<?xml version="1.0"?>
<VTKFile type="PolyData">
	<PolyData>
		<Piece NumberOfPoints="1206" NumberOfPolys="1000">
			<Points>
				<DataArray type="Float32" NumberOfComponents="3" format="ascii">
 0 0 0 0.005 0 0 0.01 0 0 0.015 0 0 0.02 0 0 0.025 0 0 0.03 0 0 0.035 0 0 0.04 0 0 0.045 0 0 0.05 0 0 0.055 0 0 0.06 0 0 0.065 0 0 0.07 0 0 0.075 0 0 0.08 0 0 0.085 0 0 0.09 0 0 0.095 0 0 0.1 0 0 0.105 0 0 0.11 0 0 0.115 0 0 0.12 0 0 0.125 0 0 0.13 0 0 0.135 0 0 0.14 0 0 0.145 0 0 0.15 0 0 0.155 0 0 0.16 0 0 0.165 0 0 0.17 0 0 0.175 0 0 0.18 0 0 0.185 0 0 0.19 0 0 0.195 0 0 0.2 0 0 0.205 0 0 0.21 0 0 0.215 0 0 0.22 0 0 0.225 0 0 0.23 0 0 0.235 0 0 0.24 0 0 0.245 0 0 0.25 0 0 0.255 0 0 0.26 0 0 0.265 0 0 0.27 0 0 0.275 0 0 0.28 0 0 0.285 0 0 0.29 0 0 0.295 0 0 0.3 0 0 0.305001 0 0 0.310003 0 0 0.315007 0 0 0.320018 0 0 0.325039 0 0 0.33008 0 0 0.335149 0 0 0.340259 0 0 0.345424 0 0 0.350658 0 0 0.355976 0 0 0.361392 0 0 0.366923 0 0 0.372583 0 0 0.378387 0 0 0.384352 0 0 0.390494 0 0 0.396831 0 0 0.40338 0 0 0.410163 0 0 0.4172 0 0 0.424515 0 0 0.432133 0 0 0.440081 0 0 0.448389 0 0 0.457086 0 0 0.466201 0 0 0.475757 0 0 0.485769 0 0 0.496232 0 0 0.507119 0 0 0.51837 0 0 0.529901 0 0 0.541619 0 0 0.553449 0 0 0.565345 0 0 0.57729 0 0 0.589303 0 0 0.601471 0 0 0.61428 0 0 0.616728 0 0 0.619131 0 0 0.621536 0 0 0.62394 0 0 0.62634 0 0 0.628735 0 0 0.631123 0 0 0.633507 0 0 0.635885 0 0 0.638256 0 0 0.640618 0 0 0.642986 0 0 0.645327 0 0 0.647673 0 0 0.649916 0 0 0.652064 0 0 0.654215 0 0 0.656497 0 0 0.658877 0 0 0.661278 0 0 0.663656 0 0 0.666017 0 0 0.668378 0 0 0.67074 0 0 0.673103 0 0 0.675463 0 0 0.677818 0 0 0.680172 0 0 0.682524 0 0 0.68488 0 0 0.687237 0 0 0.689592 0 0 0.691944 0 0 0.694294 0 0 0.696644 0 0 0.698995 0 0 0.701351 0 0 0.703708 0 0 0.706072 0 0 0.708439 0 0 0.710755 0 0 0.713274 0 0 0.716159 0 0 0.720236 0 0 0.725038 0 0 0.730006 0 0 0.735001 0 0 0.74 0 0 0.745 0 0 0.75 0 0 0.755 0 0 0.76 0 0 0.765 0 0 0.77 0 0 0.775 0 0 0.78 0 0 0.785 0 0 0.79 0 0 0.795 0 0 0.8 0 0 0.805 0 0 0.81 0 0 0.815 0 0 0.82 0 0 0.825 0 0 0.83 0 0 0.835 0 0 0.84 0 0 0.845 0 0 0.85 0 0 0.855 0 0 0.86 0 0 0.865 0 0 0.87 0 0 0.875 0 0 0.88 0 0 0.885 0 0 0.89 0 0 0.895 0 0 0.9 0 0 0.905 0 0 0.91 0 0 0.915 0 0 0.92 0 0 0.925 0 0 0.93 0 0 0.935 0 0 0.94 0 0 0.945 0 0 0.95 0 0 0.955 0 0 0.96 0 0 0.965 0 0 0.97 0 0 0.975 0 0 0.98 0 0 0.985 0 0 0.99 0 0 0.995 0 0 1 0 0 0 0.02 0 0.005 0.02 0 0.01 0.02 0 0.015 0.02 0 0.02 0.02 0 0.025 0.02 0 0.03 0.02 0 0.035 0.02 0 0.04 0.02 0 0.045 0.02 0 0.05 0.02 0 0.055 0.02 0 0.06 0.02 0 0.065 0.02 0 0.07 0.02 0 0.075 0.02 0 0.08 0.02 0 0.085 0.02 0 0.09 0.02 0 0.095 0.02 0 0.1 0.02 0 0.105 0.02 0 0.11 0.02 0 0.115 0.02 0 0.12 0.02 0 0.125 0.02 0 0.13 0.02 0 0.135 0.02 0 0.14 0.02 0 0.145 0.02 0 0.15 0.02 0 0.155 0.02 0 0.16 0.02 0 0.165 0.02 0 0.17 0.02 0 0.175 0.02 0 0.18 0.02 0 0.185 0.02 0 0.19 0.02 0 0.195 0.02 0 0.2 0.02 0 0.205 0.02 0 0.21 0.02 0 0.215 0.02 0 0.22 0.02 0 0.225 0.02 0 0.23 0.02 0 0.235 0.02 0 0.24 0.02 0 0.245 0.02 0 0.25 0.02 0 0.255 0.02 0 0.26 0.02 0 0.265 0.02 0 0.27 0.02 0 0.275 0.02 0 0.28 0.02 0 0.285 0.02 0 0.29 0.02 0 0.295 0.02 0 0.3 0.02 0 0.305001 0.02 0 0.310003 0.02 0 0.315007 0.02 0 0.320018 0.02 0 0.325039 0.02 0 0.33008 0.02 0 0.335149 0.02 0 0.340259 0.02 0 0.345424 0.02 0 0.350658 0.02 0 0.355976 0.02 0 0.361392 0.02 0 0.366923 0.02 0 0.372583 0.02 0 0.378387 0.02 0 0.384352 0.02 0 0.390494 0.02 0 0.396831 0.02 0 0.40338 0.02 0 0.410163 0.02 0 0.4172 0.02 0 0.424515 0.02 0 0.432133 0.02 0 0.440081 0.02 0 0.448389 0.02 0 0.457086 0.02 0 0.466201 0.02 0 0.475757 0.02 0 0.485769 0.02 0 0.496232 0.02 0 0.507119 0.02 0 0.51837 0.02 0 0.529901 0.02 0 0.541619 0.02 0 0.553449 0.02 0 0.565345 0.02 0 0.57729 0.02 0 0.589303 0.0199997 0 0.60147 0.0199999 0 0.614277 0.0199985 0 0.616724 0.0199975 0 0.619126 0.0199967 0 0.621532 0.0199944 0 0.623936 0.0199922 0 0.626334 0.0199913 0 0.628725 0.0199908 0 0.631111 0.0199912 0 0.633495 0.0199916 0 0.635876 0.0199944 0 0.638257 0.0199991 0 0.64064 0.0200036 0 0.643008 0.0200064 0 0.6454 0.0200096 0 0.647784 0.0200076 0 0.650265 0.0200119 0 0.652836 0.0200074 0 0.655395 0.0199928 0 0.657823 0.0199834 0 0.660162 0.0199764 0 0.662483 0.0199775 0 0.664826 0.0199824 0 0.667183 0.0199926 0 0.669537 0.0199974 0 0.671889 0.0200006 0 0.674238 0.0200023 0 0.676591 0.0200027 0 0.678947 0.0200041 0 0.681304 0.0200059 0 0.683662 0.0200059 0 0.686016 0.0200061 0 0.688368 0.0200068 0 0.690722 0.0200078 0 0.693077 0.0200077 0 0.695434 0.0200068 0 0.69779 0.0200065 0 0.700142 0.0200059 0 0.702491 0.0200064 0 0.704842 0.0200064 0 0.707196 0.0200053 0 0.709517 0.020005 0 0.711799 0.0200042 0 0.71397 0.020002 0 0.716373 0.0200003 0 0.720236 0.02 0 0.725038 0.02 0 0.730006 0.02 0 0.735001 0.02 0 0.74 0.02 0 0.745 0.02 0 0.75 0.02 0 0.755 0.02 0 0.76 0.02 0 0.765 0.02 0 0.77 0.02 0 0.775 0.02 0 0.78 0.02 0 0.785 0.02 0 0.79 0.02 0 0.795 0.02 0 0.8 0.02 0 0.805 0.02 0 0.81 0.02 0 0.815 0.02 0 0.82 0.02 0 0.825 0.02 0 0.83 0.02 0 0.835 0.02 0 0.84 0.02 0 0.845 0.02 0 0.85 0.02 0 0.855 0.02 0 0.86 0.02 0 0.865 0.02 0 0.87 0.02 0 0.875 0.02 0 0.88 0.02 0 0.885 0.02 0 0.89 0.02 0 0.895 0.02 0 0.9 0.02 0 0.905 0.02 0 0.91 0.02 0 0.915 0.02 0 0.92 0.02 0 0.925 0.02 0 0.93 0.02 0 0.935 0.02 0 0.94 0.02 0 0.945 0.02 0 0.95 0.02 0 0.955 0.02 0 0.96 0.02 0 0.965 0.02 0 0.97 0.02 0 0.975 0.02 0 0.98 0.02 0 0.985 0.02 0 0.99 0.02 0 0.995 0.02 0 1 0.02 0 0 0.04 0 0.005 0.04 0 0.01 0.04 0 0.015 0.04 0 0.02 0.04 0 0.025 0.04 0 0.03 0.04 0 0.035 0.04 0 0.04 0.04 0 0.045 0.04 0 0.05 0.04 0 0.055 0.04 0 0.06 0.04 0 0.065 0.04 0 0.07 0.04 0 0.075 0.04 0 0.08 0.04 0 0.085 0.04 0 0.09 0.04 0 0.095 0.04 0 0.1 0.04 0 0.105 0.04 0 0.11 0.04 0 0.115 0.04 0 0.12 0.04 0 0.125 0.04 0 0.13 0.04 0 0.135 0.04 0 0.14 0.04 0 0.145 0.04 0 0.15 0.04 0 0.155 0.04 0 0.16 0.04 0 0.165 0.04 0 0.17 0.04 0 0.175 0.04 0 0.18 0.04 0 0.185 0.04 0 0.19 0.04 0 0.195 0.04 0 0.2 0.04 0 0.205 0.04 0 0.21 0.04 0 0.215 0.04 0 0.22 0.04 0 0.225 0.04 0 0.23 0.04 0 0.235 0.04 0 0.24 0.04 0 0.245 0.04 0 0.25 0.04 0 0.255 0.04 0 0.26 0.04 0 0.265 0.04 0 0.27 0.04 0 0.275 0.04 0 0.28 0.04 0 0.285 0.04 0 0.29 0.04 0 0.295 0.04 0 0.3 0.04 0 0.305001 0.04 0 0.310003 0.04 0 0.315007 0.04 0 0.320018 0.04 0 0.325039 0.04 0 0.33008 0.04 0 0.335149 0.04 0 0.340259 0.04 0 0.345424 0.04 0 0.350658 0.04 0 0.355976 0.04 0 0.361392 0.04 0 0.366923 0.04 0 0.372583 0.04 0 0.378387 0.04 0 0.384352 0.04 0 0.390494 0.04 0 0.396831 0.04 0 0.40338 0.04 0 0.410163 0.04 0 0.4172 0.04 0 0.424515 0.04 0 0.432133 0.04 0 0.440081 0.04 0 0.448389 0.04 0 0.457086 0.04 0 0.466201 0.04 0 0.475757 0.04 0 0.485769 0.04 0 0.496232 0.04 0 0.507119 0.04 0 0.51837 0.04 0 0.529901 0.04 0 0.541619 0.04 0 0.553449 0.04 0 0.565345 0.04 0 0.57729 0.0399999 0 0.589302 0.0399995 0 0.60147 0.0399997 0 0.614279 0.0399953 0 0.616728 0.0399922 0 0.619131 0.0399916 0 0.621536 0.0399923 0 0.623938 0.0399933 0 0.626332 0.0399946 0 0.628719 0.0399959 0 0.631102 0.0399955 0 0.633479 0.0399949 0 0.635854 0.0399939 0 0.638224 0.0399955 0 0.640589 0.0399953 0 0.642964 0.039999 0 0.645311 0.0400034 0 0.647661 0.0400108 0 0.649905 0.0400282 0 0.65205 0.0400303 0 0.654189 0.0400154 0 0.656457 0.0399922 0 0.658821 0.0399837 0 0.661207 0.0399839 0 0.663571 0.0399909 0 0.665924 0.0399957 0 0.668282 0.0399964 0 0.670643 0.0399994 0 0.673009 0.0400009 0 0.67537 0.0400005 0 0.677728 0.0400042 0 0.680083 0.0400067 0 0.682438 0.0400079 0 0.684795 0.0400077 0 0.687153 0.0400064 0 0.689511 0.0400075 0 0.691868 0.040007 0 0.694222 0.0400059 0 0.696575 0.0400049 0 0.69893 0.0400028 0 0.701292 0.0399993 0 0.703657 0.0399958 0 0.706032 0.0399941 0 0.708403 0.0399945 0 0.710719 0.0399952 0 0.713243 0.0399972 0 0.716151 0.0399994 0 0.720237 0.04 0 0.725038 0.04 0 0.730006 0.04 0 0.735001 0.04 0 0.74 0.04 0 0.745 0.04 0 0.75 0.04 0 0.755 0.04 0 0.76 0.04 0 0.765 0.04 0 0.77 0.04 0 0.775 0.04 0 0.78 0.04 0 0.785 0.04 0 0.79 0.04 0 0.795 0.04 0 0.8 0.04 0 0.805 0.04 0 0.81 0.04 0 0.815 0.04 0 0.82 0.04 0 0.825 0.04 0 0.83 0.04 0 0.835 0.04 0 0.84 0.04 0 0.845 0.04 0 0.85 0.04 0 0.855 0.04 0 0.86 0.04 0 0.865 0.04 0 0.87 0.04 0 0.875 0.04 0 0.88 0.04 0 0.885 0.04 0 0.89 0.04 0 0.895 0.04 0 0.9 0.04 0 0.905 0.04 0 0.91 0.04 0 0.915 0.04 0 0.92 0.04 0 0.925 0.04 0 0.93 0.04 0 0.935 0.04 0 0.94 0.04 0 0.945 0.04 0 0.95 0.04 0 0.955 0.04 0 0.96 0.04 0 0.965 0.04 0 0.97 0.04 0 0.975 0.04 0 0.98 0.04 0 0.985 0.04 0 0.99 0.04 0 0.995 0.04 0 1 0.04 0 0 0.06 0 0.005 0.06 0 0.01 0.06 0 0.015 0.06 0 0.02 0.06 0 0.025 0.06 0 0.03 0.06 0 0.035 0.06 0 0.04 0.06 0 0.045 0.06 0 0.05 0.06 0 0.055 0.06 0 0.06 0.06 0 0.065 0.06 0 0.07 0.06 0 0.075 0.06 0 0.08 0.06 0 0.085 0.06 0 0.09 0.06 0 0.095 0.06 0 0.1 0.06 0 0.105 0.06 0 0.11 0.06 0 0.115 0.06 0 0.12 0.06 0 0.125 0.06 0 0.13 0.06 0 0.135 0.06 0 0.14 0.06 0 0.145 0.06 0 0.15 0.06 0 0.155 0.06 0 0.16 0.06 0 0.165 0.06 0 0.17 0.06 0 0.175 0.06 0 0.18 0.06 0 0.185 0.06 0 0.19 0.06 0 0.195 0.06 0 0.2 0.06 0 0.205 0.06 0 0.21 0.06 0 0.215 0.06 0 0.22 0.06 0 0.225 0.06 0 0.23 0.06 0 0.235 0.06 0 0.24 0.06 0 0.245 0.06 0 0.25 0.06 0 0.255 0.06 0 0.26 0.06 0 0.265 0.06 0 0.27 0.06 0 0.275 0.06 0 0.28 0.06 0 0.285 0.06 0 0.29 0.06 0 0.295 0.06 0 0.3 0.06 0 0.305001 0.06 0 0.310003 0.06 0 0.315007 0.06 0 0.320018 0.06 0 0.325039 0.06 0 0.33008 0.06 0 0.335149 0.06 0 0.340259 0.06 0 0.345424 0.06 0 0.350658 0.06 0 0.355976 0.06 0 0.361392 0.06 0 0.366923 0.06 0 0.372583 0.06 0 0.378387 0.06 0 0.384352 0.06 0 0.390494 0.06 0 0.396831 0.06 0 0.40338 0.06 0 0.410163 0.06 0 0.4172 0.06 0 0.424515 0.06 0 0.432133 0.06 0 0.440081 0.06 0 0.448389 0.06 0 0.457086 0.06 0 0.466201 0.06 0 0.475757 0.06 0 0.485769 0.06 0 0.496232 0.06 0 0.507119 0.06 0 0.51837 0.06 0 0.529901 0.06 0 0.541619 0.06 0 0.553449 0.06 0 0.565345 0.06 0 0.577289 0.0599999 0 0.589301 0.0599997 0 0.601468 0.0599997 0 0.614273 0.059996 0 0.616718 0.0599947 0 0.619115 0.0599949 0 0.621518 0.0599958 0 0.62392 0.0599976 0 0.626317 0.0599979 0 0.628709 0.0599978 0 0.631097 0.0599978 0 0.633482 
[...]
			<CellData Scalars="Density">
				<DataArray Name="Density" type="Float32" format="ascii">
 1 1 1 1 1 1 1 1 1 1 1 1 1 1 1 1 1 1 1 1 1 1 1 1 1 1 1 1 1 1 1 1 1 1 1 1 1 1 1 1 1 1 1 1 1 1 1 1 1 1 1 1 1 1 1 0.999999 0.999997 0.999993 0.99998 0.999948 0.999862 0.999643 0.999096 0.997919 0.9957 0.991984 0.986328 0.978422 0.968091 0.955332 0.940266 0.923092 0.904061 0.883412 0.861397 0.838207 0.814055 0.789069 0.763419 0.7372 0.710544 0.683551 0.656338 0.629044 0.601826 0.574905 0.548572 0.523229 0.499418 0.477834 0.459263 0.444414 0.433637 0.426673 0.422642 0.420336 0.418575 0.416229 0.410915 0.390394 0.255384 0.260292 0.259892 0.260133 0.26077 0.261479 0.262021 0.262437 0.262834 0.263154 0.263424 0.263707 0.263922 0.264068 0.264289 0.264621 0.265389 0.265735 0.265478 0.265348 0.265335 0.265298 0.265242 0.265196 0.265187 0.265166 0.265217 0.265206 0.265245 0.265257 0.265264 0.265292 0.265321 0.265355 0.265418 0.265588 0.26557 0.265265 0.264757 0.266541 0.271699 0.266483 0.23635 0.157426 0.130148 0.12581 0.125127 0.12502 0.125003 0.125 0.125 0.125 0.125 0.125 0.125 0.125 0.125 0.125 0.125 0.125 0.125 0.125 0.125 0.125 0.125 0.125 0.125 0.125 0.125 0.125 0.125 0.125 0.125 0.125 0.125 0.125 0.125 0.125 0.125 0.125 0.125 0.125 0.125 0.125 0.125 0.125 0.125 0.125 0.125 0.125 0.125 0.125 0.125 0.125 0.125 0.125 0.125 0.125 0.125 0.125 1 1 1 1 1 1 1 1 1 1 1 1 1 1 1 1 1 1 1 1 1 1 1 1 1 1 1 1 1 1 1 1 1 1 1 1 1 1 1 1 1 1 1 1 1 1 1 1 1 1 1 1 1 1 1 0.999999 0.999997 0.999993 0.99998 0.999948 0.999862 0.999643 0.999096 0.997919 0.9957 0.991984 0.986328 0.978422 0.968091 0.955332 0.940266 0.923092 0.904061 0.883412 0.861397 0.838207 0.814055 0.789069 0.763419 0.7372 0.710544 0.683551 0.656338 0.629044 0.601826 0.574905 0.548572 0.523229 0.499418 0.477834 0.459263 0.444414 0.433637 0.426673 0.422643 0.420337 0.418578 0.416234 0.410926 0.390401 0.255397 0.260298 0.259897 0.260132 0.260761 0.26153 0.261981 0.262428 0.26283 0.263171 0.26343 0.263719 0.26398 0.264098 0.264223 0.264542 0.26541 0.265757 0.265556 0.265405 0.265336 0.265246 0.265228 0.265231 0.265164 0.26522 0.265168 0.265234 0.265219 0.265308 0.265322 0.265327 0.265308 0.265336 0.265452 0.265624 0.265523 0.265235 0.26463 0.266774 0.272078 0.266445 0.23544 0.157252 0.130155 0.125812 0.125127 0.12502 0.125003 0.125 0.125 0.125 0.125 0.125 0.125 0.125 0.125 0.125 0.125 0.125 0.125 0.125 0.125 0.125 0.125 0.125 0.125 0.125 0.125 0.125 0.125 0.125 0.125 0.125 0.125 0.125 0.125 0.125 0.125 0.125 0.125 0.125 0.125 0.125 0.125 0.125 0.125 0.125 0.125 0.125 0.125 0.125 0.125 0.125 0.125 0.125 0.125 0.125 0.125 0.125 1 1 1 1 1 1 1 1 1 1 1 1 1 1 1 1 1 1 1 1 1 1 1 1 1 1 1 1 1 1 1 1 1 1 1 1 1 1 1 1 1 1 1 1 1 1 1 1 1 1 1 1 1 1 1 0.999999 0.999997 0.999993 0.99998 0.999948 0.999862 0.999643 0.999096 0.997919 0.9957 0.991984 0.986328 0.978422 0.968091 0.955332 0.940266 0.923092 0.904061 0.883412 0.861397 0.838207 0.814055 0.789069 0.763419 0.7372 0.710544 0.683551 0.656338 0.629044 0.601826 0.574905 0.548572 0.523229 0.499418 0.477834 0.459263 0.444414 0.433637 0.426674 0.422643 0.420339 0.418583 0.416242 0.410941 0.390406 0.255391 0.260306 0.25991 0.260138 0.26074 0.261477 0.261992 0.262448 0.26285 0.263161 0.263417 0.263672 0.263895 0.264083 0.264165 0.264553 0.265353 0.265709 0.265497 0.26535 0.265306 0.265297 0.265247 0.265227 0.265207 0.26517 0.265245 0.265205 0.26531 0.265246 0.265304 0.265301 0.265327 0.265389 0.265499 0.26561 0.265431 0.264641 0.264572 0.266902 0.272051 0.266451 0.23522 0.157372 0.130179 0.125815 0.125127 0.12502 0.125003 0.125 0.125 0.125 0.125 0.125 0.125 0.125 0.125 0.125 0.125 0.125 0.125 0.125 0.125 0.125 0.125 0.125 0.125 0.125 0.125 0.125 0.125 0.125 0.125 0.125 0.125 0.125 0.125 0.125 0.125 0.125 0.125 0.125 0.125 0.125 0.125 0.125 0.125 0.125 0.125 0.125 0.125 0.125 0.125 0.125 0.125 0.125 0.125 0.125 0.125 0.125 1 1 1 1 1 1 1 1 1 1 1 1 1 1 1 1 1 1 1 1 1 1 1 1 1 1 1 1 1 1 1 1 1 1 1 1 1 1 1 1 1 1 1 1 1 1 1 1 1 1 1 1 1 1 1 0.999999 0.999997 0.999993 0.99998 0.999948 0.999862 0.999643 0.999096 0.997919 0.9957 0.991984 0.986328 0.978422 0.968091 0.955332 0.940266 0.923092 0.904061 0.883412 0.861397 0.838207 0.814055 0.789069 0.763419 0.7372 0.710544 0.683551 0.656338 0.629044 0.601826 0.574905 0.548572 0.523229 0.499418 0.477834 0.459263 0.444414 0.433637 0.426675 0.422645 0.420342 0.418587 0.416248 0.41095 0.390418 0.255411 0.260314 0.259902 0.260127 0.26077 0.261502 0.262014 0.262431 0.262848 0.263186 0.263438 0.263726 0.263955 0.263986 0.264351 0.264598 0.265265 0.265757 0.265608 0.265403 0.265422 0.265313 0.265285 0.265228 0.265234 0.265232 0.265264 0.26525 0.265327 0.265321 0.265354 0.265401 0.265408 0.265413 0.265567 0.265763 0.265765 0.264878 0.264681 0.26679 0.271262 0.265855 0.23648 0.157796 0.130197 0.125815 0.125127 0.12502 0.125003 0.125 0.125 0.125 0.125 0.125 0.125 0.125 0.125 0.125 0.125 0.125 0.125 0.125 0.125 0.125 0.125 0.125 0.125 0.125 0.125 0.125 0.125 0.125 0.125 0.125 0.125 0.125 0.125 0.125 0.125 0.125 0.125 0.125 0.125 0.125 0.125 0.125 0.125 0.125 0.125 0.125 0.125 0.125 0.125 0.125 0.125 0.125 0.125 0.125 0.125 0.125 1 1 1 1 1 1 1 1 1 1 1 1 1 1 1 1 1 1 1 1 1 1 1 1 1 1 1 1 1 1 1 1 1 1 1 1 1 1 1 1 1 1 1 1 1 1 1 1 1 1 1 1 1 1 1 0.999999 0.999997 0.999993 0.99998 0.999948 0.999862 0.999643 0.999096 0.997919 0.9957 0.991984 0.986328 0.978422 0.968091 0.955332 0.940266 0.923092 0.904061 0.883412 0.861397 0.838207 0.814055 0.789069 0.763419 0.7372 0.710544 0.683551 0.656338 0.629044 0.601826 0.574905 0.548572 0.523229 0.499418 0.477834 0.459263 0.444414 0.433638 0.426675 0.422646 0.420343 0.418588 0.416247 0.410942 0.390415 0.255385 0.260296 0.259895 0.260141 0.260763 0.261505 0.262022 0.262454 0.262848 0.263173 0.263437 0.263724 0.263953 0.264164 0.264206 0.2645 0.265238 0.265699 0.265506 0.265381 0.265335 0.265286 0.265251 0.265211 0.265189 0.265202 0.26522 0.265241 0.265271 0.265306 0.265342 0.265381 0.265408 0.265454 0.265584 0.265746 0.265697 0.265168 0.264732 0.266852 0.271602 0.265293 0.235325 0.15714 0.13016 0.125814 0.125127 0.12502 0.125003 0.125 0.125 0.125 0.125 0.125 0.125 0.125 0.125 0.125 0.125 0.125 0.125 0.125 0.125 0.125 0.125 0.125 0.125 0.125 0.125 0.125 0.125 0.125 0.125 0.125 0.125 0.125 0.125 0.125 0.125 0.125 0.125 0.125 0.125 0.125 0.125 0.125 0.125 0.125 0.125 0.125 0.125 0.125 0.125 0.125 0.125 0.125 0.125 0.125 0.125 0.125
				</DataArray>
				<DataArray Name="Energy" type="Float32" format="ascii">
 2.5 2.5 2.5 2.5 2.5 2.5 2.5 2.5 2.5 2.5 2.5 2.5 2.5 2.5 2.5 2.5 2.5 2.5 2.5 2.5 2.5 2.5 2.5 2.5 2.5 2.5 2.5 2.5 2.5 2.5 2.5 2.5 2.5 2.5 2.5 2.5 2.5 2.5 2.5 2.5 2.5 2.5 2.5 2.5 2.5 2.5 2.5 2.5 2.5 2.5 2.5 2.5 2.5 2.5 2.5 2.5 2.5 2.49999 2.49998 2.49995 2.49986 2.49964 2.4991 2.49792 2.4957 2.49198 2.4863 2.47835 2.46791 2.45495 2.43953 2.42181 2.40197 2.3802 2.35668 2.33156 2.30499 2.27705 2.24787 2.21748 2.18598 2.15342 2.11989 2.08551 2.05042 2.01488 1.97927 1.94416 1.91042 1.87922 1.85201 1.83029 1.81509 1.80652 1.80365 1.80511 1.81012 1.81985 1.84337 1.94042 2.9663 2.91025 2.91482 2.91218 2.90528 2.89686 2.89136 2.8866 2.88225 2.87879 2.87608 2.87317 2.87072 2.86901 2.86694 2.8631 2.85455 2.85117 2.85346 2.8547 2.85508 2.85576 2.85626 2.85666 2.85706 2.85689 2.85693 2.85655 2.8562 2.85576 2.85586 2.85566 2.85543 2.8552 2.85496 2.85538 2.85547 2.85395 2.85154 2.85894 2.88028 2.85698 2.7081 2.22907 2.03388 2.00521 2.00081 2.00013 2.00002 2 2 2 2 2 2 2 2 2 2 2 2 2 2 2 2 2 2 2 2 2 2 2 2 2 2 2 2 2 2 2 2 2 2 2 2 2 2 2 2 2 2 2 2 2 2 2 2 2 2 2 2.5 2.5 2.5 2.5 2.5 2.5 2.5 2.5 2.5 2.5 2.5 2.5 2.5 2.5 2.5 2.5 2.5 2.5 2.5 2.5 2.5 2.5 2.5 2.5 2.5 2.5 2.5 2.5 2.5 2.5 2.5 2.5 2.5 2.5 2.5 2.5 2.5 2.5 2.5 2.5 2.5 2.5 2.5 2.5 2.5 2.5 2.5 2.5 2.5 2.5 2.5 2.5 2.5 2.5 2.5 2.5 2.5 2.49999 2.49998 2.49995 2.49986 2.49964 2.4991 2.49792 2.4957 2.49198 2.4863 2.47835 2.46791 2.45495 2.43953 2.42181 2.40197 2.3802 2.35668 2.33156 2.30499 2.27705 2.24787 2.21748 2.18598 2.15342 2.11989 2.08551 2.05042 2.01488 1.97927 1.94416 1.91042 1.87922 1.85201 1.83029 1.81509 1.80652 1.80365 1.80512 1.81012 1.81985 1.84339 1.94044 2.96636 2.91028 2.91484 2.91218 2.90523 2.89708 2.89119 2.88656 2.88224 2.87886 2.87611 2.87322 2.87097 2.8692 2.8668 2.86363 2.85542 2.85038 2.85275 2.85443 2.85502 2.85572 2.85625 2.85675 2.85685 2.85714 2.85673 2.8567 2.85615 2.85614 2.85616 2.856 2.85558 2.8553 2.8553 2.85584 2.85536 2.85416 2.85134 2.86022 2.88222 2.85731 2.70409 2.22781 2.03393 2.00523 2.00081 2.00013 2.00002 2 2 2 2 2 2 2 2 2 2 2 2 2 2 2 2 2 2 2 2 2 2 2 2 2 2 2 2 2 2 2 2 2 2 2 2 2 2 2 2 2 2 2 2 2 2 2 2 2 2 2 2.5 2.5 2.5 2.5 2.5 2.5 2.5 2.5 2.5 2.5 2.5 2.5 2.5 2.5 2.5 2.5 2.5 2.5 2.5 2.5 2.5 2.5 2.5 2.5 2.5 2.5 2.5 2.5 2.5 2.5 2.5 2.5 2.5 2.5 2.5 2.5 2.5 2.5 2.5 2.5 2.5 2.5 2.5 2.5 2.5 2.5 2.5 2.5 2.5 2.5 2.5 2.5 2.5 2.5 2.5 2.5 2.5 2.49999 2.49998 2.49995 2.49986 2.49964 2.4991 2.49792 2.4957 2.49198 2.4863 2.47835 2.46791 2.45495 2.43953 2.42181 2.40197 2.3802 2.35668 2.33156 2.30499 2.27705 2.24787 2.21748 2.18598 2.15342 2.11989 2.08551 2.05042 2.01488 1.97927 1.94416 1.91042 1.87922 1.85201 1.83029 1.81509 1.80652 1.80365 1.80512 1.81013 1.81987 1.84342 1.94045 2.96633 2.91032 2.9149 2.9122 2.90514 2.89685 2.89123 2.88664 2.88232 2.87882 2.87605 2.87302 2.87061 2.86909 2.86635 2.86351 2.8559 2.85175 2.8538 2.85491 2.85503 2.85561 2.85616 2.85665 2.85706 2.85689 2.85703 2.85657 2.85656 2.85595 2.85625 2.85601 2.85574 2.85562 2.85563 2.85597 2.85529 2.8518 2.85124 2.86093 2.88232 2.85761 2.70343 2.22869 2.03409 2.00524 2.00082 2.00013 2.00002 2 2 2 2 2 2 2 2 2 2 2 2 2 2 2 2 2 2 2 2 2 2 2 2 2 2 2 2 2 2 2 2 2 2 2 2 2 2 2 2 2 2 2 2 2 2 2 2 2 2 2 2.5 2.5 2.5 2.5 2.5 2.5 2.5 2.5 2.5 2.5 2.5 2.5 2.5 2.5 2.5 2.5 2.5 2.5 2.5 2.5 2.5 2.5 2.5 2.5 2.5 2.5 2.5 2.5 2.5 2.5 2.5 2.5 2.5 2.5 2.5 2.5 2.5 2.5 2.5 2.5 2.5 2.5 2.5 2.5 2.5 2.5 2.5 2.5 2.5 2.5 2.5 2.5 2.5 2.5 2.5 2.5 2.5 2.49999 2.49998 2.49995 2.49986 2.49964 2.4991 2.49792 2.4957 2.49198 2.4863 2.47835 2.46791 2.45495 2.43953 2.42181 2.40197 2.3802 2.35668 2.33156 2.30499 2.27705 2.24787 2.21748 2.18598 2.15342 2.11989 2.08551 2.05042 2.01488 1.97927 1.94416 1.91042 1.87922 1.85201 1.83029 1.81509 1.80652 1.80365 1.80512 1.81014 1.81988 1.84343 1.94047 2.96643 2.91035 2.91487 2.91215 2.90528 2.89696 2.89133 2.88657 2.88231 2.87893 2.87615 2.87325 2.87087 2.86872 2.86734 2.86462 2.85614 2.85089 2.85296 2.85413 2.8549 2.85542 2.8559 2.85638 2.85669 2.85664 2.85661 2.85628 2.85617 2.85584 2.85587 2.85572 2.85543 2.85508 2.85527 2.85589 2.85587 2.85182 2.85074 2.85949 2.87789 2.85399 2.70809 2.2316 2.03421 2.00524 2.00082 2.00013 2.00002 2 2 2 2 2 2 2 2 2 2 2 2 2 2 2 2 2 2 2 2 2 2 2 2 2 2 2 2 2 2 2 2 2 2 2 2 2 2 2 2 2 2 2 2 2 2 2 2 2 2 2 2.5 2.5 2.5 2.5 2.5 2.5 2.5 2.5 2.5 2.5 2.5 2.5 2.5 2.5 2.5 2.5 2.5 2.5 2.5 2.5 2.5 2.5 2.5 2.5 2.5 2.5 2.5 2.5 2.5 2.5 2.5 2.5 2.5 2.5 2.5 2.5 2.5 2.5 2.5 2.5 2.5 2.5 2.5 2.5 2.5 2.5 2.5 2.5 2.5 2.5 2.5 2.5 2.5 2.5 2.5 2.5 2.5 2.49999 2.49998 2.49995 2.49986 2.49964 2.4991 2.49792 2.4957 2.49198 2.4863 2.47835 2.46791 2.45495 2.43953 2.42181 2.40197 2.3802 2.35668 2.33156 2.30499 2.27705 2.24787 2.21748 2.18598 2.15342 2.11989 2.08551 2.05042 2.01488 1.97927 1.94416 1.91042 1.87922 1.85201 1.83029 1.81509 1.80652 1.80365 1.80513 1.81014 1.81988 1.84342 1.94046 2.9663 2.91027 2.91483 2.91222 2.90524 2.89697 2.89136 2.88667 2.88231 2.87887 2.87614 2.87325 2.87087 2.86946 2.86655 2.86386 2.85607 2.85121 2.85317 2.85474 2.85521 2.85585 2.85619 2.85672 2.85701 2.85707 2.85697 2.85677 2.8565 2.8564 2.85641 2.85636 2.85616 2.85599 2.85615 2.85668 2.85645 2.85409 2.85199 2.86083 2.88051 2.85283 2.70236 2.22679 2.03396 2.00523 2.00082 2.00013 2.00002 2 2 2 2 2 2 2 2 2 2 2 2 2 2 2 2 2 2 2 2 2 2 2 2 2 2 2 2 2 2 2 2 2 2 2 2 2 2 2 2 2 2 2 2 2 2 2 2 2 2 2
				</DataArray>
				<DataArray Name="F1" type="Float32" format="ascii">
 1 1 1 1 1 1 1 1 1 1 1 1 1 1 1 1 1 1 1 1 1 1 1 1 1 1 1 1 1 1 1 1 1 1 1 1 1 1 1 1 1 1 1 1 1 1 1 1 1 1 1 1 1 1 1 1 1 1 1 1 1 1 1 1 1 1 1 1 1 1 1 1 1 1 1 1 1 1 1 1 1 1 1 1 1 1 1 1 1 1 1 1 1 1 1 1 1 1 1 1 0 0 0 0 0 0 0 0 0 0 0 0 0 0 0 0 0 0 0 0 0 0 0 0 0 0 0 0 0 0 0 0 0 0 0 0 0 0 0 0 0 0 0 0 0 0 0 0 0 0 0 0 0 0 0 0 0 0 0 0 0 0 0 0 0 0 0 0 0 0 0 0 0 0 0 0 0 0 0 0 0 0 0 0 0 0 0 0 0 0 0 0 0 0 0 0 0 0 0 0 1 1 1 1 1 1 1 1 1 1 1 1 1 1 1 1 1 1 1 1 1 1 1 1 1 1 1 1 1 1 1 1 1 1 1 1 1 1 1 1 1 1 1 1 1 1 1 1 1 1 1 1 1 1 1 1 1 1 1 1 1 1 1 1 1 1 1 1 1 1 1 1 1 1 1 1 1 1 1 1 1 1 1 1 1 1 1 1 1 1 1 1 1 1 1 1 1 1 1 1 0 0 0 0 0 0 0 0 0 0 0 0 0 0 0 0 0 0 0 0 0 0 0 0 0 0 0 0 0 0 0 0 0 0 0 0 0 0 0 0 0 0 0 0 0 0 0 0 0 0 0 0 0 0 0 0 0 0 0 0 0 0 0 0 0 0 0 0 0 0 0 0 0 0 0 0 0 0 0 0 0 0 0 0 0 0 0 0 0 0 0 0 0 0 0 0 0 0 0 0 1 1 1 1 1 1 1 1 1 1 1 1 1 1 1 1 1 1 1 1 1 1 1 1 1 1 1 1 1 1 1 1 1 1 1 1 1 1 1 1 1 1 1 1 1 1 1 1 1 1 1 1 1 1 1 1 1 1 1 1 1 1 1 1 1 1 1 1 1 1 1 1 1 1 1 1 1 1 1 1 1 1 1 1 1 1 1 1 1 1 1 1 1 1 1 1 1 1 1 1 0 0 0 0 0 0 0 0 0 0 0 0 0 0 0 0 0 0 0 0 0 0 0 0 0 0 0 0 0 0 0 0 0 0 0 0 0 0 0 0 0 0 0 0 0 0 0 0 0 0 0 0 0 0 0 0 0 0 0 0 0 0 0 0 0 0 0 0 0 0 0 0 0 0 0 0 0 0 0 0 0 0 0 0 0 0 0 0 0 0 0 0 0 0 0 0 0 0 0 0 1 1 1 1 1 1 1 1 1 1 1 1 1 1 1 1 1 1 1 1 1 1 1 1 1 1 1 1 1 1 1 1 1 1 1 1 1 1 1 1 1 1 1 1 1 1 1 1 1 1 1 1 1 1 1 1 1 1 1 1 1 1 1 1 1 1 1 1 1 1 1 1 1 1 1 1 1 1 1 1 1 1 1 1 1 1 1 1 1 1 1 1 1 1 1 1 1 1 1 1 0 0 0 0 0 0 0 0 0 0 0 0 0 0 0 0 0 0 0 0 0 0 0 0 0 0 0 0 0 0 0 0 0 0 0 0 0 0 0 0 0 0 0 0 0 0 0 0 0 0 0 0 0 0 0 0 0 0 0 0 0 0 0 0 0 0 0 0 0 0 0 0 0 0 0 0 0 0 0 0 0 0 0 0 0 0 0 0 0 0 0 0 0 0 0 0 0 0 0 0 1 1 1 1 1 1 1 1 1 1 1 1 1 1 1 1 1 1 1 1 1 1 1 1 1 1 1 1 1 1 1 1 1 1 1 1 1 1 1 1 1 1 1 1 1 1 1 1 1 1 1 1 1 1 1 1 1 1 1 1 1 1 1 1 1 1 1 1 1 1 1 1 1 1 1 1 1 1 1 1 1 1 1 1 1 1 1 1 1 1 1 1 1 1 1 1 1 1 1 1 0 0 0 0 0 0 0 0 0 0 0 0 0 0 0 0 0 0 0 0 0 0 0 0 0 0 0 0 0 0 0 0 0 0 0 0 0 0 0 0 0 0 0 0 0 0 0 0 0 0 0 0 0 0 0 0 0 0 0 0 0 0 0 0 0 0 0 0 0 0 0 0 0 0 0 0 0 0 0 0 0 0 0 0 0 0 0 0 0 0 0 0 0 0 0 0 0 0 0 0
				</DataArray>
				<DataArray Name="F2" type="Float32" format="ascii">
 0 0 0 0 0 0 0 0 0 0 0 0 0 0 0 0 0 0 0 0 0 0 0 0 0 0 0 0 0 0 0 0 0 0 0 0 0 0 0 0 0 0 0 0 0 0 0 0 0 0 0 0 0 0 0 0 0 0 0 0 0 0 0 0 0 0 0 0 0 0 0 0 0 0 0 0 0 0 0 0 0 0 0 0 0 0 0 0 0 0 0 0 0 0 0 0 0 0 0 0 1 1 1 1 1 1 1 1 1 1 1 1 1 1 1 1 1 1 1 1 1 1 1 1 1 1 1 1 1 1 1 1 1 1 1 1 1 1 1 1 1 1 1 1 1 1 1 1 1 1 1 1 1 1 1 1 1 1 1 1 1 1 1 1 1 1 1 1 1 1 1 1 1 1 1 1 1 1 1 1 1 1 1 1 1 1 1 1 1 1 1 1 1 1 1 1 1 1 1 1 0 0 0 0 0 0 0 0 0 0 0 0 0 0 0 0 0 0 0 0 0 0 0 0 0 0 0 0 0 0 0 0 0 0 0 0 0 0 0 0 0 0 0 0 0 0 0 0 0 0 0 0 0 0 0 0 0 0 0 0 0 0 0 0 0 0 0 0 0 0 0 0 0 0 0 0 0 0 0 0 0 0 0 0 0 0 0 0 0 0 0 0 0 0 0 0 0 0 0 0 1 1 1 1 1 1 1 1 1 1 1 1 1 1 1 1 1 1 1 1 1 1 1 1 1 1 1 1 1 1 1 1 1 1 1 1 1 1 1 1 1 1 1 1 1 1 1 1 1 1 1 1 1 1 1 1 1 1 1 1 1 1 1 1 1 1 1 1 1 1 1 1 1 1 1 1 1 1 1 1 1 1 1 1 1 1 1 1 1 1 1 1 1 1 1 1 1 1 1 1 0 0 0 0 0 0 0 0 0 0 0 0 0 0 0 0 0 0 0 0 0 0 0 0 0 0 0 0 0 0 0 0 0 0 0 0 0 0 0 0 0 0 0 0 0 0 0 0 0 0 0 0 0 0 0 0 0 0 0 0 0 0 0 0 0 0 0 0 0 0 0 0 0 0 0 0 0 0 0 0 0 0 0 0 0 0 0 0 0 0 0 0 0 0 0 0 0 0 0 0 1 1 1 1 1 1 1 1 1 1 1 1 1 1 1 1 1 1 1 1 1 1 1 1 1 1 1 1 1 1 1 1 1 1 1 1 1 1 1 1 1 1 1 1 1 1 1 1 1 1 1 1 1 1 1 1 1 1 1 1 1 1 1 1 1 1 1 1 1 1 1 1 1 1 1 1 1 1 1 1 1 1 1 1 1 1 1 1 1 1 1 1 1 1 1 1 1 1 1 1 0 0 0 0 0 0 0 0 0 0 0 0 0 0 0 0 0 0 0 0 0 0 0 0 0 0 0 0 0 0 0 0 0 0 0 0 0 0 0 0 0 0 0 0 0 0 0 0 0 0 0 0 0 0 0 0 0 0 0 0 0 0 0 0 0 0 0 0 0 0 0 0 0 0 0 0 0 0 0 0 0 0 0 0 0 0 0 0 0 0 0 0 0 0 0 0 0 0 0 0 1 1 1 1 1 1 1 1 1 1 1 1 1 1 1 1 1 1 1 1 1 1 1 1 1 1 1 1 1 1 1 1 1 1 1 1 1 1 1 1 1 1 1 1 1 1 1 1 1 1 1 1 1 1 1 1 1 1 1 1 1 1 1 1 1 1 1 1 1 1 1 1 1 1 1 1 1 1 1 1 1 1 1 1 1 1 1 1 1 1 1 1 1 1 1 1 1 1 1 1 0 0 0 0 0 0 0 0 0 0 0 0 0 0 0 0 0 0 0 0 0 0 0 0 0 0 0 0 0 0 0 0 0 0 0 0 0 0 0 0 0 0 0 0 0 0 0 0 0 0 0 0 0 0 0 0 0 0 0 0 0 0 0 0 0 0 0 0 0 0 0 0 0 0 0 0 0 0 0 0 0 0 0 0 0 0 0 0 0 0 0 0 0 0 0 0 0 0 0 0 1 1 1 1 1 1 1 1 1 1 1 1 1 1 1 1 1 1 1 1 1 1 1 1 1 1 1 1 1 1 1 1 1 1 1 1 1 1 1 1 1 1 1 1 1 1 1 1 1 1 1 1 1 1 1 1 1 1 1 1 1 1 1 1 1 1 1 1 1 1 1 1 1 1 1 1 1 1 1 1 1 1 1 1 1 1 1 1 1 1 1 1 1 1 1 1 1 1 1 1
				</DataArray>
				<DataArray Name="F3" type="Float32" format="ascii">
 0 0 0 0 0 0 0 0 0 0 0 0 0 0 0 0 0 0 0 0 0 0 0 0 0 0 0 0 0 0 0 0 0 0 0 0 0 0 0 0 0 0 0 0 0 0 0 0 0 0 0 0 0 0 0 0 0 0 0 0 0 0 0 0 0 0 0 0 0 0 0 0 0 0 0 0 0 0 0 0 0 0 0 0 0 0 0 0 0 0 0 0 0 0 0 0 0 0 0 0 0 0 0 0 0 0 0 0 0 0 0 0 0 0 0 0 0 0 0 0 0 0 0 0 0 0 0 0 0 0 0 0 0 0 0 0 0 0 0 0 0 0 0 0 0 0 0 0 0 0 0 0 0 0 0 0 0 0 0 0 0 0 0 0 0 0 0 0 0 0 0 0 0 0 0 0 0 0 0 0 0 0 0 0 0 0 0 0 0 0 0 0 0 0 0 0 0 0 0 0 0 0 0 0 0 0 0 0 0 0 0 0 0 0 0 0 0 0 0 0 0 0 0 0 0 0 0 0 0 0 0 0 0 0 0 0 0 0 0 0 0 0 0 0 0 0 0 0 0 0 0 0 0 0 0 0 0 0 0 0 0 0 0 0 0 0 0 0 0 0 0 0 0 0 0 0 0 0 0 0 0 0 0 0 0 0 0 0 0 0 0 0 0 0 0 0 0 0 0 0 0 0 0 0 0 0 0 0 0 0 0 0 0 0 0 0 0 0 0 0 0 0 0 0 0 0 0 0 0 0 0 0 0 0 0 0 0 0 0 0 0 0 0 0 0 0 0 0 0 0 0 0 0 0 0 0 0 0 0 0 0 0 0 0 0 0 0 0 0 0 0 0 0 0 0 0 0 0 0 0 0 0 0 0 0 0 0 0 0 0 0 0 0 0 0 0 0 0 0 0 0 0 0 0 0 0 0 0 0 0 0 0 0 0 0 0 0 0 0 0 0 0 0 0 0 0 0 0 0 0 0 0 0 0 0 0 0 0 0 0 0 0 0 0 0 0 0 0 0 0 0 0 0 0 0 0 0 0 0 0 0 0 0 0 0 0 0 0 0 0 0 0 0 0 0 0 0 0 0 0 0 0 0 0 0 0 0 0 0 0 0 0 0 0 0 0 0 0 0 0 0 0 0 0 0 0 0 0 0 0 0 0 0 0 0 0 0 0 0 0 0 0 0 0 0 0 0 0 0 0 0 0 0 0 0 0 0 0 0 0 0 0 0 0 0 0 0 0 0 0 0 0 0 0 0 0 0 0 0 0 0 0 0 0 0 0 0 0 0 0 0 0 0 0 0 0 0 0 0 0 0 0 0 0 0 0 0 0 0 0 0 0 0 0 0 0 0 0 0 0 0 0 0 0 0 0 0 0 0 0 0 0 0 0 0 0 0 0 0 0 0 0 0 0 0 0 0 0 0 0 0 0 0 0 0 0 0 0 0 0 0 0 0 0 0 0 0 0 0 0 0 0 0 0 0 0 0 0 0 0 0 0 0 0 0 0 0 0 0 0 0 0 0 0 0 0 0 0 0 0 0 0 0 0 0 0 0 0 0 0 0 0 0 0 0 0 0 0 0 0 0 0 0 0 0 0 0 0 0 0 0 0 0 0 0 0 0 0 0 0 0 0 0 0 0 0 0 0 0 0 0 0 0 0 0 0 0 0 0 0 0 0 0 0 0 0 0 0 0 0 0 0 0 0 0 0 0 0 0 0 0 0 0 0 0 0 0 0 0 0 0 0 0 0 0 0 0 0 0 0 0 0 0 0 0 0 0 0 0 0 0 0 0 0 0 0 0 0 0 0 0 0 0 0 0 0 0 0 0 0 0 0 0 0 0 0 0 0 0 0 0 0 0 0 0 0 0 0 0 0 0 0 0 0 0 0 0 0 0 0 0 0 0 0 0 0 0 0 0 0 0 0 0 0 0 0 0 0 0 0 0 0 0 0 0 0 0 0 0 0 0 0 0 0 0 0 0 0 0 0 0 0 0 0 0 0 0 0 0 0 0 0 0 0 0 0 0 0 0 0 0 0 0 0 0 0 0 0 0 0 0 0 0 0 0 0 0 0 0 0 0 0 0 0 0 0 0 0 0 0 0 0 0 0 0 0 0 0 0 0 0 0 0 0 0 0 0 0 0 0 0 0 0 0 0 0 0 0 0 0 0 0 0 0 0 0 0 0 0 0 0 0 0 0 0 0 0 0 0 0 0 0 0 0 0 0 0 0 0 0 0 0 0 0 0 0 0 0 0 0
				</DataArray>
				<DataArray Name="Pressure" type="Float32" format="ascii">