<?xml version="1.0"?>
<VTKFile type="PolyData">
	<PolyData>
		<Piece NumberOfPoints="1206" NumberOfPolys="1000">
			<Points>
				<DataArray type="Float32" NumberOfComponents="3" format="ascii">
 0 0 0 0.005 0 0 0.01 0 0 0.015 0 0 0.02 0 0 0.025 0 0 0.03 0 0 0.035 0 0 0.04 0 0 0.045 0 0 0.05 0 0 0.055 0 0 0.06 0 0 0.065 0 0 0.07 0 0 0.075 0 0 0.08 0 0 0.085 0 0 0.09 0 0 0.095 0 0 0.1 0 0 0.105 0 0 0.11 0 0 0.115 0 0 0.12 0 0 0.125 0 0 0.13 0 0 0.135 0 0 0.14 0 0 0.145 0 0 0.15 0 0 0.155 0 0 0.16 0 0 0.165 0 0 0.17 0 0 0.175 0 0 0.18 0 0 0.185 0 0 0.19 0 0 0.195 0 0 0.2 0 0 0.205 0 0 0.21 0 0 0.215 0 0 0.22 0 0 0.225 0 0 0.23 0 0 0.235 0 0 0.24 0 0 0.245 0 0 0.25 0 0 0.255 0 0 0.26 0 0 0.265 0 0 0.27 0 0 0.275 0 0 0.28 0 0 0.285 0 0 0.29 0 0 0.295 0 0 0.3 0 0 0.305 0 0 0.31 0 0 0.315001 0 0 0.320001 0 0 0.325004 0 0 0.330009 0 0 0.335023 0 0 0.34005 0 0 0.345102 0 0 0.35019 0 0 0.355328 0 0 0.360533 0 0 0.365822 0 0 0.371212 0 0 0.37672 0 0 0.382364 0 0 0.388163 0 0 0.394134 0 0 0.400297 0 0 0.406672 0 0 0.413282 0 0 0.420151 0 0 0.427305 0 0 0.434771 0 0 0.442581 0 0 0.450768 0 0 0.459366 0 0 0.468408 0 0 0.477922 0 0 0.487925 0 0 0.498413 0 0 0.50935 0 0 0.520663 0 0 0.532256 0 0 0.544028 0 0 0.555903 0 0 0.567844 0 0 0.579857 0 0 0.592025 0 0 0.604835 0 0 0.607283 0 0 0.609685 0 0 0.612091 0 0 0.614496 0 0 0.616897 0 0 0.61929 0 0 0.621679 0 0 0.624063 0 0 0.626441 0 0 0.62881 0 0 0.631173 0 0 0.633541 0 0 0.635884 0 0 0.63823 0 0 0.640474 0 0 0.642621 0 0 0.64477 0 0 0.647048 0 0 0.649428 0 0 0.65183 0 0 0.654207 0 0 0.656566 0 0 0.658926 0 0 0.661288 0 0 0.663651 0 0 0.666011 0 0 0.668366 0 0 0.670719 0 0 0.673071 0 0 0.675426 0 0 0.677783 0 0 0.680137 0 0 0.682488 0 0 0.684839 0 0 0.687195 0 0 0.689569 0 0 0.691905 0 0 0.694276 0 0 0.696977 0 0 0.700493 0 0 0.705083 0 0 0.710013 0 0 0.715002 0 0 0.72 0 0 0.725 0 0 0.73 0 0 0.735 0 0 0.74 0 0 0.745 0 0 0.75 0 0 0.755 0 0 0.76 0 0 0.765 0 0 0.77 0 0 0.775 0 0 0.78 0 0 0.785 0 0 0.79 0 0 0.795 0 0 0.8 0 0 0.805 0 0 0.81 0 0 0.815 0 0 0.82 0 0 0.825 0 0 0.83 0 0 0.835 0 0 0.84 0 0 0.845 0 0 0.85 0 0 0.855 0 0 0.86 0 0 0.865 0 0 0.87 0 0 0.875 0 0 0.88 0 0 0.885 0 0 0.89 0 0 0.895 0 0 0.9 0 0 0.905 0 0 0.91 0 0 0.915 0 0 0.92 0 0 0.925 0 0 0.93 0 0 0.935 0 0 0.94 0 0 0.945 0 0 0.95 0 0 0.955 0 0 0.96 0 0 0.965 0 0 0.97 0 0 0.975 0 0 0.98 0 0 0.985 0 0 0.99 0 0 0.995 0 0 1 0 0 0 0.02 0 0.005 0.02 0 0.01 0.02 0 0.015 0.02 0 0.02 0.02 0 0.025 0.02 0 0.03 0.02 0 0.035 0.02 0 0.04 0.02 0 0.045 0.02 0 0.05 0.02 0 0.055 0.02 0 0.06 0.02 0 0.065 0.02 0 0.07 0.02 0 0.075 0.02 0 0.08 0.02 0 0.085 0.02 0 0.09 0.02 0 0.095 0.02 0 0.1 0.02 0 0.105 0.02 0 0.11 0.02 0 0.115 0.02 0 0.12 0.02 0 0.125 0.02 0 0.13 0.02 0 0.135 0.02 0 0.14 0.02 0 0.145 0.02 0 0.15 0.02 0 0.155 0.02 0 0.16 0.02 0 0.165 0.02 0 0.17 0.02 0 0.175 0.02 0 0.18 0.02 0 0.185 0.02 0 0.19 0.02 0 0.195 0.02 0 0.2 0.02 0 0.205 0.02 0 0.21 0.02 0 0.215 0.02 0 0.22 0.02 0 0.225 0.02 0 0.23 0.02 0 0.235 0.02 0 0.24 0.02 0 0.245 0.02 0 0.25 0.02 0 0.255 0.02 0 0.26 0.02 0 0.265 0.02 0 0.27 0.02 0 0.275 0.02 0 0.28 0.02 0 0.285 0.02 0 0.29 0.02 0 0.295 0.02 0 0.3 0.02 0 0.305 0.02 0 0.31 0.02 0 0.315001 0.02 0 0.320001 0.02 0 0.325004 0.02 0 0.330009 0.02 0 0.335023 0.02 0 0.34005 0.02 0 0.345102 0.02 0 0.35019 0.02 0 0.355328 0.02 0 0.360533 0.02 0 0.365822 0.02 0 0.371212 0.02 0 0.37672 0.02 0 0.382364 0.02 0 0.388163 0.02 0 0.394134 0.02 0 0.400297 0.02 0 0.406672 0.02 0 0.413282 0.02 0 0.420151 0.02 0 0.427305 0.02 0 0.434771 0.02 0 0.442581 0.02 0 0.450768 0.02 0 0.459366 0.02 0 0.468408 0.02 0 0.477922 0.02 0 0.487925 0.02 0 0.498413 0.02 0 0.50935 0.02 0 0.520663 0.02 0 0.532256 0.02 0 0.544028 0.02 0 0.555903 0.02 0 0.567844 0.02 0 0.579857 0.0199999 0 0.592025 0.02 0 0.604832 0.0199992 0 0.607279 0.0199986 0 0.60968 0.0199974 0 0.612086 0.0199955 0 0.614488 0.0199929 0 0.616885 0.0199916 0 0.619275 0.0199911 0 0.621662 0.0199912 0 0.624045 0.019992 0 0.626426 0.0199947 0 0.628808 0.0199987 0 0.631192 0.0200023 0 0.633562 0.0200053 0 0.635953 0.0200098 0 0.638336 0.0200095 0 0.640816 0.0200154 0 0.643387 0.0200089 0 0.645948 0.0199934 0 0.648379 0.0199858 0 0.650716 0.0199788 0 0.653035 0.0199818 0 0.655376 0.0199884 0 0.657732 0.0199961 0 0.660086 0.0199986 0 0.662437 0.0200005 0 0.664787 0.0200026 0 0.667139 0.0200035 0 0.669495 0.020005 0 0.671852 0.0200064 0 0.674209 0.0200058 0 0.676563 0.0200049 0 0.678914 0.0200049 0 0.681265 0.0200059 0 0.683618 0.0200061 0 0.685972 0.0200054 0 0.688332 0.0200037 0 0.690667 0.0200037 0 0.692963 0.0200042 0 0.69517 0.0200026 0 0.69742 0.0200007 0 0.700499 0.02 0 0.705083 0.02 0 0.710013 0.02 0 0.715002 0.02 0 0.72 0.02 0 0.725 0.02 0 0.73 0.02 0 0.735 0.02 0 0.74 0.02 0 0.745 0.02 0 0.75 0.02 0 0.755 0.02 0 0.76 0.02 0 0.765 0.02 0 0.77 0.02 0 0.775 0.02 0 0.78 0.02 0 0.785 0.02 0 0.79 0.02 0 0.795 0.02 0 0.8 0.02 0 0.805 0.02 0 0.81 0.02 0 0.815 0.02 0 0.82 0.02 0 0.825 0.02 0 0.83 0.02 0 0.835 0.02 0 0.84 0.02 0 0.845 0.02 0 0.85 0.02 0 0.855 0.02 0 0.86 0.02 0 0.865 0.02 0 0.87 0.02 0 0.875 0.02 0 0.88 0.02 0 0.885 0.02 0 0.89 0.02 0 0.895 0.02 0 0.9 0.02 0 0.905 0.02 0 0.91 0.02 0 0.915 0.02 0 0.92 0.02 0 0.925 0.02 0 0.93 0.02 0 0.935 0.02 0 0.94 0.02 0 0.945 0.02 0 0.95 0.02 0 0.955 0.02 0 0.96 0.02 0 0.965 0.02 0 0.97 0.02 0 0.975 0.02 0 0.98 0.02 0 0.985 0.02 0 0.99 0.02 0 0.995 0.02 0 1 0.02 0 0 0.04 0 0.005 0.04 0 0.01 0.04 0 0.015 0.04 0 0.02 0.04 0 0.025 0.04 0 0.03 0.04 0 0.035 0.04 0 0.04 0.04 0 0.045 0.04 0 0.05 0.04 0 0.055 0.04 0 0.06 0.04 0 0.065 0.04 0 0.07 0.04 0 0.075 0.04 0 0.08 0.04 0 0.085 0.04 0 0.09 0.04 0 0.095 0.04 0 0.1 0.04 0 0.105 0.04 0 0.11 0.04 0 0.115 0.04 0 0.12 0.04 0 0.125 0.04 0 0.13 0.04 0 0.135 0.04 0 0.14 0.04 0 0.145 0.04 0 0.15 0.04 0 0.155 0.04 0 0.16 0.04 0 0.165 0.04 0 0.17 0.04 0 0.175 0.04 0 0.18 0.04 0 0.185 0.04 0 0.19 0.04 0 0.195 0.04 0 0.2 0.04 0 0.205 0.04 0 0.21 0.04 0 0.215 0.04 0 0.22 0.04 0 0.225 0.04 0 0.23 0.04 0 0.235 0.04 0 0.24 0.04 0 0.245 0.04 0 0.25 0.04 0 0.255 0.04 0 0.26 0.04 0 0.265 0.04 0 0.27 0.04 0 0.275 0.04 0 0.28 0.04 0 0.285 0.04 0 0.29 0.04 0 0.295 0.04 0 0.3 0.04 0 0.305 0.04 0 0.31 0.04 0 0.315001 0.04 0 0.320001 0.04 0 0.325004 0.04 0 0.330009 0.04 0 0.335023 0.04 0 0.34005 0.04 0 0.345102 0.04 0 0.35019 0.04 0 0.355328 0.04 0 0.360533 0.04 0 0.365822 0.04 0 0.371212 0.04 0 0.37672 0.04 0 0.382364 0.04 0 0.388163 0.04 0 0.394134 0.04 0 0.400297 0.04 0 0.406672 0.04 0 0.413282 0.04 0 0.420151 0.04 0 0.427305 0.04 0 0.434771 0.04 0 0.442581 0.04 0 0.450768 0.04 0 0.459366 0.04 0 0.468408 0.04 0 0.477922 0.04 0 0.487925 0.04 0 0.498413 0.04 0 0.50935 0.04 0 0.520663 0.04 0 0.532256 0.04 0 0.544028 0.04 0 0.555903 0.04 0 0.567844 0.04 0 0.579856 0.0399997 0 0.592025 0.0399998 0 0.604834 0.0399966 0 0.607283 0.0399952 0 0.609685 0.0399949 0 0.61209 0.0399953 0 0.614492 0.0399954 0 0.616887 0.0399959 0 0.619274 0.0399962 0 0.621656 0.0399951 0 0.624033 0.0399949 0 0.626408 0.0399955 0 0.628776 0.0399981 0 0.631139 0.0399976 0 0.633512 0.0400011 0 0.635859 0.0400068 0 0.638211 0.0400071 0 0.640461 0.0400217 0 0.642611 0.0400261 0 0.64475 0.0400145 0 0.647016 0.0399956 0 0.649378 0.03999 0 0.651767 0.0399888 0 0.654133 0.0399928 0 0.656488 0.0399966 0 0.658847 0.0399972 0 0.661209 0.0399996 0 0.663574 0.0400014 0 0.665936 0.0400004 0 0.668294 0.0400029 0 0.67065 0.040005 0 0.673004 0.0400061 0 0.675361 0.0400059 0 0.67772 0.0400045 0 0.680078 0.040003 0 0.682433 0.0400009 0 0.684792 0.039998 0 0.687157 0.039996 0 0.689538 0.0399958 0 0.691872 0.0399959 0 0.694247 0.039997 0 0.696961 0.0399988 0 0.700493 0.0399999 0 0.705084 0.04 0 0.710013 0.04 0 0.715002 0.04 0 0.72 0.04 0 0.725 0.04 0 0.73 0.04 0 0.735 0.04 0 0.74 0.04 0 0.745 0.04 0 0.75 0.04 0 0.755 0.04 0 0.76 0.04 0 0.765 0.04 0 0.77 0.04 0 0.775 0.04 0 0.78 0.04 0 0.785 0.04 0 0.79 0.04 0 0.795 0.04 0 0.8 0.04 0 0.805 0.04 0 0.81 0.04 0 0.815 0.04 0 0.82 0.04 0 0.825 0.04 0 0.83 0.04 0 0.835 0.04 0 0.84 0.04 0 0.845 0.04 0 0.85 0.04 0 0.855 0.04 0 0.86 0.04 0 0.865 0.04 0 0.87 0.04 0 0.875 0.04 0 0.88 0.04 0 0.885 0.04 0 0.89 0.04 0 0.895 0.04 0 0.9 0.04 0 0.905 0.04 0 0.91 0.04 0 0.915 0.04 0 0.92 0.04 0 0.925 0.04 0 0.93 0.04 0 0.935 0.04 0 0.94 0.04 0 0.945 0.04 0 0.95 0.04 0 0.955 0.04 0 0.96 0.04 0 0.965 0.04 0 0.97 0.04 0 0.975 0.04 0 0.98 0.04 0 0.985 0.04 0 0.99 0.04 0 0.995 0.04 0 1 0.04 0 0 0.06 0 0.005 0.06 0 0.01 0.06 0 0.015 0.06 0 0.02 0.06 0 0.025 0.06 0 0.03 0.06 0 0.035 0.06 0 0.04 0.06 0 0.045 0.06 0 0.05 0.06 0 0.055 0.06 0 0.06 0.06 0 0.065 0.06 0 0.07 0.06 0 0.075 0.06 0 0.08 0.06 0 0.085 0.06 0 0.09 0.06 0 0.095 0.06 0 0.1 0.06 0 0.105 0.06 0 0.11 0.06 0 0.115 0.06 0 0.12 0.06 0 0.125 0.06 0 0.13 0.06 0 0.135 0.06 0 0.14 0.06 0 0.145 0.06 0 0.15 0.06 0 0.155 0.06 0 0.16 0.06 0 0.165 0.06 0 0.17 0.06 0 0.175 0.06 0 0.18 0.06 0 0.185 0.06 0 0.19 0.06 0 0.195 0.06 0 0.2 0.06 0 0.205 0.06 0 0.21 0.06 0 0.215 0.06 0 0.22 0.06 0 0.225 0.06 0 0.23 0.06 0 0.235 0.06 0 0.24 0.06 0 0.245 0.06 0 0.25 0.06 0 0.255 0.06 0 0.26 0.06 0 0.265 0.06 0 0.27 0.06 0 0.275 0.06 0 0.28 0.06 0 0.285 0.06 0 0.29 0.06 0 0.295 0.06 0 0.3 0.06 0 0.305 0.06 0 0.31 0.06 0 0.315001 0.06 0 0.320001 0.06 0 0.325004 0.06 0 0.330009 0.06 0 0.335023 0.06 0 0.34005 0.06 0 0.345102 0.06 0 0.35019 0.06 0 0.355328 0.06 0 0.360533 0.06 0 0.365822 0.06 0 0.371212 0.06 0 0.37672 0.06 0 0.382364 0.06 0 0.388163 0.06 0 0.394134 0.06 0 0.400297 0.06 0 0.406672 0.06 0 0.413282 0.06 0 0.420151 0.06 0 0.427305 0.06 0 0.434771 0.06 0 0.442581 0.06 0 0.450768 0.06 0 0.459366 0.06 0 0.468408 0.06 0 0.477922 0.06 0 0.487925 0.06 0 0.498413 0.06 0 0.50935 0.06 0 0.520663 0.06 0 0.532256 0.06 0 0.544028 0.06 0 0.555903 0.06 0 0.567844 0.06 0 0.579856 0.0599998 0 0.592023 0.0599998 0 0.604828 0.0599971 0 0.607273 0.0599962 0 0.609672 0.059996 0 0.612076 0.0599968 0 0.614478 0.0599981 0 0.616876 0.0599987 0 0.619268 0.0599988 0 0.621655 0.0599984 0 0.624039 0.0599972 0 0.62642 0.0599955 0 0.628803 0.0599904 0 0.631191 0.0599841 0 0.633567 0.0599787 0 0.635969 0.0599768 
[...]
			<CellData Scalars="Density">
				<DataArray Name="Density" type="Float32" format="ascii">
 1 1 1 1 1 1 1 1 1 1 1 1 1 1 1 1 1 1 1 1 1 1 1 1 1 1 1 1 1 1 1 1 1 1 1 1 1 1 1 1 1 1 1 1 1 1 1 1 1 1 1 1 1 1 1 1 1 1 0.999999 0.999997 0.999991 0.999976 0.999935 0.999827 0.999549 0.99885 0.997336 0.994502 0.989803 0.982754 0.973053 0.960571 0.945385 0.927684 0.907743 0.885863 0.862317 0.837394 0.811293 0.784244 0.756399 0.727923 0.698965 0.66966 0.640187 0.610728 0.581549 0.552991 0.525537 0.499842 0.476743 0.45718 0.44194 0.431299 0.42474 0.421051 0.418726 0.416231 0.410891 0.390385 0.255375 0.260301 0.259903 0.260147 0.260776 0.261509 0.262019 0.262448 0.262839 0.263153 0.263382 0.263698 0.263859 0.264043 0.264244 0.264607 0.26536 0.265729 0.265463 0.265388 0.265344 0.265313 0.265255 0.265219 0.265187 0.265186 0.265206 0.26524 0.265286 0.265326 0.265355 0.265475 0.265603 0.265555 0.264894 0.26535 0.269738 0.272954 0.252453 0.189514 0.136249 0.126777 0.125278 0.125043 0.125007 0.125001 0.125 0.125 0.125 0.125 0.125 0.125 0.125 0.125 0.125 0.125 0.125 0.125 0.125 0.125 0.125 0.125 0.125 0.125 0.125 0.125 0.125 0.125 0.125 0.125 0.125 0.125 0.125 0.125 0.125 0.125 0.125 0.125 0.125 0.125 0.125 0.125 0.125 0.125 0.125 0.125 0.125 0.125 0.125 0.125 0.125 0.125 0.125 0.125 0.125 0.125 0.125 0.125 0.125 0.125 1 1 1 1 1 1 1 1 1 1 1 1 1 1 1 1 1 1 1 1 1 1 1 1 1 1 1 1 1 1 1 1 1 1 1 1 1 1 1 1 1 1 1 1 1 1 1 1 1 1 1 1 1 1 1 1 1 1 0.999999 0.999997 0.999991 0.999976 0.999935 0.999827 0.999549 0.99885 0.997336 0.994502 0.989803 0.982754 0.973053 0.960571 0.945385 0.927684 0.907743 0.885863 0.862317 0.837394 0.811293 0.784244 0.756399 0.727923 0.698965 0.66966 0.640187 0.610728 0.581549 0.552991 0.525537 0.499842 0.476743 0.45718 0.44194 0.431299 0.424741 0.421051 0.418727 0.416235 0.4109 0.390391 0.255391 0.260309 0.259913 0.260139 0.260775 0.261506 0.262027 0.262439 0.262836 0.263129 0.263429 0.263641 0.263929 0.264063 0.264229 0.264462 0.265379 0.265716 0.265675 0.265326 0.265355 0.265284 0.26525 0.265201 0.265176 0.265214 0.265225 0.265305 0.265309 0.26534 0.265341 0.26551 0.265621 0.265416 0.264775 0.265276 0.270177 0.272979 0.251952 0.189057 0.136247 0.126782 0.125279 0.125044 0.125007 0.125001 0.125 0.125 0.125 0.125 0.125 0.125 0.125 0.125 0.125 0.125 0.125 0.125 0.125 0.125 0.125 0.125 0.125 0.125 0.125 0.125 0.125 0.125 0.125 0.125 0.125 0.125 0.125 0.125 0.125 0.125 0.125 0.125 0.125 0.125 0.125 0.125 0.125 0.125 0.125 0.125 0.125 0.125 0.125 0.125 0.125 0.125 0.125 0.125 0.125 0.125 0.125 0.125 0.125 0.125 1 1 1 1 1 1 1 1 1 1 1 1 1 1 1 1 1 1 1 1 1 1 1 1 1 1 1 1 1 1 1 1 1 1 1 1 1 1 1 1 1 1 1 1 1 1 1 1 1 1 1 1 1 1 1 1 1 1 0.999999 0.999997 0.999991 0.999976 0.999935 0.999827 0.999549 0.99885 0.997336 0.994502 0.989803 0.982754 0.973053 0.960571 0.945385 0.927684 0.907743 0.885863 0.862317 0.837394 0.811293 0.784244 0.756399 0.727923 0.698965 0.66966 0.640187 0.610728 0.581549 0.552991 0.525537 0.499842 0.476743 0.45718 0.44194 0.431299 0.424741 0.421053 0.41873 0.416242 0.410917 0.390406 0.255404 0.260316 0.259922 0.260141 0.260747 0.261487 0.262009 0.26244 0.262828 0.263182 0.263438 0.263696 0.263915 0.264092 0.264171 0.2646 0.265225 0.265757 0.26548 0.26535 0.265309 0.2653 0.265248 0.265212 0.265206 0.265185 0.265268 0.265265 0.265353 0.26531 0.265448 0.265554 0.265542 0.265169 0.264382 0.265516 0.270097 0.273075 0.251787 0.189139 0.136292 0.126788 0.12528 0.125044 0.125007 0.125001 0.125 0.125 0.125 0.125 0.125 0.125 0.125 0.125 0.125 0.125 0.125 0.125 0.125 0.125 0.125 0.125 0.125 0.125 0.125 0.125 0.125 0.125 0.125 0.125 0.125 0.125 0.125 0.125 0.125 0.125 0.125 0.125 0.125 0.125 0.125 0.125 0.125 0.125 0.125 0.125 0.125 0.125 0.125 0.125 0.125 0.125 0.125 0.125 0.125 0.125 0.125 0.125 0.125 0.125 1 1 1 1 1 1 1 1 1 1 1 1 1 1 1 1 1 1 1 1 1 1 1 1 1 1 1 1 1 1 1 1 1 1 1 1 1 1 1 1 1 1 1 1 1 1 1 1 1 1 1 1 1 1 1 1 1 1 0.999999 0.999997 0.999991 0.999976 0.999935 0.999827 0.999549 0.99885 0.997336 0.994502 0.989803 0.982754 0.973053 0.960571 0.945385 0.927684 0.907743 0.885863 0.862317 0.837394 0.811293 0.784244 0.756399 0.727923 0.698965 0.66966 0.640187 0.610728 0.581549 0.552991 0.525537 0.499842 0.476743 0.45718 0.44194 0.431299 0.424742 0.421054 0.418732 0.416246 0.410926 0.390435 0.255415 0.260323 0.259909 0.260141 0.260766 0.261506 0.261995 0.262451 0.262817 0.26316 0.263393 0.263683 0.263911 0.264007 0.264268 0.26454 0.265229 0.265754 0.265554 0.265446 0.265397 0.265319 0.265286 0.26525 0.265242 0.26526 0.2653 0.265348 0.265378 0.265383 0.265491 0.265674 0.265715 0.265513 0.264556 0.265533 0.26975 0.272431 0.252046 0.190018 0.136345 0.12679 0.12528 0.125044 0.125007 0.125001 0.125 0.125 0.125 0.125 0.125 0.125 0.125 0.125 0.125 0.125 0.125 0.125 0.125 0.125 0.125 0.125 0.125 0.125 0.125 0.125 0.125 0.125 0.125 0.125 0.125 0.125 0.125 0.125 0.125 0.125 0.125 0.125 0.125 0.125 0.125 0.125 0.125 0.125 0.125 0.125 0.125 0.125 0.125 0.125 0.125 0.125 0.125 0.125 0.125 0.125 0.125 0.125 0.125 0.125 1 1 1 1 1 1 1 1 1 1 1 1 1 1 1 1 1 1 1 1 1 1 1 1 1 1 1 1 1 1 1 1 1 1 1 1 1 1 1 1 1 1 1 1 1 1 1 1 1 1 1 1 1 1 1 1 1 1 0.999999 0.999997 0.999991 0.999976 0.999935 0.999827 0.999549 0.99885 0.997336 0.994502 0.989803 0.982754 0.973053 0.960571 0.945385 0.927684 0.907743 0.885863 0.862317 0.837394 0.811293 0.784244 0.756399 0.727923 0.698965 0.66966 0.640187 0.610728 0.581549 0.552991 0.525537 0.499842 0.476743 0.45718 0.44194 0.4313 0.424743 0.421055 0.418732 0.416246 0.410918 0.390436 0.255418 0.260313 0.259903 0.26014 0.260763 0.261512 0.262035 0.262453 0.262848 0.263139 0.263387 0.263647 0.263875 0.264072 0.264229 0.264479 0.265209 0.26568 0.265519 0.265373 0.265329 0.265284 0.265261 0.265228 0.265227 0.265244 0.265281 0.265329 0.265375 0.265405 0.265455 0.26558 0.265648 0.265523 0.264716 0.265347 0.270055 0.272437 0.250927 0.189161 0.136239 0.126786 0.125279 0.125044 0.125007 0.125001 0.125 0.125 0.125 0.125 0.125 0.125 0.125 0.125 0.125 0.125 0.125 0.125 0.125 0.125 0.125 0.125 0.125 0.125 0.125 0.125 0.125 0.125 0.125 0.125 0.125 0.125 0.125 0.125 0.125 0.125 0.125 0.125 0.125 0.125 0.125 0.125 0.125 0.125 0.125 0.125 0.125 0.125 0.125 0.125 0.125 0.125 0.125 0.125 0.125 0.125 0.125 0.125 0.125 0.125
				</DataArray>
				<DataArray Name="Energy" type="Float32" format="ascii">
 2.5 2.5 2.5 2.5 2.5 2.5 2.5 2.5 2.5 2.5 2.5 2.5 2.5 2.5 2.5 2.5 2.5 2.5 2.5 2.5 2.5 2.5 2.5 2.5 2.5 2.5 2.5 2.5 2.5 2.5 2.5 2.5 2.5 2.5 2.5 2.5 2.5 2.5 2.5 2.5 2.5 2.5 2.5 2.5 2.5 2.5 2.5 2.5 2.5 2.5 2.5 2.5 2.5 2.5 2.5 2.5 2.5 2.5 2.5 2.5 2.49999 2.49998 2.49993 2.49983 2.49955 2.49885 2.49734 2.4945 2.48979 2.48271 2.47293 2.46029 2.4448 2.4266 2.40588 2.38287 2.35777 2.33081 2.30211 2.27183 2.24008 2.20694 2.17253 2.13692 2.10026 2.06271 2.02458 1.98629 1.94854 1.91234 1.87912 1.85066 1.82867 1.81424 1.8072 1.80634 1.81038 1.81985 1.84333 1.9404 2.96626 2.91029 2.91487 2.91224 2.9053 2.89699 2.89135 2.88664 2.88228 2.87879 2.8759 2.87313 2.87045 2.86891 2.86674 2.86314 2.85455 2.85108 2.85335 2.85485 2.85512 2.85578 2.85628 2.85673 2.85706 2.85697 2.85688 2.85669 2.85638 2.85605 2.85625 2.85644 2.85664 2.85606 2.8527 2.85434 2.87312 2.8861 2.79398 2.44338 2.07586 2.01149 2.00178 2.00028 2.00004 2.00001 2 2 2 2 2 2 2 2 2 2 2 2 2 2 2 2 2 2 2 2 2 2 2 2 2 2 2 2 2 2 2 2 2 2 2 2 2 2 2 2 2 2 2 2 2 2 2 2 2 2 2 2 2 2 2.5 2.5 2.5 2.5 2.5 2.5 2.5 2.5 2.5 2.5 2.5 2.5 2.5 2.5 2.5 2.5 2.5 2.5 2.5 2.5 2.5 2.5 2.5 2.5 2.5 2.5 2.5 2.5 2.5 2.5 2.5 2.5 2.5 2.5 2.5 2.5 2.5 2.5 2.5 2.5 2.5 2.5 2.5 2.5 2.5 2.5 2.5 2.5 2.5 2.5 2.5 2.5 2.5 2.5 2.5 2.5 2.5 2.5 2.5 2.5 2.49999 2.49998 2.49993 2.49983 2.49955 2.49885 2.49734 2.4945 2.48979 2.48271 2.47293 2.46029 2.4448 2.4266 2.40588 2.38287 2.35777 2.33081 2.30211 2.27183 2.24008 2.20694 2.17253 2.13692 2.10026 2.06271 2.02458 1.98629 1.94854 1.91234 1.87912 1.85066 1.82867 1.81424 1.8072 1.80634 1.81038 1.81986 1.84334 1.94042 2.96633 2.91033 2.91492 2.91221 2.9053 2.89698 2.89139 2.88661 2.88226 2.87868 2.87611 2.87288 2.87075 2.86905 2.86683 2.86343 2.85547 2.85012 2.85314 2.85401 2.85505 2.85584 2.85633 2.85659 2.85688 2.8571 2.85697 2.85701 2.85654 2.85629 2.85623 2.85679 2.85693 2.85565 2.85238 2.85434 2.87507 2.88653 2.79214 2.44075 2.07583 2.01153 2.00179 2.00028 2.00004 2.00001 2 2 2 2 2 2 2 2 2 2 2 2 2 2 2 2 2 2 2 2 2 2 2 2 2 2 2 2 2 2 2 2 2 2 2 2 2 2 2 2 2 2 2 2 2 2 2 2 2 2 2 2 2 2 2.5 2.5 2.5 2.5 2.5 2.5 2.5 2.5 2.5 2.5 2.5 2.5 2.5 2.5 2.5 2.5 2.5 2.5 2.5 2.5 2.5 2.5 2.5 2.5 2.5 2.5 2.5 2.5 2.5 2.5 2.5 2.5 2.5 2.5 2.5 2.5 2.5 2.5 2.5 2.5 2.5 2.5 2.5 2.5 2.5 2.5 2.5 2.5 2.5 2.5 2.5 2.5 2.5 2.5 2.5 2.5 2.5 2.5 2.5 2.5 2.49999 2.49998 2.49993 2.49983 2.49955 2.49885 2.49734 2.4945 2.48979 2.48271 2.47293 2.46029 2.4448 2.4266 2.40588 2.38287 2.35777 2.33081 2.30211 2.27183 2.24008 2.20694 2.17253 2.13692 2.10026 2.06271 2.02458 1.98629 1.94854 1.91234 1.87912 1.85066 1.82867 1.81424 1.8072 1.80634 1.81038 1.81987 1.84338 1.94045 2.96639 2.91036 2.91496 2.91221 2.90518 2.8969 2.89131 2.88661 2.88223 2.87892 2.87614 2.87312 2.8707 2.86913 2.86638 2.86385 2.85558 2.85194 2.85367 2.85489 2.85504 2.85558 2.85612 2.85655 2.85702 2.85694 2.85712 2.85682 2.85675 2.85623 2.85686 2.8571 2.85667 2.85469 2.85082 2.85559 2.87507 2.88716 2.79164 2.4412 2.07614 2.01156 2.00179 2.00028 2.00004 2.00001 2 2 2 2 2 2 2 2 2 2 2 2 2 2 2 2 2 2 2 2 2 2 2 2 2 2 2 2 2 2 2 2 2 2 2 2 2 2 2 2 2 2 2 2 2 2 2 2 2 2 2 2 2 2 2.5 2.5 2.5 2.5 2.5 2.5 2.5 2.5 2.5 2.5 2.5 2.5 2.5 2.5 2.5 2.5 2.5 2.5 2.5 2.5 2.5 2.5 2.5 2.5 2.5 2.5 2.5 2.5 2.5 2.5 2.5 2.5 2.5 2.5 2.5 2.5 2.5 2.5 2.5 2.5 2.5 2.5 2.5 2.5 2.5 2.5 2.5 2.5 2.5 2.5 2.5 2.5 2.5 2.5 2.5 2.5 2.5 2.5 2.5 2.5 2.49999 2.49998 2.49993 2.49983 2.49955 2.49885 2.49734 2.4945 2.48979 2.48271 2.47293 2.46029 2.4448 2.4266 2.40588 2.38287 2.35777 2.33081 2.30211 2.27183 2.24008 2.20694 2.17253 2.13692 2.10026 2.06271 2.02458 1.98629 1.94854 1.91234 1.87912 1.85066 1.82867 1.81424 1.8072 1.80634 1.81039 1.81988 1.84339 1.9405 2.96644 2.91039 2.9149 2.91222 2.90526 2.89698 2.89125 2.88666 2.88218 2.87882 2.87595 2.87307 2.87068 2.86881 2.86699 2.86455 2.85624 2.8508 2.85263 2.85425 2.85472 2.85538 2.85584 2.85643 2.85668 2.85673 2.85674 2.85668 2.85638 2.85607 2.85644 2.85687 2.85673 2.8555 2.85091 2.85487 2.87273 2.88345 2.79191 2.44598 2.07652 2.01158 2.00179 2.00028 2.00004 2.00001 2 2 2 2 2 2 2 2 2 2 2 2 2 2 2 2 2 2 2 2 2 2 2 2 2 2 2 2 2 2 2 2 2 2 2 2 2 2 2 2 2 2 2 2 2 2 2 2 2 2 2 2 2 2 2.5 2.5 2.5 2.5 2.5 2.5 2.5 2.5 2.5 2.5 2.5 2.5 2.5 2.5 2.5 2.5 2.5 2.5 2.5 2.5 2.5 2.5 2.5 2.5 2.5 2.5 2.5 2.5 2.5 2.5 2.5 2.5 2.5 2.5 2.5 2.5 2.5 2.5 2.5 2.5 2.5 2.5 2.5 2.5 2.5 2.5 2.5 2.5 2.5 2.5 2.5 2.5 2.5 2.5 2.5 2.5 2.5 2.5 2.5 2.5 2.49999 2.49998 2.49993 2.49983 2.49955 2.49885 2.49734 2.4945 2.48979 2.48271 2.47293 2.46029 2.4448 2.4266 2.40588 2.38287 2.35777 2.33081 2.30211 2.27183 2.24008 2.20694 2.17253 2.13692 2.10026 2.06271 2.02458 1.98629 1.94854 1.91234 1.87912 1.85066 1.82867 1.81424 1.8072 1.80635 1.81039 1.81988 1.84338 1.94051 2.96646 2.91035 2.91487 2.91221 2.90524 2.89701 2.89142 2.88667 2.88231 2.87872 2.87592 2.87291 2.87053 2.86906 2.86665 2.86392 2.85619 2.85114 2.85313 2.85466 2.85513 2.85581 2.8562 2.85676 2.85716 2.85723 2.85723 2.85715 2.85695 2.85683 2.8569 2.85723 2.85721 2.8563 2.85243 2.85497 2.87493 2.88451 2.78755 2.44105 2.07574 2.01155 2.00179 2.00028 2.00004 2.00001 2 2 2 2 2 2 2 2 2 2 2 2 2 2 2 2 2 2 2 2 2 2 2 2 2 2 2 2 2 2 2 2 2 2 2 2 2 2 2 2 2 2 2 2 2 2 2 2 2 2 2 2 2 2
				</DataArray>
				<DataArray Name="F1" type="Float32" format="ascii">
 1 1 1 1 1 1 1 1 1 1 1 1 1 1 1 1 1 1 1 1 1 1 1 1 1 1 1 1 1 1 1 1 1 1 1 1 1 1 1 1 1 1 1 1 1 1 1 1 1 1 1 1 1 1 1 1 1 1 1 1 1 1 1 1 1 1 1 1 1 1 1 1 1 1 1 1 1 1 1 1 1 1 1 1 1 1 1 1 1 1 1 1 1 1 1 1 1 1 1 1 0 0 0 0 0 0 0 0 0 0 0 0 0 0 0 0 0 0 0 0 0 0 0 0 0 0 0 0 0 0 0 0 0 0 0 0 0 0 0 0 0 0 0 0 0 0 0 0 0 0 0 0 0 0 0 0 0 0 0 0 0 0 0 0 0 0 0 0 0 0 0 0 0 0 0 0 0 0 0 0 0 0 0 0 0 0 0 0 0 0 0 0 0 0 0 0 0 0 0 0 1 1 1 1 1 1 1 1 1 1 1 1 1 1 1 1 1 1 1 1 1 1 1 1 1 1 1 1 1 1 1 1 1 1 1 1 1 1 1 1 1 1 1 1 1 1 1 1 1 1 1 1 1 1 1 1 1 1 1 1 1 1 1 1 1 1 1 1 1 1 1 1 1 1 1 1 1 1 1 1 1 1 1 1 1 1 1 1 1 1 1 1 1 1 1 1 1 1 1 1 0 0 0 0 0 0 0 0 0 0 0 0 0 0 0 0 0 0 0 0 0 0 0 0 0 0 0 0 0 0 0 0 0 0 0 0 0 0 0 0 0 0 0 0 0 0 0 0 0 0 0 0 0 0 0 0 0 0 0 0 0 0 0 0 0 0 0 0 0 0 0 0 0 0 0 0 0 0 0 0 0 0 0 0 0 0 0 0 0 0 0 0 0 0 0 0 0 0 0 0 1 1 1 1 1 1 1 1 1 1 1 1 1 1 1 1 1 1 1 1 1 1 1 1 1 1 1 1 1 1 1 1 1 1 1 1 1 1 1 1 1 1 1 1 1 1 1 1 1 1 1 1 1 1 1 1 1 1 1 1 1 1 1 1 1 1 1 1 1 1 1 1 1 1 1 1 1 1 1 1 1 1 1 1 1 1 1 1 1 1 1 1 1 1 1 1 1 1 1 1 0 0 0 0 0 0 0 0 0 0 0 0 0 0 0 0 0 0 0 0 0 0 0 0 0 0 0 0 0 0 0 0 0 0 0 0 0 0 0 0 0 0 0 0 0 0 0 0 0 0 0 0 0 0 0 0 0 0 0 0 0 0 0 0 0 0 0 0 0 0 0 0 0 0 0 0 0 0 0 0 0 0 0 0 0 0 0 0 0 0 0 0 0 0 0 0 0 0 0 0 1 1 1 1 1 1 1 1 1 1 1 1 1 1 1 1 1 1 1 1 1 1 1 1 1 1 1 1 1 1 1 1 1 1 1 1 1 1 1 1 1 1 1 1 1 1 1 1 1 1 1 1 1 1 1 1 1 1 1 1 1 1 1 1 1 1 1 1 1 1 1 1 1 1 1 1 1 1 1 1 1 1 1 1 1 1 1 1 1 1 1 1 1 1 1 1 1 1 1 1 0 0 0 0 0 0 0 0 0 0 0 0 0 0 0 0 0 0 0 0 0 0 0 0 0 0 0 0 0 0 0 0 0 0 0 0 0 0 0 0 0 0 0 0 0 0 0 0 0 0 0 0 0 0 0 0 0 0 0 0 0 0 0 0 0 0 0 0 0 0 0 0 0 0 0 0 0 0 0 0 0 0 0 0 0 0 0 0 0 0 0 0 0 0 0 0 0 0 0 0 1 1 1 1 1 1 1 1 1 1 1 1 1 1 1 1 1 1 1 1 1 1 1 1 1 1 1 1 1 1 1 1 1 1 1 1 1 1 1 1 1 1 1 1 1 1 1 1 1 1 1 1 1 1 1 1 1 1 1 1 1 1 1 1 1 1 1 1 1 1 1 1 1 1 1 1 1 1 1 1 1 1 1 1 1 1 1 1 1 1 1 1 1 1 1 1 1 1 1 1 0 0 0 0 0 0 0 0 0 0 0 0 0 0 0 0 0 0 0 0 0 0 0 0 0 0 0 0 0 0 0 0 0 0 0 0 0 0 0 0 0 0 0 0 0 0 0 0 0 0 0 0 0 0 0 0 0 0 0 0 0 0 0 0 0 0 0 0 0 0 0 0 0 0 0 0 0 0 0 0 0 0 0 0 0 0 0 0 0 0 0 0 0 0 0 0 0 0 0 0
				</DataArray>
				<DataArray Name="F2" type="Float32" format="ascii">
 0 0 0 0 0 0 0 0 0 0 0 0 0 0 0 0 0 0 0 0 0 0 0 0 0 0 0 0 0 0 0 0 0 0 0 0 0 0 0 0 0 0 0 0 0 0 0 0 0 0 0 0 0 0 0 0 0 0 0 0 0 0 0 0 0 0 0 0 0 0 0 0 0 0 0 0 0 0 0 0 0 0 0 0 0 0 0 0 0 0 0 0 0 0 0 0 0 0 0 0 1 1 1 1 1 1 1 1 1 1 1 1 1 1 1 1 1 1 1 1 1 1 1 1 1 1 1 1 1 1 1 1 1 1 1 1 1 1 1 1 1 1 1 1 1 1 1 1 1 1 1 1 1 1 1 1 1 1 1 1 1 1 1 1 1 1 1 1 1 1 1 1 1 1 1 1 1 1 1 1 1 1 1 1 1 1 1 1 1 1 1 1 1 1 1 1 1 1 1 1 0 0 0 0 0 0 0 0 0 0 0 0 0 0 0 0 0 0 0 0 0 0 0 0 0 0 0 0 0 0 0 0 0 0 0 0 0 0 0 0 0 0 0 0 0 0 0 0 0 0 0 0 0 0 0 0 0 0 0 0 0 0 0 0 0 0 0 0 0 0 0 0 0 0 0 0 0 0 0 0 0 0 0 0 0 0 0 0 0 0 0 0 0 0 0 0 0 0 0 0 1 1 1 1 1 1 1 1 1 1 1 1 1 1 1 1 1 1 1 1 1 1 1 1 1 1 1 1 1 1 1 1 1 1 1 1 1 1 1 1 1 1 1 1 1 1 1 1 1 1 1 1 1 1 1 1 1 1 1 1 1 1 1 1 1 1 1 1 1 1 1 1 1 1 1 1 1 1 1 1 1 1 1 1 1 1 1 1 1 1 1 1 1 1 1 1 1 1 1 1 0 0 0 0 0 0 0 0 0 0 0 0 0 0 0 0 0 0 0 0 0 0 0 0 0 0 0 0 0 0 0 0 0 0 0 0 0 0 0 0 0 0 0 0 0 0 0 0 0 0 0 0 0 0 0 0 0 0 0 0 0 0 0 0 0 0 0 0 0 0 0 0 0 0 0 0 0 0 0 0 0 0 0 0 0 0 0 0 0 0 0 0 0 0 0 0 0 0 0 0 1 1 1 1 1 1 1 1 1 1 1 1 1 1 1 1 1 1 1 1 1 1 1 1 1 1 1 1 1 1 1 1 1 1 1 1 1 1 1 1 1 1 1 1 1 1 1 1 1 1 1 1 1 1 1 1 1 1 1 1 1 1 1 1 1 1 1 1 1 1 1 1 1 1 1 1 1 1 1 1 1 1 1 1 1 1 1 1 1 1 1 1 1 1 1 1 1 1 1 1 0 0 0 0 0 0 0 0 0 0 0 0 0 0 0 0 0 0 0 0 0 0 0 0 0 0 0 0 0 0 0 0 0 0 0 0 0 0 0 0 0 0 0 0 0 0 0 0 0 0 0 0 0 0 0 0 0 0 0 0 0 0 0 0 0 0 0 0 0 0 0 0 0 0 0 0 0 0 0 0 0 0 0 0 0 0 0 0 0 0 0 0 0 0 0 0 0 0 0 0 1 1 1 1 1 1 1 1 1 1 1 1 1 1 1 1 1 1 1 1 1 1 1 1 1 1 1 1 1 1 1 1 1 1 1 1 1 1 1 1 1 1 1 1 1 1 1 1 1 1 1 1 1 1 1 1 1 1 1 1 1 1 1 1 1 1 1 1 1 1 1 1 1 1 1 1 1 1 1 1 1 1 1 1 1 1 1 1 1 1 1 1 1 1 1 1 1 1 1 1 0 0 0 0 0 0 0 0 0 0 0 0 0 0 0 0 0 0 0 0 0 0 0 0 0 0 0 0 0 0 0 0 0 0 0 0 0 0 0 0 0 0 0 0 0 0 0 0 0 0 0 0 0 0 0 0 0 0 0 0 0 0 0 0 0 0 0 0 0 0 0 0 0 0 0 0 0 0 0 0 0 0 0 0 0 0 0 0 0 0 0 0 0 0 0 0 0 0 0 0 1 1 1 1 1 1 1 1 1 1 1 1 1 1 1 1 1 1 1 1 1 1 1 1 1 1 1 1 1 1 1 1 1 1 1 1 1 1 1 1 1 1 1 1 1 1 1 1 1 1 1 1 1 1 1 1 1 1 1 1 1 1 1 1 1 1 1 1 1 1 1 1 1 1 1 1 1 1 1 1 1 1 1 1 1 1 1 1 1 1 1 1 1 1 1 1 1 1 1 1
				</DataArray>
				<DataArray Name="F3" type="Float32" format="ascii">
 0 0 0 0 0 0 0 0 0 0 0 0 0 0 0 0 0 0 0 0 0 0 0 0 0 0 0 0 0 0 0 0 0 0 0 0 0 0 0 0 0 0 0 0 0 0 0 0 0 0 0 0 0 0 0 0 0 0 0 0 0 0 0 0 0 0 0 0 0 0 0 0 0 0 0 0 0 0 0 0 0 0 0 0 0 0 0 0 0 0 0 0 0 0 0 0 0 0 0 0 0 0 0 0 0 0 0 0 0 0 0 0 0 0 0 0 0 0 0 0 0 0 0 0 0 0 0 0 0 0 0 0 0 0 0 0 0 0 0 0 0 0 0 0 0 0 0 0 0 0 0 0 0 0 0 0 0 0 0 0 0 0 0 0 0 0 0 0 0 0 0 0 0 0 0 0 0 0 0 0 0 0 0 0 0 0 0 0 0 0 0 0 0 0 0 0 0 0 0 0 0 0 0 0 0 0 0 0 0 0 0 0 0 0 0 0 0 0 0 0 0 0 0 0 0 0 0 0 0 0 0 0 0 0 0 0 0 0 0 0 0 0 0 0 0 0 0 0 0 0 0 0 0 0 0 0 0 0 0 0 0 0 0 0 0 0 0 0 0 0 0 0 0 0 0 0 0 0 0 0 0 0 0 0 0 0 0 0 0 0 0 0 0 0 0 0 0 0 0 0 0 0 0 0 0 0 0 0 0 0 0 0 0 0 0 0 0 0 0 0 0 0 0 0 0 0 0 0 0 0 0 0 0 0 0 0 0 0 0 0 0 0 0 0 0 0 0 0 0 0 0 0 0 0 0 0 0 0 0 0 0 0 0 0 0 0 0 0 0 0 0 0 0 0 0 0 0 0 0 0 0 0 0 0 0 0 0 0 0 0 0 0 0 0 0 0 0 0 0 0 0 0 0 0 0 0 0 0 0 0 0 0 0 0 0 0 0 0 0 0 0 0 0 0 0 0 0 0 0 0 0 0 0 0 0 0 0 0 0 0 0 0 0 0 0 0 0 0 0 0 0 0 0 0 0 0 0 0 0 0 0 0 0 0 0 0 0 0 0 0 0 0 0 0 0 0 0 0 0 0 0 0 0 0 0 0 0 0 0 0 0 0 0 0 0 0 0 0 0 0 0 0 0 0 0 0 0 0 0 0 0 0 0 0 0 0 0 0 0 0 0 0 0 0 0 0 0 0 0 0 0 0 0 0 0 0 0 0 0 0 0 0 0 0 0 0 0 0 0 0 0 0 0 0 0 0 0 0 0 0 0 0 0 0 0 0 0 0 0 0 0 0 0 0 0 0 0 0 0 0 0 0 0 0 0 0 0 0 0 0 0 0 0 0 0 0 0 0 0 0 0 0 0 0 0 0 0 0 0 0 0 0 0 0 0 0 0 0 0 0 0 0 0 0 0 0 0 0 0 0 0 0 0 0 0 0 0 0 0 0 0 0 0 0 0 0 0 0 0 0 0 0 0 0 0 0 0 0 0 0 0 0 0 0 0 0 0 0 0 0 0 0 0 0 0 0 0 0 0 0 0 0 0 0 0 0 0 0 0 0 0 0 0 0 0 0 0 0 0 0 0 0 0 0 0 0 0 0 0 0 0 0 0 0 0 0 0 0 0 0 0 0 0 0 0 0 0 0 0 0 0 0 0 0 0 0 0 0 0 0 0 0 0 0 0 0 0 0 0 0 0 0 0 0 0 0 0 0 0 0 0 0 0 0 0 0 0 0 0 0 0 0 0 0 0 0 0 0 0 0 0 0 0 0 0 0 0 0 0 0 0 0 0 0 0 0 0 0 0 0 0 0 0 0 0 0 0 0 0 0 0 0 0 0 0 0 0 0 0 0 0 0 0 0 0 0 0 0 0 0 0 0 0 0 0 0 0 0 0 0 0 0 0 0 0 0 0 0 0 0 0 0 0 0 0 0 0 0 0 0 0 0 0 0 0 0 0 0 0 0 0 0 0 0 0 0 0 0 0 0 0 0 0 0 0 0 0 0 0 0 0 0 0 0 0 0 0 0 0 0 0 0 0 0 0 0 0 0 0 0 0 0 0 0 0 0 0 0 0 0 0 0 0 0 0 0 0 0 0 0 0 0 0 0 0 0 0 0 0 0 0 0 0 0 0 0 0 0 0 0 0 0 0 0 0 0 0 0 0 0 0 0 0 0 0 0 0 0 0 0 0 0 0 0 0 0 0 0 0 0 0 0 0 0 0 0 0 0 0 0 0 0 0 0 0 0 0 0 0 0
				</DataArray>
				<DataArray Name="Pressure" type="Float32" format="ascii">