<?xml version="1.0"?>
<VTKFile type="PolyData">
	<PolyData>
		<Piece NumberOfPoints="1206" NumberOfPolys="1000">
			<Points>
				<DataArray type="Float32" NumberOfComponents="3" format="ascii">
 0 0 0 0.005 0 0 0.01 0 0 0.015 0 0 0.02 0 0 0.025 0 0 0.03 0 0 0.035 0 0 0.04 0 0 0.045 0 0 0.05 0 0 0.055 0 0 0.06 0 0 0.065 0 0 0.07 0 0 0.075 0 0 0.08 0 0 0.085 0 0 0.09 0 0 0.095 0 0 0.1 0 0 0.105 0 0 0.11 0 0 0.115 0 0 0.12 0 0 0.125 0 0 0.13 0 0 0.135 0 0 0.14 0 0 0.145 0 0 0.15 0 0 0.155 0 0 0.16 0 0 0.165 0 0 0.17 0 0 0.175 0 0 0.18 0 0 0.185 0 0 0.19 0 0 0.195 0 0 0.2 0 0 0.205 0 0 0.21 0 0 0.215 0 0 0.220001 0 0 0.225002 0 0 0.230004 0 0 0.235009 0 0 0.240019 0 0 0.245037 0 0 0.250066 0 0 0.255113 0 0 0.260183 0 0 0.265284 0 0 0.270423 0 0 0.275607 0 0 0.280844 0 0 0.286143 0 0 0.291511 0 0 0.296954 0 0 0.302482 0 0 0.308101 0 0 0.313818 0 0 0.319642 0 0 0.325578 0 0 0.331636 0 0 0.337822 0 0 0.344145 0 0 0.350614 0 0 0.357237 0 0 0.364025 0 0 0.370987 0 0 0.378135 0 0 0.385479 0 0 0.393032 0 0 0.400807 0 0 0.408818 0 0 0.417079 0 0 0.425605 0 0 0.434412 0 0 0.443513 0 0 0.452923 0 0 0.462653 0 0 0.472709 0 0 0.483091 0 0 0.493789 0 0 0.504779 0 0 0.516027 0 0 0.527484 0 0 0.539096 0 0 0.550815 0 0 0.562599 0 0 0.57442 0 0 0.586265 0 0 0.598129 0 0 0.610012 0 0 0.621921 0 0 0.633868 0 0 0.64588 0 0 0.658047 0 0 0.670854 0 0 0.673293 0 0 0.675692 0 0 0.678102 0 0 0.680517 0 0 0.682929 0 0 0.685337 0 0 0.687733 0 0 0.69012 0 0 0.6925 0 0 0.694871 0 0 0.697233 0 0 0.699601 0 0 0.701942 0 0 0.704288 0 0 0.706531 0 0 0.70868 0 0 0.710829 0 0 0.713109 0 0 0.715491 0 0 0.717897 0 0 0.720277 0 0 0.72264 0 0 0.725002 0 0 0.727366 0 0 0.729731 0 0 0.732093 0 0 0.73445 0 0 0.736806 0 0 0.739158 0 0 0.741515 0 0 0.743872 0 0 0.746228 0 0 0.74858 0 0 0.75093 0 0 0.753279 0 0 0.755632 0 0 0.757987 0 0 0.760341 0 0 0.76269 0 0 0.765038 0 0 0.767386 0 0 0.769736 0 0 0.772089 0 0 0.774441 0 0 0.776791 0 0 0.779137 0 0 0.781482 0 0 0.78383 0 0 0.78618 0 0 0.788531 0 0 0.790882 0 0 0.79323 0 0 0.795578 0 0 0.797926 0 0 0.800274 0 0 0.802624 0 0 0.804974 0 0 0.807322 0 0 0.809668 0 0 0.812022 0 0 0.814395 0 0 0.816727 0 0 0.819105 0 0 0.82184 0 0 0.825465 0 0 0.830079 0 0 0.835013 0 0 0.840002 0 0 0.845 0 0 0.85 0 0 0.855 0 0 0.86 0 0 0.865 0 0 0.87 0 0 0.875 0 0 0.88 0 0 0.885 0 0 0.89 0 0 0.895 0 0 0.9 0 0 0.905 0 0 0.91 0 0 0.915 0 0 0.92 0 0 0.925 0 0 0.93 0 0 0.935 0 0 0.94 0 0 0.945 0 0 0.95 0 0 0.955 0 0 0.96 0 0 0.965 0 0 0.97 0 0 0.975 0 0 0.98 0 0 0.985 0 0 0.99 0 0 0.995 0 0 1 0 0 0 0.02 0 0.005 0.02 0 0.01 0.02 0 0.015 0.02 0 0.02 0.02 0 0.025 0.02 0 0.03 0.02 0 0.035 0.02 0 0.04 0.02 0 0.045 0.02 0 0.05 0.02 0 0.055 0.02 0 0.06 0.02 0 0.065 0.02 0 0.07 0.02 0 0.075 0.02 0 0.08 0.02 0 0.085 0.02 0 0.09 0.02 0 0.095 0.02 0 0.1 0.02 0 0.105 0.02 0 0.11 0.02 0 0.115 0.02 0 0.12 0.02 0 0.125 0.02 0 0.13 0.02 0 0.135 0.02 0 0.14 0.02 0 0.145 0.02 0 0.15 0.02 0 0.155 0.02 0 0.16 0.02 0 0.165 0.02 0 0.17 0.02 0 0.175 0.02 0 0.18 0.02 0 0.185 0.02 0 0.19 0.02 0 0.195 0.02 0 0.2 0.02 0 0.205 0.02 0 0.21 0.02 0 0.215 0.02 0 0.220001 0.02 0 0.225002 0.02 0 0.230004 0.02 0 0.235009 0.02 0 0.240019 0.02 0 0.245037 0.02 0 0.250066 0.02 0 0.255113 0.02 0 0.260183 0.02 0 0.265284 0.02 0 0.270423 0.02 0 0.275607 0.02 0 0.280844 0.02 0 0.286143 0.02 0 0.291511 0.02 0 0.296954 0.02 0 0.302482 0.02 0 0.308101 0.02 0 0.313818 0.02 0 0.319642 0.02 0 0.325578 0.02 0 0.331636 0.02 0 0.337822 0.02 0 0.344145 0.02 0 0.350614 0.02 0 0.357237 0.02 0 0.364025 0.02 0 0.370987 0.02 0 0.378135 0.02 0 0.385479 0.02 0 0.393032 0.02 0 0.400807 0.02 0 0.408818 0.02 0 0.417079 0.02 0 0.425605 0.02 0 0.434412 0.02 0 0.443513 0.02 0 0.452923 0.02 0 0.462653 0.02 0 0.472709 0.02 0 0.483091 0.02 0 0.493789 0.02 0 0.504779 0.02 0 0.516027 0.02 0 0.527484 0.02 0 0.539096 0.02 0 0.550815 0.02 0 0.562599 0.02 0 0.57442 0.02 0 0.586265 0.0199999 0 0.598129 0.0199999 0 0.610012 0.0199997 0 0.621921 0.0199993 0 0.633867 0.0199986 0 0.645879 0.0199975 0 0.658045 0.0199969 0 0.670854 0.0199902 0 0.673316 0.0199804 0 0.675729 0.0199729 0 0.678143 0.0199699 0 0.680548 0.0199691 0 0.682945 0.019969 0 0.685331 0.0199716 0 0.687718 0.0199754 0 0.690105 0.0199807 0 0.692487 0.0199865 0 0.69487 0.0199944 0 0.697253 0.020004 0 0.699621 0.0200091 0 0.702012 0.0200126 0 0.704393 0.0200093 0 0.706875 0.0200125 0 0.709446 0.0200048 0 0.712008 0.0199911 0 0.71444 0.0199748 0 0.716782 0.0199615 0 0.719104 0.0199654 0 0.721449 0.019973 0 0.723808 0.0199847 0 0.726164 0.019989 0 0.728517 0.0199914 0 0.730869 0.0199928 0 0.733223 0.0199935 0 0.735581 0.0199958 0 0.737939 0.0199984 0 0.740299 0.02 0 0.742652 0.0200015 0 0.745006 0.0200031 0 0.747359 0.0200052 0 0.749715 0.0200064 0 0.752072 0.0200069 0 0.75443 0.0200067 0 0.756783 0.0200057 0 0.759135 0.0200064 0 0.761486 0.0200091 0 0.763841 0.0200094 0 0.766197 0.0200096 0 0.768553 0.0200091 0 0.770906 0.0200099 0 0.773256 0.0200097 0 0.775607 0.0200101 0 0.77796 0.0200117 0 0.780316 0.0200137 0 0.782671 0.020015 0 0.785024 0.0200163 0 0.787375 0.0200141 0 0.789725 0.0200109 0 0.792079 0.0200094 0 0.794435 0.0200075 0 0.796791 0.0200077 0 0.799147 0.0200086 0 0.801502 0.0200085 0 0.803857 0.0200064 0 0.806211 0.0200055 0 0.808567 0.0200061 0 0.810925 0.0200072 0 0.81329 0.0200087 0 0.81563 0.0200123 0 0.81793 0.0200147 0 0.820126 0.02001 0 0.822344 0.0200025 0 0.825477 0.02 0 0.83008 0.02 0 0.835013 0.02 0 0.840002 0.02 0 0.845 0.02 0 0.85 0.02 0 0.855 0.02 0 0.86 0.02 0 0.865 0.02 0 0.87 0.02 0 0.875 0.02 0 0.88 0.02 0 0.885 0.02 0 0.89 0.02 0 0.895 0.02 0 0.9 0.02 0 0.905 0.02 0 0.91 0.02 0 0.915 0.02 0 0.92 0.02 0 0.925 0.02 0 0.93 0.02 0 0.935 0.02 0 0.94 0.02 0 0.945 0.02 0 0.95 0.02 0 0.955 0.02 0 0.96 0.02 0 0.965 0.02 0 0.97 0.02 0 0.975 0.02 0 0.98 0.02 0 0.985 0.02 0 0.99 0.02 0 0.995 0.02 0 1 0.02 0 0 0.04 0 0.005 0.04 0 0.01 0.04 0 0.015 0.04 0 0.02 0.04 0 0.025 0.04 0 0.03 0.04 0 0.035 0.04 0 0.04 0.04 0 0.045 0.04 0 0.05 0.04 0 0.055 0.04 0 0.06 0.04 0 0.065 0.04 0 0.07 0.04 0 0.075 0.04 0 0.08 0.04 0 0.085 0.04 0 0.09 0.04 0 0.095 0.04 0 0.1 0.04 0 0.105 0.04 0 0.11 0.04 0 0.115 0.04 0 0.12 0.04 0 0.125 0.04 0 0.13 0.04 0 0.135 0.04 0 0.14 0.04 0 0.145 0.04 0 0.15 0.04 0 0.155 0.04 0 0.16 0.04 0 0.165 0.04 0 0.17 0.04 0 0.175 0.04 0 0.18 0.04 0 0.185 0.04 0 0.19 0.04 0 0.195 0.04 0 0.2 0.04 0 0.205 0.04 0 0.21 0.04 0 0.215 0.04 0 0.220001 0.04 0 0.225002 0.04 0 0.230004 0.04 0 0.235009 0.04 0 0.240019 0.04 0 0.245037 0.04 0 0.250066 0.04 0 0.255113 0.04 0 0.260183 0.04 0 0.265284 0.04 0 0.270423 0.04 0 0.275607 0.04 0 0.280844 0.04 0 0.286143 0.04 0 0.291511 0.04 0 0.296954 0.04 0 0.302482 0.04 0 0.308101 0.04 0 0.313818 0.04 0 0.319642 0.04 0 0.325578 0.04 0 0.331636 0.04 0 0.337822 0.04 0 0.344145 0.04 0 0.350614 0.04 0 0.357237 0.04 0 0.364025 0.04 0 0.370987 0.04 0 0.378135 0.04 0 0.385479 0.04 0 0.393032 0.04 0 0.400807 0.04 0 0.408818 0.04 0 0.417079 0.04 0 0.425605 0.04 0 0.434412 0.04 0 0.443513 0.04 0 0.452923 0.04 0 0.462653 0.04 0 0.472709 0.04 0 0.483091 0.04 0 0.493789 0.04 0 0.504779 0.04 0 0.516027 0.04 0 0.527484 0.04 0 0.539096 0.04 0 0.550815 0.04 0 0.562598 0.04 0 0.57442 0.0399999 0 0.586265 0.0399999 0 0.598128 0.0399998 0 0.610011 0.0399995 0 0.62192 0.0399991 0 0.633866 0.0399983 0 0.645876 0.0399971 0 0.658041 0.0399969 0 0.670845 0.0399714 0 0.673285 0.0399613 0 0.67568 0.0399644 0 0.678077 0.0399728 0 0.680473 0.0399808 0 0.682862 0.0399859 0 0.685246 0.0399881 0 0.687622 0.0399852 0 0.689994 0.0399851 0 0.692366 0.0399846 0 0.694734 0.0399864 0 0.697102 0.0399857 0 0.699482 0.0399943 0 0.701833 0.0400046 0 0.704186 0.0400149 0 0.706427 0.0400381 0 0.708566 0.0400434 0 0.710696 0.0400272 0 0.712954 0.039993 0 0.715312 0.0399725 0 0.717697 0.039966 0 0.720062 0.0399705 0 0.722418 0.0399786 0 0.724777 0.0399838 0 0.727138 0.0399895 0 0.729499 0.0399934 0 0.731858 0.0399929 0 0.734212 0.0399967 0 0.736566 0.0400023 0 0.738916 0.0400065 0 0.74127 0.040011 0 0.743623 0.0400109 0 0.745979 0.0400122 0 0.74833 0.0400116 0 0.750681 0.0400128 0 0.753029 0.0400134 0 0.755383 0.0400124 0 0.757737 0.040012 0 0.760092 0.0400144 0 0.762444 0.0400135 0 0.764794 0.040012 0 0.767145 0.0400131 0 0.769497 0.0400179 0 0.77185 0.0400188 0 0.774203 0.0400193 0 0.776555 0.0400188 0 0.778905 0.040018 0 0.781255 0.0400156 0 0.783612 0.0400142 0 0.78597 0.0400154 0 0.788326 0.0400161 0 0.790677 0.0400183 0 0.793023 0.0400167 0 0.795371 0.0400139 0 0.797724 0.0400089 0 0.80008 0.0400036 0 0.802436 0.0400024 0 0.804793 0.0400015 0 0.807149 0.039996 0 0.809508 0.0399884 0 0.811876 0.0399811 0 0.81426 0.039979 0 0.816588 0.0399808 0 0.818984 0.0399873 0 0.821778 0.0399953 0 0.825467 0.0399996 0 0.830081 0.04 0 0.835013 0.04 0 0.840002 0.04 0 0.845 0.04 0 0.85 0.04 0 0.855 0.04 0 0.86 0.04 0 0.865 0.04 0 0.87 0.04 0 0.875 0.04 0 0.88 0.04 0 0.885 0.04 0 0.89 0.04 0 0.895 0.04 0 0.9 0.04 0 0.905 0.04 0 0.91 0.04 0 0.915 0.04 0 0.92 0.04 0 0.925 0.04 0 0.93 0.04 0 0.935 0.04 0 0.94 0.04 0 0.945 0.04 0 0.95 0.04 0 0.955 0.04 0 0.96 0.04 0 0.965 0.04 0 0.97 0.04 0 0.975 0.04 0 0.98 0.04 0 0.985 0.04 0 0.99 0.04 0 0.995 0.04 0 1 0.04 0 0 0.06 0 0.005 0.06 0 0.01 0.06 0 0.015 0.06 0 0.02 0.06 0 0.025 0.06 0 0.03 0.06 0 0.035 0.06 0 0.04 0.06 0 0.045 0.06 0 0.05 0.06 0 0.055 0.06 0 0.06 0.06 0 0.065 0.06 0 0.07 0.06 0 0.075 0.06 0 0.08 0.06 0 0.085 0.06 0 0.09 0.06 0 0.095 0.06 0 0.1 0.06 0 0.105 0.06 0 0.11 0.06 0 0.115 0.06 0 0.12 0.06 0 0.125 0.06 0 0.13 0.06 0 0.135 0.06 0 0.14 0.06 0 0.145 0.06 0 0.15 0.06 0 0.155 0.06 0 0.16 0.06 0 0.165 0.06 0 0.17 0.06 0 0.175 0.06 0 0.18 0.06 0 0.185 0.06 0 0.19 0.06 0 0.195 0.06 0 0.2 0.06 0 0.205 0.06 0 0.21 0.06 0 0.215 0.06 0 0.220001 0.06 0 0.225002 0.06 0 0.230004 0.06 0 0.235009 0.06 0 0.240019 0.06 0 0.245037 0.06 0 0.250066 0.06 0 0.255113 0.06 0 0.260183 0.06 0 0.265284 0.06 0 0.270423 0.06 0 0.275607 0.06 0 0.280844 0.06 0 0.286143 0.06 0 0.291511 0.06 0 0.296954 0.06 0 0.302482 0.06 0 0.308101 0.06 0 0.313818 0.06 0 0.319642 0.06 0 0.325578 0.06 0 0.331636 0.06 0 0.337822 0.
[...]
			<CellData Scalars="Density">
				<DataArray Name="Density" type="Float32" format="ascii">
 1 1 1 1 1 1 1 1 1 1 1 1 1 1 1 1 1 1 1 1 1 1 1 1 1 1 1 1 1 1 1 1 1 1 1 1 1 1 0.999999 0.999998 0.999995 0.999987 0.999966 0.999915 0.99979 0.99952 0.998992 0.998047 0.996491 0.994115 0.990718 0.986135 0.980258 0.973036 0.964481 0.954647 0.943625 0.931521 0.918451 0.904527 0.889854 0.87453 0.858638 0.842254 0.82544 0.808251 0.790736 0.772936 0.754886 0.73662 0.718167 0.699556 0.680816 0.661979 0.643077 0.62415 0.605246 0.586424 0.567761 0.549356 0.531341 0.513887 0.497216 0.481609 0.467396 0.454933 0.444543 0.436423 0.430556 0.426675 0.424319 0.422956 0.422117 0.42146 0.420764 0.419859 0.418536 0.416276 0.410973 0.39044 0.255449 0.260351 0.259914 0.260164 0.260774 0.26153 0.262066 0.262489 0.262886 0.263202 0.26345 0.26372 0.263926 0.264084 0.264273 0.26461 0.265395 0.265735 0.265514 0.265407 0.265387 0.265342 0.2653 0.265261 0.26523 0.265245 0.265247 0.26527 0.265298 0.265323 0.265293 0.265346 0.265342 0.26537 0.265399 0.265436 0.265418 0.265433 0.265459 0.26548 0.2655 0.265513 0.265517 0.265509 0.265493 0.265491 0.265491 0.265491 0.265499 0.265489 0.265472 0.265463 0.265505 0.26552 0.26553 0.265507 0.265574 0.265569 0.265506 0.264712 0.26496 0.269446 0.272981 0.252225 0.184929 0.135624 0.126688 0.125268 0.125042 0.125007 0.125001 0.125 0.125 0.125 0.125 0.125 0.125 0.125 0.125 0.125 0.125 0.125 0.125 0.125 0.125 0.125 0.125 0.125 0.125 0.125 0.125 0.125 0.125 0.125 0.125 0.125 0.125 0.125 0.125 0.125 1 1 1 1 1 1 1 1 1 1 1 1 1 1 1 1 1 1 1 1 1 1 1 1 1 1 1 1 1 1 1 1 1 1 1 1 1 1 0.999999 0.999998 0.999995 0.999987 0.999966 0.999915 0.99979 0.99952 0.998992 0.998047 0.996491 0.994115 0.990718 0.986135 0.980258 0.973036 0.964481 0.954647 0.943625 0.931521 0.918451 0.904527 0.889854 0.87453 0.858638 0.842254 0.82544 0.808251 0.790736 0.772936 0.754886 0.73662 0.718167 0.699556 0.680816 0.661979 0.643077 0.62415 0.605246 0.586424 0.567761 0.549356 0.531341 0.513887 0.497216 0.481609 0.467396 0.454933 0.444543 0.436423 0.430556 0.426675 0.42432 0.422957 0.422119 0.421463 0.420768 0.419865 0.418547 0.416292 0.410995 0.390495 0.255486 0.260342 0.259926 0.260194 0.260785 0.26161 0.262039 0.262493 0.262904 0.263211 0.263446 0.263712 0.263952 0.264074 0.264228 0.264517 0.265338 0.265748 0.265559 0.265396 0.265363 0.265302 0.26527 0.265245 0.265237 0.265212 0.265243 0.265248 0.26529 0.265252 0.265345 0.265261 0.265363 0.265361 0.265443 0.265393 0.265425 0.265441 0.265433 0.265468 0.265491 0.265522 0.265518 0.265442 0.265473 0.265467 0.265508 0.265461 0.265478 0.265444 0.265473 0.265588 0.265455 0.265366 0.26536 0.265456 0.265458 0.265432 0.265346 0.264773 0.265449 0.270994 0.27306 0.249743 0.183268 0.135631 0.126706 0.12527 0.125042 0.125007 0.125001 0.125 0.125 0.125 0.125 0.125 0.125 0.125 0.125 0.125 0.125 0.125 0.125 0.125 0.125 0.125 0.125 0.125 0.125 0.125 0.125 0.125 0.125 0.125 0.125 0.125 0.125 0.125 0.125 0.125 1 1 1 1 1 1 1 1 1 1 1 1 1 1 1 1 1 1 1 1 1 1 1 1 1 1 1 1 1 1 1 1 1 1 1 1 1 1 0.999999 0.999998 0.999995 0.999987 0.999966 0.999915 0.99979 0.99952 0.998992 0.998047 0.996491 0.994115 0.990718 0.986135 0.980258 0.973036 0.964481 0.954647 0.943625 0.931521 0.918451 0.904527 0.889854 0.87453 0.858638 0.842254 0.82544 0.808251 0.790736 0.772936 0.754886 0.73662 0.718167 0.699556 0.680816 0.661979 0.643077 0.62415 0.605246 0.586424 0.567761 0.549356 0.531341 0.513887 0.497216 0.481609 0.467396 0.454933 0.444543 0.436423 0.430556 0.426676 0.424321 0.42296 0.422123 0.421468 0.420773 0.41987 0.418554 0.416305 0.411016 0.390481 0.255484 0.260363 0.259932 0.260181 0.260813 0.2615 0.262058 0.262468 0.262877 0.263218 0.263489 0.263728 0.263933 0.264022 0.264325 0.264603 0.265241 0.265764 0.265475 0.265402 0.265374 0.265372 0.26532 0.265278 0.265245 0.265224 0.265257 0.265263 0.26527 0.265366 0.265272 0.265363 0.265279 0.265435 0.265425 0.265427 0.26544 0.265411 0.265469 0.265462 0.265514 0.265558 0.265431 0.265471 0.26542 0.265537 0.265433 0.265473 0.265397 0.265439 0.265527 0.265671 0.265506 0.26532 0.265157 0.265187 0.265286 0.265218 0.26475 0.263761 0.265226 0.270845 0.273482 0.249115 0.183652 0.135812 0.126728 0.125272 0.125043 0.125007 0.125001 0.125 0.125 0.125 0.125 0.125 0.125 0.125 0.125 0.125 0.125 0.125 0.125 0.125 0.125 0.125 0.125 0.125 0.125 0.125 0.125 0.125 0.125 0.125 0.125 0.125 0.125 0.125 0.125 0.125 1 1 1 1 1 1 1 1 1 1 1 1 1 1 1 1 1 1 1 1 1 1 1 1 1 1 1 1 1 1 1 1 1 1 1 1 1 1 0.999999 0.999998 0.999995 0.999987 0.999966 0.999915 0.99979 0.99952 0.998992 0.998047 0.996491 0.994115 0.990718 0.986135 0.980258 0.973036 0.964481 0.954647 0.943625 0.931521 0.918451 0.904527 0.889854 0.87453 0.858638 0.842254 0.82544 0.808251 0.790736 0.772936 0.754886 0.73662 0.718167 0.699556 0.680816 0.661979 0.643077 0.62415 0.605246 0.586424 0.567761 0.549356 0.531341 0.513887 0.497216 0.481609 0.467396 0.454933 0.444543 0.436423 0.430557 0.426677 0.424324 0.422964 0.422128 0.421473 0.420776 0.419871 0.41855 0.416299 0.411005 0.390483 0.255428 0.26036 0.259975 0.260231 0.26082 0.261539 0.262022 0.262502 0.262882 0.263203 0.263463 0.263742 0.263945 0.26402 0.264298 0.264518 0.265263 0.265761 0.265564 0.265458 0.2654 0.265332 0.265297 0.265261 0.265215 0.265264 0.265244 0.265311 0.265273 0.265361 0.265269 0.265395 0.26525 0.265432 0.265446 0.265491 0.265488 0.265488 0.265534 0.265527 0.265566 0.265587 0.265517 0.265583 0.265553 0.265646 0.265594 0.265651 0.265561 0.265633 0.265675 0.265747 0.265772 0.265729 0.265548 0.2655 0.265925 0.2661 0.26562 0.26441 0.265423 0.269773 0.27105 0.250953 0.187065 0.136006 0.126737 0.125272 0.125043 0.125007 0.125001 0.125 0.125 0.125 0.125 0.125 0.125 0.125 0.125 0.125 0.125 0.125 0.125 0.125 0.125 0.125 0.125 0.125 0.125 0.125 0.125 0.125 0.125 0.125 0.125 0.125 0.125 0.125 0.125 0.125 1 1 1 1 1 1 1 1 1 1 1 1 1 1 1 1 1 1 1 1 1 1 1 1 1 1 1 1 1 1 1 1 1 1 1 1 1 1 0.999999 0.999998 0.999995 0.999987 0.999966 0.999915 0.99979 0.99952 0.998992 0.998047 0.996491 0.994115 0.990718 0.986135 0.980258 0.973036 0.964481 0.954647 0.943625 0.931521 0.918451 0.904527 0.889854 0.87453 0.858638 0.842254 0.82544 0.808251 0.790736 0.772936 0.754886 0.73662 0.718167 0.699556 0.680816 0.661979 0.643077 0.62415 0.605246 0.586424 0.567761 0.549356 0.531341 0.513887 0.497216 0.481609 0.467396 0.454933 0.444543 0.436423 0.430557 0.426679 0.424327 0.422968 0.422131 0.421474 0.420775 0.419868 0.418542 0.416287 0.410987 0.390444 0.255438 0.260352 0.259958 0.26018 0.260813 0.261569 0.262059 0.262445 0.262859 0.263161 0.26343 0.263725 0.263977 0.264147 0.264283 0.264573 0.265294 0.265736 0.265559 0.265396 0.26536 0.265307 0.265285 0.265241 0.265222 0.265228 0.265246 0.265255 0.265302 0.265288 0.265343 0.265296 0.265369 0.265345 0.265399 0.265392 0.265388 0.265416 0.265436 0.265451 0.265483 0.265493 0.265518 0.265493 0.265502 0.26551 0.265567 0.26555 0.265574 0.265554 0.265573 0.265611 0.265617 0.265563 0.265554 0.265661 0.265975 0.266017 0.265559 0.264775 0.265783 0.270567 0.270959 0.246067 0.183501 0.135505 0.126716 0.125271 0.125043 0.125007 0.125001 0.125 0.125 0.125 0.125 0.125 0.125 0.125 0.125 0.125 0.125 0.125 0.125 0.125 0.125 0.125 0.125 0.125 0.125 0.125 0.125 0.125 0.125 0.125 0.125 0.125 0.125 0.125 0.125 0.125
				</DataArray>
				<DataArray Name="Energy" type="Float32" format="ascii">
 2.5 2.5 2.5 2.5 2.5 2.5 2.5 2.5 2.5 2.5 2.5 2.5 2.5 2.5 2.5 2.5 2.5 2.5 2.5 2.5 2.5 2.5 2.5 2.5 2.5 2.5 2.5 2.5 2.5 2.5 2.5 2.5 2.5 2.5 2.5 2.5 2.5 2.5 2.5 2.5 2.49999 2.49999 2.49997 2.49991 2.49979 2.49952 2.49899 2.49805 2.49649 2.49411 2.4907 2.4861 2.48018 2.47289 2.46421 2.45419 2.4429 2.43042 2.41684 2.40225 2.38675 2.37041 2.3533 2.33546 2.31696 2.29782 2.27809 2.25778 2.23691 2.21551 2.19358 2.17115 2.14821 2.12481 2.10094 2.07665 2.05199 2.027 2.00178 1.97647 1.95125 1.92637 1.90219 1.87919 1.85793 1.8391 1.82334 1.81114 1.80264 1.79754 1.7952 1.79484 1.79581 1.7977 1.80044 1.80429 1.81005 1.81993 1.84348 1.94051 2.9666 2.91052 2.91492 2.91232 2.90529 2.89709 2.89156 2.88683 2.88248 2.879 2.8762 2.87322 2.87074 2.86908 2.86686 2.86315 2.8547 2.85111 2.85357 2.85494 2.85531 2.8559 2.85647 2.85692 2.85724 2.85723 2.85705 2.85682 2.85643 2.85603 2.85599 2.85589 2.85552 2.85526 2.85488 2.85472 2.85478 2.85467 2.85456 2.85439 2.85412 2.85402 2.85413 2.85407 2.85387 2.85368 2.85343 2.85337 2.85321 2.85337 2.85323 2.85303 2.85306 2.85312 2.853 2.8526 2.85311 2.85304 2.85258 2.84921 2.85022 2.86904 2.88313 2.78903 2.41397 2.07152 2.01091 2.00172 2.00027 2.00004 2.00001 2 2 2 2 2 2 2 2 2 2 2 2 2 2 2 2 2 2 2 2 2 2 2 2 2 2 2 2 2 2.5 2.5 2.5 2.5 2.5 2.5 2.5 2.5 2.5 2.5 2.5 2.5 2.5 2.5 2.5 2.5 2.5 2.5 2.5 2.5 2.5 2.5 2.5 2.5 2.5 2.5 2.5 2.5 2.5 2.5 2.5 2.5 2.5 2.5 2.5 2.5 2.5 2.5 2.5 2.5 2.49999 2.49999 2.49997 2.49991 2.49979 2.49952 2.49899 2.49805 2.49649 2.49411 2.4907 2.4861 2.48018 2.47289 2.46421 2.45419 2.4429 2.43042 2.41684 2.40225 2.38675 2.37041 2.3533 2.33546 2.31696 2.29782 2.27809 2.25778 2.23691 2.21551 2.19358 2.17115 2.14821 2.12481 2.10094 2.07665 2.05199 2.027 2.00178 1.97647 1.95125 1.92637 1.90219 1.87919 1.85793 1.8391 1.82334 1.81114 1.80264 1.79754 1.7952 1.79484 1.79581 1.7977 1.80045 1.80431 1.81007 1.81996 1.84352 1.94062 2.96677 2.91048 2.91497 2.91245 2.90534 2.89744 2.89144 2.88684 2.88256 2.87904 2.87618 2.87319 2.87085 2.8691 2.86682 2.86367 2.85529 2.85025 2.85264 2.85431 2.85508 2.85592 2.85641 2.85678 2.85714 2.85709 2.85705 2.85676 2.85646 2.85591 2.85625 2.85572 2.85582 2.85541 2.85527 2.85485 2.85491 2.85505 2.85482 2.85465 2.85446 2.85456 2.85432 2.85424 2.85432 2.85404 2.85411 2.85395 2.85381 2.85353 2.8539 2.85429 2.85377 2.85347 2.85331 2.85355 2.85345 2.85337 2.85317 2.85094 2.85386 2.87729 2.88538 2.78028 2.40427 2.07153 2.01103 2.00173 2.00027 2.00004 2.00001 2 2 2 2 2 2 2 2 2 2 2 2 2 2 2 2 2 2 2 2 2 2 2 2 2 2 2 2 2 2.5 2.5 2.5 2.5 2.5 2.5 2.5 2.5 2.5 2.5 2.5 2.5 2.5 2.5 2.5 2.5 2.5 2.5 2.5 2.5 2.5 2.5 2.5 2.5 2.5 2.5 2.5 2.5 2.5 2.5 2.5 2.5 2.5 2.5 2.5 2.5 2.5 2.5 2.5 2.5 2.49999 2.49999 2.49997 2.49991 2.49979 2.49952 2.49899 2.49805 2.49649 2.49411 2.4907 2.4861 2.48018 2.47289 2.46421 2.45419 2.4429 2.43042 2.41684 2.40225 2.38675 2.37041 2.3533 2.33546 2.31696 2.29782 2.27809 2.25778 2.23691 2.21551 2.19358 2.17115 2.14821 2.12481 2.10094 2.07665 2.05199 2.027 2.00178 1.97647 1.95125 1.92637 1.90219 1.87919 1.85793 1.8391 1.82334 1.81114 1.80264 1.79754 1.7952 1.79485 1.79582 1.79771 1.80046 1.80431 1.81008 1.81998 1.84355 1.9406 2.96676 2.91057 2.915 2.91239 2.90547 2.89695 2.89153 2.88674 2.88244 2.87907 2.87637 2.87326 2.87078 2.86883 2.86705 2.86386 2.85564 2.85197 2.85365 2.85511 2.85532 2.85589 2.85643 2.85683 2.85719 2.8571 2.85707 2.85681 2.85639 2.85648 2.8561 2.85627 2.85554 2.85583 2.85532 2.8552 2.85531 2.85513 2.85513 2.8548 2.85479 2.85495 2.85434 2.85468 2.85429 2.85458 2.85409 2.85428 2.85389 2.85405 2.85449 2.85502 2.8543 2.85357 2.85287 2.85293 2.85341 2.85301 2.85111 2.84701 2.85355 2.8773 2.88793 2.77876 2.40685 2.07279 2.01117 2.00174 2.00027 2.00004 2.00001 2 2 2 2 2 2 2 2 2 2 2 2 2 2 2 2 2 2 2 2 2 2 2 2 2 2 2 2 2 2.5 2.5 2.5 2.5 2.5 2.5 2.5 2.5 2.5 2.5 2.5 2.5 2.5 2.5 2.5 2.5 2.5 2.5 2.5 2.5 2.5 2.5 2.5 2.5 2.5 2.5 2.5 2.5 2.5 2.5 2.5 2.5 2.5 2.5 2.5 2.5 2.5 2.5 2.5 2.5 2.49999 2.49999 2.49997 2.49991 2.49979 2.49952 2.49899 2.49805 2.49649 2.49411 2.4907 2.4861 2.48018 2.47289 2.46421 2.45419 2.4429 2.43042 2.41684 2.40225 2.38675 2.37041 2.3533 2.33546 2.31696 2.29782 2.27809 2.25778 2.23691 2.21551 2.19358 2.17115 2.14821 2.12481 2.10094 2.07665 2.05199 2.027 2.00178 1.97647 1.95125 1.92637 1.90219 1.87919 1.85793 1.8391 1.82334 1.81114 1.80264 1.79754 1.79521 1.79486 1.79582 1.79772 1.80046 1.80432 1.81007 1.81997 1.84353 1.9406 2.9665 2.91056 2.91519 2.91262 2.9055 2.89713 2.89137 2.88688 2.88246 2.879 2.87626 2.87332 2.87083 2.86887 2.86712 2.86445 2.85638 2.85083 2.85267 2.85429 2.85473 2.85543 2.85589 2.85648 2.85657 2.85675 2.8565 2.85652 2.85593 2.85598 2.85549 2.85568 2.85473 2.85515 2.85474 2.85469 2.85465 2.85441 2.85438 2.85409 2.85388 2.85381 2.85357 2.85367 2.85341 2.85362 2.85312 2.85313 2.85288 2.85304 2.85308 2.85322 2.85306 2.85262 2.85186 2.85167 2.85336 2.85395 2.85162 2.84603 2.85012 2.86834 2.87334 2.78273 2.42568 2.07414 2.01123 2.00175 2.00027 2.00004 2.00001 2 2 2 2 2 2 2 2 2 2 2 2 2 2 2 2 2 2 2 2 2 2 2 2 2 2 2 2 2 2.5 2.5 2.5 2.5 2.5 2.5 2.5 2.5 2.5 2.5 2.5 2.5 2.5 2.5 2.5 2.5 2.5 2.5 2.5 2.5 2.5 2.5 2.5 2.5 2.5 2.5 2.5 2.5 2.5 2.5 2.5 2.5 2.5 2.5 2.5 2.5 2.5 2.5 2.5 2.5 2.49999 2.49999 2.49997 2.49991 2.49979 2.49952 2.49899 2.49805 2.49649 2.49411 2.4907 2.4861 2.48018 2.47289 2.46421 2.45419 2.4429 2.43042 2.41684 2.40225 2.38675 2.37041 2.3533 2.33546 2.31696 2.29782 2.27809 2.25778 2.23691 2.21551 2.19358 2.17115 2.14821 2.12481 2.10094 2.07665 2.05199 2.027 2.00178 1.97647 1.95125 1.92637 1.90219 1.87919 1.85793 1.8391 1.82335 1.81115 1.80264 1.79755 1.79521 1.79486 1.79583 1.79772 1.80046 1.80431 1.81006 1.81995 1.8435 1.94052 2.96655 2.91052 2.91512 2.91239 2.90547 2.89726 2.89153 2.88663 2.88236 2.87882 2.87611 2.87325 2.87097 2.86938 2.86688 2.86433 2.85656 2.85138 2.8533 2.85476 2.85527 2.85591 2.8563 2.85681 2.85713 2.85716 2.85708 2.85683 2.85664 2.85633 2.85642 2.85601 2.85601 2.85554 2.85538 2.85518 2.85513 2.85517 2.85507 2.85487 2.85471 2.85475 2.85487 2.85482 2.85477 2.85463 2.85466 2.85464 2.85486 2.85479 2.85488 2.8549 2.85479 2.85462 2.85475 2.85534 2.85669 2.85686 2.85478 2.85137 2.85577 2.87616 2.87751 2.76307 2.40452 2.0705 2.0111 2.00174 2.00027 2.00004 2.00001 2 2 2 2 2 2 2 2 2 2 2 2 2 2 2 2 2 2 2 2 2 2 2 2 2 2 2 2 2
				</DataArray>
				<DataArray Name="F1" type="Float32" format="ascii">
 1 1 1 1 1 1 1 1 1 1 1 1 1 1 1 1 1 1 1 1 1 1 1 1 1 1 1 1 1 1 1 1 1 1 1 1 1 1 1 1 1 1 1 1 1 1 1 1 1 1 1 1 1 1 1 1 1 1 1 1 1 1 1 1 1 1 1 1 1 1 1 1 1 1 1 1 1 1 1 1 1 1 1 1 1 1 1 1 1 1 1 1 1 1 1 1 1 1 1 1 0 0 0 0 0 0 0 0 0 0 0 0 0 0 0 0 0 0 0 0 0 0 0 0 0 0 0 0 0 0 0 0 0 0 0 0 0 0 0 0 0 0 0 0 0 0 0 0 0 0 0 0 0 0 0 0 0 0 0 0 0 0 0 0 0 0 0 0 0 0 0 0 0 0 0 0 0 0 0 0 0 0 0 0 0 0 0 0 0 0 0 0 0 0 0 0 0 0 0 0 1 1 1 1 1 1 1 1 1 1 1 1 1 1 1 1 1 1 1 1 1 1 1 1 1 1 1 1 1 1 1 1 1 1 1 1 1 1 1 1 1 1 1 1 1 1 1 1 1 1 1 1 1 1 1 1 1 1 1 1 1 1 1 1 1 1 1 1 1 1 1 1 1 1 1 1 1 1 1 1 1 1 1 1 1 1 1 1 1 1 1 1 1 1 1 1 1 1 1 1 0 0 0 0 0 0 0 0 0 0 0 0 0 0 0 0 0 0 0 0 0 0 0 0 0 0 0 0 0 0 0 0 0 0 0 0 0 0 0 0 0 0 0 0 0 0 0 0 0 0 0 0 0 0 0 0 0 0 0 0 0 0 0 0 0 0 0 0 0 0 0 0 0 0 0 0 0 0 0 0 0 0 0 0 0 0 0 0 0 0 0 0 0 0 0 0 0 0 0 0 1 1 1 1 1 1 1 1 1 1 1 1 1 1 1 1 1 1 1 1 1 1 1 1 1 1 1 1 1 1 1 1 1 1 1 1 1 1 1 1 1 1 1 1 1 1 1 1 1 1 1 1 1 1 1 1 1 1 1 1 1 1 1 1 1 1 1 1 1 1 1 1 1 1 1 1 1 1 1 1 1 1 1 1 1 1 1 1 1 1 1 1 1 1 1 1 1 1 1 1 0 0 0 0 0 0 0 0 0 0 0 0 0 0 0 0 0 0 0 0 0 0 0 0 0 0 0 0 0 0 0 0 0 0 0 0 0 0 0 0 0 0 0 0 0 0 0 0 0 0 0 0 0 0 0 0 0 0 0 0 0 0 0 0 0 0 0 0 0 0 0 0 0 0 0 0 0 0 0 0 0 0 0 0 0 0 0 0 0 0 0 0 0 0 0 0 0 0 0 0 1 1 1 1 1 1 1 1 1 1 1 1 1 1 1 1 1 1 1 1 1 1 1 1 1 1 1 1 1 1 1 1 1 1 1 1 1 1 1 1 1 1 1 1 1 1 1 1 1 1 1 1 1 1 1 1 1 1 1 1 1 1 1 1 1 1 1 1 1 1 1 1 1 1 1 1 1 1 1 1 1 1 1 1 1 1 1 1 1 1 1 1 1 1 1 1 1 1 1 1 0 0 0 0 0 0 0 0 0 0 0 0 0 0 0 0 0 0 0 0 0 0 0 0 0 0 0 0 0 0 0 0 0 0 0 0 0 0 0 0 0 0 0 0 0 0 0 0 0 0 0 0 0 0 0 0 0 0 0 0 0 0 0 0 0 0 0 0 0 0 0 0 0 0 0 0 0 0 0 0 0 0 0 0 0 0 0 0 0 0 0 0 0 0 0 0 0 0 0 0 1 1 1 1 1 1 1 1 1 1 1 1 1 1 1 1 1 1 1 1 1 1 1 1 1 1 1 1 1 1 1 1 1 1 1 1 1 1 1 1 1 1 1 1 1 1 1 1 1 1 1 1 1 1 1 1 1 1 1 1 1 1 1 1 1 1 1 1 1 1 1 1 1 1 1 1 1 1 1 1 1 1 1 1 1 1 1 1 1 1 1 1 1 1 1 1 1 1 1 1 0 0 0 0 0 0 0 0 0 0 0 0 0 0 0 0 0 0 0 0 0 0 0 0 0 0 0 0 0 0 0 0 0 0 0 0 0 0 0 0 0 0 0 0 0 0 0 0 0 0 0 0 0 0 0 0 0 0 0 0 0 0 0 0 0 0 0 0 0 0 0 0 0 0 0 0 0 0 0 0 0 0 0 0 0 0 0 0 0 0 0 0 0 0 0 0 0 0 0 0
				</DataArray>
				<DataArray Name="F2" type="Float32" format="ascii">
 0 0 0 0 0 0 0 0 0 0 0 0 0 0 0 0 0 0 0 0 0 0 0 0 0 0 0 0 0 0 0 0 0 0 0 0 0 0 0 0 0 0 0 0 0 0 0 0 0 0 0 0 0 0 0 0 0 0 0 0 0 0 0 0 0 0 0 0 0 0 0 0 0 0 0 0 0 0 0 0 0 0 0 0 0 0 0 0 0 0 0 0 0 0 0 0 0 0 0 0 1 1 1 1 1 1 1 1 1 1 1 1 1 1 1 1 1 1 1 1 1 1 1 1 1 1 1 1 1 1 1 1 1 1 1 1 1 1 1 1 1 1 1 1 1 1 1 1 1 1 1 1 1 1 1 1 1 1 1 1 1 1 1 1 1 1 1 1 1 1 1 1 1 1 1 1 1 1 1 1 1 1 1 1 1 1 1 1 1 1 1 1 1 1 1 1 1 1 1 1 0 0 0 0 0 0 0 0 0 0 0 0 0 0 0 0 0 0 0 0 0 0 0 0 0 0 0 0 0 0 0 0 0 0 0 0 0 0 0 0 0 0 0 0 0 0 0 0 0 0 0 0 0 0 0 0 0 0 0 0 0 0 0 0 0 0 0 0 0 0 0 0 0 0 0 0 0 0 0 0 0 0 0 0 0 0 0 0 0 0 0 0 0 0 0 0 0 0 0 0 1 1 1 1 1 1 1 1 1 1 1 1 1 1 1 1 1 1 1 1 1 1 1 1 1 1 1 1 1 1 1 1 1 1 1 1 1 1 1 1 1 1 1 1 1 1 1 1 1 1 1 1 1 1 1 1 1 1 1 1 1 1 1 1 1 1 1 1 1 1 1 1 1 1 1 1 1 1 1 1 1 1 1 1 1 1 1 1 1 1 1 1 1 1 1 1 1 1 1 1 0 0 0 0 0 0 0 0 0 0 0 0 0 0 0 0 0 0 0 0 0 0 0 0 0 0 0 0 0 0 0 0 0 0 0 0 0 0 0 0 0 0 0 0 0 0 0 0 0 0 0 0 0 0 0 0 0 0 0 0 0 0 0 0 0 0 0 0 0 0 0 0 0 0 0 0 0 0 0 0 0 0 0 0 0 0 0 0 0 0 0 0 0 0 0 0 0 0 0 0 1 1 1 1 1 1 1 1 1 1 1 1 1 1 1 1 1 1 1 1 1 1 1 1 1 1 1 1 1 1 1 1 1 1 1 1 1 1 1 1 1 1 1 1 1 1 1 1 1 1 1 1 1 1 1 1 1 1 1 1 1 1 1 1 1 1 1 1 1 1 1 1 1 1 1 1 1 1 1 1 1 1 1 1 1 1 1 1 1 1 1 1 1 1 1 1 1 1 1 1 0 0 0 0 0 0 0 0 0 0 0 0 0 0 0 0 0 0 0 0 0 0 0 0 0 0 0 0 0 0 0 0 0 0 0 0 0 0 0 0 0 0 0 0 0 0 0 0 0 0 0 0 0 0 0 0 0 0 0 0 0 0 0 0 0 0 0 0 0 0 0 0 0 0 0 0 0 0 0 0 0 0 0 0 0 0 0 0 0 0 0 0 0 0 0 0 0 0 0 0 1 1 1 1 1 1 1 1 1 1 1 1 1 1 1 1 1 1 1 1 1 1 1 1 1 1 1 1 1 1 1 1 1 1 1 1 1 1 1 1 1 1 1 1 1 1 1 1 1 1 1 1 1 1 1 1 1 1 1 1 1 1 1 1 1 1 1 1 1 1 1 1 1 1 1 1 1 1 1 1 1 1 1 1 1 1 1 1 1 1 1 1 1 1 1 1 1 1 1 1 0 0 0 0 0 0 0 0 0 0 0 0 0 0 0 0 0 0 0 0 0 0 0 0 0 0 0 0 0 0 0 0 0 0 0 0 0 0 0 0 0 0 0 0 0 0 0 0 0 0 0 0 0 0 0 0 0 0 0 0 0 0 0 0 0 0 0 0 0 0 0 0 0 0 0 0 0 0 0 0 0 0 0 0 0 0 0 0 0 0 0 0 0 0 0 0 0 0 0 0 1 1 1 1 1 1 1 1 1 1 1 1 1 1 1 1 1 1 1 1 1 1 1 1 1 1 1 1 1 1 1 1 1 1 1 1 1 1 1 1 1 1 1 1 1 1 1 1 1 1 1 1 1 1 1 1 1 1 1 1 1 1 1 1 1 1 1 1 1 1 1 1 1 1 1 1 1 1 1 1 1 1 1 1 1 1 1 1 1 1 1 1 1 1 1 1 1 1 1 1
				</DataArray>
				<DataArray Name="F3" type="Float32" format="ascii">
 0 0 0 0 0 0 0 0 0 0 0 0 0 0 0 0 0 0 0 0 0 0 0 0 0 0 0 0 0 0 0 0 0 0 0 0 0 0 0 0 0 0 0 0 0 0 0 0 0 0 0 0 0 0 0 0 0 0 0 0 0 0 0 0 0 0 0 0 0 0 0 0 0 0 0 0 0 0 0 0 0 0 0 0 0 0 0 0 0 0 0 0 0 0 0 0 0 0 0 0 0 0 0 0 0 0 0 0 0 0 0 0 0 0 0 0 0 0 0 0 0 0 0 0 0 0 0 0 0 0 0 0 0 0 0 0 0 0 0 0 0 0 0 0 0 0 0 0 0 0 0 0 0 0 0 0 0 0 0 0 0 0 0 0 0 0 0 0 0 0 0 0 0 0 0 0 0 0 0 0 0 0 0 0 0 0 0 0 0 0 0 0 0 0 0 0 0 0 0 0 0 0 0 0 0 0 0 0 0 0 0 0 0 0 0 0 0 0 0 0 0 0 0 0 0 0 0 0 0 0 0 0 0 0 0 0 0 0 0 0 0 0 0 0 0 0 0 0 0 0 0 0 0 0 0 0 0 0 0 0 0 0 0 0 0 0 0 0 0 0 0 0 0 0 0 0 0 0 0 0 0 0 0 0 0 0 0 0 0 0 0 0 0 0 0 0 0 0 0 0 0 0 0 0 0 0 0 0 0 0 0 0 0 0 0 0 0 0 0 0 0 0 0 0 0 0 0 0 0 0 0 0 0 0 0 0 0 0 0 0 0 0 0 0 0 0 0 0 0 0 0 0 0 0 0 0 0 0 0 0 0 0 0 0 0 0 0 0 0 0 0 0 0 0 0 0 0 0 0 0 0 0 0 0 0 0 0 0 0 0 0 0 0 0 0 0 0 0 0 0 0 0 0 0 0 0 0 0 0 0 0 0 0 0 0 0 0 0 0 0 0 0 0 0 0 0 0 0 0 0 0 0 0 0 0 0 0 0 0 0 0 0 0 0 0 0 0 0 0 0 0 0 0 0 0 0 0 0 0 0 0 0 0 0 0 0 0 0 0 0 0 0 0 0 0 0 0 0 0 0 0 0 0 0 0 0 0 0 0 0 0 0 0 0 0 0 0 0 0 0 0 0 0 0 0 0 0 0 0 0 0 0 0 0 0 0 0 0 0 0 0 0 0 0 0 0 0 0 0 0 0 0 0 0 0 0 0 0 0 0 0 0 0 0 0 0 0 0 0 0 0 0 0 0 0 0 0 0 0 0 0 0 0 0 0 0 0 0 0 0 0 0 0 0 0 0 0 0 0 0 0 0 0 0 0 0 0 0 0 0 0 0 0 0 0 0 0 0 0 0 0 0 0 0 0 0 0 0 0 0 0 0 0 0 0 0 0 0 0 0 0 0 0 0 0 0 0 0 0 0 0 0 0 0 0 0 0 0 0 0 0 0 0 0 0 0 0 0 0 0 0 0 0 0 0 0 0 0 0 0 0 0 0 0 0 0 0 0 0 0 0 0 0 0 0 0 0 0 0 0 0 0 0 0 0 0 0 0 0 0 0 0 0 0 0 0 0 0 0 0 0 0 0 0 0 0 0 0 0 0 0 0 0 0 0 0 0 0 0 0 0 0 0 0 0 0 0 0 0 0 0 0 0 0 0 0 0 0 0 0 0 0 0 0 0 0 0 0 0 0 0 0 0 0 0 0 0 0 0 0 0 0 0 0 0 0 0 0 0 0 0 0 0 0 0 0 0 0 0 0 0 0 0 0 0 0 0 0 0 0 0 0 0 0 0 0 0 0 0 0 0 0 0 0 0 0 0 0 0 0 0 0 0 0 0 0 0 0 0 0 0 0 0 0 0 0 0 0 0 0 0 0 0 0 0 0 0 0 0 0 0 0 0 0 0 0 0 0 0 0 0 0 0 0 0 0 0 0 0 0 0 0 0 0 0 0 0 0 0 0 0 0 0 0 0 0 0 0 0 0 0 0 0 0 0 0 0 0 0 0 0 0 0 0 0 0 0 0 0 0 0 0 0 0 0 0 0 0 0 0 0 0 0 0 0 0 0 0 0 0 0 0 0 0 0 0 0 0 0 0 0 0 0 0 0 0 0 0 0 0 0 0 0 0 0 0 0 0 0 0 0 0 0 0 0 0 0 0 0 0 0 0 0 0 0 0 0 0 0 0 0 0 0 0 0 0 0 0 0 0 0 0 0 0 0 0 0 0 0 0 0 0 0 0 0 0 0 0 0 0
				</DataArray>
				<DataArray Name="Pressure" type="Float32" format="ascii">