<?xml version="1.0"?>
<VTKFile type="PolyData">
	<PolyData>
		<Piece NumberOfPoints="1206" NumberOfPolys="1000">
			<Points>
				<DataArray type="Float32" NumberOfComponents="3" format="ascii">
 0 0 0 0.005 0 0 0.01 0 0 0.015 0 0 0.02 0 0 0.025 0 0 0.03 0 0 0.035 0 0 0.04 0 0 0.045 0 0 0.05 0 0 0.055 0 0 0.06 0 0 0.065 0 0 0.07 0 0 0.075 0 0 0.08 0 0 0.085 0 0 0.09 0 0 0.095 0 0 0.1 0 0 0.105 0 0 0.11 0 0 0.115 0 0 0.12 0 0 0.125 0 0 0.13 0 0 0.135 0 0 0.14 0 0 0.145 0 0 0.15 0 0 0.155 0 0 0.16 0 0 0.165 0 0 0.17 0 0 0.175 0 0 0.18 0 0 0.185 0 0 0.19 0 0 0.195 0 0 0.2 0 0 0.205 0 0 0.21 0 0 0.215 0 0 0.22 0 0 0.225 0 0 0.23 0 0 0.235 0 0 0.24 0 0 0.245 0 0 0.25 0 0 0.255 0 0 0.26 0 0 0.265 0 0 0.27 0 0 0.275 0 0 0.28 0 0 0.285 0 0 0.29 0 0 0.295 0 0 0.3 0 0 0.305 0 0 0.31 0 0 0.315001 0 0 0.320001 0 0 0.325004 0 0 0.330009 0 0 0.335023 0 0 0.34005 0 0 0.345102 0 0 0.35019 0 0 0.355328 0 0 0.360534 0 0 0.365822 0 0 0.371212 0 0 0.376721 0 0 0.382365 0 0 0.388163 0 0 0.394134 0 0 0.400298 0 0 0.406673 0 0 0.413284 0 0 0.420153 0 0 0.427306 0 0 0.434773 0 0 0.442583 0 0 0.45077 0 0 0.459368 0 0 0.46841 0 0 0.477924 0 0 0.487928 0 0 0.498416 0 0 0.509353 0 0 0.520666 0 0 0.532259 0 0 0.544031 0 0 0.555906 0 0 0.567847 0 0 0.57986 0 0 0.592029 0 0 0.604837 0 0 0.607285 0 0 0.609688 0 0 0.612093 0 0 0.614498 0 0 0.616897 0 0 0.61929 0 0 0.621677 0 0 0.62406 0 0 0.626438 0 0 0.628809 0 0 0.631171 0 0 0.633541 0 0 0.635882 0 0 0.638228 0 0 0.640471 0 0 0.64262 0 0 0.644771 0 0 0.647052 0 0 0.649432 0 0 0.651832 0 0 0.654209 0 0 0.656569 0 0 0.658929 0 0 0.661291 0 0 0.663654 0 0 0.666014 0 0 0.668369 0 0 0.670722 0 0 0.673074 0 0 0.675429 0 0 0.677786 0 0 0.68014 0 0 0.682491 0 0 0.684842 0 0 0.687199 0 0 0.689573 0 0 0.691909 0 0 0.69428 0 0 0.69698 0 0 0.700494 0 0 0.705083 0 0 0.710013 0 0 0.715002 0 0 0.72 0 0 0.725 0 0 0.73 0 0 0.735 0 0 0.74 0 0 0.745 0 0 0.75 0 0 0.755 0 0 0.76 0 0 0.765 0 0 0.77 0 0 0.775 0 0 0.78 0 0 0.785 0 0 0.79 0 0 0.795 0 0 0.8 0 0 0.805 0 0 0.81 0 0 0.815 0 0 0.82 0 0 0.825 0 0 0.83 0 0 0.835 0 0 0.84 0 0 0.845 0 0 0.85 0 0 0.855 0 0 0.86 0 0 0.865 0 0 0.87 0 0 0.875 0 0 0.88 0 0 0.885 0 0 0.89 0 0 0.895 0 0 0.9 0 0 0.905 0 0 0.91 0 0 0.915 0 0 0.92 0 0 0.925 0 0 0.93 0 0 0.935 0 0 0.94 0 0 0.945 0 0 0.95 0 0 0.955 0 0 0.96 0 0 0.965 0 0 0.97 0 0 0.975 0 0 0.98 0 0 0.985 0 0 0.99 0 0 0.995 0 0 1 0 0 0 0.02 0 0.005 0.02 0 0.01 0.02 0 0.015 0.02 0 0.02 0.02 0 0.025 0.02 0 0.03 0.02 0 0.035 0.02 0 0.04 0.02 0 0.045 0.02 0 0.05 0.02 0 0.055 0.02 0 0.06 0.02 0 0.065 0.02 0 0.07 0.02 0 0.075 0.02 0 0.08 0.02 0 0.085 0.02 0 0.09 0.02 0 0.095 0.02 0 0.1 0.02 0 0.105 0.02 0 0.11 0.02 0 0.115 0.02 0 0.12 0.02 0 0.125 0.02 0 0.13 0.02 0 0.135 0.02 0 0.14 0.02 0 0.145 0.02 0 0.15 0.02 0 0.155 0.02 0 0.16 0.02 0 0.165 0.02 0 0.17 0.02 0 0.175 0.02 0 0.18 0.02 0 0.185 0.02 0 0.19 0.02 0 0.195 0.02 0 0.2 0.02 0 0.205 0.02 0 0.21 0.02 0 0.215 0.02 0 0.22 0.02 0 0.225 0.02 0 0.23 0.02 0 0.235 0.02 0 0.24 0.02 0 0.245 0.02 0 0.25 0.02 0 0.255 0.02 0 0.26 0.02 0 0.265 0.02 0 0.27 0.02 0 0.275 0.02 0 0.28 0.02 0 0.285 0.02 0 0.29 0.02 0 0.295 0.02 0 0.3 0.02 0 0.305 0.02 0 0.31 0.02 0 0.315001 0.02 0 0.320001 0.02 0 0.325004 0.02 0 0.330009 0.02 0 0.335023 0.02 0 0.34005 0.02 0 0.345102 0.02 0 0.35019 0.02 0 0.355328 0.02 0 0.360534 0.02 0 0.365822 0.02 0 0.371212 0.02 0 0.376721 0.02 0 0.382365 0.02 0 0.388163 0.02 0 0.394134 0.02 0 0.400298 0.02 0 0.406673 0.02 0 0.413284 0.02 0 0.420153 0.02 0 0.427306 0.02 0 0.434773 0.02 0 0.442583 0.02 0 0.45077 0.02 0 0.459368 0.02 0 0.46841 0.02 0 0.477924 0.02 0 0.487928 0.02 0 0.498416 0.02 0 0.509353 0.02 0 0.520666 0.02 0 0.532259 0.02 0 0.544031 0.02 0 0.555906 0.02 0 0.567847 0.02 0 0.57986 0.0199999 0 0.592028 0.02 0 0.604835 0.0199992 0 0.607282 0.0199987 0 0.609682 0.0199979 0 0.612088 0.0199962 0 0.614491 0.0199944 0 0.616888 0.0199937 0 0.619279 0.0199931 0 0.621665 0.0199931 0 0.624048 0.0199934 0 0.626429 0.0199956 0 0.628809 0.019999 0 0.631192 0.0200025 0 0.633562 0.0200052 0 0.635954 0.0200088 0 0.638338 0.0200073 0 0.640821 0.0200132 0 0.643391 0.0200089 0 0.64595 0.0199931 0 0.648379 0.0199845 0 0.650716 0.0199787 0 0.653035 0.0199809 0 0.655378 0.0199862 0 0.657734 0.0199952 0 0.660088 0.0199985 0 0.662439 0.0200008 0 0.664789 0.020003 0 0.667142 0.0200036 0 0.669498 0.0200051 0 0.671854 0.0200064 0 0.674212 0.0200058 0 0.676565 0.0200049 0 0.678916 0.0200049 0 0.681268 0.0200057 0 0.68362 0.0200059 0 0.685974 0.0200052 0 0.688334 0.0200036 0 0.690669 0.0200036 0 0.692965 0.020004 0 0.695172 0.0200025 0 0.697422 0.0200007 0 0.7005 0.02 0 0.705083 0.02 0 0.710013 0.02 0 0.715002 0.02 0 0.72 0.02 0 0.725 0.02 0 0.73 0.02 0 0.735 0.02 0 0.74 0.02 0 0.745 0.02 0 0.75 0.02 0 0.755 0.02 0 0.76 0.02 0 0.765 0.02 0 0.77 0.02 0 0.775 0.02 0 0.78 0.02 0 0.785 0.02 0 0.79 0.02 0 0.795 0.02 0 0.8 0.02 0 0.805 0.02 0 0.81 0.02 0 0.815 0.02 0 0.82 0.02 0 0.825 0.02 0 0.83 0.02 0 0.835 0.02 0 0.84 0.02 0 0.845 0.02 0 0.85 0.02 0 0.855 0.02 0 0.86 0.02 0 0.865 0.02 0 0.87 0.02 0 0.875 0.02 0 0.88 0.02 0 0.885 0.02 0 0.89 0.02 0 0.895 0.02 0 0.9 0.02 0 0.905 0.02 0 0.91 0.02 0 0.915 0.02 0 0.92 0.02 0 0.925 0.02 0 0.93 0.02 0 0.935 0.02 0 0.94 0.02 0 0.945 0.02 0 0.95 0.02 0 0.955 0.02 0 0.96 0.02 0 0.965 0.02 0 0.97 0.02 0 0.975 0.02 0 0.98 0.02 0 0.985 0.02 0 0.99 0.02 0 0.995 0.02 0 1 0.02 0 0 0.04 0 0.005 0.04 0 0.01 0.04 0 0.015 0.04 0 0.02 0.04 0 0.025 0.04 0 0.03 0.04 0 0.035 0.04 0 0.04 0.04 0 0.045 0.04 0 0.05 0.04 0 0.055 0.04 0 0.06 0.04 0 0.065 0.04 0 0.07 0.04 0 0.075 0.04 0 0.08 0.04 0 0.085 0.04 0 0.09 0.04 0 0.095 0.04 0 0.1 0.04 0 0.105 0.04 0 0.11 0.04 0 0.115 0.04 0 0.12 0.04 0 0.125 0.04 0 0.13 0.04 0 0.135 0.04 0 0.14 0.04 0 0.145 0.04 0 0.15 0.04 0 0.155 0.04 0 0.16 0.04 0 0.165 0.04 0 0.17 0.04 0 0.175 0.04 0 0.18 0.04 0 0.185 0.04 0 0.19 0.04 0 0.195 0.04 0 0.2 0.04 0 0.205 0.04 0 0.21 0.04 0 0.215 0.04 0 0.22 0.04 0 0.225 0.04 0 0.23 0.04 0 0.235 0.04 0 0.24 0.04 0 0.245 0.04 0 0.25 0.04 0 0.255 0.04 0 0.26 0.04 0 0.265 0.04 0 0.27 0.04 0 0.275 0.04 0 0.28 0.04 0 0.285 0.04 0 0.29 0.04 0 0.295 0.04 0 0.3 0.04 0 0.305 0.04 0 0.31 0.04 0 0.315001 0.04 0 0.320001 0.04 0 0.325004 0.04 0 0.330009 0.04 0 0.335023 0.04 0 0.34005 0.04 0 0.345102 0.04 0 0.35019 0.04 0 0.355328 0.04 0 0.360534 0.04 0 0.365822 0.04 0 0.371212 0.04 0 0.376721 0.04 0 0.382365 0.04 0 0.388163 0.04 0 0.394134 0.04 0 0.400298 0.04 0 0.406673 0.04 0 0.413284 0.04 0 0.420153 0.04 0 0.427306 0.04 0 0.434773 0.04 0 0.442583 0.04 0 0.45077 0.04 0 0.459368 0.04 0 0.46841 0.04 0 0.477924 0.04 0 0.487928 0.04 0 0.498416 0.04 0 0.509353 0.04 0 0.520666 0.04 0 0.532259 0.04 0 0.544031 0.04 0 0.555906 0.04 0 0.567847 0.04 0 0.57986 0.0399997 0 0.592028 0.0399998 0 0.604837 0.0399968 0 0.607285 0.039995 0 0.609689 0.0399947 0 0.612093 0.0399955 0 0.614495 0.0399957 0 0.616891 0.0399962 0 0.619278 0.0399965 0 0.621661 0.039996 0 0.624039 0.0399956 0 0.626414 0.0399952 0 0.628784 0.0399977 0 0.631148 0.0399978 0 0.633522 0.0400003 0 0.635869 0.0400043 0 0.638221 0.0400088 0 0.640466 0.040024 0 0.642613 0.0400261 0 0.644755 0.0400143 0 0.647023 0.0399945 0 0.649388 0.0399876 0 0.651775 0.0399874 0 0.65414 0.0399928 0 0.656492 0.0399964 0 0.658851 0.039997 0 0.661214 0.0399997 0 0.663579 0.0400012 0 0.665941 0.0400004 0 0.668299 0.040003 0 0.670655 0.040005 0 0.673009 0.040006 0 0.675367 0.0400058 0 0.677726 0.0400044 0 0.680084 0.0400029 0 0.682439 0.040001 0 0.684798 0.0399982 0 0.687162 0.0399963 0 0.689543 0.0399961 0 0.691878 0.0399961 0 0.694253 0.0399971 0 0.696965 0.0399989 0 0.700494 0.0399999 0 0.705084 0.04 0 0.710013 0.04 0 0.715002 0.04 0 0.72 0.04 0 0.725 0.04 0 0.73 0.04 0 0.735 0.04 0 0.74 0.04 0 0.745 0.04 0 0.75 0.04 0 0.755 0.04 0 0.76 0.04 0 0.765 0.04 0 0.77 0.04 0 0.775 0.04 0 0.78 0.04 0 0.785 0.04 0 0.79 0.04 0 0.795 0.04 0 0.8 0.04 0 0.805 0.04 0 0.81 0.04 0 0.815 0.04 0 0.82 0.04 0 0.825 0.04 0 0.83 0.04 0 0.835 0.04 0 0.84 0.04 0 0.845 0.04 0 0.85 0.04 0 0.855 0.04 0 0.86 0.04 0 0.865 0.04 0 0.87 0.04 0 0.875 0.04 0 0.88 0.04 0 0.885 0.04 0 0.89 0.04 0 0.895 0.04 0 0.9 0.04 0 0.905 0.04 0 0.91 0.04 0 0.915 0.04 0 0.92 0.04 0 0.925 0.04 0 0.93 0.04 0 0.935 0.04 0 0.94 0.04 0 0.945 0.04 0 0.95 0.04 0 0.955 0.04 0 0.96 0.04 0 0.965 0.04 0 0.97 0.04 0 0.975 0.04 0 0.98 0.04 0 0.985 0.04 0 0.99 0.04 0 0.995 0.04 0 1 0.04 0 0 0.06 0 0.005 0.06 0 0.01 0.06 0 0.015 0.06 0 0.02 0.06 0 0.025 0.06 0 0.03 0.06 0 0.035 0.06 0 0.04 0.06 0 0.045 0.06 0 0.05 0.06 0 0.055 0.06 0 0.06 0.06 0 0.065 0.06 0 0.07 0.06 0 0.075 0.06 0 0.08 0.06 0 0.085 0.06 0 0.09 0.06 0 0.095 0.06 0 0.1 0.06 0 0.105 0.06 0 0.11 0.06 0 0.115 0.06 0 0.12 0.06 0 0.125 0.06 0 0.13 0.06 0 0.135 0.06 0 0.14 0.06 0 0.145 0.06 0 0.15 0.06 0 0.155 0.06 0 0.16 0.06 0 0.165 0.06 0 0.17 0.06 0 0.175 0.06 0 0.18 0.06 0 0.185 0.06 0 0.19 0.06 0 0.195 0.06 0 0.2 0.06 0 0.205 0.06 0 0.21 0.06 0 0.215 0.06 0 0.22 0.06 0 0.225 0.06 0 0.23 0.06 0 0.235 0.06 0 0.24 0.06 0 0.245 0.06 0 0.25 0.06 0 0.255 0.06 0 0.26 0.06 0 0.265 0.06 0 0.27 0.06 0 0.275 0.06 0 0.28 0.06 0 0.285 0.06 0 0.29 0.06 0 0.295 0.06 0 0.3 0.06 0 0.305 0.06 0 0.31 0.06 0 0.315001 0.06 0 0.320001 0.06 0 0.325004 0.06 0 0.330009 0.06 0 0.335023 0.06 0 0.34005 0.06 0 0.345102 0.06 0 0.35019 0.06 0 0.355328 0.06 0 0.360534 0.06 0 0.365822 0.06 0 0.371212 0.06 0 0.376721 0.06 0 0.382365 0.06 0 0.388163 0.06 0 0.394134 0.06 0 0.400298 0.06 0 0.406673 0.06 0 0.413284 0.06 0 0.420153 0.06 0 0.427306 0.06 0 0.434773 0.06 0 0.442583 0.06 0 0.45077 0.06 0 0.459368 0.06 0 0.46841 0.06 0 0.477924 0.06 0 0.487928 0.06 0 0.498416 0.06 0 0.509353 0.06 0 0.520666 0.06 0 0.532259 0.06 0 0.544031 0.06 0 0.555906 0.06 0 0.567847 0.06 0 0.579859 0.0599998 0 0.592027 0.0599998 0 0.604832 0.0599973 0 0.607277 0.0599964 0 0.609675 0.0599963 0 0.612079 0.0599968 0 0.61448 0.0599981 0 0.616878 0.0599985 0 0.619269 0.0599984 0 0.621656 0.0599983 0 0.62404 0.0599972 0 0.626421 0.0599948 0 0.628803 0.0599906 0 0.63119 0.0599849 0 0.633565 0.0599804 0 0.635966 0.0599774 0 0.6
[...]
			<CellData Scalars="Density">
				<DataArray Name="Density" type="Float32" format="ascii">
 1 1 1 1 1 1 1 1 1 1 1 1 1 1 1 1 1 1 1 1 1 1 1 1 1 1 1 1 1 1 1 1 1 1 1 1 1 1 1 1 1 1 1 1 1 1 1 1 1 1 1 1 1 1 1 1 1 1 0.999999 0.999997 0.999991 0.999976 0.999935 0.999827 0.999549 0.998849 0.997334 0.994498 0.989798 0.982747 0.973044 0.96056 0.945373 0.92767 0.907728 0.885847 0.8623 0.837377 0.811276 0.784227 0.756383 0.727907 0.69895 0.669645 0.640173 0.610715 0.581537 0.55298 0.525527 0.499833 0.476736 0.457175 0.441936 0.431297 0.42474 0.421051 0.418726 0.416232 0.410894 0.390396 0.255385 0.260299 0.2599 0.260139 0.260778 0.261506 0.262021 0.262449 0.262842 0.263159 0.263402 0.263665 0.263858 0.264061 0.264203 0.264577 0.265365 0.26575 0.265512 0.26541 0.265347 0.26528 0.265249 0.265213 0.265182 0.265178 0.2652 0.265236 0.265285 0.265325 0.265353 0.265474 0.265604 0.265552 0.264895 0.265349 0.269732 0.272949 0.252458 0.189632 0.136272 0.126781 0.125279 0.125044 0.125007 0.125001 0.125 0.125 0.125 0.125 0.125 0.125 0.125 0.125 0.125 0.125 0.125 0.125 0.125 0.125 0.125 0.125 0.125 0.125 0.125 0.125 0.125 0.125 0.125 0.125 0.125 0.125 0.125 0.125 0.125 0.125 0.125 0.125 0.125 0.125 0.125 0.125 0.125 0.125 0.125 0.125 0.125 0.125 0.125 0.125 0.125 0.125 0.125 0.125 0.125 0.125 0.125 0.125 0.125 0.125 1 1 1 1 1 1 1 1 1 1 1 1 1 1 1 1 1 1 1 1 1 1 1 1 1 1 1 1 1 1 1 1 1 1 1 1 1 1 1 1 1 1 1 1 1 1 1 1 1 1 1 1 1 1 1 1 1 1 0.999999 0.999997 0.999991 0.999976 0.999935 0.999827 0.999549 0.998849 0.997334 0.994498 0.989798 0.982747 0.973044 0.96056 0.945373 0.92767 0.907728 0.885847 0.8623 0.837377 0.811276 0.784227 0.756383 0.727907 0.69895 0.669645 0.640173 0.610715 0.581537 0.55298 0.525527 0.499833 0.476736 0.457175 0.441936 0.431297 0.42474 0.421051 0.418727 0.416235 0.410902 0.390401 0.255403 0.260303 0.259901 0.260144 0.260776 0.261527 0.262024 0.262462 0.262848 0.263153 0.263397 0.263642 0.26388 0.26397 0.264255 0.264596 0.265295 0.265751 0.265586 0.26538 0.265363 0.26532 0.265246 0.265195 0.265159 0.265221 0.265215 0.265297 0.26531 0.265342 0.265339 0.2655 0.265617 0.265413 0.264782 0.265274 0.270155 0.272971 0.251984 0.189199 0.13627 0.126785 0.12528 0.125044 0.125007 0.125001 0.125 0.125 0.125 0.125 0.125 0.125 0.125 0.125 0.125 0.125 0.125 0.125 0.125 0.125 0.125 0.125 0.125 0.125 0.125 0.125 0.125 0.125 0.125 0.125 0.125 0.125 0.125 0.125 0.125 0.125 0.125 0.125 0.125 0.125 0.125 0.125 0.125 0.125 0.125 0.125 0.125 0.125 0.125 0.125 0.125 0.125 0.125 0.125 0.125 0.125 0.125 0.125 0.125 0.125 1 1 1 1 1 1 1 1 1 1 1 1 1 1 1 1 1 1 1 1 1 1 1 1 1 1 1 1 1 1 1 1 1 1 1 1 1 1 1 1 1 1 1 1 1 1 1 1 1 1 1 1 1 1 1 1 1 1 0.999999 0.999997 0.999991 0.999976 0.999935 0.999827 0.999549 0.998849 0.997334 0.994498 0.989798 0.982747 0.973044 0.96056 0.945373 0.92767 0.907728 0.885847 0.8623 0.837377 0.811276 0.784227 0.756383 0.727907 0.69895 0.669645 0.640173 0.610715 0.581537 0.55298 0.525527 0.499833 0.476736 0.457175 0.441936 0.431297 0.42474 0.421052 0.41873 0.416242 0.410918 0.39041 0.255404 0.260315 0.259916 0.260152 0.260759 0.261496 0.262004 0.262453 0.262825 0.263146 0.263404 0.263649 0.26389 0.264136 0.264316 0.264524 0.265301 0.2657 0.265433 0.265342 0.265331 0.265341 0.265239 0.265216 0.265204 0.265177 0.265267 0.265255 0.265349 0.265309 0.265448 0.265547 0.265542 0.26519 0.264397 0.265512 0.270078 0.273062 0.251825 0.189274 0.136313 0.126791 0.12528 0.125044 0.125007 0.125001 0.125 0.125 0.125 0.125 0.125 0.125 0.125 0.125 0.125 0.125 0.125 0.125 0.125 0.125 0.125 0.125 0.125 0.125 0.125 0.125 0.125 0.125 0.125 0.125 0.125 0.125 0.125 0.125 0.125 0.125 0.125 0.125 0.125 0.125 0.125 0.125 0.125 0.125 0.125 0.125 0.125 0.125 0.125 0.125 0.125 0.125 0.125 0.125 0.125 0.125 0.125 0.125 0.125 0.125 1 1 1 1 1 1 1 1 1 1 1 1 1 1 1 1 1 1 1 1 1 1 1 1 1 1 1 1 1 1 1 1 1 1 1 1 1 1 1 1 1 1 1 1 1 1 1 1 1 1 1 1 1 1 1 1 1 1 0.999999 0.999997 0.999991 0.999976 0.999935 0.999827 0.999549 0.998849 0.997334 0.994498 0.989798 0.982747 0.973044 0.96056 0.945373 0.92767 0.907728 0.885847 0.8623 0.837377 0.811276 0.784227 0.756383 0.727907 0.69895 0.669645 0.640173 0.610715 0.581537 0.55298 0.525527 0.499833 0.476736 0.457175 0.441936 0.431297 0.424741 0.421054 0.418732 0.416246 0.410926 0.39043 0.255413 0.260323 0.25991 0.260145 0.260776 0.261518 0.262025 0.262455 0.262845 0.263171 0.263406 0.26368 0.263922 0.263944 0.264305 0.264433 0.265319 0.265737 0.265544 0.265437 0.265397 0.265291 0.265262 0.265264 0.26524 0.265248 0.265285 0.265342 0.265365 0.265377 0.265486 0.265668 0.265708 0.265524 0.26456 0.265524 0.269752 0.272444 0.252066 0.190111 0.136364 0.126794 0.12528 0.125044 0.125007 0.125001 0.125 0.125 0.125 0.125 0.125 0.125 0.125 0.125 0.125 0.125 0.125 0.125 0.125 0.125 0.125 0.125 0.125 0.125 0.125 0.125 0.125 0.125 0.125 0.125 0.125 0.125 0.125 0.125 0.125 0.125 0.125 0.125 0.125 0.125 0.125 0.125 0.125 0.125 0.125 0.125 0.125 0.125 0.125 0.125 0.125 0.125 0.125 0.125 0.125 0.125 0.125 0.125 0.125 0.125 1 1 1 1 1 1 1 1 1 1 1 1 1 1 1 1 1 1 1 1 1 1 1 1 1 1 1 1 1 1 1 1 1 1 1 1 1 1 1 1 1 1 1 1 1 1 1 1 1 1 1 1 1 1 1 1 1 1 0.999999 0.999997 0.999991 0.999976 0.999935 0.999827 0.999549 0.998849 0.997334 0.994498 0.989798 0.982747 0.973044 0.96056 0.945373 0.92767 0.907728 0.885847 0.8623 0.837377 0.811276 0.784227 0.756383 0.727907 0.69895 0.669645 0.640173 0.610715 0.581537 0.55298 0.525527 0.499833 0.476736 0.457175 0.441936 0.431297 0.424742 0.421055 0.418732 0.416246 0.410916 0.390426 0.255411 0.260314 0.259909 0.260147 0.260767 0.261515 0.262024 0.262451 0.262853 0.263156 0.263396 0.263645 0.263879 0.264097 0.264209 0.264554 0.265186 0.265664 0.265501 0.265371 0.265323 0.265283 0.265257 0.265224 0.265225 0.265239 0.265271 0.265317 0.265365 0.265399 0.265451 0.265577 0.265649 0.26552 0.264723 0.26534 0.270039 0.272453 0.251 0.189293 0.136262 0.126789 0.12528 0.125044 0.125007 0.125001 0.125 0.125 0.125 0.125 0.125 0.125 0.125 0.125 0.125 0.125 0.125 0.125 0.125 0.125 0.125 0.125 0.125 0.125 0.125 0.125 0.125 0.125 0.125 0.125 0.125 0.125 0.125 0.125 0.125 0.125 0.125 0.125 0.125 0.125 0.125 0.125 0.125 0.125 0.125 0.125 0.125 0.125 0.125 0.125 0.125 0.125 0.125 0.125 0.125 0.125 0.125 0.125 0.125 0.125
				</DataArray>
				<DataArray Name="Energy" type="Float32" format="ascii">
 2.5 2.5 2.5 2.5 2.5 2.5 2.5 2.5 2.5 2.5 2.5 2.5 2.5 2.5 2.5 2.5 2.5 2.5 2.5 2.5 2.5 2.5 2.5 2.5 2.5 2.5 2.5 2.5 2.5 2.5 2.5 2.5 2.5 2.5 2.5 2.5 2.5 2.5 2.5 2.5 2.5 2.5 2.5 2.5 2.5 2.5 2.5 2.5 2.5 2.5 2.5 2.5 2.5 2.5 2.5 2.5 2.5 2.5 2.5 2.5 2.49999 2.49998 2.49993 2.49983 2.49955 2.49885 2.49733 2.4945 2.48978 2.4827 2.47292 2.46028 2.44479 2.42658 2.40586 2.38285 2.35775 2.33079 2.30209 2.27181 2.24006 2.20693 2.17251 2.1369 2.10024 2.0627 2.02456 1.98628 1.94852 1.91232 1.87911 1.85065 1.82867 1.81423 1.8072 1.80634 1.81038 1.81985 1.84333 1.94043 2.96631 2.91029 2.91486 2.91221 2.90531 2.89698 2.89136 2.88665 2.88229 2.87881 2.87599 2.87298 2.87044 2.86898 2.86656 2.86291 2.85444 2.85123 2.8536 2.85496 2.85514 2.85568 2.8563 2.85673 2.85704 2.85694 2.85685 2.85667 2.85637 2.85606 2.85625 2.85644 2.85665 2.85605 2.8527 2.85433 2.87313 2.88609 2.79404 2.44411 2.07602 2.01152 2.00179 2.00028 2.00004 2.00001 2 2 2 2 2 2 2 2 2 2 2 2 2 2 2 2 2 2 2 2 2 2 2 2 2 2 2 2 2 2 2 2 2 2 2 2 2 2 2 2 2 2 2 2 2 2 2 2 2 2 2 2 2 2 2.5 2.5 2.5 2.5 2.5 2.5 2.5 2.5 2.5 2.5 2.5 2.5 2.5 2.5 2.5 2.5 2.5 2.5 2.5 2.5 2.5 2.5 2.5 2.5 2.5 2.5 2.5 2.5 2.5 2.5 2.5 2.5 2.5 2.5 2.5 2.5 2.5 2.5 2.5 2.5 2.5 2.5 2.5 2.5 2.5 2.5 2.5 2.5 2.5 2.5 2.5 2.5 2.5 2.5 2.5 2.5 2.5 2.5 2.5 2.5 2.49999 2.49998 2.49993 2.49983 2.49955 2.49885 2.49733 2.4945 2.48978 2.4827 2.47292 2.46028 2.44479 2.42658 2.40586 2.38285 2.35775 2.33079 2.30209 2.27181 2.24006 2.20693 2.17251 2.1369 2.10024 2.0627 2.02456 1.98628 1.94852 1.91232 1.87911 1.85065 1.82867 1.81423 1.8072 1.80634 1.81038 1.81986 1.84335 1.94044 2.96639 2.9103 2.91486 2.91223 2.9053 2.89707 2.89137 2.88671 2.88231 2.87879 2.87597 2.87288 2.87054 2.86864 2.86694 2.86386 2.85492 2.85036 2.85287 2.85433 2.85514 2.85604 2.85633 2.8566 2.85683 2.85714 2.85693 2.85697 2.85654 2.85629 2.85624 2.85675 2.85691 2.85563 2.8524 2.85432 2.875 2.88651 2.7923 2.44161 2.076 2.01155 2.00179 2.00028 2.00004 2.00001 2 2 2 2 2 2 2 2 2 2 2 2 2 2 2 2 2 2 2 2 2 2 2 2 2 2 2 2 2 2 2 2 2 2 2 2 2 2 2 2 2 2 2 2 2 2 2 2 2 2 2 2 2 2 2.5 2.5 2.5 2.5 2.5 2.5 2.5 2.5 2.5 2.5 2.5 2.5 2.5 2.5 2.5 2.5 2.5 2.5 2.5 2.5 2.5 2.5 2.5 2.5 2.5 2.5 2.5 2.5 2.5 2.5 2.5 2.5 2.5 2.5 2.5 2.5 2.5 2.5 2.5 2.5 2.5 2.5 2.5 2.5 2.5 2.5 2.5 2.5 2.5 2.5 2.5 2.5 2.5 2.5 2.5 2.5 2.5 2.5 2.5 2.5 2.49999 2.49998 2.49993 2.49983 2.49955 2.49885 2.49733 2.4945 2.48978 2.4827 2.47292 2.46028 2.44479 2.42658 2.40586 2.38285 2.35775 2.33079 2.30209 2.27181 2.24006 2.20693 2.17251 2.1369 2.10024 2.0627 2.02456 1.98628 1.94852 1.91232 1.87911 1.85065 1.82867 1.81423 1.8072 1.80634 1.81038 1.81987 1.84338 1.94045 2.96639 2.91035 2.91493 2.91227 2.90523 2.89694 2.89129 2.88667 2.88221 2.87876 2.876 2.87292 2.87059 2.86932 2.86701 2.86339 2.85568 2.85171 2.85352 2.85488 2.85513 2.8558 2.85613 2.8566 2.85705 2.85692 2.85713 2.85678 2.85673 2.85622 2.85687 2.85707 2.85667 2.85476 2.85087 2.85555 2.87502 2.8871 2.7918 2.44203 2.07629 2.01159 2.0018 2.00028 2.00004 2.00001 2 2 2 2 2 2 2 2 2 2 2 2 2 2 2 2 2 2 2 2 2 2 2 2 2 2 2 2 2 2 2 2 2 2 2 2 2 2 2 2 2 2 2 2 2 2 2 2 2 2 2 2 2 2 2.5 2.5 2.5 2.5 2.5 2.5 2.5 2.5 2.5 2.5 2.5 2.5 2.5 2.5 2.5 2.5 2.5 2.5 2.5 2.5 2.5 2.5 2.5 2.5 2.5 2.5 2.5 2.5 2.5 2.5 2.5 2.5 2.5 2.5 2.5 2.5 2.5 2.5 2.5 2.5 2.5 2.5 2.5 2.5 2.5 2.5 2.5 2.5 2.5 2.5 2.5 2.5 2.5 2.5 2.5 2.5 2.5 2.5 2.5 2.5 2.49999 2.49998 2.49993 2.49983 2.49955 2.49885 2.49733 2.4945 2.48978 2.4827 2.47292 2.46028 2.44479 2.42658 2.40586 2.38285 2.35775 2.33079 2.30209 2.27181 2.24006 2.20693 2.17251 2.1369 2.10024 2.0627 2.02456 1.98628 1.94852 1.91232 1.87911 1.85065 1.82867 1.81423 1.8072 1.80634 1.81039 1.81988 1.84339 1.94049 2.96644 2.91039 2.9149 2.91223 2.9053 2.89704 2.89138 2.88668 2.8823 2.87887 2.876 2.87305 2.87073 2.86853 2.86714 2.86391 2.85638 2.8508 2.85268 2.85427 2.85479 2.85533 2.8558 2.85654 2.85671 2.85671 2.8567 2.85667 2.85634 2.85608 2.85643 2.85687 2.85672 2.85556 2.85094 2.85487 2.87276 2.88354 2.79204 2.44657 2.07665 2.0116 2.0018 2.00028 2.00004 2.00001 2 2 2 2 2 2 2 2 2 2 2 2 2 2 2 2 2 2 2 2 2 2 2 2 2 2 2 2 2 2 2 2 2 2 2 2 2 2 2 2 2 2 2 2 2 2 2 2 2 2 2 2 2 2 2.5 2.5 2.5 2.5 2.5 2.5 2.5 2.5 2.5 2.5 2.5 2.5 2.5 2.5 2.5 2.5 2.5 2.5 2.5 2.5 2.5 2.5 2.5 2.5 2.5 2.5 2.5 2.5 2.5 2.5 2.5 2.5 2.5 2.5 2.5 2.5 2.5 2.5 2.5 2.5 2.5 2.5 2.5 2.5 2.5 2.5 2.5 2.5 2.5 2.5 2.5 2.5 2.5 2.5 2.5 2.5 2.5 2.5 2.5 2.5 2.49999 2.49998 2.49993 2.49983 2.49955 2.49885 2.49733 2.4945 2.48978 2.4827 2.47292 2.46028 2.44479 2.42658 2.40586 2.38285 2.35775 2.33079 2.30209 2.27181 2.24006 2.20693 2.17251 2.1369 2.10024 2.0627 2.02456 1.98628 1.94852 1.91232 1.87911 1.85065 1.82867 1.81424 1.8072 1.80634 1.81039 1.81988 1.84337 1.94049 2.96642 2.91035 2.9149 2.91224 2.90526 2.89702 2.89137 2.88666 2.88233 2.8788 2.87596 2.8729 2.87055 2.86916 2.86656 2.86409 2.85585 2.85106 2.85315 2.8547 2.85516 2.85584 2.85622 2.85677 2.85717 2.85722 2.85719 2.8571 2.8569 2.8568 2.85688 2.85721 2.8572 2.85627 2.85244 2.85492 2.87485 2.88457 2.78789 2.44187 2.07591 2.01157 2.00179 2.00028 2.00004 2.00001 2 2 2 2 2 2 2 2 2 2 2 2 2 2 2 2 2 2 2 2 2 2 2 2 2 2 2 2 2 2 2 2 2 2 2 2 2 2 2 2 2 2 2 2 2 2 2 2 2 2 2 2 2 2
				</DataArray>
				<DataArray Name="F1" type="Float32" format="ascii">
 1 1 1 1 1 1 1 1 1 1 1 1 1 1 1 1 1 1 1 1 1 1 1 1 1 1 1 1 1 1 1 1 1 1 1 1 1 1 1 1 1 1 1 1 1 1 1 1 1 1 1 1 1 1 1 1 1 1 1 1 1 1 1 1 1 1 1 1 1 1 1 1 1 1 1 1 1 1 1 1 1 1 1 1 1 1 1 1 1 1 1 1 1 1 1 1 1 1 1 1 0 0 0 0 0 0 0 0 0 0 0 0 0 0 0 0 0 0 0 0 0 0 0 0 0 0 0 0 0 0 0 0 0 0 0 0 0 0 0 0 0 0 0 0 0 0 0 0 0 0 0 0 0 0 0 0 0 0 0 0 0 0 0 0 0 0 0 0 0 0 0 0 0 0 0 0 0 0 0 0 0 0 0 0 0 0 0 0 0 0 0 0 0 0 0 0 0 0 0 0 1 1 1 1 1 1 1 1 1 1 1 1 1 1 1 1 1 1 1 1 1 1 1 1 1 1 1 1 1 1 1 1 1 1 1 1 1 1 1 1 1 1 1 1 1 1 1 1 1 1 1 1 1 1 1 1 1 1 1 1 1 1 1 1 1 1 1 1 1 1 1 1 1 1 1 1 1 1 1 1 1 1 1 1 1 1 1 1 1 1 1 1 1 1 1 1 1 1 1 1 0 0 0 0 0 0 0 0 0 0 0 0 0 0 0 0 0 0 0 0 0 0 0 0 0 0 0 0 0 0 0 0 0 0 0 0 0 0 0 0 0 0 0 0 0 0 0 0 0 0 0 0 0 0 0 0 0 0 0 0 0 0 0 0 0 0 0 0 0 0 0 0 0 0 0 0 0 0 0 0 0 0 0 0 0 0 0 0 0 0 0 0 0 0 0 0 0 0 0 0 1 1 1 1 1 1 1 1 1 1 1 1 1 1 1 1 1 1 1 1 1 1 1 1 1 1 1 1 1 1 1 1 1 1 1 1 1 1 1 1 1 1 1 1 1 1 1 1 1 1 1 1 1 1 1 1 1 1 1 1 1 1 1 1 1 1 1 1 1 1 1 1 1 1 1 1 1 1 1 1 1 1 1 1 1 1 1 1 1 1 1 1 1 1 1 1 1 1 1 1 0 0 0 0 0 0 0 0 0 0 0 0 0 0 0 0 0 0 0 0 0 0 0 0 0 0 0 0 0 0 0 0 0 0 0 0 0 0 0 0 0 0 0 0 0 0 0 0 0 0 0 0 0 0 0 0 0 0 0 0 0 0 0 0 0 0 0 0 0 0 0 0 0 0 0 0 0 0 0 0 0 0 0 0 0 0 0 0 0 0 0 0 0 0 0 0 0 0 0 0 1 1 1 1 1 1 1 1 1 1 1 1 1 1 1 1 1 1 1 1 1 1 1 1 1 1 1 1 1 1 1 1 1 1 1 1 1 1 1 1 1 1 1 1 1 1 1 1 1 1 1 1 1 1 1 1 1 1 1 1 1 1 1 1 1 1 1 1 1 1 1 1 1 1 1 1 1 1 1 1 1 1 1 1 1 1 1 1 1 1 1 1 1 1 1 1 1 1 1 1 0 0 0 0 0 0 0 0 0 0 0 0 0 0 0 0 0 0 0 0 0 0 0 0 0 0 0 0 0 0 0 0 0 0 0 0 0 0 0 0 0 0 0 0 0 0 0 0 0 0 0 0 0 0 0 0 0 0 0 0 0 0 0 0 0 0 0 0 0 0 0 0 0 0 0 0 0 0 0 0 0 0 0 0 0 0 0 0 0 0 0 0 0 0 0 0 0 0 0 0 1 1 1 1 1 1 1 1 1 1 1 1 1 1 1 1 1 1 1 1 1 1 1 1 1 1 1 1 1 1 1 1 1 1 1 1 1 1 1 1 1 1 1 1 1 1 1 1 1 1 1 1 1 1 1 1 1 1 1 1 1 1 1 1 1 1 1 1 1 1 1 1 1 1 1 1 1 1 1 1 1 1 1 1 1 1 1 1 1 1 1 1 1 1 1 1 1 1 1 1 0 0 0 0 0 0 0 0 0 0 0 0 0 0 0 0 0 0 0 0 0 0 0 0 0 0 0 0 0 0 0 0 0 0 0 0 0 0 0 0 0 0 0 0 0 0 0 0 0 0 0 0 0 0 0 0 0 0 0 0 0 0 0 0 0 0 0 0 0 0 0 0 0 0 0 0 0 0 0 0 0 0 0 0 0 0 0 0 0 0 0 0 0 0 0 0 0 0 0 0
				</DataArray>
				<DataArray Name="F2" type="Float32" format="ascii">
 0 0 0 0 0 0 0 0 0 0 0 0 0 0 0 0 0 0 0 0 0 0 0 0 0 0 0 0 0 0 0 0 0 0 0 0 0 0 0 0 0 0 0 0 0 0 0 0 0 0 0 0 0 0 0 0 0 0 0 0 0 0 0 0 0 0 0 0 0 0 0 0 0 0 0 0 0 0 0 0 0 0 0 0 0 0 0 0 0 0 0 0 0 0 0 0 0 0 0 0 1 1 1 1 1 1 1 1 1 1 1 1 1 1 1 1 1 1 1 1 1 1 1 1 1 1 1 1 1 1 1 1 1 1 1 1 1 1 1 1 1 1 1 1 1 1 1 1 1 1 1 1 1 1 1 1 1 1 1 1 1 1 1 1 1 1 1 1 1 1 1 1 1 1 1 1 1 1 1 1 1 1 1 1 1 1 1 1 1 1 1 1 1 1 1 1 1 1 1 1 0 0 0 0 0 0 0 0 0 0 0 0 0 0 0 0 0 0 0 0 0 0 0 0 0 0 0 0 0 0 0 0 0 0 0 0 0 0 0 0 0 0 0 0 0 0 0 0 0 0 0 0 0 0 0 0 0 0 0 0 0 0 0 0 0 0 0 0 0 0 0 0 0 0 0 0 0 0 0 0 0 0 0 0 0 0 0 0 0 0 0 0 0 0 0 0 0 0 0 0 1 1 1 1 1 1 1 1 1 1 1 1 1 1 1 1 1 1 1 1 1 1 1 1 1 1 1 1 1 1 1 1 1 1 1 1 1 1 1 1 1 1 1 1 1 1 1 1 1 1 1 1 1 1 1 1 1 1 1 1 1 1 1 1 1 1 1 1 1 1 1 1 1 1 1 1 1 1 1 1 1 1 1 1 1 1 1 1 1 1 1 1 1 1 1 1 1 1 1 1 0 0 0 0 0 0 0 0 0 0 0 0 0 0 0 0 0 0 0 0 0 0 0 0 0 0 0 0 0 0 0 0 0 0 0 0 0 0 0 0 0 0 0 0 0 0 0 0 0 0 0 0 0 0 0 0 0 0 0 0 0 0 0 0 0 0 0 0 0 0 0 0 0 0 0 0 0 0 0 0 0 0 0 0 0 0 0 0 0 0 0 0 0 0 0 0 0 0 0 0 1 1 1 1 1 1 1 1 1 1 1 1 1 1 1 1 1 1 1 1 1 1 1 1 1 1 1 1 1 1 1 1 1 1 1 1 1 1 1 1 1 1 1 1 1 1 1 1 1 1 1 1 1 1 1 1 1 1 1 1 1 1 1 1 1 1 1 1 1 1 1 1 1 1 1 1 1 1 1 1 1 1 1 1 1 1 1 1 1 1 1 1 1 1 1 1 1 1 1 1 0 0 0 0 0 0 0 0 0 0 0 0 0 0 0 0 0 0 0 0 0 0 0 0 0 0 0 0 0 0 0 0 0 0 0 0 0 0 0 0 0 0 0 0 0 0 0 0 0 0 0 0 0 0 0 0 0 0 0 0 0 0 0 0 0 0 0 0 0 0 0 0 0 0 0 0 0 0 0 0 0 0 0 0 0 0 0 0 0 0 0 0 0 0 0 0 0 0 0 0 1 1 1 1 1 1 1 1 1 1 1 1 1 1 1 1 1 1 1 1 1 1 1 1 1 1 1 1 1 1 1 1 1 1 1 1 1 1 1 1 1 1 1 1 1 1 1 1 1 1 1 1 1 1 1 1 1 1 1 1 1 1 1 1 1 1 1 1 1 1 1 1 1 1 1 1 1 1 1 1 1 1 1 1 1 1 1 1 1 1 1 1 1 1 1 1 1 1 1 1 0 0 0 0 0 0 0 0 0 0 0 0 0 0 0 0 0 0 0 0 0 0 0 0 0 0 0 0 0 0 0 0 0 0 0 0 0 0 0 0 0 0 0 0 0 0 0 0 0 0 0 0 0 0 0 0 0 0 0 0 0 0 0 0 0 0 0 0 0 0 0 0 0 0 0 0 0 0 0 0 0 0 0 0 0 0 0 0 0 0 0 0 0 0 0 0 0 0 0 0 1 1 1 1 1 1 1 1 1 1 1 1 1 1 1 1 1 1 1 1 1 1 1 1 1 1 1 1 1 1 1 1 1 1 1 1 1 1 1 1 1 1 1 1 1 1 1 1 1 1 1 1 1 1 1 1 1 1 1 1 1 1 1 1 1 1 1 1 1 1 1 1 1 1 1 1 1 1 1 1 1 1 1 1 1 1 1 1 1 1 1 1 1 1 1 1 1 1 1 1
				</DataArray>
				<DataArray Name="F3" type="Float32" format="ascii">
 0 0 0 0 0 0 0 0 0 0 0 0 0 0 0 0 0 0 0 0 0 0 0 0 0 0 0 0 0 0 0 0 0 0 0 0 0 0 0 0 0 0 0 0 0 0 0 0 0 0 0 0 0 0 0 0 0 0 0 0 0 0 0 0 0 0 0 0 0 0 0 0 0 0 0 0 0 0 0 0 0 0 0 0 0 0 0 0 0 0 0 0 0 0 0 0 0 0 0 0 0 0 0 0 0 0 0 0 0 0 0 0 0 0 0 0 0 0 0 0 0 0 0 0 0 0 0 0 0 0 0 0 0 0 0 0 0 0 0 0 0 0 0 0 0 0 0 0 0 0 0 0 0 0 0 0 0 0 0 0 0 0 0 0 0 0 0 0 0 0 0 0 0 0 0 0 0 0 0 0 0 0 0 0 0 0 0 0 0 0 0 0 0 0 0 0 0 0 0 0 0 0 0 0 0 0 0 0 0 0 0 0 0 0 0 0 0 0 0 0 0 0 0 0 0 0 0 0 0 0 0 0 0 0 0 0 0 0 0 0 0 0 0 0 0 0 0 0 0 0 0 0 0 0 0 0 0 0 0 0 0 0 0 0 0 0 0 0 0 0 0 0 0 0 0 0 0 0 0 0 0 0 0 0 0 0 0 0 0 0 0 0 0 0 0 0 0 0 0 0 0 0 0 0 0 0 0 0 0 0 0 0 0 0 0 0 0 0 0 0 0 0 0 0 0 0 0 0 0 0 0 0 0 0 0 0 0 0 0 0 0 0 0 0 0 0 0 0 0 0 0 0 0 0 0 0 0 0 0 0 0 0 0 0 0 0 0 0 0 0 0 0 0 0 0 0 0 0 0 0 0 0 0 0 0 0 0 0 0 0 0 0 0 0 0 0 0 0 0 0 0 0 0 0 0 0 0 0 0 0 0 0 0 0 0 0 0 0 0 0 0 0 0 0 0 0 0 0 0 0 0 0 0 0 0 0 0 0 0 0 0 0 0 0 0 0 0 0 0 0 0 0 0 0 0 0 0 0 0 0 0 0 0 0 0 0 0 0 0 0 0 0 0 0 0 0 0 0 0 0 0 0 0 0 0 0 0 0 0 0 0 0 0 0 0 0 0 0 0 0 0 0 0 0 0 0 0 0 0 0 0 0 0 0 0 0 0 0 0 0 0 0 0 0 0 0 0 0 0 0 0 0 0 0 0 0 0 0 0 0 0 0 0 0 0 0 0 0 0 0 0 0 0 0 0 0 0 0 0 0 0 0 0 0 0 0 0 0 0 0 0 0 0 0 0 0 0 0 0 0 0 0 0 0 0 0 0 0 0 0 0 0 0 0 0 0 0 0 0 0 0 0 0 0 0 0 0 0 0 0 0 0 0 0 0 0 0 0 0 0 0 0 0 0 0 0 0 0 0 0 0 0 0 0 0 0 0 0 0 0 0 0 0 0 0 0 0 0 0 0 0 0 0 0 0 0 0 0 0 0 0 0 0 0 0 0 0 0 0 0 0 0 0 0 0 0 0 0 0 0 0 0 0 0 0 0 0 0 0 0 0 0 0 0 0 0 0 0 0 0 0 0 0 0 0 0 0 0 0 0 0 0 0 0 0 0 0 0 0 0 0 0 0 0 0 0 0 0 0 0 0 0 0 0 0 0 0 0 0 0 0 0 0 0 0 0 0 0 0 0 0 0 0 0 0 0 0 0 0 0 0 0 0 0 0 0 0 0 0 0 0 0 0 0 0 0 0 0 0 0 0 0 0 0 0 0 0 0 0 0 0 0 0 0 0 0 0 0 0 0 0 0 0 0 0 0 0 0 0 0 0 0 0 0 0 0 0 0 0 0 0 0 0 0 0 0 0 0 0 0 0 0 0 0 0 0 0 0 0 0 0 0 0 0 0 0 0 0 0 0 0 0 0 0 0 0 0 0 0 0 0 0 0 0 0 0 0 0 0 0 0 0 0 0 0 0 0 0 0 0 0 0 0 0 0 0 0 0 0 0 0 0 0 0 0 0 0 0 0 0 0 0 0 0 0 0 0 0 0 0 0 0 0 0 0 0 0 0 0 0 0 0 0 0 0 0 0 0 0 0 0 0 0 0 0 0 0 0 0 0 0 0 0 0 0 0 0 0 0 0 0 0 0 0 0 0 0 0 0 0 0 0 0 0 0 0 0 0 0 0 0 0 0 0 0 0 0 0 0 0 0 0 0 0 0 0 0 0 0 0 0 0 0 0 0 0 0 0 0 0
				</DataArray>
				<DataArray Name="Pressure" type="Float32" format="ascii">