<?xml version="1.0"?>
<VTKFile type="PolyData">
	<PolyData>
		<Piece NumberOfPoints="1206" NumberOfPolys="1000">
			<Points>
				<DataArray type="Float32" NumberOfComponents="3" format="ascii">
 0 0 0 0.005 0 0 0.01 0 0 0.015 0 0 0.02 0 0 0.025 0 0 0.03 0 0 0.035 0 0 0.04 0 0 0.045 0 0 0.05 0 0 0.055 0 0 0.06 0 0 0.065 0 0 0.07 0 0 0.075 0 0 0.08 0 0 0.085 0 0 0.09 0 0 0.095 0 0 0.1 0 0 0.105 0 0 0.11 0 0 0.115 0 0 0.12 0 0 0.125 0 0 0.13 0 0 0.135 0 0 0.14 0 0 0.145 0 0 0.15 0 0 0.155 0 0 0.16 0 0 0.165 0 0 0.17 0 0 0.175 0 0 0.18 0 0 0.185 0 0 0.19 0 0 0.195 0 0 0.2 0 0 0.205 0 0 0.21 0 0 0.215 0 0 0.22 0 0 0.225 0 0 0.23 0 0 0.235 0 0 0.24 0 0 0.245 0 0 0.25 0 0 0.255 0 0 0.26 0 0 0.265 0 0 0.27 0 0 0.275 0 0 0.28 0 0 0.285 0 0 0.29 0 0 0.295 0 0 0.3 0 0 0.305 0 0 0.31 0 0 0.315 0 0 0.32 0 0 0.325 0 0 0.33 0 0 0.335 0 0 0.34 0 0 0.345001 0 0 0.350002 0 0 0.355006 0 0 0.360015 0 0 0.365037 0 0 0.370083 0 0 0.375169 0 0 0.380312 0 0 0.385536 0 0 0.390862 0 0 0.396315 0 0 0.40192 0 0 0.407701 0 0 0.413687 0 0 0.419903 0 0 0.426382 0 0 0.433156 0 0 0.440261 0 0 0.447737 0 0 0.455628 0 0 0.463982 0 0 0.472844 0 0 0.482257 0 0 0.492245 0 0 0.502801 0 0 0.513867 0 0 0.525336 0 0 0.537075 0 0 0.548973 0 0 0.56098 0 0 0.573151 0 0 0.585959 0 0 0.588407 0 0 0.590809 0 0 0.593214 0 0 0.595618 0 0 0.598017 0 0 0.600409 0 0 0.602796 0 0 0.605178 0 0 0.607556 0 0 0.609926 0 0 0.612288 0 0 0.614657 0 0 0.617 0 0 0.619345 0 0 0.621588 0 0 0.623737 0 0 0.625887 0 0 0.628168 0 0 0.630547 0 0 0.632945 0 0 0.635318 0 0 0.637676 0 0 0.640033 0 0 0.642394 0 0 0.644755 0 0 0.647111 0 0 0.649466 0 0 0.651826 0 0 0.654198 0 0 0.656522 0 0 0.658931 0 0 0.661675 0 0 0.665382 0 0 0.670063 0 0 0.67501 0 0 0.680002 0 0 0.685 0 0 0.69 0 0 0.695 0 0 0.7 0 0 0.705 0 0 0.71 0 0 0.715 0 0 0.72 0 0 0.725 0 0 0.73 0 0 0.735 0 0 0.74 0 0 0.745 0 0 0.75 0 0 0.755 0 0 0.76 0 0 0.765 0 0 0.77 0 0 0.775 0 0 0.78 0 0 0.785 0 0 0.79 0 0 0.795 0 0 0.8 0 0 0.805 0 0 0.81 0 0 0.815 0 0 0.82 0 0 0.825 0 0 0.83 0 0 0.835 0 0 0.84 0 0 0.845 0 0 0.85 0 0 0.855 0 0 0.86 0 0 0.865 0 0 0.87 0 0 0.875 0 0 0.88 0 0 0.885 0 0 0.89 0 0 0.895 0 0 0.9 0 0 0.905 0 0 0.91 0 0 0.915 0 0 0.92 0 0 0.925 0 0 0.93 0 0 0.935 0 0 0.94 0 0 0.945 0 0 0.95 0 0 0.955 0 0 0.96 0 0 0.965 0 0 0.97 0 0 0.975 0 0 0.98 0 0 0.985 0 0 0.99 0 0 0.995 0 0 1 0 0 0 0.02 0 0.005 0.02 0 0.01 0.02 0 0.015 0.02 0 0.02 0.02 0 0.025 0.02 0 0.03 0.02 0 0.035 0.02 0 0.04 0.02 0 0.045 0.02 0 0.05 0.02 0 0.055 0.02 0 0.06 0.02 0 0.065 0.02 0 0.07 0.02 0 0.075 0.02 0 0.08 0.02 0 0.085 0.02 0 0.09 0.02 0 0.095 0.02 0 0.1 0.02 0 0.105 0.02 0 0.11 0.02 0 0.115 0.02 0 0.12 0.02 0 0.125 0.02 0 0.13 0.02 0 0.135 0.02 0 0.14 0.02 0 0.145 0.02 0 0.15 0.02 0 0.155 0.02 0 0.16 0.02 0 0.165 0.02 0 0.17 0.02 0 0.175 0.02 0 0.18 0.02 0 0.185 0.02 0 0.19 0.02 0 0.195 0.02 0 0.2 0.02 0 0.205 0.02 0 0.21 0.02 0 0.215 0.02 0 0.22 0.02 0 0.225 0.02 0 0.23 0.02 0 0.235 0.02 0 0.24 0.02 0 0.245 0.02 0 0.25 0.02 0 0.255 0.02 0 0.26 0.02 0 0.265 0.02 0 0.27 0.02 0 0.275 0.02 0 0.28 0.02 0 0.285 0.02 0 0.29 0.02 0 0.295 0.02 0 0.3 0.02 0 0.305 0.02 0 0.31 0.02 0 0.315 0.02 0 0.32 0.02 0 0.325 0.02 0 0.33 0.02 0 0.335 0.02 0 0.34 0.02 0 0.345001 0.02 0 0.350002 0.02 0 0.355006 0.02 0 0.360015 0.02 0 0.365037 0.02 0 0.370083 0.02 0 0.375169 0.02 0 0.380312 0.02 0 0.385536 0.02 0 0.390862 0.02 0 0.396315 0.02 0 0.40192 0.02 0 0.407701 0.02 0 0.413687 0.02 0 0.419903 0.02 0 0.426382 0.02 0 0.433156 0.02 0 0.440261 0.02 0 0.447737 0.02 0 0.455628 0.02 0 0.463982 0.02 0 0.472844 0.02 0 0.482257 0.02 0 0.492245 0.02 0 0.502801 0.02 0 0.513867 0.02 0 0.525336 0.02 0 0.537075 0.02 0 0.548973 0.02 0 0.56098 0.02 0 0.573151 0.02 0 0.585957 0.0199999 0 0.588404 0.0199998 0 0.590804 0.0199995 0 0.593209 0.0199992 0 0.595611 0.0199986 0 0.598008 0.019998 0 0.600398 0.0199975 0 0.602783 0.0199971 0 0.605166 0.0199971 0 0.607546 0.0199986 0 0.609926 0.0200004 0 0.612309 0.0200019 0 0.614679 0.020003 0 0.617071 0.0200054 0 0.619457 0.0200059 0 0.621939 0.0200132 0 0.624508 0.0200075 0 0.627068 0.0199927 0 0.629495 0.0199885 0 0.631829 0.0199858 0 0.634146 0.0199891 0 0.636485 0.019995 0 0.638839 0.0199992 0 0.641191 0.0200007 0 0.64354 0.0200018 0 0.645886 0.0200032 0 0.648234 0.0200035 0 0.650584 0.0200029 0 0.652941 0.0200022 0 0.655269 0.020002 0 0.657558 0.0200023 0 0.659743 0.0200013 0 0.662033 0.0200003 0 0.665382 0.02 0 0.670063 0.02 0 0.67501 0.02 0 0.680002 0.02 0 0.685 0.02 0 0.69 0.02 0 0.695 0.02 0 0.7 0.02 0 0.705 0.02 0 0.71 0.02 0 0.715 0.02 0 0.72 0.02 0 0.725 0.02 0 0.73 0.02 0 0.735 0.02 0 0.74 0.02 0 0.745 0.02 0 0.75 0.02 0 0.755 0.02 0 0.76 0.02 0 0.765 0.02 0 0.77 0.02 0 0.775 0.02 0 0.78 0.02 0 0.785 0.02 0 0.79 0.02 0 0.795 0.02 0 0.8 0.02 0 0.805 0.02 0 0.81 0.02 0 0.815 0.02 0 0.82 0.02 0 0.825 0.02 0 0.83 0.02 0 0.835 0.02 0 0.84 0.02 0 0.845 0.02 0 0.85 0.02 0 0.855 0.02 0 0.86 0.02 0 0.865 0.02 0 0.87 0.02 0 0.875 0.02 0 0.88 0.02 0 0.885 0.02 0 0.89 0.02 0 0.895 0.02 0 0.9 0.02 0 0.905 0.02 0 0.91 0.02 0 0.915 0.02 0 0.92 0.02 0 0.925 0.02 0 0.93 0.02 0 0.935 0.02 0 0.94 0.02 0 0.945 0.02 0 0.95 0.02 0 0.955 0.02 0 0.96 0.02 0 0.965 0.02 0 0.97 0.02 0 0.975 0.02 0 0.98 0.02 0 0.985 0.02 0 0.99 0.02 0 0.995 0.02 0 1 0.02 0 0 0.04 0 0.005 0.04 0 0.01 0.04 0 0.015 0.04 0 0.02 0.04 0 0.025 0.04 0 0.03 0.04 0 0.035 0.04 0 0.04 0.04 0 0.045 0.04 0 0.05 0.04 0 0.055 0.04 0 0.06 0.04 0 0.065 0.04 0 0.07 0.04 0 0.075 0.04 0 0.08 0.04 0 0.085 0.04 0 0.09 0.04 0 0.095 0.04 0 0.1 0.04 0 0.105 0.04 0 0.11 0.04 0 0.115 0.04 0 0.12 0.04 0 0.125 0.04 0 0.13 0.04 0 0.135 0.04 0 0.14 0.04 0 0.145 0.04 0 0.15 0.04 0 0.155 0.04 0 0.16 0.04 0 0.165 0.04 0 0.17 0.04 0 0.175 0.04 0 0.18 0.04 0 0.185 0.04 0 0.19 0.04 0 0.195 0.04 0 0.2 0.04 0 0.205 0.04 0 0.21 0.04 0 0.215 0.04 0 0.22 0.04 0 0.225 0.04 0 0.23 0.04 0 0.235 0.04 0 0.24 0.04 0 0.245 0.04 0 0.25 0.04 0 0.255 0.04 0 0.26 0.04 0 0.265 0.04 0 0.27 0.04 0 0.275 0.04 0 0.28 0.04 0 0.285 0.04 0 0.29 0.04 0 0.295 0.04 0 0.3 0.04 0 0.305 0.04 0 0.31 0.04 0 0.315 0.04 0 0.32 0.04 0 0.325 0.04 0 0.33 0.04 0 0.335 0.04 0 0.34 0.04 0 0.345001 0.04 0 0.350002 0.04 0 0.355006 0.04 0 0.360015 0.04 0 0.365037 0.04 0 0.370083 0.04 0 0.375169 0.04 0 0.380312 0.04 0 0.385536 0.04 0 0.390862 0.04 0 0.396315 0.04 0 0.40192 0.04 0 0.407701 0.04 0 0.413687 0.04 0 0.419903 0.04 0 0.426382 0.04 0 0.433156 0.04 0 0.440261 0.04 0 0.447737 0.04 0 0.455628 0.04 0 0.463982 0.04 0 0.472844 0.04 0 0.482257 0.04 0 0.492245 0.04 0 0.502801 0.04 0 0.513867 0.04 0 0.525336 0.04 0 0.537075 0.04 0 0.548973 0.04 0 0.56098 0.04 0 0.573151 0.0399998 0 0.585959 0.0399992 0 0.588407 0.0399986 0 0.59081 0.0399988 0 0.593215 0.0399994 0 0.595618 0.0399995 0 0.598015 0.0399994 0 0.600404 0.0399993 0 0.602789 0.039999 0 0.605169 0.0399987 0 0.607545 0.0399984 0 0.609915 0.0400006 0 0.612277 0.040001 0 0.614648 0.0400027 0 0.616993 0.0400037 0 0.619344 0.0400034 0 0.621592 0.0400158 0 0.623744 0.0400186 0 0.625887 0.0400096 0 0.628157 0.0399975 0 0.630524 0.0399945 0 0.632912 0.0399933 0 0.635279 0.0399948 0 0.637634 0.0399975 0 0.639994 0.0399983 0 0.642355 0.039999 0 0.644717 0.0399991 0 0.647077 0.0399978 0 0.649438 0.0399968 0 0.651804 0.0399964 0 0.65418 0.0399968 0 0.656503 0.0399971 0 0.658914 0.039998 0 0.661667 0.0399993 0 0.665383 0.0399999 0 0.670063 0.04 0 0.67501 0.04 0 0.680002 0.04 0 0.685 0.04 0 0.69 0.04 0 0.695 0.04 0 0.7 0.04 0 0.705 0.04 0 0.71 0.04 0 0.715 0.04 0 0.72 0.04 0 0.725 0.04 0 0.73 0.04 0 0.735 0.04 0 0.74 0.04 0 0.745 0.04 0 0.75 0.04 0 0.755 0.04 0 0.76 0.04 0 0.765 0.04 0 0.77 0.04 0 0.775 0.04 0 0.78 0.04 0 0.785 0.04 0 0.79 0.04 0 0.795 0.04 0 0.8 0.04 0 0.805 0.04 0 0.81 0.04 0 0.815 0.04 0 0.82 0.04 0 0.825 0.04 0 0.83 0.04 0 0.835 0.04 0 0.84 0.04 0 0.845 0.04 0 0.85 0.04 0 0.855 0.04 0 0.86 0.04 0 0.865 0.04 0 0.87 0.04 0 0.875 0.04 0 0.88 0.04 0 0.885 0.04 0 0.89 0.04 0 0.895 0.04 0 0.9 0.04 0 0.905 0.04 0 0.91 0.04 0 0.915 0.04 0 0.92 0.04 0 0.925 0.04 0 0.93 0.04 0 0.935 0.04 0 0.94 0.04 0 0.945 0.04 0 0.95 0.04 0 0.955 0.04 0 0.96 0.04 0 0.965 0.04 0 0.97 0.04 0 0.975 0.04 0 0.98 0.04 0 0.985 0.04 0 0.99 0.04 0 0.995 0.04 0 1 0.04 0 0 0.06 0 0.005 0.06 0 0.01 0.06 0 0.015 0.06 0 0.02 0.06 0 0.025 0.06 0 0.03 0.06 0 0.035 0.06 0 0.04 0.06 0 0.045 0.06 0 0.05 0.06 0 0.055 0.06 0 0.06 0.06 0 0.065 0.06 0 0.07 0.06 0 0.075 0.06 0 0.08 0.06 0 0.085 0.06 0 0.09 0.06 0 0.095 0.06 0 0.1 0.06 0 0.105 0.06 0 0.11 0.06 0 0.115 0.06 0 0.12 0.06 0 0.125 0.06 0 0.13 0.06 0 0.135 0.06 0 0.14 0.06 0 0.145 0.06 0 0.15 0.06 0 0.155 0.06 0 0.16 0.06 0 0.165 0.06 0 0.17 0.06 0 0.175 0.06 0 0.18 0.06 0 0.185 0.06 0 0.19 0.06 0 0.195 0.06 0 0.2 0.06 0 0.205 0.06 0 0.21 0.06 0 0.215 0.06 0 0.22 0.06 0 0.225 0.06 0 0.23 0.06 0 0.235 0.06 0 0.24 0.06 0 0.245 0.06 0 0.25 0.06 0 0.255 0.06 0 0.26 0.06 0 0.265 0.06 0 0.27 0.06 0 0.275 0.06 0 0.28 0.06 0 0.285 0.06 0 0.29 0.06 0 0.295 0.06 0 0.3 0.06 0 0.305 0.06 0 0.31 0.06 0 0.315 0.06 0 0.32 0.06 0 0.325 0.06 0 0.33 0.06 0 0.335 0.06 0 0.34 0.06 0 0.345001 0.06 0 0.350002 0.06 0 0.355006 0.06 0 0.360015 0.06 0 0.365037 0.06 0 0.370083 0.06 0 0.375169 0.06 0 0.380312 0.06 0 0.385536 0.06 0 0.390862 0.06 0 0.396315 0.06 0 0.40192 0.06 0 0.407701 0.06 0 0.413687 0.06 0 0.419903 0.06 0 0.426382 0.06 0 0.433156 0.06 0 0.440261 0.06 0 0.447737 0.06 0 0.455628 0.06 0 0.463982 0.06 0 0.472844 0.06 0 0.482257 0.06 0 0.492245 0.06 0 0.502801 0.06 0 0.513867 0.06 0 0.525336 0.06 0 0.537075 0.06 0 0.548973 0.06 0 0.56098 0.06 0 0.57315 0.0599999 0 0.585956 0.0599994 0 0.588402 0.0599989 0 0.590801 0.059999 0 0.593206 0.0599991 0 0.595608 0.0599994 0 0.598005 0.0599994 0 0.600396 0.0599992 0 0.602782 0.0599989 0 0.605166 0.0599982 0 0.607546 0.0599968 0 0.609927 0.0599949 0 0.612314 0.0599924 0 0.614688 0.059991 0 0.617087 0.0599875 0 0.619475 0.0599903 0 0.621963 0.0600141 0 0.624534 0.0600192 0 0.627103 0.0600073 0 0.629538 0.0599976 0 0.631877 0.0599998 0 0.634195 0.0600067 0 0.636532 0.0600056 0 0.638881 0.0600042 0 0.641227 0.060004 0 0.643571 0.060005 0 0.
[...]
			<CellData Scalars="Density">
				<DataArray Name="Density" type="Float32" format="ascii">
 1 1 1 1 1 1 1 1 1 1 1 1 1 1 1 1 1 1 1 1 1 1 1 1 1 1 1 1 1 1 1 1 1 1 1 1 1 1 1 1 1 1 1 1 1 1 1 1 1 1 1 1 1 1 1 1 1 1 1 1 1 1 1 1 0.999999 0.999996 0.999988 0.999964 0.9999 0.999727 0.999277 0.998127 0.995578 0.990864 0.983216 0.972084 0.957244 0.938757 0.916914 0.89211 0.864809 0.835378 0.80428 0.771742 0.738169 0.703738 0.668793 0.633601 0.598558 0.564181 0.531186 0.50059 0.473681 0.451831 0.435966 0.425921 0.420217 0.416435 0.410829 0.390396 0.25541 0.260305 0.259878 0.260105 0.260721 0.261472 0.261981 0.262417 0.262804 0.263137 0.263387 0.263684 0.26389 0.264084 0.264256 0.264636 0.265422 0.265793 0.265562 0.265452 0.265479 0.265413 0.265374 0.265371 0.265515 0.265655 0.265584 0.264941 0.26587 0.270969 0.272017 0.248286 0.177142 0.133529 0.126337 0.125208 0.125032 0.125005 0.125001 0.125 0.125 0.125 0.125 0.125 0.125 0.125 0.125 0.125 0.125 0.125 0.125 0.125 0.125 0.125 0.125 0.125 0.125 0.125 0.125 0.125 0.125 0.125 0.125 0.125 0.125 0.125 0.125 0.125 0.125 0.125 0.125 0.125 0.125 0.125 0.125 0.125 0.125 0.125 0.125 0.125 0.125 0.125 0.125 0.125 0.125 0.125 0.125 0.125 0.125 0.125 0.125 0.125 0.125 0.125 0.125 0.125 0.125 0.125 0.125 0.125 1 1 1 1 1 1 1 1 1 1 1 1 1 1 1 1 1 1 1 1 1 1 1 1 1 1 1 1 1 1 1 1 1 1 1 1 1 1 1 1 1 1 1 1 1 1 1 1 1 1 1 1 1 1 1 1 1 1 1 1 1 1 1 1 0.999999 0.999996 0.999988 0.999964 0.9999 0.999727 0.999277 0.998127 0.995578 0.990864 0.983216 0.972084 0.957244 0.938757 0.916914 0.89211 0.864809 0.835378 0.80428 0.771742 0.738169 0.703738 0.668793 0.633601 0.598558 0.564181 0.531186 0.50059 0.473681 0.451831 0.435966 0.425921 0.420218 0.416436 0.410831 0.390393 0.25541 0.260307 0.25989 0.260116 0.260741 0.26148 0.261999 0.262407 0.262821 0.26312 0.263427 0.263668 0.263933 0.263972 0.264271 0.264557 0.265406 0.265777 0.265605 0.265522 0.265564 0.265461 0.265329 0.265453 0.265627 0.265664 0.26548 0.264849 0.265869 0.271209 0.272059 0.247905 0.176937 0.133534 0.12634 0.125209 0.125032 0.125005 0.125001 0.125 0.125 0.125 0.125 0.125 0.125 0.125 0.125 0.125 0.125 0.125 0.125 0.125 0.125 0.125 0.125 0.125 0.125 0.125 0.125 0.125 0.125 0.125 0.125 0.125 0.125 0.125 0.125 0.125 0.125 0.125 0.125 0.125 0.125 0.125 0.125 0.125 0.125 0.125 0.125 0.125 0.125 0.125 0.125 0.125 0.125 0.125 0.125 0.125 0.125 0.125 0.125 0.125 0.125 0.125 0.125 0.125 0.125 0.125 0.125 0.125 1 1 1 1 1 1 1 1 1 1 1 1 1 1 1 1 1 1 1 1 1 1 1 1 1 1 1 1 1 1 1 1 1 1 1 1 1 1 1 1 1 1 1 1 1 1 1 1 1 1 1 1 1 1 1 1 1 1 1 1 1 1 1 1 0.999999 0.999996 0.999988 0.999964 0.9999 0.999727 0.999277 0.998127 0.995578 0.990864 0.983216 0.972084 0.957244 0.938757 0.916914 0.89211 0.864809 0.835378 0.80428 0.771742 0.738169 0.703738 0.668793 0.633601 0.598558 0.564181 0.531186 0.50059 0.473681 0.451831 0.435966 0.425921 0.420219 0.416438 0.410834 0.390397 0.255417 0.260314 0.259905 0.260131 0.26075 0.2615 0.261999 0.262446 0.262826 0.263179 0.263416 0.263728 0.263888 0.264184 0.264149 0.264653 0.265277 0.265748 0.265513 0.265396 0.2654 0.265443 0.265416 0.265484 0.265591 0.265617 0.265284 0.264641 0.265997 0.271134 0.272059 0.247783 0.177017 0.13356 0.126343 0.125209 0.125032 0.125005 0.125001 0.125 0.125 0.125 0.125 0.125 0.125 0.125 0.125 0.125 0.125 0.125 0.125 0.125 0.125 0.125 0.125 0.125 0.125 0.125 0.125 0.125 0.125 0.125 0.125 0.125 0.125 0.125 0.125 0.125 0.125 0.125 0.125 0.125 0.125 0.125 0.125 0.125 0.125 0.125 0.125 0.125 0.125 0.125 0.125 0.125 0.125 0.125 0.125 0.125 0.125 0.125 0.125 0.125 0.125 0.125 0.125 0.125 0.125 0.125 0.125 0.125 1 1 1 1 1 1 1 1 1 1 1 1 1 1 1 1 1 1 1 1 1 1 1 1 1 1 1 1 1 1 1 1 1 1 1 1 1 1 1 1 1 1 1 1 1 1 1 1 1 1 1 1 1 1 1 1 1 1 1 1 1 1 1 1 0.999999 0.999996 0.999988 0.999964 0.9999 0.999727 0.999277 0.998127 0.995578 0.990864 0.983216 0.972084 0.957244 0.938757 0.916914 0.89211 0.864809 0.835378 0.80428 0.771742 0.738169 0.703738 0.668793 0.633601 0.598558 0.564181 0.531186 0.50059 0.473681 0.451831 0.435966 0.425921 0.42022 0.416441 0.410836 0.390403 0.255419 0.26032 0.259903 0.260137 0.260762 0.261502 0.262008 0.262446 0.26283 0.263166 0.263396 0.263716 0.263937 0.264048 0.264242 0.264519 0.265278 0.265772 0.265715 0.265521 0.265545 0.265505 0.265515 0.265496 0.265659 0.265786 0.265502 0.264765 0.266033 0.270828 0.271749 0.248112 0.177448 0.133583 0.126344 0.125209 0.125032 0.125005 0.125001 0.125 0.125 0.125 0.125 0.125 0.125 0.125 0.125 0.125 0.125 0.125 0.125 0.125 0.125 0.125 0.125 0.125 0.125 0.125 0.125 0.125 0.125 0.125 0.125 0.125 0.125 0.125 0.125 0.125 0.125 0.125 0.125 0.125 0.125 0.125 0.125 0.125 0.125 0.125 0.125 0.125 0.125 0.125 0.125 0.125 0.125 0.125 0.125 0.125 0.125 0.125 0.125 0.125 0.125 0.125 0.125 0.125 0.125 0.125 0.125 0.125 1 1 1 1 1 1 1 1 1 1 1 1 1 1 1 1 1 1 1 1 1 1 1 1 1 1 1 1 1 1 1 1 1 1 1 1 1 1 1 1 1 1 1 1 1 1 1 1 1 1 1 1 1 1 1 1 1 1 1 1 1 1 1 1 0.999999 0.999996 0.999988 0.999964 0.9999 0.999727 0.999277 0.998127 0.995578 0.990864 0.983216 0.972084 0.957244 0.938757 0.916914 0.89211 0.864809 0.835378 0.80428 0.771742 0.738169 0.703738 0.668793 0.633601 0.598558 0.564181 0.531186 0.50059 0.473681 0.451831 0.435966 0.425921 0.420221 0.416441 0.410834 0.390387 0.255418 0.260322 0.259911 0.260143 0.260768 0.261512 0.262027 0.262444 0.262849 0.263153 0.26342 0.263686 0.263902 0.264064 0.264279 0.264568 0.265321 0.265809 0.265593 0.265507 0.265498 0.265453 0.265432 0.265477 0.265606 0.265673 0.265532 0.264801 0.265948 0.27104 0.27175 0.247396 0.176968 0.133545 0.126342 0.125209 0.125032 0.125005 0.125001 0.125 0.125 0.125 0.125 0.125 0.125 0.125 0.125 0.125 0.125 0.125 0.125 0.125 0.125 0.125 0.125 0.125 0.125 0.125 0.125 0.125 0.125 0.125 0.125 0.125 0.125 0.125 0.125 0.125 0.125 0.125 0.125 0.125 0.125 0.125 0.125 0.125 0.125 0.125 0.125 0.125 0.125 0.125 0.125 0.125 0.125 0.125 0.125 0.125 0.125 0.125 0.125 0.125 0.125 0.125 0.125 0.125 0.125 0.125 0.125 0.125
				</DataArray>
				<DataArray Name="Energy" type="Float32" format="ascii">
 2.5 2.5 2.5 2.5 2.5 2.5 2.5 2.5 2.5 2.5 2.5 2.5 2.5 2.5 2.5 2.5 2.5 2.5 2.5 2.5 2.5 2.5 2.5 2.5 2.5 2.5 2.5 2.5 2.5 2.5 2.5 2.5 2.5 2.5 2.5 2.5 2.5 2.5 2.5 2.5 2.5 2.5 2.5 2.5 2.5 2.5 2.5 2.5 2.5 2.5 2.5 2.5 2.5 2.5 2.5 2.5 2.5 2.5 2.5 2.5 2.5 2.5 2.5 2.5 2.5 2.5 2.49999 2.49996 2.4999 2.49973 2.49928 2.49813 2.49558 2.49086 2.48318 2.47197 2.45694 2.43806 2.41553 2.38963 2.36069 2.32896 2.2948 2.2583 2.21979 2.17932 2.13719 2.09359 2.04892 2.00381 1.95924 1.91678 1.87865 1.84755 1.82588 1.8146 1.81294 1.82021 1.84322 1.94043 2.96642 2.91031 2.91476 2.91205 2.90506 2.89683 2.89119 2.88651 2.88212 2.87872 2.87592 2.87307 2.87058 2.86908 2.86679 2.86316 2.85469 2.85142 2.85382 2.85514 2.8557 2.85626 2.85683 2.85741 2.85847 2.859 2.8585 2.85539 2.85888 2.87998 2.88404 2.77446 2.36578 2.05697 2.00863 2.00134 2.00021 2.00003 2.00001 2 2 2 2 2 2 2 2 2 2 2 2 2 2 2 2 2 2 2 2 2 2 2 2 2 2 2 2 2 2 2 2 2 2 2 2 2 2 2 2 2 2 2 2 2 2 2 2 2 2 2 2 2 2 2 2 2 2 2 2 2 2.5 2.5 2.5 2.5 2.5 2.5 2.5 2.5 2.5 2.5 2.5 2.5 2.5 2.5 2.5 2.5 2.5 2.5 2.5 2.5 2.5 2.5 2.5 2.5 2.5 2.5 2.5 2.5 2.5 2.5 2.5 2.5 2.5 2.5 2.5 2.5 2.5 2.5 2.5 2.5 2.5 2.5 2.5 2.5 2.5 2.5 2.5 2.5 2.5 2.5 2.5 2.5 2.5 2.5 2.5 2.5 2.5 2.5 2.5 2.5 2.5 2.5 2.5 2.5 2.5 2.5 2.49999 2.49996 2.4999 2.49973 2.49928 2.49813 2.49558 2.49086 2.48318 2.47197 2.45694 2.43806 2.41553 2.38963 2.36069 2.32896 2.2948 2.2583 2.21979 2.17932 2.13719 2.09359 2.04892 2.00381 1.95924 1.91678 1.87865 1.84755 1.82588 1.8146 1.81295 1.82021 1.84322 1.94042 2.96642 2.91032 2.91481 2.9121 2.90515 2.89687 2.89126 2.88647 2.88219 2.87864 2.8761 2.873 2.87077 2.86866 2.86701 2.86369 2.8554 2.85047 2.85296 2.85494 2.85601 2.85665 2.85669 2.85771 2.85885 2.85905 2.85807 2.85503 2.85895 2.88115 2.88426 2.77295 2.36447 2.057 2.00865 2.00134 2.00021 2.00003 2.00001 2 2 2 2 2 2 2 2 2 2 2 2 2 2 2 2 2 2 2 2 2 2 2 2 2 2 2 2 2 2 2 2 2 2 2 2 2 2 2 2 2 2 2 2 2 2 2 2 2 2 2 2 2 2 2 2 2 2 2 2 2 2.5 2.5 2.5 2.5 2.5 2.5 2.5 2.5 2.5 2.5 2.5 2.5 2.5 2.5 2.5 2.5 2.5 2.5 2.5 2.5 2.5 2.5 2.5 2.5 2.5 2.5 2.5 2.5 2.5 2.5 2.5 2.5 2.5 2.5 2.5 2.5 2.5 2.5 2.5 2.5 2.5 2.5 2.5 2.5 2.5 2.5 2.5 2.5 2.5 2.5 2.5 2.5 2.5 2.5 2.5 2.5 2.5 2.5 2.5 2.5 2.5 2.5 2.5 2.5 2.5 2.5 2.49999 2.49996 2.4999 2.49973 2.49928 2.49813 2.49558 2.49086 2.48318 2.47197 2.45694 2.43806 2.41553 2.38963 2.36069 2.32896 2.2948 2.2583 2.21979 2.17932 2.13719 2.09359 2.04892 2.00381 1.95924 1.91678 1.87865 1.84755 1.82588 1.8146 1.81295 1.82021 1.84323 1.94043 2.96645 2.91035 2.91488 2.91217 2.90519 2.89696 2.89126 2.88664 2.88222 2.8789 2.87605 2.87326 2.87058 2.86953 2.86628 2.86395 2.85558 2.85191 2.85386 2.85511 2.85543 2.85624 2.85689 2.85776 2.85871 2.85882 2.8572 2.85412 2.85952 2.88091 2.88444 2.77256 2.36496 2.05718 2.00867 2.00134 2.00021 2.00003 2.00001 2 2 2 2 2 2 2 2 2 2 2 2 2 2 2 2 2 2 2 2 2 2 2 2 2 2 2 2 2 2 2 2 2 2 2 2 2 2 2 2 2 2 2 2 2 2 2 2 2 2 2 2 2 2 2 2 2 2 2 2 2 2.5 2.5 2.5 2.5 2.5 2.5 2.5 2.5 2.5 2.5 2.5 2.5 2.5 2.5 2.5 2.5 2.5 2.5 2.5 2.5 2.5 2.5 2.5 2.5 2.5 2.5 2.5 2.5 2.5 2.5 2.5 2.5 2.5 2.5 2.5 2.5 2.5 2.5 2.5 2.5 2.5 2.5 2.5 2.5 2.5 2.5 2.5 2.5 2.5 2.5 2.5 2.5 2.5 2.5 2.5 2.5 2.5 2.5 2.5 2.5 2.5 2.5 2.5 2.5 2.5 2.5 2.49999 2.49996 2.4999 2.49973 2.49928 2.49813 2.49558 2.49086 2.48318 2.47197 2.45694 2.43806 2.41553 2.38963 2.36069 2.32896 2.2948 2.2583 2.21979 2.17932 2.13719 2.09359 2.04892 2.00381 1.95924 1.91678 1.87865 1.84755 1.82588 1.8146 1.81295 1.82022 1.84323 1.94044 2.96646 2.91038 2.91487 2.9122 2.90524 2.89696 2.89131 2.88664 2.88223 2.87884 2.87596 2.87321 2.87079 2.86899 2.86686 2.86428 2.8562 2.85095 2.85342 2.85463 2.85542 2.85625 2.85689 2.85754 2.85852 2.85903 2.85763 2.85418 2.85921 2.87917 2.88256 2.77341 2.36756 2.05734 2.00867 2.00134 2.00021 2.00003 2.00001 2 2 2 2 2 2 2 2 2 2 2 2 2 2 2 2 2 2 2 2 2 2 2 2 2 2 2 2 2 2 2 2 2 2 2 2 2 2 2 2 2 2 2 2 2 2 2 2 2 2 2 2 2 2 2 2 2 2 2 2 2 2.5 2.5 2.5 2.5 2.5 2.5 2.5 2.5 2.5 2.5 2.5 2.5 2.5 2.5 2.5 2.5 2.5 2.5 2.5 2.5 2.5 2.5 2.5 2.5 2.5 2.5 2.5 2.5 2.5 2.5 2.5 2.5 2.5 2.5 2.5 2.5 2.5 2.5 2.5 2.5 2.5 2.5 2.5 2.5 2.5 2.5 2.5 2.5 2.5 2.5 2.5 2.5 2.5 2.5 2.5 2.5 2.5 2.5 2.5 2.5 2.5 2.5 2.5 2.5 2.5 2.5 2.49999 2.49996 2.4999 2.49973 2.49928 2.49813 2.49558 2.49086 2.48318 2.47197 2.45694 2.43806 2.41553 2.38963 2.36069 2.32896 2.2948 2.2583 2.21979 2.17932 2.13719 2.09359 2.04892 2.00381 1.95924 1.91678 1.87865 1.84755 1.82588 1.8146 1.81295 1.82022 1.84323 1.94041 2.96646 2.91039 2.91491 2.91222 2.90527 2.89701 2.89139 2.88663 2.88232 2.87879 2.87607 2.87308 2.87065 2.86902 2.86686 2.86416 2.85643 2.85168 2.85354 2.85528 2.85591 2.85657 2.85697 2.85786 2.85881 2.85909 2.85831 2.85487 2.8594 2.8807 2.88313 2.77044 2.36461 2.05708 2.00866 2.00134 2.00021 2.00003 2.00001 2 2 2 2 2 2 2 2 2 2 2 2 2 2 2 2 2 2 2 2 2 2 2 2 2 2 2 2 2 2 2 2 2 2 2 2 2 2 2 2 2 2 2 2 2 2 2 2 2 2 2 2 2 2 2 2 2 2 2 2 2
				</DataArray>
				<DataArray Name="F1" type="Float32" format="ascii">
 1 1 1 1 1 1 1 1 1 1 1 1 1 1 1 1 1 1 1 1 1 1 1 1 1 1 1 1 1 1 1 1 1 1 1 1 1 1 1 1 1 1 1 1 1 1 1 1 1 1 1 1 1 1 1 1 1 1 1 1 1 1 1 1 1 1 1 1 1 1 1 1 1 1 1 1 1 1 1 1 1 1 1 1 1 1 1 1 1 1 1 1 1 1 1 1 1 1 1 1 0 0 0 0 0 0 0 0 0 0 0 0 0 0 0 0 0 0 0 0 0 0 0 0 0 0 0 0 0 0 0 0 0 0 0 0 0 0 0 0 0 0 0 0 0 0 0 0 0 0 0 0 0 0 0 0 0 0 0 0 0 0 0 0 0 0 0 0 0 0 0 0 0 0 0 0 0 0 0 0 0 0 0 0 0 0 0 0 0 0 0 0 0 0 0 0 0 0 0 0 1 1 1 1 1 1 1 1 1 1 1 1 1 1 1 1 1 1 1 1 1 1 1 1 1 1 1 1 1 1 1 1 1 1 1 1 1 1 1 1 1 1 1 1 1 1 1 1 1 1 1 1 1 1 1 1 1 1 1 1 1 1 1 1 1 1 1 1 1 1 1 1 1 1 1 1 1 1 1 1 1 1 1 1 1 1 1 1 1 1 1 1 1 1 1 1 1 1 1 1 0 0 0 0 0 0 0 0 0 0 0 0 0 0 0 0 0 0 0 0 0 0 0 0 0 0 0 0 0 0 0 0 0 0 0 0 0 0 0 0 0 0 0 0 0 0 0 0 0 0 0 0 0 0 0 0 0 0 0 0 0 0 0 0 0 0 0 0 0 0 0 0 0 0 0 0 0 0 0 0 0 0 0 0 0 0 0 0 0 0 0 0 0 0 0 0 0 0 0 0 1 1 1 1 1 1 1 1 1 1 1 1 1 1 1 1 1 1 1 1 1 1 1 1 1 1 1 1 1 1 1 1 1 1 1 1 1 1 1 1 1 1 1 1 1 1 1 1 1 1 1 1 1 1 1 1 1 1 1 1 1 1 1 1 1 1 1 1 1 1 1 1 1 1 1 1 1 1 1 1 1 1 1 1 1 1 1 1 1 1 1 1 1 1 1 1 1 1 1 1 0 0 0 0 0 0 0 0 0 0 0 0 0 0 0 0 0 0 0 0 0 0 0 0 0 0 0 0 0 0 0 0 0 0 0 0 0 0 0 0 0 0 0 0 0 0 0 0 0 0 0 0 0 0 0 0 0 0 0 0 0 0 0 0 0 0 0 0 0 0 0 0 0 0 0 0 0 0 0 0 0 0 0 0 0 0 0 0 0 0 0 0 0 0 0 0 0 0 0 0 1 1 1 1 1 1 1 1 1 1 1 1 1 1 1 1 1 1 1 1 1 1 1 1 1 1 1 1 1 1 1 1 1 1 1 1 1 1 1 1 1 1 1 1 1 1 1 1 1 1 1 1 1 1 1 1 1 1 1 1 1 1 1 1 1 1 1 1 1 1 1 1 1 1 1 1 1 1 1 1 1 1 1 1 1 1 1 1 1 1 1 1 1 1 1 1 1 1 1 1 0 0 0 0 0 0 0 0 0 0 0 0 0 0 0 0 0 0 0 0 0 0 0 0 0 0 0 0 0 0 0 0 0 0 0 0 0 0 0 0 0 0 0 0 0 0 0 0 0 0 0 0 0 0 0 0 0 0 0 0 0 0 0 0 0 0 0 0 0 0 0 0 0 0 0 0 0 0 0 0 0 0 0 0 0 0 0 0 0 0 0 0 0 0 0 0 0 0 0 0 1 1 1 1 1 1 1 1 1 1 1 1 1 1 1 1 1 1 1 1 1 1 1 1 1 1 1 1 1 1 1 1 1 1 1 1 1 1 1 1 1 1 1 1 1 1 1 1 1 1 1 1 1 1 1 1 1 1 1 1 1 1 1 1 1 1 1 1 1 1 1 1 1 1 1 1 1 1 1 1 1 1 1 1 1 1 1 1 1 1 1 1 1 1 1 1 1 1 1 1 0 0 0 0 0 0 0 0 0 0 0 0 0 0 0 0 0 0 0 0 0 0 0 0 0 0 0 0 0 0 0 0 0 0 0 0 0 0 0 0 0 0 0 0 0 0 0 0 0 0 0 0 0 0 0 0 0 0 0 0 0 0 0 0 0 0 0 0 0 0 0 0 0 0 0 0 0 0 0 0 0 0 0 0 0 0 0 0 0 0 0 0 0 0 0 0 0 0 0 0
				</DataArray>
				<DataArray Name="F2" type="Float32" format="ascii">
 0 0 0 0 0 0 0 0 0 0 0 0 0 0 0 0 0 0 0 0 0 0 0 0 0 0 0 0 0 0 0 0 0 0 0 0 0 0 0 0 0 0 0 0 0 0 0 0 0 0 0 0 0 0 0 0 0 0 0 0 0 0 0 0 0 0 0 0 0 0 0 0 0 0 0 0 0 0 0 0 0 0 0 0 0 0 0 0 0 0 0 0 0 0 0 0 0 0 0 0 1 1 1 1 1 1 1 1 1 1 1 1 1 1 1 1 1 1 1 1 1 1 1 1 1 1 1 1 1 1 1 1 1 1 1 1 1 1 1 1 1 1 1 1 1 1 1 1 1 1 1 1 1 1 1 1 1 1 1 1 1 1 1 1 1 1 1 1 1 1 1 1 1 1 1 1 1 1 1 1 1 1 1 1 1 1 1 1 1 1 1 1 1 1 1 1 1 1 1 1 0 0 0 0 0 0 0 0 0 0 0 0 0 0 0 0 0 0 0 0 0 0 0 0 0 0 0 0 0 0 0 0 0 0 0 0 0 0 0 0 0 0 0 0 0 0 0 0 0 0 0 0 0 0 0 0 0 0 0 0 0 0 0 0 0 0 0 0 0 0 0 0 0 0 0 0 0 0 0 0 0 0 0 0 0 0 0 0 0 0 0 0 0 0 0 0 0 0 0 0 1 1 1 1 1 1 1 1 1 1 1 1 1 1 1 1 1 1 1 1 1 1 1 1 1 1 1 1 1 1 1 1 1 1 1 1 1 1 1 1 1 1 1 1 1 1 1 1 1 1 1 1 1 1 1 1 1 1 1 1 1 1 1 1 1 1 1 1 1 1 1 1 1 1 1 1 1 1 1 1 1 1 1 1 1 1 1 1 1 1 1 1 1 1 1 1 1 1 1 1 0 0 0 0 0 0 0 0 0 0 0 0 0 0 0 0 0 0 0 0 0 0 0 0 0 0 0 0 0 0 0 0 0 0 0 0 0 0 0 0 0 0 0 0 0 0 0 0 0 0 0 0 0 0 0 0 0 0 0 0 0 0 0 0 0 0 0 0 0 0 0 0 0 0 0 0 0 0 0 0 0 0 0 0 0 0 0 0 0 0 0 0 0 0 0 0 0 0 0 0 1 1 1 1 1 1 1 1 1 1 1 1 1 1 1 1 1 1 1 1 1 1 1 1 1 1 1 1 1 1 1 1 1 1 1 1 1 1 1 1 1 1 1 1 1 1 1 1 1 1 1 1 1 1 1 1 1 1 1 1 1 1 1 1 1 1 1 1 1 1 1 1 1 1 1 1 1 1 1 1 1 1 1 1 1 1 1 1 1 1 1 1 1 1 1 1 1 1 1 1 0 0 0 0 0 0 0 0 0 0 0 0 0 0 0 0 0 0 0 0 0 0 0 0 0 0 0 0 0 0 0 0 0 0 0 0 0 0 0 0 0 0 0 0 0 0 0 0 0 0 0 0 0 0 0 0 0 0 0 0 0 0 0 0 0 0 0 0 0 0 0 0 0 0 0 0 0 0 0 0 0 0 0 0 0 0 0 0 0 0 0 0 0 0 0 0 0 0 0 0 1 1 1 1 1 1 1 1 1 1 1 1 1 1 1 1 1 1 1 1 1 1 1 1 1 1 1 1 1 1 1 1 1 1 1 1 1 1 1 1 1 1 1 1 1 1 1 1 1 1 1 1 1 1 1 1 1 1 1 1 1 1 1 1 1 1 1 1 1 1 1 1 1 1 1 1 1 1 1 1 1 1 1 1 1 1 1 1 1 1 1 1 1 1 1 1 1 1 1 1 0 0 0 0 0 0 0 0 0 0 0 0 0 0 0 0 0 0 0 0 0 0 0 0 0 0 0 0 0 0 0 0 0 0 0 0 0 0 0 0 0 0 0 0 0 0 0 0 0 0 0 0 0 0 0 0 0 0 0 0 0 0 0 0 0 0 0 0 0 0 0 0 0 0 0 0 0 0 0 0 0 0 0 0 0 0 0 0 0 0 0 0 0 0 0 0 0 0 0 0 1 1 1 1 1 1 1 1 1 1 1 1 1 1 1 1 1 1 1 1 1 1 1 1 1 1 1 1 1 1 1 1 1 1 1 1 1 1 1 1 1 1 1 1 1 1 1 1 1 1 1 1 1 1 1 1 1 1 1 1 1 1 1 1 1 1 1 1 1 1 1 1 1 1 1 1 1 1 1 1 1 1 1 1 1 1 1 1 1 1 1 1 1 1 1 1 1 1 1 1
				</DataArray>
				<DataArray Name="F3" type="Float32" format="ascii">
 0 0 0 0 0 0 0 0 0 0 0 0 0 0 0 0 0 0 0 0 0 0 0 0 0 0 0 0 0 0 0 0 0 0 0 0 0 0 0 0 0 0 0 0 0 0 0 0 0 0 0 0 0 0 0 0 0 0 0 0 0 0 0 0 0 0 0 0 0 0 0 0 0 0 0 0 0 0 0 0 0 0 0 0 0 0 0 0 0 0 0 0 0 0 0 0 0 0 0 0 0 0 0 0 0 0 0 0 0 0 0 0 0 0 0 0 0 0 0 0 0 0 0 0 0 0 0 0 0 0 0 0 0 0 0 0 0 0 0 0 0 0 0 0 0 0 0 0 0 0 0 0 0 0 0 0 0 0 0 0 0 0 0 0 0 0 0 0 0 0 0 0 0 0 0 0 0 0 0 0 0 0 0 0 0 0 0 0 0 0 0 0 0 0 0 0 0 0 0 0 0 0 0 0 0 0 0 0 0 0 0 0 0 0 0 0 0 0 0 0 0 0 0 0 0 0 0 0 0 0 0 0 0 0 0 0 0 0 0 0 0 0 0 0 0 0 0 0 0 0 0 0 0 0 0 0 0 0 0 0 0 0 0 0 0 0 0 0 0 0 0 0 0 0 0 0 0 0 0 0 0 0 0 0 0 0 0 0 0 0 0 0 0 0 0 0 0 0 0 0 0 0 0 0 0 0 0 0 0 0 0 0 0 0 0 0 0 0 0 0 0 0 0 0 0 0 0 0 0 0 0 0 0 0 0 0 0 0 0 0 0 0 0 0 0 0 0 0 0 0 0 0 0 0 0 0 0 0 0 0 0 0 0 0 0 0 0 0 0 0 0 0 0 0 0 0 0 0 0 0 0 0 0 0 0 0 0 0 0 0 0 0 0 0 0 0 0 0 0 0 0 0 0 0 0 0 0 0 0 0 0 0 0 0 0 0 0 0 0 0 0 0 0 0 0 0 0 0 0 0 0 0 0 0 0 0 0 0 0 0 0 0 0 0 0 0 0 0 0 0 0 0 0 0 0 0 0 0 0 0 0 0 0 0 0 0 0 0 0 0 0 0 0 0 0 0 0 0 0 0 0 0 0 0 0 0 0 0 0 0 0 0 0 0 0 0 0 0 0 0 0 0 0 0 0 0 0 0 0 0 0 0 0 0 0 0 0 0 0 0 0 0 0 0 0 0 0 0 0 0 0 0 0 0 0 0 0 0 0 0 0 0 0 0 0 0 0 0 0 0 0 0 0 0 0 0 0 0 0 0 0 0 0 0 0 0 0 0 0 0 0 0 0 0 0 0 0 0 0 0 0 0 0 0 0 0 0 0 0 0 0 0 0 0 0 0 0 0 0 0 0 0 0 0 0 0 0 0 0 0 0 0 0 0 0 0 0 0 0 0 0 0 0 0 0 0 0 0 0 0 0 0 0 0 0 0 0 0 0 0 0 0 0 0 0 0 0 0 0 0 0 0 0 0 0 0 0 0 0 0 0 0 0 0 0 0 0 0 0 0 0 0 0 0 0 0 0 0 0 0 0 0 0 0 0 0 0 0 0 0 0 0 0 0 0 0 0 0 0 0 0 0 0 0 0 0 0 0 0 0 0 0 0 0 0 0 0 0 0 0 0 0 0 0 0 0 0 0 0 0 0 0 0 0 0 0 0 0 0 0 0 0 0 0 0 0 0 0 0 0 0 0 0 0 0 0 0 0 0 0 0 0 0 0 0 0 0 0 0 0 0 0 0 0 0 0 0 0 0 0 0 0 0 0 0 0 0 0 0 0 0 0 0 0 0 0 0 0 0 0 0 0 0 0 0 0 0 0 0 0 0 0 0 0 0 0 0 0 0 0 0 0 0 0 0 0 0 0 0 0 0 0 0 0 0 0 0 0 0 0 0 0 0 0 0 0 0 0 0 0 0 0 0 0 0 0 0 0 0 0 0 0 0 0 0 0 0 0 0 0 0 0 0 0 0 0 0 0 0 0 0 0 0 0 0 0 0 0 0 0 0 0 0 0 0 0 0 0 0 0 0 0 0 0 0 0 0 0 0 0 0 0 0 0 0 0 0 0 0 0 0 0 0 0 0 0 0 0 0 0 0 0 0 0 0 0 0 0 0 0 0 0 0 0 0 0 0 0 0 0 0 0 0 0 0 0 0 0 0 0 0 0 0 0 0 0 0 0 0 0 0 0 0 0 0 0 0 0 0 0 0 0 0 0 0 0 0 0 0 0 0 0 0 0 0 0 0 0 0 0
				</DataArray>
				<DataArray Name="Pressure" type="Float32" format="ascii">