<?xml version="1.0"?>
<VTKFile type="PolyData">
	<PolyData>
		<Piece NumberOfPoints="1206" NumberOfPolys="1000">
			<Points>
				<DataArray type="Float32" NumberOfComponents="3" format="ascii">
 0 0 0 0.005 0 0 0.01 0 0 0.015 0 0 0.02 0 0 0.025 0 0 0.03 0 0 0.035 0 0 0.04 0 0 0.045 0 0 0.05 0 0 0.055 0 0 0.06 0 0 0.065 0 0 0.07 0 0 0.075 0 0 0.08 0 0 0.085 0 0 0.09 0 0 0.095 0 0 0.1 0 0 0.105 0 0 0.11 0 0 0.115 0 0 0.12 0 0 0.125 0 0 0.13 0 0 0.135 0 0 0.14 0 0 0.145 0 0 0.15 0 0 0.155 0 0 0.16 0 0 0.165 0 0 0.17 0 0 0.175 0 0 0.18 0 0 0.185 0 0 0.19 0 0 0.195 0 0 0.2 0 0 0.205 0 0 0.21 0 0 0.215 0 0 0.220001 0 0 0.225002 0 0 0.230004 0 0 0.235009 0 0 0.240019 0 0 0.245037 0 0 0.250066 0 0 0.255113 0 0 0.260184 0 0 0.265285 0 0 0.270424 0 0 0.275608 0 0 0.280846 0 0 0.286145 0 0 0.291513 0 0 0.296957 0 0 0.302485 0 0 0.308105 0 0 0.313823 0 0 0.319646 0 0 0.325583 0 0 0.331641 0 0 0.337828 0 0 0.344152 0 0 0.350621 0 0 0.357246 0 0 0.364034 0 0 0.370997 0 0 0.378145 0 0 0.38549 0 0 0.393044 0 0 0.40082 0 0 0.408831 0 0 0.417093 0 0 0.42562 0 0 0.434428 0 0 0.44353 0 0 0.452941 0 0 0.462672 0 0 0.472728 0 0 0.483111 0 0 0.493809 0 0 0.5048 0 0 0.516048 0 0 0.527506 0 0 0.539119 0 0 0.550837 0 0 0.562621 0 0 0.574443 0 0 0.586288 0 0 0.598151 0 0 0.610034 0 0 0.621943 0 0 0.63389 0 0 0.645902 0 0 0.658069 0 0 0.670876 0 0 0.673315 0 0 0.675715 0 0 0.678121 0 0 0.680533 0 0 0.68294 0 0 0.685347 0 0 0.687743 0 0 0.690134 0 0 0.692513 0 0 0.694882 0 0 0.697241 0 0 0.699608 0 0 0.701948 0 0 0.704293 0 0 0.706535 0 0 0.708683 0 0 0.710834 0 0 0.713117 0 0 0.715502 0 0 0.717907 0 0 0.720292 0 0 0.722658 0 0 0.725026 0 0 0.727392 0 0 0.729759 0 0 0.732122 0 0 0.734479 0 0 0.736832 0 0 0.739183 0 0 0.74154 0 0 0.743896 0 0 0.746251 0 0 0.748603 0 0 0.750954 0 0 0.753303 0 0 0.755656 0 0 0.758011 0 0 0.760364 0 0 0.762714 0 0 0.765062 0 0 0.767409 0 0 0.76976 0 0 0.772113 0 0 0.774464 0 0 0.776814 0 0 0.77916 0 0 0.781506 0 0 0.783854 0 0 0.786205 0 0 0.788556 0 0 0.790907 0 0 0.793254 0 0 0.795602 0 0 0.797949 0 0 0.800299 0 0 0.802649 0 0 0.804999 0 0 0.807348 0 0 0.809694 0 0 0.812049 0 0 0.814421 0 0 0.816754 0 0 0.81913 0 0 0.82186 0 0 0.825471 0 0 0.83008 0 0 0.835013 0 0 0.840002 0 0 0.845 0 0 0.85 0 0 0.855 0 0 0.86 0 0 0.865 0 0 0.87 0 0 0.875 0 0 0.88 0 0 0.885 0 0 0.89 0 0 0.895 0 0 0.9 0 0 0.905 0 0 0.91 0 0 0.915 0 0 0.92 0 0 0.925 0 0 0.93 0 0 0.935 0 0 0.94 0 0 0.945 0 0 0.95 0 0 0.955 0 0 0.96 0 0 0.965 0 0 0.97 0 0 0.975 0 0 0.98 0 0 0.985 0 0 0.99 0 0 0.995 0 0 1 0 0 0 0.02 0 0.005 0.02 0 0.01 0.02 0 0.015 0.02 0 0.02 0.02 0 0.025 0.02 0 0.03 0.02 0 0.035 0.02 0 0.04 0.02 0 0.045 0.02 0 0.05 0.02 0 0.055 0.02 0 0.06 0.02 0 0.065 0.02 0 0.07 0.02 0 0.075 0.02 0 0.08 0.02 0 0.085 0.02 0 0.09 0.02 0 0.095 0.02 0 0.1 0.02 0 0.105 0.02 0 0.11 0.02 0 0.115 0.02 0 0.12 0.02 0 0.125 0.02 0 0.13 0.02 0 0.135 0.02 0 0.14 0.02 0 0.145 0.02 0 0.15 0.02 0 0.155 0.02 0 0.16 0.02 0 0.165 0.02 0 0.17 0.02 0 0.175 0.02 0 0.18 0.02 0 0.185 0.02 0 0.19 0.02 0 0.195 0.02 0 0.2 0.02 0 0.205 0.02 0 0.21 0.02 0 0.215 0.02 0 0.220001 0.02 0 0.225002 0.02 0 0.230004 0.02 0 0.235009 0.02 0 0.240019 0.02 0 0.245037 0.02 0 0.250066 0.02 0 0.255113 0.02 0 0.260184 0.02 0 0.265285 0.02 0 0.270424 0.02 0 0.275608 0.02 0 0.280846 0.02 0 0.286145 0.02 0 0.291513 0.02 0 0.296957 0.02 0 0.302485 0.02 0 0.308105 0.02 0 0.313823 0.02 0 0.319646 0.02 0 0.325583 0.02 0 0.331641 0.02 0 0.337828 0.02 0 0.344152 0.02 0 0.350621 0.02 0 0.357246 0.02 0 0.364034 0.02 0 0.370997 0.02 0 0.378145 0.02 0 0.38549 0.02 0 0.393044 0.02 0 0.40082 0.02 0 0.408831 0.02 0 0.417093 0.02 0 0.42562 0.02 0 0.434428 0.02 0 0.44353 0.02 0 0.452941 0.02 0 0.462672 0.02 0 0.472728 0.02 0 0.483111 0.02 0 0.493809 0.02 0 0.5048 0.02 0 0.516048 0.02 0 0.527506 0.02 0 0.539119 0.02 0 0.550837 0.02 0 0.562621 0.02 0 0.574443 0.02 0 0.586288 0.02 0 0.598151 0.0199999 0 0.610034 0.0199998 0 0.621943 0.0199994 0 0.633889 0.0199988 0 0.645901 0.0199977 0 0.658067 0.0199971 0 0.670875 0.0199874 0 0.673339 0.0199764 0 0.675755 0.019971 0 0.678171 0.0199702 0 0.680579 0.0199709 0 0.682978 0.0199722 0 0.685365 0.0199755 0 0.687748 0.0199811 0 0.690127 0.0199898 0 0.692506 0.02 0 0.694884 0.0200089 0 0.697264 0.0200137 0 0.699631 0.0200125 0 0.70202 0.0200143 0 0.704403 0.0200101 0 0.706884 0.0200138 0 0.709454 0.0200101 0 0.712015 0.0199851 0 0.714447 0.0199675 0 0.71679 0.0199538 0 0.719119 0.0199518 0 0.721467 0.0199561 0 0.723831 0.0199677 0 0.726188 0.0199784 0 0.728544 0.0199837 0 0.730896 0.0199895 0 0.73325 0.0199954 0 0.735607 0.0200019 0 0.737964 0.0200064 0 0.740322 0.0200055 0 0.742675 0.0200038 0 0.745028 0.0200052 0 0.747381 0.0200052 0 0.749737 0.0200061 0 0.752095 0.0200061 0 0.754452 0.0200059 0 0.756805 0.0200062 0 0.759156 0.0200077 0 0.761507 0.0200103 0 0.763862 0.0200099 0 0.766218 0.0200089 0 0.768574 0.0200086 0 0.770927 0.0200104 0 0.773277 0.0200116 0 0.775627 0.0200138 0 0.777979 0.0200135 0 0.780334 0.0200137 0 0.78269 0.0200145 0 0.785043 0.0200149 0 0.787393 0.0200133 0 0.789744 0.0200105 0 0.792097 0.020009 0 0.794454 0.0200083 0 0.796811 0.0200095 0 0.799166 0.0200104 0 0.80152 0.0200088 0 0.803874 0.0200066 0 0.806227 0.0200061 0 0.808582 0.0200066 0 0.810941 0.0200073 0 0.813304 0.0200088 0 0.815644 0.020012 0 0.817945 0.0200138 0 0.820143 0.0200094 0 0.822363 0.0200024 0 0.825483 0.02 0 0.830081 0.02 0 0.835013 0.02 0 0.840002 0.02 0 0.845 0.02 0 0.85 0.02 0 0.855 0.02 0 0.86 0.02 0 0.865 0.02 0 0.87 0.02 0 0.875 0.02 0 0.88 0.02 0 0.885 0.02 0 0.89 0.02 0 0.895 0.02 0 0.9 0.02 0 0.905 0.02 0 0.91 0.02 0 0.915 0.02 0 0.92 0.02 0 0.925 0.02 0 0.93 0.02 0 0.935 0.02 0 0.94 0.02 0 0.945 0.02 0 0.95 0.02 0 0.955 0.02 0 0.96 0.02 0 0.965 0.02 0 0.97 0.02 0 0.975 0.02 0 0.98 0.02 0 0.985 0.02 0 0.99 0.02 0 0.995 0.02 0 1 0.02 0 0 0.04 0 0.005 0.04 0 0.01 0.04 0 0.015 0.04 0 0.02 0.04 0 0.025 0.04 0 0.03 0.04 0 0.035 0.04 0 0.04 0.04 0 0.045 0.04 0 0.05 0.04 0 0.055 0.04 0 0.06 0.04 0 0.065 0.04 0 0.07 0.04 0 0.075 0.04 0 0.08 0.04 0 0.085 0.04 0 0.09 0.04 0 0.095 0.04 0 0.1 0.04 0 0.105 0.04 0 0.11 0.04 0 0.115 0.04 0 0.12 0.04 0 0.125 0.04 0 0.13 0.04 0 0.135 0.04 0 0.14 0.04 0 0.145 0.04 0 0.15 0.04 0 0.155 0.04 0 0.16 0.04 0 0.165 0.04 0 0.17 0.04 0 0.175 0.04 0 0.18 0.04 0 0.185 0.04 0 0.19 0.04 0 0.195 0.04 0 0.2 0.04 0 0.205 0.04 0 0.21 0.04 0 0.215 0.04 0 0.220001 0.04 0 0.225002 0.04 0 0.230004 0.04 0 0.235009 0.04 0 0.240019 0.04 0 0.245037 0.04 0 0.250066 0.04 0 0.255113 0.04 0 0.260184 0.04 0 0.265285 0.04 0 0.270424 0.04 0 0.275608 0.04 0 0.280846 0.04 0 0.286145 0.04 0 0.291513 0.04 0 0.296957 0.04 0 0.302485 0.04 0 0.308105 0.04 0 0.313823 0.04 0 0.319646 0.04 0 0.325583 0.04 0 0.331641 0.04 0 0.337828 0.04 0 0.344152 0.04 0 0.350621 0.04 0 0.357246 0.04 0 0.364034 0.04 0 0.370997 0.04 0 0.378145 0.04 0 0.38549 0.04 0 0.393044 0.04 0 0.40082 0.04 0 0.408831 0.04 0 0.417093 0.04 0 0.42562 0.04 0 0.434428 0.04 0 0.44353 0.04 0 0.452941 0.04 0 0.462672 0.04 0 0.472728 0.04 0 0.483111 0.04 0 0.493809 0.04 0 0.5048 0.04 0 0.516048 0.04 0 0.527506 0.04 0 0.539119 0.04 0 0.550837 0.04 0 0.562621 0.04 0 0.574442 0.04 0 0.586287 0.0399999 0 0.598151 0.0399998 0 0.610034 0.0399996 0 0.621942 0.0399992 0 0.633888 0.0399986 0 0.645898 0.0399972 0 0.658063 0.0399968 0 0.670865 0.0399722 0 0.673304 0.0399541 0 0.675698 0.0399577 0 0.678094 0.0399667 0 0.68049 0.0399772 0 0.682881 0.0399856 0 0.685265 0.0399901 0 0.687646 0.0399913 0 0.690025 0.0399918 0 0.692403 0.0399935 0 0.694779 0.0399983 0 0.69715 0.0400014 0 0.699529 0.0400063 0 0.701877 0.0400114 0 0.704225 0.0400264 0 0.706462 0.040047 0 0.708599 0.0400435 0 0.710736 0.0400083 0 0.712999 0.0399703 0 0.715361 0.0399546 0 0.717742 0.039953 0 0.720102 0.0399619 0 0.722448 0.0399717 0 0.724799 0.0399831 0 0.727155 0.0399898 0 0.729512 0.0399939 0 0.731871 0.0399949 0 0.734227 0.0400003 0 0.736583 0.040007 0 0.738936 0.0400094 0 0.741292 0.0400102 0 0.743648 0.0400088 0 0.746005 0.0400094 0 0.748358 0.0400089 0 0.75071 0.0400108 0 0.753059 0.0400138 0 0.755411 0.0400162 0 0.757765 0.0400176 0 0.760118 0.0400183 0 0.762468 0.0400152 0 0.764819 0.0400112 0 0.767169 0.0400119 0 0.769522 0.0400168 0 0.771876 0.0400173 0 0.774233 0.0400198 0 0.776586 0.0400193 0 0.778937 0.0400176 0 0.781288 0.040016 0 0.783644 0.0400159 0 0.786001 0.0400162 0 0.788357 0.0400169 0 0.790708 0.040018 0 0.793054 0.0400159 0 0.795404 0.0400128 0 0.797758 0.0400091 0 0.800115 0.0400045 0 0.802472 0.040003 0 0.804829 0.0400021 0 0.807185 0.0399971 0 0.809544 0.0399894 0 0.811912 0.0399824 0 0.814296 0.0399803 0 0.816625 0.0399821 0 0.819017 0.0399881 0 0.821802 0.0399955 0 0.825473 0.0399996 0 0.830082 0.04 0 0.835013 0.04 0 0.840002 0.04 0 0.845 0.04 0 0.85 0.04 0 0.855 0.04 0 0.86 0.04 0 0.865 0.04 0 0.87 0.04 0 0.875 0.04 0 0.88 0.04 0 0.885 0.04 0 0.89 0.04 0 0.895 0.04 0 0.9 0.04 0 0.905 0.04 0 0.91 0.04 0 0.915 0.04 0 0.92 0.04 0 0.925 0.04 0 0.93 0.04 0 0.935 0.04 0 0.94 0.04 0 0.945 0.04 0 0.95 0.04 0 0.955 0.04 0 0.96 0.04 0 0.965 0.04 0 0.97 0.04 0 0.975 0.04 0 0.98 0.04 0 0.985 0.04 0 0.99 0.04 0 0.995 0.04 0 1 0.04 0 0 0.06 0 0.005 0.06 0 0.01 0.06 0 0.015 0.06 0 0.02 0.06 0 0.025 0.06 0 0.03 0.06 0 0.035 0.06 0 0.04 0.06 0 0.045 0.06 0 0.05 0.06 0 0.055 0.06 0 0.06 0.06 0 0.065 0.06 0 0.07 0.06 0 0.075 0.06 0 0.08 0.06 0 0.085 0.06 0 0.09 0.06 0 0.095 0.06 0 0.1 0.06 0 0.105 0.06 0 0.11 0.06 0 0.115 0.06 0 0.12 0.06 0 0.125 0.06 0 0.13 0.06 0 0.135 0.06 0 0.14 0.06 0 0.145 0.06 0 0.15 0.06 0 0.155 0.06 0 0.16 0.06 0 0.165 0.06 0 0.17 0.06 0 0.175 0.06 0 0.18 0.06 0 0.185 0.06 0 0.19 0.06 0 0.195 0.06 0 0.2 0.06 0 0.205 0.06 0 0.21 0.06 0 0.215 0.06 0 0.220001 0.06 0 0.225002 0.06 0 0.230004 0.06 0 0.235009 0.06 0 0.240019 0.06 0 0.245037 0.06 0 0.250066 0.06 0 0.255113 0.06 0 0.260184 0.06 0 0.265285 0.06 0 0.270424 0.06 0 0.275608 0.06 0 0.280846 0.06 0 0.286145 0.06 0 0.291513 0.06 0 0.296957 0.06 0 0.302485 0.06 0 0.308105 0.06 0 0.313823 0.06 0 0.319646 0.06 0 0.325583 0.06 0 0.331641 0.06 0 0.337828 0.06 0 
[...]
			<CellData Scalars="Density">
				<DataArray Name="Density" type="Float32" format="ascii">
 1 1 1 1 1 1 1 1 1 1 1 1 1 1 1 1 1 1 1 1 1 1 1 1 1 1 1 1 1 1 1 1 1 1 1 1 1 1 0.999999 0.999998 0.999995 0.999987 0.999966 0.999914 0.999789 0.999518 0.998987 0.998039 0.996479 0.994098 0.990694 0.986105 0.98022 0.972991 0.964429 0.954589 0.943562 0.931454 0.91838 0.904453 0.889779 0.874453 0.858561 0.842175 0.825362 0.808174 0.790659 0.77286 0.754811 0.736547 0.718095 0.699486 0.680748 0.661913 0.643013 0.624088 0.605187 0.586367 0.567707 0.549306 0.531294 0.513843 0.497177 0.481574 0.467366 0.454909 0.444524 0.436409 0.430547 0.426671 0.424318 0.422957 0.422119 0.421462 0.420766 0.41986 0.418537 0.416279 0.410979 0.39044 0.255456 0.260307 0.259994 0.260117 0.260886 0.261457 0.262129 0.262439 0.262891 0.263191 0.263448 0.26371 0.263924 0.264076 0.264276 0.264598 0.265406 0.265718 0.265499 0.265398 0.265384 0.265337 0.265284 0.26528 0.265206 0.265225 0.265231 0.26525 0.26528 0.265309 0.26531 0.265322 0.265349 0.265364 0.2654 0.26545 0.26543 0.26544 0.265452 0.265475 0.265486 0.265501 0.265475 0.265527 0.265488 0.265502 0.265499 0.265496 0.26549 0.26548 0.265466 0.265461 0.265497 0.265515 0.265509 0.265503 0.26558 0.26558 0.265498 0.26473 0.26496 0.269371 0.272948 0.252439 0.185688 0.135767 0.126711 0.125271 0.125043 0.125007 0.125001 0.125 0.125 0.125 0.125 0.125 0.125 0.125 0.125 0.125 0.125 0.125 0.125 0.125 0.125 0.125 0.125 0.125 0.125 0.125 0.125 0.125 0.125 0.125 0.125 0.125 0.125 0.125 0.125 0.125 1 1 1 1 1 1 1 1 1 1 1 1 1 1 1 1 1 1 1 1 1 1 1 1 1 1 1 1 1 1 1 1 1 1 1 1 1 1 0.999999 0.999998 0.999995 0.999987 0.999966 0.999914 0.999789 0.999518 0.998987 0.998039 0.996479 0.994098 0.990694 0.986105 0.98022 0.972991 0.964429 0.954589 0.943562 0.931454 0.91838 0.904453 0.889779 0.874453 0.858561 0.842175 0.825362 0.808174 0.790659 0.77286 0.754811 0.736547 0.718095 0.699486 0.680748 0.661913 0.643013 0.624088 0.605187 0.586367 0.567707 0.549306 0.531294 0.513843 0.497177 0.481574 0.467366 0.454909 0.444524 0.436409 0.430547 0.426671 0.424318 0.422958 0.42212 0.421464 0.420769 0.419866 0.418551 0.416299 0.411004 0.390511 0.255461 0.260392 0.25997 0.260135 0.260759 0.261587 0.262026 0.262515 0.262865 0.263181 0.263385 0.263696 0.263947 0.264074 0.264241 0.26461 0.265323 0.265812 0.265607 0.265426 0.265374 0.265301 0.265325 0.265169 0.265248 0.265184 0.26523 0.265257 0.265279 0.265299 0.265289 0.265277 0.265355 0.265318 0.265419 0.265388 0.265407 0.265466 0.265474 0.265447 0.265504 0.265489 0.265542 0.265401 0.265523 0.265435 0.265479 0.265428 0.265492 0.265409 0.26546 0.265553 0.265448 0.265396 0.265358 0.265451 0.265486 0.265453 0.265364 0.2648 0.265391 0.270836 0.273062 0.250144 0.184107 0.135772 0.126728 0.125274 0.125043 0.125007 0.125001 0.125 0.125 0.125 0.125 0.125 0.125 0.125 0.125 0.125 0.125 0.125 0.125 0.125 0.125 0.125 0.125 0.125 0.125 0.125 0.125 0.125 0.125 0.125 0.125 0.125 0.125 0.125 0.125 0.125 1 1 1 1 1 1 1 1 1 1 1 1 1 1 1 1 1 1 1 1 1 1 1 1 1 1 1 1 1 1 1 1 1 1 1 1 1 1 0.999999 0.999998 0.999995 0.999987 0.999966 0.999914 0.999789 0.999518 0.998987 0.998039 0.996479 0.994098 0.990694 0.986105 0.98022 0.972991 0.964429 0.954589 0.943562 0.931454 0.91838 0.904453 0.889779 0.874453 0.858561 0.842175 0.825362 0.808174 0.790659 0.77286 0.754811 0.736547 0.718095 0.699486 0.680748 0.661913 0.643013 0.624088 0.605187 0.586367 0.567707 0.549306 0.531294 0.513843 0.497177 0.481574 0.467366 0.454909 0.444524 0.436409 0.430548 0.426672 0.42432 0.42296 0.422123 0.421468 0.420774 0.419872 0.418561 0.416315 0.411027 0.390507 0.255556 0.260299 0.259902 0.260162 0.260765 0.261515 0.262102 0.262532 0.262944 0.263258 0.263499 0.263775 0.263914 0.264065 0.264212 0.264503 0.265312 0.265736 0.265472 0.265373 0.265336 0.265315 0.265276 0.265293 0.265241 0.265297 0.265297 0.265302 0.265324 0.265323 0.265265 0.26531 0.265298 0.265368 0.265387 0.265322 0.265396 0.265494 0.265445 0.26548 0.265463 0.26554 0.265486 0.265513 0.265423 0.265484 0.265397 0.265519 0.265381 0.26549 0.26544 0.265644 0.265517 0.26536 0.265242 0.265227 0.265346 0.265246 0.264783 0.263732 0.265314 0.270663 0.273443 0.249539 0.184457 0.135947 0.126749 0.125275 0.125043 0.125007 0.125001 0.125 0.125 0.125 0.125 0.125 0.125 0.125 0.125 0.125 0.125 0.125 0.125 0.125 0.125 0.125 0.125 0.125 0.125 0.125 0.125 0.125 0.125 0.125 0.125 0.125 0.125 0.125 0.125 0.125 1 1 1 1 1 1 1 1 1 1 1 1 1 1 1 1 1 1 1 1 1 1 1 1 1 1 1 1 1 1 1 1 1 1 1 1 1 1 0.999999 0.999998 0.999995 0.999987 0.999966 0.999914 0.999789 0.999518 0.998987 0.998039 0.996479 0.994098 0.990694 0.986105 0.98022 0.972991 0.964429 0.954589 0.943562 0.931454 0.91838 0.904453 0.889779 0.874453 0.858561 0.842175 0.825362 0.808174 0.790659 0.77286 0.754811 0.736547 0.718095 0.699486 0.680748 0.661913 0.643013 0.624088 0.605187 0.586367 0.567707 0.549306 0.531294 0.513843 0.497177 0.481574 0.467366 0.454909 0.444524 0.43641 0.430548 0.426673 0.424322 0.422964 0.422127 0.421472 0.420777 0.419874 0.418559 0.416307 0.411004 0.390481 0.255437 0.260311 0.260001 0.260222 0.260816 0.261544 0.26206 0.262479 0.262826 0.263162 0.263449 0.263709 0.263927 0.264047 0.264364 0.264535 0.265355 0.26572 0.26569 0.26544 0.265463 0.265338 0.265274 0.265312 0.265186 0.265331 0.265222 0.265303 0.265323 0.265345 0.265304 0.265373 0.265347 0.26546 0.265442 0.265434 0.265518 0.26551 0.265558 0.265593 0.265546 0.265622 0.265502 0.265604 0.265527 0.265618 0.265552 0.265651 0.265534 0.265651 0.265582 0.265734 0.265776 0.265697 0.265568 0.2655 0.265902 0.266057 0.265615 0.264357 0.265476 0.269693 0.27111 0.251131 0.187717 0.136134 0.126757 0.125275 0.125043 0.125007 0.125001 0.125 0.125 0.125 0.125 0.125 0.125 0.125 0.125 0.125 0.125 0.125 0.125 0.125 0.125 0.125 0.125 0.125 0.125 0.125 0.125 0.125 0.125 0.125 0.125 0.125 0.125 0.125 0.125 0.125 1 1 1 1 1 1 1 1 1 1 1 1 1 1 1 1 1 1 1 1 1 1 1 1 1 1 1 1 1 1 1 1 1 1 1 1 1 1 0.999999 0.999998 0.999995 0.999987 0.999966 0.999914 0.999789 0.999518 0.998987 0.998039 0.996479 0.994098 0.990694 0.986105 0.98022 0.972991 0.964429 0.954589 0.943562 0.931454 0.91838 0.904453 0.889779 0.874453 0.858561 0.842175 0.825362 0.808174 0.790659 0.77286 0.754811 0.736547 0.718095 0.699486 0.680748 0.661913 0.643013 0.624088 0.605187 0.586367 0.567707 0.549306 0.531294 0.513843 0.497177 0.481574 0.467366 0.454909 0.444525 0.43641 0.430549 0.426674 0.424324 0.422966 0.42213 0.421473 0.420777 0.419871 0.418551 0.416291 0.410978 0.390419 0.255455 0.260332 0.259942 0.260164 0.260788 0.261541 0.262055 0.262489 0.262894 0.263191 0.263455 0.263722 0.26396 0.264127 0.264257 0.264567 0.265297 0.265801 0.265531 0.26541 0.265353 0.265315 0.265274 0.265238 0.265236 0.26517 0.26528 0.26524 0.265248 0.265261 0.26529 0.265314 0.265362 0.26537 0.265415 0.26544 0.265391 0.265403 0.265424 0.265429 0.265467 0.265468 0.265516 0.265464 0.265509 0.265498 0.265543 0.265508 0.265553 0.265531 0.265563 0.265575 0.265593 0.265564 0.265553 0.26566 0.26597 0.265997 0.265568 0.264806 0.265751 0.270463 0.271041 0.246518 0.184359 0.135655 0.126738 0.125275 0.125043 0.125007 0.125001 0.125 0.125 0.125 0.125 0.125 0.125 0.125 0.125 0.125 0.125 0.125 0.125 0.125 0.125 0.125 0.125 0.125 0.125 0.125 0.125 0.125 0.125 0.125 0.125 0.125 0.125 0.125 0.125 0.125
				</DataArray>
				<DataArray Name="Energy" type="Float32" format="ascii">
 2.5 2.5 2.5 2.5 2.5 2.5 2.5 2.5 2.5 2.5 2.5 2.5 2.5 2.5 2.5 2.5 2.5 2.5 2.5 2.5 2.5 2.5 2.5 2.5 2.5 2.5 2.5 2.5 2.5 2.5 2.5 2.5 2.5 2.5 2.5 2.5 2.5 2.5 2.5 2.5 2.49999 2.49999 2.49997 2.49991 2.49979 2.49952 2.49899 2.49804 2.49648 2.49409 2.49068 2.48607 2.48014 2.47284 2.46416 2.45413 2.44283 2.43035 2.41676 2.40218 2.38667 2.37033 2.35321 2.33538 2.31687 2.29774 2.278 2.25769 2.23682 2.21542 2.19349 2.17106 2.14813 2.12472 2.10086 2.07657 2.05191 2.02692 2.00171 1.9764 1.95118 1.92631 1.90213 1.87913 1.85789 1.83906 1.82331 1.81112 1.80262 1.79753 1.7952 1.79484 1.79581 1.7977 1.80045 1.8043 1.81005 1.81993 1.84349 1.94051 2.96663 2.91032 2.91528 2.91211 2.90579 2.89676 2.89184 2.8866 2.8825 2.87895 2.87619 2.87318 2.87073 2.86904 2.86688 2.863 2.85462 2.85109 2.85355 2.85491 2.85529 2.85593 2.85645 2.85702 2.85715 2.85715 2.85699 2.85674 2.85635 2.85599 2.85606 2.85579 2.85555 2.85524 2.85488 2.85478 2.85487 2.85471 2.85454 2.85438 2.85407 2.85396 2.854 2.85418 2.85386 2.85373 2.85347 2.85338 2.85327 2.85337 2.85324 2.85305 2.85305 2.85312 2.8529 2.8527 2.85325 2.85312 2.85261 2.84934 2.85024 2.86875 2.88303 2.79018 2.41881 2.07251 2.01106 2.00174 2.00027 2.00004 2.00001 2 2 2 2 2 2 2 2 2 2 2 2 2 2 2 2 2 2 2 2 2 2 2 2 2 2 2 2 2 2.5 2.5 2.5 2.5 2.5 2.5 2.5 2.5 2.5 2.5 2.5 2.5 2.5 2.5 2.5 2.5 2.5 2.5 2.5 2.5 2.5 2.5 2.5 2.5 2.5 2.5 2.5 2.5 2.5 2.5 2.5 2.5 2.5 2.5 2.5 2.5 2.5 2.5 2.5 2.5 2.49999 2.49999 2.49997 2.49991 2.49979 2.49952 2.49899 2.49804 2.49648 2.49409 2.49068 2.48607 2.48014 2.47284 2.46416 2.45413 2.44283 2.43035 2.41676 2.40218 2.38667 2.37033 2.35321 2.33538 2.31687 2.29774 2.278 2.25769 2.23682 2.21542 2.19349 2.17106 2.14813 2.12472 2.10086 2.07657 2.05191 2.02692 2.00171 1.9764 1.95118 1.92631 1.90213 1.87913 1.85789 1.83906 1.82331 1.81112 1.80262 1.79753 1.7952 1.79484 1.79581 1.7977 1.80045 1.80431 1.81007 1.81997 1.84353 1.94066 2.96666 2.9107 2.91517 2.91219 2.90523 2.89734 2.89138 2.88694 2.88239 2.87891 2.87591 2.87312 2.87083 2.8691 2.86688 2.86392 2.85504 2.85062 2.85296 2.85452 2.85519 2.85596 2.85667 2.85648 2.85721 2.85698 2.85699 2.85679 2.8564 2.8561 2.85603 2.85578 2.85578 2.85522 2.85516 2.85482 2.85486 2.85516 2.85498 2.85455 2.8545 2.85438 2.85445 2.85408 2.85452 2.85388 2.85396 2.85377 2.85383 2.85347 2.85385 2.85412 2.8537 2.85355 2.85324 2.85347 2.85349 2.85352 2.85328 2.85102 2.85352 2.87648 2.88531 2.7821 2.40961 2.07252 2.01117 2.00175 2.00028 2.00004 2.00001 2 2 2 2 2 2 2 2 2 2 2 2 2 2 2 2 2 2 2 2 2 2 2 2 2 2 2 2 2 2.5 2.5 2.5 2.5 2.5 2.5 2.5 2.5 2.5 2.5 2.5 2.5 2.5 2.5 2.5 2.5 2.5 2.5 2.5 2.5 2.5 2.5 2.5 2.5 2.5 2.5 2.5 2.5 2.5 2.5 2.5 2.5 2.5 2.5 2.5 2.5 2.5 2.5 2.5 2.5 2.49999 2.49999 2.49997 2.49991 2.49979 2.49952 2.49899 2.49804 2.49648 2.49409 2.49068 2.48607 2.48014 2.47284 2.46416 2.45413 2.44283 2.43035 2.41676 2.40218 2.38667 2.37033 2.35321 2.33538 2.31687 2.29774 2.278 2.25769 2.23682 2.21542 2.19349 2.17106 2.14813 2.12472 2.10086 2.07657 2.05191 2.02692 2.00171 1.9764 1.95118 1.92631 1.90213 1.87913 1.85789 1.83906 1.82331 1.81112 1.80263 1.79753 1.7952 1.79485 1.79582 1.79771 1.80046 1.80432 1.81009 1.82 1.84357 1.94065 2.9671 2.91028 2.91487 2.91231 2.90525 2.89702 2.89172 2.88702 2.88273 2.87924 2.87641 2.87347 2.8707 2.86901 2.86655 2.86329 2.85573 2.85186 2.85369 2.85501 2.85516 2.85569 2.85629 2.85694 2.8572 2.85744 2.85726 2.85698 2.85662 2.85628 2.85609 2.85605 2.85562 2.85553 2.85515 2.85472 2.85514 2.85548 2.85501 2.85486 2.85454 2.85483 2.8546 2.85484 2.85428 2.85431 2.85389 2.85443 2.85378 2.85431 2.85409 2.85486 2.8543 2.85371 2.85318 2.85304 2.85353 2.85315 2.85123 2.8468 2.85375 2.87638 2.88765 2.78064 2.41195 2.07374 2.01131 2.00176 2.00028 2.00004 2.00001 2 2 2 2 2 2 2 2 2 2 2 2 2 2 2 2 2 2 2 2 2 2 2 2 2 2 2 2 2 2.5 2.5 2.5 2.5 2.5 2.5 2.5 2.5 2.5 2.5 2.5 2.5 2.5 2.5 2.5 2.5 2.5 2.5 2.5 2.5 2.5 2.5 2.5 2.5 2.5 2.5 2.5 2.5 2.5 2.5 2.5 2.5 2.5 2.5 2.5 2.5 2.5 2.5 2.5 2.5 2.49999 2.49999 2.49997 2.49991 2.49979 2.49952 2.49899 2.49804 2.49648 2.49409 2.49068 2.48607 2.48014 2.47284 2.46416 2.45413 2.44283 2.43035 2.41676 2.40218 2.38667 2.37033 2.35321 2.33538 2.31687 2.29774 2.278 2.25769 2.23682 2.21542 2.19349 2.17106 2.14813 2.12472 2.10086 2.07657 2.05191 2.02692 2.00171 1.9764 1.95118 1.92631 1.90213 1.87913 1.85789 1.83906 1.82331 1.81112 1.80263 1.79753 1.7952 1.79485 1.79582 1.79772 1.80047 1.80432 1.81009 1.81998 1.84353 1.9406 2.96655 2.91034 2.91531 2.91258 2.90548 2.89715 2.89153 2.88678 2.88222 2.87882 2.87619 2.87318 2.87075 2.86898 2.86739 2.86435 2.85652 2.85073 2.85331 2.85429 2.85507 2.85553 2.85585 2.85674 2.85648 2.85707 2.85643 2.8565 2.85615 2.85593 2.85565 2.8556 2.85516 2.85528 2.85473 2.85448 2.8548 2.85453 2.85451 2.85439 2.8538 2.85402 2.85354 2.8538 2.85335 2.85355 2.85297 2.85323 2.85284 2.85319 2.85276 2.85326 2.85317 2.85261 2.85211 2.8518 2.8534 2.85386 2.85168 2.84592 2.85056 2.8682 2.87392 2.7839 2.42982 2.07504 2.01136 2.00177 2.00028 2.00004 2.00001 2 2 2 2 2 2 2 2 2 2 2 2 2 2 2 2 2 2 2 2 2 2 2 2 2 2 2 2 2 2.5 2.5 2.5 2.5 2.5 2.5 2.5 2.5 2.5 2.5 2.5 2.5 2.5 2.5 2.5 2.5 2.5 2.5 2.5 2.5 2.5 2.5 2.5 2.5 2.5 2.5 2.5 2.5 2.5 2.5 2.5 2.5 2.5 2.5 2.5 2.5 2.5 2.5 2.5 2.5 2.49999 2.49999 2.49997 2.49991 2.49979 2.49952 2.49899 2.49804 2.49648 2.49409 2.49068 2.48607 2.48014 2.47284 2.46416 2.45413 2.44283 2.43035 2.41676 2.40218 2.38667 2.37033 2.35321 2.33538 2.31687 2.29774 2.278 2.25769 2.23682 2.21542 2.19349 2.17106 2.14813 2.12472 2.10086 2.07657 2.05191 2.02692 2.00171 1.9764 1.95118 1.92631 1.90213 1.87913 1.85789 1.83906 1.82331 1.81112 1.80263 1.79754 1.79521 1.79486 1.79583 1.79772 1.80046 1.80432 1.81007 1.81995 1.84348 1.94047 2.96663 2.91043 2.91505 2.91232 2.90536 2.89714 2.89151 2.88682 2.88252 2.87895 2.87622 2.87324 2.8709 2.8693 2.86677 2.86415 2.85632 2.85164 2.85328 2.85486 2.85529 2.85597 2.85629 2.85683 2.85722 2.85693 2.85723 2.85676 2.8564 2.8562 2.85619 2.85607 2.85597 2.85563 2.85542 2.85536 2.85513 2.8551 2.85499 2.85474 2.85461 2.85462 2.85484 2.85467 2.85476 2.85454 2.85451 2.85443 2.85471 2.85467 2.8548 2.85471 2.85464 2.8546 2.85473 2.85525 2.85662 2.85666 2.8547 2.8514 2.85559 2.87568 2.87783 2.76534 2.41 2.07156 2.01124 2.00176 2.00028 2.00004 2.00001 2 2 2 2 2 2 2 2 2 2 2 2 2 2 2 2 2 2 2 2 2 2 2 2 2 2 2 2 2
				</DataArray>
				<DataArray Name="F1" type="Float32" format="ascii">
 1 1 1 1 1 1 1 1 1 1 1 1 1 1 1 1 1 1 1 1 1 1 1 1 1 1 1 1 1 1 1 1 1 1 1 1 1 1 1 1 1 1 1 1 1 1 1 1 1 1 1 1 1 1 1 1 1 1 1 1 1 1 1 1 1 1 1 1 1 1 1 1 1 1 1 1 1 1 1 1 1 1 1 1 1 1 1 1 1 1 1 1 1 1 1 1 1 1 1 1 0 0 0 0 0 0 0 0 0 0 0 0 0 0 0 0 0 0 0 0 0 0 0 0 0 0 0 0 0 0 0 0 0 0 0 0 0 0 0 0 0 0 0 0 0 0 0 0 0 0 0 0 0 0 0 0 0 0 0 0 0 0 0 0 0 0 0 0 0 0 0 0 0 0 0 0 0 0 0 0 0 0 0 0 0 0 0 0 0 0 0 0 0 0 0 0 0 0 0 0 1 1 1 1 1 1 1 1 1 1 1 1 1 1 1 1 1 1 1 1 1 1 1 1 1 1 1 1 1 1 1 1 1 1 1 1 1 1 1 1 1 1 1 1 1 1 1 1 1 1 1 1 1 1 1 1 1 1 1 1 1 1 1 1 1 1 1 1 1 1 1 1 1 1 1 1 1 1 1 1 1 1 1 1 1 1 1 1 1 1 1 1 1 1 1 1 1 1 1 1 0 0 0 0 0 0 0 0 0 0 0 0 0 0 0 0 0 0 0 0 0 0 0 0 0 0 0 0 0 0 0 0 0 0 0 0 0 0 0 0 0 0 0 0 0 0 0 0 0 0 0 0 0 0 0 0 0 0 0 0 0 0 0 0 0 0 0 0 0 0 0 0 0 0 0 0 0 0 0 0 0 0 0 0 0 0 0 0 0 0 0 0 0 0 0 0 0 0 0 0 1 1 1 1 1 1 1 1 1 1 1 1 1 1 1 1 1 1 1 1 1 1 1 1 1 1 1 1 1 1 1 1 1 1 1 1 1 1 1 1 1 1 1 1 1 1 1 1 1 1 1 1 1 1 1 1 1 1 1 1 1 1 1 1 1 1 1 1 1 1 1 1 1 1 1 1 1 1 1 1 1 1 1 1 1 1 1 1 1 1 1 1 1 1 1 1 1 1 1 1 0 0 0 0 0 0 0 0 0 0 0 0 0 0 0 0 0 0 0 0 0 0 0 0 0 0 0 0 0 0 0 0 0 0 0 0 0 0 0 0 0 0 0 0 0 0 0 0 0 0 0 0 0 0 0 0 0 0 0 0 0 0 0 0 0 0 0 0 0 0 0 0 0 0 0 0 0 0 0 0 0 0 0 0 0 0 0 0 0 0 0 0 0 0 0 0 0 0 0 0 1 1 1 1 1 1 1 1 1 1 1 1 1 1 1 1 1 1 1 1 1 1 1 1 1 1 1 1 1 1 1 1 1 1 1 1 1 1 1 1 1 1 1 1 1 1 1 1 1 1 1 1 1 1 1 1 1 1 1 1 1 1 1 1 1 1 1 1 1 1 1 1 1 1 1 1 1 1 1 1 1 1 1 1 1 1 1 1 1 1 1 1 1 1 1 1 1 1 1 1 0 0 0 0 0 0 0 0 0 0 0 0 0 0 0 0 0 0 0 0 0 0 0 0 0 0 0 0 0 0 0 0 0 0 0 0 0 0 0 0 0 0 0 0 0 0 0 0 0 0 0 0 0 0 0 0 0 0 0 0 0 0 0 0 0 0 0 0 0 0 0 0 0 0 0 0 0 0 0 0 0 0 0 0 0 0 0 0 0 0 0 0 0 0 0 0 0 0 0 0 1 1 1 1 1 1 1 1 1 1 1 1 1 1 1 1 1 1 1 1 1 1 1 1 1 1 1 1 1 1 1 1 1 1 1 1 1 1 1 1 1 1 1 1 1 1 1 1 1 1 1 1 1 1 1 1 1 1 1 1 1 1 1 1 1 1 1 1 1 1 1 1 1 1 1 1 1 1 1 1 1 1 1 1 1 1 1 1 1 1 1 1 1 1 1 1 1 1 1 1 0 0 0 0 0 0 0 0 0 0 0 0 0 0 0 0 0 0 0 0 0 0 0 0 0 0 0 0 0 0 0 0 0 0 0 0 0 0 0 0 0 0 0 0 0 0 0 0 0 0 0 0 0 0 0 0 0 0 0 0 0 0 0 0 0 0 0 0 0 0 0 0 0 0 0 0 0 0 0 0 0 0 0 0 0 0 0 0 0 0 0 0 0 0 0 0 0 0 0 0
				</DataArray>
				<DataArray Name="F2" type="Float32" format="ascii">
 0 0 0 0 0 0 0 0 0 0 0 0 0 0 0 0 0 0 0 0 0 0 0 0 0 0 0 0 0 0 0 0 0 0 0 0 0 0 0 0 0 0 0 0 0 0 0 0 0 0 0 0 0 0 0 0 0 0 0 0 0 0 0 0 0 0 0 0 0 0 0 0 0 0 0 0 0 0 0 0 0 0 0 0 0 0 0 0 0 0 0 0 0 0 0 0 0 0 0 0 1 1 1 1 1 1 1 1 1 1 1 1 1 1 1 1 1 1 1 1 1 1 1 1 1 1 1 1 1 1 1 1 1 1 1 1 1 1 1 1 1 1 1 1 1 1 1 1 1 1 1 1 1 1 1 1 1 1 1 1 1 1 1 1 1 1 1 1 1 1 1 1 1 1 1 1 1 1 1 1 1 1 1 1 1 1 1 1 1 1 1 1 1 1 1 1 1 1 1 1 0 0 0 0 0 0 0 0 0 0 0 0 0 0 0 0 0 0 0 0 0 0 0 0 0 0 0 0 0 0 0 0 0 0 0 0 0 0 0 0 0 0 0 0 0 0 0 0 0 0 0 0 0 0 0 0 0 0 0 0 0 0 0 0 0 0 0 0 0 0 0 0 0 0 0 0 0 0 0 0 0 0 0 0 0 0 0 0 0 0 0 0 0 0 0 0 0 0 0 0 1 1 1 1 1 1 1 1 1 1 1 1 1 1 1 1 1 1 1 1 1 1 1 1 1 1 1 1 1 1 1 1 1 1 1 1 1 1 1 1 1 1 1 1 1 1 1 1 1 1 1 1 1 1 1 1 1 1 1 1 1 1 1 1 1 1 1 1 1 1 1 1 1 1 1 1 1 1 1 1 1 1 1 1 1 1 1 1 1 1 1 1 1 1 1 1 1 1 1 1 0 0 0 0 0 0 0 0 0 0 0 0 0 0 0 0 0 0 0 0 0 0 0 0 0 0 0 0 0 0 0 0 0 0 0 0 0 0 0 0 0 0 0 0 0 0 0 0 0 0 0 0 0 0 0 0 0 0 0 0 0 0 0 0 0 0 0 0 0 0 0 0 0 0 0 0 0 0 0 0 0 0 0 0 0 0 0 0 0 0 0 0 0 0 0 0 0 0 0 0 1 1 1 1 1 1 1 1 1 1 1 1 1 1 1 1 1 1 1 1 1 1 1 1 1 1 1 1 1 1 1 1 1 1 1 1 1 1 1 1 1 1 1 1 1 1 1 1 1 1 1 1 1 1 1 1 1 1 1 1 1 1 1 1 1 1 1 1 1 1 1 1 1 1 1 1 1 1 1 1 1 1 1 1 1 1 1 1 1 1 1 1 1 1 1 1 1 1 1 1 0 0 0 0 0 0 0 0 0 0 0 0 0 0 0 0 0 0 0 0 0 0 0 0 0 0 0 0 0 0 0 0 0 0 0 0 0 0 0 0 0 0 0 0 0 0 0 0 0 0 0 0 0 0 0 0 0 0 0 0 0 0 0 0 0 0 0 0 0 0 0 0 0 0 0 0 0 0 0 0 0 0 0 0 0 0 0 0 0 0 0 0 0 0 0 0 0 0 0 0 1 1 1 1 1 1 1 1 1 1 1 1 1 1 1 1 1 1 1 1 1 1 1 1 1 1 1 1 1 1 1 1 1 1 1 1 1 1 1 1 1 1 1 1 1 1 1 1 1 1 1 1 1 1 1 1 1 1 1 1 1 1 1 1 1 1 1 1 1 1 1 1 1 1 1 1 1 1 1 1 1 1 1 1 1 1 1 1 1 1 1 1 1 1 1 1 1 1 1 1 0 0 0 0 0 0 0 0 0 0 0 0 0 0 0 0 0 0 0 0 0 0 0 0 0 0 0 0 0 0 0 0 0 0 0 0 0 0 0 0 0 0 0 0 0 0 0 0 0 0 0 0 0 0 0 0 0 0 0 0 0 0 0 0 0 0 0 0 0 0 0 0 0 0 0 0 0 0 0 0 0 0 0 0 0 0 0 0 0 0 0 0 0 0 0 0 0 0 0 0 1 1 1 1 1 1 1 1 1 1 1 1 1 1 1 1 1 1 1 1 1 1 1 1 1 1 1 1 1 1 1 1 1 1 1 1 1 1 1 1 1 1 1 1 1 1 1 1 1 1 1 1 1 1 1 1 1 1 1 1 1 1 1 1 1 1 1 1 1 1 1 1 1 1 1 1 1 1 1 1 1 1 1 1 1 1 1 1 1 1 1 1 1 1 1 1 1 1 1 1
				</DataArray>
				<DataArray Name="F3" type="Float32" format="ascii">
 0 0 0 0 0 0 0 0 0 0 0 0 0 0 0 0 0 0 0 0 0 0 0 0 0 0 0 0 0 0 0 0 0 0 0 0 0 0 0 0 0 0 0 0 0 0 0 0 0 0 0 0 0 0 0 0 0 0 0 0 0 0 0 0 0 0 0 0 0 0 0 0 0 0 0 0 0 0 0 0 0 0 0 0 0 0 0 0 0 0 0 0 0 0 0 0 0 0 0 0 0 0 0 0 0 0 0 0 0 0 0 0 0 0 0 0 0 0 0 0 0 0 0 0 0 0 0 0 0 0 0 0 0 0 0 0 0 0 0 0 0 0 0 0 0 0 0 0 0 0 0 0 0 0 0 0 0 0 0 0 0 0 0 0 0 0 0 0 0 0 0 0 0 0 0 0 0 0 0 0 0 0 0 0 0 0 0 0 0 0 0 0 0 0 0 0 0 0 0 0 0 0 0 0 0 0 0 0 0 0 0 0 0 0 0 0 0 0 0 0 0 0 0 0 0 0 0 0 0 0 0 0 0 0 0 0 0 0 0 0 0 0 0 0 0 0 0 0 0 0 0 0 0 0 0 0 0 0 0 0 0 0 0 0 0 0 0 0 0 0 0 0 0 0 0 0 0 0 0 0 0 0 0 0 0 0 0 0 0 0 0 0 0 0 0 0 0 0 0 0 0 0 0 0 0 0 0 0 0 0 0 0 0 0 0 0 0 0 0 0 0 0 0 0 0 0 0 0 0 0 0 0 0 0 0 0 0 0 0 0 0 0 0 0 0 0 0 0 0 0 0 0 0 0 0 0 0 0 0 0 0 0 0 0 0 0 0 0 0 0 0 0 0 0 0 0 0 0 0 0 0 0 0 0 0 0 0 0 0 0 0 0 0 0 0 0 0 0 0 0 0 0 0 0 0 0 0 0 0 0 0 0 0 0 0 0 0 0 0 0 0 0 0 0 0 0 0 0 0 0 0 0 0 0 0 0 0 0 0 0 0 0 0 0 0 0 0 0 0 0 0 0 0 0 0 0 0 0 0 0 0 0 0 0 0 0 0 0 0 0 0 0 0 0 0 0 0 0 0 0 0 0 0 0 0 0 0 0 0 0 0 0 0 0 0 0 0 0 0 0 0 0 0 0 0 0 0 0 0 0 0 0 0 0 0 0 0 0 0 0 0 0 0 0 0 0 0 0 0 0 0 0 0 0 0 0 0 0 0 0 0 0 0 0 0 0 0 0 0 0 0 0 0 0 0 0 0 0 0 0 0 0 0 0 0 0 0 0 0 0 0 0 0 0 0 0 0 0 0 0 0 0 0 0 0 0 0 0 0 0 0 0 0 0 0 0 0 0 0 0 0 0 0 0 0 0 0 0 0 0 0 0 0 0 0 0 0 0 0 0 0 0 0 0 0 0 0 0 0 0 0 0 0 0 0 0 0 0 0 0 0 0 0 0 0 0 0 0 0 0 0 0 0 0 0 0 0 0 0 0 0 0 0 0 0 0 0 0 0 0 0 0 0 0 0 0 0 0 0 0 0 0 0 0 0 0 0 0 0 0 0 0 0 0 0 0 0 0 0 0 0 0 0 0 0 0 0 0 0 0 0 0 0 0 0 0 0 0 0 0 0 0 0 0 0 0 0 0 0 0 0 0 0 0 0 0 0 0 0 0 0 0 0 0 0 0 0 0 0 0 0 0 0 0 0 0 0 0 0 0 0 0 0 0 0 0 0 0 0 0 0 0 0 0 0 0 0 0 0 0 0 0 0 0 0 0 0 0 0 0 0 0 0 0 0 0 0 0 0 0 0 0 0 0 0 0 0 0 0 0 0 0 0 0 0 0 0 0 0 0 0 0 0 0 0 0 0 0 0 0 0 0 0 0 0 0 0 0 0 0 0 0 0 0 0 0 0 0 0 0 0 0 0 0 0 0 0 0 0 0 0 0 0 0 0 0 0 0 0 0 0 0 0 0 0 0 0 0 0 0 0 0 0 0 0 0 0 0 0 0 0 0 0 0 0 0 0 0 0 0 0 0 0 0 0 0 0 0 0 0 0 0 0 0 0 0 0 0 0 0 0 0 0 0 0 0 0 0 0 0 0 0 0 0 0 0 0 0 0 0 0 0 0 0 0 0 0 0 0 0 0 0 0 0 0 0 0 0 0 0 0 0 0 0 0 0 0 0 0 0 0 0 0 0 0 0 0 0 0 0 0 0 0 0 0 0 0 0 0 0 0 0 0 0 0 0 0 0 0 0
				</DataArray>
				<DataArray Name="Pressure" type="Float32" format="ascii">