<?xml version="1.0"?>
<VTKFile type="PolyData">
	<PolyData>
		<Piece NumberOfPoints="1206" NumberOfPolys="1000">
			<Points>
				<DataArray type="Float32" NumberOfComponents="3" format="ascii">
 0 0 0 0.005 0 0 0.01 0 0 0.015 0 0 0.02 0 0 0.025 0 0 0.03 0 0 0.035 0 0 0.04 0 0 0.045 0 0 0.05 0 0 0.055 0 0 0.06 0 0 0.065 0 0 0.07 0 0 0.075 0 0 0.08 0 0 0.085 0 0 0.09 0 0 0.095 0 0 0.1 0 0 0.105 0 0 0.11 0 0 0.115 0 0 0.12 0 0 0.125 0 0 0.13 0 0 0.135 0 0 0.14 0 0 0.145 0 0 0.15 0 0 0.155 0 0 0.16 0 0 0.165 0 0 0.17 0 0 0.175 0 0 0.18 0 0 0.185 0 0 0.19 0 0 0.195 0 0 0.2 0 0 0.205 0 0 0.21 0 0 0.215 0 0 0.22 0 0 0.225 0 0 0.23 0 0 0.235 0 0 0.24 0 0 0.245 0 0 0.25 0 0 0.255 0 0 0.26 0 0 0.265 0 0 0.27 0 0 0.275001 0 0 0.280002 0 0 0.285005 0 0 0.290011 0 0 0.295024 0 0 0.300049 0 0 0.305093 0 0 0.310164 0 0 0.315271 0 0 0.320427 0 0 0.325641 0 0 0.330927 0 0 0.336295 0 0 0.341756 0 0 0.347324 0 0 0.353009 0 0 0.358822 0 0 0.364777 0 0 0.370885 0 0 0.377159 0 0 0.383612 0 0 0.39026 0 0 0.397118 0 0 0.404201 0 0 0.41153 0 0 0.419121 0 0 0.426997 0 0 0.435179 0 0 0.443689 0 0 0.452552 0 0 0.461787 0 0 0.471414 0 0 0.481442 0 0 0.491869 0 0 0.502677 0 0 0.513822 0 0 0.525243 0 0 0.536865 0 0 0.548617 0 0 0.560446 0 0 0.572319 0 0 0.584226 0 0 0.596173 0 0 0.608186 0 0 0.620354 0 0 0.633163 0 0 0.63561 0 0 0.638012 0 0 0.640419 0 0 0.642827 0 0 0.645231 0 0 0.647628 0 0 0.650019 0 0 0.652403 0 0 0.654783 0 0 0.657154 0 0 0.659517 0 0 0.661885 0 0 0.664227 0 0 0.666573 0 0 0.668816 0 0 0.670964 0 0 0.673113 0 0 0.675392 0 0 0.677772 0 0 0.680176 0 0 0.682554 0 0 0.684915 0 0 0.687276 0 0 0.689638 0 0 0.692001 0 0 0.694361 0 0 0.696717 0 0 0.699072 0 0 0.701424 0 0 0.703779 0 0 0.706136 0 0 0.708491 0 0 0.710843 0 0 0.713192 0 0 0.715541 0 0 0.717894 0 0 0.720249 0 0 0.722603 0 0 0.724954 0 0 0.727302 0 0 0.729651 0 0 0.732002 0 0 0.734356 0 0 0.736709 0 0 0.739063 0 0 0.741423 0 0 0.743793 0 0 0.746113 0 0 0.748578 0 0 0.751397 0 0 0.755304 0 0 0.76005 0 0 0.765008 0 0 0.770001 0 0 0.775 0 0 0.78 0 0 0.785 0 0 0.79 0 0 0.795 0 0 0.8 0 0 0.805 0 0 0.81 0 0 0.815 0 0 0.82 0 0 0.825 0 0 0.83 0 0 0.835 0 0 0.84 0 0 0.845 0 0 0.85 0 0 0.855 0 0 0.86 0 0 0.865 0 0 0.87 0 0 0.875 0 0 0.88 0 0 0.885 0 0 0.89 0 0 0.895 0 0 0.9 0 0 0.905 0 0 0.91 0 0 0.915 0 0 0.92 0 0 0.925 0 0 0.93 0 0 0.935 0 0 0.94 0 0 0.945 0 0 0.95 0 0 0.955 0 0 0.96 0 0 0.965 0 0 0.97 0 0 0.975 0 0 0.98 0 0 0.985 0 0 0.99 0 0 0.995 0 0 1 0 0 0 0.02 0 0.005 0.02 0 0.01 0.02 0 0.015 0.02 0 0.02 0.02 0 0.025 0.02 0 0.03 0.02 0 0.035 0.02 0 0.04 0.02 0 0.045 0.02 0 0.05 0.02 0 0.055 0.02 0 0.06 0.02 0 0.065 0.02 0 0.07 0.02 0 0.075 0.02 0 0.08 0.02 0 0.085 0.02 0 0.09 0.02 0 0.095 0.02 0 0.1 0.02 0 0.105 0.02 0 0.11 0.02 0 0.115 0.02 0 0.12 0.02 0 0.125 0.02 0 0.13 0.02 0 0.135 0.02 0 0.14 0.02 0 0.145 0.02 0 0.15 0.02 0 0.155 0.02 0 0.16 0.02 0 0.165 0.02 0 0.17 0.02 0 0.175 0.02 0 0.18 0.02 0 0.185 0.02 0 0.19 0.02 0 0.195 0.02 0 0.2 0.02 0 0.205 0.02 0 0.21 0.02 0 0.215 0.02 0 0.22 0.02 0 0.225 0.02 0 0.23 0.02 0 0.235 0.02 0 0.24 0.02 0 0.245 0.02 0 0.25 0.02 0 0.255 0.02 0 0.26 0.02 0 0.265 0.02 0 0.27 0.02 0 0.275001 0.02 0 0.280002 0.02 0 0.285005 0.02 0 0.290011 0.02 0 0.295024 0.02 0 0.300049 0.02 0 0.305093 0.02 0 0.310164 0.02 0 0.315271 0.02 0 0.320427 0.02 0 0.325641 0.02 0 0.330927 0.02 0 0.336295 0.02 0 0.341756 0.02 0 0.347324 0.02 0 0.353009 0.02 0 0.358822 0.02 0 0.364777 0.02 0 0.370885 0.02 0 0.377159 0.02 0 0.383612 0.02 0 0.39026 0.02 0 0.397118 0.02 0 0.404201 0.02 0 0.41153 0.02 0 0.419121 0.02 0 0.426997 0.02 0 0.435179 0.02 0 0.443689 0.02 0 0.452552 0.02 0 0.461787 0.02 0 0.471414 0.02 0 0.481442 0.02 0 0.491869 0.02 0 0.502677 0.02 0 0.513822 0.02 0 0.525243 0.02 0 0.536865 0.02 0 0.548617 0.02 0 0.560446 0.02 0 0.572319 0.02 0 0.584226 0.02 0 0.596173 0.0199997 0 0.608186 0.0199992 0 0.620353 0.0199994 0 0.633161 0.0199958 0 0.635611 0.0199927 0 0.638015 0.0199905 0 0.640423 0.0199879 0 0.642827 0.0199852 0 0.645224 0.0199843 0 0.647615 0.0199843 0 0.650002 0.0199846 0 0.652388 0.019986 0 0.654769 0.0199901 0 0.657152 0.0199954 0 0.659536 0.0200005 0 0.661906 0.0200053 0 0.664297 0.0200112 0 0.666679 0.0200097 0 0.66916 0.0200153 0 0.671729 0.0200083 0 0.674291 0.0199927 0 0.676722 0.019981 0 0.679061 0.019971 0 0.681381 0.0199738 0 0.683725 0.0199811 0 0.686082 0.0199919 0 0.688436 0.0199958 0 0.690788 0.0199985 0 0.693138 0.0200002 0 0.695491 0.020001 0 0.697847 0.0200029 0 0.700204 0.0200045 0 0.702563 0.0200048 0 0.704916 0.0200055 0 0.707269 0.0200071 0 0.709622 0.0200088 0 0.711977 0.020009 0 0.714334 0.0200089 0 0.716691 0.020008 0 0.719045 0.0200069 0 0.721396 0.0200074 0 0.723749 0.0200089 0 0.726104 0.0200095 0 0.72846 0.0200098 0 0.730817 0.020009 0 0.733171 0.0200079 0 0.735521 0.0200078 0 0.737871 0.0200072 0 0.740223 0.020007 0 0.742582 0.0200063 0 0.74491 0.0200068 0 0.747202 0.0200067 0 0.749373 0.0200037 0 0.751704 0.0200006 0 0.755304 0.02 0 0.76005 0.02 0 0.765008 0.02 0 0.770001 0.02 0 0.775 0.02 0 0.78 0.02 0 0.785 0.02 0 0.79 0.02 0 0.795 0.02 0 0.8 0.02 0 0.805 0.02 0 0.81 0.02 0 0.815 0.02 0 0.82 0.02 0 0.825 0.02 0 0.83 0.02 0 0.835 0.02 0 0.84 0.02 0 0.845 0.02 0 0.85 0.02 0 0.855 0.02 0 0.86 0.02 0 0.865 0.02 0 0.87 0.02 0 0.875 0.02 0 0.88 0.02 0 0.885 0.02 0 0.89 0.02 0 0.895 0.02 0 0.9 0.02 0 0.905 0.02 0 0.91 0.02 0 0.915 0.02 0 0.92 0.02 0 0.925 0.02 0 0.93 0.02 0 0.935 0.02 0 0.94 0.02 0 0.945 0.02 0 0.95 0.02 0 0.955 0.02 0 0.96 0.02 0 0.965 0.02 0 0.97 0.02 0 0.975 0.02 0 0.98 0.02 0 0.985 0.02 0 0.99 0.02 0 0.995 0.02 0 1 0.02 0 0 0.04 0 0.005 0.04 0 0.01 0.04 0 0.015 0.04 0 0.02 0.04 0 0.025 0.04 0 0.03 0.04 0 0.035 0.04 0 0.04 0.04 0 0.045 0.04 0 0.05 0.04 0 0.055 0.04 0 0.06 0.04 0 0.065 0.04 0 0.07 0.04 0 0.075 0.04 0 0.08 0.04 0 0.085 0.04 0 0.09 0.04 0 0.095 0.04 0 0.1 0.04 0 0.105 0.04 0 0.11 0.04 0 0.115 0.04 0 0.12 0.04 0 0.125 0.04 0 0.13 0.04 0 0.135 0.04 0 0.14 0.04 0 0.145 0.04 0 0.15 0.04 0 0.155 0.04 0 0.16 0.04 0 0.165 0.04 0 0.17 0.04 0 0.175 0.04 0 0.18 0.04 0 0.185 0.04 0 0.19 0.04 0 0.195 0.04 0 0.2 0.04 0 0.205 0.04 0 0.21 0.04 0 0.215 0.04 0 0.22 0.04 0 0.225 0.04 0 0.23 0.04 0 0.235 0.04 0 0.24 0.04 0 0.245 0.04 0 0.25 0.04 0 0.255 0.04 0 0.26 0.04 0 0.265 0.04 0 0.27 0.04 0 0.275001 0.04 0 0.280002 0.04 0 0.285005 0.04 0 0.290011 0.04 0 0.295024 0.04 0 0.300049 0.04 0 0.305093 0.04 0 0.310164 0.04 0 0.315271 0.04 0 0.320427 0.04 0 0.325641 0.04 0 0.330927 0.04 0 0.336295 0.04 0 0.341756 0.04 0 0.347324 0.04 0 0.353009 0.04 0 0.358822 0.04 0 0.364777 0.04 0 0.370885 0.04 0 0.377159 0.04 0 0.383612 0.04 0 0.39026 0.04 0 0.397118 0.04 0 0.404201 0.04 0 0.41153 0.04 0 0.419121 0.04 0 0.426997 0.04 0 0.435179 0.04 0 0.443689 0.04 0 0.452552 0.04 0 0.461787 0.04 0 0.471414 0.04 0 0.481442 0.04 0 0.491869 0.04 0 0.502677 0.04 0 0.513822 0.04 0 0.525243 0.04 0 0.536865 0.04 0 0.548617 0.04 0 0.560446 0.04 0 0.572319 0.0399999 0 0.584226 0.0399999 0 0.596173 0.0399995 0 0.608185 0.0399987 0 0.620352 0.0399991 0 0.63316 0.03999 0 0.635607 0.0399847 0 0.638009 0.0399845 0 0.640412 0.0399866 0 0.642812 0.0399895 0 0.645205 0.0399915 0 0.64759 0.0399922 0 0.64997 0.0399912 0 0.652344 0.0399913 0 0.654717 0.0399909 0 0.657084 0.039992 0 0.659449 0.0399911 0 0.661824 0.0399976 0 0.664172 0.0400055 0 0.666526 0.040012 0 0.66877 0.0400305 0 0.670914 0.0400339 0 0.67305 0.0400193 0 0.675313 0.0399939 0 0.677673 0.0399823 0 0.680059 0.03998 0 0.682423 0.039985 0 0.684777 0.0399912 0 0.687136 0.0399937 0 0.689496 0.0399974 0 0.691861 0.0399999 0 0.694221 0.0399992 0 0.696578 0.0400034 0 0.698933 0.0400079 0 0.701285 0.0400097 0 0.703641 0.0400112 0 0.705997 0.0400106 0 0.708355 0.0400116 0 0.71071 0.0400109 0 0.713062 0.0400111 0 0.715415 0.0400113 0 0.71777 0.0400109 0 0.720127 0.0400111 0 0.722483 0.0400116 0 0.724837 0.0400096 0 0.727191 0.0400075 0 0.729546 0.0400057 0 0.731903 0.0400048 0 0.734261 0.0400025 0 0.736623 0.0399996 0 0.738988 0.039995 0 0.741359 0.0399925 0 0.743735 0.0399918 0 0.746055 0.0399925 0 0.748527 0.0399955 0 0.751378 0.0399987 0 0.755305 0.0399999 0 0.76005 0.04 0 0.765008 0.04 0 0.770001 0.04 0 0.775 0.04 0 0.78 0.04 0 0.785 0.04 0 0.79 0.04 0 0.795 0.04 0 0.8 0.04 0 0.805 0.04 0 0.81 0.04 0 0.815 0.04 0 0.82 0.04 0 0.825 0.04 0 0.83 0.04 0 0.835 0.04 0 0.84 0.04 0 0.845 0.04 0 0.85 0.04 0 0.855 0.04 0 0.86 0.04 0 0.865 0.04 0 0.87 0.04 0 0.875 0.04 0 0.88 0.04 0 0.885 0.04 0 0.89 0.04 0 0.895 0.04 0 0.9 0.04 0 0.905 0.04 0 0.91 0.04 0 0.915 0.04 0 0.92 0.04 0 0.925 0.04 0 0.93 0.04 0 0.935 0.04 0 0.94 0.04 0 0.945 0.04 0 0.95 0.04 0 0.955 0.04 0 0.96 0.04 0 0.965 0.04 0 0.97 0.04 0 0.975 0.04 0 0.98 0.04 0 0.985 0.04 0 0.99 0.04 0 0.995 0.04 0 1 0.04 0 0 0.06 0 0.005 0.06 0 0.01 0.06 0 0.015 0.06 0 0.02 0.06 0 0.025 0.06 0 0.03 0.06 0 0.035 0.06 0 0.04 0.06 0 0.045 0.06 0 0.05 0.06 0 0.055 0.06 0 0.06 0.06 0 0.065 0.06 0 0.07 0.06 0 0.075 0.06 0 0.08 0.06 0 0.085 0.06 0 0.09 0.06 0 0.095 0.06 0 0.1 0.06 0 0.105 0.06 0 0.11 0.06 0 0.115 0.06 0 0.12 0.06 0 0.125 0.06 0 0.13 0.06 0 0.135 0.06 0 0.14 0.06 0 0.145 0.06 0 0.15 0.06 0 0.155 0.06 0 0.16 0.06 0 0.165 0.06 0 0.17 0.06 0 0.175 0.06 0 0.18 0.06 0 0.185 0.06 0 0.19 0.06 0 0.195 0.06 0 0.2 0.06 0 0.205 0.06 0 0.21 0.06 0 0.215 0.06 0 0.22 0.06 0 0.225 0.06 0 0.23 0.06 0 0.235 0.06 0 0.24 0.06 0 0.245 0.06 0 0.25 0.06 0 0.255 0.06 0 0.26 0.06 0 0.265 0.06 0 0.27 0.06 0 0.275001 0.06 0 0.280002 0.06 0 0.285005 0.06 0 0.290011 0.06 0 0.295024 0.06 0 0.300049 0.06 0 0.305093 0.06 0 0.310164 0.06 0 0.315271 0.06 0 0.320427 0.06 0 0.325641 0.06 0 0.330927 0.06 0 0.336295 0.06 0 0.341756 0.06 0 0.347324 0.06 0 0.353009 0.06 0 0.358822 0.06 0 0.364777 0.06 0 0.370885 0.06 0 0.377159 0.06 0 0.383612 0.06 0 0.39026 0.06 0 0.397118 0.06 0 0.404201 0.06 0 0.41153 0.06 0 0.419121 0.06 0 0.426997 0.06 0 0.435179 0.06 0 0.443689 0.06 0 0.452552 0.06 0 0.461787 0.06 0 0.471414 0.06 0 0.481442 0.06 0 0.491869 0.06 0 0.502677 0.06 0 0.513822 0.06 0 0.525243 0.06 0 0.536865 0.06 0 0.548617 0.06 0 0.560445 0.06 0 0.572318 0.05
[...]
			<CellData Scalars="Density">
				<DataArray Name="Density" type="Float32" format="ascii">
 1 1 1 1 1 1 1 1 1 1 1 1 1 1 1 1 1 1 1 1 1 1 1 1 1 1 1 1 1 1 1 1 1 1 1 1 1 1 1 1 1 1 1 1 1 1 1 1 1 0.999999 0.999998 0.999995 0.999987 0.999966 0.999913 0.999777 0.999442 0.998724 0.997354 0.995007 0.991338 0.986047 0.978921 0.969855 0.958857 0.946016 0.931484 0.915438 0.898065 0.879545 0.860037 0.83969 0.818624 0.796949 0.774756 0.752123 0.72913 0.705833 0.682311 0.658625 0.63486 0.611111 0.587499 0.564187 0.541388 0.519397 0.498601 0.479492 0.462642 0.448615 0.437799 0.430221 0.425453 0.422712 0.421116 0.419911 0.418512 0.416234 0.410927 0.39039 0.255386 0.260306 0.259915 0.260134 0.260785 0.261517 0.262024 0.262453 0.262848 0.263162 0.263413 0.263689 0.263908 0.264081 0.264285 0.264619 0.265391 0.265739 0.265516 0.265401 0.265375 0.265325 0.265278 0.265226 0.265217 0.265198 0.265204 0.265218 0.265246 0.265288 0.265275 0.265293 0.265305 0.265325 0.265365 0.265389 0.265383 0.265389 0.265393 0.265401 0.265414 0.265432 0.265518 0.265576 0.265369 0.264694 0.265943 0.270847 0.269444 0.242654 0.166526 0.131689 0.126056 0.125166 0.125026 0.125004 0.125001 0.125 0.125 0.125 0.125 0.125 0.125 0.125 0.125 0.125 0.125 0.125 0.125 0.125 0.125 0.125 0.125 0.125 0.125 0.125 0.125 0.125 0.125 0.125 0.125 0.125 0.125 0.125 0.125 0.125 0.125 0.125 0.125 0.125 0.125 0.125 0.125 0.125 0.125 0.125 0.125 0.125 0.125 0.125 1 1 1 1 1 1 1 1 1 1 1 1 1 1 1 1 1 1 1 1 1 1 1 1 1 1 1 1 1 1 1 1 1 1 1 1 1 1 1 1 1 1 1 1 1 1 1 1 1 0.999999 0.999998 0.999995 0.999987 0.999966 0.999913 0.999777 0.999442 0.998724 0.997354 0.995007 0.991338 0.986047 0.978921 0.969855 0.958857 0.946016 0.931484 0.915438 0.898065 0.879545 0.860037 0.83969 0.818624 0.796949 0.774756 0.752123 0.72913 0.705833 0.682311 0.658625 0.63486 0.611111 0.587499 0.564187 0.541388 0.519397 0.498601 0.479492 0.462642 0.448615 0.437799 0.430221 0.425453 0.422713 0.421117 0.419914 0.418518 0.416245 0.410939 0.390412 0.255385 0.260308 0.259911 0.260166 0.260778 0.261525 0.262036 0.262457 0.262841 0.263181 0.263421 0.263668 0.263934 0.264044 0.264288 0.264615 0.265369 0.265747 0.265588 0.265418 0.265371 0.265323 0.265262 0.265256 0.265179 0.265237 0.265222 0.265224 0.265261 0.26527 0.265298 0.265279 0.265304 0.265325 0.265346 0.265348 0.265375 0.265394 0.265391 0.26537 0.265395 0.265422 0.265588 0.265454 0.265286 0.264587 0.266166 0.27143 0.269475 0.241346 0.166094 0.1317 0.126061 0.125167 0.125026 0.125004 0.125001 0.125 0.125 0.125 0.125 0.125 0.125 0.125 0.125 0.125 0.125 0.125 0.125 0.125 0.125 0.125 0.125 0.125 0.125 0.125 0.125 0.125 0.125 0.125 0.125 0.125 0.125 0.125 0.125 0.125 0.125 0.125 0.125 0.125 0.125 0.125 0.125 0.125 0.125 0.125 0.125 0.125 0.125 0.125 1 1 1 1 1 1 1 1 1 1 1 1 1 1 1 1 1 1 1 1 1 1 1 1 1 1 1 1 1 1 1 1 1 1 1 1 1 1 1 1 1 1 1 1 1 1 1 1 1 0.999999 0.999998 0.999995 0.999987 0.999966 0.999913 0.999777 0.999442 0.998724 0.997354 0.995007 0.991338 0.986047 0.978921 0.969855 0.958857 0.946016 0.931484 0.915438 0.898065 0.879545 0.860037 0.83969 0.818624 0.796949 0.774756 0.752123 0.72913 0.705833 0.682311 0.658625 0.63486 0.611111 0.587499 0.564187 0.541388 0.519397 0.498601 0.479492 0.462642 0.448615 0.437799 0.430222 0.425454 0.422714 0.421121 0.419921 0.418528 0.416256 0.410949 0.390421 0.255421 0.260318 0.259906 0.26014 0.260771 0.261524 0.262039 0.262487 0.262841 0.263149 0.263416 0.2637 0.263931 0.264118 0.264242 0.264664 0.265191 0.265813 0.265441 0.265374 0.265338 0.265354 0.265285 0.265285 0.265231 0.265226 0.265264 0.265241 0.2653 0.265257 0.265292 0.265298 0.265359 0.265345 0.265325 0.265356 0.265365 0.265491 0.265476 0.265418 0.265352 0.265474 0.265576 0.265363 0.264698 0.264331 0.266304 0.271398 0.269585 0.240958 0.166291 0.131751 0.126067 0.125167 0.125026 0.125004 0.125001 0.125 0.125 0.125 0.125 0.125 0.125 0.125 0.125 0.125 0.125 0.125 0.125 0.125 0.125 0.125 0.125 0.125 0.125 0.125 0.125 0.125 0.125 0.125 0.125 0.125 0.125 0.125 0.125 0.125 0.125 0.125 0.125 0.125 0.125 0.125 0.125 0.125 0.125 0.125 0.125 0.125 0.125 0.125 1 1 1 1 1 1 1 1 1 1 1 1 1 1 1 1 1 1 1 1 1 1 1 1 1 1 1 1 1 1 1 1 1 1 1 1 1 1 1 1 1 1 1 1 1 1 1 1 1 0.999999 0.999998 0.999995 0.999987 0.999966 0.999913 0.999777 0.999442 0.998724 0.997354 0.995007 0.991338 0.986047 0.978921 0.969855 0.958857 0.946016 0.931484 0.915438 0.898065 0.879545 0.860037 0.83969 0.818624 0.796949 0.774756 0.752123 0.72913 0.705833 0.682311 0.658625 0.63486 0.611111 0.587499 0.564187 0.541388 0.519397 0.498601 0.479492 0.462642 0.448615 0.437799 0.430222 0.425455 0.422717 0.421126 0.419928 0.418534 0.41626 0.410949 0.39041 0.255411 0.26032 0.25991 0.260153 0.260789 0.261542 0.262064 0.262481 0.262864 0.263164 0.263434 0.26374 0.263932 0.264099 0.264245 0.264528 0.265249 0.265762 0.265588 0.265466 0.265433 0.265345 0.26532 0.265279 0.265258 0.26526 0.265254 0.265313 0.265298 0.265331 0.265309 0.265346 0.26538 0.265392 0.265408 0.265436 0.265441 0.265523 0.265561 0.265537 0.265441 0.265562 0.265817 0.265819 0.265096 0.26455 0.26632 0.270346 0.268542 0.242506 0.167244 0.131796 0.126069 0.125167 0.125026 0.125004 0.125001 0.125 0.125 0.125 0.125 0.125 0.125 0.125 0.125 0.125 0.125 0.125 0.125 0.125 0.125 0.125 0.125 0.125 0.125 0.125 0.125 0.125 0.125 0.125 0.125 0.125 0.125 0.125 0.125 0.125 0.125 0.125 0.125 0.125 0.125 0.125 0.125 0.125 0.125 0.125 0.125 0.125 0.125 0.125 1 1 1 1 1 1 1 1 1 1 1 1 1 1 1 1 1 1 1 1 1 1 1 1 1 1 1 1 1 1 1 1 1 1 1 1 1 1 1 1 1 1 1 1 1 1 1 1 1 0.999999 0.999998 0.999995 0.999987 0.999966 0.999913 0.999777 0.999442 0.998724 0.997354 0.995007 0.991338 0.986047 0.978921 0.969855 0.958857 0.946016 0.931484 0.915438 0.898065 0.879545 0.860037 0.83969 0.818624 0.796949 0.774756 0.752123 0.72913 0.705833 0.682311 0.658625 0.63486 0.611111 0.587499 0.564187 0.541388 0.519397 0.498601 0.479492 0.462642 0.448615 0.4378 0.430223 0.425456 0.422719 0.421129 0.41993 0.418535 0.416259 0.410942 0.390376 0.255362 0.260288 0.259898 0.260144 0.260771 0.261524 0.262035 0.262475 0.262877 0.263209 0.263469 0.263737 0.263955 0.264107 0.264303 0.264548 0.265276 0.265745 0.265571 0.265427 0.26538 0.265323 0.265291 0.265249 0.265224 0.265226 0.265245 0.265255 0.265294 0.265306 0.265315 0.265314 0.265335 0.265372 0.265394 0.26541 0.265429 0.26544 0.265465 0.265478 0.265508 0.265601 0.265807 0.265743 0.265326 0.264744 0.266335 0.27086 0.268136 0.240381 0.165986 0.13171 0.126064 0.125167 0.125026 0.125004 0.125001 0.125 0.125 0.125 0.125 0.125 0.125 0.125 0.125 0.125 0.125 0.125 0.125 0.125 0.125 0.125 0.125 0.125 0.125 0.125 0.125 0.125 0.125 0.125 0.125 0.125 0.125 0.125 0.125 0.125 0.125 0.125 0.125 0.125 0.125 0.125 0.125 0.125 0.125 0.125 0.125 0.125 0.125 0.125
				</DataArray>
				<DataArray Name="Energy" type="Float32" format="ascii">
 2.5 2.5 2.5 2.5 2.5 2.5 2.5 2.5 2.5 2.5 2.5 2.5 2.5 2.5 2.5 2.5 2.5 2.5 2.5 2.5 2.5 2.5 2.5 2.5 2.5 2.5 2.5 2.5 2.5 2.5 2.5 2.5 2.5 2.5 2.5 2.5 2.5 2.5 2.5 2.5 2.5 2.5 2.5 2.5 2.5 2.5 2.5 2.5 2.5 2.5 2.5 2.5 2.49999 2.49997 2.49991 2.49978 2.49944 2.49872 2.49735 2.495 2.49133 2.48602 2.47884 2.46968 2.45852 2.4454 2.43044 2.41379 2.39558 2.37596 2.35505 2.33296 2.30978 2.28558 2.26043 2.23437 2.20744 2.17968 2.15114 2.12184 2.09187 2.06131 2.03028 1.99899 1.96771 1.93689 1.90713 1.87928 1.85435 1.83348 1.81759 1.80704 1.80145 1.79983 1.80104 1.80438 1.81001 1.81986 1.84339 1.94041 2.96631 2.91032 2.91493 2.91218 2.90534 2.89703 2.89137 2.88667 2.88231 2.87883 2.87603 2.87309 2.87066 2.86907 2.86691 2.86319 2.85468 2.85113 2.85358 2.85491 2.85525 2.85583 2.85637 2.85677 2.85718 2.85702 2.85687 2.8566 2.85621 2.85588 2.85591 2.85566 2.85536 2.85507 2.85473 2.85452 2.85463 2.85447 2.85428 2.85405 2.85375 2.85367 2.85413 2.85436 2.85334 2.85024 2.85537 2.876 2.86924 2.74233 2.29355 2.04433 2.0068 2.00106 2.00017 2.00003 2 2 2 2 2 2 2 2 2 2 2 2 2 2 2 2 2 2 2 2 2 2 2 2 2 2 2 2 2 2 2 2 2 2 2 2 2 2 2 2 2 2 2 2 2.5 2.5 2.5 2.5 2.5 2.5 2.5 2.5 2.5 2.5 2.5 2.5 2.5 2.5 2.5 2.5 2.5 2.5 2.5 2.5 2.5 2.5 2.5 2.5 2.5 2.5 2.5 2.5 2.5 2.5 2.5 2.5 2.5 2.5 2.5 2.5 2.5 2.5 2.5 2.5 2.5 2.5 2.5 2.5 2.5 2.5 2.5 2.5 2.5 2.5 2.5 2.5 2.49999 2.49997 2.49991 2.49978 2.49944 2.49872 2.49735 2.495 2.49133 2.48602 2.47884 2.46968 2.45852 2.4454 2.43044 2.41379 2.39558 2.37596 2.35505 2.33296 2.30978 2.28558 2.26043 2.23437 2.20744 2.17968 2.15114 2.12184 2.09187 2.06131 2.03028 1.99899 1.96771 1.93689 1.90713 1.87928 1.85435 1.83348 1.81759 1.80704 1.80145 1.79983 1.80105 1.80439 1.81002 1.81987 1.84341 1.94046 2.96631 2.91033 2.91491 2.91233 2.90531 2.89706 2.89143 2.88668 2.88228 2.87891 2.87607 2.873 2.87077 2.86897 2.86709 2.86409 2.85543 2.85025 2.85277 2.85441 2.85512 2.85601 2.85638 2.85683 2.8569 2.8572 2.85696 2.85666 2.85633 2.85599 2.85605 2.8558 2.85557 2.85526 2.85485 2.85466 2.85469 2.85484 2.85464 2.85423 2.85405 2.85413 2.85462 2.8543 2.85351 2.85023 2.85693 2.87916 2.87005 2.73672 2.29061 2.04439 2.00684 2.00107 2.00017 2.00003 2 2 2 2 2 2 2 2 2 2 2 2 2 2 2 2 2 2 2 2 2 2 2 2 2 2 2 2 2 2 2 2 2 2 2 2 2 2 2 2 2 2 2 2 2.5 2.5 2.5 2.5 2.5 2.5 2.5 2.5 2.5 2.5 2.5 2.5 2.5 2.5 2.5 2.5 2.5 2.5 2.5 2.5 2.5 2.5 2.5 2.5 2.5 2.5 2.5 2.5 2.5 2.5 2.5 2.5 2.5 2.5 2.5 2.5 2.5 2.5 2.5 2.5 2.5 2.5 2.5 2.5 2.5 2.5 2.5 2.5 2.5 2.5 2.5 2.5 2.49999 2.49997 2.49991 2.49978 2.49944 2.49872 2.49735 2.495 2.49133 2.48602 2.47884 2.46968 2.45852 2.4454 2.43044 2.41379 2.39558 2.37596 2.35505 2.33296 2.30978 2.28558 2.26043 2.23437 2.20744 2.17968 2.15114 2.12184 2.09187 2.06131 2.03028 1.99899 1.96771 1.93689 1.90713 1.87928 1.85435 1.83348 1.81759 1.80704 1.80145 1.79983 1.80105 1.8044 1.81003 1.81989 1.84343 1.94048 2.96647 2.91037 2.91488 2.91221 2.90528 2.89706 2.89144 2.88682 2.88228 2.87877 2.87605 2.87314 2.87077 2.86924 2.86669 2.86412 2.85542 2.85218 2.85351 2.85499 2.85516 2.85581 2.85628 2.85686 2.85713 2.85711 2.8571 2.85672 2.85652 2.856 2.85619 2.856 2.85589 2.85544 2.85489 2.85489 2.85498 2.85548 2.85515 2.85461 2.85409 2.85459 2.85496 2.85422 2.85118 2.84938 2.85781 2.8793 2.87102 2.73553 2.29196 2.04474 2.00687 2.00107 2.00017 2.00003 2 2 2 2 2 2 2 2 2 2 2 2 2 2 2 2 2 2 2 2 2 2 2 2 2 2 2 2 2 2 2 2 2 2 2 2 2 2 2 2 2 2 2 2 2.5 2.5 2.5 2.5 2.5 2.5 2.5 2.5 2.5 2.5 2.5 2.5 2.5 2.5 2.5 2.5 2.5 2.5 2.5 2.5 2.5 2.5 2.5 2.5 2.5 2.5 2.5 2.5 2.5 2.5 2.5 2.5 2.5 2.5 2.5 2.5 2.5 2.5 2.5 2.5 2.5 2.5 2.5 2.5 2.5 2.5 2.5 2.5 2.5 2.5 2.5 2.5 2.49999 2.49997 2.49991 2.49978 2.49944 2.49872 2.49735 2.495 2.49133 2.48602 2.47884 2.46968 2.45852 2.4454 2.43044 2.41379 2.39558 2.37596 2.35505 2.33296 2.30978 2.28558 2.26043 2.23437 2.20744 2.17968 2.15114 2.12184 2.09187 2.06131 2.03028 1.99899 1.96771 1.93689 1.90713 1.87928 1.85435 1.83348 1.81759 1.80704 1.80145 1.79984 1.80106 1.80441 1.81004 1.8199 1.84343 1.94045 2.96642 2.91038 2.9149 2.91227 2.90536 2.89714 2.89155 2.88679 2.88239 2.87883 2.87613 2.87332 2.87077 2.86921 2.86689 2.8645 2.85632 2.85084 2.85277 2.85433 2.85488 2.85549 2.85599 2.85655 2.85675 2.85673 2.85654 2.85653 2.85603 2.85585 2.85565 2.85547 2.85529 2.85498 2.85459 2.85445 2.85445 2.85456 2.8545 2.85414 2.85334 2.8537 2.85485 2.85469 2.85146 2.84892 2.8562 2.8729 2.86498 2.741 2.29811 2.04505 2.00688 2.00107 2.00017 2.00003 2 2 2 2 2 2 2 2 2 2 2 2 2 2 2 2 2 2 2 2 2 2 2 2 2 2 2 2 2 2 2 2 2 2 2 2 2 2 2 2 2 2 2 2 2.5 2.5 2.5 2.5 2.5 2.5 2.5 2.5 2.5 2.5 2.5 2.5 2.5 2.5 2.5 2.5 2.5 2.5 2.5 2.5 2.5 2.5 2.5 2.5 2.5 2.5 2.5 2.5 2.5 2.5 2.5 2.5 2.5 2.5 2.5 2.5 2.5 2.5 2.5 2.5 2.5 2.5 2.5 2.5 2.5 2.5 2.5 2.5 2.5 2.5 2.5 2.5 2.49999 2.49997 2.49991 2.49978 2.49944 2.49872 2.49735 2.495 2.49133 2.48602 2.47884 2.46968 2.45852 2.4454 2.43044 2.41379 2.39558 2.37596 2.35505 2.33296 2.30978 2.28558 2.26043 2.23437 2.20744 2.17968 2.15114 2.12184 2.09187 2.06131 2.03028 1.99899 1.96771 1.93689 1.90713 1.87928 1.85435 1.83348 1.81759 1.80704 1.80146 1.79984 1.80107 1.80442 1.81005 1.8199 1.84342 1.94039 2.9662 2.91023 2.91485 2.91223 2.90528 2.89706 2.89142 2.88677 2.88244 2.87903 2.87628 2.8733 2.87088 2.86921 2.86697 2.86422 2.85648 2.85142 2.85335 2.85489 2.85536 2.85598 2.85633 2.85685 2.85715 2.85716 2.85707 2.85683 2.85661 2.85641 2.8563 2.85608 2.85587 2.85565 2.85535 2.85525 2.8553 2.85528 2.85519 2.85499 2.85482 2.85522 2.85611 2.85589 2.85401 2.85133 2.85794 2.87708 2.86508 2.73125 2.2897 2.04446 2.00686 2.00107 2.00017 2.00003 2 2 2 2 2 2 2 2 2 2 2 2 2 2 2 2 2 2 2 2 2 2 2 2 2 2 2 2 2 2 2 2 2 2 2 2 2 2 2 2 2 2 2 2
				</DataArray>
				<DataArray Name="F1" type="Float32" format="ascii">
 1 1 1 1 1 1 1 1 1 1 1 1 1 1 1 1 1 1 1 1 1 1 1 1 1 1 1 1 1 1 1 1 1 1 1 1 1 1 1 1 1 1 1 1 1 1 1 1 1 1 1 1 1 1 1 1 1 1 1 1 1 1 1 1 1 1 1 1 1 1 1 1 1 1 1 1 1 1 1 1 1 1 1 1 1 1 1 1 1 1 1 1 1 1 1 1 1 1 1 1 0 0 0 0 0 0 0 0 0 0 0 0 0 0 0 0 0 0 0 0 0 0 0 0 0 0 0 0 0 0 0 0 0 0 0 0 0 0 0 0 0 0 0 0 0 0 0 0 0 0 0 0 0 0 0 0 0 0 0 0 0 0 0 0 0 0 0 0 0 0 0 0 0 0 0 0 0 0 0 0 0 0 0 0 0 0 0 0 0 0 0 0 0 0 0 0 0 0 0 0 1 1 1 1 1 1 1 1 1 1 1 1 1 1 1 1 1 1 1 1 1 1 1 1 1 1 1 1 1 1 1 1 1 1 1 1 1 1 1 1 1 1 1 1 1 1 1 1 1 1 1 1 1 1 1 1 1 1 1 1 1 1 1 1 1 1 1 1 1 1 1 1 1 1 1 1 1 1 1 1 1 1 1 1 1 1 1 1 1 1 1 1 1 1 1 1 1 1 1 1 0 0 0 0 0 0 0 0 0 0 0 0 0 0 0 0 0 0 0 0 0 0 0 0 0 0 0 0 0 0 0 0 0 0 0 0 0 0 0 0 0 0 0 0 0 0 0 0 0 0 0 0 0 0 0 0 0 0 0 0 0 0 0 0 0 0 0 0 0 0 0 0 0 0 0 0 0 0 0 0 0 0 0 0 0 0 0 0 0 0 0 0 0 0 0 0 0 0 0 0 1 1 1 1 1 1 1 1 1 1 1 1 1 1 1 1 1 1 1 1 1 1 1 1 1 1 1 1 1 1 1 1 1 1 1 1 1 1 1 1 1 1 1 1 1 1 1 1 1 1 1 1 1 1 1 1 1 1 1 1 1 1 1 1 1 1 1 1 1 1 1 1 1 1 1 1 1 1 1 1 1 1 1 1 1 1 1 1 1 1 1 1 1 1 1 1 1 1 1 1 0 0 0 0 0 0 0 0 0 0 0 0 0 0 0 0 0 0 0 0 0 0 0 0 0 0 0 0 0 0 0 0 0 0 0 0 0 0 0 0 0 0 0 0 0 0 0 0 0 0 0 0 0 0 0 0 0 0 0 0 0 0 0 0 0 0 0 0 0 0 0 0 0 0 0 0 0 0 0 0 0 0 0 0 0 0 0 0 0 0 0 0 0 0 0 0 0 0 0 0 1 1 1 1 1 1 1 1 1 1 1 1 1 1 1 1 1 1 1 1 1 1 1 1 1 1 1 1 1 1 1 1 1 1 1 1 1 1 1 1 1 1 1 1 1 1 1 1 1 1 1 1 1 1 1 1 1 1 1 1 1 1 1 1 1 1 1 1 1 1 1 1 1 1 1 1 1 1 1 1 1 1 1 1 1 1 1 1 1 1 1 1 1 1 1 1 1 1 1 1 0 0 0 0 0 0 0 0 0 0 0 0 0 0 0 0 0 0 0 0 0 0 0 0 0 0 0 0 0 0 0 0 0 0 0 0 0 0 0 0 0 0 0 0 0 0 0 0 0 0 0 0 0 0 0 0 0 0 0 0 0 0 0 0 0 0 0 0 0 0 0 0 0 0 0 0 0 0 0 0 0 0 0 0 0 0 0 0 0 0 0 0 0 0 0 0 0 0 0 0 1 1 1 1 1 1 1 1 1 1 1 1 1 1 1 1 1 1 1 1 1 1 1 1 1 1 1 1 1 1 1 1 1 1 1 1 1 1 1 1 1 1 1 1 1 1 1 1 1 1 1 1 1 1 1 1 1 1 1 1 1 1 1 1 1 1 1 1 1 1 1 1 1 1 1 1 1 1 1 1 1 1 1 1 1 1 1 1 1 1 1 1 1 1 1 1 1 1 1 1 0 0 0 0 0 0 0 0 0 0 0 0 0 0 0 0 0 0 0 0 0 0 0 0 0 0 0 0 0 0 0 0 0 0 0 0 0 0 0 0 0 0 0 0 0 0 0 0 0 0 0 0 0 0 0 0 0 0 0 0 0 0 0 0 0 0 0 0 0 0 0 0 0 0 0 0 0 0 0 0 0 0 0 0 0 0 0 0 0 0 0 0 0 0 0 0 0 0 0 0
				</DataArray>
				<DataArray Name="F2" type="Float32" format="ascii">
 0 0 0 0 0 0 0 0 0 0 0 0 0 0 0 0 0 0 0 0 0 0 0 0 0 0 0 0 0 0 0 0 0 0 0 0 0 0 0 0 0 0 0 0 0 0 0 0 0 0 0 0 0 0 0 0 0 0 0 0 0 0 0 0 0 0 0 0 0 0 0 0 0 0 0 0 0 0 0 0 0 0 0 0 0 0 0 0 0 0 0 0 0 0 0 0 0 0 0 0 1 1 1 1 1 1 1 1 1 1 1 1 1 1 1 1 1 1 1 1 1 1 1 1 1 1 1 1 1 1 1 1 1 1 1 1 1 1 1 1 1 1 1 1 1 1 1 1 1 1 1 1 1 1 1 1 1 1 1 1 1 1 1 1 1 1 1 1 1 1 1 1 1 1 1 1 1 1 1 1 1 1 1 1 1 1 1 1 1 1 1 1 1 1 1 1 1 1 1 1 0 0 0 0 0 0 0 0 0 0 0 0 0 0 0 0 0 0 0 0 0 0 0 0 0 0 0 0 0 0 0 0 0 0 0 0 0 0 0 0 0 0 0 0 0 0 0 0 0 0 0 0 0 0 0 0 0 0 0 0 0 0 0 0 0 0 0 0 0 0 0 0 0 0 0 0 0 0 0 0 0 0 0 0 0 0 0 0 0 0 0 0 0 0 0 0 0 0 0 0 1 1 1 1 1 1 1 1 1 1 1 1 1 1 1 1 1 1 1 1 1 1 1 1 1 1 1 1 1 1 1 1 1 1 1 1 1 1 1 1 1 1 1 1 1 1 1 1 1 1 1 1 1 1 1 1 1 1 1 1 1 1 1 1 1 1 1 1 1 1 1 1 1 1 1 1 1 1 1 1 1 1 1 1 1 1 1 1 1 1 1 1 1 1 1 1 1 1 1 1 0 0 0 0 0 0 0 0 0 0 0 0 0 0 0 0 0 0 0 0 0 0 0 0 0 0 0 0 0 0 0 0 0 0 0 0 0 0 0 0 0 0 0 0 0 0 0 0 0 0 0 0 0 0 0 0 0 0 0 0 0 0 0 0 0 0 0 0 0 0 0 0 0 0 0 0 0 0 0 0 0 0 0 0 0 0 0 0 0 0 0 0 0 0 0 0 0 0 0 0 1 1 1 1 1 1 1 1 1 1 1 1 1 1 1 1 1 1 1 1 1 1 1 1 1 1 1 1 1 1 1 1 1 1 1 1 1 1 1 1 1 1 1 1 1 1 1 1 1 1 1 1 1 1 1 1 1 1 1 1 1 1 1 1 1 1 1 1 1 1 1 1 1 1 1 1 1 1 1 1 1 1 1 1 1 1 1 1 1 1 1 1 1 1 1 1 1 1 1 1 0 0 0 0 0 0 0 0 0 0 0 0 0 0 0 0 0 0 0 0 0 0 0 0 0 0 0 0 0 0 0 0 0 0 0 0 0 0 0 0 0 0 0 0 0 0 0 0 0 0 0 0 0 0 0 0 0 0 0 0 0 0 0 0 0 0 0 0 0 0 0 0 0 0 0 0 0 0 0 0 0 0 0 0 0 0 0 0 0 0 0 0 0 0 0 0 0 0 0 0 1 1 1 1 1 1 1 1 1 1 1 1 1 1 1 1 1 1 1 1 1 1 1 1 1 1 1 1 1 1 1 1 1 1 1 1 1 1 1 1 1 1 1 1 1 1 1 1 1 1 1 1 1 1 1 1 1 1 1 1 1 1 1 1 1 1 1 1 1 1 1 1 1 1 1 1 1 1 1 1 1 1 1 1 1 1 1 1 1 1 1 1 1 1 1 1 1 1 1 1 0 0 0 0 0 0 0 0 0 0 0 0 0 0 0 0 0 0 0 0 0 0 0 0 0 0 0 0 0 0 0 0 0 0 0 0 0 0 0 0 0 0 0 0 0 0 0 0 0 0 0 0 0 0 0 0 0 0 0 0 0 0 0 0 0 0 0 0 0 0 0 0 0 0 0 0 0 0 0 0 0 0 0 0 0 0 0 0 0 0 0 0 0 0 0 0 0 0 0 0 1 1 1 1 1 1 1 1 1 1 1 1 1 1 1 1 1 1 1 1 1 1 1 1 1 1 1 1 1 1 1 1 1 1 1 1 1 1 1 1 1 1 1 1 1 1 1 1 1 1 1 1 1 1 1 1 1 1 1 1 1 1 1 1 1 1 1 1 1 1 1 1 1 1 1 1 1 1 1 1 1 1 1 1 1 1 1 1 1 1 1 1 1 1 1 1 1 1 1 1
				</DataArray>
				<DataArray Name="F3" type="Float32" format="ascii">
 0 0 0 0 0 0 0 0 0 0 0 0 0 0 0 0 0 0 0 0 0 0 0 0 0 0 0 0 0 0 0 0 0 0 0 0 0 0 0 0 0 0 0 0 0 0 0 0 0 0 0 0 0 0 0 0 0 0 0 0 0 0 0 0 0 0 0 0 0 0 0 0 0 0 0 0 0 0 0 0 0 0 0 0 0 0 0 0 0 0 0 0 0 0 0 0 0 0 0 0 0 0 0 0 0 0 0 0 0 0 0 0 0 0 0 0 0 0 0 0 0 0 0 0 0 0 0 0 0 0 0 0 0 0 0 0 0 0 0 0 0 0 0 0 0 0 0 0 0 0 0 0 0 0 0 0 0 0 0 0 0 0 0 0 0 0 0 0 0 0 0 0 0 0 0 0 0 0 0 0 0 0 0 0 0 0 0 0 0 0 0 0 0 0 0 0 0 0 0 0 0 0 0 0 0 0 0 0 0 0 0 0 0 0 0 0 0 0 0 0 0 0 0 0 0 0 0 0 0 0 0 0 0 0 0 0 0 0 0 0 0 0 0 0 0 0 0 0 0 0 0 0 0 0 0 0 0 0 0 0 0 0 0 0 0 0 0 0 0 0 0 0 0 0 0 0 0 0 0 0 0 0 0 0 0 0 0 0 0 0 0 0 0 0 0 0 0 0 0 0 0 0 0 0 0 0 0 0 0 0 0 0 0 0 0 0 0 0 0 0 0 0 0 0 0 0 0 0 0 0 0 0 0 0 0 0 0 0 0 0 0 0 0 0 0 0 0 0 0 0 0 0 0 0 0 0 0 0 0 0 0 0 0 0 0 0 0 0 0 0 0 0 0 0 0 0 0 0 0 0 0 0 0 0 0 0 0 0 0 0 0 0 0 0 0 0 0 0 0 0 0 0 0 0 0 0 0 0 0 0 0 0 0 0 0 0 0 0 0 0 0 0 0 0 0 0 0 0 0 0 0 0 0 0 0 0 0 0 0 0 0 0 0 0 0 0 0 0 0 0 0 0 0 0 0 0 0 0 0 0 0 0 0 0 0 0 0 0 0 0 0 0 0 0 0 0 0 0 0 0 0 0 0 0 0 0 0 0 0 0 0 0 0 0 0 0 0 0 0 0 0 0 0 0 0 0 0 0 0 0 0 0 0 0 0 0 0 0 0 0 0 0 0 0 0 0 0 0 0 0 0 0 0 0 0 0 0 0 0 0 0 0 0 0 0 0 0 0 0 0 0 0 0 0 0 0 0 0 0 0 0 0 0 0 0 0 0 0 0 0 0 0 0 0 0 0 0 0 0 0 0 0 0 0 0 0 0 0 0 0 0 0 0 0 0 0 0 0 0 0 0 0 0 0 0 0 0 0 0 0 0 0 0 0 0 0 0 0 0 0 0 0 0 0 0 0 0 0 0 0 0 0 0 0 0 0 0 0 0 0 0 0 0 0 0 0 0 0 0 0 0 0 0 0 0 0 0 0 0 0 0 0 0 0 0 0 0 0 0 0 0 0 0 0 0 0 0 0 0 0 0 0 0 0 0 0 0 0 0 0 0 0 0 0 0 0 0 0 0 0 0 0 0 0 0 0 0 0 0 0 0 0 0 0 0 0 0 0 0 0 0 0 0 0 0 0 0 0 0 0 0 0 0 0 0 0 0 0 0 0 0 0 0 0 0 0 0 0 0 0 0 0 0 0 0 0 0 0 0 0 0 0 0 0 0 0 0 0 0 0 0 0 0 0 0 0 0 0 0 0 0 0 0 0 0 0 0 0 0 0 0 0 0 0 0 0 0 0 0 0 0 0 0 0 0 0 0 0 0 0 0 0 0 0 0 0 0 0 0 0 0 0 0 0 0 0 0 0 0 0 0 0 0 0 0 0 0 0 0 0 0 0 0 0 0 0 0 0 0 0 0 0 0 0 0 0 0 0 0 0 0 0 0 0 0 0 0 0 0 0 0 0 0 0 0 0 0 0 0 0 0 0 0 0 0 0 0 0 0 0 0 0 0 0 0 0 0 0 0 0 0 0 0 0 0 0 0 0 0 0 0 0 0 0 0 0 0 0 0 0 0 0 0 0 0 0 0 0 0 0 0 0 0 0 0 0 0 0 0 0 0 0 0 0 0 0 0 0 0 0 0 0 0 0 0 0 0 0 0 0 0 0 0 0 0 0 0 0 0 0 0 0 0 0 0 0 0 0 0 0 0 0 0 0 0 0 0 0 0 0 0 0 0 0 0 0 0 0 0 0
				</DataArray>
				<DataArray Name="Pressure" type="Float32" format="ascii">