<?xml version="1.0"?>
<VTKFile type="PolyData">
	<PolyData>
		<Piece NumberOfPoints="1206" NumberOfPolys="1000">
			<Points>
				<DataArray type="Float32" NumberOfComponents="3" format="ascii">
 0 0 0 0.005 0 0 0.01 0 0 0.015 0 0 0.02 0 0 0.025 0 0 0.03 0 0 0.035 0 0 0.04 0 0 0.045 0 0 0.05 0 0 0.055 0 0 0.06 0 0 0.065 0 0 0.07 0 0 0.075 0 0 0.08 0 0 0.085 0 0 0.09 0 0 0.095 0 0 0.1 0 0 0.105 0 0 0.11 0 0 0.115 0 0 0.12 0 0 0.125 0 0 0.13 0 0 0.135 0 0 0.14 0 0 0.145 0 0 0.15 0 0 0.155 0 0 0.16 0 0 0.165 0 0 0.17 0 0 0.175 0 0 0.18 0 0 0.185 0 0 0.19 0 0 0.195 0 0 0.2 0 0 0.205 0 0 0.21 0 0 0.215 0 0 0.22 0 0 0.225 0 0 0.23 0 0 0.235 0 0 0.24 0 0 0.245 0 0 0.25 0 0 0.255 0 0 0.26 0 0 0.265 0 0 0.27 0 0 0.275 0 0 0.28 0 0 0.285 0 0 0.29 0 0 0.295 0 0 0.3 0 0 0.305 0 0 0.31 0 0 0.315 0 0 0.32 0 0 0.325 0 0 0.330001 0 0 0.335002 0 0 0.340005 0 0 0.345012 0 0 0.350029 0 0 0.355065 0 0 0.360131 0 0 0.365242 0 0 0.370417 0 0 0.375675 0 0 0.381035 0 0 0.386517 0 0 0.392143 0 0 0.397934 0 0 0.403911 0 0 0.410099 0 0 0.416521 0 0 0.423204 0 0 0.430178 0 0 0.437475 0 0 0.445129 0 0 0.453178 0 0 0.461662 0 0 0.470621 0 0 0.480087 0 0 0.490082 0 0 0.5006 0 0 0.511595 0 0 0.522981 0 0 0.534643 0 0 0.546474 0 0 0.558403 0 0 0.570414 0 0 0.582584 0 0 0.595392 0 0 0.597839 0 0 0.600242 0 0 0.602647 0 0 0.605053 0 0 0.607453 0 0 0.609846 0 0 0.612234 0 0 0.614617 0 0 0.616995 0 0 0.619364 0 0 0.621726 0 0 0.624094 0 0 0.626438 0 0 0.628784 0 0 0.631028 0 0 0.633176 0 0 0.635324 0 0 0.637602 0 0 0.639981 0 0 0.642383 0 0 0.644759 0 0 0.647118 0 0 0.649477 0 0 0.651838 0 0 0.6542 0 0 0.656559 0 0 0.658914 0 0 0.661267 0 0 0.663617 0 0 0.665971 0 0 0.668331 0 0 0.670701 0 0 0.673064 0 0 0.675377 0 0 0.677943 0 0 0.680936 0 0 0.68518 0 0 0.690029 0 0 0.695004 0 0 0.700001 0 0 0.705 0 0 0.71 0 0 0.715 0 0 0.72 0 0 0.725 0 0 0.73 0 0 0.735 0 0 0.74 0 0 0.745 0 0 0.75 0 0 0.755 0 0 0.76 0 0 0.765 0 0 0.77 0 0 0.775 0 0 0.78 0 0 0.785 0 0 0.79 0 0 0.795 0 0 0.8 0 0 0.805 0 0 0.81 0 0 0.815 0 0 0.82 0 0 0.825 0 0 0.83 0 0 0.835 0 0 0.84 0 0 0.845 0 0 0.85 0 0 0.855 0 0 0.86 0 0 0.865 0 0 0.87 0 0 0.875 0 0 0.88 0 0 0.885 0 0 0.89 0 0 0.895 0 0 0.9 0 0 0.905 0 0 0.91 0 0 0.915 0 0 0.92 0 0 0.925 0 0 0.93 0 0 0.935 0 0 0.94 0 0 0.945 0 0 0.95 0 0 0.955 0 0 0.96 0 0 0.965 0 0 0.97 0 0 0.975 0 0 0.98 0 0 0.985 0 0 0.99 0 0 0.995 0 0 1 0 0 0 0.02 0 0.005 0.02 0 0.01 0.02 0 0.015 0.02 0 0.02 0.02 0 0.025 0.02 0 0.03 0.02 0 0.035 0.02 0 0.04 0.02 0 0.045 0.02 0 0.05 0.02 0 0.055 0.02 0 0.06 0.02 0 0.065 0.02 0 0.07 0.02 0 0.075 0.02 0 0.08 0.02 0 0.085 0.02 0 0.09 0.02 0 0.095 0.02 0 0.1 0.02 0 0.105 0.02 0 0.11 0.02 0 0.115 0.02 0 0.12 0.02 0 0.125 0.02 0 0.13 0.02 0 0.135 0.02 0 0.14 0.02 0 0.145 0.02 0 0.15 0.02 0 0.155 0.02 0 0.16 0.02 0 0.165 0.02 0 0.17 0.02 0 0.175 0.02 0 0.18 0.02 0 0.185 0.02 0 0.19 0.02 0 0.195 0.02 0 0.2 0.02 0 0.205 0.02 0 0.21 0.02 0 0.215 0.02 0 0.22 0.02 0 0.225 0.02 0 0.23 0.02 0 0.235 0.02 0 0.24 0.02 0 0.245 0.02 0 0.25 0.02 0 0.255 0.02 0 0.26 0.02 0 0.265 0.02 0 0.27 0.02 0 0.275 0.02 0 0.28 0.02 0 0.285 0.02 0 0.29 0.02 0 0.295 0.02 0 0.3 0.02 0 0.305 0.02 0 0.31 0.02 0 0.315 0.02 0 0.32 0.02 0 0.325 0.02 0 0.330001 0.02 0 0.335002 0.02 0 0.340005 0.02 0 0.345012 0.02 0 0.350029 0.02 0 0.355065 0.02 0 0.360131 0.02 0 0.365242 0.02 0 0.370417 0.02 0 0.375675 0.02 0 0.381035 0.02 0 0.386517 0.02 0 0.392143 0.02 0 0.397934 0.02 0 0.403911 0.02 0 0.410099 0.02 0 0.416521 0.02 0 0.423204 0.02 0 0.430178 0.02 0 0.437475 0.02 0 0.445129 0.02 0 0.453178 0.02 0 0.461662 0.02 0 0.470621 0.02 0 0.480087 0.02 0 0.490082 0.02 0 0.5006 0.02 0 0.511595 0.02 0 0.522981 0.02 0 0.534643 0.02 0 0.546474 0.02 0 0.558403 0.02 0 0.570414 0.02 0 0.582583 0.02 0 0.595389 0.0199997 0 0.597836 0.0199993 0 0.600237 0.0199987 0 0.602642 0.0199979 0 0.605044 0.0199961 0 0.60744 0.0199949 0 0.60983 0.0199941 0 0.612216 0.0199938 0 0.614599 0.0199942 0 0.616979 0.0199963 0 0.619362 0.0199991 0 0.621745 0.0200019 0 0.624116 0.020004 0 0.626507 0.0200085 0 0.62889 0.0200089 0 0.631371 0.0200149 0 0.633941 0.0200085 0 0.636503 0.0199926 0 0.638934 0.0199874 0 0.64127 0.0199817 0 0.643587 0.0199844 0 0.645928 0.0199909 0 0.648283 0.0199975 0 0.650636 0.0199997 0 0.652987 0.020001 0 0.655336 0.0200031 0 0.657687 0.020004 0 0.660043 0.0200044 0 0.662398 0.0200051 0 0.664752 0.020005 0 0.667101 0.0200048 0 0.669453 0.0200046 0 0.6718 0.0200045 0 0.674111 0.020004 0 0.676378 0.0200027 0 0.678557 0.0200011 0 0.681068 0.0200001 0 0.68518 0.02 0 0.690029 0.02 0 0.695005 0.02 0 0.700001 0.02 0 0.705 0.02 0 0.71 0.02 0 0.715 0.02 0 0.72 0.02 0 0.725 0.02 0 0.73 0.02 0 0.735 0.02 0 0.74 0.02 0 0.745 0.02 0 0.75 0.02 0 0.755 0.02 0 0.76 0.02 0 0.765 0.02 0 0.77 0.02 0 0.775 0.02 0 0.78 0.02 0 0.785 0.02 0 0.79 0.02 0 0.795 0.02 0 0.8 0.02 0 0.805 0.02 0 0.81 0.02 0 0.815 0.02 0 0.82 0.02 0 0.825 0.02 0 0.83 0.02 0 0.835 0.02 0 0.84 0.02 0 0.845 0.02 0 0.85 0.02 0 0.855 0.02 0 0.86 0.02 0 0.865 0.02 0 0.87 0.02 0 0.875 0.02 0 0.88 0.02 0 0.885 0.02 0 0.89 0.02 0 0.895 0.02 0 0.9 0.02 0 0.905 0.02 0 0.91 0.02 0 0.915 0.02 0 0.92 0.02 0 0.925 0.02 0 0.93 0.02 0 0.935 0.02 0 0.94 0.02 0 0.945 0.02 0 0.95 0.02 0 0.955 0.02 0 0.96 0.02 0 0.965 0.02 0 0.97 0.02 0 0.975 0.02 0 0.98 0.02 0 0.985 0.02 0 0.99 0.02 0 0.995 0.02 0 1 0.02 0 0 0.04 0 0.005 0.04 0 0.01 0.04 0 0.015 0.04 0 0.02 0.04 0 0.025 0.04 0 0.03 0.04 0 0.035 0.04 0 0.04 0.04 0 0.045 0.04 0 0.05 0.04 0 0.055 0.04 0 0.06 0.04 0 0.065 0.04 0 0.07 0.04 0 0.075 0.04 0 0.08 0.04 0 0.085 0.04 0 0.09 0.04 0 0.095 0.04 0 0.1 0.04 0 0.105 0.04 0 0.11 0.04 0 0.115 0.04 0 0.12 0.04 0 0.125 0.04 0 0.13 0.04 0 0.135 0.04 0 0.14 0.04 0 0.145 0.04 0 0.15 0.04 0 0.155 0.04 0 0.16 0.04 0 0.165 0.04 0 0.17 0.04 0 0.175 0.04 0 0.18 0.04 0 0.185 0.04 0 0.19 0.04 0 0.195 0.04 0 0.2 0.04 0 0.205 0.04 0 0.21 0.04 0 0.215 0.04 0 0.22 0.04 0 0.225 0.04 0 0.23 0.04 0 0.235 0.04 0 0.24 0.04 0 0.245 0.04 0 0.25 0.04 0 0.255 0.04 0 0.26 0.04 0 0.265 0.04 0 0.27 0.04 0 0.275 0.04 0 0.28 0.04 0 0.285 0.04 0 0.29 0.04 0 0.295 0.04 0 0.3 0.04 0 0.305 0.04 0 0.31 0.04 0 0.315 0.04 0 0.32 0.04 0 0.325 0.04 0 0.330001 0.04 0 0.335002 0.04 0 0.340005 0.04 0 0.345012 0.04 0 0.350029 0.04 0 0.355065 0.04 0 0.360131 0.04 0 0.365242 0.04 0 0.370417 0.04 0 0.375675 0.04 0 0.381035 0.04 0 0.386517 0.04 0 0.392143 0.04 0 0.397934 0.04 0 0.403911 0.04 0 0.410099 0.04 0 0.416521 0.04 0 0.423204 0.04 0 0.430178 0.04 0 0.437475 0.04 0 0.445129 0.04 0 0.453178 0.04 0 0.461662 0.04 0 0.470621 0.04 0 0.480087 0.04 0 0.490082 0.04 0 0.5006 0.04 0 0.511595 0.04 0 0.522981 0.04 0 0.534643 0.04 0 0.546473 0.04 0 0.558403 0.04 0 0.570414 0.0399999 0 0.582583 0.0399998 0 0.595392 0.0399984 0 0.59784 0.0399976 0 0.600242 0.0399976 0 0.602647 0.039998 0 0.60505 0.0399983 0 0.607446 0.0399981 0 0.609834 0.0399979 0 0.612217 0.0399965 0 0.614596 0.0399961 0 0.616971 0.0399965 0 0.619339 0.0399991 0 0.621701 0.0399991 0 0.624074 0.0400019 0 0.626421 0.0400055 0 0.628775 0.0400046 0 0.631024 0.040018 0 0.633175 0.0400228 0 0.635316 0.040012 0 0.637582 0.039996 0 0.639947 0.0399925 0 0.642336 0.0399911 0 0.644702 0.0399938 0 0.647058 0.0399968 0 0.649417 0.0399973 0 0.651779 0.0399993 0 0.654143 0.0400008 0 0.656505 0.0400004 0 0.658862 0.040002 0 0.661218 0.0400027 0 0.66357 0.0400022 0 0.66593 0.0399996 0 0.668296 0.0399961 0 0.670673 0.039995 0 0.673038 0.0399958 0 0.675353 0.0399966 0 0.677923 0.0399983 0 0.680934 0.0399997 0 0.68518 0.04 0 0.690029 0.04 0 0.695005 0.04 0 0.700001 0.04 0 0.705 0.04 0 0.71 0.04 0 0.715 0.04 0 0.72 0.04 0 0.725 0.04 0 0.73 0.04 0 0.735 0.04 0 0.74 0.04 0 0.745 0.04 0 0.75 0.04 0 0.755 0.04 0 0.76 0.04 0 0.765 0.04 0 0.77 0.04 0 0.775 0.04 0 0.78 0.04 0 0.785 0.04 0 0.79 0.04 0 0.795 0.04 0 0.8 0.04 0 0.805 0.04 0 0.81 0.04 0 0.815 0.04 0 0.82 0.04 0 0.825 0.04 0 0.83 0.04 0 0.835 0.04 0 0.84 0.04 0 0.845 0.04 0 0.85 0.04 0 0.855 0.04 0 0.86 0.04 0 0.865 0.04 0 0.87 0.04 0 0.875 0.04 0 0.88 0.04 0 0.885 0.04 0 0.89 0.04 0 0.895 0.04 0 0.9 0.04 0 0.905 0.04 0 0.91 0.04 0 0.915 0.04 0 0.92 0.04 0 0.925 0.04 0 0.93 0.04 0 0.935 0.04 0 0.94 0.04 0 0.945 0.04 0 0.95 0.04 0 0.955 0.04 0 0.96 0.04 0 0.965 0.04 0 0.97 0.04 0 0.975 0.04 0 0.98 0.04 0 0.985 0.04 0 0.99 0.04 0 0.995 0.04 0 1 0.04 0 0 0.06 0 0.005 0.06 0 0.01 0.06 0 0.015 0.06 0 0.02 0.06 0 0.025 0.06 0 0.03 0.06 0 0.035 0.06 0 0.04 0.06 0 0.045 0.06 0 0.05 0.06 0 0.055 0.06 0 0.06 0.06 0 0.065 0.06 0 0.07 0.06 0 0.075 0.06 0 0.08 0.06 0 0.085 0.06 0 0.09 0.06 0 0.095 0.06 0 0.1 0.06 0 0.105 0.06 0 0.11 0.06 0 0.115 0.06 0 0.12 0.06 0 0.125 0.06 0 0.13 0.06 0 0.135 0.06 0 0.14 0.06 0 0.145 0.06 0 0.15 0.06 0 0.155 0.06 0 0.16 0.06 0 0.165 0.06 0 0.17 0.06 0 0.175 0.06 0 0.18 0.06 0 0.185 0.06 0 0.19 0.06 0 0.195 0.06 0 0.2 0.06 0 0.205 0.06 0 0.21 0.06 0 0.215 0.06 0 0.22 0.06 0 0.225 0.06 0 0.23 0.06 0 0.235 0.06 0 0.24 0.06 0 0.245 0.06 0 0.25 0.06 0 0.255 0.06 0 0.26 0.06 0 0.265 0.06 0 0.27 0.06 0 0.275 0.06 0 0.28 0.06 0 0.285 0.06 0 0.29 0.06 0 0.295 0.06 0 0.3 0.06 0 0.305 0.06 0 0.31 0.06 0 0.315 0.06 0 0.32 0.06 0 0.325 0.06 0 0.330001 0.06 0 0.335002 0.06 0 0.340005 0.06 0 0.345012 0.06 0 0.350029 0.06 0 0.355065 0.06 0 0.360131 0.06 0 0.365242 0.06 0 0.370417 0.06 0 0.375675 0.06 0 0.381035 0.06 0 0.386517 0.06 0 0.392143 0.06 0 0.397934 0.06 0 0.403911 0.06 0 0.410099 0.06 0 0.416521 0.06 0 0.423204 0.06 0 0.430178 0.06 0 0.437475 0.06 0 0.445129 0.06 0 0.453178 0.06 0 0.461662 0.06 0 0.470621 0.06 0 0.480087 0.06 0 0.490082 0.06 0 0.5006 0.06 0 0.511595 0.06 0 0.522981 0.06 0 0.534643 0.06 0 0.546473 0.06 0 0.558402 0.06 0 0.570414 0.0599999 0 0.582583 0.0599999 0 0.595387 0.0599987 0 0.597833 0.0599982 0 0.600232 0.0599981 0 0.602636 0.0599982 0 0.605038 0.0599987 0 0.607436 0.0599989 0 0.609827 0.0599988 0 0.612214 0.0599986 0 0.614597 0.0599979 0 0.616978 0.059997 0 0.619361 0.0599936 0 0.621749 0.0599883 0 0.624124 0.0599839 0 0.626525 0.0599803 0 0.628915 0.0599861 0 0.631402 0.0600155 0 0.633975 0.060023 0 0.63655 0.0600088 0 0.638988 0.0599955 0 0
[...]
			<CellData Scalars="Density">
				<DataArray Name="Density" type="Float32" format="ascii">
 1 1 1 1 1 1 1 1 1 1 1 1 1 1 1 1 1 1 1 1 1 1 1 1 1 1 1 1 1 1 1 1 1 1 1 1 1 1 1 1 1 1 1 1 1 1 1 1 1 1 1 1 1 1 1 1 1 1 1 1 1 0.999999 0.999996 0.99999 0.99997 0.999919 0.999783 0.99943 0.998535 0.996577 0.992936 0.986966 0.978134 0.966182 0.951033 0.93288 0.911994 0.888728 0.863447 0.836466 0.808086 0.778569 0.748113 0.71696 0.685261 0.653263 0.621177 0.58933 0.558131 0.528168 0.500245 0.475392 0.454737 0.439148 0.428747 0.422636 0.419145 0.416269 0.410865 0.390411 0.255402 0.260291 0.259872 0.260104 0.260737 0.261487 0.262 0.262436 0.262829 0.26314 0.26338 0.263675 0.263886 0.264057 0.264216 0.264628 0.265388 0.265722 0.265493 0.265405 0.265364 0.265325 0.265283 0.265266 0.265262 0.265281 0.265282 0.265385 0.265593 0.26562 0.265146 0.264895 0.26733 0.272812 0.263363 0.227084 0.149606 0.128892 0.12561 0.125095 0.125015 0.125002 0.125 0.125 0.125 0.125 0.125 0.125 0.125 0.125 0.125 0.125 0.125 0.125 0.125 0.125 0.125 0.125 0.125 0.125 0.125 0.125 0.125 0.125 0.125 0.125 0.125 0.125 0.125 0.125 0.125 0.125 0.125 0.125 0.125 0.125 0.125 0.125 0.125 0.125 0.125 0.125 0.125 0.125 0.125 0.125 0.125 0.125 0.125 0.125 0.125 0.125 0.125 0.125 0.125 0.125 0.125 0.125 0.125 0.125 1 1 1 1 1 1 1 1 1 1 1 1 1 1 1 1 1 1 1 1 1 1 1 1 1 1 1 1 1 1 1 1 1 1 1 1 1 1 1 1 1 1 1 1 1 1 1 1 1 1 1 1 1 1 1 1 1 1 1 1 1 0.999999 0.999996 0.99999 0.99997 0.999919 0.999783 0.99943 0.998535 0.996577 0.992936 0.986966 0.978134 0.966182 0.951033 0.93288 0.911994 0.888728 0.863447 0.836466 0.808086 0.778569 0.748113 0.71696 0.685261 0.653263 0.621177 0.58933 0.558131 0.528168 0.500245 0.475392 0.454737 0.439148 0.428747 0.422636 0.419146 0.416271 0.410868 0.390411 0.255411 0.260297 0.259892 0.260129 0.260762 0.261498 0.262023 0.262433 0.262845 0.263127 0.263415 0.263592 0.263913 0.263973 0.264288 0.264523 0.265348 0.2657 0.265637 0.265386 0.265398 0.265329 0.265301 0.265315 0.265266 0.265285 0.265322 0.265416 0.265649 0.265534 0.265143 0.26486 0.267596 0.273039 0.263247 0.226428 0.149561 0.128898 0.125611 0.125095 0.125015 0.125002 0.125 0.125 0.125 0.125 0.125 0.125 0.125 0.125 0.125 0.125 0.125 0.125 0.125 0.125 0.125 0.125 0.125 0.125 0.125 0.125 0.125 0.125 0.125 0.125 0.125 0.125 0.125 0.125 0.125 0.125 0.125 0.125 0.125 0.125 0.125 0.125 0.125 0.125 0.125 0.125 0.125 0.125 0.125 0.125 0.125 0.125 0.125 0.125 0.125 0.125 0.125 0.125 0.125 0.125 0.125 0.125 0.125 0.125 1 1 1 1 1 1 1 1 1 1 1 1 1 1 1 1 1 1 1 1 1 1 1 1 1 1 1 1 1 1 1 1 1 1 1 1 1 1 1 1 1 1 1 1 1 1 1 1 1 1 1 1 1 1 1 1 1 1 1 1 1 0.999999 0.999996 0.99999 0.99997 0.999919 0.999783 0.99943 0.998535 0.996577 0.992936 0.986966 0.978134 0.966182 0.951033 0.93288 0.911994 0.888728 0.863447 0.836466 0.808086 0.778569 0.748113 0.71696 0.685261 0.653263 0.621177 0.58933 0.558131 0.528168 0.500245 0.475392 0.454737 0.439148 0.428747 0.422637 0.419147 0.416274 0.410875 0.390421 0.255422 0.260318 0.259914 0.260156 0.260763 0.261512 0.262014 0.262434 0.262808 0.263163 0.26336 0.263701 0.263843 0.264104 0.26423 0.264615 0.265146 0.265721 0.265422 0.265381 0.265346 0.265289 0.265311 0.265309 0.265276 0.265287 0.265392 0.265431 0.265616 0.265483 0.264722 0.264802 0.267627 0.273047 0.263203 0.226373 0.149623 0.128909 0.125612 0.125095 0.125015 0.125002 0.125 0.125 0.125 0.125 0.125 0.125 0.125 0.125 0.125 0.125 0.125 0.125 0.125 0.125 0.125 0.125 0.125 0.125 0.125 0.125 0.125 0.125 0.125 0.125 0.125 0.125 0.125 0.125 0.125 0.125 0.125 0.125 0.125 0.125 0.125 0.125 0.125 0.125 0.125 0.125 0.125 0.125 0.125 0.125 0.125 0.125 0.125 0.125 0.125 0.125 0.125 0.125 0.125 0.125 0.125 0.125 0.125 0.125 1 1 1 1 1 1 1 1 1 1 1 1 1 1 1 1 1 1 1 1 1 1 1 1 1 1 1 1 1 1 1 1 1 1 1 1 1 1 1 1 1 1 1 1 1 1 1 1 1 1 1 1 1 1 1 1 1 1 1 1 1 0.999999 0.999996 0.99999 0.99997 0.999919 0.999783 0.99943 0.998535 0.996577 0.992936 0.986966 0.978134 0.966182 0.951033 0.93288 0.911994 0.888728 0.863447 0.836466 0.808086 0.778569 0.748113 0.71696 0.685261 0.653263 0.621177 0.58933 0.558131 0.528168 0.500245 0.475392 0.454737 0.439147 0.428747 0.422638 0.419149 0.416276 0.41088 0.390441 0.255434 0.260334 0.25993 0.260165 0.26078 0.261522 0.262012 0.262452 0.262813 0.263177 0.263359 0.263705 0.263855 0.264011 0.264252 0.264477 0.265211 0.265743 0.265562 0.265476 0.265462 0.265315 0.265353 0.265344 0.265356 0.265392 0.265348 0.265484 0.265701 0.265741 0.264875 0.264835 0.26749 0.272431 0.262903 0.227396 0.149785 0.128916 0.125612 0.125095 0.125015 0.125002 0.125 0.125 0.125 0.125 0.125 0.125 0.125 0.125 0.125 0.125 0.125 0.125 0.125 0.125 0.125 0.125 0.125 0.125 0.125 0.125 0.125 0.125 0.125 0.125 0.125 0.125 0.125 0.125 0.125 0.125 0.125 0.125 0.125 0.125 0.125 0.125 0.125 0.125 0.125 0.125 0.125 0.125 0.125 0.125 0.125 0.125 0.125 0.125 0.125 0.125 0.125 0.125 0.125 0.125 0.125 0.125 0.125 0.125 1 1 1 1 1 1 1 1 1 1 1 1 1 1 1 1 1 1 1 1 1 1 1 1 1 1 1 1 1 1 1 1 1 1 1 1 1 1 1 1 1 1 1 1 1 1 1 1 1 1 1 1 1 1 1 1 1 1 1 1 1 0.999999 0.999996 0.99999 0.99997 0.999919 0.999783 0.99943 0.998535 0.996577 0.992936 0.986966 0.978134 0.966182 0.951033 0.93288 0.911994 0.888728 0.863447 0.836466 0.808086 0.778569 0.748113 0.71696 0.685261 0.653263 0.621177 0.58933 0.558131 0.528168 0.500245 0.475392 0.454737 0.439147 0.428748 0.422639 0.41915 0.416275 0.410873 0.390428 0.255423 0.260339 0.259935 0.260168 0.260784 0.261514 0.262018 0.262424 0.262809 0.263118 0.263377 0.26364 0.263852 0.264022 0.264241 0.264514 0.265209 0.265689 0.265525 0.265392 0.265364 0.265349 0.265334 0.265328 0.265332 0.265321 0.26538 0.265516 0.265686 0.265633 0.265128 0.264877 0.267648 0.272723 0.262298 0.226622 0.14947 0.128901 0.125612 0.125095 0.125015 0.125002 0.125 0.125 0.125 0.125 0.125 0.125 0.125 0.125 0.125 0.125 0.125 0.125 0.125 0.125 0.125 0.125 0.125 0.125 0.125 0.125 0.125 0.125 0.125 0.125 0.125 0.125 0.125 0.125 0.125 0.125 0.125 0.125 0.125 0.125 0.125 0.125 0.125 0.125 0.125 0.125 0.125 0.125 0.125 0.125 0.125 0.125 0.125 0.125 0.125 0.125 0.125 0.125 0.125 0.125 0.125 0.125 0.125 0.125
				</DataArray>
				<DataArray Name="Energy" type="Float32" format="ascii">
 2.5 2.5 2.5 2.5 2.5 2.5 2.5 2.5 2.5 2.5 2.5 2.5 2.5 2.5 2.5 2.5 2.5 2.5 2.5 2.5 2.5 2.5 2.5 2.5 2.5 2.5 2.5 2.5 2.5 2.5 2.5 2.5 2.5 2.5 2.5 2.5 2.5 2.5 2.5 2.5 2.5 2.5 2.5 2.5 2.5 2.5 2.5 2.5 2.5 2.5 2.5 2.5 2.5 2.5 2.5 2.5 2.5 2.5 2.5 2.5 2.5 2.5 2.5 2.49999 2.49997 2.49992 2.49978 2.49943 2.49854 2.49658 2.49293 2.48694 2.47806 2.46599 2.45059 2.43199 2.41036 2.38598 2.3591 2.32996 2.29876 2.26569 2.23086 2.19445 2.15653 2.1173 2.07694 2.0358 1.99439 1.95352 1.91445 1.87895 1.84917 1.82715 1.81393 1.80904 1.8111 1.81992 1.84328 1.94046 2.96638 2.91025 2.91473 2.91205 2.90513 2.8969 2.89127 2.88659 2.88223 2.87873 2.87589 2.87303 2.87057 2.86896 2.86661 2.86323 2.85466 2.85105 2.85348 2.85493 2.85521 2.85583 2.8564 2.85693 2.85738 2.85738 2.85721 2.85732 2.85771 2.85731 2.85535 2.85394 2.86401 2.88662 2.84478 2.65791 2.17206 2.02546 2.00392 2.00061 2.00009 2.00001 2 2 2 2 2 2 2 2 2 2 2 2 2 2 2 2 2 2 2 2 2 2 2 2 2 2 2 2 2 2 2 2 2 2 2 2 2 2 2 2 2 2 2 2 2 2 2 2 2 2 2 2 2 2 2 2 2 2 2.5 2.5 2.5 2.5 2.5 2.5 2.5 2.5 2.5 2.5 2.5 2.5 2.5 2.5 2.5 2.5 2.5 2.5 2.5 2.5 2.5 2.5 2.5 2.5 2.5 2.5 2.5 2.5 2.5 2.5 2.5 2.5 2.5 2.5 2.5 2.5 2.5 2.5 2.5 2.5 2.5 2.5 2.5 2.5 2.5 2.5 2.5 2.5 2.5 2.5 2.5 2.5 2.5 2.5 2.5 2.5 2.5 2.5 2.5 2.5 2.5 2.5 2.5 2.49999 2.49997 2.49992 2.49978 2.49943 2.49854 2.49658 2.49293 2.48694 2.47806 2.46599 2.45059 2.43199 2.41036 2.38598 2.3591 2.32996 2.29876 2.26569 2.23086 2.19445 2.15653 2.1173 2.07694 2.0358 1.99439 1.95352 1.91445 1.87895 1.84917 1.82715 1.81393 1.80904 1.8111 1.81992 1.84329 1.94046 2.96643 2.91027 2.91482 2.91216 2.90524 2.89695 2.89137 2.88658 2.8823 2.87867 2.87604 2.87267 2.87068 2.86866 2.86709 2.8637 2.85533 2.85004 2.85298 2.85427 2.85523 2.85603 2.85655 2.85709 2.85727 2.85741 2.85739 2.85748 2.858 2.85712 2.85538 2.85398 2.86537 2.88775 2.84451 2.6551 2.17171 2.0255 2.00393 2.00061 2.00009 2.00001 2 2 2 2 2 2 2 2 2 2 2 2 2 2 2 2 2 2 2 2 2 2 2 2 2 2 2 2 2 2 2 2 2 2 2 2 2 2 2 2 2 2 2 2 2 2 2 2 2 2 2 2 2 2 2 2 2 2 2.5 2.5 2.5 2.5 2.5 2.5 2.5 2.5 2.5 2.5 2.5 2.5 2.5 2.5 2.5 2.5 2.5 2.5 2.5 2.5 2.5 2.5 2.5 2.5 2.5 2.5 2.5 2.5 2.5 2.5 2.5 2.5 2.5 2.5 2.5 2.5 2.5 2.5 2.5 2.5 2.5 2.5 2.5 2.5 2.5 2.5 2.5 2.5 2.5 2.5 2.5 2.5 2.5 2.5 2.5 2.5 2.5 2.5 2.5 2.5 2.5 2.5 2.5 2.49999 2.49997 2.49992 2.49978 2.49943 2.49854 2.49658 2.49293 2.48694 2.47806 2.46599 2.45059 2.43199 2.41036 2.38598 2.3591 2.32996 2.29876 2.26569 2.23086 2.19445 2.15653 2.1173 2.07694 2.0358 1.99439 1.95352 1.91445 1.87895 1.84917 1.82715 1.81393 1.80904 1.8111 1.81992 1.8433 1.94048 2.96647 2.91037 2.91492 2.91228 2.90524 2.89701 2.89133 2.88658 2.88214 2.87883 2.87581 2.87314 2.87039 2.86918 2.86663 2.86391 2.85523 2.85179 2.85342 2.85502 2.85519 2.85554 2.85639 2.85697 2.85733 2.85737 2.85765 2.85754 2.85788 2.85698 2.85373 2.85385 2.86557 2.88788 2.84451 2.65491 2.17217 2.02558 2.00393 2.00061 2.00009 2.00001 2 2 2 2 2 2 2 2 2 2 2 2 2 2 2 2 2 2 2 2 2 2 2 2 2 2 2 2 2 2 2 2 2 2 2 2 2 2 2 2 2 2 2 2 2 2 2 2 2 2 2 2 2 2 2 2 2 2 2.5 2.5 2.5 2.5 2.5 2.5 2.5 2.5 2.5 2.5 2.5 2.5 2.5 2.5 2.5 2.5 2.5 2.5 2.5 2.5 2.5 2.5 2.5 2.5 2.5 2.5 2.5 2.5 2.5 2.5 2.5 2.5 2.5 2.5 2.5 2.5 2.5 2.5 2.5 2.5 2.5 2.5 2.5 2.5 2.5 2.5 2.5 2.5 2.5 2.5 2.5 2.5 2.5 2.5 2.5 2.5 2.5 2.5 2.5 2.5 2.5 2.5 2.5 2.49999 2.49997 2.49992 2.49978 2.49943 2.49854 2.49658 2.49293 2.48694 2.47806 2.46599 2.45059 2.43199 2.41036 2.38598 2.3591 2.32996 2.29876 2.26569 2.23086 2.19445 2.15653 2.1173 2.07694 2.0358 1.99439 1.95352 1.91445 1.87895 1.84917 1.82715 1.81393 1.80904 1.81111 1.81993 1.84331 1.94052 2.96653 2.91044 2.91499 2.91232 2.90532 2.89705 2.89132 2.88666 2.88216 2.87889 2.8758 2.87316 2.87044 2.86883 2.86692 2.86428 2.85616 2.85075 2.85266 2.85437 2.855 2.85536 2.85613 2.85683 2.85717 2.8573 2.85694 2.85726 2.85776 2.85762 2.85378 2.85326 2.86429 2.88463 2.8426 2.65891 2.17332 2.02562 2.00393 2.00061 2.00009 2.00001 2 2 2 2 2 2 2 2 2 2 2 2 2 2 2 2 2 2 2 2 2 2 2 2 2 2 2 2 2 2 2 2 2 2 2 2 2 2 2 2 2 2 2 2 2 2 2 2 2 2 2 2 2 2 2 2 2 2 2.5 2.5 2.5 2.5 2.5 2.5 2.5 2.5 2.5 2.5 2.5 2.5 2.5 2.5 2.5 2.5 2.5 2.5 2.5 2.5 2.5 2.5 2.5 2.5 2.5 2.5 2.5 2.5 2.5 2.5 2.5 2.5 2.5 2.5 2.5 2.5 2.5 2.5 2.5 2.5 2.5 2.5 2.5 2.5 2.5 2.5 2.5 2.5 2.5 2.5 2.5 2.5 2.5 2.5 2.5 2.5 2.5 2.5 2.5 2.5 2.5 2.5 2.5 2.49999 2.49997 2.49992 2.49978 2.49943 2.49854 2.49658 2.49293 2.48694 2.47806 2.46599 2.45059 2.43199 2.41036 2.38598 2.3591 2.32996 2.29876 2.26569 2.23086 2.19445 2.15653 2.1173 2.07694 2.0358 1.99439 1.95352 1.91445 1.87895 1.84917 1.82714 1.81393 1.80905 1.81111 1.81993 1.84329 1.94049 2.96648 2.91046 2.91502 2.91234 2.90534 2.89701 2.89135 2.88654 2.88214 2.87863 2.87588 2.87288 2.87043 2.86884 2.8667 2.86408 2.85619 2.85118 2.85316 2.85474 2.85528 2.85609 2.85651 2.85719 2.85761 2.85756 2.85765 2.85795 2.85829 2.85781 2.85549 2.85419 2.86574 2.88663 2.84079 2.65496 2.17094 2.02552 2.00393 2.00061 2.00009 2.00001 2 2 2 2 2 2 2 2 2 2 2 2 2 2 2 2 2 2 2 2 2 2 2 2 2 2 2 2 2 2 2 2 2 2 2 2 2 2 2 2 2 2 2 2 2 2 2 2 2 2 2 2 2 2 2 2 2 2
				</DataArray>
				<DataArray Name="F1" type="Float32" format="ascii">
 1 1 1 1 1 1 1 1 1 1 1 1 1 1 1 1 1 1 1 1 1 1 1 1 1 1 1 1 1 1 1 1 1 1 1 1 1 1 1 1 1 1 1 1 1 1 1 1 1 1 1 1 1 1 1 1 1 1 1 1 1 1 1 1 1 1 1 1 1 1 1 1 1 1 1 1 1 1 1 1 1 1 1 1 1 1 1 1 1 1 1 1 1 1 1 1 1 1 1 1 0 0 0 0 0 0 0 0 0 0 0 0 0 0 0 0 0 0 0 0 0 0 0 0 0 0 0 0 0 0 0 0 0 0 0 0 0 0 0 0 0 0 0 0 0 0 0 0 0 0 0 0 0 0 0 0 0 0 0 0 0 0 0 0 0 0 0 0 0 0 0 0 0 0 0 0 0 0 0 0 0 0 0 0 0 0 0 0 0 0 0 0 0 0 0 0 0 0 0 0 1 1 1 1 1 1 1 1 1 1 1 1 1 1 1 1 1 1 1 1 1 1 1 1 1 1 1 1 1 1 1 1 1 1 1 1 1 1 1 1 1 1 1 1 1 1 1 1 1 1 1 1 1 1 1 1 1 1 1 1 1 1 1 1 1 1 1 1 1 1 1 1 1 1 1 1 1 1 1 1 1 1 1 1 1 1 1 1 1 1 1 1 1 1 1 1 1 1 1 1 0 0 0 0 0 0 0 0 0 0 0 0 0 0 0 0 0 0 0 0 0 0 0 0 0 0 0 0 0 0 0 0 0 0 0 0 0 0 0 0 0 0 0 0 0 0 0 0 0 0 0 0 0 0 0 0 0 0 0 0 0 0 0 0 0 0 0 0 0 0 0 0 0 0 0 0 0 0 0 0 0 0 0 0 0 0 0 0 0 0 0 0 0 0 0 0 0 0 0 0 1 1 1 1 1 1 1 1 1 1 1 1 1 1 1 1 1 1 1 1 1 1 1 1 1 1 1 1 1 1 1 1 1 1 1 1 1 1 1 1 1 1 1 1 1 1 1 1 1 1 1 1 1 1 1 1 1 1 1 1 1 1 1 1 1 1 1 1 1 1 1 1 1 1 1 1 1 1 1 1 1 1 1 1 1 1 1 1 1 1 1 1 1 1 1 1 1 1 1 1 0 0 0 0 0 0 0 0 0 0 0 0 0 0 0 0 0 0 0 0 0 0 0 0 0 0 0 0 0 0 0 0 0 0 0 0 0 0 0 0 0 0 0 0 0 0 0 0 0 0 0 0 0 0 0 0 0 0 0 0 0 0 0 0 0 0 0 0 0 0 0 0 0 0 0 0 0 0 0 0 0 0 0 0 0 0 0 0 0 0 0 0 0 0 0 0 0 0 0 0 1 1 1 1 1 1 1 1 1 1 1 1 1 1 1 1 1 1 1 1 1 1 1 1 1 1 1 1 1 1 1 1 1 1 1 1 1 1 1 1 1 1 1 1 1 1 1 1 1 1 1 1 1 1 1 1 1 1 1 1 1 1 1 1 1 1 1 1 1 1 1 1 1 1 1 1 1 1 1 1 1 1 1 1 1 1 1 1 1 1 1 1 1 1 1 1 1 1 1 1 0 0 0 0 0 0 0 0 0 0 0 0 0 0 0 0 0 0 0 0 0 0 0 0 0 0 0 0 0 0 0 0 0 0 0 0 0 0 0 0 0 0 0 0 0 0 0 0 0 0 0 0 0 0 0 0 0 0 0 0 0 0 0 0 0 0 0 0 0 0 0 0 0 0 0 0 0 0 0 0 0 0 0 0 0 0 0 0 0 0 0 0 0 0 0 0 0 0 0 0 1 1 1 1 1 1 1 1 1 1 1 1 1 1 1 1 1 1 1 1 1 1 1 1 1 1 1 1 1 1 1 1 1 1 1 1 1 1 1 1 1 1 1 1 1 1 1 1 1 1 1 1 1 1 1 1 1 1 1 1 1 1 1 1 1 1 1 1 1 1 1 1 1 1 1 1 1 1 1 1 1 1 1 1 1 1 1 1 1 1 1 1 1 1 1 1 1 1 1 1 0 0 0 0 0 0 0 0 0 0 0 0 0 0 0 0 0 0 0 0 0 0 0 0 0 0 0 0 0 0 0 0 0 0 0 0 0 0 0 0 0 0 0 0 0 0 0 0 0 0 0 0 0 0 0 0 0 0 0 0 0 0 0 0 0 0 0 0 0 0 0 0 0 0 0 0 0 0 0 0 0 0 0 0 0 0 0 0 0 0 0 0 0 0 0 0 0 0 0 0
				</DataArray>
				<DataArray Name="F2" type="Float32" format="ascii">
 0 0 0 0 0 0 0 0 0 0 0 0 0 0 0 0 0 0 0 0 0 0 0 0 0 0 0 0 0 0 0 0 0 0 0 0 0 0 0 0 0 0 0 0 0 0 0 0 0 0 0 0 0 0 0 0 0 0 0 0 0 0 0 0 0 0 0 0 0 0 0 0 0 0 0 0 0 0 0 0 0 0 0 0 0 0 0 0 0 0 0 0 0 0 0 0 0 0 0 0 1 1 1 1 1 1 1 1 1 1 1 1 1 1 1 1 1 1 1 1 1 1 1 1 1 1 1 1 1 1 1 1 1 1 1 1 1 1 1 1 1 1 1 1 1 1 1 1 1 1 1 1 1 1 1 1 1 1 1 1 1 1 1 1 1 1 1 1 1 1 1 1 1 1 1 1 1 1 1 1 1 1 1 1 1 1 1 1 1 1 1 1 1 1 1 1 1 1 1 1 0 0 0 0 0 0 0 0 0 0 0 0 0 0 0 0 0 0 0 0 0 0 0 0 0 0 0 0 0 0 0 0 0 0 0 0 0 0 0 0 0 0 0 0 0 0 0 0 0 0 0 0 0 0 0 0 0 0 0 0 0 0 0 0 0 0 0 0 0 0 0 0 0 0 0 0 0 0 0 0 0 0 0 0 0 0 0 0 0 0 0 0 0 0 0 0 0 0 0 0 1 1 1 1 1 1 1 1 1 1 1 1 1 1 1 1 1 1 1 1 1 1 1 1 1 1 1 1 1 1 1 1 1 1 1 1 1 1 1 1 1 1 1 1 1 1 1 1 1 1 1 1 1 1 1 1 1 1 1 1 1 1 1 1 1 1 1 1 1 1 1 1 1 1 1 1 1 1 1 1 1 1 1 1 1 1 1 1 1 1 1 1 1 1 1 1 1 1 1 1 0 0 0 0 0 0 0 0 0 0 0 0 0 0 0 0 0 0 0 0 0 0 0 0 0 0 0 0 0 0 0 0 0 0 0 0 0 0 0 0 0 0 0 0 0 0 0 0 0 0 0 0 0 0 0 0 0 0 0 0 0 0 0 0 0 0 0 0 0 0 0 0 0 0 0 0 0 0 0 0 0 0 0 0 0 0 0 0 0 0 0 0 0 0 0 0 0 0 0 0 1 1 1 1 1 1 1 1 1 1 1 1 1 1 1 1 1 1 1 1 1 1 1 1 1 1 1 1 1 1 1 1 1 1 1 1 1 1 1 1 1 1 1 1 1 1 1 1 1 1 1 1 1 1 1 1 1 1 1 1 1 1 1 1 1 1 1 1 1 1 1 1 1 1 1 1 1 1 1 1 1 1 1 1 1 1 1 1 1 1 1 1 1 1 1 1 1 1 1 1 0 0 0 0 0 0 0 0 0 0 0 0 0 0 0 0 0 0 0 0 0 0 0 0 0 0 0 0 0 0 0 0 0 0 0 0 0 0 0 0 0 0 0 0 0 0 0 0 0 0 0 0 0 0 0 0 0 0 0 0 0 0 0 0 0 0 0 0 0 0 0 0 0 0 0 0 0 0 0 0 0 0 0 0 0 0 0 0 0 0 0 0 0 0 0 0 0 0 0 0 1 1 1 1 1 1 1 1 1 1 1 1 1 1 1 1 1 1 1 1 1 1 1 1 1 1 1 1 1 1 1 1 1 1 1 1 1 1 1 1 1 1 1 1 1 1 1 1 1 1 1 1 1 1 1 1 1 1 1 1 1 1 1 1 1 1 1 1 1 1 1 1 1 1 1 1 1 1 1 1 1 1 1 1 1 1 1 1 1 1 1 1 1 1 1 1 1 1 1 1 0 0 0 0 0 0 0 0 0 0 0 0 0 0 0 0 0 0 0 0 0 0 0 0 0 0 0 0 0 0 0 0 0 0 0 0 0 0 0 0 0 0 0 0 0 0 0 0 0 0 0 0 0 0 0 0 0 0 0 0 0 0 0 0 0 0 0 0 0 0 0 0 0 0 0 0 0 0 0 0 0 0 0 0 0 0 0 0 0 0 0 0 0 0 0 0 0 0 0 0 1 1 1 1 1 1 1 1 1 1 1 1 1 1 1 1 1 1 1 1 1 1 1 1 1 1 1 1 1 1 1 1 1 1 1 1 1 1 1 1 1 1 1 1 1 1 1 1 1 1 1 1 1 1 1 1 1 1 1 1 1 1 1 1 1 1 1 1 1 1 1 1 1 1 1 1 1 1 1 1 1 1 1 1 1 1 1 1 1 1 1 1 1 1 1 1 1 1 1 1
				</DataArray>
				<DataArray Name="F3" type="Float32" format="ascii">
 0 0 0 0 0 0 0 0 0 0 0 0 0 0 0 0 0 0 0 0 0 0 0 0 0 0 0 0 0 0 0 0 0 0 0 0 0 0 0 0 0 0 0 0 0 0 0 0 0 0 0 0 0 0 0 0 0 0 0 0 0 0 0 0 0 0 0 0 0 0 0 0 0 0 0 0 0 0 0 0 0 0 0 0 0 0 0 0 0 0 0 0 0 0 0 0 0 0 0 0 0 0 0 0 0 0 0 0 0 0 0 0 0 0 0 0 0 0 0 0 0 0 0 0 0 0 0 0 0 0 0 0 0 0 0 0 0 0 0 0 0 0 0 0 0 0 0 0 0 0 0 0 0 0 0 0 0 0 0 0 0 0 0 0 0 0 0 0 0 0 0 0 0 0 0 0 0 0 0 0 0 0 0 0 0 0 0 0 0 0 0 0 0 0 0 0 0 0 0 0 0 0 0 0 0 0 0 0 0 0 0 0 0 0 0 0 0 0 0 0 0 0 0 0 0 0 0 0 0 0 0 0 0 0 0 0 0 0 0 0 0 0 0 0 0 0 0 0 0 0 0 0 0 0 0 0 0 0 0 0 0 0 0 0 0 0 0 0 0 0 0 0 0 0 0 0 0 0 0 0 0 0 0 0 0 0 0 0 0 0 0 0 0 0 0 0 0 0 0 0 0 0 0 0 0 0 0 0 0 0 0 0 0 0 0 0 0 0 0 0 0 0 0 0 0 0 0 0 0 0 0 0 0 0 0 0 0 0 0 0 0 0 0 0 0 0 0 0 0 0 0 0 0 0 0 0 0 0 0 0 0 0 0 0 0 0 0 0 0 0 0 0 0 0 0 0 0 0 0 0 0 0 0 0 0 0 0 0 0 0 0 0 0 0 0 0 0 0 0 0 0 0 0 0 0 0 0 0 0 0 0 0 0 0 0 0 0 0 0 0 0 0 0 0 0 0 0 0 0 0 0 0 0 0 0 0 0 0 0 0 0 0 0 0 0 0 0 0 0 0 0 0 0 0 0 0 0 0 0 0 0 0 0 0 0 0 0 0 0 0 0 0 0 0 0 0 0 0 0 0 0 0 0 0 0 0 0 0 0 0 0 0 0 0 0 0 0 0 0 0 0 0 0 0 0 0 0 0 0 0 0 0 0 0 0 0 0 0 0 0 0 0 0 0 0 0 0 0 0 0 0 0 0 0 0 0 0 0 0 0 0 0 0 0 0 0 0 0 0 0 0 0 0 0 0 0 0 0 0 0 0 0 0 0 0 0 0 0 0 0 0 0 0 0 0 0 0 0 0 0 0 0 0 0 0 0 0 0 0 0 0 0 0 0 0 0 0 0 0 0 0 0 0 0 0 0 0 0 0 0 0 0 0 0 0 0 0 0 0 0 0 0 0 0 0 0 0 0 0 0 0 0 0 0 0 0 0 0 0 0 0 0 0 0 0 0 0 0 0 0 0 0 0 0 0 0 0 0 0 0 0 0 0 0 0 0 0 0 0 0 0 0 0 0 0 0 0 0 0 0 0 0 0 0 0 0 0 0 0 0 0 0 0 0 0 0 0 0 0 0 0 0 0 0 0 0 0 0 0 0 0 0 0 0 0 0 0 0 0 0 0 0 0 0 0 0 0 0 0 0 0 0 0 0 0 0 0 0 0 0 0 0 0 0 0 0 0 0 0 0 0 0 0 0 0 0 0 0 0 0 0 0 0 0 0 0 0 0 0 0 0 0 0 0 0 0 0 0 0 0 0 0 0 0 0 0 0 0 0 0 0 0 0 0 0 0 0 0 0 0 0 0 0 0 0 0 0 0 0 0 0 0 0 0 0 0 0 0 0 0 0 0 0 0 0 0 0 0 0 0 0 0 0 0 0 0 0 0 0 0 0 0 0 0 0 0 0 0 0 0 0 0 0 0 0 0 0 0 0 0 0 0 0 0 0 0 0 0 0 0 0 0 0 0 0 0 0 0 0 0 0 0 0 0 0 0 0 0 0 0 0 0 0 0 0 0 0 0 0 0 0 0 0 0 0 0 0 0 0 0 0 0 0 0 0 0 0 0 0 0 0 0 0 0 0 0 0 0 0 0 0 0 0 0 0 0 0 0 0 0 0 0 0 0 0 0 0 0 0 0 0 0 0 0 0 0 0 0 0 0 0 0 0 0 0 0 0 0 0 0 0 0 0 0 0 0 0 0 0 0 0 0 0 0 0 0 0 0 0 0 0 0 0 0 0 0 0 0 0 0
				</DataArray>
				<DataArray Name="Pressure" type="Float32" format="ascii">