<?xml version="1.0"?>
<VTKFile type="PolyData">
	<PolyData>
		<Piece NumberOfPoints="1206" NumberOfPolys="1000">
			<Points>
				<DataArray type="Float32" NumberOfComponents="3" format="ascii">
 0 0 0 0.005 0 0 0.01 0 0 0.015 0 0 0.02 0 0 0.025 0 0 0.03 0 0 0.035 0 0 0.04 0 0 0.045 0 0 0.05 0 0 0.055 0 0 0.06 0 0 0.065 0 0 0.07 0 0 0.075 0 0 0.08 0 0 0.085 0 0 0.09 0 0 0.095 0 0 0.1 0 0 0.105 0 0 0.11 0 0 0.115 0 0 0.12 0 0 0.125 0 0 0.13 0 0 0.135 0 0 0.14 0 0 0.145 0 0 0.15 0 0 0.155 0 0 0.16 0 0 0.165 0 0 0.17 0 0 0.175 0 0 0.18 0 0 0.185 0 0 0.19 0 0 0.195 0 0 0.2 0 0 0.205 0 0 0.21 0 0 0.215 0 0 0.22 0 0 0.225 0 0 0.23 0 0 0.235001 0 0 0.240002 0 0 0.245005 0 0 0.250012 0 0 0.255024 0 0 0.260046 0 0 0.265083 0 0 0.270141 0 0 0.275227 0 0 0.280349 0 0 0.285515 0 0 0.290733 0 0 0.296013 0 0 0.301363 0 0 0.306791 0 0 0.312305 0 0 0.317914 0 0 0.323626 0 0 0.329448 0 0 0.335389 0 0 0.341458 0 0 0.347664 0 0 0.354015 0 0 0.360521 0 0 0.367194 0 0 0.374042 0 0 0.381079 0 0 0.388316 0 0 0.395766 0 0 0.403444 0 0 0.411364 0 0 0.419543 0 0 0.427996 0 0 0.43674 0 0 0.445791 0 0 0.455165 0 0 0.464874 0 0 0.474924 0 0 0.485316 0 0 0.496038 0 0 0.507062 0 0 0.518349 0 0 0.529844 0 0 0.541491 0 0 0.553236 0 0 0.56504 0 0 0.576879 0 0 0.58874 0 0 0.600623 0 0 0.612532 0 0 0.624479 0 0 0.636491 0 0 0.648659 0 0 0.661467 0 0 0.663908 0 0 0.666307 0 0 0.668714 0 0 0.671124 0 0 0.67353 0 0 0.675933 0 0 0.678327 0 0 0.680717 0 0 0.683096 0 0 0.685466 0 0 0.687826 0 0 0.690194 0 0 0.692534 0 0 0.694879 0 0 0.697121 0 0 0.699269 0 0 0.70142 0 0 0.703703 0 0 0.706086 0 0 0.708491 0 0 0.710874 0 0 0.71324 0 0 0.715606 0 0 0.717971 0 0 0.720339 0 0 0.722701 0 0 0.725057 0 0 0.72741 0 0 0.729761 0 0 0.732117 0 0 0.734473 0 0 0.736828 0 0 0.73918 0 0 0.741529 0 0 0.743878 0 0 0.746231 0 0 0.748587 0 0 0.75094 0 0 0.75329 0 0 0.755637 0 0 0.757985 0 0 0.760336 0 0 0.762689 0 0 0.765041 0 0 0.767391 0 0 0.769738 0 0 0.772084 0 0 0.774432 0 0 0.776784 0 0 0.779136 0 0 0.781487 0 0 0.783835 0 0 0.786183 0 0 0.788531 0 0 0.790882 0 0 0.793239 0 0 0.795605 0 0 0.797969 0 0 0.800281 0 0 0.802861 0 0 0.805916 0 0 0.810179 0 0 0.815029 0 0 0.820005 0 0 0.825001 0 0 0.83 0 0 0.835 0 0 0.84 0 0 0.845 0 0 0.85 0 0 0.855 0 0 0.86 0 0 0.865 0 0 0.87 0 0 0.875 0 0 0.88 0 0 0.885 0 0 0.89 0 0 0.895 0 0 0.9 0 0 0.905 0 0 0.91 0 0 0.915 0 0 0.92 0 0 0.925 0 0 0.93 0 0 0.935 0 0 0.94 0 0 0.945 0 0 0.95 0 0 0.955 0 0 0.96 0 0 0.965 0 0 0.97 0 0 0.975 0 0 0.98 0 0 0.985 0 0 0.99 0 0 0.995 0 0 1 0 0 0 0.02 0 0.005 0.02 0 0.01 0.02 0 0.015 0.02 0 0.02 0.02 0 0.025 0.02 0 0.03 0.02 0 0.035 0.02 0 0.04 0.02 0 0.045 0.02 0 0.05 0.02 0 0.055 0.02 0 0.06 0.02 0 0.065 0.02 0 0.07 0.02 0 0.075 0.02 0 0.08 0.02 0 0.085 0.02 0 0.09 0.02 0 0.095 0.02 0 0.1 0.02 0 0.105 0.02 0 0.11 0.02 0 0.115 0.02 0 0.12 0.02 0 0.125 0.02 0 0.13 0.02 0 0.135 0.02 0 0.14 0.02 0 0.145 0.02 0 0.15 0.02 0 0.155 0.02 0 0.16 0.02 0 0.165 0.02 0 0.17 0.02 0 0.175 0.02 0 0.18 0.02 0 0.185 0.02 0 0.19 0.02 0 0.195 0.02 0 0.2 0.02 0 0.205 0.02 0 0.21 0.02 0 0.215 0.02 0 0.22 0.02 0 0.225 0.02 0 0.23 0.02 0 0.235001 0.02 0 0.240002 0.02 0 0.245005 0.02 0 0.250012 0.02 0 0.255024 0.02 0 0.260046 0.02 0 0.265083 0.02 0 0.270141 0.02 0 0.275227 0.02 0 0.280349 0.02 0 0.285515 0.02 0 0.290733 0.02 0 0.296013 0.02 0 0.301363 0.02 0 0.306791 0.02 0 0.312305 0.02 0 0.317914 0.02 0 0.323626 0.02 0 0.329448 0.02 0 0.335389 0.02 0 0.341458 0.02 0 0.347664 0.02 0 0.354015 0.02 0 0.360521 0.02 0 0.367194 0.02 0 0.374042 0.02 0 0.381079 0.02 0 0.388316 0.02 0 0.395766 0.02 0 0.403444 0.02 0 0.411364 0.02 0 0.419543 0.02 0 0.427996 0.02 0 0.43674 0.02 0 0.445791 0.02 0 0.455165 0.02 0 0.464874 0.02 0 0.474924 0.02 0 0.485316 0.02 0 0.496038 0.02 0 0.507062 0.02 0 0.518349 0.02 0 0.529844 0.02 0 0.541491 0.02 0 0.553236 0.02 0 0.56504 0.02 0 0.576879 0.02 0 0.58874 0.0199999 0 0.600623 0.0199999 0 0.612532 0.0199996 0 0.624479 0.0199991 0 0.63649 0.0199983 0 0.648657 0.019998 0 0.661465 0.0199913 0 0.663924 0.0199831 0 0.666337 0.0199769 0 0.668751 0.0199747 0 0.671158 0.0199752 0 0.673557 0.019977 0 0.675945 0.0199789 0 0.678329 0.0199836 0 0.680709 0.01999 0 0.683088 0.0199978 0 0.685467 0.0200054 0 0.687849 0.0200106 0 0.690216 0.0200107 0 0.692606 0.0200127 0 0.694989 0.0200087 0 0.69747 0.0200129 0 0.70004 0.0200093 0 0.7026 0.0199864 0 0.705032 0.0199696 0 0.707374 0.0199573 0 0.709701 0.0199561 0 0.712049 0.019961 0 0.714411 0.0199724 0 0.716768 0.019982 0 0.719124 0.0199877 0 0.721475 0.0199929 0 0.723828 0.0199973 0 0.726185 0.0200031 0 0.728542 0.0200072 0 0.730899 0.0200062 0 0.733252 0.0200047 0 0.735605 0.0200064 0 0.737958 0.020007 0 0.740313 0.0200079 0 0.74267 0.0200073 0 0.745027 0.0200069 0 0.74738 0.0200069 0 0.749732 0.0200074 0 0.752083 0.0200095 0 0.754438 0.0200093 0 0.756794 0.0200091 0 0.75915 0.0200091 0 0.761503 0.0200107 0 0.763853 0.0200118 0 0.766204 0.0200128 0 0.768557 0.0200121 0 0.770912 0.0200124 0 0.773268 0.0200132 0 0.775621 0.0200137 0 0.777972 0.0200125 0 0.780323 0.02001 0 0.782677 0.0200079 0 0.785034 0.0200066 0 0.787391 0.0200074 0 0.789747 0.0200091 0 0.792099 0.0200077 0 0.794455 0.0200062 0 0.79681 0.0200075 0 0.799125 0.020011 0 0.801392 0.0200104 0 0.80355 0.0200044 0 0.806065 0.0200004 0 0.810179 0.02 0 0.815029 0.02 0 0.820005 0.02 0 0.825001 0.02 0 0.83 0.02 0 0.835 0.02 0 0.84 0.02 0 0.845 0.02 0 0.85 0.02 0 0.855 0.02 0 0.86 0.02 0 0.865 0.02 0 0.87 0.02 0 0.875 0.02 0 0.88 0.02 0 0.885 0.02 0 0.89 0.02 0 0.895 0.02 0 0.9 0.02 0 0.905 0.02 0 0.91 0.02 0 0.915 0.02 0 0.92 0.02 0 0.925 0.02 0 0.93 0.02 0 0.935 0.02 0 0.94 0.02 0 0.945 0.02 0 0.95 0.02 0 0.955 0.02 0 0.96 0.02 0 0.965 0.02 0 0.97 0.02 0 0.975 0.02 0 0.98 0.02 0 0.985 0.02 0 0.99 0.02 0 0.995 0.02 0 1 0.02 0 0 0.04 0 0.005 0.04 0 0.01 0.04 0 0.015 0.04 0 0.02 0.04 0 0.025 0.04 0 0.03 0.04 0 0.035 0.04 0 0.04 0.04 0 0.045 0.04 0 0.05 0.04 0 0.055 0.04 0 0.06 0.04 0 0.065 0.04 0 0.07 0.04 0 0.075 0.04 0 0.08 0.04 0 0.085 0.04 0 0.09 0.04 0 0.095 0.04 0 0.1 0.04 0 0.105 0.04 0 0.11 0.04 0 0.115 0.04 0 0.12 0.04 0 0.125 0.04 0 0.13 0.04 0 0.135 0.04 0 0.14 0.04 0 0.145 0.04 0 0.15 0.04 0 0.155 0.04 0 0.16 0.04 0 0.165 0.04 0 0.17 0.04 0 0.175 0.04 0 0.18 0.04 0 0.185 0.04 0 0.19 0.04 0 0.195 0.04 0 0.2 0.04 0 0.205 0.04 0 0.21 0.04 0 0.215 0.04 0 0.22 0.04 0 0.225 0.04 0 0.23 0.04 0 0.235001 0.04 0 0.240002 0.04 0 0.245005 0.04 0 0.250012 0.04 0 0.255024 0.04 0 0.260046 0.04 0 0.265083 0.04 0 0.270141 0.04 0 0.275227 0.04 0 0.280349 0.04 0 0.285515 0.04 0 0.290733 0.04 0 0.296013 0.04 0 0.301363 0.04 0 0.306791 0.04 0 0.312305 0.04 0 0.317914 0.04 0 0.323626 0.04 0 0.329448 0.04 0 0.335389 0.04 0 0.341458 0.04 0 0.347664 0.04 0 0.354015 0.04 0 0.360521 0.04 0 0.367194 0.04 0 0.374042 0.04 0 0.381079 0.04 0 0.388316 0.04 0 0.395766 0.04 0 0.403444 0.04 0 0.411364 0.04 0 0.419543 0.04 0 0.427996 0.04 0 0.43674 0.04 0 0.445791 0.04 0 0.455165 0.04 0 0.464874 0.04 0 0.474924 0.04 0 0.485316 0.04 0 0.496038 0.04 0 0.507062 0.04 0 0.518349 0.04 0 0.529844 0.04 0 0.541491 0.04 0 0.553236 0.04 0 0.56504 0.04 0 0.576879 0.0399999 0 0.58874 0.0399999 0 0.600623 0.0399998 0 0.612532 0.0399994 0 0.624478 0.0399988 0 0.636489 0.0399979 0 0.648654 0.0399974 0 0.661459 0.0399765 0 0.663903 0.0399625 0 0.666299 0.0399658 0 0.668697 0.0399732 0 0.671093 0.0399816 0 0.673483 0.0399882 0 0.675868 0.0399909 0 0.678249 0.0399918 0 0.680629 0.0399919 0 0.683006 0.0399925 0 0.68538 0.0399972 0 0.68775 0.0399995 0 0.690127 0.040004 0 0.692476 0.0400091 0 0.694824 0.0400243 0 0.697061 0.0400444 0 0.699199 0.0400412 0 0.701336 0.0400096 0 0.7036 0.039974 0 0.705962 0.0399602 0 0.708342 0.0399593 0 0.710703 0.0399677 0 0.713049 0.0399752 0 0.715403 0.0399842 0 0.717759 0.039991 0 0.720118 0.0399949 0 0.722478 0.0399956 0 0.724835 0.0400014 0 0.72719 0.040008 0 0.729543 0.04001 0 0.731899 0.040011 0 0.734256 0.0400102 0 0.736612 0.0400109 0 0.738965 0.0400097 0 0.741318 0.040011 0 0.743667 0.0400131 0 0.74602 0.0400155 0 0.748374 0.0400166 0 0.750729 0.0400172 0 0.75308 0.0400147 0 0.755431 0.0400114 0 0.757782 0.0400121 0 0.760136 0.040016 0 0.762492 0.0400155 0 0.764849 0.0400171 0 0.767202 0.0400162 0 0.769553 0.0400146 0 0.771905 0.0400122 0 0.774261 0.0400112 0 0.776618 0.0400116 0 0.778975 0.0400116 0 0.781331 0.0400103 0 0.783682 0.0400072 0 0.786034 0.0400029 0 0.788389 0.0399988 0 0.790753 0.0399941 0 0.793122 0.0399902 0 0.7955 0.0399886 0 0.797863 0.0399863 0 0.80018 0.0399883 0 0.802782 0.0399937 0 0.805907 0.0399989 0 0.810181 0.0399999 0 0.815029 0.04 0 0.820005 0.04 0 0.825001 0.04 0 0.83 0.04 0 0.835 0.04 0 0.84 0.04 0 0.845 0.04 0 0.85 0.04 0 0.855 0.04 0 0.86 0.04 0 0.865 0.04 0 0.87 0.04 0 0.875 0.04 0 0.88 0.04 0 0.885 0.04 0 0.89 0.04 0 0.895 0.04 0 0.9 0.04 0 0.905 0.04 0 0.91 0.04 0 0.915 0.04 0 0.92 0.04 0 0.925 0.04 0 0.93 0.04 0 0.935 0.04 0 0.94 0.04 0 0.945 0.04 0 0.95 0.04 0 0.955 0.04 0 0.96 0.04 0 0.965 0.04 0 0.97 0.04 0 0.975 0.04 0 0.98 0.04 0 0.985 0.04 0 0.99 0.04 0 0.995 0.04 0 1 0.04 0 0 0.06 0 0.005 0.06 0 0.01 0.06 0 0.015 0.06 0 0.02 0.06 0 0.025 0.06 0 0.03 0.06 0 0.035 0.06 0 0.04 0.06 0 0.045 0.06 0 0.05 0.06 0 0.055 0.06 0 0.06 0.06 0 0.065 0.06 0 0.07 0.06 0 0.075 0.06 0 0.08 0.06 0 0.085 0.06 0 0.09 0.06 0 0.095 0.06 0 0.1 0.06 0 0.105 0.06 0 0.11 0.06 0 0.115 0.06 0 0.12 0.06 0 0.125 0.06 0 0.13 0.06 0 0.135 0.06 0 0.14 0.06 0 0.145 0.06 0 0.15 0.06 0 0.155 0.06 0 0.16 0.06 0 0.165 0.06 0 0.17 0.06 0 0.175 0.06 0 0.18 0.06 0 0.185 0.06 0 0.19 0.06 0 0.195 0.06 0 0.2 0.06 0 0.205 0.06 0 0.21 0.06 0 0.215 0.06 0 0.22 0.06 0 0.225 0.06 0 0.23 0.06 0 0.235001 0.06 0 0.240002 0.06 0 0.245005 0.06 0 0.250012 0.06 0 0.255024 0.06 0 0.260046 0.06 0 0.265083 0.06 0 0.270141 0.06 0 0.275227 0.06 0 0.280349 0.06 0 0.285515 0.06 0 0.290733 0.06 0 0.296013 0.06 0 0.301363 0.06 0 0.306791 0.06 0 0.312305 0.06 0 0.317914 0.06 0 0.323626 0.06 0 0.329448 0.06 0 0.335389 0.06 0 0.341458 0.06 0 0.347664 0.06 0 0.354015 0.06 0 0.360521 0.06 0 0.367194 0.06 0 0.374042 0.06 0 0.381079 0.06 0 0.
[...]
			<CellData Scalars="Density">
				<DataArray Name="Density" type="Float32" format="ascii">
 1 1 1 1 1 1 1 1 1 1 1 1 1 1 1 1 1 1 1 1 1 1 1 1 1 1 1 1 1 1 1 1 1 1 1 1 1 1 1 1 1 0.999999 0.999998 0.999993 0.999983 0.999957 0.999891 0.999729 0.999384 0.99871 0.997519 0.995584 0.992671 0.98857 0.983118 0.976226 0.967869 0.958088 0.946967 0.934617 0.921166 0.90674 0.891462 0.875442 0.858779 0.841559 0.823857 0.805736 0.787254 0.768454 0.749383 0.730076 0.710572 0.690902 0.671104 0.651217 0.631285 0.611361 0.591511 0.571821 0.552401 0.533399 0.515009 0.497483 0.48114 0.466356 0.453529 0.443002 0.434957 0.429312 0.425705 0.42358 0.422351 0.421529 0.420775 0.419855 0.418524 0.416266 0.410961 0.390423 0.255441 0.260308 0.259951 0.260129 0.260838 0.26149 0.262078 0.262437 0.262871 0.263187 0.26344 0.263696 0.263932 0.264092 0.264302 0.264624 0.265434 0.265751 0.265528 0.265391 0.265367 0.265307 0.26527 0.26524 0.265191 0.265213 0.265222 0.265247 0.265283 0.265319 0.265301 0.265345 0.265336 0.265388 0.265398 0.265428 0.265388 0.265448 0.265448 0.265465 0.265476 0.265504 0.265437 0.26547 0.26545 0.26549 0.265501 0.265481 0.265466 0.265456 0.265455 0.265456 0.265461 0.265532 0.26553 0.265087 0.264575 0.266851 0.272698 0.26364 0.224377 0.149213 0.128866 0.125611 0.125096 0.125015 0.125002 0.125 0.125 0.125 0.125 0.125 0.125 0.125 0.125 0.125 0.125 0.125 0.125 0.125 0.125 0.125 0.125 0.125 0.125 0.125 0.125 0.125 0.125 0.125 0.125 0.125 0.125 0.125 0.125 0.125 0.125 0.125 0.125 0.125 1 1 1 1 1 1 1 1 1 1 1 1 1 1 1 1 1 1 1 1 1 1 1 1 1 1 1 1 1 1 1 1 1 1 1 1 1 1 1 1 1 0.999999 0.999998 0.999993 0.999983 0.999957 0.999891 0.999729 0.999384 0.99871 0.997519 0.995584 0.992671 0.98857 0.983118 0.976226 0.967869 0.958088 0.946967 0.934617 0.921166 0.90674 0.891462 0.875442 0.858779 0.841559 0.823857 0.805736 0.787254 0.768454 0.749383 0.730076 0.710572 0.690902 0.671104 0.651217 0.631285 0.611361 0.591511 0.571821 0.552401 0.533399 0.515009 0.497483 0.48114 0.466356 0.453529 0.443002 0.434957 0.429312 0.425705 0.423581 0.422352 0.42153 0.420778 0.419859 0.418532 0.416285 0.410989 0.39048 0.255428 0.260346 0.259916 0.2602 0.260776 0.261577 0.262022 0.262506 0.262847 0.263156 0.263372 0.263715 0.263911 0.264063 0.264261 0.264621 0.265367 0.265803 0.265602 0.265457 0.265364 0.265311 0.265279 0.265247 0.265273 0.265205 0.265239 0.265255 0.265298 0.265309 0.265324 0.265325 0.26536 0.265374 0.265421 0.265378 0.265457 0.265336 0.265406 0.265449 0.265487 0.265433 0.265488 0.265407 0.265489 0.265451 0.2655 0.2655 0.265536 0.265463 0.265387 0.265392 0.265477 0.265558 0.265365 0.264961 0.264605 0.267722 0.273373 0.263063 0.221751 0.149028 0.128887 0.125616 0.125097 0.125015 0.125002 0.125 0.125 0.125 0.125 0.125 0.125 0.125 0.125 0.125 0.125 0.125 0.125 0.125 0.125 0.125 0.125 0.125 0.125 0.125 0.125 0.125 0.125 0.125 0.125 0.125 0.125 0.125 0.125 0.125 0.125 0.125 0.125 0.125 1 1 1 1 1 1 1 1 1 1 1 1 1 1 1 1 1 1 1 1 1 1 1 1 1 1 1 1 1 1 1 1 1 1 1 1 1 1 1 1 1 0.999999 0.999998 0.999993 0.999983 0.999957 0.999891 0.999729 0.999384 0.99871 0.997519 0.995584 0.992671 0.98857 0.983118 0.976226 0.967869 0.958088 0.946967 0.934617 0.921166 0.90674 0.891462 0.875442 0.858779 0.841559 0.823857 0.805736 0.787254 0.768454 0.749383 0.730076 0.710572 0.690902 0.671104 0.651217 0.631285 0.611361 0.591511 0.571821 0.552401 0.533399 0.515009 0.497483 0.48114 0.466356 0.453529 0.443002 0.434957 0.429312 0.425706 0.423583 0.422355 0.421534 0.420783 0.419865 0.418539 0.4163 0.411018 0.390493 0.25554 0.260342 0.259933 0.260185 0.260809 0.261525 0.262085 0.262497 0.26289 0.263182 0.263457 0.263683 0.263898 0.264103 0.264245 0.264508 0.265345 0.265707 0.265479 0.265432 0.265371 0.26533 0.265228 0.265245 0.265194 0.265213 0.265224 0.265319 0.265247 0.26532 0.265326 0.265363 0.265348 0.265386 0.265333 0.265435 0.265406 0.265373 0.26541 0.265484 0.265509 0.265492 0.265449 0.265468 0.265423 0.265484 0.26541 0.265531 0.265545 0.265488 0.265286 0.265209 0.265401 0.265428 0.265063 0.264149 0.264555 0.267571 0.273757 0.263115 0.221544 0.14927 0.12893 0.12562 0.125097 0.125015 0.125002 0.125 0.125 0.125 0.125 0.125 0.125 0.125 0.125 0.125 0.125 0.125 0.125 0.125 0.125 0.125 0.125 0.125 0.125 0.125 0.125 0.125 0.125 0.125 0.125 0.125 0.125 0.125 0.125 0.125 0.125 0.125 0.125 0.125 1 1 1 1 1 1 1 1 1 1 1 1 1 1 1 1 1 1 1 1 1 1 1 1 1 1 1 1 1 1 1 1 1 1 1 1 1 1 1 1 1 0.999999 0.999998 0.999993 0.999983 0.999957 0.999891 0.999729 0.999384 0.99871 0.997519 0.995584 0.992671 0.98857 0.983118 0.976226 0.967869 0.958088 0.946967 0.934617 0.921166 0.90674 0.891462 0.875442 0.858779 0.841559 0.823857 0.805736 0.787254 0.768454 0.749383 0.730076 0.710572 0.690902 0.671104 0.651217 0.631285 0.611361 0.591511 0.571821 0.552401 0.533399 0.515009 0.497483 0.48114 0.466355 0.453529 0.443002 0.434957 0.429313 0.425707 0.423585 0.422359 0.421539 0.420787 0.419868 0.41854 0.416296 0.411004 0.390473 0.255375 0.260315 0.259994 0.260198 0.260806 0.261539 0.262043 0.262468 0.262819 0.263198 0.263466 0.263662 0.263937 0.264087 0.264385 0.264507 0.26533 0.265714 0.265648 0.265392 0.265457 0.265328 0.265345 0.265298 0.265215 0.265327 0.265201 0.265356 0.265289 0.265387 0.265368 0.26541 0.265383 0.265462 0.265372 0.265525 0.26543 0.265431 0.265496 0.265518 0.265527 0.265598 0.265526 0.265607 0.265547 0.265641 0.265568 0.265659 0.265648 0.265639 0.265554 0.265476 0.26574 0.265989 0.265763 0.264813 0.264803 0.267516 0.271716 0.262084 0.225654 0.149823 0.128957 0.125622 0.125097 0.125015 0.125002 0.125 0.125 0.125 0.125 0.125 0.125 0.125 0.125 0.125 0.125 0.125 0.125 0.125 0.125 0.125 0.125 0.125 0.125 0.125 0.125 0.125 0.125 0.125 0.125 0.125 0.125 0.125 0.125 0.125 0.125 0.125 0.125 0.125 1 1 1 1 1 1 1 1 1 1 1 1 1 1 1 1 1 1 1 1 1 1 1 1 1 1 1 1 1 1 1 1 1 1 1 1 1 1 1 1 1 0.999999 0.999998 0.999993 0.999983 0.999957 0.999891 0.999729 0.999384 0.99871 0.997519 0.995584 0.992671 0.98857 0.983118 0.976226 0.967869 0.958088 0.946967 0.934617 0.921166 0.90674 0.891462 0.875442 0.858779 0.841559 0.823857 0.805736 0.787254 0.768454 0.749383 0.730076 0.710572 0.690902 0.671104 0.651217 0.631285 0.611361 0.591511 0.571821 0.552401 0.533399 0.515009 0.497483 0.48114 0.466356 0.453529 0.443003 0.434958 0.429314 0.425709 0.423588 0.422362 0.421541 0.420787 0.419867 0.418536 0.416283 0.410976 0.39042 0.255449 0.260347 0.259897 0.260171 0.260796 0.261537 0.262035 0.262444 0.262832 0.263162 0.263464 0.263772 0.263964 0.264093 0.264257 0.264568 0.26528 0.265771 0.265518 0.265417 0.265378 0.265353 0.265319 0.26527 0.26523 0.265197 0.265247 0.265227 0.26529 0.265274 0.265295 0.265298 0.26534 0.265361 0.265414 0.265393 0.26542 0.265412 0.26542 0.265442 0.265467 0.265452 0.265496 0.265482 0.265519 0.265519 0.26556 0.265542 0.265559 0.265553 0.265539 0.265549 0.265677 0.26586 0.265689 0.264911 0.264923 0.268081 0.272239 0.25942 0.222484 0.148535 0.128891 0.125619 0.125097 0.125015 0.125002 0.125 0.125 0.125 0.125 0.125 0.125 0.125 0.125 0.125 0.125 0.125 0.125 0.125 0.125 0.125 0.125 0.125 0.125 0.125 0.125 0.125 0.125 0.125 0.125 0.125 0.125 0.125 0.125 0.125 0.125 0.125 0.125 0.125
				</DataArray>
				<DataArray Name="Energy" type="Float32" format="ascii">
 2.5 2.5 2.5 2.5 2.5 2.5 2.5 2.5 2.5 2.5 2.5 2.5 2.5 2.5 2.5 2.5 2.5 2.5 2.5 2.5 2.5 2.5 2.5 2.5 2.5 2.5 2.5 2.5 2.5 2.5 2.5 2.5 2.5 2.5 2.5 2.5 2.5 2.5 2.5 2.5 2.5 2.5 2.5 2.49999 2.49998 2.49996 2.49989 2.49973 2.49938 2.49871 2.49752 2.49558 2.49266 2.48855 2.48307 2.47612 2.46766 2.45771 2.44634 2.43363 2.41968 2.4046 2.38849 2.37143 2.3535 2.33476 2.31528 2.29509 2.27424 2.25275 2.23064 2.20793 2.18465 2.16081 2.13643 2.11154 2.08616 2.06035 2.03417 2.00773 1.98115 1.95466 1.92854 1.90319 1.87916 1.8571 1.83776 1.82188 1.80992 1.80195 1.79753 1.7959 1.7962 1.79781 1.80046 1.80429 1.81003 1.81991 1.84345 1.94048 2.96657 2.91033 2.91508 2.91216 2.90558 2.89691 2.89161 2.8866 2.88242 2.87893 2.87615 2.87312 2.87077 2.86911 2.86699 2.86311 2.85474 2.85123 2.85367 2.85488 2.85522 2.8558 2.85639 2.85685 2.85708 2.85709 2.85695 2.85672 2.85637 2.85603 2.85602 2.85589 2.85549 2.85534 2.85487 2.85469 2.85469 2.85475 2.85453 2.85433 2.85402 2.85398 2.85384 2.85393 2.8537 2.85368 2.85348 2.85332 2.85317 2.85327 2.85319 2.85303 2.8529 2.85319 2.85299 2.85091 2.84891 2.85853 2.88285 2.84286 2.64324 2.16894 2.02528 2.00393 2.00062 2.0001 2.00002 2 2 2 2 2 2 2 2 2 2 2 2 2 2 2 2 2 2 2 2 2 2 2 2 2 2 2 2 2 2 2 2 2 2.5 2.5 2.5 2.5 2.5 2.5 2.5 2.5 2.5 2.5 2.5 2.5 2.5 2.5 2.5 2.5 2.5 2.5 2.5 2.5 2.5 2.5 2.5 2.5 2.5 2.5 2.5 2.5 2.5 2.5 2.5 2.5 2.5 2.5 2.5 2.5 2.5 2.5 2.5 2.5 2.5 2.5 2.5 2.49999 2.49998 2.49996 2.49989 2.49973 2.49938 2.49871 2.49752 2.49558 2.49266 2.48855 2.48307 2.47612 2.46766 2.45771 2.44634 2.43363 2.41968 2.4046 2.38849 2.37143 2.3535 2.33476 2.31528 2.29509 2.27424 2.25275 2.23064 2.20793 2.18465 2.16081 2.13643 2.11154 2.08616 2.06035 2.03417 2.00773 1.98115 1.95466 1.92854 1.90319 1.87916 1.8571 1.83776 1.82188 1.80992 1.80195 1.79753 1.7959 1.79621 1.79782 1.80047 1.8043 1.81004 1.81994 1.8435 1.94059 2.9665 2.91049 2.91493 2.91248 2.9053 2.89729 2.89137 2.8869 2.88231 2.8788 2.87586 2.8732 2.87067 2.86905 2.86697 2.86397 2.85523 2.85058 2.85294 2.85466 2.85514 2.856 2.85647 2.85682 2.85732 2.85707 2.85703 2.85679 2.85648 2.85614 2.85618 2.85599 2.8558 2.85546 2.85517 2.85478 2.85507 2.8546 2.85469 2.85456 2.85442 2.85414 2.85421 2.85411 2.85438 2.85395 2.85405 2.85408 2.85402 2.8537 2.85353 2.85342 2.85383 2.85425 2.85327 2.85135 2.84968 2.86318 2.88695 2.84181 2.63186 2.16755 2.02542 2.00396 2.00062 2.0001 2.00002 2 2 2 2 2 2 2 2 2 2 2 2 2 2 2 2 2 2 2 2 2 2 2 2 2 2 2 2 2 2 2 2 2 2.5 2.5 2.5 2.5 2.5 2.5 2.5 2.5 2.5 2.5 2.5 2.5 2.5 2.5 2.5 2.5 2.5 2.5 2.5 2.5 2.5 2.5 2.5 2.5 2.5 2.5 2.5 2.5 2.5 2.5 2.5 2.5 2.5 2.5 2.5 2.5 2.5 2.5 2.5 2.5 2.5 2.5 2.5 2.49999 2.49998 2.49996 2.49989 2.49973 2.49938 2.49871 2.49752 2.49558 2.49266 2.48855 2.48307 2.47612 2.46766 2.45771 2.44634 2.43363 2.41968 2.4046 2.38849 2.37143 2.3535 2.33476 2.31528 2.29509 2.27424 2.25275 2.23064 2.20793 2.18465 2.16081 2.13643 2.11154 2.08616 2.06035 2.03417 2.00773 1.98115 1.95466 1.92854 1.90319 1.87916 1.8571 1.83776 1.82188 1.80992 1.80195 1.79753 1.7959 1.79621 1.79782 1.80047 1.80431 1.81005 1.81997 1.84355 1.94062 2.96703 2.91048 2.915 2.91241 2.90545 2.89706 2.89164 2.88686 2.8825 2.87891 2.87623 2.87306 2.87063 2.86918 2.8667 2.86332 2.85587 2.85174 2.85372 2.85526 2.85531 2.85575 2.85608 2.85673 2.857 2.85708 2.85694 2.85705 2.85628 2.85627 2.85635 2.85627 2.85583 2.85561 2.85491 2.85521 2.85518 2.85495 2.85485 2.85487 2.85473 2.85462 2.85444 2.85465 2.85428 2.85431 2.85394 2.85448 2.85448 2.8543 2.85342 2.85299 2.8538 2.854 2.85242 2.8484 2.85012 2.86305 2.88896 2.84281 2.63121 2.16935 2.02571 2.00398 2.00062 2.0001 2.00002 2 2 2 2 2 2 2 2 2 2 2 2 2 2 2 2 2 2 2 2 2 2 2 2 2 2 2 2 2 2 2 2 2 2.5 2.5 2.5 2.5 2.5 2.5 2.5 2.5 2.5 2.5 2.5 2.5 2.5 2.5 2.5 2.5 2.5 2.5 2.5 2.5 2.5 2.5 2.5 2.5 2.5 2.5 2.5 2.5 2.5 2.5 2.5 2.5 2.5 2.5 2.5 2.5 2.5 2.5 2.5 2.5 2.5 2.5 2.5 2.49999 2.49998 2.49996 2.49989 2.49973 2.49938 2.49871 2.49752 2.49558 2.49266 2.48855 2.48307 2.47612 2.46766 2.45771 2.44634 2.43363 2.41968 2.4046 2.38849 2.37143 2.3535 2.33476 2.31528 2.29509 2.27424 2.25275 2.23064 2.20793 2.18465 2.16081 2.13643 2.11154 2.08616 2.06035 2.03417 2.00773 1.98115 1.95466 1.92854 1.90319 1.87916 1.8571 1.83776 1.82188 1.80992 1.80195 1.79754 1.79591 1.79622 1.79783 1.80048 1.80431 1.81006 1.81996 1.84353 1.94058 2.96626 2.91035 2.91528 2.91247 2.90544 2.89713 2.89146 2.88673 2.88219 2.87898 2.87627 2.87297 2.87079 2.86915 2.86748 2.86423 2.85642 2.8507 2.85313 2.85408 2.85504 2.85549 2.85616 2.85668 2.85661 2.85705 2.85634 2.85673 2.85601 2.85612 2.85592 2.85576 2.85532 2.85529 2.85443 2.85487 2.85443 2.85419 2.85424 2.85408 2.85372 2.85392 2.85365 2.85382 2.85343 2.85365 2.85305 2.85327 2.85333 2.85314 2.85265 2.85216 2.85302 2.85386 2.85295 2.84887 2.84869 2.86004 2.87718 2.83498 2.64704 2.17316 2.02588 2.00399 2.00062 2.0001 2.00002 2 2 2 2 2 2 2 2 2 2 2 2 2 2 2 2 2 2 2 2 2 2 2 2 2 2 2 2 2 2 2 2 2 2.5 2.5 2.5 2.5 2.5 2.5 2.5 2.5 2.5 2.5 2.5 2.5 2.5 2.5 2.5 2.5 2.5 2.5 2.5 2.5 2.5 2.5 2.5 2.5 2.5 2.5 2.5 2.5 2.5 2.5 2.5 2.5 2.5 2.5 2.5 2.5 2.5 2.5 2.5 2.5 2.5 2.5 2.5 2.49999 2.49998 2.49996 2.49989 2.49973 2.49938 2.49871 2.49752 2.49558 2.49266 2.48855 2.48307 2.47612 2.46766 2.45771 2.44634 2.43363 2.41968 2.4046 2.38849 2.37143 2.3535 2.33476 2.31528 2.29509 2.27424 2.25275 2.23064 2.20793 2.18465 2.16081 2.13643 2.11154 2.08616 2.06035 2.03417 2.00773 1.98115 1.95466 1.92854 1.90319 1.87916 1.8571 1.83776 1.82188 1.80992 1.80195 1.79754 1.79591 1.79622 1.79784 1.80048 1.80431 1.81005 1.81994 1.84348 1.94047 2.9666 2.9105 2.91485 2.91235 2.90539 2.89712 2.89142 2.88663 2.88224 2.87882 2.87626 2.87346 2.87091 2.86915 2.86677 2.86415 2.85625 2.85151 2.85322 2.85489 2.8554 2.85614 2.85649 2.85697 2.85719 2.85705 2.85709 2.85671 2.85658 2.85626 2.85621 2.85601 2.85587 2.85559 2.85542 2.85516 2.85525 2.85514 2.85497 2.8548 2.85461 2.85455 2.85475 2.85474 2.85481 2.85463 2.85458 2.85458 2.85474 2.85477 2.8547 2.85459 2.85501 2.85587 2.85531 2.85201 2.8521 2.86551 2.88273 2.8268 2.63091 2.16354 2.02544 2.00397 2.00062 2.0001 2.00002 2 2 2 2 2 2 2 2 2 2 2 2 2 2 2 2 2 2 2 2 2 2 2 2 2 2 2 2 2 2 2 2 2
				</DataArray>
				<DataArray Name="F1" type="Float32" format="ascii">
 1 1 1 1 1 1 1 1 1 1 1 1 1 1 1 1 1 1 1 1 1 1 1 1 1 1 1 1 1 1 1 1 1 1 1 1 1 1 1 1 1 1 1 1 1 1 1 1 1 1 1 1 1 1 1 1 1 1 1 1 1 1 1 1 1 1 1 1 1 1 1 1 1 1 1 1 1 1 1 1 1 1 1 1 1 1 1 1 1 1 1 1 1 1 1 1 1 1 1 1 0 0 0 0 0 0 0 0 0 0 0 0 0 0 0 0 0 0 0 0 0 0 0 0 0 0 0 0 0 0 0 0 0 0 0 0 0 0 0 0 0 0 0 0 0 0 0 0 0 0 0 0 0 0 0 0 0 0 0 0 0 0 0 0 0 0 0 0 0 0 0 0 0 0 0 0 0 0 0 0 0 0 0 0 0 0 0 0 0 0 0 0 0 0 0 0 0 0 0 0 1 1 1 1 1 1 1 1 1 1 1 1 1 1 1 1 1 1 1 1 1 1 1 1 1 1 1 1 1 1 1 1 1 1 1 1 1 1 1 1 1 1 1 1 1 1 1 1 1 1 1 1 1 1 1 1 1 1 1 1 1 1 1 1 1 1 1 1 1 1 1 1 1 1 1 1 1 1 1 1 1 1 1 1 1 1 1 1 1 1 1 1 1 1 1 1 1 1 1 1 0 0 0 0 0 0 0 0 0 0 0 0 0 0 0 0 0 0 0 0 0 0 0 0 0 0 0 0 0 0 0 0 0 0 0 0 0 0 0 0 0 0 0 0 0 0 0 0 0 0 0 0 0 0 0 0 0 0 0 0 0 0 0 0 0 0 0 0 0 0 0 0 0 0 0 0 0 0 0 0 0 0 0 0 0 0 0 0 0 0 0 0 0 0 0 0 0 0 0 0 1 1 1 1 1 1 1 1 1 1 1 1 1 1 1 1 1 1 1 1 1 1 1 1 1 1 1 1 1 1 1 1 1 1 1 1 1 1 1 1 1 1 1 1 1 1 1 1 1 1 1 1 1 1 1 1 1 1 1 1 1 1 1 1 1 1 1 1 1 1 1 1 1 1 1 1 1 1 1 1 1 1 1 1 1 1 1 1 1 1 1 1 1 1 1 1 1 1 1 1 0 0 0 0 0 0 0 0 0 0 0 0 0 0 0 0 0 0 0 0 0 0 0 0 0 0 0 0 0 0 0 0 0 0 0 0 0 0 0 0 0 0 0 0 0 0 0 0 0 0 0 0 0 0 0 0 0 0 0 0 0 0 0 0 0 0 0 0 0 0 0 0 0 0 0 0 0 0 0 0 0 0 0 0 0 0 0 0 0 0 0 0 0 0 0 0 0 0 0 0 1 1 1 1 1 1 1 1 1 1 1 1 1 1 1 1 1 1 1 1 1 1 1 1 1 1 1 1 1 1 1 1 1 1 1 1 1 1 1 1 1 1 1 1 1 1 1 1 1 1 1 1 1 1 1 1 1 1 1 1 1 1 1 1 1 1 1 1 1 1 1 1 1 1 1 1 1 1 1 1 1 1 1 1 1 1 1 1 1 1 1 1 1 1 1 1 1 1 1 1 0 0 0 0 0 0 0 0 0 0 0 0 0 0 0 0 0 0 0 0 0 0 0 0 0 0 0 0 0 0 0 0 0 0 0 0 0 0 0 0 0 0 0 0 0 0 0 0 0 0 0 0 0 0 0 0 0 0 0 0 0 0 0 0 0 0 0 0 0 0 0 0 0 0 0 0 0 0 0 0 0 0 0 0 0 0 0 0 0 0 0 0 0 0 0 0 0 0 0 0 1 1 1 1 1 1 1 1 1 1 1 1 1 1 1 1 1 1 1 1 1 1 1 1 1 1 1 1 1 1 1 1 1 1 1 1 1 1 1 1 1 1 1 1 1 1 1 1 1 1 1 1 1 1 1 1 1 1 1 1 1 1 1 1 1 1 1 1 1 1 1 1 1 1 1 1 1 1 1 1 1 1 1 1 1 1 1 1 1 1 1 1 1 1 1 1 1 1 1 1 0 0 0 0 0 0 0 0 0 0 0 0 0 0 0 0 0 0 0 0 0 0 0 0 0 0 0 0 0 0 0 0 0 0 0 0 0 0 0 0 0 0 0 0 0 0 0 0 0 0 0 0 0 0 0 0 0 0 0 0 0 0 0 0 0 0 0 0 0 0 0 0 0 0 0 0 0 0 0 0 0 0 0 0 0 0 0 0 0 0 0 0 0 0 0 0 0 0 0 0
				</DataArray>
				<DataArray Name="F2" type="Float32" format="ascii">
 0 0 0 0 0 0 0 0 0 0 0 0 0 0 0 0 0 0 0 0 0 0 0 0 0 0 0 0 0 0 0 0 0 0 0 0 0 0 0 0 0 0 0 0 0 0 0 0 0 0 0 0 0 0 0 0 0 0 0 0 0 0 0 0 0 0 0 0 0 0 0 0 0 0 0 0 0 0 0 0 0 0 0 0 0 0 0 0 0 0 0 0 0 0 0 0 0 0 0 0 1 1 1 1 1 1 1 1 1 1 1 1 1 1 1 1 1 1 1 1 1 1 1 1 1 1 1 1 1 1 1 1 1 1 1 1 1 1 1 1 1 1 1 1 1 1 1 1 1 1 1 1 1 1 1 1 1 1 1 1 1 1 1 1 1 1 1 1 1 1 1 1 1 1 1 1 1 1 1 1 1 1 1 1 1 1 1 1 1 1 1 1 1 1 1 1 1 1 1 1 0 0 0 0 0 0 0 0 0 0 0 0 0 0 0 0 0 0 0 0 0 0 0 0 0 0 0 0 0 0 0 0 0 0 0 0 0 0 0 0 0 0 0 0 0 0 0 0 0 0 0 0 0 0 0 0 0 0 0 0 0 0 0 0 0 0 0 0 0 0 0 0 0 0 0 0 0 0 0 0 0 0 0 0 0 0 0 0 0 0 0 0 0 0 0 0 0 0 0 0 1 1 1 1 1 1 1 1 1 1 1 1 1 1 1 1 1 1 1 1 1 1 1 1 1 1 1 1 1 1 1 1 1 1 1 1 1 1 1 1 1 1 1 1 1 1 1 1 1 1 1 1 1 1 1 1 1 1 1 1 1 1 1 1 1 1 1 1 1 1 1 1 1 1 1 1 1 1 1 1 1 1 1 1 1 1 1 1 1 1 1 1 1 1 1 1 1 1 1 1 0 0 0 0 0 0 0 0 0 0 0 0 0 0 0 0 0 0 0 0 0 0 0 0 0 0 0 0 0 0 0 0 0 0 0 0 0 0 0 0 0 0 0 0 0 0 0 0 0 0 0 0 0 0 0 0 0 0 0 0 0 0 0 0 0 0 0 0 0 0 0 0 0 0 0 0 0 0 0 0 0 0 0 0 0 0 0 0 0 0 0 0 0 0 0 0 0 0 0 0 1 1 1 1 1 1 1 1 1 1 1 1 1 1 1 1 1 1 1 1 1 1 1 1 1 1 1 1 1 1 1 1 1 1 1 1 1 1 1 1 1 1 1 1 1 1 1 1 1 1 1 1 1 1 1 1 1 1 1 1 1 1 1 1 1 1 1 1 1 1 1 1 1 1 1 1 1 1 1 1 1 1 1 1 1 1 1 1 1 1 1 1 1 1 1 1 1 1 1 1 0 0 0 0 0 0 0 0 0 0 0 0 0 0 0 0 0 0 0 0 0 0 0 0 0 0 0 0 0 0 0 0 0 0 0 0 0 0 0 0 0 0 0 0 0 0 0 0 0 0 0 0 0 0 0 0 0 0 0 0 0 0 0 0 0 0 0 0 0 0 0 0 0 0 0 0 0 0 0 0 0 0 0 0 0 0 0 0 0 0 0 0 0 0 0 0 0 0 0 0 1 1 1 1 1 1 1 1 1 1 1 1 1 1 1 1 1 1 1 1 1 1 1 1 1 1 1 1 1 1 1 1 1 1 1 1 1 1 1 1 1 1 1 1 1 1 1 1 1 1 1 1 1 1 1 1 1 1 1 1 1 1 1 1 1 1 1 1 1 1 1 1 1 1 1 1 1 1 1 1 1 1 1 1 1 1 1 1 1 1 1 1 1 1 1 1 1 1 1 1 0 0 0 0 0 0 0 0 0 0 0 0 0 0 0 0 0 0 0 0 0 0 0 0 0 0 0 0 0 0 0 0 0 0 0 0 0 0 0 0 0 0 0 0 0 0 0 0 0 0 0 0 0 0 0 0 0 0 0 0 0 0 0 0 0 0 0 0 0 0 0 0 0 0 0 0 0 0 0 0 0 0 0 0 0 0 0 0 0 0 0 0 0 0 0 0 0 0 0 0 1 1 1 1 1 1 1 1 1 1 1 1 1 1 1 1 1 1 1 1 1 1 1 1 1 1 1 1 1 1 1 1 1 1 1 1 1 1 1 1 1 1 1 1 1 1 1 1 1 1 1 1 1 1 1 1 1 1 1 1 1 1 1 1 1 1 1 1 1 1 1 1 1 1 1 1 1 1 1 1 1 1 1 1 1 1 1 1 1 1 1 1 1 1 1 1 1 1 1 1
				</DataArray>
				<DataArray Name="F3" type="Float32" format="ascii">
 0 0 0 0 0 0 0 0 0 0 0 0 0 0 0 0 0 0 0 0 0 0 0 0 0 0 0 0 0 0 0 0 0 0 0 0 0 0 0 0 0 0 0 0 0 0 0 0 0 0 0 0 0 0 0 0 0 0 0 0 0 0 0 0 0 0 0 0 0 0 0 0 0 0 0 0 0 0 0 0 0 0 0 0 0 0 0 0 0 0 0 0 0 0 0 0 0 0 0 0 0 0 0 0 0 0 0 0 0 0 0 0 0 0 0 0 0 0 0 0 0 0 0 0 0 0 0 0 0 0 0 0 0 0 0 0 0 0 0 0 0 0 0 0 0 0 0 0 0 0 0 0 0 0 0 0 0 0 0 0 0 0 0 0 0 0 0 0 0 0 0 0 0 0 0 0 0 0 0 0 0 0 0 0 0 0 0 0 0 0 0 0 0 0 0 0 0 0 0 0 0 0 0 0 0 0 0 0 0 0 0 0 0 0 0 0 0 0 0 0 0 0 0 0 0 0 0 0 0 0 0 0 0 0 0 0 0 0 0 0 0 0 0 0 0 0 0 0 0 0 0 0 0 0 0 0 0 0 0 0 0 0 0 0 0 0 0 0 0 0 0 0 0 0 0 0 0 0 0 0 0 0 0 0 0 0 0 0 0 0 0 0 0 0 0 0 0 0 0 0 0 0 0 0 0 0 0 0 0 0 0 0 0 0 0 0 0 0 0 0 0 0 0 0 0 0 0 0 0 0 0 0 0 0 0 0 0 0 0 0 0 0 0 0 0 0 0 0 0 0 0 0 0 0 0 0 0 0 0 0 0 0 0 0 0 0 0 0 0 0 0 0 0 0 0 0 0 0 0 0 0 0 0 0 0 0 0 0 0 0 0 0 0 0 0 0 0 0 0 0 0 0 0 0 0 0 0 0 0 0 0 0 0 0 0 0 0 0 0 0 0 0 0 0 0 0 0 0 0 0 0 0 0 0 0 0 0 0 0 0 0 0 0 0 0 0 0 0 0 0 0 0 0 0 0 0 0 0 0 0 0 0 0 0 0 0 0 0 0 0 0 0 0 0 0 0 0 0 0 0 0 0 0 0 0 0 0 0 0 0 0 0 0 0 0 0 0 0 0 0 0 0 0 0 0 0 0 0 0 0 0 0 0 0 0 0 0 0 0 0 0 0 0 0 0 0 0 0 0 0 0 0 0 0 0 0 0 0 0 0 0 0 0 0 0 0 0 0 0 0 0 0 0 0 0 0 0 0 0 0 0 0 0 0 0 0 0 0 0 0 0 0 0 0 0 0 0 0 0 0 0 0 0 0 0 0 0 0 0 0 0 0 0 0 0 0 0 0 0 0 0 0 0 0 0 0 0 0 0 0 0 0 0 0 0 0 0 0 0 0 0 0 0 0 0 0 0 0 0 0 0 0 0 0 0 0 0 0 0 0 0 0 0 0 0 0 0 0 0 0 0 0 0 0 0 0 0 0 0 0 0 0 0 0 0 0 0 0 0 0 0 0 0 0 0 0 0 0 0 0 0 0 0 0 0 0 0 0 0 0 0 0 0 0 0 0 0 0 0 0 0 0 0 0 0 0 0 0 0 0 0 0 0 0 0 0 0 0 0 0 0 0 0 0 0 0 0 0 0 0 0 0 0 0 0 0 0 0 0 0 0 0 0 0 0 0 0 0 0 0 0 0 0 0 0 0 0 0 0 0 0 0 0 0 0 0 0 0 0 0 0 0 0 0 0 0 0 0 0 0 0 0 0 0 0 0 0 0 0 0 0 0 0 0 0 0 0 0 0 0 0 0 0 0 0 0 0 0 0 0 0 0 0 0 0 0 0 0 0 0 0 0 0 0 0 0 0 0 0 0 0 0 0 0 0 0 0 0 0 0 0 0 0 0 0 0 0 0 0 0 0 0 0 0 0 0 0 0 0 0 0 0 0 0 0 0 0 0 0 0 0 0 0 0 0 0 0 0 0 0 0 0 0 0 0 0 0 0 0 0 0 0 0 0 0 0 0 0 0 0 0 0 0 0 0 0 0 0 0 0 0 0 0 0 0 0 0 0 0 0 0 0 0 0 0 0 0 0 0 0 0 0 0 0 0 0 0 0 0 0 0 0 0 0 0 0 0 0 0 0 0 0 0 0 0 0 0 0 0 0 0 0 0 0 0 0 0 0 0 0 0 0 0 0 0 0 0 0 0 0 0 0 0 0 0 0 0 0 0 0 0 0 0 0 0 0 0 0 0 0
				</DataArray>
				<DataArray Name="Pressure" type="Float32" format="ascii">