<?xml version="1.0"?>
<VTKFile type="PolyData">
	<PolyData>
		<Piece NumberOfPoints="1206" NumberOfPolys="1000">
			<Points>
				<DataArray type="Float32" NumberOfComponents="3" format="ascii">
 0 0 0 0.005 0 0 0.01 0 0 0.015 0 0 0.02 0 0 0.025 0 0 0.03 0 0 0.035 0 0 0.04 0 0 0.045 0 0 0.05 0 0 0.055 0 0 0.06 0 0 0.065 0 0 0.07 0 0 0.075 0 0 0.08 0 0 0.085 0 0 0.09 0 0 0.095 0 0 0.1 0 0 0.105 0 0 0.11 0 0 0.115 0 0 0.12 0 0 0.125 0 0 0.13 0 0 0.135 0 0 0.14 0 0 0.145 0 0 0.15 0 0 0.155 0 0 0.16 0 0 0.165 0 0 0.17 0 0 0.175 0 0 0.18 0 0 0.185 0 0 0.19 0 0 0.195 0 0 0.2 0 0 0.205 0 0 0.21 0 0 0.215 0 0 0.22 0 0 0.225 0 0 0.23 0 0 0.235 0 0 0.24 0 0 0.245 0 0 0.25 0 0 0.255 0 0 0.26 0 0 0.265 0 0 0.27 0 0 0.275 0 0 0.28 0 0 0.285 0 0 0.290001 0 0 0.295002 0 0 0.300006 0 0 0.305014 0 0 0.310031 0 0 0.315063 0 0 0.320118 0 0 0.325206 0 0 0.330339 0 0 0.335529 0 0 0.34079 0 0 0.346134 0 0 0.351574 0 0 0.357124 0 0 0.362798 0 0 0.368607 0 0 0.374567 0 0 0.380691 0 0 0.386994 0 0 0.393492 0 0 0.400202 0 0 0.407142 0 0 0.414331 0 0 0.421791 0 0 0.429545 0 0 0.437617 0 0 0.446032 0 0 0.454816 0 0 0.463995 0 0 0.473589 0 0 0.483609 0 0 0.494053 0 0 0.504897 0 0 0.516092 0 0 0.527566 0 0 0.539234 0 0 0.551025 0 0 0.562884 0 0 0.574788 0 0 0.586735 0 0 0.598747 0 0 0.610916 0 0 0.623725 0 0 0.626173 0 0 0.628575 0 0 0.630981 0 0 0.633388 0 0 0.635791 0 0 0.638186 0 0 0.640576 0 0 0.642961 0 0 0.645341 0 0 0.647711 0 0 0.650073 0 0 0.652441 0 0 0.654783 0 0 0.65713 0 0 0.659373 0 0 0.66152 0 0 0.663669 0 0 0.665948 0 0 0.668328 0 0 0.670731 0 0 0.673108 0 0 0.675468 0 0 0.677829 0 0 0.680191 0 0 0.682555 0 0 0.684915 0 0 0.687271 0 0 0.689625 0 0 0.691977 0 0 0.694333 0 0 0.696689 0 0 0.699044 0 0 0.701396 0 0 0.703745 0 0 0.706095 0 0 0.708447 0 0 0.710803 0 0 0.713157 0 0 0.715508 0 0 0.717856 0 0 0.720206 0 0 0.722564 0 0 0.724938 0 0 0.727287 0 0 0.729626 0 0 0.732286 0 0 0.735621 0 0 0.740109 0 0 0.745017 0 0 0.750003 0 0 0.755 0 0 0.76 0 0 0.765 0 0 0.77 0 0 0.775 0 0 0.78 0 0 0.785 0 0 0.79 0 0 0.795 0 0 0.8 0 0 0.805 0 0 0.81 0 0 0.815 0 0 0.82 0 0 0.825 0 0 0.83 0 0 0.835 0 0 0.84 0 0 0.845 0 0 0.85 0 0 0.855 0 0 0.86 0 0 0.865 0 0 0.87 0 0 0.875 0 0 0.88 0 0 0.885 0 0 0.89 0 0 0.895 0 0 0.9 0 0 0.905 0 0 0.91 0 0 0.915 0 0 0.92 0 0 0.925 0 0 0.93 0 0 0.935 0 0 0.94 0 0 0.945 0 0 0.95 0 0 0.955 0 0 0.96 0 0 0.965 0 0 0.97 0 0 0.975 0 0 0.98 0 0 0.985 0 0 0.99 0 0 0.995 0 0 1 0 0 0 0.02 0 0.005 0.02 0 0.01 0.02 0 0.015 0.02 0 0.02 0.02 0 0.025 0.02 0 0.03 0.02 0 0.035 0.02 0 0.04 0.02 0 0.045 0.02 0 0.05 0.02 0 0.055 0.02 0 0.06 0.02 0 0.065 0.02 0 0.07 0.02 0 0.075 0.02 0 0.08 0.02 0 0.085 0.02 0 0.09 0.02 0 0.095 0.02 0 0.1 0.02 0 0.105 0.02 0 0.11 0.02 0 0.115 0.02 0 0.12 0.02 0 0.125 0.02 0 0.13 0.02 0 0.135 0.02 0 0.14 0.02 0 0.145 0.02 0 0.15 0.02 0 0.155 0.02 0 0.16 0.02 0 0.165 0.02 0 0.17 0.02 0 0.175 0.02 0 0.18 0.02 0 0.185 0.02 0 0.19 0.02 0 0.195 0.02 0 0.2 0.02 0 0.205 0.02 0 0.21 0.02 0 0.215 0.02 0 0.22 0.02 0 0.225 0.02 0 0.23 0.02 0 0.235 0.02 0 0.24 0.02 0 0.245 0.02 0 0.25 0.02 0 0.255 0.02 0 0.26 0.02 0 0.265 0.02 0 0.27 0.02 0 0.275 0.02 0 0.28 0.02 0 0.285 0.02 0 0.290001 0.02 0 0.295002 0.02 0 0.300006 0.02 0 0.305014 0.02 0 0.310031 0.02 0 0.315063 0.02 0 0.320118 0.02 0 0.325206 0.02 0 0.330339 0.02 0 0.335529 0.02 0 0.34079 0.02 0 0.346134 0.02 0 0.351574 0.02 0 0.357124 0.02 0 0.362798 0.02 0 0.368607 0.02 0 0.374567 0.02 0 0.380691 0.02 0 0.386994 0.02 0 0.393492 0.02 0 0.400202 0.02 0 0.407142 0.02 0 0.414331 0.02 0 0.421791 0.02 0 0.429545 0.02 0 0.437617 0.02 0 0.446032 0.02 0 0.454816 0.02 0 0.463995 0.02 0 0.473589 0.02 0 0.483609 0.02 0 0.494053 0.02 0 0.504897 0.02 0 0.516092 0.02 0 0.527566 0.02 0 0.539234 0.02 0 0.551025 0.02 0 0.562884 0.02 0 0.574788 0.02 0 0.586735 0.0199999 0 0.598747 0.0199995 0 0.610915 0.0199997 0 0.623722 0.019997 0 0.626171 0.0199947 0 0.628574 0.0199933 0 0.630981 0.0199913 0 0.633385 0.0199884 0 0.635782 0.0199869 0 0.638173 0.0199868 0 0.64056 0.0199868 0 0.642945 0.0199877 0 0.645326 0.0199917 0 0.647709 0.019997 0 0.650092 0.0200017 0 0.652462 0.0200055 0 0.654853 0.0200108 0 0.657235 0.0200093 0 0.659716 0.020016 0 0.662286 0.0200089 0 0.664847 0.0199924 0 0.667278 0.0199814 0 0.669616 0.0199731 0 0.671936 0.0199766 0 0.674278 0.0199839 0 0.676635 0.0199941 0 0.678989 0.0199973 0 0.681341 0.0199997 0 0.683691 0.0200013 0 0.686045 0.0200022 0 0.688401 0.0200038 0 0.690758 0.0200057 0 0.693116 0.0200058 0 0.69547 0.020006 0 0.697822 0.020007 0 0.700175 0.0200083 0 0.70253 0.0200087 0 0.704888 0.0200086 0 0.707245 0.0200075 0 0.709599 0.020006 0 0.71195 0.0200063 0 0.714302 0.0200075 0 0.716656 0.0200082 0 0.719011 0.0200081 0 0.721365 0.0200066 0 0.723722 0.0200058 0 0.726062 0.0200065 0 0.728365 0.0200065 0 0.730594 0.0200043 0 0.732807 0.0200014 0 0.735653 0.0200001 0 0.740109 0.02 0 0.745017 0.02 0 0.750003 0.02 0 0.755 0.02 0 0.76 0.02 0 0.765 0.02 0 0.77 0.02 0 0.775 0.02 0 0.78 0.02 0 0.785 0.02 0 0.79 0.02 0 0.795 0.02 0 0.8 0.02 0 0.805 0.02 0 0.81 0.02 0 0.815 0.02 0 0.82 0.02 0 0.825 0.02 0 0.83 0.02 0 0.835 0.02 0 0.84 0.02 0 0.845 0.02 0 0.85 0.02 0 0.855 0.02 0 0.86 0.02 0 0.865 0.02 0 0.87 0.02 0 0.875 0.02 0 0.88 0.02 0 0.885 0.02 0 0.89 0.02 0 0.895 0.02 0 0.9 0.02 0 0.905 0.02 0 0.91 0.02 0 0.915 0.02 0 0.92 0.02 0 0.925 0.02 0 0.93 0.02 0 0.935 0.02 0 0.94 0.02 0 0.945 0.02 0 0.95 0.02 0 0.955 0.02 0 0.96 0.02 0 0.965 0.02 0 0.97 0.02 0 0.975 0.02 0 0.98 0.02 0 0.985 0.02 0 0.99 0.02 0 0.995 0.02 0 1 0.02 0 0 0.04 0 0.005 0.04 0 0.01 0.04 0 0.015 0.04 0 0.02 0.04 0 0.025 0.04 0 0.03 0.04 0 0.035 0.04 0 0.04 0.04 0 0.045 0.04 0 0.05 0.04 0 0.055 0.04 0 0.06 0.04 0 0.065 0.04 0 0.07 0.04 0 0.075 0.04 0 0.08 0.04 0 0.085 0.04 0 0.09 0.04 0 0.095 0.04 0 0.1 0.04 0 0.105 0.04 0 0.11 0.04 0 0.115 0.04 0 0.12 0.04 0 0.125 0.04 0 0.13 0.04 0 0.135 0.04 0 0.14 0.04 0 0.145 0.04 0 0.15 0.04 0 0.155 0.04 0 0.16 0.04 0 0.165 0.04 0 0.17 0.04 0 0.175 0.04 0 0.18 0.04 0 0.185 0.04 0 0.19 0.04 0 0.195 0.04 0 0.2 0.04 0 0.205 0.04 0 0.21 0.04 0 0.215 0.04 0 0.22 0.04 0 0.225 0.04 0 0.23 0.04 0 0.235 0.04 0 0.24 0.04 0 0.245 0.04 0 0.25 0.04 0 0.255 0.04 0 0.26 0.04 0 0.265 0.04 0 0.27 0.04 0 0.275 0.04 0 0.28 0.04 0 0.285 0.04 0 0.290001 0.04 0 0.295002 0.04 0 0.300006 0.04 0 0.305014 0.04 0 0.310031 0.04 0 0.315063 0.04 0 0.320118 0.04 0 0.325206 0.04 0 0.330339 0.04 0 0.335529 0.04 0 0.34079 0.04 0 0.346134 0.04 0 0.351574 0.04 0 0.357124 0.04 0 0.362798 0.04 0 0.368607 0.04 0 0.374567 0.04 0 0.380691 0.04 0 0.386994 0.04 0 0.393492 0.04 0 0.400202 0.04 0 0.407142 0.04 0 0.414331 0.04 0 0.421791 0.04 0 0.429545 0.04 0 0.437617 0.04 0 0.446032 0.04 0 0.454816 0.04 0 0.463995 0.04 0 0.473589 0.04 0 0.483609 0.04 0 0.494053 0.04 0 0.504897 0.04 0 0.516092 0.04 0 0.527566 0.04 0 0.539234 0.04 0 0.551024 0.04 0 0.562884 0.04 0 0.574788 0.04 0 0.586734 0.0399997 0 0.598746 0.0399991 0 0.610914 0.0399994 0 0.623722 0.0399925 0 0.626171 0.0399888 0 0.628573 0.0399883 0 0.630977 0.0399895 0 0.633378 0.0399916 0 0.635772 0.0399935 0 0.638157 0.0399941 0 0.640537 0.0399926 0 0.642913 0.0399927 0 0.645286 0.0399926 0 0.647654 0.0399942 0 0.650018 0.0399937 0 0.652392 0.0399997 0 0.65474 0.0400067 0 0.657094 0.0400112 0 0.659339 0.0400277 0 0.661486 0.0400316 0 0.663623 0.0400179 0 0.665886 0.0399951 0 0.668247 0.0399855 0 0.670632 0.0399836 0 0.672997 0.0399882 0 0.675351 0.0399938 0 0.67771 0.0399952 0 0.680072 0.0399987 0 0.682436 0.0400009 0 0.684797 0.0400004 0 0.687155 0.0400043 0 0.68951 0.0400076 0 0.691863 0.0400093 0 0.69422 0.0400105 0 0.696577 0.0400096 0 0.698935 0.0400101 0 0.701291 0.0400088 0 0.703644 0.040009 0 0.705996 0.0400095 0 0.708351 0.0400085 0 0.710709 0.0400073 0 0.713068 0.0400062 0 0.715423 0.0400033 0 0.717778 0.0400005 0 0.720138 0.0399974 0 0.722506 0.0399946 0 0.72489 0.0399934 0 0.727236 0.0399934 0 0.729582 0.0399949 0 0.732257 0.0399978 0 0.735621 0.0399998 0 0.74011 0.04 0 0.745017 0.04 0 0.750003 0.04 0 0.755 0.04 0 0.76 0.04 0 0.765 0.04 0 0.77 0.04 0 0.775 0.04 0 0.78 0.04 0 0.785 0.04 0 0.79 0.04 0 0.795 0.04 0 0.8 0.04 0 0.805 0.04 0 0.81 0.04 0 0.815 0.04 0 0.82 0.04 0 0.825 0.04 0 0.83 0.04 0 0.835 0.04 0 0.84 0.04 0 0.845 0.04 0 0.85 0.04 0 0.855 0.04 0 0.86 0.04 0 0.865 0.04 0 0.87 0.04 0 0.875 0.04 0 0.88 0.04 0 0.885 0.04 0 0.89 0.04 0 0.895 0.04 0 0.9 0.04 0 0.905 0.04 0 0.91 0.04 0 0.915 0.04 0 0.92 0.04 0 0.925 0.04 0 0.93 0.04 0 0.935 0.04 0 0.94 0.04 0 0.945 0.04 0 0.95 0.04 0 0.955 0.04 0 0.96 0.04 0 0.965 0.04 0 0.97 0.04 0 0.975 0.04 0 0.98 0.04 0 0.985 0.04 0 0.99 0.04 0 0.995 0.04 0 1 0.04 0 0 0.06 0 0.005 0.06 0 0.01 0.06 0 0.015 0.06 0 0.02 0.06 0 0.025 0.06 0 0.03 0.06 0 0.035 0.06 0 0.04 0.06 0 0.045 0.06 0 0.05 0.06 0 0.055 0.06 0 0.06 0.06 0 0.065 0.06 0 0.07 0.06 0 0.075 0.06 0 0.08 0.06 0 0.085 0.06 0 0.09 0.06 0 0.095 0.06 0 0.1 0.06 0 0.105 0.06 0 0.11 0.06 0 0.115 0.06 0 0.12 0.06 0 0.125 0.06 0 0.13 0.06 0 0.135 0.06 0 0.14 0.06 0 0.145 0.06 0 0.15 0.06 0 0.155 0.06 0 0.16 0.06 0 0.165 0.06 0 0.17 0.06 0 0.175 0.06 0 0.18 0.06 0 0.185 0.06 0 0.19 0.06 0 0.195 0.06 0 0.2 0.06 0 0.205 0.06 0 0.21 0.06 0 0.215 0.06 0 0.22 0.06 0 0.225 0.06 0 0.23 0.06 0 0.235 0.06 0 0.24 0.06 0 0.245 0.06 0 0.25 0.06 0 0.255 0.06 0 0.26 0.06 0 0.265 0.06 0 0.27 0.06 0 0.275 0.06 0 0.28 0.06 0 0.285 0.06 0 0.290001 0.06 0 0.295002 0.06 0 0.300006 0.06 0 0.305014 0.06 0 0.310031 0.06 0 0.315063 0.06 0 0.320118 0.06 0 0.325206 0.06 0 0.330339 0.06 0 0.335529 0.06 0 0.34079 0.06 0 0.346134 0.06 0 0.351574 0.06 0 0.357124 0.06 0 0.362798 0.06 0 0.368607 0.06 0 0.374567 0.06 0 0.380691 0.06 0 0.386994 0.06 0 0.393492 0.06 0 0.400202 0.06 0 0.407142 0.06 0 0.414331 0.06 0 0.421791 0.06 0 0.429545 0.06 0 0.437617 0.06 0 0.446032 0.06 0 0.454816 0.06 0 0.463995 0.06 0 0.473589 0.06 0 0.483609 0.06 0 0.494053 0.06 0 0.504897 0.06 0 0.516092 0.06 0 0.527566 0.06 0 0.539234 0.06 0 0.551024 0.06 0 0.562884 0.06 0 0.574787 0.06 0 0.586734 0.0599998 0 0.598745 0.0599995 0 0.610912 0.0599994 0 0.623717 0.0599953 0 0.626161 
[...]
			<CellData Scalars="Density">
				<DataArray Name="Density" type="Float32" format="ascii">
 1 1 1 1 1 1 1 1 1 1 1 1 1 1 1 1 1 1 1 1 1 1 1 1 1 1 1 1 1 1 1 1 1 1 1 1 1 1 1 1 1 1 1 1 1 1 1 1 1 1 1 1 0.999999 0.999998 0.999994 0.999984 0.999958 0.99989 0.999718 0.99929 0.998371 0.996629 0.993679 0.989127 0.982665 0.97409 0.963343 0.95048 0.935644 0.919032 0.900855 0.881326 0.860639 0.838971 0.816465 0.793263 0.769462 0.745178 0.720481 0.695473 0.67023 0.644851 0.619448 0.59416 0.569174 0.544738 0.521195 0.498999 0.478733 0.461064 0.446624 0.435796 0.428491 0.424087 0.421604 0.420032 0.418524 0.416229 0.41092 0.390382 0.255375 0.2603 0.259903 0.260128 0.26076 0.261518 0.262014 0.26245 0.262845 0.263162 0.26341 0.263685 0.263903 0.264077 0.264235 0.264641 0.265402 0.265773 0.265537 0.265412 0.265373 0.265306 0.265238 0.265198 0.265168 0.265151 0.265202 0.265185 0.265224 0.265266 0.265265 0.265292 0.265318 0.265348 0.265374 0.26541 0.265381 0.26539 0.26545 0.265612 0.265536 0.264909 0.265004 0.26857 0.273419 0.256477 0.202206 0.139756 0.127337 0.125368 0.125058 0.125009 0.125001 0.125 0.125 0.125 0.125 0.125 0.125 0.125 0.125 0.125 0.125 0.125 0.125 0.125 0.125 0.125 0.125 0.125 0.125 0.125 0.125 0.125 0.125 0.125 0.125 0.125 0.125 0.125 0.125 0.125 0.125 0.125 0.125 0.125 0.125 0.125 0.125 0.125 0.125 0.125 0.125 0.125 0.125 0.125 0.125 0.125 0.125 0.125 1 1 1 1 1 1 1 1 1 1 1 1 1 1 1 1 1 1 1 1 1 1 1 1 1 1 1 1 1 1 1 1 1 1 1 1 1 1 1 1 1 1 1 1 1 1 1 1 1 1 1 1 0.999999 0.999998 0.999994 0.999984 0.999958 0.99989 0.999718 0.99929 0.998371 0.996629 0.993679 0.989127 0.982665 0.97409 0.963343 0.95048 0.935644 0.919032 0.900855 0.881326 0.860639 0.838971 0.816465 0.793263 0.769462 0.745178 0.720481 0.695473 0.67023 0.644851 0.619448 0.59416 0.569174 0.544738 0.521195 0.498999 0.478733 0.461064 0.446624 0.435796 0.428491 0.424087 0.421604 0.420034 0.418529 0.416238 0.410934 0.390399 0.255386 0.260293 0.259899 0.260148 0.260779 0.261515 0.262009 0.262446 0.262834 0.263164 0.263421 0.263697 0.263899 0.263995 0.264305 0.264523 0.265371 0.265765 0.265576 0.26547 0.265375 0.26529 0.265239 0.26521 0.265153 0.265214 0.265145 0.265231 0.265263 0.265264 0.265293 0.26528 0.265307 0.265346 0.265417 0.265384 0.265356 0.265335 0.265497 0.2656 0.26539 0.264815 0.264967 0.269234 0.273513 0.255912 0.201325 0.139737 0.127345 0.125369 0.125058 0.125009 0.125001 0.125 0.125 0.125 0.125 0.125 0.125 0.125 0.125 0.125 0.125 0.125 0.125 0.125 0.125 0.125 0.125 0.125 0.125 0.125 0.125 0.125 0.125 0.125 0.125 0.125 0.125 0.125 0.125 0.125 0.125 0.125 0.125 0.125 0.125 0.125 0.125 0.125 0.125 0.125 0.125 0.125 0.125 0.125 0.125 0.125 0.125 0.125 1 1 1 1 1 1 1 1 1 1 1 1 1 1 1 1 1 1 1 1 1 1 1 1 1 1 1 1 1 1 1 1 1 1 1 1 1 1 1 1 1 1 1 1 1 1 1 1 1 1 1 1 0.999999 0.999998 0.999994 0.999984 0.999958 0.99989 0.999718 0.99929 0.998371 0.996629 0.993679 0.989127 0.982665 0.97409 0.963343 0.95048 0.935644 0.919032 0.900855 0.881326 0.860639 0.838971 0.816465 0.793263 0.769462 0.745178 0.720481 0.695473 0.67023 0.644851 0.619448 0.59416 0.569174 0.544738 0.521195 0.498999 0.478733 0.461064 0.446624 0.435796 0.428492 0.424088 0.421606 0.420039 0.418538 0.41625 0.410947 0.390408 0.255397 0.260306 0.259894 0.260132 0.260755 0.261518 0.262008 0.262442 0.262849 0.263173 0.26344 0.263733 0.263921 0.26409 0.264275 0.264544 0.265278 0.265802 0.265483 0.265469 0.265355 0.265346 0.265264 0.265209 0.265211 0.265167 0.26522 0.265203 0.26527 0.265288 0.265306 0.265286 0.265304 0.265378 0.265465 0.265442 0.265338 0.265408 0.265523 0.265484 0.265216 0.264278 0.265128 0.269116 0.273646 0.255714 0.201363 0.139819 0.127357 0.12537 0.125058 0.125009 0.125001 0.125 0.125 0.125 0.125 0.125 0.125 0.125 0.125 0.125 0.125 0.125 0.125 0.125 0.125 0.125 0.125 0.125 0.125 0.125 0.125 0.125 0.125 0.125 0.125 0.125 0.125 0.125 0.125 0.125 0.125 0.125 0.125 0.125 0.125 0.125 0.125 0.125 0.125 0.125 0.125 0.125 0.125 0.125 0.125 0.125 0.125 0.125 1 1 1 1 1 1 1 1 1 1 1 1 1 1 1 1 1 1 1 1 1 1 1 1 1 1 1 1 1 1 1 1 1 1 1 1 1 1 1 1 1 1 1 1 1 1 1 1 1 1 1 1 0.999999 0.999998 0.999994 0.999984 0.999958 0.99989 0.999718 0.99929 0.998371 0.996629 0.993679 0.989127 0.982665 0.97409 0.963343 0.95048 0.935644 0.919032 0.900855 0.881326 0.860639 0.838971 0.816465 0.793263 0.769462 0.745178 0.720481 0.695473 0.67023 0.644851 0.619448 0.59416 0.569174 0.544738 0.521195 0.498999 0.478733 0.461064 0.446624 0.435796 0.428492 0.424089 0.421609 0.420044 0.418545 0.416257 0.410954 0.390412 0.255399 0.26031 0.259908 0.260145 0.260795 0.261516 0.262039 0.262453 0.262843 0.263175 0.263424 0.263696 0.263925 0.264102 0.264308 0.264495 0.265303 0.265742 0.265606 0.265436 0.265414 0.265351 0.265309 0.265237 0.265242 0.265224 0.265279 0.265276 0.265271 0.265365 0.265339 0.265362 0.265386 0.265442 0.265501 0.265492 0.265423 0.265511 0.265622 0.265747 0.265637 0.264553 0.265175 0.268853 0.272557 0.255718 0.202971 0.13993 0.127363 0.12537 0.125058 0.125009 0.125001 0.125 0.125 0.125 0.125 0.125 0.125 0.125 0.125 0.125 0.125 0.125 0.125 0.125 0.125 0.125 0.125 0.125 0.125 0.125 0.125 0.125 0.125 0.125 0.125 0.125 0.125 0.125 0.125 0.125 0.125 0.125 0.125 0.125 0.125 0.125 0.125 0.125 0.125 0.125 0.125 0.125 0.125 0.125 0.125 0.125 0.125 0.125 1 1 1 1 1 1 1 1 1 1 1 1 1 1 1 1 1 1 1 1 1 1 1 1 1 1 1 1 1 1 1 1 1 1 1 1 1 1 1 1 1 1 1 1 1 1 1 1 1 1 1 1 0.999999 0.999998 0.999994 0.999984 0.999958 0.99989 0.999718 0.99929 0.998371 0.996629 0.993679 0.989127 0.982665 0.97409 0.963343 0.95048 0.935644 0.919032 0.900855 0.881326 0.860639 0.838971 0.816465 0.793263 0.769462 0.745178 0.720481 0.695473 0.67023 0.644851 0.619448 0.59416 0.569174 0.544738 0.521195 0.498999 0.478733 0.461064 0.446624 0.435797 0.428493 0.42409 0.421611 0.420046 0.418547 0.416256 0.410948 0.390393 0.255365 0.260294 0.259898 0.260132 0.260753 0.261518 0.262035 0.262477 0.262867 0.263187 0.263446 0.263715 0.263938 0.264078 0.26431 0.264568 0.26524 0.265779 0.265556 0.26542 0.265366 0.265308 0.265273 0.265234 0.265197 0.265203 0.265208 0.265246 0.265283 0.265288 0.265321 0.265341 0.265369 0.2654 0.265445 0.265469 0.265459 0.265495 0.265653 0.265786 0.265569 0.264793 0.265118 0.269204 0.272773 0.254084 0.201573 0.139644 0.127351 0.12537 0.125058 0.125009 0.125001 0.125 0.125 0.125 0.125 0.125 0.125 0.125 0.125 0.125 0.125 0.125 0.125 0.125 0.125 0.125 0.125 0.125 0.125 0.125 0.125 0.125 0.125 0.125 0.125 0.125 0.125 0.125 0.125 0.125 0.125 0.125 0.125 0.125 0.125 0.125 0.125 0.125 0.125 0.125 0.125 0.125 0.125 0.125 0.125 0.125 0.125 0.125
				</DataArray>
				<DataArray Name="Energy" type="Float32" format="ascii">
 2.5 2.5 2.5 2.5 2.5 2.5 2.5 2.5 2.5 2.5 2.5 2.5 2.5 2.5 2.5 2.5 2.5 2.5 2.5 2.5 2.5 2.5 2.5 2.5 2.5 2.5 2.5 2.5 2.5 2.5 2.5 2.5 2.5 2.5 2.5 2.5 2.5 2.5 2.5 2.5 2.5 2.5 2.5 2.5 2.5 2.5 2.5 2.5 2.5 2.5 2.5 2.5 2.5 2.5 2.49999 2.49998 2.49996 2.49989 2.49972 2.49929 2.49837 2.49663 2.49367 2.48911 2.48262 2.47397 2.46309 2.44998 2.43476 2.41756 2.39856 2.37792 2.35578 2.33228 2.30751 2.28159 2.25457 2.22652 2.19748 2.16751 2.13666 2.105 2.07263 2.0397 2.00642 1.97312 1.94031 1.90869 1.87926 1.85324 1.8319 1.81625 1.80655 1.80216 1.80188 1.80459 1.81003 1.81985 1.84338 1.9404 2.96626 2.91029 2.91487 2.91216 2.90523 2.89703 2.89133 2.88665 2.8823 2.87882 2.87602 2.87307 2.87064 2.86905 2.86669 2.86329 2.85473 2.85127 2.85366 2.85496 2.85524 2.85575 2.8562 2.85664 2.85698 2.85682 2.85686 2.85646 2.85612 2.85579 2.85587 2.85566 2.85541 2.85517 2.85477 2.85461 2.85462 2.85448 2.85452 2.85496 2.85428 2.85141 2.85191 2.86709 2.88704 2.8121 2.51894 2.10067 2.01516 2.00236 2.00037 2.00006 2.00001 2 2 2 2 2 2 2 2 2 2 2 2 2 2 2 2 2 2 2 2 2 2 2 2 2 2 2 2 2 2 2 2 2 2 2 2 2 2 2 2 2 2 2 2 2 2 2 2.5 2.5 2.5 2.5 2.5 2.5 2.5 2.5 2.5 2.5 2.5 2.5 2.5 2.5 2.5 2.5 2.5 2.5 2.5 2.5 2.5 2.5 2.5 2.5 2.5 2.5 2.5 2.5 2.5 2.5 2.5 2.5 2.5 2.5 2.5 2.5 2.5 2.5 2.5 2.5 2.5 2.5 2.5 2.5 2.5 2.5 2.5 2.5 2.5 2.5 2.5 2.5 2.5 2.5 2.49999 2.49998 2.49996 2.49989 2.49972 2.49929 2.49837 2.49663 2.49367 2.48911 2.48262 2.47397 2.46309 2.44998 2.43476 2.41756 2.39856 2.37792 2.35578 2.33228 2.30751 2.28159 2.25457 2.22652 2.19748 2.16751 2.13666 2.105 2.07263 2.0397 2.00642 1.97312 1.94031 1.90869 1.87926 1.85324 1.8319 1.81625 1.80655 1.80216 1.80188 1.8046 1.81004 1.81986 1.8434 1.94043 2.96631 2.91026 2.91485 2.91225 2.90532 2.89702 2.89131 2.88664 2.88226 2.87884 2.87607 2.87312 2.87062 2.86876 2.86716 2.86369 2.85543 2.85033 2.85272 2.85463 2.85513 2.85586 2.85628 2.85664 2.85678 2.8571 2.85662 2.85668 2.85634 2.85596 2.85602 2.8558 2.85558 2.85535 2.85516 2.85481 2.85461 2.85459 2.8551 2.85522 2.85402 2.8515 2.85194 2.87035 2.88795 2.81012 2.51441 2.10052 2.01521 2.00237 2.00037 2.00006 2.00001 2 2 2 2 2 2 2 2 2 2 2 2 2 2 2 2 2 2 2 2 2 2 2 2 2 2 2 2 2 2 2 2 2 2 2 2 2 2 2 2 2 2 2 2 2 2 2 2.5 2.5 2.5 2.5 2.5 2.5 2.5 2.5 2.5 2.5 2.5 2.5 2.5 2.5 2.5 2.5 2.5 2.5 2.5 2.5 2.5 2.5 2.5 2.5 2.5 2.5 2.5 2.5 2.5 2.5 2.5 2.5 2.5 2.5 2.5 2.5 2.5 2.5 2.5 2.5 2.5 2.5 2.5 2.5 2.5 2.5 2.5 2.5 2.5 2.5 2.5 2.5 2.5 2.5 2.49999 2.49998 2.49996 2.49989 2.49972 2.49929 2.49837 2.49663 2.49367 2.48911 2.48262 2.47397 2.46309 2.44998 2.43476 2.41756 2.39856 2.37792 2.35578 2.33228 2.30751 2.28159 2.25457 2.22652 2.19748 2.16751 2.13666 2.105 2.07263 2.0397 2.00642 1.97312 1.94031 1.90869 1.87926 1.85324 1.8319 1.81625 1.80655 1.80216 1.80188 1.8046 1.81005 1.81988 1.84343 1.94045 2.96636 2.91032 2.91483 2.91217 2.90521 2.89703 2.89131 2.88662 2.88232 2.87887 2.87615 2.87328 2.87073 2.86912 2.86683 2.8636 2.8558 2.85213 2.85368 2.8554 2.85523 2.85578 2.85619 2.85653 2.85705 2.85686 2.85691 2.85655 2.85639 2.85614 2.85625 2.85594 2.85565 2.85559 2.85549 2.85526 2.85487 2.85512 2.85536 2.8549 2.8535 2.84943 2.85304 2.87018 2.88871 2.80963 2.51463 2.10109 2.01529 2.00237 2.00037 2.00006 2.00001 2 2 2 2 2 2 2 2 2 2 2 2 2 2 2 2 2 2 2 2 2 2 2 2 2 2 2 2 2 2 2 2 2 2 2 2 2 2 2 2 2 2 2 2 2 2 2 2.5 2.5 2.5 2.5 2.5 2.5 2.5 2.5 2.5 2.5 2.5 2.5 2.5 2.5 2.5 2.5 2.5 2.5 2.5 2.5 2.5 2.5 2.5 2.5 2.5 2.5 2.5 2.5 2.5 2.5 2.5 2.5 2.5 2.5 2.5 2.5 2.5 2.5 2.5 2.5 2.5 2.5 2.5 2.5 2.5 2.5 2.5 2.5 2.5 2.5 2.5 2.5 2.5 2.5 2.49999 2.49998 2.49996 2.49989 2.49972 2.49929 2.49837 2.49663 2.49367 2.48911 2.48262 2.47397 2.46309 2.44998 2.43476 2.41756 2.39856 2.37792 2.35578 2.33228 2.30751 2.28159 2.25457 2.22652 2.19748 2.16751 2.13666 2.105 2.07263 2.0397 2.00642 1.97312 1.94031 1.90869 1.87926 1.85324 1.8319 1.81625 1.80655 1.80216 1.80189 1.80461 1.81006 1.81989 1.84344 1.94046 2.96637 2.91033 2.91489 2.91223 2.90539 2.89702 2.89144 2.88667 2.88229 2.87888 2.87608 2.87312 2.87074 2.86922 2.86716 2.86435 2.85655 2.85075 2.85285 2.8542 2.8548 2.85552 2.85594 2.85637 2.85668 2.85658 2.85665 2.85637 2.85592 2.856 2.85579 2.85554 2.85532 2.8552 2.85498 2.85469 2.85438 2.85451 2.85476 2.85503 2.85419 2.84936 2.8521 2.86754 2.88272 2.8084 2.52233 2.10186 2.01533 2.00238 2.00037 2.00006 2.00001 2 2 2 2 2 2 2 2 2 2 2 2 2 2 2 2 2 2 2 2 2 2 2 2 2 2 2 2 2 2 2 2 2 2 2 2 2 2 2 2 2 2 2 2 2 2 2 2.5 2.5 2.5 2.5 2.5 2.5 2.5 2.5 2.5 2.5 2.5 2.5 2.5 2.5 2.5 2.5 2.5 2.5 2.5 2.5 2.5 2.5 2.5 2.5 2.5 2.5 2.5 2.5 2.5 2.5 2.5 2.5 2.5 2.5 2.5 2.5 2.5 2.5 2.5 2.5 2.5 2.5 2.5 2.5 2.5 2.5 2.5 2.5 2.5 2.5 2.5 2.5 2.5 2.5 2.49999 2.49998 2.49996 2.49989 2.49972 2.49929 2.49837 2.49663 2.49367 2.48911 2.48262 2.47397 2.46309 2.44998 2.43476 2.41756 2.39856 2.37792 2.35578 2.33228 2.30751 2.28159 2.25457 2.22652 2.19748 2.16751 2.13666 2.105 2.07263 2.0397 2.00642 1.97312 1.94031 1.90869 1.87926 1.85324 1.8319 1.81625 1.80655 1.80216 1.80189 1.80462 1.81007 1.81989 1.84343 1.94042 2.96621 2.91026 2.91485 2.91218 2.9052 2.89703 2.89142 2.88678 2.8824 2.87893 2.87618 2.87321 2.8708 2.86909 2.867 2.86431 2.85633 2.85156 2.85329 2.85486 2.8553 2.85592 2.85625 2.85678 2.85703 2.85705 2.85691 2.85679 2.85656 2.85633 2.85632 2.8562 2.85601 2.85578 2.85557 2.8555 2.85543 2.85551 2.856 2.85631 2.85508 2.85173 2.85313 2.87058 2.8852 2.80236 2.51458 2.09972 2.01525 2.00237 2.00037 2.00006 2.00001 2 2 2 2 2 2 2 2 2 2 2 2 2 2 2 2 2 2 2 2 2 2 2 2 2 2 2 2 2 2 2 2 2 2 2 2 2 2 2 2 2 2 2 2 2 2 2
				</DataArray>
				<DataArray Name="F1" type="Float32" format="ascii">
 1 1 1 1 1 1 1 1 1 1 1 1 1 1 1 1 1 1 1 1 1 1 1 1 1 1 1 1 1 1 1 1 1 1 1 1 1 1 1 1 1 1 1 1 1 1 1 1 1 1 1 1 1 1 1 1 1 1 1 1 1 1 1 1 1 1 1 1 1 1 1 1 1 1 1 1 1 1 1 1 1 1 1 1 1 1 1 1 1 1 1 1 1 1 1 1 1 1 1 1 0 0 0 0 0 0 0 0 0 0 0 0 0 0 0 0 0 0 0 0 0 0 0 0 0 0 0 0 0 0 0 0 0 0 0 0 0 0 0 0 0 0 0 0 0 0 0 0 0 0 0 0 0 0 0 0 0 0 0 0 0 0 0 0 0 0 0 0 0 0 0 0 0 0 0 0 0 0 0 0 0 0 0 0 0 0 0 0 0 0 0 0 0 0 0 0 0 0 0 0 1 1 1 1 1 1 1 1 1 1 1 1 1 1 1 1 1 1 1 1 1 1 1 1 1 1 1 1 1 1 1 1 1 1 1 1 1 1 1 1 1 1 1 1 1 1 1 1 1 1 1 1 1 1 1 1 1 1 1 1 1 1 1 1 1 1 1 1 1 1 1 1 1 1 1 1 1 1 1 1 1 1 1 1 1 1 1 1 1 1 1 1 1 1 1 1 1 1 1 1 0 0 0 0 0 0 0 0 0 0 0 0 0 0 0 0 0 0 0 0 0 0 0 0 0 0 0 0 0 0 0 0 0 0 0 0 0 0 0 0 0 0 0 0 0 0 0 0 0 0 0 0 0 0 0 0 0 0 0 0 0 0 0 0 0 0 0 0 0 0 0 0 0 0 0 0 0 0 0 0 0 0 0 0 0 0 0 0 0 0 0 0 0 0 0 0 0 0 0 0 1 1 1 1 1 1 1 1 1 1 1 1 1 1 1 1 1 1 1 1 1 1 1 1 1 1 1 1 1 1 1 1 1 1 1 1 1 1 1 1 1 1 1 1 1 1 1 1 1 1 1 1 1 1 1 1 1 1 1 1 1 1 1 1 1 1 1 1 1 1 1 1 1 1 1 1 1 1 1 1 1 1 1 1 1 1 1 1 1 1 1 1 1 1 1 1 1 1 1 1 0 0 0 0 0 0 0 0 0 0 0 0 0 0 0 0 0 0 0 0 0 0 0 0 0 0 0 0 0 0 0 0 0 0 0 0 0 0 0 0 0 0 0 0 0 0 0 0 0 0 0 0 0 0 0 0 0 0 0 0 0 0 0 0 0 0 0 0 0 0 0 0 0 0 0 0 0 0 0 0 0 0 0 0 0 0 0 0 0 0 0 0 0 0 0 0 0 0 0 0 1 1 1 1 1 1 1 1 1 1 1 1 1 1 1 1 1 1 1 1 1 1 1 1 1 1 1 1 1 1 1 1 1 1 1 1 1 1 1 1 1 1 1 1 1 1 1 1 1 1 1 1 1 1 1 1 1 1 1 1 1 1 1 1 1 1 1 1 1 1 1 1 1 1 1 1 1 1 1 1 1 1 1 1 1 1 1 1 1 1 1 1 1 1 1 1 1 1 1 1 0 0 0 0 0 0 0 0 0 0 0 0 0 0 0 0 0 0 0 0 0 0 0 0 0 0 0 0 0 0 0 0 0 0 0 0 0 0 0 0 0 0 0 0 0 0 0 0 0 0 0 0 0 0 0 0 0 0 0 0 0 0 0 0 0 0 0 0 0 0 0 0 0 0 0 0 0 0 0 0 0 0 0 0 0 0 0 0 0 0 0 0 0 0 0 0 0 0 0 0 1 1 1 1 1 1 1 1 1 1 1 1 1 1 1 1 1 1 1 1 1 1 1 1 1 1 1 1 1 1 1 1 1 1 1 1 1 1 1 1 1 1 1 1 1 1 1 1 1 1 1 1 1 1 1 1 1 1 1 1 1 1 1 1 1 1 1 1 1 1 1 1 1 1 1 1 1 1 1 1 1 1 1 1 1 1 1 1 1 1 1 1 1 1 1 1 1 1 1 1 0 0 0 0 0 0 0 0 0 0 0 0 0 0 0 0 0 0 0 0 0 0 0 0 0 0 0 0 0 0 0 0 0 0 0 0 0 0 0 0 0 0 0 0 0 0 0 0 0 0 0 0 0 0 0 0 0 0 0 0 0 0 0 0 0 0 0 0 0 0 0 0 0 0 0 0 0 0 0 0 0 0 0 0 0 0 0 0 0 0 0 0 0 0 0 0 0 0 0 0
				</DataArray>
				<DataArray Name="F2" type="Float32" format="ascii">
 0 0 0 0 0 0 0 0 0 0 0 0 0 0 0 0 0 0 0 0 0 0 0 0 0 0 0 0 0 0 0 0 0 0 0 0 0 0 0 0 0 0 0 0 0 0 0 0 0 0 0 0 0 0 0 0 0 0 0 0 0 0 0 0 0 0 0 0 0 0 0 0 0 0 0 0 0 0 0 0 0 0 0 0 0 0 0 0 0 0 0 0 0 0 0 0 0 0 0 0 1 1 1 1 1 1 1 1 1 1 1 1 1 1 1 1 1 1 1 1 1 1 1 1 1 1 1 1 1 1 1 1 1 1 1 1 1 1 1 1 1 1 1 1 1 1 1 1 1 1 1 1 1 1 1 1 1 1 1 1 1 1 1 1 1 1 1 1 1 1 1 1 1 1 1 1 1 1 1 1 1 1 1 1 1 1 1 1 1 1 1 1 1 1 1 1 1 1 1 1 0 0 0 0 0 0 0 0 0 0 0 0 0 0 0 0 0 0 0 0 0 0 0 0 0 0 0 0 0 0 0 0 0 0 0 0 0 0 0 0 0 0 0 0 0 0 0 0 0 0 0 0 0 0 0 0 0 0 0 0 0 0 0 0 0 0 0 0 0 0 0 0 0 0 0 0 0 0 0 0 0 0 0 0 0 0 0 0 0 0 0 0 0 0 0 0 0 0 0 0 1 1 1 1 1 1 1 1 1 1 1 1 1 1 1 1 1 1 1 1 1 1 1 1 1 1 1 1 1 1 1 1 1 1 1 1 1 1 1 1 1 1 1 1 1 1 1 1 1 1 1 1 1 1 1 1 1 1 1 1 1 1 1 1 1 1 1 1 1 1 1 1 1 1 1 1 1 1 1 1 1 1 1 1 1 1 1 1 1 1 1 1 1 1 1 1 1 1 1 1 0 0 0 0 0 0 0 0 0 0 0 0 0 0 0 0 0 0 0 0 0 0 0 0 0 0 0 0 0 0 0 0 0 0 0 0 0 0 0 0 0 0 0 0 0 0 0 0 0 0 0 0 0 0 0 0 0 0 0 0 0 0 0 0 0 0 0 0 0 0 0 0 0 0 0 0 0 0 0 0 0 0 0 0 0 0 0 0 0 0 0 0 0 0 0 0 0 0 0 0 1 1 1 1 1 1 1 1 1 1 1 1 1 1 1 1 1 1 1 1 1 1 1 1 1 1 1 1 1 1 1 1 1 1 1 1 1 1 1 1 1 1 1 1 1 1 1 1 1 1 1 1 1 1 1 1 1 1 1 1 1 1 1 1 1 1 1 1 1 1 1 1 1 1 1 1 1 1 1 1 1 1 1 1 1 1 1 1 1 1 1 1 1 1 1 1 1 1 1 1 0 0 0 0 0 0 0 0 0 0 0 0 0 0 0 0 0 0 0 0 0 0 0 0 0 0 0 0 0 0 0 0 0 0 0 0 0 0 0 0 0 0 0 0 0 0 0 0 0 0 0 0 0 0 0 0 0 0 0 0 0 0 0 0 0 0 0 0 0 0 0 0 0 0 0 0 0 0 0 0 0 0 0 0 0 0 0 0 0 0 0 0 0 0 0 0 0 0 0 0 1 1 1 1 1 1 1 1 1 1 1 1 1 1 1 1 1 1 1 1 1 1 1 1 1 1 1 1 1 1 1 1 1 1 1 1 1 1 1 1 1 1 1 1 1 1 1 1 1 1 1 1 1 1 1 1 1 1 1 1 1 1 1 1 1 1 1 1 1 1 1 1 1 1 1 1 1 1 1 1 1 1 1 1 1 1 1 1 1 1 1 1 1 1 1 1 1 1 1 1 0 0 0 0 0 0 0 0 0 0 0 0 0 0 0 0 0 0 0 0 0 0 0 0 0 0 0 0 0 0 0 0 0 0 0 0 0 0 0 0 0 0 0 0 0 0 0 0 0 0 0 0 0 0 0 0 0 0 0 0 0 0 0 0 0 0 0 0 0 0 0 0 0 0 0 0 0 0 0 0 0 0 0 0 0 0 0 0 0 0 0 0 0 0 0 0 0 0 0 0 1 1 1 1 1 1 1 1 1 1 1 1 1 1 1 1 1 1 1 1 1 1 1 1 1 1 1 1 1 1 1 1 1 1 1 1 1 1 1 1 1 1 1 1 1 1 1 1 1 1 1 1 1 1 1 1 1 1 1 1 1 1 1 1 1 1 1 1 1 1 1 1 1 1 1 1 1 1 1 1 1 1 1 1 1 1 1 1 1 1 1 1 1 1 1 1 1 1 1 1
				</DataArray>
				<DataArray Name="F3" type="Float32" format="ascii">
 0 0 0 0 0 0 0 0 0 0 0 0 0 0 0 0 0 0 0 0 0 0 0 0 0 0 0 0 0 0 0 0 0 0 0 0 0 0 0 0 0 0 0 0 0 0 0 0 0 0 0 0 0 0 0 0 0 0 0 0 0 0 0 0 0 0 0 0 0 0 0 0 0 0 0 0 0 0 0 0 0 0 0 0 0 0 0 0 0 0 0 0 0 0 0 0 0 0 0 0 0 0 0 0 0 0 0 0 0 0 0 0 0 0 0 0 0 0 0 0 0 0 0 0 0 0 0 0 0 0 0 0 0 0 0 0 0 0 0 0 0 0 0 0 0 0 0 0 0 0 0 0 0 0 0 0 0 0 0 0 0 0 0 0 0 0 0 0 0 0 0 0 0 0 0 0 0 0 0 0 0 0 0 0 0 0 0 0 0 0 0 0 0 0 0 0 0 0 0 0 0 0 0 0 0 0 0 0 0 0 0 0 0 0 0 0 0 0 0 0 0 0 0 0 0 0 0 0 0 0 0 0 0 0 0 0 0 0 0 0 0 0 0 0 0 0 0 0 0 0 0 0 0 0 0 0 0 0 0 0 0 0 0 0 0 0 0 0 0 0 0 0 0 0 0 0 0 0 0 0 0 0 0 0 0 0 0 0 0 0 0 0 0 0 0 0 0 0 0 0 0 0 0 0 0 0 0 0 0 0 0 0 0 0 0 0 0 0 0 0 0 0 0 0 0 0 0 0 0 0 0 0 0 0 0 0 0 0 0 0 0 0 0 0 0 0 0 0 0 0 0 0 0 0 0 0 0 0 0 0 0 0 0 0 0 0 0 0 0 0 0 0 0 0 0 0 0 0 0 0 0 0 0 0 0 0 0 0 0 0 0 0 0 0 0 0 0 0 0 0 0 0 0 0 0 0 0 0 0 0 0 0 0 0 0 0 0 0 0 0 0 0 0 0 0 0 0 0 0 0 0 0 0 0 0 0 0 0 0 0 0 0 0 0 0 0 0 0 0 0 0 0 0 0 0 0 0 0 0 0 0 0 0 0 0 0 0 0 0 0 0 0 0 0 0 0 0 0 0 0 0 0 0 0 0 0 0 0 0 0 0 0 0 0 0 0 0 0 0 0 0 0 0 0 0 0 0 0 0 0 0 0 0 0 0 0 0 0 0 0 0 0 0 0 0 0 0 0 0 0 0 0 0 0 0 0 0 0 0 0 0 0 0 0 0 0 0 0 0 0 0 0 0 0 0 0 0 0 0 0 0 0 0 0 0 0 0 0 0 0 0 0 0 0 0 0 0 0 0 0 0 0 0 0 0 0 0 0 0 0 0 0 0 0 0 0 0 0 0 0 0 0 0 0 0 0 0 0 0 0 0 0 0 0 0 0 0 0 0 0 0 0 0 0 0 0 0 0 0 0 0 0 0 0 0 0 0 0 0 0 0 0 0 0 0 0 0 0 0 0 0 0 0 0 0 0 0 0 0 0 0 0 0 0 0 0 0 0 0 0 0 0 0 0 0 0 0 0 0 0 0 0 0 0 0 0 0 0 0 0 0 0 0 0 0 0 0 0 0 0 0 0 0 0 0 0 0 0 0 0 0 0 0 0 0 0 0 0 0 0 0 0 0 0 0 0 0 0 0 0 0 0 0 0 0 0 0 0 0 0 0 0 0 0 0 0 0 0 0 0 0 0 0 0 0 0 0 0 0 0 0 0 0 0 0 0 0 0 0 0 0 0 0 0 0 0 0 0 0 0 0 0 0 0 0 0 0 0 0 0 0 0 0 0 0 0 0 0 0 0 0 0 0 0 0 0 0 0 0 0 0 0 0 0 0 0 0 0 0 0 0 0 0 0 0 0 0 0 0 0 0 0 0 0 0 0 0 0 0 0 0 0 0 0 0 0 0 0 0 0 0 0 0 0 0 0 0 0 0 0 0 0 0 0 0 0 0 0 0 0 0 0 0 0 0 0 0 0 0 0 0 0 0 0 0 0 0 0 0 0 0 0 0 0 0 0 0 0 0 0 0 0 0 0 0 0 0 0 0 0 0 0 0 0 0 0 0 0 0 0 0 0 0 0 0 0 0 0 0 0 0 0 0 0 0 0 0 0 0 0 0 0 0 0 0 0 0 0 0 0 0 0 0 0 0 0 0 0 0 0 0 0 0 0 0 0 0 0 0 0 0 0 0 0 0 0 0 0 0 0 0 0 0 0 0 0 0 0 0 0 0 0 0 0 0 0 0 0 0 0
				</DataArray>
				<DataArray Name="Pressure" type="Float32" format="ascii">