<?xml version="1.0"?>
<VTKFile type="PolyData">
	<PolyData>
		<Piece NumberOfPoints="1206" NumberOfPolys="1000">
			<Points>
				<DataArray type="Float32" NumberOfComponents="3" format="ascii">
 0 0 0 0.005 0 0 0.01 0 0 0.015 0 0 0.02 0 0 0.025 0 0 0.03 0 0 0.035 0 0 0.04 0 0 0.045 0 0 0.05 0 0 0.055 0 0 0.06 0 0 0.065 0 0 0.07 0 0 0.075 0 0 0.08 0 0 0.085 0 0 0.09 0 0 0.095 0 0 0.1 0 0 0.105 0 0 0.11 0 0 0.115 0 0 0.12 0 0 0.125 0 0 0.13 0 0 0.135 0 0 0.14 0 0 0.145 0 0 0.15 0 0 0.155 0 0 0.16 0 0 0.165 0 0 0.17 0 0 0.175 0 0 0.18 0 0 0.185 0 0 0.19 0 0 0.195 0 0 0.2 0 0 0.205 0 0 0.21 0 0 0.215 0 0 0.22 0 0 0.225 0 0 0.23 0 0 0.235 0 0 0.24 0 0 0.245 0 0 0.250001 0 0 0.255003 0 0 0.260007 0 0 0.265015 0 0 0.270031 0 0 0.275058 0 0 0.280104 0 0 0.285175 0 0 0.29028 0 0 0.295426 0 0 0.300625 0 0 0.305884 0 0 0.311214 0 0 0.316623 0 0 0.322122 0 0 0.327718 0 0 0.333422 0 0 0.339242 0 0 0.345187 0 0 0.351267 0 0 0.357493 0 0 0.363874 0 0 0.370422 0 0 0.377147 0 0 0.384063 0 0 0.391183 0 0 0.398521 0 0 0.406092 0 0 0.413912 0 0 0.421999 0 0 0.43037 0 0 0.439043 0 0 0.448038 0 0 0.45737 0 0 0.467053 0 0 0.477096 0 0 0.487498 0 0 0.498245 0 0 0.509306 0 0 0.520634 0 0 0.532169 0 0 0.54385 0 0 0.555622 0 0 0.567447 0 0 0.579304 0 0 0.591186 0 0 0.603095 0 0 0.615042 0 0 0.627055 0 0 0.639223 0 0 0.652031 0 0 0.654474 0 0 0.656876 0 0 0.659284 0 0 0.661695 0 0 0.664101 0 0 0.666502 0 0 0.668896 0 0 0.671282 0 0 0.673663 0 0 0.676034 0 0 0.678396 0 0 0.680765 0 0 0.683106 0 0 0.685453 0 0 0.687695 0 0 0.689844 0 0 0.691992 0 0 0.694272 0 0 0.696652 0 0 0.699057 0 0 0.701436 0 0 0.703798 0 0 0.70616 0 0 0.708523 0 0 0.710887 0 0 0.713248 0 0 0.715605 0 0 0.71796 0 0 0.720312 0 0 0.722669 0 0 0.725025 0 0 0.72738 0 0 0.729732 0 0 0.732081 0 0 0.734429 0 0 0.736782 0 0 0.739137 0 0 0.74149 0 0 0.74384 0 0 0.746188 0 0 0.748536 0 0 0.750887 0 0 0.75324 0 0 0.755593 0 0 0.757943 0 0 0.76029 0 0 0.762638 0 0 0.764987 0 0 0.767339 0 0 0.769691 0 0 0.772042 0 0 0.774393 0 0 0.776749 0 0 0.779122 0 0 0.781447 0 0 0.783864 0 0 0.786634 0 0 0.790383 0 0 0.795064 0 0 0.80001 0 0 0.805002 0 0 0.81 0 0 0.815 0 0 0.82 0 0 0.825 0 0 0.83 0 0 0.835 0 0 0.84 0 0 0.845 0 0 0.85 0 0 0.855 0 0 0.86 0 0 0.865 0 0 0.87 0 0 0.875 0 0 0.88 0 0 0.885 0 0 0.89 0 0 0.895 0 0 0.9 0 0 0.905 0 0 0.91 0 0 0.915 0 0 0.92 0 0 0.925 0 0 0.93 0 0 0.935 0 0 0.94 0 0 0.945 0 0 0.95 0 0 0.955 0 0 0.96 0 0 0.965 0 0 0.97 0 0 0.975 0 0 0.98 0 0 0.985 0 0 0.99 0 0 0.995 0 0 1 0 0 0 0.02 0 0.005 0.02 0 0.01 0.02 0 0.015 0.02 0 0.02 0.02 0 0.025 0.02 0 0.03 0.02 0 0.035 0.02 0 0.04 0.02 0 0.045 0.02 0 0.05 0.02 0 0.055 0.02 0 0.06 0.02 0 0.065 0.02 0 0.07 0.02 0 0.075 0.02 0 0.08 0.02 0 0.085 0.02 0 0.09 0.02 0 0.095 0.02 0 0.1 0.02 0 0.105 0.02 0 0.11 0.02 0 0.115 0.02 0 0.12 0.02 0 0.125 0.02 0 0.13 0.02 0 0.135 0.02 0 0.14 0.02 0 0.145 0.02 0 0.15 0.02 0 0.155 0.02 0 0.16 0.02 0 0.165 0.02 0 0.17 0.02 0 0.175 0.02 0 0.18 0.02 0 0.185 0.02 0 0.19 0.02 0 0.195 0.02 0 0.2 0.02 0 0.205 0.02 0 0.21 0.02 0 0.215 0.02 0 0.22 0.02 0 0.225 0.02 0 0.23 0.02 0 0.235 0.02 0 0.24 0.02 0 0.245 0.02 0 0.250001 0.02 0 0.255003 0.02 0 0.260007 0.02 0 0.265015 0.02 0 0.270031 0.02 0 0.275058 0.02 0 0.280104 0.02 0 0.285175 0.02 0 0.29028 0.02 0 0.295426 0.02 0 0.300625 0.02 0 0.305884 0.02 0 0.311214 0.02 0 0.316623 0.02 0 0.322122 0.02 0 0.327718 0.02 0 0.333422 0.02 0 0.339242 0.02 0 0.345187 0.02 0 0.351267 0.02 0 0.357493 0.02 0 0.363874 0.02 0 0.370422 0.02 0 0.377147 0.02 0 0.384063 0.02 0 0.391183 0.02 0 0.398521 0.02 0 0.406092 0.02 0 0.413912 0.02 0 0.421999 0.02 0 0.43037 0.02 0 0.439043 0.02 0 0.448038 0.02 0 0.45737 0.02 0 0.467053 0.02 0 0.477096 0.02 0 0.487498 0.02 0 0.498245 0.02 0 0.509306 0.02 0 0.520634 0.02 0 0.532169 0.02 0 0.54385 0.02 0 0.555622 0.02 0 0.567447 0.02 0 0.579304 0.02 0 0.591186 0.0199999 0 0.603095 0.0199998 0 0.615042 0.0199992 0 0.627054 0.0199986 0 0.639221 0.0199984 0 0.652029 0.0199932 0 0.654485 0.0199873 0 0.656893 0.0199823 0 0.659303 0.0199799 0 0.661707 0.0199779 0 0.664105 0.019978 0 0.666494 0.019979 0 0.668881 0.0199799 0 0.671267 0.0199824 0 0.673649 0.0199872 0 0.676032 0.0199938 0 0.678416 0.0200012 0 0.680785 0.0200065 0 0.683176 0.0200111 0 0.685558 0.0200087 0 0.688039 0.0200135 0 0.690609 0.0200056 0 0.69317 0.0199916 0 0.695602 0.0199782 0 0.697943 0.0199667 0 0.700263 0.0199696 0 0.702608 0.0199769 0 0.704966 0.0199881 0 0.707321 0.0199925 0 0.709674 0.0199955 0 0.712025 0.0199971 0 0.714379 0.0199976 0 0.716736 0.0199999 0 0.719093 0.0200022 0 0.721452 0.0200031 0 0.723805 0.0200042 0 0.726158 0.0200061 0 0.72851 0.0200081 0 0.730866 0.0200085 0 0.733222 0.0200082 0 0.735579 0.0200076 0 0.737932 0.0200066 0 0.740284 0.0200072 0 0.742635 0.0200093 0 0.744991 0.02001 0 0.747347 0.0200101 0 0.749703 0.020009 0 0.752057 0.0200092 0 0.754407 0.0200097 0 0.756759 0.0200104 0 0.759113 0.0200114 0 0.761469 0.0200115 0 0.763825 0.0200112 0 0.76618 0.0200112 0 0.768532 0.0200092 0 0.770883 0.0200072 0 0.773235 0.0200075 0 0.775591 0.0200068 0 0.777953 0.0200074 0 0.780287 0.0200095 0 0.782583 0.0200098 0 0.784767 0.0200061 0 0.787038 0.0200013 0 0.790384 0.02 0 0.795064 0.02 0 0.80001 0.02 0 0.805002 0.02 0 0.81 0.02 0 0.815 0.02 0 0.82 0.02 0 0.825 0.02 0 0.83 0.02 0 0.835 0.02 0 0.84 0.02 0 0.845 0.02 0 0.85 0.02 0 0.855 0.02 0 0.86 0.02 0 0.865 0.02 0 0.87 0.02 0 0.875 0.02 0 0.88 0.02 0 0.885 0.02 0 0.89 0.02 0 0.895 0.02 0 0.9 0.02 0 0.905 0.02 0 0.91 0.02 0 0.915 0.02 0 0.92 0.02 0 0.925 0.02 0 0.93 0.02 0 0.935 0.02 0 0.94 0.02 0 0.945 0.02 0 0.95 0.02 0 0.955 0.02 0 0.96 0.02 0 0.965 0.02 0 0.97 0.02 0 0.975 0.02 0 0.98 0.02 0 0.985 0.02 0 0.99 0.02 0 0.995 0.02 0 1 0.02 0 0 0.04 0 0.005 0.04 0 0.01 0.04 0 0.015 0.04 0 0.02 0.04 0 0.025 0.04 0 0.03 0.04 0 0.035 0.04 0 0.04 0.04 0 0.045 0.04 0 0.05 0.04 0 0.055 0.04 0 0.06 0.04 0 0.065 0.04 0 0.07 0.04 0 0.075 0.04 0 0.08 0.04 0 0.085 0.04 0 0.09 0.04 0 0.095 0.04 0 0.1 0.04 0 0.105 0.04 0 0.11 0.04 0 0.115 0.04 0 0.12 0.04 0 0.125 0.04 0 0.13 0.04 0 0.135 0.04 0 0.14 0.04 0 0.145 0.04 0 0.15 0.04 0 0.155 0.04 0 0.16 0.04 0 0.165 0.04 0 0.17 0.04 0 0.175 0.04 0 0.18 0.04 0 0.185 0.04 0 0.19 0.04 0 0.195 0.04 0 0.2 0.04 0 0.205 0.04 0 0.21 0.04 0 0.215 0.04 0 0.22 0.04 0 0.225 0.04 0 0.23 0.04 0 0.235 0.04 0 0.24 0.04 0 0.245 0.04 0 0.250001 0.04 0 0.255003 0.04 0 0.260007 0.04 0 0.265015 0.04 0 0.270031 0.04 0 0.275058 0.04 0 0.280104 0.04 0 0.285175 0.04 0 0.29028 0.04 0 0.295426 0.04 0 0.300625 0.04 0 0.305884 0.04 0 0.311214 0.04 0 0.316623 0.04 0 0.322122 0.04 0 0.327718 0.04 0 0.333422 0.04 0 0.339242 0.04 0 0.345187 0.04 0 0.351267 0.04 0 0.357493 0.04 0 0.363874 0.04 0 0.370422 0.04 0 0.377147 0.04 0 0.384063 0.04 0 0.391183 0.04 0 0.398521 0.04 0 0.406092 0.04 0 0.413912 0.04 0 0.421999 0.04 0 0.43037 0.04 0 0.439043 0.04 0 0.448038 0.04 0 0.45737 0.04 0 0.467053 0.04 0 0.477096 0.04 0 0.487498 0.04 0 0.498245 0.04 0 0.509306 0.04 0 0.520634 0.04 0 0.532169 0.04 0 0.54385 0.04 0 0.555622 0.04 0 0.567447 0.04 0 0.579304 0.0399999 0 0.591186 0.0399998 0 0.603094 0.0399996 0 0.615041 0.0399989 0 0.627053 0.0399981 0 0.639219 0.0399981 0 0.652025 0.0399822 0 0.65447 0.0399739 0 0.656869 0.0399756 0 0.659268 0.0399809 0 0.661667 0.0399859 0 0.664058 0.0399887 0 0.666442 0.0399904 0 0.668821 0.0399891 0 0.671194 0.0399885 0 0.673566 0.0399872 0 0.675933 0.0399874 0 0.6783 0.0399854 0 0.680678 0.0399938 0 0.683028 0.0400039 0 0.685381 0.0400134 0 0.687622 0.0400348 0 0.689764 0.0400385 0 0.691896 0.0400228 0 0.694155 0.0399923 0 0.696515 0.0399768 0 0.6989 0.0399727 0 0.701264 0.0399772 0 0.703618 0.039984 0 0.705978 0.0399879 0 0.708339 0.0399926 0 0.710702 0.0399966 0 0.713062 0.0399973 0 0.715417 0.0400014 0 0.717771 0.0400062 0 0.720122 0.0400089 0 0.722477 0.040012 0 0.724832 0.0400116 0 0.727189 0.0400127 0 0.729541 0.040012 0 0.731893 0.0400126 0 0.734243 0.0400134 0 0.736597 0.0400128 0 0.738952 0.0400128 0 0.741307 0.0400147 0 0.743659 0.0400129 0 0.746012 0.0400106 0 0.748365 0.0400105 0 0.750719 0.0400135 0 0.753077 0.0400145 0 0.755432 0.0400146 0 0.757785 0.0400138 0 0.760136 0.0400125 0 0.762489 0.0400087 0 0.764847 0.040005 0 0.767207 0.0400039 0 0.769566 0.040002 0 0.771924 0.0400004 0 0.774285 0.0399944 0 0.776653 0.0399882 0 0.779035 0.039987 0 0.781359 0.0399881 0 0.783787 0.0399925 0 0.786599 0.0399975 0 0.790384 0.0399998 0 0.795064 0.04 0 0.80001 0.04 0 0.805002 0.04 0 0.81 0.04 0 0.815 0.04 0 0.82 0.04 0 0.825 0.04 0 0.83 0.04 0 0.835 0.04 0 0.84 0.04 0 0.845 0.04 0 0.85 0.04 0 0.855 0.04 0 0.86 0.04 0 0.865 0.04 0 0.87 0.04 0 0.875 0.04 0 0.88 0.04 0 0.885 0.04 0 0.89 0.04 0 0.895 0.04 0 0.9 0.04 0 0.905 0.04 0 0.91 0.04 0 0.915 0.04 0 0.92 0.04 0 0.925 0.04 0 0.93 0.04 0 0.935 0.04 0 0.94 0.04 0 0.945 0.04 0 0.95 0.04 0 0.955 0.04 0 0.96 0.04 0 0.965 0.04 0 0.97 0.04 0 0.975 0.04 0 0.98 0.04 0 0.985 0.04 0 0.99 0.04 0 0.995 0.04 0 1 0.04 0 0 0.06 0 0.005 0.06 0 0.01 0.06 0 0.015 0.06 0 0.02 0.06 0 0.025 0.06 0 0.03 0.06 0 0.035 0.06 0 0.04 0.06 0 0.045 0.06 0 0.05 0.06 0 0.055 0.06 0 0.06 0.06 0 0.065 0.06 0 0.07 0.06 0 0.075 0.06 0 0.08 0.06 0 0.085 0.06 0 0.09 0.06 0 0.095 0.06 0 0.1 0.06 0 0.105 0.06 0 0.11 0.06 0 0.115 0.06 0 0.12 0.06 0 0.125 0.06 0 0.13 0.06 0 0.135 0.06 0 0.14 0.06 0 0.145 0.06 0 0.15 0.06 0 0.155 0.06 0 0.16 0.06 0 0.165 0.06 0 0.17 0.06 0 0.175 0.06 0 0.18 0.06 0 0.185 0.06 0 0.19 0.06 0 0.195 0.06 0 0.2 0.06 0 0.205 0.06 0 0.21 0.06 0 0.215 0.06 0 0.22 0.06 0 0.225 0.06 0 0.23 0.06 0 0.235 0.06 0 0.24 0.06 0 0.245 0.06 0 0.250001 0.06 0 0.255003 0.06 0 0.260007 0.06 0 0.265015 0.06 0 0.270031 0.06 0 0.275058 0.06 0 0.280104 0.06 0 0.285175 0.06 0 0.29028 0.06 0 0.295426 0.06 0 0.300625 0.06 0 0.305884 0.06 0 0.311214 0.06 0 0.316623 0.06 0 0.322122 0.06 0 0.327718 0.06 0 0.333422 0.06 0 0.339242 0.06 0 0.345187 0.06 0 0.351267 0.06 0 0.357493 0.06 0 0.363874 0.06 0 0.370422 0.06 0 0.377147 0.06 0 0.384063 0.06 0 0.391183 0.06 0 0.398521 0.06 0 0.406092 0.06 0 0.413912 0.06 0 0.421999 0.06 0 0.43037 0.06 0 0.439043 0
[...]
			<CellData Scalars="Density">
				<DataArray Name="Density" type="Float32" format="ascii">
 1 1 1 1 1 1 1 1 1 1 1 1 1 1 1 1 1 1 1 1 1 1 1 1 1 1 1 1 1 1 1 1 1 1 1 1 1 1 1 1 1 1 1 1 0.999999 0.999997 0.999992 0.999979 0.999945 0.999861 0.999656 0.999216 0.998364 0.996873 0.99448 0.990928 0.985997 0.979538 0.971483 0.961841 0.950683 0.938124 0.9243 0.909355 0.893429 0.876652 0.859139 0.840993 0.822299 0.803136 0.783564 0.763645 0.743423 0.722948 0.70226 0.681404 0.660426 0.639374 0.618311 0.597309 0.576464 0.555901 0.535785 0.516338 0.497848 0.48068 0.465265 0.452048 0.441393 0.433451 0.428058 0.424733 0.422822 0.421681 0.420808 0.419854 0.418515 0.416253 0.41095 0.390403 0.255414 0.260327 0.259939 0.260143 0.260825 0.261521 0.26205 0.262468 0.262866 0.263169 0.263429 0.263714 0.263929 0.264096 0.264287 0.264664 0.265418 0.265761 0.265539 0.26541 0.265372 0.265322 0.265274 0.265232 0.265199 0.265197 0.265201 0.265229 0.265268 0.265309 0.265295 0.265337 0.26534 0.265409 0.265412 0.265444 0.265421 0.265426 0.265406 0.265437 0.265453 0.265454 0.265462 0.265424 0.265431 0.26544 0.26544 0.265432 0.26546 0.265552 0.265573 0.265409 0.264667 0.265384 0.270239 0.271462 0.247849 0.17618 0.133535 0.126355 0.125214 0.125034 0.125005 0.125001 0.125 0.125 0.125 0.125 0.125 0.125 0.125 0.125 0.125 0.125 0.125 0.125 0.125 0.125 0.125 0.125 0.125 0.125 0.125 0.125 0.125 0.125 0.125 0.125 0.125 0.125 0.125 0.125 0.125 0.125 0.125 0.125 0.125 0.125 0.125 0.125 1 1 1 1 1 1 1 1 1 1 1 1 1 1 1 1 1 1 1 1 1 1 1 1 1 1 1 1 1 1 1 1 1 1 1 1 1 1 1 1 1 1 1 1 0.999999 0.999997 0.999992 0.999979 0.999945 0.999861 0.999656 0.999216 0.998364 0.996873 0.99448 0.990928 0.985997 0.979538 0.971483 0.961841 0.950683 0.938124 0.9243 0.909355 0.893429 0.876652 0.859139 0.840993 0.822299 0.803136 0.783564 0.763645 0.743423 0.722948 0.70226 0.681404 0.660426 0.639374 0.618311 0.597309 0.576464 0.555901 0.535785 0.516338 0.497847 0.48068 0.465265 0.452048 0.441393 0.433451 0.428058 0.424733 0.422823 0.421683 0.420811 0.419859 0.418522 0.416264 0.41097 0.390447 0.255375 0.260352 0.259939 0.260187 0.260741 0.261555 0.262019 0.262453 0.262861 0.263207 0.263446 0.263679 0.263955 0.264045 0.264334 0.264538 0.265397 0.265861 0.265587 0.265455 0.26541 0.265316 0.265284 0.265241 0.265219 0.265197 0.265229 0.265228 0.265261 0.265294 0.265336 0.26531 0.265401 0.265339 0.265427 0.265403 0.265429 0.265379 0.265424 0.265399 0.265405 0.265404 0.265379 0.265438 0.265497 0.265471 0.265427 0.265387 0.265409 0.265536 0.265481 0.265314 0.264648 0.265656 0.271195 0.271541 0.246092 0.17531 0.133546 0.126365 0.125215 0.125034 0.125005 0.125001 0.125 0.125 0.125 0.125 0.125 0.125 0.125 0.125 0.125 0.125 0.125 0.125 0.125 0.125 0.125 0.125 0.125 0.125 0.125 0.125 0.125 0.125 0.125 0.125 0.125 0.125 0.125 0.125 0.125 0.125 0.125 0.125 0.125 0.125 0.125 0.125 1 1 1 1 1 1 1 1 1 1 1 1 1 1 1 1 1 1 1 1 1 1 1 1 1 1 1 1 1 1 1 1 1 1 1 1 1 1 1 1 1 1 1 1 0.999999 0.999997 0.999992 0.999979 0.999945 0.999861 0.999656 0.999216 0.998364 0.996873 0.99448 0.990928 0.985997 0.979538 0.971483 0.961841 0.950683 0.938124 0.9243 0.909355 0.893429 0.876652 0.859139 0.840993 0.822299 0.803136 0.783564 0.763645 0.743423 0.722948 0.70226 0.681404 0.660426 0.639374 0.618311 0.597309 0.576464 0.555901 0.535785 0.516338 0.497847 0.48068 0.465265 0.452048 0.441393 0.433452 0.428058 0.424735 0.422826 0.421687 0.420817 0.419866 0.418529 0.416271 0.410989 0.390472 0.255468 0.260328 0.259916 0.260166 0.260811 0.261545 0.262045 0.262477 0.262864 0.263165 0.263415 0.263678 0.263913 0.264128 0.264252 0.26459 0.265259 0.265791 0.265516 0.265425 0.265387 0.265289 0.265235 0.265194 0.265178 0.265195 0.265249 0.265226 0.265293 0.265307 0.265297 0.265366 0.265405 0.265406 0.265422 0.26541 0.265386 0.265451 0.265443 0.265401 0.265435 0.265374 0.265377 0.265487 0.265601 0.265559 0.265461 0.265322 0.265369 0.265461 0.265354 0.264741 0.264032 0.265712 0.271058 0.271823 0.245564 0.175584 0.133649 0.126376 0.125216 0.125034 0.125005 0.125001 0.125 0.125 0.125 0.125 0.125 0.125 0.125 0.125 0.125 0.125 0.125 0.125 0.125 0.125 0.125 0.125 0.125 0.125 0.125 0.125 0.125 0.125 0.125 0.125 0.125 0.125 0.125 0.125 0.125 0.125 0.125 0.125 0.125 0.125 0.125 0.125 1 1 1 1 1 1 1 1 1 1 1 1 1 1 1 1 1 1 1 1 1 1 1 1 1 1 1 1 1 1 1 1 1 1 1 1 1 1 1 1 1 1 1 1 0.999999 0.999997 0.999992 0.999979 0.999945 0.999861 0.999656 0.999216 0.998364 0.996873 0.99448 0.990928 0.985997 0.979538 0.971483 0.961841 0.950683 0.938124 0.9243 0.909355 0.893429 0.876652 0.859139 0.840993 0.822299 0.803136 0.783564 0.763645 0.743423 0.722948 0.70226 0.681404 0.660426 0.639374 0.618311 0.597309 0.576464 0.555901 0.535785 0.516338 0.497847 0.48068 0.465265 0.452048 0.441393 0.433452 0.428059 0.424736 0.422829 0.421693 0.420823 0.41987 0.418531 0.416267 0.410976 0.390468 0.255427 0.26036 0.259917 0.260143 0.260776 0.261503 0.26201 0.262432 0.262851 0.263174 0.263429 0.263722 0.263905 0.264127 0.26425 0.264568 0.265338 0.265733 0.265653 0.265482 0.265464 0.265368 0.265326 0.265276 0.26523 0.265278 0.265258 0.265318 0.265329 0.265379 0.265325 0.265404 0.265359 0.265465 0.265448 0.265491 0.265448 0.265527 0.265485 0.265503 0.265548 0.265514 0.265505 0.265496 0.265631 0.265659 0.26565 0.265509 0.265522 0.265823 0.265915 0.265364 0.264462 0.26587 0.269916 0.270262 0.247205 0.177442 0.133745 0.12638 0.125216 0.125034 0.125005 0.125001 0.125 0.125 0.125 0.125 0.125 0.125 0.125 0.125 0.125 0.125 0.125 0.125 0.125 0.125 0.125 0.125 0.125 0.125 0.125 0.125 0.125 0.125 0.125 0.125 0.125 0.125 0.125 0.125 0.125 0.125 0.125 0.125 0.125 0.125 0.125 0.125 1 1 1 1 1 1 1 1 1 1 1 1 1 1 1 1 1 1 1 1 1 1 1 1 1 1 1 1 1 1 1 1 1 1 1 1 1 1 1 1 1 1 1 1 0.999999 0.999997 0.999992 0.999979 0.999945 0.999861 0.999656 0.999216 0.998364 0.996873 0.99448 0.990928 0.985997 0.979538 0.971483 0.961841 0.950683 0.938124 0.9243 0.909355 0.893429 0.876652 0.859139 0.840993 0.822299 0.803136 0.783564 0.763645 0.743423 0.722948 0.70226 0.681404 0.660426 0.639374 0.618311 0.597309 0.576464 0.555901 0.535785 0.516338 0.497847 0.48068 0.465265 0.452048 0.441393 0.433452 0.42806 0.424738 0.422832 0.421696 0.420825 0.41987 0.418529 0.41626 0.410954 0.39042 0.255414 0.260311 0.259926 0.260161 0.260779 0.261515 0.262019 0.262461 0.262843 0.26317 0.26342 0.263707 0.26394 0.264076 0.264298 0.264547 0.265272 0.265746 0.265576 0.265433 0.265385 0.26533 0.265298 0.265241 0.265229 0.265187 0.265224 0.265233 0.265259 0.265269 0.265311 0.265301 0.265363 0.265376 0.26542 0.265435 0.265448 0.265426 0.265445 0.265456 0.265465 0.265486 0.265486 0.265492 0.265502 0.265526 0.265525 0.26554 0.265618 0.265858 0.265818 0.265433 0.264801 0.265999 0.270528 0.269958 0.243925 0.175253 0.133557 0.126371 0.125216 0.125034 0.125005 0.125001 0.125 0.125 0.125 0.125 0.125 0.125 0.125 0.125 0.125 0.125 0.125 0.125 0.125 0.125 0.125 0.125 0.125 0.125 0.125 0.125 0.125 0.125 0.125 0.125 0.125 0.125 0.125 0.125 0.125 0.125 0.125 0.125 0.125 0.125 0.125 0.125
				</DataArray>
				<DataArray Name="Energy" type="Float32" format="ascii">
 2.5 2.5 2.5 2.5 2.5 2.5 2.5 2.5 2.5 2.5 2.5 2.5 2.5 2.5 2.5 2.5 2.5 2.5 2.5 2.5 2.5 2.5 2.5 2.5 2.5 2.5 2.5 2.5 2.5 2.5 2.5 2.5 2.5 2.5 2.5 2.5 2.5 2.5 2.5 2.5 2.5 2.5 2.5 2.5 2.5 2.5 2.49999 2.49998 2.49995 2.49986 2.49966 2.49922 2.49836 2.49687 2.49448 2.49091 2.48596 2.47946 2.47132 2.46154 2.45016 2.43726 2.42296 2.40737 2.39061 2.37277 2.35395 2.33422 2.31364 2.29228 2.27017 2.24734 2.22383 2.19966 2.17485 2.14942 2.12341 2.09684 2.06977 2.04228 2.01446 1.98649 1.95858 1.93107 1.90441 1.87923 1.85628 1.83643 1.82045 1.80881 1.80148 1.79785 1.797 1.79807 1.80052 1.80429 1.81001 1.81989 1.84343 1.94044 2.96644 2.91041 2.91503 2.91223 2.90552 2.89705 2.89149 2.88673 2.88239 2.87886 2.87611 2.8732 2.87075 2.86914 2.86692 2.86338 2.8548 2.85122 2.85368 2.85495 2.85524 2.85582 2.85636 2.85679 2.85711 2.85702 2.85686 2.85665 2.85631 2.85597 2.85599 2.85585 2.85551 2.85543 2.85494 2.85476 2.8548 2.85464 2.85433 2.85421 2.85392 2.85376 2.85389 2.85371 2.85361 2.85346 2.85321 2.85311 2.85304 2.85364 2.85367 2.8528 2.84945 2.85253 2.87291 2.87725 2.76866 2.35809 2.05696 2.00874 2.00137 2.00022 2.00003 2.00001 2 2 2 2 2 2 2 2 2 2 2 2 2 2 2 2 2 2 2 2 2 2 2 2 2 2 2 2 2 2 2 2 2 2 2 2 2.5 2.5 2.5 2.5 2.5 2.5 2.5 2.5 2.5 2.5 2.5 2.5 2.5 2.5 2.5 2.5 2.5 2.5 2.5 2.5 2.5 2.5 2.5 2.5 2.5 2.5 2.5 2.5 2.5 2.5 2.5 2.5 2.5 2.5 2.5 2.5 2.5 2.5 2.5 2.5 2.5 2.5 2.5 2.5 2.5 2.5 2.49999 2.49998 2.49995 2.49986 2.49966 2.49922 2.49836 2.49687 2.49448 2.49091 2.48596 2.47946 2.47132 2.46154 2.45016 2.43726 2.42296 2.40737 2.39061 2.37277 2.35395 2.33422 2.31364 2.29228 2.27017 2.24734 2.22383 2.19966 2.17485 2.14942 2.12341 2.09684 2.06977 2.04228 2.01446 1.98649 1.95858 1.93107 1.90441 1.87923 1.85628 1.83643 1.82045 1.80881 1.80148 1.79785 1.79701 1.79808 1.80052 1.80429 1.81002 1.81991 1.84347 1.94053 2.96626 2.91052 2.91503 2.91242 2.90515 2.89719 2.89135 2.88667 2.88237 2.87902 2.87618 2.87305 2.87087 2.86898 2.86728 2.86376 2.85555 2.85074 2.85277 2.85457 2.85529 2.85598 2.85647 2.85677 2.85706 2.85703 2.85699 2.85667 2.85633 2.85609 2.85621 2.85593 2.85598 2.85532 2.8552 2.8549 2.85493 2.85478 2.85478 2.85435 2.85409 2.85405 2.85372 2.85423 2.85443 2.85405 2.85376 2.85363 2.85351 2.85393 2.85393 2.85311 2.85027 2.85471 2.87798 2.87875 2.76168 2.3526 2.05703 2.00881 2.00138 2.00022 2.00003 2.00001 2 2 2 2 2 2 2 2 2 2 2 2 2 2 2 2 2 2 2 2 2 2 2 2 2 2 2 2 2 2 2 2 2 2 2 2 2.5 2.5 2.5 2.5 2.5 2.5 2.5 2.5 2.5 2.5 2.5 2.5 2.5 2.5 2.5 2.5 2.5 2.5 2.5 2.5 2.5 2.5 2.5 2.5 2.5 2.5 2.5 2.5 2.5 2.5 2.5 2.5 2.5 2.5 2.5 2.5 2.5 2.5 2.5 2.5 2.5 2.5 2.5 2.5 2.5 2.5 2.49999 2.49998 2.49995 2.49986 2.49966 2.49922 2.49836 2.49687 2.49448 2.49091 2.48596 2.47946 2.47132 2.46154 2.45016 2.43726 2.42296 2.40737 2.39061 2.37277 2.35395 2.33422 2.31364 2.29228 2.27017 2.24734 2.22383 2.19966 2.17485 2.14942 2.12341 2.09684 2.06977 2.04228 2.01446 1.98649 1.95858 1.93107 1.90441 1.87923 1.85628 1.83643 1.82045 1.80881 1.80148 1.79785 1.79701 1.79808 1.80053 1.80431 1.81004 1.81992 1.8435 1.94058 2.96669 2.91041 2.91493 2.91233 2.90546 2.89715 2.89147 2.88677 2.88238 2.87884 2.87604 2.87304 2.87069 2.86929 2.86673 2.8638 2.85572 2.85208 2.85383 2.85521 2.85537 2.85553 2.85607 2.85647 2.85691 2.85698 2.85704 2.85665 2.85649 2.85622 2.85621 2.85629 2.85608 2.85571 2.85531 2.85512 2.85508 2.8553 2.85502 2.85454 2.85445 2.85416 2.85411 2.85475 2.85507 2.85467 2.8542 2.85364 2.85377 2.85415 2.85374 2.85101 2.84794 2.85526 2.87782 2.88056 2.76023 2.35444 2.05774 2.00888 2.00138 2.00022 2.00003 2.00001 2 2 2 2 2 2 2 2 2 2 2 2 2 2 2 2 2 2 2 2 2 2 2 2 2 2 2 2 2 2 2 2 2 2 2 2 2.5 2.5 2.5 2.5 2.5 2.5 2.5 2.5 2.5 2.5 2.5 2.5 2.5 2.5 2.5 2.5 2.5 2.5 2.5 2.5 2.5 2.5 2.5 2.5 2.5 2.5 2.5 2.5 2.5 2.5 2.5 2.5 2.5 2.5 2.5 2.5 2.5 2.5 2.5 2.5 2.5 2.5 2.5 2.5 2.5 2.5 2.49999 2.49998 2.49995 2.49986 2.49966 2.49922 2.49836 2.49687 2.49448 2.49091 2.48596 2.47946 2.47132 2.46154 2.45016 2.43726 2.42296 2.40737 2.39061 2.37277 2.35395 2.33422 2.31364 2.29228 2.27017 2.24734 2.22383 2.19966 2.17485 2.14942 2.12341 2.09684 2.06977 2.04228 2.01446 1.98649 1.95858 1.93107 1.90441 1.87923 1.85628 1.83643 1.82045 1.80881 1.80148 1.79785 1.79702 1.79809 1.80054 1.80431 1.81004 1.81991 1.84348 1.94057 2.9665 2.91056 2.91493 2.91222 2.9053 2.89697 2.89131 2.88657 2.88233 2.87888 2.87611 2.87324 2.87065 2.86933 2.86691 2.86467 2.85671 2.85071 2.85305 2.8544 2.85501 2.85559 2.85601 2.85654 2.85663 2.85681 2.85656 2.85655 2.85617 2.85606 2.85572 2.85572 2.8552 2.85529 2.85475 2.85469 2.85449 2.85458 2.85417 2.85399 2.8538 2.8535 2.85351 2.85329 2.85374 2.85368 2.85337 2.85253 2.85272 2.85385 2.85411 2.85161 2.84745 2.8532 2.87022 2.87148 2.76517 2.36556 2.05842 2.00891 2.00139 2.00022 2.00003 2.00001 2 2 2 2 2 2 2 2 2 2 2 2 2 2 2 2 2 2 2 2 2 2 2 2 2 2 2 2 2 2 2 2 2 2 2 2 2.5 2.5 2.5 2.5 2.5 2.5 2.5 2.5 2.5 2.5 2.5 2.5 2.5 2.5 2.5 2.5 2.5 2.5 2.5 2.5 2.5 2.5 2.5 2.5 2.5 2.5 2.5 2.5 2.5 2.5 2.5 2.5 2.5 2.5 2.5 2.5 2.5 2.5 2.5 2.5 2.5 2.5 2.5 2.5 2.5 2.5 2.49999 2.49998 2.49995 2.49986 2.49966 2.49922 2.49836 2.49687 2.49448 2.49091 2.48596 2.47946 2.47132 2.46154 2.45016 2.43726 2.42296 2.40737 2.39061 2.37277 2.35395 2.33422 2.31364 2.29228 2.27017 2.24734 2.22383 2.19966 2.17485 2.14942 2.12341 2.09684 2.06977 2.04228 2.01446 1.98649 1.95858 1.93107 1.90441 1.87923 1.85628 1.83643 1.82045 1.80881 1.80148 1.79785 1.79702 1.7981 1.80055 1.80431 1.81004 1.8199 1.84344 1.94047 2.96644 2.91034 2.91498 2.91231 2.90532 2.89702 2.89135 2.8867 2.88229 2.87886 2.87607 2.87317 2.87081 2.86908 2.86695 2.86422 2.85646 2.85142 2.85337 2.85492 2.85538 2.85601 2.85635 2.85681 2.85717 2.85699 2.85698 2.85673 2.85645 2.85624 2.85628 2.85602 2.85599 2.85567 2.85547 2.85536 2.85538 2.85522 2.85511 2.85489 2.85463 2.85472 2.85473 2.85481 2.85477 2.8547 2.85448 2.85459 2.85505 2.8561 2.85593 2.85413 2.85127 2.85647 2.87579 2.87308 2.75109 2.35197 2.05711 2.00885 2.00138 2.00022 2.00003 2.00001 2 2 2 2 2 2 2 2 2 2 2 2 2 2 2 2 2 2 2 2 2 2 2 2 2 2 2 2 2 2 2 2 2 2 2 2
				</DataArray>
				<DataArray Name="F1" type="Float32" format="ascii">
 1 1 1 1 1 1 1 1 1 1 1 1 1 1 1 1 1 1 1 1 1 1 1 1 1 1 1 1 1 1 1 1 1 1 1 1 1 1 1 1 1 1 1 1 1 1 1 1 1 1 1 1 1 1 1 1 1 1 1 1 1 1 1 1 1 1 1 1 1 1 1 1 1 1 1 1 1 1 1 1 1 1 1 1 1 1 1 1 1 1 1 1 1 1 1 1 1 1 1 1 0 0 0 0 0 0 0 0 0 0 0 0 0 0 0 0 0 0 0 0 0 0 0 0 0 0 0 0 0 0 0 0 0 0 0 0 0 0 0 0 0 0 0 0 0 0 0 0 0 0 0 0 0 0 0 0 0 0 0 0 0 0 0 0 0 0 0 0 0 0 0 0 0 0 0 0 0 0 0 0 0 0 0 0 0 0 0 0 0 0 0 0 0 0 0 0 0 0 0 0 1 1 1 1 1 1 1 1 1 1 1 1 1 1 1 1 1 1 1 1 1 1 1 1 1 1 1 1 1 1 1 1 1 1 1 1 1 1 1 1 1 1 1 1 1 1 1 1 1 1 1 1 1 1 1 1 1 1 1 1 1 1 1 1 1 1 1 1 1 1 1 1 1 1 1 1 1 1 1 1 1 1 1 1 1 1 1 1 1 1 1 1 1 1 1 1 1 1 1 1 0 0 0 0 0 0 0 0 0 0 0 0 0 0 0 0 0 0 0 0 0 0 0 0 0 0 0 0 0 0 0 0 0 0 0 0 0 0 0 0 0 0 0 0 0 0 0 0 0 0 0 0 0 0 0 0 0 0 0 0 0 0 0 0 0 0 0 0 0 0 0 0 0 0 0 0 0 0 0 0 0 0 0 0 0 0 0 0 0 0 0 0 0 0 0 0 0 0 0 0 1 1 1 1 1 1 1 1 1 1 1 1 1 1 1 1 1 1 1 1 1 1 1 1 1 1 1 1 1 1 1 1 1 1 1 1 1 1 1 1 1 1 1 1 1 1 1 1 1 1 1 1 1 1 1 1 1 1 1 1 1 1 1 1 1 1 1 1 1 1 1 1 1 1 1 1 1 1 1 1 1 1 1 1 1 1 1 1 1 1 1 1 1 1 1 1 1 1 1 1 0 0 0 0 0 0 0 0 0 0 0 0 0 0 0 0 0 0 0 0 0 0 0 0 0 0 0 0 0 0 0 0 0 0 0 0 0 0 0 0 0 0 0 0 0 0 0 0 0 0 0 0 0 0 0 0 0 0 0 0 0 0 0 0 0 0 0 0 0 0 0 0 0 0 0 0 0 0 0 0 0 0 0 0 0 0 0 0 0 0 0 0 0 0 0 0 0 0 0 0 1 1 1 1 1 1 1 1 1 1 1 1 1 1 1 1 1 1 1 1 1 1 1 1 1 1 1 1 1 1 1 1 1 1 1 1 1 1 1 1 1 1 1 1 1 1 1 1 1 1 1 1 1 1 1 1 1 1 1 1 1 1 1 1 1 1 1 1 1 1 1 1 1 1 1 1 1 1 1 1 1 1 1 1 1 1 1 1 1 1 1 1 1 1 1 1 1 1 1 1 0 0 0 0 0 0 0 0 0 0 0 0 0 0 0 0 0 0 0 0 0 0 0 0 0 0 0 0 0 0 0 0 0 0 0 0 0 0 0 0 0 0 0 0 0 0 0 0 0 0 0 0 0 0 0 0 0 0 0 0 0 0 0 0 0 0 0 0 0 0 0 0 0 0 0 0 0 0 0 0 0 0 0 0 0 0 0 0 0 0 0 0 0 0 0 0 0 0 0 0 1 1 1 1 1 1 1 1 1 1 1 1 1 1 1 1 1 1 1 1 1 1 1 1 1 1 1 1 1 1 1 1 1 1 1 1 1 1 1 1 1 1 1 1 1 1 1 1 1 1 1 1 1 1 1 1 1 1 1 1 1 1 1 1 1 1 1 1 1 1 1 1 1 1 1 1 1 1 1 1 1 1 1 1 1 1 1 1 1 1 1 1 1 1 1 1 1 1 1 1 0 0 0 0 0 0 0 0 0 0 0 0 0 0 0 0 0 0 0 0 0 0 0 0 0 0 0 0 0 0 0 0 0 0 0 0 0 0 0 0 0 0 0 0 0 0 0 0 0 0 0 0 0 0 0 0 0 0 0 0 0 0 0 0 0 0 0 0 0 0 0 0 0 0 0 0 0 0 0 0 0 0 0 0 0 0 0 0 0 0 0 0 0 0 0 0 0 0 0 0
				</DataArray>
				<DataArray Name="F2" type="Float32" format="ascii">
 0 0 0 0 0 0 0 0 0 0 0 0 0 0 0 0 0 0 0 0 0 0 0 0 0 0 0 0 0 0 0 0 0 0 0 0 0 0 0 0 0 0 0 0 0 0 0 0 0 0 0 0 0 0 0 0 0 0 0 0 0 0 0 0 0 0 0 0 0 0 0 0 0 0 0 0 0 0 0 0 0 0 0 0 0 0 0 0 0 0 0 0 0 0 0 0 0 0 0 0 1 1 1 1 1 1 1 1 1 1 1 1 1 1 1 1 1 1 1 1 1 1 1 1 1 1 1 1 1 1 1 1 1 1 1 1 1 1 1 1 1 1 1 1 1 1 1 1 1 1 1 1 1 1 1 1 1 1 1 1 1 1 1 1 1 1 1 1 1 1 1 1 1 1 1 1 1 1 1 1 1 1 1 1 1 1 1 1 1 1 1 1 1 1 1 1 1 1 1 1 0 0 0 0 0 0 0 0 0 0 0 0 0 0 0 0 0 0 0 0 0 0 0 0 0 0 0 0 0 0 0 0 0 0 0 0 0 0 0 0 0 0 0 0 0 0 0 0 0 0 0 0 0 0 0 0 0 0 0 0 0 0 0 0 0 0 0 0 0 0 0 0 0 0 0 0 0 0 0 0 0 0 0 0 0 0 0 0 0 0 0 0 0 0 0 0 0 0 0 0 1 1 1 1 1 1 1 1 1 1 1 1 1 1 1 1 1 1 1 1 1 1 1 1 1 1 1 1 1 1 1 1 1 1 1 1 1 1 1 1 1 1 1 1 1 1 1 1 1 1 1 1 1 1 1 1 1 1 1 1 1 1 1 1 1 1 1 1 1 1 1 1 1 1 1 1 1 1 1 1 1 1 1 1 1 1 1 1 1 1 1 1 1 1 1 1 1 1 1 1 0 0 0 0 0 0 0 0 0 0 0 0 0 0 0 0 0 0 0 0 0 0 0 0 0 0 0 0 0 0 0 0 0 0 0 0 0 0 0 0 0 0 0 0 0 0 0 0 0 0 0 0 0 0 0 0 0 0 0 0 0 0 0 0 0 0 0 0 0 0 0 0 0 0 0 0 0 0 0 0 0 0 0 0 0 0 0 0 0 0 0 0 0 0 0 0 0 0 0 0 1 1 1 1 1 1 1 1 1 1 1 1 1 1 1 1 1 1 1 1 1 1 1 1 1 1 1 1 1 1 1 1 1 1 1 1 1 1 1 1 1 1 1 1 1 1 1 1 1 1 1 1 1 1 1 1 1 1 1 1 1 1 1 1 1 1 1 1 1 1 1 1 1 1 1 1 1 1 1 1 1 1 1 1 1 1 1 1 1 1 1 1 1 1 1 1 1 1 1 1 0 0 0 0 0 0 0 0 0 0 0 0 0 0 0 0 0 0 0 0 0 0 0 0 0 0 0 0 0 0 0 0 0 0 0 0 0 0 0 0 0 0 0 0 0 0 0 0 0 0 0 0 0 0 0 0 0 0 0 0 0 0 0 0 0 0 0 0 0 0 0 0 0 0 0 0 0 0 0 0 0 0 0 0 0 0 0 0 0 0 0 0 0 0 0 0 0 0 0 0 1 1 1 1 1 1 1 1 1 1 1 1 1 1 1 1 1 1 1 1 1 1 1 1 1 1 1 1 1 1 1 1 1 1 1 1 1 1 1 1 1 1 1 1 1 1 1 1 1 1 1 1 1 1 1 1 1 1 1 1 1 1 1 1 1 1 1 1 1 1 1 1 1 1 1 1 1 1 1 1 1 1 1 1 1 1 1 1 1 1 1 1 1 1 1 1 1 1 1 1 0 0 0 0 0 0 0 0 0 0 0 0 0 0 0 0 0 0 0 0 0 0 0 0 0 0 0 0 0 0 0 0 0 0 0 0 0 0 0 0 0 0 0 0 0 0 0 0 0 0 0 0 0 0 0 0 0 0 0 0 0 0 0 0 0 0 0 0 0 0 0 0 0 0 0 0 0 0 0 0 0 0 0 0 0 0 0 0 0 0 0 0 0 0 0 0 0 0 0 0 1 1 1 1 1 1 1 1 1 1 1 1 1 1 1 1 1 1 1 1 1 1 1 1 1 1 1 1 1 1 1 1 1 1 1 1 1 1 1 1 1 1 1 1 1 1 1 1 1 1 1 1 1 1 1 1 1 1 1 1 1 1 1 1 1 1 1 1 1 1 1 1 1 1 1 1 1 1 1 1 1 1 1 1 1 1 1 1 1 1 1 1 1 1 1 1 1 1 1 1
				</DataArray>
				<DataArray Name="F3" type="Float32" format="ascii">
 0 0 0 0 0 0 0 0 0 0 0 0 0 0 0 0 0 0 0 0 0 0 0 0 0 0 0 0 0 0 0 0 0 0 0 0 0 0 0 0 0 0 0 0 0 0 0 0 0 0 0 0 0 0 0 0 0 0 0 0 0 0 0 0 0 0 0 0 0 0 0 0 0 0 0 0 0 0 0 0 0 0 0 0 0 0 0 0 0 0 0 0 0 0 0 0 0 0 0 0 0 0 0 0 0 0 0 0 0 0 0 0 0 0 0 0 0 0 0 0 0 0 0 0 0 0 0 0 0 0 0 0 0 0 0 0 0 0 0 0 0 0 0 0 0 0 0 0 0 0 0 0 0 0 0 0 0 0 0 0 0 0 0 0 0 0 0 0 0 0 0 0 0 0 0 0 0 0 0 0 0 0 0 0 0 0 0 0 0 0 0 0 0 0 0 0 0 0 0 0 0 0 0 0 0 0 0 0 0 0 0 0 0 0 0 0 0 0 0 0 0 0 0 0 0 0 0 0 0 0 0 0 0 0 0 0 0 0 0 0 0 0 0 0 0 0 0 0 0 0 0 0 0 0 0 0 0 0 0 0 0 0 0 0 0 0 0 0 0 0 0 0 0 0 0 0 0 0 0 0 0 0 0 0 0 0 0 0 0 0 0 0 0 0 0 0 0 0 0 0 0 0 0 0 0 0 0 0 0 0 0 0 0 0 0 0 0 0 0 0 0 0 0 0 0 0 0 0 0 0 0 0 0 0 0 0 0 0 0 0 0 0 0 0 0 0 0 0 0 0 0 0 0 0 0 0 0 0 0 0 0 0 0 0 0 0 0 0 0 0 0 0 0 0 0 0 0 0 0 0 0 0 0 0 0 0 0 0 0 0 0 0 0 0 0 0 0 0 0 0 0 0 0 0 0 0 0 0 0 0 0 0 0 0 0 0 0 0 0 0 0 0 0 0 0 0 0 0 0 0 0 0 0 0 0 0 0 0 0 0 0 0 0 0 0 0 0 0 0 0 0 0 0 0 0 0 0 0 0 0 0 0 0 0 0 0 0 0 0 0 0 0 0 0 0 0 0 0 0 0 0 0 0 0 0 0 0 0 0 0 0 0 0 0 0 0 0 0 0 0 0 0 0 0 0 0 0 0 0 0 0 0 0 0 0 0 0 0 0 0 0 0 0 0 0 0 0 0 0 0 0 0 0 0 0 0 0 0 0 0 0 0 0 0 0 0 0 0 0 0 0 0 0 0 0 0 0 0 0 0 0 0 0 0 0 0 0 0 0 0 0 0 0 0 0 0 0 0 0 0 0 0 0 0 0 0 0 0 0 0 0 0 0 0 0 0 0 0 0 0 0 0 0 0 0 0 0 0 0 0 0 0 0 0 0 0 0 0 0 0 0 0 0 0 0 0 0 0 0 0 0 0 0 0 0 0 0 0 0 0 0 0 0 0 0 0 0 0 0 0 0 0 0 0 0 0 0 0 0 0 0 0 0 0 0 0 0 0 0 0 0 0 0 0 0 0 0 0 0 0 0 0 0 0 0 0 0 0 0 0 0 0 0 0 0 0 0 0 0 0 0 0 0 0 0 0 0 0 0 0 0 0 0 0 0 0 0 0 0 0 0 0 0 0 0 0 0 0 0 0 0 0 0 0 0 0 0 0 0 0 0 0 0 0 0 0 0 0 0 0 0 0 0 0 0 0 0 0 0 0 0 0 0 0 0 0 0 0 0 0 0 0 0 0 0 0 0 0 0 0 0 0 0 0 0 0 0 0 0 0 0 0 0 0 0 0 0 0 0 0 0 0 0 0 0 0 0 0 0 0 0 0 0 0 0 0 0 0 0 0 0 0 0 0 0 0 0 0 0 0 0 0 0 0 0 0 0 0 0 0 0 0 0 0 0 0 0 0 0 0 0 0 0 0 0 0 0 0 0 0 0 0 0 0 0 0 0 0 0 0 0 0 0 0 0 0 0 0 0 0 0 0 0 0 0 0 0 0 0 0 0 0 0 0 0 0 0 0 0 0 0 0 0 0 0 0 0 0 0 0 0 0 0 0 0 0 0 0 0 0 0 0 0 0 0 0 0 0 0 0 0 0 0 0 0 0 0 0 0 0 0 0 0 0 0 0 0 0 0 0 0 0 0 0 0 0 0 0 0 0 0 0 0 0 0 0 0 0 0 0 0 0 0 0 0 0 0 0 0 0 0 0 0 0 0 0 0 0 0 0 0 0 0 0 0 0 0 0 0 0
				</DataArray>
				<DataArray Name="Pressure" type="Float32" format="ascii">