<?xml version="1.0"?>
<VTKFile type="PolyData">
	<PolyData>
		<Piece NumberOfPoints="1206" NumberOfPolys="1000">
			<Points>
				<DataArray type="Float32" NumberOfComponents="3" format="ascii">
 0 0 0 0.005 0 0 0.01 0 0 0.015 0 0 0.02 0 0 0.025 0 0 0.03 0 0 0.035 0 0 0.04 0 0 0.045 0 0 0.05 0 0 0.055 0 0 0.06 0 0 0.065 0 0 0.07 0 0 0.075 0 0 0.08 0 0 0.085 0 0 0.09 0 0 0.095 0 0 0.1 0 0 0.105 0 0 0.11 0 0 0.115 0 0 0.12 0 0 0.125 0 0 0.13 0 0 0.135 0 0 0.14 0 0 0.145 0 0 0.15 0 0 0.155 0 0 0.16 0 0 0.165 0 0 0.17 0 0 0.175 0 0 0.18 0 0 0.185 0 0 0.19 0 0 0.195 0 0 0.2 0 0 0.205 0 0 0.21 0 0 0.215 0 0 0.22 0 0 0.225 0 0 0.23 0 0 0.235 0 0 0.24 0 0 0.245 0 0 0.25 0 0 0.255 0 0 0.26 0 0 0.265 0 0 0.27 0 0 0.275 0 0 0.28 0 0 0.285 0 0 0.29 0 0 0.295 0 0 0.3 0 0 0.305 0 0 0.31 0 0 0.315 0 0 0.32 0 0 0.325 0 0 0.33 0 0 0.335 0 0 0.34 0 0 0.345001 0 0 0.350002 0 0 0.355006 0 0 0.360015 0 0 0.365037 0 0 0.370083 0 0 0.375169 0 0 0.380312 0 0 0.385536 0 0 0.390862 0 0 0.396315 0 0 0.401919 0 0 0.407701 0 0 0.413686 0 0 0.419903 0 0 0.426382 0 0 0.433155 0 0 0.44026 0 0 0.447736 0 0 0.455627 0 0 0.46398 0 0 0.472843 0 0 0.482256 0 0 0.492244 0 0 0.502799 0 0 0.513865 0 0 0.525334 0 0 0.537073 0 0 0.548972 0 0 0.560978 0 0 0.573149 0 0 0.585958 0 0 0.588405 0 0 0.590807 0 0 0.593213 0 0 0.595617 0 0 0.598016 0 0 0.600409 0 0 0.602797 0 0 0.605179 0 0 0.607558 0 0 0.609926 0 0 0.612289 0 0 0.614656 0 0 0.617 0 0 0.619346 0 0 0.62159 0 0 0.623738 0 0 0.625886 0 0 0.628164 0 0 0.630543 0 0 0.632942 0 0 0.635317 0 0 0.637674 0 0 0.640032 0 0 0.642392 0 0 0.644753 0 0 0.647109 0 0 0.649464 0 0 0.651824 0 0 0.654196 0 0 0.656519 0 0 0.658929 0 0 0.661673 0 0 0.665382 0 0 0.670063 0 0 0.67501 0 0 0.680002 0 0 0.685 0 0 0.69 0 0 0.695 0 0 0.7 0 0 0.705 0 0 0.71 0 0 0.715 0 0 0.72 0 0 0.725 0 0 0.73 0 0 0.735 0 0 0.74 0 0 0.745 0 0 0.75 0 0 0.755 0 0 0.76 0 0 0.765 0 0 0.77 0 0 0.775 0 0 0.78 0 0 0.785 0 0 0.79 0 0 0.795 0 0 0.8 0 0 0.805 0 0 0.81 0 0 0.815 0 0 0.82 0 0 0.825 0 0 0.83 0 0 0.835 0 0 0.84 0 0 0.845 0 0 0.85 0 0 0.855 0 0 0.86 0 0 0.865 0 0 0.87 0 0 0.875 0 0 0.88 0 0 0.885 0 0 0.89 0 0 0.895 0 0 0.9 0 0 0.905 0 0 0.91 0 0 0.915 0 0 0.92 0 0 0.925 0 0 0.93 0 0 0.935 0 0 0.94 0 0 0.945 0 0 0.95 0 0 0.955 0 0 0.96 0 0 0.965 0 0 0.97 0 0 0.975 0 0 0.98 0 0 0.985 0 0 0.99 0 0 0.995 0 0 1 0 0 0 0.02 0 0.005 0.02 0 0.01 0.02 0 0.015 0.02 0 0.02 0.02 0 0.025 0.02 0 0.03 0.02 0 0.035 0.02 0 0.04 0.02 0 0.045 0.02 0 0.05 0.02 0 0.055 0.02 0 0.06 0.02 0 0.065 0.02 0 0.07 0.02 0 0.075 0.02 0 0.08 0.02 0 0.085 0.02 0 0.09 0.02 0 0.095 0.02 0 0.1 0.02 0 0.105 0.02 0 0.11 0.02 0 0.115 0.02 0 0.12 0.02 0 0.125 0.02 0 0.13 0.02 0 0.135 0.02 0 0.14 0.02 0 0.145 0.02 0 0.15 0.02 0 0.155 0.02 0 0.16 0.02 0 0.165 0.02 0 0.17 0.02 0 0.175 0.02 0 0.18 0.02 0 0.185 0.02 0 0.19 0.02 0 0.195 0.02 0 0.2 0.02 0 0.205 0.02 0 0.21 0.02 0 0.215 0.02 0 0.22 0.02 0 0.225 0.02 0 0.23 0.02 0 0.235 0.02 0 0.24 0.02 0 0.245 0.02 0 0.25 0.02 0 0.255 0.02 0 0.26 0.02 0 0.265 0.02 0 0.27 0.02 0 0.275 0.02 0 0.28 0.02 0 0.285 0.02 0 0.29 0.02 0 0.295 0.02 0 0.3 0.02 0 0.305 0.02 0 0.31 0.02 0 0.315 0.02 0 0.32 0.02 0 0.325 0.02 0 0.33 0.02 0 0.335 0.02 0 0.34 0.02 0 0.345001 0.02 0 0.350002 0.02 0 0.355006 0.02 0 0.360015 0.02 0 0.365037 0.02 0 0.370083 0.02 0 0.375169 0.02 0 0.380312 0.02 0 0.385536 0.02 0 0.390862 0.02 0 0.396315 0.02 0 0.401919 0.02 0 0.407701 0.02 0 0.413686 0.02 0 0.419903 0.02 0 0.426382 0.02 0 0.433155 0.02 0 0.44026 0.02 0 0.447736 0.02 0 0.455627 0.02 0 0.46398 0.02 0 0.472843 0.02 0 0.482256 0.02 0 0.492244 0.02 0 0.502799 0.02 0 0.513865 0.02 0 0.525334 0.02 0 0.537073 0.02 0 0.548972 0.02 0 0.560978 0.02 0 0.573149 0.02 0 0.585956 0.0199999 0 0.588402 0.0199997 0 0.590802 0.0199995 0 0.593207 0.0199993 0 0.595609 0.0199984 0 0.598005 0.0199974 0 0.600395 0.0199968 0 0.60278 0.019996 0 0.605163 0.0199961 0 0.607543 0.0199978 0 0.609925 0.0200004 0 0.612308 0.0200023 0 0.614679 0.0200033 0 0.61707 0.0200062 0 0.619454 0.0200079 0 0.621934 0.0200145 0 0.624504 0.0200086 0 0.627065 0.0199925 0 0.629495 0.0199882 0 0.63183 0.0199852 0 0.634146 0.0199887 0 0.636484 0.0199948 0 0.638838 0.0199989 0 0.64119 0.0200006 0 0.643539 0.0200016 0 0.645885 0.0200032 0 0.648233 0.0200035 0 0.650583 0.0200029 0 0.65294 0.0200022 0 0.655268 0.020002 0 0.657557 0.0200024 0 0.659742 0.0200013 0 0.662032 0.0200003 0 0.665382 0.02 0 0.670063 0.02 0 0.67501 0.02 0 0.680002 0.02 0 0.685 0.02 0 0.69 0.02 0 0.695 0.02 0 0.7 0.02 0 0.705 0.02 0 0.71 0.02 0 0.715 0.02 0 0.72 0.02 0 0.725 0.02 0 0.73 0.02 0 0.735 0.02 0 0.74 0.02 0 0.745 0.02 0 0.75 0.02 0 0.755 0.02 0 0.76 0.02 0 0.765 0.02 0 0.77 0.02 0 0.775 0.02 0 0.78 0.02 0 0.785 0.02 0 0.79 0.02 0 0.795 0.02 0 0.8 0.02 0 0.805 0.02 0 0.81 0.02 0 0.815 0.02 0 0.82 0.02 0 0.825 0.02 0 0.83 0.02 0 0.835 0.02 0 0.84 0.02 0 0.845 0.02 0 0.85 0.02 0 0.855 0.02 0 0.86 0.02 0 0.865 0.02 0 0.87 0.02 0 0.875 0.02 0 0.88 0.02 0 0.885 0.02 0 0.89 0.02 0 0.895 0.02 0 0.9 0.02 0 0.905 0.02 0 0.91 0.02 0 0.915 0.02 0 0.92 0.02 0 0.925 0.02 0 0.93 0.02 0 0.935 0.02 0 0.94 0.02 0 0.945 0.02 0 0.95 0.02 0 0.955 0.02 0 0.96 0.02 0 0.965 0.02 0 0.97 0.02 0 0.975 0.02 0 0.98 0.02 0 0.985 0.02 0 0.99 0.02 0 0.995 0.02 0 1 0.02 0 0 0.04 0 0.005 0.04 0 0.01 0.04 0 0.015 0.04 0 0.02 0.04 0 0.025 0.04 0 0.03 0.04 0 0.035 0.04 0 0.04 0.04 0 0.045 0.04 0 0.05 0.04 0 0.055 0.04 0 0.06 0.04 0 0.065 0.04 0 0.07 0.04 0 0.075 0.04 0 0.08 0.04 0 0.085 0.04 0 0.09 0.04 0 0.095 0.04 0 0.1 0.04 0 0.105 0.04 0 0.11 0.04 0 0.115 0.04 0 0.12 0.04 0 0.125 0.04 0 0.13 0.04 0 0.135 0.04 0 0.14 0.04 0 0.145 0.04 0 0.15 0.04 0 0.155 0.04 0 0.16 0.04 0 0.165 0.04 0 0.17 0.04 0 0.175 0.04 0 0.18 0.04 0 0.185 0.04 0 0.19 0.04 0 0.195 0.04 0 0.2 0.04 0 0.205 0.04 0 0.21 0.04 0 0.215 0.04 0 0.22 0.04 0 0.225 0.04 0 0.23 0.04 0 0.235 0.04 0 0.24 0.04 0 0.245 0.04 0 0.25 0.04 0 0.255 0.04 0 0.26 0.04 0 0.265 0.04 0 0.27 0.04 0 0.275 0.04 0 0.28 0.04 0 0.285 0.04 0 0.29 0.04 0 0.295 0.04 0 0.3 0.04 0 0.305 0.04 0 0.31 0.04 0 0.315 0.04 0 0.32 0.04 0 0.325 0.04 0 0.33 0.04 0 0.335 0.04 0 0.34 0.04 0 0.345001 0.04 0 0.350002 0.04 0 0.355006 0.04 0 0.360015 0.04 0 0.365037 0.04 0 0.370083 0.04 0 0.375169 0.04 0 0.380312 0.04 0 0.385536 0.04 0 0.390862 0.04 0 0.396315 0.04 0 0.401919 0.04 0 0.407701 0.04 0 0.413686 0.04 0 0.419903 0.04 0 0.426382 0.04 0 0.433155 0.04 0 0.44026 0.04 0 0.447736 0.04 0 0.455627 0.04 0 0.46398 0.04 0 0.472843 0.04 0 0.482256 0.04 0 0.492244 0.04 0 0.502799 0.04 0 0.513865 0.04 0 0.525334 0.04 0 0.537073 0.04 0 0.548972 0.04 0 0.560978 0.04 0 0.573149 0.0399998 0 0.585958 0.0399992 0 0.588406 0.0399987 0 0.590808 0.0399989 0 0.593213 0.0399994 0 0.595616 0.0399997 0 0.598013 0.0399997 0 0.600402 0.0399996 0 0.602787 0.0399988 0 0.605167 0.0399983 0 0.607542 0.0399983 0 0.609911 0.0400004 0 0.612273 0.0400006 0 0.614643 0.040003 0 0.616989 0.0400047 0 0.619342 0.0400028 0 0.621593 0.0400145 0 0.623746 0.0400193 0 0.625887 0.0400102 0 0.628152 0.0399977 0 0.630519 0.0399954 0 0.632908 0.0399934 0 0.635275 0.0399947 0 0.637631 0.0399974 0 0.639991 0.0399984 0 0.642352 0.0399989 0 0.644713 0.039999 0 0.647073 0.0399977 0 0.649435 0.0399965 0 0.651801 0.0399961 0 0.654177 0.0399966 0 0.6565 0.039997 0 0.658911 0.039998 0 0.661665 0.0399993 0 0.665382 0.0399999 0 0.670063 0.04 0 0.67501 0.04 0 0.680002 0.04 0 0.685 0.04 0 0.69 0.04 0 0.695 0.04 0 0.7 0.04 0 0.705 0.04 0 0.71 0.04 0 0.715 0.04 0 0.72 0.04 0 0.725 0.04 0 0.73 0.04 0 0.735 0.04 0 0.74 0.04 0 0.745 0.04 0 0.75 0.04 0 0.755 0.04 0 0.76 0.04 0 0.765 0.04 0 0.77 0.04 0 0.775 0.04 0 0.78 0.04 0 0.785 0.04 0 0.79 0.04 0 0.795 0.04 0 0.8 0.04 0 0.805 0.04 0 0.81 0.04 0 0.815 0.04 0 0.82 0.04 0 0.825 0.04 0 0.83 0.04 0 0.835 0.04 0 0.84 0.04 0 0.845 0.04 0 0.85 0.04 0 0.855 0.04 0 0.86 0.04 0 0.865 0.04 0 0.87 0.04 0 0.875 0.04 0 0.88 0.04 0 0.885 0.04 0 0.89 0.04 0 0.895 0.04 0 0.9 0.04 0 0.905 0.04 0 0.91 0.04 0 0.915 0.04 0 0.92 0.04 0 0.925 0.04 0 0.93 0.04 0 0.935 0.04 0 0.94 0.04 0 0.945 0.04 0 0.95 0.04 0 0.955 0.04 0 0.96 0.04 0 0.965 0.04 0 0.97 0.04 0 0.975 0.04 0 0.98 0.04 0 0.985 0.04 0 0.99 0.04 0 0.995 0.04 0 1 0.04 0 0 0.06 0 0.005 0.06 0 0.01 0.06 0 0.015 0.06 0 0.02 0.06 0 0.025 0.06 0 0.03 0.06 0 0.035 0.06 0 0.04 0.06 0 0.045 0.06 0 0.05 0.06 0 0.055 0.06 0 0.06 0.06 0 0.065 0.06 0 0.07 0.06 0 0.075 0.06 0 0.08 0.06 0 0.085 0.06 0 0.09 0.06 0 0.095 0.06 0 0.1 0.06 0 0.105 0.06 0 0.11 0.06 0 0.115 0.06 0 0.12 0.06 0 0.125 0.06 0 0.13 0.06 0 0.135 0.06 0 0.14 0.06 0 0.145 0.06 0 0.15 0.06 0 0.155 0.06 0 0.16 0.06 0 0.165 0.06 0 0.17 0.06 0 0.175 0.06 0 0.18 0.06 0 0.185 0.06 0 0.19 0.06 0 0.195 0.06 0 0.2 0.06 0 0.205 0.06 0 0.21 0.06 0 0.215 0.06 0 0.22 0.06 0 0.225 0.06 0 0.23 0.06 0 0.235 0.06 0 0.24 0.06 0 0.245 0.06 0 0.25 0.06 0 0.255 0.06 0 0.26 0.06 0 0.265 0.06 0 0.27 0.06 0 0.275 0.06 0 0.28 0.06 0 0.285 0.06 0 0.29 0.06 0 0.295 0.06 0 0.3 0.06 0 0.305 0.06 0 0.31 0.06 0 0.315 0.06 0 0.32 0.06 0 0.325 0.06 0 0.33 0.06 0 0.335 0.06 0 0.34 0.06 0 0.345001 0.06 0 0.350002 0.06 0 0.355006 0.06 0 0.360015 0.06 0 0.365037 0.06 0 0.370083 0.06 0 0.375169 0.06 0 0.380312 0.06 0 0.385536 0.06 0 0.390862 0.06 0 0.396315 0.06 0 0.401919 0.06 0 0.407701 0.06 0 0.413686 0.06 0 0.419903 0.06 0 0.426382 0.06 0 0.433155 0.06 0 0.44026 0.06 0 0.447736 0.06 0 0.455627 0.06 0 0.46398 0.06 0 0.472843 0.06 0 0.482256 0.06 0 0.492244 0.06 0 0.502799 0.06 0 0.513865 0.06 0 0.525334 0.06 0 0.537073 0.06 0 0.548972 0.06 0 0.560978 0.06 0 0.573148 0.0599999 0 0.585955 0.0599994 0 0.588401 0.059999 0 0.5908 0.0599989 0 0.593205 0.0599989 0 0.595607 0.0599993 0 0.598004 0.0599994 0 0.600395 0.0599991 0 0.602781 0.0599989 0 0.605164 0.0599984 0 0.607545 0.0599981 0 0.609927 0.059996 0 0.612314 0.0599922 0 0.614688 0.0599896 0 0.617089 0.0599866 0 0.619474 0.0599896 0 0.62196 0.0600138 0 0.62453 0.0600205 0 0.627102 0.0600075 0 0.629539 0.0599972 0 0.63188 0.0599989 0 0.634196 0.0600061 0 0.636532 0.0600053 0 0.638881 0.0600044 0 0.641228 0.0600041 0 0.643572 0.0600052 0 0.64591
[...]
			<CellData Scalars="Density">
				<DataArray Name="Density" type="Float32" format="ascii">
 1 1 1 1 1 1 1 1 1 1 1 1 1 1 1 1 1 1 1 1 1 1 1 1 1 1 1 1 1 1 1 1 1 1 1 1 1 1 1 1 1 1 1 1 1 1 1 1 1 1 1 1 1 1 1 1 1 1 1 1 1 1 1 1 0.999999 0.999996 0.999988 0.999964 0.9999 0.999727 0.999277 0.998128 0.995579 0.990867 0.98322 0.972089 0.957251 0.938766 0.916923 0.89212 0.86482 0.835388 0.804291 0.771752 0.738179 0.703747 0.668802 0.633609 0.598566 0.564188 0.531192 0.500596 0.473685 0.451833 0.435968 0.425922 0.420218 0.416435 0.410828 0.390395 0.25541 0.260307 0.259882 0.260113 0.26072 0.261468 0.261975 0.262415 0.26281 0.263135 0.263377 0.263685 0.263876 0.264092 0.264284 0.264623 0.265398 0.265794 0.265565 0.265463 0.265475 0.265424 0.265386 0.265377 0.265517 0.265655 0.265582 0.264938 0.265871 0.270973 0.272017 0.248276 0.177084 0.133519 0.126336 0.125208 0.125032 0.125005 0.125001 0.125 0.125 0.125 0.125 0.125 0.125 0.125 0.125 0.125 0.125 0.125 0.125 0.125 0.125 0.125 0.125 0.125 0.125 0.125 0.125 0.125 0.125 0.125 0.125 0.125 0.125 0.125 0.125 0.125 0.125 0.125 0.125 0.125 0.125 0.125 0.125 0.125 0.125 0.125 0.125 0.125 0.125 0.125 0.125 0.125 0.125 0.125 0.125 0.125 0.125 0.125 0.125 0.125 0.125 0.125 0.125 0.125 0.125 0.125 0.125 0.125 1 1 1 1 1 1 1 1 1 1 1 1 1 1 1 1 1 1 1 1 1 1 1 1 1 1 1 1 1 1 1 1 1 1 1 1 1 1 1 1 1 1 1 1 1 1 1 1 1 1 1 1 1 1 1 1 1 1 1 1 1 1 1 1 0.999999 0.999996 0.999988 0.999964 0.9999 0.999727 0.999277 0.998128 0.995579 0.990867 0.98322 0.972089 0.957251 0.938766 0.916923 0.89212 0.86482 0.835388 0.804291 0.771752 0.738179 0.703747 0.668802 0.633609 0.598566 0.564188 0.531192 0.500596 0.473685 0.451833 0.435968 0.425922 0.420218 0.416436 0.41083 0.390392 0.255409 0.260309 0.259896 0.260122 0.260747 0.261488 0.261997 0.262406 0.262823 0.263122 0.263426 0.26366 0.263908 0.263981 0.264289 0.26452 0.265454 0.265789 0.265609 0.265503 0.265546 0.265454 0.265337 0.265456 0.265631 0.265664 0.265478 0.264845 0.265867 0.271221 0.272062 0.247879 0.176871 0.133524 0.126339 0.125209 0.125032 0.125005 0.125001 0.125 0.125 0.125 0.125 0.125 0.125 0.125 0.125 0.125 0.125 0.125 0.125 0.125 0.125 0.125 0.125 0.125 0.125 0.125 0.125 0.125 0.125 0.125 0.125 0.125 0.125 0.125 0.125 0.125 0.125 0.125 0.125 0.125 0.125 0.125 0.125 0.125 0.125 0.125 0.125 0.125 0.125 0.125 0.125 0.125 0.125 0.125 0.125 0.125 0.125 0.125 0.125 0.125 0.125 0.125 0.125 0.125 0.125 0.125 0.125 0.125 1 1 1 1 1 1 1 1 1 1 1 1 1 1 1 1 1 1 1 1 1 1 1 1 1 1 1 1 1 1 1 1 1 1 1 1 1 1 1 1 1 1 1 1 1 1 1 1 1 1 1 1 1 1 1 1 1 1 1 1 1 1 1 1 0.999999 0.999996 0.999988 0.999964 0.9999 0.999727 0.999277 0.998128 0.995579 0.990867 0.98322 0.972089 0.957251 0.938766 0.916923 0.89212 0.86482 0.835388 0.804291 0.771752 0.738179 0.703747 0.668802 0.633609 0.598566 0.564188 0.531192 0.500596 0.473685 0.451833 0.435968 0.425922 0.420219 0.416438 0.410834 0.390396 0.255417 0.260317 0.25991 0.260136 0.260755 0.2615 0.261999 0.262444 0.262823 0.263189 0.263361 0.263789 0.263795 0.264219 0.264113 0.264657 0.265249 0.265837 0.265501 0.265445 0.265389 0.265449 0.265412 0.265491 0.265597 0.265611 0.26527 0.264627 0.266003 0.271148 0.272066 0.247754 0.176955 0.133551 0.126342 0.125209 0.125032 0.125005 0.125001 0.125 0.125 0.125 0.125 0.125 0.125 0.125 0.125 0.125 0.125 0.125 0.125 0.125 0.125 0.125 0.125 0.125 0.125 0.125 0.125 0.125 0.125 0.125 0.125 0.125 0.125 0.125 0.125 0.125 0.125 0.125 0.125 0.125 0.125 0.125 0.125 0.125 0.125 0.125 0.125 0.125 0.125 0.125 0.125 0.125 0.125 0.125 0.125 0.125 0.125 0.125 0.125 0.125 0.125 0.125 0.125 0.125 0.125 0.125 0.125 0.125 1 1 1 1 1 1 1 1 1 1 1 1 1 1 1 1 1 1 1 1 1 1 1 1 1 1 1 1 1 1 1 1 1 1 1 1 1 1 1 1 1 1 1 1 1 1 1 1 1 1 1 1 1 1 1 1 1 1 1 1 1 1 1 1 0.999999 0.999996 0.999988 0.999964 0.9999 0.999727 0.999277 0.998128 0.995579 0.990867 0.98322 0.972089 0.957251 0.938766 0.916923 0.89212 0.86482 0.835388 0.804291 0.771752 0.738179 0.703747 0.668802 0.633609 0.598566 0.564188 0.531192 0.500596 0.473685 0.451833 0.435967 0.425922 0.420221 0.416441 0.410836 0.390402 0.255419 0.260321 0.259905 0.260144 0.260763 0.2615 0.26201 0.262451 0.262837 0.2632 0.263406 0.26376 0.263871 0.264156 0.264157 0.264429 0.265225 0.265788 0.26574 0.265542 0.265543 0.265502 0.265518 0.265495 0.265663 0.265786 0.265493 0.264757 0.266046 0.270832 0.271741 0.248096 0.177403 0.133575 0.126343 0.125209 0.125032 0.125005 0.125001 0.125 0.125 0.125 0.125 0.125 0.125 0.125 0.125 0.125 0.125 0.125 0.125 0.125 0.125 0.125 0.125 0.125 0.125 0.125 0.125 0.125 0.125 0.125 0.125 0.125 0.125 0.125 0.125 0.125 0.125 0.125 0.125 0.125 0.125 0.125 0.125 0.125 0.125 0.125 0.125 0.125 0.125 0.125 0.125 0.125 0.125 0.125 0.125 0.125 0.125 0.125 0.125 0.125 0.125 0.125 0.125 0.125 0.125 0.125 0.125 0.125 1 1 1 1 1 1 1 1 1 1 1 1 1 1 1 1 1 1 1 1 1 1 1 1 1 1 1 1 1 1 1 1 1 1 1 1 1 1 1 1 1 1 1 1 1 1 1 1 1 1 1 1 1 1 1 1 1 1 1 1 1 1 1 1 0.999999 0.999996 0.999988 0.999964 0.9999 0.999727 0.999277 0.998128 0.995579 0.990867 0.98322 0.972089 0.957251 0.938766 0.916923 0.89212 0.86482 0.835388 0.804291 0.771752 0.738179 0.703747 0.668802 0.633609 0.598566 0.564188 0.531192 0.500596 0.473685 0.451833 0.435967 0.425922 0.420222 0.416441 0.410833 0.390385 0.255419 0.260322 0.259913 0.260145 0.260766 0.261509 0.262026 0.262448 0.262853 0.263149 0.263414 0.263676 0.263922 0.264058 0.264258 0.264551 0.265295 0.265798 0.265633 0.265531 0.265515 0.265461 0.265439 0.265481 0.265611 0.26568 0.265535 0.264797 0.265953 0.271046 0.271741 0.247349 0.176903 0.133536 0.126341 0.125209 0.125032 0.125005 0.125001 0.125 0.125 0.125 0.125 0.125 0.125 0.125 0.125 0.125 0.125 0.125 0.125 0.125 0.125 0.125 0.125 0.125 0.125 0.125 0.125 0.125 0.125 0.125 0.125 0.125 0.125 0.125 0.125 0.125 0.125 0.125 0.125 0.125 0.125 0.125 0.125 0.125 0.125 0.125 0.125 0.125 0.125 0.125 0.125 0.125 0.125 0.125 0.125 0.125 0.125 0.125 0.125 0.125 0.125 0.125 0.125 0.125 0.125 0.125 0.125 0.125
				</DataArray>
				<DataArray Name="Energy" type="Float32" format="ascii">
 2.5 2.5 2.5 2.5 2.5 2.5 2.5 2.5 2.5 2.5 2.5 2.5 2.5 2.5 2.5 2.5 2.5 2.5 2.5 2.5 2.5 2.5 2.5 2.5 2.5 2.5 2.5 2.5 2.5 2.5 2.5 2.5 2.5 2.5 2.5 2.5 2.5 2.5 2.5 2.5 2.5 2.5 2.5 2.5 2.5 2.5 2.5 2.5 2.5 2.5 2.5 2.5 2.5 2.5 2.5 2.5 2.5 2.5 2.5 2.5 2.5 2.5 2.5 2.5 2.5 2.5 2.49999 2.49996 2.4999 2.49973 2.49928 2.49813 2.49558 2.49086 2.48318 2.47197 2.45694 2.43807 2.41554 2.38964 2.3607 2.32897 2.29481 2.25831 2.2198 2.17933 2.1372 2.0936 2.04893 2.00382 1.95925 1.91679 1.87866 1.84756 1.82588 1.8146 1.81295 1.82021 1.84322 1.94042 2.96642 2.91032 2.91477 2.91209 2.90505 2.89681 2.89116 2.8865 2.88215 2.87871 2.87588 2.87307 2.87053 2.86912 2.86691 2.86321 2.85471 2.85136 2.85379 2.85518 2.85568 2.85626 2.85684 2.85742 2.85848 2.85899 2.8585 2.85539 2.85889 2.87998 2.88403 2.7744 2.36541 2.0569 2.00862 2.00133 2.00021 2.00003 2.00001 2 2 2 2 2 2 2 2 2 2 2 2 2 2 2 2 2 2 2 2 2 2 2 2 2 2 2 2 2 2 2 2 2 2 2 2 2 2 2 2 2 2 2 2 2 2 2 2 2 2 2 2 2 2 2 2 2 2 2 2 2 2.5 2.5 2.5 2.5 2.5 2.5 2.5 2.5 2.5 2.5 2.5 2.5 2.5 2.5 2.5 2.5 2.5 2.5 2.5 2.5 2.5 2.5 2.5 2.5 2.5 2.5 2.5 2.5 2.5 2.5 2.5 2.5 2.5 2.5 2.5 2.5 2.5 2.5 2.5 2.5 2.5 2.5 2.5 2.5 2.5 2.5 2.5 2.5 2.5 2.5 2.5 2.5 2.5 2.5 2.5 2.5 2.5 2.5 2.5 2.5 2.5 2.5 2.5 2.5 2.5 2.5 2.49999 2.49996 2.4999 2.49973 2.49928 2.49813 2.49558 2.49086 2.48318 2.47197 2.45694 2.43807 2.41554 2.38964 2.3607 2.32897 2.29481 2.25831 2.2198 2.17933 2.1372 2.0936 2.04893 2.00382 1.95925 1.91679 1.87866 1.84756 1.82588 1.8146 1.81295 1.82021 1.84322 1.94042 2.96641 2.91033 2.91484 2.91213 2.90517 2.8969 2.89125 2.88646 2.8822 2.87865 2.87609 2.87296 2.87066 2.8687 2.86709 2.86368 2.85579 2.85043 2.85286 2.85478 2.85587 2.85657 2.8567 2.85769 2.85884 2.85904 2.85806 2.85501 2.85894 2.8812 2.88425 2.77281 2.36403 2.05693 2.00864 2.00134 2.00021 2.00003 2.00001 2 2 2 2 2 2 2 2 2 2 2 2 2 2 2 2 2 2 2 2 2 2 2 2 2 2 2 2 2 2 2 2 2 2 2 2 2 2 2 2 2 2 2 2 2 2 2 2 2 2 2 2 2 2 2 2 2 2 2 2 2 2.5 2.5 2.5 2.5 2.5 2.5 2.5 2.5 2.5 2.5 2.5 2.5 2.5 2.5 2.5 2.5 2.5 2.5 2.5 2.5 2.5 2.5 2.5 2.5 2.5 2.5 2.5 2.5 2.5 2.5 2.5 2.5 2.5 2.5 2.5 2.5 2.5 2.5 2.5 2.5 2.5 2.5 2.5 2.5 2.5 2.5 2.5 2.5 2.5 2.5 2.5 2.5 2.5 2.5 2.5 2.5 2.5 2.5 2.5 2.5 2.5 2.5 2.5 2.5 2.5 2.5 2.49999 2.49996 2.4999 2.49973 2.49928 2.49813 2.49558 2.49086 2.48318 2.47197 2.45694 2.43807 2.41554 2.38964 2.3607 2.32897 2.29481 2.25831 2.2198 2.17933 2.1372 2.0936 2.04893 2.00382 1.95925 1.91679 1.87866 1.84756 1.82588 1.8146 1.81295 1.82021 1.84323 1.94043 2.96645 2.91037 2.9149 2.91219 2.90521 2.89695 2.89127 2.88663 2.88221 2.87894 2.87581 2.87353 2.87018 2.86968 2.86613 2.8641 2.85568 2.85228 2.85376 2.8553 2.85538 2.85622 2.85683 2.85775 2.85871 2.85877 2.85713 2.85406 2.85955 2.88097 2.88446 2.77242 2.36455 2.05712 2.00866 2.00134 2.00021 2.00003 2.00001 2 2 2 2 2 2 2 2 2 2 2 2 2 2 2 2 2 2 2 2 2 2 2 2 2 2 2 2 2 2 2 2 2 2 2 2 2 2 2 2 2 2 2 2 2 2 2 2 2 2 2 2 2 2 2 2 2 2 2 2 2 2.5 2.5 2.5 2.5 2.5 2.5 2.5 2.5 2.5 2.5 2.5 2.5 2.5 2.5 2.5 2.5 2.5 2.5 2.5 2.5 2.5 2.5 2.5 2.5 2.5 2.5 2.5 2.5 2.5 2.5 2.5 2.5 2.5 2.5 2.5 2.5 2.5 2.5 2.5 2.5 2.5 2.5 2.5 2.5 2.5 2.5 2.5 2.5 2.5 2.5 2.5 2.5 2.5 2.5 2.5 2.5 2.5 2.5 2.5 2.5 2.5 2.5 2.5 2.5 2.5 2.5 2.49999 2.49996 2.4999 2.49973 2.49928 2.49813 2.49558 2.49086 2.48318 2.47197 2.45694 2.43807 2.41554 2.38964 2.3607 2.32897 2.29481 2.25831 2.2198 2.17933 2.1372 2.0936 2.04893 2.00382 1.95925 1.91679 1.87866 1.84756 1.82588 1.8146 1.81295 1.82022 1.84323 1.94044 2.96646 2.91038 2.91488 2.91223 2.90525 2.89695 2.89131 2.88666 2.88227 2.87899 2.87601 2.8734 2.87051 2.86946 2.8665 2.86407 2.85622 2.85095 2.85342 2.85466 2.85535 2.85617 2.85684 2.85748 2.85849 2.85899 2.85757 2.85412 2.85925 2.87916 2.8825 2.77331 2.36726 2.05728 2.00866 2.00134 2.00021 2.00003 2.00001 2 2 2 2 2 2 2 2 2 2 2 2 2 2 2 2 2 2 2 2 2 2 2 2 2 2 2 2 2 2 2 2 2 2 2 2 2 2 2 2 2 2 2 2 2 2 2 2 2 2 2 2 2 2 2 2 2 2 2 2 2 2.5 2.5 2.5 2.5 2.5 2.5 2.5 2.5 2.5 2.5 2.5 2.5 2.5 2.5 2.5 2.5 2.5 2.5 2.5 2.5 2.5 2.5 2.5 2.5 2.5 2.5 2.5 2.5 2.5 2.5 2.5 2.5 2.5 2.5 2.5 2.5 2.5 2.5 2.5 2.5 2.5 2.5 2.5 2.5 2.5 2.5 2.5 2.5 2.5 2.5 2.5 2.5 2.5 2.5 2.5 2.5 2.5 2.5 2.5 2.5 2.5 2.5 2.5 2.5 2.5 2.5 2.49999 2.49996 2.4999 2.49973 2.49928 2.49813 2.49558 2.49086 2.48318 2.47197 2.45694 2.43807 2.41554 2.38964 2.3607 2.32897 2.29481 2.25831 2.2198 2.17933 2.1372 2.0936 2.04893 2.00382 1.95925 1.91679 1.87866 1.84756 1.82588 1.8146 1.81295 1.82022 1.84322 1.9404 2.96646 2.91039 2.91492 2.91223 2.90526 2.89699 2.89138 2.88665 2.88234 2.87877 2.87604 2.87304 2.87073 2.869 2.86677 2.86424 2.85656 2.85165 2.85362 2.85534 2.85593 2.85657 2.85696 2.85785 2.85881 2.85911 2.85832 2.85485 2.85944 2.88073 2.8831 2.7702 2.36418 2.05702 2.00865 2.00134 2.00021 2.00003 2.00001 2 2 2 2 2 2 2 2 2 2 2 2 2 2 2 2 2 2 2 2 2 2 2 2 2 2 2 2 2 2 2 2 2 2 2 2 2 2 2 2 2 2 2 2 2 2 2 2 2 2 2 2 2 2 2 2 2 2 2 2 2
				</DataArray>
				<DataArray Name="F1" type="Float32" format="ascii">
 1 1 1 1 1 1 1 1 1 1 1 1 1 1 1 1 1 1 1 1 1 1 1 1 1 1 1 1 1 1 1 1 1 1 1 1 1 1 1 1 1 1 1 1 1 1 1 1 1 1 1 1 1 1 1 1 1 1 1 1 1 1 1 1 1 1 1 1 1 1 1 1 1 1 1 1 1 1 1 1 1 1 1 1 1 1 1 1 1 1 1 1 1 1 1 1 1 1 1 1 0 0 0 0 0 0 0 0 0 0 0 0 0 0 0 0 0 0 0 0 0 0 0 0 0 0 0 0 0 0 0 0 0 0 0 0 0 0 0 0 0 0 0 0 0 0 0 0 0 0 0 0 0 0 0 0 0 0 0 0 0 0 0 0 0 0 0 0 0 0 0 0 0 0 0 0 0 0 0 0 0 0 0 0 0 0 0 0 0 0 0 0 0 0 0 0 0 0 0 0 1 1 1 1 1 1 1 1 1 1 1 1 1 1 1 1 1 1 1 1 1 1 1 1 1 1 1 1 1 1 1 1 1 1 1 1 1 1 1 1 1 1 1 1 1 1 1 1 1 1 1 1 1 1 1 1 1 1 1 1 1 1 1 1 1 1 1 1 1 1 1 1 1 1 1 1 1 1 1 1 1 1 1 1 1 1 1 1 1 1 1 1 1 1 1 1 1 1 1 1 0 0 0 0 0 0 0 0 0 0 0 0 0 0 0 0 0 0 0 0 0 0 0 0 0 0 0 0 0 0 0 0 0 0 0 0 0 0 0 0 0 0 0 0 0 0 0 0 0 0 0 0 0 0 0 0 0 0 0 0 0 0 0 0 0 0 0 0 0 0 0 0 0 0 0 0 0 0 0 0 0 0 0 0 0 0 0 0 0 0 0 0 0 0 0 0 0 0 0 0 1 1 1 1 1 1 1 1 1 1 1 1 1 1 1 1 1 1 1 1 1 1 1 1 1 1 1 1 1 1 1 1 1 1 1 1 1 1 1 1 1 1 1 1 1 1 1 1 1 1 1 1 1 1 1 1 1 1 1 1 1 1 1 1 1 1 1 1 1 1 1 1 1 1 1 1 1 1 1 1 1 1 1 1 1 1 1 1 1 1 1 1 1 1 1 1 1 1 1 1 0 0 0 0 0 0 0 0 0 0 0 0 0 0 0 0 0 0 0 0 0 0 0 0 0 0 0 0 0 0 0 0 0 0 0 0 0 0 0 0 0 0 0 0 0 0 0 0 0 0 0 0 0 0 0 0 0 0 0 0 0 0 0 0 0 0 0 0 0 0 0 0 0 0 0 0 0 0 0 0 0 0 0 0 0 0 0 0 0 0 0 0 0 0 0 0 0 0 0 0 1 1 1 1 1 1 1 1 1 1 1 1 1 1 1 1 1 1 1 1 1 1 1 1 1 1 1 1 1 1 1 1 1 1 1 1 1 1 1 1 1 1 1 1 1 1 1 1 1 1 1 1 1 1 1 1 1 1 1 1 1 1 1 1 1 1 1 1 1 1 1 1 1 1 1 1 1 1 1 1 1 1 1 1 1 1 1 1 1 1 1 1 1 1 1 1 1 1 1 1 0 0 0 0 0 0 0 0 0 0 0 0 0 0 0 0 0 0 0 0 0 0 0 0 0 0 0 0 0 0 0 0 0 0 0 0 0 0 0 0 0 0 0 0 0 0 0 0 0 0 0 0 0 0 0 0 0 0 0 0 0 0 0 0 0 0 0 0 0 0 0 0 0 0 0 0 0 0 0 0 0 0 0 0 0 0 0 0 0 0 0 0 0 0 0 0 0 0 0 0 1 1 1 1 1 1 1 1 1 1 1 1 1 1 1 1 1 1 1 1 1 1 1 1 1 1 1 1 1 1 1 1 1 1 1 1 1 1 1 1 1 1 1 1 1 1 1 1 1 1 1 1 1 1 1 1 1 1 1 1 1 1 1 1 1 1 1 1 1 1 1 1 1 1 1 1 1 1 1 1 1 1 1 1 1 1 1 1 1 1 1 1 1 1 1 1 1 1 1 1 0 0 0 0 0 0 0 0 0 0 0 0 0 0 0 0 0 0 0 0 0 0 0 0 0 0 0 0 0 0 0 0 0 0 0 0 0 0 0 0 0 0 0 0 0 0 0 0 0 0 0 0 0 0 0 0 0 0 0 0 0 0 0 0 0 0 0 0 0 0 0 0 0 0 0 0 0 0 0 0 0 0 0 0 0 0 0 0 0 0 0 0 0 0 0 0 0 0 0 0
				</DataArray>
				<DataArray Name="F2" type="Float32" format="ascii">
 0 0 0 0 0 0 0 0 0 0 0 0 0 0 0 0 0 0 0 0 0 0 0 0 0 0 0 0 0 0 0 0 0 0 0 0 0 0 0 0 0 0 0 0 0 0 0 0 0 0 0 0 0 0 0 0 0 0 0 0 0 0 0 0 0 0 0 0 0 0 0 0 0 0 0 0 0 0 0 0 0 0 0 0 0 0 0 0 0 0 0 0 0 0 0 0 0 0 0 0 1 1 1 1 1 1 1 1 1 1 1 1 1 1 1 1 1 1 1 1 1 1 1 1 1 1 1 1 1 1 1 1 1 1 1 1 1 1 1 1 1 1 1 1 1 1 1 1 1 1 1 1 1 1 1 1 1 1 1 1 1 1 1 1 1 1 1 1 1 1 1 1 1 1 1 1 1 1 1 1 1 1 1 1 1 1 1 1 1 1 1 1 1 1 1 1 1 1 1 1 0 0 0 0 0 0 0 0 0 0 0 0 0 0 0 0 0 0 0 0 0 0 0 0 0 0 0 0 0 0 0 0 0 0 0 0 0 0 0 0 0 0 0 0 0 0 0 0 0 0 0 0 0 0 0 0 0 0 0 0 0 0 0 0 0 0 0 0 0 0 0 0 0 0 0 0 0 0 0 0 0 0 0 0 0 0 0 0 0 0 0 0 0 0 0 0 0 0 0 0 1 1 1 1 1 1 1 1 1 1 1 1 1 1 1 1 1 1 1 1 1 1 1 1 1 1 1 1 1 1 1 1 1 1 1 1 1 1 1 1 1 1 1 1 1 1 1 1 1 1 1 1 1 1 1 1 1 1 1 1 1 1 1 1 1 1 1 1 1 1 1 1 1 1 1 1 1 1 1 1 1 1 1 1 1 1 1 1 1 1 1 1 1 1 1 1 1 1 1 1 0 0 0 0 0 0 0 0 0 0 0 0 0 0 0 0 0 0 0 0 0 0 0 0 0 0 0 0 0 0 0 0 0 0 0 0 0 0 0 0 0 0 0 0 0 0 0 0 0 0 0 0 0 0 0 0 0 0 0 0 0 0 0 0 0 0 0 0 0 0 0 0 0 0 0 0 0 0 0 0 0 0 0 0 0 0 0 0 0 0 0 0 0 0 0 0 0 0 0 0 1 1 1 1 1 1 1 1 1 1 1 1 1 1 1 1 1 1 1 1 1 1 1 1 1 1 1 1 1 1 1 1 1 1 1 1 1 1 1 1 1 1 1 1 1 1 1 1 1 1 1 1 1 1 1 1 1 1 1 1 1 1 1 1 1 1 1 1 1 1 1 1 1 1 1 1 1 1 1 1 1 1 1 1 1 1 1 1 1 1 1 1 1 1 1 1 1 1 1 1 0 0 0 0 0 0 0 0 0 0 0 0 0 0 0 0 0 0 0 0 0 0 0 0 0 0 0 0 0 0 0 0 0 0 0 0 0 0 0 0 0 0 0 0 0 0 0 0 0 0 0 0 0 0 0 0 0 0 0 0 0 0 0 0 0 0 0 0 0 0 0 0 0 0 0 0 0 0 0 0 0 0 0 0 0 0 0 0 0 0 0 0 0 0 0 0 0 0 0 0 1 1 1 1 1 1 1 1 1 1 1 1 1 1 1 1 1 1 1 1 1 1 1 1 1 1 1 1 1 1 1 1 1 1 1 1 1 1 1 1 1 1 1 1 1 1 1 1 1 1 1 1 1 1 1 1 1 1 1 1 1 1 1 1 1 1 1 1 1 1 1 1 1 1 1 1 1 1 1 1 1 1 1 1 1 1 1 1 1 1 1 1 1 1 1 1 1 1 1 1 0 0 0 0 0 0 0 0 0 0 0 0 0 0 0 0 0 0 0 0 0 0 0 0 0 0 0 0 0 0 0 0 0 0 0 0 0 0 0 0 0 0 0 0 0 0 0 0 0 0 0 0 0 0 0 0 0 0 0 0 0 0 0 0 0 0 0 0 0 0 0 0 0 0 0 0 0 0 0 0 0 0 0 0 0 0 0 0 0 0 0 0 0 0 0 0 0 0 0 0 1 1 1 1 1 1 1 1 1 1 1 1 1 1 1 1 1 1 1 1 1 1 1 1 1 1 1 1 1 1 1 1 1 1 1 1 1 1 1 1 1 1 1 1 1 1 1 1 1 1 1 1 1 1 1 1 1 1 1 1 1 1 1 1 1 1 1 1 1 1 1 1 1 1 1 1 1 1 1 1 1 1 1 1 1 1 1 1 1 1 1 1 1 1 1 1 1 1 1 1
				</DataArray>
				<DataArray Name="F3" type="Float32" format="ascii">
 0 0 0 0 0 0 0 0 0 0 0 0 0 0 0 0 0 0 0 0 0 0 0 0 0 0 0 0 0 0 0 0 0 0 0 0 0 0 0 0 0 0 0 0 0 0 0 0 0 0 0 0 0 0 0 0 0 0 0 0 0 0 0 0 0 0 0 0 0 0 0 0 0 0 0 0 0 0 0 0 0 0 0 0 0 0 0 0 0 0 0 0 0 0 0 0 0 0 0 0 0 0 0 0 0 0 0 0 0 0 0 0 0 0 0 0 0 0 0 0 0 0 0 0 0 0 0 0 0 0 0 0 0 0 0 0 0 0 0 0 0 0 0 0 0 0 0 0 0 0 0 0 0 0 0 0 0 0 0 0 0 0 0 0 0 0 0 0 0 0 0 0 0 0 0 0 0 0 0 0 0 0 0 0 0 0 0 0 0 0 0 0 0 0 0 0 0 0 0 0 0 0 0 0 0 0 0 0 0 0 0 0 0 0 0 0 0 0 0 0 0 0 0 0 0 0 0 0 0 0 0 0 0 0 0 0 0 0 0 0 0 0 0 0 0 0 0 0 0 0 0 0 0 0 0 0 0 0 0 0 0 0 0 0 0 0 0 0 0 0 0 0 0 0 0 0 0 0 0 0 0 0 0 0 0 0 0 0 0 0 0 0 0 0 0 0 0 0 0 0 0 0 0 0 0 0 0 0 0 0 0 0 0 0 0 0 0 0 0 0 0 0 0 0 0 0 0 0 0 0 0 0 0 0 0 0 0 0 0 0 0 0 0 0 0 0 0 0 0 0 0 0 0 0 0 0 0 0 0 0 0 0 0 0 0 0 0 0 0 0 0 0 0 0 0 0 0 0 0 0 0 0 0 0 0 0 0 0 0 0 0 0 0 0 0 0 0 0 0 0 0 0 0 0 0 0 0 0 0 0 0 0 0 0 0 0 0 0 0 0 0 0 0 0 0 0 0 0 0 0 0 0 0 0 0 0 0 0 0 0 0 0 0 0 0 0 0 0 0 0 0 0 0 0 0 0 0 0 0 0 0 0 0 0 0 0 0 0 0 0 0 0 0 0 0 0 0 0 0 0 0 0 0 0 0 0 0 0 0 0 0 0 0 0 0 0 0 0 0 0 0 0 0 0 0 0 0 0 0 0 0 0 0 0 0 0 0 0 0 0 0 0 0 0 0 0 0 0 0 0 0 0 0 0 0 0 0 0 0 0 0 0 0 0 0 0 0 0 0 0 0 0 0 0 0 0 0 0 0 0 0 0 0 0 0 0 0 0 0 0 0 0 0 0 0 0 0 0 0 0 0 0 0 0 0 0 0 0 0 0 0 0 0 0 0 0 0 0 0 0 0 0 0 0 0 0 0 0 0 0 0 0 0 0 0 0 0 0 0 0 0 0 0 0 0 0 0 0 0 0 0 0 0 0 0 0 0 0 0 0 0 0 0 0 0 0 0 0 0 0 0 0 0 0 0 0 0 0 0 0 0 0 0 0 0 0 0 0 0 0 0 0 0 0 0 0 0 0 0 0 0 0 0 0 0 0 0 0 0 0 0 0 0 0 0 0 0 0 0 0 0 0 0 0 0 0 0 0 0 0 0 0 0 0 0 0 0 0 0 0 0 0 0 0 0 0 0 0 0 0 0 0 0 0 0 0 0 0 0 0 0 0 0 0 0 0 0 0 0 0 0 0 0 0 0 0 0 0 0 0 0 0 0 0 0 0 0 0 0 0 0 0 0 0 0 0 0 0 0 0 0 0 0 0 0 0 0 0 0 0 0 0 0 0 0 0 0 0 0 0 0 0 0 0 0 0 0 0 0 0 0 0 0 0 0 0 0 0 0 0 0 0 0 0 0 0 0 0 0 0 0 0 0 0 0 0 0 0 0 0 0 0 0 0 0 0 0 0 0 0 0 0 0 0 0 0 0 0 0 0 0 0 0 0 0 0 0 0 0 0 0 0 0 0 0 0 0 0 0 0 0 0 0 0 0 0 0 0 0 0 0 0 0 0 0 0 0 0 0 0 0 0 0 0 0 0 0 0 0 0 0 0 0 0 0 0 0 0 0 0 0 0 0 0 0 0 0 0 0 0 0 0 0 0 0 0 0 0 0 0 0 0 0 0 0 0 0 0 0 0 0 0 0 0 0 0 0 0 0 0 0 0 0 0 0 0 0 0 0 0 0 0 0 0 0 0 0 0 0 0 0 0 0 0 0 0 0 0 0 0 0 0 0 0 0 0 0 0 0 0
				</DataArray>
				<DataArray Name="Pressure" type="Float32" format="ascii">