<?xml version="1.0"?>
<VTKFile type="PolyData">
	<PolyData>
		<Piece NumberOfPoints="1206" NumberOfPolys="1000">
			<Points>
				<DataArray type="Float32" NumberOfComponents="3" format="ascii">
 0 0 0 0.005 0 0 0.01 0 0 0.015 0 0 0.02 0 0 0.025 0 0 0.03 0 0 0.035 0 0 0.04 0 0 0.045 0 0 0.05 0 0 0.055 0 0 0.06 0 0 0.065 0 0 0.07 0 0 0.075 0 0 0.08 0 0 0.085 0 0 0.09 0 0 0.095 0 0 0.1 0 0 0.105 0 0 0.11 0 0 0.115 0 0 0.12 0 0 0.125 0 0 0.13 0 0 0.135 0 0 0.14 0 0 0.145 0 0 0.15 0 0 0.155 0 0 0.16 0 0 0.165 0 0 0.17 0 0 0.175 0 0 0.18 0 0 0.185 0 0 0.19 0 0 0.195 0 0 0.2 0 0 0.205 0 0 0.21 0 0 0.215 0 0 0.22 0 0 0.225 0 0 0.23 0 0 0.235 0 0 0.24 0 0 0.245 0 0 0.25 0 0 0.255 0 0 0.26 0 0 0.265 0 0 0.27 0 0 0.275 0 0 0.28 0 0 0.285 0 0 0.29 0 0 0.295 0 0 0.3 0 0 0.305 0 0 0.31 0 0 0.315 0 0 0.32 0 0 0.325 0 0 0.33 0 0 0.335 0 0 0.34 0 0 0.345 0 0 0.35 0 0 0.355 0 0 0.36 0 0 0.365 0 0 0.37 0 0 0.375 0 0 0.38 0 0 0.385 0 0 0.39 0 0 0.395 0 0 0.4 0 0 0.405 0 0 0.41 0 0 0.415 0 0 0.42 0 0 0.425 0 0 0.43 0 0 0.435 0 0 0.44 0 0 0.445 0 0 0.45 0 0 0.455 0 0 0.46 0 0 0.465 0 0 0.47 0 0 0.475 0 0 0.48 0 0 0.485 0 0 0.49 0 0 0.495 0 0 0.5 0 0 0.505 0 0 0.51 0 0 0.515 0 0 0.52 0 0 0.525 0 0 0.53 0 0 0.535 0 0 0.54 0 0 0.545 0 0 0.55 0 0 0.555 0 0 0.56 0 0 0.565 0 0 0.57 0 0 0.575 0 0 0.58 0 0 0.585 0 0 0.59 0 0 0.595 0 0 0.6 0 0 0.605 0 0 0.61 0 0 0.615 0 0 0.62 0 0 0.625 0 0 0.63 0 0 0.635 0 0 0.64 0 0 0.645 0 0 0.65 0 0 0.655 0 0 0.66 0 0 0.665 0 0 0.67 0 0 0.675 0 0 0.68 0 0 0.685 0 0 0.69 0 0 0.695 0 0 0.7 0 0 0.705 0 0 0.71 0 0 0.715 0 0 0.72 0 0 0.725 0 0 0.73 0 0 0.735 0 0 0.74 0 0 0.745 0 0 0.75 0 0 0.755 0 0 0.76 0 0 0.765 0 0 0.77 0 0 0.775 0 0 0.78 0 0 0.785 0 0 0.79 0 0 0.795 0 0 0.8 0 0 0.805 0 0 0.81 0 0 0.815 0 0 0.82 0 0 0.825 0 0 0.83 0 0 0.835 0 0 0.84 0 0 0.845 0 0 0.85 0 0 0.855 0 0 0.86 0 0 0.865 0 0 0.87 0 0 0.875 0 0 0.88 0 0 0.885 0 0 0.89 0 0 0.895 0 0 0.9 0 0 0.905 0 0 0.91 0 0 0.915 0 0 0.92 0 0 0.925 0 0 0.93 0 0 0.935 0 0 0.94 0 0 0.945 0 0 0.95 0 0 0.955 0 0 0.96 0 0 0.965 0 0 0.97 0 0 0.975 0 0 0.98 0 0 0.985 0 0 0.99 0 0 0.995 0 0 1 0 0 0 0.02 0 0.005 0.02 0 0.01 0.02 0 0.015 0.02 0 0.02 0.02 0 0.025 0.02 0 0.03 0.02 0 0.035 0.02 0 0.04 0.02 0 0.045 0.02 0 0.05 0.02 0 0.055 0.02 0 0.06 0.02 0 0.065 0.02 0 0.07 0.02 0 0.075 0.02 0 0.08 0.02 0 0.085 0.02 0 0.09 0.02 0 0.095 0.02 0 0.1 0.02 0 0.105 0.02 0 0.11 0.02 0 0.115 0.02 0 0.12 0.02 0 0.125 0.02 0 0.13 0.02 0 0.135 0.02 0 0.14 0.02 0 0.145 0.02 0 0.15 0.02 0 0.155 0.02 0 0.16 0.02 0 0.165 0.02 0 0.17 0.02 0 0.175 0.02 0 0.18 0.02 0 0.185 0.02 0 0.19 0.02 0 0.195 0.02 0 0.2 0.02 0 0.205 0.02 0 0.21 0.02 0 0.215 0.02 0 0.22 0.02 0 0.225 0.02 0 0.23 0.02 0 0.235 0.02 0 0.24 0.02 0 0.245 0.02 0 0.25 0.02 0 0.255 0.02 0 0.26 0.02 0 0.265 0.02 0 0.27 0.02 0 0.275 0.02 0 0.28 0.02 0 0.285 0.02 0 0.29 0.02 0 0.295 0.02 0 0.3 0.02 0 0.305 0.02 0 0.31 0.02 0 0.315 0.02 0 0.32 0.02 0 0.325 0.02 0 0.33 0.02 0 0.335 0.02 0 0.34 0.02 0 0.345 0.02 0 0.35 0.02 0 0.355 0.02 0 0.36 0.02 0 0.365 0.02 0 0.37 0.02 0 0.375 0.02 0 0.38 0.02 0 0.385 0.02 0 0.39 0.02 0 0.395 0.02 0 0.4 0.02 0 0.405 0.02 0 0.41 0.02 0 0.415 0.02 0 0.42 0.02 0 0.425 0.02 0 0.43 0.02 0 0.435 0.02 0 0.44 0.02 0 0.445 0.02 0 0.45 0.02 0 0.455 0.02 0 0.46 0.02 0 0.465 0.02 0 0.47 0.02 0 0.475 0.02 0 0.48 0.02 0 0.485 0.02 0 0.49 0.02 0 0.495 0.02 0 0.5 0.02 0 0.505 0.02 0 0.51 0.02 0 0.515 0.02 0 0.52 0.02 0 0.525 0.02 0 0.53 0.02 0 0.535 0.02 0 0.54 0.02 0 0.545 0.02 0 0.55 0.02 0 0.555 0.02 0 0.56 0.02 0 0.565 0.02 0 0.57 0.02 0 0.575 0.02 0 0.58 0.02 0 0.585 0.02 0 0.59 0.02 0 0.595 0.02 0 0.6 0.02 0 0.605 0.02 0 0.61 0.02 0 0.615 0.02 0 0.62 0.02 0 0.625 0.02 0 0.63 0.02 0 0.635 0.02 0 0.64 0.02 0 0.645 0.02 0 0.65 0.02 0 0.655 0.02 0 0.66 0.02 0 0.665 0.02 0 0.67 0.02 0 0.675 0.02 0 0.68 0.02 0 0.685 0.02 0 0.69 0.02 0 0.695 0.02 0 0.7 0.02 0 0.705 0.02 0 0.71 0.02 0 0.715 0.02 0 0.72 0.02 0 0.725 0.02 0 0.73 0.02 0 0.735 0.02 0 0.74 0.02 0 0.745 0.02 0 0.75 0.02 0 0.755 0.02 0 0.76 0.02 0 0.765 0.02 0 0.77 0.02 0 0.775 0.02 0 0.78 0.02 0 0.785 0.02 0 0.79 0.02 0 0.795 0.02 0 0.8 0.02 0 0.805 0.02 0 0.81 0.02 0 0.815 0.02 0 0.82 0.02 0 0.825 0.02 0 0.83 0.02 0 0.835 0.02 0 0.84 0.02 0 0.845 0.02 0 0.85 0.02 0 0.855 0.02 0 0.86 0.02 0 0.865 0.02 0 0.87 0.02 0 0.875 0.02 0 0.88 0.02 0 0.885 0.02 0 0.89 0.02 0 0.895 0.02 0 0.9 0.02 0 0.905 0.02 0 0.91 0.02 0 0.915 0.02 0 0.92 0.02 0 0.925 0.02 0 0.93 0.02 0 0.935 0.02 0 0.94 0.02 0 0.945 0.02 0 0.95 0.02 0 0.955 0.02 0 0.96 0.02 0 0.965 0.02 0 0.97 0.02 0 0.975 0.02 0 0.98 0.02 0 0.985 0.02 0 0.99 0.02 0 0.995 0.02 0 1 0.02 0 0 0.04 0 0.005 0.04 0 0.01 0.04 0 0.015 0.04 0 0.02 0.04 0 0.025 0.04 0 0.03 0.04 0 0.035 0.04 0 0.04 0.04 0 0.045 0.04 0 0.05 0.04 0 0.055 0.04 0 0.06 0.04 0 0.065 0.04 0 0.07 0.04 0 0.075 0.04 0 0.08 0.04 0 0.085 0.04 0 0.09 0.04 0 0.095 0.04 0 0.1 0.04 0 0.105 0.04 0 0.11 0.04 0 0.115 0.04 0 0.12 0.04 0 0.125 0.04 0 0.13 0.04 0 0.135 0.04 0 0.14 0.04 0 0.145 0.04 0 0.15 0.04 0 0.155 0.04 0 0.16 0.04 0 0.165 0.04 0 0.17 0.04 0 0.175 0.04 0 0.18 0.04 0 0.185 0.04 0 0.19 0.04 0 0.195 0.04 0 0.2 0.04 0 0.205 0.04 0 0.21 0.04 0 0.215 0.04 0 0.22 0.04 0 0.225 0.04 0 0.23 0.04 0 0.235 0.04 0 0.24 0.04 0 0.245 0.04 0 0.25 0.04 0 0.255 0.04 0 0.26 0.04 0 0.265 0.04 0 0.27 0.04 0 0.275 0.04 0 0.28 0.04 0 0.285 0.04 0 0.29 0.04 0 0.295 0.04 0 0.3 0.04 0 0.305 0.04 0 0.31 0.04 0 0.315 0.04 0 0.32 0.04 0 0.325 0.04 0 0.33 0.04 0 0.335 0.04 0 0.34 0.04 0 0.345 0.04 0 0.35 0.04 0 0.355 0.04 0 0.36 0.04 0 0.365 0.04 0 0.37 0.04 0 0.375 0.04 0 0.38 0.04 0 0.385 0.04 0 0.39 0.04 0 0.395 0.04 0 0.4 0.04 0 0.405 0.04 0 0.41 0.04 0 0.415 0.04 0 0.42 0.04 0 0.425 0.04 0 0.43 0.04 0 0.435 0.04 0 0.44 0.04 0 0.445 0.04 0 0.45 0.04 0 0.455 0.04 0 0.46 0.04 0 0.465 0.04 0 0.47 0.04 0 0.475 0.04 0 0.48 0.04 0 0.485 0.04 0 0.49 0.04 0 0.495 0.04 0 0.5 0.04 0 0.505 0.04 0 0.51 0.04 0 0.515 0.04 0 0.52 0.04 0 0.525 0.04 0 0.53 0.04 0 0.535 0.04 0 0.54 0.04 0 0.545 0.04 0 0.55 0.04 0 0.555 0.04 0 0.56 0.04 0 0.565 0.04 0 0.57 0.04 0 0.575 0.04 0 0.58 0.04 0 0.585 0.04 0 0.59 0.04 0 0.595 0.04 0 0.6 0.04 0 0.605 0.04 0 0.61 0.04 0 0.615 0.04 0 0.62 0.04 0 0.625 0.04 0 0.63 0.04 0 0.635 0.04 0 0.64 0.04 0 0.645 0.04 0 0.65 0.04 0 0.655 0.04 0 0.66 0.04 0 0.665 0.04 0 0.67 0.04 0 0.675 0.04 0 0.68 0.04 0 0.685 0.04 0 0.69 0.04 0 0.695 0.04 0 0.7 0.04 0 0.705 0.04 0 0.71 0.04 0 0.715 0.04 0 0.72 0.04 0 0.725 0.04 0 0.73 0.04 0 0.735 0.04 0 0.74 0.04 0 0.745 0.04 0 0.75 0.04 0 0.755 0.04 0 0.76 0.04 0 0.765 0.04 0 0.77 0.04 0 0.775 0.04 0 0.78 0.04 0 0.785 0.04 0 0.79 0.04 0 0.795 0.04 0 0.8 0.04 0 0.805 0.04 0 0.81 0.04 0 0.815 0.04 0 0.82 0.04 0 0.825 0.04 0 0.83 0.04 0 0.835 0.04 0 0.84 0.04 0 0.845 0.04 0 0.85 0.04 0 0.855 0.04 0 0.86 0.04 0 0.865 0.04 0 0.87 0.04 0 0.875 0.04 0 0.88 0.04 0 0.885 0.04 0 0.89 0.04 0 0.895 0.04 0 0.9 0.04 0 0.905 0.04 0 0.91 0.04 0 0.915 0.04 0 0.92 0.04 0 0.925 0.04 0 0.93 0.04 0 0.935 0.04 0 0.94 0.04 0 0.945 0.04 0 0.95 0.04 0 0.955 0.04 0 0.96 0.04 0 0.965 0.04 0 0.97 0.04 0 0.975 0.04 0 0.98 0.04 0 0.985 0.04 0 0.99 0.04 0 0.995 0.04 0 1 0.04 0 0 0.06 0 0.005 0.06 0 0.01 0.06 0 0.015 0.06 0 0.02 0.06 0 0.025 0.06 0 0.03 0.06 0 0.035 0.06 0 0.04 0.06 0 0.045 0.06 0 0.05 0.06 0 0.055 0.06 0 0.06 0.06 0 0.065 0.06 0 0.07 0.06 0 0.075 0.06 0 0.08 0.06 0 0.085 0.06 0 0.09 0.06 0 0.095 0.06 0 0.1 0.06 0 0.105 0.06 0 0.11 0.06 0 0.115 0.06 0 0.12 0.06 0 0.125 0.06 0 0.13 0.06 0 0.135 0.06 0 0.14 0.06 0 0.145 0.06 0 0.15 0.06 0 0.155 0.06 0 0.16 0.06 0 0.165 0.06 0 0.17 0.06 0 0.175 0.06 0 0.18 0.06 0 0.185 0.06 0 0.19 0.06 0 0.195 0.06 0 0.2 0.06 0 0.205 0.06 0 0.21 0.06 0 0.215 0.06 0 0.22 0.06 0 0.225 0.06 0 0.23 0.06 0 0.235 0.06 0 0.24 0.06 0 0.245 0.06 0 0.25 0.06 0 0.255 0.06 0 0.26 0.06 0 0.265 0.06 0 0.27 0.06 0 0.275 0.06 0 0.28 0.06 0 0.285 0.06 0 0.29 0.06 0 0.295 0.06 0 0.3 0.06 0 0.305 0.06 0 0.31 0.06 0 0.315 0.06 0 0.32 0.06 0 0.325 0.06 0 0.33 0.06 0 0.335 0.06 0 0.34 0.06 0 0.345 0.06 0 0.35 0.06 0 0.355 0.06 0 0.36 0.06 0 0.365 0.06 0 0.37 0.06 0 0.375 0.06 0 0.38 0.06 0 0.385 0.06 0 0.39 0.06 0 0.395 0.06 0 0.4 0.06 0 0.405 0.06 0 0.41 0.06 0 0.415 0.06 0 0.42 0.06 0 0.425 0.06 0 0.43 0.06 0 0.435 0.06 0 0.44 0.06 0 0.445 0.06 0 0.45 0.06 0 0.455 0.06 0 0.46 0.06 0 0.465 0.06 0 0.47 0.06 0 0.475 0.06 0 0.48 0.06 0 0.485 0.06 0 0.49 0.06 0 0.495 0.06 0 0.5 0.06 0 0.505 0.06 0 0.51 0.06 0 0.515 0.06 0 0.52 0.06 0 0.525 0.06 0 0.53 0.06 0 0.535 0.06 0 0.54 0.06 0 0.545 0.06 0 0.55 0.06 0 0.555 0.06 0 0.56 0.06 0 0.565 0.06 0 0.57 0.06 0 0.575 0.06 0 0.58 0.06 0 0.585 0.06 0 0.59 0.06 0 0.595 0.06 0 0.6 0.06 0 0.605 0.06 0 0.61 0.06 0 0.615 0.06 0 0.62 0.06 0 0.625 0.06 0 0.63 0.06 0 0.635 0.06 0 0.64 0.06 0 0.645 0.06 0 0.65 0.06 0 0.655 0.06 0 0.66 0.06 0 0.665 0.06 0 0.67 0.06 0 0.675 0.06 0 0.68 0.06 0 0.685 0.06 0 0.69 0.06 0 0.695 0.06 0 0.7 0.06 0 0.705 0.06 0 0.71 0.06 0 0.715 0.06 0 0.72 0.06 0 0.725 0.06 0 0.73 0.06 0 0.735 0.06 0 0.74 0.06 0 0.745 0.06 0 0.75 0.06 0 0.755 0.06 0 0.76 0.06 0 0.765 0.06 0 0.77 0.06 0 0.775 0.06 0 0.78 0.06 0 0.785 0.06 0 0.79 0.06 0 0.795 0.06 0 0.8 0.06 0 0.805 0.06 0 0.81 0.06 0 0.815 0.06 0 0.82 0.06 0 0.825 0.06 0 0.83 0.06 0 0.835 0.06 0 0.84 0.06 0 0.845 0.06 0 0.85 0.06 0 0.855 0.06 0 0.86 0.06 0 0.865 0.06 0 0.87 0.06 0 0.875 0.06 0 0.88 0.06 0 0.885 0.06 0 0.89 0.06 0 0.895 0.06 0 0.9 0.06 0 0.905 0.06 0 0.91 0.06 0 0.915 0.06 0 0.92 0.06 0 0.925 0.06 0 0.93 0.06 0 0.935 0.06 0 0.94 0.06 0 0.945 0.06 0 0.95 0.06 0 0.955 0.06 0 0.96 0.06 0 0.965 0.06 0 0.97 0.06 0 0.975 0.06 0 0.98 0.06 0 0.985 0.06 0 0.99 0.06 0 0.995 0.06 0 1 0.06 0 0 0.08 0 0.005 0.08 0 0.01 0.08 0 0.015 0.08 0 0.02 0.08 0 0.025 0.08 0 0.03 0.08 0 0.035 0.08 0 0.04 0.08 0 0.045 0.08 0 0.05 0.08 0 0.055 0.08 0 0.06 0.08 0 0.065 0.08 0 0.07 0.08 0 0.075 0.08 0 0.08 0.08 0 0.085 0.08 0 0.09 0.08 0 0.095 0.08 0 0.1 0.08 0 0.105 0.08 0 0.11 0.08 0 0.115 0.08 0 0.12 0.08 0 0.125 0.08 0 0.13 0.08 0 0.135 0.08 0 0.14 0.08 0 0.145 0.08 0 0.15 0.08 0 0.155 0.08 0 0.16 0.08 0 0.165 0.08 0
[...]
			<PointData Scalars="VitesseX">
				<DataArray Name="VitesseX" type="Float32" format="ascii">
 0 -1.29803e-14 -1.30078e-14 -2.80036e-14 -2.24624e-14 -1.51949e-14 -4.5798e-14 -1.36522e-14 -6.90658e-14 -5.89502e-14 -9.62677e-14 -5.00395e-15 -7.35201e-14 1.11185e-14 -5.88833e-14 2.40842e-14 7.39703e-15 -4.64633e-14 7.57122e-14 -3.67505e-14 -5.0667e-14 3.07934e-14 -4.24764e-14 2.79253e-14 -7.7078e-14 -1.84502e-13 7.0666e-14 -2.05485e-13 -1.84552e-14 -5.94548e-14 2.13076e-14 5.6705e-14 2.80815e-15 1.50274e-14 1.69754e-13 3.45244e-13 1.87145e-12 1.10962e-11 6.17485e-11 3.30393e-10 1.69006e-09 8.21639e-09 3.79025e-08 1.65506e-07 6.82331e-07 2.64818e-06 9.64312e-06 3.28188e-05 0.000103919 0.000304528 0.000820841 0.00202143 0.00451778 0.00911629 0.0165826 0.0272988 0.0410801 0.0573201 0.0753101 0.0944638 0.114377 0.134801 0.155581 0.1766 0.197791 0.219111 0.240536 0.262047 0.283632 0.305284 0.326999 0.348776 0.370617 0.392525 0.414503 0.436542 0.458444 0.480221 0.501885 0.523434 0.544858 0.566226 0.587426 0.60862 0.629578 0.650493 0.67118 0.691796 0.71232 0.732643 0.752983 0.773051 0.792931 0.812665 0.831683 0.850365 0.867953 0.883921 0.898416 0.910043 0.91893 0.92543 0.929005 0.930917 0.931789 0.931864 0.931813 0.9317 0.931519 0.931269 0.93096 0.930612 0.930254 0.929919 0.929621 0.929357 0.929128 0.928933 0.928769 0.928632 0.928517 0.928422 0.92835 0.928279 0.928209 0.928151 0.928104 0.928064 0.928029 0.927997 0.927968 0.927942 0.927918 0.927897 0.927877 0.927859 0.927842 0.927827 0.927813 0.927799 0.927786 0.927774 0.927762 0.927751 0.927739 0.927729 0.927718 0.927708 0.927698 0.92769 0.927682 0.927673 0.927661 0.927643 0.927613 0.927551 0.927423 0.927157 0.92661 0.9255 0.923275 0.91888 0.910363 0.894317 0.865366 0.81632 0.739973 0.633124 0.501817 0.362117 0.234093 0.133244 0.066276 0.0292995 0.0119614 0.00468188 0.00179804 0.0006849 0.000259915 9.84302e-05 3.72177e-05 1.40518e-05 5.29701e-06 1.9933e-06 7.48614e-07 2.80532e-07 1.04865e-07 3.90911e-08 1.45276e-08 5.38088e-09 1.98512e-09 7.29935e-10 2.66914e-10 9.7183e-11 3.51828e-11 1.28777e-11 4.72228e-12 1.35636e-12 7.3363e-13 1.87439e-13 0 0 -2.0713e-15 -1.64859e-14 -1.15688e-14 -2.73708e-14 -4.74509e-14 -1.90049e-14 -7.85974e-14 -3.78371e-14 -5.02417e-14 -3.9826e-14 -9.82817e-14 1.49986e-14 -6.94795e-14 1.96449e-14 -1.87402e-14 1.56623e-14 4.30905e-14 -5.6082e-14 4.67409e-14 -2.15969e-14 -3.59797e-14 2.25882e-15 -1.1641e-13 -2.91799e-14 3.78944e-14 -1.81333e-13 1.52523e-14 -3.55078e-14 -3.02353e-14 -6.00949e-14 -3.18296e-14 4.02249e-14 6.24573e-14 1.24827e-13 3.85103e-13 1.99315e-12 1.10335e-11 6.14984e-11 3.30683e-10 1.68985e-09 8.21639e-09 3.79026e-08 1.65506e-07 6.82331e-07 2.64818e-06 9.64312e-06 3.28188e-05 0.000103919 0.000304528 0.000820841 0.00202143 0.00451778 0.00911629 0.0165826 0.0272988 0.0410801 0.0573201 0.0753101 0.0944638 0.114377 0.134801 0.155581 0.1766 0.197791 0.219111 0.240536 0.262047 0.283632 0.305284 0.326999 0.348776 0.370617 0.392525 0.414503 0.436542 0.458444 0.480221 0.501885 0.523434 0.544858 0.566226 0.587426 0.60862 0.629578 0.650493 0.67118 0.691796 0.71232 0.732643 0.752983 0.773051 0.792931 0.812665 0.831683 0.850365 0.867953 0.883921 0.898416 0.910043 0.91893 0.92543 0.929005 0.930917 0.931789 0.931864 0.931813 0.9317 0.931519 0.931269 0.93096 0.930612 0.930254 0.929919 0.929621 0.929357 0.929128 0.928933 0.928769 0.928632 0.928517 0.928422 0.92835 0.928279 0.928209 0.928151 0.928104 0.928064 0.928029 0.927997 0.927968 0.927942 0.927918 0.927897 0.927877 0.927859 0.927842 0.927827 0.927813 0.927799 0.927786 0.927774 0.927762 0.927751 0.927739 0.927729 0.927718 0.927708 0.927698 0.92769 0.927682 0.927673 0.927661 0.927643 0.927613 0.927551 0.927423 0.927157 0.92661 0.9255 0.923275 0.91888 0.910363 0.894317 0.865366 0.81632 0.739973 0.633124 0.501817 0.362117 0.234093 0.133244 0.066276 0.0292995 0.0119614 0.00468188 0.00179804 0.0006849 0.000259915 9.84302e-05 3.72177e-05 1.40518e-05 5.29701e-06 1.9933e-06 7.48614e-07 2.80532e-07 1.04865e-07 3.90909e-08 1.45277e-08 5.38062e-09 1.98576e-09 7.29581e-10 2.66832e-10 9.71764e-11 3.52398e-11 1.25481e-11 4.55676e-12 1.56878e-12 3.4161e-13 7.90645e-14 0 0 -5.73614e-15 -1.12994e-14 -2.84529e-14 -3.19435e-14 -2.39309e-14 -2.55258e-14 -3.8717e-14 -6.73735e-14 -6.29305e-14 -4.99195e-14 -2.75458e-14 -4.17654e-14 -2.75462e-14 -3.37164e-14 7.42529e-16 2.15033e-14 -3.03e-14 7.08862e-14 -3.10538e-14 -6.36729e-16 -8.03113e-14 -5.79755e-14 -8.93504e-14 -3.32918e-15 -8.13013e-15 -1.37055e-14 2.61997e-14 -8.22182e-14 -7.12744e-14 6.25508e-14 -5.94373e-14 3.69021e-14 -5.26605e-15 7.51731e-14 4.59767e-13 2.0612e-12 1.09606e-11 6.15537e-11 3.30417e-10 1.68987e-09 8.21642e-09 3.79026e-08 1.65506e-07 6.82331e-07 2.64818e-06 9.64312e-06 3.28188e-05 0.000103919 0.000304528 0.000820841 0.00202143 0.00451778 0.00911629 0.0165826 0.0272988 0.0410801 0.0573201 0.0753101 0.0944638 0.114377 0.134801 0.155581 0.1766 0.197791 0.219111 0.240536 0.262047 0.283632 0.305284 0.326999 0.348776 0.370617 0.392525 0.414503 0.436542 0.458444 0.480221 0.501885 0.523434 0.544858 0.566226 0.587426 0.60862 0.629578 0.650493 0.67118 0.691796 0.71232 0.732643 0.752983 0.773051 0.792931 0.812665 0.831683 0.850365 0.867953 0.883921 0.898416 0.910043 0.91893 0.92543 0.929005 0.930917 0.931789 0.931864 0.931813 0.9317 0.931519 0.931269 0.93096 0.930612 0.930254 0.929919 0.929621 0.929357 0.929128 0.928933 0.928769 0.928632 0.928517 0.928422 0.92835 0.928279 0.928209 0.928151 0.928104 0.928064 0.928029 0.927997 0.927968 0.927942 0.927918 0.927897 0.927877 0.927859 0.927842 0.927827 0.927813 0.927799 0.927786 0.927774 0.927762 0.927751 0.927739 0.927729 0.927718 0.927708 0.927698 0.92769 0.927682 0.927673 0.927661 0.927643 0.927613 0.927551 0.927423 0.927157 0.92661 0.9255 0.923275 0.91888 0.910363 0.894317 0.865366 0.81632 0.739973 0.633124 0.501817 0.362117 0.234093 0.133244 0.066276 0.0292995 0.0119614 0.00468188 0.00179804 0.0006849 0.000259915 9.84302e-05 3.72177e-05 1.40518e-05 5.29701e-06 1.9933e-06 7.48614e-07 2.80532e-07 1.04865e-07 3.90911e-08 1.45275e-08 5.38077e-09 1.9855e-09 7.29692e-10 2.66884e-10 9.70449e-11 3.49033e-11 1.26674e-11 4.15079e-12 1.49764e-12 6.83323e-13 2.76122e-13 0 0 -9.26338e-15 -1.88093e-14 -2.02174e-14 -4.30324e-14 2.25425e-15 -3.96455e-14 -1.73105e-14 -7.47851e-14 -3.16845e-14 -5.7391e-14 -3.52276e-14 -1.82585e-14 -4.31214e-15 -7.71431e-14 -3.09988e-14 -2.94632e-14 1.42431e-14 4.51935e-14 -3.4604e-14 -8.38694e-14 -2.27381e-14 -4.55586e-14 -6.5503e-14 -1.03705e-13 -6.30832e-14 1.16869e-13 -4.46818e-14 -7.78306e-14 -1.45021e-15 -4.11636e-14 1.80322e-13 -4.38958e-15 -4.96349e-15 1.40615e-13 4.02627e-13 1.90634e-12 1.09668e-11 6.16998e-11 3.30372e-10 1.68997e-09 8.21627e-09 3.79026e-08 1.65506e-07 6.82331e-07 2.64818e-06 9.64312e-06 3.28188e-05 0.000103919 0.000304528 0.000820841 0.00202143 0.00451778 0.00911629 0.0165826 0.0272988 0.0410801 0.0573201 0.0753101 0.0944638 0.114377 0.134801 0.155581 0.1766 0.197791 0.219111 0.240536 0.262047 0.283632 0.305284 0.326999 0.348776 0.370617 0.392525 0.414503 0.436542 0.458444 0.480221 0.501885 0.523434 0.544858 0.566226 0.587426 0.60862 0.629578 0.650493 0.67118 0.691796 0.71232 0.732643 0.752983 0.773051 0.792931 0.812665 0.831683 0.850365 0.867953 0.883921 0.898416 0.910043 0.91893 0.92543 0.929005 0.930917 0.931789 0.931864 0.931813 0.9317 0.931519 0.931269 0.93096 0.930612 0.930254 0.929919 0.929621 0.929357 0.929128 0.928933 0.928769 0.928632 0.928517 0.928422 0.92835 0.928279 0.928209 0.928151 0.928104 0.928064 0.928029 0.927997 0.927968 0.927942 0.927918 0.927897 0.927877 0.927859 0.927842 0.927827 0.927813 0.927799 0.927786 0.927774 0.927762 0.927751 0.927739 0.927729 0.927718 0.927708 0.927698 0.92769 0.927682 0.927673 0.927661 0.927643 0.927613 0.927551 0.927423 0.927157 0.92661 0.9255 0.923275 0.91888 0.910363 0.894317 0.865366 0.81632 0.739973 0.633124 0.501817 0.362117 0.234093 0.133244 0.066276 0.0292995 0.0119614 0.00468188 0.00179804 0.0006849 0.000259915 9.84302e-05 3.72177e-05 1.40518e-05 5.29701e-06 1.9933e-06 7.48614e-07 2.80532e-07 1.04865e-07 3.90911e-08 1.45275e-08 5.38092e-09 1.98528e-09 7.29923e-10 2.67164e-10 9.71525e-11 3.49417e-11 1.25612e-11 4.70721e-12 1.62225e-12 1.71684e-13 -2.20971e-14 0 0 -6.37005e-15 -1.12803e-14 4.91304e-15 -1.61918e-14 -3.95282e-14 -2.10626e-14 -7.86155e-14 -1.85752e-14 -1.9052e-14 -3.64358e-14 -1.12473e-13 9.52276e-15 -7.05078e-14 -5.99868e-15 -2.20261e-14 -2.20891e-14 8.60021e-14 -6.35679e-14 -5.53311e-15 -8.87588e-14 -1.61879e-14 2.01346e-14 -9.35515e-14 -8.61784e-14 2.90345e-14 -1.28346e-13 -5.37345e-14 -5.6529e-14 -1.01503e-14 -6.63014e-14 8.93536e-14 6.60051e-14 1.44729e-13 2.03744e-13 3.73308e-13 1.96963e-12 1.09587e-11 6.15382e-11 3.30632e-10 1.68985e-09 8.21625e-09 3.79026e-08 1.65505e-07 6.82331e-07 2.64818e-06 9.64312e-06 3.28188e-05 0.000103919 0.000304528 0.000820841 0.00202143 0.00451778 0.00911629 0.0165826 0.0272988 0.0410801 0.0573201 0.0753101 0.0944638 0.114377 0.134801 0.155581 0.1766 0.197791 0.219111 0.240536 0.262047 0.283632 0.305284 0.326999 0.348776 0.370617 0.392525 0.414503 0.436542 0.458444 0.480221 0.501885 0.523434 0.544858 0.566226 0.587426 0.60862 0.629578 0.650493 0.67118 0.691796 0.71232 0.732643 0.752983 0.773051 0.792931 0.812665 0.831683 0.850365 0.867953 0.883921 0.898416 0.910043 0.91893 0.92543 0.929005 0.930917 0.931789 0.931864 0.931813 0.9317 0.931519 0.931269 0.93096 0.930612 0.930254 0.929919 0.929621 0.929357 0.929128 0.928933 0.928769 0.928632 0.928517 0.928422 0.92835 0.928279 0.928209 0.928151 0.928104 0.928064 0.928029 0.927997 0.927968 0.927942 0.927918 0.927897 0.927877 0.927859 0.927842 0.927827 0.927813 0.927799 0.927786 0.927774 0.927762 0.927751 0.927739 0.927729 0.927718 0.927708 0.927698 0.92769 0.927682 0.927673 0.927661 0.927643 0.927613 0.927551 0.927423 0.927157 0.92661 0.9255 0.923275 0.91888 0.910363 0.894317 0.865366 0.81632 0.739973 0.633124 0.501817 0.362117 0.234093 0.133244 0.066276 0.0292995 0.0119614 0.00468188 0.00179804 0.0006849 0.000259915 9.84302e-05 3.72177e-05 1.40518e-05 5.29701e-06 1.9933e-06 7.48615e-07 2.80532e-07 1.04864e-07 3.9091e-08 1.4528e-08 5.38053e-09 1.9858e-09 7.29605e-10 2.6715e-10 9.73819e-11 3.52541e-11 1.25961e-11 4.52748e-12 1.88048e-12 -1.663e-13 -1.73498e-13 0 0 -1.45233e-14 1.24234e-14 -1.1511e-14 2.20734e-14 -5.17198e-14 -2.1674e-14 -5.65013e-14 -1.57189e-14 -5.90628e-14 -7.45442e-14 -1.80228e-14 -1.31486e-13 -3.74061e-14 -2.33172e-14 8.0995e-14 3.38272e-14 -4.97261e-14 1.12126e-13 -1.34198e-13 -1.85254e-14 -4.47696e-14 -3.15587e-14 2.59478e-14 9.67605e-15 -9.23163e-14 -8.45085e-14 -2.01695e-13 -6.92729e-14 -1.58933e-13 2.16323e-13 -1.80448e-13 1.36952e-13 1.78966e-13 1.96704e-13 4.35934e-13 2.13411e-12 1.09342e-11 6.15358e-11 3.3038e-10 1.68987e-09 8.2164e-09 3.79025e-08 1.65506e-07 6.82331e-07 2.64818e-06 9.64312e-06 3.28188e-05 0.000103919 0.000304528 0.000820841 0.00202143 0.00451778 0.00911629 0.0165826 0.0272988 0.0410801 0.0573201 0.0753101 0.0944638 0.114377 0.134801 0.155581 0.1766 0.197791 0.219111 0.240536 0.262047 0.283632 0.305284 0.326999 0.348776 0.370617 0.392525 0.414503 0.436542 0.458444 0.480221 0.501885 0.523434 0.544858 0.566226 0.587426 0.60862 0.629578 0.650493 0.67118 0.691796 0.71232 0.732643 0.752983 0.773051 0.792931 0.812665 0.831683 0.850365 0.867953 0.883921 0.898416 0.910043 0.91893 0.92543 0.929005 0.930917 0.931789 0.931864 0.931813 0.9317 0.931519 0.931269 0.93096 0.930612 0.930254 0.929919 0.929621 0.929357 0.929128 0.928933 0.928769 0.928632 0.928517 0.928422 0.92835 0.928279 0.928209 0.928151 0.928104 0.928064 0.928029 0.927997 0.927968 0.927942 0.927918 0.927897 0.927877 0.927859 0.927842 0.927827 0.927813 0.927799 0.927786 0.927774 0.927762 0.927751 0.927739 0.927729 0.927718 0.927708 0.927698 0.92769 0.927682 0.927673 0.927661 0.927643 0.927613 0.927551 0.927423 0.927157 0.92661 0.9255 0.923275 0.91888 0.910363 0.894317 0.865366 0.81632 0.739973 0.633124 0.501817 0.362117 0.234093 0.133244 0.066276 0.0292995 0.0119614 0.00468188 0.00179804 0.0006849 0.000259915 9.84302e-05 3.72177e-05 1.40518e-05 5.29701e-06 1.9933e-06 7.48614e-07 2.80532e-07 1.04865e-07 3.90911e-08 1.45281e-08 5.38042e-09 1.98564e-09 7.29521e-10 2.6699e-10 9.73787e-11 3.51346e-11 1.31863e-11 3.55089e-12 1.73053e-12 7.41088e-13 2.78751e-13 0
				</DataArray>
				<DataArray Name="VitesseY" type="Float32" format="ascii">