<?xml version="1.0"?>
<VTKFile type="PolyData">
	<PolyData>
		<Piece NumberOfPoints="1206" NumberOfPolys="1000">
			<Points>
				<DataArray type="Float32" NumberOfComponents="3" format="ascii">
 0 0 0 0.005 0 0 0.01 0 0 0.015 0 0 0.02 0 0 0.025 0 0 0.03 0 0 0.035 0 0 0.04 0 0 0.045 0 0 0.05 0 0 0.055 0 0 0.06 0 0 0.065 0 0 0.07 0 0 0.075 0 0 0.08 0 0 0.085 0 0 0.09 0 0 0.095 0 0 0.1 0 0 0.105 0 0 0.11 0 0 0.115 0 0 0.12 0 0 0.125 0 0 0.13 0 0 0.135 0 0 0.14 0 0 0.145 0 0 0.15 0 0 0.155 0 0 0.16 0 0 0.165 0 0 0.17 0 0 0.175 0 0 0.18 0 0 0.185 0 0 0.19 0 0 0.195 0 0 0.2 0 0 0.205 0 0 0.21 0 0 0.215 0 0 0.22 0 0 0.225 0 0 0.23 0 0 0.235 0 0 0.24 0 0 0.245 0 0 0.25 0 0 0.255 0 0 0.26 0 0 0.265 0 0 0.27 0 0 0.275 0 0 0.28 0 0 0.285 0 0 0.29 0 0 0.295 0 0 0.3 0 0 0.305 0 0 0.31 0 0 0.315 0 0 0.32 0 0 0.325 0 0 0.33 0 0 0.335 0 0 0.34 0 0 0.345 0 0 0.35 0 0 0.355 0 0 0.36 0 0 0.365 0 0 0.37 0 0 0.375 0 0 0.38 0 0 0.385 0 0 0.39 0 0 0.395 0 0 0.4 0 0 0.405 0 0 0.41 0 0 0.415 0 0 0.42 0 0 0.425 0 0 0.43 0 0 0.435 0 0 0.44 0 0 0.445 0 0 0.45 0 0 0.455 0 0 0.46 0 0 0.465 0 0 0.47 0 0 0.475 0 0 0.48 0 0 0.485 0 0 0.49 0 0 0.495 0 0 0.5 0 0 0.505 0 0 0.51 0 0 0.515 0 0 0.52 0 0 0.525 0 0 0.53 0 0 0.535 0 0 0.54 0 0 0.545 0 0 0.55 0 0 0.555 0 0 0.56 0 0 0.565 0 0 0.57 0 0 0.575 0 0 0.58 0 0 0.585 0 0 0.59 0 0 0.595 0 0 0.6 0 0 0.605 0 0 0.61 0 0 0.615 0 0 0.62 0 0 0.625 0 0 0.63 0 0 0.635 0 0 0.64 0 0 0.645 0 0 0.65 0 0 0.655 0 0 0.66 0 0 0.665 0 0 0.67 0 0 0.675 0 0 0.68 0 0 0.685 0 0 0.69 0 0 0.695 0 0 0.7 0 0 0.705 0 0 0.71 0 0 0.715 0 0 0.72 0 0 0.725 0 0 0.73 0 0 0.735 0 0 0.74 0 0 0.745 0 0 0.75 0 0 0.755 0 0 0.76 0 0 0.765 0 0 0.77 0 0 0.775 0 0 0.78 0 0 0.785 0 0 0.79 0 0 0.795 0 0 0.8 0 0 0.805 0 0 0.81 0 0 0.815 0 0 0.82 0 0 0.825 0 0 0.83 0 0 0.835 0 0 0.84 0 0 0.845 0 0 0.85 0 0 0.855 0 0 0.86 0 0 0.865 0 0 0.87 0 0 0.875 0 0 0.88 0 0 0.885 0 0 0.89 0 0 0.895 0 0 0.9 0 0 0.905 0 0 0.91 0 0 0.915 0 0 0.92 0 0 0.925 0 0 0.93 0 0 0.935 0 0 0.94 0 0 0.945 0 0 0.95 0 0 0.955 0 0 0.96 0 0 0.965 0 0 0.97 0 0 0.975 0 0 0.98 0 0 0.985 0 0 0.99 0 0 0.995 0 0 1 0 0 0 0.02 0 0.005 0.02 0 0.01 0.02 0 0.015 0.02 0 0.02 0.02 0 0.025 0.02 0 0.03 0.02 0 0.035 0.02 0 0.04 0.02 0 0.045 0.02 0 0.05 0.02 0 0.055 0.02 0 0.06 0.02 0 0.065 0.02 0 0.07 0.02 0 0.075 0.02 0 0.08 0.02 0 0.085 0.02 0 0.09 0.02 0 0.095 0.02 0 0.1 0.02 0 0.105 0.02 0 0.11 0.02 0 0.115 0.02 0 0.12 0.02 0 0.125 0.02 0 0.13 0.02 0 0.135 0.02 0 0.14 0.02 0 0.145 0.02 0 0.15 0.02 0 0.155 0.02 0 0.16 0.02 0 0.165 0.02 0 0.17 0.02 0 0.175 0.02 0 0.18 0.02 0 0.185 0.02 0 0.19 0.02 0 0.195 0.02 0 0.2 0.02 0 0.205 0.02 0 0.21 0.02 0 0.215 0.02 0 0.22 0.02 0 0.225 0.02 0 0.23 0.02 0 0.235 0.02 0 0.24 0.02 0 0.245 0.02 0 0.25 0.02 0 0.255 0.02 0 0.26 0.02 0 0.265 0.02 0 0.27 0.02 0 0.275 0.02 0 0.28 0.02 0 0.285 0.02 0 0.29 0.02 0 0.295 0.02 0 0.3 0.02 0 0.305 0.02 0 0.31 0.02 0 0.315 0.02 0 0.32 0.02 0 0.325 0.02 0 0.33 0.02 0 0.335 0.02 0 0.34 0.02 0 0.345 0.02 0 0.35 0.02 0 0.355 0.02 0 0.36 0.02 0 0.365 0.02 0 0.37 0.02 0 0.375 0.02 0 0.38 0.02 0 0.385 0.02 0 0.39 0.02 0 0.395 0.02 0 0.4 0.02 0 0.405 0.02 0 0.41 0.02 0 0.415 0.02 0 0.42 0.02 0 0.425 0.02 0 0.43 0.02 0 0.435 0.02 0 0.44 0.02 0 0.445 0.02 0 0.45 0.02 0 0.455 0.02 0 0.46 0.02 0 0.465 0.02 0 0.47 0.02 0 0.475 0.02 0 0.48 0.02 0 0.485 0.02 0 0.49 0.02 0 0.495 0.02 0 0.5 0.02 0 0.505 0.02 0 0.51 0.02 0 0.515 0.02 0 0.52 0.02 0 0.525 0.02 0 0.53 0.02 0 0.535 0.02 0 0.54 0.02 0 0.545 0.02 0 0.55 0.02 0 0.555 0.02 0 0.56 0.02 0 0.565 0.02 0 0.57 0.02 0 0.575 0.02 0 0.58 0.02 0 0.585 0.02 0 0.59 0.02 0 0.595 0.02 0 0.6 0.02 0 0.605 0.02 0 0.61 0.02 0 0.615 0.02 0 0.62 0.02 0 0.625 0.02 0 0.63 0.02 0 0.635 0.02 0 0.64 0.02 0 0.645 0.02 0 0.65 0.02 0 0.655 0.02 0 0.66 0.02 0 0.665 0.02 0 0.67 0.02 0 0.675 0.02 0 0.68 0.02 0 0.685 0.02 0 0.69 0.02 0 0.695 0.02 0 0.7 0.02 0 0.705 0.02 0 0.71 0.02 0 0.715 0.02 0 0.72 0.02 0 0.725 0.02 0 0.73 0.02 0 0.735 0.02 0 0.74 0.02 0 0.745 0.02 0 0.75 0.02 0 0.755 0.02 0 0.76 0.02 0 0.765 0.02 0 0.77 0.02 0 0.775 0.02 0 0.78 0.02 0 0.785 0.02 0 0.79 0.02 0 0.795 0.02 0 0.8 0.02 0 0.805 0.02 0 0.81 0.02 0 0.815 0.02 0 0.82 0.02 0 0.825 0.02 0 0.83 0.02 0 0.835 0.02 0 0.84 0.02 0 0.845 0.02 0 0.85 0.02 0 0.855 0.02 0 0.86 0.02 0 0.865 0.02 0 0.87 0.02 0 0.875 0.02 0 0.88 0.02 0 0.885 0.02 0 0.89 0.02 0 0.895 0.02 0 0.9 0.02 0 0.905 0.02 0 0.91 0.02 0 0.915 0.02 0 0.92 0.02 0 0.925 0.02 0 0.93 0.02 0 0.935 0.02 0 0.94 0.02 0 0.945 0.02 0 0.95 0.02 0 0.955 0.02 0 0.96 0.02 0 0.965 0.02 0 0.97 0.02 0 0.975 0.02 0 0.98 0.02 0 0.985 0.02 0 0.99 0.02 0 0.995 0.02 0 1 0.02 0 0 0.04 0 0.005 0.04 0 0.01 0.04 0 0.015 0.04 0 0.02 0.04 0 0.025 0.04 0 0.03 0.04 0 0.035 0.04 0 0.04 0.04 0 0.045 0.04 0 0.05 0.04 0 0.055 0.04 0 0.06 0.04 0 0.065 0.04 0 0.07 0.04 0 0.075 0.04 0 0.08 0.04 0 0.085 0.04 0 0.09 0.04 0 0.095 0.04 0 0.1 0.04 0 0.105 0.04 0 0.11 0.04 0 0.115 0.04 0 0.12 0.04 0 0.125 0.04 0 0.13 0.04 0 0.135 0.04 0 0.14 0.04 0 0.145 0.04 0 0.15 0.04 0 0.155 0.04 0 0.16 0.04 0 0.165 0.04 0 0.17 0.04 0 0.175 0.04 0 0.18 0.04 0 0.185 0.04 0 0.19 0.04 0 0.195 0.04 0 0.2 0.04 0 0.205 0.04 0 0.21 0.04 0 0.215 0.04 0 0.22 0.04 0 0.225 0.04 0 0.23 0.04 0 0.235 0.04 0 0.24 0.04 0 0.245 0.04 0 0.25 0.04 0 0.255 0.04 0 0.26 0.04 0 0.265 0.04 0 0.27 0.04 0 0.275 0.04 0 0.28 0.04 0 0.285 0.04 0 0.29 0.04 0 0.295 0.04 0 0.3 0.04 0 0.305 0.04 0 0.31 0.04 0 0.315 0.04 0 0.32 0.04 0 0.325 0.04 0 0.33 0.04 0 0.335 0.04 0 0.34 0.04 0 0.345 0.04 0 0.35 0.04 0 0.355 0.04 0 0.36 0.04 0 0.365 0.04 0 0.37 0.04 0 0.375 0.04 0 0.38 0.04 0 0.385 0.04 0 0.39 0.04 0 0.395 0.04 0 0.4 0.04 0 0.405 0.04 0 0.41 0.04 0 0.415 0.04 0 0.42 0.04 0 0.425 0.04 0 0.43 0.04 0 0.435 0.04 0 0.44 0.04 0 0.445 0.04 0 0.45 0.04 0 0.455 0.04 0 0.46 0.04 0 0.465 0.04 0 0.47 0.04 0 0.475 0.04 0 0.48 0.04 0 0.485 0.04 0 0.49 0.04 0 0.495 0.04 0 0.5 0.04 0 0.505 0.04 0 0.51 0.04 0 0.515 0.04 0 0.52 0.04 0 0.525 0.04 0 0.53 0.04 0 0.535 0.04 0 0.54 0.04 0 0.545 0.04 0 0.55 0.04 0 0.555 0.04 0 0.56 0.04 0 0.565 0.04 0 0.57 0.04 0 0.575 0.04 0 0.58 0.04 0 0.585 0.04 0 0.59 0.04 0 0.595 0.04 0 0.6 0.04 0 0.605 0.04 0 0.61 0.04 0 0.615 0.04 0 0.62 0.04 0 0.625 0.04 0 0.63 0.04 0 0.635 0.04 0 0.64 0.04 0 0.645 0.04 0 0.65 0.04 0 0.655 0.04 0 0.66 0.04 0 0.665 0.04 0 0.67 0.04 0 0.675 0.04 0 0.68 0.04 0 0.685 0.04 0 0.69 0.04 0 0.695 0.04 0 0.7 0.04 0 0.705 0.04 0 0.71 0.04 0 0.715 0.04 0 0.72 0.04 0 0.725 0.04 0 0.73 0.04 0 0.735 0.04 0 0.74 0.04 0 0.745 0.04 0 0.75 0.04 0 0.755 0.04 0 0.76 0.04 0 0.765 0.04 0 0.77 0.04 0 0.775 0.04 0 0.78 0.04 0 0.785 0.04 0 0.79 0.04 0 0.795 0.04 0 0.8 0.04 0 0.805 0.04 0 0.81 0.04 0 0.815 0.04 0 0.82 0.04 0 0.825 0.04 0 0.83 0.04 0 0.835 0.04 0 0.84 0.04 0 0.845 0.04 0 0.85 0.04 0 0.855 0.04 0 0.86 0.04 0 0.865 0.04 0 0.87 0.04 0 0.875 0.04 0 0.88 0.04 0 0.885 0.04 0 0.89 0.04 0 0.895 0.04 0 0.9 0.04 0 0.905 0.04 0 0.91 0.04 0 0.915 0.04 0 0.92 0.04 0 0.925 0.04 0 0.93 0.04 0 0.935 0.04 0 0.94 0.04 0 0.945 0.04 0 0.95 0.04 0 0.955 0.04 0 0.96 0.04 0 0.965 0.04 0 0.97 0.04 0 0.975 0.04 0 0.98 0.04 0 0.985 0.04 0 0.99 0.04 0 0.995 0.04 0 1 0.04 0 0 0.06 0 0.005 0.06 0 0.01 0.06 0 0.015 0.06 0 0.02 0.06 0 0.025 0.06 0 0.03 0.06 0 0.035 0.06 0 0.04 0.06 0 0.045 0.06 0 0.05 0.06 0 0.055 0.06 0 0.06 0.06 0 0.065 0.06 0 0.07 0.06 0 0.075 0.06 0 0.08 0.06 0 0.085 0.06 0 0.09 0.06 0 0.095 0.06 0 0.1 0.06 0 0.105 0.06 0 0.11 0.06 0 0.115 0.06 0 0.12 0.06 0 0.125 0.06 0 0.13 0.06 0 0.135 0.06 0 0.14 0.06 0 0.145 0.06 0 0.15 0.06 0 0.155 0.06 0 0.16 0.06 0 0.165 0.06 0 0.17 0.06 0 0.175 0.06 0 0.18 0.06 0 0.185 0.06 0 0.19 0.06 0 0.195 0.06 0 0.2 0.06 0 0.205 0.06 0 0.21 0.06 0 0.215 0.06 0 0.22 0.06 0 0.225 0.06 0 0.23 0.06 0 0.235 0.06 0 0.24 0.06 0 0.245 0.06 0 0.25 0.06 0 0.255 0.06 0 0.26 0.06 0 0.265 0.06 0 0.27 0.06 0 0.275 0.06 0 0.28 0.06 0 0.285 0.06 0 0.29 0.06 0 0.295 0.06 0 0.3 0.06 0 0.305 0.06 0 0.31 0.06 0 0.315 0.06 0 0.32 0.06 0 0.325 0.06 0 0.33 0.06 0 0.335 0.06 0 0.34 0.06 0 0.345 0.06 0 0.35 0.06 0 0.355 0.06 0 0.36 0.06 0 0.365 0.06 0 0.37 0.06 0 0.375 0.06 0 0.38 0.06 0 0.385 0.06 0 0.39 0.06 0 0.395 0.06 0 0.4 0.06 0 0.405 0.06 0 0.41 0.06 0 0.415 0.06 0 0.42 0.06 0 0.425 0.06 0 0.43 0.06 0 0.435 0.06 0 0.44 0.06 0 0.445 0.06 0 0.45 0.06 0 0.455 0.06 0 0.46 0.06 0 0.465 0.06 0 0.47 0.06 0 0.475 0.06 0 0.48 0.06 0 0.485 0.06 0 0.49 0.06 0 0.495 0.06 0 0.5 0.06 0 0.505 0.06 0 0.51 0.06 0 0.515 0.06 0 0.52 0.06 0 0.525 0.06 0 0.53 0.06 0 0.535 0.06 0 0.54 0.06 0 0.545 0.06 0 0.55 0.06 0 0.555 0.06 0 0.56 0.06 0 0.565 0.06 0 0.57 0.06 0 0.575 0.06 0 0.58 0.06 0 0.585 0.06 0 0.59 0.06 0 0.595 0.06 0 0.6 0.06 0 0.605 0.06 0 0.61 0.06 0 0.615 0.06 0 0.62 0.06 0 0.625 0.06 0 0.63 0.06 0 0.635 0.06 0 0.64 0.06 0 0.645 0.06 0 0.65 0.06 0 0.655 0.06 0 0.66 0.06 0 0.665 0.06 0 0.67 0.06 0 0.675 0.06 0 0.68 0.06 0 0.685 0.06 0 0.69 0.06 0 0.695 0.06 0 0.7 0.06 0 0.705 0.06 0 0.71 0.06 0 0.715 0.06 0 0.72 0.06 0 0.725 0.06 0 0.73 0.06 0 0.735 0.06 0 0.74 0.06 0 0.745 0.06 0 0.75 0.06 0 0.755 0.06 0 0.76 0.06 0 0.765 0.06 0 0.77 0.06 0 0.775 0.06 0 0.78 0.06 0 0.785 0.06 0 0.79 0.06 0 0.795 0.06 0 0.8 0.06 0 0.805 0.06 0 0.81 0.06 0 0.815 0.06 0 0.82 0.06 0 0.825 0.06 0 0.83 0.06 0 0.835 0.06 0 0.84 0.06 0 0.845 0.06 0 0.85 0.06 0 0.855 0.06 0 0.86 0.06 0 0.865 0.06 0 0.87 0.06 0 0.875 0.06 0 0.88 0.06 0 0.885 0.06 0 0.89 0.06 0 0.895 0.06 0 0.9 0.06 0 0.905 0.06 0 0.91 0.06 0 0.915 0.06 0 0.92 0.06 0 0.925 0.06 0 0.93 0.06 0 0.935 0.06 0 0.94 0.06 0 0.945 0.06 0 0.95 0.06 0 0.955 0.06 0 0.96 0.06 0 0.965 0.06 0 0.97 0.06 0 0.975 0.06 0 0.98 0.06 0 0.985 0.06 0 0.99 0.06 0 0.995 0.06 0 1 0.06 0 0 0.08 0 0.005 0.08 0 0.01 0.08 0 0.015 0.08 0 0.02 0.08 0 0.025 0.08 0 0.03 0.08 0 0.035 0.08 0 0.04 0.08 0 0.045 0.08 0 0.05 0.08 0 0.055 0.08 0 0.06 0.08 0 0.065 0.08 0 0.07 0.08 0 0.075 0.08 0 0.08 0.08 0 0.085 0.08 0 0.09 0.08 0 0.095 0.08 0 0.1 0.08 0 0.105 0.08 0 0.11 0.08 0 0.115 0.08 0 0.12 0.08 0 0.125 0.08 0 0.13 0.08 0 0.135 0.08 0 0.14 0.08 0 0.145 0.08 0 0.15 0.08 0 0.155 0.08 0 0.16 0.08 0 0.165 0.08 0
[...]
			<PointData Scalars="VitesseX">
				<DataArray Name="VitesseX" type="Float32" format="ascii">
 0 -3.89029e-16 -1.11735e-14 -3.99037e-14 -9.49124e-15 -1.17284e-14 -2.76993e-14 -1.44856e-14 1.65507e-14 1.82655e-14 1.21078e-15 3.9219e-14 -1.53011e-13 1.28715e-13 -1.04839e-13 -5.77951e-15 -5.42109e-14 -2.2612e-14 -3.1206e-14 -4.27563e-14 -9.92387e-14 2.91356e-14 2.90987e-14 -3.89904e-14 -1.91672e-13 5.34373e-14 -9.08257e-15 -2.46958e-13 -7.52999e-15 -1.2265e-13 -1.38311e-13 -2.98362e-13 -8.92069e-14 -1.61582e-13 -1.0541e-13 -7.84722e-14 -1.22516e-13 -2.81296e-14 1.33805e-13 1.78103e-13 5.94008e-14 -1.14084e-14 -2.62722e-14 8.41102e-15 -1.57797e-13 -1.26447e-13 -3.8497e-13 -3.24319e-14 -6.59311e-14 -1.09728e-13 -2.94242e-13 7.94856e-14 1.92627e-13 -5.79275e-13 1.19922e-13 -1.0332e-13 -8.02622e-14 -3.71669e-13 1.89522e-13 -7.34655e-14 5.21312e-13 5.54226e-12 4.62657e-11 3.66501e-10 2.70327e-09 1.85321e-08 1.17515e-07 6.86083e-07 3.66861e-06 1.7856e-05 7.85252e-05 0.000309219 0.00107852 0.00328997 0.00866464 0.019519 0.0376229 0.0629536 0.0938843 0.128496 0.165402 0.203802 0.243156 0.283131 0.323586 0.36447 0.405799 0.447506 0.488056 0.527972 0.567115 0.606166 0.643954 0.681923 0.71842 0.754048 0.789164 0.820425 0.851429 0.876625 0.896134 0.913079 0.921954 0.926693 0.930856 0.931879 0.931699 0.931626 0.931607 0.931497 0.931206 0.930776 0.930316 0.929948 0.929667 0.929422 0.929197 0.929004 0.928849 0.928725 0.928623 0.928534 0.92845 0.928357 0.928241 0.92808 0.927815 0.927302 0.926245 0.924041 0.919491 0.910341 0.892649 0.860299 0.805481 0.72118 0.605743 0.468546 0.327703 0.203843 0.110715 0.0523451 0.0220678 0.00864534 0.00325733 0.00120249 0.000438339 0.000158192 5.65497e-05 2.00185e-05 7.014e-06 2.43097e-06 8.32964e-07 2.82022e-07 9.43071e-08 3.11341e-08 1.01435e-08 3.26018e-09 1.03341e-09 3.22667e-10 9.98894e-11 2.98689e-11 9.01524e-12 2.03872e-12 2.10728e-13 -1.89476e-13 -8.5423e-14 -1.86597e-13 -1.40305e-13 -7.6619e-13 -5.92073e-13 -3.40198e-14 -2.73387e-13 9.2589e-13 -1.16891e-12 4.6391e-13 -1.00481e-13 -1.6085e-13 1.32516e-13 4.68611e-13 1.10228e-13 -5.43806e-13 -7.55056e-13 7.02147e-13 -9.81325e-13 -1.59567e-13 3.92928e-13 -1.82015e-13 3.67676e-13 -2.51533e-13 -4.15357e-13 8.13653e-13 -6.52229e-13 4.86553e-13 2.34132e-13 4.14226e-13 5.00601e-13 -1.61373e-13 -5.6083e-13 -6.99223e-13 0 0 -1.60318e-14 -2.01372e-14 -6.65865e-15 -4.12346e-14 -2.73421e-14 -1.20008e-14 -1.57676e-14 -5.94368e-15 2.06525e-14 3.19546e-14 -4.3899e-14 1.11968e-13 -1.21406e-13 3.27175e-14 -2.83713e-14 -1.81965e-14 -3.70699e-14 -5.0347e-14 -8.78405e-14 -3.22515e-14 -1.83063e-14 -3.61508e-14 -1.32941e-13 1.22143e-13 -9.01812e-14 -1.8436e-13 7.8301e-15 -1.82416e-13 -1.57564e-13 -1.68585e-13 -1.09347e-13 -1.87577e-13 -1.1652e-13 -9.8258e-14 -1.67557e-13 8.88155e-14 1.03961e-14 6.19901e-14 -5.78655e-14 2.17305e-14 -1.71186e-14 -6.5606e-14 -3.75089e-14 -7.13499e-14 -2.45769e-13 -6.33252e-14 -1.88724e-13 -1.33942e-13 -1.75764e-13 8.73551e-14 -1.23429e-13 -3.58097e-13 1.09956e-13 -4.03577e-14 -1.23826e-13 -1.13453e-13 3.43889e-14 -3.17638e-13 7.51304e-14 7.06497e-13 5.36425e-12 4.64407e-11 3.66247e-10 2.70311e-09 1.85325e-08 1.17515e-07 6.86083e-07 3.66861e-06 1.7856e-05 7.85252e-05 0.000309219 0.00107852 0.00328997 0.00866464 0.019519 0.0376229 0.0629536 0.0938843 0.128496 0.165402 0.203802 0.243156 0.283131 0.323586 0.36447 0.405799 0.447506 0.488056 0.527972 0.567115 0.606166 0.643954 0.681923 0.71842 0.754048 0.789164 0.820425 0.851429 0.876625 0.896134 0.913079 0.921954 0.926693 0.930856 0.931879 0.931699 0.931626 0.931607 0.931497 0.931206 0.930776 0.930316 0.929948 0.929667 0.929422 0.929197 0.929004 0.928849 0.928725 0.928623 0.928534 0.92845 0.928357 0.928241 0.92808 0.927815 0.927302 0.926245 0.924041 0.919491 0.910341 0.892649 0.860299 0.805481 0.72118 0.605743 0.468546 0.327703 0.203843 0.110715 0.0523451 0.0220678 0.00864534 0.00325733 0.00120249 0.000438339 0.000158192 5.65497e-05 2.00185e-05 7.014e-06 2.43097e-06 8.32965e-07 2.82022e-07 9.43076e-08 3.11339e-08 1.01437e-08 3.26034e-09 1.03359e-09 3.23266e-10 9.90165e-11 3.01773e-11 8.81035e-12 2.62456e-12 3.92901e-13 -2.55779e-13 -4.64706e-13 -3.10852e-13 -5.41276e-13 -6.04263e-14 -2.87788e-13 -4.95936e-13 9.43237e-14 -6.45574e-13 9.5393e-13 -3.0304e-13 -1.59965e-13 -3.80143e-14 2.78921e-13 -3.29329e-14 -1.7221e-13 -2.23294e-13 1.97553e-13 -9.73012e-13 4.41084e-13 -2.69502e-13 -3.36991e-13 -6.45228e-15 -5.12557e-13 -2.23494e-13 7.18929e-13 -5.78979e-13 7.43193e-13 2.09121e-13 3.14025e-13 3.23438e-13 -6.48672e-15 -4.421e-13 -1.12128e-15 3.21204e-13 0 0 -1.6951e-14 -1.54383e-14 -3.73314e-14 -1.86831e-14 -2.27417e-14 -2.26657e-14 -1.46821e-14 -2.48258e-14 -2.07438e-14 -5.76432e-15 3.18282e-14 1.41893e-14 9.04616e-14 -3.40218e-14 -1.13436e-14 -1.73123e-14 4.8189e-15 -1.6e-14 -3.92588e-14 -9.32174e-14 -3.43694e-14 -8.64235e-14 -2.71962e-14 -8.12622e-14 -6.48458e-14 -4.05607e-14 -1.23665e-13 -1.88754e-13 -1.39019e-13 -6.53359e-14 -1.06578e-13 -1.81344e-13 -9.86794e-14 -6.1403e-14 -6.09717e-14 -5.00599e-14 1.14139e-13 -1.28651e-13 -2.19099e-14 -1.64349e-13 -6.87479e-14 5.56484e-14 -1.79893e-13 -7.32952e-14 -1.45174e-13 -1.4479e-13 -5.34371e-14 -6.87205e-14 -4.00643e-14 -1.54789e-13 -5.6204e-14 -1.19103e-13 5.88615e-14 -3.16062e-13 3.02743e-14 -1.2276e-13 -1.11001e-13 9.38733e-14 -4.62145e-14 6.90512e-13 5.54575e-12 4.61162e-11 3.66224e-10 2.70322e-09 1.85325e-08 1.17515e-07 6.86083e-07 3.66861e-06 1.7856e-05 7.85252e-05 0.000309219 0.00107852 0.00328997 0.00866464 0.019519 0.0376229 0.0629536 0.0938843 0.128496 0.165402 0.203802 0.243156 0.283131 0.323586 0.36447 0.405799 0.447506 0.488056 0.527972 0.567115 0.606166 0.643954 0.681923 0.71842 0.754048 0.789164 0.820425 0.851429 0.876625 0.896134 0.913079 0.921954 0.926693 0.930856 0.931879 0.931699 0.931626 0.931607 0.931497 0.931206 0.930776 0.930316 0.929948 0.929667 0.929422 0.929197 0.929004 0.928849 0.928725 0.928623 0.928534 0.92845 0.928357 0.928241 0.92808 0.927815 0.927302 0.926245 0.924041 0.919491 0.910341 0.892649 0.860299 0.805481 0.72118 0.605743 0.468546 0.327703 0.203843 0.110715 0.0523451 0.0220678 0.00864534 0.00325733 0.00120249 0.000438339 0.000158192 5.65497e-05 2.00185e-05 7.014e-06 2.43097e-06 8.32964e-07 2.82022e-07 9.43073e-08 3.11343e-08 1.01439e-08 3.26075e-09 1.03369e-09 3.22831e-10 9.95998e-11 3.00967e-11 8.90741e-12 2.31518e-12 6.19047e-13 2.87728e-13 -7.09512e-13 -4.03899e-13 -1.26805e-13 -2.5877e-13 -1.9005e-13 -6.90031e-13 -3.96237e-13 2.45166e-13 1.4231e-13 1.81071e-13 -3.24732e-13 -1.52822e-13 5.17116e-14 -2.16056e-13 -6.54622e-14 -3.35846e-13 -1.63396e-13 6.77834e-14 -1.31671e-13 -4.40194e-13 -2.82679e-13 -6.9836e-13 3.37991e-13 8.24924e-14 -7.6836e-14 5.67345e-13 1.18364e-13 2.46728e-13 1.95896e-13 -7.09666e-13 7.38164e-14 4.04202e-13 -7.42239e-14 -4.34347e-13 0 0 -7.52949e-15 -1.56782e-14 -2.04697e-14 -1.84417e-14 -2.09625e-14 -2.22938e-14 -1.75137e-14 -3.11971e-14 1.04096e-14 -1.31725e-14 3.07895e-14 -3.93581e-14 2.35587e-14 2.70455e-14 2.92846e-14 1.90353e-14 2.74283e-14 -2.15139e-14 -7.51547e-15 -3.95965e-14 -1.03225e-13 -5.48694e-14 -7.33694e-14 -9.00508e-14 -7.85516e-14 -6.99585e-14 -1.82398e-13 -7.6134e-14 -5.59868e-14 -2.24715e-13 4.50254e-15 -7.40493e-14 -8.25922e-14 -4.11763e-14 -7.1107e-14 -1.60627e-14 -1.18681e-13 2.30761e-14 -6.1288e-15 -1.76538e-13 -6.74528e-14 -5.89813e-14 -5.43579e-14 -1.01514e-13 -7.27624e-14 -1.24063e-13 -7.56071e-14 -3.84818e-14 -1.03167e-13 1.15966e-14 -9.64191e-14 1.25338e-13 -2.2633e-13 -1.25277e-13 -4.05457e-14 -1.46773e-13 -1.14606e-13 -4.66178e-14 7.37374e-14 6.71229e-13 5.54872e-12 4.63371e-11 3.66246e-10 2.70333e-09 1.85325e-08 1.17515e-07 6.86083e-07 3.66861e-06 1.7856e-05 7.85252e-05 0.000309219 0.00107852 0.00328997 0.00866464 0.019519 0.0376229 0.0629536 0.0938843 0.128496 0.165402 0.203802 0.243156 0.283131 0.323586 0.36447 0.405799 0.447506 0.488056 0.527972 0.567115 0.606166 0.643954 0.681923 0.71842 0.754048 0.789164 0.820425 0.851429 0.876625 0.896134 0.913079 0.921954 0.926693 0.930856 0.931879 0.931699 0.931626 0.931607 0.931497 0.931206 0.930776 0.930316 0.929948 0.929667 0.929422 0.929197 0.929004 0.928849 0.928725 0.928623 0.928534 0.92845 0.928357 0.928241 0.92808 0.927815 0.927302 0.926245 0.924041 0.919491 0.910341 0.892649 0.860299 0.805481 0.72118 0.605743 0.468546 0.327703 0.203843 0.110715 0.0523451 0.0220678 0.00864534 0.00325733 0.00120249 0.000438339 0.000158192 5.65497e-05 2.00185e-05 7.014e-06 2.43097e-06 8.32964e-07 2.82022e-07 9.43074e-08 3.11343e-08 1.01438e-08 3.26094e-09 1.03381e-09 3.22978e-10 9.97289e-11 2.99995e-11 9.04763e-12 2.22386e-12 1.63838e-13 2.93691e-13 -2.40484e-13 -3.26695e-13 -3.48865e-13 -6.55297e-13 -2.96318e-13 2.98399e-13 -2.4914e-13 5.67782e-13 -1.02373e-12 -5.01666e-14 2.49927e-13 -3.66805e-13 -9.04743e-14 -3.24563e-14 -2.04484e-13 -3.41535e-13 -2.61297e-13 2.46932e-13 -1.00616e-12 2.49272e-13 -2.73365e-13 -2.89776e-13 -4.23188e-14 7.43508e-13 -5.6439e-14 1.39691e-13 -9.9034e-14 1.50833e-13 -2.27141e-13 5.84233e-14 7.29462e-13 7.47536e-13 -9.03599e-13 2.83446e-13 0 0 -4.06932e-15 -1.14244e-14 6.20227e-15 -2.45808e-14 -3.84319e-14 -8.21994e-15 -3.88588e-14 -1.49806e-14 5.00164e-14 1.66407e-14 -4.70111e-14 8.54208e-14 -1.31812e-13 1.05253e-13 3.0765e-14 3.00916e-14 -1.6234e-14 -1.11527e-14 -8.54497e-14 -2.96837e-14 -8.94749e-14 -8.37385e-14 -1.68641e-13 6.44305e-14 -1.32255e-13 -1.64105e-13 -5.50546e-14 -9.14075e-14 -5.03107e-14 -1.59635e-13 -5.79512e-14 -3.6431e-14 -3.7002e-14 -5.74911e-14 -1.09402e-13 2.24162e-14 -9.06545e-14 1.6077e-13 -8.37838e-14 -3.58866e-14 -1.05163e-13 -1.90303e-13 -6.62806e-14 -5.84469e-14 -2.47746e-13 6.30723e-14 -1.85869e-13 -6.59717e-14 -1.54855e-13 2.29742e-13 -4.37883e-14 -1.56116e-13 8.79276e-14 -8.95287e-14 -7.99503e-14 -1.52397e-13 -1.24997e-14 -4.86723e-13 2.55591e-13 9.78541e-13 5.58217e-12 4.66663e-11 3.66367e-10 2.70325e-09 1.85326e-08 1.17515e-07 6.86083e-07 3.66861e-06 1.7856e-05 7.85252e-05 0.000309219 0.00107852 0.00328997 0.00866464 0.019519 0.0376229 0.0629536 0.0938843 0.128496 0.165402 0.203802 0.243156 0.283131 0.323586 0.36447 0.405799 0.447506 0.488056 0.527972 0.567115 0.606166 0.643954 0.681923 0.71842 0.754048 0.789164 0.820425 0.851429 0.876625 0.896134 0.913079 0.921954 0.926693 0.930856 0.931879 0.931699 0.931626 0.931607 0.931497 0.931206 0.930776 0.930316 0.929948 0.929667 0.929422 0.929197 0.929004 0.928849 0.928725 0.928623 0.928534 0.92845 0.928357 0.928241 0.92808 0.927815 0.927302 0.926245 0.924041 0.919491 0.910341 0.892649 0.860299 0.805481 0.72118 0.605743 0.468546 0.327703 0.203843 0.110715 0.0523451 0.0220678 0.00864534 0.00325733 0.00120249 0.000438339 0.000158192 5.65497e-05 2.00185e-05 7.014e-06 2.43097e-06 8.32965e-07 2.82022e-07 9.43078e-08 3.11342e-08 1.01436e-08 3.26065e-09 1.03364e-09 3.23635e-10 9.89179e-11 3.06039e-11 8.84316e-12 2.46973e-12 8.76571e-14 -2.49741e-13 -1.67785e-13 -2.79124e-13 -6.42078e-13 -2.18838e-13 -2.57013e-13 3.06271e-13 3.62053e-13 -1.5922e-13 3.21804e-13 -7.78467e-13 4.57847e-13 -2.57832e-13 -1.42885e-13 -7.14802e-15 -2.52874e-13 -2.35593e-13 2.67814e-13 -1.28521e-12 -1.08911e-13 1.42054e-13 -4.24725e-13 -1.05767e-14 -9.71763e-13 2.17424e-13 4.30936e-13 -1.77724e-13 9.76121e-13 -4.95599e-14 3.44628e-13 1.08808e-13 5.96398e-14 7.49478e-14 -1.90833e-13 1.08195e-12 0 0 4.693e-15 6.73197e-15 -4.79053e-14 2.33336e-14 -3.74664e-14 -2.08811e-14 -5.50049e-14 1.12195e-14 1.46866e-14 -1.46005e-14 3.50722e-14 -9.90108e-14 2.41707e-13 -8.19027e-14 3.12367e-14 -3.03302e-14 -2.61591e-14 5.82104e-14 -1.01462e-13 -2.01345e-13 2.45093e-14 -1.29185e-13 -1.80424e-14 -2.8952e-13 -3.29933e-15 9.02227e-14 -2.55261e-13 -5.07522e-14 -7.42079e-14 1.98347e-13 -4.17731e-13 -1.50482e-15 -3.47203e-14 -6.43296e-14 5.81086e-14 -3.23309e-13 2.3541e-13 2.79089e-14 9.47045e-14 -3.14555e-14 -1.90087e-13 -4.64072e-14 -3.00203e-13 -7.55526e-14 -2.75223e-13 -1.73628e-13 1.76167e-14 9.53151e-15 5.82952e-14 -3.4224e-13 3.19197e-13 1.07709e-13 -5.29508e-14 -3.59991e-13 1.26072e-13 -1.10123e-13 -4.58236e-13 1.32333e-13 4.75511e-14 1.10397e-12 5.97217e-12 4.62752e-11 3.66696e-10 2.70335e-09 1.85323e-08 1.17515e-07 6.86082e-07 3.66861e-06 1.7856e-05 7.85252e-05 0.000309219 0.00107852 0.00328997 0.00866464 0.019519 0.0376229 0.0629536 0.0938843 0.128496 0.165402 0.203802 0.243156 0.283131 0.323586 0.36447 0.405799 0.447506 0.488056 0.527972 0.567115 0.606166 0.643954 0.681923 0.71842 0.754048 0.789164 0.820425 0.851429 0.876625 0.896134 0.913079 0.921954 0.926693 0.930856 0.931879 0.931699 0.931626 0.931607 0.931497 0.931206 0.930776 0.930316 0.929948 0.929667 0.929422 0.929197 0.929004 0.928849 0.928725 0.928623 0.928534 0.92845 0.928357 0.928241 0.92808 0.927815 0.927302 0.926245 0.924041 0.919491 0.910341 0.892649 0.860299 0.805481 0.72118 0.605743 0.468546 0.327703 0.203843 0.110715 0.0523451 0.0220678 0.00864534 0.00325733 0.00120249 0.000438339 0.000158192 5.65497e-05 2.00185e-05 7.014e-06 2.43097e-06 8.32965e-07 2.82022e-07 9.43074e-08 3.11349e-08 1.01436e-08 3.26044e-09 1.03326e-09 3.23111e-10 9.94339e-11 3.09165e-11 8.80042e-12 1.91168e-12 5.1066e-13 -1.89326e-13 -4.29638e-13 -2.7755e-13 1.02213e-13 -2.89958e-13 -3.17988e-13 -4.06465e-13 -3.21231e-14 1.25337e-12 -1.01082e-13 -2.44689e-14 -1.41767e-14 -1.72519e-13 -4.26725e-13 1.52982e-13 2.26943e-13 -5.57027e-13 -4.18731e-13 -2.80545e-13 -3.3233e-13 -7.15389e-13 1.98831e-13 -1.00743e-12 2.09885e-13 -6.91729e-13 -1.03214e-12 2.47147e-12 2.48425e-13 1.6098e-13 1.14141e-12 -1.55121e-12 -6.78437e-13 1.86054e-13 7.18496e-13 -6.13327e-13 0
				</DataArray>
				<DataArray Name="VitesseY" type="Float32" format="ascii">