<?xml version="1.0"?>
<VTKFile type="PolyData">
	<PolyData>
		<Piece NumberOfPoints="1206" NumberOfPolys="1000">
			<Points>
				<DataArray type="Float32" NumberOfComponents="3" format="ascii">
 0 0 0 0.005 0 0 0.01 0 0 0.015 0 0 0.02 0 0 0.025 0 0 0.03 0 0 0.035 0 0 0.04 0 0 0.045 0 0 0.05 0 0 0.055 0 0 0.06 0 0 0.065 0 0 0.07 0 0 0.075 0 0 0.08 0 0 0.085 0 0 0.09 0 0 0.095 0 0 0.1 0 0 0.105 0 0 0.11 0 0 0.115 0 0 0.12 0 0 0.125 0 0 0.13 0 0 0.135 0 0 0.14 0 0 0.145 0 0 0.15 0 0 0.155 0 0 0.16 0 0 0.165 0 0 0.17 0 0 0.175 0 0 0.18 0 0 0.185 0 0 0.19 0 0 0.195 0 0 0.2 0 0 0.205 0 0 0.21 0 0 0.215 0 0 0.22 0 0 0.225 0 0 0.23 0 0 0.235 0 0 0.24 0 0 0.245 0 0 0.25 0 0 0.255 0 0 0.26 0 0 0.265 0 0 0.27 0 0 0.275 0 0 0.28 0 0 0.285 0 0 0.29 0 0 0.295 0 0 0.3 0 0 0.305 0 0 0.31 0 0 0.315 0 0 0.32 0 0 0.325 0 0 0.33 0 0 0.335 0 0 0.34 0 0 0.345 0 0 0.35 0 0 0.355 0 0 0.36 0 0 0.365 0 0 0.37 0 0 0.375 0 0 0.38 0 0 0.385 0 0 0.39 0 0 0.395 0 0 0.4 0 0 0.405 0 0 0.41 0 0 0.415 0 0 0.42 0 0 0.425 0 0 0.43 0 0 0.435 0 0 0.44 0 0 0.445 0 0 0.45 0 0 0.455 0 0 0.46 0 0 0.465 0 0 0.47 0 0 0.475 0 0 0.48 0 0 0.485 0 0 0.49 0 0 0.495 0 0 0.5 0 0 0.505 0 0 0.51 0 0 0.515 0 0 0.52 0 0 0.525 0 0 0.53 0 0 0.535 0 0 0.54 0 0 0.545 0 0 0.55 0 0 0.555 0 0 0.56 0 0 0.565 0 0 0.57 0 0 0.575 0 0 0.58 0 0 0.585 0 0 0.59 0 0 0.595 0 0 0.6 0 0 0.605 0 0 0.61 0 0 0.615 0 0 0.62 0 0 0.625 0 0 0.63 0 0 0.635 0 0 0.64 0 0 0.645 0 0 0.65 0 0 0.655 0 0 0.66 0 0 0.665 0 0 0.67 0 0 0.675 0 0 0.68 0 0 0.685 0 0 0.69 0 0 0.695 0 0 0.7 0 0 0.705 0 0 0.71 0 0 0.715 0 0 0.72 0 0 0.725 0 0 0.73 0 0 0.735 0 0 0.74 0 0 0.745 0 0 0.75 0 0 0.755 0 0 0.76 0 0 0.765 0 0 0.77 0 0 0.775 0 0 0.78 0 0 0.785 0 0 0.79 0 0 0.795 0 0 0.8 0 0 0.805 0 0 0.81 0 0 0.815 0 0 0.82 0 0 0.825 0 0 0.83 0 0 0.835 0 0 0.84 0 0 0.845 0 0 0.85 0 0 0.855 0 0 0.86 0 0 0.865 0 0 0.87 0 0 0.875 0 0 0.88 0 0 0.885 0 0 0.89 0 0 0.895 0 0 0.9 0 0 0.905 0 0 0.91 0 0 0.915 0 0 0.92 0 0 0.925 0 0 0.93 0 0 0.935 0 0 0.94 0 0 0.945 0 0 0.95 0 0 0.955 0 0 0.96 0 0 0.965 0 0 0.97 0 0 0.975 0 0 0.98 0 0 0.985 0 0 0.99 0 0 0.995 0 0 1 0 0 0 0.02 0 0.005 0.02 0 0.01 0.02 0 0.015 0.02 0 0.02 0.02 0 0.025 0.02 0 0.03 0.02 0 0.035 0.02 0 0.04 0.02 0 0.045 0.02 0 0.05 0.02 0 0.055 0.02 0 0.06 0.02 0 0.065 0.02 0 0.07 0.02 0 0.075 0.02 0 0.08 0.02 0 0.085 0.02 0 0.09 0.02 0 0.095 0.02 0 0.1 0.02 0 0.105 0.02 0 0.11 0.02 0 0.115 0.02 0 0.12 0.02 0 0.125 0.02 0 0.13 0.02 0 0.135 0.02 0 0.14 0.02 0 0.145 0.02 0 0.15 0.02 0 0.155 0.02 0 0.16 0.02 0 0.165 0.02 0 0.17 0.02 0 0.175 0.02 0 0.18 0.02 0 0.185 0.02 0 0.19 0.02 0 0.195 0.02 0 0.2 0.02 0 0.205 0.02 0 0.21 0.02 0 0.215 0.02 0 0.22 0.02 0 0.225 0.02 0 0.23 0.02 0 0.235 0.02 0 0.24 0.02 0 0.245 0.02 0 0.25 0.02 0 0.255 0.02 0 0.26 0.02 0 0.265 0.02 0 0.27 0.02 0 0.275 0.02 0 0.28 0.02 0 0.285 0.02 0 0.29 0.02 0 0.295 0.02 0 0.3 0.02 0 0.305 0.02 0 0.31 0.02 0 0.315 0.02 0 0.32 0.02 0 0.325 0.02 0 0.33 0.02 0 0.335 0.02 0 0.34 0.02 0 0.345 0.02 0 0.35 0.02 0 0.355 0.02 0 0.36 0.02 0 0.365 0.02 0 0.37 0.02 0 0.375 0.02 0 0.38 0.02 0 0.385 0.02 0 0.39 0.02 0 0.395 0.02 0 0.4 0.02 0 0.405 0.02 0 0.41 0.02 0 0.415 0.02 0 0.42 0.02 0 0.425 0.02 0 0.43 0.02 0 0.435 0.02 0 0.44 0.02 0 0.445 0.02 0 0.45 0.02 0 0.455 0.02 0 0.46 0.02 0 0.465 0.02 0 0.47 0.02 0 0.475 0.02 0 0.48 0.02 0 0.485 0.02 0 0.49 0.02 0 0.495 0.02 0 0.5 0.02 0 0.505 0.02 0 0.51 0.02 0 0.515 0.02 0 0.52 0.02 0 0.525 0.02 0 0.53 0.02 0 0.535 0.02 0 0.54 0.02 0 0.545 0.02 0 0.55 0.02 0 0.555 0.02 0 0.56 0.02 0 0.565 0.02 0 0.57 0.02 0 0.575 0.02 0 0.58 0.02 0 0.585 0.02 0 0.59 0.02 0 0.595 0.02 0 0.6 0.02 0 0.605 0.02 0 0.61 0.02 0 0.615 0.02 0 0.62 0.02 0 0.625 0.02 0 0.63 0.02 0 0.635 0.02 0 0.64 0.02 0 0.645 0.02 0 0.65 0.02 0 0.655 0.02 0 0.66 0.02 0 0.665 0.02 0 0.67 0.02 0 0.675 0.02 0 0.68 0.02 0 0.685 0.02 0 0.69 0.02 0 0.695 0.02 0 0.7 0.02 0 0.705 0.02 0 0.71 0.02 0 0.715 0.02 0 0.72 0.02 0 0.725 0.02 0 0.73 0.02 0 0.735 0.02 0 0.74 0.02 0 0.745 0.02 0 0.75 0.02 0 0.755 0.02 0 0.76 0.02 0 0.765 0.02 0 0.77 0.02 0 0.775 0.02 0 0.78 0.02 0 0.785 0.02 0 0.79 0.02 0 0.795 0.02 0 0.8 0.02 0 0.805 0.02 0 0.81 0.02 0 0.815 0.02 0 0.82 0.02 0 0.825 0.02 0 0.83 0.02 0 0.835 0.02 0 0.84 0.02 0 0.845 0.02 0 0.85 0.02 0 0.855 0.02 0 0.86 0.02 0 0.865 0.02 0 0.87 0.02 0 0.875 0.02 0 0.88 0.02 0 0.885 0.02 0 0.89 0.02 0 0.895 0.02 0 0.9 0.02 0 0.905 0.02 0 0.91 0.02 0 0.915 0.02 0 0.92 0.02 0 0.925 0.02 0 0.93 0.02 0 0.935 0.02 0 0.94 0.02 0 0.945 0.02 0 0.95 0.02 0 0.955 0.02 0 0.96 0.02 0 0.965 0.02 0 0.97 0.02 0 0.975 0.02 0 0.98 0.02 0 0.985 0.02 0 0.99 0.02 0 0.995 0.02 0 1 0.02 0 0 0.04 0 0.005 0.04 0 0.01 0.04 0 0.015 0.04 0 0.02 0.04 0 0.025 0.04 0 0.03 0.04 0 0.035 0.04 0 0.04 0.04 0 0.045 0.04 0 0.05 0.04 0 0.055 0.04 0 0.06 0.04 0 0.065 0.04 0 0.07 0.04 0 0.075 0.04 0 0.08 0.04 0 0.085 0.04 0 0.09 0.04 0 0.095 0.04 0 0.1 0.04 0 0.105 0.04 0 0.11 0.04 0 0.115 0.04 0 0.12 0.04 0 0.125 0.04 0 0.13 0.04 0 0.135 0.04 0 0.14 0.04 0 0.145 0.04 0 0.15 0.04 0 0.155 0.04 0 0.16 0.04 0 0.165 0.04 0 0.17 0.04 0 0.175 0.04 0 0.18 0.04 0 0.185 0.04 0 0.19 0.04 0 0.195 0.04 0 0.2 0.04 0 0.205 0.04 0 0.21 0.04 0 0.215 0.04 0 0.22 0.04 0 0.225 0.04 0 0.23 0.04 0 0.235 0.04 0 0.24 0.04 0 0.245 0.04 0 0.25 0.04 0 0.255 0.04 0 0.26 0.04 0 0.265 0.04 0 0.27 0.04 0 0.275 0.04 0 0.28 0.04 0 0.285 0.04 0 0.29 0.04 0 0.295 0.04 0 0.3 0.04 0 0.305 0.04 0 0.31 0.04 0 0.315 0.04 0 0.32 0.04 0 0.325 0.04 0 0.33 0.04 0 0.335 0.04 0 0.34 0.04 0 0.345 0.04 0 0.35 0.04 0 0.355 0.04 0 0.36 0.04 0 0.365 0.04 0 0.37 0.04 0 0.375 0.04 0 0.38 0.04 0 0.385 0.04 0 0.39 0.04 0 0.395 0.04 0 0.4 0.04 0 0.405 0.04 0 0.41 0.04 0 0.415 0.04 0 0.42 0.04 0 0.425 0.04 0 0.43 0.04 0 0.435 0.04 0 0.44 0.04 0 0.445 0.04 0 0.45 0.04 0 0.455 0.04 0 0.46 0.04 0 0.465 0.04 0 0.47 0.04 0 0.475 0.04 0 0.48 0.04 0 0.485 0.04 0 0.49 0.04 0 0.495 0.04 0 0.5 0.04 0 0.505 0.04 0 0.51 0.04 0 0.515 0.04 0 0.52 0.04 0 0.525 0.04 0 0.53 0.04 0 0.535 0.04 0 0.54 0.04 0 0.545 0.04 0 0.55 0.04 0 0.555 0.04 0 0.56 0.04 0 0.565 0.04 0 0.57 0.04 0 0.575 0.04 0 0.58 0.04 0 0.585 0.04 0 0.59 0.04 0 0.595 0.04 0 0.6 0.04 0 0.605 0.04 0 0.61 0.04 0 0.615 0.04 0 0.62 0.04 0 0.625 0.04 0 0.63 0.04 0 0.635 0.04 0 0.64 0.04 0 0.645 0.04 0 0.65 0.04 0 0.655 0.04 0 0.66 0.04 0 0.665 0.04 0 0.67 0.04 0 0.675 0.04 0 0.68 0.04 0 0.685 0.04 0 0.69 0.04 0 0.695 0.04 0 0.7 0.04 0 0.705 0.04 0 0.71 0.04 0 0.715 0.04 0 0.72 0.04 0 0.725 0.04 0 0.73 0.04 0 0.735 0.04 0 0.74 0.04 0 0.745 0.04 0 0.75 0.04 0 0.755 0.04 0 0.76 0.04 0 0.765 0.04 0 0.77 0.04 0 0.775 0.04 0 0.78 0.04 0 0.785 0.04 0 0.79 0.04 0 0.795 0.04 0 0.8 0.04 0 0.805 0.04 0 0.81 0.04 0 0.815 0.04 0 0.82 0.04 0 0.825 0.04 0 0.83 0.04 0 0.835 0.04 0 0.84 0.04 0 0.845 0.04 0 0.85 0.04 0 0.855 0.04 0 0.86 0.04 0 0.865 0.04 0 0.87 0.04 0 0.875 0.04 0 0.88 0.04 0 0.885 0.04 0 0.89 0.04 0 0.895 0.04 0 0.9 0.04 0 0.905 0.04 0 0.91 0.04 0 0.915 0.04 0 0.92 0.04 0 0.925 0.04 0 0.93 0.04 0 0.935 0.04 0 0.94 0.04 0 0.945 0.04 0 0.95 0.04 0 0.955 0.04 0 0.96 0.04 0 0.965 0.04 0 0.97 0.04 0 0.975 0.04 0 0.98 0.04 0 0.985 0.04 0 0.99 0.04 0 0.995 0.04 0 1 0.04 0 0 0.06 0 0.005 0.06 0 0.01 0.06 0 0.015 0.06 0 0.02 0.06 0 0.025 0.06 0 0.03 0.06 0 0.035 0.06 0 0.04 0.06 0 0.045 0.06 0 0.05 0.06 0 0.055 0.06 0 0.06 0.06 0 0.065 0.06 0 0.07 0.06 0 0.075 0.06 0 0.08 0.06 0 0.085 0.06 0 0.09 0.06 0 0.095 0.06 0 0.1 0.06 0 0.105 0.06 0 0.11 0.06 0 0.115 0.06 0 0.12 0.06 0 0.125 0.06 0 0.13 0.06 0 0.135 0.06 0 0.14 0.06 0 0.145 0.06 0 0.15 0.06 0 0.155 0.06 0 0.16 0.06 0 0.165 0.06 0 0.17 0.06 0 0.175 0.06 0 0.18 0.06 0 0.185 0.06 0 0.19 0.06 0 0.195 0.06 0 0.2 0.06 0 0.205 0.06 0 0.21 0.06 0 0.215 0.06 0 0.22 0.06 0 0.225 0.06 0 0.23 0.06 0 0.235 0.06 0 0.24 0.06 0 0.245 0.06 0 0.25 0.06 0 0.255 0.06 0 0.26 0.06 0 0.265 0.06 0 0.27 0.06 0 0.275 0.06 0 0.28 0.06 0 0.285 0.06 0 0.29 0.06 0 0.295 0.06 0 0.3 0.06 0 0.305 0.06 0 0.31 0.06 0 0.315 0.06 0 0.32 0.06 0 0.325 0.06 0 0.33 0.06 0 0.335 0.06 0 0.34 0.06 0 0.345 0.06 0 0.35 0.06 0 0.355 0.06 0 0.36 0.06 0 0.365 0.06 0 0.37 0.06 0 0.375 0.06 0 0.38 0.06 0 0.385 0.06 0 0.39 0.06 0 0.395 0.06 0 0.4 0.06 0 0.405 0.06 0 0.41 0.06 0 0.415 0.06 0 0.42 0.06 0 0.425 0.06 0 0.43 0.06 0 0.435 0.06 0 0.44 0.06 0 0.445 0.06 0 0.45 0.06 0 0.455 0.06 0 0.46 0.06 0 0.465 0.06 0 0.47 0.06 0 0.475 0.06 0 0.48 0.06 0 0.485 0.06 0 0.49 0.06 0 0.495 0.06 0 0.5 0.06 0 0.505 0.06 0 0.51 0.06 0 0.515 0.06 0 0.52 0.06 0 0.525 0.06 0 0.53 0.06 0 0.535 0.06 0 0.54 0.06 0 0.545 0.06 0 0.55 0.06 0 0.555 0.06 0 0.56 0.06 0 0.565 0.06 0 0.57 0.06 0 0.575 0.06 0 0.58 0.06 0 0.585 0.06 0 0.59 0.06 0 0.595 0.06 0 0.6 0.06 0 0.605 0.06 0 0.61 0.06 0 0.615 0.06 0 0.62 0.06 0 0.625 0.06 0 0.63 0.06 0 0.635 0.06 0 0.64 0.06 0 0.645 0.06 0 0.65 0.06 0 0.655 0.06 0 0.66 0.06 0 0.665 0.06 0 0.67 0.06 0 0.675 0.06 0 0.68 0.06 0 0.685 0.06 0 0.69 0.06 0 0.695 0.06 0 0.7 0.06 0 0.705 0.06 0 0.71 0.06 0 0.715 0.06 0 0.72 0.06 0 0.725 0.06 0 0.73 0.06 0 0.735 0.06 0 0.74 0.06 0 0.745 0.06 0 0.75 0.06 0 0.755 0.06 0 0.76 0.06 0 0.765 0.06 0 0.77 0.06 0 0.775 0.06 0 0.78 0.06 0 0.785 0.06 0 0.79 0.06 0 0.795 0.06 0 0.8 0.06 0 0.805 0.06 0 0.81 0.06 0 0.815 0.06 0 0.82 0.06 0 0.825 0.06 0 0.83 0.06 0 0.835 0.06 0 0.84 0.06 0 0.845 0.06 0 0.85 0.06 0 0.855 0.06 0 0.86 0.06 0 0.865 0.06 0 0.87 0.06 0 0.875 0.06 0 0.88 0.06 0 0.885 0.06 0 0.89 0.06 0 0.895 0.06 0 0.9 0.06 0 0.905 0.06 0 0.91 0.06 0 0.915 0.06 0 0.92 0.06 0 0.925 0.06 0 0.93 0.06 0 0.935 0.06 0 0.94 0.06 0 0.945 0.06 0 0.95 0.06 0 0.955 0.06 0 0.96 0.06 0 0.965 0.06 0 0.97 0.06 0 0.975 0.06 0 0.98 0.06 0 0.985 0.06 0 0.99 0.06 0 0.995 0.06 0 1 0.06 0 0 0.08 0 0.005 0.08 0 0.01 0.08 0 0.015 0.08 0 0.02 0.08 0 0.025 0.08 0 0.03 0.08 0 0.035 0.08 0 0.04 0.08 0 0.045 0.08 0 0.05 0.08 0 0.055 0.08 0 0.06 0.08 0 0.065 0.08 0 0.07 0.08 0 0.075 0.08 0 0.08 0.08 0 0.085 0.08 0 0.09 0.08 0 0.095 0.08 0 0.1 0.08 0 0.105 0.08 0 0.11 0.08 0 0.115 0.08 0 0.12 0.08 0 0.125 0.08 0 0.13 0.08 0 0.135 0.08 0 0.14 0.08 0 0.145 0.08 0 0.15 0.08 0 0.155 0.08 0 0.16 0.08 0 0.165 0.08 0
[...]
			<PointData Scalars="VitesseX">
				<DataArray Name="VitesseX" type="Float32" format="ascii">
 0 -3.89029e-16 -1.11735e-14 -3.99037e-14 -9.49124e-15 -1.17284e-14 -2.76993e-14 -1.44856e-14 1.65507e-14 1.82655e-14 1.21078e-15 3.9219e-14 -1.53011e-13 1.28715e-13 -1.04839e-13 -5.77951e-15 -5.42109e-14 -2.2612e-14 -3.1206e-14 -4.27563e-14 -9.92387e-14 2.91356e-14 2.90987e-14 -3.89904e-14 -1.91672e-13 5.34373e-14 -9.08257e-15 -2.46958e-13 -7.52999e-15 -1.2265e-13 -1.38311e-13 -2.98362e-13 -8.92069e-14 -1.61582e-13 -1.0541e-13 -7.84722e-14 -1.22516e-13 -2.81296e-14 1.33805e-13 1.78103e-13 5.94008e-14 -1.14084e-14 -2.62722e-14 8.41102e-15 -1.57797e-13 -1.26447e-13 -3.8497e-13 -3.24319e-14 -6.59311e-14 -1.09728e-13 -2.94242e-13 7.94856e-14 1.92627e-13 -5.79291e-13 1.09639e-13 -8.09173e-14 -9.28556e-14 -2.76644e-13 1.2065e-13 -8.07909e-14 5.20557e-13 5.51763e-12 4.62711e-11 3.66506e-10 2.70327e-09 1.85321e-08 1.17515e-07 6.86083e-07 3.66861e-06 1.7856e-05 7.85252e-05 0.000309219 0.00107852 0.00328997 0.00866464 0.019519 0.0376229 0.0629536 0.0938843 0.128496 0.165402 0.203802 0.243156 0.283131 0.323586 0.36447 0.405799 0.447506 0.488056 0.527972 0.567115 0.606166 0.643954 0.681923 0.71842 0.754048 0.789164 0.820425 0.851429 0.876625 0.896134 0.913079 0.921954 0.926693 0.930856 0.931879 0.931699 0.931626 0.931607 0.931497 0.931206 0.930776 0.930316 0.929948 0.929667 0.929422 0.929197 0.929004 0.928849 0.928725 0.928623 0.928534 0.92845 0.928357 0.928241 0.92808 0.927815 0.927302 0.926245 0.924041 0.919491 0.910341 0.892649 0.860299 0.805481 0.72118 0.605743 0.468546 0.327703 0.203843 0.110715 0.0523451 0.0220678 0.00864534 0.00325733 0.00120249 0.000438339 0.000158192 5.65497e-05 2.00185e-05 7.014e-06 2.43097e-06 8.32964e-07 2.82022e-07 9.43072e-08 3.1134e-08 1.01436e-08 3.26009e-09 1.03336e-09 3.22846e-10 9.98625e-11 2.99334e-11 9.00166e-12 1.83398e-12 5.42002e-13 -1.9389e-13 -6.51028e-15 -2.75375e-13 -1.89365e-13 -8.56121e-13 -4.30424e-13 -2.53241e-13 -4.63993e-14 4.45511e-13 -3.63925e-13 -3.06462e-13 2.42817e-13 -2.34722e-13 1.89097e-13 6.69036e-13 -1.60194e-13 -5.18326e-13 -7.7288e-13 3.46073e-13 -6.24542e-13 -2.54588e-14 1.49534e-13 -1.04175e-13 4.43534e-13 -2.58955e-13 -3.94761e-13 8.60922e-13 -7.12934e-13 4.91205e-13 2.34297e-13 4.28168e-13 4.87125e-13 -1.62737e-13 -5.60838e-13 -6.99223e-13 0 0 -1.60318e-14 -2.01372e-14 -6.65865e-15 -4.12346e-14 -2.73421e-14 -1.20008e-14 -1.57676e-14 -5.94368e-15 2.06525e-14 3.19546e-14 -4.3899e-14 1.11968e-13 -1.21406e-13 3.27175e-14 -2.83713e-14 -1.81965e-14 -3.70699e-14 -5.0347e-14 -8.78405e-14 -3.22515e-14 -1.83063e-14 -3.61508e-14 -1.32941e-13 1.22143e-13 -9.01812e-14 -1.8436e-13 7.8301e-15 -1.82416e-13 -1.57564e-13 -1.68585e-13 -1.09347e-13 -1.87577e-13 -1.1652e-13 -9.8258e-14 -1.67557e-13 8.88155e-14 1.03961e-14 6.19901e-14 -5.78655e-14 2.17305e-14 -1.71186e-14 -6.5606e-14 -3.75089e-14 -7.13499e-14 -2.45769e-13 -6.33252e-14 -1.88724e-13 -1.33942e-13 -1.75764e-13 8.73551e-14 -1.23429e-13 -3.58121e-13 1.09716e-13 -4.49787e-14 -1.29274e-13 -1.03507e-13 1.66031e-14 -2.83106e-13 6.19431e-14 6.95892e-13 5.37816e-12 4.64341e-11 3.66248e-10 2.70311e-09 1.85325e-08 1.17515e-07 6.86083e-07 3.66861e-06 1.7856e-05 7.85252e-05 0.000309219 0.00107852 0.00328997 0.00866464 0.019519 0.0376229 0.0629536 0.0938843 0.128496 0.165402 0.203802 0.243156 0.283131 0.323586 0.36447 0.405799 0.447506 0.488056 0.527972 0.567115 0.606166 0.643954 0.681923 0.71842 0.754048 0.789164 0.820425 0.851429 0.876625 0.896134 0.913079 0.921954 0.926693 0.930856 0.931879 0.931699 0.931626 0.931607 0.931497 0.931206 0.930776 0.930316 0.929948 0.929667 0.929422 0.929197 0.929004 0.928849 0.928725 0.928623 0.928534 0.92845 0.928357 0.928241 0.92808 0.927815 0.927302 0.926245 0.924041 0.919491 0.910341 0.892649 0.860299 0.805481 0.72118 0.605743 0.468546 0.327703 0.203843 0.110715 0.0523451 0.0220678 0.00864534 0.00325733 0.00120249 0.000438339 0.000158192 5.65497e-05 2.00185e-05 7.014e-06 2.43097e-06 8.32965e-07 2.82022e-07 9.43074e-08 3.1134e-08 1.01436e-08 3.26049e-09 1.03356e-09 3.23102e-10 9.90824e-11 3.01095e-11 8.86872e-12 2.58886e-12 5.47531e-13 -1.63014e-14 -5.89506e-13 -2.13191e-13 -6.08766e-13 -1.99246e-13 -3.01677e-13 -2.25729e-13 -2.67821e-13 -3.00946e-13 1.74741e-13 2.36221e-13 -1.92579e-13 1.84829e-13 2.44635e-13 -2.84686e-13 -1.61925e-13 -7.94648e-14 -1.18635e-14 -1.08283e-12 2.38059e-13 6.90955e-14 -2.42273e-13 -9.22829e-14 -3.31521e-13 -1.71027e-13 6.04516e-13 -5.52441e-13 7.64845e-13 1.81958e-13 3.08265e-13 3.54919e-13 -3.03368e-14 -4.43574e-13 -1.01483e-15 3.21204e-13 0 0 -1.6951e-14 -1.54383e-14 -3.73314e-14 -1.86831e-14 -2.27417e-14 -2.26657e-14 -1.46821e-14 -2.48258e-14 -2.07438e-14 -5.76432e-15 3.18282e-14 1.41893e-14 9.04616e-14 -3.40218e-14 -1.13436e-14 -1.73123e-14 4.8189e-15 -1.6e-14 -3.92588e-14 -9.32174e-14 -3.43694e-14 -8.64235e-14 -2.71962e-14 -8.12622e-14 -6.48458e-14 -4.05607e-14 -1.23665e-13 -1.88754e-13 -1.39019e-13 -6.53359e-14 -1.06578e-13 -1.81344e-13 -9.86794e-14 -6.1403e-14 -6.09717e-14 -5.00599e-14 1.14139e-13 -1.28651e-13 -2.19099e-14 -1.64349e-13 -6.87479e-14 5.56484e-14 -1.79893e-13 -7.32952e-14 -1.45174e-13 -1.4479e-13 -5.34371e-14 -6.87205e-14 -4.00643e-14 -1.54789e-13 -5.6204e-14 -1.1913e-13 5.87669e-14 -3.04777e-13 3.33454e-15 -1.1395e-13 -1.40797e-13 1.08466e-13 -7.33216e-14 7.23891e-13 5.562e-12 4.61144e-11 3.66207e-10 2.70324e-09 1.85325e-08 1.17515e-07 6.86083e-07 3.66861e-06 1.7856e-05 7.85252e-05 0.000309219 0.00107852 0.00328997 0.00866464 0.019519 0.0376229 0.0629536 0.0938843 0.128496 0.165402 0.203802 0.243156 0.283131 0.323586 0.36447 0.405799 0.447506 0.488056 0.527972 0.567115 0.606166 0.643954 0.681923 0.71842 0.754048 0.789164 0.820425 0.851429 0.876625 0.896134 0.913079 0.921954 0.926693 0.930856 0.931879 0.931699 0.931626 0.931607 0.931497 0.931206 0.930776 0.930316 0.929948 0.929667 0.929422 0.929197 0.929004 0.928849 0.928725 0.928623 0.928534 0.92845 0.928357 0.928241 0.92808 0.927815 0.927302 0.926245 0.924041 0.919491 0.910341 0.892649 0.860299 0.805481 0.72118 0.605743 0.468546 0.327703 0.203843 0.110715 0.0523451 0.0220678 0.00864534 0.00325733 0.00120249 0.000438339 0.000158192 5.65497e-05 2.00185e-05 7.014e-06 2.43097e-06 8.32964e-07 2.82022e-07 9.43075e-08 3.11343e-08 1.01438e-08 3.26071e-09 1.0336e-09 3.22975e-10 9.96111e-11 3.02493e-11 8.76217e-12 2.42477e-12 6.98381e-13 -1.66031e-14 -2.82877e-13 -7.21996e-13 -8.46247e-14 -2.85931e-13 -2.38757e-14 -7.15279e-13 -4.81129e-13 -1.06664e-14 1.62208e-13 1.15227e-13 -2.13511e-13 1.32844e-14 -2.82442e-13 -2.40901e-13 1.33624e-13 -2.1424e-13 -1.78222e-13 1.40942e-14 -6.53752e-14 -3.16764e-13 -3.91313e-13 -6.92202e-13 2.59892e-13 1.60651e-13 -3.08959e-14 4.50043e-13 2.388e-13 1.9985e-13 1.98511e-13 -7.14016e-13 5.06958e-14 4.03535e-13 -7.42397e-14 -4.34347e-13 0 0 -7.52949e-15 -1.56782e-14 -2.04697e-14 -1.84417e-14 -2.09625e-14 -2.22938e-14 -1.75137e-14 -3.11971e-14 1.04096e-14 -1.31725e-14 3.07895e-14 -3.93581e-14 2.35587e-14 2.70455e-14 2.92846e-14 1.90353e-14 2.74283e-14 -2.15139e-14 -7.51547e-15 -3.95965e-14 -1.03225e-13 -5.48694e-14 -7.33694e-14 -9.00508e-14 -7.85516e-14 -6.99585e-14 -1.82398e-13 -7.6134e-14 -5.59868e-14 -2.24715e-13 4.50254e-15 -7.40493e-14 -8.25922e-14 -4.11763e-14 -7.1107e-14 -1.60627e-14 -1.18681e-13 2.30761e-14 -6.1288e-15 -1.76538e-13 -6.74528e-14 -5.89813e-14 -5.43579e-14 -1.01514e-13 -7.27624e-14 -1.24063e-13 -7.56071e-14 -3.84818e-14 -1.03167e-13 1.15966e-14 -9.64191e-14 1.25334e-13 -2.25604e-13 -1.05811e-13 -1.16724e-13 -1.03077e-13 -9.74034e-14 -6.67634e-14 9.16264e-14 6.52852e-13 5.54876e-12 4.63134e-11 3.66268e-10 2.70335e-09 1.85325e-08 1.17515e-07 6.86083e-07 3.66861e-06 1.7856e-05 7.85252e-05 0.000309219 0.00107852 0.00328997 0.00866464 0.019519 0.0376229 0.0629536 0.0938843 0.128496 0.165402 0.203802 0.243156 0.283131 0.323586 0.36447 0.405799 0.447506 0.488056 0.527972 0.567115 0.606166 0.643954 0.681923 0.71842 0.754048 0.789164 0.820425 0.851429 0.876625 0.896134 0.913079 0.921954 0.926693 0.930856 0.931879 0.931699 0.931626 0.931607 0.931497 0.931206 0.930776 0.930316 0.929948 0.929667 0.929422 0.929197 0.929004 0.928849 0.928725 0.928623 0.928534 0.92845 0.928357 0.928241 0.92808 0.927815 0.927302 0.926245 0.924041 0.919491 0.910341 0.892649 0.860299 0.805481 0.72118 0.605743 0.468546 0.327703 0.203843 0.110715 0.0523451 0.0220678 0.00864534 0.00325733 0.00120249 0.000438339 0.000158192 5.65497e-05 2.00185e-05 7.014e-06 2.43097e-06 8.32964e-07 2.82022e-07 9.43075e-08 3.11344e-08 1.01439e-08 3.26019e-09 1.03425e-09 3.23167e-10 9.95749e-11 3.01298e-11 9.11122e-12 2.66919e-12 4.46739e-13 -3.20266e-13 -1.95586e-13 -7.31679e-14 -4.27724e-13 -1.02515e-12 1.19906e-13 -2.27387e-13 -1.72601e-13 -3.74657e-14 -5.22151e-14 -5.11036e-13 2.1179e-13 -7.25599e-13 8.20941e-14 -5.82114e-14 -3.81128e-14 -1.15404e-13 -1.63995e-13 2.58279e-13 -7.97242e-13 -1.33613e-13 -1.92534e-13 -3.05342e-13 -1.82631e-13 8.59479e-13 -3.17938e-13 2.89459e-13 -4.81422e-14 1.99001e-13 -3.19783e-13 -9.69612e-15 7.22117e-13 7.85063e-13 -9.03725e-13 2.83446e-13 0 0 -4.06932e-15 -1.14244e-14 6.20227e-15 -2.45808e-14 -3.84319e-14 -8.21994e-15 -3.88588e-14 -1.49806e-14 5.00164e-14 1.66407e-14 -4.70111e-14 8.54208e-14 -1.31812e-13 1.05253e-13 3.0765e-14 3.00916e-14 -1.6234e-14 -1.11527e-14 -8.54497e-14 -2.96837e-14 -8.94749e-14 -8.37385e-14 -1.68641e-13 6.44305e-14 -1.32255e-13 -1.64105e-13 -5.50546e-14 -9.14075e-14 -5.03107e-14 -1.59635e-13 -5.79512e-14 -3.6431e-14 -3.7002e-14 -5.74911e-14 -1.09402e-13 2.24162e-14 -9.06545e-14 1.6077e-13 -8.37838e-14 -3.58866e-14 -1.05163e-13 -1.90303e-13 -6.62806e-14 -5.84469e-14 -2.47746e-13 6.30723e-14 -1.85869e-13 -6.59717e-14 -1.54855e-13 2.29742e-13 -4.37883e-14 -1.56116e-13 8.90198e-14 -8.17308e-14 -1.56854e-13 -8.24722e-14 -1.2836e-14 -4.61647e-13 3.11414e-13 8.85833e-13 5.60295e-12 4.66535e-11 3.66383e-10 2.70325e-09 1.85326e-08 1.17515e-07 6.86083e-07 3.66861e-06 1.7856e-05 7.85252e-05 0.000309219 0.00107852 0.00328997 0.00866464 0.019519 0.0376229 0.0629536 0.0938843 0.128496 0.165402 0.203802 0.243156 0.283131 0.323586 0.36447 0.405799 0.447506 0.488056 0.527972 0.567115 0.606166 0.643954 0.681923 0.71842 0.754048 0.789164 0.820425 0.851429 0.876625 0.896134 0.913079 0.921954 0.926693 0.930856 0.931879 0.931699 0.931626 0.931607 0.931497 0.931206 0.930776 0.930316 0.929948 0.929667 0.929422 0.929197 0.929004 0.928849 0.928725 0.928623 0.928534 0.92845 0.928357 0.928241 0.92808 0.927815 0.927302 0.926245 0.924041 0.919491 0.910341 0.892649 0.860299 0.805481 0.72118 0.605743 0.468546 0.327703 0.203843 0.110715 0.0523451 0.0220678 0.00864534 0.00325733 0.00120249 0.000438339 0.000158192 5.65497e-05 2.00185e-05 7.014e-06 2.43097e-06 8.32965e-07 2.82022e-07 9.43077e-08 3.11344e-08 1.01436e-08 3.2606e-09 1.03402e-09 3.23289e-10 9.89968e-11 3.04015e-11 9.12585e-12 2.48457e-12 3.50153e-13 -4.07357e-13 -6.65667e-13 3.71217e-13 -7.95032e-13 -6.22245e-13 -3.56576e-13 2.66991e-13 2.38437e-13 -6.0685e-14 1.77005e-13 -1.89337e-13 -2.59508e-13 9.25761e-14 1.8215e-13 -3.49881e-13 -2.72641e-13 -1.11515e-13 4.30293e-13 -1.23389e-12 -2.22149e-13 -1.81033e-13 -2.81614e-13 -2.47514e-14 -9.30194e-13 3.01934e-13 6.49243e-13 -4.86534e-13 9.63361e-13 7.70895e-14 -2.10131e-13 3.98505e-13 6.70602e-14 1.12464e-13 -1.90833e-13 1.08195e-12 0 0 4.693e-15 6.73197e-15 -4.79053e-14 2.33336e-14 -3.74664e-14 -2.08811e-14 -5.50049e-14 1.12195e-14 1.46866e-14 -1.46005e-14 3.50722e-14 -9.90108e-14 2.41707e-13 -8.19027e-14 3.12367e-14 -3.03302e-14 -2.61591e-14 5.82104e-14 -1.01462e-13 -2.01345e-13 2.45093e-14 -1.29185e-13 -1.80424e-14 -2.8952e-13 -3.29933e-15 9.02227e-14 -2.55261e-13 -5.07522e-14 -7.42079e-14 1.98347e-13 -4.17731e-13 -1.50482e-15 -3.47203e-14 -6.43296e-14 5.81086e-14 -3.23309e-13 2.3541e-13 2.79089e-14 9.47045e-14 -3.14555e-14 -1.90087e-13 -4.64072e-14 -3.00203e-13 -7.55526e-14 -2.75223e-13 -1.73628e-13 1.76167e-14 9.53151e-15 5.82952e-14 -3.4224e-13 3.19197e-13 1.07709e-13 -5.19414e-14 -3.61797e-13 1.04039e-13 -7.2533e-14 -4.22309e-13 1.14027e-13 8.82551e-14 1.04252e-12 5.99367e-12 4.63119e-11 3.66652e-10 2.70332e-09 1.85323e-08 1.17515e-07 6.86082e-07 3.66861e-06 1.7856e-05 7.85252e-05 0.000309219 0.00107852 0.00328997 0.00866464 0.019519 0.0376229 0.0629536 0.0938843 0.128496 0.165402 0.203802 0.243156 0.283131 0.323586 0.36447 0.405799 0.447506 0.488056 0.527972 0.567115 0.606166 0.643954 0.681923 0.71842 0.754048 0.789164 0.820425 0.851429 0.876625 0.896134 0.913079 0.921954 0.926693 0.930856 0.931879 0.931699 0.931626 0.931607 0.931497 0.931206 0.930776 0.930316 0.929948 0.929667 0.929422 0.929197 0.929004 0.928849 0.928725 0.928623 0.928534 0.92845 0.928357 0.928241 0.92808 0.927815 0.927302 0.926245 0.924041 0.919491 0.910341 0.892649 0.860299 0.805481 0.72118 0.605743 0.468546 0.327703 0.203843 0.110715 0.0523451 0.0220678 0.00864534 0.00325733 0.00120249 0.000438339 0.000158192 5.65497e-05 2.00185e-05 7.014e-06 2.43097e-06 8.32965e-07 2.82022e-07 9.43078e-08 3.11347e-08 1.01435e-08 3.26134e-09 1.03299e-09 3.22836e-10 9.97635e-11 3.07564e-11 8.81782e-12 1.13656e-12 6.50529e-13 -3.68676e-13 -3.33417e-13 -4.04215e-13 1.243e-13 -2.23683e-13 -8.27786e-13 -2.43586e-13 3.4906e-13 9.79632e-13 6.94499e-14 9.49495e-14 -7.41643e-13 1.05854e-12 -6.64945e-13 1.73266e-13 -3.81523e-14 -7.80098e-13 8.29799e-14 -4.44412e-13 -8.12259e-14 -8.92018e-13 -3.26706e-13 -7.42831e-13 1.31231e-13 -7.10689e-13 2.68776e-13 1.31391e-12 2.57983e-13 2.83167e-13 2.34095e-13 -8.93299e-13 -6.60923e-13 1.86283e-13 7.18496e-13 -6.13327e-13 0
				</DataArray>
				<DataArray Name="VitesseY" type="Float32" format="ascii">