<?xml version="1.0"?>
<VTKFile type="PolyData">
	<PolyData>
		<Piece NumberOfPoints="1206" NumberOfPolys="1000">
			<Points>
				<DataArray type="Float32" NumberOfComponents="3" format="ascii">
 0 0 0 0.005 0 0 0.01 0 0 0.015 0 0 0.02 0 0 0.025 0 0 0.03 0 0 0.035 0 0 0.04 0 0 0.045 0 0 0.05 0 0 0.055 0 0 0.06 0 0 0.065 0 0 0.07 0 0 0.075 0 0 0.08 0 0 0.085 0 0 0.09 0 0 0.095 0 0 0.1 0 0 0.105 0 0 0.11 0 0 0.115 0 0 0.12 0 0 0.125 0 0 0.13 0 0 0.135 0 0 0.14 0 0 0.145 0 0 0.15 0 0 0.155 0 0 0.16 0 0 0.165 0 0 0.17 0 0 0.175 0 0 0.18 0 0 0.185 0 0 0.19 0 0 0.195 0 0 0.2 0 0 0.205 0 0 0.21 0 0 0.215 0 0 0.22 0 0 0.225 0 0 0.23 0 0 0.235 0 0 0.24 0 0 0.245 0 0 0.25 0 0 0.255 0 0 0.26 0 0 0.265 0 0 0.27 0 0 0.275 0 0 0.28 0 0 0.285 0 0 0.29 0 0 0.295 0 0 0.3 0 0 0.305 0 0 0.31 0 0 0.315 0 0 0.32 0 0 0.325 0 0 0.33 0 0 0.335 0 0 0.34 0 0 0.345 0 0 0.35 0 0 0.355 0 0 0.36 0 0 0.365 0 0 0.37 0 0 0.375 0 0 0.38 0 0 0.385 0 0 0.39 0 0 0.395 0 0 0.4 0 0 0.405 0 0 0.41 0 0 0.415 0 0 0.42 0 0 0.425 0 0 0.43 0 0 0.435 0 0 0.44 0 0 0.445 0 0 0.45 0 0 0.455 0 0 0.46 0 0 0.465 0 0 0.47 0 0 0.475 0 0 0.48 0 0 0.485 0 0 0.49 0 0 0.495 0 0 0.5 0 0 0.505 0 0 0.51 0 0 0.515 0 0 0.52 0 0 0.525 0 0 0.53 0 0 0.535 0 0 0.54 0 0 0.545 0 0 0.55 0 0 0.555 0 0 0.56 0 0 0.565 0 0 0.57 0 0 0.575 0 0 0.58 0 0 0.585 0 0 0.59 0 0 0.595 0 0 0.6 0 0 0.605 0 0 0.61 0 0 0.615 0 0 0.62 0 0 0.625 0 0 0.63 0 0 0.635 0 0 0.64 0 0 0.645 0 0 0.65 0 0 0.655 0 0 0.66 0 0 0.665 0 0 0.67 0 0 0.675 0 0 0.68 0 0 0.685 0 0 0.69 0 0 0.695 0 0 0.7 0 0 0.705 0 0 0.71 0 0 0.715 0 0 0.72 0 0 0.725 0 0 0.73 0 0 0.735 0 0 0.74 0 0 0.745 0 0 0.75 0 0 0.755 0 0 0.76 0 0 0.765 0 0 0.77 0 0 0.775 0 0 0.78 0 0 0.785 0 0 0.79 0 0 0.795 0 0 0.8 0 0 0.805 0 0 0.81 0 0 0.815 0 0 0.82 0 0 0.825 0 0 0.83 0 0 0.835 0 0 0.84 0 0 0.845 0 0 0.85 0 0 0.855 0 0 0.86 0 0 0.865 0 0 0.87 0 0 0.875 0 0 0.88 0 0 0.885 0 0 0.89 0 0 0.895 0 0 0.9 0 0 0.905 0 0 0.91 0 0 0.915 0 0 0.92 0 0 0.925 0 0 0.93 0 0 0.935 0 0 0.94 0 0 0.945 0 0 0.95 0 0 0.955 0 0 0.96 0 0 0.965 0 0 0.97 0 0 0.975 0 0 0.98 0 0 0.985 0 0 0.99 0 0 0.995 0 0 1 0 0 0 0.02 0 0.005 0.02 0 0.01 0.02 0 0.015 0.02 0 0.02 0.02 0 0.025 0.02 0 0.03 0.02 0 0.035 0.02 0 0.04 0.02 0 0.045 0.02 0 0.05 0.02 0 0.055 0.02 0 0.06 0.02 0 0.065 0.02 0 0.07 0.02 0 0.075 0.02 0 0.08 0.02 0 0.085 0.02 0 0.09 0.02 0 0.095 0.02 0 0.1 0.02 0 0.105 0.02 0 0.11 0.02 0 0.115 0.02 0 0.12 0.02 0 0.125 0.02 0 0.13 0.02 0 0.135 0.02 0 0.14 0.02 0 0.145 0.02 0 0.15 0.02 0 0.155 0.02 0 0.16 0.02 0 0.165 0.02 0 0.17 0.02 0 0.175 0.02 0 0.18 0.02 0 0.185 0.02 0 0.19 0.02 0 0.195 0.02 0 0.2 0.02 0 0.205 0.02 0 0.21 0.02 0 0.215 0.02 0 0.22 0.02 0 0.225 0.02 0 0.23 0.02 0 0.235 0.02 0 0.24 0.02 0 0.245 0.02 0 0.25 0.02 0 0.255 0.02 0 0.26 0.02 0 0.265 0.02 0 0.27 0.02 0 0.275 0.02 0 0.28 0.02 0 0.285 0.02 0 0.29 0.02 0 0.295 0.02 0 0.3 0.02 0 0.305 0.02 0 0.31 0.02 0 0.315 0.02 0 0.32 0.02 0 0.325 0.02 0 0.33 0.02 0 0.335 0.02 0 0.34 0.02 0 0.345 0.02 0 0.35 0.02 0 0.355 0.02 0 0.36 0.02 0 0.365 0.02 0 0.37 0.02 0 0.375 0.02 0 0.38 0.02 0 0.385 0.02 0 0.39 0.02 0 0.395 0.02 0 0.4 0.02 0 0.405 0.02 0 0.41 0.02 0 0.415 0.02 0 0.42 0.02 0 0.425 0.02 0 0.43 0.02 0 0.435 0.02 0 0.44 0.02 0 0.445 0.02 0 0.45 0.02 0 0.455 0.02 0 0.46 0.02 0 0.465 0.02 0 0.47 0.02 0 0.475 0.02 0 0.48 0.02 0 0.485 0.02 0 0.49 0.02 0 0.495 0.02 0 0.5 0.02 0 0.505 0.02 0 0.51 0.02 0 0.515 0.02 0 0.52 0.02 0 0.525 0.02 0 0.53 0.02 0 0.535 0.02 0 0.54 0.02 0 0.545 0.02 0 0.55 0.02 0 0.555 0.02 0 0.56 0.02 0 0.565 0.02 0 0.57 0.02 0 0.575 0.02 0 0.58 0.02 0 0.585 0.02 0 0.59 0.02 0 0.595 0.02 0 0.6 0.02 0 0.605 0.02 0 0.61 0.02 0 0.615 0.02 0 0.62 0.02 0 0.625 0.02 0 0.63 0.02 0 0.635 0.02 0 0.64 0.02 0 0.645 0.02 0 0.65 0.02 0 0.655 0.02 0 0.66 0.02 0 0.665 0.02 0 0.67 0.02 0 0.675 0.02 0 0.68 0.02 0 0.685 0.02 0 0.69 0.02 0 0.695 0.02 0 0.7 0.02 0 0.705 0.02 0 0.71 0.02 0 0.715 0.02 0 0.72 0.02 0 0.725 0.02 0 0.73 0.02 0 0.735 0.02 0 0.74 0.02 0 0.745 0.02 0 0.75 0.02 0 0.755 0.02 0 0.76 0.02 0 0.765 0.02 0 0.77 0.02 0 0.775 0.02 0 0.78 0.02 0 0.785 0.02 0 0.79 0.02 0 0.795 0.02 0 0.8 0.02 0 0.805 0.02 0 0.81 0.02 0 0.815 0.02 0 0.82 0.02 0 0.825 0.02 0 0.83 0.02 0 0.835 0.02 0 0.84 0.02 0 0.845 0.02 0 0.85 0.02 0 0.855 0.02 0 0.86 0.02 0 0.865 0.02 0 0.87 0.02 0 0.875 0.02 0 0.88 0.02 0 0.885 0.02 0 0.89 0.02 0 0.895 0.02 0 0.9 0.02 0 0.905 0.02 0 0.91 0.02 0 0.915 0.02 0 0.92 0.02 0 0.925 0.02 0 0.93 0.02 0 0.935 0.02 0 0.94 0.02 0 0.945 0.02 0 0.95 0.02 0 0.955 0.02 0 0.96 0.02 0 0.965 0.02 0 0.97 0.02 0 0.975 0.02 0 0.98 0.02 0 0.985 0.02 0 0.99 0.02 0 0.995 0.02 0 1 0.02 0 0 0.04 0 0.005 0.04 0 0.01 0.04 0 0.015 0.04 0 0.02 0.04 0 0.025 0.04 0 0.03 0.04 0 0.035 0.04 0 0.04 0.04 0 0.045 0.04 0 0.05 0.04 0 0.055 0.04 0 0.06 0.04 0 0.065 0.04 0 0.07 0.04 0 0.075 0.04 0 0.08 0.04 0 0.085 0.04 0 0.09 0.04 0 0.095 0.04 0 0.1 0.04 0 0.105 0.04 0 0.11 0.04 0 0.115 0.04 0 0.12 0.04 0 0.125 0.04 0 0.13 0.04 0 0.135 0.04 0 0.14 0.04 0 0.145 0.04 0 0.15 0.04 0 0.155 0.04 0 0.16 0.04 0 0.165 0.04 0 0.17 0.04 0 0.175 0.04 0 0.18 0.04 0 0.185 0.04 0 0.19 0.04 0 0.195 0.04 0 0.2 0.04 0 0.205 0.04 0 0.21 0.04 0 0.215 0.04 0 0.22 0.04 0 0.225 0.04 0 0.23 0.04 0 0.235 0.04 0 0.24 0.04 0 0.245 0.04 0 0.25 0.04 0 0.255 0.04 0 0.26 0.04 0 0.265 0.04 0 0.27 0.04 0 0.275 0.04 0 0.28 0.04 0 0.285 0.04 0 0.29 0.04 0 0.295 0.04 0 0.3 0.04 0 0.305 0.04 0 0.31 0.04 0 0.315 0.04 0 0.32 0.04 0 0.325 0.04 0 0.33 0.04 0 0.335 0.04 0 0.34 0.04 0 0.345 0.04 0 0.35 0.04 0 0.355 0.04 0 0.36 0.04 0 0.365 0.04 0 0.37 0.04 0 0.375 0.04 0 0.38 0.04 0 0.385 0.04 0 0.39 0.04 0 0.395 0.04 0 0.4 0.04 0 0.405 0.04 0 0.41 0.04 0 0.415 0.04 0 0.42 0.04 0 0.425 0.04 0 0.43 0.04 0 0.435 0.04 0 0.44 0.04 0 0.445 0.04 0 0.45 0.04 0 0.455 0.04 0 0.46 0.04 0 0.465 0.04 0 0.47 0.04 0 0.475 0.04 0 0.48 0.04 0 0.485 0.04 0 0.49 0.04 0 0.495 0.04 0 0.5 0.04 0 0.505 0.04 0 0.51 0.04 0 0.515 0.04 0 0.52 0.04 0 0.525 0.04 0 0.53 0.04 0 0.535 0.04 0 0.54 0.04 0 0.545 0.04 0 0.55 0.04 0 0.555 0.04 0 0.56 0.04 0 0.565 0.04 0 0.57 0.04 0 0.575 0.04 0 0.58 0.04 0 0.585 0.04 0 0.59 0.04 0 0.595 0.04 0 0.6 0.04 0 0.605 0.04 0 0.61 0.04 0 0.615 0.04 0 0.62 0.04 0 0.625 0.04 0 0.63 0.04 0 0.635 0.04 0 0.64 0.04 0 0.645 0.04 0 0.65 0.04 0 0.655 0.04 0 0.66 0.04 0 0.665 0.04 0 0.67 0.04 0 0.675 0.04 0 0.68 0.04 0 0.685 0.04 0 0.69 0.04 0 0.695 0.04 0 0.7 0.04 0 0.705 0.04 0 0.71 0.04 0 0.715 0.04 0 0.72 0.04 0 0.725 0.04 0 0.73 0.04 0 0.735 0.04 0 0.74 0.04 0 0.745 0.04 0 0.75 0.04 0 0.755 0.04 0 0.76 0.04 0 0.765 0.04 0 0.77 0.04 0 0.775 0.04 0 0.78 0.04 0 0.785 0.04 0 0.79 0.04 0 0.795 0.04 0 0.8 0.04 0 0.805 0.04 0 0.81 0.04 0 0.815 0.04 0 0.82 0.04 0 0.825 0.04 0 0.83 0.04 0 0.835 0.04 0 0.84 0.04 0 0.845 0.04 0 0.85 0.04 0 0.855 0.04 0 0.86 0.04 0 0.865 0.04 0 0.87 0.04 0 0.875 0.04 0 0.88 0.04 0 0.885 0.04 0 0.89 0.04 0 0.895 0.04 0 0.9 0.04 0 0.905 0.04 0 0.91 0.04 0 0.915 0.04 0 0.92 0.04 0 0.925 0.04 0 0.93 0.04 0 0.935 0.04 0 0.94 0.04 0 0.945 0.04 0 0.95 0.04 0 0.955 0.04 0 0.96 0.04 0 0.965 0.04 0 0.97 0.04 0 0.975 0.04 0 0.98 0.04 0 0.985 0.04 0 0.99 0.04 0 0.995 0.04 0 1 0.04 0 0 0.06 0 0.005 0.06 0 0.01 0.06 0 0.015 0.06 0 0.02 0.06 0 0.025 0.06 0 0.03 0.06 0 0.035 0.06 0 0.04 0.06 0 0.045 0.06 0 0.05 0.06 0 0.055 0.06 0 0.06 0.06 0 0.065 0.06 0 0.07 0.06 0 0.075 0.06 0 0.08 0.06 0 0.085 0.06 0 0.09 0.06 0 0.095 0.06 0 0.1 0.06 0 0.105 0.06 0 0.11 0.06 0 0.115 0.06 0 0.12 0.06 0 0.125 0.06 0 0.13 0.06 0 0.135 0.06 0 0.14 0.06 0 0.145 0.06 0 0.15 0.06 0 0.155 0.06 0 0.16 0.06 0 0.165 0.06 0 0.17 0.06 0 0.175 0.06 0 0.18 0.06 0 0.185 0.06 0 0.19 0.06 0 0.195 0.06 0 0.2 0.06 0 0.205 0.06 0 0.21 0.06 0 0.215 0.06 0 0.22 0.06 0 0.225 0.06 0 0.23 0.06 0 0.235 0.06 0 0.24 0.06 0 0.245 0.06 0 0.25 0.06 0 0.255 0.06 0 0.26 0.06 0 0.265 0.06 0 0.27 0.06 0 0.275 0.06 0 0.28 0.06 0 0.285 0.06 0 0.29 0.06 0 0.295 0.06 0 0.3 0.06 0 0.305 0.06 0 0.31 0.06 0 0.315 0.06 0 0.32 0.06 0 0.325 0.06 0 0.33 0.06 0 0.335 0.06 0 0.34 0.06 0 0.345 0.06 0 0.35 0.06 0 0.355 0.06 0 0.36 0.06 0 0.365 0.06 0 0.37 0.06 0 0.375 0.06 0 0.38 0.06 0 0.385 0.06 0 0.39 0.06 0 0.395 0.06 0 0.4 0.06 0 0.405 0.06 0 0.41 0.06 0 0.415 0.06 0 0.42 0.06 0 0.425 0.06 0 0.43 0.06 0 0.435 0.06 0 0.44 0.06 0 0.445 0.06 0 0.45 0.06 0 0.455 0.06 0 0.46 0.06 0 0.465 0.06 0 0.47 0.06 0 0.475 0.06 0 0.48 0.06 0 0.485 0.06 0 0.49 0.06 0 0.495 0.06 0 0.5 0.06 0 0.505 0.06 0 0.51 0.06 0 0.515 0.06 0 0.52 0.06 0 0.525 0.06 0 0.53 0.06 0 0.535 0.06 0 0.54 0.06 0 0.545 0.06 0 0.55 0.06 0 0.555 0.06 0 0.56 0.06 0 0.565 0.06 0 0.57 0.06 0 0.575 0.06 0 0.58 0.06 0 0.585 0.06 0 0.59 0.06 0 0.595 0.06 0 0.6 0.06 0 0.605 0.06 0 0.61 0.06 0 0.615 0.06 0 0.62 0.06 0 0.625 0.06 0 0.63 0.06 0 0.635 0.06 0 0.64 0.06 0 0.645 0.06 0 0.65 0.06 0 0.655 0.06 0 0.66 0.06 0 0.665 0.06 0 0.67 0.06 0 0.675 0.06 0 0.68 0.06 0 0.685 0.06 0 0.69 0.06 0 0.695 0.06 0 0.7 0.06 0 0.705 0.06 0 0.71 0.06 0 0.715 0.06 0 0.72 0.06 0 0.725 0.06 0 0.73 0.06 0 0.735 0.06 0 0.74 0.06 0 0.745 0.06 0 0.75 0.06 0 0.755 0.06 0 0.76 0.06 0 0.765 0.06 0 0.77 0.06 0 0.775 0.06 0 0.78 0.06 0 0.785 0.06 0 0.79 0.06 0 0.795 0.06 0 0.8 0.06 0 0.805 0.06 0 0.81 0.06 0 0.815 0.06 0 0.82 0.06 0 0.825 0.06 0 0.83 0.06 0 0.835 0.06 0 0.84 0.06 0 0.845 0.06 0 0.85 0.06 0 0.855 0.06 0 0.86 0.06 0 0.865 0.06 0 0.87 0.06 0 0.875 0.06 0 0.88 0.06 0 0.885 0.06 0 0.89 0.06 0 0.895 0.06 0 0.9 0.06 0 0.905 0.06 0 0.91 0.06 0 0.915 0.06 0 0.92 0.06 0 0.925 0.06 0 0.93 0.06 0 0.935 0.06 0 0.94 0.06 0 0.945 0.06 0 0.95 0.06 0 0.955 0.06 0 0.96 0.06 0 0.965 0.06 0 0.97 0.06 0 0.975 0.06 0 0.98 0.06 0 0.985 0.06 0 0.99 0.06 0 0.995 0.06 0 1 0.06 0 0 0.08 0 0.005 0.08 0 0.01 0.08 0 0.015 0.08 0 0.02 0.08 0 0.025 0.08 0 0.03 0.08 0 0.035 0.08 0 0.04 0.08 0 0.045 0.08 0 0.05 0.08 0 0.055 0.08 0 0.06 0.08 0 0.065 0.08 0 0.07 0.08 0 0.075 0.08 0 0.08 0.08 0 0.085 0.08 0 0.09 0.08 0 0.095 0.08 0 0.1 0.08 0 0.105 0.08 0 0.11 0.08 0 0.115 0.08 0 0.12 0.08 0 0.125 0.08 0 0.13 0.08 0 0.135 0.08 0 0.14 0.08 0 0.145 0.08 0 0.15 0.08 0 0.155 0.08 0 0.16 0.08 0 0.165 0.08 0
[...]
			<PointData Scalars="VitesseX">
				<DataArray Name="VitesseX" type="Float32" format="ascii">
 0 -2.03476e-15 -5.40391e-15 1.15018e-15 -2.2261e-14 -2.53621e-14 -6.48196e-15 -4.47676e-14 -7.19194e-14 -3.52995e-14 -6.96638e-14 -4.59081e-14 -1.17686e-13 -2.64646e-14 -5.88531e-14 -6.0284e-14 4.23426e-14 -4.21802e-14 7.80059e-16 1.57774e-14 -8.44282e-14 4.9148e-14 1.78027e-14 -3.45299e-14 4.16036e-14 -9.24234e-14 -4.98397e-14 -1.04852e-13 -1.22237e-13 5.56338e-14 -6.19163e-14 1.35216e-13 -7.48131e-14 -2.62763e-14 6.46199e-14 -1.34418e-13 2.05308e-13 2.8031e-13 8.67183e-13 5.44668e-12 3.1556e-11 1.77389e-10 9.47529e-10 4.81633e-09 2.32003e-08 1.05702e-07 4.54292e-07 1.83645e-06 6.95913e-06 2.46244e-05 8.09907e-05 0.000246283 0.000688101 0.00175411 0.00405085 0.00842475 0.0157396 0.0264974 0.0405841 0.0573829 0.0761239 0.0961557 0.117027 0.13846 0.160283 0.182366 0.204636 0.227049 0.249575 0.272197 0.294903 0.317685 0.34054 0.363469 0.386476 0.409565 0.432728 0.455713 0.478503 0.501204 0.523735 0.546176 0.568535 0.590743 0.612936 0.634912 0.656894 0.678639 0.700268 0.721777 0.742917 0.764095 0.784777 0.805185 0.825191 0.844062 0.862235 0.878748 0.892972 0.905428 0.914838 0.921446 0.926423 0.92896 0.930157 0.930941 0.931005 0.930948 0.93085 0.930721 0.930555 0.930346 0.9301 0.929837 0.929585 0.929359 0.929156 0.928974 0.928814 0.928675 0.928556 0.928454 0.928367 0.928291 0.928226 0.928169 0.928119 0.928075 0.928037 0.928002 0.927971 0.927943 0.927918 0.927895 0.927874 0.927856 0.927838 0.927822 0.927807 0.927793 0.92778 0.927768 0.927755 0.927744 0.927732 0.927721 0.92771 0.927697 0.927683 0.927665 0.927639 0.927595 0.927514 0.927357 0.927045 0.926421 0.925174 0.922699 0.917844 0.908485 0.890961 0.8596 0.80705 0.726403 0.615392 0.481806 0.342542 0.217681 0.121535 0.059339 0.0258673 0.0104746 0.00408367 0.00156525 0.00059552 0.000225763 8.53987e-05 3.22454e-05 1.21535e-05 4.57177e-06 1.71599e-06 6.42498e-07 2.399e-07 8.93008e-08 3.31283e-08 1.2244e-08 4.50707e-09 1.65177e-09 6.01742e-10 2.1873e-10 7.84384e-11 2.83701e-11 9.63902e-12 3.78415e-12 2.9606e-13 1.34855e-13 4.37692e-13 -2.75067e-13 6.55772e-13 -3.96299e-13 0 0 -1.75815e-15 -3.72132e-15 -1.69032e-14 -1.4409e-14 -1.54668e-14 -3.86018e-14 -4.58912e-14 -4.71927e-14 -6.99585e-14 -6.32297e-14 -7.63328e-14 -5.33123e-14 -8.93427e-14 -2.89836e-14 -6.91547e-15 -6.43121e-14 3.56913e-14 1.19707e-14 2.68126e-15 2.69683e-14 -2.44165e-14 -1.84302e-15 -8.77831e-15 -5.64021e-14 1.64921e-14 -1.3818e-13 -6.48265e-14 -3.28283e-14 -6.25404e-14 2.19434e-14 -7.89239e-14 6.00572e-14 -7.79407e-15 -9.39276e-14 7.70452e-14 5.69955e-14 2.47887e-13 9.6859e-13 5.33686e-12 3.15841e-11 1.77186e-10 9.48009e-10 4.81615e-09 2.32005e-08 1.05702e-07 4.54292e-07 1.83645e-06 6.95913e-06 2.46244e-05 8.09907e-05 0.000246283 0.000688101 0.00175411 0.00405085 0.00842475 0.0157396 0.0264974 0.0405841 0.0573829 0.0761239 0.0961557 0.117027 0.13846 0.160283 0.182366 0.204636 0.227049 0.249575 0.272197 0.294903 0.317685 0.34054 0.363469 0.386476 0.409565 0.432728 0.455713 0.478503 0.501204 0.523735 0.546176 0.568535 0.590743 0.612936 0.634912 0.656894 0.678639 0.700268 0.721777 0.742917 0.764095 0.784777 0.805185 0.825191 0.844062 0.862235 0.878748 0.892972 0.905428 0.914838 0.921446 0.926423 0.92896 0.930157 0.930941 0.931005 0.930948 0.93085 0.930721 0.930555 0.930346 0.9301 0.929837 0.929585 0.929359 0.929156 0.928974 0.928814 0.928675 0.928556 0.928454 0.928367 0.928291 0.928226 0.928169 0.928119 0.928075 0.928037 0.928002 0.927971 0.927943 0.927918 0.927895 0.927874 0.927856 0.927838 0.927822 0.927807 0.927793 0.92778 0.927768 0.927755 0.927744 0.927732 0.927721 0.92771 0.927697 0.927683 0.927665 0.927639 0.927595 0.927514 0.927357 0.927045 0.926421 0.925174 0.922699 0.917844 0.908485 0.890961 0.8596 0.80705 0.726403 0.615392 0.481806 0.342542 0.217681 0.121535 0.059339 0.0258673 0.0104746 0.00408367 0.00156525 0.00059552 0.000225763 8.53987e-05 3.22454e-05 1.21535e-05 4.57177e-06 1.71599e-06 6.42498e-07 2.399e-07 8.93003e-08 3.31286e-08 1.22441e-08 4.50696e-09 1.65137e-09 6.02669e-10 2.17969e-10 7.88072e-11 2.79718e-11 9.90105e-12 3.03364e-12 1.46339e-12 1.2452e-13 -1.63631e-13 1.49894e-13 -6.40795e-13 2.46058e-13 0 0 -1.31293e-14 -2.22178e-14 -2.63496e-14 -3.96903e-14 -2.43497e-14 -4.2228e-14 -5.5091e-14 -7.21687e-14 -4.49612e-14 -4.56261e-14 -4.45351e-14 -8.63516e-14 -4.50814e-14 -5.0925e-14 -2.26237e-14 1.85228e-14 -2.91149e-14 5.63147e-14 2.38649e-14 3.83614e-14 -4.87772e-14 -3.52169e-15 -1.08806e-14 -2.20447e-14 -8.60338e-14 -2.91425e-14 -6.88674e-14 -1.23802e-13 -7.12044e-14 -2.41463e-14 5.89601e-14 -6.53033e-14 -1.82271e-14 -8.39155e-14 3.95904e-14 2.18173e-13 1.3808e-13 1.00243e-12 5.35675e-12 3.14834e-11 1.77276e-10 9.47852e-10 4.81643e-09 2.32005e-08 1.05701e-07 4.54292e-07 1.83645e-06 6.95913e-06 2.46244e-05 8.09907e-05 0.000246283 0.000688101 0.00175411 0.00405085 0.00842475 0.0157396 0.0264974 0.0405841 0.0573829 0.0761239 0.0961557 0.117027 0.13846 0.160283 0.182366 0.204636 0.227049 0.249575 0.272197 0.294903 0.317685 0.34054 0.363469 0.386476 0.409565 0.432728 0.455713 0.478503 0.501204 0.523735 0.546176 0.568535 0.590743 0.612936 0.634912 0.656894 0.678639 0.700268 0.721777 0.742917 0.764095 0.784777 0.805185 0.825191 0.844062 0.862235 0.878748 0.892972 0.905428 0.914838 0.921446 0.926423 0.92896 0.930157 0.930941 0.931005 0.930948 0.93085 0.930721 0.930555 0.930346 0.9301 0.929837 0.929585 0.929359 0.929156 0.928974 0.928814 0.928675 0.928556 0.928454 0.928367 0.928291 0.928226 0.928169 0.928119 0.928075 0.928037 0.928002 0.927971 0.927943 0.927918 0.927895 0.927874 0.927856 0.927838 0.927822 0.927807 0.927793 0.92778 0.927768 0.927755 0.927744 0.927732 0.927721 0.92771 0.927697 0.927683 0.927665 0.927639 0.927595 0.927514 0.927357 0.927045 0.926421 0.925174 0.922699 0.917844 0.908485 0.890961 0.8596 0.80705 0.726403 0.615392 0.481806 0.342542 0.217681 0.121535 0.059339 0.0258673 0.0104746 0.00408367 0.00156525 0.00059552 0.000225763 8.53987e-05 3.22454e-05 1.21535e-05 4.57177e-06 1.71598e-06 6.42498e-07 2.399e-07 8.93007e-08 3.31285e-08 1.22442e-08 4.50708e-09 1.65183e-09 6.02033e-10 2.18708e-10 7.82651e-11 2.77679e-11 9.69887e-12 3.25385e-12 1.42499e-12 4.28094e-13 -2.13137e-13 -5.20791e-13 2.27515e-13 -4.79648e-15 0 0 -1.14675e-14 -3.17593e-14 -3.09347e-14 -3.88885e-14 -6.85553e-14 -4.54319e-14 -5.14123e-14 -6.70058e-14 -5.19189e-14 -5.38144e-14 1.29608e-14 -2.74225e-14 -3.39707e-14 -6.02707e-14 -2.44561e-14 1.63418e-14 -1.5707e-14 6.71865e-14 2.38423e-14 -1.11329e-13 -1.61631e-14 8.52327e-15 -5.92638e-14 1.98777e-14 -3.73316e-14 -3.34271e-14 -1.10687e-13 -2.14148e-13 5.49554e-14 -5.78543e-14 -7.03873e-17 -5.22938e-14 -1.02513e-14 1.61335e-13 -4.49371e-14 1.30787e-13 2.24265e-13 9.29317e-13 5.47571e-12 3.14176e-11 1.77118e-10 9.47847e-10 4.81651e-09 2.32005e-08 1.05702e-07 4.54292e-07 1.83645e-06 6.95913e-06 2.46244e-05 8.09907e-05 0.000246283 0.000688101 0.00175411 0.00405085 0.00842475 0.0157396 0.0264974 0.0405841 0.0573829 0.0761239 0.0961557 0.117027 0.13846 0.160283 0.182366 0.204636 0.227049 0.249575 0.272197 0.294903 0.317685 0.34054 0.363469 0.386476 0.409565 0.432728 0.455713 0.478503 0.501204 0.523735 0.546176 0.568535 0.590743 0.612936 0.634912 0.656894 0.678639 0.700268 0.721777 0.742917 0.764095 0.784777 0.805185 0.825191 0.844062 0.862235 0.878748 0.892972 0.905428 0.914838 0.921446 0.926423 0.92896 0.930157 0.930941 0.931005 0.930948 0.93085 0.930721 0.930555 0.930346 0.9301 0.929837 0.929585 0.929359 0.929156 0.928974 0.928814 0.928675 0.928556 0.928454 0.928367 0.928291 0.928226 0.928169 0.928119 0.928075 0.928037 0.928002 0.927971 0.927943 0.927918 0.927895 0.927874 0.927856 0.927838 0.927822 0.927807 0.927793 0.92778 0.927768 0.927755 0.927744 0.927732 0.927721 0.92771 0.927697 0.927683 0.927665 0.927639 0.927595 0.927514 0.927357 0.927045 0.926421 0.925174 0.922699 0.917844 0.908485 0.890961 0.8596 0.80705 0.726403 0.615392 0.481806 0.342542 0.217681 0.121535 0.059339 0.0258673 0.0104746 0.00408367 0.00156525 0.00059552 0.000225763 8.53987e-05 3.22454e-05 1.21535e-05 4.57177e-06 1.71599e-06 6.42498e-07 2.399e-07 8.93008e-08 3.31285e-08 1.22442e-08 4.50731e-09 1.65158e-09 6.02389e-10 2.18504e-10 7.86444e-11 2.80944e-11 1.00578e-11 3.03145e-12 3.26139e-13 4.04917e-13 6.915e-13 1.09718e-13 2.07628e-13 -7.884e-13 0 0 -2.65785e-16 -1.27117e-14 -3.34069e-14 -3.68669e-14 -6.83181e-14 -4.17167e-14 -5.85525e-14 -3.6166e-14 -3.74518e-14 -4.51793e-14 -3.36675e-14 3.17887e-14 -5.55149e-14 -2.23573e-14 3.39618e-14 -6.94357e-14 5.0828e-14 -3.88271e-14 -5.384e-14 -1.11432e-13 -5.47923e-14 -3.34813e-14 -2.67018e-14 -4.80008e-14 6.39428e-14 -1.38049e-13 -7.39635e-14 -5.93053e-14 -6.07595e-14 5.04682e-14 -1.29988e-13 1.52683e-13 5.83733e-14 1.11226e-13 6.40512e-14 -3.52904e-14 2.33744e-13 9.38734e-13 5.35269e-12 3.14819e-11 1.77045e-10 9.48053e-10 4.81631e-09 2.32006e-08 1.05701e-07 4.54292e-07 1.83645e-06 6.95913e-06 2.46244e-05 8.09907e-05 0.000246283 0.000688101 0.00175411 0.00405085 0.00842475 0.0157396 0.0264974 0.0405841 0.0573829 0.0761239 0.0961557 0.117027 0.13846 0.160283 0.182366 0.204636 0.227049 0.249575 0.272197 0.294903 0.317685 0.34054 0.363469 0.386476 0.409565 0.432728 0.455713 0.478503 0.501204 0.523735 0.546176 0.568535 0.590743 0.612936 0.634912 0.656894 0.678639 0.700268 0.721777 0.742917 0.764095 0.784777 0.805185 0.825191 0.844062 0.862235 0.878748 0.892972 0.905428 0.914838 0.921446 0.926423 0.92896 0.930157 0.930941 0.931005 0.930948 0.93085 0.930721 0.930555 0.930346 0.9301 0.929837 0.929585 0.929359 0.929156 0.928974 0.928814 0.928675 0.928556 0.928454 0.928367 0.928291 0.928226 0.928169 0.928119 0.928075 0.928037 0.928002 0.927971 0.927943 0.927918 0.927895 0.927874 0.927856 0.927838 0.927822 0.927807 0.927793 0.92778 0.927768 0.927755 0.927744 0.927732 0.927721 0.92771 0.927697 0.927683 0.927665 0.927639 0.927595 0.927514 0.927357 0.927045 0.926421 0.925174 0.922699 0.917844 0.908485 0.890961 0.8596 0.80705 0.726403 0.615392 0.481806 0.342542 0.217681 0.121535 0.059339 0.0258673 0.0104746 0.00408367 0.00156525 0.00059552 0.000225763 8.53987e-05 3.22454e-05 1.21535e-05 4.57177e-06 1.71599e-06 6.42498e-07 2.399e-07 8.93004e-08 3.31285e-08 1.22442e-08 4.50704e-09 1.65127e-09 6.02738e-10 2.17825e-10 7.91945e-11 2.80254e-11 1.01457e-11 2.69832e-12 7.97675e-13 1.80639e-13 3.88751e-13 6.56579e-13 -8.56127e-13 -4.67464e-13 0 0 -2.37365e-15 -4.30181e-15 -2.2687e-14 -6.87803e-14 -4.26535e-14 -6.30401e-15 -7.74473e-14 -6.01917e-14 4.36293e-14 -1.71862e-14 -7.55693e-14 -6.53425e-14 1.89697e-14 -2.69091e-14 2.51354e-14 3.64575e-14 -3.87223e-14 -1.22559e-13 -9.72199e-14 -6.18487e-14 -7.68318e-14 -6.95637e-14 2.63896e-14 -2.54384e-14 -9.49265e-14 -4.10082e-14 -3.94857e-14 5.5e-15 -1.93124e-13 6.25492e-14 1.5115e-13 8.44201e-14 9.01068e-14 -1.5574e-14 8.64905e-15 1.95507e-13 7.96533e-14 9.537e-13 5.24044e-12 3.14831e-11 1.77424e-10 9.47627e-10 4.81646e-09 2.32006e-08 1.05701e-07 4.54292e-07 1.83645e-06 6.95913e-06 2.46244e-05 8.09907e-05 0.000246283 0.000688101 0.00175411 0.00405085 0.00842475 0.0157396 0.0264974 0.0405841 0.0573829 0.0761239 0.0961557 0.117027 0.13846 0.160283 0.182366 0.204636 0.227049 0.249575 0.272197 0.294903 0.317685 0.34054 0.363469 0.386476 0.409565 0.432728 0.455713 0.478503 0.501204 0.523735 0.546176 0.568535 0.590743 0.612936 0.634912 0.656894 0.678639 0.700268 0.721777 0.742917 0.764095 0.784777 0.805185 0.825191 0.844062 0.862235 0.878748 0.892972 0.905428 0.914838 0.921446 0.926423 0.92896 0.930157 0.930941 0.931005 0.930948 0.93085 0.930721 0.930555 0.930346 0.9301 0.929837 0.929585 0.929359 0.929156 0.928974 0.928814 0.928675 0.928556 0.928454 0.928367 0.928291 0.928226 0.928169 0.928119 0.928075 0.928037 0.928002 0.927971 0.927943 0.927918 0.927895 0.927874 0.927856 0.927838 0.927822 0.927807 0.927793 0.92778 0.927768 0.927755 0.927744 0.927732 0.927721 0.92771 0.927697 0.927683 0.927665 0.927639 0.927595 0.927514 0.927357 0.927045 0.926421 0.925174 0.922699 0.917844 0.908485 0.890961 0.8596 0.80705 0.726403 0.615392 0.481806 0.342542 0.217681 0.121535 0.059339 0.0258673 0.0104746 0.00408367 0.00156525 0.00059552 0.000225763 8.53987e-05 3.22454e-05 1.21535e-05 4.57177e-06 1.71599e-06 6.42498e-07 2.39901e-07 8.93006e-08 3.31282e-08 1.22442e-08 4.50676e-09 1.65206e-09 6.01167e-10 2.18848e-10 7.84543e-11 2.78243e-11 9.41038e-12 3.55832e-12 1.16234e-12 2.93447e-13 -2.66818e-13 -5.22714e-13 2.64882e-13 -2.56135e-13 0
				</DataArray>
				<DataArray Name="VitesseY" type="Float32" format="ascii">