<?xml version="1.0"?>
<VTKFile type="PolyData">
	<PolyData>
		<Piece NumberOfPoints="1206" NumberOfPolys="1000">
			<Points>
				<DataArray type="Float32" NumberOfComponents="3" format="ascii">
 0 0 0 0.005 0 0 0.01 0 0 0.015 0 0 0.02 0 0 0.025 0 0 0.03 0 0 0.035 0 0 0.04 0 0 0.045 0 0 0.05 0 0 0.055 0 0 0.06 0 0 0.065 0 0 0.07 0 0 0.075 0 0 0.08 0 0 0.085 0 0 0.09 0 0 0.095 0 0 0.1 0 0 0.105 0 0 0.11 0 0 0.115 0 0 0.12 0 0 0.125 0 0 0.13 0 0 0.135 0 0 0.14 0 0 0.145 0 0 0.15 0 0 0.155 0 0 0.16 0 0 0.165 0 0 0.17 0 0 0.175 0 0 0.18 0 0 0.185 0 0 0.19 0 0 0.195 0 0 0.2 0 0 0.205 0 0 0.21 0 0 0.215 0 0 0.22 0 0 0.225 0 0 0.23 0 0 0.235 0 0 0.24 0 0 0.245 0 0 0.25 0 0 0.255 0 0 0.26 0 0 0.265 0 0 0.27 0 0 0.275 0 0 0.28 0 0 0.285 0 0 0.29 0 0 0.295 0 0 0.3 0 0 0.305 0 0 0.31 0 0 0.315 0 0 0.32 0 0 0.325 0 0 0.33 0 0 0.335 0 0 0.34 0 0 0.345 0 0 0.35 0 0 0.355 0 0 0.36 0 0 0.365 0 0 0.37 0 0 0.375 0 0 0.38 0 0 0.385 0 0 0.39 0 0 0.395 0 0 0.4 0 0 0.405 0 0 0.41 0 0 0.415 0 0 0.42 0 0 0.425 0 0 0.43 0 0 0.435 0 0 0.44 0 0 0.445 0 0 0.45 0 0 0.455 0 0 0.46 0 0 0.465 0 0 0.47 0 0 0.475 0 0 0.48 0 0 0.485 0 0 0.49 0 0 0.495 0 0 0.5 0 0 0.505 0 0 0.51 0 0 0.515 0 0 0.52 0 0 0.525 0 0 0.53 0 0 0.535 0 0 0.54 0 0 0.545 0 0 0.55 0 0 0.555 0 0 0.56 0 0 0.565 0 0 0.57 0 0 0.575 0 0 0.58 0 0 0.585 0 0 0.59 0 0 0.595 0 0 0.6 0 0 0.605 0 0 0.61 0 0 0.615 0 0 0.62 0 0 0.625 0 0 0.63 0 0 0.635 0 0 0.64 0 0 0.645 0 0 0.65 0 0 0.655 0 0 0.66 0 0 0.665 0 0 0.67 0 0 0.675 0 0 0.68 0 0 0.685 0 0 0.69 0 0 0.695 0 0 0.7 0 0 0.705 0 0 0.71 0 0 0.715 0 0 0.72 0 0 0.725 0 0 0.73 0 0 0.735 0 0 0.74 0 0 0.745 0 0 0.75 0 0 0.755 0 0 0.76 0 0 0.765 0 0 0.77 0 0 0.775 0 0 0.78 0 0 0.785 0 0 0.79 0 0 0.795 0 0 0.8 0 0 0.805 0 0 0.81 0 0 0.815 0 0 0.82 0 0 0.825 0 0 0.83 0 0 0.835 0 0 0.84 0 0 0.845 0 0 0.85 0 0 0.855 0 0 0.86 0 0 0.865 0 0 0.87 0 0 0.875 0 0 0.88 0 0 0.885 0 0 0.89 0 0 0.895 0 0 0.9 0 0 0.905 0 0 0.91 0 0 0.915 0 0 0.92 0 0 0.925 0 0 0.93 0 0 0.935 0 0 0.94 0 0 0.945 0 0 0.95 0 0 0.955 0 0 0.96 0 0 0.965 0 0 0.97 0 0 0.975 0 0 0.98 0 0 0.985 0 0 0.99 0 0 0.995 0 0 1 0 0 0 0.02 0 0.005 0.02 0 0.01 0.02 0 0.015 0.02 0 0.02 0.02 0 0.025 0.02 0 0.03 0.02 0 0.035 0.02 0 0.04 0.02 0 0.045 0.02 0 0.05 0.02 0 0.055 0.02 0 0.06 0.02 0 0.065 0.02 0 0.07 0.02 0 0.075 0.02 0 0.08 0.02 0 0.085 0.02 0 0.09 0.02 0 0.095 0.02 0 0.1 0.02 0 0.105 0.02 0 0.11 0.02 0 0.115 0.02 0 0.12 0.02 0 0.125 0.02 0 0.13 0.02 0 0.135 0.02 0 0.14 0.02 0 0.145 0.02 0 0.15 0.02 0 0.155 0.02 0 0.16 0.02 0 0.165 0.02 0 0.17 0.02 0 0.175 0.02 0 0.18 0.02 0 0.185 0.02 0 0.19 0.02 0 0.195 0.02 0 0.2 0.02 0 0.205 0.02 0 0.21 0.02 0 0.215 0.02 0 0.22 0.02 0 0.225 0.02 0 0.23 0.02 0 0.235 0.02 0 0.24 0.02 0 0.245 0.02 0 0.25 0.02 0 0.255 0.02 0 0.26 0.02 0 0.265 0.02 0 0.27 0.02 0 0.275 0.02 0 0.28 0.02 0 0.285 0.02 0 0.29 0.02 0 0.295 0.02 0 0.3 0.02 0 0.305 0.02 0 0.31 0.02 0 0.315 0.02 0 0.32 0.02 0 0.325 0.02 0 0.33 0.02 0 0.335 0.02 0 0.34 0.02 0 0.345 0.02 0 0.35 0.02 0 0.355 0.02 0 0.36 0.02 0 0.365 0.02 0 0.37 0.02 0 0.375 0.02 0 0.38 0.02 0 0.385 0.02 0 0.39 0.02 0 0.395 0.02 0 0.4 0.02 0 0.405 0.02 0 0.41 0.02 0 0.415 0.02 0 0.42 0.02 0 0.425 0.02 0 0.43 0.02 0 0.435 0.02 0 0.44 0.02 0 0.445 0.02 0 0.45 0.02 0 0.455 0.02 0 0.46 0.02 0 0.465 0.02 0 0.47 0.02 0 0.475 0.02 0 0.48 0.02 0 0.485 0.02 0 0.49 0.02 0 0.495 0.02 0 0.5 0.02 0 0.505 0.02 0 0.51 0.02 0 0.515 0.02 0 0.52 0.02 0 0.525 0.02 0 0.53 0.02 0 0.535 0.02 0 0.54 0.02 0 0.545 0.02 0 0.55 0.02 0 0.555 0.02 0 0.56 0.02 0 0.565 0.02 0 0.57 0.02 0 0.575 0.02 0 0.58 0.02 0 0.585 0.02 0 0.59 0.02 0 0.595 0.02 0 0.6 0.02 0 0.605 0.02 0 0.61 0.02 0 0.615 0.02 0 0.62 0.02 0 0.625 0.02 0 0.63 0.02 0 0.635 0.02 0 0.64 0.02 0 0.645 0.02 0 0.65 0.02 0 0.655 0.02 0 0.66 0.02 0 0.665 0.02 0 0.67 0.02 0 0.675 0.02 0 0.68 0.02 0 0.685 0.02 0 0.69 0.02 0 0.695 0.02 0 0.7 0.02 0 0.705 0.02 0 0.71 0.02 0 0.715 0.02 0 0.72 0.02 0 0.725 0.02 0 0.73 0.02 0 0.735 0.02 0 0.74 0.02 0 0.745 0.02 0 0.75 0.02 0 0.755 0.02 0 0.76 0.02 0 0.765 0.02 0 0.77 0.02 0 0.775 0.02 0 0.78 0.02 0 0.785 0.02 0 0.79 0.02 0 0.795 0.02 0 0.8 0.02 0 0.805 0.02 0 0.81 0.02 0 0.815 0.02 0 0.82 0.02 0 0.825 0.02 0 0.83 0.02 0 0.835 0.02 0 0.84 0.02 0 0.845 0.02 0 0.85 0.02 0 0.855 0.02 0 0.86 0.02 0 0.865 0.02 0 0.87 0.02 0 0.875 0.02 0 0.88 0.02 0 0.885 0.02 0 0.89 0.02 0 0.895 0.02 0 0.9 0.02 0 0.905 0.02 0 0.91 0.02 0 0.915 0.02 0 0.92 0.02 0 0.925 0.02 0 0.93 0.02 0 0.935 0.02 0 0.94 0.02 0 0.945 0.02 0 0.95 0.02 0 0.955 0.02 0 0.96 0.02 0 0.965 0.02 0 0.97 0.02 0 0.975 0.02 0 0.98 0.02 0 0.985 0.02 0 0.99 0.02 0 0.995 0.02 0 1 0.02 0 0 0.04 0 0.005 0.04 0 0.01 0.04 0 0.015 0.04 0 0.02 0.04 0 0.025 0.04 0 0.03 0.04 0 0.035 0.04 0 0.04 0.04 0 0.045 0.04 0 0.05 0.04 0 0.055 0.04 0 0.06 0.04 0 0.065 0.04 0 0.07 0.04 0 0.075 0.04 0 0.08 0.04 0 0.085 0.04 0 0.09 0.04 0 0.095 0.04 0 0.1 0.04 0 0.105 0.04 0 0.11 0.04 0 0.115 0.04 0 0.12 0.04 0 0.125 0.04 0 0.13 0.04 0 0.135 0.04 0 0.14 0.04 0 0.145 0.04 0 0.15 0.04 0 0.155 0.04 0 0.16 0.04 0 0.165 0.04 0 0.17 0.04 0 0.175 0.04 0 0.18 0.04 0 0.185 0.04 0 0.19 0.04 0 0.195 0.04 0 0.2 0.04 0 0.205 0.04 0 0.21 0.04 0 0.215 0.04 0 0.22 0.04 0 0.225 0.04 0 0.23 0.04 0 0.235 0.04 0 0.24 0.04 0 0.245 0.04 0 0.25 0.04 0 0.255 0.04 0 0.26 0.04 0 0.265 0.04 0 0.27 0.04 0 0.275 0.04 0 0.28 0.04 0 0.285 0.04 0 0.29 0.04 0 0.295 0.04 0 0.3 0.04 0 0.305 0.04 0 0.31 0.04 0 0.315 0.04 0 0.32 0.04 0 0.325 0.04 0 0.33 0.04 0 0.335 0.04 0 0.34 0.04 0 0.345 0.04 0 0.35 0.04 0 0.355 0.04 0 0.36 0.04 0 0.365 0.04 0 0.37 0.04 0 0.375 0.04 0 0.38 0.04 0 0.385 0.04 0 0.39 0.04 0 0.395 0.04 0 0.4 0.04 0 0.405 0.04 0 0.41 0.04 0 0.415 0.04 0 0.42 0.04 0 0.425 0.04 0 0.43 0.04 0 0.435 0.04 0 0.44 0.04 0 0.445 0.04 0 0.45 0.04 0 0.455 0.04 0 0.46 0.04 0 0.465 0.04 0 0.47 0.04 0 0.475 0.04 0 0.48 0.04 0 0.485 0.04 0 0.49 0.04 0 0.495 0.04 0 0.5 0.04 0 0.505 0.04 0 0.51 0.04 0 0.515 0.04 0 0.52 0.04 0 0.525 0.04 0 0.53 0.04 0 0.535 0.04 0 0.54 0.04 0 0.545 0.04 0 0.55 0.04 0 0.555 0.04 0 0.56 0.04 0 0.565 0.04 0 0.57 0.04 0 0.575 0.04 0 0.58 0.04 0 0.585 0.04 0 0.59 0.04 0 0.595 0.04 0 0.6 0.04 0 0.605 0.04 0 0.61 0.04 0 0.615 0.04 0 0.62 0.04 0 0.625 0.04 0 0.63 0.04 0 0.635 0.04 0 0.64 0.04 0 0.645 0.04 0 0.65 0.04 0 0.655 0.04 0 0.66 0.04 0 0.665 0.04 0 0.67 0.04 0 0.675 0.04 0 0.68 0.04 0 0.685 0.04 0 0.69 0.04 0 0.695 0.04 0 0.7 0.04 0 0.705 0.04 0 0.71 0.04 0 0.715 0.04 0 0.72 0.04 0 0.725 0.04 0 0.73 0.04 0 0.735 0.04 0 0.74 0.04 0 0.745 0.04 0 0.75 0.04 0 0.755 0.04 0 0.76 0.04 0 0.765 0.04 0 0.77 0.04 0 0.775 0.04 0 0.78 0.04 0 0.785 0.04 0 0.79 0.04 0 0.795 0.04 0 0.8 0.04 0 0.805 0.04 0 0.81 0.04 0 0.815 0.04 0 0.82 0.04 0 0.825 0.04 0 0.83 0.04 0 0.835 0.04 0 0.84 0.04 0 0.845 0.04 0 0.85 0.04 0 0.855 0.04 0 0.86 0.04 0 0.865 0.04 0 0.87 0.04 0 0.875 0.04 0 0.88 0.04 0 0.885 0.04 0 0.89 0.04 0 0.895 0.04 0 0.9 0.04 0 0.905 0.04 0 0.91 0.04 0 0.915 0.04 0 0.92 0.04 0 0.925 0.04 0 0.93 0.04 0 0.935 0.04 0 0.94 0.04 0 0.945 0.04 0 0.95 0.04 0 0.955 0.04 0 0.96 0.04 0 0.965 0.04 0 0.97 0.04 0 0.975 0.04 0 0.98 0.04 0 0.985 0.04 0 0.99 0.04 0 0.995 0.04 0 1 0.04 0 0 0.06 0 0.005 0.06 0 0.01 0.06 0 0.015 0.06 0 0.02 0.06 0 0.025 0.06 0 0.03 0.06 0 0.035 0.06 0 0.04 0.06 0 0.045 0.06 0 0.05 0.06 0 0.055 0.06 0 0.06 0.06 0 0.065 0.06 0 0.07 0.06 0 0.075 0.06 0 0.08 0.06 0 0.085 0.06 0 0.09 0.06 0 0.095 0.06 0 0.1 0.06 0 0.105 0.06 0 0.11 0.06 0 0.115 0.06 0 0.12 0.06 0 0.125 0.06 0 0.13 0.06 0 0.135 0.06 0 0.14 0.06 0 0.145 0.06 0 0.15 0.06 0 0.155 0.06 0 0.16 0.06 0 0.165 0.06 0 0.17 0.06 0 0.175 0.06 0 0.18 0.06 0 0.185 0.06 0 0.19 0.06 0 0.195 0.06 0 0.2 0.06 0 0.205 0.06 0 0.21 0.06 0 0.215 0.06 0 0.22 0.06 0 0.225 0.06 0 0.23 0.06 0 0.235 0.06 0 0.24 0.06 0 0.245 0.06 0 0.25 0.06 0 0.255 0.06 0 0.26 0.06 0 0.265 0.06 0 0.27 0.06 0 0.275 0.06 0 0.28 0.06 0 0.285 0.06 0 0.29 0.06 0 0.295 0.06 0 0.3 0.06 0 0.305 0.06 0 0.31 0.06 0 0.315 0.06 0 0.32 0.06 0 0.325 0.06 0 0.33 0.06 0 0.335 0.06 0 0.34 0.06 0 0.345 0.06 0 0.35 0.06 0 0.355 0.06 0 0.36 0.06 0 0.365 0.06 0 0.37 0.06 0 0.375 0.06 0 0.38 0.06 0 0.385 0.06 0 0.39 0.06 0 0.395 0.06 0 0.4 0.06 0 0.405 0.06 0 0.41 0.06 0 0.415 0.06 0 0.42 0.06 0 0.425 0.06 0 0.43 0.06 0 0.435 0.06 0 0.44 0.06 0 0.445 0.06 0 0.45 0.06 0 0.455 0.06 0 0.46 0.06 0 0.465 0.06 0 0.47 0.06 0 0.475 0.06 0 0.48 0.06 0 0.485 0.06 0 0.49 0.06 0 0.495 0.06 0 0.5 0.06 0 0.505 0.06 0 0.51 0.06 0 0.515 0.06 0 0.52 0.06 0 0.525 0.06 0 0.53 0.06 0 0.535 0.06 0 0.54 0.06 0 0.545 0.06 0 0.55 0.06 0 0.555 0.06 0 0.56 0.06 0 0.565 0.06 0 0.57 0.06 0 0.575 0.06 0 0.58 0.06 0 0.585 0.06 0 0.59 0.06 0 0.595 0.06 0 0.6 0.06 0 0.605 0.06 0 0.61 0.06 0 0.615 0.06 0 0.62 0.06 0 0.625 0.06 0 0.63 0.06 0 0.635 0.06 0 0.64 0.06 0 0.645 0.06 0 0.65 0.06 0 0.655 0.06 0 0.66 0.06 0 0.665 0.06 0 0.67 0.06 0 0.675 0.06 0 0.68 0.06 0 0.685 0.06 0 0.69 0.06 0 0.695 0.06 0 0.7 0.06 0 0.705 0.06 0 0.71 0.06 0 0.715 0.06 0 0.72 0.06 0 0.725 0.06 0 0.73 0.06 0 0.735 0.06 0 0.74 0.06 0 0.745 0.06 0 0.75 0.06 0 0.755 0.06 0 0.76 0.06 0 0.765 0.06 0 0.77 0.06 0 0.775 0.06 0 0.78 0.06 0 0.785 0.06 0 0.79 0.06 0 0.795 0.06 0 0.8 0.06 0 0.805 0.06 0 0.81 0.06 0 0.815 0.06 0 0.82 0.06 0 0.825 0.06 0 0.83 0.06 0 0.835 0.06 0 0.84 0.06 0 0.845 0.06 0 0.85 0.06 0 0.855 0.06 0 0.86 0.06 0 0.865 0.06 0 0.87 0.06 0 0.875 0.06 0 0.88 0.06 0 0.885 0.06 0 0.89 0.06 0 0.895 0.06 0 0.9 0.06 0 0.905 0.06 0 0.91 0.06 0 0.915 0.06 0 0.92 0.06 0 0.925 0.06 0 0.93 0.06 0 0.935 0.06 0 0.94 0.06 0 0.945 0.06 0 0.95 0.06 0 0.955 0.06 0 0.96 0.06 0 0.965 0.06 0 0.97 0.06 0 0.975 0.06 0 0.98 0.06 0 0.985 0.06 0 0.99 0.06 0 0.995 0.06 0 1 0.06 0 0 0.08 0 0.005 0.08 0 0.01 0.08 0 0.015 0.08 0 0.02 0.08 0 0.025 0.08 0 0.03 0.08 0 0.035 0.08 0 0.04 0.08 0 0.045 0.08 0 0.05 0.08 0 0.055 0.08 0 0.06 0.08 0 0.065 0.08 0 0.07 0.08 0 0.075 0.08 0 0.08 0.08 0 0.085 0.08 0 0.09 0.08 0 0.095 0.08 0 0.1 0.08 0 0.105 0.08 0 0.11 0.08 0 0.115 0.08 0 0.12 0.08 0 0.125 0.08 0 0.13 0.08 0 0.135 0.08 0 0.14 0.08 0 0.145 0.08 0 0.15 0.08 0 0.155 0.08 0 0.16 0.08 0 0.165 0.08 0
[...]
			<PointData Scalars="VitesseX">
				<DataArray Name="VitesseX" type="Float32" format="ascii">
 0 -2.49048e-14 -1.61648e-14 -5.25003e-14 -2.65845e-14 -1.0628e-15 2.42411e-14 -4.47624e-14 -6.25429e-14 -9.2824e-14 -4.46669e-14 6.21599e-14 -8.36414e-14 4.49014e-15 -1.2243e-13 2.44161e-15 -4.00481e-14 -2.61193e-13 -5.63341e-14 1.51281e-14 7.21511e-16 -1.14655e-13 -3.48811e-14 9.47145e-14 1.29139e-13 -3.39654e-14 -2.05896e-13 -8.50127e-14 7.42662e-14 6.56787e-14 -6.48882e-14 -1.74135e-13 -1.07771e-13 -3.74101e-14 5.38097e-15 -9.30712e-14 -3.0664e-13 1.00404e-13 -1.29998e-13 2.32746e-13 -1.05387e-13 -2.22198e-13 8.11901e-14 1.68864e-13 -2.6073e-13 -1.31435e-13 -5.90081e-13 -2.8208e-14 -1.74012e-14 3.06364e-13 -1.96733e-13 -5.95637e-13 2.14205e-13 -4.07073e-14 6.46865e-13 7.76552e-14 -3.84719e-13 1.27875e-13 -2.17572e-13 2.2151e-13 -3.80741e-13 -4.4036e-13 2.61844e-13 -2.24041e-13 -1.44989e-14 -1.61202e-13 -8.51614e-15 6.27868e-13 -2.46953e-13 -1.04471e-13 7.90533e-14 -3.6391e-13 3.6237e-13 -8.73002e-13 -5.13773e-16 -6.05663e-13 4.56847e-13 2.00857e-14 -5.06004e-13 4.25864e-12 5.55409e-11 8.73202e-10 1.20858e-08 1.47123e-07 1.55792e-06 1.41638e-05 0.000108761 0.000690603 0.00352752 0.0140182 0.042066 0.0950615 0.16944 0.257248 0.354167 0.457915 0.55504 0.642648 0.719922 0.799033 0.846086 0.889002 0.920914 0.925913 0.927932 0.933024 0.934655 0.933896 0.931335 0.926745 0.918594 0.901434 0.864921 0.796607 0.688673 0.545495 0.387195 0.240617 0.127191 0.0560047 0.0208792 0.00693437 0.00214876 0.00063608 0.000181457 5.00196e-05 1.33325e-05 3.43682e-06 8.56871e-07 2.06653e-07 4.82189e-08 1.08884e-08 2.37965e-09 5.03024e-10 1.03109e-10 2.09568e-11 4.24143e-12 2.6643e-13 -8.91415e-14 -3.17386e-14 -1.71974e-13 2.34851e-13 1.01492e-12 -6.148e-13 -6.27231e-13 -3.82175e-13 6.1523e-13 1.90486e-13 -5.10051e-13 -3.45409e-13 1.43791e-12 1.87154e-13 5.91055e-13 -5.34832e-13 -5.10306e-13 4.32697e-13 4.75621e-13 -2.11562e-13 -1.10673e-12 -1.29197e-12 9.83828e-13 1.52263e-12 -6.59218e-13 -1.3135e-12 -7.08545e-13 1.05186e-12 4.05772e-13 -9.05782e-14 -2.56476e-13 7.70381e-13 -5.73088e-13 -3.65145e-13 6.36952e-13 4.89717e-13 4.67668e-13 -8.30086e-13 -7.09766e-13 1.07235e-12 3.64294e-13 1.14105e-13 -1.37545e-12 -7.20569e-13 3.13561e-13 -1.93568e-13 7.80108e-14 -1.50543e-12 8.00676e-14 8.64992e-13 9.83045e-13 1.6682e-13 -2.21447e-12 2.39049e-13 1.77485e-12 -6.71531e-13 -1.89125e-12 -1.08494e-12 1.3289e-12 1.54324e-12 -2.16678e-12 -2.04684e-12 0 0 6.96311e-15 -1.57656e-14 6.58296e-15 -1.88533e-14 -6.21695e-14 -7.18722e-14 -1.98907e-14 -8.15413e-15 3.50679e-14 -2.65533e-14 -8.71405e-14 2.3585e-14 -5.87692e-14 -5.79786e-15 -9.606e-14 -8.01979e-14 2.07531e-15 -1.53833e-13 -1.7995e-13 -1.28391e-13 3.49967e-14 1.04027e-13 -6.98968e-14 -9.07037e-15 -3.89158e-14 -3.42869e-15 3.63361e-15 -1.86114e-13 4.66037e-14 -3.81548e-14 1.6369e-14 -9.29008e-14 -6.25423e-14 -1.95577e-13 -2.09763e-13 1.43126e-13 3.5706e-14 -5.32101e-15 -1.88578e-13 -5.46442e-14 2.48571e-14 -2.21428e-13 -2.30508e-13 -2.12521e-14 -3.83386e-14 1.14651e-13 -3.6644e-13 -2.73047e-13 -4.45016e-13 9.12787e-14 4.71735e-13 1.12828e-13 4.86213e-14 -3.50957e-13 1.46289e-13 2.06949e-13 -1.49984e-13 1.55821e-13 -3.62191e-13 -3.87346e-14 -2.67321e-14 -4.88115e-13 1.58911e-13 -9.46733e-14 3.45106e-14 9.95542e-14 -3.6771e-13 4.35906e-13 9.40872e-14 -1.21248e-13 -5.99503e-14 -6.2032e-13 3.34561e-13 -3.86325e-13 2.08145e-14 -4.30034e-13 -2.38801e-13 6.78622e-13 3.15802e-12 5.64523e-11 8.73203e-10 1.20847e-08 1.47124e-07 1.55792e-06 1.41638e-05 0.000108761 0.000690603 0.00352752 0.0140182 0.042066 0.0950615 0.16944 0.257248 0.354167 0.457915 0.55504 0.642648 0.719922 0.799033 0.846086 0.889002 0.920914 0.925913 0.927932 0.933024 0.934655 0.933896 0.931335 0.926745 0.918594 0.901434 0.864921 0.796607 0.688673 0.545495 0.387195 0.240617 0.127191 0.0560047 0.0208792 0.00693437 0.00214876 0.00063608 0.000181457 5.00196e-05 1.33325e-05 3.43682e-06 8.56872e-07 2.06653e-07 4.82189e-08 1.08875e-08 2.37966e-09 5.03831e-10 1.03234e-10 2.05912e-11 3.50134e-12 8.12858e-13 2.0793e-13 -6.23137e-13 2.32372e-13 5.88824e-14 -5.26997e-13 3.97931e-13 3.9905e-13 -1.7764e-13 -5.23251e-13 -3.24109e-13 3.84019e-13 8.74304e-13 -2.19256e-13 2.16849e-13 6.97393e-14 6.1179e-13 2.46733e-13 -4.71111e-13 -9.65078e-13 3.05683e-13 2.01364e-13 2.45675e-13 -5.77003e-13 -1.38218e-12 3.22711e-13 9.02117e-13 1.32752e-13 -8.13811e-13 -2.05191e-13 1.93982e-13 3.6086e-13 -5.49542e-13 6.77043e-13 4.87128e-13 -2.40119e-13 9.08463e-14 -6.01033e-13 9.33743e-13 3.28851e-13 -2.97588e-13 -4.00766e-13 -5.82958e-13 5.54941e-13 -7.31148e-14 -7.74812e-13 -4.24449e-13 -1.00375e-12 7.07242e-13 1.08599e-13 -1.81215e-13 -7.57083e-13 -6.00531e-13 1.0299e-12 -2.59701e-13 -1.17498e-12 3.60683e-13 8.74347e-13 -3.1822e-13 -9.65824e-13 -1.76993e-12 9.24149e-13 6.80404e-13 0 0 -1.36825e-14 4.4009e-15 -1.82553e-14 -4.00344e-14 -4.41274e-14 -1.9421e-14 -4.6868e-14 1.37273e-14 -2.52577e-14 -4.74263e-15 1.61142e-14 -1.57802e-14 -6.46252e-14 -7.38441e-14 -2.87645e-14 -3.82744e-14 -1.19879e-13 -9.56188e-14 -1.39584e-13 -7.3745e-14 -1.11419e-14 -3.52936e-14 2.65037e-14 -1.45804e-13 -3.73677e-14 -3.84139e-14 -5.25655e-14 3.33686e-14 2.35724e-14 1.62142e-14 -1.99467e-15 -5.7991e-14 -1.39022e-13 -7.30126e-14 -1.09465e-13 -6.15512e-14 -5.20076e-14 -9.39143e-14 9.83366e-14 -1.26835e-13 -7.18142e-14 -1.75479e-13 -2.37612e-13 -1.28456e-13 -3.18281e-14 -3.69469e-14 -8.42379e-14 -1.90529e-13 -9.31308e-14 1.55671e-13 3.92763e-13 1.14795e-13 -1.84479e-13 -3.14772e-13 -3.24787e-14 1.82583e-13 2.62726e-13 -2.60944e-14 -3.42815e-13 -4.96432e-13 -1.42502e-13 2.25157e-13 -9.44793e-14 -4.45582e-14 -1.44551e-13 -2.13456e-13 1.60888e-13 3.59003e-13 -2.63851e-14 9.2502e-14 -1.61753e-13 2.42173e-14 -2.21112e-13 -7.04004e-14 -4.44064e-13 -1.69815e-13 2.17498e-13 2.92919e-13 3.49886e-12 5.62404e-11 8.72393e-10 1.20846e-08 1.47124e-07 1.55792e-06 1.41638e-05 0.000108761 0.000690603 0.00352752 0.0140182 0.042066 0.0950615 0.16944 0.257248 0.354167 0.457915 0.55504 0.642648 0.719922 0.799033 0.846086 0.889002 0.920914 0.925913 0.927932 0.933024 0.934655 0.933896 0.931335 0.926745 0.918594 0.901434 0.864921 0.796607 0.688673 0.545495 0.387195 0.240617 0.127191 0.0560047 0.0208792 0.00693437 0.00214876 0.00063608 0.000181457 5.00196e-05 1.33325e-05 3.43682e-06 8.56872e-07 2.06653e-07 4.82187e-08 1.08878e-08 2.37974e-09 5.03585e-10 1.03207e-10 1.98702e-11 4.07056e-12 9.10628e-13 -1.73575e-13 -2.43911e-13 -7.19975e-13 7.16396e-14 5.10197e-13 -5.8462e-13 2.31083e-13 5.76434e-13 1.22906e-13 1.18829e-14 -3.05126e-13 -3.86829e-13 8.06117e-13 3.02664e-13 6.28223e-13 -3.41549e-13 2.67747e-13 -4.88225e-13 -3.84385e-13 -4.13264e-13 -2.89889e-13 5.21838e-14 -5.19152e-13 1.8564e-13 -2.20732e-13 8.65019e-14 -5.81338e-13 -4.45955e-13 6.533e-13 3.40357e-13 2.45102e-14 2.22579e-14 -7.64977e-13 3.3517e-13 1.00422e-12 -5.53916e-13 3.1072e-13 -1.4776e-13 4.62184e-13 -1.42364e-14 -2.45314e-13 -1.38124e-13 -5.72024e-13 -2.10901e-13 -1.49503e-13 -7.50771e-13 -2.10661e-13 -7.32899e-13 6.04174e-13 -7.87925e-14 -9.55776e-13 3.04737e-13 -4.39527e-13 3.29578e-13 1.00361e-13 -7.09416e-13 1.63506e-14 2.08096e-13 -1.58846e-13 -6.17787e-13 -3.00885e-13 -2.80628e-13 0 0 -1.31814e-14 -1.87723e-14 -6.68394e-14 -3.74327e-14 -6.71967e-15 5.75315e-14 -5.83224e-15 -1.3736e-14 -1.27668e-14 -2.8291e-14 -1.2026e-14 -7.56608e-15 -9.35145e-14 -1.18861e-13 -2.77623e-14 -3.5544e-14 -1.99065e-13 3.08566e-15 -1.4402e-14 -2.06043e-14 -1.64859e-13 -9.06672e-14 -2.89313e-14 -1.24863e-15 -8.93085e-14 -1.67967e-13 -3.66297e-15 7.22834e-14 1.17505e-13 8.83112e-14 -1.18184e-13 -1.61985e-14 -4.80914e-14 6.30411e-14 -9.62277e-14 -2.15617e-13 7.53142e-15 -1.4251e-13 3.29045e-14 -7.02531e-14 -2.72976e-13 3.00618e-14 -2.40265e-14 -1.85485e-13 -9.63525e-14 -3.94015e-13 1.68125e-13 6.64319e-16 3.38071e-13 -4.27961e-14 -2.7973e-13 3.03403e-13 4.84303e-14 -6.28321e-14 -2.2943e-13 -1.84289e-14 -1.29826e-13 -1.14466e-13 1.21228e-13 -2.94532e-13 -5.76602e-13 -2.44583e-14 -1.14509e-13 -8.02963e-14 2.89156e-14 2.94639e-13 6.20934e-13 -4.72386e-14 -1.03445e-13 1.07064e-13 1.25342e-13 1.04915e-13 -4.49318e-13 -4.845e-15 -6.00521e-13 2.58426e-14 6.72691e-14 3.82793e-13 3.62996e-12 5.56731e-11 8.72647e-10 1.20852e-08 1.47123e-07 1.55792e-06 1.41638e-05 0.000108761 0.000690603 0.00352752 0.0140182 0.042066 0.0950615 0.16944 0.257248 0.354167 0.457915 0.55504 0.642648 0.719922 0.799033 0.846086 0.889002 0.920914 0.925913 0.927932 0.933024 0.934655 0.933896 0.931335 0.926745 0.918594 0.901434 0.864921 0.796607 0.688673 0.545495 0.387195 0.240617 0.127191 0.0560047 0.0208792 0.00693437 0.00214876 0.00063608 0.000181457 5.00196e-05 1.33325e-05 3.43682e-06 8.56871e-07 2.06653e-07 4.82189e-08 1.0888e-08 2.37976e-09 5.03042e-10 1.02681e-10 2.03476e-11 3.92843e-12 7.71202e-13 1.88215e-13 -3.74154e-13 9.26136e-14 4.62024e-13 3.57454e-13 -2.0824e-13 -2.38512e-13 3.31771e-13 8.14856e-13 2.44911e-13 -6.24195e-13 6.81915e-15 1.10619e-12 -2.58855e-13 -2.47983e-13 -4.71164e-13 -4.84818e-13 5.19399e-13 8.67216e-14 -7.28296e-13 -4.76576e-13 -1.57271e-12 -2.06906e-13 6.09893e-13 3.02017e-14 -3.68372e-13 -3.99058e-13 2.77057e-14 -3.76808e-13 -7.36521e-13 1.79896e-13 2.40868e-13 6.81779e-13 -2.65683e-13 5.18145e-13 4.40042e-13 6.45624e-13 -7.29554e-13 -4.65485e-13 2.49955e-13 5.5671e-13 4.40444e-13 -1.13574e-12 -6.82326e-13 -7.50202e-13 1.39995e-14 2.64652e-13 -6.69158e-13 6.23795e-13 -3.6837e-13 6.47831e-13 2.27808e-13 -1.47062e-12 2.51055e-13 9.92146e-13 -5.71993e-15 -5.81112e-13 -1.66602e-13 8.84939e-13 3.98571e-13 -1.67301e-12 -1.61407e-12 0 0 2.12735e-15 -3.86137e-14 -1.55323e-14 4.85864e-15 3.31968e-16 1.17536e-14 2.77893e-14 4.22706e-15 7.63109e-14 -3.89796e-14 -1.21997e-13 3.13673e-14 -1.15729e-13 -9.15286e-14 -1.44014e-13 -1.22447e-13 3.58846e-14 -7.50248e-14 -1.27732e-13 -1.22608e-13 -5.61609e-14 6.08077e-14 -1.03599e-13 3.39963e-14 -8.33125e-14 -3.12144e-14 6.60283e-14 -1.11812e-13 9.53012e-14 8.60975e-14 2.11373e-14 -2.33397e-14 -8.37618e-14 -5.82004e-14 -2.68602e-13 5.233e-15 5.32155e-14 -1.27006e-13 -1.51068e-13 -6.97046e-14 7.8428e-14 -1.25936e-13 -1.8185e-13 -1.76875e-13 -1.27177e-13 -2.42613e-14 -2.97116e-13 -1.59913e-13 -2.22764e-13 1.25811e-13 1.43842e-13 -1.39427e-14 1.47351e-13 -3.53222e-13 -5.20233e-14 1.11553e-13 -4.28697e-13 1.61359e-13 -2.50854e-13 -8.15791e-14 -1.95871e-13 -6.80308e-13 1.81576e-13 1.30376e-13 3.6144e-13 5.59473e-13 7.38795e-14 2.48603e-13 1.21665e-13 -9.84128e-14 -1.24035e-13 -8.39861e-13 2.45163e-13 2.13969e-14 -1.76942e-14 -3.13588e-13 -2.34906e-14 1.02736e-12 3.18999e-12 5.61245e-11 8.73056e-10 1.20851e-08 1.47124e-07 1.55792e-06 1.41638e-05 0.000108761 0.000690603 0.00352752 0.0140182 0.042066 0.0950615 0.16944 0.257248 0.354167 0.457915 0.55504 0.642648 0.719922 0.799033 0.846086 0.889002 0.920914 0.925913 0.927932 0.933024 0.934655 0.933896 0.931335 0.926745 0.918594 0.901434 0.864921 0.796607 0.688673 0.545495 0.387195 0.240617 0.127191 0.0560047 0.0208792 0.00693437 0.00214876 0.00063608 0.000181457 5.00196e-05 1.33325e-05 3.43682e-06 8.56872e-07 2.06653e-07 4.8219e-08 1.08874e-08 2.37944e-09 5.03447e-10 1.02957e-10 2.04144e-11 3.33085e-12 6.87244e-13 5.30289e-13 -6.51749e-13 9.14654e-13 6.51483e-13 -2.97571e-13 9.31124e-13 2.67994e-13 -6.17738e-13 2.55073e-13 1.8338e-13 7.13916e-13 1.07561e-12 -8.28433e-13 -5.52361e-14 -7.46427e-13 2.24804e-14 -3.44979e-13 -1.29819e-13 -3.60855e-13 -6.88342e-13 -6.74431e-13 -1.04707e-12 -1.24544e-12 -9.20637e-13 1.43922e-12 1.45081e-12 1.00072e-12 -7.59517e-13 -1.48137e-12 -9.13284e-13 2.91046e-13 -1.824e-13 1.18276e-12 -1.59106e-13 -1.08312e-12 3.42705e-13 9.01652e-14 9.04272e-13 5.2826e-13 -6.79318e-13 1.55881e-13 -2.39792e-13 2.47871e-13 -7.58981e-13 -1.3172e-12 2.66e-14 -9.21566e-13 1.2787e-12 -3.97901e-14 -2.87204e-14 4.89107e-13 -1.05017e-12 4.70446e-13 -3.4442e-13 -5.39885e-13 9.09457e-13 7.91266e-13 -2.80436e-13 -6.66838e-13 -1.61e-12 -3.52774e-13 -4.86849e-14 0 0 -3.55785e-14 -1.55146e-14 4.37584e-16 1.56359e-14 4.91247e-14 3.75877e-14 -3.14738e-14 1.7146e-14 -3.53198e-14 -2.24228e-14 4.87275e-14 -8.45052e-14 -5.16499e-14 -2.03857e-13 -9.54714e-14 -1.30007e-13 -3.52013e-14 -9.61261e-14 -1.30799e-13 -9.39941e-14 1.04649e-14 -1.05728e-14 1.3818e-13 -7.38393e-14 -1.88772e-14 -2.36189e-15 -5.80284e-14 1.4504e-13 -2.47913e-14 3.94221e-14 6.77797e-14 -5.22339e-14 -2.61709e-13 8.02628e-15 -2.37223e-13 -2.74294e-13 1.63454e-14 -2.76175e-13 4.38631e-13 -2.48672e-13 2.87267e-13 -1.38908e-13 -1.60989e-13 -4.57917e-13 -1.80063e-13 -1.53769e-13 -3.94287e-13 -1.73521e-13 -1.11534e-13 2.69265e-13 9.35627e-14 -4.1655e-13 -3.09065e-13 1.38456e-13 7.49341e-14 -1.73487e-13 3.55552e-13 -2.97513e-14 -4.83901e-13 -8.7023e-13 8.95634e-14 3.76689e-13 -1.38651e-13 5.07075e-13 1.45723e-13 -1.04867e-13 5.90954e-13 1.90925e-13 1.04804e-13 9.56007e-14 -1.06627e-12 -2.38108e-13 -5.95388e-13 6.83819e-13 -3.69767e-13 2.98423e-13 7.51165e-13 1.17267e-14 4.06041e-12 5.60201e-11 8.724e-10 1.20852e-08 1.47125e-07 1.55792e-06 1.41638e-05 0.000108761 0.000690603 0.00352752 0.0140182 0.042066 0.0950615 0.16944 0.257248 0.354167 0.457915 0.55504 0.642648 0.719922 0.799033 0.846086 0.889002 0.920914 0.925913 0.927932 0.933024 0.934655 0.933896 0.931335 0.926745 0.918594 0.901434 0.864921 0.796607 0.688673 0.545495 0.387195 0.240617 0.127191 0.0560047 0.0208792 0.00693437 0.00214876 0.00063608 0.000181457 5.00196e-05 1.33325e-05 3.43682e-06 8.56871e-07 2.06653e-07 4.82186e-08 1.08878e-08 2.37919e-09 5.03343e-10 1.03606e-10 1.96484e-11 4.18469e-12 2.94055e-13 -1.68005e-13 1.71525e-13 -4.32587e-13 6.39283e-13 1.77926e-12 -3.01173e-13 4.98464e-14 -7.73044e-13 7.87979e-13 7.39408e-13 7.87881e-13 -7.301e-13 -3.80603e-13 7.66021e-13 7.11133e-13 -1.45422e-12 -1.886e-13 -8.99968e-13 7.41853e-13 -1.56955e-12 -2.48494e-12 -6.27659e-13 -9.77536e-13 1.5972e-12 1.07193e-12 6.93634e-13 6.62839e-13 2.13131e-13 -8.63712e-14 -1.51354e-13 -7.06875e-13 1.06745e-12 -2.45516e-12 -4.55907e-13 -7.68858e-14 -9.94482e-13 1.18026e-12 2.74561e-13 1.54439e-12 -2.19491e-13 -1.26459e-13 -3.56699e-13 -8.62171e-13 -1.14945e-12 4.30177e-13 -8.2101e-13 -7.08258e-13 -4.89995e-13 -2.55953e-13 1.74914e-12 2.6821e-13 -5.78607e-13 -1.27118e-12 2.26658e-13 1.26147e-12 -9.81374e-13 -8.62488e-13 -2.59975e-13 -1.60697e-13 -1.69603e-13 -1.97638e-12 -8.38136e-13 0
				</DataArray>
				<DataArray Name="VitesseY" type="Float32" format="ascii">