<?xml version="1.0"?>
<VTKFile type="PolyData">
	<PolyData>
		<Piece NumberOfPoints="1206" NumberOfPolys="1000">
			<Points>
				<DataArray type="Float32" NumberOfComponents="3" format="ascii">
 0 0 0 0.005 0 0 0.01 0 0 0.015 0 0 0.02 0 0 0.025 0 0 0.03 0 0 0.035 0 0 0.04 0 0 0.045 0 0 0.05 0 0 0.055 0 0 0.06 0 0 0.065 0 0 0.07 0 0 0.075 0 0 0.08 0 0 0.085 0 0 0.09 0 0 0.095 0 0 0.1 0 0 0.105 0 0 0.11 0 0 0.115 0 0 0.12 0 0 0.125 0 0 0.13 0 0 0.135 0 0 0.14 0 0 0.145 0 0 0.15 0 0 0.155 0 0 0.16 0 0 0.165 0 0 0.17 0 0 0.175 0 0 0.18 0 0 0.185 0 0 0.19 0 0 0.195 0 0 0.2 0 0 0.205 0 0 0.21 0 0 0.215 0 0 0.22 0 0 0.225 0 0 0.23 0 0 0.235 0 0 0.24 0 0 0.245 0 0 0.25 0 0 0.255 0 0 0.26 0 0 0.265 0 0 0.27 0 0 0.275 0 0 0.28 0 0 0.285 0 0 0.29 0 0 0.295 0 0 0.3 0 0 0.305 0 0 0.31 0 0 0.315 0 0 0.32 0 0 0.325 0 0 0.33 0 0 0.335 0 0 0.34 0 0 0.345 0 0 0.35 0 0 0.355 0 0 0.36 0 0 0.365 0 0 0.37 0 0 0.375 0 0 0.38 0 0 0.385 0 0 0.39 0 0 0.395 0 0 0.4 0 0 0.405 0 0 0.41 0 0 0.415 0 0 0.42 0 0 0.425 0 0 0.43 0 0 0.435 0 0 0.44 0 0 0.445 0 0 0.45 0 0 0.455 0 0 0.46 0 0 0.465 0 0 0.47 0 0 0.475 0 0 0.48 0 0 0.485 0 0 0.49 0 0 0.495 0 0 0.5 0 0 0.505 0 0 0.51 0 0 0.515 0 0 0.52 0 0 0.525 0 0 0.53 0 0 0.535 0 0 0.54 0 0 0.545 0 0 0.55 0 0 0.555 0 0 0.56 0 0 0.565 0 0 0.57 0 0 0.575 0 0 0.58 0 0 0.585 0 0 0.59 0 0 0.595 0 0 0.6 0 0 0.605 0 0 0.61 0 0 0.615 0 0 0.62 0 0 0.625 0 0 0.63 0 0 0.635 0 0 0.64 0 0 0.645 0 0 0.65 0 0 0.655 0 0 0.66 0 0 0.665 0 0 0.67 0 0 0.675 0 0 0.68 0 0 0.685 0 0 0.69 0 0 0.695 0 0 0.7 0 0 0.705 0 0 0.71 0 0 0.715 0 0 0.72 0 0 0.725 0 0 0.73 0 0 0.735 0 0 0.74 0 0 0.745 0 0 0.75 0 0 0.755 0 0 0.76 0 0 0.765 0 0 0.77 0 0 0.775 0 0 0.78 0 0 0.785 0 0 0.79 0 0 0.795 0 0 0.8 0 0 0.805 0 0 0.81 0 0 0.815 0 0 0.82 0 0 0.825 0 0 0.83 0 0 0.835 0 0 0.84 0 0 0.845 0 0 0.85 0 0 0.855 0 0 0.86 0 0 0.865 0 0 0.87 0 0 0.875 0 0 0.88 0 0 0.885 0 0 0.89 0 0 0.895 0 0 0.9 0 0 0.905 0 0 0.91 0 0 0.915 0 0 0.92 0 0 0.925 0 0 0.93 0 0 0.935 0 0 0.94 0 0 0.945 0 0 0.95 0 0 0.955 0 0 0.96 0 0 0.965 0 0 0.97 0 0 0.975 0 0 0.98 0 0 0.985 0 0 0.99 0 0 0.995 0 0 1 0 0 0 0.02 0 0.005 0.02 0 0.01 0.02 0 0.015 0.02 0 0.02 0.02 0 0.025 0.02 0 0.03 0.02 0 0.035 0.02 0 0.04 0.02 0 0.045 0.02 0 0.05 0.02 0 0.055 0.02 0 0.06 0.02 0 0.065 0.02 0 0.07 0.02 0 0.075 0.02 0 0.08 0.02 0 0.085 0.02 0 0.09 0.02 0 0.095 0.02 0 0.1 0.02 0 0.105 0.02 0 0.11 0.02 0 0.115 0.02 0 0.12 0.02 0 0.125 0.02 0 0.13 0.02 0 0.135 0.02 0 0.14 0.02 0 0.145 0.02 0 0.15 0.02 0 0.155 0.02 0 0.16 0.02 0 0.165 0.02 0 0.17 0.02 0 0.175 0.02 0 0.18 0.02 0 0.185 0.02 0 0.19 0.02 0 0.195 0.02 0 0.2 0.02 0 0.205 0.02 0 0.21 0.02 0 0.215 0.02 0 0.22 0.02 0 0.225 0.02 0 0.23 0.02 0 0.235 0.02 0 0.24 0.02 0 0.245 0.02 0 0.25 0.02 0 0.255 0.02 0 0.26 0.02 0 0.265 0.02 0 0.27 0.02 0 0.275 0.02 0 0.28 0.02 0 0.285 0.02 0 0.29 0.02 0 0.295 0.02 0 0.3 0.02 0 0.305 0.02 0 0.31 0.02 0 0.315 0.02 0 0.32 0.02 0 0.325 0.02 0 0.33 0.02 0 0.335 0.02 0 0.34 0.02 0 0.345 0.02 0 0.35 0.02 0 0.355 0.02 0 0.36 0.02 0 0.365 0.02 0 0.37 0.02 0 0.375 0.02 0 0.38 0.02 0 0.385 0.02 0 0.39 0.02 0 0.395 0.02 0 0.4 0.02 0 0.405 0.02 0 0.41 0.02 0 0.415 0.02 0 0.42 0.02 0 0.425 0.02 0 0.43 0.02 0 0.435 0.02 0 0.44 0.02 0 0.445 0.02 0 0.45 0.02 0 0.455 0.02 0 0.46 0.02 0 0.465 0.02 0 0.47 0.02 0 0.475 0.02 0 0.48 0.02 0 0.485 0.02 0 0.49 0.02 0 0.495 0.02 0 0.5 0.02 0 0.505 0.02 0 0.51 0.02 0 0.515 0.02 0 0.52 0.02 0 0.525 0.02 0 0.53 0.02 0 0.535 0.02 0 0.54 0.02 0 0.545 0.02 0 0.55 0.02 0 0.555 0.02 0 0.56 0.02 0 0.565 0.02 0 0.57 0.02 0 0.575 0.02 0 0.58 0.02 0 0.585 0.02 0 0.59 0.02 0 0.595 0.02 0 0.6 0.02 0 0.605 0.02 0 0.61 0.02 0 0.615 0.02 0 0.62 0.02 0 0.625 0.02 0 0.63 0.02 0 0.635 0.02 0 0.64 0.02 0 0.645 0.02 0 0.65 0.02 0 0.655 0.02 0 0.66 0.02 0 0.665 0.02 0 0.67 0.02 0 0.675 0.02 0 0.68 0.02 0 0.685 0.02 0 0.69 0.02 0 0.695 0.02 0 0.7 0.02 0 0.705 0.02 0 0.71 0.02 0 0.715 0.02 0 0.72 0.02 0 0.725 0.02 0 0.73 0.02 0 0.735 0.02 0 0.74 0.02 0 0.745 0.02 0 0.75 0.02 0 0.755 0.02 0 0.76 0.02 0 0.765 0.02 0 0.77 0.02 0 0.775 0.02 0 0.78 0.02 0 0.785 0.02 0 0.79 0.02 0 0.795 0.02 0 0.8 0.02 0 0.805 0.02 0 0.81 0.02 0 0.815 0.02 0 0.82 0.02 0 0.825 0.02 0 0.83 0.02 0 0.835 0.02 0 0.84 0.02 0 0.845 0.02 0 0.85 0.02 0 0.855 0.02 0 0.86 0.02 0 0.865 0.02 0 0.87 0.02 0 0.875 0.02 0 0.88 0.02 0 0.885 0.02 0 0.89 0.02 0 0.895 0.02 0 0.9 0.02 0 0.905 0.02 0 0.91 0.02 0 0.915 0.02 0 0.92 0.02 0 0.925 0.02 0 0.93 0.02 0 0.935 0.02 0 0.94 0.02 0 0.945 0.02 0 0.95 0.02 0 0.955 0.02 0 0.96 0.02 0 0.965 0.02 0 0.97 0.02 0 0.975 0.02 0 0.98 0.02 0 0.985 0.02 0 0.99 0.02 0 0.995 0.02 0 1 0.02 0 0 0.04 0 0.005 0.04 0 0.01 0.04 0 0.015 0.04 0 0.02 0.04 0 0.025 0.04 0 0.03 0.04 0 0.035 0.04 0 0.04 0.04 0 0.045 0.04 0 0.05 0.04 0 0.055 0.04 0 0.06 0.04 0 0.065 0.04 0 0.07 0.04 0 0.075 0.04 0 0.08 0.04 0 0.085 0.04 0 0.09 0.04 0 0.095 0.04 0 0.1 0.04 0 0.105 0.04 0 0.11 0.04 0 0.115 0.04 0 0.12 0.04 0 0.125 0.04 0 0.13 0.04 0 0.135 0.04 0 0.14 0.04 0 0.145 0.04 0 0.15 0.04 0 0.155 0.04 0 0.16 0.04 0 0.165 0.04 0 0.17 0.04 0 0.175 0.04 0 0.18 0.04 0 0.185 0.04 0 0.19 0.04 0 0.195 0.04 0 0.2 0.04 0 0.205 0.04 0 0.21 0.04 0 0.215 0.04 0 0.22 0.04 0 0.225 0.04 0 0.23 0.04 0 0.235 0.04 0 0.24 0.04 0 0.245 0.04 0 0.25 0.04 0 0.255 0.04 0 0.26 0.04 0 0.265 0.04 0 0.27 0.04 0 0.275 0.04 0 0.28 0.04 0 0.285 0.04 0 0.29 0.04 0 0.295 0.04 0 0.3 0.04 0 0.305 0.04 0 0.31 0.04 0 0.315 0.04 0 0.32 0.04 0 0.325 0.04 0 0.33 0.04 0 0.335 0.04 0 0.34 0.04 0 0.345 0.04 0 0.35 0.04 0 0.355 0.04 0 0.36 0.04 0 0.365 0.04 0 0.37 0.04 0 0.375 0.04 0 0.38 0.04 0 0.385 0.04 0 0.39 0.04 0 0.395 0.04 0 0.4 0.04 0 0.405 0.04 0 0.41 0.04 0 0.415 0.04 0 0.42 0.04 0 0.425 0.04 0 0.43 0.04 0 0.435 0.04 0 0.44 0.04 0 0.445 0.04 0 0.45 0.04 0 0.455 0.04 0 0.46 0.04 0 0.465 0.04 0 0.47 0.04 0 0.475 0.04 0 0.48 0.04 0 0.485 0.04 0 0.49 0.04 0 0.495 0.04 0 0.5 0.04 0 0.505 0.04 0 0.51 0.04 0 0.515 0.04 0 0.52 0.04 0 0.525 0.04 0 0.53 0.04 0 0.535 0.04 0 0.54 0.04 0 0.545 0.04 0 0.55 0.04 0 0.555 0.04 0 0.56 0.04 0 0.565 0.04 0 0.57 0.04 0 0.575 0.04 0 0.58 0.04 0 0.585 0.04 0 0.59 0.04 0 0.595 0.04 0 0.6 0.04 0 0.605 0.04 0 0.61 0.04 0 0.615 0.04 0 0.62 0.04 0 0.625 0.04 0 0.63 0.04 0 0.635 0.04 0 0.64 0.04 0 0.645 0.04 0 0.65 0.04 0 0.655 0.04 0 0.66 0.04 0 0.665 0.04 0 0.67 0.04 0 0.675 0.04 0 0.68 0.04 0 0.685 0.04 0 0.69 0.04 0 0.695 0.04 0 0.7 0.04 0 0.705 0.04 0 0.71 0.04 0 0.715 0.04 0 0.72 0.04 0 0.725 0.04 0 0.73 0.04 0 0.735 0.04 0 0.74 0.04 0 0.745 0.04 0 0.75 0.04 0 0.755 0.04 0 0.76 0.04 0 0.765 0.04 0 0.77 0.04 0 0.775 0.04 0 0.78 0.04 0 0.785 0.04 0 0.79 0.04 0 0.795 0.04 0 0.8 0.04 0 0.805 0.04 0 0.81 0.04 0 0.815 0.04 0 0.82 0.04 0 0.825 0.04 0 0.83 0.04 0 0.835 0.04 0 0.84 0.04 0 0.845 0.04 0 0.85 0.04 0 0.855 0.04 0 0.86 0.04 0 0.865 0.04 0 0.87 0.04 0 0.875 0.04 0 0.88 0.04 0 0.885 0.04 0 0.89 0.04 0 0.895 0.04 0 0.9 0.04 0 0.905 0.04 0 0.91 0.04 0 0.915 0.04 0 0.92 0.04 0 0.925 0.04 0 0.93 0.04 0 0.935 0.04 0 0.94 0.04 0 0.945 0.04 0 0.95 0.04 0 0.955 0.04 0 0.96 0.04 0 0.965 0.04 0 0.97 0.04 0 0.975 0.04 0 0.98 0.04 0 0.985 0.04 0 0.99 0.04 0 0.995 0.04 0 1 0.04 0 0 0.06 0 0.005 0.06 0 0.01 0.06 0 0.015 0.06 0 0.02 0.06 0 0.025 0.06 0 0.03 0.06 0 0.035 0.06 0 0.04 0.06 0 0.045 0.06 0 0.05 0.06 0 0.055 0.06 0 0.06 0.06 0 0.065 0.06 0 0.07 0.06 0 0.075 0.06 0 0.08 0.06 0 0.085 0.06 0 0.09 0.06 0 0.095 0.06 0 0.1 0.06 0 0.105 0.06 0 0.11 0.06 0 0.115 0.06 0 0.12 0.06 0 0.125 0.06 0 0.13 0.06 0 0.135 0.06 0 0.14 0.06 0 0.145 0.06 0 0.15 0.06 0 0.155 0.06 0 0.16 0.06 0 0.165 0.06 0 0.17 0.06 0 0.175 0.06 0 0.18 0.06 0 0.185 0.06 0 0.19 0.06 0 0.195 0.06 0 0.2 0.06 0 0.205 0.06 0 0.21 0.06 0 0.215 0.06 0 0.22 0.06 0 0.225 0.06 0 0.23 0.06 0 0.235 0.06 0 0.24 0.06 0 0.245 0.06 0 0.25 0.06 0 0.255 0.06 0 0.26 0.06 0 0.265 0.06 0 0.27 0.06 0 0.275 0.06 0 0.28 0.06 0 0.285 0.06 0 0.29 0.06 0 0.295 0.06 0 0.3 0.06 0 0.305 0.06 0 0.31 0.06 0 0.315 0.06 0 0.32 0.06 0 0.325 0.06 0 0.33 0.06 0 0.335 0.06 0 0.34 0.06 0 0.345 0.06 0 0.35 0.06 0 0.355 0.06 0 0.36 0.06 0 0.365 0.06 0 0.37 0.06 0 0.375 0.06 0 0.38 0.06 0 0.385 0.06 0 0.39 0.06 0 0.395 0.06 0 0.4 0.06 0 0.405 0.06 0 0.41 0.06 0 0.415 0.06 0 0.42 0.06 0 0.425 0.06 0 0.43 0.06 0 0.435 0.06 0 0.44 0.06 0 0.445 0.06 0 0.45 0.06 0 0.455 0.06 0 0.46 0.06 0 0.465 0.06 0 0.47 0.06 0 0.475 0.06 0 0.48 0.06 0 0.485 0.06 0 0.49 0.06 0 0.495 0.06 0 0.5 0.06 0 0.505 0.06 0 0.51 0.06 0 0.515 0.06 0 0.52 0.06 0 0.525 0.06 0 0.53 0.06 0 0.535 0.06 0 0.54 0.06 0 0.545 0.06 0 0.55 0.06 0 0.555 0.06 0 0.56 0.06 0 0.565 0.06 0 0.57 0.06 0 0.575 0.06 0 0.58 0.06 0 0.585 0.06 0 0.59 0.06 0 0.595 0.06 0 0.6 0.06 0 0.605 0.06 0 0.61 0.06 0 0.615 0.06 0 0.62 0.06 0 0.625 0.06 0 0.63 0.06 0 0.635 0.06 0 0.64 0.06 0 0.645 0.06 0 0.65 0.06 0 0.655 0.06 0 0.66 0.06 0 0.665 0.06 0 0.67 0.06 0 0.675 0.06 0 0.68 0.06 0 0.685 0.06 0 0.69 0.06 0 0.695 0.06 0 0.7 0.06 0 0.705 0.06 0 0.71 0.06 0 0.715 0.06 0 0.72 0.06 0 0.725 0.06 0 0.73 0.06 0 0.735 0.06 0 0.74 0.06 0 0.745 0.06 0 0.75 0.06 0 0.755 0.06 0 0.76 0.06 0 0.765 0.06 0 0.77 0.06 0 0.775 0.06 0 0.78 0.06 0 0.785 0.06 0 0.79 0.06 0 0.795 0.06 0 0.8 0.06 0 0.805 0.06 0 0.81 0.06 0 0.815 0.06 0 0.82 0.06 0 0.825 0.06 0 0.83 0.06 0 0.835 0.06 0 0.84 0.06 0 0.845 0.06 0 0.85 0.06 0 0.855 0.06 0 0.86 0.06 0 0.865 0.06 0 0.87 0.06 0 0.875 0.06 0 0.88 0.06 0 0.885 0.06 0 0.89 0.06 0 0.895 0.06 0 0.9 0.06 0 0.905 0.06 0 0.91 0.06 0 0.915 0.06 0 0.92 0.06 0 0.925 0.06 0 0.93 0.06 0 0.935 0.06 0 0.94 0.06 0 0.945 0.06 0 0.95 0.06 0 0.955 0.06 0 0.96 0.06 0 0.965 0.06 0 0.97 0.06 0 0.975 0.06 0 0.98 0.06 0 0.985 0.06 0 0.99 0.06 0 0.995 0.06 0 1 0.06 0 0 0.08 0 0.005 0.08 0 0.01 0.08 0 0.015 0.08 0 0.02 0.08 0 0.025 0.08 0 0.03 0.08 0 0.035 0.08 0 0.04 0.08 0 0.045 0.08 0 0.05 0.08 0 0.055 0.08 0 0.06 0.08 0 0.065 0.08 0 0.07 0.08 0 0.075 0.08 0 0.08 0.08 0 0.085 0.08 0 0.09 0.08 0 0.095 0.08 0 0.1 0.08 0 0.105 0.08 0 0.11 0.08 0 0.115 0.08 0 0.12 0.08 0 0.125 0.08 0 0.13 0.08 0 0.135 0.08 0 0.14 0.08 0 0.145 0.08 0 0.15 0.08 0 0.155 0.08 0 0.16 0.08 0 0.165 0.08 0
[...]
			<PointData Scalars="VitesseX">
				<DataArray Name="VitesseX" type="Float32" format="ascii">
 0 -1.83152e-14 -4.18358e-15 -8.62464e-14 4.91652e-14 2.51945e-15 -3.22315e-14 -6.06495e-14 1.79053e-14 -7.23738e-14 -4.62725e-14 5.29697e-14 -1.82687e-13 1.5664e-13 -1.79536e-13 -6.07022e-14 3.31394e-14 -3.23197e-13 3.79158e-14 -1.02633e-13 -5.16002e-14 7.08259e-14 8.26391e-14 -6.30318e-14 -3.61121e-13 -2.60899e-14 2.05511e-13 -1.59175e-13 -4.04666e-14 -1.37146e-13 6.62316e-14 -1.44797e-13 9.06858e-14 4.44294e-14 -4.39082e-13 1.68665e-13 -2.08742e-13 1.53133e-13 -4.95788e-13 2.99216e-13 -1.69279e-13 8.31316e-14 -5.00037e-14 -4.59448e-13 -3.12787e-13 -2.02342e-14 -4.97186e-13 2.95203e-13 -1.15377e-13 9.2394e-14 -2.8293e-13 2.74318e-13 6.44411e-13 -8.55605e-13 2.67603e-13 -2.84085e-14 -5.76654e-13 3.86908e-13 -6.58877e-13 1.80807e-13 3.96054e-14 3.40754e-13 -9.51431e-14 -2.20959e-13 1.93356e-13 5.10717e-14 -3.5995e-13 -9.9481e-14 -6.18552e-13 3.11977e-13 9.45649e-14 -6.21376e-13 2.06727e-13 -3.5409e-13 1.00066e-12 -1.91933e-13 4.74866e-12 7.87004e-11 1.00094e-09 1.15803e-08 1.19471e-07 1.0903e-06 8.7103e-06 6.01451e-05 0.000353225 0.00172832 0.00686849 0.0215916 0.0529129 0.102731 0.16628 0.23828 0.315868 0.397374 0.48154 0.556434 0.63251 0.69745 0.764558 0.819366 0.860316 0.900418 0.916938 0.923115 0.931258 0.934498 0.934119 0.932721 0.931722 0.931323 0.930831 0.929623 0.926844 0.920675 0.90733 0.87993 0.828782 0.744534 0.624072 0.477761 0.326971 0.195864 0.100102 0.0433396 0.0163561 0.00564758 0.00185018 0.000585085 0.000179719 5.37183e-05 1.56295e-05 4.42608e-06 1.21977e-06 3.27097e-07 8.53482e-08 2.16701e-08 5.35334e-09 1.28717e-09 3.02037e-10 6.78185e-11 1.51161e-11 3.77342e-12 -3.83392e-13 1.01557e-12 2.17612e-13 -6.96075e-13 1.06492e-12 -1.896e-12 1.16681e-12 -4.52063e-13 -3.24622e-13 1.70984e-12 -1.12168e-12 7.45997e-13 -5.95764e-13 1.07932e-12 -5.08136e-13 -1.05968e-12 -2.26823e-13 1.34452e-13 5.34928e-13 -1.42445e-13 -7.70802e-14 -3.90415e-14 -8.76655e-13 1.93655e-13 5.75098e-14 3.94629e-13 7.80907e-13 -9.45645e-13 1.99894e-13 2.20802e-13 -3.05479e-13 1.11113e-12 -6.05204e-13 -2.68795e-14 -3.49497e-14 -9.50369e-13 1.66347e-12 -1.28597e-12 -5.37554e-13 -3.06449e-13 -7.23745e-13 1.22174e-12 -7.4917e-13 3.86158e-13 -2.17245e-13 -7.24163e-13 1.132e-12 -1.29625e-12 2.17229e-13 5.19842e-13 -2.21111e-12 1.17435e-12 -5.657e-13 -2.23473e-13 4.8195e-13 -2.2742e-12 1.01708e-12 -1.25599e-12 0 0 2.15493e-15 -3.22318e-14 3.38802e-14 -7.17599e-14 -2.67545e-14 1.45805e-14 7.73078e-16 -6.24687e-14 4.50455e-15 2.27219e-14 -7.50845e-14 1.34347e-13 -2.1603e-13 3.87133e-14 -7.30678e-14 -2.63893e-13 1.70753e-14 -1.74417e-13 1.6036e-14 4.97843e-14 -3.5229e-14 -1.24877e-13 -1.53244e-13 1.35818e-13 -6.0529e-14 -2.25352e-13 4.77439e-14 -7.06576e-14 3.43623e-14 -1.42105e-13 6.21709e-14 -1.10125e-13 -6.18166e-14 1.78855e-13 -2.57388e-13 5.48469e-14 -3.61521e-13 2.44697e-13 -2.84893e-13 9.94756e-15 -2.15165e-13 -1.73118e-13 1.26873e-14 -1.08781e-13 -4.30909e-13 5.30656e-14 -3.30935e-13 2.61781e-13 7.63644e-14 2.87522e-13 -1.34809e-13 -5.45885e-13 8.93404e-13 -2.02857e-13 -3.71741e-13 1.47598e-13 -6.4303e-13 2.29875e-13 -1.99632e-13 1.20872e-13 -1.26241e-13 -8.56827e-14 1.12248e-13 -2.11393e-13 -1.1699e-13 9.36809e-14 -2.28113e-13 1.4602e-13 -4.12322e-13 -1.29839e-13 3.86794e-13 -1.78923e-13 3.59456e-13 -5.85214e-13 8.94059e-13 5.76079e-12 7.7321e-11 1.00179e-09 1.15787e-08 1.19473e-07 1.09029e-06 8.7103e-06 6.01451e-05 0.000353225 0.00172832 0.00686849 0.0215916 0.0529129 0.102731 0.16628 0.23828 0.315868 0.397374 0.48154 0.556434 0.63251 0.69745 0.764558 0.819366 0.860316 0.900418 0.916938 0.923115 0.931258 0.934498 0.934119 0.932721 0.931722 0.931323 0.930831 0.929623 0.926844 0.920675 0.90733 0.87993 0.828782 0.744534 0.624072 0.477761 0.326971 0.195864 0.100102 0.0433396 0.0163561 0.00564758 0.00185018 0.000585085 0.000179719 5.37183e-05 1.56295e-05 4.42608e-06 1.21977e-06 3.27097e-07 8.53491e-08 2.16691e-08 5.35426e-09 1.28719e-09 3.00467e-10 6.89228e-11 1.49409e-11 3.00805e-12 1.52459e-12 -3.34182e-13 7.2194e-14 3.96575e-13 -1.17647e-12 8.85904e-13 -5.16081e-13 2.43317e-13 6.80415e-13 -8.88029e-13 9.8944e-13 -5.36435e-13 7.10641e-13 -8.48917e-13 -5.99995e-14 9.11831e-14 -3.20653e-13 2.27842e-13 -7.17256e-13 2.79244e-13 -3.46e-13 -2.71215e-13 3.92124e-13 -2.18023e-13 -2.32778e-13 -3.41792e-14 -3.23624e-13 1.1916e-12 1.62584e-13 -2.57151e-13 1.73991e-13 -7.94822e-13 7.18117e-13 4.01398e-14 -8.53835e-15 2.31681e-13 -1.34638e-12 4.76169e-13 -4.57631e-13 -5.35564e-13 2.56238e-13 -8.8492e-13 8.65241e-13 -1.13847e-13 -1.96978e-13 2.16838e-13 -9.11795e-13 7.15863e-13 -7.9024e-13 -9.52177e-13 1.43492e-12 -1.081e-12 -6.48755e-14 -5.84489e-14 -1.21486e-12 7.3699e-13 -1.82483e-12 3.88871e-13 0 0 3.43691e-15 1.10006e-14 -2.12244e-14 2.64664e-14 -3.43631e-14 -4.67621e-14 -2.84368e-15 -1.05939e-14 5.5877e-14 4.91154e-15 2.48213e-14 -1.03016e-13 4.47852e-14 -1.55012e-13 -1.48184e-13 -1.85269e-14 -1.31235e-13 -7.1058e-14 -9.63176e-15 -6.69128e-14 -5.56017e-14 -5.65753e-14 -8.4342e-14 -3.37781e-14 -8.33852e-14 -3.32197e-14 -6.97146e-14 -5.91637e-14 1.10222e-15 4.89728e-14 4.43331e-15 6.90448e-14 -3.77985e-14 -1.48615e-13 1.36987e-14 -2.38263e-13 1.02698e-13 -2.85949e-13 3.00935e-14 -1.68997e-13 -1.18769e-13 -1.14532e-13 -1.50726e-14 -1.7657e-13 1.45491e-14 -1.94604e-13 1.58065e-14 -4.78287e-14 1.79575e-13 8.66798e-14 3.05264e-14 2.21772e-13 -3.90112e-13 2.33426e-13 -9.94185e-14 -4.53331e-13 1.86704e-13 -2.59124e-13 -4.21342e-14 -2.60066e-13 -8.50231e-14 -7.91767e-14 -9.57423e-14 1.12639e-13 -8.04453e-14 -1.139e-13 9.31513e-14 -1.62953e-13 1.3464e-13 1.73699e-14 -1.13924e-13 2.04372e-13 -1.8669e-13 1.95595e-13 5.55689e-13 6.01299e-12 7.79551e-11 1.00077e-09 1.15801e-08 1.19471e-07 1.09029e-06 8.7103e-06 6.01451e-05 0.000353225 0.00172832 0.00686849 0.0215916 0.0529129 0.102731 0.16628 0.23828 0.315868 0.397374 0.48154 0.556434 0.63251 0.69745 0.764558 0.819366 0.860316 0.900418 0.916938 0.923115 0.931258 0.934498 0.934119 0.932721 0.931722 0.931323 0.930831 0.929623 0.926844 0.920675 0.90733 0.87993 0.828782 0.744534 0.624072 0.477761 0.326971 0.195864 0.100102 0.0433396 0.0163561 0.00564758 0.00185018 0.000585085 0.000179719 5.37183e-05 1.56295e-05 4.42608e-06 1.21977e-06 3.27097e-07 8.53485e-08 2.16696e-08 5.35349e-09 1.28712e-09 3.01449e-10 6.82975e-11 1.51412e-11 3.28222e-12 3.60376e-13 3.53471e-13 2.39785e-13 -3.24066e-13 2.84851e-13 1.3959e-13 2.30374e-13 -6.93412e-14 -2.97149e-13 4.87014e-13 4.13527e-14 6.10464e-13 -7.22356e-13 -4.99797e-13 -3.24673e-13 -7.7789e-14 -2.52562e-13 -3.40895e-13 -1.27302e-13 -4.06537e-13 -2.42895e-13 -1.99156e-13 -6.71568e-14 1.16746e-13 -2.83617e-13 2.14179e-13 5.37433e-13 -1.06029e-13 4.45882e-13 -2.93553e-13 -2.31063e-13 5.1229e-14 -2.73207e-13 7.67066e-13 7.93918e-14 -6.11393e-14 -6.11674e-13 -7.14873e-13 -1.33849e-13 -1.92112e-13 -6.72636e-14 4.29143e-14 -2.46276e-13 2.61403e-13 -2.15345e-13 -2.66656e-13 2.45504e-13 -4.33153e-13 1.39983e-13 1.02546e-13 -4.61583e-13 -9.50091e-14 -6.91613e-13 -4.39661e-13 -8.68814e-14 -5.69135e-13 1.01554e-13 -1.02731e-13 0 0 -3.35273e-15 -7.17901e-15 -4.59755e-15 5.27257e-14 3.86709e-14 4.43897e-15 -1.08711e-14 3.17838e-14 -3.22593e-14 -2.7893e-15 -6.27061e-14 -1.12614e-13 2.68066e-14 -1.54229e-13 -5.30405e-14 -3.14126e-14 -7.6017e-14 -2.45828e-15 -2.77469e-14 -1.24929e-13 -8.79633e-14 -9.15496e-14 -3.96608e-14 -1.9549e-13 6.07256e-14 2.81107e-14 -1.18516e-13 2.78682e-14 2.73536e-14 2.68864e-14 5.01534e-14 -7.58077e-14 -7.04363e-14 -2.67149e-13 4.87896e-14 -5.27686e-14 -1.14966e-13 -1.99624e-13 5.59132e-14 -1.49683e-13 7.74927e-14 -1.08286e-13 -1.32537e-13 -1.94449e-13 -3.0327e-13 -5.46781e-14 6.62117e-14 6.2149e-14 1.65228e-13 -3.31638e-15 5.97035e-14 2.592e-14 -3.29299e-13 1.10608e-13 -7.86328e-14 -4.70802e-13 1.31417e-13 -2.68762e-13 -8.66404e-14 -9.2335e-14 2.61429e-13 1.07058e-13 -3.83156e-13 1.43482e-13 1.49131e-13 -2.76368e-13 3.50788e-14 -2.13021e-13 2.4026e-13 2.71707e-15 -1.16804e-13 -1.22011e-13 -6.03349e-14 4.7706e-13 7.04287e-13 5.60297e-12 7.86492e-11 1.00113e-09 1.15795e-08 1.19471e-07 1.09029e-06 8.7103e-06 6.01451e-05 0.000353225 0.00172832 0.00686849 0.0215916 0.0529129 0.102731 0.16628 0.23828 0.315868 0.397374 0.48154 0.556434 0.63251 0.69745 0.764558 0.819366 0.860316 0.900418 0.916938 0.923115 0.931258 0.934498 0.934119 0.932721 0.931722 0.931323 0.930831 0.929623 0.926844 0.920675 0.90733 0.87993 0.828782 0.744534 0.624072 0.477761 0.326971 0.195864 0.100102 0.0433396 0.0163561 0.00564758 0.00185018 0.000585085 0.000179719 5.37183e-05 1.56295e-05 4.42608e-06 1.21977e-06 3.27097e-07 8.53481e-08 2.16695e-08 5.35387e-09 1.28748e-09 3.01695e-10 6.84338e-11 1.51613e-11 3.66994e-12 5.17675e-14 4.55123e-13 3.79474e-13 2.35144e-13 3.98233e-13 -2.98722e-13 5.52616e-13 -2.54999e-13 -7.80065e-13 1.09772e-12 -4.80083e-13 5.73282e-14 -5.75031e-13 6.05987e-14 -3.18219e-13 -9.8347e-13 -5.28821e-13 -2.35546e-13 -4.89019e-14 -2.51505e-13 -3.7247e-13 -5.41103e-13 -5.25316e-13 3.39145e-13 2.81035e-13 6.12523e-13 3.22417e-14 -8.77149e-13 -6.28115e-13 7.02855e-13 6.3235e-14 7.63248e-13 -2.79249e-13 -6.84452e-14 -2.9971e-13 -4.6056e-13 6.67853e-13 -3.50105e-13 -2.42534e-13 -7.33026e-13 -2.15326e-13 5.05739e-13 1.74851e-13 2.26966e-13 -4.4341e-14 -6.72885e-13 5.97852e-14 -3.03457e-13 8.88819e-13 3.64484e-14 -1.48276e-12 4.3289e-13 -5.49672e-13 6.45689e-14 7.49931e-13 -4.59297e-13 -4.57952e-13 -7.8947e-13 0 0 1.11135e-14 -5.56004e-15 9.06427e-14 -2.05593e-14 5.20189e-14 7.06358e-14 1.59952e-14 -4.7221e-15 -2.25973e-14 1.16005e-14 -1.53804e-13 6.2701e-14 -2.83149e-13 5.49289e-14 1.61649e-14 -2.04784e-13 6.22179e-14 -4.83434e-14 -3.23647e-14 -4.7637e-14 -8.65344e-14 -2.15599e-13 -1.49616e-13 1.05231e-13 1.33336e-13 -7.42761e-14 1.11969e-13 5.84342e-14 1.72399e-14 -1.53692e-13 -3.8694e-14 -2.92219e-13 -2.19966e-13 1.1286e-13 -2.25881e-13 2.87632e-13 -4.75631e-13 3.459e-13 -2.99616e-13 -1.84447e-14 -2.0511e-13 -1.04886e-13 3.95198e-14 1.46765e-14 -5.43713e-13 4.71756e-14 -2.93539e-13 1.91608e-13 6.56118e-14 3.5518e-13 -1.76461e-13 -6.71929e-13 9.08488e-13 -4.48073e-13 -3.84022e-13 9.45459e-14 -8.49508e-13 1.12278e-13 -2.74172e-13 1.89612e-13 -4.11932e-14 2.34449e-13 1.06315e-13 -1.07559e-13 9.39712e-14 1.38707e-13 -1.70725e-13 1.86316e-13 -4.37104e-13 -1.66615e-13 4.86341e-13 -2.90456e-13 4.97021e-13 -4.00755e-13 1.43092e-12 5.74655e-12 7.76945e-11 1.00181e-09 1.15786e-08 1.19473e-07 1.09029e-06 8.7103e-06 6.01451e-05 0.000353225 0.00172832 0.00686849 0.0215916 0.0529129 0.102731 0.16628 0.23828 0.315868 0.397374 0.48154 0.556434 0.63251 0.69745 0.764558 0.819366 0.860316 0.900418 0.916938 0.923115 0.931258 0.934498 0.934119 0.932721 0.931722 0.931323 0.930831 0.929623 0.926844 0.920675 0.90733 0.87993 0.828782 0.744534 0.624072 0.477761 0.326971 0.195864 0.100102 0.0433396 0.0163561 0.00564758 0.00185018 0.000585085 0.000179719 5.37183e-05 1.56295e-05 4.42608e-06 1.21977e-06 3.27096e-07 8.53488e-08 2.16689e-08 5.35447e-09 1.28733e-09 3.00673e-10 6.94783e-11 1.52253e-11 3.40869e-12 1.48511e-12 -5.4213e-13 2.39637e-13 1.44201e-12 -1.01983e-12 8.26863e-13 -1.75327e-13 -2.42942e-13 8.65521e-14 -1.05354e-12 3.86201e-13 -3.42044e-13 6.82304e-13 -9.7853e-13 -1.73599e-13 -7.1947e-13 -5.94468e-13 -3.3764e-13 -5.2567e-13 9.56592e-14 1.17716e-13 -2.59289e-13 8.28176e-13 -2.99634e-13 1.66857e-13 -1.67489e-13 -1.06009e-12 5.376e-13 -7.46614e-13 2.28725e-13 5.16421e-13 -4.61896e-13 6.77559e-13 -7.24539e-13 -3.74612e-13 3.99252e-13 -1.19005e-12 9.16162e-13 -3.82584e-13 -8.24776e-13 1.96447e-13 -7.17974e-13 1.42891e-12 2.07549e-13 -4.73674e-14 -2.72289e-13 -1.10098e-12 1.14059e-12 -6.88176e-13 -1.12412e-12 1.21149e-12 -7.41232e-13 4.22693e-13 2.14408e-13 -7.51386e-13 3.15398e-13 -2.33968e-12 -2.26455e-13 0 0 1.31812e-14 8.55191e-14 -5.9752e-15 9.90478e-14 1.39985e-14 -2.25232e-14 -1.41505e-14 4.86431e-14 4.96952e-14 -5.31137e-14 7.05847e-14 -3.06785e-13 5.83593e-14 -1.4867e-13 -7.25243e-14 1.77128e-13 -3.43347e-13 1.52863e-13 -1.63204e-13 -1.30411e-13 3.29383e-14 -2.88567e-14 -1.45137e-13 -9.88708e-14 7.34187e-14 3.85003e-13 6.68796e-14 4.36533e-14 -2.23894e-13 8.72291e-14 -4.37967e-13 1.62044e-14 -2.06594e-13 -3.34004e-13 1.61497e-13 -1.14161e-13 3.60242e-13 -4.66033e-13 2.1813e-13 -2.64692e-13 -2.89282e-13 7.39672e-14 -1.70854e-13 -3.01132e-14 3.89796e-13 -7.88817e-13 2.69184e-13 -4.7568e-13 9.95841e-14 3.23766e-14 1.32661e-13 7.84028e-13 -9.47062e-13 2.28089e-14 -9.45417e-14 -6.47816e-13 8.45254e-14 -8.74796e-13 1.20738e-13 -1.58377e-13 -1.82054e-13 1.72652e-13 3.42002e-13 3.39336e-13 1.38404e-14 5.50375e-14 1.31439e-13 -4.37823e-13 5.11723e-14 5.03186e-14 -4.16522e-13 6.36424e-13 -3.3167e-13 8.06648e-13 5.84591e-13 5.54022e-12 7.80593e-11 1.00026e-09 1.15815e-08 1.19471e-07 1.0903e-06 8.7103e-06 6.01451e-05 0.000353225 0.00172832 0.00686849 0.0215916 0.0529129 0.102731 0.16628 0.23828 0.315868 0.397374 0.48154 0.556434 0.63251 0.69745 0.764558 0.819366 0.860316 0.900418 0.916938 0.923115 0.931258 0.934498 0.934119 0.932721 0.931722 0.931323 0.930831 0.929623 0.926844 0.920675 0.90733 0.87993 0.828782 0.744534 0.624072 0.477761 0.326971 0.195864 0.100102 0.0433396 0.0163561 0.00564758 0.00185018 0.000585085 0.000179719 5.37183e-05 1.56295e-05 4.42608e-06 1.21977e-06 3.27097e-07 8.53486e-08 2.167e-08 5.35301e-09 1.28675e-09 3.01957e-10 6.86569e-11 1.56448e-11 3.79926e-12 1.54876e-13 3.96373e-13 2.73119e-13 2.7637e-13 1.15143e-12 -1.13746e-12 1.20383e-12 -1.05326e-12 -5.46517e-13 1.57396e-13 -1.28529e-12 2.24105e-12 -9.47087e-13 -3.00699e-13 -7.48243e-13 -8.69622e-13 -2.21935e-13 -1.20721e-12 7.61299e-13 -8.19679e-13 1.1095e-12 6.68703e-13 9.11767e-13 -4.14365e-13 -2.72526e-13 -6.6868e-13 3.18366e-13 -7.11402e-13 5.29491e-13 -8.00262e-13 -2.09217e-13 3.52949e-13 -6.74238e-13 1.14785e-13 -8.89169e-15 1.83613e-13 -5.82933e-13 -1.13552e-12 -1.70089e-13 1.96957e-13 -5.47202e-13 6.29982e-13 -4.64076e-13 1.09783e-12 -2.60032e-13 -8.89959e-13 1.12506e-12 -7.06194e-13 -1.07631e-12 3.08143e-13 -6.15625e-13 7.98089e-13 1.25554e-13 -6.86218e-13 -2.64734e-13 -3.33706e-12 1.10641e-12 -1.11316e-12 0
				</DataArray>
				<DataArray Name="VitesseY" type="Float32" format="ascii">