<?xml version="1.0"?>
<VTKFile type="PolyData">
	<PolyData>
		<Piece NumberOfPoints="1206" NumberOfPolys="1000">
			<Points>
				<DataArray type="Float32" NumberOfComponents="3" format="ascii">
 0 0 0 0.005 0 0 0.01 0 0 0.015 0 0 0.02 0 0 0.025 0 0 0.03 0 0 0.035 0 0 0.04 0 0 0.045 0 0 0.05 0 0 0.055 0 0 0.06 0 0 0.065 0 0 0.07 0 0 0.075 0 0 0.08 0 0 0.085 0 0 0.09 0 0 0.095 0 0 0.1 0 0 0.105 0 0 0.11 0 0 0.115 0 0 0.12 0 0 0.125 0 0 0.13 0 0 0.135 0 0 0.14 0 0 0.145 0 0 0.15 0 0 0.155 0 0 0.16 0 0 0.165 0 0 0.17 0 0 0.175 0 0 0.18 0 0 0.185 0 0 0.19 0 0 0.195 0 0 0.2 0 0 0.205 0 0 0.21 0 0 0.215 0 0 0.22 0 0 0.225 0 0 0.23 0 0 0.235 0 0 0.24 0 0 0.245 0 0 0.25 0 0 0.255 0 0 0.26 0 0 0.265 0 0 0.27 0 0 0.275 0 0 0.28 0 0 0.285 0 0 0.29 0 0 0.295 0 0 0.3 0 0 0.305 0 0 0.31 0 0 0.315 0 0 0.32 0 0 0.325 0 0 0.33 0 0 0.335 0 0 0.34 0 0 0.345 0 0 0.35 0 0 0.355 0 0 0.36 0 0 0.365 0 0 0.37 0 0 0.375 0 0 0.38 0 0 0.385 0 0 0.39 0 0 0.395 0 0 0.4 0 0 0.405 0 0 0.41 0 0 0.415 0 0 0.42 0 0 0.425 0 0 0.43 0 0 0.435 0 0 0.44 0 0 0.445 0 0 0.45 0 0 0.455 0 0 0.46 0 0 0.465 0 0 0.47 0 0 0.475 0 0 0.48 0 0 0.485 0 0 0.49 0 0 0.495 0 0 0.5 0 0 0.505 0 0 0.51 0 0 0.515 0 0 0.52 0 0 0.525 0 0 0.53 0 0 0.535 0 0 0.54 0 0 0.545 0 0 0.55 0 0 0.555 0 0 0.56 0 0 0.565 0 0 0.57 0 0 0.575 0 0 0.58 0 0 0.585 0 0 0.59 0 0 0.595 0 0 0.6 0 0 0.605 0 0 0.61 0 0 0.615 0 0 0.62 0 0 0.625 0 0 0.63 0 0 0.635 0 0 0.64 0 0 0.645 0 0 0.65 0 0 0.655 0 0 0.66 0 0 0.665 0 0 0.67 0 0 0.675 0 0 0.68 0 0 0.685 0 0 0.69 0 0 0.695 0 0 0.7 0 0 0.705 0 0 0.71 0 0 0.715 0 0 0.72 0 0 0.725 0 0 0.73 0 0 0.735 0 0 0.74 0 0 0.745 0 0 0.75 0 0 0.755 0 0 0.76 0 0 0.765 0 0 0.77 0 0 0.775 0 0 0.78 0 0 0.785 0 0 0.79 0 0 0.795 0 0 0.8 0 0 0.805 0 0 0.81 0 0 0.815 0 0 0.82 0 0 0.825 0 0 0.83 0 0 0.835 0 0 0.84 0 0 0.845 0 0 0.85 0 0 0.855 0 0 0.86 0 0 0.865 0 0 0.87 0 0 0.875 0 0 0.88 0 0 0.885 0 0 0.89 0 0 0.895 0 0 0.9 0 0 0.905 0 0 0.91 0 0 0.915 0 0 0.92 0 0 0.925 0 0 0.93 0 0 0.935 0 0 0.94 0 0 0.945 0 0 0.95 0 0 0.955 0 0 0.96 0 0 0.965 0 0 0.97 0 0 0.975 0 0 0.98 0 0 0.985 0 0 0.99 0 0 0.995 0 0 1 0 0 0 0.02 0 0.005 0.02 0 0.01 0.02 0 0.015 0.02 0 0.02 0.02 0 0.025 0.02 0 0.03 0.02 0 0.035 0.02 0 0.04 0.02 0 0.045 0.02 0 0.05 0.02 0 0.055 0.02 0 0.06 0.02 0 0.065 0.02 0 0.07 0.02 0 0.075 0.02 0 0.08 0.02 0 0.085 0.02 0 0.09 0.02 0 0.095 0.02 0 0.1 0.02 0 0.105 0.02 0 0.11 0.02 0 0.115 0.02 0 0.12 0.02 0 0.125 0.02 0 0.13 0.02 0 0.135 0.02 0 0.14 0.02 0 0.145 0.02 0 0.15 0.02 0 0.155 0.02 0 0.16 0.02 0 0.165 0.02 0 0.17 0.02 0 0.175 0.02 0 0.18 0.02 0 0.185 0.02 0 0.19 0.02 0 0.195 0.02 0 0.2 0.02 0 0.205 0.02 0 0.21 0.02 0 0.215 0.02 0 0.22 0.02 0 0.225 0.02 0 0.23 0.02 0 0.235 0.02 0 0.24 0.02 0 0.245 0.02 0 0.25 0.02 0 0.255 0.02 0 0.26 0.02 0 0.265 0.02 0 0.27 0.02 0 0.275 0.02 0 0.28 0.02 0 0.285 0.02 0 0.29 0.02 0 0.295 0.02 0 0.3 0.02 0 0.305 0.02 0 0.31 0.02 0 0.315 0.02 0 0.32 0.02 0 0.325 0.02 0 0.33 0.02 0 0.335 0.02 0 0.34 0.02 0 0.345 0.02 0 0.35 0.02 0 0.355 0.02 0 0.36 0.02 0 0.365 0.02 0 0.37 0.02 0 0.375 0.02 0 0.38 0.02 0 0.385 0.02 0 0.39 0.02 0 0.395 0.02 0 0.4 0.02 0 0.405 0.02 0 0.41 0.02 0 0.415 0.02 0 0.42 0.02 0 0.425 0.02 0 0.43 0.02 0 0.435 0.02 0 0.44 0.02 0 0.445 0.02 0 0.45 0.02 0 0.455 0.02 0 0.46 0.02 0 0.465 0.02 0 0.47 0.02 0 0.475 0.02 0 0.48 0.02 0 0.485 0.02 0 0.49 0.02 0 0.495 0.02 0 0.5 0.02 0 0.505 0.02 0 0.51 0.02 0 0.515 0.02 0 0.52 0.02 0 0.525 0.02 0 0.53 0.02 0 0.535 0.02 0 0.54 0.02 0 0.545 0.02 0 0.55 0.02 0 0.555 0.02 0 0.56 0.02 0 0.565 0.02 0 0.57 0.02 0 0.575 0.02 0 0.58 0.02 0 0.585 0.02 0 0.59 0.02 0 0.595 0.02 0 0.6 0.02 0 0.605 0.02 0 0.61 0.02 0 0.615 0.02 0 0.62 0.02 0 0.625 0.02 0 0.63 0.02 0 0.635 0.02 0 0.64 0.02 0 0.645 0.02 0 0.65 0.02 0 0.655 0.02 0 0.66 0.02 0 0.665 0.02 0 0.67 0.02 0 0.675 0.02 0 0.68 0.02 0 0.685 0.02 0 0.69 0.02 0 0.695 0.02 0 0.7 0.02 0 0.705 0.02 0 0.71 0.02 0 0.715 0.02 0 0.72 0.02 0 0.725 0.02 0 0.73 0.02 0 0.735 0.02 0 0.74 0.02 0 0.745 0.02 0 0.75 0.02 0 0.755 0.02 0 0.76 0.02 0 0.765 0.02 0 0.77 0.02 0 0.775 0.02 0 0.78 0.02 0 0.785 0.02 0 0.79 0.02 0 0.795 0.02 0 0.8 0.02 0 0.805 0.02 0 0.81 0.02 0 0.815 0.02 0 0.82 0.02 0 0.825 0.02 0 0.83 0.02 0 0.835 0.02 0 0.84 0.02 0 0.845 0.02 0 0.85 0.02 0 0.855 0.02 0 0.86 0.02 0 0.865 0.02 0 0.87 0.02 0 0.875 0.02 0 0.88 0.02 0 0.885 0.02 0 0.89 0.02 0 0.895 0.02 0 0.9 0.02 0 0.905 0.02 0 0.91 0.02 0 0.915 0.02 0 0.92 0.02 0 0.925 0.02 0 0.93 0.02 0 0.935 0.02 0 0.94 0.02 0 0.945 0.02 0 0.95 0.02 0 0.955 0.02 0 0.96 0.02 0 0.965 0.02 0 0.97 0.02 0 0.975 0.02 0 0.98 0.02 0 0.985 0.02 0 0.99 0.02 0 0.995 0.02 0 1 0.02 0 0 0.04 0 0.005 0.04 0 0.01 0.04 0 0.015 0.04 0 0.02 0.04 0 0.025 0.04 0 0.03 0.04 0 0.035 0.04 0 0.04 0.04 0 0.045 0.04 0 0.05 0.04 0 0.055 0.04 0 0.06 0.04 0 0.065 0.04 0 0.07 0.04 0 0.075 0.04 0 0.08 0.04 0 0.085 0.04 0 0.09 0.04 0 0.095 0.04 0 0.1 0.04 0 0.105 0.04 0 0.11 0.04 0 0.115 0.04 0 0.12 0.04 0 0.125 0.04 0 0.13 0.04 0 0.135 0.04 0 0.14 0.04 0 0.145 0.04 0 0.15 0.04 0 0.155 0.04 0 0.16 0.04 0 0.165 0.04 0 0.17 0.04 0 0.175 0.04 0 0.18 0.04 0 0.185 0.04 0 0.19 0.04 0 0.195 0.04 0 0.2 0.04 0 0.205 0.04 0 0.21 0.04 0 0.215 0.04 0 0.22 0.04 0 0.225 0.04 0 0.23 0.04 0 0.235 0.04 0 0.24 0.04 0 0.245 0.04 0 0.25 0.04 0 0.255 0.04 0 0.26 0.04 0 0.265 0.04 0 0.27 0.04 0 0.275 0.04 0 0.28 0.04 0 0.285 0.04 0 0.29 0.04 0 0.295 0.04 0 0.3 0.04 0 0.305 0.04 0 0.31 0.04 0 0.315 0.04 0 0.32 0.04 0 0.325 0.04 0 0.33 0.04 0 0.335 0.04 0 0.34 0.04 0 0.345 0.04 0 0.35 0.04 0 0.355 0.04 0 0.36 0.04 0 0.365 0.04 0 0.37 0.04 0 0.375 0.04 0 0.38 0.04 0 0.385 0.04 0 0.39 0.04 0 0.395 0.04 0 0.4 0.04 0 0.405 0.04 0 0.41 0.04 0 0.415 0.04 0 0.42 0.04 0 0.425 0.04 0 0.43 0.04 0 0.435 0.04 0 0.44 0.04 0 0.445 0.04 0 0.45 0.04 0 0.455 0.04 0 0.46 0.04 0 0.465 0.04 0 0.47 0.04 0 0.475 0.04 0 0.48 0.04 0 0.485 0.04 0 0.49 0.04 0 0.495 0.04 0 0.5 0.04 0 0.505 0.04 0 0.51 0.04 0 0.515 0.04 0 0.52 0.04 0 0.525 0.04 0 0.53 0.04 0 0.535 0.04 0 0.54 0.04 0 0.545 0.04 0 0.55 0.04 0 0.555 0.04 0 0.56 0.04 0 0.565 0.04 0 0.57 0.04 0 0.575 0.04 0 0.58 0.04 0 0.585 0.04 0 0.59 0.04 0 0.595 0.04 0 0.6 0.04 0 0.605 0.04 0 0.61 0.04 0 0.615 0.04 0 0.62 0.04 0 0.625 0.04 0 0.63 0.04 0 0.635 0.04 0 0.64 0.04 0 0.645 0.04 0 0.65 0.04 0 0.655 0.04 0 0.66 0.04 0 0.665 0.04 0 0.67 0.04 0 0.675 0.04 0 0.68 0.04 0 0.685 0.04 0 0.69 0.04 0 0.695 0.04 0 0.7 0.04 0 0.705 0.04 0 0.71 0.04 0 0.715 0.04 0 0.72 0.04 0 0.725 0.04 0 0.73 0.04 0 0.735 0.04 0 0.74 0.04 0 0.745 0.04 0 0.75 0.04 0 0.755 0.04 0 0.76 0.04 0 0.765 0.04 0 0.77 0.04 0 0.775 0.04 0 0.78 0.04 0 0.785 0.04 0 0.79 0.04 0 0.795 0.04 0 0.8 0.04 0 0.805 0.04 0 0.81 0.04 0 0.815 0.04 0 0.82 0.04 0 0.825 0.04 0 0.83 0.04 0 0.835 0.04 0 0.84 0.04 0 0.845 0.04 0 0.85 0.04 0 0.855 0.04 0 0.86 0.04 0 0.865 0.04 0 0.87 0.04 0 0.875 0.04 0 0.88 0.04 0 0.885 0.04 0 0.89 0.04 0 0.895 0.04 0 0.9 0.04 0 0.905 0.04 0 0.91 0.04 0 0.915 0.04 0 0.92 0.04 0 0.925 0.04 0 0.93 0.04 0 0.935 0.04 0 0.94 0.04 0 0.945 0.04 0 0.95 0.04 0 0.955 0.04 0 0.96 0.04 0 0.965 0.04 0 0.97 0.04 0 0.975 0.04 0 0.98 0.04 0 0.985 0.04 0 0.99 0.04 0 0.995 0.04 0 1 0.04 0 0 0.06 0 0.005 0.06 0 0.01 0.06 0 0.015 0.06 0 0.02 0.06 0 0.025 0.06 0 0.03 0.06 0 0.035 0.06 0 0.04 0.06 0 0.045 0.06 0 0.05 0.06 0 0.055 0.06 0 0.06 0.06 0 0.065 0.06 0 0.07 0.06 0 0.075 0.06 0 0.08 0.06 0 0.085 0.06 0 0.09 0.06 0 0.095 0.06 0 0.1 0.06 0 0.105 0.06 0 0.11 0.06 0 0.115 0.06 0 0.12 0.06 0 0.125 0.06 0 0.13 0.06 0 0.135 0.06 0 0.14 0.06 0 0.145 0.06 0 0.15 0.06 0 0.155 0.06 0 0.16 0.06 0 0.165 0.06 0 0.17 0.06 0 0.175 0.06 0 0.18 0.06 0 0.185 0.06 0 0.19 0.06 0 0.195 0.06 0 0.2 0.06 0 0.205 0.06 0 0.21 0.06 0 0.215 0.06 0 0.22 0.06 0 0.225 0.06 0 0.23 0.06 0 0.235 0.06 0 0.24 0.06 0 0.245 0.06 0 0.25 0.06 0 0.255 0.06 0 0.26 0.06 0 0.265 0.06 0 0.27 0.06 0 0.275 0.06 0 0.28 0.06 0 0.285 0.06 0 0.29 0.06 0 0.295 0.06 0 0.3 0.06 0 0.305 0.06 0 0.31 0.06 0 0.315 0.06 0 0.32 0.06 0 0.325 0.06 0 0.33 0.06 0 0.335 0.06 0 0.34 0.06 0 0.345 0.06 0 0.35 0.06 0 0.355 0.06 0 0.36 0.06 0 0.365 0.06 0 0.37 0.06 0 0.375 0.06 0 0.38 0.06 0 0.385 0.06 0 0.39 0.06 0 0.395 0.06 0 0.4 0.06 0 0.405 0.06 0 0.41 0.06 0 0.415 0.06 0 0.42 0.06 0 0.425 0.06 0 0.43 0.06 0 0.435 0.06 0 0.44 0.06 0 0.445 0.06 0 0.45 0.06 0 0.455 0.06 0 0.46 0.06 0 0.465 0.06 0 0.47 0.06 0 0.475 0.06 0 0.48 0.06 0 0.485 0.06 0 0.49 0.06 0 0.495 0.06 0 0.5 0.06 0 0.505 0.06 0 0.51 0.06 0 0.515 0.06 0 0.52 0.06 0 0.525 0.06 0 0.53 0.06 0 0.535 0.06 0 0.54 0.06 0 0.545 0.06 0 0.55 0.06 0 0.555 0.06 0 0.56 0.06 0 0.565 0.06 0 0.57 0.06 0 0.575 0.06 0 0.58 0.06 0 0.585 0.06 0 0.59 0.06 0 0.595 0.06 0 0.6 0.06 0 0.605 0.06 0 0.61 0.06 0 0.615 0.06 0 0.62 0.06 0 0.625 0.06 0 0.63 0.06 0 0.635 0.06 0 0.64 0.06 0 0.645 0.06 0 0.65 0.06 0 0.655 0.06 0 0.66 0.06 0 0.665 0.06 0 0.67 0.06 0 0.675 0.06 0 0.68 0.06 0 0.685 0.06 0 0.69 0.06 0 0.695 0.06 0 0.7 0.06 0 0.705 0.06 0 0.71 0.06 0 0.715 0.06 0 0.72 0.06 0 0.725 0.06 0 0.73 0.06 0 0.735 0.06 0 0.74 0.06 0 0.745 0.06 0 0.75 0.06 0 0.755 0.06 0 0.76 0.06 0 0.765 0.06 0 0.77 0.06 0 0.775 0.06 0 0.78 0.06 0 0.785 0.06 0 0.79 0.06 0 0.795 0.06 0 0.8 0.06 0 0.805 0.06 0 0.81 0.06 0 0.815 0.06 0 0.82 0.06 0 0.825 0.06 0 0.83 0.06 0 0.835 0.06 0 0.84 0.06 0 0.845 0.06 0 0.85 0.06 0 0.855 0.06 0 0.86 0.06 0 0.865 0.06 0 0.87 0.06 0 0.875 0.06 0 0.88 0.06 0 0.885 0.06 0 0.89 0.06 0 0.895 0.06 0 0.9 0.06 0 0.905 0.06 0 0.91 0.06 0 0.915 0.06 0 0.92 0.06 0 0.925 0.06 0 0.93 0.06 0 0.935 0.06 0 0.94 0.06 0 0.945 0.06 0 0.95 0.06 0 0.955 0.06 0 0.96 0.06 0 0.965 0.06 0 0.97 0.06 0 0.975 0.06 0 0.98 0.06 0 0.985 0.06 0 0.99 0.06 0 0.995 0.06 0 1 0.06 0 0 0.08 0 0.005 0.08 0 0.01 0.08 0 0.015 0.08 0 0.02 0.08 0 0.025 0.08 0 0.03 0.08 0 0.035 0.08 0 0.04 0.08 0 0.045 0.08 0 0.05 0.08 0 0.055 0.08 0 0.06 0.08 0 0.065 0.08 0 0.07 0.08 0 0.075 0.08 0 0.08 0.08 0 0.085 0.08 0 0.09 0.08 0 0.095 0.08 0 0.1 0.08 0 0.105 0.08 0 0.11 0.08 0 0.115 0.08 0 0.12 0.08 0 0.125 0.08 0 0.13 0.08 0 0.135 0.08 0 0.14 0.08 0 0.145 0.08 0 0.15 0.08 0 0.155 0.08 0 0.16 0.08 0 0.165 0.08 0
[...]
			<PointData Scalars="VitesseX">
				<DataArray Name="VitesseX" type="Float32" format="ascii">
 0 -1.32717e-14 -1.32512e-14 -2.50393e-14 -3.23608e-14 -2.32359e-14 -5.56363e-14 -5.71831e-14 -5.59637e-14 -7.57368e-14 -6.60596e-14 -6.48904e-14 -4.3749e-14 -3.15308e-14 -3.06609e-14 1.11996e-14 3.92509e-14 -1.76715e-14 2.71079e-14 -7.23475e-14 2.89524e-14 -2.68609e-14 -1.32282e-13 3.24404e-14 -9.83253e-14 -7.49391e-15 -1.52847e-13 4.44701e-14 -1.55471e-13 4.14077e-14 -1.35918e-14 6.66072e-14 -3.31703e-14 1.32037e-13 2.56741e-14 6.31103e-13 3.16903e-12 1.77162e-11 9.77825e-11 5.16303e-10 2.59828e-09 1.24247e-08 5.63498e-08 2.41791e-07 9.79008e-07 3.72931e-06 1.33187e-05 4.44169e-05 0.000137671 0.00039442 0.00103793 0.00249182 0.00542271 0.0106497 0.0188681 0.0303225 0.0447016 0.0613503 0.0795812 0.0988562 0.118815 0.13924 0.159989 0.180957 0.202085 0.223337 0.244689 0.266125 0.287635 0.309211 0.33085 0.352551 0.374316 0.396149 0.418055 0.439985 0.46166 0.483311 0.50474 0.526162 0.547398 0.568646 0.589716 0.610783 0.631701 0.652543 0.673306 0.693841 0.714375 0.734589 0.75473 0.774698 0.794228 0.81365 0.832284 0.850199 0.867263 0.88243 0.895989 0.907421 0.915859 0.922385 0.926731 0.92889 0.930335 0.930872 0.930879 0.930848 0.930784 0.930675 0.930511 0.930297 0.930056 0.929808 0.929572 0.929353 0.929151 0.92897 0.928812 0.928674 0.928556 0.928453 0.928365 0.928288 0.928222 0.928164 0.928114 0.92807 0.928031 0.927996 0.927965 0.927937 0.927912 0.927889 0.927868 0.92785 0.927833 0.927817 0.927803 0.927789 0.927777 0.927765 0.927754 0.927744 0.927734 0.927725 0.927715 0.927707 0.927698 0.927689 0.927679 0.927667 0.927653 0.927633 0.927601 0.927542 0.927429 0.927206 0.926761 0.925876 0.924117 0.920652 0.91392 0.901123 0.877657 0.836909 0.771329 0.675724 0.55202 0.413288 0.278818 0.166692 0.0871396 0.0401121 0.0167928 0.00665725 0.002572 0.000982687 0.000373627 0.000141705 5.36563e-05 2.02876e-05 7.65937e-06 2.88696e-06 1.08613e-06 4.0777e-07 1.52729e-07 5.70536e-08 2.12503e-08 7.88928e-09 2.91886e-09 1.07543e-09 3.94306e-10 1.43977e-10 5.2112e-11 1.91888e-11 7.02062e-12 1.87949e-12 9.41971e-13 -2.00104e-13 0 0 -2.1019e-15 -1.45596e-14 -1.3197e-14 -2.41685e-14 -6.22506e-14 -3.84199e-14 -4.61206e-14 -6.23936e-14 -5.98852e-14 -9.97004e-14 -6.85443e-14 -1.58396e-14 -6.42132e-14 -9.19421e-15 2.98575e-14 -1.76625e-14 2.91497e-14 -1.19407e-14 4.98025e-14 -3.54033e-14 -2.98293e-14 1.2253e-15 -1.54881e-13 -3.09379e-14 -5.33701e-14 -1.48759e-14 -7.9418e-14 2.03811e-14 -3.81231e-14 -2.97062e-14 -2.04079e-14 6.81304e-14 -4.40285e-14 1.58618e-13 5.64558e-13 3.16556e-12 1.77582e-11 9.76604e-11 5.1653e-10 2.59809e-09 1.24249e-08 5.63497e-08 2.41791e-07 9.79008e-07 3.72931e-06 1.33187e-05 4.44169e-05 0.000137671 0.00039442 0.00103793 0.00249182 0.00542271 0.0106497 0.0188681 0.0303225 0.0447016 0.0613503 0.0795812 0.0988562 0.118815 0.13924 0.159989 0.180957 0.202085 0.223337 0.244689 0.266125 0.287635 0.309211 0.33085 0.352551 0.374316 0.396149 0.418055 0.439985 0.46166 0.483311 0.50474 0.526162 0.547398 0.568646 0.589716 0.610783 0.631701 0.652543 0.673306 0.693841 0.714375 0.734589 0.75473 0.774698 0.794228 0.81365 0.832284 0.850199 0.867263 0.88243 0.895989 0.907421 0.915859 0.922385 0.926731 0.92889 0.930335 0.930872 0.930879 0.930848 0.930784 0.930675 0.930511 0.930297 0.930056 0.929808 0.929572 0.929353 0.929151 0.92897 0.928812 0.928674 0.928556 0.928453 0.928365 0.928288 0.928222 0.928164 0.928114 0.92807 0.928031 0.927996 0.927965 0.927937 0.927912 0.927889 0.927868 0.92785 0.927833 0.927817 0.927803 0.927789 0.927777 0.927765 0.927754 0.927744 0.927734 0.927725 0.927715 0.927707 0.927698 0.927689 0.927679 0.927667 0.927653 0.927633 0.927601 0.927542 0.927429 0.927206 0.926761 0.925876 0.924117 0.920652 0.91392 0.901123 0.877657 0.836909 0.771329 0.675724 0.55202 0.413288 0.278818 0.166692 0.0871396 0.0401121 0.0167928 0.00665725 0.002572 0.000982687 0.000373627 0.000141705 5.36563e-05 2.02876e-05 7.65937e-06 2.88696e-06 1.08613e-06 4.0777e-07 1.52729e-07 5.70534e-08 2.12506e-08 7.88951e-09 2.91846e-09 1.07533e-09 3.94686e-10 1.43824e-10 5.23417e-11 1.86099e-11 6.58181e-12 2.36898e-12 7.47237e-13 2.20565e-13 0 0 -1.29397e-14 -1.77012e-14 -3.44695e-14 -2.16555e-14 -4.43163e-14 -3.65821e-14 -5.39284e-14 -4.62093e-14 -5.56999e-14 -4.2042e-14 -5.39031e-14 -6.48483e-14 6.28633e-15 -1.91845e-14 -4.89633e-14 3.13744e-14 2.08927e-14 8.11792e-15 6.21696e-15 -8.34564e-14 4.90631e-14 -1.35857e-13 9.97507e-15 -6.48746e-14 -5.09132e-15 4.86265e-14 -6.57031e-14 -1.26284e-13 1.49895e-14 3.16903e-14 2.94367e-15 -2.65982e-14 3.83591e-14 1.66517e-14 6.77132e-13 3.16719e-12 1.77901e-11 9.76954e-11 5.1628e-10 2.59827e-09 1.24249e-08 5.63498e-08 2.4179e-07 9.79008e-07 3.72931e-06 1.33187e-05 4.44169e-05 0.000137671 0.00039442 0.00103793 0.00249182 0.00542271 0.0106497 0.0188681 0.0303225 0.0447016 0.0613503 0.0795812 0.0988562 0.118815 0.13924 0.159989 0.180957 0.202085 0.223337 0.244689 0.266125 0.287635 0.309211 0.33085 0.352551 0.374316 0.396149 0.418055 0.439985 0.46166 0.483311 0.50474 0.526162 0.547398 0.568646 0.589716 0.610783 0.631701 0.652543 0.673306 0.693841 0.714375 0.734589 0.75473 0.774698 0.794228 0.81365 0.832284 0.850199 0.867263 0.88243 0.895989 0.907421 0.915859 0.922385 0.926731 0.92889 0.930335 0.930872 0.930879 0.930848 0.930784 0.930675 0.930511 0.930297 0.930056 0.929808 0.929572 0.929353 0.929151 0.92897 0.928812 0.928674 0.928556 0.928453 0.928365 0.928288 0.928222 0.928164 0.928114 0.92807 0.928031 0.927996 0.927965 0.927937 0.927912 0.927889 0.927868 0.92785 0.927833 0.927817 0.927803 0.927789 0.927777 0.927765 0.927754 0.927744 0.927734 0.927725 0.927715 0.927707 0.927698 0.927689 0.927679 0.927667 0.927653 0.927633 0.927601 0.927542 0.927429 0.927206 0.926761 0.925876 0.924117 0.920652 0.91392 0.901123 0.877657 0.836909 0.771329 0.675724 0.55202 0.413288 0.278818 0.166692 0.0871396 0.0401121 0.0167928 0.00665725 0.002572 0.000982687 0.000373627 0.000141705 5.36563e-05 2.02876e-05 7.65937e-06 2.88697e-06 1.08613e-06 4.0777e-07 1.52729e-07 5.70535e-08 2.12506e-08 7.88932e-09 2.91858e-09 1.07572e-09 3.94598e-10 1.44044e-10 5.2196e-11 1.91674e-11 6.38529e-12 2.45104e-12 2.82654e-13 1.07931e-13 0 0 -2.32656e-14 -3.31265e-14 -4.25709e-14 -3.09339e-14 -2.04273e-14 -5.28929e-14 -4.937e-14 -3.77811e-14 -2.95391e-14 -1.44789e-14 -1.57524e-14 -1.78106e-14 1.21969e-14 -4.6684e-14 -2.57175e-14 -3.81059e-14 2.11464e-15 -2.99018e-14 2.53722e-14 7.72348e-14 -9.35186e-14 -9.55334e-14 -5.939e-14 1.4748e-14 -5.44369e-15 1.41462e-14 -6.90285e-14 -8.17526e-14 -6.06687e-14 -2.36415e-14 1.13413e-13 -1.05385e-14 7.08894e-14 8.64742e-14 6.87688e-13 3.15265e-12 1.76639e-11 9.78043e-11 5.16238e-10 2.59835e-09 1.24249e-08 5.63497e-08 2.4179e-07 9.79008e-07 3.72931e-06 1.33187e-05 4.44169e-05 0.000137671 0.00039442 0.00103793 0.00249182 0.00542271 0.0106497 0.0188681 0.0303225 0.0447016 0.0613503 0.0795812 0.0988562 0.118815 0.13924 0.159989 0.180957 0.202085 0.223337 0.244689 0.266125 0.287635 0.309211 0.33085 0.352551 0.374316 0.396149 0.418055 0.439985 0.46166 0.483311 0.50474 0.526162 0.547398 0.568646 0.589716 0.610783 0.631701 0.652543 0.673306 0.693841 0.714375 0.734589 0.75473 0.774698 0.794228 0.81365 0.832284 0.850199 0.867263 0.88243 0.895989 0.907421 0.915859 0.922385 0.926731 0.92889 0.930335 0.930872 0.930879 0.930848 0.930784 0.930675 0.930511 0.930297 0.930056 0.929808 0.929572 0.929353 0.929151 0.92897 0.928812 0.928674 0.928556 0.928453 0.928365 0.928288 0.928222 0.928164 0.928114 0.92807 0.928031 0.927996 0.927965 0.927937 0.927912 0.927889 0.927868 0.92785 0.927833 0.927817 0.927803 0.927789 0.927777 0.927765 0.927754 0.927744 0.927734 0.927725 0.927715 0.927707 0.927698 0.927689 0.927679 0.927667 0.927653 0.927633 0.927601 0.927542 0.927429 0.927206 0.926761 0.925876 0.924117 0.920652 0.91392 0.901123 0.877657 0.836909 0.771329 0.675724 0.55202 0.413288 0.278818 0.166692 0.0871396 0.0401121 0.0167928 0.00665725 0.002572 0.000982687 0.000373627 0.000141705 5.36563e-05 2.02876e-05 7.65937e-06 2.88697e-06 1.08613e-06 4.0777e-07 1.52729e-07 5.70537e-08 2.12505e-08 7.88935e-09 2.91873e-09 1.07549e-09 3.94596e-10 1.44507e-10 5.23004e-11 1.91281e-11 6.59716e-12 1.85892e-12 6.1705e-13 2.31971e-13 0 0 -6.59548e-15 -3.33814e-14 -2.1185e-14 -3.64443e-14 -4.31198e-14 -5.46056e-14 -2.98505e-14 -2.70491e-15 -1.55424e-14 -4.96837e-14 -2.45424e-14 2.4487e-14 -3.42091e-14 -3.32529e-14 1.67894e-14 -6.06427e-14 2.79863e-14 -2.21834e-14 2.73718e-14 3.05079e-14 -1.46676e-13 5.27183e-14 -2.14305e-13 2.87003e-14 -8.82142e-14 4.06493e-14 -1.00311e-13 -1.18833e-15 -6.1478e-14 -4.15334e-14 6.6325e-14 8.35483e-14 5.33763e-14 2.83694e-13 5.40961e-13 3.14972e-12 1.76203e-11 9.7741e-11 5.16559e-10 2.59824e-09 1.2425e-08 5.63496e-08 2.4179e-07 9.79008e-07 3.72931e-06 1.33187e-05 4.44169e-05 0.000137671 0.00039442 0.00103793 0.00249182 0.00542271 0.0106497 0.0188681 0.0303225 0.0447016 0.0613503 0.0795812 0.0988562 0.118815 0.13924 0.159989 0.180957 0.202085 0.223337 0.244689 0.266125 0.287635 0.309211 0.33085 0.352551 0.374316 0.396149 0.418055 0.439985 0.46166 0.483311 0.50474 0.526162 0.547398 0.568646 0.589716 0.610783 0.631701 0.652543 0.673306 0.693841 0.714375 0.734589 0.75473 0.774698 0.794228 0.81365 0.832284 0.850199 0.867263 0.88243 0.895989 0.907421 0.915859 0.922385 0.926731 0.92889 0.930335 0.930872 0.930879 0.930848 0.930784 0.930675 0.930511 0.930297 0.930056 0.929808 0.929572 0.929353 0.929151 0.92897 0.928812 0.928674 0.928556 0.928453 0.928365 0.928288 0.928222 0.928164 0.928114 0.92807 0.928031 0.927996 0.927965 0.927937 0.927912 0.927889 0.927868 0.92785 0.927833 0.927817 0.927803 0.927789 0.927777 0.927765 0.927754 0.927744 0.927734 0.927725 0.927715 0.927707 0.927698 0.927689 0.927679 0.927667 0.927653 0.927633 0.927601 0.927542 0.927429 0.927206 0.926761 0.925876 0.924117 0.920652 0.91392 0.901123 0.877657 0.836909 0.771329 0.675724 0.55202 0.413288 0.278818 0.166692 0.0871396 0.0401121 0.0167928 0.00665725 0.002572 0.000982687 0.000373627 0.000141705 5.36563e-05 2.02876e-05 7.65937e-06 2.88697e-06 1.08613e-06 4.0777e-07 1.52729e-07 5.70537e-08 2.12509e-08 7.88967e-09 2.91857e-09 1.07533e-09 3.94782e-10 1.441e-10 5.24486e-11 1.85467e-11 6.38934e-12 2.17526e-12 8.55143e-13 3.28074e-13 0 0 -1.60697e-15 -2.00442e-14 -2.48124e-14 -3.83557e-14 -3.27523e-14 -5.5386e-14 -3.37596e-14 4.65572e-14 -3.93728e-14 -2.11524e-14 -5.31881e-14 -5.71711e-14 1.66563e-14 -2.37793e-14 -6.14281e-14 9.22511e-14 1.75577e-14 8.2662e-14 -1.5552e-13 -1.60608e-13 2.46084e-14 -1.09944e-13 5.23218e-14 -1.38294e-13 -7.64773e-14 2.71643e-14 9.33557e-15 -2.87673e-13 1.46014e-13 7.34173e-14 1.91337e-14 -3.44538e-14 2.61786e-13 1.36182e-13 5.62796e-13 3.16642e-12 1.76928e-11 9.77261e-11 5.16446e-10 2.59842e-09 1.24247e-08 5.63498e-08 2.4179e-07 9.79008e-07 3.72931e-06 1.33187e-05 4.44169e-05 0.000137671 0.00039442 0.00103793 0.00249182 0.00542271 0.0106497 0.0188681 0.0303225 0.0447016 0.0613503 0.0795812 0.0988562 0.118815 0.13924 0.159989 0.180957 0.202085 0.223337 0.244689 0.266125 0.287635 0.309211 0.33085 0.352551 0.374316 0.396149 0.418055 0.439985 0.46166 0.483311 0.50474 0.526162 0.547398 0.568646 0.589716 0.610783 0.631701 0.652543 0.673306 0.693841 0.714375 0.734589 0.75473 0.774698 0.794228 0.81365 0.832284 0.850199 0.867263 0.88243 0.895989 0.907421 0.915859 0.922385 0.926731 0.92889 0.930335 0.930872 0.930879 0.930848 0.930784 0.930675 0.930511 0.930297 0.930056 0.929808 0.929572 0.929353 0.929151 0.92897 0.928812 0.928674 0.928556 0.928453 0.928365 0.928288 0.928222 0.928164 0.928114 0.92807 0.928031 0.927996 0.927965 0.927937 0.927912 0.927889 0.927868 0.92785 0.927833 0.927817 0.927803 0.927789 0.927777 0.927765 0.927754 0.927744 0.927734 0.927725 0.927715 0.927707 0.927698 0.927689 0.927679 0.927667 0.927653 0.927633 0.927601 0.927542 0.927429 0.927206 0.926761 0.925876 0.924117 0.920652 0.91392 0.901123 0.877657 0.836909 0.771329 0.675724 0.55202 0.413288 0.278818 0.166692 0.0871396 0.0401121 0.0167928 0.00665725 0.002572 0.000982687 0.000373627 0.000141705 5.36563e-05 2.02876e-05 7.65937e-06 2.88697e-06 1.08613e-06 4.0777e-07 1.52729e-07 5.70536e-08 2.12512e-08 7.88953e-09 2.91877e-09 1.07589e-09 3.94502e-10 1.43604e-10 5.2117e-11 1.9141e-11 6.21195e-12 2.67628e-12 4.8899e-13 -2.33168e-13 0
				</DataArray>
				<DataArray Name="VitesseY" type="Float32" format="ascii">