<?xml version="1.0"?>
<VTKFile type="PolyData">
	<PolyData>
		<Piece NumberOfPoints="1206" NumberOfPolys="1000">
			<Points>
				<DataArray type="Float32" NumberOfComponents="3" format="ascii">
 0 0 0 0.005 0 0 0.01 0 0 0.015 0 0 0.02 0 0 0.025 0 0 0.03 0 0 0.035 0 0 0.04 0 0 0.045 0 0 0.05 0 0 0.055 0 0 0.06 0 0 0.065 0 0 0.07 0 0 0.075 0 0 0.08 0 0 0.085 0 0 0.09 0 0 0.095 0 0 0.1 0 0 0.105 0 0 0.11 0 0 0.115 0 0 0.12 0 0 0.125 0 0 0.13 0 0 0.135 0 0 0.14 0 0 0.145 0 0 0.15 0 0 0.155 0 0 0.16 0 0 0.165 0 0 0.17 0 0 0.175 0 0 0.18 0 0 0.185 0 0 0.19 0 0 0.195 0 0 0.2 0 0 0.205 0 0 0.21 0 0 0.215 0 0 0.22 0 0 0.225 0 0 0.23 0 0 0.235 0 0 0.24 0 0 0.245 0 0 0.25 0 0 0.255 0 0 0.26 0 0 0.265 0 0 0.27 0 0 0.275 0 0 0.28 0 0 0.285 0 0 0.29 0 0 0.295 0 0 0.3 0 0 0.305 0 0 0.31 0 0 0.315 0 0 0.32 0 0 0.325 0 0 0.33 0 0 0.335 0 0 0.34 0 0 0.345 0 0 0.35 0 0 0.355 0 0 0.36 0 0 0.365 0 0 0.37 0 0 0.375 0 0 0.38 0 0 0.385 0 0 0.39 0 0 0.395 0 0 0.4 0 0 0.405 0 0 0.41 0 0 0.415 0 0 0.42 0 0 0.425 0 0 0.43 0 0 0.435 0 0 0.44 0 0 0.445 0 0 0.45 0 0 0.455 0 0 0.46 0 0 0.465 0 0 0.47 0 0 0.475 0 0 0.48 0 0 0.485 0 0 0.49 0 0 0.495 0 0 0.5 0 0 0.505 0 0 0.51 0 0 0.515 0 0 0.52 0 0 0.525 0 0 0.53 0 0 0.535 0 0 0.54 0 0 0.545 0 0 0.55 0 0 0.555 0 0 0.56 0 0 0.565 0 0 0.57 0 0 0.575 0 0 0.58 0 0 0.585 0 0 0.59 0 0 0.595 0 0 0.6 0 0 0.605 0 0 0.61 0 0 0.615 0 0 0.62 0 0 0.625 0 0 0.63 0 0 0.635 0 0 0.64 0 0 0.645 0 0 0.65 0 0 0.655 0 0 0.66 0 0 0.665 0 0 0.67 0 0 0.675 0 0 0.68 0 0 0.685 0 0 0.69 0 0 0.695 0 0 0.7 0 0 0.705 0 0 0.71 0 0 0.715 0 0 0.72 0 0 0.725 0 0 0.73 0 0 0.735 0 0 0.74 0 0 0.745 0 0 0.75 0 0 0.755 0 0 0.76 0 0 0.765 0 0 0.77 0 0 0.775 0 0 0.78 0 0 0.785 0 0 0.79 0 0 0.795 0 0 0.8 0 0 0.805 0 0 0.81 0 0 0.815 0 0 0.82 0 0 0.825 0 0 0.83 0 0 0.835 0 0 0.84 0 0 0.845 0 0 0.85 0 0 0.855 0 0 0.86 0 0 0.865 0 0 0.87 0 0 0.875 0 0 0.88 0 0 0.885 0 0 0.89 0 0 0.895 0 0 0.9 0 0 0.905 0 0 0.91 0 0 0.915 0 0 0.92 0 0 0.925 0 0 0.93 0 0 0.935 0 0 0.94 0 0 0.945 0 0 0.95 0 0 0.955 0 0 0.96 0 0 0.965 0 0 0.97 0 0 0.975 0 0 0.98 0 0 0.985 0 0 0.99 0 0 0.995 0 0 1 0 0 0 0.02 0 0.005 0.02 0 0.01 0.02 0 0.015 0.02 0 0.02 0.02 0 0.025 0.02 0 0.03 0.02 0 0.035 0.02 0 0.04 0.02 0 0.045 0.02 0 0.05 0.02 0 0.055 0.02 0 0.06 0.02 0 0.065 0.02 0 0.07 0.02 0 0.075 0.02 0 0.08 0.02 0 0.085 0.02 0 0.09 0.02 0 0.095 0.02 0 0.1 0.02 0 0.105 0.02 0 0.11 0.02 0 0.115 0.02 0 0.12 0.02 0 0.125 0.02 0 0.13 0.02 0 0.135 0.02 0 0.14 0.02 0 0.145 0.02 0 0.15 0.02 0 0.155 0.02 0 0.16 0.02 0 0.165 0.02 0 0.17 0.02 0 0.175 0.02 0 0.18 0.02 0 0.185 0.02 0 0.19 0.02 0 0.195 0.02 0 0.2 0.02 0 0.205 0.02 0 0.21 0.02 0 0.215 0.02 0 0.22 0.02 0 0.225 0.02 0 0.23 0.02 0 0.235 0.02 0 0.24 0.02 0 0.245 0.02 0 0.25 0.02 0 0.255 0.02 0 0.26 0.02 0 0.265 0.02 0 0.27 0.02 0 0.275 0.02 0 0.28 0.02 0 0.285 0.02 0 0.29 0.02 0 0.295 0.02 0 0.3 0.02 0 0.305 0.02 0 0.31 0.02 0 0.315 0.02 0 0.32 0.02 0 0.325 0.02 0 0.33 0.02 0 0.335 0.02 0 0.34 0.02 0 0.345 0.02 0 0.35 0.02 0 0.355 0.02 0 0.36 0.02 0 0.365 0.02 0 0.37 0.02 0 0.375 0.02 0 0.38 0.02 0 0.385 0.02 0 0.39 0.02 0 0.395 0.02 0 0.4 0.02 0 0.405 0.02 0 0.41 0.02 0 0.415 0.02 0 0.42 0.02 0 0.425 0.02 0 0.43 0.02 0 0.435 0.02 0 0.44 0.02 0 0.445 0.02 0 0.45 0.02 0 0.455 0.02 0 0.46 0.02 0 0.465 0.02 0 0.47 0.02 0 0.475 0.02 0 0.48 0.02 0 0.485 0.02 0 0.49 0.02 0 0.495 0.02 0 0.5 0.02 0 0.505 0.02 0 0.51 0.02 0 0.515 0.02 0 0.52 0.02 0 0.525 0.02 0 0.53 0.02 0 0.535 0.02 0 0.54 0.02 0 0.545 0.02 0 0.55 0.02 0 0.555 0.02 0 0.56 0.02 0 0.565 0.02 0 0.57 0.02 0 0.575 0.02 0 0.58 0.02 0 0.585 0.02 0 0.59 0.02 0 0.595 0.02 0 0.6 0.02 0 0.605 0.02 0 0.61 0.02 0 0.615 0.02 0 0.62 0.02 0 0.625 0.02 0 0.63 0.02 0 0.635 0.02 0 0.64 0.02 0 0.645 0.02 0 0.65 0.02 0 0.655 0.02 0 0.66 0.02 0 0.665 0.02 0 0.67 0.02 0 0.675 0.02 0 0.68 0.02 0 0.685 0.02 0 0.69 0.02 0 0.695 0.02 0 0.7 0.02 0 0.705 0.02 0 0.71 0.02 0 0.715 0.02 0 0.72 0.02 0 0.725 0.02 0 0.73 0.02 0 0.735 0.02 0 0.74 0.02 0 0.745 0.02 0 0.75 0.02 0 0.755 0.02 0 0.76 0.02 0 0.765 0.02 0 0.77 0.02 0 0.775 0.02 0 0.78 0.02 0 0.785 0.02 0 0.79 0.02 0 0.795 0.02 0 0.8 0.02 0 0.805 0.02 0 0.81 0.02 0 0.815 0.02 0 0.82 0.02 0 0.825 0.02 0 0.83 0.02 0 0.835 0.02 0 0.84 0.02 0 0.845 0.02 0 0.85 0.02 0 0.855 0.02 0 0.86 0.02 0 0.865 0.02 0 0.87 0.02 0 0.875 0.02 0 0.88 0.02 0 0.885 0.02 0 0.89 0.02 0 0.895 0.02 0 0.9 0.02 0 0.905 0.02 0 0.91 0.02 0 0.915 0.02 0 0.92 0.02 0 0.925 0.02 0 0.93 0.02 0 0.935 0.02 0 0.94 0.02 0 0.945 0.02 0 0.95 0.02 0 0.955 0.02 0 0.96 0.02 0 0.965 0.02 0 0.97 0.02 0 0.975 0.02 0 0.98 0.02 0 0.985 0.02 0 0.99 0.02 0 0.995 0.02 0 1 0.02 0 0 0.04 0 0.005 0.04 0 0.01 0.04 0 0.015 0.04 0 0.02 0.04 0 0.025 0.04 0 0.03 0.04 0 0.035 0.04 0 0.04 0.04 0 0.045 0.04 0 0.05 0.04 0 0.055 0.04 0 0.06 0.04 0 0.065 0.04 0 0.07 0.04 0 0.075 0.04 0 0.08 0.04 0 0.085 0.04 0 0.09 0.04 0 0.095 0.04 0 0.1 0.04 0 0.105 0.04 0 0.11 0.04 0 0.115 0.04 0 0.12 0.04 0 0.125 0.04 0 0.13 0.04 0 0.135 0.04 0 0.14 0.04 0 0.145 0.04 0 0.15 0.04 0 0.155 0.04 0 0.16 0.04 0 0.165 0.04 0 0.17 0.04 0 0.175 0.04 0 0.18 0.04 0 0.185 0.04 0 0.19 0.04 0 0.195 0.04 0 0.2 0.04 0 0.205 0.04 0 0.21 0.04 0 0.215 0.04 0 0.22 0.04 0 0.225 0.04 0 0.23 0.04 0 0.235 0.04 0 0.24 0.04 0 0.245 0.04 0 0.25 0.04 0 0.255 0.04 0 0.26 0.04 0 0.265 0.04 0 0.27 0.04 0 0.275 0.04 0 0.28 0.04 0 0.285 0.04 0 0.29 0.04 0 0.295 0.04 0 0.3 0.04 0 0.305 0.04 0 0.31 0.04 0 0.315 0.04 0 0.32 0.04 0 0.325 0.04 0 0.33 0.04 0 0.335 0.04 0 0.34 0.04 0 0.345 0.04 0 0.35 0.04 0 0.355 0.04 0 0.36 0.04 0 0.365 0.04 0 0.37 0.04 0 0.375 0.04 0 0.38 0.04 0 0.385 0.04 0 0.39 0.04 0 0.395 0.04 0 0.4 0.04 0 0.405 0.04 0 0.41 0.04 0 0.415 0.04 0 0.42 0.04 0 0.425 0.04 0 0.43 0.04 0 0.435 0.04 0 0.44 0.04 0 0.445 0.04 0 0.45 0.04 0 0.455 0.04 0 0.46 0.04 0 0.465 0.04 0 0.47 0.04 0 0.475 0.04 0 0.48 0.04 0 0.485 0.04 0 0.49 0.04 0 0.495 0.04 0 0.5 0.04 0 0.505 0.04 0 0.51 0.04 0 0.515 0.04 0 0.52 0.04 0 0.525 0.04 0 0.53 0.04 0 0.535 0.04 0 0.54 0.04 0 0.545 0.04 0 0.55 0.04 0 0.555 0.04 0 0.56 0.04 0 0.565 0.04 0 0.57 0.04 0 0.575 0.04 0 0.58 0.04 0 0.585 0.04 0 0.59 0.04 0 0.595 0.04 0 0.6 0.04 0 0.605 0.04 0 0.61 0.04 0 0.615 0.04 0 0.62 0.04 0 0.625 0.04 0 0.63 0.04 0 0.635 0.04 0 0.64 0.04 0 0.645 0.04 0 0.65 0.04 0 0.655 0.04 0 0.66 0.04 0 0.665 0.04 0 0.67 0.04 0 0.675 0.04 0 0.68 0.04 0 0.685 0.04 0 0.69 0.04 0 0.695 0.04 0 0.7 0.04 0 0.705 0.04 0 0.71 0.04 0 0.715 0.04 0 0.72 0.04 0 0.725 0.04 0 0.73 0.04 0 0.735 0.04 0 0.74 0.04 0 0.745 0.04 0 0.75 0.04 0 0.755 0.04 0 0.76 0.04 0 0.765 0.04 0 0.77 0.04 0 0.775 0.04 0 0.78 0.04 0 0.785 0.04 0 0.79 0.04 0 0.795 0.04 0 0.8 0.04 0 0.805 0.04 0 0.81 0.04 0 0.815 0.04 0 0.82 0.04 0 0.825 0.04 0 0.83 0.04 0 0.835 0.04 0 0.84 0.04 0 0.845 0.04 0 0.85 0.04 0 0.855 0.04 0 0.86 0.04 0 0.865 0.04 0 0.87 0.04 0 0.875 0.04 0 0.88 0.04 0 0.885 0.04 0 0.89 0.04 0 0.895 0.04 0 0.9 0.04 0 0.905 0.04 0 0.91 0.04 0 0.915 0.04 0 0.92 0.04 0 0.925 0.04 0 0.93 0.04 0 0.935 0.04 0 0.94 0.04 0 0.945 0.04 0 0.95 0.04 0 0.955 0.04 0 0.96 0.04 0 0.965 0.04 0 0.97 0.04 0 0.975 0.04 0 0.98 0.04 0 0.985 0.04 0 0.99 0.04 0 0.995 0.04 0 1 0.04 0 0 0.06 0 0.005 0.06 0 0.01 0.06 0 0.015 0.06 0 0.02 0.06 0 0.025 0.06 0 0.03 0.06 0 0.035 0.06 0 0.04 0.06 0 0.045 0.06 0 0.05 0.06 0 0.055 0.06 0 0.06 0.06 0 0.065 0.06 0 0.07 0.06 0 0.075 0.06 0 0.08 0.06 0 0.085 0.06 0 0.09 0.06 0 0.095 0.06 0 0.1 0.06 0 0.105 0.06 0 0.11 0.06 0 0.115 0.06 0 0.12 0.06 0 0.125 0.06 0 0.13 0.06 0 0.135 0.06 0 0.14 0.06 0 0.145 0.06 0 0.15 0.06 0 0.155 0.06 0 0.16 0.06 0 0.165 0.06 0 0.17 0.06 0 0.175 0.06 0 0.18 0.06 0 0.185 0.06 0 0.19 0.06 0 0.195 0.06 0 0.2 0.06 0 0.205 0.06 0 0.21 0.06 0 0.215 0.06 0 0.22 0.06 0 0.225 0.06 0 0.23 0.06 0 0.235 0.06 0 0.24 0.06 0 0.245 0.06 0 0.25 0.06 0 0.255 0.06 0 0.26 0.06 0 0.265 0.06 0 0.27 0.06 0 0.275 0.06 0 0.28 0.06 0 0.285 0.06 0 0.29 0.06 0 0.295 0.06 0 0.3 0.06 0 0.305 0.06 0 0.31 0.06 0 0.315 0.06 0 0.32 0.06 0 0.325 0.06 0 0.33 0.06 0 0.335 0.06 0 0.34 0.06 0 0.345 0.06 0 0.35 0.06 0 0.355 0.06 0 0.36 0.06 0 0.365 0.06 0 0.37 0.06 0 0.375 0.06 0 0.38 0.06 0 0.385 0.06 0 0.39 0.06 0 0.395 0.06 0 0.4 0.06 0 0.405 0.06 0 0.41 0.06 0 0.415 0.06 0 0.42 0.06 0 0.425 0.06 0 0.43 0.06 0 0.435 0.06 0 0.44 0.06 0 0.445 0.06 0 0.45 0.06 0 0.455 0.06 0 0.46 0.06 0 0.465 0.06 0 0.47 0.06 0 0.475 0.06 0 0.48 0.06 0 0.485 0.06 0 0.49 0.06 0 0.495 0.06 0 0.5 0.06 0 0.505 0.06 0 0.51 0.06 0 0.515 0.06 0 0.52 0.06 0 0.525 0.06 0 0.53 0.06 0 0.535 0.06 0 0.54 0.06 0 0.545 0.06 0 0.55 0.06 0 0.555 0.06 0 0.56 0.06 0 0.565 0.06 0 0.57 0.06 0 0.575 0.06 0 0.58 0.06 0 0.585 0.06 0 0.59 0.06 0 0.595 0.06 0 0.6 0.06 0 0.605 0.06 0 0.61 0.06 0 0.615 0.06 0 0.62 0.06 0 0.625 0.06 0 0.63 0.06 0 0.635 0.06 0 0.64 0.06 0 0.645 0.06 0 0.65 0.06 0 0.655 0.06 0 0.66 0.06 0 0.665 0.06 0 0.67 0.06 0 0.675 0.06 0 0.68 0.06 0 0.685 0.06 0 0.69 0.06 0 0.695 0.06 0 0.7 0.06 0 0.705 0.06 0 0.71 0.06 0 0.715 0.06 0 0.72 0.06 0 0.725 0.06 0 0.73 0.06 0 0.735 0.06 0 0.74 0.06 0 0.745 0.06 0 0.75 0.06 0 0.755 0.06 0 0.76 0.06 0 0.765 0.06 0 0.77 0.06 0 0.775 0.06 0 0.78 0.06 0 0.785 0.06 0 0.79 0.06 0 0.795 0.06 0 0.8 0.06 0 0.805 0.06 0 0.81 0.06 0 0.815 0.06 0 0.82 0.06 0 0.825 0.06 0 0.83 0.06 0 0.835 0.06 0 0.84 0.06 0 0.845 0.06 0 0.85 0.06 0 0.855 0.06 0 0.86 0.06 0 0.865 0.06 0 0.87 0.06 0 0.875 0.06 0 0.88 0.06 0 0.885 0.06 0 0.89 0.06 0 0.895 0.06 0 0.9 0.06 0 0.905 0.06 0 0.91 0.06 0 0.915 0.06 0 0.92 0.06 0 0.925 0.06 0 0.93 0.06 0 0.935 0.06 0 0.94 0.06 0 0.945 0.06 0 0.95 0.06 0 0.955 0.06 0 0.96 0.06 0 0.965 0.06 0 0.97 0.06 0 0.975 0.06 0 0.98 0.06 0 0.985 0.06 0 0.99 0.06 0 0.995 0.06 0 1 0.06 0 0 0.08 0 0.005 0.08 0 0.01 0.08 0 0.015 0.08 0 0.02 0.08 0 0.025 0.08 0 0.03 0.08 0 0.035 0.08 0 0.04 0.08 0 0.045 0.08 0 0.05 0.08 0 0.055 0.08 0 0.06 0.08 0 0.065 0.08 0 0.07 0.08 0 0.075 0.08 0 0.08 0.08 0 0.085 0.08 0 0.09 0.08 0 0.095 0.08 0 0.1 0.08 0 0.105 0.08 0 0.11 0.08 0 0.115 0.08 0 0.12 0.08 0 0.125 0.08 0 0.13 0.08 0 0.135 0.08 0 0.14 0.08 0 0.145 0.08 0 0.15 0.08 0 0.155 0.08 0 0.16 0.08 0 0.165 0.08 0
[...]
			<PointData Scalars="VitesseX">
				<DataArray Name="VitesseX" type="Float32" format="ascii">
 0 -6.88174e-15 1.05941e-14 -9.28816e-15 8.88645e-15 -5.50296e-16 -6.91207e-15 -2.77089e-14 8.55212e-15 -1.48624e-14 -5.67642e-14 6.46098e-14 -4.56775e-14 -1.28444e-14 2.78381e-14 -5.19257e-14 8.56207e-15 -2.72575e-14 2.41734e-15 -1.11225e-13 -9.00603e-14 -3.16329e-14 -1.2687e-13 -6.90134e-15 -3.83329e-14 -4.54547e-14 -1.33998e-13 2.83511e-14 1.71107e-13 -3.13908e-14 -3.59483e-14 6.36622e-14 -6.18557e-14 -8.6658e-14 -2.55473e-14 -1.9904e-13 -1.84782e-13 -6.43055e-14 -2.00646e-13 -1.51777e-13 -2.54473e-14 -2.01029e-13 -1.4861e-13 1.51838e-13 -5.9929e-14 -1.17257e-13 -4.79789e-14 1.14667e-13 -1.13749e-14 1.39982e-12 7.02884e-12 4.81387e-11 3.09961e-10 1.877e-09 1.06992e-08 5.72412e-08 2.86577e-07 1.33777e-06 5.79886e-06 2.32298e-05 8.55116e-05 0.000287309 0.000874078 0.00238614 0.00579166 0.0124106 0.0234407 0.0392966 0.0593953 0.0826186 0.107906 0.134508 0.161976 0.190024 0.218449 0.247144 0.276049 0.305129 0.334367 0.363762 0.39332 0.423052 0.452776 0.481824 0.510919 0.539469 0.56807 0.596256 0.62436 0.652237 0.679686 0.707162 0.733818 0.760428 0.786364 0.811251 0.835768 0.857602 0.877656 0.895132 0.90779 0.917976 0.92494 0.927987 0.930267 0.931357 0.931348 0.93125 0.93116 0.931038 0.930839 0.930557 0.93023 0.929908 0.929633 0.929392 0.929175 0.928983 0.928819 0.928682 0.928568 0.928471 0.928388 0.928317 0.928256 0.928202 0.928155 0.928112 0.928072 0.928035 0.928 0.927967 0.927937 0.927909 0.927881 0.927851 0.927815 0.927765 0.927685 0.927537 0.927244 0.926652 0.925449 0.923018 0.918178 0.908741 0.890931 0.858918 0.805221 0.722961 0.610183 0.475352 0.335784 0.211684 0.117031 0.0565295 0.0243908 0.00978633 0.00378193 0.00143613 0.00054065 0.000202462 7.54962e-05 2.80356e-05 1.03654e-05 3.81398e-06 1.39603e-06 5.08077e-07 1.83773e-07 6.60315e-08 2.35589e-08 8.34213e-09 2.93094e-09 1.02086e-09 3.5238e-10 1.20053e-10 4.05723e-11 1.36794e-11 3.93643e-12 1.40434e-12 -7.09104e-14 6.38485e-13 -1.07515e-12 8.03517e-13 -6.9696e-13 2.46068e-13 3.51771e-13 3.63585e-13 1.47593e-13 -7.40497e-13 3.96816e-13 -2.27077e-14 3.91149e-13 2.93228e-13 -9.41111e-14 2.76522e-13 1.71517e-13 6.83992e-13 -5.73939e-13 -1.60515e-13 0 0 7.67257e-15 -2.86204e-15 2.57781e-14 -1.11291e-14 -4.53912e-15 1.69431e-15 1.9762e-15 -2.13895e-14 -9.85531e-15 1.65909e-14 -7.57977e-14 3.29209e-14 -2.97609e-14 -5.51181e-14 3.12334e-14 -3.10858e-14 -6.39327e-14 -7.88911e-14 -2.8017e-14 -4.19874e-14 -9.06778e-14 -1.11147e-14 -1.13462e-13 -2.21125e-14 -2.84989e-14 6.1267e-14 -2.50235e-14 -1.10387e-13 1.29661e-13 4.75992e-14 -5.91795e-14 -6.28233e-14 -6.08611e-14 -2.03422e-13 -6.20939e-14 -5.78955e-14 -1.90532e-13 -1.00802e-13 -8.45233e-14 -8.6847e-14 -5.8139e-14 -6.8503e-14 -1.89213e-13 3.28354e-14 -9.77675e-14 -8.53284e-15 -1.02004e-13 2.66433e-13 9.08577e-13 7.23517e-12 4.83103e-11 3.10104e-10 1.87724e-09 1.06985e-08 5.72413e-08 2.86578e-07 1.33777e-06 5.79886e-06 2.32298e-05 8.55116e-05 0.000287309 0.000874078 0.00238614 0.00579166 0.0124106 0.0234407 0.0392966 0.0593953 0.0826186 0.107906 0.134508 0.161976 0.190024 0.218449 0.247144 0.276049 0.305129 0.334367 0.363762 0.39332 0.423052 0.452776 0.481824 0.510919 0.539469 0.56807 0.596256 0.62436 0.652237 0.679686 0.707162 0.733818 0.760428 0.786364 0.811251 0.835768 0.857602 0.877656 0.895132 0.90779 0.917976 0.92494 0.927987 0.930267 0.931357 0.931348 0.93125 0.93116 0.931038 0.930839 0.930557 0.93023 0.929908 0.929633 0.929392 0.929175 0.928983 0.928819 0.928682 0.928568 0.928471 0.928388 0.928317 0.928256 0.928202 0.928155 0.928112 0.928072 0.928035 0.928 0.927967 0.927937 0.927909 0.927881 0.927851 0.927815 0.927765 0.927685 0.927537 0.927244 0.926652 0.925449 0.923018 0.918178 0.908741 0.890931 0.858918 0.805221 0.722961 0.610183 0.475352 0.335784 0.211684 0.117031 0.0565295 0.0243908 0.00978633 0.00378193 0.00143613 0.00054065 0.000202462 7.54962e-05 2.80356e-05 1.03654e-05 3.81398e-06 1.39603e-06 5.08077e-07 1.83773e-07 6.60315e-08 2.35584e-08 8.34259e-09 2.93056e-09 1.02114e-09 3.5236e-10 1.20406e-10 4.04336e-11 1.33288e-11 4.21492e-12 1.1269e-12 2.66446e-13 -5.90533e-13 6.57584e-13 -7.78994e-13 6.96195e-13 -2.36434e-13 1.99151e-13 1.49771e-13 2.14976e-13 1.61081e-13 -4.50293e-13 1.60254e-13 -1.07515e-13 3.74989e-13 4.53763e-13 -2.49217e-13 4.42991e-13 -2.65546e-13 4.68764e-13 3.29098e-13 0 0 -2.99949e-15 5.32166e-15 -7.79993e-16 3.79501e-14 2.02993e-14 5.37894e-15 -1.80709e-14 1.75105e-14 -4.98969e-15 -3.43641e-14 -1.1511e-14 -4.0487e-14 -3.20664e-14 -8.60654e-14 -5.35999e-14 -1.4494e-14 -4.895e-14 -9.38668e-14 -9.44967e-14 1.99976e-14 -8.4939e-14 -6.73786e-14 -2.67075e-14 -2.96803e-14 -3.04409e-14 -9.94338e-14 6.92603e-14 4.55691e-14 -4.95945e-14 -2.81199e-14 1.74968e-14 9.79224e-17 -1.60776e-13 -6.3548e-14 -1.43173e-13 -7.01223e-14 -5.17693e-14 -7.00381e-14 -5.99841e-14 -1.82924e-13 -7.61933e-14 -1.75951e-15 -1.21466e-13 -2.20572e-13 5.35608e-14 -4.66215e-14 1.47454e-13 1.23235e-13 1.01174e-12 7.29119e-12 4.82666e-11 3.10014e-10 1.87701e-09 1.06989e-08 5.72412e-08 2.86578e-07 1.33777e-06 5.79886e-06 2.32298e-05 8.55116e-05 0.000287309 0.000874078 0.00238614 0.00579166 0.0124106 0.0234407 0.0392966 0.0593953 0.0826186 0.107906 0.134508 0.161976 0.190024 0.218449 0.247144 0.276049 0.305129 0.334367 0.363762 0.39332 0.423052 0.452776 0.481824 0.510919 0.539469 0.56807 0.596256 0.62436 0.652237 0.679686 0.707162 0.733818 0.760428 0.786364 0.811251 0.835768 0.857602 0.877656 0.895132 0.90779 0.917976 0.92494 0.927987 0.930267 0.931357 0.931348 0.93125 0.93116 0.931038 0.930839 0.930557 0.93023 0.929908 0.929633 0.929392 0.929175 0.928983 0.928819 0.928682 0.928568 0.928471 0.928388 0.928317 0.928256 0.928202 0.928155 0.928112 0.928072 0.928035 0.928 0.927967 0.927937 0.927909 0.927881 0.927851 0.927815 0.927765 0.927685 0.927537 0.927244 0.926652 0.925449 0.923018 0.918178 0.908741 0.890931 0.858918 0.805221 0.722961 0.610183 0.475352 0.335784 0.211684 0.117031 0.0565295 0.0243908 0.00978633 0.00378193 0.00143613 0.00054065 0.000202462 7.54962e-05 2.80356e-05 1.03654e-05 3.81398e-06 1.39603e-06 5.08077e-07 1.83773e-07 6.60315e-08 2.35587e-08 8.34236e-09 2.93081e-09 1.02111e-09 3.52628e-10 1.20499e-10 4.04749e-11 1.34214e-11 4.36435e-12 7.03521e-13 4.0827e-14 2.55782e-13 -5.32222e-14 1.13928e-14 9.12201e-14 1.19082e-14 -2.80193e-14 8.64831e-14 -3.61134e-14 2.43082e-14 -5.35676e-13 4.00761e-13 -2.50141e-14 -2.37669e-13 1.98966e-13 2.27652e-13 -1.08194e-13 3.67552e-13 2.51567e-13 4.33287e-13 0 0 -1.64365e-15 -4.8496e-16 -3.47523e-15 1.59159e-14 1.87765e-14 2.14725e-14 -1.19999e-14 -1.55387e-14 1.15066e-14 -2.84871e-14 -4.37502e-14 -4.41983e-14 -2.63707e-14 -2.97534e-14 -1.06286e-13 -1.39756e-13 -7.58855e-14 -2.63106e-14 -8.21831e-14 -9.46011e-14 3.20809e-14 -4.50856e-14 4.32057e-14 -3.71574e-14 -1.1248e-13 -1.78409e-13 3.6517e-14 7.32807e-14 5.19945e-14 -6.32493e-14 1.14974e-15 -8.48691e-14 -7.92101e-14 -1.71204e-14 -1.61558e-13 -1.07946e-13 5.76515e-14 -1.8746e-13 -1.78001e-13 5.6351e-14 -1.77695e-13 -1.56064e-13 3.38854e-14 -7.12248e-15 6.10012e-14 -4.83585e-14 -4.85811e-14 3.82948e-14 1.12968e-12 7.17497e-12 4.83451e-11 3.10004e-10 1.87707e-09 1.06988e-08 5.72414e-08 2.86578e-07 1.33777e-06 5.79886e-06 2.32298e-05 8.55116e-05 0.000287309 0.000874078 0.00238614 0.00579166 0.0124106 0.0234407 0.0392966 0.0593953 0.0826186 0.107906 0.134508 0.161976 0.190024 0.218449 0.247144 0.276049 0.305129 0.334367 0.363762 0.39332 0.423052 0.452776 0.481824 0.510919 0.539469 0.56807 0.596256 0.62436 0.652237 0.679686 0.707162 0.733818 0.760428 0.786364 0.811251 0.835768 0.857602 0.877656 0.895132 0.90779 0.917976 0.92494 0.927987 0.930267 0.931357 0.931348 0.93125 0.93116 0.931038 0.930839 0.930557 0.93023 0.929908 0.929633 0.929392 0.929175 0.928983 0.928819 0.928682 0.928568 0.928471 0.928388 0.928317 0.928256 0.928202 0.928155 0.928112 0.928072 0.928035 0.928 0.927967 0.927937 0.927909 0.927881 0.927851 0.927815 0.927765 0.927685 0.927537 0.927244 0.926652 0.925449 0.923018 0.918178 0.908741 0.890931 0.858918 0.805221 0.722961 0.610183 0.475352 0.335784 0.211684 0.117031 0.0565295 0.0243908 0.00978633 0.00378193 0.00143613 0.00054065 0.000202462 7.54962e-05 2.80356e-05 1.03654e-05 3.81398e-06 1.39603e-06 5.08077e-07 1.83773e-07 6.60316e-08 2.35585e-08 8.34254e-09 2.93107e-09 1.02121e-09 3.52608e-10 1.20265e-10 4.06683e-11 1.35933e-11 4.25826e-12 1.24866e-12 3.22364e-13 2.7166e-13 -5.41734e-13 6.3871e-13 -2.47039e-13 -3.76757e-13 1.73727e-14 -3.29518e-13 -6.82627e-14 -2.07599e-13 -1.10563e-13 1.13368e-13 6.28819e-13 2.71268e-13 -5.45857e-13 3.25006e-13 6.43326e-14 -4.6632e-13 -3.75865e-13 -3.77499e-13 0 0 1.29718e-14 -8.33225e-15 1.73966e-14 -2.58299e-14 -2.51186e-14 6.05932e-15 5.24088e-15 -4.26512e-14 -3.42603e-15 1.27895e-14 -1.22428e-13 -1.30148e-14 -3.34035e-14 -8.48639e-14 -3.74983e-14 -1.49603e-13 -5.72906e-14 -1.53595e-14 -1.96204e-14 -1.24949e-13 -1.80327e-14 2.11037e-14 -8.49362e-14 -4.00837e-14 -1.00011e-13 4.56912e-14 -8.96158e-14 -8.20341e-14 1.66269e-13 6.06547e-14 -1.3491e-13 -8.63694e-14 -2.54049e-15 -1.43387e-13 -6.41542e-16 -1.10243e-13 -2.30618e-13 -1.24434e-13 -1.03196e-13 8.75536e-14 -8.78882e-14 -1.17791e-13 -5.58622e-14 1.76372e-13 -7.6025e-14 -6.62668e-14 -2.38944e-13 1.54258e-13 8.87524e-13 7.22607e-12 4.84191e-11 3.10232e-10 1.87731e-09 1.06983e-08 5.72415e-08 2.86578e-07 1.33777e-06 5.79886e-06 2.32298e-05 8.55116e-05 0.000287309 0.000874078 0.00238614 0.00579166 0.0124106 0.0234407 0.0392966 0.0593953 0.0826186 0.107906 0.134508 0.161976 0.190024 0.218449 0.247144 0.276049 0.305129 0.334367 0.363762 0.39332 0.423052 0.452776 0.481824 0.510919 0.539469 0.56807 0.596256 0.62436 0.652237 0.679686 0.707162 0.733818 0.760428 0.786364 0.811251 0.835768 0.857602 0.877656 0.895132 0.90779 0.917976 0.92494 0.927987 0.930267 0.931357 0.931348 0.93125 0.93116 0.931038 0.930839 0.930557 0.93023 0.929908 0.929633 0.929392 0.929175 0.928983 0.928819 0.928682 0.928568 0.928471 0.928388 0.928317 0.928256 0.928202 0.928155 0.928112 0.928072 0.928035 0.928 0.927967 0.927937 0.927909 0.927881 0.927851 0.927815 0.927765 0.927685 0.927537 0.927244 0.926652 0.925449 0.923018 0.918178 0.908741 0.890931 0.858918 0.805221 0.722961 0.610183 0.475352 0.335784 0.211684 0.117031 0.0565295 0.0243908 0.00978633 0.00378193 0.00143613 0.00054065 0.000202462 7.54962e-05 2.80356e-05 1.03654e-05 3.81398e-06 1.39603e-06 5.08077e-07 1.83773e-07 6.60315e-08 2.35585e-08 8.3426e-09 2.93094e-09 1.02115e-09 3.52696e-10 1.20338e-10 4.07878e-11 1.32179e-11 4.32957e-12 1.21454e-12 2.26729e-13 -1.7133e-13 2.99482e-13 -1.44737e-13 3.52768e-13 -5.85041e-13 1.48749e-13 -6.12072e-13 7.3945e-15 1.55969e-13 -1.91295e-13 -6.79037e-14 2.50043e-13 3.75418e-13 5.16108e-13 -8.95639e-14 2.86342e-13 -1.21321e-12 -5.62679e-14 -2.09035e-13 0 0 1.00496e-15 1.12669e-14 -2.06606e-14 2.35533e-14 -3.86637e-14 -3.03692e-14 -3.33214e-14 3.21274e-14 -3.49964e-14 -7.6121e-14 3.58274e-14 -1.30126e-13 -3.15208e-14 -1.44278e-13 -8.40175e-14 2.20526e-14 3.98978e-14 -5.63198e-15 -1.19059e-13 -2.67855e-14 -1.20382e-13 -1.07019e-13 -8.9676e-14 -5.93212e-14 -2.44003e-14 -7.19848e-15 -3.53469e-14 1.72391e-13 -1.61353e-13 6.04214e-14 -5.51056e-14 6.0986e-14 -1.33149e-13 1.6676e-15 -3.93653e-14 -2.1383e-13 -3.63318e-13 -1.30658e-14 4.69105e-14 -1.55197e-13 -5.75229e-14 6.14229e-14 1.07837e-13 -1.99754e-13 -8.86524e-14 -1.59973e-13 2.32856e-13 -6.58441e-14 1.12184e-12 7.24309e-12 4.81993e-11 3.10238e-10 1.87702e-09 1.06991e-08 5.72413e-08 2.86577e-07 1.33777e-06 5.79886e-06 2.32298e-05 8.55116e-05 0.000287309 0.000874078 0.00238614 0.00579166 0.0124106 0.0234407 0.0392966 0.0593953 0.0826186 0.107906 0.134508 0.161976 0.190024 0.218449 0.247144 0.276049 0.305129 0.334367 0.363762 0.39332 0.423052 0.452776 0.481824 0.510919 0.539469 0.56807 0.596256 0.62436 0.652237 0.679686 0.707162 0.733818 0.760428 0.786364 0.811251 0.835768 0.857602 0.877656 0.895132 0.90779 0.917976 0.92494 0.927987 0.930267 0.931357 0.931348 0.93125 0.93116 0.931038 0.930839 0.930557 0.93023 0.929908 0.929633 0.929392 0.929175 0.928983 0.928819 0.928682 0.928568 0.928471 0.928388 0.928317 0.928256 0.928202 0.928155 0.928112 0.928072 0.928035 0.928 0.927967 0.927937 0.927909 0.927881 0.927851 0.927815 0.927765 0.927685 0.927537 0.927244 0.926652 0.925449 0.923018 0.918178 0.908741 0.890931 0.858918 0.805221 0.722961 0.610183 0.475352 0.335784 0.211684 0.117031 0.0565295 0.0243908 0.00978633 0.00378193 0.00143613 0.00054065 0.000202462 7.54962e-05 2.80356e-05 1.03654e-05 3.81398e-06 1.39603e-06 5.08077e-07 1.83773e-07 6.60315e-08 2.35592e-08 8.34179e-09 2.93118e-09 1.02067e-09 3.53093e-10 1.20386e-10 4.0894e-11 1.31136e-11 4.37789e-12 4.89344e-13 -7.13419e-13 1.44514e-12 -8.14327e-13 8.17395e-13 -7.07296e-13 3.26184e-13 1.60181e-13 -3.281e-13 -2.03272e-13 -2.86905e-13 6.45841e-14 9.57628e-14 -2.01401e-13 -7.23788e-13 1.52022e-12 4.0112e-13 -4.86834e-13 4.56405e-13 -3.69138e-13 3.84788e-13 0
				</DataArray>
				<DataArray Name="VitesseY" type="Float32" format="ascii">