<?xml version="1.0"?>
<VTKFile type="PolyData">
	<PolyData>
		<Piece NumberOfPoints="1206" NumberOfPolys="1000">
			<Points>
				<DataArray type="Float32" NumberOfComponents="3" format="ascii">
 0 0 0 0.005 0 0 0.01 0 0 0.015 0 0 0.02 0 0 0.025 0 0 0.03 0 0 0.035 0 0 0.04 0 0 0.045 0 0 0.05 0 0 0.055 0 0 0.06 0 0 0.065 0 0 0.07 0 0 0.075 0 0 0.08 0 0 0.085 0 0 0.09 0 0 0.095 0 0 0.1 0 0 0.105 0 0 0.11 0 0 0.115 0 0 0.12 0 0 0.125 0 0 0.13 0 0 0.135 0 0 0.14 0 0 0.145 0 0 0.15 0 0 0.155 0 0 0.16 0 0 0.165 0 0 0.17 0 0 0.175 0 0 0.18 0 0 0.185 0 0 0.19 0 0 0.195 0 0 0.2 0 0 0.205 0 0 0.21 0 0 0.215 0 0 0.22 0 0 0.225 0 0 0.23 0 0 0.235 0 0 0.24 0 0 0.245 0 0 0.25 0 0 0.255 0 0 0.26 0 0 0.265 0 0 0.27 0 0 0.275 0 0 0.28 0 0 0.285 0 0 0.29 0 0 0.295 0 0 0.3 0 0 0.305 0 0 0.31 0 0 0.315 0 0 0.32 0 0 0.325 0 0 0.33 0 0 0.335 0 0 0.34 0 0 0.345 0 0 0.35 0 0 0.355 0 0 0.36 0 0 0.365 0 0 0.37 0 0 0.375 0 0 0.38 0 0 0.385 0 0 0.39 0 0 0.395 0 0 0.4 0 0 0.405 0 0 0.41 0 0 0.415 0 0 0.42 0 0 0.425 0 0 0.43 0 0 0.435 0 0 0.44 0 0 0.445 0 0 0.45 0 0 0.455 0 0 0.46 0 0 0.465 0 0 0.47 0 0 0.475 0 0 0.48 0 0 0.485 0 0 0.49 0 0 0.495 0 0 0.5 0 0 0.505 0 0 0.51 0 0 0.515 0 0 0.52 0 0 0.525 0 0 0.53 0 0 0.535 0 0 0.54 0 0 0.545 0 0 0.55 0 0 0.555 0 0 0.56 0 0 0.565 0 0 0.57 0 0 0.575 0 0 0.58 0 0 0.585 0 0 0.59 0 0 0.595 0 0 0.6 0 0 0.605 0 0 0.61 0 0 0.615 0 0 0.62 0 0 0.625 0 0 0.63 0 0 0.635 0 0 0.64 0 0 0.645 0 0 0.65 0 0 0.655 0 0 0.66 0 0 0.665 0 0 0.67 0 0 0.675 0 0 0.68 0 0 0.685 0 0 0.69 0 0 0.695 0 0 0.7 0 0 0.705 0 0 0.71 0 0 0.715 0 0 0.72 0 0 0.725 0 0 0.73 0 0 0.735 0 0 0.74 0 0 0.745 0 0 0.75 0 0 0.755 0 0 0.76 0 0 0.765 0 0 0.77 0 0 0.775 0 0 0.78 0 0 0.785 0 0 0.79 0 0 0.795 0 0 0.8 0 0 0.805 0 0 0.81 0 0 0.815 0 0 0.82 0 0 0.825 0 0 0.83 0 0 0.835 0 0 0.84 0 0 0.845 0 0 0.85 0 0 0.855 0 0 0.86 0 0 0.865 0 0 0.87 0 0 0.875 0 0 0.88 0 0 0.885 0 0 0.89 0 0 0.895 0 0 0.9 0 0 0.905 0 0 0.91 0 0 0.915 0 0 0.92 0 0 0.925 0 0 0.93 0 0 0.935 0 0 0.94 0 0 0.945 0 0 0.95 0 0 0.955 0 0 0.96 0 0 0.965 0 0 0.97 0 0 0.975 0 0 0.98 0 0 0.985 0 0 0.99 0 0 0.995 0 0 1 0 0 0 0.02 0 0.005 0.02 0 0.01 0.02 0 0.015 0.02 0 0.02 0.02 0 0.025 0.02 0 0.03 0.02 0 0.035 0.02 0 0.04 0.02 0 0.045 0.02 0 0.05 0.02 0 0.055 0.02 0 0.06 0.02 0 0.065 0.02 0 0.07 0.02 0 0.075 0.02 0 0.08 0.02 0 0.085 0.02 0 0.09 0.02 0 0.095 0.02 0 0.1 0.02 0 0.105 0.02 0 0.11 0.02 0 0.115 0.02 0 0.12 0.02 0 0.125 0.02 0 0.13 0.02 0 0.135 0.02 0 0.14 0.02 0 0.145 0.02 0 0.15 0.02 0 0.155 0.02 0 0.16 0.02 0 0.165 0.02 0 0.17 0.02 0 0.175 0.02 0 0.18 0.02 0 0.185 0.02 0 0.19 0.02 0 0.195 0.02 0 0.2 0.02 0 0.205 0.02 0 0.21 0.02 0 0.215 0.02 0 0.22 0.02 0 0.225 0.02 0 0.23 0.02 0 0.235 0.02 0 0.24 0.02 0 0.245 0.02 0 0.25 0.02 0 0.255 0.02 0 0.26 0.02 0 0.265 0.02 0 0.27 0.02 0 0.275 0.02 0 0.28 0.02 0 0.285 0.02 0 0.29 0.02 0 0.295 0.02 0 0.3 0.02 0 0.305 0.02 0 0.31 0.02 0 0.315 0.02 0 0.32 0.02 0 0.325 0.02 0 0.33 0.02 0 0.335 0.02 0 0.34 0.02 0 0.345 0.02 0 0.35 0.02 0 0.355 0.02 0 0.36 0.02 0 0.365 0.02 0 0.37 0.02 0 0.375 0.02 0 0.38 0.02 0 0.385 0.02 0 0.39 0.02 0 0.395 0.02 0 0.4 0.02 0 0.405 0.02 0 0.41 0.02 0 0.415 0.02 0 0.42 0.02 0 0.425 0.02 0 0.43 0.02 0 0.435 0.02 0 0.44 0.02 0 0.445 0.02 0 0.45 0.02 0 0.455 0.02 0 0.46 0.02 0 0.465 0.02 0 0.47 0.02 0 0.475 0.02 0 0.48 0.02 0 0.485 0.02 0 0.49 0.02 0 0.495 0.02 0 0.5 0.02 0 0.505 0.02 0 0.51 0.02 0 0.515 0.02 0 0.52 0.02 0 0.525 0.02 0 0.53 0.02 0 0.535 0.02 0 0.54 0.02 0 0.545 0.02 0 0.55 0.02 0 0.555 0.02 0 0.56 0.02 0 0.565 0.02 0 0.57 0.02 0 0.575 0.02 0 0.58 0.02 0 0.585 0.02 0 0.59 0.02 0 0.595 0.02 0 0.6 0.02 0 0.605 0.02 0 0.61 0.02 0 0.615 0.02 0 0.62 0.02 0 0.625 0.02 0 0.63 0.02 0 0.635 0.02 0 0.64 0.02 0 0.645 0.02 0 0.65 0.02 0 0.655 0.02 0 0.66 0.02 0 0.665 0.02 0 0.67 0.02 0 0.675 0.02 0 0.68 0.02 0 0.685 0.02 0 0.69 0.02 0 0.695 0.02 0 0.7 0.02 0 0.705 0.02 0 0.71 0.02 0 0.715 0.02 0 0.72 0.02 0 0.725 0.02 0 0.73 0.02 0 0.735 0.02 0 0.74 0.02 0 0.745 0.02 0 0.75 0.02 0 0.755 0.02 0 0.76 0.02 0 0.765 0.02 0 0.77 0.02 0 0.775 0.02 0 0.78 0.02 0 0.785 0.02 0 0.79 0.02 0 0.795 0.02 0 0.8 0.02 0 0.805 0.02 0 0.81 0.02 0 0.815 0.02 0 0.82 0.02 0 0.825 0.02 0 0.83 0.02 0 0.835 0.02 0 0.84 0.02 0 0.845 0.02 0 0.85 0.02 0 0.855 0.02 0 0.86 0.02 0 0.865 0.02 0 0.87 0.02 0 0.875 0.02 0 0.88 0.02 0 0.885 0.02 0 0.89 0.02 0 0.895 0.02 0 0.9 0.02 0 0.905 0.02 0 0.91 0.02 0 0.915 0.02 0 0.92 0.02 0 0.925 0.02 0 0.93 0.02 0 0.935 0.02 0 0.94 0.02 0 0.945 0.02 0 0.95 0.02 0 0.955 0.02 0 0.96 0.02 0 0.965 0.02 0 0.97 0.02 0 0.975 0.02 0 0.98 0.02 0 0.985 0.02 0 0.99 0.02 0 0.995 0.02 0 1 0.02 0 0 0.04 0 0.005 0.04 0 0.01 0.04 0 0.015 0.04 0 0.02 0.04 0 0.025 0.04 0 0.03 0.04 0 0.035 0.04 0 0.04 0.04 0 0.045 0.04 0 0.05 0.04 0 0.055 0.04 0 0.06 0.04 0 0.065 0.04 0 0.07 0.04 0 0.075 0.04 0 0.08 0.04 0 0.085 0.04 0 0.09 0.04 0 0.095 0.04 0 0.1 0.04 0 0.105 0.04 0 0.11 0.04 0 0.115 0.04 0 0.12 0.04 0 0.125 0.04 0 0.13 0.04 0 0.135 0.04 0 0.14 0.04 0 0.145 0.04 0 0.15 0.04 0 0.155 0.04 0 0.16 0.04 0 0.165 0.04 0 0.17 0.04 0 0.175 0.04 0 0.18 0.04 0 0.185 0.04 0 0.19 0.04 0 0.195 0.04 0 0.2 0.04 0 0.205 0.04 0 0.21 0.04 0 0.215 0.04 0 0.22 0.04 0 0.225 0.04 0 0.23 0.04 0 0.235 0.04 0 0.24 0.04 0 0.245 0.04 0 0.25 0.04 0 0.255 0.04 0 0.26 0.04 0 0.265 0.04 0 0.27 0.04 0 0.275 0.04 0 0.28 0.04 0 0.285 0.04 0 0.29 0.04 0 0.295 0.04 0 0.3 0.04 0 0.305 0.04 0 0.31 0.04 0 0.315 0.04 0 0.32 0.04 0 0.325 0.04 0 0.33 0.04 0 0.335 0.04 0 0.34 0.04 0 0.345 0.04 0 0.35 0.04 0 0.355 0.04 0 0.36 0.04 0 0.365 0.04 0 0.37 0.04 0 0.375 0.04 0 0.38 0.04 0 0.385 0.04 0 0.39 0.04 0 0.395 0.04 0 0.4 0.04 0 0.405 0.04 0 0.41 0.04 0 0.415 0.04 0 0.42 0.04 0 0.425 0.04 0 0.43 0.04 0 0.435 0.04 0 0.44 0.04 0 0.445 0.04 0 0.45 0.04 0 0.455 0.04 0 0.46 0.04 0 0.465 0.04 0 0.47 0.04 0 0.475 0.04 0 0.48 0.04 0 0.485 0.04 0 0.49 0.04 0 0.495 0.04 0 0.5 0.04 0 0.505 0.04 0 0.51 0.04 0 0.515 0.04 0 0.52 0.04 0 0.525 0.04 0 0.53 0.04 0 0.535 0.04 0 0.54 0.04 0 0.545 0.04 0 0.55 0.04 0 0.555 0.04 0 0.56 0.04 0 0.565 0.04 0 0.57 0.04 0 0.575 0.04 0 0.58 0.04 0 0.585 0.04 0 0.59 0.04 0 0.595 0.04 0 0.6 0.04 0 0.605 0.04 0 0.61 0.04 0 0.615 0.04 0 0.62 0.04 0 0.625 0.04 0 0.63 0.04 0 0.635 0.04 0 0.64 0.04 0 0.645 0.04 0 0.65 0.04 0 0.655 0.04 0 0.66 0.04 0 0.665 0.04 0 0.67 0.04 0 0.675 0.04 0 0.68 0.04 0 0.685 0.04 0 0.69 0.04 0 0.695 0.04 0 0.7 0.04 0 0.705 0.04 0 0.71 0.04 0 0.715 0.04 0 0.72 0.04 0 0.725 0.04 0 0.73 0.04 0 0.735 0.04 0 0.74 0.04 0 0.745 0.04 0 0.75 0.04 0 0.755 0.04 0 0.76 0.04 0 0.765 0.04 0 0.77 0.04 0 0.775 0.04 0 0.78 0.04 0 0.785 0.04 0 0.79 0.04 0 0.795 0.04 0 0.8 0.04 0 0.805 0.04 0 0.81 0.04 0 0.815 0.04 0 0.82 0.04 0 0.825 0.04 0 0.83 0.04 0 0.835 0.04 0 0.84 0.04 0 0.845 0.04 0 0.85 0.04 0 0.855 0.04 0 0.86 0.04 0 0.865 0.04 0 0.87 0.04 0 0.875 0.04 0 0.88 0.04 0 0.885 0.04 0 0.89 0.04 0 0.895 0.04 0 0.9 0.04 0 0.905 0.04 0 0.91 0.04 0 0.915 0.04 0 0.92 0.04 0 0.925 0.04 0 0.93 0.04 0 0.935 0.04 0 0.94 0.04 0 0.945 0.04 0 0.95 0.04 0 0.955 0.04 0 0.96 0.04 0 0.965 0.04 0 0.97 0.04 0 0.975 0.04 0 0.98 0.04 0 0.985 0.04 0 0.99 0.04 0 0.995 0.04 0 1 0.04 0 0 0.06 0 0.005 0.06 0 0.01 0.06 0 0.015 0.06 0 0.02 0.06 0 0.025 0.06 0 0.03 0.06 0 0.035 0.06 0 0.04 0.06 0 0.045 0.06 0 0.05 0.06 0 0.055 0.06 0 0.06 0.06 0 0.065 0.06 0 0.07 0.06 0 0.075 0.06 0 0.08 0.06 0 0.085 0.06 0 0.09 0.06 0 0.095 0.06 0 0.1 0.06 0 0.105 0.06 0 0.11 0.06 0 0.115 0.06 0 0.12 0.06 0 0.125 0.06 0 0.13 0.06 0 0.135 0.06 0 0.14 0.06 0 0.145 0.06 0 0.15 0.06 0 0.155 0.06 0 0.16 0.06 0 0.165 0.06 0 0.17 0.06 0 0.175 0.06 0 0.18 0.06 0 0.185 0.06 0 0.19 0.06 0 0.195 0.06 0 0.2 0.06 0 0.205 0.06 0 0.21 0.06 0 0.215 0.06 0 0.22 0.06 0 0.225 0.06 0 0.23 0.06 0 0.235 0.06 0 0.24 0.06 0 0.245 0.06 0 0.25 0.06 0 0.255 0.06 0 0.26 0.06 0 0.265 0.06 0 0.27 0.06 0 0.275 0.06 0 0.28 0.06 0 0.285 0.06 0 0.29 0.06 0 0.295 0.06 0 0.3 0.06 0 0.305 0.06 0 0.31 0.06 0 0.315 0.06 0 0.32 0.06 0 0.325 0.06 0 0.33 0.06 0 0.335 0.06 0 0.34 0.06 0 0.345 0.06 0 0.35 0.06 0 0.355 0.06 0 0.36 0.06 0 0.365 0.06 0 0.37 0.06 0 0.375 0.06 0 0.38 0.06 0 0.385 0.06 0 0.39 0.06 0 0.395 0.06 0 0.4 0.06 0 0.405 0.06 0 0.41 0.06 0 0.415 0.06 0 0.42 0.06 0 0.425 0.06 0 0.43 0.06 0 0.435 0.06 0 0.44 0.06 0 0.445 0.06 0 0.45 0.06 0 0.455 0.06 0 0.46 0.06 0 0.465 0.06 0 0.47 0.06 0 0.475 0.06 0 0.48 0.06 0 0.485 0.06 0 0.49 0.06 0 0.495 0.06 0 0.5 0.06 0 0.505 0.06 0 0.51 0.06 0 0.515 0.06 0 0.52 0.06 0 0.525 0.06 0 0.53 0.06 0 0.535 0.06 0 0.54 0.06 0 0.545 0.06 0 0.55 0.06 0 0.555 0.06 0 0.56 0.06 0 0.565 0.06 0 0.57 0.06 0 0.575 0.06 0 0.58 0.06 0 0.585 0.06 0 0.59 0.06 0 0.595 0.06 0 0.6 0.06 0 0.605 0.06 0 0.61 0.06 0 0.615 0.06 0 0.62 0.06 0 0.625 0.06 0 0.63 0.06 0 0.635 0.06 0 0.64 0.06 0 0.645 0.06 0 0.65 0.06 0 0.655 0.06 0 0.66 0.06 0 0.665 0.06 0 0.67 0.06 0 0.675 0.06 0 0.68 0.06 0 0.685 0.06 0 0.69 0.06 0 0.695 0.06 0 0.7 0.06 0 0.705 0.06 0 0.71 0.06 0 0.715 0.06 0 0.72 0.06 0 0.725 0.06 0 0.73 0.06 0 0.735 0.06 0 0.74 0.06 0 0.745 0.06 0 0.75 0.06 0 0.755 0.06 0 0.76 0.06 0 0.765 0.06 0 0.77 0.06 0 0.775 0.06 0 0.78 0.06 0 0.785 0.06 0 0.79 0.06 0 0.795 0.06 0 0.8 0.06 0 0.805 0.06 0 0.81 0.06 0 0.815 0.06 0 0.82 0.06 0 0.825 0.06 0 0.83 0.06 0 0.835 0.06 0 0.84 0.06 0 0.845 0.06 0 0.85 0.06 0 0.855 0.06 0 0.86 0.06 0 0.865 0.06 0 0.87 0.06 0 0.875 0.06 0 0.88 0.06 0 0.885 0.06 0 0.89 0.06 0 0.895 0.06 0 0.9 0.06 0 0.905 0.06 0 0.91 0.06 0 0.915 0.06 0 0.92 0.06 0 0.925 0.06 0 0.93 0.06 0 0.935 0.06 0 0.94 0.06 0 0.945 0.06 0 0.95 0.06 0 0.955 0.06 0 0.96 0.06 0 0.965 0.06 0 0.97 0.06 0 0.975 0.06 0 0.98 0.06 0 0.985 0.06 0 0.99 0.06 0 0.995 0.06 0 1 0.06 0 0 0.08 0 0.005 0.08 0 0.01 0.08 0 0.015 0.08 0 0.02 0.08 0 0.025 0.08 0 0.03 0.08 0 0.035 0.08 0 0.04 0.08 0 0.045 0.08 0 0.05 0.08 0 0.055 0.08 0 0.06 0.08 0 0.065 0.08 0 0.07 0.08 0 0.075 0.08 0 0.08 0.08 0 0.085 0.08 0 0.09 0.08 0 0.095 0.08 0 0.1 0.08 0 0.105 0.08 0 0.11 0.08 0 0.115 0.08 0 0.12 0.08 0 0.125 0.08 0 0.13 0.08 0 0.135 0.08 0 0.14 0.08 0 0.145 0.08 0 0.15 0.08 0 0.155 0.08 0 0.16 0.08 0 0.165 0.08 0
[...]
			<PointData Scalars="VitesseX">
				<DataArray Name="VitesseX" type="Float32" format="ascii">
 0 -2.19892e-15 1.62967e-14 1.28077e-14 -2.30649e-14 3.56543e-14 2.97496e-14 -3.16207e-14 -1.19546e-15 -6.32257e-14 -1.47116e-14 -4.15204e-14 9.22532e-14 -1.01107e-13 3.32649e-14 -2.47894e-14 -1.02724e-13 -3.43851e-14 -3.24865e-14 -9.1185e-14 -9.75644e-14 -5.61123e-14 -2.4412e-13 -5.88944e-14 1.05616e-13 -4.82691e-14 -3.65066e-13 -4.80553e-14 8.21274e-14 -1.08398e-13 -7.97553e-14 5.16903e-14 -1.9646e-13 -8.19412e-14 1.12122e-14 -1.858e-13 -9.24979e-14 -1.85747e-13 -6.61063e-14 -2.7361e-13 -1.26733e-13 -4.72184e-14 1.10371e-13 1.66964e-13 4.83556e-14 -1.72241e-13 8.67007e-14 -5.98038e-14 7.2696e-14 -3.19528e-15 -2.67092e-13 -3.38137e-13 -3.37523e-13 3.12735e-13 -8.5101e-14 -9.41251e-14 -7.20024e-14 -2.62202e-13 5.84844e-14 -5.836e-14 -1.14118e-13 -1.93873e-13 -6.04343e-14 -4.3578e-13 -1.23581e-13 2.28313e-13 8.50303e-13 7.4837e-12 7.33627e-11 6.62041e-10 5.54971e-09 4.26708e-08 2.99528e-07 1.90792e-06 1.09501e-05 5.61416e-05 0.000254451 0.00100633 0.00341939 0.00981887 0.023532 0.0470742 0.0801354 0.120166 0.16458 0.211742 0.260694 0.310769 0.361733 0.413569 0.465867 0.515249 0.56478 0.611814 0.659258 0.704274 0.747699 0.790559 0.826317 0.861833 0.888518 0.905734 0.92124 0.927952 0.929378 0.931419 0.932681 0.93261 0.932104 0.931488 0.931056 0.930761 0.930461 0.930106 0.929736 0.929451 0.929242 0.929052 0.92882 0.92849 0.927939 0.926873 0.924658 0.919987 0.910324 0.891226 0.855917 0.796077 0.704989 0.582629 0.441071 0.300178 0.180371 0.0939501 0.0424774 0.0171791 0.00648549 0.00235798 0.000838433 0.000293273 0.000101087 3.43391e-05 1.14918e-05 3.78676e-06 1.22803e-06 3.91757e-07 1.22893e-07 3.78981e-08 1.14853e-08 3.42015e-09 1.00088e-09 2.86975e-10 8.11893e-11 2.13379e-11 6.27317e-12 1.2605e-12 4.87869e-13 4.91617e-14 -2.27788e-14 -1.05804e-13 -2.88555e-13 1.76979e-13 -4.43756e-13 -2.64175e-13 4.4757e-13 2.72103e-14 -3.50878e-13 -4.10501e-13 -6.09068e-13 1.07983e-12 -2.39378e-13 -5.02332e-13 -1.86618e-13 -1.25242e-12 9.1319e-13 -7.19902e-13 -3.27902e-13 8.07472e-13 -9.53086e-13 7.68067e-13 -4.54859e-13 2.1326e-13 3.95987e-13 -6.69072e-13 5.44199e-13 -5.37893e-13 -4.6571e-13 3.27047e-13 -8.26605e-13 -2.46896e-13 7.01305e-15 -9.4073e-13 7.93148e-13 -2.04689e-13 -7.46829e-13 -2.2572e-13 2.36299e-13 7.60064e-13 -3.24094e-13 3.05565e-13 0 0 1.54164e-14 1.49743e-14 1.73946e-14 2.44677e-14 3.47722e-15 -2.02254e-14 -1.12129e-14 -2.09886e-14 -7.21548e-15 -4.4973e-14 -1.71771e-14 -8.71766e-14 1.03052e-13 -8.8497e-14 -1.94275e-14 2.58377e-14 -7.7295e-14 -7.39697e-14 -4.0245e-14 -1.23315e-13 -4.67105e-14 3.05984e-14 -1.29433e-13 -2.36347e-13 -8.73304e-14 1.36204e-13 -1.4319e-13 -2.1884e-13 -1.52718e-14 3.3833e-14 -1.57037e-13 4.92914e-14 -1.07716e-13 -2.64606e-13 -1.07762e-13 -1.11114e-13 -1.96633e-14 -1.76853e-13 -5.49571e-14 -3.37774e-14 -4.06499e-14 5.1722e-14 -1.1614e-13 -4.73099e-14 1.62972e-13 -9.0585e-14 5.75185e-15 -1.51639e-13 -2.44814e-13 -2.35345e-13 -4.5881e-14 1.26799e-13 -3.61146e-13 -1.98225e-13 -1.89828e-14 -7.34385e-14 5.09194e-14 -1.10938e-13 -6.51315e-14 5.66353e-15 6.30893e-16 -2.90443e-13 -4.37e-16 -1.20615e-13 -4.52429e-15 7.28744e-13 7.66729e-12 7.30322e-11 6.62627e-10 5.54941e-09 4.26707e-08 2.99527e-07 1.90792e-06 1.09501e-05 5.61416e-05 0.000254451 0.00100633 0.00341939 0.00981887 0.023532 0.0470742 0.0801354 0.120166 0.16458 0.211742 0.260694 0.310769 0.361733 0.413569 0.465867 0.515249 0.56478 0.611814 0.659258 0.704274 0.747699 0.790559 0.826317 0.861833 0.888518 0.905734 0.92124 0.927952 0.929378 0.931419 0.932681 0.93261 0.932104 0.931488 0.931056 0.930761 0.930461 0.930106 0.929736 0.929451 0.929242 0.929052 0.92882 0.92849 0.927939 0.926873 0.924658 0.919987 0.910324 0.891226 0.855917 0.796077 0.704989 0.582629 0.441071 0.300178 0.180371 0.0939501 0.0424774 0.0171791 0.00648549 0.00235798 0.000838433 0.000293273 0.000101087 3.43391e-05 1.14918e-05 3.78676e-06 1.22803e-06 3.91757e-07 1.22894e-07 3.78971e-08 1.14857e-08 3.42035e-09 1.00014e-09 2.87585e-10 8.05173e-11 2.27039e-11 5.51909e-12 1.49051e-12 -7.80162e-14 -1.55668e-13 1.99841e-13 -2.31252e-13 2.07837e-13 -4.91234e-13 -1.02896e-13 2.94537e-13 -6.10662e-13 -1.41924e-13 -7.4051e-14 2.63284e-13 3.38453e-13 -6.92711e-13 -2.76872e-13 -3.83432e-13 -3.1484e-13 2.45889e-13 -8.32929e-13 2.00768e-13 -1.69078e-13 -5.30382e-13 6.87146e-13 -3.51577e-13 4.24892e-13 -2.02802e-13 1.73982e-13 5.83922e-13 -6.25969e-13 -2.36914e-13 2.13894e-14 -5.34452e-13 2.22475e-13 -2.72339e-13 -6.93697e-13 6.25792e-13 -9.23287e-13 -1.35751e-14 1.05705e-14 -2.48608e-13 3.32795e-13 -5.62348e-13 1.10776e-12 3.87646e-13 0 0 -1.00575e-14 2.75762e-15 2.5351e-14 7.15061e-15 1.63684e-14 -7.36974e-15 -1.63766e-14 -2.4025e-14 4.92896e-15 -1.48841e-14 -3.62185e-14 -1.88861e-14 -6.72501e-14 -8.77761e-15 -1.13372e-14 -8.81362e-15 -2.43897e-14 5.94078e-15 -8.7784e-14 -6.81544e-14 3.3167e-14 -7.21478e-14 -8.74665e-14 -8.51124e-14 -7.79838e-14 -7.20466e-14 -8.99791e-14 -1.33044e-13 -5.9425e-14 -6.53771e-14 -4.61386e-14 -1.83643e-13 -7.0236e-14 -5.01181e-14 -2.05599e-13 -1.21928e-13 -4.31595e-14 -3.47607e-14 1.53953e-14 -4.47709e-14 -5.61879e-14 -9.60137e-14 4.77781e-14 -1.44539e-13 -5.90098e-14 -7.39297e-14 3.29949e-14 -1.88783e-13 -1.62785e-13 -1.55856e-13 -7.92536e-14 -1.42184e-13 -7.77772e-14 -1.82979e-13 -5.09902e-14 -1.40282e-13 8.95198e-14 -5.92362e-15 1.01724e-13 -9.25671e-14 -7.43521e-14 4.67167e-14 -1.21995e-13 -4.44062e-14 -6.56962e-14 6.67967e-13 7.76291e-12 7.30011e-11 6.62492e-10 5.54942e-09 4.2671e-08 2.99527e-07 1.90792e-06 1.09501e-05 5.61416e-05 0.000254451 0.00100633 0.00341939 0.00981887 0.023532 0.0470742 0.0801354 0.120166 0.16458 0.211742 0.260694 0.310769 0.361733 0.413569 0.465867 0.515249 0.56478 0.611814 0.659258 0.704274 0.747699 0.790559 0.826317 0.861833 0.888518 0.905734 0.92124 0.927952 0.929378 0.931419 0.932681 0.93261 0.932104 0.931488 0.931056 0.930761 0.930461 0.930106 0.929736 0.929451 0.929242 0.929052 0.92882 0.92849 0.927939 0.926873 0.924658 0.919987 0.910324 0.891226 0.855917 0.796077 0.704989 0.582629 0.441071 0.300178 0.180371 0.0939501 0.0424774 0.0171791 0.00648549 0.00235798 0.000838433 0.000293273 0.000101087 3.43391e-05 1.14918e-05 3.78676e-06 1.22803e-06 3.91757e-07 1.22893e-07 3.78977e-08 1.14852e-08 3.42026e-09 1.0006e-09 2.87002e-10 8.10478e-11 2.23267e-11 6.06294e-12 8.89729e-13 1.87082e-13 -2.0663e-13 2.34903e-13 2.01142e-13 -4.18338e-13 -4.87258e-14 -2.16739e-13 -4.3262e-13 8.20613e-14 -4.20662e-13 -1.25344e-13 2.17205e-13 -2.71832e-13 -1.54868e-13 -2.96608e-13 -1.13714e-13 -2.14243e-13 -3.29953e-13 -1.81179e-13 -7.16453e-13 -1.80431e-13 -2.51411e-13 1.84399e-13 5.57954e-13 2.13944e-13 -1.0913e-13 -1.08095e-13 -8.95812e-14 1.29808e-13 5.02046e-14 2.45561e-13 -2.25662e-13 -1.98377e-13 -2.68272e-13 1.81748e-13 -8.72661e-13 1.55155e-13 -5.64713e-13 8.66683e-13 8.42471e-14 1.09029e-13 2.7987e-13 -7.57489e-13 4.98458e-13 0 0 -9.63722e-15 -1.50236e-14 -1.62775e-14 -3.74906e-14 2.57476e-14 -6.78658e-15 -2.24404e-14 -4.53765e-15 3.16913e-14 -7.16908e-15 1.14004e-14 3.8196e-14 -6.0538e-14 -2.15469e-14 -6.6345e-14 -4.53239e-14 -3.07668e-14 -2.57269e-14 2.94216e-14 -1.03455e-14 1.35197e-14 -2.95261e-14 -9.5644e-14 2.24182e-14 -5.07598e-14 -1.7145e-13 -1.12195e-13 3.94233e-14 -1.66852e-13 -1.45844e-13 -8.24673e-14 -1.97488e-13 9.55947e-15 -6.44544e-14 -1.19551e-13 -1.36328e-13 -4.09936e-14 3.19566e-14 -1.8266e-13 -1.76816e-13 -9.51695e-15 1.22696e-13 6.51048e-14 -8.37591e-14 -9.65349e-14 -1.11564e-13 -1.01556e-13 4.40213e-14 -1.4269e-13 -1.0876e-13 -2.9693e-13 -1.6233e-13 -1.49873e-14 -2.21097e-13 6.25265e-14 4.89278e-14 -5.95886e-14 -1.39101e-14 -8.78991e-15 5.96851e-14 -1.19865e-13 -1.98327e-13 -2.18454e-13 -2.43655e-14 1.5735e-13 9.52471e-13 7.41538e-12 7.31368e-11 6.62484e-10 5.54987e-09 4.26707e-08 2.99528e-07 1.90792e-06 1.09501e-05 5.61416e-05 0.000254451 0.00100633 0.00341939 0.00981887 0.023532 0.0470742 0.0801354 0.120166 0.16458 0.211742 0.260694 0.310769 0.361733 0.413569 0.465867 0.515249 0.56478 0.611814 0.659258 0.704274 0.747699 0.790559 0.826317 0.861833 0.888518 0.905734 0.92124 0.927952 0.929378 0.931419 0.932681 0.93261 0.932104 0.931488 0.931056 0.930761 0.930461 0.930106 0.929736 0.929451 0.929242 0.929052 0.92882 0.92849 0.927939 0.926873 0.924658 0.919987 0.910324 0.891226 0.855917 0.796077 0.704989 0.582629 0.441071 0.300178 0.180371 0.0939501 0.0424774 0.0171791 0.00648549 0.00235798 0.000838433 0.000293273 0.000101087 3.43391e-05 1.14918e-05 3.78676e-06 1.22803e-06 3.91757e-07 1.22893e-07 3.78976e-08 1.14854e-08 3.42006e-09 1.00049e-09 2.87372e-10 8.10551e-11 2.19085e-11 5.95664e-12 1.84141e-12 4.52346e-13 1.89828e-13 -1.73233e-13 -4.89649e-14 -1.68499e-13 1.05251e-13 -2.60223e-13 -1.25789e-13 -3.86208e-13 1.86102e-13 2.22666e-13 -1.04819e-12 3.19721e-14 3.01514e-13 -2.60254e-13 -4.85597e-13 -2.36232e-13 -8.42613e-13 3.70067e-13 -9.02218e-13 -3.97074e-13 6.97005e-13 -4.67387e-13 3.22074e-13 -3.35687e-13 5.26815e-14 1.99063e-13 -5.2965e-13 2.54609e-13 2.42486e-13 4.11902e-13 -1.45037e-15 -2.28836e-13 -7.54113e-13 -4.60847e-13 -5.00636e-13 -6.20027e-14 2.17168e-13 2.99319e-13 -2.23655e-13 -2.78312e-13 5.65678e-13 -7.06982e-13 -5.27646e-13 0 0 3.36692e-16 -2.71394e-14 -4.79853e-14 -1.24075e-14 -3.62819e-14 -3.33592e-14 1.23499e-14 6.8844e-15 4.01305e-14 -3.67621e-14 4.49592e-14 -2.54318e-14 8.43519e-14 -9.27403e-14 -1.84414e-14 2.53821e-14 -4.92199e-14 1.83512e-14 4.08707e-14 -6.41475e-14 -1.70433e-14 1.23471e-13 -9.49156e-14 -1.84664e-13 -8.32829e-14 -1.2491e-15 -1.8233e-13 -1.86819e-13 -1.04297e-13 2.19761e-14 -1.8308e-13 7.60307e-14 -5.25915e-14 -2.5009e-13 -4.34675e-14 -2.84953e-14 -3.18124e-14 -1.96177e-13 -1.88554e-13 -1.37676e-13 9.97259e-14 1.39371e-13 -1.41453e-13 1.36239e-13 1.77017e-13 -1.27502e-13 -1.16211e-13 -5.64627e-14 -1.82553e-13 -6.95985e-14 -1.56766e-13 -9.80669e-15 -3.73666e-13 -1.14395e-13 5.93818e-14 1.2253e-13 2.2469e-14 -7.37164e-14 -3.30405e-14 -1.0374e-13 -1.36386e-13 -5.10358e-13 7.19763e-14 -7.96137e-14 1.21031e-13 1.02831e-12 7.54049e-12 7.32439e-11 6.62842e-10 5.54972e-09 4.26704e-08 2.99527e-07 1.90792e-06 1.09501e-05 5.61416e-05 0.000254451 0.00100633 0.00341939 0.00981887 0.023532 0.0470742 0.0801354 0.120166 0.16458 0.211742 0.260694 0.310769 0.361733 0.413569 0.465867 0.515249 0.56478 0.611814 0.659258 0.704274 0.747699 0.790559 0.826317 0.861833 0.888518 0.905734 0.92124 0.927952 0.929378 0.931419 0.932681 0.93261 0.932104 0.931488 0.931056 0.930761 0.930461 0.930106 0.929736 0.929451 0.929242 0.929052 0.92882 0.92849 0.927939 0.926873 0.924658 0.919987 0.910324 0.891226 0.855917 0.796077 0.704989 0.582629 0.441071 0.300178 0.180371 0.0939501 0.0424774 0.0171791 0.00648549 0.00235798 0.000838433 0.000293273 0.000101087 3.43391e-05 1.14918e-05 3.78676e-06 1.22803e-06 3.91757e-07 1.22894e-07 3.7897e-08 1.14861e-08 3.4202e-09 1.00012e-09 2.87451e-10 8.06903e-11 2.25116e-11 5.34236e-12 2.29723e-12 1.64571e-13 6.58591e-13 -8.69407e-14 1.84519e-13 2.62437e-13 -4.14517e-13 -8.41126e-14 3.64778e-13 -3.87285e-13 -3.75072e-13 1.03351e-14 -7.15407e-13 5.69223e-13 -1.81552e-13 -1.06368e-13 -4.14728e-13 -5.71518e-13 -4.96841e-14 -9.20114e-13 2.38919e-13 2.36504e-13 -7.23916e-14 1.80221e-13 -7.46582e-13 1.73722e-13 -2.21625e-13 1.6129e-13 2.81578e-13 -3.85393e-13 1.10164e-13 1.84101e-13 -7.38888e-13 2.49845e-13 -6.10461e-13 -9.5377e-13 6.17916e-13 -1.14776e-12 5.53663e-13 1.78047e-13 -1.4716e-13 2.15965e-13 -3.28271e-13 7.33794e-13 -7.17964e-13 0 0 -3.31989e-14 -3.23682e-14 -3.46952e-14 -7.53268e-15 -6.26222e-14 2.31576e-15 2.76324e-14 1.55758e-14 -2.20584e-14 -1.37197e-14 -1.24856e-14 1.01579e-13 -1.51931e-13 5.03168e-14 8.71983e-14 -3.06146e-14 3.45192e-14 2.15491e-13 -1.63365e-13 -9.48476e-14 4.25166e-14 -1.43618e-13 2.64959e-14 -6.07833e-15 -9.46221e-14 -4.41165e-13 -8.19045e-14 -1.98767e-13 -7.1594e-14 5.74641e-14 7.22615e-14 -1.15293e-13 -1.31282e-13 6.89179e-14 -2.29307e-13 1.0154e-13 -2.14378e-13 -2.38189e-13 -1.44695e-13 -7.0441e-14 1.40191e-13 -1.51751e-13 8.16861e-14 2.93892e-13 -6.90995e-14 8.81356e-14 -3.46285e-14 -2.0256e-13 8.11378e-14 -2.97914e-14 -1.24556e-13 -5.70443e-13 1.62117e-13 1.58794e-13 -1.64429e-13 -5.84859e-14 -2.08856e-14 1.489e-13 2.26849e-13 -6.3743e-13 -3.76881e-13 -1.01753e-14 -9.80374e-14 -8.16601e-14 3.33317e-14 8.80436e-13 7.92516e-12 7.35146e-11 6.62488e-10 5.54944e-09 4.26707e-08 2.99528e-07 1.90792e-06 1.09501e-05 5.61416e-05 0.000254451 0.00100633 0.00341939 0.00981887 0.023532 0.0470742 0.0801354 0.120166 0.16458 0.211742 0.260694 0.310769 0.361733 0.413569 0.465867 0.515249 0.56478 0.611814 0.659258 0.704274 0.747699 0.790559 0.826317 0.861833 0.888518 0.905734 0.92124 0.927952 0.929378 0.931419 0.932681 0.93261 0.932104 0.931488 0.931056 0.930761 0.930461 0.930106 0.929736 0.929451 0.929242 0.929052 0.92882 0.92849 0.927939 0.926873 0.924658 0.919987 0.910324 0.891226 0.855917 0.796077 0.704989 0.582629 0.441071 0.300178 0.180371 0.0939501 0.0424774 0.0171791 0.00648549 0.00235798 0.000838433 0.000293273 0.000101087 3.43391e-05 1.14918e-05 3.78676e-06 1.22803e-06 3.91757e-07 1.22893e-07 3.78979e-08 1.14855e-08 3.42025e-09 1.00105e-09 2.85966e-10 8.15206e-11 2.17899e-11 6.13231e-12 9.70569e-13 4.42517e-13 8.84761e-13 2.19929e-13 1.22595e-12 -6.79034e-13 2.24592e-14 -3.19221e-13 -7.37357e-13 1.83086e-12 -1.65261e-12 -8.78127e-13 1.62904e-13 -7.55136e-13 1.18938e-12 2.89212e-14 1.7884e-13 -6.55997e-13 -8.18245e-13 -3.63672e-13 -2.72072e-13 9.16547e-13 -1.73378e-13 -6.63365e-13 4.49817e-13 1.42062e-13 -1.48008e-13 -2.43714e-13 -3.93623e-13 7.75748e-13 -2.28298e-13 -4.7297e-13 -5.30248e-13 -7.10949e-13 4.854e-14 7.72056e-13 -1.70053e-12 7.78522e-13 -6.33973e-13 7.22852e-13 5.92978e-13 7.77322e-13 6.56603e-13 -1.17305e-12 1.46553e-13 0
				</DataArray>
				<DataArray Name="VitesseY" type="Float32" format="ascii">