<?xml version="1.0"?>
<VTKFile type="PolyData">
	<PolyData>
		<Piece NumberOfPoints="1206" NumberOfPolys="1000">
			<Points>
				<DataArray type="Float32" NumberOfComponents="3" format="ascii">
 0 0 0 0.005 0 0 0.01 0 0 0.015 0 0 0.02 0 0 0.025 0 0 0.03 0 0 0.035 0 0 0.04 0 0 0.045 0 0 0.05 0 0 0.055 0 0 0.06 0 0 0.065 0 0 0.07 0 0 0.075 0 0 0.08 0 0 0.085 0 0 0.09 0 0 0.095 0 0 0.1 0 0 0.105 0 0 0.11 0 0 0.115 0 0 0.12 0 0 0.125 0 0 0.13 0 0 0.135 0 0 0.14 0 0 0.145 0 0 0.15 0 0 0.155 0 0 0.16 0 0 0.165 0 0 0.17 0 0 0.175 0 0 0.18 0 0 0.185 0 0 0.19 0 0 0.195 0 0 0.2 0 0 0.205 0 0 0.21 0 0 0.215 0 0 0.22 0 0 0.225 0 0 0.23 0 0 0.235 0 0 0.24 0 0 0.245 0 0 0.25 0 0 0.255 0 0 0.26 0 0 0.265 0 0 0.27 0 0 0.275 0 0 0.28 0 0 0.285 0 0 0.29 0 0 0.295 0 0 0.3 0 0 0.305 0 0 0.31 0 0 0.315 0 0 0.32 0 0 0.325 0 0 0.33 0 0 0.335 0 0 0.34 0 0 0.345 0 0 0.35 0 0 0.355 0 0 0.36 0 0 0.365 0 0 0.37 0 0 0.375 0 0 0.38 0 0 0.385 0 0 0.39 0 0 0.395 0 0 0.4 0 0 0.405 0 0 0.41 0 0 0.415 0 0 0.42 0 0 0.425 0 0 0.43 0 0 0.435 0 0 0.44 0 0 0.445 0 0 0.45 0 0 0.455 0 0 0.46 0 0 0.465 0 0 0.47 0 0 0.475 0 0 0.48 0 0 0.485 0 0 0.49 0 0 0.495 0 0 0.5 0 0 0.505 0 0 0.51 0 0 0.515 0 0 0.52 0 0 0.525 0 0 0.53 0 0 0.535 0 0 0.54 0 0 0.545 0 0 0.55 0 0 0.555 0 0 0.56 0 0 0.565 0 0 0.57 0 0 0.575 0 0 0.58 0 0 0.585 0 0 0.59 0 0 0.595 0 0 0.6 0 0 0.605 0 0 0.61 0 0 0.615 0 0 0.62 0 0 0.625 0 0 0.63 0 0 0.635 0 0 0.64 0 0 0.645 0 0 0.65 0 0 0.655 0 0 0.66 0 0 0.665 0 0 0.67 0 0 0.675 0 0 0.68 0 0 0.685 0 0 0.69 0 0 0.695 0 0 0.7 0 0 0.705 0 0 0.71 0 0 0.715 0 0 0.72 0 0 0.725 0 0 0.73 0 0 0.735 0 0 0.74 0 0 0.745 0 0 0.75 0 0 0.755 0 0 0.76 0 0 0.765 0 0 0.77 0 0 0.775 0 0 0.78 0 0 0.785 0 0 0.79 0 0 0.795 0 0 0.8 0 0 0.805 0 0 0.81 0 0 0.815 0 0 0.82 0 0 0.825 0 0 0.83 0 0 0.835 0 0 0.84 0 0 0.845 0 0 0.85 0 0 0.855 0 0 0.86 0 0 0.865 0 0 0.87 0 0 0.875 0 0 0.88 0 0 0.885 0 0 0.89 0 0 0.895 0 0 0.9 0 0 0.905 0 0 0.91 0 0 0.915 0 0 0.92 0 0 0.925 0 0 0.93 0 0 0.935 0 0 0.94 0 0 0.945 0 0 0.95 0 0 0.955 0 0 0.96 0 0 0.965 0 0 0.97 0 0 0.975 0 0 0.98 0 0 0.985 0 0 0.99 0 0 0.995 0 0 1 0 0 0 0.02 0 0.005 0.02 0 0.01 0.02 0 0.015 0.02 0 0.02 0.02 0 0.025 0.02 0 0.03 0.02 0 0.035 0.02 0 0.04 0.02 0 0.045 0.02 0 0.05 0.02 0 0.055 0.02 0 0.06 0.02 0 0.065 0.02 0 0.07 0.02 0 0.075 0.02 0 0.08 0.02 0 0.085 0.02 0 0.09 0.02 0 0.095 0.02 0 0.1 0.02 0 0.105 0.02 0 0.11 0.02 0 0.115 0.02 0 0.12 0.02 0 0.125 0.02 0 0.13 0.02 0 0.135 0.02 0 0.14 0.02 0 0.145 0.02 0 0.15 0.02 0 0.155 0.02 0 0.16 0.02 0 0.165 0.02 0 0.17 0.02 0 0.175 0.02 0 0.18 0.02 0 0.185 0.02 0 0.19 0.02 0 0.195 0.02 0 0.2 0.02 0 0.205 0.02 0 0.21 0.02 0 0.215 0.02 0 0.22 0.02 0 0.225 0.02 0 0.23 0.02 0 0.235 0.02 0 0.24 0.02 0 0.245 0.02 0 0.25 0.02 0 0.255 0.02 0 0.26 0.02 0 0.265 0.02 0 0.27 0.02 0 0.275 0.02 0 0.28 0.02 0 0.285 0.02 0 0.29 0.02 0 0.295 0.02 0 0.3 0.02 0 0.305 0.02 0 0.31 0.02 0 0.315 0.02 0 0.32 0.02 0 0.325 0.02 0 0.33 0.02 0 0.335 0.02 0 0.34 0.02 0 0.345 0.02 0 0.35 0.02 0 0.355 0.02 0 0.36 0.02 0 0.365 0.02 0 0.37 0.02 0 0.375 0.02 0 0.38 0.02 0 0.385 0.02 0 0.39 0.02 0 0.395 0.02 0 0.4 0.02 0 0.405 0.02 0 0.41 0.02 0 0.415 0.02 0 0.42 0.02 0 0.425 0.02 0 0.43 0.02 0 0.435 0.02 0 0.44 0.02 0 0.445 0.02 0 0.45 0.02 0 0.455 0.02 0 0.46 0.02 0 0.465 0.02 0 0.47 0.02 0 0.475 0.02 0 0.48 0.02 0 0.485 0.02 0 0.49 0.02 0 0.495 0.02 0 0.5 0.02 0 0.505 0.02 0 0.51 0.02 0 0.515 0.02 0 0.52 0.02 0 0.525 0.02 0 0.53 0.02 0 0.535 0.02 0 0.54 0.02 0 0.545 0.02 0 0.55 0.02 0 0.555 0.02 0 0.56 0.02 0 0.565 0.02 0 0.57 0.02 0 0.575 0.02 0 0.58 0.02 0 0.585 0.02 0 0.59 0.02 0 0.595 0.02 0 0.6 0.02 0 0.605 0.02 0 0.61 0.02 0 0.615 0.02 0 0.62 0.02 0 0.625 0.02 0 0.63 0.02 0 0.635 0.02 0 0.64 0.02 0 0.645 0.02 0 0.65 0.02 0 0.655 0.02 0 0.66 0.02 0 0.665 0.02 0 0.67 0.02 0 0.675 0.02 0 0.68 0.02 0 0.685 0.02 0 0.69 0.02 0 0.695 0.02 0 0.7 0.02 0 0.705 0.02 0 0.71 0.02 0 0.715 0.02 0 0.72 0.02 0 0.725 0.02 0 0.73 0.02 0 0.735 0.02 0 0.74 0.02 0 0.745 0.02 0 0.75 0.02 0 0.755 0.02 0 0.76 0.02 0 0.765 0.02 0 0.77 0.02 0 0.775 0.02 0 0.78 0.02 0 0.785 0.02 0 0.79 0.02 0 0.795 0.02 0 0.8 0.02 0 0.805 0.02 0 0.81 0.02 0 0.815 0.02 0 0.82 0.02 0 0.825 0.02 0 0.83 0.02 0 0.835 0.02 0 0.84 0.02 0 0.845 0.02 0 0.85 0.02 0 0.855 0.02 0 0.86 0.02 0 0.865 0.02 0 0.87 0.02 0 0.875 0.02 0 0.88 0.02 0 0.885 0.02 0 0.89 0.02 0 0.895 0.02 0 0.9 0.02 0 0.905 0.02 0 0.91 0.02 0 0.915 0.02 0 0.92 0.02 0 0.925 0.02 0 0.93 0.02 0 0.935 0.02 0 0.94 0.02 0 0.945 0.02 0 0.95 0.02 0 0.955 0.02 0 0.96 0.02 0 0.965 0.02 0 0.97 0.02 0 0.975 0.02 0 0.98 0.02 0 0.985 0.02 0 0.99 0.02 0 0.995 0.02 0 1 0.02 0 0 0.04 0 0.005 0.04 0 0.01 0.04 0 0.015 0.04 0 0.02 0.04 0 0.025 0.04 0 0.03 0.04 0 0.035 0.04 0 0.04 0.04 0 0.045 0.04 0 0.05 0.04 0 0.055 0.04 0 0.06 0.04 0 0.065 0.04 0 0.07 0.04 0 0.075 0.04 0 0.08 0.04 0 0.085 0.04 0 0.09 0.04 0 0.095 0.04 0 0.1 0.04 0 0.105 0.04 0 0.11 0.04 0 0.115 0.04 0 0.12 0.04 0 0.125 0.04 0 0.13 0.04 0 0.135 0.04 0 0.14 0.04 0 0.145 0.04 0 0.15 0.04 0 0.155 0.04 0 0.16 0.04 0 0.165 0.04 0 0.17 0.04 0 0.175 0.04 0 0.18 0.04 0 0.185 0.04 0 0.19 0.04 0 0.195 0.04 0 0.2 0.04 0 0.205 0.04 0 0.21 0.04 0 0.215 0.04 0 0.22 0.04 0 0.225 0.04 0 0.23 0.04 0 0.235 0.04 0 0.24 0.04 0 0.245 0.04 0 0.25 0.04 0 0.255 0.04 0 0.26 0.04 0 0.265 0.04 0 0.27 0.04 0 0.275 0.04 0 0.28 0.04 0 0.285 0.04 0 0.29 0.04 0 0.295 0.04 0 0.3 0.04 0 0.305 0.04 0 0.31 0.04 0 0.315 0.04 0 0.32 0.04 0 0.325 0.04 0 0.33 0.04 0 0.335 0.04 0 0.34 0.04 0 0.345 0.04 0 0.35 0.04 0 0.355 0.04 0 0.36 0.04 0 0.365 0.04 0 0.37 0.04 0 0.375 0.04 0 0.38 0.04 0 0.385 0.04 0 0.39 0.04 0 0.395 0.04 0 0.4 0.04 0 0.405 0.04 0 0.41 0.04 0 0.415 0.04 0 0.42 0.04 0 0.425 0.04 0 0.43 0.04 0 0.435 0.04 0 0.44 0.04 0 0.445 0.04 0 0.45 0.04 0 0.455 0.04 0 0.46 0.04 0 0.465 0.04 0 0.47 0.04 0 0.475 0.04 0 0.48 0.04 0 0.485 0.04 0 0.49 0.04 0 0.495 0.04 0 0.5 0.04 0 0.505 0.04 0 0.51 0.04 0 0.515 0.04 0 0.52 0.04 0 0.525 0.04 0 0.53 0.04 0 0.535 0.04 0 0.54 0.04 0 0.545 0.04 0 0.55 0.04 0 0.555 0.04 0 0.56 0.04 0 0.565 0.04 0 0.57 0.04 0 0.575 0.04 0 0.58 0.04 0 0.585 0.04 0 0.59 0.04 0 0.595 0.04 0 0.6 0.04 0 0.605 0.04 0 0.61 0.04 0 0.615 0.04 0 0.62 0.04 0 0.625 0.04 0 0.63 0.04 0 0.635 0.04 0 0.64 0.04 0 0.645 0.04 0 0.65 0.04 0 0.655 0.04 0 0.66 0.04 0 0.665 0.04 0 0.67 0.04 0 0.675 0.04 0 0.68 0.04 0 0.685 0.04 0 0.69 0.04 0 0.695 0.04 0 0.7 0.04 0 0.705 0.04 0 0.71 0.04 0 0.715 0.04 0 0.72 0.04 0 0.725 0.04 0 0.73 0.04 0 0.735 0.04 0 0.74 0.04 0 0.745 0.04 0 0.75 0.04 0 0.755 0.04 0 0.76 0.04 0 0.765 0.04 0 0.77 0.04 0 0.775 0.04 0 0.78 0.04 0 0.785 0.04 0 0.79 0.04 0 0.795 0.04 0 0.8 0.04 0 0.805 0.04 0 0.81 0.04 0 0.815 0.04 0 0.82 0.04 0 0.825 0.04 0 0.83 0.04 0 0.835 0.04 0 0.84 0.04 0 0.845 0.04 0 0.85 0.04 0 0.855 0.04 0 0.86 0.04 0 0.865 0.04 0 0.87 0.04 0 0.875 0.04 0 0.88 0.04 0 0.885 0.04 0 0.89 0.04 0 0.895 0.04 0 0.9 0.04 0 0.905 0.04 0 0.91 0.04 0 0.915 0.04 0 0.92 0.04 0 0.925 0.04 0 0.93 0.04 0 0.935 0.04 0 0.94 0.04 0 0.945 0.04 0 0.95 0.04 0 0.955 0.04 0 0.96 0.04 0 0.965 0.04 0 0.97 0.04 0 0.975 0.04 0 0.98 0.04 0 0.985 0.04 0 0.99 0.04 0 0.995 0.04 0 1 0.04 0 0 0.06 0 0.005 0.06 0 0.01 0.06 0 0.015 0.06 0 0.02 0.06 0 0.025 0.06 0 0.03 0.06 0 0.035 0.06 0 0.04 0.06 0 0.045 0.06 0 0.05 0.06 0 0.055 0.06 0 0.06 0.06 0 0.065 0.06 0 0.07 0.06 0 0.075 0.06 0 0.08 0.06 0 0.085 0.06 0 0.09 0.06 0 0.095 0.06 0 0.1 0.06 0 0.105 0.06 0 0.11 0.06 0 0.115 0.06 0 0.12 0.06 0 0.125 0.06 0 0.13 0.06 0 0.135 0.06 0 0.14 0.06 0 0.145 0.06 0 0.15 0.06 0 0.155 0.06 0 0.16 0.06 0 0.165 0.06 0 0.17 0.06 0 0.175 0.06 0 0.18 0.06 0 0.185 0.06 0 0.19 0.06 0 0.195 0.06 0 0.2 0.06 0 0.205 0.06 0 0.21 0.06 0 0.215 0.06 0 0.22 0.06 0 0.225 0.06 0 0.23 0.06 0 0.235 0.06 0 0.24 0.06 0 0.245 0.06 0 0.25 0.06 0 0.255 0.06 0 0.26 0.06 0 0.265 0.06 0 0.27 0.06 0 0.275 0.06 0 0.28 0.06 0 0.285 0.06 0 0.29 0.06 0 0.295 0.06 0 0.3 0.06 0 0.305 0.06 0 0.31 0.06 0 0.315 0.06 0 0.32 0.06 0 0.325 0.06 0 0.33 0.06 0 0.335 0.06 0 0.34 0.06 0 0.345 0.06 0 0.35 0.06 0 0.355 0.06 0 0.36 0.06 0 0.365 0.06 0 0.37 0.06 0 0.375 0.06 0 0.38 0.06 0 0.385 0.06 0 0.39 0.06 0 0.395 0.06 0 0.4 0.06 0 0.405 0.06 0 0.41 0.06 0 0.415 0.06 0 0.42 0.06 0 0.425 0.06 0 0.43 0.06 0 0.435 0.06 0 0.44 0.06 0 0.445 0.06 0 0.45 0.06 0 0.455 0.06 0 0.46 0.06 0 0.465 0.06 0 0.47 0.06 0 0.475 0.06 0 0.48 0.06 0 0.485 0.06 0 0.49 0.06 0 0.495 0.06 0 0.5 0.06 0 0.505 0.06 0 0.51 0.06 0 0.515 0.06 0 0.52 0.06 0 0.525 0.06 0 0.53 0.06 0 0.535 0.06 0 0.54 0.06 0 0.545 0.06 0 0.55 0.06 0 0.555 0.06 0 0.56 0.06 0 0.565 0.06 0 0.57 0.06 0 0.575 0.06 0 0.58 0.06 0 0.585 0.06 0 0.59 0.06 0 0.595 0.06 0 0.6 0.06 0 0.605 0.06 0 0.61 0.06 0 0.615 0.06 0 0.62 0.06 0 0.625 0.06 0 0.63 0.06 0 0.635 0.06 0 0.64 0.06 0 0.645 0.06 0 0.65 0.06 0 0.655 0.06 0 0.66 0.06 0 0.665 0.06 0 0.67 0.06 0 0.675 0.06 0 0.68 0.06 0 0.685 0.06 0 0.69 0.06 0 0.695 0.06 0 0.7 0.06 0 0.705 0.06 0 0.71 0.06 0 0.715 0.06 0 0.72 0.06 0 0.725 0.06 0 0.73 0.06 0 0.735 0.06 0 0.74 0.06 0 0.745 0.06 0 0.75 0.06 0 0.755 0.06 0 0.76 0.06 0 0.765 0.06 0 0.77 0.06 0 0.775 0.06 0 0.78 0.06 0 0.785 0.06 0 0.79 0.06 0 0.795 0.06 0 0.8 0.06 0 0.805 0.06 0 0.81 0.06 0 0.815 0.06 0 0.82 0.06 0 0.825 0.06 0 0.83 0.06 0 0.835 0.06 0 0.84 0.06 0 0.845 0.06 0 0.85 0.06 0 0.855 0.06 0 0.86 0.06 0 0.865 0.06 0 0.87 0.06 0 0.875 0.06 0 0.88 0.06 0 0.885 0.06 0 0.89 0.06 0 0.895 0.06 0 0.9 0.06 0 0.905 0.06 0 0.91 0.06 0 0.915 0.06 0 0.92 0.06 0 0.925 0.06 0 0.93 0.06 0 0.935 0.06 0 0.94 0.06 0 0.945 0.06 0 0.95 0.06 0 0.955 0.06 0 0.96 0.06 0 0.965 0.06 0 0.97 0.06 0 0.975 0.06 0 0.98 0.06 0 0.985 0.06 0 0.99 0.06 0 0.995 0.06 0 1 0.06 0 0 0.08 0 0.005 0.08 0 0.01 0.08 0 0.015 0.08 0 0.02 0.08 0 0.025 0.08 0 0.03 0.08 0 0.035 0.08 0 0.04 0.08 0 0.045 0.08 0 0.05 0.08 0 0.055 0.08 0 0.06 0.08 0 0.065 0.08 0 0.07 0.08 0 0.075 0.08 0 0.08 0.08 0 0.085 0.08 0 0.09 0.08 0 0.095 0.08 0 0.1 0.08 0 0.105 0.08 0 0.11 0.08 0 0.115 0.08 0 0.12 0.08 0 0.125 0.08 0 0.13 0.08 0 0.135 0.08 0 0.14 0.08 0 0.145 0.08 0 0.15 0.08 0 0.155 0.08 0 0.16 0.08 0 0.165 0.08 0
[...]
			<PointData Scalars="VitesseX">
				<DataArray Name="VitesseX" type="Float32" format="ascii">
 0 1.02765e-14 -3.84741e-15 1.27896e-14 -2.03408e-14 -1.50669e-14 -1.54812e-14 -1.65712e-15 -3.74691e-14 -1.68641e-14 -1.40138e-14 -6.21302e-14 -5.30847e-14 -8.31506e-14 -4.53477e-14 -9.81257e-14 -7.1327e-14 -1.06148e-13 -5.50003e-15 -2.5794e-15 -4.03445e-14 5.11124e-14 6.25711e-14 -3.71232e-14 4.17818e-14 -6.73522e-14 1.58648e-13 -2.50285e-13 5.77178e-14 -1.66502e-13 6.66263e-14 -5.5492e-14 -1.16005e-13 -3.40599e-14 3.05997e-14 -1.10099e-13 6.38473e-14 -6.37498e-14 -3.92597e-14 1.46322e-13 2.46069e-13 1.58111e-12 9.25315e-12 5.6331e-11 3.20842e-10 1.73906e-09 8.93383e-09 4.33836e-08 1.98662e-07 8.55356e-07 3.45142e-06 1.30022e-05 4.55287e-05 0.000147414 0.000438647 0.00119111 0.00292915 0.00647734 0.0128212 0.0227278 0.0363506 0.0531828 0.0723959 0.0932126 0.115068 0.137607 0.160618 0.183942 0.207485 0.231193 0.255032 0.27898 0.303025 0.327159 0.351379 0.375689 0.400093 0.424596 0.449059 0.473145 0.497253 0.521029 0.54483 0.568391 0.591919 0.615294 0.638516 0.6617 0.684552 0.707412 0.729893 0.752168 0.774331 0.795791 0.817134 0.83742 0.856512 0.87454 0.889885 0.902961 0.913674 0.920724 0.925763 0.929065 0.930182 0.930855 0.931107 0.931071 0.930958 0.930792 0.930596 0.930377 0.930133 0.92987 0.929604 0.929365 0.929157 0.928975 0.928815 0.928677 0.928558 0.928457 0.928371 0.928296 0.928231 0.928175 0.928125 0.928081 0.928042 0.928008 0.927977 0.92795 0.927925 0.927903 0.927882 0.927862 0.927844 0.927827 0.927811 0.927795 0.92778 0.927765 0.927751 0.927737 0.927721 0.927703 0.92768 0.927646 0.927587 0.927476 0.927258 0.92682 0.925943 0.924188 0.920713 0.913932 0.901008 0.877275 0.836057 0.769787 0.67336 0.548961 0.409922 0.275669 0.16417 0.0854477 0.0391679 0.01634 0.00645911 0.00248878 0.000948197 0.000359354 0.00013578 5.11864e-05 1.92539e-05 7.22544e-06 2.70447e-06 1.00934e-06 3.7548e-07 1.39181e-07 5.13878e-08 1.88916e-08 6.91288e-09 2.51659e-09 9.11324e-10 3.27698e-10 1.17311e-10 4.15862e-11 1.41983e-11 4.99707e-12 1.67028e-12 -2.75162e-13 7.71577e-13 1.32095e-13 -1.70855e-13 1.44439e-13 -7.99784e-13 9.33644e-14 7.5795e-13 2.50773e-13 0 0 -5.41646e-15 4.03794e-16 -2.37819e-14 4.12817e-15 -1.94841e-14 -1.82363e-14 -4.51877e-14 -2.49788e-15 -3.36114e-14 -5.38063e-14 -4.173e-14 -3.4419e-14 -6.96851e-14 -8.95927e-14 -1.51476e-14 -1.18599e-13 1.20353e-14 -8.19554e-14 -4.44802e-14 7.0446e-14 -1.62946e-14 -3.1152e-14 4.05674e-14 1.30546e-14 4.93013e-14 -1.83008e-13 8.41768e-14 -1.93854e-13 5.59697e-14 -9.6216e-14 1.32653e-14 -3.44397e-14 6.88663e-15 -6.75627e-14 -2.55203e-14 -6.91259e-14 3.51242e-14 -4.56135e-14 -2.49434e-14 3.50211e-13 1.38916e-12 9.58532e-12 5.61686e-11 3.20802e-10 1.7392e-09 8.93371e-09 4.33837e-08 1.98661e-07 8.55357e-07 3.45142e-06 1.30022e-05 4.55287e-05 0.000147414 0.000438647 0.00119111 0.00292915 0.00647734 0.0128212 0.0227278 0.0363506 0.0531828 0.0723959 0.0932126 0.115068 0.137607 0.160618 0.183942 0.207485 0.231193 0.255032 0.27898 0.303025 0.327159 0.351379 0.375689 0.400093 0.424596 0.449059 0.473145 0.497253 0.521029 0.54483 0.568391 0.591919 0.615294 0.638516 0.6617 0.684552 0.707412 0.729893 0.752168 0.774331 0.795791 0.817134 0.83742 0.856512 0.87454 0.889885 0.902961 0.913674 0.920724 0.925763 0.929065 0.930182 0.930855 0.931107 0.931071 0.930958 0.930792 0.930596 0.930377 0.930133 0.92987 0.929604 0.929365 0.929157 0.928975 0.928815 0.928677 0.928558 0.928457 0.928371 0.928296 0.928231 0.928175 0.928125 0.928081 0.928042 0.928008 0.927977 0.92795 0.927925 0.927903 0.927882 0.927862 0.927844 0.927827 0.927811 0.927795 0.92778 0.927765 0.927751 0.927737 0.927721 0.927703 0.92768 0.927646 0.927587 0.927476 0.927258 0.92682 0.925943 0.924188 0.920713 0.913932 0.901008 0.877275 0.836057 0.769787 0.67336 0.548961 0.409922 0.275669 0.16417 0.0854477 0.0391679 0.01634 0.00645911 0.00248878 0.000948197 0.000359354 0.00013578 5.11864e-05 1.92539e-05 7.22544e-06 2.70447e-06 1.00934e-06 3.7548e-07 1.39181e-07 5.13879e-08 1.88918e-08 6.91273e-09 2.51677e-09 9.11e-10 3.28083e-10 1.1698e-10 4.1338e-11 1.438e-11 4.78514e-12 1.40585e-12 8.56867e-13 -2.02366e-13 1.50811e-13 1.47911e-13 -2.51558e-13 2.80179e-13 2.42206e-13 -3.70343e-13 -7.11072e-14 0 0 -9.68825e-15 -1.97366e-14 -1.09976e-14 -3.72131e-14 -3.05677e-14 -3.61055e-14 -4.41428e-14 -5.50902e-14 -4.22697e-14 -4.33429e-14 -6.09468e-14 -5.03681e-14 -3.1977e-14 -7.55419e-14 -3.67985e-14 4.52201e-14 -1.03765e-13 -2.98644e-14 3.64021e-14 2.16509e-14 6.09582e-15 2.75506e-14 -3.94954e-14 -7.24959e-14 -3.04255e-14 4.16645e-14 -1.4122e-13 -5.55932e-14 -2.49723e-14 9.7186e-15 -1.71053e-14 -3.13919e-14 2.12193e-14 -4.96082e-14 -8.70296e-14 -5.72618e-14 -4.34595e-14 -4.44995e-14 1.02146e-13 2.57097e-13 1.59519e-12 9.34797e-12 5.61538e-11 3.2096e-10 1.73926e-09 8.93372e-09 4.33835e-08 1.98661e-07 8.55357e-07 3.45142e-06 1.30022e-05 4.55287e-05 0.000147414 0.000438647 0.00119111 0.00292915 0.00647734 0.0128212 0.0227278 0.0363506 0.0531828 0.0723959 0.0932126 0.115068 0.137607 0.160618 0.183942 0.207485 0.231193 0.255032 0.27898 0.303025 0.327159 0.351379 0.375689 0.400093 0.424596 0.449059 0.473145 0.497253 0.521029 0.54483 0.568391 0.591919 0.615294 0.638516 0.6617 0.684552 0.707412 0.729893 0.752168 0.774331 0.795791 0.817134 0.83742 0.856512 0.87454 0.889885 0.902961 0.913674 0.920724 0.925763 0.929065 0.930182 0.930855 0.931107 0.931071 0.930958 0.930792 0.930596 0.930377 0.930133 0.92987 0.929604 0.929365 0.929157 0.928975 0.928815 0.928677 0.928558 0.928457 0.928371 0.928296 0.928231 0.928175 0.928125 0.928081 0.928042 0.928008 0.927977 0.92795 0.927925 0.927903 0.927882 0.927862 0.927844 0.927827 0.927811 0.927795 0.92778 0.927765 0.927751 0.927737 0.927721 0.927703 0.92768 0.927646 0.927587 0.927476 0.927258 0.92682 0.925943 0.924188 0.920713 0.913932 0.901008 0.877275 0.836057 0.769787 0.67336 0.548961 0.409922 0.275669 0.16417 0.0854477 0.0391679 0.01634 0.00645911 0.00248878 0.000948197 0.000359354 0.00013578 5.11864e-05 1.92539e-05 7.22544e-06 2.70447e-06 1.00934e-06 3.7548e-07 1.39181e-07 5.13876e-08 1.88917e-08 6.91264e-09 2.5166e-09 9.11521e-10 3.27696e-10 1.17264e-10 4.15468e-11 1.43742e-11 5.09944e-12 1.33135e-12 2.63824e-13 -1.08533e-14 -2.69474e-13 1.86241e-13 2.35849e-13 3.11391e-14 -7.5514e-14 1.60051e-13 7.24428e-14 0 0 -1.98145e-15 -1.21953e-14 -1.77824e-14 -3.31247e-14 -6.12936e-14 -4.59941e-14 -4.76086e-14 -6.96905e-14 -7.80541e-14 -3.74549e-14 -4.50102e-14 -6.03467e-14 -3.74024e-14 5.0714e-15 -3.21599e-14 -3.47107e-14 2.41466e-14 -2.82899e-14 -4.04106e-14 -3.886e-14 2.47907e-14 -1.05439e-14 -4.39751e-14 -2.53597e-14 -9.08493e-14 4.64893e-14 -9.4685e-14 8.94139e-14 -7.30449e-14 -1.61039e-14 -5.60928e-14 -8.91849e-14 -2.42141e-14 -1.70008e-14 -9.41432e-14 -1.56375e-14 -8.36405e-14 1.18672e-13 -2.0844e-14 3.21901e-13 1.55663e-12 9.27796e-12 5.62445e-11 3.20923e-10 1.73928e-09 8.93381e-09 4.33834e-08 1.98661e-07 8.55357e-07 3.45142e-06 1.30022e-05 4.55287e-05 0.000147414 0.000438647 0.00119111 0.00292915 0.00647734 0.0128212 0.0227278 0.0363506 0.0531828 0.0723959 0.0932126 0.115068 0.137607 0.160618 0.183942 0.207485 0.231193 0.255032 0.27898 0.303025 0.327159 0.351379 0.375689 0.400093 0.424596 0.449059 0.473145 0.497253 0.521029 0.54483 0.568391 0.591919 0.615294 0.638516 0.6617 0.684552 0.707412 0.729893 0.752168 0.774331 0.795791 0.817134 0.83742 0.856512 0.87454 0.889885 0.902961 0.913674 0.920724 0.925763 0.929065 0.930182 0.930855 0.931107 0.931071 0.930958 0.930792 0.930596 0.930377 0.930133 0.92987 0.929604 0.929365 0.929157 0.928975 0.928815 0.928677 0.928558 0.928457 0.928371 0.928296 0.928231 0.928175 0.928125 0.928081 0.928042 0.928008 0.927977 0.92795 0.927925 0.927903 0.927882 0.927862 0.927844 0.927827 0.927811 0.927795 0.92778 0.927765 0.927751 0.927737 0.927721 0.927703 0.92768 0.927646 0.927587 0.927476 0.927258 0.92682 0.925943 0.924188 0.920713 0.913932 0.901008 0.877275 0.836057 0.769787 0.67336 0.548961 0.409922 0.275669 0.16417 0.0854477 0.0391679 0.01634 0.00645911 0.00248878 0.000948197 0.000359354 0.00013578 5.11864e-05 1.92539e-05 7.22544e-06 2.70447e-06 1.00934e-06 3.7548e-07 1.39181e-07 5.13878e-08 1.88915e-08 6.91278e-09 2.51684e-09 9.10976e-10 3.28361e-10 1.17416e-10 4.19675e-11 1.44169e-11 4.97025e-12 1.51685e-12 3.60804e-13 -6.43988e-14 -7.31363e-13 -1.87788e-13 -3.98831e-14 1.12558e-13 2.97223e-13 6.06412e-13 1.69375e-13 0 0 -4.62706e-15 3.81463e-15 -3.95265e-14 -8.37092e-15 -5.15779e-14 -5.41709e-14 -6.72558e-14 -4.6281e-14 -7.33911e-14 -4.89442e-14 -3.32313e-14 -2.20613e-14 -2.98378e-14 -4.12126e-15 -5.78727e-15 -1.16585e-13 8.55201e-14 -3.61066e-14 -1.22998e-13 -9.46491e-15 -1.19394e-14 -7.61621e-14 1.45362e-14 9.8935e-16 -6.30345e-15 -2.14946e-13 1.41092e-13 -1.11406e-13 8.42438e-15 -1.94605e-13 3.12195e-14 1.24425e-14 -4.79004e-14 -3.15325e-14 3.90594e-14 1.31201e-14 6.03752e-14 -3.13927e-15 -6.56674e-14 2.77258e-13 1.3662e-12 9.49174e-12 5.61811e-11 3.20932e-10 1.7394e-09 8.93378e-09 4.33836e-08 1.98661e-07 8.55357e-07 3.45142e-06 1.30022e-05 4.55287e-05 0.000147414 0.000438647 0.00119111 0.00292915 0.00647734 0.0128212 0.0227278 0.0363506 0.0531828 0.0723959 0.0932126 0.115068 0.137607 0.160618 0.183942 0.207485 0.231193 0.255032 0.27898 0.303025 0.327159 0.351379 0.375689 0.400093 0.424596 0.449059 0.473145 0.497253 0.521029 0.54483 0.568391 0.591919 0.615294 0.638516 0.6617 0.684552 0.707412 0.729893 0.752168 0.774331 0.795791 0.817134 0.83742 0.856512 0.87454 0.889885 0.902961 0.913674 0.920724 0.925763 0.929065 0.930182 0.930855 0.931107 0.931071 0.930958 0.930792 0.930596 0.930377 0.930133 0.92987 0.929604 0.929365 0.929157 0.928975 0.928815 0.928677 0.928558 0.928457 0.928371 0.928296 0.928231 0.928175 0.928125 0.928081 0.928042 0.928008 0.927977 0.92795 0.927925 0.927903 0.927882 0.927862 0.927844 0.927827 0.927811 0.927795 0.92778 0.927765 0.927751 0.927737 0.927721 0.927703 0.92768 0.927646 0.927587 0.927476 0.927258 0.92682 0.925943 0.924188 0.920713 0.913932 0.901008 0.877275 0.836057 0.769787 0.67336 0.548961 0.409922 0.275669 0.16417 0.0854477 0.0391679 0.01634 0.00645911 0.00248878 0.000948197 0.000359354 0.00013578 5.11864e-05 1.92539e-05 7.22544e-06 2.70447e-06 1.00934e-06 3.7548e-07 1.39181e-07 5.1388e-08 1.88917e-08 6.91277e-09 2.51705e-09 9.10752e-10 3.28944e-10 1.17409e-10 4.15764e-11 1.45437e-11 4.69956e-12 9.02322e-13 1.19971e-12 -5.41052e-13 -8.84289e-14 -2.42966e-13 -2.95019e-13 6.54001e-13 1.96164e-13 -2.78299e-13 -1.47793e-13 0 0 -3.55836e-15 -1.21083e-14 -5.12988e-15 -5.35157e-14 -1.78027e-14 -6.75731e-14 -3.88618e-14 -9.58348e-14 -2.48547e-14 -1.60655e-14 -7.7006e-14 -8.41203e-15 7.39483e-15 -3.56313e-14 -8.86822e-14 9.25617e-14 -2.15001e-13 8.30486e-14 -5.98994e-15 -7.91447e-14 2.24329e-14 4.87397e-14 -8.02263e-14 -7.6621e-14 -5.7714e-14 8.51222e-14 -2.29525e-13 -6.74015e-14 -1.65447e-13 -7.85061e-14 5.83912e-14 9.33454e-14 -5.2767e-14 3.74452e-14 3.3288e-14 1.45091e-13 6.71143e-14 -2.80655e-13 3.10855e-13 -2.94466e-14 1.61233e-12 9.206e-12 5.61747e-11 3.21176e-10 1.7394e-09 8.9338e-09 4.33835e-08 1.98661e-07 8.55356e-07 3.45142e-06 1.30022e-05 4.55287e-05 0.000147414 0.000438647 0.00119111 0.00292915 0.00647734 0.0128212 0.0227278 0.0363506 0.0531828 0.0723959 0.0932126 0.115068 0.137607 0.160618 0.183942 0.207485 0.231193 0.255032 0.27898 0.303025 0.327159 0.351379 0.375689 0.400093 0.424596 0.449059 0.473145 0.497253 0.521029 0.54483 0.568391 0.591919 0.615294 0.638516 0.6617 0.684552 0.707412 0.729893 0.752168 0.774331 0.795791 0.817134 0.83742 0.856512 0.87454 0.889885 0.902961 0.913674 0.920724 0.925763 0.929065 0.930182 0.930855 0.931107 0.931071 0.930958 0.930792 0.930596 0.930377 0.930133 0.92987 0.929604 0.929365 0.929157 0.928975 0.928815 0.928677 0.928558 0.928457 0.928371 0.928296 0.928231 0.928175 0.928125 0.928081 0.928042 0.928008 0.927977 0.92795 0.927925 0.927903 0.927882 0.927862 0.927844 0.927827 0.927811 0.927795 0.92778 0.927765 0.927751 0.927737 0.927721 0.927703 0.92768 0.927646 0.927587 0.927476 0.927258 0.92682 0.925943 0.924188 0.920713 0.913932 0.901008 0.877275 0.836057 0.769787 0.67336 0.548961 0.409922 0.275669 0.16417 0.0854477 0.0391679 0.01634 0.00645911 0.00248878 0.000948197 0.000359354 0.00013578 5.11864e-05 1.92539e-05 7.22544e-06 2.70447e-06 1.00934e-06 3.7548e-07 1.39181e-07 5.13877e-08 1.88919e-08 6.91268e-09 2.51667e-09 9.11916e-10 3.2809e-10 1.17866e-10 4.12214e-11 1.44404e-11 5.08428e-12 2.9222e-13 2.16572e-13 2.01297e-13 5.77393e-13 -2.0455e-13 6.08981e-13 -2.14975e-13 -7.44194e-13 4.93156e-14 -9.64639e-14 0
				</DataArray>
				<DataArray Name="VitesseY" type="Float32" format="ascii">