<?xml version="1.0"?>
<VTKFile type="PolyData">
	<PolyData>
		<Piece NumberOfPoints="1206" NumberOfPolys="1000">
			<Points>
				<DataArray type="Float32" NumberOfComponents="3" format="ascii">
 0 0 0 0.005 0 0 0.01 0 0 0.015 0 0 0.02 0 0 0.025 0 0 0.03 0 0 0.035 0 0 0.04 0 0 0.045 0 0 0.05 0 0 0.055 0 0 0.06 0 0 0.065 0 0 0.07 0 0 0.075 0 0 0.08 0 0 0.085 0 0 0.09 0 0 0.095 0 0 0.1 0 0 0.105 0 0 0.11 0 0 0.115 0 0 0.12 0 0 0.125 0 0 0.13 0 0 0.135 0 0 0.14 0 0 0.145 0 0 0.15 0 0 0.155 0 0 0.16 0 0 0.165 0 0 0.17 0 0 0.175 0 0 0.18 0 0 0.185 0 0 0.19 0 0 0.195 0 0 0.2 0 0 0.205 0 0 0.21 0 0 0.215 0 0 0.22 0 0 0.225 0 0 0.23 0 0 0.235 0 0 0.24 0 0 0.245 0 0 0.25 0 0 0.255 0 0 0.26 0 0 0.265 0 0 0.27 0 0 0.275 0 0 0.28 0 0 0.285 0 0 0.29 0 0 0.295 0 0 0.3 0 0 0.305 0 0 0.31 0 0 0.315 0 0 0.32 0 0 0.325 0 0 0.33 0 0 0.335 0 0 0.34 0 0 0.345 0 0 0.35 0 0 0.355 0 0 0.36 0 0 0.365 0 0 0.37 0 0 0.375 0 0 0.38 0 0 0.385 0 0 0.39 0 0 0.395 0 0 0.4 0 0 0.405 0 0 0.41 0 0 0.415 0 0 0.42 0 0 0.425 0 0 0.43 0 0 0.435 0 0 0.44 0 0 0.445 0 0 0.45 0 0 0.455 0 0 0.46 0 0 0.465 0 0 0.47 0 0 0.475 0 0 0.48 0 0 0.485 0 0 0.49 0 0 0.495 0 0 0.5 0 0 0.505 0 0 0.51 0 0 0.515 0 0 0.52 0 0 0.525 0 0 0.53 0 0 0.535 0 0 0.54 0 0 0.545 0 0 0.55 0 0 0.555 0 0 0.56 0 0 0.565 0 0 0.57 0 0 0.575 0 0 0.58 0 0 0.585 0 0 0.59 0 0 0.595 0 0 0.6 0 0 0.605 0 0 0.61 0 0 0.615 0 0 0.62 0 0 0.625 0 0 0.63 0 0 0.635 0 0 0.64 0 0 0.645 0 0 0.65 0 0 0.655 0 0 0.66 0 0 0.665 0 0 0.67 0 0 0.675 0 0 0.68 0 0 0.685 0 0 0.69 0 0 0.695 0 0 0.7 0 0 0.705 0 0 0.71 0 0 0.715 0 0 0.72 0 0 0.725 0 0 0.73 0 0 0.735 0 0 0.74 0 0 0.745 0 0 0.75 0 0 0.755 0 0 0.76 0 0 0.765 0 0 0.77 0 0 0.775 0 0 0.78 0 0 0.785 0 0 0.79 0 0 0.795 0 0 0.8 0 0 0.805 0 0 0.81 0 0 0.815 0 0 0.82 0 0 0.825 0 0 0.83 0 0 0.835 0 0 0.84 0 0 0.845 0 0 0.85 0 0 0.855 0 0 0.86 0 0 0.865 0 0 0.87 0 0 0.875 0 0 0.88 0 0 0.885 0 0 0.89 0 0 0.895 0 0 0.9 0 0 0.905 0 0 0.91 0 0 0.915 0 0 0.92 0 0 0.925 0 0 0.93 0 0 0.935 0 0 0.94 0 0 0.945 0 0 0.95 0 0 0.955 0 0 0.96 0 0 0.965 0 0 0.97 0 0 0.975 0 0 0.98 0 0 0.985 0 0 0.99 0 0 0.995 0 0 1 0 0 0 0.02 0 0.005 0.02 0 0.01 0.02 0 0.015 0.02 0 0.02 0.02 0 0.025 0.02 0 0.03 0.02 0 0.035 0.02 0 0.04 0.02 0 0.045 0.02 0 0.05 0.02 0 0.055 0.02 0 0.06 0.02 0 0.065 0.02 0 0.07 0.02 0 0.075 0.02 0 0.08 0.02 0 0.085 0.02 0 0.09 0.02 0 0.095 0.02 0 0.1 0.02 0 0.105 0.02 0 0.11 0.02 0 0.115 0.02 0 0.12 0.02 0 0.125 0.02 0 0.13 0.02 0 0.135 0.02 0 0.14 0.02 0 0.145 0.02 0 0.15 0.02 0 0.155 0.02 0 0.16 0.02 0 0.165 0.02 0 0.17 0.02 0 0.175 0.02 0 0.18 0.02 0 0.185 0.02 0 0.19 0.02 0 0.195 0.02 0 0.2 0.02 0 0.205 0.02 0 0.21 0.02 0 0.215 0.02 0 0.22 0.02 0 0.225 0.02 0 0.23 0.02 0 0.235 0.02 0 0.24 0.02 0 0.245 0.02 0 0.25 0.02 0 0.255 0.02 0 0.26 0.02 0 0.265 0.02 0 0.27 0.02 0 0.275 0.02 0 0.28 0.02 0 0.285 0.02 0 0.29 0.02 0 0.295 0.02 0 0.3 0.02 0 0.305 0.02 0 0.31 0.02 0 0.315 0.02 0 0.32 0.02 0 0.325 0.02 0 0.33 0.02 0 0.335 0.02 0 0.34 0.02 0 0.345 0.02 0 0.35 0.02 0 0.355 0.02 0 0.36 0.02 0 0.365 0.02 0 0.37 0.02 0 0.375 0.02 0 0.38 0.02 0 0.385 0.02 0 0.39 0.02 0 0.395 0.02 0 0.4 0.02 0 0.405 0.02 0 0.41 0.02 0 0.415 0.02 0 0.42 0.02 0 0.425 0.02 0 0.43 0.02 0 0.435 0.02 0 0.44 0.02 0 0.445 0.02 0 0.45 0.02 0 0.455 0.02 0 0.46 0.02 0 0.465 0.02 0 0.47 0.02 0 0.475 0.02 0 0.48 0.02 0 0.485 0.02 0 0.49 0.02 0 0.495 0.02 0 0.5 0.02 0 0.505 0.02 0 0.51 0.02 0 0.515 0.02 0 0.52 0.02 0 0.525 0.02 0 0.53 0.02 0 0.535 0.02 0 0.54 0.02 0 0.545 0.02 0 0.55 0.02 0 0.555 0.02 0 0.56 0.02 0 0.565 0.02 0 0.57 0.02 0 0.575 0.02 0 0.58 0.02 0 0.585 0.02 0 0.59 0.02 0 0.595 0.02 0 0.6 0.02 0 0.605 0.02 0 0.61 0.02 0 0.615 0.02 0 0.62 0.02 0 0.625 0.02 0 0.63 0.02 0 0.635 0.02 0 0.64 0.02 0 0.645 0.02 0 0.65 0.02 0 0.655 0.02 0 0.66 0.02 0 0.665 0.02 0 0.67 0.02 0 0.675 0.02 0 0.68 0.02 0 0.685 0.02 0 0.69 0.02 0 0.695 0.02 0 0.7 0.02 0 0.705 0.02 0 0.71 0.02 0 0.715 0.02 0 0.72 0.02 0 0.725 0.02 0 0.73 0.02 0 0.735 0.02 0 0.74 0.02 0 0.745 0.02 0 0.75 0.02 0 0.755 0.02 0 0.76 0.02 0 0.765 0.02 0 0.77 0.02 0 0.775 0.02 0 0.78 0.02 0 0.785 0.02 0 0.79 0.02 0 0.795 0.02 0 0.8 0.02 0 0.805 0.02 0 0.81 0.02 0 0.815 0.02 0 0.82 0.02 0 0.825 0.02 0 0.83 0.02 0 0.835 0.02 0 0.84 0.02 0 0.845 0.02 0 0.85 0.02 0 0.855 0.02 0 0.86 0.02 0 0.865 0.02 0 0.87 0.02 0 0.875 0.02 0 0.88 0.02 0 0.885 0.02 0 0.89 0.02 0 0.895 0.02 0 0.9 0.02 0 0.905 0.02 0 0.91 0.02 0 0.915 0.02 0 0.92 0.02 0 0.925 0.02 0 0.93 0.02 0 0.935 0.02 0 0.94 0.02 0 0.945 0.02 0 0.95 0.02 0 0.955 0.02 0 0.96 0.02 0 0.965 0.02 0 0.97 0.02 0 0.975 0.02 0 0.98 0.02 0 0.985 0.02 0 0.99 0.02 0 0.995 0.02 0 1 0.02 0 0 0.04 0 0.005 0.04 0 0.01 0.04 0 0.015 0.04 0 0.02 0.04 0 0.025 0.04 0 0.03 0.04 0 0.035 0.04 0 0.04 0.04 0 0.045 0.04 0 0.05 0.04 0 0.055 0.04 0 0.06 0.04 0 0.065 0.04 0 0.07 0.04 0 0.075 0.04 0 0.08 0.04 0 0.085 0.04 0 0.09 0.04 0 0.095 0.04 0 0.1 0.04 0 0.105 0.04 0 0.11 0.04 0 0.115 0.04 0 0.12 0.04 0 0.125 0.04 0 0.13 0.04 0 0.135 0.04 0 0.14 0.04 0 0.145 0.04 0 0.15 0.04 0 0.155 0.04 0 0.16 0.04 0 0.165 0.04 0 0.17 0.04 0 0.175 0.04 0 0.18 0.04 0 0.185 0.04 0 0.19 0.04 0 0.195 0.04 0 0.2 0.04 0 0.205 0.04 0 0.21 0.04 0 0.215 0.04 0 0.22 0.04 0 0.225 0.04 0 0.23 0.04 0 0.235 0.04 0 0.24 0.04 0 0.245 0.04 0 0.25 0.04 0 0.255 0.04 0 0.26 0.04 0 0.265 0.04 0 0.27 0.04 0 0.275 0.04 0 0.28 0.04 0 0.285 0.04 0 0.29 0.04 0 0.295 0.04 0 0.3 0.04 0 0.305 0.04 0 0.31 0.04 0 0.315 0.04 0 0.32 0.04 0 0.325 0.04 0 0.33 0.04 0 0.335 0.04 0 0.34 0.04 0 0.345 0.04 0 0.35 0.04 0 0.355 0.04 0 0.36 0.04 0 0.365 0.04 0 0.37 0.04 0 0.375 0.04 0 0.38 0.04 0 0.385 0.04 0 0.39 0.04 0 0.395 0.04 0 0.4 0.04 0 0.405 0.04 0 0.41 0.04 0 0.415 0.04 0 0.42 0.04 0 0.425 0.04 0 0.43 0.04 0 0.435 0.04 0 0.44 0.04 0 0.445 0.04 0 0.45 0.04 0 0.455 0.04 0 0.46 0.04 0 0.465 0.04 0 0.47 0.04 0 0.475 0.04 0 0.48 0.04 0 0.485 0.04 0 0.49 0.04 0 0.495 0.04 0 0.5 0.04 0 0.505 0.04 0 0.51 0.04 0 0.515 0.04 0 0.52 0.04 0 0.525 0.04 0 0.53 0.04 0 0.535 0.04 0 0.54 0.04 0 0.545 0.04 0 0.55 0.04 0 0.555 0.04 0 0.56 0.04 0 0.565 0.04 0 0.57 0.04 0 0.575 0.04 0 0.58 0.04 0 0.585 0.04 0 0.59 0.04 0 0.595 0.04 0 0.6 0.04 0 0.605 0.04 0 0.61 0.04 0 0.615 0.04 0 0.62 0.04 0 0.625 0.04 0 0.63 0.04 0 0.635 0.04 0 0.64 0.04 0 0.645 0.04 0 0.65 0.04 0 0.655 0.04 0 0.66 0.04 0 0.665 0.04 0 0.67 0.04 0 0.675 0.04 0 0.68 0.04 0 0.685 0.04 0 0.69 0.04 0 0.695 0.04 0 0.7 0.04 0 0.705 0.04 0 0.71 0.04 0 0.715 0.04 0 0.72 0.04 0 0.725 0.04 0 0.73 0.04 0 0.735 0.04 0 0.74 0.04 0 0.745 0.04 0 0.75 0.04 0 0.755 0.04 0 0.76 0.04 0 0.765 0.04 0 0.77 0.04 0 0.775 0.04 0 0.78 0.04 0 0.785 0.04 0 0.79 0.04 0 0.795 0.04 0 0.8 0.04 0 0.805 0.04 0 0.81 0.04 0 0.815 0.04 0 0.82 0.04 0 0.825 0.04 0 0.83 0.04 0 0.835 0.04 0 0.84 0.04 0 0.845 0.04 0 0.85 0.04 0 0.855 0.04 0 0.86 0.04 0 0.865 0.04 0 0.87 0.04 0 0.875 0.04 0 0.88 0.04 0 0.885 0.04 0 0.89 0.04 0 0.895 0.04 0 0.9 0.04 0 0.905 0.04 0 0.91 0.04 0 0.915 0.04 0 0.92 0.04 0 0.925 0.04 0 0.93 0.04 0 0.935 0.04 0 0.94 0.04 0 0.945 0.04 0 0.95 0.04 0 0.955 0.04 0 0.96 0.04 0 0.965 0.04 0 0.97 0.04 0 0.975 0.04 0 0.98 0.04 0 0.985 0.04 0 0.99 0.04 0 0.995 0.04 0 1 0.04 0 0 0.06 0 0.005 0.06 0 0.01 0.06 0 0.015 0.06 0 0.02 0.06 0 0.025 0.06 0 0.03 0.06 0 0.035 0.06 0 0.04 0.06 0 0.045 0.06 0 0.05 0.06 0 0.055 0.06 0 0.06 0.06 0 0.065 0.06 0 0.07 0.06 0 0.075 0.06 0 0.08 0.06 0 0.085 0.06 0 0.09 0.06 0 0.095 0.06 0 0.1 0.06 0 0.105 0.06 0 0.11 0.06 0 0.115 0.06 0 0.12 0.06 0 0.125 0.06 0 0.13 0.06 0 0.135 0.06 0 0.14 0.06 0 0.145 0.06 0 0.15 0.06 0 0.155 0.06 0 0.16 0.06 0 0.165 0.06 0 0.17 0.06 0 0.175 0.06 0 0.18 0.06 0 0.185 0.06 0 0.19 0.06 0 0.195 0.06 0 0.2 0.06 0 0.205 0.06 0 0.21 0.06 0 0.215 0.06 0 0.22 0.06 0 0.225 0.06 0 0.23 0.06 0 0.235 0.06 0 0.24 0.06 0 0.245 0.06 0 0.25 0.06 0 0.255 0.06 0 0.26 0.06 0 0.265 0.06 0 0.27 0.06 0 0.275 0.06 0 0.28 0.06 0 0.285 0.06 0 0.29 0.06 0 0.295 0.06 0 0.3 0.06 0 0.305 0.06 0 0.31 0.06 0 0.315 0.06 0 0.32 0.06 0 0.325 0.06 0 0.33 0.06 0 0.335 0.06 0 0.34 0.06 0 0.345 0.06 0 0.35 0.06 0 0.355 0.06 0 0.36 0.06 0 0.365 0.06 0 0.37 0.06 0 0.375 0.06 0 0.38 0.06 0 0.385 0.06 0 0.39 0.06 0 0.395 0.06 0 0.4 0.06 0 0.405 0.06 0 0.41 0.06 0 0.415 0.06 0 0.42 0.06 0 0.425 0.06 0 0.43 0.06 0 0.435 0.06 0 0.44 0.06 0 0.445 0.06 0 0.45 0.06 0 0.455 0.06 0 0.46 0.06 0 0.465 0.06 0 0.47 0.06 0 0.475 0.06 0 0.48 0.06 0 0.485 0.06 0 0.49 0.06 0 0.495 0.06 0 0.5 0.06 0 0.505 0.06 0 0.51 0.06 0 0.515 0.06 0 0.52 0.06 0 0.525 0.06 0 0.53 0.06 0 0.535 0.06 0 0.54 0.06 0 0.545 0.06 0 0.55 0.06 0 0.555 0.06 0 0.56 0.06 0 0.565 0.06 0 0.57 0.06 0 0.575 0.06 0 0.58 0.06 0 0.585 0.06 0 0.59 0.06 0 0.595 0.06 0 0.6 0.06 0 0.605 0.06 0 0.61 0.06 0 0.615 0.06 0 0.62 0.06 0 0.625 0.06 0 0.63 0.06 0 0.635 0.06 0 0.64 0.06 0 0.645 0.06 0 0.65 0.06 0 0.655 0.06 0 0.66 0.06 0 0.665 0.06 0 0.67 0.06 0 0.675 0.06 0 0.68 0.06 0 0.685 0.06 0 0.69 0.06 0 0.695 0.06 0 0.7 0.06 0 0.705 0.06 0 0.71 0.06 0 0.715 0.06 0 0.72 0.06 0 0.725 0.06 0 0.73 0.06 0 0.735 0.06 0 0.74 0.06 0 0.745 0.06 0 0.75 0.06 0 0.755 0.06 0 0.76 0.06 0 0.765 0.06 0 0.77 0.06 0 0.775 0.06 0 0.78 0.06 0 0.785 0.06 0 0.79 0.06 0 0.795 0.06 0 0.8 0.06 0 0.805 0.06 0 0.81 0.06 0 0.815 0.06 0 0.82 0.06 0 0.825 0.06 0 0.83 0.06 0 0.835 0.06 0 0.84 0.06 0 0.845 0.06 0 0.85 0.06 0 0.855 0.06 0 0.86 0.06 0 0.865 0.06 0 0.87 0.06 0 0.875 0.06 0 0.88 0.06 0 0.885 0.06 0 0.89 0.06 0 0.895 0.06 0 0.9 0.06 0 0.905 0.06 0 0.91 0.06 0 0.915 0.06 0 0.92 0.06 0 0.925 0.06 0 0.93 0.06 0 0.935 0.06 0 0.94 0.06 0 0.945 0.06 0 0.95 0.06 0 0.955 0.06 0 0.96 0.06 0 0.965 0.06 0 0.97 0.06 0 0.975 0.06 0 0.98 0.06 0 0.985 0.06 0 0.99 0.06 0 0.995 0.06 0 1 0.06 0 0 0.08 0 0.005 0.08 0 0.01 0.08 0 0.015 0.08 0 0.02 0.08 0 0.025 0.08 0 0.03 0.08 0 0.035 0.08 0 0.04 0.08 0 0.045 0.08 0 0.05 0.08 0 0.055 0.08 0 0.06 0.08 0 0.065 0.08 0 0.07 0.08 0 0.075 0.08 0 0.08 0.08 0 0.085 0.08 0 0.09 0.08 0 0.095 0.08 0 0.1 0.08 0 0.105 0.08 0 0.11 0.08 0 0.115 0.08 0 0.12 0.08 0 0.125 0.08 0 0.13 0.08 0 0.135 0.08 0 0.14 0.08 0 0.145 0.08 0 0.15 0.08 0 0.155 0.08 0 0.16 0.08 0 0.165 0.08 0
[...]
			<PointData Scalars="VitesseX">
				<DataArray Name="VitesseX" type="Float32" format="ascii">
 0 -3.97129e-14 -4.74279e-15 -4.56594e-14 4.42613e-14 -8.10174e-15 2.70952e-14 -4.48276e-14 -3.03008e-14 -3.344e-14 1.33703e-14 8.20265e-14 -3.48923e-14 2.49355e-14 -8.77096e-14 -3.87112e-14 -1.29988e-14 -1.24589e-13 -2.46343e-14 -7.92123e-14 -6.71074e-14 -6.29849e-14 -7.41655e-14 -1.29798e-15 1.20996e-15 -1.20041e-13 -1.293e-13 -5.93412e-14 -5.8426e-14 -7.1396e-14 -7.01182e-14 -1.14941e-13 -2.87143e-13 -1.19355e-13 -6.03258e-14 -6.31256e-14 -2.32039e-13 -5.62333e-14 -3.09331e-13 3.31514e-13 3.10323e-14 -4.42352e-14 2.19334e-13 2.11773e-13 -1.85334e-13 -8.01596e-14 -3.50125e-13 -3.05291e-14 -5.94176e-14 8.4101e-14 -1.75846e-13 -2.80902e-13 -1.04892e-13 -2.35975e-13 1.50808e-13 1.82213e-13 -5.77896e-13 1.04e-13 -1.13073e-13 -8.32372e-14 -3.26796e-13 -6.34608e-14 1.96674e-13 3.36186e-13 6.88981e-12 5.98368e-11 5.04372e-10 3.94439e-09 2.84812e-08 1.89106e-07 1.14836e-06 6.33936e-06 3.15843e-05 0.000140783 0.000555422 0.00191451 0.00568225 0.0143288 0.0305109 0.0553102 0.0874637 0.124656 0.164985 0.207318 0.250944 0.295392 0.340478 0.386159 0.432451 0.478345 0.522186 0.566111 0.608746 0.650645 0.692354 0.731461 0.771054 0.806799 0.839912 0.870736 0.891889 0.909799 0.922373 0.926572 0.92986 0.93215 0.932354 0.932022 0.931652 0.931415 0.931185 0.930855 0.930418 0.929972 0.929639 0.929409 0.929226 0.92906 0.928908 0.928769 0.928629 0.928461 0.928234 0.927858 0.927123 0.925591 0.922371 0.915717 0.902436 0.877249 0.832741 0.76092 0.65728 0.526204 0.383456 0.249918 0.142948 0.0709037 0.0308896 0.0122739 0.00462804 0.00169722 0.000612073 0.000217929 7.66837e-05 2.66637e-05 9.15708e-06 3.10433e-06 1.03828e-06 3.42436e-07 1.11322e-07 3.56571e-08 1.12498e-08 3.49495e-09 1.06888e-09 3.21666e-10 9.55174e-11 2.71491e-11 7.36767e-12 1.97156e-12 3.66354e-13 7.48314e-13 3.28562e-14 -1.20614e-12 3.03247e-13 -3.15873e-13 2.30373e-13 -4.64535e-13 -2.66516e-13 -3.25211e-13 -3.02595e-13 -2.44156e-13 -2.48552e-13 -1.86244e-13 -1.57667e-13 -8.03108e-13 2.45394e-13 6.88556e-13 2.16746e-13 -2.46953e-13 -1.20347e-14 -9.38768e-14 -3.22584e-13 3.07098e-13 -4.27373e-13 -3.31768e-13 -2.74762e-13 2.37513e-13 -2.78987e-13 2.80858e-14 2.56764e-13 -1.21401e-12 7.29112e-13 -2.53641e-13 4.20057e-14 -3.06282e-13 9.5744e-13 6.30173e-13 -1.0018e-12 -7.68531e-13 0 0 1.74546e-14 -1.24464e-14 3.31366e-14 -3.70603e-14 -1.6734e-14 -4.17232e-14 1.14224e-14 -2.28356e-14 1.89247e-14 8.24539e-16 -4.41408e-14 7.74926e-14 -5.42145e-14 -2.80346e-15 -1.9595e-14 -4.51297e-14 -4.76127e-14 -1.07737e-13 -2.15335e-14 -3.21296e-14 -6.12474e-14 -1.34023e-14 -8.57753e-14 -9.04451e-14 -9.42273e-14 -1.45839e-14 -6.05628e-14 -2.37207e-13 -6.36696e-14 -1.06082e-13 -9.03613e-14 -9.13265e-14 -2.07286e-13 -1.93684e-13 -1.35136e-13 5.07164e-15 -1.1677e-13 1.57677e-13 -1.80496e-13 7.68933e-14 1.26653e-13 -4.89033e-14 -1.88391e-13 7.74412e-14 -1.09184e-13 3.09587e-14 -3.90841e-13 -2.06822e-13 -2.74845e-13 1.5195e-13 -1.25157e-13 -1.35165e-13 1.30819e-13 -3.80747e-13 -1.71581e-13 3.26184e-13 -2.18899e-13 -1.28929e-13 -1.2416e-13 2.87685e-14 -1.24553e-13 -1.03097e-13 9.11434e-13 6.50983e-12 6.01188e-11 5.04573e-10 3.94341e-09 2.84818e-08 1.89106e-07 1.14836e-06 6.33936e-06 3.15843e-05 0.000140783 0.000555422 0.00191451 0.00568225 0.0143288 0.0305109 0.0553102 0.0874637 0.124656 0.164985 0.207318 0.250944 0.295392 0.340478 0.386159 0.432451 0.478345 0.522186 0.566111 0.608746 0.650645 0.692354 0.731461 0.771054 0.806799 0.839912 0.870736 0.891889 0.909799 0.922373 0.926572 0.92986 0.93215 0.932354 0.932022 0.931652 0.931415 0.931185 0.930855 0.930418 0.929972 0.929639 0.929409 0.929226 0.92906 0.928908 0.928769 0.928629 0.928461 0.928234 0.927858 0.927123 0.925591 0.922371 0.915717 0.902436 0.877249 0.832741 0.76092 0.65728 0.526204 0.383456 0.249918 0.142948 0.0709037 0.0308896 0.0122739 0.00462804 0.00169722 0.000612073 0.000217929 7.66837e-05 2.66637e-05 9.15708e-06 3.10433e-06 1.03828e-06 3.42436e-07 1.11321e-07 3.56571e-08 1.12499e-08 3.49513e-09 1.06893e-09 3.21646e-10 9.47521e-11 2.78445e-11 7.65449e-12 2.10273e-12 2.30138e-13 -2.867e-13 1.19793e-13 6.1312e-13 -8.18196e-13 1.51005e-13 -5.058e-13 -7.90443e-14 -1.76239e-13 -3.25666e-13 -5.69435e-14 -6.66836e-13 -3.70353e-13 -4.57935e-13 -1.89565e-13 4.96992e-13 2.24702e-13 -2.36204e-13 2.14003e-13 -4.70124e-13 1.73932e-13 1.96372e-13 1.4846e-13 -4.57014e-13 8.70237e-14 -2.37797e-13 -1.24563e-13 -7.62283e-13 1.23947e-13 -8.99872e-14 -4.63562e-13 3.3754e-13 -3.11512e-13 5.12926e-13 2.64433e-13 2.38276e-13 -7.37314e-13 -3.14298e-13 9.51884e-13 5.49176e-13 0 0 9.00563e-15 1.18223e-14 -1.83537e-14 -1.68953e-14 -3.74736e-14 -2.28378e-14 -2.1836e-14 2.39385e-14 -4.00895e-14 -4.98298e-15 1.62624e-14 -3.02532e-14 2.98455e-14 1.092e-14 -9.58239e-15 -6.54304e-14 2.08857e-14 2.24993e-14 -4.4389e-14 -6.27532e-14 -5.42513e-15 -8.67166e-14 -1.13483e-13 -4.15341e-14 -5.87433e-15 -2.2229e-13 -1.80971e-13 1.22802e-14 -6.17041e-14 -1.67959e-13 -1.26125e-13 -1.06822e-13 -1.1143e-13 -4.95561e-14 -1.6631e-13 -7.38427e-14 -7.59511e-14 -9.22326e-15 5.86391e-14 -1.91812e-14 -9.71056e-14 -1.61687e-13 6.22437e-14 -1.41037e-13 -1.17111e-13 -1.45331e-13 -1.51948e-13 -7.71538e-14 -2.67522e-14 -1.61976e-13 -5.17226e-14 -6.85547e-14 -2.98645e-13 1.59761e-13 -8.30571e-14 -1.98312e-13 -1.27735e-13 1.3397e-13 1.16509e-14 -1.69256e-13 -7.12272e-14 1.70962e-13 6.60615e-13 6.72511e-12 5.99331e-11 5.04313e-10 3.94392e-09 2.84819e-08 1.89106e-07 1.14836e-06 6.33936e-06 3.15843e-05 0.000140783 0.000555422 0.00191451 0.00568225 0.0143288 0.0305109 0.0553102 0.0874637 0.124656 0.164985 0.207318 0.250944 0.295392 0.340478 0.386159 0.432451 0.478345 0.522186 0.566111 0.608746 0.650645 0.692354 0.731461 0.771054 0.806799 0.839912 0.870736 0.891889 0.909799 0.922373 0.926572 0.92986 0.93215 0.932354 0.932022 0.931652 0.931415 0.931185 0.930855 0.930418 0.929972 0.929639 0.929409 0.929226 0.92906 0.928908 0.928769 0.928629 0.928461 0.928234 0.927858 0.927123 0.925591 0.922371 0.915717 0.902436 0.877249 0.832741 0.76092 0.65728 0.526204 0.383456 0.249918 0.142948 0.0709037 0.0308896 0.0122739 0.00462804 0.00169722 0.000612073 0.000217929 7.66837e-05 2.66637e-05 9.15708e-06 3.10433e-06 1.03828e-06 3.42436e-07 1.11321e-07 3.56571e-08 1.12501e-08 3.49506e-09 1.06882e-09 3.21565e-10 9.54137e-11 2.78449e-11 7.78957e-12 1.79998e-12 8.25589e-13 -1.44079e-13 -1.1112e-13 -3.20995e-13 3.3192e-13 -2.86327e-13 -3.81875e-13 -2.39355e-13 -2.04685e-13 7.69351e-14 -6.43062e-13 -3.08166e-13 -4.01409e-13 -3.61219e-13 -2.9164e-13 1.46955e-13 2.35648e-13 -1.08793e-13 -6.85833e-13 4.87179e-13 -2.61841e-13 4.08464e-13 -2.95082e-13 2.16971e-13 -2.14524e-13 7.98345e-15 -4.80319e-13 -1.03681e-13 -2.26365e-13 -1.87747e-13 -4.33833e-13 3.19497e-13 3.29964e-13 2.83196e-13 2.29147e-13 1.43888e-13 -1.78402e-13 -1.32939e-13 -2.44198e-13 -3.92162e-13 0 0 -2.85954e-14 -2.76358e-14 -4.02199e-14 -1.91915e-14 -3.84107e-14 -6.6993e-15 -1.48298e-14 1.0719e-14 -1.61528e-14 4.47597e-14 -1.80569e-14 -2.2171e-14 1.54436e-14 -5.04641e-14 3.12941e-14 3.16611e-14 -2.03201e-14 2.50334e-14 -9.61865e-15 8.16461e-15 -5.65508e-14 -4.43161e-14 -5.89128e-14 -4.43445e-14 -1.48127e-13 -1.42215e-13 9.83293e-16 -8.0227e-14 -1.81781e-13 -1.4568e-13 -1.41045e-13 -6.41452e-14 1.69504e-14 -7.54492e-14 -5.70327e-14 -5.8018e-14 -1.35851e-13 -2.25318e-13 4.46757e-14 -1.47464e-14 -1.33609e-13 8.62882e-14 4.708e-14 -2.0336e-15 -8.68689e-14 -3.13122e-13 -3.48968e-14 -6.94167e-14 -4.4958e-14 -1.56072e-13 -6.28723e-14 -1.61624e-13 -1.35111e-13 1.41031e-13 2.12375e-13 -4.45565e-13 8.37851e-14 -1.73382e-13 -9.30353e-14 -4.56871e-14 -8.85086e-14 6.52794e-14 6.66699e-13 6.60572e-12 5.99473e-11 5.04539e-10 3.94435e-09 2.84818e-08 1.89106e-07 1.14836e-06 6.33936e-06 3.15843e-05 0.000140783 0.000555422 0.00191451 0.00568225 0.0143288 0.0305109 0.0553102 0.0874637 0.124656 0.164985 0.207318 0.250944 0.295392 0.340478 0.386159 0.432451 0.478345 0.522186 0.566111 0.608746 0.650645 0.692354 0.731461 0.771054 0.806799 0.839912 0.870736 0.891889 0.909799 0.922373 0.926572 0.92986 0.93215 0.932354 0.932022 0.931652 0.931415 0.931185 0.930855 0.930418 0.929972 0.929639 0.929409 0.929226 0.92906 0.928908 0.928769 0.928629 0.928461 0.928234 0.927858 0.927123 0.925591 0.922371 0.915717 0.902436 0.877249 0.832741 0.76092 0.65728 0.526204 0.383456 0.249918 0.142948 0.0709037 0.0308896 0.0122739 0.00462804 0.00169722 0.000612073 0.000217929 7.66837e-05 2.66637e-05 9.15708e-06 3.10433e-06 1.03828e-06 3.42436e-07 1.11321e-07 3.56572e-08 1.12499e-08 3.49525e-09 1.06921e-09 3.21935e-10 9.54312e-11 2.75913e-11 7.58128e-12 2.48534e-12 6.88956e-13 4.2476e-13 -2.50141e-13 -7.12896e-13 1.85701e-13 -3.22804e-13 7.1748e-14 -2.30574e-13 -6.1978e-13 -6.99819e-13 -3.19456e-13 1.10406e-13 1.48026e-13 -4.422e-13 -1.44333e-13 -6.4465e-13 -1.92561e-13 6.12672e-13 -6.65157e-14 -1.35237e-13 -4.04535e-13 -2.03935e-13 1.99643e-13 -2.25943e-13 -3.67758e-13 3.07289e-13 -2.72493e-13 6.11831e-13 -5.25157e-13 -7.47729e-13 4.84925e-13 -7.28086e-13 5.46995e-13 7.86536e-14 -5.08525e-13 7.6787e-13 7.4447e-13 -5.94081e-13 -5.60878e-13 -6.54502e-13 0 0 -8.2487e-15 -4.40049e-14 1.41337e-15 -7.80967e-14 -2.5878e-14 -3.50159e-14 1.59588e-14 -1.6165e-14 5.09873e-14 1.93655e-14 -7.04132e-14 7.85678e-14 -6.70723e-14 2.51981e-14 5.54759e-14 5.05477e-14 -9.25426e-15 -4.00215e-14 2.05728e-14 2.80527e-14 -8.84966e-14 -9.2013e-14 -8.91894e-14 -1.25219e-13 -1.59704e-13 1.26255e-14 5.4802e-14 -2.71541e-13 -1.16803e-13 -1.30881e-13 -4.07056e-14 -1.15842e-13 -4.4192e-14 -1.4057e-13 2.44601e-14 -2.08711e-14 -1.57729e-14 -2.49294e-14 -2.76794e-13 -1.62981e-14 9.86204e-14 2.5388e-14 -1.79017e-13 1.66831e-13 -9.27471e-14 3.57033e-14 -2.32355e-13 -2.51055e-13 -3.12969e-13 5.29886e-14 -5.35838e-14 -3.26256e-14 1.86785e-13 -1.95585e-13 1.27927e-14 1.38347e-13 -1.09459e-13 -2.22596e-13 -1.47903e-13 1.2138e-13 -1.1577e-13 4.35828e-14 9.41263e-13 6.4786e-12 6.01501e-11 5.04677e-10 3.94382e-09 2.84817e-08 1.89106e-07 1.14836e-06 6.33936e-06 3.15843e-05 0.000140783 0.000555422 0.00191451 0.00568225 0.0143288 0.0305109 0.0553102 0.0874637 0.124656 0.164985 0.207318 0.250944 0.295392 0.340478 0.386159 0.432451 0.478345 0.522186 0.566111 0.608746 0.650645 0.692354 0.731461 0.771054 0.806799 0.839912 0.870736 0.891889 0.909799 0.922373 0.926572 0.92986 0.93215 0.932354 0.932022 0.931652 0.931415 0.931185 0.930855 0.930418 0.929972 0.929639 0.929409 0.929226 0.92906 0.928908 0.928769 0.928629 0.928461 0.928234 0.927858 0.927123 0.925591 0.922371 0.915717 0.902436 0.877249 0.832741 0.76092 0.65728 0.526204 0.383456 0.249918 0.142948 0.0709037 0.0308896 0.0122739 0.00462804 0.00169722 0.000612073 0.000217929 7.66837e-05 2.66637e-05 9.15708e-06 3.10433e-06 1.03828e-06 3.42437e-07 1.11321e-07 3.56572e-08 1.125e-08 3.49561e-09 1.06948e-09 3.21968e-10 9.49316e-11 2.75896e-11 8.11103e-12 1.89605e-12 7.6914e-13 -1.97891e-13 4.46198e-13 4.25382e-13 -7.49517e-13 2.31899e-13 -6.48374e-13 -7.43126e-14 -4.57487e-13 -8.48265e-13 1.48723e-13 -4.3968e-13 8.90914e-14 -1.84891e-13 1.12179e-13 2.34172e-13 -2.85295e-13 1.41652e-14 6.07746e-13 -7.2957e-13 -1.16333e-13 -3.71708e-13 -1.3354e-14 -3.74842e-13 -1.62882e-13 7.40284e-14 -7.05944e-14 -4.37655e-13 -1.08167e-13 -7.33998e-13 3.64437e-14 8.29159e-14 -2.20866e-13 3.87075e-13 -1.32026e-13 8.13199e-13 -1.90019e-13 -2.58953e-13 7.09424e-13 4.96879e-13 0 0 -1.59174e-14 1.10564e-14 -6.53735e-14 -3.32192e-14 -2.45156e-14 8.23266e-15 -4.97672e-14 9.47941e-15 -1.71881e-14 -4.90332e-14 9.81202e-14 -4.89063e-14 2.80236e-14 9.10616e-14 2.96777e-14 -1.58271e-14 3.45393e-14 1.05728e-13 -6.45404e-14 -8.85786e-14 -1.5232e-14 -3.16188e-13 -1.17266e-13 -6.27164e-14 3.35113e-14 -2.35031e-13 -1.92521e-13 5.7921e-14 6.24909e-14 -1.64273e-13 1.42104e-14 -4.21528e-13 -4.99269e-14 9.76879e-14 3.75112e-14 -3.15574e-13 2.65563e-13 -2.42354e-13 1.66846e-13 -1.6422e-13 -2.72941e-14 -1.28034e-13 2.60848e-13 -2.84561e-13 -1.07771e-13 -5.05386e-15 5.23411e-14 -1.6336e-13 4.42646e-14 -3.85576e-13 -1.15457e-13 2.86325e-13 -4.51111e-13 5.58592e-13 -3.99028e-14 -4.59063e-13 -1.0016e-13 3.14297e-13 7.86492e-14 -3.88713e-13 -1.1331e-14 7.01399e-13 3.83675e-13 7.06612e-12 5.98707e-11 5.04127e-10 3.94437e-09 2.84813e-08 1.89106e-07 1.14836e-06 6.33936e-06 3.15843e-05 0.000140783 0.000555422 0.00191451 0.00568225 0.0143288 0.0305109 0.0553102 0.0874637 0.124656 0.164985 0.207318 0.250944 0.295392 0.340478 0.386159 0.432451 0.478345 0.522186 0.566111 0.608746 0.650645 0.692354 0.731461 0.771054 0.806799 0.839912 0.870736 0.891889 0.909799 0.922373 0.926572 0.92986 0.93215 0.932354 0.932022 0.931652 0.931415 0.931185 0.930855 0.930418 0.929972 0.929639 0.929409 0.929226 0.92906 0.928908 0.928769 0.928629 0.928461 0.928234 0.927858 0.927123 0.925591 0.922371 0.915717 0.902436 0.877249 0.832741 0.76092 0.65728 0.526204 0.383456 0.249918 0.142948 0.0709037 0.0308896 0.0122739 0.00462804 0.00169722 0.000612073 0.000217929 7.66837e-05 2.66637e-05 9.15709e-06 3.10433e-06 1.03828e-06 3.42436e-07 1.11321e-07 3.56571e-08 1.12502e-08 3.4955e-09 1.0692e-09 3.21569e-10 9.58413e-11 2.71465e-11 8.69733e-12 1.87478e-13 1.71763e-12 -2.11747e-13 9.63709e-13 -7.97814e-13 7.33045e-13 -8.11307e-14 -9.62022e-13 -4.72633e-13 1.17787e-15 1.83099e-13 -5.38474e-13 -6.26987e-13 -4.28533e-13 5.21809e-13 1.51207e-13 2.54461e-13 8.18162e-14 -2.53636e-13 -2.34402e-13 4.78985e-13 -3.07177e-13 -5.23954e-15 -1.63566e-12 1.35727e-12 -6.20718e-13 -3.06727e-13 -5.82476e-13 -5.44254e-13 -1.45632e-13 -1.39973e-13 -5.80741e-13 3.71907e-13 4.76342e-13 -9.62587e-14 7.24434e-13 -4.04399e-13 2.06286e-13 1.66315e-12 -8.53365e-13 -3.48447e-13 0
				</DataArray>
				<DataArray Name="VitesseY" type="Float32" format="ascii">