<?xml version="1.0"?>
<VTKFile type="PolyData">
	<PolyData>
		<Piece NumberOfPoints="1206" NumberOfPolys="1000">
			<Points>
				<DataArray type="Float32" NumberOfComponents="3" format="ascii">
 0 0 0 0.005 0 0 0.01 0 0 0.015 0 0 0.02 0 0 0.025 0 0 0.03 0 0 0.035 0 0 0.04 0 0 0.045 0 0 0.05 0 0 0.055 0 0 0.06 0 0 0.065 0 0 0.07 0 0 0.075 0 0 0.08 0 0 0.085 0 0 0.09 0 0 0.095 0 0 0.1 0 0 0.105 0 0 0.11 0 0 0.115 0 0 0.12 0 0 0.125 0 0 0.13 0 0 0.135 0 0 0.14 0 0 0.145 0 0 0.15 0 0 0.155 0 0 0.16 0 0 0.165 0 0 0.17 0 0 0.175 0 0 0.18 0 0 0.185 0 0 0.19 0 0 0.195 0 0 0.2 0 0 0.205 0 0 0.21 0 0 0.215 0 0 0.22 0 0 0.225 0 0 0.23 0 0 0.235 0 0 0.24 0 0 0.245 0 0 0.25 0 0 0.255 0 0 0.26 0 0 0.265 0 0 0.27 0 0 0.275 0 0 0.28 0 0 0.285 0 0 0.29 0 0 0.295 0 0 0.3 0 0 0.305 0 0 0.31 0 0 0.315 0 0 0.32 0 0 0.325 0 0 0.33 0 0 0.335 0 0 0.34 0 0 0.345 0 0 0.35 0 0 0.355 0 0 0.36 0 0 0.365 0 0 0.37 0 0 0.375 0 0 0.38 0 0 0.385 0 0 0.39 0 0 0.395 0 0 0.4 0 0 0.405 0 0 0.41 0 0 0.415 0 0 0.42 0 0 0.425 0 0 0.43 0 0 0.435 0 0 0.44 0 0 0.445 0 0 0.45 0 0 0.455 0 0 0.46 0 0 0.465 0 0 0.47 0 0 0.475 0 0 0.48 0 0 0.485 0 0 0.49 0 0 0.495 0 0 0.5 0 0 0.505 0 0 0.51 0 0 0.515 0 0 0.52 0 0 0.525 0 0 0.53 0 0 0.535 0 0 0.54 0 0 0.545 0 0 0.55 0 0 0.555 0 0 0.56 0 0 0.565 0 0 0.57 0 0 0.575 0 0 0.58 0 0 0.585 0 0 0.59 0 0 0.595 0 0 0.6 0 0 0.605 0 0 0.61 0 0 0.615 0 0 0.62 0 0 0.625 0 0 0.63 0 0 0.635 0 0 0.64 0 0 0.645 0 0 0.65 0 0 0.655 0 0 0.66 0 0 0.665 0 0 0.67 0 0 0.675 0 0 0.68 0 0 0.685 0 0 0.69 0 0 0.695 0 0 0.7 0 0 0.705 0 0 0.71 0 0 0.715 0 0 0.72 0 0 0.725 0 0 0.73 0 0 0.735 0 0 0.74 0 0 0.745 0 0 0.75 0 0 0.755 0 0 0.76 0 0 0.765 0 0 0.77 0 0 0.775 0 0 0.78 0 0 0.785 0 0 0.79 0 0 0.795 0 0 0.8 0 0 0.805 0 0 0.81 0 0 0.815 0 0 0.82 0 0 0.825 0 0 0.83 0 0 0.835 0 0 0.84 0 0 0.845 0 0 0.85 0 0 0.855 0 0 0.86 0 0 0.865 0 0 0.87 0 0 0.875 0 0 0.88 0 0 0.885 0 0 0.89 0 0 0.895 0 0 0.9 0 0 0.905 0 0 0.91 0 0 0.915 0 0 0.92 0 0 0.925 0 0 0.93 0 0 0.935 0 0 0.94 0 0 0.945 0 0 0.95 0 0 0.955 0 0 0.96 0 0 0.965 0 0 0.97 0 0 0.975 0 0 0.98 0 0 0.985 0 0 0.99 0 0 0.995 0 0 1 0 0 0 0.02 0 0.005 0.02 0 0.01 0.02 0 0.015 0.02 0 0.02 0.02 0 0.025 0.02 0 0.03 0.02 0 0.035 0.02 0 0.04 0.02 0 0.045 0.02 0 0.05 0.02 0 0.055 0.02 0 0.06 0.02 0 0.065 0.02 0 0.07 0.02 0 0.075 0.02 0 0.08 0.02 0 0.085 0.02 0 0.09 0.02 0 0.095 0.02 0 0.1 0.02 0 0.105 0.02 0 0.11 0.02 0 0.115 0.02 0 0.12 0.02 0 0.125 0.02 0 0.13 0.02 0 0.135 0.02 0 0.14 0.02 0 0.145 0.02 0 0.15 0.02 0 0.155 0.02 0 0.16 0.02 0 0.165 0.02 0 0.17 0.02 0 0.175 0.02 0 0.18 0.02 0 0.185 0.02 0 0.19 0.02 0 0.195 0.02 0 0.2 0.02 0 0.205 0.02 0 0.21 0.02 0 0.215 0.02 0 0.22 0.02 0 0.225 0.02 0 0.23 0.02 0 0.235 0.02 0 0.24 0.02 0 0.245 0.02 0 0.25 0.02 0 0.255 0.02 0 0.26 0.02 0 0.265 0.02 0 0.27 0.02 0 0.275 0.02 0 0.28 0.02 0 0.285 0.02 0 0.29 0.02 0 0.295 0.02 0 0.3 0.02 0 0.305 0.02 0 0.31 0.02 0 0.315 0.02 0 0.32 0.02 0 0.325 0.02 0 0.33 0.02 0 0.335 0.02 0 0.34 0.02 0 0.345 0.02 0 0.35 0.02 0 0.355 0.02 0 0.36 0.02 0 0.365 0.02 0 0.37 0.02 0 0.375 0.02 0 0.38 0.02 0 0.385 0.02 0 0.39 0.02 0 0.395 0.02 0 0.4 0.02 0 0.405 0.02 0 0.41 0.02 0 0.415 0.02 0 0.42 0.02 0 0.425 0.02 0 0.43 0.02 0 0.435 0.02 0 0.44 0.02 0 0.445 0.02 0 0.45 0.02 0 0.455 0.02 0 0.46 0.02 0 0.465 0.02 0 0.47 0.02 0 0.475 0.02 0 0.48 0.02 0 0.485 0.02 0 0.49 0.02 0 0.495 0.02 0 0.5 0.02 0 0.505 0.02 0 0.51 0.02 0 0.515 0.02 0 0.52 0.02 0 0.525 0.02 0 0.53 0.02 0 0.535 0.02 0 0.54 0.02 0 0.545 0.02 0 0.55 0.02 0 0.555 0.02 0 0.56 0.02 0 0.565 0.02 0 0.57 0.02 0 0.575 0.02 0 0.58 0.02 0 0.585 0.02 0 0.59 0.02 0 0.595 0.02 0 0.6 0.02 0 0.605 0.02 0 0.61 0.02 0 0.615 0.02 0 0.62 0.02 0 0.625 0.02 0 0.63 0.02 0 0.635 0.02 0 0.64 0.02 0 0.645 0.02 0 0.65 0.02 0 0.655 0.02 0 0.66 0.02 0 0.665 0.02 0 0.67 0.02 0 0.675 0.02 0 0.68 0.02 0 0.685 0.02 0 0.69 0.02 0 0.695 0.02 0 0.7 0.02 0 0.705 0.02 0 0.71 0.02 0 0.715 0.02 0 0.72 0.02 0 0.725 0.02 0 0.73 0.02 0 0.735 0.02 0 0.74 0.02 0 0.745 0.02 0 0.75 0.02 0 0.755 0.02 0 0.76 0.02 0 0.765 0.02 0 0.77 0.02 0 0.775 0.02 0 0.78 0.02 0 0.785 0.02 0 0.79 0.02 0 0.795 0.02 0 0.8 0.02 0 0.805 0.02 0 0.81 0.02 0 0.815 0.02 0 0.82 0.02 0 0.825 0.02 0 0.83 0.02 0 0.835 0.02 0 0.84 0.02 0 0.845 0.02 0 0.85 0.02 0 0.855 0.02 0 0.86 0.02 0 0.865 0.02 0 0.87 0.02 0 0.875 0.02 0 0.88 0.02 0 0.885 0.02 0 0.89 0.02 0 0.895 0.02 0 0.9 0.02 0 0.905 0.02 0 0.91 0.02 0 0.915 0.02 0 0.92 0.02 0 0.925 0.02 0 0.93 0.02 0 0.935 0.02 0 0.94 0.02 0 0.945 0.02 0 0.95 0.02 0 0.955 0.02 0 0.96 0.02 0 0.965 0.02 0 0.97 0.02 0 0.975 0.02 0 0.98 0.02 0 0.985 0.02 0 0.99 0.02 0 0.995 0.02 0 1 0.02 0 0 0.04 0 0.005 0.04 0 0.01 0.04 0 0.015 0.04 0 0.02 0.04 0 0.025 0.04 0 0.03 0.04 0 0.035 0.04 0 0.04 0.04 0 0.045 0.04 0 0.05 0.04 0 0.055 0.04 0 0.06 0.04 0 0.065 0.04 0 0.07 0.04 0 0.075 0.04 0 0.08 0.04 0 0.085 0.04 0 0.09 0.04 0 0.095 0.04 0 0.1 0.04 0 0.105 0.04 0 0.11 0.04 0 0.115 0.04 0 0.12 0.04 0 0.125 0.04 0 0.13 0.04 0 0.135 0.04 0 0.14 0.04 0 0.145 0.04 0 0.15 0.04 0 0.155 0.04 0 0.16 0.04 0 0.165 0.04 0 0.17 0.04 0 0.175 0.04 0 0.18 0.04 0 0.185 0.04 0 0.19 0.04 0 0.195 0.04 0 0.2 0.04 0 0.205 0.04 0 0.21 0.04 0 0.215 0.04 0 0.22 0.04 0 0.225 0.04 0 0.23 0.04 0 0.235 0.04 0 0.24 0.04 0 0.245 0.04 0 0.25 0.04 0 0.255 0.04 0 0.26 0.04 0 0.265 0.04 0 0.27 0.04 0 0.275 0.04 0 0.28 0.04 0 0.285 0.04 0 0.29 0.04 0 0.295 0.04 0 0.3 0.04 0 0.305 0.04 0 0.31 0.04 0 0.315 0.04 0 0.32 0.04 0 0.325 0.04 0 0.33 0.04 0 0.335 0.04 0 0.34 0.04 0 0.345 0.04 0 0.35 0.04 0 0.355 0.04 0 0.36 0.04 0 0.365 0.04 0 0.37 0.04 0 0.375 0.04 0 0.38 0.04 0 0.385 0.04 0 0.39 0.04 0 0.395 0.04 0 0.4 0.04 0 0.405 0.04 0 0.41 0.04 0 0.415 0.04 0 0.42 0.04 0 0.425 0.04 0 0.43 0.04 0 0.435 0.04 0 0.44 0.04 0 0.445 0.04 0 0.45 0.04 0 0.455 0.04 0 0.46 0.04 0 0.465 0.04 0 0.47 0.04 0 0.475 0.04 0 0.48 0.04 0 0.485 0.04 0 0.49 0.04 0 0.495 0.04 0 0.5 0.04 0 0.505 0.04 0 0.51 0.04 0 0.515 0.04 0 0.52 0.04 0 0.525 0.04 0 0.53 0.04 0 0.535 0.04 0 0.54 0.04 0 0.545 0.04 0 0.55 0.04 0 0.555 0.04 0 0.56 0.04 0 0.565 0.04 0 0.57 0.04 0 0.575 0.04 0 0.58 0.04 0 0.585 0.04 0 0.59 0.04 0 0.595 0.04 0 0.6 0.04 0 0.605 0.04 0 0.61 0.04 0 0.615 0.04 0 0.62 0.04 0 0.625 0.04 0 0.63 0.04 0 0.635 0.04 0 0.64 0.04 0 0.645 0.04 0 0.65 0.04 0 0.655 0.04 0 0.66 0.04 0 0.665 0.04 0 0.67 0.04 0 0.675 0.04 0 0.68 0.04 0 0.685 0.04 0 0.69 0.04 0 0.695 0.04 0 0.7 0.04 0 0.705 0.04 0 0.71 0.04 0 0.715 0.04 0 0.72 0.04 0 0.725 0.04 0 0.73 0.04 0 0.735 0.04 0 0.74 0.04 0 0.745 0.04 0 0.75 0.04 0 0.755 0.04 0 0.76 0.04 0 0.765 0.04 0 0.77 0.04 0 0.775 0.04 0 0.78 0.04 0 0.785 0.04 0 0.79 0.04 0 0.795 0.04 0 0.8 0.04 0 0.805 0.04 0 0.81 0.04 0 0.815 0.04 0 0.82 0.04 0 0.825 0.04 0 0.83 0.04 0 0.835 0.04 0 0.84 0.04 0 0.845 0.04 0 0.85 0.04 0 0.855 0.04 0 0.86 0.04 0 0.865 0.04 0 0.87 0.04 0 0.875 0.04 0 0.88 0.04 0 0.885 0.04 0 0.89 0.04 0 0.895 0.04 0 0.9 0.04 0 0.905 0.04 0 0.91 0.04 0 0.915 0.04 0 0.92 0.04 0 0.925 0.04 0 0.93 0.04 0 0.935 0.04 0 0.94 0.04 0 0.945 0.04 0 0.95 0.04 0 0.955 0.04 0 0.96 0.04 0 0.965 0.04 0 0.97 0.04 0 0.975 0.04 0 0.98 0.04 0 0.985 0.04 0 0.99 0.04 0 0.995 0.04 0 1 0.04 0 0 0.06 0 0.005 0.06 0 0.01 0.06 0 0.015 0.06 0 0.02 0.06 0 0.025 0.06 0 0.03 0.06 0 0.035 0.06 0 0.04 0.06 0 0.045 0.06 0 0.05 0.06 0 0.055 0.06 0 0.06 0.06 0 0.065 0.06 0 0.07 0.06 0 0.075 0.06 0 0.08 0.06 0 0.085 0.06 0 0.09 0.06 0 0.095 0.06 0 0.1 0.06 0 0.105 0.06 0 0.11 0.06 0 0.115 0.06 0 0.12 0.06 0 0.125 0.06 0 0.13 0.06 0 0.135 0.06 0 0.14 0.06 0 0.145 0.06 0 0.15 0.06 0 0.155 0.06 0 0.16 0.06 0 0.165 0.06 0 0.17 0.06 0 0.175 0.06 0 0.18 0.06 0 0.185 0.06 0 0.19 0.06 0 0.195 0.06 0 0.2 0.06 0 0.205 0.06 0 0.21 0.06 0 0.215 0.06 0 0.22 0.06 0 0.225 0.06 0 0.23 0.06 0 0.235 0.06 0 0.24 0.06 0 0.245 0.06 0 0.25 0.06 0 0.255 0.06 0 0.26 0.06 0 0.265 0.06 0 0.27 0.06 0 0.275 0.06 0 0.28 0.06 0 0.285 0.06 0 0.29 0.06 0 0.295 0.06 0 0.3 0.06 0 0.305 0.06 0 0.31 0.06 0 0.315 0.06 0 0.32 0.06 0 0.325 0.06 0 0.33 0.06 0 0.335 0.06 0 0.34 0.06 0 0.345 0.06 0 0.35 0.06 0 0.355 0.06 0 0.36 0.06 0 0.365 0.06 0 0.37 0.06 0 0.375 0.06 0 0.38 0.06 0 0.385 0.06 0 0.39 0.06 0 0.395 0.06 0 0.4 0.06 0 0.405 0.06 0 0.41 0.06 0 0.415 0.06 0 0.42 0.06 0 0.425 0.06 0 0.43 0.06 0 0.435 0.06 0 0.44 0.06 0 0.445 0.06 0 0.45 0.06 0 0.455 0.06 0 0.46 0.06 0 0.465 0.06 0 0.47 0.06 0 0.475 0.06 0 0.48 0.06 0 0.485 0.06 0 0.49 0.06 0 0.495 0.06 0 0.5 0.06 0 0.505 0.06 0 0.51 0.06 0 0.515 0.06 0 0.52 0.06 0 0.525 0.06 0 0.53 0.06 0 0.535 0.06 0 0.54 0.06 0 0.545 0.06 0 0.55 0.06 0 0.555 0.06 0 0.56 0.06 0 0.565 0.06 0 0.57 0.06 0 0.575 0.06 0 0.58 0.06 0 0.585 0.06 0 0.59 0.06 0 0.595 0.06 0 0.6 0.06 0 0.605 0.06 0 0.61 0.06 0 0.615 0.06 0 0.62 0.06 0 0.625 0.06 0 0.63 0.06 0 0.635 0.06 0 0.64 0.06 0 0.645 0.06 0 0.65 0.06 0 0.655 0.06 0 0.66 0.06 0 0.665 0.06 0 0.67 0.06 0 0.675 0.06 0 0.68 0.06 0 0.685 0.06 0 0.69 0.06 0 0.695 0.06 0 0.7 0.06 0 0.705 0.06 0 0.71 0.06 0 0.715 0.06 0 0.72 0.06 0 0.725 0.06 0 0.73 0.06 0 0.735 0.06 0 0.74 0.06 0 0.745 0.06 0 0.75 0.06 0 0.755 0.06 0 0.76 0.06 0 0.765 0.06 0 0.77 0.06 0 0.775 0.06 0 0.78 0.06 0 0.785 0.06 0 0.79 0.06 0 0.795 0.06 0 0.8 0.06 0 0.805 0.06 0 0.81 0.06 0 0.815 0.06 0 0.82 0.06 0 0.825 0.06 0 0.83 0.06 0 0.835 0.06 0 0.84 0.06 0 0.845 0.06 0 0.85 0.06 0 0.855 0.06 0 0.86 0.06 0 0.865 0.06 0 0.87 0.06 0 0.875 0.06 0 0.88 0.06 0 0.885 0.06 0 0.89 0.06 0 0.895 0.06 0 0.9 0.06 0 0.905 0.06 0 0.91 0.06 0 0.915 0.06 0 0.92 0.06 0 0.925 0.06 0 0.93 0.06 0 0.935 0.06 0 0.94 0.06 0 0.945 0.06 0 0.95 0.06 0 0.955 0.06 0 0.96 0.06 0 0.965 0.06 0 0.97 0.06 0 0.975 0.06 0 0.98 0.06 0 0.985 0.06 0 0.99 0.06 0 0.995 0.06 0 1 0.06 0 0 0.08 0 0.005 0.08 0 0.01 0.08 0 0.015 0.08 0 0.02 0.08 0 0.025 0.08 0 0.03 0.08 0 0.035 0.08 0 0.04 0.08 0 0.045 0.08 0 0.05 0.08 0 0.055 0.08 0 0.06 0.08 0 0.065 0.08 0 0.07 0.08 0 0.075 0.08 0 0.08 0.08 0 0.085 0.08 0 0.09 0.08 0 0.095 0.08 0 0.1 0.08 0 0.105 0.08 0 0.11 0.08 0 0.115 0.08 0 0.12 0.08 0 0.125 0.08 0 0.13 0.08 0 0.135 0.08 0 0.14 0.08 0 0.145 0.08 0 0.15 0.08 0 0.155 0.08 0 0.16 0.08 0 0.165 0.08 0
[...]
			<PointData Scalars="VitesseX">
				<DataArray Name="VitesseX" type="Float32" format="ascii">
 0 4.54211e-16 -1.15023e-14 -2.95359e-14 7.88278e-15 7.40278e-15 -3.879e-15 -1.00676e-14 1.67807e-14 -2.55087e-14 -2.58359e-14 2.73173e-14 -3.56155e-14 1.82224e-14 -1.03124e-13 3.29844e-14 -1.64984e-13 3.57224e-14 -1.01091e-13 -8.62001e-14 -3.25727e-14 -8.57761e-14 -2.6165e-14 1.64823e-14 -9.2791e-14 1.25071e-13 -1.06458e-14 9.43366e-14 2.98232e-14 -1.12087e-14 -5.49189e-14 -9.12565e-15 -3.18193e-14 -4.26727e-14 -2.47454e-13 -1.45613e-13 -8.10212e-14 -1.0177e-13 -1.69831e-13 -3.26988e-14 -1.11793e-13 -1.67906e-13 2.46271e-13 -1.33558e-13 -7.55889e-14 1.48612e-13 6.12208e-13 4.37725e-12 2.82094e-11 1.76416e-10 1.04489e-09 5.84486e-09 3.07994e-08 1.52447e-07 7.06529e-07 3.05492e-06 1.22717e-05 4.55733e-05 0.000155555 0.00048465 0.0013673 0.00346285 0.00781035 0.0156144 0.0277156 0.0441167 0.0640482 0.0864784 0.110539 0.135644 0.161451 0.187726 0.214312 0.241124 0.268114 0.295252 0.322523 0.349919 0.377445 0.405109 0.432907 0.460476 0.487632 0.514723 0.541498 0.568155 0.59467 0.620904 0.647144 0.672936 0.698702 0.724065 0.748978 0.773883 0.797689 0.821307 0.843541 0.863753 0.882633 0.897841 0.909817 0.919457 0.924924 0.928243 0.930603 0.931062 0.931138 0.931182 0.931136 0.930997 0.930764 0.930474 0.930173 0.929893 0.929634 0.92939 0.92917 0.928979 0.928818 0.928681 0.928565 0.928464 0.928379 0.928306 0.928243 0.928189 0.928142 0.9281 0.928063 0.928029 0.927997 0.927968 0.92794 0.927913 0.927887 0.927863 0.927841 0.927819 0.927795 0.927766 0.927728 0.927668 0.92756 0.927348 0.926924 0.926065 0.924332 0.920873 0.914079 0.901069 0.877109 0.835445 0.768476 0.67118 0.545999 0.406558 0.272444 0.161532 0.0836445 0.0381416 0.0158368 0.00623337 0.00239145 0.000906792 0.000341785 0.00012832 4.80143e-05 1.79049e-05 6.65235e-06 2.46162e-06 9.06839e-07 3.32444e-07 1.21226e-07 4.39523e-08 1.58374e-08 5.66929e-09 2.01516e-09 7.11307e-10 2.49085e-10 8.61124e-11 2.94513e-11 1.00158e-11 3.01052e-12 9.05171e-13 3.7381e-13 7.95543e-16 5.87768e-14 -2.7113e-13 4.98897e-13 -1.00662e-13 -1.84019e-13 -3.56794e-14 1.82777e-13 -7.27745e-13 9.76519e-13 -8.28534e-14 2.47155e-13 3.01848e-13 -4.80407e-13 -6.185e-13 0 0 -4.40605e-15 -1.17822e-14 5.16232e-15 -2.11696e-14 -1.51098e-14 1.99689e-14 -3.42695e-15 -1.84162e-14 2.02138e-14 1.32864e-15 -3.71749e-14 -1.43975e-14 -4.54958e-14 2.6914e-14 -9.90824e-14 -1.71732e-14 -1.60781e-13 -1.60027e-14 -8.54594e-14 -9.76821e-14 -1.79697e-14 -3.17325e-14 -4.16423e-14 9.79414e-14 1.76718e-14 4.89477e-14 -3.46427e-14 -3.11971e-14 5.2653e-14 1.71437e-14 -2.59796e-14 -6.37198e-14 -1.36411e-13 -9.10272e-14 -4.90437e-14 -1.81267e-13 -7.99465e-14 3.59335e-15 -1.72667e-13 -9.75013e-14 8.67138e-14 -2.68284e-13 3.82459e-15 2.23352e-14 1.55745e-14 6.75533e-13 4.23666e-12 2.82926e-11 1.76108e-10 1.04499e-09 5.84493e-09 3.07994e-08 1.52447e-07 7.06529e-07 3.05492e-06 1.22717e-05 4.55733e-05 0.000155555 0.00048465 0.0013673 0.00346285 0.00781035 0.0156144 0.0277156 0.0441167 0.0640482 0.0864784 0.110539 0.135644 0.161451 0.187726 0.214312 0.241124 0.268114 0.295252 0.322523 0.349919 0.377445 0.405109 0.432907 0.460476 0.487632 0.514723 0.541498 0.568155 0.59467 0.620904 0.647144 0.672936 0.698702 0.724065 0.748978 0.773883 0.797689 0.821307 0.843541 0.863753 0.882633 0.897841 0.909817 0.919457 0.924924 0.928243 0.930603 0.931062 0.931138 0.931182 0.931136 0.930997 0.930764 0.930474 0.930173 0.929893 0.929634 0.92939 0.92917 0.928979 0.928818 0.928681 0.928565 0.928464 0.928379 0.928306 0.928243 0.928189 0.928142 0.9281 0.928063 0.928029 0.927997 0.927968 0.92794 0.927913 0.927887 0.927863 0.927841 0.927819 0.927795 0.927766 0.927728 0.927668 0.92756 0.927348 0.926924 0.926065 0.924332 0.920873 0.914079 0.901069 0.877109 0.835445 0.768476 0.67118 0.545999 0.406558 0.272444 0.161532 0.0836445 0.0381416 0.0158368 0.00623337 0.00239145 0.000906792 0.000341785 0.00012832 4.80143e-05 1.79049e-05 6.65235e-06 2.46162e-06 9.06839e-07 3.32443e-07 1.21226e-07 4.39519e-08 1.58377e-08 5.66936e-09 2.01548e-09 7.10894e-10 2.4873e-10 8.63201e-11 2.97044e-11 9.968e-12 3.30679e-12 1.06942e-12 -8.16236e-14 9.91449e-15 2.29507e-13 3.48731e-13 -5.1894e-13 2.75194e-13 -2.39368e-13 -2.74165e-13 4.31966e-13 5.38793e-13 -2.56039e-13 8.6362e-14 2.67984e-13 -2.35965e-13 3.87411e-13 1.95756e-13 0 0 -6.19708e-15 4.92729e-15 -2.17082e-15 1.19247e-14 1.81706e-14 -1.91729e-14 -2.60752e-14 3.46051e-15 -2.86519e-14 -3.14946e-14 -1.18753e-14 -5.2542e-14 -3.87322e-14 -5.1535e-14 -7.7277e-14 -5.3334e-14 -4.75222e-14 -3.28991e-14 -3.48546e-14 -1.26369e-13 -7.84974e-14 -2.32948e-14 3.73059e-14 -6.04766e-14 4.62953e-16 1.05165e-13 -3.89222e-14 -3.15195e-15 7.26207e-14 1.45888e-15 -1.53061e-13 3.38619e-15 -8.30895e-14 2.26031e-14 -2.19047e-13 -3.83356e-14 2.8511e-14 -1.02704e-13 -1.6079e-13 -8.38205e-14 -1.86356e-13 6.43848e-14 -5.50319e-14 -9.82614e-16 3.98817e-14 5.01051e-13 4.35837e-12 2.83262e-11 1.76539e-10 1.04468e-09 5.84482e-09 3.07991e-08 1.52447e-07 7.06529e-07 3.05492e-06 1.22717e-05 4.55733e-05 0.000155555 0.00048465 0.0013673 0.00346285 0.00781035 0.0156144 0.0277156 0.0441167 0.0640482 0.0864784 0.110539 0.135644 0.161451 0.187726 0.214312 0.241124 0.268114 0.295252 0.322523 0.349919 0.377445 0.405109 0.432907 0.460476 0.487632 0.514723 0.541498 0.568155 0.59467 0.620904 0.647144 0.672936 0.698702 0.724065 0.748978 0.773883 0.797689 0.821307 0.843541 0.863753 0.882633 0.897841 0.909817 0.919457 0.924924 0.928243 0.930603 0.931062 0.931138 0.931182 0.931136 0.930997 0.930764 0.930474 0.930173 0.929893 0.929634 0.92939 0.92917 0.928979 0.928818 0.928681 0.928565 0.928464 0.928379 0.928306 0.928243 0.928189 0.928142 0.9281 0.928063 0.928029 0.927997 0.927968 0.92794 0.927913 0.927887 0.927863 0.927841 0.927819 0.927795 0.927766 0.927728 0.927668 0.92756 0.927348 0.926924 0.926065 0.924332 0.920873 0.914079 0.901069 0.877109 0.835445 0.768476 0.67118 0.545999 0.406558 0.272444 0.161532 0.0836445 0.0381416 0.0158368 0.00623337 0.00239145 0.000906792 0.000341785 0.00012832 4.80143e-05 1.79049e-05 6.65235e-06 2.46162e-06 9.0684e-07 3.32443e-07 1.21226e-07 4.39523e-08 1.58376e-08 5.66924e-09 2.01526e-09 7.11087e-10 2.48773e-10 8.67785e-11 2.97851e-11 9.80744e-12 3.42965e-12 1.00892e-12 2.4243e-13 -1.96163e-13 5.16582e-14 2.17815e-13 -4.42087e-13 -3.27873e-13 2.00482e-13 2.48845e-13 9.2344e-14 3.95142e-13 1.61503e-13 2.17956e-13 -2.76042e-13 7.30583e-13 -6.747e-13 6.63121e-15 0 0 -7.5894e-15 -1.14224e-14 9.62218e-15 -9.98461e-15 4.59547e-15 -6.03813e-15 -1.62027e-14 -2.41152e-14 -4.883e-14 -4.37628e-14 -2.84038e-14 -6.2153e-14 -4.47535e-14 -1.25274e-13 1.40089e-14 -4.9474e-14 -9.3478e-14 -1.15982e-13 -7.48036e-14 2.86633e-14 -7.12612e-14 -2.10977e-15 -6.42354e-14 -3.17965e-14 1.131e-13 -4.15503e-14 -1.67552e-14 -3.75997e-15 -5.51536e-14 -1.17893e-14 -1.91553e-14 5.46509e-14 -1.19884e-13 -1.3942e-13 -1.94706e-13 5.96818e-14 -8.64772e-14 -9.77307e-14 -1.22746e-14 -1.85037e-13 -5.05437e-14 8.91018e-14 1.47177e-14 7.5205e-14 1.1086e-13 6.16772e-13 4.23741e-12 2.82183e-11 1.76546e-10 1.04486e-09 5.84478e-09 3.07992e-08 1.52447e-07 7.06529e-07 3.05492e-06 1.22717e-05 4.55733e-05 0.000155555 0.00048465 0.0013673 0.00346285 0.00781035 0.0156144 0.0277156 0.0441167 0.0640482 0.0864784 0.110539 0.135644 0.161451 0.187726 0.214312 0.241124 0.268114 0.295252 0.322523 0.349919 0.377445 0.405109 0.432907 0.460476 0.487632 0.514723 0.541498 0.568155 0.59467 0.620904 0.647144 0.672936 0.698702 0.724065 0.748978 0.773883 0.797689 0.821307 0.843541 0.863753 0.882633 0.897841 0.909817 0.919457 0.924924 0.928243 0.930603 0.931062 0.931138 0.931182 0.931136 0.930997 0.930764 0.930474 0.930173 0.929893 0.929634 0.92939 0.92917 0.928979 0.928818 0.928681 0.928565 0.928464 0.928379 0.928306 0.928243 0.928189 0.928142 0.9281 0.928063 0.928029 0.927997 0.927968 0.92794 0.927913 0.927887 0.927863 0.927841 0.927819 0.927795 0.927766 0.927728 0.927668 0.92756 0.927348 0.926924 0.926065 0.924332 0.920873 0.914079 0.901069 0.877109 0.835445 0.768476 0.67118 0.545999 0.406558 0.272444 0.161532 0.0836445 0.0381416 0.0158368 0.00623337 0.00239145 0.000906792 0.000341785 0.00012832 4.80143e-05 1.79049e-05 6.65235e-06 2.46162e-06 9.06839e-07 3.32444e-07 1.21226e-07 4.39523e-08 1.58374e-08 5.66947e-09 2.0155e-09 7.11354e-10 2.4904e-10 8.65051e-11 2.94501e-11 1.02406e-11 3.52087e-12 8.57991e-13 6.71859e-13 -5.98862e-13 -2.35024e-13 -4.50466e-13 3.56034e-13 -1.99689e-13 4.28204e-14 1.31067e-13 -2.62222e-13 -3.91689e-13 4.01949e-13 -6.93046e-14 4.89843e-14 -6.14821e-13 3.7382e-13 -6.74462e-13 0 0 -6.90502e-15 -2.24412e-14 3.77468e-15 -4.23272e-14 -3.60235e-14 6.67541e-15 3.99476e-15 -4.47524e-14 -1.54705e-14 -4.59875e-14 -7.88449e-14 -4.58305e-14 -9.11094e-14 -1.79973e-14 -6.91171e-14 3.40207e-14 -1.49124e-13 -3.79017e-14 -1.54287e-13 -8.9636e-16 -1.51065e-15 -3.86092e-14 -1.43431e-13 8.48453e-14 5.0069e-14 -6.22953e-14 -5.86259e-14 -6.77935e-14 -4.02495e-14 -5.2852e-14 -1.44879e-14 -4.5347e-14 -7.02207e-14 -7.25705e-14 4.61728e-14 -1.37356e-13 -9.61013e-14 -4.44294e-14 -1.86182e-14 -1.75729e-13 1.65688e-13 -2.03512e-13 7.46808e-16 9.08855e-14 1.10832e-13 7.43986e-13 4.1454e-12 2.82393e-11 1.76237e-10 1.04518e-09 5.8449e-09 3.07993e-08 1.52447e-07 7.06529e-07 3.05492e-06 1.22717e-05 4.55733e-05 0.000155555 0.00048465 0.0013673 0.00346285 0.00781035 0.0156144 0.0277156 0.0441167 0.0640482 0.0864784 0.110539 0.135644 0.161451 0.187726 0.214312 0.241124 0.268114 0.295252 0.322523 0.349919 0.377445 0.405109 0.432907 0.460476 0.487632 0.514723 0.541498 0.568155 0.59467 0.620904 0.647144 0.672936 0.698702 0.724065 0.748978 0.773883 0.797689 0.821307 0.843541 0.863753 0.882633 0.897841 0.909817 0.919457 0.924924 0.928243 0.930603 0.931062 0.931138 0.931182 0.931136 0.930997 0.930764 0.930474 0.930173 0.929893 0.929634 0.92939 0.92917 0.928979 0.928818 0.928681 0.928565 0.928464 0.928379 0.928306 0.928243 0.928189 0.928142 0.9281 0.928063 0.928029 0.927997 0.927968 0.92794 0.927913 0.927887 0.927863 0.927841 0.927819 0.927795 0.927766 0.927728 0.927668 0.92756 0.927348 0.926924 0.926065 0.924332 0.920873 0.914079 0.901069 0.877109 0.835445 0.768476 0.67118 0.545999 0.406558 0.272444 0.161532 0.0836445 0.0381416 0.0158368 0.00623337 0.00239145 0.000906792 0.000341785 0.00012832 4.80143e-05 1.79049e-05 6.65235e-06 2.46162e-06 9.0684e-07 3.32443e-07 1.21226e-07 4.3952e-08 1.58375e-08 5.66969e-09 2.01558e-09 7.10979e-10 2.49021e-10 8.61766e-11 2.98339e-11 1.00504e-11 3.78302e-12 7.33425e-13 2.94477e-13 8.3948e-14 -1.85412e-13 -1.42549e-13 -8.55727e-14 2.79083e-13 -1.80917e-13 -2.6626e-13 2.12902e-13 -1.49146e-14 -7.19657e-13 -6.13978e-13 4.0204e-13 -5.9621e-13 1.05151e-12 -6.62542e-14 0 0 -1.7591e-15 -1.20938e-16 -5.58972e-14 9.38624e-15 -7.27425e-15 -5.67356e-14 -1.49694e-14 1.92599e-14 -5.65211e-14 -9.59319e-14 -2.29659e-14 -7.92595e-14 -6.09622e-14 -4.54686e-14 -8.96569e-14 -7.03166e-14 1.50949e-13 2.12771e-14 -1.43957e-13 -1.49065e-13 -6.73302e-14 -8.22885e-14 1.59885e-14 -1.76343e-13 -3.54096e-14 6.02979e-14 2.03616e-15 -4.21535e-14 5.85351e-14 -1.68414e-13 -2.53954e-13 -9.76031e-14 1.63298e-13 1.13506e-13 -3.86074e-15 -1.89234e-13 9.58972e-14 -2.75823e-13 -2.16314e-14 -6.58156e-14 -2.81581e-13 3.26381e-13 -2.79213e-13 -9.08636e-14 1.97171e-13 5.17671e-13 4.43667e-12 2.83187e-11 1.76661e-10 1.04491e-09 5.84486e-09 3.07991e-08 1.52447e-07 7.06528e-07 3.05492e-06 1.22717e-05 4.55733e-05 0.000155555 0.00048465 0.0013673 0.00346285 0.00781035 0.0156144 0.0277156 0.0441167 0.0640482 0.0864784 0.110539 0.135644 0.161451 0.187726 0.214312 0.241124 0.268114 0.295252 0.322523 0.349919 0.377445 0.405109 0.432907 0.460476 0.487632 0.514723 0.541498 0.568155 0.59467 0.620904 0.647144 0.672936 0.698702 0.724065 0.748978 0.773883 0.797689 0.821307 0.843541 0.863753 0.882633 0.897841 0.909817 0.919457 0.924924 0.928243 0.930603 0.931062 0.931138 0.931182 0.931136 0.930997 0.930764 0.930474 0.930173 0.929893 0.929634 0.92939 0.92917 0.928979 0.928818 0.928681 0.928565 0.928464 0.928379 0.928306 0.928243 0.928189 0.928142 0.9281 0.928063 0.928029 0.927997 0.927968 0.92794 0.927913 0.927887 0.927863 0.927841 0.927819 0.927795 0.927766 0.927728 0.927668 0.92756 0.927348 0.926924 0.926065 0.924332 0.920873 0.914079 0.901069 0.877109 0.835445 0.768476 0.67118 0.545999 0.406558 0.272444 0.161532 0.0836445 0.0381416 0.0158368 0.00623337 0.00239145 0.000906792 0.000341785 0.00012832 4.80143e-05 1.79049e-05 6.65235e-06 2.46162e-06 9.0684e-07 3.32443e-07 1.21226e-07 4.39525e-08 1.58374e-08 5.66949e-09 2.01488e-09 7.10944e-10 2.49134e-10 8.63722e-11 3.03802e-11 9.31428e-12 3.78053e-12 5.35053e-13 2.67154e-13 9.54261e-13 -1.97698e-13 8.28749e-14 -2.3061e-13 -3.49252e-13 2.48205e-13 2.15685e-13 4.5378e-13 -2.61496e-13 -4.31608e-13 -9.09011e-13 -1.34783e-13 2.27217e-12 -1.24925e-12 2.19665e-13 0
				</DataArray>
				<DataArray Name="VitesseY" type="Float32" format="ascii">