<?xml version="1.0"?>
<VTKFile type="PolyData">
	<PolyData>
		<Piece NumberOfPoints="1206" NumberOfPolys="1000">
			<Points>
				<DataArray type="Float32" NumberOfComponents="3" format="ascii">
 0 0 0 0.005 0 0 0.01 0 0 0.015 0 0 0.02 0 0 0.025 0 0 0.03 0 0 0.035 0 0 0.04 0 0 0.045 0 0 0.05 0 0 0.055 0 0 0.06 0 0 0.065 0 0 0.07 0 0 0.075 0 0 0.08 0 0 0.085 0 0 0.09 0 0 0.095 0 0 0.1 0 0 0.105 0 0 0.11 0 0 0.115 0 0 0.12 0 0 0.125 0 0 0.13 0 0 0.135 0 0 0.14 0 0 0.145 0 0 0.15 0 0 0.155 0 0 0.16 0 0 0.165 0 0 0.17 0 0 0.175 0 0 0.18 0 0 0.185 0 0 0.19 0 0 0.195 0 0 0.2 0 0 0.205 0 0 0.21 0 0 0.215 0 0 0.22 0 0 0.225 0 0 0.23 0 0 0.235 0 0 0.24 0 0 0.245 0 0 0.25 0 0 0.255 0 0 0.26 0 0 0.265 0 0 0.27 0 0 0.275 0 0 0.28 0 0 0.285 0 0 0.29 0 0 0.295 0 0 0.3 0 0 0.305 0 0 0.31 0 0 0.315 0 0 0.32 0 0 0.325 0 0 0.33 0 0 0.335 0 0 0.34 0 0 0.345 0 0 0.35 0 0 0.355 0 0 0.36 0 0 0.365 0 0 0.37 0 0 0.375 0 0 0.38 0 0 0.385 0 0 0.39 0 0 0.395 0 0 0.4 0 0 0.405 0 0 0.41 0 0 0.415 0 0 0.42 0 0 0.425 0 0 0.43 0 0 0.435 0 0 0.44 0 0 0.445 0 0 0.45 0 0 0.455 0 0 0.46 0 0 0.465 0 0 0.47 0 0 0.475 0 0 0.48 0 0 0.485 0 0 0.49 0 0 0.495 0 0 0.5 0 0 0.505 0 0 0.51 0 0 0.515 0 0 0.52 0 0 0.525 0 0 0.53 0 0 0.535 0 0 0.54 0 0 0.545 0 0 0.55 0 0 0.555 0 0 0.56 0 0 0.565 0 0 0.57 0 0 0.575 0 0 0.58 0 0 0.585 0 0 0.59 0 0 0.595 0 0 0.6 0 0 0.605 0 0 0.61 0 0 0.615 0 0 0.62 0 0 0.625 0 0 0.63 0 0 0.635 0 0 0.64 0 0 0.645 0 0 0.65 0 0 0.655 0 0 0.66 0 0 0.665 0 0 0.67 0 0 0.675 0 0 0.68 0 0 0.685 0 0 0.69 0 0 0.695 0 0 0.7 0 0 0.705 0 0 0.71 0 0 0.715 0 0 0.72 0 0 0.725 0 0 0.73 0 0 0.735 0 0 0.74 0 0 0.745 0 0 0.75 0 0 0.755 0 0 0.76 0 0 0.765 0 0 0.77 0 0 0.775 0 0 0.78 0 0 0.785 0 0 0.79 0 0 0.795 0 0 0.8 0 0 0.805 0 0 0.81 0 0 0.815 0 0 0.82 0 0 0.825 0 0 0.83 0 0 0.835 0 0 0.84 0 0 0.845 0 0 0.85 0 0 0.855 0 0 0.86 0 0 0.865 0 0 0.87 0 0 0.875 0 0 0.88 0 0 0.885 0 0 0.89 0 0 0.895 0 0 0.9 0 0 0.905 0 0 0.91 0 0 0.915 0 0 0.92 0 0 0.925 0 0 0.93 0 0 0.935 0 0 0.94 0 0 0.945 0 0 0.95 0 0 0.955 0 0 0.96 0 0 0.965 0 0 0.97 0 0 0.975 0 0 0.98 0 0 0.985 0 0 0.99 0 0 0.995 0 0 1 0 0 0 0.02 0 0.005 0.02 0 0.01 0.02 0 0.015 0.02 0 0.02 0.02 0 0.025 0.02 0 0.03 0.02 0 0.035 0.02 0 0.04 0.02 0 0.045 0.02 0 0.05 0.02 0 0.055 0.02 0 0.06 0.02 0 0.065 0.02 0 0.07 0.02 0 0.075 0.02 0 0.08 0.02 0 0.085 0.02 0 0.09 0.02 0 0.095 0.02 0 0.1 0.02 0 0.105 0.02 0 0.11 0.02 0 0.115 0.02 0 0.12 0.02 0 0.125 0.02 0 0.13 0.02 0 0.135 0.02 0 0.14 0.02 0 0.145 0.02 0 0.15 0.02 0 0.155 0.02 0 0.16 0.02 0 0.165 0.02 0 0.17 0.02 0 0.175 0.02 0 0.18 0.02 0 0.185 0.02 0 0.19 0.02 0 0.195 0.02 0 0.2 0.02 0 0.205 0.02 0 0.21 0.02 0 0.215 0.02 0 0.22 0.02 0 0.225 0.02 0 0.23 0.02 0 0.235 0.02 0 0.24 0.02 0 0.245 0.02 0 0.25 0.02 0 0.255 0.02 0 0.26 0.02 0 0.265 0.02 0 0.27 0.02 0 0.275 0.02 0 0.28 0.02 0 0.285 0.02 0 0.29 0.02 0 0.295 0.02 0 0.3 0.02 0 0.305 0.02 0 0.31 0.02 0 0.315 0.02 0 0.32 0.02 0 0.325 0.02 0 0.33 0.02 0 0.335 0.02 0 0.34 0.02 0 0.345 0.02 0 0.35 0.02 0 0.355 0.02 0 0.36 0.02 0 0.365 0.02 0 0.37 0.02 0 0.375 0.02 0 0.38 0.02 0 0.385 0.02 0 0.39 0.02 0 0.395 0.02 0 0.4 0.02 0 0.405 0.02 0 0.41 0.02 0 0.415 0.02 0 0.42 0.02 0 0.425 0.02 0 0.43 0.02 0 0.435 0.02 0 0.44 0.02 0 0.445 0.02 0 0.45 0.02 0 0.455 0.02 0 0.46 0.02 0 0.465 0.02 0 0.47 0.02 0 0.475 0.02 0 0.48 0.02 0 0.485 0.02 0 0.49 0.02 0 0.495 0.02 0 0.5 0.02 0 0.505 0.02 0 0.51 0.02 0 0.515 0.02 0 0.52 0.02 0 0.525 0.02 0 0.53 0.02 0 0.535 0.02 0 0.54 0.02 0 0.545 0.02 0 0.55 0.02 0 0.555 0.02 0 0.56 0.02 0 0.565 0.02 0 0.57 0.02 0 0.575 0.02 0 0.58 0.02 0 0.585 0.02 0 0.59 0.02 0 0.595 0.02 0 0.6 0.02 0 0.605 0.02 0 0.61 0.02 0 0.615 0.02 0 0.62 0.02 0 0.625 0.02 0 0.63 0.02 0 0.635 0.02 0 0.64 0.02 0 0.645 0.02 0 0.65 0.02 0 0.655 0.02 0 0.66 0.02 0 0.665 0.02 0 0.67 0.02 0 0.675 0.02 0 0.68 0.02 0 0.685 0.02 0 0.69 0.02 0 0.695 0.02 0 0.7 0.02 0 0.705 0.02 0 0.71 0.02 0 0.715 0.02 0 0.72 0.02 0 0.725 0.02 0 0.73 0.02 0 0.735 0.02 0 0.74 0.02 0 0.745 0.02 0 0.75 0.02 0 0.755 0.02 0 0.76 0.02 0 0.765 0.02 0 0.77 0.02 0 0.775 0.02 0 0.78 0.02 0 0.785 0.02 0 0.79 0.02 0 0.795 0.02 0 0.8 0.02 0 0.805 0.02 0 0.81 0.02 0 0.815 0.02 0 0.82 0.02 0 0.825 0.02 0 0.83 0.02 0 0.835 0.02 0 0.84 0.02 0 0.845 0.02 0 0.85 0.02 0 0.855 0.02 0 0.86 0.02 0 0.865 0.02 0 0.87 0.02 0 0.875 0.02 0 0.88 0.02 0 0.885 0.02 0 0.89 0.02 0 0.895 0.02 0 0.9 0.02 0 0.905 0.02 0 0.91 0.02 0 0.915 0.02 0 0.92 0.02 0 0.925 0.02 0 0.93 0.02 0 0.935 0.02 0 0.94 0.02 0 0.945 0.02 0 0.95 0.02 0 0.955 0.02 0 0.96 0.02 0 0.965 0.02 0 0.97 0.02 0 0.975 0.02 0 0.98 0.02 0 0.985 0.02 0 0.99 0.02 0 0.995 0.02 0 1 0.02 0 0 0.04 0 0.005 0.04 0 0.01 0.04 0 0.015 0.04 0 0.02 0.04 0 0.025 0.04 0 0.03 0.04 0 0.035 0.04 0 0.04 0.04 0 0.045 0.04 0 0.05 0.04 0 0.055 0.04 0 0.06 0.04 0 0.065 0.04 0 0.07 0.04 0 0.075 0.04 0 0.08 0.04 0 0.085 0.04 0 0.09 0.04 0 0.095 0.04 0 0.1 0.04 0 0.105 0.04 0 0.11 0.04 0 0.115 0.04 0 0.12 0.04 0 0.125 0.04 0 0.13 0.04 0 0.135 0.04 0 0.14 0.04 0 0.145 0.04 0 0.15 0.04 0 0.155 0.04 0 0.16 0.04 0 0.165 0.04 0 0.17 0.04 0 0.175 0.04 0 0.18 0.04 0 0.185 0.04 0 0.19 0.04 0 0.195 0.04 0 0.2 0.04 0 0.205 0.04 0 0.21 0.04 0 0.215 0.04 0 0.22 0.04 0 0.225 0.04 0 0.23 0.04 0 0.235 0.04 0 0.24 0.04 0 0.245 0.04 0 0.25 0.04 0 0.255 0.04 0 0.26 0.04 0 0.265 0.04 0 0.27 0.04 0 0.275 0.04 0 0.28 0.04 0 0.285 0.04 0 0.29 0.04 0 0.295 0.04 0 0.3 0.04 0 0.305 0.04 0 0.31 0.04 0 0.315 0.04 0 0.32 0.04 0 0.325 0.04 0 0.33 0.04 0 0.335 0.04 0 0.34 0.04 0 0.345 0.04 0 0.35 0.04 0 0.355 0.04 0 0.36 0.04 0 0.365 0.04 0 0.37 0.04 0 0.375 0.04 0 0.38 0.04 0 0.385 0.04 0 0.39 0.04 0 0.395 0.04 0 0.4 0.04 0 0.405 0.04 0 0.41 0.04 0 0.415 0.04 0 0.42 0.04 0 0.425 0.04 0 0.43 0.04 0 0.435 0.04 0 0.44 0.04 0 0.445 0.04 0 0.45 0.04 0 0.455 0.04 0 0.46 0.04 0 0.465 0.04 0 0.47 0.04 0 0.475 0.04 0 0.48 0.04 0 0.485 0.04 0 0.49 0.04 0 0.495 0.04 0 0.5 0.04 0 0.505 0.04 0 0.51 0.04 0 0.515 0.04 0 0.52 0.04 0 0.525 0.04 0 0.53 0.04 0 0.535 0.04 0 0.54 0.04 0 0.545 0.04 0 0.55 0.04 0 0.555 0.04 0 0.56 0.04 0 0.565 0.04 0 0.57 0.04 0 0.575 0.04 0 0.58 0.04 0 0.585 0.04 0 0.59 0.04 0 0.595 0.04 0 0.6 0.04 0 0.605 0.04 0 0.61 0.04 0 0.615 0.04 0 0.62 0.04 0 0.625 0.04 0 0.63 0.04 0 0.635 0.04 0 0.64 0.04 0 0.645 0.04 0 0.65 0.04 0 0.655 0.04 0 0.66 0.04 0 0.665 0.04 0 0.67 0.04 0 0.675 0.04 0 0.68 0.04 0 0.685 0.04 0 0.69 0.04 0 0.695 0.04 0 0.7 0.04 0 0.705 0.04 0 0.71 0.04 0 0.715 0.04 0 0.72 0.04 0 0.725 0.04 0 0.73 0.04 0 0.735 0.04 0 0.74 0.04 0 0.745 0.04 0 0.75 0.04 0 0.755 0.04 0 0.76 0.04 0 0.765 0.04 0 0.77 0.04 0 0.775 0.04 0 0.78 0.04 0 0.785 0.04 0 0.79 0.04 0 0.795 0.04 0 0.8 0.04 0 0.805 0.04 0 0.81 0.04 0 0.815 0.04 0 0.82 0.04 0 0.825 0.04 0 0.83 0.04 0 0.835 0.04 0 0.84 0.04 0 0.845 0.04 0 0.85 0.04 0 0.855 0.04 0 0.86 0.04 0 0.865 0.04 0 0.87 0.04 0 0.875 0.04 0 0.88 0.04 0 0.885 0.04 0 0.89 0.04 0 0.895 0.04 0 0.9 0.04 0 0.905 0.04 0 0.91 0.04 0 0.915 0.04 0 0.92 0.04 0 0.925 0.04 0 0.93 0.04 0 0.935 0.04 0 0.94 0.04 0 0.945 0.04 0 0.95 0.04 0 0.955 0.04 0 0.96 0.04 0 0.965 0.04 0 0.97 0.04 0 0.975 0.04 0 0.98 0.04 0 0.985 0.04 0 0.99 0.04 0 0.995 0.04 0 1 0.04 0 0 0.06 0 0.005 0.06 0 0.01 0.06 0 0.015 0.06 0 0.02 0.06 0 0.025 0.06 0 0.03 0.06 0 0.035 0.06 0 0.04 0.06 0 0.045 0.06 0 0.05 0.06 0 0.055 0.06 0 0.06 0.06 0 0.065 0.06 0 0.07 0.06 0 0.075 0.06 0 0.08 0.06 0 0.085 0.06 0 0.09 0.06 0 0.095 0.06 0 0.1 0.06 0 0.105 0.06 0 0.11 0.06 0 0.115 0.06 0 0.12 0.06 0 0.125 0.06 0 0.13 0.06 0 0.135 0.06 0 0.14 0.06 0 0.145 0.06 0 0.15 0.06 0 0.155 0.06 0 0.16 0.06 0 0.165 0.06 0 0.17 0.06 0 0.175 0.06 0 0.18 0.06 0 0.185 0.06 0 0.19 0.06 0 0.195 0.06 0 0.2 0.06 0 0.205 0.06 0 0.21 0.06 0 0.215 0.06 0 0.22 0.06 0 0.225 0.06 0 0.23 0.06 0 0.235 0.06 0 0.24 0.06 0 0.245 0.06 0 0.25 0.06 0 0.255 0.06 0 0.26 0.06 0 0.265 0.06 0 0.27 0.06 0 0.275 0.06 0 0.28 0.06 0 0.285 0.06 0 0.29 0.06 0 0.295 0.06 0 0.3 0.06 0 0.305 0.06 0 0.31 0.06 0 0.315 0.06 0 0.32 0.06 0 0.325 0.06 0 0.33 0.06 0 0.335 0.06 0 0.34 0.06 0 0.345 0.06 0 0.35 0.06 0 0.355 0.06 0 0.36 0.06 0 0.365 0.06 0 0.37 0.06 0 0.375 0.06 0 0.38 0.06 0 0.385 0.06 0 0.39 0.06 0 0.395 0.06 0 0.4 0.06 0 0.405 0.06 0 0.41 0.06 0 0.415 0.06 0 0.42 0.06 0 0.425 0.06 0 0.43 0.06 0 0.435 0.06 0 0.44 0.06 0 0.445 0.06 0 0.45 0.06 0 0.455 0.06 0 0.46 0.06 0 0.465 0.06 0 0.47 0.06 0 0.475 0.06 0 0.48 0.06 0 0.485 0.06 0 0.49 0.06 0 0.495 0.06 0 0.5 0.06 0 0.505 0.06 0 0.51 0.06 0 0.515 0.06 0 0.52 0.06 0 0.525 0.06 0 0.53 0.06 0 0.535 0.06 0 0.54 0.06 0 0.545 0.06 0 0.55 0.06 0 0.555 0.06 0 0.56 0.06 0 0.565 0.06 0 0.57 0.06 0 0.575 0.06 0 0.58 0.06 0 0.585 0.06 0 0.59 0.06 0 0.595 0.06 0 0.6 0.06 0 0.605 0.06 0 0.61 0.06 0 0.615 0.06 0 0.62 0.06 0 0.625 0.06 0 0.63 0.06 0 0.635 0.06 0 0.64 0.06 0 0.645 0.06 0 0.65 0.06 0 0.655 0.06 0 0.66 0.06 0 0.665 0.06 0 0.67 0.06 0 0.675 0.06 0 0.68 0.06 0 0.685 0.06 0 0.69 0.06 0 0.695 0.06 0 0.7 0.06 0 0.705 0.06 0 0.71 0.06 0 0.715 0.06 0 0.72 0.06 0 0.725 0.06 0 0.73 0.06 0 0.735 0.06 0 0.74 0.06 0 0.745 0.06 0 0.75 0.06 0 0.755 0.06 0 0.76 0.06 0 0.765 0.06 0 0.77 0.06 0 0.775 0.06 0 0.78 0.06 0 0.785 0.06 0 0.79 0.06 0 0.795 0.06 0 0.8 0.06 0 0.805 0.06 0 0.81 0.06 0 0.815 0.06 0 0.82 0.06 0 0.825 0.06 0 0.83 0.06 0 0.835 0.06 0 0.84 0.06 0 0.845 0.06 0 0.85 0.06 0 0.855 0.06 0 0.86 0.06 0 0.865 0.06 0 0.87 0.06 0 0.875 0.06 0 0.88 0.06 0 0.885 0.06 0 0.89 0.06 0 0.895 0.06 0 0.9 0.06 0 0.905 0.06 0 0.91 0.06 0 0.915 0.06 0 0.92 0.06 0 0.925 0.06 0 0.93 0.06 0 0.935 0.06 0 0.94 0.06 0 0.945 0.06 0 0.95 0.06 0 0.955 0.06 0 0.96 0.06 0 0.965 0.06 0 0.97 0.06 0 0.975 0.06 0 0.98 0.06 0 0.985 0.06 0 0.99 0.06 0 0.995 0.06 0 1 0.06 0 0 0.08 0 0.005 0.08 0 0.01 0.08 0 0.015 0.08 0 0.02 0.08 0 0.025 0.08 0 0.03 0.08 0 0.035 0.08 0 0.04 0.08 0 0.045 0.08 0 0.05 0.08 0 0.055 0.08 0 0.06 0.08 0 0.065 0.08 0 0.07 0.08 0 0.075 0.08 0 0.08 0.08 0 0.085 0.08 0 0.09 0.08 0 0.095 0.08 0 0.1 0.08 0 0.105 0.08 0 0.11 0.08 0 0.115 0.08 0 0.12 0.08 0 0.125 0.08 0 0.13 0.08 0 0.135 0.08 0 0.14 0.08 0 0.145 0.08 0 0.15 0.08 0 0.155 0.08 0 0.16 0.08 0 0.165 0.08 0
[...]
			<CellData Scalars="Density">
				<DataArray Name="Density" type="Float32" format="ascii">
 1 1 1 1 1 1 1 1 1 1 1 1 1 1 1 1 1 1 1 1 1 1 1 1 1 1 1 1 1 1 1 1 1 1 1 1 1 1 0.999999 0.999998 0.999994 0.999984 0.999959 0.999894 0.999737 0.999398 0.998738 0.997572 0.995683 0.992858 0.988913 0.983729 0.977266 0.969551 0.960675 0.950765 0.939967 0.928428 0.91629 0.903678 0.890704 0.877464 0.864034 0.850483 0.836865 0.823227 0.809604 0.796029 0.782527 0.769119 0.755824 0.742655 0.729626 0.716748 0.70403 0.69148 0.679105 0.666913 0.65491 0.643101 0.631492 0.620089 0.608898 0.597926 0.587179 0.576664 0.56639 0.556365 0.546599 0.537102 0.527888 0.518968 0.510358 0.502073 0.494131 0.48655 0.479348 0.472545 0.466161 0.460213 0.454718 0.44969 0.445136 0.441061 0.437461 0.434325 0.431635 0.429365 0.427479 0.425939 0.4247 0.423717 0.422943 0.422333 0.421844 0.421437 0.421076 0.420727 0.420357 0.419934 0.419429 0.418815 0.418062 0.417153 0.41608 0.41485 0.413491 0.412048 0.410589 0.409192 0.407946 0.406933 0.406223 0.385409 0.31372 0.263963 0.26257 0.26298 0.263463 0.263983 0.264508 0.265011 0.265472 0.265879 0.266227 0.266516 0.26675 0.266936 0.26708 0.267193 0.267276 0.267342 0.267386 0.267422 0.267421 0.267413 0.267282 0.267104 0.266473 0.265539 0.263024 0.258848 0.249493 0.234132 0.206679 0.172579 0.138053 0.127293 0.125361 0.125055 0.125008 0.125001 0.125 0.125 0.125 0.125 0.125 0.125 0.125 0.125 0.125 0.125 0.125 0.125 0.125 0.125 0.125 0.125 0.125 0.125 0.125 0.125 0.125 0.125 0.125 0.125 0.125 0.125 0.125 0.125 1 1 1 1 1 1 1 1 1 1 1 1 1 1 1 1 1 1 1 1 1 1 1 1 1 1 1 1 1 1 1 1 1 1 1 1 1 1 0.999999 0.999998 0.999994 0.999984 0.999959 0.999894 0.999737 0.999398 0.998738 0.997572 0.995683 0.992858 0.988913 0.983729 0.977266 0.969551 0.960675 0.950765 0.939967 0.928428 0.91629 0.903678 0.890704 0.877464 0.864034 0.850483 0.836865 0.823227 0.809604 0.796029 0.782527 0.769119 0.755824 0.742655 0.729626 0.716748 0.70403 0.69148 0.679105 0.666913 0.65491 0.643101 0.631492 0.620089 0.608898 0.597926 0.587179 0.576664 0.56639 0.556365 0.546599 0.537102 0.527888 0.518968 0.510358 0.502073 0.494131 0.48655 0.479348 0.472545 0.466161 0.460213 0.454718 0.44969 0.445136 0.441061 0.437461 0.434325 0.431635 0.429365 0.427479 0.425939 0.4247 0.423717 0.422943 0.422333 0.421844 0.421437 0.421076 0.420727 0.420357 0.419934 0.419429 0.418815 0.418062 0.417153 0.41608 0.41485 0.413491 0.412048 0.410589 0.409192 0.407946 0.406933 0.406223 0.385409 0.31372 0.263963 0.26257 0.26298 0.263463 0.263983 0.264508 0.265011 0.265472 0.265879 0.266227 0.266516 0.26675 0.266936 0.26708 0.267193 0.267276 0.267342 0.267386 0.267422 0.267421 0.267413 0.267282 0.267104 0.266473 0.265539 0.263024 0.258848 0.249493 0.234132 0.206679 0.172579 0.138053 0.127293 0.125361 0.125055 0.125008 0.125001 0.125 0.125 0.125 0.125 0.125 0.125 0.125 0.125 0.125 0.125 0.125 0.125 0.125 0.125 0.125 0.125 0.125 0.125 0.125 0.125 0.125 0.125 0.125 0.125 0.125 0.125 0.125 0.125 1 1 1 1 1 1 1 1 1 1 1 1 1 1 1 1 1 1 1 1 1 1 1 1 1 1 1 1 1 1 1 1 1 1 1 1 1 1 0.999999 0.999998 0.999994 0.999984 0.999959 0.999894 0.999737 0.999398 0.998738 0.997572 0.995683 0.992858 0.988913 0.983729 0.977266 0.969551 0.960675 0.950765 0.939967 0.928428 0.91629 0.903678 0.890704 0.877464 0.864034 0.850483 0.836865 0.823227 0.809604 0.796029 0.782527 0.769119 0.755824 0.742655 0.729626 0.716748 0.70403 0.69148 0.679105 0.666913 0.65491 0.643101 0.631492 0.620089 0.608898 0.597926 0.587179 0.576664 0.56639 0.556365 0.546599 0.537102 0.527888 0.518968 0.510358 0.502073 0.494131 0.48655 0.479348 0.472545 0.466161 0.460213 0.454718 0.44969 0.445136 0.441061 0.437461 0.434325 0.431635 0.429365 0.427479 0.425939 0.4247 0.423717 0.422943 0.422333 0.421844 0.421437 0.421076 0.420727 0.420357 0.419934 0.419429 0.418815 0.418062 0.417153 0.41608 0.41485 0.413491 0.412048 0.410589 0.409192 0.407946 0.406933 0.406223 0.385409 0.31372 0.263963 0.26257 0.26298 0.263463 0.263983 0.264508 0.265011 0.265472 0.265879 0.266227 0.266516 0.26675 0.266936 0.26708 0.267193 0.267276 0.267342 0.267386 0.267422 0.267421 0.267413 0.267282 0.267104 0.266473 0.265539 0.263024 0.258848 0.249493 0.234132 0.206679 0.172579 0.138053 0.127293 0.125361 0.125055 0.125008 0.125001 0.125 0.125 0.125 0.125 0.125 0.125 0.125 0.125 0.125 0.125 0.125 0.125 0.125 0.125 0.125 0.125 0.125 0.125 0.125 0.125 0.125 0.125 0.125 0.125 0.125 0.125 0.125 0.125 1 1 1 1 1 1 1 1 1 1 1 1 1 1 1 1 1 1 1 1 1 1 1 1 1 1 1 1 1 1 1 1 1 1 1 1 1 1 0.999999 0.999998 0.999994 0.999984 0.999959 0.999894 0.999737 0.999398 0.998738 0.997572 0.995683 0.992858 0.988913 0.983729 0.977266 0.969551 0.960675 0.950765 0.939967 0.928428 0.91629 0.903678 0.890704 0.877464 0.864034 0.850483 0.836865 0.823227 0.809604 0.796029 0.782527 0.769119 0.755824 0.742655 0.729626 0.716748 0.70403 0.69148 0.679105 0.666913 0.65491 0.643101 0.631492 0.620089 0.608898 0.597926 0.587179 0.576664 0.56639 0.556365 0.546599 0.537102 0.527888 0.518968 0.510358 0.502073 0.494131 0.48655 0.479348 0.472545 0.466161 0.460213 0.454718 0.44969 0.445136 0.441061 0.437461 0.434325 0.431635 0.429365 0.427479 0.425939 0.4247 0.423717 0.422943 0.422333 0.421844 0.421437 0.421076 0.420727 0.420357 0.419934 0.419429 0.418815 0.418062 0.417153 0.41608 0.41485 0.413491 0.412048 0.410589 0.409192 0.407946 0.406933 0.406223 0.385409 0.31372 0.263963 0.26257 0.26298 0.263463 0.263983 0.264508 0.265011 0.265472 0.265879 0.266227 0.266516 0.26675 0.266936 0.26708 0.267193 0.267276 0.267342 0.267386 0.267422 0.267421 0.267413 0.267282 0.267104 0.266473 0.265539 0.263024 0.258848 0.249493 0.234132 0.206679 0.172579 0.138053 0.127293 0.125361 0.125055 0.125008 0.125001 0.125 0.125 0.125 0.125 0.125 0.125 0.125 0.125 0.125 0.125 0.125 0.125 0.125 0.125 0.125 0.125 0.125 0.125 0.125 0.125 0.125 0.125 0.125 0.125 0.125 0.125 0.125 0.125 1 1 1 1 1 1 1 1 1 1 1 1 1 1 1 1 1 1 1 1 1 1 1 1 1 1 1 1 1 1 1 1 1 1 1 1 1 1 0.999999 0.999998 0.999994 0.999984 0.999959 0.999894 0.999737 0.999398 0.998738 0.997572 0.995683 0.992858 0.988913 0.983729 0.977266 0.969551 0.960675 0.950765 0.939967 0.928428 0.91629 0.903678 0.890704 0.877464 0.864034 0.850483 0.836865 0.823227 0.809604 0.796029 0.782527 0.769119 0.755824 0.742655 0.729626 0.716748 0.70403 0.69148 0.679105 0.666913 0.65491 0.643101 0.631492 0.620089 0.608898 0.597926 0.587179 0.576664 0.56639 0.556365 0.546599 0.537102 0.527888 0.518968 0.510358 0.502073 0.494131 0.48655 0.479348 0.472545 0.466161 0.460213 0.454718 0.44969 0.445136 0.441061 0.437461 0.434325 0.431635 0.429365 0.427479 0.425939 0.4247 0.423717 0.422943 0.422333 0.421844 0.421437 0.421076 0.420727 0.420357 0.419934 0.419429 0.418815 0.418062 0.417153 0.41608 0.41485 0.413491 0.412048 0.410589 0.409192 0.407946 0.406933 0.406223 0.385409 0.31372 0.263963 0.26257 0.26298 0.263463 0.263983 0.264508 0.265011 0.265472 0.265879 0.266227 0.266516 0.26675 0.266936 0.26708 0.267193 0.267276 0.267342 0.267386 0.267422 0.267421 0.267413 0.267282 0.267104 0.266473 0.265539 0.263024 0.258848 0.249493 0.234132 0.206679 0.172579 0.138053 0.127293 0.125361 0.125055 0.125008 0.125001 0.125 0.125 0.125 0.125 0.125 0.125 0.125 0.125 0.125 0.125 0.125 0.125 0.125 0.125 0.125 0.125 0.125 0.125 0.125 0.125 0.125 0.125 0.125 0.125 0.125 0.125 0.125 0.125
				</DataArray>
				<DataArray Name="Energy" type="Float32" format="ascii">
 2.5 2.5 2.5 2.5 2.5 2.5 2.5 2.5 2.5 2.5 2.5 2.5 2.5 2.5 2.5 2.5 2.5 2.5 2.5 2.5 2.5 2.5 2.5 2.5 2.5 2.5 2.5 2.5 2.5 2.5 2.5 2.5 2.5 2.5 2.5 2.5 2.5 2.5 2.5 2.5 2.49999 2.49998 2.49996 2.49989 2.49974 2.4994 2.49874 2.49757 2.49568 2.49285 2.48889 2.48368 2.47716 2.46936 2.46034 2.45022 2.43913 2.4272 2.41457 2.40134 2.38763 2.37352 2.35909 2.3444 2.3295 2.31444 2.29926 2.28398 2.26865 2.25326 2.23786 2.22245 2.20705 2.19168 2.17634 2.16105 2.14582 2.13066 2.11559 2.1006 2.08571 2.07094 2.0563 2.04179 2.02744 2.01325 1.99925 1.98545 1.97188 1.95855 1.9455 1.93274 1.92031 1.90825 1.89658 1.88536 1.87462 1.8644 1.85476 1.84573 1.83735 1.82967 1.82271 1.8165 1.81104 1.80634 1.80238 1.79912 1.79653 1.79456 1.79313 1.79218 1.79166 1.7915 1.79167 1.79212 1.79284 1.79385 1.79518 1.79687 1.79902 1.8017 1.80501 1.80902 1.81376 1.8192 1.82524 1.83168 1.83823 1.84454 1.85019 1.85481 1.85806 1.95842 2.40594 2.85945 2.87461 2.87011 2.86482 2.85915 2.85344 2.84798 2.84299 2.83859 2.83483 2.8317 2.82915 2.82713 2.82553 2.8243 2.82334 2.82261 2.82202 2.82156 2.82109 2.82068 2.81982 2.81882 2.81594 2.8118 2.80089 2.78262 2.74065 2.66774 2.52448 2.32032 2.08976 2.01493 2.00232 2.00035 2.00005 2.00001 2 2 2 2 2 2 2 2 2 2 2 2 2 2 2 2 2 2 2 2 2 2 2 2 2 2 2 2 2.5 2.5 2.5 2.5 2.5 2.5 2.5 2.5 2.5 2.5 2.5 2.5 2.5 2.5 2.5 2.5 2.5 2.5 2.5 2.5 2.5 2.5 2.5 2.5 2.5 2.5 2.5 2.5 2.5 2.5 2.5 2.5 2.5 2.5 2.5 2.5 2.5 2.5 2.5 2.5 2.49999 2.49998 2.49996 2.49989 2.49974 2.4994 2.49874 2.49757 2.49568 2.49285 2.48889 2.48368 2.47716 2.46936 2.46034 2.45022 2.43913 2.4272 2.41457 2.40134 2.38763 2.37352 2.35909 2.3444 2.3295 2.31444 2.29926 2.28398 2.26865 2.25326 2.23786 2.22245 2.20705 2.19168 2.17634 2.16105 2.14582 2.13066 2.11559 2.1006 2.08571 2.07094 2.0563 2.04179 2.02744 2.01325 1.99925 1.98545 1.97188 1.95855 1.9455 1.93274 1.92031 1.90825 1.89658 1.88536 1.87462 1.8644 1.85476 1.84573 1.83735 1.82967 1.82271 1.8165 1.81104 1.80634 1.80238 1.79912 1.79653 1.79456 1.79313 1.79218 1.79166 1.7915 1.79167 1.79212 1.79284 1.79385 1.79518 1.79687 1.79902 1.8017 1.80501 1.80902 1.81376 1.8192 1.82524 1.83168 1.83823 1.84454 1.85019 1.85481 1.85806 1.95842 2.40594 2.85945 2.87461 2.87011 2.86482 2.85915 2.85344 2.84798 2.84299 2.83859 2.83483 2.8317 2.82915 2.82713 2.82553 2.8243 2.82334 2.82261 2.82202 2.82156 2.82109 2.82068 2.81982 2.81882 2.81594 2.8118 2.80089 2.78262 2.74065 2.66774 2.52448 2.32032 2.08976 2.01493 2.00232 2.00035 2.00005 2.00001 2 2 2 2 2 2 2 2 2 2 2 2 2 2 2 2 2 2 2 2 2 2 2 2 2 2 2 2 2.5 2.5 2.5 2.5 2.5 2.5 2.5 2.5 2.5 2.5 2.5 2.5 2.5 2.5 2.5 2.5 2.5 2.5 2.5 2.5 2.5 2.5 2.5 2.5 2.5 2.5 2.5 2.5 2.5 2.5 2.5 2.5 2.5 2.5 2.5 2.5 2.5 2.5 2.5 2.5 2.49999 2.49998 2.49996 2.49989 2.49974 2.4994 2.49874 2.49757 2.49568 2.49285 2.48889 2.48368 2.47716 2.46936 2.46034 2.45022 2.43913 2.4272 2.41457 2.40134 2.38763 2.37352 2.35909 2.3444 2.3295 2.31444 2.29926 2.28398 2.26865 2.25326 2.23786 2.22245 2.20705 2.19168 2.17634 2.16105 2.14582 2.13066 2.11559 2.1006 2.08571 2.07094 2.0563 2.04179 2.02744 2.01325 1.99925 1.98545 1.97188 1.95855 1.9455 1.93274 1.92031 1.90825 1.89658 1.88536 1.87462 1.8644 1.85476 1.84573 1.83735 1.82967 1.82271 1.8165 1.81104 1.80634 1.80238 1.79912 1.79653 1.79456 1.79313 1.79218 1.79166 1.7915 1.79167 1.79212 1.79284 1.79385 1.79518 1.79687 1.79902 1.8017 1.80501 1.80902 1.81376 1.8192 1.82524 1.83168 1.83823 1.84454 1.85019 1.85481 1.85806 1.95842 2.40594 2.85945 2.87461 2.87011 2.86482 2.85915 2.85344 2.84798 2.84299 2.83859 2.83483 2.8317 2.82915 2.82713 2.82553 2.8243 2.82334 2.82261 2.82202 2.82156 2.82109 2.82068 2.81982 2.81882 2.81594 2.8118 2.80089 2.78262 2.74065 2.66774 2.52448 2.32032 2.08976 2.01493 2.00232 2.00035 2.00005 2.00001 2 2 2 2 2 2 2 2 2 2 2 2 2 2 2 2 2 2 2 2 2 2 2 2 2 2 2 2 2.5 2.5 2.5 2.5 2.5 2.5 2.5 2.5 2.5 2.5 2.5 2.5 2.5 2.5 2.5 2.5 2.5 2.5 2.5 2.5 2.5 2.5 2.5 2.5 2.5 2.5 2.5 2.5 2.5 2.5 2.5 2.5 2.5 2.5 2.5 2.5 2.5 2.5 2.5 2.5 2.49999 2.49998 2.49996 2.49989 2.49974 2.4994 2.49874 2.49757 2.49568 2.49285 2.48889 2.48368 2.47716 2.46936 2.46034 2.45022 2.43913 2.4272 2.41457 2.40134 2.38763 2.37352 2.35909 2.3444 2.3295 2.31444 2.29926 2.28398 2.26865 2.25326 2.23786 2.22245 2.20705 2.19168 2.17634 2.16105 2.14582 2.13066 2.11559 2.1006 2.08571 2.07094 2.0563 2.04179 2.02744 2.01325 1.99925 1.98545 1.97188 1.95855 1.9455 1.93274 1.92031 1.90825 1.89658 1.88536 1.87462 1.8644 1.85476 1.84573 1.83735 1.82967 1.82271 1.8165 1.81104 1.80634 1.80238 1.79912 1.79653 1.79456 1.79313 1.79218 1.79166 1.7915 1.79167 1.79212 1.79284 1.79385 1.79518 1.79687 1.79902 1.8017 1.80501 1.80902 1.81376 1.8192 1.82524 1.83168 1.83823 1.84454 1.85019 1.85481 1.85806 1.95842 2.40594 2.85945 2.87461 2.87011 2.86482 2.85915 2.85344 2.84798 2.84299 2.83859 2.83483 2.8317 2.82915 2.82713 2.82553 2.8243 2.82334 2.82261 2.82202 2.82156 2.82109 2.82068 2.81982 2.81882 2.81594 2.8118 2.80089 2.78262 2.74065 2.66774 2.52448 2.32032 2.08976 2.01493 2.00232 2.00035 2.00005 2.00001 2 2 2 2 2 2 2 2 2 2 2 2 2 2 2 2 2 2 2 2 2 2 2 2 2 2 2 2 2.5 2.5 2.5 2.5 2.5 2.5 2.5 2.5 2.5 2.5 2.5 2.5 2.5 2.5 2.5 2.5 2.5 2.5 2.5 2.5 2.5 2.5 2.5 2.5 2.5 2.5 2.5 2.5 2.5 2.5 2.5 2.5 2.5 2.5 2.5 2.5 2.5 2.5 2.5 2.5 2.49999 2.49998 2.49996 2.49989 2.49974 2.4994 2.49874 2.49757 2.49568 2.49285 2.48889 2.48368 2.47716 2.46936 2.46034 2.45022 2.43913 2.4272 2.41457 2.40134 2.38763 2.37352 2.35909 2.3444 2.3295 2.31444 2.29926 2.28398 2.26865 2.25326 2.23786 2.22245 2.20705 2.19168 2.17634 2.16105 2.14582 2.13066 2.11559 2.1006 2.08571 2.07094 2.0563 2.04179 2.02744 2.01325 1.99925 1.98545 1.97188 1.95855 1.9455 1.93274 1.92031 1.90825 1.89658 1.88536 1.87462 1.8644 1.85476 1.84573 1.83735 1.82967 1.82271 1.8165 1.81104 1.80634 1.80238 1.79912 1.79653 1.79456 1.79313 1.79218 1.79166 1.7915 1.79167 1.79212 1.79284 1.79385 1.79518 1.79687 1.79902 1.8017 1.80501 1.80902 1.81376 1.8192 1.82524 1.83168 1.83823 1.84454 1.85019 1.85481 1.85806 1.95842 2.40594 2.85945 2.87461 2.87011 2.86482 2.85915 2.85344 2.84798 2.84299 2.83859 2.83483 2.8317 2.82915 2.82713 2.82553 2.8243 2.82334 2.82261 2.82202 2.82156 2.82109 2.82068 2.81982 2.81882 2.81594 2.8118 2.80089 2.78262 2.74065 2.66774 2.52448 2.32032 2.08976 2.01493 2.00232 2.00035 2.00005 2.00001 2 2 2 2 2 2 2 2 2 2 2 2 2 2 2 2 2 2 2 2 2 2 2 2 2 2 2 2
				</DataArray>
				<DataArray Name="F1" type="Float32" format="ascii">
 1 1 1 1 1 1 1 1 1 1 1 1 1 1 1 1 1 1 1 1 1 1 1 1 1 1 1 1 1 1 1 1 1 1 1 1 1 1 1 1 1 1 1 1 1 1 1 1 1 1 1 1 1 1 1 1 1 1 1 1 1 1 1 1 1 1 1 1 1 1 1 1 1 1 1 1 1 1 1 1 1 1 1 1 1 1 1 1 1 1 1 1 1 1 1 1 1 1 1 1 1 1 1 1 1 1 1 1 1 1 1 1 1 1 1 1 1 1 1 1 1 1 1 1 1 1 1 1 1 1 1 1 1 0.857895 0.359572 0.0118255 1.23362e-15 0 0 0 0 0 0 0 0 0 0 0 0 0 0 0 0 0 0 0 0 0 0 0 0 0 0 0 0 0 0 0 0 0 0 0 0 0 0 0 0 0 0 0 0 0 0 0 0 0 0 0 0 0 0 0 0 0 0 0 0 0 0 0 1 1 1 1 1 1 1 1 1 1 1 1 1 1 1 1 1 1 1 1 1 1 1 1 1 1 1 1 1 1 1 1 1 1 1 1 1 1 1 1 1 1 1 1 1 1 1 1 1 1 1 1 1 1 1 1 1 1 1 1 1 1 1 1 1 1 1 1 1 1 1 1 1 1 1 1 1 1 1 1 1 1 1 1 1 1 1 1 1 1 1 1 1 1 1 1 1 1 1 1 1 1 1 1 1 1 1 1 1 1 1 1 1 1 1 1 1 1 1 1 1 1 1 1 1 1 1 1 1 1 1 1 1 0.857895 0.359572 0.0118255 1.23435e-15 0 0 0 0 0 0 0 0 0 0 0 0 0 0 0 0 0 0 0 0 0 0 0 0 0 0 0 0 0 0 0 0 0 0 0 0 0 0 0 0 0 0 0 0 0 0 0 0 0 0 0 0 0 0 0 0 0 0 0 0 0 0 0 1 1 1 1 1 1 1 1 1 1 1 1 1 1 1 1 1 1 1 1 1 1 1 1 1 1 1 1 1 1 1 1 1 1 1 1 1 1 1 1 1 1 1 1 1 1 1 1 1 1 1 1 1 1 1 1 1 1 1 1 1 1 1 1 1 1 1 1 1 1 1 1 1 1 1 1 1 1 1 1 1 1 1 1 1 1 1 1 1 1 1 1 1 1 1 1 1 1 1 1 1 1 1 1 1 1 1 1 1 1 1 1 1 1 1 1 1 1 1 1 1 1 1 1 1 1 1 1 1 1 1 1 1 0.857895 0.359572 0.0118255 1.23727e-15 0 0 0 0 0 0 0 0 0 0 0 0 0 0 0 0 0 0 0 0 0 0 0 0 0 0 0 0 0 0 0 0 0 0 0 0 0 0 0 0 0 0 0 0 0 0 0 0 0 0 0 0 0 0 0 0 0 0 0 0 0 0 0 1 1 1 1 1 1 1 1 1 1 1 1 1 1 1 1 1 1 1 1 1 1 1 1 1 1 1 1 1 1 1 1 1 1 1 1 1 1 1 1 1 1 1 1 1 1 1 1 1 1 1 1 1 1 1 1 1 1 1 1 1 1 1 1 1 1 1 1 1 1 1 1 1 1 1 1 1 1 1 1 1 1 1 1 1 1 1 1 1 1 1 1 1 1 1 1 1 1 1 1 1 1 1 1 1 1 1 1 1 1 1 1 1 1 1 1 1 1 1 1 1 1 1 1 1 1 1 1 1 1 1 1 1 0.857895 0.359572 0.0118255 1.24176e-15 0 0 0 0 0 0 0 0 0 0 0 0 0 0 0 0 0 0 0 0 0 0 0 0 0 0 0 0 0 0 0 0 0 0 0 0 0 0 0 0 0 0 0 0 0 0 0 0 0 0 0 0 0 0 0 0 0 0 0 0 0 0 0 1 1 1 1 1 1 1 1 1 1 1 1 1 1 1 1 1 1 1 1 1 1 1 1 1 1 1 1 1 1 1 1 1 1 1 1 1 1 1 1 1 1 1 1 1 1 1 1 1 1 1 1 1 1 1 1 1 1 1 1 1 1 1 1 1 1 1 1 1 1 1 1 1 1 1 1 1 1 1 1 1 1 1 1 1 1 1 1 1 1 1 1 1 1 1 1 1 1 1 1 1 1 1 1 1 1 1 1 1 1 1 1 1 1 1 1 1 1 1 1 1 1 1 1 1 1 1 1 1 1 1 1 1 0.857895 0.359572 0.0118255 1.24672e-15 0 0 0 0 0 0 0 0 0 0 0 0 0 0 0 0 0 0 0 0 0 0 0 0 0 0 0 0 0 0 0 0 0 0 0 0 0 0 0 0 0 0 0 0 0 0 0 0 0 0 0 0 0 0 0 0 0 0 0 0 0 0 0
				</DataArray>
				<DataArray Name="F2" type="Float32" format="ascii">
 0 0 0 0 0 0 0 0 0 0 0 0 0 0 0 0 0 0 0 0 0 0 0 0 0 0 0 0 0 0 0 0 0 0 0 0 0 0 0 0 0 0 0 0 0 0 0 0 0 0 0 0 0 0 0 0 0 0 0 0 0 0 0 0 0 0 0 0 0 0 0 0 0 0 0 0 0 0 0 0 0 0 0 0 0 0 0 0 0 0 0 0 0 0 0 0 0 0 0 0 0 0 0 0 0 0 0 0 0 0 0 0 0 0 0 0 0 0 0 0 0 0 0 0 0 0 0 0 0 0 0 0 0 0.142105 0.640428 0.988174 1 1 1 1 1 1 1 1 1 1 1 1 1 1 1 1 1 1 1 1 1 1 1 1 1 1 1 1 1 1 1 1 1 1 1 1 1 1 1 1 1 1 1 1 1 1 1 1 1 1 1 1 1 1 1 1 1 1 1 1 1 1 1 1 0 0 0 0 0 0 0 0 0 0 0 0 0 0 0 0 0 0 0 0 0 0 0 0 0 0 0 0 0 0 0 0 0 0 0 0 0 0 0 0 0 0 0 0 0 0 0 0 0 0 0 0 0 0 0 0 0 0 0 0 0 0 0 0 0 0 0 0 0 0 0 0 0 0 0 0 0 0 0 0 0 0 0 0 0 0 0 0 0 0 0 0 0 0 0 0 0 0 0 0 0 0 0 0 0 0 0 0 0 0 0 0 0 0 0 0 0 0 0 0 0 0 0 0 0 0 0 0 0 0 0 0 0 0.142105 0.640428 0.988174 1 1 1 1 1 1 1 1 1 1 1 1 1 1 1 1 1 1 1 1 1 1 1 1 1 1 1 1 1 1 1 1 1 1 1 1 1 1 1 1 1 1 1 1 1 1 1 1 1 1 1 1 1 1 1 1 1 1 1 1 1 1 1 1 0 0 0 0 0 0 0 0 0 0 0 0 0 0 0 0 0 0 0 0 0 0 0 0 0 0 0 0 0 0 0 0 0 0 0 0 0 0 0 0 0 0 0 0 0 0 0 0 0 0 0 0 0 0 0 0 0 0 0 0 0 0 0 0 0 0 0 0 0 0 0 0 0 0 0 0 0 0 0 0 0 0 0 0 0 0 0 0 0 0 0 0 0 0 0 0 0 0 0 0 0 0 0 0 0 0 0 0 0 0 0 0 0 0 0 0 0 0 0 0 0 0 0 0 0 0 0 0 0 0 0 0 0 0.142105 0.640428 0.988174 1 1 1 1 1 1 1 1 1 1 1 1 1 1 1 1 1 1 1 1 1 1 1 1 1 1 1 1 1 1 1 1 1 1 1 1 1 1 1 1 1 1 1 1 1 1 1 1 1 1 1 1 1 1 1 1 1 1 1 1 1 1 1 1 0 0 0 0 0 0 0 0 0 0 0 0 0 0 0 0 0 0 0 0 0 0 0 0 0 0 0 0 0 0 0 0 0 0 0 0 0 0 0 0 0 0 0 0 0 0 0 0 0 0 0 0 0 0 0 0 0 0 0 0 0 0 0 0 0 0 0 0 0 0 0 0 0 0 0 0 0 0 0 0 0 0 0 0 0 0 0 0 0 0 0 0 0 0 0 0 0 0 0 0 0 0 0 0 0 0 0 0 0 0 0 0 0 0 0 0 0 0 0 0 0 0 0 0 0 0 0 0 0 0 0 0 0 0.142105 0.640428 0.988174 1 1 1 1 1 1 1 1 1 1 1 1 1 1 1 1 1 1 1 1 1 1 1 1 1 1 1 1 1 1 1 1 1 1 1 1 1 1 1 1 1 1 1 1 1 1 1 1 1 1 1 1 1 1 1 1 1 1 1 1 1 1 1 1 0 0 0 0 0 0 0 0 0 0 0 0 0 0 0 0 0 0 0 0 0 0 0 0 0 0 0 0 0 0 0 0 0 0 0 0 0 0 0 0 0 0 0 0 0 0 0 0 0 0 0 0 0 0 0 0 0 0 0 0 0 0 0 0 0 0 0 0 0 0 0 0 0 0 0 0 0 0 0 0 0 0 0 0 0 0 0 0 0 0 0 0 0 0 0 0 0 0 0 0 0 0 0 0 0 0 0 0 0 0 0 0 0 0 0 0 0 0 0 0 0 0 0 0 0 0 0 0 0 0 0 0 0 0.142105 0.640428 0.988174 1 1 1 1 1 1 1 1 1 1 1 1 1 1 1 1 1 1 1 1 1 1 1 1 1 1 1 1 1 1 1 1 1 1 1 1 1 1 1 1 1 1 1 1 1 1 1 1 1 1 1 1 1 1 1 1 1 1 1 1 1 1 1 1
				</DataArray>
				<DataArray Name="F3" type="Float32" format="ascii">