<?xml version="1.0"?>
<VTKFile type="PolyData">
	<PolyData>
		<Piece NumberOfPoints="1206" NumberOfPolys="1000">
			<Points>
				<DataArray type="Float32" NumberOfComponents="3" format="ascii">
 0 0 0 0.02 0 0 0.04 0 0 0.06 0 0 0.08 0 0 0.1 0 0 0 0.005 0 0.02 0.005 0 0.04 0.005 0 0.06 0.005 0 0.08 0.005 0 0.1 0.005 0 0 0.01 0 0.02 0.01 0 0.04 0.01 0 0.06 0.01 0 0.08 0.01 0 0.1 0.01 0 0 0.015 0 0.02 0.015 0 0.04 0.015 0 0.06 0.015 0 0.08 0.015 0 0.1 0.015 0 0 0.02 0 0.02 0.02 0 0.04 0.02 0 0.06 0.02 0 0.08 0.02 0 0.1 0.02 0 0 0.025 0 0.02 0.025 0 0.04 0.025 0 0.06 0.025 0 0.08 0.025 0 0.1 0.025 0 0 0.03 0 0.02 0.03 0 0.04 0.03 0 0.06 0.03 0 0.08 0.03 0 0.1 0.03 0 0 0.035 0 0.02 0.035 0 0.04 0.035 0 0.06 0.035 0 0.08 0.035 0 0.1 0.035 0 0 0.04 0 0.02 0.04 0 0.04 0.04 0 0.06 0.04 0 0.08 0.04 0 0.1 0.04 0 0 0.045 0 0.02 0.045 0 0.04 0.045 0 0.06 0.045 0 0.08 0.045 0 0.1 0.045 0 0 0.05 0 0.02 0.05 0 0.04 0.05 0 0.06 0.05 0 0.08 0.05 0 0.1 0.05 0 0 0.055 0 0.02 0.055 0 0.04 0.055 0 0.06 0.055 0 0.08 0.055 0 0.1 0.055 0 0 0.06 0 0.02 0.06 0 0.04 0.06 0 0.06 0.06 0 0.08 0.06 0 0.1 0.06 0 0 0.065 0 0.02 0.065 0 0.04 0.065 0 0.06 0.065 0 0.08 0.065 0 0.1 0.065 0 0 0.07 0 0.02 0.07 0 0.04 0.07 0 0.06 0.07 0 0.08 0.07 0 0.1 0.07 0 0 0.075 0 0.02 0.075 0 0.04 0.075 0 0.06 0.075 0 0.08 0.075 0 0.1 0.075 0 0 0.08 0 0.02 0.08 0 0.04 0.08 0 0.06 0.08 0 0.08 0.08 0 0.1 0.08 0 0 0.085 0 0.02 0.085 0 0.04 0.085 0 0.06 0.085 0 0.08 0.085 0 0.1 0.085 0 0 0.09 0 0.02 0.09 0 0.04 0.09 0 0.06 0.09 0 0.08 0.09 0 0.1 0.09 0 0 0.095 0 0.02 0.095 0 0.04 0.095 0 0.06 0.095 0 0.08 0.095 0 0.1 0.095 0 0 0.1 0 0.02 0.1 0 0.04 0.1 0 0.06 0.1 0 0.08 0.1 0 0.1 0.1 0 0 0.105 0 0.02 0.105 0 0.04 0.105 0 0.06 0.105 0 0.08 0.105 0 0.1 0.105 0 0 0.11 0 0.02 0.11 0 0.04 0.11 0 0.06 0.11 0 0.08 0.11 0 0.1 0.11 0 0 0.115 0 0.02 0.115 0 0.04 0.115 0 0.06 0.115 0 0.08 0.115 0 0.1 0.115 0 0 0.12 0 0.02 0.12 0 0.04 0.12 0 0.06 0.12 0 0.08 0.12 0 0.1 0.12 0 0 0.125 0 0.02 0.125 0 0.04 0.125 0 0.06 0.125 0 0.08 0.125 0 0.1 0.125 0 0 0.13 0 0.02 0.13 0 0.04 0.13 0 0.06 0.13 0 0.08 0.13 0 0.1 0.13 0 0 0.135 0 0.02 0.135 0 0.04 0.135 0 0.06 0.135 0 0.08 0.135 0 0.1 0.135 0 0 0.14 0 0.02 0.14 0 0.04 0.14 0 0.06 0.14 0 0.08 0.14 0 0.1 0.14 0 0 0.145 0 0.02 0.145 0 0.04 0.145 0 0.06 0.145 0 0.08 0.145 0 0.1 0.145 0 0 0.15 0 0.02 0.15 0 0.04 0.15 0 0.06 0.15 0 0.08 0.15 0 0.1 0.15 0 0 0.155 0 0.02 0.155 0 0.04 0.155 0 0.06 0.155 0 0.08 0.155 0 0.1 0.155 0 0 0.16 0 0.02 0.16 0 0.04 0.16 0 0.06 0.16 0 0.08 0.16 0 0.1 0.16 0 0 0.165 0 0.02 0.165 0 0.04 0.165 0 0.06 0.165 0 0.08 0.165 0 0.1 0.165 0 0 0.17 0 0.02 0.17 0 0.04 0.17 0 0.06 0.17 0 0.08 0.17 0 0.1 0.17 0 0 0.175 0 0.02 0.175 0 0.04 0.175 0 0.06 0.175 0 0.08 0.175 0 0.1 0.175 0 0 0.18 0 0.02 0.18 0 0.04 0.18 0 0.06 0.18 0 0.08 0.18 0 0.1 0.18 0 0 0.185 0 0.02 0.185 0 0.04 0.185 0 0.06 0.185 0 0.08 0.185 0 0.1 0.185 0 0 0.19 0 0.02 0.19 0 0.04 0.19 0 0.06 0.19 0 0.08 0.19 0 0.1 0.19 0 0 0.195 0 0.02 0.195 0 0.04 0.195 0 0.06 0.195 0 0.08 0.195 0 0.1 0.195 0 0 0.2 0 0.02 0.2 0 0.04 0.2 0 0.06 0.2 0 0.08 0.2 0 0.1 0.2 0 0 0.205 0 0.02 0.205 0 0.04 0.205 0 0.06 0.205 0 0.08 0.205 0 0.1 0.205 0 0 0.21 0 0.02 0.21 0 0.04 0.21 0 0.06 0.21 0 0.08 0.21 0 0.1 0.21 0 0 0.215 0 0.02 0.215 0 0.04 0.215 0 0.06 0.215 0 0.08 0.215 0 0.1 0.215 0 0 0.22 0 0.02 0.22 0 0.04 0.22 0 0.06 0.22 0 0.08 0.22 0 0.1 0.22 0 0 0.225 0 0.02 0.225 0 0.04 0.225 0 0.06 0.225 0 0.08 0.225 0 0.1 0.225 0 0 0.23 0 0.02 0.23 0 0.04 0.23 0 0.06 0.23 0 0.08 0.23 0 0.1 0.23 0 0 0.235 0 0.02 0.235 0 0.04 0.235 0 0.06 0.235 0 0.08 0.235 0 0.1 0.235 0 0 0.24 0 0.02 0.24 0 0.04 0.24 0 0.06 0.24 0 0.08 0.24 0 0.1 0.24 0 0 0.245 0 0.02 0.245 0 0.04 0.245 0 0.06 0.245 0 0.08 0.245 0 0.1 0.245 0 0 0.25 0 0.02 0.25 0 0.04 0.25 0 0.06 0.25 0 0.08 0.25 0 0.1 0.25 0 0 0.255 0 0.02 0.255 0 0.04 0.255 0 0.06 0.255 0 0.08 0.255 0 0.1 0.255 0 0 0.26 0 0.02 0.26 0 0.04 0.26 0 0.06 0.26 0 0.08 0.26 0 0.1 0.26 0 0 0.265 0 0.02 0.265 0 0.04 0.265 0 0.06 0.265 0 0.08 0.265 0 0.1 0.265 0 0 0.27 0 0.02 0.27 0 0.04 0.27 0 0.06 0.27 0 0.08 0.27 0 0.1 0.27 0 0 0.275 0 0.02 0.275 0 0.04 0.275 0 0.06 0.275 0 0.08 0.275 0 0.1 0.275 0 0 0.28 0 0.02 0.28 0 0.04 0.28 0 0.06 0.28 0 0.08 0.28 0 0.1 0.28 0 0 0.285 0 0.02 0.285 0 0.04 0.285 0 0.06 0.285 0 0.08 0.285 0 0.1 0.285 0 0 0.29 0 0.02 0.29 0 0.04 0.29 0 0.06 0.29 0 0.08 0.29 0 0.1 0.29 0 0 0.295 0 0.02 0.295 0 0.04 0.295 0 0.06 0.295 0 0.08 0.295 0 0.1 0.295 0 0 0.3 0 0.02 0.3 0 0.04 0.3 0 0.06 0.3 0 0.08 0.3 0 0.1 0.3 0 0 0.305 0 0.02 0.305 0 0.04 0.305 0 0.06 0.305 0 0.08 0.305 0 0.1 0.305 0 0 0.31 0 0.02 0.31 0 0.04 0.31 0 0.06 0.31 0 0.08 0.31 0 0.1 0.31 0 0 0.315 0 0.02 0.315 0 0.04 0.315 0 0.06 0.315 0 0.08 0.315 0 0.1 0.315 0 0 0.32 0 0.02 0.32 0 0.04 0.32 0 0.06 0.32 0 0.08 0.32 0 0.1 0.32 0 0 0.325 0 0.02 0.325 0 0.04 0.325 0 0.06 0.325 0 0.08 0.325 0 0.1 0.325 0 0 0.33 0 0.02 0.33 0 0.04 0.33 0 0.06 0.33 0 0.08 0.33 0 0.1 0.33 0 0 0.335 0 0.02 0.335 0 0.04 0.335 0 0.06 0.335 0 0.08 0.335 0 0.1 0.335 0 0 0.34 0 0.02 0.34 0 0.04 0.34 0 0.06 0.34 0 0.08 0.34 0 0.1 0.34 0 0 0.345 0 0.02 0.345 0 0.04 0.345 0 0.06 0.345 0 0.08 0.345 0 0.1 0.345 0 0 0.35 0 0.02 0.35 0 0.04 0.35 0 0.06 0.35 0 0.08 0.35 0 0.1 0.35 0 0 0.355 0 0.02 0.355 0 0.04 0.355 0 0.06 0.355 0 0.08 0.355 0 0.1 0.355 0 0 0.36 0 0.02 0.36 0 0.04 0.36 0 0.06 0.36 0 0.08 0.36 0 0.1 0.36 0 0 0.365 0 0.02 0.365 0 0.04 0.365 0 0.06 0.365 0 0.08 0.365 0 0.1 0.365 0 0 0.37 0 0.02 0.37 0 0.04 0.37 0 0.06 0.37 0 0.08 0.37 0 0.1 0.37 0 0 0.375 0 0.02 0.375 0 0.04 0.375 0 0.06 0.375 0 0.08 0.375 0 0.1 0.375 0 0 0.38 0 0.02 0.38 0 0.04 0.38 0 0.06 0.38 0 0.08 0.38 0 0.1 0.38 0 0 0.385 0 0.02 0.385 0 0.04 0.385 0 0.06 0.385 0 0.08 0.385 0 0.1 0.385 0 0 0.39 0 0.02 0.39 0 0.04 0.39 0 0.06 0.39 0 0.08 0.39 0 0.1 0.39 0 0 0.395 0 0.02 0.395 0 0.04 0.395 0 0.06 0.395 0 0.08 0.395 0 0.1 0.395 0 0 0.4 0 0.02 0.4 0 0.04 0.4 0 0.06 0.4 0 0.08 0.4 0 0.1 0.4 0 0 0.405 0 0.02 0.405 0 0.04 0.405 0 0.06 0.405 0 0.08 0.405 0 0.1 0.405 0 0 0.41 0 0.02 0.41 0 0.04 0.41 0 0.06 0.41 0 0.08 0.41 0 0.1 0.41 0 0 0.415 0 0.02 0.415 0 0.04 0.415 0 0.06 0.415 0 0.08 0.415 0 0.1 0.415 0 0 0.42 0 0.02 0.42 0 0.04 0.42 0 0.06 0.42 0 0.08 0.42 0 0.1 0.42 0 0 0.425 0 0.02 0.425 0 0.04 0.425 0 0.06 0.425 0 0.08 0.425 0 0.1 0.425 0 0 0.43 0 0.02 0.43 0 0.04 0.43 0 0.06 0.43 0 0.08 0.43 0 0.1 0.43 0 0 0.435 0 0.02 0.435 0 0.04 0.435 0 0.06 0.435 0 0.08 0.435 0 0.1 0.435 0 0 0.44 0 0.02 0.44 0 0.04 0.44 0 0.06 0.44 0 0.08 0.44 0 0.1 0.44 0 0 0.445 0 0.02 0.445 0 0.04 0.445 0 0.06 0.445 0 0.08 0.445 0 0.1 0.445 0 0 0.45 0 0.02 0.45 0 0.04 0.45 0 0.06 0.45 0 0.08 0.45 0 0.1 0.45 0 0 0.455 0 0.02 0.455 0 0.04 0.455 0 0.06 0.455 0 0.08 0.455 0 0.1 0.455 0 0 0.46 0 0.02 0.46 0 0.04 0.46 0 0.06 0.46 0 0.08 0.46 0 0.1 0.46 0 0 0.465 0 0.02 0.465 0 0.04 0.465 0 0.06 0.465 0 0.08 0.465 0 0.1 0.465 0 0 0.47 0 0.02 0.47 0 0.04 0.47 0 0.06 0.47 0 0.08 0.47 0 0.1 0.47 0 0 0.475 0 0.02 0.475 0 0.04 0.475 0 0.06 0.475 0 0.08 0.475 0 0.1 0.475 0 0 0.48 0 0.02 0.48 0 0.04 0.48 0 0.06 0.48 0 0.08 0.48 0 0.1 0.48 0 0 0.485 0 0.02 0.485 0 0.04 0.485 0 0.06 0.485 0 0.08 0.485 0 0.1 0.485 0 0 0.49 0 0.02 0.49 0 0.04 0.49 0 0.06 0.49 0 0.08 0.49 0 0.1 0.49 0 0 0.495 0 0.02 0.495 0 0.04 0.495 0 0.06 0.495 0 0.08 0.495 0 0.1 0.495 0 0 0.5 0 0.02 0.5 0 0.04 0.5 0 0.06 0.5 0 0.08 0.5 0 0.1 0.5 0 0 0.505 0 0.02 0.505 0 0.04 0.505 0 0.06 0.505 0 0.08 0.505 0 0.1 0.505 0 0 0.51 0 0.02 0.51 0 0.04 0.51 0 0.06 0.51 0 0.08 0.51 0 0.1 0.51 0 0 0.515 0 0.02 0.515 0 0.04 0.515 0 0.06 0.515 0 0.08 0.515 0 0.1 0.515 0 0 0.52 0 0.02 0.52 0 0.04 0.52 0 0.06 0.52 0 0.08 0.52 0 0.1 0.52 0 0 0.525 0 0.02 0.525 0 0.04 0.525 0 0.06 0.525 0 0.08 0.525 0 0.1 0.525 0 0 0.53 0 0.02 0.53 0 0.04 0.53 0 0.06 0.53 0 0.08 0.53 0 0.1 0.53 0 0 0.535 0 0.02 0.535 0 0.04 0.535 0 0.06 0.535 0 0.08 0.535 0 0.1 0.535 0 0 0.54 0 0.02 0.54 0 0.04 0.54 0 0.06 0.54 0 0.08 0.54 0 0.1 0.54 0 0 0.545 0 0.02 0.545 0 0.04 0.545 0 0.06 0.545 0 0.08 0.545 0 0.1 0.545 0 0 0.55 0 0.02 0.55 0 0.04 0.55 0 0.06 0.55 0 0.08 0.55 0 0.1 0.55 0 0 0.555 0 0.02 0.555 0 0.04 0.555 0 0.06 0.555 0 0.08 0.555 0 0.1 0.555 0 0 0.56 0 0.02 0.56 0 0.04 0.56 0 0.06 0.56 0 0.08 0.56 0 0.1 0.56 0 0 0.565 0 0.02 0.565 0 0.04 0.565 0 0.06 0.565 0 0.08 0.565 0 0.1 0.565 0 0 0.57 0 0.02 0.57 0 0.04 0.57 0 0.06 0.57 0 0.08 0.57 0 0.1 0.57 0 0 0.575 0 0.02 0.575 0 0.04 0.575 0 0.06 0.575 0 0.08 0.575 0 0.1 0.575 0 0 0.58 0 0.02 0.58 0 0.04 0.58 0 0.06 0.58 0 0.08 0.58 0 0.1 0.58 0 0 0.585 0 0.02 0.585 0 0.04 0.585 0 0.06 0.585 0 0.08 0.585 0 0.1 0.585 0 0 0.59 0 0.02 0.59 0 0.04 0.59 0 0.06 0.59 0 0.08 0.59 0 0.1 0.59 0 0 0.595 0 0.02 0.595 0 0.04 0.595 0 0.06 0.595 0 0.08 0.595 0 0.1 0.595 0 0 0.6 0 0.02 0.6 0 0.04 0.6 0 0.06 0.6 0 0.08 0.6 0 0.1 0.6 0 0 0.605 0 0.02 0.605 0 0.04 0.605 0 0.06 0.605 0 0.08 0.605 0 0.1 0.605 0 0 0.61 0 0.02 0.61 0 0.04 0.61 0 0.06 0.61 0 0.08 0.61 0 0.1 0.61 0 0 0.615 0 0.02 0.615 0 0.04 0.615 0 0.06 0.615 0 0.08 0.615 0 0.1 0.615 0 0 0.62 0 0.02 0.62 0 0.04 0.62 0 0.06 0.62 0 0.08 0.62 0 0.1 0.62 0 0 0.625 0 0.02 0.625 0 0.04 0.625 0 0.06 0.625 0 0.08 0.625 0 0.1 0.625 0 0 0.63 0 0.02 0.63 0 0.04 0.63 0 0.06 0.63 0 0.08 0.63 0 0.1 0.63 0 0 0.635 0 0.02 0.635 0 0.04 0.635 0 0.06 0.635 0 0.08 0.635 0 0.1 0.635 0 0 0.64 0 0.02 0.64 0 0.04 0.64 0 0.06 0.64 0 0.08 0.64 0 0.1 0.64 0 0 0.645 0 0.02 0.645 0 0.04 0.645 0 0.06 0.645 0 0.08 0.645 0 0.1 0.645 0 0 0.65 0 0.02 0.65 0 0.04 0.65 0 0.06 0.65 0 0.08 0.65 0 0.1 0.65 0 0 0.655 0 0.02 0.655 0 0.04 0.655 0 0.06 0.655 0 0.08 0.655 0 0.1 0.655 0 0 0.66 0 0.02 0.66 0 0.04 0.66 0 0.06 0.66 0 0.08 0.66 0 0.1 0.66 0 0 0.665 0 0.02 0.665 0 0.04 0.665 0 0.06 0.665 0 0.08 0.665 0 0.1 0.665 0 0 0.67 0 0.02 0.67 0 0.04 0.67 0 0.06 0.67 0 0.08 0.67 0 0.1 0.67 0 0 0.675 0 0.02 0.675 0 0.04 0.675 0 0.06 0.675 0 0.08 0.675 0 0.1 0.675 0 0 0.68 0 0.02 0.68 0 0.04 0.68 0 0.06 0.68 0 0.08 0.68 0 0.1 0.68 0 0 0.685 0 0.02 0.685 0 0.04 0.685 0 0.06 0.685 0 0.08 0.685 0 0.1 0.685 0 0 0.69 0 0.02 0.69 0 0.04 0.69 0 0.06 0.69 0 0.08 0.69 0 0.1 
[...]
			<PointData Scalars="VitesseX">
				<DataArray Name="VitesseX" type="Float32" format="ascii">
 0 3.43045e-14 5.70176e-14 4.85191e-14 3.06292e-14 0 0 3.06076e-14 5.89957e-14 4.81218e-14 2.94163e-14 0 0 2.50746e-14 5.99416e-14 4.77678e-14 3.13768e-14 0 0 2.99256e-14 4.51277e-14 6.10414e-14 2.67853e-14 0 0 3.04903e-14 3.64098e-14 6.76697e-14 2.6891e-14 0 0 2.3706e-14 3.55202e-14 6.72361e-14 2.79728e-14 0 0 1.33477e-14 3.65542e-14 6.69091e-14 2.54916e-14 0 0 5.15272e-15 4.02022e-14 6.02173e-14 3.3917e-14 0 0 7.4772e-15 2.7763e-14 7.24264e-14 3.05487e-14 0 0 -3.01993e-15 3.72369e-14 5.52502e-14 5.21221e-14 0 0 -2.31243e-14 5.42248e-14 3.22777e-14 7.56321e-14 0 0 -9.63097e-15 2.20095e-14 7.6848e-14 3.12471e-14 0 0 6.30707e-15 8.75631e-15 1.08287e-13 -2.14587e-14 0 0 -4.2825e-14 1.0353e-13 2.44228e-14 3.88034e-15 0 0 -5.40822e-14 1.39153e-13 -3.24025e-14 5.15839e-14 0 0 -6.25792e-15 7.57983e-14 1.5672e-14 4.59358e-14 0 0 3.82133e-14 1.36697e-14 7.66496e-14 1.89567e-14 0 0 7.40521e-14 -1.91455e-14 9.35374e-14 2.69369e-14 0 0 6.85947e-14 4.4572e-14 -3.34206e-15 1.06446e-13 0 0 6.28552e-14 7.69899e-14 -3.67615e-14 1.22996e-13 0 0 7.81382e-14 1.88059e-14 7.41296e-14 2.77013e-14 0 0 3.1361e-14 9.74473e-14 3.06924e-15 4.72687e-14 0 0 2.48395e-15 1.36866e-13 1.18778e-15 7.47094e-15 0 0 2.07638e-14 7.97573e-14 6.36592e-14 -1.82404e-14 0 0 4.86264e-14 3.18947e-14 8.14078e-14 -3.95762e-15 0 0 7.36549e-14 1.01764e-14 1.065e-13 -2.88974e-14 0 0 6.16636e-14 2.36446e-14 7.73467e-14 1.53391e-14 0 0 4.46814e-15 1.25259e-13 -4.041e-14 1.00644e-13 0 0 -1.11173e-14 1.9271e-13 -1.36027e-13 1.64872e-13 0 0 6.93265e-14 5.17252e-14 3.27912e-14 5.50571e-14 0 0 1.2816e-13 -1.81682e-14 1.56237e-13 -7.47786e-14 0 0 1.41422e-13 5.27596e-14 8.4603e-14 -6.73963e-14 0 0 1.24834e-13 1.30902e-13 -1.82732e-14 2.79499e-14 0 0 1.14e-13 1.2674e-13 -3.58019e-14 1.16621e-13 0 0 8.65107e-14 9.41634e-14 2.28262e-14 1.471e-13 0 0 8.87921e-14 2.85236e-14 2.07329e-13 -1.97612e-14 0 0 8.3179e-14 3.50104e-14 3.1886e-13 -1.6662e-13 0 0 4.66006e-14 9.81258e-14 2.33197e-13 -6.73706e-14 0 0 5.18519e-14 4.2441e-14 1.7751e-13 -9.96351e-15 0 0 -1.32922e-14 6.9291e-14 1.10185e-13 -1.78814e-14 0 0 5.95788e-15 6.10181e-14 7.19058e-14 -2.42988e-14 0 0 4.59291e-14 7.91226e-14 4.60933e-14 -2.45747e-14 0 0 4.87334e-14 1.1416e-13 9.9822e-14 -8.03592e-14 0 0 5.56089e-14 1.25919e-13 1.31101e-13 -9.01034e-14 0 0 -4.62259e-14 2.05487e-13 8.27108e-14 -6.79074e-15 0 0 -4.36289e-14 1.88504e-13 5.96113e-14 8.31496e-14 0 0 2.35581e-14 1.74553e-13 -3.92687e-15 2.19552e-13 0 0 2.53055e-14 1.4424e-13 7.51899e-14 2.09028e-13 0 0 1.02719e-13 5.23755e-14 2.5864e-13 5.15255e-14 0 0 2.28046e-13 5.43757e-14 2.8313e-13 8.70889e-14 0 0 3.06006e-13 2.58763e-13 3.82764e-13 2.82022e-13 0 0 6.28687e-13 8.5095e-13 9.85752e-13 6.73032e-13 0 0 1.62039e-12 2.64399e-12 2.64332e-12 1.85758e-12 0 0 4.45543e-12 7.19907e-12 7.28316e-12 4.66677e-12 0 0 1.13339e-11 1.81069e-11 1.82108e-11 1.13305e-11 0 0 2.5808e-11 4.12602e-11 4.14633e-11 2.56301e-11 0 0 5.26804e-11 8.50415e-11 8.5159e-11 5.25767e-11 0 0 9.75557e-11 1.5767e-10 1.57711e-10 9.73829e-11 0 0 1.63935e-10 2.64591e-10 2.64744e-10 1.63414e-10 0 0 2.51146e-10 4.05732e-10 4.0553e-10 2.50465e-10 0 0 3.54622e-10 5.7328e-10 5.7267e-10 3.53799e-10 0 0 4.66329e-10 7.53705e-10 7.52948e-10 4.65103e-10 0 0 5.7596e-10 9.30264e-10 9.29463e-10 5.73956e-10 0 0 6.7304e-10 1.08692e-09 1.08556e-09 6.70133e-10 0 0 7.48796e-10 1.20906e-09 1.20664e-09 7.44752e-10 0 0 7.96939e-10 1.28627e-09 1.28283e-09 7.91374e-10 0 0 8.14282e-10 1.31389e-09 1.30919e-09 8.06824e-10 0 0 7.94139e-10 1.28099e-09 1.27505e-09 7.85257e-10 0 0 7.41867e-10 1.1956e-09 1.18933e-09 7.31823e-10 0 0 6.51879e-10 1.04982e-09 1.04396e-09 6.42088e-10 0 0 5.26723e-10 8.48766e-10 8.4464e-10 5.19716e-10 0 0 3.68168e-10 5.95596e-10 5.94878e-10 3.6705e-10 0 0 1.7851e-10 2.94207e-10 2.98381e-10 1.87447e-10 0 0 -3.87068e-11 -5.20055e-11 -3.76985e-11 -1.71653e-11 0 0 -2.81035e-10 -4.35289e-10 -4.10187e-10 -2.41158e-10 0 0 -5.4442e-10 -8.50013e-10 -8.11425e-10 -4.82471e-10 0 0 -8.24046e-10 -1.29006e-09 -1.23507e-09 -7.36918e-10 0 0 -1.11637e-09 -1.74825e-09 -1.67622e-09 -1.00052e-09 0 0 -1.41537e-09 -2.21796e-09 -2.12756e-09 -1.27023e-09 0 0 -1.71949e-09 -2.69469e-09 -2.58562e-09 -1.54509e-09 0 0 -2.01993e-09 -3.1674e-09 -3.0431e-09 -1.81814e-09 0 0 -2.31565e-09 -3.63523e-09 -3.49764e-09 -2.0928e-09 0 0 -2.60239e-09 -4.0917e-09 -3.94418e-09 -2.36433e-09 0 0 -2.87436e-09 -4.52941e-09 -4.37841e-09 -2.63082e-09 0 0 -3.12836e-09 -4.94469e-09 -4.79796e-09 -2.89213e-09 0 0 -3.36163e-09 -5.33358e-09 -5.19966e-09 -3.14713e-09 0 0 -3.5698e-09 -5.68998e-09 -5.5796e-09 -3.39397e-09 0 0 -3.74838e-09 -6.00818e-09 -5.93449e-09 -3.63131e-09 0 0 -3.8937e-09 -6.28353e-09 -6.26087e-09 -3.85786e-09 0 0 -4.00137e-09 -6.51006e-09 -6.55347e-09 -4.07121e-09 0 0 -4.06703e-09 -6.67853e-09 -6.80476e-09 -4.26782e-09 0 0 -4.08157e-09 -6.78126e-09 -7.00477e-09 -4.44315e-09 0 0 -4.02572e-09 -6.79396e-09 -7.13944e-09 -4.59128e-09 0 0 -3.88567e-09 -6.69254e-09 -7.20863e-09 -4.70472e-09 0 0 -3.61907e-09 -6.4242e-09 -7.13274e-09 -4.77831e-09 0 0 -3.17011e-09 -5.95767e-09 -6.94259e-09 -4.78658e-09 0 0 -2.2783e-09 -4.98371e-09 -6.43569e-09 -4.66455e-09 0 0 2.19644e-10 -3.61001e-09 -6.266e-09 -4.12128e-09 0 0 2.58695e-09 7.62292e-10 -5.00004e-09 -7.54138e-09 0 0 -1.04639e-08 1.87694e-08 4.769e-09 -3.07823e-08 0 0 -5.5023e-08 6.84176e-08 3.75579e-08 -1.00496e-07 0 0 -4.76974e-08 6.23142e-08 3.49377e-08 -9.08054e-08 0 0 -1.49887e-08 3.42805e-08 1.65746e-08 -4.5667e-08 0 0 2.20772e-08 3.15385e-09 -6.35876e-09 3.9562e-09 0 0 2.49284e-08 -4.9951e-09 -8.89352e-09 2.09589e-08 0 0 1.92995e-08 -3.57249e-09 -5.60054e-09 1.87972e-08 0 0 1.48886e-08 -4.5266e-09 -2.30116e-09 1.95982e-08 0 0 1.66382e-08 -1.43004e-08 -3.13316e-09 3.19416e-08 0 0 1.94026e-08 -2.45804e-08 -5.72142e-09 4.60869e-08 0 0 1.9408e-08 -2.55621e-08 -6.48263e-09 4.74881e-08 0 0 1.68211e-08 -2.4628e-08 -5.74941e-09 4.60369e-08 0 0 8.55127e-09 -1.98826e-08 -1.92429e-09 3.79867e-08 0 0 -7.32403e-10 -1.12678e-08 3.19039e-09 2.38488e-08 0 0 -7.72637e-09 1.14347e-09 8.29799e-09 7.93868e-09 0 0 -8.51365e-09 7.70724e-09 1.12909e-08 -3.57757e-10 0 0 -8.00341e-09 6.02259e-09 1.15366e-08 2.73764e-10 0 0 -6.87804e-09 5.04655e-09 1.13921e-08 1.93003e-10 0 0 -5.72315e-09 5.31094e-09 1.04592e-08 -2.90866e-10 0 0 -4.03165e-09 4.00798e-09 9.40088e-09 -1.99566e-11 0 0 -3.06711e-09 2.93254e-09 8.56312e-09 1.17922e-09 0 0 -2.4567e-09 2.43177e-09 7.16798e-09 2.42315e-09 0 0 -1.96038e-09 2.6434e-09 4.64666e-09 3.8356e-09 0 0 -1.21481e-09 3.92162e-09 2.56323e-09 4.60921e-09 0 0 5.47987e-10 6.28444e-09 2.77665e-09 3.86206e-09 0 0 2.24942e-09 8.47498e-09 4.87744e-09 -1.18211e-09 0 0 3.4601e-09 9.81859e-09 7.34239e-09 -5.3992e-09 0 0 4.44061e-09 9.35086e-09 7.37471e-09 -4.82571e-09 0 0 6.2886e-09 7.63117e-09 7.51805e-09 -3.42797e-09 0 0 8.74225e-09 5.90703e-09 7.63623e-09 -3.21113e-10 0 0 8.64616e-09 7.02659e-09 5.78881e-09 4.12885e-09 0 0 6.29646e-09 1.43562e-08 1.18991e-09 6.34479e-09 0 0 2.35364e-09 1.7108e-08 5.96104e-09 -2.98815e-10 0 0 1.32624e-09 1.22869e-08 3.33949e-08 -2.90302e-08 0 0 7.36586e-09 5.78087e-09 2.04734e-08 -1.14179e-08 0 0 1.37898e-08 7.00473e-09 -2.15938e-08 3.56841e-08 0 0 7.56562e-09 1.38844e-08 -9.74038e-09 1.88132e-08 0 0 -2.17377e-09 2.25665e-08 6.77113e-09 -7.09249e-09 0 0 -3.74181e-09 2.40277e-08 1.83652e-08 -1.43869e-08 0 0 -1.0001e-09 2.11385e-08 1.84158e-08 -1.33802e-08 0 0 2.59225e-09 1.59433e-08 1.7522e-08 -1.10511e-08 0 0 5.2578e-09 1.11463e-08 1.38247e-08 -4.88334e-09 0 0 5.68463e-09 6.17632e-09 7.61213e-09 3.19599e-09 0 0 5.19754e-09 4.35783e-09 1.84133e-09 6.68367e-09 0 0 3.30542e-09 4.23097e-09 9.78263e-10 6.65686e-09 0 0 6.61275e-10 4.24698e-09 2.19409e-09 4.50889e-09 0 0 -3.61562e-10 4.44776e-09 3.81001e-09 2.45172e-09 0 0 1.06213e-10 4.48595e-09 4.09758e-09 2.62068e-09 0 0 7.28042e-10 4.33064e-09 4.45965e-09 2.68784e-09 0 0 1.28549e-09 3.92491e-09 4.7874e-09 2.774e-09 0 0 1.69856e-09 3.52215e-09 4.83232e-09 2.88027e-09 0 0 1.81225e-09 3.18818e-09 4.67855e-09 2.92538e-09 0 0 1.82273e-09 2.93371e-09 4.19966e-09 2.88431e-09 0 0 1.86408e-09 2.93737e-09 3.70321e-09 2.6753e-09 0 0 1.91736e-09 2.94785e-09 3.22569e-09 2.25853e-09 0 0 1.82656e-09 2.7792e-09 2.77931e-09 1.82821e-09 0 0 1.74479e-09 2.56992e-09 2.38171e-09 1.40448e-09 0 0 1.76293e-09 2.52549e-09 2.0992e-09 1.06011e-09 0 0 1.74324e-09 2.47875e-09 1.91749e-09 9.17786e-10 0 0 1.60832e-09 2.32119e-09 1.76191e-09 8.54148e-10 0 0 1.3735e-09 1.98228e-09 1.61299e-09 8.19355e-10 0 0 1.12973e-09 1.64745e-09 1.44281e-09 7.81848e-10 0 0 8.86039e-10 1.32359e-09 1.25154e-09 7.2225e-10 0 0 6.63649e-10 1.03616e-09 1.03329e-09 6.28996e-10 0 0 4.92229e-10 7.98191e-10 8.12805e-10 5.08606e-10 0 0 3.63216e-10 5.96449e-10 6.08231e-10 3.84464e-10 0 0 2.53131e-10 4.17394e-10 4.28226e-10 2.70856e-10 0 0 1.61969e-10 2.68559e-10 2.77271e-10 1.75802e-10 0 0 9.44871e-11 1.57015e-10 1.61685e-10 1.02831e-10 0 0 4.91958e-11 8.14095e-11 8.36581e-11 5.28789e-11 0 0 2.23763e-11 3.69333e-11 3.78164e-11 2.37303e-11 0 0 8.89653e-12 1.48171e-11 1.5089e-11 9.4436e-12 0 0 3.25405e-12 5.15571e-12 5.66175e-12 3.41889e-12 0 0 9.68635e-13 1.6805e-12 1.88207e-12 1.25538e-12 0 0 3.64159e-14 5.83317e-13 4.21289e-13 4.58872e-13 0 0 -2.67926e-13 1.13063e-13 6.99061e-15 9.21229e-14 0 0 -3.06195e-13 -2.18697e-13 3.96323e-14 -1.169e-13 0 0 -1.52014e-13 -5.34792e-13 1.99894e-13 -2.23673e-13 0 0 -1.50462e-13 -4.96849e-13 1.64319e-13 -2.67271e-13 0 0 -1.89379e-13 -3.6536e-13 1.70722e-14 -1.8216e-13 0 0 -1.71618e-13 -2.65283e-13 -1.24611e-13 -5.22304e-14 0 0 -1.51845e-13 -1.68493e-13 -2.8402e-13 1.57723e-14 0 0 -2.52367e-14 -2.96518e-13 -2.05211e-13 2.9927e-14 0 0 1.78627e-14 -3.56296e-13 -7.66598e-14 -7.95199e-14 0 0 -8.39825e-14 -1.84742e-13 -1.96642e-13 -8.55005e-14 0 0 -4.5149e-14 -1.4959e-13 -3.03126e-13 4.8695e-14 0 0 1.60501e-13 -3.54329e-13 -1.66894e-13 8.7756e-15 0 0 8.70635e-14 -2.0775e-13 -3.11012e-13 1.01624e-13 0 0 -4.42073e-14 -6.80126e-15 -4.60917e-13 1.00729e-13 0 0 -1.95283e-14 -2.70741e-14 -3.53493e-13 -7.86136e-14 0 0 3.7299e-14 -6.87173e-14 -2.29219e-13 -2.33969e-13 0 0 4.62232e-14 -1.07314e-14 -2.41109e-13 -4.04225e-13 0 0 -1.39225e-13 1.92271e-13 -3.36018e-13 -4.04722e-13 0 0 -3.09141e-13 2.28861e-13 -2.29134e-13 -4.33347e-13 0 0 -2.17619e-13 1.03288e-14 -8.04283e-14 -4.75166e-13 0 0 -1.67705e-13 -9.31275e-14 -1.18403e-13 -3.30804e-13 0 0 -3.16079e-13 8.62523e-14 -4.68284e-13 4.75023e-14 0 0 -4.14516e-13 1.87768e-13 -7.54178e-13 2.46066e-13 0 0 -3.23872e-13 -3.98018e-14 -5.5114e-13 2.04852e-16 0 0 5.84791e-15 -4.90001e-13 -2.15528e-13 -1.08798e-13 0 0 1.5505e-13 -5.68787e-13 -3.4242e-13 1.71579e-13 0 0 1.28868e-13 -4.84524e-13 -4.66004e-13 2.87752e-13 0
				</DataArray>
				<DataArray Name="VitesseY" type="Float32" format="ascii">