<?xml version="1.0"?>
<VTKFile type="PolyData">
	<PolyData>
		<Piece NumberOfPoints="1206" NumberOfPolys="1000">
			<Points>
				<DataArray type="Float32" NumberOfComponents="3" format="ascii">
 0 0 0 0.02 0 0 0.04 0 0 0.06 0 0 0.08 0 0 0.1 0 0 0 0.005 0 0.02 0.005 0 0.04 0.005 0 0.06 0.005 0 0.08 0.005 0 0.1 0.005 0 0 0.01 0 0.02 0.01 0 0.04 0.01 0 0.06 0.01 0 0.08 0.01 0 0.1 0.01 0 0 0.015 0 0.02 0.015 0 0.04 0.015 0 0.06 0.015 0 0.08 0.015 0 0.1 0.015 0 0 0.02 0 0.02 0.02 0 0.04 0.02 0 0.06 0.02 0 0.08 0.02 0 0.1 0.02 0 0 0.025 0 0.02 0.025 0 0.04 0.025 0 0.06 0.025 0 0.08 0.025 0 0.1 0.025 0 0 0.03 0 0.02 0.03 0 0.04 0.03 0 0.06 0.03 0 0.08 0.03 0 0.1 0.03 0 0 0.035 0 0.02 0.035 0 0.04 0.035 0 0.06 0.035 0 0.08 0.035 0 0.1 0.035 0 0 0.04 0 0.02 0.04 0 0.04 0.04 0 0.06 0.04 0 0.08 0.04 0 0.1 0.04 0 0 0.045 0 0.02 0.045 0 0.04 0.045 0 0.06 0.045 0 0.08 0.045 0 0.1 0.045 0 0 0.05 0 0.02 0.05 0 0.04 0.05 0 0.06 0.05 0 0.08 0.05 0 0.1 0.05 0 0 0.055 0 0.02 0.055 0 0.04 0.055 0 0.06 0.055 0 0.08 0.055 0 0.1 0.055 0 0 0.06 0 0.02 0.06 0 0.04 0.06 0 0.06 0.06 0 0.08 0.06 0 0.1 0.06 0 0 0.065 0 0.02 0.065 0 0.04 0.065 0 0.06 0.065 0 0.08 0.065 0 0.1 0.065 0 0 0.07 0 0.02 0.07 0 0.04 0.07 0 0.06 0.07 0 0.08 0.07 0 0.1 0.07 0 0 0.075 0 0.02 0.075 0 0.04 0.075 0 0.06 0.075 0 0.08 0.075 0 0.1 0.075 0 0 0.08 0 0.02 0.08 0 0.04 0.08 0 0.06 0.08 0 0.08 0.08 0 0.1 0.08 0 0 0.085 0 0.02 0.085 0 0.04 0.085 0 0.06 0.085 0 0.08 0.085 0 0.1 0.085 0 0 0.09 0 0.02 0.09 0 0.04 0.09 0 0.06 0.09 0 0.08 0.09 0 0.1 0.09 0 0 0.095 0 0.02 0.095 0 0.04 0.095 0 0.06 0.095 0 0.08 0.095 0 0.1 0.095 0 0 0.1 0 0.02 0.1 0 0.04 0.1 0 0.06 0.1 0 0.08 0.1 0 0.1 0.1 0 0 0.105 0 0.02 0.105 0 0.04 0.105 0 0.06 0.105 0 0.08 0.105 0 0.1 0.105 0 0 0.11 0 0.02 0.11 0 0.04 0.11 0 0.06 0.11 0 0.08 0.11 0 0.1 0.11 0 0 0.115 0 0.02 0.115 0 0.04 0.115 0 0.06 0.115 0 0.08 0.115 0 0.1 0.115 0 0 0.12 0 0.02 0.12 0 0.04 0.12 0 0.06 0.12 0 0.08 0.12 0 0.1 0.12 0 0 0.125 0 0.02 0.125 0 0.04 0.125 0 0.06 0.125 0 0.08 0.125 0 0.1 0.125 0 0 0.13 0 0.02 0.13 0 0.04 0.13 0 0.06 0.13 0 0.08 0.13 0 0.1 0.13 0 0 0.135 0 0.02 0.135 0 0.04 0.135 0 0.06 0.135 0 0.08 0.135 0 0.1 0.135 0 0 0.14 0 0.02 0.14 0 0.04 0.14 0 0.06 0.14 0 0.08 0.14 0 0.1 0.14 0 0 0.145 0 0.02 0.145 0 0.04 0.145 0 0.06 0.145 0 0.08 0.145 0 0.1 0.145 0 0 0.15 0 0.02 0.15 0 0.04 0.15 0 0.06 0.15 0 0.08 0.15 0 0.1 0.15 0 0 0.155 0 0.02 0.155 0 0.04 0.155 0 0.06 0.155 0 0.08 0.155 0 0.1 0.155 0 0 0.16 0 0.02 0.16 0 0.04 0.16 0 0.06 0.16 0 0.08 0.16 0 0.1 0.16 0 0 0.165 0 0.02 0.165 0 0.04 0.165 0 0.06 0.165 0 0.08 0.165 0 0.1 0.165 0 0 0.17 0 0.02 0.17 0 0.04 0.17 0 0.06 0.17 0 0.08 0.17 0 0.1 0.17 0 0 0.175 0 0.02 0.175 0 0.04 0.175 0 0.06 0.175 0 0.08 0.175 0 0.1 0.175 0 0 0.18 0 0.02 0.18 0 0.04 0.18 0 0.06 0.18 0 0.08 0.18 0 0.1 0.18 0 0 0.185 0 0.02 0.185 0 0.04 0.185 0 0.06 0.185 0 0.08 0.185 0 0.1 0.185 0 0 0.19 0 0.02 0.19 0 0.04 0.19 0 0.06 0.19 0 0.08 0.19 0 0.1 0.19 0 0 0.195 0 0.02 0.195 0 0.04 0.195 0 0.06 0.195 0 0.08 0.195 0 0.1 0.195 0 0 0.2 0 0.02 0.2 0 0.04 0.2 0 0.06 0.2 0 0.08 0.2 0 0.1 0.2 0 0 0.205 0 0.02 0.205 0 0.04 0.205 0 0.06 0.205 0 0.08 0.205 0 0.1 0.205 0 0 0.21 0 0.02 0.21 0 0.04 0.21 0 0.06 0.21 0 0.08 0.21 0 0.1 0.21 0 0 0.215 0 0.02 0.215 0 0.04 0.215 0 0.06 0.215 0 0.08 0.215 0 0.1 0.215 0 0 0.22 0 0.02 0.22 0 0.04 0.22 0 0.06 0.22 0 0.08 0.22 0 0.1 0.22 0 0 0.225 0 0.02 0.225 0 0.04 0.225 0 0.06 0.225 0 0.08 0.225 0 0.1 0.225 0 0 0.23 0 0.02 0.23 0 0.04 0.23 0 0.06 0.23 0 0.08 0.23 0 0.1 0.23 0 0 0.235 0 0.02 0.235 0 0.04 0.235 0 0.06 0.235 0 0.08 0.235 0 0.1 0.235 0 0 0.24 0 0.02 0.24 0 0.04 0.24 0 0.06 0.24 0 0.08 0.24 0 0.1 0.24 0 0 0.245 0 0.02 0.245 0 0.04 0.245 0 0.06 0.245 0 0.08 0.245 0 0.1 0.245 0 0 0.25 0 0.02 0.25 0 0.04 0.25 0 0.06 0.25 0 0.08 0.25 0 0.1 0.25 0 0 0.255 0 0.02 0.255 0 0.04 0.255 0 0.06 0.255 0 0.08 0.255 0 0.1 0.255 0 0 0.26 0 0.02 0.26 0 0.04 0.26 0 0.06 0.26 0 0.08 0.26 0 0.1 0.26 0 0 0.265 0 0.02 0.265 0 0.04 0.265 0 0.06 0.265 0 0.08 0.265 0 0.1 0.265 0 0 0.27 0 0.02 0.27 0 0.04 0.27 0 0.06 0.27 0 0.08 0.27 0 0.1 0.27 0 0 0.275 0 0.02 0.275 0 0.04 0.275 0 0.06 0.275 0 0.08 0.275 0 0.1 0.275 0 0 0.28 0 0.02 0.28 0 0.04 0.28 0 0.06 0.28 0 0.08 0.28 0 0.1 0.28 0 0 0.285 0 0.02 0.285 0 0.04 0.285 0 0.06 0.285 0 0.08 0.285 0 0.1 0.285 0 0 0.29 0 0.02 0.29 0 0.04 0.29 0 0.06 0.29 0 0.08 0.29 0 0.1 0.29 0 0 0.295 0 0.02 0.295 0 0.04 0.295 0 0.06 0.295 0 0.08 0.295 0 0.1 0.295 0 0 0.3 0 0.02 0.3 0 0.04 0.3 0 0.06 0.3 0 0.08 0.3 0 0.1 0.3 0 0 0.305 0 0.02 0.305 0 0.04 0.305 0 0.06 0.305 0 0.08 0.305 0 0.1 0.305 0 0 0.31 0 0.02 0.31 0 0.04 0.31 0 0.06 0.31 0 0.08 0.31 0 0.1 0.31 0 0 0.315 0 0.02 0.315 0 0.04 0.315 0 0.06 0.315 0 0.08 0.315 0 0.1 0.315 0 0 0.32 0 0.02 0.32 0 0.04 0.32 0 0.06 0.32 0 0.08 0.32 0 0.1 0.32 0 0 0.325 0 0.02 0.325 0 0.04 0.325 0 0.06 0.325 0 0.08 0.325 0 0.1 0.325 0 0 0.33 0 0.02 0.33 0 0.04 0.33 0 0.06 0.33 0 0.08 0.33 0 0.1 0.33 0 0 0.335 0 0.02 0.335 0 0.04 0.335 0 0.06 0.335 0 0.08 0.335 0 0.1 0.335 0 0 0.34 0 0.02 0.34 0 0.04 0.34 0 0.06 0.34 0 0.08 0.34 0 0.1 0.34 0 0 0.345 0 0.02 0.345 0 0.04 0.345 0 0.06 0.345 0 0.08 0.345 0 0.1 0.345 0 0 0.35 0 0.02 0.35 0 0.04 0.35 0 0.06 0.35 0 0.08 0.35 0 0.1 0.35 0 0 0.355 0 0.02 0.355 0 0.04 0.355 0 0.06 0.355 0 0.08 0.355 0 0.1 0.355 0 0 0.36 0 0.02 0.36 0 0.04 0.36 0 0.06 0.36 0 0.08 0.36 0 0.1 0.36 0 0 0.365 0 0.02 0.365 0 0.04 0.365 0 0.06 0.365 0 0.08 0.365 0 0.1 0.365 0 0 0.37 0 0.02 0.37 0 0.04 0.37 0 0.06 0.37 0 0.08 0.37 0 0.1 0.37 0 0 0.375 0 0.02 0.375 0 0.04 0.375 0 0.06 0.375 0 0.08 0.375 0 0.1 0.375 0 0 0.38 0 0.02 0.38 0 0.04 0.38 0 0.06 0.38 0 0.08 0.38 0 0.1 0.38 0 0 0.385 0 0.02 0.385 0 0.04 0.385 0 0.06 0.385 0 0.08 0.385 0 0.1 0.385 0 0 0.39 0 0.02 0.39 0 0.04 0.39 0 0.06 0.39 0 0.08 0.39 0 0.1 0.39 0 0 0.395 0 0.02 0.395 0 0.04 0.395 0 0.06 0.395 0 0.08 0.395 0 0.1 0.395 0 0 0.4 0 0.02 0.4 0 0.04 0.4 0 0.06 0.4 0 0.08 0.4 0 0.1 0.4 0 0 0.405 0 0.02 0.405 0 0.04 0.405 0 0.06 0.405 0 0.08 0.405 0 0.1 0.405 0 0 0.41 0 0.02 0.41 0 0.04 0.41 0 0.06 0.41 0 0.08 0.41 0 0.1 0.41 0 0 0.415 0 0.02 0.415 0 0.04 0.415 0 0.06 0.415 0 0.08 0.415 0 0.1 0.415 0 0 0.42 0 0.02 0.42 0 0.04 0.42 0 0.06 0.42 0 0.08 0.42 0 0.1 0.42 0 0 0.425 0 0.02 0.425 0 0.04 0.425 0 0.06 0.425 0 0.08 0.425 0 0.1 0.425 0 0 0.43 0 0.02 0.43 0 0.04 0.43 0 0.06 0.43 0 0.08 0.43 0 0.1 0.43 0 0 0.435 0 0.02 0.435 0 0.04 0.435 0 0.06 0.435 0 0.08 0.435 0 0.1 0.435 0 0 0.44 0 0.02 0.44 0 0.04 0.44 0 0.06 0.44 0 0.08 0.44 0 0.1 0.44 0 0 0.445 0 0.02 0.445 0 0.04 0.445 0 0.06 0.445 0 0.08 0.445 0 0.1 0.445 0 0 0.45 0 0.02 0.45 0 0.04 0.45 0 0.06 0.45 0 0.08 0.45 0 0.1 0.45 0 0 0.455 0 0.02 0.455 0 0.04 0.455 0 0.06 0.455 0 0.08 0.455 0 0.1 0.455 0 0 0.46 0 0.02 0.46 0 0.04 0.46 0 0.06 0.46 0 0.08 0.46 0 0.1 0.46 0 0 0.465 0 0.02 0.465 0 0.04 0.465 0 0.06 0.465 0 0.08 0.465 0 0.1 0.465 0 0 0.47 0 0.02 0.47 0 0.04 0.47 0 0.06 0.47 0 0.08 0.47 0 0.1 0.47 0 0 0.475 0 0.02 0.475 0 0.04 0.475 0 0.06 0.475 0 0.08 0.475 0 0.1 0.475 0 0 0.48 0 0.02 0.48 0 0.04 0.48 0 0.06 0.48 0 0.08 0.48 0 0.1 0.48 0 0 0.485 0 0.02 0.485 0 0.04 0.485 0 0.06 0.485 0 0.08 0.485 0 0.1 0.485 0 0 0.49 0 0.02 0.49 0 0.04 0.49 0 0.06 0.49 0 0.08 0.49 0 0.1 0.49 0 0 0.495 0 0.02 0.495 0 0.04 0.495 0 0.06 0.495 0 0.08 0.495 0 0.1 0.495 0 0 0.5 0 0.02 0.5 0 0.04 0.5 0 0.06 0.5 0 0.08 0.5 0 0.1 0.5 0 0 0.505 0 0.02 0.505 0 0.04 0.505 0 0.06 0.505 0 0.08 0.505 0 0.1 0.505 0 0 0.51 0 0.02 0.51 0 0.04 0.51 0 0.06 0.51 0 0.08 0.51 0 0.1 0.51 0 0 0.515 0 0.02 0.515 0 0.04 0.515 0 0.06 0.515 0 0.08 0.515 0 0.1 0.515 0 0 0.52 0 0.02 0.52 0 0.04 0.52 0 0.06 0.52 0 0.08 0.52 0 0.1 0.52 0 0 0.525 0 0.02 0.525 0 0.04 0.525 0 0.06 0.525 0 0.08 0.525 0 0.1 0.525 0 0 0.53 0 0.02 0.53 0 0.04 0.53 0 0.06 0.53 0 0.08 0.53 0 0.1 0.53 0 0 0.535 0 0.02 0.535 0 0.04 0.535 0 0.06 0.535 0 0.08 0.535 0 0.1 0.535 0 0 0.54 0 0.02 0.54 0 0.04 0.54 0 0.06 0.54 0 0.08 0.54 0 0.1 0.54 0 0 0.545 0 0.02 0.545 0 0.04 0.545 0 0.06 0.545 0 0.08 0.545 0 0.1 0.545 0 0 0.55 0 0.02 0.55 0 0.04 0.55 0 0.06 0.55 0 0.08 0.55 0 0.1 0.55 0 0 0.555 0 0.02 0.555 0 0.04 0.555 0 0.06 0.555 0 0.08 0.555 0 0.1 0.555 0 0 0.56 0 0.02 0.56 0 0.04 0.56 0 0.06 0.56 0 0.08 0.56 0 0.1 0.56 0 0 0.565 0 0.02 0.565 0 0.04 0.565 0 0.06 0.565 0 0.08 0.565 0 0.1 0.565 0 0 0.57 0 0.02 0.57 0 0.04 0.57 0 0.06 0.57 0 0.08 0.57 0 0.1 0.57 0 0 0.575 0 0.02 0.575 0 0.04 0.575 0 0.06 0.575 0 0.08 0.575 0 0.1 0.575 0 0 0.58 0 0.02 0.58 0 0.04 0.58 0 0.06 0.58 0 0.08 0.58 0 0.1 0.58 0 0 0.585 0 0.02 0.585 0 0.04 0.585 0 0.06 0.585 0 0.08 0.585 0 0.1 0.585 0 0 0.59 0 0.02 0.59 0 0.04 0.59 0 0.06 0.59 0 0.08 0.59 0 0.1 0.59 0 0 0.595 0 0.02 0.595 0 0.04 0.595 0 0.06 0.595 0 0.08 0.595 0 0.1 0.595 0 0 0.6 0 0.02 0.6 0 0.04 0.6 0 0.06 0.6 0 0.08 0.6 0 0.1 0.6 0 0 0.605 0 0.02 0.605 0 0.04 0.605 0 0.06 0.605 0 0.08 0.605 0 0.1 0.605 0 0 0.61 0 0.02 0.61 0 0.04 0.61 0 0.06 0.61 0 0.08 0.61 0 0.1 0.61 0 0 0.615 0 0.02 0.615 0 0.04 0.615 0 0.06 0.615 0 0.08 0.615 0 0.1 0.615 0 0 0.62 0 0.02 0.62 0 0.04 0.62 0 0.06 0.62 0 0.08 0.62 0 0.1 0.62 0 0 0.625 0 0.02 0.625 0 0.04 0.625 0 0.06 0.625 0 0.08 0.625 0 0.1 0.625 0 0 0.63 0 0.02 0.63 0 0.04 0.63 0 0.06 0.63 0 0.08 0.63 0 0.1 0.63 0 0 0.635 0 0.02 0.635 0 0.04 0.635 0 0.06 0.635 0 0.08 0.635 0 0.1 0.635 0 0 0.64 0 0.02 0.64 0 0.04 0.64 0 0.06 0.64 0 0.08 0.64 0 0.1 0.64 0 0 0.645 0 0.02 0.645 0 0.04 0.645 0 0.06 0.645 0 0.08 0.645 0 0.1 0.645 0 0 0.65 0 0.02 0.65 0 0.04 0.65 0 0.06 0.65 0 0.08 0.65 0 0.1 0.65 0 0 0.655 0 0.02 0.655 0 0.04 0.655 0 0.06 0.655 0 0.08 0.655 0 0.1 0.655 0 0 0.66 0 0.02 0.66 0 0.04 0.66 0 0.06 0.66 0 0.08 0.66 0 0.1 0.66 0 0 0.665 0 0.02 0.665 0 0.04 0.665 0 0.06 0.665 0 0.08 0.665 0 0.1 0.665 0 0 0.67 0 0.02 0.67 0 0.04 0.67 0 0.06 0.67 0 0.08 0.67 0 0.1 0.67 0 0 0.675 0 0.02 0.675 0 0.04 0.675 0 0.06 0.675 0 0.08 0.675 0 0.1 0.675 0 0 0.68 0 0.02 0.68 0 0.04 0.68 0 0.06 0.68 0 0.08 0.68 0 0.1 0.68 0 0 0.685 0 0.02 0.685 0 0.04 0.685 0 0.06 0.685 0 0.08 0.685 0 0.1 0.685 0 0 0.69 0 0.02 0.69 0 0.04 0.69 0 0.06 0.69 0 0.08 0.69 0 0.1 
[...]
			<PointData Scalars="VitesseX">
				<DataArray Name="VitesseX" type="Float32" format="ascii">
 0 3.28166e-14 7.02615e-14 6.8715e-14 3.10323e-14 0 0 3.605e-14 6.5118e-14 7.26057e-14 3.06758e-14 0 0 4.0671e-14 5.61369e-14 7.9848e-14 2.59051e-14 0 0 3.30829e-14 6.17876e-14 7.17125e-14 2.54419e-14 0 0 2.30658e-14 6.25844e-14 6.49169e-14 3.20148e-14 0 0 3.11828e-14 3.45728e-14 7.84664e-14 3.15995e-14 0 0 3.20111e-14 3.11937e-14 7.07867e-14 3.16539e-14 0 0 2.01039e-14 5.83381e-14 4.12657e-14 4.25749e-14 0 0 1.44948e-14 6.64169e-14 2.46394e-14 6.06433e-14 0 0 1.6329e-14 7.36913e-14 -5.99319e-15 9.87903e-14 0 0 1.94213e-14 6.71679e-14 7.91173e-15 9.10892e-14 0 0 4.40546e-14 -3.57523e-15 1.12436e-13 3.85318e-15 0 0 3.9079e-14 -2.62314e-15 1.22479e-13 -7.96608e-15 0 0 -1.75844e-14 1.05764e-13 -2.74724e-15 8.98311e-14 0 0 1.15598e-14 5.26009e-14 7.46943e-14 3.97073e-14 0 0 2.94202e-14 2.20464e-14 1.27754e-13 7.73618e-15 0 0 6.87497e-15 7.88617e-14 5.27546e-14 7.71114e-14 0 0 4.90906e-14 2.11853e-14 1.22123e-13 5.67109e-14 0 0 6.1819e-14 3.41598e-14 1.20251e-13 7.36985e-14 0 0 5.77423e-14 7.91311e-14 7.50199e-14 8.25247e-14 0 0 5.95444e-14 9.52608e-14 4.48231e-14 8.44258e-14 0 0 2.72356e-14 1.39543e-13 9.58827e-15 8.66999e-14 0 0 5.9466e-14 7.71207e-14 1.08248e-13 -1.42393e-14 0 0 5.49255e-14 7.97605e-14 8.18773e-14 1.89555e-14 0 0 -4.66112e-15 1.65409e-13 -8.69342e-15 1.02175e-13 0 0 4.56416e-15 1.93228e-13 -4.84021e-14 1.37778e-13 0 0 1.00139e-13 5.06405e-14 1.05088e-13 3.55436e-14 0 0 5.59198e-14 1.13776e-13 7.54737e-14 1.37228e-14 0 0 -4.98503e-14 3.22568e-13 -1.2562e-13 7.56934e-14 0 0 5.83035e-14 1.3653e-13 1.25847e-13 -1.51167e-13 0 0 7.66606e-14 7.78352e-14 2.05759e-13 -1.96999e-13 0 0 9.86886e-14 3.58794e-14 1.67772e-13 -9.13713e-14 0 0 1.08583e-13 3.22087e-14 1.00555e-13 3.04102e-14 0 0 8.97336e-15 1.91287e-13 -1.08077e-14 1.42809e-13 0 0 -1.86009e-14 1.98269e-13 5.7726e-14 1.54319e-13 0 0 -1.81118e-14 1.84929e-13 1.14049e-13 1.3526e-13 0 0 5.20231e-14 1.05947e-13 1.86911e-13 9.75194e-14 0 0 1.46143e-13 1.65725e-14 1.77042e-13 1.85932e-13 0 0 6.61438e-14 1.37945e-13 5.37065e-14 2.53317e-13 0 0 1.16747e-14 1.699e-13 1.01935e-13 1.24357e-13 0 0 1.39691e-13 -2.97428e-14 2.69869e-13 -1.08511e-14 0 0 1.41498e-13 2.5745e-15 1.45386e-13 6.68523e-14 0 0 3.89614e-15 2.17444e-13 -6.51772e-14 1.22262e-13 0 0 3.13214e-14 1.61799e-13 -8.42283e-15 1.43876e-14 0 0 8.41318e-14 8.84005e-14 4.76578e-14 -2.49407e-14 0 0 3.65149e-14 1.51739e-13 6.29021e-14 -1.46063e-14 0 0 7.2492e-15 1.15662e-13 2.21655e-13 -1.04004e-13 0 0 3.45132e-14 1.05445e-13 2.3218e-13 -8.72971e-14 0 0 1.58849e-13 1.56318e-13 3.02199e-14 6.44539e-14 0 0 2.18288e-13 1.72729e-13 -3.52409e-14 1.11815e-13 0 0 6.70321e-14 2.839e-13 6.30308e-14 7.47667e-14 0 0 2.31071e-14 2.90933e-13 2.83618e-13 -7.59268e-14 0 0 1.22644e-13 1.80007e-13 4.78174e-13 -2.4947e-13 0 0 5.14984e-14 2.78118e-13 4.39125e-13 -2.28038e-13 0 0 3.51066e-14 3.89049e-13 4.16494e-13 -1.02138e-13 0 0 2.21623e-13 5.92244e-13 5.39416e-13 2.65759e-13 0 0 7.57991e-13 1.27355e-12 1.36688e-12 9.01741e-13 0 0 2.27264e-12 3.65382e-12 3.7928e-12 2.419e-12 0 0 6.30702e-12 1.03431e-11 1.03271e-11 6.47297e-12 0 0 1.62556e-11 2.63586e-11 2.66127e-11 1.63257e-11 0 0 3.76939e-11 6.09425e-11 6.14386e-11 3.77407e-11 0 0 7.80754e-11 1.26649e-10 1.26803e-10 7.81935e-11 0 0 1.45089e-10 2.35291e-10 2.35018e-10 1.4517e-10 0 0 2.43101e-10 3.93358e-10 3.93068e-10 2.42717e-10 0 0 3.70111e-10 5.98333e-10 5.97721e-10 3.6914e-10 0 0 5.18079e-10 8.37081e-10 8.3589e-10 5.16217e-10 0 0 6.74469e-10 1.08929e-09 1.08717e-09 6.71118e-10 0 0 8.24558e-10 1.33106e-09 1.32738e-09 8.18885e-10 0 0 9.5499e-10 1.54054e-09 1.53476e-09 9.45727e-10 0 0 1.0551e-09 1.7001e-09 1.6917e-09 1.04101e-09 0 0 1.11765e-09 1.79893e-09 1.78702e-09 1.09876e-09 0 0 1.13911e-09 1.83118e-09 1.81551e-09 1.11495e-09 0 0 1.11044e-09 1.7829e-09 1.76557e-09 1.08246e-09 0 0 1.03912e-09 1.66707e-09 1.64853e-09 1.00972e-09 0 0 9.17024e-10 1.47109e-09 1.45399e-09 8.90987e-10 0 0 7.47786e-10 1.20109e-09 1.19136e-09 7.30438e-10 0 0 5.328e-10 8.62509e-10 8.63191e-10 5.33863e-10 0 0 2.75266e-10 4.60227e-10 4.76904e-10 3.04379e-10 0 0 -2.06225e-11 2.34065e-14 4.03787e-11 4.58595e-11 0 0 -3.51154e-10 -5.10026e-10 -4.40363e-10 -2.36321e-10 0 0 -7.10143e-10 -1.06285e-09 -9.56593e-10 -5.38309e-10 0 0 -1.09607e-09 -1.65301e-09 -1.50408e-09 -8.57375e-10 0 0 -1.49475e-09 -2.26274e-09 -2.07265e-09 -1.1844e-09 0 0 -1.91946e-09 -2.90887e-09 -2.66655e-09 -1.52885e-09 0 0 -2.33601e-09 -3.54541e-09 -3.25988e-09 -1.87023e-09 0 0 -2.76678e-09 -4.20785e-09 -3.87665e-09 -2.22842e-09 0 0 -3.19293e-09 -4.86496e-09 -4.4902e-09 -2.5887e-09 0 0 -3.6074e-09 -5.51084e-09 -5.10183e-09 -2.94842e-09 0 0 -4.00796e-09 -6.14484e-09 -5.72047e-09 -3.32272e-09 0 0 -4.39068e-09 -6.76141e-09 -6.33373e-09 -3.69993e-09 0 0 -4.74858e-09 -7.35161e-09 -6.93634e-09 -4.075e-09 0 0 -5.07627e-09 -7.91089e-09 -7.53164e-09 -4.46e-09 0 0 -5.37225e-09 -8.43963e-09 -8.12263e-09 -4.86176e-09 0 0 -5.63722e-09 -8.93968e-09 -8.70776e-09 -5.25936e-09 0 0 -5.87197e-09 -9.40505e-09 -9.26645e-09 -5.67169e-09 0 0 -6.11028e-09 -9.9291e-09 -9.92321e-09 -6.04961e-09 0 0 -6.06729e-09 -1.04716e-08 -1.05942e-08 -6.29784e-09 0 0 -5.82538e-09 -1.13669e-08 -1.1443e-08 -6.03244e-09 0 0 -7.82827e-09 -1.28906e-08 -1.25958e-08 -6.84141e-09 0 0 -4.20518e-08 2.35503e-09 1.0991e-08 -4.13543e-08 0 0 -8.25556e-08 2.89395e-08 4.04816e-08 -8.315e-08 0 0 -4.09502e-08 1.38504e-08 1.08666e-08 -3.98973e-08 0 0 -1.43026e-08 3.58504e-09 -1.25673e-09 -1.69318e-08 0 0 2.90198e-08 -1.67932e-08 -1.79233e-08 1.71752e-08 0 0 1.47994e-07 -7.79553e-08 -8.4286e-08 1.28104e-07 0 0 2.53409e-07 -1.2806e-07 -1.59367e-07 2.40304e-07 0 0 2.50647e-07 -1.24923e-07 -1.60579e-07 2.40632e-07 0 0 1.81601e-07 -8.67167e-08 -1.07351e-07 1.6539e-07 0 0 2.06482e-08 1.9504e-09 9.71991e-09 -3.17578e-09 0 0 -8.28189e-08 6.26627e-08 5.81439e-08 -8.00631e-08 0 0 -1.16499e-07 7.63695e-08 6.88859e-08 -1.01961e-07 0 0 -1.33441e-07 7.68174e-08 9.12832e-08 -1.25025e-07 0 0 -1.26637e-07 6.3615e-08 8.92082e-08 -1.20791e-07 0 0 -8.61378e-08 3.1855e-08 6.25678e-08 -8.19242e-08 0 0 -2.03817e-08 7.09441e-10 1.57874e-08 -9.92288e-09 0 0 4.11464e-08 -2.1748e-08 -2.61702e-08 5.37574e-08 0 0 5.39201e-08 -2.28553e-08 -3.27205e-08 6.1446e-08 0 0 5.05173e-08 -1.73726e-08 -3.04755e-08 5.70731e-08 0 0 3.27342e-08 -6.53882e-09 -1.00385e-08 2.78647e-08 0 0 1.1713e-08 1.94571e-09 1.55962e-08 -7.40086e-09 0 0 -7.12236e-09 4.05252e-09 1.60412e-08 -9.54242e-09 0 0 -1.13554e-08 3.57332e-09 1.2157e-08 -8.13132e-09 0 0 -9.98581e-09 -4.32528e-10 8.9316e-09 -7.85232e-09 0 0 -6.9977e-09 -1.70558e-09 6.40627e-09 -6.90148e-09 0 0 -4.82484e-09 9.22914e-10 -8.65538e-10 -2.35689e-09 0 0 -2.6811e-09 2.96065e-09 -7.74567e-09 2.9697e-09 0 0 -4.87232e-10 1.96502e-09 -8.30465e-09 6.24123e-09 0 0 4.32292e-10 8.57733e-10 -1.01629e-08 1.13759e-08 0 0 3.37338e-09 -1.53601e-09 -1.13855e-08 1.29997e-08 0 0 7.98016e-09 -9.40428e-09 -6.19833e-10 4.82351e-09 0 0 7.55764e-09 -1.07993e-08 4.37981e-09 -2.20083e-09 0 0 6.84828e-09 -6.11747e-09 7.27712e-09 -6.58658e-09 0 0 8.26817e-09 -5.66079e-10 1.63993e-08 -1.42981e-08 0 0 7.72864e-09 3.39643e-09 2.20516e-08 -1.95667e-08 0 0 2.75908e-09 8.75127e-09 2.10387e-08 -2.03518e-08 0 0 -2.84603e-09 1.30682e-08 1.62813e-08 -1.94454e-08 0 0 -5.91235e-09 1.36425e-08 9.45048e-09 -1.54933e-08 0 0 -6.12828e-09 1.23773e-08 3.94806e-09 -1.07123e-08 0 0 -4.14556e-09 7.71309e-09 3.3288e-10 -5.94332e-09 0 0 -2.45644e-10 2.90724e-09 -1.80373e-09 -1.4023e-09 0 0 1.90691e-09 -2.79403e-10 -2.76661e-09 1.01933e-09 0 0 2.5069e-09 -1.66907e-09 -3.20145e-09 1.7158e-09 0 0 2.40725e-09 -1.94228e-09 -3.14689e-09 1.6993e-09 0 0 1.71828e-09 -1.44845e-09 -2.3271e-09 9.1934e-10 0 0 1.1e-09 -2.56451e-10 -1.19592e-09 3.44446e-10 0 0 9.50526e-10 7.55513e-10 -2.31142e-10 2.14852e-10 0 0 8.68381e-10 1.56101e-09 4.0493e-10 2.44359e-10 0 0 9.39785e-10 1.5996e-09 1.19061e-09 7.62997e-11 0 0 1.1289e-09 1.68346e-09 1.80123e-09 6.70413e-11 0 0 1.27208e-09 1.80991e-09 2.00234e-09 2.20781e-10 0 0 1.36975e-09 1.90884e-09 2.13378e-09 6.80133e-10 0 0 1.34253e-09 2.14833e-09 2.04599e-09 1.2888e-09 0 0 1.36041e-09 2.14704e-09 2.14212e-09 1.43466e-09 0 0 1.35128e-09 2.17187e-09 2.22489e-09 1.60398e-09 0 0 1.32695e-09 2.13617e-09 2.31341e-09 1.59092e-09 0 0 1.24986e-09 2.05536e-09 2.24987e-09 1.48349e-09 0 0 1.12962e-09 1.88133e-09 2.00022e-09 1.29604e-09 0 0 9.65854e-10 1.60692e-09 1.67454e-09 1.07391e-09 0 0 7.64383e-10 1.26566e-09 1.30452e-09 8.26915e-10 0 0 5.48261e-10 9.02309e-10 9.2147e-10 5.78878e-10 0 0 3.47063e-10 5.67828e-10 5.75731e-10 3.59531e-10 0 0 1.8984e-10 3.09268e-10 3.12085e-10 1.94083e-10 0 0 8.85136e-11 1.43753e-10 1.44713e-10 8.96774e-11 0 0 3.55657e-11 5.78277e-11 5.79268e-11 3.61033e-11 0 0 1.28472e-11 2.08398e-11 2.09709e-11 1.31283e-11 0 0 4.37299e-12 6.86434e-12 7.35881e-12 4.38091e-12 0 0 1.41142e-12 2.10729e-12 2.49468e-12 1.58066e-12 0 0 4.27701e-13 5.51501e-13 8.56636e-13 7.53708e-13 0 0 3.32874e-14 1.74003e-13 2.17522e-13 5.3582e-13 0 0 -2.41371e-14 -2.11525e-14 5.87437e-14 4.05369e-13 0 0 6.60916e-15 -1.68788e-13 1.16469e-13 2.63187e-13 0 0 3.08084e-14 -2.27703e-13 1.17636e-13 2.94334e-13 0 0 1.33038e-14 -1.04453e-13 -1.37583e-14 3.04765e-13 0 0 -5.50021e-14 -2.52103e-14 -2.86054e-14 2.7703e-13 0 0 -1.19542e-13 2.05603e-15 -4.5324e-14 3.70384e-13 0 0 -1.73934e-13 1.54218e-13 -2.19564e-13 4.81911e-13 0 0 -1.03202e-13 1.32766e-13 -2.07725e-13 4.79026e-13 0 0 -6.00776e-14 2.21953e-14 5.30459e-15 2.64645e-13 0 0 3.0016e-15 -1.5659e-13 1.74272e-13 2.54042e-13 0 0 7.70752e-14 -2.9144e-13 3.01161e-13 3.04262e-13 0 0 8.60002e-14 -3.13592e-13 4.65511e-13 1.36376e-13 0 0 9.54114e-14 -2.87187e-13 4.85033e-13 1.37346e-13 0 0 5.25237e-14 -5.73049e-14 2.36587e-13 2.90672e-13 0 0 -1.24623e-13 3.85134e-13 -2.3351e-13 6.09337e-13 0 0 -2.59228e-14 2.6188e-13 -5.40953e-14 6.03935e-13 0 0 2.04036e-13 1.62569e-14 2.70851e-13 3.36035e-13 0 0 1.59258e-13 2.34133e-13 3.72162e-14 3.38342e-13 0 0 2.77602e-13 1.93302e-13 4.48098e-14 1.99368e-13 0 0 3.06474e-13 2.67927e-13 2.00715e-14 1.1323e-13 0 0 1.99099e-13 2.73031e-13 2.24552e-13 -7.97512e-14 0 0 1.7436e-13 1.46392e-13 5.40522e-13 -3.64075e-13 0 0 3.22963e-13 -2.73142e-14 6.06822e-13 -3.86505e-13 0 0 3.18108e-13 1.27661e-13 1.03481e-13 -3.48823e-14 0 0 3.48734e-13 1.52574e-13 -7.63218e-14 1.06696e-13 0 0 4.82483e-13 4.89403e-14 -7.47461e-14 5.79822e-14 0 0 3.46782e-13 3.48913e-13 -5.10638e-13 1.49669e-13 0 0 9.3904e-14 4.87362e-13 -3.99779e-13 -6.98956e-14 0 0 2.74193e-13 -1.01889e-13 2.69092e-13 -3.93217e-13 0 0 3.70685e-13 -3.50914e-13 2.26023e-13 -7.11114e-14 0 0 2.35278e-13 -2.01712e-13 -1.84724e-13 4.60818e-13 0 0 3.89864e-13 -4.87846e-13 -2.63773e-14 5.04969e-13 0
				</DataArray>
				<DataArray Name="VitesseY" type="Float32" format="ascii">