<?xml version="1.0"?>
<VTKFile type="PolyData">
	<PolyData>
		<Piece NumberOfPoints="1206" NumberOfPolys="1000">
			<Points>
				<DataArray type="Float32" NumberOfComponents="3" format="ascii">
 0 0 0 0.02 0 0 0.04 0 0 0.06 0 0 0.08 0 0 0.1 0 0 0 0.005 0 0.02 0.005 0 0.04 0.005 0 0.06 0.005 0 0.08 0.005 0 0.1 0.005 0 0 0.01 0 0.02 0.01 0 0.04 0.01 0 0.06 0.01 0 0.08 0.01 0 0.1 0.01 0 0 0.015 0 0.02 0.015 0 0.04 0.015 0 0.06 0.015 0 0.08 0.015 0 0.1 0.015 0 0 0.02 0 0.02 0.02 0 0.04 0.02 0 0.06 0.02 0 0.08 0.02 0 0.1 0.02 0 0 0.025 0 0.02 0.025 0 0.04 0.025 0 0.06 0.025 0 0.08 0.025 0 0.1 0.025 0 0 0.03 0 0.02 0.03 0 0.04 0.03 0 0.06 0.03 0 0.08 0.03 0 0.1 0.03 0 0 0.035 0 0.02 0.035 0 0.04 0.035 0 0.06 0.035 0 0.08 0.035 0 0.1 0.035 0 0 0.04 0 0.02 0.04 0 0.04 0.04 0 0.06 0.04 0 0.08 0.04 0 0.1 0.04 0 0 0.045 0 0.02 0.045 0 0.04 0.045 0 0.06 0.045 0 0.08 0.045 0 0.1 0.045 0 0 0.05 0 0.02 0.05 0 0.04 0.05 0 0.06 0.05 0 0.08 0.05 0 0.1 0.05 0 0 0.055 0 0.02 0.055 0 0.04 0.055 0 0.06 0.055 0 0.08 0.055 0 0.1 0.055 0 0 0.06 0 0.02 0.06 0 0.04 0.06 0 0.06 0.06 0 0.08 0.06 0 0.1 0.06 0 0 0.065 0 0.02 0.065 0 0.04 0.065 0 0.06 0.065 0 0.08 0.065 0 0.1 0.065 0 0 0.07 0 0.02 0.07 0 0.04 0.07 0 0.06 0.07 0 0.08 0.07 0 0.1 0.07 0 0 0.075 0 0.02 0.075 0 0.04 0.075 0 0.06 0.075 0 0.08 0.075 0 0.1 0.075 0 0 0.08 0 0.02 0.08 0 0.04 0.08 0 0.06 0.08 0 0.08 0.08 0 0.1 0.08 0 0 0.085 0 0.02 0.085 0 0.04 0.085 0 0.06 0.085 0 0.08 0.085 0 0.1 0.085 0 0 0.09 0 0.02 0.09 0 0.04 0.09 0 0.06 0.09 0 0.08 0.09 0 0.1 0.09 0 0 0.095 0 0.02 0.095 0 0.04 0.095 0 0.06 0.095 0 0.08 0.095 0 0.1 0.095 0 0 0.1 0 0.02 0.1 0 0.04 0.1 0 0.06 0.1 0 0.08 0.1 0 0.1 0.1 0 0 0.105 0 0.02 0.105 0 0.04 0.105 0 0.06 0.105 0 0.08 0.105 0 0.1 0.105 0 0 0.11 0 0.02 0.11 0 0.04 0.11 0 0.06 0.11 0 0.08 0.11 0 0.1 0.11 0 0 0.115 0 0.02 0.115 0 0.04 0.115 0 0.06 0.115 0 0.08 0.115 0 0.1 0.115 0 0 0.12 0 0.02 0.12 0 0.04 0.12 0 0.06 0.12 0 0.08 0.12 0 0.1 0.12 0 0 0.125 0 0.02 0.125 0 0.04 0.125 0 0.06 0.125 0 0.08 0.125 0 0.1 0.125 0 0 0.13 0 0.02 0.13 0 0.04 0.13 0 0.06 0.13 0 0.08 0.13 0 0.1 0.13 0 0 0.135 0 0.02 0.135 0 0.04 0.135 0 0.06 0.135 0 0.08 0.135 0 0.1 0.135 0 0 0.14 0 0.02 0.14 0 0.04 0.14 0 0.06 0.14 0 0.08 0.14 0 0.1 0.14 0 0 0.145 0 0.02 0.145 0 0.04 0.145 0 0.06 0.145 0 0.08 0.145 0 0.1 0.145 0 0 0.15 0 0.02 0.15 0 0.04 0.15 0 0.06 0.15 0 0.08 0.15 0 0.1 0.15 0 0 0.155 0 0.02 0.155 0 0.04 0.155 0 0.06 0.155 0 0.08 0.155 0 0.1 0.155 0 0 0.16 0 0.02 0.16 0 0.04 0.16 0 0.06 0.16 0 0.08 0.16 0 0.1 0.16 0 0 0.165 0 0.02 0.165 0 0.04 0.165 0 0.06 0.165 0 0.08 0.165 0 0.1 0.165 0 0 0.17 0 0.02 0.17 0 0.04 0.17 0 0.06 0.17 0 0.08 0.17 0 0.1 0.17 0 0 0.175 0 0.02 0.175 0 0.04 0.175 0 0.06 0.175 0 0.08 0.175 0 0.1 0.175 0 0 0.18 0 0.02 0.18 0 0.04 0.18 0 0.06 0.18 0 0.08 0.18 0 0.1 0.18 0 0 0.185 0 0.02 0.185 0 0.04 0.185 0 0.06 0.185 0 0.08 0.185 0 0.1 0.185 0 0 0.19 0 0.02 0.19 0 0.04 0.19 0 0.06 0.19 0 0.08 0.19 0 0.1 0.19 0 0 0.195 0 0.02 0.195 0 0.04 0.195 0 0.06 0.195 0 0.08 0.195 0 0.1 0.195 0 0 0.2 0 0.02 0.2 0 0.04 0.2 0 0.06 0.2 0 0.08 0.2 0 0.1 0.2 0 0 0.205 0 0.02 0.205 0 0.04 0.205 0 0.06 0.205 0 0.08 0.205 0 0.1 0.205 0 0 0.21 0 0.02 0.21 0 0.04 0.21 0 0.06 0.21 0 0.08 0.21 0 0.1 0.21 0 0 0.215 0 0.02 0.215 0 0.04 0.215 0 0.06 0.215 0 0.08 0.215 0 0.1 0.215 0 0 0.22 0 0.02 0.22 0 0.04 0.22 0 0.06 0.22 0 0.08 0.22 0 0.1 0.22 0 0 0.225 0 0.02 0.225 0 0.04 0.225 0 0.06 0.225 0 0.08 0.225 0 0.1 0.225 0 0 0.23 0 0.02 0.23 0 0.04 0.23 0 0.06 0.23 0 0.08 0.23 0 0.1 0.23 0 0 0.235 0 0.02 0.235 0 0.04 0.235 0 0.06 0.235 0 0.08 0.235 0 0.1 0.235 0 0 0.24 0 0.02 0.24 0 0.04 0.24 0 0.06 0.24 0 0.08 0.24 0 0.1 0.24 0 0 0.245 0 0.02 0.245 0 0.04 0.245 0 0.06 0.245 0 0.08 0.245 0 0.1 0.245 0 0 0.25 0 0.02 0.25 0 0.04 0.25 0 0.06 0.25 0 0.08 0.25 0 0.1 0.25 0 0 0.255 0 0.02 0.255 0 0.04 0.255 0 0.06 0.255 0 0.08 0.255 0 0.1 0.255 0 0 0.26 0 0.02 0.26 0 0.04 0.26 0 0.06 0.26 0 0.08 0.26 0 0.1 0.26 0 0 0.265 0 0.02 0.265 0 0.04 0.265 0 0.06 0.265 0 0.08 0.265 0 0.1 0.265 0 0 0.27 0 0.02 0.27 0 0.04 0.27 0 0.06 0.27 0 0.08 0.27 0 0.1 0.27 0 0 0.275 0 0.02 0.275 0 0.04 0.275 0 0.06 0.275 0 0.08 0.275 0 0.1 0.275 0 0 0.28 0 0.02 0.28 0 0.04 0.28 0 0.06 0.28 0 0.08 0.28 0 0.1 0.28 0 0 0.285 0 0.02 0.285 0 0.04 0.285 0 0.06 0.285 0 0.08 0.285 0 0.1 0.285 0 0 0.29 0 0.02 0.29 0 0.04 0.29 0 0.06 0.29 0 0.08 0.29 0 0.1 0.29 0 0 0.295 0 0.02 0.295 0 0.04 0.295 0 0.06 0.295 0 0.08 0.295 0 0.1 0.295 0 0 0.3 0 0.02 0.3 0 0.04 0.3 0 0.06 0.3 0 0.08 0.3 0 0.1 0.3 0 0 0.305 0 0.02 0.305 0 0.04 0.305 0 0.06 0.305 0 0.08 0.305 0 0.1 0.305 0 0 0.31 0 0.02 0.31 0 0.04 0.31 0 0.06 0.31 0 0.08 0.31 0 0.1 0.31 0 0 0.315 0 0.02 0.315 0 0.04 0.315 0 0.06 0.315 0 0.08 0.315 0 0.1 0.315 0 0 0.32 0 0.02 0.32 0 0.04 0.32 0 0.06 0.32 0 0.08 0.32 0 0.1 0.32 0 0 0.325 0 0.02 0.325 0 0.04 0.325 0 0.06 0.325 0 0.08 0.325 0 0.1 0.325 0 0 0.33 0 0.02 0.33 0 0.04 0.33 0 0.06 0.33 0 0.08 0.33 0 0.1 0.33 0 0 0.335 0 0.02 0.335 0 0.04 0.335 0 0.06 0.335 0 0.08 0.335 0 0.1 0.335 0 0 0.34 0 0.02 0.34 0 0.04 0.34 0 0.06 0.34 0 0.08 0.34 0 0.1 0.34 0 0 0.345 0 0.02 0.345 0 0.04 0.345 0 0.06 0.345 0 0.08 0.345 0 0.1 0.345 0 0 0.35 0 0.02 0.35 0 0.04 0.35 0 0.06 0.35 0 0.08 0.35 0 0.1 0.35 0 0 0.355 0 0.02 0.355 0 0.04 0.355 0 0.06 0.355 0 0.08 0.355 0 0.1 0.355 0 0 0.36 0 0.02 0.36 0 0.04 0.36 0 0.06 0.36 0 0.08 0.36 0 0.1 0.36 0 0 0.365 0 0.02 0.365 0 0.04 0.365 0 0.06 0.365 0 0.08 0.365 0 0.1 0.365 0 0 0.37 0 0.02 0.37 0 0.04 0.37 0 0.06 0.37 0 0.08 0.37 0 0.1 0.37 0 0 0.375 0 0.02 0.375 0 0.04 0.375 0 0.06 0.375 0 0.08 0.375 0 0.1 0.375 0 0 0.38 0 0.02 0.38 0 0.04 0.38 0 0.06 0.38 0 0.08 0.38 0 0.1 0.38 0 0 0.385 0 0.02 0.385 0 0.04 0.385 0 0.06 0.385 0 0.08 0.385 0 0.1 0.385 0 0 0.39 0 0.02 0.39 0 0.04 0.39 0 0.06 0.39 0 0.08 0.39 0 0.1 0.39 0 0 0.395 0 0.02 0.395 0 0.04 0.395 0 0.06 0.395 0 0.08 0.395 0 0.1 0.395 0 0 0.4 0 0.02 0.4 0 0.04 0.4 0 0.06 0.4 0 0.08 0.4 0 0.1 0.4 0 0 0.405 0 0.02 0.405 0 0.04 0.405 0 0.06 0.405 0 0.08 0.405 0 0.1 0.405 0 0 0.41 0 0.02 0.41 0 0.04 0.41 0 0.06 0.41 0 0.08 0.41 0 0.1 0.41 0 0 0.415 0 0.02 0.415 0 0.04 0.415 0 0.06 0.415 0 0.08 0.415 0 0.1 0.415 0 0 0.42 0 0.02 0.42 0 0.04 0.42 0 0.06 0.42 0 0.08 0.42 0 0.1 0.42 0 0 0.425 0 0.02 0.425 0 0.04 0.425 0 0.06 0.425 0 0.08 0.425 0 0.1 0.425 0 0 0.43 0 0.02 0.43 0 0.04 0.43 0 0.06 0.43 0 0.08 0.43 0 0.1 0.43 0 0 0.435 0 0.02 0.435 0 0.04 0.435 0 0.06 0.435 0 0.08 0.435 0 0.1 0.435 0 0 0.44 0 0.02 0.44 0 0.04 0.44 0 0.06 0.44 0 0.08 0.44 0 0.1 0.44 0 0 0.445 0 0.02 0.445 0 0.04 0.445 0 0.06 0.445 0 0.08 0.445 0 0.1 0.445 0 0 0.45 0 0.02 0.45 0 0.04 0.45 0 0.06 0.45 0 0.08 0.45 0 0.1 0.45 0 0 0.455 0 0.02 0.455 0 0.04 0.455 0 0.06 0.455 0 0.08 0.455 0 0.1 0.455 0 0 0.46 0 0.02 0.46 0 0.04 0.46 0 0.06 0.46 0 0.08 0.46 0 0.1 0.46 0 0 0.465 0 0.02 0.465 0 0.04 0.465 0 0.06 0.465 0 0.08 0.465 0 0.1 0.465 0 0 0.47 0 0.02 0.47 0 0.04 0.47 0 0.06 0.47 0 0.08 0.47 0 0.1 0.47 0 0 0.475 0 0.02 0.475 0 0.04 0.475 0 0.06 0.475 0 0.08 0.475 0 0.1 0.475 0 0 0.48 0 0.02 0.48 0 0.04 0.48 0 0.06 0.48 0 0.08 0.48 0 0.1 0.48 0 0 0.485 0 0.02 0.485 0 0.04 0.485 0 0.06 0.485 0 0.08 0.485 0 0.1 0.485 0 0 0.49 0 0.02 0.49 0 0.04 0.49 0 0.06 0.49 0 0.08 0.49 0 0.1 0.49 0 0 0.495 0 0.02 0.495 0 0.04 0.495 0 0.06 0.495 0 0.08 0.495 0 0.1 0.495 0 0 0.5 0 0.02 0.5 0 0.04 0.5 0 0.06 0.5 0 0.08 0.5 0 0.1 0.5 0 0 0.505 0 0.02 0.505 0 0.04 0.505 0 0.06 0.505 0 0.08 0.505 0 0.1 0.505 0 0 0.51 0 0.02 0.51 0 0.04 0.51 0 0.06 0.51 0 0.08 0.51 0 0.1 0.51 0 0 0.515 0 0.02 0.515 0 0.04 0.515 0 0.06 0.515 0 0.08 0.515 0 0.1 0.515 0 0 0.52 0 0.02 0.52 0 0.04 0.52 0 0.06 0.52 0 0.08 0.52 0 0.1 0.52 0 0 0.525 0 0.02 0.525 0 0.04 0.525 0 0.06 0.525 0 0.08 0.525 0 0.1 0.525 0 0 0.53 0 0.02 0.53 0 0.04 0.53 0 0.06 0.53 0 0.08 0.53 0 0.1 0.53 0 0 0.535 0 0.02 0.535 0 0.04 0.535 0 0.06 0.535 0 0.08 0.535 0 0.1 0.535 0 0 0.54 0 0.02 0.54 0 0.04 0.54 0 0.06 0.54 0 0.08 0.54 0 0.1 0.54 0 0 0.545 0 0.02 0.545 0 0.04 0.545 0 0.06 0.545 0 0.08 0.545 0 0.1 0.545 0 0 0.55 0 0.02 0.55 0 0.04 0.55 0 0.06 0.55 0 0.08 0.55 0 0.1 0.55 0 0 0.555 0 0.02 0.555 0 0.04 0.555 0 0.06 0.555 0 0.08 0.555 0 0.1 0.555 0 0 0.56 0 0.02 0.56 0 0.04 0.56 0 0.06 0.56 0 0.08 0.56 0 0.1 0.56 0 0 0.565 0 0.02 0.565 0 0.04 0.565 0 0.06 0.565 0 0.08 0.565 0 0.1 0.565 0 0 0.57 0 0.02 0.57 0 0.04 0.57 0 0.06 0.57 0 0.08 0.57 0 0.1 0.57 0 0 0.575 0 0.02 0.575 0 0.04 0.575 0 0.06 0.575 0 0.08 0.575 0 0.1 0.575 0 0 0.58 0 0.02 0.58 0 0.04 0.58 0 0.06 0.58 0 0.08 0.58 0 0.1 0.58 0 0 0.585 0 0.02 0.585 0 0.04 0.585 0 0.06 0.585 0 0.08 0.585 0 0.1 0.585 0 0 0.59 0 0.02 0.59 0 0.04 0.59 0 0.06 0.59 0 0.08 0.59 0 0.1 0.59 0 0 0.595 0 0.02 0.595 0 0.04 0.595 0 0.06 0.595 0 0.08 0.595 0 0.1 0.595 0 0 0.6 0 0.02 0.6 0 0.04 0.6 0 0.06 0.6 0 0.08 0.6 0 0.1 0.6 0 0 0.605 0 0.02 0.605 0 0.04 0.605 0 0.06 0.605 0 0.08 0.605 0 0.1 0.605 0 0 0.61 0 0.02 0.61 0 0.04 0.61 0 0.06 0.61 0 0.08 0.61 0 0.1 0.61 0 0 0.615 0 0.02 0.615 0 0.04 0.615 0 0.06 0.615 0 0.08 0.615 0 0.1 0.615 0 0 0.62 0 0.02 0.62 0 0.04 0.62 0 0.06 0.62 0 0.08 0.62 0 0.1 0.62 0 0 0.625 0 0.02 0.625 0 0.04 0.625 0 0.06 0.625 0 0.08 0.625 0 0.1 0.625 0 0 0.63 0 0.02 0.63 0 0.04 0.63 0 0.06 0.63 0 0.08 0.63 0 0.1 0.63 0 0 0.635 0 0.02 0.635 0 0.04 0.635 0 0.06 0.635 0 0.08 0.635 0 0.1 0.635 0 0 0.64 0 0.02 0.64 0 0.04 0.64 0 0.06 0.64 0 0.08 0.64 0 0.1 0.64 0 0 0.645 0 0.02 0.645 0 0.04 0.645 0 0.06 0.645 0 0.08 0.645 0 0.1 0.645 0 0 0.65 0 0.02 0.65 0 0.04 0.65 0 0.06 0.65 0 0.08 0.65 0 0.1 0.65 0 0 0.655 0 0.02 0.655 0 0.04 0.655 0 0.06 0.655 0 0.08 0.655 0 0.1 0.655 0 0 0.66 0 0.02 0.66 0 0.04 0.66 0 0.06 0.66 0 0.08 0.66 0 0.1 0.66 0 0 0.665 0 0.02 0.665 0 0.04 0.665 0 0.06 0.665 0 0.08 0.665 0 0.1 0.665 0 0 0.67 0 0.02 0.67 0 0.04 0.67 0 0.06 0.67 0 0.08 0.67 0 0.1 0.67 0 0 0.675 0 0.02 0.675 0 0.04 0.675 0 0.06 0.675 0 0.08 0.675 0 0.1 0.675 0 0 0.68 0 0.02 0.68 0 0.04 0.68 0 0.06 0.68 0 0.08 0.68 0 0.1 0.68 0 0 0.685 0 0.02 0.685 0 0.04 0.685 0 0.06 0.685 0 0.08 0.685 0 0.1 0.685 0 0 0.69 0 0.02 0.69 0 0.04 0.69 0 0.06 0.69 0 0.08 0.69 0 0.1 
[...]
			<PointData Scalars="VitesseX">
				<DataArray Name="VitesseX" type="Float32" format="ascii">
 0 4.47937e-14 6.66223e-14 6.64216e-14 3.06886e-14 0 0 4.39228e-14 6.24068e-14 6.99231e-14 3.05826e-14 0 0 4.43453e-14 5.03877e-14 8.07097e-14 2.34996e-14 0 0 3.43024e-14 6.42568e-14 6.25621e-14 2.49646e-14 0 0 2.57061e-14 7.52566e-14 4.69943e-14 3.09423e-14 0 0 4.72851e-14 3.44058e-14 7.70803e-14 1.73066e-14 0 0 5.51823e-14 2.41526e-14 7.64983e-14 1.0927e-14 0 0 3.43199e-14 5.829e-14 4.0616e-14 2.47166e-14 0 0 2.06144e-14 7.33029e-14 1.77237e-14 5.00388e-14 0 0 2.61998e-14 6.79091e-14 3.64498e-15 8.29363e-14 0 0 2.20266e-14 6.51885e-14 1.70934e-14 8.2394e-14 0 0 3.69761e-14 2.80022e-14 9.07157e-14 1.65344e-14 0 0 4.70979e-14 1.82041e-14 1.19971e-13 -2.48365e-14 0 0 5.56411e-15 9.98925e-14 3.01545e-14 3.74924e-14 0 0 2.03262e-14 7.39713e-14 6.9882e-14 3.06298e-14 0 0 2.2816e-14 6.71203e-14 9.18783e-14 2.7705e-14 0 0 7.84312e-15 1.01217e-13 4.92668e-14 6.45204e-14 0 0 3.84136e-14 6.71118e-14 8.08799e-14 5.59095e-14 0 0 6.41151e-14 4.99644e-14 8.08338e-14 8.49749e-14 0 0 8.26476e-14 3.46977e-14 9.31958e-14 7.5073e-14 0 0 6.69217e-14 8.43283e-14 4.74504e-14 7.39524e-14 0 0 3.10065e-14 1.55812e-13 -3.23748e-15 7.09052e-14 0 0 5.39858e-14 1.09585e-13 7.74233e-14 6.61527e-15 0 0 5.78048e-14 8.69676e-14 1.2493e-13 -1.87865e-14 0 0 -5.56558e-16 1.70151e-13 4.86728e-14 4.6793e-14 0 0 -6.76936e-15 2.22508e-13 -6.33236e-14 1.63641e-13 0 0 1.01737e-13 5.53914e-14 1.06799e-13 4.94895e-14 0 0 6.43475e-14 1.15317e-13 7.47278e-14 1.6731e-14 0 0 -1.05365e-14 2.88842e-13 -1.3004e-13 8.7799e-14 0 0 5.40028e-14 1.36957e-13 7.99028e-14 -7.46686e-14 0 0 6.83923e-14 5.29385e-14 2.03672e-13 -1.572e-13 0 0 1.00788e-13 1.25287e-14 1.73428e-13 -9.23207e-14 0 0 9.54945e-14 1.48625e-14 1.06788e-13 3.42008e-14 0 0 3.8182e-14 9.7747e-14 4.55804e-14 1.18261e-13 0 0 -1.33669e-14 1.84638e-13 2.08163e-14 1.66699e-13 0 0 -1.38801e-14 1.90223e-13 7.79108e-14 1.12033e-13 0 0 5.26068e-14 1.07006e-13 1.87743e-13 4.19194e-14 0 0 1.18463e-13 5.15628e-14 1.70585e-13 1.61208e-13 0 0 7.9918e-14 1.55778e-13 1.32748e-14 2.88835e-13 0 0 4.63189e-14 2.01698e-13 1.81803e-14 2.10366e-13 0 0 1.17953e-13 4.00162e-14 2.22005e-13 3.75643e-14 0 0 1.30705e-13 1.22466e-14 2.06466e-13 3.96171e-14 0 0 3.76934e-14 2.01524e-13 -1.99783e-14 1.2924e-13 0 0 8.2448e-14 1.70593e-13 -1.09614e-14 6.10524e-14 0 0 1.29777e-13 5.7494e-14 1.0622e-13 -5.07894e-14 0 0 1.15158e-13 2.61401e-14 1.59054e-13 -1.23543e-13 0 0 1.23599e-13 5.96857e-14 9.55345e-14 -4.99399e-14 0 0 5.15238e-14 1.80112e-13 2.55401e-14 6.48189e-14 0 0 -2.54997e-16 2.14125e-13 4.23561e-14 1.54247e-13 0 0 3.4509e-14 2.09201e-13 9.61117e-14 1.2056e-13 0 0 7.15963e-14 2.4495e-13 1.46254e-13 -5.31117e-14 0 0 5.75674e-14 2.7316e-13 2.05512e-13 -1.63673e-13 0 0 9.76254e-14 1.64573e-13 4.3537e-13 -2.64319e-13 0 0 5.3355e-15 3.61559e-13 3.0978e-13 -1.29803e-13 0 0 -5.40797e-14 5.42948e-13 8.04711e-14 8.28691e-14 0 0 3.92867e-14 3.99418e-13 1.894e-13 7.37803e-14 0 0 2.04325e-13 1.99827e-13 3.80688e-13 2.06395e-14 0 0 2.56094e-13 2.76652e-13 5.47918e-13 1.50483e-13 0 0 3.31644e-13 1.01843e-12 8.9709e-13 6.56403e-13 0 0 1.43695e-12 2.54916e-12 2.69648e-12 1.60982e-12 0 0 4.53546e-12 7.30758e-12 7.67133e-12 4.55186e-12 0 0 1.22613e-11 2.02948e-11 2.03305e-11 1.26075e-11 0 0 3.05072e-11 4.99435e-11 5.00808e-11 3.08317e-11 0 0 6.76011e-11 1.10039e-10 1.09967e-10 6.78514e-11 0 0 1.33299e-10 2.15905e-10 2.1576e-10 1.33214e-10 0 0 2.34585e-10 3.79437e-10 3.78979e-10 2.34088e-10 0 0 3.72428e-10 6.01903e-10 6.01096e-10 3.71152e-10 0 0 5.39948e-10 8.71669e-10 8.70596e-10 5.37076e-10 0 0 7.23338e-10 1.16754e-09 1.16463e-09 7.18508e-10 0 0 9.05838e-10 1.46123e-09 1.45581e-09 8.97286e-10 0 0 1.07088e-09 1.72555e-09 1.71659e-09 1.05664e-09 0 0 1.20482e-09 1.93835e-09 1.9249e-09 1.18298e-09 0 0 1.29762e-09 2.0845e-09 2.0653e-09 1.26729e-09 0 0 1.34534e-09 2.15755e-09 2.13289e-09 1.30657e-09 0 0 1.33675e-09 2.13919e-09 2.11014e-09 1.28909e-09 0 0 1.2766e-09 2.04104e-09 2.00965e-09 1.22632e-09 0 0 1.15896e-09 1.8518e-09 1.82094e-09 1.11123e-09 0 0 9.83419e-10 1.57314e-09 1.55036e-09 9.47348e-10 0 0 7.52613e-10 1.21124e-09 1.20382e-09 7.40052e-10 0 0 4.68895e-10 7.72436e-10 7.87391e-10 4.95094e-10 0 0 1.36989e-10 2.61809e-10 3.10738e-10 2.16448e-10 0 0 -2.39975e-10 -3.12359e-10 -2.19989e-10 -9.00776e-11 0 0 -6.54211e-10 -9.39789e-10 -7.95498e-10 -4.18176e-10 0 0 -1.10928e-09 -1.62257e-09 -1.41225e-09 -7.69566e-10 0 0 -1.57576e-09 -2.32511e-09 -2.0532e-09 -1.12771e-09 0 0 -2.09053e-09 -3.09341e-09 -2.73452e-09 -1.51322e-09 0 0 -2.59348e-09 -3.84701e-09 -3.41554e-09 -1.89619e-09 0 0 -3.12348e-09 -4.64323e-09 -4.13108e-09 -2.29605e-09 0 0 -3.65363e-09 -5.44289e-09 -4.85989e-09 -2.71122e-09 0 0 -4.17307e-09 -6.22972e-09 -5.57952e-09 -3.12498e-09 0 0 -4.68111e-09 -7.01597e-09 -6.32173e-09 -3.55331e-09 0 0 -5.17509e-09 -7.79396e-09 -7.07109e-09 -4.00345e-09 0 0 -5.64428e-09 -8.54789e-09 -7.81619e-09 -4.4617e-09 0 0 -6.08133e-09 -9.27171e-09 -8.54968e-09 -4.92085e-09 0 0 -6.48931e-09 -9.97756e-09 -9.31166e-09 -5.42099e-09 0 0 -6.86561e-09 -1.07028e-08 -1.01102e-08 -5.82009e-09 0 0 -7.17836e-09 -1.13871e-08 -1.08493e-08 -6.36254e-09 0 0 -5.97143e-09 -1.31713e-08 -1.26708e-08 -5.1608e-09 0 0 7.29649e-09 -2.39913e-08 -2.55495e-08 1.05161e-08 0 0 -2.43583e-08 -8.50371e-09 -6.08281e-09 -1.94932e-08 0 0 -1.17631e-07 4.2881e-08 6.21565e-08 -1.1814e-07 0 0 -8.98996e-08 3.13785e-08 4.9225e-08 -9.48907e-08 0 0 4.97387e-08 -3.68608e-08 -4.16143e-08 4.50503e-08 0 0 2.41695e-07 -1.35478e-07 -1.5902e-07 2.28589e-07 0 0 2.51266e-07 -1.40478e-07 -1.56071e-07 2.2955e-07 0 0 1.5753e-07 -8.81055e-08 -7.55698e-08 1.1872e-07 0 0 -3.48866e-08 3.07113e-08 3.27119e-08 -5.3204e-08 0 0 -1.119e-07 8.12223e-08 5.74459e-08 -1.00157e-07 0 0 -1.11949e-07 8.13068e-08 5.06006e-08 -9.28555e-08 0 0 -1.02053e-07 7.06619e-08 4.46083e-08 -8.13777e-08 0 0 -9.42897e-08 4.93116e-08 6.46468e-08 -9.1433e-08 0 0 -7.43988e-08 2.50225e-08 6.27381e-08 -8.19953e-08 0 0 -2.22711e-08 3.07114e-09 2.70881e-08 -2.72439e-08 0 0 3.02951e-08 -1.48155e-08 -1.25286e-08 3.39328e-08 0 0 4.8345e-08 -1.59875e-08 -2.71091e-08 5.43577e-08 0 0 4.57399e-08 -1.26175e-08 -2.57015e-08 5.16171e-08 0 0 3.44365e-08 -6.88968e-09 -1.06318e-08 3.29521e-08 0 0 1.93768e-08 -2.03556e-09 7.29218e-09 8.50476e-09 0 0 7.60408e-09 1.52396e-09 5.95776e-09 7.27576e-09 0 0 -2.98631e-09 8.70377e-10 5.93648e-09 5.72278e-09 0 0 -7.24446e-09 -3.99327e-10 7.62856e-09 -1.55114e-09 0 0 -6.93769e-09 3.82701e-10 7.39781e-09 -6.90746e-09 0 0 -6.75437e-09 4.43383e-09 4.091e-09 -6.0662e-09 0 0 -5.91513e-09 5.88446e-09 2.24082e-10 -3.5491e-09 0 0 -3.78266e-09 4.12761e-09 -8.23205e-10 -1.55287e-09 0 0 -2.14717e-09 1.07137e-09 -3.43709e-09 3.57482e-09 0 0 2.6462e-09 -4.31507e-09 -7.33767e-09 9.40425e-09 0 0 1.02772e-08 -1.49828e-08 1.9464e-09 3.03609e-09 0 0 1.10962e-08 -1.80141e-08 2.10958e-08 -1.70935e-08 0 0 7.28474e-09 -9.14006e-09 1.81407e-08 -1.76224e-08 0 0 -1.20331e-09 7.70846e-09 1.50477e-08 -1.79265e-08 0 0 -5.31834e-09 1.42574e-08 1.95304e-08 -2.49938e-08 0 0 -6.21612e-09 1.6788e-08 1.94523e-08 -2.56505e-08 0 0 -5.27246e-09 1.66168e-08 1.50793e-08 -2.15897e-08 0 0 -2.88324e-09 1.3597e-08 7.37646e-09 -1.29301e-08 0 0 -7.92299e-10 9.06108e-09 6.46481e-10 -5.25355e-09 0 0 2.13315e-09 4.26427e-09 -3.54919e-09 8.00365e-10 0 0 5.25933e-09 -5.25665e-10 -4.74711e-09 4.24726e-09 0 0 5.64247e-09 -1.9591e-09 -4.72619e-09 4.55848e-09 0 0 4.34797e-09 -1.48959e-09 -3.45151e-09 3.70856e-09 0 0 2.53464e-09 -1.19768e-10 -1.54655e-09 2.23998e-09 0 0 1.66348e-09 1.0769e-09 4.38915e-11 1.10426e-09 0 0 1.34432e-09 1.9731e-09 1.24202e-09 7.57357e-10 0 0 1.28857e-09 2.58183e-09 2.08323e-09 6.33303e-10 0 0 1.30643e-09 2.91267e-09 2.56659e-09 6.79688e-10 0 0 1.49287e-09 2.86687e-09 3.10699e-09 6.97366e-10 0 0 1.71291e-09 2.85445e-09 3.26732e-09 9.45506e-10 0 0 1.75415e-09 2.92609e-09 3.14585e-09 1.60995e-09 0 0 1.78866e-09 2.92417e-09 3.07723e-09 1.95744e-09 0 0 1.76577e-09 2.91753e-09 2.94882e-09 2.18464e-09 0 0 1.72649e-09 2.80769e-09 2.9666e-09 2.1618e-09 0 0 1.62657e-09 2.67561e-09 2.89233e-09 1.9917e-09 0 0 1.48211e-09 2.46346e-09 2.62643e-09 1.72599e-09 0 0 1.28445e-09 2.13543e-09 2.23124e-09 1.43829e-09 0 0 1.03754e-09 1.71664e-09 1.77072e-09 1.12489e-09 0 0 7.65431e-10 1.25863e-09 1.28506e-09 8.07397e-10 0 0 5.02576e-10 8.21468e-10 8.31676e-10 5.18968e-10 0 0 2.87441e-10 4.67912e-10 4.71117e-10 2.92982e-10 0 0 1.40401e-10 2.28189e-10 2.28884e-10 1.41801e-10 0 0 5.84939e-11 9.51638e-11 9.51585e-11 5.88076e-11 0 0 2.16092e-11 3.47729e-11 3.51407e-11 2.14777e-11 0 0 7.35749e-12 1.16933e-11 1.20671e-11 7.18988e-12 0 0 2.25385e-12 4.00729e-12 3.77133e-12 2.51215e-12 0 0 6.44711e-13 1.36332e-12 1.1473e-12 1.07216e-12 0 0 2.64159e-13 3.16411e-13 5.24665e-13 5.68498e-13 0 0 6.40728e-14 1.22517e-13 2.50105e-13 3.37527e-13 0 0 1.02942e-13 -7.18175e-14 3.24477e-13 1.82403e-13 0 0 1.30036e-13 -1.3472e-13 3.95267e-13 1.14125e-13 0 0 -1.33119e-15 1.01997e-13 1.32146e-13 2.77357e-13 0 0 7.76289e-14 7.89747e-14 1.45401e-13 2.8457e-13 0 0 1.79682e-13 -3.31073e-14 3.06943e-13 1.95089e-13 0 0 1.10026e-13 9.79632e-14 1.8687e-13 2.70355e-13 0 0 1.16963e-13 1.33693e-13 1.36188e-13 3.57485e-13 0 0 1.95785e-13 2.53068e-14 2.8825e-13 3.15602e-13 0 0 9.04226e-14 1.65207e-13 2.27402e-13 2.42393e-13 0 0 5.09327e-14 2.35802e-13 1.38625e-13 2.75861e-13 0 0 3.74318e-14 2.64256e-13 8.83845e-14 4.03875e-13 0 0 1.07448e-13 1.51993e-13 1.80934e-13 4.5724e-13 0 0 2.47656e-13 -8.35111e-14 4.55168e-13 3.30979e-13 0 0 2.66049e-13 -1.15054e-13 5.24382e-13 3.52401e-13 0 0 2.71251e-13 -1.41119e-13 6.45012e-13 2.93138e-13 0 0 1.67225e-13 3.3151e-15 6.30235e-13 2.69071e-13 0 0 5.97342e-14 3.21637e-13 2.63151e-13 6.19475e-13 0 0 1.25925e-13 4.25628e-13 4.07089e-14 6.63784e-13 0 0 2.46408e-13 3.45591e-13 9.26333e-14 3.86988e-13 0 0 2.5875e-13 2.36543e-13 4.0771e-13 1.37598e-13 0 0 1.77847e-13 2.01897e-13 6.35296e-13 7.94789e-14 0 0 2.48536e-13 2.93219e-13 3.47639e-13 3.04793e-13 0 0 3.5407e-13 3.18928e-13 1.69157e-13 3.96713e-13 0 0 4.01607e-13 1.52924e-13 3.70717e-13 2.41485e-13 0 0 3.20619e-13 1.71156e-13 4.36863e-13 -2.86749e-14 0 0 4.02975e-13 1.032e-13 6.25031e-13 -4.37574e-13 0 0 5.01403e-13 1.92575e-13 3.36406e-13 -3.14335e-13 0 0 3.10894e-13 5.69102e-13 -3.49081e-13 1.53335e-13 0 0 2.41369e-13 6.07641e-13 -2.95097e-13 1.54899e-14 0 0 3.56071e-13 3.9318e-13 -3.85579e-14 -1.35247e-13 0 0 4.40384e-13 1.7238e-13 6.13614e-15 8.89218e-14 0 0 5.48326e-13 -2.48356e-13 3.55216e-13 6.91748e-14 0 0 3.68336e-13 -1.0282e-13 7.89574e-14 3.61355e-13 0 0 1.022e-13 3.13866e-13 -5.9674e-13 9.10369e-13 0 0 1.63085e-13 1.87972e-13 -6.51148e-13 1.02771e-12 0
				</DataArray>
				<DataArray Name="VitesseY" type="Float32" format="ascii">