<?xml version="1.0"?>
<VTKFile type="PolyData">
	<PolyData>
		<Piece NumberOfPoints="1206" NumberOfPolys="1000">
			<Points>
				<DataArray type="Float32" NumberOfComponents="3" format="ascii">
 0 0 0 0.02 0 0 0.04 0 0 0.06 0 0 0.08 0 0 0.1 0 0 0 0.005 0 0.02 0.005 0 0.04 0.005 0 0.06 0.005 0 0.08 0.005 0 0.1 0.005 0 0 0.01 0 0.02 0.01 0 0.04 0.01 0 0.06 0.01 0 0.08 0.01 0 0.1 0.01 0 0 0.015 0 0.02 0.015 0 0.04 0.015 0 0.06 0.015 0 0.08 0.015 0 0.1 0.015 0 0 0.02 0 0.02 0.02 0 0.04 0.02 0 0.06 0.02 0 0.08 0.02 0 0.1 0.02 0 0 0.025 0 0.02 0.025 0 0.04 0.025 0 0.06 0.025 0 0.08 0.025 0 0.1 0.025 0 0 0.03 0 0.02 0.03 0 0.04 0.03 0 0.06 0.03 0 0.08 0.03 0 0.1 0.03 0 0 0.035 0 0.02 0.035 0 0.04 0.035 0 0.06 0.035 0 0.08 0.035 0 0.1 0.035 0 0 0.04 0 0.02 0.04 0 0.04 0.04 0 0.06 0.04 0 0.08 0.04 0 0.1 0.04 0 0 0.045 0 0.02 0.045 0 0.04 0.045 0 0.06 0.045 0 0.08 0.045 0 0.1 0.045 0 0 0.05 0 0.02 0.05 0 0.04 0.05 0 0.06 0.05 0 0.08 0.05 0 0.1 0.05 0 0 0.055 0 0.02 0.055 0 0.04 0.055 0 0.06 0.055 0 0.08 0.055 0 0.1 0.055 0 0 0.06 0 0.02 0.06 0 0.04 0.06 0 0.06 0.06 0 0.08 0.06 0 0.1 0.06 0 0 0.065 0 0.02 0.065 0 0.04 0.065 0 0.06 0.065 0 0.08 0.065 0 0.1 0.065 0 0 0.07 0 0.02 0.07 0 0.04 0.07 0 0.06 0.07 0 0.08 0.07 0 0.1 0.07 0 0 0.075 0 0.02 0.075 0 0.04 0.075 0 0.06 0.075 0 0.08 0.075 0 0.1 0.075 0 0 0.08 0 0.02 0.08 0 0.04 0.08 0 0.06 0.08 0 0.08 0.08 0 0.1 0.08 0 0 0.085 0 0.02 0.085 0 0.04 0.085 0 0.06 0.085 0 0.08 0.085 0 0.1 0.085 0 0 0.09 0 0.02 0.09 0 0.04 0.09 0 0.06 0.09 0 0.08 0.09 0 0.1 0.09 0 0 0.095 0 0.02 0.095 0 0.04 0.095 0 0.06 0.095 0 0.08 0.095 0 0.1 0.095 0 0 0.1 0 0.02 0.1 0 0.04 0.1 0 0.06 0.1 0 0.08 0.1 0 0.1 0.1 0 0 0.105 0 0.02 0.105 0 0.04 0.105 0 0.06 0.105 0 0.08 0.105 0 0.1 0.105 0 0 0.11 0 0.02 0.11 0 0.04 0.11 0 0.06 0.11 0 0.08 0.11 0 0.1 0.11 0 0 0.115 0 0.02 0.115 0 0.04 0.115 0 0.06 0.115 0 0.08 0.115 0 0.1 0.115 0 0 0.12 0 0.02 0.12 0 0.04 0.12 0 0.06 0.12 0 0.08 0.12 0 0.1 0.12 0 0 0.125 0 0.02 0.125 0 0.04 0.125 0 0.06 0.125 0 0.08 0.125 0 0.1 0.125 0 0 0.13 0 0.02 0.13 0 0.04 0.13 0 0.06 0.13 0 0.08 0.13 0 0.1 0.13 0 0 0.135 0 0.02 0.135 0 0.04 0.135 0 0.06 0.135 0 0.08 0.135 0 0.1 0.135 0 0 0.14 0 0.02 0.14 0 0.04 0.14 0 0.06 0.14 0 0.08 0.14 0 0.1 0.14 0 0 0.145 0 0.02 0.145 0 0.04 0.145 0 0.06 0.145 0 0.08 0.145 0 0.1 0.145 0 0 0.15 0 0.02 0.15 0 0.04 0.15 0 0.06 0.15 0 0.08 0.15 0 0.1 0.15 0 0 0.155 0 0.02 0.155 0 0.04 0.155 0 0.06 0.155 0 0.08 0.155 0 0.1 0.155 0 0 0.16 0 0.02 0.16 0 0.04 0.16 0 0.06 0.16 0 0.08 0.16 0 0.1 0.16 0 0 0.165 0 0.02 0.165 0 0.04 0.165 0 0.06 0.165 0 0.08 0.165 0 0.1 0.165 0 0 0.17 0 0.02 0.17 0 0.04 0.17 0 0.06 0.17 0 0.08 0.17 0 0.1 0.17 0 0 0.175 0 0.02 0.175 0 0.04 0.175 0 0.06 0.175 0 0.08 0.175 0 0.1 0.175 0 0 0.18 0 0.02 0.18 0 0.04 0.18 0 0.06 0.18 0 0.08 0.18 0 0.1 0.18 0 0 0.185 0 0.02 0.185 0 0.04 0.185 0 0.06 0.185 0 0.08 0.185 0 0.1 0.185 0 0 0.19 0 0.02 0.19 0 0.04 0.19 0 0.06 0.19 0 0.08 0.19 0 0.1 0.19 0 0 0.195 0 0.02 0.195 0 0.04 0.195 0 0.06 0.195 0 0.08 0.195 0 0.1 0.195 0 0 0.2 0 0.02 0.2 0 0.04 0.2 0 0.06 0.2 0 0.08 0.2 0 0.1 0.2 0 0 0.205 0 0.02 0.205 0 0.04 0.205 0 0.06 0.205 0 0.08 0.205 0 0.1 0.205 0 0 0.21 0 0.02 0.21 0 0.04 0.21 0 0.06 0.21 0 0.08 0.21 0 0.1 0.21 0 0 0.215 0 0.02 0.215 0 0.04 0.215 0 0.06 0.215 0 0.08 0.215 0 0.1 0.215 0 0 0.22 0 0.02 0.22 0 0.04 0.22 0 0.06 0.22 0 0.08 0.22 0 0.1 0.22 0 0 0.225 0 0.02 0.225 0 0.04 0.225 0 0.06 0.225 0 0.08 0.225 0 0.1 0.225 0 0 0.23 0 0.02 0.23 0 0.04 0.23 0 0.06 0.23 0 0.08 0.23 0 0.1 0.23 0 0 0.235 0 0.02 0.235 0 0.04 0.235 0 0.06 0.235 0 0.08 0.235 0 0.1 0.235 0 0 0.24 0 0.02 0.24 0 0.04 0.24 0 0.06 0.24 0 0.08 0.24 0 0.1 0.24 0 0 0.245 0 0.02 0.245 0 0.04 0.245 0 0.06 0.245 0 0.08 0.245 0 0.1 0.245 0 0 0.25 0 0.02 0.25 0 0.04 0.25 0 0.06 0.25 0 0.08 0.25 0 0.1 0.25 0 0 0.255 0 0.02 0.255 0 0.04 0.255 0 0.06 0.255 0 0.08 0.255 0 0.1 0.255 0 0 0.26 0 0.02 0.26 0 0.04 0.26 0 0.06 0.26 0 0.08 0.26 0 0.1 0.26 0 0 0.265 0 0.02 0.265 0 0.04 0.265 0 0.06 0.265 0 0.08 0.265 0 0.1 0.265 0 0 0.27 0 0.02 0.27 0 0.04 0.27 0 0.06 0.27 0 0.08 0.27 0 0.1 0.27 0 0 0.275 0 0.02 0.275 0 0.04 0.275 0 0.06 0.275 0 0.08 0.275 0 0.1 0.275 0 0 0.28 0 0.02 0.28 0 0.04 0.28 0 0.06 0.28 0 0.08 0.28 0 0.1 0.28 0 0 0.285 0 0.02 0.285 0 0.04 0.285 0 0.06 0.285 0 0.08 0.285 0 0.1 0.285 0 0 0.29 0 0.02 0.29 0 0.04 0.29 0 0.06 0.29 0 0.08 0.29 0 0.1 0.29 0 0 0.295 0 0.02 0.295 0 0.04 0.295 0 0.06 0.295 0 0.08 0.295 0 0.1 0.295 0 0 0.3 0 0.02 0.3 0 0.04 0.3 0 0.06 0.3 0 0.08 0.3 0 0.1 0.3 0 0 0.305 0 0.02 0.305 0 0.04 0.305 0 0.06 0.305 0 0.08 0.305 0 0.1 0.305 0 0 0.31 0 0.02 0.31 0 0.04 0.31 0 0.06 0.31 0 0.08 0.31 0 0.1 0.31 0 0 0.315 0 0.02 0.315 0 0.04 0.315 0 0.06 0.315 0 0.08 0.315 0 0.1 0.315 0 0 0.32 0 0.02 0.32 0 0.04 0.32 0 0.06 0.32 0 0.08 0.32 0 0.1 0.32 0 0 0.325 0 0.02 0.325 0 0.04 0.325 0 0.06 0.325 0 0.08 0.325 0 0.1 0.325 0 0 0.33 0 0.02 0.33 0 0.04 0.33 0 0.06 0.33 0 0.08 0.33 0 0.1 0.33 0 0 0.335 0 0.02 0.335 0 0.04 0.335 0 0.06 0.335 0 0.08 0.335 0 0.1 0.335 0 0 0.34 0 0.02 0.34 0 0.04 0.34 0 0.06 0.34 0 0.08 0.34 0 0.1 0.34 0 0 0.345 0 0.02 0.345 0 0.04 0.345 0 0.06 0.345 0 0.08 0.345 0 0.1 0.345 0 0 0.35 0 0.02 0.35 0 0.04 0.35 0 0.06 0.35 0 0.08 0.35 0 0.1 0.35 0 0 0.355 0 0.02 0.355 0 0.04 0.355 0 0.06 0.355 0 0.08 0.355 0 0.1 0.355 0 0 0.36 0 0.02 0.36 0 0.04 0.36 0 0.06 0.36 0 0.08 0.36 0 0.1 0.36 0 0 0.365 0 0.02 0.365 0 0.04 0.365 0 0.06 0.365 0 0.08 0.365 0 0.1 0.365 0 0 0.37 0 0.02 0.37 0 0.04 0.37 0 0.06 0.37 0 0.08 0.37 0 0.1 0.37 0 0 0.375 0 0.02 0.375 0 0.04 0.375 0 0.06 0.375 0 0.08 0.375 0 0.1 0.375 0 0 0.38 0 0.02 0.38 0 0.04 0.38 0 0.06 0.38 0 0.08 0.38 0 0.1 0.38 0 0 0.385 0 0.02 0.385 0 0.04 0.385 0 0.06 0.385 0 0.08 0.385 0 0.1 0.385 0 0 0.39 0 0.02 0.39 0 0.04 0.39 0 0.06 0.39 0 0.08 0.39 0 0.1 0.39 0 0 0.395 0 0.02 0.395 0 0.04 0.395 0 0.06 0.395 0 0.08 0.395 0 0.1 0.395 0 0 0.4 0 0.02 0.4 0 0.04 0.4 0 0.06 0.4 0 0.08 0.4 0 0.1 0.4 0 0 0.405 0 0.02 0.405 0 0.04 0.405 0 0.06 0.405 0 0.08 0.405 0 0.1 0.405 0 0 0.41 0 0.02 0.41 0 0.04 0.41 0 0.06 0.41 0 0.08 0.41 0 0.1 0.41 0 0 0.415 0 0.02 0.415 0 0.04 0.415 0 0.06 0.415 0 0.08 0.415 0 0.1 0.415 0 0 0.42 0 0.02 0.42 0 0.04 0.42 0 0.06 0.42 0 0.08 0.42 0 0.1 0.42 0 0 0.425 0 0.02 0.425 0 0.04 0.425 0 0.06 0.425 0 0.08 0.425 0 0.1 0.425 0 0 0.43 0 0.02 0.43 0 0.04 0.43 0 0.06 0.43 0 0.08 0.43 0 0.1 0.43 0 0 0.435 0 0.02 0.435 0 0.04 0.435 0 0.06 0.435 0 0.08 0.435 0 0.1 0.435 0 0 0.44 0 0.02 0.44 0 0.04 0.44 0 0.06 0.44 0 0.08 0.44 0 0.1 0.44 0 0 0.445 0 0.02 0.445 0 0.04 0.445 0 0.06 0.445 0 0.08 0.445 0 0.1 0.445 0 0 0.45 0 0.02 0.45 0 0.04 0.45 0 0.06 0.45 0 0.08 0.45 0 0.1 0.45 0 0 0.455 0 0.02 0.455 0 0.04 0.455 0 0.06 0.455 0 0.08 0.455 0 0.1 0.455 0 0 0.46 0 0.02 0.46 0 0.04 0.46 0 0.06 0.46 0 0.08 0.46 0 0.1 0.46 0 0 0.465 0 0.02 0.465 0 0.04 0.465 0 0.06 0.465 0 0.08 0.465 0 0.1 0.465 0 0 0.47 0 0.02 0.47 0 0.04 0.47 0 0.06 0.47 0 0.08 0.47 0 0.1 0.47 0 0 0.475 0 0.02 0.475 0 0.04 0.475 0 0.06 0.475 0 0.08 0.475 0 0.1 0.475 0 0 0.48 0 0.02 0.48 0 0.04 0.48 0 0.06 0.48 0 0.08 0.48 0 0.1 0.48 0 0 0.485 0 0.02 0.485 0 0.04 0.485 0 0.06 0.485 0 0.08 0.485 0 0.1 0.485 0 0 0.49 0 0.02 0.49 0 0.04 0.49 0 0.06 0.49 0 0.08 0.49 0 0.1 0.49 0 0 0.495 0 0.02 0.495 0 0.04 0.495 0 0.06 0.495 0 0.08 0.495 0 0.1 0.495 0 0 0.5 0 0.02 0.5 0 0.04 0.5 0 0.06 0.5 0 0.08 0.5 0 0.1 0.5 0 0 0.505 0 0.02 0.505 0 0.04 0.505 0 0.06 0.505 0 0.08 0.505 0 0.1 0.505 0 0 0.51 0 0.02 0.51 0 0.04 0.51 0 0.06 0.51 0 0.08 0.51 0 0.1 0.51 0 0 0.515 0 0.02 0.515 0 0.04 0.515 0 0.06 0.515 0 0.08 0.515 0 0.1 0.515 0 0 0.52 0 0.02 0.52 0 0.04 0.52 0 0.06 0.52 0 0.08 0.52 0 0.1 0.52 0 0 0.525 0 0.02 0.525 0 0.04 0.525 0 0.06 0.525 0 0.08 0.525 0 0.1 0.525 0 0 0.53 0 0.02 0.53 0 0.04 0.53 0 0.06 0.53 0 0.08 0.53 0 0.1 0.53 0 0 0.535 0 0.02 0.535 0 0.04 0.535 0 0.06 0.535 0 0.08 0.535 0 0.1 0.535 0 0 0.54 0 0.02 0.54 0 0.04 0.54 0 0.06 0.54 0 0.08 0.54 0 0.1 0.54 0 0 0.545 0 0.02 0.545 0 0.04 0.545 0 0.06 0.545 0 0.08 0.545 0 0.1 0.545 0 0 0.55 0 0.02 0.55 0 0.04 0.55 0 0.06 0.55 0 0.08 0.55 0 0.1 0.55 0 0 0.555 0 0.02 0.555 0 0.04 0.555 0 0.06 0.555 0 0.08 0.555 0 0.1 0.555 0 0 0.56 0 0.02 0.56 0 0.04 0.56 0 0.06 0.56 0 0.08 0.56 0 0.1 0.56 0 0 0.565 0 0.02 0.565 0 0.04 0.565 0 0.06 0.565 0 0.08 0.565 0 0.1 0.565 0 0 0.57 0 0.02 0.57 0 0.04 0.57 0 0.06 0.57 0 0.08 0.57 0 0.1 0.57 0 0 0.575 0 0.02 0.575 0 0.04 0.575 0 0.06 0.575 0 0.08 0.575 0 0.1 0.575 0 0 0.58 0 0.02 0.58 0 0.04 0.58 0 0.06 0.58 0 0.08 0.58 0 0.1 0.58 0 0 0.585 0 0.02 0.585 0 0.04 0.585 0 0.06 0.585 0 0.08 0.585 0 0.1 0.585 0 0 0.59 0 0.02 0.59 0 0.04 0.59 0 0.06 0.59 0 0.08 0.59 0 0.1 0.59 0 0 0.595 0 0.02 0.595 0 0.04 0.595 0 0.06 0.595 0 0.08 0.595 0 0.1 0.595 0 0 0.6 0 0.02 0.6 0 0.04 0.6 0 0.06 0.6 0 0.08 0.6 0 0.1 0.6 0 0 0.605 0 0.02 0.605 0 0.04 0.605 0 0.06 0.605 0 0.08 0.605 0 0.1 0.605 0 0 0.61 0 0.02 0.61 0 0.04 0.61 0 0.06 0.61 0 0.08 0.61 0 0.1 0.61 0 0 0.615 0 0.02 0.615 0 0.04 0.615 0 0.06 0.615 0 0.08 0.615 0 0.1 0.615 0 0 0.62 0 0.02 0.62 0 0.04 0.62 0 0.06 0.62 0 0.08 0.62 0 0.1 0.62 0 0 0.625 0 0.02 0.625 0 0.04 0.625 0 0.06 0.625 0 0.08 0.625 0 0.1 0.625 0 0 0.63 0 0.02 0.63 0 0.04 0.63 0 0.06 0.63 0 0.08 0.63 0 0.1 0.63 0 0 0.635 0 0.02 0.635 0 0.04 0.635 0 0.06 0.635 0 0.08 0.635 0 0.1 0.635 0 0 0.64 0 0.02 0.64 0 0.04 0.64 0 0.06 0.64 0 0.08 0.64 0 0.1 0.64 0 0 0.645 0 0.02 0.645 0 0.04 0.645 0 0.06 0.645 0 0.08 0.645 0 0.1 0.645 0 0 0.65 0 0.02 0.65 0 0.04 0.65 0 0.06 0.65 0 0.08 0.65 0 0.1 0.65 0 0 0.655 0 0.02 0.655 0 0.04 0.655 0 0.06 0.655 0 0.08 0.655 0 0.1 0.655 0 0 0.66 0 0.02 0.66 0 0.04 0.66 0 0.06 0.66 0 0.08 0.66 0 0.1 0.66 0 0 0.665 0 0.02 0.665 0 0.04 0.665 0 0.06 0.665 0 0.08 0.665 0 0.1 0.665 0 0 0.67 0 0.02 0.67 0 0.04 0.67 0 0.06 0.67 0 0.08 0.67 0 0.1 0.67 0 0 0.675 0 0.02 0.675 0 0.04 0.675 0 0.06 0.675 0 0.08 0.675 0 0.1 0.675 0 0 0.68 0 0.02 0.68 0 0.04 0.68 0 0.06 0.68 0 0.08 0.68 0 0.1 0.68 0 0 0.685 0 0.02 0.685 0 0.04 0.685 0 0.06 0.685 0 0.08 0.685 0 0.1 0.685 0 0 0.69 0 0.02 0.69 0 0.04 0.69 0 0.06 0.69 0 0.08 0.69 0 0.1 
[...]
			<PointData Scalars="VitesseX">
				<DataArray Name="VitesseX" type="Float32" format="ascii">
 0 -2.3803e-14 1.58456e-14 -1.3102e-14 2.43858e-14 0 0 -1.84377e-14 4.80367e-15 -5.1774e-16 1.59767e-14 0 0 -1.26913e-14 -1.14712e-14 1.77753e-14 7.6363e-15 0 0 -2.29946e-14 -4.5773e-16 -7.19979e-16 3.02618e-14 0 0 -7.27385e-15 -3.123e-14 2.42106e-14 2.19076e-14 0 0 4.99845e-15 -5.39081e-14 4.14698e-14 2.02781e-14 0 0 -2.92389e-14 8.5338e-15 -2.49946e-14 7.25408e-14 0 0 -4.72891e-14 3.01076e-14 -6.2637e-15 5.01232e-14 0 0 -4.18663e-14 1.81884e-14 4.94652e-14 3.10102e-15 0 0 -1.25369e-14 -2.40567e-14 1.03454e-13 -1.56206e-14 0 0 1.18005e-14 -5.84888e-14 1.41565e-13 -3.30977e-14 0 0 2.24798e-14 -4.35578e-14 1.1571e-13 -3.09374e-14 0 0 1.21366e-14 8.53722e-15 3.02595e-14 3.00207e-14 0 0 -1.11153e-14 6.73788e-14 -5.5811e-14 1.00679e-13 0 0 -7.32477e-15 4.29681e-14 -9.54066e-15 6.13165e-14 0 0 -2.76068e-14 6.55465e-14 -1.93665e-14 3.93599e-14 0 0 7.20015e-15 1.10186e-14 2.86342e-14 -5.53134e-15 0 0 5.30445e-14 -7.8469e-14 1.23379e-13 -4.72114e-14 0 0 5.41882e-14 -8.69348e-14 9.76094e-14 -3.97933e-15 0 0 3.11913e-14 -7.36228e-14 4.6153e-14 3.8609e-14 0 0 -2.78619e-14 -1.03843e-14 -2.58027e-14 1.02109e-13 0 0 -4.37826e-14 9.5808e-15 -7.15381e-14 1.56348e-13 0 0 2.9416e-14 -1.25591e-13 7.75152e-14 5.51666e-14 0 0 -6.53941e-14 -2.98671e-14 2.69824e-14 7.13405e-14 0 0 -1.67788e-13 9.67346e-14 -1.1231e-13 1.68984e-13 0 0 -7.28744e-14 -7.18503e-14 5.17854e-14 7.05164e-14 0 0 -7.69469e-14 -5.89889e-14 4.42433e-14 7.601e-14 0 0 -6.09981e-14 -7.66824e-14 7.0871e-14 3.80802e-14 0 0 -1.84532e-14 -1.29939e-13 1.7736e-13 -1.15788e-13 0 0 -9.94224e-14 2.85841e-15 1.08463e-13 -1.37906e-13 0 0 -1.22839e-13 2.96342e-14 8.44025e-14 -9.16405e-14 0 0 -9.64398e-14 3.29117e-15 8.21482e-14 -4.84535e-14 0 0 -1.34224e-13 8.48021e-14 -2.12732e-14 5.67366e-14 0 0 -2.74081e-14 -8.92257e-14 1.40951e-13 -4.96913e-15 0 0 -3.85831e-14 -9.78e-14 1.82549e-13 -1.82827e-14 0 0 -1.4371e-13 8.54422e-14 3.94681e-14 2.1983e-14 0 0 -1.81687e-14 -7.111e-14 1.92883e-13 -8.62218e-14 0 0 3.69765e-15 -7.83681e-14 2.28279e-13 -6.9038e-14 0 0 5.06402e-15 -2.26436e-14 1.70108e-13 -2.57036e-14 0 0 4.9856e-14 -6.03616e-14 1.78554e-13 -3.17597e-14 0 0 -4.81441e-14 3.58931e-14 1.72038e-13 -9.22913e-14 0 0 -1.40394e-13 2.01923e-13 9.43589e-15 -1.12938e-14 0 0 -6.98784e-14 1.10481e-13 3.63775e-14 1.98914e-14 0 0 -4.49957e-14 5.25051e-14 8.58158e-14 -2.68048e-14 0 0 -1.78047e-13 2.8341e-13 -6.72017e-14 -4.65504e-14 0 0 -1.72735e-13 3.21989e-13 -1.98229e-14 -1.76911e-13 0 0 1.18207e-13 -5.5187e-14 2.69608e-13 -3.07053e-13 0 0 1.09492e-13 6.73471e-15 1.15605e-13 -1.64729e-13 0 0 -6.88187e-15 1.95502e-13 -7.29186e-14 -2.96645e-14 0 0 8.70572e-14 4.79295e-14 2.62899e-14 -3.73002e-14 0 0 2.43632e-13 -1.44534e-13 1.35787e-13 -8.37196e-14 0 0 3.46719e-13 -1.99683e-13 8.99887e-14 -6.06141e-14 0 0 6.91143e-14 3.26914e-13 -5.82189e-13 3.62208e-13 0 0 2.68306e-13 8.59224e-15 -2.97057e-13 1.89259e-13 0 0 4.59099e-13 -3.83352e-13 1.70082e-13 -1.29535e-13 0 0 1.34953e-13 1.02351e-14 -1.68969e-13 -5.71303e-15 0 0 1.21193e-13 -8.80112e-14 1.99762e-14 -2.13665e-13 0 0 3.12514e-14 4.32753e-14 1.41273e-14 -3.38911e-13 0 0 4.82569e-14 9.55009e-14 -6.07617e-14 -3.60621e-13 0 0 1.93767e-13 -1.38474e-13 9.64201e-14 -3.94873e-13 0 0 1.22313e-13 -4.38583e-14 6.92132e-14 -4.24507e-13 0 0 9.40285e-14 6.2248e-14 1.45836e-14 -4.09786e-13 0 0 -4.87084e-14 3.43427e-13 -2.62496e-13 -1.07203e-13 0 0 -5.99321e-14 3.806e-13 -2.54699e-13 -1.8368e-14 0 0 -5.79339e-14 3.34273e-13 -1.77002e-13 -2.06396e-14 0 0 -4.38385e-14 1.76679e-13 4.17562e-14 -1.37124e-13 0 0 5.36152e-14 -3.66735e-14 2.82314e-13 -2.80387e-13 0 0 -3.41797e-14 1.1947e-13 1.17845e-13 -1.84796e-13 0 0 7.9753e-14 8.09921e-14 2.00942e-14 -1.12009e-13 0 0 2.98891e-13 -5.42625e-14 1.11141e-14 -9.55e-14 0 0 2.59296e-13 1.3578e-13 -8.45916e-14 -1.02811e-13 0 0 3.68628e-13 7.65097e-14 -1.82755e-15 -1.12217e-13 0 0 5.96919e-13 -2.59981e-13 2.56579e-13 -1.77618e-13 0 0 5.69581e-13 -1.82824e-13 1.90972e-13 -1.04005e-13 0 0 6.95964e-13 -1.35885e-13 4.77071e-14 6.78719e-15 0 0 5.28577e-13 1.67759e-13 -1.26603e-13 8.94646e-14 0 0 2.83392e-13 3.19714e-13 1.07871e-13 -2.78282e-14 0 0 7.53377e-13 -1.96307e-14 9.08289e-13 -1.15496e-13 0 0 1.45501e-12 1.33385e-12 1.90681e-12 9.70977e-13 0 0 4.94717e-12 6.92136e-12 7.56594e-12 4.39465e-12 0 0 1.87566e-11 2.95185e-11 2.92364e-11 1.81371e-11 0 0 6.4087e-11 1.03489e-10 1.00942e-10 6.28153e-11 0 0 1.87561e-10 2.99058e-10 2.94395e-10 1.79325e-10 0 0 4.55898e-10 7.23073e-10 7.05899e-10 4.27375e-10 0 0 9.31757e-10 1.46673e-09 1.41409e-09 8.48569e-10 0 0 1.63013e-09 2.53353e-09 2.40593e-09 1.42227e-09 0 0 2.49746e-09 3.82101e-09 3.55007e-09 2.05672e-09 0 0 3.43398e-09 5.14914e-09 4.63956e-09 2.61224e-09 0 0 4.31254e-09 6.31452e-09 5.48565e-09 2.97607e-09 0 0 5.02172e-09 7.16498e-09 5.97687e-09 3.0976e-09 0 0 5.47399e-09 7.63722e-09 6.0376e-09 2.89541e-09 0 0 5.61458e-09 7.5673e-09 5.65808e-09 2.47818e-09 0 0 5.27451e-09 7.02814e-09 4.88568e-09 1.84818e-09 0 0 4.49711e-09 5.86454e-09 3.70637e-09 9.63244e-10 0 0 3.19946e-09 4.19157e-09 2.24811e-09 1.476e-10 0 0 8.46748e-10 1.56789e-09 5.57884e-10 -8.04719e-10 0 0 -1.36032e-09 -1.07755e-09 -1.30829e-09 -1.7253e-09 0 0 -4.71021e-09 -4.69435e-09 -3.35927e-09 -2.44597e-09 0 0 -8.91024e-09 -9.40738e-09 -5.28707e-09 -2.88684e-09 0 0 -1.22719e-08 -1.37499e-08 -7.68955e-09 -2.1282e-09 0 0 -1.85537e-08 -2.85774e-08 -1.18675e-08 7.10099e-09 0 0 -1.85536e-08 -3.67409e-08 -1.22835e-08 7.33131e-09 0 0 -1.58046e-08 -2.36159e-08 -1.29876e-08 1.18926e-09 0 0 -5.24899e-09 -1.85853e-08 -1.98065e-08 5.39657e-09 0 0 -4.67444e-10 -1.88482e-08 -2.27042e-08 9.47088e-09 0 0 -2.52432e-09 -1.91101e-08 -2.06856e-08 7.15979e-09 0 0 -1.12214e-08 -1.64803e-08 -1.24979e-08 -5.61287e-09 0 0 -1.69344e-08 -8.53751e-09 1.2879e-09 -2.49868e-08 0 0 -1.47566e-08 -5.32805e-09 9.82588e-09 -2.76662e-08 0 0 -7.23853e-09 -6.76413e-09 4.6901e-09 -1.95047e-08 0 0 -1.82096e-09 -1.03528e-08 -1.01554e-08 1.38376e-09 0 0 -2.20779e-09 -1.53109e-08 -7.11927e-09 -2.30034e-09 0 0 -6.9042e-09 -1.24023e-08 -1.12563e-08 -1.22342e-09 0 0 -1.09062e-08 1.22819e-09 -2.22204e-08 5.10305e-09 0 0 -1.15781e-08 2.67359e-09 -1.11757e-08 -7.02066e-09 0 0 -9.69812e-09 3.6226e-09 5.47587e-09 -2.04599e-08 0 0 -1.66642e-09 4.38715e-09 1.2127e-08 -1.98826e-08 0 0 5.46554e-09 4.6184e-09 1.17063e-08 -1.79517e-08 0 0 6.31331e-09 5.26806e-09 1.03716e-08 -1.36674e-08 0 0 5.83476e-09 6.12768e-09 4.70024e-09 -5.50389e-09 0 0 4.53695e-09 6.58458e-09 -1.88911e-09 1.13456e-09 0 0 3.36769e-09 6.11797e-09 -3.20847e-09 2.05453e-09 0 0 2.56691e-09 3.665e-09 -2.53567e-09 1.68191e-09 0 0 1.87626e-09 1.37685e-09 -8.61811e-10 4.23806e-10 0 0 1.13655e-09 6.28041e-10 -3.44518e-10 -3.09005e-10 0 0 5.51756e-10 2.71508e-10 -3.34294e-10 -4.07059e-10 0 0 2.13483e-10 3.77773e-11 -3.23189e-10 -3.74504e-10 0 0 4.54823e-11 -8.18919e-11 -2.74959e-10 -2.68643e-10 0 0 -2.2609e-11 -1.05907e-10 -1.94394e-10 -1.64751e-10 0 0 -3.30208e-11 -7.96504e-11 -1.11678e-10 -8.46308e-11 0 0 -2.14455e-11 -4.20457e-11 -5.15942e-11 -3.6073e-11 0 0 -9.3362e-12 -1.74327e-11 -1.94728e-11 -1.307e-11 0 0 -3.09764e-12 -6.16481e-12 -6.15708e-12 -4.12993e-12 0 0 -8.06274e-13 -1.8691e-12 -1.6707e-12 -1.09007e-12 0 0 -1.68748e-13 -3.10881e-13 -4.75043e-13 -8.32482e-14 0 0 -4.59673e-14 1.82993e-13 -1.28025e-13 2.22765e-13 0 0 1.11689e-13 2.57806e-14 3.62091e-13 1.13927e-13 0 0 1.46672e-13 -2.21229e-14 5.15178e-13 9.31872e-14 0 0 3.80069e-14 2.03851e-13 3.05459e-13 2.37101e-13 0 0 5.89993e-14 2.33159e-13 3.65772e-13 1.72071e-13 0 0 1.04974e-13 2.5422e-13 3.87709e-13 1.45812e-13 0 0 1.82615e-13 2.56623e-13 3.11775e-13 2.20939e-13 0 0 3.90695e-13 2.97366e-14 4.94262e-13 1.06895e-13 0 0 4.03374e-13 2.30938e-14 5.522e-13 6.99604e-14 0 0 1.65749e-13 3.82223e-13 2.59331e-13 2.28976e-13 0 0 -5.58429e-15 7.0167e-13 -7.03116e-14 3.643e-13 0 0 3.36795e-13 2.57659e-13 3.02438e-13 5.78194e-14 0 0 6.73897e-13 -1.70117e-13 6.18361e-13 -7.86184e-14 0 0 6.45589e-13 -1.61945e-14 3.36009e-13 2.36556e-13 0 0 2.9132e-13 6.17439e-13 -2.61338e-13 5.54697e-13 0 0 2.02961e-13 8.02577e-13 -3.25219e-13 4.3221e-13 0 0 6.5136e-13 6.69174e-14 3.93175e-13 -1.03025e-14 0 0 7.06813e-13 -1.35999e-13 5.95106e-13 -1.00225e-13 0 0 2.6522e-13 3.15937e-13 2.7175e-13 2.94155e-14 0 0 -8.73188e-14 6.06612e-13 5.18346e-14 1.05426e-13 0 0 3.4667e-14 3.96638e-13 1.45772e-13 3.94399e-14 0 0 2.9471e-13 9.85407e-14 3.2808e-13 -1.263e-13 0 0 4.22589e-13 -9.3431e-14 6.27008e-13 -2.81885e-13 0 0 2.86472e-13 1.03415e-13 5.50465e-13 3.00266e-14 0 0 -2.38523e-14 3.9292e-13 4.00449e-13 3.72597e-13 0 0 -2.67672e-13 5.58742e-13 3.86388e-13 4.75122e-13 0 0 3.02836e-13 -1.31894e-13 8.93159e-13 2.09052e-13 0 0 9.16984e-13 -1.06328e-12 1.63886e-12 -1.80227e-13 0 0 2.7395e-13 -1.57692e-13 6.94979e-13 4.16867e-13 0 0 -3.20798e-13 8.70074e-13 -3.89201e-13 9.80958e-13 0 0 -1.15497e-13 4.44065e-13 2.19693e-13 4.18771e-13 0 0 1.70715e-13 -1.15767e-13 9.47866e-13 -1.14651e-13 0 0 2.21758e-13 -3.49049e-13 1.2613e-12 -2.8581e-13 0 0 -1.05429e-13 -3.01924e-14 1.12454e-12 -2.77947e-13 0 0 -9.18244e-14 9.05192e-14 9.61484e-13 -2.26989e-13 0 0 -3.20643e-14 1.91389e-13 6.41683e-13 8.94681e-14 0 0 -3.65517e-13 6.20292e-13 1.91031e-14 5.88075e-13 0 0 1.32731e-14 -1.1843e-13 5.74101e-13 4.1699e-13 0 0 1.85783e-13 -4.86101e-13 9.23094e-13 2.59869e-13 0 0 2.34164e-13 -4.91357e-13 8.76798e-13 1.48685e-13 0 0 2.21795e-13 -4.04955e-13 6.68354e-13 1.76174e-13 0 0 -2.28426e-13 1.98028e-13 1.81266e-13 3.01675e-13 0 0 -2.61232e-13 2.52927e-13 1.43137e-13 2.27693e-13 0 0 1.69338e-13 -3.04436e-13 3.80348e-13 2.26776e-13 0 0 4.81585e-13 -6.33719e-13 5.45477e-13 1.5942e-13 0 0 2.09751e-13 -1.76816e-13 1.56384e-13 3.46884e-13 0 0 -3.29585e-13 4.82511e-13 -1.42896e-13 3.46365e-13 0 0 -3.65316e-13 5.33488e-13 -9.77462e-15 4.94479e-14 0 0 1.92994e-13 -1.29495e-13 5.39264e-13 -2.84837e-13 0 0 6.30319e-13 -6.57249e-13 1.04043e-12 -5.07463e-13 0 0 3.37527e-13 -2.48865e-13 6.60464e-13 -1.03489e-13 0 0 -3.05893e-14 3.19591e-13 1.38233e-13 2.97335e-13 0 0 6.84189e-14 3.33201e-13 1.66261e-13 1.27103e-13 0 0 4.14535e-13 1.90005e-15 4.95154e-13 -2.37941e-13 0 0 6.27965e-13 -1.20649e-13 4.47447e-13 -2.34671e-13 0 0 2.89572e-13 5.51864e-13 -5.80942e-13 6.25303e-13 0 0 3.6178e-13 4.52337e-13 -6.33766e-13 8.45787e-13 0 0 7.16596e-13 -2.27262e-13 3.56481e-13 1.08779e-13 0 0 7.64501e-13 -3.49182e-13 5.35213e-13 1.006e-13 0 0 4.50904e-13 1.13016e-13 1.02489e-14 5.58241e-13 0 0 -3.66225e-14 8.45327e-13 -7.18761e-13 1.01813e-12 0 0 3.45061e-13 4.07237e-13 -3.91147e-13 8.92393e-13 0 0 1.19266e-12 -5.3013e-13 2.44133e-13 5.50542e-13 0 0 1.18988e-12 -3.32533e-13 -3.4704e-14 8.41355e-13 0 0 3.28603e-13 9.27465e-13 -8.52554e-13 1.30569e-12 0 0 -2.4076e-13 1.7542e-12 -1.39811e-12 1.51651e-12 0
				</DataArray>
				<DataArray Name="VitesseY" type="Float32" format="ascii">