<?xml version="1.0"?>
<VTKFile type="PolyData">
	<PolyData>
		<Piece NumberOfPoints="1206" NumberOfPolys="1000">
			<Points>
				<DataArray type="Float32" NumberOfComponents="3" format="ascii">
 0 0 0 0.02 0 0 0.04 0 0 0.06 0 0 0.08 0 0 0.1 0 0 0 0.005 0 0.02 0.005 0 0.04 0.005 0 0.06 0.005 0 0.08 0.005 0 0.1 0.005 0 0 0.01 0 0.02 0.01 0 0.04 0.01 0 0.06 0.01 0 0.08 0.01 0 0.1 0.01 0 0 0.015 0 0.02 0.015 0 0.04 0.015 0 0.06 0.015 0 0.08 0.015 0 0.1 0.015 0 0 0.02 0 0.02 0.02 0 0.04 0.02 0 0.06 0.02 0 0.08 0.02 0 0.1 0.02 0 0 0.025 0 0.02 0.025 0 0.04 0.025 0 0.06 0.025 0 0.08 0.025 0 0.1 0.025 0 0 0.03 0 0.02 0.03 0 0.04 0.03 0 0.06 0.03 0 0.08 0.03 0 0.1 0.03 0 0 0.035 0 0.02 0.035 0 0.04 0.035 0 0.06 0.035 0 0.08 0.035 0 0.1 0.035 0 0 0.04 0 0.02 0.04 0 0.04 0.04 0 0.06 0.04 0 0.08 0.04 0 0.1 0.04 0 0 0.045 0 0.02 0.045 0 0.04 0.045 0 0.06 0.045 0 0.08 0.045 0 0.1 0.045 0 0 0.05 0 0.02 0.05 0 0.04 0.05 0 0.06 0.05 0 0.08 0.05 0 0.1 0.05 0 0 0.055 0 0.02 0.055 0 0.04 0.055 0 0.06 0.055 0 0.08 0.055 0 0.1 0.055 0 0 0.06 0 0.02 0.06 0 0.04 0.06 0 0.06 0.06 0 0.08 0.06 0 0.1 0.06 0 0 0.065 0 0.02 0.065 0 0.04 0.065 0 0.06 0.065 0 0.08 0.065 0 0.1 0.065 0 0 0.07 0 0.02 0.07 0 0.04 0.07 0 0.06 0.07 0 0.08 0.07 0 0.1 0.07 0 0 0.075 0 0.02 0.075 0 0.04 0.075 0 0.06 0.075 0 0.08 0.075 0 0.1 0.075 0 0 0.08 0 0.02 0.08 0 0.04 0.08 0 0.06 0.08 0 0.08 0.08 0 0.1 0.08 0 0 0.085 0 0.02 0.085 0 0.04 0.085 0 0.06 0.085 0 0.08 0.085 0 0.1 0.085 0 0 0.09 0 0.02 0.09 0 0.04 0.09 0 0.06 0.09 0 0.08 0.09 0 0.1 0.09 0 0 0.095 0 0.02 0.095 0 0.04 0.095 0 0.06 0.095 0 0.08 0.095 0 0.1 0.095 0 0 0.1 0 0.02 0.1 0 0.04 0.1 0 0.06 0.1 0 0.08 0.1 0 0.1 0.1 0 0 0.105 0 0.02 0.105 0 0.04 0.105 0 0.06 0.105 0 0.08 0.105 0 0.1 0.105 0 0 0.11 0 0.02 0.11 0 0.04 0.11 0 0.06 0.11 0 0.08 0.11 0 0.1 0.11 0 0 0.115 0 0.02 0.115 0 0.04 0.115 0 0.06 0.115 0 0.08 0.115 0 0.1 0.115 0 0 0.12 0 0.02 0.12 0 0.04 0.12 0 0.06 0.12 0 0.08 0.12 0 0.1 0.12 0 0 0.125 0 0.02 0.125 0 0.04 0.125 0 0.06 0.125 0 0.08 0.125 0 0.1 0.125 0 0 0.13 0 0.02 0.13 0 0.04 0.13 0 0.06 0.13 0 0.08 0.13 0 0.1 0.13 0 0 0.135 0 0.02 0.135 0 0.04 0.135 0 0.06 0.135 0 0.08 0.135 0 0.1 0.135 0 0 0.14 0 0.02 0.14 0 0.04 0.14 0 0.06 0.14 0 0.08 0.14 0 0.1 0.14 0 0 0.145 0 0.02 0.145 0 0.04 0.145 0 0.06 0.145 0 0.08 0.145 0 0.1 0.145 0 0 0.15 0 0.02 0.15 0 0.04 0.15 0 0.06 0.15 0 0.08 0.15 0 0.1 0.15 0 0 0.155 0 0.02 0.155 0 0.04 0.155 0 0.06 0.155 0 0.08 0.155 0 0.1 0.155 0 0 0.16 0 0.02 0.16 0 0.04 0.16 0 0.06 0.16 0 0.08 0.16 0 0.1 0.16 0 0 0.165 0 0.02 0.165 0 0.04 0.165 0 0.06 0.165 0 0.08 0.165 0 0.1 0.165 0 0 0.17 0 0.02 0.17 0 0.04 0.17 0 0.06 0.17 0 0.08 0.17 0 0.1 0.17 0 0 0.175 0 0.02 0.175 0 0.04 0.175 0 0.06 0.175 0 0.08 0.175 0 0.1 0.175 0 0 0.18 0 0.02 0.18 0 0.04 0.18 0 0.06 0.18 0 0.08 0.18 0 0.1 0.18 0 0 0.185 0 0.02 0.185 0 0.04 0.185 0 0.06 0.185 0 0.08 0.185 0 0.1 0.185 0 0 0.19 0 0.02 0.19 0 0.04 0.19 0 0.06 0.19 0 0.08 0.19 0 0.1 0.19 0 0 0.195 0 0.02 0.195 0 0.04 0.195 0 0.06 0.195 0 0.08 0.195 0 0.1 0.195 0 0 0.2 0 0.02 0.2 0 0.04 0.2 0 0.06 0.2 0 0.08 0.2 0 0.1 0.2 0 0 0.205 0 0.02 0.205 0 0.04 0.205 0 0.06 0.205 0 0.08 0.205 0 0.1 0.205 0 0 0.21 0 0.02 0.21 0 0.04 0.21 0 0.06 0.21 0 0.08 0.21 0 0.1 0.21 0 0 0.215 0 0.02 0.215 0 0.04 0.215 0 0.06 0.215 0 0.08 0.215 0 0.1 0.215 0 0 0.22 0 0.02 0.22 0 0.04 0.22 0 0.06 0.22 0 0.08 0.22 0 0.1 0.22 0 0 0.225 0 0.02 0.225 0 0.04 0.225 0 0.06 0.225 0 0.08 0.225 0 0.1 0.225 0 0 0.23 0 0.02 0.23 0 0.04 0.23 0 0.06 0.23 0 0.08 0.23 0 0.1 0.23 0 0 0.235 0 0.02 0.235 0 0.04 0.235 0 0.06 0.235 0 0.08 0.235 0 0.1 0.235 0 0 0.24 0 0.02 0.24 0 0.04 0.24 0 0.06 0.24 0 0.08 0.24 0 0.1 0.24 0 0 0.245 0 0.02 0.245 0 0.04 0.245 0 0.06 0.245 0 0.08 0.245 0 0.1 0.245 0 0 0.25 0 0.02 0.25 0 0.04 0.25 0 0.06 0.25 0 0.08 0.25 0 0.1 0.25 0 0 0.255 0 0.02 0.255 0 0.04 0.255 0 0.06 0.255 0 0.08 0.255 0 0.1 0.255 0 0 0.26 0 0.02 0.26 0 0.04 0.26 0 0.06 0.26 0 0.08 0.26 0 0.1 0.26 0 0 0.265 0 0.02 0.265 0 0.04 0.265 0 0.06 0.265 0 0.08 0.265 0 0.1 0.265 0 0 0.27 0 0.02 0.27 0 0.04 0.27 0 0.06 0.27 0 0.08 0.27 0 0.1 0.27 0 0 0.275 0 0.02 0.275 0 0.04 0.275 0 0.06 0.275 0 0.08 0.275 0 0.1 0.275 0 0 0.28 0 0.02 0.28 0 0.04 0.28 0 0.06 0.28 0 0.08 0.28 0 0.1 0.28 0 0 0.285 0 0.02 0.285 0 0.04 0.285 0 0.06 0.285 0 0.08 0.285 0 0.1 0.285 0 0 0.29 0 0.02 0.29 0 0.04 0.29 0 0.06 0.29 0 0.08 0.29 0 0.1 0.29 0 0 0.295 0 0.02 0.295 0 0.04 0.295 0 0.06 0.295 0 0.08 0.295 0 0.1 0.295 0 0 0.3 0 0.02 0.3 0 0.04 0.3 0 0.06 0.3 0 0.08 0.3 0 0.1 0.3 0 0 0.305 0 0.02 0.305 0 0.04 0.305 0 0.06 0.305 0 0.08 0.305 0 0.1 0.305 0 0 0.31 0 0.02 0.31 0 0.04 0.31 0 0.06 0.31 0 0.08 0.31 0 0.1 0.31 0 0 0.315 0 0.02 0.315 0 0.04 0.315 0 0.06 0.315 0 0.08 0.315 0 0.1 0.315 0 0 0.32 0 0.02 0.32 0 0.04 0.32 0 0.06 0.32 0 0.08 0.32 0 0.1 0.32 0 0 0.325 0 0.02 0.325 0 0.04 0.325 0 0.06 0.325 0 0.08 0.325 0 0.1 0.325 0 0 0.33 0 0.02 0.33 0 0.04 0.33 0 0.06 0.33 0 0.08 0.33 0 0.1 0.33 0 0 0.335 0 0.02 0.335 0 0.04 0.335 0 0.06 0.335 0 0.08 0.335 0 0.1 0.335 0 0 0.34 0 0.02 0.34 0 0.04 0.34 0 0.06 0.34 0 0.08 0.34 0 0.1 0.34 0 0 0.345 0 0.02 0.345 0 0.04 0.345 0 0.06 0.345 0 0.08 0.345 0 0.1 0.345 0 0 0.35 0 0.02 0.35 0 0.04 0.35 0 0.06 0.35 0 0.08 0.35 0 0.1 0.35 0 0 0.355 0 0.02 0.355 0 0.04 0.355 0 0.06 0.355 0 0.08 0.355 0 0.1 0.355 0 0 0.36 0 0.02 0.36 0 0.04 0.36 0 0.06 0.36 0 0.08 0.36 0 0.1 0.36 0 0 0.365 0 0.02 0.365 0 0.04 0.365 0 0.06 0.365 0 0.08 0.365 0 0.1 0.365 0 0 0.37 0 0.02 0.37 0 0.04 0.37 0 0.06 0.37 0 0.08 0.37 0 0.1 0.37 0 0 0.375 0 0.02 0.375 0 0.04 0.375 0 0.06 0.375 0 0.08 0.375 0 0.1 0.375 0 0 0.38 0 0.02 0.38 0 0.04 0.38 0 0.06 0.38 0 0.08 0.38 0 0.1 0.38 0 0 0.385 0 0.02 0.385 0 0.04 0.385 0 0.06 0.385 0 0.08 0.385 0 0.1 0.385 0 0 0.39 0 0.02 0.39 0 0.04 0.39 0 0.06 0.39 0 0.08 0.39 0 0.1 0.39 0 0 0.395 0 0.02 0.395 0 0.04 0.395 0 0.06 0.395 0 0.08 0.395 0 0.1 0.395 0 0 0.4 0 0.02 0.4 0 0.04 0.4 0 0.06 0.4 0 0.08 0.4 0 0.1 0.4 0 0 0.405 0 0.02 0.405 0 0.04 0.405 0 0.06 0.405 0 0.08 0.405 0 0.1 0.405 0 0 0.41 0 0.02 0.41 0 0.04 0.41 0 0.06 0.41 0 0.08 0.41 0 0.1 0.41 0 0 0.415 0 0.02 0.415 0 0.04 0.415 0 0.06 0.415 0 0.08 0.415 0 0.1 0.415 0 0 0.42 0 0.02 0.42 0 0.04 0.42 0 0.06 0.42 0 0.08 0.42 0 0.1 0.42 0 0 0.425 0 0.02 0.425 0 0.04 0.425 0 0.06 0.425 0 0.08 0.425 0 0.1 0.425 0 0 0.43 0 0.02 0.43 0 0.04 0.43 0 0.06 0.43 0 0.08 0.43 0 0.1 0.43 0 0 0.435 0 0.02 0.435 0 0.04 0.435 0 0.06 0.435 0 0.08 0.435 0 0.1 0.435 0 0 0.44 0 0.02 0.44 0 0.04 0.44 0 0.06 0.44 0 0.08 0.44 0 0.1 0.44 0 0 0.445 0 0.02 0.445 0 0.04 0.445 0 0.06 0.445 0 0.08 0.445 0 0.1 0.445 0 0 0.45 0 0.02 0.45 0 0.04 0.45 0 0.06 0.45 0 0.08 0.45 0 0.1 0.45 0 0 0.455 0 0.02 0.455 0 0.04 0.455 0 0.06 0.455 0 0.08 0.455 0 0.1 0.455 0 0 0.46 0 0.02 0.46 0 0.04 0.46 0 0.06 0.46 0 0.08 0.46 0 0.1 0.46 0 0 0.465 0 0.02 0.465 0 0.04 0.465 0 0.06 0.465 0 0.08 0.465 0 0.1 0.465 0 0 0.47 0 0.02 0.47 0 0.04 0.47 0 0.06 0.47 0 0.08 0.47 0 0.1 0.47 0 0 0.475 0 0.02 0.475 0 0.04 0.475 0 0.06 0.475 0 0.08 0.475 0 0.1 0.475 0 0 0.48 0 0.02 0.48 0 0.04 0.48 0 0.06 0.48 0 0.08 0.48 0 0.1 0.48 0 0 0.485 0 0.02 0.485 0 0.04 0.485 0 0.06 0.485 0 0.08 0.485 0 0.1 0.485 0 0 0.49 0 0.02 0.49 0 0.04 0.49 0 0.06 0.49 0 0.08 0.49 0 0.1 0.49 0 0 0.495 0 0.02 0.495 0 0.04 0.495 0 0.06 0.495 0 0.08 0.495 0 0.1 0.495 0 0 0.5 0 0.02 0.5 0 0.04 0.5 0 0.06 0.5 0 0.08 0.5 0 0.1 0.5 0 0 0.505 0 0.02 0.505 0 0.04 0.505 0 0.06 0.505 0 0.08 0.505 0 0.1 0.505 0 0 0.51 0 0.02 0.51 0 0.04 0.51 0 0.06 0.51 0 0.08 0.51 0 0.1 0.51 0 0 0.515 0 0.02 0.515 0 0.04 0.515 0 0.06 0.515 0 0.08 0.515 0 0.1 0.515 0 0 0.52 0 0.02 0.52 0 0.04 0.52 0 0.06 0.52 0 0.08 0.52 0 0.1 0.52 0 0 0.525 0 0.02 0.525 0 0.04 0.525 0 0.06 0.525 0 0.08 0.525 0 0.1 0.525 0 0 0.53 0 0.02 0.53 0 0.04 0.53 0 0.06 0.53 0 0.08 0.53 0 0.1 0.53 0 0 0.535 0 0.02 0.535 0 0.04 0.535 0 0.06 0.535 0 0.08 0.535 0 0.1 0.535 0 0 0.54 0 0.02 0.54 0 0.04 0.54 0 0.06 0.54 0 0.08 0.54 0 0.1 0.54 0 0 0.545 0 0.02 0.545 0 0.04 0.545 0 0.06 0.545 0 0.08 0.545 0 0.1 0.545 0 0 0.55 0 0.02 0.55 0 0.04 0.55 0 0.06 0.55 0 0.08 0.55 0 0.1 0.55 0 0 0.555 0 0.02 0.555 0 0.04 0.555 0 0.06 0.555 0 0.08 0.555 0 0.1 0.555 0 0 0.56 0 0.02 0.56 0 0.04 0.56 0 0.06 0.56 0 0.08 0.56 0 0.1 0.56 0 0 0.565 0 0.02 0.565 0 0.04 0.565 0 0.06 0.565 0 0.08 0.565 0 0.1 0.565 0 0 0.57 0 0.02 0.57 0 0.04 0.57 0 0.06 0.57 0 0.08 0.57 0 0.1 0.57 0 0 0.575 0 0.02 0.575 0 0.04 0.575 0 0.06 0.575 0 0.08 0.575 0 0.1 0.575 0 0 0.58 0 0.02 0.58 0 0.04 0.58 0 0.06 0.58 0 0.08 0.58 0 0.1 0.58 0 0 0.585 0 0.02 0.585 0 0.04 0.585 0 0.06 0.585 0 0.08 0.585 0 0.1 0.585 0 0 0.59 0 0.02 0.59 0 0.04 0.59 0 0.06 0.59 0 0.08 0.59 0 0.1 0.59 0 0 0.595 0 0.02 0.595 0 0.04 0.595 0 0.06 0.595 0 0.08 0.595 0 0.1 0.595 0 0 0.6 0 0.02 0.6 0 0.04 0.6 0 0.06 0.6 0 0.08 0.6 0 0.1 0.6 0 0 0.605 0 0.02 0.605 0 0.04 0.605 0 0.06 0.605 0 0.08 0.605 0 0.1 0.605 0 0 0.61 0 0.02 0.61 0 0.04 0.61 0 0.06 0.61 0 0.08 0.61 0 0.1 0.61 0 0 0.615 0 0.02 0.615 0 0.04 0.615 0 0.06 0.615 0 0.08 0.615 0 0.1 0.615 0 0 0.62 0 0.02 0.62 0 0.04 0.62 0 0.06 0.62 0 0.08 0.62 0 0.1 0.62 0 0 0.625 0 0.02 0.625 0 0.04 0.625 0 0.06 0.625 0 0.08 0.625 0 0.1 0.625 0 0 0.63 0 0.02 0.63 0 0.04 0.63 0 0.06 0.63 0 0.08 0.63 0 0.1 0.63 0 0 0.635 0 0.02 0.635 0 0.04 0.635 0 0.06 0.635 0 0.08 0.635 0 0.1 0.635 0 0 0.64 0 0.02 0.64 0 0.04 0.64 0 0.06 0.64 0 0.08 0.64 0 0.1 0.64 0 0 0.645 0 0.02 0.645 0 0.04 0.645 0 0.06 0.645 0 0.08 0.645 0 0.1 0.645 0 0 0.65 0 0.02 0.65 0 0.04 0.65 0 0.06 0.65 0 0.08 0.65 0 0.1 0.65 0 0 0.655 0 0.02 0.655 0 0.04 0.655 0 0.06 0.655 0 0.08 0.655 0 0.1 0.655 0 0 0.66 0 0.02 0.66 0 0.04 0.66 0 0.06 0.66 0 0.08 0.66 0 0.1 0.66 0 0 0.665 0 0.02 0.665 0 0.04 0.665 0 0.06 0.665 0 0.08 0.665 0 0.1 0.665 0 0 0.67 0 0.02 0.67 0 0.04 0.67 0 0.06 0.67 0 0.08 0.67 0 0.1 0.67 0 0 0.675 0 0.02 0.675 0 0.04 0.675 0 0.06 0.675 0 0.08 0.675 0 0.1 0.675 0 0 0.68 0 0.02 0.68 0 0.04 0.68 0 0.06 0.68 0 0.08 0.68 0 0.1 0.68 0 0 0.685 0 0.02 0.685 0 0.04 0.685 0 0.06 0.685 0 0.08 0.685 0 0.1 0.685 0 0 0.69 0 0.02 0.69 0 0.04 0.69 0 0.06 0.69 0 0.08 0.69 0 0.1 
[...]
			<PointData Scalars="VitesseX">
				<DataArray Name="VitesseX" type="Float32" format="ascii">
 0 -1.3597e-14 -3.21098e-14 1.40576e-14 3.07687e-14 0 0 -1.74083e-14 -3.10664e-14 1.85747e-14 2.45642e-14 0 0 -2.28029e-14 -2.74746e-14 1.77531e-14 2.36791e-14 0 0 -4.2485e-14 1.14784e-15 -1.60554e-14 4.53593e-14 0 0 -6.03029e-14 1.95831e-14 -3.43284e-14 5.19352e-14 0 0 -3.8515e-14 -2.6137e-14 5.54499e-15 1.86004e-14 0 0 -1.67943e-14 -6.44835e-14 2.21706e-14 -5.69551e-16 0 0 -3.28845e-14 -4.81097e-14 -2.05162e-14 2.63096e-14 0 0 -3.88548e-14 -6.06685e-14 -2.67306e-14 3.58957e-14 0 0 -7.26382e-14 -2.74372e-14 -6.20107e-14 7.1933e-14 0 0 -1.46633e-13 6.43047e-14 -1.08706e-13 9.8313e-14 0 0 -9.06876e-14 -5.36841e-14 5.3918e-14 -1.1393e-14 0 0 -6.94957e-14 -7.68875e-14 8.73472e-14 -3.88398e-14 0 0 -9.65029e-14 1.96382e-15 -9.84879e-16 1.63761e-14 0 0 -6.92361e-14 -1.59314e-14 -1.44807e-14 3.75794e-14 0 0 -8.22532e-14 2.23977e-14 -9.05296e-14 9.46748e-14 0 0 -4.30944e-14 -3.83327e-14 -6.89074e-14 1.07024e-13 0 0 -7.56942e-14 9.5814e-15 -1.17798e-13 1.40505e-13 0 0 -1.23011e-13 8.28685e-14 -1.69007e-13 1.34544e-13 0 0 -9.25111e-14 1.79417e-14 -1.05958e-13 8.59069e-14 0 0 -7.09237e-14 -1.89787e-14 -1.23216e-13 1.31507e-13 0 0 -4.72466e-14 -6.09109e-14 -9.38485e-14 9.68049e-14 0 0 -1.16894e-13 3.6234e-14 -1.2088e-13 3.95852e-14 0 0 -1.34871e-13 6.80063e-14 -8.33472e-14 -8.53376e-14 0 0 -4.61886e-14 -4.08947e-14 3.76139e-14 -2.18157e-13 0 0 -3.61217e-14 -3.92986e-14 -2.21787e-14 -1.77744e-13 0 0 -4.57177e-14 -3.78007e-14 -3.04497e-14 -2.45261e-13 0 0 -1.52423e-13 8.61286e-14 -1.26769e-13 -2.29695e-13 0 0 -1.73444e-13 9.54774e-14 -1.91053e-13 -1.37797e-13 0 0 -2.41844e-14 -1.49325e-13 -1.08881e-14 -1.5939e-13 0 0 4.5292e-14 -2.69453e-13 1.41262e-13 -2.03622e-13 0 0 1.8157e-15 -1.58992e-13 7.74251e-14 -1.30955e-13 0 0 -7.72756e-14 -1.45028e-14 -6.66405e-14 5.90941e-14 0 0 -7.12845e-14 -5.65336e-14 5.64331e-14 3.84377e-14 0 0 -9.26542e-14 -7.17945e-14 1.56747e-13 -2.06987e-16 0 0 -1.13051e-13 -9.56615e-14 2.43452e-13 -7.73679e-14 0 0 -3.40509e-13 2.0027e-13 5.1605e-14 3.13549e-14 0 0 -1.35865e-13 -6.99354e-14 2.70341e-13 -1.51457e-14 0 0 -1.12745e-15 -1.9475e-13 3.38297e-13 -7.18453e-14 0 0 -2.04675e-13 1.21829e-13 9.07349e-14 -4.96034e-14 0 0 -1.29311e-13 1.40426e-14 1.51957e-13 -1.47109e-13 0 0 -1.70763e-13 6.91823e-14 -3.46464e-14 9.41607e-15 0 0 -7.43236e-14 -1.22834e-13 7.6321e-14 -4.54744e-14 0 0 -8.37062e-14 -1.16246e-13 1.49785e-14 -2.93677e-14 0 0 -2.53578e-13 8.54534e-14 -9.05017e-14 -4.6283e-14 0 0 -2.85245e-13 -1.03683e-15 2.08992e-13 -3.71178e-13 0 0 -4.45263e-13 1.27647e-13 2.10135e-13 -4.01167e-13 0 0 -3.07809e-13 -5.65979e-14 3.81556e-13 -4.77924e-13 0 0 -9.62906e-14 -1.54817e-13 3.23855e-13 -4.01067e-13 0 0 -2.71259e-13 2.74212e-13 -1.52031e-13 -1.12287e-13 0 0 -4.59561e-13 5.90446e-13 -2.97466e-13 -1.78565e-13 0 0 -5.1423e-13 7.09951e-13 -4.00548e-13 -1.55875e-13 0 0 -6.80583e-14 2.28038e-14 2.32656e-13 -5.48222e-13 0 0 -1.23183e-13 4.89371e-14 2.52257e-13 -6.00579e-13 0 0 -5.4619e-13 6.34682e-13 -3.03947e-13 -2.55649e-13 0 0 -5.2737e-13 5.08094e-13 -1.52178e-13 -3.32599e-13 0 0 -3.77464e-13 2.47662e-13 -4.43047e-14 -2.35108e-13 0 0 -1.18178e-13 -1.13186e-13 2.10957e-13 -2.8434e-13 0 0 -3.0694e-13 7.93858e-14 1.24616e-13 -2.73728e-13 0 0 -5.17148e-13 3.63229e-13 -1.95605e-13 -1.17201e-13 0 0 -3.04916e-13 1.83551e-13 -1.93455e-13 -1.87131e-13 0 0 -8.37135e-14 -5.12849e-14 -1.21561e-13 -2.67526e-13 0 0 -1.56419e-13 6.73981e-14 -3.30366e-13 -9.42891e-14 0 0 -3.00496e-13 2.31643e-13 -4.67875e-13 4.50938e-14 0 0 -4.79329e-14 -1.01027e-13 -1.30559e-13 -1.37111e-13 0 0 1.15286e-13 -1.93706e-13 -6.07146e-14 -1.57585e-13 0 0 -3.6936e-14 -6.6696e-15 -1.14604e-13 -8.33768e-14 0 0 -1.45963e-13 5.05968e-14 -1.52417e-14 -9.99441e-14 0 0 -4.78706e-13 4.17545e-13 -1.61767e-13 8.40258e-15 0 0 -5.25784e-13 4.12891e-13 -7.22282e-14 5.46206e-14 0 0 -7.94825e-14 -2.36289e-13 5.04925e-13 -2.78651e-13 0 0 -1.81774e-13 -6.55218e-14 3.65642e-13 -3.08453e-13 0 0 -4.86046e-13 4.35181e-13 -1.07498e-13 -6.71662e-14 0 0 -5.34347e-13 5.65543e-13 -1.19391e-13 -1.56827e-13 0 0 -2.50484e-13 2.88563e-13 1.56123e-13 -4.05051e-13 0 0 5.38578e-14 -5.96752e-14 4.27238e-13 -5.77226e-13 0 0 -2.05259e-13 2.94258e-13 5.20367e-14 -2.82123e-13 0 0 -4.6494e-13 6.58313e-13 -4.08591e-13 1.7278e-13 0 0 -2.71132e-13 4.15042e-13 -3.57808e-13 3.42916e-13 0 0 -5.18716e-14 8.9139e-14 -1.34135e-13 2.09956e-13 0 0 -1.62092e-13 2.0435e-13 -1.79748e-13 1.3581e-13 0 0 -1.22968e-13 8.72492e-15 1.13811e-13 -8.03376e-14 0 0 -1.66873e-14 -4.02942e-13 6.49442e-13 -4.41146e-13 0 0 -2.77047e-13 -7.7573e-14 2.6917e-13 -4.6308e-14 0 0 -4.97069e-13 4.59122e-13 -4.46854e-13 5.79935e-13 0 0 -2.16634e-13 1.45624e-13 -2.29525e-13 4.23367e-13 0 0 6.4257e-13 -7.312e-13 4.45541e-13 1.38973e-13 0 0 6.19373e-13 3.00204e-13 8.19629e-13 6.48672e-13 0 0 1.38687e-12 4.46566e-12 3.43026e-12 2.40854e-12 0 0 9.39232e-12 1.55447e-11 1.37865e-11 8.5485e-12 0 0 3.14768e-11 4.60324e-11 4.05521e-11 2.29491e-11 0 0 7.65542e-11 1.08773e-10 9.06535e-11 4.60226e-11 0 0 1.47774e-10 2.06508e-10 1.58026e-10 6.84565e-11 0 0 2.33801e-10 3.24222e-10 2.19937e-10 6.42547e-11 0 0 2.9818e-10 4.3307e-10 2.52118e-10 1.87386e-11 0 0 3.06287e-10 5.0635e-10 2.49341e-10 -9.03308e-11 0 0 1.75138e-10 5.39108e-10 2.91082e-10 -3.0865e-10 0 0 -1.79487e-10 7.34748e-10 4.23082e-10 -6.98109e-10 0 0 -1.49118e-09 1.03479e-09 7.39321e-10 -1.34121e-09 0 0 -2.15717e-09 3.60895e-10 2.43966e-09 -3.43308e-09 0 0 -8.99991e-10 -5.963e-09 1.21152e-08 -1.12291e-08 0 0 3.65905e-09 -1.07527e-08 1.30619e-08 -1.07826e-08 0 0 3.58307e-09 -6.41235e-09 1.37309e-09 1.4062e-09 0 0 -2.83281e-10 8.14272e-09 -2.19283e-08 1.95923e-08 0 0 -3.51258e-09 1.17328e-08 -2.36365e-08 2.00341e-08 0 0 -2.59342e-09 8.69061e-09 -1.81536e-08 1.48922e-08 0 0 1.30478e-09 -1.12825e-09 -4.38374e-09 4.66033e-09 0 0 4.4891e-09 -9.73245e-09 9.60044e-09 -6.44775e-09 0 0 3.88907e-09 -9.36901e-09 1.10498e-08 -8.58852e-09 0 0 5.56059e-10 -4.33337e-09 7.43698e-09 -6.51701e-09 0 0 -2.00487e-09 5.53092e-10 3.63606e-09 -4.4541e-09 0 0 -2.09199e-09 1.0796e-09 1.23127e-09 -2.91652e-09 0 0 -1.47028e-09 9.53694e-10 -2.58366e-11 -1.19674e-09 0 0 -5.02149e-10 3.91279e-10 -1.80557e-10 -3.21016e-10 0 0 -1.55205e-10 2.52123e-11 -1.14456e-10 -2.11929e-10 0 0 -6.27049e-11 -2.98558e-11 -6.84268e-11 -1.25807e-10 0 0 -2.50368e-11 -3.07698e-11 -4.76912e-11 -5.62879e-11 0 0 -9.64225e-12 -1.82356e-11 -2.63501e-11 -2.14834e-11 0 0 -3.37373e-12 -7.12672e-12 -1.00435e-11 -7.51107e-12 0 0 -9.35577e-13 -1.95707e-12 -2.79875e-12 -2.04074e-12 0 0 -1.85196e-13 -4.4881e-13 -4.35205e-13 -5.48345e-13 0 0 -2.57811e-13 1.00002e-13 -1.4848e-13 -1.84279e-13 0 0 -4.83567e-13 4.75276e-13 -5.01889e-13 1.35e-13 0 0 -1.81765e-13 -2.93551e-14 -8.59578e-14 -1.10187e-13 0 0 7.34102e-14 -4.32734e-13 2.81284e-13 -3.57755e-13 0 0 -4.90546e-15 -3.49176e-13 2.14561e-13 -3.41116e-13 0 0 -2.49601e-13 5.99034e-15 -1.35375e-13 -1.03951e-13 0 0 -5.51346e-13 4.91401e-13 -6.34066e-13 2.63392e-13 0 0 -3.00349e-13 6.41875e-14 -2.39761e-13 3.15117e-14 0 0 3.526e-14 -4.30552e-13 1.42546e-13 -2.1081e-13 0 0 3.38565e-14 -4.23305e-13 1.03283e-13 -2.29289e-13 0 0 -2.96229e-13 -1.07103e-14 -1.72968e-13 -1.44958e-13 0 0 -6.50009e-13 5.0286e-13 -5.91734e-13 5.50835e-14 0 0 -3.6875e-13 9.3955e-14 -2.29543e-13 -1.90606e-13 0 0 -1.13339e-13 -2.33056e-13 -7.32631e-14 -2.54636e-13 0 0 -8.44807e-14 -3.23296e-13 -5.1394e-14 -2.25799e-13 0 0 -3.12954e-13 -6.39999e-14 -2.4893e-13 -1.39667e-13 0 0 -5.61437e-13 3.46337e-13 -7.26509e-13 1.91028e-13 0 0 -2.43e-13 -1.72626e-13 -2.83096e-13 6.00529e-14 0 0 -2.9362e-13 -2.4211e-13 -1.98407e-14 -7.38991e-14 0 0 -4.1443e-13 -2.26886e-13 2.26886e-13 -3.17506e-13 0 0 -1.87707e-13 -5.76429e-13 5.34319e-13 -4.05439e-13 0 0 -6.91794e-13 2.48439e-13 -3.84834e-13 4.20955e-13 0 0 -8.13455e-13 3.84785e-13 -4.52316e-13 7.49288e-13 0 0 9.85315e-15 -7.35777e-13 6.83503e-13 5.04227e-14 0 0 2.15333e-13 -7.39617e-13 6.53905e-13 -1.12719e-13 0 0 -1.45765e-13 -5.21066e-14 1.90278e-13 -1.69401e-14 0 0 -7.00723e-13 8.20821e-13 -4.75954e-13 3.23187e-13 0 0 -6.99554e-13 6.65809e-13 -3.19935e-13 4.75528e-13 0 0 7.37264e-14 -7.90569e-13 1.23246e-12 -3.56216e-13 0 0 -8.31205e-14 -6.54105e-13 1.21184e-12 -4.83828e-13 0 0 -5.29398e-13 1.81238e-13 1.63548e-13 2.13371e-13 0 0 -6.92327e-13 6.15144e-13 -7.09085e-13 1.01225e-12 0 0 -5.01449e-13 2.31384e-13 -5.1553e-13 8.74428e-13 0 0 -1.12108e-13 -3.90386e-13 7.45983e-14 2.67148e-13 0 0 -6.21644e-14 -4.12655e-13 1.31669e-13 -4.10575e-15 0 0 -3.21089e-13 -2.48839e-13 1.9432e-13 -2.54392e-13 0 0 -8.20339e-13 1.60868e-13 -5.20186e-14 -2.19132e-13 0 0 -6.73198e-13 -1.62328e-13 1.05673e-13 -3.45386e-13 0 0 5.11738e-14 -1.08816e-12 5.25995e-13 -5.59733e-13 0 0 3.95265e-13 -1.53354e-12 5.56982e-13 -5.60847e-13 0 0 -5.70676e-13 -5.38427e-14 -8.41875e-13 1.12948e-13 0 0 -1.40759e-12 1.25294e-12 -1.88682e-12 7.4483e-13 0 0 -4.32614e-13 -6.93631e-14 -5.66849e-13 1.5843e-13 0 0 4.86105e-13 -1.41009e-12 6.47422e-13 -2.54888e-13 0 0 1.24094e-13 -1.16665e-12 6.45607e-13 -2.02565e-13 0 0 -5.63588e-13 -1.60276e-13 -2.36472e-13 1.63418e-13 0 0 -8.56299e-13 6.08184e-13 -1.59175e-12 1.21106e-12 0 0 -3.92097e-13 5.40555e-14 -1.41349e-12 1.21575e-12 0 0 -4.43604e-13 -3.82172e-14 -1.0674e-12 7.9416e-13 0 0 -6.18964e-13 -1.15146e-13 -5.36384e-13 2.43553e-13 0 0 -8.73651e-14 -9.70708e-13 4.04751e-13 -4.88323e-13 0 0 -1.97583e-13 -5.32668e-13 -3.91053e-13 -1.20084e-13 0 0 -3.8492e-13 -2.9745e-13 -5.43823e-13 -2.36528e-13 0 0 -8.0928e-13 2.40276e-13 -6.97927e-13 -2.74903e-13 0 0 -7.03959e-13 1.54341e-13 -7.37789e-13 -3.68229e-14 0 0 6.40706e-14 -1.051e-12 1.40416e-13 -1.71381e-13 0 0 -1.20269e-13 -7.49942e-13 -3.35629e-13 2.72124e-13 0 0 -4.20454e-13 -3.54533e-13 -6.09049e-13 2.81363e-13 0 0 -8.94446e-13 3.27779e-13 -9.20036e-13 2.89719e-13 0 0 -7.51484e-13 1.79502e-13 -7.02629e-13 1.20421e-13 0 0 -2.06587e-14 -9.12456e-13 2.26422e-13 -4.9102e-13 0 0 -8.21231e-14 -8.05741e-13 -1.20927e-13 -2.83923e-13 0 0 -4.57929e-13 -3.48636e-13 -4.88657e-13 -1.46917e-13 0 0 -6.82924e-13 -3.34767e-15 -5.92013e-13 -2.18623e-13 0 0 -5.52052e-13 -1.33895e-13 -3.92796e-13 -3.84328e-13 0 0 -2.74261e-15 -8.50434e-13 3.86579e-13 -1.0161e-12 0 0 -7.40967e-14 -7.93817e-13 2.25431e-13 -7.06434e-13 0 0 -8.9152e-13 3.70831e-14 -3.00525e-13 -1.34889e-13 0 0 -1.46811e-12 7.70492e-13 -5.91832e-13 -1.40116e-13 0 0 -7.738e-13 -1.07275e-13 5.81682e-14 -6.38239e-13 0 0 -5.01999e-14 -1.04302e-12 6.68368e-13 -8.91448e-13 0 0 -9.98856e-13 3.67972e-13 -5.26176e-13 -1.11784e-13 0 0 -1.5318e-12 9.73579e-13 -5.90877e-13 -2.18559e-13 0 0 -5.81427e-13 -3.87142e-13 8.08388e-13 -1.20791e-12 0 0 4.32791e-13 -1.47843e-12 1.56189e-12 -1.6716e-12 0 0 2.60738e-13 -9.52775e-13 1.1278e-12 -1.5202e-12 0 0 -1.16042e-12 9.50401e-13 -2.63799e-13 -1.00529e-12 0 0 -1.38219e-12 1.07111e-12 -3.55372e-13 -1.0422e-12 0 0 -1.12698e-13 -8.01805e-13 8.83603e-13 -1.4375e-12 0 0 4.57777e-13 -1.64736e-12 1.37062e-12 -1.47417e-12 0
				</DataArray>
				<DataArray Name="VitesseY" type="Float32" format="ascii">