<?xml version="1.0"?>
<VTKFile type="PolyData">
	<PolyData>
		<Piece NumberOfPoints="1206" NumberOfPolys="1000">
			<Points>
				<DataArray type="Float32" NumberOfComponents="3" format="ascii">
 0 0 0 0.02 0 0 0.04 0 0 0.06 0 0 0.08 0 0 0.1 0 0 0 0.005 0 0.02 0.005 0 0.04 0.005 0 0.06 0.005 0 0.08 0.005 0 0.1 0.005 0 0 0.01 0 0.02 0.01 0 0.04 0.01 0 0.06 0.01 0 0.08 0.01 0 0.1 0.01 0 0 0.015 0 0.02 0.015 0 0.04 0.015 0 0.06 0.015 0 0.08 0.015 0 0.1 0.015 0 0 0.02 0 0.02 0.02 0 0.04 0.02 0 0.06 0.02 0 0.08 0.02 0 0.1 0.02 0 0 0.025 0 0.02 0.025 0 0.04 0.025 0 0.06 0.025 0 0.08 0.025 0 0.1 0.025 0 0 0.03 0 0.02 0.03 0 0.04 0.03 0 0.06 0.03 0 0.08 0.03 0 0.1 0.03 0 0 0.035 0 0.02 0.035 0 0.04 0.035 0 0.06 0.035 0 0.08 0.035 0 0.1 0.035 0 0 0.04 0 0.02 0.04 0 0.04 0.04 0 0.06 0.04 0 0.08 0.04 0 0.1 0.04 0 0 0.045 0 0.02 0.045 0 0.04 0.045 0 0.06 0.045 0 0.08 0.045 0 0.1 0.045 0 0 0.05 0 0.02 0.05 0 0.04 0.05 0 0.06 0.05 0 0.08 0.05 0 0.1 0.05 0 0 0.055 0 0.02 0.055 0 0.04 0.055 0 0.06 0.055 0 0.08 0.055 0 0.1 0.055 0 0 0.06 0 0.02 0.06 0 0.04 0.06 0 0.06 0.06 0 0.08 0.06 0 0.1 0.06 0 0 0.065 0 0.02 0.065 0 0.04 0.065 0 0.06 0.065 0 0.08 0.065 0 0.1 0.065 0 0 0.07 0 0.02 0.07 0 0.04 0.07 0 0.06 0.07 0 0.08 0.07 0 0.1 0.07 0 0 0.075 0 0.02 0.075 0 0.04 0.075 0 0.06 0.075 0 0.08 0.075 0 0.1 0.075 0 0 0.08 0 0.02 0.08 0 0.04 0.08 0 0.06 0.08 0 0.08 0.08 0 0.1 0.08 0 0 0.085 0 0.02 0.085 0 0.04 0.085 0 0.06 0.085 0 0.08 0.085 0 0.1 0.085 0 0 0.09 0 0.02 0.09 0 0.04 0.09 0 0.06 0.09 0 0.08 0.09 0 0.1 0.09 0 0 0.095 0 0.02 0.095 0 0.04 0.095 0 0.06 0.095 0 0.08 0.095 0 0.1 0.095 0 0 0.1 0 0.02 0.1 0 0.04 0.1 0 0.06 0.1 0 0.08 0.1 0 0.1 0.1 0 0 0.105 0 0.02 0.105 0 0.04 0.105 0 0.06 0.105 0 0.08 0.105 0 0.1 0.105 0 0 0.11 0 0.02 0.11 0 0.04 0.11 0 0.06 0.11 0 0.08 0.11 0 0.1 0.11 0 0 0.115 0 0.02 0.115 0 0.04 0.115 0 0.06 0.115 0 0.08 0.115 0 0.1 0.115 0 0 0.12 0 0.02 0.12 0 0.04 0.12 0 0.06 0.12 0 0.08 0.12 0 0.1 0.12 0 0 0.125 0 0.02 0.125 0 0.04 0.125 0 0.06 0.125 0 0.08 0.125 0 0.1 0.125 0 0 0.13 0 0.02 0.13 0 0.04 0.13 0 0.06 0.13 0 0.08 0.13 0 0.1 0.13 0 0 0.135 0 0.02 0.135 0 0.04 0.135 0 0.06 0.135 0 0.08 0.135 0 0.1 0.135 0 0 0.14 0 0.02 0.14 0 0.04 0.14 0 0.06 0.14 0 0.08 0.14 0 0.1 0.14 0 0 0.145 0 0.02 0.145 0 0.04 0.145 0 0.06 0.145 0 0.08 0.145 0 0.1 0.145 0 0 0.15 0 0.02 0.15 0 0.04 0.15 0 0.06 0.15 0 0.08 0.15 0 0.1 0.15 0 0 0.155 0 0.02 0.155 0 0.04 0.155 0 0.06 0.155 0 0.08 0.155 0 0.1 0.155 0 0 0.16 0 0.02 0.16 0 0.04 0.16 0 0.06 0.16 0 0.08 0.16 0 0.1 0.16 0 0 0.165 0 0.02 0.165 0 0.04 0.165 0 0.06 0.165 0 0.08 0.165 0 0.1 0.165 0 0 0.17 0 0.02 0.17 0 0.04 0.17 0 0.06 0.17 0 0.08 0.17 0 0.1 0.17 0 0 0.175 0 0.02 0.175 0 0.04 0.175 0 0.06 0.175 0 0.08 0.175 0 0.1 0.175 0 0 0.18 0 0.02 0.18 0 0.04 0.18 0 0.06 0.18 0 0.08 0.18 0 0.1 0.18 0 0 0.185 0 0.02 0.185 0 0.04 0.185 0 0.06 0.185 0 0.08 0.185 0 0.1 0.185 0 0 0.19 0 0.02 0.19 0 0.04 0.19 0 0.06 0.19 0 0.08 0.19 0 0.1 0.19 0 0 0.195 0 0.02 0.195 0 0.04 0.195 0 0.06 0.195 0 0.08 0.195 0 0.1 0.195 0 0 0.2 0 0.02 0.2 0 0.04 0.2 0 0.06 0.2 0 0.08 0.2 0 0.1 0.2 0 0 0.205 0 0.02 0.205 0 0.04 0.205 0 0.06 0.205 0 0.08 0.205 0 0.1 0.205 0 0 0.21 0 0.02 0.21 0 0.04 0.21 0 0.06 0.21 0 0.08 0.21 0 0.1 0.21 0 0 0.215 0 0.02 0.215 0 0.04 0.215 0 0.06 0.215 0 0.08 0.215 0 0.1 0.215 0 0 0.22 0 0.02 0.22 0 0.04 0.22 0 0.06 0.22 0 0.08 0.22 0 0.1 0.22 0 0 0.225 0 0.02 0.225 0 0.04 0.225 0 0.06 0.225 0 0.08 0.225 0 0.1 0.225 0 0 0.23 0 0.02 0.23 0 0.04 0.23 0 0.06 0.23 0 0.08 0.23 0 0.1 0.23 0 0 0.235 0 0.02 0.235 0 0.04 0.235 0 0.06 0.235 0 0.08 0.235 0 0.1 0.235 0 0 0.24 0 0.02 0.24 0 0.04 0.24 0 0.06 0.24 0 0.08 0.24 0 0.1 0.24 0 0 0.245 0 0.02 0.245 0 0.04 0.245 0 0.06 0.245 0 0.08 0.245 0 0.1 0.245 0 0 0.25 0 0.02 0.25 0 0.04 0.25 0 0.06 0.25 0 0.08 0.25 0 0.1 0.25 0 0 0.255 0 0.02 0.255 0 0.04 0.255 0 0.06 0.255 0 0.08 0.255 0 0.1 0.255 0 0 0.26 0 0.02 0.26 0 0.04 0.26 0 0.06 0.26 0 0.08 0.26 0 0.1 0.26 0 0 0.265 0 0.02 0.265 0 0.04 0.265 0 0.06 0.265 0 0.08 0.265 0 0.1 0.265 0 0 0.27 0 0.02 0.27 0 0.04 0.27 0 0.06 0.27 0 0.08 0.27 0 0.1 0.27 0 0 0.275 0 0.02 0.275 0 0.04 0.275 0 0.06 0.275 0 0.08 0.275 0 0.1 0.275 0 0 0.28 0 0.02 0.28 0 0.04 0.28 0 0.06 0.28 0 0.08 0.28 0 0.1 0.28 0 0 0.285 0 0.02 0.285 0 0.04 0.285 0 0.06 0.285 0 0.08 0.285 0 0.1 0.285 0 0 0.29 0 0.02 0.29 0 0.04 0.29 0 0.06 0.29 0 0.08 0.29 0 0.1 0.29 0 0 0.295 0 0.02 0.295 0 0.04 0.295 0 0.06 0.295 0 0.08 0.295 0 0.1 0.295 0 0 0.3 0 0.02 0.3 0 0.04 0.3 0 0.06 0.3 0 0.08 0.3 0 0.1 0.3 0 0 0.305 0 0.02 0.305 0 0.04 0.305 0 0.06 0.305 0 0.08 0.305 0 0.1 0.305 0 0 0.31 0 0.02 0.31 0 0.04 0.31 0 0.06 0.31 0 0.08 0.31 0 0.1 0.31 0 0 0.315 0 0.02 0.315 0 0.04 0.315 0 0.06 0.315 0 0.08 0.315 0 0.1 0.315 0 0 0.32 0 0.02 0.32 0 0.04 0.32 0 0.06 0.32 0 0.08 0.32 0 0.1 0.32 0 0 0.325 0 0.02 0.325 0 0.04 0.325 0 0.06 0.325 0 0.08 0.325 0 0.1 0.325 0 0 0.33 0 0.02 0.33 0 0.04 0.33 0 0.06 0.33 0 0.08 0.33 0 0.1 0.33 0 0 0.335 0 0.02 0.335 0 0.04 0.335 0 0.06 0.335 0 0.08 0.335 0 0.1 0.335 0 0 0.34 0 0.02 0.34 0 0.04 0.34 0 0.06 0.34 0 0.08 0.34 0 0.1 0.34 0 0 0.345 0 0.02 0.345 0 0.04 0.345 0 0.06 0.345 0 0.08 0.345 0 0.1 0.345 0 0 0.35 0 0.02 0.35 0 0.04 0.35 0 0.06 0.35 0 0.08 0.35 0 0.1 0.35 0 0 0.355 0 0.02 0.355 0 0.04 0.355 0 0.06 0.355 0 0.08 0.355 0 0.1 0.355 0 0 0.36 0 0.02 0.36 0 0.04 0.36 0 0.06 0.36 0 0.08 0.36 0 0.1 0.36 0 0 0.365 0 0.02 0.365 0 0.04 0.365 0 0.06 0.365 0 0.08 0.365 0 0.1 0.365 0 0 0.37 0 0.02 0.37 0 0.04 0.37 0 0.06 0.37 0 0.08 0.37 0 0.1 0.37 0 0 0.375 0 0.02 0.375 0 0.04 0.375 0 0.06 0.375 0 0.08 0.375 0 0.1 0.375 0 0 0.38 0 0.02 0.38 0 0.04 0.38 0 0.06 0.38 0 0.08 0.38 0 0.1 0.38 0 0 0.385 0 0.02 0.385 0 0.04 0.385 0 0.06 0.385 0 0.08 0.385 0 0.1 0.385 0 0 0.39 0 0.02 0.39 0 0.04 0.39 0 0.06 0.39 0 0.08 0.39 0 0.1 0.39 0 0 0.395 0 0.02 0.395 0 0.04 0.395 0 0.06 0.395 0 0.08 0.395 0 0.1 0.395 0 0 0.4 0 0.02 0.4 0 0.04 0.4 0 0.06 0.4 0 0.08 0.4 0 0.1 0.4 0 0 0.405 0 0.02 0.405 0 0.04 0.405 0 0.06 0.405 0 0.08 0.405 0 0.1 0.405 0 0 0.41 0 0.02 0.41 0 0.04 0.41 0 0.06 0.41 0 0.08 0.41 0 0.1 0.41 0 0 0.415 0 0.02 0.415 0 0.04 0.415 0 0.06 0.415 0 0.08 0.415 0 0.1 0.415 0 0 0.42 0 0.02 0.42 0 0.04 0.42 0 0.06 0.42 0 0.08 0.42 0 0.1 0.42 0 0 0.425 0 0.02 0.425 0 0.04 0.425 0 0.06 0.425 0 0.08 0.425 0 0.1 0.425 0 0 0.43 0 0.02 0.43 0 0.04 0.43 0 0.06 0.43 0 0.08 0.43 0 0.1 0.43 0 0 0.435 0 0.02 0.435 0 0.04 0.435 0 0.06 0.435 0 0.08 0.435 0 0.1 0.435 0 0 0.44 0 0.02 0.44 0 0.04 0.44 0 0.06 0.44 0 0.08 0.44 0 0.1 0.44 0 0 0.445 0 0.02 0.445 0 0.04 0.445 0 0.06 0.445 0 0.08 0.445 0 0.1 0.445 0 0 0.45 0 0.02 0.45 0 0.04 0.45 0 0.06 0.45 0 0.08 0.45 0 0.1 0.45 0 0 0.455 0 0.02 0.455 0 0.04 0.455 0 0.06 0.455 0 0.08 0.455 0 0.1 0.455 0 0 0.46 0 0.02 0.46 0 0.04 0.46 0 0.06 0.46 0 0.08 0.46 0 0.1 0.46 0 0 0.465 0 0.02 0.465 0 0.04 0.465 0 0.06 0.465 0 0.08 0.465 0 0.1 0.465 0 0 0.47 0 0.02 0.47 0 0.04 0.47 0 0.06 0.47 0 0.08 0.47 0 0.1 0.47 0 0 0.475 0 0.02 0.475 0 0.04 0.475 0 0.06 0.475 0 0.08 0.475 0 0.1 0.475 0 0 0.48 0 0.02 0.48 0 0.04 0.48 0 0.06 0.48 0 0.08 0.48 0 0.1 0.48 0 0 0.485 0 0.02 0.485 0 0.04 0.485 0 0.06 0.485 0 0.08 0.485 0 0.1 0.485 0 0 0.49 0 0.02 0.49 0 0.04 0.49 0 0.06 0.49 0 0.08 0.49 0 0.1 0.49 0 0 0.495 0 0.02 0.495 0 0.04 0.495 0 0.06 0.495 0 0.08 0.495 0 0.1 0.495 0 0 0.5 0 0.02 0.5 0 0.04 0.5 0 0.06 0.5 0 0.08 0.5 0 0.1 0.5 0 0 0.505 0 0.02 0.505 0 0.04 0.505 0 0.06 0.505 0 0.08 0.505 0 0.1 0.505 0 0 0.51 0 0.02 0.51 0 0.04 0.51 0 0.06 0.51 0 0.08 0.51 0 0.1 0.51 0 0 0.515 0 0.02 0.515 0 0.04 0.515 0 0.06 0.515 0 0.08 0.515 0 0.1 0.515 0 0 0.52 0 0.02 0.52 0 0.04 0.52 0 0.06 0.52 0 0.08 0.52 0 0.1 0.52 0 0 0.525 0 0.02 0.525 0 0.04 0.525 0 0.06 0.525 0 0.08 0.525 0 0.1 0.525 0 0 0.53 0 0.02 0.53 0 0.04 0.53 0 0.06 0.53 0 0.08 0.53 0 0.1 0.53 0 0 0.535 0 0.02 0.535 0 0.04 0.535 0 0.06 0.535 0 0.08 0.535 0 0.1 0.535 0 0 0.54 0 0.02 0.54 0 0.04 0.54 0 0.06 0.54 0 0.08 0.54 0 0.1 0.54 0 0 0.545 0 0.02 0.545 0 0.04 0.545 0 0.06 0.545 0 0.08 0.545 0 0.1 0.545 0 0 0.55 0 0.02 0.55 0 0.04 0.55 0 0.06 0.55 0 0.08 0.55 0 0.1 0.55 0 0 0.555 0 0.02 0.555 0 0.04 0.555 0 0.06 0.555 0 0.08 0.555 0 0.1 0.555 0 0 0.56 0 0.02 0.56 0 0.04 0.56 0 0.06 0.56 0 0.08 0.56 0 0.1 0.56 0 0 0.565 0 0.02 0.565 0 0.04 0.565 0 0.06 0.565 0 0.08 0.565 0 0.1 0.565 0 0 0.57 0 0.02 0.57 0 0.04 0.57 0 0.06 0.57 0 0.08 0.57 0 0.1 0.57 0 0 0.575 0 0.02 0.575 0 0.04 0.575 0 0.06 0.575 0 0.08 0.575 0 0.1 0.575 0 0 0.58 0 0.02 0.58 0 0.04 0.58 0 0.06 0.58 0 0.08 0.58 0 0.1 0.58 0 0 0.585 0 0.02 0.585 0 0.04 0.585 0 0.06 0.585 0 0.08 0.585 0 0.1 0.585 0 0 0.59 0 0.02 0.59 0 0.04 0.59 0 0.06 0.59 0 0.08 0.59 0 0.1 0.59 0 0 0.595 0 0.02 0.595 0 0.04 0.595 0 0.06 0.595 0 0.08 0.595 0 0.1 0.595 0 0 0.6 0 0.02 0.6 0 0.04 0.6 0 0.06 0.6 0 0.08 0.6 0 0.1 0.6 0 0 0.605 0 0.02 0.605 0 0.04 0.605 0 0.06 0.605 0 0.08 0.605 0 0.1 0.605 0 0 0.61 0 0.02 0.61 0 0.04 0.61 0 0.06 0.61 0 0.08 0.61 0 0.1 0.61 0 0 0.615 0 0.02 0.615 0 0.04 0.615 0 0.06 0.615 0 0.08 0.615 0 0.1 0.615 0 0 0.62 0 0.02 0.62 0 0.04 0.62 0 0.06 0.62 0 0.08 0.62 0 0.1 0.62 0 0 0.625 0 0.02 0.625 0 0.04 0.625 0 0.06 0.625 0 0.08 0.625 0 0.1 0.625 0 0 0.63 0 0.02 0.63 0 0.04 0.63 0 0.06 0.63 0 0.08 0.63 0 0.1 0.63 0 0 0.635 0 0.02 0.635 0 0.04 0.635 0 0.06 0.635 0 0.08 0.635 0 0.1 0.635 0 0 0.64 0 0.02 0.64 0 0.04 0.64 0 0.06 0.64 0 0.08 0.64 0 0.1 0.64 0 0 0.645 0 0.02 0.645 0 0.04 0.645 0 0.06 0.645 0 0.08 0.645 0 0.1 0.645 0 0 0.65 0 0.02 0.65 0 0.04 0.65 0 0.06 0.65 0 0.08 0.65 0 0.1 0.65 0 0 0.655 0 0.02 0.655 0 0.04 0.655 0 0.06 0.655 0 0.08 0.655 0 0.1 0.655 0 0 0.66 0 0.02 0.66 0 0.04 0.66 0 0.06 0.66 0 0.08 0.66 0 0.1 0.66 0 0 0.665 0 0.02 0.665 0 0.04 0.665 0 0.06 0.665 0 0.08 0.665 0 0.1 0.665 0 0 0.67 0 0.02 0.67 0 0.04 0.67 0 0.06 0.67 0 0.08 0.67 0 0.1 0.67 0 0 0.675 0 0.02 0.675 0 0.04 0.675 0 0.06 0.675 0 0.08 0.675 0 0.1 0.675 0 0 0.68 0 0.02 0.68 0 0.04 0.68 0 0.06 0.68 0 0.08 0.68 0 0.1 0.68 0 0 0.685 0 0.02 0.685 0 0.04 0.685 0 0.06 0.685 0 0.08 0.685 0 0.1 0.685 0 0 0.69 0 0.02 0.69 0 0.04 0.69 0 0.06 0.69 0 0.08 0.69 0 0.1 
[...]
			<PointData Scalars="VitesseX">
				<DataArray Name="VitesseX" type="Float32" format="ascii">
 0 -1.12582e-14 1.29415e-14 -1.50183e-14 2.52212e-14 0 0 -7.99666e-15 5.58258e-15 -7.1086e-15 1.99444e-14 0 0 -2.00189e-15 -9.92747e-15 7.47867e-15 1.63196e-14 0 0 -8.18298e-16 -1.53978e-14 9.93908e-15 2.29863e-14 0 0 7.53221e-15 -2.7063e-14 2.09208e-14 2.41179e-14 0 0 1.82245e-15 -1.53378e-14 2.4507e-14 2.1452e-14 0 0 -3.04848e-14 3.73263e-14 3.02243e-15 3.19062e-14 0 0 -2.88398e-14 3.46235e-14 4.09994e-14 8.69406e-15 0 0 -1.84327e-14 2.36254e-14 7.92195e-14 -1.51793e-14 0 0 1.40271e-14 -2.20844e-15 9.88511e-14 -1.16601e-14 0 0 6.13342e-14 -6.02427e-14 1.40605e-13 -2.29357e-14 0 0 4.62614e-14 -1.10328e-14 7.56522e-14 1.06707e-14 0 0 3.53202e-14 3.2034e-14 2.86936e-14 3.04003e-14 0 0 2.64735e-14 4.83831e-14 4.4479e-15 5.28205e-14 0 0 2.42256e-14 4.33481e-14 -1.52058e-14 7.26053e-14 0 0 3.65283e-14 1.05401e-14 1.69734e-14 3.0939e-14 0 0 4.97135e-14 -7.68095e-15 4.53685e-14 -2.42684e-14 0 0 9.3158e-14 -6.82625e-14 1.13563e-13 -9.55608e-14 0 0 9.5535e-14 -4.88379e-14 5.25401e-14 -2.10862e-14 0 0 1.89018e-14 7.7496e-14 -8.06169e-14 7.18149e-14 0 0 -1.21505e-14 9.94729e-14 -6.80995e-14 1.28707e-14 0 0 8.84453e-15 2.50877e-14 8.29861e-15 -4.81567e-14 0 0 5.28734e-14 -1.04057e-13 1.56294e-13 -1.24391e-13 0 0 -3.10758e-14 -1.9296e-14 4.74223e-14 -8.66398e-16 0 0 -1.32965e-13 1.06872e-13 -1.06539e-13 1.36964e-13 0 0 -3.14675e-14 -7.97923e-14 7.06155e-14 5.66822e-14 0 0 -2.031e-14 -7.3862e-14 4.42775e-14 8.461e-14 0 0 -3.79782e-14 -7.05346e-15 1.57058e-14 6.40608e-14 0 0 3.16826e-14 -1.26383e-13 2.19314e-13 -1.03879e-13 0 0 -7.39374e-15 -8.00253e-14 2.08177e-13 -1.17288e-13 0 0 -7.27032e-14 2.54754e-14 9.74282e-14 -3.79205e-14 0 0 -3.86541e-14 2.8266e-14 5.29237e-14 -2.07828e-14 0 0 -1.67027e-14 2.80602e-14 5.07521e-14 -5.53261e-14 0 0 4.95597e-14 -8.87264e-14 1.98112e-13 -1.34929e-13 0 0 7.90018e-15 -2.25819e-14 1.11518e-13 -2.38499e-14 0 0 -2.29489e-14 1.02026e-14 6.97771e-14 3.6992e-14 0 0 9.99628e-14 -1.71815e-13 2.29853e-13 -2.88263e-14 0 0 6.63157e-14 -9.43665e-14 1.33367e-13 8.39799e-14 0 0 5.8783e-15 2.14503e-14 7.42459e-16 1.82111e-13 0 0 -4.77833e-16 5.32539e-14 1.4563e-14 1.0095e-13 0 0 3.18293e-14 3.05373e-14 1.10023e-13 -5.20398e-14 0 0 -3.16712e-14 1.13933e-13 8.7193e-14 -4.74677e-14 0 0 -1.08875e-13 1.89444e-13 4.49771e-14 1.06862e-14 0 0 -4.91876e-14 1.39527e-13 2.44747e-15 6.12966e-14 0 0 7.84478e-14 1.59567e-14 3.69817e-14 8.50966e-14 0 0 1.27092e-13 4.75074e-16 1.62521e-14 1.49756e-13 0 0 1.55123e-13 2.20867e-14 -1.21646e-14 1.91112e-13 0 0 6.58757e-14 1.76296e-13 -9.92353e-14 2.42291e-13 0 0 -2.49765e-14 2.62386e-13 -1.05624e-13 2.39074e-13 0 0 1.79089e-13 -8.98464e-14 1.82553e-13 1.21275e-13 0 0 4.66308e-13 -5.11475e-13 4.82391e-13 1.90293e-14 0 0 4.18066e-13 -4.02784e-13 3.52218e-13 6.95838e-14 0 0 3.45806e-14 2.89648e-13 -4.17191e-13 5.14754e-13 0 0 1.89943e-13 1.04547e-13 -3.45462e-13 4.65637e-13 0 0 4.48344e-13 -3.62261e-13 9.3833e-14 1.4972e-13 0 0 2.63071e-13 -1.43272e-13 -1.09559e-13 2.58242e-13 0 0 2.20256e-13 -1.27865e-13 -1.05281e-13 2.47095e-13 0 0 1.61393e-13 -4.17097e-14 -1.48544e-13 2.18466e-13 0 0 7.58978e-14 1.00751e-13 -1.73868e-13 6.78621e-14 0 0 1.77641e-13 -7.11305e-14 8.03082e-14 -1.44336e-13 0 0 2.05755e-13 -1.05647e-13 9.33395e-14 -4.21579e-14 0 0 8.31396e-14 7.52173e-14 -7.69477e-15 3.90034e-14 0 0 2.68287e-14 1.90573e-13 -7.0313e-14 6.73505e-14 0 0 5.43275e-14 1.27586e-13 -3.28434e-14 7.95141e-14 0 0 -6.70211e-14 2.37845e-13 -7.39456e-14 1.16296e-13 0 0 3.93503e-14 5.42392e-14 1.12589e-13 -9.69497e-15 0 0 2.10828e-13 -1.52025e-13 1.97673e-13 -2.22655e-14 0 0 2.37009e-13 4.61113e-17 -1.18299e-14 9.28736e-14 0 0 3.68584e-13 -1.62002e-14 8.4879e-14 -2.29091e-14 0 0 4.03704e-13 2.40622e-14 1.20192e-13 -2.31481e-14 0 0 4.38496e-13 6.114e-15 8.87682e-14 2.7254e-14 0 0 4.26328e-13 4.04176e-15 7.81222e-14 1.32955e-14 0 0 4.77717e-13 -1.18127e-14 1.06154e-13 -3.70291e-14 0 0 3.6932e-13 2.11968e-13 -1.21467e-13 1.6082e-13 0 0 3.04931e-13 1.5251e-13 1.11526e-13 1.13942e-13 0 0 3.80779e-13 2.58424e-14 3.94739e-13 3.4988e-14 0 0 3.67356e-13 2.99624e-13 2.49084e-13 3.67381e-13 0 0 5.21412e-13 6.70631e-13 6.57782e-13 5.78724e-13 0 0 1.30188e-12 1.88784e-12 2.05548e-12 1.13404e-12 0 0 3.85973e-12 5.12581e-12 5.9817e-12 3.2034e-12 0 0 8.78486e-12 1.42541e-11 1.37223e-11 8.82834e-12 0 0 1.86957e-11 3.11595e-11 2.94447e-11 1.85445e-11 0 0 3.58188e-11 5.64616e-11 5.55757e-11 3.26085e-11 0 0 5.83982e-11 9.17357e-11 8.78314e-11 5.17197e-11 0 0 8.4676e-11 1.32649e-10 1.22458e-10 7.28586e-11 0 0 1.13304e-10 1.71669e-10 1.5636e-10 9.05749e-11 0 0 1.39508e-10 2.05666e-10 1.83952e-10 1.01979e-10 0 0 1.60252e-10 2.31596e-10 2.01328e-10 1.06848e-10 0 0 1.73635e-10 2.47537e-10 2.0595e-10 1.04318e-10 0 0 1.79322e-10 2.51049e-10 1.97754e-10 9.60795e-11 0 0 1.72445e-10 2.39075e-10 1.80311e-10 7.93696e-11 0 0 1.55603e-10 2.1306e-10 1.5036e-10 5.77481e-11 0 0 1.24046e-10 1.69832e-10 1.14255e-10 3.41475e-11 0 0 7.3776e-11 1.06055e-10 6.50212e-11 4.24204e-12 0 0 1.44901e-11 3.65831e-11 1.27197e-11 -2.23223e-11 0 0 -8.47282e-11 -6.44892e-11 -4.44537e-11 -5.51459e-11 0 0 -1.77255e-10 -1.62155e-10 -1.053e-10 -8.85265e-11 0 0 -3.05557e-10 -2.94836e-10 -1.6749e-10 -1.1623e-10 0 0 -4.48953e-10 -4.16658e-10 -2.38294e-10 -1.3303e-10 0 0 -5.56008e-10 -6.43343e-10 -3.00422e-10 -9.96433e-11 0 0 -1.02489e-09 -6.6816e-10 -3.92143e-10 -8.18934e-11 0 0 -1.01543e-09 -9.25169e-10 -1.27589e-10 -2.70094e-10 0 0 -5.54571e-10 -1.43646e-09 1.58509e-10 -3.79718e-10 0 0 2.11288e-10 -1.23347e-09 1.05115e-10 -3.83951e-10 0 0 1.15393e-09 -1.00226e-09 -1.64158e-09 1.53365e-09 0 0 1.31077e-09 -7.76827e-10 -3.58961e-09 3.59134e-09 0 0 2.81949e-10 4.38838e-10 -3.39812e-09 3.21863e-09 0 0 -2.31903e-09 1.84314e-09 -2.53961e-09 1.30966e-09 0 0 -2.66567e-09 1.65487e-09 3.35792e-10 -3.07388e-09 0 0 -2.11693e-09 5.0915e-10 2.95508e-09 -3.95375e-09 0 0 -6.87741e-10 -4.86718e-10 2.20026e-09 -2.9532e-09 0 0 2.76465e-10 -7.13896e-10 1.13108e-09 -1.55366e-09 0 0 5.00588e-10 -1.0899e-09 1.15994e-09 -1.23895e-09 0 0 6.9038e-10 -8.17117e-10 -5.32374e-10 6.09967e-10 0 0 6.42449e-10 -1.64081e-10 -1.59666e-09 1.64464e-09 0 0 1.12348e-10 2.15135e-10 -6.56409e-10 7.31309e-10 0 0 -5.36705e-10 9.58483e-10 3.96554e-11 -7.26561e-11 0 0 -5.78345e-10 1.43591e-09 3.12747e-11 -1.04206e-10 0 0 -1.71379e-10 1.07895e-09 1.74205e-10 -2.1606e-10 0 0 4.41821e-10 2.31155e-10 3.62392e-10 -1.80272e-10 0 0 8.31821e-10 -3.18853e-10 4.61529e-10 -1.24072e-10 0 0 8.64733e-10 -3.77968e-10 4.5375e-10 -7.68126e-11 0 0 6.25851e-10 -8.84459e-11 1.40123e-10 1.45846e-10 0 0 2.06016e-10 4.12509e-10 -2.94386e-10 3.52403e-10 0 0 7.88065e-11 4.75161e-10 -3.19201e-10 3.4056e-10 0 0 9.16728e-11 3.10516e-10 -1.33099e-10 1.9149e-10 0 0 8.59148e-11 1.31059e-10 3.56409e-11 3.6485e-11 0 0 6.94078e-11 7.07841e-11 4.29483e-11 7.98456e-12 0 0 4.42686e-11 4.66126e-11 2.64356e-11 3.4203e-12 0 0 2.37455e-11 2.61405e-11 1.04685e-11 -1.29189e-12 0 0 1.0309e-11 9.60639e-12 8.88119e-13 -4.18624e-12 0 0 2.79076e-12 6.73694e-13 -3.46354e-12 -4.46855e-12 0 0 -4.42027e-13 -2.26033e-12 -4.16465e-12 -3.3814e-12 0 0 -1.02738e-12 -2.25309e-12 -2.88814e-12 -1.8792e-12 0 0 -6.86448e-13 -1.17356e-12 -1.39687e-12 -7.50963e-13 0 0 -1.92701e-13 -4.4847e-13 -3.01362e-13 -1.82551e-13 0 0 1.40948e-13 -2.11067e-13 3.32532e-13 6.50093e-14 0 0 1.47796e-13 1.60002e-13 2.96997e-13 3.08451e-13 0 0 2.24626e-13 2.74598e-13 3.02289e-13 3.32493e-13 0 0 2.66376e-13 3.19516e-13 3.09868e-13 3.48837e-13 0 0 2.28873e-13 4.6223e-13 2.14744e-13 3.52012e-13 0 0 3.92982e-13 2.99193e-13 3.78398e-13 1.91505e-13 0 0 3.82767e-13 3.73244e-13 2.57768e-13 3.05544e-13 0 0 3.71723e-13 3.66278e-13 2.75162e-13 3.10719e-13 0 0 4.59588e-13 2.46833e-13 3.64297e-13 2.29139e-13 0 0 2.94977e-13 5.63764e-13 2.4948e-15 4.42104e-13 0 0 4.411e-13 3.24921e-13 2.07892e-13 2.73273e-13 0 0 5.46e-13 1.53364e-13 2.73566e-13 2.0077e-13 0 0 5.21895e-13 2.62662e-13 1.75815e-14 4.27548e-13 0 0 5.91416e-13 1.97705e-13 3.18573e-14 4.86888e-13 0 0 3.32301e-13 5.64513e-13 -2.34281e-13 5.94446e-13 0 0 4.81681e-13 2.30441e-13 2.75768e-13 1.41271e-13 0 0 5.89571e-13 1.75971e-14 6.09112e-13 -2.05115e-13 0 0 3.9563e-13 3.43819e-13 2.91134e-13 -6.46694e-14 0 0 3.03131e-13 4.30557e-13 3.06237e-13 -9.20549e-14 0 0 3.4484e-13 4.22755e-13 2.82852e-13 1.22105e-14 0 0 6.1817e-13 1.27789e-13 5.04595e-13 3.68623e-14 0 0 4.18553e-13 3.72982e-13 4.46708e-13 1.73694e-13 0 0 2.09622e-13 5.5447e-13 4.34071e-13 2.15399e-13 0 0 1.1662e-13 6.58035e-13 2.95856e-13 4.85936e-13 0 0 1.06742e-13 6.00775e-13 3.79526e-13 6.39225e-13 0 0 3.69301e-13 2.3368e-13 9.19876e-13 1.25015e-13 0 0 4.81902e-13 2.08377e-13 1.0162e-12 -1.53639e-13 0 0 2.98745e-13 4.50242e-13 9.2892e-13 -6.77951e-14 0 0 -2.72109e-14 6.9597e-13 8.39086e-13 1.27992e-13 0 0 -1.51466e-13 6.73157e-13 7.51542e-13 2.70263e-13 0 0 1.50312e-14 3.86959e-13 8.90714e-13 1.53115e-13 0 0 2.27677e-13 9.93723e-14 9.05261e-13 8.76416e-14 0 0 4.51409e-13 -2.58764e-13 9.74207e-13 1.01646e-13 0 0 1.99767e-13 -3.78813e-14 9.8052e-13 -1.76424e-14 0 0 -1.57982e-13 4.66089e-13 6.19727e-13 2.00523e-13 0 0 -1.03151e-13 4.12993e-13 4.87988e-13 4.54489e-13 0 0 -5.34815e-14 4.03852e-13 2.88914e-13 6.55493e-13 0 0 1.8421e-13 1.17173e-13 4.41405e-13 6.13031e-13 0 0 4.42555e-13 -2.32228e-13 7.20848e-13 4.24391e-13 0 0 2.63776e-13 -7.26485e-14 5.79628e-13 4.38555e-13 0 0 -2.24116e-13 4.40422e-13 3.79707e-13 3.7458e-13 0 0 -3.54108e-13 7.0844e-13 1.05491e-13 4.84992e-13 0 0 1.26514e-13 1.71995e-13 4.3163e-13 3.54854e-13 0 0 4.65129e-13 -8.61469e-14 6.99733e-13 1.01547e-13 0 0 3.7671e-13 2.60529e-13 4.14506e-13 6.4446e-14 0 0 2.45758e-14 6.57535e-13 1.81091e-13 1.70722e-13 0 0 -3.0846e-13 8.93382e-13 1.09846e-13 3.75561e-13 0 0 1.78323e-13 1.47112e-13 8.36576e-13 1.66882e-14 0 0 5.61148e-13 -2.77766e-13 1.11462e-12 -6.58723e-14 0 0 2.4962e-13 3.92213e-13 2.40453e-13 6.36552e-13 0 0 1.66181e-13 6.24126e-13 -7.38522e-14 7.98772e-13 0 0 3.60042e-13 3.08763e-13 3.58419e-13 3.20455e-13 0 0 5.37554e-13 9.76128e-15 6.87776e-13 5.79977e-14 0 0 4.7967e-13 3.00179e-13 1.65266e-13 4.19039e-13 0 0 3.38196e-13 8.12227e-13 -4.68687e-13 7.00106e-13 0 0 6.11465e-13 3.49565e-13 2.72143e-13 1.06469e-13 0 0 5.92931e-13 3.20842e-13 3.56182e-13 6.15506e-14 0 0 3.7309e-13 6.23717e-13 6.79412e-14 2.75967e-13 0 0 5.35299e-13 5.41179e-13 1.79299e-13 2.68868e-13 0 0 6.44588e-13 7.07698e-13 -2.08556e-13 6.36301e-13 0 0 8.3107e-13 5.25683e-13 -3.85599e-13 1.01609e-12 0 0 7.79419e-13 5.71162e-13 -6.50758e-13 1.32609e-12 0 0 7.34348e-13 4.90762e-13 -4.30578e-13 1.19721e-12 0 0 6.07264e-13 5.05194e-13 -2.07052e-13 1.06391e-12 0 0 2.98747e-13 9.09515e-13 -4.71055e-13 1.17867e-12 0
				</DataArray>
				<DataArray Name="VitesseY" type="Float32" format="ascii">