<?xml version="1.0"?>
<VTKFile type="PolyData">
	<PolyData>
		<Piece NumberOfPoints="1206" NumberOfPolys="1000">
			<Points>
				<DataArray type="Float32" NumberOfComponents="3" format="ascii">
 0 0 0 0.02 0 0 0.04 0 0 0.06 0 0 0.08 0 0 0.1 0 0 0 0.005 0 0.02 0.005 0 0.04 0.005 0 0.06 0.005 0 0.08 0.005 0 0.1 0.005 0 0 0.01 0 0.02 0.01 0 0.04 0.01 0 0.06 0.01 0 0.08 0.01 0 0.1 0.01 0 0 0.015 0 0.02 0.015 0 0.04 0.015 0 0.06 0.015 0 0.08 0.015 0 0.1 0.015 0 0 0.02 0 0.02 0.02 0 0.04 0.02 0 0.06 0.02 0 0.08 0.02 0 0.1 0.02 0 0 0.025 0 0.02 0.025 0 0.04 0.025 0 0.06 0.025 0 0.08 0.025 0 0.1 0.025 0 0 0.03 0 0.02 0.03 0 0.04 0.03 0 0.06 0.03 0 0.08 0.03 0 0.1 0.03 0 0 0.035 0 0.02 0.035 0 0.04 0.035 0 0.06 0.035 0 0.08 0.035 0 0.1 0.035 0 0 0.04 0 0.02 0.04 0 0.04 0.04 0 0.06 0.04 0 0.08 0.04 0 0.1 0.04 0 0 0.045 0 0.02 0.045 0 0.04 0.045 0 0.06 0.045 0 0.08 0.045 0 0.1 0.045 0 0 0.05 0 0.02 0.05 0 0.04 0.05 0 0.06 0.05 0 0.08 0.05 0 0.1 0.05 0 0 0.055 0 0.02 0.055 0 0.04 0.055 0 0.06 0.055 0 0.08 0.055 0 0.1 0.055 0 0 0.06 0 0.02 0.06 0 0.04 0.06 0 0.06 0.06 0 0.08 0.06 0 0.1 0.06 0 0 0.065 0 0.02 0.065 0 0.04 0.065 0 0.06 0.065 0 0.08 0.065 0 0.1 0.065 0 0 0.07 0 0.02 0.07 0 0.04 0.07 0 0.06 0.07 0 0.08 0.07 0 0.1 0.07 0 0 0.075 0 0.02 0.075 0 0.04 0.075 0 0.06 0.075 0 0.08 0.075 0 0.1 0.075 0 0 0.08 0 0.02 0.08 0 0.04 0.08 0 0.06 0.08 0 0.08 0.08 0 0.1 0.08 0 0 0.085 0 0.02 0.085 0 0.04 0.085 0 0.06 0.085 0 0.08 0.085 0 0.1 0.085 0 0 0.09 0 0.02 0.09 0 0.04 0.09 0 0.06 0.09 0 0.08 0.09 0 0.1 0.09 0 0 0.095 0 0.02 0.095 0 0.04 0.095 0 0.06 0.095 0 0.08 0.095 0 0.1 0.095 0 0 0.1 0 0.02 0.1 0 0.04 0.1 0 0.06 0.1 0 0.08 0.1 0 0.1 0.1 0 0 0.105 0 0.02 0.105 0 0.04 0.105 0 0.06 0.105 0 0.08 0.105 0 0.1 0.105 0 0 0.11 0 0.02 0.11 0 0.04 0.11 0 0.06 0.11 0 0.08 0.11 0 0.1 0.11 0 0 0.115 0 0.02 0.115 0 0.04 0.115 0 0.06 0.115 0 0.08 0.115 0 0.1 0.115 0 0 0.12 0 0.02 0.12 0 0.04 0.12 0 0.06 0.12 0 0.08 0.12 0 0.1 0.12 0 0 0.125 0 0.02 0.125 0 0.04 0.125 0 0.06 0.125 0 0.08 0.125 0 0.1 0.125 0 0 0.13 0 0.02 0.13 0 0.04 0.13 0 0.06 0.13 0 0.08 0.13 0 0.1 0.13 0 0 0.135 0 0.02 0.135 0 0.04 0.135 0 0.06 0.135 0 0.08 0.135 0 0.1 0.135 0 0 0.14 0 0.02 0.14 0 0.04 0.14 0 0.06 0.14 0 0.08 0.14 0 0.1 0.14 0 0 0.145 0 0.02 0.145 0 0.04 0.145 0 0.06 0.145 0 0.08 0.145 0 0.1 0.145 0 0 0.15 0 0.02 0.15 0 0.04 0.15 0 0.06 0.15 0 0.08 0.15 0 0.1 0.15 0 0 0.155 0 0.02 0.155 0 0.04 0.155 0 0.06 0.155 0 0.08 0.155 0 0.1 0.155 0 0 0.16 0 0.02 0.16 0 0.04 0.16 0 0.06 0.16 0 0.08 0.16 0 0.1 0.16 0 0 0.165 0 0.02 0.165 0 0.04 0.165 0 0.06 0.165 0 0.08 0.165 0 0.1 0.165 0 0 0.17 0 0.02 0.17 0 0.04 0.17 0 0.06 0.17 0 0.08 0.17 0 0.1 0.17 0 0 0.175 0 0.02 0.175 0 0.04 0.175 0 0.06 0.175 0 0.08 0.175 0 0.1 0.175 0 0 0.18 0 0.02 0.18 0 0.04 0.18 0 0.06 0.18 0 0.08 0.18 0 0.1 0.18 0 0 0.185 0 0.02 0.185 0 0.04 0.185 0 0.06 0.185 0 0.08 0.185 0 0.1 0.185 0 0 0.19 0 0.02 0.19 0 0.04 0.19 0 0.06 0.19 0 0.08 0.19 0 0.1 0.19 0 0 0.195 0 0.02 0.195 0 0.04 0.195 0 0.06 0.195 0 0.08 0.195 0 0.1 0.195 0 0 0.2 0 0.02 0.2 0 0.04 0.2 0 0.06 0.2 0 0.08 0.2 0 0.1 0.2 0 0 0.205 0 0.02 0.205 0 0.04 0.205 0 0.06 0.205 0 0.08 0.205 0 0.1 0.205 0 0 0.21 0 0.02 0.21 0 0.04 0.21 0 0.06 0.21 0 0.08 0.21 0 0.1 0.21 0 0 0.215 0 0.02 0.215 0 0.04 0.215 0 0.06 0.215 0 0.08 0.215 0 0.1 0.215 0 0 0.22 0 0.02 0.22 0 0.04 0.22 0 0.06 0.22 0 0.08 0.22 0 0.1 0.22 0 0 0.225 0 0.02 0.225 0 0.04 0.225 0 0.06 0.225 0 0.08 0.225 0 0.1 0.225 0 0 0.23 0 0.02 0.23 0 0.04 0.23 0 0.06 0.23 0 0.08 0.23 0 0.1 0.23 0 0 0.235 0 0.02 0.235 0 0.04 0.235 0 0.06 0.235 0 0.08 0.235 0 0.1 0.235 0 0 0.24 0 0.02 0.24 0 0.04 0.24 0 0.06 0.24 0 0.08 0.24 0 0.1 0.24 0 0 0.245 0 0.02 0.245 0 0.04 0.245 0 0.06 0.245 0 0.08 0.245 0 0.1 0.245 0 0 0.25 0 0.02 0.25 0 0.04 0.25 0 0.06 0.25 0 0.08 0.25 0 0.1 0.25 0 0 0.255 0 0.02 0.255 0 0.04 0.255 0 0.06 0.255 0 0.08 0.255 0 0.1 0.255 0 0 0.26 0 0.02 0.26 0 0.04 0.26 0 0.06 0.26 0 0.08 0.26 0 0.1 0.26 0 0 0.265 0 0.02 0.265 0 0.04 0.265 0 0.06 0.265 0 0.08 0.265 0 0.1 0.265 0 0 0.27 0 0.02 0.27 0 0.04 0.27 0 0.06 0.27 0 0.08 0.27 0 0.1 0.27 0 0 0.275 0 0.02 0.275 0 0.04 0.275 0 0.06 0.275 0 0.08 0.275 0 0.1 0.275 0 0 0.28 0 0.02 0.28 0 0.04 0.28 0 0.06 0.28 0 0.08 0.28 0 0.1 0.28 0 0 0.285 0 0.02 0.285 0 0.04 0.285 0 0.06 0.285 0 0.08 0.285 0 0.1 0.285 0 0 0.29 0 0.02 0.29 0 0.04 0.29 0 0.06 0.29 0 0.08 0.29 0 0.1 0.29 0 0 0.295 0 0.02 0.295 0 0.04 0.295 0 0.06 0.295 0 0.08 0.295 0 0.1 0.295 0 0 0.3 0 0.02 0.3 0 0.04 0.3 0 0.06 0.3 0 0.08 0.3 0 0.1 0.3 0 0 0.305 0 0.02 0.305 0 0.04 0.305 0 0.06 0.305 0 0.08 0.305 0 0.1 0.305 0 0 0.31 0 0.02 0.31 0 0.04 0.31 0 0.06 0.31 0 0.08 0.31 0 0.1 0.31 0 0 0.315 0 0.02 0.315 0 0.04 0.315 0 0.06 0.315 0 0.08 0.315 0 0.1 0.315 0 0 0.32 0 0.02 0.32 0 0.04 0.32 0 0.06 0.32 0 0.08 0.32 0 0.1 0.32 0 0 0.325 0 0.02 0.325 0 0.04 0.325 0 0.06 0.325 0 0.08 0.325 0 0.1 0.325 0 0 0.33 0 0.02 0.33 0 0.04 0.33 0 0.06 0.33 0 0.08 0.33 0 0.1 0.33 0 0 0.335 0 0.02 0.335 0 0.04 0.335 0 0.06 0.335 0 0.08 0.335 0 0.1 0.335 0 0 0.34 0 0.02 0.34 0 0.04 0.34 0 0.06 0.34 0 0.08 0.34 0 0.1 0.34 0 0 0.345 0 0.02 0.345 0 0.04 0.345 0 0.06 0.345 0 0.08 0.345 0 0.1 0.345 0 0 0.35 0 0.02 0.35 0 0.04 0.35 0 0.06 0.35 0 0.08 0.35 0 0.1 0.35 0 0 0.355 0 0.02 0.355 0 0.04 0.355 0 0.06 0.355 0 0.08 0.355 0 0.1 0.355 0 0 0.36 0 0.02 0.36 0 0.04 0.36 0 0.06 0.36 0 0.08 0.36 0 0.1 0.36 0 0 0.365 0 0.02 0.365 0 0.04 0.365 0 0.06 0.365 0 0.08 0.365 0 0.1 0.365 0 0 0.37 0 0.02 0.37 0 0.04 0.37 0 0.06 0.37 0 0.08 0.37 0 0.1 0.37 0 0 0.375 0 0.02 0.375 0 0.04 0.375 0 0.06 0.375 0 0.08 0.375 0 0.1 0.375 0 0 0.38 0 0.02 0.38 0 0.04 0.38 0 0.06 0.38 0 0.08 0.38 0 0.1 0.38 0 0 0.385 0 0.02 0.385 0 0.04 0.385 0 0.06 0.385 0 0.08 0.385 0 0.1 0.385 0 0 0.39 0 0.02 0.39 0 0.04 0.39 0 0.06 0.39 0 0.08 0.39 0 0.1 0.39 0 0 0.395 0 0.02 0.395 0 0.04 0.395 0 0.06 0.395 0 0.08 0.395 0 0.1 0.395 0 0 0.4 0 0.02 0.4 0 0.04 0.4 0 0.06 0.4 0 0.08 0.4 0 0.1 0.4 0 0 0.405 0 0.02 0.405 0 0.04 0.405 0 0.06 0.405 0 0.08 0.405 0 0.1 0.405 0 0 0.41 0 0.02 0.41 0 0.04 0.41 0 0.06 0.41 0 0.08 0.41 0 0.1 0.41 0 0 0.415 0 0.02 0.415 0 0.04 0.415 0 0.06 0.415 0 0.08 0.415 0 0.1 0.415 0 0 0.42 0 0.02 0.42 0 0.04 0.42 0 0.06 0.42 0 0.08 0.42 0 0.1 0.42 0 0 0.425 0 0.02 0.425 0 0.04 0.425 0 0.06 0.425 0 0.08 0.425 0 0.1 0.425 0 0 0.43 0 0.02 0.43 0 0.04 0.43 0 0.06 0.43 0 0.08 0.43 0 0.1 0.43 0 0 0.435 0 0.02 0.435 0 0.04 0.435 0 0.06 0.435 0 0.08 0.435 0 0.1 0.435 0 0 0.44 0 0.02 0.44 0 0.04 0.44 0 0.06 0.44 0 0.08 0.44 0 0.1 0.44 0 0 0.445 0 0.02 0.445 0 0.04 0.445 0 0.06 0.445 0 0.08 0.445 0 0.1 0.445 0 0 0.45 0 0.02 0.45 0 0.04 0.45 0 0.06 0.45 0 0.08 0.45 0 0.1 0.45 0 0 0.455 0 0.02 0.455 0 0.04 0.455 0 0.06 0.455 0 0.08 0.455 0 0.1 0.455 0 0 0.46 0 0.02 0.46 0 0.04 0.46 0 0.06 0.46 0 0.08 0.46 0 0.1 0.46 0 0 0.465 0 0.02 0.465 0 0.04 0.465 0 0.06 0.465 0 0.08 0.465 0 0.1 0.465 0 0 0.47 0 0.02 0.47 0 0.04 0.47 0 0.06 0.47 0 0.08 0.47 0 0.1 0.47 0 0 0.475 0 0.02 0.475 0 0.04 0.475 0 0.06 0.475 0 0.08 0.475 0 0.1 0.475 0 0 0.48 0 0.02 0.48 0 0.04 0.48 0 0.06 0.48 0 0.08 0.48 0 0.1 0.48 0 0 0.485 0 0.02 0.485 0 0.04 0.485 0 0.06 0.485 0 0.08 0.485 0 0.1 0.485 0 0 0.49 0 0.02 0.49 0 0.04 0.49 0 0.06 0.49 0 0.08 0.49 0 0.1 0.49 0 0 0.495 0 0.02 0.495 0 0.04 0.495 0 0.06 0.495 0 0.08 0.495 0 0.1 0.495 0 0 0.5 0 0.02 0.5 0 0.04 0.5 0 0.06 0.5 0 0.08 0.5 0 0.1 0.5 0 0 0.505 0 0.02 0.505 0 0.04 0.505 0 0.06 0.505 0 0.08 0.505 0 0.1 0.505 0 0 0.51 0 0.02 0.51 0 0.04 0.51 0 0.06 0.51 0 0.08 0.51 0 0.1 0.51 0 0 0.515 0 0.02 0.515 0 0.04 0.515 0 0.06 0.515 0 0.08 0.515 0 0.1 0.515 0 0 0.52 0 0.02 0.52 0 0.04 0.52 0 0.06 0.52 0 0.08 0.52 0 0.1 0.52 0 0 0.525 0 0.02 0.525 0 0.04 0.525 0 0.06 0.525 0 0.08 0.525 0 0.1 0.525 0 0 0.53 0 0.02 0.53 0 0.04 0.53 0 0.06 0.53 0 0.08 0.53 0 0.1 0.53 0 0 0.535 0 0.02 0.535 0 0.04 0.535 0 0.06 0.535 0 0.08 0.535 0 0.1 0.535 0 0 0.54 0 0.02 0.54 0 0.04 0.54 0 0.06 0.54 0 0.08 0.54 0 0.1 0.54 0 0 0.545 0 0.02 0.545 0 0.04 0.545 0 0.06 0.545 0 0.08 0.545 0 0.1 0.545 0 0 0.55 0 0.02 0.55 0 0.04 0.55 0 0.06 0.55 0 0.08 0.55 0 0.1 0.55 0 0 0.555 0 0.02 0.555 0 0.04 0.555 0 0.06 0.555 0 0.08 0.555 0 0.1 0.555 0 0 0.56 0 0.02 0.56 0 0.04 0.56 0 0.06 0.56 0 0.08 0.56 0 0.1 0.56 0 0 0.565 0 0.02 0.565 0 0.04 0.565 0 0.06 0.565 0 0.08 0.565 0 0.1 0.565 0 0 0.57 0 0.02 0.57 0 0.04 0.57 0 0.06 0.57 0 0.08 0.57 0 0.1 0.57 0 0 0.575 0 0.02 0.575 0 0.04 0.575 0 0.06 0.575 0 0.08 0.575 0 0.1 0.575 0 0 0.58 0 0.02 0.58 0 0.04 0.58 0 0.06 0.58 0 0.08 0.58 0 0.1 0.58 0 0 0.585 0 0.02 0.585 0 0.04 0.585 0 0.06 0.585 0 0.08 0.585 0 0.1 0.585 0 0 0.59 0 0.02 0.59 0 0.04 0.59 0 0.06 0.59 0 0.08 0.59 0 0.1 0.59 0 0 0.595 0 0.02 0.595 0 0.04 0.595 0 0.06 0.595 0 0.08 0.595 0 0.1 0.595 0 0 0.6 0 0.02 0.6 0 0.04 0.6 0 0.06 0.6 0 0.08 0.6 0 0.1 0.6 0 0 0.605 0 0.02 0.605 0 0.04 0.605 0 0.06 0.605 0 0.08 0.605 0 0.1 0.605 0 0 0.61 0 0.02 0.61 0 0.04 0.61 0 0.06 0.61 0 0.08 0.61 0 0.1 0.61 0 0 0.615 0 0.02 0.615 0 0.04 0.615 0 0.06 0.615 0 0.08 0.615 0 0.1 0.615 0 0 0.62 0 0.02 0.62 0 0.04 0.62 0 0.06 0.62 0 0.08 0.62 0 0.1 0.62 0 0 0.625 0 0.02 0.625 0 0.04 0.625 0 0.06 0.625 0 0.08 0.625 0 0.1 0.625 0 0 0.63 0 0.02 0.63 0 0.04 0.63 0 0.06 0.63 0 0.08 0.63 0 0.1 0.63 0 0 0.635 0 0.02 0.635 0 0.04 0.635 0 0.06 0.635 0 0.08 0.635 0 0.1 0.635 0 0 0.64 0 0.02 0.64 0 0.04 0.64 0 0.06 0.64 0 0.08 0.64 0 0.1 0.64 0 0 0.645 0 0.02 0.645 0 0.04 0.645 0 0.06 0.645 0 0.08 0.645 0 0.1 0.645 0 0 0.65 0 0.02 0.65 0 0.04 0.65 0 0.06 0.65 0 0.08 0.65 0 0.1 0.65 0 0 0.655 0 0.02 0.655 0 0.04 0.655 0 0.06 0.655 0 0.08 0.655 0 0.1 0.655 0 0 0.66 0 0.02 0.66 0 0.04 0.66 0 0.06 0.66 0 0.08 0.66 0 0.1 0.66 0 0 0.665 0 0.02 0.665 0 0.04 0.665 0 0.06 0.665 0 0.08 0.665 0 0.1 0.665 0 0 0.67 0 0.02 0.67 0 0.04 0.67 0 0.06 0.67 0 0.08 0.67 0 0.1 0.67 0 0 0.675 0 0.02 0.675 0 0.04 0.675 0 0.06 0.675 0 0.08 0.675 0 0.1 0.675 0 0 0.68 0 0.02 0.68 0 0.04 0.68 0 0.06 0.68 0 0.08 0.68 0 0.1 0.68 0 0 0.685 0 0.02 0.685 0 0.04 0.685 0 0.06 0.685 0 0.08 0.685 0 0.1 0.685 0 0 0.69 0 0.02 0.69 0 0.04 0.69 0 0.06 0.69 0 0.08 0.69 0 0.1 
[...]
			<PointData Scalars="VitesseX">
				<DataArray Name="VitesseX" type="Float32" format="ascii">
 0 2.29649e-15 8.43025e-15 -6.58621e-15 2.3724e-14 0 0 2.94357e-15 7.59912e-15 -6.43203e-15 2.57686e-14 0 0 7.64746e-15 9.20712e-17 1.93943e-15 2.56159e-14 0 0 1.67713e-14 -1.54976e-14 2.58973e-14 1.50156e-14 0 0 1.37684e-14 4.82897e-15 1.37334e-14 2.40458e-14 0 0 1.46352e-15 3.71498e-14 2.55421e-15 2.67644e-14 0 0 -1.09656e-14 5.50123e-14 1.71543e-14 1.77393e-14 0 0 2.0659e-15 2.85543e-14 7.75076e-14 -1.57792e-14 0 0 1.89333e-14 1.49006e-14 1.06462e-13 -3.47499e-14 0 0 4.18158e-14 1.59946e-14 9.31332e-14 -1.55752e-14 0 0 7.60038e-14 -1.7423e-14 1.03382e-13 -3.7245e-15 0 0 5.34896e-14 3.05517e-14 3.62442e-14 3.91444e-14 0 0 5.67813e-14 3.42973e-14 3.59321e-14 2.44784e-14 0 0 5.28063e-14 5.14182e-14 2.61382e-14 1.13594e-14 0 0 3.59154e-14 7.91756e-14 -2.34368e-14 3.98943e-14 0 0 7.09859e-14 5.82961e-15 4.42803e-14 -1.40437e-14 0 0 7.21014e-14 7.70317e-15 4.71854e-14 -4.27508e-14 0 0 1.01816e-13 -5.54391e-14 1.38264e-13 -1.05548e-13 0 0 1.02964e-13 -4.61322e-14 1.11994e-13 -4.51487e-14 0 0 9.3228e-15 1.32334e-13 -1.12164e-13 1.28668e-13 0 0 8.77924e-15 1.18568e-13 -8.06702e-14 7.94356e-14 0 0 2.62233e-14 6.83835e-14 -2.14094e-14 1.37263e-14 0 0 1.38368e-14 2.89988e-14 5.07364e-14 -3.17509e-14 0 0 -2.03322e-14 2.20154e-14 7.10819e-14 -9.66808e-15 0 0 -7.25024e-14 6.06577e-14 4.40249e-14 3.31242e-14 0 0 1.57092e-15 -7.6112e-14 1.89434e-13 -2.76372e-14 0 0 4.60229e-15 -4.76493e-14 1.43408e-13 1.49836e-14 0 0 -3.73254e-14 6.34391e-14 5.97408e-14 2.69162e-14 0 0 3.19336e-14 -3.58222e-14 1.84862e-13 -5.21501e-14 0 0 5.50733e-14 -6.85172e-14 1.94912e-13 -3.05269e-14 0 0 -4.54556e-14 6.72885e-14 1.17064e-13 -6.30812e-14 0 0 -7.6542e-14 1.19674e-13 7.64909e-14 -8.86501e-14 0 0 -5.90271e-14 1.3945e-13 -4.14012e-14 2.76025e-14 0 0 -2.57185e-14 8.20888e-14 -2.1226e-15 -1.31813e-15 0 0 5.12774e-14 -1.09848e-14 5.40896e-14 -1.63816e-14 0 0 9.26083e-14 -3.08453e-14 3.23447e-14 1.99585e-14 0 0 1.19642e-13 -7.1249e-14 4.78911e-14 4.55962e-14 0 0 1.04641e-13 -3.62288e-14 -1.29355e-14 1.55846e-13 0 0 9.85016e-14 -2.00376e-14 1.96565e-14 1.51065e-13 0 0 5.4961e-14 2.23805e-14 6.62173e-14 9.06184e-14 0 0 6.33148e-14 9.65501e-15 1.24104e-13 1.57238e-14 0 0 2.83241e-14 1.37054e-13 -1.51983e-14 7.65206e-14 0 0 -8.84777e-14 3.5691e-13 -1.87694e-13 1.3811e-13 0 0 -2.11253e-14 2.43781e-13 -3.77217e-14 3.20153e-14 0 0 1.18391e-13 6.60535e-14 1.21166e-13 -2.97083e-14 0 0 1.73686e-13 7.90667e-15 1.82318e-13 -3.74093e-14 0 0 1.00522e-13 1.73073e-13 -4.92069e-14 1.46343e-13 0 0 2.36535e-15 4.02746e-13 -4.00351e-13 4.73913e-13 0 0 1.36952e-13 1.50875e-13 -1.7655e-13 4.53924e-13 0 0 3.88101e-13 -3.45282e-13 3.56236e-13 1.32021e-13 0 0 5.22868e-13 -5.8784e-13 5.91102e-13 -4.87204e-14 0 0 3.17072e-13 -2.70836e-13 3.12605e-13 -2.43249e-15 0 0 4.68678e-14 2.23917e-13 -2.00626e-13 2.59667e-13 0 0 1.50697e-13 9.12925e-14 -1.46703e-13 2.83634e-13 0 0 3.32596e-13 -2.41659e-13 1.47869e-13 8.87097e-14 0 0 3.17028e-13 -1.80627e-13 2.32361e-14 1.56557e-13 0 0 2.70354e-13 -9.86079e-14 -4.39545e-14 1.80268e-13 0 0 1.96702e-13 2.03697e-14 -8.99134e-14 1.47928e-13 0 0 1.68797e-13 3.91436e-14 -8.9754e-15 5.19668e-14 0 0 2.70072e-13 -1.33392e-13 2.59722e-13 -1.31605e-13 0 0 2.23075e-13 1.98179e-15 1.24646e-13 -4.24867e-14 0 0 1.55328e-13 1.3059e-13 -3.72883e-14 2.4162e-14 0 0 1.10352e-13 1.87034e-13 -7.11862e-14 -1.00554e-14 0 0 5.93724e-14 2.07246e-13 -1.87377e-14 -3.38627e-14 0 0 4.06544e-14 2.41898e-13 -5.90856e-14 2.85419e-14 0 0 1.89633e-13 1.53465e-13 -1.64734e-14 3.25639e-14 0 0 3.77189e-13 1.37455e-14 2.01687e-13 -1.05672e-13 0 0 4.44421e-13 -4.17189e-14 2.88406e-13 -7.2188e-14 0 0 4.36964e-13 -5.01154e-14 1.35565e-13 1.98167e-13 0 0 3.4627e-13 1.11172e-13 -1.80339e-13 4.80964e-13 0 0 4.008e-13 -6.46585e-15 6.41653e-14 2.893e-13 0 0 4.48769e-13 5.75151e-15 2.84911e-13 1.24784e-13 0 0 3.13586e-13 5.86133e-13 2.79969e-13 4.18737e-13 0 0 6.82613e-13 1.8283e-12 1.36853e-12 1.09286e-12 0 0 3.32873e-12 6.01815e-12 5.7946e-12 3.73062e-12 0 0 1.29502e-11 2.08925e-11 2.11605e-11 1.29954e-11 0 0 4.12822e-11 6.70359e-11 6.65649e-11 4.11679e-11 0 0 1.13159e-10 1.83544e-10 1.81336e-10 1.12298e-10 0 0 2.65592e-10 4.27068e-10 4.23413e-10 2.60254e-10 0 0 5.3334e-10 8.55147e-10 8.44719e-10 5.17084e-10 0 0 9.3064e-10 1.48604e-09 1.45931e-09 8.8887e-10 0 0 1.43788e-09 2.27979e-09 2.22261e-09 1.34396e-09 0 0 2.00591e-09 3.15433e-09 3.04123e-09 1.8222e-09 0 0 2.57285e-09 4.00287e-09 3.8041e-09 2.2521e-09 0 0 3.08284e-09 4.73675e-09 4.42595e-09 2.58011e-09 0 0 3.48953e-09 5.28813e-09 4.84395e-09 2.77536e-09 0 0 3.75478e-09 5.61437e-09 5.04655e-09 2.82775e-09 0 0 3.86613e-09 5.68071e-09 4.95816e-09 2.71239e-09 0 0 3.74768e-09 5.44222e-09 4.66766e-09 2.47828e-09 0 0 3.44771e-09 4.93232e-09 4.10854e-09 2.11097e-09 0 0 2.88651e-09 4.09243e-09 3.32934e-09 1.66318e-09 0 0 2.02994e-09 2.8892e-09 2.33066e-09 1.10712e-09 0 0 1.02336e-09 1.49425e-09 1.18601e-09 5.62863e-10 0 0 -5.53405e-10 -4.98704e-10 -1.80333e-10 -6.35262e-11 0 0 -2.05368e-09 -2.51968e-09 -1.66556e-09 -6.96695e-10 0 0 -4.03158e-09 -4.86781e-09 -3.22883e-09 -1.32005e-09 0 0 -6.51683e-09 -7.83693e-09 -5.00543e-09 -1.91945e-09 0 0 -8.855e-09 -1.07043e-08 -6.79081e-09 -2.43324e-09 0 0 -1.17903e-08 -1.41406e-08 -8.61079e-09 -2.85013e-09 0 0 -1.46259e-08 -1.88372e-08 -1.08727e-08 -3.2432e-09 0 0 -3.47661e-08 -1.68169e-08 -3.62569e-09 -1.46812e-08 0 0 -2.73769e-08 -2.0194e-08 -9.42666e-09 -6.26797e-09 0 0 2.55524e-09 -3.41269e-08 -3.02236e-08 2.56941e-08 0 0 1.0628e-08 -3.37587e-08 -2.69831e-08 2.2229e-08 0 0 5.74075e-09 -2.46525e-08 -1.16561e-08 4.5745e-10 0 0 -1.08456e-09 -2.83558e-09 2.47919e-09 -2.36255e-08 0 0 -1.57823e-09 4.9152e-09 -5.76992e-10 -2.15815e-08 0 0 -1.76337e-09 3.67852e-09 -7.29577e-09 -1.06522e-08 0 0 -6.7208e-09 1.75847e-09 -7.2289e-09 -8.84833e-09 0 0 -1.30966e-08 -2.77725e-09 7.8021e-10 -1.84375e-08 0 0 -1.19884e-08 -7.34706e-09 1.5068e-08 -2.89611e-08 0 0 -1.06864e-08 -3.57297e-09 1.07152e-08 -2.3529e-08 0 0 -6.99967e-09 7.12494e-09 -1.36378e-08 -4.29126e-10 0 0 -1.98501e-09 7.4265e-09 -2.41356e-08 1.68978e-08 0 0 4.21757e-09 -1.20992e-09 -2.09816e-08 2.36279e-08 0 0 1.56802e-08 -1.93628e-08 -1.46704e-08 2.21461e-08 0 0 2.12816e-08 -3.19526e-08 -6.10967e-10 1.65404e-08 0 0 1.72257e-08 -2.9228e-08 2.43281e-08 -3.21932e-09 0 0 3.20786e-09 -6.4491e-09 3.17375e-08 -1.82137e-08 0 0 -6.89133e-09 2.01368e-08 2.74732e-08 -1.77357e-08 0 0 -6.68625e-09 2.41308e-08 2.02065e-08 -1.37767e-08 0 0 -3.22081e-09 2.17996e-08 1.46036e-08 -8.53463e-09 0 0 1.78682e-09 1.46768e-08 1.02123e-08 -2.65781e-09 0 0 6.79527e-09 6.92112e-09 6.40788e-09 3.63601e-09 0 0 8.97611e-09 3.51027e-09 3.48077e-09 6.52719e-09 0 0 8.18508e-09 4.05074e-09 1.27751e-09 6.45545e-09 0 0 5.72728e-09 5.59499e-09 1.03582e-09 5.95199e-09 0 0 4.06585e-09 5.81699e-09 1.42274e-09 4.64067e-09 0 0 3.43263e-09 5.24253e-09 2.70717e-09 2.80511e-09 0 0 2.96496e-09 4.24568e-09 3.36938e-09 1.3954e-09 0 0 2.43389e-09 3.46302e-09 3.15111e-09 1.09484e-09 0 0 1.88198e-09 2.73391e-09 2.31313e-09 9.79014e-10 0 0 1.32726e-09 1.90899e-09 1.52144e-09 7.40296e-10 0 0 8.1928e-10 1.15481e-09 9.24185e-10 4.66523e-10 0 0 4.28192e-10 5.9646e-10 4.82231e-10 2.39428e-10 0 0 1.80564e-10 2.48803e-10 1.95658e-10 9.39151e-11 0 0 5.45848e-11 7.18708e-11 5.13797e-11 2.16441e-11 0 0 7.0737e-12 6.57735e-12 -7.33117e-14 -3.007e-12 0 0 -3.44195e-12 -7.06235e-12 -8.75219e-12 -6.10963e-12 0 0 -2.90994e-12 -5.38502e-12 -5.69025e-12 -3.6731e-12 0 0 -1.26888e-12 -2.36115e-12 -2.46227e-12 -1.52728e-12 0 0 -2.21059e-13 -7.72796e-13 -6.57699e-13 -5.2434e-13 0 0 1.17531e-13 1.19559e-13 -1.35411e-13 3.17164e-14 0 0 2.50777e-13 4.52472e-13 6.68483e-14 1.69418e-13 0 0 4.69481e-13 3.08194e-13 3.8887e-13 -2.57278e-14 0 0 4.51488e-13 3.97582e-13 3.11977e-13 4.25335e-14 0 0 4.05854e-13 4.19677e-13 2.91336e-13 1.16853e-13 0 0 3.59981e-13 4.66942e-13 1.82425e-13 2.87069e-13 0 0 2.23767e-13 6.73621e-13 -7.58496e-14 5.09769e-13 0 0 3.89923e-13 4.22955e-13 1.61786e-13 3.9457e-13 0 0 4.46201e-13 3.92704e-13 1.67338e-13 4.05173e-13 0 0 3.91246e-13 5.42442e-13 6.55048e-14 3.49095e-13 0 0 3.86683e-13 6.39757e-13 3.61279e-14 3.11032e-13 0 0 4.85851e-13 5.6301e-13 2.1459e-13 1.26376e-13 0 0 6.62624e-13 3.58329e-13 4.93688e-13 -1.14809e-13 0 0 5.73861e-13 4.75606e-13 4.91343e-13 -8.47253e-14 0 0 4.19796e-13 6.38966e-13 4.98693e-13 -3.5679e-14 0 0 2.95572e-13 8.02782e-13 3.56146e-13 2.13524e-13 0 0 2.88597e-13 8.32595e-13 3.06941e-13 3.52306e-13 0 0 4.66991e-13 5.75402e-13 4.7868e-13 4.08491e-13 0 0 6.56812e-13 3.52671e-13 7.36822e-13 3.78209e-13 0 0 5.52121e-13 5.5802e-13 7.78372e-13 2.3568e-13 0 0 1.71761e-13 1.12881e-12 2.95661e-13 5.35744e-13 0 0 3.47179e-13 8.46837e-13 4.99397e-13 4.73405e-13 0 0 4.95012e-13 5.0081e-13 8.13867e-13 3.83521e-13 0 0 2.79913e-13 7.48063e-13 5.61671e-13 6.45833e-13 0 0 5.51329e-13 4.05278e-13 6.87806e-13 5.53171e-13 0 0 6.37777e-13 4.62293e-13 4.37375e-13 5.79692e-13 0 0 6.64085e-13 5.38513e-13 2.56629e-13 5.9183e-13 0 0 5.38641e-13 4.48835e-13 4.6327e-13 3.94649e-13 0 0 1.53893e-13 7.29277e-13 4.33722e-13 3.2002e-13 0 0 1.78499e-13 6.60912e-13 4.01964e-13 4.60066e-13 0 0 2.3205e-13 6.04236e-13 4.20585e-13 4.52586e-13 0 0 4.69234e-13 3.71207e-13 5.57706e-13 3.2789e-13 0 0 2.71824e-13 5.92445e-13 3.52723e-13 3.93506e-13 0 0 1.06816e-13 6.47132e-13 3.80678e-13 3.94705e-13 0 0 1.72811e-13 4.82205e-13 5.35282e-13 3.88393e-13 0 0 1.4272e-13 5.93446e-13 5.36283e-13 2.78343e-13 0 0 6.64114e-13 -3.1303e-14 1.01386e-12 -4.52079e-14 0 0 5.51454e-13 1.04163e-13 8.3367e-13 1.045e-13 0 0 4.51525e-13 1.88371e-13 8.23255e-13 1.40547e-13 0 0 3.46786e-13 2.91994e-13 8.99526e-13 6.76436e-14 0 0 -5.11419e-14 7.81292e-13 4.14215e-13 4.19877e-13 0 0 8.95684e-14 5.5401e-13 3.77291e-13 5.14786e-13 0 0 5.23409e-14 5.75489e-13 4.11764e-13 3.31631e-13 0 0 2.98145e-13 3.04927e-13 8.07243e-13 -8.33552e-14 0 0 6.14927e-13 1.71917e-13 7.45732e-13 5.2136e-14 0 0 4.49661e-13 6.06255e-13 1.51872e-13 5.87726e-13 0 0 5.4379e-13 3.44074e-13 4.96232e-13 4.46415e-13 0 0 6.41467e-13 1.14696e-13 6.76296e-13 4.0055e-13 0 0 6.25621e-13 1.37054e-13 5.54784e-13 4.70587e-13 0 0 6.81354e-13 1.02316e-13 5.88865e-13 4.65407e-13 0 0 2.15326e-13 7.82174e-13 2.48286e-13 5.24119e-13 0 0 2.54945e-13 8.10881e-13 3.3156e-13 3.96573e-13 0 0 5.75106e-13 6.634e-13 1.39231e-13 5.75134e-13 0 0 6.1645e-13 7.31139e-13 -1.09236e-13 6.4094e-13 0 0 7.06194e-13 5.86945e-13 9.89001e-15 6.9252e-13 0 0 1.67841e-13 1.29828e-12 -4.63548e-13 1.07199e-12 0 0 1.4985e-13 1.04608e-12 -1.19783e-13 8.86102e-13 0 0 7.25666e-13 3.77849e-14 6.04126e-13 6.51219e-13 0 0 9.26272e-13 -2.32694e-13 7.03509e-13 7.13565e-13 0
				</DataArray>
				<DataArray Name="VitesseY" type="Float32" format="ascii">