<?xml version="1.0"?>
<VTKFile type="PolyData">
	<PolyData>
		<Piece NumberOfPoints="1206" NumberOfPolys="1000">
			<Points>
				<DataArray type="Float32" NumberOfComponents="3" format="ascii">
 0 0 0 0.02 0 0 0.04 0 0 0.06 0 0 0.08 0 0 0.1 0 0 0 0.005 0 0.02 0.005 0 0.04 0.005 0 0.06 0.005 0 0.08 0.005 0 0.1 0.005 0 0 0.01 0 0.02 0.01 0 0.04 0.01 0 0.06 0.01 0 0.08 0.01 0 0.1 0.01 0 0 0.015 0 0.02 0.015 0 0.04 0.015 0 0.06 0.015 0 0.08 0.015 0 0.1 0.015 0 0 0.02 0 0.02 0.02 0 0.04 0.02 0 0.06 0.02 0 0.08 0.02 0 0.1 0.02 0 0 0.025 0 0.02 0.025 0 0.04 0.025 0 0.06 0.025 0 0.08 0.025 0 0.1 0.025 0 0 0.03 0 0.02 0.03 0 0.04 0.03 0 0.06 0.03 0 0.08 0.03 0 0.1 0.03 0 0 0.035 0 0.02 0.035 0 0.04 0.035 0 0.06 0.035 0 0.08 0.035 0 0.1 0.035 0 0 0.04 0 0.02 0.04 0 0.04 0.04 0 0.06 0.04 0 0.08 0.04 0 0.1 0.04 0 0 0.045 0 0.02 0.045 0 0.04 0.045 0 0.06 0.045 0 0.08 0.045 0 0.1 0.045 0 0 0.05 0 0.02 0.05 0 0.04 0.05 0 0.06 0.05 0 0.08 0.05 0 0.1 0.05 0 0 0.055 0 0.02 0.055 0 0.04 0.055 0 0.06 0.055 0 0.08 0.055 0 0.1 0.055 0 0 0.06 0 0.02 0.06 0 0.04 0.06 0 0.06 0.06 0 0.08 0.06 0 0.1 0.06 0 0 0.065 0 0.02 0.065 0 0.04 0.065 0 0.06 0.065 0 0.08 0.065 0 0.1 0.065 0 0 0.07 0 0.02 0.07 0 0.04 0.07 0 0.06 0.07 0 0.08 0.07 0 0.1 0.07 0 0 0.075 0 0.02 0.075 0 0.04 0.075 0 0.06 0.075 0 0.08 0.075 0 0.1 0.075 0 0 0.08 0 0.02 0.08 0 0.04 0.08 0 0.06 0.08 0 0.08 0.08 0 0.1 0.08 0 0 0.085 0 0.02 0.085 0 0.04 0.085 0 0.06 0.085 0 0.08 0.085 0 0.1 0.085 0 0 0.09 0 0.02 0.09 0 0.04 0.09 0 0.06 0.09 0 0.08 0.09 0 0.1 0.09 0 0 0.095 0 0.02 0.095 0 0.04 0.095 0 0.06 0.095 0 0.08 0.095 0 0.1 0.095 0 0 0.1 0 0.02 0.1 0 0.04 0.1 0 0.06 0.1 0 0.08 0.1 0 0.1 0.1 0 0 0.105 0 0.02 0.105 0 0.04 0.105 0 0.06 0.105 0 0.08 0.105 0 0.1 0.105 0 0 0.11 0 0.02 0.11 0 0.04 0.11 0 0.06 0.11 0 0.08 0.11 0 0.1 0.11 0 0 0.115 0 0.02 0.115 0 0.04 0.115 0 0.06 0.115 0 0.08 0.115 0 0.1 0.115 0 0 0.12 0 0.02 0.12 0 0.04 0.12 0 0.06 0.12 0 0.08 0.12 0 0.1 0.12 0 0 0.125 0 0.02 0.125 0 0.04 0.125 0 0.06 0.125 0 0.08 0.125 0 0.1 0.125 0 0 0.13 0 0.02 0.13 0 0.04 0.13 0 0.06 0.13 0 0.08 0.13 0 0.1 0.13 0 0 0.135 0 0.02 0.135 0 0.04 0.135 0 0.06 0.135 0 0.08 0.135 0 0.1 0.135 0 0 0.14 0 0.02 0.14 0 0.04 0.14 0 0.06 0.14 0 0.08 0.14 0 0.1 0.14 0 0 0.145 0 0.02 0.145 0 0.04 0.145 0 0.06 0.145 0 0.08 0.145 0 0.1 0.145 0 0 0.15 0 0.02 0.15 0 0.04 0.15 0 0.06 0.15 0 0.08 0.15 0 0.1 0.15 0 0 0.155 0 0.02 0.155 0 0.04 0.155 0 0.06 0.155 0 0.08 0.155 0 0.1 0.155 0 0 0.16 0 0.02 0.16 0 0.04 0.16 0 0.06 0.16 0 0.08 0.16 0 0.1 0.16 0 0 0.165 0 0.02 0.165 0 0.04 0.165 0 0.06 0.165 0 0.08 0.165 0 0.1 0.165 0 0 0.17 0 0.02 0.17 0 0.04 0.17 0 0.06 0.17 0 0.08 0.17 0 0.1 0.17 0 0 0.175 0 0.02 0.175 0 0.04 0.175 0 0.06 0.175 0 0.08 0.175 0 0.1 0.175 0 0 0.18 0 0.02 0.18 0 0.04 0.18 0 0.06 0.18 0 0.08 0.18 0 0.1 0.18 0 0 0.185 0 0.02 0.185 0 0.04 0.185 0 0.06 0.185 0 0.08 0.185 0 0.1 0.185 0 0 0.19 0 0.02 0.19 0 0.04 0.19 0 0.06 0.19 0 0.08 0.19 0 0.1 0.19 0 0 0.195 0 0.02 0.195 0 0.04 0.195 0 0.06 0.195 0 0.08 0.195 0 0.1 0.195 0 0 0.2 0 0.02 0.2 0 0.04 0.2 0 0.06 0.2 0 0.08 0.2 0 0.1 0.2 0 0 0.205 0 0.02 0.205 0 0.04 0.205 0 0.06 0.205 0 0.08 0.205 0 0.1 0.205 0 0 0.21 0 0.02 0.21 0 0.04 0.21 0 0.06 0.21 0 0.08 0.21 0 0.1 0.21 0 0 0.215 0 0.02 0.215 0 0.04 0.215 0 0.06 0.215 0 0.08 0.215 0 0.1 0.215 0 0 0.22 0 0.02 0.22 0 0.04 0.22 0 0.06 0.22 0 0.08 0.22 0 0.1 0.22 0 0 0.225 0 0.02 0.225 0 0.04 0.225 0 0.06 0.225 0 0.08 0.225 0 0.1 0.225 0 0 0.23 0 0.02 0.23 0 0.04 0.23 0 0.06 0.23 0 0.08 0.23 0 0.1 0.23 0 0 0.235 0 0.02 0.235 0 0.04 0.235 0 0.06 0.235 0 0.08 0.235 0 0.1 0.235 0 0 0.24 0 0.02 0.24 0 0.04 0.24 0 0.06 0.24 0 0.08 0.24 0 0.1 0.24 0 0 0.245 0 0.02 0.245 0 0.04 0.245 0 0.06 0.245 0 0.08 0.245 0 0.1 0.245 0 0 0.25 0 0.02 0.25 0 0.04 0.25 0 0.06 0.25 0 0.08 0.25 0 0.1 0.25 0 0 0.255 0 0.02 0.255 0 0.04 0.255 0 0.06 0.255 0 0.08 0.255 0 0.1 0.255 0 0 0.26 0 0.02 0.26 0 0.04 0.26 0 0.06 0.26 0 0.08 0.26 0 0.1 0.26 0 0 0.265 0 0.02 0.265 0 0.04 0.265 0 0.06 0.265 0 0.08 0.265 0 0.1 0.265 0 0 0.27 0 0.02 0.27 0 0.04 0.27 0 0.06 0.27 0 0.08 0.27 0 0.1 0.27 0 0 0.275 0 0.02 0.275 0 0.04 0.275 0 0.06 0.275 0 0.08 0.275 0 0.1 0.275 0 0 0.28 0 0.02 0.28 0 0.04 0.28 0 0.06 0.28 0 0.08 0.28 0 0.1 0.28 0 0 0.285 0 0.02 0.285 0 0.04 0.285 0 0.06 0.285 0 0.08 0.285 0 0.1 0.285 0 0 0.29 0 0.02 0.29 0 0.04 0.29 0 0.06 0.29 0 0.08 0.29 0 0.1 0.29 0 0 0.295 0 0.02 0.295 0 0.04 0.295 0 0.06 0.295 0 0.08 0.295 0 0.1 0.295 0 0 0.3 0 0.02 0.3 0 0.04 0.3 0 0.06 0.3 0 0.08 0.3 0 0.1 0.3 0 0 0.305 0 0.02 0.305 0 0.04 0.305 0 0.06 0.305 0 0.08 0.305 0 0.1 0.305 0 0 0.31 0 0.02 0.31 0 0.04 0.31 0 0.06 0.31 0 0.08 0.31 0 0.1 0.31 0 0 0.315 0 0.02 0.315 0 0.04 0.315 0 0.06 0.315 0 0.08 0.315 0 0.1 0.315 0 0 0.32 0 0.02 0.32 0 0.04 0.32 0 0.06 0.32 0 0.08 0.32 0 0.1 0.32 0 0 0.325 0 0.02 0.325 0 0.04 0.325 0 0.06 0.325 0 0.08 0.325 0 0.1 0.325 0 0 0.33 0 0.02 0.33 0 0.04 0.33 0 0.06 0.33 0 0.08 0.33 0 0.1 0.33 0 0 0.335 0 0.02 0.335 0 0.04 0.335 0 0.06 0.335 0 0.08 0.335 0 0.1 0.335 0 0 0.34 0 0.02 0.34 0 0.04 0.34 0 0.06 0.34 0 0.08 0.34 0 0.1 0.34 0 0 0.345 0 0.02 0.345 0 0.04 0.345 0 0.06 0.345 0 0.08 0.345 0 0.1 0.345 0 0 0.35 0 0.02 0.35 0 0.04 0.35 0 0.06 0.35 0 0.08 0.35 0 0.1 0.35 0 0 0.355 0 0.02 0.355 0 0.04 0.355 0 0.06 0.355 0 0.08 0.355 0 0.1 0.355 0 0 0.36 0 0.02 0.36 0 0.04 0.36 0 0.06 0.36 0 0.08 0.36 0 0.1 0.36 0 0 0.365 0 0.02 0.365 0 0.04 0.365 0 0.06 0.365 0 0.08 0.365 0 0.1 0.365 0 0 0.37 0 0.02 0.37 0 0.04 0.37 0 0.06 0.37 0 0.08 0.37 0 0.1 0.37 0 0 0.375 0 0.02 0.375 0 0.04 0.375 0 0.06 0.375 0 0.08 0.375 0 0.1 0.375 0 0 0.38 0 0.02 0.38 0 0.04 0.38 0 0.06 0.38 0 0.08 0.38 0 0.1 0.38 0 0 0.385 0 0.02 0.385 0 0.04 0.385 0 0.06 0.385 0 0.08 0.385 0 0.1 0.385 0 0 0.39 0 0.02 0.39 0 0.04 0.39 0 0.06 0.39 0 0.08 0.39 0 0.1 0.39 0 0 0.395 0 0.02 0.395 0 0.04 0.395 0 0.06 0.395 0 0.08 0.395 0 0.1 0.395 0 0 0.4 0 0.02 0.4 0 0.04 0.4 0 0.06 0.4 0 0.08 0.4 0 0.1 0.4 0 0 0.405 0 0.02 0.405 0 0.04 0.405 0 0.06 0.405 0 0.08 0.405 0 0.1 0.405 0 0 0.41 0 0.02 0.41 0 0.04 0.41 0 0.06 0.41 0 0.08 0.41 0 0.1 0.41 0 0 0.415 0 0.02 0.415 0 0.04 0.415 0 0.06 0.415 0 0.08 0.415 0 0.1 0.415 0 0 0.42 0 0.02 0.42 0 0.04 0.42 0 0.06 0.42 0 0.08 0.42 0 0.1 0.42 0 0 0.425 0 0.02 0.425 0 0.04 0.425 0 0.06 0.425 0 0.08 0.425 0 0.1 0.425 0 0 0.43 0 0.02 0.43 0 0.04 0.43 0 0.06 0.43 0 0.08 0.43 0 0.1 0.43 0 0 0.435 0 0.02 0.435 0 0.04 0.435 0 0.06 0.435 0 0.08 0.435 0 0.1 0.435 0 0 0.44 0 0.02 0.44 0 0.04 0.44 0 0.06 0.44 0 0.08 0.44 0 0.1 0.44 0 0 0.445 0 0.02 0.445 0 0.04 0.445 0 0.06 0.445 0 0.08 0.445 0 0.1 0.445 0 0 0.45 0 0.02 0.45 0 0.04 0.45 0 0.06 0.45 0 0.08 0.45 0 0.1 0.45 0 0 0.455 0 0.02 0.455 0 0.04 0.455 0 0.06 0.455 0 0.08 0.455 0 0.1 0.455 0 0 0.46 0 0.02 0.46 0 0.04 0.46 0 0.06 0.46 0 0.08 0.46 0 0.1 0.46 0 0 0.465 0 0.02 0.465 0 0.04 0.465 0 0.06 0.465 0 0.08 0.465 0 0.1 0.465 0 0 0.47 0 0.02 0.47 0 0.04 0.47 0 0.06 0.47 0 0.08 0.47 0 0.1 0.47 0 0 0.475 0 0.02 0.475 0 0.04 0.475 0 0.06 0.475 0 0.08 0.475 0 0.1 0.475 0 0 0.48 0 0.02 0.48 0 0.04 0.48 0 0.06 0.48 0 0.08 0.48 0 0.1 0.48 0 0 0.485 0 0.02 0.485 0 0.04 0.485 0 0.06 0.485 0 0.08 0.485 0 0.1 0.485 0 0 0.49 0 0.02 0.49 0 0.04 0.49 0 0.06 0.49 0 0.08 0.49 0 0.1 0.49 0 0 0.495 0 0.02 0.495 0 0.04 0.495 0 0.06 0.495 0 0.08 0.495 0 0.1 0.495 0 0 0.5 0 0.02 0.5 0 0.04 0.5 0 0.06 0.5 0 0.08 0.5 0 0.1 0.5 0 0 0.505 0 0.02 0.505 0 0.04 0.505 0 0.06 0.505 0 0.08 0.505 0 0.1 0.505 0 0 0.51 0 0.02 0.51 0 0.04 0.51 0 0.06 0.51 0 0.08 0.51 0 0.1 0.51 0 0 0.515 0 0.02 0.515 0 0.04 0.515 0 0.06 0.515 0 0.08 0.515 0 0.1 0.515 0 0 0.52 0 0.02 0.52 0 0.04 0.52 0 0.06 0.52 0 0.08 0.52 0 0.1 0.52 0 0 0.525 0 0.02 0.525 0 0.04 0.525 0 0.06 0.525 0 0.08 0.525 0 0.1 0.525 0 0 0.53 0 0.02 0.53 0 0.04 0.53 0 0.06 0.53 0 0.08 0.53 0 0.1 0.53 0 0 0.535 0 0.02 0.535 0 0.04 0.535 0 0.06 0.535 0 0.08 0.535 0 0.1 0.535 0 0 0.54 0 0.02 0.54 0 0.04 0.54 0 0.06 0.54 0 0.08 0.54 0 0.1 0.54 0 0 0.545 0 0.02 0.545 0 0.04 0.545 0 0.06 0.545 0 0.08 0.545 0 0.1 0.545 0 0 0.55 0 0.02 0.55 0 0.04 0.55 0 0.06 0.55 0 0.08 0.55 0 0.1 0.55 0 0 0.555 0 0.02 0.555 0 0.04 0.555 0 0.06 0.555 0 0.08 0.555 0 0.1 0.555 0 0 0.56 0 0.02 0.56 0 0.04 0.56 0 0.06 0.56 0 0.08 0.56 0 0.1 0.56 0 0 0.565 0 0.02 0.565 0 0.04 0.565 0 0.06 0.565 0 0.08 0.565 0 0.1 0.565 0 0 0.57 0 0.02 0.57 0 0.04 0.57 0 0.06 0.57 0 0.08 0.57 0 0.1 0.57 0 0 0.575 0 0.02 0.575 0 0.04 0.575 0 0.06 0.575 0 0.08 0.575 0 0.1 0.575 0 0 0.58 0 0.02 0.58 0 0.04 0.58 0 0.06 0.58 0 0.08 0.58 0 0.1 0.58 0 0 0.585 0 0.02 0.585 0 0.04 0.585 0 0.06 0.585 0 0.08 0.585 0 0.1 0.585 0 0 0.59 0 0.02 0.59 0 0.04 0.59 0 0.06 0.59 0 0.08 0.59 0 0.1 0.59 0 0 0.595 0 0.02 0.595 0 0.04 0.595 0 0.06 0.595 0 0.08 0.595 0 0.1 0.595 0 0 0.6 0 0.02 0.6 0 0.04 0.6 0 0.06 0.6 0 0.08 0.6 0 0.1 0.6 0 0 0.605 0 0.02 0.605 0 0.04 0.605 0 0.06 0.605 0 0.08 0.605 0 0.1 0.605 0 0 0.61 0 0.02 0.61 0 0.04 0.61 0 0.06 0.61 0 0.08 0.61 0 0.1 0.61 0 0 0.615 0 0.02 0.615 0 0.04 0.615 0 0.06 0.615 0 0.08 0.615 0 0.1 0.615 0 0 0.62 0 0.02 0.62 0 0.04 0.62 0 0.06 0.62 0 0.08 0.62 0 0.1 0.62 0 0 0.625 0 0.02 0.625 0 0.04 0.625 0 0.06 0.625 0 0.08 0.625 0 0.1 0.625 0 0 0.63 0 0.02 0.63 0 0.04 0.63 0 0.06 0.63 0 0.08 0.63 0 0.1 0.63 0 0 0.635 0 0.02 0.635 0 0.04 0.635 0 0.06 0.635 0 0.08 0.635 0 0.1 0.635 0 0 0.64 0 0.02 0.64 0 0.04 0.64 0 0.06 0.64 0 0.08 0.64 0 0.1 0.64 0 0 0.645 0 0.02 0.645 0 0.04 0.645 0 0.06 0.645 0 0.08 0.645 0 0.1 0.645 0 0 0.65 0 0.02 0.65 0 0.04 0.65 0 0.06 0.65 0 0.08 0.65 0 0.1 0.65 0 0 0.655 0 0.02 0.655 0 0.04 0.655 0 0.06 0.655 0 0.08 0.655 0 0.1 0.655 0 0 0.66 0 0.02 0.66 0 0.04 0.66 0 0.06 0.66 0 0.08 0.66 0 0.1 0.66 0 0 0.665 0 0.02 0.665 0 0.04 0.665 0 0.06 0.665 0 0.08 0.665 0 0.1 0.665 0 0 0.67 0 0.02 0.67 0 0.04 0.67 0 0.06 0.67 0 0.08 0.67 0 0.1 0.67 0 0 0.675 0 0.02 0.675 0 0.04 0.675 0 0.06 0.675 0 0.08 0.675 0 0.1 0.675 0 0 0.68 0 0.02 0.68 0 0.04 0.68 0 0.06 0.68 0 0.08 0.68 0 0.1 0.68 0 0 0.685 0 0.02 0.685 0 0.04 0.685 0 0.06 0.685 0 0.08 0.685 0 0.1 0.685 0 0 0.69 0 0.02 0.69 0 0.04 0.69 0 0.06 0.69 0 0.08 0.69 0 0.1 
[...]
			<PointData Scalars="VitesseX">
				<DataArray Name="VitesseX" type="Float32" format="ascii">
 0 -1.12582e-14 1.29415e-14 -1.50183e-14 2.52212e-14 0 0 -7.99666e-15 5.58258e-15 -7.1086e-15 1.99444e-14 0 0 -2.00189e-15 -9.92747e-15 7.47867e-15 1.63196e-14 0 0 -8.18298e-16 -1.53978e-14 9.93908e-15 2.29863e-14 0 0 7.53221e-15 -2.7063e-14 2.09208e-14 2.41179e-14 0 0 1.82245e-15 -1.53378e-14 2.4507e-14 2.1452e-14 0 0 -3.04848e-14 3.73263e-14 3.02243e-15 3.19062e-14 0 0 -2.88398e-14 3.46235e-14 4.09994e-14 8.69406e-15 0 0 -1.84327e-14 2.36254e-14 7.92195e-14 -1.51793e-14 0 0 1.40272e-14 -2.20844e-15 9.88511e-14 -1.16601e-14 0 0 6.13342e-14 -6.02427e-14 1.40605e-13 -2.29357e-14 0 0 4.62614e-14 -1.10328e-14 7.56522e-14 1.06707e-14 0 0 3.53202e-14 3.2034e-14 2.86936e-14 3.04003e-14 0 0 2.64735e-14 4.87934e-14 4.89746e-15 5.09809e-14 0 0 2.57457e-14 4.19088e-14 -1.55775e-14 7.43063e-14 0 0 3.74409e-14 9.98508e-15 1.63789e-14 3.49014e-14 0 0 4.72401e-14 -4.11881e-15 4.57123e-14 -2.29077e-14 0 0 9.06325e-14 -6.35629e-14 1.12492e-13 -9.48892e-14 0 0 9.7487e-14 -5.17554e-14 5.61268e-14 -1.71249e-14 0 0 1.84971e-14 8.13888e-14 -1.08418e-13 1.27097e-13 0 0 -1.3814e-14 1.06667e-13 -9.25891e-14 6.60772e-14 0 0 3.68973e-15 4.09504e-14 1.27088e-14 -4.3088e-14 0 0 2.37352e-14 -3.98087e-14 1.02975e-13 -8.35948e-14 0 0 -4.77055e-14 1.27592e-14 2.08868e-14 3.18653e-14 0 0 -1.26307e-13 9.51287e-14 -9.02955e-14 1.46234e-13 0 0 -1.68339e-14 -8.91444e-14 8.73731e-14 5.5085e-14 0 0 -5.612e-15 -7.2707e-14 6.89853e-14 6.12453e-14 0 0 -4.58174e-14 2.0593e-14 2.44807e-14 3.72842e-14 0 0 1.97313e-14 -9.9135e-14 2.04869e-13 -9.14376e-14 0 0 -1.98842e-14 -5.20046e-14 2.01345e-13 -1.28794e-13 0 0 -1.26715e-13 1.03606e-13 1.07537e-13 -1.48318e-13 0 0 -9.05857e-14 8.62037e-14 8.13223e-14 -1.08937e-13 0 0 -6.20681e-14 1.12266e-13 -4.40402e-14 3.12591e-14 0 0 -2.57319e-14 4.94407e-14 -1.57453e-15 3.60295e-14 0 0 1.99941e-14 -2.74473e-14 7.4576e-14 6.33556e-15 0 0 1.19218e-14 2.86909e-14 -1.49178e-14 5.33387e-14 0 0 7.18279e-14 -2.27726e-14 9.63606e-15 6.3328e-14 0 0 7.04216e-14 -3.55624e-14 4.37614e-14 1.09856e-13 0 0 4.65345e-14 -3.05998e-14 7.15174e-14 9.4592e-14 0 0 5.39833e-15 2.71573e-14 8.9045e-14 2.10046e-14 0 0 7.00707e-16 6.6718e-14 1.23096e-13 -7.56833e-14 0 0 -3.30528e-14 1.44882e-13 4.61374e-14 -3.48608e-14 0 0 -6.88598e-14 1.61664e-13 3.06929e-14 -2.97042e-15 0 0 -2.69224e-14 1.20668e-13 5.58442e-14 -4.89709e-14 0 0 -9.20903e-14 2.21533e-13 3.90838e-16 -4.01917e-14 0 0 -3.59313e-14 1.85025e-13 -9.42752e-15 2.27861e-14 0 0 9.05286e-14 1.00776e-13 -3.49876e-14 1.19593e-13 0 0 4.75847e-15 2.37073e-13 -1.41997e-13 2.29402e-13 0 0 9.04231e-15 1.92983e-13 -1.10054e-13 2.89385e-13 0 0 1.89708e-13 -9.89306e-14 1.36808e-13 1.57168e-13 0 0 4.35908e-13 -4.5484e-13 4.58325e-13 -5.77659e-14 0 0 3.97037e-13 -3.7319e-13 3.96709e-13 -6.44887e-14 0 0 2.98296e-14 2.9234e-13 -3.18856e-13 3.47573e-13 0 0 1.82124e-13 1.02312e-13 -2.34472e-13 3.28846e-13 0 0 3.9594e-13 -3.15661e-13 1.3426e-13 1.0315e-13 0 0 2.08548e-13 -7.37338e-14 -1.18638e-13 2.25618e-13 0 0 2.03294e-13 -1.06449e-13 -5.06053e-14 1.38063e-13 0 0 1.31064e-13 -1.70229e-14 -9.30233e-14 1.12376e-13 0 0 6.94995e-14 4.64247e-14 -7.55531e-14 -2.05264e-14 0 0 1.515e-13 -9.8779e-14 1.16295e-13 -1.59976e-13 0 0 1.34951e-13 -9.06802e-15 1.44077e-14 8.11798e-15 0 0 6.3551e-14 9.15436e-14 -3.46558e-14 3.35328e-14 0 0 2.23781e-14 1.82937e-13 -8.44088e-14 2.36632e-14 0 0 5.15927e-14 1.48729e-13 -8.04486e-15 -2.94183e-14 0 0 -4.61117e-14 2.48655e-13 -6.96541e-14 1.20826e-14 0 0 4.91594e-14 7.47332e-14 7.51466e-14 -4.4344e-14 0 0 2.02531e-13 -1.35557e-13 1.91035e-13 -3.46396e-14 0 0 2.32975e-13 -2.25276e-15 -9.18103e-16 8.58602e-14 0 0 3.63785e-13 -1.35572e-14 8.40766e-14 -1.61025e-14 0 0 3.98438e-13 3.28803e-14 1.02606e-13 -4.6565e-15 0 0 4.40162e-13 7.5244e-15 7.88142e-14 3.19059e-14 0 0 4.27702e-13 4.8878e-15 7.67937e-14 9.74291e-15 0 0 4.82703e-13 -2.10152e-14 1.17405e-13 -2.85792e-14 0 0 3.85799e-13 2.25107e-13 -1.01924e-13 1.78007e-13 0 0 3.70532e-13 2.7827e-13 2.20031e-13 1.76273e-13 0 0 7.22157e-13 6.74215e-13 9.7509e-13 4.37415e-13 0 0 2.09951e-12 3.32639e-12 3.06415e-12 2.24822e-12 0 0 8.06715e-12 1.30523e-11 1.27904e-11 8.1679e-12 0 0 2.87817e-11 4.63092e-11 4.61272e-11 2.82949e-11 0 0 8.8411e-11 1.41172e-10 1.40919e-10 8.61425e-11 0 0 2.28042e-10 3.65767e-10 3.61189e-10 2.2167e-10 0 0 4.99518e-10 7.9867e-10 7.83992e-10 4.78504e-10 0 0 9.37739e-10 1.48734e-09 1.45112e-09 8.77508e-10 0 0 1.53191e-09 2.40949e-09 2.32342e-09 1.39228e-09 0 0 2.22929e-09 3.46828e-09 3.29119e-09 1.94721e-09 0 0 2.95316e-09 4.52321e-09 4.20604e-09 2.44231e-09 0 0 3.61837e-09 5.44591e-09 4.94227e-09 2.80107e-09 0 0 4.15704e-09 6.1377e-09 5.41266e-09 2.99185e-09 0 0 4.51279e-09 6.54305e-09 5.60322e-09 2.9599e-09 0 0 4.66562e-09 6.60598e-09 5.41271e-09 2.76418e-09 0 0 4.49772e-09 6.27607e-09 4.97561e-09 2.38236e-09 0 0 4.07626e-09 5.56949e-09 4.19505e-09 1.84673e-09 0 0 3.28524e-09 4.43552e-09 3.15838e-09 1.25107e-09 0 0 1.98477e-09 2.72661e-09 1.83437e-09 5.06754e-10 0 0 6.20604e-10 8.75603e-10 3.62462e-10 -2.02224e-10 0 0 -1.80114e-09 -1.78758e-09 -1.32471e-09 -9.74038e-10 0 0 -4.28532e-09 -4.80943e-09 -3.19048e-09 -1.74702e-09 0 0 -6.92292e-09 -7.87005e-09 -5.04441e-09 -2.2986e-09 0 0 -1.06667e-08 -1.20202e-08 -7.15072e-09 -3.05227e-09 0 0 -1.37691e-08 -1.56781e-08 -8.87114e-09 -2.77097e-09 0 0 -2.23633e-08 -2.30165e-08 -1.12641e-08 -2.04773e-09 0 0 -2.61676e-08 -2.60379e-08 -9.5267e-09 -3.08245e-09 0 0 -1.95444e-08 -2.47012e-08 -7.70558e-09 -4.58523e-09 0 0 -5.10528e-09 -1.91224e-08 -7.76497e-09 -5.81966e-09 0 0 1.10327e-08 -1.75306e-08 -2.14404e-08 1.07226e-08 0 0 1.29503e-08 -1.85543e-08 -3.6604e-08 2.95138e-08 0 0 2.45425e-09 -1.20291e-08 -3.4782e-08 2.52898e-08 0 0 -2.43823e-08 6.34298e-09 -2.64893e-08 4.10159e-09 0 0 -2.98117e-08 8.38706e-09 -1.72361e-09 -3.46353e-08 0 0 -2.50281e-08 5.5087e-09 1.96995e-08 -4.08091e-08 0 0 -9.17859e-09 3.98679e-10 1.39799e-08 -3.12989e-08 0 0 1.56515e-09 -4.64363e-09 5.85502e-09 -1.72775e-08 0 0 1.77389e-09 -9.50916e-09 5.79905e-09 -1.29261e-08 0 0 3.50441e-09 -1.12243e-08 -7.61488e-09 4.89319e-09 0 0 4.73369e-09 -8.96166e-09 -1.55224e-08 1.44735e-08 0 0 1.64102e-09 -1.07631e-09 -6.5521e-09 6.33482e-09 0 0 -7.76382e-10 1.20961e-08 2.71133e-09 -1.37528e-09 0 0 1.45244e-09 1.91325e-08 6.03829e-09 -6.30372e-10 0 0 6.06517e-09 1.76358e-08 6.71639e-09 -1.14839e-09 0 0 1.00814e-08 1.08884e-08 6.48255e-09 -6.49788e-10 0 0 1.23068e-08 4.76609e-09 6.14066e-09 6.5099e-11 0 0 1.23655e-08 3.4436e-09 5.73132e-09 5.70452e-10 0 0 1.01369e-08 4.44229e-09 3.02347e-09 2.20303e-09 0 0 6.18769e-09 6.77752e-09 -1.25845e-10 3.27533e-09 0 0 3.82131e-09 6.83419e-09 -2.74058e-10 3.07752e-09 0 0 3.10505e-09 5.03077e-09 7.85923e-10 1.95017e-09 0 0 2.45066e-09 3.08218e-09 1.46626e-09 7.03233e-10 0 0 1.74078e-09 1.88727e-09 1.27091e-09 2.78964e-10 0 0 1.08652e-09 1.20997e-09 7.04018e-10 1.14286e-10 0 0 5.81179e-10 6.4985e-10 2.58848e-10 -2.10222e-11 0 0 2.39291e-10 2.18274e-10 6.59411e-13 -1.03964e-10 0 0 4.63239e-11 -8.73051e-12 -1.10873e-10 -1.21056e-10 0 0 -2.8665e-11 -8.0587e-11 -1.24044e-10 -9.88588e-11 0 0 -3.79263e-11 -7.32841e-11 -8.73983e-11 -6.09968e-11 0 0 -2.40705e-11 -4.20081e-11 -4.55487e-11 -2.99661e-11 0 0 -1.09572e-11 -1.84751e-11 -1.91664e-11 -1.22495e-11 0 0 -4.07567e-12 -6.91734e-12 -6.84166e-12 -4.36789e-12 0 0 -1.31976e-12 -2.14128e-12 -2.17373e-12 -1.2025e-12 0 0 -1.92756e-13 -6.53999e-13 -2.87936e-13 -1.72946e-13 0 0 1.54413e-13 -4.61863e-14 2.6228e-13 1.54101e-13 0 0 2.19092e-13 2.89081e-13 2.49956e-13 3.44467e-13 0 0 3.44269e-13 2.44555e-13 3.96867e-13 2.74949e-13 0 0 2.90454e-13 4.28177e-13 2.90815e-13 2.7899e-13 0 0 3.05762e-13 4.49947e-13 3.16565e-13 1.20712e-13 0 0 3.62201e-13 3.6345e-13 3.84726e-13 2.21942e-14 0 0 2.61579e-13 6.14311e-13 1.35914e-14 2.72565e-13 0 0 4.873e-13 3.03448e-13 2.51845e-13 6.08185e-14 0 0 5.76907e-13 1.36031e-13 3.94446e-13 -4.99594e-14 0 0 4.76554e-13 3.87552e-13 1.47668e-14 3.01612e-13 0 0 5.561e-13 3.18949e-13 3.53413e-14 4.12746e-13 0 0 3.77423e-13 5.28562e-13 -4.81751e-14 4.60062e-13 0 0 4.99159e-13 2.77705e-13 3.68528e-13 1.13548e-13 0 0 5.40225e-13 2.06739e-13 5.29576e-13 -8.69879e-14 0 0 3.55057e-13 5.12407e-13 2.416e-13 -8.19012e-16 0 0 3.26653e-13 5.39392e-13 3.04515e-13 -1.658e-13 0 0 3.61854e-13 5.22811e-13 3.35994e-13 -1.70422e-13 0 0 6.23116e-13 2.50743e-13 5.36184e-13 -2.24431e-13 0 0 6.00394e-13 3.15745e-13 4.43493e-13 -2.65122e-14 0 0 3.20983e-13 5.77207e-13 2.65383e-13 3.24657e-13 0 0 8.58005e-14 7.49463e-13 2.10917e-13 5.84077e-13 0 0 1.62897e-13 6.35881e-13 3.55517e-13 6.41253e-13 0 0 4.29992e-13 2.57568e-13 7.71728e-13 4.25321e-13 0 0 4.87043e-13 2.14862e-13 8.10259e-13 3.85002e-13 0 0 4.20004e-13 3.07247e-13 6.4331e-13 5.03906e-13 0 0 1.37779e-13 6.03683e-13 4.22343e-13 6.19454e-13 0 0 -9.67577e-14 7.54349e-13 4.1422e-13 6.34593e-13 0 0 2.56934e-13 1.50282e-13 9.46782e-13 4.02653e-13 0 0 4.84906e-13 1.18106e-14 7.19349e-13 5.84235e-13 0 0 5.60557e-13 -7.06397e-14 7.04379e-13 5.19962e-13 0 0 3.83006e-13 1.09323e-13 9.19209e-13 6.64551e-14 0 0 4.54421e-14 6.90882e-13 4.74255e-13 2.34272e-13 0 0 -4.85478e-14 8.29812e-13 2.4086e-13 4.62621e-13 0 0 1.68044e-14 5.62263e-13 3.44311e-13 4.74548e-13 0 0 3.71786e-13 -1.53255e-13 8.97531e-13 2.81482e-13 0 0 5.06768e-13 -2.96503e-13 8.14804e-13 4.41209e-13 0 0 2.69878e-13 5.05533e-14 4.07383e-13 6.45001e-13 0 0 -1.41223e-13 4.93852e-13 2.09267e-13 5.25813e-13 0 0 -3.56166e-13 6.97468e-13 2.15278e-13 3.00355e-13 0 0 2.30168e-13 -1.85012e-13 1.02503e-12 -2.0103e-13 0 0 6.36217e-13 -4.54595e-13 8.92026e-13 3.85659e-14 0 0 4.02813e-13 4.73266e-14 5.223e-13 1.25881e-13 0 0 1.0338e-13 3.00367e-13 5.88305e-13 5.6057e-14 0 0 -1.27085e-13 4.36876e-13 3.94567e-13 3.81879e-13 0 0 1.5589e-13 8.41995e-15 5.60097e-13 4.13987e-13 0 0 3.38961e-14 3.20598e-13 2.22736e-13 5.83237e-13 0 0 2.21061e-13 2.32167e-13 4.37542e-13 2.84483e-13 0 0 3.81855e-13 2.68909e-13 2.68226e-13 3.16462e-13 0 0 2.83691e-13 5.7618e-13 -6.05738e-14 4.02953e-13 0 0 7.79418e-13 -3.64673e-14 5.13589e-13 6.29863e-14 0 0 7.27208e-13 2.91971e-14 5.02496e-13 1.46871e-13 0 0 4.83954e-13 2.88704e-13 3.56442e-13 2.80707e-13 0 0 7.43658e-13 4.13235e-14 4.67589e-13 2.59972e-13 0 0 7.17298e-13 2.56363e-13 1.77745e-13 4.4971e-13 0 0 6.2672e-13 3.51022e-13 3.08191e-13 2.65197e-13 0 0 6.77053e-13 2.72246e-13 4.34441e-13 2.3384e-13 0 0 6.39604e-13 6.88623e-13 -3.25767e-13 9.21448e-13 0 0 1.02756e-12 4.39647e-13 -4.60849e-13 1.17546e-12 0 0 8.40732e-13 6.23949e-13 -6.6603e-13 1.39935e-12 0 0 6.15682e-13 6.32513e-13 -5.29364e-13 1.47745e-12 0 0 6.08676e-13 4.80249e-13 -4.24406e-13 1.46487e-12 0 0 3.6455e-13 8.69237e-13 -8.56956e-13 1.61103e-12 0
				</DataArray>
				<DataArray Name="VitesseY" type="Float32" format="ascii">