<?xml version="1.0"?>
<VTKFile type="PolyData">
	<PolyData>
		<Piece NumberOfPoints="1206" NumberOfPolys="1000">
			<Points>
				<DataArray type="Float32" NumberOfComponents="3" format="ascii">
 0 0 0 0.02 0 0 0.04 0 0 0.06 0 0 0.08 0 0 0.1 0 0 0 0.005 0 0.02 0.005 0 0.04 0.005 0 0.06 0.005 0 0.08 0.005 0 0.1 0.005 0 0 0.01 0 0.02 0.01 0 0.04 0.01 0 0.06 0.01 0 0.08 0.01 0 0.1 0.01 0 0 0.015 0 0.02 0.015 0 0.04 0.015 0 0.06 0.015 0 0.08 0.015 0 0.1 0.015 0 0 0.02 0 0.02 0.02 0 0.04 0.02 0 0.06 0.02 0 0.08 0.02 0 0.1 0.02 0 0 0.025 0 0.02 0.025 0 0.04 0.025 0 0.06 0.025 0 0.08 0.025 0 0.1 0.025 0 0 0.03 0 0.02 0.03 0 0.04 0.03 0 0.06 0.03 0 0.08 0.03 0 0.1 0.03 0 0 0.035 0 0.02 0.035 0 0.04 0.035 0 0.06 0.035 0 0.08 0.035 0 0.1 0.035 0 0 0.04 0 0.02 0.04 0 0.04 0.04 0 0.06 0.04 0 0.08 0.04 0 0.1 0.04 0 0 0.045 0 0.02 0.045 0 0.04 0.045 0 0.06 0.045 0 0.08 0.045 0 0.1 0.045 0 0 0.05 0 0.02 0.05 0 0.04 0.05 0 0.06 0.05 0 0.08 0.05 0 0.1 0.05 0 0 0.055 0 0.02 0.055 0 0.04 0.055 0 0.06 0.055 0 0.08 0.055 0 0.1 0.055 0 0 0.06 0 0.02 0.06 0 0.04 0.06 0 0.06 0.06 0 0.08 0.06 0 0.1 0.06 0 0 0.065 0 0.02 0.065 0 0.04 0.065 0 0.06 0.065 0 0.08 0.065 0 0.1 0.065 0 0 0.07 0 0.02 0.07 0 0.04 0.07 0 0.06 0.07 0 0.08 0.07 0 0.1 0.07 0 0 0.075 0 0.02 0.075 0 0.04 0.075 0 0.06 0.075 0 0.08 0.075 0 0.1 0.075 0 0 0.08 0 0.02 0.08 0 0.04 0.08 0 0.06 0.08 0 0.08 0.08 0 0.1 0.08 0 0 0.085 0 0.02 0.085 0 0.04 0.085 0 0.06 0.085 0 0.08 0.085 0 0.1 0.085 0 0 0.09 0 0.02 0.09 0 0.04 0.09 0 0.06 0.09 0 0.08 0.09 0 0.1 0.09 0 0 0.095 0 0.02 0.095 0 0.04 0.095 0 0.06 0.095 0 0.08 0.095 0 0.1 0.095 0 0 0.1 0 0.02 0.1 0 0.04 0.1 0 0.06 0.1 0 0.08 0.1 0 0.1 0.1 0 0 0.105 0 0.02 0.105 0 0.04 0.105 0 0.06 0.105 0 0.08 0.105 0 0.1 0.105 0 0 0.11 0 0.02 0.11 0 0.04 0.11 0 0.06 0.11 0 0.08 0.11 0 0.1 0.11 0 0 0.115 0 0.02 0.115 0 0.04 0.115 0 0.06 0.115 0 0.08 0.115 0 0.1 0.115 0 0 0.12 0 0.02 0.12 0 0.04 0.12 0 0.06 0.12 0 0.08 0.12 0 0.1 0.12 0 0 0.125 0 0.02 0.125 0 0.04 0.125 0 0.06 0.125 0 0.08 0.125 0 0.1 0.125 0 0 0.13 0 0.02 0.13 0 0.04 0.13 0 0.06 0.13 0 0.08 0.13 0 0.1 0.13 0 0 0.135 0 0.02 0.135 0 0.04 0.135 0 0.06 0.135 0 0.08 0.135 0 0.1 0.135 0 0 0.14 0 0.02 0.14 0 0.04 0.14 0 0.06 0.14 0 0.08 0.14 0 0.1 0.14 0 0 0.145 0 0.02 0.145 0 0.04 0.145 0 0.06 0.145 0 0.08 0.145 0 0.1 0.145 0 0 0.15 0 0.02 0.15 0 0.04 0.15 0 0.06 0.15 0 0.08 0.15 0 0.1 0.15 0 0 0.155 0 0.02 0.155 0 0.04 0.155 0 0.06 0.155 0 0.08 0.155 0 0.1 0.155 0 0 0.16 0 0.02 0.16 0 0.04 0.16 0 0.06 0.16 0 0.08 0.16 0 0.1 0.16 0 0 0.165 0 0.02 0.165 0 0.04 0.165 0 0.06 0.165 0 0.08 0.165 0 0.1 0.165 0 0 0.17 0 0.02 0.17 0 0.04 0.17 0 0.06 0.17 0 0.08 0.17 0 0.1 0.17 0 0 0.175 0 0.02 0.175 0 0.04 0.175 0 0.06 0.175 0 0.08 0.175 0 0.1 0.175 0 0 0.18 0 0.02 0.18 0 0.04 0.18 0 0.06 0.18 0 0.08 0.18 0 0.1 0.18 0 0 0.185 0 0.02 0.185 0 0.04 0.185 0 0.06 0.185 0 0.08 0.185 0 0.1 0.185 0 0 0.19 0 0.02 0.19 0 0.04 0.19 0 0.06 0.19 0 0.08 0.19 0 0.1 0.19 0 0 0.195 0 0.02 0.195 0 0.04 0.195 0 0.06 0.195 0 0.08 0.195 0 0.1 0.195 0 0 0.2 0 0.02 0.2 0 0.04 0.2 0 0.06 0.2 0 0.08 0.2 0 0.1 0.2 0 0 0.205 0 0.02 0.205 0 0.04 0.205 0 0.06 0.205 0 0.08 0.205 0 0.1 0.205 0 0 0.21 0 0.02 0.21 0 0.04 0.21 0 0.06 0.21 0 0.08 0.21 0 0.1 0.21 0 0 0.215 0 0.02 0.215 0 0.04 0.215 0 0.06 0.215 0 0.08 0.215 0 0.1 0.215 0 0 0.22 0 0.02 0.22 0 0.04 0.22 0 0.06 0.22 0 0.08 0.22 0 0.1 0.22 0 0 0.225 0 0.02 0.225 0 0.04 0.225 0 0.06 0.225 0 0.08 0.225 0 0.1 0.225 0 0 0.23 0 0.02 0.23 0 0.04 0.23 0 0.06 0.23 0 0.08 0.23 0 0.1 0.23 0 0 0.235 0 0.02 0.235 0 0.04 0.235 0 0.06 0.235 0 0.08 0.235 0 0.1 0.235 0 0 0.24 0 0.02 0.24 0 0.04 0.24 0 0.06 0.24 0 0.08 0.24 0 0.1 0.24 0 0 0.245 0 0.02 0.245 0 0.04 0.245 0 0.06 0.245 0 0.08 0.245 0 0.1 0.245 0 0 0.25 0 0.02 0.25 0 0.04 0.25 0 0.06 0.25 0 0.08 0.25 0 0.1 0.25 0 0 0.255 0 0.02 0.255 0 0.04 0.255 0 0.06 0.255 0 0.08 0.255 0 0.1 0.255 0 0 0.26 0 0.02 0.26 0 0.04 0.26 0 0.06 0.26 0 0.08 0.26 0 0.1 0.26 0 0 0.265 0 0.02 0.265 0 0.04 0.265 0 0.06 0.265 0 0.08 0.265 0 0.1 0.265 0 0 0.27 0 0.02 0.27 0 0.04 0.27 0 0.06 0.27 0 0.08 0.27 0 0.1 0.27 0 0 0.275 0 0.02 0.275 0 0.04 0.275 0 0.06 0.275 0 0.08 0.275 0 0.1 0.275 0 0 0.28 0 0.02 0.28 0 0.04 0.28 0 0.06 0.28 0 0.08 0.28 0 0.1 0.28 0 0 0.285 0 0.02 0.285 0 0.04 0.285 0 0.06 0.285 0 0.08 0.285 0 0.1 0.285 0 0 0.29 0 0.02 0.29 0 0.04 0.29 0 0.06 0.29 0 0.08 0.29 0 0.1 0.29 0 0 0.295 0 0.02 0.295 0 0.04 0.295 0 0.06 0.295 0 0.08 0.295 0 0.1 0.295 0 0 0.3 0 0.02 0.3 0 0.04 0.3 0 0.06 0.3 0 0.08 0.3 0 0.1 0.3 0 0 0.305 0 0.02 0.305 0 0.04 0.305 0 0.06 0.305 0 0.08 0.305 0 0.1 0.305 0 0 0.31 0 0.02 0.31 0 0.04 0.31 0 0.06 0.31 0 0.08 0.31 0 0.1 0.31 0 0 0.315 0 0.02 0.315 0 0.04 0.315 0 0.06 0.315 0 0.08 0.315 0 0.1 0.315 0 0 0.32 0 0.02 0.32 0 0.04 0.32 0 0.06 0.32 0 0.08 0.32 0 0.1 0.32 0 0 0.325 0 0.02 0.325 0 0.04 0.325 0 0.06 0.325 0 0.08 0.325 0 0.1 0.325 0 0 0.33 0 0.02 0.33 0 0.04 0.33 0 0.06 0.33 0 0.08 0.33 0 0.1 0.33 0 0 0.335 0 0.02 0.335 0 0.04 0.335 0 0.06 0.335 0 0.08 0.335 0 0.1 0.335 0 0 0.34 0 0.02 0.34 0 0.04 0.34 0 0.06 0.34 0 0.08 0.34 0 0.1 0.34 0 0 0.345 0 0.02 0.345 0 0.04 0.345 0 0.06 0.345 0 0.08 0.345 0 0.1 0.345 0 0 0.35 0 0.02 0.35 0 0.04 0.35 0 0.06 0.35 0 0.08 0.35 0 0.1 0.35 0 0 0.355 0 0.02 0.355 0 0.04 0.355 0 0.06 0.355 0 0.08 0.355 0 0.1 0.355 0 0 0.36 0 0.02 0.36 0 0.04 0.36 0 0.06 0.36 0 0.08 0.36 0 0.1 0.36 0 0 0.365 0 0.02 0.365 0 0.04 0.365 0 0.06 0.365 0 0.08 0.365 0 0.1 0.365 0 0 0.37 0 0.02 0.37 0 0.04 0.37 0 0.06 0.37 0 0.08 0.37 0 0.1 0.37 0 0 0.375 0 0.02 0.375 0 0.04 0.375 0 0.06 0.375 0 0.08 0.375 0 0.1 0.375 0 0 0.38 0 0.02 0.38 0 0.04 0.38 0 0.06 0.38 0 0.08 0.38 0 0.1 0.38 0 0 0.385 0 0.02 0.385 0 0.04 0.385 0 0.06 0.385 0 0.08 0.385 0 0.1 0.385 0 0 0.39 0 0.02 0.39 0 0.04 0.39 0 0.06 0.39 0 0.08 0.39 0 0.1 0.39 0 0 0.395 0 0.02 0.395 0 0.04 0.395 0 0.06 0.395 0 0.08 0.395 0 0.1 0.395 0 0 0.4 0 0.02 0.4 0 0.04 0.4 0 0.06 0.4 0 0.08 0.4 0 0.1 0.4 0 0 0.405 0 0.02 0.405 0 0.04 0.405 0 0.06 0.405 0 0.08 0.405 0 0.1 0.405 0 0 0.41 0 0.02 0.41 0 0.04 0.41 0 0.06 0.41 0 0.08 0.41 0 0.1 0.41 0 0 0.415 0 0.02 0.415 0 0.04 0.415 0 0.06 0.415 0 0.08 0.415 0 0.1 0.415 0 0 0.42 0 0.02 0.42 0 0.04 0.42 0 0.06 0.42 0 0.08 0.42 0 0.1 0.42 0 0 0.425 0 0.02 0.425 0 0.04 0.425 0 0.06 0.425 0 0.08 0.425 0 0.1 0.425 0 0 0.43 0 0.02 0.43 0 0.04 0.43 0 0.06 0.43 0 0.08 0.43 0 0.1 0.43 0 0 0.435 0 0.02 0.435 0 0.04 0.435 0 0.06 0.435 0 0.08 0.435 0 0.1 0.435 0 0 0.44 0 0.02 0.44 0 0.04 0.44 0 0.06 0.44 0 0.08 0.44 0 0.1 0.44 0 0 0.445 0 0.02 0.445 0 0.04 0.445 0 0.06 0.445 0 0.08 0.445 0 0.1 0.445 0 0 0.45 0 0.02 0.45 0 0.04 0.45 0 0.06 0.45 0 0.08 0.45 0 0.1 0.45 0 0 0.455 0 0.02 0.455 0 0.04 0.455 0 0.06 0.455 0 0.08 0.455 0 0.1 0.455 0 0 0.46 0 0.02 0.46 0 0.04 0.46 0 0.06 0.46 0 0.08 0.46 0 0.1 0.46 0 0 0.465 0 0.02 0.465 0 0.04 0.465 0 0.06 0.465 0 0.08 0.465 0 0.1 0.465 0 0 0.47 0 0.02 0.47 0 0.04 0.47 0 0.06 0.47 0 0.08 0.47 0 0.1 0.47 0 0 0.475 0 0.02 0.475 0 0.04 0.475 0 0.06 0.475 0 0.08 0.475 0 0.1 0.475 0 0 0.48 0 0.02 0.48 0 0.04 0.48 0 0.06 0.48 0 0.08 0.48 0 0.1 0.48 0 0 0.485 0 0.02 0.485 0 0.04 0.485 0 0.06 0.485 0 0.08 0.485 0 0.1 0.485 0 0 0.49 0 0.02 0.49 0 0.04 0.49 0 0.06 0.49 0 0.08 0.49 0 0.1 0.49 0 0 0.495 0 0.02 0.495 0 0.04 0.495 0 0.06 0.495 0 0.08 0.495 0 0.1 0.495 0 0 0.5 0 0.02 0.5 0 0.04 0.5 0 0.06 0.5 0 0.08 0.5 0 0.1 0.5 0 0 0.505 0 0.02 0.505 0 0.04 0.505 0 0.06 0.505 0 0.08 0.505 0 0.1 0.505 0 0 0.51 0 0.02 0.51 0 0.04 0.51 0 0.06 0.51 0 0.08 0.51 0 0.1 0.51 0 0 0.515 0 0.02 0.515 0 0.04 0.515 0 0.06 0.515 0 0.08 0.515 0 0.1 0.515 0 0 0.52 0 0.02 0.52 0 0.04 0.52 0 0.06 0.52 0 0.08 0.52 0 0.1 0.52 0 0 0.525 0 0.02 0.525 0 0.04 0.525 0 0.06 0.525 0 0.08 0.525 0 0.1 0.525 0 0 0.53 0 0.02 0.53 0 0.04 0.53 0 0.06 0.53 0 0.08 0.53 0 0.1 0.53 0 0 0.535 0 0.02 0.535 0 0.04 0.535 0 0.06 0.535 0 0.08 0.535 0 0.1 0.535 0 0 0.54 0 0.02 0.54 0 0.04 0.54 0 0.06 0.54 0 0.08 0.54 0 0.1 0.54 0 0 0.545 0 0.02 0.545 0 0.04 0.545 0 0.06 0.545 0 0.08 0.545 0 0.1 0.545 0 0 0.55 0 0.02 0.55 0 0.04 0.55 0 0.06 0.55 0 0.08 0.55 0 0.1 0.55 0 0 0.555 0 0.02 0.555 0 0.04 0.555 0 0.06 0.555 0 0.08 0.555 0 0.1 0.555 0 0 0.56 0 0.02 0.56 0 0.04 0.56 0 0.06 0.56 0 0.08 0.56 0 0.1 0.56 0 0 0.565 0 0.02 0.565 0 0.04 0.565 0 0.06 0.565 0 0.08 0.565 0 0.1 0.565 0 0 0.57 0 0.02 0.57 0 0.04 0.57 0 0.06 0.57 0 0.08 0.57 0 0.1 0.57 0 0 0.575 0 0.02 0.575 0 0.04 0.575 0 0.06 0.575 0 0.08 0.575 0 0.1 0.575 0 0 0.58 0 0.02 0.58 0 0.04 0.58 0 0.06 0.58 0 0.08 0.58 0 0.1 0.58 0 0 0.585 0 0.02 0.585 0 0.04 0.585 0 0.06 0.585 0 0.08 0.585 0 0.1 0.585 0 0 0.59 0 0.02 0.59 0 0.04 0.59 0 0.06 0.59 0 0.08 0.59 0 0.1 0.59 0 0 0.595 0 0.02 0.595 0 0.04 0.595 0 0.06 0.595 0 0.08 0.595 0 0.1 0.595 0 0 0.6 0 0.02 0.6 0 0.04 0.6 0 0.06 0.6 0 0.08 0.6 0 0.1 0.6 0 0 0.605 0 0.02 0.605 0 0.04 0.605 0 0.06 0.605 0 0.08 0.605 0 0.1 0.605 0 0 0.61 0 0.02 0.61 0 0.04 0.61 0 0.06 0.61 0 0.08 0.61 0 0.1 0.61 0 0 0.615 0 0.02 0.615 0 0.04 0.615 0 0.06 0.615 0 0.08 0.615 0 0.1 0.615 0 0 0.62 0 0.02 0.62 0 0.04 0.62 0 0.06 0.62 0 0.08 0.62 0 0.1 0.62 0 0 0.625 0 0.02 0.625 0 0.04 0.625 0 0.06 0.625 0 0.08 0.625 0 0.1 0.625 0 0 0.63 0 0.02 0.63 0 0.04 0.63 0 0.06 0.63 0 0.08 0.63 0 0.1 0.63 0 0 0.635 0 0.02 0.635 0 0.04 0.635 0 0.06 0.635 0 0.08 0.635 0 0.1 0.635 0 0 0.64 0 0.02 0.64 0 0.04 0.64 0 0.06 0.64 0 0.08 0.64 0 0.1 0.64 0 0 0.645 0 0.02 0.645 0 0.04 0.645 0 0.06 0.645 0 0.08 0.645 0 0.1 0.645 0 0 0.65 0 0.02 0.65 0 0.04 0.65 0 0.06 0.65 0 0.08 0.65 0 0.1 0.65 0 0 0.655 0 0.02 0.655 0 0.04 0.655 0 0.06 0.655 0 0.08 0.655 0 0.1 0.655 0 0 0.66 0 0.02 0.66 0 0.04 0.66 0 0.06 0.66 0 0.08 0.66 0 0.1 0.66 0 0 0.665 0 0.02 0.665 0 0.04 0.665 0 0.06 0.665 0 0.08 0.665 0 0.1 0.665 0 0 0.67 0 0.02 0.67 0 0.04 0.67 0 0.06 0.67 0 0.08 0.67 0 0.1 0.67 0 0 0.675 0 0.02 0.675 0 0.04 0.675 0 0.06 0.675 0 0.08 0.675 0 0.1 0.675 0 0 0.68 0 0.02 0.68 0 0.04 0.68 0 0.06 0.68 0 0.08 0.68 0 0.1 0.68 0 0 0.685 0 0.02 0.685 0 0.04 0.685 0 0.06 0.685 0 0.08 0.685 0 0.1 0.685 0 0 0.69 0 0.02 0.69 0 0.04 0.69 0 0.06 0.69 0 0.08 0.69 0 0.1 
[...]
			<PointData Scalars="VitesseX">
				<DataArray Name="VitesseX" type="Float32" format="ascii">
 0 3.51099e-14 6.7597e-14 6.68946e-14 3.08149e-14 0 0 4.16694e-14 6.01834e-14 7.22048e-14 2.68208e-14 0 0 4.74515e-14 5.36148e-14 7.26963e-14 2.4654e-14 0 0 3.97797e-14 6.33159e-14 5.58519e-14 3.01702e-14 0 0 3.17558e-14 6.22083e-14 5.39192e-14 3.06898e-14 0 0 3.68e-14 3.7964e-14 6.9989e-14 2.52353e-14 0 0 3.65111e-14 3.27565e-14 7.6472e-14 1.87298e-15 0 0 2.75391e-14 4.79824e-14 6.7904e-14 -1.27636e-14 0 0 2.27944e-14 6.13164e-14 5.12014e-14 -2.42419e-15 0 0 1.00959e-14 1.01973e-13 5.4164e-15 2.90681e-14 0 0 1.86923e-14 1.02922e-13 4.16589e-15 3.33185e-14 0 0 3.32733e-14 5.44314e-14 8.08829e-14 -2.34629e-14 0 0 3.69603e-14 2.24744e-14 1.37336e-13 -6.22407e-14 0 0 -4.43884e-15 9.1221e-14 6.58582e-14 -8.07189e-15 0 0 -1.65832e-14 1.42584e-13 -8.43227e-15 5.26162e-14 0 0 3.18616e-14 8.77398e-14 3.65847e-14 4.04358e-14 0 0 3.88007e-14 9.35295e-14 4.65675e-14 4.77705e-14 0 0 6.53588e-14 4.44173e-14 1.1129e-13 2.98458e-14 0 0 6.82873e-14 2.56536e-14 1.36187e-13 4.04965e-14 0 0 3.47927e-14 9.55079e-14 7.23991e-14 7.55088e-14 0 0 8.77357e-14 4.72661e-14 1.13896e-13 3.10443e-14 0 0 9.55725e-14 7.42079e-14 4.42139e-14 9.29127e-14 0 0 7.95466e-14 9.57753e-14 3.495e-14 9.28201e-14 0 0 6.88264e-14 1.08288e-13 6.95053e-14 2.907e-14 0 0 7.34121e-14 7.65444e-14 1.18319e-13 -1.04961e-14 0 0 8.83819e-14 2.27598e-14 1.48661e-13 -7.6913e-15 0 0 2.72094e-14 1.1557e-13 3.35063e-14 7.02905e-14 0 0 2.94113e-14 1.10604e-13 2.83045e-14 7.93005e-14 0 0 5.574e-14 8.96947e-14 6.13278e-14 3.93937e-14 0 0 7.39752e-14 9.4211e-14 1.04162e-13 -4.30868e-14 0 0 8.93789e-14 8.67149e-14 1.23284e-13 -1.02908e-13 0 0 7.72521e-14 1.04973e-13 8.28739e-14 -7.34895e-14 0 0 6.12467e-14 1.21395e-13 5.06206e-14 7.61637e-15 0 0 6.79028e-14 9.9072e-14 1.03005e-13 2.89479e-14 0 0 8.0836e-14 6.71122e-14 1.42266e-13 8.41963e-14 0 0 1.00577e-13 2.68851e-14 2.22626e-13 3.23736e-14 0 0 8.92795e-14 8.3707e-14 2.23629e-13 -2.06561e-14 0 0 3.13751e-14 1.93167e-13 1.03927e-13 9.71579e-14 0 0 2.76479e-14 2.37902e-13 2.67905e-14 1.53711e-13 0 0 7.42903e-14 2.07251e-13 9.36707e-14 -2.81134e-15 0 0 7.18625e-14 1.38983e-13 2.58663e-13 -2.14679e-13 0 0 -2.33242e-15 2.37378e-13 1.69375e-13 -1.58585e-13 0 0 -2.56792e-15 2.68984e-13 4.61992e-14 -1.79166e-14 0 0 1.18784e-14 2.19541e-13 1.34877e-14 3.15691e-14 0 0 -1.66473e-15 2.1094e-13 -2.79496e-14 9.00219e-14 0 0 2.40013e-14 1.64437e-13 3.33435e-14 9.906e-14 0 0 -6.93818e-15 2.1133e-13 9.36352e-14 6.41813e-14 0 0 -1.53473e-16 2.26815e-13 1.21702e-13 5.77831e-14 0 0 4.61536e-14 1.77215e-13 1.62499e-13 3.48517e-14 0 0 1.12095e-13 1.40838e-13 1.61558e-13 2.34789e-14 0 0 7.30139e-14 2.49486e-13 9.93992e-14 6.04886e-14 0 0 -3.96492e-14 3.68154e-13 1.04916e-13 7.00276e-14 0 0 -9.9258e-15 3.5508e-13 2.29024e-13 -2.85186e-14 0 0 -1.48948e-14 3.85625e-13 2.73059e-13 -1.06445e-13 0 0 2.56781e-14 2.67006e-13 3.44181e-13 -1.35695e-13 0 0 1.14958e-13 7.32288e-14 5.24688e-13 -1.39415e-13 0 0 -6.70121e-14 2.82564e-13 4.7659e-13 4.35887e-14 0 0 -9.00977e-14 5.24447e-13 4.77714e-13 2.10773e-13 0 0 2.43832e-13 6.23191e-13 8.39301e-13 2.67392e-13 0 0 6.29049e-13 1.21976e-12 1.36224e-12 6.96315e-13 0 0 1.43949e-12 2.41644e-12 2.64383e-12 1.53887e-12 0 0 2.85076e-12 4.95011e-12 5.02646e-12 2.98503e-12 0 0 5.29993e-12 9.25073e-12 8.89717e-12 5.5046e-12 0 0 9.16107e-12 1.51623e-11 1.48686e-11 9.14944e-12 0 0 1.40355e-11 2.28195e-11 2.2636e-11 1.38985e-11 0 0 1.9675e-11 3.17112e-11 3.16188e-11 1.94576e-11 0 0 2.56088e-11 4.1086e-11 4.10003e-11 2.53572e-11 0 0 3.12155e-11 5.01059e-11 4.99769e-11 3.09072e-11 0 0 3.60102e-11 5.79697e-11 5.77966e-11 3.5495e-11 0 0 3.97484e-11 6.38909e-11 6.36171e-11 3.88851e-11 0 0 4.1998e-11 6.77144e-11 6.66711e-11 4.11501e-11 0 0 4.26864e-11 6.88552e-11 6.732e-11 4.17268e-11 0 0 4.15482e-11 6.66613e-11 6.56393e-11 4.01088e-11 0 0 3.86807e-11 6.21687e-11 6.09598e-11 3.73419e-11 0 0 3.40014e-11 5.46947e-11 5.31691e-11 3.30533e-11 0 0 2.77324e-11 4.37336e-11 4.39297e-11 2.63207e-11 0 0 1.93703e-11 3.1041e-11 3.11413e-11 1.93778e-11 0 0 9.24484e-12 1.61539e-11 1.61538e-11 1.13371e-11 0 0 -2.12614e-12 -1.47338e-12 -6.7407e-14 1.51115e-12 0 0 -1.49477e-11 -2.05085e-11 -1.81838e-11 -8.8268e-12 0 0 -2.85189e-11 -4.18025e-11 -3.67537e-11 -2.05648e-11 0 0 -4.33303e-11 -6.39864e-11 -5.71484e-11 -3.25639e-11 0 0 -5.85961e-11 -8.69421e-11 -7.81245e-11 -4.48435e-11 0 0 -7.47822e-11 -1.10798e-10 -1.00725e-10 -5.68713e-11 0 0 -9.0601e-11 -1.34673e-10 -1.23052e-10 -6.94747e-11 0 0 -1.06463e-10 -1.59875e-10 -1.45694e-10 -8.26668e-11 0 0 -1.22145e-10 -1.84803e-10 -1.68239e-10 -9.58755e-11 0 0 -1.37494e-10 -2.09034e-10 -1.90841e-10 -1.09118e-10 0 0 -1.52409e-10 -2.32489e-10 -2.13974e-10 -1.22897e-10 0 0 -1.66623e-10 -2.55142e-10 -2.36952e-10 -1.36682e-10 0 0 -1.79772e-10 -2.76849e-10 -2.59453e-10 -1.50798e-10 0 0 -1.91615e-10 -2.97419e-10 -2.81389e-10 -1.65139e-10 0 0 -2.02088e-10 -3.16682e-10 -3.02915e-10 -1.80475e-10 0 0 -2.11216e-10 -3.34603e-10 -3.24364e-10 -1.96153e-10 0 0 -2.18747e-10 -3.51681e-10 -3.46074e-10 -2.09742e-10 0 0 -2.24458e-10 -3.66475e-10 -3.67315e-10 -2.29042e-10 0 0 -2.10575e-10 -3.95051e-10 -4.00233e-10 -2.18057e-10 0 0 -1.54694e-10 -4.59098e-10 -4.5625e-10 -1.68246e-10 0 0 -2.85623e-10 -4.54788e-10 -4.95665e-10 -2.07691e-10 0 0 -3.38076e-09 9.86815e-10 2.05673e-09 -3.771e-09 0 0 -7.43074e-09 3.46265e-09 4.92775e-09 -8.045e-09 0 0 -3.76135e-09 2.0003e-09 1.56476e-09 -3.5114e-09 0 0 -1.33862e-09 7.48223e-10 2.57625e-10 -1.2805e-09 0 0 2.80558e-09 -1.82538e-09 -1.38556e-09 1.88788e-09 0 0 1.4136e-08 -8.42265e-09 -8.20312e-09 1.28126e-08 0 0 2.38337e-08 -1.29689e-08 -1.62205e-08 2.43124e-08 0 0 2.34566e-08 -1.25416e-08 -1.6421e-08 2.44483e-08 0 0 1.68362e-08 -9.16603e-09 -1.07839e-08 1.68543e-08 0 0 1.46651e-09 -8.98101e-10 1.12061e-09 -2.55414e-10 0 0 -8.67522e-09 5.94749e-09 5.44841e-09 -7.9934e-09 0 0 -1.16342e-08 7.84879e-09 6.35059e-09 -1.02242e-08 0 0 -1.27014e-08 7.72679e-09 8.98686e-09 -1.30324e-08 0 0 -1.17398e-08 6.01827e-09 8.96496e-09 -1.26693e-08 0 0 -7.20671e-09 2.97453e-09 6.26748e-09 -8.77623e-09 0 0 -1.24897e-09 1.79057e-11 1.34303e-09 -1.46242e-09 0 0 4.02306e-09 -2.06499e-09 -3.1706e-09 5.10894e-09 0 0 4.86714e-09 -2.17857e-09 -3.93326e-09 6.0122e-09 0 0 4.40177e-09 -1.60225e-09 -3.69752e-09 5.6209e-09 0 0 2.61846e-09 -1.09821e-09 -1.34015e-09 2.64531e-09 0 0 8.29427e-10 -8.96932e-10 1.63251e-09 -1.08155e-09 0 0 -6.98843e-10 -2.78404e-10 1.62519e-09 -1.28348e-09 0 0 -9.30113e-10 7.81761e-11 1.13622e-09 -1.08904e-09 0 0 -6.96483e-10 -9.60755e-11 9.62734e-10 -9.64902e-10 0 0 -4.20625e-10 -1.43648e-10 7.68315e-10 -8.0049e-10 0 0 -3.94453e-10 3.10665e-10 -1.20301e-10 -1.79183e-10 0 0 -3.57261e-10 6.21105e-10 -1.05424e-09 5.18612e-10 0 0 -1.76585e-10 4.15415e-10 -1.07217e-09 8.17008e-10 0 0 -4.88305e-11 4.02128e-10 -1.23556e-09 1.21893e-09 0 0 2.80304e-10 3.61609e-10 -1.34802e-09 1.35762e-09 0 0 1.06566e-09 -9.07127e-10 2.76587e-10 1.8901e-10 0 0 1.08916e-09 -1.29646e-09 8.42142e-10 -3.79648e-10 0 0 8.04172e-10 -8.97067e-10 1.04458e-09 -6.69821e-10 0 0 6.90194e-10 -1.00048e-09 2.08072e-09 -1.57513e-09 0 0 5.26465e-10 -9.3981e-10 2.64834e-09 -2.21694e-09 0 0 -3.67135e-11 -2.80281e-10 2.45283e-09 -2.21203e-09 0 0 -6.40977e-10 5.53612e-10 1.68629e-09 -2.00651e-09 0 0 -9.47131e-10 9.71439e-10 7.98004e-10 -1.42816e-09 0 0 -9.41631e-10 9.75209e-10 1.03568e-10 -8.83738e-10 0 0 -6.46571e-10 7.44919e-10 -4.80405e-11 -4.05603e-10 0 0 -1.5195e-10 2.98877e-10 -1.36092e-10 2.0231e-14 0 0 1.42114e-10 5.70743e-12 -2.12707e-10 1.88975e-10 0 0 2.35346e-10 -1.10152e-10 -2.47948e-10 2.50585e-10 0 0 2.37583e-10 -1.3465e-10 -2.36534e-10 2.46442e-10 0 0 1.66409e-10 -1.00881e-10 -1.6698e-10 1.5705e-10 0 0 7.07402e-11 -2.18667e-11 -9.13141e-11 6.63011e-11 0 0 3.41385e-11 3.61957e-11 -3.41559e-11 2.96187e-11 0 0 1.61083e-11 7.49401e-11 -4.67042e-12 2.00354e-11 0 0 2.25082e-11 6.3305e-11 6.12024e-11 -1.67634e-11 0 0 3.81509e-11 5.37572e-11 1.04247e-10 -3.17374e-11 0 0 4.77573e-11 5.40676e-11 1.07314e-10 -2.62288e-11 0 0 5.43153e-11 5.7014e-11 1.03384e-10 8.00449e-13 0 0 4.93254e-11 8.04397e-11 7.1471e-11 5.08193e-11 0 0 5.23884e-11 7.95092e-11 7.51867e-11 5.57228e-11 0 0 5.22193e-11 8.03135e-11 7.50762e-11 6.50019e-11 0 0 5.26629e-11 7.52471e-11 8.31137e-11 6.18307e-11 0 0 4.83889e-11 7.25223e-11 8.2519e-11 5.58854e-11 0 0 4.19492e-11 6.77741e-11 7.37984e-11 4.87198e-11 0 0 3.53118e-11 5.83215e-11 6.12389e-11 3.99397e-11 0 0 2.77484e-11 4.60389e-11 4.77907e-11 3.04337e-11 0 0 1.98674e-11 3.28559e-11 3.38035e-11 2.12518e-11 0 0 1.26058e-11 2.07119e-11 2.10523e-11 1.3377e-11 0 0 6.82559e-12 1.13739e-11 1.13928e-11 7.33296e-12 0 0 3.09759e-12 5.30878e-12 5.44231e-12 3.34417e-12 0 0 1.21246e-12 2.09918e-12 2.39429e-12 1.25703e-12 0 0 3.26876e-13 9.14677e-13 8.28433e-13 5.72951e-13 0 0 -2.3013e-14 4.5789e-13 2.70738e-13 3.14249e-13 0 0 -1.60129e-13 2.49991e-13 9.51468e-14 3.03203e-13 0 0 -1.93319e-13 1.68578e-13 2.65635e-15 3.33708e-13 0 0 -2.05919e-13 1.48658e-13 -1.47674e-14 2.61595e-13 0 0 -2.50979e-13 1.10263e-13 1.19217e-14 2.87809e-13 0 0 -2.10563e-13 -8.14377e-15 6.93422e-14 3.23283e-13 0 0 -1.75347e-13 -7.34132e-14 1.36078e-13 2.21478e-13 0 0 -1.99055e-13 -8.66574e-14 1.46192e-13 2.1069e-13 0 0 -2.15465e-13 -6.77477e-14 6.96402e-14 2.52924e-13 0 0 -1.26208e-13 -7.89202e-14 -4.46728e-14 3.16815e-13 0 0 -5.53265e-14 -1.09526e-13 -1.53145e-14 3.07659e-13 0 0 6.33329e-14 -2.92528e-13 3.61222e-13 -2.42037e-14 0 0 -1.41722e-14 -5.71406e-14 2.78338e-13 -7.35015e-14 0 0 -5.70446e-14 8.14622e-14 2.75593e-13 -1.1698e-13 0 0 1.37008e-13 -1.46068e-13 5.22232e-13 -2.47828e-13 0 0 1.2603e-13 9.19134e-15 2.8372e-13 4.36722e-14 0 0 2.11149e-13 -8.15506e-14 3.74301e-13 1.41096e-13 0 0 1.86098e-13 8.77498e-15 3.1818e-13 2.65617e-13 0 0 8.15309e-14 2.05451e-13 1.91559e-13 3.42933e-13 0 0 1.09262e-13 1.53158e-13 3.67719e-13 1.80453e-13 0 0 9.99005e-14 2.33046e-13 1.92402e-13 3.78783e-13 0 0 2.97102e-13 4.82477e-14 1.30297e-13 5.72894e-13 0 0 2.18435e-13 1.56168e-13 4.40271e-14 5.75021e-13 0 0 1.98349e-13 1.21494e-13 9.1531e-14 4.75975e-13 0 0 5.45528e-14 1.84617e-13 6.02477e-14 4.57094e-13 0 0 1.86545e-14 6.69876e-14 3.14897e-13 2.14927e-13 0 0 1.49366e-13 4.5635e-14 1.94923e-13 3.34228e-13 0 0 1.90409e-13 -5.77492e-14 3.05512e-13 2.95238e-13 0 0 -7.57889e-14 2.43371e-13 -2.08752e-14 4.13799e-13 0 0 -2.51616e-13 4.75678e-13 -4.2626e-13 5.79283e-13 0 0 -7.95439e-14 7.59782e-14 -3.66251e-14 2.08539e-13 0 0 -1.46201e-13 8.56647e-14 -9.13682e-14 2.31149e-13 0 0 3.84582e-13 -7.56639e-13 5.91335e-13 -1.4584e-13 0 0 2.74047e-13 -5.81374e-13 3.17676e-13 -1.07856e-15 0 0 -2.55431e-14 -2.21761e-13 -1.47607e-13 4.44614e-13 0 0 1.76968e-13 -5.65554e-13 6.03847e-14 4.58733e-13 0
				</DataArray>
				<DataArray Name="VitesseY" type="Float32" format="ascii">