<?xml version="1.0"?>
<VTKFile type="PolyData">
	<PolyData>
		<Piece NumberOfPoints="1206" NumberOfPolys="1000">
			<Points>
				<DataArray type="Float32" NumberOfComponents="3" format="ascii">
 0 0 0 0.02 0 0 0.04 0 0 0.06 0 0 0.08 0 0 0.1 0 0 0 0.005 0 0.02 0.005 0 0.04 0.005 0 0.06 0.005 0 0.08 0.005 0 0.1 0.005 0 0 0.01 0 0.02 0.01 0 0.04 0.01 0 0.06 0.01 0 0.08 0.01 0 0.1 0.01 0 0 0.015 0 0.02 0.015 0 0.04 0.015 0 0.06 0.015 0 0.08 0.015 0 0.1 0.015 0 0 0.02 0 0.02 0.02 0 0.04 0.02 0 0.06 0.02 0 0.08 0.02 0 0.1 0.02 0 0 0.025 0 0.02 0.025 0 0.04 0.025 0 0.06 0.025 0 0.08 0.025 0 0.1 0.025 0 0 0.03 0 0.02 0.03 0 0.04 0.03 0 0.06 0.03 0 0.08 0.03 0 0.1 0.03 0 0 0.035 0 0.02 0.035 0 0.04 0.035 0 0.06 0.035 0 0.08 0.035 0 0.1 0.035 0 0 0.04 0 0.02 0.04 0 0.04 0.04 0 0.06 0.04 0 0.08 0.04 0 0.1 0.04 0 0 0.045 0 0.02 0.045 0 0.04 0.045 0 0.06 0.045 0 0.08 0.045 0 0.1 0.045 0 0 0.05 0 0.02 0.05 0 0.04 0.05 0 0.06 0.05 0 0.08 0.05 0 0.1 0.05 0 0 0.055 0 0.02 0.055 0 0.04 0.055 0 0.06 0.055 0 0.08 0.055 0 0.1 0.055 0 0 0.06 0 0.02 0.06 0 0.04 0.06 0 0.06 0.06 0 0.08 0.06 0 0.1 0.06 0 0 0.065 0 0.02 0.065 0 0.04 0.065 0 0.06 0.065 0 0.08 0.065 0 0.1 0.065 0 0 0.07 0 0.02 0.07 0 0.04 0.07 0 0.06 0.07 0 0.08 0.07 0 0.1 0.07 0 0 0.075 0 0.02 0.075 0 0.04 0.075 0 0.06 0.075 0 0.08 0.075 0 0.1 0.075 0 0 0.08 0 0.02 0.08 0 0.04 0.08 0 0.06 0.08 0 0.08 0.08 0 0.1 0.08 0 0 0.085 0 0.02 0.085 0 0.04 0.085 0 0.06 0.085 0 0.08 0.085 0 0.1 0.085 0 0 0.09 0 0.02 0.09 0 0.04 0.09 0 0.06 0.09 0 0.08 0.09 0 0.1 0.09 0 0 0.095 0 0.02 0.095 0 0.04 0.095 0 0.06 0.095 0 0.08 0.095 0 0.1 0.095 0 0 0.1 0 0.02 0.1 0 0.04 0.1 0 0.06 0.1 0 0.08 0.1 0 0.1 0.1 0 0 0.105 0 0.02 0.105 0 0.04 0.105 0 0.06 0.105 0 0.08 0.105 0 0.1 0.105 0 0 0.11 0 0.02 0.11 0 0.04 0.11 0 0.06 0.11 0 0.08 0.11 0 0.1 0.11 0 0 0.115 0 0.02 0.115 0 0.04 0.115 0 0.06 0.115 0 0.08 0.115 0 0.1 0.115 0 0 0.12 0 0.02 0.12 0 0.04 0.12 0 0.06 0.12 0 0.08 0.12 0 0.1 0.12 0 0 0.125 0 0.02 0.125 0 0.04 0.125 0 0.06 0.125 0 0.08 0.125 0 0.1 0.125 0 0 0.13 0 0.02 0.13 0 0.04 0.13 0 0.06 0.13 0 0.08 0.13 0 0.1 0.13 0 0 0.135 0 0.02 0.135 0 0.04 0.135 0 0.06 0.135 0 0.08 0.135 0 0.1 0.135 0 0 0.14 0 0.02 0.14 0 0.04 0.14 0 0.06 0.14 0 0.08 0.14 0 0.1 0.14 0 0 0.145 0 0.02 0.145 0 0.04 0.145 0 0.06 0.145 0 0.08 0.145 0 0.1 0.145 0 0 0.15 0 0.02 0.15 0 0.04 0.15 0 0.06 0.15 0 0.08 0.15 0 0.1 0.15 0 0 0.155 0 0.02 0.155 0 0.04 0.155 0 0.06 0.155 0 0.08 0.155 0 0.1 0.155 0 0 0.16 0 0.02 0.16 0 0.04 0.16 0 0.06 0.16 0 0.08 0.16 0 0.1 0.16 0 0 0.165 0 0.02 0.165 0 0.04 0.165 0 0.06 0.165 0 0.08 0.165 0 0.1 0.165 0 0 0.17 0 0.02 0.17 0 0.04 0.17 0 0.06 0.17 0 0.08 0.17 0 0.1 0.17 0 0 0.175 0 0.02 0.175 0 0.04 0.175 0 0.06 0.175 0 0.08 0.175 0 0.1 0.175 0 0 0.18 0 0.02 0.18 0 0.04 0.18 0 0.06 0.18 0 0.08 0.18 0 0.1 0.18 0 0 0.185 0 0.02 0.185 0 0.04 0.185 0 0.06 0.185 0 0.08 0.185 0 0.1 0.185 0 0 0.19 0 0.02 0.19 0 0.04 0.19 0 0.06 0.19 0 0.08 0.19 0 0.1 0.19 0 0 0.195 0 0.02 0.195 0 0.04 0.195 0 0.06 0.195 0 0.08 0.195 0 0.1 0.195 0 0 0.2 0 0.02 0.2 0 0.04 0.2 0 0.06 0.2 0 0.08 0.2 0 0.1 0.2 0 0 0.205 0 0.02 0.205 0 0.04 0.205 0 0.06 0.205 0 0.08 0.205 0 0.1 0.205 0 0 0.21 0 0.02 0.21 0 0.04 0.21 0 0.06 0.21 0 0.08 0.21 0 0.1 0.21 0 0 0.215 0 0.02 0.215 0 0.04 0.215 0 0.06 0.215 0 0.08 0.215 0 0.1 0.215 0 0 0.22 0 0.02 0.22 0 0.04 0.22 0 0.06 0.22 0 0.08 0.22 0 0.1 0.22 0 0 0.225 0 0.02 0.225 0 0.04 0.225 0 0.06 0.225 0 0.08 0.225 0 0.1 0.225 0 0 0.23 0 0.02 0.23 0 0.04 0.23 0 0.06 0.23 0 0.08 0.23 0 0.1 0.23 0 0 0.235 0 0.02 0.235 0 0.04 0.235 0 0.06 0.235 0 0.08 0.235 0 0.1 0.235 0 0 0.24 0 0.02 0.24 0 0.04 0.24 0 0.06 0.24 0 0.08 0.24 0 0.1 0.24 0 0 0.245 0 0.02 0.245 0 0.04 0.245 0 0.06 0.245 0 0.08 0.245 0 0.1 0.245 0 0 0.25 0 0.02 0.25 0 0.04 0.25 0 0.06 0.25 0 0.08 0.25 0 0.1 0.25 0 0 0.255 0 0.02 0.255 0 0.04 0.255 0 0.06 0.255 0 0.08 0.255 0 0.1 0.255 0 0 0.26 0 0.02 0.26 0 0.04 0.26 0 0.06 0.26 0 0.08 0.26 0 0.1 0.26 0 0 0.265 0 0.02 0.265 0 0.04 0.265 0 0.06 0.265 0 0.08 0.265 0 0.1 0.265 0 0 0.27 0 0.02 0.27 0 0.04 0.27 0 0.06 0.27 0 0.08 0.27 0 0.1 0.27 0 0 0.275 0 0.02 0.275 0 0.04 0.275 0 0.06 0.275 0 0.08 0.275 0 0.1 0.275 0 0 0.28 0 0.02 0.28 0 0.04 0.28 0 0.06 0.28 0 0.08 0.28 0 0.1 0.28 0 0 0.285 0 0.02 0.285 0 0.04 0.285 0 0.06 0.285 0 0.08 0.285 0 0.1 0.285 0 0 0.29 0 0.02 0.29 0 0.04 0.29 0 0.06 0.29 0 0.08 0.29 0 0.1 0.29 0 0 0.295 0 0.02 0.295 0 0.04 0.295 0 0.06 0.295 0 0.08 0.295 0 0.1 0.295 0 0 0.3 0 0.02 0.3 0 0.04 0.3 0 0.06 0.3 0 0.08 0.3 0 0.1 0.3 0 0 0.305 0 0.02 0.305 0 0.04 0.305 0 0.06 0.305 0 0.08 0.305 0 0.1 0.305 0 0 0.31 0 0.02 0.31 0 0.04 0.31 0 0.06 0.31 0 0.08 0.31 0 0.1 0.31 0 0 0.315 0 0.02 0.315 0 0.04 0.315 0 0.06 0.315 0 0.08 0.315 0 0.1 0.315 0 0 0.32 0 0.02 0.32 0 0.04 0.32 0 0.06 0.32 0 0.08 0.32 0 0.1 0.32 0 0 0.325 0 0.02 0.325 0 0.04 0.325 0 0.06 0.325 0 0.08 0.325 0 0.1 0.325 0 0 0.33 0 0.02 0.33 0 0.04 0.33 0 0.06 0.33 0 0.08 0.33 0 0.1 0.33 0 0 0.335 0 0.02 0.335 0 0.04 0.335 0 0.06 0.335 0 0.08 0.335 0 0.1 0.335 0 0 0.34 0 0.02 0.34 0 0.04 0.34 0 0.06 0.34 0 0.08 0.34 0 0.1 0.34 0 0 0.345 0 0.02 0.345 0 0.04 0.345 0 0.06 0.345 0 0.08 0.345 0 0.1 0.345 0 0 0.35 0 0.02 0.35 0 0.04 0.35 0 0.06 0.35 0 0.08 0.35 0 0.1 0.35 0 0 0.355 0 0.02 0.355 0 0.04 0.355 0 0.06 0.355 0 0.08 0.355 0 0.1 0.355 0 0 0.36 0 0.02 0.36 0 0.04 0.36 0 0.06 0.36 0 0.08 0.36 0 0.1 0.36 0 0 0.365 0 0.02 0.365 0 0.04 0.365 0 0.06 0.365 0 0.08 0.365 0 0.1 0.365 0 0 0.37 0 0.02 0.37 0 0.04 0.37 0 0.06 0.37 0 0.08 0.37 0 0.1 0.37 0 0 0.375 0 0.02 0.375 0 0.04 0.375 0 0.06 0.375 0 0.08 0.375 0 0.1 0.375 0 0 0.38 0 0.02 0.38 0 0.04 0.38 0 0.06 0.38 0 0.08 0.38 0 0.1 0.38 0 0 0.385 0 0.02 0.385 0 0.04 0.385 0 0.06 0.385 0 0.08 0.385 0 0.1 0.385 0 0 0.39 0 0.02 0.39 0 0.04 0.39 0 0.06 0.39 0 0.08 0.39 0 0.1 0.39 0 0 0.395 0 0.02 0.395 0 0.04 0.395 0 0.06 0.395 0 0.08 0.395 0 0.1 0.395 0 0 0.4 0 0.02 0.4 0 0.04 0.4 0 0.06 0.4 0 0.08 0.4 0 0.1 0.4 0 0 0.405 0 0.02 0.405 0 0.04 0.405 0 0.06 0.405 0 0.08 0.405 0 0.1 0.405 0 0 0.41 0 0.02 0.41 0 0.04 0.41 0 0.06 0.41 0 0.08 0.41 0 0.1 0.41 0 0 0.415 0 0.02 0.415 0 0.04 0.415 0 0.06 0.415 0 0.08 0.415 0 0.1 0.415 0 0 0.42 0 0.02 0.42 0 0.04 0.42 0 0.06 0.42 0 0.08 0.42 0 0.1 0.42 0 0 0.425 0 0.02 0.425 0 0.04 0.425 0 0.06 0.425 0 0.08 0.425 0 0.1 0.425 0 0 0.43 0 0.02 0.43 0 0.04 0.43 0 0.06 0.43 0 0.08 0.43 0 0.1 0.43 0 0 0.435 0 0.02 0.435 0 0.04 0.435 0 0.06 0.435 0 0.08 0.435 0 0.1 0.435 0 0 0.44 0 0.02 0.44 0 0.04 0.44 0 0.06 0.44 0 0.08 0.44 0 0.1 0.44 0 0 0.445 0 0.02 0.445 0 0.04 0.445 0 0.06 0.445 0 0.08 0.445 0 0.1 0.445 0 0 0.45 0 0.02 0.45 0 0.04 0.45 0 0.06 0.45 0 0.08 0.45 0 0.1 0.45 0 0 0.455 0 0.02 0.455 0 0.04 0.455 0 0.06 0.455 0 0.08 0.455 0 0.1 0.455 0 0 0.46 0 0.02 0.46 0 0.04 0.46 0 0.06 0.46 0 0.08 0.46 0 0.1 0.46 0 0 0.465 0 0.02 0.465 0 0.04 0.465 0 0.06 0.465 0 0.08 0.465 0 0.1 0.465 0 0 0.47 0 0.02 0.47 0 0.04 0.47 0 0.06 0.47 0 0.08 0.47 0 0.1 0.47 0 0 0.475 0 0.02 0.475 0 0.04 0.475 0 0.06 0.475 0 0.08 0.475 0 0.1 0.475 0 0 0.48 0 0.02 0.48 0 0.04 0.48 0 0.06 0.48 0 0.08 0.48 0 0.1 0.48 0 0 0.485 0 0.02 0.485 0 0.04 0.485 0 0.06 0.485 0 0.08 0.485 0 0.1 0.485 0 0 0.49 0 0.02 0.49 0 0.04 0.49 0 0.06 0.49 0 0.08 0.49 0 0.1 0.49 0 0 0.495 0 0.02 0.495 0 0.04 0.495 0 0.06 0.495 0 0.08 0.495 0 0.1 0.495 0 0 0.5 0 0.02 0.5 0 0.04 0.5 0 0.06 0.5 0 0.08 0.5 0 0.1 0.5 0 0 0.505 0 0.02 0.505 0 0.04 0.505 0 0.06 0.505 0 0.08 0.505 0 0.1 0.505 0 0 0.51 0 0.02 0.51 0 0.04 0.51 0 0.06 0.51 0 0.08 0.51 0 0.1 0.51 0 0 0.515 0 0.02 0.515 0 0.04 0.515 0 0.06 0.515 0 0.08 0.515 0 0.1 0.515 0 0 0.52 0 0.02 0.52 0 0.04 0.52 0 0.06 0.52 0 0.08 0.52 0 0.1 0.52 0 0 0.525 0 0.02 0.525 0 0.04 0.525 0 0.06 0.525 0 0.08 0.525 0 0.1 0.525 0 0 0.53 0 0.02 0.53 0 0.04 0.53 0 0.06 0.53 0 0.08 0.53 0 0.1 0.53 0 0 0.535 0 0.02 0.535 0 0.04 0.535 0 0.06 0.535 0 0.08 0.535 0 0.1 0.535 0 0 0.54 0 0.02 0.54 0 0.04 0.54 0 0.06 0.54 0 0.08 0.54 0 0.1 0.54 0 0 0.545 0 0.02 0.545 0 0.04 0.545 0 0.06 0.545 0 0.08 0.545 0 0.1 0.545 0 0 0.55 0 0.02 0.55 0 0.04 0.55 0 0.06 0.55 0 0.08 0.55 0 0.1 0.55 0 0 0.555 0 0.02 0.555 0 0.04 0.555 0 0.06 0.555 0 0.08 0.555 0 0.1 0.555 0 0 0.56 0 0.02 0.56 0 0.04 0.56 0 0.06 0.56 0 0.08 0.56 0 0.1 0.56 0 0 0.565 0 0.02 0.565 0 0.04 0.565 0 0.06 0.565 0 0.08 0.565 0 0.1 0.565 0 0 0.57 0 0.02 0.57 0 0.04 0.57 0 0.06 0.57 0 0.08 0.57 0 0.1 0.57 0 0 0.575 0 0.02 0.575 0 0.04 0.575 0 0.06 0.575 0 0.08 0.575 0 0.1 0.575 0 0 0.58 0 0.02 0.58 0 0.04 0.58 0 0.06 0.58 0 0.08 0.58 0 0.1 0.58 0 0 0.585 0 0.02 0.585 0 0.04 0.585 0 0.06 0.585 0 0.08 0.585 0 0.1 0.585 0 0 0.59 0 0.02 0.59 0 0.04 0.59 0 0.06 0.59 0 0.08 0.59 0 0.1 0.59 0 0 0.595 0 0.02 0.595 0 0.04 0.595 0 0.06 0.595 0 0.08 0.595 0 0.1 0.595 0 0 0.6 0 0.02 0.6 0 0.04 0.6 0 0.06 0.6 0 0.08 0.6 0 0.1 0.6 0 0 0.605 0 0.02 0.605 0 0.04 0.605 0 0.06 0.605 0 0.08 0.605 0 0.1 0.605 0 0 0.61 0 0.02 0.61 0 0.04 0.61 0 0.06 0.61 0 0.08 0.61 0 0.1 0.61 0 0 0.615 0 0.02 0.615 0 0.04 0.615 0 0.06 0.615 0 0.08 0.615 0 0.1 0.615 0 0 0.62 0 0.02 0.62 0 0.04 0.62 0 0.06 0.62 0 0.08 0.62 0 0.1 0.62 0 0 0.625 0 0.02 0.625 0 0.04 0.625 0 0.06 0.625 0 0.08 0.625 0 0.1 0.625 0 0 0.63 0 0.02 0.63 0 0.04 0.63 0 0.06 0.63 0 0.08 0.63 0 0.1 0.63 0 0 0.635 0 0.02 0.635 0 0.04 0.635 0 0.06 0.635 0 0.08 0.635 0 0.1 0.635 0 0 0.64 0 0.02 0.64 0 0.04 0.64 0 0.06 0.64 0 0.08 0.64 0 0.1 0.64 0 0 0.645 0 0.02 0.645 0 0.04 0.645 0 0.06 0.645 0 0.08 0.645 0 0.1 0.645 0 0 0.65 0 0.02 0.65 0 0.04 0.65 0 0.06 0.65 0 0.08 0.65 0 0.1 0.65 0 0 0.655 0 0.02 0.655 0 0.04 0.655 0 0.06 0.655 0 0.08 0.655 0 0.1 0.655 0 0 0.66 0 0.02 0.66 0 0.04 0.66 0 0.06 0.66 0 0.08 0.66 0 0.1 0.66 0 0 0.665 0 0.02 0.665 0 0.04 0.665 0 0.06 0.665 0 0.08 0.665 0 0.1 0.665 0 0 0.67 0 0.02 0.67 0 0.04 0.67 0 0.06 0.67 0 0.08 0.67 0 0.1 0.67 0 0 0.675 0 0.02 0.675 0 0.04 0.675 0 0.06 0.675 0 0.08 0.675 0 0.1 0.675 0 0 0.68 0 0.02 0.68 0 0.04 0.68 0 0.06 0.68 0 0.08 0.68 0 0.1 0.68 0 0 0.685 0 0.02 0.685 0 0.04 0.685 0 0.06 0.685 0 0.08 0.685 0 0.1 0.685 0 0 0.69 0 0.02 0.69 0 0.04 0.69 0 0.06 0.69 0 0.08 0.69 0 0.1 
[...]
			<PointData Scalars="VitesseX">
				<DataArray Name="VitesseX" type="Float32" format="ascii">
 0 3.67804e-14 7.13015e-14 4.48524e-14 3.08552e-14 0 0 3.85914e-14 6.84781e-14 4.62571e-14 3.0385e-14 0 0 4.35557e-14 6.14095e-14 4.98511e-14 3.19592e-14 0 0 4.37586e-14 5.22951e-14 5.75843e-14 2.98267e-14 0 0 3.43951e-14 4.86822e-14 5.82489e-14 3.46905e-14 0 0 2.87841e-14 3.67497e-14 6.51772e-14 3.28383e-14 0 0 2.87055e-14 2.4609e-14 7.93364e-14 1.55198e-14 0 0 2.36641e-14 3.12125e-14 7.20818e-14 1.65172e-14 0 0 1.23855e-14 4.32659e-14 6.02022e-14 2.91125e-14 0 0 -7.23367e-15 6.89976e-14 2.72641e-14 6.60771e-14 0 0 -1.66156e-14 7.27009e-14 1.63803e-14 8.61597e-14 0 0 1.83013e-14 2.91396e-15 1.05148e-13 1.23582e-14 0 0 2.57844e-14 -8.85831e-15 1.33883e-13 -3.58606e-14 0 0 -3.5499e-14 1.07587e-13 1.83685e-14 1.59763e-14 0 0 -4.28734e-14 1.43656e-13 -3.81989e-14 5.92554e-14 0 0 2.71387e-15 7.64244e-14 1.57514e-14 4.8814e-14 0 0 4.97328e-14 1.33383e-14 7.6413e-14 3.37862e-14 0 0 7.47419e-14 1.52687e-14 7.07551e-14 5.19126e-14 0 0 6.20738e-14 7.9008e-14 -1.51568e-14 1.25285e-13 0 0 6.28948e-14 8.68707e-14 -1.55492e-14 1.22302e-13 0 0 8.54793e-14 3.8285e-14 7.94959e-14 3.11808e-14 0 0 4.42085e-14 1.23995e-13 -5.23059e-15 6.03684e-14 0 0 2.40236e-14 1.68017e-13 -2.62396e-14 3.11675e-14 0 0 9.02409e-14 4.23145e-14 1.11199e-13 -4.44545e-14 0 0 1.09007e-13 1.228e-14 1.1329e-13 -1.87846e-14 0 0 1.06711e-13 1.68856e-14 1.21607e-13 -2.78556e-14 0 0 6.92292e-14 1.05098e-13 5.33569e-14 1.13982e-14 0 0 3.67423e-14 1.83258e-13 -4.31069e-14 8.73931e-14 0 0 1.93016e-14 1.8652e-13 -4.5182e-14 8.9638e-14 0 0 6.60636e-14 8.82206e-14 9.81038e-14 -1.81537e-14 0 0 1.42998e-13 1.01032e-14 1.71654e-13 -5.18914e-14 0 0 1.58074e-13 7.31888e-14 7.73556e-14 -1.37125e-14 0 0 1.63453e-13 1.06997e-13 1.68871e-14 3.29227e-14 0 0 1.24811e-13 1.50765e-13 -5.48144e-14 1.58924e-13 0 0 8.23791e-14 1.48497e-13 -1.74249e-14 1.95642e-13 0 0 8.73926e-14 6.64029e-14 1.82235e-13 2.92256e-14 0 0 7.87763e-14 4.63593e-14 3.23874e-13 -1.71752e-13 0 0 6.79495e-14 9.99029e-14 2.61151e-13 -1.52876e-13 0 0 1.13307e-13 6.62011e-14 1.97403e-13 -4.79805e-14 0 0 2.99839e-14 1.4176e-13 8.74135e-14 1.8414e-14 0 0 -1.19111e-14 9.68903e-14 1.66237e-13 -7.41958e-14 0 0 3.07872e-14 -2.43348e-14 2.42135e-13 -1.14376e-13 0 0 -4.09874e-14 1.34674e-13 -1.24914e-15 4.98846e-14 0 0 -3.3058e-14 1.63439e-13 -1.83078e-14 6.26694e-14 0 0 6.39235e-14 1.19086e-13 2.63062e-14 3.18197e-14 0 0 8.39806e-14 1.22052e-13 6.6603e-14 -2.39971e-14 0 0 -1.45152e-14 2.01595e-13 4.7982e-14 -2.01329e-14 0 0 -4.71799e-14 2.79898e-13 -3.03353e-14 3.2589e-14 0 0 3.68586e-15 1.61739e-13 1.21618e-13 -2.09838e-14 0 0 4.64909e-14 6.08311e-14 2.43211e-13 -3.21894e-14 0 0 1.69081e-13 9.49674e-15 1.94679e-13 5.83155e-14 0 0 1.62133e-13 6.68007e-14 1.41341e-13 1.58488e-13 0 0 8.39766e-14 2.74835e-13 2.25601e-13 2.37157e-13 0 0 3.53983e-13 5.8505e-13 6.90028e-13 4.83116e-13 0 0 1.15744e-12 1.65278e-12 2.06707e-12 1.23458e-12 0 0 3.21008e-12 5.21243e-12 5.43632e-12 3.37411e-12 0 0 8.65127e-12 1.40701e-11 1.39859e-11 8.80987e-12 0 0 2.10238e-11 3.37117e-11 3.40323e-11 2.09033e-11 0 0 4.56598e-11 7.32988e-11 7.39665e-11 4.5378e-11 0 0 8.90046e-11 1.43588e-10 1.43865e-10 8.88984e-11 0 0 1.56489e-10 2.53e-10 2.52821e-10 1.56384e-10 0 0 2.49851e-10 4.03948e-10 4.03614e-10 2.49405e-10 0 0 3.65445e-10 5.90573e-10 5.90214e-10 3.64492e-10 0 0 4.94878e-10 7.99324e-10 7.98812e-10 4.93198e-10 0 0 6.26362e-10 1.01197e-09 1.01055e-09 6.23861e-10 0 0 7.47927e-10 1.2081e-09 1.20555e-09 7.43978e-10 0 0 8.48657e-10 1.37005e-09 1.36607e-09 8.42668e-10 0 0 9.19934e-10 1.48446e-09 1.4785e-09 9.11296e-10 0 0 9.58018e-10 1.54445e-09 1.53703e-09 9.46124e-10 0 0 9.55745e-10 1.53871e-09 1.52942e-09 9.40362e-10 0 0 9.14026e-10 1.47084e-09 1.46023e-09 8.97328e-10 0 0 8.31106e-10 1.33724e-09 1.32572e-09 8.1445e-10 0 0 7.06276e-10 1.13645e-09 1.12728e-09 6.92647e-10 0 0 5.41745e-10 8.72773e-10 8.70089e-10 5.34886e-10 0 0 3.38656e-10 5.51826e-10 5.56028e-10 3.45926e-10 0 0 1.00977e-10 1.76849e-10 1.93467e-10 1.2726e-10 0 0 -1.67597e-10 -2.45617e-10 -2.12251e-10 -1.15617e-10 0 0 -4.63723e-10 -7.07904e-10 -6.54985e-10 -3.7853e-10 0 0 -7.82005e-10 -1.20359e-09 -1.12663e-09 -6.58229e-10 0 0 -1.11903e-09 -1.72558e-09 -1.62216e-09 -9.50986e-10 0 0 -1.4659e-09 -2.26433e-09 -2.13344e-09 -1.2512e-09 0 0 -1.82527e-09 -2.82121e-09 -2.65732e-09 -1.5625e-09 0 0 -2.17977e-09 -3.37262e-09 -3.18264e-09 -1.87122e-09 0 0 -2.53617e-09 -3.9294e-09 -3.71357e-09 -2.18706e-09 0 0 -2.88507e-09 -4.47649e-09 -4.23816e-09 -2.50126e-09 0 0 -3.21845e-09 -5.00509e-09 -4.7535e-09 -2.81267e-09 0 0 -3.53319e-09 -5.51241e-09 -5.25828e-09 -3.12243e-09 0 0 -3.82599e-09 -5.99366e-09 -5.74775e-09 -3.42891e-09 0 0 -4.09027e-09 -6.43989e-09 -6.2162e-09 -3.72956e-09 0 0 -4.31847e-09 -6.84194e-09 -6.65906e-09 -4.02323e-09 0 0 -4.50342e-09 -7.19101e-09 -7.07057e-09 -4.30854e-09 0 0 -4.63558e-09 -7.47459e-09 -7.44109e-09 -4.58155e-09 0 0 -4.71531e-09 -7.67205e-09 -7.7563e-09 -4.83626e-09 0 0 -4.67271e-09 -7.78415e-09 -7.99646e-09 -5.06683e-09 0 0 -4.53255e-09 -7.67518e-09 -8.14845e-09 -5.27046e-09 0 0 -4.19141e-09 -7.36577e-09 -8.14305e-09 -5.41736e-09 0 0 -3.43919e-09 -6.56896e-09 -7.95222e-09 -5.62134e-09 0 0 1.16561e-10 -6.1783e-09 -8.5055e-09 -3.87984e-09 0 0 1.2905e-09 -1.78018e-09 -7.13229e-09 -8.04028e-09 0 0 -2.76014e-08 3.70979e-08 1.54556e-08 -6.20578e-08 0 0 -5.89275e-08 7.82505e-08 4.04391e-08 -1.18333e-07 0 0 -3.15371e-08 5.14409e-08 2.31923e-08 -7.57016e-08 0 0 -2.66166e-09 2.34742e-08 4.80432e-09 -3.13861e-08 0 0 4.56856e-09 1.02175e-08 -1.0362e-09 -7.35908e-09 0 0 9.65914e-09 8.74826e-10 -3.97017e-09 6.16649e-09 0 0 2.64893e-08 -2.34007e-08 -1.32551e-08 3.89027e-08 0 0 3.84092e-08 -4.49987e-08 -2.10632e-08 6.99316e-08 0 0 3.72273e-08 -4.54019e-08 -2.07873e-08 7.11857e-08 0 0 2.91758e-08 -4.06185e-08 -1.68891e-08 6.50375e-08 0 0 1.39652e-08 -2.69297e-08 -7.30017e-09 4.56256e-08 0 0 2.99129e-10 -1.30039e-08 1.49636e-09 2.53121e-08 0 0 -8.91768e-09 8.22271e-10 7.90704e-09 6.09202e-09 0 0 -9.50407e-09 1.27707e-08 1.24689e-08 -6.34845e-09 0 0 -9.1074e-09 1.27203e-08 1.33474e-08 -6.05291e-09 0 0 -7.39016e-09 9.08316e-09 1.31688e-08 -3.25139e-09 0 0 -5.50116e-09 7.7637e-09 1.22768e-08 -1.38066e-09 0 0 -2.91965e-09 5.24523e-09 1.07385e-08 5.07815e-10 0 0 -1.05088e-09 1.21246e-09 9.55544e-09 3.84859e-09 0 0 -1.05737e-09 9.9204e-10 7.77701e-09 6.57319e-09 0 0 -1.24676e-09 1.11705e-09 5.27248e-09 7.7325e-09 0 0 -1.12934e-09 2.63086e-09 3.34508e-09 7.68302e-09 0 0 -6.29898e-10 6.86216e-09 3.40631e-09 6.75704e-09 0 0 9.99504e-10 9.19597e-09 5.23511e-09 1.57536e-09 0 0 2.1783e-09 9.887e-09 9.88204e-09 -6.07454e-09 0 0 1.64511e-09 1.17065e-08 1.30786e-08 -9.83183e-09 0 0 1.39361e-09 1.20881e-08 1.29519e-08 -9.34279e-09 0 0 2.9354e-09 1.07816e-08 1.23774e-08 -7.233e-09 0 0 5.55566e-09 1.08935e-08 8.5056e-09 2.0772e-10 0 0 4.66022e-09 1.69896e-08 1.41856e-09 5.7137e-09 0 0 7.42886e-10 2.01765e-08 5.21719e-09 7.77647e-11 0 0 -2.74537e-09 1.38854e-08 3.6219e-08 -3.26354e-08 0 0 8.33662e-10 8.78931e-09 2.69514e-08 -1.97382e-08 0 0 4.98303e-09 1.31838e-08 -1.75332e-08 3.04147e-08 0 0 1.36662e-09 1.77093e-08 -7.2913e-09 1.75396e-08 0 0 1.05196e-09 1.71802e-08 1.28833e-08 -5.73119e-09 0 0 1.97946e-09 1.64787e-08 1.86235e-08 -9.70809e-09 0 0 2.12609e-09 1.54501e-08 2.15954e-08 -1.06947e-08 0 0 2.1191e-09 1.41475e-08 2.16597e-08 -1.01708e-08 0 0 2.49978e-09 1.19705e-08 1.7419e-08 -5.02925e-09 0 0 2.88137e-09 9.27845e-09 1.07283e-08 1.67435e-09 0 0 2.60923e-09 7.5122e-09 5.85696e-09 5.43194e-09 0 0 2.28154e-09 7.08552e-09 4.08371e-09 5.41278e-09 0 0 2.34815e-09 6.57775e-09 4.2521e-09 5.03755e-09 0 0 2.67587e-09 5.97947e-09 4.61473e-09 4.73829e-09 0 0 2.96404e-09 5.49985e-09 4.88656e-09 4.77963e-09 0 0 2.94272e-09 5.05043e-09 5.04009e-09 4.65196e-09 0 0 2.83374e-09 4.39149e-09 5.06284e-09 4.25019e-09 0 0 2.73803e-09 3.76107e-09 4.91781e-09 3.78501e-09 0 0 2.62398e-09 3.42717e-09 4.45761e-09 3.25897e-09 0 0 2.49711e-09 3.34893e-09 3.95561e-09 2.67752e-09 0 0 2.44351e-09 3.36039e-09 3.48401e-09 2.0856e-09 0 0 2.45885e-09 3.45701e-09 3.07319e-09 1.53827e-09 0 0 2.48636e-09 3.49661e-09 2.73105e-09 1.12652e-09 0 0 2.52003e-09 3.54105e-09 2.51696e-09 9.2508e-10 0 0 2.29599e-09 3.24685e-09 2.26796e-09 8.74567e-10 0 0 1.74798e-09 2.50893e-09 1.89226e-09 8.87297e-10 0 0 1.27108e-09 1.86516e-09 1.5502e-09 8.6522e-10 0 0 8.6215e-10 1.30634e-09 1.2482e-09 7.76475e-10 0 0 5.58196e-10 8.96864e-10 9.79999e-10 6.49811e-10 0 0 3.81532e-10 6.54319e-10 7.52176e-10 5.11902e-10 0 0 2.90254e-10 5.09753e-10 5.68657e-10 3.82727e-10 0 0 2.19919e-10 3.8307e-10 4.15684e-10 2.75612e-10 0 0 1.53728e-10 2.65032e-10 2.85279e-10 1.87819e-10 0 0 9.904e-11 1.69465e-10 1.80604e-10 1.17498e-10 0 0 5.83509e-11 9.8408e-11 1.03731e-10 6.60394e-11 0 0 3.0506e-11 5.06082e-11 5.27269e-11 3.30923e-11 0 0 1.38513e-11 2.29859e-11 2.34276e-11 1.50053e-11 0 0 5.57936e-12 9.26021e-12 9.49856e-12 6.16662e-12 0 0 1.96889e-12 3.43361e-12 3.6675e-12 2.4009e-12 0 0 5.43172e-13 1.16574e-12 1.40589e-12 9.34518e-13 0 0 8.95445e-14 1.68394e-13 6.55488e-13 3.37296e-13 0 0 -1.77626e-13 -7.83957e-14 2.77941e-13 1.75739e-13 0 0 -2.40125e-13 -1.9545e-13 1.92457e-13 5.23373e-14 0 0 -2.61104e-13 -1.94053e-13 5.9618e-14 8.62581e-14 0 0 -3.85631e-13 -1.53149e-14 -1.93796e-13 2.06472e-13 0 0 -3.71223e-13 -5.40093e-14 -1.38706e-13 1.55744e-13 0 0 -2.65931e-13 -1.86408e-13 5.56679e-14 -2.11918e-14 0 0 -2.06312e-13 -2.34445e-13 1.79564e-13 -2.01435e-13 0 0 -1.54784e-13 -2.22321e-13 8.65247e-14 -6.38999e-14 0 0 -1.45819e-13 -1.11566e-13 -1.05828e-13 1.75477e-13 0 0 -1.34082e-13 -2.56576e-14 -2.12402e-13 2.65478e-13 0 0 3.29767e-14 -1.53454e-13 -1.95011e-14 5.61651e-14 0 0 2.0385e-13 -2.78362e-13 1.5237e-13 -1.04599e-13 0 0 7.92665e-14 6.42469e-14 -3.31091e-13 2.80088e-13 0 0 -1.24887e-14 2.26994e-13 -4.74269e-13 3.92203e-13 0 0 2.02135e-13 -1.60465e-13 -7.14657e-15 1.21117e-13 0 0 2.51484e-13 -1.70151e-13 -2.54362e-14 6.86992e-14 0 0 1.49005e-13 2.79786e-14 -2.60341e-13 2.00028e-13 0 0 3.61595e-14 1.88954e-13 -3.59195e-13 2.42295e-13 0 0 -3.33935e-14 2.37136e-13 -2.94585e-13 1.11391e-13 0 0 2.15176e-14 1.47676e-14 -4.96297e-14 -7.19157e-14 0 0 -2.00313e-13 3.79429e-13 -4.52719e-13 -6.87599e-14 0 0 -2.13305e-13 5.18624e-13 -5.42348e-13 -3.17785e-13 0 0 -4.47128e-15 1.1394e-13 -1.00384e-13 -5.62505e-13 0 0 7.53052e-14 -6.6368e-14 -8.62176e-14 -3.70925e-13 0 0 2.11825e-14 1.74071e-14 -2.30781e-13 -2.21476e-13 0 0 -1.80878e-13 2.80989e-13 -6.7217e-13 1.11334e-13 0 0 -8.22813e-14 -2.58512e-14 -3.6254e-13 -8.30238e-14 0 0 1.03254e-13 -4.02415e-13 5.65774e-14 -2.95561e-13 0 0 2.02184e-13 -5.55691e-13 -9.73161e-14 3.93889e-14 0 0 2.56513e-13 -6.94561e-13 -7.24361e-14 1.34483e-13 0
				</DataArray>
				<DataArray Name="VitesseY" type="Float32" format="ascii">