<?xml version="1.0"?>
<VTKFile type="PolyData">
	<PolyData>
		<Piece NumberOfPoints="1206" NumberOfPolys="1000">
			<Points>
				<DataArray type="Float32" NumberOfComponents="3" format="ascii">
 0 0 0 0.02 0 0 0.04 0 0 0.06 0 0 0.08 0 0 0.1 0 0 0 0.005 0 0.02 0.005 0 0.04 0.005 0 0.06 0.005 0 0.08 0.005 0 0.1 0.005 0 0 0.01 0 0.02 0.01 0 0.04 0.01 0 0.06 0.01 0 0.08 0.01 0 0.1 0.01 0 0 0.015 0 0.02 0.015 0 0.04 0.015 0 0.06 0.015 0 0.08 0.015 0 0.1 0.015 0 0 0.02 0 0.02 0.02 0 0.04 0.02 0 0.06 0.02 0 0.08 0.02 0 0.1 0.02 0 0 0.025 0 0.02 0.025 0 0.04 0.025 0 0.06 0.025 0 0.08 0.025 0 0.1 0.025 0 0 0.03 0 0.02 0.03 0 0.04 0.03 0 0.06 0.03 0 0.08 0.03 0 0.1 0.03 0 0 0.035 0 0.02 0.035 0 0.04 0.035 0 0.06 0.035 0 0.08 0.035 0 0.1 0.035 0 0 0.04 0 0.02 0.04 0 0.04 0.04 0 0.06 0.04 0 0.08 0.04 0 0.1 0.04 0 0 0.045 0 0.02 0.045 0 0.04 0.045 0 0.06 0.045 0 0.08 0.045 0 0.1 0.045 0 0 0.05 0 0.02 0.05 0 0.04 0.05 0 0.06 0.05 0 0.08 0.05 0 0.1 0.05 0 0 0.055 0 0.02 0.055 0 0.04 0.055 0 0.06 0.055 0 0.08 0.055 0 0.1 0.055 0 0 0.06 0 0.02 0.06 0 0.04 0.06 0 0.06 0.06 0 0.08 0.06 0 0.1 0.06 0 0 0.065 0 0.02 0.065 0 0.04 0.065 0 0.06 0.065 0 0.08 0.065 0 0.1 0.065 0 0 0.07 0 0.02 0.07 0 0.04 0.07 0 0.06 0.07 0 0.08 0.07 0 0.1 0.07 0 0 0.075 0 0.02 0.075 0 0.04 0.075 0 0.06 0.075 0 0.08 0.075 0 0.1 0.075 0 0 0.08 0 0.02 0.08 0 0.04 0.08 0 0.06 0.08 0 0.08 0.08 0 0.1 0.08 0 0 0.085 0 0.02 0.085 0 0.04 0.085 0 0.06 0.085 0 0.08 0.085 0 0.1 0.085 0 0 0.09 0 0.02 0.09 0 0.04 0.09 0 0.06 0.09 0 0.08 0.09 0 0.1 0.09 0 0 0.095 0 0.02 0.095 0 0.04 0.095 0 0.06 0.095 0 0.08 0.095 0 0.1 0.095 0 0 0.1 0 0.02 0.1 0 0.04 0.1 0 0.06 0.1 0 0.08 0.1 0 0.1 0.1 0 0 0.105 0 0.02 0.105 0 0.04 0.105 0 0.06 0.105 0 0.08 0.105 0 0.1 0.105 0 0 0.11 0 0.02 0.11 0 0.04 0.11 0 0.06 0.11 0 0.08 0.11 0 0.1 0.11 0 0 0.115 0 0.02 0.115 0 0.04 0.115 0 0.06 0.115 0 0.08 0.115 0 0.1 0.115 0 0 0.12 0 0.02 0.12 0 0.04 0.12 0 0.06 0.12 0 0.08 0.12 0 0.1 0.12 0 0 0.125 0 0.02 0.125 0 0.04 0.125 0 0.06 0.125 0 0.08 0.125 0 0.1 0.125 0 0 0.13 0 0.02 0.13 0 0.04 0.13 0 0.06 0.13 0 0.08 0.13 0 0.1 0.13 0 0 0.135 0 0.02 0.135 0 0.04 0.135 0 0.06 0.135 0 0.08 0.135 0 0.1 0.135 0 0 0.14 0 0.02 0.14 0 0.04 0.14 0 0.06 0.14 0 0.08 0.14 0 0.1 0.14 0 0 0.145 0 0.02 0.145 0 0.04 0.145 0 0.06 0.145 0 0.08 0.145 0 0.1 0.145 0 0 0.15 0 0.02 0.15 0 0.04 0.15 0 0.06 0.15 0 0.08 0.15 0 0.1 0.15 0 0 0.155 0 0.02 0.155 0 0.04 0.155 0 0.06 0.155 0 0.08 0.155 0 0.1 0.155 0 0 0.16 0 0.02 0.16 0 0.04 0.16 0 0.06 0.16 0 0.08 0.16 0 0.1 0.16 0 0 0.165 0 0.02 0.165 0 0.04 0.165 0 0.06 0.165 0 0.08 0.165 0 0.1 0.165 0 0 0.17 0 0.02 0.17 0 0.04 0.17 0 0.06 0.17 0 0.08 0.17 0 0.1 0.17 0 0 0.175 0 0.02 0.175 0 0.04 0.175 0 0.06 0.175 0 0.08 0.175 0 0.1 0.175 0 0 0.18 0 0.02 0.18 0 0.04 0.18 0 0.06 0.18 0 0.08 0.18 0 0.1 0.18 0 0 0.185 0 0.02 0.185 0 0.04 0.185 0 0.06 0.185 0 0.08 0.185 0 0.1 0.185 0 0 0.19 0 0.02 0.19 0 0.04 0.19 0 0.06 0.19 0 0.08 0.19 0 0.1 0.19 0 0 0.195 0 0.02 0.195 0 0.04 0.195 0 0.06 0.195 0 0.08 0.195 0 0.1 0.195 0 0 0.2 0 0.02 0.2 0 0.04 0.2 0 0.06 0.2 0 0.08 0.2 0 0.1 0.2 0 0 0.205 0 0.02 0.205 0 0.04 0.205 0 0.06 0.205 0 0.08 0.205 0 0.1 0.205 0 0 0.21 0 0.02 0.21 0 0.04 0.21 0 0.06 0.21 0 0.08 0.21 0 0.1 0.21 0 0 0.215 0 0.02 0.215 0 0.04 0.215 0 0.06 0.215 0 0.08 0.215 0 0.1 0.215 0 0 0.22 0 0.02 0.22 0 0.04 0.22 0 0.06 0.22 0 0.08 0.22 0 0.1 0.22 0 0 0.225 0 0.02 0.225 0 0.04 0.225 0 0.06 0.225 0 0.08 0.225 0 0.1 0.225 0 0 0.23 0 0.02 0.23 0 0.04 0.23 0 0.06 0.23 0 0.08 0.23 0 0.1 0.23 0 0 0.235 0 0.02 0.235 0 0.04 0.235 0 0.06 0.235 0 0.08 0.235 0 0.1 0.235 0 0 0.24 0 0.02 0.24 0 0.04 0.24 0 0.06 0.24 0 0.08 0.24 0 0.1 0.24 0 0 0.245 0 0.02 0.245 0 0.04 0.245 0 0.06 0.245 0 0.08 0.245 0 0.1 0.245 0 0 0.25 0 0.02 0.25 0 0.04 0.25 0 0.06 0.25 0 0.08 0.25 0 0.1 0.25 0 0 0.255 0 0.02 0.255 0 0.04 0.255 0 0.06 0.255 0 0.08 0.255 0 0.1 0.255 0 0 0.26 0 0.02 0.26 0 0.04 0.26 0 0.06 0.26 0 0.08 0.26 0 0.1 0.26 0 0 0.265 0 0.02 0.265 0 0.04 0.265 0 0.06 0.265 0 0.08 0.265 0 0.1 0.265 0 0 0.27 0 0.02 0.27 0 0.04 0.27 0 0.06 0.27 0 0.08 0.27 0 0.1 0.27 0 0 0.275 0 0.02 0.275 0 0.04 0.275 0 0.06 0.275 0 0.08 0.275 0 0.1 0.275 0 0 0.28 0 0.02 0.28 0 0.04 0.28 0 0.06 0.28 0 0.08 0.28 0 0.1 0.28 0 0 0.285 0 0.02 0.285 0 0.04 0.285 0 0.06 0.285 0 0.08 0.285 0 0.1 0.285 0 0 0.29 0 0.02 0.29 0 0.04 0.29 0 0.06 0.29 0 0.08 0.29 0 0.1 0.29 0 0 0.295 0 0.02 0.295 0 0.04 0.295 0 0.06 0.295 0 0.08 0.295 0 0.1 0.295 0 0 0.3 0 0.02 0.3 0 0.04 0.3 0 0.06 0.3 0 0.08 0.3 0 0.1 0.3 0 0 0.305 0 0.02 0.305 0 0.04 0.305 0 0.06 0.305 0 0.08 0.305 0 0.1 0.305 0 0 0.31 0 0.02 0.31 0 0.04 0.31 0 0.06 0.31 0 0.08 0.31 0 0.1 0.31 0 0 0.315 0 0.02 0.315 0 0.04 0.315 0 0.06 0.315 0 0.08 0.315 0 0.1 0.315 0 0 0.32 0 0.02 0.32 0 0.04 0.32 0 0.06 0.32 0 0.08 0.32 0 0.1 0.32 0 0 0.325 0 0.02 0.325 0 0.04 0.325 0 0.06 0.325 0 0.08 0.325 0 0.1 0.325 0 0 0.33 0 0.02 0.33 0 0.04 0.33 0 0.06 0.33 0 0.08 0.33 0 0.1 0.33 0 0 0.335 0 0.02 0.335 0 0.04 0.335 0 0.06 0.335 0 0.08 0.335 0 0.1 0.335 0 0 0.34 0 0.02 0.34 0 0.04 0.34 0 0.06 0.34 0 0.08 0.34 0 0.1 0.34 0 0 0.345 0 0.02 0.345 0 0.04 0.345 0 0.06 0.345 0 0.08 0.345 0 0.1 0.345 0 0 0.35 0 0.02 0.35 0 0.04 0.35 0 0.06 0.35 0 0.08 0.35 0 0.1 0.35 0 0 0.355 0 0.02 0.355 0 0.04 0.355 0 0.06 0.355 0 0.08 0.355 0 0.1 0.355 0 0 0.36 0 0.02 0.36 0 0.04 0.36 0 0.06 0.36 0 0.08 0.36 0 0.1 0.36 0 0 0.365 0 0.02 0.365 0 0.04 0.365 0 0.06 0.365 0 0.08 0.365 0 0.1 0.365 0 0 0.37 0 0.02 0.37 0 0.04 0.37 0 0.06 0.37 0 0.08 0.37 0 0.1 0.37 0 0 0.375 0 0.02 0.375 0 0.04 0.375 0 0.06 0.375 0 0.08 0.375 0 0.1 0.375 0 0 0.38 0 0.02 0.38 0 0.04 0.38 0 0.06 0.38 0 0.08 0.38 0 0.1 0.38 0 0 0.385 0 0.02 0.385 0 0.04 0.385 0 0.06 0.385 0 0.08 0.385 0 0.1 0.385 0 0 0.39 0 0.02 0.39 0 0.04 0.39 0 0.06 0.39 0 0.08 0.39 0 0.1 0.39 0 0 0.395 0 0.02 0.395 0 0.04 0.395 0 0.06 0.395 0 0.08 0.395 0 0.1 0.395 0 0 0.4 0 0.02 0.4 0 0.04 0.4 0 0.06 0.4 0 0.08 0.4 0 0.1 0.4 0 0 0.405 0 0.02 0.405 0 0.04 0.405 0 0.06 0.405 0 0.08 0.405 0 0.1 0.405 0 0 0.41 0 0.02 0.41 0 0.04 0.41 0 0.06 0.41 0 0.08 0.41 0 0.1 0.41 0 0 0.415 0 0.02 0.415 0 0.04 0.415 0 0.06 0.415 0 0.08 0.415 0 0.1 0.415 0 0 0.42 0 0.02 0.42 0 0.04 0.42 0 0.06 0.42 0 0.08 0.42 0 0.1 0.42 0 0 0.425 0 0.02 0.425 0 0.04 0.425 0 0.06 0.425 0 0.08 0.425 0 0.1 0.425 0 0 0.43 0 0.02 0.43 0 0.04 0.43 0 0.06 0.43 0 0.08 0.43 0 0.1 0.43 0 0 0.435 0 0.02 0.435 0 0.04 0.435 0 0.06 0.435 0 0.08 0.435 0 0.1 0.435 0 0 0.44 0 0.02 0.44 0 0.04 0.44 0 0.06 0.44 0 0.08 0.44 0 0.1 0.44 0 0 0.445 0 0.02 0.445 0 0.04 0.445 0 0.06 0.445 0 0.08 0.445 0 0.1 0.445 0 0 0.45 0 0.02 0.45 0 0.04 0.45 0 0.06 0.45 0 0.08 0.45 0 0.1 0.45 0 0 0.455 0 0.02 0.455 0 0.04 0.455 0 0.06 0.455 0 0.08 0.455 0 0.1 0.455 0 0 0.46 0 0.02 0.46 0 0.04 0.46 0 0.06 0.46 0 0.08 0.46 0 0.1 0.46 0 0 0.465 0 0.02 0.465 0 0.04 0.465 0 0.06 0.465 0 0.08 0.465 0 0.1 0.465 0 0 0.47 0 0.02 0.47 0 0.04 0.47 0 0.06 0.47 0 0.08 0.47 0 0.1 0.47 0 0 0.475 0 0.02 0.475 0 0.04 0.475 0 0.06 0.475 0 0.08 0.475 0 0.1 0.475 0 0 0.48 0 0.02 0.48 0 0.04 0.48 0 0.06 0.48 0 0.08 0.48 0 0.1 0.48 0 0 0.485 0 0.02 0.485 0 0.04 0.485 0 0.06 0.485 0 0.08 0.485 0 0.1 0.485 0 0 0.49 0 0.02 0.49 0 0.04 0.49 0 0.06 0.49 0 0.08 0.49 0 0.1 0.49 0 0 0.495 0 0.02 0.495 0 0.04 0.495 0 0.06 0.495 0 0.08 0.495 0 0.1 0.495 0 0 0.5 0 0.02 0.5 0 0.04 0.5 0 0.06 0.5 0 0.08 0.5 0 0.1 0.5 0 0 0.505 0 0.02 0.505 0 0.04 0.505 0 0.06 0.505 0 0.08 0.505 0 0.1 0.505 0 0 0.51 0 0.02 0.51 0 0.04 0.51 0 0.06 0.51 0 0.08 0.51 0 0.1 0.51 0 0 0.515 0 0.02 0.515 0 0.04 0.515 0 0.06 0.515 0 0.08 0.515 0 0.1 0.515 0 0 0.52 0 0.02 0.52 0 0.04 0.52 0 0.06 0.52 0 0.08 0.52 0 0.1 0.52 0 0 0.525 0 0.02 0.525 0 0.04 0.525 0 0.06 0.525 0 0.08 0.525 0 0.1 0.525 0 0 0.53 0 0.02 0.53 0 0.04 0.53 0 0.06 0.53 0 0.08 0.53 0 0.1 0.53 0 0 0.535 0 0.02 0.535 0 0.04 0.535 0 0.06 0.535 0 0.08 0.535 0 0.1 0.535 0 0 0.54 0 0.02 0.54 0 0.04 0.54 0 0.06 0.54 0 0.08 0.54 0 0.1 0.54 0 0 0.545 0 0.02 0.545 0 0.04 0.545 0 0.06 0.545 0 0.08 0.545 0 0.1 0.545 0 0 0.55 0 0.02 0.55 0 0.04 0.55 0 0.06 0.55 0 0.08 0.55 0 0.1 0.55 0 0 0.555 0 0.02 0.555 0 0.04 0.555 0 0.06 0.555 0 0.08 0.555 0 0.1 0.555 0 0 0.56 0 0.02 0.56 0 0.04 0.56 0 0.06 0.56 0 0.08 0.56 0 0.1 0.56 0 0 0.565 0 0.02 0.565 0 0.04 0.565 0 0.06 0.565 0 0.08 0.565 0 0.1 0.565 0 0 0.57 0 0.02 0.57 0 0.04 0.57 0 0.06 0.57 0 0.08 0.57 0 0.1 0.57 0 0 0.575 0 0.02 0.575 0 0.04 0.575 0 0.06 0.575 0 0.08 0.575 0 0.1 0.575 0 0 0.58 0 0.02 0.58 0 0.04 0.58 0 0.06 0.58 0 0.08 0.58 0 0.1 0.58 0 0 0.585 0 0.02 0.585 0 0.04 0.585 0 0.06 0.585 0 0.08 0.585 0 0.1 0.585 0 0 0.59 0 0.02 0.59 0 0.04 0.59 0 0.06 0.59 0 0.08 0.59 0 0.1 0.59 0 0 0.595 0 0.02 0.595 0 0.04 0.595 0 0.06 0.595 0 0.08 0.595 0 0.1 0.595 0 0 0.6 0 0.02 0.6 0 0.04 0.6 0 0.06 0.6 0 0.08 0.6 0 0.1 0.6 0 0 0.605 0 0.02 0.605 0 0.04 0.605 0 0.06 0.605 0 0.08 0.605 0 0.1 0.605 0 0 0.61 0 0.02 0.61 0 0.04 0.61 0 0.06 0.61 0 0.08 0.61 0 0.1 0.61 0 0 0.615 0 0.02 0.615 0 0.04 0.615 0 0.06 0.615 0 0.08 0.615 0 0.1 0.615 0 0 0.62 0 0.02 0.62 0 0.04 0.62 0 0.06 0.62 0 0.08 0.62 0 0.1 0.62 0 0 0.625 0 0.02 0.625 0 0.04 0.625 0 0.06 0.625 0 0.08 0.625 0 0.1 0.625 0 0 0.63 0 0.02 0.63 0 0.04 0.63 0 0.06 0.63 0 0.08 0.63 0 0.1 0.63 0 0 0.635 0 0.02 0.635 0 0.04 0.635 0 0.06 0.635 0 0.08 0.635 0 0.1 0.635 0 0 0.64 0 0.02 0.64 0 0.04 0.64 0 0.06 0.64 0 0.08 0.64 0 0.1 0.64 0 0 0.645 0 0.02 0.645 0 0.04 0.645 0 0.06 0.645 0 0.08 0.645 0 0.1 0.645 0 0 0.65 0 0.02 0.65 0 0.04 0.65 0 0.06 0.65 0 0.08 0.65 0 0.1 0.65 0 0 0.655 0 0.02 0.655 0 0.04 0.655 0 0.06 0.655 0 0.08 0.655 0 0.1 0.655 0 0 0.66 0 0.02 0.66 0 0.04 0.66 0 0.06 0.66 0 0.08 0.66 0 0.1 0.66 0 0 0.665 0 0.02 0.665 0 0.04 0.665 0 0.06 0.665 0 0.08 0.665 0 0.1 0.665 0 0 0.67 0 0.02 0.67 0 0.04 0.67 0 0.06 0.67 0 0.08 0.67 0 0.1 0.67 0 0 0.675 0 0.02 0.675 0 0.04 0.675 0 0.06 0.675 0 0.08 0.675 0 0.1 0.675 0 0 0.68 0 0.02 0.68 0 0.04 0.68 0 0.06 0.68 0 0.08 0.68 0 0.1 0.68 0 0 0.685 0 0.02 0.685 0 0.04 0.685 0 0.06 0.685 0 0.08 0.685 0 0.1 0.685 0 0 0.69 0 0.02 0.69 0 0.04 0.69 0 0.06 0.69 0 0.08 0.69 0 0.1 
[...]
			<PointData Scalars="VitesseX">
				<DataArray Name="VitesseX" type="Float32" format="ascii">
 0 1.48681e-14 5.47103e-14 6.97322e-14 2.94906e-14 0 0 1.55091e-14 5.27964e-14 6.98317e-14 3.05992e-14 0 0 1.46713e-14 5.12823e-14 6.84592e-14 3.10863e-14 0 0 1.76598e-14 3.83371e-14 8.16342e-14 2.19034e-14 0 0 1.78083e-14 2.98074e-14 8.52743e-14 2.6077e-14 0 0 1.06018e-14 3.484e-14 6.86935e-14 4.41685e-14 0 0 2.14498e-15 3.69048e-14 6.23342e-14 5.05025e-14 0 0 8.77407e-15 2.31165e-14 7.15565e-14 4.91432e-14 0 0 1.52642e-14 1.92596e-14 7.10838e-14 5.47437e-14 0 0 -8.19976e-15 5.6899e-14 2.12542e-14 1.04869e-13 0 0 -4.54311e-15 3.92312e-14 1.80707e-14 1.25631e-13 0 0 3.09421e-14 -3.51574e-14 1.00971e-13 5.67941e-14 0 0 2.31756e-14 -1.96245e-14 8.1321e-14 5.6679e-14 0 0 -3.52772e-14 1.05645e-13 -7.51502e-14 1.65976e-13 0 0 4.82658e-15 4.18462e-14 3.85437e-14 7.44871e-14 0 0 4.08801e-14 -1.54748e-14 1.47796e-13 -1.17892e-14 0 0 1.49676e-14 7.01038e-14 4.84858e-14 6.51879e-14 0 0 5.74427e-14 1.14879e-14 1.18364e-13 4.4438e-14 0 0 5.42179e-14 1.475e-14 1.31894e-13 6.00244e-14 0 0 4.5193e-14 5.40088e-14 8.98531e-14 7.8074e-14 0 0 2.15122e-14 9.63318e-14 3.21697e-14 9.24542e-14 0 0 9.0742e-15 9.45098e-14 2.73654e-14 7.89457e-14 0 0 6.07123e-14 1.62827e-14 1.0577e-13 2.18453e-14 0 0 2.31845e-14 1.0766e-13 -1.29332e-14 1.09042e-13 0 0 1.71163e-14 1.09528e-13 -1.13985e-14 1.07182e-13 0 0 1.61118e-14 1.03343e-13 1.54699e-14 7.97613e-14 0 0 4.40522e-14 4.13137e-14 1.11248e-13 2.00027e-14 0 0 1.96407e-14 9.00428e-14 7.11538e-14 3.2031e-14 0 0 -4.83969e-14 2.63912e-13 -1.0952e-13 7.9292e-14 0 0 7.87926e-14 9.22419e-14 1.13218e-13 -1.16213e-13 0 0 1.05246e-13 4.77594e-14 1.97552e-13 -1.53054e-13 0 0 1.03699e-13 4.45125e-14 2.03129e-13 -1.01036e-13 0 0 4.0252e-14 1.44367e-13 9.65246e-14 4.4047e-14 0 0 -2.01887e-14 2.35212e-13 4.65437e-14 1.29576e-13 0 0 5.15018e-14 1.42948e-13 1.30413e-13 1.39413e-13 0 0 2.88622e-14 1.68485e-13 1.066e-13 1.4683e-13 0 0 6.7451e-14 9.38371e-14 1.72417e-13 9.10206e-14 0 0 9.52387e-14 2.5135e-14 2.19208e-13 1.20494e-13 0 0 5.04441e-14 3.55174e-14 2.10007e-13 7.41574e-14 0 0 9.93852e-14 -3.33614e-14 2.29017e-13 -4.71058e-14 0 0 1.25743e-13 -5.29468e-14 2.65201e-13 -8.86739e-14 0 0 4.63534e-14 7.16554e-14 2.15847e-13 -3.30046e-14 0 0 2.75549e-14 1.09317e-13 1.80792e-13 7.83086e-16 0 0 1.30617e-14 1.45235e-13 7.34823e-14 7.49603e-14 0 0 -4.31869e-14 2.38015e-13 2.70051e-14 4.70135e-14 0 0 7.23313e-14 1.99329e-13 3.77169e-14 1.90746e-14 0 0 1.78179e-13 1.46792e-13 4.996e-14 7.32582e-14 0 0 1.48779e-13 1.11383e-13 2.39995e-13 -1.60761e-14 0 0 1.23176e-13 1.02434e-13 3.47482e-13 -1.09897e-13 0 0 1.07388e-13 2.19448e-13 2.87962e-13 -5.98353e-14 0 0 2.07717e-13 3.71573e-13 4.30921e-13 1.05059e-13 0 0 6.57986e-13 9.07223e-13 8.72092e-13 6.71939e-13 0 0 1.71125e-12 2.65686e-12 2.37056e-12 1.97207e-12 0 0 4.51915e-12 7.02326e-12 7.00015e-12 4.74619e-12 0 0 1.12679e-11 1.767e-11 1.79165e-11 1.12515e-11 0 0 2.53785e-11 4.06809e-11 4.08898e-11 2.52918e-11 0 0 5.1879e-11 8.41401e-11 8.40153e-11 5.20015e-11 0 0 9.64147e-11 1.56178e-10 1.55978e-10 9.65181e-11 0 0 1.62398e-10 2.62525e-10 2.62511e-10 1.62105e-10 0 0 2.49299e-10 4.03198e-10 4.02836e-10 2.48876e-10 0 0 3.52747e-10 5.7042e-10 5.69609e-10 3.52229e-10 0 0 4.64604e-10 7.50791e-10 7.49999e-10 4.63498e-10 0 0 5.74344e-10 9.27788e-10 9.26925e-10 5.72507e-10 0 0 6.71754e-10 1.08504e-09 1.08359e-09 6.69058e-10 0 0 7.47913e-10 1.20784e-09 1.20543e-09 7.43996e-10 0 0 7.96527e-10 1.28577e-09 1.28238e-09 7.90898e-10 0 0 8.14402e-10 1.31401e-09 1.30954e-09 8.06737e-10 0 0 7.94605e-10 1.28174e-09 1.27598e-09 7.85634e-10 0 0 7.42583e-10 1.19713e-09 1.19069e-09 7.32781e-10 0 0 6.53017e-10 1.05212e-09 1.046e-09 6.43527e-10 0 0 5.28669e-10 8.51784e-10 8.47957e-10 5.2156e-10 0 0 3.71148e-10 6.00162e-10 5.99787e-10 3.69837e-10 0 0 1.82922e-10 3.01067e-10 3.05445e-10 1.91677e-10 0 0 -3.24896e-11 -4.20939e-11 -2.78039e-11 -1.10863e-11 0 0 -2.72601e-10 -4.2151e-10 -3.96656e-10 -2.3278e-10 0 0 -5.33225e-10 -8.31792e-10 -7.93442e-10 -4.71325e-10 0 0 -8.09823e-10 -1.26671e-09 -1.21208e-09 -7.22607e-10 0 0 -1.09864e-09 -1.71932e-09 -1.64761e-09 -9.82634e-10 0 0 -1.39397e-09 -2.18327e-09 -2.09293e-09 -1.24887e-09 0 0 -1.69439e-09 -2.65435e-09 -2.54549e-09 -1.51992e-09 0 0 -1.99138e-09 -3.12164e-09 -2.99723e-09 -1.78979e-09 0 0 -2.28448e-09 -3.5854e-09 -3.44791e-09 -2.06222e-09 0 0 -2.56949e-09 -4.03907e-09 -3.89187e-09 -2.33185e-09 0 0 -2.84109e-09 -4.47612e-09 -4.32567e-09 -2.59831e-09 0 0 -3.09673e-09 -4.89407e-09 -4.74813e-09 -2.86182e-09 0 0 -3.33412e-09 -5.28967e-09 -5.15654e-09 -3.12094e-09 0 0 -3.54955e-09 -5.65778e-09 -5.548e-09 -3.37479e-09 0 0 -3.73978e-09 -5.99454e-09 -5.921e-09 -3.62337e-09 0 0 -3.90297e-09 -6.2979e-09 -6.27415e-09 -3.86585e-09 0 0 -4.03764e-09 -6.56593e-09 -6.60551e-09 -4.10147e-09 0 0 -4.14215e-09 -6.79661e-09 -6.91371e-09 -4.33065e-09 0 0 -4.21591e-09 -6.98963e-09 -7.19891e-09 -4.55356e-09 0 0 -4.26078e-09 -7.14811e-09 -7.46322e-09 -4.76982e-09 0 0 -4.28597e-09 -7.28062e-09 -7.71237e-09 -4.98015e-09 0 0 -4.27997e-09 -7.39188e-09 -7.95665e-09 -5.18143e-09 0 0 -4.26817e-09 -7.52232e-09 -8.17729e-09 -5.40147e-09 0 0 -3.63211e-09 -8.05428e-09 -8.83596e-09 -4.87715e-09 0 0 1.14504e-08 -1.61314e-08 -1.92671e-08 1.00018e-08 0 0 9.36595e-08 -4.85929e-08 -1.06439e-07 1.21215e-07 0 0 -1.47629e-07 5.2336e-08 1.12968e-07 -1.70939e-07 0 0 -4.68935e-07 1.86173e-07 4.45831e-07 -5.96356e-07 0 0 -2.17375e-07 9.91815e-08 1.55151e-07 -2.32995e-07 0 0 -5.95693e-08 4.90961e-08 -5.02419e-08 2.0044e-08 0 0 -2.89546e-08 2.67747e-08 -1.2801e-08 -2.89915e-09 0 0 7.09749e-08 -2.20812e-08 -5.56331e-08 7.51806e-08 0 0 1.79883e-07 -7.00966e-08 -1.26554e-07 1.87555e-07 0 0 1.84539e-07 -7.31626e-08 -1.25631e-07 1.8906e-07 0 0 1.67829e-07 -6.78025e-08 -9.71194e-08 1.58276e-07 0 0 1.45158e-07 -5.83589e-08 -7.06829e-08 1.28385e-07 0 0 1.31967e-07 -5.1293e-08 -6.94289e-08 1.2487e-07 0 0 1.2032e-07 -4.54305e-08 -6.53224e-08 1.17806e-07 0 0 9.26484e-08 -3.38639e-08 -4.71309e-08 9.28921e-08 0 0 3.70227e-08 -7.27618e-09 -9.78552e-09 3.93409e-08 0 0 -2.89432e-08 2.29732e-08 3.38437e-08 -2.46419e-08 0 0 -9.65674e-08 4.92484e-08 8.182e-08 -9.47889e-08 0 0 -1.21435e-07 5.49521e-08 9.68742e-08 -1.23836e-07 0 0 -1.18158e-07 5.40679e-08 9.03369e-08 -1.18051e-07 0 0 -1.01781e-07 4.7635e-08 6.24018e-08 -9.07739e-08 0 0 -5.21234e-08 2.5324e-08 2.25276e-08 -3.33735e-08 0 0 9.0221e-09 -1.75573e-09 -1.64942e-08 2.48112e-08 0 0 5.59462e-08 -2.21977e-08 -3.87775e-08 5.83175e-08 0 0 6.23165e-08 -2.55817e-08 -3.93505e-08 5.95529e-08 0 0 5.67836e-08 -2.32796e-08 -2.99671e-08 4.76369e-08 0 0 3.05436e-08 -1.28114e-08 -8.09077e-09 1.66533e-08 0 0 -2.1439e-09 -1.18655e-09 5.74961e-09 -7.72276e-09 0 0 -1.62266e-08 1.44985e-09 1.00237e-08 -1.6119e-08 0 0 -1.72082e-08 9.61505e-10 1.07075e-08 -1.7503e-08 0 0 -1.48562e-08 -1.56482e-09 7.78735e-09 -1.52235e-08 0 0 -6.62924e-09 -3.70449e-09 -2.25482e-09 -5.72996e-09 0 0 -1.92668e-09 -4.77875e-09 -9.5228e-09 3.74346e-09 0 0 -2.02275e-09 -4.89074e-09 -1.18424e-08 1.04873e-08 0 0 -2.87715e-09 -2.70094e-09 -1.94503e-08 2.19412e-08 0 0 -2.00313e-09 1.47602e-09 -1.76705e-08 1.95781e-08 0 0 -1.12406e-09 1.06404e-09 -5.65112e-09 6.79914e-09 0 0 -2.41241e-09 3.06786e-09 -4.01794e-10 9.75628e-10 0 0 -1.48451e-09 7.47112e-09 1.12057e-09 8.66373e-10 0 0 3.7041e-09 5.71618e-09 3.42262e-09 1.84708e-09 0 0 8.283e-09 3.06002e-09 9.85662e-09 -9.86189e-10 0 0 9.41504e-09 3.35787e-09 1.04338e-08 -1.85664e-09 0 0 9.24365e-09 3.13997e-09 9.48544e-09 -1.39221e-09 0 0 8.75368e-09 1.94702e-09 4.8968e-09 1.78709e-09 0 0 7.80757e-09 4.25933e-10 -7.29981e-10 4.87435e-09 0 0 4.67193e-09 5.36268e-10 -1.68974e-09 4.65007e-09 0 0 -7.20701e-10 2.09673e-09 -1.0309e-09 1.65358e-09 0 0 -3.85518e-09 3.19196e-09 1.96012e-10 -1.79418e-09 0 0 -4.00114e-09 2.90594e-09 5.88468e-10 -2.6321e-09 0 0 -3.32673e-09 1.75931e-09 5.42187e-10 -2.48337e-09 0 0 -2.09433e-09 4.32524e-10 3.49907e-10 -1.8574e-09 0 0 -1.20508e-09 -8.9148e-11 -4.04726e-11 -1.29292e-09 0 0 -3.45067e-10 -1.21984e-09 6.69287e-10 -1.86899e-09 0 0 2.30415e-10 -1.79223e-09 1.66415e-10 -1.45961e-09 0 0 -1.60282e-10 -1.21326e-09 -1.92902e-09 -6.46242e-11 0 0 -3.77082e-10 -8.70393e-10 -2.00596e-09 -2.77795e-10 0 0 -3.33559e-10 -6.42123e-10 -1.58974e-09 -6.52217e-10 0 0 -6.1446e-11 -5.5972e-10 -6.5934e-10 -8.13479e-10 0 0 1.28866e-10 -3.50426e-10 -3.99634e-10 -6.68124e-10 0 0 1.02957e-10 2.33861e-10 -4.58284e-10 -6.82488e-11 0 0 1.09343e-10 5.42151e-10 -4.15051e-10 2.41252e-10 0 0 2.2642e-10 6.26622e-10 -4.73124e-11 3.6003e-10 0 0 4.02687e-10 6.46158e-10 4.56644e-10 3.89077e-10 0 0 5.32296e-10 7.34388e-10 8.20082e-10 4.61034e-10 0 0 5.7842e-10 8.99583e-10 9.55658e-10 5.85747e-10 0 0 5.99394e-10 9.82324e-10 1.01567e-09 6.4289e-10 0 0 5.91465e-10 9.75399e-10 1.00478e-09 6.38636e-10 0 0 5.39811e-10 8.91661e-10 9.15174e-10 5.79728e-10 0 0 4.52339e-10 7.44395e-10 7.61966e-10 4.79946e-10 0 0 3.4601e-10 5.68216e-10 5.78994e-10 3.63082e-10 0 0 2.34883e-10 3.84814e-10 3.90078e-10 2.43691e-10 0 0 1.37861e-10 2.24862e-10 2.27394e-10 1.41428e-10 0 0 6.8968e-11 1.12154e-10 1.13162e-10 7.02775e-11 0 0 2.95819e-11 4.81322e-11 4.84754e-11 3.01073e-11 0 0 1.12245e-11 1.82982e-11 1.85941e-11 1.14901e-11 0 0 3.87612e-12 6.36326e-12 6.48193e-12 4.22471e-12 0 0 1.18817e-12 1.96575e-12 1.97733e-12 1.68455e-12 0 0 2.06848e-13 4.13254e-13 5.02083e-13 6.33769e-13 0 0 -1.18848e-13 -1.22713e-13 2.59881e-14 2.18092e-13 0 0 -2.16169e-13 -2.96627e-13 -2.01357e-13 1.81251e-13 0 0 -2.78296e-13 -2.52361e-13 -3.67536e-13 2.27998e-13 0 0 -2.50518e-13 -2.89965e-13 -3.26845e-13 1.90764e-13 0 0 -1.68945e-13 -3.92484e-13 -1.94317e-13 5.30042e-14 0 0 -2.26892e-13 -2.31737e-13 -3.21006e-13 3.10929e-14 0 0 -1.80969e-13 -2.50634e-13 -2.94721e-13 3.76059e-14 0 0 -4.66934e-14 -3.95029e-13 -1.77559e-13 -5.02491e-15 0 0 -6.1632e-14 -3.30057e-13 -1.2827e-13 -1.4068e-13 0 0 -1.41228e-13 -1.18294e-13 -2.43214e-13 -1.35416e-13 0 0 -1.89233e-13 9.77719e-14 -4.43813e-13 -3.25015e-14 0 0 -1.60949e-13 2.02637e-13 -4.8547e-13 -7.29145e-14 0 0 -1.55538e-13 1.66753e-13 -2.21698e-13 -3.02024e-13 0 0 -1.12006e-13 2.36935e-14 6.82605e-14 -4.04521e-13 0 0 -3.01797e-15 -6.26477e-14 8.91411e-14 -3.14395e-13 0 0 1.25296e-14 -2.82257e-15 3.91882e-15 -1.9481e-13 0 0 4.01005e-14 3.48451e-14 4.09362e-14 -2.2377e-13 0 0 1.02583e-13 -2.47591e-14 1.657e-13 -3.33448e-13 0 0 3.63995e-14 2.92748e-14 1.16425e-13 -2.69407e-13 0 0 6.43487e-14 4.13114e-14 -9.16148e-14 -9.48392e-14 0 0 -1.5169e-13 2.92361e-13 -4.14321e-13 7.78136e-15 0 0 -3.73564e-13 4.25626e-13 -3.01702e-13 -2.46676e-13 0 0 -6.79915e-14 -6.62059e-14 1.92041e-13 -5.65587e-13 0 0 6.62398e-14 -3.23691e-13 3.50004e-13 -6.45916e-13 0 0 7.58381e-14 -3.15835e-13 2.52146e-13 -6.21485e-13 0 0 1.67248e-13 -3.76276e-13 2.19839e-13 -6.23185e-13 0
				</DataArray>
				<DataArray Name="VitesseY" type="Float32" format="ascii">