<?xml version="1.0"?>
<VTKFile type="PolyData">
	<PolyData>
		<Piece NumberOfPoints="1206" NumberOfPolys="1000">
			<Points>
				<DataArray type="Float32" NumberOfComponents="3" format="ascii">
 0 0 0 0.02 0 0 0.04 0 0 0.06 0 0 0.08 0 0 0.1 0 0 0 0.005 0 0.02 0.005 0 0.04 0.005 0 0.06 0.005 0 0.08 0.005 0 0.1 0.005 0 0 0.01 0 0.02 0.01 0 0.04 0.01 0 0.06 0.01 0 0.08 0.01 0 0.1 0.01 0 0 0.015 0 0.02 0.015 0 0.04 0.015 0 0.06 0.015 0 0.08 0.015 0 0.1 0.015 0 0 0.02 0 0.02 0.02 0 0.04 0.02 0 0.06 0.02 0 0.08 0.02 0 0.1 0.02 0 0 0.025 0 0.02 0.025 0 0.04 0.025 0 0.06 0.025 0 0.08 0.025 0 0.1 0.025 0 0 0.03 0 0.02 0.03 0 0.04 0.03 0 0.06 0.03 0 0.08 0.03 0 0.1 0.03 0 0 0.035 0 0.02 0.035 0 0.04 0.035 0 0.06 0.035 0 0.08 0.035 0 0.1 0.035 0 0 0.04 0 0.02 0.04 0 0.04 0.04 0 0.06 0.04 0 0.08 0.04 0 0.1 0.04 0 0 0.045 0 0.02 0.045 0 0.04 0.045 0 0.06 0.045 0 0.08 0.045 0 0.1 0.045 0 0 0.05 0 0.02 0.05 0 0.04 0.05 0 0.06 0.05 0 0.08 0.05 0 0.1 0.05 0 0 0.055 0 0.02 0.055 0 0.04 0.055 0 0.06 0.055 0 0.08 0.055 0 0.1 0.055 0 0 0.06 0 0.02 0.06 0 0.04 0.06 0 0.06 0.06 0 0.08 0.06 0 0.1 0.06 0 0 0.065 0 0.02 0.065 0 0.04 0.065 0 0.06 0.065 0 0.08 0.065 0 0.1 0.065 0 0 0.07 0 0.02 0.07 0 0.04 0.07 0 0.06 0.07 0 0.08 0.07 0 0.1 0.07 0 0 0.075 0 0.02 0.075 0 0.04 0.075 0 0.06 0.075 0 0.08 0.075 0 0.1 0.075 0 0 0.08 0 0.02 0.08 0 0.04 0.08 0 0.06 0.08 0 0.08 0.08 0 0.1 0.08 0 0 0.085 0 0.02 0.085 0 0.04 0.085 0 0.06 0.085 0 0.08 0.085 0 0.1 0.085 0 0 0.09 0 0.02 0.09 0 0.04 0.09 0 0.06 0.09 0 0.08 0.09 0 0.1 0.09 0 0 0.095 0 0.02 0.095 0 0.04 0.095 0 0.06 0.095 0 0.08 0.095 0 0.1 0.095 0 0 0.1 0 0.02 0.1 0 0.04 0.1 0 0.06 0.1 0 0.08 0.1 0 0.1 0.1 0 0 0.105 0 0.02 0.105 0 0.04 0.105 0 0.06 0.105 0 0.08 0.105 0 0.1 0.105 0 0 0.11 0 0.02 0.11 0 0.04 0.11 0 0.06 0.11 0 0.08 0.11 0 0.1 0.11 0 0 0.115 0 0.02 0.115 0 0.04 0.115 0 0.06 0.115 0 0.08 0.115 0 0.1 0.115 0 0 0.12 0 0.02 0.12 0 0.04 0.12 0 0.06 0.12 0 0.08 0.12 0 0.1 0.12 0 0 0.125 0 0.02 0.125 0 0.04 0.125 0 0.06 0.125 0 0.08 0.125 0 0.1 0.125 0 0 0.13 0 0.02 0.13 0 0.04 0.13 0 0.06 0.13 0 0.08 0.13 0 0.1 0.13 0 0 0.135 0 0.02 0.135 0 0.04 0.135 0 0.06 0.135 0 0.08 0.135 0 0.1 0.135 0 0 0.14 0 0.02 0.14 0 0.04 0.14 0 0.06 0.14 0 0.08 0.14 0 0.1 0.14 0 0 0.145 0 0.02 0.145 0 0.04 0.145 0 0.06 0.145 0 0.08 0.145 0 0.1 0.145 0 0 0.15 0 0.02 0.15 0 0.04 0.15 0 0.06 0.15 0 0.08 0.15 0 0.1 0.15 0 0 0.155 0 0.02 0.155 0 0.04 0.155 0 0.06 0.155 0 0.08 0.155 0 0.1 0.155 0 0 0.16 0 0.02 0.16 0 0.04 0.16 0 0.06 0.16 0 0.08 0.16 0 0.1 0.16 0 0 0.165 0 0.02 0.165 0 0.04 0.165 0 0.06 0.165 0 0.08 0.165 0 0.1 0.165 0 0 0.17 0 0.02 0.17 0 0.04 0.17 0 0.06 0.17 0 0.08 0.17 0 0.1 0.17 0 0 0.175 0 0.02 0.175 0 0.04 0.175 0 0.06 0.175 0 0.08 0.175 0 0.1 0.175 0 0 0.18 0 0.02 0.18 0 0.04 0.18 0 0.06 0.18 0 0.08 0.18 0 0.1 0.18 0 0 0.185 0 0.02 0.185 0 0.04 0.185 0 0.06 0.185 0 0.08 0.185 0 0.1 0.185 0 0 0.19 0 0.02 0.19 0 0.04 0.19 0 0.06 0.19 0 0.08 0.19 0 0.1 0.19 0 0 0.195 0 0.02 0.195 0 0.04 0.195 0 0.06 0.195 0 0.08 0.195 0 0.1 0.195 0 0 0.2 0 0.02 0.2 0 0.04 0.2 0 0.06 0.2 0 0.08 0.2 0 0.1 0.2 0 0 0.205 0 0.02 0.205 0 0.04 0.205 0 0.06 0.205 0 0.08 0.205 0 0.1 0.205 0 0 0.21 0 0.02 0.21 0 0.04 0.21 0 0.06 0.21 0 0.08 0.21 0 0.1 0.21 0 0 0.215 0 0.02 0.215 0 0.04 0.215 0 0.06 0.215 0 0.08 0.215 0 0.1 0.215 0 0 0.22 0 0.02 0.22 0 0.04 0.22 0 0.06 0.22 0 0.08 0.22 0 0.1 0.22 0 0 0.225 0 0.02 0.225 0 0.04 0.225 0 0.06 0.225 0 0.08 0.225 0 0.1 0.225 0 0 0.23 0 0.02 0.23 0 0.04 0.23 0 0.06 0.23 0 0.08 0.23 0 0.1 0.23 0 0 0.235 0 0.02 0.235 0 0.04 0.235 0 0.06 0.235 0 0.08 0.235 0 0.1 0.235 0 0 0.24 0 0.02 0.24 0 0.04 0.24 0 0.06 0.24 0 0.08 0.24 0 0.1 0.24 0 0 0.245 0 0.02 0.245 0 0.04 0.245 0 0.06 0.245 0 0.08 0.245 0 0.1 0.245 0 0 0.25 0 0.02 0.25 0 0.04 0.25 0 0.06 0.25 0 0.08 0.25 0 0.1 0.25 0 0 0.255 0 0.02 0.255 0 0.04 0.255 0 0.06 0.255 0 0.08 0.255 0 0.1 0.255 0 0 0.26 0 0.02 0.26 0 0.04 0.26 0 0.06 0.26 0 0.08 0.26 0 0.1 0.26 0 0 0.265 0 0.02 0.265 0 0.04 0.265 0 0.06 0.265 0 0.08 0.265 0 0.1 0.265 0 0 0.27 0 0.02 0.27 0 0.04 0.27 0 0.06 0.27 0 0.08 0.27 0 0.1 0.27 0 0 0.275 0 0.02 0.275 0 0.04 0.275 0 0.06 0.275 0 0.08 0.275 0 0.1 0.275 0 0 0.28 0 0.02 0.28 0 0.04 0.28 0 0.06 0.28 0 0.08 0.28 0 0.1 0.28 0 0 0.285 0 0.02 0.285 0 0.04 0.285 0 0.06 0.285 0 0.08 0.285 0 0.1 0.285 0 0 0.29 0 0.02 0.29 0 0.04 0.29 0 0.06 0.29 0 0.08 0.29 0 0.1 0.29 0 0 0.295 0 0.02 0.295 0 0.04 0.295 0 0.06 0.295 0 0.08 0.295 0 0.1 0.295 0 0 0.3 0 0.02 0.3 0 0.04 0.3 0 0.06 0.3 0 0.08 0.3 0 0.1 0.3 0 0 0.305 0 0.02 0.305 0 0.04 0.305 0 0.06 0.305 0 0.08 0.305 0 0.1 0.305 0 0 0.31 0 0.02 0.31 0 0.04 0.31 0 0.06 0.31 0 0.08 0.31 0 0.1 0.31 0 0 0.315 0 0.02 0.315 0 0.04 0.315 0 0.06 0.315 0 0.08 0.315 0 0.1 0.315 0 0 0.32 0 0.02 0.32 0 0.04 0.32 0 0.06 0.32 0 0.08 0.32 0 0.1 0.32 0 0 0.325 0 0.02 0.325 0 0.04 0.325 0 0.06 0.325 0 0.08 0.325 0 0.1 0.325 0 0 0.33 0 0.02 0.33 0 0.04 0.33 0 0.06 0.33 0 0.08 0.33 0 0.1 0.33 0 0 0.335 0 0.02 0.335 0 0.04 0.335 0 0.06 0.335 0 0.08 0.335 0 0.1 0.335 0 0 0.34 0 0.02 0.34 0 0.04 0.34 0 0.06 0.34 0 0.08 0.34 0 0.1 0.34 0 0 0.345 0 0.02 0.345 0 0.04 0.345 0 0.06 0.345 0 0.08 0.345 0 0.1 0.345 0 0 0.35 0 0.02 0.35 0 0.04 0.35 0 0.06 0.35 0 0.08 0.35 0 0.1 0.35 0 0 0.355 0 0.02 0.355 0 0.04 0.355 0 0.06 0.355 0 0.08 0.355 0 0.1 0.355 0 0 0.36 0 0.02 0.36 0 0.04 0.36 0 0.06 0.36 0 0.08 0.36 0 0.1 0.36 0 0 0.365 0 0.02 0.365 0 0.04 0.365 0 0.06 0.365 0 0.08 0.365 0 0.1 0.365 0 0 0.37 0 0.02 0.37 0 0.04 0.37 0 0.06 0.37 0 0.08 0.37 0 0.1 0.37 0 0 0.375 0 0.02 0.375 0 0.04 0.375 0 0.06 0.375 0 0.08 0.375 0 0.1 0.375 0 0 0.38 0 0.02 0.38 0 0.04 0.38 0 0.06 0.38 0 0.08 0.38 0 0.1 0.38 0 0 0.385 0 0.02 0.385 0 0.04 0.385 0 0.06 0.385 0 0.08 0.385 0 0.1 0.385 0 0 0.39 0 0.02 0.39 0 0.04 0.39 0 0.06 0.39 0 0.08 0.39 0 0.1 0.39 0 0 0.395 0 0.02 0.395 0 0.04 0.395 0 0.06 0.395 0 0.08 0.395 0 0.1 0.395 0 0 0.4 0 0.02 0.4 0 0.04 0.4 0 0.06 0.4 0 0.08 0.4 0 0.1 0.4 0 0 0.405 0 0.02 0.405 0 0.04 0.405 0 0.06 0.405 0 0.08 0.405 0 0.1 0.405 0 0 0.41 0 0.02 0.41 0 0.04 0.41 0 0.06 0.41 0 0.08 0.41 0 0.1 0.41 0 0 0.415 0 0.02 0.415 0 0.04 0.415 0 0.06 0.415 0 0.08 0.415 0 0.1 0.415 0 0 0.42 0 0.02 0.42 0 0.04 0.42 0 0.06 0.42 0 0.08 0.42 0 0.1 0.42 0 0 0.425 0 0.02 0.425 0 0.04 0.425 0 0.06 0.425 0 0.08 0.425 0 0.1 0.425 0 0 0.43 0 0.02 0.43 0 0.04 0.43 0 0.06 0.43 0 0.08 0.43 0 0.1 0.43 0 0 0.435 0 0.02 0.435 0 0.04 0.435 0 0.06 0.435 0 0.08 0.435 0 0.1 0.435 0 0 0.44 0 0.02 0.44 0 0.04 0.44 0 0.06 0.44 0 0.08 0.44 0 0.1 0.44 0 0 0.445 0 0.02 0.445 0 0.04 0.445 0 0.06 0.445 0 0.08 0.445 0 0.1 0.445 0 0 0.45 0 0.02 0.45 0 0.04 0.45 0 0.06 0.45 0 0.08 0.45 0 0.1 0.45 0 0 0.455 0 0.02 0.455 0 0.04 0.455 0 0.06 0.455 0 0.08 0.455 0 0.1 0.455 0 0 0.46 0 0.02 0.46 0 0.04 0.46 0 0.06 0.46 0 0.08 0.46 0 0.1 0.46 0 0 0.465 0 0.02 0.465 0 0.04 0.465 0 0.06 0.465 0 0.08 0.465 0 0.1 0.465 0 0 0.47 0 0.02 0.47 0 0.04 0.47 0 0.06 0.47 0 0.08 0.47 0 0.1 0.47 0 0 0.475 0 0.02 0.475 0 0.04 0.475 0 0.06 0.475 0 0.08 0.475 0 0.1 0.475 0 0 0.48 0 0.02 0.48 0 0.04 0.48 0 0.06 0.48 0 0.08 0.48 0 0.1 0.48 0 0 0.485 0 0.02 0.485 0 0.04 0.485 0 0.06 0.485 0 0.08 0.485 0 0.1 0.485 0 0 0.49 0 0.02 0.49 0 0.04 0.49 0 0.06 0.49 0 0.08 0.49 0 0.1 0.49 0 0 0.495 0 0.02 0.495 0 0.04 0.495 0 0.06 0.495 0 0.08 0.495 0 0.1 0.495 0 0 0.5 0 0.02 0.5 0 0.04 0.5 0 0.06 0.5 0 0.08 0.5 0 0.1 0.5 0 0 0.505 0 0.02 0.505 0 0.04 0.505 0 0.06 0.505 0 0.08 0.505 0 0.1 0.505 0 0 0.51 0 0.02 0.51 0 0.04 0.51 0 0.06 0.51 0 0.08 0.51 0 0.1 0.51 0 0 0.515 0 0.02 0.515 0 0.04 0.515 0 0.06 0.515 0 0.08 0.515 0 0.1 0.515 0 0 0.52 0 0.02 0.52 0 0.04 0.52 0 0.06 0.52 0 0.08 0.52 0 0.1 0.52 0 0 0.525 0 0.02 0.525 0 0.04 0.525 0 0.06 0.525 0 0.08 0.525 0 0.1 0.525 0 0 0.53 0 0.02 0.53 0 0.04 0.53 0 0.06 0.53 0 0.08 0.53 0 0.1 0.53 0 0 0.535 0 0.02 0.535 0 0.04 0.535 0 0.06 0.535 0 0.08 0.535 0 0.1 0.535 0 0 0.54 0 0.02 0.54 0 0.04 0.54 0 0.06 0.54 0 0.08 0.54 0 0.1 0.54 0 0 0.545 0 0.02 0.545 0 0.04 0.545 0 0.06 0.545 0 0.08 0.545 0 0.1 0.545 0 0 0.55 0 0.02 0.55 0 0.04 0.55 0 0.06 0.55 0 0.08 0.55 0 0.1 0.55 0 0 0.555 0 0.02 0.555 0 0.04 0.555 0 0.06 0.555 0 0.08 0.555 0 0.1 0.555 0 0 0.56 0 0.02 0.56 0 0.04 0.56 0 0.06 0.56 0 0.08 0.56 0 0.1 0.56 0 0 0.565 0 0.02 0.565 0 0.04 0.565 0 0.06 0.565 0 0.08 0.565 0 0.1 0.565 0 0 0.57 0 0.02 0.57 0 0.04 0.57 0 0.06 0.57 0 0.08 0.57 0 0.1 0.57 0 0 0.575 0 0.02 0.575 0 0.04 0.575 0 0.06 0.575 0 0.08 0.575 0 0.1 0.575 0 0 0.58 0 0.02 0.58 0 0.04 0.58 0 0.06 0.58 0 0.08 0.58 0 0.1 0.58 0 0 0.585 0 0.02 0.585 0 0.04 0.585 0 0.06 0.585 0 0.08 0.585 0 0.1 0.585 0 0 0.59 0 0.02 0.59 0 0.04 0.59 0 0.06 0.59 0 0.08 0.59 0 0.1 0.59 0 0 0.595 0 0.02 0.595 0 0.04 0.595 0 0.06 0.595 0 0.08 0.595 0 0.1 0.595 0 0 0.6 0 0.02 0.6 0 0.04 0.6 0 0.06 0.6 0 0.08 0.6 0 0.1 0.6 0 0 0.605 0 0.02 0.605 0 0.04 0.605 0 0.06 0.605 0 0.08 0.605 0 0.1 0.605 0 0 0.61 0 0.02 0.61 0 0.04 0.61 0 0.06 0.61 0 0.08 0.61 0 0.1 0.61 0 0 0.615 0 0.02 0.615 0 0.04 0.615 0 0.06 0.615 0 0.08 0.615 0 0.1 0.615 0 0 0.62 0 0.02 0.62 0 0.04 0.62 0 0.06 0.62 0 0.08 0.62 0 0.1 0.62 0 0 0.625 0 0.02 0.625 0 0.04 0.625 0 0.06 0.625 0 0.08 0.625 0 0.1 0.625 0 0 0.63 0 0.02 0.63 0 0.04 0.63 0 0.06 0.63 0 0.08 0.63 0 0.1 0.63 0 0 0.635 0 0.02 0.635 0 0.04 0.635 0 0.06 0.635 0 0.08 0.635 0 0.1 0.635 0 0 0.64 0 0.02 0.64 0 0.04 0.64 0 0.06 0.64 0 0.08 0.64 0 0.1 0.64 0 0 0.645 0 0.02 0.645 0 0.04 0.645 0 0.06 0.645 0 0.08 0.645 0 0.1 0.645 0 0 0.65 0 0.02 0.65 0 0.04 0.65 0 0.06 0.65 0 0.08 0.65 0 0.1 0.65 0 0 0.655 0 0.02 0.655 0 0.04 0.655 0 0.06 0.655 0 0.08 0.655 0 0.1 0.655 0 0 0.66 0 0.02 0.66 0 0.04 0.66 0 0.06 0.66 0 0.08 0.66 0 0.1 0.66 0 0 0.665 0 0.02 0.665 0 0.04 0.665 0 0.06 0.665 0 0.08 0.665 0 0.1 0.665 0 0 0.67 0 0.02 0.67 0 0.04 0.67 0 0.06 0.67 0 0.08 0.67 0 0.1 0.67 0 0 0.675 0 0.02 0.675 0 0.04 0.675 0 0.06 0.675 0 0.08 0.675 0 0.1 0.675 0 0 0.68 0 0.02 0.68 0 0.04 0.68 0 0.06 0.68 0 0.08 0.68 0 0.1 0.68 0 0 0.685 0 0.02 0.685 0 0.04 0.685 0 0.06 0.685 0 0.08 0.685 0 0.1 0.685 0 0 0.69 0 0.02 0.69 0 0.04 0.69 0 0.06 0.69 0 0.08 0.69 0 0.1 
[...]
			<PointData Scalars="VitesseX">
				<DataArray Name="VitesseX" type="Float32" format="ascii">
 0 2.05887e-15 9.89112e-15 -5.15168e-15 2.65347e-14 0 0 4.39529e-15 5.12434e-15 -5.64105e-16 2.51242e-14 0 0 1.27002e-14 -9.82003e-15 1.4522e-14 2.04682e-14 0 0 1.87672e-14 -1.86878e-14 2.84076e-14 1.61683e-14 0 0 1.94965e-14 -1.17017e-15 9.07306e-15 3.51039e-14 0 0 3.92227e-15 3.87139e-14 -1.42771e-14 4.88011e-14 0 0 -2.06293e-14 7.87647e-14 -2.22895e-14 4.78263e-14 0 0 5.83605e-15 3.59232e-14 5.26285e-14 -1.84906e-15 0 0 2.89775e-14 4.73949e-15 1.12247e-13 -4.1341e-14 0 0 4.00695e-14 1.35429e-14 1.02464e-13 -2.39319e-14 0 0 7.12055e-14 -3.97581e-15 9.68244e-14 -6.71756e-15 0 0 3.55662e-14 7.09235e-14 4.6883e-17 5.36344e-14 0 0 5.64146e-14 3.02769e-14 4.51105e-14 2.56947e-14 0 0 5.54153e-14 3.526e-14 4.81377e-14 1.30756e-14 0 0 2.42207e-14 8.83029e-14 -1.51192e-14 4.4061e-14 0 0 4.68278e-14 3.29875e-14 5.31122e-14 -1.92126e-15 0 0 1.0888e-14 7.4228e-14 4.19561e-14 -1.47426e-14 0 0 3.198e-14 1.06931e-14 1.1645e-13 -3.84548e-14 0 0 7.59914e-14 -7.12239e-14 1.68358e-13 -3.22732e-14 0 0 5.34456e-14 -2.84376e-14 8.84563e-14 2.78986e-14 0 0 4.46146e-14 -2.9859e-14 5.80017e-14 7.35744e-14 0 0 4.67826e-15 7.12766e-15 -9.12162e-15 1.37205e-13 0 0 -2.15635e-14 3.28768e-16 6.67428e-15 1.37515e-13 0 0 -4.53019e-14 6.75437e-15 1.4347e-15 1.63038e-13 0 0 -4.05904e-14 -8.16934e-15 2.2646e-14 1.70033e-13 0 0 4.66485e-14 -1.66036e-13 2.30122e-13 5.3011e-14 0 0 -2.31031e-14 -2.64886e-14 1.3061e-13 9.13546e-14 0 0 -4.75229e-14 4.59151e-14 7.53446e-14 8.94293e-14 0 0 -5.4019e-14 4.75986e-14 1.48461e-13 -3.15911e-15 0 0 -6.56477e-14 7.89228e-14 1.80176e-13 -6.96474e-14 0 0 -5.38353e-14 1.0168e-13 1.39282e-13 -5.98473e-14 0 0 -7.78776e-14 1.46498e-13 5.61965e-14 -2.37987e-14 0 0 -4.53307e-14 1.07628e-13 1.17252e-14 2.64322e-14 0 0 -6.41662e-14 1.4751e-13 -9.22573e-14 1.4167e-13 0 0 -1.51873e-14 8.9546e-14 -6.88067e-14 1.62474e-13 0 0 3.75899e-14 1.17507e-15 4.06185e-14 9.08714e-14 0 0 9.36755e-14 -1.04321e-13 2.39583e-13 -9.17394e-14 0 0 1.21731e-13 -1.00864e-13 2.68472e-13 -1.21964e-13 0 0 9.28378e-14 -1.88493e-14 1.50598e-13 -1.21163e-14 0 0 1.11594e-13 -9.34055e-15 1.06467e-13 -2.21642e-15 0 0 8.28281e-14 1.52362e-14 1.43948e-13 -8.38571e-14 0 0 3.69405e-14 6.20605e-14 1.97952e-13 -1.83964e-13 0 0 -2.23241e-14 2.38228e-13 -2.63757e-15 -6.37084e-14 0 0 8.43615e-14 2.11685e-13 -5.17533e-14 -1.04385e-14 0 0 2.24638e-13 6.5786e-14 8.43636e-14 -8.48504e-14 0 0 1.69224e-13 9.53316e-14 1.18859e-13 -7.79496e-14 0 0 1.83914e-13 3.41751e-14 2.28879e-13 -1.2707e-13 0 0 4.27649e-14 2.88942e-13 -6.93801e-14 8.96643e-14 0 0 9.36759e-14 1.88786e-13 -6.01887e-14 1.54826e-13 0 0 3.89959e-13 -3.24862e-13 2.95657e-13 3.65167e-14 0 0 4.86551e-13 -5.53314e-13 4.1372e-13 1.58954e-14 0 0 2.91168e-13 -2.82411e-13 1.33768e-13 1.06489e-13 0 0 2.75663e-14 2.3087e-13 -3.75708e-13 2.5999e-13 0 0 1.99992e-13 2.53274e-14 -1.36044e-13 -2.73793e-14 0 0 3.99722e-13 -2.37882e-13 6.92345e-14 -1.49474e-13 0 0 3.72162e-13 -1.04793e-13 -1.0488e-13 2.62153e-15 0 0 3.51117e-13 -1.01527e-13 4.76762e-14 -1.72987e-13 0 0 2.94641e-13 -4.96149e-14 7.9788e-14 -2.33638e-13 0 0 2.61593e-13 4.2364e-15 -1.93601e-14 -1.14267e-13 0 0 3.24686e-13 -1.16848e-13 7.67188e-14 -1.11142e-13 0 0 3.2528e-13 -8.29364e-14 8.04639e-14 -1.38512e-13 0 0 2.57242e-13 7.78562e-14 -1.94776e-14 -1.54973e-13 0 0 1.57104e-13 2.85617e-13 -2.49894e-13 -6.46174e-14 0 0 9.70464e-14 3.52799e-13 -2.89041e-13 -5.34804e-14 0 0 1.01044e-13 2.81668e-13 -1.36518e-13 -1.30992e-13 0 0 2.37172e-13 1.66073e-13 1.4612e-14 -2.34046e-13 0 0 4.07476e-13 1.05694e-13 6.17639e-14 -1.95383e-13 0 0 5.01353e-13 7.69493e-15 1.86566e-13 -1.89652e-13 0 0 4.67191e-13 -3.56018e-14 2.55175e-13 -1.71447e-13 0 0 3.31125e-13 1.38601e-13 9.00877e-15 5.68154e-14 0 0 3.81993e-13 5.11503e-14 1.2962e-13 7.18828e-15 0 0 3.94243e-13 1.39717e-13 1.53863e-13 1.07236e-13 0 0 3.17692e-13 6.45146e-13 1.56248e-13 5.18638e-13 0 0 6.92015e-13 1.79066e-12 1.37062e-12 1.14785e-12 0 0 3.31409e-12 6.07887e-12 5.79733e-12 3.8209e-12 0 0 1.30202e-11 2.10272e-11 2.12378e-11 1.31809e-11 0 0 4.15333e-11 6.72138e-11 6.70261e-11 4.1444e-11 0 0 1.13666e-10 1.84297e-10 1.82242e-10 1.12825e-10 0 0 2.66517e-10 4.28777e-10 4.24936e-10 2.61281e-10 0 0 5.34905e-10 8.57751e-10 8.4727e-10 5.18677e-10 0 0 9.32882e-10 1.48957e-09 1.46289e-09 8.90901e-10 0 0 1.44076e-09 2.28418e-09 2.22702e-09 1.34645e-09 0 0 2.00936e-09 3.15984e-09 3.04639e-09 1.82545e-09 0 0 2.57728e-09 4.00975e-09 3.81066e-09 2.25626e-09 0 0 3.08812e-09 4.74475e-09 4.43397e-09 2.58499e-09 0 0 3.49425e-09 5.29533e-09 4.85138e-09 2.78018e-09 0 0 3.75675e-09 5.61821e-09 5.04995e-09 2.82901e-09 0 0 3.86113e-09 5.67071e-09 4.9494e-09 2.70783e-09 0 0 3.73086e-09 5.41693e-09 4.64238e-09 2.46327e-09 0 0 3.41258e-09 4.87798e-09 4.05826e-09 2.07907e-09 0 0 2.82678e-09 4.00254e-09 3.24847e-09 1.6265e-09 0 0 1.93799e-09 2.75912e-09 2.2286e-09 1.05463e-09 0 0 9.03054e-10 1.3295e-09 1.04998e-09 4.99798e-10 0 0 -6.92946e-10 -6.99074e-10 -2.97136e-10 -8.59056e-11 0 0 -2.23042e-09 -2.70222e-09 -1.73962e-09 -6.71069e-10 0 0 -4.1533e-09 -5.06417e-09 -3.34446e-09 -1.23041e-09 0 0 -6.51489e-09 -7.97366e-09 -4.97467e-09 -1.7362e-09 0 0 -8.85725e-09 -1.03325e-08 -6.50707e-09 -2.16555e-09 0 0 -1.04504e-08 -1.29568e-08 -8.63851e-09 -3.92289e-09 0 0 -1.73645e-08 -4.0496e-09 -8.27419e-09 -1.37268e-08 0 0 -2.42393e-08 -3.90242e-09 -5.20284e-09 -2.17304e-08 0 0 -1.7599e-08 -2.07341e-08 -6.03642e-09 -1.02693e-08 0 0 -3.21904e-09 -5.01676e-08 -1.27232e-08 2.08117e-08 0 0 -3.3677e-09 -5.01986e-08 -1.98765e-08 2.35655e-08 0 0 -9.07253e-09 -3.9203e-08 -2.17946e-08 1.94502e-08 0 0 -1.31941e-08 -1.19232e-08 -2.07956e-08 2.72424e-09 0 0 -1.24601e-08 1.25458e-08 -1.4909e-08 -1.69609e-08 0 0 -8.13321e-09 1.47484e-08 -7.58174e-09 -2.63464e-08 0 0 -5.49811e-09 1.34653e-08 -2.51079e-09 -2.84994e-08 0 0 -6.72359e-09 1.0471e-08 6.84726e-09 -3.39344e-08 0 0 -6.60362e-09 6.88276e-09 1.39661e-08 -3.35432e-08 0 0 -4.7386e-09 7.37622e-10 1.33109e-08 -2.97622e-08 0 0 -5.21607e-10 1.6351e-10 7.22554e-09 -1.6828e-08 0 0 3.84122e-09 2.02133e-09 -1.60023e-08 1.28961e-08 0 0 3.93007e-09 -2.00058e-09 -1.38728e-08 1.07637e-08 0 0 1.15517e-09 -1.37774e-08 1.3141e-08 -1.79284e-08 0 0 1.21887e-09 -1.64883e-08 1.65699e-08 -2.21483e-08 0 0 1.71515e-09 -1.49949e-08 1.69253e-08 -2.19067e-08 0 0 -4.52341e-09 -6.30029e-09 2.85503e-08 -3.60803e-08 0 0 -1.09707e-08 1.19873e-08 3.03353e-08 -3.96571e-08 0 0 -1.06818e-08 1.74828e-08 2.45012e-08 -3.23979e-08 0 0 -6.99378e-09 1.58743e-08 1.44343e-08 -1.78158e-08 0 0 -2.10454e-09 1.02117e-08 7.14431e-09 -6.64001e-09 0 0 2.12341e-09 3.51021e-09 2.33161e-09 1.13056e-09 0 0 4.10169e-09 -2.2777e-10 -1.36747e-09 4.46052e-09 0 0 4.05853e-09 5.43357e-11 -2.69096e-09 4.96736e-09 0 0 3.40918e-09 1.60159e-09 -2.5949e-09 4.81663e-09 0 0 2.59335e-09 2.43964e-09 -1.52103e-09 3.93569e-09 0 0 2.29055e-09 2.36576e-09 7.75533e-10 2.06217e-09 0 0 2.16204e-09 2.17522e-09 2.08611e-09 7.62783e-10 0 0 1.85475e-09 2.10021e-09 2.07145e-09 6.616e-10 0 0 1.43664e-09 1.87634e-09 1.61622e-09 6.70526e-10 0 0 1.02968e-09 1.39519e-09 1.10236e-09 5.57321e-10 0 0 6.66283e-10 9.13156e-10 7.1456e-10 3.65175e-10 0 0 3.7583e-10 5.17639e-10 4.13599e-10 2.06428e-10 0 0 1.78545e-10 2.47958e-10 1.98717e-10 9.80915e-11 0 0 6.80875e-11 9.45513e-11 7.483e-11 3.65487e-11 0 0 1.95053e-11 2.64957e-11 2.01511e-11 9.2971e-12 0 0 3.6411e-12 4.22921e-12 2.76856e-12 7.31057e-13 0 0 2.80145e-13 -2.6148e-13 -6.07387e-13 -5.40318e-13 0 0 6.08841e-14 -3.46223e-13 -5.51301e-13 -2.67076e-13 0 0 2.97976e-13 6.07377e-16 -7.57544e-14 -3.0984e-15 0 0 3.25729e-13 3.96447e-13 -1.35584e-14 2.84775e-13 0 0 3.50287e-13 5.70784e-13 -4.22609e-15 3.09105e-13 0 0 5.28476e-13 3.74632e-13 2.84294e-13 7.04436e-14 0 0 5.9088e-13 2.8817e-13 4.04515e-13 -1.77246e-14 0 0 5.07912e-13 4.18661e-13 2.1342e-13 1.249e-13 0 0 2.92501e-13 7.28398e-13 -1.77727e-13 4.17922e-13 0 0 2.50492e-13 7.61013e-13 -2.55105e-13 5.12168e-13 0 0 5.18669e-13 2.86947e-13 2.03756e-13 3.33068e-13 0 0 4.74812e-13 2.999e-13 2.09617e-13 3.84593e-13 0 0 3.4603e-13 5.03346e-13 6.73082e-14 3.92978e-13 0 0 3.77152e-13 5.14408e-13 9.64657e-14 3.61641e-13 0 0 4.70185e-13 4.70496e-13 1.99823e-13 2.81426e-13 0 0 5.49344e-13 4.27745e-13 2.73317e-13 2.87701e-13 0 0 5.16601e-13 5.09971e-13 2.62237e-13 3.70728e-13 0 0 5.49805e-13 4.36639e-13 4.74327e-13 2.43284e-13 0 0 4.89988e-13 5.30203e-13 5.11557e-13 1.66504e-13 0 0 5.11537e-13 6.0979e-13 4.16021e-13 1.51733e-13 0 0 6.38869e-13 5.35146e-13 2.69103e-13 4.06905e-13 0 0 6.96689e-13 4.41436e-13 3.27259e-13 5.03332e-13 0 0 5.0032e-13 5.54465e-13 4.74006e-13 3.76293e-13 0 0 1.62856e-13 1.00023e-12 3.12009e-13 4.62617e-13 0 0 9.22827e-14 1.1532e-12 3.49797e-13 3.57509e-13 0 0 2.34412e-13 8.66396e-13 6.47342e-13 1.3199e-13 0 0 2.35012e-13 8.19506e-13 6.22731e-13 2.29029e-13 0 0 4.28571e-13 5.70326e-13 7.94128e-13 1.21179e-13 0 0 5.36452e-13 5.02925e-13 7.08079e-13 1.14122e-13 0 0 4.67266e-13 5.51357e-13 6.00401e-13 8.80712e-14 0 0 2.72006e-13 6.49912e-13 4.67294e-13 1.15285e-13 0 0 1.9683e-13 5.81262e-13 5.96717e-13 -1.15427e-14 0 0 2.85283e-13 4.3328e-13 7.05186e-13 1.82607e-14 0 0 5.16838e-14 8.69753e-13 1.24523e-13 4.57328e-13 0 0 3.6105e-13 4.56589e-13 4.13402e-13 2.92575e-13 0 0 3.4802e-13 3.43556e-13 4.89182e-13 3.774e-13 0 0 9.67069e-14 5.66582e-13 3.26446e-13 5.71811e-13 0 0 2.19665e-13 4.14823e-13 4.74554e-13 5.12976e-13 0 0 3.60113e-13 2.89858e-13 6.48703e-13 3.49102e-13 0 0 5.53929e-13 7.2447e-14 9.00455e-13 9.8836e-14 0 0 3.11812e-13 3.50105e-13 7.46139e-13 1.24893e-13 0 0 2.63183e-13 3.68822e-13 6.7699e-13 1.6905e-13 0 0 3.84978e-13 3.62615e-13 4.82345e-13 3.68261e-13 0 0 3.43121e-13 4.51122e-13 4.58452e-13 3.91709e-13 0 0 3.68581e-13 3.68067e-13 7.11848e-13 6.40471e-14 0 0 2.51423e-13 6.42884e-13 2.77292e-13 2.77494e-13 0 0 3.75374e-13 5.40832e-13 2.48175e-13 2.45279e-13 0 0 5.11231e-13 5.00164e-13 3.42817e-13 4.55819e-14 0 0 4.73236e-13 6.33298e-13 1.86836e-13 1.32088e-13 0 0 5.53101e-13 4.19191e-13 4.96888e-13 -1.32343e-14 0 0 3.67039e-13 6.01872e-13 3.31313e-13 1.99031e-13 0 0 6.35629e-13 1.99629e-13 5.37956e-13 2.45603e-13 0 0 8.02345e-13 -6.046e-14 8.50007e-13 1.93133e-14 0 0 1.58722e-13 8.0515e-13 4.09749e-13 8.75298e-14 0 0 5.47071e-14 1.05773e-12 3.17891e-14 3.73742e-13 0 0 5.4756e-13 5.38556e-13 2.49261e-13 3.28886e-13 0 0 8.61649e-13 2.41113e-13 5.08707e-13 2.32189e-13 0 0 5.32894e-13 6.31477e-13 1.04733e-13 7.20309e-13 0 0 6.74112e-15 1.17349e-12 -1.17714e-13 8.39471e-13 0 0 1.36456e-13 8.06124e-13 3.93499e-13 4.49152e-13 0 0 6.23378e-13 -3.30451e-14 9.50684e-13 2.40242e-13 0 0 8.3886e-13 -3.26941e-13 1.05276e-12 2.23795e-13 0
				</DataArray>
				<DataArray Name="VitesseY" type="Float32" format="ascii">