<?xml version="1.0"?>
<VTKFile type="PolyData">
	<PolyData>
		<Piece NumberOfPoints="1206" NumberOfPolys="1000">
			<Points>
				<DataArray type="Float32" NumberOfComponents="3" format="ascii">
 0 0 0 0.02 0 0 0.04 0 0 0.06 0 0 0.08 0 0 0.1 0 0 0 0.005 0 0.02 0.005 0 0.04 0.005 0 0.06 0.005 0 0.08 0.005 0 0.1 0.005 0 0 0.01 0 0.02 0.01 0 0.04 0.01 0 0.06 0.01 0 0.08 0.01 0 0.1 0.01 0 0 0.015 0 0.02 0.015 0 0.04 0.015 0 0.06 0.015 0 0.08 0.015 0 0.1 0.015 0 0 0.02 0 0.02 0.02 0 0.04 0.02 0 0.06 0.02 0 0.08 0.02 0 0.1 0.02 0 0 0.025 0 0.02 0.025 0 0.04 0.025 0 0.06 0.025 0 0.08 0.025 0 0.1 0.025 0 0 0.03 0 0.02 0.03 0 0.04 0.03 0 0.06 0.03 0 0.08 0.03 0 0.1 0.03 0 0 0.035 0 0.02 0.035 0 0.04 0.035 0 0.06 0.035 0 0.08 0.035 0 0.1 0.035 0 0 0.04 0 0.02 0.04 0 0.04 0.04 0 0.06 0.04 0 0.08 0.04 0 0.1 0.04 0 0 0.045 0 0.02 0.045 0 0.04 0.045 0 0.06 0.045 0 0.08 0.045 0 0.1 0.045 0 0 0.05 0 0.02 0.05 0 0.04 0.05 0 0.06 0.05 0 0.08 0.05 0 0.1 0.05 0 0 0.055 0 0.02 0.055 0 0.04 0.055 0 0.06 0.055 0 0.08 0.055 0 0.1 0.055 0 0 0.06 0 0.02 0.06 0 0.04 0.06 0 0.06 0.06 0 0.08 0.06 0 0.1 0.06 0 0 0.065 0 0.02 0.065 0 0.04 0.065 0 0.06 0.065 0 0.08 0.065 0 0.1 0.065 0 0 0.07 0 0.02 0.07 0 0.04 0.07 0 0.06 0.07 0 0.08 0.07 0 0.1 0.07 0 0 0.075 0 0.02 0.075 0 0.04 0.075 0 0.06 0.075 0 0.08 0.075 0 0.1 0.075 0 0 0.08 0 0.02 0.08 0 0.04 0.08 0 0.06 0.08 0 0.08 0.08 0 0.1 0.08 0 0 0.085 0 0.02 0.085 0 0.04 0.085 0 0.06 0.085 0 0.08 0.085 0 0.1 0.085 0 0 0.09 0 0.02 0.09 0 0.04 0.09 0 0.06 0.09 0 0.08 0.09 0 0.1 0.09 0 0 0.095 0 0.02 0.095 0 0.04 0.095 0 0.06 0.095 0 0.08 0.095 0 0.1 0.095 0 0 0.1 0 0.02 0.1 0 0.04 0.1 0 0.06 0.1 0 0.08 0.1 0 0.1 0.1 0 0 0.105 0 0.02 0.105 0 0.04 0.105 0 0.06 0.105 0 0.08 0.105 0 0.1 0.105 0 0 0.11 0 0.02 0.11 0 0.04 0.11 0 0.06 0.11 0 0.08 0.11 0 0.1 0.11 0 0 0.115 0 0.02 0.115 0 0.04 0.115 0 0.06 0.115 0 0.08 0.115 0 0.1 0.115 0 0 0.12 0 0.02 0.12 0 0.04 0.12 0 0.06 0.12 0 0.08 0.12 0 0.1 0.12 0 0 0.125 0 0.02 0.125 0 0.04 0.125 0 0.06 0.125 0 0.08 0.125 0 0.1 0.125 0 0 0.13 0 0.02 0.13 0 0.04 0.13 0 0.06 0.13 0 0.08 0.13 0 0.1 0.13 0 0 0.135 0 0.02 0.135 0 0.04 0.135 0 0.06 0.135 0 0.08 0.135 0 0.1 0.135 0 0 0.14 0 0.02 0.14 0 0.04 0.14 0 0.06 0.14 0 0.08 0.14 0 0.1 0.14 0 0 0.145 0 0.02 0.145 0 0.04 0.145 0 0.06 0.145 0 0.08 0.145 0 0.1 0.145 0 0 0.15 0 0.02 0.15 0 0.04 0.15 0 0.06 0.15 0 0.08 0.15 0 0.1 0.15 0 0 0.155 0 0.02 0.155 0 0.04 0.155 0 0.06 0.155 0 0.08 0.155 0 0.1 0.155 0 0 0.16 0 0.02 0.16 0 0.04 0.16 0 0.06 0.16 0 0.08 0.16 0 0.1 0.16 0 0 0.165 0 0.02 0.165 0 0.04 0.165 0 0.06 0.165 0 0.08 0.165 0 0.1 0.165 0 0 0.17 0 0.02 0.17 0 0.04 0.17 0 0.06 0.17 0 0.08 0.17 0 0.1 0.17 0 0 0.175 0 0.02 0.175 0 0.04 0.175 0 0.06 0.175 0 0.08 0.175 0 0.1 0.175 0 0 0.18 0 0.02 0.18 0 0.04 0.18 0 0.06 0.18 0 0.08 0.18 0 0.1 0.18 0 0 0.185 0 0.02 0.185 0 0.04 0.185 0 0.06 0.185 0 0.08 0.185 0 0.1 0.185 0 0 0.19 0 0.02 0.19 0 0.04 0.19 0 0.06 0.19 0 0.08 0.19 0 0.1 0.19 0 0 0.195 0 0.02 0.195 0 0.04 0.195 0 0.06 0.195 0 0.08 0.195 0 0.1 0.195 0 0 0.2 0 0.02 0.2 0 0.04 0.2 0 0.06 0.2 0 0.08 0.2 0 0.1 0.2 0 0 0.205 0 0.02 0.205 0 0.04 0.205 0 0.06 0.205 0 0.08 0.205 0 0.1 0.205 0 0 0.21 0 0.02 0.21 0 0.04 0.21 0 0.06 0.21 0 0.08 0.21 0 0.1 0.21 0 0 0.215 0 0.02 0.215 0 0.04 0.215 0 0.06 0.215 0 0.08 0.215 0 0.1 0.215 0 0 0.22 0 0.02 0.22 0 0.04 0.22 0 0.06 0.22 0 0.08 0.22 0 0.1 0.22 0 0 0.225 0 0.02 0.225 0 0.04 0.225 0 0.06 0.225 0 0.08 0.225 0 0.1 0.225 0 0 0.23 0 0.02 0.23 0 0.04 0.23 0 0.06 0.23 0 0.08 0.23 0 0.1 0.23 0 0 0.235 0 0.02 0.235 0 0.04 0.235 0 0.06 0.235 0 0.08 0.235 0 0.1 0.235 0 0 0.24 0 0.02 0.24 0 0.04 0.24 0 0.06 0.24 0 0.08 0.24 0 0.1 0.24 0 0 0.245 0 0.02 0.245 0 0.04 0.245 0 0.06 0.245 0 0.08 0.245 0 0.1 0.245 0 0 0.25 0 0.02 0.25 0 0.04 0.25 0 0.06 0.25 0 0.08 0.25 0 0.1 0.25 0 0 0.255 0 0.02 0.255 0 0.04 0.255 0 0.06 0.255 0 0.08 0.255 0 0.1 0.255 0 0 0.26 0 0.02 0.26 0 0.04 0.26 0 0.06 0.26 0 0.08 0.26 0 0.1 0.26 0 0 0.265 0 0.02 0.265 0 0.04 0.265 0 0.06 0.265 0 0.08 0.265 0 0.1 0.265 0 0 0.27 0 0.02 0.27 0 0.04 0.27 0 0.06 0.27 0 0.08 0.27 0 0.1 0.27 0 0 0.275 0 0.02 0.275 0 0.04 0.275 0 0.06 0.275 0 0.08 0.275 0 0.1 0.275 0 0 0.28 0 0.02 0.28 0 0.04 0.28 0 0.06 0.28 0 0.08 0.28 0 0.1 0.28 0 0 0.285 0 0.02 0.285 0 0.04 0.285 0 0.06 0.285 0 0.08 0.285 0 0.1 0.285 0 0 0.29 0 0.02 0.29 0 0.04 0.29 0 0.06 0.29 0 0.08 0.29 0 0.1 0.29 0 0 0.295 0 0.02 0.295 0 0.04 0.295 0 0.06 0.295 0 0.08 0.295 0 0.1 0.295 0 0 0.3 0 0.02 0.3 0 0.04 0.3 0 0.06 0.3 0 0.08 0.3 0 0.1 0.3 0 0 0.305 0 0.02 0.305 0 0.04 0.305 0 0.06 0.305 0 0.08 0.305 0 0.1 0.305 0 0 0.31 0 0.02 0.31 0 0.04 0.31 0 0.06 0.31 0 0.08 0.31 0 0.1 0.31 0 0 0.315 0 0.02 0.315 0 0.04 0.315 0 0.06 0.315 0 0.08 0.315 0 0.1 0.315 0 0 0.32 0 0.02 0.32 0 0.04 0.32 0 0.06 0.32 0 0.08 0.32 0 0.1 0.32 0 0 0.325 0 0.02 0.325 0 0.04 0.325 0 0.06 0.325 0 0.08 0.325 0 0.1 0.325 0 0 0.33 0 0.02 0.33 0 0.04 0.33 0 0.06 0.33 0 0.08 0.33 0 0.1 0.33 0 0 0.335 0 0.02 0.335 0 0.04 0.335 0 0.06 0.335 0 0.08 0.335 0 0.1 0.335 0 0 0.34 0 0.02 0.34 0 0.04 0.34 0 0.06 0.34 0 0.08 0.34 0 0.1 0.34 0 0 0.345 0 0.02 0.345 0 0.04 0.345 0 0.06 0.345 0 0.08 0.345 0 0.1 0.345 0 0 0.35 0 0.02 0.35 0 0.04 0.35 0 0.06 0.35 0 0.08 0.35 0 0.1 0.35 0 0 0.355 0 0.02 0.355 0 0.04 0.355 0 0.06 0.355 0 0.08 0.355 0 0.1 0.355 0 0 0.36 0 0.02 0.36 0 0.04 0.36 0 0.06 0.36 0 0.08 0.36 0 0.1 0.36 0 0 0.365 0 0.02 0.365 0 0.04 0.365 0 0.06 0.365 0 0.08 0.365 0 0.1 0.365 0 0 0.37 0 0.02 0.37 0 0.04 0.37 0 0.06 0.37 0 0.08 0.37 0 0.1 0.37 0 0 0.375 0 0.02 0.375 0 0.04 0.375 0 0.06 0.375 0 0.08 0.375 0 0.1 0.375 0 0 0.38 0 0.02 0.38 0 0.04 0.38 0 0.06 0.38 0 0.08 0.38 0 0.1 0.38 0 0 0.385 0 0.02 0.385 0 0.04 0.385 0 0.06 0.385 0 0.08 0.385 0 0.1 0.385 0 0 0.39 0 0.02 0.39 0 0.04 0.39 0 0.06 0.39 0 0.08 0.39 0 0.1 0.39 0 0 0.395 0 0.02 0.395 0 0.04 0.395 0 0.06 0.395 0 0.08 0.395 0 0.1 0.395 0 0 0.4 0 0.02 0.4 0 0.04 0.4 0 0.06 0.4 0 0.08 0.4 0 0.1 0.4 0 0 0.405 0 0.02 0.405 0 0.04 0.405 0 0.06 0.405 0 0.08 0.405 0 0.1 0.405 0 0 0.41 0 0.02 0.41 0 0.04 0.41 0 0.06 0.41 0 0.08 0.41 0 0.1 0.41 0 0 0.415 0 0.02 0.415 0 0.04 0.415 0 0.06 0.415 0 0.08 0.415 0 0.1 0.415 0 0 0.42 0 0.02 0.42 0 0.04 0.42 0 0.06 0.42 0 0.08 0.42 0 0.1 0.42 0 0 0.425 0 0.02 0.425 0 0.04 0.425 0 0.06 0.425 0 0.08 0.425 0 0.1 0.425 0 0 0.43 0 0.02 0.43 0 0.04 0.43 0 0.06 0.43 0 0.08 0.43 0 0.1 0.43 0 0 0.435 0 0.02 0.435 0 0.04 0.435 0 0.06 0.435 0 0.08 0.435 0 0.1 0.435 0 0 0.44 0 0.02 0.44 0 0.04 0.44 0 0.06 0.44 0 0.08 0.44 0 0.1 0.44 0 0 0.445 0 0.02 0.445 0 0.04 0.445 0 0.06 0.445 0 0.08 0.445 0 0.1 0.445 0 0 0.45 0 0.02 0.45 0 0.04 0.45 0 0.06 0.45 0 0.08 0.45 0 0.1 0.45 0 0 0.455 0 0.02 0.455 0 0.04 0.455 0 0.06 0.455 0 0.08 0.455 0 0.1 0.455 0 0 0.46 0 0.02 0.46 0 0.04 0.46 0 0.06 0.46 0 0.08 0.46 0 0.1 0.46 0 0 0.465 0 0.02 0.465 0 0.04 0.465 0 0.06 0.465 0 0.08 0.465 0 0.1 0.465 0 0 0.47 0 0.02 0.47 0 0.04 0.47 0 0.06 0.47 0 0.08 0.47 0 0.1 0.47 0 0 0.475 0 0.02 0.475 0 0.04 0.475 0 0.06 0.475 0 0.08 0.475 0 0.1 0.475 0 0 0.48 0 0.02 0.48 0 0.04 0.48 0 0.06 0.48 0 0.08 0.48 0 0.1 0.48 0 0 0.485 0 0.02 0.485 0 0.04 0.485 0 0.06 0.485 0 0.08 0.485 0 0.1 0.485 0 0 0.49 0 0.02 0.49 0 0.04 0.49 0 0.06 0.49 0 0.08 0.49 0 0.1 0.49 0 0 0.495 0 0.02 0.495 0 0.04 0.495 0 0.06 0.495 0 0.08 0.495 0 0.1 0.495 0 0 0.5 0 0.02 0.5 0 0.04 0.5 0 0.06 0.5 0 0.08 0.5 0 0.1 0.5 0 0 0.505 0 0.02 0.505 0 0.04 0.505 0 0.06 0.505 0 0.08 0.505 0 0.1 0.505 0 0 0.51 0 0.02 0.51 0 0.04 0.51 0 0.06 0.51 0 0.08 0.51 0 0.1 0.51 0 0 0.515 0 0.02 0.515 0 0.04 0.515 0 0.06 0.515 0 0.08 0.515 0 0.1 0.515 0 0 0.52 0 0.02 0.52 0 0.04 0.52 0 0.06 0.52 0 0.08 0.52 0 0.1 0.52 0 0 0.525 0 0.02 0.525 0 0.04 0.525 0 0.06 0.525 0 0.08 0.525 0 0.1 0.525 0 0 0.53 0 0.02 0.53 0 0.04 0.53 0 0.06 0.53 0 0.08 0.53 0 0.1 0.53 0 0 0.535 0 0.02 0.535 0 0.04 0.535 0 0.06 0.535 0 0.08 0.535 0 0.1 0.535 0 0 0.54 0 0.02 0.54 0 0.04 0.54 0 0.06 0.54 0 0.08 0.54 0 0.1 0.54 0 0 0.545 0 0.02 0.545 0 0.04 0.545 0 0.06 0.545 0 0.08 0.545 0 0.1 0.545 0 0 0.55 0 0.02 0.55 0 0.04 0.55 0 0.06 0.55 0 0.08 0.55 0 0.1 0.55 0 0 0.555 0 0.02 0.555 0 0.04 0.555 0 0.06 0.555 0 0.08 0.555 0 0.1 0.555 0 0 0.56 0 0.02 0.56 0 0.04 0.56 0 0.06 0.56 0 0.08 0.56 0 0.1 0.56 0 0 0.565 0 0.02 0.565 0 0.04 0.565 0 0.06 0.565 0 0.08 0.565 0 0.1 0.565 0 0 0.57 0 0.02 0.57 0 0.04 0.57 0 0.06 0.57 0 0.08 0.57 0 0.1 0.57 0 0 0.575 0 0.02 0.575 0 0.04 0.575 0 0.06 0.575 0 0.08 0.575 0 0.1 0.575 0 0 0.58 0 0.02 0.58 0 0.04 0.58 0 0.06 0.58 0 0.08 0.58 0 0.1 0.58 0 0 0.585 0 0.02 0.585 0 0.04 0.585 0 0.06 0.585 0 0.08 0.585 0 0.1 0.585 0 0 0.59 0 0.02 0.59 0 0.04 0.59 0 0.06 0.59 0 0.08 0.59 0 0.1 0.59 0 0 0.595 0 0.02 0.595 0 0.04 0.595 0 0.06 0.595 0 0.08 0.595 0 0.1 0.595 0 0 0.6 0 0.02 0.6 0 0.04 0.6 0 0.06 0.6 0 0.08 0.6 0 0.1 0.6 0 0 0.605 0 0.02 0.605 0 0.04 0.605 0 0.06 0.605 0 0.08 0.605 0 0.1 0.605 0 0 0.61 0 0.02 0.61 0 0.04 0.61 0 0.06 0.61 0 0.08 0.61 0 0.1 0.61 0 0 0.615 0 0.02 0.615 0 0.04 0.615 0 0.06 0.615 0 0.08 0.615 0 0.1 0.615 0 0 0.62 0 0.02 0.62 0 0.04 0.62 0 0.06 0.62 0 0.08 0.62 0 0.1 0.62 0 0 0.625 0 0.02 0.625 0 0.04 0.625 0 0.06 0.625 0 0.08 0.625 0 0.1 0.625 0 0 0.63 0 0.02 0.63 0 0.04 0.63 0 0.06 0.63 0 0.08 0.63 0 0.1 0.63 0 0 0.635 0 0.02 0.635 0 0.04 0.635 0 0.06 0.635 0 0.08 0.635 0 0.1 0.635 0 0 0.64 0 0.02 0.64 0 0.04 0.64 0 0.06 0.64 0 0.08 0.64 0 0.1 0.64 0 0 0.645 0 0.02 0.645 0 0.04 0.645 0 0.06 0.645 0 0.08 0.645 0 0.1 0.645 0 0 0.65 0 0.02 0.65 0 0.04 0.65 0 0.06 0.65 0 0.08 0.65 0 0.1 0.65 0 0 0.655 0 0.02 0.655 0 0.04 0.655 0 0.06 0.655 0 0.08 0.655 0 0.1 0.655 0 0 0.66 0 0.02 0.66 0 0.04 0.66 0 0.06 0.66 0 0.08 0.66 0 0.1 0.66 0 0 0.665 0 0.02 0.665 0 0.04 0.665 0 0.06 0.665 0 0.08 0.665 0 0.1 0.665 0 0 0.67 0 0.02 0.67 0 0.04 0.67 0 0.06 0.67 0 0.08 0.67 0 0.1 0.67 0 0 0.675 0 0.02 0.675 0 0.04 0.675 0 0.06 0.675 0 0.08 0.675 0 0.1 0.675 0 0 0.68 0 0.02 0.68 0 0.04 0.68 0 0.06 0.68 0 0.08 0.68 0 0.1 0.68 0 0 0.685 0 0.02 0.685 0 0.04 0.685 0 0.06 0.685 0 0.08 0.685 0 0.1 0.685 0 0 0.69 0 0.02 0.69 0 0.04 0.69 0 0.06 0.69 0 0.08 0.69 0 0.1 
[...]
			<PointData Scalars="VitesseX">
				<DataArray Name="VitesseX" type="Float32" format="ascii">
 0 9.12888e-15 -6.3689e-14 4.75396e-14 2.13073e-15 0 0 1.34215e-14 -5.98781e-14 3.24347e-14 1.38252e-14 0 0 -1.12541e-14 9.75398e-15 -6.35395e-14 7.3382e-14 0 0 1.71752e-14 -3.98158e-14 -9.76213e-15 2.07388e-14 0 0 1.90179e-14 -4.46087e-14 -1.70449e-14 2.18602e-14 0 0 -3.41679e-14 4.89842e-14 -1.2754e-13 7.76858e-14 0 0 -1.81512e-14 -3.57634e-14 9.10768e-15 -6.13157e-14 0 0 2.81182e-14 -1.80457e-13 2.04831e-13 -2.02123e-13 0 0 5.30062e-15 -1.27821e-13 1.14258e-13 -1.10555e-13 0 0 -5.64349e-14 3.53171e-14 -1.29637e-13 6.08844e-14 0 0 7.01386e-15 -5.15847e-14 -8.98729e-14 3.32386e-14 0 0 -2.74083e-14 -4.28004e-17 -1.95836e-13 7.99624e-14 0 0 5.83963e-14 -2.18139e-13 4.1449e-14 -1.10737e-13 0 0 3.97816e-15 -1.64432e-13 -7.84237e-15 -7.14195e-14 0 0 -8.34279e-14 -7.07772e-14 -6.71683e-14 -9.23892e-15 0 0 3.99138e-14 -3.33476e-13 2.6504e-13 -1.90926e-13 0 0 -1.16505e-13 2.34015e-14 -1.70137e-13 1.37331e-13 0 0 -5.78795e-14 -7.25755e-14 -8.83435e-14 1.72086e-13 0 0 -4.80295e-14 -9.17255e-14 -8.40487e-14 2.38963e-13 0 0 -1.19191e-13 3.59531e-14 -1.74841e-13 2.12763e-13 0 0 2.64198e-14 -2.81833e-13 2.90025e-13 -2.56222e-13 0 0 1.06687e-14 -2.08497e-13 1.97632e-13 -3.17906e-13 0 0 -5.85572e-14 6.87188e-14 -2.75705e-13 1.43759e-14 0 0 -9.41955e-14 1.79043e-13 -5.10239e-13 2.01451e-13 0 0 2.77837e-14 -1.9437e-13 -1.76673e-14 -1.81301e-13 0 0 2.03322e-13 -6.10036e-13 4.97517e-13 -5.32402e-13 0 0 4.12984e-14 -1.83447e-13 -2.46712e-14 -1.32177e-13 0 0 -1.23119e-13 2.47474e-13 -5.02698e-13 2.28786e-13 0 0 -5.08547e-14 8.48848e-14 -3.21636e-13 7.92424e-14 0 0 1.0535e-13 -2.57208e-13 8.74529e-14 -2.00148e-13 0 0 3.05976e-14 -1.68048e-13 8.10585e-16 -9.59098e-14 0 0 5.20439e-14 -2.46072e-13 6.97162e-14 -1.80662e-13 0 0 3.71813e-14 -1.82518e-13 -2.01904e-14 -1.7021e-13 0 0 -1.87425e-13 2.65757e-13 -5.92453e-13 2.82474e-13 0 0 5.41956e-14 -1.64604e-13 -7.57176e-14 -4.7323e-14 0 0 1.24415e-13 -4.02373e-13 2.68004e-13 -2.71253e-13 0 0 1.31898e-13 -3.47898e-13 7.008e-14 7.18023e-14 0 0 -6.55583e-14 1.40057e-13 -5.64839e-13 6.37318e-13 0 0 -8.81542e-14 9.61112e-14 -5.60119e-13 7.00071e-13 0 0 5.23945e-14 -2.55341e-13 -1.42916e-13 3.70057e-13 0 0 5.29572e-14 -2.43128e-13 -1.83613e-14 9.59695e-14 0 0 1.15285e-13 -3.52955e-13 1.5409e-13 -1.69697e-13 0 0 -1.03121e-13 9.34961e-15 -1.25909e-13 -1.45101e-13 0 0 -1.44033e-14 -1.38936e-13 6.3881e-14 -3.14524e-13 0 0 2.62494e-13 -5.87506e-13 3.41016e-13 -3.46257e-13 0 0 9.0361e-15 -1.12775e-13 -3.27549e-13 2.21799e-13 0 0 2.6734e-14 -4.48328e-14 -5.49663e-13 4.39223e-13 0 0 -1.36572e-14 -1.54396e-14 -4.91878e-13 2.89626e-13 0 0 -8.62959e-14 -8.79954e-15 -4.06983e-13 1.13946e-13 0 0 2.10261e-13 -6.10725e-13 2.1156e-13 -2.49699e-13 0 0 1.74965e-13 -7.33277e-13 4.03659e-13 -3.34702e-13 0 0 2.60832e-13 -7.37687e-13 1.38316e-13 6.41275e-14 0 0 -3.04321e-13 1.71165e-13 -7.49185e-13 7.36611e-13 0 0 -1.16783e-13 -8.29633e-14 -4.346e-13 4.91725e-13 0 0 2.56136e-13 -8.31679e-13 3.65207e-13 -4.53659e-14 0 0 -2.62661e-13 -3.02629e-13 1.83262e-14 1.00343e-13 0 0 1.86677e-13 -5.92771e-13 1.31485e-13 -9.06982e-14 0 0 1.00156e-14 -2.34142e-13 -1.10954e-13 -5.44498e-14 0 0 1.04008e-13 -3.60832e-13 8.67486e-14 -1.88748e-13 0 0 4.28166e-13 -7.89298e-13 4.29539e-13 -2.98969e-13 0 0 -1.66102e-13 -5.09742e-14 -2.40542e-13 2.356e-13 0 0 -2.49744e-13 4.44548e-14 -3.93723e-13 4.05511e-13 0 0 -1.76556e-13 -1.87668e-13 -6.91785e-14 2.20634e-13 0 0 1.18202e-13 -6.54009e-13 6.26445e-13 -4.7535e-13 0 0 1.06493e-13 -6.44932e-13 6.69032e-13 -5.8349e-13 0 0 -2.32948e-13 -7.9368e-14 -5.8605e-14 5.90138e-14 0 0 -2.23985e-13 5.21768e-14 -3.8901e-13 3.29978e-13 0 0 -1.13269e-13 -1.17768e-13 -2.39734e-13 2.15439e-13 0 0 2.63064e-13 -6.41807e-13 3.96032e-13 -3.54742e-13 0 0 2.26523e-13 -5.01237e-13 1.93897e-14 6.97497e-15 0 0 -5.01678e-13 4.3523e-13 -9.48976e-13 7.2473e-13 0 0 -4.76807e-15 -3.05802e-13 -1.74471e-13 1.90749e-13 0 0 2.97154e-13 -9.0446e-13 4.10025e-13 -5.07257e-15 0 0 2.15335e-13 -9.88969e-13 5.71525e-13 1.64483e-13 0 0 -1.36876e-13 -3.16297e-13 -2.18076e-13 9.32144e-13 0 0 -4.73452e-13 2.41359e-13 -9.85523e-13 1.54929e-12 0 0 1.4233e-13 -9.24066e-13 2.67484e-13 4.03134e-13 0 0 -6.83921e-14 -8.89047e-13 5.6623e-13 -3.04584e-13 0 0 2.54674e-14 -7.72305e-13 3.79289e-13 -4.53076e-13 0 0 -2.58852e-13 -1.27632e-13 -2.48027e-13 -1.96227e-13 0 0 -2.07689e-13 -3.40397e-13 -2.98503e-13 1.29667e-13 0 0 2.31327e-13 -9.02628e-13 -2.80393e-13 1.05514e-13 0 0 -6.16094e-13 5.03395e-13 -1.4665e-12 3.89618e-13 0 0 -1.47837e-13 -1.7345e-13 -5.80782e-13 -2.28552e-13 0 0 6.27813e-13 -1.67523e-12 1.02806e-12 -1.07533e-12 0 0 -2.87786e-13 -2.9827e-13 -1.57002e-13 -5.74079e-13 0 0 -6.12635e-13 7.22469e-13 -1.49264e-12 2.09765e-14 0 0 3.05288e-14 -3.52696e-13 -4.50845e-13 -5.01569e-13 0 0 4.86845e-14 -6.00594e-13 1.54833e-13 -1.0845e-12 0 0 3.25524e-13 -8.28504e-13 2.91111e-13 -1.10159e-12 0 0 4.32049e-14 7.47164e-15 -6.38008e-13 -3.87343e-13 0 0 -3.64929e-13 7.44481e-13 -1.4603e-12 2.51629e-14 0 0 1.58908e-13 -5.3406e-13 -1.07723e-13 -5.16685e-13 0 0 1.40842e-13 -7.46038e-13 4.38807e-13 -1.02914e-12 0 0 4.74934e-13 -8.79956e-13 1.53853e-13 -4.76809e-13 0 0 9.55138e-14 2.07769e-12 -4.83398e-13 7.06457e-13 0 0 8.22296e-12 1.93797e-11 1.23754e-11 -2.64775e-12 0 0 2.06928e-12 1.77682e-10 1.1815e-10 -1.01592e-10 0 0 -8.86443e-10 1.32866e-09 7.49285e-10 -1.17072e-09 0 0 3.31727e-10 -2.87528e-09 7.84191e-09 -7.2507e-09 0 0 1.42395e-09 -4.20416e-09 6.64151e-09 -5.60276e-09 0 0 -1.29699e-09 4.11602e-09 -1.11128e-08 9.84374e-09 0 0 -1.92014e-09 7.38993e-09 -1.65038e-08 1.4461e-08 0 0 2.05064e-10 1.86657e-09 -5.07521e-09 4.88967e-09 0 0 6.37994e-10 -9.07207e-11 -2.1931e-10 5.29091e-10 0 0 2.93705e-10 -5.76257e-11 -5.64205e-11 2.33805e-10 0 0 5.9557e-11 -1.51403e-11 4.92916e-13 6.14377e-11 0 0 4.68261e-12 -3.78551e-12 1.18581e-12 8.89458e-12 0 0 -4.73881e-13 -2.43155e-12 5.69195e-15 -1.44296e-13 0 0 -4.81586e-13 -5.21323e-13 -9.10774e-13 2.76249e-14 0 0 -7.42474e-13 7.6339e-13 -1.66639e-12 5.76188e-13 0 0 -1.69387e-13 -1.61197e-13 -5.38987e-13 -4.95596e-14 0 0 3.57566e-13 -1.02051e-12 5.35545e-13 -1.06285e-12 0 0 3.71451e-13 -9.38974e-13 4.7069e-13 -1.23717e-12 0 0 -2.2922e-13 8.45399e-14 -6.45378e-13 -3.92149e-13 0 0 -7.61575e-13 8.0086e-13 -1.32991e-12 1.27246e-13 0 0 -2.16553e-13 -3.5672e-13 -1.7178e-13 -3.69172e-13 0 0 4.93235e-13 -1.34279e-12 7.58596e-13 -1.07634e-12 0 0 -1.05641e-13 -2.96634e-13 -3.81402e-13 -3.9864e-13 0 0 -1.97423e-13 -2.82632e-13 -6.00322e-13 1.78271e-13 0 0 -2.75711e-13 -2.13256e-13 -6.30768e-13 1.40679e-13 0 0 -4.43679e-13 -2.65634e-13 -4.68673e-13 7.56481e-14 0 0 4.57359e-13 -1.55581e-12 7.12396e-13 -7.98824e-13 0 0 -2.66402e-13 -1.58209e-13 -7.22082e-13 -1.98896e-13 0 0 -2.81109e-13 -1.78056e-13 -8.53356e-13 3.15247e-13 0 0 -2.14644e-13 -3.56022e-13 -4.87634e-13 -3.05678e-15 0 0 -5.35695e-13 -3.11347e-13 -2.65188e-13 -1.34018e-13 0 0 4.30952e-13 -1.68162e-12 9.53399e-13 -8.80976e-13 0 0 -1.66638e-13 -4.24735e-13 -3.75287e-13 -2.04122e-13 0 0 -2.89509e-13 -2.52214e-13 -6.93239e-13 3.9724e-13 0 0 -2.08577e-13 -3.45055e-13 -4.84516e-13 7.4285e-14 0 0 -4.19413e-13 -3.9801e-13 -1.87682e-13 -2.11991e-13 0 0 4.47084e-13 -1.67718e-12 1.0374e-12 -1.05691e-12 0 0 -2.00679e-13 -3.21709e-13 -3.3554e-13 -4.50338e-13 0 0 -2.9495e-13 -1.44938e-13 -7.53314e-13 1.9227e-13 0 0 -1.72855e-13 -2.91244e-13 -5.8527e-13 1.89012e-14 0 0 -3.47009e-13 -3.32379e-13 -3.31951e-13 -1.99075e-13 0 0 4.09464e-13 -1.44787e-12 6.66894e-13 -8.91282e-13 0 0 -7.75843e-14 -2.89274e-13 -5.94605e-13 -3.84261e-13 0 0 -1.9838e-13 -8.61231e-14 -7.85394e-13 -6.69343e-14 0 0 -9.47314e-14 -4.09582e-13 -5.55454e-13 -6.80001e-14 0 0 -7.54378e-13 6.13513e-13 -1.59327e-12 2.72752e-13 0 0 3.87178e-13 -1.06363e-12 1.89211e-13 -9.88178e-13 0 0 6.16287e-13 -1.61855e-12 6.92127e-13 -1.09864e-12 0 0 -7.78317e-13 5.0578e-13 -1.73307e-12 5.22585e-13 0 0 -3.37996e-13 -2.20288e-13 -1.30168e-12 5.96155e-13 0 0 -4.86465e-13 -3.37914e-13 -7.86426e-13 5.16834e-14 0 0 1.10003e-13 -1.12163e-12 2.59976e-13 -8.25783e-13 0 0 5.18638e-13 -1.65894e-12 5.25606e-13 -4.43165e-13 0 0 -7.93496e-13 4.21775e-13 -1.97875e-12 1.62854e-12 0 0 -2.25002e-13 -4.16095e-13 -1.37074e-12 1.54084e-12 0 0 -2.80945e-13 -6.77114e-13 -5.10511e-13 1.91246e-13 0 0 2.59022e-13 -1.30624e-12 4.06468e-13 -1.30742e-12 0 0 2.73815e-13 -1.29048e-12 3.85506e-13 -1.46198e-12 0 0 -3.83697e-13 -4.53676e-13 -6.23094e-13 -4.34157e-13 0 0 -3.85625e-13 -2.28295e-13 -8.31938e-13 -2.85533e-13 0 0 -4.42361e-13 -3.31276e-13 -3.89823e-13 -4.30627e-13 0 0 4.11741e-13 -1.4944e-12 6.78474e-13 -8.31575e-13 0 0 -2.40183e-15 -3.26403e-13 -8.33859e-13 5.5428e-14 0 0 -4.28452e-13 6.12964e-13 -2.41048e-12 1.29837e-12 0 0 -5.33082e-13 6.42773e-13 -2.20867e-12 7.27609e-13 0 0 1.05845e-14 -1.16722e-12 4.59554e-13 -1.00138e-12 0 0 6.41238e-13 -2.57738e-12 2.28643e-12 -2.5206e-12 0 0 -1.96829e-13 -7.31828e-13 -1.27143e-13 -1.23409e-12 0 0 -7.06119e-13 6.65774e-13 -2.39532e-12 7.24914e-13 0 0 -6.40786e-13 6.66771e-13 -2.10641e-12 2.71212e-13 0 0 -2.71095e-14 -8.65274e-13 -2.67933e-13 -8.10522e-13 0 0 5.8013e-13 -2.07116e-12 1.01914e-12 -2.421e-12 0 0 -2.78372e-13 -7.0909e-13 2.55041e-16 -2.728e-12 0 0 -6.99219e-14 -1.15794e-12 4.37907e-13 -2.0443e-12 0 0 5.17314e-14 -1.14342e-12 2.94552e-13 -1.35286e-12 0 0 -9.11445e-13 6.74852e-13 -1.91044e-12 9.87988e-14 0 0 5.11875e-15 -6.60761e-13 -1.02669e-12 -2.60881e-13 0 0 -1.37259e-13 -8.02092e-13 -3.56048e-13 -8.89498e-13 0 0 -7.01338e-14 -1.20006e-12 4.30604e-13 -1.08933e-12 0 0 1.79715e-13 -1.21714e-12 1.46402e-13 -9.77608e-13 0 0 -7.28045e-13 5.74439e-13 -1.96685e-12 9.78811e-14 0 0 7.82983e-14 -6.38405e-13 -1.05105e-12 -2.40373e-13 0 0 -4.35542e-14 -8.46852e-13 -2.8259e-13 -1.0746e-12 0 0 -4.37434e-14 -1.2238e-12 5.77742e-13 -1.32623e-12 0 0 1.47627e-13 -1.19731e-12 2.09234e-13 -8.62296e-13 0 0 -8.13224e-13 5.71086e-13 -2.10596e-12 3.89219e-13 0 0 -3.23193e-14 -6.68097e-13 -1.23608e-12 -5.699e-14 0 0 -1.25396e-13 -8.80449e-13 -3.5557e-13 -8.98616e-13 0 0 -1.46277e-13 -1.11915e-12 2.38004e-13 -8.71597e-13 0 0 1.22976e-13 -1.13581e-12 -1.61493e-13 -4.88558e-13 0 0 -8.75506e-13 7.00471e-13 -2.31347e-12 6.3221e-13 0 0 -3.28918e-14 -6.06824e-13 -1.25254e-12 1.45847e-13 0 0 -5.98702e-14 -8.06872e-13 -4.82128e-13 -7.0099e-13 0 0 1.83816e-13 -1.34446e-12 1.98183e-13 -9.42005e-13 0 0 4.86994e-13 -1.28328e-12 -7.95324e-13 -3.66027e-13 0 0 -1.3018e-12 1.47273e-12 -3.68151e-12 8.90494e-13 0 0 6.54702e-13 -1.7914e-12 1.05601e-13 -1.09695e-12 0 0 1.38558e-12 -3.20253e-12 1.94767e-12 -1.90173e-12 0 0 -7.33063e-13 -4.31145e-14 -1.56018e-12 3.34368e-13 0 0 -7.95261e-13 3.76854e-13 -2.8835e-12 1.57492e-12 0 0 -1.24003e-12 6.90148e-13 -2.90484e-12 1.62319e-12 0 0 5.47323e-13 -2.31245e-12 8.97385e-13 -8.5629e-13 0 0 7.9631e-13 -2.75791e-12 1.49845e-12 -1.2572e-12 0 0 -9.66744e-13 2.76235e-13 -2.43445e-12 1.31058e-12 0 0 -7.58731e-13 4.14845e-13 -3.38735e-12 2.16957e-12 0
				</DataArray>
				<DataArray Name="VitesseY" type="Float32" format="ascii">