<?xml version="1.0"?>
<VTKFile type="PolyData">
	<PolyData>
		<Piece NumberOfPoints="1206" NumberOfPolys="1000">
			<Points>
				<DataArray type="Float32" NumberOfComponents="3" format="ascii">
 0 0 0 0.02 0 0 0.04 0 0 0.06 0 0 0.08 0 0 0.1 0 0 0 0.005 0 0.02 0.005 0 0.04 0.005 0 0.06 0.005 0 0.08 0.005 0 0.1 0.005 0 0 0.01 0 0.02 0.01 0 0.04 0.01 0 0.06 0.01 0 0.08 0.01 0 0.1 0.01 0 0 0.015 0 0.02 0.015 0 0.04 0.015 0 0.06 0.015 0 0.08 0.015 0 0.1 0.015 0 0 0.02 0 0.02 0.02 0 0.04 0.02 0 0.06 0.02 0 0.08 0.02 0 0.1 0.02 0 0 0.025 0 0.02 0.025 0 0.04 0.025 0 0.06 0.025 0 0.08 0.025 0 0.1 0.025 0 0 0.03 0 0.02 0.03 0 0.04 0.03 0 0.06 0.03 0 0.08 0.03 0 0.1 0.03 0 0 0.035 0 0.02 0.035 0 0.04 0.035 0 0.06 0.035 0 0.08 0.035 0 0.1 0.035 0 0 0.04 0 0.02 0.04 0 0.04 0.04 0 0.06 0.04 0 0.08 0.04 0 0.1 0.04 0 0 0.045 0 0.02 0.045 0 0.04 0.045 0 0.06 0.045 0 0.08 0.045 0 0.1 0.045 0 0 0.05 0 0.02 0.05 0 0.04 0.05 0 0.06 0.05 0 0.08 0.05 0 0.1 0.05 0 0 0.055 0 0.02 0.055 0 0.04 0.055 0 0.06 0.055 0 0.08 0.055 0 0.1 0.055 0 0 0.06 0 0.02 0.06 0 0.04 0.06 0 0.06 0.06 0 0.08 0.06 0 0.1 0.06 0 0 0.065 0 0.02 0.065 0 0.04 0.065 0 0.06 0.065 0 0.08 0.065 0 0.1 0.065 0 0 0.07 0 0.02 0.07 0 0.04 0.07 0 0.06 0.07 0 0.08 0.07 0 0.1 0.07 0 0 0.075 0 0.02 0.075 0 0.04 0.075 0 0.06 0.075 0 0.08 0.075 0 0.1 0.075 0 0 0.08 0 0.02 0.08 0 0.04 0.08 0 0.06 0.08 0 0.08 0.08 0 0.1 0.08 0 0 0.085 0 0.02 0.085 0 0.04 0.085 0 0.06 0.085 0 0.08 0.085 0 0.1 0.085 0 0 0.09 0 0.02 0.09 0 0.04 0.09 0 0.06 0.09 0 0.08 0.09 0 0.1 0.09 0 0 0.095 0 0.02 0.095 0 0.04 0.095 0 0.06 0.095 0 0.08 0.095 0 0.1 0.095 0 0 0.1 0 0.02 0.1 0 0.04 0.1 0 0.06 0.1 0 0.08 0.1 0 0.1 0.1 0 0 0.105 0 0.02 0.105 0 0.04 0.105 0 0.06 0.105 0 0.08 0.105 0 0.1 0.105 0 0 0.11 0 0.02 0.11 0 0.04 0.11 0 0.06 0.11 0 0.08 0.11 0 0.1 0.11 0 0 0.115 0 0.02 0.115 0 0.04 0.115 0 0.06 0.115 0 0.08 0.115 0 0.1 0.115 0 0 0.12 0 0.02 0.12 0 0.04 0.12 0 0.06 0.12 0 0.08 0.12 0 0.1 0.12 0 0 0.125 0 0.02 0.125 0 0.04 0.125 0 0.06 0.125 0 0.08 0.125 0 0.1 0.125 0 0 0.13 0 0.02 0.13 0 0.04 0.13 0 0.06 0.13 0 0.08 0.13 0 0.1 0.13 0 0 0.135 0 0.02 0.135 0 0.04 0.135 0 0.06 0.135 0 0.08 0.135 0 0.1 0.135 0 0 0.14 0 0.02 0.14 0 0.04 0.14 0 0.06 0.14 0 0.08 0.14 0 0.1 0.14 0 0 0.145 0 0.02 0.145 0 0.04 0.145 0 0.06 0.145 0 0.08 0.145 0 0.1 0.145 0 0 0.15 0 0.02 0.15 0 0.04 0.15 0 0.06 0.15 0 0.08 0.15 0 0.1 0.15 0 0 0.155 0 0.02 0.155 0 0.04 0.155 0 0.06 0.155 0 0.08 0.155 0 0.1 0.155 0 0 0.16 0 0.02 0.16 0 0.04 0.16 0 0.06 0.16 0 0.08 0.16 0 0.1 0.16 0 0 0.165 0 0.02 0.165 0 0.04 0.165 0 0.06 0.165 0 0.08 0.165 0 0.1 0.165 0 0 0.17 0 0.02 0.17 0 0.04 0.17 0 0.06 0.17 0 0.08 0.17 0 0.1 0.17 0 0 0.175 0 0.02 0.175 0 0.04 0.175 0 0.06 0.175 0 0.08 0.175 0 0.1 0.175 0 0 0.18 0 0.02 0.18 0 0.04 0.18 0 0.06 0.18 0 0.08 0.18 0 0.1 0.18 0 0 0.185 0 0.02 0.185 0 0.04 0.185 0 0.06 0.185 0 0.08 0.185 0 0.1 0.185 0 0 0.19 0 0.02 0.19 0 0.04 0.19 0 0.06 0.19 0 0.08 0.19 0 0.1 0.19 0 0 0.195 0 0.02 0.195 0 0.04 0.195 0 0.06 0.195 0 0.08 0.195 0 0.1 0.195 0 0 0.2 0 0.02 0.2 0 0.04 0.2 0 0.06 0.2 0 0.08 0.2 0 0.1 0.2 0 0 0.205 0 0.02 0.205 0 0.04 0.205 0 0.06 0.205 0 0.08 0.205 0 0.1 0.205 0 0 0.21 0 0.02 0.21 0 0.04 0.21 0 0.06 0.21 0 0.08 0.21 0 0.1 0.21 0 0 0.215 0 0.02 0.215 0 0.04 0.215 0 0.06 0.215 0 0.08 0.215 0 0.1 0.215 0 0 0.22 0 0.02 0.22 0 0.04 0.22 0 0.06 0.22 0 0.08 0.22 0 0.1 0.22 0 0 0.225 0 0.02 0.225 0 0.04 0.225 0 0.06 0.225 0 0.08 0.225 0 0.1 0.225 0 0 0.23 0 0.02 0.23 0 0.04 0.23 0 0.06 0.23 0 0.08 0.23 0 0.1 0.23 0 0 0.235 0 0.02 0.235 0 0.04 0.235 0 0.06 0.235 0 0.08 0.235 0 0.1 0.235 0 0 0.24 0 0.02 0.24 0 0.04 0.24 0 0.06 0.24 0 0.08 0.24 0 0.1 0.24 0 0 0.245 0 0.02 0.245 0 0.04 0.245 0 0.06 0.245 0 0.08 0.245 0 0.1 0.245 0 0 0.25 0 0.02 0.25 0 0.04 0.25 0 0.06 0.25 0 0.08 0.25 0 0.1 0.25 0 0 0.255 0 0.02 0.255 0 0.04 0.255 0 0.06 0.255 0 0.08 0.255 0 0.1 0.255 0 0 0.26 0 0.02 0.26 0 0.04 0.26 0 0.06 0.26 0 0.08 0.26 0 0.1 0.26 0 0 0.265 0 0.02 0.265 0 0.04 0.265 0 0.06 0.265 0 0.08 0.265 0 0.1 0.265 0 0 0.27 0 0.02 0.27 0 0.04 0.27 0 0.06 0.27 0 0.08 0.27 0 0.1 0.27 0 0 0.275 0 0.02 0.275 0 0.04 0.275 0 0.06 0.275 0 0.08 0.275 0 0.1 0.275 0 0 0.28 0 0.02 0.28 0 0.04 0.28 0 0.06 0.28 0 0.08 0.28 0 0.1 0.28 0 0 0.285 0 0.02 0.285 0 0.04 0.285 0 0.06 0.285 0 0.08 0.285 0 0.1 0.285 0 0 0.29 0 0.02 0.29 0 0.04 0.29 0 0.06 0.29 0 0.08 0.29 0 0.1 0.29 0 0 0.295 0 0.02 0.295 0 0.04 0.295 0 0.06 0.295 0 0.08 0.295 0 0.1 0.295 0 0 0.3 0 0.02 0.3 0 0.04 0.3 0 0.06 0.3 0 0.08 0.3 0 0.1 0.3 0 0 0.305 0 0.02 0.305 0 0.04 0.305 0 0.06 0.305 0 0.08 0.305 0 0.1 0.305 0 0 0.31 0 0.02 0.31 0 0.04 0.31 0 0.06 0.31 0 0.08 0.31 0 0.1 0.31 0 0 0.315 0 0.02 0.315 0 0.04 0.315 0 0.06 0.315 0 0.08 0.315 0 0.1 0.315 0 0 0.32 0 0.02 0.32 0 0.04 0.32 0 0.06 0.32 0 0.08 0.32 0 0.1 0.32 0 0 0.325 0 0.02 0.325 0 0.04 0.325 0 0.06 0.325 0 0.08 0.325 0 0.1 0.325 0 0 0.33 0 0.02 0.33 0 0.04 0.33 0 0.06 0.33 0 0.08 0.33 0 0.1 0.33 0 0 0.335 0 0.02 0.335 0 0.04 0.335 0 0.06 0.335 0 0.08 0.335 0 0.1 0.335 0 0 0.34 0 0.02 0.34 0 0.04 0.34 0 0.06 0.34 0 0.08 0.34 0 0.1 0.34 0 0 0.345 0 0.02 0.345 0 0.04 0.345 0 0.06 0.345 0 0.08 0.345 0 0.1 0.345 0 0 0.35 0 0.02 0.35 0 0.04 0.35 0 0.06 0.35 0 0.08 0.35 0 0.1 0.35 0 0 0.355 0 0.02 0.355 0 0.04 0.355 0 0.06 0.355 0 0.08 0.355 0 0.1 0.355 0 0 0.36 0 0.02 0.36 0 0.04 0.36 0 0.06 0.36 0 0.08 0.36 0 0.1 0.36 0 0 0.365 0 0.02 0.365 0 0.04 0.365 0 0.06 0.365 0 0.08 0.365 0 0.1 0.365 0 0 0.37 0 0.02 0.37 0 0.04 0.37 0 0.06 0.37 0 0.08 0.37 0 0.1 0.37 0 0 0.375 0 0.02 0.375 0 0.04 0.375 0 0.06 0.375 0 0.08 0.375 0 0.1 0.375 0 0 0.38 0 0.02 0.38 0 0.04 0.38 0 0.06 0.38 0 0.08 0.38 0 0.1 0.38 0 0 0.385 0 0.02 0.385 0 0.04 0.385 0 0.06 0.385 0 0.08 0.385 0 0.1 0.385 0 0 0.39 0 0.02 0.39 0 0.04 0.39 0 0.06 0.39 0 0.08 0.39 0 0.1 0.39 0 0 0.395 0 0.02 0.395 0 0.04 0.395 0 0.06 0.395 0 0.08 0.395 0 0.1 0.395 0 0 0.4 0 0.02 0.4 0 0.04 0.4 0 0.06 0.4 0 0.08 0.4 0 0.1 0.4 0 0 0.405 0 0.02 0.405 0 0.04 0.405 0 0.06 0.405 0 0.08 0.405 0 0.1 0.405 0 0 0.41 0 0.02 0.41 0 0.04 0.41 0 0.06 0.41 0 0.08 0.41 0 0.1 0.41 0 0 0.415 0 0.02 0.415 0 0.04 0.415 0 0.06 0.415 0 0.08 0.415 0 0.1 0.415 0 0 0.42 0 0.02 0.42 0 0.04 0.42 0 0.06 0.42 0 0.08 0.42 0 0.1 0.42 0 0 0.425 0 0.02 0.425 0 0.04 0.425 0 0.06 0.425 0 0.08 0.425 0 0.1 0.425 0 0 0.43 0 0.02 0.43 0 0.04 0.43 0 0.06 0.43 0 0.08 0.43 0 0.1 0.43 0 0 0.435 0 0.02 0.435 0 0.04 0.435 0 0.06 0.435 0 0.08 0.435 0 0.1 0.435 0 0 0.44 0 0.02 0.44 0 0.04 0.44 0 0.06 0.44 0 0.08 0.44 0 0.1 0.44 0 0 0.445 0 0.02 0.445 0 0.04 0.445 0 0.06 0.445 0 0.08 0.445 0 0.1 0.445 0 0 0.45 0 0.02 0.45 0 0.04 0.45 0 0.06 0.45 0 0.08 0.45 0 0.1 0.45 0 0 0.455 0 0.02 0.455 0 0.04 0.455 0 0.06 0.455 0 0.08 0.455 0 0.1 0.455 0 0 0.46 0 0.02 0.46 0 0.04 0.46 0 0.06 0.46 0 0.08 0.46 0 0.1 0.46 0 0 0.465 0 0.02 0.465 0 0.04 0.465 0 0.06 0.465 0 0.08 0.465 0 0.1 0.465 0 0 0.47 0 0.02 0.47 0 0.04 0.47 0 0.06 0.47 0 0.08 0.47 0 0.1 0.47 0 0 0.475 0 0.02 0.475 0 0.04 0.475 0 0.06 0.475 0 0.08 0.475 0 0.1 0.475 0 0 0.48 0 0.02 0.48 0 0.04 0.48 0 0.06 0.48 0 0.08 0.48 0 0.1 0.48 0 0 0.485 0 0.02 0.485 0 0.04 0.485 0 0.06 0.485 0 0.08 0.485 0 0.1 0.485 0 0 0.49 0 0.02 0.49 0 0.04 0.49 0 0.06 0.49 0 0.08 0.49 0 0.1 0.49 0 0 0.495 0 0.02 0.495 0 0.04 0.495 0 0.06 0.495 0 0.08 0.495 0 0.1 0.495 0 0 0.5 0 0.02 0.5 0 0.04 0.5 0 0.06 0.5 0 0.08 0.5 0 0.1 0.5 0 0 0.505 0 0.02 0.505 0 0.04 0.505 0 0.06 0.505 0 0.08 0.505 0 0.1 0.505 0 0 0.51 0 0.02 0.51 0 0.04 0.51 0 0.06 0.51 0 0.08 0.51 0 0.1 0.51 0 0 0.515 0 0.02 0.515 0 0.04 0.515 0 0.06 0.515 0 0.08 0.515 0 0.1 0.515 0 0 0.52 0 0.02 0.52 0 0.04 0.52 0 0.06 0.52 0 0.08 0.52 0 0.1 0.52 0 0 0.525 0 0.02 0.525 0 0.04 0.525 0 0.06 0.525 0 0.08 0.525 0 0.1 0.525 0 0 0.53 0 0.02 0.53 0 0.04 0.53 0 0.06 0.53 0 0.08 0.53 0 0.1 0.53 0 0 0.535 0 0.02 0.535 0 0.04 0.535 0 0.06 0.535 0 0.08 0.535 0 0.1 0.535 0 0 0.54 0 0.02 0.54 0 0.04 0.54 0 0.06 0.54 0 0.08 0.54 0 0.1 0.54 0 0 0.545 0 0.02 0.545 0 0.04 0.545 0 0.06 0.545 0 0.08 0.545 0 0.1 0.545 0 0 0.55 0 0.02 0.55 0 0.04 0.55 0 0.06 0.55 0 0.08 0.55 0 0.1 0.55 0 0 0.555 0 0.02 0.555 0 0.04 0.555 0 0.06 0.555 0 0.08 0.555 0 0.1 0.555 0 0 0.56 0 0.02 0.56 0 0.04 0.56 0 0.06 0.56 0 0.08 0.56 0 0.1 0.56 0 0 0.565 0 0.02 0.565 0 0.04 0.565 0 0.06 0.565 0 0.08 0.565 0 0.1 0.565 0 0 0.57 0 0.02 0.57 0 0.04 0.57 0 0.06 0.57 0 0.08 0.57 0 0.1 0.57 0 0 0.575 0 0.02 0.575 0 0.04 0.575 0 0.06 0.575 0 0.08 0.575 0 0.1 0.575 0 0 0.58 0 0.02 0.58 0 0.04 0.58 0 0.06 0.58 0 0.08 0.58 0 0.1 0.58 0 0 0.585 0 0.02 0.585 0 0.04 0.585 0 0.06 0.585 0 0.08 0.585 0 0.1 0.585 0 0 0.59 0 0.02 0.59 0 0.04 0.59 0 0.06 0.59 0 0.08 0.59 0 0.1 0.59 0 0 0.595 0 0.02 0.595 0 0.04 0.595 0 0.06 0.595 0 0.08 0.595 0 0.1 0.595 0 0 0.6 0 0.02 0.6 0 0.04 0.6 0 0.06 0.6 0 0.08 0.6 0 0.1 0.6 0 0 0.605 0 0.02 0.605 0 0.04 0.605 0 0.06 0.605 0 0.08 0.605 0 0.1 0.605 0 0 0.61 0 0.02 0.61 0 0.04 0.61 0 0.06 0.61 0 0.08 0.61 0 0.1 0.61 0 0 0.615 0 0.02 0.615 0 0.04 0.615 0 0.06 0.615 0 0.08 0.615 0 0.1 0.615 0 0 0.62 0 0.02 0.62 0 0.04 0.62 0 0.06 0.62 0 0.08 0.62 0 0.1 0.62 0 0 0.625 0 0.02 0.625 0 0.04 0.625 0 0.06 0.625 0 0.08 0.625 0 0.1 0.625 0 0 0.63 0 0.02 0.63 0 0.04 0.63 0 0.06 0.63 0 0.08 0.63 0 0.1 0.63 0 0 0.635 0 0.02 0.635 0 0.04 0.635 0 0.06 0.635 0 0.08 0.635 0 0.1 0.635 0 0 0.64 0 0.02 0.64 0 0.04 0.64 0 0.06 0.64 0 0.08 0.64 0 0.1 0.64 0 0 0.645 0 0.02 0.645 0 0.04 0.645 0 0.06 0.645 0 0.08 0.645 0 0.1 0.645 0 0 0.65 0 0.02 0.65 0 0.04 0.65 0 0.06 0.65 0 0.08 0.65 0 0.1 0.65 0 0 0.655 0 0.02 0.655 0 0.04 0.655 0 0.06 0.655 0 0.08 0.655 0 0.1 0.655 0 0 0.66 0 0.02 0.66 0 0.04 0.66 0 0.06 0.66 0 0.08 0.66 0 0.1 0.66 0 0 0.665 0 0.02 0.665 0 0.04 0.665 0 0.06 0.665 0 0.08 0.665 0 0.1 0.665 0 0 0.67 0 0.02 0.67 0 0.04 0.67 0 0.06 0.67 0 0.08 0.67 0 0.1 0.67 0 0 0.675 0 0.02 0.675 0 0.04 0.675 0 0.06 0.675 0 0.08 0.675 0 0.1 0.675 0 0 0.68 0 0.02 0.68 0 0.04 0.68 0 0.06 0.68 0 0.08 0.68 0 0.1 0.68 0 0 0.685 0 0.02 0.685 0 0.04 0.685 0 0.06 0.685 0 0.08 0.685 0 0.1 0.685 0 0 0.69 0 0.02 0.69 0 0.04 0.69 0 0.06 0.69 0 0.08 0.69 0 0.1 
[...]
			<PointData Scalars="VitesseX">
				<DataArray Name="VitesseX" type="Float32" format="ascii">
 0 2.87977e-14 6.78581e-14 5.91662e-14 3.17402e-14 0 0 3.21882e-14 6.27827e-14 6.14351e-14 3.12354e-14 0 0 3.5313e-14 5.82137e-14 5.92058e-14 3.28657e-14 0 0 3.28359e-14 5.48875e-14 6.20381e-14 2.70222e-14 0 0 2.48147e-14 5.28574e-14 6.49138e-14 2.60627e-14 0 0 1.91591e-14 5.06807e-14 6.19573e-14 3.25172e-14 0 0 2.11294e-14 4.32982e-14 7.12366e-14 8.77592e-15 0 0 2.39454e-14 4.03378e-14 7.05066e-14 -4.59455e-15 0 0 1.77725e-14 4.76296e-14 6.32111e-14 8.67701e-15 0 0 5.52673e-15 7.67022e-14 3.27766e-14 4.08811e-14 0 0 6.18751e-15 7.19853e-14 4.89671e-14 3.13091e-14 0 0 3.67456e-14 -5.10217e-15 1.47171e-13 -3.9832e-14 0 0 3.86839e-14 -1.25238e-14 1.57292e-13 -4.72151e-14 0 0 -1.35863e-14 9.7934e-14 3.93582e-14 3.31089e-14 0 0 -7.21654e-15 1.2749e-13 -1.34668e-14 7.65171e-14 0 0 5.0368e-14 6.25146e-14 4.14424e-14 4.97167e-14 0 0 2.55935e-14 9.07834e-14 4.55381e-14 5.33536e-14 0 0 4.21449e-14 4.99636e-14 1.07167e-13 3.72014e-14 0 0 6.54255e-14 2.83918e-14 1.27888e-13 4.05299e-14 0 0 5.37383e-14 4.91614e-14 1.29919e-13 2.73177e-14 0 0 8.3744e-14 1.47776e-14 1.58184e-13 2.12771e-15 0 0 4.38377e-14 1.10168e-13 2.75686e-14 9.23989e-14 0 0 3.51997e-14 1.16472e-13 2.16545e-14 9.32837e-14 0 0 1.98752e-14 1.24058e-13 4.40036e-14 4.71043e-14 0 0 4.50043e-14 6.84409e-14 1.17883e-13 -2.52853e-14 0 0 6.62351e-14 3.91854e-14 1.25184e-13 -2.79795e-14 0 0 1.88716e-14 1.06577e-13 5.1579e-14 1.75279e-14 0 0 2.3489e-14 9.87883e-14 4.31053e-14 4.23076e-14 0 0 5.21208e-14 1.06782e-13 1.85739e-14 4.28409e-14 0 0 8.96609e-14 6.6828e-14 1.02826e-13 -6.75846e-14 0 0 1.12631e-13 4.78135e-14 1.38542e-13 -1.2417e-13 0 0 1.00543e-13 9.43178e-14 7.68294e-14 -7.48341e-14 0 0 5.15452e-14 1.71523e-13 -4.59996e-15 3.7942e-14 0 0 6.68053e-14 1.15773e-13 8.11253e-14 4.09306e-14 0 0 8.86952e-14 5.39018e-14 1.71235e-13 4.88775e-14 0 0 7.06049e-14 7.65451e-14 2.08494e-13 2.38082e-14 0 0 6.43457e-14 1.0683e-13 2.14979e-13 2.17605e-17 0 0 6.97518e-14 1.34661e-13 1.34665e-13 9.57295e-14 0 0 5.30852e-14 1.94203e-13 3.67434e-14 1.53195e-13 0 0 5.1641e-14 2.00382e-13 7.66568e-14 1.54466e-14 0 0 8.81794e-14 8.7753e-14 2.56639e-13 -1.94187e-13 0 0 5.08954e-15 1.82579e-13 1.30272e-13 -1.15669e-13 0 0 -6.28607e-14 2.88023e-13 -2.20864e-14 7.77747e-15 0 0 -2.95066e-14 2.67846e-13 -4.84111e-15 3.65444e-14 0 0 6.04857e-15 2.39664e-13 8.28825e-14 -5.85059e-15 0 0 -1.82353e-14 2.80861e-13 9.80409e-14 -3.21219e-14 0 0 3.53677e-14 2.15407e-13 1.31566e-13 -3.12709e-14 0 0 1.19372e-13 8.79517e-14 2.34595e-13 -6.72597e-14 0 0 1.76259e-13 5.99555e-14 2.57851e-13 -3.42337e-14 0 0 1.24637e-13 1.50896e-13 2.29759e-13 3.67269e-14 0 0 2.44201e-14 3.07335e-13 1.43626e-13 7.06477e-14 0 0 -9.97633e-15 3.88021e-13 1.2848e-13 -1.21103e-14 0 0 -5.62703e-14 3.84027e-13 1.43409e-13 -6.77933e-14 0 0 8.10804e-14 1.2399e-13 3.59728e-13 -8.72567e-14 0 0 1.19049e-13 9.19046e-14 5.43743e-13 -2.65476e-14 0 0 9.57292e-14 3.91902e-13 5.45021e-13 2.04046e-13 0 0 3.76512e-13 7.10546e-13 7.82401e-13 4.9483e-13 0 0 7.76128e-13 1.53868e-12 1.36605e-12 1.02969e-12 0 0 1.76073e-12 2.76448e-12 3.00071e-12 1.85187e-12 0 0 3.45663e-12 5.2216e-12 5.6799e-12 3.35868e-12 0 0 5.85851e-12 9.58459e-12 9.586e-12 5.78576e-12 0 0 9.39206e-12 1.5342e-11 1.52193e-11 9.17492e-12 0 0 1.37851e-11 2.24431e-11 2.20855e-11 1.35863e-11 0 0 1.87757e-11 3.01071e-11 2.99971e-11 1.84412e-11 0 0 2.36751e-11 3.80557e-11 3.79209e-11 2.34069e-11 0 0 2.82082e-11 4.53079e-11 4.5327e-11 2.7903e-11 0 0 3.19377e-11 5.13278e-11 5.13909e-11 3.15856e-11 0 0 3.43706e-11 5.59469e-11 5.52652e-11 3.42213e-11 0 0 3.58025e-11 5.81423e-11 5.73752e-11 3.52928e-11 0 0 3.59852e-11 5.73707e-11 5.72702e-11 3.47661e-11 0 0 3.41882e-11 5.48058e-11 5.4425e-11 3.31795e-11 0 0 3.06289e-11 5.00624e-11 4.87703e-11 3.02952e-11 0 0 2.59279e-11 4.23015e-11 4.12612e-11 2.57782e-11 0 0 1.99735e-11 3.16014e-11 3.23223e-11 1.94374e-11 0 0 1.20063e-11 2.00043e-11 1.98511e-11 1.2881e-11 0 0 3.1317e-12 5.61706e-12 6.72078e-12 4.27935e-12 0 0 -6.74148e-12 -1.05156e-11 -8.14159e-12 -4.84455e-12 0 0 -1.79675e-11 -2.74541e-11 -2.48226e-11 -1.40668e-11 0 0 -3.00467e-11 -4.59104e-11 -4.21645e-11 -2.44308e-11 0 0 -4.30475e-11 -6.47621e-11 -6.08574e-11 -3.47508e-11 0 0 -5.59927e-11 -8.49435e-11 -7.93392e-11 -4.58569e-11 0 0 -6.93462e-11 -1.0571e-10 -9.84251e-11 -5.72753e-11 0 0 -8.25325e-11 -1.26346e-10 -1.17298e-10 -6.89086e-11 0 0 -9.57448e-11 -1.46944e-10 -1.36944e-10 -8.05025e-11 0 0 -1.08664e-10 -1.67106e-10 -1.56566e-10 -9.19379e-11 0 0 -1.20978e-10 -1.86775e-10 -1.76019e-10 -1.03598e-10 0 0 -1.32564e-10 -2.05936e-10 -1.95198e-10 -1.1527e-10 0 0 -1.43382e-10 -2.24301e-10 -2.13912e-10 -1.26776e-10 0 0 -1.53349e-10 -2.41512e-10 -2.3207e-10 -1.38446e-10 0 0 -1.62334e-10 -2.57354e-10 -2.49713e-10 -1.5021e-10 0 0 -1.70187e-10 -2.71763e-10 -2.66813e-10 -1.62141e-10 0 0 -1.76747e-10 -2.84748e-10 -2.83224e-10 -1.73948e-10 0 0 -1.81885e-10 -2.96353e-10 -2.98892e-10 -1.85899e-10 0 0 -1.85577e-10 -3.0678e-10 -3.13817e-10 -1.98144e-10 0 0 -1.88375e-10 -3.16816e-10 -3.29453e-10 -2.08393e-10 0 0 -1.86935e-10 -3.26765e-10 -3.44472e-10 -2.22414e-10 0 0 -1.81668e-10 -3.39318e-10 -3.65046e-10 -2.21063e-10 0 0 -1.49712e-10 -3.97075e-10 -4.12994e-10 -1.80141e-10 0 0 5.11193e-11 -3.3851e-10 -1.15573e-09 5.70882e-10 0 0 -9.81834e-09 3.89309e-09 8.48401e-09 -1.21939e-08 0 0 -1.94872e-08 8.60383e-09 1.69227e-08 -2.37849e-08 0 0 -1.0896e-08 5.57513e-09 7.64354e-09 -1.18952e-08 0 0 -8.30701e-10 1.25594e-09 -2.07917e-09 1.20408e-09 0 0 1.07881e-08 -3.61917e-09 -1.08471e-08 1.42534e-08 0 0 1.35632e-08 -6.24307e-09 -1.09001e-08 1.50653e-08 0 0 1.2903e-08 -6.90823e-09 -8.52224e-09 1.27728e-08 0 0 1.45434e-08 -8.48952e-09 -8.60672e-09 1.3394e-08 0 0 1.67424e-08 -8.4697e-09 -1.16019e-08 1.75083e-08 0 0 1.63107e-08 -8.00425e-09 -1.20526e-08 1.77947e-08 0 0 1.28859e-08 -6.43229e-09 -8.96586e-09 1.39263e-08 0 0 4.42091e-09 -2.10777e-09 -1.74274e-09 4.1812e-09 0 0 -3.74498e-09 2.77689e-09 3.93957e-09 -4.21677e-09 0 0 -1.01403e-08 5.17395e-09 8.44469e-09 -1.11683e-08 0 0 -1.1914e-08 5.79992e-09 1.04019e-08 -1.39584e-08 0 0 -1.17928e-08 5.84333e-09 9.78808e-09 -1.34458e-08 0 0 -9.5423e-09 4.85729e-09 6.45898e-09 -9.81695e-09 0 0 -3.31994e-09 1.85871e-09 1.2212e-09 -2.20653e-09 0 0 2.74576e-09 -1.07288e-09 -3.18087e-09 4.44294e-09 0 0 4.94824e-09 -2.07381e-09 -4.17861e-09 6.12821e-09 0 0 5.01452e-09 -2.15669e-09 -4.03771e-09 6.00625e-09 0 0 4.03331e-09 -1.99697e-09 -2.02569e-09 3.64667e-09 0 0 1.45265e-09 -1.34175e-09 1.04248e-09 -4.10072e-10 0 0 -8.65786e-10 -2.18099e-10 1.47851e-09 -1.44504e-09 0 0 -1.27658e-09 1.82941e-10 1.4302e-09 -1.60205e-09 0 0 -1.16202e-09 6.95338e-11 1.33261e-09 -1.58895e-09 0 0 -6.96418e-10 -5.10279e-11 9.47863e-10 -1.21577e-09 0 0 -2.13308e-10 7.23977e-11 -3.14541e-10 -9.40916e-11 0 0 -2.34226e-11 2.74435e-10 -1.31335e-09 8.67083e-10 0 0 -1.15489e-11 3.07591e-10 -1.42275e-09 1.24486e-09 0 0 -7.11765e-11 6.25184e-10 -2.02673e-09 2.03371e-09 0 0 2.35855e-11 8.57509e-10 -2.35888e-09 2.29118e-09 0 0 8.70248e-11 7.51028e-10 -1.91082e-09 1.84709e-09 0 0 -7.5352e-12 8.3715e-10 -1.84387e-09 1.76552e-09 0 0 2.14838e-10 5.45394e-10 -1.51416e-09 1.59842e-09 0 0 9.17596e-10 -7.46924e-10 5.68008e-10 8.34996e-11 0 0 1.06531e-09 -1.16363e-09 2.07654e-09 -1.34532e-09 0 0 8.19792e-10 -8.88588e-10 1.98656e-09 -1.38616e-09 0 0 2.84336e-10 -9.57226e-11 1.39987e-09 -1.16808e-09 0 0 -9.28616e-11 3.30642e-10 4.20557e-10 -6.91237e-10 0 0 -2.41568e-10 3.57527e-10 1.7243e-11 -3.29933e-10 0 0 -4.10578e-10 4.52185e-10 3.88536e-11 -2.97449e-10 0 0 -5.00323e-10 5.10009e-10 3.58907e-11 -2.8867e-10 0 0 -3.80631e-10 3.96685e-10 -2.22809e-11 -1.83171e-10 0 0 -1.79214e-10 1.97908e-10 -6.54595e-11 -6.75434e-11 0 0 -3.96728e-11 4.3658e-11 -7.78702e-11 -4.35469e-13 0 0 3.75261e-11 -5.23734e-11 -8.97482e-11 3.06352e-11 0 0 5.56986e-11 -7.10941e-11 -1.03257e-10 4.5746e-11 0 0 4.94911e-11 -6.06347e-11 -1.00162e-10 4.26169e-11 0 0 7.66551e-12 1.69382e-11 -1.18664e-10 5.59441e-11 0 0 2.1788e-11 -1.11498e-11 -3.65698e-11 -9.09588e-14 0 0 4.79014e-11 -4.18999e-11 7.62747e-11 -6.78536e-11 0 0 2.37286e-11 6.08667e-12 2.92936e-11 -3.43833e-11 0 0 2.35748e-11 3.10055e-11 2.29375e-11 -1.01607e-11 0 0 2.32292e-11 4.86459e-11 2.19962e-11 1.66619e-11 0 0 2.37859e-11 5.88349e-11 2.10904e-11 3.1976e-11 0 0 2.77429e-11 5.82657e-11 3.04087e-11 3.6309e-11 0 0 3.7388e-11 4.83227e-11 5.41723e-11 3.16248e-11 0 0 3.78312e-11 5.13643e-11 5.74822e-11 3.82727e-11 0 0 3.74246e-11 5.3152e-11 6.08591e-11 4.0139e-11 0 0 3.40338e-11 5.3598e-11 5.85506e-11 3.88095e-11 0 0 2.99538e-11 4.98844e-11 5.16799e-11 3.38743e-11 0 0 2.51478e-11 4.16451e-11 4.28993e-11 2.79907e-11 0 0 1.94304e-11 3.21414e-11 3.28915e-11 2.10992e-11 0 0 1.3455e-11 2.22362e-11 2.26954e-11 1.41479e-11 0 0 8.12543e-12 1.34067e-11 1.36804e-11 8.51023e-12 0 0 4.21343e-12 6.85578e-12 7.15446e-12 4.44519e-12 0 0 1.76877e-12 3.01567e-12 3.18035e-12 1.94591e-12 0 0 4.7948e-13 1.24494e-12 1.05941e-12 8.68908e-13 0 0 -2.84816e-14 4.29133e-13 2.2602e-13 4.91921e-13 0 0 -2.44217e-13 9.22131e-14 -1.95789e-14 3.04685e-13 0 0 -3.01858e-13 -9.01158e-14 -7.02173e-14 2.23224e-13 0 0 -2.69721e-13 -1.79921e-13 -1.27519e-13 2.86316e-13 0 0 -2.47669e-13 -1.75094e-13 -1.49919e-13 1.57005e-13 0 0 -2.63908e-13 -1.34906e-13 -1.60491e-13 7.22076e-14 0 0 -2.38201e-13 -1.64303e-13 -1.19184e-13 1.20597e-13 0 0 -2.27119e-13 -1.65114e-13 -1.2374e-14 2.28081e-14 0 0 -1.70403e-13 -2.33237e-13 7.15567e-14 3.06965e-14 0 0 -9.8278e-14 -3.27169e-13 2.03371e-13 -1.34194e-14 0 0 -9.78795e-15 -3.69825e-13 3.45398e-13 -7.43046e-14 0 0 -1.15144e-14 -2.22642e-13 2.02362e-13 6.60684e-14 0 0 -6.18446e-14 -6.89682e-14 7.23178e-14 2.15913e-13 0 0 2.51339e-14 -1.15269e-13 1.79788e-13 1.78792e-13 0 0 1.1246e-13 -1.77995e-13 2.85257e-13 7.4307e-14 0 0 4.20652e-14 -4.3935e-14 1.98985e-13 9.35552e-14 0 0 -9.11375e-15 4.18019e-14 1.27719e-13 1.45703e-13 0 0 7.76698e-14 -4.7581e-14 9.89808e-14 1.8132e-13 0 0 3.5797e-14 8.15676e-14 -6.78422e-14 2.2154e-13 0 0 2.17643e-14 7.51452e-14 -1.04956e-14 1.35916e-13 0 0 3.50036e-14 -8.19565e-15 7.24883e-14 9.08137e-14 0 0 -5.21806e-14 1.11158e-13 -6.82213e-14 2.92513e-13 0 0 7.45436e-14 -1.72904e-13 2.76707e-13 4.59262e-14 0 0 -7.57077e-14 -4.15936e-14 2.0482e-13 1.31269e-13 0 0 -1.45768e-13 3.40433e-14 9.9857e-14 3.05524e-13 0 0 -2.50242e-13 8.7299e-14 1.97522e-13 9.93128e-14 0 0 -2.34972e-13 6.79494e-15 1.15837e-13 1.38771e-13 0 0 -2.04433e-13 -1.35108e-13 -5.32426e-14 3.23618e-13 0 0 -3.55874e-13 6.35022e-14 -3.72266e-13 4.82994e-13 0 0 1.06208e-13 -5.41052e-13 1.66346e-13 1.01669e-13 0 0 4.72421e-14 -4.46172e-13 2.00581e-13 8.4005e-15 0 0 -1.64858e-13 -1.04613e-13 -2.86752e-13 3.81965e-13 0 0 -1.87676e-14 -2.91372e-13 -3.07102e-13 4.96848e-13 0
				</DataArray>
				<DataArray Name="VitesseY" type="Float32" format="ascii">