<?xml version="1.0"?>
<VTKFile type="PolyData">
	<PolyData>
		<Piece NumberOfPoints="1206" NumberOfPolys="1000">
			<Points>
				<DataArray type="Float32" NumberOfComponents="3" format="ascii">
 0 0 0 0.02 0 0 0.04 0 0 0.06 0 0 0.08 0 0 0.1 0 0 0 0.005 0 0.02 0.005 0 0.04 0.005 0 0.06 0.005 0 0.08 0.005 0 0.1 0.005 0 0 0.01 0 0.02 0.01 0 0.04 0.01 0 0.06 0.01 0 0.08 0.01 0 0.1 0.01 0 0 0.015 0 0.02 0.015 0 0.04 0.015 0 0.06 0.015 0 0.08 0.015 0 0.1 0.015 0 0 0.02 0 0.02 0.02 0 0.04 0.02 0 0.06 0.02 0 0.08 0.02 0 0.1 0.02 0 0 0.025 0 0.02 0.025 0 0.04 0.025 0 0.06 0.025 0 0.08 0.025 0 0.1 0.025 0 0 0.03 0 0.02 0.03 0 0.04 0.03 0 0.06 0.03 0 0.08 0.03 0 0.1 0.03 0 0 0.035 0 0.02 0.035 0 0.04 0.035 0 0.06 0.035 0 0.08 0.035 0 0.1 0.035 0 0 0.04 0 0.02 0.04 0 0.04 0.04 0 0.06 0.04 0 0.08 0.04 0 0.1 0.04 0 0 0.045 0 0.02 0.045 0 0.04 0.045 0 0.06 0.045 0 0.08 0.045 0 0.1 0.045 0 0 0.05 0 0.02 0.05 0 0.04 0.05 0 0.06 0.05 0 0.08 0.05 0 0.1 0.05 0 0 0.055 0 0.02 0.055 0 0.04 0.055 0 0.06 0.055 0 0.08 0.055 0 0.1 0.055 0 0 0.06 0 0.02 0.06 0 0.04 0.06 0 0.06 0.06 0 0.08 0.06 0 0.1 0.06 0 0 0.065 0 0.02 0.065 0 0.04 0.065 0 0.06 0.065 0 0.08 0.065 0 0.1 0.065 0 0 0.07 0 0.02 0.07 0 0.04 0.07 0 0.06 0.07 0 0.08 0.07 0 0.1 0.07 0 0 0.075 0 0.02 0.075 0 0.04 0.075 0 0.06 0.075 0 0.08 0.075 0 0.1 0.075 0 0 0.08 0 0.02 0.08 0 0.04 0.08 0 0.06 0.08 0 0.08 0.08 0 0.1 0.08 0 0 0.085 0 0.02 0.085 0 0.04 0.085 0 0.06 0.085 0 0.08 0.085 0 0.1 0.085 0 0 0.09 0 0.02 0.09 0 0.04 0.09 0 0.06 0.09 0 0.08 0.09 0 0.1 0.09 0 0 0.095 0 0.02 0.095 0 0.04 0.095 0 0.06 0.095 0 0.08 0.095 0 0.1 0.095 0 0 0.1 0 0.02 0.1 0 0.04 0.1 0 0.06 0.1 0 0.08 0.1 0 0.1 0.1 0 0 0.105 0 0.02 0.105 0 0.04 0.105 0 0.06 0.105 0 0.08 0.105 0 0.1 0.105 0 0 0.11 0 0.02 0.11 0 0.04 0.11 0 0.06 0.11 0 0.08 0.11 0 0.1 0.11 0 0 0.115 0 0.02 0.115 0 0.04 0.115 0 0.06 0.115 0 0.08 0.115 0 0.1 0.115 0 0 0.12 0 0.02 0.12 0 0.04 0.12 0 0.06 0.12 0 0.08 0.12 0 0.1 0.12 0 0 0.125 0 0.02 0.125 0 0.04 0.125 0 0.06 0.125 0 0.08 0.125 0 0.1 0.125 0 0 0.13 0 0.02 0.13 0 0.04 0.13 0 0.06 0.13 0 0.08 0.13 0 0.1 0.13 0 0 0.135 0 0.02 0.135 0 0.04 0.135 0 0.06 0.135 0 0.08 0.135 0 0.1 0.135 0 0 0.14 0 0.02 0.14 0 0.04 0.14 0 0.06 0.14 0 0.08 0.14 0 0.1 0.14 0 0 0.145 0 0.02 0.145 0 0.04 0.145 0 0.06 0.145 0 0.08 0.145 0 0.1 0.145 0 0 0.15 0 0.02 0.15 0 0.04 0.15 0 0.06 0.15 0 0.08 0.15 0 0.1 0.15 0 0 0.155 0 0.02 0.155 0 0.04 0.155 0 0.06 0.155 0 0.08 0.155 0 0.1 0.155 0 0 0.16 0 0.02 0.16 0 0.04 0.16 0 0.06 0.16 0 0.08 0.16 0 0.1 0.16 0 0 0.165 0 0.02 0.165 0 0.04 0.165 0 0.06 0.165 0 0.08 0.165 0 0.1 0.165 0 0 0.17 0 0.02 0.17 0 0.04 0.17 0 0.06 0.17 0 0.08 0.17 0 0.1 0.17 0 0 0.175 0 0.02 0.175 0 0.04 0.175 0 0.06 0.175 0 0.08 0.175 0 0.1 0.175 0 0 0.18 0 0.02 0.18 0 0.04 0.18 0 0.06 0.18 0 0.08 0.18 0 0.1 0.18 0 0 0.185 0 0.02 0.185 0 0.04 0.185 0 0.06 0.185 0 0.08 0.185 0 0.1 0.185 0 0 0.19 0 0.02 0.19 0 0.04 0.19 0 0.06 0.19 0 0.08 0.19 0 0.1 0.19 0 0 0.195 0 0.02 0.195 0 0.04 0.195 0 0.06 0.195 0 0.08 0.195 0 0.1 0.195 0 0 0.2 0 0.02 0.2 0 0.04 0.2 0 0.06 0.2 0 0.08 0.2 0 0.1 0.2 0 0 0.205 0 0.02 0.205 0 0.04 0.205 0 0.06 0.205 0 0.08 0.205 0 0.1 0.205 0 0 0.21 0 0.02 0.21 0 0.04 0.21 0 0.06 0.21 0 0.08 0.21 0 0.1 0.21 0 0 0.215 0 0.02 0.215 0 0.04 0.215 0 0.06 0.215 0 0.08 0.215 0 0.1 0.215 0 0 0.22 0 0.02 0.22 0 0.04 0.22 0 0.06 0.22 0 0.08 0.22 0 0.1 0.22 0 0 0.225 0 0.02 0.225 0 0.04 0.225 0 0.06 0.225 0 0.08 0.225 0 0.1 0.225 0 0 0.23 0 0.02 0.23 0 0.04 0.23 0 0.06 0.23 0 0.08 0.23 0 0.1 0.23 0 0 0.235 0 0.02 0.235 0 0.04 0.235 0 0.06 0.235 0 0.08 0.235 0 0.1 0.235 0 0 0.24 0 0.02 0.24 0 0.04 0.24 0 0.06 0.24 0 0.08 0.24 0 0.1 0.24 0 0 0.245 0 0.02 0.245 0 0.04 0.245 0 0.06 0.245 0 0.08 0.245 0 0.1 0.245 0 0 0.25 0 0.02 0.25 0 0.04 0.25 0 0.06 0.25 0 0.08 0.25 0 0.1 0.25 0 0 0.255 0 0.02 0.255 0 0.04 0.255 0 0.06 0.255 0 0.08 0.255 0 0.1 0.255 0 0 0.26 0 0.02 0.26 0 0.04 0.26 0 0.06 0.26 0 0.08 0.26 0 0.1 0.26 0 0 0.265 0 0.02 0.265 0 0.04 0.265 0 0.06 0.265 0 0.08 0.265 0 0.1 0.265 0 0 0.27 0 0.02 0.27 0 0.04 0.27 0 0.06 0.27 0 0.08 0.27 0 0.1 0.27 0 0 0.275 0 0.02 0.275 0 0.04 0.275 0 0.06 0.275 0 0.08 0.275 0 0.1 0.275 0 0 0.28 0 0.02 0.28 0 0.04 0.28 0 0.06 0.28 0 0.08 0.28 0 0.1 0.28 0 0 0.285 0 0.02 0.285 0 0.04 0.285 0 0.06 0.285 0 0.08 0.285 0 0.1 0.285 0 0 0.29 0 0.02 0.29 0 0.04 0.29 0 0.06 0.29 0 0.08 0.29 0 0.1 0.29 0 0 0.295 0 0.02 0.295 0 0.04 0.295 0 0.06 0.295 0 0.08 0.295 0 0.1 0.295 0 0 0.3 0 0.02 0.3 0 0.04 0.3 0 0.06 0.3 0 0.08 0.3 0 0.1 0.3 0 0 0.305 0 0.02 0.305 0 0.04 0.305 0 0.06 0.305 0 0.08 0.305 0 0.1 0.305 0 0 0.31 0 0.02 0.31 0 0.04 0.31 0 0.06 0.31 0 0.08 0.31 0 0.1 0.31 0 0 0.315 0 0.02 0.315 0 0.04 0.315 0 0.06 0.315 0 0.08 0.315 0 0.1 0.315 0 0 0.32 0 0.02 0.32 0 0.04 0.32 0 0.06 0.32 0 0.08 0.32 0 0.1 0.32 0 0 0.325 0 0.02 0.325 0 0.04 0.325 0 0.06 0.325 0 0.08 0.325 0 0.1 0.325 0 0 0.33 0 0.02 0.33 0 0.04 0.33 0 0.06 0.33 0 0.08 0.33 0 0.1 0.33 0 0 0.335 0 0.02 0.335 0 0.04 0.335 0 0.06 0.335 0 0.08 0.335 0 0.1 0.335 0 0 0.34 0 0.02 0.34 0 0.04 0.34 0 0.06 0.34 0 0.08 0.34 0 0.1 0.34 0 0 0.345 0 0.02 0.345 0 0.04 0.345 0 0.06 0.345 0 0.08 0.345 0 0.1 0.345 0 0 0.35 0 0.02 0.35 0 0.04 0.35 0 0.06 0.35 0 0.08 0.35 0 0.1 0.35 0 0 0.355 0 0.02 0.355 0 0.04 0.355 0 0.06 0.355 0 0.08 0.355 0 0.1 0.355 0 0 0.36 0 0.02 0.36 0 0.04 0.36 0 0.06 0.36 0 0.08 0.36 0 0.1 0.36 0 0 0.365 0 0.02 0.365 0 0.04 0.365 0 0.06 0.365 0 0.08 0.365 0 0.1 0.365 0 0 0.37 0 0.02 0.37 0 0.04 0.37 0 0.06 0.37 0 0.08 0.37 0 0.1 0.37 0 0 0.375 0 0.02 0.375 0 0.04 0.375 0 0.06 0.375 0 0.08 0.375 0 0.1 0.375 0 0 0.38 0 0.02 0.38 0 0.04 0.38 0 0.06 0.38 0 0.08 0.38 0 0.1 0.38 0 0 0.385 0 0.02 0.385 0 0.04 0.385 0 0.06 0.385 0 0.08 0.385 0 0.1 0.385 0 0 0.39 0 0.02 0.39 0 0.04 0.39 0 0.06 0.39 0 0.08 0.39 0 0.1 0.39 0 0 0.395 0 0.02 0.395 0 0.04 0.395 0 0.06 0.395 0 0.08 0.395 0 0.1 0.395 0 0 0.4 0 0.02 0.4 0 0.04 0.4 0 0.06 0.4 0 0.08 0.4 0 0.1 0.4 0 0 0.405 0 0.02 0.405 0 0.04 0.405 0 0.06 0.405 0 0.08 0.405 0 0.1 0.405 0 0 0.41 0 0.02 0.41 0 0.04 0.41 0 0.06 0.41 0 0.08 0.41 0 0.1 0.41 0 0 0.415 0 0.02 0.415 0 0.04 0.415 0 0.06 0.415 0 0.08 0.415 0 0.1 0.415 0 0 0.42 0 0.02 0.42 0 0.04 0.42 0 0.06 0.42 0 0.08 0.42 0 0.1 0.42 0 0 0.425 0 0.02 0.425 0 0.04 0.425 0 0.06 0.425 0 0.08 0.425 0 0.1 0.425 0 0 0.43 0 0.02 0.43 0 0.04 0.43 0 0.06 0.43 0 0.08 0.43 0 0.1 0.43 0 0 0.435 0 0.02 0.435 0 0.04 0.435 0 0.06 0.435 0 0.08 0.435 0 0.1 0.435 0 0 0.44 0 0.02 0.44 0 0.04 0.44 0 0.06 0.44 0 0.08 0.44 0 0.1 0.44 0 0 0.445 0 0.02 0.445 0 0.04 0.445 0 0.06 0.445 0 0.08 0.445 0 0.1 0.445 0 0 0.45 0 0.02 0.45 0 0.04 0.45 0 0.06 0.45 0 0.08 0.45 0 0.1 0.45 0 0 0.455 0 0.02 0.455 0 0.04 0.455 0 0.06 0.455 0 0.08 0.455 0 0.1 0.455 0 0 0.46 0 0.02 0.46 0 0.04 0.46 0 0.06 0.46 0 0.08 0.46 0 0.1 0.46 0 0 0.465 0 0.02 0.465 0 0.04 0.465 0 0.06 0.465 0 0.08 0.465 0 0.1 0.465 0 0 0.47 0 0.02 0.47 0 0.04 0.47 0 0.06 0.47 0 0.08 0.47 0 0.1 0.47 0 0 0.475 0 0.02 0.475 0 0.04 0.475 0 0.06 0.475 0 0.08 0.475 0 0.1 0.475 0 0 0.48 0 0.02 0.48 0 0.04 0.48 0 0.06 0.48 0 0.08 0.48 0 0.1 0.48 0 0 0.485 0 0.02 0.485 0 0.04 0.485 0 0.06 0.485 0 0.08 0.485 0 0.1 0.485 0 0 0.49 0 0.02 0.49 0 0.04 0.49 0 0.06 0.49 0 0.08 0.49 0 0.1 0.49 0 0 0.495 0 0.02 0.495 0 0.04 0.495 0 0.06 0.495 0 0.08 0.495 0 0.1 0.495 0 0 0.5 0 0.02 0.5 0 0.04 0.5 0 0.06 0.5 0 0.08 0.5 0 0.1 0.5 0 0 0.505 0 0.02 0.505 0 0.04 0.505 0 0.06 0.505 0 0.08 0.505 0 0.1 0.505 0 0 0.51 0 0.02 0.51 0 0.04 0.51 0 0.06 0.51 0 0.08 0.51 0 0.1 0.51 0 0 0.515 0 0.02 0.515 0 0.04 0.515 0 0.06 0.515 0 0.08 0.515 0 0.1 0.515 0 0 0.52 0 0.02 0.52 0 0.04 0.52 0 0.06 0.52 0 0.08 0.52 0 0.1 0.52 0 0 0.525 0 0.02 0.525 0 0.04 0.525 0 0.06 0.525 0 0.08 0.525 0 0.1 0.525 0 0 0.53 0 0.02 0.53 0 0.04 0.53 0 0.06 0.53 0 0.08 0.53 0 0.1 0.53 0 0 0.535 0 0.02 0.535 0 0.04 0.535 0 0.06 0.535 0 0.08 0.535 0 0.1 0.535 0 0 0.54 0 0.02 0.54 0 0.04 0.54 0 0.06 0.54 0 0.08 0.54 0 0.1 0.54 0 0 0.545 0 0.02 0.545 0 0.04 0.545 0 0.06 0.545 0 0.08 0.545 0 0.1 0.545 0 0 0.55 0 0.02 0.55 0 0.04 0.55 0 0.06 0.55 0 0.08 0.55 0 0.1 0.55 0 0 0.555 0 0.02 0.555 0 0.04 0.555 0 0.06 0.555 0 0.08 0.555 0 0.1 0.555 0 0 0.56 0 0.02 0.56 0 0.04 0.56 0 0.06 0.56 0 0.08 0.56 0 0.1 0.56 0 0 0.565 0 0.02 0.565 0 0.04 0.565 0 0.06 0.565 0 0.08 0.565 0 0.1 0.565 0 0 0.57 0 0.02 0.57 0 0.04 0.57 0 0.06 0.57 0 0.08 0.57 0 0.1 0.57 0 0 0.575 0 0.02 0.575 0 0.04 0.575 0 0.06 0.575 0 0.08 0.575 0 0.1 0.575 0 0 0.58 0 0.02 0.58 0 0.04 0.58 0 0.06 0.58 0 0.08 0.58 0 0.1 0.58 0 0 0.585 0 0.02 0.585 0 0.04 0.585 0 0.06 0.585 0 0.08 0.585 0 0.1 0.585 0 0 0.59 0 0.02 0.59 0 0.04 0.59 0 0.06 0.59 0 0.08 0.59 0 0.1 0.59 0 0 0.595 0 0.02 0.595 0 0.04 0.595 0 0.06 0.595 0 0.08 0.595 0 0.1 0.595 0 0 0.6 0 0.02 0.6 0 0.04 0.6 0 0.06 0.6 0 0.08 0.6 0 0.1 0.6 0 0 0.605 0 0.02 0.605 0 0.04 0.605 0 0.06 0.605 0 0.08 0.605 0 0.1 0.605 0 0 0.61 0 0.02 0.61 0 0.04 0.61 0 0.06 0.61 0 0.08 0.61 0 0.1 0.61 0 0 0.615 0 0.02 0.615 0 0.04 0.615 0 0.06 0.615 0 0.08 0.615 0 0.1 0.615 0 0 0.62 0 0.02 0.62 0 0.04 0.62 0 0.06 0.62 0 0.08 0.62 0 0.1 0.62 0 0 0.625 0 0.02 0.625 0 0.04 0.625 0 0.06 0.625 0 0.08 0.625 0 0.1 0.625 0 0 0.63 0 0.02 0.63 0 0.04 0.63 0 0.06 0.63 0 0.08 0.63 0 0.1 0.63 0 0 0.635 0 0.02 0.635 0 0.04 0.635 0 0.06 0.635 0 0.08 0.635 0 0.1 0.635 0 0 0.64 0 0.02 0.64 0 0.04 0.64 0 0.06 0.64 0 0.08 0.64 0 0.1 0.64 0 0 0.645 0 0.02 0.645 0 0.04 0.645 0 0.06 0.645 0 0.08 0.645 0 0.1 0.645 0 0 0.65 0 0.02 0.65 0 0.04 0.65 0 0.06 0.65 0 0.08 0.65 0 0.1 0.65 0 0 0.655 0 0.02 0.655 0 0.04 0.655 0 0.06 0.655 0 0.08 0.655 0 0.1 0.655 0 0 0.66 0 0.02 0.66 0 0.04 0.66 0 0.06 0.66 0 0.08 0.66 0 0.1 0.66 0 0 0.665 0 0.02 0.665 0 0.04 0.665 0 0.06 0.665 0 0.08 0.665 0 0.1 0.665 0 0 0.67 0 0.02 0.67 0 0.04 0.67 0 0.06 0.67 0 0.08 0.67 0 0.1 0.67 0 0 0.675 0 0.02 0.675 0 0.04 0.675 0 0.06 0.675 0 0.08 0.675 0 0.1 0.675 0 0 0.68 0 0.02 0.68 0 0.04 0.68 0 0.06 0.68 0 0.08 0.68 0 0.1 0.68 0 0 0.685 0 0.02 0.685 0 0.04 0.685 0 0.06 0.685 0 0.08 0.685 0 0.1 0.685 0 0 0.69 0 0.02 0.69 0 0.04 0.69 0 0.06 0.69 0 0.08 0.69 0 0.1 
[...]
			<PointData Scalars="VitesseX">
				<DataArray Name="VitesseX" type="Float32" format="ascii">
 0 2.34829e-14 6.33092e-16 2.78308e-14 2.79003e-14 0 0 2.24261e-14 8.06373e-15 2.25185e-14 3.1014e-14 0 0 2.38188e-14 1.86505e-14 2.17648e-14 2.86407e-14 0 0 3.53924e-14 2.06238e-14 3.2243e-14 1.72085e-14 0 0 2.66762e-14 5.39616e-14 8.83953e-15 3.07284e-14 0 0 1.80824e-14 7.03808e-14 1.29401e-14 2.67208e-14 0 0 3.86604e-14 4.42391e-14 5.40512e-14 -1.36379e-15 0 0 6.35241e-14 1.87901e-14 8.33583e-14 -1.69637e-14 0 0 7.67345e-14 1.99167e-14 7.57098e-14 -6.62125e-15 0 0 6.94137e-14 5.43193e-14 3.3715e-14 2.57354e-14 0 0 4.3747e-14 9.7315e-14 -3.70092e-15 4.43395e-14 0 0 2.24801e-14 1.19796e-13 -1.17002e-14 3.00264e-14 0 0 7.44338e-14 2.32973e-14 8.86835e-14 -3.85586e-14 0 0 8.10269e-14 2.67592e-14 7.58272e-14 -4.00414e-14 0 0 4.09004e-14 1.16761e-13 -1.97887e-15 -2.74874e-14 0 0 7.85601e-14 6.69488e-14 4.65483e-14 -5.30784e-14 0 0 7.0316e-14 6.47408e-14 3.58512e-14 -5.59474e-15 0 0 8.97973e-14 2.23207e-15 9.53665e-14 -1.58675e-14 0 0 6.91889e-14 3.52113e-14 3.66981e-14 5.99576e-14 0 0 6.88224e-15 1.60882e-13 -1.09443e-13 1.70037e-13 0 0 6.14319e-14 9.0191e-14 -6.65203e-14 1.52631e-13 0 0 4.91461e-14 1.0542e-13 -7.78215e-14 1.48397e-13 0 0 1.93704e-14 1.17793e-13 1.45055e-14 1.60902e-14 0 0 5.81155e-14 2.05727e-14 1.66979e-13 -7.76001e-14 0 0 7.58266e-14 2.14315e-15 1.91031e-13 -6.62251e-14 0 0 2.24315e-14 9.82265e-14 1.33815e-13 -6.30711e-14 0 0 -3.68567e-14 1.60426e-13 8.89907e-14 -1.99646e-14 0 0 -3.56567e-14 9.95339e-14 1.48718e-13 -1.59615e-14 0 0 -5.13972e-15 6.24333e-14 1.2433e-13 3.01903e-14 0 0 6.85802e-14 9.45101e-15 1.11966e-13 2.92216e-14 0 0 1.3251e-13 -6.05878e-14 1.86093e-13 -8.23155e-14 0 0 5.26631e-14 7.16656e-14 7.54017e-14 -6.96583e-14 0 0 -2.47768e-14 1.62689e-13 -4.52543e-14 3.32805e-14 0 0 3.62236e-14 6.54521e-14 -3.19982e-14 9.56261e-14 0 0 7.34355e-14 3.55647e-14 -4.68444e-14 1.4182e-13 0 0 1.36833e-13 -8.83503e-14 1.33248e-13 6.87397e-15 0 0 1.59904e-13 -1.15903e-13 2.0223e-13 -5.88681e-14 0 0 8.21628e-14 6.27214e-14 -2.46096e-14 1.36965e-13 0 0 8.83543e-14 3.82612e-14 1.52461e-14 1.61253e-13 0 0 1.39049e-13 -7.77975e-14 2.23085e-13 1.64973e-14 0 0 1.33774e-13 2.25049e-15 1.52918e-13 6.24039e-14 0 0 8.37919e-14 1.65065e-13 -1.12428e-14 1.7786e-13 0 0 2.78749e-14 3.1197e-13 -1.29485e-13 2.19909e-13 0 0 7.29025e-14 3.4844e-13 -1.64042e-13 2.2021e-13 0 0 2.47e-13 1.0276e-13 1.19183e-13 3.00049e-14 0 0 3.86243e-13 -1.70106e-13 3.772e-13 -1.00699e-13 0 0 2.33714e-13 7.0612e-14 4.93769e-14 1.54256e-13 0 0 2.17638e-14 4.4348e-13 -3.16457e-13 3.19855e-13 0 0 1.30123e-13 2.44302e-13 -8.57667e-14 1.40905e-13 0 0 2.48495e-13 -4.68552e-14 1.65628e-13 3.75837e-14 0 0 2.35422e-13 -1.62316e-13 2.72241e-13 -1.24746e-15 0 0 1.50696e-13 -4.18707e-14 1.59423e-13 8.51359e-14 0 0 5.29139e-14 1.7978e-13 -9.18201e-14 2.85591e-13 0 0 9.65722e-14 1.46841e-13 -1.04146e-13 2.84976e-13 0 0 2.21179e-13 -6.93433e-14 1.4616e-13 9.67416e-14 0 0 2.2833e-13 -7.11772e-14 1.20615e-13 2.07811e-13 0 0 2.11757e-13 1.02291e-13 -3.81695e-14 2.5622e-13 0 0 2.93833e-13 1.02473e-13 3.67642e-15 1.21737e-13 0 0 2.60438e-13 1.71895e-13 -8.30951e-14 1.69644e-13 0 0 3.0316e-13 8.86585e-14 5.81922e-14 3.67522e-14 0 0 3.59262e-13 8.52149e-15 1.81723e-13 -3.40976e-14 0 0 2.44451e-13 2.28601e-13 3.0021e-14 5.99581e-14 0 0 3.25456e-13 2.79133e-13 -1.18636e-14 1.15789e-13 0 0 4.04539e-13 2.69239e-13 -1.6303e-14 1.32103e-13 0 0 3.78901e-13 1.59351e-13 1.21294e-13 5.65111e-14 0 0 2.87168e-13 1.85598e-13 8.49172e-14 1.38488e-13 0 0 3.16174e-13 2.58847e-13 7.15714e-14 2.50899e-13 0 0 4.71187e-13 4.16277e-13 3.91841e-13 3.68852e-13 0 0 8.11442e-13 1.3797e-12 1.29501e-12 8.98733e-13 0 0 2.68079e-12 4.44153e-12 4.72038e-12 2.77e-12 0 0 8.88375e-12 1.49632e-11 1.49858e-11 9.30003e-12 0 0 2.70403e-11 4.4556e-11 4.42561e-11 2.75749e-11 0 0 7.17116e-11 1.16007e-10 1.15954e-10 7.16892e-11 0 0 1.63782e-10 2.64152e-10 2.6385e-10 1.62699e-10 0 0 3.25363e-10 5.24864e-10 5.22906e-10 3.2211e-10 0 0 5.6861e-10 9.16285e-10 9.10332e-10 5.60219e-10 0 0 8.86884e-10 1.42485e-09 1.4121e-09 8.66468e-10 0 0 1.25441e-09 2.00801e-09 1.98301e-09 1.21174e-09 0 0 1.63487e-09 2.60701e-09 2.55881e-09 1.55688e-09 0 0 1.9912e-09 3.15843e-09 3.0781e-09 1.8626e-09 0 0 2.29519e-09 3.61605e-09 3.49629e-09 2.10024e-09 0 0 2.52318e-09 3.94657e-09 3.7803e-09 2.25305e-09 0 0 2.6585e-09 4.13114e-09 3.92193e-09 2.31843e-09 0 0 2.68605e-09 4.1374e-09 3.87872e-09 2.27081e-09 0 0 2.58631e-09 3.96634e-09 3.69364e-09 2.14512e-09 0 0 2.37099e-09 3.61418e-09 3.3379e-09 1.92305e-09 0 0 2.01335e-09 3.06633e-09 2.83057e-09 1.62657e-09 0 0 1.51451e-09 2.33172e-09 2.18093e-09 1.26488e-09 0 0 8.89683e-10 1.43246e-09 1.41084e-09 8.6504e-10 0 0 7.77115e-11 3.01755e-10 5.10554e-10 3.98325e-10 0 0 -7.57766e-10 -8.71736e-10 -4.61448e-10 -6.36347e-11 0 0 -1.89292e-09 -2.39453e-09 -1.56648e-09 -5.75273e-10 0 0 -3.01566e-09 -3.92273e-09 -2.74797e-09 -1.10974e-09 0 0 -4.25529e-09 -5.55565e-09 -3.95437e-09 -1.64811e-09 0 0 -5.73168e-09 -7.49176e-09 -5.31841e-09 -2.20986e-09 0 0 -7.179e-09 -9.45988e-09 -6.71746e-09 -2.79104e-09 0 0 -8.73112e-09 -1.13582e-08 -8.13446e-09 -3.35469e-09 0 0 -1.02536e-08 -1.36699e-08 -9.61335e-09 -4.04612e-09 0 0 -1.13152e-08 -1.64793e-08 -1.18569e-08 -2.91753e-09 0 0 3.21227e-09 -2.20019e-08 -4.87423e-08 3.56249e-08 0 0 6.77678e-10 -3.96328e-08 -1.16012e-08 2.31279e-09 0 0 -9.70626e-08 -8.81724e-09 1.27861e-07 -1.66362e-07 0 0 -1.89972e-07 6.7042e-08 1.1892e-07 -1.84781e-07 0 0 -1.39384e-07 4.51602e-08 2.30096e-08 -8.22393e-08 0 0 3.812e-08 -3.12583e-08 -8.42981e-08 8.42194e-08 0 0 1.14481e-07 -5.20687e-08 -9.38711e-08 1.09795e-07 0 0 1.06672e-07 -4.38744e-08 -7.82571e-08 9.27521e-08 0 0 7.72185e-08 -2.40311e-08 -4.34856e-08 4.94548e-08 0 0 4.28734e-08 -4.62937e-09 -8.65112e-09 4.44582e-09 0 0 1.22107e-08 1.23594e-08 9.38259e-09 -1.97135e-08 0 0 -2.88681e-09 1.40443e-08 9.64896e-09 -1.93692e-08 0 0 -5.87642e-09 1.19687e-08 1.13293e-08 -1.93536e-08 0 0 -5.6061e-09 2.07527e-09 1.4104e-08 -1.80829e-08 0 0 -1.03743e-09 -1.193e-08 1.47631e-08 -1.49783e-08 0 0 2.44031e-09 -1.37465e-08 1.39591e-08 -1.16811e-08 0 0 1.21296e-09 -7.0156e-09 1.38146e-10 1.50386e-09 0 0 -4.09294e-09 6.59167e-09 -2.04098e-08 2.0285e-08 0 0 -5.65133e-09 7.11377e-09 -2.10445e-08 2.57737e-08 0 0 -4.79465e-09 6.04383e-09 -2.71625e-08 3.49034e-08 0 0 1.4951e-09 -1.57406e-09 -3.26281e-08 3.9891e-08 0 0 5.65252e-09 -9.42775e-09 -2.52457e-08 3.54199e-08 0 0 7.11765e-09 -8.29793e-09 -7.80757e-09 2.3315e-08 0 0 9.28527e-09 -6.98009e-09 1.34807e-08 4.12807e-09 0 0 9.12361e-09 -2.19123e-09 2.9617e-08 -1.28184e-08 0 0 5.16034e-09 5.46065e-09 2.99902e-08 -1.54039e-08 0 0 2.00436e-10 1.21393e-08 2.54014e-08 -1.40439e-08 0 0 -2.96036e-09 1.4372e-08 1.89779e-08 -9.92609e-09 0 0 -3.10404e-09 1.42055e-08 1.2937e-08 -4.42505e-09 0 0 -1.70979e-09 1.20162e-08 7.21474e-09 1.03176e-09 0 0 4.25626e-10 8.55205e-09 5.7558e-09 4.19031e-09 0 0 2.21746e-09 5.51828e-09 5.44947e-09 5.40114e-09 0 0 3.02929e-09 4.04549e-09 5.02256e-09 5.94558e-09 0 0 3.06775e-09 3.84692e-09 4.59557e-09 5.88936e-09 0 0 2.87777e-09 4.14642e-09 4.45126e-09 5.14949e-09 0 0 2.85647e-09 4.54957e-09 4.62842e-09 4.08633e-09 0 0 2.87204e-09 4.68969e-09 4.89464e-09 3.09138e-09 0 0 2.83731e-09 4.70234e-09 4.80394e-09 2.43762e-09 0 0 2.64569e-09 4.42218e-09 4.24287e-09 2.14982e-09 0 0 2.27077e-09 3.67362e-09 3.46831e-09 1.91302e-09 0 0 1.80149e-09 2.85819e-09 2.70274e-09 1.54854e-09 0 0 1.29885e-09 2.04059e-09 1.9396e-09 1.13476e-09 0 0 8.30843e-10 1.30132e-09 1.24353e-09 7.37033e-10 0 0 4.63454e-10 7.27079e-10 6.98051e-10 4.16752e-10 0 0 2.19688e-10 3.45842e-10 3.33804e-10 2.00607e-10 0 0 8.62784e-11 1.36377e-10 1.3233e-10 7.99258e-11 0 0 2.82954e-11 4.45229e-11 4.37489e-11 2.63792e-11 0 0 7.90215e-12 1.24717e-11 1.21872e-11 7.56587e-12 0 0 2.01581e-12 3.31248e-12 2.93129e-12 2.13486e-12 0 0 6.91824e-13 8.34885e-13 9.28823e-13 6.31918e-13 0 0 3.63834e-13 4.23883e-13 5.02904e-13 3.53177e-13 0 0 3.65922e-13 3.48371e-13 4.38268e-13 3.49927e-13 0 0 3.99008e-13 3.30777e-13 4.30558e-13 3.91478e-13 0 0 3.86681e-13 3.78986e-13 4.18555e-13 4.50918e-13 0 0 4.21245e-13 3.59106e-13 4.5867e-13 4.95768e-13 0 0 3.79799e-13 4.59624e-13 3.85896e-13 5.62243e-13 0 0 4.07718e-13 4.63884e-13 4.66486e-13 5.01529e-13 0 0 4.68966e-13 4.7314e-13 4.8493e-13 4.90754e-13 0 0 5.32183e-13 5.28084e-13 4.53837e-13 4.72163e-13 0 0 5.90093e-13 5.38931e-13 5.49874e-13 3.05902e-13 0 0 5.91692e-13 5.5478e-13 5.56569e-13 2.53303e-13 0 0 5.82605e-13 5.72471e-13 5.40358e-13 3.21669e-13 0 0 5.50188e-13 6.72951e-13 3.77251e-13 4.33649e-13 0 0 6.40276e-13 5.68856e-13 4.69057e-13 3.75032e-13 0 0 6.19366e-13 7.03342e-13 3.55142e-13 4.35268e-13 0 0 6.32652e-13 7.73795e-13 2.73159e-13 3.9577e-13 0 0 8.16434e-13 4.63756e-13 6.49278e-13 1.30504e-13 0 0 6.88756e-13 6.26427e-13 5.54333e-13 2.03817e-13 0 0 5.80414e-13 7.09716e-13 5.09746e-13 3.40734e-13 0 0 3.55422e-13 9.48545e-13 3.03405e-13 5.21792e-13 0 0 3.73135e-13 8.84699e-13 3.81402e-13 4.01437e-13 0 0 7.34847e-13 4.69469e-13 6.52344e-13 2.24793e-13 0 0 7.9063e-13 5.06726e-13 5.79301e-13 2.09626e-13 0 0 6.70451e-13 6.33259e-13 5.03756e-13 4.36725e-13 0 0 3.9205e-13 9.24862e-13 4.38898e-13 5.40655e-13 0 0 5.20072e-13 8.13467e-13 6.02031e-13 2.97573e-13 0 0 5.81694e-13 9.47926e-13 4.25504e-13 3.7347e-13 0 0 9.01547e-13 5.0037e-13 8.83084e-13 1.40747e-13 0 0 1.05909e-12 3.54931e-13 8.50593e-13 2.14802e-13 0 0 4.83074e-13 1.09461e-12 3.0703e-13 4.69195e-13 0 0 3.77864e-13 1.02277e-12 3.83951e-13 4.93701e-13 0 0 3.77985e-13 1.04568e-12 1.71735e-13 6.10222e-13 0 0 4.98539e-13 9.08416e-13 3.5053e-13 3.47489e-13 0 0 7.08361e-13 5.71484e-13 6.67631e-13 1.90551e-13 0 0 4.82365e-13 9.1668e-13 4.45948e-13 2.35485e-13 0 0 6.50004e-13 7.08816e-13 6.6254e-13 8.38231e-14 0 0 6.37207e-13 4.71757e-13 7.8241e-13 1.89931e-13 0 0 3.33835e-13 6.15371e-13 6.3254e-13 3.59468e-13 0 0 5.23765e-13 3.00466e-13 7.98657e-13 4.19797e-13 0 0 3.57954e-13 5.71791e-13 5.60993e-13 6.41933e-13 0 0 2.07571e-13 7.01437e-13 4.16916e-13 8.2669e-13 0 0 2.88551e-13 5.90795e-13 4.05645e-13 8.983e-13 0 0 1.76656e-13 8.12457e-13 3.32223e-13 7.02372e-13 0 0 2.68018e-13 6.16483e-13 6.34377e-13 3.5505e-13 0 0 3.18322e-13 5.60208e-13 6.56699e-13 3.25638e-13 0 0 6.17469e-15 9.46609e-13 2.16811e-13 6.58596e-13 0 0 5.67543e-14 6.77813e-13 4.60523e-13 5.83344e-13 0 0 5.89251e-14 5.43462e-13 8.14929e-13 1.39595e-13 0 0 -1.13435e-13 6.63162e-13 9.97696e-13 -2.63439e-13 0 0 -2.64661e-14 4.99171e-13 1.26987e-12 -5.22597e-13 0 0 2.62178e-13 1.23957e-13 1.59136e-12 -6.76722e-13 0 0 4.8529e-13 -2.11387e-13 1.87966e-12 -8.06572e-13 0
				</DataArray>
				<DataArray Name="VitesseY" type="Float32" format="ascii">