<?xml version="1.0"?>
<VTKFile type="PolyData">
	<PolyData>
		<Piece NumberOfPoints="1206" NumberOfPolys="1000">
			<Points>
				<DataArray type="Float32" NumberOfComponents="3" format="ascii">
 0 0 0 0.02 0 0 0.04 0 0 0.06 0 0 0.08 0 0 0.1 0 0 0 0.005 0 0.02 0.005 0 0.04 0.005 0 0.06 0.005 0 0.08 0.005 0 0.1 0.005 0 0 0.01 0 0.02 0.01 0 0.04 0.01 0 0.06 0.01 0 0.08 0.01 0 0.1 0.01 0 0 0.015 0 0.02 0.015 0 0.04 0.015 0 0.06 0.015 0 0.08 0.015 0 0.1 0.015 0 0 0.02 0 0.02 0.02 0 0.04 0.02 0 0.06 0.02 0 0.08 0.02 0 0.1 0.02 0 0 0.025 0 0.02 0.025 0 0.04 0.025 0 0.06 0.025 0 0.08 0.025 0 0.1 0.025 0 0 0.03 0 0.02 0.03 0 0.04 0.03 0 0.06 0.03 0 0.08 0.03 0 0.1 0.03 0 0 0.035 0 0.02 0.035 0 0.04 0.035 0 0.06 0.035 0 0.08 0.035 0 0.1 0.035 0 0 0.04 0 0.02 0.04 0 0.04 0.04 0 0.06 0.04 0 0.08 0.04 0 0.1 0.04 0 0 0.045 0 0.02 0.045 0 0.04 0.045 0 0.06 0.045 0 0.08 0.045 0 0.1 0.045 0 0 0.05 0 0.02 0.05 0 0.04 0.05 0 0.06 0.05 0 0.08 0.05 0 0.1 0.05 0 0 0.055 0 0.02 0.055 0 0.04 0.055 0 0.06 0.055 0 0.08 0.055 0 0.1 0.055 0 0 0.06 0 0.02 0.06 0 0.04 0.06 0 0.06 0.06 0 0.08 0.06 0 0.1 0.06 0 0 0.065 0 0.02 0.065 0 0.04 0.065 0 0.06 0.065 0 0.08 0.065 0 0.1 0.065 0 0 0.07 0 0.02 0.07 0 0.04 0.07 0 0.06 0.07 0 0.08 0.07 0 0.1 0.07 0 0 0.075 0 0.02 0.075 0 0.04 0.075 0 0.06 0.075 0 0.08 0.075 0 0.1 0.075 0 0 0.08 0 0.02 0.08 0 0.04 0.08 0 0.06 0.08 0 0.08 0.08 0 0.1 0.08 0 0 0.085 0 0.02 0.085 0 0.04 0.085 0 0.06 0.085 0 0.08 0.085 0 0.1 0.085 0 0 0.09 0 0.02 0.09 0 0.04 0.09 0 0.06 0.09 0 0.08 0.09 0 0.1 0.09 0 0 0.095 0 0.02 0.095 0 0.04 0.095 0 0.06 0.095 0 0.08 0.095 0 0.1 0.095 0 0 0.1 0 0.02 0.1 0 0.04 0.1 0 0.06 0.1 0 0.08 0.1 0 0.1 0.1 0 0 0.105 0 0.02 0.105 0 0.04 0.105 0 0.06 0.105 0 0.08 0.105 0 0.1 0.105 0 0 0.11 0 0.02 0.11 0 0.04 0.11 0 0.06 0.11 0 0.08 0.11 0 0.1 0.11 0 0 0.115 0 0.02 0.115 0 0.04 0.115 0 0.06 0.115 0 0.08 0.115 0 0.1 0.115 0 0 0.12 0 0.02 0.12 0 0.04 0.12 0 0.06 0.12 0 0.08 0.12 0 0.1 0.12 0 0 0.125 0 0.02 0.125 0 0.04 0.125 0 0.06 0.125 0 0.08 0.125 0 0.1 0.125 0 0 0.13 0 0.02 0.13 0 0.04 0.13 0 0.06 0.13 0 0.08 0.13 0 0.1 0.13 0 0 0.135 0 0.02 0.135 0 0.04 0.135 0 0.06 0.135 0 0.08 0.135 0 0.1 0.135 0 0 0.14 0 0.02 0.14 0 0.04 0.14 0 0.06 0.14 0 0.08 0.14 0 0.1 0.14 0 0 0.145 0 0.02 0.145 0 0.04 0.145 0 0.06 0.145 0 0.08 0.145 0 0.1 0.145 0 0 0.15 0 0.02 0.15 0 0.04 0.15 0 0.06 0.15 0 0.08 0.15 0 0.1 0.15 0 0 0.155 0 0.02 0.155 0 0.04 0.155 0 0.06 0.155 0 0.08 0.155 0 0.1 0.155 0 0 0.16 0 0.02 0.16 0 0.04 0.16 0 0.06 0.16 0 0.08 0.16 0 0.1 0.16 0 0 0.165 0 0.02 0.165 0 0.04 0.165 0 0.06 0.165 0 0.08 0.165 0 0.1 0.165 0 0 0.17 0 0.02 0.17 0 0.04 0.17 0 0.06 0.17 0 0.08 0.17 0 0.1 0.17 0 0 0.175 0 0.02 0.175 0 0.04 0.175 0 0.06 0.175 0 0.08 0.175 0 0.1 0.175 0 0 0.18 0 0.02 0.18 0 0.04 0.18 0 0.06 0.18 0 0.08 0.18 0 0.1 0.18 0 0 0.185 0 0.02 0.185 0 0.04 0.185 0 0.06 0.185 0 0.08 0.185 0 0.1 0.185 0 0 0.19 0 0.02 0.19 0 0.04 0.19 0 0.06 0.19 0 0.08 0.19 0 0.1 0.19 0 0 0.195 0 0.02 0.195 0 0.04 0.195 0 0.06 0.195 0 0.08 0.195 0 0.1 0.195 0 0 0.2 0 0.02 0.2 0 0.04 0.2 0 0.06 0.2 0 0.08 0.2 0 0.1 0.2 0 0 0.205 0 0.02 0.205 0 0.04 0.205 0 0.06 0.205 0 0.08 0.205 0 0.1 0.205 0 0 0.21 0 0.02 0.21 0 0.04 0.21 0 0.06 0.21 0 0.08 0.21 0 0.1 0.21 0 0 0.215 0 0.02 0.215 0 0.04 0.215 0 0.06 0.215 0 0.08 0.215 0 0.1 0.215 0 0 0.22 0 0.02 0.22 0 0.04 0.22 0 0.06 0.22 0 0.08 0.22 0 0.1 0.22 0 0 0.225 0 0.02 0.225 0 0.04 0.225 0 0.06 0.225 0 0.08 0.225 0 0.1 0.225 0 0 0.23 0 0.02 0.23 0 0.04 0.23 0 0.06 0.23 0 0.08 0.23 0 0.1 0.23 0 0 0.235 0 0.02 0.235 0 0.04 0.235 0 0.06 0.235 0 0.08 0.235 0 0.1 0.235 0 0 0.24 0 0.02 0.24 0 0.04 0.24 0 0.06 0.24 0 0.08 0.24 0 0.1 0.24 0 0 0.245 0 0.02 0.245 0 0.04 0.245 0 0.06 0.245 0 0.08 0.245 0 0.1 0.245 0 0 0.25 0 0.02 0.25 0 0.04 0.25 0 0.06 0.25 0 0.08 0.25 0 0.1 0.25 0 0 0.255 0 0.02 0.255 0 0.04 0.255 0 0.06 0.255 0 0.08 0.255 0 0.1 0.255 0 0 0.26 0 0.02 0.26 0 0.04 0.26 0 0.06 0.26 0 0.08 0.26 0 0.1 0.26 0 0 0.265 0 0.02 0.265 0 0.04 0.265 0 0.06 0.265 0 0.08 0.265 0 0.1 0.265 0 0 0.27 0 0.02 0.27 0 0.04 0.27 0 0.06 0.27 0 0.08 0.27 0 0.1 0.27 0 0 0.275 0 0.02 0.275 0 0.04 0.275 0 0.06 0.275 0 0.08 0.275 0 0.1 0.275 0 0 0.28 0 0.02 0.28 0 0.04 0.28 0 0.06 0.28 0 0.08 0.28 0 0.1 0.28 0 0 0.285 0 0.02 0.285 0 0.04 0.285 0 0.06 0.285 0 0.08 0.285 0 0.1 0.285 0 0 0.29 0 0.02 0.29 0 0.04 0.29 0 0.06 0.29 0 0.08 0.29 0 0.1 0.29 0 0 0.295 0 0.02 0.295 0 0.04 0.295 0 0.06 0.295 0 0.08 0.295 0 0.1 0.295 0 0 0.3 0 0.02 0.3 0 0.04 0.3 0 0.06 0.3 0 0.08 0.3 0 0.1 0.3 0 0 0.305 0 0.02 0.305 0 0.04 0.305 0 0.06 0.305 0 0.08 0.305 0 0.1 0.305 0 0 0.31 0 0.02 0.31 0 0.04 0.31 0 0.06 0.31 0 0.08 0.31 0 0.1 0.31 0 0 0.315 0 0.02 0.315 0 0.04 0.315 0 0.06 0.315 0 0.08 0.315 0 0.1 0.315 0 0 0.32 0 0.02 0.32 0 0.04 0.32 0 0.06 0.32 0 0.08 0.32 0 0.1 0.32 0 0 0.325 0 0.02 0.325 0 0.04 0.325 0 0.06 0.325 0 0.08 0.325 0 0.1 0.325 0 0 0.33 0 0.02 0.33 0 0.04 0.33 0 0.06 0.33 0 0.08 0.33 0 0.1 0.33 0 0 0.335 0 0.02 0.335 0 0.04 0.335 0 0.06 0.335 0 0.08 0.335 0 0.1 0.335 0 0 0.34 0 0.02 0.34 0 0.04 0.34 0 0.06 0.34 0 0.08 0.34 0 0.1 0.34 0 0 0.345 0 0.02 0.345 0 0.04 0.345 0 0.06 0.345 0 0.08 0.345 0 0.1 0.345 0 0 0.35 0 0.02 0.35 0 0.04 0.35 0 0.06 0.35 0 0.08 0.35 0 0.1 0.35 0 0 0.355 0 0.02 0.355 0 0.04 0.355 0 0.06 0.355 0 0.08 0.355 0 0.1 0.355 0 0 0.36 0 0.02 0.36 0 0.04 0.36 0 0.06 0.36 0 0.08 0.36 0 0.1 0.36 0 0 0.365 0 0.02 0.365 0 0.04 0.365 0 0.06 0.365 0 0.08 0.365 0 0.1 0.365 0 0 0.37 0 0.02 0.37 0 0.04 0.37 0 0.06 0.37 0 0.08 0.37 0 0.1 0.37 0 0 0.375 0 0.02 0.375 0 0.04 0.375 0 0.06 0.375 0 0.08 0.375 0 0.1 0.375 0 0 0.38 0 0.02 0.38 0 0.04 0.38 0 0.06 0.38 0 0.08 0.38 0 0.1 0.38 0 0 0.385 0 0.02 0.385 0 0.04 0.385 0 0.06 0.385 0 0.08 0.385 0 0.1 0.385 0 0 0.39 0 0.02 0.39 0 0.04 0.39 0 0.06 0.39 0 0.08 0.39 0 0.1 0.39 0 0 0.395 0 0.02 0.395 0 0.04 0.395 0 0.06 0.395 0 0.08 0.395 0 0.1 0.395 0 0 0.4 0 0.02 0.4 0 0.04 0.4 0 0.06 0.4 0 0.08 0.4 0 0.1 0.4 0 0 0.405 0 0.02 0.405 0 0.04 0.405 0 0.06 0.405 0 0.08 0.405 0 0.1 0.405 0 0 0.41 0 0.02 0.41 0 0.04 0.41 0 0.06 0.41 0 0.08 0.41 0 0.1 0.41 0 0 0.415 0 0.02 0.415 0 0.04 0.415 0 0.06 0.415 0 0.08 0.415 0 0.1 0.415 0 0 0.42 0 0.02 0.42 0 0.04 0.42 0 0.06 0.42 0 0.08 0.42 0 0.1 0.42 0 0 0.425 0 0.02 0.425 0 0.04 0.425 0 0.06 0.425 0 0.08 0.425 0 0.1 0.425 0 0 0.43 0 0.02 0.43 0 0.04 0.43 0 0.06 0.43 0 0.08 0.43 0 0.1 0.43 0 0 0.435 0 0.02 0.435 0 0.04 0.435 0 0.06 0.435 0 0.08 0.435 0 0.1 0.435 0 0 0.44 0 0.02 0.44 0 0.04 0.44 0 0.06 0.44 0 0.08 0.44 0 0.1 0.44 0 0 0.445 0 0.02 0.445 0 0.04 0.445 0 0.06 0.445 0 0.08 0.445 0 0.1 0.445 0 0 0.45 0 0.02 0.45 0 0.04 0.45 0 0.06 0.45 0 0.08 0.45 0 0.1 0.45 0 0 0.455 0 0.02 0.455 0 0.04 0.455 0 0.06 0.455 0 0.08 0.455 0 0.1 0.455 0 0 0.46 0 0.02 0.46 0 0.04 0.46 0 0.06 0.46 0 0.08 0.46 0 0.1 0.46 0 0 0.465 0 0.02 0.465 0 0.04 0.465 0 0.06 0.465 0 0.08 0.465 0 0.1 0.465 0 0 0.47 0 0.02 0.47 0 0.04 0.47 0 0.06 0.47 0 0.08 0.47 0 0.1 0.47 0 0 0.475 0 0.02 0.475 0 0.04 0.475 0 0.06 0.475 0 0.08 0.475 0 0.1 0.475 0 0 0.48 0 0.02 0.48 0 0.04 0.48 0 0.06 0.48 0 0.08 0.48 0 0.1 0.48 0 0 0.485 0 0.02 0.485 0 0.04 0.485 0 0.06 0.485 0 0.08 0.485 0 0.1 0.485 0 0 0.49 0 0.02 0.49 0 0.04 0.49 0 0.06 0.49 0 0.08 0.49 0 0.1 0.49 0 0 0.495 0 0.02 0.495 0 0.04 0.495 0 0.06 0.495 0 0.08 0.495 0 0.1 0.495 0 0 0.5 0 0.02 0.5 0 0.04 0.5 0 0.06 0.5 0 0.08 0.5 0 0.1 0.5 0 0 0.505 0 0.02 0.505 0 0.04 0.505 0 0.06 0.505 0 0.08 0.505 0 0.1 0.505 0 0 0.51 0 0.02 0.51 0 0.04 0.51 0 0.06 0.51 0 0.08 0.51 0 0.1 0.51 0 0 0.515 0 0.02 0.515 0 0.04 0.515 0 0.06 0.515 0 0.08 0.515 0 0.1 0.515 0 0 0.52 0 0.02 0.52 0 0.04 0.52 0 0.06 0.52 0 0.08 0.52 0 0.1 0.52 0 0 0.525 0 0.02 0.525 0 0.04 0.525 0 0.06 0.525 0 0.08 0.525 0 0.1 0.525 0 0 0.53 0 0.02 0.53 0 0.04 0.53 0 0.06 0.53 0 0.08 0.53 0 0.1 0.53 0 0 0.535 0 0.02 0.535 0 0.04 0.535 0 0.06 0.535 0 0.08 0.535 0 0.1 0.535 0 0 0.54 0 0.02 0.54 0 0.04 0.54 0 0.06 0.54 0 0.08 0.54 0 0.1 0.54 0 0 0.545 0 0.02 0.545 0 0.04 0.545 0 0.06 0.545 0 0.08 0.545 0 0.1 0.545 0 0 0.55 0 0.02 0.55 0 0.04 0.55 0 0.06 0.55 0 0.08 0.55 0 0.1 0.55 0 0 0.555 0 0.02 0.555 0 0.04 0.555 0 0.06 0.555 0 0.08 0.555 0 0.1 0.555 0 0 0.56 0 0.02 0.56 0 0.04 0.56 0 0.06 0.56 0 0.08 0.56 0 0.1 0.56 0 0 0.565 0 0.02 0.565 0 0.04 0.565 0 0.06 0.565 0 0.08 0.565 0 0.1 0.565 0 0 0.57 0 0.02 0.57 0 0.04 0.57 0 0.06 0.57 0 0.08 0.57 0 0.1 0.57 0 0 0.575 0 0.02 0.575 0 0.04 0.575 0 0.06 0.575 0 0.08 0.575 0 0.1 0.575 0 0 0.58 0 0.02 0.58 0 0.04 0.58 0 0.06 0.58 0 0.08 0.58 0 0.1 0.58 0 0 0.585 0 0.02 0.585 0 0.04 0.585 0 0.06 0.585 0 0.08 0.585 0 0.1 0.585 0 0 0.59 0 0.02 0.59 0 0.04 0.59 0 0.06 0.59 0 0.08 0.59 0 0.1 0.59 0 0 0.595 0 0.02 0.595 0 0.04 0.595 0 0.06 0.595 0 0.08 0.595 0 0.1 0.595 0 0 0.6 0 0.02 0.6 0 0.04 0.6 0 0.06 0.6 0 0.08 0.6 0 0.1 0.6 0 0 0.605 0 0.02 0.605 0 0.04 0.605 0 0.06 0.605 0 0.08 0.605 0 0.1 0.605 0 0 0.61 0 0.02 0.61 0 0.04 0.61 0 0.06 0.61 0 0.08 0.61 0 0.1 0.61 0 0 0.615 0 0.02 0.615 0 0.04 0.615 0 0.06 0.615 0 0.08 0.615 0 0.1 0.615 0 0 0.62 0 0.02 0.62 0 0.04 0.62 0 0.06 0.62 0 0.08 0.62 0 0.1 0.62 0 0 0.625 0 0.02 0.625 0 0.04 0.625 0 0.06 0.625 0 0.08 0.625 0 0.1 0.625 0 0 0.63 0 0.02 0.63 0 0.04 0.63 0 0.06 0.63 0 0.08 0.63 0 0.1 0.63 0 0 0.635 0 0.02 0.635 0 0.04 0.635 0 0.06 0.635 0 0.08 0.635 0 0.1 0.635 0 0 0.64 0 0.02 0.64 0 0.04 0.64 0 0.06 0.64 0 0.08 0.64 0 0.1 0.64 0 0 0.645 0 0.02 0.645 0 0.04 0.645 0 0.06 0.645 0 0.08 0.645 0 0.1 0.645 0 0 0.65 0 0.02 0.65 0 0.04 0.65 0 0.06 0.65 0 0.08 0.65 0 0.1 0.65 0 0 0.655 0 0.02 0.655 0 0.04 0.655 0 0.06 0.655 0 0.08 0.655 0 0.1 0.655 0 0 0.66 0 0.02 0.66 0 0.04 0.66 0 0.06 0.66 0 0.08 0.66 0 0.1 0.66 0 0 0.665 0 0.02 0.665 0 0.04 0.665 0 0.06 0.665 0 0.08 0.665 0 0.1 0.665 0 0 0.67 0 0.02 0.67 0 0.04 0.67 0 0.06 0.67 0 0.08 0.67 0 0.1 0.67 0 0 0.675 0 0.02 0.675 0 0.04 0.675 0 0.06 0.675 0 0.08 0.675 0 0.1 0.675 0 0 0.68 0 0.02 0.68 0 0.04 0.68 0 0.06 0.68 0 0.08 0.68 0 0.1 0.68 0 0 0.685 0 0.02 0.685 0 0.04 0.685 0 0.06 0.685 0 0.08 0.685 0 0.1 0.685 0 0 0.69 0 0.02 0.69 0 0.04 0.69 0 0.06 0.69 0 0.08 0.69 0 0.1 
[...]
			<PointData Scalars="VitesseX">
				<DataArray Name="VitesseX" type="Float32" format="ascii">
 0 -6.4851e-16 -6.51894e-14 3.4966e-14 2.8907e-14 0 0 -9.57677e-15 -4.98507e-14 2.64555e-14 2.97205e-14 0 0 -3.20852e-14 -1.1514e-14 5.3994e-16 3.75568e-14 0 0 -2.49039e-14 -1.29743e-14 -6.18102e-15 4.09776e-14 0 0 -3.54942e-14 7.74756e-15 -4.65424e-14 6.77607e-14 0 0 -5.81334e-14 1.64712e-14 -4.82541e-14 5.07723e-14 0 0 -1.79862e-14 -7.48175e-14 4.4152e-14 -3.36935e-14 0 0 2.52811e-16 -1.02345e-13 5.17445e-14 -6.13186e-14 0 0 -2.64523e-14 -7.13959e-14 -1.43643e-14 -1.31008e-14 0 0 -7.91682e-14 -1.72354e-14 -1.15682e-13 1.03866e-13 0 0 -1.22744e-13 2.52782e-14 -1.68806e-13 1.76001e-13 0 0 -1.25125e-13 -2.19698e-14 -4.21859e-14 6.23192e-14 0 0 -6.48978e-14 -1.19277e-13 1.22579e-13 -1.04579e-13 0 0 -1.03804e-13 -1.56734e-14 1.71713e-14 -7.5953e-14 0 0 -1.13945e-13 1.32198e-14 -6.18498e-14 8.70094e-15 0 0 -4.83099e-14 -1.22074e-13 2.98934e-14 2.47591e-14 0 0 -1.2127e-13 -3.42647e-14 -5.63195e-14 1.20119e-13 0 0 -1.10834e-13 -4.62584e-15 -1.23056e-13 2.02664e-13 0 0 -1.46147e-13 7.58268e-14 -1.9939e-13 2.32389e-13 0 0 -1.60091e-13 6.62313e-14 -1.37779e-13 1.02635e-13 0 0 -4.28626e-14 -1.3117e-13 3.31931e-14 -3.73013e-14 0 0 -3.44871e-14 -1.34592e-13 -2.34095e-14 1.62609e-14 0 0 -1.45054e-13 3.43924e-14 -1.83778e-13 9.03266e-14 0 0 -1.67729e-13 7.62666e-14 -1.76955e-13 -4.15731e-16 0 0 4.44676e-15 -1.67674e-13 8.87561e-14 -2.39184e-13 0 0 9.59195e-14 -2.59225e-13 1.8504e-13 -3.42094e-13 0 0 -5.55529e-14 -4.26643e-14 2.77236e-14 -3.2357e-13 0 0 -2.34856e-13 2.1175e-13 -2.89916e-13 -1.08618e-13 0 0 -1.35429e-13 6.37445e-14 -2.65729e-13 -4.15173e-14 0 0 1.76413e-14 -2.14297e-13 2.50012e-14 -2.14597e-13 0 0 4.53723e-15 -2.26078e-13 9.11079e-14 -2.56772e-13 0 0 4.54488e-14 -2.51839e-13 1.08818e-13 -1.94169e-13 0 0 -4.39359e-14 -8.5578e-14 -7.74898e-14 5.61781e-14 0 0 -2.08734e-13 1.0731e-13 -1.75346e-13 1.79786e-13 0 0 -1.17014e-13 -5.08462e-14 2.02272e-14 8.66768e-14 0 0 3.19865e-14 -2.71115e-13 2.60556e-13 -5.67187e-14 0 0 -2.08266e-13 9.86012e-14 3.50858e-14 3.61605e-14 0 0 -1.24972e-13 1.95327e-14 1.51791e-13 -3.3273e-14 0 0 -5.54516e-15 -1.21692e-13 2.56378e-13 -8.04512e-14 0 0 -1.67145e-13 1.0235e-13 9.1085e-15 5.78965e-14 0 0 -6.83887e-14 -7.76303e-14 2.90828e-14 6.87521e-14 0 0 -9.81818e-14 -7.17806e-14 -1.06413e-13 1.68342e-13 0 0 -1.40025e-13 -9.91568e-14 -2.72427e-14 2.9768e-14 0 0 -6.6671e-15 -2.56785e-13 1.07627e-13 -1.13451e-13 0 0 1.99247e-14 -2.3673e-13 1.09841e-13 -1.61212e-13 0 0 -1.16649e-13 -1.71385e-13 2.72933e-13 -4.03693e-13 0 0 -4.87744e-13 2.65891e-13 -2.98649e-14 -2.86737e-13 0 0 -3.59446e-13 7.09619e-14 7.11049e-14 -2.94962e-13 0 0 -1.86674e-14 -3.33317e-13 3.5212e-13 -4.02784e-13 0 0 -1.07787e-13 -3.18304e-14 8.98786e-15 -1.57353e-13 0 0 -1.57639e-13 1.27411e-13 -1.44808e-13 -9.19087e-14 0 0 -4.16392e-13 3.44962e-13 -1.93953e-13 -2.33182e-13 0 0 -2.21168e-13 -1.59285e-13 4.55506e-13 -7.40983e-13 0 0 -3.51376e-13 1.83618e-13 6.69051e-14 -5.00122e-13 0 0 -5.07137e-13 6.77116e-13 -5.47002e-13 -8.50198e-14 0 0 -8.04197e-14 9.82498e-14 -1.73015e-14 -3.25084e-13 0 0 -3.28645e-13 2.30719e-13 -4.78061e-14 -2.27243e-13 0 0 -2.33068e-13 -2.68089e-13 5.3799e-13 -5.2407e-13 0 0 -3.60624e-13 -1.43907e-13 3.78147e-13 -4.35886e-13 0 0 -5.82137e-13 3.90096e-13 -3.64826e-13 1.81473e-14 0 0 -1.90195e-13 5.19234e-14 -2.47462e-13 -6.01278e-14 0 0 -1.54302e-13 4.61113e-14 -2.23882e-13 -1.33938e-13 0 0 -2.03371e-13 6.65351e-14 -2.04979e-13 -1.70857e-13 0 0 -2.11621e-13 8.74762e-14 -2.45287e-13 -1.52907e-13 0 0 -7.00248e-14 -9.96184e-14 -8.96456e-14 -2.46233e-13 0 0 -6.7e-15 -1.38097e-13 -1.10237e-13 -2.2006e-13 0 0 -1.28136e-13 1.03808e-13 -3.17999e-13 -3.9123e-14 0 0 6.35143e-14 -2.47653e-13 2.62368e-14 -6.02327e-14 0 0 -3.14851e-13 1.521e-13 -1.91549e-13 1.51629e-13 0 0 -6.85817e-13 5.86205e-13 -3.42405e-13 1.49473e-13 0 0 -9.22417e-14 -4.10085e-13 7.45128e-13 -4.95791e-13 0 0 -3.13358e-13 -1.27563e-14 4.15711e-13 -2.11098e-13 0 0 -5.54485e-13 4.79917e-13 -1.38457e-13 9.71979e-14 0 0 -6.14186e-13 6.8176e-13 -4.23937e-13 1.43801e-13 0 0 -3.54428e-13 3.12086e-13 -3.18633e-14 -2.19038e-13 0 0 -3.48456e-14 -2.55718e-13 5.74049e-13 -6.72873e-13 0 0 -5.62362e-13 5.60011e-13 -1.87532e-13 -2.07367e-13 0 0 -5.42735e-13 5.0825e-13 -3.37745e-13 3.93499e-14 0 0 -4.71773e-13 2.36142e-13 -3.92643e-13 3.20871e-13 0 0 -2.23399e-13 -3.02266e-13 1.50232e-13 3.75021e-14 0 0 -5.27417e-13 1.10799e-13 2.50106e-14 -1.42045e-13 0 0 -8.34718e-13 6.2626e-13 -3.88756e-13 -7.64239e-14 0 0 2.11656e-13 -7.88026e-13 6.49809e-13 -5.44024e-13 0 0 -1.29532e-13 -2.00271e-13 8.82901e-15 -1.912e-13 0 0 -1.07022e-12 1.15463e-12 -1.24241e-12 3.94686e-13 0 0 9.46474e-14 -4.45668e-13 -4.25588e-14 -1.53833e-13 0 0 6.06287e-13 -1.20726e-12 7.10816e-13 -4.61561e-13 0 0 -2.7859e-13 1.11295e-13 -2.4684e-13 1.49806e-13 0 0 4.51505e-14 1.14312e-12 1.48713e-13 8.21984e-13 0 0 4.02301e-12 7.84197e-12 6.32208e-12 4.6981e-12 0 0 3.35985e-11 5.08971e-11 4.77091e-11 2.76139e-11 0 0 1.82104e-10 2.69212e-10 2.41297e-10 1.33024e-10 0 0 7.23104e-10 1.0469e-09 8.81005e-10 4.55901e-10 0 0 2.10768e-09 2.96371e-09 2.31512e-09 1.06267e-09 0 0 4.61978e-09 6.35681e-09 4.48764e-09 1.58397e-09 0 0 7.7102e-09 1.06546e-08 6.32268e-09 8.24761e-10 0 0 9.37765e-09 1.3394e-08 7.60109e-09 -2.12157e-09 0 0 4.22361e-09 1.6841e-08 7.21165e-09 -8.37841e-09 0 0 -1.02157e-08 1.70442e-08 9.29812e-09 -1.86558e-08 0 0 -2.60038e-08 1.0391e-08 3.02407e-08 -4.97585e-08 0 0 -2.28438e-08 -1.20317e-08 3.56582e-08 -4.8387e-08 0 0 -7.51073e-09 -3.26764e-08 1.44496e-08 -1.92199e-08 0 0 1.69191e-08 -3.06243e-08 -5.57828e-08 7.51787e-08 0 0 1.99816e-08 -2.84341e-08 -1.06094e-07 1.12781e-07 0 0 1.46852e-08 -3.24558e-08 -9.72376e-08 1.0195e-07 0 0 -2.39076e-09 -3.92931e-08 -5.16248e-08 4.81033e-08 0 0 -1.4319e-08 -3.92081e-08 3.6131e-08 -4.77002e-08 0 0 -1.714e-08 -2.2728e-08 3.93098e-08 -5.36456e-08 0 0 -1.66549e-08 2.73927e-09 2.48161e-08 -4.08919e-08 0 0 -1.16513e-08 7.58858e-09 5.87099e-09 -1.92273e-08 0 0 -4.41568e-09 5.12738e-09 5.87658e-12 -6.2546e-09 0 0 -6.42854e-10 1.63649e-09 -1.6253e-10 -2.882e-09 0 0 1.96231e-10 6.28588e-10 -1.39754e-10 -1.10753e-09 0 0 3.29414e-10 3.86691e-10 1.07343e-11 -2.79502e-10 0 0 2.21559e-10 2.42222e-10 1.03118e-10 -8.12924e-12 0 0 9.7834e-11 1.23971e-10 8.74842e-11 3.57004e-11 0 0 3.41748e-11 4.88747e-11 4.14218e-11 2.18728e-11 0 0 9.66022e-12 1.5979e-11 1.35419e-11 8.37373e-12 0 0 2.43837e-12 4.03283e-12 3.97553e-12 2.08978e-12 0 0 4.09077e-13 7.28522e-13 1.10877e-12 7.93078e-14 0 0 -8.25513e-14 -2.01962e-14 2.51455e-13 -3.29272e-13 0 0 -2.04668e-13 -1.38292e-13 -4.07061e-14 -2.766e-13 0 0 -7.89816e-13 6.14418e-13 -8.05242e-13 2.6237e-13 0 0 -3.49069e-13 -2.19438e-13 2.74212e-14 -1.34532e-13 0 0 -2.85848e-13 -3.50843e-13 1.82548e-13 -2.87397e-13 0 0 -1.20616e-13 -3.86286e-13 4.50037e-14 -3.03972e-13 0 0 -9.44381e-14 -3.35804e-13 -1.53203e-13 -1.55141e-13 0 0 -7.8401e-13 6.14284e-13 -1.01442e-12 4.49343e-13 0 0 -3.28074e-13 -2.42595e-13 6.44936e-15 -2.58509e-13 0 0 -3.89993e-13 -2.88178e-13 3.15048e-13 -6.51712e-13 0 0 -2.23093e-13 -3.70744e-13 2.43264e-13 -6.06479e-13 0 0 -1.57743e-13 -3.59446e-13 -7.4443e-14 -2.57225e-13 0 0 -9.10047e-13 6.82287e-13 -1.17433e-12 5.84777e-13 0 0 -3.77245e-13 -2.68142e-13 -5.20297e-14 -1.82858e-13 0 0 -4.12291e-13 -2.49613e-13 2.3777e-13 -6.33908e-13 0 0 -2.92408e-13 -1.73767e-13 -2.34182e-14 -5.98512e-13 0 0 -1.11465e-13 -4.39316e-13 -5.79426e-14 -4.5013e-13 0 0 -8.92479e-13 4.24872e-13 -8.91536e-13 3.34075e-13 0 0 -2.53919e-13 -5.16317e-13 -4.86157e-14 -8.28307e-14 0 0 -1.32945e-13 -5.81501e-13 1.11078e-13 -4.08578e-13 0 0 -5.37152e-13 -2.89891e-15 -3.80865e-13 -2.28365e-13 0 0 8.5674e-14 -1.00126e-12 3.83915e-13 -5.11736e-13 0 0 -8.29644e-13 2.83858e-13 -7.97373e-13 3.58444e-13 0 0 -1.0883e-12 7.41159e-13 -1.06779e-12 5.24992e-13 0 0 2.56774e-13 -9.53253e-13 7.21594e-13 -6.84332e-13 0 0 -2.06788e-13 -1.89699e-13 2.3086e-13 -4.59779e-13 0 0 -3.13741e-13 -2.00941e-13 7.5809e-14 -6.02907e-14 0 0 -7.06398e-13 1.78329e-13 -5.84908e-13 7.93204e-13 0 0 -1.06539e-12 5.12233e-13 -7.78194e-13 8.8959e-13 0 0 -7.86769e-14 -8.74079e-13 8.14223e-13 -3.2584e-13 0 0 -5.13345e-13 -1.59604e-13 3.80738e-13 -1.12445e-13 0 0 -3.7799e-13 -3.28542e-13 3.11129e-13 2.88473e-13 0 0 -7.11563e-13 1.06065e-13 -4.72325e-13 1.10099e-12 0 0 -8.50598e-13 1.7262e-13 -4.97695e-13 9.42368e-13 0 0 -4.55125e-13 -4.55657e-13 2.47721e-13 -2.34605e-14 0 0 -2.4229e-13 -5.41271e-13 9.96129e-14 -3.66001e-13 0 0 -1.53224e-13 -5.32044e-13 -2.19668e-13 -4.15999e-13 0 0 -8.38661e-13 3.26011e-13 -9.49057e-13 -1.54384e-13 0 0 -6.55169e-13 -1.79317e-13 -3.44701e-13 -4.49407e-13 0 0 -4.63695e-13 -6.62946e-13 2.61366e-13 -8.61275e-13 0 0 -8.23671e-14 -9.32834e-13 3.25796e-13 -1.11748e-12 0 0 -3.26861e-13 -1.55552e-14 -1.10904e-12 -8.01681e-14 0 0 -8.25656e-13 9.76102e-13 -2.21696e-12 7.75645e-13 0 0 -2.73611e-13 -2.68756e-13 -6.36801e-13 -3.23654e-13 0 0 -6.58221e-14 -1.12197e-12 5.87353e-13 -1.2917e-12 0 0 -2.39768e-13 -7.40798e-13 2.07751e-13 -1.27255e-12 0 0 -5.93669e-13 -4.11845e-14 -7.63869e-13 -3.41621e-13 0 0 -9.26936e-13 5.17264e-13 -1.80965e-12 1.08129e-12 0 0 -1.52661e-13 -6.72171e-13 -9.4109e-13 8.3508e-13 0 0 -4.39389e-13 -3.51866e-13 -8.29016e-13 2.7019e-13 0 0 -7.46444e-13 1.84191e-13 -1.03212e-12 -1.7224e-13 0 0 8.71175e-15 -1.04687e-12 2.27861e-13 -1.09562e-12 0 0 -7.15885e-13 -1.18811e-13 -4.97294e-13 -7.19845e-13 0 0 -4.44009e-13 -3.27701e-13 -5.86385e-13 -6.51301e-13 0 0 -4.3127e-13 -8.84642e-14 -1.14403e-12 -3.45539e-13 0 0 -6.37063e-13 1.17513e-13 -1.19162e-12 -2.69288e-13 0 0 -5.93635e-14 -1.16472e-12 4.91879e-13 -1.14188e-12 0 0 -7.24525e-13 -2.90726e-13 -1.10718e-13 -6.95875e-13 0 0 -1.8709e-13 -6.29209e-13 -2.5818e-13 -4.62619e-13 0 0 -1.07228e-13 -3.6961e-13 -9.83692e-13 -5.29398e-14 0 0 -5.59765e-13 1.53797e-13 -1.28156e-12 -4.28056e-14 0 0 -1.07776e-13 -1.03687e-12 3.99076e-13 -1.07136e-12 0 0 -6.93622e-13 -4.1242e-13 1.88497e-13 -9.08894e-13 0 0 -6.08208e-13 -2.58603e-13 -2.83796e-13 -5.00579e-13 0 0 -5.35304e-13 -9.38546e-14 -1.01107e-12 -1.55413e-13 0 0 -5.7904e-13 -1.29309e-13 -8.77311e-13 -5.51802e-13 0 0 8.29352e-14 -1.43946e-12 6.55323e-13 -1.45653e-12 0 0 -6.36707e-13 -3.90886e-13 -2.3705e-13 -7.48733e-13 0 0 -5.1e-13 -2.21779e-13 -4.07898e-13 -6.19622e-13 0 0 -8.05049e-13 2.29357e-13 -7.08832e-13 -6.13377e-13 0 0 -1.13851e-12 2.89623e-13 -6.97508e-13 -4.42548e-13 0 0 2.40888e-13 -2.13704e-12 1.59661e-12 -1.48967e-12 0 0 -1.30039e-12 2.62717e-13 -5.42913e-13 -3.79815e-13 0 0 -1.88582e-12 1.52204e-12 -1.74014e-12 8.00199e-14 0 0 -1.47579e-13 -6.38689e-13 2.88271e-13 -1.34339e-12 0 0 -3.03197e-14 -8.55772e-13 5.92604e-13 -1.60086e-12 0 0 6.94527e-14 -1.32542e-12 9.15982e-13 -1.63685e-12 0 0 -1.34863e-12 9.79102e-13 -1.74378e-12 2.94372e-13 0 0 -1.35226e-12 1.06606e-12 -1.8681e-12 5.1797e-13 0 0 -4.55118e-14 -1.27572e-12 1.0289e-12 -1.46394e-12 0 0 -3.93576e-13 -1.02458e-12 1.22936e-12 -1.71816e-12 0
				</DataArray>
				<DataArray Name="VitesseY" type="Float32" format="ascii">