<?xml version="1.0"?>
<VTKFile type="PolyData">
	<PolyData>
		<Piece NumberOfPoints="1206" NumberOfPolys="1000">
			<Points>
				<DataArray type="Float32" NumberOfComponents="3" format="ascii">
 0 0 0 0.02 0 0 0.04 0 0 0.06 0 0 0.08 0 0 0.1 0 0 0 0.005 0 0.02 0.005 0 0.04 0.005 0 0.06 0.005 0 0.08 0.005 0 0.1 0.005 0 0 0.01 0 0.02 0.01 0 0.04 0.01 0 0.06 0.01 0 0.08 0.01 0 0.1 0.01 0 0 0.015 0 0.02 0.015 0 0.04 0.015 0 0.06 0.015 0 0.08 0.015 0 0.1 0.015 0 0 0.02 0 0.02 0.02 0 0.04 0.02 0 0.06 0.02 0 0.08 0.02 0 0.1 0.02 0 0 0.025 0 0.02 0.025 0 0.04 0.025 0 0.06 0.025 0 0.08 0.025 0 0.1 0.025 0 0 0.03 0 0.02 0.03 0 0.04 0.03 0 0.06 0.03 0 0.08 0.03 0 0.1 0.03 0 0 0.035 0 0.02 0.035 0 0.04 0.035 0 0.06 0.035 0 0.08 0.035 0 0.1 0.035 0 0 0.04 0 0.02 0.04 0 0.04 0.04 0 0.06 0.04 0 0.08 0.04 0 0.1 0.04 0 0 0.045 0 0.02 0.045 0 0.04 0.045 0 0.06 0.045 0 0.08 0.045 0 0.1 0.045 0 0 0.05 0 0.02 0.05 0 0.04 0.05 0 0.06 0.05 0 0.08 0.05 0 0.1 0.05 0 0 0.055 0 0.02 0.055 0 0.04 0.055 0 0.06 0.055 0 0.08 0.055 0 0.1 0.055 0 0 0.06 0 0.02 0.06 0 0.04 0.06 0 0.06 0.06 0 0.08 0.06 0 0.1 0.06 0 0 0.065 0 0.02 0.065 0 0.04 0.065 0 0.06 0.065 0 0.08 0.065 0 0.1 0.065 0 0 0.07 0 0.02 0.07 0 0.04 0.07 0 0.06 0.07 0 0.08 0.07 0 0.1 0.07 0 0 0.075 0 0.02 0.075 0 0.04 0.075 0 0.06 0.075 0 0.08 0.075 0 0.1 0.075 0 0 0.08 0 0.02 0.08 0 0.04 0.08 0 0.06 0.08 0 0.08 0.08 0 0.1 0.08 0 0 0.085 0 0.02 0.085 0 0.04 0.085 0 0.06 0.085 0 0.08 0.085 0 0.1 0.085 0 0 0.09 0 0.02 0.09 0 0.04 0.09 0 0.06 0.09 0 0.08 0.09 0 0.1 0.09 0 0 0.095 0 0.02 0.095 0 0.04 0.095 0 0.06 0.095 0 0.08 0.095 0 0.1 0.095 0 0 0.1 0 0.02 0.1 0 0.04 0.1 0 0.06 0.1 0 0.08 0.1 0 0.1 0.1 0 0 0.105 0 0.02 0.105 0 0.04 0.105 0 0.06 0.105 0 0.08 0.105 0 0.1 0.105 0 0 0.11 0 0.02 0.11 0 0.04 0.11 0 0.06 0.11 0 0.08 0.11 0 0.1 0.11 0 0 0.115 0 0.02 0.115 0 0.04 0.115 0 0.06 0.115 0 0.08 0.115 0 0.1 0.115 0 0 0.12 0 0.02 0.12 0 0.04 0.12 0 0.06 0.12 0 0.08 0.12 0 0.1 0.12 0 0 0.125 0 0.02 0.125 0 0.04 0.125 0 0.06 0.125 0 0.08 0.125 0 0.1 0.125 0 0 0.13 0 0.02 0.13 0 0.04 0.13 0 0.06 0.13 0 0.08 0.13 0 0.1 0.13 0 0 0.135 0 0.02 0.135 0 0.04 0.135 0 0.06 0.135 0 0.08 0.135 0 0.1 0.135 0 0 0.14 0 0.02 0.14 0 0.04 0.14 0 0.06 0.14 0 0.08 0.14 0 0.1 0.14 0 0 0.145 0 0.02 0.145 0 0.04 0.145 0 0.06 0.145 0 0.08 0.145 0 0.1 0.145 0 0 0.15 0 0.02 0.15 0 0.04 0.15 0 0.06 0.15 0 0.08 0.15 0 0.1 0.15 0 0 0.155 0 0.02 0.155 0 0.04 0.155 0 0.06 0.155 0 0.08 0.155 0 0.1 0.155 0 0 0.16 0 0.02 0.16 0 0.04 0.16 0 0.06 0.16 0 0.08 0.16 0 0.1 0.16 0 0 0.165 0 0.02 0.165 0 0.04 0.165 0 0.06 0.165 0 0.08 0.165 0 0.1 0.165 0 0 0.17 0 0.02 0.17 0 0.04 0.17 0 0.06 0.17 0 0.08 0.17 0 0.1 0.17 0 0 0.175 0 0.02 0.175 0 0.04 0.175 0 0.06 0.175 0 0.08 0.175 0 0.1 0.175 0 0 0.18 0 0.02 0.18 0 0.04 0.18 0 0.06 0.18 0 0.08 0.18 0 0.1 0.18 0 0 0.185 0 0.02 0.185 0 0.04 0.185 0 0.06 0.185 0 0.08 0.185 0 0.1 0.185 0 0 0.19 0 0.02 0.19 0 0.04 0.19 0 0.06 0.19 0 0.08 0.19 0 0.1 0.19 0 0 0.195 0 0.02 0.195 0 0.04 0.195 0 0.06 0.195 0 0.08 0.195 0 0.1 0.195 0 0 0.2 0 0.02 0.2 0 0.04 0.2 0 0.06 0.2 0 0.08 0.2 0 0.1 0.2 0 0 0.205 0 0.02 0.205 0 0.04 0.205 0 0.06 0.205 0 0.08 0.205 0 0.1 0.205 0 0 0.21 0 0.02 0.21 0 0.04 0.21 0 0.06 0.21 0 0.08 0.21 0 0.1 0.21 0 0 0.215 0 0.02 0.215 0 0.04 0.215 0 0.06 0.215 0 0.08 0.215 0 0.1 0.215 0 0 0.22 0 0.02 0.22 0 0.04 0.22 0 0.06 0.22 0 0.08 0.22 0 0.1 0.22 0 0 0.225 0 0.02 0.225 0 0.04 0.225 0 0.06 0.225 0 0.08 0.225 0 0.1 0.225 0 0 0.23 0 0.02 0.23 0 0.04 0.23 0 0.06 0.23 0 0.08 0.23 0 0.1 0.23 0 0 0.235 0 0.02 0.235 0 0.04 0.235 0 0.06 0.235 0 0.08 0.235 0 0.1 0.235 0 0 0.24 0 0.02 0.24 0 0.04 0.24 0 0.06 0.24 0 0.08 0.24 0 0.1 0.24 0 0 0.245 0 0.02 0.245 0 0.04 0.245 0 0.06 0.245 0 0.08 0.245 0 0.1 0.245 0 0 0.25 0 0.02 0.25 0 0.04 0.25 0 0.06 0.25 0 0.08 0.25 0 0.1 0.25 0 0 0.255 0 0.02 0.255 0 0.04 0.255 0 0.06 0.255 0 0.08 0.255 0 0.1 0.255 0 0 0.26 0 0.02 0.26 0 0.04 0.26 0 0.06 0.26 0 0.08 0.26 0 0.1 0.26 0 0 0.265 0 0.02 0.265 0 0.04 0.265 0 0.06 0.265 0 0.08 0.265 0 0.1 0.265 0 0 0.27 0 0.02 0.27 0 0.04 0.27 0 0.06 0.27 0 0.08 0.27 0 0.1 0.27 0 0 0.275 0 0.02 0.275 0 0.04 0.275 0 0.06 0.275 0 0.08 0.275 0 0.1 0.275 0 0 0.28 0 0.02 0.28 0 0.04 0.28 0 0.06 0.28 0 0.08 0.28 0 0.1 0.28 0 0 0.285 0 0.02 0.285 0 0.04 0.285 0 0.06 0.285 0 0.08 0.285 0 0.1 0.285 0 0 0.29 0 0.02 0.29 0 0.04 0.29 0 0.06 0.29 0 0.08 0.29 0 0.1 0.29 0 0 0.295 0 0.02 0.295 0 0.04 0.295 0 0.06 0.295 0 0.08 0.295 0 0.1 0.295 0 0 0.3 0 0.02 0.3 0 0.04 0.3 0 0.06 0.3 0 0.08 0.3 0 0.1 0.3 0 0 0.305 0 0.02 0.305 0 0.04 0.305 0 0.06 0.305 0 0.08 0.305 0 0.1 0.305 0 0 0.31 0 0.02 0.31 0 0.04 0.31 0 0.06 0.31 0 0.08 0.31 0 0.1 0.31 0 0 0.315 0 0.02 0.315 0 0.04 0.315 0 0.06 0.315 0 0.08 0.315 0 0.1 0.315 0 0 0.32 0 0.02 0.32 0 0.04 0.32 0 0.06 0.32 0 0.08 0.32 0 0.1 0.32 0 0 0.325 0 0.02 0.325 0 0.04 0.325 0 0.06 0.325 0 0.08 0.325 0 0.1 0.325 0 0 0.33 0 0.02 0.33 0 0.04 0.33 0 0.06 0.33 0 0.08 0.33 0 0.1 0.33 0 0 0.335 0 0.02 0.335 0 0.04 0.335 0 0.06 0.335 0 0.08 0.335 0 0.1 0.335 0 0 0.34 0 0.02 0.34 0 0.04 0.34 0 0.06 0.34 0 0.08 0.34 0 0.1 0.34 0 0 0.345 0 0.02 0.345 0 0.04 0.345 0 0.06 0.345 0 0.08 0.345 0 0.1 0.345 0 0 0.35 0 0.02 0.35 0 0.04 0.35 0 0.06 0.35 0 0.08 0.35 0 0.1 0.35 0 0 0.355 0 0.02 0.355 0 0.04 0.355 0 0.06 0.355 0 0.08 0.355 0 0.1 0.355 0 0 0.36 0 0.02 0.36 0 0.04 0.36 0 0.06 0.36 0 0.08 0.36 0 0.1 0.36 0 0 0.365 0 0.02 0.365 0 0.04 0.365 0 0.06 0.365 0 0.08 0.365 0 0.1 0.365 0 0 0.37 0 0.02 0.37 0 0.04 0.37 0 0.06 0.37 0 0.08 0.37 0 0.1 0.37 0 0 0.375 0 0.02 0.375 0 0.04 0.375 0 0.06 0.375 0 0.08 0.375 0 0.1 0.375 0 0 0.38 0 0.02 0.38 0 0.04 0.38 0 0.06 0.38 0 0.08 0.38 0 0.1 0.38 0 0 0.385 0 0.02 0.385 0 0.04 0.385 0 0.06 0.385 0 0.08 0.385 0 0.1 0.385 0 0 0.39 0 0.02 0.39 0 0.04 0.39 0 0.06 0.39 0 0.08 0.39 0 0.1 0.39 0 0 0.395 0 0.02 0.395 0 0.04 0.395 0 0.06 0.395 0 0.08 0.395 0 0.1 0.395 0 0 0.4 0 0.02 0.4 0 0.04 0.4 0 0.06 0.4 0 0.08 0.4 0 0.1 0.4 0 0 0.405 0 0.02 0.405 0 0.04 0.405 0 0.06 0.405 0 0.08 0.405 0 0.1 0.405 0 0 0.41 0 0.02 0.41 0 0.04 0.41 0 0.06 0.41 0 0.08 0.41 0 0.1 0.41 0 0 0.415 0 0.02 0.415 0 0.04 0.415 0 0.06 0.415 0 0.08 0.415 0 0.1 0.415 0 0 0.42 0 0.02 0.42 0 0.04 0.42 0 0.06 0.42 0 0.08 0.42 0 0.1 0.42 0 0 0.425 0 0.02 0.425 0 0.04 0.425 0 0.06 0.425 0 0.08 0.425 0 0.1 0.425 0 0 0.43 0 0.02 0.43 0 0.04 0.43 0 0.06 0.43 0 0.08 0.43 0 0.1 0.43 0 0 0.435 0 0.02 0.435 0 0.04 0.435 0 0.06 0.435 0 0.08 0.435 0 0.1 0.435 0 0 0.44 0 0.02 0.44 0 0.04 0.44 0 0.06 0.44 0 0.08 0.44 0 0.1 0.44 0 0 0.445 0 0.02 0.445 0 0.04 0.445 0 0.06 0.445 0 0.08 0.445 0 0.1 0.445 0 0 0.45 0 0.02 0.45 0 0.04 0.45 0 0.06 0.45 0 0.08 0.45 0 0.1 0.45 0 0 0.455 0 0.02 0.455 0 0.04 0.455 0 0.06 0.455 0 0.08 0.455 0 0.1 0.455 0 0 0.46 0 0.02 0.46 0 0.04 0.46 0 0.06 0.46 0 0.08 0.46 0 0.1 0.46 0 0 0.465 0 0.02 0.465 0 0.04 0.465 0 0.06 0.465 0 0.08 0.465 0 0.1 0.465 0 0 0.47 0 0.02 0.47 0 0.04 0.47 0 0.06 0.47 0 0.08 0.47 0 0.1 0.47 0 0 0.475 0 0.02 0.475 0 0.04 0.475 0 0.06 0.475 0 0.08 0.475 0 0.1 0.475 0 0 0.48 0 0.02 0.48 0 0.04 0.48 0 0.06 0.48 0 0.08 0.48 0 0.1 0.48 0 0 0.485 0 0.02 0.485 0 0.04 0.485 0 0.06 0.485 0 0.08 0.485 0 0.1 0.485 0 0 0.49 0 0.02 0.49 0 0.04 0.49 0 0.06 0.49 0 0.08 0.49 0 0.1 0.49 0 0 0.495 0 0.02 0.495 0 0.04 0.495 0 0.06 0.495 0 0.08 0.495 0 0.1 0.495 0 0 0.5 0 0.02 0.5 0 0.04 0.5 0 0.06 0.5 0 0.08 0.5 0 0.1 0.5 0 0 0.505 0 0.02 0.505 0 0.04 0.505 0 0.06 0.505 0 0.08 0.505 0 0.1 0.505 0 0 0.51 0 0.02 0.51 0 0.04 0.51 0 0.06 0.51 0 0.08 0.51 0 0.1 0.51 0 0 0.515 0 0.02 0.515 0 0.04 0.515 0 0.06 0.515 0 0.08 0.515 0 0.1 0.515 0 0 0.52 0 0.02 0.52 0 0.04 0.52 0 0.06 0.52 0 0.08 0.52 0 0.1 0.52 0 0 0.525 0 0.02 0.525 0 0.04 0.525 0 0.06 0.525 0 0.08 0.525 0 0.1 0.525 0 0 0.53 0 0.02 0.53 0 0.04 0.53 0 0.06 0.53 0 0.08 0.53 0 0.1 0.53 0 0 0.535 0 0.02 0.535 0 0.04 0.535 0 0.06 0.535 0 0.08 0.535 0 0.1 0.535 0 0 0.54 0 0.02 0.54 0 0.04 0.54 0 0.06 0.54 0 0.08 0.54 0 0.1 0.54 0 0 0.545 0 0.02 0.545 0 0.04 0.545 0 0.06 0.545 0 0.08 0.545 0 0.1 0.545 0 0 0.55 0 0.02 0.55 0 0.04 0.55 0 0.06 0.55 0 0.08 0.55 0 0.1 0.55 0 0 0.555 0 0.02 0.555 0 0.04 0.555 0 0.06 0.555 0 0.08 0.555 0 0.1 0.555 0 0 0.56 0 0.02 0.56 0 0.04 0.56 0 0.06 0.56 0 0.08 0.56 0 0.1 0.56 0 0 0.565 0 0.02 0.565 0 0.04 0.565 0 0.06 0.565 0 0.08 0.565 0 0.1 0.565 0 0 0.57 0 0.02 0.57 0 0.04 0.57 0 0.06 0.57 0 0.08 0.57 0 0.1 0.57 0 0 0.575 0 0.02 0.575 0 0.04 0.575 0 0.06 0.575 0 0.08 0.575 0 0.1 0.575 0 0 0.58 0 0.02 0.58 0 0.04 0.58 0 0.06 0.58 0 0.08 0.58 0 0.1 0.58 0 0 0.585 0 0.02 0.585 0 0.04 0.585 0 0.06 0.585 0 0.08 0.585 0 0.1 0.585 0 0 0.59 0 0.02 0.59 0 0.04 0.59 0 0.06 0.59 0 0.08 0.59 0 0.1 0.59 0 0 0.595 0 0.02 0.595 0 0.04 0.595 0 0.06 0.595 0 0.08 0.595 0 0.1 0.595 0 0 0.6 0 0.02 0.6 0 0.04 0.6 0 0.06 0.6 0 0.08 0.6 0 0.1 0.6 0 0 0.605 0 0.02 0.605 0 0.04 0.605 0 0.06 0.605 0 0.08 0.605 0 0.1 0.605 0 0 0.61 0 0.02 0.61 0 0.04 0.61 0 0.06 0.61 0 0.08 0.61 0 0.1 0.61 0 0 0.615 0 0.02 0.615 0 0.04 0.615 0 0.06 0.615 0 0.08 0.615 0 0.1 0.615 0 0 0.62 0 0.02 0.62 0 0.04 0.62 0 0.06 0.62 0 0.08 0.62 0 0.1 0.62 0 0 0.625 0 0.02 0.625 0 0.04 0.625 0 0.06 0.625 0 0.08 0.625 0 0.1 0.625 0 0 0.63 0 0.02 0.63 0 0.04 0.63 0 0.06 0.63 0 0.08 0.63 0 0.1 0.63 0 0 0.635 0 0.02 0.635 0 0.04 0.635 0 0.06 0.635 0 0.08 0.635 0 0.1 0.635 0 0 0.64 0 0.02 0.64 0 0.04 0.64 0 0.06 0.64 0 0.08 0.64 0 0.1 0.64 0 0 0.645 0 0.02 0.645 0 0.04 0.645 0 0.06 0.645 0 0.08 0.645 0 0.1 0.645 0 0 0.65 0 0.02 0.65 0 0.04 0.65 0 0.06 0.65 0 0.08 0.65 0 0.1 0.65 0 0 0.655 0 0.02 0.655 0 0.04 0.655 0 0.06 0.655 0 0.08 0.655 0 0.1 0.655 0 0 0.66 0 0.02 0.66 0 0.04 0.66 0 0.06 0.66 0 0.08 0.66 0 0.1 0.66 0 0 0.665 0 0.02 0.665 0 0.04 0.665 0 0.06 0.665 0 0.08 0.665 0 0.1 0.665 0 0 0.67 0 0.02 0.67 0 0.04 0.67 0 0.06 0.67 0 0.08 0.67 0 0.1 0.67 0 0 0.675 0 0.02 0.675 0 0.04 0.675 0 0.06 0.675 0 0.08 0.675 0 0.1 0.675 0 0 0.68 0 0.02 0.68 0 0.04 0.68 0 0.06 0.68 0 0.08 0.68 0 0.1 0.68 0 0 0.685 0 0.02 0.685 0 0.04 0.685 0 0.06 0.685 0 0.08 0.685 0 0.1 0.685 0 0 0.69 0 0.02 0.69 0 0.04 0.69 0 0.06 0.69 0 0.08 0.69 0 0.1 
[...]
			<PointData Scalars="VitesseX">
				<DataArray Name="VitesseX" type="Float32" format="ascii">
 0 4.75212e-14 4.96351e-14 6.95571e-14 2.5024e-14 0 0 4.71013e-14 4.38739e-14 7.44326e-14 2.35936e-14 0 0 4.9279e-14 3.15401e-14 8.35664e-14 1.74329e-14 0 0 3.65513e-14 5.76207e-14 5.42853e-14 2.40389e-14 0 0 3.54219e-14 7.43722e-14 3.00933e-14 3.04817e-14 0 0 6.72661e-14 3.25393e-14 6.17204e-14 9.98059e-15 0 0 7.33238e-14 2.75149e-14 6.44674e-14 -4.76425e-15 0 0 4.88443e-14 6.59379e-14 2.36856e-14 1.30186e-14 0 0 4.78082e-14 7.35461e-14 9.5812e-15 2.49001e-14 0 0 4.04083e-14 9.08892e-14 -3.2449e-15 3.03316e-14 0 0 3.80289e-14 9.2022e-14 8.7603e-15 1.89974e-14 0 0 3.21617e-14 1.10321e-13 4.27689e-15 1.19254e-14 0 0 5.14658e-14 9.50074e-14 2.95327e-14 -1.6645e-14 0 0 5.41808e-14 1.03089e-13 4.07012e-14 -4.04831e-14 0 0 1.51322e-14 1.61425e-13 -1.71105e-14 6.82838e-15 0 0 2.12232e-14 1.30081e-13 1.25356e-14 1.68599e-14 0 0 2.59295e-14 1.08715e-13 4.79866e-14 8.47424e-15 0 0 4.61906e-14 6.15652e-14 1.13569e-13 -1.13087e-14 0 0 6.92502e-14 3.75713e-14 1.2969e-13 1.67359e-14 0 0 3.38467e-14 1.41728e-13 -1.38756e-14 1.2126e-13 0 0 8.38077e-14 6.797e-14 7.70319e-14 4.56413e-14 0 0 1.18347e-13 5.81289e-14 7.1138e-14 4.84469e-14 0 0 9.69461e-14 1.26283e-13 2.18692e-14 4.702e-14 0 0 9.89976e-14 1.23651e-13 3.43772e-14 3.50919e-14 0 0 1.10698e-13 9.48462e-14 5.43834e-14 4.9254e-14 0 0 1.09355e-13 6.86943e-14 1.06883e-13 1.50942e-14 0 0 3.32275e-14 1.86526e-13 -5.46677e-15 9.61624e-14 0 0 3.81942e-14 1.46577e-13 5.46886e-14 7.5345e-14 0 0 2.83639e-14 1.23571e-13 1.04441e-13 2.72343e-14 0 0 5.12211e-14 6.80864e-14 1.61478e-13 -2.78284e-14 0 0 9.0646e-14 2.03533e-14 1.40384e-13 -2.87256e-15 0 0 4.52048e-14 1.05439e-13 3.8192e-14 3.49055e-14 0 0 6.45793e-14 6.92239e-14 1.12181e-13 -1.7629e-14 0 0 9.3123e-14 2.61982e-14 1.36339e-13 3.92922e-14 0 0 6.66075e-14 7.92082e-14 6.87131e-14 1.52635e-13 0 0 8.33239e-14 3.21772e-14 1.9914e-13 3.59955e-14 0 0 8.6191e-14 2.39467e-14 2.63064e-13 -2.82322e-14 0 0 8.15548e-14 1.0186e-13 1.40424e-13 1.09935e-13 0 0 8.51507e-14 1.62605e-13 2.31981e-14 1.87433e-13 0 0 1.18194e-13 1.65056e-13 6.37891e-14 4.59685e-14 0 0 1.73467e-13 7.7871e-14 2.59734e-13 -1.95439e-13 0 0 1.59144e-13 7.10753e-14 2.82115e-13 -1.86162e-13 0 0 1.22183e-13 1.11506e-13 1.45798e-13 4.07551e-15 0 0 1.58341e-13 5.69037e-14 1.09045e-13 5.3473e-14 0 0 1.02677e-13 1.69335e-13 -1.94115e-14 1.10574e-13 0 0 7.6871e-14 1.75399e-13 -2.57563e-14 1.40687e-13 0 0 1.10969e-13 9.66753e-14 5.66283e-15 1.60447e-13 0 0 3.59567e-15 2.21566e-13 -1.06917e-13 2.32235e-13 0 0 -7.39235e-14 2.68969e-13 -5.32163e-14 1.78605e-13 0 0 -7.29108e-14 2.72951e-13 4.05636e-14 1.13924e-13 0 0 2.97228e-14 1.7064e-13 1.94269e-13 2.80069e-14 0 0 8.41932e-14 1.4029e-13 2.52962e-13 3.47627e-14 0 0 9.28454e-14 2.20566e-13 1.32823e-13 1.23729e-13 0 0 7.9519e-14 2.77941e-13 5.39439e-14 1.69814e-13 0 0 -4.74861e-14 3.97016e-13 8.18927e-14 1.07805e-13 0 0 -7.85346e-14 5.06515e-13 4.85232e-14 8.40261e-14 0 0 1.20484e-13 3.14872e-13 2.44787e-13 -6.15608e-16 0 0 2.16549e-13 2.11098e-13 3.65201e-13 -7.95252e-14 0 0 4.56778e-14 4.35969e-13 8.18073e-14 1.13839e-13 0 0 3.25018e-14 3.39087e-13 1.07858e-13 2.37761e-13 0 0 5.55228e-14 2.68665e-13 2.08582e-13 3.27648e-13 0 0 1.38954e-13 2.6672e-13 3.64784e-13 3.0284e-13 0 0 3.8524e-13 2.57188e-13 6.27315e-13 3.10978e-13 0 0 5.28712e-13 7.22842e-13 8.63106e-13 6.92102e-13 0 0 9.42795e-13 1.68117e-12 1.81241e-12 1.22045e-12 0 0 2.0909e-12 3.7062e-12 3.8088e-12 2.36145e-12 0 0 4.53571e-12 7.47635e-12 7.55328e-12 4.61434e-12 0 0 8.59214e-12 1.36782e-11 1.38193e-11 8.33734e-12 0 0 1.42263e-11 2.27284e-11 2.26218e-11 1.39311e-11 0 0 2.13274e-11 3.41132e-11 3.38303e-11 2.10081e-11 0 0 2.93369e-11 4.68645e-11 4.68293e-11 2.87468e-11 0 0 3.76737e-11 5.99643e-11 6.0079e-11 3.6583e-11 0 0 4.52909e-11 7.2614e-11 7.17397e-11 4.40639e-11 0 0 5.16971e-11 8.30668e-11 8.16419e-11 4.99035e-11 0 0 5.6473e-11 9.06714e-11 8.86747e-11 5.41196e-11 0 0 5.93012e-11 9.51249e-11 9.24543e-11 5.66055e-11 0 0 6.04102e-11 9.49421e-11 9.35726e-11 5.60323e-11 0 0 5.84649e-11 9.16169e-11 8.99033e-11 5.40854e-11 0 0 5.39513e-11 8.49253e-11 8.23217e-11 5.02896e-11 0 0 4.65707e-11 7.4313e-11 7.11002e-11 4.44026e-11 0 0 3.72991e-11 5.84269e-11 5.81786e-11 3.53143e-11 0 0 2.504e-11 3.99356e-11 4.12716e-11 2.54189e-11 0 0 1.0114e-11 1.86337e-11 2.12853e-11 1.45e-11 0 0 -7.25582e-12 -5.39485e-12 -1.59426e-12 2.63767e-12 0 0 -2.5735e-11 -3.30863e-11 -2.43801e-11 -1.10404e-11 0 0 -4.65575e-11 -6.38561e-11 -5.06991e-11 -2.48736e-11 0 0 -6.75179e-11 -9.52015e-11 -7.66387e-11 -3.93779e-11 0 0 -9.17566e-11 -1.30076e-10 -1.06168e-10 -5.44186e-11 0 0 -1.15553e-10 -1.64134e-10 -1.36085e-10 -6.93753e-11 0 0 -1.40822e-10 -2.00459e-10 -1.6675e-10 -8.47146e-11 0 0 -1.66455e-10 -2.36739e-10 -1.98806e-10 -1.01541e-10 0 0 -1.91508e-10 -2.74154e-10 -2.30632e-10 -1.19112e-10 0 0 -2.16039e-10 -3.1134e-10 -2.62865e-10 -1.37439e-10 0 0 -2.40048e-10 -3.48086e-10 -2.95552e-10 -1.55945e-10 0 0 -2.63102e-10 -3.84541e-10 -3.28336e-10 -1.76027e-10 0 0 -2.80614e-10 -4.21616e-10 -3.65126e-10 -1.94881e-10 0 0 -3.09317e-10 -4.54457e-10 -3.98049e-10 -2.13791e-10 0 0 -2.58308e-10 -5.34225e-10 -4.78368e-10 -1.55326e-10 0 0 1.39474e-09 -1.53357e-09 -1.94826e-09 1.83952e-09 0 0 -6.96512e-09 3.16438e-09 3.64153e-09 -6.84051e-09 0 0 -7.349e-09 3.32207e-09 3.99773e-09 -7.42616e-09 0 0 7.79103e-09 -4.80402e-09 -6.95173e-09 8.80049e-09 0 0 1.31701e-08 -8.56993e-09 -8.16695e-09 1.20717e-08 0 0 6.58548e-09 -5.91085e-09 5.48018e-10 2.008e-09 0 0 -6.45134e-09 2.69678e-09 5.53297e-09 -7.72578e-09 0 0 -7.70285e-09 6.15865e-09 2.55817e-09 -5.63925e-09 0 0 -6.10304e-09 5.68254e-09 -5.3708e-10 -2.40037e-09 0 0 -5.55778e-09 5.25272e-09 -2.43407e-10 -2.60653e-09 0 0 -7.82215e-09 4.33321e-09 5.71914e-09 -9.02611e-09 0 0 -8.14525e-09 3.57311e-09 7.91504e-09 -1.09955e-08 0 0 -5.07486e-09 2.36493e-09 4.37783e-09 -6.3145e-09 0 0 9.19055e-10 -1.23175e-13 -8.44899e-10 1.27666e-09 0 0 4.50044e-09 -1.67771e-09 -3.37859e-09 5.16212e-09 0 0 4.64805e-09 -1.99157e-09 -3.36669e-09 5.23567e-09 0 0 4.39405e-09 -2.02765e-09 -2.3038e-09 4.23694e-09 0 0 3.19401e-09 -1.59809e-09 -1.38135e-09 2.98784e-09 0 0 1.70326e-09 -6.8468e-10 -1.18888e-09 2.31006e-09 0 0 3.8319e-10 -1.02278e-10 -3.94323e-10 1.06423e-09 0 0 -6.17476e-10 1.26062e-10 6.29671e-10 -2.03111e-10 0 0 -7.91453e-10 2.76284e-10 9.42108e-10 -1.08757e-09 0 0 -8.12016e-10 4.1499e-10 8.24537e-10 -1.03465e-09 0 0 -7.72136e-10 4.06117e-10 7.05814e-10 -9.46832e-10 0 0 -5.99661e-10 2.39685e-10 7.46484e-10 -9.66198e-10 0 0 -4.33511e-10 1.84981e-10 3.96627e-10 -6.92544e-10 0 0 -1.27126e-10 2.02585e-10 -7.14668e-10 6.84848e-10 0 0 5.89138e-10 -4.73274e-10 -4.22298e-10 6.71364e-10 0 0 6.51902e-10 -9.65027e-10 5.76883e-10 -1.69402e-10 0 0 -1.24345e-10 1.51967e-10 5.88465e-11 -7.20159e-11 0 0 -1.04795e-09 1.15546e-09 3.78135e-10 -7.49499e-10 0 0 -1.13132e-09 1.10032e-09 1.59337e-09 -2.02289e-09 0 0 -8.59945e-10 8.48029e-10 1.60428e-09 -1.98054e-09 0 0 -3.48089e-10 6.51662e-10 9.39839e-10 -1.21483e-09 0 0 1.68844e-10 2.96234e-10 -5.25571e-11 -9.46052e-11 0 0 6.3748e-10 -1.34085e-10 -4.72611e-10 5.47745e-10 0 0 7.18075e-10 -2.48503e-10 -4.9963e-10 6.45122e-10 0 0 5.2516e-10 -9.52582e-11 -4.67515e-10 6.16151e-10 0 0 2.38521e-10 1.23072e-10 -3.38568e-10 4.60143e-10 0 0 1.28032e-10 1.53601e-10 -1.78827e-10 2.9488e-10 0 0 7.37607e-11 1.53289e-10 -3.02024e-11 1.53268e-10 0 0 3.38754e-11 1.47756e-10 1.08e-10 3.61299e-11 0 0 1.78755e-11 1.55775e-10 1.51094e-10 1.46746e-11 0 0 2.27969e-11 1.52256e-10 1.83542e-10 3.68621e-12 0 0 3.94692e-11 1.40712e-10 1.92262e-10 9.3628e-12 0 0 5.90316e-11 1.33033e-10 1.8932e-10 3.78616e-11 0 0 7.77164e-11 1.26282e-10 1.70736e-10 7.25206e-11 0 0 7.8626e-11 1.30805e-10 1.37481e-10 1.03327e-10 0 0 7.97548e-11 1.28794e-10 1.2722e-10 1.06105e-10 0 0 7.65359e-11 1.23344e-10 1.22388e-10 1.00444e-10 0 0 6.89311e-11 1.12258e-10 1.16884e-10 8.2983e-11 0 0 5.99172e-11 9.83294e-11 1.02657e-10 6.6772e-11 0 0 4.91415e-11 8.0685e-11 8.32326e-11 5.26604e-11 0 0 3.71726e-11 6.08556e-11 6.20815e-11 3.90575e-11 0 0 2.52783e-11 4.13179e-11 4.15188e-11 2.63178e-11 0 0 1.51481e-11 2.46928e-11 2.45086e-11 1.56987e-11 0 0 7.91542e-12 1.2685e-11 1.2633e-11 8.08375e-12 0 0 3.58505e-12 5.62294e-12 5.64307e-12 3.61638e-12 0 0 1.47846e-12 2.28988e-12 2.25844e-12 1.545e-12 0 0 6.05373e-13 9.9607e-13 9.12667e-13 7.21437e-13 0 0 3.0654e-13 5.03397e-13 5.16313e-13 3.68873e-13 0 0 1.93935e-13 3.05536e-13 4.30341e-13 2.3156e-13 0 0 1.42656e-13 2.30434e-13 4.70616e-13 1.17845e-13 0 0 7.35706e-14 2.55656e-13 4.40386e-13 1.51382e-13 0 0 7.8354e-14 1.73129e-13 4.39069e-13 3.05447e-13 0 0 8.43265e-14 1.42817e-13 4.41099e-13 3.80744e-13 0 0 -8.65533e-15 3.27425e-13 2.72459e-13 4.37163e-13 0 0 1.76675e-14 3.48025e-13 2.36919e-13 4.47915e-13 0 0 1.00671e-13 2.42562e-13 3.86511e-13 3.62707e-13 0 0 1.79971e-13 1.08343e-13 5.94667e-13 1.83e-13 0 0 2.10232e-13 1.46011e-13 5.55805e-13 1.99671e-13 0 0 2.15155e-13 2.88e-13 3.7439e-13 3.21859e-13 0 0 1.89368e-13 3.82744e-13 3.23147e-13 3.7249e-13 0 0 1.68253e-13 4.02278e-13 3.97905e-13 3.17129e-13 0 0 2.22607e-13 3.04711e-13 4.88907e-13 3.31303e-13 0 0 2.79405e-13 2.11287e-13 5.16242e-13 4.3616e-13 0 0 2.53687e-13 2.04054e-13 5.83909e-13 3.22511e-13 0 0 3.18754e-13 1.29035e-13 6.67309e-13 1.83027e-13 0 0 2.60034e-13 2.92459e-13 4.38987e-13 2.6991e-13 0 0 2.34011e-13 4.04804e-13 1.63019e-13 4.68311e-13 0 0 2.30628e-13 4.61428e-13 2.33821e-14 5.34081e-13 0 0 2.96323e-13 3.30729e-13 1.61211e-13 4.4313e-13 0 0 3.8628e-13 1.36039e-13 5.14005e-13 1.66044e-13 0 0 1.98071e-13 4.46545e-13 3.76882e-13 1.76634e-13 0 0 2.09069e-13 5.20662e-13 2.88351e-13 2.93494e-13 0 0 4.05147e-13 2.87277e-13 4.5441e-13 3.45305e-13 0 0 5.64184e-13 2.05757e-13 3.34653e-13 6.6193e-13 0 0 4.1262e-13 4.73641e-13 1.95698e-13 7.68974e-13 0 0 3.92851e-13 3.39989e-13 6.17672e-13 4.43706e-13 0 0 2.9013e-13 5.21313e-13 5.30181e-13 4.07467e-13 0 0 2.89867e-13 6.21368e-13 3.40615e-13 5.72554e-13 0 0 3.42478e-13 4.40274e-13 4.7098e-13 5.28988e-13 0 0 1.695e-13 5.46631e-13 2.9627e-13 6.16953e-13 0 0 2.911e-13 2.42437e-13 3.82257e-13 5.68179e-13 0 0 2.40001e-13 2.98534e-13 2.32012e-13 4.56251e-13 0 0 4.03971e-13 5.66562e-14 5.31864e-13 -2.61741e-14 0 0 2.84965e-13 2.62937e-13 3.07887e-13 2.0044e-15 0 0 1.33763e-13 6.44684e-13 -3.09435e-13 5.09078e-13 0 0 6.47481e-13 -2.36646e-13 4.11908e-13 2.0676e-13 0 0 4.19712e-13 -1.25798e-13 3.34781e-13 2.84392e-13 0 0 1.56214e-13 2.66589e-13 -1.11138e-13 5.50462e-13 0 0 1.80479e-13 2.89016e-13 -4.32457e-13 7.75648e-13 0 0 -7.63022e-15 6.01547e-13 -9.57362e-13 1.11648e-12 0
				</DataArray>
				<DataArray Name="VitesseY" type="Float32" format="ascii">