<?xml version="1.0"?>
<VTKFile type="PolyData">
	<PolyData>
		<Piece NumberOfPoints="1206" NumberOfPolys="1000">
			<Points>
				<DataArray type="Float32" NumberOfComponents="3" format="ascii">
 0 0 0 0.02 0 0 0.04 0 0 0.06 0 0 0.08 0 0 0.1 0 0 0 0.005 0 0.02 0.005 0 0.04 0.005 0 0.06 0.005 0 0.08 0.005 0 0.1 0.005 0 0 0.01 0 0.02 0.01 0 0.04 0.01 0 0.06 0.01 0 0.08 0.01 0 0.1 0.01 0 0 0.015 0 0.02 0.015 0 0.04 0.015 0 0.06 0.015 0 0.08 0.015 0 0.1 0.015 0 0 0.02 0 0.02 0.02 0 0.04 0.02 0 0.06 0.02 0 0.08 0.02 0 0.1 0.02 0 0 0.025 0 0.02 0.025 0 0.04 0.025 0 0.06 0.025 0 0.08 0.025 0 0.1 0.025 0 0 0.03 0 0.02 0.03 0 0.04 0.03 0 0.06 0.03 0 0.08 0.03 0 0.1 0.03 0 0 0.035 0 0.02 0.035 0 0.04 0.035 0 0.06 0.035 0 0.08 0.035 0 0.1 0.035 0 0 0.04 0 0.02 0.04 0 0.04 0.04 0 0.06 0.04 0 0.08 0.04 0 0.1 0.04 0 0 0.045 0 0.02 0.045 0 0.04 0.045 0 0.06 0.045 0 0.08 0.045 0 0.1 0.045 0 0 0.05 0 0.02 0.05 0 0.04 0.05 0 0.06 0.05 0 0.08 0.05 0 0.1 0.05 0 0 0.055 0 0.02 0.055 0 0.04 0.055 0 0.06 0.055 0 0.08 0.055 0 0.1 0.055 0 0 0.06 0 0.02 0.06 0 0.04 0.06 0 0.06 0.06 0 0.08 0.06 0 0.1 0.06 0 0 0.065 0 0.02 0.065 0 0.04 0.065 0 0.06 0.065 0 0.08 0.065 0 0.1 0.065 0 0 0.07 0 0.02 0.07 0 0.04 0.07 0 0.06 0.07 0 0.08 0.07 0 0.1 0.07 0 0 0.075 0 0.02 0.075 0 0.04 0.075 0 0.06 0.075 0 0.08 0.075 0 0.1 0.075 0 0 0.08 0 0.02 0.08 0 0.04 0.08 0 0.06 0.08 0 0.08 0.08 0 0.1 0.08 0 0 0.085 0 0.02 0.085 0 0.04 0.085 0 0.06 0.085 0 0.08 0.085 0 0.1 0.085 0 0 0.09 0 0.02 0.09 0 0.04 0.09 0 0.06 0.09 0 0.08 0.09 0 0.1 0.09 0 0 0.095 0 0.02 0.095 0 0.04 0.095 0 0.06 0.095 0 0.08 0.095 0 0.1 0.095 0 0 0.1 0 0.02 0.1 0 0.04 0.1 0 0.06 0.1 0 0.08 0.1 0 0.1 0.1 0 0 0.105 0 0.02 0.105 0 0.04 0.105 0 0.06 0.105 0 0.08 0.105 0 0.1 0.105 0 0 0.11 0 0.02 0.11 0 0.04 0.11 0 0.06 0.11 0 0.08 0.11 0 0.1 0.11 0 0 0.115 0 0.02 0.115 0 0.04 0.115 0 0.06 0.115 0 0.08 0.115 0 0.1 0.115 0 0 0.12 0 0.02 0.12 0 0.04 0.12 0 0.06 0.12 0 0.08 0.12 0 0.1 0.12 0 0 0.125 0 0.02 0.125 0 0.04 0.125 0 0.06 0.125 0 0.08 0.125 0 0.1 0.125 0 0 0.13 0 0.02 0.13 0 0.04 0.13 0 0.06 0.13 0 0.08 0.13 0 0.1 0.13 0 0 0.135 0 0.02 0.135 0 0.04 0.135 0 0.06 0.135 0 0.08 0.135 0 0.1 0.135 0 0 0.14 0 0.02 0.14 0 0.04 0.14 0 0.06 0.14 0 0.08 0.14 0 0.1 0.14 0 0 0.145 0 0.02 0.145 0 0.04 0.145 0 0.06 0.145 0 0.08 0.145 0 0.1 0.145 0 0 0.15 0 0.02 0.15 0 0.04 0.15 0 0.06 0.15 0 0.08 0.15 0 0.1 0.15 0 0 0.155 0 0.02 0.155 0 0.04 0.155 0 0.06 0.155 0 0.08 0.155 0 0.1 0.155 0 0 0.16 0 0.02 0.16 0 0.04 0.16 0 0.06 0.16 0 0.08 0.16 0 0.1 0.16 0 0 0.165 0 0.02 0.165 0 0.04 0.165 0 0.06 0.165 0 0.08 0.165 0 0.1 0.165 0 0 0.17 0 0.02 0.17 0 0.04 0.17 0 0.06 0.17 0 0.08 0.17 0 0.1 0.17 0 0 0.175 0 0.02 0.175 0 0.04 0.175 0 0.06 0.175 0 0.08 0.175 0 0.1 0.175 0 0 0.18 0 0.02 0.18 0 0.04 0.18 0 0.06 0.18 0 0.08 0.18 0 0.1 0.18 0 0 0.185 0 0.02 0.185 0 0.04 0.185 0 0.06 0.185 0 0.08 0.185 0 0.1 0.185 0 0 0.19 0 0.02 0.19 0 0.04 0.19 0 0.06 0.19 0 0.08 0.19 0 0.1 0.19 0 0 0.195 0 0.02 0.195 0 0.04 0.195 0 0.06 0.195 0 0.08 0.195 0 0.1 0.195 0 0 0.2 0 0.02 0.2 0 0.04 0.2 0 0.06 0.2 0 0.08 0.2 0 0.1 0.2 0 0 0.205 0 0.02 0.205 0 0.04 0.205 0 0.06 0.205 0 0.08 0.205 0 0.1 0.205 0 0 0.21 0 0.02 0.21 0 0.04 0.21 0 0.06 0.21 0 0.08 0.21 0 0.1 0.21 0 0 0.215 0 0.02 0.215 0 0.04 0.215 0 0.06 0.215 0 0.08 0.215 0 0.1 0.215 0 0 0.22 0 0.02 0.22 0 0.04 0.22 0 0.06 0.22 0 0.08 0.22 0 0.1 0.22 0 0 0.225 0 0.02 0.225 0 0.04 0.225 0 0.06 0.225 0 0.08 0.225 0 0.1 0.225 0 0 0.23 0 0.02 0.23 0 0.04 0.23 0 0.06 0.23 0 0.08 0.23 0 0.1 0.23 0 0 0.235 0 0.02 0.235 0 0.04 0.235 0 0.06 0.235 0 0.08 0.235 0 0.1 0.235 0 0 0.24 0 0.02 0.24 0 0.04 0.24 0 0.06 0.24 0 0.08 0.24 0 0.1 0.24 0 0 0.245 0 0.02 0.245 0 0.04 0.245 0 0.06 0.245 0 0.08 0.245 0 0.1 0.245 0 0 0.25 0 0.02 0.25 0 0.04 0.25 0 0.06 0.25 0 0.08 0.25 0 0.1 0.25 0 0 0.255 0 0.02 0.255 0 0.04 0.255 0 0.06 0.255 0 0.08 0.255 0 0.1 0.255 0 0 0.26 0 0.02 0.26 0 0.04 0.26 0 0.06 0.26 0 0.08 0.26 0 0.1 0.26 0 0 0.265 0 0.02 0.265 0 0.04 0.265 0 0.06 0.265 0 0.08 0.265 0 0.1 0.265 0 0 0.27 0 0.02 0.27 0 0.04 0.27 0 0.06 0.27 0 0.08 0.27 0 0.1 0.27 0 0 0.275 0 0.02 0.275 0 0.04 0.275 0 0.06 0.275 0 0.08 0.275 0 0.1 0.275 0 0 0.28 0 0.02 0.28 0 0.04 0.28 0 0.06 0.28 0 0.08 0.28 0 0.1 0.28 0 0 0.285 0 0.02 0.285 0 0.04 0.285 0 0.06 0.285 0 0.08 0.285 0 0.1 0.285 0 0 0.29 0 0.02 0.29 0 0.04 0.29 0 0.06 0.29 0 0.08 0.29 0 0.1 0.29 0 0 0.295 0 0.02 0.295 0 0.04 0.295 0 0.06 0.295 0 0.08 0.295 0 0.1 0.295 0 0 0.3 0 0.02 0.3 0 0.04 0.3 0 0.06 0.3 0 0.08 0.3 0 0.1 0.3 0 0 0.305 0 0.02 0.305 0 0.04 0.305 0 0.06 0.305 0 0.08 0.305 0 0.1 0.305 0 0 0.31 0 0.02 0.31 0 0.04 0.31 0 0.06 0.31 0 0.08 0.31 0 0.1 0.31 0 0 0.315 0 0.02 0.315 0 0.04 0.315 0 0.06 0.315 0 0.08 0.315 0 0.1 0.315 0 0 0.32 0 0.02 0.32 0 0.04 0.32 0 0.06 0.32 0 0.08 0.32 0 0.1 0.32 0 0 0.325 0 0.02 0.325 0 0.04 0.325 0 0.06 0.325 0 0.08 0.325 0 0.1 0.325 0 0 0.33 0 0.02 0.33 0 0.04 0.33 0 0.06 0.33 0 0.08 0.33 0 0.1 0.33 0 0 0.335 0 0.02 0.335 0 0.04 0.335 0 0.06 0.335 0 0.08 0.335 0 0.1 0.335 0 0 0.34 0 0.02 0.34 0 0.04 0.34 0 0.06 0.34 0 0.08 0.34 0 0.1 0.34 0 0 0.345 0 0.02 0.345 0 0.04 0.345 0 0.06 0.345 0 0.08 0.345 0 0.1 0.345 0 0 0.35 0 0.02 0.35 0 0.04 0.35 0 0.06 0.35 0 0.08 0.35 0 0.1 0.35 0 0 0.355 0 0.02 0.355 0 0.04 0.355 0 0.06 0.355 0 0.08 0.355 0 0.1 0.355 0 0 0.36 0 0.02 0.36 0 0.04 0.36 0 0.06 0.36 0 0.08 0.36 0 0.1 0.36 0 0 0.365 0 0.02 0.365 0 0.04 0.365 0 0.06 0.365 0 0.08 0.365 0 0.1 0.365 0 0 0.37 0 0.02 0.37 0 0.04 0.37 0 0.06 0.37 0 0.08 0.37 0 0.1 0.37 0 0 0.375 0 0.02 0.375 0 0.04 0.375 0 0.06 0.375 0 0.08 0.375 0 0.1 0.375 0 0 0.38 0 0.02 0.38 0 0.04 0.38 0 0.06 0.38 0 0.08 0.38 0 0.1 0.38 0 0 0.385 0 0.02 0.385 0 0.04 0.385 0 0.06 0.385 0 0.08 0.385 0 0.1 0.385 0 0 0.39 0 0.02 0.39 0 0.04 0.39 0 0.06 0.39 0 0.08 0.39 0 0.1 0.39 0 0 0.395 0 0.02 0.395 0 0.04 0.395 0 0.06 0.395 0 0.08 0.395 0 0.1 0.395 0 0 0.4 0 0.02 0.4 0 0.04 0.4 0 0.06 0.4 0 0.08 0.4 0 0.1 0.4 0 0 0.405 0 0.02 0.405 0 0.04 0.405 0 0.06 0.405 0 0.08 0.405 0 0.1 0.405 0 0 0.41 0 0.02 0.41 0 0.04 0.41 0 0.06 0.41 0 0.08 0.41 0 0.1 0.41 0 0 0.415 0 0.02 0.415 0 0.04 0.415 0 0.06 0.415 0 0.08 0.415 0 0.1 0.415 0 0 0.42 0 0.02 0.42 0 0.04 0.42 0 0.06 0.42 0 0.08 0.42 0 0.1 0.42 0 0 0.425 0 0.02 0.425 0 0.04 0.425 0 0.06 0.425 0 0.08 0.425 0 0.1 0.425 0 0 0.43 0 0.02 0.43 0 0.04 0.43 0 0.06 0.43 0 0.08 0.43 0 0.1 0.43 0 0 0.435 0 0.02 0.435 0 0.04 0.435 0 0.06 0.435 0 0.08 0.435 0 0.1 0.435 0 0 0.44 0 0.02 0.44 0 0.04 0.44 0 0.06 0.44 0 0.08 0.44 0 0.1 0.44 0 0 0.445 0 0.02 0.445 0 0.04 0.445 0 0.06 0.445 0 0.08 0.445 0 0.1 0.445 0 0 0.45 0 0.02 0.45 0 0.04 0.45 0 0.06 0.45 0 0.08 0.45 0 0.1 0.45 0 0 0.455 0 0.02 0.455 0 0.04 0.455 0 0.06 0.455 0 0.08 0.455 0 0.1 0.455 0 0 0.46 0 0.02 0.46 0 0.04 0.46 0 0.06 0.46 0 0.08 0.46 0 0.1 0.46 0 0 0.465 0 0.02 0.465 0 0.04 0.465 0 0.06 0.465 0 0.08 0.465 0 0.1 0.465 0 0 0.47 0 0.02 0.47 0 0.04 0.47 0 0.06 0.47 0 0.08 0.47 0 0.1 0.47 0 0 0.475 0 0.02 0.475 0 0.04 0.475 0 0.06 0.475 0 0.08 0.475 0 0.1 0.475 0 0 0.48 0 0.02 0.48 0 0.04 0.48 0 0.06 0.48 0 0.08 0.48 0 0.1 0.48 0 0 0.485 0 0.02 0.485 0 0.04 0.485 0 0.06 0.485 0 0.08 0.485 0 0.1 0.485 0 0 0.49 0 0.02 0.49 0 0.04 0.49 0 0.06 0.49 0 0.08 0.49 0 0.1 0.49 0 0 0.495 0 0.02 0.495 0 0.04 0.495 0 0.06 0.495 0 0.08 0.495 0 0.1 0.495 0 0 0.5 0 0.02 0.5 0 0.04 0.5 0 0.06 0.5 0 0.08 0.5 0 0.1 0.5 0 0 0.505 0 0.02 0.505 0 0.04 0.505 0 0.06 0.505 0 0.08 0.505 0 0.1 0.505 0 0 0.51 0 0.02 0.51 0 0.04 0.51 0 0.06 0.51 0 0.08 0.51 0 0.1 0.51 0 0 0.515 0 0.02 0.515 0 0.04 0.515 0 0.06 0.515 0 0.08 0.515 0 0.1 0.515 0 0 0.52 0 0.02 0.52 0 0.04 0.52 0 0.06 0.52 0 0.08 0.52 0 0.1 0.52 0 0 0.525 0 0.02 0.525 0 0.04 0.525 0 0.06 0.525 0 0.08 0.525 0 0.1 0.525 0 0 0.53 0 0.02 0.53 0 0.04 0.53 0 0.06 0.53 0 0.08 0.53 0 0.1 0.53 0 0 0.535 0 0.02 0.535 0 0.04 0.535 0 0.06 0.535 0 0.08 0.535 0 0.1 0.535 0 0 0.54 0 0.02 0.54 0 0.04 0.54 0 0.06 0.54 0 0.08 0.54 0 0.1 0.54 0 0 0.545 0 0.02 0.545 0 0.04 0.545 0 0.06 0.545 0 0.08 0.545 0 0.1 0.545 0 0 0.55 0 0.02 0.55 0 0.04 0.55 0 0.06 0.55 0 0.08 0.55 0 0.1 0.55 0 0 0.555 0 0.02 0.555 0 0.04 0.555 0 0.06 0.555 0 0.08 0.555 0 0.1 0.555 0 0 0.56 0 0.02 0.56 0 0.04 0.56 0 0.06 0.56 0 0.08 0.56 0 0.1 0.56 0 0 0.565 0 0.02 0.565 0 0.04 0.565 0 0.06 0.565 0 0.08 0.565 0 0.1 0.565 0 0 0.57 0 0.02 0.57 0 0.04 0.57 0 0.06 0.57 0 0.08 0.57 0 0.1 0.57 0 0 0.575 0 0.02 0.575 0 0.04 0.575 0 0.06 0.575 0 0.08 0.575 0 0.1 0.575 0 0 0.58 0 0.02 0.58 0 0.04 0.58 0 0.06 0.58 0 0.08 0.58 0 0.1 0.58 0 0 0.585 0 0.02 0.585 0 0.04 0.585 0 0.06 0.585 0 0.08 0.585 0 0.1 0.585 0 0 0.59 0 0.02 0.59 0 0.04 0.59 0 0.06 0.59 0 0.08 0.59 0 0.1 0.59 0 0 0.595 0 0.02 0.595 0 0.04 0.595 0 0.06 0.595 0 0.08 0.595 0 0.1 0.595 0 0 0.6 0 0.02 0.6 0 0.04 0.6 0 0.06 0.6 0 0.08 0.6 0 0.1 0.6 0 0 0.605 0 0.02 0.605 0 0.04 0.605 0 0.06 0.605 0 0.08 0.605 0 0.1 0.605 0 0 0.61 0 0.02 0.61 0 0.04 0.61 0 0.06 0.61 0 0.08 0.61 0 0.1 0.61 0 0 0.615 0 0.02 0.615 0 0.04 0.615 0 0.06 0.615 0 0.08 0.615 0 0.1 0.615 0 0 0.62 0 0.02 0.62 0 0.04 0.62 0 0.06 0.62 0 0.08 0.62 0 0.1 0.62 0 0 0.625 0 0.02 0.625 0 0.04 0.625 0 0.06 0.625 0 0.08 0.625 0 0.1 0.625 0 0 0.63 0 0.02 0.63 0 0.04 0.63 0 0.06 0.63 0 0.08 0.63 0 0.1 0.63 0 0 0.635 0 0.02 0.635 0 0.04 0.635 0 0.06 0.635 0 0.08 0.635 0 0.1 0.635 0 0 0.64 0 0.02 0.64 0 0.04 0.64 0 0.06 0.64 0 0.08 0.64 0 0.1 0.64 0 0 0.645 0 0.02 0.645 0 0.04 0.645 0 0.06 0.645 0 0.08 0.645 0 0.1 0.645 0 0 0.65 0 0.02 0.65 0 0.04 0.65 0 0.06 0.65 0 0.08 0.65 0 0.1 0.65 0 0 0.655 0 0.02 0.655 0 0.04 0.655 0 0.06 0.655 0 0.08 0.655 0 0.1 0.655 0 0 0.66 0 0.02 0.66 0 0.04 0.66 0 0.06 0.66 0 0.08 0.66 0 0.1 0.66 0 0 0.665 0 0.02 0.665 0 0.04 0.665 0 0.06 0.665 0 0.08 0.665 0 0.1 0.665 0 0 0.67 0 0.02 0.67 0 0.04 0.67 0 0.06 0.67 0 0.08 0.67 0 0.1 0.67 0 0 0.675 0 0.02 0.675 0 0.04 0.675 0 0.06 0.675 0 0.08 0.675 0 0.1 0.675 0 0 0.68 0 0.02 0.68 0 0.04 0.68 0 0.06 0.68 0 0.08 0.68 0 0.1 0.68 0 0 0.685 0 0.02 0.685 0 0.04 0.685 0 0.06 0.685 0 0.08 0.685 0 0.1 0.685 0 0 0.69 0 0.02 0.69 0 0.04 0.69 0 0.06 0.69 0 0.08 0.69 0 0.1 
[...]
			<PointData Scalars="VitesseX">
				<DataArray Name="VitesseX" type="Float32" format="ascii">
 0 9.31018e-15 -7.89678e-14 4.43124e-14 2.33694e-14 0 0 4.32319e-15 -6.559e-14 2.97874e-14 2.93215e-14 0 0 -3.47931e-14 3.92486e-15 -3.03652e-14 5.74279e-14 0 0 -9.959e-16 -2.92509e-14 -4.78249e-15 3.84302e-14 0 0 4.03989e-15 -2.49626e-14 -3.77176e-14 6.28838e-14 0 0 -5.83006e-14 4.01544e-14 -9.71051e-14 7.65718e-14 0 0 -1.95423e-14 -6.97844e-14 4.01717e-14 -5.57731e-14 0 0 3.24819e-14 -1.62473e-13 1.37404e-13 -1.59043e-13 0 0 -7.17915e-15 -1.01657e-13 4.72313e-14 -9.12411e-14 0 0 -8.0564e-14 6.49974e-15 -1.24774e-13 9.01694e-14 0 0 -4.93139e-14 -3.76559e-14 -1.49309e-13 1.75347e-13 0 0 -8.63058e-14 -2.94658e-14 -9.25138e-14 9.32409e-14 0 0 -4.3044e-15 -2.06935e-13 1.65018e-13 -1.66417e-13 0 0 -6.95154e-14 -1.048e-13 6.07412e-14 -1.3604e-13 0 0 -1.26102e-13 -3.22948e-14 -5.29124e-14 -1.76307e-14 0 0 2.25903e-14 -2.92214e-13 1.55531e-13 -6.86649e-14 0 0 -1.54978e-13 -1.66605e-14 -8.59963e-14 1.34324e-13 0 0 -1.07835e-13 -4.15301e-14 -1.03705e-13 2.35675e-13 0 0 -1.06876e-13 -1.03344e-14 -1.73637e-13 2.99084e-13 0 0 -1.65291e-13 5.2724e-14 -1.55865e-13 1.54594e-13 0 0 3.79089e-15 -2.26006e-13 1.73898e-13 -2.00054e-13 0 0 -1.04752e-14 -1.75736e-13 6.7936e-14 -1.32682e-13 0 0 -1.40345e-13 6.62651e-14 -2.81657e-13 1.42804e-13 0 0 -1.79801e-13 1.30185e-13 -3.4425e-13 1.12757e-13 0 0 3.79709e-14 -2.47159e-13 9.65408e-14 -2.73743e-13 0 0 2.01887e-13 -5.04063e-13 3.75015e-13 -4.81644e-13 0 0 -8.27635e-15 -1.10577e-13 3.22952e-14 -2.5672e-13 0 0 -2.18195e-13 2.74322e-13 -4.18544e-13 7.8977e-14 0 0 -1.25706e-13 1.16521e-13 -3.63684e-13 5.92409e-14 0 0 7.73905e-14 -2.67884e-13 6.92242e-14 -2.80801e-13 0 0 2.94474e-14 -2.20436e-13 7.85908e-14 -2.60505e-13 0 0 2.28937e-14 -2.03493e-13 4.67974e-14 -1.45303e-13 0 0 -8.73962e-15 -1.31885e-13 -6.5671e-14 -2.74543e-14 0 0 -2.51165e-13 2.25952e-13 -4.22979e-13 2.56176e-13 0 0 -4.63081e-14 -1.15348e-13 -7.60555e-14 1.00948e-13 0 0 2.07142e-13 -4.65081e-13 2.75766e-13 -8.83461e-14 0 0 8.61583e-14 -1.7225e-13 -3.45573e-15 1.53431e-13 0 0 -1.59396e-13 1.39853e-13 -9.32764e-14 2.04409e-13 0 0 -1.62084e-13 7.46155e-14 1.02572e-14 1.62363e-13 0 0 -7.08329e-14 -1.49537e-14 -1.62486e-13 3.40678e-13 0 0 9.31785e-15 -1.97892e-13 -6.29444e-14 2.13107e-13 0 0 3.27817e-14 -2.822e-13 4.95752e-14 9.5328e-15 0 0 -1.80416e-13 -2.55398e-14 -1.25181e-13 -1.15641e-14 0 0 -5.13438e-14 -2.05849e-13 6.40322e-14 -1.86835e-13 0 0 2.22365e-13 -4.7599e-13 2.00787e-13 -2.17734e-13 0 0 6.73743e-15 -1.82424e-13 1.70745e-14 -9.33585e-14 0 0 -2.83991e-13 2.29757e-13 -2.79475e-13 3.17539e-14 0 0 -2.62948e-13 1.3485e-13 -1.56244e-13 -1.17003e-13 0 0 -8.89517e-14 -2.05479e-13 1.34149e-13 -2.6078e-13 0 0 9.49145e-14 -4.05453e-13 7.19389e-14 -9.68859e-14 0 0 1.5733e-13 -5.2056e-13 7.33217e-14 3.80804e-15 0 0 -1.07816e-13 -2.58453e-13 2.62106e-14 -4.14537e-16 0 0 -3.47634e-13 -3.41079e-14 1.33323e-13 -3.48392e-13 0 0 -4.34083e-13 1.90974e-13 -1.71879e-13 -2.02179e-13 0 0 -9.62612e-14 -1.64825e-15 -3.29162e-13 8.24296e-14 0 0 2.65859e-13 -4.31307e-13 6.02704e-14 -1.02768e-13 0 0 -1.71322e-13 -8.63776e-14 5.25117e-15 -1.19348e-13 0 0 -2.98448e-13 -1.96742e-13 4.24167e-13 -5.76786e-13 0 0 -1.93667e-13 -2.68059e-13 4.28385e-13 -6.01434e-13 0 0 -1.01723e-13 -1.00614e-13 -1.38567e-13 -2.88203e-14 0 0 -7.46361e-14 -9.00499e-14 -3.04225e-13 2.0068e-13 0 0 -2.99511e-13 9.75286e-14 -3.55047e-13 2.10688e-13 0 0 -1.92284e-13 -5.67552e-14 -9.10088e-14 -7.21247e-14 0 0 -9.49457e-15 -1.41286e-13 -6.96809e-16 -2.34234e-13 0 0 4.65511e-14 -2.05563e-13 8.64819e-14 -2.91461e-13 0 0 -1.21146e-13 -1.611e-13 6.95455e-14 -1.73801e-13 0 0 -2.89662e-13 1.45224e-13 -3.94381e-13 1.68978e-13 0 0 1.00784e-13 -2.3679e-13 -2.47832e-13 8.59237e-14 0 0 2.08704e-13 -3.6653e-13 -1.88422e-13 1.01444e-13 0 0 -3.0023e-13 2.38589e-13 -4.16026e-13 1.20904e-13 0 0 -3.63503e-13 3.73479e-15 3.14218e-13 -4.53328e-13 0 0 -3.51936e-13 -3.3028e-14 2.33271e-13 -1.56499e-13 0 0 5.42197e-14 -1.98169e-13 -2.54783e-14 3.44176e-13 0 0 1.02782e-13 -1.87406e-13 -1.06659e-13 4.8295e-13 0 0 -4.72478e-13 2.24776e-13 -1.49425e-13 3.44641e-13 0 0 -5.64602e-13 1.29058e-13 1.27429e-13 4.00915e-15 0 0 -3.67851e-13 1.78259e-14 -1.73372e-13 2.33909e-13 0 0 -4.83423e-14 -3.32358e-13 -6.62445e-14 8.46628e-14 0 0 -3.07583e-13 -1.49408e-13 -5.92808e-14 -1.50905e-13 0 0 -4.51528e-13 -2.84951e-13 1.24989e-13 -3.20896e-13 0 0 -3.47057e-13 -3.2391e-13 -1.62988e-13 3.32326e-14 0 0 -5.11874e-13 1.30249e-13 -6.10188e-13 2.76626e-13 0 0 -3.56933e-13 -1.40218e-13 -3.07192e-15 -4.61284e-13 0 0 -1.52801e-13 -1.3839e-13 -3.30537e-13 -3.25503e-13 0 0 -4.00701e-15 -4.81851e-14 -7.00669e-13 -6.19636e-14 0 0 -6.75497e-14 -3.95185e-13 8.50494e-14 -6.91445e-13 0 0 -6.18635e-13 -2.82023e-14 -6.90944e-14 -6.14426e-13 0 0 -4.45149e-13 -4.64552e-14 -5.68717e-13 -2.4059e-14 0 0 2.009e-13 -7.06851e-13 -4.23342e-13 2.29136e-13 0 0 5.66146e-14 -3.54691e-13 -5.15051e-13 -1.39572e-15 0 0 -2.50358e-13 -1.98935e-14 2.18794e-14 -6.93638e-13 0 0 4.4581e-13 1.42435e-12 1.34142e-12 -2.97719e-14 0 0 1.09958e-11 1.6216e-11 1.38832e-11 7.88913e-12 0 0 9.45343e-11 1.35066e-10 1.12654e-10 5.76829e-11 0 0 5.54693e-10 7.8825e-10 6.04499e-10 2.58429e-10 0 0 2.13526e-09 3.08273e-09 2.11457e-09 5.89863e-10 0 0 5.47156e-09 8.12495e-09 5.10657e-09 -3.11758e-10 0 0 4.73255e-09 1.7336e-08 6.92987e-09 -5.44144e-09 0 0 -1.27146e-08 2.54449e-08 2.25711e-08 -3.17351e-08 0 0 -1.7723e-08 1.5431e-08 4.06419e-08 -5.35039e-08 0 0 -3.37848e-10 -1.77104e-08 1.25902e-08 -1.57919e-08 0 0 2.03207e-08 -5.1611e-08 -1.68443e-08 2.5416e-08 0 0 1.31358e-08 -4.75234e-08 -6.25634e-08 8.02115e-08 0 0 -1.0406e-08 -2.07368e-08 -8.87522e-08 8.04376e-08 0 0 -1.51063e-08 -1.30092e-08 -6.3153e-08 5.25071e-08 0 0 -8.65399e-09 -9.71712e-09 1.70132e-09 -9.03065e-09 0 0 -2.2253e-09 -1.54404e-10 9.19525e-09 -1.34282e-08 0 0 2.9087e-10 4.05353e-09 4.24127e-09 -5.98822e-09 0 0 1.31207e-09 3.04098e-09 9.42508e-10 -3.01748e-10 0 0 1.17972e-09 1.49535e-09 7.67285e-10 3.48942e-10 0 0 5.9261e-10 6.81307e-10 5.16758e-10 2.99223e-10 0 0 1.9739e-10 2.66096e-10 2.30878e-10 1.35523e-10 0 0 4.9539e-11 7.38966e-11 6.86829e-11 4.13776e-11 0 0 9.58026e-12 1.50568e-11 1.46891e-11 9.0594e-12 0 0 1.14527e-12 2.18474e-12 2.3691e-12 1.13349e-12 0 0 -2.72936e-13 -2.20342e-14 2.55322e-13 -2.49061e-13 0 0 -8.3276e-14 -5.07298e-13 -9.67987e-14 -3.21712e-13 0 0 -8.24815e-14 -2.44186e-13 -4.47249e-13 -2.53899e-13 0 0 -2.29061e-13 -2.08466e-13 -1.36427e-13 -5.94608e-13 0 0 -3.44291e-13 -2.37741e-13 -2.2882e-14 -5.5391e-13 0 0 -4.12083e-13 -2.38717e-13 -9.60037e-14 -3.12944e-13 0 0 -2.1285e-13 -4.28757e-13 -2.91407e-14 -3.40742e-13 0 0 -2.36376e-13 -1.68374e-13 -5.0379e-13 -6.44337e-14 0 0 -3.64043e-13 -1.90408e-13 -3.15406e-13 -2.26617e-13 0 0 -5.51938e-13 -1.43101e-13 -2.59396e-13 -1.58783e-13 0 0 -5.40767e-13 -3.94078e-13 5.81769e-14 -1.67632e-13 0 0 -2.73464e-13 -4.66412e-13 2.37509e-14 -1.68025e-13 0 0 -1.52109e-13 -2.08733e-13 -4.61726e-13 -2.61805e-14 0 0 -2.9827e-13 -3.2909e-13 -6.94499e-14 -4.9855e-13 0 0 -5.52935e-13 -1.56612e-13 -1.56274e-13 -3.80682e-13 0 0 -5.95956e-13 -2.82994e-13 3.2272e-14 -3.01857e-13 0 0 -2.73782e-13 -4.84753e-13 4.45237e-14 -2.89176e-13 0 0 -1.15971e-13 -2.56115e-13 -5.20603e-13 1.55364e-14 0 0 -3.08914e-13 -2.49008e-13 -2.63973e-13 -3.77216e-13 0 0 -5.3526e-13 -7.50563e-14 -3.31844e-13 -3.6051e-13 0 0 -5.47491e-13 -1.70138e-13 -2.03787e-13 -1.79605e-13 0 0 -1.1193e-13 -4.76518e-13 -4.47426e-14 -2.97463e-13 0 0 -3.06687e-15 -1.66093e-13 -6.3218e-13 -1.63895e-13 0 0 -3.06286e-13 -1.88001e-13 -3.83299e-13 -5.03306e-13 0 0 -3.61033e-13 -5.07811e-13 -2.55224e-13 -4.00455e-13 0 0 -3.75401e-13 -4.80966e-13 -5.51932e-13 8.6798e-14 0 0 -3.07221e-13 -3.40763e-13 -3.14338e-13 -2.88181e-13 0 0 -1.24118e-13 -1.69166e-14 -7.23183e-13 -3.38518e-13 0 0 -4.14721e-14 -7.69716e-14 -7.46106e-13 -4.1165e-13 0 0 -4.39018e-13 -1.83932e-13 -2.34667e-13 -5.83165e-13 0 0 -7.171e-13 -6.44458e-16 -5.75502e-13 1.1223e-13 0 0 -3.08253e-13 -5.12027e-13 -2.62385e-13 2.35191e-13 0 0 -1.78709e-13 -4.60321e-13 -3.51625e-13 3.05868e-13 0 0 -2.79011e-13 -2.10614e-13 -6.16364e-13 5.15789e-13 0 0 -7.02351e-13 -6.44113e-14 -5.79315e-13 6.54773e-13 0 0 -7.09726e-13 -7.45723e-14 -8.72568e-13 1.08529e-12 0 0 -1.98162e-13 -7.44693e-13 -1.48603e-13 4.46115e-13 0 0 -3.02566e-13 -4.85764e-13 -4.18389e-14 -1.38802e-13 0 0 -3.0622e-13 -2.97113e-13 -2.23555e-13 -2.87056e-13 0 0 -4.19043e-13 -2.97826e-13 -1.98595e-13 -3.35471e-13 0 0 -6.60754e-13 -4.45922e-13 2.89772e-14 -3.48681e-13 0 0 -3.93827e-13 -6.93831e-13 -7.90158e-14 -3.18632e-13 0 0 1.28922e-14 -5.64769e-13 -8.91036e-13 -8.57803e-14 0 0 -1.49042e-13 -2.75639e-13 -1.02992e-12 -4.85322e-13 0 0 -8.45744e-13 4.07685e-13 -9.35195e-13 -6.93806e-13 0 0 -8.79982e-13 1.5696e-13 -4.16058e-13 -4.62314e-13 0 0 -4.30661e-14 -7.37969e-13 -1.84687e-13 -1.56601e-13 0 0 3.75802e-13 -1.0417e-12 -4.16127e-13 -1.77471e-13 0 0 -2.14566e-13 -5.45528e-13 -5.08374e-13 -9.09976e-13 0 0 -1.02027e-12 2.737e-13 -8.41584e-13 -1.34742e-12 0 0 -9.15878e-13 1.21166e-13 -1.03035e-12 -9.61982e-13 0 0 -2.13422e-13 -3.78671e-13 -1.10564e-12 -5.33364e-13 0 0 -7.83343e-14 -4.72131e-13 -7.52713e-13 -6.27989e-13 0 0 -2.66743e-13 -7.38762e-13 1.25348e-13 -1.177e-12 0 0 -1.7445e-13 -8.14246e-13 -9.50581e-14 -9.78457e-13 0 0 -3.83524e-13 -4.69197e-13 -7.57342e-13 -5.92664e-13 0 0 -7.06075e-13 -1.67329e-13 -7.82253e-13 -1.09662e-12 0 0 -6.70361e-13 5.00625e-14 -9.63855e-13 -1.19556e-12 0 0 -3.38069e-13 -3.71046e-13 -7.08119e-13 -8.61542e-13 0 0 -3.36153e-14 -8.72759e-13 -4.40159e-13 -3.83624e-13 0 0 -2.87454e-13 -7.70596e-13 -3.41175e-13 -4.23976e-13 0 0 -6.19716e-13 -4.27299e-13 -2.72211e-13 -1.14643e-12 0 0 -5.75853e-13 -1.01749e-13 -7.24363e-13 -1.28244e-12 0 0 -3.26117e-14 -7.81879e-13 -3.21832e-13 -1.23552e-12 0 0 2.10197e-13 -1.15771e-12 -2.19281e-13 -5.17835e-13 0 0 -2.71554e-13 -6.47579e-13 -6.74424e-13 5.20061e-14 0 0 -6.20855e-13 -3.74858e-13 -3.73636e-13 -8.75337e-13 0 0 -6.57628e-13 -6.24396e-14 -6.83072e-13 -1.12085e-12 0 0 -2.84203e-13 -4.91951e-13 -6.49432e-13 -7.14501e-13 0 0 -6.1191e-14 -8.37272e-13 -5.30956e-13 -1.55835e-13 0 0 -3.80301e-13 -5.98689e-13 -6.53536e-13 6.40799e-15 0 0 -6.2722e-13 -4.5966e-13 -4.20887e-13 -7.82293e-13 0 0 -5.13519e-13 -2.58928e-13 -7.92572e-13 -1.08465e-12 0 0 -6.11672e-14 -7.94785e-13 -6.95518e-13 -9.06337e-13 0 0 2.25558e-13 -1.11809e-12 -7.1876e-13 -1.77694e-13 0 0 -5.19356e-13 -2.9437e-13 -6.42307e-13 -2.95298e-13 0 0 -7.71092e-13 -4.39938e-13 7.10024e-13 -1.81857e-12 0 0 -3.47476e-13 -5.47134e-13 -4.63253e-14 -1.23309e-12 0 0 3.836e-14 -5.92406e-13 -1.14956e-12 -2.11009e-13 0 0 -3.64761e-13 -5.75934e-13 -8.47097e-13 -4.90637e-13 0 0 -1.33088e-12 3.82059e-13 -1.15441e-12 -4.0211e-13 0 0 -7.63515e-13 -1.36135e-13 -8.53085e-13 -3.32142e-13 0 0 -1.44266e-13 -4.6109e-13 -1.35927e-12 5.18713e-13 0 0 -1.40297e-14 -8.94943e-13 -9.17993e-13 4.1601e-13 0 0 -5.97689e-13 -7.54147e-13 -3.34019e-13 -2.35159e-13 0 0 -1.36816e-12 2.71113e-13 -1.09148e-12 3.22931e-14 0
				</DataArray>
				<DataArray Name="VitesseY" type="Float32" format="ascii">