<?xml version="1.0"?>
<VTKFile type="PolyData">
	<PolyData>
		<Piece NumberOfPoints="1206" NumberOfPolys="1000">
			<Points>
				<DataArray type="Float32" NumberOfComponents="3" format="ascii">
 0 0 0 0.02 0 0 0.04 0 0 0.06 0 0 0.08 0 0 0.1 0 0 0 0.005 0 0.02 0.005 0 0.04 0.005 0 0.06 0.005 0 0.08 0.005 0 0.1 0.005 0 0 0.01 0 0.02 0.01 0 0.04 0.01 0 0.06 0.01 0 0.08 0.01 0 0.1 0.01 0 0 0.015 0 0.02 0.015 0 0.04 0.015 0 0.06 0.015 0 0.08 0.015 0 0.1 0.015 0 0 0.02 0 0.02 0.02 0 0.04 0.02 0 0.06 0.02 0 0.08 0.02 0 0.1 0.02 0 0 0.025 0 0.02 0.025 0 0.04 0.025 0 0.06 0.025 0 0.08 0.025 0 0.1 0.025 0 0 0.03 0 0.02 0.03 0 0.04 0.03 0 0.06 0.03 0 0.08 0.03 0 0.1 0.03 0 0 0.035 0 0.02 0.035 0 0.04 0.035 0 0.06 0.035 0 0.08 0.035 0 0.1 0.035 0 0 0.04 0 0.02 0.04 0 0.04 0.04 0 0.06 0.04 0 0.08 0.04 0 0.1 0.04 0 0 0.045 0 0.02 0.045 0 0.04 0.045 0 0.06 0.045 0 0.08 0.045 0 0.1 0.045 0 0 0.05 0 0.02 0.05 0 0.04 0.05 0 0.06 0.05 0 0.08 0.05 0 0.1 0.05 0 0 0.055 0 0.02 0.055 0 0.04 0.055 0 0.06 0.055 0 0.08 0.055 0 0.1 0.055 0 0 0.06 0 0.02 0.06 0 0.04 0.06 0 0.06 0.06 0 0.08 0.06 0 0.1 0.06 0 0 0.065 0 0.02 0.065 0 0.04 0.065 0 0.06 0.065 0 0.08 0.065 0 0.1 0.065 0 0 0.07 0 0.02 0.07 0 0.04 0.07 0 0.06 0.07 0 0.08 0.07 0 0.1 0.07 0 0 0.075 0 0.02 0.075 0 0.04 0.075 0 0.06 0.075 0 0.08 0.075 0 0.1 0.075 0 0 0.08 0 0.02 0.08 0 0.04 0.08 0 0.06 0.08 0 0.08 0.08 0 0.1 0.08 0 0 0.085 0 0.02 0.085 0 0.04 0.085 0 0.06 0.085 0 0.08 0.085 0 0.1 0.085 0 0 0.09 0 0.02 0.09 0 0.04 0.09 0 0.06 0.09 0 0.08 0.09 0 0.1 0.09 0 0 0.095 0 0.02 0.095 0 0.04 0.095 0 0.06 0.095 0 0.08 0.095 0 0.1 0.095 0 0 0.1 0 0.02 0.1 0 0.04 0.1 0 0.06 0.1 0 0.08 0.1 0 0.1 0.1 0 0 0.105 0 0.02 0.105 0 0.04 0.105 0 0.06 0.105 0 0.08 0.105 0 0.1 0.105 0 0 0.11 0 0.02 0.11 0 0.04 0.11 0 0.06 0.11 0 0.08 0.11 0 0.1 0.11 0 0 0.115 0 0.02 0.115 0 0.04 0.115 0 0.06 0.115 0 0.08 0.115 0 0.1 0.115 0 0 0.12 0 0.02 0.12 0 0.04 0.12 0 0.06 0.12 0 0.08 0.12 0 0.1 0.12 0 0 0.125 0 0.02 0.125 0 0.04 0.125 0 0.06 0.125 0 0.08 0.125 0 0.1 0.125 0 0 0.13 0 0.02 0.13 0 0.04 0.13 0 0.06 0.13 0 0.08 0.13 0 0.1 0.13 0 0 0.135 0 0.02 0.135 0 0.04 0.135 0 0.06 0.135 0 0.08 0.135 0 0.1 0.135 0 0 0.14 0 0.02 0.14 0 0.04 0.14 0 0.06 0.14 0 0.08 0.14 0 0.1 0.14 0 0 0.145 0 0.02 0.145 0 0.04 0.145 0 0.06 0.145 0 0.08 0.145 0 0.1 0.145 0 0 0.15 0 0.02 0.15 0 0.04 0.15 0 0.06 0.15 0 0.08 0.15 0 0.1 0.15 0 0 0.155 0 0.02 0.155 0 0.04 0.155 0 0.06 0.155 0 0.08 0.155 0 0.1 0.155 0 0 0.16 0 0.02 0.16 0 0.04 0.16 0 0.06 0.16 0 0.08 0.16 0 0.1 0.16 0 0 0.165 0 0.02 0.165 0 0.04 0.165 0 0.06 0.165 0 0.08 0.165 0 0.1 0.165 0 0 0.17 0 0.02 0.17 0 0.04 0.17 0 0.06 0.17 0 0.08 0.17 0 0.1 0.17 0 0 0.175 0 0.02 0.175 0 0.04 0.175 0 0.06 0.175 0 0.08 0.175 0 0.1 0.175 0 0 0.18 0 0.02 0.18 0 0.04 0.18 0 0.06 0.18 0 0.08 0.18 0 0.1 0.18 0 0 0.185 0 0.02 0.185 0 0.04 0.185 0 0.06 0.185 0 0.08 0.185 0 0.1 0.185 0 0 0.19 0 0.02 0.19 0 0.04 0.19 0 0.06 0.19 0 0.08 0.19 0 0.1 0.19 0 0 0.195 0 0.02 0.195 0 0.04 0.195 0 0.06 0.195 0 0.08 0.195 0 0.1 0.195 0 0 0.2 0 0.02 0.2 0 0.04 0.2 0 0.06 0.2 0 0.08 0.2 0 0.1 0.2 0 0 0.205 0 0.02 0.205 0 0.04 0.205 0 0.06 0.205 0 0.08 0.205 0 0.1 0.205 0 0 0.21 0 0.02 0.21 0 0.04 0.21 0 0.06 0.21 0 0.08 0.21 0 0.1 0.21 0 0 0.215 0 0.02 0.215 0 0.04 0.215 0 0.06 0.215 0 0.08 0.215 0 0.1 0.215 0 0 0.22 0 0.02 0.22 0 0.04 0.22 0 0.06 0.22 0 0.08 0.22 0 0.1 0.22 0 0 0.225 0 0.02 0.225 0 0.04 0.225 0 0.06 0.225 0 0.08 0.225 0 0.1 0.225 0 0 0.23 0 0.02 0.23 0 0.04 0.23 0 0.06 0.23 0 0.08 0.23 0 0.1 0.23 0 0 0.235 0 0.02 0.235 0 0.04 0.235 0 0.06 0.235 0 0.08 0.235 0 0.1 0.235 0 0 0.24 0 0.02 0.24 0 0.04 0.24 0 0.06 0.24 0 0.08 0.24 0 0.1 0.24 0 0 0.245 0 0.02 0.245 0 0.04 0.245 0 0.06 0.245 0 0.08 0.245 0 0.1 0.245 0 0 0.25 0 0.02 0.25 0 0.04 0.25 0 0.06 0.25 0 0.08 0.25 0 0.1 0.25 0 0 0.255 0 0.02 0.255 0 0.04 0.255 0 0.06 0.255 0 0.08 0.255 0 0.1 0.255 0 0 0.26 0 0.02 0.26 0 0.04 0.26 0 0.06 0.26 0 0.08 0.26 0 0.1 0.26 0 0 0.265 0 0.02 0.265 0 0.04 0.265 0 0.06 0.265 0 0.08 0.265 0 0.1 0.265 0 0 0.27 0 0.02 0.27 0 0.04 0.27 0 0.06 0.27 0 0.08 0.27 0 0.1 0.27 0 0 0.275 0 0.02 0.275 0 0.04 0.275 0 0.06 0.275 0 0.08 0.275 0 0.1 0.275 0 0 0.28 0 0.02 0.28 0 0.04 0.28 0 0.06 0.28 0 0.08 0.28 0 0.1 0.28 0 0 0.285 0 0.02 0.285 0 0.04 0.285 0 0.06 0.285 0 0.08 0.285 0 0.1 0.285 0 0 0.29 0 0.02 0.29 0 0.04 0.29 0 0.06 0.29 0 0.08 0.29 0 0.1 0.29 0 0 0.295 0 0.02 0.295 0 0.04 0.295 0 0.06 0.295 0 0.08 0.295 0 0.1 0.295 0 0 0.3 0 0.02 0.3 0 0.04 0.3 0 0.06 0.3 0 0.08 0.3 0 0.1 0.3 0 0 0.305 0 0.02 0.305 0 0.04 0.305 0 0.06 0.305 0 0.08 0.305 0 0.1 0.305 0 0 0.31 0 0.02 0.31 0 0.04 0.31 0 0.06 0.31 0 0.08 0.31 0 0.1 0.31 0 0 0.315 0 0.02 0.315 0 0.04 0.315 0 0.06 0.315 0 0.08 0.315 0 0.1 0.315 0 0 0.32 0 0.02 0.32 0 0.04 0.32 0 0.06 0.32 0 0.08 0.32 0 0.1 0.32 0 0 0.325 0 0.02 0.325 0 0.04 0.325 0 0.06 0.325 0 0.08 0.325 0 0.1 0.325 0 0 0.33 0 0.02 0.33 0 0.04 0.33 0 0.06 0.33 0 0.08 0.33 0 0.1 0.33 0 0 0.335 0 0.02 0.335 0 0.04 0.335 0 0.06 0.335 0 0.08 0.335 0 0.1 0.335 0 0 0.34 0 0.02 0.34 0 0.04 0.34 0 0.06 0.34 0 0.08 0.34 0 0.1 0.34 0 0 0.345 0 0.02 0.345 0 0.04 0.345 0 0.06 0.345 0 0.08 0.345 0 0.1 0.345 0 0 0.35 0 0.02 0.35 0 0.04 0.35 0 0.06 0.35 0 0.08 0.35 0 0.1 0.35 0 0 0.355 0 0.02 0.355 0 0.04 0.355 0 0.06 0.355 0 0.08 0.355 0 0.1 0.355 0 0 0.36 0 0.02 0.36 0 0.04 0.36 0 0.06 0.36 0 0.08 0.36 0 0.1 0.36 0 0 0.365 0 0.02 0.365 0 0.04 0.365 0 0.06 0.365 0 0.08 0.365 0 0.1 0.365 0 0 0.37 0 0.02 0.37 0 0.04 0.37 0 0.06 0.37 0 0.08 0.37 0 0.1 0.37 0 0 0.375 0 0.02 0.375 0 0.04 0.375 0 0.06 0.375 0 0.08 0.375 0 0.1 0.375 0 0 0.38 0 0.02 0.38 0 0.04 0.38 0 0.06 0.38 0 0.08 0.38 0 0.1 0.38 0 0 0.385 0 0.02 0.385 0 0.04 0.385 0 0.06 0.385 0 0.08 0.385 0 0.1 0.385 0 0 0.39 0 0.02 0.39 0 0.04 0.39 0 0.06 0.39 0 0.08 0.39 0 0.1 0.39 0 0 0.395 0 0.02 0.395 0 0.04 0.395 0 0.06 0.395 0 0.08 0.395 0 0.1 0.395 0 0 0.4 0 0.02 0.4 0 0.04 0.4 0 0.06 0.4 0 0.08 0.4 0 0.1 0.4 0 0 0.405 0 0.02 0.405 0 0.04 0.405 0 0.06 0.405 0 0.08 0.405 0 0.1 0.405 0 0 0.41 0 0.02 0.41 0 0.04 0.41 0 0.06 0.41 0 0.08 0.41 0 0.1 0.41 0 0 0.415 0 0.02 0.415 0 0.04 0.415 0 0.06 0.415 0 0.08 0.415 0 0.1 0.415 0 0 0.42 0 0.02 0.42 0 0.04 0.42 0 0.06 0.42 0 0.08 0.42 0 0.1 0.42 0 0 0.425 0 0.02 0.425 0 0.04 0.425 0 0.06 0.425 0 0.08 0.425 0 0.1 0.425 0 0 0.43 0 0.02 0.43 0 0.04 0.43 0 0.06 0.43 0 0.08 0.43 0 0.1 0.43 0 0 0.435 0 0.02 0.435 0 0.04 0.435 0 0.06 0.435 0 0.08 0.435 0 0.1 0.435 0 0 0.44 0 0.02 0.44 0 0.04 0.44 0 0.06 0.44 0 0.08 0.44 0 0.1 0.44 0 0 0.445 0 0.02 0.445 0 0.04 0.445 0 0.06 0.445 0 0.08 0.445 0 0.1 0.445 0 0 0.45 0 0.02 0.45 0 0.04 0.45 0 0.06 0.45 0 0.08 0.45 0 0.1 0.45 0 0 0.455 0 0.02 0.455 0 0.04 0.455 0 0.06 0.455 0 0.08 0.455 0 0.1 0.455 0 0 0.46 0 0.02 0.46 0 0.04 0.46 0 0.06 0.46 0 0.08 0.46 0 0.1 0.46 0 0 0.465 0 0.02 0.465 0 0.04 0.465 0 0.06 0.465 0 0.08 0.465 0 0.1 0.465 0 0 0.47 0 0.02 0.47 0 0.04 0.47 0 0.06 0.47 0 0.08 0.47 0 0.1 0.47 0 0 0.475 0 0.02 0.475 0 0.04 0.475 0 0.06 0.475 0 0.08 0.475 0 0.1 0.475 0 0 0.48 0 0.02 0.48 0 0.04 0.48 0 0.06 0.48 0 0.08 0.48 0 0.1 0.48 0 0 0.485 0 0.02 0.485 0 0.04 0.485 0 0.06 0.485 0 0.08 0.485 0 0.1 0.485 0 0 0.49 0 0.02 0.49 0 0.04 0.49 0 0.06 0.49 0 0.08 0.49 0 0.1 0.49 0 0 0.495 0 0.02 0.495 0 0.04 0.495 0 0.06 0.495 0 0.08 0.495 0 0.1 0.495 0 0 0.5 0 0.02 0.5 0 0.04 0.5 0 0.06 0.5 0 0.08 0.5 0 0.1 0.5 0 0 0.505 0 0.02 0.505 0 0.04 0.505 0 0.06 0.505 0 0.08 0.505 0 0.1 0.505 0 0 0.51 0 0.02 0.51 0 0.04 0.51 0 0.06 0.51 0 0.08 0.51 0 0.1 0.51 0 0 0.515 0 0.02 0.515 0 0.04 0.515 0 0.06 0.515 0 0.08 0.515 0 0.1 0.515 0 0 0.52 0 0.02 0.52 0 0.04 0.52 0 0.06 0.52 0 0.08 0.52 0 0.1 0.52 0 0 0.525 0 0.02 0.525 0 0.04 0.525 0 0.06 0.525 0 0.08 0.525 0 0.1 0.525 0 0 0.53 0 0.02 0.53 0 0.04 0.53 0 0.06 0.53 0 0.08 0.53 0 0.1 0.53 0 0 0.535 0 0.02 0.535 0 0.04 0.535 0 0.06 0.535 0 0.08 0.535 0 0.1 0.535 0 0 0.54 0 0.02 0.54 0 0.04 0.54 0 0.06 0.54 0 0.08 0.54 0 0.1 0.54 0 0 0.545 0 0.02 0.545 0 0.04 0.545 0 0.06 0.545 0 0.08 0.545 0 0.1 0.545 0 0 0.55 0 0.02 0.55 0 0.04 0.55 0 0.06 0.55 0 0.08 0.55 0 0.1 0.55 0 0 0.555 0 0.02 0.555 0 0.04 0.555 0 0.06 0.555 0 0.08 0.555 0 0.1 0.555 0 0 0.56 0 0.02 0.56 0 0.04 0.56 0 0.06 0.56 0 0.08 0.56 0 0.1 0.56 0 0 0.565 0 0.02 0.565 0 0.04 0.565 0 0.06 0.565 0 0.08 0.565 0 0.1 0.565 0 0 0.57 0 0.02 0.57 0 0.04 0.57 0 0.06 0.57 0 0.08 0.57 0 0.1 0.57 0 0 0.575 0 0.02 0.575 0 0.04 0.575 0 0.06 0.575 0 0.08 0.575 0 0.1 0.575 0 0 0.58 0 0.02 0.58 0 0.04 0.58 0 0.06 0.58 0 0.08 0.58 0 0.1 0.58 0 0 0.585 0 0.02 0.585 0 0.04 0.585 0 0.06 0.585 0 0.08 0.585 0 0.1 0.585 0 0 0.59 0 0.02 0.59 0 0.04 0.59 0 0.06 0.59 0 0.08 0.59 0 0.1 0.59 0 0 0.595 0 0.02 0.595 0 0.04 0.595 0 0.06 0.595 0 0.08 0.595 0 0.1 0.595 0 0 0.6 0 0.02 0.6 0 0.04 0.6 0 0.06 0.6 0 0.08 0.6 0 0.1 0.6 0 0 0.605 0 0.02 0.605 0 0.04 0.605 0 0.06 0.605 0 0.08 0.605 0 0.1 0.605 0 0 0.61 0 0.02 0.61 0 0.04 0.61 0 0.06 0.61 0 0.08 0.61 0 0.1 0.61 0 0 0.615 0 0.02 0.615 0 0.04 0.615 0 0.06 0.615 0 0.08 0.615 0 0.1 0.615 0 0 0.62 0 0.02 0.62 0 0.04 0.62 0 0.06 0.62 0 0.08 0.62 0 0.1 0.62 0 0 0.625 0 0.02 0.625 0 0.04 0.625 0 0.06 0.625 0 0.08 0.625 0 0.1 0.625 0 0 0.63 0 0.02 0.63 0 0.04 0.63 0 0.06 0.63 0 0.08 0.63 0 0.1 0.63 0 0 0.635 0 0.02 0.635 0 0.04 0.635 0 0.06 0.635 0 0.08 0.635 0 0.1 0.635 0 0 0.64 0 0.02 0.64 0 0.04 0.64 0 0.06 0.64 0 0.08 0.64 0 0.1 0.64 0 0 0.645 0 0.02 0.645 0 0.04 0.645 0 0.06 0.645 0 0.08 0.645 0 0.1 0.645 0 0 0.65 0 0.02 0.65 0 0.04 0.65 0 0.06 0.65 0 0.08 0.65 0 0.1 0.65 0 0 0.655 0 0.02 0.655 0 0.04 0.655 0 0.06 0.655 0 0.08 0.655 0 0.1 0.655 0 0 0.66 0 0.02 0.66 0 0.04 0.66 0 0.06 0.66 0 0.08 0.66 0 0.1 0.66 0 0 0.665 0 0.02 0.665 0 0.04 0.665 0 0.06 0.665 0 0.08 0.665 0 0.1 0.665 0 0 0.67 0 0.02 0.67 0 0.04 0.67 0 0.06 0.67 0 0.08 0.67 0 0.1 0.67 0 0 0.675 0 0.02 0.675 0 0.04 0.675 0 0.06 0.675 0 0.08 0.675 0 0.1 0.675 0 0 0.68 0 0.02 0.68 0 0.04 0.68 0 0.06 0.68 0 0.08 0.68 0 0.1 0.68 0 0 0.685 0 0.02 0.685 0 0.04 0.685 0 0.06 0.685 0 0.08 0.685 0 0.1 0.685 0 0 0.69 0 0.02 0.69 0 0.04 0.69 0 0.06 0.69 0 0.08 0.69 0 0.1 
[...]
			<PointData Scalars="VitesseX">
				<DataArray Name="VitesseX" type="Float32" format="ascii">
 0 4.78691e-14 5.2659e-14 6.81141e-14 3.08477e-14 0 0 4.60742e-14 5.03236e-14 6.98062e-14 3.04746e-14 0 0 4.69857e-14 3.84001e-14 7.87021e-14 2.35938e-14 0 0 3.23554e-14 5.9691e-14 5.4899e-14 2.69248e-14 0 0 2.402e-14 8.10483e-14 3.11108e-14 3.11654e-14 0 0 6.43452e-14 3.13005e-14 6.79028e-14 8.65128e-15 0 0 8.34109e-14 1.3125e-14 7.63199e-14 -4.99388e-15 0 0 5.16505e-14 5.81901e-14 3.48028e-14 1.24568e-14 0 0 3.62297e-14 7.53357e-14 1.14503e-14 4.29045e-14 0 0 4.25206e-14 5.23536e-14 3.28977e-14 5.587e-14 0 0 1.90332e-14 7.29592e-14 2.93579e-14 6.32404e-14 0 0 2.17021e-14 7.19791e-14 5.26952e-14 3.05719e-14 0 0 5.30324e-14 3.96384e-14 1.06905e-13 -2.52786e-14 0 0 3.62282e-14 8.75641e-14 6.3449e-14 -3.30902e-15 0 0 3.02291e-14 9.01e-14 7.18146e-14 4.1584e-15 0 0 2.29566e-14 9.19846e-14 8.18196e-14 5.58376e-15 0 0 4.71555e-15 1.1407e-13 6.65011e-14 1.57764e-14 0 0 2.02347e-14 9.01461e-14 7.8062e-14 2.77754e-14 0 0 4.6973e-14 6.96082e-14 5.8572e-14 8.13942e-14 0 0 8.0904e-14 2.39497e-14 9.08657e-14 7.73312e-14 0 0 7.30073e-14 7.94912e-14 3.44577e-14 8.81235e-14 0 0 3.26674e-14 1.73364e-13 -2.35862e-14 6.77836e-14 0 0 4.19373e-14 1.37652e-13 7.16725e-14 -2.42173e-14 0 0 5.58511e-14 9.15467e-14 1.40936e-13 -5.35121e-14 0 0 3.92008e-14 1.20954e-13 1.0212e-13 2.60604e-15 0 0 -2.21091e-14 2.38597e-13 -4.18748e-14 1.22724e-13 0 0 5.15396e-14 1.10763e-13 9.83696e-14 2.21799e-14 0 0 6.14065e-14 1.21189e-13 6.87322e-14 1.84725e-14 0 0 4.09341e-16 2.58318e-13 -1.09907e-13 9.17927e-14 0 0 4.03329e-14 1.39296e-13 5.23503e-14 -4.1002e-14 0 0 7.21577e-14 2.06738e-14 2.09502e-13 -1.53594e-13 0 0 9.23601e-14 4.20371e-15 1.74211e-13 -1.02062e-13 0 0 9.16571e-14 1.36866e-14 9.75798e-14 2.67387e-14 0 0 6.87364e-14 3.48e-14 7.30775e-14 9.25922e-14 0 0 -3.78055e-15 1.62614e-13 -3.39497e-14 2.04522e-13 0 0 2.17595e-14 1.14344e-13 1.12959e-13 7.25887e-14 0 0 6.22769e-14 4.50358e-14 2.48364e-13 -3.25423e-14 0 0 6.97961e-14 7.40407e-14 1.43855e-13 1.4114e-13 0 0 7.42248e-14 1.24887e-13 4.757e-14 2.40593e-13 0 0 8.37934e-14 1.53926e-13 2.1154e-14 2.24196e-13 0 0 8.30248e-14 1.45794e-13 6.66421e-14 1.7325e-13 0 0 8.41397e-14 1.33577e-13 1.10357e-13 1.14341e-13 0 0 9.62025e-14 1.77116e-13 3.32065e-14 1.184e-13 0 0 1.02111e-13 1.9477e-13 -1.75974e-14 1.11287e-13 0 0 1.49036e-13 6.67965e-14 1.38523e-13 -1.22749e-14 0 0 2.02745e-13 -5.03617e-14 2.76973e-13 -1.27237e-13 0 0 1.62776e-13 6.78171e-14 3.96818e-14 5.55283e-14 0 0 9.28401e-14 1.94776e-13 -1.54258e-13 2.34939e-13 0 0 -2.30471e-14 2.61859e-13 -6.25494e-15 3.86723e-14 0 0 -1.0668e-13 2.97684e-13 1.61249e-13 -1.13858e-13 0 0 1.13883e-14 1.45816e-13 3.01473e-13 -8.2665e-14 0 0 8.68318e-14 1.4955e-13 2.65384e-13 -2.54899e-14 0 0 8.5849e-14 2.5251e-13 1.25751e-13 2.16701e-14 0 0 9.22027e-14 2.6842e-13 5.2826e-14 9.54481e-14 0 0 3.36175e-14 3.38401e-13 4.25057e-14 1.37872e-13 0 0 1.03101e-13 2.73302e-13 1.94675e-13 3.42685e-14 0 0 1.1418e-13 2.56231e-13 3.17557e-13 -3.82053e-14 0 0 9.13427e-14 3.17723e-13 2.99238e-13 -1.16056e-14 0 0 1.52963e-13 3.01499e-13 2.32164e-13 1.01274e-13 0 0 1.42638e-13 3.52529e-13 2.98144e-13 2.61734e-13 0 0 2.29343e-13 7.30104e-13 6.06225e-13 5.03357e-13 0 0 9.85124e-13 1.76283e-12 1.73081e-12 1.13683e-12 0 0 3.2414e-12 5.03142e-12 5.2699e-12 3.21735e-12 0 0 9.09323e-12 1.49002e-11 1.49728e-11 9.30954e-12 0 0 2.40322e-11 3.93867e-11 3.94591e-11 2.43157e-11 0 0 5.69454e-11 9.26706e-11 9.27036e-11 5.71251e-11 0 0 1.19475e-10 1.93417e-10 1.93421e-10 1.19278e-10 0 0 2.22245e-10 3.58958e-10 3.58927e-10 2.21337e-10 0 0 3.69582e-10 5.97023e-10 5.96082e-10 3.67883e-10 0 0 5.56782e-10 8.99109e-10 8.96659e-10 5.53393e-10 0 0 7.70033e-10 1.24219e-09 1.23796e-09 7.62994e-10 0 0 9.90087e-10 1.59488e-09 1.5874e-09 9.76766e-10 0 0 1.19576e-09 1.92363e-09 1.91e-09 1.17379e-09 0 0 1.3701e-09 2.20006e-09 2.17892e-09 1.33611e-09 0 0 1.50036e-09 2.40387e-09 2.37367e-09 1.45202e-09 0 0 1.57843e-09 2.52334e-09 2.48394e-09 1.51618e-09 0 0 1.59905e-09 2.54745e-09 2.49955e-09 1.51967e-09 0 0 1.54992e-09 2.46463e-09 2.4127e-09 1.46468e-09 0 0 1.43982e-09 2.28651e-09 2.23275e-09 1.35378e-09 0 0 1.25671e-09 1.9981e-09 1.9518e-09 1.18536e-09 0 0 1.00696e-09 1.60797e-09 1.58327e-09 9.6572e-10 0 0 6.91328e-10 1.12395e-09 1.13178e-09 7.0273e-10 0 0 3.13881e-10 5.52603e-10 6.06803e-10 4.02422e-10 0 0 -1.23128e-10 -1.00922e-10 1.62854e-11 6.8795e-11 0 0 -6.05994e-10 -8.20461e-10 -6.27008e-10 -2.87809e-10 0 0 -1.15424e-09 -1.62617e-09 -1.32577e-09 -6.76959e-10 0 0 -1.70536e-09 -2.44081e-09 -2.05146e-09 -1.06647e-09 0 0 -2.34045e-09 -3.3644e-09 -2.83698e-09 -1.49261e-09 0 0 -2.96416e-09 -4.27423e-09 -3.63225e-09 -1.92252e-09 0 0 -3.61914e-09 -5.22961e-09 -4.45261e-09 -2.36224e-09 0 0 -4.2967e-09 -6.22576e-09 -5.32205e-09 -2.83137e-09 0 0 -4.95859e-09 -7.2046e-09 -6.18607e-09 -3.31286e-09 0 0 -5.61043e-09 -8.17741e-09 -7.06364e-09 -3.80173e-09 0 0 -6.25699e-09 -9.16992e-09 -7.9694e-09 -4.31863e-09 0 0 -6.8892e-09 -1.01599e-08 -8.90834e-09 -4.86966e-09 0 0 -7.49678e-09 -1.10802e-08 -9.80254e-09 -5.30904e-09 0 0 -8.03523e-09 -1.21803e-08 -1.08742e-08 -6.19059e-09 0 0 -8.05057e-09 -1.35279e-08 -1.21868e-08 -5.77126e-09 0 0 8.12856e-09 -2.62296e-08 -2.75716e-08 1.34698e-08 0 0 -7.97518e-08 2.01758e-08 2.78552e-08 -7.26577e-08 0 0 -8.36783e-08 2.29363e-08 3.19138e-08 -7.79984e-08 0 0 7.74614e-08 -5.85734e-08 -7.36399e-08 8.26406e-08 0 0 1.33489e-07 -8.62077e-08 -8.93992e-08 1.17543e-07 0 0 6.10742e-08 -5.14697e-08 -1.34893e-08 2.16972e-08 0 0 -6.68119e-08 3.36264e-08 4.69816e-08 -8.10156e-08 0 0 -7.37543e-08 5.06143e-08 2.74496e-08 -6.51621e-08 0 0 -5.51011e-08 4.43406e-08 2.61562e-09 -3.31676e-08 0 0 -5.13996e-08 4.12948e-08 4.28663e-09 -3.36428e-08 0 0 -8.36382e-08 4.55203e-08 5.40884e-08 -8.98398e-08 0 0 -9.03945e-08 4.38129e-08 7.21013e-08 -1.06449e-07 0 0 -5.4937e-08 2.92523e-08 4.16345e-08 -6.20226e-08 0 0 1.17531e-08 1.11531e-09 -5.25733e-09 1.26389e-08 0 0 5.19365e-08 -1.51646e-08 -2.8043e-08 5.23776e-08 0 0 5.37676e-08 -1.59961e-08 -2.80922e-08 5.32522e-08 0 0 5.09846e-08 -1.4626e-08 -1.93917e-08 4.43991e-08 0 0 3.81119e-08 -8.67374e-09 -9.64989e-09 3.2554e-08 0 0 2.12e-08 -2.73602e-09 -5.94057e-09 2.57348e-08 0 0 5.19346e-09 9.38943e-10 6.32265e-10 1.35806e-08 0 0 -7.8967e-09 2.52389e-09 8.21778e-09 1.71328e-09 0 0 -9.15758e-09 3.66016e-09 9.72975e-09 -8.38805e-09 0 0 -8.99366e-09 5.03915e-09 8.82979e-09 -9.32993e-09 0 0 -8.14816e-09 5.19432e-09 7.69595e-09 -9.06612e-09 0 0 -6.71936e-09 3.63074e-09 7.73878e-09 -8.92245e-09 0 0 -5.71194e-09 9.49739e-10 5.08598e-09 -5.65824e-09 0 0 -2.66337e-09 -2.12825e-09 -5.85784e-09 7.02139e-09 0 0 4.07132e-09 -8.75644e-09 -4.74283e-09 7.09091e-09 0 0 4.492e-09 -9.2855e-09 2.74624e-09 -3.446e-10 0 0 -5.85442e-10 9.25257e-10 3.40696e-10 -1.64379e-09 0 0 -6.93241e-09 1.48776e-08 4.69438e-09 -9.54221e-09 0 0 -7.21738e-09 1.83826e-08 1.56424e-08 -2.08903e-08 0 0 -3.8184e-09 1.75043e-08 1.5669e-08 -2.02868e-08 0 0 1.43697e-09 1.34131e-08 1.02594e-08 -1.26333e-08 0 0 6.09732e-09 6.96546e-09 1.37031e-09 -1.6311e-09 0 0 9.2519e-09 8.03902e-10 -3.64561e-09 5.08087e-09 0 0 9.38028e-09 -9.33711e-10 -4.19517e-09 6.18963e-09 0 0 7.05333e-09 -9.48118e-11 -3.73416e-09 5.88921e-09 0 0 3.89372e-09 1.79647e-09 -1.9496e-09 4.50126e-09 0 0 2.45359e-09 2.42557e-09 -1.65165e-10 3.19805e-09 0 0 1.79607e-09 2.79549e-09 1.41262e-09 2.16038e-09 0 0 1.47008e-09 3.21927e-09 2.82043e-09 1.42977e-09 0 0 1.43605e-09 3.67682e-09 3.58541e-09 1.3846e-09 0 0 1.55102e-09 3.79651e-09 4.03857e-09 1.41811e-09 0 0 1.73723e-09 3.80512e-09 4.25352e-09 1.59318e-09 0 0 1.92392e-09 3.73067e-09 4.28667e-09 1.99192e-09 0 0 2.09986e-09 3.61668e-09 4.17851e-09 2.3516e-09 0 0 2.1103e-09 3.5981e-09 3.87401e-09 2.63724e-09 0 0 2.10926e-09 3.51838e-09 3.68727e-09 2.64204e-09 0 0 2.03912e-09 3.34787e-09 3.52249e-09 2.50448e-09 0 0 1.86539e-09 3.08879e-09 3.24298e-09 2.16576e-09 0 0 1.63726e-09 2.70893e-09 2.81062e-09 1.81192e-09 0 0 1.34748e-09 2.21792e-09 2.2738e-09 1.43887e-09 0 0 1.01895e-09 1.66756e-09 1.69291e-09 1.05913e-09 0 0 6.91514e-10 1.12556e-09 1.13336e-09 7.04156e-10 0 0 4.11573e-10 6.67464e-10 6.69152e-10 4.14234e-10 0 0 2.10517e-10 3.40636e-10 3.40719e-10 2.10527e-10 0 0 9.13422e-11 1.47692e-10 1.47586e-10 9.11131e-11 0 0 3.42641e-11 5.54597e-11 5.54737e-11 3.41989e-11 0 0 1.15383e-11 1.89454e-11 1.87354e-11 1.17387e-11 0 0 3.65664e-12 6.28778e-12 5.91831e-12 3.96385e-12 0 0 1.21746e-12 2.04064e-12 1.96943e-12 1.39663e-12 0 0 5.33497e-13 6.04339e-13 8.20266e-13 5.81804e-13 0 0 2.68308e-13 2.29096e-13 4.03624e-13 3.44493e-13 0 0 1.93543e-14 3.46843e-13 1.25062e-13 3.78963e-13 0 0 6.82455e-14 2.04843e-13 2.5696e-13 2.73848e-13 0 0 1.79061e-13 7.00727e-14 3.81606e-13 1.71573e-13 0 0 1.30831e-13 2.42879e-13 2.00583e-13 2.58722e-13 0 0 1.79214e-13 2.08215e-13 2.94868e-13 1.12304e-13 0 0 2.49903e-13 1.58847e-13 3.95966e-13 -4.74081e-14 0 0 3.0262e-13 1.48815e-13 4.31221e-13 -3.43444e-14 0 0 2.77283e-13 1.87697e-13 3.96014e-13 1.36061e-13 0 0 1.95788e-13 3.61962e-13 1.77071e-13 4.14613e-13 0 0 2.05562e-13 4.10989e-13 1.71412e-13 4.4204e-13 0 0 2.53405e-13 3.29334e-13 3.58229e-13 3.04246e-13 0 0 3.18265e-13 2.27755e-13 4.56679e-13 2.99378e-13 0 0 2.82802e-13 3.07702e-13 3.6663e-13 4.14031e-13 0 0 2.37794e-13 3.69409e-13 4.4689e-13 2.98583e-13 0 0 1.20931e-13 5.44379e-13 4.05918e-13 2.77456e-13 0 0 2.0582e-13 4.38874e-13 4.6876e-13 3.39888e-13 0 0 3.59508e-13 2.65241e-13 6.28749e-13 3.26588e-13 0 0 3.53195e-13 4.11267e-13 4.50342e-13 4.00806e-13 0 0 4.40939e-13 4.20064e-13 3.00322e-13 4.84514e-13 0 0 4.01149e-13 4.28002e-13 3.15889e-13 5.60498e-13 0 0 1.50434e-13 6.53926e-13 4.563e-13 3.39336e-13 0 0 3.62913e-13 4.05151e-13 8.54543e-13 -1.12537e-13 0 0 4.53475e-13 4.00422e-13 6.3645e-13 6.14869e-14 0 0 2.3593e-13 6.02259e-13 4.90206e-13 1.56238e-13 0 0 3.41786e-13 3.56844e-13 7.45577e-13 5.66165e-14 0 0 3.22821e-13 4.49138e-13 3.80692e-13 4.20308e-13 0 0 3.25617e-13 4.1644e-13 2.89072e-13 5.15848e-13 0 0 4.25304e-13 2.75746e-13 3.90193e-13 4.01832e-13 0 0 3.99861e-13 3.9266e-13 3.48835e-13 1.64326e-13 0 0 3.41403e-13 6.18838e-13 1.78432e-13 2.45643e-14 0 0 5.04802e-13 3.94523e-13 3.62521e-13 -1.53361e-13 0 0 2.78911e-13 6.16949e-13 1.92203e-13 -1.20624e-13 0 0 2.05091e-13 5.59321e-13 1.56037e-13 1.1491e-14 0 0 3.31711e-13 2.15005e-13 3.36151e-13 8.8053e-14 0 0 3.39738e-13 1.17169e-13 3.50283e-13 1.63158e-13 0 0 4.15366e-13 6.80347e-14 4.25349e-13 2.87007e-15 0 0 3.06537e-13 3.70928e-13 -6.63215e-14 3.21565e-13 0 0 4.79385e-14 7.48159e-13 -7.02393e-13 8.08535e-13 0 0 -1.66638e-13 1.05368e-12 -1.02201e-12 9.15681e-13 0
				</DataArray>
				<DataArray Name="VitesseY" type="Float32" format="ascii">