<?xml version="1.0"?>
<VTKFile type="PolyData">
	<PolyData>
		<Piece NumberOfPoints="1206" NumberOfPolys="1000">
			<Points>
				<DataArray type="Float32" NumberOfComponents="3" format="ascii">
 0 0 0 0.02 0 0 0.04 0 0 0.06 0 0 0.08 0 0 0.1 0 0 0 0.005 0 0.02 0.005 0 0.04 0.005 0 0.06 0.005 0 0.08 0.005 0 0.1 0.005 0 0 0.01 0 0.02 0.01 0 0.04 0.01 0 0.06 0.01 0 0.08 0.01 0 0.1 0.01 0 0 0.015 0 0.02 0.015 0 0.04 0.015 0 0.06 0.015 0 0.08 0.015 0 0.1 0.015 0 0 0.02 0 0.02 0.02 0 0.04 0.02 0 0.06 0.02 0 0.08 0.02 0 0.1 0.02 0 0 0.025 0 0.02 0.025 0 0.04 0.025 0 0.06 0.025 0 0.08 0.025 0 0.1 0.025 0 0 0.03 0 0.02 0.03 0 0.04 0.03 0 0.06 0.03 0 0.08 0.03 0 0.1 0.03 0 0 0.035 0 0.02 0.035 0 0.04 0.035 0 0.06 0.035 0 0.08 0.035 0 0.1 0.035 0 0 0.04 0 0.02 0.04 0 0.04 0.04 0 0.06 0.04 0 0.08 0.04 0 0.1 0.04 0 0 0.045 0 0.02 0.045 0 0.04 0.045 0 0.06 0.045 0 0.08 0.045 0 0.1 0.045 0 0 0.05 0 0.02 0.05 0 0.04 0.05 0 0.06 0.05 0 0.08 0.05 0 0.1 0.05 0 0 0.055 0 0.02 0.055 0 0.04 0.055 0 0.06 0.055 0 0.08 0.055 0 0.1 0.055 0 0 0.06 0 0.02 0.06 0 0.04 0.06 0 0.06 0.06 0 0.08 0.06 0 0.1 0.06 0 0 0.065 0 0.02 0.065 0 0.04 0.065 0 0.06 0.065 0 0.08 0.065 0 0.1 0.065 0 0 0.07 0 0.02 0.07 0 0.04 0.07 0 0.06 0.07 0 0.08 0.07 0 0.1 0.07 0 0 0.075 0 0.02 0.075 0 0.04 0.075 0 0.06 0.075 0 0.08 0.075 0 0.1 0.075 0 0 0.08 0 0.02 0.08 0 0.04 0.08 0 0.06 0.08 0 0.08 0.08 0 0.1 0.08 0 0 0.085 0 0.02 0.085 0 0.04 0.085 0 0.06 0.085 0 0.08 0.085 0 0.1 0.085 0 0 0.09 0 0.02 0.09 0 0.04 0.09 0 0.06 0.09 0 0.08 0.09 0 0.1 0.09 0 0 0.095 0 0.02 0.095 0 0.04 0.095 0 0.06 0.095 0 0.08 0.095 0 0.1 0.095 0 0 0.1 0 0.02 0.1 0 0.04 0.1 0 0.06 0.1 0 0.08 0.1 0 0.1 0.1 0 0 0.105 0 0.02 0.105 0 0.04 0.105 0 0.06 0.105 0 0.08 0.105 0 0.1 0.105 0 0 0.11 0 0.02 0.11 0 0.04 0.11 0 0.06 0.11 0 0.08 0.11 0 0.1 0.11 0 0 0.115 0 0.02 0.115 0 0.04 0.115 0 0.06 0.115 0 0.08 0.115 0 0.1 0.115 0 0 0.12 0 0.02 0.12 0 0.04 0.12 0 0.06 0.12 0 0.08 0.12 0 0.1 0.12 0 0 0.125 0 0.02 0.125 0 0.04 0.125 0 0.06 0.125 0 0.08 0.125 0 0.1 0.125 0 0 0.13 0 0.02 0.13 0 0.04 0.13 0 0.06 0.13 0 0.08 0.13 0 0.1 0.13 0 0 0.135 0 0.02 0.135 0 0.04 0.135 0 0.06 0.135 0 0.08 0.135 0 0.1 0.135 0 0 0.14 0 0.02 0.14 0 0.04 0.14 0 0.06 0.14 0 0.08 0.14 0 0.1 0.14 0 0 0.145 0 0.02 0.145 0 0.04 0.145 0 0.06 0.145 0 0.08 0.145 0 0.1 0.145 0 0 0.15 0 0.02 0.15 0 0.04 0.15 0 0.06 0.15 0 0.08 0.15 0 0.1 0.15 0 0 0.155 0 0.02 0.155 0 0.04 0.155 0 0.06 0.155 0 0.08 0.155 0 0.1 0.155 0 0 0.16 0 0.02 0.16 0 0.04 0.16 0 0.06 0.16 0 0.08 0.16 0 0.1 0.16 0 0 0.165 0 0.02 0.165 0 0.04 0.165 0 0.06 0.165 0 0.08 0.165 0 0.1 0.165 0 0 0.17 0 0.02 0.17 0 0.04 0.17 0 0.06 0.17 0 0.08 0.17 0 0.1 0.17 0 0 0.175 0 0.02 0.175 0 0.04 0.175 0 0.06 0.175 0 0.08 0.175 0 0.1 0.175 0 0 0.18 0 0.02 0.18 0 0.04 0.18 0 0.06 0.18 0 0.08 0.18 0 0.1 0.18 0 0 0.185 0 0.02 0.185 0 0.04 0.185 0 0.06 0.185 0 0.08 0.185 0 0.1 0.185 0 0 0.19 0 0.02 0.19 0 0.04 0.19 0 0.06 0.19 0 0.08 0.19 0 0.1 0.19 0 0 0.195 0 0.02 0.195 0 0.04 0.195 0 0.06 0.195 0 0.08 0.195 0 0.1 0.195 0 0 0.2 0 0.02 0.2 0 0.04 0.2 0 0.06 0.2 0 0.08 0.2 0 0.1 0.2 0 0 0.205 0 0.02 0.205 0 0.04 0.205 0 0.06 0.205 0 0.08 0.205 0 0.1 0.205 0 0 0.21 0 0.02 0.21 0 0.04 0.21 0 0.06 0.21 0 0.08 0.21 0 0.1 0.21 0 0 0.215 0 0.02 0.215 0 0.04 0.215 0 0.06 0.215 0 0.08 0.215 0 0.1 0.215 0 0 0.22 0 0.02 0.22 0 0.04 0.22 0 0.06 0.22 0 0.08 0.22 0 0.1 0.22 0 0 0.225 0 0.02 0.225 0 0.04 0.225 0 0.06 0.225 0 0.08 0.225 0 0.1 0.225 0 0 0.23 0 0.02 0.23 0 0.04 0.23 0 0.06 0.23 0 0.08 0.23 0 0.1 0.23 0 0 0.235 0 0.02 0.235 0 0.04 0.235 0 0.06 0.235 0 0.08 0.235 0 0.1 0.235 0 0 0.24 0 0.02 0.24 0 0.04 0.24 0 0.06 0.24 0 0.08 0.24 0 0.1 0.24 0 0 0.245 0 0.02 0.245 0 0.04 0.245 0 0.06 0.245 0 0.08 0.245 0 0.1 0.245 0 0 0.25 0 0.02 0.25 0 0.04 0.25 0 0.06 0.25 0 0.08 0.25 0 0.1 0.25 0 0 0.255 0 0.02 0.255 0 0.04 0.255 0 0.06 0.255 0 0.08 0.255 0 0.1 0.255 0 0 0.26 0 0.02 0.26 0 0.04 0.26 0 0.06 0.26 0 0.08 0.26 0 0.1 0.26 0 0 0.265 0 0.02 0.265 0 0.04 0.265 0 0.06 0.265 0 0.08 0.265 0 0.1 0.265 0 0 0.27 0 0.02 0.27 0 0.04 0.27 0 0.06 0.27 0 0.08 0.27 0 0.1 0.27 0 0 0.275 0 0.02 0.275 0 0.04 0.275 0 0.06 0.275 0 0.08 0.275 0 0.1 0.275 0 0 0.28 0 0.02 0.28 0 0.04 0.28 0 0.06 0.28 0 0.08 0.28 0 0.1 0.28 0 0 0.285 0 0.02 0.285 0 0.04 0.285 0 0.06 0.285 0 0.08 0.285 0 0.1 0.285 0 0 0.29 0 0.02 0.29 0 0.04 0.29 0 0.06 0.29 0 0.08 0.29 0 0.1 0.29 0 0 0.295 0 0.02 0.295 0 0.04 0.295 0 0.06 0.295 0 0.08 0.295 0 0.1 0.295 0 0 0.3 0 0.02 0.3 0 0.04 0.3 0 0.06 0.3 0 0.08 0.3 0 0.1 0.3 0 0 0.305 0 0.02 0.305 0 0.04 0.305 0 0.06 0.305 0 0.08 0.305 0 0.1 0.305 0 0 0.31 0 0.02 0.31 0 0.04 0.31 0 0.06 0.31 0 0.08 0.31 0 0.1 0.31 0 0 0.315 0 0.02 0.315 0 0.04 0.315 0 0.06 0.315 0 0.08 0.315 0 0.1 0.315 0 0 0.32 0 0.02 0.32 0 0.04 0.32 0 0.06 0.32 0 0.08 0.32 0 0.1 0.32 0 0 0.325 0 0.02 0.325 0 0.04 0.325 0 0.06 0.325 0 0.08 0.325 0 0.1 0.325 0 0 0.33 0 0.02 0.33 0 0.04 0.33 0 0.06 0.33 0 0.08 0.33 0 0.1 0.33 0 0 0.335 0 0.02 0.335 0 0.04 0.335 0 0.06 0.335 0 0.08 0.335 0 0.1 0.335 0 0 0.34 0 0.02 0.34 0 0.04 0.34 0 0.06 0.34 0 0.08 0.34 0 0.1 0.34 0 0 0.345 0 0.02 0.345 0 0.04 0.345 0 0.06 0.345 0 0.08 0.345 0 0.1 0.345 0 0 0.35 0 0.02 0.35 0 0.04 0.35 0 0.06 0.35 0 0.08 0.35 0 0.1 0.35 0 0 0.355 0 0.02 0.355 0 0.04 0.355 0 0.06 0.355 0 0.08 0.355 0 0.1 0.355 0 0 0.36 0 0.02 0.36 0 0.04 0.36 0 0.06 0.36 0 0.08 0.36 0 0.1 0.36 0 0 0.365 0 0.02 0.365 0 0.04 0.365 0 0.06 0.365 0 0.08 0.365 0 0.1 0.365 0 0 0.37 0 0.02 0.37 0 0.04 0.37 0 0.06 0.37 0 0.08 0.37 0 0.1 0.37 0 0 0.375 0 0.02 0.375 0 0.04 0.375 0 0.06 0.375 0 0.08 0.375 0 0.1 0.375 0 0 0.38 0 0.02 0.38 0 0.04 0.38 0 0.06 0.38 0 0.08 0.38 0 0.1 0.38 0 0 0.385 0 0.02 0.385 0 0.04 0.385 0 0.06 0.385 0 0.08 0.385 0 0.1 0.385 0 0 0.39 0 0.02 0.39 0 0.04 0.39 0 0.06 0.39 0 0.08 0.39 0 0.1 0.39 0 0 0.395 0 0.02 0.395 0 0.04 0.395 0 0.06 0.395 0 0.08 0.395 0 0.1 0.395 0 0 0.4 0 0.02 0.4 0 0.04 0.4 0 0.06 0.4 0 0.08 0.4 0 0.1 0.4 0 0 0.405 0 0.02 0.405 0 0.04 0.405 0 0.06 0.405 0 0.08 0.405 0 0.1 0.405 0 0 0.41 0 0.02 0.41 0 0.04 0.41 0 0.06 0.41 0 0.08 0.41 0 0.1 0.41 0 0 0.415 0 0.02 0.415 0 0.04 0.415 0 0.06 0.415 0 0.08 0.415 0 0.1 0.415 0 0 0.42 0 0.02 0.42 0 0.04 0.42 0 0.06 0.42 0 0.08 0.42 0 0.1 0.42 0 0 0.425 0 0.02 0.425 0 0.04 0.425 0 0.06 0.425 0 0.08 0.425 0 0.1 0.425 0 0 0.43 0 0.02 0.43 0 0.04 0.43 0 0.06 0.43 0 0.08 0.43 0 0.1 0.43 0 0 0.435 0 0.02 0.435 0 0.04 0.435 0 0.06 0.435 0 0.08 0.435 0 0.1 0.435 0 0 0.44 0 0.02 0.44 0 0.04 0.44 0 0.06 0.44 0 0.08 0.44 0 0.1 0.44 0 0 0.445 0 0.02 0.445 0 0.04 0.445 0 0.06 0.445 0 0.08 0.445 0 0.1 0.445 0 0 0.45 0 0.02 0.45 0 0.04 0.45 0 0.06 0.45 0 0.08 0.45 0 0.1 0.45 0 0 0.455 0 0.02 0.455 0 0.04 0.455 0 0.06 0.455 0 0.08 0.455 0 0.1 0.455 0 0 0.46 0 0.02 0.46 0 0.04 0.46 0 0.06 0.46 0 0.08 0.46 0 0.1 0.46 0 0 0.465 0 0.02 0.465 0 0.04 0.465 0 0.06 0.465 0 0.08 0.465 0 0.1 0.465 0 0 0.47 0 0.02 0.47 0 0.04 0.47 0 0.06 0.47 0 0.08 0.47 0 0.1 0.47 0 0 0.475 0 0.02 0.475 0 0.04 0.475 0 0.06 0.475 0 0.08 0.475 0 0.1 0.475 0 0 0.48 0 0.02 0.48 0 0.04 0.48 0 0.06 0.48 0 0.08 0.48 0 0.1 0.48 0 0 0.485 0 0.02 0.485 0 0.04 0.485 0 0.06 0.485 0 0.08 0.485 0 0.1 0.485 0 0 0.49 0 0.02 0.49 0 0.04 0.49 0 0.06 0.49 0 0.08 0.49 0 0.1 0.49 0 0 0.495 0 0.02 0.495 0 0.04 0.495 0 0.06 0.495 0 0.08 0.495 0 0.1 0.495 0 0 0.5 0 0.02 0.5 0 0.04 0.5 0 0.06 0.5 0 0.08 0.5 0 0.1 0.5 0 0 0.505 0 0.02 0.505 0 0.04 0.505 0 0.06 0.505 0 0.08 0.505 0 0.1 0.505 0 0 0.51 0 0.02 0.51 0 0.04 0.51 0 0.06 0.51 0 0.08 0.51 0 0.1 0.51 0 0 0.515 0 0.02 0.515 0 0.04 0.515 0 0.06 0.515 0 0.08 0.515 0 0.1 0.515 0 0 0.52 0 0.02 0.52 0 0.04 0.52 0 0.06 0.52 0 0.08 0.52 0 0.1 0.52 0 0 0.525 0 0.02 0.525 0 0.04 0.525 0 0.06 0.525 0 0.08 0.525 0 0.1 0.525 0 0 0.53 0 0.02 0.53 0 0.04 0.53 0 0.06 0.53 0 0.08 0.53 0 0.1 0.53 0 0 0.535 0 0.02 0.535 0 0.04 0.535 0 0.06 0.535 0 0.08 0.535 0 0.1 0.535 0 0 0.54 0 0.02 0.54 0 0.04 0.54 0 0.06 0.54 0 0.08 0.54 0 0.1 0.54 0 0 0.545 0 0.02 0.545 0 0.04 0.545 0 0.06 0.545 0 0.08 0.545 0 0.1 0.545 0 0 0.55 0 0.02 0.55 0 0.04 0.55 0 0.06 0.55 0 0.08 0.55 0 0.1 0.55 0 0 0.555 0 0.02 0.555 0 0.04 0.555 0 0.06 0.555 0 0.08 0.555 0 0.1 0.555 0 0 0.56 0 0.02 0.56 0 0.04 0.56 0 0.06 0.56 0 0.08 0.56 0 0.1 0.56 0 0 0.565 0 0.02 0.565 0 0.04 0.565 0 0.06 0.565 0 0.08 0.565 0 0.1 0.565 0 0 0.57 0 0.02 0.57 0 0.04 0.57 0 0.06 0.57 0 0.08 0.57 0 0.1 0.57 0 0 0.575 0 0.02 0.575 0 0.04 0.575 0 0.06 0.575 0 0.08 0.575 0 0.1 0.575 0 0 0.58 0 0.02 0.58 0 0.04 0.58 0 0.06 0.58 0 0.08 0.58 0 0.1 0.58 0 0 0.585 0 0.02 0.585 0 0.04 0.585 0 0.06 0.585 0 0.08 0.585 0 0.1 0.585 0 0 0.59 0 0.02 0.59 0 0.04 0.59 0 0.06 0.59 0 0.08 0.59 0 0.1 0.59 0 0 0.595 0 0.02 0.595 0 0.04 0.595 0 0.06 0.595 0 0.08 0.595 0 0.1 0.595 0 0 0.6 0 0.02 0.6 0 0.04 0.6 0 0.06 0.6 0 0.08 0.6 0 0.1 0.6 0 0 0.605 0 0.02 0.605 0 0.04 0.605 0 0.06 0.605 0 0.08 0.605 0 0.1 0.605 0 0 0.61 0 0.02 0.61 0 0.04 0.61 0 0.06 0.61 0 0.08 0.61 0 0.1 0.61 0 0 0.615 0 0.02 0.615 0 0.04 0.615 0 0.06 0.615 0 0.08 0.615 0 0.1 0.615 0 0 0.62 0 0.02 0.62 0 0.04 0.62 0 0.06 0.62 0 0.08 0.62 0 0.1 0.62 0 0 0.625 0 0.02 0.625 0 0.04 0.625 0 0.06 0.625 0 0.08 0.625 0 0.1 0.625 0 0 0.63 0 0.02 0.63 0 0.04 0.63 0 0.06 0.63 0 0.08 0.63 0 0.1 0.63 0 0 0.635 0 0.02 0.635 0 0.04 0.635 0 0.06 0.635 0 0.08 0.635 0 0.1 0.635 0 0 0.64 0 0.02 0.64 0 0.04 0.64 0 0.06 0.64 0 0.08 0.64 0 0.1 0.64 0 0 0.645 0 0.02 0.645 0 0.04 0.645 0 0.06 0.645 0 0.08 0.645 0 0.1 0.645 0 0 0.65 0 0.02 0.65 0 0.04 0.65 0 0.06 0.65 0 0.08 0.65 0 0.1 0.65 0 0 0.655 0 0.02 0.655 0 0.04 0.655 0 0.06 0.655 0 0.08 0.655 0 0.1 0.655 0 0 0.66 0 0.02 0.66 0 0.04 0.66 0 0.06 0.66 0 0.08 0.66 0 0.1 0.66 0 0 0.665 0 0.02 0.665 0 0.04 0.665 0 0.06 0.665 0 0.08 0.665 0 0.1 0.665 0 0 0.67 0 0.02 0.67 0 0.04 0.67 0 0.06 0.67 0 0.08 0.67 0 0.1 0.67 0 0 0.675 0 0.02 0.675 0 0.04 0.675 0 0.06 0.675 0 0.08 0.675 0 0.1 0.675 0 0 0.68 0 0.02 0.68 0 0.04 0.68 0 0.06 0.68 0 0.08 0.68 0 0.1 0.68 0 0 0.685 0 0.02 0.685 0 0.04 0.685 0 0.06 0.685 0 0.08 0.685 0 0.1 0.685 0 0 0.69 0 0.02 0.69 0 0.04 0.69 0 0.06 0.69 0 0.08 0.69 0 0.1 
[...]
			<PointData Scalars="VitesseX">
				<DataArray Name="VitesseX" type="Float32" format="ascii">
 0 -2.43046e-14 1.4633e-14 -1.91247e-14 2.57884e-14 0 0 -1.76473e-14 8.32754e-16 -4.57919e-15 1.6942e-14 0 0 -1.23766e-14 -1.5839e-14 1.34486e-14 9.73614e-15 0 0 -2.32094e-14 -4.51297e-15 -1.43343e-15 2.85377e-14 0 0 -8.47284e-15 -3.42e-14 2.80517e-14 1.57963e-14 0 0 3.09473e-15 -5.65425e-14 5.28028e-14 2.58557e-15 0 0 -2.88968e-14 6.25091e-15 -1.56567e-14 5.48934e-14 0 0 -4.82295e-14 2.94309e-14 -6.12472e-17 4.44489e-14 0 0 -4.17114e-14 2.00947e-14 4.83332e-14 1.10751e-14 0 0 -1.60588e-14 -1.22643e-14 8.90132e-14 1.85818e-15 0 0 5.84778e-15 -4.82757e-14 1.33156e-13 -2.40668e-14 0 0 2.00294e-14 -3.83922e-14 1.10232e-13 -2.67438e-14 0 0 7.74956e-15 1.63976e-14 2.41195e-14 3.66627e-14 0 0 -6.31418e-15 5.51092e-14 -5.11969e-14 1.16573e-13 0 0 2.44868e-15 2.1489e-14 -1.13791e-14 9.5044e-14 0 0 -2.05761e-14 2.23471e-14 2.90603e-14 3.22322e-14 0 0 2.70286e-14 -3.85778e-14 8.16271e-14 -3.05477e-14 0 0 7.33127e-14 -8.36929e-14 6.90121e-14 -1.4926e-14 0 0 5.78628e-14 -3.9378e-14 -3.31142e-14 7.04487e-14 0 0 1.4717e-14 4.38542e-14 -1.3723e-13 1.31359e-13 0 0 -3.09232e-14 8.00635e-14 -1.16384e-13 6.8326e-14 0 0 -1.53234e-14 1.98018e-14 -3.21105e-15 -4.05173e-14 0 0 4.88213e-14 -1.22714e-13 1.41866e-13 -1.12299e-13 0 0 -4.28556e-14 -1.90177e-14 -2.51666e-15 1.55366e-14 0 0 -1.62232e-13 1.54335e-13 -2.22474e-13 1.70096e-13 0 0 -7.95593e-14 -1.54835e-14 -4.75445e-14 7.06716e-14 0 0 -7.12474e-14 -4.94234e-14 5.21162e-15 4.25524e-14 0 0 -5.30166e-14 -5.81978e-14 1.54815e-14 9.9049e-15 0 0 3.15758e-14 -1.70965e-13 1.82706e-13 -1.64435e-13 0 0 -5.75932e-14 -4.75417e-14 1.45668e-13 -1.73055e-13 0 0 -1.05234e-13 3.5709e-14 5.928e-14 -8.18271e-14 0 0 -3.5058e-14 -2.51167e-14 7.46845e-14 -6.32403e-14 0 0 -7.88696e-14 3.86838e-14 2.16772e-14 -1.63743e-14 0 0 2.1039e-14 -1.16319e-13 2.35251e-13 -1.59895e-13 0 0 -5.24568e-14 1.38573e-14 1.584e-13 -9.63472e-14 0 0 -1.59777e-13 1.58444e-13 2.42389e-14 2.31362e-14 0 0 2.17284e-14 -1.23878e-13 2.32403e-13 -5.31474e-14 0 0 2.45257e-14 -9.34781e-14 1.4014e-13 5.6893e-14 0 0 -4.87479e-14 2.64868e-14 4.62404e-14 9.44645e-14 0 0 -8.98904e-14 7.42373e-14 7.30811e-14 2.35579e-14 0 0 -9.58785e-14 1.03458e-13 9.57689e-14 -4.43047e-14 0 0 -1.31281e-13 1.84194e-13 3.60886e-14 -2.69856e-14 0 0 -1.39283e-13 1.48019e-13 1.08365e-13 -5.3965e-14 0 0 -1.35897e-13 1.10549e-13 1.42571e-13 -7.9035e-14 0 0 -1.43293e-13 1.70809e-13 -9.01148e-15 3.35654e-14 0 0 -5.36361e-14 8.88616e-14 -5.14515e-14 1.52078e-13 0 0 1.49751e-13 -1.7882e-13 1.62583e-13 4.7454e-14 0 0 1.07543e-13 -1.17821e-13 2.16047e-13 -5.88375e-14 0 0 -1.27739e-13 2.33438e-13 2.30398e-14 -1.35657e-14 0 0 -6.31391e-14 1.88012e-13 1.42368e-14 3.37851e-14 0 0 2.40973e-13 -1.92756e-13 2.71042e-13 -5.18346e-14 0 0 3.56774e-13 -2.49211e-13 2.4136e-13 -1.53829e-14 0 0 6.85468e-14 2.57153e-13 -3.91686e-13 4.34583e-13 0 0 2.32058e-13 -4.4399e-14 -1.71496e-13 3.28592e-13 0 0 4.06181e-13 -3.79505e-13 2.06517e-13 8.2384e-17 0 0 1.04592e-13 2.7253e-14 -1.40617e-13 1.17929e-13 0 0 1.12263e-13 -7.46265e-14 -2.39388e-14 4.66188e-15 0 0 8.58944e-15 6.05097e-14 -1.39078e-13 3.64413e-14 0 0 -3.49536e-14 1.15586e-13 -1.72958e-13 4.84777e-15 0 0 8.95522e-14 -1.35614e-13 8.34864e-14 -1.68291e-13 0 0 4.0002e-14 -3.35697e-14 -2.23192e-14 -4.99761e-14 0 0 9.03854e-15 5.44083e-14 -5.30686e-14 -2.30942e-14 0 0 -2.10092e-14 1.3309e-13 -8.94303e-14 3.17993e-14 0 0 2.8908e-14 1.33798e-13 -9.01936e-14 5.75827e-14 0 0 -1.38484e-14 2.2556e-13 -1.68698e-13 1.12825e-13 0 0 1.96379e-14 2.95104e-14 4.26193e-14 4.94218e-14 0 0 7.17258e-14 -1.25886e-13 1.91036e-13 -2.37793e-14 0 0 5.57409e-16 1.07205e-13 -8.2387e-14 9.09946e-14 0 0 1.05927e-13 5.00394e-14 2.28978e-14 -1.32287e-13 0 0 2.99635e-13 -1.39648e-13 3.00936e-13 -4.4893e-13 0 0 2.66425e-13 9.15404e-14 1.12655e-13 -3.17922e-13 0 0 3.02728e-13 1.71908e-13 -2.09381e-14 -7.29369e-14 0 0 5.14485e-13 -1.36913e-13 2.06552e-13 -7.44583e-14 0 0 5.97164e-13 -1.76446e-13 1.60036e-13 -2.91609e-14 0 0 6.90173e-13 -1.02519e-13 -1.41122e-14 5.51323e-14 0 0 4.72989e-13 1.89721e-13 -1.86955e-13 1.61426e-13 0 0 3.4601e-13 1.12508e-13 1.30836e-13 9.01442e-15 0 0 6.05578e-13 -3.54089e-13 7.17127e-13 -1.80314e-13 0 0 4.41297e-13 1.45232e-14 4.96852e-13 1.71986e-13 0 0 6.69469e-13 1.85976e-13 7.45545e-13 2.26604e-13 0 0 1.19759e-12 1.23194e-12 1.3075e-12 8.24695e-13 0 0 2.56378e-12 4.58143e-12 3.5047e-12 2.83798e-12 0 0 7.45231e-12 1.1414e-11 1.1503e-11 6.88468e-12 0 0 1.75354e-11 2.74913e-11 2.70746e-11 1.62521e-11 0 0 3.53605e-11 5.62429e-11 5.32406e-11 3.21103e-11 0 0 6.2539e-11 9.59316e-11 9.08576e-11 5.27694e-11 0 0 9.61064e-11 1.44415e-10 1.32956e-10 7.59206e-11 0 0 1.31779e-10 1.95378e-10 1.72116e-10 9.53047e-11 0 0 1.65872e-10 2.39459e-10 2.02526e-10 1.06899e-10 0 0 1.93645e-10 2.71971e-10 2.20474e-10 1.07421e-10 0 0 2.11281e-10 2.91154e-10 2.20919e-10 9.78318e-11 0 0 2.17943e-10 2.91731e-10 2.07136e-10 7.93972e-11 0 0 2.04695e-10 2.74035e-10 1.79976e-10 5.13164e-11 0 0 1.7375e-10 2.36139e-10 1.36412e-10 1.3983e-11 0 0 1.17327e-10 1.79008e-10 8.95161e-11 -2.17519e-11 0 0 2.33794e-11 9.05057e-11 3.42221e-11 -7.89057e-11 0 0 -8.11704e-11 1.84579e-12 -2.25861e-11 -1.29896e-10 0 0 -2.66997e-10 -1.28401e-10 -7.73889e-11 -1.89618e-10 0 0 -4.49063e-10 -2.49054e-10 -1.28929e-10 -2.49332e-10 0 0 -5.59877e-10 -4.70292e-10 -1.88128e-10 -2.32709e-10 0 0 -8.02162e-10 -7.45318e-10 -4.2113e-10 3.40684e-11 0 0 -7.02504e-10 -1.06735e-09 -6.18441e-10 3.41057e-10 0 0 9.14429e-10 -1.69462e-09 -2.29018e-09 2.7763e-09 0 0 1.99383e-09 -1.69668e-09 -5.04129e-09 5.70399e-09 0 0 6.90727e-10 -2.21704e-10 -4.89385e-09 5.07877e-09 0 0 -2.14179e-09 2.34204e-09 -4.36664e-09 3.27404e-09 0 0 -2.50632e-09 2.19663e-09 -2.58439e-09 1.75297e-10 0 0 -1.43134e-09 -1.63282e-10 2.16024e-09 -3.4515e-09 0 0 -2.3149e-10 -2.15402e-09 5.1352e-09 -5.53464e-09 0 0 -3.64767e-10 -2.01588e-09 5.02913e-09 -5.33482e-09 0 0 -8.46322e-10 -1.23814e-09 4.34005e-09 -4.79517e-09 0 0 -1.2362e-09 9.96084e-10 -2.35486e-10 -1.03246e-09 0 0 -1.75669e-09 4.16066e-09 -6.99923e-09 5.13566e-09 0 0 -2.07954e-09 5.0493e-09 -7.50548e-09 5.63541e-09 0 0 -1.43074e-09 4.08717e-09 -5.70906e-09 4.43556e-09 0 0 2.73571e-10 1.07573e-09 -1.10194e-09 1.0822e-09 0 0 9.66569e-10 -6.74485e-10 1.56503e-09 -1.29366e-09 0 0 1.01231e-09 -8.13369e-10 1.69636e-09 -1.46022e-09 0 0 8.90447e-10 -6.94868e-10 1.49477e-09 -1.30092e-09 0 0 4.54752e-10 -8.33859e-11 5.86411e-10 -5.56089e-10 0 0 1.58814e-11 5.50976e-10 -3.05447e-10 1.44309e-10 0 0 -5.50783e-11 5.96783e-10 -4.25487e-10 2.29761e-10 0 0 -2.54391e-13 3.63134e-10 -3.00826e-10 1.63915e-10 0 0 3.17718e-11 9.63099e-11 -8.86763e-11 1.90857e-11 0 0 2.44053e-11 2.24168e-11 -3.43578e-11 -3.10301e-11 0 0 9.41928e-12 -1.79575e-12 -3.01418e-11 -3.39099e-11 0 0 -1.13984e-12 -1.22623e-11 -2.8025e-11 -2.81963e-11 0 0 -5.14243e-12 -1.45202e-11 -2.28803e-11 -1.93282e-11 0 0 -5.44126e-12 -1.19915e-11 -1.55444e-11 -1.17635e-11 0 0 -3.87557e-12 -7.16602e-12 -8.73889e-12 -6.03659e-12 0 0 -1.97918e-12 -3.37507e-12 -3.9159e-12 -2.59414e-12 0 0 -6.75212e-13 -1.41333e-12 -1.27348e-12 -9.62614e-13 0 0 -3.11188e-14 -6.24694e-13 -1.41662e-13 -2.72085e-13 0 0 1.66916e-13 -2.68605e-13 2.10156e-13 2.37154e-14 0 0 5.57215e-14 1.19676e-13 3.94581e-14 3.31366e-13 0 0 2.74568e-14 1.8077e-13 1.16945e-13 3.45706e-13 0 0 1.51176e-13 -3.97264e-14 4.91887e-13 7.99305e-14 0 0 1.94474e-13 -9.79046e-14 5.85136e-13 6.4741e-14 0 0 9.67935e-14 8.79151e-14 4.12105e-13 2.10786e-13 0 0 5.43334e-14 1.84414e-13 3.60812e-13 3.02733e-13 0 0 -2.33785e-15 3.4789e-13 1.92469e-13 4.16855e-13 0 0 1.01588e-13 3.36832e-13 1.83002e-13 3.39948e-13 0 0 3.90453e-13 -2.59025e-14 5.59637e-13 1.25167e-13 0 0 3.64822e-13 3.59028e-14 5.80104e-13 8.05156e-14 0 0 9.82684e-14 5.10377e-13 1.16242e-13 3.00219e-13 0 0 6.38936e-14 6.66653e-13 -1.72179e-13 4.85697e-13 0 0 4.37369e-13 1.49861e-13 2.69896e-13 1.82735e-13 0 0 6.8553e-13 -2.18674e-13 6.17713e-13 -6.72146e-14 0 0 6.37045e-13 -9.68058e-14 4.62675e-13 4.24139e-14 0 0 2.92617e-13 5.06888e-13 -1.98279e-13 4.77992e-13 0 0 2.31634e-13 6.81124e-13 -4.52589e-13 6.68288e-13 0 0 5.3864e-13 8.81578e-14 1.97503e-13 2.14831e-13 0 0 6.45773e-13 -2.44286e-13 6.41834e-13 -1.48948e-13 0 0 3.70453e-13 4.4101e-14 5.01672e-13 -1.58658e-13 0 0 -6.22354e-14 5.33668e-13 1.53235e-13 -6.80951e-14 0 0 5.07935e-15 4.73956e-13 4.17074e-14 1.4864e-13 0 0 4.76437e-13 -4.33979e-14 2.77102e-13 1.424e-13 0 0 6.27525e-13 -1.76746e-13 4.51539e-13 8.22535e-14 0 0 3.09929e-13 6.8426e-14 4.87024e-13 3.69884e-13 0 0 -2.71991e-13 6.05549e-13 3.31217e-13 5.83429e-13 0 0 -4.68642e-13 8.70972e-13 2.34674e-13 4.8095e-13 0 0 2.21217e-13 -1.80099e-14 9.92278e-13 -1.15614e-13 0 0 6.21725e-13 -5.83506e-13 1.42847e-12 -2.67593e-13 0 0 1.23383e-13 8.26165e-14 6.39354e-13 4.13497e-13 0 0 -3.06501e-13 6.00691e-13 2.03403e-13 5.70009e-13 0 0 -2.43152e-13 3.82132e-13 5.10027e-13 2.85054e-13 0 0 -9.23676e-14 -2.78586e-14 8.16964e-13 2.09016e-13 0 0 6.40819e-14 -4.25327e-13 1.08633e-12 1.67172e-13 0 0 6.9535e-14 -4.20414e-13 1.03932e-12 1.35224e-13 0 0 7.43283e-14 -2.48998e-13 9.39956e-13 -8.4485e-15 0 0 9.30204e-14 -4.41664e-14 6.99806e-13 1.85759e-13 0 0 -2.65568e-13 4.27184e-13 1.09755e-13 8.56183e-13 0 0 -1.18871e-13 -7.06749e-14 5.39802e-13 6.41101e-13 0 0 4.49883e-14 -2.78582e-13 6.34867e-13 3.90758e-13 0 0 2.58708e-13 -4.85149e-13 6.50216e-13 3.10182e-13 0 0 2.95345e-13 -5.9557e-13 7.39825e-13 1.7007e-13 0 0 -4.59431e-13 5.92331e-13 -3.27601e-13 5.75402e-13 0 0 -5.0835e-13 6.87335e-13 -3.31497e-13 3.92806e-13 0 0 -1.28016e-13 9.88243e-14 2.26452e-13 2.98097e-15 0 0 2.7225e-13 -3.17041e-13 5.08082e-13 -1.43014e-13 0 0 3.70613e-13 -3.41249e-13 5.10667e-13 -1.42372e-13 0 0 -2.21293e-13 4.74542e-13 -1.08028e-13 2.09434e-13 0 0 -5.14378e-13 7.74938e-13 -3.40124e-14 7.03221e-14 0 0 -8.57008e-14 1.22672e-13 7.51121e-13 -2.74106e-13 0 0 3.56926e-13 -3.42282e-13 9.2666e-13 2.10854e-14 0 0 9.49752e-14 1.28743e-13 3.19979e-13 4.34204e-13 0 0 -2.77983e-13 5.60144e-13 7.04773e-14 3.78718e-13 0 0 -5.62613e-14 3.11671e-13 4.46962e-13 -1.07948e-13 0 0 3.80947e-13 3.98041e-14 6.47651e-13 -4.31605e-13 0 0 6.08207e-13 -1.19513e-13 7.3218e-13 -4.55218e-13 0 0 4.11872e-13 3.64264e-13 -3.3644e-14 2.81702e-13 0 0 4.4538e-13 5.45245e-13 -5.70307e-13 8.13409e-13 0 0 6.96421e-13 -6.15464e-15 2.62735e-13 1.71393e-13 0 0 8.17507e-13 -4.06312e-13 8.95067e-13 -1.73593e-13 0 0 5.22024e-13 4.80427e-14 2.27086e-13 4.11502e-13 0 0 2.65095e-14 9.29942e-13 -9.18261e-13 1.18873e-12 0 0 4.001e-13 6.06044e-13 -6.75746e-13 1.04852e-12 0 0 1.1061e-12 -1.98746e-13 8.20195e-14 5.81093e-13 0 0 1.18513e-12 -2.03377e-13 2.94752e-14 6.60486e-13 0 0 4.05554e-13 9.09995e-13 -7.44049e-13 1.02466e-12 0 0 -2.31662e-13 1.80503e-12 -1.35275e-12 1.30098e-12 0
				</DataArray>
				<DataArray Name="VitesseY" type="Float32" format="ascii">