<?xml version="1.0"?>
<VTKFile type="PolyData">
	<PolyData>
		<Piece NumberOfPoints="2201" NumberOfPolys="2100">
			<Points>
				<DataArray type="Float32" NumberOfComponents="3" format="ascii">
 0 0 0 0.001 0 0 0.002 0 0 0.003 0 0 0.004 0 0 0.005 0 0 0.006 0 0 0.007 0 0 0.008 0 0 0.009 0 0 0.01 0 0 0.011 0 0 0.012 0 0 0.013 0 0 0.014 0 0 0.015 0 0 0.016 0 0 0.017 0 0 0.018 0 0 0.019 0 0 0.02 0 0 0.021 0 0 0.022 0 0 0.023 0 0 0.024 0 0 0.025 0 0 0.026 0 0 0.027 0 0 0.028 0 0 0.029 0 0 0.03 0 0 0.031 0 0 0.032 0 0 0.033 0 0 0.034 0 0 0.035 0 0 0.036 0 0 0.037 0 0 0.038 0 0 0.039 0 0 0.04 0 0 0.041 0 0 0.042 0 0 0.043 0 0 0.044 0 0 0.045 0 0 0.046 0 0 0.047 0 0 0.048 0 0 0.049 0 0 0.05 0 0 0.051 0 0 0.052 0 0 0.053 0 0 0.054 0 0 0.055 0 0 0.056 0 0 0.057 0 0 0.058 0 0 0.059 0 0 0.06 0 0 0.061 0 0 0.062 0 0 0.063 0 0 0.064 0 0 0.065 0 0 0.066 0 0 0.067 0 0 0.068 0 0 0.069 0 0 0.07 0 0 0 0.001 0 0.001 0.001 0 0.002 0.001 0 0.003 0.001 0 0.004 0.001 0 0.005 0.001 0 0.006 0.001 0 0.007 0.001 0 0.008 0.001 0 0.009 0.001 0 0.01 0.001 0 0.011 0.001 0 0.012 0.001 0 0.013 0.001 0 0.014 0.001 0 0.015 0.001 0 0.016 0.001 0 0.017 0.001 0 0.018 0.001 0 0.019 0.001 0 0.02 0.001 0 0.021 0.001 0 0.022 0.001 0 0.023 0.001 0 0.024 0.001 0 0.025 0.001 0 0.026 0.001 0 0.027 0.001 0 0.028 0.001 0 0.029 0.001 0 0.03 0.001 0 0.031 0.001 0 0.032 0.001 0 0.033 0.001 0 0.034 0.001 0 0.035 0.001 0 0.036 0.001 0 0.037 0.001 0 0.038 0.001 0 0.039 0.001 0 0.04 0.001 0 0.041 0.001 0 0.042 0.001 0 0.043 0.001 0 0.044 0.001 0 0.045 0.001 0 0.046 0.001 0 0.047 0.001 0 0.048 0.001 0 0.049 0.001 0 0.05 0.001 0 0.051 0.001 0 0.052 0.001 0 0.053 0.001 0 0.054 0.001 0 0.055 0.001 0 0.056 0.001 0 0.057 0.001 0 0.058 0.001 0 0.059 0.001 0 0.06 0.001 0 0.061 0.001 0 0.062 0.001 0 0.063 0.001 0 0.064 0.001 0 0.065 0.001 0 0.066 0.001 0 0.067 0.001 0 0.068 0.001 0 0.069 0.001 0 0.07 0.001 0 0 0.002 0 0.001 0.002 0 0.002 0.002 0 0.003 0.002 0 0.004 0.002 0 0.005 0.002 0 0.006 0.002 0 0.007 0.002 0 0.008 0.002 0 0.009 0.002 0 0.01 0.002 0 0.011 0.002 0 0.012 0.002 0 0.013 0.002 0 0.014 0.002 0 0.015 0.002 0 0.016 0.002 0 0.017 0.002 0 0.018 0.002 0 0.019 0.002 0 0.02 0.002 0 0.021 0.002 0 0.022 0.002 0 0.023 0.002 0 0.024 0.002 0 0.025 0.002 0 0.026 0.002 0 0.027 0.002 0 0.028 0.002 0 0.029 0.002 0 0.03 0.002 0 0.031 0.002 0 0.032 0.002 0 0.033 0.002 0 0.034 0.002 0 0.035 0.002 0 0.036 0.002 0 0.037 0.002 0 0.038 0.002 0 0.039 0.002 0 0.04 0.002 0 0.041 0.002 0 0.042 0.002 0 0.043 0.002 0 0.044 0.002 0 0.045 0.002 0 0.046 0.002 0 0.047 0.002 0 0.048 0.002 0 0.049 0.002 0 0.05 0.002 0 0.051 0.002 0 0.052 0.002 0 0.053 0.002 0 0.054 0.002 0 0.055 0.002 0 0.056 0.002 0 0.057 0.002 0 0.058 0.002 0 0.059 0.002 0 0.06 0.002 0 0.061 0.002 0 0.062 0.002 0 0.063 0.002 0 0.064 0.002 0 0.065 0.002 0 0.066 0.002 0 0.067 0.002 0 0.068 0.002 0 0.069 0.002 0 0.07 0.002 0 0 0.003 0 0.001 0.003 0 0.002 0.003 0 0.003 0.003 0 0.004 0.003 0 0.005 0.003 0 0.006 0.003 0 0.007 0.003 0 0.008 0.003 0 0.009 0.003 0 0.01 0.003 0 0.011 0.003 0 0.012 0.003 0 0.013 0.003 0 0.014 0.003 0 0.015 0.003 0 0.016 0.003 0 0.017 0.003 0 0.018 0.003 0 0.019 0.003 0 0.02 0.003 0 0.021 0.003 0 0.022 0.003 0 0.023 0.003 0 0.024 0.003 0 0.025 0.003 0 0.026 0.003 0 0.027 0.003 0 0.028 0.003 0 0.029 0.003 0 0.03 0.003 0 0.031 0.003 0 0.032 0.003 0 0.033 0.003 0 0.034 0.003 0 0.035 0.003 0 0.036 0.003 0 0.037 0.003 0 0.038 0.003 0 0.039 0.003 0 0.04 0.003 0 0.041 0.003 0 0.042 0.003 0 0.043 0.003 0 0.044 0.003 0 0.045 0.003 0 0.046 0.003 0 0.047 0.003 0 0.048 0.003 0 0.049 0.003 0 0.05 0.003 0 0.051 0.003 0 0.052 0.003 0 0.053 0.003 0 0.054 0.003 0 0.055 0.003 0 0.056 0.003 0 0.057 0.003 0 0.058 0.003 0 0.059 0.003 0 0.06 0.003 0 0.061 0.003 0 0.062 0.003 0 0.063 0.003 0 0.064 0.003 0 0.065 0.003 0 0.066 0.003 0 0.067 0.003 0 0.068 0.003 0 0.069 0.003 0 0.07 0.003 0 0 0.004 0 0.001 0.004 0 0.002 0.004 0 0.003 0.004 0 0.004 0.004 0 0.005 0.004 0 0.006 0.004 0 0.007 0.004 0 0.008 0.004 0 0.009 0.004 0 0.01 0.004 0 0.011 0.004 0 0.012 0.004 0 0.013 0.004 0 0.014 0.004 0 0.015 0.004 0 0.016 0.004 0 0.017 0.004 0 0.018 0.004 0 0.019 0.004 0 0.02 0.004 0 0.021 0.004 0 0.022 0.004 0 0.023 0.004 0 0.024 0.004 0 0.025 0.004 0 0.026 0.004 0 0.027 0.004 0 0.028 0.004 0 0.029 0.004 0 0.03 0.004 0 0.031 0.004 0 0.032 0.004 0 0.033 0.004 0 0.034 0.004 0 0.035 0.004 0 0.036 0.004 0 0.037 0.004 0 0.038 0.004 0 0.039 0.004 0 0.04 0.004 0 0.041 0.004 0 0.042 0.004 0 0.043 0.004 0 0.044 0.004 0 0.045 0.004 0 0.046 0.004 0 0.047 0.004 0 0.048 0.004 0 0.049 0.004 0 0.05 0.004 0 0.051 0.004 0 0.052 0.004 0 0.053 0.004 0 0.054 0.004 0 0.055 0.004 0 0.056 0.004 0 0.057 0.004 0 0.058 0.004 0 0.059 0.004 0 0.06 0.004 0 0.061 0.004 0 0.062 0.004 0 0.063 0.004 0 0.064 0.004 0 0.065 0.004 0 0.066 0.004 0 0.067 0.004 0 0.068 0.004 0 0.069 0.004 0 0.07 0.004 0 0 0.005 0 0.001 0.005 0 0.002 0.005 0 0.003 0.005 0 0.004 0.005 0 0.005 0.005 0 0.006 0.005 0 0.007 0.005 0 0.008 0.005 0 0.009 0.005 0 0.01 0.005 0 0.011 0.005 0 0.012 0.005 0 0.013 0.005 0 0.014 0.005 0 0.015 0.005 0 0.016 0.005 0 0.017 0.005 0 0.018 0.005 0 0.019 0.005 0 0.02 0.005 0 0.021 0.005 0 0.022 0.005 0 0.023 0.005 0 0.024 0.005 0 0.025 0.005 0 0.026 0.005 0 0.027 0.005 0 0.028 0.005 0 0.029 0.005 0 0.03 0.005 0 0.031 0.005 0 0.032 0.005 0 0.033 0.005 0 0.034 0.005 0 0.035 0.005 0 0.036 0.005 0 0.037 0.005 0 0.038 0.005 0 0.039 0.005 0 0.04 0.005 0 0.041 0.005 0 0.042 0.005 0 0.043 0.005 0 0.044 0.005 0 0.045 0.005 0 0.046 0.005 0 0.047 0.005 0 0.048 0.005 0 0.049 0.005 0 0.05 0.005 0 0.051 0.005 0 0.052 0.005 0 0.053 0.005 0 0.054 0.005 0 0.055 0.005 0 0.056 0.005 0 0.057 0.005 0 0.058 0.005 0 0.059 0.005 0 0.06 0.005 0 0.061 0.005 0 0.062 0.005 0 0.063 0.005 0 0.064 0.005 0 0.065 0.005 0 0.066 0.005 0 0.067 0.005 0 0.068 0.005 0 0.069 0.005 0 0.07 0.005 0 0 0.006 0 0.001 0.006 0 0.002 0.006 0 0.003 0.006 0 0.004 0.006 0 0.005 0.006 0 0.006 0.006 0 0.007 0.006 0 0.008 0.006 0 0.009 0.006 0 0.01 0.006 0 0.011 0.006 0 0.012 0.006 0 0.013 0.006 0 0.014 0.006 0 0.015 0.006 0 0.016 0.006 0 0.017 0.006 0 0.018 0.006 0 0.019 0.006 0 0.02 0.006 0 0.021 0.006 0 0.022 0.006 0 0.023 0.006 0 0.024 0.006 0 0.025 0.006 0 0.026 0.006 0 0.027 0.006 0 0.028 0.006 0 0.029 0.006 0 0.03 0.006 0 0.031 0.006 0 0.032 0.006 0 0.033 0.006 0 0.034 0.006 0 0.035 0.006 0 0.036 0.006 0 0.037 0.006 0 0.038 0.006 0 0.039 0.006 0 0.04 0.006 0 0.041 0.006 0 0.042 0.006 0 0.043 0.006 0 0.044 0.006 0 0.045 0.006 0 0.046 0.006 0 0.047 0.006 0 0.048 0.006 0 0.049 0.006 0 0.05 0.006 0 0.051 0.006 0 0.052 0.006 0 0.053 0.006 0 0.054 0.006 0 0.055 0.006 0 0.056 0.006 0 0.057 0.006 0 0.058 0.006 0 0.059 0.006 0 0.06 0.006 0 0.061 0.006 0 0.062 0.006 0 0.063 0.006 0 0.064 0.006 0 0.065 0.006 0 0.066 0.006 0 0.067 0.006 0 0.068 0.006 0 0.069 0.006 0 0.07 0.006 0 0 0.007 0 0.001 0.007 0 0.002 0.007 0 0.003 0.007 0 0.004 0.007 0 0.005 0.007 0 0.006 0.007 0 0.007 0.007 0 0.008 0.007 0 0.009 0.007 0 0.01 0.007 0 0.011 0.007 0 0.012 0.007 0 0.013 0.007 0 0.014 0.007 0 0.015 0.007 0 0.016 0.007 0 0.017 0.007 0 0.018 0.007 0 0.019 0.007 0 0.02 0.007 0 0.021 0.007 0 0.022 0.007 0 0.023 0.007 0 0.024 0.007 0 0.025 0.007 0 0.026 0.007 0 0.027 0.007 0 0.028 0.007 0 0.029 0.007 0 0.03 0.007 0 0.031 0.007 0 0.032 0.007 0 0.033 0.007 0 0.034 0.007 0 0.035 0.007 0 0.036 0.007 0 0.037 0.007 0 0.038 0.007 0 0.039 0.007 0 0.04 0.007 0 0.041 0.007 0 0.042 0.007 0 0.043 0.007 0 0.044 0.007 0 0.045 0.007 0 0.046 0.007 0 0.047 0.007 0 0.048 0.007 0 0.049 0.007 0 0.05 0.007 0 0.051 0.007 0 0.052 0.007 0 0.053 0.007 0 0.054 0.007 0 0.055 0.007 0 0.056 0.007 0 0.057 0.007 0 0.058 0.007 0 0.059 0.007 0 0.06 0.007 0 0.061 0.007 0 0.062 0.007 0 0.063 0.007 0 0.064 0.007 0 0.065 0.007 0 0.066 0.007 0 0.067 0.007 0 0.068 0.007 0 0.069 0.007 0 0.07 0.007 0 0 0.008 0 0.001 0.008 0 0.002 0.008 0 0.003 0.008 0 0.004 0.008 0 0.005 0.008 0 0.006 0.008 0 0.007 0.008 0 0.008 0.008 0 0.009 0.008 0 0.01 0.008 0 0.011 0.008 0 0.012 0.008 0 0.013 0.008 0 0.014 0.008 0 0.015 0.008 0 0.016 0.008 0 0.017 0.008 0 0.018 0.008 0 0.019 0.008 0 0.02 0.008 0 0.021 0.008 0 0.022 0.008 0 0.023 0.008 0 0.024 0.008 0 0.025 0.008 0 0.026 0.008 0 0.027 0.008 0 0.028 0.008 0 0.029 0.008 0 0.03 0.008 0 0.031 0.008 0 0.032 0.008 0 0.033 0.008 0 0.034 0.008 0 0.035 0.008 0 0.036 0.008 0 0.037 0.008 0 0.038 0.008 0 0.039 0.008 0 0.04 0.008 0 0.041 0.008 0 0.042 0.008 0 0.043 0.008 0 0.044 0.008 0 0.045 0.008 0 0.046 0.008 0 0.047 0.008 0 0.048 0.008 0 0.049 0.008 0 0.05 0.008 0 0.051 0.008 0 0.052 0.008 0 0.053 0.008 0 0.054 0.008 0 0.055 0.008 0 0.056 0.008 0 0.057 0.008 0 0.058 0.008 0 0.059 0.008 0 0.06 0.008 0 0.061 0.008 0 0.062 0.008 0 0.063 0.008 0 0.064 0.008 0 0.065 0.008 0 0.066 0.008 0 0.067 0.008 0 0.068 0.008 0 0.069 0.008 0 0.07 0.008 0 0 0.009 0 0.001 0.009 0 0.002 0.009 0 0.003 0.009 0 0.004 0.009 0 0.005 0.009 0 0.006 0.009 0 0.007 0.009 0 0.008 0.009 0 0.009 0.009 0 0.01 0.009 0 0.011 0.009 0 0.012 0.009 0 0.013 0.009 0 0.014 0.009 0 0.015 0.009 0 0.016 0.009 0 0.017 0.009 0 0.018 0.009 0 0.019 0.009 0 0.02 0.009 0 0.021 0.009 0 0.022 0.009 0 0.023 0.009 0 0.024 0.009 0 0.025 0.009 0 0.026 0.009 0 0.027 0.009 0 0.028 0.009 0 0.029 0.009 0 0.03 0.009 0 0.031 0.009 0 0.032 0.009 0 0.033 0.009 0 0.034 0.009 0 0.035 0.009 0 0.036 0.009 0 0.037 0.009 0 0.038 0.009 0 0.039 0.009 0 0.04 0.009 0 0.041 0.009 0 0.042 0.009 0 0.043 0.009 0 0.044 0.009 0 0.045 0.009 0 0.046 0.009 0 0.047 0.009 0 0.048 0.009 0 0.049 0.009 0 0.05 0.009 0 0.051 0.009 0 0.052 0.009 0 0.053 0.009 0 0.054 0.009 0 0.055 0.009 0 0.056 0.009 0 0.057 0.009 0 0.058 0.009 0 0.059 0.009 0 0.06 0.009 0 0.061 0.009 0 0.062 0.009 0 0.063 0.009 0 0.064 0.009 0 0.065 0.009 0 0.066 0.009 0 0.067 0.009 0 0.068 0.009 0 0.069 0.009 0 0.07 0.009 0 0 0.01 0 0.001 0.01 0 0.002 0.01 0 0.003 0.01 0 0.004 0.01 0 0.005 0.01 0 0.006 0.01 0 0.007 0.01 0 0.008 0.01 0 0.009 0.01 0 0.01 0.01 0 0.011 0.01 0 0.012 0.01 0 0.013 0.01 0 0.014 0.01 0 0.015 0.01 0 0.016 0.01 0 0.017 0.01 0 0.018 0.01 0 0.019 0.01 0 0.02
[...]
			<CellData Scalars="Density">
				<DataArray Name="Density" type="Float32" format="ascii">
 0.300338 0.30122 0.302267 0.303254 0.304675 0.306302 0.308223 0.310543 0.313208 0.316271 0.31974 0.323613 0.327927 0.332726 0.338226 0.344911 0.353062 0.361627 0.373961 0.398014 0.442927 0.516299 0.630742 0.801306 1.04249 1.36263 1.74331 2.09005 2.3766 2.61657 2.79 2.85217 2.81083 2.64861 2.21117 1.54112 1.0957 1.01536 1.00305 1.00086 1.00035 1.00019 1.00011 1.00006 1.00003 1.00002 1.00001 1 1 1 1 1 1 1 1 1 1 1 1 1 1 1 1 1 1 1 1 1 1 1 0.299058 0.299895 0.300878 0.301917 0.303195 0.304652 0.306508 0.308716 0.311214 0.314138 0.317451 0.321165 0.325312 0.329952 0.335239 0.341781 0.349775 0.358552 0.371257 0.395708 0.443397 0.522444 0.643699 0.820706 1.06636 1.39039 1.77982 2.12853 2.41828 2.66206 2.85536 2.9478 2.91385 2.7623 2.32525 1.64962 1.13041 1.02633 1.0068 1.00244 1.00123 1.0007 1.00039 1.00021 1.00012 1.00007 1.00004 1.00002 1.00001 1.00001 1 1 1 1 1 1 1 1 1 1 1 1 1 1 1 1 1 1 1 1 0.298697 0.299501 0.300468 0.301561 0.30293 0.304511 0.306404 0.308614 0.311229 0.314232 0.317611 0.321344 0.325436 0.330007 0.335242 0.3418 0.349531 0.357939 0.370616 0.395301 0.442732 0.519966 0.639359 0.816592 1.06511 1.39354 1.78833 2.14585 2.4483 2.7015 2.90656 3.03423 3.01956 2.88926 2.48623 1.86025 1.2289 1.05658 1.01927 1.00903 1.00516 1.00291 1.00164 1.00093 1.00052 1.00029 1.00016 1.00009 1.00005 1.00002 1.00001 1.00001 1 1 1 1 1 1 1 1 1 1 1 1 1 1 1 1 1 1 0.298198 0.298968 0.299957 0.301021 0.302335 0.303793 0.305664 0.307811 0.310279 0.313191 0.316495 0.320186 0.324251 0.328684 0.333768 0.339899 0.347488 0.356034 0.368181 0.392972 0.440896 0.520404 0.645328 0.830599 1.08753 1.42331 1.82155 2.17234 2.47161 2.72343 2.94289 3.08148 3.07905 2.98898 2.68351 2.15457 1.42076 1.14342 1.06434 1.03652 1.0213 1.01225 1.00714 1.00408 1.00232 1.00131 1.00073 1.0004 1.00022 1.00012 1.00006 1.00003 1.00002 1.00001 1 1 1 1 1 1 1 1 1 1 1 1 1 1 1 1 0.297501 0.298267 0.299237 0.30035 0.301518 0.30307 0.304904 0.307036 0.309566 0.31246 0.31566 0.319128 0.32294 0.327136 0.331948 0.337913 0.345458 0.35369 0.36549 0.390347 0.439109 0.520638 0.648159 0.836771 1.09851 1.44064 1.83638 2.17265 2.46447 2.71519 2.93335 3.07616 3.12349 3.09373 2.87796 2.41371 1.7228 1.37487 1.22531 1.14359 1.08727 1.05223 1.03094 1.0177 1.01022 1.00582 1.00325 1.00182 1.001 1.00054 1.00029 1.00015 1.00008 1.00004 1.00002 1.00001 1 1 1 1 1 1 1 1 1 1 1 1 1 1 0.296657 0.297264 0.298325 0.299356 0.300652 0.302212 0.303914 0.305966 0.308456 0.311245 0.314305 0.317737 0.321446 0.32551 0.330241 0.335961 0.343194 0.35114 0.362792 0.388382 0.438703 0.52297 0.6564 0.854782 1.12629 1.47657 1.86213 2.17312 2.43907 2.67276 2.87756 3.03398 3.1178 3.10061 2.92892 2.49026 1.9222 1.63986 1.49767 1.40892 1.30605 1.20586 1.1263 1.07514 1.04454 1.0255 1.01441 1.00821 1.00454 1.00247 1.00134 1.00071 1.00037 1.00019 1.00009 1.00005 1.00002 1.00001 1 1 1 1 1 1 1 1 1 1 1 1 0.295567 0.296134 0.297255 0.298271 0.299596 0.300984 0.302729 0.304905 0.307306 0.309936 0.313014 0.316367 0.319926 0.323975 0.328465 0.333859 0.341176 0.348081 0.359666 0.386349 0.437957 0.525982 0.666219 0.872347 1.15288 1.51283 1.86371 2.14653 2.39922 2.62548 2.82348 2.99285 3.05209 2.98751 2.76881 2.35612 1.97044 1.79803 1.70676 1.65457 1.58071 1.49254 1.39026 1.28145 1.18112 1.1076 1.06319 1.03672 1.0203 1.01127 1.00622 1.00333 1.00177 1.00092 1.00046 1.00023 1.00011 1.00005 1.00002 1.00001 1 1 1 1 1 1 1 1 1 1 0.29442 0.294769 0.295932 0.29697 0.298195 0.299698 0.301597 0.303578 0.305802 0.308582 0.311587 0.314735 0.318354 0.322198 0.326417 0.331819 0.338712 0.344804 0.356296 0.382845 0.434958 0.526358 0.672544 0.88841 1.18096 1.53765 1.85686 2.12672 2.36323 2.56852 2.74748 2.89117 2.8868 2.74983 2.46558 2.11902 1.91434 1.82907 1.79402 1.78289 1.75373 1.70978 1.64677 1.5679 1.47249 1.36351 1.25022 1.15321 1.08823 1.0508 1.02837 1.01532 1.00835 1.00439 1.00225 1.00116 1.00057 1.00027 1.00012 1.00006 1.00002 1.00001 1 1 1 1 1 1 1 1 0.292872 0.293289 0.294387 0.295583 0.296769 0.298402 0.300041 0.30197 0.304481 0.307119 0.309871 0.313158 0.316594 0.320183 0.324408 0.329399 0.33599 0.341542 0.352065 0.378212 0.43078 0.523902 0.67464 0.898105 1.19501 1.54872 1.84956 2.09339 2.29538 2.46101 2.57589 2.62985 2.53984 2.34307 2.06034 1.8403 1.76996 1.76724 1.78092 1.79909 1.80238 1.79721 1.77654 1.74404 1.69467 1.62882 1.54499 1.4431 1.32729 1.21309 1.12356 1.06953 1.03905 1.02068 1.01083 1.00566 1.00281 1.00138 1.00066 1.00031 1.00013 1.00006 1.00002 1.00001 1 1 1 1 1 1 0.291322 0.291382 0.292836 0.293817 0.295097 0.296582 0.298337 0.300619 0.302887 0.305295 0.308313 0.31143 0.314606 0.318272 0.322113 0.326777 0.333347 0.33762 0.347869 0.373347 0.423725 0.51576 0.670158 0.899518 1.2064 1.55501 1.82789 2.03681 2.17681 2.25185 2.25597 2.2072 2.00634 1.76696 1.5652 1.46302 1.47264 1.53005 1.59765 1.66189 1.71322 1.7534 1.77526 1.78329 1.77836 1.7568 1.72038 1.6696 1.60023 1.51218 1.40371 1.28099 1.17042 1.09338 1.05085 1.02719 1.01376 1.00701 1.00347 1.00162 1.00072 1.00032 1.00014 1.00005 1.00002 1.00001 1 1 1 1 0.289211 0.289469 0.290768 0.291793 0.293316 0.294826 0.296815 0.298782 0.30093 0.303761 0.306584 0.309434 0.312784 0.316139 0.319726 0.324572 0.329964 0.33388 0.343461 0.366824 0.414891 0.504915 0.655775 0.885774 1.20474 1.5416 1.78119 1.93027 1.96914 1.94113 1.81381 1.60463 1.31661 1.10874 0.987229 0.951679 0.986916 1.06331 1.15544 1.25804 1.35965 1.45588 1.53902 1.60791 1.66494 1.70747 1.73115 1.73755 1.72099 1.68365 1.63143 1.55918 1.46544 1.34985 1.22581 1.12581 1.06639 1.03505 1.01742 1.00833 1.00386 1.00176 1.00077 1.0003 1.00012 1.00004 1.00001 1 1 1 0.287068 0.287122 0.288484 0.289816 0.291252 0.292843 0.294696 0.29671 0.299387 0.301938 0.304523 0.307702 0.310778 0.313908 0.317507 0.321961 0.326894 0.330249 0.338682 0.360213 0.404546 0.489077 0.634706 0.863832 1.18465 1.5077 1.70484 1.77176 1.73162 1.59288 1.31665 1.0037 0.761807 0.619727 0.551053 0.533765 0.550947 0.591384 0.648516 0.717684 0.794236 0.879631 0.973513 1.07857 1.18962 1.29891 1.40148 1.49692 1.57455 1.62884 1.65937 1.66096 1.6343 1.57988 1.50303 1.40071 1.27732 1.16267 1.08388 1.04168 1.02046 1.00971 1.00425 1.0017 1.00068 1.00023 1.00008 1.00002 1.00001 1 0.284632 0.284482 0.286176 0.287444 0.288812 0.290693 0.292588 0.295018 0.297359 0.29977 0.302852 0.305801 0.308645 0.311907 0.3151 0.319492 0.32397 0.326626 0.334235 0.352869 0.392512 0.47012 0.607192 0.828276 1.14616 1.44419 1.59099 1.58935 1.47944 1.23647 0.897636 0.619232 0.435682 0.347317 0.313278 0.303396 0.305821 0.317153 0.338108 0.367739 0.404669 0.446396 0.493266 0.546878 0.608152 0.679283 0.761131 0.85772 0.966083 1.0843 1.20493 1.31997 1.42565 1.50797 1.54956 1.54701 1.50333 1.42145 1.31037 1.19057 1.10336 1.05255 1.02333 1.00955 1.00385 1.00137 1.00045 1.00014 1.00004 1.00001 0.281776 0.28179 0.28347 0.284643 0.286491 0.288352 0.290457 0.292729 0.295036 0.298076 0.300934 0.303678 0.306901 0.309774 0.312876 0.317249 0.32079 0.323315 0.329785 0.345493 0.38008 0.448365 0.572554 0.779084 1.08046 1.34859 1.45062 1.40498 1.22885 0.943762 0.62446 0.406258 0.301853 0.274442 0.268743 0.269009 0.266229 0.263548 0.258846 0.251294 0.245854 0.248712 0.259673 0.275906 0.296539 0.321939 0.352312 0.388657 0.432012 0.484174 0.548655 0.627173 0.718917 0.822666 0.942797 1.07547 1.20194 1.31007 1.37334 1.37054 1.29678 1.18958 1.09932 1.04836 1.02148 1.00793 1.00265 1.00081 1.00022 1.00009 0.27884 0.278796 0.280464 0.281976 0.283875 0.285733 0.288061 0.290324 0.29328 0.296021 0.298727 0.301986 0.304995 0.307809 0.310933 0.314737 0.318595 0.320578 0.325686 0.338704 0.36692 0.424085 0.53263 0.716935 0.989218 1.2279 1.29421 1.2395 1.06404 0.793535 0.529545 0.369651 0.302247 0.299538 0.309857 0.316037 0.308845 0.293317 0.281891 0.269543 0.25168 0.229513 0.212892 0.204426 0.201794 0.203508 0.207755 0.213858 0.221971 0.232301 0.245285 0.261625 0.282375 0.30917 0.344606 0.391571 0.449511 0.519418 0.60341 0.705453 0.832496 0.944681 1.0114 1.02881 1.0209 1.0144 1.00643 1.00215 1.00068 1.00028 0.275682 0.275563 0.277414 0.279182 0.280887 0.283192 0.285491 0.288302 0.291039 0.293662 0.296958 0.300146 0.302999 0.306183 0.308939 0.312454 0.316651 0.31815 0.322092 0.331915 0.353618 0.399662 0.48866 0.643541 0.877776 1.09682 1.1672 1.12868 0.980546 0.752703 0.531358 0.397395 0.359322 0.37917 0.399145 0.393592 0.356425 0.32668 0.307969 0.292745 0.272681 0.245582 0.219209 0.204032 0.195653 0.191557 0.189793 0.189289 0.189542 0.190114 0.1907 0.191172 0.191565 0.191918 0.192221 0.192498 0.191824 0.190262 0.189442 0.188932 0.187294 0.182052 0.172089 0.155198 0.133406 0.115556 0.105079 0.101521 0.100464 0.100161 0.272273 0.272299 0.274335 0.275928 0.277966 0.280447 0.283092 0.2859 0.288486 0.291846 0.295041 0.298123 0.301529 0.30441 0.307335 0.310666 0.314561 0.316414 0.319095 0.326007 0.341457 0.375673 0.443686 0.565592 0.752154 0.959369 1.04835 1.03426 0.936865 0.765422 0.591945 0.509503 0.492605 0.494273 0.477303 0.429282 0.371501 0.335325 0.315876 0.30179 0.28254 0.254623 0.224773 0.206536 0.196592 0.191768 0.189792 0.189388 0.189668 0.190301 0.190934 0.191581 0.192187 0.192648 0.192811 0.192751 0.192388 0.191761 0.19078 0.189363 0.186719 0.182722 0.175354 0.162284 0.143858 0.122967 0.108006 0.102434 0.100725 0.100233 0.268866 0.26891 0.270965 0.272622 0.275147 0.277692 0.280538 0.283172 0.286513 0.28984 0.29294 0.296464 0.299944 0.302911 0.305893 0.308885 0.312846 0.315144 0.316854 0.321809 0.332475 0.355604 0.402929 0.489541 0.627359 0.806695 0.921011 0.938343 0.889805 0.801054 0.704393 0.642243 0.594964 0.551549 0.4864 0.405751 0.355001 0.327542 0.315006 0.304937 0.287246 0.25957 0.227927 0.208114 0.197202 0.191771 0.189468 0.188929 0.189151 0.189683 0.190317 0.190947 0.191437 0.191765 0.191848 0.191756 0.191391 0.190803 0.189824 0.188093 0.18483 0.180579 0.174518 0.165232 0.150994 0.131322 0.112274 0.103711 0.101084 0.100342 0.265459 0.265584 0.267563 0.269839 0.272226 0.274974 0.27777 0.281077 0.28448 0.287688 0.291295 0.294923 0.298308 0.301849 0.304679 0.307625 0.311165 0.314119 0.315722 0.318898 0.325926 0.339922 0.367472 0.419006 0.506671 0.635054 0.761765 0.816773 0.806305 0.775222 0.719701 0.656513 0.587187 0.500717 0.412554 0.361337 0.332689 0.31842 0.312393 0.303673 0.286511 0.259689 0.22849 0.208526 0.197294 0.191644 0.189216 0.188577 0.188806 0.189344 0.18997 0.190506 0.190937 0.191237 0.191255 0.191175 0.190815 0.190109 0.188946 0.18741 0.185317 0.182409 0.177498 0.169503 0.156749 0.138211 0.116938 0.105204 0.101511 0.100462 0.262228 0.26236 0.264691 0.266801 0.269357 0.272285 0.275519 0.27904 0.282316 0.285991 0.289797 0.29335 0.29702 0.300602 0.303731 0.306587 0.309832 0.313533 0.316243 0.318785 0.323108 0.331437 0.346614 0.373 0.41569 0.475788 0.556203 0.628212 0.643817 0.634278 0.598513 0.537004 0.456708 0.388291 0.351392 0.330464 0.319571 0.315514 0.312793 0.303488 0.285395 0.258389 0.227564 0.208038 0.196957 0.19137 0.188997 0.188335 0.188539 0.189029 0.189593 0.190097 0.190493 0.190713 0.19072 0.190566 0.190122 0.189381 0.188251 0.18666 0.184584 0.181806 0.177572 0.170963 0.160309 0.143343 0.122104 0.106938 0.101963 0.100577 0.259242 0.259493 0.261739 0.263972 0.266845 0.269987 0.273497 0.27683 0.280573 0.284533 0.288201 0.292024 0.295765 0.29942 0.303277 0.306889 0.310762 0.31468 0.318041 0.320633 0.323649 0.327983 0.335365 0.347336 0.365953 0.38954 0.418899 0.441737 0.448898 0.445626 0.426911 0.394956 0.358015 0.336583 0.325403 0.319828 0.317566 0.316945 0.31277 0.301558 0.282505 0.25568 0.225964 0.207333 0.19655 0.191094 0.188787 0.188124 0.188287 0.188747 0.189274 0.18974 0.190118 0.190245 0.190275 0.190073 0.189571 0.18877 0.187781 0.186537 0.184791 0.18254 0.179251 0.173536 0.164158 0.14787 0.126705 0.108591 0.102393 0.100688 0.25651 0.256823 0.259038 0.261531 0.264532 0.267968 0.271261 0.275019 0.279077 0.28286 0.286749 0.290948 0.295172 0.299654 0.304324 0.308776 0.312949 0.316977 0.320705 0.323802 0.326597 0.329551 0.332993 0.337592 0.344726 0.352417 0.361572 0.365052 0.364957 0.363811 0.355349 0.343004 0.329858 0.323591 0.321057 0.320187 0.320298 0.31849 0.311676 0.298701 0.278996 0.252176 0.223575 0.206034 0.195952 0.190791 0.188583 0.187935 0.188078 0.188504 0.18901 0.189412 0.189779 0.189859 0.18985 0.189603 0.189108 0.188321 0.187265 0.185982 0.184371 0.182333 0.179356 0.174334 0.166312 0.151347 0.130941 0.110515 0.10287 0.100808 0.254232 0.254505 0.256763 0.25947 0.262624 0.265839 0.269565 0.273567 0.277463 0.281614 0.286313 0.291358 0.296579 0.301635 0.306502 0.311267 0.315777 0.319838 0.32393 0.327548 0.330588 0.333105 0.335499 0.337523 0.340015 0.341699 0.343594 0.343643 0.342316 0.340674 0.337224 0.333336 0.328064 0.326169 0.325274 0.324281 0.322565 0.318564 0.310589 0.296725 0.27602 0.248669 0.221446 0.20498 0.195334 0.190453 0.188387 0.187786 0.187922 0.188312 0.188784 0.189161 0.189475 0.189541 0.189497 0.189228 0.188726 0.188029 0.187115 0.185957 0.184559 0.182837 0.180398 0.176134 0.168806 0.154636 0.134666 0.112485 0.10335 0.100919 0.252275 0.252588 0.25495 0.25768 0.260602 0.264198 0.268033 0.271969 0.276488 0.28149 0.28681 0.29244 0.29818 0.303712 0.308985 0.313986 0.318877 0.3234 0.327368 0.331144 0.33443 0.337255 0.339308 0.340847 0.342122 0.342254 0.34229 0.342147 0.341112 0.339088 0.337176 0.335684 0.332572 0.330767 0.329515 0.327661 0.324653 0.319124 0.309341 0.294129 0.272505 0.244756 0.219163 0.203885 0.194889 0.190229 0.188243 0.187684 0.187821 0.188181 0.188603 0.18896 0.189191 0.189243 0.189181 0.188909 0.188395 0.187661 0.186761 0.185703 0.184433 0.182806 0.180444 0.176592 0.169978 0.157067 0.13773 0.114469 0.103821 0.101028 0.250787 0.251098 0.253362 0.255965 0.259261 0.262967 0.266885 0.271769 0.277457 0.283356 0.2892 0.294958 0.300483 0.305869 0.311336 0.316726 0.321767 0.326585 0.331087 0.334681 0.337946 0.340805 0.343004 0.344523 0.345684 0.345735 0.345305 0.345239 0.344142 0.342163 0.340636 0.339688 0.336978 0.334903 0.332902 0.329847 0.325485 0.318857 0.308071 0.291741 0.269073 0.240845 0.217331 0.20284 0.194425 0.190073 0.188183 0.18762 0.187729 0.188077 0.188477 0.18882 0.188989 0.188999 0.188895 0.188594 0.188132 0.187513 0.186715 0.185692 0.184428 0.182965 0.181 0.17771 0.171443 0.159264 0.140172 0.116303 0.104269 0.10112 0.249571 0.249813 0.252005 0.254732 0.258045 0.261873 0.266375 0.271467 0.276983 0.282814 0.288984 0.29541 0.3019 0.308222 0.31404 0.319372 0.324645 0.329427 0.333912 0.337957 0.341145 0.34382 0.345904 0.347677 0.348737 0.349127 0.348673 0.348471 0.347245 0.345486 0.343857 0.34286 0.340261 0.337902 0.335556 0.331778 0.326419 0.318406 0.306419 0.289203 0.265946 0.237464 0.215526 0.202002 0.194056 0.18994 0.188182 0.187661 0.187743 0.188079 0.188446 0.188742 0.188862 0.188851 0.18869 0.188314 0.187761 0.187065 0.186266 0.185365 0.184294 0.182996 0.181029 0.177963 0.172092 0.160963 0.142364 0.118089 0.104669 0.101202 0.248857 0.248945 0.251173 0.254048 0.257898 0.262773 0.268003 0.273339 0.278796 0.284442 0.290546 0.297114 0.30389 0.310593 0.316733 0.321968 0.326992 0.33193 0.336353 0.340313 0.343751 0.346341 0.348169 0.349948 0.351198 0.351802 0.351416 0.350974 0.349678 0.348 0.346184 0.344906 0.342351 0.339991 0.337324 0.333072 0.326989 0.318153 0.305175 0.286905 0.262901 0.234796 0.214163 0.201265 0.193783 0.189867 0.188147 0.187648 0.187738 0.188049 0.188354 0.188622 0.188742 0.188759 0.188654 0.188357 0.187898 0.187285 0.186512 0.185577 0.184393 0.183069 0.181241 0.178763 0.173283 0.162659 0.144 0.119384 0.104962 0.101251 0.248318 0.248351 0.250406 0.253347 0.257016 0.261242 0.265977 0.271352 0.277329 0.283814 0.290734 0.297788 0.304679 0.311368 0.31777 0.323753 0.329124 0.333984 0.338396 0.342155 0.345562 0.348265 0.35002 0.351409 0.352886 0.35365 0.353403 0.3528 0.351556 0.34995 0.348066 0.346357 0.343749 0.341463 0.338734 0.334081 0.327244 0.317597 0.303946 0.285167 0.26054 0.232511 0.213075 0.200741 0.193572 0.189881 0.188259 0.187753 0.187781 0.18805 0.188332 0.188571 0.188651 0.188653 0.188528 0.188198 0.187694 0.187044 0.186264 0.185378 0.184311 0.183236 0.181456 0.179 0.173435 0.163241 0.144983 0.120452 0.1052 0.101288 0.247972 0.248174 0.250719 0.254093 0.258096 0.262737 0.26809 0.274087 0.280498 0.287203 0.294108 0.301047 0.307895 0.314489 0.320715 0.326529 0.331738 0.336526 0.340759 0.344438 0.347535 0.349977 0.351561 0.352848 0.354178 0.354645 0.354489 0.353921 0.352805 0.351263 0.349384 0.347356 0.344689 0.342274 0.339436 0.334483 0.32715 0.316852 0.302461 0.283227 0.258556 0.231092 0.212355 0.200475 0.193499 0.189853 0.188258 0.187786 0.187842 0.18813 0.18839 0.188573 0.188599 0.188546 0.188342 0.187971 0.187478 0.186856 0.186101 0.185217 0.184149 0.183065 0.181313 0.17909 0.173916 0.164322 0.146164 0.121213 0.105294 0.101297 0.246215 0.246275 0.248381 0.251423 0.25506 0.259374 0.264323 0.269944 0.276082 0.282595 0.289359 0.29623 0.303086 0.309735 0.316102 0.322102 0.327562 0.332506 0.337024 0.340893 0.344099 0.346707 0.348571 0.350027 0.351594 0.352615 0.352616 0.352255 0.351383 0.350166 0.348648 0.346787 0.34446 0.342248 0.339562 0.334689 0.327091 0.31657 0.30208 0.282651 0.257865 0.230646 0.212126 0.200319 0.193445 0.189852 0.188264 0.187799 0.187859 0.188125 0.188377 0.188603 0.188696 0.188708 0.188603 0.188317 0.187844 0.187179 0.186347 0.185388 0.184338 0.183246 0.181594 0.179484 0.174376 0.164759 0.14637 0.121302 0.105316 0.1013
				</DataArray>
				<DataArray Name="Energy" type="Float32" format="ascii">