<?xml version="1.0"?>
<VTKFile type="PolyData">
	<PolyData>
		<Piece NumberOfPoints="2201" NumberOfPolys="2100">
			<Points>
				<DataArray type="Float32" NumberOfComponents="3" format="ascii">
 0 0 0 0.001 0 0 0.002 0 0 0.003 0 0 0.004 0 0 0.005 0 0 0.006 0 0 0.007 0 0 0.008 0 0 0.009 0 0 0.01 0 0 0.011 0 0 0.012 0 0 0.013 0 0 0.014 0 0 0.015 0 0 0.016 0 0 0.017 0 0 0.018 0 0 0.019 0 0 0.02 0 0 0.021 0 0 0.022 0 0 0.023 0 0 0.024 0 0 0.025 0 0 0.026 0 0 0.027 0 0 0.028 0 0 0.029 0 0 0.03 0 0 0.031 0 0 0.032 0 0 0.033 0 0 0.034 0 0 0.035 0 0 0.036 0 0 0.037 0 0 0.038 0 0 0.039 0 0 0.04 0 0 0.041 0 0 0.042 0 0 0.043 0 0 0.044 0 0 0.045 0 0 0.046 0 0 0.047 0 0 0.048 0 0 0.049 0 0 0.05 0 0 0.051 0 0 0.052 0 0 0.053 0 0 0.054 0 0 0.055 0 0 0.056 0 0 0.057 0 0 0.058 0 0 0.059 0 0 0.06 0 0 0.061 0 0 0.062 0 0 0.063 0 0 0.064 0 0 0.065 0 0 0.066 0 0 0.067 0 0 0.068 0 0 0.069 0 0 0.07 0 0 0 0.001 0 0.001 0.001 0 0.002 0.001 0 0.003 0.001 0 0.004 0.001 0 0.005 0.001 0 0.006 0.001 0 0.007 0.001 0 0.008 0.001 0 0.009 0.001 0 0.01 0.001 0 0.011 0.001 0 0.012 0.001 0 0.013 0.001 0 0.014 0.001 0 0.015 0.001 0 0.016 0.001 0 0.017 0.001 0 0.018 0.001 0 0.019 0.001 0 0.02 0.001 0 0.021 0.001 0 0.022 0.001 0 0.023 0.001 0 0.024 0.001 0 0.025 0.001 0 0.026 0.001 0 0.027 0.001 0 0.028 0.001 0 0.029 0.001 0 0.03 0.001 0 0.031 0.001 0 0.032 0.001 0 0.033 0.001 0 0.034 0.001 0 0.035 0.001 0 0.036 0.001 0 0.037 0.001 0 0.038 0.001 0 0.039 0.001 0 0.04 0.001 0 0.041 0.001 0 0.042 0.001 0 0.043 0.001 0 0.044 0.001 0 0.045 0.001 0 0.046 0.001 0 0.047 0.001 0 0.048 0.001 0 0.049 0.001 0 0.05 0.001 0 0.051 0.001 0 0.052 0.001 0 0.053 0.001 0 0.054 0.001 0 0.055 0.001 0 0.056 0.001 0 0.057 0.001 0 0.058 0.001 0 0.059 0.001 0 0.06 0.001 0 0.061 0.001 0 0.062 0.001 0 0.063 0.001 0 0.064 0.001 0 0.065 0.001 0 0.066 0.001 0 0.067 0.001 0 0.068 0.001 0 0.069 0.001 0 0.07 0.001 0 0 0.002 0 0.001 0.002 0 0.002 0.002 0 0.003 0.002 0 0.004 0.002 0 0.005 0.002 0 0.006 0.002 0 0.007 0.002 0 0.008 0.002 0 0.009 0.002 0 0.01 0.002 0 0.011 0.002 0 0.012 0.002 0 0.013 0.002 0 0.014 0.002 0 0.015 0.002 0 0.016 0.002 0 0.017 0.002 0 0.018 0.002 0 0.019 0.002 0 0.02 0.002 0 0.021 0.002 0 0.022 0.002 0 0.023 0.002 0 0.024 0.002 0 0.025 0.002 0 0.026 0.002 0 0.027 0.002 0 0.028 0.002 0 0.029 0.002 0 0.03 0.002 0 0.031 0.002 0 0.032 0.002 0 0.033 0.002 0 0.034 0.002 0 0.035 0.002 0 0.036 0.002 0 0.037 0.002 0 0.038 0.002 0 0.039 0.002 0 0.04 0.002 0 0.041 0.002 0 0.042 0.002 0 0.043 0.002 0 0.044 0.002 0 0.045 0.002 0 0.046 0.002 0 0.047 0.002 0 0.048 0.002 0 0.049 0.002 0 0.05 0.002 0 0.051 0.002 0 0.052 0.002 0 0.053 0.002 0 0.054 0.002 0 0.055 0.002 0 0.056 0.002 0 0.057 0.002 0 0.058 0.002 0 0.059 0.002 0 0.06 0.002 0 0.061 0.002 0 0.062 0.002 0 0.063 0.002 0 0.064 0.002 0 0.065 0.002 0 0.066 0.002 0 0.067 0.002 0 0.068 0.002 0 0.069 0.002 0 0.07 0.002 0 0 0.003 0 0.001 0.003 0 0.002 0.003 0 0.003 0.003 0 0.004 0.003 0 0.005 0.003 0 0.006 0.003 0 0.007 0.003 0 0.008 0.003 0 0.009 0.003 0 0.01 0.003 0 0.011 0.003 0 0.012 0.003 0 0.013 0.003 0 0.014 0.003 0 0.015 0.003 0 0.016 0.003 0 0.017 0.003 0 0.018 0.003 0 0.019 0.003 0 0.02 0.003 0 0.021 0.003 0 0.022 0.003 0 0.023 0.003 0 0.024 0.003 0 0.025 0.003 0 0.026 0.003 0 0.027 0.003 0 0.028 0.003 0 0.029 0.003 0 0.03 0.003 0 0.031 0.003 0 0.032 0.003 0 0.033 0.003 0 0.034 0.003 0 0.035 0.003 0 0.036 0.003 0 0.037 0.003 0 0.038 0.003 0 0.039 0.003 0 0.04 0.003 0 0.041 0.003 0 0.042 0.003 0 0.043 0.003 0 0.044 0.003 0 0.045 0.003 0 0.046 0.003 0 0.047 0.003 0 0.048 0.003 0 0.049 0.003 0 0.05 0.003 0 0.051 0.003 0 0.052 0.003 0 0.053 0.003 0 0.054 0.003 0 0.055 0.003 0 0.056 0.003 0 0.057 0.003 0 0.058 0.003 0 0.059 0.003 0 0.06 0.003 0 0.061 0.003 0 0.062 0.003 0 0.063 0.003 0 0.064 0.003 0 0.065 0.003 0 0.066 0.003 0 0.067 0.003 0 0.068 0.003 0 0.069 0.003 0 0.07 0.003 0 0 0.004 0 0.001 0.004 0 0.002 0.004 0 0.003 0.004 0 0.004 0.004 0 0.005 0.004 0 0.006 0.004 0 0.007 0.004 0 0.008 0.004 0 0.009 0.004 0 0.01 0.004 0 0.011 0.004 0 0.012 0.004 0 0.013 0.004 0 0.014 0.004 0 0.015 0.004 0 0.016 0.004 0 0.017 0.004 0 0.018 0.004 0 0.019 0.004 0 0.02 0.004 0 0.021 0.004 0 0.022 0.004 0 0.023 0.004 0 0.024 0.004 0 0.025 0.004 0 0.026 0.004 0 0.027 0.004 0 0.028 0.004 0 0.029 0.004 0 0.03 0.004 0 0.031 0.004 0 0.032 0.004 0 0.033 0.004 0 0.034 0.004 0 0.035 0.004 0 0.036 0.004 0 0.037 0.004 0 0.038 0.004 0 0.039 0.004 0 0.04 0.004 0 0.041 0.004 0 0.042 0.004 0 0.043 0.004 0 0.044 0.004 0 0.045 0.004 0 0.046 0.004 0 0.047 0.004 0 0.048 0.004 0 0.049 0.004 0 0.05 0.004 0 0.051 0.004 0 0.052 0.004 0 0.053 0.004 0 0.054 0.004 0 0.055 0.004 0 0.056 0.004 0 0.057 0.004 0 0.058 0.004 0 0.059 0.004 0 0.06 0.004 0 0.061 0.004 0 0.062 0.004 0 0.063 0.004 0 0.064 0.004 0 0.065 0.004 0 0.066 0.004 0 0.067 0.004 0 0.068 0.004 0 0.069 0.004 0 0.07 0.004 0 0 0.005 0 0.001 0.005 0 0.002 0.005 0 0.003 0.005 0 0.004 0.005 0 0.005 0.005 0 0.006 0.005 0 0.007 0.005 0 0.008 0.005 0 0.009 0.005 0 0.01 0.005 0 0.011 0.005 0 0.012 0.005 0 0.013 0.005 0 0.014 0.005 0 0.015 0.005 0 0.016 0.005 0 0.017 0.005 0 0.018 0.005 0 0.019 0.005 0 0.02 0.005 0 0.021 0.005 0 0.022 0.005 0 0.023 0.005 0 0.024 0.005 0 0.025 0.005 0 0.026 0.005 0 0.027 0.005 0 0.028 0.005 0 0.029 0.005 0 0.03 0.005 0 0.031 0.005 0 0.032 0.005 0 0.033 0.005 0 0.034 0.005 0 0.035 0.005 0 0.036 0.005 0 0.037 0.005 0 0.038 0.005 0 0.039 0.005 0 0.04 0.005 0 0.041 0.005 0 0.042 0.005 0 0.043 0.005 0 0.044 0.005 0 0.045 0.005 0 0.046 0.005 0 0.047 0.005 0 0.048 0.005 0 0.049 0.005 0 0.05 0.005 0 0.051 0.005 0 0.052 0.005 0 0.053 0.005 0 0.054 0.005 0 0.055 0.005 0 0.056 0.005 0 0.057 0.005 0 0.058 0.005 0 0.059 0.005 0 0.06 0.005 0 0.061 0.005 0 0.062 0.005 0 0.063 0.005 0 0.064 0.005 0 0.065 0.005 0 0.066 0.005 0 0.067 0.005 0 0.068 0.005 0 0.069 0.005 0 0.07 0.005 0 0 0.006 0 0.001 0.006 0 0.002 0.006 0 0.003 0.006 0 0.004 0.006 0 0.005 0.006 0 0.006 0.006 0 0.007 0.006 0 0.008 0.006 0 0.009 0.006 0 0.01 0.006 0 0.011 0.006 0 0.012 0.006 0 0.013 0.006 0 0.014 0.006 0 0.015 0.006 0 0.016 0.006 0 0.017 0.006 0 0.018 0.006 0 0.019 0.006 0 0.02 0.006 0 0.021 0.006 0 0.022 0.006 0 0.023 0.006 0 0.024 0.006 0 0.025 0.006 0 0.026 0.006 0 0.027 0.006 0 0.028 0.006 0 0.029 0.006 0 0.03 0.006 0 0.031 0.006 0 0.032 0.006 0 0.033 0.006 0 0.034 0.006 0 0.035 0.006 0 0.036 0.006 0 0.037 0.006 0 0.038 0.006 0 0.039 0.006 0 0.04 0.006 0 0.041 0.006 0 0.042 0.006 0 0.043 0.006 0 0.044 0.006 0 0.045 0.006 0 0.046 0.006 0 0.047 0.006 0 0.048 0.006 0 0.049 0.006 0 0.05 0.006 0 0.051 0.006 0 0.052 0.006 0 0.053 0.006 0 0.054 0.006 0 0.055 0.006 0 0.056 0.006 0 0.057 0.006 0 0.058 0.006 0 0.059 0.006 0 0.06 0.006 0 0.061 0.006 0 0.062 0.006 0 0.063 0.006 0 0.064 0.006 0 0.065 0.006 0 0.066 0.006 0 0.067 0.006 0 0.068 0.006 0 0.069 0.006 0 0.07 0.006 0 0 0.007 0 0.001 0.007 0 0.002 0.007 0 0.003 0.007 0 0.004 0.007 0 0.005 0.007 0 0.006 0.007 0 0.007 0.007 0 0.008 0.007 0 0.009 0.007 0 0.01 0.007 0 0.011 0.007 0 0.012 0.007 0 0.013 0.007 0 0.014 0.007 0 0.015 0.007 0 0.016 0.007 0 0.017 0.007 0 0.018 0.007 0 0.019 0.007 0 0.02 0.007 0 0.021 0.007 0 0.022 0.007 0 0.023 0.007 0 0.024 0.007 0 0.025 0.007 0 0.026 0.007 0 0.027 0.007 0 0.028 0.007 0 0.029 0.007 0 0.03 0.007 0 0.031 0.007 0 0.032 0.007 0 0.033 0.007 0 0.034 0.007 0 0.035 0.007 0 0.036 0.007 0 0.037 0.007 0 0.038 0.007 0 0.039 0.007 0 0.04 0.007 0 0.041 0.007 0 0.042 0.007 0 0.043 0.007 0 0.044 0.007 0 0.045 0.007 0 0.046 0.007 0 0.047 0.007 0 0.048 0.007 0 0.049 0.007 0 0.05 0.007 0 0.051 0.007 0 0.052 0.007 0 0.053 0.007 0 0.054 0.007 0 0.055 0.007 0 0.056 0.007 0 0.057 0.007 0 0.058 0.007 0 0.059 0.007 0 0.06 0.007 0 0.061 0.007 0 0.062 0.007 0 0.063 0.007 0 0.064 0.007 0 0.065 0.007 0 0.066 0.007 0 0.067 0.007 0 0.068 0.007 0 0.069 0.007 0 0.07 0.007 0 0 0.008 0 0.001 0.008 0 0.002 0.008 0 0.003 0.008 0 0.004 0.008 0 0.005 0.008 0 0.006 0.008 0 0.007 0.008 0 0.008 0.008 0 0.009 0.008 0 0.01 0.008 0 0.011 0.008 0 0.012 0.008 0 0.013 0.008 0 0.014 0.008 0 0.015 0.008 0 0.016 0.008 0 0.017 0.008 0 0.018 0.008 0 0.019 0.008 0 0.02 0.008 0 0.021 0.008 0 0.022 0.008 0 0.023 0.008 0 0.024 0.008 0 0.025 0.008 0 0.026 0.008 0 0.027 0.008 0 0.028 0.008 0 0.029 0.008 0 0.03 0.008 0 0.031 0.008 0 0.032 0.008 0 0.033 0.008 0 0.034 0.008 0 0.035 0.008 0 0.036 0.008 0 0.037 0.008 0 0.038 0.008 0 0.039 0.008 0 0.04 0.008 0 0.041 0.008 0 0.042 0.008 0 0.043 0.008 0 0.044 0.008 0 0.045 0.008 0 0.046 0.008 0 0.047 0.008 0 0.048 0.008 0 0.049 0.008 0 0.05 0.008 0 0.051 0.008 0 0.052 0.008 0 0.053 0.008 0 0.054 0.008 0 0.055 0.008 0 0.056 0.008 0 0.057 0.008 0 0.058 0.008 0 0.059 0.008 0 0.06 0.008 0 0.061 0.008 0 0.062 0.008 0 0.063 0.008 0 0.064 0.008 0 0.065 0.008 0 0.066 0.008 0 0.067 0.008 0 0.068 0.008 0 0.069 0.008 0 0.07 0.008 0 0 0.009 0 0.001 0.009 0 0.002 0.009 0 0.003 0.009 0 0.004 0.009 0 0.005 0.009 0 0.006 0.009 0 0.007 0.009 0 0.008 0.009 0 0.009 0.009 0 0.01 0.009 0 0.011 0.009 0 0.012 0.009 0 0.013 0.009 0 0.014 0.009 0 0.015 0.009 0 0.016 0.009 0 0.017 0.009 0 0.018 0.009 0 0.019 0.009 0 0.02 0.009 0 0.021 0.009 0 0.022 0.009 0 0.023 0.009 0 0.024 0.009 0 0.025 0.009 0 0.026 0.009 0 0.027 0.009 0 0.028 0.009 0 0.029 0.009 0 0.03 0.009 0 0.031 0.009 0 0.032 0.009 0 0.033 0.009 0 0.034 0.009 0 0.035 0.009 0 0.036 0.009 0 0.037 0.009 0 0.038 0.009 0 0.039 0.009 0 0.04 0.009 0 0.041 0.009 0 0.042 0.009 0 0.043 0.009 0 0.044 0.009 0 0.045 0.009 0 0.046 0.009 0 0.047 0.009 0 0.048 0.009 0 0.049 0.009 0 0.05 0.009 0 0.051 0.009 0 0.052 0.009 0 0.053 0.009 0 0.054 0.009 0 0.055 0.009 0 0.056 0.009 0 0.057 0.009 0 0.058 0.009 0 0.059 0.009 0 0.06 0.009 0 0.061 0.009 0 0.062 0.009 0 0.063 0.009 0 0.064 0.009 0 0.065 0.009 0 0.066 0.009 0 0.067 0.009 0 0.068 0.009 0 0.069 0.009 0 0.07 0.009 0 0 0.01 0 0.001 0.01 0 0.002 0.01 0 0.003 0.01 0 0.004 0.01 0 0.005 0.01 0 0.006 0.01 0 0.007 0.01 0 0.008 0.01 0 0.009 0.01 0 0.01 0.01 0 0.011 0.01 0 0.012 0.01 0 0.013 0.01 0 0.014 0.01 0 0.015 0.01 0 0.016 0.01 0 0.017 0.01 0 0.018 0.01 0 0.019 0.01 0 0.02
[...]
			<CellData Scalars="Density">
				<DataArray Name="Density" type="Float32" format="ascii">
 0.250245 0.250804 0.250944 0.250881 0.250704 0.250454 0.250156 0.249876 0.249667 0.249581 0.249627 0.249838 0.250234 0.250863 0.251857 0.253461 0.256067 0.259511 0.26306 0.269919 0.28398 0.309755 0.349878 0.408093 0.488267 0.596311 0.7376 0.916421 1.13371 1.39005 1.65007 1.88676 2.11578 2.33435 2.55636 2.78098 3.00933 3.23895 3.46349 3.66593 3.74713 3.67258 3.41267 2.77838 1.81464 1.3097 1.15939 1.09233 1.05805 1.0351 1.02077 1.01241 1.0074 1.00436 1.00255 1.00149 1.00086 1.00049 1.00028 1.00016 1.00009 1.00005 1.00003 1.00001 1.00001 1 1 1 1 1 0.249173 0.249691 0.249843 0.249798 0.249654 0.249421 0.249144 0.248864 0.248651 0.248544 0.248581 0.248764 0.249091 0.249647 0.250516 0.251959 0.254399 0.257743 0.261256 0.268243 0.282714 0.310215 0.353666 0.416852 0.503814 0.619275 0.767019 0.950476 1.17096 1.42378 1.66042 1.88168 2.09223 2.30625 2.5161 2.71329 2.91966 3.11721 3.3153 3.51514 3.58038 3.49662 3.27939 2.79332 2.0161 1.55412 1.36938 1.26189 1.17716 1.10994 1.06733 1.0412 1.0246 1.01446 1.00857 1.00503 1.0029 1.00169 1.00097 1.00054 1.00031 1.00017 1.00009 1.00005 1.00003 1.00002 1.00001 1 1 1 0.249008 0.249541 0.249665 0.249623 0.24945 0.249211 0.248906 0.248594 0.248387 0.248306 0.248304 0.248407 0.248737 0.249237 0.25011 0.251578 0.253934 0.257182 0.26049 0.267333 0.281855 0.308833 0.351678 0.414412 0.50064 0.61451 0.759942 0.939788 1.15605 1.40286 1.62872 1.83883 2.04298 2.23987 2.42494 2.6084 2.80095 2.98804 3.17064 3.35571 3.39469 3.32387 3.08867 2.62938 2.04967 1.74269 1.59652 1.50944 1.42643 1.33174 1.23752 1.15466 1.09497 1.05756 1.03496 1.0205 1.01197 1.00706 1.00405 1.00231 1.00134 1.00074 1.00042 1.00023 1.00013 1.00007 1.00004 1.00002 1.00001 1.00001 0.248811 0.249337 0.249468 0.2494 0.24923 0.248987 0.248684 0.248379 0.248204 0.248112 0.248106 0.248226 0.248449 0.248942 0.249767 0.251033 0.253362 0.256466 0.259494 0.266403 0.281002 0.30783 0.35073 0.413284 0.50024 0.615759 0.763231 0.94486 1.1628 1.39573 1.59955 1.7946 1.97412 2.14265 2.31411 2.48579 2.66717 2.85104 3.01512 3.18955 3.18348 3.09521 2.83769 2.41748 2.01268 1.83136 1.74938 1.69869 1.64641 1.57772 1.49777 1.40689 1.30964 1.21431 1.1357 1.08187 1.04942 1.02945 1.01693 1.00992 1.00574 1.0032 1.00184 1.00103 1.00057 1.00032 1.00018 1.0001 1.00006 1.00003 0.248557 0.249083 0.249212 0.249138 0.248969 0.248734 0.248438 0.248128 0.247967 0.247882 0.247865 0.247946 0.248212 0.248691 0.249319 0.250611 0.252743 0.255654 0.258659 0.26501 0.279318 0.306163 0.349111 0.412744 0.501803 0.619803 0.769917 0.952125 1.16949 1.37863 1.56504 1.73362 1.88854 2.04589 2.20845 2.37237 2.54951 2.72438 2.87989 3.02206 2.97585 2.83838 2.55365 2.1875 1.94044 1.84262 1.80498 1.78817 1.77115 1.74109 1.69689 1.63708 1.56459 1.47912 1.38409 1.28342 1.18936 1.11632 1.06954 1.04189 1.02407 1.01376 1.00802 1.00445 1.00253 1.00145 1.00081 1.00046 1.00027 1.00015 0.248258 0.248773 0.248912 0.248834 0.248675 0.248449 0.248135 0.24782 0.247645 0.247526 0.247539 0.247618 0.247856 0.248194 0.248902 0.249989 0.251831 0.254904 0.257426 0.263378 0.277486 0.303384 0.346179 0.410688 0.50033 0.619953 0.77027 0.952101 1.16453 1.3546 1.5187 1.66436 1.81125 1.95929 2.11242 2.27325 2.43894 2.59352 2.72317 2.79345 2.72205 2.54224 2.24639 1.95655 1.83766 1.80885 1.80408 1.80625 1.8066 1.80197 1.79166 1.76945 1.73613 1.68673 1.62337 1.54636 1.45634 1.35683 1.25391 1.16307 1.09731 1.05801 1.03405 1.0191 1.01106 1.0063 1.00362 1.00214 1.00125 1.00073 0.247929 0.248427 0.248571 0.248501 0.248356 0.24812 0.247797 0.247471 0.247246 0.24714 0.24713 0.247182 0.247373 0.247711 0.248277 0.249244 0.251158 0.253646 0.256145 0.261959 0.27513 0.30072 0.343852 0.408543 0.500763 0.623091 0.775608 0.961425 1.16422 1.32948 1.47141 1.6117 1.75038 1.88772 2.03015 2.17532 2.30169 2.41643 2.51085 2.50628 2.39948 2.19332 1.93039 1.73825 1.6943 1.71236 1.74331 1.77009 1.78957 1.80172 1.808 1.80564 1.79977 1.78598 1.76156 1.72473 1.67198 1.605 1.52349 1.42954 1.3251 1.22207 1.13622 1.08018 1.04743 1.0273 1.01612 1.00964 1.00568 1.00373 0.247591 0.248077 0.24821 0.248156 0.248026 0.24778 0.247455 0.247099 0.246862 0.24671 0.246682 0.246756 0.24686 0.247155 0.247632 0.248502 0.250198 0.252477 0.254772 0.260076 0.272911 0.298166 0.340728 0.407092 0.501662 0.625043 0.780116 0.967074 1.14895 1.29828 1.4383 1.56582 1.68897 1.81334 1.93085 2.0265 2.1076 2.16837 2.21115 2.14825 1.9953 1.78912 1.59491 1.50022 1.49947 1.54086 1.59168 1.64192 1.68859 1.72712 1.75733 1.77706 1.79212 1.79892 1.79736 1.79052 1.77453 1.74833 1.70836 1.65343 1.5822 1.49702 1.39776 1.28795 1.18548 1.11171 1.06759 1.04197 1.02824 1.02259 0.247267 0.247756 0.24787 0.24784 0.247708 0.247477 0.247135 0.246802 0.246485 0.246297 0.246294 0.246272 0.246379 0.2466 0.246964 0.247689 0.249418 0.251283 0.25322 0.258358 0.270386 0.294421 0.336527 0.402435 0.496499 0.622413 0.778235 0.962675 1.13312 1.27907 1.40494 1.51857 1.62855 1.7244 1.79437 1.83695 1.85685 1.85148 1.81137 1.68117 1.49113 1.33206 1.21985 1.19099 1.2264 1.28373 1.34418 1.4056 1.4672 1.52646 1.58341 1.63443 1.67997 1.71744 1.7448 1.76667 1.77859 1.78004 1.77393 1.75693 1.72838 1.68714 1.62914 1.55286 1.46166 1.36051 1.26889 1.20716 1.1799 1.16637 0.24701 0.247499 0.24762 0.247584 0.247464 0.247222 0.246892 0.246557 0.246173 0.24597 0.245856 0.245849 0.245924 0.246039 0.246379 0.247028 0.248706 0.249982 0.251833 0.256485 0.267637 0.290495 0.330805 0.394871 0.488203 0.612816 0.768584 0.954922 1.12141 1.25627 1.36899 1.46906 1.55192 1.60483 1.62224 1.61376 1.56418 1.45984 1.3045 1.11119 0.947623 0.844383 0.79268 0.789712 0.826798 0.88139 0.94587 1.01769 1.09308 1.16939 1.24642 1.32131 1.39473 1.46543 1.53053 1.59072 1.64261 1.68385 1.71801 1.74141 1.75012 1.74882 1.73237 1.70771 1.68686 1.68295 1.69469 1.7134 1.71894 1.72396 0.246834 0.247339 0.247449 0.247425 0.247293 0.247054 0.246735 0.246344 0.245994 0.24565 0.245553 0.24552 0.245505 0.24562 0.245926 0.246432 0.248011 0.249208 0.250709 0.254793 0.26499 0.285882 0.3238 0.385345 0.475863 0.598168 0.755051 0.94426 1.10512 1.23019 1.33173 1.40735 1.45681 1.46836 1.44499 1.37612 1.24234 1.03907 0.836361 0.669022 0.554174 0.492754 0.467016 0.466282 0.486575 0.519934 0.56122 0.607577 0.658249 0.714828 0.77691 0.844527 0.917755 0.996702 1.08131 1.16896 1.25924 1.3488 1.43454 1.51265 1.57736 1.63432 1.68269 1.72899 1.78379 1.87091 1.98436 2.05381 2.03646 2.07144 0.246835 0.247306 0.247386 0.247342 0.247169 0.246934 0.246584 0.24623 0.24586 0.245532 0.245401 0.245301 0.245297 0.245392 0.245602 0.246047 0.247701 0.248523 0.249941 0.253684 0.262572 0.281348 0.316044 0.373248 0.459285 0.579406 0.737469 0.927403 1.08691 1.20457 1.28653 1.33554 1.35248 1.3336 1.26242 1.12239 0.915099 0.702262 0.526809 0.396498 0.323376 0.292068 0.279426 0.27732 0.282696 0.295484 0.31526 0.339479 0.367445 0.398418 0.432235 0.469668 0.510943 0.557244 0.608607 0.666262 0.731046 0.80301 0.882998 0.972953 1.07374 1.18148 1.30232 1.4451 1.61329 1.787 1.9092 1.88988 1.78239 1.8347 0.247072 0.247511 0.247627 0.247583 0.24742 0.247134 0.246778 0.246359 0.245986 0.245669 0.245571 0.245556 0.245616 0.24577 0.246023 0.246551 0.248096 0.248852 0.250003 0.253028 0.26056 0.276992 0.30784 0.359975 0.440581 0.555969 0.709807 0.900436 1.06317 1.17165 1.23299 1.25752 1.25201 1.19712 1.07599 0.884708 0.664644 0.474247 0.335185 0.267073 0.249097 0.245416 0.244746 0.242706 0.239342 0.235169 0.230441 0.227393 0.228524 0.23575 0.248213 0.263283 0.280762 0.30042 0.323107 0.349279 0.37941 0.414051 0.453578 0.49964 0.553782 0.619616 0.706773 0.817912 0.94123 1.0452 1.09786 1.01763 0.925693 0.976657 0.247584 0.247919 0.248065 0.248009 0.247815 0.247531 0.247164 0.246755 0.246419 0.246172 0.246177 0.246239 0.246402 0.246643 0.246978 0.247529 0.248979 0.249849 0.250777 0.253215 0.259393 0.273249 0.299943 0.346378 0.419886 0.528169 0.677108 0.867693 1.03218 1.13174 1.17499 1.18202 1.15312 1.06065 0.899409 0.686608 0.479654 0.328187 0.2587 0.249099 0.253552 0.262044 0.269288 0.270838 0.264385 0.256418 0.249986 0.240143 0.226228 0.2106 0.199188 0.194411 0.194151 0.197037 0.202465 0.209852 0.219042 0.230164 0.243218 0.258907 0.279245 0.308761 0.352699 0.407409 0.458821 0.490569 0.502272 0.473876 0.447078 0.468983 0.248395 0.24865 0.248949 0.248727 0.248549 0.248268 0.247981 0.247654 0.247449 0.24733 0.247439 0.247627 0.247912 0.248253 0.248704 0.249281 0.25068 0.251658 0.252445 0.254378 0.25918 0.270397 0.292933 0.332925 0.397922 0.497042 0.638529 0.825338 0.997561 1.09184 1.12305 1.11345 1.05612 0.9395 0.761347 0.547892 0.377043 0.281839 0.255479 0.266311 0.286155 0.316884 0.33182 0.328963 0.308118 0.28783 0.275789 0.264936 0.250831 0.232662 0.211168 0.19516 0.185413 0.180035 0.177518 0.176945 0.177791 0.17964 0.182274 0.186078 0.192794 0.206594 0.231518 0.263749 0.293277 0.311875 0.320539 0.319603 0.318475 0.323017 0.249642 0.249744 0.2502 0.249778 0.249831 0.24955 0.249431 0.249203 0.24915 0.249166 0.249431 0.249737 0.250193 0.25064 0.251159 0.251853 0.253291 0.254356 0.255078 0.256677 0.260512 0.269047 0.286804 0.320131 0.376081 0.463717 0.592717 0.768993 0.952022 1.04665 1.07068 1.0516 0.981387 0.857864 0.680309 0.487551 0.350667 0.277896 0.269812 0.291314 0.329116 0.364868 0.382307 0.369365 0.333055 0.304986 0.289033 0.278726 0.266475 0.248388 0.225082 0.203218 0.189446 0.181301 0.176843 0.174884 0.174318 0.174631 0.175972 0.178573 0.18414 0.197139 0.220622 0.248437 0.271243 0.285617 0.294206 0.299304 0.304299 0.304646 0.251242 0.251096 0.251814 0.251352 0.251743 0.251441 0.251447 0.251334 0.251587 0.25169 0.252149 0.252572 0.253155 0.253789 0.254394 0.255164 0.256642 0.257982 0.258646 0.259964 0.263051 0.269806 0.283372 0.309248 0.355253 0.430018 0.542861 0.700807 0.885688 0.995943 1.03269 1.0172 0.949113 0.83212 0.668663 0.488486 0.358724 0.302501 0.306818 0.330468 0.379597 0.41348 0.422866 0.39501 0.346492 0.313611 0.295342 0.285007 0.273725 0.256907 0.234264 0.209509 0.192937 0.182935 0.177431 0.174854 0.173996 0.174256 0.175663 0.178664 0.185531 0.201676 0.228364 0.25684 0.277651 0.290467 0.298054 0.302249 0.306981 0.306165 0.253197 0.252987 0.254019 0.253644 0.254292 0.254031 0.254357 0.254184 0.254775 0.254944 0.255544 0.25613 0.256842 0.257609 0.258398 0.259244 0.260625 0.262366 0.263133 0.264153 0.266466 0.271605 0.281817 0.301088 0.336493 0.396466 0.49016 0.625742 0.801233 0.936648 0.992399 0.988259 0.940532 0.839717 0.689252 0.520634 0.408677 0.372724 0.379755 0.404857 0.443969 0.459108 0.443547 0.385961 0.33311 0.305301 0.292257 0.285696 0.276798 0.261714 0.239814 0.214032 0.195613 0.184374 0.178003 0.174835 0.17369 0.173847 0.175148 0.178462 0.186598 0.206079 0.23533 0.263811 0.283098 0.294438 0.301197 0.305058 0.309412 0.308326 0.255719 0.255557 0.257048 0.256561 0.257488 0.257172 0.257965 0.257689 0.25854 0.258835 0.259542 0.260231 0.261095 0.261983 0.262903 0.263858 0.26512 0.267033 0.268233 0.269046 0.270699 0.274337 0.281685 0.295161 0.320138 0.363939 0.43582 0.54478 0.694186 0.852417 0.939946 0.957517 0.93094 0.862128 0.741779 0.601911 0.52424 0.498565 0.497343 0.504853 0.507895 0.479185 0.411882 0.348577 0.315405 0.297637 0.289654 0.285614 0.277775 0.263373 0.242297 0.21672 0.197198 0.185221 0.178296 0.174747 0.173369 0.173427 0.174756 0.178447 0.187722 0.209919 0.241515 0.270047 0.287855 0.298006 0.304074 0.307721 0.311689 0.310746 0.258825 0.258676 0.260546 0.259955 0.261317 0.260835 0.262058 0.261767 0.262735 0.263135 0.263926 0.264705 0.265624 0.266642 0.267683 0.268716 0.269859 0.271644 0.273414 0.274389 0.275389 0.277705 0.282694 0.2917 0.307641 0.336097 0.3833 0.459035 0.572548 0.719977 0.844366 0.901913 0.898979 0.864533 0.796621 0.715462 0.66329 0.62412 0.591695 0.561055 0.512472 0.433518 0.359746 0.321033 0.300243 0.290076 0.286745 0.284288 0.276826 0.263061 0.243122 0.218161 0.198161 0.185747 0.178423 0.174587 0.173016 0.17301 0.174382 0.178333 0.188681 0.212975 0.246205 0.275002 0.292038 0.301004 0.306816 0.310162 0.314031 0.313418 0.262512 0.262461 0.264428 0.263757 0.265536 0.264908 0.266466 0.266281 0.267173 0.267696 0.268443 0.269306 0.270271 0.271304 0.272427 0.273607 0.274666 0.276144 0.27812 0.279379 0.280552 0.2817 0.284431 0.289928 0.299306 0.31577 0.342835 0.386011 0.453142 0.552752 0.67578 0.769918 0.812405 0.805159 0.775255 0.730313 0.685929 0.639692 0.585897 0.513639 0.421278 0.351474 0.315398 0.297577 0.289228 0.286136 0.286151 0.284209 0.276847 0.263081 0.243243 0.218463 0.198282 0.185736 0.178285 0.174321 0.172635 0.172588 0.174085 0.17838 0.189826 0.21628 0.250572 0.279107 0.295968 0.304076 0.309246 0.312394 0.316138 0.315918 0.266668 0.266809 0.268687 0.268051 0.270017 0.269323 0.270865 0.270943 0.271606 0.272236 0.272987 0.273758 0.274703 0.275849 0.276885 0.278095 0.279288 0.280567 0.28209 0.283913 0.28508 0.286331 0.287826 0.290426 0.29509 0.303484 0.316941 0.337745 0.369717 0.415511 0.478489 0.556127 0.620833 0.63719 0.631422 0.612146 0.574296 0.519846 0.452865 0.378573 0.329197 0.304544 0.292758 0.287306 0.285323 0.28558 0.285826 0.282485 0.274321 0.260775 0.241705 0.217894 0.197962 0.185484 0.178002 0.174002 0.172262 0.172197 0.173777 0.178274 0.19058 0.218438 0.253654 0.281985 0.298094 0.306573 0.311412 0.314377 0.317865 0.318128 0.271101 0.27141 0.273122 0.272489 0.27438 0.27399 0.275098 0.27539 0.276025 0.276473 0.277226 0.278112 0.278857 0.279909 0.281115 0.282244 0.283338 0.284646 0.285958 0.287404 0.289001 0.290362 0.291439 0.293095 0.295079 0.298539 0.304231 0.312932 0.325735 0.343535 0.366797 0.394804 0.418114 0.425791 0.424173 0.414245 0.392534 0.361734 0.327973 0.304719 0.292911 0.287338 0.28564 0.28497 0.285352 0.286266 0.285422 0.281046 0.27234 0.258793 0.24007 0.216668 0.19714 0.184925 0.177608 0.173635 0.17189 0.171841 0.17355 0.178375 0.191544 0.22026 0.255336 0.283843 0.300489 0.30893 0.313026 0.315744 0.319208 0.319821 0.27556 0.275954 0.277532 0.276925 0.278521 0.278426 0.279308 0.279413 0.280005 0.280577 0.281014 0.281863 0.2828 0.283628 0.284624 0.285961 0.287142 0.288228 0.289662 0.290983 0.292204 0.293683 0.29473 0.295986 0.297174 0.298661 0.300748 0.303637 0.307892 0.313394 0.320319 0.32772 0.33175 0.331279 0.328932 0.323366 0.314851 0.30462 0.294283 0.287988 0.285657 0.285044 0.285364 0.28574 0.286464 0.286291 0.283952 0.27874 0.26983 0.256345 0.237898 0.215054 0.196192 0.184282 0.177059 0.173161 0.171491 0.171502 0.173311 0.178327 0.192553 0.222659 0.257832 0.284316 0.300195 0.309423 0.314446 0.317062 0.320383 0.321232 0.279732 0.280233 0.281699 0.281012 0.282433 0.282343 0.28299 0.283217 0.283425 0.284002 0.284619 0.285126 0.285969 0.287025 0.287957 0.288948 0.290318 0.291561 0.292688 0.294122 0.295386 0.296469 0.297731 0.298653 0.299578 0.300538 0.301443 0.302261 0.303494 0.304769 0.306206 0.30718 0.306609 0.304967 0.302943 0.299962 0.296187 0.292241 0.28922 0.286872 0.286459 0.286378 0.286559 0.286732 0.286749 0.285755 0.282912 0.27736 0.268152 0.254434 0.235858 0.213147 0.194891 0.183393 0.176534 0.172854 0.171235 0.171255 0.173162 0.178371 0.192999 0.223828 0.259771 0.286789 0.301535 0.309323 0.314614 0.317961 0.32133 0.322221 0.283516 0.283879 0.285461 0.284646 0.285774 0.28584 0.286053 0.286298 0.286563 0.286801 0.287413 0.288114 0.288763 0.289607 0.29075 0.291809 0.292848 0.294209 0.295497 0.296646 0.298042 0.299218 0.30027 0.301186 0.301921 0.302626 0.303192 0.303407 0.303802 0.303898 0.303713 0.303038 0.301867 0.300285 0.298377 0.296137 0.293801 0.291406 0.28977 0.288583 0.287951 0.287543 0.287291 0.287053 0.286465 0.284886 0.281589 0.275671 0.266219 0.252385 0.233784 0.211366 0.194001 0.182927 0.176204 0.17254 0.170976 0.171065 0.173065 0.178481 0.193987 0.225315 0.260148 0.285779 0.300893 0.309365 0.31452 0.317861 0.321488 0.322283 0.286734 0.286937 0.288346 0.2878 0.288467 0.288594 0.288699 0.288687 0.288939 0.28926 0.289619 0.290268 0.291089 0.291902 0.292848 0.294002 0.295149 0.296271 0.297566 0.298906 0.300054 0.30124 0.302398 0.303208 0.303888 0.304375 0.304636 0.304759 0.304877 0.304616 0.304013 0.303115 0.301931 0.300362 0.298503 0.296444 0.294342 0.292345 0.290645 0.289748 0.288912 0.288271 0.287747 0.287066 0.286121 0.284386 0.2809 0.274592 0.264636 0.250385 0.231586 0.209336 0.192631 0.182004 0.175596 0.17218 0.170735 0.170839 0.172854 0.178308 0.19434 0.227058 0.262986 0.288007 0.301512 0.309316 0.314413 0.317633 0.321046 0.321878 0.289132 0.289416 0.290421 0.290226 0.290555 0.290504 0.290557 0.290519 0.290605 0.290926 0.291404 0.291988 0.292746 0.293651 0.294639 0.295717 0.296887 0.29808 0.299226 0.300521 0.301798 0.3028 0.303815 0.3048 0.305499 0.305903 0.305986 0.306009 0.305859 0.30537 0.304645 0.303662 0.302398 0.30077 0.298898 0.296908 0.294961 0.293095 0.291366 0.290406 0.289426 0.288591 0.287948 0.287073 0.285767 0.283579 0.279761 0.273211 0.263081 0.248741 0.230016 0.20824 0.192065 0.18169 0.175411 0.172009 0.170572 0.170657 0.172697 0.178278 0.194434 0.226785 0.261738 0.28665 0.30072 0.308773 0.313886 0.317047 0.320473 0.321604 0.290798 0.291504 0.29217 0.292139 0.292265 0.29211 0.291979 0.291904 0.291959 0.292193 0.292658 0.293312 0.294105 0.29503 0.296047 0.297143 0.298318 0.299492 0.300654 0.301857 0.303041 0.304017 0.305016 0.305981 0.306607 0.306837 0.306797 0.30678 0.306519 0.306031 0.305333 0.304352 0.303088 0.301519 0.299697 0.297726 0.295731 0.293688 0.291904 0.290625 0.289477 0.288507 0.287781 0.286862 0.285426 0.283008 0.278909 0.272083 0.26179 0.247535 0.229076 0.207623 0.191788 0.181551 0.175285 0.171901 0.170513 0.170664 0.17279 0.178539 0.195565 0.228892 0.264479 0.288688 0.301757 0.30921 0.314004 0.317053 0.320386 0.321423 0.289476 0.290475 0.290857 0.290956 0.290971 0.290924 0.2908 0.290749 0.290807 0.291001 0.291382 0.29197 0.29272 0.293578 0.294546 0.2956 0.296726 0.297879 0.29896 0.300072 0.301241 0.302212 0.303131 0.304079 0.304758 0.304944 0.30487 0.304797 0.304453 0.303927 0.303169 0.302149 0.300883 0.299416 0.297792 0.296095 0.2944 0.292734 0.291411 0.290208 0.289207 0.288317 0.287696 0.286814 0.285202 0.282497 0.278226 0.271443 0.261307 0.247241 0.228989 0.207715 0.191803 0.181496 0.175206 0.171803 0.170354 0.170456 0.172559 0.178284 0.19495 0.22797 0.26346 0.288177 0.301645 0.309167 0.313955 0.317066 0.320491 0.321383
				</DataArray>
				<DataArray Name="Energy" type="Float32" format="ascii">