<?xml version="1.0"?>
<VTKFile type="PolyData">
	<PolyData>
		<Piece NumberOfPoints="2201" NumberOfPolys="2100">
			<Points>
				<DataArray type="Float32" NumberOfComponents="3" format="ascii">
 0 0 0 0.001 0 0 0.002 0 0 0.003 0 0 0.004 0 0 0.005 0 0 0.006 0 0 0.007 0 0 0.008 0 0 0.009 0 0 0.01 0 0 0.011 0 0 0.012 0 0 0.013 0 0 0.014 0 0 0.015 0 0 0.016 0 0 0.017 0 0 0.018 0 0 0.019 0 0 0.02 0 0 0.021 0 0 0.022 0 0 0.023 0 0 0.024 0 0 0.025 0 0 0.026 0 0 0.027 0 0 0.028 0 0 0.029 0 0 0.03 0 0 0.031 0 0 0.032 0 0 0.033 0 0 0.034 0 0 0.035 0 0 0.036 0 0 0.037 0 0 0.038 0 0 0.039 0 0 0.04 0 0 0.041 0 0 0.042 0 0 0.043 0 0 0.044 0 0 0.045 0 0 0.046 0 0 0.047 0 0 0.048 0 0 0.049 0 0 0.05 0 0 0.051 0 0 0.052 0 0 0.053 0 0 0.054 0 0 0.055 0 0 0.056 0 0 0.057 0 0 0.058 0 0 0.059 0 0 0.06 0 0 0.061 0 0 0.062 0 0 0.063 0 0 0.064 0 0 0.065 0 0 0.066 0 0 0.067 0 0 0.068 0 0 0.069 0 0 0.07 0 0 0 0.001 0 0.001 0.001 0 0.002 0.001 0 0.003 0.001 0 0.004 0.001 0 0.005 0.001 0 0.006 0.001 0 0.007 0.001 0 0.008 0.001 0 0.009 0.001 0 0.01 0.001 0 0.011 0.001 0 0.012 0.001 0 0.013 0.001 0 0.014 0.001 0 0.015 0.001 0 0.016 0.001 0 0.017 0.001 0 0.018 0.001 0 0.019 0.001 0 0.02 0.001 0 0.021 0.001 0 0.022 0.001 0 0.023 0.001 0 0.024 0.001 0 0.025 0.001 0 0.026 0.001 0 0.027 0.001 0 0.028 0.001 0 0.029 0.001 0 0.03 0.001 0 0.031 0.001 0 0.032 0.001 0 0.033 0.001 0 0.034 0.001 0 0.035 0.001 0 0.036 0.001 0 0.037 0.001 0 0.038 0.001 0 0.039 0.001 0 0.04 0.001 0 0.041 0.001 0 0.042 0.001 0 0.043 0.001 0 0.044 0.001 0 0.045 0.001 0 0.046 0.001 0 0.047 0.001 0 0.048 0.001 0 0.049 0.001 0 0.05 0.001 0 0.051 0.001 0 0.052 0.001 0 0.053 0.001 0 0.054 0.001 0 0.055 0.001 0 0.056 0.001 0 0.057 0.001 0 0.058 0.001 0 0.059 0.001 0 0.06 0.001 0 0.061 0.001 0 0.062 0.001 0 0.063 0.001 0 0.064 0.001 0 0.065 0.001 0 0.066 0.001 0 0.067 0.001 0 0.068 0.001 0 0.069 0.001 0 0.07 0.001 0 0 0.002 0 0.001 0.002 0 0.002 0.002 0 0.003 0.002 0 0.004 0.002 0 0.005 0.002 0 0.006 0.002 0 0.007 0.002 0 0.008 0.002 0 0.009 0.002 0 0.01 0.002 0 0.011 0.002 0 0.012 0.002 0 0.013 0.002 0 0.014 0.002 0 0.015 0.002 0 0.016 0.002 0 0.017 0.002 0 0.018 0.002 0 0.019 0.002 0 0.02 0.002 0 0.021 0.002 0 0.022 0.002 0 0.023 0.002 0 0.024 0.002 0 0.025 0.002 0 0.026 0.002 0 0.027 0.002 0 0.028 0.002 0 0.029 0.002 0 0.03 0.002 0 0.031 0.002 0 0.032 0.002 0 0.033 0.002 0 0.034 0.002 0 0.035 0.002 0 0.036 0.002 0 0.037 0.002 0 0.038 0.002 0 0.039 0.002 0 0.04 0.002 0 0.041 0.002 0 0.042 0.002 0 0.043 0.002 0 0.044 0.002 0 0.045 0.002 0 0.046 0.002 0 0.047 0.002 0 0.048 0.002 0 0.049 0.002 0 0.05 0.002 0 0.051 0.002 0 0.052 0.002 0 0.053 0.002 0 0.054 0.002 0 0.055 0.002 0 0.056 0.002 0 0.057 0.002 0 0.058 0.002 0 0.059 0.002 0 0.06 0.002 0 0.061 0.002 0 0.062 0.002 0 0.063 0.002 0 0.064 0.002 0 0.065 0.002 0 0.066 0.002 0 0.067 0.002 0 0.068 0.002 0 0.069 0.002 0 0.07 0.002 0 0 0.003 0 0.001 0.003 0 0.002 0.003 0 0.003 0.003 0 0.004 0.003 0 0.005 0.003 0 0.006 0.003 0 0.007 0.003 0 0.008 0.003 0 0.009 0.003 0 0.01 0.003 0 0.011 0.003 0 0.012 0.003 0 0.013 0.003 0 0.014 0.003 0 0.015 0.003 0 0.016 0.003 0 0.017 0.003 0 0.018 0.003 0 0.019 0.003 0 0.02 0.003 0 0.021 0.003 0 0.022 0.003 0 0.023 0.003 0 0.024 0.003 0 0.025 0.003 0 0.026 0.003 0 0.027 0.003 0 0.028 0.003 0 0.029 0.003 0 0.03 0.003 0 0.031 0.003 0 0.032 0.003 0 0.033 0.003 0 0.034 0.003 0 0.035 0.003 0 0.036 0.003 0 0.037 0.003 0 0.038 0.003 0 0.039 0.003 0 0.04 0.003 0 0.041 0.003 0 0.042 0.003 0 0.043 0.003 0 0.044 0.003 0 0.045 0.003 0 0.046 0.003 0 0.047 0.003 0 0.048 0.003 0 0.049 0.003 0 0.05 0.003 0 0.051 0.003 0 0.052 0.003 0 0.053 0.003 0 0.054 0.003 0 0.055 0.003 0 0.056 0.003 0 0.057 0.003 0 0.058 0.003 0 0.059 0.003 0 0.06 0.003 0 0.061 0.003 0 0.062 0.003 0 0.063 0.003 0 0.064 0.003 0 0.065 0.003 0 0.066 0.003 0 0.067 0.003 0 0.068 0.003 0 0.069 0.003 0 0.07 0.003 0 0 0.004 0 0.001 0.004 0 0.002 0.004 0 0.003 0.004 0 0.004 0.004 0 0.005 0.004 0 0.006 0.004 0 0.007 0.004 0 0.008 0.004 0 0.009 0.004 0 0.01 0.004 0 0.011 0.004 0 0.012 0.004 0 0.013 0.004 0 0.014 0.004 0 0.015 0.004 0 0.016 0.004 0 0.017 0.004 0 0.018 0.004 0 0.019 0.004 0 0.02 0.004 0 0.021 0.004 0 0.022 0.004 0 0.023 0.004 0 0.024 0.004 0 0.025 0.004 0 0.026 0.004 0 0.027 0.004 0 0.028 0.004 0 0.029 0.004 0 0.03 0.004 0 0.031 0.004 0 0.032 0.004 0 0.033 0.004 0 0.034 0.004 0 0.035 0.004 0 0.036 0.004 0 0.037 0.004 0 0.038 0.004 0 0.039 0.004 0 0.04 0.004 0 0.041 0.004 0 0.042 0.004 0 0.043 0.004 0 0.044 0.004 0 0.045 0.004 0 0.046 0.004 0 0.047 0.004 0 0.048 0.004 0 0.049 0.004 0 0.05 0.004 0 0.051 0.004 0 0.052 0.004 0 0.053 0.004 0 0.054 0.004 0 0.055 0.004 0 0.056 0.004 0 0.057 0.004 0 0.058 0.004 0 0.059 0.004 0 0.06 0.004 0 0.061 0.004 0 0.062 0.004 0 0.063 0.004 0 0.064 0.004 0 0.065 0.004 0 0.066 0.004 0 0.067 0.004 0 0.068 0.004 0 0.069 0.004 0 0.07 0.004 0 0 0.005 0 0.001 0.005 0 0.002 0.005 0 0.003 0.005 0 0.004 0.005 0 0.005 0.005 0 0.006 0.005 0 0.007 0.005 0 0.008 0.005 0 0.009 0.005 0 0.01 0.005 0 0.011 0.005 0 0.012 0.005 0 0.013 0.005 0 0.014 0.005 0 0.015 0.005 0 0.016 0.005 0 0.017 0.005 0 0.018 0.005 0 0.019 0.005 0 0.02 0.005 0 0.021 0.005 0 0.022 0.005 0 0.023 0.005 0 0.024 0.005 0 0.025 0.005 0 0.026 0.005 0 0.027 0.005 0 0.028 0.005 0 0.029 0.005 0 0.03 0.005 0 0.031 0.005 0 0.032 0.005 0 0.033 0.005 0 0.034 0.005 0 0.035 0.005 0 0.036 0.005 0 0.037 0.005 0 0.038 0.005 0 0.039 0.005 0 0.04 0.005 0 0.041 0.005 0 0.042 0.005 0 0.043 0.005 0 0.044 0.005 0 0.045 0.005 0 0.046 0.005 0 0.047 0.005 0 0.048 0.005 0 0.049 0.005 0 0.05 0.005 0 0.051 0.005 0 0.052 0.005 0 0.053 0.005 0 0.054 0.005 0 0.055 0.005 0 0.056 0.005 0 0.057 0.005 0 0.058 0.005 0 0.059 0.005 0 0.06 0.005 0 0.061 0.005 0 0.062 0.005 0 0.063 0.005 0 0.064 0.005 0 0.065 0.005 0 0.066 0.005 0 0.067 0.005 0 0.068 0.005 0 0.069 0.005 0 0.07 0.005 0 0 0.006 0 0.001 0.006 0 0.002 0.006 0 0.003 0.006 0 0.004 0.006 0 0.005 0.006 0 0.006 0.006 0 0.007 0.006 0 0.008 0.006 0 0.009 0.006 0 0.01 0.006 0 0.011 0.006 0 0.012 0.006 0 0.013 0.006 0 0.014 0.006 0 0.015 0.006 0 0.016 0.006 0 0.017 0.006 0 0.018 0.006 0 0.019 0.006 0 0.02 0.006 0 0.021 0.006 0 0.022 0.006 0 0.023 0.006 0 0.024 0.006 0 0.025 0.006 0 0.026 0.006 0 0.027 0.006 0 0.028 0.006 0 0.029 0.006 0 0.03 0.006 0 0.031 0.006 0 0.032 0.006 0 0.033 0.006 0 0.034 0.006 0 0.035 0.006 0 0.036 0.006 0 0.037 0.006 0 0.038 0.006 0 0.039 0.006 0 0.04 0.006 0 0.041 0.006 0 0.042 0.006 0 0.043 0.006 0 0.044 0.006 0 0.045 0.006 0 0.046 0.006 0 0.047 0.006 0 0.048 0.006 0 0.049 0.006 0 0.05 0.006 0 0.051 0.006 0 0.052 0.006 0 0.053 0.006 0 0.054 0.006 0 0.055 0.006 0 0.056 0.006 0 0.057 0.006 0 0.058 0.006 0 0.059 0.006 0 0.06 0.006 0 0.061 0.006 0 0.062 0.006 0 0.063 0.006 0 0.064 0.006 0 0.065 0.006 0 0.066 0.006 0 0.067 0.006 0 0.068 0.006 0 0.069 0.006 0 0.07 0.006 0 0 0.007 0 0.001 0.007 0 0.002 0.007 0 0.003 0.007 0 0.004 0.007 0 0.005 0.007 0 0.006 0.007 0 0.007 0.007 0 0.008 0.007 0 0.009 0.007 0 0.01 0.007 0 0.011 0.007 0 0.012 0.007 0 0.013 0.007 0 0.014 0.007 0 0.015 0.007 0 0.016 0.007 0 0.017 0.007 0 0.018 0.007 0 0.019 0.007 0 0.02 0.007 0 0.021 0.007 0 0.022 0.007 0 0.023 0.007 0 0.024 0.007 0 0.025 0.007 0 0.026 0.007 0 0.027 0.007 0 0.028 0.007 0 0.029 0.007 0 0.03 0.007 0 0.031 0.007 0 0.032 0.007 0 0.033 0.007 0 0.034 0.007 0 0.035 0.007 0 0.036 0.007 0 0.037 0.007 0 0.038 0.007 0 0.039 0.007 0 0.04 0.007 0 0.041 0.007 0 0.042 0.007 0 0.043 0.007 0 0.044 0.007 0 0.045 0.007 0 0.046 0.007 0 0.047 0.007 0 0.048 0.007 0 0.049 0.007 0 0.05 0.007 0 0.051 0.007 0 0.052 0.007 0 0.053 0.007 0 0.054 0.007 0 0.055 0.007 0 0.056 0.007 0 0.057 0.007 0 0.058 0.007 0 0.059 0.007 0 0.06 0.007 0 0.061 0.007 0 0.062 0.007 0 0.063 0.007 0 0.064 0.007 0 0.065 0.007 0 0.066 0.007 0 0.067 0.007 0 0.068 0.007 0 0.069 0.007 0 0.07 0.007 0 0 0.008 0 0.001 0.008 0 0.002 0.008 0 0.003 0.008 0 0.004 0.008 0 0.005 0.008 0 0.006 0.008 0 0.007 0.008 0 0.008 0.008 0 0.009 0.008 0 0.01 0.008 0 0.011 0.008 0 0.012 0.008 0 0.013 0.008 0 0.014 0.008 0 0.015 0.008 0 0.016 0.008 0 0.017 0.008 0 0.018 0.008 0 0.019 0.008 0 0.02 0.008 0 0.021 0.008 0 0.022 0.008 0 0.023 0.008 0 0.024 0.008 0 0.025 0.008 0 0.026 0.008 0 0.027 0.008 0 0.028 0.008 0 0.029 0.008 0 0.03 0.008 0 0.031 0.008 0 0.032 0.008 0 0.033 0.008 0 0.034 0.008 0 0.035 0.008 0 0.036 0.008 0 0.037 0.008 0 0.038 0.008 0 0.039 0.008 0 0.04 0.008 0 0.041 0.008 0 0.042 0.008 0 0.043 0.008 0 0.044 0.008 0 0.045 0.008 0 0.046 0.008 0 0.047 0.008 0 0.048 0.008 0 0.049 0.008 0 0.05 0.008 0 0.051 0.008 0 0.052 0.008 0 0.053 0.008 0 0.054 0.008 0 0.055 0.008 0 0.056 0.008 0 0.057 0.008 0 0.058 0.008 0 0.059 0.008 0 0.06 0.008 0 0.061 0.008 0 0.062 0.008 0 0.063 0.008 0 0.064 0.008 0 0.065 0.008 0 0.066 0.008 0 0.067 0.008 0 0.068 0.008 0 0.069 0.008 0 0.07 0.008 0 0 0.009 0 0.001 0.009 0 0.002 0.009 0 0.003 0.009 0 0.004 0.009 0 0.005 0.009 0 0.006 0.009 0 0.007 0.009 0 0.008 0.009 0 0.009 0.009 0 0.01 0.009 0 0.011 0.009 0 0.012 0.009 0 0.013 0.009 0 0.014 0.009 0 0.015 0.009 0 0.016 0.009 0 0.017 0.009 0 0.018 0.009 0 0.019 0.009 0 0.02 0.009 0 0.021 0.009 0 0.022 0.009 0 0.023 0.009 0 0.024 0.009 0 0.025 0.009 0 0.026 0.009 0 0.027 0.009 0 0.028 0.009 0 0.029 0.009 0 0.03 0.009 0 0.031 0.009 0 0.032 0.009 0 0.033 0.009 0 0.034 0.009 0 0.035 0.009 0 0.036 0.009 0 0.037 0.009 0 0.038 0.009 0 0.039 0.009 0 0.04 0.009 0 0.041 0.009 0 0.042 0.009 0 0.043 0.009 0 0.044 0.009 0 0.045 0.009 0 0.046 0.009 0 0.047 0.009 0 0.048 0.009 0 0.049 0.009 0 0.05 0.009 0 0.051 0.009 0 0.052 0.009 0 0.053 0.009 0 0.054 0.009 0 0.055 0.009 0 0.056 0.009 0 0.057 0.009 0 0.058 0.009 0 0.059 0.009 0 0.06 0.009 0 0.061 0.009 0 0.062 0.009 0 0.063 0.009 0 0.064 0.009 0 0.065 0.009 0 0.066 0.009 0 0.067 0.009 0 0.068 0.009 0 0.069 0.009 0 0.07 0.009 0 0 0.01 0 0.001 0.01 0 0.002 0.01 0 0.003 0.01 0 0.004 0.01 0 0.005 0.01 0 0.006 0.01 0 0.007 0.01 0 0.008 0.01 0 0.009 0.01 0 0.01 0.01 0 0.011 0.01 0 0.012 0.01 0 0.013 0.01 0 0.014 0.01 0 0.015 0.01 0 0.016 0.01 0 0.017 0.01 0 0.018 0.01 0 0.019 0.01 0 0.02
[...]
			<CellData Scalars="Density">
				<DataArray Name="Density" type="Float32" format="ascii">
 0.714246 0.695867 0.686382 0.676267 0.664666 0.652827 0.641421 0.632423 0.623713 0.619972 0.617654 0.619547 0.642632 0.737176 0.995068 1.5129 2.20769 2.38216 2.10193 1.49229 1.07216 1.00869 1.00098 1.00011 1.00001 1 1 1 1 1 1 1 1 1 1 1 1 1 1 1 1 1 1 1 1 1 1 1 1 1 1 1 1 1 1 1 1 1 1 1 1 1 1 1 1 1 1 1 1 1 0.71424 0.695866 0.686381 0.676258 0.664641 0.652781 0.641356 0.632334 0.623603 0.61988 0.617614 0.61949 0.6425 0.737015 0.994893 1.51275 2.2075 2.38211 2.1019 1.49229 1.07216 1.00869 1.00098 1.00011 1.00001 1 1 1 1 1 1 1 1 1 1 1 1 1 1 1 1 1 1 1 1 1 1 1 1 1 1 1 1 1 1 1 1 1 1 1 1 1 1 1 1 1 1 1 1 1 0.714216 0.695833 0.68635 0.676233 0.664639 0.652807 0.641396 0.632413 0.623644 0.619686 0.617227 0.619047 0.642149 0.736674 0.994529 1.51243 2.20709 2.38198 2.10181 1.49229 1.07216 1.00869 1.00098 1.00011 1.00001 1 1 1 1 1 1 1 1 1 1 1 1 1 1 1 1 1 1 1 1 1 1 1 1 1 1 1 1 1 1 1 1 1 1 1 1 1 1 1 1 1 1 1 1 1 0.714186 0.695815 0.68633 0.676177 0.664524 0.652582 0.641015 0.631913 0.623246 0.619549 0.616962 0.618424 0.641328 0.735923 0.993812 1.51176 2.20621 2.38165 2.10159 1.49226 1.07216 1.00869 1.00098 1.00011 1.00001 1 1 1 1 1 1 1 1 1 1 1 1 1 1 1 1 1 1 1 1 1 1 1 1 1 1 1 1 1 1 1 1 1 1 1 1 1 1 1 1 1 1 1 1 1 0.714068 0.69567 0.686205 0.676069 0.664439 0.652554 0.641073 0.631783 0.622455 0.618302 0.6156 0.616838 0.639835 0.734567 0.992429 1.51038 2.20447 2.38089 2.10112 1.49223 1.07216 1.00869 1.00098 1.00011 1.00001 1 1 1 1 1 1 1 1 1 1 1 1 1 1 1 1 1 1 1 1 1 1 1 1 1 1 1 1 1 1 1 1 1 1 1 1 1 1 1 1 1 1 1 1 1 0.713863 0.695451 0.685939 0.675616 0.663706 0.651389 0.639459 0.630257 0.621219 0.616554 0.613102 0.613945 0.637236 0.732134 0.98983 1.50781 2.20154 2.37954 2.10015 1.49185 1.07215 1.00869 1.00098 1.00011 1.00001 1 1 1 1 1 1 1 1 1 1 1 1 1 1 1 1 1 1 1 1 1 1 1 1 1 1 1 1 1 1 1 1 1 1 1 1 1 1 1 1 1 1 1 1 1 0.713336 0.694845 0.685361 0.675028 0.663 0.650568 0.63819 0.627929 0.618208 0.613545 0.609324 0.609471 0.633079 0.728136 0.986059 1.50444 2.19714 2.3768 2.0986 1.49185 1.07217 1.00869 1.00098 1.00012 1.00002 1 1 1 1 1 1 1 1 1 1 1 1 1 1 1 1 1 1 1 1 1 1 1 1 1 1 1 1 1 1 1 1 1 1 1 1 1 1 1 1 1 1 1 1 1 0.712713 0.693974 0.684085 0.673258 0.660644 0.647404 0.634797 0.624934 0.614621 0.60916 0.604429 0.603764 0.627782 0.72328 0.981461 1.49933 2.19011 2.372 2.09463 1.4892 1.07187 1.00863 1.00109 1.00018 1.00004 1.00001 1.00001 1 1 1 1 1 1 1 1 1 1 1 1 1 1 1 1 1 1 1 1 1 1 1 1 1 1 1 1 1 1 1 1 1 1 1 1 1 1 1 1 1 1 1 0.712054 0.693229 0.683328 0.672432 0.659637 0.646255 0.632592 0.621393 0.610604 0.604301 0.598802 0.597495 0.621513 0.717871 0.976655 1.49758 2.1837 2.36648 2.09694 1.49028 1.07192 1.01002 1.00195 1.00051 1.00018 1.00007 1.00003 1.00001 1 1 1 1 1 1 1 1 1 1 1 1 1 1 1 1 1 1 1 1 1 1 1 1 1 1 1 1 1 1 1 1 1 1 1 1 1 1 1 1 1 1 0.711188 0.692146 0.681841 0.670331 0.656893 0.642755 0.629521 0.618159 0.605914 0.598586 0.5923 0.590365 0.61437 0.71159 0.974336 1.50497 2.19572 2.37663 2.0844 1.47607 1.08723 1.02 1.00604 1.00225 1.00096 1.0004 1.00017 1.00006 1.00002 1.00001 1 1 1 1 1 1 1 1 1 1 1 1 1 1 1 1 1 1 1 1 1 1 1 1 1 1 1 1 1 1 1 1 1 1 1 1 1 1 1 1 0.709857 0.690813 0.680582 0.668974 0.655064 0.640249 0.625089 0.612906 0.600376 0.592399 0.585421 0.582368 0.605105 0.703374 0.978155 1.53782 2.24621 2.45662 2.21887 1.66565 1.18787 1.06092 1.0247 1.01117 1.00506 1.00222 1.00095 1.00036 1.00014 1.00004 1.00001 1 1 1 1 1 1 1 1 1 1 1 1 1 1 1 1 1 1 1 1 1 1 1 1 1 1 1 1 1 1 1 1 1 1 1 1 1 1 1 0.708544 0.688813 0.677613 0.665235 0.650865 0.635741 0.621156 0.607576 0.59364 0.584867 0.577484 0.574143 0.595472 0.693576 0.974381 1.54108 2.30819 2.60708 2.44063 1.93929 1.43336 1.22336 1.11343 1.05542 1.02695 1.0125 1.00551 1.00209 1.0008 1.00027 1.00008 1.00002 1 1 1 1 1 1 1 1 1 1 1 1 1 1 1 1 1 1 1 1 1 1 1 1 1 1 1 1 1 1 1 1 1 1 1 1 1 1 0.707813 0.688158 0.676961 0.663982 0.648511 0.631809 0.615459 0.601834 0.587234 0.577191 0.569031 0.564864 0.582685 0.676522 0.960516 1.58436 2.33316 2.4435 2.23181 1.85204 1.59667 1.46653 1.36539 1.24596 1.13538 1.06869 1.03083 1.01205 1.00478 1.00161 1.00048 1.00012 1.00004 1.00001 1 1 1 1 1 1 1 1 1 1 1 1 1 1 1 1 1 1 1 1 1 1 1 1 1 1 1 1 1 1 1 1 1 1 1 1 0.705968 0.68605 0.674569 0.661512 0.646171 0.630089 0.612868 0.595985 0.579868 0.568647 0.559648 0.554344 0.566671 0.656039 0.954059 1.61189 1.99055 1.79176 1.39784 1.19736 1.17624 1.252 1.34811 1.38976 1.34474 1.23638 1.12687 1.06077 1.02674 1.00958 1.00282 1.0008 1.00022 1.00004 1.00001 1 1 1 1 1 1 1 1 1 1 1 1 1 1 1 1 1 1 1 1 1 1 1 1 1 1 1 1 1 1 1 1 1 1 1 0.704743 0.683973 0.671538 0.657234 0.640488 0.623163 0.606059 0.589601 0.572456 0.560267 0.55012 0.542648 0.550203 0.622166 0.858353 1.30118 1.37379 1.08727 0.667983 0.487875 0.452854 0.480384 0.551419 0.654821 0.784163 0.917526 1.00755 1.03734 1.02829 1.01859 1.00846 1.00273 1.0006 1.00012 1.00003 1.00001 1 1 1 1 1 1 1 1 1 1 1 1 1 1 1 1 1 1 1 1 1 1 1 1 1 1 1 1 1 1 1 1 1 1 0.703373 0.68294 0.67056 0.655975 0.638439 0.619826 0.600878 0.582954 0.565229 0.550544 0.539555 0.529853 0.527587 0.558229 0.666692 0.822008 0.773663 0.654946 0.467233 0.313157 0.250224 0.2185 0.199403 0.194762 0.193101 0.189426 0.181743 0.166132 0.141968 0.11978 0.106008 0.101532 0.100357 0.10008 0.100018 0.100003 0.100001 0.1 0.1 0.1 0.1 0.1 0.1 0.1 0.1 0.1 0.1 0.1 0.1 0.1 0.1 0.1 0.1 0.1 0.1 0.1 0.1 0.1 0.1 0.1 0.1 0.1 0.1 0.1 0.1 0.1 0.1 0.1 0.1 0.1 0.701818 0.680922 0.668175 0.653082 0.63477 0.614828 0.594161 0.576229 0.557565 0.54122 0.528244 0.516806 0.506375 0.498721 0.506585 0.52399 0.492778 0.44343 0.38674 0.330507 0.285742 0.24352 0.213901 0.20057 0.19447 0.18884 0.183585 0.172895 0.153834 0.129388 0.109234 0.102446 0.100571 0.100126 0.100026 0.100005 0.100001 0.1 0.1 0.1 0.1 0.1 0.1 0.1 0.1 0.1 0.1 0.1 0.1 0.1 0.1 0.1 0.1 0.1 0.1 0.1 0.1 0.1 0.1 0.1 0.1 0.1 0.1 0.1 0.1 0.1 0.1 0.1 0.1 0.1 0.70033 0.679033 0.665834 0.650542 0.632193 0.611816 0.590285 0.569553 0.550219 0.531437 0.517341 0.504026 0.491278 0.477878 0.46544 0.44915 0.421315 0.390991 0.356691 0.3223 0.282939 0.237105 0.211019 0.198881 0.194051 0.189585 0.184713 0.176254 0.161333 0.13912 0.113976 0.103561 0.100816 0.100173 0.100034 0.100006 0.100001 0.1 0.1 0.1 0.1 0.1 0.1 0.1 0.1 0.1 0.1 0.1 0.1 0.1 0.1 0.1 0.1 0.1 0.1 0.1 0.1 0.1 0.1 0.1 0.1 0.1 0.1 0.1 0.1 0.1 0.1 0.1 0.1 0.1 0.699388 0.677532 0.663247 0.646741 0.62727 0.606291 0.585132 0.56332 0.543474 0.523365 0.505884 0.493259 0.4801 0.467027 0.45321 0.436257 0.414284 0.3877 0.356954 0.319552 0.273408 0.230612 0.209354 0.198633 0.194335 0.190638 0.187214 0.180444 0.167134 0.146216 0.118768 0.104596 0.100985 0.100194 0.100036 0.100007 0.100001 0.1 0.1 0.1 0.1 0.1 0.1 0.1 0.1 0.1 0.1 0.1 0.1 0.1 0.1 0.1 0.1 0.1 0.1 0.1 0.1 0.1 0.1 0.1 0.1 0.1 0.1 0.1 0.1 0.1 0.1 0.1 0.1 0.1 0.698989 0.677161 0.662674 0.645323 0.624434 0.601713 0.578552 0.556919 0.535271 0.515747 0.497171 0.482425 0.470128 0.457709 0.445104 0.431255 0.412661 0.387791 0.357599 0.317258 0.266324 0.227116 0.208281 0.199185 0.19537 0.192091 0.189351 0.183611 0.172241 0.151825 0.122703 0.105361 0.101097 0.100209 0.100038 0.100007 0.100001 0.1 0.1 0.1 0.1 0.1 0.1 0.1 0.1 0.1 0.1 0.1 0.1 0.1 0.1 0.1 0.1 0.1 0.1 0.1 0.1 0.1 0.1 0.1 0.1 0.1 0.1 0.1 0.1 0.1 0.1 0.1 0.1 0.1 0.697908 0.675735 0.660808 0.642918 0.621094 0.596909 0.572316 0.549298 0.526981 0.5066 0.488903 0.472879 0.460157 0.449284 0.437768 0.425546 0.409009 0.386839 0.356681 0.313106 0.261182 0.225902 0.208109 0.199925 0.196612 0.193616 0.191454 0.186435 0.176304 0.156079 0.126 0.105981 0.101178 0.100218 0.100039 0.100007 0.100001 0.1 0.1 0.1 0.1 0.1 0.1 0.1 0.1 0.1 0.1 0.1 0.1 0.1 0.1 0.1 0.1 0.1 0.1 0.1 0.1 0.1 0.1 0.1 0.1 0.1 0.1 0.1 0.1 0.1 0.1 0.1 0.1 0.1 0.698172 0.676195 0.661344 0.643055 0.620266 0.594378 0.567487 0.541944 0.518548 0.497237 0.479522 0.464301 0.451201 0.440306 0.430179 0.419138 0.40412 0.384246 0.354245 0.309573 0.256986 0.224687 0.208451 0.200575 0.197917 0.195173 0.19352 0.188967 0.17975 0.159593 0.128582 0.106412 0.101229 0.100223 0.100039 0.100007 0.100001 0.1 0.1 0.1 0.1 0.1 0.1 0.1 0.1 0.1 0.1 0.1 0.1 0.1 0.1 0.1 0.1 0.1 0.1 0.1 0.1 0.1 0.1 0.1 0.1 0.1 0.1 0.1 0.1 0.1 0.1 0.1 0.1 0.1 0.697641 0.67546 0.660512 0.64231 0.619736 0.593769 0.565938 0.537623 0.511213 0.488125 0.470315 0.454615 0.442756 0.432313 0.422648 0.412514 0.399549 0.380767 0.350467 0.306313 0.254675 0.22397 0.208898 0.20147 0.199239 0.196759 0.195465 0.191283 0.182629 0.162202 0.13027 0.106676 0.101257 0.100225 0.10004 0.100007 0.100001 0.1 0.1 0.1 0.1 0.1 0.1 0.1 0.1 0.1 0.1 0.1 0.1 0.1 0.1 0.1 0.1 0.1 0.1 0.1 0.1 0.1 0.1 0.1 0.1 0.1 0.1 0.1 0.1 0.1 0.1 0.1 0.1 0.1 0.697922 0.675856 0.660838 0.642384 0.61946 0.593257 0.565162 0.536437 0.507913 0.482011 0.46196 0.446073 0.433854 0.424575 0.415883 0.406172 0.395012 0.377138 0.347432 0.30371 0.25315 0.223817 0.209257 0.202313 0.200499 0.198306 0.197304 0.193409 0.184953 0.164142 0.131373 0.106823 0.10127 0.100226 0.10004 0.100007 0.100001 0.1 0.1 0.1 0.1 0.1 0.1 0.1 0.1 0.1 0.1 0.1 0.1 0.1 0.1 0.1 0.1 0.1 0.1 0.1 0.1 0.1 0.1 0.1 0.1 0.1 0.1 0.1 0.1 0.1 0.1 0.1 0.1 0.1 0.697712 0.675542 0.6605 0.642149 0.619403 0.593288 0.565088 0.536192 0.507223 0.479993 0.457586 0.439858 0.426285 0.417641 0.41013 0.40106 0.391066 0.374008 0.344955 0.301816 0.25224 0.22369 0.209717 0.203268 0.201578 0.199767 0.19896 0.195244 0.186791 0.165493 0.13193 0.106877 0.101274 0.100226 0.10004 0.100007 0.100001 0.1 0.1 0.1 0.1 0.1 0.1 0.1 0.1 0.1 0.1 0.1 0.1 0.1 0.1 0.1 0.1 0.1 0.1 0.1 0.1 0.1 0.1 0.1 0.1 0.1 0.1 0.1 0.1 0.1 0.1 0.1 0.1 0.1 0.698014 0.675896 0.660817 0.642341 0.619457 0.593262 0.565025 0.536127 0.507132 0.479755 0.456726 0.437824 0.422619 0.412391 0.405337 0.39722 0.387941 0.371459 0.343298 0.300752 0.251688 0.223909 0.210133 0.20417 0.202539 0.201047 0.200381 0.196709 0.187969 0.166122 0.132086 0.106892 0.101275 0.100226 0.10004 0.100007 0.100001 0.1 0.1 0.1 0.1 0.1 0.1 0.1 0.1 0.1 0.1 0.1 0.1 0.1 0.1 0.1 0.1 0.1 0.1 0.1 0.1 0.1 0.1 0.1 0.1 0.1 0.1 0.1 0.1 0.1 0.1 0.1 0.1 0.1 0.698062 0.675818 0.66067 0.642185 0.619335 0.593188 0.564965 0.536062 0.507026 0.479615 0.45646 0.437504 0.421997 0.410862 0.403422 0.395383 0.386141 0.3701 0.342422 0.30019 0.251373 0.224092 0.210599 0.204907 0.203342 0.2021 0.201479 0.197694 0.188616 0.166463 0.132191 0.106903 0.101276 0.100226 0.10004 0.100007 0.100001 0.1 0.1 0.1 0.1 0.1 0.1 0.1 0.1 0.1 0.1 0.1 0.1 0.1 0.1 0.1 0.1 0.1 0.1 0.1 0.1 0.1 0.1 0.1 0.1 0.1 0.1 0.1 0.1 0.1 0.1 0.1 0.1 0.1 0.6981 0.675904 0.660783 0.642298 0.61943 0.593262 0.565018 0.536112 0.507062 0.479657 0.456418 0.437416 0.421902 0.410636 0.403044 0.394856 0.385515 0.369514 0.341923 0.299945 0.251411 0.224187 0.211009 0.205496 0.203916 0.202903 0.202251 0.198288 0.188946 0.166604 0.132208 0.106903 0.101276 0.100226 0.10004 0.100007 0.100001 0.1 0.1 0.1 0.1 0.1 0.1 0.1 0.1 0.1 0.1 0.1 0.1 0.1 0.1 0.1 0.1 0.1 0.1 0.1 0.1 0.1 0.1 0.1 0.1 0.1 0.1 0.1 0.1 0.1 0.1 0.1 0.1 0.1 0.698118 0.675909 0.660766 0.642263 0.619387 0.593218 0.564973 0.536076 0.507026 0.479638 0.456394 0.437417 0.421911 0.410605 0.402979 0.394689 0.385308 0.369325 0.341846 0.29988 0.251457 0.224365 0.211286 0.205902 0.204344 0.203379 0.202611 0.198476 0.188994 0.166596 0.132191 0.106902 0.101276 0.100226 0.10004 0.100007 0.100001 0.1 0.1 0.1 0.1 0.1 0.1 0.1 0.1 0.1 0.1 0.1 0.1 0.1 0.1 0.1 0.1 0.1 0.1 0.1 0.1 0.1 0.1 0.1 0.1 0.1 0.1 0.1 0.1 0.1 0.1 0.1 0.1 0.1 0.698121 0.675912 0.660779 0.642285 0.619413 0.593246 0.564996 0.536098 0.507039 0.47965 0.456393 0.437415 0.421909 0.410582 0.402967 0.394646 0.385264 0.369291 0.341855 0.299947 0.251548 0.224537 0.211485 0.206125 0.204529 0.203511 0.202691 0.198537 0.189055 0.166641 0.132195 0.106899 0.101275 0.100226 0.10004 0.100007 0.100001 0.1 0.1 0.1 0.1 0.1 0.1 0.1 0.1 0.1 0.1 0.1 0.1 0.1 0.1 0.1 0.1 0.1 0.1 0.1 0.1 0.1 0.1 0.1 0.1 0.1 0.1 0.1 0.1 0.1 0.1 0.1 0.1 0.1
				</DataArray>
				<DataArray Name="Energy" type="Float32" format="ascii">