<?xml version="1.0"?>
<VTKFile type="PolyData">
	<PolyData>
		<Piece NumberOfPoints="2201" NumberOfPolys="2100">
			<Points>
				<DataArray type="Float32" NumberOfComponents="3" format="ascii">
 0 0 0 0.001 0 0 0.002 0 0 0.003 0 0 0.004 0 0 0.005 0 0 0.006 0 0 0.007 0 0 0.008 0 0 0.009 0 0 0.01 0 0 0.011 0 0 0.012 0 0 0.013 0 0 0.014 0 0 0.015 0 0 0.016 0 0 0.017 0 0 0.018 0 0 0.019 0 0 0.02 0 0 0.021 0 0 0.022 0 0 0.023 0 0 0.024 0 0 0.025 0 0 0.026 0 0 0.027 0 0 0.028 0 0 0.029 0 0 0.03 0 0 0.031 0 0 0.032 0 0 0.033 0 0 0.034 0 0 0.035 0 0 0.036 0 0 0.037 0 0 0.038 0 0 0.039 0 0 0.04 0 0 0.041 0 0 0.042 0 0 0.043 0 0 0.044 0 0 0.045 0 0 0.046 0 0 0.047 0 0 0.048 0 0 0.049 0 0 0.05 0 0 0.051 0 0 0.052 0 0 0.053 0 0 0.054 0 0 0.055 0 0 0.056 0 0 0.057 0 0 0.058 0 0 0.059 0 0 0.06 0 0 0.061 0 0 0.062 0 0 0.063 0 0 0.064 0 0 0.065 0 0 0.066 0 0 0.067 0 0 0.068 0 0 0.069 0 0 0.07 0 0 0 0.001 0 0.001 0.001 0 0.002 0.001 0 0.003 0.001 0 0.004 0.001 0 0.005 0.001 0 0.006 0.001 0 0.007 0.001 0 0.008 0.001 0 0.009 0.001 0 0.01 0.001 0 0.011 0.001 0 0.012 0.001 0 0.013 0.001 0 0.014 0.001 0 0.015 0.001 0 0.016 0.001 0 0.017 0.001 0 0.018 0.001 0 0.019 0.001 0 0.02 0.001 0 0.021 0.001 0 0.022 0.001 0 0.023 0.001 0 0.024 0.001 0 0.025 0.001 0 0.026 0.001 0 0.027 0.001 0 0.028 0.001 0 0.029 0.001 0 0.03 0.001 0 0.031 0.001 0 0.032 0.001 0 0.033 0.001 0 0.034 0.001 0 0.035 0.001 0 0.036 0.001 0 0.037 0.001 0 0.038 0.001 0 0.039 0.001 0 0.04 0.001 0 0.041 0.001 0 0.042 0.001 0 0.043 0.001 0 0.044 0.001 0 0.045 0.001 0 0.046 0.001 0 0.047 0.001 0 0.048 0.001 0 0.049 0.001 0 0.05 0.001 0 0.051 0.001 0 0.052 0.001 0 0.053 0.001 0 0.054 0.001 0 0.055 0.001 0 0.056 0.001 0 0.057 0.001 0 0.058 0.001 0 0.059 0.001 0 0.06 0.001 0 0.061 0.001 0 0.062 0.001 0 0.063 0.001 0 0.064 0.001 0 0.065 0.001 0 0.066 0.001 0 0.067 0.001 0 0.068 0.001 0 0.069 0.001 0 0.07 0.001 0 0 0.002 0 0.001 0.002 0 0.002 0.002 0 0.003 0.002 0 0.004 0.002 0 0.005 0.002 0 0.006 0.002 0 0.007 0.002 0 0.008 0.002 0 0.009 0.002 0 0.01 0.002 0 0.011 0.002 0 0.012 0.002 0 0.013 0.002 0 0.014 0.002 0 0.015 0.002 0 0.016 0.002 0 0.017 0.002 0 0.018 0.002 0 0.019 0.002 0 0.02 0.002 0 0.021 0.002 0 0.022 0.002 0 0.023 0.002 0 0.024 0.002 0 0.025 0.002 0 0.026 0.002 0 0.027 0.002 0 0.028 0.002 0 0.029 0.002 0 0.03 0.002 0 0.031 0.002 0 0.032 0.002 0 0.033 0.002 0 0.034 0.002 0 0.035 0.002 0 0.036 0.002 0 0.037 0.002 0 0.038 0.002 0 0.039 0.002 0 0.04 0.002 0 0.041 0.002 0 0.042 0.002 0 0.043 0.002 0 0.044 0.002 0 0.045 0.002 0 0.046 0.002 0 0.047 0.002 0 0.048 0.002 0 0.049 0.002 0 0.05 0.002 0 0.051 0.002 0 0.052 0.002 0 0.053 0.002 0 0.054 0.002 0 0.055 0.002 0 0.056 0.002 0 0.057 0.002 0 0.058 0.002 0 0.059 0.002 0 0.06 0.002 0 0.061 0.002 0 0.062 0.002 0 0.063 0.002 0 0.064 0.002 0 0.065 0.002 0 0.066 0.002 0 0.067 0.002 0 0.068 0.002 0 0.069 0.002 0 0.07 0.002 0 0 0.003 0 0.001 0.003 0 0.002 0.003 0 0.003 0.003 0 0.004 0.003 0 0.005 0.003 0 0.006 0.003 0 0.007 0.003 0 0.008 0.003 0 0.009 0.003 0 0.01 0.003 0 0.011 0.003 0 0.012 0.003 0 0.013 0.003 0 0.014 0.003 0 0.015 0.003 0 0.016 0.003 0 0.017 0.003 0 0.018 0.003 0 0.019 0.003 0 0.02 0.003 0 0.021 0.003 0 0.022 0.003 0 0.023 0.003 0 0.024 0.003 0 0.025 0.003 0 0.026 0.003 0 0.027 0.003 0 0.028 0.003 0 0.029 0.003 0 0.03 0.003 0 0.031 0.003 0 0.032 0.003 0 0.033 0.003 0 0.034 0.003 0 0.035 0.003 0 0.036 0.003 0 0.037 0.003 0 0.038 0.003 0 0.039 0.003 0 0.04 0.003 0 0.041 0.003 0 0.042 0.003 0 0.043 0.003 0 0.044 0.003 0 0.045 0.003 0 0.046 0.003 0 0.047 0.003 0 0.048 0.003 0 0.049 0.003 0 0.05 0.003 0 0.051 0.003 0 0.052 0.003 0 0.053 0.003 0 0.054 0.003 0 0.055 0.003 0 0.056 0.003 0 0.057 0.003 0 0.058 0.003 0 0.059 0.003 0 0.06 0.003 0 0.061 0.003 0 0.062 0.003 0 0.063 0.003 0 0.064 0.003 0 0.065 0.003 0 0.066 0.003 0 0.067 0.003 0 0.068 0.003 0 0.069 0.003 0 0.07 0.003 0 0 0.004 0 0.001 0.004 0 0.002 0.004 0 0.003 0.004 0 0.004 0.004 0 0.005 0.004 0 0.006 0.004 0 0.007 0.004 0 0.008 0.004 0 0.009 0.004 0 0.01 0.004 0 0.011 0.004 0 0.012 0.004 0 0.013 0.004 0 0.014 0.004 0 0.015 0.004 0 0.016 0.004 0 0.017 0.004 0 0.018 0.004 0 0.019 0.004 0 0.02 0.004 0 0.021 0.004 0 0.022 0.004 0 0.023 0.004 0 0.024 0.004 0 0.025 0.004 0 0.026 0.004 0 0.027 0.004 0 0.028 0.004 0 0.029 0.004 0 0.03 0.004 0 0.031 0.004 0 0.032 0.004 0 0.033 0.004 0 0.034 0.004 0 0.035 0.004 0 0.036 0.004 0 0.037 0.004 0 0.038 0.004 0 0.039 0.004 0 0.04 0.004 0 0.041 0.004 0 0.042 0.004 0 0.043 0.004 0 0.044 0.004 0 0.045 0.004 0 0.046 0.004 0 0.047 0.004 0 0.048 0.004 0 0.049 0.004 0 0.05 0.004 0 0.051 0.004 0 0.052 0.004 0 0.053 0.004 0 0.054 0.004 0 0.055 0.004 0 0.056 0.004 0 0.057 0.004 0 0.058 0.004 0 0.059 0.004 0 0.06 0.004 0 0.061 0.004 0 0.062 0.004 0 0.063 0.004 0 0.064 0.004 0 0.065 0.004 0 0.066 0.004 0 0.067 0.004 0 0.068 0.004 0 0.069 0.004 0 0.07 0.004 0 0 0.005 0 0.001 0.005 0 0.002 0.005 0 0.003 0.005 0 0.004 0.005 0 0.005 0.005 0 0.006 0.005 0 0.007 0.005 0 0.008 0.005 0 0.009 0.005 0 0.01 0.005 0 0.011 0.005 0 0.012 0.005 0 0.013 0.005 0 0.014 0.005 0 0.015 0.005 0 0.016 0.005 0 0.017 0.005 0 0.018 0.005 0 0.019 0.005 0 0.02 0.005 0 0.021 0.005 0 0.022 0.005 0 0.023 0.005 0 0.024 0.005 0 0.025 0.005 0 0.026 0.005 0 0.027 0.005 0 0.028 0.005 0 0.029 0.005 0 0.03 0.005 0 0.031 0.005 0 0.032 0.005 0 0.033 0.005 0 0.034 0.005 0 0.035 0.005 0 0.036 0.005 0 0.037 0.005 0 0.038 0.005 0 0.039 0.005 0 0.04 0.005 0 0.041 0.005 0 0.042 0.005 0 0.043 0.005 0 0.044 0.005 0 0.045 0.005 0 0.046 0.005 0 0.047 0.005 0 0.048 0.005 0 0.049 0.005 0 0.05 0.005 0 0.051 0.005 0 0.052 0.005 0 0.053 0.005 0 0.054 0.005 0 0.055 0.005 0 0.056 0.005 0 0.057 0.005 0 0.058 0.005 0 0.059 0.005 0 0.06 0.005 0 0.061 0.005 0 0.062 0.005 0 0.063 0.005 0 0.064 0.005 0 0.065 0.005 0 0.066 0.005 0 0.067 0.005 0 0.068 0.005 0 0.069 0.005 0 0.07 0.005 0 0 0.006 0 0.001 0.006 0 0.002 0.006 0 0.003 0.006 0 0.004 0.006 0 0.005 0.006 0 0.006 0.006 0 0.007 0.006 0 0.008 0.006 0 0.009 0.006 0 0.01 0.006 0 0.011 0.006 0 0.012 0.006 0 0.013 0.006 0 0.014 0.006 0 0.015 0.006 0 0.016 0.006 0 0.017 0.006 0 0.018 0.006 0 0.019 0.006 0 0.02 0.006 0 0.021 0.006 0 0.022 0.006 0 0.023 0.006 0 0.024 0.006 0 0.025 0.006 0 0.026 0.006 0 0.027 0.006 0 0.028 0.006 0 0.029 0.006 0 0.03 0.006 0 0.031 0.006 0 0.032 0.006 0 0.033 0.006 0 0.034 0.006 0 0.035 0.006 0 0.036 0.006 0 0.037 0.006 0 0.038 0.006 0 0.039 0.006 0 0.04 0.006 0 0.041 0.006 0 0.042 0.006 0 0.043 0.006 0 0.044 0.006 0 0.045 0.006 0 0.046 0.006 0 0.047 0.006 0 0.048 0.006 0 0.049 0.006 0 0.05 0.006 0 0.051 0.006 0 0.052 0.006 0 0.053 0.006 0 0.054 0.006 0 0.055 0.006 0 0.056 0.006 0 0.057 0.006 0 0.058 0.006 0 0.059 0.006 0 0.06 0.006 0 0.061 0.006 0 0.062 0.006 0 0.063 0.006 0 0.064 0.006 0 0.065 0.006 0 0.066 0.006 0 0.067 0.006 0 0.068 0.006 0 0.069 0.006 0 0.07 0.006 0 0 0.007 0 0.001 0.007 0 0.002 0.007 0 0.003 0.007 0 0.004 0.007 0 0.005 0.007 0 0.006 0.007 0 0.007 0.007 0 0.008 0.007 0 0.009 0.007 0 0.01 0.007 0 0.011 0.007 0 0.012 0.007 0 0.013 0.007 0 0.014 0.007 0 0.015 0.007 0 0.016 0.007 0 0.017 0.007 0 0.018 0.007 0 0.019 0.007 0 0.02 0.007 0 0.021 0.007 0 0.022 0.007 0 0.023 0.007 0 0.024 0.007 0 0.025 0.007 0 0.026 0.007 0 0.027 0.007 0 0.028 0.007 0 0.029 0.007 0 0.03 0.007 0 0.031 0.007 0 0.032 0.007 0 0.033 0.007 0 0.034 0.007 0 0.035 0.007 0 0.036 0.007 0 0.037 0.007 0 0.038 0.007 0 0.039 0.007 0 0.04 0.007 0 0.041 0.007 0 0.042 0.007 0 0.043 0.007 0 0.044 0.007 0 0.045 0.007 0 0.046 0.007 0 0.047 0.007 0 0.048 0.007 0 0.049 0.007 0 0.05 0.007 0 0.051 0.007 0 0.052 0.007 0 0.053 0.007 0 0.054 0.007 0 0.055 0.007 0 0.056 0.007 0 0.057 0.007 0 0.058 0.007 0 0.059 0.007 0 0.06 0.007 0 0.061 0.007 0 0.062 0.007 0 0.063 0.007 0 0.064 0.007 0 0.065 0.007 0 0.066 0.007 0 0.067 0.007 0 0.068 0.007 0 0.069 0.007 0 0.07 0.007 0 0 0.008 0 0.001 0.008 0 0.002 0.008 0 0.003 0.008 0 0.004 0.008 0 0.005 0.008 0 0.006 0.008 0 0.007 0.008 0 0.008 0.008 0 0.009 0.008 0 0.01 0.008 0 0.011 0.008 0 0.012 0.008 0 0.013 0.008 0 0.014 0.008 0 0.015 0.008 0 0.016 0.008 0 0.017 0.008 0 0.018 0.008 0 0.019 0.008 0 0.02 0.008 0 0.021 0.008 0 0.022 0.008 0 0.023 0.008 0 0.024 0.008 0 0.025 0.008 0 0.026 0.008 0 0.027 0.008 0 0.028 0.008 0 0.029 0.008 0 0.03 0.008 0 0.031 0.008 0 0.032 0.008 0 0.033 0.008 0 0.034 0.008 0 0.035 0.008 0 0.036 0.008 0 0.037 0.008 0 0.038 0.008 0 0.039 0.008 0 0.04 0.008 0 0.041 0.008 0 0.042 0.008 0 0.043 0.008 0 0.044 0.008 0 0.045 0.008 0 0.046 0.008 0 0.047 0.008 0 0.048 0.008 0 0.049 0.008 0 0.05 0.008 0 0.051 0.008 0 0.052 0.008 0 0.053 0.008 0 0.054 0.008 0 0.055 0.008 0 0.056 0.008 0 0.057 0.008 0 0.058 0.008 0 0.059 0.008 0 0.06 0.008 0 0.061 0.008 0 0.062 0.008 0 0.063 0.008 0 0.064 0.008 0 0.065 0.008 0 0.066 0.008 0 0.067 0.008 0 0.068 0.008 0 0.069 0.008 0 0.07 0.008 0 0 0.009 0 0.001 0.009 0 0.002 0.009 0 0.003 0.009 0 0.004 0.009 0 0.005 0.009 0 0.006 0.009 0 0.007 0.009 0 0.008 0.009 0 0.009 0.009 0 0.01 0.009 0 0.011 0.009 0 0.012 0.009 0 0.013 0.009 0 0.014 0.009 0 0.015 0.009 0 0.016 0.009 0 0.017 0.009 0 0.018 0.009 0 0.019 0.009 0 0.02 0.009 0 0.021 0.009 0 0.022 0.009 0 0.023 0.009 0 0.024 0.009 0 0.025 0.009 0 0.026 0.009 0 0.027 0.009 0 0.028 0.009 0 0.029 0.009 0 0.03 0.009 0 0.031 0.009 0 0.032 0.009 0 0.033 0.009 0 0.034 0.009 0 0.035 0.009 0 0.036 0.009 0 0.037 0.009 0 0.038 0.009 0 0.039 0.009 0 0.04 0.009 0 0.041 0.009 0 0.042 0.009 0 0.043 0.009 0 0.044 0.009 0 0.045 0.009 0 0.046 0.009 0 0.047 0.009 0 0.048 0.009 0 0.049 0.009 0 0.05 0.009 0 0.051 0.009 0 0.052 0.009 0 0.053 0.009 0 0.054 0.009 0 0.055 0.009 0 0.056 0.009 0 0.057 0.009 0 0.058 0.009 0 0.059 0.009 0 0.06 0.009 0 0.061 0.009 0 0.062 0.009 0 0.063 0.009 0 0.064 0.009 0 0.065 0.009 0 0.066 0.009 0 0.067 0.009 0 0.068 0.009 0 0.069 0.009 0 0.07 0.009 0 0 0.01 0 0.001 0.01 0 0.002 0.01 0 0.003 0.01 0 0.004 0.01 0 0.005 0.01 0 0.006 0.01 0 0.007 0.01 0 0.008 0.01 0 0.009 0.01 0 0.01 0.01 0 0.011 0.01 0 0.012 0.01 0 0.013 0.01 0 0.014 0.01 0 0.015 0.01 0 0.016 0.01 0 0.017 0.01 0 0.018 0.01 0 0.019 0.01 0 0.02
[...]
			<CellData Scalars="Density">
				<DataArray Name="Density" type="Float32" format="ascii">
 0.386796 0.386315 0.390392 0.394795 0.400535 0.407283 0.415039 0.423678 0.433162 0.443337 0.454075 0.465213 0.477035 0.490074 0.503629 0.519302 0.54842 0.613711 0.742029 0.974896 1.35512 1.89457 2.40652 2.6757 2.7053 2.62135 2.22801 1.56757 1.08999 1.01164 1.00141 1.00017 1.00002 1 1 1 1 1 1 1 1 1 1 1 1 1 1 1 1 1 1 1 1 1 1 1 1 1 1 1 1 1 1 1 1 1 1 1 1 1 0.38577 0.385338 0.388338 0.392348 0.397786 0.404243 0.411655 0.419909 0.42898 0.438869 0.449245 0.460114 0.471776 0.484704 0.498278 0.514128 0.543428 0.609553 0.739248 0.973512 1.35461 1.8913 2.40251 2.67097 2.70095 2.61811 2.2267 1.56755 1.08999 1.01165 1.00141 1.00017 1.00002 1 1 1 1 1 1 1 1 1 1 1 1 1 1 1 1 1 1 1 1 1 1 1 1 1 1 1 1 1 1 1 1 1 1 1 1 1 0.384688 0.383853 0.387662 0.392368 0.397985 0.40468 0.412435 0.421132 0.430579 0.44083 0.451663 0.463062 0.47509 0.488199 0.501806 0.517553 0.546631 0.612382 0.7414 0.976112 1.35881 1.89669 2.40422 2.66874 2.69669 2.61336 2.22309 1.56571 1.08987 1.01164 1.00142 1.0002 1.00004 1.00001 1 1 1 1 1 1 1 1 1 1 1 1 1 1 1 1 1 1 1 1 1 1 1 1 1 1 1 1 1 1 1 1 1 1 1 1 0.383377 0.382367 0.385909 0.390199 0.395413 0.402036 0.409835 0.41857 0.427848 0.437672 0.448202 0.459029 0.470414 0.483252 0.496823 0.512759 0.542566 0.610035 0.742199 0.980952 1.36788 1.90769 2.41335 2.67194 2.69617 2.60988 2.21965 1.56338 1.08937 1.0118 1.0017 1.00033 1.00009 1.00004 1.00002 1.00001 1 1 1 1 1 1 1 1 1 1 1 1 1 1 1 1 1 1 1 1 1 1 1 1 1 1 1 1 1 1 1 1 1 1 0.381211 0.380088 0.383747 0.388172 0.393964 0.401029 0.408861 0.417427 0.426767 0.43697 0.44792 0.459252 0.471198 0.484247 0.497759 0.513777 0.543434 0.611481 0.745161 0.987712 1.38171 1.92967 2.43941 2.69769 2.71682 2.62771 2.22804 1.55213 1.09161 1.01447 1.00302 1.00087 1.00036 1.00018 1.00009 1.00004 1.00002 1.00001 1 1 1 1 1 1 1 1 1 1 1 1 1 1 1 1 1 1 1 1 1 1 1 1 1 1 1 1 1 1 1 1 0.37915 0.377644 0.381229 0.385783 0.391501 0.398097 0.405616 0.413992 0.423247 0.43332 0.444047 0.455336 0.467221 0.480336 0.494513 0.510879 0.541103 0.611352 0.748521 0.997627 1.402 1.96126 2.48627 2.77673 2.81907 2.72022 2.28663 1.60378 1.12316 1.02725 1.008 1.00319 1.00162 1.00084 1.00042 1.00022 1.00011 1.00005 1.00002 1.00001 1 1 1 1 1 1 1 1 1 1 1 1 1 1 1 1 1 1 1 1 1 1 1 1 1 1 1 1 1 1 0.376433 0.374816 0.378536 0.383067 0.388429 0.395005 0.402704 0.411253 0.42076 0.431038 0.44194 0.453115 0.464694 0.477581 0.491326 0.507251 0.537421 0.608945 0.750387 1.00888 1.4282 2.00053 2.53012 2.85282 2.93024 2.84628 2.46902 1.84466 1.23054 1.06734 1.02657 1.01322 1.00723 1.00384 1.002 1.00106 1.00053 1.00026 1.00013 1.00006 1.00003 1.00001 1.00001 1 1 1 1 1 1 1 1 1 1 1 1 1 1 1 1 1 1 1 1 1 1 1 1 1 1 1 0.373805 0.371957 0.375615 0.379729 0.385236 0.39195 0.399402 0.40774 0.417123 0.427289 0.43791 0.448787 0.460436 0.473243 0.486631 0.502572 0.532561 0.606007 0.753974 1.02554 1.46244 2.05223 2.57897 2.88956 3.0067 2.96085 2.68316 2.13735 1.45908 1.20246 1.10028 1.05755 1.03262 1.01753 1.0095 1.00507 1.00257 1.00132 1.00066 1.00031 1.00014 1.00006 1.00003 1.00001 1 1 1 1 1 1 1 1 1 1 1 1 1 1 1 1 1 1 1 1 1 1 1 1 1 1 0.370826 0.368887 0.372233 0.376556 0.3821 0.388333 0.395537 0.404098 0.413471 0.423299 0.43359 0.444552 0.455921 0.468227 0.48186 0.496639 0.526955 0.602366 0.757689 1.04533 1.50414 2.09558 2.56928 2.86094 3.00509 2.98536 2.77748 2.2948 1.74252 1.48712 1.3468 1.23863 1.14148 1.07939 1.04463 1.02392 1.01239 1.0065 1.00324 1.00157 1.00076 1.00035 1.00015 1.00006 1.00003 1.00001 1 1 1 1 1 1 1 1 1 1 1 1 1 1 1 1 1 1 1 1 1 1 1 1 0.367821 0.365667 0.369043 0.373357 0.378312 0.384388 0.391949 0.400233 0.409096 0.418762 0.429207 0.439862 0.450706 0.463203 0.475817 0.489928 0.520527 0.596159 0.756947 1.05867 1.53582 2.11983 2.5646 2.82749 2.89985 2.83327 2.60034 2.18336 1.84459 1.68565 1.60319 1.53337 1.43243 1.31199 1.19492 1.108 1.05851 1.03143 1.01595 1.00803 1.00399 1.00187 1.00082 1.00036 1.00016 1.00006 1.00002 1.00001 1 1 1 1 1 1 1 1 1 1 1 1 1 1 1 1 1 1 1 1 1 1 0.364696 0.362402 0.36566 0.369549 0.374492 0.380921 0.387938 0.395657 0.404636 0.414435 0.424417 0.43457 0.44546 0.45731 0.469418 0.483003 0.51196 0.586848 0.750624 1.06152 1.55977 2.16151 2.51198 2.64607 2.61656 2.44181 2.15264 1.89449 1.77404 1.7242 1.70654 1.68922 1.64577 1.584 1.49623 1.38455 1.25713 1.14659 1.07689 1.04036 1.02035 1.00964 1.00449 1.00202 1.00088 1.00035 1.00014 1.00005 1.00002 1 1 1 1 1 1 1 1 1 1 1 1 1 1 1 1 1 1 1 1 1 0.36141 0.358963 0.362102 0.365957 0.371155 0.376837 0.383295 0.391403 0.400322 0.409517 0.41912 0.429369 0.439699 0.450872 0.463182 0.474459 0.50209 0.573119 0.733002 1.0521 1.5881 2.14249 2.3007 2.26769 2.05404 1.70847 1.4521 1.34846 1.37104 1.44837 1.53699 1.61054 1.65197 1.6668 1.65085 1.6054 1.53343 1.43601 1.31196 1.18864 1.09879 1.04844 1.0238 1.01123 1.00503 1.00196 1.00078 1.00028 1.00009 1.00003 1.00001 1 1 1 1 1 1 1 1 1 1 1 1 1 1 1 1 1 1 1 0.358274 0.355589 0.358805 0.362579 0.367104 0.372411 0.379424 0.387198 0.395374 0.404373 0.414289 0.423872 0.433687 0.444714 0.455556 0.465502 0.489787 0.554361 0.708886 1.02995 1.57579 1.99014 1.96432 1.74342 1.31739 0.960057 0.77788 0.719746 0.745469 0.816862 0.919307 1.04245 1.16855 1.28963 1.4016 1.4954 1.5527 1.56292 1.53014 1.45415 1.34483 1.21888 1.11986 1.06137 1.02766 1.01116 1.00458 1.00158 1.00051 1.00015 1.00004 1.00001 1 1 1 1 1 1 1 1 1 1 1 1 1 1 1 1 1 1 0.355006 0.352281 0.355232 0.358586 0.362936 0.368762 0.375198 0.382178 0.390389 0.399586 0.408772 0.418084 0.427779 0.437782 0.447707 0.456082 0.476902 0.533707 0.673469 0.981695 1.48815 1.72336 1.58894 1.22101 0.781659 0.517024 0.39983 0.359133 0.360448 0.379966 0.415981 0.465385 0.526766 0.601514 0.689192 0.790077 0.905977 1.03992 1.17371 1.29264 1.37393 1.38693 1.32559 1.21595 1.11531 1.0564 1.0251 1.00933 1.00305 1.00087 1.00023 1.00006 1.00002 1 1 1 1 1 1 1 1 1 1 1 1 1 1 1 1 1 0.351747 0.348878 0.351606 0.355036 0.359539 0.364654 0.37037 0.377635 0.385841 0.394267 0.403103 0.412624 0.421407 0.430755 0.439812 0.447261 0.464037 0.509678 0.627236 0.889471 1.29909 1.45231 1.33059 0.999154 0.622089 0.405798 0.322918 0.29665 0.282742 0.271835 0.262059 0.249724 0.247187 0.257933 0.276162 0.300672 0.33319 0.376607 0.43218 0.499387 0.581364 0.678941 0.80544 0.928318 1.00716 1.03181 1.02434 1.01644 1.00782 1.0025 1.00079 1.00023 1.00006 1.00002 1 1 1 1 1 1 1 1 1 1 1 1 1 1 1 1 0.348521 0.345388 0.348273 0.351478 0.355413 0.360082 0.366163 0.373153 0.380583 0.388738 0.397819 0.406549 0.41507 0.423853 0.432156 0.439138 0.451497 0.486443 0.574522 0.767397 1.06987 1.216 1.14441 0.950449 0.704424 0.545058 0.448066 0.382164 0.339784 0.30856 0.284886 0.257032 0.226201 0.208261 0.200061 0.196731 0.195906 0.19612 0.195891 0.194748 0.194211 0.193749 0.192415 0.187787 0.178373 0.162104 0.138904 0.118698 0.106145 0.101743 0.100497 0.100133 0.100034 0.100008 0.100002 0.1 0.1 0.1 0.1 0.1 0.1 0.1 0.1 0.1 0.1 0.1 0.1 0.1 0.1 0.1 0.345232 0.342039 0.344815 0.347635 0.351358 0.356297 0.361979 0.368176 0.37533 0.38356 0.392005 0.400407 0.408953 0.416907 0.42498 0.431134 0.439828 0.46259 0.516869 0.63108 0.816232 0.958678 0.938252 0.863035 0.743759 0.623667 0.512901 0.425317 0.368683 0.334126 0.306742 0.272422 0.234815 0.212816 0.202436 0.198263 0.196933 0.196633 0.196357 0.196022 0.195636 0.194741 0.192374 0.188165 0.181021 0.168674 0.150066 0.127754 0.109671 0.102888 0.100786 0.10021 0.100052 0.100013 0.100003 0.100001 0.1 0.1 0.1 0.1 0.1 0.1 0.1 0.1 0.1 0.1 0.1 0.1 0.1 0.1 0.342074 0.33875 0.341145 0.344059 0.347815 0.352275 0.357235 0.363214 0.370408 0.37806 0.38591 0.394538 0.402646 0.410208 0.417781 0.423605 0.428411 0.439518 0.460106 0.501876 0.569064 0.653701 0.663185 0.639156 0.585092 0.50269 0.419535 0.373009 0.343703 0.327108 0.303922 0.269315 0.232096 0.211562 0.201733 0.197598 0.196094 0.195755 0.195426 0.195166 0.194737 0.193431 0.190739 0.186865 0.18091 0.171614 0.157368 0.137134 0.115033 0.104449 0.10119 0.10031 0.100078 0.100019 0.100004 0.100001 0.1 0.1 0.1 0.1 0.1 0.1 0.1 0.1 0.1 0.1 0.1 0.1 0.1 0.1 0.338835 0.335327 0.337742 0.34078 0.343932 0.347854 0.352834 0.358746 0.365255 0.372165 0.380156 0.38857 0.396257 0.403891 0.411027 0.416501 0.420027 0.424947 0.431528 0.44299 0.458694 0.478682 0.473914 0.458077 0.432053 0.400913 0.368107 0.351646 0.340444 0.325765 0.301165 0.265286 0.229717 0.210766 0.201089 0.197035 0.195583 0.195228 0.194833 0.194513 0.19398 0.19295 0.190909 0.187657 0.182944 0.175561 0.163566 0.14472 0.120909 0.106183 0.101647 0.100411 0.100097 0.100022 0.100005 0.100001 0.1 0.1 0.1 0.1 0.1 0.1 0.1 0.1 0.1 0.1 0.1 0.1 0.1 0.1 0.335692 0.332039 0.334594 0.337065 0.339998 0.344023 0.348577 0.35376 0.359615 0.366719 0.374526 0.38202 0.389988 0.397733 0.404458 0.409954 0.413691 0.416852 0.418366 0.419596 0.419695 0.420072 0.413481 0.403807 0.389758 0.375324 0.360491 0.35192 0.342115 0.325718 0.298336 0.260406 0.227322 0.209468 0.200759 0.196803 0.195324 0.194844 0.194374 0.194016 0.193369 0.19225 0.190466 0.187888 0.184254 0.178259 0.168154 0.150579 0.127209 0.108377 0.102181 0.100527 0.100121 0.100027 0.100006 0.100001 0.1 0.1 0.1 0.1 0.1 0.1 0.1 0.1 0.1 0.1 0.1 0.1 0.1 0.1 0.332565 0.328874 0.331194 0.333527 0.336657 0.339998 0.343932 0.348784 0.35471 0.361497 0.368314 0.375929 0.384007 0.391222 0.39811 0.404081 0.408093 0.410972 0.412342 0.411929 0.409716 0.40628 0.400588 0.393895 0.385338 0.375844 0.364866 0.356584 0.344091 0.324455 0.293867 0.253966 0.224789 0.208544 0.200383 0.196702 0.195227 0.194504 0.193955 0.193629 0.193085 0.192055 0.190483 0.18846 0.1856 0.180687 0.172243 0.155691 0.132724 0.110409 0.102613 0.100607 0.100134 0.100029 0.100006 0.100001 0.1 0.1 0.1 0.1 0.1 0.1 0.1 0.1 0.1 0.1 0.1 0.1 0.1 0.1 0.32951 0.325659 0.327813 0.330278 0.332888 0.335769 0.339663 0.344287 0.34978 0.355657 0.362491 0.370225 0.377512 0.385017 0.392228 0.398096 0.402714 0.406291 0.408351 0.408461 0.40761 0.405059 0.40098 0.396232 0.389688 0.381359 0.370665 0.360366 0.344325 0.32085 0.288062 0.248764 0.22216 0.207706 0.200274 0.196727 0.195233 0.194325 0.193675 0.193223 0.192615 0.191763 0.190546 0.189044 0.186765 0.182653 0.1753 0.159972 0.137798 0.112813 0.103168 0.100728 0.100159 0.100034 0.100007 0.100001 0.1 0.1 0.1 0.1 0.1 0.1 0.1 0.1 0.1 0.1 0.1 0.1 0.1 0.1 0.326543 0.322541 0.32476 0.32698 0.3291 0.332057 0.335572 0.3397 0.344517 0.350385 0.357202 0.364055 0.371405 0.37932 0.386154 0.392467 0.398175 0.402167 0.404764 0.40614 0.406719 0.40587 0.403481 0.399846 0.39415 0.386069 0.37511 0.362896 0.344482 0.318129 0.282121 0.243948 0.220463 0.206939 0.200141 0.196864 0.195283 0.194284 0.193605 0.193092 0.192455 0.191735 0.19077 0.189624 0.1877 0.184318 0.177821 0.163659 0.142041 0.115266 0.103691 0.100822 0.100174 0.100036 0.100007 0.100001 0.1 0.1 0.1 0.1 0.1 0.1 0.1 0.1 0.1 0.1 0.1 0.1 0.1 0.1 0.323667 0.319537 0.321709 0.323491 0.325633 0.328338 0.331335 0.335089 0.339867 0.345561 0.351511 0.358321 0.365992 0.373313 0.380588 0.387662 0.393256 0.398109 0.402026 0.404465 0.40595 0.40617 0.405131 0.402608 0.3976 0.389244 0.378026 0.363718 0.342957 0.314752 0.277263 0.240112 0.218875 0.206562 0.200087 0.197013 0.195305 0.194161 0.193472 0.192976 0.192408 0.191794 0.190976 0.190084 0.188448 0.185714 0.179832 0.16686 0.145769 0.117826 0.104249 0.100928 0.100193 0.100039 0.100008 0.100001 0.1 0.1 0.1 0.1 0.1 0.1 0.1 0.1 0.1 0.1 0.1 0.1 0.1 0.1 0.320949 0.316806 0.318662 0.320336 0.322356 0.324538 0.327442 0.331129 0.335601 0.340529 0.346459 0.353409 0.360482 0.368006 0.375858 0.382767 0.389138 0.395074 0.399609 0.403187 0.405223 0.40627 0.406249 0.405024 0.400615 0.391725 0.380286 0.364393 0.341565 0.310562 0.271991 0.237854 0.21754 0.206139 0.200095 0.197172 0.195428 0.194271 0.193589 0.19306 0.192457 0.191856 0.191122 0.190449 0.189056 0.18683 0.181384 0.169491 0.148806 0.120168 0.104745 0.101012 0.100206 0.10004 0.100008 0.100001 0.1 0.1 0.1 0.1 0.1 0.1 0.1 0.1 0.1 0.1 0.1 0.1 0.1 0.1 0.318398 0.314213 0.315718 0.317377 0.319023 0.321158 0.32402 0.327388 0.331301 0.336255 0.342204 0.348506 0.355614 0.36349 0.370969 0.378589 0.385775 0.391774 0.397459 0.402095 0.404937 0.406395 0.406862 0.406765 0.403266 0.394017 0.381791 0.364437 0.340402 0.307844 0.267443 0.235799 0.216729 0.205802 0.200073 0.197321 0.195533 0.194304 0.193568 0.192979 0.192377 0.191867 0.191226 0.190735 0.189492 0.187645 0.182595 0.171671 0.151271 0.122274 0.105206 0.101089 0.100217 0.100042 0.100008 0.100001 0.1 0.1 0.1 0.1 0.1 0.1 0.1 0.1 0.1 0.1 0.1 0.1 0.1 0.1 0.316081 0.311954 0.313136 0.314546 0.316104 0.318316 0.320838 0.323894 0.327875 0.332783 0.33813 0.344401 0.351651 0.359243 0.367301 0.375527 0.382743 0.389751 0.396166 0.401614 0.405668 0.407504 0.407944 0.408351 0.405597 0.396244 0.383145 0.364248 0.338406 0.304824 0.264645 0.234176 0.215947 0.205683 0.20017 0.197421 0.19562 0.194399 0.193669 0.193074 0.192491 0.191969 0.191305 0.190878 0.189768 0.188309 0.183602 0.173409 0.153272 0.124101 0.105578 0.101142 0.100223 0.100043 0.100008 0.100002 0.1 0.1 0.1 0.1 0.1 0.1 0.1 0.1 0.1 0.1 0.1 0.1 0.1 0.1 0.314156 0.310041 0.31094 0.312262 0.313826 0.315815 0.318065 0.32119 0.325186 0.329593 0.334904 0.341143 0.348072 0.355728 0.363981 0.372038 0.380089 0.38769 0.394653 0.401173 0.406183 0.408927 0.409588 0.41011 0.407486 0.397948 0.384205 0.364517 0.337739 0.302577 0.262187 0.233353 0.215473 0.205466 0.200267 0.197558 0.195727 0.194476 0.193688 0.192995 0.19232 0.191801 0.19125 0.191035 0.19012 0.188871 0.184323 0.174704 0.154802 0.125452 0.10583 0.101174 0.100227 0.100043 0.100008 0.100002 0.1 0.1 0.1 0.1 0.1 0.1 0.1 0.1 0.1 0.1 0.1 0.1 0.1 0.1 0.312767 0.308787 0.309485 0.310657 0.312096 0.313898 0.316244 0.31937 0.323042 0.32747 0.332927 0.339278 0.3467 0.354945 0.363821 0.373062 0.382439 0.390809 0.39813 0.404308 0.408746 0.410747 0.411406 0.411892 0.408881 0.399396 0.384887 0.364214 0.336782 0.301242 0.260676 0.232466 0.215204 0.205422 0.200373 0.197572 0.195757 0.194519 0.19375 0.193056 0.192382 0.191872 0.191371 0.191064 0.190092 0.188918 0.184616 0.175525 0.155816 0.126286 0.105947 0.101186 0.100228 0.100043 0.100008 0.100002 0.1 0.1 0.1 0.1 0.1 0.1 0.1 0.1 0.1 0.1 0.1 0.1 0.1 0.1 0.311473 0.307719 0.308176 0.30914 0.310365 0.311993 0.314136 0.316789 0.320164 0.324463 0.329631 0.335676 0.342609 0.350333 0.358679 0.367497 0.376522 0.384869 0.392774 0.400025 0.405106 0.407721 0.409135 0.410023 0.407211 0.39838 0.38419 0.363895 0.336104 0.300225 0.259962 0.232354 0.215138 0.205419 0.200511 0.197697 0.195868 0.194632 0.193851 0.193158 0.192462 0.191823 0.191346 0.191074 0.190424 0.189421 0.185275 0.176301 0.156364 0.126551 0.105979 0.101189 0.100228 0.100043 0.100008 0.100002 0.1 0.1 0.1 0.1 0.1 0.1 0.1 0.1 0.1 0.1 0.1 0.1 0.1 0.1
				</DataArray>
				<DataArray Name="Energy" type="Float32" format="ascii">