<?xml version="1.0"?>
<VTKFile type="PolyData">
	<PolyData>
		<Piece NumberOfPoints="2201" NumberOfPolys="2100">
			<Points>
				<DataArray type="Float32" NumberOfComponents="3" format="ascii">
 0 0 0 0.001 0 0 0.002 0 0 0.003 0 0 0.004 0 0 0.005 0 0 0.006 0 0 0.007 0 0 0.008 0 0 0.009 0 0 0.01 0 0 0.011 0 0 0.012 0 0 0.013 0 0 0.014 0 0 0.015 0 0 0.016 0 0 0.017 0 0 0.018 0 0 0.019 0 0 0.02 0 0 0.021 0 0 0.022 0 0 0.023 0 0 0.024 0 0 0.025 0 0 0.026 0 0 0.027 0 0 0.028 0 0 0.029 0 0 0.03 0 0 0.031 0 0 0.032 0 0 0.033 0 0 0.034 0 0 0.035 0 0 0.036 0 0 0.037 0 0 0.038 0 0 0.039 0 0 0.04 0 0 0.041 0 0 0.042 0 0 0.043 0 0 0.044 0 0 0.045 0 0 0.046 0 0 0.047 0 0 0.048 0 0 0.049 0 0 0.05 0 0 0.051 0 0 0.052 0 0 0.053 0 0 0.054 0 0 0.055 0 0 0.056 0 0 0.057 0 0 0.058 0 0 0.059 0 0 0.06 0 0 0.061 0 0 0.062 0 0 0.063 0 0 0.064 0 0 0.065 0 0 0.066 0 0 0.067 0 0 0.068 0 0 0.069 0 0 0.07 0 0 0 0.001 0 0.001 0.001 0 0.002 0.001 0 0.003 0.001 0 0.004 0.001 0 0.005 0.001 0 0.006 0.001 0 0.007 0.001 0 0.008 0.001 0 0.009 0.001 0 0.01 0.001 0 0.011 0.001 0 0.012 0.001 0 0.013 0.001 0 0.014 0.001 0 0.015 0.001 0 0.016 0.001 0 0.017 0.001 0 0.018 0.001 0 0.019 0.001 0 0.02 0.001 0 0.021 0.001 0 0.022 0.001 0 0.023 0.001 0 0.024 0.001 0 0.025 0.001 0 0.026 0.001 0 0.027 0.001 0 0.028 0.001 0 0.029 0.001 0 0.03 0.001 0 0.031 0.001 0 0.032 0.001 0 0.033 0.001 0 0.034 0.001 0 0.035 0.001 0 0.036 0.001 0 0.037 0.001 0 0.038 0.001 0 0.039 0.001 0 0.04 0.001 0 0.041 0.001 0 0.042 0.001 0 0.043 0.001 0 0.044 0.001 0 0.045 0.001 0 0.046 0.001 0 0.047 0.001 0 0.048 0.001 0 0.049 0.001 0 0.05 0.001 0 0.051 0.001 0 0.052 0.001 0 0.053 0.001 0 0.054 0.001 0 0.055 0.001 0 0.056 0.001 0 0.057 0.001 0 0.058 0.001 0 0.059 0.001 0 0.06 0.001 0 0.061 0.001 0 0.062 0.001 0 0.063 0.001 0 0.064 0.001 0 0.065 0.001 0 0.066 0.001 0 0.067 0.001 0 0.068 0.001 0 0.069 0.001 0 0.07 0.001 0 0 0.002 0 0.001 0.002 0 0.002 0.002 0 0.003 0.002 0 0.004 0.002 0 0.005 0.002 0 0.006 0.002 0 0.007 0.002 0 0.008 0.002 0 0.009 0.002 0 0.01 0.002 0 0.011 0.002 0 0.012 0.002 0 0.013 0.002 0 0.014 0.002 0 0.015 0.002 0 0.016 0.002 0 0.017 0.002 0 0.018 0.002 0 0.019 0.002 0 0.02 0.002 0 0.021 0.002 0 0.022 0.002 0 0.023 0.002 0 0.024 0.002 0 0.025 0.002 0 0.026 0.002 0 0.027 0.002 0 0.028 0.002 0 0.029 0.002 0 0.03 0.002 0 0.031 0.002 0 0.032 0.002 0 0.033 0.002 0 0.034 0.002 0 0.035 0.002 0 0.036 0.002 0 0.037 0.002 0 0.038 0.002 0 0.039 0.002 0 0.04 0.002 0 0.041 0.002 0 0.042 0.002 0 0.043 0.002 0 0.044 0.002 0 0.045 0.002 0 0.046 0.002 0 0.047 0.002 0 0.048 0.002 0 0.049 0.002 0 0.05 0.002 0 0.051 0.002 0 0.052 0.002 0 0.053 0.002 0 0.054 0.002 0 0.055 0.002 0 0.056 0.002 0 0.057 0.002 0 0.058 0.002 0 0.059 0.002 0 0.06 0.002 0 0.061 0.002 0 0.062 0.002 0 0.063 0.002 0 0.064 0.002 0 0.065 0.002 0 0.066 0.002 0 0.067 0.002 0 0.068 0.002 0 0.069 0.002 0 0.07 0.002 0 0 0.003 0 0.001 0.003 0 0.002 0.003 0 0.003 0.003 0 0.004 0.003 0 0.005 0.003 0 0.006 0.003 0 0.007 0.003 0 0.008 0.003 0 0.009 0.003 0 0.01 0.003 0 0.011 0.003 0 0.012 0.003 0 0.013 0.003 0 0.014 0.003 0 0.015 0.003 0 0.016 0.003 0 0.017 0.003 0 0.018 0.003 0 0.019 0.003 0 0.02 0.003 0 0.021 0.003 0 0.022 0.003 0 0.023 0.003 0 0.024 0.003 0 0.025 0.003 0 0.026 0.003 0 0.027 0.003 0 0.028 0.003 0 0.029 0.003 0 0.03 0.003 0 0.031 0.003 0 0.032 0.003 0 0.033 0.003 0 0.034 0.003 0 0.035 0.003 0 0.036 0.003 0 0.037 0.003 0 0.038 0.003 0 0.039 0.003 0 0.04 0.003 0 0.041 0.003 0 0.042 0.003 0 0.043 0.003 0 0.044 0.003 0 0.045 0.003 0 0.046 0.003 0 0.047 0.003 0 0.048 0.003 0 0.049 0.003 0 0.05 0.003 0 0.051 0.003 0 0.052 0.003 0 0.053 0.003 0 0.054 0.003 0 0.055 0.003 0 0.056 0.003 0 0.057 0.003 0 0.058 0.003 0 0.059 0.003 0 0.06 0.003 0 0.061 0.003 0 0.062 0.003 0 0.063 0.003 0 0.064 0.003 0 0.065 0.003 0 0.066 0.003 0 0.067 0.003 0 0.068 0.003 0 0.069 0.003 0 0.07 0.003 0 0 0.004 0 0.001 0.004 0 0.002 0.004 0 0.003 0.004 0 0.004 0.004 0 0.005 0.004 0 0.006 0.004 0 0.007 0.004 0 0.008 0.004 0 0.009 0.004 0 0.01 0.004 0 0.011 0.004 0 0.012 0.004 0 0.013 0.004 0 0.014 0.004 0 0.015 0.004 0 0.016 0.004 0 0.017 0.004 0 0.018 0.004 0 0.019 0.004 0 0.02 0.004 0 0.021 0.004 0 0.022 0.004 0 0.023 0.004 0 0.024 0.004 0 0.025 0.004 0 0.026 0.004 0 0.027 0.004 0 0.028 0.004 0 0.029 0.004 0 0.03 0.004 0 0.031 0.004 0 0.032 0.004 0 0.033 0.004 0 0.034 0.004 0 0.035 0.004 0 0.036 0.004 0 0.037 0.004 0 0.038 0.004 0 0.039 0.004 0 0.04 0.004 0 0.041 0.004 0 0.042 0.004 0 0.043 0.004 0 0.044 0.004 0 0.045 0.004 0 0.046 0.004 0 0.047 0.004 0 0.048 0.004 0 0.049 0.004 0 0.05 0.004 0 0.051 0.004 0 0.052 0.004 0 0.053 0.004 0 0.054 0.004 0 0.055 0.004 0 0.056 0.004 0 0.057 0.004 0 0.058 0.004 0 0.059 0.004 0 0.06 0.004 0 0.061 0.004 0 0.062 0.004 0 0.063 0.004 0 0.064 0.004 0 0.065 0.004 0 0.066 0.004 0 0.067 0.004 0 0.068 0.004 0 0.069 0.004 0 0.07 0.004 0 0 0.005 0 0.001 0.005 0 0.002 0.005 0 0.003 0.005 0 0.004 0.005 0 0.005 0.005 0 0.006 0.005 0 0.007 0.005 0 0.008 0.005 0 0.009 0.005 0 0.01 0.005 0 0.011 0.005 0 0.012 0.005 0 0.013 0.005 0 0.014 0.005 0 0.015 0.005 0 0.016 0.005 0 0.017 0.005 0 0.018 0.005 0 0.019 0.005 0 0.02 0.005 0 0.021 0.005 0 0.022 0.005 0 0.023 0.005 0 0.024 0.005 0 0.025 0.005 0 0.026 0.005 0 0.027 0.005 0 0.028 0.005 0 0.029 0.005 0 0.03 0.005 0 0.031 0.005 0 0.032 0.005 0 0.033 0.005 0 0.034 0.005 0 0.035 0.005 0 0.036 0.005 0 0.037 0.005 0 0.038 0.005 0 0.039 0.005 0 0.04 0.005 0 0.041 0.005 0 0.042 0.005 0 0.043 0.005 0 0.044 0.005 0 0.045 0.005 0 0.046 0.005 0 0.047 0.005 0 0.048 0.005 0 0.049 0.005 0 0.05 0.005 0 0.051 0.005 0 0.052 0.005 0 0.053 0.005 0 0.054 0.005 0 0.055 0.005 0 0.056 0.005 0 0.057 0.005 0 0.058 0.005 0 0.059 0.005 0 0.06 0.005 0 0.061 0.005 0 0.062 0.005 0 0.063 0.005 0 0.064 0.005 0 0.065 0.005 0 0.066 0.005 0 0.067 0.005 0 0.068 0.005 0 0.069 0.005 0 0.07 0.005 0 0 0.006 0 0.001 0.006 0 0.002 0.006 0 0.003 0.006 0 0.004 0.006 0 0.005 0.006 0 0.006 0.006 0 0.007 0.006 0 0.008 0.006 0 0.009 0.006 0 0.01 0.006 0 0.011 0.006 0 0.012 0.006 0 0.013 0.006 0 0.014 0.006 0 0.015 0.006 0 0.016 0.006 0 0.017 0.006 0 0.018 0.006 0 0.019 0.006 0 0.02 0.006 0 0.021 0.006 0 0.022 0.006 0 0.023 0.006 0 0.024 0.006 0 0.025 0.006 0 0.026 0.006 0 0.027 0.006 0 0.028 0.006 0 0.029 0.006 0 0.03 0.006 0 0.031 0.006 0 0.032 0.006 0 0.033 0.006 0 0.034 0.006 0 0.035 0.006 0 0.036 0.006 0 0.037 0.006 0 0.038 0.006 0 0.039 0.006 0 0.04 0.006 0 0.041 0.006 0 0.042 0.006 0 0.043 0.006 0 0.044 0.006 0 0.045 0.006 0 0.046 0.006 0 0.047 0.006 0 0.048 0.006 0 0.049 0.006 0 0.05 0.006 0 0.051 0.006 0 0.052 0.006 0 0.053 0.006 0 0.054 0.006 0 0.055 0.006 0 0.056 0.006 0 0.057 0.006 0 0.058 0.006 0 0.059 0.006 0 0.06 0.006 0 0.061 0.006 0 0.062 0.006 0 0.063 0.006 0 0.064 0.006 0 0.065 0.006 0 0.066 0.006 0 0.067 0.006 0 0.068 0.006 0 0.069 0.006 0 0.07 0.006 0 0 0.007 0 0.001 0.007 0 0.002 0.007 0 0.003 0.007 0 0.004 0.007 0 0.005 0.007 0 0.006 0.007 0 0.007 0.007 0 0.008 0.007 0 0.009 0.007 0 0.01 0.007 0 0.011 0.007 0 0.012 0.007 0 0.013 0.007 0 0.014 0.007 0 0.015 0.007 0 0.016 0.007 0 0.017 0.007 0 0.018 0.007 0 0.019 0.007 0 0.02 0.007 0 0.021 0.007 0 0.022 0.007 0 0.023 0.007 0 0.024 0.007 0 0.025 0.007 0 0.026 0.007 0 0.027 0.007 0 0.028 0.007 0 0.029 0.007 0 0.03 0.007 0 0.031 0.007 0 0.032 0.007 0 0.033 0.007 0 0.034 0.007 0 0.035 0.007 0 0.036 0.007 0 0.037 0.007 0 0.038 0.007 0 0.039 0.007 0 0.04 0.007 0 0.041 0.007 0 0.042 0.007 0 0.043 0.007 0 0.044 0.007 0 0.045 0.007 0 0.046 0.007 0 0.047 0.007 0 0.048 0.007 0 0.049 0.007 0 0.05 0.007 0 0.051 0.007 0 0.052 0.007 0 0.053 0.007 0 0.054 0.007 0 0.055 0.007 0 0.056 0.007 0 0.057 0.007 0 0.058 0.007 0 0.059 0.007 0 0.06 0.007 0 0.061 0.007 0 0.062 0.007 0 0.063 0.007 0 0.064 0.007 0 0.065 0.007 0 0.066 0.007 0 0.067 0.007 0 0.068 0.007 0 0.069 0.007 0 0.07 0.007 0 0 0.008 0 0.001 0.008 0 0.002 0.008 0 0.003 0.008 0 0.004 0.008 0 0.005 0.008 0 0.006 0.008 0 0.007 0.008 0 0.008 0.008 0 0.009 0.008 0 0.01 0.008 0 0.011 0.008 0 0.012 0.008 0 0.013 0.008 0 0.014 0.008 0 0.015 0.008 0 0.016 0.008 0 0.017 0.008 0 0.018 0.008 0 0.019 0.008 0 0.02 0.008 0 0.021 0.008 0 0.022 0.008 0 0.023 0.008 0 0.024 0.008 0 0.025 0.008 0 0.026 0.008 0 0.027 0.008 0 0.028 0.008 0 0.029 0.008 0 0.03 0.008 0 0.031 0.008 0 0.032 0.008 0 0.033 0.008 0 0.034 0.008 0 0.035 0.008 0 0.036 0.008 0 0.037 0.008 0 0.038 0.008 0 0.039 0.008 0 0.04 0.008 0 0.041 0.008 0 0.042 0.008 0 0.043 0.008 0 0.044 0.008 0 0.045 0.008 0 0.046 0.008 0 0.047 0.008 0 0.048 0.008 0 0.049 0.008 0 0.05 0.008 0 0.051 0.008 0 0.052 0.008 0 0.053 0.008 0 0.054 0.008 0 0.055 0.008 0 0.056 0.008 0 0.057 0.008 0 0.058 0.008 0 0.059 0.008 0 0.06 0.008 0 0.061 0.008 0 0.062 0.008 0 0.063 0.008 0 0.064 0.008 0 0.065 0.008 0 0.066 0.008 0 0.067 0.008 0 0.068 0.008 0 0.069 0.008 0 0.07 0.008 0 0 0.009 0 0.001 0.009 0 0.002 0.009 0 0.003 0.009 0 0.004 0.009 0 0.005 0.009 0 0.006 0.009 0 0.007 0.009 0 0.008 0.009 0 0.009 0.009 0 0.01 0.009 0 0.011 0.009 0 0.012 0.009 0 0.013 0.009 0 0.014 0.009 0 0.015 0.009 0 0.016 0.009 0 0.017 0.009 0 0.018 0.009 0 0.019 0.009 0 0.02 0.009 0 0.021 0.009 0 0.022 0.009 0 0.023 0.009 0 0.024 0.009 0 0.025 0.009 0 0.026 0.009 0 0.027 0.009 0 0.028 0.009 0 0.029 0.009 0 0.03 0.009 0 0.031 0.009 0 0.032 0.009 0 0.033 0.009 0 0.034 0.009 0 0.035 0.009 0 0.036 0.009 0 0.037 0.009 0 0.038 0.009 0 0.039 0.009 0 0.04 0.009 0 0.041 0.009 0 0.042 0.009 0 0.043 0.009 0 0.044 0.009 0 0.045 0.009 0 0.046 0.009 0 0.047 0.009 0 0.048 0.009 0 0.049 0.009 0 0.05 0.009 0 0.051 0.009 0 0.052 0.009 0 0.053 0.009 0 0.054 0.009 0 0.055 0.009 0 0.056 0.009 0 0.057 0.009 0 0.058 0.009 0 0.059 0.009 0 0.06 0.009 0 0.061 0.009 0 0.062 0.009 0 0.063 0.009 0 0.064 0.009 0 0.065 0.009 0 0.066 0.009 0 0.067 0.009 0 0.068 0.009 0 0.069 0.009 0 0.07 0.009 0 0 0.01 0 0.001 0.01 0 0.002 0.01 0 0.003 0.01 0 0.004 0.01 0 0.005 0.01 0 0.006 0.01 0 0.007 0.01 0 0.008 0.01 0 0.009 0.01 0 0.01 0.01 0 0.011 0.01 0 0.012 0.01 0 0.013 0.01 0 0.014 0.01 0 0.015 0.01 0 0.016 0.01 0 0.017 0.01 0 0.018 0.01 0 0.019 0.01 0 0.02
[...]
			<CellData Scalars="Density">
				<DataArray Name="Density" type="Float32" format="ascii">
 0.250245 0.250804 0.250944 0.250881 0.250704 0.250454 0.250156 0.249876 0.249667 0.249581 0.249627 0.249838 0.250234 0.250863 0.251856 0.253461 0.256067 0.259511 0.26306 0.269919 0.28398 0.309755 0.349878 0.408093 0.488267 0.596311 0.7376 0.91642 1.13371 1.39005 1.65007 1.88676 2.11578 2.33435 2.55636 2.78098 3.00933 3.23895 3.46349 3.66593 3.74713 3.67258 3.41267 2.77838 1.81464 1.3097 1.15939 1.09233 1.05805 1.0351 1.02077 1.01241 1.0074 1.00436 1.00255 1.00149 1.00086 1.00049 1.00028 1.00016 1.00009 1.00005 1.00003 1.00001 1.00001 1 1 1 1 1 0.249173 0.249691 0.249843 0.249798 0.249654 0.249421 0.249144 0.248864 0.248651 0.248544 0.248581 0.248764 0.249091 0.249647 0.250516 0.251959 0.254399 0.257743 0.261256 0.268243 0.282714 0.310215 0.353666 0.416852 0.503814 0.619275 0.767019 0.950476 1.17096 1.42378 1.66042 1.88168 2.09223 2.30624 2.5161 2.71329 2.91966 3.11721 3.3153 3.51514 3.58038 3.49662 3.27939 2.79333 2.0161 1.55413 1.36938 1.26189 1.17716 1.10995 1.06733 1.04119 1.0246 1.01447 1.00857 1.00503 1.0029 1.00169 1.00097 1.00054 1.00031 1.00017 1.00009 1.00005 1.00003 1.00002 1.00001 1 1 1 0.249008 0.249541 0.249665 0.249623 0.24945 0.249211 0.248906 0.248594 0.248387 0.248306 0.248304 0.248407 0.248737 0.249237 0.25011 0.251578 0.253934 0.257182 0.26049 0.267333 0.281855 0.308833 0.351678 0.414412 0.50064 0.61451 0.759942 0.939788 1.15605 1.40286 1.62872 1.83883 2.04298 2.23987 2.42494 2.6084 2.80095 2.98804 3.17064 3.35571 3.39469 3.32388 3.08867 2.62939 2.04967 1.74269 1.59652 1.50944 1.42643 1.33174 1.23752 1.15466 1.09498 1.05757 1.03494 1.0205 1.01197 1.00706 1.00405 1.00231 1.00134 1.00074 1.00042 1.00023 1.00013 1.00007 1.00004 1.00002 1.00001 1.00001 0.248811 0.249337 0.249468 0.2494 0.24923 0.248987 0.248684 0.248379 0.248204 0.248112 0.248106 0.248226 0.248449 0.248942 0.249767 0.251033 0.253362 0.256466 0.259494 0.266403 0.281002 0.30783 0.35073 0.413284 0.50024 0.615759 0.76323 0.944859 1.1628 1.39573 1.59955 1.79459 1.97412 2.14265 2.31411 2.48579 2.66717 2.85104 3.01512 3.18955 3.18348 3.09521 2.8377 2.41748 2.01268 1.83136 1.74938 1.69868 1.6464 1.57772 1.49777 1.40689 1.30965 1.2143 1.13569 1.08189 1.0494 1.02945 1.01694 1.00992 1.00574 1.0032 1.00184 1.00103 1.00057 1.00032 1.00018 1.0001 1.00006 1.00003 0.248557 0.249083 0.249212 0.249138 0.248969 0.248734 0.248438 0.248128 0.247967 0.247882 0.247865 0.247946 0.248212 0.248691 0.249319 0.250611 0.252743 0.255654 0.258659 0.26501 0.279318 0.306163 0.349111 0.412743 0.501802 0.619803 0.769916 0.952124 1.16949 1.37863 1.56504 1.73362 1.88854 2.04589 2.20845 2.37237 2.54951 2.72438 2.87989 3.02206 2.97585 2.83838 2.55366 2.1875 1.94044 1.84262 1.80498 1.78817 1.77114 1.74109 1.69689 1.63708 1.56459 1.47913 1.38409 1.28343 1.18935 1.11634 1.06953 1.04189 1.02408 1.01375 1.00802 1.00446 1.00253 1.00145 1.00081 1.00046 1.00027 1.00015 0.248258 0.248773 0.248912 0.248834 0.248675 0.248449 0.248135 0.24782 0.247645 0.247526 0.247539 0.247618 0.247856 0.248194 0.248902 0.249989 0.251831 0.254904 0.257426 0.263378 0.277486 0.303384 0.346179 0.410688 0.50033 0.619953 0.77027 0.9521 1.16453 1.3546 1.5187 1.66436 1.81125 1.95929 2.11242 2.27325 2.43894 2.59352 2.72317 2.79345 2.72206 2.54224 2.24639 1.95655 1.83766 1.80885 1.80408 1.80625 1.8066 1.80196 1.79166 1.76945 1.73612 1.68673 1.62336 1.54636 1.45634 1.35682 1.25389 1.16308 1.09731 1.05799 1.03405 1.0191 1.01105 1.00631 1.00363 1.00214 1.00125 1.00073 0.247929 0.248427 0.248571 0.248501 0.248356 0.24812 0.247797 0.247471 0.247246 0.24714 0.24713 0.247182 0.247373 0.247711 0.248277 0.249244 0.251158 0.253646 0.256145 0.261959 0.27513 0.30072 0.343852 0.408543 0.500763 0.623091 0.775608 0.961425 1.16422 1.32948 1.47141 1.6117 1.75038 1.88772 2.03015 2.17531 2.30169 2.41643 2.51085 2.50628 2.39948 2.19332 1.93039 1.73825 1.6943 1.71236 1.74331 1.77009 1.78958 1.80172 1.808 1.80563 1.79977 1.78599 1.76155 1.72473 1.67197 1.60499 1.5235 1.42952 1.3251 1.22207 1.13623 1.08017 1.04743 1.0273 1.01612 1.00964 1.00567 1.00373 0.247591 0.248077 0.24821 0.248156 0.248026 0.24778 0.247455 0.247099 0.246862 0.24671 0.246682 0.246756 0.24686 0.247155 0.247632 0.248502 0.250198 0.252477 0.254772 0.260076 0.272911 0.298165 0.340728 0.407092 0.501662 0.625043 0.780116 0.967074 1.14895 1.29828 1.4383 1.56582 1.68897 1.81334 1.93085 2.0265 2.1076 2.16837 2.21115 2.14826 1.99531 1.78912 1.59491 1.50022 1.49946 1.54086 1.59169 1.64193 1.68859 1.72713 1.75733 1.77705 1.79211 1.79892 1.79735 1.79053 1.77453 1.74834 1.70836 1.65342 1.58221 1.49701 1.39776 1.28793 1.18548 1.1117 1.06759 1.04197 1.02824 1.02259 0.247266 0.247756 0.24787 0.24784 0.247708 0.247477 0.247135 0.246802 0.246485 0.246297 0.246294 0.246272 0.246379 0.2466 0.246964 0.247689 0.249418 0.251283 0.25322 0.258358 0.270386 0.294421 0.336527 0.402435 0.496498 0.622412 0.778235 0.962674 1.13312 1.27907 1.40494 1.51857 1.62855 1.7244 1.79437 1.83694 1.85685 1.85148 1.81138 1.68118 1.49114 1.33207 1.21984 1.19098 1.22639 1.28373 1.34419 1.4056 1.46721 1.52648 1.5834 1.6344 1.67994 1.71744 1.7448 1.76668 1.7786 1.78005 1.77393 1.75692 1.72839 1.68713 1.62914 1.55286 1.46166 1.3605 1.26888 1.20717 1.17991 1.16639 0.24701 0.247499 0.247619 0.247584 0.247464 0.247222 0.246892 0.246557 0.246173 0.24597 0.245856 0.245849 0.245924 0.246039 0.246379 0.247028 0.248706 0.249982 0.251833 0.256485 0.267637 0.290495 0.330805 0.394871 0.488203 0.612816 0.768584 0.954922 1.12141 1.25627 1.36899 1.46906 1.55192 1.60483 1.62224 1.61376 1.56418 1.45984 1.3045 1.11119 0.947632 0.844387 0.79267 0.789698 0.82679 0.881392 0.945877 1.0177 1.09311 1.16942 1.24641 1.32126 1.39464 1.46541 1.53051 1.59074 1.64265 1.68387 1.71801 1.74139 1.75012 1.74882 1.73238 1.70771 1.68687 1.68296 1.69467 1.71343 1.71896 1.72399 0.246834 0.247339 0.247449 0.247425 0.247293 0.247054 0.246735 0.246344 0.245994 0.24565 0.245553 0.24552 0.245505 0.24562 0.245926 0.246432 0.248011 0.249208 0.250709 0.254793 0.26499 0.285882 0.3238 0.385344 0.475863 0.598168 0.755051 0.94426 1.10512 1.23019 1.33173 1.40735 1.45681 1.46836 1.44499 1.37611 1.24234 1.03907 0.836363 0.669022 0.55418 0.492759 0.467011 0.466274 0.486572 0.519939 0.561224 0.607579 0.658271 0.714857 0.776917 0.844498 0.917673 0.99664 1.08127 1.16905 1.25934 1.34884 1.43454 1.51261 1.57735 1.63432 1.68268 1.729 1.78383 1.87095 1.98436 2.05379 2.03643 2.07149 0.246835 0.247306 0.247386 0.247342 0.247169 0.246934 0.246584 0.24623 0.24586 0.245532 0.245401 0.2453 0.245297 0.245392 0.245602 0.246047 0.247701 0.248523 0.249941 0.253684 0.262572 0.281348 0.316044 0.373247 0.459285 0.579405 0.737469 0.927402 1.08691 1.20457 1.28653 1.33554 1.35248 1.3336 1.26242 1.12239 0.9151 0.702263 0.52681 0.396496 0.32338 0.29207 0.279422 0.27731 0.282693 0.295482 0.315265 0.339477 0.367449 0.39844 0.432248 0.469665 0.510904 0.557187 0.608556 0.666279 0.731129 0.803061 0.883007 0.972947 1.07372 1.18146 1.3023 1.44511 1.61338 1.78707 1.90919 1.88969 1.78228 1.83478 0.247072 0.247511 0.247627 0.247583 0.24742 0.247134 0.246778 0.246359 0.245986 0.245669 0.245571 0.245556 0.245616 0.24577 0.246023 0.246551 0.248096 0.248852 0.250003 0.253028 0.26056 0.276992 0.30784 0.359975 0.440581 0.555969 0.709807 0.900436 1.06317 1.17165 1.23299 1.25752 1.25201 1.19712 1.07599 0.884708 0.664646 0.474249 0.335185 0.267073 0.249097 0.245416 0.244746 0.242708 0.239347 0.235167 0.230444 0.227389 0.228516 0.235757 0.248225 0.263289 0.280751 0.300406 0.323083 0.349273 0.379429 0.414063 0.453601 0.499662 0.553773 0.619597 0.706747 0.817907 0.941295 1.04526 1.09789 1.01745 0.925641 0.976735 0.247584 0.247919 0.248065 0.248009 0.247815 0.247531 0.247164 0.246755 0.246419 0.246172 0.246177 0.246239 0.246402 0.246643 0.246978 0.247529 0.248979 0.249849 0.250777 0.253215 0.259393 0.273249 0.299942 0.346377 0.419886 0.528169 0.677108 0.867693 1.03217 1.13174 1.17499 1.18202 1.15312 1.06065 0.899409 0.686609 0.479656 0.328188 0.2587 0.2491 0.253553 0.262043 0.269288 0.270838 0.264382 0.256417 0.249993 0.240137 0.226224 0.210607 0.199195 0.1944 0.194142 0.197036 0.20246 0.209845 0.219041 0.230174 0.243228 0.258913 0.279243 0.308755 0.352687 0.407401 0.458825 0.490575 0.502275 0.473831 0.447068 0.469018 0.248395 0.24865 0.248949 0.248726 0.248549 0.248268 0.247981 0.247654 0.247449 0.24733 0.247439 0.247627 0.247912 0.248253 0.248704 0.249281 0.25068 0.251658 0.252445 0.254378 0.25918 0.270397 0.292933 0.332924 0.397922 0.497041 0.638529 0.825338 0.997561 1.09184 1.12305 1.11345 1.05612 0.939501 0.761347 0.547892 0.377044 0.281839 0.255479 0.266312 0.286156 0.316882 0.33182 0.32896 0.308119 0.287834 0.275787 0.264925 0.250839 0.232673 0.211162 0.195148 0.185405 0.180032 0.177516 0.176946 0.1778 0.17964 0.182265 0.186071 0.192792 0.206594 0.231519 0.263748 0.293272 0.311869 0.320537 0.319604 0.318478 0.323035 0.249642 0.249744 0.2502 0.249778 0.249831 0.24955 0.249431 0.249203 0.24915 0.249166 0.249431 0.249737 0.250193 0.25064 0.251159 0.251853 0.253291 0.254356 0.255078 0.256677 0.260512 0.269047 0.286804 0.32013 0.376081 0.463717 0.592717 0.768992 0.952022 1.04665 1.07068 1.0516 0.981387 0.857864 0.680309 0.487551 0.350667 0.277896 0.269812 0.291314 0.329117 0.364868 0.382306 0.369365 0.333057 0.304985 0.289031 0.278729 0.266483 0.248377 0.225072 0.203224 0.189456 0.181311 0.176849 0.174887 0.174316 0.174624 0.175973 0.178575 0.184142 0.197138 0.220623 0.248439 0.271244 0.285613 0.294205 0.299296 0.304301 0.304661 0.251242 0.251096 0.251814 0.251352 0.251743 0.251441 0.251447 0.251334 0.251587 0.25169 0.252149 0.252572 0.253155 0.253789 0.254394 0.255164 0.256642 0.257982 0.258646 0.259964 0.263051 0.269806 0.283372 0.309248 0.355253 0.430018 0.54286 0.700806 0.885687 0.995942 1.03269 1.0172 0.949114 0.83212 0.668663 0.488486 0.358724 0.302501 0.306818 0.330468 0.379597 0.413481 0.422867 0.39501 0.346492 0.313609 0.295343 0.285008 0.273723 0.256902 0.234269 0.209514 0.19294 0.182929 0.17743 0.174857 0.173995 0.174257 0.175664 0.178664 0.185532 0.201676 0.228364 0.256841 0.277656 0.290463 0.298055 0.30225 0.30698 0.306179 0.253197 0.252987 0.254019 0.253644 0.254292 0.254031 0.254357 0.254184 0.254775 0.254944 0.255544 0.25613 0.256842 0.257609 0.258398 0.259243 0.260625 0.262366 0.263133 0.264153 0.266466 0.271605 0.281817 0.301088 0.336493 0.396465 0.49016 0.625742 0.801233 0.936648 0.992399 0.988259 0.940532 0.839717 0.689252 0.520635 0.408677 0.372724 0.379754 0.404857 0.443968 0.459108 0.443546 0.385962 0.33311 0.305301 0.292256 0.285696 0.276797 0.261715 0.239815 0.214034 0.195613 0.184375 0.178004 0.174835 0.173691 0.173845 0.175145 0.178461 0.186598 0.206079 0.235328 0.263808 0.283102 0.294444 0.301194 0.305061 0.309412 0.308331 0.255719 0.255557 0.257048 0.256561 0.257488 0.257172 0.257965 0.257689 0.25854 0.258835 0.259542 0.260231 0.261095 0.261983 0.262903 0.263858 0.26512 0.267033 0.268233 0.269046 0.270699 0.274337 0.281685 0.295161 0.320138 0.363939 0.43582 0.54478 0.694186 0.852417 0.939946 0.957517 0.93094 0.862129 0.74178 0.601911 0.52424 0.498565 0.497342 0.504853 0.507895 0.479186 0.411883 0.348578 0.315405 0.297638 0.289654 0.285614 0.277775 0.263373 0.242297 0.21672 0.197197 0.185221 0.178293 0.174747 0.173368 0.173427 0.174756 0.178448 0.187722 0.209919 0.241513 0.270041 0.287848 0.298005 0.304078 0.307722 0.311687 0.310746 0.258825 0.258676 0.260546 0.259955 0.261317 0.260835 0.262058 0.261767 0.262735 0.263135 0.263926 0.264705 0.265624 0.266642 0.267683 0.268716 0.269859 0.271644 0.273414 0.274389 0.275389 0.277705 0.282694 0.2917 0.307641 0.336097 0.3833 0.459035 0.572548 0.719977 0.844366 0.901913 0.89898 0.864533 0.796621 0.715462 0.66329 0.62412 0.591695 0.561054 0.512472 0.433518 0.359746 0.321033 0.300243 0.290076 0.286744 0.284288 0.276826 0.263061 0.243122 0.218162 0.198161 0.185748 0.178423 0.174588 0.173016 0.173011 0.174382 0.178333 0.188681 0.212977 0.246206 0.275002 0.292037 0.300997 0.306818 0.310161 0.31403 0.313415 0.262512 0.262461 0.264428 0.263757 0.265536 0.264908 0.266466 0.266281 0.267173 0.267696 0.268443 0.269306 0.270271 0.271304 0.272427 0.273607 0.274666 0.276144 0.27812 0.279379 0.280552 0.2817 0.284431 0.289928 0.299306 0.315769 0.342835 0.386011 0.453142 0.552752 0.67578 0.769918 0.812405 0.805159 0.775255 0.730313 0.685929 0.639692 0.585897 0.51364 0.421278 0.351474 0.315399 0.297577 0.289228 0.286136 0.286152 0.284209 0.276847 0.263081 0.243243 0.218463 0.198282 0.185736 0.178285 0.174321 0.172635 0.172589 0.174086 0.178382 0.189828 0.216281 0.25057 0.279102 0.295965 0.304069 0.309246 0.312392 0.316135 0.315911 0.266668 0.266809 0.268687 0.268051 0.270017 0.269323 0.270865 0.270943 0.271606 0.272236 0.272987 0.273758 0.274703 0.275849 0.276885 0.278095 0.279288 0.280567 0.28209 0.283913 0.28508 0.286331 0.287826 0.290426 0.29509 0.303484 0.316941 0.337745 0.369717 0.415511 0.478489 0.556127 0.620833 0.63719 0.631422 0.612147 0.574297 0.519847 0.452866 0.378573 0.329197 0.304544 0.292758 0.287306 0.285323 0.28558 0.285826 0.282485 0.274321 0.260775 0.241705 0.217894 0.197962 0.185483 0.178001 0.174002 0.172262 0.172197 0.173778 0.178276 0.190583 0.218443 0.253659 0.281985 0.298089 0.306568 0.311408 0.314374 0.31786 0.318121 0.271101 0.27141 0.273122 0.272489 0.27438 0.27399 0.275098 0.27539 0.276025 0.276473 0.277226 0.278112 0.278857 0.279909 0.281115 0.282244 0.283338 0.284646 0.285958 0.287404 0.289001 0.290362 0.291439 0.293095 0.295079 0.298539 0.304231 0.312932 0.325735 0.343535 0.366797 0.394804 0.418114 0.425791 0.424173 0.414245 0.392534 0.361734 0.327973 0.304719 0.292911 0.287338 0.28564 0.28497 0.285352 0.286267 0.285423 0.281047 0.27234 0.258793 0.24007 0.216668 0.197139 0.184924 0.177607 0.173635 0.171891 0.171843 0.173552 0.178377 0.191546 0.22026 0.255335 0.283842 0.300489 0.308928 0.313022 0.315739 0.319203 0.319815 0.27556 0.275954 0.277532 0.276925 0.278521 0.278426 0.279308 0.279413 0.280005 0.280577 0.281014 0.281863 0.2828 0.283628 0.284624 0.285961 0.287142 0.288228 0.289662 0.290983 0.292204 0.293683 0.29473 0.295986 0.297174 0.298661 0.300748 0.303637 0.307892 0.313394 0.320319 0.32772 0.33175 0.331279 0.328932 0.323366 0.314851 0.30462 0.294283 0.287988 0.285657 0.285044 0.285364 0.28574 0.286464 0.286291 0.283952 0.27874 0.26983 0.256345 0.237898 0.215054 0.196192 0.184284 0.177061 0.173164 0.171494 0.171504 0.173313 0.178328 0.192553 0.22266 0.257833 0.284316 0.300199 0.309427 0.314447 0.31706 0.320378 0.32123 0.279732 0.280233 0.281699 0.281012 0.282433 0.282343 0.28299 0.283217 0.283425 0.284002 0.284619 0.285126 0.285969 0.287025 0.287957 0.288948 0.290318 0.291561 0.292688 0.294122 0.295386 0.296469 0.297731 0.298653 0.299578 0.300538 0.301443 0.302261 0.303494 0.304769 0.306206 0.30718 0.306609 0.304967 0.302943 0.299962 0.296187 0.292241 0.28922 0.286872 0.286459 0.286378 0.286559 0.286732 0.286749 0.285755 0.282912 0.27736 0.268152 0.254434 0.235858 0.213147 0.194891 0.183393 0.176533 0.172854 0.171235 0.171255 0.173161 0.178369 0.192996 0.223826 0.259772 0.286791 0.301534 0.309318 0.314611 0.317963 0.32133 0.322222 0.283516 0.283879 0.285461 0.284646 0.285774 0.28584 0.286053 0.286299 0.286563 0.286801 0.287413 0.288114 0.288763 0.289607 0.29075 0.291808 0.292848 0.294209 0.295497 0.296646 0.298042 0.299218 0.30027 0.301186 0.301921 0.302626 0.303192 0.303407 0.303802 0.303898 0.303713 0.303038 0.301867 0.300285 0.298377 0.296137 0.293801 0.291406 0.28977 0.288583 0.28795 0.287543 0.287291 0.287053 0.286465 0.284886 0.281589 0.275672 0.266219 0.252386 0.233784 0.211366 0.194001 0.182927 0.176204 0.17254 0.170977 0.171065 0.173065 0.17848 0.193986 0.225312 0.260146 0.285778 0.300895 0.309372 0.314527 0.317867 0.321489 0.322286 0.286734 0.286937 0.288346 0.2878 0.288467 0.288594 0.288699 0.288687 0.288939 0.28926 0.289619 0.290268 0.291089 0.291902 0.292848 0.294002 0.295149 0.296271 0.297566 0.298906 0.300054 0.30124 0.302398 0.303208 0.303888 0.304375 0.304636 0.304759 0.304877 0.304616 0.304013 0.303115 0.301931 0.300362 0.298503 0.296444 0.294342 0.292345 0.290645 0.289748 0.288912 0.288271 0.287747 0.287066 0.286121 0.284386 0.2809 0.274592 0.264636 0.250385 0.231587 0.209336 0.192632 0.182004 0.175597 0.172181 0.170735 0.170839 0.172854 0.178308 0.194339 0.227057 0.262986 0.288009 0.301515 0.309319 0.314415 0.317633 0.321045 0.321879 0.289132 0.289416 0.290421 0.290226 0.290555 0.290504 0.290557 0.290519 0.290605 0.290926 0.291404 0.291988 0.292746 0.293651 0.294639 0.295717 0.296887 0.29808 0.299226 0.300521 0.301798 0.3028 0.303815 0.3048 0.305499 0.305903 0.305986 0.306009 0.305859 0.30537 0.304645 0.303662 0.302398 0.30077 0.298898 0.296908 0.294961 0.293095 0.291365 0.290406 0.289426 0.28859 0.287948 0.287073 0.285767 0.28358 0.279761 0.273212 0.263082 0.248742 0.230016 0.208239 0.192065 0.18169 0.175412 0.172009 0.170572 0.170656 0.172696 0.178277 0.194433 0.226784 0.261736 0.286648 0.30072 0.30877 0.313883 0.317049 0.320474 0.321602 0.290798 0.291504 0.29217 0.292139 0.292265 0.29211 0.291979 0.291904 0.291959 0.292193 0.292658 0.293312 0.294105 0.29503 0.296047 0.297143 0.298318 0.299492 0.300654 0.301857 0.303041 0.304017 0.305016 0.305981 0.306607 0.306837 0.306797 0.30678 0.306519 0.306031 0.305333 0.304352 0.303088 0.301519 0.299697 0.297726 0.295731 0.293688 0.291904 0.290625 0.289477 0.288507 0.287781 0.286861 0.285426 0.283008 0.278909 0.272083 0.261791 0.247537 0.229077 0.207623 0.191788 0.181551 0.175284 0.1719 0.170512 0.170663 0.172789 0.178538 0.195566 0.228896 0.264485 0.288694 0.301764 0.309221 0.314014 0.317061 0.32039 0.32142 0.289476 0.290475 0.290857 0.290956 0.290971 0.290924 0.2908 0.290749 0.290807 0.291001 0.291382 0.29197 0.29272 0.293578 0.294546 0.2956 0.296726 0.297879 0.29896 0.300072 0.301241 0.302211 0.303131 0.304079 0.304758 0.304944 0.30487 0.304796 0.304453 0.303927 0.303169 0.302149 0.300883 0.299416 0.297792 0.296095 0.2944 0.292733 0.291411 0.290208 0.289207 0.288316 0.287696 0.286813 0.285202 0.282497 0.278226 0.271444 0.261308 0.247242 0.22899 0.207716 0.191804 0.181496 0.175206 0.171803 0.170354 0.170457 0.172559 0.178284 0.194949 0.227969 0.263457 0.288173 0.301639 0.309161 0.313948 0.31706 0.320485 0.321379
				</DataArray>
				<DataArray Name="Energy" type="Float32" format="ascii">