<?xml version="1.0"?>
<VTKFile type="PolyData">
	<PolyData>
		<Piece NumberOfPoints="1206" NumberOfPolys="1000">
			<Points>
				<DataArray type="Float32" NumberOfComponents="3" format="ascii">
 0 0 0 0.005 0 0 0.01 0 0 0.015 0 0 0.02 0 0 0.025 0 0 0.03 0 0 0.035 0 0 0.04 0 0 0.045 0 0 0.05 0 0 0.055 0 0 0.06 0 0 0.065 0 0 0.07 0 0 0.075 0 0 0.08 0 0 0.085 0 0 0.09 0 0 0.095 0 0 0.1 0 0 0.105 0 0 0.11 0 0 0.115 0 0 0.12 0 0 0.125 0 0 0.13 0 0 0.135 0 0 0.14 0 0 0.145 0 0 0.15 0 0 0.155 0 0 0.16 0 0 0.165 0 0 0.17 0 0 0.175 0 0 0.18 0 0 0.185 0 0 0.19 0 0 0.195 0 0 0.2 0 0 0.205 0 0 0.21 0 0 0.215 0 0 0.22 0 0 0.225 0 0 0.23 0 0 0.235 0 0 0.24 0 0 0.245 0 0 0.25 0 0 0.255 0 0 0.26 0 0 0.265 0 0 0.27 0 0 0.275 0 0 0.28 0 0 0.285 0 0 0.29 0 0 0.295 0 0 0.3 0 0 0.305 0 0 0.31 0 0 0.315 0 0 0.32 0 0 0.325 0 0 0.33 0 0 0.335 0 0 0.34 0 0 0.345 0 0 0.35 0 0 0.355 0 0 0.36 0 0 0.365 0 0 0.37 0 0 0.375 0 0 0.38 0 0 0.385 0 0 0.39 0 0 0.395 0 0 0.4 0 0 0.405 0 0 0.41 0 0 0.415 0 0 0.42 0 0 0.425 0 0 0.43 0 0 0.435 0 0 0.44 0 0 0.445 0 0 0.45 0 0 0.455 0 0 0.46 0 0 0.465 0 0 0.47 0 0 0.475 0 0 0.48 0 0 0.485 0 0 0.49 0 0 0.495 0 0 0.5 0 0 0.505 0 0 0.51 0 0 0.515 0 0 0.52 0 0 0.525 0 0 0.53 0 0 0.535 0 0 0.54 0 0 0.545 0 0 0.55 0 0 0.555 0 0 0.56 0 0 0.565 0 0 0.57 0 0 0.575 0 0 0.58 0 0 0.585 0 0 0.59 0 0 0.595 0 0 0.6 0 0 0.605 0 0 0.61 0 0 0.615 0 0 0.62 0 0 0.625 0 0 0.63 0 0 0.635 0 0 0.64 0 0 0.645 0 0 0.65 0 0 0.655 0 0 0.66 0 0 0.665 0 0 0.67 0 0 0.675 0 0 0.68 0 0 0.685 0 0 0.69 0 0 0.695 0 0 0.7 0 0 0.705 0 0 0.71 0 0 0.715 0 0 0.72 0 0 0.725 0 0 0.73 0 0 0.735 0 0 0.74 0 0 0.745 0 0 0.75 0 0 0.755 0 0 0.76 0 0 0.765 0 0 0.77 0 0 0.775 0 0 0.78 0 0 0.785 0 0 0.79 0 0 0.795 0 0 0.8 0 0 0.805 0 0 0.81 0 0 0.815 0 0 0.82 0 0 0.825 0 0 0.83 0 0 0.835 0 0 0.84 0 0 0.845 0 0 0.85 0 0 0.855 0 0 0.86 0 0 0.865 0 0 0.87 0 0 0.875 0 0 0.88 0 0 0.885 0 0 0.89 0 0 0.895 0 0 0.9 0 0 0.905 0 0 0.91 0 0 0.915 0 0 0.92 0 0 0.925 0 0 0.93 0 0 0.935 0 0 0.94 0 0 0.945 0 0 0.95 0 0 0.955 0 0 0.96 0 0 0.965 0 0 0.97 0 0 0.975 0 0 0.98 0 0 0.985 0 0 0.99 0 0 0.995 0 0 1 0 0 0 0.02 0 0.005 0.02 0 0.01 0.02 0 0.015 0.02 0 0.02 0.02 0 0.025 0.02 0 0.03 0.02 0 0.035 0.02 0 0.04 0.02 0 0.045 0.02 0 0.05 0.02 0 0.055 0.02 0 0.06 0.02 0 0.065 0.02 0 0.07 0.02 0 0.075 0.02 0 0.08 0.02 0 0.085 0.02 0 0.09 0.02 0 0.095 0.02 0 0.1 0.02 0 0.105 0.02 0 0.11 0.02 0 0.115 0.02 0 0.12 0.02 0 0.125 0.02 0 0.13 0.02 0 0.135 0.02 0 0.14 0.02 0 0.145 0.02 0 0.15 0.02 0 0.155 0.02 0 0.16 0.02 0 0.165 0.02 0 0.17 0.02 0 0.175 0.02 0 0.18 0.02 0 0.185 0.02 0 0.19 0.02 0 0.195 0.02 0 0.2 0.02 0 0.205 0.02 0 0.21 0.02 0 0.215 0.02 0 0.22 0.02 0 0.225 0.02 0 0.23 0.02 0 0.235 0.02 0 0.24 0.02 0 0.245 0.02 0 0.25 0.02 0 0.255 0.02 0 0.26 0.02 0 0.265 0.02 0 0.27 0.02 0 0.275 0.02 0 0.28 0.02 0 0.285 0.02 0 0.29 0.02 0 0.295 0.02 0 0.3 0.02 0 0.305 0.02 0 0.31 0.02 0 0.315 0.02 0 0.32 0.02 0 0.325 0.02 0 0.33 0.02 0 0.335 0.02 0 0.34 0.02 0 0.345 0.02 0 0.35 0.02 0 0.355 0.02 0 0.36 0.02 0 0.365 0.02 0 0.37 0.02 0 0.375 0.02 0 0.38 0.02 0 0.385 0.02 0 0.39 0.02 0 0.395 0.02 0 0.4 0.02 0 0.405 0.02 0 0.41 0.02 0 0.415 0.02 0 0.42 0.02 0 0.425 0.02 0 0.43 0.02 0 0.435 0.02 0 0.44 0.02 0 0.445 0.02 0 0.45 0.02 0 0.455 0.02 0 0.46 0.02 0 0.465 0.02 0 0.47 0.02 0 0.475 0.02 0 0.48 0.02 0 0.485 0.02 0 0.49 0.02 0 0.495 0.02 0 0.5 0.02 0 0.505 0.02 0 0.51 0.02 0 0.515 0.02 0 0.52 0.02 0 0.525 0.02 0 0.53 0.02 0 0.535 0.02 0 0.54 0.02 0 0.545 0.02 0 0.55 0.02 0 0.555 0.02 0 0.56 0.02 0 0.565 0.02 0 0.57 0.02 0 0.575 0.02 0 0.58 0.02 0 0.585 0.02 0 0.59 0.02 0 0.595 0.02 0 0.6 0.02 0 0.605 0.02 0 0.61 0.02 0 0.615 0.02 0 0.62 0.02 0 0.625 0.02 0 0.63 0.02 0 0.635 0.02 0 0.64 0.02 0 0.645 0.02 0 0.65 0.02 0 0.655 0.02 0 0.66 0.02 0 0.665 0.02 0 0.67 0.02 0 0.675 0.02 0 0.68 0.02 0 0.685 0.02 0 0.69 0.02 0 0.695 0.02 0 0.7 0.02 0 0.705 0.02 0 0.71 0.02 0 0.715 0.02 0 0.72 0.02 0 0.725 0.02 0 0.73 0.02 0 0.735 0.02 0 0.74 0.02 0 0.745 0.02 0 0.75 0.02 0 0.755 0.02 0 0.76 0.02 0 0.765 0.02 0 0.77 0.02 0 0.775 0.02 0 0.78 0.02 0 0.785 0.02 0 0.79 0.02 0 0.795 0.02 0 0.8 0.02 0 0.805 0.02 0 0.81 0.02 0 0.815 0.02 0 0.82 0.02 0 0.825 0.02 0 0.83 0.02 0 0.835 0.02 0 0.84 0.02 0 0.845 0.02 0 0.85 0.02 0 0.855 0.02 0 0.86 0.02 0 0.865 0.02 0 0.87 0.02 0 0.875 0.02 0 0.88 0.02 0 0.885 0.02 0 0.89 0.02 0 0.895 0.02 0 0.9 0.02 0 0.905 0.02 0 0.91 0.02 0 0.915 0.02 0 0.92 0.02 0 0.925 0.02 0 0.93 0.02 0 0.935 0.02 0 0.94 0.02 0 0.945 0.02 0 0.95 0.02 0 0.955 0.02 0 0.96 0.02 0 0.965 0.02 0 0.97 0.02 0 0.975 0.02 0 0.98 0.02 0 0.985 0.02 0 0.99 0.02 0 0.995 0.02 0 1 0.02 0 0 0.04 0 0.005 0.04 0 0.01 0.04 0 0.015 0.04 0 0.02 0.04 0 0.025 0.04 0 0.03 0.04 0 0.035 0.04 0 0.04 0.04 0 0.045 0.04 0 0.05 0.04 0 0.055 0.04 0 0.06 0.04 0 0.065 0.04 0 0.07 0.04 0 0.075 0.04 0 0.08 0.04 0 0.085 0.04 0 0.09 0.04 0 0.095 0.04 0 0.1 0.04 0 0.105 0.04 0 0.11 0.04 0 0.115 0.04 0 0.12 0.04 0 0.125 0.04 0 0.13 0.04 0 0.135 0.04 0 0.14 0.04 0 0.145 0.04 0 0.15 0.04 0 0.155 0.04 0 0.16 0.04 0 0.165 0.04 0 0.17 0.04 0 0.175 0.04 0 0.18 0.04 0 0.185 0.04 0 0.19 0.04 0 0.195 0.04 0 0.2 0.04 0 0.205 0.04 0 0.21 0.04 0 0.215 0.04 0 0.22 0.04 0 0.225 0.04 0 0.23 0.04 0 0.235 0.04 0 0.24 0.04 0 0.245 0.04 0 0.25 0.04 0 0.255 0.04 0 0.26 0.04 0 0.265 0.04 0 0.27 0.04 0 0.275 0.04 0 0.28 0.04 0 0.285 0.04 0 0.29 0.04 0 0.295 0.04 0 0.3 0.04 0 0.305 0.04 0 0.31 0.04 0 0.315 0.04 0 0.32 0.04 0 0.325 0.04 0 0.33 0.04 0 0.335 0.04 0 0.34 0.04 0 0.345 0.04 0 0.35 0.04 0 0.355 0.04 0 0.36 0.04 0 0.365 0.04 0 0.37 0.04 0 0.375 0.04 0 0.38 0.04 0 0.385 0.04 0 0.39 0.04 0 0.395 0.04 0 0.4 0.04 0 0.405 0.04 0 0.41 0.04 0 0.415 0.04 0 0.42 0.04 0 0.425 0.04 0 0.43 0.04 0 0.435 0.04 0 0.44 0.04 0 0.445 0.04 0 0.45 0.04 0 0.455 0.04 0 0.46 0.04 0 0.465 0.04 0 0.47 0.04 0 0.475 0.04 0 0.48 0.04 0 0.485 0.04 0 0.49 0.04 0 0.495 0.04 0 0.5 0.04 0 0.505 0.04 0 0.51 0.04 0 0.515 0.04 0 0.52 0.04 0 0.525 0.04 0 0.53 0.04 0 0.535 0.04 0 0.54 0.04 0 0.545 0.04 0 0.55 0.04 0 0.555 0.04 0 0.56 0.04 0 0.565 0.04 0 0.57 0.04 0 0.575 0.04 0 0.58 0.04 0 0.585 0.04 0 0.59 0.04 0 0.595 0.04 0 0.6 0.04 0 0.605 0.04 0 0.61 0.04 0 0.615 0.04 0 0.62 0.04 0 0.625 0.04 0 0.63 0.04 0 0.635 0.04 0 0.64 0.04 0 0.645 0.04 0 0.65 0.04 0 0.655 0.04 0 0.66 0.04 0 0.665 0.04 0 0.67 0.04 0 0.675 0.04 0 0.68 0.04 0 0.685 0.04 0 0.69 0.04 0 0.695 0.04 0 0.7 0.04 0 0.705 0.04 0 0.71 0.04 0 0.715 0.04 0 0.72 0.04 0 0.725 0.04 0 0.73 0.04 0 0.735 0.04 0 0.74 0.04 0 0.745 0.04 0 0.75 0.04 0 0.755 0.04 0 0.76 0.04 0 0.765 0.04 0 0.77 0.04 0 0.775 0.04 0 0.78 0.04 0 0.785 0.04 0 0.79 0.04 0 0.795 0.04 0 0.8 0.04 0 0.805 0.04 0 0.81 0.04 0 0.815 0.04 0 0.82 0.04 0 0.825 0.04 0 0.83 0.04 0 0.835 0.04 0 0.84 0.04 0 0.845 0.04 0 0.85 0.04 0 0.855 0.04 0 0.86 0.04 0 0.865 0.04 0 0.87 0.04 0 0.875 0.04 0 0.88 0.04 0 0.885 0.04 0 0.89 0.04 0 0.895 0.04 0 0.9 0.04 0 0.905 0.04 0 0.91 0.04 0 0.915 0.04 0 0.92 0.04 0 0.925 0.04 0 0.93 0.04 0 0.935 0.04 0 0.94 0.04 0 0.945 0.04 0 0.95 0.04 0 0.955 0.04 0 0.96 0.04 0 0.965 0.04 0 0.97 0.04 0 0.975 0.04 0 0.98 0.04 0 0.985 0.04 0 0.99 0.04 0 0.995 0.04 0 1 0.04 0 0 0.06 0 0.005 0.06 0 0.01 0.06 0 0.015 0.06 0 0.02 0.06 0 0.025 0.06 0 0.03 0.06 0 0.035 0.06 0 0.04 0.06 0 0.045 0.06 0 0.05 0.06 0 0.055 0.06 0 0.06 0.06 0 0.065 0.06 0 0.07 0.06 0 0.075 0.06 0 0.08 0.06 0 0.085 0.06 0 0.09 0.06 0 0.095 0.06 0 0.1 0.06 0 0.105 0.06 0 0.11 0.06 0 0.115 0.06 0 0.12 0.06 0 0.125 0.06 0 0.13 0.06 0 0.135 0.06 0 0.14 0.06 0 0.145 0.06 0 0.15 0.06 0 0.155 0.06 0 0.16 0.06 0 0.165 0.06 0 0.17 0.06 0 0.175 0.06 0 0.18 0.06 0 0.185 0.06 0 0.19 0.06 0 0.195 0.06 0 0.2 0.06 0 0.205 0.06 0 0.21 0.06 0 0.215 0.06 0 0.22 0.06 0 0.225 0.06 0 0.23 0.06 0 0.235 0.06 0 0.24 0.06 0 0.245 0.06 0 0.25 0.06 0 0.255 0.06 0 0.26 0.06 0 0.265 0.06 0 0.27 0.06 0 0.275 0.06 0 0.28 0.06 0 0.285 0.06 0 0.29 0.06 0 0.295 0.06 0 0.3 0.06 0 0.305 0.06 0 0.31 0.06 0 0.315 0.06 0 0.32 0.06 0 0.325 0.06 0 0.33 0.06 0 0.335 0.06 0 0.34 0.06 0 0.345 0.06 0 0.35 0.06 0 0.355 0.06 0 0.36 0.06 0 0.365 0.06 0 0.37 0.06 0 0.375 0.06 0 0.38 0.06 0 0.385 0.06 0 0.39 0.06 0 0.395 0.06 0 0.4 0.06 0 0.405 0.06 0 0.41 0.06 0 0.415 0.06 0 0.42 0.06 0 0.425 0.06 0 0.43 0.06 0 0.435 0.06 0 0.44 0.06 0 0.445 0.06 0 0.45 0.06 0 0.455 0.06 0 0.46 0.06 0 0.465 0.06 0 0.47 0.06 0 0.475 0.06 0 0.48 0.06 0 0.485 0.06 0 0.49 0.06 0 0.495 0.06 0 0.5 0.06 0 0.505 0.06 0 0.51 0.06 0 0.515 0.06 0 0.52 0.06 0 0.525 0.06 0 0.53 0.06 0 0.535 0.06 0 0.54 0.06 0 0.545 0.06 0 0.55 0.06 0 0.555 0.06 0 0.56 0.06 0 0.565 0.06 0 0.57 0.06 0 0.575 0.06 0 0.58 0.06 0 0.585 0.06 0 0.59 0.06 0 0.595 0.06 0 0.6 0.06 0 0.605 0.06 0 0.61 0.06 0 0.615 0.06 0 0.62 0.06 0 0.625 0.06 0 0.63 0.06 0 0.635 0.06 0 0.64 0.06 0 0.645 0.06 0 0.65 0.06 0 0.655 0.06 0 0.66 0.06 0 0.665 0.06 0 0.67 0.06 0 0.675 0.06 0 0.68 0.06 0 0.685 0.06 0 0.69 0.06 0 0.695 0.06 0 0.7 0.06 0 0.705 0.06 0 0.71 0.06 0 0.715 0.06 0 0.72 0.06 0 0.725 0.06 0 0.73 0.06 0 0.735 0.06 0 0.74 0.06 0 0.745 0.06 0 0.75 0.06 0 0.755 0.06 0 0.76 0.06 0 0.765 0.06 0 0.77 0.06 0 0.775 0.06 0 0.78 0.06 0 0.785 0.06 0 0.79 0.06 0 0.795 0.06 0 0.8 0.06 0 0.805 0.06 0 0.81 0.06 0 0.815 0.06 0 0.82 0.06 0 0.825 0.06 0 0.83 0.06 0 0.835 0.06 0 0.84 0.06 0 0.845 0.06 0 0.85 0.06 0 0.855 0.06 0 0.86 0.06 0 0.865 0.06 0 0.87 0.06 0 0.875 0.06 0 0.88 0.06 0 0.885 0.06 0 0.89 0.06 0 0.895 0.06 0 0.9 0.06 0 0.905 0.06 0 0.91 0.06 0 0.915 0.06 0 0.92 0.06 0 0.925 0.06 0 0.93 0.06 0 0.935 0.06 0 0.94 0.06 0 0.945 0.06 0 0.95 0.06 0 0.955 0.06 0 0.96 0.06 0 0.965 0.06 0 0.97 0.06 0 0.975 0.06 0 0.98 0.06 0 0.985 0.06 0 0.99 0.06 0 0.995 0.06 0 1 0.06 0 0 0.08 0 0.005 0.08 0 0.01 0.08 0 0.015 0.08 0 0.02 0.08 0 0.025 0.08 0 0.03 0.08 0 0.035 0.08 0 0.04 0.08 0 0.045 0.08 0 0.05 0.08 0 0.055 0.08 0 0.06 0.08 0 0.065 0.08 0 0.07 0.08 0 0.075 0.08 0 0.08 0.08 0 0.085 0.08 0 0.09 0.08 0 0.095 0.08 0 0.1 0.08 0 0.105 0.08 0 0.11 0.08 0 0.115 0.08 0 0.12 0.08 0 0.125 0.08 0 0.13 0.08 0 0.135 0.08 0 0.14 0.08 0 0.145 0.08 0 0.15 0.08 0 0.155 0.08 0 0.16 0.08 0 0.165 0.08 0
[...]
			<CellData Scalars="Density">
				<DataArray Name="Density" type="Float32" format="ascii">
 1 1 1 1 1 1 1 1 1 1 1 1 1 1 1 1 1 1 1 1 1 1 1 1 1 1 1 1 1 1 1 1 1 1 1 0.999999 0.999997 0.999992 0.999979 0.999942 0.999846 0.99963 0.999221 0.998525 0.997428 0.995778 0.993406 0.990102 0.985712 0.9802 0.973632 0.966115 0.957752 0.948615 0.938732 0.928187 0.917047 0.9054 0.893334 0.88093 0.868263 0.855396 0.842381 0.829257 0.816064 0.802838 0.789599 0.776301 0.763137 0.750194 0.737424 0.724912 0.712741 0.700856 0.689175 0.677513 0.665869 0.654284 0.642823 0.631323 0.619705 0.608299 0.597309 0.586725 0.576416 0.566381 0.556602 0.547097 0.537834 0.528767 0.519948 0.511448 0.503257 0.495314 0.487627 0.480272 0.473382 0.466966 0.461039 0.455593 0.45058 0.44598 0.4418 0.438198 0.435186 0.432684 0.430578 0.428795 0.427303 0.426081 0.425099 0.424335 0.423756 0.42331 0.42296 0.422685 0.42247 0.422288 0.422106 0.421901 0.42165 0.421326 0.420887 0.420292 0.419484 0.418402 0.416999 0.415256 0.413201 0.41092 0.40852 0.406176 0.404025 0.40236 0.40127 0.375626 0.306301 0.263956 0.263745 0.264081 0.264591 0.265161 0.265713 0.26621 0.26663 0.266966 0.267223 0.267411 0.267542 0.267631 0.26769 0.267728 0.267751 0.267764 0.267776 0.267794 0.267816 0.267814 0.267779 0.267771 0.267812 0.267815 0.267565 0.26664 0.264061 0.257056 0.242618 0.216221 0.183727 0.146084 0.129071 0.125677 0.125109 0.125017 0.125003 0.125 0.125 0.125 0.125 0.125 0.125 0.125 0.125 0.125 0.125 0.125 0.125 0.125 0.125 0.125 0.125 0.125 0.125 0.125 0.125 0.125 0.125 0.125 0.125 0.125 1 1 1 1 1 1 1 1 1 1 1 1 1 1 1 1 1 1 1 1 1 1 1 1 1 1 1 1 1 1 1 1 1 1 1 0.999999 0.999997 0.999992 0.999979 0.999941 0.999839 0.999601 0.999137 0.998351 0.997151 0.995419 0.993049 0.989833 0.985509 0.979932 0.97314 0.965288 0.95656 0.947105 0.937017 0.926355 0.915184 0.903576 0.8916 0.87932 0.866806 0.854122 0.841321 0.828436 0.815487 0.802478 0.789407 0.776306 0.763311 0.750461 0.737495 0.724503 0.711774 0.699392 0.687464 0.675848 0.664345 0.65298 0.641868 0.631083 0.620326 0.609472 0.598506 0.587754 0.577328 0.567186 0.557301 0.547679 0.538269 0.529047 0.520082 0.511444 0.503152 0.495318 0.48778 0.480509 0.473636 0.467216 0.461244 0.455758 0.450846 0.446486 0.442683 0.439306 0.436231 0.433538 0.431292 0.429388 0.427782 0.426481 0.425435 0.424587 0.423882 0.423329 0.422939 0.422656 0.422432 0.422234 0.422046 0.421835 0.421572 0.421234 0.420782 0.420177 0.419354 0.418255 0.41684 0.415096 0.413061 0.4108 0.408439 0.406167 0.404097 0.402492 0.401425 0.376448 0.307121 0.264065 0.263746 0.264067 0.264567 0.265136 0.265693 0.266194 0.266618 0.266958 0.267221 0.267415 0.267554 0.267651 0.267715 0.267757 0.267781 0.267789 0.267789 0.2678 0.267834 0.267841 0.267769 0.267614 0.267345 0.266814 0.265924 0.264422 0.262096 0.256854 0.24731 0.22523 0.192297 0.14856 0.129267 0.125721 0.125114 0.125018 0.125003 0.125 0.125 0.125 0.125 0.125 0.125 0.125 0.125 0.125 0.125 0.125 0.125 0.125 0.125 0.125 0.125 0.125 0.125 0.125 0.125 0.125 0.125 0.125 0.125 0.125 1 1 1 1 1 1 1 1 1 1 1 1 1 1 1 1 1 1 1 1 1 1 1 1 1 1 1 1 1 1 1 1 1 1 1 0.999999 0.999997 0.999992 0.999979 0.999942 0.999847 0.999633 0.999227 0.998557 0.997528 0.995891 0.9934 0.98996 0.985535 0.980083 0.973623 0.966205 0.957895 0.948761 0.938879 0.928326 0.917192 0.90556 0.893514 0.881129 0.868476 0.855619 0.842603 0.829454 0.816228 0.802974 0.789737 0.776578 0.7636 0.750635 0.737105 0.723179 0.709424 0.696047 0.683283 0.671146 0.659364 0.647933 0.637 0.627007 0.617787 0.608671 0.598925 0.588901 0.578939 0.569049 0.559272 0.54968 0.540291 0.53118 0.522406 0.51398 0.505898 0.498325 0.49097 0.483657 0.476519 0.469734 0.463406 0.457613 0.452466 0.447913 0.443836 0.440053 0.436291 0.432853 0.430182 0.428264 0.426835 0.425734 0.424879 0.424254 0.42378 0.423382 0.423046 0.422761 0.422502 0.422247 0.422018 0.421793 0.421534 0.421202 0.420751 0.420139 0.419299 0.418185 0.41677 0.415038 0.413014 0.410767 0.408429 0.406123 0.404194 0.402398 0.401479 0.376824 0.307526 0.264108 0.263719 0.264039 0.264548 0.265117 0.265664 0.266154 0.266568 0.266902 0.267156 0.26734 0.267466 0.267547 0.267592 0.267607 0.267605 0.267592 0.267567 0.267509 0.267414 0.267288 0.267143 0.267061 0.267042 0.266978 0.266724 0.265607 0.262374 0.253712 0.240407 0.216908 0.187817 0.148248 0.129601 0.125763 0.125118 0.125018 0.125003 0.125 0.125 0.125 0.125 0.125 0.125 0.125 0.125 0.125 0.125 0.125 0.125 0.125 0.125 0.125 0.125 0.125 0.125 0.125 0.125 0.125 0.125 0.125 0.125 0.125 1 1 1 1 1 1 1 1 1 1 1 1 1 1 1 1 1 1 1 1 1 1 1 1 1 1 1 1 1 1 1 1 1 1 1 0.999999 0.999997 0.999993 0.999979 0.999943 0.999852 0.999656 0.9993 0.998713 0.997729 0.995938 0.99301 0.988988 0.984054 0.978289 0.97173 0.96435 0.956129 0.947073 0.937251 0.926756 0.915696 0.904166 0.892253 0.880028 0.867551 0.854875 0.842017 0.828944 0.815704 0.802379 0.78908 0.775928 0.76306 0.75042 0.737641 0.724704 0.711904 0.699501 0.687546 0.675919 0.664409 0.653039 0.641916 0.631105 0.620336 0.6095 0.598545 0.587797 0.577361 0.567194 0.557273 0.547608 0.538169 0.528963 0.520007 0.511355 0.503055 0.495222 0.487904 0.480993 0.474411 0.46809 0.462056 0.456382 0.451134 0.446435 0.442389 0.438984 0.43601 0.433439 0.431251 0.429382 0.427774 0.426459 0.425419 0.42461 0.423964 0.423428 0.423005 0.422695 0.422451 0.422227 0.422016 0.421793 0.421532 0.4212 0.420755 0.42015 0.419338 0.418252 0.416843 0.415113 0.413107 0.410839 0.408427 0.406077 0.403647 0.40252 0.40166 0.376638 0.307259 0.264041 0.263698 0.264039 0.264564 0.265137 0.265688 0.266183 0.266602 0.266941 0.267202 0.267395 0.267531 0.267622 0.267681 0.267719 0.267738 0.267752 0.267781 0.267821 0.267862 0.267898 0.267867 0.267651 0.267253 0.266528 0.26541 0.263753 0.261258 0.255743 0.24603 0.225545 0.195067 0.151717 0.12993 0.125778 0.125118 0.125018 0.125003 0.125 0.125 0.125 0.125 0.125 0.125 0.125 0.125 0.125 0.125 0.125 0.125 0.125 0.125 0.125 0.125 0.125 0.125 0.125 0.125 0.125 0.125 0.125 0.125 0.125 1 1 1 1 1 1 1 1 1 1 1 1 1 1 1 1 1 1 1 1 1 1 1 1 1 1 1 1 1 1 1 1 1 1 1 0.999999 0.999997 0.999993 0.99998 0.999944 0.999859 0.999686 0.999372 0.998824 0.997837 0.996093 0.993429 0.989856 0.985382 0.979975 0.973605 0.966243 0.957941 0.948761 0.938805 0.928172 0.916963 0.905268 0.89317 0.880745 0.868064 0.855189 0.842135 0.828879 0.815509 0.802058 0.788583 0.775209 0.762074 0.749357 0.736994 0.724779 0.712657 0.700865 0.6892 0.677547 0.665903 0.65431 0.642824 0.631276 0.619642 0.608261 0.597295 0.586748 0.576476 0.566464 0.556687 0.547148 0.537826 0.528726 0.519849 0.51121 0.502841 0.494767 0.487044 0.479742 0.473024 0.466866 0.461136 0.455803 0.450843 0.44622 0.44196 0.438233 0.435107 0.432555 0.430455 0.428717 0.427282 0.426098 0.425115 0.424326 0.423723 0.423278 0.422939 0.42266 0.422419 0.422203 0.421994 0.42177 0.42151 0.421183 0.420756 0.42018 0.419394 0.41834 0.416943 0.41513 0.412977 0.410625 0.408311 0.406131 0.404071 0.402568 0.401599 0.37598 0.306533 0.263916 0.263685 0.26402 0.26455 0.265136 0.265696 0.266189 0.266602 0.266932 0.267183 0.267366 0.267488 0.267564 0.267605 0.267619 0.267615 0.267597 0.267568 0.267512 0.267416 0.26734 0.267336 0.267392 0.267538 0.267598 0.267411 0.266551 0.264106 0.257428 0.242615 0.215476 0.182554 0.147527 0.129695 0.125767 0.125118 0.125018 0.125003 0.125 0.125 0.125 0.125 0.125 0.125 0.125 0.125 0.125 0.125 0.125 0.125 0.125 0.125 0.125 0.125 0.125 0.125 0.125 0.125 0.125 0.125 0.125 0.125 0.125
				</DataArray>
				<DataArray Name="Energy" type="Float32" format="ascii">
 2.5 2.5 2.5 2.5 2.5 2.5 2.5 2.5 2.5 2.5 2.5 2.5 2.5 2.5 2.5 2.5 2.5 2.5 2.5 2.5 2.5 2.5 2.5 2.5 2.5 2.5 2.5 2.5 2.5 2.5 2.5 2.5 2.5 2.5 2.5 2.5 2.5 2.49999 2.49998 2.49994 2.49985 2.49963 2.49922 2.49852 2.49743 2.49577 2.49339 2.49007 2.48565 2.48007 2.47341 2.46575 2.45719 2.44779 2.43757 2.42659 2.41491 2.40261 2.38976 2.37646 2.36275 2.34871 2.33438 2.3198 2.30501 2.29003 2.27489 2.25954 2.2442 2.22897 2.21381 2.19881 2.18409 2.16957 2.15513 2.14056 2.12585 2.11109 2.09634 2.08135 2.06605 2.05092 2.03622 2.02191 2.00781 1.99394 1.98028 1.96687 1.95366 1.94061 1.92783 1.91541 1.90332 1.89152 1.88004 1.86901 1.85861 1.84887 1.83984 1.83154 1.82389 1.81691 1.8107 1.80552 1.8013 1.79787 1.79501 1.79259 1.7906 1.78904 1.7879 1.78714 1.78674 1.7866 1.78667 1.78691 1.78729 1.78779 1.78841 1.78917 1.79015 1.79145 1.79325 1.79575 1.7992 1.80386 1.80992 1.81748 1.82647 1.8366 1.84738 1.85805 1.86753 1.87531 1.87977 2.00878 2.46361 2.85895 2.86105 2.85721 2.85164 2.84558 2.83973 2.83449 2.83006 2.82648 2.82373 2.8217 2.82026 2.81929 2.81866 2.81828 2.81809 2.81802 2.81807 2.81825 2.81856 2.81889 2.81921 2.81966 2.82034 2.82095 2.82099 2.81878 2.81119 2.78801 2.73406 2.61542 2.43044 2.16374 2.02916 2.00443 2.0007 2.00011 2.00002 2 2 2 2 2 2 2 2 2 2 2 2 2 2 2 2 2 2 2 2 2 2 2 2 2 2.5 2.5 2.5 2.5 2.5 2.5 2.5 2.5 2.5 2.5 2.5 2.5 2.5 2.5 2.5 2.5 2.5 2.5 2.5 2.5 2.5 2.5 2.5 2.5 2.5 2.5 2.5 2.5 2.5 2.5 2.5 2.5 2.5 2.5 2.5 2.5 2.5 2.49999 2.49998 2.49994 2.49984 2.4996 2.49914 2.49835 2.49715 2.49541 2.49303 2.4898 2.48543 2.47979 2.47289 2.46487 2.45592 2.44617 2.4357 2.42456 2.41282 2.40052 2.38774 2.37453 2.36095 2.34708 2.33296 2.31862 2.30408 2.28933 2.27437 2.25923 2.24408 2.22895 2.21351 2.1979 2.1825 2.1674 2.15272 2.13826 2.12377 2.10931 2.09504 2.08103 2.06688 2.05245 2.03773 2.02321 2.00898 1.995 1.98122 1.96767 1.95429 1.94106 1.92811 1.91555 1.90339 1.89177 1.8805 1.86962 1.8593 1.84964 1.8407 1.83255 1.82531 1.8189 1.81329 1.80823 1.80362 1.7997 1.79656 1.794 1.79194 1.79034 1.78914 1.78827 1.78767 1.78736 1.78733 1.78749 1.7878 1.78824 1.7888 1.78952 1.79045 1.79174 1.79356 1.79612 1.79966 1.80441 1.81054 1.81813 1.82709 1.83713 1.84767 1.858 1.86719 1.87476 1.87907 2.00434 2.45683 2.85751 2.86082 2.85705 2.85158 2.84555 2.83968 2.83439 2.82988 2.82623 2.8234 2.82129 2.81978 2.81873 2.81802 2.81754 2.81721 2.81696 2.81678 2.81666 2.81665 2.81657 2.81621 2.81552 2.8144 2.81232 2.80896 2.80334 2.795 2.77608 2.74093 2.64751 2.47491 2.18405 2.03091 2.00473 2.00074 2.00011 2.00002 2 2 2 2 2 2 2 2 2 2 2 2 2 2 2 2 2 2 2 2 2 2 2 2 2 2.5 2.5 2.5 2.5 2.5 2.5 2.5 2.5 2.5 2.5 2.5 2.5 2.5 2.5 2.5 2.5 2.5 2.5 2.5 2.5 2.5 2.5 2.5 2.5 2.5 2.5 2.5 2.5 2.5 2.5 2.5 2.5 2.5 2.5 2.5 2.5 2.5 2.49999 2.49998 2.49994 2.49985 2.49963 2.49923 2.49856 2.49753 2.49589 2.49339 2.48993 2.48547 2.47996 2.47341 2.46585 2.45735 2.44796 2.43775 2.42677 2.41511 2.40283 2.39003 2.37676 2.36309 2.34908 2.33476 2.32017 2.30536 2.29037 2.27527 2.26011 2.24502 2.22976 2.21361 2.19684 2.18015 2.16379 2.14806 2.13294 2.1181 2.10356 2.08959 2.07678 2.06482 2.05274 2.03959 2.02602 2.01245 1.99886 1.98531 1.97188 1.95859 1.94557 1.9329 1.92062 1.90875 1.89747 1.88639 1.87539 1.86468 1.85448 1.84494 1.83622 1.82845 1.8215 1.81515 1.80919 1.80336 1.79829 1.79456 1.79199 1.79023 1.78906 1.78832 1.7879 1.78766 1.78754 1.78755 1.78764 1.78781 1.78809 1.78856 1.78924 1.7902 1.79153 1.79341 1.79604 1.79966 1.80448 1.81067 1.81829 1.82722 1.83717 1.84763 1.85786 1.86722 1.87458 1.8789 2.00217 2.45336 2.85684 2.86096 2.85713 2.85172 2.84581 2.84003 2.83482 2.83038 2.82681 2.82406 2.82206 2.82067 2.81978 2.81927 2.81907 2.8191 2.81932 2.81967 2.82008 2.82047 2.82083 2.82116 2.82171 2.82249 2.82317 2.82334 2.82076 2.81125 2.78112 2.72922 2.61936 2.45213 2.18007 2.03322 2.00501 2.00076 2.00011 2.00002 2 2 2 2 2 2 2 2 2 2 2 2 2 2 2 2 2 2 2 2 2 2 2 2 2 2.5 2.5 2.5 2.5 2.5 2.5 2.5 2.5 2.5 2.5 2.5 2.5 2.5 2.5 2.5 2.5 2.5 2.5 2.5 2.5 2.5 2.5 2.5 2.5 2.5 2.5 2.5 2.5 2.5 2.5 2.5 2.5 2.5 2.5 2.5 2.5 2.5 2.49999 2.49998 2.49994 2.49985 2.49966 2.4993 2.49871 2.49773 2.49593 2.49299 2.48894 2.48397 2.47813 2.47147 2.46393 2.4555 2.44616 2.43596 2.425 2.41337 2.40116 2.38845 2.37531 2.36178 2.34792 2.33374 2.31919 2.30431 2.28921 2.274 2.25882 2.24384 2.22897 2.21376 2.19821 2.18271 2.16759 2.15289 2.13841 2.1239 2.10943 2.09514 2.08109 2.06692 2.05251 2.0378 2.02328 2.00904 1.99502 1.9812 1.96761 1.95422 1.94105 1.92815 1.9156 1.9035 1.89201 1.88113 1.87074 1.8608 1.85125 1.84215 1.83361 1.82576 1.81881 1.81287 1.80785 1.80346 1.79974 1.79667 1.79415 1.79206 1.79043 1.78922 1.78839 1.78785 1.78754 1.78745 1.78758 1.78786 1.78825 1.78878 1.78947 1.79039 1.79169 1.79351 1.79608 1.79964 1.80442 1.81063 1.81834 1.82745 1.83753 1.84798 1.858 1.8674 1.87428 1.87849 2.0031 2.45518 2.85711 2.86083 2.85691 2.85141 2.84547 2.83966 2.83438 2.82986 2.8262 2.82336 2.82125 2.81974 2.81867 2.81794 2.81745 2.81711 2.81688 2.81677 2.81674 2.81674 2.81673 2.81647 2.81559 2.81394 2.81104 2.80662 2.8001 2.79081 2.77061 2.73416 2.64644 2.48744 2.20649 2.03614 2.00512 2.00076 2.00011 2.00002 2 2 2 2 2 2 2 2 2 2 2 2 2 2 2 2 2 2 2 2 2 2 2 2 2 2.5 2.5 2.5 2.5 2.5 2.5 2.5 2.5 2.5 2.5 2.5 2.5 2.5 2.5 2.5 2.5 2.5 2.5 2.5 2.5 2.5 2.5 2.5 2.5 2.5 2.5 2.5 2.5 2.5 2.5 2.5 2.5 2.5 2.5 2.5 2.5 2.5 2.49999 2.49998 2.49994 2.49986 2.49969 2.49937 2.49882 2.49784 2.49609 2.49341 2.48982 2.48531 2.47985 2.47339 2.46589 2.4574 2.44795 2.43765 2.42657 2.41481 2.40246 2.38957 2.37624 2.36251 2.34845 2.33407 2.31933 2.30431 2.28907 2.27365 2.25821 2.24292 2.22798 2.21331 2.19865 2.18397 2.16955 2.15514 2.14057 2.12587 2.1111 2.09631 2.08125 2.06593 2.05083 2.03617 2.0219 2.00785 1.994 1.98033 1.96685 1.95355 1.94044 1.92754 1.91489 1.90254 1.89057 1.87909 1.86823 1.85814 1.84877 1.84002 1.83189 1.82435 1.81738 1.81107 1.80566 1.8012 1.79763 1.79472 1.79236 1.79047 1.789 1.7879 1.78715 1.78674 1.78662 1.78669 1.7869 1.78723 1.78768 1.78825 1.78897 1.78992 1.79121 1.79301 1.79553 1.79903 1.80379 1.81026 1.81859 1.82837 1.83854 1.84839 1.85758 1.86644 1.87334 1.87783 2.0061 2.46071 2.85827 2.8609 2.85696 2.85146 2.84554 2.83977 2.83453 2.83007 2.82647 2.8237 2.82166 2.82021 2.81922 2.81858 2.81821 2.818 2.81792 2.81796 2.81805 2.81813 2.81834 2.81888 2.81973 2.82101 2.82214 2.82256 2.82085 2.8137 2.79184 2.73662 2.61429 2.42559 2.17441 2.03377 2.00504 2.00076 2.00011 2.00002 2 2 2 2 2 2 2 2 2 2 2 2 2 2 2 2 2 2 2 2 2 2 2 2 2
				</DataArray>
				<DataArray Name="F1" type="Float32" format="ascii">
 1 1 1 1 1 1 1 1 1 1 1 1 1 1 1 1 1 1 1 1 1 1 1 1 1 1 1 1 1 1 1 1 1 1 1 1 1 1 1 1 1 1 1 1 1 1 1 1 1 1 1 1 1 1 1 1 1 1 1 1 1 1 1 1 1 1 1 1 1 1 1 1 1 1 1 1 1 1 1 1 1 1 1 1 1 1 1 1 1 1 1 1 1 1 1 1 1 1 1 1 1 1 1 1 1 1 1 1 1 1 1 1 1 1 1 1 1 1 1 1 1 1 1 1 1 1 1 1 1 1 1 1 1 1 1 0.816014 0.312572 0.00336104 1.01563e-12 0 0 0 0 0 0 0 0 0 0 0 0 0 0 0 0 0 0 0 0 0 0 0 0 0 0 0 0 0 0 0 0 0 0 0 0 0 0 0 0 0 0 0 0 0 0 0 0 0 0 0 0 0 0 0 0 0 0 0 0 0 1 1 1 1 1 1 1 1 1 1 1 1 1 1 1 1 1 1 1 1 1 1 1 1 1 1 1 1 1 1 1 1 1 1 1 1 1 1 1 1 1 1 1 1 1 1 1 1 1 1 1 1 1 1 1 1 1 1 1 1 1 1 1 1 1 1 1 1 1 1 1 1 1 1 1 1 1 1 1 1 1 1 1 1 1 1 1 1 1 1 1 1 1 1 1 1 1 1 1 1 1 1 1 1 1 1 1 1 1 1 1 1 1 1 1 1 1 1 1 1 1 1 1 1 1 1 1 1 1 1 1 1 1 1 1 0.821021 0.318134 0.00410256 3.99959e-12 0 0 0 0 0 0 0 0 0 0 0 0 0 0 0 0 0 0 0 0 0 0 0 0 0 0 0 0 0 0 0 0 0 0 0 0 0 0 0 0 0 0 0 0 0 0 0 0 0 0 0 0 0 0 0 0 0 0 0 0 0 1 1 1 1 1 1 1 1 1 1 1 1 1 1 1 1 1 1 1 1 1 1 1 1 1 1 1 1 1 1 1 1 1 1 1 1 1 1 1 1 1 1 1 1 1 1 1 1 1 1 1 1 1 1 1 1 1 1 1 1 1 1 1 1 1 1 1 1 1 1 1 1 1 1 1 1 1 1 1 1 1 1 1 1 1 1 1 1 1 1 1 1 1 1 1 1 1 1 1 1 1 1 1 1 1 1 1 1 1 1 1 1 1 1 1 1 1 1 1 1 1 1 1 1 1 1 1 1 1 1 1 1 1 1 1 0.823794 0.321222 0.00457301 3.18505e-12 0 0 0 0 0 0 0 0 0 0 0 0 0 0 0 0 0 0 0 0 0 0 0 0 0 0 0 0 0 0 0 0 0 0 0 0 0 0 0 0 0 0 0 0 0 0 0 0 0 0 0 0 0 0 0 0 0 0 0 0 0 1 1 1 1 1 1 1 1 1 1 1 1 1 1 1 1 1 1 1 1 1 1 1 1 1 1 1 1 1 1 1 1 1 1 1 1 1 1 1 1 1 1 1 1 1 1 1 1 1 1 1 1 1 1 1 1 1 1 1 1 1 1 1 1 1 1 1 1 1 1 1 1 1 1 1 1 1 1 1 1 1 1 1 1 1 1 1 1 1 1 1 1 1 1 1 1 1 1 1 1 1 1 1 1 1 1 1 1 1 1 1 1 1 1 1 1 1 1 1 1 1 1 1 1 1 1 1 1 1 1 1 1 1 1 1 0.821963 0.319265 0.00427587 6.49523e-12 0 0 0 0 0 0 0 0 0 0 0 0 0 0 0 0 0 0 0 0 0 0 0 0 0 0 0 0 0 0 0 0 0 0 0 0 0 0 0 0 0 0 0 0 0 0 0 0 0 0 0 0 0 0 0 0 0 0 0 0 0 1 1 1 1 1 1 1 1 1 1 1 1 1 1 1 1 1 1 1 1 1 1 1 1 1 1 1 1 1 1 1 1 1 1 1 1 1 1 1 1 1 1 1 1 1 1 1 1 1 1 1 1 1 1 1 1 1 1 1 1 1 1 1 1 1 1 1 1 1 1 1 1 1 1 1 1 1 1 1 1 1 1 1 1 1 1 1 1 1 1 1 1 1 1 1 1 1 1 1 1 1 1 1 1 1 1 1 1 1 1 1 1 1 1 1 1 1 1 1 1 1 1 1 1 1 1 1 1 1 1 1 1 1 1 1 0.817265 0.314107 0.00356122 4.23103e-12 0 0 0 0 0 0 0 0 0 0 0 0 0 0 0 0 0 0 0 0 0 0 0 0 0 0 0 0 0 0 0 0 0 0 0 0 0 0 0 0 0 0 0 0 0 0 0 0 0 0 0 0 0 0 0 0 0 0 0 0 0
				</DataArray>
				<DataArray Name="F2" type="Float32" format="ascii">
 0 0 0 0 0 0 0 0 0 0 0 0 0 0 0 0 0 0 0 0 0 0 0 0 0 0 0 0 0 0 0 0 0 0 0 0 0 0 0 0 0 0 0 0 0 0 0 0 0 0 0 0 0 0 0 0 0 0 0 0 0 0 0 0 0 0 0 0 0 0 0 0 0 0 0 0 0 0 0 0 0 0 0 0 0 0 0 0 0 0 0 0 0 0 0 0 0 0 0 0 0 0 0 0 0 0 0 0 0 0 0 0 0 0 0 0 0 0 0 0 0 0 0 0 0 0 0 0 0 0 0 0 0 0 0 0.183986 0.687428 0.996639 1 1 1 1 1 1 1 1 1 1 1 1 1 1 1 1 1 1 1 1 1 1 1 1 1 1 1 1 1 1 1 1 1 1 1 1 1 1 1 1 1 1 1 1 1 1 1 1 1 1 1 1 1 1 1 1 1 1 1 1 1 1 0 0 0 0 0 0 0 0 0 0 0 0 0 0 0 0 0 0 0 0 0 0 0 0 0 0 0 0 0 0 0 0 0 0 0 0 0 0 0 0 0 0 0 0 0 0 0 0 0 0 0 0 0 0 0 0 0 0 0 0 0 0 0 0 0 0 0 0 0 0 0 0 0 0 0 0 0 0 0 0 0 0 0 0 0 0 0 0 0 0 0 0 0 0 0 0 0 0 0 0 0 0 0 0 0 0 0 0 0 0 0 0 0 0 0 0 0 0 0 0 0 0 0 0 0 0 0 0 0 0 0 0 0 0 0 0.178979 0.681866 0.995897 1 1 1 1 1 1 1 1 1 1 1 1 1 1 1 1 1 1 1 1 1 1 1 1 1 1 1 1 1 1 1 1 1 1 1 1 1 1 1 1 1 1 1 1 1 1 1 1 1 1 1 1 1 1 1 1 1 1 1 1 1 1 0 0 0 0 0 0 0 0 0 0 0 0 0 0 0 0 0 0 0 0 0 0 0 0 0 0 0 0 0 0 0 0 0 0 0 0 0 0 0 0 0 0 0 0 0 0 0 0 0 0 0 0 0 0 0 0 0 0 0 0 0 0 0 0 0 0 0 0 0 0 0 0 0 0 0 0 0 0 0 0 0 0 0 0 0 0 0 0 0 0 0 0 0 0 0 0 0 0 0 0 0 0 0 0 0 0 0 0 0 0 0 0 0 0 0 0 0 0 0 0 0 0 0 0 0 0 0 0 0 0 0 0 0 0 0 0.176206 0.678778 0.995427 1 1 1 1 1 1 1 1 1 1 1 1 1 1 1 1 1 1 1 1 1 1 1 1 1 1 1 1 1 1 1 1 1 1 1 1 1 1 1 1 1 1 1 1 1 1 1 1 1 1 1 1 1 1 1 1 1 1 1 1 1 1 0 0 0 0 0 0 0 0 0 0 0 0 0 0 0 0 0 0 0 0 0 0 0 0 0 0 0 0 0 0 0 0 0 0 0 0 0 0 0 0 0 0 0 0 0 0 0 0 0 0 0 0 0 0 0 0 0 0 0 0 0 0 0 0 0 0 0 0 0 0 0 0 0 0 0 0 0 0 0 0 0 0 0 0 0 0 0 0 0 0 0 0 0 0 0 0 0 0 0 0 0 0 0 0 0 0 0 0 0 0 0 0 0 0 0 0 0 0 0 0 0 0 0 0 0 0 0 0 0 0 0 0 0 4.30225e-15 2.12959e-15 0.178037 0.680735 0.995724 1 1 1 1 1 1 1 1 1 1 1 1 1 1 1 1 1 1 1 1 1 1 1 1 1 1 1 1 1 1 1 1 1 1 1 1 1 1 1 1 1 1 1 1 1 1 1 1 1 1 1 1 1 1 1 1 1 1 1 1 1 1 0 0 0 0 0 0 0 0 0 0 0 0 0 0 0 0 0 0 0 0 0 0 0 0 0 0 0 0 0 0 0 0 0 0 0 0 0 0 0 0 0 0 0 0 0 0 0 0 0 0 0 0 0 0 0 0 0 0 0 0 0 0 0 0 0 0 0 0 0 0 0 0 0 0 0 0 0 0 0 0 0 0 0 0 0 0 0 0 0 0 0 0 0 0 0 0 0 0 0 0 0 0 0 0 0 0 0 0 0 0 0 0 0 0 0 0 0 0 0 0 0 0 0 0 0 0 0 0 0 0 0 0 0 0 0 0.182735 0.685893 0.996439 1 1 1 1 1 1 1 1 1 1 1 1 1 1 1 1 1 1 1 1 1 1 1 1 1 1 1 1 1 1 1 1 1 1 1 1 1 1 1 1 1 1 1 1 1 1 1 1 1 1 1 1 1 1 1 1 1 1 1 1 1 1
				</DataArray>
				<DataArray Name="F3" type="Float32" format="ascii">