<?xml version="1.0"?>
<VTKFile type="PolyData">
	<PolyData>
		<Piece NumberOfPoints="1206" NumberOfPolys="1000">
			<Points>
				<DataArray type="Float32" NumberOfComponents="3" format="ascii">
 0 0 0 0.005 0 0 0.01 0 0 0.015 0 0 0.02 0 0 0.025 0 0 0.03 0 0 0.035 0 0 0.04 0 0 0.045 0 0 0.05 0 0 0.055 0 0 0.06 0 0 0.065 0 0 0.07 0 0 0.075 0 0 0.08 0 0 0.085 0 0 0.09 0 0 0.095 0 0 0.1 0 0 0.105 0 0 0.11 0 0 0.115 0 0 0.12 0 0 0.125 0 0 0.13 0 0 0.135 0 0 0.14 0 0 0.145 0 0 0.15 0 0 0.155 0 0 0.16 0 0 0.165 0 0 0.17 0 0 0.175 0 0 0.18 0 0 0.185 0 0 0.19 0 0 0.195 0 0 0.2 0 0 0.205 0 0 0.21 0 0 0.215 0 0 0.22 0 0 0.225 0 0 0.23 0 0 0.235 0 0 0.24 0 0 0.245 0 0 0.25 0 0 0.255 0 0 0.26 0 0 0.265 0 0 0.27 0 0 0.275 0 0 0.28 0 0 0.285 0 0 0.29 0 0 0.295 0 0 0.3 0 0 0.305 0 0 0.31 0 0 0.315 0 0 0.32 0 0 0.325 0 0 0.33 0 0 0.335 0 0 0.34 0 0 0.345 0 0 0.35 0 0 0.355 0 0 0.36 0 0 0.365 0 0 0.37 0 0 0.375 0 0 0.38 0 0 0.385 0 0 0.39 0 0 0.395 0 0 0.4 0 0 0.405 0 0 0.41 0 0 0.415 0 0 0.42 0 0 0.425 0 0 0.43 0 0 0.435 0 0 0.44 0 0 0.445 0 0 0.45 0 0 0.455 0 0 0.46 0 0 0.465 0 0 0.47 0 0 0.475 0 0 0.48 0 0 0.485 0 0 0.49 0 0 0.495 0 0 0.5 0 0 0.505 0 0 0.51 0 0 0.515 0 0 0.52 0 0 0.525 0 0 0.53 0 0 0.535 0 0 0.54 0 0 0.545 0 0 0.55 0 0 0.555 0 0 0.56 0 0 0.565 0 0 0.57 0 0 0.575 0 0 0.58 0 0 0.585 0 0 0.59 0 0 0.595 0 0 0.6 0 0 0.605 0 0 0.61 0 0 0.615 0 0 0.62 0 0 0.625 0 0 0.63 0 0 0.635 0 0 0.64 0 0 0.645 0 0 0.65 0 0 0.655 0 0 0.66 0 0 0.665 0 0 0.67 0 0 0.675 0 0 0.68 0 0 0.685 0 0 0.69 0 0 0.695 0 0 0.7 0 0 0.705 0 0 0.71 0 0 0.715 0 0 0.72 0 0 0.725 0 0 0.73 0 0 0.735 0 0 0.74 0 0 0.745 0 0 0.75 0 0 0.755 0 0 0.76 0 0 0.765 0 0 0.77 0 0 0.775 0 0 0.78 0 0 0.785 0 0 0.79 0 0 0.795 0 0 0.8 0 0 0.805 0 0 0.81 0 0 0.815 0 0 0.82 0 0 0.825 0 0 0.83 0 0 0.835 0 0 0.84 0 0 0.845 0 0 0.85 0 0 0.855 0 0 0.86 0 0 0.865 0 0 0.87 0 0 0.875 0 0 0.88 0 0 0.885 0 0 0.89 0 0 0.895 0 0 0.9 0 0 0.905 0 0 0.91 0 0 0.915 0 0 0.92 0 0 0.925 0 0 0.93 0 0 0.935 0 0 0.94 0 0 0.945 0 0 0.95 0 0 0.955 0 0 0.96 0 0 0.965 0 0 0.97 0 0 0.975 0 0 0.98 0 0 0.985 0 0 0.99 0 0 0.995 0 0 1 0 0 0 0.02 0 0.005 0.02 0 0.01 0.02 0 0.015 0.02 0 0.02 0.02 0 0.025 0.02 0 0.03 0.02 0 0.035 0.02 0 0.04 0.02 0 0.045 0.02 0 0.05 0.02 0 0.055 0.02 0 0.06 0.02 0 0.065 0.02 0 0.07 0.02 0 0.075 0.02 0 0.08 0.02 0 0.085 0.02 0 0.09 0.02 0 0.095 0.02 0 0.1 0.02 0 0.105 0.02 0 0.11 0.02 0 0.115 0.02 0 0.12 0.02 0 0.125 0.02 0 0.13 0.02 0 0.135 0.02 0 0.14 0.02 0 0.145 0.02 0 0.15 0.02 0 0.155 0.02 0 0.16 0.02 0 0.165 0.02 0 0.17 0.02 0 0.175 0.02 0 0.18 0.02 0 0.185 0.02 0 0.19 0.02 0 0.195 0.02 0 0.2 0.02 0 0.205 0.02 0 0.21 0.02 0 0.215 0.02 0 0.22 0.02 0 0.225 0.02 0 0.23 0.02 0 0.235 0.02 0 0.24 0.02 0 0.245 0.02 0 0.25 0.02 0 0.255 0.02 0 0.26 0.02 0 0.265 0.02 0 0.27 0.02 0 0.275 0.02 0 0.28 0.02 0 0.285 0.02 0 0.29 0.02 0 0.295 0.02 0 0.3 0.02 0 0.305 0.02 0 0.31 0.02 0 0.315 0.02 0 0.32 0.02 0 0.325 0.02 0 0.33 0.02 0 0.335 0.02 0 0.34 0.02 0 0.345 0.02 0 0.35 0.02 0 0.355 0.02 0 0.36 0.02 0 0.365 0.02 0 0.37 0.02 0 0.375 0.02 0 0.38 0.02 0 0.385 0.02 0 0.39 0.02 0 0.395 0.02 0 0.4 0.02 0 0.405 0.02 0 0.41 0.02 0 0.415 0.02 0 0.42 0.02 0 0.425 0.02 0 0.43 0.02 0 0.435 0.02 0 0.44 0.02 0 0.445 0.02 0 0.45 0.02 0 0.455 0.02 0 0.46 0.02 0 0.465 0.02 0 0.47 0.02 0 0.475 0.02 0 0.48 0.02 0 0.485 0.02 0 0.49 0.02 0 0.495 0.02 0 0.5 0.02 0 0.505 0.02 0 0.51 0.02 0 0.515 0.02 0 0.52 0.02 0 0.525 0.02 0 0.53 0.02 0 0.535 0.02 0 0.54 0.02 0 0.545 0.02 0 0.55 0.02 0 0.555 0.02 0 0.56 0.02 0 0.565 0.02 0 0.57 0.02 0 0.575 0.02 0 0.58 0.02 0 0.585 0.02 0 0.59 0.02 0 0.595 0.02 0 0.6 0.02 0 0.605 0.02 0 0.61 0.02 0 0.615 0.02 0 0.62 0.02 0 0.625 0.02 0 0.63 0.02 0 0.635 0.02 0 0.64 0.02 0 0.645 0.02 0 0.65 0.02 0 0.655 0.02 0 0.66 0.02 0 0.665 0.02 0 0.67 0.02 0 0.675 0.02 0 0.68 0.02 0 0.685 0.02 0 0.69 0.02 0 0.695 0.02 0 0.7 0.02 0 0.705 0.02 0 0.71 0.02 0 0.715 0.02 0 0.72 0.02 0 0.725 0.02 0 0.73 0.02 0 0.735 0.02 0 0.74 0.02 0 0.745 0.02 0 0.75 0.02 0 0.755 0.02 0 0.76 0.02 0 0.765 0.02 0 0.77 0.02 0 0.775 0.02 0 0.78 0.02 0 0.785 0.02 0 0.79 0.02 0 0.795 0.02 0 0.8 0.02 0 0.805 0.02 0 0.81 0.02 0 0.815 0.02 0 0.82 0.02 0 0.825 0.02 0 0.83 0.02 0 0.835 0.02 0 0.84 0.02 0 0.845 0.02 0 0.85 0.02 0 0.855 0.02 0 0.86 0.02 0 0.865 0.02 0 0.87 0.02 0 0.875 0.02 0 0.88 0.02 0 0.885 0.02 0 0.89 0.02 0 0.895 0.02 0 0.9 0.02 0 0.905 0.02 0 0.91 0.02 0 0.915 0.02 0 0.92 0.02 0 0.925 0.02 0 0.93 0.02 0 0.935 0.02 0 0.94 0.02 0 0.945 0.02 0 0.95 0.02 0 0.955 0.02 0 0.96 0.02 0 0.965 0.02 0 0.97 0.02 0 0.975 0.02 0 0.98 0.02 0 0.985 0.02 0 0.99 0.02 0 0.995 0.02 0 1 0.02 0 0 0.04 0 0.005 0.04 0 0.01 0.04 0 0.015 0.04 0 0.02 0.04 0 0.025 0.04 0 0.03 0.04 0 0.035 0.04 0 0.04 0.04 0 0.045 0.04 0 0.05 0.04 0 0.055 0.04 0 0.06 0.04 0 0.065 0.04 0 0.07 0.04 0 0.075 0.04 0 0.08 0.04 0 0.085 0.04 0 0.09 0.04 0 0.095 0.04 0 0.1 0.04 0 0.105 0.04 0 0.11 0.04 0 0.115 0.04 0 0.12 0.04 0 0.125 0.04 0 0.13 0.04 0 0.135 0.04 0 0.14 0.04 0 0.145 0.04 0 0.15 0.04 0 0.155 0.04 0 0.16 0.04 0 0.165 0.04 0 0.17 0.04 0 0.175 0.04 0 0.18 0.04 0 0.185 0.04 0 0.19 0.04 0 0.195 0.04 0 0.2 0.04 0 0.205 0.04 0 0.21 0.04 0 0.215 0.04 0 0.22 0.04 0 0.225 0.04 0 0.23 0.04 0 0.235 0.04 0 0.24 0.04 0 0.245 0.04 0 0.25 0.04 0 0.255 0.04 0 0.26 0.04 0 0.265 0.04 0 0.27 0.04 0 0.275 0.04 0 0.28 0.04 0 0.285 0.04 0 0.29 0.04 0 0.295 0.04 0 0.3 0.04 0 0.305 0.04 0 0.31 0.04 0 0.315 0.04 0 0.32 0.04 0 0.325 0.04 0 0.33 0.04 0 0.335 0.04 0 0.34 0.04 0 0.345 0.04 0 0.35 0.04 0 0.355 0.04 0 0.36 0.04 0 0.365 0.04 0 0.37 0.04 0 0.375 0.04 0 0.38 0.04 0 0.385 0.04 0 0.39 0.04 0 0.395 0.04 0 0.4 0.04 0 0.405 0.04 0 0.41 0.04 0 0.415 0.04 0 0.42 0.04 0 0.425 0.04 0 0.43 0.04 0 0.435 0.04 0 0.44 0.04 0 0.445 0.04 0 0.45 0.04 0 0.455 0.04 0 0.46 0.04 0 0.465 0.04 0 0.47 0.04 0 0.475 0.04 0 0.48 0.04 0 0.485 0.04 0 0.49 0.04 0 0.495 0.04 0 0.5 0.04 0 0.505 0.04 0 0.51 0.04 0 0.515 0.04 0 0.52 0.04 0 0.525 0.04 0 0.53 0.04 0 0.535 0.04 0 0.54 0.04 0 0.545 0.04 0 0.55 0.04 0 0.555 0.04 0 0.56 0.04 0 0.565 0.04 0 0.57 0.04 0 0.575 0.04 0 0.58 0.04 0 0.585 0.04 0 0.59 0.04 0 0.595 0.04 0 0.6 0.04 0 0.605 0.04 0 0.61 0.04 0 0.615 0.04 0 0.62 0.04 0 0.625 0.04 0 0.63 0.04 0 0.635 0.04 0 0.64 0.04 0 0.645 0.04 0 0.65 0.04 0 0.655 0.04 0 0.66 0.04 0 0.665 0.04 0 0.67 0.04 0 0.675 0.04 0 0.68 0.04 0 0.685 0.04 0 0.69 0.04 0 0.695 0.04 0 0.7 0.04 0 0.705 0.04 0 0.71 0.04 0 0.715 0.04 0 0.72 0.04 0 0.725 0.04 0 0.73 0.04 0 0.735 0.04 0 0.74 0.04 0 0.745 0.04 0 0.75 0.04 0 0.755 0.04 0 0.76 0.04 0 0.765 0.04 0 0.77 0.04 0 0.775 0.04 0 0.78 0.04 0 0.785 0.04 0 0.79 0.04 0 0.795 0.04 0 0.8 0.04 0 0.805 0.04 0 0.81 0.04 0 0.815 0.04 0 0.82 0.04 0 0.825 0.04 0 0.83 0.04 0 0.835 0.04 0 0.84 0.04 0 0.845 0.04 0 0.85 0.04 0 0.855 0.04 0 0.86 0.04 0 0.865 0.04 0 0.87 0.04 0 0.875 0.04 0 0.88 0.04 0 0.885 0.04 0 0.89 0.04 0 0.895 0.04 0 0.9 0.04 0 0.905 0.04 0 0.91 0.04 0 0.915 0.04 0 0.92 0.04 0 0.925 0.04 0 0.93 0.04 0 0.935 0.04 0 0.94 0.04 0 0.945 0.04 0 0.95 0.04 0 0.955 0.04 0 0.96 0.04 0 0.965 0.04 0 0.97 0.04 0 0.975 0.04 0 0.98 0.04 0 0.985 0.04 0 0.99 0.04 0 0.995 0.04 0 1 0.04 0 0 0.06 0 0.005 0.06 0 0.01 0.06 0 0.015 0.06 0 0.02 0.06 0 0.025 0.06 0 0.03 0.06 0 0.035 0.06 0 0.04 0.06 0 0.045 0.06 0 0.05 0.06 0 0.055 0.06 0 0.06 0.06 0 0.065 0.06 0 0.07 0.06 0 0.075 0.06 0 0.08 0.06 0 0.085 0.06 0 0.09 0.06 0 0.095 0.06 0 0.1 0.06 0 0.105 0.06 0 0.11 0.06 0 0.115 0.06 0 0.12 0.06 0 0.125 0.06 0 0.13 0.06 0 0.135 0.06 0 0.14 0.06 0 0.145 0.06 0 0.15 0.06 0 0.155 0.06 0 0.16 0.06 0 0.165 0.06 0 0.17 0.06 0 0.175 0.06 0 0.18 0.06 0 0.185 0.06 0 0.19 0.06 0 0.195 0.06 0 0.2 0.06 0 0.205 0.06 0 0.21 0.06 0 0.215 0.06 0 0.22 0.06 0 0.225 0.06 0 0.23 0.06 0 0.235 0.06 0 0.24 0.06 0 0.245 0.06 0 0.25 0.06 0 0.255 0.06 0 0.26 0.06 0 0.265 0.06 0 0.27 0.06 0 0.275 0.06 0 0.28 0.06 0 0.285 0.06 0 0.29 0.06 0 0.295 0.06 0 0.3 0.06 0 0.305 0.06 0 0.31 0.06 0 0.315 0.06 0 0.32 0.06 0 0.325 0.06 0 0.33 0.06 0 0.335 0.06 0 0.34 0.06 0 0.345 0.06 0 0.35 0.06 0 0.355 0.06 0 0.36 0.06 0 0.365 0.06 0 0.37 0.06 0 0.375 0.06 0 0.38 0.06 0 0.385 0.06 0 0.39 0.06 0 0.395 0.06 0 0.4 0.06 0 0.405 0.06 0 0.41 0.06 0 0.415 0.06 0 0.42 0.06 0 0.425 0.06 0 0.43 0.06 0 0.435 0.06 0 0.44 0.06 0 0.445 0.06 0 0.45 0.06 0 0.455 0.06 0 0.46 0.06 0 0.465 0.06 0 0.47 0.06 0 0.475 0.06 0 0.48 0.06 0 0.485 0.06 0 0.49 0.06 0 0.495 0.06 0 0.5 0.06 0 0.505 0.06 0 0.51 0.06 0 0.515 0.06 0 0.52 0.06 0 0.525 0.06 0 0.53 0.06 0 0.535 0.06 0 0.54 0.06 0 0.545 0.06 0 0.55 0.06 0 0.555 0.06 0 0.56 0.06 0 0.565 0.06 0 0.57 0.06 0 0.575 0.06 0 0.58 0.06 0 0.585 0.06 0 0.59 0.06 0 0.595 0.06 0 0.6 0.06 0 0.605 0.06 0 0.61 0.06 0 0.615 0.06 0 0.62 0.06 0 0.625 0.06 0 0.63 0.06 0 0.635 0.06 0 0.64 0.06 0 0.645 0.06 0 0.65 0.06 0 0.655 0.06 0 0.66 0.06 0 0.665 0.06 0 0.67 0.06 0 0.675 0.06 0 0.68 0.06 0 0.685 0.06 0 0.69 0.06 0 0.695 0.06 0 0.7 0.06 0 0.705 0.06 0 0.71 0.06 0 0.715 0.06 0 0.72 0.06 0 0.725 0.06 0 0.73 0.06 0 0.735 0.06 0 0.74 0.06 0 0.745 0.06 0 0.75 0.06 0 0.755 0.06 0 0.76 0.06 0 0.765 0.06 0 0.77 0.06 0 0.775 0.06 0 0.78 0.06 0 0.785 0.06 0 0.79 0.06 0 0.795 0.06 0 0.8 0.06 0 0.805 0.06 0 0.81 0.06 0 0.815 0.06 0 0.82 0.06 0 0.825 0.06 0 0.83 0.06 0 0.835 0.06 0 0.84 0.06 0 0.845 0.06 0 0.85 0.06 0 0.855 0.06 0 0.86 0.06 0 0.865 0.06 0 0.87 0.06 0 0.875 0.06 0 0.88 0.06 0 0.885 0.06 0 0.89 0.06 0 0.895 0.06 0 0.9 0.06 0 0.905 0.06 0 0.91 0.06 0 0.915 0.06 0 0.92 0.06 0 0.925 0.06 0 0.93 0.06 0 0.935 0.06 0 0.94 0.06 0 0.945 0.06 0 0.95 0.06 0 0.955 0.06 0 0.96 0.06 0 0.965 0.06 0 0.97 0.06 0 0.975 0.06 0 0.98 0.06 0 0.985 0.06 0 0.99 0.06 0 0.995 0.06 0 1 0.06 0 0 0.08 0 0.005 0.08 0 0.01 0.08 0 0.015 0.08 0 0.02 0.08 0 0.025 0.08 0 0.03 0.08 0 0.035 0.08 0 0.04 0.08 0 0.045 0.08 0 0.05 0.08 0 0.055 0.08 0 0.06 0.08 0 0.065 0.08 0 0.07 0.08 0 0.075 0.08 0 0.08 0.08 0 0.085 0.08 0 0.09 0.08 0 0.095 0.08 0 0.1 0.08 0 0.105 0.08 0 0.11 0.08 0 0.115 0.08 0 0.12 0.08 0 0.125 0.08 0 0.13 0.08 0 0.135 0.08 0 0.14 0.08 0 0.145 0.08 0 0.15 0.08 0 0.155 0.08 0 0.16 0.08 0 0.165 0.08 0
[...]
			<CellData Scalars="Density">
				<DataArray Name="Density" type="Float32" format="ascii">
 1 1 1 1 1 1 1 1 1 1 1 1 1 1 1 1 1 1 1 1 1 1 1 1 1 1 1 1 1 1 1 1 1 1 1 0.999999 0.999997 0.999992 0.999979 0.999942 0.999846 0.999631 0.999225 0.998535 0.997444 0.995799 0.993426 0.990114 0.985716 0.980205 0.973644 0.966139 0.957788 0.948658 0.938781 0.92824 0.917103 0.905456 0.893388 0.880978 0.8683 0.855417 0.84238 0.829232 0.816007 0.802735 0.789409 0.776096 0.763022 0.750116 0.737383 0.724964 0.712921 0.70117 0.689469 0.677657 0.665901 0.654276 0.642492 0.630637 0.619053 0.607917 0.597169 0.586665 0.576439 0.566456 0.556727 0.547238 0.53794 0.52887 0.520012 0.511408 0.503102 0.495145 0.487543 0.480324 0.473521 0.467156 0.46122 0.455661 0.450458 0.445748 0.441726 0.438315 0.435396 0.432873 0.430686 0.428832 0.427305 0.426093 0.425156 0.42443 0.423856 0.423398 0.42304 0.422765 0.422545 0.422353 0.422162 0.421949 0.421694 0.421369 0.420933 0.420338 0.419528 0.418447 0.417051 0.415324 0.413292 0.411009 0.408602 0.406248 0.404044 0.402295 0.401142 0.375573 0.306335 0.263975 0.26373 0.264095 0.264623 0.265177 0.265718 0.266211 0.266631 0.266968 0.267225 0.267414 0.267547 0.267638 0.267698 0.267738 0.267763 0.267779 0.267796 0.267821 0.267848 0.267849 0.267818 0.267808 0.267843 0.267841 0.267582 0.266651 0.264061 0.257051 0.242654 0.216216 0.183694 0.145797 0.12898 0.12566 0.125106 0.125017 0.125003 0.125 0.125 0.125 0.125 0.125 0.125 0.125 0.125 0.125 0.125 0.125 0.125 0.125 0.125 0.125 0.125 0.125 0.125 0.125 0.125 0.125 0.125 0.125 0.125 0.125 1 1 1 1 1 1 1 1 1 1 1 1 1 1 1 1 1 1 1 1 1 1 1 1 1 1 1 1 1 1 1 1 1 1 1 0.999999 0.999997 0.999992 0.999979 0.999941 0.99984 0.999602 0.999142 0.998365 0.99718 0.995467 0.993112 0.989888 0.985538 0.97994 0.973122 0.96526 0.956525 0.947067 0.936977 0.926317 0.915156 0.903563 0.891607 0.879351 0.86686 0.854193 0.841401 0.828517 0.815563 0.802539 0.78942 0.776305 0.763347 0.750317 0.737154 0.724153 0.711494 0.699283 0.687496 0.67591 0.664446 0.653285 0.642365 0.63141 0.620246 0.609051 0.598144 0.58751 0.577172 0.567071 0.557209 0.54756 0.538095 0.528894 0.520092 0.511545 0.503299 0.495401 0.487867 0.480669 0.47381 0.467332 0.461338 0.45594 0.451124 0.446835 0.442934 0.439288 0.436041 0.433366 0.43111 0.429221 0.427661 0.426391 0.425354 0.424523 0.423878 0.423367 0.422976 0.422687 0.422451 0.422239 0.422047 0.421845 0.4216 0.421275 0.420835 0.420237 0.419421 0.418338 0.416949 0.415236 0.413224 0.410964 0.408575 0.406241 0.404067 0.402342 0.401201 0.376192 0.306988 0.26406 0.26377 0.264073 0.264579 0.265149 0.265699 0.266193 0.266614 0.266955 0.267218 0.267412 0.267552 0.267649 0.267715 0.267759 0.267784 0.267792 0.267794 0.267806 0.267836 0.267837 0.267754 0.267594 0.267323 0.266792 0.265915 0.264425 0.262126 0.256874 0.247323 0.22503 0.191948 0.148161 0.129172 0.125703 0.125111 0.125017 0.125003 0.125 0.125 0.125 0.125 0.125 0.125 0.125 0.125 0.125 0.125 0.125 0.125 0.125 0.125 0.125 0.125 0.125 0.125 0.125 0.125 0.125 0.125 0.125 0.125 0.125 1 1 1 1 1 1 1 1 1 1 1 1 1 1 1 1 1 1 1 1 1 1 1 1 1 1 1 1 1 1 1 1 1 1 1 0.999999 0.999997 0.999992 0.999979 0.999942 0.999848 0.999634 0.999232 0.998571 0.997548 0.995898 0.993401 0.989966 0.985546 0.980106 0.973648 0.966237 0.957933 0.948805 0.938927 0.928377 0.917244 0.905609 0.893558 0.881165 0.868499 0.855626 0.842592 0.829428 0.81617 0.802871 0.789586 0.77644 0.763469 0.750175 0.736317 0.722354 0.70868 0.695546 0.683077 0.671068 0.659474 0.648539 0.638611 0.629356 0.619851 0.609735 0.599472 0.589226 0.579092 0.569073 0.559237 0.549624 0.540305 0.531371 0.522923 0.514673 0.506519 0.498457 0.490603 0.483029 0.475805 0.468995 0.462671 0.456954 0.451844 0.447247 0.443077 0.439153 0.435471 0.432415 0.430024 0.42822 0.426829 0.42574 0.424881 0.424218 0.423721 0.423331 0.423008 0.422739 0.422509 0.422285 0.422071 0.421847 0.421589 0.42126 0.420818 0.420213 0.419382 0.418281 0.41688 0.41516 0.413149 0.410903 0.408534 0.406228 0.404087 0.402446 0.401246 0.37657 0.307374 0.264116 0.263747 0.264055 0.264551 0.265113 0.265659 0.266149 0.266564 0.266899 0.267156 0.267343 0.267474 0.267558 0.267607 0.267636 0.267642 0.267638 0.267616 0.267561 0.267471 0.267342 0.267202 0.267121 0.267098 0.26703 0.266778 0.265656 0.262457 0.2538 0.240543 0.216916 0.187646 0.14791 0.129499 0.125743 0.125114 0.125017 0.125003 0.125 0.125 0.125 0.125 0.125 0.125 0.125 0.125 0.125 0.125 0.125 0.125 0.125 0.125 0.125 0.125 0.125 0.125 0.125 0.125 0.125 0.125 0.125 0.125 0.125 1 1 1 1 1 1 1 1 1 1 1 1 1 1 1 1 1 1 1 1 1 1 1 1 1 1 1 1 1 1 1 1 1 1 1 0.999999 0.999997 0.999993 0.999979 0.999943 0.999852 0.999657 0.999306 0.998724 0.997727 0.995895 0.992949 0.988948 0.984046 0.978321 0.971793 0.964439 0.956235 0.947193 0.93738 0.926888 0.91582 0.904271 0.892327 0.880061 0.867535 0.854807 0.841915 0.828856 0.815635 0.802312 0.789006 0.775855 0.762985 0.750175 0.737208 0.724273 0.711631 0.69946 0.687697 0.676073 0.664589 0.653385 0.64239 0.631401 0.620268 0.609089 0.59818 0.587532 0.577159 0.567002 0.557074 0.547368 0.537903 0.528737 0.51996 0.511639 0.503715 0.496068 0.488677 0.48156 0.474731 0.46823 0.462084 0.456285 0.450974 0.446295 0.44222 0.438713 0.435735 0.43327 0.431161 0.429344 0.427775 0.426469 0.425422 0.424596 0.42395 0.42344 0.423031 0.422706 0.422457 0.422246 0.422049 0.421839 0.421588 0.421265 0.420828 0.420234 0.419421 0.418337 0.416946 0.415229 0.413213 0.41096 0.408576 0.406196 0.404128 0.402349 0.401163 0.376214 0.30703 0.26407 0.263748 0.26407 0.264567 0.265127 0.265677 0.266171 0.266591 0.26693 0.26719 0.267381 0.267517 0.267611 0.267673 0.267716 0.267741 0.267759 0.267787 0.267822 0.267858 0.267892 0.267854 0.267632 0.26723 0.266504 0.265404 0.26375 0.26128 0.255757 0.246047 0.225381 0.194757 0.151276 0.129809 0.125757 0.125115 0.125017 0.125003 0.125 0.125 0.125 0.125 0.125 0.125 0.125 0.125 0.125 0.125 0.125 0.125 0.125 0.125 0.125 0.125 0.125 0.125 0.125 0.125 0.125 0.125 0.125 0.125 0.125 1 1 1 1 1 1 1 1 1 1 1 1 1 1 1 1 1 1 1 1 1 1 1 1 1 1 1 1 1 1 1 1 1 1 1 0.999999 0.999997 0.999993 0.99998 0.999945 0.99986 0.999688 0.999376 0.998828 0.997828 0.996068 0.99341 0.989858 0.985403 0.98001 0.973645 0.966287 0.957987 0.94881 0.938856 0.928225 0.917016 0.905317 0.893212 0.880778 0.868084 0.855198 0.84215 0.828912 0.815556 0.802144 0.788762 0.775485 0.762453 0.749688 0.737128 0.724812 0.712786 0.701013 0.689275 0.677504 0.66577 0.654105 0.642253 0.630407 0.618901 0.60782 0.597116 0.586654 0.576438 0.566418 0.556594 0.546949 0.53749 0.528247 0.519252 0.510509 0.502206 0.494402 0.487069 0.48017 0.47367 0.467498 0.461747 0.456346 0.451284 0.446658 0.44242 0.438569 0.435239 0.432547 0.430369 0.428606 0.427174 0.426017 0.42509 0.424358 0.423787 0.423342 0.422997 0.422723 0.422488 0.422276 0.422072 0.421854 0.421598 0.421273 0.420846 0.420267 0.419473 0.418402 0.417013 0.415289 0.413255 0.410977 0.408571 0.406194 0.40392 0.402245 0.401202 0.375599 0.306337 0.263961 0.263736 0.264063 0.264568 0.265132 0.265683 0.26617 0.266582 0.266912 0.267163 0.267345 0.26747 0.267551 0.267599 0.267624 0.267626 0.267618 0.267598 0.267551 0.267465 0.267395 0.267391 0.267445 0.267585 0.267631 0.267441 0.266572 0.264124 0.25744 0.242656 0.215443 0.182531 0.147237 0.129585 0.125747 0.125114 0.125017 0.125003 0.125 0.125 0.125 0.125 0.125 0.125 0.125 0.125 0.125 0.125 0.125 0.125 0.125 0.125 0.125 0.125 0.125 0.125 0.125 0.125 0.125 0.125 0.125 0.125 0.125
				</DataArray>
				<DataArray Name="Energy" type="Float32" format="ascii">
 2.5 2.5 2.5 2.5 2.5 2.5 2.5 2.5 2.5 2.5 2.5 2.5 2.5 2.5 2.5 2.5 2.5 2.5 2.5 2.5 2.5 2.5 2.5 2.5 2.5 2.5 2.5 2.5 2.5 2.5 2.5 2.5 2.5 2.5 2.5 2.5 2.5 2.49999 2.49998 2.49994 2.49985 2.49963 2.49922 2.49853 2.49744 2.49579 2.49341 2.49008 2.48565 2.48008 2.47342 2.46578 2.45723 2.44784 2.43762 2.42664 2.41497 2.40267 2.38982 2.37651 2.36279 2.34874 2.33438 2.31977 2.30494 2.28991 2.27467 2.2593 2.24407 2.22889 2.21377 2.1989 2.18434 2.16997 2.15548 2.14071 2.12588 2.11106 2.09584 2.08038 2.06518 2.05044 2.03604 2.02181 2.0078 1.99399 1.98039 1.96699 1.95373 1.94067 1.92782 1.91525 1.90303 1.89122 1.87986 1.869 1.85872 1.84906 1.84001 1.83149 1.82357 1.81656 1.81072 1.80585 1.80174 1.79819 1.79512 1.79255 1.79052 1.789 1.78794 1.78725 1.78686 1.78672 1.78679 1.78702 1.78739 1.78787 1.78846 1.78921 1.79017 1.79147 1.79325 1.79573 1.79914 1.80374 1.80973 1.81721 1.82613 1.83621 1.84697 1.8577 1.86748 1.87571 1.88049 2.00921 2.46352 2.85877 2.86121 2.85709 2.85157 2.84555 2.83969 2.83441 2.82994 2.82634 2.82356 2.82151 2.82006 2.81908 2.81844 2.81806 2.81785 2.81778 2.81781 2.81797 2.81824 2.81851 2.81876 2.81915 2.81979 2.82036 2.82042 2.81822 2.81068 2.78756 2.73391 2.61519 2.43009 2.16161 2.02849 2.00432 2.00068 2.00011 2.00002 2 2 2 2 2 2 2 2 2 2 2 2 2 2 2 2 2 2 2 2 2 2 2 2 2 2.5 2.5 2.5 2.5 2.5 2.5 2.5 2.5 2.5 2.5 2.5 2.5 2.5 2.5 2.5 2.5 2.5 2.5 2.5 2.5 2.5 2.5 2.5 2.5 2.5 2.5 2.5 2.5 2.5 2.5 2.5 2.5 2.5 2.5 2.5 2.5 2.5 2.49999 2.49998 2.49994 2.49984 2.4996 2.49914 2.49836 2.49718 2.49546 2.49309 2.48985 2.48546 2.4798 2.47287 2.46484 2.45589 2.44613 2.43566 2.42453 2.41279 2.40051 2.38775 2.37456 2.36101 2.34716 2.33305 2.31871 2.30416 2.2894 2.27438 2.25923 2.24412 2.22876 2.21309 2.1975 2.1822 2.16732 2.15282 2.13838 2.12394 2.10976 2.09572 2.08144 2.06674 2.05187 2.03729 2.02292 2.00879 1.99485 1.98109 1.96749 1.95403 1.94087 1.92816 1.91569 1.90358 1.89189 1.88065 1.86986 1.85956 1.84986 1.84094 1.83295 1.82583 1.81943 1.81353 1.80801 1.80323 1.79941 1.79627 1.79372 1.79168 1.79011 1.78895 1.78815 1.78765 1.78737 1.78732 1.78747 1.78777 1.7882 1.78878 1.7895 1.79044 1.79171 1.79349 1.79598 1.79942 1.80405 1.81006 1.81754 1.82642 1.83641 1.84703 1.85764 1.86731 1.87547 1.88023 2.0058 2.45813 2.85769 2.86093 2.85702 2.85154 2.84549 2.83959 2.83427 2.82975 2.82609 2.82325 2.82114 2.81963 2.81858 2.81787 2.81741 2.81709 2.81686 2.81669 2.8166 2.81662 2.81656 2.81624 2.81558 2.81449 2.81246 2.8092 2.80366 2.79547 2.77654 2.74144 2.64705 2.47323 2.18112 2.03018 2.00461 2.00071 2.00011 2.00002 2 2 2 2 2 2 2 2 2 2 2 2 2 2 2 2 2 2 2 2 2 2 2 2 2 2.5 2.5 2.5 2.5 2.5 2.5 2.5 2.5 2.5 2.5 2.5 2.5 2.5 2.5 2.5 2.5 2.5 2.5 2.5 2.5 2.5 2.5 2.5 2.5 2.5 2.5 2.5 2.5 2.5 2.5 2.5 2.5 2.5 2.5 2.5 2.5 2.5 2.49999 2.49998 2.49994 2.49985 2.49963 2.49923 2.49857 2.49755 2.49589 2.49339 2.48993 2.48548 2.47998 2.47343 2.46589 2.45739 2.44801 2.4378 2.42682 2.41516 2.40289 2.39008 2.3768 2.36311 2.34908 2.33475 2.32014 2.30529 2.29026 2.27509 2.25995 2.24486 2.22918 2.21263 2.19584 2.17926 2.16322 2.14786 2.13289 2.11831 2.1045 2.0919 2.07998 2.06746 2.05396 2.04023 2.02642 2.01263 1.99887 1.98522 1.97173 1.95854 1.94578 1.93353 1.92139 1.90933 1.89737 1.88567 1.87433 1.86344 1.85312 1.84357 1.83499 1.8273 1.8203 1.81383 1.80764 1.80193 1.79745 1.79418 1.79188 1.79023 1.78904 1.78821 1.7877 1.78746 1.78738 1.78742 1.78757 1.78781 1.78814 1.78862 1.7893 1.79023 1.79153 1.79336 1.79591 1.79942 1.80413 1.81021 1.81773 1.82661 1.83657 1.8471 1.85758 1.86712 1.87511 1.87983 2.00358 2.45494 2.8571 2.86091 2.85715 2.85175 2.84576 2.8399 2.83463 2.83016 2.82655 2.82378 2.82174 2.82032 2.81938 2.81884 2.8186 2.81859 2.81877 2.81908 2.81943 2.81978 2.82009 2.82037 2.82091 2.82172 2.82248 2.8228 2.82033 2.81111 2.78113 2.72965 2.6194 2.45122 2.17761 2.03245 2.00488 2.00073 2.00011 2.00002 2 2 2 2 2 2 2 2 2 2 2 2 2 2 2 2 2 2 2 2 2 2 2 2 2 2.5 2.5 2.5 2.5 2.5 2.5 2.5 2.5 2.5 2.5 2.5 2.5 2.5 2.5 2.5 2.5 2.5 2.5 2.5 2.5 2.5 2.5 2.5 2.5 2.5 2.5 2.5 2.5 2.5 2.5 2.5 2.5 2.5 2.5 2.5 2.5 2.5 2.49999 2.49998 2.49994 2.49985 2.49966 2.49931 2.49872 2.49773 2.49589 2.49293 2.4889 2.48396 2.47816 2.47153 2.46402 2.45561 2.44628 2.4361 2.42514 2.4135 2.40127 2.38853 2.37534 2.36176 2.34784 2.33362 2.31909 2.30423 2.28913 2.27391 2.25873 2.24374 2.22866 2.21322 2.19769 2.18242 2.16759 2.15311 2.13861 2.12414 2.10988 2.09573 2.08142 2.06676 2.05192 2.03733 2.02294 2.00878 1.99477 1.98095 1.96731 1.95392 1.94087 1.9283 1.91622 1.90456 1.89322 1.88221 1.87157 1.86131 1.85151 1.84218 1.83338 1.82539 1.81847 1.81252 1.80742 1.80307 1.7995 1.79649 1.79397 1.79189 1.79029 1.78913 1.78833 1.78781 1.78753 1.78743 1.78753 1.78781 1.78823 1.78879 1.7895 1.79044 1.79171 1.79348 1.79598 1.79943 1.80407 1.81008 1.81755 1.82642 1.83641 1.84702 1.85757 1.86741 1.8754 1.88021 2.00559 2.45775 2.85757 2.86079 2.85701 2.85152 2.84545 2.83954 2.83421 2.82968 2.82601 2.82316 2.82104 2.81952 2.81846 2.81775 2.81728 2.81698 2.81678 2.81671 2.8167 2.81673 2.81676 2.81655 2.81572 2.81415 2.81131 2.80702 2.80054 2.79139 2.77116 2.73477 2.64619 2.48604 2.20337 2.03521 2.00498 2.00074 2.00011 2.00002 2 2 2 2 2 2 2 2 2 2 2 2 2 2 2 2 2 2 2 2 2 2 2 2 2 2.5 2.5 2.5 2.5 2.5 2.5 2.5 2.5 2.5 2.5 2.5 2.5 2.5 2.5 2.5 2.5 2.5 2.5 2.5 2.5 2.5 2.5 2.5 2.5 2.5 2.5 2.5 2.5 2.5 2.5 2.5 2.5 2.5 2.5 2.5 2.5 2.5 2.49999 2.49998 2.49994 2.49986 2.49969 2.49938 2.49883 2.49783 2.49606 2.49339 2.48982 2.48534 2.47989 2.47343 2.46594 2.45744 2.448 2.4377 2.42663 2.41487 2.40251 2.38962 2.37627 2.36253 2.34846 2.33409 2.31936 2.30437 2.28917 2.27387 2.25854 2.24336 2.22835 2.21343 2.19867 2.18412 2.16972 2.1552 2.14048 2.12567 2.11079 2.09548 2.08004 2.06494 2.05026 2.03592 2.02173 2.00772 1.99383 1.98007 1.96642 1.95291 1.93959 1.92654 1.91383 1.90171 1.89018 1.87924 1.86887 1.85904 1.84969 1.84099 1.83278 1.82508 1.81805 1.81165 1.80601 1.80133 1.79762 1.7946 1.79218 1.79028 1.78885 1.78784 1.78718 1.78681 1.78668 1.78676 1.78698 1.78731 1.78776 1.78833 1.78906 1.79002 1.79132 1.79311 1.7956 1.79903 1.80364 1.80964 1.81714 1.82606 1.83613 1.84685 1.85749 1.86773 1.87553 1.8803 2.00909 2.46341 2.85877 2.86094 2.85705 2.85148 2.8454 2.83953 2.83425 2.82979 2.82618 2.8234 2.82134 2.81988 2.81889 2.81825 2.81788 2.81768 2.8176 2.81762 2.81768 2.81771 2.81787 2.81834 2.81913 2.82036 2.82146 2.82193 2.82028 2.81325 2.7915 2.73657 2.61403 2.42535 2.17226 2.03296 2.00491 2.00074 2.00011 2.00002 2 2 2 2 2 2 2 2 2 2 2 2 2 2 2 2 2 2 2 2 2 2 2 2 2
				</DataArray>
				<DataArray Name="F1" type="Float32" format="ascii">
 1 1 1 1 1 1 1 1 1 1 1 1 1 1 1 1 1 1 1 1 1 1 1 1 1 1 1 1 1 1 1 1 1 1 1 1 1 1 1 1 1 1 1 1 1 1 1 1 1 1 1 1 1 1 1 1 1 1 1 1 1 1 1 1 1 1 1 1 1 1 1 1 1 1 1 1 1 1 1 1 1 1 1 1 1 1 1 1 1 1 1 1 1 1 1 1 1 1 1 1 1 1 1 1 1 1 1 1 1 1 1 1 1 1 1 1 1 1 1 1 1 1 1 1 1 1 1 1 1 1 1 1 1 1 1 0.81651 0.313087 0.003422 0 0 0 0 0 0 0 0 0 0 0 0 0 0 0 0 0 0 0 0 0 0 0 0 0 0 0 0 0 0 0 0 0 0 0 0 0 0 0 0 0 0 0 0 0 0 0 0 0 0 0 0 0 0 0 0 0 0 0 0 0 0 1 1 1 1 1 1 1 1 1 1 1 1 1 1 1 1 1 1 1 1 1 1 1 1 1 1 1 1 1 1 1 1 1 1 1 1 1 1 1 1 1 1 1 1 1 1 1 1 1 1 1 1 1 1 1 1 1 1 1 1 1 1 1 1 1 1 1 1 1 1 1 1 1 1 1 1 1 1 1 1 1 1 1 1 1 1 1 1 1 1 1 1 1 1 1 1 1 1 1 1 1 1 1 1 1 1 1 1 1 1 1 1 1 1 1 1 1 1 1 1 1 1 1 1 1 1 1 1 1 1 1 1 1 1 1 0.820751 0.317738 0.00403846 0 0 0 0 0 0 0 0 0 0 0 0 0 0 0 0 0 0 0 0 0 0 0 0 0 0 0 0 0 0 0 0 0 0 0 0 0 0 0 0 0 0 0 0 0 0 0 0 0 0 0 0 0 0 0 0 0 0 0 0 0 0 1 1 1 1 1 1 1 1 1 1 1 1 1 1 1 1 1 1 1 1 1 1 1 1 1 1 1 1 1 1 1 1 1 1 1 1 1 1 1 1 1 1 1 1 1 1 1 1 1 1 1 1 1 1 1 1 1 1 1 1 1 1 1 1 1 1 1 1 1 1 1 1 1 1 1 1 1 1 1 1 1 1 1 1 1 1 1 1 1 1 1 1 1 1 1 1 1 1 1 1 1 1 1 1 1 1 1 1 1 1 1 1 1 1 1 1 1 1 1 1 1 1 1 1 1 1 1 1 1 1 1 1 1 1 1 0.823194 0.320393 0.00443066 1.78228e-12 0 0 0 0 0 0 0 0 0 0 0 0 0 0 0 0 0 0 0 0 0 0 0 0 0 0 0 0 0 0 0 0 0 0 0 0 0 0 0 0 0 0 0 0 0 0 0 0 0 0 0 0 0 0 0 0 0 0 0 0 0 1 1 1 1 1 1 1 1 1 1 1 1 1 1 1 1 1 1 1 1 1 1 1 1 1 1 1 1 1 1 1 1 1 1 1 1 1 1 1 1 1 1 1 1 1 1 1 1 1 1 1 1 1 1 1 1 1 1 1 1 1 1 1 1 1 1 1 1 1 1 1 1 1 1 1 1 1 1 1 1 1 1 1 1 1 1 1 1 1 1 1 1 1 1 1 1 1 1 1 1 1 1 1 1 1 1 1 1 1 1 1 1 1 1 1 1 1 1 1 1 1 1 1 1 1 1 1 1 1 1 1 1 1 1 1 0.821015 0.318046 0.00408393 1.95314e-12 0 0 0 0 0 0 0 0 0 0 0 0 0 0 0 0 0 0 0 0 0 0 0 0 0 0 0 0 0 0 0 0 0 0 0 0 0 0 0 0 0 0 0 0 0 0 0 0 0 0 0 0 0 0 0 0 0 0 0 0 0 1 1 1 1 1 1 1 1 1 1 1 1 1 1 1 1 1 1 1 1 1 1 1 1 1 1 1 1 1 1 1 1 1 1 1 1 1 1 1 1 1 1 1 1 1 1 1 1 1 1 1 1 1 1 1 1 1 1 1 1 1 1 1 1 1 1 1 1 1 1 1 1 1 1 1 1 1 1 1 1 1 1 1 1 1 1 1 1 1 1 1 1 1 1 1 1 1 1 1 1 1 1 1 1 1 1 1 1 1 1 1 1 1 1 1 1 1 1 1 1 1 1 1 1 1 1 1 1 1 1 1 1 1 1 1 0.816515 0.313148 0.00343284 6.48111e-13 0 0 0 0 0 0 0 0 0 0 0 0 0 0 0 0 0 0 0 0 0 0 0 0 0 0 0 0 0 0 0 0 0 0 0 0 0 0 0 0 0 0 0 0 0 0 0 0 0 0 0 0 0 0 0 0 0 0 0 0 0
				</DataArray>
				<DataArray Name="F2" type="Float32" format="ascii">
 0 0 0 0 0 0 0 0 0 0 0 0 0 0 0 0 0 0 0 0 0 0 0 0 0 0 0 0 0 0 0 0 0 0 0 0 0 0 0 0 0 0 0 0 0 0 0 0 0 0 0 0 0 0 0 0 0 0 0 0 0 0 0 0 0 0 0 0 0 0 0 0 0 0 0 0 0 0 0 0 0 0 0 0 0 0 0 0 0 0 0 0 0 0 0 0 0 0 0 0 0 0 0 0 0 0 0 0 0 0 0 0 0 0 0 0 0 0 0 0 0 0 0 0 0 0 0 0 0 0 0 0 0 0 0 0.18349 0.686913 0.996578 1 1 1 1 1 1 1 1 1 1 1 1 1 1 1 1 1 1 1 1 1 1 1 1 1 1 1 1 1 1 1 1 1 1 1 1 1 1 1 1 1 1 1 1 1 1 1 1 1 1 1 1 1 1 1 1 1 1 1 1 1 1 0 0 0 0 0 0 0 0 0 0 0 0 0 0 0 0 0 0 0 0 0 0 0 0 0 0 0 0 0 0 0 0 0 0 0 0 0 0 0 0 0 0 0 0 0 0 0 0 0 0 0 0 0 0 0 0 0 0 0 0 0 0 0 0 0 0 0 0 0 0 0 0 0 0 0 0 0 0 0 0 0 0 0 0 0 0 0 0 0 0 0 0 0 0 0 0 0 0 0 0 0 0 0 0 0 0 0 0 0 0 0 0 0 0 0 0 0 0 0 0 0 0 0 0 0 0 0 0 0 0 0 0 0 0 0 0.179249 0.682262 0.995962 1 1 1 1 1 1 1 1 1 1 1 1 1 1 1 1 1 1 1 1 1 1 1 1 1 1 1 1 1 1 1 1 1 1 1 1 1 1 1 1 1 1 1 1 1 1 1 1 1 1 1 1 1 1 1 1 1 1 1 1 1 1 0 0 0 0 0 0 0 0 0 0 0 0 0 0 0 0 0 0 0 0 0 0 0 0 0 0 0 0 0 0 0 0 0 0 0 0 0 0 0 0 0 0 0 0 0 0 0 0 0 0 0 0 0 0 0 0 0 0 0 0 0 0 0 0 0 0 0 0 0 0 0 0 0 0 0 0 0 0 0 0 0 0 0 0 0 0 0 0 0 0 0 0 0 0 0 0 0 0 0 0 0 0 0 0 0 0 0 0 0 0 0 0 0 0 0 0 0 0 0 0 0 0 0 0 0 0 0 0 0 0 0 0 0 0 0 0.176806 0.679607 0.995569 1 1 1 1 1 1 1 1 1 1 1 1 1 1 1 1 1 1 1 1 1 1 1 1 1 1 1 1 1 1 1 1 1 1 1 1 1 1 1 1 1 1 1 1 1 1 1 1 1 1 1 1 1 1 1 1 1 1 1 1 1 1 0 0 0 0 0 0 0 0 0 0 0 0 0 0 0 0 0 0 0 0 0 0 0 0 0 0 0 0 0 0 0 0 0 0 0 0 0 0 0 0 0 0 0 0 0 0 0 0 0 0 0 0 0 0 0 0 0 0 0 0 0 0 0 0 0 0 0 0 0 0 0 0 0 0 0 0 0 0 0 0 0 0 0 0 0 0 0 0 0 0 0 0 0 0 0 0 0 0 0 0 0 0 0 0 0 0 0 0 0 0 0 0 0 0 0 0 0 0 0 0 0 0 0 0 0 0 0 0 0 0 0 0 0 0 0 0.178985 0.681954 0.995916 1 1 1 1 1 1 1 1 1 1 1 1 1 1 1 1 1 1 1 1 1 1 1 1 1 1 1 1 1 1 1 1 1 1 1 1 1 1 1 1 1 1 1 1 1 1 1 1 1 1 1 1 1 1 1 1 1 1 1 1 1 1 0 0 0 0 0 0 0 0 0 0 0 0 0 0 0 0 0 0 0 0 0 0 0 0 0 0 0 0 0 0 0 0 0 0 0 0 0 0 0 0 0 0 0 0 0 0 0 0 0 0 0 0 0 0 0 0 0 0 0 0 0 0 0 0 0 0 0 0 0 0 0 0 0 0 0 0 0 0 0 0 0 0 0 0 0 0 0 0 0 0 0 0 0 0 0 0 0 0 0 0 0 0 0 0 0 0 0 0 0 0 0 0 0 0 0 0 0 0 0 0 0 0 0 0 0 0 0 0 0 0 0 0 0 0 0 0.183485 0.686852 0.996567 1 1 1 1 1 1 1 1 1 1 1 1 1 1 1 1 1 1 1 1 1 1 1 1 1 1 1 1 1 1 1 1 1 1 1 1 1 1 1 1 1 1 1 1 1 1 1 1 1 1 1 1 1 1 1 1 1 1 1 1 1 1
				</DataArray>
				<DataArray Name="F3" type="Float32" format="ascii">