<?xml version="1.0"?>
<VTKFile type="PolyData">
	<PolyData>
		<Piece NumberOfPoints="961" NumberOfPolys="900">
			<Points>
				<DataArray type="Float32" NumberOfComponents="3" format="ascii">
 0 0 0 0.04 0 0 0.08 0 0 0.12 0 0 0.16 0 0 0.2 0 0 0.24 0 0 0.28 0 0 0.32 0 0 0.36 0 0 0.4 0 0 0.44 0 0 0.48 0 0 0.52 0 0 0.56 0 0 0.6 0 0 0.64 0 0 0.68 0 0 0.72 0 0 0.76 0 0 0.8 0 0 0.84 0 0 0.88 0 0 0.92 0 0 0.96 0 0 1 0 0 1.04 0 0 1.08 0 0 1.12 0 0 1.16 0 0 1.2 0 0 0 0.04 0 0.04 0.04 0 0.08 0.04 0 0.12 0.04 0 0.16 0.04 0 0.2 0.04 0 0.24 0.04 0 0.28 0.04 0 0.32 0.04 0 0.36 0.04 0 0.4 0.04 0 0.44 0.04 0 0.48 0.04 0 0.52 0.04 0 0.56 0.04 0 0.6 0.04 0 0.64 0.04 0 0.68 0.04 0 0.72 0.04 0 0.76 0.04 0 0.8 0.04 0 0.84 0.04 0 0.88 0.04 0 0.92 0.04 0 0.96 0.04 0 1 0.04 0 1.04 0.04 0 1.08 0.04 0 1.12 0.04 0 1.16 0.04 0 1.2 0.04 0 0 0.08 0 0.04 0.08 0 0.08 0.08 0 0.12 0.08 0 0.16 0.08 0 0.2 0.08 0 0.24 0.08 0 0.28 0.08 0 0.32 0.08 0 0.36 0.08 0 0.4 0.08 0 0.44 0.08 0 0.48 0.08 0 0.52 0.08 0 0.56 0.08 0 0.6 0.08 0 0.64 0.08 0 0.68 0.08 0 0.72 0.08 0 0.76 0.08 0 0.8 0.08 0 0.84 0.08 0 0.88 0.08 0 0.92 0.08 0 0.96 0.08 0 1 0.08 0 1.04 0.08 0 1.08 0.08 0 1.12 0.08 0 1.16 0.08 0 1.2 0.08 0 0 0.12 0 0.04 0.12 0 0.08 0.12 0 0.12 0.12 0 0.16 0.12 0 0.2 0.12 0 0.24 0.12 0 0.28 0.12 0 0.32 0.12 0 0.36 0.12 0 0.4 0.12 0 0.44 0.12 0 0.48 0.12 0 0.52 0.12 0 0.56 0.12 0 0.6 0.12 0 0.64 0.12 0 0.68 0.12 0 0.72 0.12 0 0.76 0.12 0 0.8 0.12 0 0.84 0.12 0 0.88 0.12 0 0.92 0.12 0 0.96 0.12 0 1 0.12 0 1.04 0.12 0 1.08 0.12 0 1.12 0.12 0 1.16 0.12 0 1.2 0.12 0 0 0.16 0 0.04 0.16 0 0.08 0.16 0 0.12 0.16 0 0.16 0.16 0 0.2 0.16 0 0.24 0.16 0 0.28 0.16 0 0.32 0.16 0 0.36 0.16 0 0.4 0.16 0 0.44 0.16 0 0.48 0.16 0 0.52 0.16 0 0.56 0.16 0 0.6 0.16 0 0.64 0.16 0 0.68 0.16 0 0.72 0.16 0 0.76 0.16 0 0.8 0.16 0 0.84 0.16 0 0.88 0.16 0 0.92 0.16 0 0.96 0.16 0 1 0.16 0 1.04 0.16 0 1.08 0.16 0 1.12 0.16 0 1.16 0.16 0 1.2 0.16 0 0 0.2 0 0.04 0.2 0 0.08 0.2 0 0.12 0.2 0 0.16 0.2 0 0.2 0.2 0 0.24 0.2 0 0.28 0.2 0 0.32 0.2 0 0.36 0.2 0 0.4 0.2 0 0.44 0.2 0 0.48 0.2 0 0.52 0.2 0 0.56 0.2 0 0.6 0.2 0 0.64 0.2 0 0.68 0.2 0 0.72 0.2 0 0.76 0.2 0 0.8 0.2 0 0.84 0.2 0 0.88 0.2 0 0.92 0.2 0 0.96 0.2 0 1 0.2 0 1.04 0.2 0 1.08 0.2 0 1.12 0.2 0 1.16 0.2 0 1.2 0.2 0 0 0.24 0 0.04 0.24 0 0.08 0.24 0 0.12 0.24 0 0.16 0.24 0 0.2 0.24 0 0.24 0.24 0 0.28 0.24 0 0.32 0.24 0 0.36 0.24 0 0.4 0.24 0 0.44 0.24 0 0.48 0.24 0 0.52 0.24 0 0.56 0.24 0 0.6 0.24 0 0.64 0.24 0 0.68 0.24 0 0.72 0.24 0 0.76 0.24 0 0.8 0.24 0 0.84 0.24 0 0.88 0.24 0 0.92 0.24 0 0.96 0.24 0 1 0.24 0 1.04 0.24 0 1.08 0.24 0 1.12 0.24 0 1.16 0.24 0 1.2 0.24 0 0 0.28 0 0.04 0.28 0 0.08 0.28 0 0.12 0.28 0 0.16 0.28 0 0.2 0.28 0 0.24 0.28 0 0.28 0.28 0 0.32 0.28 0 0.36 0.28 0 0.4 0.28 0 0.44 0.28 0 0.48 0.28 0 0.52 0.28 0 0.56 0.28 0 0.6 0.28 0 0.64 0.28 0 0.68 0.28 0 0.72 0.28 0 0.76 0.28 0 0.8 0.28 0 0.84 0.28 0 0.88 0.28 0 0.92 0.28 0 0.96 0.28 0 1 0.28 0 1.04 0.28 0 1.08 0.28 0 1.12 0.28 0 1.16 0.28 0 1.2 0.28 0 0 0.32 0 0.04 0.32 0 0.08 0.32 0 0.12 0.32 0 0.16 0.32 0 0.2 0.32 0 0.24 0.32 0 0.28 0.32 0 0.32 0.32 0 0.36 0.32 0 0.4 0.32 0 0.44 0.32 0 0.48 0.32 0 0.52 0.32 0 0.56 0.32 0 0.6 0.32 0 0.64 0.32 0 0.68 0.32 0 0.72 0.32 0 0.76 0.32 0 0.8 0.32 0 0.84 0.32 0 0.88 0.32 0 0.92 0.32 0 0.96 0.32 0 1 0.32 0 1.04 0.32 0 1.08 0.32 0 1.12 0.32 0 1.16 0.32 0 1.2 0.32 0 0 0.36 0 0.04 0.36 0 0.08 0.36 0 0.12 0.36 0 0.16 0.36 0 0.2 0.36 0 0.24 0.36 0 0.28 0.36 0 0.32 0.36 0 0.36 0.36 0 0.4 0.36 0 0.44 0.36 0 0.48 0.36 0 0.52 0.36 0 0.56 0.36 0 0.6 0.36 0 0.64 0.36 0 0.68 0.36 0 0.72 0.36 0 0.76 0.36 0 0.8 0.36 0 0.84 0.36 0 0.88 0.36 0 0.92 0.36 0 0.96 0.36 0 1 0.36 0 1.04 0.36 0 1.08 0.36 0 1.12 0.36 0 1.16 0.36 0 1.2 0.36 0 0 0.4 0 0.04 0.4 0 0.08 0.4 0 0.12 0.4 0 0.16 0.4 0 0.2 0.4 0 0.24 0.4 0 0.28 0.4 0 0.32 0.4 0 0.36 0.4 0 0.4 0.4 0 0.44 0.4 0 0.48 0.4 0 0.52 0.4 0 0.56 0.4 0 0.6 0.4 0 0.64 0.4 0 0.68 0.4 0 0.72 0.4 0 0.76 0.4 0 0.8 0.4 0 0.84 0.4 0 0.88 0.4 0 0.92 0.4 0 0.96 0.4 0 1 0.4 0 1.04 0.4 0 1.08 0.4 0 1.12 0.4 0 1.16 0.4 0 1.2 0.4 0 0 0.44 0 0.04 0.44 0 0.08 0.44 0 0.12 0.44 0 0.16 0.44 0 0.2 0.44 0 0.24 0.44 0 0.28 0.44 0 0.32 0.44 0 0.36 0.44 0 0.4 0.44 0 0.44 0.44 0 0.48 0.44 0 0.52 0.44 0 0.56 0.44 0 0.6 0.44 0 0.64 0.44 0 0.68 0.44 0 0.72 0.44 0 0.76 0.44 0 0.8 0.44 0 0.84 0.44 0 0.88 0.44 0 0.92 0.44 0 0.96 0.44 0 1 0.44 0 1.04 0.44 0 1.08 0.44 0 1.12 0.44 0 1.16 0.44 0 1.2 0.44 0 0 0.48 0 0.04 0.48 0 0.08 0.48 0 0.12 0.48 0 0.16 0.48 0 0.2 0.48 0 0.24 0.48 0 0.28 0.48 0 0.32 0.48 0 0.36 0.48 0 0.4 0.48 0 0.44 0.48 0 0.48 0.48 0 0.52 0.48 0 0.56 0.48 0 0.6 0.48 0 0.64 0.48 0 0.68 0.48 0 0.72 0.48 0 0.76 0.48 0 0.8 0.48 0 0.84 0.48 0 0.88 0.48 0 0.92 0.48 0 0.96 0.48 0 1 0.48 0 1.04 0.48 0 1.08 0.48 0 1.12 0.48 0 1.16 0.48 0 1.2 0.48 0 0 0.52 0 0.04 0.52 0 0.08 0.52 0 0.12 0.52 0 0.16 0.52 0 0.2 0.52 0 0.24 0.52 0 0.28 0.52 0 0.32 0.52 0 0.36 0.52 0 0.4 0.52 0 0.44 0.52 0 0.48 0.52 0 0.52 0.52 0 0.56 0.52 0 0.6 0.52 0 0.64 0.52 0 0.68 0.52 0 0.72 0.52 0 0.76 0.52 0 0.8 0.52 0 0.84 0.52 0 0.88 0.52 0 0.92 0.52 0 0.96 0.52 0 1 0.52 0 1.04 0.52 0 1.08 0.52 0 1.12 0.52 0 1.16 0.52 0 1.2 0.52 0 0 0.56 0 0.04 0.56 0 0.08 0.56 0 0.12 0.56 0 0.16 0.56 0 0.2 0.56 0 0.24 0.56 0 0.28 0.56 0 0.32 0.56 0 0.36 0.56 0 0.4 0.56 0 0.44 0.56 0 0.48 0.56 0 0.52 0.56 0 0.56 0.56 0 0.6 0.56 0 0.64 0.56 0 0.68 0.56 0 0.72 0.56 0 0.76 0.56 0 0.8 0.56 0 0.84 0.56 0 0.88 0.56 0 0.92 0.56 0 0.96 0.56 0 1 0.56 0 1.04 0.56 0 1.08 0.56 0 1.12 0.56 0 1.16 0.56 0 1.2 0.56 0 0 0.6 0 0.04 0.6 0 0.08 0.6 0 0.12 0.6 0 0.16 0.6 0 0.2 0.6 0 0.24 0.6 0 0.28 0.6 0 0.32 0.6 0 0.36 0.6 0 0.4 0.6 0 0.44 0.6 0 0.48 0.6 0 0.52 0.6 0 0.56 0.6 0 0.6 0.6 0 0.64 0.6 0 0.68 0.6 0 0.72 0.6 0 0.76 0.6 0 0.8 0.6 0 0.84 0.6 0 0.88 0.6 0 0.92 0.6 0 0.96 0.6 0 1 0.6 0 1.04 0.6 0 1.08 0.6 0 1.12 0.6 0 1.16 0.6 0 1.2 0.6 0 0 0.64 0 0.04 0.64 0 0.08 0.64 0 0.12 0.64 0 0.16 0.64 0 0.2 0.64 0 0.24 0.64 0 0.28 0.64 0 0.32 0.64 0 0.36 0.64 0 0.4 0.64 0 0.44 0.64 0 0.48 0.64 0 0.52 0.64 0 0.56 0.64 0 0.6 0.64 0 0.64 0.64 0 0.68 0.64 0 0.72 0.64 0 0.76 0.64 0 0.8 0.64 0 0.84 0.64 0 0.88 0.64 0 0.92 0.64 0 0.96 0.64 0 1 0.64 0 1.04 0.64 0 1.08 0.64 0 1.12 0.64 0 1.16 0.64 0 1.2 0.64 0 0 0.68 0 0.04 0.68 0 0.08 0.68 0 0.12 0.68 0 0.16 0.68 0 0.2 0.68 0 0.24 0.68 0 0.28 0.68 0 0.32 0.68 0 0.36 0.68 0 0.4 0.68 0 0.44 0.68 0 0.48 0.68 0 0.52 0.68 0 0.56 0.68 0 0.6 0.68 0 0.64 0.68 0 0.68 0.68 0 0.72 0.68 0 0.76 0.68 0 0.8 0.68 0 0.84 0.68 0 0.88 0.68 0 0.92 0.68 0 0.96 0.68 0 1 0.68 0 1.04 0.68 0 1.08 0.68 0 1.12 0.68 0 1.16 0.68 0 1.2 0.68 0 0 0.72 0 0.04 0.72 0 0.08 0.72 0 0.12 0.72 0 0.16 0.72 0 0.2 0.72 0 0.24 0.72 0 0.28 0.72 0 0.32 0.72 0 0.36 0.72 0 0.4 0.72 0 0.44 0.72 0 0.48 0.72 0 0.52 0.72 0 0.56 0.72 0 0.6 0.72 0 0.64 0.72 0 0.68 0.72 0 0.72 0.72 0 0.76 0.72 0 0.8 0.72 0 0.84 0.72 0 0.88 0.72 0 0.92 0.72 0 0.96 0.72 0 1 0.72 0 1.04 0.72 0 1.08 0.72 0 1.12 0.72 0 1.16 0.72 0 1.2 0.72 0 0 0.76 0 0.04 0.76 0 0.08 0.76 0 0.12 0.76 0 0.16 0.76 0 0.2 0.76 0 0.24 0.76 0 0.28 0.76 0 0.32 0.76 0 0.36 0.76 0 0.4 0.76 0 0.44 0.76 0 0.48 0.76 0 0.52 0.76 0 0.56 0.76 0 0.6 0.76 0 0.64 0.76 0 0.68 0.76 0 0.72 0.76 0 0.76 0.76 0 0.8 0.76 0 0.84 0.76 0 0.88 0.76 0 0.92 0.76 0 0.96 0.76 0 1 0.76 0 1.04 0.76 0 1.08 0.76 0 1.12 0.76 0 1.16 0.76 0 1.2 0.76 0 0 0.8 0 0.04 0.8 0 0.08 0.8 0 0.12 0.8 0 0.16 0.8 0 0.2 0.8 0 0.24 0.8 0 0.28 0.8 0 0.32 0.8 0 0.36 0.8 0 0.4 0.8 0 0.44 0.8 0 0.48 0.8 0 0.52 0.8 0 0.56 0.8 0 0.6 0.8 0 0.64 0.8 0 0.68 0.8 0 0.72 0.8 0 0.76 0.8 0 0.8 0.8 0 0.84 0.8 0 0.88 0.8 0 0.92 0.8 0 0.96 0.8 0 1 0.8 0 1.04 0.8 0 1.08 0.8 0 1.12 0.8 0 1.16 0.8 0 1.2 0.8 0 0 0.84 0 0.04 0.84 0 0.08 0.84 0 0.12 0.84 0 0.16 0.84 0 0.2 0.84 0 0.24 0.84 0 0.28 0.84 0 0.32 0.84 0 0.36 0.84 0 0.4 0.84 0 0.44 0.84 0 0.48 0.84 0 0.52 0.84 0 0.56 0.84 0 0.6 0.84 0 0.64 0.84 0 0.68 0.84 0 0.72 0.84 0 0.76 0.84 0 0.8 0.84 0 0.84 0.84 0 0.88 0.84 0 0.92 0.84 0 0.96 0.84 0 1 0.84 0 1.04 0.84 0 1.08 0.84 0 1.12 0.84 0 1.16 0.84 0 1.2 0.84 0 0 0.88 0 0.04 0.88 0 0.08 0.88 0 0.12 0.88 0 0.16 0.88 0 0.2 0.88 0 0.24 0.88 0 0.28 0.88 0 0.32 0.88 0 0.36 0.88 0 0.4 0.88 0 0.44 0.88 0 0.48 0.88 0 0.52 0.88 0 0.56 0.88 0 0.6 0.88 0 0.64 0.88 0 0.68 0.88 0 0.72 0.88 0 0.76 0.88 0 0.8 0.88 0 0.84 0.88 0 0.88 0.88 0 0.92 0.88 0 0.96 0.88 0 1 0.88 0 1.04 0.88 0 1.08 0.88 0 1.12 0.88 0 1.16 0.88 0 1.2 0.88 0 0 0.92 0 0.04 0.92 0 0.08 0.92 0 0.12 0.92 0 0.16 0.92 0 0.2 0.92 0 0.24 0.92 0 0.28 0.92 0 0.32 0.92 0 0.36 0.92 0 0.4 0.92 0 0.44 0.92 0 0.48 0.92 0 0.52 0.92 0 0.56 0.92 0 0.6 0.92 0 0.64 0.92 0 0.68 0.92 0 0.72 0.92 0 0.76 0.92 0 0.8 0.92 0 0.84 0.92 0 0.88 0.92 0 0.92 0.92 0 0.96 0.92 0 1 0.92 0 1.04 0.92 0 1.08 0.92 0 1.12 0.92 0 1.16 0.92 0 1.2 0.92 0 0 0.96 0 0.04 0.96 0 0.08 0.96 0 0.12 0.96 0 0.16 0.96 0 0.2 0.96 0 0.24 0.96 0 0.28 0.96 0 0.32 0.96 0 0.36 0.96 0 0.4 0.96 0 0.44 0.96 0 0.48 0.96 0 0.52 0.96 0 0.56 0.96 0 0.6 0.96 0 0.64 0.96 0 0.68 0.96 0 0.72 0.96 0 0.76 0.96 0 0.8 0.96 0 0.84 0.96 0 0.88 0.96 0 0.92 0.96 0 0.96 0.96 0 1 0.96 0 1.04 0.96 0 1.08 0.96 0 1.12 0.96 0 1.16 0.96 0 1.2 0.96 0 0 1 0 0.04 1 0 0.08 1 0 0.12 1 0 0.16 1 0 0.2 1 0 0.24 1 0 0.28 1 0 0.32 1 0 0.36 1 0 0.4 1 0 0.44 1 0 0.48 1 0 0.52 1 0 0.56 1 0 0.6 1 0 0.64 1 0 0.68 1 0 0.72 1 0 0.76 1 0 0.8 1 0 0.84 1 0 0.88 1 0 0.92 1 0 0.96 1 0 1 1 0 1.04 1 0 1.08 1 0 1.12 1 0 1.16 1 0 1.2 1 0 0 1.04 0 0.04 1.04 0 0.08 1.04 0 0.12 1.04 0 0.16 1.04 0 0.2 1.04 0 0.24 1.04 0 0.28 1.04 0 0.32 1.04 0 0.36 1.04 0 0.4 1.04 0 0.44 1.04 0 0.48 1.04 0 0.52 1.04 0 0.56 1.04 0 0.6 1.04 0 0.64 1.04 0 0.68 1.04 0 0.72 1.04 0 0.76 1.04 0 0.8 1.04 0 0.84 1.04 0 0.88 1.04 0 0.92 1.04 0 0.96 1.04 0 1 1.04 0 1.04 1.04 0 1.08 1.04 0 1.12 1.04 0 1.16 1.04 0 1.2 1.04 0 0 1.08 0 0.04 1.08 0 0.08 1.08 0 0.12 1.08 0 0.16 1.08 0 0.2 1.08 0 0.24 1.08 0 0.28 1.08 0 0.32 1.08 0 0.36 1.08 0 0.4 1.08 0 0.44 1.08 0 0.48 1.08 0 0.52 1.08 0 0.56 1.08 0 0.6 1.08 0 0.64 1.08 0 0.68 1.08 0 0.72 1.08 0 0.76 1.08 0 0.8 1.08 0 0.84 1.08 0 0.88 1.08 0 0.92 1.08 0 0.96 1.08 0 1 1.08 0 1.04 1.08 0 1.08 1.08 0 1.12 1.08 0 1.16 1.08 0 1.2 1.08 0 0 1.12 0 
[...]
			<PointData Scalars="VitesseX">
				<DataArray Name="VitesseX" type="Float32" format="ascii">
 0 -0.00685004 -0.0368037 -0.00681387 0.02011 0.0508354 0.0796818 0.11003 0.135157 0.160172 0.186255 0.211258 0.236468 0.261792 0.290421 0.317271 0.351021 0.415278 0.414651 0.356887 0.223369 0.0592886 0.00185431 1.03167e-06 1.05171e-10 1.15578e-14 -1.93828e-15 1.93845e-15 -6.63378e-15 6.63374e-15 0 0 0.0349435 0.0532936 0.0655356 0.062981 0.0842886 0.100069 0.124899 0.145336 0.167126 0.190926 0.214173 0.238001 0.262162 0.290093 0.316043 0.350443 0.413625 0.41112 0.351736 0.217399 0.0555768 0.00162683 8.63621e-07 9.3852e-11 1.05749e-14 -1.93828e-15 1.93845e-15 -6.62919e-15 6.62909e-15 0 0 0.0320181 0.0830046 0.101068 0.0955403 0.119801 0.121805 0.141378 0.155695 0.17447 0.195677 0.217558 0.24078 0.264273 0.292076 0.316553 0.354022 0.413754 0.405763 0.340542 0.201509 0.0456047 0.00109329 5.11656e-07 6.62913e-11 7.94e-15 2.32279e-15 1.00416e-15 -6.64324e-15 3.35682e-15 0 0 0.0286894 0.0703702 0.0898856 0.103379 0.127407 0.134526 0.153054 0.166123 0.183224 0.202118 0.222445 0.244985 0.267885 0.295264 0.318113 0.362087 0.413682 0.397665 0.322817 0.176076 0.0322267 0.0005531 2.21492e-07 3.66729e-11 5.02355e-15 -2.01457e-18 1.1858e-17 -3.30859e-15 3.33916e-15 0 0 0.0161929 0.0525891 0.0800961 0.102715 0.12357 0.143642 0.159245 0.175138 0.192769 0.21012 0.229338 0.250738 0.273347 0.299461 0.321545 0.375176 0.410905 0.385249 0.296772 0.14145 0.018862 0.000204426 7.38816e-08 1.58682e-11 2.66276e-15 -7.60704e-18 -3.30941e-15 2.23469e-17 3.29456e-15 0 0 0.0157151 0.0449734 0.0727467 0.097818 0.124444 0.145999 0.161071 0.18074 0.200935 0.217723 0.237749 0.257275 0.280775 0.30394 0.328072 0.3891 0.404135 0.365964 0.259856 0.099457 0.00859928 5.31246e-05 1.98831e-08 5.42702e-12 9.47715e-16 3.28643e-15 7.29883e-17 -3.35911e-15 -3.13432e-19 0 0 0.0189013 0.0424059 0.0696787 0.0982109 0.124406 0.143623 0.162137 0.185653 0.20516 0.224178 0.244318 0.263439 0.288311 0.307217 0.340518 0.397104 0.39232 0.335933 0.20956 0.0567103 0.00285518 9.31977e-06 4.2678e-09 1.47409e-12 2.66963e-16 3.35921e-15 -1.90205e-14 1.90208e-14 -3.35947e-15 0 0 0.0190774 0.0414653 0.0687709 0.0976846 0.121537 0.1422 0.165093 0.187641 0.207105 0.228768 0.247478 0.27009 0.292177 0.310673 0.361713 0.394132 0.371628 0.291722 0.145997 0.0247062 0.000648996 1.09902e-06 6.82177e-10 3.147e-13 1.0223e-16 -1.90207e-14 -2.08974e-23 2.08974e-23 1.90207e-14 0 0 0.0189993 0.0412522 0.0666904 0.0939644 0.119201 0.142844 0.165644 0.186715 0.208868 0.229302 0.250233 0.274963 0.292043 0.321086 0.377162 0.380006 0.337192 0.229166 0.079175 0.00751441 9.38905e-05 1.01789e-07 8.02617e-11 5.26805e-14 3.63238e-18 -1.90207e-14 -8.61595e-18 8.65436e-18 1.90038e-14 0 0 0.018953 0.0405811 0.0647549 0.0906899 0.116558 0.140591 0.163186 0.186095 0.207699 0.228782 0.254281 0.273821 0.293625 0.345199 0.373608 0.354334 0.282815 0.147842 0.0304661 0.00145295 7.83386e-06 8.96911e-09 8.02156e-12 5.66104e-15 3.89487e-18 3.3594e-15 -1.90292e-14 1.23859e-17 1.5626e-14 0 0 0.0191014 0.0401791 0.0628456 0.0870808 0.111897 0.136393 0.160326 0.182924 0.205343 0.230983 0.252845 0.271195 0.310855 0.355891 0.353636 0.309306 0.203745 0.0681318 0.00761143 0.00016197 3.91214e-07 6.21455e-10 7.22201e-13 -2.94218e-15 3.17501e-34 -2.97653e-17 6.74842e-15 -2.57354e-14 2.23615e-14 0 0 0.0192229 0.0398613 0.0615163 0.0843173 0.108077 0.132122 0.155933 0.180262 0.206084 0.228893 0.24856 0.282537 0.332075 0.342177 0.315623 0.236866 0.107747 0.0205066 0.00108365 8.97682e-06 1.81426e-08 3.1291e-11 5.11827e-14 -3.32081e-15 -3.19492e-17 5.29162e-16 2.5616e-15 -2.51362e-15 -1.62073e-14 0 0 0.0193197 0.039664 0.0606932 0.0826284 0.105613 0.129615 0.15457 0.179874 0.202869 0.225145 0.258999 0.306315 0.323674 0.308075 0.249365 0.136956 0.0365464 0.00352421 7.61889e-05 2.63105e-07 7.4826e-10 1.55772e-12 -2.02722e-14 2.24157e-14 -3.21835e-17 1.93645e-17 -5.53178e-14 5.53283e-14 -1.90187e-14 0 0 0.0194088 0.0396441 0.0605673 0.082439 0.105438 0.129349 0.153396 0.176869 0.202439 0.239082 0.281015 0.300185 0.291106 0.245651 0.150515 0.0496811 0.00708971 0.000291989 2.18514e-06 7.77699e-09 2.20409e-11 7.72798e-14 -1.89755e-14 -4.37098e-18 2.08943e-18 2.18375e-14 -5.44896e-14 5.44821e-14 -2.18363e-14 0 0 0.0197623 0.0401292 0.0611639 0.0829365 0.105456 0.128702 0.153569 0.183243 0.221825 0.255285 0.273197 0.266865 0.229323 0.148264 0.0555915 0.0101428 0.000636186 9.09444e-06 4.08109e-08 1.81074e-10 6.69632e-13 -1.96259e-15 -1.56266e-14 -1.16169e-18 1.41339e-18 -6.77386e-19 2.23787e-14 -2.23787e-14 -5.25605e-18 0 0 0.0199981 0.0406151 0.0620185 0.0844557 0.108753 0.136613 0.169369 0.201731 0.228029 0.242531 0.2364 0.202769 0.13251 0.0528498 0.0111057 0.000903783 2.01419e-05 1.24364e-07 7.89788e-10 3.61471e-12 3.33179e-14 -2.23871e-14 3.37365e-15 2.23796e-14 -8.97591e-19 -4.47561e-14 4.47561e-14 -4.47561e-14 4.47582e-14 0 0 0.0215821 0.044474 0.0690637 0.0953904 0.122984 0.150581 0.176342 0.198197 0.207443 0.199787 0.167443 0.106503 0.0429146 0.0095526 0.000891363 2.58839e-05 2.18515e-07 1.84332e-09 1.0965e-11 5.04775e-14 -8.4717e-17 2.39011e-19 2.2381e-14 -2.23798e-14 1.27346e-20 -6.13569e-19 2.23787e-14 -2.23787e-14 -5.25605e-18 0 0 0.0250402 0.050329 0.0753882 0.100247 0.124644 0.146726 0.162337 0.167039 0.156626 0.124959 0.0746284 0.0291047 0.00635349 0.000612708 1.99464e-05 2.17332e-07 2.4219e-09 1.90871e-11 1.34432e-13 2.65825e-14 -4.47812e-14 4.47815e-14 -2.23849e-14 5.95274e-18 -2.4398e-21 2.23775e-14 -6.1259e-14 6.1259e-14 -2.23835e-14 0 0 0.0251461 0.0494925 0.0723351 0.0930785 0.1102 0.120485 0.120727 0.107506 0.0791961 0.0430813 0.0155053 0.00306658 0.000277401 8.92361e-06 1.22245e-07 1.8269e-09 1.89827e-11 1.89064e-13 1.73755e-15 -3.91646e-14 3.9153e-14 -2.86541e-16 1.52946e-17 3.47048e-18 2.25728e-18 2.23775e-14 -6.12591e-14 3.88768e-14 -9.31279e-18 0 0 0.0216334 0.0409747 0.0571698 0.0689231 0.0740885 0.0708052 0.0583426 0.0387044 0.0186448 0.00570735 0.000941101 7.21713e-05 2.1188e-06 3.95962e-08 7.75113e-10 1.07822e-11 1.39887e-13 1.73853e-15 2.16428e-18 -3.91668e-14 3.91632e-14 -2.97172e-16 1.95916e-17 -8.13741e-19 2.25972e-18 -6.13569e-19 2.23787e-14 -4.4761e-14 2.23689e-14 0 0 0.0130723 0.0232663 0.0296622 0.0314983 0.028615 0.021519 0.0123274 0.00480818 0.00112898 0.000143833 8.47948e-06 2.49217e-07 7.46233e-09 1.75201e-10 3.50586e-12 8.66491e-14 -1.81938e-14 -3.85915e-14 3.85945e-14 -1.44121e-17 1.0504e-17 2.23884e-14 -4.47613e-14 4.47613e-14 -6.87201e-21 -4.47561e-14 4.47554e-14 -2.23762e-14 2.23779e-14 0 0 0.00374392 0.00625335 0.00695247 0.00589116 0.00371717 0.00162045 0.000457306 7.76409e-05 7.06059e-06 3.57117e-07 1.67419e-08 7.08176e-10 2.08756e-11 6.43645e-13 -4.54948e-15 -8.7324e-17 -1.82703e-17 -3.85799e-14 3.85909e-14 -1.10482e-17 2.52121e-17 -1.9829e-17 3.00401e-16 -2.87324e-16 2.58637e-18 9.10312e-19 2.23765e-14 -2.23762e-14 2.23778e-14 0 0 0.000198539 0.000270262 0.000209448 0.000105393 3.45908e-05 7.12722e-06 9.05462e-07 8.50418e-08 7.798e-09 5.63019e-10 2.84173e-11 1.40988e-12 7.44865e-14 -1.93801e-15 -1.56387e-14 -2.59481e-18 -1.82381e-17 2.8625e-16 -2.75619e-16 2.23883e-14 -4.47677e-14 2.23757e-14 2.79222e-16 -2.67984e-16 1.47589e-18 2.23801e-14 -2.23817e-14 -2.23801e-14 4.47629e-14 0 0 1.48476e-07 1.68758e-07 1.01485e-07 4.07969e-08 1.25341e-08 3.05061e-09 5.36854e-10 6.56468e-11 6.68517e-12 6.31478e-13 4.02005e-14 -1.35207e-14 1.90198e-14 -2.2375e-14 3.37392e-15 2.23795e-14 -2.2385e-14 -1.48287e-17 1.91257e-17 -1.80432e-18 2.76041e-16 -2.93569e-16 2.06216e-19 1.82102e-17 5.44414e-18 -2.46422e-17 3.06e-16 -2.90491e-16 -3.88887e-14 0 0 1.13225e-11 1.62432e-11 1.33913e-11 7.42609e-12 3.01562e-12 9.39894e-13 2.26826e-13 3.5472e-14 4.83368e-15 3.77664e-15 -3.39763e-15 -1.56207e-14 -3.67954e-18 6.21252e-19 2.23793e-14 -2.23779e-14 -7.81761e-18 5.7804e-18 -1.47057e-18 1.76925e-21 2.87324e-16 -3.06691e-16 2.05072e-17 -1.14215e-18 6.54876e-18 -2.73209e-17 -3.85713e-14 6.09679e-14 -6.12681e-14 0 0 9.7872e-16 -4.92647e-15 7.91978e-15 -5.47808e-15 6.18708e-16 6.25991e-17 6.82088e-15 -6.72234e-15 3.33949e-18 -8.43889e-32 -3.15569e-17 6.7495e-15 -4.47598e-14 4.47592e-14 -9.23026e-19 -4.47561e-14 4.47561e-14 -4.47584e-14 4.47584e-14 6.86168e-21 -4.47587e-14 4.47576e-14 -4.47536e-14 4.47547e-14 -6.13575e-19 -1.55096e-18 -1.22526e-13 1.22524e-13 4.50547e-18 0 0 1.24805e-23 -2.32279e-15 6.80732e-17 7.3798e-18 -3.28625e-15 3.35958e-15 -1.90208e-14 1.90208e-14 -3.35939e-15 -3.03245e-17 5.25746e-16 5.68216e-15 -2.184e-14 5.49432e-19 4.30186e-34 -6.13569e-19 2.23787e-14 -2.23787e-14 6.13569e-19 -2.42069e-24 9.10296e-19 2.2376e-14 -4.47728e-14 4.47724e-14 3.43597e-19 -6.12875e-14 5.96022e-16 -5.95747e-16 6.1289e-14 0 0 1.02652e-30 1.00407e-15 -6.57594e-15 3.32453e-15 7.31703e-17 -1.90206e-14 -2.47838e-34 -8.61592e-18 1.90295e-14 -3.07796e-17 -3.10169e-15 -4.90796e-14 5.55682e-14 -2.23775e-14 -3.04692e-34 2.23775e-14 -6.1259e-14 6.1259e-14 -2.23775e-14 -6.63241e-19 2.23797e-14 -2.23817e-14 2.67832e-16 -3.91483e-14 -7.63017e-18 5.5637e-16 4.57719e-17 -4.5497e-17 -5.28923e-16 0 0 -2.90855e-16 -2.93418e-15 -3.2935e-15 3.86509e-17 3.35973e-15 -1.90208e-14 7.53007e-23 -8.57758e-18 1.26287e-17 1.9016e-14 -3.11358e-15 -4.91052e-14 5.55757e-14 -2.23775e-14 -9.12036e-35 2.23775e-14 -6.12591e-14 3.88768e-14 4.7438e-18 2.23785e-14 -2.23785e-14 -2.23855e-14 4.5049e-14 -6.15484e-14 -5.83055e-18 5.56645e-16 4.54973e-17 -4.57601e-17 -5.2866e-16 0 0 -9.57219e-11 -6.25802e-15 3.31323e-15 -3.27839e-15 3.13438e-19 3.35932e-15 -1.90207e-14 1.90039e-14 -2.23739e-14 2.23903e-14 -2.18348e-14 2.46466e-14 -2.184e-14 8.51434e-18 -1.1546e-38 -8.51434e-18 2.23865e-14 -4.47769e-14 2.23989e-14 2.23782e-14 -2.23783e-14 -4.52201e-18 -3.88941e-14 6.12735e-14 9.88332e-19 -6.12854e-14 6.19917e-16 -6.2018e-16 6.12875e-14 0 0 0 0 0 0 0 0 0 0 0 0 0 0 0 0 0 0 0 0 0 0 0 0 0 0 0 0 0 0 0 0
				</DataArray>
				<DataArray Name="VitesseY" type="Float32" format="ascii">
 0 0 0 0 0 0 0 0 0 0 0 0 0 0 0 0 0 0 0 0 0 0 0 0 0 0 0 0 0 0 0 -0.00683264 0.0349446 0.0320169 0.0286866 0.016189 0.0157124 0.0189008 0.0190776 0.0190005 0.018954 0.019102 0.0192233 0.0193204 0.0194095 0.0197627 0.0199982 0.0215819 0.0250395 0.0251451 0.0216321 0.0130711 0.00374337 0.000198486 1.48405e-07 1.13174e-11 9.82925e-16 1.36444e-23 4.85717e-21 4.59752e-18 4.53437e-18 0 -0.0367836 0.0533084 0.0830065 0.0703695 0.0525864 0.0449707 0.0424038 0.0414638 0.0412525 0.0405824 0.04018 0.0398623 0.0396651 0.0396451 0.0401299 0.0406152 0.0444736 0.0503276 0.0494906 0.0409723 0.023264 0.00625249 0.000270193 1.68683e-07 1.62359e-11 -4.93193e-15 -2.32279e-15 1.00398e-15 5.10403e-17 -3.23521e-15 0 -0.00680755 0.0655491 0.101072 0.0898863 0.0800948 0.0727435 0.0696746 0.0687671 0.0666888 0.0647555 0.0628468 0.0615179 0.0606948 0.0605685 0.0611646 0.0620188 0.0690633 0.0753863 0.0723324 0.0571665 0.0296595 0.0069516 0.000209399 1.01444e-07 1.33856e-11 7.91847e-15 6.80732e-17 -6.57581e-15 -3.28052e-15 3.32272e-15 0 0.0201081 0.0629898 0.0955509 0.103385 0.102717 0.0978171 0.0982073 0.0976798 0.0939607 0.0906895 0.0870826 0.0843195 0.0826303 0.0824405 0.0829373 0.0844559 0.0953896 0.100245 0.0930754 0.0689194 0.0314958 0.00589053 0.000105371 4.07833e-08 7.42333e-12 -5.47663e-15 7.37986e-18 3.3244e-15 3.87805e-17 -3.27812e-15 0 0.0508382 0.0842982 0.119813 0.127413 0.123572 0.124442 0.124401 0.121531 0.119197 0.116557 0.111899 0.10808 0.105615 0.105439 0.105457 0.108754 0.122982 0.124641 0.110197 0.0740852 0.0286133 0.00371687 3.45848e-05 1.25308e-08 3.0146e-12 6.18774e-16 -3.28625e-15 7.31703e-17 3.35973e-15 3.13412e-19 0 0.0796812 0.100075 0.121816 0.134535 0.143645 0.145997 0.143619 0.142196 0.142841 0.140589 0.136395 0.132124 0.129617 0.12935 0.128703 0.136613 0.15058 0.146724 0.120482 0.0708029 0.0215183 0.00162038 7.12632e-06 3.05001e-09 9.39688e-13 6.25334e-17 3.35958e-15 -1.90206e-14 -1.90208e-14 3.35932e-15 0 0.110029 0.124903 0.141385 0.15306 0.159246 0.16107 0.162133 0.165089 0.165641 0.163185 0.160326 0.155934 0.154572 0.153398 0.15357 0.169369 0.176341 0.162337 0.120726 0.0583422 0.0123275 0.000457305 9.05405e-07 5.36781e-10 2.2675e-13 6.82094e-15 -1.90208e-14 -1.19578e-23 8.30716e-23 -1.90207e-14 0 0.135159 0.145341 0.155701 0.166128 0.175138 0.180739 0.18565 0.187638 0.186713 0.186094 0.182925 0.180263 0.179875 0.17687 0.183244 0.201731 0.198197 0.16704 0.107507 0.0387054 0.00480839 7.76449e-05 8.50421e-08 6.56422e-11 3.54664e-14 -6.72234e-15 1.90208e-14 -8.61588e-18 -8.57758e-18 1.90039e-14 0 0.160175 0.167131 0.174475 0.183227 0.192768 0.200933 0.205158 0.207103 0.208867 0.207699 0.205343 0.206086 0.20287 0.20244 0.221825 0.22803 0.207445 0.156628 0.0791985 0.0186458 0.00112908 7.06138e-06 7.79843e-09 6.68501e-12 4.83381e-15 3.33949e-18 -3.35939e-15 1.90295e-14 1.26287e-17 -2.23739e-14 0 0.186259 0.190931 0.195681 0.202119 0.210119 0.21772 0.224175 0.228766 0.2293 0.22878 0.230983 0.228893 0.225146 0.239082 0.255286 0.242533 0.19979 0.124963 0.0430836 0.00570782 0.000143852 3.57173e-07 5.63082e-10 6.31555e-13 3.77664e-15 -8.43888e-32 -3.03245e-17 -3.07796e-17 1.9016e-14 2.23903e-14 0 0.211262 0.214179 0.217562 0.222447 0.229338 0.237745 0.244314 0.247475 0.250231 0.254279 0.252844 0.248561 0.258999 0.281016 0.2732 0.236403 0.167447 0.0746315 0.0155063 0.000941208 8.48097e-06 1.67446e-08 2.84213e-11 4.02208e-14 -3.39763e-15 -3.15569e-17 5.25746e-16 -3.10169e-15 -3.11358e-15 -2.18348e-14 0 0.236473 0.238006 0.240785 0.244988 0.250739 0.257272 0.263435 0.270085 0.274961 0.27382 0.271193 0.282537 0.306315 0.300186 0.266867 0.202772 0.106506 0.029106 0.00306683 7.21814e-05 2.49263e-07 7.08304e-10 1.41017e-12 -1.35208e-14 -1.56207e-14 6.7495e-15 5.68216e-15 -4.90796e-14 -4.91052e-14 2.46466e-14 0 0.261797 0.262167 0.264278 0.267888 0.273348 0.280773 0.288308 0.292173 0.29204 0.293624 0.310856 0.332075 0.323674 0.291107 0.229326 0.132512 0.0429161 0.00635383 0.000277428 2.11913e-06 7.46352e-09 2.08794e-11 7.44763e-14 1.90198e-14 -3.67952e-18 -4.47598e-14 -2.184e-14 5.55682e-14 5.55757e-14 -2.184e-14 0 0.290427 0.290099 0.292081 0.295267 0.299463 0.303939 0.307214 0.310669 0.321083 0.345198 0.35589 0.342177 0.308075 0.245652 0.148265 0.0528508 0.00955286 0.000612744 8.92456e-06 3.96013e-08 1.75228e-10 6.437e-13 -1.93814e-15 -2.2375e-14 6.2129e-19 4.47592e-14 5.49468e-19 -2.23775e-14 -2.23775e-14 8.51442e-18 0 0.317276 0.316048 0.316557 0.318115 0.321546 0.328071 0.340515 0.361711 0.37716 0.373605 0.353633 0.315621 0.249364 0.150514 0.0555914 0.0111057 0.000891382 1.99475e-05 1.22256e-07 7.75197e-10 3.50633e-12 -4.53871e-15 -1.56387e-14 3.37392e-15 2.23793e-14 -9.23074e-19 3.60583e-23 4.5902e-23 -1.10151e-24 7.6143e-23 0 0.351022 0.350443 0.354022 0.362086 0.375175 0.389098 0.397102 0.394129 0.380003 0.35433 0.309302 0.236862 0.136953 0.0496802 0.0101426 0.000903766 2.58839e-05 2.17339e-07 1.827e-09 1.0783e-11 8.66798e-14 -8.7324e-17 -2.59481e-18 2.23795e-14 -2.23779e-14 -4.47561e-14 -6.13571e-19 2.23775e-14 2.23775e-14 -8.5143e-18 0 0.415278 0.413624 0.413754 0.413682 0.410904 0.404134 0.392317 0.371624 0.337187 0.28281 0.203741 0.107744 0.0365448 0.00708935 0.000636151 2.01409e-05 2.18508e-07 2.4219e-09 1.89833e-11 1.39918e-13 -1.81938e-14 -1.82702e-17 -1.82382e-17 -2.2385e-14 -7.81765e-18 4.47561e-14 2.23787e-14 -6.1259e-14 -6.12591e-14 2.23865e-14 0 0.414654 0.411123 0.405765 0.397667 0.38525 0.365963 0.335931 0.291718 0.22916 0.147837 0.0681286 0.0205053 0.00352391 0.000291961 9.09349e-06 1.24353e-07 1.84322e-09 1.90866e-11 1.89064e-13 1.73853e-15 -3.85915e-14 -3.85799e-14 2.8625e-16 -1.48286e-17 5.78043e-18 -4.47584e-14 -2.23787e-14 6.1259e-14 3.88768e-14 -4.47769e-14 0 0.356893 0.351741 0.340547 0.322821 0.296775 0.259857 0.209558 0.145993 0.0791715 0.0304641 0.00761076 0.00108352 7.61782e-05 2.18479e-06 4.08057e-08 7.89703e-10 1.09641e-11 1.34401e-13 1.73755e-15 2.16426e-18 3.85945e-14 3.85909e-14 -2.75619e-16 1.91258e-17 -1.47051e-18 4.47584e-14 6.13605e-19 -2.23775e-14 4.7438e-18 2.23989e-14 0 0.223378 0.217408 0.201517 0.176082 0.141454 0.0994582 0.05671 0.0247054 0.00751394 0.00145281 0.000161947 8.97524e-06 2.63056e-07 7.77575e-09 1.81045e-10 3.6142e-12 5.04468e-14 2.65825e-14 -3.91646e-14 -3.91668e-14 -1.44121e-17 -1.10482e-17 2.23883e-14 -1.80425e-18 1.7889e-21 6.83945e-21 3.36373e-23 -6.63265e-19 2.23785e-14 2.23782e-14 0 0.0592949 0.0555826 0.0456092 0.0322295 0.0188634 0.00859972 0.00285524 0.000648985 9.38846e-05 7.83294e-06 3.91152e-07 1.81396e-08 7.48125e-10 2.2037e-11 6.69554e-13 3.33071e-14 -8.4717e-17 -4.47812e-14 3.9153e-14 3.91632e-14 1.05039e-17 2.52121e-17 -4.47677e-14 2.76041e-16 2.87324e-16 -4.47587e-14 9.10323e-19 2.23797e-14 -2.23785e-14 -2.23783e-14 0 0.00185476 0.00162722 0.00109354 0.000553217 0.000204464 5.31328e-05 9.32079e-06 1.09907e-06 1.01788e-07 8.96854e-09 6.21383e-10 3.12865e-11 1.55745e-12 7.72901e-14 -1.96246e-15 -2.23871e-14 2.38955e-19 4.47815e-14 -2.86541e-16 -2.97172e-16 2.23884e-14 -1.9829e-17 2.23757e-14 -2.93569e-16 -3.06691e-16 4.47576e-14 2.2376e-14 -2.23817e-14 -2.23855e-14 -4.52199e-18 0 1.03212e-06 8.63991e-07 5.11861e-07 2.2157e-07 7.39033e-08 1.98877e-08 4.26855e-09 6.8226e-10 8.02663e-11 8.02152e-12 7.22083e-13 5.11626e-14 -2.02721e-14 -1.89755e-14 -1.56266e-14 3.37365e-15 2.2381e-14 -2.23849e-14 1.52947e-17 1.95916e-17 -4.47613e-14 3.00401e-16 2.79222e-16 2.06295e-19 2.05072e-17 -4.47536e-14 -4.47728e-14 2.67832e-16 4.5049e-14 -3.88941e-14 0 1.05216e-10 9.38912e-11 6.6318e-11 3.66867e-11 1.58735e-11 5.42862e-12 1.47446e-12 3.14787e-13 5.26858e-14 5.66091e-15 -2.94218e-15 -3.32081e-15 2.24157e-14 -4.37102e-18 -1.16169e-18 2.23796e-14 -2.23798e-14 5.95275e-18 3.47051e-18 -8.13748e-19 4.47613e-14 -2.87324e-16 -2.67984e-16 1.82102e-17 -1.14209e-18 4.47547e-14 4.47724e-14 -3.91483e-14 -6.15484e-14 6.12735e-14 0 1.15599e-14 1.05812e-14 7.94506e-15 5.02184e-15 2.66119e-15 9.47649e-16 2.66897e-16 1.02164e-16 3.63235e-18 3.8948e-18 -5.37937e-23 -3.19492e-17 -3.21835e-17 2.08942e-18 1.41345e-18 -8.97638e-19 1.27707e-20 -2.40177e-21 2.25732e-18 2.25976e-18 -6.91904e-21 2.58642e-18 1.47588e-18 5.44413e-18 6.5488e-18 -6.13539e-19 3.43558e-19 -7.6302e-18 -5.83055e-18 9.88327e-19 0 -1.93828e-15 -1.93828e-15 2.32279e-15 -2.01454e-18 -7.60702e-18 3.28643e-15 3.35921e-15 -1.90207e-14 -1.90207e-14 3.3594e-15 -2.97653e-17 5.29162e-16 1.93645e-17 2.18375e-14 -6.77388e-19 -4.47561e-14 -6.13571e-19 2.23775e-14 2.23775e-14 -6.13571e-19 -4.47561e-14 9.1032e-19 2.23801e-14 -2.46422e-17 -2.73209e-17 -1.55097e-18 -6.12875e-14 5.5637e-16 5.56645e-16 -6.12854e-14 0 1.93828e-15 1.93828e-15 1.00407e-15 1.17267e-17 -3.30954e-15 7.29882e-17 -1.90205e-14 -4.07736e-23 -8.61591e-18 -1.90292e-14 6.74842e-15 2.5616e-15 -5.53178e-14 -5.44896e-14 2.23787e-14 4.47561e-14 2.23787e-14 -6.1259e-14 -6.12591e-14 2.23787e-14 4.47554e-14 2.23765e-14 -2.23817e-14 3.06e-16 -3.85713e-14 -1.22526e-13 5.96022e-16 4.57719e-17 4.54973e-17 6.19917e-16 0 -4.58656e-17 -3.36721e-16 -3.63162e-15 -3.29509e-15 2.27428e-17 -3.35911e-15 1.90208e-14 1.95995e-23 8.65432e-18 1.23858e-17 -2.57354e-14 -2.51362e-15 5.53283e-14 5.44821e-14 -2.23787e-14 -4.47561e-14 -2.23787e-14 6.1259e-14 3.88768e-14 -4.4761e-14 -2.23762e-14 -2.23762e-14 -2.23801e-14 -2.90491e-16 6.09679e-14 1.22524e-13 -5.95747e-16 -4.5497e-17 -4.576e-17 -6.2018e-16 0 1.91443e-10 9.57221e-11 3.76073e-16 3.32244e-15 3.29429e-15 -3.13422e-19 -3.35947e-15 1.90207e-14 1.90038e-14 1.5626e-14 2.23615e-14 -1.62073e-14 -1.90187e-14 -2.18363e-14 -5.25601e-18 4.47582e-14 -5.25605e-18 -2.23835e-14 -9.31285e-18 2.23689e-14 2.23779e-14 2.23778e-14 4.47629e-14 -3.88887e-14 -6.12681e-14 4.50544e-18 6.1289e-14 -5.28923e-16 -5.2866e-16 6.12875e-14 0 1.79083e-05 0 0 0 0 0 0 0 0 0 0 0 0 0 0 0 0 0 0 0 0 0 0 0 0 0 0 0 0 0 0
				</DataArray>
			</PointData>
			<CellData Scalars="Density">
				<DataArray Name="Density" type="Float32" format="ascii">