<?xml version="1.0"?>
<VTKFile type="PolyData">
	<PolyData>
		<Piece NumberOfPoints="961" NumberOfPolys="900">
			<Points>
				<DataArray type="Float32" NumberOfComponents="3" format="ascii">
 0 0 0 0.04 0 0 0.08 0 0 0.12 0 0 0.16 0 0 0.2 0 0 0.24 0 0 0.28 0 0 0.32 0 0 0.36 0 0 0.4 0 0 0.44 0 0 0.48 0 0 0.52 0 0 0.56 0 0 0.6 0 0 0.64 0 0 0.68 0 0 0.72 0 0 0.76 0 0 0.8 0 0 0.84 0 0 0.88 0 0 0.92 0 0 0.96 0 0 1 0 0 1.04 0 0 1.08 0 0 1.12 0 0 1.16 0 0 1.2 0 0 0 0.04 0 0.04 0.04 0 0.08 0.04 0 0.12 0.04 0 0.16 0.04 0 0.2 0.04 0 0.24 0.04 0 0.28 0.04 0 0.32 0.04 0 0.36 0.04 0 0.4 0.04 0 0.44 0.04 0 0.48 0.04 0 0.52 0.04 0 0.56 0.04 0 0.6 0.04 0 0.64 0.04 0 0.68 0.04 0 0.72 0.04 0 0.76 0.04 0 0.8 0.04 0 0.84 0.04 0 0.88 0.04 0 0.92 0.04 0 0.96 0.04 0 1 0.04 0 1.04 0.04 0 1.08 0.04 0 1.12 0.04 0 1.16 0.04 0 1.2 0.04 0 0 0.08 0 0.04 0.08 0 0.08 0.08 0 0.12 0.08 0 0.16 0.08 0 0.2 0.08 0 0.24 0.08 0 0.28 0.08 0 0.32 0.08 0 0.36 0.08 0 0.4 0.08 0 0.44 0.08 0 0.48 0.08 0 0.52 0.08 0 0.56 0.08 0 0.6 0.08 0 0.64 0.08 0 0.68 0.08 0 0.72 0.08 0 0.76 0.08 0 0.8 0.08 0 0.84 0.08 0 0.88 0.08 0 0.92 0.08 0 0.96 0.08 0 1 0.08 0 1.04 0.08 0 1.08 0.08 0 1.12 0.08 0 1.16 0.08 0 1.2 0.08 0 0 0.12 0 0.04 0.12 0 0.08 0.12 0 0.12 0.12 0 0.16 0.12 0 0.2 0.12 0 0.24 0.12 0 0.28 0.12 0 0.32 0.12 0 0.36 0.12 0 0.4 0.12 0 0.44 0.12 0 0.48 0.12 0 0.52 0.12 0 0.56 0.12 0 0.6 0.12 0 0.64 0.12 0 0.68 0.12 0 0.72 0.12 0 0.76 0.12 0 0.8 0.12 0 0.84 0.12 0 0.88 0.12 0 0.92 0.12 0 0.96 0.12 0 1 0.12 0 1.04 0.12 0 1.08 0.12 0 1.12 0.12 0 1.16 0.12 0 1.2 0.12 0 0 0.16 0 0.04 0.16 0 0.08 0.16 0 0.12 0.16 0 0.16 0.16 0 0.2 0.16 0 0.24 0.16 0 0.28 0.16 0 0.32 0.16 0 0.36 0.16 0 0.4 0.16 0 0.44 0.16 0 0.48 0.16 0 0.52 0.16 0 0.56 0.16 0 0.6 0.16 0 0.64 0.16 0 0.68 0.16 0 0.72 0.16 0 0.76 0.16 0 0.8 0.16 0 0.84 0.16 0 0.88 0.16 0 0.92 0.16 0 0.96 0.16 0 1 0.16 0 1.04 0.16 0 1.08 0.16 0 1.12 0.16 0 1.16 0.16 0 1.2 0.16 0 0 0.2 0 0.04 0.2 0 0.08 0.2 0 0.12 0.2 0 0.16 0.2 0 0.2 0.2 0 0.24 0.2 0 0.28 0.2 0 0.32 0.2 0 0.36 0.2 0 0.4 0.2 0 0.44 0.2 0 0.48 0.2 0 0.52 0.2 0 0.56 0.2 0 0.6 0.2 0 0.64 0.2 0 0.68 0.2 0 0.72 0.2 0 0.76 0.2 0 0.8 0.2 0 0.84 0.2 0 0.88 0.2 0 0.92 0.2 0 0.96 0.2 0 1 0.2 0 1.04 0.2 0 1.08 0.2 0 1.12 0.2 0 1.16 0.2 0 1.2 0.2 0 0 0.24 0 0.04 0.24 0 0.08 0.24 0 0.12 0.24 0 0.16 0.24 0 0.2 0.24 0 0.24 0.24 0 0.28 0.24 0 0.32 0.24 0 0.36 0.24 0 0.4 0.24 0 0.44 0.24 0 0.48 0.24 0 0.52 0.24 0 0.56 0.24 0 0.6 0.24 0 0.64 0.24 0 0.68 0.24 0 0.72 0.24 0 0.76 0.24 0 0.8 0.24 0 0.84 0.24 0 0.88 0.24 0 0.92 0.24 0 0.96 0.24 0 1 0.24 0 1.04 0.24 0 1.08 0.24 0 1.12 0.24 0 1.16 0.24 0 1.2 0.24 0 0 0.28 0 0.04 0.28 0 0.08 0.28 0 0.12 0.28 0 0.16 0.28 0 0.2 0.28 0 0.24 0.28 0 0.28 0.28 0 0.32 0.28 0 0.36 0.28 0 0.4 0.28 0 0.44 0.28 0 0.48 0.28 0 0.52 0.28 0 0.56 0.28 0 0.6 0.28 0 0.64 0.28 0 0.68 0.28 0 0.72 0.28 0 0.76 0.28 0 0.8 0.28 0 0.84 0.28 0 0.88 0.28 0 0.92 0.28 0 0.96 0.28 0 1 0.28 0 1.04 0.28 0 1.08 0.28 0 1.12 0.28 0 1.16 0.28 0 1.2 0.28 0 0 0.32 0 0.04 0.32 0 0.08 0.32 0 0.12 0.32 0 0.16 0.32 0 0.2 0.32 0 0.24 0.32 0 0.28 0.32 0 0.32 0.32 0 0.36 0.32 0 0.4 0.32 0 0.44 0.32 0 0.48 0.32 0 0.52 0.32 0 0.56 0.32 0 0.6 0.32 0 0.64 0.32 0 0.68 0.32 0 0.72 0.32 0 0.76 0.32 0 0.8 0.32 0 0.84 0.32 0 0.88 0.32 0 0.92 0.32 0 0.96 0.32 0 1 0.32 0 1.04 0.32 0 1.08 0.32 0 1.12 0.32 0 1.16 0.32 0 1.2 0.32 0 0 0.36 0 0.04 0.36 0 0.08 0.36 0 0.12 0.36 0 0.16 0.36 0 0.2 0.36 0 0.24 0.36 0 0.28 0.36 0 0.32 0.36 0 0.36 0.36 0 0.4 0.36 0 0.44 0.36 0 0.48 0.36 0 0.52 0.36 0 0.56 0.36 0 0.6 0.36 0 0.64 0.36 0 0.68 0.36 0 0.72 0.36 0 0.76 0.36 0 0.8 0.36 0 0.84 0.36 0 0.88 0.36 0 0.92 0.36 0 0.96 0.36 0 1 0.36 0 1.04 0.36 0 1.08 0.36 0 1.12 0.36 0 1.16 0.36 0 1.2 0.36 0 0 0.4 0 0.04 0.4 0 0.08 0.4 0 0.12 0.4 0 0.16 0.4 0 0.2 0.4 0 0.24 0.4 0 0.28 0.4 0 0.32 0.4 0 0.36 0.4 0 0.4 0.4 0 0.44 0.4 0 0.48 0.4 0 0.52 0.4 0 0.56 0.4 0 0.6 0.4 0 0.64 0.4 0 0.68 0.4 0 0.72 0.4 0 0.76 0.4 0 0.8 0.4 0 0.84 0.4 0 0.88 0.4 0 0.92 0.4 0 0.96 0.4 0 1 0.4 0 1.04 0.4 0 1.08 0.4 0 1.12 0.4 0 1.16 0.4 0 1.2 0.4 0 0 0.44 0 0.04 0.44 0 0.08 0.44 0 0.12 0.44 0 0.16 0.44 0 0.2 0.44 0 0.24 0.44 0 0.28 0.44 0 0.32 0.44 0 0.36 0.44 0 0.4 0.44 0 0.44 0.44 0 0.48 0.44 0 0.52 0.44 0 0.56 0.44 0 0.6 0.44 0 0.64 0.44 0 0.68 0.44 0 0.72 0.44 0 0.76 0.44 0 0.8 0.44 0 0.84 0.44 0 0.88 0.44 0 0.92 0.44 0 0.96 0.44 0 1 0.44 0 1.04 0.44 0 1.08 0.44 0 1.12 0.44 0 1.16 0.44 0 1.2 0.44 0 0 0.48 0 0.04 0.48 0 0.08 0.48 0 0.12 0.48 0 0.16 0.48 0 0.2 0.48 0 0.24 0.48 0 0.28 0.48 0 0.32 0.48 0 0.36 0.48 0 0.4 0.48 0 0.44 0.48 0 0.48 0.48 0 0.52 0.48 0 0.56 0.48 0 0.6 0.48 0 0.64 0.48 0 0.68 0.48 0 0.72 0.48 0 0.76 0.48 0 0.8 0.48 0 0.84 0.48 0 0.88 0.48 0 0.92 0.48 0 0.96 0.48 0 1 0.48 0 1.04 0.48 0 1.08 0.48 0 1.12 0.48 0 1.16 0.48 0 1.2 0.48 0 0 0.52 0 0.04 0.52 0 0.08 0.52 0 0.12 0.52 0 0.16 0.52 0 0.2 0.52 0 0.24 0.52 0 0.28 0.52 0 0.32 0.52 0 0.36 0.52 0 0.4 0.52 0 0.44 0.52 0 0.48 0.52 0 0.52 0.52 0 0.56 0.52 0 0.6 0.52 0 0.64 0.52 0 0.68 0.52 0 0.72 0.52 0 0.76 0.52 0 0.8 0.52 0 0.84 0.52 0 0.88 0.52 0 0.92 0.52 0 0.96 0.52 0 1 0.52 0 1.04 0.52 0 1.08 0.52 0 1.12 0.52 0 1.16 0.52 0 1.2 0.52 0 0 0.56 0 0.04 0.56 0 0.08 0.56 0 0.12 0.56 0 0.16 0.56 0 0.2 0.56 0 0.24 0.56 0 0.28 0.56 0 0.32 0.56 0 0.36 0.56 0 0.4 0.56 0 0.44 0.56 0 0.48 0.56 0 0.52 0.56 0 0.56 0.56 0 0.6 0.56 0 0.64 0.56 0 0.68 0.56 0 0.72 0.56 0 0.76 0.56 0 0.8 0.56 0 0.84 0.56 0 0.88 0.56 0 0.92 0.56 0 0.96 0.56 0 1 0.56 0 1.04 0.56 0 1.08 0.56 0 1.12 0.56 0 1.16 0.56 0 1.2 0.56 0 0 0.6 0 0.04 0.6 0 0.08 0.6 0 0.12 0.6 0 0.16 0.6 0 0.2 0.6 0 0.24 0.6 0 0.28 0.6 0 0.32 0.6 0 0.36 0.6 0 0.4 0.6 0 0.44 0.6 0 0.48 0.6 0 0.52 0.6 0 0.56 0.6 0 0.6 0.6 0 0.64 0.6 0 0.68 0.6 0 0.72 0.6 0 0.76 0.6 0 0.8 0.6 0 0.84 0.6 0 0.88 0.6 0 0.92 0.6 0 0.96 0.6 0 1 0.6 0 1.04 0.6 0 1.08 0.6 0 1.12 0.6 0 1.16 0.6 0 1.2 0.6 0 0 0.64 0 0.04 0.64 0 0.08 0.64 0 0.12 0.64 0 0.16 0.64 0 0.2 0.64 0 0.24 0.64 0 0.28 0.64 0 0.32 0.64 0 0.36 0.64 0 0.4 0.64 0 0.44 0.64 0 0.48 0.64 0 0.52 0.64 0 0.56 0.64 0 0.6 0.64 0 0.64 0.64 0 0.68 0.64 0 0.72 0.64 0 0.76 0.64 0 0.8 0.64 0 0.84 0.64 0 0.88 0.64 0 0.92 0.64 0 0.96 0.64 0 1 0.64 0 1.04 0.64 0 1.08 0.64 0 1.12 0.64 0 1.16 0.64 0 1.2 0.64 0 0 0.68 0 0.04 0.68 0 0.08 0.68 0 0.12 0.68 0 0.16 0.68 0 0.2 0.68 0 0.24 0.68 0 0.28 0.68 0 0.32 0.68 0 0.36 0.68 0 0.4 0.68 0 0.44 0.68 0 0.48 0.68 0 0.52 0.68 0 0.56 0.68 0 0.6 0.68 0 0.64 0.68 0 0.68 0.68 0 0.72 0.68 0 0.76 0.68 0 0.8 0.68 0 0.84 0.68 0 0.88 0.68 0 0.92 0.68 0 0.96 0.68 0 1 0.68 0 1.04 0.68 0 1.08 0.68 0 1.12 0.68 0 1.16 0.68 0 1.2 0.68 0 0 0.72 0 0.04 0.72 0 0.08 0.72 0 0.12 0.72 0 0.16 0.72 0 0.2 0.72 0 0.24 0.72 0 0.28 0.72 0 0.32 0.72 0 0.36 0.72 0 0.4 0.72 0 0.44 0.72 0 0.48 0.72 0 0.52 0.72 0 0.56 0.72 0 0.6 0.72 0 0.64 0.72 0 0.68 0.72 0 0.72 0.72 0 0.76 0.72 0 0.8 0.72 0 0.84 0.72 0 0.88 0.72 0 0.92 0.72 0 0.96 0.72 0 1 0.72 0 1.04 0.72 0 1.08 0.72 0 1.12 0.72 0 1.16 0.72 0 1.2 0.72 0 0 0.76 0 0.04 0.76 0 0.08 0.76 0 0.12 0.76 0 0.16 0.76 0 0.2 0.76 0 0.24 0.76 0 0.28 0.76 0 0.32 0.76 0 0.36 0.76 0 0.4 0.76 0 0.44 0.76 0 0.48 0.76 0 0.52 0.76 0 0.56 0.76 0 0.6 0.76 0 0.64 0.76 0 0.68 0.76 0 0.72 0.76 0 0.76 0.76 0 0.8 0.76 0 0.84 0.76 0 0.88 0.76 0 0.92 0.76 0 0.96 0.76 0 1 0.76 0 1.04 0.76 0 1.08 0.76 0 1.12 0.76 0 1.16 0.76 0 1.2 0.76 0 0 0.8 0 0.04 0.8 0 0.08 0.8 0 0.12 0.8 0 0.16 0.8 0 0.2 0.8 0 0.24 0.8 0 0.28 0.8 0 0.32 0.8 0 0.36 0.8 0 0.4 0.8 0 0.44 0.8 0 0.48 0.8 0 0.52 0.8 0 0.56 0.8 0 0.6 0.8 0 0.64 0.8 0 0.68 0.8 0 0.72 0.8 0 0.76 0.8 0 0.8 0.8 0 0.84 0.8 0 0.88 0.8 0 0.92 0.8 0 0.96 0.8 0 1 0.8 0 1.04 0.8 0 1.08 0.8 0 1.12 0.8 0 1.16 0.8 0 1.2 0.8 0 0 0.84 0 0.04 0.84 0 0.08 0.84 0 0.12 0.84 0 0.16 0.84 0 0.2 0.84 0 0.24 0.84 0 0.28 0.84 0 0.32 0.84 0 0.36 0.84 0 0.4 0.84 0 0.44 0.84 0 0.48 0.84 0 0.52 0.84 0 0.56 0.84 0 0.6 0.84 0 0.64 0.84 0 0.68 0.84 0 0.72 0.84 0 0.76 0.84 0 0.8 0.84 0 0.84 0.84 0 0.88 0.84 0 0.92 0.84 0 0.96 0.84 0 1 0.84 0 1.04 0.84 0 1.08 0.84 0 1.12 0.84 0 1.16 0.84 0 1.2 0.84 0 0 0.88 0 0.04 0.88 0 0.08 0.88 0 0.12 0.88 0 0.16 0.88 0 0.2 0.88 0 0.24 0.88 0 0.28 0.88 0 0.32 0.88 0 0.36 0.88 0 0.4 0.88 0 0.44 0.88 0 0.48 0.88 0 0.52 0.88 0 0.56 0.88 0 0.6 0.88 0 0.64 0.88 0 0.68 0.88 0 0.72 0.88 0 0.76 0.88 0 0.8 0.88 0 0.84 0.88 0 0.88 0.88 0 0.92 0.88 0 0.96 0.88 0 1 0.88 0 1.04 0.88 0 1.08 0.88 0 1.12 0.88 0 1.16 0.88 0 1.2 0.88 0 0 0.92 0 0.04 0.92 0 0.08 0.92 0 0.12 0.92 0 0.16 0.92 0 0.2 0.92 0 0.24 0.92 0 0.28 0.92 0 0.32 0.92 0 0.36 0.92 0 0.4 0.92 0 0.44 0.92 0 0.48 0.92 0 0.52 0.92 0 0.56 0.92 0 0.6 0.92 0 0.64 0.92 0 0.68 0.92 0 0.72 0.92 0 0.76 0.92 0 0.8 0.92 0 0.84 0.92 0 0.88 0.92 0 0.92 0.92 0 0.96 0.92 0 1 0.92 0 1.04 0.92 0 1.08 0.92 0 1.12 0.92 0 1.16 0.92 0 1.2 0.92 0 0 0.96 0 0.04 0.96 0 0.08 0.96 0 0.12 0.96 0 0.16 0.96 0 0.2 0.96 0 0.24 0.96 0 0.28 0.96 0 0.32 0.96 0 0.36 0.96 0 0.4 0.96 0 0.44 0.96 0 0.48 0.96 0 0.52 0.96 0 0.56 0.96 0 0.6 0.96 0 0.64 0.96 0 0.68 0.96 0 0.72 0.96 0 0.76 0.96 0 0.8 0.96 0 0.84 0.96 0 0.88 0.96 0 0.92 0.96 0 0.96 0.96 0 1 0.96 0 1.04 0.96 0 1.08 0.96 0 1.12 0.96 0 1.16 0.96 0 1.2 0.96 0 0 1 0 0.04 1 0 0.08 1 0 0.12 1 0 0.16 1 0 0.2 1 0 0.24 1 0 0.28 1 0 0.32 1 0 0.36 1 0 0.4 1 0 0.44 1 0 0.48 1 0 0.52 1 0 0.56 1 0 0.6 1 0 0.64 1 0 0.68 1 0 0.72 1 0 0.76 1 0 0.8 1 0 0.84 1 0 0.88 1 0 0.92 1 0 0.96 1 0 1 1 0 1.04 1 0 1.08 1 0 1.12 1 0 1.16 1 0 1.2 1 0 0 1.04 0 0.04 1.04 0 0.08 1.04 0 0.12 1.04 0 0.16 1.04 0 0.2 1.04 0 0.24 1.04 0 0.28 1.04 0 0.32 1.04 0 0.36 1.04 0 0.4 1.04 0 0.44 1.04 0 0.48 1.04 0 0.52 1.04 0 0.56 1.04 0 0.6 1.04 0 0.64 1.04 0 0.68 1.04 0 0.72 1.04 0 0.76 1.04 0 0.8 1.04 0 0.84 1.04 0 0.88 1.04 0 0.92 1.04 0 0.96 1.04 0 1 1.04 0 1.04 1.04 0 1.08 1.04 0 1.12 1.04 0 1.16 1.04 0 1.2 1.04 0 0 1.08 0 0.04 1.08 0 0.08 1.08 0 0.12 1.08 0 0.16 1.08 0 0.2 1.08 0 0.24 1.08 0 0.28 1.08 0 0.32 1.08 0 0.36 1.08 0 0.4 1.08 0 0.44 1.08 0 0.48 1.08 0 0.52 1.08 0 0.56 1.08 0 0.6 1.08 0 0.64 1.08 0 0.68 1.08 0 0.72 1.08 0 0.76 1.08 0 0.8 1.08 0 0.84 1.08 0 0.88 1.08 0 0.92 1.08 0 0.96 1.08 0 1 1.08 0 1.04 1.08 0 1.08 1.08 0 1.12 1.08 0 1.16 1.08 0 1.2 1.08 0 0 1.12 0 
[...]
			<PointData Scalars="VitesseX">
				<DataArray Name="VitesseX" type="Float32" format="ascii">
 0 0.00500527 -0.0124255 -0.0122096 0.0104478 0.0500157 0.0779669 0.102201 0.130282 0.153672 0.177218 0.201934 0.225826 0.250121 0.275573 0.303241 0.328872 0.387745 0.411708 0.377829 0.275621 0.11345 0.00973156 3.07295e-05 3.62242e-09 4.0699e-13 -1.98475e-15 1.9944e-15 -6.82471e-15 6.8247e-15 0 0 0.0635608 0.0579087 0.0523012 0.0608907 0.0760299 0.100416 0.116262 0.140517 0.160786 0.18203 0.204936 0.227521 0.250662 0.275415 0.302297 0.327795 0.387191 0.40868 0.373569 0.270062 0.108499 0.008804 2.58633e-05 3.19806e-09 3.70054e-13 -1.98686e-15 1.99441e-15 -6.82086e-15 6.82077e-15 0 0 0.0581496 0.0637701 0.0859323 0.103832 0.104606 0.124607 0.132215 0.15066 0.167899 0.186948 0.208239 0.230199 0.252682 0.277478 0.303203 0.32935 0.390249 0.404829 0.365281 0.256129 0.0947321 0.00647392 1.53999e-05 2.18933e-09 2.77283e-13 2.39893e-15 1.03452e-15 -6.83803e-15 3.45637e-15 0 0 0.0294976 0.0543312 0.0869656 0.108333 0.117859 0.133045 0.14581 0.160315 0.175555 0.193369 0.212938 0.234236 0.25594 0.280979 0.304847 0.333624 0.394932 0.399612 0.352091 0.233729 0.0740886 0.0037797 6.47473e-06 1.14651e-09 1.69759e-13 8.48437e-19 1.42201e-17 -3.40717e-15 3.44111e-15 0 0 0.0202288 0.0446012 0.0781685 0.101601 0.119014 0.134545 0.154555 0.168773 0.183705 0.20144 0.219352 0.239899 0.260668 0.285811 0.307386 0.34233 0.398633 0.391887 0.332031 0.201847 0.0499478 0.00169217 1.93694e-06 4.52682e-10 8.32062e-14 -1.07211e-17 -3.40466e-15 2.23611e-17 3.39315e-15 0 0 0.01792 0.0409864 0.071837 0.095329 0.116321 0.136054 0.158237 0.173035 0.191415 0.20908 0.226999 0.246568 0.266971 0.291345 0.311104 0.35707 0.398081 0.378999 0.303158 0.15971 0.0278154 0.000557619 4.2936e-07 1.34696e-10 3.16485e-14 3.38202e-15 7.7947e-17 -3.4593e-15 -3.4038e-19 0 0 0.0169757 0.0400103 0.0676984 0.0929612 0.115306 0.139154 0.158403 0.175571 0.196692 0.214524 0.234076 0.252122 0.274399 0.295599 0.317238 0.373749 0.391266 0.358359 0.262436 0.109336 0.0119393 0.000128379 7.77457e-08 3.126e-11 9.29727e-15 3.45946e-15 -1.95553e-14 1.95555e-14 -3.45968e-15 0 0 0.0183009 0.0399113 0.0658685 0.0917013 0.116321 0.138813 0.157424 0.178605 0.198692 0.218852 0.237832 0.256945 0.280573 0.297677 0.329919 0.382408 0.378074 0.325755 0.206739 0.0592207 0.00364751 1.93852e-05 1.23328e-08 6.03618e-12 2.26706e-15 -1.95555e-14 -1.9643e-23 1.9643e-23 1.95555e-14 0 0 0.0179753 0.0399353 0.0651961 0.0900914 0.114598 0.136852 0.158217 0.17911 0.19991 0.220566 0.239214 0.262467 0.281993 0.30083 0.351796 0.377724 0.354822 0.277062 0.136889 0.023725 0.000737778 1.85194e-06 1.56098e-09 9.75071e-13 4.33413e-16 -1.95555e-14 -8.53705e-18 8.58224e-18 1.95359e-14 0 0 0.018163 0.0390018 0.0626428 0.0871152 0.111883 0.135191 0.156946 0.178431 0.199899 0.21945 0.241918 0.264398 0.280723 0.314451 0.363009 0.360923 0.315702 0.20801 0.0676474 0.00640269 9.10429e-05 1.31209e-07 1.42218e-10 1.18858e-13 -2.41808e-17 3.45961e-15 -1.95639e-14 1.29697e-17 1.60545e-14 0 0 0.0184355 0.0386431 0.0606035 0.0839757 0.1081 0.13156 0.154329 0.176444 0.197082 0.219798 0.243777 0.261236 0.285804 0.33785 0.35404 0.330157 0.254278 0.121798 0.0228893 0.001048 6.11662e-06 9.13411e-09 1.08118e-11 7.0317e-15 -9.98485e-18 -2.97392e-17 6.94878e-15 -2.64698e-14 2.29929e-14 0 0 0.0185939 0.038442 0.0593738 0.0813713 0.104248 0.127464 0.150314 0.172644 0.196488 0.220633 0.239737 0.262292 0.309464 0.338374 0.328663 0.276856 0.166917 0.0483469 0.00475876 9.28974e-05 2.44955e-07 5.04028e-10 7.70863e-13 -2.77458e-15 -3.5331e-17 6.24562e-16 2.05004e-15 -2.00196e-15 -1.67339e-14 0 0 0.018634 0.03824 0.0585349 0.0795896 0.101581 0.124337 0.14777 0.172069 0.195807 0.216357 0.24032 0.283773 0.317232 0.317085 0.281587 0.193768 0.0744975 0.0119661 0.000527333 3.78592e-06 9.82775e-09 2.07542e-11 1.67684e-14 2.30518e-14 -3.55625e-17 2.26448e-17 -5.64873e-14 5.64973e-14 -1.95527e-14 0 0 0.0186484 0.0380879 0.0581193 0.0789656 0.100851 0.123803 0.147339 0.170237 0.192495 0.219674 0.261734 0.293428 0.298566 0.273115 0.202561 0.0929408 0.0204042 0.00154727 2.5944e-05 9.244e-08 3.19556e-10 8.76784e-13 -1.8205e-14 -4.64319e-18 2.17773e-18 2.238e-14 -5.50473e-14 5.50391e-14 -2.23781e-14 0 0 0.018879 0.038382 0.0585177 0.0794228 0.101141 0.123384 0.146069 0.170685 0.202212 0.241209 0.26801 0.274771 0.254875 0.196216 0.0995102 0.0265368 0.00287454 8.66688e-05 5.19484e-07 2.44026e-09 8.26096e-12 2.25273e-14 -1.60824e-14 -1.28827e-18 1.41638e-18 -6.87592e-19 2.30134e-14 -2.30134e-14 -5.13537e-18 0 0 0.0191643 0.0388359 0.0591057 0.080032 0.101988 0.126019 0.154234 0.18794 0.218849 0.241097 0.246292 0.228779 0.177543 0.0939179 0.028 0.00377563 0.00016633 1.63954e-06 9.47787e-09 4.51212e-11 2.2958e-13 -2.23718e-14 3.47527e-15 2.30143e-14 -9.6928e-19 -4.60253e-14 4.60252e-14 -4.60252e-14 4.60275e-14 0 0 0.0198137 0.0405914 0.0626674 0.0865747 0.113059 0.14123 0.168769 0.193279 0.210995 0.213093 0.195559 0.148822 0.078319 0.0244931 0.00369353 0.000203259 2.86995e-06 2.08497e-08 1.41817e-10 8.41746e-13 2.80594e-15 2.29649e-16 2.30157e-14 -2.30145e-14 2.38e-20 -6.89946e-19 2.30134e-14 -2.30134e-14 -5.13537e-18 0 0 0.0231105 0.0469999 0.0713325 0.0959108 0.120097 0.143647 0.164046 0.175765 0.174573 0.155316 0.112459 0.0565722 0.0175677 0.00270358 0.000163729 2.85724e-06 2.69885e-08 2.5016e-10 1.90013e-12 3.82811e-14 -4.59974e-14 4.60519e-14 -2.30196e-14 5.91725e-18 -6.48887e-21 2.30121e-14 -6.29591e-14 6.29591e-14 -2.30179e-14 0 0 0.0243211 0.048262 0.0714728 0.0935805 0.113139 0.128225 0.134888 0.130006 0.109214 0.0728682 0.0339765 0.00982621 0.00141815 8.43245e-05 1.61649e-06 2.06308e-08 2.48979e-10 2.48033e-12 2.15154e-14 -4.0188e-14 4.02376e-14 -3.06087e-16 1.6489e-17 3.22458e-18 2.40514e-18 2.30121e-14 -6.29591e-14 3.99423e-14 -9.33891e-18 0 0 0.0224831 0.0433539 0.0618505 0.0769397 0.0868009 0.0888256 0.0809395 0.0624099 0.0372838 0.0155186 0.00384691 0.000480384 2.50629e-05 5.05395e-07 9.28431e-09 1.39675e-10 1.8876e-12 2.1949e-14 -1.55335e-16 -4.02516e-14 4.02482e-14 -3.17215e-16 2.08248e-17 -1.08735e-18 2.41163e-18 -6.89946e-19 2.30133e-14 -4.60301e-14 2.30034e-14 0 0 0.0161495 0.0295605 0.0392934 0.0441833 0.043385 0.0367671 0.0254756 0.0131429 0.00445403 0.000864371 8.54648e-05 3.61998e-06 8.82351e-08 2.36705e-09 4.38253e-11 8.6314e-13 -7.76501e-15 -3.9586e-14 3.96404e-14 -1.47612e-17 1.09856e-17 2.30235e-14 -4.60305e-14 4.60305e-14 -8.73971e-21 -4.60253e-14 4.60245e-14 -2.30105e-14 2.30125e-14 0 0 0.00644536 0.011061 0.0131855 0.0126739 0.00975337 0.00564003 0.00222905 0.000551286 7.84504e-05 5.64175e-06 2.26711e-07 9.24111e-09 3.05043e-10 7.89547e-12 1.85331e-13 3.14875e-15 3.47605e-17 -3.96253e-14 3.96369e-14 -1.16066e-17 2.69068e-17 -2.07368e-17 3.20407e-16 -3.06958e-16 2.53989e-18 9.93069e-19 2.30109e-14 -2.30106e-14 2.30124e-14 0 0 0.000828841 0.00125626 0.00115291 0.000723502 0.000311695 8.89532e-05 1.56176e-05 1.59907e-06 1.14031e-07 8.18314e-09 4.65534e-10 1.91227e-11 8.28152e-13 2.16667e-14 -1.58788e-14 2.26825e-16 -1.93718e-17 3.0575e-16 -2.94623e-16 2.30235e-14 -4.60366e-14 2.30099e-14 2.97781e-16 -2.86366e-16 1.3278e-18 2.30149e-14 -2.30163e-14 -2.30147e-14 4.60323e-14 0 0 4.2303e-06 4.97833e-06 3.05814e-06 1.15526e-06 2.90031e-07 5.57222e-08 9.47967e-09 1.29822e-09 1.22255e-10 9.37149e-12 6.88231e-13 2.10313e-14 2.09052e-14 -2.30345e-14 3.4758e-15 2.3014e-14 -2.30196e-14 -1.59554e-17 2.02912e-17 -1.94406e-18 2.95499e-16 -3.14109e-16 2.62977e-19 1.92566e-17 5.48572e-18 -2.58475e-17 3.26812e-16 -3.10314e-16 -3.99546e-14 0 0 4.20368e-10 5.82437e-10 4.5817e-10 2.35573e-10 8.25739e-11 2.09363e-11 4.31444e-12 7.51213e-13 9.91511e-14 1.26409e-14 -2.85412e-15 -1.60537e-14 -3.78547e-18 6.15998e-19 2.30139e-14 -2.30124e-14 -7.97174e-18 5.84112e-18 -1.48145e-18 6.87932e-20 3.06958e-16 -3.27602e-16 2.18594e-17 -1.28441e-18 6.68277e-18 -2.88122e-17 -3.9616e-14 6.26479e-14 -6.29682e-14 0 0 3.69382e-14 4.90847e-14 5.85846e-14 2.80969e-14 1.67009e-14 5.66927e-15 8.2929e-15 -6.45656e-15 -4.85698e-18 -9.98435e-18 -3.49178e-17 6.95313e-15 -4.60293e-14 4.60287e-14 -1.01685e-18 -4.60253e-14 4.60252e-14 -4.60276e-14 4.60277e-14 8.73187e-21 -4.60278e-14 4.60266e-14 -4.60225e-14 4.60238e-14 -6.89921e-19 -1.72036e-18 -1.25927e-13 1.25925e-13 5.02117e-18 0 0 2.10431e-18 -2.39366e-15 7.57361e-17 1.04515e-17 -3.38127e-15 3.45988e-15 -1.95556e-14 1.95556e-14 -3.45961e-15 -3.03886e-17 6.14441e-16 5.70162e-15 -2.23827e-14 6.9197e-19 3.58181e-34 -6.89946e-19 2.30134e-14 -2.30134e-14 6.89946e-19 -2.42069e-24 9.93052e-19 2.30104e-14 -4.6043e-14 4.60424e-14 3.83599e-19 -6.29884e-14 6.35423e-16 -6.3541e-16 6.29903e-14 0 0 1.39117e-30 1.03443e-15 -6.77076e-15 3.42649e-15 7.81756e-17 -1.95554e-14 -2.68738e-34 -8.53702e-18 1.95643e-14 -3.09511e-17 -3.62944e-15 -4.91937e-14 5.631e-14 -2.3012e-14 -3.37497e-34 2.30121e-14 -6.29591e-14 6.29591e-14 -2.3012e-14 -7.51015e-19 2.30144e-14 -2.30163e-14 2.8616e-16 -4.02325e-14 -8.20568e-18 5.95659e-16 4.61938e-17 -4.61809e-17 -5.67364e-16 0 0 -2.91265e-16 -3.27539e-15 -3.39393e-15 4.53776e-17 3.45998e-15 -1.95556e-14 7.40427e-23 -8.49189e-18 1.32722e-17 1.955e-14 -3.64128e-15 -4.922e-14 5.63181e-14 -2.3012e-14 -1.60208e-34 2.30121e-14 -6.29591e-14 3.99423e-14 4.75784e-18 2.30132e-14 -2.30131e-14 -2.30201e-14 4.63375e-14 -6.32684e-14 -6.21308e-18 5.95672e-16 4.61812e-17 -4.61156e-17 -5.6743e-16 0 0 -1.08612e-10 -6.69954e-15 3.40999e-15 -3.37027e-15 3.4038e-19 3.45953e-15 -1.95555e-14 1.9536e-14 -2.30083e-14 2.30272e-14 -2.23776e-14 2.51968e-14 -2.23822e-14 8.75367e-18 -2.03214e-38 -8.75366e-18 2.30213e-14 -4.60463e-14 2.30337e-14 2.30128e-14 -2.30129e-14 -4.53569e-18 -3.99605e-14 6.29742e-14 1.068e-18 -6.29863e-14 6.59726e-16 -6.5966e-16 6.29883e-14 0 0 0 0 0 0 0 0 0 0 0 0 0 0 0 0 0 0 0 0 0 0 0 0 0 0 0 0 0 0 0 0
				</DataArray>
				<DataArray Name="VitesseY" type="Float32" format="ascii">
 0 0 0 0 0 0 0 0 0 0 0 0 0 0 0 0 0 0 0 0 0 0 0 0 0 0 0 0 0 0 0 0.00502351 0.0635628 0.0581445 0.0294898 0.0202255 0.0179186 0.0169751 0.018301 0.0179762 0.018164 0.0184362 0.0185942 0.0186347 0.0186492 0.0188796 0.0191645 0.0198136 0.0231101 0.0243203 0.022482 0.0161482 0.00644452 0.000828671 4.2286e-06 4.20185e-10 3.69403e-14 2.10432e-18 8.11539e-21 3.87053e-18 3.79415e-18 0 -0.0124114 0.0579206 0.0637731 0.0543302 0.0445984 0.0409833 0.0400075 0.03991 0.0399356 0.039003 0.038644 0.0384428 0.0382411 0.038089 0.0383828 0.0388362 0.0405913 0.0469989 0.0482604 0.0433517 0.0295581 0.0110596 0.00125601 4.97639e-06 5.82189e-10 4.90536e-14 -2.39366e-15 1.03433e-15 5.33936e-17 -3.3281e-15 0 -0.0122008 0.0523156 0.0859379 0.086969 0.0781685 0.0718348 0.0676952 0.0658652 0.0651943 0.0626429 0.0606044 0.0593752 0.0585365 0.0581206 0.0585185 0.0591059 0.0626672 0.0713311 0.0714706 0.0618474 0.0392903 0.013184 0.0011527 3.05703e-06 4.57985e-10 5.85498e-14 7.57361e-17 -6.77062e-15 -3.37912e-15 3.41796e-15 0 0.0104517 0.0609022 0.103841 0.108336 0.101602 0.0953273 0.0929573 0.0916966 0.0900875 0.0871143 0.0839773 0.0813733 0.0795913 0.078967 0.0794236 0.0800323 0.0865745 0.0959089 0.0935777 0.0769361 0.0441801 0.0126727 0.000723385 1.15489e-06 2.35486e-10 2.81009e-14 1.04515e-17 3.42636e-15 4.5507e-17 -3.37e-15 0 0.0500139 0.0760367 0.104618 0.117866 0.119018 0.11632 0.115302 0.116315 0.114594 0.111882 0.108102 0.10425 0.101583 0.100852 0.101142 0.101989 0.113059 0.120095 0.113137 0.0867974 0.0433825 0.0097527 0.000311655 2.89956e-07 8.25471e-11 1.66932e-14 -3.38127e-15 7.81756e-17 3.45998e-15 3.40349e-19 0 0.0779669 0.100422 0.124618 0.133052 0.134547 0.136053 0.13915 0.138808 0.136848 0.135189 0.131561 0.127467 0.124339 0.123805 0.123385 0.126019 0.14123 0.143646 0.128223 0.0888229 0.0367657 0.00563982 8.89454e-05 5.57122e-08 2.0931e-11 5.65915e-15 3.45988e-15 -1.95554e-14 -1.95556e-14 3.45953e-15 0 0.102201 0.116268 0.132224 0.145817 0.154558 0.158236 0.1584 0.15742 0.158214 0.156945 0.154329 0.150316 0.147772 0.14734 0.146071 0.154235 0.168768 0.164045 0.134886 0.0809386 0.0254756 0.00222905 1.56171e-05 9.47867e-09 4.31372e-12 8.2904e-15 -1.95556e-14 -1.32028e-23 8.18143e-23 -1.95555e-14 0 0.130282 0.140521 0.150665 0.16032 0.168773 0.173034 0.175568 0.178603 0.179108 0.17843 0.176445 0.172645 0.17207 0.170238 0.170686 0.18794 0.193279 0.175766 0.130006 0.0624106 0.0131433 0.000551314 1.59912e-06 1.29816e-09 7.51053e-13 -6.45676e-15 1.95556e-14 -8.53699e-18 -8.49189e-18 1.9536e-14 0 0.153675 0.160791 0.167904 0.175558 0.183704 0.191413 0.19669 0.19869 0.199909 0.199898 0.197082 0.196489 0.195807 0.192495 0.202211 0.21885 0.210996 0.174575 0.109216 0.0372855 0.00445436 7.84585e-05 1.14041e-07 1.22258e-10 9.91562e-14 -4.85698e-18 -3.45961e-15 1.95643e-14 1.32722e-17 -2.30083e-14 0 0.177221 0.182035 0.186953 0.193371 0.201439 0.209077 0.214521 0.21885 0.220564 0.219448 0.219798 0.220633 0.216358 0.219675 0.241209 0.241098 0.213096 0.155319 0.0728713 0.0155197 0.000864471 5.64267e-06 8.1841e-09 9.37227e-12 1.26409e-14 -9.98434e-18 -3.03886e-17 -3.09511e-17 1.955e-14 2.30272e-14 0 0.201939 0.204941 0.208243 0.212939 0.219352 0.226996 0.234072 0.237829 0.239212 0.241917 0.243776 0.239737 0.240321 0.261734 0.268013 0.246294 0.195562 0.112463 0.0339784 0.00384728 8.5478e-05 2.26754e-07 4.6561e-10 6.88293e-13 -2.85419e-15 -3.49178e-17 6.14441e-16 -3.62944e-15 -3.64128e-15 -2.23776e-14 0 0.22583 0.227527 0.230203 0.234239 0.2399 0.246565 0.252118 0.256941 0.262464 0.264397 0.261235 0.262291 0.283773 0.293429 0.274773 0.228783 0.148826 0.0565746 0.00982691 0.000480442 3.62067e-06 9.24274e-09 1.9126e-11 2.10669e-14 -1.60537e-14 6.95313e-15 5.70162e-15 -4.91937e-14 -4.922e-14 2.51968e-14 0 0.250125 0.250667 0.252687 0.255943 0.260669 0.266969 0.274396 0.280569 0.28199 0.280722 0.285804 0.309465 0.317232 0.298567 0.254877 0.177546 0.0783213 0.0175685 0.00141827 2.50665e-05 8.82504e-08 3.05102e-10 8.28343e-13 2.09054e-14 -3.78545e-18 -4.60293e-14 -2.23827e-14 5.631e-14 5.63181e-14 -2.23822e-14 0 0.275578 0.27542 0.277482 0.280982 0.285812 0.291344 0.295596 0.297673 0.300827 0.31445 0.33785 0.338373 0.317086 0.273115 0.196217 0.0939192 0.0244937 0.00270372 8.43325e-05 5.05468e-07 2.36742e-09 7.89669e-12 2.16616e-14 -2.30345e-14 6.16037e-19 4.60287e-14 6.92008e-19 -2.3012e-14 -2.3012e-14 8.75373e-18 0 0.303246 0.302302 0.303208 0.30485 0.307387 0.311104 0.317235 0.329917 0.351794 0.363007 0.354038 0.328661 0.281585 0.202561 0.0995103 0.0280001 0.0036936 0.000163737 1.61664e-06 9.28531e-09 4.38315e-11 1.85367e-13 -1.58789e-14 3.4758e-15 2.30139e-14 -1.01689e-18 3.72985e-23 3.9659e-23 6.38927e-24 6.86413e-23 0 0.328876 0.327798 0.329352 0.333625 0.342329 0.357069 0.373747 0.382406 0.377721 0.36092 0.330154 0.276853 0.193766 0.0929393 0.0265363 0.00377558 0.000203259 2.85733e-06 2.0632e-08 1.39688e-10 8.63237e-13 3.15375e-15 2.26825e-16 2.3014e-14 -2.30124e-14 -4.60253e-14 -6.89943e-19 2.30121e-14 2.30121e-14 -8.75362e-18 0 0.387744 0.38719 0.390248 0.394931 0.398632 0.39808 0.391263 0.378071 0.354818 0.315697 0.254273 0.166913 0.0744952 0.0204033 0.0028744 0.000166323 2.86987e-06 2.69885e-08 2.48987e-10 1.88777e-12 -7.78058e-15 3.47605e-17 -1.93718e-17 -2.30196e-14 -7.97178e-18 4.60252e-14 2.30134e-14 -6.29591e-14 -6.29591e-14 2.30213e-14 0 0.41171 0.408682 0.40483 0.399613 0.391887 0.378998 0.358357 0.325751 0.277057 0.208005 0.121794 0.0483441 0.0119653 0.00154714 8.66607e-05 1.63939e-06 2.08485e-08 2.50152e-10 2.48032e-12 2.19543e-14 -3.95758e-14 -3.96253e-14 3.0575e-16 -1.59553e-17 5.84115e-18 -4.60276e-14 -2.30134e-14 6.29591e-14 3.99423e-14 -4.60463e-14 0 0.377834 0.373573 0.365285 0.352094 0.332032 0.303159 0.262434 0.206735 0.136885 0.0676436 0.0228876 0.00475828 0.000527269 2.59403e-05 5.1941e-07 9.47686e-09 1.41804e-10 1.89996e-12 2.15306e-14 -1.55335e-16 3.96404e-14 3.96369e-14 -2.94623e-16 2.02912e-17 -1.48139e-18 4.60277e-14 6.89983e-19 -2.3012e-14 4.75785e-18 2.30337e-14 0 0.275629 0.27007 0.256136 0.233734 0.20185 0.159711 0.109336 0.0592189 0.0237236 0.00640212 0.00104787 9.28829e-05 3.7852e-06 9.24241e-08 2.43989e-09 4.51149e-11 8.41669e-13 3.82761e-14 -4.01983e-14 -4.02516e-14 -1.47612e-17 -1.16066e-17 2.30235e-14 -1.94398e-18 6.88078e-20 8.6984e-21 3.48774e-23 -7.51045e-19 2.30132e-14 2.30128e-14 0 0.113458 0.108507 0.0947386 0.0740932 0.0499503 0.0278162 0.0119393 0.00364742 0.000737729 9.10326e-05 6.11561e-06 2.44909e-07 9.826e-09 3.19495e-10 8.25964e-12 2.29534e-13 2.80095e-15 -4.59974e-14 4.02376e-14 4.02482e-14 1.09856e-17 2.69068e-17 -4.60366e-14 2.95499e-16 3.06958e-16 -4.60278e-14 9.93087e-19 2.30144e-14 -2.30131e-14 -2.30129e-14 0 0.00973331 0.00880557 0.00647502 0.00378029 0.0016924 0.000557678 0.000128388 1.93856e-05 1.85188e-06 1.31197e-07 9.13299e-09 5.03945e-10 2.07506e-11 8.76604e-13 2.25325e-14 -2.23718e-14 2.29649e-16 4.60519e-14 -3.06087e-16 -3.17215e-16 2.30235e-14 -2.07368e-17 2.30099e-14 -3.14109e-16 -3.27602e-16 4.60266e-14 2.30104e-14 -2.30163e-14 -2.30201e-14 -4.53566e-18 0 3.07412e-05 2.5873e-05 1.54054e-05 6.47689e-06 1.93751e-06 4.29459e-07 7.77578e-08 1.2334e-08 1.56103e-09 1.42214e-10 1.08109e-11 7.70729e-13 1.67324e-14 -1.82052e-14 -1.60824e-14 3.47527e-15 2.30157e-14 -2.30196e-14 1.64891e-17 2.08248e-17 -4.60305e-14 3.20407e-16 2.97781e-16 2.63063e-19 2.18594e-17 -4.60225e-14 -4.6043e-14 2.8616e-16 4.63375e-14 -3.99605e-14 0 3.6239e-09 3.19936e-09 2.19019e-09 1.14694e-09 4.52835e-10 1.34735e-10 3.12671e-11 6.0372e-12 9.7522e-13 1.18853e-13 7.03183e-15 -2.77451e-15 2.30518e-14 -4.64323e-18 -1.28827e-18 2.30143e-14 -2.30145e-14 5.91725e-18 3.22461e-18 -1.08735e-18 4.60305e-14 -3.06958e-16 -2.86366e-16 1.92566e-17 -1.28435e-18 4.60238e-14 4.60424e-14 -4.02325e-14 -6.32684e-14 6.29742e-14 0 4.07151e-13 3.70217e-13 2.77416e-13 1.69827e-13 8.32432e-14 3.16818e-14 9.31278e-15 2.26995e-15 4.3361e-16 -2.41809e-17 -9.9849e-18 -3.5331e-17 -3.55625e-17 2.17773e-18 1.41643e-18 -9.69325e-19 2.38373e-20 -6.45084e-21 2.40518e-18 2.41167e-18 -8.78425e-21 2.53995e-18 1.32778e-18 5.48572e-18 6.68281e-18 -6.89877e-19 3.83554e-19 -8.20571e-18 -6.21308e-18 1.068e-18 0 -1.98475e-15 -1.98686e-15 2.39893e-15 8.48469e-19 -1.07211e-17 3.38202e-15 3.45946e-15 -1.95555e-14 -1.95555e-14 3.45961e-15 -2.97392e-17 6.24562e-16 2.26448e-17 2.238e-14 -6.87607e-19 -4.60253e-14 -6.89943e-19 2.30121e-14 2.30121e-14 -6.89943e-19 -4.60253e-14 9.93074e-19 2.30149e-14 -2.58475e-17 -2.88122e-17 -1.72038e-18 -6.29884e-14 5.95659e-16 5.95672e-16 -6.29863e-14 0 1.99423e-15 1.99423e-15 1.03443e-15 1.40906e-17 -3.4048e-15 7.7947e-17 -1.95553e-14 -3.70145e-23 -8.53702e-18 -1.95639e-14 6.94878e-15 2.05004e-15 -5.64873e-14 -5.50473e-14 2.30134e-14 4.60252e-14 2.30134e-14 -6.29591e-14 -6.29591e-14 2.30133e-14 4.60245e-14 2.30109e-14 -2.30163e-14 3.26812e-16 -3.9616e-14 -1.25927e-13 6.35423e-16 4.61938e-17 4.61812e-17 6.59726e-16 0 4.53355e-16 1.6209e-16 -3.47918e-15 -3.39184e-15 2.27572e-17 -3.4593e-15 1.95555e-14 1.96054e-23 8.58222e-18 1.29697e-17 -2.64698e-14 -2.00196e-15 5.64973e-14 5.50391e-14 -2.30134e-14 -4.60252e-14 -2.30134e-14 6.29591e-14 3.99423e-14 -4.60301e-14 -2.30105e-14 -2.30106e-14 -2.30147e-14 -3.10314e-16 6.26479e-14 1.25925e-13 -6.3541e-16 -4.61809e-17 -4.61155e-17 -6.5966e-16 0 2.17223e-10 1.08611e-10 1.26776e-16 3.4192e-15 3.39289e-15 -3.40368e-19 -3.45968e-15 1.95555e-14 1.95359e-14 1.60545e-14 2.29929e-14 -1.67339e-14 -1.95527e-14 -2.23781e-14 -5.13533e-18 4.60275e-14 -5.13537e-18 -2.30179e-14 -9.33898e-18 2.30034e-14 2.30125e-14 2.30124e-14 4.60323e-14 -3.99546e-14 -6.29682e-14 5.02113e-18 6.29903e-14 -5.67364e-16 -5.6743e-16 6.29883e-14 0 1.86785e-05 0 0 0 0 0 0 0 0 0 0 0 0 0 0 0 0 0 0 0 0 0 0 0 0 0 0 0 0 0 0
				</DataArray>
			</PointData>
			<CellData Scalars="Density">
				<DataArray Name="Density" type="Float32" format="ascii">