<?xml version="1.0"?>
<VTKFile type="PolyData">
	<PolyData>
		<Piece NumberOfPoints="961" NumberOfPolys="900">
			<Points>
				<DataArray type="Float32" NumberOfComponents="3" format="ascii">
 0 0 0 0.04 0 0 0.08 0 0 0.12 0 0 0.16 0 0 0.2 0 0 0.24 0 0 0.28 0 0 0.32 0 0 0.36 0 0 0.4 0 0 0.44 0 0 0.48 0 0 0.52 0 0 0.56 0 0 0.6 0 0 0.64 0 0 0.68 0 0 0.72 0 0 0.76 0 0 0.8 0 0 0.84 0 0 0.88 0 0 0.92 0 0 0.96 0 0 1 0 0 1.04 0 0 1.08 0 0 1.12 0 0 1.16 0 0 1.2 0 0 0 0.04 0 0.04 0.04 0 0.08 0.04 0 0.12 0.04 0 0.16 0.04 0 0.2 0.04 0 0.24 0.04 0 0.28 0.04 0 0.32 0.04 0 0.36 0.04 0 0.4 0.04 0 0.44 0.04 0 0.48 0.04 0 0.52 0.04 0 0.56 0.04 0 0.6 0.04 0 0.64 0.04 0 0.68 0.04 0 0.72 0.04 0 0.76 0.04 0 0.8 0.04 0 0.84 0.04 0 0.88 0.04 0 0.92 0.04 0 0.96 0.04 0 1 0.04 0 1.04 0.04 0 1.08 0.04 0 1.12 0.04 0 1.16 0.04 0 1.2 0.04 0 0 0.08 0 0.04 0.08 0 0.08 0.08 0 0.12 0.08 0 0.16 0.08 0 0.2 0.08 0 0.24 0.08 0 0.28 0.08 0 0.32 0.08 0 0.36 0.08 0 0.4 0.08 0 0.44 0.08 0 0.48 0.08 0 0.52 0.08 0 0.56 0.08 0 0.6 0.08 0 0.64 0.08 0 0.68 0.08 0 0.72 0.08 0 0.76 0.08 0 0.8 0.08 0 0.84 0.08 0 0.88 0.08 0 0.92 0.08 0 0.96 0.08 0 1 0.08 0 1.04 0.08 0 1.08 0.08 0 1.12 0.08 0 1.16 0.08 0 1.2 0.08 0 0 0.12 0 0.04 0.12 0 0.08 0.12 0 0.12 0.12 0 0.16 0.12 0 0.2 0.12 0 0.24 0.12 0 0.28 0.12 0 0.32 0.12 0 0.36 0.12 0 0.4 0.12 0 0.44 0.12 0 0.48 0.12 0 0.52 0.12 0 0.56 0.12 0 0.6 0.12 0 0.64 0.12 0 0.68 0.12 0 0.72 0.12 0 0.76 0.12 0 0.8 0.12 0 0.84 0.12 0 0.88 0.12 0 0.92 0.12 0 0.96 0.12 0 1 0.12 0 1.04 0.12 0 1.08 0.12 0 1.12 0.12 0 1.16 0.12 0 1.2 0.12 0 0 0.16 0 0.04 0.16 0 0.08 0.16 0 0.12 0.16 0 0.16 0.16 0 0.2 0.16 0 0.24 0.16 0 0.28 0.16 0 0.32 0.16 0 0.36 0.16 0 0.4 0.16 0 0.44 0.16 0 0.48 0.16 0 0.52 0.16 0 0.56 0.16 0 0.6 0.16 0 0.64 0.16 0 0.68 0.16 0 0.72 0.16 0 0.76 0.16 0 0.8 0.16 0 0.84 0.16 0 0.88 0.16 0 0.92 0.16 0 0.96 0.16 0 1 0.16 0 1.04 0.16 0 1.08 0.16 0 1.12 0.16 0 1.16 0.16 0 1.2 0.16 0 0 0.2 0 0.04 0.2 0 0.08 0.2 0 0.12 0.2 0 0.16 0.2 0 0.2 0.2 0 0.24 0.2 0 0.28 0.2 0 0.32 0.2 0 0.36 0.2 0 0.4 0.2 0 0.44 0.2 0 0.48 0.2 0 0.52 0.2 0 0.56 0.2 0 0.6 0.2 0 0.64 0.2 0 0.68 0.2 0 0.72 0.2 0 0.76 0.2 0 0.8 0.2 0 0.84 0.2 0 0.88 0.2 0 0.92 0.2 0 0.96 0.2 0 1 0.2 0 1.04 0.2 0 1.08 0.2 0 1.12 0.2 0 1.16 0.2 0 1.2 0.2 0 0 0.24 0 0.04 0.24 0 0.08 0.24 0 0.12 0.24 0 0.16 0.24 0 0.2 0.24 0 0.24 0.24 0 0.28 0.24 0 0.32 0.24 0 0.36 0.24 0 0.4 0.24 0 0.44 0.24 0 0.48 0.24 0 0.52 0.24 0 0.56 0.24 0 0.6 0.24 0 0.64 0.24 0 0.68 0.24 0 0.72 0.24 0 0.76 0.24 0 0.8 0.24 0 0.84 0.24 0 0.88 0.24 0 0.92 0.24 0 0.96 0.24 0 1 0.24 0 1.04 0.24 0 1.08 0.24 0 1.12 0.24 0 1.16 0.24 0 1.2 0.24 0 0 0.28 0 0.04 0.28 0 0.08 0.28 0 0.12 0.28 0 0.16 0.28 0 0.2 0.28 0 0.24 0.28 0 0.28 0.28 0 0.32 0.28 0 0.36 0.28 0 0.4 0.28 0 0.44 0.28 0 0.48 0.28 0 0.52 0.28 0 0.56 0.28 0 0.6 0.28 0 0.64 0.28 0 0.68 0.28 0 0.72 0.28 0 0.76 0.28 0 0.8 0.28 0 0.84 0.28 0 0.88 0.28 0 0.92 0.28 0 0.96 0.28 0 1 0.28 0 1.04 0.28 0 1.08 0.28 0 1.12 0.28 0 1.16 0.28 0 1.2 0.28 0 0 0.32 0 0.04 0.32 0 0.08 0.32 0 0.12 0.32 0 0.16 0.32 0 0.2 0.32 0 0.24 0.32 0 0.28 0.32 0 0.32 0.32 0 0.36 0.32 0 0.4 0.32 0 0.44 0.32 0 0.48 0.32 0 0.52 0.32 0 0.56 0.32 0 0.6 0.32 0 0.64 0.32 0 0.68 0.32 0 0.72 0.32 0 0.76 0.32 0 0.8 0.32 0 0.84 0.32 0 0.88 0.32 0 0.92 0.32 0 0.96 0.32 0 1 0.32 0 1.04 0.32 0 1.08 0.32 0 1.12 0.32 0 1.16 0.32 0 1.2 0.32 0 0 0.36 0 0.04 0.36 0 0.08 0.36 0 0.12 0.36 0 0.16 0.36 0 0.2 0.36 0 0.24 0.36 0 0.28 0.36 0 0.32 0.36 0 0.36 0.36 0 0.4 0.36 0 0.44 0.36 0 0.48 0.36 0 0.52 0.36 0 0.56 0.36 0 0.6 0.36 0 0.64 0.36 0 0.68 0.36 0 0.72 0.36 0 0.76 0.36 0 0.8 0.36 0 0.84 0.36 0 0.88 0.36 0 0.92 0.36 0 0.96 0.36 0 1 0.36 0 1.04 0.36 0 1.08 0.36 0 1.12 0.36 0 1.16 0.36 0 1.2 0.36 0 0 0.4 0 0.04 0.4 0 0.08 0.4 0 0.12 0.4 0 0.16 0.4 0 0.2 0.4 0 0.24 0.4 0 0.28 0.4 0 0.32 0.4 0 0.36 0.4 0 0.4 0.4 0 0.44 0.4 0 0.48 0.4 0 0.52 0.4 0 0.56 0.4 0 0.6 0.4 0 0.64 0.4 0 0.68 0.4 0 0.72 0.4 0 0.76 0.4 0 0.8 0.4 0 0.84 0.4 0 0.88 0.4 0 0.92 0.4 0 0.96 0.4 0 1 0.4 0 1.04 0.4 0 1.08 0.4 0 1.12 0.4 0 1.16 0.4 0 1.2 0.4 0 0 0.44 0 0.04 0.44 0 0.08 0.44 0 0.12 0.44 0 0.16 0.44 0 0.2 0.44 0 0.24 0.44 0 0.28 0.44 0 0.32 0.44 0 0.36 0.44 0 0.4 0.44 0 0.44 0.44 0 0.48 0.44 0 0.52 0.44 0 0.56 0.44 0 0.6 0.44 0 0.64 0.44 0 0.68 0.44 0 0.72 0.44 0 0.76 0.44 0 0.8 0.44 0 0.84 0.44 0 0.88 0.44 0 0.92 0.44 0 0.96 0.44 0 1 0.44 0 1.04 0.44 0 1.08 0.44 0 1.12 0.44 0 1.16 0.44 0 1.2 0.44 0 0 0.48 0 0.04 0.48 0 0.08 0.48 0 0.12 0.48 0 0.16 0.48 0 0.2 0.48 0 0.24 0.48 0 0.28 0.48 0 0.32 0.48 0 0.36 0.48 0 0.4 0.48 0 0.44 0.48 0 0.48 0.48 0 0.52 0.48 0 0.56 0.48 0 0.6 0.48 0 0.64 0.48 0 0.68 0.48 0 0.72 0.48 0 0.76 0.48 0 0.8 0.48 0 0.84 0.48 0 0.88 0.48 0 0.92 0.48 0 0.96 0.48 0 1 0.48 0 1.04 0.48 0 1.08 0.48 0 1.12 0.48 0 1.16 0.48 0 1.2 0.48 0 0 0.52 0 0.04 0.52 0 0.08 0.52 0 0.12 0.52 0 0.16 0.52 0 0.2 0.52 0 0.24 0.52 0 0.28 0.52 0 0.32 0.52 0 0.36 0.52 0 0.4 0.52 0 0.44 0.52 0 0.48 0.52 0 0.52 0.52 0 0.56 0.52 0 0.6 0.52 0 0.64 0.52 0 0.68 0.52 0 0.72 0.52 0 0.76 0.52 0 0.8 0.52 0 0.84 0.52 0 0.88 0.52 0 0.92 0.52 0 0.96 0.52 0 1 0.52 0 1.04 0.52 0 1.08 0.52 0 1.12 0.52 0 1.16 0.52 0 1.2 0.52 0 0 0.56 0 0.04 0.56 0 0.08 0.56 0 0.12 0.56 0 0.16 0.56 0 0.2 0.56 0 0.24 0.56 0 0.28 0.56 0 0.32 0.56 0 0.36 0.56 0 0.4 0.56 0 0.44 0.56 0 0.48 0.56 0 0.52 0.56 0 0.56 0.56 0 0.6 0.56 0 0.64 0.56 0 0.68 0.56 0 0.72 0.56 0 0.76 0.56 0 0.8 0.56 0 0.84 0.56 0 0.88 0.56 0 0.92 0.56 0 0.96 0.56 0 1 0.56 0 1.04 0.56 0 1.08 0.56 0 1.12 0.56 0 1.16 0.56 0 1.2 0.56 0 0 0.6 0 0.04 0.6 0 0.08 0.6 0 0.12 0.6 0 0.16 0.6 0 0.2 0.6 0 0.24 0.6 0 0.28 0.6 0 0.32 0.6 0 0.36 0.6 0 0.4 0.6 0 0.44 0.6 0 0.48 0.6 0 0.52 0.6 0 0.56 0.6 0 0.6 0.6 0 0.64 0.6 0 0.68 0.6 0 0.72 0.6 0 0.76 0.6 0 0.8 0.6 0 0.84 0.6 0 0.88 0.6 0 0.92 0.6 0 0.96 0.6 0 1 0.6 0 1.04 0.6 0 1.08 0.6 0 1.12 0.6 0 1.16 0.6 0 1.2 0.6 0 0 0.64 0 0.04 0.64 0 0.08 0.64 0 0.12 0.64 0 0.16 0.64 0 0.2 0.64 0 0.24 0.64 0 0.28 0.64 0 0.32 0.64 0 0.36 0.64 0 0.4 0.64 0 0.44 0.64 0 0.48 0.64 0 0.52 0.64 0 0.56 0.64 0 0.6 0.64 0 0.64 0.64 0 0.68 0.64 0 0.72 0.64 0 0.76 0.64 0 0.8 0.64 0 0.84 0.64 0 0.88 0.64 0 0.92 0.64 0 0.96 0.64 0 1 0.64 0 1.04 0.64 0 1.08 0.64 0 1.12 0.64 0 1.16 0.64 0 1.2 0.64 0 0 0.68 0 0.04 0.68 0 0.08 0.68 0 0.12 0.68 0 0.16 0.68 0 0.2 0.68 0 0.24 0.68 0 0.28 0.68 0 0.32 0.68 0 0.36 0.68 0 0.4 0.68 0 0.44 0.68 0 0.48 0.68 0 0.52 0.68 0 0.56 0.68 0 0.6 0.68 0 0.64 0.68 0 0.68 0.68 0 0.72 0.68 0 0.76 0.68 0 0.8 0.68 0 0.84 0.68 0 0.88 0.68 0 0.92 0.68 0 0.96 0.68 0 1 0.68 0 1.04 0.68 0 1.08 0.68 0 1.12 0.68 0 1.16 0.68 0 1.2 0.68 0 0 0.72 0 0.04 0.72 0 0.08 0.72 0 0.12 0.72 0 0.16 0.72 0 0.2 0.72 0 0.24 0.72 0 0.28 0.72 0 0.32 0.72 0 0.36 0.72 0 0.4 0.72 0 0.44 0.72 0 0.48 0.72 0 0.52 0.72 0 0.56 0.72 0 0.6 0.72 0 0.64 0.72 0 0.68 0.72 0 0.72 0.72 0 0.76 0.72 0 0.8 0.72 0 0.84 0.72 0 0.88 0.72 0 0.92 0.72 0 0.96 0.72 0 1 0.72 0 1.04 0.72 0 1.08 0.72 0 1.12 0.72 0 1.16 0.72 0 1.2 0.72 0 0 0.76 0 0.04 0.76 0 0.08 0.76 0 0.12 0.76 0 0.16 0.76 0 0.2 0.76 0 0.24 0.76 0 0.28 0.76 0 0.32 0.76 0 0.36 0.76 0 0.4 0.76 0 0.44 0.76 0 0.48 0.76 0 0.52 0.76 0 0.56 0.76 0 0.6 0.76 0 0.64 0.76 0 0.68 0.76 0 0.72 0.76 0 0.76 0.76 0 0.8 0.76 0 0.84 0.76 0 0.88 0.76 0 0.92 0.76 0 0.96 0.76 0 1 0.76 0 1.04 0.76 0 1.08 0.76 0 1.12 0.76 0 1.16 0.76 0 1.2 0.76 0 0 0.8 0 0.04 0.8 0 0.08 0.8 0 0.12 0.8 0 0.16 0.8 0 0.2 0.8 0 0.24 0.8 0 0.28 0.8 0 0.32 0.8 0 0.36 0.8 0 0.4 0.8 0 0.44 0.8 0 0.48 0.8 0 0.52 0.8 0 0.56 0.8 0 0.6 0.8 0 0.64 0.8 0 0.68 0.8 0 0.72 0.8 0 0.76 0.8 0 0.8 0.8 0 0.84 0.8 0 0.88 0.8 0 0.92 0.8 0 0.96 0.8 0 1 0.8 0 1.04 0.8 0 1.08 0.8 0 1.12 0.8 0 1.16 0.8 0 1.2 0.8 0 0 0.84 0 0.04 0.84 0 0.08 0.84 0 0.12 0.84 0 0.16 0.84 0 0.2 0.84 0 0.24 0.84 0 0.28 0.84 0 0.32 0.84 0 0.36 0.84 0 0.4 0.84 0 0.44 0.84 0 0.48 0.84 0 0.52 0.84 0 0.56 0.84 0 0.6 0.84 0 0.64 0.84 0 0.68 0.84 0 0.72 0.84 0 0.76 0.84 0 0.8 0.84 0 0.84 0.84 0 0.88 0.84 0 0.92 0.84 0 0.96 0.84 0 1 0.84 0 1.04 0.84 0 1.08 0.84 0 1.12 0.84 0 1.16 0.84 0 1.2 0.84 0 0 0.88 0 0.04 0.88 0 0.08 0.88 0 0.12 0.88 0 0.16 0.88 0 0.2 0.88 0 0.24 0.88 0 0.28 0.88 0 0.32 0.88 0 0.36 0.88 0 0.4 0.88 0 0.44 0.88 0 0.48 0.88 0 0.52 0.88 0 0.56 0.88 0 0.6 0.88 0 0.64 0.88 0 0.68 0.88 0 0.72 0.88 0 0.76 0.88 0 0.8 0.88 0 0.84 0.88 0 0.88 0.88 0 0.92 0.88 0 0.96 0.88 0 1 0.88 0 1.04 0.88 0 1.08 0.88 0 1.12 0.88 0 1.16 0.88 0 1.2 0.88 0 0 0.92 0 0.04 0.92 0 0.08 0.92 0 0.12 0.92 0 0.16 0.92 0 0.2 0.92 0 0.24 0.92 0 0.28 0.92 0 0.32 0.92 0 0.36 0.92 0 0.4 0.92 0 0.44 0.92 0 0.48 0.92 0 0.52 0.92 0 0.56 0.92 0 0.6 0.92 0 0.64 0.92 0 0.68 0.92 0 0.72 0.92 0 0.76 0.92 0 0.8 0.92 0 0.84 0.92 0 0.88 0.92 0 0.92 0.92 0 0.96 0.92 0 1 0.92 0 1.04 0.92 0 1.08 0.92 0 1.12 0.92 0 1.16 0.92 0 1.2 0.92 0 0 0.96 0 0.04 0.96 0 0.08 0.96 0 0.12 0.96 0 0.16 0.96 0 0.2 0.96 0 0.24 0.96 0 0.28 0.96 0 0.32 0.96 0 0.36 0.96 0 0.4 0.96 0 0.44 0.96 0 0.48 0.96 0 0.52 0.96 0 0.56 0.96 0 0.6 0.96 0 0.64 0.96 0 0.68 0.96 0 0.72 0.96 0 0.76 0.96 0 0.8 0.96 0 0.84 0.96 0 0.88 0.96 0 0.92 0.96 0 0.96 0.96 0 1 0.96 0 1.04 0.96 0 1.08 0.96 0 1.12 0.96 0 1.16 0.96 0 1.2 0.96 0 0 1 0 0.04 1 0 0.08 1 0 0.12 1 0 0.16 1 0 0.2 1 0 0.24 1 0 0.28 1 0 0.32 1 0 0.36 1 0 0.4 1 0 0.44 1 0 0.48 1 0 0.52 1 0 0.56 1 0 0.6 1 0 0.64 1 0 0.68 1 0 0.72 1 0 0.76 1 0 0.8 1 0 0.84 1 0 0.88 1 0 0.92 1 0 0.96 1 0 1 1 0 1.04 1 0 1.08 1 0 1.12 1 0 1.16 1 0 1.2 1 0 0 1.04 0 0.04 1.04 0 0.08 1.04 0 0.12 1.04 0 0.16 1.04 0 0.2 1.04 0 0.24 1.04 0 0.28 1.04 0 0.32 1.04 0 0.36 1.04 0 0.4 1.04 0 0.44 1.04 0 0.48 1.04 0 0.52 1.04 0 0.56 1.04 0 0.6 1.04 0 0.64 1.04 0 0.68 1.04 0 0.72 1.04 0 0.76 1.04 0 0.8 1.04 0 0.84 1.04 0 0.88 1.04 0 0.92 1.04 0 0.96 1.04 0 1 1.04 0 1.04 1.04 0 1.08 1.04 0 1.12 1.04 0 1.16 1.04 0 1.2 1.04 0 0 1.08 0 0.04 1.08 0 0.08 1.08 0 0.12 1.08 0 0.16 1.08 0 0.2 1.08 0 0.24 1.08 0 0.28 1.08 0 0.32 1.08 0 0.36 1.08 0 0.4 1.08 0 0.44 1.08 0 0.48 1.08 0 0.52 1.08 0 0.56 1.08 0 0.6 1.08 0 0.64 1.08 0 0.68 1.08 0 0.72 1.08 0 0.76 1.08 0 0.8 1.08 0 0.84 1.08 0 0.88 1.08 0 0.92 1.08 0 0.96 1.08 0 1 1.08 0 1.04 1.08 0 1.08 1.08 0 1.12 1.08 0 1.16 1.08 0 1.2 1.08 0 0 1.12 0 
[...]
			<PointData Scalars="VitesseX">
				<DataArray Name="VitesseX" type="Float32" format="ascii">
 0 0.611887 -0.176319 0.692673 0.463795 1.16696 1.33203 0.980425 0.337807 0.016931 1.52989e-05 3.1649e-10 7.74815e-15 -1.04005e-18 -6.50416e-16 6.50416e-16 4.42677e-47 -6.50416e-16 6.50416e-16 -4.42677e-47 -6.50416e-16 6.51456e-16 -6.51456e-16 4.05509e-46 6.51456e-16 0 -6.51456e-16 6.51456e-16 -2.20345e-15 2.20345e-15 0 0 0.404932 0.237617 0.716206 0.536566 1.21017 1.28739 0.914986 0.289578 0.0129634 1.1087e-05 2.69458e-10 6.94033e-15 -1.04005e-18 -6.50416e-16 6.50416e-16 1.78247e-31 -6.50416e-16 6.50416e-16 -1.78247e-31 -6.50416e-16 6.51456e-16 -6.51456e-16 6.17443e-32 6.51456e-16 0 -6.51456e-16 6.51456e-16 -2.20345e-15 2.20345e-15 0 0 0.218039 0.580369 0.542083 0.72916 1.28912 1.1933 0.743374 0.178041 0.00582419 4.25627e-06 1.60345e-10 3.58853e-15 1.10204e-15 -1.42777e-15 1.1012e-15 3.26564e-16 -1.42777e-15 1.42777e-15 -3.26564e-16 -1.1012e-15 1.42745e-15 -3.25728e-16 -1.20457e-31 -7.75994e-16 -3.00164e-47 7.75994e-16 3.27429e-16 -2.20515e-15 1.10172e-15 0 0 0.217295 0.395623 0.499276 1.05389 1.21452 0.982311 0.46307 0.0721046 0.00149702 8.37142e-07 6.02189e-11 2.29113e-15 -8.65397e-19 -8.35447e-19 7.75994e-16 -7.75159e-16 -8.35447e-19 8.35447e-19 7.75159e-16 -7.75994e-16 1.10172e-15 -1.10172e-15 -8.35968e-31 1.70085e-18 -1.01787e-35 -1.70085e-18 1.70083e-18 -1.10342e-15 1.10342e-15 0 0 0.166723 0.379754 0.757737 1.04087 0.97523 0.621085 0.187261 0.0172279 0.000197963 8.28949e-08 1.2407e-11 8.31769e-16 -1.70084e-18 -8.3605e-31 1.10172e-15 -1.10172e-15 -4.15818e-31 3.576e-18 1.09815e-15 -1.10172e-15 8.36494e-31 1.70084e-18 -1.10342e-15 1.10342e-15 2.09642e-31 4.18187e-31 -1.10342e-15 3.14277e-31 1.10342e-15 0 0 0.231624 0.490974 0.7474 0.788739 0.591351 0.249143 0.0454809 0.00213739 1.07179e-05 5.15309e-09 1.37322e-12 -2.01886e-15 2.20515e-15 -2.20515e-15 1.10172e-15 1.10342e-15 -2.20515e-15 1.1053e-15 -3.576e-18 -1.10172e-15 1.10342e-15 8.22803e-24 -8.22803e-24 -1.10342e-15 -1.04927e-31 1.10342e-15 3.55374e-18 -1.10698e-15 -1.58052e-30 0 0 0.229035 0.433165 0.514053 0.426418 0.218989 0.0562998 0.00518818 0.000100315 2.01395e-07 2.09754e-10 9.61449e-14 -2.1835e-15 1.10342e-15 -4.33277e-24 2.10225e-31 4.33277e-24 -1.10342e-15 -2.09682e-31 1.10342e-15 -1.9429e-34 4.33277e-24 -4.33278e-24 4.33278e-24 -1.10342e-15 8.42726e-31 1.10698e-15 -6.60071e-15 6.60071e-15 -1.10698e-15 0 0 0.150426 0.235648 0.221628 0.130019 0.0389934 0.00500007 0.000188649 1.18277e-06 2.62583e-09 3.78306e-12 9.91274e-16 1.65507e-15 -1.10698e-15 1.10342e-15 -4.18894e-31 -1.10342e-15 1.10342e-15 -1.10342e-15 1.10342e-15 1.47993e-29 4.33274e-24 -3.27932e-15 2.1759e-15 1.10698e-15 -2.13132e-29 -6.60071e-15 4.44172e-24 -4.44172e-24 6.60071e-15 0 0 0.0484617 0.0634481 0.0410868 0.0131898 0.001948 9.82831e-05 1.17649e-06 5.73776e-09 2.31147e-11 5.57976e-14 -1.59458e-15 1.65337e-15 -1.10698e-15 1.10342e-15 -1.10342e-15 1.10342e-15 6.28748e-31 -8.41489e-30 -4.38275e-15 4.3863e-15 -6.604e-15 3.32468e-15 2.17235e-15 1.10698e-15 -2.12056e-29 -6.60071e-15 4.21737e-39 1.06895e-23 6.60071e-15 0 0 0.00327351 0.00288653 0.00107928 0.000175298 1.03147e-05 1.96571e-07 2.58723e-09 2.29799e-11 1.23062e-13 -6.52051e-16 1.10356e-15 -1.10342e-15 1.10342e-15 -3.27932e-15 3.27932e-15 4.33278e-24 -1.10342e-15 2.2104e-15 -4.38275e-15 -3.32132e-15 2.00702e-19 6.60045e-15 -1.10698e-15 -1.02911e-31 8.43336e-31 1.10698e-15 -6.60071e-15 3.96736e-19 5.49018e-15 0 0 3.36972e-06 2.56277e-06 6.71786e-07 7.29056e-08 4.74291e-09 2.02469e-10 3.67951e-12 5.2791e-14 1.56217e-15 -1.10698e-15 1.10342e-15 -1.10342e-15 2.20685e-15 -4.38274e-15 3.27932e-15 -1.10342e-15 1.04367e-31 1.10698e-15 -3.51413e-29 -7.71301e-15 7.71301e-15 -1.10698e-15 1.10698e-15 -1.10698e-15 8.92783e-47 8.43337e-31 2.21396e-15 -8.81426e-15 7.70413e-15 0 0 4.6662e-11 6.21075e-11 3.79595e-11 9.84738e-12 1.18849e-12 8.88012e-14 8.85657e-16 1.70478e-15 -1.10329e-15 1.10342e-15 -1.49613e-36 -1.10342e-15 2.20685e-15 -4.38274e-15 2.1759e-15 1.10698e-15 -1.10698e-15 -3.15443e-18 3.15443e-18 -5.38848e-18 1.11237e-15 -1.10698e-15 1.10698e-15 -1.10698e-15 -8.43321e-31 -1.25336e-19 2.21408e-15 -2.21395e-15 -5.49374e-15 0 0 8.07231e-16 3.39936e-16 9.6284e-16 4.96458e-16 1.44693e-16 1.99446e-17 -1.64456e-15 1.64626e-15 -1.10342e-15 1.10342e-15 -1.10342e-15 1.10698e-15 -6.604e-15 3.32468e-15 3.27933e-15 -6.60038e-15 6.60038e-15 -7.71058e-15 7.71058e-15 -9.89213e-24 -6.60017e-15 6.60017e-15 -7.70743e-15 7.70743e-15 7.56561e-21 -1.28078e-19 -2.07279e-14 2.07281e-14 -6.60071e-15 0 0 -6.56892e-31 -1.10037e-15 8.65385e-19 -1.70083e-18 1.70083e-18 -1.10342e-15 1.10698e-15 -1.10698e-15 1.10342e-15 7.88229e-30 -3.14953e-29 -6.59689e-15 -4.88611e-33 6.60045e-15 3.14853e-21 -6.60038e-15 -3.30689e-19 2.60194e-19 6.60045e-15 -9.89213e-24 -6.60017e-15 6.60005e-15 -6.60033e-15 -2.59333e-19 1.05269e-20 7.70769e-15 -2.1835e-14 2.1835e-14 -7.70769e-15 0 0 -5.0134e-31 -7.74639e-16 -8.35449e-19 2.26116e-24 1.70083e-18 -2.49929e-24 -1.10342e-15 1.10342e-15 -3.27932e-15 4.38275e-15 -4.38275e-15 -3.31757e-15 6.60045e-15 -1.10698e-15 -1.21354e-35 1.10698e-15 -6.60071e-15 2.60206e-19 5.49347e-15 1.10698e-15 -2.91831e-22 -1.1071e-15 -5.49361e-15 2.73643e-21 3.49054e-21 3.93955e-21 7.70768e-15 -7.70768e-15 -7.21881e-21 0 0 -6.26507e-31 -1.1012e-15 1.42745e-15 -1.10172e-15 -1.10172e-15 2.20685e-15 -2.20685e-15 1.10342e-15 -3.27932e-15 3.27932e-15 -4.38275e-15 5.49328e-15 -2.21396e-15 -4.21885e-30 -1.33977e-60 1.26615e-30 1.10698e-15 -6.60045e-15 5.49347e-15 -5.49347e-15 6.60045e-15 -7.70769e-15 1.10698e-15 7.70769e-15 -2.09546e-21 -1.54154e-14 1.54154e-14 -1.54154e-14 1.54154e-14 0 0 -7.05216e-32 -3.23853e-16 -7.7683e-16 1.10172e-15 -1.10002e-15 -6.28536e-31 -1.10342e-15 1.10342e-15 -5.91653e-30 -1.10342e-15 1.10698e-15 -6.60038e-15 6.60038e-15 -1.10698e-15 -1.47641e-30 1.10698e-15 -1.10698e-15 1.10698e-15 -1.10698e-15 -5.49347e-15 -2.63592e-19 -2.22839e-21 7.70769e-15 -7.70768e-15 -2.62469e-21 3.94642e-21 7.70768e-15 -7.70768e-15 -7.22329e-21 0 0 -3.54073e-31 -7.74639e-16 -8.35449e-19 2.26116e-24 1.70083e-18 -1.10342e-15 1.10342e-15 2.49929e-24 -1.10342e-15 3.13814e-31 1.10698e-15 -6.60038e-15 -3.30714e-19 6.60071e-15 -1.10698e-15 1.10698e-15 -1.10698e-15 1.10698e-15 -7.70768e-15 8.81468e-15 -1.54154e-14 1.54154e-14 -7.7077e-15 6.98207e-21 -3.04103e-21 7.70769e-15 -2.18354e-14 2.18354e-14 -7.70768e-15 0 0 -3.48656e-31 -7.74639e-16 -8.35449e-19 3.57599e-18 -1.1053e-15 2.09467e-31 1.10342e-15 2.49929e-24 3.55374e-18 -1.10698e-15 -3.15442e-18 -5.49032e-15 -2.602e-19 2.60188e-19 6.60045e-15 -1.10698e-15 1.10698e-15 -6.60071e-15 1.39253e-17 -1.41441e-14 1.41441e-14 -1.39136e-17 -9.83573e-21 4.02076e-21 -7.97182e-23 7.70769e-15 -2.18354e-14 1.41277e-14 4.39243e-21 0 0 4.05631e-17 -3.23853e-16 -7.7683e-16 1.1053e-15 -2.20702e-15 1.10342e-15 -1.10342e-15 -2.1759e-15 4.38985e-15 -2.21395e-15 -3.15442e-18 -5.49032e-15 6.60045e-15 -7.70743e-15 7.70743e-15 -1.10698e-15 -5.49374e-15 1.39253e-17 2.21864e-18 -1.41463e-14 1.41441e-14 -1.39155e-17 -8.95953e-21 5.25994e-22 2.96131e-21 3.94642e-21 7.70768e-15 -1.54154e-14 7.70768e-15 0 0 4.05631e-17 -1.1012e-15 1.42745e-15 -1.10172e-15 -1.10172e-15 2.20685e-15 -2.20685e-15 -2.17235e-15 -3.32132e-15 5.48828e-15 5.38848e-18 2.21395e-15 -2.21395e-15 1.10698e-15 -7.70743e-15 7.70743e-15 -6.60071e-15 -1.41162e-14 1.41184e-14 -2.21865e-18 9.01936e-21 7.70769e-15 -1.54154e-14 1.54154e-14 -2.22893e-32 -1.54154e-14 1.54154e-14 -7.70768e-15 7.70769e-15 0 0 -3.0253e-31 -7.75994e-16 1.10172e-15 -2.20345e-15 1.10342e-15 -2.49929e-24 2.49926e-24 -6.59689e-15 -2.00701e-19 5.48828e-15 1.11237e-15 -6.60018e-15 6.60018e-15 1.84808e-21 -6.60045e-15 -2.55057e-19 3.56424e-21 -1.41162e-14 1.41162e-14 9.01014e-21 3.98187e-19 -4.10484e-19 1.39286e-17 -1.39249e-17 3.11347e-21 -5.3287e-22 7.70768e-15 -7.70768e-15 7.70769e-15 0 0 -3.17979e-47 3.25728e-16 -1.10172e-15 1.70083e-18 4.1909e-31 -6.16924e-30 -3.27932e-15 -3.31757e-15 6.60045e-15 -1.10698e-15 1.10698e-15 -6.60018e-15 6.60005e-15 -1.10685e-15 -5.49374e-15 3.2606e-21 6.56808e-21 1.39174e-17 -1.39155e-17 7.70769e-15 -1.5415e-14 7.70729e-15 1.39307e-17 -1.39216e-17 1.02981e-21 7.70768e-15 -7.70769e-15 -7.70769e-15 1.54154e-14 0 0 0 6.51456e-16 -2.20345e-15 1.10342e-15 -2.49929e-24 2.49928e-24 -4.38275e-15 4.3863e-15 -1.10698e-15 1.10698e-15 -1.10698e-15 -5.49347e-15 6.60033e-15 -7.70757e-15 1.10698e-15 7.70769e-15 -7.70768e-15 -9.82611e-21 1.06873e-20 -7.12774e-21 1.39166e-17 -1.39201e-17 4.2772e-24 4.00755e-21 4.00264e-19 -4.05612e-19 1.39266e-17 -1.39265e-17 -1.41305e-14 0 0 -4.15221e-31 -7.75994e-16 1.70083e-18 -1.10342e-15 1.10342e-15 -1.10342e-15 1.10698e-15 -1.10698e-15 -3.08734e-31 1.10698e-15 -1.10698e-15 -5.49347e-15 -2.59313e-19 -2.75784e-21 7.70769e-15 -7.70769e-15 -6.85762e-22 -2.27555e-21 5.12004e-22 -1.44056e-22 1.39249e-17 -1.3923e-17 -2.27555e-21 5.12004e-22 4.04972e-19 -4.09464e-19 -1.41131e-14 2.18208e-14 -2.18381e-14 0 0 -2.26172e-30 -2.20345e-15 2.20685e-15 -2.20685e-15 1.04927e-31 1.26701e-30 2.21395e-15 -2.21395e-15 -8.52103e-31 -1.7798e-46 -8.34556e-31 2.21396e-15 -1.54154e-14 1.54154e-14 3.15069e-21 -1.54154e-14 1.54154e-14 -1.54154e-14 1.54154e-14 2.23414e-32 -1.54154e-14 1.54154e-14 -1.5415e-14 1.5415e-14 3.94642e-21 -4.39034e-21 -4.36715e-14 4.36715e-14 1.88667e-20 0 0 -4.58592e-31 -7.75994e-16 1.70083e-18 -8.37302e-31 -1.10342e-15 1.10698e-15 -6.60071e-15 6.60071e-15 -1.10698e-15 -8.43337e-31 -1.25336e-19 2.21409e-15 -7.70769e-15 -3.94642e-21 -1.94816e-42 3.94642e-21 7.70768e-15 -7.70768e-15 -3.94642e-21 -2.89698e-36 -5.25994e-22 7.70769e-15 -1.5415e-14 1.5415e-14 7.03859e-21 -2.18352e-14 2.62965e-17 -2.62964e-17 2.18352e-14 0 0 -2.67588e-32 3.27429e-16 -2.20515e-15 1.10342e-15 3.55375e-18 -6.60071e-15 4.59341e-41 3.38938e-39 6.60071e-15 1.0813e-21 -1.26986e-19 -2.07279e-14 2.1835e-14 -7.70769e-15 -4.27241e-44 7.70769e-15 -2.18354e-14 2.18354e-14 -7.70769e-15 2.95782e-22 7.70768e-15 -7.70769e-15 1.39211e-17 -1.41409e-14 -2.14693e-18 2.95966e-17 1.01363e-17 -1.01362e-17 -1.78147e-17 0 0 -1.48784e-16 8.24957e-17 -1.10342e-15 -2.10261e-31 1.10698e-15 -6.60071e-15 -2.96274e-24 1.36564e-23 3.96711e-19 6.60032e-15 -7.32079e-21 -2.07281e-14 2.1835e-14 -7.70769e-15 -5.00876e-44 7.70769e-15 -2.18354e-14 1.41277e-14 3.81592e-21 7.70768e-15 -7.70768e-15 -7.70769e-15 1.54293e-14 -2.18486e-14 -2.12931e-18 2.95967e-17 1.01363e-17 -1.01362e-17 -1.78148e-17 0 0 -1.39826e-13 -1.02094e-15 1.10342e-15 -1.10342e-15 1.58052e-30 1.10698e-15 -6.60071e-15 6.60071e-15 -7.71045e-15 7.71045e-15 -7.7077e-15 8.81467e-15 -7.70769e-15 4.35422e-22 -1.50945e-51 -4.35422e-22 7.70769e-15 -1.54154e-14 7.7077e-15 7.70768e-15 -7.70767e-15 -1.36621e-20 -1.41305e-14 2.18381e-14 2.78082e-20 -2.18352e-14 3.80872e-17 -3.80871e-17 2.18352e-14 0 0 0 0 0 0 0 0 0 0 0 0 0 0 0 0 0 0 0 0 0 0 0 0 0 0 0 0 0 0 0 0
				</DataArray>
				<DataArray Name="VitesseY" type="Float32" format="ascii">