<?xml version="1.0"?>
<VTKFile type="PolyData">
	<PolyData>
		<Piece NumberOfPoints="961" NumberOfPolys="900">
			<Points>
				<DataArray type="Float32" NumberOfComponents="3" format="ascii">
 0 0 0 0.04 0 0 0.08 0 0 0.12 0 0 0.16 0 0 0.2 0 0 0.24 0 0 0.28 0 0 0.32 0 0 0.36 0 0 0.4 0 0 0.44 0 0 0.48 0 0 0.52 0 0 0.56 0 0 0.6 0 0 0.64 0 0 0.68 0 0 0.72 0 0 0.76 0 0 0.8 0 0 0.84 0 0 0.88 0 0 0.92 0 0 0.96 0 0 1 0 0 1.04 0 0 1.08 0 0 1.12 0 0 1.16 0 0 1.2 0 0 0 0.04 0 0.04 0.04 0 0.08 0.04 0 0.12 0.04 0 0.16 0.04 0 0.2 0.04 0 0.24 0.04 0 0.28 0.04 0 0.32 0.04 0 0.36 0.04 0 0.4 0.04 0 0.44 0.04 0 0.48 0.04 0 0.52 0.04 0 0.56 0.04 0 0.6 0.04 0 0.64 0.04 0 0.68 0.04 0 0.72 0.04 0 0.76 0.04 0 0.8 0.04 0 0.84 0.04 0 0.88 0.04 0 0.92 0.04 0 0.96 0.04 0 1 0.04 0 1.04 0.04 0 1.08 0.04 0 1.12 0.04 0 1.16 0.04 0 1.2 0.04 0 0 0.08 0 0.04 0.08 0 0.08 0.08 0 0.12 0.08 0 0.16 0.08 0 0.2 0.08 0 0.24 0.08 0 0.28 0.08 0 0.32 0.08 0 0.36 0.08 0 0.4 0.08 0 0.44 0.08 0 0.48 0.08 0 0.52 0.08 0 0.56 0.08 0 0.6 0.08 0 0.64 0.08 0 0.68 0.08 0 0.72 0.08 0 0.76 0.08 0 0.8 0.08 0 0.84 0.08 0 0.88 0.08 0 0.92 0.08 0 0.96 0.08 0 1 0.08 0 1.04 0.08 0 1.08 0.08 0 1.12 0.08 0 1.16 0.08 0 1.2 0.08 0 0 0.12 0 0.04 0.12 0 0.08 0.12 0 0.12 0.12 0 0.16 0.12 0 0.2 0.12 0 0.24 0.12 0 0.28 0.12 0 0.32 0.12 0 0.36 0.12 0 0.4 0.12 0 0.44 0.12 0 0.48 0.12 0 0.52 0.12 0 0.56 0.12 0 0.6 0.12 0 0.64 0.12 0 0.68 0.12 0 0.72 0.12 0 0.76 0.12 0 0.8 0.12 0 0.84 0.12 0 0.88 0.12 0 0.92 0.12 0 0.96 0.12 0 1 0.12 0 1.04 0.12 0 1.08 0.12 0 1.12 0.12 0 1.16 0.12 0 1.2 0.12 0 0 0.16 0 0.04 0.16 0 0.08 0.16 0 0.12 0.16 0 0.16 0.16 0 0.2 0.16 0 0.24 0.16 0 0.28 0.16 0 0.32 0.16 0 0.36 0.16 0 0.4 0.16 0 0.44 0.16 0 0.48 0.16 0 0.52 0.16 0 0.56 0.16 0 0.6 0.16 0 0.64 0.16 0 0.68 0.16 0 0.72 0.16 0 0.76 0.16 0 0.8 0.16 0 0.84 0.16 0 0.88 0.16 0 0.92 0.16 0 0.96 0.16 0 1 0.16 0 1.04 0.16 0 1.08 0.16 0 1.12 0.16 0 1.16 0.16 0 1.2 0.16 0 0 0.2 0 0.04 0.2 0 0.08 0.2 0 0.12 0.2 0 0.16 0.2 0 0.2 0.2 0 0.24 0.2 0 0.28 0.2 0 0.32 0.2 0 0.36 0.2 0 0.4 0.2 0 0.44 0.2 0 0.48 0.2 0 0.52 0.2 0 0.56 0.2 0 0.6 0.2 0 0.64 0.2 0 0.68 0.2 0 0.72 0.2 0 0.76 0.2 0 0.8 0.2 0 0.84 0.2 0 0.88 0.2 0 0.92 0.2 0 0.96 0.2 0 1 0.2 0 1.04 0.2 0 1.08 0.2 0 1.12 0.2 0 1.16 0.2 0 1.2 0.2 0 0 0.24 0 0.04 0.24 0 0.08 0.24 0 0.12 0.24 0 0.16 0.24 0 0.2 0.24 0 0.24 0.24 0 0.28 0.24 0 0.32 0.24 0 0.36 0.24 0 0.4 0.24 0 0.44 0.24 0 0.48 0.24 0 0.52 0.24 0 0.56 0.24 0 0.6 0.24 0 0.64 0.24 0 0.68 0.24 0 0.72 0.24 0 0.76 0.24 0 0.8 0.24 0 0.84 0.24 0 0.88 0.24 0 0.92 0.24 0 0.96 0.24 0 1 0.24 0 1.04 0.24 0 1.08 0.24 0 1.12 0.24 0 1.16 0.24 0 1.2 0.24 0 0 0.28 0 0.04 0.28 0 0.08 0.28 0 0.12 0.28 0 0.16 0.28 0 0.2 0.28 0 0.24 0.28 0 0.28 0.28 0 0.32 0.28 0 0.36 0.28 0 0.4 0.28 0 0.44 0.28 0 0.48 0.28 0 0.52 0.28 0 0.56 0.28 0 0.6 0.28 0 0.64 0.28 0 0.68 0.28 0 0.72 0.28 0 0.76 0.28 0 0.8 0.28 0 0.84 0.28 0 0.88 0.28 0 0.92 0.28 0 0.96 0.28 0 1 0.28 0 1.04 0.28 0 1.08 0.28 0 1.12 0.28 0 1.16 0.28 0 1.2 0.28 0 0 0.32 0 0.04 0.32 0 0.08 0.32 0 0.12 0.32 0 0.16 0.32 0 0.2 0.32 0 0.24 0.32 0 0.28 0.32 0 0.32 0.32 0 0.36 0.32 0 0.4 0.32 0 0.44 0.32 0 0.48 0.32 0 0.52 0.32 0 0.56 0.32 0 0.6 0.32 0 0.64 0.32 0 0.68 0.32 0 0.72 0.32 0 0.76 0.32 0 0.8 0.32 0 0.84 0.32 0 0.88 0.32 0 0.92 0.32 0 0.96 0.32 0 1 0.32 0 1.04 0.32 0 1.08 0.32 0 1.12 0.32 0 1.16 0.32 0 1.2 0.32 0 0 0.36 0 0.04 0.36 0 0.08 0.36 0 0.12 0.36 0 0.16 0.36 0 0.2 0.36 0 0.24 0.36 0 0.28 0.36 0 0.32 0.36 0 0.36 0.36 0 0.4 0.36 0 0.44 0.36 0 0.48 0.36 0 0.52 0.36 0 0.56 0.36 0 0.6 0.36 0 0.64 0.36 0 0.68 0.36 0 0.72 0.36 0 0.76 0.36 0 0.8 0.36 0 0.84 0.36 0 0.88 0.36 0 0.92 0.36 0 0.96 0.36 0 1 0.36 0 1.04 0.36 0 1.08 0.36 0 1.12 0.36 0 1.16 0.36 0 1.2 0.36 0 0 0.4 0 0.04 0.4 0 0.08 0.4 0 0.12 0.4 0 0.16 0.4 0 0.2 0.4 0 0.24 0.4 0 0.28 0.4 0 0.32 0.4 0 0.36 0.4 0 0.4 0.4 0 0.44 0.4 0 0.48 0.4 0 0.52 0.4 0 0.56 0.4 0 0.6 0.4 0 0.64 0.4 0 0.68 0.4 0 0.72 0.4 0 0.76 0.4 0 0.8 0.4 0 0.84 0.4 0 0.88 0.4 0 0.92 0.4 0 0.96 0.4 0 1 0.4 0 1.04 0.4 0 1.08 0.4 0 1.12 0.4 0 1.16 0.4 0 1.2 0.4 0 0 0.44 0 0.04 0.44 0 0.08 0.44 0 0.12 0.44 0 0.16 0.44 0 0.2 0.44 0 0.24 0.44 0 0.28 0.44 0 0.32 0.44 0 0.36 0.44 0 0.4 0.44 0 0.44 0.44 0 0.48 0.44 0 0.52 0.44 0 0.56 0.44 0 0.6 0.44 0 0.64 0.44 0 0.68 0.44 0 0.72 0.44 0 0.76 0.44 0 0.8 0.44 0 0.84 0.44 0 0.88 0.44 0 0.92 0.44 0 0.96 0.44 0 1 0.44 0 1.04 0.44 0 1.08 0.44 0 1.12 0.44 0 1.16 0.44 0 1.2 0.44 0 0 0.48 0 0.04 0.48 0 0.08 0.48 0 0.12 0.48 0 0.16 0.48 0 0.2 0.48 0 0.24 0.48 0 0.28 0.48 0 0.32 0.48 0 0.36 0.48 0 0.4 0.48 0 0.44 0.48 0 0.48 0.48 0 0.52 0.48 0 0.56 0.48 0 0.6 0.48 0 0.64 0.48 0 0.68 0.48 0 0.72 0.48 0 0.76 0.48 0 0.8 0.48 0 0.84 0.48 0 0.88 0.48 0 0.92 0.48 0 0.96 0.48 0 1 0.48 0 1.04 0.48 0 1.08 0.48 0 1.12 0.48 0 1.16 0.48 0 1.2 0.48 0 0 0.52 0 0.04 0.52 0 0.08 0.52 0 0.12 0.52 0 0.16 0.52 0 0.2 0.52 0 0.24 0.52 0 0.28 0.52 0 0.32 0.52 0 0.36 0.52 0 0.4 0.52 0 0.44 0.52 0 0.48 0.52 0 0.52 0.52 0 0.56 0.52 0 0.6 0.52 0 0.64 0.52 0 0.68 0.52 0 0.72 0.52 0 0.76 0.52 0 0.8 0.52 0 0.84 0.52 0 0.88 0.52 0 0.92 0.52 0 0.96 0.52 0 1 0.52 0 1.04 0.52 0 1.08 0.52 0 1.12 0.52 0 1.16 0.52 0 1.2 0.52 0 0 0.56 0 0.04 0.56 0 0.08 0.56 0 0.12 0.56 0 0.16 0.56 0 0.2 0.56 0 0.24 0.56 0 0.28 0.56 0 0.32 0.56 0 0.36 0.56 0 0.4 0.56 0 0.44 0.56 0 0.48 0.56 0 0.52 0.56 0 0.56 0.56 0 0.6 0.56 0 0.64 0.56 0 0.68 0.56 0 0.72 0.56 0 0.76 0.56 0 0.8 0.56 0 0.84 0.56 0 0.88 0.56 0 0.92 0.56 0 0.96 0.56 0 1 0.56 0 1.04 0.56 0 1.08 0.56 0 1.12 0.56 0 1.16 0.56 0 1.2 0.56 0 0 0.6 0 0.04 0.6 0 0.08 0.6 0 0.12 0.6 0 0.16 0.6 0 0.2 0.6 0 0.24 0.6 0 0.28 0.6 0 0.32 0.6 0 0.36 0.6 0 0.4 0.6 0 0.44 0.6 0 0.48 0.6 0 0.52 0.6 0 0.56 0.6 0 0.6 0.6 0 0.64 0.6 0 0.68 0.6 0 0.72 0.6 0 0.76 0.6 0 0.8 0.6 0 0.84 0.6 0 0.88 0.6 0 0.92 0.6 0 0.96 0.6 0 1 0.6 0 1.04 0.6 0 1.08 0.6 0 1.12 0.6 0 1.16 0.6 0 1.2 0.6 0 0 0.64 0 0.04 0.64 0 0.08 0.64 0 0.12 0.64 0 0.16 0.64 0 0.2 0.64 0 0.24 0.64 0 0.28 0.64 0 0.32 0.64 0 0.36 0.64 0 0.4 0.64 0 0.44 0.64 0 0.48 0.64 0 0.52 0.64 0 0.56 0.64 0 0.6 0.64 0 0.64 0.64 0 0.68 0.64 0 0.72 0.64 0 0.76 0.64 0 0.8 0.64 0 0.84 0.64 0 0.88 0.64 0 0.92 0.64 0 0.96 0.64 0 1 0.64 0 1.04 0.64 0 1.08 0.64 0 1.12 0.64 0 1.16 0.64 0 1.2 0.64 0 0 0.68 0 0.04 0.68 0 0.08 0.68 0 0.12 0.68 0 0.16 0.68 0 0.2 0.68 0 0.24 0.68 0 0.28 0.68 0 0.32 0.68 0 0.36 0.68 0 0.4 0.68 0 0.44 0.68 0 0.48 0.68 0 0.52 0.68 0 0.56 0.68 0 0.6 0.68 0 0.64 0.68 0 0.68 0.68 0 0.72 0.68 0 0.76 0.68 0 0.8 0.68 0 0.84 0.68 0 0.88 0.68 0 0.92 0.68 0 0.96 0.68 0 1 0.68 0 1.04 0.68 0 1.08 0.68 0 1.12 0.68 0 1.16 0.68 0 1.2 0.68 0 0 0.72 0 0.04 0.72 0 0.08 0.72 0 0.12 0.72 0 0.16 0.72 0 0.2 0.72 0 0.24 0.72 0 0.28 0.72 0 0.32 0.72 0 0.36 0.72 0 0.4 0.72 0 0.44 0.72 0 0.48 0.72 0 0.52 0.72 0 0.56 0.72 0 0.6 0.72 0 0.64 0.72 0 0.68 0.72 0 0.72 0.72 0 0.76 0.72 0 0.8 0.72 0 0.84 0.72 0 0.88 0.72 0 0.92 0.72 0 0.96 0.72 0 1 0.72 0 1.04 0.72 0 1.08 0.72 0 1.12 0.72 0 1.16 0.72 0 1.2 0.72 0 0 0.76 0 0.04 0.76 0 0.08 0.76 0 0.12 0.76 0 0.16 0.76 0 0.2 0.76 0 0.24 0.76 0 0.28 0.76 0 0.32 0.76 0 0.36 0.76 0 0.4 0.76 0 0.44 0.76 0 0.48 0.76 0 0.52 0.76 0 0.56 0.76 0 0.6 0.76 0 0.64 0.76 0 0.68 0.76 0 0.72 0.76 0 0.76 0.76 0 0.8 0.76 0 0.84 0.76 0 0.88 0.76 0 0.92 0.76 0 0.96 0.76 0 1 0.76 0 1.04 0.76 0 1.08 0.76 0 1.12 0.76 0 1.16 0.76 0 1.2 0.76 0 0 0.8 0 0.04 0.8 0 0.08 0.8 0 0.12 0.8 0 0.16 0.8 0 0.2 0.8 0 0.24 0.8 0 0.28 0.8 0 0.32 0.8 0 0.36 0.8 0 0.4 0.8 0 0.44 0.8 0 0.48 0.8 0 0.52 0.8 0 0.56 0.8 0 0.6 0.8 0 0.64 0.8 0 0.68 0.8 0 0.72 0.8 0 0.76 0.8 0 0.8 0.8 0 0.84 0.8 0 0.88 0.8 0 0.92 0.8 0 0.96 0.8 0 1 0.8 0 1.04 0.8 0 1.08 0.8 0 1.12 0.8 0 1.16 0.8 0 1.2 0.8 0 0 0.84 0 0.04 0.84 0 0.08 0.84 0 0.12 0.84 0 0.16 0.84 0 0.2 0.84 0 0.24 0.84 0 0.28 0.84 0 0.32 0.84 0 0.36 0.84 0 0.4 0.84 0 0.44 0.84 0 0.48 0.84 0 0.52 0.84 0 0.56 0.84 0 0.6 0.84 0 0.64 0.84 0 0.68 0.84 0 0.72 0.84 0 0.76 0.84 0 0.8 0.84 0 0.84 0.84 0 0.88 0.84 0 0.92 0.84 0 0.96 0.84 0 1 0.84 0 1.04 0.84 0 1.08 0.84 0 1.12 0.84 0 1.16 0.84 0 1.2 0.84 0 0 0.88 0 0.04 0.88 0 0.08 0.88 0 0.12 0.88 0 0.16 0.88 0 0.2 0.88 0 0.24 0.88 0 0.28 0.88 0 0.32 0.88 0 0.36 0.88 0 0.4 0.88 0 0.44 0.88 0 0.48 0.88 0 0.52 0.88 0 0.56 0.88 0 0.6 0.88 0 0.64 0.88 0 0.68 0.88 0 0.72 0.88 0 0.76 0.88 0 0.8 0.88 0 0.84 0.88 0 0.88 0.88 0 0.92 0.88 0 0.96 0.88 0 1 0.88 0 1.04 0.88 0 1.08 0.88 0 1.12 0.88 0 1.16 0.88 0 1.2 0.88 0 0 0.92 0 0.04 0.92 0 0.08 0.92 0 0.12 0.92 0 0.16 0.92 0 0.2 0.92 0 0.24 0.92 0 0.28 0.92 0 0.32 0.92 0 0.36 0.92 0 0.4 0.92 0 0.44 0.92 0 0.48 0.92 0 0.52 0.92 0 0.56 0.92 0 0.6 0.92 0 0.64 0.92 0 0.68 0.92 0 0.72 0.92 0 0.76 0.92 0 0.8 0.92 0 0.84 0.92 0 0.88 0.92 0 0.92 0.92 0 0.96 0.92 0 1 0.92 0 1.04 0.92 0 1.08 0.92 0 1.12 0.92 0 1.16 0.92 0 1.2 0.92 0 0 0.96 0 0.04 0.96 0 0.08 0.96 0 0.12 0.96 0 0.16 0.96 0 0.2 0.96 0 0.24 0.96 0 0.28 0.96 0 0.32 0.96 0 0.36 0.96 0 0.4 0.96 0 0.44 0.96 0 0.48 0.96 0 0.52 0.96 0 0.56 0.96 0 0.6 0.96 0 0.64 0.96 0 0.68 0.96 0 0.72 0.96 0 0.76 0.96 0 0.8 0.96 0 0.84 0.96 0 0.88 0.96 0 0.92 0.96 0 0.96 0.96 0 1 0.96 0 1.04 0.96 0 1.08 0.96 0 1.12 0.96 0 1.16 0.96 0 1.2 0.96 0 0 1 0 0.04 1 0 0.08 1 0 0.12 1 0 0.16 1 0 0.2 1 0 0.24 1 0 0.28 1 0 0.32 1 0 0.36 1 0 0.4 1 0 0.44 1 0 0.48 1 0 0.52 1 0 0.56 1 0 0.6 1 0 0.64 1 0 0.68 1 0 0.72 1 0 0.76 1 0 0.8 1 0 0.84 1 0 0.88 1 0 0.92 1 0 0.96 1 0 1 1 0 1.04 1 0 1.08 1 0 1.12 1 0 1.16 1 0 1.2 1 0 0 1.04 0 0.04 1.04 0 0.08 1.04 0 0.12 1.04 0 0.16 1.04 0 0.2 1.04 0 0.24 1.04 0 0.28 1.04 0 0.32 1.04 0 0.36 1.04 0 0.4 1.04 0 0.44 1.04 0 0.48 1.04 0 0.52 1.04 0 0.56 1.04 0 0.6 1.04 0 0.64 1.04 0 0.68 1.04 0 0.72 1.04 0 0.76 1.04 0 0.8 1.04 0 0.84 1.04 0 0.88 1.04 0 0.92 1.04 0 0.96 1.04 0 1 1.04 0 1.04 1.04 0 1.08 1.04 0 1.12 1.04 0 1.16 1.04 0 1.2 1.04 0 0 1.08 0 0.04 1.08 0 0.08 1.08 0 0.12 1.08 0 0.16 1.08 0 0.2 1.08 0 0.24 1.08 0 0.28 1.08 0 0.32 1.08 0 0.36 1.08 0 0.4 1.08 0 0.44 1.08 0 0.48 1.08 0 0.52 1.08 0 0.56 1.08 0 0.6 1.08 0 0.64 1.08 0 0.68 1.08 0 0.72 1.08 0 0.76 1.08 0 0.8 1.08 0 0.84 1.08 0 0.88 1.08 0 0.92 1.08 0 0.96 1.08 0 1 1.08 0 1.04 1.08 0 1.08 1.08 0 1.12 1.08 0 1.16 1.08 0 1.2 1.08 0 0 1.12 0 
[...]
			<PointData Scalars="VitesseX">
				<DataArray Name="VitesseX" type="Float32" format="ascii">
 0 -0.0307148 -0.11461 -0.116622 -0.0970733 -0.037265 0.0497226 0.138218 0.220842 0.294929 0.361003 0.420033 0.473177 0.521095 0.564871 0.605357 0.643766 0.681271 0.718639 0.756208 0.794316 0.833402 0.873956 0.916474 0.961644 1.01119 0.97657 0.761089 0.347925 -0.0308321 0 0 0.123106 0.110382 0.080254 0.0674562 0.095945 0.15088 0.215161 0.279092 0.341137 0.399038 0.450993 0.49808 0.540927 0.580398 0.617415 0.653057 0.688265 0.723566 0.759308 0.795975 0.833994 0.87376 0.915684 0.960373 1.00966 0.977775 0.766029 0.35497 -0.0245895 0 0 0.119879 0.203422 0.237065 0.251408 0.262553 0.274814 0.312961 0.346727 0.387821 0.42953 0.471438 0.511442 0.549255 0.58568 0.621191 0.656236 0.691204 0.726399 0.762107 0.798813 0.837012 0.877112 0.919407 0.964296 1.0139 0.989582 0.786879 0.380422 -0.00395074 0 0 0.0983299 0.183783 0.227996 0.263265 0.292829 0.301383 0.340974 0.369035 0.406646 0.441506 0.477 0.513174 0.549316 0.585249 0.620843 0.656311 0.691872 0.727742 0.764217 0.801777 0.840823 0.881655 0.924413 0.969393 1.01898 1.00567 0.816157 0.417499 0.0250683 0 0 0.0557621 0.131243 0.194183 0.242413 0.282999 0.299393 0.336614 0.36514 0.404276 0.440888 0.478396 0.514589 0.549674 0.584756 0.620045 0.655762 0.691893 0.72849 0.765906 0.80453 0.844604 0.8862 0.929313 0.974203 1.02321 1.02374 0.850668 0.463375 0.0616854 0 0 0.0178712 0.0725757 0.143677 0.199507 0.251947 0.285388 0.321382 0.355414 0.395539 0.433905 0.473182 0.511383 0.547947 0.583744 0.619349 0.65533 0.691856 0.7291 0.767465 0.807124 0.848086 0.890242 0.933567 0.978373 1.02666 1.04247 0.888606 0.517338 0.106386 0 0 0.00478707 0.0426424 0.100455 0.152325 0.20978 0.257709 0.295397 0.336632 0.379114 0.420746 0.462982 0.504028 0.543086 0.580647 0.617589 0.654641 0.69201 0.730095 0.769339 0.809873 0.851539 0.894098 0.937595 0.98243 1.03013 1.06054 0.928627 0.578638 0.159332 0 0 0.00604448 0.0383177 0.0882625 0.134314 0.183206 0.230461 0.268261 0.312795 0.356985 0.401905 0.447975 0.492697 0.535056 0.5754 0.614638 0.653506 0.692493 0.73185 0.771987 0.813167 0.855266 0.898104 0.941783 0.986779 1.03419 1.07693 0.969372 0.646205 0.220501 0 0 0.0111001 0.0421872 0.0879351 0.134274 0.179015 0.224197 0.261274 0.303045 0.344453 0.387847 0.433124 0.479356 0.525099 0.568899 0.611137 0.652505 0.693447 0.734392 0.775549 0.817256 0.859613 0.902658 0.946551 0.991821 1.03927 1.09072 1.00901 0.718594 0.290319 0 0 0.01712 0.0485451 0.0923762 0.138873 0.182494 0.225694 0.263228 0.302569 0.342637 0.384571 0.428151 0.473189 0.5192 0.564777 0.609175 0.652479 0.695163 0.73758 0.779815 0.822114 0.864754 0.907998 0.95216 0.997736 1.04534 1.10112 1.04738 0.792748 0.369141 0 0 0.0237494 0.0573424 0.100674 0.146643 0.189899 0.232009 0.269631 0.307293 0.346105 0.386689 0.428935 0.473053 0.51854 0.564297 0.609438 0.653885 0.697879 0.741446 0.784643 0.827526 0.870562 0.914055 0.958569 1.0044 1.05261 1.10801 1.0854 0.866725 0.454164 0 0 0.0298088 0.0669346 0.11068 0.156699 0.200967 0.243037 0.281496 0.318318 0.355686 0.394426 0.43474 0.477127 0.521443 0.566763 0.612202 0.6573 0.701884 0.746121 0.789941 0.833347 0.876766 0.920589 0.96549 1.01157 1.06127 1.11191 1.12418 0.943316 0.541803 0 0 0.0348663 0.0755173 0.120408 0.166991 0.213082 0.25677 0.297217 0.334488 0.370692 0.407832 0.446245 0.486534 0.529004 0.573083 0.617844 0.662743 0.707298 0.751654 0.79571 0.839475 0.883128 0.927399 0.972517 1.01924 1.07043 1.11639 1.16196 1.02297 0.629185 0 0 0.039147 0.0826225 0.128464 0.175387 0.22237 0.267858 0.310862 0.350517 0.387652 0.424233 0.461365 0.499793 0.540143 0.582371 0.625775 0.669716 0.71379 0.757783 0.801831 0.845645 0.889533 0.93418 0.979357 1.02778 1.07792 1.12438 1.19822 1.09715 0.714707 0 0 0.0425796 0.0881457 0.134823 0.181902 0.229079 0.27533 0.319609 0.361022 0.399741 0.437208 0.474509 0.512333 0.551566 0.592401 0.634446 0.67732 0.720538 0.763964 0.807671 0.851428 0.895752 0.940397 0.986455 1.03671 1.08347 1.14033 1.23062 1.15042 0.789217 0 0 0.0449394 0.0918852 0.13911 0.186199 0.233237 0.279606 0.324374 0.366792 0.406878 0.445462 0.483286 0.521183 0.560004 0.600145 0.641522 0.683684 0.726375 0.769504 0.812809 0.856783 0.901325 0.946148 0.994749 1.04305 1.08944 1.17581 1.24485 1.16699 0.838789 0 0 0.0462063 0.09382 0.141342 0.188345 0.235012 0.281108 0.325932 0.36885 0.409856 0.449397 0.488026 0.526479 0.565453 0.605476 0.646542 0.688411 0.730967 0.773832 0.817283 0.861599 0.905961 0.95267 1.00223 1.04692 1.10612 1.21425 1.23244 1.14125 0.832164 0 0 0.0466299 0.0944041 0.141936 0.188827 0.23517 0.280913 0.325584 0.368649 0.410041 0.450135 0.489442 0.528604 0.568122 0.608391 0.649552 0.691547 0.734026 0.77714 0.821159 0.865275 0.910809 0.960263 1.00581 1.05437 1.14871 1.21675 1.19188 1.05421 0.722246 0 0 0.0466508 0.0943458 0.141736 0.188371 0.234209 0.279227 0.323366 0.366402 0.408211 0.44892 0.488888 0.528609 0.568628 0.609362 0.650959 0.69314 0.736042 0.779833 0.823807 0.868769 0.917507 0.964118 1.00926 1.08383 1.17779 1.18415 1.10833 0.889161 0.485603 0 0 0.0464776 0.0937845 0.140694 0.186691 0.231701 0.27579 0.319162 0.361895 0.403959 0.445374 0.486295 0.526996 0.567845 0.60914 0.651073 0.693871 0.737495 0.781399 0.826202 0.874326 0.921566 0.965922 1.02868 1.1288 1.15967 1.11617 0.959254 0.630084 0.215212 0 0 0.0459796 0.0925213 0.138582 0.183689 0.227805 0.271064 0.313732 0.356055 0.39822 0.440197 0.48199 0.523731 0.565608 0.607831 0.65064 0.694147 0.738065 0.782972 0.830807 0.878107 0.92259 0.979922 1.0769 1.1251 1.10303 0.988425 0.721577 0.315199 0.0602724 0 0 0.0451469 0.0906231 0.135567 0.179669 0.222964 0.265673 0.308101 0.350457 0.392813 0.435176 0.477553 0.520031 0.562807 0.606057 0.649769 0.693919 0.739159 0.786909 0.833844 0.878784 0.934696 1.02719 1.08408 1.0769 0.990667 0.772152 0.398512 0.0992383 0.00911883 0 0 0.0440801 0.0882978 0.132029 0.175207 0.218028 0.260687 0.303262 0.345841 0.388489 0.431253 0.474176 0.51733 0.560824 0.604742 0.649279 0.694972 0.742542 0.78895 0.834638 0.891953 0.981363 1.03985 1.04148 0.97353 0.789824 0.454226 0.136149 0.0173882 0.00063952 0 0 0.0429567 0.0860717 0.128819 0.171443 0.214043 0.256718 0.299492 0.342371 0.385372 0.428541 0.471928 0.515625 0.55981 0.604681 0.650687 0.697687 0.743704 0.7908 0.852149 0.938864 0.9934 0.998941 0.941463 0.780999 0.479349 0.162846 0.026178 0.00138275 1.5063e-05 0 0 0.0420694 0.0841237 0.126364 0.168601 0.211202 0.254057 0.297112 0.340304 0.383632 0.427158 0.471007 0.51536 0.560422 0.606396 0.652617 0.698632 0.748837 0.816738 0.897424 0.94491 0.950031 0.896858 0.750012 0.474739 0.174285 0.0326035 0.00221273 3.70269e-05 1.16714e-07 0 0 0.0410833 0.0832266 0.124363 0.167046 0.209713 0.252776 0.295988 0.339376 0.383044 0.427085 0.471616 0.516712 0.562186 0.607805 0.655339 0.7116 0.786077 0.853836 0.893745 0.89442 0.840342 0.699278 0.44334 0.168775 0.0345215 0.00275435 6.16015e-05 2.70214e-07 9.85338e-10 0 0 0.0427813 0.0774432 0.127878 0.168464 0.21434 0.257925 0.300619 0.343011 0.385278 0.428582 0.472966 0.518175 0.565277 0.617615 0.681852 0.752488 0.805945 0.837353 0.830778 0.771213 0.629721 0.388947 0.148283 0.0313951 0.00273075 7.25096e-05 4.10371e-07 1.74091e-09 6.31751e-12 0 0 0.0174827 0.0818917 0.108813 0.175964 0.226102 0.271046 0.313478 0.354888 0.396653 0.440151 0.485736 0.534557 0.588219 0.651444 0.712007 0.755345 0.774111 0.75757 0.688154 0.541585 0.316693 0.117335 0.0243797 0.00216024 6.13077e-05 4.0964e-07 2.09815e-09 9.34661e-12 3.80598e-14 0 0 0.00836386 -0.034372 0.111388 0.180662 0.235354 0.282433 0.326912 0.370792 0.415211 0.462944 0.518221 0.575791 0.633957 0.683363 0.712183 0.716133 0.682298 0.594396 0.437709 0.234296 0.0819493 0.0157971 0.00133603 3.67073e-05 2.68684e-07 1.7345e-09 9.32834e-12 4.75812e-14 -4.71367e-16 0 0 -0.223155 0.0506956 0.147914 0.214276 0.270362 0.321953 0.371124 0.41922 0.468712 0.522148 0.580275 0.644243 0.702732 0.736876 0.733348 0.672911 0.536768 0.344682 0.158192 0.0490482 0.00819194 0.000615803 1.48918e-05 1.15479e-07 9.78355e-10 6.00325e-12 3.93155e-14 -8.04932e-16 1.41555e-13 0 0 0 0 0 0 0 0 0 0 0 0 0 0 0 0 0 0 0 0 0 0 0 0 0 0 0 0 0 0 0 0
				</DataArray>
				<DataArray Name="VitesseY" type="Float32" format="ascii">
 0 0 0 0 0 0 0 0 0 0 0 0 0 0 0 0 0 0 0 0 0 0 0 0 0 0 0 0 0 0 0 -0.0306501 0.123121 0.119876 0.0983182 0.0557493 0.0178627 0.00478182 0.00604034 0.0110964 0.0171162 0.0237457 0.0298061 0.0348648 0.0391469 0.0425807 0.0449412 0.0462084 0.046632 0.0466528 0.0464794 0.045981 0.0451494 0.0440765 0.0429708 0.0420088 0.041439 0.0433371 0.0474752 0.0480788 0.0572828 0 -0.114553 0.110408 0.203416 0.183768 0.131226 0.072563 0.0426349 0.0383123 0.0421822 0.0485407 0.057338 0.0669303 0.0755144 0.0826213 0.0881463 0.0918871 0.0938225 0.0944068 0.0943485 0.093787 0.092524 0.0906235 0.0883055 0.0860474 0.084185 0.0830387 0.0865036 0.0939099 0.0967246 0.112126 0 -0.11658 0.0802883 0.237063 0.22799 0.194172 0.143661 0.100447 0.0882587 0.0879321 0.0923727 0.10067 0.110675 0.120404 0.128461 0.134823 0.139111 0.141345 0.141939 0.141739 0.140697 0.138584 0.13557 0.132028 0.128826 0.126302 0.124864 0.129424 0.13966 0.144656 0.166068 0 -0.0970473 0.0674774 0.251406 0.263255 0.242404 0.199498 0.152318 0.134309 0.134269 0.138868 0.146638 0.156693 0.166986 0.175384 0.181901 0.186201 0.188347 0.18883 0.188374 0.186694 0.183693 0.179671 0.175208 0.171443 0.168591 0.167153 0.172373 0.184537 0.191883 0.219476 0 -0.0372523 0.0959566 0.262555 0.292828 0.282995 0.251941 0.209777 0.183203 0.179011 0.182488 0.189892 0.20096 0.213077 0.222368 0.229079 0.233239 0.235015 0.235173 0.234213 0.231704 0.227808 0.222966 0.218029 0.214044 0.211187 0.209854 0.215303 0.228537 0.238077 0.271654 0 0.0497287 0.150885 0.274812 0.301382 0.299392 0.285386 0.257707 0.230456 0.22419 0.225687 0.232 0.243028 0.256763 0.267855 0.275331 0.279609 0.281112 0.280917 0.279231 0.275794 0.271067 0.265674 0.260687 0.256718 0.254054 0.252821 0.258114 0.271546 0.283013 0.322253 0 0.138219 0.215164 0.31296 0.340973 0.336613 0.321383 0.2954 0.268261 0.261269 0.263221 0.269622 0.281486 0.297209 0.310858 0.319609 0.324376 0.325936 0.325588 0.323371 0.319166 0.313734 0.308102 0.303262 0.299492 0.297113 0.295995 0.300651 0.313567 0.327039 0.371186 0 0.220837 0.279091 0.346727 0.369033 0.36514 0.355414 0.336633 0.312794 0.30304 0.302564 0.307286 0.31831 0.334479 0.350512 0.361021 0.366793 0.368852 0.368653 0.366406 0.361898 0.356056 0.350458 0.345841 0.342371 0.340305 0.339377 0.343016 0.354904 0.370817 0.419229 0 0.29492 0.341134 0.387823 0.406644 0.404274 0.395539 0.379115 0.356987 0.344452 0.342634 0.346101 0.35568 0.370685 0.387647 0.399739 0.406878 0.409857 0.410043 0.408213 0.403961 0.398222 0.392813 0.388489 0.385372 0.383633 0.383045 0.385279 0.396653 0.415211 0.46871 0 0.360988 0.399033 0.429533 0.441504 0.440884 0.433902 0.420745 0.401907 0.387848 0.384571 0.386688 0.394423 0.407828 0.424229 0.437205 0.445461 0.449397 0.450135 0.448921 0.445375 0.440198 0.435176 0.431253 0.428541 0.427159 0.427085 0.428582 0.44015 0.462941 0.522145 0 0.420013 0.450986 0.47144 0.476999 0.47839 0.473178 0.462981 0.447978 0.433127 0.428153 0.428936 0.43474 0.446244 0.461362 0.474507 0.483284 0.488025 0.489441 0.488887 0.486294 0.481989 0.477552 0.474176 0.471928 0.471007 0.471616 0.472965 0.485735 0.518218 0.580272 0 0.473154 0.498072 0.511442 0.513173 0.514583 0.511378 0.504025 0.492698 0.479361 0.473194 0.473058 0.47713 0.486535 0.499792 0.512331 0.52118 0.526476 0.528601 0.528607 0.526994 0.52373 0.52003 0.517329 0.515625 0.51536 0.516711 0.518174 0.534555 0.575789 0.64424 0 0.521071 0.54092 0.549252 0.549313 0.549668 0.547941 0.543082 0.535057 0.525104 0.519206 0.518546 0.521448 0.529007 0.540143 0.551564 0.560002 0.56545 0.568119 0.568625 0.567843 0.565606 0.562806 0.560824 0.559809 0.560422 0.562186 0.565276 0.588217 0.633955 0.702731 0 0.564847 0.580391 0.585676 0.585245 0.584751 0.583738 0.580643 0.5754 0.568904 0.564784 0.564304 0.566769 0.573086 0.582372 0.5924 0.600143 0.605473 0.608388 0.609359 0.609137 0.607829 0.606056 0.604741 0.60468 0.606396 0.607804 0.617614 0.651442 0.683363 0.736877 0 0.605336 0.617408 0.621185 0.620839 0.62004 0.619343 0.617585 0.614638 0.61114 0.609181 0.609444 0.612207 0.617848 0.625776 0.634445 0.641519 0.646539 0.649549 0.650956 0.65107 0.650638 0.649768 0.649278 0.650686 0.652616 0.655339 0.68185 0.712006 0.712185 0.733352 0 0.643748 0.65305 0.656231 0.656306 0.655757 0.655326 0.654637 0.653505 0.652507 0.652483 0.65389 0.657305 0.662746 0.669717 0.677319 0.683682 0.688407 0.691543 0.693136 0.693868 0.694145 0.693917 0.694971 0.697686 0.698631 0.7116 0.752488 0.755346 0.716136 0.672918 0 0.681256 0.688259 0.691199 0.691867 0.691888 0.691852 0.692007 0.692491 0.693448 0.695166 0.697883 0.701888 0.707301 0.71379 0.720536 0.726373 0.730964 0.734022 0.736038 0.737492 0.738063 0.739158 0.742541 0.743704 0.748836 0.786076 0.805946 0.774113 0.682303 0.536777 0 0.718627 0.723561 0.726395 0.727738 0.728487 0.729097 0.730092 0.731849 0.734392 0.737581 0.741448 0.746123 0.751656 0.757783 0.763963 0.769502 0.773829 0.777137 0.779829 0.781396 0.78297 0.786908 0.788949 0.7908 0.816738 0.853837 0.837355 0.757574 0.594403 0.344691 0 0.7562 0.759304 0.762103 0.764213 0.765903 0.767462 0.769336 0.771985 0.775548 0.779814 0.784643 0.789942 0.79571 0.801831 0.80767 0.812806 0.81728 0.821156 0.823805 0.8262 0.830805 0.833844 0.834638 0.852149 0.897425 0.893747 0.830782 0.68816 0.437716 0.158197 0 0.79431 0.795972 0.79881 0.801773 0.804526 0.807121 0.80987 0.813165 0.817255 0.822113 0.827526 0.833347 0.839475 0.845645 0.851426 0.856781 0.861596 0.865272 0.868767 0.874325 0.878106 0.878784 0.891954 0.938865 0.944912 0.894424 0.771217 0.541591 0.234301 0.0490503 0 0.833398 0.83399 0.837008 0.84082 0.8446 0.848083 0.851536 0.855264 0.859611 0.864753 0.870561 0.876765 0.883128 0.889532 0.89575 0.901322 0.905958 0.910806 0.917505 0.921565 0.92259 0.934697 0.981365 0.993403 0.950035 0.840346 0.629727 0.316699 0.0819517 0.00819236 0 0.873948 0.873757 0.877109 0.881649 0.886196 0.890238 0.894095 0.898102 0.902656 0.907996 0.914053 0.920589 0.927399 0.934179 0.940395 0.946146 0.952668 0.960261 0.964116 0.965922 0.979923 1.02719 1.03985 0.998943 0.896861 0.699283 0.388952 0.117337 0.0157977 0.000615842 0 0.916469 0.915674 0.9194 0.924411 0.929308 0.933563 0.937593 0.941781 0.94655 0.952159 0.958568 0.965489 0.972517 0.979356 0.986453 0.994746 1.00223 1.00581 1.00926 1.02868 1.0769 1.08409 1.04149 0.941465 0.750016 0.443344 0.148286 0.0243803 0.00133609 1.48929e-05 0 0.961539 0.960298 0.964243 0.969365 0.974205 0.978376 0.982433 0.986779 0.99182 0.997735 1.0044 1.01156 1.01924 1.02778 1.0367 1.04305 1.04692 1.05437 1.08384 1.1288 1.1251 1.0769 0.973532 0.781 0.474741 0.168776 0.0313955 0.0021603 3.67093e-05 1.15488e-07 0 1.01156 1.00949 1.01394 1.01912 1.02311 1.02679 1.03017 1.03419 1.03927 1.04534 1.05261 1.06127 1.07043 1.07792 1.08347 1.08944 1.10612 1.14871 1.1778 1.15967 1.10303 0.990667 0.789824 0.479348 0.174284 0.0345216 0.00273078 6.13095e-05 2.68698e-07 9.78413e-10 0 1.00898 1.01015 1.01213 1.01769 1.03007 1.04366 1.06071 1.07696 1.09072 1.10112 1.10801 1.11191 1.11639 1.12438 1.14033 1.17581 1.21425 1.21675 1.18415 1.11617 0.988424 0.77215 0.454222 0.162844 0.0326031 0.00275432 7.25097e-05 4.09648e-07 1.73456e-09 6.00346e-12 0 0.880035 0.85835 0.850995 0.850174 0.856666 0.890027 0.928919 0.969423 1.00902 1.04738 1.0854 1.12419 1.16196 1.19822 1.23062 1.24485 1.23244 1.19188 1.10833 0.959251 0.721573 0.398506 0.136147 0.0261774 0.00221267 6.15997e-05 4.10364e-07 2.09815e-09 9.32851e-12 3.93361e-14 0 0.570667 0.587143 0.489704 0.427633 0.468671 0.518284 0.578794 0.646251 0.718608 0.792754 0.86673 0.943321 1.02297 1.09715 1.15042 1.16699 1.14125 1.05421 0.889156 0.630076 0.315194 0.0992356 0.0173876 0.00138268 3.70249e-05 2.70201e-07 1.74086e-09 9.34649e-12 4.75812e-14 -8.04932e-16 0 0.522734 0.244909 -0.0205414 0.0303576 0.0615549 0.106356 0.159364 0.220507 0.290323 0.369147 0.45417 0.541809 0.629191 0.714713 0.789221 0.838792 0.832163 0.72224 0.485594 0.215205 0.06027 0.00911836 0.000639479 1.50618e-05 1.16705e-07 9.8528e-10 6.31731e-12 3.80391e-14 -4.71367e-16 1.41555e-13 0 2.0792 0 0 0 0 0 0 0 0 0 0 0 0 0 0 0 0 0 0 0 0 0 0 0 0 0 0 0 0 0 0
				</DataArray>
			</PointData>
			<CellData Scalars="Density">
				<DataArray Name="Density" type="Float32" format="ascii">