<?xml version="1.0"?>
<VTKFile type="PolyData">
	<PolyData>
		<Piece NumberOfPoints="961" NumberOfPolys="900">
			<Points>
				<DataArray type="Float32" NumberOfComponents="3" format="ascii">
 0 0 0 0.04 0 0 0.08 0 0 0.12 0 0 0.16 0 0 0.2 0 0 0.24 0 0 0.28 0 0 0.32 0 0 0.36 0 0 0.4 0 0 0.44 0 0 0.48 0 0 0.52 0 0 0.56 0 0 0.6 0 0 0.64 0 0 0.68 0 0 0.72 0 0 0.76 0 0 0.8 0 0 0.84 0 0 0.88 0 0 0.92 0 0 0.96 0 0 1 0 0 1.04 0 0 1.08 0 0 1.12 0 0 1.16 0 0 1.2 0 0 0 0.04 0 0.04 0.04 0 0.08 0.04 0 0.12 0.04 0 0.16 0.04 0 0.2 0.04 0 0.24 0.04 0 0.28 0.04 0 0.32 0.04 0 0.36 0.04 0 0.4 0.04 0 0.44 0.04 0 0.48 0.04 0 0.52 0.04 0 0.56 0.04 0 0.6 0.04 0 0.64 0.04 0 0.68 0.04 0 0.72 0.04 0 0.76 0.04 0 0.8 0.04 0 0.84 0.04 0 0.88 0.04 0 0.92 0.04 0 0.96 0.04 0 1 0.04 0 1.04 0.04 0 1.08 0.04 0 1.12 0.04 0 1.16 0.04 0 1.2 0.04 0 0 0.08 0 0.04 0.08 0 0.08 0.08 0 0.12 0.08 0 0.16 0.08 0 0.2 0.08 0 0.24 0.08 0 0.28 0.08 0 0.32 0.08 0 0.36 0.08 0 0.4 0.08 0 0.44 0.08 0 0.48 0.08 0 0.52 0.08 0 0.56 0.08 0 0.6 0.08 0 0.64 0.08 0 0.68 0.08 0 0.72 0.08 0 0.76 0.08 0 0.8 0.08 0 0.84 0.08 0 0.88 0.08 0 0.92 0.08 0 0.96 0.08 0 1 0.08 0 1.04 0.08 0 1.08 0.08 0 1.12 0.08 0 1.16 0.08 0 1.2 0.08 0 0 0.12 0 0.04 0.12 0 0.08 0.12 0 0.12 0.12 0 0.16 0.12 0 0.2 0.12 0 0.24 0.12 0 0.28 0.12 0 0.32 0.12 0 0.36 0.12 0 0.4 0.12 0 0.44 0.12 0 0.48 0.12 0 0.52 0.12 0 0.56 0.12 0 0.6 0.12 0 0.64 0.12 0 0.68 0.12 0 0.72 0.12 0 0.76 0.12 0 0.8 0.12 0 0.84 0.12 0 0.88 0.12 0 0.92 0.12 0 0.96 0.12 0 1 0.12 0 1.04 0.12 0 1.08 0.12 0 1.12 0.12 0 1.16 0.12 0 1.2 0.12 0 0 0.16 0 0.04 0.16 0 0.08 0.16 0 0.12 0.16 0 0.16 0.16 0 0.2 0.16 0 0.24 0.16 0 0.28 0.16 0 0.32 0.16 0 0.36 0.16 0 0.4 0.16 0 0.44 0.16 0 0.48 0.16 0 0.52 0.16 0 0.56 0.16 0 0.6 0.16 0 0.64 0.16 0 0.68 0.16 0 0.72 0.16 0 0.76 0.16 0 0.8 0.16 0 0.84 0.16 0 0.88 0.16 0 0.92 0.16 0 0.96 0.16 0 1 0.16 0 1.04 0.16 0 1.08 0.16 0 1.12 0.16 0 1.16 0.16 0 1.2 0.16 0 0 0.2 0 0.04 0.2 0 0.08 0.2 0 0.12 0.2 0 0.16 0.2 0 0.2 0.2 0 0.24 0.2 0 0.28 0.2 0 0.32 0.2 0 0.36 0.2 0 0.4 0.2 0 0.44 0.2 0 0.48 0.2 0 0.52 0.2 0 0.56 0.2 0 0.6 0.2 0 0.64 0.2 0 0.68 0.2 0 0.72 0.2 0 0.76 0.2 0 0.8 0.2 0 0.84 0.2 0 0.88 0.2 0 0.92 0.2 0 0.96 0.2 0 1 0.2 0 1.04 0.2 0 1.08 0.2 0 1.12 0.2 0 1.16 0.2 0 1.2 0.2 0 0 0.24 0 0.04 0.24 0 0.08 0.24 0 0.12 0.24 0 0.16 0.24 0 0.2 0.24 0 0.24 0.24 0 0.28 0.24 0 0.32 0.24 0 0.36 0.24 0 0.4 0.24 0 0.44 0.24 0 0.48 0.24 0 0.52 0.24 0 0.56 0.24 0 0.6 0.24 0 0.64 0.24 0 0.68 0.24 0 0.72 0.24 0 0.76 0.24 0 0.8 0.24 0 0.84 0.24 0 0.88 0.24 0 0.92 0.24 0 0.96 0.24 0 1 0.24 0 1.04 0.24 0 1.08 0.24 0 1.12 0.24 0 1.16 0.24 0 1.2 0.24 0 0 0.28 0 0.04 0.28 0 0.08 0.28 0 0.12 0.28 0 0.16 0.28 0 0.2 0.28 0 0.24 0.28 0 0.28 0.28 0 0.32 0.28 0 0.36 0.28 0 0.4 0.28 0 0.44 0.28 0 0.48 0.28 0 0.52 0.28 0 0.56 0.28 0 0.6 0.28 0 0.64 0.28 0 0.68 0.28 0 0.72 0.28 0 0.76 0.28 0 0.8 0.28 0 0.84 0.28 0 0.88 0.28 0 0.92 0.28 0 0.96 0.28 0 1 0.28 0 1.04 0.28 0 1.08 0.28 0 1.12 0.28 0 1.16 0.28 0 1.2 0.28 0 0 0.32 0 0.04 0.32 0 0.08 0.32 0 0.12 0.32 0 0.16 0.32 0 0.2 0.32 0 0.24 0.32 0 0.28 0.32 0 0.32 0.32 0 0.36 0.32 0 0.4 0.32 0 0.44 0.32 0 0.48 0.32 0 0.52 0.32 0 0.56 0.32 0 0.6 0.32 0 0.64 0.32 0 0.68 0.32 0 0.72 0.32 0 0.76 0.32 0 0.8 0.32 0 0.84 0.32 0 0.88 0.32 0 0.92 0.32 0 0.96 0.32 0 1 0.32 0 1.04 0.32 0 1.08 0.32 0 1.12 0.32 0 1.16 0.32 0 1.2 0.32 0 0 0.36 0 0.04 0.36 0 0.08 0.36 0 0.12 0.36 0 0.16 0.36 0 0.2 0.36 0 0.24 0.36 0 0.28 0.36 0 0.32 0.36 0 0.36 0.36 0 0.4 0.36 0 0.44 0.36 0 0.48 0.36 0 0.52 0.36 0 0.56 0.36 0 0.6 0.36 0 0.64 0.36 0 0.68 0.36 0 0.72 0.36 0 0.76 0.36 0 0.8 0.36 0 0.84 0.36 0 0.88 0.36 0 0.92 0.36 0 0.96 0.36 0 1 0.36 0 1.04 0.36 0 1.08 0.36 0 1.12 0.36 0 1.16 0.36 0 1.2 0.36 0 0 0.4 0 0.04 0.4 0 0.08 0.4 0 0.12 0.4 0 0.16 0.4 0 0.2 0.4 0 0.24 0.4 0 0.28 0.4 0 0.32 0.4 0 0.36 0.4 0 0.4 0.4 0 0.44 0.4 0 0.48 0.4 0 0.52 0.4 0 0.56 0.4 0 0.6 0.4 0 0.64 0.4 0 0.68 0.4 0 0.72 0.4 0 0.76 0.4 0 0.8 0.4 0 0.84 0.4 0 0.88 0.4 0 0.92 0.4 0 0.96 0.4 0 1 0.4 0 1.04 0.4 0 1.08 0.4 0 1.12 0.4 0 1.16 0.4 0 1.2 0.4 0 0 0.44 0 0.04 0.44 0 0.08 0.44 0 0.12 0.44 0 0.16 0.44 0 0.2 0.44 0 0.24 0.44 0 0.28 0.44 0 0.32 0.44 0 0.36 0.44 0 0.4 0.44 0 0.44 0.44 0 0.48 0.44 0 0.52 0.44 0 0.56 0.44 0 0.6 0.44 0 0.64 0.44 0 0.68 0.44 0 0.72 0.44 0 0.76 0.44 0 0.8 0.44 0 0.84 0.44 0 0.88 0.44 0 0.92 0.44 0 0.96 0.44 0 1 0.44 0 1.04 0.44 0 1.08 0.44 0 1.12 0.44 0 1.16 0.44 0 1.2 0.44 0 0 0.48 0 0.04 0.48 0 0.08 0.48 0 0.12 0.48 0 0.16 0.48 0 0.2 0.48 0 0.24 0.48 0 0.28 0.48 0 0.32 0.48 0 0.36 0.48 0 0.4 0.48 0 0.44 0.48 0 0.48 0.48 0 0.52 0.48 0 0.56 0.48 0 0.6 0.48 0 0.64 0.48 0 0.68 0.48 0 0.72 0.48 0 0.76 0.48 0 0.8 0.48 0 0.84 0.48 0 0.88 0.48 0 0.92 0.48 0 0.96 0.48 0 1 0.48 0 1.04 0.48 0 1.08 0.48 0 1.12 0.48 0 1.16 0.48 0 1.2 0.48 0 0 0.52 0 0.04 0.52 0 0.08 0.52 0 0.12 0.52 0 0.16 0.52 0 0.2 0.52 0 0.24 0.52 0 0.28 0.52 0 0.32 0.52 0 0.36 0.52 0 0.4 0.52 0 0.44 0.52 0 0.48 0.52 0 0.52 0.52 0 0.56 0.52 0 0.6 0.52 0 0.64 0.52 0 0.68 0.52 0 0.72 0.52 0 0.76 0.52 0 0.8 0.52 0 0.84 0.52 0 0.88 0.52 0 0.92 0.52 0 0.96 0.52 0 1 0.52 0 1.04 0.52 0 1.08 0.52 0 1.12 0.52 0 1.16 0.52 0 1.2 0.52 0 0 0.56 0 0.04 0.56 0 0.08 0.56 0 0.12 0.56 0 0.16 0.56 0 0.2 0.56 0 0.24 0.56 0 0.28 0.56 0 0.32 0.56 0 0.36 0.56 0 0.4 0.56 0 0.44 0.56 0 0.48 0.56 0 0.52 0.56 0 0.56 0.56 0 0.6 0.56 0 0.64 0.56 0 0.68 0.56 0 0.72 0.56 0 0.76 0.56 0 0.8 0.56 0 0.84 0.56 0 0.88 0.56 0 0.92 0.56 0 0.96 0.56 0 1 0.56 0 1.04 0.56 0 1.08 0.56 0 1.12 0.56 0 1.16 0.56 0 1.2 0.56 0 0 0.6 0 0.04 0.6 0 0.08 0.6 0 0.12 0.6 0 0.16 0.6 0 0.2 0.6 0 0.24 0.6 0 0.28 0.6 0 0.32 0.6 0 0.36 0.6 0 0.4 0.6 0 0.44 0.6 0 0.48 0.6 0 0.52 0.6 0 0.56 0.6 0 0.6 0.6 0 0.64 0.6 0 0.68 0.6 0 0.72 0.6 0 0.76 0.6 0 0.8 0.6 0 0.84 0.6 0 0.88 0.6 0 0.92 0.6 0 0.96 0.6 0 1 0.6 0 1.04 0.6 0 1.08 0.6 0 1.12 0.6 0 1.16 0.6 0 1.2 0.6 0 0 0.64 0 0.04 0.64 0 0.08 0.64 0 0.12 0.64 0 0.16 0.64 0 0.2 0.64 0 0.24 0.64 0 0.28 0.64 0 0.32 0.64 0 0.36 0.64 0 0.4 0.64 0 0.44 0.64 0 0.48 0.64 0 0.52 0.64 0 0.56 0.64 0 0.6 0.64 0 0.64 0.64 0 0.68 0.64 0 0.72 0.64 0 0.76 0.64 0 0.8 0.64 0 0.84 0.64 0 0.88 0.64 0 0.92 0.64 0 0.96 0.64 0 1 0.64 0 1.04 0.64 0 1.08 0.64 0 1.12 0.64 0 1.16 0.64 0 1.2 0.64 0 0 0.68 0 0.04 0.68 0 0.08 0.68 0 0.12 0.68 0 0.16 0.68 0 0.2 0.68 0 0.24 0.68 0 0.28 0.68 0 0.32 0.68 0 0.36 0.68 0 0.4 0.68 0 0.44 0.68 0 0.48 0.68 0 0.52 0.68 0 0.56 0.68 0 0.6 0.68 0 0.64 0.68 0 0.68 0.68 0 0.72 0.68 0 0.76 0.68 0 0.8 0.68 0 0.84 0.68 0 0.88 0.68 0 0.92 0.68 0 0.96 0.68 0 1 0.68 0 1.04 0.68 0 1.08 0.68 0 1.12 0.68 0 1.16 0.68 0 1.2 0.68 0 0 0.72 0 0.04 0.72 0 0.08 0.72 0 0.12 0.72 0 0.16 0.72 0 0.2 0.72 0 0.24 0.72 0 0.28 0.72 0 0.32 0.72 0 0.36 0.72 0 0.4 0.72 0 0.44 0.72 0 0.48 0.72 0 0.52 0.72 0 0.56 0.72 0 0.6 0.72 0 0.64 0.72 0 0.68 0.72 0 0.72 0.72 0 0.76 0.72 0 0.8 0.72 0 0.84 0.72 0 0.88 0.72 0 0.92 0.72 0 0.96 0.72 0 1 0.72 0 1.04 0.72 0 1.08 0.72 0 1.12 0.72 0 1.16 0.72 0 1.2 0.72 0 0 0.76 0 0.04 0.76 0 0.08 0.76 0 0.12 0.76 0 0.16 0.76 0 0.2 0.76 0 0.24 0.76 0 0.28 0.76 0 0.32 0.76 0 0.36 0.76 0 0.4 0.76 0 0.44 0.76 0 0.48 0.76 0 0.52 0.76 0 0.56 0.76 0 0.6 0.76 0 0.64 0.76 0 0.68 0.76 0 0.72 0.76 0 0.76 0.76 0 0.8 0.76 0 0.84 0.76 0 0.88 0.76 0 0.92 0.76 0 0.96 0.76 0 1 0.76 0 1.04 0.76 0 1.08 0.76 0 1.12 0.76 0 1.16 0.76 0 1.2 0.76 0 0 0.8 0 0.04 0.8 0 0.08 0.8 0 0.12 0.8 0 0.16 0.8 0 0.2 0.8 0 0.24 0.8 0 0.28 0.8 0 0.32 0.8 0 0.36 0.8 0 0.4 0.8 0 0.44 0.8 0 0.48 0.8 0 0.52 0.8 0 0.56 0.8 0 0.6 0.8 0 0.64 0.8 0 0.68 0.8 0 0.72 0.8 0 0.76 0.8 0 0.8 0.8 0 0.84 0.8 0 0.88 0.8 0 0.92 0.8 0 0.96 0.8 0 1 0.8 0 1.04 0.8 0 1.08 0.8 0 1.12 0.8 0 1.16 0.8 0 1.2 0.8 0 0 0.84 0 0.04 0.84 0 0.08 0.84 0 0.12 0.84 0 0.16 0.84 0 0.2 0.84 0 0.24 0.84 0 0.28 0.84 0 0.32 0.84 0 0.36 0.84 0 0.4 0.84 0 0.44 0.84 0 0.48 0.84 0 0.52 0.84 0 0.56 0.84 0 0.6 0.84 0 0.64 0.84 0 0.68 0.84 0 0.72 0.84 0 0.76 0.84 0 0.8 0.84 0 0.84 0.84 0 0.88 0.84 0 0.92 0.84 0 0.96 0.84 0 1 0.84 0 1.04 0.84 0 1.08 0.84 0 1.12 0.84 0 1.16 0.84 0 1.2 0.84 0 0 0.88 0 0.04 0.88 0 0.08 0.88 0 0.12 0.88 0 0.16 0.88 0 0.2 0.88 0 0.24 0.88 0 0.28 0.88 0 0.32 0.88 0 0.36 0.88 0 0.4 0.88 0 0.44 0.88 0 0.48 0.88 0 0.52 0.88 0 0.56 0.88 0 0.6 0.88 0 0.64 0.88 0 0.68 0.88 0 0.72 0.88 0 0.76 0.88 0 0.8 0.88 0 0.84 0.88 0 0.88 0.88 0 0.92 0.88 0 0.96 0.88 0 1 0.88 0 1.04 0.88 0 1.08 0.88 0 1.12 0.88 0 1.16 0.88 0 1.2 0.88 0 0 0.92 0 0.04 0.92 0 0.08 0.92 0 0.12 0.92 0 0.16 0.92 0 0.2 0.92 0 0.24 0.92 0 0.28 0.92 0 0.32 0.92 0 0.36 0.92 0 0.4 0.92 0 0.44 0.92 0 0.48 0.92 0 0.52 0.92 0 0.56 0.92 0 0.6 0.92 0 0.64 0.92 0 0.68 0.92 0 0.72 0.92 0 0.76 0.92 0 0.8 0.92 0 0.84 0.92 0 0.88 0.92 0 0.92 0.92 0 0.96 0.92 0 1 0.92 0 1.04 0.92 0 1.08 0.92 0 1.12 0.92 0 1.16 0.92 0 1.2 0.92 0 0 0.96 0 0.04 0.96 0 0.08 0.96 0 0.12 0.96 0 0.16 0.96 0 0.2 0.96 0 0.24 0.96 0 0.28 0.96 0 0.32 0.96 0 0.36 0.96 0 0.4 0.96 0 0.44 0.96 0 0.48 0.96 0 0.52 0.96 0 0.56 0.96 0 0.6 0.96 0 0.64 0.96 0 0.68 0.96 0 0.72 0.96 0 0.76 0.96 0 0.8 0.96 0 0.84 0.96 0 0.88 0.96 0 0.92 0.96 0 0.96 0.96 0 1 0.96 0 1.04 0.96 0 1.08 0.96 0 1.12 0.96 0 1.16 0.96 0 1.2 0.96 0 0 1 0 0.04 1 0 0.08 1 0 0.12 1 0 0.16 1 0 0.2 1 0 0.24 1 0 0.28 1 0 0.32 1 0 0.36 1 0 0.4 1 0 0.44 1 0 0.48 1 0 0.52 1 0 0.56 1 0 0.6 1 0 0.64 1 0 0.68 1 0 0.72 1 0 0.76 1 0 0.8 1 0 0.84 1 0 0.88 1 0 0.92 1 0 0.96 1 0 1 1 0 1.04 1 0 1.08 1 0 1.12 1 0 1.16 1 0 1.2 1 0 0 1.04 0 0.04 1.04 0 0.08 1.04 0 0.12 1.04 0 0.16 1.04 0 0.2 1.04 0 0.24 1.04 0 0.28 1.04 0 0.32 1.04 0 0.36 1.04 0 0.4 1.04 0 0.44 1.04 0 0.48 1.04 0 0.52 1.04 0 0.56 1.04 0 0.6 1.04 0 0.64 1.04 0 0.68 1.04 0 0.72 1.04 0 0.76 1.04 0 0.8 1.04 0 0.84 1.04 0 0.88 1.04 0 0.92 1.04 0 0.96 1.04 0 1 1.04 0 1.04 1.04 0 1.08 1.04 0 1.12 1.04 0 1.16 1.04 0 1.2 1.04 0 0 1.08 0 0.04 1.08 0 0.08 1.08 0 0.12 1.08 0 0.16 1.08 0 0.2 1.08 0 0.24 1.08 0 0.28 1.08 0 0.32 1.08 0 0.36 1.08 0 0.4 1.08 0 0.44 1.08 0 0.48 1.08 0 0.52 1.08 0 0.56 1.08 0 0.6 1.08 0 0.64 1.08 0 0.68 1.08 0 0.72 1.08 0 0.76 1.08 0 0.8 1.08 0 0.84 1.08 0 0.88 1.08 0 0.92 1.08 0 0.96 1.08 0 1 1.08 0 1.04 1.08 0 1.08 1.08 0 1.12 1.08 0 1.16 1.08 0 1.2 1.08 0 0 1.12 0 
[...]
			<PointData Scalars="VitesseX">
				<DataArray Name="VitesseX" type="Float32" format="ascii">
 0 -0.0719595 -0.141662 -0.137306 -0.0820002 0.0211144 0.140347 0.248718 0.316649 0.333271 0.307801 0.262443 0.209499 0.16058 0.122292 0.0949768 0.0750875 0.051751 -0.140179 -0.538081 -0.838547 -0.916019 -0.809425 -0.709623 -0.612325 -0.514444 -0.415625 -0.315499 -0.214179 -0.108587 0 0 0.0528153 0.0107335 -0.0151994 0.0180236 0.0825349 0.170915 0.257143 0.311806 0.317945 0.289114 0.243043 0.195093 0.152693 0.119055 0.0945582 0.0757917 0.0530197 -0.134136 -0.530397 -0.834218 -0.915101 -0.809775 -0.70995 -0.612757 -0.514976 -0.416206 -0.316053 -0.214526 -0.108548 0 0 0.0267121 0.0509437 0.0361149 0.0333803 0.0491755 0.0729095 0.109097 0.150314 0.177959 0.181449 0.167438 0.144777 0.121081 0.101129 0.0855294 0.0722023 0.0527671 -0.119021 -0.508839 -0.821224 -0.911683 -0.810324 -0.710215 -0.613083 -0.515392 -0.416739 -0.316679 -0.214987 -0.108618 0 0 -0.0331315 -0.0546044 -0.0635396 -0.075553 -0.0781528 -0.0717682 -0.0558005 -0.0324534 -0.00452937 0.0277189 0.0518481 0.0655686 0.0696767 0.0689456 0.0664156 0.0614372 0.0479025 -0.0993755 -0.475903 -0.799732 -0.905235 -0.811849 -0.711111 -0.613936 -0.516264 -0.41772 -0.317858 -0.216185 -0.109399 0 0 -0.0812088 -0.128153 -0.155309 -0.171188 -0.182968 -0.186961 -0.18303 -0.162587 -0.126002 -0.0867216 -0.0467553 -0.0133232 0.012473 0.0296771 0.0396358 0.0430745 0.0361476 -0.0798938 -0.434354 -0.769074 -0.893959 -0.815058 -0.712939 -0.615583 -0.517859 -0.41936 -0.319684 -0.218134 -0.110956 0 0 -0.109861 -0.180274 -0.217193 -0.242952 -0.260953 -0.271289 -0.273677 -0.254693 -0.214228 -0.166912 -0.120144 -0.0758004 -0.0386042 -0.0105676 0.00764875 0.0180671 0.0168984 -0.0656197 -0.387032 -0.727938 -0.875541 -0.8204 -0.715817 -0.618043 -0.520159 -0.421554 -0.321912 -0.220426 -0.112799 0 0 -0.122438 -0.200374 -0.244571 -0.278178 -0.304373 -0.322157 -0.329734 -0.32156 -0.282821 -0.2279 -0.174511 -0.125609 -0.0828429 -0.0499709 -0.0268162 -0.0126154 -0.00973955 -0.0615785 -0.336012 -0.674971 -0.847294 -0.827794 -0.719809 -0.621249 -0.523011 -0.424088 -0.324233 -0.222575 -0.114392 0 0 -0.11063 -0.193613 -0.247077 -0.286165 -0.317261 -0.343292 -0.359972 -0.363688 -0.343347 -0.289454 -0.227449 -0.172522 -0.126365 -0.0894742 -0.0636185 -0.0474003 -0.0420433 -0.0700467 -0.284743 -0.610116 -0.808303 -0.83385 -0.725075 -0.625129 -0.526239 -0.426807 -0.326552 -0.22443 -0.115262 0 0 -0.0765936 -0.142241 -0.194482 -0.243156 -0.295624 -0.34041 -0.371447 -0.388033 -0.387718 -0.359196 -0.296957 -0.231469 -0.176812 -0.134142 -0.103466 -0.0847885 -0.0769264 -0.0913634 -0.239432 -0.535786 -0.762476 -0.828265 -0.731508 -0.629641 -0.529716 -0.429662 -0.328891 -0.22617 -0.115869 0 0 -0.0279077 -0.0626165 -0.107765 -0.15694 -0.218744 -0.29414 -0.359951 -0.400151 -0.417859 -0.413413 -0.378838 -0.311098 -0.243145 -0.189309 -0.149908 -0.125271 -0.114414 -0.122985 -0.208285 -0.459135 -0.703218 -0.804428 -0.740246 -0.634717 -0.533539 -0.432663 -0.331255 -0.227883 -0.116612 0 0 0.00998605 0.00642133 -0.0286472 -0.0846855 -0.149309 -0.225355 -0.315084 -0.391977 -0.436879 -0.455111 -0.446711 -0.405611 -0.331126 -0.260458 -0.208156 -0.172601 -0.155412 -0.158623 -0.199249 -0.385875 -0.626716 -0.758762 -0.749336 -0.6408 -0.537839 -0.435821 -0.333705 -0.229859 -0.117715 0 0 0.0282209 0.0422747 0.0192416 -0.0334661 -0.100017 -0.174638 -0.260231 -0.357046 -0.437439 -0.484338 -0.502021 -0.48948 -0.440346 -0.356823 -0.283258 -0.232988 -0.20259 -0.194399 -0.21512 -0.323807 -0.536386 -0.697783 -0.744669 -0.647901 -0.542741 -0.439377 -0.336447 -0.232333 -0.119134 0 0 0.0320733 0.0488975 0.035169 -0.0094643 -0.0723241 -0.145106 -0.222776 -0.310707 -0.409877 -0.491542 -0.539581 -0.55694 -0.540893 -0.4812 -0.386537 -0.310447 -0.262145 -0.236393 -0.242555 -0.285195 -0.445931 -0.623752 -0.710075 -0.657021 -0.548757 -0.443803 -0.339874 -0.235523 -0.121415 0 0 0.026837 0.0400865 0.028767 -0.00921875 -0.0666815 -0.132497 -0.202268 -0.275921 -0.36151 -0.461997 -0.547952 -0.598128 -0.615845 -0.597645 -0.524354 -0.41696 -0.338135 -0.292924 -0.273693 -0.282976 -0.367003 -0.532365 -0.646362 -0.661634 -0.556119 -0.449472 -0.344325 -0.239413 -0.124569 0 0 0.0142628 0.0183384 0.00412981 -0.0307259 -0.0796943 -0.135121 -0.19203 -0.25216 -0.318415 -0.398733 -0.502394 -0.600688 -0.657142 -0.675296 -0.654065 -0.563497 -0.444446 -0.364019 -0.316154 -0.302996 -0.313465 -0.432845 -0.569929 -0.635367 -0.564937 -0.456315 -0.349658 -0.243686 -0.127781 0 0 -0.00186454 -0.0106247 -0.0313307 -0.0656332 -0.108138 -0.150289 -0.190259 -0.231986 -0.281059 -0.340627 -0.415943 -0.522839 -0.640472 -0.71066 -0.730512 -0.70358 -0.592221 -0.461292 -0.379727 -0.328173 -0.30606 -0.343852 -0.476228 -0.571942 -0.571368 -0.463719 -0.355349 -0.247775 -0.130378 0 0 -0.0201847 -0.0419164 -0.0691544 -0.101831 -0.135775 -0.16619 -0.191242 -0.214533 -0.24374 -0.28501 -0.341681 -0.4155 -0.523563 -0.661526 -0.753555 -0.7757 -0.736543 -0.605159 -0.463628 -0.374484 -0.322009 -0.290795 -0.371864 -0.489996 -0.548269 -0.471065 -0.361044 -0.251485 -0.13226 0 0 -0.0388781 -0.0730095 -0.0996425 -0.122981 -0.143411 -0.160623 -0.174902 -0.188475 -0.205145 -0.231573 -0.271628 -0.328577 -0.403526 -0.510072 -0.660451 -0.777669 -0.807078 -0.744523 -0.595707 -0.447433 -0.345974 -0.288823 -0.280658 -0.392809 -0.484772 -0.476206 -0.366464 -0.254984 -0.133951 0 0 -0.0462116 -0.0804857 -0.0978565 -0.105659 -0.11101 -0.116572 -0.125024 -0.13721 -0.154255 -0.177138 -0.207744 -0.249377 -0.305005 -0.379806 -0.482759 -0.633727 -0.768672 -0.809685 -0.719903 -0.556576 -0.406245 -0.303033 -0.235358 -0.286984 -0.397612 -0.453969 -0.371045 -0.258791 -0.136005 0 0 -0.0273228 -0.0474985 -0.0537081 -0.0513263 -0.0476358 -0.0468745 -0.051374 -0.0642164 -0.0864305 -0.115179 -0.145512 -0.176611 -0.219432 -0.272682 -0.341974 -0.44016 -0.58223 -0.722037 -0.775441 -0.662936 -0.492425 -0.339393 -0.240549 -0.197905 -0.297071 -0.389851 -0.374174 -0.262823 -0.138947 0 0 -0.00276335 -0.00835243 -8.23424e-05 0.00656877 0.0145421 0.0229571 0.0255371 0.0174738 -0.0014512 -0.0294262 -0.0653367 -0.106192 -0.141137 -0.175753 -0.226728 -0.291174 -0.379821 -0.508678 -0.64395 -0.701388 -0.573954 -0.408465 -0.264699 -0.161513 -0.188268 -0.29612 -0.352062 -0.267377 -0.142729 0 0 0.00766958 0.0122101 0.0282329 0.036864 0.0553525 0.0782784 0.0940047 0.0959323 0.0851442 0.0627094 0.0325376 -0.00185602 -0.0412966 -0.0863849 -0.125751 -0.166263 -0.227065 -0.30547 -0.41825 -0.535311 -0.590361 -0.466993 -0.306739 -0.179398 -0.0992803 -0.187788 -0.285729 -0.268213 -0.147181 0 0 -0.00432489 0.0193635 0.0318994 0.0422408 0.0740914 0.110783 0.132454 0.140046 0.139823 0.134902 0.126349 0.109143 0.0769325 0.0355734 -0.0088285 -0.0584854 -0.103807 -0.151381 -0.222467 -0.314402 -0.406324 -0.447948 -0.34547 -0.20338 -0.0736942 -0.0743763 -0.183685 -0.244702 -0.152072 0 0 -0.0139475 0.0196282 0.0168546 0.0363281 0.0793674 0.119837 0.138496 0.148079 0.157955 0.168098 0.18026 0.187123 0.177962 0.158829 0.124019 0.0764496 0.0252779 -0.0294437 -0.0760086 -0.12951 -0.207168 -0.27299 -0.286456 -0.20481 -0.094031 0.00881358 -0.0633108 -0.17332 -0.153082 0 0 -0.0159339 0.0084196 0.00300865 0.0322036 0.0784089 0.10748 0.118056 0.126813 0.14317 0.167041 0.19339 0.216742 0.230476 0.239205 0.230543 0.205255 0.167666 0.118219 0.060498 0.00587633 -0.0498604 -0.0939585 -0.131752 -0.120792 -0.0783348 0.0389162 0.0477596 -0.0584374 -0.12936 0 0 -0.0146201 -0.00937837 -0.00817177 0.0249794 0.0679901 0.0885734 0.094804 0.105283 0.124923 0.150969 0.17984 0.209738 0.239365 0.264391 0.279213 0.28327 0.277993 0.251849 0.212713 0.16019 0.0977246 0.037784 -0.00951693 -0.00313595 0.0349919 0.0734329 0.130364 0.0619008 -0.0563608 0 0 -0.0182185 -0.0296962 -0.0205616 0.0128348 0.0490121 0.0614097 0.067201 0.0819676 0.105786 0.133984 0.162841 0.191283 0.218502 0.245976 0.27436 0.302007 0.322461 0.326401 0.323614 0.298037 0.257376 0.200644 0.126819 0.0808125 0.0930493 0.152694 0.177103 0.172249 0.0327513 0 0 -0.0296542 -0.0522891 -0.0283386 0.00203024 0.0232334 0.0266534 0.0332585 0.0518521 0.0776493 0.105596 0.133102 0.15997 0.186822 0.214053 0.24181 0.27051 0.300492 0.331677 0.359139 0.368964 0.364662 0.339751 0.298088 0.230931 0.166716 0.161655 0.191482 0.174638 0.132405 0 0 -0.0584945 -0.0767044 -0.0310585 -0.00649582 0.000936872 -0.00307437 0.000758707 0.0148977 0.0358971 0.0591763 0.0828117 0.106556 0.131103 0.157091 0.184751 0.21367 0.243092 0.273185 0.304357 0.337341 0.37212 0.392238 0.397924 0.380091 0.335073 0.25499 0.177617 0.140967 0.0594696 0 0 -0.187481 -0.0653773 -0.0288254 -0.0113961 -0.010605 -0.0190173 -0.0181463 -0.00877848 0.00238117 0.0144615 0.0265978 0.0384701 0.0508991 0.0653683 0.0826066 0.102259 0.123675 0.146367 0.17096 0.198499 0.230049 0.26618 0.307916 0.343263 0.376906 0.400208 0.34396 0.224121 0.139942 0 0 0 0 0 0 0 0 0 0 0 0 0 0 0 0 0 0 0 0 0 0 0 0 0 0 0 0 0 0 0 0
				</DataArray>
				<DataArray Name="VitesseY" type="Float32" format="ascii">
 0 0 0 0 0 0 0 0 0 0 0 0 0 0 0 0 0 0 0 0 0 0 0 0 0 0 0 0 0 0 0 -0.0684239 0.0536011 0.0242154 -0.0366623 -0.0859348 -0.115806 -0.125957 -0.102723 -0.0538808 -0.00296302 0.0229798 0.0336206 0.0316691 0.0227472 0.0100155 -0.0010624 -0.00826943 -0.0101124 -0.00337529 0.00953967 0.0198169 0.0242711 0.023411 0.0212327 0.0189375 0.0161544 0.0126864 0.00850514 0.00474378 0.0018116 0 -0.140338 0.0120061 0.0497003 -0.0553168 -0.131789 -0.184279 -0.203639 -0.181454 -0.104991 -0.0196828 0.0307357 0.0511222 0.0491763 0.034467 0.0128714 -0.00624376 -0.0183351 -0.0205452 -0.00728782 0.0177851 0.038593 0.0481307 0.0469389 0.0425659 0.0381249 0.0327777 0.026051 0.0174266 0.00930128 0.00321309 0 -0.140459 -0.0155021 0.0405069 -0.0564083 -0.149996 -0.213359 -0.238766 -0.232579 -0.152504 -0.0618794 0.00277925 0.034073 0.0395392 0.0268307 0.00237969 -0.0194997 -0.0331233 -0.0334606 -0.0135257 0.0229377 0.0551061 0.0708042 0.0704548 0.0639717 0.0576655 0.0499362 0.040134 0.0270729 0.0139049 0.00426508 0 -0.0917959 0.0160218 0.0433149 -0.057215 -0.155466 -0.227682 -0.261049 -0.264405 -0.198688 -0.114516 -0.0506793 -0.0115394 0.00231438 -0.0026544 -0.0232625 -0.0426707 -0.0542339 -0.0512413 -0.0244505 0.0230667 0.0681337 0.0916225 0.0937207 0.0852986 0.0773922 0.0675115 0.0548996 0.0377712 0.0190919 0.0053641 0 0.00552074 0.0755346 0.0670192 -0.0510125 -0.154253 -0.233403 -0.27531 -0.286032 -0.250843 -0.173859 -0.112582 -0.0714164 -0.0512797 -0.0487913 -0.0607078 -0.0745081 -0.0820054 -0.0748356 -0.0415221 0.016839 0.0766159 0.110267 0.116291 0.106354 0.0971231 0.0854469 0.0704225 0.0498616 0.0255646 0.00710333 0 0.119435 0.159557 0.0971113 -0.0342249 -0.145991 -0.231834 -0.283188 -0.30262 -0.295892 -0.242554 -0.180843 -0.138371 -0.113213 -0.103404 -0.105154 -0.112146 -0.114707 -0.103108 -0.0648815 0.00339276 0.0790897 0.125601 0.137474 0.127201 0.116912 0.103815 0.0867828 0.0634707 0.0336537 0.00972759 0 0.230696 0.246983 0.136338 -0.010118 -0.131787 -0.223216 -0.282479 -0.313619 -0.323897 -0.308264 -0.258722 -0.210937 -0.180016 -0.161902 -0.154207 -0.152424 -0.149768 -0.133676 -0.0941702 -0.0181416 0.0720754 0.13336 0.155168 0.148265 0.136742 0.122586 0.103941 0.0782606 0.043017 0.0129225 0 0.313029 0.317517 0.180148 0.0174182 -0.10603 -0.19994 -0.269538 -0.313433 -0.338478 -0.349029 -0.335224 -0.293749 -0.25307 -0.225791 -0.20722 -0.195414 -0.185476 -0.165883 -0.127831 -0.0478355 0.0520377 0.130659 0.16752 0.170184 0.156527 0.141785 0.12182 0.0939118 0.0533898 0.0162947 0 0.352089 0.348582 0.215108 0.0454182 -0.0707304 -0.155627 -0.228345 -0.292514 -0.337303 -0.367684 -0.384408 -0.376476 -0.338972 -0.298386 -0.267912 -0.243363 -0.222821 -0.199709 -0.16157 -0.0846014 0.0212838 0.121423 0.178104 0.190884 0.176336 0.161683 0.140518 0.110484 0.0651145 0.0203917 0 0.346529 0.33752 0.229945 0.0761921 -0.0310643 -0.103681 -0.163713 -0.23643 -0.311174 -0.366054 -0.407289 -0.43166 -0.427948 -0.387501 -0.339567 -0.30086 -0.266038 -0.233459 -0.192439 -0.125332 -0.0158745 0.102363 0.180792 0.207765 0.19796 0.182368 0.160215 0.128408 0.0788759 0.0262344 0 0.311907 0.299226 0.222954 0.10635 0.0124685 -0.051163 -0.100634 -0.159245 -0.249635 -0.337307 -0.405914 -0.458924 -0.489483 -0.484981 -0.431914 -0.370881 -0.320175 -0.27206 -0.222803 -0.164465 -0.0582581 0.067267 0.167437 0.215564 0.221271 0.203424 0.181157 0.14808 0.0951047 0.0338769 0 0.26353 0.252058 0.203991 0.126703 0.0539405 0.00124404 -0.0410833 -0.0908149 -0.168528 -0.273969 -0.375777 -0.458377 -0.520378 -0.554138 -0.540933 -0.465313 -0.388388 -0.322554 -0.26052 -0.195481 -0.104862 0.0210248 0.14459 0.220086 0.241967 0.225521 0.203551 0.169486 0.113918 0.0427877 0 0.212911 0.207843 0.182133 0.137493 0.0895156 0.0497747 0.0129781 -0.0331509 -0.100074 -0.192944 -0.309758 -0.425388 -0.520606 -0.586962 -0.619866 -0.58764 -0.483202 -0.390128 -0.307926 -0.227862 -0.149668 -0.0284556 0.107202 0.209748 0.254077 0.249894 0.226919 0.192595 0.135401 0.0533687 0 0.170614 0.171738 0.163563 0.144079 0.118233 0.0900825 0.0568974 0.0131254 -0.0484957 -0.128259 -0.228811 -0.351611 -0.48024 -0.586858 -0.653134 -0.680189 -0.618091 -0.483027 -0.372872 -0.276489 -0.183976 -0.0796484 0.0555306 0.181856 0.255325 0.273936 0.251206 0.217495 0.159589 0.0667884 0 0.141952 0.147829 0.151922 0.150465 0.141003 0.119338 0.0864636 0.042527 -0.0130902 -0.084512 -0.168301 -0.267954 -0.393007 -0.532294 -0.650336 -0.713159 -0.728181 -0.624528 -0.464844 -0.338872 -0.227761 -0.128554 0.00100377 0.141623 0.247132 0.290212 0.277278 0.243961 0.186234 0.0834705 0 0.129002 0.136826 0.14758 0.157395 0.156817 0.136945 0.0997311 0.0536896 0.00144626 -0.0589127 -0.129916 -0.210047 -0.304469 -0.42732 -0.575238 -0.701971 -0.763629 -0.753314 -0.606081 -0.428272 -0.289929 -0.168405 -0.0548448 0.0876846 0.217947 0.290559 0.304397 0.271884 0.214582 0.10283 0 0.130204 0.13832 0.146352 0.158445 0.160441 0.138728 0.0978107 0.0485598 -0.00141362 -0.0533533 -0.109372 -0.173114 -0.246947 -0.334734 -0.45171 -0.603738 -0.735936 -0.795925 -0.74683 -0.562895 -0.373179 -0.226142 -0.106712 0.0302768 0.176373 0.285409 0.326206 0.301295 0.243687 0.124077 0 0.122186 0.130725 0.129037 0.137387 0.138506 0.116952 0.0759698 0.0281341 -0.018113 -0.06243 -0.106959 -0.156311 -0.211585 -0.277916 -0.357255 -0.465819 -0.612662 -0.744645 -0.799498 -0.704908 -0.496759 -0.303011 -0.152307 -0.029416 0.123051 0.258056 0.330296 0.332034 0.273619 0.146648 0 -0.0828024 -0.0645262 -0.0770527 -0.0542572 -0.025541 -0.0230962 -0.0407954 -0.0617293 -0.0791988 -0.100233 -0.129702 -0.164656 -0.202796 -0.246297 -0.302103 -0.372038 -0.464309 -0.600549 -0.720532 -0.767735 -0.633399 -0.412094 -0.221621 -0.0787197 0.0619858 0.216666 0.326853 0.360232 0.304669 0.171159 0 -0.47639 -0.444745 -0.461638 -0.432572 -0.39567 -0.375381 -0.362208 -0.340358 -0.307666 -0.271709 -0.239946 -0.222407 -0.226906 -0.249394 -0.279023 -0.313501 -0.369404 -0.44593 -0.558875 -0.662838 -0.695404 -0.529464 -0.313489 -0.131856 0.00380836 0.161747 0.300932 0.370775 0.337484 0.198639 0 -0.765732 -0.725803 -0.731515 -0.706504 -0.69406 -0.684166 -0.663567 -0.628673 -0.583648 -0.530549 -0.470735 -0.410335 -0.351834 -0.304562 -0.281628 -0.291442 -0.310838 -0.34127 -0.40582 -0.49278 -0.574305 -0.587659 -0.40447 -0.207308 -0.0523865 0.0972881 0.258965 0.366222 0.37234 0.230168 0 -0.833352 -0.79349 -0.787888 -0.770452 -0.782033 -0.784574 -0.772427 -0.751058 -0.725075 -0.695078 -0.660973 -0.611965 -0.545596 -0.465053 -0.383464 -0.313585 -0.278819 -0.28405 -0.29924 -0.338896 -0.408199 -0.46578 -0.446799 -0.274153 -0.0968455 0.0358831 0.200954 0.340876 0.392898 0.266259 0 -0.691068 -0.676854 -0.672761 -0.665388 -0.680274 -0.683797 -0.684229 -0.691869 -0.707932 -0.724449 -0.726666 -0.707974 -0.665888 -0.608256 -0.534559 -0.443923 -0.347165 -0.267655 -0.232452 -0.23964 -0.263204 -0.306658 -0.345191 -0.286865 -0.132849 -0.0118769 0.125805 0.298576 0.398387 0.307994 0 -0.551783 -0.569219 -0.565486 -0.56479 -0.579332 -0.582824 -0.587414 -0.59929 -0.61551 -0.631507 -0.645917 -0.659008 -0.66827 -0.658992 -0.620022 -0.552738 -0.472642 -0.376788 -0.274297 -0.192124 -0.161315 -0.180058 -0.202484 -0.204219 -0.121838 -0.00493757 0.0790592 0.2308 0.380339 0.343461 0 -0.403651 -0.465392 -0.458227 -0.465512 -0.482527 -0.488184 -0.497432 -0.511938 -0.527519 -0.539 -0.546687 -0.552412 -0.55863 -0.56578 -0.574271 -0.575007 -0.542576 -0.474184 -0.388073 -0.288591 -0.18188 -0.0966687 -0.0742261 -0.0938287 -0.0778555 0.0341695 0.0916186 0.165895 0.335119 0.376994 0 -0.250257 -0.36173 -0.348057 -0.367064 -0.388482 -0.39624 -0.409805 -0.42505 -0.437115 -0.443955 -0.447236 -0.449358 -0.45214 -0.45639 -0.462099 -0.468538 -0.475717 -0.478917 -0.451666 -0.384257 -0.290716 -0.183354 -0.0712794 0.00974779 0.0389475 0.0732517 0.152056 0.160928 0.25474 0.40025 0 -0.0939837 -0.246053 -0.245565 -0.272813 -0.295321 -0.304595 -0.320393 -0.333934 -0.34044 -0.343197 -0.344109 -0.344944 -0.346576 -0.349505 -0.353658 -0.358523 -0.363674 -0.368654 -0.373145 -0.375596 -0.351243 -0.283051 -0.180923 -0.0611556 0.0489664 0.130761 0.177064 0.191225 0.177347 0.343922 0 0.0897069 -0.122698 -0.161545 -0.183571 -0.19692 -0.207613 -0.225462 -0.234818 -0.238511 -0.239117 -0.238895 -0.239183 -0.240517 -0.242981 -0.246225 -0.24968 -0.252952 -0.256169 -0.259793 -0.263701 -0.268165 -0.268828 -0.244414 -0.172257 -0.0573233 0.0626925 0.17263 0.174616 0.140875 0.224062 0 0.425291 -0.035111 -0.111052 -0.091409 -0.0964132 -0.108475 -0.117554 -0.12197 -0.124819 -0.123876 -0.123209 -0.123026 -0.123956 -0.126188 -0.128852 -0.131103 -0.132776 -0.13432 -0.136271 -0.139144 -0.142895 -0.147323 -0.152201 -0.153185 -0.129214 -0.0560179 0.0330744 0.132524 0.0594761 0.139918 0 3.2684 0 0 0 0 0 0 0 0 0 0 0 0 0 0 0 0 0 0 0 0 0 0 0 0 0 0 0 0 0 0
				</DataArray>
			</PointData>
			<CellData Scalars="Density">
				<DataArray Name="Density" type="Float32" format="ascii">