<?xml version="1.0"?>
<VTKFile type="PolyData">
	<PolyData>
		<Piece NumberOfPoints="961" NumberOfPolys="900">
			<Points>
				<DataArray type="Float32" NumberOfComponents="3" format="ascii">
 0 0 0 0.04 0 0 0.08 0 0 0.12 0 0 0.16 0 0 0.2 0 0 0.24 0 0 0.28 0 0 0.32 0 0 0.36 0 0 0.4 0 0 0.44 0 0 0.48 0 0 0.52 0 0 0.56 0 0 0.6 0 0 0.64 0 0 0.68 0 0 0.72 0 0 0.76 0 0 0.8 0 0 0.84 0 0 0.88 0 0 0.92 0 0 0.96 0 0 1 0 0 1.04 0 0 1.08 0 0 1.12 0 0 1.16 0 0 1.2 0 0 0 0.04 0 0.04 0.04 0 0.08 0.04 0 0.12 0.04 0 0.16 0.04 0 0.2 0.04 0 0.24 0.04 0 0.28 0.04 0 0.32 0.04 0 0.36 0.04 0 0.4 0.04 0 0.44 0.04 0 0.48 0.04 0 0.52 0.04 0 0.56 0.04 0 0.6 0.04 0 0.64 0.04 0 0.68 0.04 0 0.72 0.04 0 0.76 0.04 0 0.8 0.04 0 0.84 0.04 0 0.88 0.04 0 0.92 0.04 0 0.96 0.04 0 1 0.04 0 1.04 0.04 0 1.08 0.04 0 1.12 0.04 0 1.16 0.04 0 1.2 0.04 0 0 0.08 0 0.04 0.08 0 0.08 0.08 0 0.12 0.08 0 0.16 0.08 0 0.2 0.08 0 0.24 0.08 0 0.28 0.08 0 0.32 0.08 0 0.36 0.08 0 0.4 0.08 0 0.44 0.08 0 0.48 0.08 0 0.52 0.08 0 0.56 0.08 0 0.6 0.08 0 0.64 0.08 0 0.68 0.08 0 0.72 0.08 0 0.76 0.08 0 0.8 0.08 0 0.84 0.08 0 0.88 0.08 0 0.92 0.08 0 0.96 0.08 0 1 0.08 0 1.04 0.08 0 1.08 0.08 0 1.12 0.08 0 1.16 0.08 0 1.2 0.08 0 0 0.12 0 0.04 0.12 0 0.08 0.12 0 0.12 0.12 0 0.16 0.12 0 0.2 0.12 0 0.24 0.12 0 0.28 0.12 0 0.32 0.12 0 0.36 0.12 0 0.4 0.12 0 0.44 0.12 0 0.48 0.12 0 0.52 0.12 0 0.56 0.12 0 0.6 0.12 0 0.64 0.12 0 0.68 0.12 0 0.72 0.12 0 0.76 0.12 0 0.8 0.12 0 0.84 0.12 0 0.88 0.12 0 0.92 0.12 0 0.96 0.12 0 1 0.12 0 1.04 0.12 0 1.08 0.12 0 1.12 0.12 0 1.16 0.12 0 1.2 0.12 0 0 0.16 0 0.04 0.16 0 0.08 0.16 0 0.12 0.16 0 0.16 0.16 0 0.2 0.16 0 0.24 0.16 0 0.28 0.16 0 0.32 0.16 0 0.36 0.16 0 0.4 0.16 0 0.44 0.16 0 0.48 0.16 0 0.52 0.16 0 0.56 0.16 0 0.6 0.16 0 0.64 0.16 0 0.68 0.16 0 0.72 0.16 0 0.76 0.16 0 0.8 0.16 0 0.84 0.16 0 0.88 0.16 0 0.92 0.16 0 0.96 0.16 0 1 0.16 0 1.04 0.16 0 1.08 0.16 0 1.12 0.16 0 1.16 0.16 0 1.2 0.16 0 0 0.2 0 0.04 0.2 0 0.08 0.2 0 0.12 0.2 0 0.16 0.2 0 0.2 0.2 0 0.24 0.2 0 0.28 0.2 0 0.32 0.2 0 0.36 0.2 0 0.4 0.2 0 0.44 0.2 0 0.48 0.2 0 0.52 0.2 0 0.56 0.2 0 0.6 0.2 0 0.64 0.2 0 0.68 0.2 0 0.72 0.2 0 0.76 0.2 0 0.8 0.2 0 0.84 0.2 0 0.88 0.2 0 0.92 0.2 0 0.96 0.2 0 1 0.2 0 1.04 0.2 0 1.08 0.2 0 1.12 0.2 0 1.16 0.2 0 1.2 0.2 0 0 0.24 0 0.04 0.24 0 0.08 0.24 0 0.12 0.24 0 0.16 0.24 0 0.2 0.24 0 0.24 0.24 0 0.28 0.24 0 0.32 0.24 0 0.36 0.24 0 0.4 0.24 0 0.44 0.24 0 0.48 0.24 0 0.52 0.24 0 0.56 0.24 0 0.6 0.24 0 0.64 0.24 0 0.68 0.24 0 0.72 0.24 0 0.76 0.24 0 0.8 0.24 0 0.84 0.24 0 0.88 0.24 0 0.92 0.24 0 0.96 0.24 0 1 0.24 0 1.04 0.24 0 1.08 0.24 0 1.12 0.24 0 1.16 0.24 0 1.2 0.24 0 0 0.28 0 0.04 0.28 0 0.08 0.28 0 0.12 0.28 0 0.16 0.28 0 0.2 0.28 0 0.24 0.28 0 0.28 0.28 0 0.32 0.28 0 0.36 0.28 0 0.4 0.28 0 0.44 0.28 0 0.48 0.28 0 0.52 0.28 0 0.56 0.28 0 0.6 0.28 0 0.64 0.28 0 0.68 0.28 0 0.72 0.28 0 0.76 0.28 0 0.8 0.28 0 0.84 0.28 0 0.88 0.28 0 0.92 0.28 0 0.96 0.28 0 1 0.28 0 1.04 0.28 0 1.08 0.28 0 1.12 0.28 0 1.16 0.28 0 1.2 0.28 0 0 0.32 0 0.04 0.32 0 0.08 0.32 0 0.12 0.32 0 0.16 0.32 0 0.2 0.32 0 0.24 0.32 0 0.28 0.32 0 0.32 0.32 0 0.36 0.32 0 0.4 0.32 0 0.44 0.32 0 0.48 0.32 0 0.52 0.32 0 0.56 0.32 0 0.6 0.32 0 0.64 0.32 0 0.68 0.32 0 0.72 0.32 0 0.76 0.32 0 0.8 0.32 0 0.84 0.32 0 0.88 0.32 0 0.92 0.32 0 0.96 0.32 0 1 0.32 0 1.04 0.32 0 1.08 0.32 0 1.12 0.32 0 1.16 0.32 0 1.2 0.32 0 0 0.36 0 0.04 0.36 0 0.08 0.36 0 0.12 0.36 0 0.16 0.36 0 0.2 0.36 0 0.24 0.36 0 0.28 0.36 0 0.32 0.36 0 0.36 0.36 0 0.4 0.36 0 0.44 0.36 0 0.48 0.36 0 0.52 0.36 0 0.56 0.36 0 0.6 0.36 0 0.64 0.36 0 0.68 0.36 0 0.72 0.36 0 0.76 0.36 0 0.8 0.36 0 0.84 0.36 0 0.88 0.36 0 0.92 0.36 0 0.96 0.36 0 1 0.36 0 1.04 0.36 0 1.08 0.36 0 1.12 0.36 0 1.16 0.36 0 1.2 0.36 0 0 0.4 0 0.04 0.4 0 0.08 0.4 0 0.12 0.4 0 0.16 0.4 0 0.2 0.4 0 0.24 0.4 0 0.28 0.4 0 0.32 0.4 0 0.36 0.4 0 0.4 0.4 0 0.44 0.4 0 0.48 0.4 0 0.52 0.4 0 0.56 0.4 0 0.6 0.4 0 0.64 0.4 0 0.68 0.4 0 0.72 0.4 0 0.76 0.4 0 0.8 0.4 0 0.84 0.4 0 0.88 0.4 0 0.92 0.4 0 0.96 0.4 0 1 0.4 0 1.04 0.4 0 1.08 0.4 0 1.12 0.4 0 1.16 0.4 0 1.2 0.4 0 0 0.44 0 0.04 0.44 0 0.08 0.44 0 0.12 0.44 0 0.16 0.44 0 0.2 0.44 0 0.24 0.44 0 0.28 0.44 0 0.32 0.44 0 0.36 0.44 0 0.4 0.44 0 0.44 0.44 0 0.48 0.44 0 0.52 0.44 0 0.56 0.44 0 0.6 0.44 0 0.64 0.44 0 0.68 0.44 0 0.72 0.44 0 0.76 0.44 0 0.8 0.44 0 0.84 0.44 0 0.88 0.44 0 0.92 0.44 0 0.96 0.44 0 1 0.44 0 1.04 0.44 0 1.08 0.44 0 1.12 0.44 0 1.16 0.44 0 1.2 0.44 0 0 0.48 0 0.04 0.48 0 0.08 0.48 0 0.12 0.48 0 0.16 0.48 0 0.2 0.48 0 0.24 0.48 0 0.28 0.48 0 0.32 0.48 0 0.36 0.48 0 0.4 0.48 0 0.44 0.48 0 0.48 0.48 0 0.52 0.48 0 0.56 0.48 0 0.6 0.48 0 0.64 0.48 0 0.68 0.48 0 0.72 0.48 0 0.76 0.48 0 0.8 0.48 0 0.84 0.48 0 0.88 0.48 0 0.92 0.48 0 0.96 0.48 0 1 0.48 0 1.04 0.48 0 1.08 0.48 0 1.12 0.48 0 1.16 0.48 0 1.2 0.48 0 0 0.52 0 0.04 0.52 0 0.08 0.52 0 0.12 0.52 0 0.16 0.52 0 0.2 0.52 0 0.24 0.52 0 0.28 0.52 0 0.32 0.52 0 0.36 0.52 0 0.4 0.52 0 0.44 0.52 0 0.48 0.52 0 0.52 0.52 0 0.56 0.52 0 0.6 0.52 0 0.64 0.52 0 0.68 0.52 0 0.72 0.52 0 0.76 0.52 0 0.8 0.52 0 0.84 0.52 0 0.88 0.52 0 0.92 0.52 0 0.96 0.52 0 1 0.52 0 1.04 0.52 0 1.08 0.52 0 1.12 0.52 0 1.16 0.52 0 1.2 0.52 0 0 0.56 0 0.04 0.56 0 0.08 0.56 0 0.12 0.56 0 0.16 0.56 0 0.2 0.56 0 0.24 0.56 0 0.28 0.56 0 0.32 0.56 0 0.36 0.56 0 0.4 0.56 0 0.44 0.56 0 0.48 0.56 0 0.52 0.56 0 0.56 0.56 0 0.6 0.56 0 0.64 0.56 0 0.68 0.56 0 0.72 0.56 0 0.76 0.56 0 0.8 0.56 0 0.84 0.56 0 0.88 0.56 0 0.92 0.56 0 0.96 0.56 0 1 0.56 0 1.04 0.56 0 1.08 0.56 0 1.12 0.56 0 1.16 0.56 0 1.2 0.56 0 0 0.6 0 0.04 0.6 0 0.08 0.6 0 0.12 0.6 0 0.16 0.6 0 0.2 0.6 0 0.24 0.6 0 0.28 0.6 0 0.32 0.6 0 0.36 0.6 0 0.4 0.6 0 0.44 0.6 0 0.48 0.6 0 0.52 0.6 0 0.56 0.6 0 0.6 0.6 0 0.64 0.6 0 0.68 0.6 0 0.72 0.6 0 0.76 0.6 0 0.8 0.6 0 0.84 0.6 0 0.88 0.6 0 0.92 0.6 0 0.96 0.6 0 1 0.6 0 1.04 0.6 0 1.08 0.6 0 1.12 0.6 0 1.16 0.6 0 1.2 0.6 0 0 0.64 0 0.04 0.64 0 0.08 0.64 0 0.12 0.64 0 0.16 0.64 0 0.2 0.64 0 0.24 0.64 0 0.28 0.64 0 0.32 0.64 0 0.36 0.64 0 0.4 0.64 0 0.44 0.64 0 0.48 0.64 0 0.52 0.64 0 0.56 0.64 0 0.6 0.64 0 0.64 0.64 0 0.68 0.64 0 0.72 0.64 0 0.76 0.64 0 0.8 0.64 0 0.84 0.64 0 0.88 0.64 0 0.92 0.64 0 0.96 0.64 0 1 0.64 0 1.04 0.64 0 1.08 0.64 0 1.12 0.64 0 1.16 0.64 0 1.2 0.64 0 0 0.68 0 0.04 0.68 0 0.08 0.68 0 0.12 0.68 0 0.16 0.68 0 0.2 0.68 0 0.24 0.68 0 0.28 0.68 0 0.32 0.68 0 0.36 0.68 0 0.4 0.68 0 0.44 0.68 0 0.48 0.68 0 0.52 0.68 0 0.56 0.68 0 0.6 0.68 0 0.64 0.68 0 0.68 0.68 0 0.72 0.68 0 0.76 0.68 0 0.8 0.68 0 0.84 0.68 0 0.88 0.68 0 0.92 0.68 0 0.96 0.68 0 1 0.68 0 1.04 0.68 0 1.08 0.68 0 1.12 0.68 0 1.16 0.68 0 1.2 0.68 0 0 0.72 0 0.04 0.72 0 0.08 0.72 0 0.12 0.72 0 0.16 0.72 0 0.2 0.72 0 0.24 0.72 0 0.28 0.72 0 0.32 0.72 0 0.36 0.72 0 0.4 0.72 0 0.44 0.72 0 0.48 0.72 0 0.52 0.72 0 0.56 0.72 0 0.6 0.72 0 0.64 0.72 0 0.68 0.72 0 0.72 0.72 0 0.76 0.72 0 0.8 0.72 0 0.84 0.72 0 0.88 0.72 0 0.92 0.72 0 0.96 0.72 0 1 0.72 0 1.04 0.72 0 1.08 0.72 0 1.12 0.72 0 1.16 0.72 0 1.2 0.72 0 0 0.76 0 0.04 0.76 0 0.08 0.76 0 0.12 0.76 0 0.16 0.76 0 0.2 0.76 0 0.24 0.76 0 0.28 0.76 0 0.32 0.76 0 0.36 0.76 0 0.4 0.76 0 0.44 0.76 0 0.48 0.76 0 0.52 0.76 0 0.56 0.76 0 0.6 0.76 0 0.64 0.76 0 0.68 0.76 0 0.72 0.76 0 0.76 0.76 0 0.8 0.76 0 0.84 0.76 0 0.88 0.76 0 0.92 0.76 0 0.96 0.76 0 1 0.76 0 1.04 0.76 0 1.08 0.76 0 1.12 0.76 0 1.16 0.76 0 1.2 0.76 0 0 0.8 0 0.04 0.8 0 0.08 0.8 0 0.12 0.8 0 0.16 0.8 0 0.2 0.8 0 0.24 0.8 0 0.28 0.8 0 0.32 0.8 0 0.36 0.8 0 0.4 0.8 0 0.44 0.8 0 0.48 0.8 0 0.52 0.8 0 0.56 0.8 0 0.6 0.8 0 0.64 0.8 0 0.68 0.8 0 0.72 0.8 0 0.76 0.8 0 0.8 0.8 0 0.84 0.8 0 0.88 0.8 0 0.92 0.8 0 0.96 0.8 0 1 0.8 0 1.04 0.8 0 1.08 0.8 0 1.12 0.8 0 1.16 0.8 0 1.2 0.8 0 0 0.84 0 0.04 0.84 0 0.08 0.84 0 0.12 0.84 0 0.16 0.84 0 0.2 0.84 0 0.24 0.84 0 0.28 0.84 0 0.32 0.84 0 0.36 0.84 0 0.4 0.84 0 0.44 0.84 0 0.48 0.84 0 0.52 0.84 0 0.56 0.84 0 0.6 0.84 0 0.64 0.84 0 0.68 0.84 0 0.72 0.84 0 0.76 0.84 0 0.8 0.84 0 0.84 0.84 0 0.88 0.84 0 0.92 0.84 0 0.96 0.84 0 1 0.84 0 1.04 0.84 0 1.08 0.84 0 1.12 0.84 0 1.16 0.84 0 1.2 0.84 0 0 0.88 0 0.04 0.88 0 0.08 0.88 0 0.12 0.88 0 0.16 0.88 0 0.2 0.88 0 0.24 0.88 0 0.28 0.88 0 0.32 0.88 0 0.36 0.88 0 0.4 0.88 0 0.44 0.88 0 0.48 0.88 0 0.52 0.88 0 0.56 0.88 0 0.6 0.88 0 0.64 0.88 0 0.68 0.88 0 0.72 0.88 0 0.76 0.88 0 0.8 0.88 0 0.84 0.88 0 0.88 0.88 0 0.92 0.88 0 0.96 0.88 0 1 0.88 0 1.04 0.88 0 1.08 0.88 0 1.12 0.88 0 1.16 0.88 0 1.2 0.88 0 0 0.92 0 0.04 0.92 0 0.08 0.92 0 0.12 0.92 0 0.16 0.92 0 0.2 0.92 0 0.24 0.92 0 0.28 0.92 0 0.32 0.92 0 0.36 0.92 0 0.4 0.92 0 0.44 0.92 0 0.48 0.92 0 0.52 0.92 0 0.56 0.92 0 0.6 0.92 0 0.64 0.92 0 0.68 0.92 0 0.72 0.92 0 0.76 0.92 0 0.8 0.92 0 0.84 0.92 0 0.88 0.92 0 0.92 0.92 0 0.96 0.92 0 1 0.92 0 1.04 0.92 0 1.08 0.92 0 1.12 0.92 0 1.16 0.92 0 1.2 0.92 0 0 0.96 0 0.04 0.96 0 0.08 0.96 0 0.12 0.96 0 0.16 0.96 0 0.2 0.96 0 0.24 0.96 0 0.28 0.96 0 0.32 0.96 0 0.36 0.96 0 0.4 0.96 0 0.44 0.96 0 0.48 0.96 0 0.52 0.96 0 0.56 0.96 0 0.6 0.96 0 0.64 0.96 0 0.68 0.96 0 0.72 0.96 0 0.76 0.96 0 0.8 0.96 0 0.84 0.96 0 0.88 0.96 0 0.92 0.96 0 0.96 0.96 0 1 0.96 0 1.04 0.96 0 1.08 0.96 0 1.12 0.96 0 1.16 0.96 0 1.2 0.96 0 0 1 0 0.04 1 0 0.08 1 0 0.12 1 0 0.16 1 0 0.2 1 0 0.24 1 0 0.28 1 0 0.32 1 0 0.36 1 0 0.4 1 0 0.44 1 0 0.48 1 0 0.52 1 0 0.56 1 0 0.6 1 0 0.64 1 0 0.68 1 0 0.72 1 0 0.76 1 0 0.8 1 0 0.84 1 0 0.88 1 0 0.92 1 0 0.96 1 0 1 1 0 1.04 1 0 1.08 1 0 1.12 1 0 1.16 1 0 1.2 1 0 0 1.04 0 0.04 1.04 0 0.08 1.04 0 0.12 1.04 0 0.16 1.04 0 0.2 1.04 0 0.24 1.04 0 0.28 1.04 0 0.32 1.04 0 0.36 1.04 0 0.4 1.04 0 0.44 1.04 0 0.48 1.04 0 0.52 1.04 0 0.56 1.04 0 0.6 1.04 0 0.64 1.04 0 0.68 1.04 0 0.72 1.04 0 0.76 1.04 0 0.8 1.04 0 0.84 1.04 0 0.88 1.04 0 0.92 1.04 0 0.96 1.04 0 1 1.04 0 1.04 1.04 0 1.08 1.04 0 1.12 1.04 0 1.16 1.04 0 1.2 1.04 0 0 1.08 0 0.04 1.08 0 0.08 1.08 0 0.12 1.08 0 0.16 1.08 0 0.2 1.08 0 0.24 1.08 0 0.28 1.08 0 0.32 1.08 0 0.36 1.08 0 0.4 1.08 0 0.44 1.08 0 0.48 1.08 0 0.52 1.08 0 0.56 1.08 0 0.6 1.08 0 0.64 1.08 0 0.68 1.08 0 0.72 1.08 0 0.76 1.08 0 0.8 1.08 0 0.84 1.08 0 0.88 1.08 0 0.92 1.08 0 0.96 1.08 0 1 1.08 0 1.04 1.08 0 1.08 1.08 0 1.12 1.08 0 1.16 1.08 0 1.2 1.08 0 0 1.12 0 
[...]
			<PointData Scalars="VitesseX">
				<DataArray Name="VitesseX" type="Float32" format="ascii">
 0 -0.122244 -0.245512 -0.31382 -0.362223 -0.384148 -0.396844 -0.42211 -0.477109 -0.572248 -0.707079 -0.874966 -1.06392 -1.25878 -1.44572 -1.61433 -1.74102 -1.80461 -1.8185 -1.79539 -1.72503 -1.61306 -1.46977 -1.3043 -1.12446 -0.936405 -0.745324 -0.555667 -0.370364 -0.185833 0 0 -0.00308232 -0.0957211 -0.203543 -0.276821 -0.325131 -0.362733 -0.410871 -0.48498 -0.589349 -0.725804 -0.891166 -1.07636 -1.26662 -1.44885 -1.61367 -1.73809 -1.80047 -1.81373 -1.79044 -1.72076 -1.60988 -1.46771 -1.30311 -1.12385 -0.93624 -0.745634 -0.556318 -0.371114 -0.186528 0 0 -0.0113358 -0.0326149 -0.0952188 -0.172984 -0.263998 -0.358909 -0.456226 -0.563811 -0.68722 -0.827016 -0.981732 -1.14696 -1.31542 -1.47775 -1.62597 -1.73964 -1.79611 -1.80626 -1.78164 -1.71337 -1.60488 -1.46491 -1.30189 -1.1235 -0.936353 -0.746032 -0.55691 -0.371757 -0.187441 0 0 -0.0243801 -0.0530982 -0.10384 -0.172254 -0.263752 -0.375195 -0.497932 -0.630269 -0.772881 -0.922243 -1.07376 -1.22347 -1.36726 -1.50298 -1.62886 -1.73075 -1.78196 -1.7896 -1.76484 -1.70058 -1.59699 -1.4612 -1.30118 -1.12456 -0.938172 -0.74795 -0.558662 -0.373008 -0.188435 0 0 -0.0490025 -0.0812744 -0.115355 -0.168078 -0.243363 -0.345883 -0.467188 -0.601817 -0.75086 -0.909483 -1.06966 -1.22338 -1.36511 -1.49199 -1.60427 -1.69744 -1.74857 -1.75756 -1.73593 -1.67922 -1.58407 -1.45528 -1.30032 -1.12672 -0.941642 -0.751622 -0.561979 -0.37523 -0.189572 0 0 -0.0711153 -0.110481 -0.129879 -0.160244 -0.214016 -0.295334 -0.402092 -0.527075 -0.669027 -0.825566 -0.98904 -1.14941 -1.29735 -1.42651 -1.536 -1.62809 -1.68813 -1.70558 -1.6915 -1.64544 -1.56276 -1.44456 -1.29743 -1.1288 -0.946192 -0.756824 -0.566846 -0.378563 -0.191086 0 0 -0.0749375 -0.120092 -0.135495 -0.148048 -0.177153 -0.233494 -0.31866 -0.427413 -0.555143 -0.700353 -0.85703 -1.01639 -1.16859 -1.30534 -1.42201 -1.51956 -1.59456 -1.62941 -1.62789 -1.59538 -1.52861 -1.42546 -1.28979 -1.12888 -0.950686 -0.762982 -0.573061 -0.383145 -0.193153 0 0 -0.0594089 -0.0948257 -0.10648 -0.112386 -0.128561 -0.16318 -0.223947 -0.310792 -0.420228 -0.550158 -0.69612 -0.849957 -1.00255 -1.14518 -1.27105 -1.37735 -1.46483 -1.523 -1.54041 -1.52503 -1.47687 -1.39332 -1.274 -1.12464 -0.953361 -0.769048 -0.580031 -0.389077 -0.195871 0 0 -0.0338781 -0.0512915 -0.0504202 -0.0441574 -0.0467448 -0.067062 -0.109965 -0.17756 -0.268439 -0.3817 -0.514632 -0.660463 -0.810073 -0.955158 -1.08845 -1.20441 -1.3015 -1.37836 -1.4227 -1.429 -1.4029 -1.34255 -1.24556 -1.11294 -0.952314 -0.773464 -0.586685 -0.395944 -0.199138 0 0 -0.00394681 0.000570082 0.0162986 0.0369874 0.0507254 0.0478793 0.0227139 -0.026984 -0.100209 -0.196697 -0.315227 -0.450819 -0.595166 -0.739243 -0.875913 -0.999454 -1.10637 -1.19574 -1.26439 -1.30044 -1.30073 -1.26746 -1.19806 -1.08952 -0.944992 -0.774812 -0.59161 -0.40267 -0.202933 0 0 0.0278399 0.0571094 0.0888305 0.122475 0.151351 0.165104 0.157916 0.127394 0.0731182 -0.00455279 -0.105748 -0.227292 -0.362237 -0.501125 -0.636297 -0.762771 -0.877506 -0.978643 -1.06402 -1.12916 -1.16282 -1.16128 -1.12416 -1.04741 -0.927629 -0.771748 -0.594355 -0.408088 -0.208107 0 0 0.0590917 0.114205 0.162989 0.208998 0.250734 0.27972 0.288909 0.275933 0.239979 0.181051 0.0991874 -0.00469178 -0.124741 -0.252895 -0.380229 -0.502704 -0.618381 -0.726911 -0.82666 -0.913051 -0.980192 -1.01615 -1.0161 -0.977269 -0.893026 -0.761013 -0.594702 -0.41289 -0.213213 0 0 0.0873347 0.167615 0.234456 0.292467 0.345517 0.38782 0.412281 0.415208 0.395945 0.353865 0.288615 0.20225 0.0983967 -0.0150075 -0.13003 -0.240054 -0.346185 -0.451052 -0.556211 -0.658763 -0.751294 -0.825242 -0.866918 -0.870275 -0.829956 -0.735527 -0.59002 -0.415806 -0.217207 0 0 0.110543 0.213042 0.297991 0.368385 0.431353 0.485038 0.523519 0.542069 0.538121 0.511178 0.460356 0.387554 0.298059 0.197513 0.0965914 0.000475122 -0.0888927 -0.177905 -0.272631 -0.376208 -0.485168 -0.588509 -0.672566 -0.722099 -0.728706 -0.683726 -0.573885 -0.414725 -0.220045 0 0 0.127493 0.246921 0.348009 0.431142 0.503078 0.565845 0.61688 0.650784 0.662952 0.650447 0.612292 0.550125 0.46986 0.379345 0.287 0.204616 0.132138 0.0645618 -0.00902681 -0.0963124 -0.200166 -0.317926 -0.435409 -0.531885 -0.588724 -0.595785 -0.537366 -0.406465 -0.221296 0 0 0.137196 0.266702 0.379911 0.474947 0.55551 0.626446 0.687969 0.735836 0.763991 0.76672 0.742045 0.689356 0.614753 0.528529 0.440823 0.363375 0.304579 0.257333 0.209558 0.148362 0.0654966 -0.0412961 -0.169602 -0.303427 -0.412465 -0.472755 -0.471673 -0.386096 -0.219274 0 0 0.139582 0.272317 0.391224 0.493946 0.58311 0.663038 0.734909 0.795211 0.838156 0.85704 0.846443 0.804246 0.734241 0.648141 0.559544 0.481738 0.426493 0.393789 0.369082 0.336934 0.28468 0.20355 0.0903629 -0.0514366 -0.202203 -0.319945 -0.373973 -0.345925 -0.209841 0 0 0.136684 0.267571 0.386605 0.492451 0.586989 0.673738 0.75387 0.826443 0.884525 0.920652 0.925863 0.89702 0.832637 0.744789 0.649991 0.565786 0.506345 0.478313 0.469797 0.462414 0.441266 0.394732 0.312265 0.188594 0.0295442 -0.135568 -0.249692 -0.277626 -0.186564 0 0 0.129659 0.25352 0.36747 0.47168 0.569132 0.661745 0.749537 0.83022 0.901014 0.955456 0.981199 0.969217 0.915824 0.827544 0.724866 0.629144 0.558409 0.524494 0.522734 0.532747 0.536954 0.522749 0.478519 0.390157 0.250491 0.0717759 -0.0972406 -0.18083 -0.14276 0 0 0.119579 0.2334 0.337609 0.434705 0.529036 0.623211 0.717507 0.808898 0.892061 0.960908 1.00875 1.01918 0.984583 0.903264 0.794549 0.686005 0.600542 0.551839 0.546351 0.56333 0.583255 0.595389 0.5853 0.53839 0.437242 0.274814 0.0802599 -0.062187 -0.0765724 0 0 0.109365 0.211191 0.301078 0.386117 0.471402 0.560869 0.656735 0.757374 0.85551 0.940598 1.00643 1.04213 1.03323 0.970747 0.864335 0.744762 0.643911 0.578966 0.559834 0.57491 0.599942 0.625088 0.641446 0.632611 0.575902 0.451607 0.261817 0.0724132 0.00324008 0 0 0.100061 0.186486 0.257853 0.325964 0.395721 0.477956 0.574112 0.67998 0.790122 0.89238 0.975522 1.03399 1.0528 1.0211 0.931286 0.809194 0.694072 0.61275 0.575753 0.582007 0.605874 0.634087 0.66141 0.681071 0.665265 0.588908 0.428276 0.216487 0.0894877 0 0 0.0893626 0.155203 0.206817 0.247199 0.302433 0.381051 0.478358 0.588619 0.705027 0.817748 0.916729 0.99259 1.03894 1.03971 0.984201 0.87566 0.753287 0.656372 0.6008 0.591118 0.609567 0.637721 0.667685 0.696151 0.715783 0.681981 0.568428 0.364013 0.184619 0 0 0.0712864 0.119979 0.14442 0.168905 0.220093 0.296765 0.391247 0.49801 0.612044 0.726411 0.83294 0.922584 0.987119 1.01918 1.00414 0.930788 0.818315 0.711506 0.639283 0.608914 0.615398 0.640174 0.67035 0.701619 0.734188 0.738606 0.674018 0.506698 0.290367 0 0 0.0483032 0.0829857 0.0904656 0.111495 0.162924 0.23686 0.324386 0.419679 0.520506 0.625976 0.731698 0.827687 0.904286 0.95642 0.976779 0.951978 0.875004 0.774441 0.691357 0.642994 0.63097 0.644685 0.672627 0.705643 0.738794 0.765436 0.751006 0.635111 0.400869 0 0 0.0300438 0.0505878 0.0514575 0.0760626 0.128768 0.199011 0.277092 0.357721 0.440558 0.52729 0.619244 0.712439 0.795703 0.859425 0.902175 0.917485 0.894396 0.830054 0.75177 0.693028 0.662727 0.661175 0.678998 0.70895 0.740763 0.784317 0.80392 0.724918 0.5003 0 0 0.0175604 0.02419 0.026302 0.0543692 0.108462 0.17405 0.24163 0.308418 0.375273 0.44341 0.515228 0.591665 0.667977 0.735841 0.790043 0.830212 0.850006 0.839979 0.801187 0.748909 0.711263 0.696043 0.698978 0.715458 0.750178 0.812221 0.821843 0.7597 0.565365 0 0 0.00541734 0.00299856 0.00861415 0.0377477 0.0929341 0.152821 0.2093 0.263917 0.31828 0.373184 0.429873 0.490022 0.552454 0.612535 0.666832 0.713683 0.753392 0.782871 0.792208 0.782827 0.762773 0.74214 0.734198 0.742418 0.779762 0.821473 0.813999 0.743066 0.5636 0 0 -0.00893483 -0.0187776 -0.00879424 0.0212615 0.076757 0.126567 0.171806 0.215776 0.260092 0.305573 0.353184 0.404323 0.457866 0.512198 0.566877 0.619278 0.664157 0.699254 0.72113 0.7371 0.749797 0.760816 0.774935 0.79747 0.823472 0.822863 0.781686 0.661775 0.440775 0 0 -0.0645974 -0.0386613 -0.0275882 0.00582391 0.0372515 0.0718558 0.104261 0.136453 0.170031 0.206574 0.248656 0.297107 0.350105 0.407382 0.471067 0.542093 0.617205 0.687901 0.743616 0.778304 0.805907 0.836336 0.869825 0.901701 0.912424 0.876527 0.745833 0.496145 0.206863 0 0 0 0 0 0 0 0 0 0 0 0 0 0 0 0 0 0 0 0 0 0 0 0 0 0 0 0 0 0 0 0
				</DataArray>
				<DataArray Name="VitesseY" type="Float32" format="ascii">
 0 0 0 0 0 0 0 0 0 0 0 0 0 0 0 0 0 0 0 0 0 0 0 0 0 0 0 0 0 0 0 -0.079748 0.0384573 0.0272419 0.0104448 -0.0171098 -0.0400251 -0.0441764 -0.0288661 -0.00243358 0.0291862 0.062827 0.0954544 0.123548 0.144656 0.157686 0.162079 0.159311 0.149986 0.13628 0.120405 0.103248 0.0855659 0.0694027 0.0561238 0.0459563 0.0381908 0.031647 0.0252959 0.0183409 0.00871155 0 -0.170609 -0.0184906 0.0430573 0.0183754 -0.0142238 -0.0460342 -0.0565236 -0.03234 0.0107968 0.0635147 0.12216 0.181216 0.234687 0.276871 0.30398 0.314504 0.311213 0.294937 0.269505 0.239601 0.207019 0.17276 0.14084 0.114291 0.0938428 0.0782521 0.0652135 0.0526177 0.0389499 0.0194236 0 -0.218677 -0.100918 0.0151539 0.00667749 -0.00812011 -0.0269413 -0.0354771 -0.0100815 0.0423204 0.106367 0.178062 0.252524 0.323611 0.383915 0.426907 0.448055 0.448495 0.430033 0.397085 0.356805 0.311794 0.262865 0.21578 0.175911 0.14494 0.121376 0.10186 0.0831285 0.0627643 0.0330639 0 -0.253468 -0.155762 -0.0308315 -0.0220663 -0.0197918 -0.0167852 -0.0106603 0.0186994 0.0800066 0.154108 0.23405 0.31692 0.397679 0.469873 0.526461 0.560455 0.568513 0.55378 0.51897 0.472431 0.418205 0.357284 0.295814 0.242419 0.200298 0.16816 0.141811 0.116791 0.0896889 0.0492176 0 -0.263106 -0.187417 -0.0918711 -0.0747197 -0.0550132 -0.0312969 -0.00350917 0.0351927 0.107284 0.194231 0.285382 0.377118 0.465599 0.545525 0.610509 0.654531 0.672652 0.666469 0.635635 0.586871 0.526463 0.456604 0.382094 0.314864 0.260556 0.218763 0.184836 0.153101 0.119054 0.0675969 0 -0.260114 -0.205712 -0.157872 -0.149603 -0.119366 -0.0756551 -0.0252383 0.0308596 0.1136 0.215195 0.320054 0.424007 0.52277 0.611278 0.683784 0.736376 0.765194 0.768743 0.746632 0.699888 0.636104 0.560215 0.475212 0.394114 0.326418 0.273545 0.230996 0.191952 0.150704 0.0884868 0 -0.264322 -0.231373 -0.227731 -0.239133 -0.206237 -0.148841 -0.0791327 -0.00212768 0.0944459 0.210391 0.330484 0.448626 0.560658 0.661523 0.74498 0.807335 0.846269 0.860004 0.849225 0.809444 0.745983 0.6664 0.574831 0.480819 0.398715 0.333171 0.280757 0.233744 0.185037 0.112533 0 -0.293379 -0.280564 -0.310921 -0.343062 -0.311159 -0.245233 -0.161109 -0.0649292 0.0470248 0.177931 0.314071 0.447299 0.573941 0.689578 0.787687 0.863168 0.914298 0.938125 0.938045 0.910648 0.853301 0.773523 0.678872 0.575096 0.478204 0.398276 0.334557 0.27893 0.222565 0.140238 0 -0.359461 -0.358838 -0.414264 -0.464967 -0.437755 -0.364593 -0.267908 -0.155053 -0.0274512 0.117771 0.269874 0.418964 0.560614 0.690744 0.805135 0.896626 0.962086 1.00007 1.0097 0.995499 0.95163 0.878232 0.783893 0.676027 0.565668 0.469494 0.392401 0.327368 0.263396 0.171708 0 -0.465548 -0.470566 -0.539261 -0.603429 -0.583905 -0.507211 -0.39932 -0.271749 -0.129117 0.0301949 0.197818 0.362756 0.519148 0.663768 0.792502 0.899597 0.981527 1.03688 1.06259 1.06023 1.03137 0.972577 0.885343 0.77902 0.660811 0.547933 0.454605 0.378631 0.307181 0.207312 0 -0.609579 -0.616249 -0.685629 -0.75461 -0.743557 -0.667564 -0.55166 -0.412548 -0.256662 -0.0843693 0.0979856 0.27863 0.449275 0.606824 0.748146 0.869345 0.966221 1.03789 1.08389 1.10108 1.08861 1.04611 0.974216 0.875907 0.75931 0.634095 0.522591 0.433158 0.354028 0.248964 0 -0.784389 -0.790745 -0.850486 -0.914166 -0.908844 -0.837331 -0.717616 -0.57102 -0.405254 -0.22238 -0.0268893 0.169043 0.353485 0.522348 0.673351 0.80437 0.912822 0.999403 1.06406 1.10367 1.11459 1.09436 1.04015 0.95706 0.849624 0.723413 0.596633 0.492073 0.404806 0.297235 0 -0.977917 -0.982586 -1.02773 -1.07614 -1.07154 -1.00548 -0.886962 -0.737836 -0.566673 -0.376581 -0.17127 0.0392064 0.237437 0.417381 0.575638 0.711608 0.825363 0.919168 0.996985 1.0582 1.09656 1.10416 1.07776 1.0143 0.920976 0.803928 0.671364 0.55379 0.458184 0.350166 0 -1.17342 -1.17549 -1.20547 -1.23341 -1.22398 -1.16149 -1.04823 -0.902068 -0.730597 -0.537559 -0.325284 -0.103691 0.108882 0.29992 0.465966 0.604792 0.717907 0.810749 0.890142 0.961152 1.02168 1.06298 1.07179 1.04067 0.969153 0.865597 0.738003 0.613357 0.512414 0.407417 0 -1.35553 -1.35488 -1.37087 -1.37925 -1.36021 -1.29792 -1.192 -1.05337 -0.88714 -0.695051 -0.479474 -0.249014 -0.0238062 0.1807 0.35438 0.497011 0.608711 0.694804 0.766998 0.834004 0.899995 0.961508 1.00768 1.02079 0.986564 0.906833 0.791592 0.667308 0.567003 0.471086 0 -1.51425 -1.51136 -1.51495 -1.50768 -1.47692 -1.4127 -1.31366 -1.18477 -1.02761 -0.841238 -0.626335 -0.390061 -0.151387 0.067428 0.254161 0.401459 0.512974 0.593163 0.654011 0.708919 0.765571 0.827275 0.890306 0.94151 0.958889 0.920918 0.83139 0.713997 0.619344 0.542101 0 -1.64036 -1.63545 -1.62903 -1.6103 -1.5709 -1.50566 -1.41299 -1.29399 -1.14771 -0.970809 -0.761723 -0.523771 -0.273102 -0.0361526 0.168172 0.328872 0.444003 0.520261 0.570816 0.61189 0.654063 0.702921 0.760591 0.823847 0.87877 0.896578 0.850855 0.753603 0.664194 0.617208 0 -1.7101 -1.70312 -1.6888 -1.66255 -1.6215 -1.5635 -1.48483 -1.38012 -1.24634 -1.08184 -0.883325 -0.650018 -0.392341 -0.136171 0.0913746 0.273286 0.403203 0.48439 0.528951 0.556033 0.582976 0.616244 0.659278 0.713803 0.776034 0.83103 0.840488 0.783009 0.699279 0.687903 0 -1.72735 -1.71863 -1.69853 -1.66728 -1.62584 -1.5742 -1.51024 -1.42893 -1.31959 -1.17299 -0.989007 -0.767522 -0.511554 -0.240978 0.0112705 0.220805 0.374695 0.472585 0.52417 0.547172 0.560644 0.576632 0.601649 0.639999 0.691901 0.752112 0.801372 0.792284 0.721143 0.743617 0 -1.70518 -1.69323 -1.66475 -1.6273 -1.58666 -1.54323 -1.49424 -1.43305 -1.35102 -1.23618 -1.07579 -0.871661 -0.628154 -0.354627 -0.081991 0.156452 0.340719 0.464007 0.533395 0.563558 0.575004 0.582125 0.591248 0.609054 0.643124 0.693125 0.748956 0.782858 0.737107 0.778306 0 -1.63104 -1.61401 -1.57655 -1.53441 -1.49775 -1.46798 -1.43901 -1.40094 -1.34351 -1.25711 -1.13173 -0.956343 -0.734112 -0.473275 -0.192049 0.0705603 0.287217 0.442311 0.537397 0.583393 0.59993 0.605854 0.609563 0.615409 0.630987 0.662745 0.711277 0.762779 0.749801 0.805909 0 -1.50952 -1.48733 -1.44181 -1.3951 -1.36736 -1.35752 -1.35096 -1.33631 -1.30284 -1.24164 -1.1454 -1.00733 -0.81951 -0.584971 -0.315534 -0.039339 0.204818 0.395348 0.523023 0.595509 0.625115 0.63408 0.63771 0.640166 0.644683 0.661176 0.696046 0.742143 0.760818 0.836338 0 -1.35311 -1.32502 -1.26818 -1.22173 -1.21412 -1.22508 -1.2375 -1.2403 -1.22672 -1.18873 -1.1206 -1.01601 -0.868983 -0.674888 -0.43714 -0.170328 0.0903853 0.312443 0.478643 0.585375 0.641476 0.661411 0.667683 0.670346 0.672624 0.678997 0.698979 0.734199 0.774937 0.869827 0 -1.17277 -1.13303 -1.06655 -1.03965 -1.05437 -1.0797 -1.10163 -1.11208 -1.10981 -1.09186 -1.05198 -0.98247 -0.875388 -0.726722 -0.535509 -0.305642 -0.0523414 0.188377 0.390155 0.538416 0.63263 0.681077 0.69615 0.701618 0.705641 0.70895 0.715459 0.74242 0.797471 0.901703 0 -0.970289 -0.907765 -0.87038 -0.865354 -0.893035 -0.92259 -0.943919 -0.95518 -0.957764 -0.952156 -0.934939 -0.899525 -0.835285 -0.733004 -0.591982 -0.414719 -0.203423 0.0291241 0.250392 0.437237 0.575908 0.665268 0.715783 0.734187 0.738794 0.740763 0.750179 0.779763 0.823474 0.912426 0 -0.724308 -0.683777 -0.69212 -0.697273 -0.728566 -0.753106 -0.768852 -0.777737 -0.781987 -0.782342 -0.777981 -0.765926 -0.739227 -0.68643 -0.597815 -0.474149 -0.320799 -0.135978 0.0716546 0.274789 0.451608 0.588911 0.681982 0.738607 0.765437 0.784318 0.812222 0.821475 0.822865 0.87653 0 -0.429894 -0.481221 -0.523507 -0.52748 -0.557635 -0.574018 -0.583415 -0.589596 -0.59423 -0.597181 -0.598318 -0.597463 -0.591854 -0.575095 -0.538164 -0.472244 -0.374354 -0.249904 -0.0973274 0.0802396 0.261818 0.428279 0.56843 0.67402 0.751008 0.803922 0.821844 0.814001 0.781688 0.745836 0 -0.0747996 -0.306934 -0.346657 -0.353696 -0.384916 -0.390236 -0.393172 -0.396598 -0.401012 -0.405864 -0.410064 -0.414072 -0.416516 -0.415158 -0.406702 -0.386233 -0.346014 -0.277686 -0.180862 -0.062197 0.0724128 0.21649 0.364017 0.506701 0.635113 0.72492 0.759702 0.743067 0.661777 0.496147 0 0.290229 -0.16265 -0.166156 -0.187017 -0.206792 -0.199359 -0.199647 -0.199885 -0.201364 -0.204035 -0.208593 -0.213472 -0.21735 -0.220129 -0.221347 -0.219302 -0.209853 -0.186569 -0.142761 -0.0765718 0.0032415 0.0894895 0.184621 0.290369 0.400871 0.500302 0.565367 0.563601 0.440775 0.206863 0 3.11174 0 0 0 0 0 0 0 0 0 0 0 0 0 0 0 0 0 0 0 0 0 0 0 0 0 0 0 0 0 0
				</DataArray>
			</PointData>
			<CellData Scalars="Density">
				<DataArray Name="Density" type="Float32" format="ascii">