<?xml version="1.0"?>
<VTKFile type="PolyData">
	<PolyData>
		<Piece NumberOfPoints="961" NumberOfPolys="900">
			<Points>
				<DataArray type="Float32" NumberOfComponents="3" format="ascii">
 0 0 0 0.04 0 0 0.08 0 0 0.12 0 0 0.16 0 0 0.2 0 0 0.24 0 0 0.28 0 0 0.32 0 0 0.36 0 0 0.4 0 0 0.44 0 0 0.48 0 0 0.52 0 0 0.56 0 0 0.6 0 0 0.64 0 0 0.68 0 0 0.72 0 0 0.76 0 0 0.8 0 0 0.84 0 0 0.88 0 0 0.92 0 0 0.96 0 0 1 0 0 1.04 0 0 1.08 0 0 1.12 0 0 1.16 0 0 1.2 0 0 0 0.04 0 0.04 0.04 0 0.08 0.04 0 0.12 0.04 0 0.16 0.04 0 0.2 0.04 0 0.24 0.04 0 0.28 0.04 0 0.32 0.04 0 0.36 0.04 0 0.4 0.04 0 0.44 0.04 0 0.48 0.04 0 0.52 0.04 0 0.56 0.04 0 0.6 0.04 0 0.64 0.04 0 0.68 0.04 0 0.72 0.04 0 0.76 0.04 0 0.8 0.04 0 0.84 0.04 0 0.88 0.04 0 0.92 0.04 0 0.96 0.04 0 1 0.04 0 1.04 0.04 0 1.08 0.04 0 1.12 0.04 0 1.16 0.04 0 1.2 0.04 0 0 0.08 0 0.04 0.08 0 0.08 0.08 0 0.12 0.08 0 0.16 0.08 0 0.2 0.08 0 0.24 0.08 0 0.28 0.08 0 0.32 0.08 0 0.36 0.08 0 0.4 0.08 0 0.44 0.08 0 0.48 0.08 0 0.52 0.08 0 0.56 0.08 0 0.6 0.08 0 0.64 0.08 0 0.68 0.08 0 0.72 0.08 0 0.76 0.08 0 0.8 0.08 0 0.84 0.08 0 0.88 0.08 0 0.92 0.08 0 0.96 0.08 0 1 0.08 0 1.04 0.08 0 1.08 0.08 0 1.12 0.08 0 1.16 0.08 0 1.2 0.08 0 0 0.12 0 0.04 0.12 0 0.08 0.12 0 0.12 0.12 0 0.16 0.12 0 0.2 0.12 0 0.24 0.12 0 0.28 0.12 0 0.32 0.12 0 0.36 0.12 0 0.4 0.12 0 0.44 0.12 0 0.48 0.12 0 0.52 0.12 0 0.56 0.12 0 0.6 0.12 0 0.64 0.12 0 0.68 0.12 0 0.72 0.12 0 0.76 0.12 0 0.8 0.12 0 0.84 0.12 0 0.88 0.12 0 0.92 0.12 0 0.96 0.12 0 1 0.12 0 1.04 0.12 0 1.08 0.12 0 1.12 0.12 0 1.16 0.12 0 1.2 0.12 0 0 0.16 0 0.04 0.16 0 0.08 0.16 0 0.12 0.16 0 0.16 0.16 0 0.2 0.16 0 0.24 0.16 0 0.28 0.16 0 0.32 0.16 0 0.36 0.16 0 0.4 0.16 0 0.44 0.16 0 0.48 0.16 0 0.52 0.16 0 0.56 0.16 0 0.6 0.16 0 0.64 0.16 0 0.68 0.16 0 0.72 0.16 0 0.76 0.16 0 0.8 0.16 0 0.84 0.16 0 0.88 0.16 0 0.92 0.16 0 0.96 0.16 0 1 0.16 0 1.04 0.16 0 1.08 0.16 0 1.12 0.16 0 1.16 0.16 0 1.2 0.16 0 0 0.2 0 0.04 0.2 0 0.08 0.2 0 0.12 0.2 0 0.16 0.2 0 0.2 0.2 0 0.24 0.2 0 0.28 0.2 0 0.32 0.2 0 0.36 0.2 0 0.4 0.2 0 0.44 0.2 0 0.48 0.2 0 0.52 0.2 0 0.56 0.2 0 0.6 0.2 0 0.64 0.2 0 0.68 0.2 0 0.72 0.2 0 0.76 0.2 0 0.8 0.2 0 0.84 0.2 0 0.88 0.2 0 0.92 0.2 0 0.96 0.2 0 1 0.2 0 1.04 0.2 0 1.08 0.2 0 1.12 0.2 0 1.16 0.2 0 1.2 0.2 0 0 0.24 0 0.04 0.24 0 0.08 0.24 0 0.12 0.24 0 0.16 0.24 0 0.2 0.24 0 0.24 0.24 0 0.28 0.24 0 0.32 0.24 0 0.36 0.24 0 0.4 0.24 0 0.44 0.24 0 0.48 0.24 0 0.52 0.24 0 0.56 0.24 0 0.6 0.24 0 0.64 0.24 0 0.68 0.24 0 0.72 0.24 0 0.76 0.24 0 0.8 0.24 0 0.84 0.24 0 0.88 0.24 0 0.92 0.24 0 0.96 0.24 0 1 0.24 0 1.04 0.24 0 1.08 0.24 0 1.12 0.24 0 1.16 0.24 0 1.2 0.24 0 0 0.28 0 0.04 0.28 0 0.08 0.28 0 0.12 0.28 0 0.16 0.28 0 0.2 0.28 0 0.24 0.28 0 0.28 0.28 0 0.32 0.28 0 0.36 0.28 0 0.4 0.28 0 0.44 0.28 0 0.48 0.28 0 0.52 0.28 0 0.56 0.28 0 0.6 0.28 0 0.64 0.28 0 0.68 0.28 0 0.72 0.28 0 0.76 0.28 0 0.8 0.28 0 0.84 0.28 0 0.88 0.28 0 0.92 0.28 0 0.96 0.28 0 1 0.28 0 1.04 0.28 0 1.08 0.28 0 1.12 0.28 0 1.16 0.28 0 1.2 0.28 0 0 0.32 0 0.04 0.32 0 0.08 0.32 0 0.12 0.32 0 0.16 0.32 0 0.2 0.32 0 0.24 0.32 0 0.28 0.32 0 0.32 0.32 0 0.36 0.32 0 0.4 0.32 0 0.44 0.32 0 0.48 0.32 0 0.52 0.32 0 0.56 0.32 0 0.6 0.32 0 0.64 0.32 0 0.68 0.32 0 0.72 0.32 0 0.76 0.32 0 0.8 0.32 0 0.84 0.32 0 0.88 0.32 0 0.92 0.32 0 0.96 0.32 0 1 0.32 0 1.04 0.32 0 1.08 0.32 0 1.12 0.32 0 1.16 0.32 0 1.2 0.32 0 0 0.36 0 0.04 0.36 0 0.08 0.36 0 0.12 0.36 0 0.16 0.36 0 0.2 0.36 0 0.24 0.36 0 0.28 0.36 0 0.32 0.36 0 0.36 0.36 0 0.4 0.36 0 0.44 0.36 0 0.48 0.36 0 0.52 0.36 0 0.56 0.36 0 0.6 0.36 0 0.64 0.36 0 0.68 0.36 0 0.72 0.36 0 0.76 0.36 0 0.8 0.36 0 0.84 0.36 0 0.88 0.36 0 0.92 0.36 0 0.96 0.36 0 1 0.36 0 1.04 0.36 0 1.08 0.36 0 1.12 0.36 0 1.16 0.36 0 1.2 0.36 0 0 0.4 0 0.04 0.4 0 0.08 0.4 0 0.12 0.4 0 0.16 0.4 0 0.2 0.4 0 0.24 0.4 0 0.28 0.4 0 0.32 0.4 0 0.36 0.4 0 0.4 0.4 0 0.44 0.4 0 0.48 0.4 0 0.52 0.4 0 0.56 0.4 0 0.6 0.4 0 0.64 0.4 0 0.68 0.4 0 0.72 0.4 0 0.76 0.4 0 0.8 0.4 0 0.84 0.4 0 0.88 0.4 0 0.92 0.4 0 0.96 0.4 0 1 0.4 0 1.04 0.4 0 1.08 0.4 0 1.12 0.4 0 1.16 0.4 0 1.2 0.4 0 0 0.44 0 0.04 0.44 0 0.08 0.44 0 0.12 0.44 0 0.16 0.44 0 0.2 0.44 0 0.24 0.44 0 0.28 0.44 0 0.32 0.44 0 0.36 0.44 0 0.4 0.44 0 0.44 0.44 0 0.48 0.44 0 0.52 0.44 0 0.56 0.44 0 0.6 0.44 0 0.64 0.44 0 0.68 0.44 0 0.72 0.44 0 0.76 0.44 0 0.8 0.44 0 0.84 0.44 0 0.88 0.44 0 0.92 0.44 0 0.96 0.44 0 1 0.44 0 1.04 0.44 0 1.08 0.44 0 1.12 0.44 0 1.16 0.44 0 1.2 0.44 0 0 0.48 0 0.04 0.48 0 0.08 0.48 0 0.12 0.48 0 0.16 0.48 0 0.2 0.48 0 0.24 0.48 0 0.28 0.48 0 0.32 0.48 0 0.36 0.48 0 0.4 0.48 0 0.44 0.48 0 0.48 0.48 0 0.52 0.48 0 0.56 0.48 0 0.6 0.48 0 0.64 0.48 0 0.68 0.48 0 0.72 0.48 0 0.76 0.48 0 0.8 0.48 0 0.84 0.48 0 0.88 0.48 0 0.92 0.48 0 0.96 0.48 0 1 0.48 0 1.04 0.48 0 1.08 0.48 0 1.12 0.48 0 1.16 0.48 0 1.2 0.48 0 0 0.52 0 0.04 0.52 0 0.08 0.52 0 0.12 0.52 0 0.16 0.52 0 0.2 0.52 0 0.24 0.52 0 0.28 0.52 0 0.32 0.52 0 0.36 0.52 0 0.4 0.52 0 0.44 0.52 0 0.48 0.52 0 0.52 0.52 0 0.56 0.52 0 0.6 0.52 0 0.64 0.52 0 0.68 0.52 0 0.72 0.52 0 0.76 0.52 0 0.8 0.52 0 0.84 0.52 0 0.88 0.52 0 0.92 0.52 0 0.96 0.52 0 1 0.52 0 1.04 0.52 0 1.08 0.52 0 1.12 0.52 0 1.16 0.52 0 1.2 0.52 0 0 0.56 0 0.04 0.56 0 0.08 0.56 0 0.12 0.56 0 0.16 0.56 0 0.2 0.56 0 0.24 0.56 0 0.28 0.56 0 0.32 0.56 0 0.36 0.56 0 0.4 0.56 0 0.44 0.56 0 0.48 0.56 0 0.52 0.56 0 0.56 0.56 0 0.6 0.56 0 0.64 0.56 0 0.68 0.56 0 0.72 0.56 0 0.76 0.56 0 0.8 0.56 0 0.84 0.56 0 0.88 0.56 0 0.92 0.56 0 0.96 0.56 0 1 0.56 0 1.04 0.56 0 1.08 0.56 0 1.12 0.56 0 1.16 0.56 0 1.2 0.56 0 0 0.6 0 0.04 0.6 0 0.08 0.6 0 0.12 0.6 0 0.16 0.6 0 0.2 0.6 0 0.24 0.6 0 0.28 0.6 0 0.32 0.6 0 0.36 0.6 0 0.4 0.6 0 0.44 0.6 0 0.48 0.6 0 0.52 0.6 0 0.56 0.6 0 0.6 0.6 0 0.64 0.6 0 0.68 0.6 0 0.72 0.6 0 0.76 0.6 0 0.8 0.6 0 0.84 0.6 0 0.88 0.6 0 0.92 0.6 0 0.96 0.6 0 1 0.6 0 1.04 0.6 0 1.08 0.6 0 1.12 0.6 0 1.16 0.6 0 1.2 0.6 0 0 0.64 0 0.04 0.64 0 0.08 0.64 0 0.12 0.64 0 0.16 0.64 0 0.2 0.64 0 0.24 0.64 0 0.28 0.64 0 0.32 0.64 0 0.36 0.64 0 0.4 0.64 0 0.44 0.64 0 0.48 0.64 0 0.52 0.64 0 0.56 0.64 0 0.6 0.64 0 0.64 0.64 0 0.68 0.64 0 0.72 0.64 0 0.76 0.64 0 0.8 0.64 0 0.84 0.64 0 0.88 0.64 0 0.92 0.64 0 0.96 0.64 0 1 0.64 0 1.04 0.64 0 1.08 0.64 0 1.12 0.64 0 1.16 0.64 0 1.2 0.64 0 0 0.68 0 0.04 0.68 0 0.08 0.68 0 0.12 0.68 0 0.16 0.68 0 0.2 0.68 0 0.24 0.68 0 0.28 0.68 0 0.32 0.68 0 0.36 0.68 0 0.4 0.68 0 0.44 0.68 0 0.48 0.68 0 0.52 0.68 0 0.56 0.68 0 0.6 0.68 0 0.64 0.68 0 0.68 0.68 0 0.72 0.68 0 0.76 0.68 0 0.8 0.68 0 0.84 0.68 0 0.88 0.68 0 0.92 0.68 0 0.96 0.68 0 1 0.68 0 1.04 0.68 0 1.08 0.68 0 1.12 0.68 0 1.16 0.68 0 1.2 0.68 0 0 0.72 0 0.04 0.72 0 0.08 0.72 0 0.12 0.72 0 0.16 0.72 0 0.2 0.72 0 0.24 0.72 0 0.28 0.72 0 0.32 0.72 0 0.36 0.72 0 0.4 0.72 0 0.44 0.72 0 0.48 0.72 0 0.52 0.72 0 0.56 0.72 0 0.6 0.72 0 0.64 0.72 0 0.68 0.72 0 0.72 0.72 0 0.76 0.72 0 0.8 0.72 0 0.84 0.72 0 0.88 0.72 0 0.92 0.72 0 0.96 0.72 0 1 0.72 0 1.04 0.72 0 1.08 0.72 0 1.12 0.72 0 1.16 0.72 0 1.2 0.72 0 0 0.76 0 0.04 0.76 0 0.08 0.76 0 0.12 0.76 0 0.16 0.76 0 0.2 0.76 0 0.24 0.76 0 0.28 0.76 0 0.32 0.76 0 0.36 0.76 0 0.4 0.76 0 0.44 0.76 0 0.48 0.76 0 0.52 0.76 0 0.56 0.76 0 0.6 0.76 0 0.64 0.76 0 0.68 0.76 0 0.72 0.76 0 0.76 0.76 0 0.8 0.76 0 0.84 0.76 0 0.88 0.76 0 0.92 0.76 0 0.96 0.76 0 1 0.76 0 1.04 0.76 0 1.08 0.76 0 1.12 0.76 0 1.16 0.76 0 1.2 0.76 0 0 0.8 0 0.04 0.8 0 0.08 0.8 0 0.12 0.8 0 0.16 0.8 0 0.2 0.8 0 0.24 0.8 0 0.28 0.8 0 0.32 0.8 0 0.36 0.8 0 0.4 0.8 0 0.44 0.8 0 0.48 0.8 0 0.52 0.8 0 0.56 0.8 0 0.6 0.8 0 0.64 0.8 0 0.68 0.8 0 0.72 0.8 0 0.76 0.8 0 0.8 0.8 0 0.84 0.8 0 0.88 0.8 0 0.92 0.8 0 0.96 0.8 0 1 0.8 0 1.04 0.8 0 1.08 0.8 0 1.12 0.8 0 1.16 0.8 0 1.2 0.8 0 0 0.84 0 0.04 0.84 0 0.08 0.84 0 0.12 0.84 0 0.16 0.84 0 0.2 0.84 0 0.24 0.84 0 0.28 0.84 0 0.32 0.84 0 0.36 0.84 0 0.4 0.84 0 0.44 0.84 0 0.48 0.84 0 0.52 0.84 0 0.56 0.84 0 0.6 0.84 0 0.64 0.84 0 0.68 0.84 0 0.72 0.84 0 0.76 0.84 0 0.8 0.84 0 0.84 0.84 0 0.88 0.84 0 0.92 0.84 0 0.96 0.84 0 1 0.84 0 1.04 0.84 0 1.08 0.84 0 1.12 0.84 0 1.16 0.84 0 1.2 0.84 0 0 0.88 0 0.04 0.88 0 0.08 0.88 0 0.12 0.88 0 0.16 0.88 0 0.2 0.88 0 0.24 0.88 0 0.28 0.88 0 0.32 0.88 0 0.36 0.88 0 0.4 0.88 0 0.44 0.88 0 0.48 0.88 0 0.52 0.88 0 0.56 0.88 0 0.6 0.88 0 0.64 0.88 0 0.68 0.88 0 0.72 0.88 0 0.76 0.88 0 0.8 0.88 0 0.84 0.88 0 0.88 0.88 0 0.92 0.88 0 0.96 0.88 0 1 0.88 0 1.04 0.88 0 1.08 0.88 0 1.12 0.88 0 1.16 0.88 0 1.2 0.88 0 0 0.92 0 0.04 0.92 0 0.08 0.92 0 0.12 0.92 0 0.16 0.92 0 0.2 0.92 0 0.24 0.92 0 0.28 0.92 0 0.32 0.92 0 0.36 0.92 0 0.4 0.92 0 0.44 0.92 0 0.48 0.92 0 0.52 0.92 0 0.56 0.92 0 0.6 0.92 0 0.64 0.92 0 0.68 0.92 0 0.72 0.92 0 0.76 0.92 0 0.8 0.92 0 0.84 0.92 0 0.88 0.92 0 0.92 0.92 0 0.96 0.92 0 1 0.92 0 1.04 0.92 0 1.08 0.92 0 1.12 0.92 0 1.16 0.92 0 1.2 0.92 0 0 0.96 0 0.04 0.96 0 0.08 0.96 0 0.12 0.96 0 0.16 0.96 0 0.2 0.96 0 0.24 0.96 0 0.28 0.96 0 0.32 0.96 0 0.36 0.96 0 0.4 0.96 0 0.44 0.96 0 0.48 0.96 0 0.52 0.96 0 0.56 0.96 0 0.6 0.96 0 0.64 0.96 0 0.68 0.96 0 0.72 0.96 0 0.76 0.96 0 0.8 0.96 0 0.84 0.96 0 0.88 0.96 0 0.92 0.96 0 0.96 0.96 0 1 0.96 0 1.04 0.96 0 1.08 0.96 0 1.12 0.96 0 1.16 0.96 0 1.2 0.96 0 0 1 0 0.04 1 0 0.08 1 0 0.12 1 0 0.16 1 0 0.2 1 0 0.24 1 0 0.28 1 0 0.32 1 0 0.36 1 0 0.4 1 0 0.44 1 0 0.48 1 0 0.52 1 0 0.56 1 0 0.6 1 0 0.64 1 0 0.68 1 0 0.72 1 0 0.76 1 0 0.8 1 0 0.84 1 0 0.88 1 0 0.92 1 0 0.96 1 0 1 1 0 1.04 1 0 1.08 1 0 1.12 1 0 1.16 1 0 1.2 1 0 0 1.04 0 0.04 1.04 0 0.08 1.04 0 0.12 1.04 0 0.16 1.04 0 0.2 1.04 0 0.24 1.04 0 0.28 1.04 0 0.32 1.04 0 0.36 1.04 0 0.4 1.04 0 0.44 1.04 0 0.48 1.04 0 0.52 1.04 0 0.56 1.04 0 0.6 1.04 0 0.64 1.04 0 0.68 1.04 0 0.72 1.04 0 0.76 1.04 0 0.8 1.04 0 0.84 1.04 0 0.88 1.04 0 0.92 1.04 0 0.96 1.04 0 1 1.04 0 1.04 1.04 0 1.08 1.04 0 1.12 1.04 0 1.16 1.04 0 1.2 1.04 0 0 1.08 0 0.04 1.08 0 0.08 1.08 0 0.12 1.08 0 0.16 1.08 0 0.2 1.08 0 0.24 1.08 0 0.28 1.08 0 0.32 1.08 0 0.36 1.08 0 0.4 1.08 0 0.44 1.08 0 0.48 1.08 0 0.52 1.08 0 0.56 1.08 0 0.6 1.08 0 0.64 1.08 0 0.68 1.08 0 0.72 1.08 0 0.76 1.08 0 0.8 1.08 0 0.84 1.08 0 0.88 1.08 0 0.92 1.08 0 0.96 1.08 0 1 1.08 0 1.04 1.08 0 1.08 1.08 0 1.12 1.08 0 1.16 1.08 0 1.2 1.08 0 0 1.12 0 
[...]
			<PointData Scalars="VitesseX">
				<DataArray Name="VitesseX" type="Float32" format="ascii">
 0 -0.0608307 -0.118885 -0.106655 -0.049866 0.052539 0.175702 0.297051 0.386321 0.433432 0.430549 0.39818 0.358741 0.318439 0.285101 0.266818 0.262982 0.270727 0.283404 0.297046 0.302234 0.201567 -0.102462 -0.377631 -0.462236 -0.387605 -0.311328 -0.23491 -0.157843 -0.0792204 0 0 0.0588448 0.029981 0.0166265 0.0617611 0.135234 0.225075 0.315659 0.392471 0.424161 0.412643 0.377134 0.335162 0.300568 0.276581 0.263621 0.264096 0.27255 0.285322 0.298301 0.302943 0.204321 -0.097878 -0.374944 -0.461951 -0.388104 -0.311815 -0.235281 -0.158057 -0.0794206 0 0 0.0337785 0.0617686 0.0609213 0.070742 0.093015 0.121654 0.159662 0.197993 0.234885 0.259175 0.263096 0.257586 0.250566 0.245868 0.24861 0.257207 0.271385 0.286795 0.299864 0.304286 0.21244 -0.0835861 -0.365842 -0.459836 -0.388561 -0.312311 -0.235723 -0.15834 -0.0797134 0 0 -0.0217896 -0.0372576 -0.0414598 -0.0426572 -0.0366439 -0.0224601 -0.00212545 0.0188723 0.0392571 0.0744997 0.116716 0.150253 0.174528 0.196785 0.217643 0.241073 0.263846 0.283379 0.298717 0.30406 0.223336 -0.0611224 -0.350697 -0.455779 -0.389315 -0.313055 -0.236525 -0.158847 -0.0797871 0 0 -0.0684137 -0.108322 -0.12361 -0.1296 -0.131292 -0.128876 -0.122827 -0.105045 -0.0743785 -0.0377335 0.00940318 0.0577692 0.103308 0.144535 0.183264 0.217359 0.247702 0.272874 0.292212 0.299781 0.233505 -0.033271 -0.329951 -0.449167 -0.390481 -0.314037 -0.237645 -0.159556 -0.0797676 0 0 -0.0929086 -0.149925 -0.176352 -0.190447 -0.198701 -0.201019 -0.199626 -0.181712 -0.143726 -0.0983697 -0.0500297 0.00339787 0.0556265 0.105223 0.149033 0.189287 0.224567 0.255155 0.278211 0.289543 0.240043 -0.00257151 -0.303786 -0.43907 -0.3921 -0.315147 -0.239 -0.160556 -0.0798558 0 0 -0.106107 -0.169141 -0.200804 -0.222382 -0.235335 -0.242446 -0.241567 -0.23008 -0.193632 -0.139125 -0.083909 -0.0294348 0.0248366 0.0737144 0.119069 0.158641 0.196364 0.229729 0.256567 0.272621 0.241141 0.0289878 -0.272025 -0.424322 -0.394253 -0.31641 -0.240521 -0.161964 -0.0803741 0 0 -0.101325 -0.168314 -0.207838 -0.232321 -0.247792 -0.258237 -0.262835 -0.256777 -0.233169 -0.182111 -0.117373 -0.0571202 -0.00319842 0.0473676 0.0898401 0.128802 0.164133 0.198935 0.228609 0.249251 0.23565 0.0597746 -0.234199 -0.403383 -0.396916 -0.317902 -0.242137 -0.163596 -0.0812989 0 0 -0.0829609 -0.142371 -0.179175 -0.212101 -0.237839 -0.256493 -0.269023 -0.27272 -0.261093 -0.22866 -0.169993 -0.0994151 -0.035844 0.0159374 0.0616208 0.0976919 0.131948 0.164683 0.195577 0.219835 0.222799 0.0880232 -0.189505 -0.375276 -0.398591 -0.319644 -0.243833 -0.16549 -0.0825427 0 0 -0.0483703 -0.0886335 -0.115636 -0.138922 -0.179683 -0.22633 -0.260182 -0.279237 -0.283951 -0.268254 -0.229145 -0.164586 -0.0895271 -0.023802 0.0252976 0.0657065 0.0970762 0.128097 0.158351 0.185946 0.202007 0.111199 -0.137586 -0.339874 -0.39506 -0.321426 -0.245404 -0.167421 -0.0840037 0 0 -0.00112849 -0.0135968 -0.0418593 -0.0726993 -0.115413 -0.173912 -0.235139 -0.278601 -0.301347 -0.30555 -0.286266 -0.241981 -0.170974 -0.090015 -0.0229049 0.023365 0.0596103 0.0885594 0.119021 0.148292 0.172812 0.126049 -0.0802891 -0.294539 -0.381567 -0.323427 -0.246915 -0.169322 -0.0856994 0 0 0.032128 0.0484941 0.0270646 -0.0168319 -0.0640981 -0.12365 -0.196755 -0.264132 -0.310301 -0.335669 -0.340086 -0.317874 -0.269728 -0.191714 -0.102924 -0.0338796 0.0109856 0.0456219 0.0752703 0.108111 0.136375 0.12888 -0.0223116 -0.236621 -0.352869 -0.325603 -0.248543 -0.171071 -0.0871379 0 0 0.044892 0.074418 0.0640362 0.0238849 -0.0297043 -0.089289 -0.15871 -0.237286 -0.305204 -0.352544 -0.380099 -0.38576 -0.361433 -0.310657 -0.224361 -0.126132 -0.0544818 -0.00870017 0.0275904 0.0630107 0.0950023 0.116234 0.0288004 -0.166006 -0.305354 -0.324751 -0.250572 -0.172844 -0.0881919 0 0 0.045064 0.0731551 0.0672652 0.0314696 -0.019153 -0.0750018 -0.13397 -0.202201 -0.281097 -0.350314 -0.40016 -0.430953 -0.439546 -0.415073 -0.361862 -0.264675 -0.155343 -0.0804129 -0.030616 0.0100043 0.0502755 0.0867417 0.0631176 -0.0871009 -0.243612 -0.30889 -0.252946 -0.174961 -0.0893737 0 0 0.0395138 0.0618006 0.0558092 0.0224541 -0.0266446 -0.0785877 -0.127276 -0.176906 -0.236121 -0.314372 -0.392443 -0.449672 -0.486495 -0.499958 -0.476059 -0.41878 -0.307837 -0.186318 -0.106489 -0.0517514 -0.00160519 0.0441412 0.0709558 -0.0128933 -0.16864 -0.268094 -0.254356 -0.177724 -0.0913131 0 0 0.0255306 0.0378196 0.0281606 -0.00411116 -0.0497826 -0.0938167 -0.131673 -0.165962 -0.205317 -0.254852 -0.333045 -0.427808 -0.501235 -0.546085 -0.564155 -0.541623 -0.477696 -0.350077 -0.2176 -0.129674 -0.0660918 -0.00795324 0.0502735 0.039784 -0.0837083 -0.204267 -0.244543 -0.180889 -0.0940498 0 0 0.00566125 0.00361775 -0.0114882 -0.047436 -0.0896922 -0.12248 -0.143712 -0.162838 -0.185739 -0.219918 -0.266317 -0.346348 -0.460492 -0.554683 -0.607722 -0.629536 -0.608276 -0.534032 -0.387897 -0.243538 -0.145253 -0.0681158 0.00227058 0.057507 -0.00150163 -0.125924 -0.207552 -0.182705 -0.0967646 0 0 -0.0173797 -0.0386152 -0.0713354 -0.103161 -0.125686 -0.140026 -0.150084 -0.158973 -0.172463 -0.193777 -0.228631 -0.277415 -0.359525 -0.489071 -0.607873 -0.670418 -0.692997 -0.671527 -0.582626 -0.415518 -0.254293 -0.144794 -0.0593013 0.0354109 0.055886 -0.0381246 -0.141724 -0.172504 -0.0986333 0 0 -0.0492923 -0.0887602 -0.106445 -0.11475 -0.124756 -0.132468 -0.136919 -0.141572 -0.151445 -0.169908 -0.197548 -0.2363 -0.290373 -0.374435 -0.513954 -0.654592 -0.728385 -0.75039 -0.723681 -0.610251 -0.421997 -0.249495 -0.126642 -0.0256747 0.0724684 0.0452122 -0.0581133 -0.132373 -0.0972873 0 0 -0.0735309 -0.104135 -0.104612 -0.101575 -0.100278 -0.0990542 -0.0973584 -0.100833 -0.113527 -0.135874 -0.165254 -0.200919 -0.243046 -0.30219 -0.387955 -0.532728 -0.691494 -0.77548 -0.792564 -0.751814 -0.610222 -0.403681 -0.22251 -0.0949 0.0384088 0.0970501 0.0366241 -0.0592871 -0.0821255 0 0 -0.0719067 -0.0938624 -0.0769755 -0.0598552 -0.0487665 -0.0407081 -0.0384846 -0.046108 -0.0643274 -0.091375 -0.125587 -0.162861 -0.20203 -0.246263 -0.308683 -0.396303 -0.5403 -0.708356 -0.802496 -0.814306 -0.749029 -0.583924 -0.360571 -0.168525 -0.0407047 0.106185 0.114347 0.0369519 -0.0328664 0 0 -0.0441766 -0.0420787 -0.0181051 0.00226652 0.0166952 0.0203544 0.0125179 -0.00308436 -0.0246378 -0.0519036 -0.0834636 -0.118829 -0.157789 -0.19949 -0.243312 -0.304122 -0.392504 -0.52996 -0.696425 -0.797327 -0.807587 -0.716247 -0.532366 -0.301225 -0.111409 0.0506797 0.15587 0.131681 0.0534784 0 0 0.0271471 0.053184 0.045809 0.0454443 0.0529188 0.0517979 0.0407165 0.0250565 0.00619775 -0.0178547 -0.0470563 -0.07947 -0.113553 -0.148651 -0.1856 -0.228288 -0.286235 -0.371802 -0.50235 -0.661349 -0.759418 -0.771535 -0.662985 -0.460487 -0.217921 -0.0449907 0.140155 0.185599 0.140406 0 0 0.0850787 0.0990785 0.0669427 0.0560341 0.0567821 0.0544054 0.0510233 0.0459969 0.0354608 0.018198 -0.00577838 -0.0345585 -0.0655423 -0.0966905 -0.128678 -0.162833 -0.198965 -0.254106 -0.333776 -0.461301 -0.60944 -0.703364 -0.718876 -0.598685 -0.399984 -0.148412 0.0533495 0.18154 0.176301 0 0 0.0680623 0.064228 0.0393785 0.0310281 0.0315183 0.0402955 0.0536307 0.0617204 0.0596351 0.0518312 0.0406428 0.0241326 0.000177534 -0.0301845 -0.0630825 -0.0964814 -0.126788 -0.164216 -0.203993 -0.289803 -0.408536 -0.554289 -0.649797 -0.659648 -0.540529 -0.326112 -0.110657 0.11187 0.13844 0 0 0.0101262 0.00350838 0.0010058 0.000108564 0.00463697 0.0230076 0.0502127 0.0642957 0.0686204 0.0714188 0.072986 0.0710648 0.0633002 0.0465268 0.0198554 -0.0144475 -0.0515199 -0.087741 -0.119079 -0.161273 -0.223168 -0.37577 -0.518217 -0.60353 -0.607928 -0.485028 -0.278026 -0.0891531 0.0712636 0 0 -0.0211378 -0.0236168 -0.0232459 -0.0184414 -0.0110384 0.0102198 0.0322117 0.0399056 0.0428652 0.0523632 0.0690802 0.0870769 0.0991212 0.100697 0.0874829 0.0640476 0.0316867 -0.00446402 -0.0436436 -0.0752223 -0.113921 -0.181087 -0.331033 -0.507555 -0.564998 -0.554323 -0.450034 -0.253339 -0.0609594 0 0 -0.0317805 -0.0333224 -0.0388245 -0.0282601 -0.0165805 0.00172459 0.0119239 0.00904482 0.00826818 0.0174258 0.0345205 0.0557284 0.0778484 0.0982367 0.110169 0.110734 0.0949965 0.0662137 0.0279078 -0.00939667 -0.0503409 -0.0771689 -0.150535 -0.303526 -0.463781 -0.544928 -0.509139 -0.34413 -0.164221 0 0 -0.0307849 -0.0716917 -0.0485011 -0.0358358 -0.0157509 -0.00241991 -0.00431033 -0.0145005 -0.0172001 -0.00975654 0.00361138 0.0188278 0.0341245 0.0487114 0.0625131 0.0768797 0.0860352 0.0862967 0.0717153 0.0395056 -0.000417266 -0.0419759 -0.088503 -0.137522 -0.280804 -0.397694 -0.433961 -0.382347 -0.194561 0 0 -0.197519 -0.097539 -0.0619346 -0.0275299 -0.0075571 -0.00226391 -0.0122402 -0.0254789 -0.0291433 -0.0229922 -0.0132509 -0.00377788 0.00390408 0.0100948 0.0158385 0.02219 0.0291365 0.0348924 0.0303347 0.0112801 -0.0300133 -0.0967417 -0.163145 -0.20336 -0.208697 -0.193437 -0.191213 -0.201568 -0.203065 0 0 0 0 0 0 0 0 0 0 0 0 0 0 0 0 0 0 0 0 0 0 0 0 0 0 0 0 0 0 0 0
				</DataArray>
				<DataArray Name="VitesseY" type="Float32" format="ascii">
 0 0 0 0 0 0 0 0 0 0 0 0 0 0 0 0 0 0 0 0 0 0 0 0 0 0 0 0 0 0 0 -0.0517369 0.0637609 0.0331087 -0.0220259 -0.0698988 -0.0959982 -0.10703 -0.0948769 -0.0609293 -0.00746667 0.0322798 0.0461273 0.0458156 0.0398132 0.0285533 0.013886 0.000716766 -0.00657064 -0.00985148 -0.0107707 -0.0102681 -0.00582879 0.00330224 0.0106101 0.0130412 0.0107776 0.00791504 0.00532751 0.00302141 0.00113107 0 -0.110398 0.0398147 0.0678982 -0.0326034 -0.10421 -0.147503 -0.163934 -0.1564 -0.104278 -0.0223098 0.0447718 0.07569 0.0742471 0.0636582 0.0443108 0.0194216 -0.00285635 -0.0154229 -0.0200675 -0.0205435 -0.0187896 -0.0102794 0.00674263 0.0208949 0.0259668 0.0216559 0.015756 0.0105362 0.00615133 0.00267467 0 -0.101072 0.0285858 0.0766698 -0.0263143 -0.109177 -0.160873 -0.183333 -0.185302 -0.124508 -0.049036 0.0223293 0.0623901 0.069973 0.061253 0.0398287 0.0110541 -0.015982 -0.0293596 -0.0321715 -0.0303702 -0.0252993 -0.0128724 0.0102613 0.0304304 0.0384916 0.0326714 0.0236125 0.0156403 0.00925823 0.00436181 0 -0.047722 0.0755077 0.0951206 -0.015309 -0.103035 -0.161352 -0.189504 -0.195486 -0.143032 -0.0713885 -0.0169735 0.0226078 0.0382197 0.033599 0.0144063 -0.0127939 -0.0397698 -0.049342 -0.0484505 -0.041675 -0.0310379 -0.0144159 0.0133675 0.0387425 0.0502938 0.0437288 0.0314533 0.0203274 0.011568 0.00521687 0 0.0510262 0.147927 0.129672 0.0019483 -0.090288 -0.154169 -0.186854 -0.195639 -0.168556 -0.104478 -0.0558179 -0.023857 -0.00697541 -0.00885456 -0.0238916 -0.0471937 -0.0703018 -0.0754772 -0.0699694 -0.0556557 -0.038093 -0.0166657 0.0150607 0.045338 0.0610542 0.0546356 0.0392106 0.0242865 0.0124365 0.0044847 0 0.1704 0.237601 0.170134 0.0295464 -0.0721539 -0.14116 -0.180511 -0.194341 -0.18935 -0.148204 -0.101987 -0.0712944 -0.0574313 -0.0550323 -0.0664472 -0.0843884 -0.103709 -0.106148 -0.095436 -0.0735444 -0.0485122 -0.0217716 0.0139002 0.0495483 0.0703863 0.0651944 0.046939 0.0277341 0.0121434 0.00232623 0 0.295498 0.330107 0.217814 0.0631981 -0.0497314 -0.125186 -0.169007 -0.192254 -0.199137 -0.188667 -0.157318 -0.126155 -0.107584 -0.103447 -0.108091 -0.121308 -0.136308 -0.137927 -0.124097 -0.0956116 -0.06347 -0.031441 0.00841798 0.0506777 0.0779187 0.0758827 0.0550955 0.0315559 0.0119252 1.93112e-05 0 0.401165 0.419013 0.265638 0.101929 -0.0209064 -0.102759 -0.152349 -0.1819 -0.202089 -0.211257 -0.208629 -0.188756 -0.166374 -0.152885 -0.151811 -0.156879 -0.166911 -0.16864 -0.153951 -0.121391 -0.0832709 -0.046535 -0.00251681 0.0475772 0.0824225 0.0865699 0.0644723 0.0368787 0.0131948 -0.000995877 0 0.476305 0.485727 0.30912 0.132678 0.0148443 -0.0618454 -0.117933 -0.160033 -0.191471 -0.219236 -0.239395 -0.246514 -0.234727 -0.214333 -0.199236 -0.195641 -0.196471 -0.196983 -0.183143 -0.150037 -0.10742 -0.0665662 -0.0196536 0.0386598 0.0827788 0.0964837 0.0756669 0.0445163 0.0166845 -0.000226143 0 0.51265 0.509555 0.348708 0.158927 0.053136 -0.00641514 -0.0581114 -0.114879 -0.164391 -0.209405 -0.251494 -0.283917 -0.297652 -0.289473 -0.262804 -0.240633 -0.230518 -0.223903 -0.210742 -0.180184 -0.134124 -0.0909585 -0.0424939 0.0222097 0.0779429 0.104595 0.088721 0.0545522 0.0224273 0.00194595 0 0.505408 0.496571 0.368568 0.199453 0.0978535 0.0492237 0.0145114 -0.0431747 -0.115578 -0.17988 -0.242457 -0.299341 -0.341084 -0.357998 -0.346625 -0.306205 -0.274156 -0.255048 -0.238238 -0.209277 -0.164651 -0.118234 -0.0694397 -0.00225697 0.0664497 0.108461 0.103204 0.0667401 0.0299575 0.00515088 0 0.473983 0.4619 0.3682 0.242415 0.149603 0.108865 0.0843255 0.0396094 -0.0426477 -0.12943 -0.211437 -0.290654 -0.359491 -0.405933 -0.42237 -0.401341 -0.3417 -0.299132 -0.268734 -0.239211 -0.197936 -0.147581 -0.0982317 -0.0331677 0.0464495 0.10395 0.116591 0.0806056 0.0386166 0.00886411 0 0.43598 0.420923 0.362564 0.275268 0.203566 0.169679 0.149414 0.113101 0.0404733 -0.0564953 -0.159542 -0.257845 -0.349611 -0.42691 -0.474665 -0.487731 -0.44993 -0.368842 -0.315183 -0.27266 -0.232493 -0.17988 -0.12838 -0.0669596 0.0167617 0.0890704 0.12234 0.0954526 0.0478986 0.0123338 0 0.3959 0.387639 0.356665 0.304153 0.254799 0.228842 0.208571 0.171889 0.109396 0.021857 -0.0823144 -0.20037 -0.313839 -0.41526 -0.497688 -0.543494 -0.551056 -0.488902 -0.388874 -0.323616 -0.267892 -0.216537 -0.159771 -0.0998175 -0.0200781 0.0646586 0.118851 0.11074 0.0578926 0.0155248 0 0.36545 0.364558 0.356669 0.331139 0.30446 0.28468 0.259253 0.217964 0.157011 0.0818728 -0.00657045 -0.113374 -0.244652 -0.373437 -0.482841 -0.56771 -0.610592 -0.608432 -0.517812 -0.400576 -0.322925 -0.256673 -0.193977 -0.132366 -0.0587414 0.0315633 0.101318 0.119865 0.068622 0.0191925 0 0.351312 0.359251 0.363503 0.360494 0.354483 0.333411 0.297665 0.248552 0.189212 0.120604 0.0462753 -0.0353026 -0.143601 -0.286411 -0.433035 -0.550458 -0.634721 -0.674095 -0.655975 -0.535831 -0.404583 -0.311717 -0.233672 -0.16543 -0.095683 -0.0080052 0.0734287 0.118004 0.0809974 0.0242386 0 0.362007 0.371949 0.385507 0.397872 0.395756 0.36755 0.320696 0.266271 0.208366 0.146139 0.0835127 0.0152409 -0.06051 -0.17079 -0.325724 -0.49013 -0.615677 -0.697048 -0.730622 -0.691383 -0.540965 -0.396085 -0.289674 -0.201232 -0.127461 -0.048834 0.0372426 0.100882 0.0894631 0.0305144 0 0.402443 0.409316 0.419616 0.425435 0.419871 0.386278 0.33407 0.276654 0.220082 0.165198 0.111118 0.0557645 -0.00757591 -0.0837238 -0.196056 -0.362267 -0.542807 -0.675827 -0.752092 -0.775582 -0.706123 -0.529006 -0.372649 -0.254654 -0.165331 -0.0879807 -0.00194381 0.0702958 0.0891113 0.0360178 0 0.47724 0.467546 0.443429 0.432664 0.430263 0.397295 0.340277 0.28171 0.2302 0.183807 0.138577 0.090557 0.037341 -0.026502 -0.105995 -0.220939 -0.394834 -0.587602 -0.725373 -0.79224 -0.801031 -0.693338 -0.500571 -0.333718 -0.204099 -0.119332 -0.0430476 0.0301536 0.0741141 0.0317276 0 0.569586 0.532068 0.444718 0.42645 0.42886 0.396882 0.339854 0.285431 0.242701 0.205965 0.168751 0.127092 0.0784801 0.0221225 -0.0428961 -0.125817 -0.243698 -0.418799 -0.612583 -0.751668 -0.813031 -0.795179 -0.659037 -0.46006 -0.289412 -0.162274 -0.0761909 -0.00868943 0.041123 0.0125689 0 0.665969 0.578803 0.431802 0.407899 0.415436 0.387495 0.338077 0.29138 0.257259 0.228865 0.198653 0.161587 0.118116 0.0696467 0.0113253 -0.0578555 -0.14004 -0.253549 -0.423452 -0.611399 -0.748666 -0.806288 -0.757522 -0.607571 -0.407743 -0.222495 -0.114182 -0.0506592 1.31519e-05 -0.0289414 0 0.694244 0.570441 0.389362 0.359003 0.358817 0.332607 0.28876 0.247853 0.224783 0.214126 0.202793 0.182471 0.151333 0.109539 0.060181 0.00379779 -0.0615595 -0.141211 -0.248412 -0.405105 -0.584586 -0.715968 -0.770799 -0.702469 -0.553597 -0.375804 -0.181772 -0.0781054 -0.0421988 -0.0962775 0 0.616615 0.430675 0.233304 0.172521 0.140568 0.10851 0.0671642 0.0374544 0.0346476 0.0521809 0.076655 0.097504 0.109486 0.109737 0.0949222 0.061678 0.00843288 -0.0551778 -0.124671 -0.222339 -0.361336 -0.53322 -0.662678 -0.718046 -0.649019 -0.518009 -0.330352 -0.150525 -0.0890016 -0.163392 0 0.303445 0.0923014 -0.0465238 -0.123418 -0.174451 -0.203428 -0.225656 -0.232409 -0.221255 -0.197198 -0.164203 -0.122918 -0.0736673 -0.0198017 0.0296083 0.0616442 0.0664784 0.0379543 -0.0248513 -0.0932594 -0.168339 -0.301568 -0.460514 -0.59867 -0.659562 -0.603565 -0.50802 -0.303775 -0.138019 -0.203859 0 -0.0642381 -0.211517 -0.240856 -0.291089 -0.330228 -0.347873 -0.35681 -0.354744 -0.346915 -0.336843 -0.321317 -0.296007 -0.257229 -0.203209 -0.134989 -0.0576315 0.0153171 0.0639339 0.0746801 0.0377974 -0.0408285 -0.110329 -0.218437 -0.400075 -0.540558 -0.607842 -0.56517 -0.463736 -0.281044 -0.209179 0 -0.131992 -0.268521 -0.245511 -0.270008 -0.292116 -0.297905 -0.301389 -0.304728 -0.312347 -0.323302 -0.332606 -0.335275 -0.326968 -0.302191 -0.255374 -0.190929 -0.113622 -0.0280593 0.0515448 0.0997334 0.106459 0.049913 -0.0446025 -0.147844 -0.326477 -0.485055 -0.554408 -0.545418 -0.398195 -0.193777 0 -0.0176183 -0.169713 -0.168974 -0.200395 -0.217558 -0.222593 -0.226257 -0.231137 -0.241148 -0.251561 -0.257165 -0.259776 -0.261221 -0.262325 -0.261186 -0.246088 -0.20423 -0.136298 -0.0525077 0.0413017 0.11689 0.156816 0.14001 0.0528649 -0.110447 -0.278151 -0.450257 -0.509266 -0.434295 -0.191439 0 0.0897982 -0.0390333 -0.101563 -0.138516 -0.147498 -0.149225 -0.149013 -0.154807 -0.166202 -0.17437 -0.179335 -0.181308 -0.181642 -0.181932 -0.183082 -0.185015 -0.185595 -0.173225 -0.130509 -0.056166 0.0402017 0.133781 0.186359 0.181605 0.111533 -0.0893645 -0.253354 -0.344268 -0.382496 -0.201694 0 0.443317 -0.00520954 -0.0621325 -0.0692146 -0.0888515 -0.0732231 -0.0705402 -0.0756744 -0.0835555 -0.0891688 -0.0928376 -0.0937199 -0.0936371 -0.093538 -0.0943197 -0.0961241 -0.0982519 -0.0997406 -0.0980574 -0.0819671 -0.0314997 0.0553808 0.14162 0.176464 0.138108 0.0709322 -0.0610914 -0.164229 -0.194567 -0.203101 0 3.31508 0 0 0 0 0 0 0 0 0 0 0 0 0 0 0 0 0 0 0 0 0 0 0 0 0 0 0 0 0 0
				</DataArray>
			</PointData>
			<CellData Scalars="Density">
				<DataArray Name="Density" type="Float32" format="ascii">