<?xml version="1.0"?>
<VTKFile type="PolyData">
	<PolyData>
		<Piece NumberOfPoints="961" NumberOfPolys="900">
			<Points>
				<DataArray type="Float32" NumberOfComponents="3" format="ascii">
 0 0 0 0.04 0 0 0.08 0 0 0.12 0 0 0.16 0 0 0.2 0 0 0.24 0 0 0.28 0 0 0.32 0 0 0.36 0 0 0.4 0 0 0.44 0 0 0.48 0 0 0.52 0 0 0.56 0 0 0.6 0 0 0.64 0 0 0.68 0 0 0.72 0 0 0.76 0 0 0.8 0 0 0.84 0 0 0.88 0 0 0.92 0 0 0.96 0 0 1 0 0 1.04 0 0 1.08 0 0 1.12 0 0 1.16 0 0 1.2 0 0 0 0.04 0 0.04 0.04 0 0.08 0.04 0 0.12 0.04 0 0.16 0.04 0 0.2 0.04 0 0.24 0.04 0 0.28 0.04 0 0.32 0.04 0 0.36 0.04 0 0.4 0.04 0 0.44 0.04 0 0.48 0.04 0 0.52 0.04 0 0.56 0.04 0 0.6 0.04 0 0.64 0.04 0 0.68 0.04 0 0.72 0.04 0 0.76 0.04 0 0.8 0.04 0 0.84 0.04 0 0.88 0.04 0 0.92 0.04 0 0.96 0.04 0 1 0.04 0 1.04 0.04 0 1.08 0.04 0 1.12 0.04 0 1.16 0.04 0 1.2 0.04 0 0 0.08 0 0.04 0.08 0 0.08 0.08 0 0.12 0.08 0 0.16 0.08 0 0.2 0.08 0 0.24 0.08 0 0.28 0.08 0 0.32 0.08 0 0.36 0.08 0 0.4 0.08 0 0.44 0.08 0 0.48 0.08 0 0.52 0.08 0 0.56 0.08 0 0.6 0.08 0 0.64 0.08 0 0.68 0.08 0 0.72 0.08 0 0.76 0.08 0 0.8 0.08 0 0.84 0.08 0 0.88 0.08 0 0.92 0.08 0 0.96 0.08 0 1 0.08 0 1.04 0.08 0 1.08 0.08 0 1.12 0.08 0 1.16 0.08 0 1.2 0.08 0 0 0.12 0 0.04 0.12 0 0.08 0.12 0 0.12 0.12 0 0.16 0.12 0 0.2 0.12 0 0.24 0.12 0 0.28 0.12 0 0.32 0.12 0 0.36 0.12 0 0.4 0.12 0 0.44 0.12 0 0.48 0.12 0 0.52 0.12 0 0.56 0.12 0 0.6 0.12 0 0.64 0.12 0 0.68 0.12 0 0.72 0.12 0 0.76 0.12 0 0.8 0.12 0 0.84 0.12 0 0.88 0.12 0 0.92 0.12 0 0.96 0.12 0 1 0.12 0 1.04 0.12 0 1.08 0.12 0 1.12 0.12 0 1.16 0.12 0 1.2 0.12 0 0 0.16 0 0.04 0.16 0 0.08 0.16 0 0.12 0.16 0 0.16 0.16 0 0.2 0.16 0 0.24 0.16 0 0.28 0.16 0 0.32 0.16 0 0.36 0.16 0 0.4 0.16 0 0.44 0.16 0 0.48 0.16 0 0.52 0.16 0 0.56 0.16 0 0.6 0.16 0 0.64 0.16 0 0.68 0.16 0 0.72 0.16 0 0.76 0.16 0 0.8 0.16 0 0.84 0.16 0 0.88 0.16 0 0.92 0.16 0 0.96 0.16 0 1 0.16 0 1.04 0.16 0 1.08 0.16 0 1.12 0.16 0 1.16 0.16 0 1.2 0.16 0 0 0.2 0 0.04 0.2 0 0.08 0.2 0 0.12 0.2 0 0.16 0.2 0 0.2 0.2 0 0.24 0.2 0 0.28 0.2 0 0.32 0.2 0 0.36 0.2 0 0.4 0.2 0 0.44 0.2 0 0.48 0.2 0 0.52 0.2 0 0.56 0.2 0 0.6 0.2 0 0.64 0.2 0 0.68 0.2 0 0.72 0.2 0 0.76 0.2 0 0.8 0.2 0 0.84 0.2 0 0.88 0.2 0 0.92 0.2 0 0.96 0.2 0 1 0.2 0 1.04 0.2 0 1.08 0.2 0 1.12 0.2 0 1.16 0.2 0 1.2 0.2 0 0 0.24 0 0.04 0.24 0 0.08 0.24 0 0.12 0.24 0 0.16 0.24 0 0.2 0.24 0 0.24 0.24 0 0.28 0.24 0 0.32 0.24 0 0.36 0.24 0 0.4 0.24 0 0.44 0.24 0 0.48 0.24 0 0.52 0.24 0 0.56 0.24 0 0.6 0.24 0 0.64 0.24 0 0.68 0.24 0 0.72 0.24 0 0.76 0.24 0 0.8 0.24 0 0.84 0.24 0 0.88 0.24 0 0.92 0.24 0 0.96 0.24 0 1 0.24 0 1.04 0.24 0 1.08 0.24 0 1.12 0.24 0 1.16 0.24 0 1.2 0.24 0 0 0.28 0 0.04 0.28 0 0.08 0.28 0 0.12 0.28 0 0.16 0.28 0 0.2 0.28 0 0.24 0.28 0 0.28 0.28 0 0.32 0.28 0 0.36 0.28 0 0.4 0.28 0 0.44 0.28 0 0.48 0.28 0 0.52 0.28 0 0.56 0.28 0 0.6 0.28 0 0.64 0.28 0 0.68 0.28 0 0.72 0.28 0 0.76 0.28 0 0.8 0.28 0 0.84 0.28 0 0.88 0.28 0 0.92 0.28 0 0.96 0.28 0 1 0.28 0 1.04 0.28 0 1.08 0.28 0 1.12 0.28 0 1.16 0.28 0 1.2 0.28 0 0 0.32 0 0.04 0.32 0 0.08 0.32 0 0.12 0.32 0 0.16 0.32 0 0.2 0.32 0 0.24 0.32 0 0.28 0.32 0 0.32 0.32 0 0.36 0.32 0 0.4 0.32 0 0.44 0.32 0 0.48 0.32 0 0.52 0.32 0 0.56 0.32 0 0.6 0.32 0 0.64 0.32 0 0.68 0.32 0 0.72 0.32 0 0.76 0.32 0 0.8 0.32 0 0.84 0.32 0 0.88 0.32 0 0.92 0.32 0 0.96 0.32 0 1 0.32 0 1.04 0.32 0 1.08 0.32 0 1.12 0.32 0 1.16 0.32 0 1.2 0.32 0 0 0.36 0 0.04 0.36 0 0.08 0.36 0 0.12 0.36 0 0.16 0.36 0 0.2 0.36 0 0.24 0.36 0 0.28 0.36 0 0.32 0.36 0 0.36 0.36 0 0.4 0.36 0 0.44 0.36 0 0.48 0.36 0 0.52 0.36 0 0.56 0.36 0 0.6 0.36 0 0.64 0.36 0 0.68 0.36 0 0.72 0.36 0 0.76 0.36 0 0.8 0.36 0 0.84 0.36 0 0.88 0.36 0 0.92 0.36 0 0.96 0.36 0 1 0.36 0 1.04 0.36 0 1.08 0.36 0 1.12 0.36 0 1.16 0.36 0 1.2 0.36 0 0 0.4 0 0.04 0.4 0 0.08 0.4 0 0.12 0.4 0 0.16 0.4 0 0.2 0.4 0 0.24 0.4 0 0.28 0.4 0 0.32 0.4 0 0.36 0.4 0 0.4 0.4 0 0.44 0.4 0 0.48 0.4 0 0.52 0.4 0 0.56 0.4 0 0.6 0.4 0 0.64 0.4 0 0.68 0.4 0 0.72 0.4 0 0.76 0.4 0 0.8 0.4 0 0.84 0.4 0 0.88 0.4 0 0.92 0.4 0 0.96 0.4 0 1 0.4 0 1.04 0.4 0 1.08 0.4 0 1.12 0.4 0 1.16 0.4 0 1.2 0.4 0 0 0.44 0 0.04 0.44 0 0.08 0.44 0 0.12 0.44 0 0.16 0.44 0 0.2 0.44 0 0.24 0.44 0 0.28 0.44 0 0.32 0.44 0 0.36 0.44 0 0.4 0.44 0 0.44 0.44 0 0.48 0.44 0 0.52 0.44 0 0.56 0.44 0 0.6 0.44 0 0.64 0.44 0 0.68 0.44 0 0.72 0.44 0 0.76 0.44 0 0.8 0.44 0 0.84 0.44 0 0.88 0.44 0 0.92 0.44 0 0.96 0.44 0 1 0.44 0 1.04 0.44 0 1.08 0.44 0 1.12 0.44 0 1.16 0.44 0 1.2 0.44 0 0 0.48 0 0.04 0.48 0 0.08 0.48 0 0.12 0.48 0 0.16 0.48 0 0.2 0.48 0 0.24 0.48 0 0.28 0.48 0 0.32 0.48 0 0.36 0.48 0 0.4 0.48 0 0.44 0.48 0 0.48 0.48 0 0.52 0.48 0 0.56 0.48 0 0.6 0.48 0 0.64 0.48 0 0.68 0.48 0 0.72 0.48 0 0.76 0.48 0 0.8 0.48 0 0.84 0.48 0 0.88 0.48 0 0.92 0.48 0 0.96 0.48 0 1 0.48 0 1.04 0.48 0 1.08 0.48 0 1.12 0.48 0 1.16 0.48 0 1.2 0.48 0 0 0.52 0 0.04 0.52 0 0.08 0.52 0 0.12 0.52 0 0.16 0.52 0 0.2 0.52 0 0.24 0.52 0 0.28 0.52 0 0.32 0.52 0 0.36 0.52 0 0.4 0.52 0 0.44 0.52 0 0.48 0.52 0 0.52 0.52 0 0.56 0.52 0 0.6 0.52 0 0.64 0.52 0 0.68 0.52 0 0.72 0.52 0 0.76 0.52 0 0.8 0.52 0 0.84 0.52 0 0.88 0.52 0 0.92 0.52 0 0.96 0.52 0 1 0.52 0 1.04 0.52 0 1.08 0.52 0 1.12 0.52 0 1.16 0.52 0 1.2 0.52 0 0 0.56 0 0.04 0.56 0 0.08 0.56 0 0.12 0.56 0 0.16 0.56 0 0.2 0.56 0 0.24 0.56 0 0.28 0.56 0 0.32 0.56 0 0.36 0.56 0 0.4 0.56 0 0.44 0.56 0 0.48 0.56 0 0.52 0.56 0 0.56 0.56 0 0.6 0.56 0 0.64 0.56 0 0.68 0.56 0 0.72 0.56 0 0.76 0.56 0 0.8 0.56 0 0.84 0.56 0 0.88 0.56 0 0.92 0.56 0 0.96 0.56 0 1 0.56 0 1.04 0.56 0 1.08 0.56 0 1.12 0.56 0 1.16 0.56 0 1.2 0.56 0 0 0.6 0 0.04 0.6 0 0.08 0.6 0 0.12 0.6 0 0.16 0.6 0 0.2 0.6 0 0.24 0.6 0 0.28 0.6 0 0.32 0.6 0 0.36 0.6 0 0.4 0.6 0 0.44 0.6 0 0.48 0.6 0 0.52 0.6 0 0.56 0.6 0 0.6 0.6 0 0.64 0.6 0 0.68 0.6 0 0.72 0.6 0 0.76 0.6 0 0.8 0.6 0 0.84 0.6 0 0.88 0.6 0 0.92 0.6 0 0.96 0.6 0 1 0.6 0 1.04 0.6 0 1.08 0.6 0 1.12 0.6 0 1.16 0.6 0 1.2 0.6 0 0 0.64 0 0.04 0.64 0 0.08 0.64 0 0.12 0.64 0 0.16 0.64 0 0.2 0.64 0 0.24 0.64 0 0.28 0.64 0 0.32 0.64 0 0.36 0.64 0 0.4 0.64 0 0.44 0.64 0 0.48 0.64 0 0.52 0.64 0 0.56 0.64 0 0.6 0.64 0 0.64 0.64 0 0.68 0.64 0 0.72 0.64 0 0.76 0.64 0 0.8 0.64 0 0.84 0.64 0 0.88 0.64 0 0.92 0.64 0 0.96 0.64 0 1 0.64 0 1.04 0.64 0 1.08 0.64 0 1.12 0.64 0 1.16 0.64 0 1.2 0.64 0 0 0.68 0 0.04 0.68 0 0.08 0.68 0 0.12 0.68 0 0.16 0.68 0 0.2 0.68 0 0.24 0.68 0 0.28 0.68 0 0.32 0.68 0 0.36 0.68 0 0.4 0.68 0 0.44 0.68 0 0.48 0.68 0 0.52 0.68 0 0.56 0.68 0 0.6 0.68 0 0.64 0.68 0 0.68 0.68 0 0.72 0.68 0 0.76 0.68 0 0.8 0.68 0 0.84 0.68 0 0.88 0.68 0 0.92 0.68 0 0.96 0.68 0 1 0.68 0 1.04 0.68 0 1.08 0.68 0 1.12 0.68 0 1.16 0.68 0 1.2 0.68 0 0 0.72 0 0.04 0.72 0 0.08 0.72 0 0.12 0.72 0 0.16 0.72 0 0.2 0.72 0 0.24 0.72 0 0.28 0.72 0 0.32 0.72 0 0.36 0.72 0 0.4 0.72 0 0.44 0.72 0 0.48 0.72 0 0.52 0.72 0 0.56 0.72 0 0.6 0.72 0 0.64 0.72 0 0.68 0.72 0 0.72 0.72 0 0.76 0.72 0 0.8 0.72 0 0.84 0.72 0 0.88 0.72 0 0.92 0.72 0 0.96 0.72 0 1 0.72 0 1.04 0.72 0 1.08 0.72 0 1.12 0.72 0 1.16 0.72 0 1.2 0.72 0 0 0.76 0 0.04 0.76 0 0.08 0.76 0 0.12 0.76 0 0.16 0.76 0 0.2 0.76 0 0.24 0.76 0 0.28 0.76 0 0.32 0.76 0 0.36 0.76 0 0.4 0.76 0 0.44 0.76 0 0.48 0.76 0 0.52 0.76 0 0.56 0.76 0 0.6 0.76 0 0.64 0.76 0 0.68 0.76 0 0.72 0.76 0 0.76 0.76 0 0.8 0.76 0 0.84 0.76 0 0.88 0.76 0 0.92 0.76 0 0.96 0.76 0 1 0.76 0 1.04 0.76 0 1.08 0.76 0 1.12 0.76 0 1.16 0.76 0 1.2 0.76 0 0 0.8 0 0.04 0.8 0 0.08 0.8 0 0.12 0.8 0 0.16 0.8 0 0.2 0.8 0 0.24 0.8 0 0.28 0.8 0 0.32 0.8 0 0.36 0.8 0 0.4 0.8 0 0.44 0.8 0 0.48 0.8 0 0.52 0.8 0 0.56 0.8 0 0.6 0.8 0 0.64 0.8 0 0.68 0.8 0 0.72 0.8 0 0.76 0.8 0 0.8 0.8 0 0.84 0.8 0 0.88 0.8 0 0.92 0.8 0 0.96 0.8 0 1 0.8 0 1.04 0.8 0 1.08 0.8 0 1.12 0.8 0 1.16 0.8 0 1.2 0.8 0 0 0.84 0 0.04 0.84 0 0.08 0.84 0 0.12 0.84 0 0.16 0.84 0 0.2 0.84 0 0.24 0.84 0 0.28 0.84 0 0.32 0.84 0 0.36 0.84 0 0.4 0.84 0 0.44 0.84 0 0.48 0.84 0 0.52 0.84 0 0.56 0.84 0 0.6 0.84 0 0.64 0.84 0 0.68 0.84 0 0.72 0.84 0 0.76 0.84 0 0.8 0.84 0 0.84 0.84 0 0.88 0.84 0 0.92 0.84 0 0.96 0.84 0 1 0.84 0 1.04 0.84 0 1.08 0.84 0 1.12 0.84 0 1.16 0.84 0 1.2 0.84 0 0 0.88 0 0.04 0.88 0 0.08 0.88 0 0.12 0.88 0 0.16 0.88 0 0.2 0.88 0 0.24 0.88 0 0.28 0.88 0 0.32 0.88 0 0.36 0.88 0 0.4 0.88 0 0.44 0.88 0 0.48 0.88 0 0.52 0.88 0 0.56 0.88 0 0.6 0.88 0 0.64 0.88 0 0.68 0.88 0 0.72 0.88 0 0.76 0.88 0 0.8 0.88 0 0.84 0.88 0 0.88 0.88 0 0.92 0.88 0 0.96 0.88 0 1 0.88 0 1.04 0.88 0 1.08 0.88 0 1.12 0.88 0 1.16 0.88 0 1.2 0.88 0 0 0.92 0 0.04 0.92 0 0.08 0.92 0 0.12 0.92 0 0.16 0.92 0 0.2 0.92 0 0.24 0.92 0 0.28 0.92 0 0.32 0.92 0 0.36 0.92 0 0.4 0.92 0 0.44 0.92 0 0.48 0.92 0 0.52 0.92 0 0.56 0.92 0 0.6 0.92 0 0.64 0.92 0 0.68 0.92 0 0.72 0.92 0 0.76 0.92 0 0.8 0.92 0 0.84 0.92 0 0.88 0.92 0 0.92 0.92 0 0.96 0.92 0 1 0.92 0 1.04 0.92 0 1.08 0.92 0 1.12 0.92 0 1.16 0.92 0 1.2 0.92 0 0 0.96 0 0.04 0.96 0 0.08 0.96 0 0.12 0.96 0 0.16 0.96 0 0.2 0.96 0 0.24 0.96 0 0.28 0.96 0 0.32 0.96 0 0.36 0.96 0 0.4 0.96 0 0.44 0.96 0 0.48 0.96 0 0.52 0.96 0 0.56 0.96 0 0.6 0.96 0 0.64 0.96 0 0.68 0.96 0 0.72 0.96 0 0.76 0.96 0 0.8 0.96 0 0.84 0.96 0 0.88 0.96 0 0.92 0.96 0 0.96 0.96 0 1 0.96 0 1.04 0.96 0 1.08 0.96 0 1.12 0.96 0 1.16 0.96 0 1.2 0.96 0 0 1 0 0.04 1 0 0.08 1 0 0.12 1 0 0.16 1 0 0.2 1 0 0.24 1 0 0.28 1 0 0.32 1 0 0.36 1 0 0.4 1 0 0.44 1 0 0.48 1 0 0.52 1 0 0.56 1 0 0.6 1 0 0.64 1 0 0.68 1 0 0.72 1 0 0.76 1 0 0.8 1 0 0.84 1 0 0.88 1 0 0.92 1 0 0.96 1 0 1 1 0 1.04 1 0 1.08 1 0 1.12 1 0 1.16 1 0 1.2 1 0 0 1.04 0 0.04 1.04 0 0.08 1.04 0 0.12 1.04 0 0.16 1.04 0 0.2 1.04 0 0.24 1.04 0 0.28 1.04 0 0.32 1.04 0 0.36 1.04 0 0.4 1.04 0 0.44 1.04 0 0.48 1.04 0 0.52 1.04 0 0.56 1.04 0 0.6 1.04 0 0.64 1.04 0 0.68 1.04 0 0.72 1.04 0 0.76 1.04 0 0.8 1.04 0 0.84 1.04 0 0.88 1.04 0 0.92 1.04 0 0.96 1.04 0 1 1.04 0 1.04 1.04 0 1.08 1.04 0 1.12 1.04 0 1.16 1.04 0 1.2 1.04 0 0 1.08 0 0.04 1.08 0 0.08 1.08 0 0.12 1.08 0 0.16 1.08 0 0.2 1.08 0 0.24 1.08 0 0.28 1.08 0 0.32 1.08 0 0.36 1.08 0 0.4 1.08 0 0.44 1.08 0 0.48 1.08 0 0.52 1.08 0 0.56 1.08 0 0.6 1.08 0 0.64 1.08 0 0.68 1.08 0 0.72 1.08 0 0.76 1.08 0 0.8 1.08 0 0.84 1.08 0 0.88 1.08 0 0.92 1.08 0 0.96 1.08 0 1 1.08 0 1.04 1.08 0 1.08 1.08 0 1.12 1.08 0 1.16 1.08 0 1.2 1.08 0 0 1.12 0 
[...]
			<PointData Scalars="VitesseX">
				<DataArray Name="VitesseX" type="Float32" format="ascii">
 0 -0.0210317 -0.0325031 -0.00588868 0.0169683 0.0420956 0.0742753 0.101063 0.124783 0.149855 0.172201 0.195805 0.219161 0.242903 0.266762 0.294036 0.317892 0.366184 0.407014 0.38536 0.303254 0.15266 0.0220475 0.000195355 3.28297e-08 3.86925e-12 -1.64708e-15 2.03175e-15 -6.95056e-15 6.95056e-15 0 0 0.0266605 0.0503419 0.0620962 0.0642336 0.0713848 0.0949806 0.115731 0.135447 0.157015 0.177112 0.198896 0.22094 0.243571 0.266668 0.293274 0.31668 0.366038 0.404393 0.381576 0.29812 0.147377 0.0203081 0.000167511 2.86338e-08 3.50866e-12 -1.68671e-15 2.03176e-15 -6.94796e-15 6.94788e-15 0 0 0.0287069 0.0801816 0.0953265 0.0976982 0.10319 0.118495 0.131372 0.146219 0.163986 0.181946 0.202264 0.223526 0.245588 0.268581 0.294462 0.317515 0.370216 0.401529 0.374871 0.285871 0.13283 0.0157959 0.000105168 1.90887e-08 2.60756e-12 2.71871e-15 1.05482e-15 -6.96804e-15 3.52279e-15 0 0 0.0208744 0.0734223 0.0899641 0.0938437 0.114921 0.131035 0.141824 0.156069 0.171375 0.187942 0.206973 0.227428 0.248746 0.271871 0.296439 0.320125 0.377185 0.397674 0.364522 0.266137 0.110187 0.0101421 4.77201e-05 9.79392e-09 1.57345e-12 1.44204e-16 1.5844e-17 -3.47298e-15 3.50917e-15 0 0 0.0126967 0.0508577 0.0771033 0.0915608 0.117843 0.133784 0.147735 0.16534 0.178901 0.195532 0.213259 0.23297 0.253195 0.276723 0.299204 0.325813 0.384947 0.391802 0.348668 0.23754 0.0812066 0.00515731 1.53837e-05 3.85219e-09 7.58737e-13 3.18068e-17 -3.46826e-15 2.23698e-17 3.45898e-15 0 0 0.0128032 0.0403096 0.068233 0.0930397 0.115876 0.131496 0.15193 0.170285 0.185438 0.203281 0.220464 0.239712 0.258915 0.28275 0.302452 0.336491 0.389609 0.382556 0.324645 0.198576 0.0503682 0.00197621 3.49115e-06 1.14206e-09 2.85886e-13 3.47054e-15 8.13509e-17 -3.52629e-15 -3.5726e-19 0 0 0.014379 0.0401429 0.0672212 0.0911777 0.11107 0.132561 0.155106 0.171636 0.190513 0.208592 0.227401 0.24542 0.265464 0.287967 0.306465 0.353642 0.387682 0.366766 0.290168 0.148686 0.0250308 0.000543231 5.76344e-07 2.5248e-10 8.25159e-14 3.52778e-15 -1.99119e-14 1.99121e-14 -3.52669e-15 0 0 0.0156929 0.0396663 0.065506 0.0883398 0.111691 0.134858 0.154407 0.173245 0.19307 0.212483 0.231755 0.249456 0.272231 0.290532 0.314035 0.369301 0.378081 0.341217 0.241752 0.0923133 0.00919343 0.00010082 7.87191e-08 4.33094e-11 1.83498e-14 -1.99117e-14 -1.71163e-23 1.71163e-23 1.99121e-14 0 0 0.0168558 0.0390052 0.0634901 0.0876159 0.111665 0.133493 0.153979 0.174079 0.19416 0.214838 0.232958 0.253969 0.275359 0.2917 0.33137 0.372336 0.36074 0.301028 0.17687 0.0431249 0.00229537 1.17118e-05 9.78163e-09 6.35508e-12 3.18701e-15 -1.99122e-14 -8.55176e-18 8.59889e-18 1.98907e-14 0 0 0.0176458 0.0382526 0.0612879 0.0853187 0.109049 0.131607 0.152892 0.173526 0.19468 0.214049 0.234244 0.257572 0.27424 0.29849 0.350991 0.361219 0.330156 0.241992 0.101783 0.0142246 0.00036047 8.45207e-07 9.58037e-10 7.97343e-13 2.76917e-16 3.52662e-15 -1.99205e-14 1.26406e-17 1.63404e-14 0 0 0.0179757 0.0377131 0.0591852 0.082077 0.105542 0.12843 0.150479 0.172174 0.192378 0.21313 0.23701 0.255703 0.274739 0.320579 0.350664 0.337791 0.279706 0.16126 0.0409869 0.00295443 3.20302e-05 5.04893e-08 6.79149e-11 7.14334e-14 8.06427e-18 -2.97229e-17 7.08276e-15 -2.69607e-14 2.34146e-14 0 0 0.0181963 0.037534 0.0579762 0.0795029 0.101829 0.124513 0.146922 0.168362 0.190544 0.214516 0.234692 0.253465 0.291112 0.33201 0.332305 0.295605 0.20363 0.0762118 0.010688 0.000346195 1.47455e-06 2.95825e-09 4.38876e-12 1.61747e-15 -3.69289e-17 6.88319e-16 1.7089e-15 -1.66077e-15 -1.7085e-14 0 0 0.0182253 0.0373619 0.0571917 0.0777305 0.0991527 0.121235 0.143697 0.167004 0.19071 0.211539 0.232023 0.266669 0.309503 0.31868 0.29551 0.225634 0.107911 0.0231158 0.00155328 1.95981e-05 5.09085e-08 1.23177e-10 2.25569e-13 2.35954e-14 -3.76842e-17 2.33173e-17 -5.7266e-14 5.72771e-14 -1.99086e-14 0 0 0.018205 0.0371641 0.0566605 0.076879 0.0980494 0.120272 0.14327 0.166083 0.187558 0.210789 0.246346 0.285818 0.29943 0.284441 0.230376 0.12789 0.0359 0.00392305 0.000108153 5.12195e-07 1.8078e-09 4.61014e-12 -1.01801e-14 -4.8668e-18 2.30731e-18 2.27401e-14 -5.54178e-14 5.54108e-14 -2.27396e-14 0 0 0.0183369 0.0373081 0.0568641 0.07718 0.0983503 0.120157 0.142129 0.164769 0.191594 0.228975 0.261715 0.276043 0.265451 0.221499 0.133528 0.0443311 0.00664075 0.000308468 2.88602e-06 1.23351e-08 4.47467e-11 1.51767e-13 -1.62203e-14 -1.33026e-18 1.48349e-18 -6.0676e-19 2.34365e-14 -2.34365e-14 -5.53916e-18 0 0 0.0186408 0.0377676 0.0574474 0.0777012 0.0986692 0.120952 0.146103 0.177176 0.210811 0.236622 0.249057 0.240001 0.201737 0.125632 0.0458411 0.00832345 0.000540861 8.58612e-06 4.63534e-08 2.52778e-10 1.14842e-12 -1.94583e-14 3.5189e-15 2.34377e-14 -1.0242e-18 -4.68716e-14 4.68715e-14 -4.68715e-14 4.68739e-14 0 0 0.0189858 0.0387333 0.0595037 0.0816596 0.106151 0.133801 0.162382 0.188462 0.2098 0.218105 0.208538 0.172847 0.106687 0.0404033 0.00809524 0.000640423 1.43851e-05 1.03203e-07 7.81207e-10 4.31767e-12 1.97466e-14 5.48035e-16 2.34394e-14 -2.34377e-14 2.94044e-20 -7.40896e-19 2.34366e-14 -2.34366e-14 -5.5395e-18 0 0 0.0216743 0.0444029 0.067999 0.0922637 0.116663 0.140276 0.16247 0.178359 0.182484 0.170848 0.136244 0.0802548 0.0300936 0.00613874 0.000528498 1.43192e-05 1.34666e-07 1.34925e-09 9.57478e-12 9.49347e-14 -4.67588e-14 4.68998e-14 -2.34433e-14 6.37914e-18 -9.22324e-21 2.34352e-14 -6.40934e-14 6.40933e-14 -2.34414e-14 0 0 0.0236138 0.0470643 0.0700444 0.0924962 0.113425 0.13065 0.141286 0.141236 0.126776 0.0943798 0.0513181 0.0182063 0.00349668 0.00029642 8.46948e-06 1.02054e-07 1.34335e-09 1.24561e-11 1.19443e-13 -4.03577e-14 4.09612e-14 -3.19521e-16 1.71187e-17 3.38447e-18 2.66192e-18 2.34352e-14 -6.40934e-14 4.06531e-14 -9.30764e-18 0 0 0.0226181 0.0440239 0.0635893 0.0804572 0.0929057 0.0984853 0.0946054 0.0790264 0.0533499 0.0260996 0.0081926 0.00136543 0.000103177 2.81734e-06 4.52949e-08 7.70615e-10 9.4777e-12 1.19735e-13 4.56769e-16 -4.09755e-14 4.09722e-14 -3.31039e-16 2.15266e-17 -9.93958e-19 2.67115e-18 -7.40896e-19 2.34365e-14 -4.68768e-14 2.34266e-14 0 0 0.0176927 0.0329075 0.0447923 0.0521455 0.0534923 0.0482726 0.0367826 0.021902 0.00911255 0.00229679 0.000307806 1.86502e-05 4.91267e-07 1.19214e-08 2.46386e-10 4.2623e-12 4.71204e-14 -3.97289e-14 4.03375e-14 -1.5023e-17 1.13629e-17 2.34473e-14 -4.68776e-14 4.68776e-14 -9.9489e-21 -4.68716e-14 4.68707e-14 -2.34335e-14 2.34356e-14 0 0 0.00851366 0.0148419 0.01826 0.0184754 0.0156205 0.0104369 0.00504153 0.00158141 0.000294531 2.90759e-05 1.37977e-06 4.75963e-08 1.72882e-09 4.28184e-11 1.07496e-12 2.0569e-14 1.20495e-16 -4.03221e-14 4.03341e-14 -1.20421e-17 2.72639e-17 -2.05286e-17 3.34004e-16 -3.20455e-16 2.92997e-18 1.05359e-18 2.34339e-14 -2.34335e-14 2.34355e-14 0 0 0.00160435 0.00256963 0.00261946 0.00191466 0.000983231 0.000342704 7.66367e-05 1.00114e-05 7.49351e-07 4.49113e-08 2.72816e-09 1.14698e-10 4.32434e-12 1.45272e-13 -1.35155e-14 5.45349e-16 -2.00189e-17 3.19152e-16 -3.07634e-16 2.34473e-14 -4.68841e-14 2.34339e-14 3.10507e-16 -2.99127e-16 1.64543e-18 2.34382e-14 -2.34398e-14 -2.34379e-14 4.68791e-14 0 0 2.42432e-05 3.05141e-05 2.07543e-05 8.80677e-06 2.39309e-06 4.31354e-07 6.08545e-08 8.00129e-09 8.31783e-10 5.97479e-11 3.912e-12 2.13749e-13 2.92925e-14 -2.32593e-14 3.51903e-15 2.34376e-14 -2.34432e-14 -1.65338e-17 2.09417e-17 -2.02412e-18 3.09032e-16 -3.28254e-16 3.04119e-19 1.98237e-17 5.6937e-18 -2.67085e-17 3.41057e-16 -3.23943e-16 -4.06656e-14 0 0 4.00606e-09 5.22916e-09 3.91631e-09 1.99577e-09 7.12817e-10 1.77258e-10 3.20915e-11 4.89911e-12 6.57924e-13 6.85331e-14 1.29283e-15 -1.62224e-14 -3.89392e-18 5.67283e-19 2.34373e-14 -2.34356e-14 -8.56727e-18 6.21961e-18 -1.78224e-18 1.3533e-19 3.20455e-16 -3.41846e-16 2.26446e-17 -1.38811e-18 6.9588e-18 -2.98744e-17 -4.03124e-14 6.37683e-14 -6.41024e-14 0 0 3.60806e-13 5.33884e-13 5.00991e-13 3.14331e-13 1.51824e-13 5.16735e-14 1.95835e-14 -4.40443e-15 2.61399e-16 7.01308e-18 -3.67657e-17 7.08942e-15 -4.6876e-14 4.68754e-14 -1.08298e-18 -4.68715e-14 4.68715e-14 -4.68742e-14 4.68742e-14 9.94609e-21 -4.68745e-14 4.68732e-14 -4.68694e-14 4.68707e-14 -7.40627e-19 -1.84111e-18 -1.28195e-13 1.28193e-13 5.38647e-18 0 0 3.96286e-17 -2.4134e-15 1.8087e-16 9.34881e-18 -3.42164e-15 3.5273e-15 -1.99117e-14 1.99121e-14 -3.52661e-15 -3.04304e-17 6.73726e-16 5.71317e-15 -2.2743e-14 8.74885e-19 4.0286e-34 -7.40896e-19 2.34366e-14 -2.34366e-14 7.40896e-19 -2.42069e-24 1.05358e-18 2.34334e-14 -4.68904e-14 4.68899e-14 4.14768e-19 -6.4123e-14 6.62621e-16 -6.62739e-16 6.41253e-14 0 0 1.66583e-30 1.05474e-15 -6.90079e-15 3.49457e-15 8.16127e-17 -1.9912e-14 -2.82792e-34 -8.55173e-18 1.99209e-14 -3.10686e-17 -3.98145e-15 -4.92715e-14 5.68066e-14 -2.34351e-14 -4.27698e-34 2.34352e-14 -6.40934e-14 6.40933e-14 -2.34351e-14 -8.1361e-19 2.34377e-14 -2.34398e-14 2.98821e-16 -4.09561e-14 -8.47217e-18 6.22538e-16 4.64211e-17 -4.65391e-17 -5.93889e-16 0 0 -2.91544e-16 -3.52919e-15 -3.46082e-15 4.98639e-17 3.52701e-15 -1.99122e-14 7.27698e-23 -8.50466e-18 1.29883e-17 1.99068e-14 -3.99325e-15 -4.92968e-14 5.68137e-14 -2.34351e-14 -2.28439e-34 2.34352e-14 -6.40934e-14 4.06531e-14 5.12555e-18 2.34364e-14 -2.34363e-14 -2.34439e-14 4.71978e-14 -6.44162e-14 -6.34437e-18 6.2242e-16 4.65393e-17 -4.63423e-17 -5.94086e-16 0 0 -1.17886e-10 -7.02015e-15 3.47477e-15 -3.43162e-15 3.5726e-19 3.52654e-15 -1.99121e-14 1.98908e-14 -2.34327e-14 2.34533e-14 -2.27395e-14 2.55637e-14 -2.2744e-14 9.40729e-18 -2.92808e-38 -9.40695e-18 2.34451e-14 -4.68935e-14 2.34577e-14 2.3436e-14 -2.34361e-14 -4.89941e-18 -4.06719e-14 6.41089e-14 1.12501e-18 -6.4121e-14 6.86967e-16 -6.8677e-16 6.4123e-14 0 0 0 0 0 0 0 0 0 0 0 0 0 0 0 0 0 0 0 0 0 0 0 0 0 0 0 0 0 0 0 0
				</DataArray>
				<DataArray Name="VitesseY" type="Float32" format="ascii">
 0 0 0 0 0 0 0 0 0 0 0 0 0 0 0 0 0 0 0 0 0 0 0 0 0 0 0 0 0 0 0 -0.0210153 0.0266611 0.0287046 0.02087 0.0126938 0.0128014 0.0143781 0.0156928 0.0168567 0.0176468 0.0179764 0.0181967 0.0182258 0.0182057 0.0183375 0.0186411 0.0189858 0.021674 0.0236131 0.0226171 0.0176914 0.00851264 0.00160407 2.42349e-05 4.00427e-09 3.60663e-13 3.96285e-17 1.02936e-20 2.61696e-18 2.53249e-18 0 -0.0324866 0.0503536 0.0801813 0.0734199 0.0508554 0.0403077 0.040141 0.039665 0.0390054 0.0382538 0.0377139 0.0375347 0.0373628 0.0371652 0.037309 0.037768 0.0387332 0.0444022 0.0470629 0.044022 0.0329051 0.0148402 0.0025692 3.0504e-05 5.22697e-09 5.33656e-13 -2.41347e-15 1.05463e-15 5.50118e-17 -3.39007e-15 0 -0.00587953 0.0621123 0.0953329 0.0899663 0.077101 0.0682291 0.0672173 0.0655023 0.0634882 0.0612878 0.0591859 0.0579774 0.0571931 0.0566618 0.056865 0.0574477 0.0595036 0.0679979 0.0700424 0.0635865 0.0447891 0.018258 0.00261905 2.07479e-05 3.91482e-09 5.00785e-13 1.80936e-16 -6.90065e-15 -3.44496e-15 3.48155e-15 0 0.0169698 0.0642436 0.097706 0.0938483 0.0915641 0.0930397 0.0911747 0.0883352 0.0876121 0.0853175 0.0820784 0.0795049 0.0777322 0.0768803 0.0771809 0.0777015 0.0816595 0.0922621 0.0924937 0.0804537 0.0521421 0.0184738 0.0019144 8.80432e-06 1.99509e-09 3.14234e-13 9.34888e-18 3.49444e-15 4.99931e-17 -3.43136e-15 0 0.0420961 0.0713935 0.103203 0.114928 0.117845 0.115874 0.111066 0.111686 0.11166 0.109047 0.105543 0.101832 0.0991548 0.0980507 0.0983511 0.0986697 0.106151 0.116661 0.113422 0.0929024 0.0534894 0.0156195 0.000983124 2.39253e-06 7.12606e-10 1.51766e-13 -3.42164e-15 8.16127e-17 3.52701e-15 3.57225e-19 0 0.0742735 0.094985 0.118504 0.131042 0.133787 0.131495 0.132557 0.134853 0.133488 0.131605 0.12843 0.124516 0.121237 0.120273 0.120158 0.120953 0.133801 0.140275 0.130648 0.0984826 0.0482708 0.0104366 0.000342681 4.3128e-07 1.77215e-10 5.16531e-14 3.5273e-15 -1.9912e-14 -1.99122e-14 3.52654e-15 0 0.101063 0.115736 0.13138 0.141831 0.147737 0.151928 0.155103 0.154403 0.153976 0.15289 0.150479 0.146924 0.143699 0.143272 0.142131 0.146103 0.162381 0.162469 0.141285 0.0946042 0.0367822 0.00504154 7.6635e-05 6.08488e-08 3.2086e-11 1.9568e-14 -1.99117e-14 -3.13982e-24 8.30734e-23 -1.99121e-14 0 0.124784 0.135451 0.146225 0.156074 0.165341 0.170284 0.171633 0.173242 0.174076 0.173525 0.172174 0.168363 0.167005 0.166084 0.16477 0.177176 0.188462 0.178359 0.141236 0.079027 0.0219025 0.00158148 1.00117e-05 8.00106e-09 4.89859e-12 -4.4043e-15 1.99121e-14 -8.55172e-18 -8.50467e-18 1.98908e-14 0 0.149858 0.157019 0.163991 0.171378 0.178901 0.185436 0.190511 0.193068 0.194158 0.194679 0.192378 0.190545 0.190711 0.187558 0.191594 0.210811 0.209801 0.182485 0.126778 0.0533518 0.00911311 0.00029456 7.49423e-07 8.3181e-10 6.57914e-13 2.61136e-16 -3.52661e-15 1.99209e-14 1.29883e-17 -2.34327e-14 0 0.172204 0.177117 0.18195 0.187944 0.195532 0.203278 0.208589 0.212481 0.214837 0.214048 0.21313 0.214517 0.21154 0.210789 0.228975 0.236623 0.218107 0.170851 0.094383 0.0261012 0.00229702 2.90803e-05 4.49172e-08 5.97533e-11 6.85332e-14 7.01308e-18 -3.04304e-17 -3.10686e-17 1.99068e-14 2.34533e-14 0 0.195809 0.198901 0.202268 0.206975 0.213259 0.220461 0.227397 0.231752 0.232956 0.234242 0.23701 0.234692 0.232023 0.246346 0.261717 0.249059 0.208541 0.136248 0.0513207 0.00819329 0.000307849 1.38004e-06 2.7286e-09 3.91246e-12 1.29795e-15 -3.67657e-17 6.73726e-16 -3.98145e-15 -3.99325e-15 -2.27395e-14 0 0.219165 0.220945 0.22353 0.22743 0.23297 0.239709 0.245417 0.249452 0.253967 0.257571 0.255702 0.253465 0.266668 0.285819 0.276045 0.240004 0.17285 0.0802577 0.0182074 0.00136558 1.86535e-05 4.76051e-08 1.14721e-10 2.13831e-13 -1.62225e-14 7.08942e-15 5.71317e-15 -4.92715e-14 -4.92968e-14 2.55637e-14 0 0.242908 0.243576 0.245593 0.248748 0.253196 0.258913 0.26546 0.272228 0.275357 0.274238 0.274739 0.291112 0.309503 0.29943 0.265453 0.20174 0.106689 0.0300949 0.00349694 0.00010319 4.91359e-07 1.72915e-09 4.32519e-12 2.92926e-14 -3.8939e-18 -4.6876e-14 -2.2743e-14 5.68066e-14 5.68137e-14 -2.2744e-14 0 0.266767 0.266673 0.268585 0.271874 0.276724 0.282749 0.287964 0.290528 0.291697 0.298489 0.320579 0.33201 0.31868 0.284441 0.221501 0.125633 0.0404043 0.00613903 0.000296445 2.81774e-06 1.19232e-08 4.28261e-11 1.45262e-13 -2.32593e-14 5.67314e-19 4.68754e-14 8.74921e-19 -2.34351e-14 -2.34351e-14 9.40735e-18 0 0.294042 0.293279 0.294467 0.296442 0.299206 0.302452 0.306462 0.314032 0.331368 0.350989 0.350662 0.332304 0.29551 0.230376 0.133528 0.0458413 0.00809538 0.00052852 8.47024e-06 4.53001e-08 2.46422e-10 1.07514e-12 -1.35155e-14 3.51903e-15 2.34373e-14 -1.08303e-18 3.60429e-23 4.46919e-23 1.35639e-24 6.6105e-23 0 0.317896 0.316684 0.317518 0.320127 0.325813 0.33649 0.35364 0.369298 0.372333 0.361216 0.337788 0.295603 0.225631 0.127889 0.0443304 0.00832337 0.000640424 1.43196e-05 1.02061e-07 7.70686e-10 4.26283e-12 2.05585e-14 5.45349e-16 2.34376e-14 -2.34356e-14 -4.68715e-14 -7.40896e-19 2.34352e-14 2.34352e-14 -9.40692e-18 0 0.366183 0.366037 0.370214 0.377184 0.384945 0.389608 0.387679 0.378078 0.360736 0.330152 0.279701 0.203626 0.107908 0.0358987 0.00664047 0.00054084 1.43847e-05 1.34666e-07 1.34339e-09 9.47823e-12 4.70895e-14 1.20495e-16 -2.0019e-17 -2.34432e-14 -8.56731e-18 4.68715e-14 2.34366e-14 -6.40934e-14 -6.40934e-14 2.34451e-14 0 0.407015 0.404394 0.40153 0.397675 0.391802 0.382555 0.366764 0.341214 0.301024 0.241986 0.161255 0.0762083 0.0231144 0.00392276 0.000308442 8.58536e-06 1.03197e-07 1.34921e-09 1.24562e-11 1.19766e-13 -3.97186e-14 -4.03221e-14 3.19152e-16 -1.65337e-17 6.21964e-18 -4.68742e-14 -2.34366e-14 6.40933e-14 4.06531e-14 -4.68935e-14 0 0.385364 0.381579 0.374874 0.364524 0.348669 0.324645 0.290166 0.241748 0.176865 0.101778 0.0409843 0.0106871 0.00155311 0.000108138 2.88562e-06 4.63483e-08 7.81136e-10 9.57417e-12 1.19433e-13 4.56769e-16 4.03375e-14 4.03341e-14 -3.07634e-16 2.09417e-17 -1.78217e-18 4.68742e-14 7.40932e-19 -2.34351e-14 5.12556e-18 2.34577e-14 0 0.303261 0.298127 0.285877 0.266142 0.237543 0.198577 0.148685 0.0923109 0.0431226 0.0142235 0.0029541 0.000346146 1.95946e-05 5.121e-07 1.23332e-08 2.52742e-10 4.31716e-12 9.49451e-14 -4.0368e-14 -4.09755e-14 -1.5023e-17 -1.20421e-17 2.34473e-14 -2.02405e-18 1.35342e-19 9.9038e-21 3.36219e-23 -8.13635e-19 2.34364e-14 2.3436e-14 0 0.152668 0.147385 0.132837 0.110193 0.0812098 0.0503693 0.0250309 0.00919316 0.00229523 0.000360432 3.20252e-05 1.47426e-06 5.0899e-08 1.80746e-09 4.47386e-11 1.14826e-12 1.97571e-14 -4.67588e-14 4.09612e-14 4.09722e-14 1.13629e-17 2.72639e-17 -4.68841e-14 3.09032e-16 3.20455e-16 -4.68745e-14 1.05362e-18 2.34377e-14 -2.34363e-14 -2.34361e-14 0 0.0220507 0.020311 0.0157981 0.0101434 0.00515787 0.00197637 0.000543257 0.000100821 1.17112e-05 8.45121e-07 5.04825e-08 2.95776e-09 1.23153e-10 4.60932e-12 1.51777e-13 -1.94583e-14 5.48035e-16 4.68998e-14 -3.19521e-16 -3.31039e-16 2.34473e-14 -2.05286e-17 2.34339e-14 -3.28254e-16 -3.41846e-16 4.68732e-14 2.34334e-14 -2.34398e-14 -2.34439e-14 -4.89938e-18 0 0.000195418 0.000167564 0.0001052 4.77336e-05 1.53876e-05 3.49189e-06 5.7643e-07 7.87252e-08 9.78179e-09 9.57998e-10 6.79084e-11 4.38815e-12 2.25487e-13 -1.01803e-14 -1.62203e-14 3.5189e-15 2.34394e-14 -2.34433e-14 1.71188e-17 2.15266e-17 -4.68776e-14 3.34004e-16 3.10507e-16 3.04203e-19 2.26446e-17 -4.68694e-14 -4.68904e-14 2.98821e-16 4.71978e-14 -4.06719e-14 0 3.2843e-08 2.86451e-08 1.90959e-08 9.79731e-09 3.85339e-09 1.14237e-09 2.52535e-10 4.3316e-11 6.35561e-12 7.97343e-13 7.14231e-14 1.61248e-15 2.35955e-14 -4.86685e-18 -1.33026e-18 2.34377e-14 -2.34377e-14 6.37915e-18 3.38449e-18 -9.9396e-19 4.68776e-14 -3.20455e-16 -2.99127e-16 1.98237e-17 -1.38805e-18 4.68707e-14 4.68899e-14 -4.09561e-14 -6.44162e-14 6.41089e-14 0 3.87079e-12 3.51006e-12 2.60858e-12 1.57404e-12 7.59024e-13 2.86017e-13 8.25676e-14 1.83656e-14 3.1874e-15 2.7718e-16 8.06421e-18 -3.69289e-17 -3.76843e-17 2.30732e-18 1.48355e-18 -1.02425e-18 2.94404e-20 -9.18017e-21 2.66197e-18 2.67119e-18 -9.99846e-21 2.93003e-18 1.64542e-18 5.6937e-18 6.95884e-18 -7.40587e-19 4.14723e-19 -8.4722e-18 -6.34436e-18 1.12501e-18 0 -1.64708e-15 -1.68671e-15 2.71865e-15 1.44138e-16 3.18069e-17 3.47054e-15 3.52778e-15 -1.99117e-14 -1.99122e-14 3.52662e-15 -2.97229e-17 6.88319e-16 2.33173e-17 2.27401e-14 -6.0678e-19 -4.68716e-14 -7.40896e-19 2.34352e-14 2.34352e-14 -7.40896e-19 -4.68716e-14 1.05359e-18 2.34382e-14 -2.67084e-17 -2.98745e-17 -1.84113e-18 -6.4123e-14 6.22538e-16 6.2242e-16 -6.4121e-14 0 2.03158e-15 2.03158e-15 1.05474e-15 1.5716e-17 -3.46839e-15 8.13508e-17 -1.99119e-14 -2.1904e-23 -8.55173e-18 -1.99205e-14 7.08276e-15 1.7089e-15 -5.7266e-14 -5.54178e-14 2.34365e-14 4.68715e-14 2.34366e-14 -6.40934e-14 -6.40934e-14 2.34365e-14 4.68707e-14 2.34339e-14 -2.34398e-14 3.41057e-16 -4.03124e-14 -1.28195e-13 6.62621e-16 4.64211e-17 4.65394e-17 6.86967e-16 0 8.38485e-16 5.46941e-16 -3.35168e-15 -3.45661e-15 2.2766e-17 -3.52629e-15 1.99121e-14 2.96629e-23 8.59886e-18 1.26406e-17 -2.69607e-14 -1.66077e-15 5.72771e-14 5.54108e-14 -2.34365e-14 -4.68715e-14 -2.34366e-14 6.40933e-14 4.06531e-14 -4.68768e-14 -2.34335e-14 -2.34335e-14 -2.34379e-14 -3.23943e-16 6.37683e-14 1.28193e-13 -6.62739e-16 -4.65391e-17 -4.63423e-17 -6.8677e-16 0 2.35772e-10 1.17886e-10 -6.5577e-17 3.48399e-15 3.45872e-15 -3.57251e-19 -3.52669e-15 1.99121e-14 1.98907e-14 1.63404e-14 2.34146e-14 -1.7085e-14 -1.99086e-14 -2.27396e-14 -5.53913e-18 4.68739e-14 -5.5395e-18 -2.34414e-14 -9.30771e-18 2.34266e-14 2.34356e-14 2.34355e-14 4.68791e-14 -4.06656e-14 -6.41024e-14 5.38643e-18 6.41253e-14 -5.93889e-16 -5.94086e-16 6.4123e-14 0 1.91958e-05 0 0 0 0 0 0 0 0 0 0 0 0 0 0 0 0 0 0 0 0 0 0 0 0 0 0 0 0 0 0
				</DataArray>
			</PointData>
			<CellData Scalars="Density">
				<DataArray Name="Density" type="Float32" format="ascii">