<?xml version="1.0"?>
<VTKFile type="PolyData">
	<PolyData>
		<Piece NumberOfPoints="961" NumberOfPolys="900">
			<Points>
				<DataArray type="Float32" NumberOfComponents="3" format="ascii">
 0 0 0 0.04 0 0 0.08 0 0 0.12 0 0 0.16 0 0 0.2 0 0 0.24 0 0 0.28 0 0 0.32 0 0 0.36 0 0 0.4 0 0 0.44 0 0 0.48 0 0 0.52 0 0 0.56 0 0 0.6 0 0 0.64 0 0 0.68 0 0 0.72 0 0 0.76 0 0 0.8 0 0 0.84 0 0 0.88 0 0 0.92 0 0 0.96 0 0 1 0 0 1.04 0 0 1.08 0 0 1.12 0 0 1.16 0 0 1.2 0 0 0 0.04 0 0.04 0.04 0 0.08 0.04 0 0.12 0.04 0 0.16 0.04 0 0.2 0.04 0 0.24 0.04 0 0.28 0.04 0 0.32 0.04 0 0.36 0.04 0 0.4 0.04 0 0.44 0.04 0 0.48 0.04 0 0.52 0.04 0 0.56 0.04 0 0.6 0.04 0 0.64 0.04 0 0.68 0.04 0 0.72 0.04 0 0.76 0.04 0 0.8 0.04 0 0.84 0.04 0 0.88 0.04 0 0.92 0.04 0 0.96 0.04 0 1 0.04 0 1.04 0.04 0 1.08 0.04 0 1.12 0.04 0 1.16 0.04 0 1.2 0.04 0 0 0.08 0 0.04 0.08 0 0.08 0.08 0 0.12 0.08 0 0.16 0.08 0 0.2 0.08 0 0.24 0.08 0 0.28 0.08 0 0.32 0.08 0 0.36 0.08 0 0.4 0.08 0 0.44 0.08 0 0.48 0.08 0 0.52 0.08 0 0.56 0.08 0 0.6 0.08 0 0.64 0.08 0 0.68 0.08 0 0.72 0.08 0 0.76 0.08 0 0.8 0.08 0 0.84 0.08 0 0.88 0.08 0 0.92 0.08 0 0.96 0.08 0 1 0.08 0 1.04 0.08 0 1.08 0.08 0 1.12 0.08 0 1.16 0.08 0 1.2 0.08 0 0 0.12 0 0.04 0.12 0 0.08 0.12 0 0.12 0.12 0 0.16 0.12 0 0.2 0.12 0 0.24 0.12 0 0.28 0.12 0 0.32 0.12 0 0.36 0.12 0 0.4 0.12 0 0.44 0.12 0 0.48 0.12 0 0.52 0.12 0 0.56 0.12 0 0.6 0.12 0 0.64 0.12 0 0.68 0.12 0 0.72 0.12 0 0.76 0.12 0 0.8 0.12 0 0.84 0.12 0 0.88 0.12 0 0.92 0.12 0 0.96 0.12 0 1 0.12 0 1.04 0.12 0 1.08 0.12 0 1.12 0.12 0 1.16 0.12 0 1.2 0.12 0 0 0.16 0 0.04 0.16 0 0.08 0.16 0 0.12 0.16 0 0.16 0.16 0 0.2 0.16 0 0.24 0.16 0 0.28 0.16 0 0.32 0.16 0 0.36 0.16 0 0.4 0.16 0 0.44 0.16 0 0.48 0.16 0 0.52 0.16 0 0.56 0.16 0 0.6 0.16 0 0.64 0.16 0 0.68 0.16 0 0.72 0.16 0 0.76 0.16 0 0.8 0.16 0 0.84 0.16 0 0.88 0.16 0 0.92 0.16 0 0.96 0.16 0 1 0.16 0 1.04 0.16 0 1.08 0.16 0 1.12 0.16 0 1.16 0.16 0 1.2 0.16 0 0 0.2 0 0.04 0.2 0 0.08 0.2 0 0.12 0.2 0 0.16 0.2 0 0.2 0.2 0 0.24 0.2 0 0.28 0.2 0 0.32 0.2 0 0.36 0.2 0 0.4 0.2 0 0.44 0.2 0 0.48 0.2 0 0.52 0.2 0 0.56 0.2 0 0.6 0.2 0 0.64 0.2 0 0.68 0.2 0 0.72 0.2 0 0.76 0.2 0 0.8 0.2 0 0.84 0.2 0 0.88 0.2 0 0.92 0.2 0 0.96 0.2 0 1 0.2 0 1.04 0.2 0 1.08 0.2 0 1.12 0.2 0 1.16 0.2 0 1.2 0.2 0 0 0.24 0 0.04 0.24 0 0.08 0.24 0 0.12 0.24 0 0.16 0.24 0 0.2 0.24 0 0.24 0.24 0 0.28 0.24 0 0.32 0.24 0 0.36 0.24 0 0.4 0.24 0 0.44 0.24 0 0.48 0.24 0 0.52 0.24 0 0.56 0.24 0 0.6 0.24 0 0.64 0.24 0 0.68 0.24 0 0.72 0.24 0 0.76 0.24 0 0.8 0.24 0 0.84 0.24 0 0.88 0.24 0 0.92 0.24 0 0.96 0.24 0 1 0.24 0 1.04 0.24 0 1.08 0.24 0 1.12 0.24 0 1.16 0.24 0 1.2 0.24 0 0 0.28 0 0.04 0.28 0 0.08 0.28 0 0.12 0.28 0 0.16 0.28 0 0.2 0.28 0 0.24 0.28 0 0.28 0.28 0 0.32 0.28 0 0.36 0.28 0 0.4 0.28 0 0.44 0.28 0 0.48 0.28 0 0.52 0.28 0 0.56 0.28 0 0.6 0.28 0 0.64 0.28 0 0.68 0.28 0 0.72 0.28 0 0.76 0.28 0 0.8 0.28 0 0.84 0.28 0 0.88 0.28 0 0.92 0.28 0 0.96 0.28 0 1 0.28 0 1.04 0.28 0 1.08 0.28 0 1.12 0.28 0 1.16 0.28 0 1.2 0.28 0 0 0.32 0 0.04 0.32 0 0.08 0.32 0 0.12 0.32 0 0.16 0.32 0 0.2 0.32 0 0.24 0.32 0 0.28 0.32 0 0.32 0.32 0 0.36 0.32 0 0.4 0.32 0 0.44 0.32 0 0.48 0.32 0 0.52 0.32 0 0.56 0.32 0 0.6 0.32 0 0.64 0.32 0 0.68 0.32 0 0.72 0.32 0 0.76 0.32 0 0.8 0.32 0 0.84 0.32 0 0.88 0.32 0 0.92 0.32 0 0.96 0.32 0 1 0.32 0 1.04 0.32 0 1.08 0.32 0 1.12 0.32 0 1.16 0.32 0 1.2 0.32 0 0 0.36 0 0.04 0.36 0 0.08 0.36 0 0.12 0.36 0 0.16 0.36 0 0.2 0.36 0 0.24 0.36 0 0.28 0.36 0 0.32 0.36 0 0.36 0.36 0 0.4 0.36 0 0.44 0.36 0 0.48 0.36 0 0.52 0.36 0 0.56 0.36 0 0.6 0.36 0 0.64 0.36 0 0.68 0.36 0 0.72 0.36 0 0.76 0.36 0 0.8 0.36 0 0.84 0.36 0 0.88 0.36 0 0.92 0.36 0 0.96 0.36 0 1 0.36 0 1.04 0.36 0 1.08 0.36 0 1.12 0.36 0 1.16 0.36 0 1.2 0.36 0 0 0.4 0 0.04 0.4 0 0.08 0.4 0 0.12 0.4 0 0.16 0.4 0 0.2 0.4 0 0.24 0.4 0 0.28 0.4 0 0.32 0.4 0 0.36 0.4 0 0.4 0.4 0 0.44 0.4 0 0.48 0.4 0 0.52 0.4 0 0.56 0.4 0 0.6 0.4 0 0.64 0.4 0 0.68 0.4 0 0.72 0.4 0 0.76 0.4 0 0.8 0.4 0 0.84 0.4 0 0.88 0.4 0 0.92 0.4 0 0.96 0.4 0 1 0.4 0 1.04 0.4 0 1.08 0.4 0 1.12 0.4 0 1.16 0.4 0 1.2 0.4 0 0 0.44 0 0.04 0.44 0 0.08 0.44 0 0.12 0.44 0 0.16 0.44 0 0.2 0.44 0 0.24 0.44 0 0.28 0.44 0 0.32 0.44 0 0.36 0.44 0 0.4 0.44 0 0.44 0.44 0 0.48 0.44 0 0.52 0.44 0 0.56 0.44 0 0.6 0.44 0 0.64 0.44 0 0.68 0.44 0 0.72 0.44 0 0.76 0.44 0 0.8 0.44 0 0.84 0.44 0 0.88 0.44 0 0.92 0.44 0 0.96 0.44 0 1 0.44 0 1.04 0.44 0 1.08 0.44 0 1.12 0.44 0 1.16 0.44 0 1.2 0.44 0 0 0.48 0 0.04 0.48 0 0.08 0.48 0 0.12 0.48 0 0.16 0.48 0 0.2 0.48 0 0.24 0.48 0 0.28 0.48 0 0.32 0.48 0 0.36 0.48 0 0.4 0.48 0 0.44 0.48 0 0.48 0.48 0 0.52 0.48 0 0.56 0.48 0 0.6 0.48 0 0.64 0.48 0 0.68 0.48 0 0.72 0.48 0 0.76 0.48 0 0.8 0.48 0 0.84 0.48 0 0.88 0.48 0 0.92 0.48 0 0.96 0.48 0 1 0.48 0 1.04 0.48 0 1.08 0.48 0 1.12 0.48 0 1.16 0.48 0 1.2 0.48 0 0 0.52 0 0.04 0.52 0 0.08 0.52 0 0.12 0.52 0 0.16 0.52 0 0.2 0.52 0 0.24 0.52 0 0.28 0.52 0 0.32 0.52 0 0.36 0.52 0 0.4 0.52 0 0.44 0.52 0 0.48 0.52 0 0.52 0.52 0 0.56 0.52 0 0.6 0.52 0 0.64 0.52 0 0.68 0.52 0 0.72 0.52 0 0.76 0.52 0 0.8 0.52 0 0.84 0.52 0 0.88 0.52 0 0.92 0.52 0 0.96 0.52 0 1 0.52 0 1.04 0.52 0 1.08 0.52 0 1.12 0.52 0 1.16 0.52 0 1.2 0.52 0 0 0.56 0 0.04 0.56 0 0.08 0.56 0 0.12 0.56 0 0.16 0.56 0 0.2 0.56 0 0.24 0.56 0 0.28 0.56 0 0.32 0.56 0 0.36 0.56 0 0.4 0.56 0 0.44 0.56 0 0.48 0.56 0 0.52 0.56 0 0.56 0.56 0 0.6 0.56 0 0.64 0.56 0 0.68 0.56 0 0.72 0.56 0 0.76 0.56 0 0.8 0.56 0 0.84 0.56 0 0.88 0.56 0 0.92 0.56 0 0.96 0.56 0 1 0.56 0 1.04 0.56 0 1.08 0.56 0 1.12 0.56 0 1.16 0.56 0 1.2 0.56 0 0 0.6 0 0.04 0.6 0 0.08 0.6 0 0.12 0.6 0 0.16 0.6 0 0.2 0.6 0 0.24 0.6 0 0.28 0.6 0 0.32 0.6 0 0.36 0.6 0 0.4 0.6 0 0.44 0.6 0 0.48 0.6 0 0.52 0.6 0 0.56 0.6 0 0.6 0.6 0 0.64 0.6 0 0.68 0.6 0 0.72 0.6 0 0.76 0.6 0 0.8 0.6 0 0.84 0.6 0 0.88 0.6 0 0.92 0.6 0 0.96 0.6 0 1 0.6 0 1.04 0.6 0 1.08 0.6 0 1.12 0.6 0 1.16 0.6 0 1.2 0.6 0 0 0.64 0 0.04 0.64 0 0.08 0.64 0 0.12 0.64 0 0.16 0.64 0 0.2 0.64 0 0.24 0.64 0 0.28 0.64 0 0.32 0.64 0 0.36 0.64 0 0.4 0.64 0 0.44 0.64 0 0.48 0.64 0 0.52 0.64 0 0.56 0.64 0 0.6 0.64 0 0.64 0.64 0 0.68 0.64 0 0.72 0.64 0 0.76 0.64 0 0.8 0.64 0 0.84 0.64 0 0.88 0.64 0 0.92 0.64 0 0.96 0.64 0 1 0.64 0 1.04 0.64 0 1.08 0.64 0 1.12 0.64 0 1.16 0.64 0 1.2 0.64 0 0 0.68 0 0.04 0.68 0 0.08 0.68 0 0.12 0.68 0 0.16 0.68 0 0.2 0.68 0 0.24 0.68 0 0.28 0.68 0 0.32 0.68 0 0.36 0.68 0 0.4 0.68 0 0.44 0.68 0 0.48 0.68 0 0.52 0.68 0 0.56 0.68 0 0.6 0.68 0 0.64 0.68 0 0.68 0.68 0 0.72 0.68 0 0.76 0.68 0 0.8 0.68 0 0.84 0.68 0 0.88 0.68 0 0.92 0.68 0 0.96 0.68 0 1 0.68 0 1.04 0.68 0 1.08 0.68 0 1.12 0.68 0 1.16 0.68 0 1.2 0.68 0 0 0.72 0 0.04 0.72 0 0.08 0.72 0 0.12 0.72 0 0.16 0.72 0 0.2 0.72 0 0.24 0.72 0 0.28 0.72 0 0.32 0.72 0 0.36 0.72 0 0.4 0.72 0 0.44 0.72 0 0.48 0.72 0 0.52 0.72 0 0.56 0.72 0 0.6 0.72 0 0.64 0.72 0 0.68 0.72 0 0.72 0.72 0 0.76 0.72 0 0.8 0.72 0 0.84 0.72 0 0.88 0.72 0 0.92 0.72 0 0.96 0.72 0 1 0.72 0 1.04 0.72 0 1.08 0.72 0 1.12 0.72 0 1.16 0.72 0 1.2 0.72 0 0 0.76 0 0.04 0.76 0 0.08 0.76 0 0.12 0.76 0 0.16 0.76 0 0.2 0.76 0 0.24 0.76 0 0.28 0.76 0 0.32 0.76 0 0.36 0.76 0 0.4 0.76 0 0.44 0.76 0 0.48 0.76 0 0.52 0.76 0 0.56 0.76 0 0.6 0.76 0 0.64 0.76 0 0.68 0.76 0 0.72 0.76 0 0.76 0.76 0 0.8 0.76 0 0.84 0.76 0 0.88 0.76 0 0.92 0.76 0 0.96 0.76 0 1 0.76 0 1.04 0.76 0 1.08 0.76 0 1.12 0.76 0 1.16 0.76 0 1.2 0.76 0 0 0.8 0 0.04 0.8 0 0.08 0.8 0 0.12 0.8 0 0.16 0.8 0 0.2 0.8 0 0.24 0.8 0 0.28 0.8 0 0.32 0.8 0 0.36 0.8 0 0.4 0.8 0 0.44 0.8 0 0.48 0.8 0 0.52 0.8 0 0.56 0.8 0 0.6 0.8 0 0.64 0.8 0 0.68 0.8 0 0.72 0.8 0 0.76 0.8 0 0.8 0.8 0 0.84 0.8 0 0.88 0.8 0 0.92 0.8 0 0.96 0.8 0 1 0.8 0 1.04 0.8 0 1.08 0.8 0 1.12 0.8 0 1.16 0.8 0 1.2 0.8 0 0 0.84 0 0.04 0.84 0 0.08 0.84 0 0.12 0.84 0 0.16 0.84 0 0.2 0.84 0 0.24 0.84 0 0.28 0.84 0 0.32 0.84 0 0.36 0.84 0 0.4 0.84 0 0.44 0.84 0 0.48 0.84 0 0.52 0.84 0 0.56 0.84 0 0.6 0.84 0 0.64 0.84 0 0.68 0.84 0 0.72 0.84 0 0.76 0.84 0 0.8 0.84 0 0.84 0.84 0 0.88 0.84 0 0.92 0.84 0 0.96 0.84 0 1 0.84 0 1.04 0.84 0 1.08 0.84 0 1.12 0.84 0 1.16 0.84 0 1.2 0.84 0 0 0.88 0 0.04 0.88 0 0.08 0.88 0 0.12 0.88 0 0.16 0.88 0 0.2 0.88 0 0.24 0.88 0 0.28 0.88 0 0.32 0.88 0 0.36 0.88 0 0.4 0.88 0 0.44 0.88 0 0.48 0.88 0 0.52 0.88 0 0.56 0.88 0 0.6 0.88 0 0.64 0.88 0 0.68 0.88 0 0.72 0.88 0 0.76 0.88 0 0.8 0.88 0 0.84 0.88 0 0.88 0.88 0 0.92 0.88 0 0.96 0.88 0 1 0.88 0 1.04 0.88 0 1.08 0.88 0 1.12 0.88 0 1.16 0.88 0 1.2 0.88 0 0 0.92 0 0.04 0.92 0 0.08 0.92 0 0.12 0.92 0 0.16 0.92 0 0.2 0.92 0 0.24 0.92 0 0.28 0.92 0 0.32 0.92 0 0.36 0.92 0 0.4 0.92 0 0.44 0.92 0 0.48 0.92 0 0.52 0.92 0 0.56 0.92 0 0.6 0.92 0 0.64 0.92 0 0.68 0.92 0 0.72 0.92 0 0.76 0.92 0 0.8 0.92 0 0.84 0.92 0 0.88 0.92 0 0.92 0.92 0 0.96 0.92 0 1 0.92 0 1.04 0.92 0 1.08 0.92 0 1.12 0.92 0 1.16 0.92 0 1.2 0.92 0 0 0.96 0 0.04 0.96 0 0.08 0.96 0 0.12 0.96 0 0.16 0.96 0 0.2 0.96 0 0.24 0.96 0 0.28 0.96 0 0.32 0.96 0 0.36 0.96 0 0.4 0.96 0 0.44 0.96 0 0.48 0.96 0 0.52 0.96 0 0.56 0.96 0 0.6 0.96 0 0.64 0.96 0 0.68 0.96 0 0.72 0.96 0 0.76 0.96 0 0.8 0.96 0 0.84 0.96 0 0.88 0.96 0 0.92 0.96 0 0.96 0.96 0 1 0.96 0 1.04 0.96 0 1.08 0.96 0 1.12 0.96 0 1.16 0.96 0 1.2 0.96 0 0 1 0 0.04 1 0 0.08 1 0 0.12 1 0 0.16 1 0 0.2 1 0 0.24 1 0 0.28 1 0 0.32 1 0 0.36 1 0 0.4 1 0 0.44 1 0 0.48 1 0 0.52 1 0 0.56 1 0 0.6 1 0 0.64 1 0 0.68 1 0 0.72 1 0 0.76 1 0 0.8 1 0 0.84 1 0 0.88 1 0 0.92 1 0 0.96 1 0 1 1 0 1.04 1 0 1.08 1 0 1.12 1 0 1.16 1 0 1.2 1 0 0 1.04 0 0.04 1.04 0 0.08 1.04 0 0.12 1.04 0 0.16 1.04 0 0.2 1.04 0 0.24 1.04 0 0.28 1.04 0 0.32 1.04 0 0.36 1.04 0 0.4 1.04 0 0.44 1.04 0 0.48 1.04 0 0.52 1.04 0 0.56 1.04 0 0.6 1.04 0 0.64 1.04 0 0.68 1.04 0 0.72 1.04 0 0.76 1.04 0 0.8 1.04 0 0.84 1.04 0 0.88 1.04 0 0.92 1.04 0 0.96 1.04 0 1 1.04 0 1.04 1.04 0 1.08 1.04 0 1.12 1.04 0 1.16 1.04 0 1.2 1.04 0 0 1.08 0 0.04 1.08 0 0.08 1.08 0 0.12 1.08 0 0.16 1.08 0 0.2 1.08 0 0.24 1.08 0 0.28 1.08 0 0.32 1.08 0 0.36 1.08 0 0.4 1.08 0 0.44 1.08 0 0.48 1.08 0 0.52 1.08 0 0.56 1.08 0 0.6 1.08 0 0.64 1.08 0 0.68 1.08 0 0.72 1.08 0 0.76 1.08 0 0.8 1.08 0 0.84 1.08 0 0.88 1.08 0 0.92 1.08 0 0.96 1.08 0 1 1.08 0 1.04 1.08 0 1.08 1.08 0 1.12 1.08 0 1.16 1.08 0 1.2 1.08 0 0 1.12 0 
[...]
			<PointData Scalars="VitesseX">
				<DataArray Name="VitesseX" type="Float32" format="ascii">
 0 -0.0122156 -0.0278956 -0.00592614 0.00709268 0.0339741 0.0703505 0.0911678 0.115656 0.137417 0.159291 0.180124 0.201118 0.222787 0.244678 0.267662 0.292036 0.316332 0.371017 0.387965 0.35426 0.256237 0.103514 0.00849143 2.48871e-05 3.10585e-09 3.71887e-13 2.15505e-15 -7.32886e-15 7.32893e-15 0 0 0.033876 0.0459995 0.0586772 0.0550921 0.0628081 0.0911648 0.105918 0.125635 0.144598 0.164219 0.183499 0.203164 0.223762 0.244812 0.267292 0.291075 0.315392 0.370329 0.385253 0.350442 0.251281 0.0991291 0.00770597 2.1063e-05 2.75177e-09 3.38694e-13 2.15993e-15 -7.32985e-15 7.32983e-15 0 0 0.0312256 0.0707652 0.0889999 0.0923739 0.0938091 0.114885 0.121207 0.135805 0.151582 0.168843 0.186825 0.205647 0.225806 0.246393 0.268987 0.291795 0.316972 0.372471 0.381748 0.342898 0.238775 0.0869212 0.00572316 1.27584e-05 1.90492e-09 2.59881e-13 1.13513e-15 -7.35867e-15 3.72226e-15 0 0 0.0183525 0.0652248 0.0850836 0.0884497 0.106212 0.122811 0.131539 0.145113 0.159066 0.174488 0.191059 0.209124 0.228929 0.248967 0.271741 0.293098 0.321017 0.375727 0.377051 0.330925 0.218722 0.0686101 0.0034053 5.5287e-06 1.01809e-09 1.59372e-13 1.26697e-17 -3.67086e-15 3.71379e-15 0 0 0.0115997 0.0456228 0.0717476 0.0851434 0.109705 0.122065 0.138919 0.15169 0.166818 0.180995 0.196674 0.214016 0.233273 0.252695 0.275462 0.295229 0.328901 0.378122 0.370031 0.312997 0.190293 0.0470869 0.00157185 1.7315e-06 4.15208e-10 7.96694e-14 -3.67642e-15 2.23845e-17 3.6569e-15 0 0 0.0130406 0.0369463 0.0628133 0.0856886 0.105859 0.123229 0.140909 0.155222 0.172386 0.187557 0.203114 0.220229 0.238586 0.257806 0.279806 0.298569 0.341725 0.377021 0.358605 0.287425 0.152766 0.0270218 0.000541458 4.08822e-07 1.29564e-10 3.52438e-14 9.25833e-17 -3.72814e-15 -4.02368e-19 0 0 0.0143977 0.0361144 0.0602172 0.083438 0.104392 0.123958 0.140342 0.157952 0.175836 0.192622 0.20878 0.226732 0.243698 0.264009 0.283623 0.30419 0.355691 0.371032 0.340628 0.251558 0.107584 0.0121627 0.000132482 7.96632e-08 3.19992e-11 1.34894e-14 -2.09819e-14 2.09827e-14 -3.7286e-15 0 0 0.0160707 0.0352736 0.0578321 0.0829717 0.104352 0.123134 0.140871 0.159958 0.178509 0.195486 0.213554 0.230988 0.248291 0.269612 0.286026 0.315179 0.363347 0.359908 0.312469 0.202699 0.0612322 0.00397226 2.17195e-05 1.36034e-08 6.61123e-12 -1.86818e-14 2.58582e-22 -2.44554e-22 2.09826e-14 0 0 0.0164783 0.0352147 0.0577892 0.0818677 0.103301 0.122873 0.141932 0.161298 0.179362 0.197513 0.216399 0.2331 0.253344 0.271922 0.289054 0.33404 0.360137 0.340505 0.270654 0.140636 0.0263039 0.000878448 2.30296e-06 1.87192e-09 1.1428e-12 -2.06037e-14 -8.93533e-18 8.97779e-18 2.09582e-14 0 0 0.0165533 0.0353958 0.0568547 0.0795507 0.10169 0.122266 0.141947 0.160792 0.179358 0.198805 0.216455 0.235504 0.25632 0.271637 0.299432 0.346048 0.346645 0.308002 0.211334 0.0752832 0.00784611 0.000122393 1.79923e-07 1.88418e-10 1.52268e-13 3.75221e-15 -2.09914e-14 1.35255e-17 1.71987e-14 0 0 0.0167264 0.0352495 0.0555181 0.0770038 0.0988845 0.119961 0.139899 0.159456 0.179194 0.197585 0.216542 0.238291 0.254968 0.274473 0.320633 0.340887 0.322151 0.256712 0.134324 0.0282893 0.0014674 9.66542e-06 1.36481e-08 1.56711e-11 1.52036e-14 -2.88239e-17 7.48642e-15 -2.84343e-14 2.46797e-14 0 0 0.0169599 0.0351452 0.0543269 0.0744375 0.0953076 0.116282 0.137063 0.157401 0.176559 0.196375 0.218324 0.236536 0.254202 0.292346 0.326282 0.321552 0.279337 0.182227 0.0602021 0.00682627 0.000155948 4.45639e-07 8.61111e-10 1.22313e-12 1.27632e-15 8.80455e-16 6.85145e-16 -6.36833e-16 -1.81392e-14 0 0 0.0170571 0.0349671 0.05347 0.0726534 0.0926075 0.113146 0.133729 0.154066 0.175149 0.197072 0.21612 0.234497 0.267556 0.306854 0.311861 0.285185 0.210947 0.0934539 0.0174582 0.00092312 8.08898e-06 1.92354e-08 3.95788e-11 9.76874e-14 1.58008e-16 2.47072e-17 -5.96037e-14 5.96189e-14 -2.09777e-14 0 0 0.0170575 0.0347748 0.0528868 0.0715543 0.0909351 0.111055 0.131887 0.153404 0.174875 0.194401 0.214679 0.247029 0.28536 0.29631 0.279133 0.222243 0.118173 0.030433 0.0028367 6.05248e-05 2.26443e-07 7.4298e-10 1.78729e-12 2.98068e-15 2.92657e-18 2.38209e-14 -5.65299e-14 5.65267e-14 -2.38248e-14 0 0 0.0170178 0.0346054 0.0526073 0.0712292 0.0906328 0.110911 0.131763 0.152422 0.172663 0.195686 0.229788 0.263432 0.276511 0.26487 0.21961 0.129996 0.0410688 0.00557134 0.000218434 1.61413e-06 6.60402e-09 2.11362e-11 4.78887e-14 5.75944e-18 1.88463e-18 -1.15371e-18 2.47086e-14 -2.47086e-14 -5.39124e-18 0 0 0.0171691 0.0348232 0.0529575 0.0716874 0.0910162 0.110868 0.131173 0.152987 0.179779 0.213928 0.240909 0.253379 0.244265 0.205975 0.128532 0.0459215 0.0079053 0.000463281 6.20955e-06 3.08884e-08 1.47685e-10 5.9944e-13 5.36159e-15 2.471e-14 -1.21533e-18 -4.94156e-14 4.94155e-14 -4.94155e-14 4.94185e-14 0 0 0.0173718 0.0351773 0.0535164 0.072423 0.0921648 0.113591 0.13837 0.167666 0.195579 0.217197 0.226882 0.218079 0.183273 0.115489 0.0438445 0.00865687 0.000651932 1.32904e-05 8.61771e-08 5.85176e-10 3.02497e-12 1.31475e-14 2.49585e-14 -2.47102e-14 4.31702e-20 -8.93713e-19 2.47087e-14 -2.47087e-14 -5.3951e-18 0 0 0.0180357 0.0369444 0.057001 0.0785831 0.102091 0.12681 0.151157 0.173302 0.190988 0.196457 0.186301 0.152719 0.0935451 0.0359073 0.00748983 0.000644087 1.69226e-05 1.44619e-07 1.30257e-09 8.4773e-12 4.43421e-15 4.88661e-14 -2.47156e-14 6.40719e-18 -1.35634e-20 2.4707e-14 -6.74992e-14 6.74991e-14 -2.47133e-14 0 0 0.0209321 0.04245 0.0642311 0.086129 0.107689 0.128778 0.147489 0.159581 0.161197 0.1485 0.115665 0.0664464 0.0246981 0.00504692 0.000448246 1.31694e-05 1.43833e-07 1.68684e-09 1.40851e-11 7.6482e-14 4.34617e-14 -3.6245e-16 1.94467e-17 3.05458e-18 2.87263e-18 2.4707e-14 -6.74992e-14 4.27868e-14 -9.12505e-18 0 0 0.0218168 0.0432518 0.0640144 0.083744 0.101382 0.115432 0.122676 0.120428 0.105023 0.0752859 0.0393469 0.0135119 0.0025014 0.000208746 6.0968e-06 8.47335e-08 1.29116e-09 1.40126e-11 1.55489e-13 -4.26881e-14 4.31468e-14 -3.74124e-16 2.42178e-17 -1.67332e-18 2.8862e-18 -8.93713e-19 2.47087e-14 -4.9421e-14 2.46988e-14 0 0 0.020058 0.0386567 0.0551665 0.0687916 0.0780703 0.0808223 0.0752381 0.0603076 0.038663 0.0179169 0.00523505 0.000811923 5.76321e-05 1.56543e-06 3.00148e-08 5.74352e-10 8.29389e-12 7.69535e-14 4.28895e-14 -1.56692e-17 1.23157e-17 2.47205e-14 -4.94216e-14 4.94216e-14 -1.23787e-20 -4.94156e-14 4.94144e-14 -2.47049e-14 2.47075e-14 0 0 0.0142899 0.026193 0.0349352 0.0395747 0.0393511 0.0341058 0.0246199 0.0136513 0.00515585 0.00115961 0.000139824 7.6692e-06 2.1485e-07 6.35342e-09 1.42871e-10 2.94661e-12 5.20782e-14 -4.20869e-14 4.2425e-14 -1.32086e-17 3.03193e-17 -2.19684e-17 3.76818e-16 -3.62737e-16 3.0135e-18 1.25848e-18 2.47055e-14 -2.4705e-14 2.47074e-14 0 0 0.00561982 0.00969127 0.0116432 0.0113487 0.00897496 0.00544333 0.00231105 0.000629745 0.000102423 8.78911e-06 4.09775e-07 1.78587e-08 7.05142e-10 2.00361e-11 5.81719e-13 1.47563e-14 -6.00976e-16 3.60274e-16 -3.486e-16 2.47205e-14 -4.94279e-14 2.47055e-14 3.50485e-16 -3.39028e-16 1.4925e-18 2.47106e-14 -2.47121e-14 -2.47101e-14 4.94239e-14 0 0 0.000700964 0.00107131 0.000999862 0.000646551 0.00029155 8.87518e-05 1.70444e-05 1.95542e-06 1.5435e-07 1.20258e-08 7.87433e-10 3.6225e-11 1.70731e-12 3.76399e-14 4.86893e-15 2.49564e-14 -2.47154e-14 -1.86699e-17 2.3441e-17 -2.70605e-18 3.51243e-16 -3.72422e-16 4.43333e-19 2.20557e-17 5.87543e-18 -2.94186e-17 3.85532e-16 -3.66637e-16 -4.27999e-14 0 0 3.3327e-06 3.98899e-06 2.52435e-06 9.98345e-07 2.67638e-07 5.55964e-08 1.02107e-08 1.52585e-09 1.59628e-10 1.33899e-11 1.08489e-12 5.01502e-14 2.96779e-15 7.36264e-18 2.47096e-14 -2.47075e-14 -9.0387e-18 6.61888e-18 -1.80451e-18 -6.16936e-20 3.62737e-16 -3.86539e-16 2.56027e-17 -1.73893e-18 7.36566e-18 -3.32343e-17 -4.24012e-14 6.71307e-14 -6.75081e-14 0 0 3.51444e-10 4.91436e-10 3.93909e-10 2.08961e-10 7.68337e-11 2.08031e-11 4.61356e-12 8.59724e-13 1.24131e-13 1.29684e-14 8.72013e-16 7.70204e-15 -4.94202e-14 4.94195e-14 -1.30164e-18 -4.94155e-14 4.94155e-14 -4.94184e-14 4.94185e-14 1.23708e-20 -4.94186e-14 4.9417e-14 -4.94125e-14 4.9414e-14 -8.92692e-19 -2.23608e-18 -1.35007e-13 1.35005e-13 6.59049e-18 0 0 3.31849e-14 4.78227e-14 4.77132e-14 3.21243e-14 1.23298e-14 9.60655e-15 -1.93941e-14 2.13158e-14 -3.70628e-15 -2.9958e-17 8.52435e-16 5.74743e-15 -2.38245e-14 6.39118e-19 1.82587e-34 -8.93713e-19 2.47087e-14 -2.47087e-14 8.93713e-19 -2.42069e-24 1.25847e-18 2.4705e-14 -4.94361e-14 4.94353e-14 5.35598e-19 -6.75307e-14 7.48164e-16 -7.48215e-16 6.75335e-14 0 0 -4.86097e-18 1.11769e-15 -7.2659e-15 3.68228e-15 9.1779e-17 -2.09819e-14 -3.80265e-22 -8.93531e-18 2.0992e-14 -3.143e-17 -5.03809e-15 -4.95067e-14 5.82996e-14 -2.4707e-14 -6.76175e-34 2.4707e-14 -6.74992e-14 6.74991e-14 -2.4707e-14 -1.02397e-18 2.47101e-14 -2.47121e-14 3.38601e-16 -4.313e-14 -9.40108e-18 7.06337e-16 4.73834e-17 -4.74342e-17 -6.77158e-16 0 0 -2.92424e-16 -4.4355e-15 -3.6625e-15 6.33224e-17 3.72895e-15 -2.09827e-14 -1.79974e-22 -8.89304e-18 1.40235e-17 2.09765e-14 -5.04977e-15 -4.95282e-14 5.83028e-14 -2.4707e-14 -5.93656e-34 2.4707e-14 -6.74992e-14 4.27868e-14 5.35548e-18 2.47085e-14 -2.47084e-14 -2.47162e-14 4.97838e-14 -6.78646e-14 -6.82903e-18 7.06286e-16 4.74345e-17 -4.73032e-17 -6.77289e-16 0 0 -1.49078e-10 -8.13185e-15 3.66894e-15 -3.61609e-15 4.02366e-19 3.72844e-15 -2.09826e-14 2.09583e-14 -2.47082e-14 2.47317e-14 -2.38264e-14 2.66656e-14 -2.38302e-14 1.00547e-17 -8.18805e-38 -1.00508e-17 2.47178e-14 -4.94383e-14 2.47306e-14 2.47081e-14 -2.47082e-14 -5.1027e-18 -4.28077e-14 6.75161e-14 1.32524e-18 -6.75281e-14 7.72027e-16 -7.71895e-16 6.75307e-14 0 0 0 0 0 0 0 0 0 0 0 0 0 0 0 0 0 0 0 0 0 0 0 0 0 0 0 0 0 0 0 0
				</DataArray>
				<DataArray Name="VitesseY" type="Float32" format="ascii">
 0 0 0 0 0 0 0 0 0 0 0 0 0 0 0 0 0 0 0 0 0 0 0 0 0 0 0 0 0 0 0 -0.0121939 0.033882 0.0312263 0.0183492 0.0115975 0.0130392 0.0143968 0.0160707 0.0164792 0.0165542 0.0167271 0.0169602 0.0170575 0.0170579 0.0170183 0.0171695 0.017372 0.0180357 0.0209317 0.0218161 0.020057 0.0142887 0.00561907 0.000700817 3.33133e-06 3.51288e-10 3.3183e-14 -4.84409e-18 -9.61644e-19 -1.0613e-18 0 -0.0278829 0.0460085 0.0707641 0.0652206 0.0456192 0.0369439 0.0361119 0.035272 0.0352145 0.0353968 0.0352504 0.0351457 0.0349676 0.0347756 0.0346062 0.0348238 0.0351775 0.0369442 0.0424492 0.0432503 0.0386547 0.0261908 0.00969005 0.00107109 3.98741e-06 4.91224e-10 4.77682e-14 1.11759e-15 6.00835e-17 -3.57621e-15 0 -0.00591998 0.0586898 0.0890036 0.0850847 0.0717452 0.0628098 0.0602135 0.0578286 0.057787 0.0568544 0.0555187 0.0543277 0.0534709 0.0528878 0.0526082 0.052958 0.0535164 0.0570007 0.0642297 0.0640124 0.0551637 0.0349323 0.0116418 0.000999672 2.52342e-06 3.93748e-10 4.77148e-14 -7.26576e-15 -3.64291e-15 3.67273e-15 0 0.00709801 0.0551062 0.0923846 0.0884555 0.0851471 0.0856891 0.0834353 0.0829673 0.0818637 0.0795486 0.0770043 0.0744389 0.0726548 0.0715554 0.07123 0.0716878 0.0724229 0.0785826 0.0861271 0.0837414 0.0687882 0.0395717 0.0113476 0.000646443 9.98017e-07 2.08882e-10 3.20932e-14 3.68214e-15 6.34513e-17 -3.61583e-15 0 0.0339718 0.0628138 0.0938198 0.106218 0.109707 0.105858 0.104388 0.104347 0.103296 0.101687 0.0988848 0.09531 0.0926097 0.0909364 0.0906336 0.0910166 0.0921648 0.10209 0.107687 0.101379 0.0780669 0.0393487 0.0089743 0.000291511 2.67567e-07 7.68083e-11 1.23374e-14 9.1779e-17 3.72895e-15 4.02331e-19 0 0.0703487 0.0911693 0.114894 0.122817 0.122068 0.123228 0.123955 0.123129 0.122868 0.122263 0.11996 0.116284 0.113148 0.111057 0.110912 0.110869 0.113591 0.126809 0.128776 0.11543 0.0808196 0.0341044 0.00544311 8.87433e-05 5.5586e-08 2.07976e-11 9.60136e-15 -2.09819e-14 -2.09827e-14 3.72844e-15 0 0.0911678 0.105922 0.121216 0.131547 0.138921 0.140908 0.140338 0.140867 0.141928 0.141945 0.139898 0.137065 0.133731 0.131888 0.131764 0.131174 0.13837 0.151156 0.147488 0.122675 0.0752369 0.0246196 0.00231104 1.70437e-05 1.02096e-08 4.61262e-12 -1.9394e-14 -3.93563e-22 -1.73417e-22 -2.09826e-14 0 0.115656 0.125639 0.13581 0.145118 0.151691 0.155221 0.15795 0.159954 0.161296 0.16079 0.159455 0.157401 0.154067 0.153405 0.152423 0.152987 0.167666 0.173302 0.15958 0.120428 0.0603079 0.0136516 0.000629771 1.95545e-06 1.52577e-09 8.59648e-13 2.13159e-14 -8.93529e-18 -8.89303e-18 2.09583e-14 0 0.137418 0.144602 0.151586 0.15907 0.166818 0.172384 0.175834 0.178506 0.17936 0.179357 0.179193 0.17656 0.175149 0.174876 0.172664 0.179779 0.19558 0.190989 0.161199 0.105025 0.0386644 0.00515619 0.000102432 1.54361e-07 1.59629e-10 1.24141e-13 -3.70628e-15 2.0992e-14 1.40235e-17 -2.47082e-14 0 0.159294 0.164224 0.168847 0.17449 0.180994 0.187555 0.19262 0.195484 0.197511 0.198803 0.197585 0.196375 0.197072 0.194401 0.195686 0.213928 0.217198 0.196459 0.148503 0.0752888 0.0179181 0.00115974 8.79047e-06 1.20271e-08 1.33908e-11 1.29686e-14 -2.9958e-17 -3.143e-17 2.09765e-14 2.47317e-14 0 0.180127 0.183503 0.186828 0.191061 0.196675 0.203112 0.208777 0.213552 0.216397 0.216454 0.216541 0.218324 0.216121 0.21468 0.229789 0.240911 0.226884 0.186304 0.115669 0.0393491 0.00523555 0.000139846 4.09855e-07 7.87558e-10 1.08496e-12 8.71882e-16 8.52435e-16 -5.03809e-15 -5.04977e-15 -2.38264e-14 0 0.201122 0.203169 0.205652 0.209126 0.214017 0.220227 0.226729 0.230985 0.233098 0.235503 0.238291 0.236535 0.234497 0.24703 0.263433 0.253381 0.218082 0.152723 0.0664494 0.0135129 0.000812026 7.67074e-06 1.78621e-08 3.62317e-11 5.01758e-14 7.70204e-15 5.74743e-15 -4.95067e-14 -4.95282e-14 2.66656e-14 0 0.222792 0.223767 0.22581 0.228932 0.233274 0.238584 0.243695 0.248288 0.253342 0.256318 0.254967 0.254201 0.267555 0.285361 0.276512 0.244267 0.183277 0.0935482 0.0246994 0.00250163 5.76413e-05 2.14894e-07 7.05287e-10 1.70768e-12 2.96786e-15 -4.94202e-14 -2.38245e-14 5.82996e-14 5.83028e-14 -2.38302e-14 0 0.244682 0.244817 0.246397 0.24897 0.252697 0.257805 0.264006 0.269609 0.271919 0.271635 0.274472 0.292346 0.306854 0.29631 0.264872 0.205977 0.115491 0.0359085 0.00504724 0.000208769 1.5657e-06 6.35456e-09 2.00401e-11 3.76708e-14 7.36266e-18 4.94195e-14 6.39177e-19 -2.4707e-14 -2.4707e-14 1.00548e-17 0 0.267666 0.267297 0.268991 0.271744 0.275464 0.279806 0.283621 0.286023 0.289051 0.29943 0.320632 0.326281 0.31186 0.279133 0.219611 0.128534 0.043845 0.00749007 0.000448275 6.09755e-06 3.00189e-08 1.42896e-10 5.81724e-13 4.86893e-15 2.47096e-14 -1.30168e-18 5.88373e-23 4.97171e-23 -1.12602e-23 7.49227e-23 0 0.29204 0.29108 0.2918 0.293101 0.29523 0.298568 0.304188 0.315177 0.334038 0.346046 0.340885 0.32155 0.285183 0.222242 0.129995 0.0459213 0.0086569 0.000644102 1.31702e-05 8.47414e-08 5.74424e-10 2.94697e-12 1.47974e-14 2.49564e-14 -2.47075e-14 -4.94155e-14 -8.93725e-19 2.4707e-14 2.4707e-14 -1.00508e-17 0 0.316335 0.315395 0.316974 0.321018 0.3289 0.341724 0.355689 0.363345 0.360134 0.346642 0.322147 0.279334 0.210945 0.118171 0.0410678 0.00790509 0.000651919 1.69226e-05 1.43838e-07 1.29124e-09 8.29481e-12 5.20473e-14 -6.00845e-16 -2.47154e-14 -9.03873e-18 4.94155e-14 2.47087e-14 -6.74992e-14 -6.74992e-14 2.47178e-14 0 0.371016 0.370328 0.37247 0.375726 0.378121 0.37702 0.37103 0.359906 0.340501 0.307997 0.256707 0.182222 0.0934506 0.0304315 0.00557101 0.000463251 1.32896e-05 1.44614e-07 1.68684e-09 1.40132e-11 7.69336e-14 -4.20868e-14 3.60274e-16 -1.86698e-17 6.61889e-18 -4.94184e-14 -2.47087e-14 6.74991e-14 4.27868e-14 -4.94383e-14 0 0.387967 0.385255 0.381749 0.377052 0.370031 0.358604 0.340627 0.312466 0.270649 0.211329 0.134318 0.0601986 0.0174569 0.00283644 0.00021841 6.2088e-06 8.61691e-08 1.30249e-09 1.40846e-11 1.55489e-13 4.28895e-14 4.2425e-14 -3.486e-16 2.3441e-17 -1.80445e-18 4.94185e-14 8.93771e-19 -2.4707e-14 5.35547e-18 2.47306e-14 0 0.354265 0.350446 0.342902 0.330928 0.312999 0.287425 0.251556 0.202696 0.140632 0.0752792 0.0282871 0.00682557 0.000923 6.05151e-05 1.61386e-06 3.08842e-08 5.85103e-10 8.47635e-12 7.65023e-14 -4.2688e-14 -1.56693e-17 -1.32085e-17 2.47205e-14 -2.70597e-18 -6.16789e-20 1.23235e-20 5.64162e-23 -1.02398e-18 2.47085e-14 2.47081e-14 0 0.256245 0.251288 0.238781 0.218727 0.190297 0.152767 0.107583 0.0612306 0.0263025 0.00784545 0.00146722 0.000155923 8.08736e-06 2.26398e-07 6.60284e-09 1.4766e-10 3.02476e-12 4.46509e-15 4.34615e-14 4.31468e-14 1.23157e-17 3.03192e-17 -4.94279e-14 3.51243e-16 3.62737e-16 -4.94186e-14 1.2585e-18 2.47101e-14 -2.47084e-14 -2.47082e-14 0 0.103522 0.0991364 0.0869273 0.0686146 0.0470895 0.0270228 0.0121628 0.00397218 0.000878396 0.00012238 9.66389e-06 4.45553e-07 1.92317e-08 7.42827e-10 2.11322e-11 5.99353e-13 1.31062e-14 4.8866e-14 -3.6245e-16 -3.74124e-16 2.47205e-14 -2.19684e-17 2.47055e-14 -3.72422e-16 -3.86539e-16 4.9417e-14 2.4705e-14 -2.47121e-14 -2.47162e-14 -5.10268e-18 0 0.00849299 0.00770737 0.00572416 0.00340585 0.00157207 0.000541518 0.000132492 2.17201e-05 2.3029e-06 1.79909e-07 1.36465e-08 8.60973e-10 3.95714e-11 1.78686e-12 4.78577e-14 5.36159e-15 2.49585e-14 -2.47156e-14 1.94468e-17 2.42178e-17 -4.94216e-14 3.76818e-16 3.50485e-16 4.43447e-19 2.56027e-17 -4.94125e-14 -4.94361e-14 3.38601e-16 4.97838e-14 -4.28077e-14 0 2.48968e-05 2.1071e-05 1.27631e-05 5.53057e-06 1.73202e-06 4.08918e-07 7.96762e-08 1.36047e-08 1.87199e-09 1.88414e-10 1.56701e-11 1.22301e-12 9.76617e-14 2.98062e-15 5.75944e-18 2.471e-14 -2.47102e-14 6.40721e-18 3.0546e-18 -1.67333e-18 4.94216e-14 -3.62737e-16 -3.39028e-16 2.20556e-17 -1.73887e-18 4.9414e-14 4.94353e-14 -4.313e-14 -6.78646e-14 6.75161e-14 0 3.10714e-09 2.7529e-09 1.90568e-09 1.01847e-09 4.1535e-10 1.29602e-10 3.20066e-11 6.61231e-12 1.14286e-12 1.52258e-13 1.52036e-14 1.27645e-15 1.58008e-16 2.92659e-18 1.8847e-18 -1.21537e-18 4.32291e-20 -1.3514e-20 2.87268e-18 2.88626e-18 -1.24283e-20 3.01356e-18 1.49248e-18 5.87543e-18 7.36568e-18 -8.9267e-19 5.35555e-19 -9.40112e-18 -6.82902e-18 1.32523e-18 0 3.72054e-13 3.38859e-13 2.59989e-13 1.59427e-13 7.96953e-14 3.52462e-14 1.34942e-14 -1.86821e-14 -2.06037e-14 3.75221e-15 -2.88239e-17 8.80455e-16 2.47072e-17 2.38209e-14 -1.15373e-18 -4.94156e-14 -8.93725e-19 2.4707e-14 2.4707e-14 -8.93725e-19 -4.94156e-14 1.25847e-18 2.47106e-14 -2.94185e-17 -3.32343e-17 -2.23611e-18 -6.75307e-14 7.06337e-16 7.06286e-16 -6.75281e-14 0 2.1549e-15 2.15976e-15 1.13505e-15 1.25476e-17 -3.67656e-15 9.25833e-17 -2.09819e-14 2.34779e-22 -8.9353e-18 -2.09914e-14 7.48642e-15 6.85145e-16 -5.96037e-14 -5.65299e-14 2.47086e-14 4.94155e-14 2.47087e-14 -6.74992e-14 -6.74992e-14 2.47087e-14 4.94144e-14 2.47055e-14 -2.47121e-14 3.85532e-16 -4.24012e-14 -1.35007e-13 7.48164e-16 4.73834e-17 4.74346e-17 7.72027e-16 0 2.28498e-15 1.99255e-15 -2.82349e-15 -3.65077e-15 2.2781e-17 -3.72814e-15 2.09827e-14 -2.48478e-22 8.97775e-18 1.35255e-17 -2.84343e-14 -6.36833e-16 5.96189e-14 5.65267e-14 -2.47086e-14 -4.94155e-14 -2.47087e-14 6.74991e-14 4.27868e-14 -4.9421e-14 -2.47049e-14 -2.4705e-14 -2.47101e-14 -3.66637e-16 6.71307e-14 1.35005e-13 -7.48215e-16 -4.74342e-17 -4.73031e-17 -7.71895e-16 0 2.98153e-10 1.49076e-10 -7.84204e-16 3.67817e-15 3.65664e-15 -4.02361e-19 -3.7286e-15 2.09826e-14 2.09582e-14 1.71987e-14 2.46797e-14 -1.81392e-14 -2.09777e-14 -2.38248e-14 -5.39122e-18 4.94185e-14 -5.3951e-18 -2.47133e-14 -9.1251e-18 2.46988e-14 2.47075e-14 2.47074e-14 4.94239e-14 -4.27999e-14 -6.75081e-14 6.59046e-18 6.75335e-14 -6.77158e-16 -6.77289e-16 6.75307e-14 0 2.07582e-05 0 0 0 0 0 0 0 0 0 0 0 0 0 0 0 0 0 0 0 0 0 0 0 0 0 0 0 0 0 0
				</DataArray>
			</PointData>
			<CellData Scalars="Density">
				<DataArray Name="Density" type="Float32" format="ascii">