<?xml version="1.0"?>
<VTKFile type="PolyData">
	<PolyData>
		<Piece NumberOfPoints="961" NumberOfPolys="900">
			<Points>
				<DataArray type="Float32" NumberOfComponents="3" format="ascii">
 0 0 0 0.04 0 0 0.08 0 0 0.12 0 0 0.16 0 0 0.2 0 0 0.24 0 0 0.28 0 0 0.32 0 0 0.36 0 0 0.4 0 0 0.44 0 0 0.48 0 0 0.52 0 0 0.56 0 0 0.6 0 0 0.64 0 0 0.68 0 0 0.72 0 0 0.76 0 0 0.8 0 0 0.84 0 0 0.88 0 0 0.92 0 0 0.96 0 0 1 0 0 1.04 0 0 1.08 0 0 1.12 0 0 1.16 0 0 1.2 0 0 0 0.04 0 0.04 0.04 0 0.08 0.04 0 0.12 0.04 0 0.16 0.04 0 0.2 0.04 0 0.24 0.04 0 0.28 0.04 0 0.32 0.04 0 0.36 0.04 0 0.4 0.04 0 0.44 0.04 0 0.48 0.04 0 0.52 0.04 0 0.56 0.04 0 0.6 0.04 0 0.64 0.04 0 0.68 0.04 0 0.72 0.04 0 0.76 0.04 0 0.8 0.04 0 0.84 0.04 0 0.88 0.04 0 0.92 0.04 0 0.96 0.04 0 1 0.04 0 1.04 0.04 0 1.08 0.04 0 1.12 0.04 0 1.16 0.04 0 1.2 0.04 0 0 0.08 0 0.04 0.08 0 0.08 0.08 0 0.12 0.08 0 0.16 0.08 0 0.2 0.08 0 0.24 0.08 0 0.28 0.08 0 0.32 0.08 0 0.36 0.08 0 0.4 0.08 0 0.44 0.08 0 0.48 0.08 0 0.52 0.08 0 0.56 0.08 0 0.6 0.08 0 0.64 0.08 0 0.68 0.08 0 0.72 0.08 0 0.76 0.08 0 0.8 0.08 0 0.84 0.08 0 0.88 0.08 0 0.92 0.08 0 0.96 0.08 0 1 0.08 0 1.04 0.08 0 1.08 0.08 0 1.12 0.08 0 1.16 0.08 0 1.2 0.08 0 0 0.12 0 0.04 0.12 0 0.08 0.12 0 0.12 0.12 0 0.16 0.12 0 0.2 0.12 0 0.24 0.12 0 0.28 0.12 0 0.32 0.12 0 0.36 0.12 0 0.4 0.12 0 0.44 0.12 0 0.48 0.12 0 0.52 0.12 0 0.56 0.12 0 0.6 0.12 0 0.64 0.12 0 0.68 0.12 0 0.72 0.12 0 0.76 0.12 0 0.8 0.12 0 0.84 0.12 0 0.88 0.12 0 0.92 0.12 0 0.96 0.12 0 1 0.12 0 1.04 0.12 0 1.08 0.12 0 1.12 0.12 0 1.16 0.12 0 1.2 0.12 0 0 0.16 0 0.04 0.16 0 0.08 0.16 0 0.12 0.16 0 0.16 0.16 0 0.2 0.16 0 0.24 0.16 0 0.28 0.16 0 0.32 0.16 0 0.36 0.16 0 0.4 0.16 0 0.44 0.16 0 0.48 0.16 0 0.52 0.16 0 0.56 0.16 0 0.6 0.16 0 0.64 0.16 0 0.68 0.16 0 0.72 0.16 0 0.76 0.16 0 0.8 0.16 0 0.84 0.16 0 0.88 0.16 0 0.92 0.16 0 0.96 0.16 0 1 0.16 0 1.04 0.16 0 1.08 0.16 0 1.12 0.16 0 1.16 0.16 0 1.2 0.16 0 0 0.2 0 0.04 0.2 0 0.08 0.2 0 0.12 0.2 0 0.16 0.2 0 0.2 0.2 0 0.24 0.2 0 0.28 0.2 0 0.32 0.2 0 0.36 0.2 0 0.4 0.2 0 0.44 0.2 0 0.48 0.2 0 0.52 0.2 0 0.56 0.2 0 0.6 0.2 0 0.64 0.2 0 0.68 0.2 0 0.72 0.2 0 0.76 0.2 0 0.8 0.2 0 0.84 0.2 0 0.88 0.2 0 0.92 0.2 0 0.96 0.2 0 1 0.2 0 1.04 0.2 0 1.08 0.2 0 1.12 0.2 0 1.16 0.2 0 1.2 0.2 0 0 0.24 0 0.04 0.24 0 0.08 0.24 0 0.12 0.24 0 0.16 0.24 0 0.2 0.24 0 0.24 0.24 0 0.28 0.24 0 0.32 0.24 0 0.36 0.24 0 0.4 0.24 0 0.44 0.24 0 0.48 0.24 0 0.52 0.24 0 0.56 0.24 0 0.6 0.24 0 0.64 0.24 0 0.68 0.24 0 0.72 0.24 0 0.76 0.24 0 0.8 0.24 0 0.84 0.24 0 0.88 0.24 0 0.92 0.24 0 0.96 0.24 0 1 0.24 0 1.04 0.24 0 1.08 0.24 0 1.12 0.24 0 1.16 0.24 0 1.2 0.24 0 0 0.28 0 0.04 0.28 0 0.08 0.28 0 0.12 0.28 0 0.16 0.28 0 0.2 0.28 0 0.24 0.28 0 0.28 0.28 0 0.32 0.28 0 0.36 0.28 0 0.4 0.28 0 0.44 0.28 0 0.48 0.28 0 0.52 0.28 0 0.56 0.28 0 0.6 0.28 0 0.64 0.28 0 0.68 0.28 0 0.72 0.28 0 0.76 0.28 0 0.8 0.28 0 0.84 0.28 0 0.88 0.28 0 0.92 0.28 0 0.96 0.28 0 1 0.28 0 1.04 0.28 0 1.08 0.28 0 1.12 0.28 0 1.16 0.28 0 1.2 0.28 0 0 0.32 0 0.04 0.32 0 0.08 0.32 0 0.12 0.32 0 0.16 0.32 0 0.2 0.32 0 0.24 0.32 0 0.28 0.32 0 0.32 0.32 0 0.36 0.32 0 0.4 0.32 0 0.44 0.32 0 0.48 0.32 0 0.52 0.32 0 0.56 0.32 0 0.6 0.32 0 0.64 0.32 0 0.68 0.32 0 0.72 0.32 0 0.76 0.32 0 0.8 0.32 0 0.84 0.32 0 0.88 0.32 0 0.92 0.32 0 0.96 0.32 0 1 0.32 0 1.04 0.32 0 1.08 0.32 0 1.12 0.32 0 1.16 0.32 0 1.2 0.32 0 0 0.36 0 0.04 0.36 0 0.08 0.36 0 0.12 0.36 0 0.16 0.36 0 0.2 0.36 0 0.24 0.36 0 0.28 0.36 0 0.32 0.36 0 0.36 0.36 0 0.4 0.36 0 0.44 0.36 0 0.48 0.36 0 0.52 0.36 0 0.56 0.36 0 0.6 0.36 0 0.64 0.36 0 0.68 0.36 0 0.72 0.36 0 0.76 0.36 0 0.8 0.36 0 0.84 0.36 0 0.88 0.36 0 0.92 0.36 0 0.96 0.36 0 1 0.36 0 1.04 0.36 0 1.08 0.36 0 1.12 0.36 0 1.16 0.36 0 1.2 0.36 0 0 0.4 0 0.04 0.4 0 0.08 0.4 0 0.12 0.4 0 0.16 0.4 0 0.2 0.4 0 0.24 0.4 0 0.28 0.4 0 0.32 0.4 0 0.36 0.4 0 0.4 0.4 0 0.44 0.4 0 0.48 0.4 0 0.52 0.4 0 0.56 0.4 0 0.6 0.4 0 0.64 0.4 0 0.68 0.4 0 0.72 0.4 0 0.76 0.4 0 0.8 0.4 0 0.84 0.4 0 0.88 0.4 0 0.92 0.4 0 0.96 0.4 0 1 0.4 0 1.04 0.4 0 1.08 0.4 0 1.12 0.4 0 1.16 0.4 0 1.2 0.4 0 0 0.44 0 0.04 0.44 0 0.08 0.44 0 0.12 0.44 0 0.16 0.44 0 0.2 0.44 0 0.24 0.44 0 0.28 0.44 0 0.32 0.44 0 0.36 0.44 0 0.4 0.44 0 0.44 0.44 0 0.48 0.44 0 0.52 0.44 0 0.56 0.44 0 0.6 0.44 0 0.64 0.44 0 0.68 0.44 0 0.72 0.44 0 0.76 0.44 0 0.8 0.44 0 0.84 0.44 0 0.88 0.44 0 0.92 0.44 0 0.96 0.44 0 1 0.44 0 1.04 0.44 0 1.08 0.44 0 1.12 0.44 0 1.16 0.44 0 1.2 0.44 0 0 0.48 0 0.04 0.48 0 0.08 0.48 0 0.12 0.48 0 0.16 0.48 0 0.2 0.48 0 0.24 0.48 0 0.28 0.48 0 0.32 0.48 0 0.36 0.48 0 0.4 0.48 0 0.44 0.48 0 0.48 0.48 0 0.52 0.48 0 0.56 0.48 0 0.6 0.48 0 0.64 0.48 0 0.68 0.48 0 0.72 0.48 0 0.76 0.48 0 0.8 0.48 0 0.84 0.48 0 0.88 0.48 0 0.92 0.48 0 0.96 0.48 0 1 0.48 0 1.04 0.48 0 1.08 0.48 0 1.12 0.48 0 1.16 0.48 0 1.2 0.48 0 0 0.52 0 0.04 0.52 0 0.08 0.52 0 0.12 0.52 0 0.16 0.52 0 0.2 0.52 0 0.24 0.52 0 0.28 0.52 0 0.32 0.52 0 0.36 0.52 0 0.4 0.52 0 0.44 0.52 0 0.48 0.52 0 0.52 0.52 0 0.56 0.52 0 0.6 0.52 0 0.64 0.52 0 0.68 0.52 0 0.72 0.52 0 0.76 0.52 0 0.8 0.52 0 0.84 0.52 0 0.88 0.52 0 0.92 0.52 0 0.96 0.52 0 1 0.52 0 1.04 0.52 0 1.08 0.52 0 1.12 0.52 0 1.16 0.52 0 1.2 0.52 0 0 0.56 0 0.04 0.56 0 0.08 0.56 0 0.12 0.56 0 0.16 0.56 0 0.2 0.56 0 0.24 0.56 0 0.28 0.56 0 0.32 0.56 0 0.36 0.56 0 0.4 0.56 0 0.44 0.56 0 0.48 0.56 0 0.52 0.56 0 0.56 0.56 0 0.6 0.56 0 0.64 0.56 0 0.68 0.56 0 0.72 0.56 0 0.76 0.56 0 0.8 0.56 0 0.84 0.56 0 0.88 0.56 0 0.92 0.56 0 0.96 0.56 0 1 0.56 0 1.04 0.56 0 1.08 0.56 0 1.12 0.56 0 1.16 0.56 0 1.2 0.56 0 0 0.6 0 0.04 0.6 0 0.08 0.6 0 0.12 0.6 0 0.16 0.6 0 0.2 0.6 0 0.24 0.6 0 0.28 0.6 0 0.32 0.6 0 0.36 0.6 0 0.4 0.6 0 0.44 0.6 0 0.48 0.6 0 0.52 0.6 0 0.56 0.6 0 0.6 0.6 0 0.64 0.6 0 0.68 0.6 0 0.72 0.6 0 0.76 0.6 0 0.8 0.6 0 0.84 0.6 0 0.88 0.6 0 0.92 0.6 0 0.96 0.6 0 1 0.6 0 1.04 0.6 0 1.08 0.6 0 1.12 0.6 0 1.16 0.6 0 1.2 0.6 0 0 0.64 0 0.04 0.64 0 0.08 0.64 0 0.12 0.64 0 0.16 0.64 0 0.2 0.64 0 0.24 0.64 0 0.28 0.64 0 0.32 0.64 0 0.36 0.64 0 0.4 0.64 0 0.44 0.64 0 0.48 0.64 0 0.52 0.64 0 0.56 0.64 0 0.6 0.64 0 0.64 0.64 0 0.68 0.64 0 0.72 0.64 0 0.76 0.64 0 0.8 0.64 0 0.84 0.64 0 0.88 0.64 0 0.92 0.64 0 0.96 0.64 0 1 0.64 0 1.04 0.64 0 1.08 0.64 0 1.12 0.64 0 1.16 0.64 0 1.2 0.64 0 0 0.68 0 0.04 0.68 0 0.08 0.68 0 0.12 0.68 0 0.16 0.68 0 0.2 0.68 0 0.24 0.68 0 0.28 0.68 0 0.32 0.68 0 0.36 0.68 0 0.4 0.68 0 0.44 0.68 0 0.48 0.68 0 0.52 0.68 0 0.56 0.68 0 0.6 0.68 0 0.64 0.68 0 0.68 0.68 0 0.72 0.68 0 0.76 0.68 0 0.8 0.68 0 0.84 0.68 0 0.88 0.68 0 0.92 0.68 0 0.96 0.68 0 1 0.68 0 1.04 0.68 0 1.08 0.68 0 1.12 0.68 0 1.16 0.68 0 1.2 0.68 0 0 0.72 0 0.04 0.72 0 0.08 0.72 0 0.12 0.72 0 0.16 0.72 0 0.2 0.72 0 0.24 0.72 0 0.28 0.72 0 0.32 0.72 0 0.36 0.72 0 0.4 0.72 0 0.44 0.72 0 0.48 0.72 0 0.52 0.72 0 0.56 0.72 0 0.6 0.72 0 0.64 0.72 0 0.68 0.72 0 0.72 0.72 0 0.76 0.72 0 0.8 0.72 0 0.84 0.72 0 0.88 0.72 0 0.92 0.72 0 0.96 0.72 0 1 0.72 0 1.04 0.72 0 1.08 0.72 0 1.12 0.72 0 1.16 0.72 0 1.2 0.72 0 0 0.76 0 0.04 0.76 0 0.08 0.76 0 0.12 0.76 0 0.16 0.76 0 0.2 0.76 0 0.24 0.76 0 0.28 0.76 0 0.32 0.76 0 0.36 0.76 0 0.4 0.76 0 0.44 0.76 0 0.48 0.76 0 0.52 0.76 0 0.56 0.76 0 0.6 0.76 0 0.64 0.76 0 0.68 0.76 0 0.72 0.76 0 0.76 0.76 0 0.8 0.76 0 0.84 0.76 0 0.88 0.76 0 0.92 0.76 0 0.96 0.76 0 1 0.76 0 1.04 0.76 0 1.08 0.76 0 1.12 0.76 0 1.16 0.76 0 1.2 0.76 0 0 0.8 0 0.04 0.8 0 0.08 0.8 0 0.12 0.8 0 0.16 0.8 0 0.2 0.8 0 0.24 0.8 0 0.28 0.8 0 0.32 0.8 0 0.36 0.8 0 0.4 0.8 0 0.44 0.8 0 0.48 0.8 0 0.52 0.8 0 0.56 0.8 0 0.6 0.8 0 0.64 0.8 0 0.68 0.8 0 0.72 0.8 0 0.76 0.8 0 0.8 0.8 0 0.84 0.8 0 0.88 0.8 0 0.92 0.8 0 0.96 0.8 0 1 0.8 0 1.04 0.8 0 1.08 0.8 0 1.12 0.8 0 1.16 0.8 0 1.2 0.8 0 0 0.84 0 0.04 0.84 0 0.08 0.84 0 0.12 0.84 0 0.16 0.84 0 0.2 0.84 0 0.24 0.84 0 0.28 0.84 0 0.32 0.84 0 0.36 0.84 0 0.4 0.84 0 0.44 0.84 0 0.48 0.84 0 0.52 0.84 0 0.56 0.84 0 0.6 0.84 0 0.64 0.84 0 0.68 0.84 0 0.72 0.84 0 0.76 0.84 0 0.8 0.84 0 0.84 0.84 0 0.88 0.84 0 0.92 0.84 0 0.96 0.84 0 1 0.84 0 1.04 0.84 0 1.08 0.84 0 1.12 0.84 0 1.16 0.84 0 1.2 0.84 0 0 0.88 0 0.04 0.88 0 0.08 0.88 0 0.12 0.88 0 0.16 0.88 0 0.2 0.88 0 0.24 0.88 0 0.28 0.88 0 0.32 0.88 0 0.36 0.88 0 0.4 0.88 0 0.44 0.88 0 0.48 0.88 0 0.52 0.88 0 0.56 0.88 0 0.6 0.88 0 0.64 0.88 0 0.68 0.88 0 0.72 0.88 0 0.76 0.88 0 0.8 0.88 0 0.84 0.88 0 0.88 0.88 0 0.92 0.88 0 0.96 0.88 0 1 0.88 0 1.04 0.88 0 1.08 0.88 0 1.12 0.88 0 1.16 0.88 0 1.2 0.88 0 0 0.92 0 0.04 0.92 0 0.08 0.92 0 0.12 0.92 0 0.16 0.92 0 0.2 0.92 0 0.24 0.92 0 0.28 0.92 0 0.32 0.92 0 0.36 0.92 0 0.4 0.92 0 0.44 0.92 0 0.48 0.92 0 0.52 0.92 0 0.56 0.92 0 0.6 0.92 0 0.64 0.92 0 0.68 0.92 0 0.72 0.92 0 0.76 0.92 0 0.8 0.92 0 0.84 0.92 0 0.88 0.92 0 0.92 0.92 0 0.96 0.92 0 1 0.92 0 1.04 0.92 0 1.08 0.92 0 1.12 0.92 0 1.16 0.92 0 1.2 0.92 0 0 0.96 0 0.04 0.96 0 0.08 0.96 0 0.12 0.96 0 0.16 0.96 0 0.2 0.96 0 0.24 0.96 0 0.28 0.96 0 0.32 0.96 0 0.36 0.96 0 0.4 0.96 0 0.44 0.96 0 0.48 0.96 0 0.52 0.96 0 0.56 0.96 0 0.6 0.96 0 0.64 0.96 0 0.68 0.96 0 0.72 0.96 0 0.76 0.96 0 0.8 0.96 0 0.84 0.96 0 0.88 0.96 0 0.92 0.96 0 0.96 0.96 0 1 0.96 0 1.04 0.96 0 1.08 0.96 0 1.12 0.96 0 1.16 0.96 0 1.2 0.96 0 0 1 0 0.04 1 0 0.08 1 0 0.12 1 0 0.16 1 0 0.2 1 0 0.24 1 0 0.28 1 0 0.32 1 0 0.36 1 0 0.4 1 0 0.44 1 0 0.48 1 0 0.52 1 0 0.56 1 0 0.6 1 0 0.64 1 0 0.68 1 0 0.72 1 0 0.76 1 0 0.8 1 0 0.84 1 0 0.88 1 0 0.92 1 0 0.96 1 0 1 1 0 1.04 1 0 1.08 1 0 1.12 1 0 1.16 1 0 1.2 1 0 0 1.04 0 0.04 1.04 0 0.08 1.04 0 0.12 1.04 0 0.16 1.04 0 0.2 1.04 0 0.24 1.04 0 0.28 1.04 0 0.32 1.04 0 0.36 1.04 0 0.4 1.04 0 0.44 1.04 0 0.48 1.04 0 0.52 1.04 0 0.56 1.04 0 0.6 1.04 0 0.64 1.04 0 0.68 1.04 0 0.72 1.04 0 0.76 1.04 0 0.8 1.04 0 0.84 1.04 0 0.88 1.04 0 0.92 1.04 0 0.96 1.04 0 1 1.04 0 1.04 1.04 0 1.08 1.04 0 1.12 1.04 0 1.16 1.04 0 1.2 1.04 0 0 1.08 0 0.04 1.08 0 0.08 1.08 0 0.12 1.08 0 0.16 1.08 0 0.2 1.08 0 0.24 1.08 0 0.28 1.08 0 0.32 1.08 0 0.36 1.08 0 0.4 1.08 0 0.44 1.08 0 0.48 1.08 0 0.52 1.08 0 0.56 1.08 0 0.6 1.08 0 0.64 1.08 0 0.68 1.08 0 0.72 1.08 0 0.76 1.08 0 0.8 1.08 0 0.84 1.08 0 0.88 1.08 0 0.92 1.08 0 0.96 1.08 0 1 1.08 0 1.04 1.08 0 1.08 1.08 0 1.12 1.08 0 1.16 1.08 0 1.2 1.08 0 0 1.12 0 
[...]
			<PointData Scalars="VitesseX">
				<DataArray Name="VitesseX" type="Float32" format="ascii">
 0 -0.0924936 -0.178203 -0.187581 -0.149488 -0.0661046 0.0334349 0.115001 0.147729 0.128883 0.0640256 -0.0415735 -0.197125 -0.442456 -0.835724 -1.30092 -1.64013 -1.77679 -1.71785 -1.57074 -1.4206 -1.27313 -1.12719 -0.983372 -0.842002 -0.703384 -0.56742 -0.432794 -0.29684 -0.148167 0 0 0.0314229 -0.0319918 -0.0813541 -0.0697818 -0.0216888 0.0501101 0.114072 0.138077 0.111777 0.0454432 -0.0569018 -0.208208 -0.447798 -0.832129 -1.29114 -1.63034 -1.76992 -1.7161 -1.57072 -1.42057 -1.27319 -1.12734 -0.983592 -0.842261 -0.703668 -0.567765 -0.433303 -0.29765 -0.14877 0 0 0.00399462 0.00966546 -0.0257627 -0.0522923 -0.0574816 -0.0446125 -0.0173715 0.00763397 0.00416035 -0.0392263 -0.121286 -0.254062 -0.473735 -0.829891 -1.26852 -1.6055 -1.75245 -1.71364 -1.57308 -1.42242 -1.2748 -1.12864 -0.984535 -0.842817 -0.703895 -0.567864 -0.433659 -0.298649 -0.14986 0 0 -0.0538435 -0.0886417 -0.114331 -0.148127 -0.174762 -0.191303 -0.193877 -0.181711 -0.172012 -0.182815 -0.229372 -0.330124 -0.517094 -0.828609 -1.23323 -1.56432 -1.72144 -1.70922 -1.57782 -1.42663 -1.27873 -1.13209 -0.987364 -0.844968 -0.705396 -0.5689 -0.434699 -0.300139 -0.151284 0 0 -0.105495 -0.169665 -0.210572 -0.246494 -0.281764 -0.311363 -0.327653 -0.326792 -0.313538 -0.307673 -0.334401 -0.412947 -0.56822 -0.826791 -1.18543 -1.50399 -1.67432 -1.70138 -1.58363 -1.4333 -1.28513 -1.13795 -0.992453 -0.849163 -0.708638 -0.571261 -0.436621 -0.302103 -0.152932 0 0 -0.137726 -0.233222 -0.291048 -0.335671 -0.375807 -0.409957 -0.433415 -0.44007 -0.430677 -0.423439 -0.437367 -0.49504 -0.618856 -0.824858 -1.12594 -1.42425 -1.616 -1.68094 -1.58784 -1.4423 -1.29371 -1.14596 -0.999577 -0.855216 -0.713475 -0.574858 -0.439293 -0.304357 -0.154747 0 0 -0.151652 -0.261758 -0.333797 -0.390464 -0.441945 -0.485809 -0.517791 -0.530998 -0.525957 -0.51688 -0.524921 -0.569166 -0.665047 -0.825197 -1.05952 -1.33179 -1.54251 -1.63803 -1.58621 -1.45342 -1.30378 -1.15555 -1.0082 -0.862641 -0.719529 -0.579458 -0.442576 -0.306821 -0.156814 0 0 -0.132114 -0.246593 -0.335921 -0.405467 -0.465883 -0.523277 -0.573111 -0.604749 -0.61154 -0.603511 -0.604376 -0.636259 -0.707938 -0.828412 -0.997281 -1.23089 -1.44753 -1.56729 -1.57824 -1.46358 -1.31428 -1.16605 -1.01775 -0.870976 -0.726475 -0.584874 -0.446417 -0.309517 -0.15925 0 0 -0.0910491 -0.185421 -0.27564 -0.358295 -0.44163 -0.523782 -0.593887 -0.647847 -0.680971 -0.689197 -0.688329 -0.703577 -0.752171 -0.832437 -0.950045 -1.12422 -1.33026 -1.48321 -1.54617 -1.46675 -1.32551 -1.17667 -1.02777 -0.879934 -0.734136 -0.591036 -0.450788 -0.312334 -0.161988 0 0 -0.0444817 -0.10065 -0.180703 -0.272272 -0.366838 -0.466302 -0.56816 -0.656448 -0.718984 -0.754154 -0.766363 -0.773329 -0.795721 -0.841456 -0.915273 -1.0231 -1.20362 -1.38027 -1.47774 -1.4602 -1.33684 -1.18712 -1.03819 -0.889427 -0.742418 -0.597852 -0.455757 -0.315416 -0.164269 0 0 -0.0118706 -0.0371618 -0.0931665 -0.176269 -0.272941 -0.379316 -0.496033 -0.610883 -0.711228 -0.782179 -0.817173 -0.827524 -0.832405 -0.850298 -0.882568 -0.945171 -1.07154 -1.25004 -1.38317 -1.4314 -1.34255 -1.19799 -1.04923 -0.899768 -0.751543 -0.605382 -0.461425 -0.319105 -0.166823 0 0 0.00490697 -0.00184795 -0.0380378 -0.104825 -0.190722 -0.287876 -0.397023 -0.521236 -0.642843 -0.746392 -0.817056 -0.845742 -0.847961 -0.843963 -0.849275 -0.877197 -0.944479 -1.10235 -1.26864 -1.36145 -1.33635 -1.20864 -1.0607 -0.911252 -0.761875 -0.614079 -0.468224 -0.323887 -0.170499 0 0 0.010939 0.011691 -0.0111076 -0.0596282 -0.127931 -0.211334 -0.304547 -0.408365 -0.525171 -0.642527 -0.740461 -0.799621 -0.814955 -0.80559 -0.797663 -0.800462 -0.836252 -0.944764 -1.12179 -1.2571 -1.30415 -1.21339 -1.07119 -0.923327 -0.773395 -0.624084 -0.476274 -0.329731 -0.174814 0 0 0.0114574 0.0147756 0.00185878 -0.0306413 -0.0809106 -0.144849 -0.217925 -0.299844 -0.392116 -0.491753 -0.591687 -0.673281 -0.715072 -0.717449 -0.70526 -0.702138 -0.722953 -0.786099 -0.948504 -1.12526 -1.22466 -1.2042 -1.0776 -0.933377 -0.784421 -0.634199 -0.484438 -0.335566 -0.178074 0 0 0.0123796 0.0189901 0.0137178 -0.00642434 -0.0395217 -0.081454 -0.133358 -0.193423 -0.259826 -0.335233 -0.41222 -0.484431 -0.539339 -0.56343 -0.560702 -0.560353 -0.578545 -0.630493 -0.754533 -0.951144 -1.10431 -1.16071 -1.07471 -0.93803 -0.792079 -0.642103 -0.490988 -0.340416 -0.180602 0 0 0.0230161 0.0403588 0.0465316 0.0386069 0.0176701 -0.0129486 -0.0471248 -0.085014 -0.132806 -0.184453 -0.237363 -0.286791 -0.327377 -0.351347 -0.360336 -0.361672 -0.387219 -0.444838 -0.545722 -0.739234 -0.943282 -1.05965 -1.05212 -0.933794 -0.794157 -0.646196 -0.495429 -0.344559 -0.183509 0 0 0.0399987 0.0731535 0.0943177 0.101103 0.0950383 0.0786992 0.054234 0.0225432 -0.0100531 -0.0437505 -0.0797577 -0.109786 -0.127282 -0.133562 -0.128947 -0.125503 -0.139826 -0.203736 -0.312066 -0.490791 -0.728004 -0.909535 -0.982278 -0.911541 -0.787657 -0.645728 -0.497605 -0.348416 -0.187512 0 0 0.0540745 0.100381 0.13535 0.158563 0.171416 0.171307 0.158272 0.137446 0.112967 0.0848872 0.0604004 0.044123 0.0377733 0.0494987 0.0800248 0.112737 0.121603 0.0889341 -0.0235496 -0.201874 -0.458587 -0.705218 -0.847042 -0.857049 -0.763844 -0.638142 -0.497158 -0.351471 -0.192519 0 0 0.0601758 0.11278 0.155526 0.188932 0.215089 0.233444 0.240229 0.240609 0.228602 0.210978 0.193752 0.17979 0.175985 0.193119 0.233783 0.298794 0.357115 0.366921 0.305576 0.137981 -0.126621 -0.43161 -0.654601 -0.745535 -0.712055 -0.617204 -0.491888 -0.352335 -0.197251 0 0 0.0557028 0.103273 0.144046 0.178936 0.220451 0.25754 0.2814 0.300402 0.309317 0.31679 0.315756 0.310033 0.30953 0.31876 0.349945 0.415444 0.512279 0.593274 0.594686 0.492557 0.25945 -0.0802958 -0.38907 -0.571204 -0.616722 -0.572952 -0.476723 -0.348978 -0.19988 0 0 0.0446145 0.0854502 0.114506 0.152175 0.199285 0.242511 0.278429 0.313176 0.34329 0.372787 0.398191 0.416695 0.430984 0.443057 0.46581 0.513146 0.596139 0.714941 0.804961 0.783137 0.624552 0.324589 -0.0501697 -0.328202 -0.465278 -0.489957 -0.442009 -0.336972 -0.198582 0 0 0.0341434 0.0639285 0.0868028 0.131036 0.179922 0.216768 0.249388 0.287024 0.330742 0.380469 0.429048 0.469441 0.506737 0.539253 0.57468 0.61511 0.678596 0.776304 0.903508 0.968571 0.900691 0.679061 0.328243 -0.0275369 -0.254511 -0.357754 -0.372268 -0.309394 -0.189457 0 0 0.0261205 0.0378285 0.0691314 0.121042 0.161783 0.188006 0.217626 0.256822 0.302898 0.353908 0.408484 0.466762 0.527038 0.58155 0.636382 0.68945 0.752889 0.835894 0.944164 1.05062 1.0569 0.930467 0.646582 0.294117 0.000839236 -0.178059 -0.259191 -0.254672 -0.165874 0 0 0.0175069 0.0157767 0.065128 0.114919 0.140225 0.160319 0.190466 0.230703 0.27713 0.326847 0.378552 0.432887 0.491077 0.555425 0.628609 0.705036 0.786285 0.874808 0.968464 1.06867 1.11738 1.06576 0.868259 0.562318 0.265676 0.0373705 -0.108849 -0.164194 -0.120046 0 0 -0.00106364 0.00588924 0.0678881 0.101466 0.1155 0.1348 0.16779 0.209713 0.255936 0.30306 0.350251 0.398568 0.450018 0.507072 0.572279 0.648598 0.738982 0.843028 0.951384 1.04002 1.1095 1.10644 0.99323 0.755717 0.493562 0.261399 0.070991 -0.0444487 -0.0501106 0 0 -0.0211801 0.00981091 0.0618176 0.080392 0.089949 0.112202 0.148804 0.192089 0.236859 0.280558 0.323277 0.366419 0.411818 0.461362 0.517226 0.582146 0.658318 0.748897 0.859167 0.961045 1.0385 1.07403 1.03071 0.880496 0.666918 0.462259 0.263518 0.0940926 0.0331568 0 0 -0.0370763 0.0144886 0.0432287 0.0545725 0.0648287 0.0921097 0.131802 0.175662 0.217738 0.257237 0.29554 0.334282 0.375069 0.419431 0.468414 0.523058 0.585142 0.657024 0.742086 0.837652 0.919541 0.978906 0.989288 0.92964 0.792128 0.624634 0.442931 0.24666 0.124577 0 0 -0.045464 0.00748687 0.0146871 0.0259987 0.0403199 0.0729068 0.114278 0.155026 0.19257 0.227753 0.262507 0.29824 0.336292 0.377496 0.421927 0.46971 0.521907 0.580377 0.647039 0.721871 0.794345 0.852229 0.891571 0.894502 0.847092 0.742815 0.596436 0.407046 0.224829 0 0 -0.0421628 -0.033136 -0.00852114 -0.000361667 0.0129332 0.0448107 0.083801 0.120016 0.15216 0.182185 0.212926 0.246292 0.283288 0.323574 0.3662 0.410843 0.4584 0.510309 0.567739 0.631032 0.696701 0.752211 0.78877 0.804368 0.801098 0.771403 0.711563 0.587788 0.38948 0 0 -0.118642 -0.0628094 -0.0155781 -0.0174888 -0.0117313 0.00892758 0.0319174 0.0542784 0.075153 0.0951102 0.116719 0.143551 0.176032 0.212164 0.250513 0.291627 0.337436 0.389955 0.450782 0.521283 0.601882 0.688286 0.765969 0.817175 0.837846 0.846402 0.831556 0.806533 0.693379 0 0 0 0 0 0 0 0 0 0 0 0 0 0 0 0 0 0 0 0 0 0 0 0 0 0 0 0 0 0 0 0
				</DataArray>
				<DataArray Name="VitesseY" type="Float32" format="ascii">
 0 0 0 0 0 0 0 0 0 0 0 0 0 0 0 0 0 0 0 0 0 0 0 0 0 0 0 0 0 0 0 -0.100618 0.0204685 -0.0129701 -0.070948 -0.122708 -0.154322 -0.164373 -0.131008 -0.0796577 -0.0372965 -0.0103861 0.00216608 0.00601664 0.00625524 0.0130017 0.0281971 0.0440535 0.052951 0.0538842 0.0485874 0.0431431 0.0384708 0.0344764 0.0309187 0.0275748 0.0242778 0.0208354 0.0166327 0.0104757 0.00388822 0 -0.201996 -0.0552181 -0.021447 -0.120385 -0.202249 -0.263133 -0.287546 -0.249 -0.164951 -0.0847248 -0.0330998 -0.00773865 0.00199442 0.00503129 0.0197376 0.0509766 0.0840977 0.103476 0.107237 0.0971917 0.0864881 0.0772048 0.069283 0.0622764 0.0556955 0.0491759 0.0422131 0.0336764 0.0214812 0.00774589 0 -0.228154 -0.121916 -0.0683672 -0.155903 -0.251164 -0.328705 -0.366651 -0.345784 -0.261123 -0.159291 -0.0864709 -0.0451748 -0.0241207 -0.0117529 0.0141312 0.0635595 0.116593 0.149767 0.158992 0.145578 0.130132 0.116444 0.104782 0.0944646 0.0847573 0.0751172 0.0647822 0.0521817 0.0342235 0.0124294 0 -0.207995 -0.126948 -0.108498 -0.194088 -0.289474 -0.376419 -0.422939 -0.424069 -0.354373 -0.256902 -0.169916 -0.110875 -0.0735768 -0.0465859 -0.00641762 0.0629326 0.138125 0.189455 0.207664 0.193587 0.174495 0.156667 0.141484 0.128033 0.115388 0.10284 0.0893844 0.0730113 0.0497051 0.0189172 0 -0.140944 -0.0969022 -0.124877 -0.225769 -0.325509 -0.41507 -0.473253 -0.49028 -0.444767 -0.361338 -0.269427 -0.196061 -0.140756 -0.0953694 -0.0403608 0.0476068 0.144134 0.215795 0.248047 0.241396 0.219857 0.198295 0.179807 0.163458 0.148094 0.132848 0.11647 0.0965162 0.0682026 0.0276152 0 -0.0561391 -0.0410254 -0.123706 -0.246561 -0.354452 -0.447718 -0.518677 -0.5498 -0.532417 -0.465755 -0.37755 -0.293293 -0.221084 -0.154437 -0.0832562 0.0188255 0.134097 0.230486 0.28089 0.289466 0.266345 0.241665 0.21999 0.200854 0.182877 0.165021 0.145793 0.122373 0.0894185 0.0385176 0 0.019797 0.0145284 -0.106902 -0.255206 -0.374617 -0.473013 -0.552986 -0.599398 -0.61098 -0.569587 -0.492449 -0.397404 -0.308524 -0.221209 -0.128846 -0.0197443 0.110784 0.232132 0.308443 0.334091 0.313312 0.286982 0.262098 0.24 0.219266 0.19869 0.176634 0.14989 0.112701 0.0514409 0 0.0547115 0.0449565 -0.0861917 -0.255145 -0.383242 -0.484223 -0.569554 -0.635736 -0.669576 -0.662625 -0.605806 -0.511255 -0.401487 -0.29368 -0.179177 -0.0613213 0.0785131 0.216484 0.317929 0.364847 0.361519 0.334189 0.305913 0.280563 0.256735 0.233152 0.208208 0.178283 0.137092 0.0659768 0 0.0400007 0.0286246 -0.0858242 -0.252718 -0.381048 -0.481043 -0.567869 -0.647994 -0.705181 -0.730727 -0.705518 -0.624654 -0.504051 -0.37114 -0.237994 -0.100121 0.0397273 0.187449 0.315687 0.389361 0.409445 0.382369 0.351214 0.322184 0.294937 0.268071 0.240123 0.20714 0.161694 0.0816687 0 -0.0207479 -0.0353302 -0.1214 -0.262974 -0.379991 -0.477627 -0.556219 -0.636356 -0.714843 -0.7663 -0.777812 -0.723678 -0.607879 -0.456877 -0.299279 -0.145514 0.0015462 0.153981 0.298597 0.401472 0.445992 0.431511 0.398196 0.364846 0.333827 0.303515 0.272473 0.23672 0.187272 0.0984644 0 -0.121036 -0.134227 -0.196613 -0.302383 -0.398944 -0.486038 -0.555818 -0.624587 -0.702825 -0.7722 -0.811489 -0.792613 -0.698308 -0.542042 -0.364997 -0.193009 -0.030809 0.120048 0.271519 0.40044 0.470149 0.482794 0.447639 0.409381 0.373898 0.339983 0.305862 0.267847 0.215494 0.11837 0 -0.25776 -0.266772 -0.310748 -0.381278 -0.455221 -0.52351 -0.581813 -0.634607 -0.696437 -0.762982 -0.810303 -0.819462 -0.755508 -0.61528 -0.427341 -0.235979 -0.0617644 0.0934492 0.245504 0.388214 0.487327 0.527203 0.500237 0.45747 0.41649 0.378531 0.341294 0.301461 0.247602 0.144355 0 -0.44451 -0.449286 -0.474642 -0.515903 -0.562461 -0.605431 -0.642405 -0.677797 -0.716523 -0.760333 -0.798491 -0.808613 -0.770189 -0.656648 -0.476159 -0.271995 -0.0835516 0.0812989 0.227736 0.372777 0.495681 0.559553 0.558043 0.511181 0.463622 0.420601 0.37998 0.338345 0.283978 0.176432 0 -0.716118 -0.714027 -0.717572 -0.726128 -0.735924 -0.743574 -0.748092 -0.752737 -0.764121 -0.779948 -0.793005 -0.789951 -0.751604 -0.660645 -0.499861 -0.294384 -0.0896099 0.0838147 0.228244 0.367682 0.50042 0.588333 0.615615 0.572104 0.517548 0.467778 0.422971 0.378894 0.323959 0.212379 0 -1.10106 -1.09012 -1.06684 -1.03266 -0.989641 -0.942986 -0.899423 -0.865037 -0.83737 -0.817088 -0.802945 -0.78156 -0.731749 -0.642032 -0.499929 -0.301474 -0.0837259 0.107448 0.256033 0.382214 0.509712 0.616015 0.668037 0.643055 0.580858 0.522069 0.470991 0.422939 0.366438 0.250637 0 -1.47275 -1.45638 -1.41728 -1.35836 -1.28403 -1.19955 -1.10981 -1.01864 -0.938801 -0.8811 -0.832984 -0.784608 -0.72635 -0.633611 -0.493788 -0.30324 -0.0781051 0.143058 0.310777 0.430025 0.540935 0.650085 0.720436 0.721613 0.655846 0.585993 0.524988 0.470476 0.411005 0.291704 0 -1.69727 -1.68028 -1.64122 -1.58332 -1.51002 -1.42242 -1.32085 -1.21087 -1.10114 -0.992993 -0.897679 -0.821069 -0.742083 -0.644696 -0.509467 -0.322962 -0.0878966 0.156675 0.374565 0.513528 0.609116 0.702591 0.77757 0.802307 0.745505 0.66174 0.586637 0.522511 0.458516 0.337483 0 -1.76078 -1.74573 -1.71406 -1.66794 -1.61017 -1.53822 -1.45529 -1.36897 -1.27309 -1.16202 -1.04581 -0.925321 -0.805261 -0.688994 -0.555426 -0.377502 -0.142901 0.132346 0.390712 0.602343 0.714579 0.788971 0.854849 0.891543 0.850783 0.752051 0.658346 0.580853 0.51039 0.389982 0 -1.65989 -1.64304 -1.61313 -1.57778 -1.55095 -1.52616 -1.49404 -1.44478 -1.37512 -1.30141 -1.21569 -1.10389 -0.970006 -0.817644 -0.650348 -0.469483 -0.249708 0.0313326 0.342301 0.612101 0.811259 0.906832 0.95642 0.982242 0.959202 0.862175 0.743319 0.647441 0.567802 0.450797 0 -1.50919 -1.48758 -1.44805 -1.41566 -1.40605 -1.39793 -1.38938 -1.38535 -1.38336 -1.3647 -1.31597 -1.24254 -1.14716 -1.01622 -0.847755 -0.647805 -0.414749 -0.140496 0.186256 0.523705 0.798775 0.976492 1.05822 1.07877 1.04776 0.964064 0.838699 0.722217 0.631095 0.521293 0 -1.36068 -1.32746 -1.27964 -1.25495 -1.24559 -1.23648 -1.2376 -1.25118 -1.27283 -1.29249 -1.30268 -1.29119 -1.24381 -1.15686 -1.03889 -0.874994 -0.660265 -0.396184 -0.0720581 0.300425 0.649723 0.914965 1.06615 1.12545 1.1162 1.04198 0.920534 0.79459 0.696759 0.601891 0 -1.20886 -1.15784 -1.11708 -1.09779 -1.08628 -1.08278 -1.09436 -1.11614 -1.1403 -1.16384 -1.18566 -1.20273 -1.20767 -1.19241 -1.13358 -1.02363 -0.87268 -0.666204 -0.391397 -0.0419318 0.354196 0.697253 0.94183 1.0737 1.11232 1.07744 0.980122 0.852498 0.752246 0.688295 0 -1.04004 -0.984073 -0.961516 -0.940081 -0.931912 -0.939341 -0.960363 -0.985808 -1.00981 -1.03072 -1.04824 -1.06358 -1.07687 -1.08467 -1.08139 -1.05383 -0.973148 -0.832364 -0.637653 -0.371181 -0.031609 0.344016 0.657207 0.875502 0.998176 1.03362 0.990502 0.891878 0.788815 0.765976 0 -0.858744 -0.812665 -0.809612 -0.786182 -0.788554 -0.806556 -0.832436 -0.857212 -0.877806 -0.893705 -0.907078 -0.919584 -0.9316 -0.941356 -0.945773 -0.941415 -0.918805 -0.861307 -0.745987 -0.568868 -0.32448 -0.0228031 0.298906 0.566188 0.758657 0.882418 0.930548 0.894782 0.80441 0.81718 0 -0.665171 -0.650522 -0.661286 -0.641803 -0.657349 -0.681453 -0.707005 -0.727539 -0.741603 -0.752191 -0.761493 -0.771188 -0.78169 -0.791659 -0.798536 -0.800065 -0.793094 -0.768924 -0.716881 -0.620605 -0.467836 -0.255981 0.000408912 0.266095 0.494347 0.667629 0.792582 0.847266 0.801138 0.837852 0 -0.452114 -0.501332 -0.514892 -0.507703 -0.536695 -0.560365 -0.580941 -0.594047 -0.602302 -0.608429 -0.614639 -0.621819 -0.630374 -0.639329 -0.646292 -0.649766 -0.6489 -0.640922 -0.619737 -0.57537 -0.492271 -0.359626 -0.179384 0.0366726 0.26124 0.462365 0.624753 0.742881 0.771427 0.846406 0 -0.231019 -0.361296 -0.369976 -0.383987 -0.422515 -0.441116 -0.452692 -0.458697 -0.461936 -0.46487 -0.46851 -0.473566 -0.480168 -0.487335 -0.493172 -0.497091 -0.498932 -0.498289 -0.492844 -0.477558 -0.442783 -0.373051 -0.259841 -0.109282 0.070775 0.263458 0.442935 0.596449 0.711572 0.83156 0 -0.00923594 -0.221413 -0.232014 -0.268358 -0.305398 -0.31577 -0.320203 -0.321207 -0.321255 -0.3218 -0.323467 -0.326791 -0.331647 -0.336921 -0.341382 -0.345253 -0.348923 -0.351851 -0.352637 -0.349216 -0.337155 -0.309545 -0.254825 -0.164329 -0.0445347 0.0940553 0.24665 0.407046 0.587791 0.806535 0 0.369943 -0.0832898 -0.119656 -0.14699 -0.157977 -0.162358 -0.167634 -0.16654 -0.166913 -0.167355 -0.168615 -0.171493 -0.175351 -0.178375 -0.180785 -0.18362 -0.187582 -0.192564 -0.197281 -0.199904 -0.198603 -0.189473 -0.165887 -0.120056 -0.0501201 0.0331511 0.124575 0.224829 0.389481 0.693381 0 3.19868 0 0 0 0 0 0 0 0 0 0 0 0 0 0 0 0 0 0 0 0 0 0 0 0 0 0 0 0 0 0
				</DataArray>
			</PointData>
			<CellData Scalars="Density">
				<DataArray Name="Density" type="Float32" format="ascii">