<?xml version="1.0"?>
<VTKFile type="PolyData">
	<PolyData>
		<Piece NumberOfPoints="961" NumberOfPolys="900">
			<Points>
				<DataArray type="Float32" NumberOfComponents="3" format="ascii">
 0 0 0 0.04 0 0 0.08 0 0 0.12 0 0 0.16 0 0 0.2 0 0 0.24 0 0 0.28 0 0 0.32 0 0 0.36 0 0 0.4 0 0 0.44 0 0 0.48 0 0 0.52 0 0 0.56 0 0 0.6 0 0 0.64 0 0 0.68 0 0 0.72 0 0 0.76 0 0 0.8 0 0 0.84 0 0 0.88 0 0 0.92 0 0 0.96 0 0 1 0 0 1.04 0 0 1.08 0 0 1.12 0 0 1.16 0 0 1.2 0 0 0 0.04 0 0.04 0.04 0 0.08 0.04 0 0.12 0.04 0 0.16 0.04 0 0.2 0.04 0 0.24 0.04 0 0.28 0.04 0 0.32 0.04 0 0.36 0.04 0 0.4 0.04 0 0.44 0.04 0 0.48 0.04 0 0.52 0.04 0 0.56 0.04 0 0.6 0.04 0 0.64 0.04 0 0.68 0.04 0 0.72 0.04 0 0.76 0.04 0 0.8 0.04 0 0.84 0.04 0 0.88 0.04 0 0.92 0.04 0 0.96 0.04 0 1 0.04 0 1.04 0.04 0 1.08 0.04 0 1.12 0.04 0 1.16 0.04 0 1.2 0.04 0 0 0.08 0 0.04 0.08 0 0.08 0.08 0 0.12 0.08 0 0.16 0.08 0 0.2 0.08 0 0.24 0.08 0 0.28 0.08 0 0.32 0.08 0 0.36 0.08 0 0.4 0.08 0 0.44 0.08 0 0.48 0.08 0 0.52 0.08 0 0.56 0.08 0 0.6 0.08 0 0.64 0.08 0 0.68 0.08 0 0.72 0.08 0 0.76 0.08 0 0.8 0.08 0 0.84 0.08 0 0.88 0.08 0 0.92 0.08 0 0.96 0.08 0 1 0.08 0 1.04 0.08 0 1.08 0.08 0 1.12 0.08 0 1.16 0.08 0 1.2 0.08 0 0 0.12 0 0.04 0.12 0 0.08 0.12 0 0.12 0.12 0 0.16 0.12 0 0.2 0.12 0 0.24 0.12 0 0.28 0.12 0 0.32 0.12 0 0.36 0.12 0 0.4 0.12 0 0.44 0.12 0 0.48 0.12 0 0.52 0.12 0 0.56 0.12 0 0.6 0.12 0 0.64 0.12 0 0.68 0.12 0 0.72 0.12 0 0.76 0.12 0 0.8 0.12 0 0.84 0.12 0 0.88 0.12 0 0.92 0.12 0 0.96 0.12 0 1 0.12 0 1.04 0.12 0 1.08 0.12 0 1.12 0.12 0 1.16 0.12 0 1.2 0.12 0 0 0.16 0 0.04 0.16 0 0.08 0.16 0 0.12 0.16 0 0.16 0.16 0 0.2 0.16 0 0.24 0.16 0 0.28 0.16 0 0.32 0.16 0 0.36 0.16 0 0.4 0.16 0 0.44 0.16 0 0.48 0.16 0 0.52 0.16 0 0.56 0.16 0 0.6 0.16 0 0.64 0.16 0 0.68 0.16 0 0.72 0.16 0 0.76 0.16 0 0.8 0.16 0 0.84 0.16 0 0.88 0.16 0 0.92 0.16 0 0.96 0.16 0 1 0.16 0 1.04 0.16 0 1.08 0.16 0 1.12 0.16 0 1.16 0.16 0 1.2 0.16 0 0 0.2 0 0.04 0.2 0 0.08 0.2 0 0.12 0.2 0 0.16 0.2 0 0.2 0.2 0 0.24 0.2 0 0.28 0.2 0 0.32 0.2 0 0.36 0.2 0 0.4 0.2 0 0.44 0.2 0 0.48 0.2 0 0.52 0.2 0 0.56 0.2 0 0.6 0.2 0 0.64 0.2 0 0.68 0.2 0 0.72 0.2 0 0.76 0.2 0 0.8 0.2 0 0.84 0.2 0 0.88 0.2 0 0.92 0.2 0 0.96 0.2 0 1 0.2 0 1.04 0.2 0 1.08 0.2 0 1.12 0.2 0 1.16 0.2 0 1.2 0.2 0 0 0.24 0 0.04 0.24 0 0.08 0.24 0 0.12 0.24 0 0.16 0.24 0 0.2 0.24 0 0.24 0.24 0 0.28 0.24 0 0.32 0.24 0 0.36 0.24 0 0.4 0.24 0 0.44 0.24 0 0.48 0.24 0 0.52 0.24 0 0.56 0.24 0 0.6 0.24 0 0.64 0.24 0 0.68 0.24 0 0.72 0.24 0 0.76 0.24 0 0.8 0.24 0 0.84 0.24 0 0.88 0.24 0 0.92 0.24 0 0.96 0.24 0 1 0.24 0 1.04 0.24 0 1.08 0.24 0 1.12 0.24 0 1.16 0.24 0 1.2 0.24 0 0 0.28 0 0.04 0.28 0 0.08 0.28 0 0.12 0.28 0 0.16 0.28 0 0.2 0.28 0 0.24 0.28 0 0.28 0.28 0 0.32 0.28 0 0.36 0.28 0 0.4 0.28 0 0.44 0.28 0 0.48 0.28 0 0.52 0.28 0 0.56 0.28 0 0.6 0.28 0 0.64 0.28 0 0.68 0.28 0 0.72 0.28 0 0.76 0.28 0 0.8 0.28 0 0.84 0.28 0 0.88 0.28 0 0.92 0.28 0 0.96 0.28 0 1 0.28 0 1.04 0.28 0 1.08 0.28 0 1.12 0.28 0 1.16 0.28 0 1.2 0.28 0 0 0.32 0 0.04 0.32 0 0.08 0.32 0 0.12 0.32 0 0.16 0.32 0 0.2 0.32 0 0.24 0.32 0 0.28 0.32 0 0.32 0.32 0 0.36 0.32 0 0.4 0.32 0 0.44 0.32 0 0.48 0.32 0 0.52 0.32 0 0.56 0.32 0 0.6 0.32 0 0.64 0.32 0 0.68 0.32 0 0.72 0.32 0 0.76 0.32 0 0.8 0.32 0 0.84 0.32 0 0.88 0.32 0 0.92 0.32 0 0.96 0.32 0 1 0.32 0 1.04 0.32 0 1.08 0.32 0 1.12 0.32 0 1.16 0.32 0 1.2 0.32 0 0 0.36 0 0.04 0.36 0 0.08 0.36 0 0.12 0.36 0 0.16 0.36 0 0.2 0.36 0 0.24 0.36 0 0.28 0.36 0 0.32 0.36 0 0.36 0.36 0 0.4 0.36 0 0.44 0.36 0 0.48 0.36 0 0.52 0.36 0 0.56 0.36 0 0.6 0.36 0 0.64 0.36 0 0.68 0.36 0 0.72 0.36 0 0.76 0.36 0 0.8 0.36 0 0.84 0.36 0 0.88 0.36 0 0.92 0.36 0 0.96 0.36 0 1 0.36 0 1.04 0.36 0 1.08 0.36 0 1.12 0.36 0 1.16 0.36 0 1.2 0.36 0 0 0.4 0 0.04 0.4 0 0.08 0.4 0 0.12 0.4 0 0.16 0.4 0 0.2 0.4 0 0.24 0.4 0 0.28 0.4 0 0.32 0.4 0 0.36 0.4 0 0.4 0.4 0 0.44 0.4 0 0.48 0.4 0 0.52 0.4 0 0.56 0.4 0 0.6 0.4 0 0.64 0.4 0 0.68 0.4 0 0.72 0.4 0 0.76 0.4 0 0.8 0.4 0 0.84 0.4 0 0.88 0.4 0 0.92 0.4 0 0.96 0.4 0 1 0.4 0 1.04 0.4 0 1.08 0.4 0 1.12 0.4 0 1.16 0.4 0 1.2 0.4 0 0 0.44 0 0.04 0.44 0 0.08 0.44 0 0.12 0.44 0 0.16 0.44 0 0.2 0.44 0 0.24 0.44 0 0.28 0.44 0 0.32 0.44 0 0.36 0.44 0 0.4 0.44 0 0.44 0.44 0 0.48 0.44 0 0.52 0.44 0 0.56 0.44 0 0.6 0.44 0 0.64 0.44 0 0.68 0.44 0 0.72 0.44 0 0.76 0.44 0 0.8 0.44 0 0.84 0.44 0 0.88 0.44 0 0.92 0.44 0 0.96 0.44 0 1 0.44 0 1.04 0.44 0 1.08 0.44 0 1.12 0.44 0 1.16 0.44 0 1.2 0.44 0 0 0.48 0 0.04 0.48 0 0.08 0.48 0 0.12 0.48 0 0.16 0.48 0 0.2 0.48 0 0.24 0.48 0 0.28 0.48 0 0.32 0.48 0 0.36 0.48 0 0.4 0.48 0 0.44 0.48 0 0.48 0.48 0 0.52 0.48 0 0.56 0.48 0 0.6 0.48 0 0.64 0.48 0 0.68 0.48 0 0.72 0.48 0 0.76 0.48 0 0.8 0.48 0 0.84 0.48 0 0.88 0.48 0 0.92 0.48 0 0.96 0.48 0 1 0.48 0 1.04 0.48 0 1.08 0.48 0 1.12 0.48 0 1.16 0.48 0 1.2 0.48 0 0 0.52 0 0.04 0.52 0 0.08 0.52 0 0.12 0.52 0 0.16 0.52 0 0.2 0.52 0 0.24 0.52 0 0.28 0.52 0 0.32 0.52 0 0.36 0.52 0 0.4 0.52 0 0.44 0.52 0 0.48 0.52 0 0.52 0.52 0 0.56 0.52 0 0.6 0.52 0 0.64 0.52 0 0.68 0.52 0 0.72 0.52 0 0.76 0.52 0 0.8 0.52 0 0.84 0.52 0 0.88 0.52 0 0.92 0.52 0 0.96 0.52 0 1 0.52 0 1.04 0.52 0 1.08 0.52 0 1.12 0.52 0 1.16 0.52 0 1.2 0.52 0 0 0.56 0 0.04 0.56 0 0.08 0.56 0 0.12 0.56 0 0.16 0.56 0 0.2 0.56 0 0.24 0.56 0 0.28 0.56 0 0.32 0.56 0 0.36 0.56 0 0.4 0.56 0 0.44 0.56 0 0.48 0.56 0 0.52 0.56 0 0.56 0.56 0 0.6 0.56 0 0.64 0.56 0 0.68 0.56 0 0.72 0.56 0 0.76 0.56 0 0.8 0.56 0 0.84 0.56 0 0.88 0.56 0 0.92 0.56 0 0.96 0.56 0 1 0.56 0 1.04 0.56 0 1.08 0.56 0 1.12 0.56 0 1.16 0.56 0 1.2 0.56 0 0 0.6 0 0.04 0.6 0 0.08 0.6 0 0.12 0.6 0 0.16 0.6 0 0.2 0.6 0 0.24 0.6 0 0.28 0.6 0 0.32 0.6 0 0.36 0.6 0 0.4 0.6 0 0.44 0.6 0 0.48 0.6 0 0.52 0.6 0 0.56 0.6 0 0.6 0.6 0 0.64 0.6 0 0.68 0.6 0 0.72 0.6 0 0.76 0.6 0 0.8 0.6 0 0.84 0.6 0 0.88 0.6 0 0.92 0.6 0 0.96 0.6 0 1 0.6 0 1.04 0.6 0 1.08 0.6 0 1.12 0.6 0 1.16 0.6 0 1.2 0.6 0 0 0.64 0 0.04 0.64 0 0.08 0.64 0 0.12 0.64 0 0.16 0.64 0 0.2 0.64 0 0.24 0.64 0 0.28 0.64 0 0.32 0.64 0 0.36 0.64 0 0.4 0.64 0 0.44 0.64 0 0.48 0.64 0 0.52 0.64 0 0.56 0.64 0 0.6 0.64 0 0.64 0.64 0 0.68 0.64 0 0.72 0.64 0 0.76 0.64 0 0.8 0.64 0 0.84 0.64 0 0.88 0.64 0 0.92 0.64 0 0.96 0.64 0 1 0.64 0 1.04 0.64 0 1.08 0.64 0 1.12 0.64 0 1.16 0.64 0 1.2 0.64 0 0 0.68 0 0.04 0.68 0 0.08 0.68 0 0.12 0.68 0 0.16 0.68 0 0.2 0.68 0 0.24 0.68 0 0.28 0.68 0 0.32 0.68 0 0.36 0.68 0 0.4 0.68 0 0.44 0.68 0 0.48 0.68 0 0.52 0.68 0 0.56 0.68 0 0.6 0.68 0 0.64 0.68 0 0.68 0.68 0 0.72 0.68 0 0.76 0.68 0 0.8 0.68 0 0.84 0.68 0 0.88 0.68 0 0.92 0.68 0 0.96 0.68 0 1 0.68 0 1.04 0.68 0 1.08 0.68 0 1.12 0.68 0 1.16 0.68 0 1.2 0.68 0 0 0.72 0 0.04 0.72 0 0.08 0.72 0 0.12 0.72 0 0.16 0.72 0 0.2 0.72 0 0.24 0.72 0 0.28 0.72 0 0.32 0.72 0 0.36 0.72 0 0.4 0.72 0 0.44 0.72 0 0.48 0.72 0 0.52 0.72 0 0.56 0.72 0 0.6 0.72 0 0.64 0.72 0 0.68 0.72 0 0.72 0.72 0 0.76 0.72 0 0.8 0.72 0 0.84 0.72 0 0.88 0.72 0 0.92 0.72 0 0.96 0.72 0 1 0.72 0 1.04 0.72 0 1.08 0.72 0 1.12 0.72 0 1.16 0.72 0 1.2 0.72 0 0 0.76 0 0.04 0.76 0 0.08 0.76 0 0.12 0.76 0 0.16 0.76 0 0.2 0.76 0 0.24 0.76 0 0.28 0.76 0 0.32 0.76 0 0.36 0.76 0 0.4 0.76 0 0.44 0.76 0 0.48 0.76 0 0.52 0.76 0 0.56 0.76 0 0.6 0.76 0 0.64 0.76 0 0.68 0.76 0 0.72 0.76 0 0.76 0.76 0 0.8 0.76 0 0.84 0.76 0 0.88 0.76 0 0.92 0.76 0 0.96 0.76 0 1 0.76 0 1.04 0.76 0 1.08 0.76 0 1.12 0.76 0 1.16 0.76 0 1.2 0.76 0 0 0.8 0 0.04 0.8 0 0.08 0.8 0 0.12 0.8 0 0.16 0.8 0 0.2 0.8 0 0.24 0.8 0 0.28 0.8 0 0.32 0.8 0 0.36 0.8 0 0.4 0.8 0 0.44 0.8 0 0.48 0.8 0 0.52 0.8 0 0.56 0.8 0 0.6 0.8 0 0.64 0.8 0 0.68 0.8 0 0.72 0.8 0 0.76 0.8 0 0.8 0.8 0 0.84 0.8 0 0.88 0.8 0 0.92 0.8 0 0.96 0.8 0 1 0.8 0 1.04 0.8 0 1.08 0.8 0 1.12 0.8 0 1.16 0.8 0 1.2 0.8 0 0 0.84 0 0.04 0.84 0 0.08 0.84 0 0.12 0.84 0 0.16 0.84 0 0.2 0.84 0 0.24 0.84 0 0.28 0.84 0 0.32 0.84 0 0.36 0.84 0 0.4 0.84 0 0.44 0.84 0 0.48 0.84 0 0.52 0.84 0 0.56 0.84 0 0.6 0.84 0 0.64 0.84 0 0.68 0.84 0 0.72 0.84 0 0.76 0.84 0 0.8 0.84 0 0.84 0.84 0 0.88 0.84 0 0.92 0.84 0 0.96 0.84 0 1 0.84 0 1.04 0.84 0 1.08 0.84 0 1.12 0.84 0 1.16 0.84 0 1.2 0.84 0 0 0.88 0 0.04 0.88 0 0.08 0.88 0 0.12 0.88 0 0.16 0.88 0 0.2 0.88 0 0.24 0.88 0 0.28 0.88 0 0.32 0.88 0 0.36 0.88 0 0.4 0.88 0 0.44 0.88 0 0.48 0.88 0 0.52 0.88 0 0.56 0.88 0 0.6 0.88 0 0.64 0.88 0 0.68 0.88 0 0.72 0.88 0 0.76 0.88 0 0.8 0.88 0 0.84 0.88 0 0.88 0.88 0 0.92 0.88 0 0.96 0.88 0 1 0.88 0 1.04 0.88 0 1.08 0.88 0 1.12 0.88 0 1.16 0.88 0 1.2 0.88 0 0 0.92 0 0.04 0.92 0 0.08 0.92 0 0.12 0.92 0 0.16 0.92 0 0.2 0.92 0 0.24 0.92 0 0.28 0.92 0 0.32 0.92 0 0.36 0.92 0 0.4 0.92 0 0.44 0.92 0 0.48 0.92 0 0.52 0.92 0 0.56 0.92 0 0.6 0.92 0 0.64 0.92 0 0.68 0.92 0 0.72 0.92 0 0.76 0.92 0 0.8 0.92 0 0.84 0.92 0 0.88 0.92 0 0.92 0.92 0 0.96 0.92 0 1 0.92 0 1.04 0.92 0 1.08 0.92 0 1.12 0.92 0 1.16 0.92 0 1.2 0.92 0 0 0.96 0 0.04 0.96 0 0.08 0.96 0 0.12 0.96 0 0.16 0.96 0 0.2 0.96 0 0.24 0.96 0 0.28 0.96 0 0.32 0.96 0 0.36 0.96 0 0.4 0.96 0 0.44 0.96 0 0.48 0.96 0 0.52 0.96 0 0.56 0.96 0 0.6 0.96 0 0.64 0.96 0 0.68 0.96 0 0.72 0.96 0 0.76 0.96 0 0.8 0.96 0 0.84 0.96 0 0.88 0.96 0 0.92 0.96 0 0.96 0.96 0 1 0.96 0 1.04 0.96 0 1.08 0.96 0 1.12 0.96 0 1.16 0.96 0 1.2 0.96 0 0 1 0 0.04 1 0 0.08 1 0 0.12 1 0 0.16 1 0 0.2 1 0 0.24 1 0 0.28 1 0 0.32 1 0 0.36 1 0 0.4 1 0 0.44 1 0 0.48 1 0 0.52 1 0 0.56 1 0 0.6 1 0 0.64 1 0 0.68 1 0 0.72 1 0 0.76 1 0 0.8 1 0 0.84 1 0 0.88 1 0 0.92 1 0 0.96 1 0 1 1 0 1.04 1 0 1.08 1 0 1.12 1 0 1.16 1 0 1.2 1 0 0 1.04 0 0.04 1.04 0 0.08 1.04 0 0.12 1.04 0 0.16 1.04 0 0.2 1.04 0 0.24 1.04 0 0.28 1.04 0 0.32 1.04 0 0.36 1.04 0 0.4 1.04 0 0.44 1.04 0 0.48 1.04 0 0.52 1.04 0 0.56 1.04 0 0.6 1.04 0 0.64 1.04 0 0.68 1.04 0 0.72 1.04 0 0.76 1.04 0 0.8 1.04 0 0.84 1.04 0 0.88 1.04 0 0.92 1.04 0 0.96 1.04 0 1 1.04 0 1.04 1.04 0 1.08 1.04 0 1.12 1.04 0 1.16 1.04 0 1.2 1.04 0 0 1.08 0 0.04 1.08 0 0.08 1.08 0 0.12 1.08 0 0.16 1.08 0 0.2 1.08 0 0.24 1.08 0 0.28 1.08 0 0.32 1.08 0 0.36 1.08 0 0.4 1.08 0 0.44 1.08 0 0.48 1.08 0 0.52 1.08 0 0.56 1.08 0 0.6 1.08 0 0.64 1.08 0 0.68 1.08 0 0.72 1.08 0 0.76 1.08 0 0.8 1.08 0 0.84 1.08 0 0.88 1.08 0 0.92 1.08 0 0.96 1.08 0 1 1.08 0 1.04 1.08 0 1.08 1.08 0 1.12 1.08 0 1.16 1.08 0 1.2 1.08 0 0 1.12 0 
[...]
			<PointData Scalars="VitesseX">
				<DataArray Name="VitesseX" type="Float32" format="ascii">
 0 0.00338471 -0.0218084 0.140525 0.175889 0.300487 0.391802 0.490665 0.597377 0.824494 0.788854 0.571434 0.212745 0.0137443 2.20221e-05 9.55398e-10 4.24777e-14 -9.34677e-16 9.34677e-16 -5.82162e-46 -9.34677e-16 9.38083e-16 -9.38083e-16 1.67507e-45 9.38083e-16 0 -9.38083e-16 9.38083e-16 -3.1752e-15 3.1752e-15 0 0 0.117202 0.195203 0.1968 0.25964 0.327055 0.41753 0.497007 0.60565 0.817887 0.770931 0.547704 0.194173 0.0114248 1.69229e-05 8.21551e-10 3.79196e-14 -9.34677e-16 9.34677e-16 -7.80976e-31 -9.34677e-16 9.38083e-16 -9.38083e-16 2.70269e-31 9.38083e-16 -2.77373e-63 -9.38083e-16 9.38083e-16 -3.17053e-15 3.17053e-15 0 0 0.129633 0.198114 0.245619 0.356881 0.348655 0.465047 0.505493 0.645706 0.812508 0.736165 0.489367 0.145903 0.00649111 7.68769e-06 5.1003e-10 2.74133e-14 -2.05294e-15 2.05294e-15 -4.71778e-16 -1.58116e-15 2.05191e-15 -4.69042e-16 -5.23618e-31 -1.11382e-15 -4.22422e-46 1.11382e-15 4.7461e-16 -3.17137e-15 1.58293e-15 0 0 0.084748 0.156273 0.309629 0.343342 0.402513 0.49636 0.517828 0.717514 0.790172 0.675184 0.391058 0.0839804 0.00242668 2.05912e-06 2.15194e-10 1.37681e-14 -2.73605e-18 2.73608e-18 1.11109e-15 -1.11382e-15 1.58287e-15 -1.58287e-15 -3.65081e-30 5.5686e-18 -9.42343e-35 -5.5686e-18 5.56856e-18 -1.58843e-15 1.58843e-15 0 0 0.0748765 0.170603 0.268386 0.334516 0.449855 0.473629 0.565893 0.759522 0.740505 0.569917 0.253826 0.0342247 0.000565989 3.27656e-07 5.7803e-11 4.38076e-15 -7.10693e-24 1.17114e-17 1.57115e-15 -1.58287e-15 3.6564e-30 5.56859e-18 -1.58843e-15 1.58843e-15 9.19638e-31 1.82758e-30 -1.58843e-15 1.37747e-30 1.58843e-15 0 0 0.0730333 0.150572 0.244684 0.353963 0.408229 0.468212 0.665638 0.730975 0.64492 0.405786 0.117118 0.0089403 7.47064e-05 3.52537e-08 9.78349e-12 3.16109e-15 -3.1713e-15 1.59458e-15 -1.17114e-17 -1.58287e-15 1.58843e-15 2.33752e-23 -2.33752e-23 -1.58843e-15 -4.60952e-31 1.58844e-15 1.16398e-17 -1.60008e-15 -6.8054e-30 0 0 0.0657721 0.144587 0.235387 0.310485 0.389224 0.559064 0.669791 0.641704 0.480706 0.207685 0.0351545 0.00134866 4.88931e-06 3.00535e-09 1.17053e-12 2.27884e-16 -1.58843e-15 -9.20066e-31 1.58843e-15 -2.06732e-33 1.08159e-23 -1.0816e-23 1.0816e-23 -1.58843e-15 3.6332e-30 1.60008e-15 -9.38949e-15 9.38949e-15 -1.60007e-15 0 0 0.0646321 0.138018 0.21963 0.321386 0.466161 0.575648 0.584844 0.481721 0.259012 0.0675912 0.00594385 9.67567e-05 1.58248e-07 1.672e-10 1.02827e-13 -1.57739e-15 1.58843e-15 -1.58843e-15 1.58843e-15 1.30394e-20 -1.30286e-20 -4.68379e-15 3.09535e-15 1.60007e-15 3.20138e-20 -9.38952e-15 -4.51567e-24 4.51567e-24 9.38949e-15 0 0 0.0750701 0.162972 0.264855 0.374296 0.466955 0.491079 0.425082 0.256999 0.085238 0.0119671 0.000462885 2.60313e-06 4.47442e-09 5.54786e-12 3.71692e-15 1.59895e-15 2.75109e-30 1.23842e-20 -6.27224e-15 6.28388e-15 -9.39933e-15 4.71553e-15 3.08371e-15 1.60007e-15 3.20138e-20 -9.38952e-15 -2.11571e-18 2.1194e-18 9.38941e-15 0 0 0.0910759 0.183713 0.274446 0.350425 0.374535 0.330755 0.210089 0.0792171 0.0143226 0.000900206 1.17399e-05 3.37577e-08 9.36583e-11 1.63474e-13 4.81313e-15 3.70902e-24 -1.58843e-15 3.18852e-15 -6.27224e-15 -4.70542e-15 1.54043e-18 9.38768e-15 -1.60008e-15 -4.39905e-31 3.63972e-30 1.60007e-15 -9.39161e-15 5.37264e-18 7.78247e-15 0 0 0.0862198 0.164479 0.224629 0.246329 0.21665 0.138617 0.0547609 0.011026 0.000885509 1.86502e-05 9.43449e-08 4.59301e-10 1.30727e-12 -3.07478e-15 4.67865e-15 -1.58843e-15 4.56735e-31 1.60007e-15 3.04449e-24 -1.10029e-14 1.10029e-14 -1.60009e-15 1.60007e-15 -1.60007e-15 1.2067e-45 3.64009e-30 3.20018e-15 -1.25864e-14 1.09827e-14 0 0 0.0593633 0.102513 0.119593 0.106324 0.0673426 0.0257202 0.00516824 0.000443639 1.16162e-05 9.37425e-08 7.5802e-10 3.58707e-12 2.00361e-14 -6.25529e-15 3.09537e-15 1.60008e-15 -1.60017e-15 -9.3874e-18 9.46403e-18 -1.36116e-17 1.61372e-15 -1.60019e-15 1.5872e-15 -1.58711e-15 -3.63501e-30 -8.52585e-20 3.20027e-15 -3.20032e-15 -7.78966e-15 0 0 0.0211706 0.0325822 0.030932 0.0182406 0.00630735 0.00115318 9.16322e-05 2.54426e-06 3.30286e-08 4.54735e-10 3.56415e-12 2.97911e-14 -9.25621e-15 4.71552e-15 4.68386e-15 -9.38695e-15 9.38682e-15 -1.09969e-14 1.0997e-14 -1.24146e-21 -9.38587e-15 9.38576e-15 -1.10004e-14 1.10005e-14 -2.75697e-20 -4.44741e-20 -2.90683e-14 2.90682e-14 -9.38975e-15 0 0 0.00199877 0.00231798 0.00131798 0.000409185 6.44083e-05 4.57398e-06 1.49755e-07 4.30006e-09 9.14085e-11 1.277e-12 1.66066e-14 -9.23293e-15 9.15665e-24 9.38768e-15 4.43832e-20 -9.38696e-15 -4.69316e-18 4.13715e-18 9.3874e-15 1.03516e-19 -9.38589e-15 9.38578e-15 -9.38739e-15 -3.60796e-18 1.63702e-18 1.09895e-14 -3.06684e-14 3.06683e-14 -1.09916e-14 0 0 4.25632e-06 3.7757e-06 1.4149e-06 2.60511e-07 2.95505e-08 2.68348e-09 1.56615e-10 5.2279e-12 1.57392e-13 9.42554e-15 -6.25531e-15 -4.69224e-15 9.38768e-15 -1.60007e-15 -2.27307e-34 1.60007e-15 -9.39161e-15 4.14023e-18 7.78731e-15 1.60017e-15 -1.09128e-19 -1.60006e-15 -7.78975e-15 -1.20697e-18 1.65991e-18 -3.9268e-20 1.09895e-14 -1.09895e-14 -2.08617e-18 0 0 1.32602e-10 1.77539e-10 1.16996e-10 4.03861e-11 7.63649e-12 9.78823e-13 8.92836e-14 6.64567e-15 -4.54419e-15 4.67867e-15 -6.27223e-15 7.88398e-15 -3.20019e-15 -1.81288e-29 -5.71411e-59 5.42762e-30 1.60007e-15 -9.38744e-15 7.78741e-15 -7.78743e-15 9.38736e-15 -1.09899e-14 1.60008e-15 1.099e-14 6.49095e-21 -2.1979e-14 2.1979e-14 -2.1979e-14 2.19791e-14 0 0 4.5602e-15 5.95616e-15 4.52715e-15 4.85339e-15 -4.59342e-16 2.26811e-16 -1.59841e-15 1.59895e-15 -5.07627e-24 -1.58843e-15 1.60011e-15 -9.3869e-15 9.38687e-15 -1.60007e-15 -6.3539e-30 1.60007e-15 -1.60007e-15 1.60012e-15 -1.6001e-15 -7.78741e-15 -3.63809e-18 1.19491e-18 1.099e-14 -1.09895e-14 1.11674e-20 -3.9269e-20 1.09895e-14 -1.09895e-14 -2.08617e-18 0 0 2.23208e-23 -1.10939e-15 -2.73606e-18 3.88469e-24 5.56857e-18 -1.58843e-15 1.58843e-15 1.46141e-23 -1.58843e-15 1.37433e-30 1.60002e-15 -9.38685e-15 -4.69932e-18 9.39161e-15 -1.60007e-15 1.60007e-15 -1.60007e-15 1.60009e-15 -1.09917e-14 1.25918e-14 -2.19829e-14 2.19829e-14 -1.09917e-14 2.14929e-18 -9.65736e-21 1.09895e-14 -3.06688e-14 3.06688e-14 -1.09916e-14 0 0 -1.51613e-30 -1.10939e-15 -2.7361e-18 1.17114e-17 -1.59458e-15 9.17772e-31 1.58843e-15 1.2395e-20 1.16273e-17 -1.60007e-15 -9.54068e-18 -7.77785e-15 -4.1359e-18 4.13282e-18 9.3875e-15 -1.60009e-15 1.60006e-15 -9.39161e-15 4.56049e-17 -1.97265e-14 1.97265e-14 -4.55948e-17 -2.24207e-20 4.84704e-19 1.65493e-18 1.09895e-14 -3.06688e-14 1.96774e-14 -2.02443e-19 0 0 5.82382e-17 -4.629e-16 -1.11656e-15 1.59458e-15 -3.17744e-15 1.58843e-15 -1.58843e-15 -3.09535e-15 6.2955e-15 -3.20015e-15 -9.46404e-18 -7.7779e-15 9.38734e-15 -1.09874e-14 1.09876e-14 -1.60013e-15 -7.79154e-15 4.56049e-17 4.32166e-18 -1.97309e-14 1.97266e-14 -4.55828e-17 4.78121e-19 -4.67062e-21 1.66459e-18 -3.9269e-20 1.09895e-14 -2.19809e-14 1.09893e-14 0 0 5.82382e-17 -1.58116e-15 2.05191e-15 -1.58287e-15 -1.58287e-15 3.17687e-15 -3.17686e-15 -3.08373e-15 -4.70542e-15 7.77553e-15 1.36116e-17 3.20021e-15 -3.20032e-15 1.60022e-15 -1.09876e-14 1.09875e-14 -9.39157e-15 -1.96354e-14 1.96397e-14 -4.32165e-18 1.95914e-20 1.09916e-14 -2.19823e-14 2.19824e-14 -7.69001e-24 -2.1979e-14 2.1979e-14 -1.09895e-14 1.09895e-14 0 0 -1.31933e-30 -1.11382e-15 1.58287e-15 -3.16573e-15 1.58843e-15 -1.46141e-23 1.30427e-20 -9.37605e-15 -1.54043e-18 7.77555e-15 1.61369e-15 -9.38585e-15 9.38583e-15 -7.74611e-20 -9.38739e-15 -3.63385e-18 -4.56666e-19 -1.96354e-14 1.96353e-14 1.96161e-20 5.45434e-18 -5.53801e-18 4.61668e-17 -4.561e-17 1.66489e-18 4.67156e-21 1.09895e-14 -1.09895e-14 1.09895e-14 0 0 -4.35231e-46 4.69042e-16 -1.58287e-15 5.56857e-18 1.83722e-30 -2.67886e-29 -4.68379e-15 -4.69225e-15 9.38768e-15 -1.60006e-15 1.6e-15 -9.38579e-15 9.38579e-15 -1.6001e-15 -7.78973e-15 -1.21164e-18 -4.61527e-19 4.55709e-17 -4.55828e-17 1.09916e-14 -2.19779e-14 1.09862e-14 4.56004e-17 -4.5121e-17 1.61481e-18 1.09896e-14 -1.09912e-14 -1.09898e-14 2.1981e-14 0 0 0 9.38083e-16 -3.16573e-15 1.58843e-15 -1.46141e-23 1.4614e-23 -6.27222e-15 6.28387e-15 -1.60008e-15 1.60007e-15 -1.61312e-15 -7.77435e-15 9.3874e-15 -1.09899e-14 1.60008e-15 1.099e-14 -1.09917e-14 -2.24477e-20 5.22976e-19 -8.892e-20 4.51763e-17 -4.56104e-17 -1.16684e-23 4.84702e-19 4.60696e-18 -5.08439e-18 4.6103e-17 -4.59325e-17 -1.96862e-14 0 0 -1.81135e-30 -1.11382e-15 5.56858e-18 -1.58843e-15 1.58843e-15 -1.58843e-15 1.60007e-15 -1.60007e-15 -1.3197e-30 1.60007e-15 -1.61304e-15 -7.7744e-15 -3.66399e-18 1.19959e-18 1.099e-14 -1.09895e-14 -2.18097e-18 5.16383e-19 -4.68812e-21 -2.88419e-22 4.56101e-17 -4.61215e-17 5.16383e-19 -4.68236e-21 4.64587e-18 -5.2156e-18 -1.96309e-14 3.06223e-14 -3.06775e-14 0 0 -9.87979e-30 -3.16573e-15 3.17687e-15 -3.17687e-15 4.60952e-31 5.34622e-30 3.20018e-15 -3.20018e-15 -3.64849e-30 -2.34032e-45 -3.6613e-30 3.20018e-15 -2.19807e-14 2.19807e-14 -1.5838e-20 -2.1979e-14 2.1979e-14 -2.19807e-14 2.19807e-14 5.76403e-24 -2.19807e-14 2.19806e-14 -2.19776e-14 2.19777e-14 -3.92747e-20 -6.9941e-20 -6.1341e-14 6.13409e-14 1.86975e-19 0 0 -2.00019e-30 -1.11382e-15 5.56857e-18 -3.66504e-30 -1.58843e-15 1.60007e-15 -9.38946e-15 9.38946e-15 -1.60007e-15 -3.64009e-30 -8.52583e-20 3.20028e-15 -1.09896e-14 3.9269e-20 4.65246e-39 -3.9269e-20 1.09895e-14 -1.09895e-14 3.9269e-20 3.67709e-35 4.67062e-21 1.09894e-14 -2.19781e-14 2.19781e-14 1.37425e-20 -3.06833e-14 1.02016e-16 -1.02014e-16 3.06833e-14 0 0 -2.95083e-31 4.7461e-16 -3.1713e-15 1.58843e-15 1.16445e-17 -9.3895e-15 -8.96072e-37 -2.11571e-18 9.39161e-15 3.50344e-20 -1.21516e-19 -2.90682e-14 3.06683e-14 -1.09895e-14 -2.14142e-43 1.09895e-14 -3.06688e-14 3.06688e-14 -1.09895e-14 -5.89384e-21 1.09895e-14 -1.09912e-14 4.51257e-17 -1.97222e-14 -4.62374e-18 8.11499e-17 2.78689e-17 -2.78674e-17 -6.36704e-17 0 0 -2.85728e-16 -2.23438e-16 -1.58843e-15 -9.26254e-31 1.60008e-15 -9.3895e-15 8.62343e-24 -2.11203e-18 5.36528e-18 9.38627e-15 -1.66135e-19 -2.90682e-14 3.06683e-14 -1.09895e-14 -2.05429e-43 1.09895e-14 -3.06688e-14 1.96774e-14 1.9096e-18 1.09895e-14 -1.09895e-14 -1.09931e-14 2.20281e-14 -3.07139e-14 -4.52255e-18 8.11515e-17 2.78675e-17 -2.78674e-17 -6.36705e-17 0 0 -2.19842e-12 -1.81165e-15 1.58843e-15 -1.58843e-15 6.8054e-30 1.60007e-15 -9.38949e-15 9.38941e-15 -1.09898e-14 1.099e-14 -1.09901e-14 1.25902e-14 -1.09917e-14 2.24411e-18 -4.07832e-48 -2.24411e-18 1.09917e-14 -2.19831e-14 1.09936e-14 1.09895e-14 -1.09895e-14 -1.88897e-18 -1.96864e-14 3.06776e-14 9.90909e-20 -3.06832e-14 1.19405e-16 -1.19405e-16 3.06833e-14 0 0 0 0 0 0 0 0 0 0 0 0 0 0 0 0 0 0 0 0 0 0 0 0 0 0 0 0 0 0 0 0
				</DataArray>
				<DataArray Name="VitesseY" type="Float32" format="ascii">