<?xml version="1.0"?>
<VTKFile type="PolyData">
	<PolyData>
		<Piece NumberOfPoints="961" NumberOfPolys="900">
			<Points>
				<DataArray type="Float32" NumberOfComponents="3" format="ascii">
 0 0 0 0.04 0 0 0.08 0 0 0.12 0 0 0.16 0 0 0.2 0 0 0.24 0 0 0.28 0 0 0.32 0 0 0.36 0 0 0.4 0 0 0.44 0 0 0.48 0 0 0.52 0 0 0.56 0 0 0.6 0 0 0.64 0 0 0.68 0 0 0.72 0 0 0.76 0 0 0.8 0 0 0.84 0 0 0.88 0 0 0.92 0 0 0.96 0 0 1 0 0 1.04 0 0 1.08 0 0 1.12 0 0 1.16 0 0 1.2 0 0 0 0.04 0 0.04 0.04 0 0.08 0.04 0 0.12 0.04 0 0.16 0.04 0 0.2 0.04 0 0.24 0.04 0 0.28 0.04 0 0.32 0.04 0 0.36 0.04 0 0.4 0.04 0 0.44 0.04 0 0.48 0.04 0 0.52 0.04 0 0.56 0.04 0 0.6 0.04 0 0.64 0.04 0 0.68 0.04 0 0.72 0.04 0 0.76 0.04 0 0.8 0.04 0 0.84 0.04 0 0.88 0.04 0 0.92 0.04 0 0.96 0.04 0 1 0.04 0 1.04 0.04 0 1.08 0.04 0 1.12 0.04 0 1.16 0.04 0 1.2 0.04 0 0 0.08 0 0.04 0.08 0 0.08 0.08 0 0.12 0.08 0 0.16 0.08 0 0.2 0.08 0 0.24 0.08 0 0.28 0.08 0 0.32 0.08 0 0.36 0.08 0 0.4 0.08 0 0.44 0.08 0 0.48 0.08 0 0.52 0.08 0 0.56 0.08 0 0.6 0.08 0 0.64 0.08 0 0.68 0.08 0 0.72 0.08 0 0.76 0.08 0 0.8 0.08 0 0.84 0.08 0 0.88 0.08 0 0.92 0.08 0 0.96 0.08 0 1 0.08 0 1.04 0.08 0 1.08 0.08 0 1.12 0.08 0 1.16 0.08 0 1.2 0.08 0 0 0.12 0 0.04 0.12 0 0.08 0.12 0 0.12 0.12 0 0.16 0.12 0 0.2 0.12 0 0.24 0.12 0 0.28 0.12 0 0.32 0.12 0 0.36 0.12 0 0.4 0.12 0 0.44 0.12 0 0.48 0.12 0 0.52 0.12 0 0.56 0.12 0 0.6 0.12 0 0.64 0.12 0 0.68 0.12 0 0.72 0.12 0 0.76 0.12 0 0.8 0.12 0 0.84 0.12 0 0.88 0.12 0 0.92 0.12 0 0.96 0.12 0 1 0.12 0 1.04 0.12 0 1.08 0.12 0 1.12 0.12 0 1.16 0.12 0 1.2 0.12 0 0 0.16 0 0.04 0.16 0 0.08 0.16 0 0.12 0.16 0 0.16 0.16 0 0.2 0.16 0 0.24 0.16 0 0.28 0.16 0 0.32 0.16 0 0.36 0.16 0 0.4 0.16 0 0.44 0.16 0 0.48 0.16 0 0.52 0.16 0 0.56 0.16 0 0.6 0.16 0 0.64 0.16 0 0.68 0.16 0 0.72 0.16 0 0.76 0.16 0 0.8 0.16 0 0.84 0.16 0 0.88 0.16 0 0.92 0.16 0 0.96 0.16 0 1 0.16 0 1.04 0.16 0 1.08 0.16 0 1.12 0.16 0 1.16 0.16 0 1.2 0.16 0 0 0.2 0 0.04 0.2 0 0.08 0.2 0 0.12 0.2 0 0.16 0.2 0 0.2 0.2 0 0.24 0.2 0 0.28 0.2 0 0.32 0.2 0 0.36 0.2 0 0.4 0.2 0 0.44 0.2 0 0.48 0.2 0 0.52 0.2 0 0.56 0.2 0 0.6 0.2 0 0.64 0.2 0 0.68 0.2 0 0.72 0.2 0 0.76 0.2 0 0.8 0.2 0 0.84 0.2 0 0.88 0.2 0 0.92 0.2 0 0.96 0.2 0 1 0.2 0 1.04 0.2 0 1.08 0.2 0 1.12 0.2 0 1.16 0.2 0 1.2 0.2 0 0 0.24 0 0.04 0.24 0 0.08 0.24 0 0.12 0.24 0 0.16 0.24 0 0.2 0.24 0 0.24 0.24 0 0.28 0.24 0 0.32 0.24 0 0.36 0.24 0 0.4 0.24 0 0.44 0.24 0 0.48 0.24 0 0.52 0.24 0 0.56 0.24 0 0.6 0.24 0 0.64 0.24 0 0.68 0.24 0 0.72 0.24 0 0.76 0.24 0 0.8 0.24 0 0.84 0.24 0 0.88 0.24 0 0.92 0.24 0 0.96 0.24 0 1 0.24 0 1.04 0.24 0 1.08 0.24 0 1.12 0.24 0 1.16 0.24 0 1.2 0.24 0 0 0.28 0 0.04 0.28 0 0.08 0.28 0 0.12 0.28 0 0.16 0.28 0 0.2 0.28 0 0.24 0.28 0 0.28 0.28 0 0.32 0.28 0 0.36 0.28 0 0.4 0.28 0 0.44 0.28 0 0.48 0.28 0 0.52 0.28 0 0.56 0.28 0 0.6 0.28 0 0.64 0.28 0 0.68 0.28 0 0.72 0.28 0 0.76 0.28 0 0.8 0.28 0 0.84 0.28 0 0.88 0.28 0 0.92 0.28 0 0.96 0.28 0 1 0.28 0 1.04 0.28 0 1.08 0.28 0 1.12 0.28 0 1.16 0.28 0 1.2 0.28 0 0 0.32 0 0.04 0.32 0 0.08 0.32 0 0.12 0.32 0 0.16 0.32 0 0.2 0.32 0 0.24 0.32 0 0.28 0.32 0 0.32 0.32 0 0.36 0.32 0 0.4 0.32 0 0.44 0.32 0 0.48 0.32 0 0.52 0.32 0 0.56 0.32 0 0.6 0.32 0 0.64 0.32 0 0.68 0.32 0 0.72 0.32 0 0.76 0.32 0 0.8 0.32 0 0.84 0.32 0 0.88 0.32 0 0.92 0.32 0 0.96 0.32 0 1 0.32 0 1.04 0.32 0 1.08 0.32 0 1.12 0.32 0 1.16 0.32 0 1.2 0.32 0 0 0.36 0 0.04 0.36 0 0.08 0.36 0 0.12 0.36 0 0.16 0.36 0 0.2 0.36 0 0.24 0.36 0 0.28 0.36 0 0.32 0.36 0 0.36 0.36 0 0.4 0.36 0 0.44 0.36 0 0.48 0.36 0 0.52 0.36 0 0.56 0.36 0 0.6 0.36 0 0.64 0.36 0 0.68 0.36 0 0.72 0.36 0 0.76 0.36 0 0.8 0.36 0 0.84 0.36 0 0.88 0.36 0 0.92 0.36 0 0.96 0.36 0 1 0.36 0 1.04 0.36 0 1.08 0.36 0 1.12 0.36 0 1.16 0.36 0 1.2 0.36 0 0 0.4 0 0.04 0.4 0 0.08 0.4 0 0.12 0.4 0 0.16 0.4 0 0.2 0.4 0 0.24 0.4 0 0.28 0.4 0 0.32 0.4 0 0.36 0.4 0 0.4 0.4 0 0.44 0.4 0 0.48 0.4 0 0.52 0.4 0 0.56 0.4 0 0.6 0.4 0 0.64 0.4 0 0.68 0.4 0 0.72 0.4 0 0.76 0.4 0 0.8 0.4 0 0.84 0.4 0 0.88 0.4 0 0.92 0.4 0 0.96 0.4 0 1 0.4 0 1.04 0.4 0 1.08 0.4 0 1.12 0.4 0 1.16 0.4 0 1.2 0.4 0 0 0.44 0 0.04 0.44 0 0.08 0.44 0 0.12 0.44 0 0.16 0.44 0 0.2 0.44 0 0.24 0.44 0 0.28 0.44 0 0.32 0.44 0 0.36 0.44 0 0.4 0.44 0 0.44 0.44 0 0.48 0.44 0 0.52 0.44 0 0.56 0.44 0 0.6 0.44 0 0.64 0.44 0 0.68 0.44 0 0.72 0.44 0 0.76 0.44 0 0.8 0.44 0 0.84 0.44 0 0.88 0.44 0 0.92 0.44 0 0.96 0.44 0 1 0.44 0 1.04 0.44 0 1.08 0.44 0 1.12 0.44 0 1.16 0.44 0 1.2 0.44 0 0 0.48 0 0.04 0.48 0 0.08 0.48 0 0.12 0.48 0 0.16 0.48 0 0.2 0.48 0 0.24 0.48 0 0.28 0.48 0 0.32 0.48 0 0.36 0.48 0 0.4 0.48 0 0.44 0.48 0 0.48 0.48 0 0.52 0.48 0 0.56 0.48 0 0.6 0.48 0 0.64 0.48 0 0.68 0.48 0 0.72 0.48 0 0.76 0.48 0 0.8 0.48 0 0.84 0.48 0 0.88 0.48 0 0.92 0.48 0 0.96 0.48 0 1 0.48 0 1.04 0.48 0 1.08 0.48 0 1.12 0.48 0 1.16 0.48 0 1.2 0.48 0 0 0.52 0 0.04 0.52 0 0.08 0.52 0 0.12 0.52 0 0.16 0.52 0 0.2 0.52 0 0.24 0.52 0 0.28 0.52 0 0.32 0.52 0 0.36 0.52 0 0.4 0.52 0 0.44 0.52 0 0.48 0.52 0 0.52 0.52 0 0.56 0.52 0 0.6 0.52 0 0.64 0.52 0 0.68 0.52 0 0.72 0.52 0 0.76 0.52 0 0.8 0.52 0 0.84 0.52 0 0.88 0.52 0 0.92 0.52 0 0.96 0.52 0 1 0.52 0 1.04 0.52 0 1.08 0.52 0 1.12 0.52 0 1.16 0.52 0 1.2 0.52 0 0 0.56 0 0.04 0.56 0 0.08 0.56 0 0.12 0.56 0 0.16 0.56 0 0.2 0.56 0 0.24 0.56 0 0.28 0.56 0 0.32 0.56 0 0.36 0.56 0 0.4 0.56 0 0.44 0.56 0 0.48 0.56 0 0.52 0.56 0 0.56 0.56 0 0.6 0.56 0 0.64 0.56 0 0.68 0.56 0 0.72 0.56 0 0.76 0.56 0 0.8 0.56 0 0.84 0.56 0 0.88 0.56 0 0.92 0.56 0 0.96 0.56 0 1 0.56 0 1.04 0.56 0 1.08 0.56 0 1.12 0.56 0 1.16 0.56 0 1.2 0.56 0 0 0.6 0 0.04 0.6 0 0.08 0.6 0 0.12 0.6 0 0.16 0.6 0 0.2 0.6 0 0.24 0.6 0 0.28 0.6 0 0.32 0.6 0 0.36 0.6 0 0.4 0.6 0 0.44 0.6 0 0.48 0.6 0 0.52 0.6 0 0.56 0.6 0 0.6 0.6 0 0.64 0.6 0 0.68 0.6 0 0.72 0.6 0 0.76 0.6 0 0.8 0.6 0 0.84 0.6 0 0.88 0.6 0 0.92 0.6 0 0.96 0.6 0 1 0.6 0 1.04 0.6 0 1.08 0.6 0 1.12 0.6 0 1.16 0.6 0 1.2 0.6 0 0 0.64 0 0.04 0.64 0 0.08 0.64 0 0.12 0.64 0 0.16 0.64 0 0.2 0.64 0 0.24 0.64 0 0.28 0.64 0 0.32 0.64 0 0.36 0.64 0 0.4 0.64 0 0.44 0.64 0 0.48 0.64 0 0.52 0.64 0 0.56 0.64 0 0.6 0.64 0 0.64 0.64 0 0.68 0.64 0 0.72 0.64 0 0.76 0.64 0 0.8 0.64 0 0.84 0.64 0 0.88 0.64 0 0.92 0.64 0 0.96 0.64 0 1 0.64 0 1.04 0.64 0 1.08 0.64 0 1.12 0.64 0 1.16 0.64 0 1.2 0.64 0 0 0.68 0 0.04 0.68 0 0.08 0.68 0 0.12 0.68 0 0.16 0.68 0 0.2 0.68 0 0.24 0.68 0 0.28 0.68 0 0.32 0.68 0 0.36 0.68 0 0.4 0.68 0 0.44 0.68 0 0.48 0.68 0 0.52 0.68 0 0.56 0.68 0 0.6 0.68 0 0.64 0.68 0 0.68 0.68 0 0.72 0.68 0 0.76 0.68 0 0.8 0.68 0 0.84 0.68 0 0.88 0.68 0 0.92 0.68 0 0.96 0.68 0 1 0.68 0 1.04 0.68 0 1.08 0.68 0 1.12 0.68 0 1.16 0.68 0 1.2 0.68 0 0 0.72 0 0.04 0.72 0 0.08 0.72 0 0.12 0.72 0 0.16 0.72 0 0.2 0.72 0 0.24 0.72 0 0.28 0.72 0 0.32 0.72 0 0.36 0.72 0 0.4 0.72 0 0.44 0.72 0 0.48 0.72 0 0.52 0.72 0 0.56 0.72 0 0.6 0.72 0 0.64 0.72 0 0.68 0.72 0 0.72 0.72 0 0.76 0.72 0 0.8 0.72 0 0.84 0.72 0 0.88 0.72 0 0.92 0.72 0 0.96 0.72 0 1 0.72 0 1.04 0.72 0 1.08 0.72 0 1.12 0.72 0 1.16 0.72 0 1.2 0.72 0 0 0.76 0 0.04 0.76 0 0.08 0.76 0 0.12 0.76 0 0.16 0.76 0 0.2 0.76 0 0.24 0.76 0 0.28 0.76 0 0.32 0.76 0 0.36 0.76 0 0.4 0.76 0 0.44 0.76 0 0.48 0.76 0 0.52 0.76 0 0.56 0.76 0 0.6 0.76 0 0.64 0.76 0 0.68 0.76 0 0.72 0.76 0 0.76 0.76 0 0.8 0.76 0 0.84 0.76 0 0.88 0.76 0 0.92 0.76 0 0.96 0.76 0 1 0.76 0 1.04 0.76 0 1.08 0.76 0 1.12 0.76 0 1.16 0.76 0 1.2 0.76 0 0 0.8 0 0.04 0.8 0 0.08 0.8 0 0.12 0.8 0 0.16 0.8 0 0.2 0.8 0 0.24 0.8 0 0.28 0.8 0 0.32 0.8 0 0.36 0.8 0 0.4 0.8 0 0.44 0.8 0 0.48 0.8 0 0.52 0.8 0 0.56 0.8 0 0.6 0.8 0 0.64 0.8 0 0.68 0.8 0 0.72 0.8 0 0.76 0.8 0 0.8 0.8 0 0.84 0.8 0 0.88 0.8 0 0.92 0.8 0 0.96 0.8 0 1 0.8 0 1.04 0.8 0 1.08 0.8 0 1.12 0.8 0 1.16 0.8 0 1.2 0.8 0 0 0.84 0 0.04 0.84 0 0.08 0.84 0 0.12 0.84 0 0.16 0.84 0 0.2 0.84 0 0.24 0.84 0 0.28 0.84 0 0.32 0.84 0 0.36 0.84 0 0.4 0.84 0 0.44 0.84 0 0.48 0.84 0 0.52 0.84 0 0.56 0.84 0 0.6 0.84 0 0.64 0.84 0 0.68 0.84 0 0.72 0.84 0 0.76 0.84 0 0.8 0.84 0 0.84 0.84 0 0.88 0.84 0 0.92 0.84 0 0.96 0.84 0 1 0.84 0 1.04 0.84 0 1.08 0.84 0 1.12 0.84 0 1.16 0.84 0 1.2 0.84 0 0 0.88 0 0.04 0.88 0 0.08 0.88 0 0.12 0.88 0 0.16 0.88 0 0.2 0.88 0 0.24 0.88 0 0.28 0.88 0 0.32 0.88 0 0.36 0.88 0 0.4 0.88 0 0.44 0.88 0 0.48 0.88 0 0.52 0.88 0 0.56 0.88 0 0.6 0.88 0 0.64 0.88 0 0.68 0.88 0 0.72 0.88 0 0.76 0.88 0 0.8 0.88 0 0.84 0.88 0 0.88 0.88 0 0.92 0.88 0 0.96 0.88 0 1 0.88 0 1.04 0.88 0 1.08 0.88 0 1.12 0.88 0 1.16 0.88 0 1.2 0.88 0 0 0.92 0 0.04 0.92 0 0.08 0.92 0 0.12 0.92 0 0.16 0.92 0 0.2 0.92 0 0.24 0.92 0 0.28 0.92 0 0.32 0.92 0 0.36 0.92 0 0.4 0.92 0 0.44 0.92 0 0.48 0.92 0 0.52 0.92 0 0.56 0.92 0 0.6 0.92 0 0.64 0.92 0 0.68 0.92 0 0.72 0.92 0 0.76 0.92 0 0.8 0.92 0 0.84 0.92 0 0.88 0.92 0 0.92 0.92 0 0.96 0.92 0 1 0.92 0 1.04 0.92 0 1.08 0.92 0 1.12 0.92 0 1.16 0.92 0 1.2 0.92 0 0 0.96 0 0.04 0.96 0 0.08 0.96 0 0.12 0.96 0 0.16 0.96 0 0.2 0.96 0 0.24 0.96 0 0.28 0.96 0 0.32 0.96 0 0.36 0.96 0 0.4 0.96 0 0.44 0.96 0 0.48 0.96 0 0.52 0.96 0 0.56 0.96 0 0.6 0.96 0 0.64 0.96 0 0.68 0.96 0 0.72 0.96 0 0.76 0.96 0 0.8 0.96 0 0.84 0.96 0 0.88 0.96 0 0.92 0.96 0 0.96 0.96 0 1 0.96 0 1.04 0.96 0 1.08 0.96 0 1.12 0.96 0 1.16 0.96 0 1.2 0.96 0 0 1 0 0.04 1 0 0.08 1 0 0.12 1 0 0.16 1 0 0.2 1 0 0.24 1 0 0.28 1 0 0.32 1 0 0.36 1 0 0.4 1 0 0.44 1 0 0.48 1 0 0.52 1 0 0.56 1 0 0.6 1 0 0.64 1 0 0.68 1 0 0.72 1 0 0.76 1 0 0.8 1 0 0.84 1 0 0.88 1 0 0.92 1 0 0.96 1 0 1 1 0 1.04 1 0 1.08 1 0 1.12 1 0 1.16 1 0 1.2 1 0 0 1.04 0 0.04 1.04 0 0.08 1.04 0 0.12 1.04 0 0.16 1.04 0 0.2 1.04 0 0.24 1.04 0 0.28 1.04 0 0.32 1.04 0 0.36 1.04 0 0.4 1.04 0 0.44 1.04 0 0.48 1.04 0 0.52 1.04 0 0.56 1.04 0 0.6 1.04 0 0.64 1.04 0 0.68 1.04 0 0.72 1.04 0 0.76 1.04 0 0.8 1.04 0 0.84 1.04 0 0.88 1.04 0 0.92 1.04 0 0.96 1.04 0 1 1.04 0 1.04 1.04 0 1.08 1.04 0 1.12 1.04 0 1.16 1.04 0 1.2 1.04 0 0 1.08 0 0.04 1.08 0 0.08 1.08 0 0.12 1.08 0 0.16 1.08 0 0.2 1.08 0 0.24 1.08 0 0.28 1.08 0 0.32 1.08 0 0.36 1.08 0 0.4 1.08 0 0.44 1.08 0 0.48 1.08 0 0.52 1.08 0 0.56 1.08 0 0.6 1.08 0 0.64 1.08 0 0.68 1.08 0 0.72 1.08 0 0.76 1.08 0 0.8 1.08 0 0.84 1.08 0 0.88 1.08 0 0.92 1.08 0 0.96 1.08 0 1 1.08 0 1.04 1.08 0 1.08 1.08 0 1.12 1.08 0 1.16 1.08 0 1.2 1.08 0 0 1.12 0 
[...]
			<PointData Scalars="VitesseX">
				<DataArray Name="VitesseX" type="Float32" format="ascii">
 0 -0.0315003 -0.106124 -0.110846 -0.101768 -0.0474065 0.0243365 0.107227 0.184256 0.254257 0.31681 0.372566 0.422515 0.467307 0.507795 0.544679 0.578904 0.611497 0.64341 0.675315 0.707481 0.74014 0.771216 0.753744 0.636675 0.380848 0.000859849 -0.337416 -0.464186 -0.357204 0 0 0.112403 0.097221 0.0653722 0.0463661 0.0735076 0.121928 0.18235 0.241764 0.299982 0.354666 0.403996 0.448263 0.488239 0.524556 0.557931 0.589279 0.619536 0.649477 0.679581 0.710174 0.741588 0.771961 0.756249 0.641938 0.390803 0.014656 -0.325401 -0.457117 -0.355711 0 0 0.111523 0.181669 0.219816 0.226013 0.234339 0.24656 0.276531 0.310583 0.347387 0.386313 0.425165 0.462695 0.497394 0.530126 0.561497 0.591963 0.621924 0.651785 0.681869 0.712468 0.743926 0.77505 0.766442 0.661146 0.423617 0.0577931 -0.288979 -0.434996 -0.349967 0 0 0.0946679 0.158911 0.218052 0.239558 0.260616 0.276564 0.301149 0.331976 0.364129 0.397825 0.430163 0.463195 0.495883 0.528104 0.559564 0.59048 0.621094 0.651714 0.682581 0.71396 0.74624 0.778777 0.780916 0.68874 0.471236 0.120539 -0.234841 -0.402209 -0.341322 0 0 0.056803 0.115508 0.187894 0.218514 0.250687 0.274712 0.297309 0.327889 0.35991 0.39449 0.427964 0.461812 0.494004 0.525637 0.556966 0.588183 0.619441 0.650839 0.682538 0.714859 0.748173 0.78219 0.796477 0.720575 0.527683 0.19693 -0.165626 -0.359579 -0.327668 0 0 0.0189316 0.0625885 0.133383 0.182709 0.226539 0.259738 0.284727 0.317138 0.350488 0.386339 0.421077 0.456487 0.489976 0.522327 0.554099 0.585725 0.617497 0.649574 0.682088 0.715349 0.749679 0.784918 0.80992 0.753699 0.58836 0.282406 -0.0818557 -0.305985 -0.306336 0 0 0.00271542 0.0331544 0.0837105 0.138242 0.185508 0.230008 0.262946 0.298253 0.3344 0.372083 0.40922 0.44691 0.482781 0.516915 0.549953 0.582609 0.615276 0.6482 0.681597 0.715821 0.751073 0.787241 0.819531 0.786635 0.649953 0.372852 0.0153671 -0.239933 -0.274512 0 0 0.0018417 0.0287024 0.0680787 0.114546 0.153411 0.198373 0.234302 0.272039 0.311297 0.351893 0.3926 0.433435 0.472144 0.508883 0.54407 0.578472 0.61266 0.646886 0.681453 0.716634 0.75267 0.789512 0.825501 0.817623 0.709152 0.466007 0.122971 -0.15957 -0.229825 0 0 0.00554908 0.0308692 0.0682757 0.110833 0.147933 0.188764 0.222172 0.257769 0.295276 0.334238 0.37468 0.416595 0.458524 0.498691 0.536743 0.573617 0.609806 0.6458 0.681844 0.718076 0.754776 0.792061 0.829378 0.844391 0.763635 0.558734 0.237225 -0.0638697 -0.170526 0 0 0.0109636 0.0362457 0.0726442 0.113001 0.150531 0.188831 0.22192 0.2559 0.291126 0.327981 0.36642 0.406584 0.448064 0.489805 0.530306 0.569541 0.607779 0.645472 0.682864 0.720161 0.757529 0.795168 0.833059 0.863631 0.813045 0.648142 0.352688 0.0448332 -0.0962661 0 0 0.0169964 0.0438733 0.080171 0.119325 0.156847 0.193161 0.226164 0.258641 0.292626 0.32831 0.365496 0.404344 0.444877 0.486255 0.527426 0.567803 0.607288 0.646113 0.684673 0.722914 0.760909 0.798932 0.837228 0.874852 0.857351 0.7308 0.467216 0.157866 -0.012249 0 0 0.0229382 0.0528112 0.0895255 0.128743 0.166382 0.202403 0.235518 0.267001 0.29931 0.333337 0.368894 0.406309 0.445719 0.486523 0.527597 0.568271 0.608412 0.648083 0.687393 0.726369 0.76491 0.803325 0.841994 0.880981 0.894953 0.803206 0.57833 0.271144 0.0717399 0 0 0.028025 0.0616201 0.0997769 0.139462 0.178391 0.215209 0.249338 0.280784 0.311853 0.344251 0.377913 0.41327 0.450784 0.490203 0.530616 0.571225 0.611631 0.651603 0.691208 0.730552 0.769482 0.808253 0.847217 0.886626 0.920295 0.865432 0.683677 0.385544 0.150741 0 0 0.0323868 0.0692296 0.108782 0.149217 0.189599 0.228456 0.264889 0.297987 0.32885 0.359892 0.391847 0.425213 0.460586 0.498103 0.537161 0.576906 0.616845 0.656588 0.696105 0.735442 0.774576 0.813564 0.852772 0.892699 0.933083 0.918958 0.779887 0.49974 0.230387 0 0 0.0360968 0.0754773 0.116276 0.157327 0.198323 0.238386 0.276532 0.312009 0.344788 0.376217 0.407748 0.439943 0.473528 0.509028 0.546283 0.584643 0.623551 0.662665 0.70176 0.740821 0.779978 0.819033 0.858517 0.898751 0.939648 0.961844 0.862451 0.613473 0.316208 0 0 0.0389853 0.0802275 0.121977 0.163497 0.2048 0.24536 0.284466 0.321277 0.355546 0.38813 0.420163 0.452415 0.485428 0.519859 0.555857 0.592972 0.630828 0.669147 0.707619 0.746302 0.785179 0.824335 0.864123 0.904489 0.947442 0.985491 0.93248 0.730306 0.411156 0 0 0.0408953 0.0833127 0.125682 0.167502 0.208872 0.249588 0.289037 0.326643 0.362038 0.3957 0.428604 0.461214 0.494128 0.528098 0.563404 0.599824 0.637041 0.674752 0.712883 0.751285 0.789987 0.829445 0.869265 0.910404 0.955483 0.99274 0.994679 0.845544 0.513928 0 0 0.0418625 0.0848284 0.127482 0.169431 0.210748 0.251355 0.290862 0.328792 0.36492 0.399575 0.433279 0.466498 0.499821 0.533825 0.568888 0.604976 0.64181 0.679286 0.717232 0.755491 0.794496 0.834042 0.874138 0.917387 0.960446 0.999141 1.04703 0.943915 0.616122 0 0 0.0421416 0.0852205 0.127923 0.169861 0.211052 0.251479 0.290894 0.328869 0.365345 0.400567 0.434888 0.468793 0.502735 0.53715 0.57236 0.608415 0.645238 0.682679 0.72055 0.759164 0.798423 0.837982 0.879892 0.923486 0.963589 1.01807 1.08381 1.00608 0.702497 0 0 0.0421269 0.0851354 0.127739 0.169529 0.210437 0.250468 0.289518 0.32745 0.364196 0.399842 0.434648 0.469037 0.503524 0.538443 0.574032 0.610373 0.647396 0.684949 0.723254 0.762236 0.801489 0.842496 0.886171 0.926387 0.971295 1.05778 1.09191 1.01879 0.748705 0 0 0.0419522 0.0845854 0.126843 0.168153 0.208492 0.247851 0.286338 0.324048 0.360974 0.397148 0.432719 0.46792 0.503043 0.538428 0.574445 0.611212 0.648542 0.686625 0.725369 0.764447 0.804978 0.848316 0.889018 0.930718 1.00192 1.07607 1.07115 0.977377 0.715608 0 0 0.0414596 0.0834987 0.124925 0.165588 0.20512 0.243817 0.28174 0.319137 0.356128 0.392761 0.42908 0.465176 0.501229 0.537457 0.574068 0.611234 0.649205 0.687781 0.726778 0.767146 0.810096 0.851049 0.891837 0.95407 1.03692 1.05527 1.00962 0.855873 0.544867 0 0 0.0409183 0.0815977 0.122608 0.161851 0.200857 0.238801 0.276391 0.313681 0.350809 0.387811 0.424697 0.461526 0.498409 0.535509 0.572999 0.610997 0.649503 0.68852 0.728942 0.771553 0.812482 0.853286 0.911535 0.994541 1.02512 0.997823 0.884617 0.633534 0.26986 0 0 0.0397828 0.081717 0.11986 0.160392 0.197616 0.235164 0.27218 0.309143 0.346241 0.383558 0.420934 0.458304 0.495791 0.533608 0.571854 0.61055 0.649789 0.690429 0.732659 0.773409 0.814796 0.872565 0.953061 0.989166 0.972828 0.882537 0.670012 0.328529 0.0794636 0 0 0.0409987 0.0781508 0.123814 0.162097 0.204276 0.242357 0.279384 0.314576 0.348348 0.38253 0.418794 0.456003 0.493995 0.532476 0.571313 0.610829 0.651705 0.693395 0.733982 0.776729 0.836775 0.913255 0.949862 0.939589 0.86319 0.677877 0.363999 0.102437 0.0122828 0 0 0.0324055 0.0790217 0.116814 0.172412 0.217731 0.262456 0.300984 0.334727 0.36565 0.396629 0.429084 0.461648 0.495623 0.533077 0.572345 0.613028 0.653987 0.694585 0.740059 0.804606 0.874193 0.908008 0.89959 0.830483 0.662789 0.37459 0.116807 0.0169583 0.000816179 0 0 0.0212661 0.0442967 0.112786 0.168976 0.236967 0.290077 0.332623 0.3676 0.398252 0.426809 0.454711 0.48243 0.512192 0.545623 0.579566 0.616033 0.65703 0.70694 0.775007 0.833914 0.863393 0.853173 0.785959 0.6279 0.361246 0.119528 0.0196321 0.00116207 1.63415e-05 0 0 -0.0322963 -0.00494615 0.0604074 0.166863 0.24237 0.304078 0.353987 0.394253 0.428151 0.458865 0.487776 0.515807 0.544243 0.573213 0.60242 0.636408 0.682082 0.743508 0.794612 0.816414 0.801336 0.730768 0.575235 0.326729 0.110536 0.0193235 0.00129736 2.29822e-05 9.61704e-08 0 0 -0.129257 -0.0949536 0.080519 0.166038 0.234768 0.289962 0.336082 0.377103 0.413691 0.448464 0.48461 0.522314 0.560844 0.600579 0.642957 0.689029 0.73725 0.774072 0.782616 0.757986 0.674587 0.51049 0.276234 0.0922405 0.0162052 0.0011479 2.29391e-05 1.16748e-07 6.36768e-10 0 0 -0.173935 -0.000388821 0.087939 0.16201 0.222418 0.278541 0.333643 0.388533 0.441763 0.487424 0.52714 0.569952 0.619694 0.674713 0.731143 0.784678 0.826552 0.83823 0.802468 0.682569 0.471487 0.227182 0.0700197 0.011493 0.000798714 1.6254e-05 9.57744e-08 6.35727e-10 3.10578e-12 0 0 0 0 0 0 0 0 0 0 0 0 0 0 0 0 0 0 0 0 0 0 0 0 0 0 0 0 0 0 0 0
				</DataArray>
				<DataArray Name="VitesseY" type="Float32" format="ascii">
 0 0 0 0 0 0 0 0 0 0 0 0 0 0 0 0 0 0 0 0 0 0 0 0 0 0 0 0 0 0 0 -0.0314425 0.112414 0.111516 0.0946555 0.0567889 0.0189244 0.00271133 0.00183656 0.00554536 0.0109598 0.0169928 0.0229356 0.0280231 0.032386 0.0360971 0.0389866 0.0408968 0.0418643 0.0421425 0.0421294 0.0419455 0.0414826 0.0409782 0.0424948 0.0472496 0.0552397 0.0623916 0.0603274 0.0515725 0.0421856 0 -0.106061 0.0972531 0.181668 0.158902 0.115493 0.0625752 0.0331474 0.0286982 0.030865 0.0362422 0.0438692 0.0528065 0.0616165 0.0692277 0.075477 0.0802284 0.0833147 0.0848301 0.085223 0.085134 0.0845939 0.0834478 0.0821296 0.0844121 0.0928348 0.107413 0.121357 0.118356 0.103344 0.0848052 0 -0.110804 0.0654059 0.219809 0.218041 0.18788 0.133367 0.0837007 0.0680742 0.0682723 0.0726402 0.0801674 0.0895216 0.0997718 0.108778 0.116274 0.121977 0.125684 0.127484 0.127924 0.127743 0.126832 0.124969 0.122633 0.124766 0.135347 0.154808 0.174755 0.173369 0.153939 0.129985 0 -0.101742 0.0463893 0.226018 0.239554 0.218509 0.182701 0.138234 0.11454 0.110828 0.112997 0.11932 0.128738 0.139456 0.149213 0.157324 0.163496 0.167503 0.169433 0.169864 0.169529 0.168161 0.16556 0.162191 0.163319 0.174798 0.197435 0.222818 0.225021 0.203732 0.177898 0 -0.0473964 0.0735217 0.23434 0.260612 0.250681 0.226534 0.185504 0.153408 0.147929 0.150525 0.156841 0.166375 0.178384 0.189595 0.198321 0.2048 0.208873 0.210751 0.211054 0.210441 0.208489 0.205146 0.200877 0.200212 0.211599 0.236152 0.265794 0.273362 0.251741 0.228239 0 0.0243453 0.121934 0.246562 0.276565 0.274713 0.259738 0.230007 0.198371 0.188758 0.188826 0.193154 0.202394 0.215201 0.228451 0.238384 0.24536 0.24959 0.251358 0.251482 0.250471 0.247855 0.243821 0.238877 0.236098 0.246538 0.271708 0.304151 0.318217 0.296578 0.280524 0 0.107231 0.182352 0.276529 0.301148 0.297309 0.284728 0.262948 0.234303 0.222168 0.221914 0.226156 0.235509 0.249328 0.264882 0.276529 0.284466 0.289039 0.290866 0.290898 0.289521 0.286341 0.281748 0.276418 0.272582 0.281136 0.304809 0.338428 0.359318 0.338656 0.33435 0 0.184254 0.241765 0.310584 0.331977 0.32789 0.31714 0.298256 0.272041 0.257766 0.255895 0.258634 0.266993 0.280775 0.297979 0.312005 0.321277 0.326645 0.328795 0.328872 0.327453 0.324051 0.319142 0.313696 0.309285 0.315182 0.336058 0.369538 0.396055 0.378037 0.388763 0 0.25425 0.299979 0.347389 0.364128 0.35991 0.350489 0.334402 0.3113 0.295276 0.291123 0.292622 0.299304 0.311846 0.328843 0.344784 0.355545 0.362039 0.364921 0.365347 0.364199 0.360976 0.35613 0.350816 0.346275 0.348524 0.366037 0.398809 0.428738 0.413986 0.44183 0 0.316798 0.354662 0.386317 0.397824 0.394489 0.386339 0.372084 0.351896 0.33424 0.327981 0.328309 0.333334 0.344247 0.359886 0.376213 0.388128 0.3957 0.399575 0.400568 0.399843 0.397149 0.392762 0.387812 0.383562 0.382547 0.396694 0.426954 0.459025 0.448546 0.487438 0 0.37255 0.40399 0.425168 0.430162 0.427961 0.421076 0.40922 0.392603 0.374683 0.366422 0.365497 0.368893 0.377911 0.391844 0.407744 0.42016 0.428602 0.433277 0.434888 0.434647 0.432718 0.42908 0.424697 0.420934 0.418795 0.429094 0.454743 0.487814 0.484624 0.527142 0 0.422495 0.448256 0.462696 0.463194 0.461808 0.456483 0.446909 0.433438 0.4166 0.406588 0.404347 0.406312 0.413271 0.425212 0.439941 0.452413 0.461211 0.466496 0.468791 0.469035 0.467918 0.465175 0.461525 0.458304 0.456002 0.46165 0.482435 0.515814 0.522314 0.569951 0 0.467284 0.488231 0.497393 0.495881 0.494 0.489972 0.482779 0.472145 0.45853 0.448071 0.444883 0.445724 0.450787 0.460587 0.473527 0.485426 0.494125 0.499818 0.502732 0.503522 0.50304 0.501227 0.498408 0.49579 0.493994 0.495622 0.512191 0.544242 0.560843 0.619692 0 0.507772 0.524548 0.530122 0.528101 0.525633 0.522322 0.516912 0.508884 0.498696 0.489812 0.486262 0.48653 0.490207 0.498105 0.509027 0.519858 0.528095 0.533822 0.537146 0.53844 0.538425 0.537455 0.535507 0.533607 0.532476 0.533076 0.545622 0.573213 0.600578 0.674712 0 0.544656 0.557923 0.561492 0.55956 0.556962 0.554094 0.549949 0.544069 0.536747 0.530313 0.527433 0.527604 0.530621 0.537164 0.546283 0.555856 0.563401 0.568885 0.572357 0.574029 0.574442 0.574065 0.572998 0.571852 0.571312 0.572344 0.579565 0.60242 0.642956 0.731142 0 0.578883 0.589271 0.591957 0.590474 0.588178 0.58572 0.582606 0.578471 0.57362 0.569546 0.56781 0.568277 0.57123 0.576909 0.584643 0.59297 0.599821 0.604973 0.608411 0.61037 0.611209 0.611231 0.610995 0.610549 0.610827 0.613027 0.616033 0.636408 0.689029 0.784677 0 0.61148 0.619528 0.621917 0.621088 0.619436 0.617493 0.615272 0.612659 0.609807 0.607783 0.607293 0.608417 0.611636 0.616848 0.623551 0.630826 0.637039 0.641807 0.645234 0.647392 0.648539 0.649202 0.649501 0.649787 0.651703 0.653987 0.657029 0.682081 0.73725 0.826554 0 0.643393 0.649469 0.651778 0.651708 0.650834 0.64957 0.648197 0.646885 0.645801 0.645474 0.646116 0.648086 0.651606 0.65659 0.662665 0.669146 0.674749 0.679283 0.682675 0.684945 0.686622 0.687778 0.688517 0.690427 0.693394 0.694585 0.70694 0.743508 0.774073 0.838233 0 0.6753 0.67957 0.68186 0.682573 0.682532 0.682084 0.681594 0.681452 0.681845 0.682866 0.684675 0.687396 0.69121 0.696106 0.70176 0.707617 0.71288 0.717229 0.720547 0.723251 0.725367 0.726776 0.72894 0.732658 0.733982 0.740058 0.775007 0.794613 0.782618 0.802472 0 0.707457 0.710165 0.712457 0.713952 0.714859 0.715346 0.715822 0.716634 0.718077 0.720161 0.722915 0.72637 0.730553 0.735443 0.74082 0.746301 0.751282 0.755488 0.759161 0.762234 0.764444 0.767144 0.771552 0.773409 0.776729 0.804606 0.833916 0.816416 0.75799 0.682576 0 0.740186 0.74161 0.743986 0.746302 0.748211 0.749724 0.751089 0.752681 0.754781 0.75753 0.760909 0.764911 0.769483 0.774576 0.779978 0.785177 0.789984 0.794493 0.79842 0.801487 0.804976 0.810094 0.812482 0.814796 0.836775 0.874194 0.863395 0.801339 0.674592 0.471495 0 0.773074 0.773897 0.776376 0.779655 0.782849 0.785199 0.787436 0.789589 0.79209 0.795175 0.798932 0.803324 0.808253 0.813564 0.819033 0.824333 0.829443 0.83404 0.83798 0.842494 0.848315 0.851048 0.853286 0.872566 0.913257 0.90801 0.853176 0.730772 0.510496 0.227187 0 0.785424 0.78511 0.790571 0.798036 0.806201 0.81477 0.821133 0.82605 0.829528 0.833083 0.837229 0.841993 0.847217 0.852772 0.858517 0.864121 0.869262 0.874135 0.87989 0.886169 0.889017 0.891837 0.911536 0.953063 0.949865 0.899593 0.785962 0.57524 0.276238 0.0700215 0 0.710231 0.712542 0.717947 0.729255 0.746577 0.767117 0.793222 0.820059 0.84513 0.863798 0.874871 0.880982 0.886626 0.892699 0.89875 0.904488 0.910401 0.917385 0.923484 0.926386 0.930718 0.954071 0.994543 0.989168 0.939591 0.830486 0.627903 0.326732 0.0922421 0.0114934 0 0.540694 0.534264 0.539772 0.550928 0.572734 0.611847 0.659081 0.712285 0.764695 0.813349 0.857436 0.894973 0.920299 0.933083 0.939647 0.94744 0.95548 0.960444 0.963588 0.971295 1.00192 1.03692 1.02512 0.97283 0.863192 0.662791 0.361248 0.110537 0.0162055 0.000798744 0 0.256156 0.253031 0.231233 0.226844 0.254182 0.304846 0.381932 0.469057 0.559702 0.648476 0.730897 0.803231 0.86544 0.918961 0.961846 0.985491 0.992739 0.99914 1.01808 1.05778 1.07607 1.05527 0.997824 0.882538 0.677877 0.37459 0.119528 0.0193237 0.00114792 1.62547e-05 0 -0.015283 -0.0572154 -0.115826 -0.159838 -0.138921 -0.0698291 0.0193247 0.124061 0.237655 0.352874 0.46728 0.578351 0.683687 0.779893 0.862456 0.932484 0.994681 1.04703 1.08381 1.09191 1.07115 1.00962 0.884616 0.670011 0.363997 0.116806 0.019632 0.00129736 2.29394e-05 9.57776e-08 0 -0.148921 -0.189612 -0.376148 -0.392364 -0.355244 -0.306896 -0.241021 -0.159882 -0.0639042 0.0448437 0.157875 0.271153 0.385552 0.499747 0.613481 0.730313 0.845549 0.94392 1.00608 1.01879 0.977377 0.855871 0.633531 0.328525 0.102435 0.016958 0.00116205 2.29818e-05 1.16748e-07 6.35738e-10 0 0.0863122 -0.238439 -0.399815 -0.338086 -0.33366 -0.309056 -0.275479 -0.230223 -0.170669 -0.0963036 -0.0122511 0.0717436 0.150746 0.230393 0.316214 0.411162 0.513933 0.616127 0.7025 0.748707 0.715607 0.544862 0.269856 0.0794618 0.0122824 0.000816149 1.63409e-05 9.61673e-08 6.36757e-10 3.10578e-12 0 2.60476 0 0 0 0 0 0 0 0 0 0 0 0 0 0 0 0 0 0 0 0 0 0 0 0 0 0 0 0 0 0
				</DataArray>
			</PointData>
			<CellData Scalars="Density">
				<DataArray Name="Density" type="Float32" format="ascii">