<?xml version="1.0"?>
<VTKFile type="PolyData">
	<PolyData>
		<Piece NumberOfPoints="961" NumberOfPolys="900">
			<Points>
				<DataArray type="Float32" NumberOfComponents="3" format="ascii">
 0 0 0 0.04 0 0 0.08 0 0 0.12 0 0 0.16 0 0 0.2 0 0 0.24 0 0 0.28 0 0 0.32 0 0 0.36 0 0 0.4 0 0 0.44 0 0 0.48 0 0 0.52 0 0 0.56 0 0 0.6 0 0 0.64 0 0 0.68 0 0 0.72 0 0 0.76 0 0 0.8 0 0 0.84 0 0 0.88 0 0 0.92 0 0 0.96 0 0 1 0 0 1.04 0 0 1.08 0 0 1.12 0 0 1.16 0 0 1.2 0 0 0 0.04 0 0.04 0.04 0 0.08 0.04 0 0.12 0.04 0 0.16 0.04 0 0.2 0.04 0 0.24 0.04 0 0.28 0.04 0 0.32 0.04 0 0.36 0.04 0 0.4 0.04 0 0.44 0.04 0 0.48 0.04 0 0.52 0.04 0 0.56 0.04 0 0.6 0.04 0 0.64 0.04 0 0.68 0.04 0 0.72 0.04 0 0.76 0.04 0 0.8 0.04 0 0.84 0.04 0 0.88 0.04 0 0.92 0.04 0 0.96 0.04 0 1 0.04 0 1.04 0.04 0 1.08 0.04 0 1.12 0.04 0 1.16 0.04 0 1.2 0.04 0 0 0.08 0 0.04 0.08 0 0.08 0.08 0 0.12 0.08 0 0.16 0.08 0 0.2 0.08 0 0.24 0.08 0 0.28 0.08 0 0.32 0.08 0 0.36 0.08 0 0.4 0.08 0 0.44 0.08 0 0.48 0.08 0 0.52 0.08 0 0.56 0.08 0 0.6 0.08 0 0.64 0.08 0 0.68 0.08 0 0.72 0.08 0 0.76 0.08 0 0.8 0.08 0 0.84 0.08 0 0.88 0.08 0 0.92 0.08 0 0.96 0.08 0 1 0.08 0 1.04 0.08 0 1.08 0.08 0 1.12 0.08 0 1.16 0.08 0 1.2 0.08 0 0 0.12 0 0.04 0.12 0 0.08 0.12 0 0.12 0.12 0 0.16 0.12 0 0.2 0.12 0 0.24 0.12 0 0.28 0.12 0 0.32 0.12 0 0.36 0.12 0 0.4 0.12 0 0.44 0.12 0 0.48 0.12 0 0.52 0.12 0 0.56 0.12 0 0.6 0.12 0 0.64 0.12 0 0.68 0.12 0 0.72 0.12 0 0.76 0.12 0 0.8 0.12 0 0.84 0.12 0 0.88 0.12 0 0.92 0.12 0 0.96 0.12 0 1 0.12 0 1.04 0.12 0 1.08 0.12 0 1.12 0.12 0 1.16 0.12 0 1.2 0.12 0 0 0.16 0 0.04 0.16 0 0.08 0.16 0 0.12 0.16 0 0.16 0.16 0 0.2 0.16 0 0.24 0.16 0 0.28 0.16 0 0.32 0.16 0 0.36 0.16 0 0.4 0.16 0 0.44 0.16 0 0.48 0.16 0 0.52 0.16 0 0.56 0.16 0 0.6 0.16 0 0.64 0.16 0 0.68 0.16 0 0.72 0.16 0 0.76 0.16 0 0.8 0.16 0 0.84 0.16 0 0.88 0.16 0 0.92 0.16 0 0.96 0.16 0 1 0.16 0 1.04 0.16 0 1.08 0.16 0 1.12 0.16 0 1.16 0.16 0 1.2 0.16 0 0 0.2 0 0.04 0.2 0 0.08 0.2 0 0.12 0.2 0 0.16 0.2 0 0.2 0.2 0 0.24 0.2 0 0.28 0.2 0 0.32 0.2 0 0.36 0.2 0 0.4 0.2 0 0.44 0.2 0 0.48 0.2 0 0.52 0.2 0 0.56 0.2 0 0.6 0.2 0 0.64 0.2 0 0.68 0.2 0 0.72 0.2 0 0.76 0.2 0 0.8 0.2 0 0.84 0.2 0 0.88 0.2 0 0.92 0.2 0 0.96 0.2 0 1 0.2 0 1.04 0.2 0 1.08 0.2 0 1.12 0.2 0 1.16 0.2 0 1.2 0.2 0 0 0.24 0 0.04 0.24 0 0.08 0.24 0 0.12 0.24 0 0.16 0.24 0 0.2 0.24 0 0.24 0.24 0 0.28 0.24 0 0.32 0.24 0 0.36 0.24 0 0.4 0.24 0 0.44 0.24 0 0.48 0.24 0 0.52 0.24 0 0.56 0.24 0 0.6 0.24 0 0.64 0.24 0 0.68 0.24 0 0.72 0.24 0 0.76 0.24 0 0.8 0.24 0 0.84 0.24 0 0.88 0.24 0 0.92 0.24 0 0.96 0.24 0 1 0.24 0 1.04 0.24 0 1.08 0.24 0 1.12 0.24 0 1.16 0.24 0 1.2 0.24 0 0 0.28 0 0.04 0.28 0 0.08 0.28 0 0.12 0.28 0 0.16 0.28 0 0.2 0.28 0 0.24 0.28 0 0.28 0.28 0 0.32 0.28 0 0.36 0.28 0 0.4 0.28 0 0.44 0.28 0 0.48 0.28 0 0.52 0.28 0 0.56 0.28 0 0.6 0.28 0 0.64 0.28 0 0.68 0.28 0 0.72 0.28 0 0.76 0.28 0 0.8 0.28 0 0.84 0.28 0 0.88 0.28 0 0.92 0.28 0 0.96 0.28 0 1 0.28 0 1.04 0.28 0 1.08 0.28 0 1.12 0.28 0 1.16 0.28 0 1.2 0.28 0 0 0.32 0 0.04 0.32 0 0.08 0.32 0 0.12 0.32 0 0.16 0.32 0 0.2 0.32 0 0.24 0.32 0 0.28 0.32 0 0.32 0.32 0 0.36 0.32 0 0.4 0.32 0 0.44 0.32 0 0.48 0.32 0 0.52 0.32 0 0.56 0.32 0 0.6 0.32 0 0.64 0.32 0 0.68 0.32 0 0.72 0.32 0 0.76 0.32 0 0.8 0.32 0 0.84 0.32 0 0.88 0.32 0 0.92 0.32 0 0.96 0.32 0 1 0.32 0 1.04 0.32 0 1.08 0.32 0 1.12 0.32 0 1.16 0.32 0 1.2 0.32 0 0 0.36 0 0.04 0.36 0 0.08 0.36 0 0.12 0.36 0 0.16 0.36 0 0.2 0.36 0 0.24 0.36 0 0.28 0.36 0 0.32 0.36 0 0.36 0.36 0 0.4 0.36 0 0.44 0.36 0 0.48 0.36 0 0.52 0.36 0 0.56 0.36 0 0.6 0.36 0 0.64 0.36 0 0.68 0.36 0 0.72 0.36 0 0.76 0.36 0 0.8 0.36 0 0.84 0.36 0 0.88 0.36 0 0.92 0.36 0 0.96 0.36 0 1 0.36 0 1.04 0.36 0 1.08 0.36 0 1.12 0.36 0 1.16 0.36 0 1.2 0.36 0 0 0.4 0 0.04 0.4 0 0.08 0.4 0 0.12 0.4 0 0.16 0.4 0 0.2 0.4 0 0.24 0.4 0 0.28 0.4 0 0.32 0.4 0 0.36 0.4 0 0.4 0.4 0 0.44 0.4 0 0.48 0.4 0 0.52 0.4 0 0.56 0.4 0 0.6 0.4 0 0.64 0.4 0 0.68 0.4 0 0.72 0.4 0 0.76 0.4 0 0.8 0.4 0 0.84 0.4 0 0.88 0.4 0 0.92 0.4 0 0.96 0.4 0 1 0.4 0 1.04 0.4 0 1.08 0.4 0 1.12 0.4 0 1.16 0.4 0 1.2 0.4 0 0 0.44 0 0.04 0.44 0 0.08 0.44 0 0.12 0.44 0 0.16 0.44 0 0.2 0.44 0 0.24 0.44 0 0.28 0.44 0 0.32 0.44 0 0.36 0.44 0 0.4 0.44 0 0.44 0.44 0 0.48 0.44 0 0.52 0.44 0 0.56 0.44 0 0.6 0.44 0 0.64 0.44 0 0.68 0.44 0 0.72 0.44 0 0.76 0.44 0 0.8 0.44 0 0.84 0.44 0 0.88 0.44 0 0.92 0.44 0 0.96 0.44 0 1 0.44 0 1.04 0.44 0 1.08 0.44 0 1.12 0.44 0 1.16 0.44 0 1.2 0.44 0 0 0.48 0 0.04 0.48 0 0.08 0.48 0 0.12 0.48 0 0.16 0.48 0 0.2 0.48 0 0.24 0.48 0 0.28 0.48 0 0.32 0.48 0 0.36 0.48 0 0.4 0.48 0 0.44 0.48 0 0.48 0.48 0 0.52 0.48 0 0.56 0.48 0 0.6 0.48 0 0.64 0.48 0 0.68 0.48 0 0.72 0.48 0 0.76 0.48 0 0.8 0.48 0 0.84 0.48 0 0.88 0.48 0 0.92 0.48 0 0.96 0.48 0 1 0.48 0 1.04 0.48 0 1.08 0.48 0 1.12 0.48 0 1.16 0.48 0 1.2 0.48 0 0 0.52 0 0.04 0.52 0 0.08 0.52 0 0.12 0.52 0 0.16 0.52 0 0.2 0.52 0 0.24 0.52 0 0.28 0.52 0 0.32 0.52 0 0.36 0.52 0 0.4 0.52 0 0.44 0.52 0 0.48 0.52 0 0.52 0.52 0 0.56 0.52 0 0.6 0.52 0 0.64 0.52 0 0.68 0.52 0 0.72 0.52 0 0.76 0.52 0 0.8 0.52 0 0.84 0.52 0 0.88 0.52 0 0.92 0.52 0 0.96 0.52 0 1 0.52 0 1.04 0.52 0 1.08 0.52 0 1.12 0.52 0 1.16 0.52 0 1.2 0.52 0 0 0.56 0 0.04 0.56 0 0.08 0.56 0 0.12 0.56 0 0.16 0.56 0 0.2 0.56 0 0.24 0.56 0 0.28 0.56 0 0.32 0.56 0 0.36 0.56 0 0.4 0.56 0 0.44 0.56 0 0.48 0.56 0 0.52 0.56 0 0.56 0.56 0 0.6 0.56 0 0.64 0.56 0 0.68 0.56 0 0.72 0.56 0 0.76 0.56 0 0.8 0.56 0 0.84 0.56 0 0.88 0.56 0 0.92 0.56 0 0.96 0.56 0 1 0.56 0 1.04 0.56 0 1.08 0.56 0 1.12 0.56 0 1.16 0.56 0 1.2 0.56 0 0 0.6 0 0.04 0.6 0 0.08 0.6 0 0.12 0.6 0 0.16 0.6 0 0.2 0.6 0 0.24 0.6 0 0.28 0.6 0 0.32 0.6 0 0.36 0.6 0 0.4 0.6 0 0.44 0.6 0 0.48 0.6 0 0.52 0.6 0 0.56 0.6 0 0.6 0.6 0 0.64 0.6 0 0.68 0.6 0 0.72 0.6 0 0.76 0.6 0 0.8 0.6 0 0.84 0.6 0 0.88 0.6 0 0.92 0.6 0 0.96 0.6 0 1 0.6 0 1.04 0.6 0 1.08 0.6 0 1.12 0.6 0 1.16 0.6 0 1.2 0.6 0 0 0.64 0 0.04 0.64 0 0.08 0.64 0 0.12 0.64 0 0.16 0.64 0 0.2 0.64 0 0.24 0.64 0 0.28 0.64 0 0.32 0.64 0 0.36 0.64 0 0.4 0.64 0 0.44 0.64 0 0.48 0.64 0 0.52 0.64 0 0.56 0.64 0 0.6 0.64 0 0.64 0.64 0 0.68 0.64 0 0.72 0.64 0 0.76 0.64 0 0.8 0.64 0 0.84 0.64 0 0.88 0.64 0 0.92 0.64 0 0.96 0.64 0 1 0.64 0 1.04 0.64 0 1.08 0.64 0 1.12 0.64 0 1.16 0.64 0 1.2 0.64 0 0 0.68 0 0.04 0.68 0 0.08 0.68 0 0.12 0.68 0 0.16 0.68 0 0.2 0.68 0 0.24 0.68 0 0.28 0.68 0 0.32 0.68 0 0.36 0.68 0 0.4 0.68 0 0.44 0.68 0 0.48 0.68 0 0.52 0.68 0 0.56 0.68 0 0.6 0.68 0 0.64 0.68 0 0.68 0.68 0 0.72 0.68 0 0.76 0.68 0 0.8 0.68 0 0.84 0.68 0 0.88 0.68 0 0.92 0.68 0 0.96 0.68 0 1 0.68 0 1.04 0.68 0 1.08 0.68 0 1.12 0.68 0 1.16 0.68 0 1.2 0.68 0 0 0.72 0 0.04 0.72 0 0.08 0.72 0 0.12 0.72 0 0.16 0.72 0 0.2 0.72 0 0.24 0.72 0 0.28 0.72 0 0.32 0.72 0 0.36 0.72 0 0.4 0.72 0 0.44 0.72 0 0.48 0.72 0 0.52 0.72 0 0.56 0.72 0 0.6 0.72 0 0.64 0.72 0 0.68 0.72 0 0.72 0.72 0 0.76 0.72 0 0.8 0.72 0 0.84 0.72 0 0.88 0.72 0 0.92 0.72 0 0.96 0.72 0 1 0.72 0 1.04 0.72 0 1.08 0.72 0 1.12 0.72 0 1.16 0.72 0 1.2 0.72 0 0 0.76 0 0.04 0.76 0 0.08 0.76 0 0.12 0.76 0 0.16 0.76 0 0.2 0.76 0 0.24 0.76 0 0.28 0.76 0 0.32 0.76 0 0.36 0.76 0 0.4 0.76 0 0.44 0.76 0 0.48 0.76 0 0.52 0.76 0 0.56 0.76 0 0.6 0.76 0 0.64 0.76 0 0.68 0.76 0 0.72 0.76 0 0.76 0.76 0 0.8 0.76 0 0.84 0.76 0 0.88 0.76 0 0.92 0.76 0 0.96 0.76 0 1 0.76 0 1.04 0.76 0 1.08 0.76 0 1.12 0.76 0 1.16 0.76 0 1.2 0.76 0 0 0.8 0 0.04 0.8 0 0.08 0.8 0 0.12 0.8 0 0.16 0.8 0 0.2 0.8 0 0.24 0.8 0 0.28 0.8 0 0.32 0.8 0 0.36 0.8 0 0.4 0.8 0 0.44 0.8 0 0.48 0.8 0 0.52 0.8 0 0.56 0.8 0 0.6 0.8 0 0.64 0.8 0 0.68 0.8 0 0.72 0.8 0 0.76 0.8 0 0.8 0.8 0 0.84 0.8 0 0.88 0.8 0 0.92 0.8 0 0.96 0.8 0 1 0.8 0 1.04 0.8 0 1.08 0.8 0 1.12 0.8 0 1.16 0.8 0 1.2 0.8 0 0 0.84 0 0.04 0.84 0 0.08 0.84 0 0.12 0.84 0 0.16 0.84 0 0.2 0.84 0 0.24 0.84 0 0.28 0.84 0 0.32 0.84 0 0.36 0.84 0 0.4 0.84 0 0.44 0.84 0 0.48 0.84 0 0.52 0.84 0 0.56 0.84 0 0.6 0.84 0 0.64 0.84 0 0.68 0.84 0 0.72 0.84 0 0.76 0.84 0 0.8 0.84 0 0.84 0.84 0 0.88 0.84 0 0.92 0.84 0 0.96 0.84 0 1 0.84 0 1.04 0.84 0 1.08 0.84 0 1.12 0.84 0 1.16 0.84 0 1.2 0.84 0 0 0.88 0 0.04 0.88 0 0.08 0.88 0 0.12 0.88 0 0.16 0.88 0 0.2 0.88 0 0.24 0.88 0 0.28 0.88 0 0.32 0.88 0 0.36 0.88 0 0.4 0.88 0 0.44 0.88 0 0.48 0.88 0 0.52 0.88 0 0.56 0.88 0 0.6 0.88 0 0.64 0.88 0 0.68 0.88 0 0.72 0.88 0 0.76 0.88 0 0.8 0.88 0 0.84 0.88 0 0.88 0.88 0 0.92 0.88 0 0.96 0.88 0 1 0.88 0 1.04 0.88 0 1.08 0.88 0 1.12 0.88 0 1.16 0.88 0 1.2 0.88 0 0 0.92 0 0.04 0.92 0 0.08 0.92 0 0.12 0.92 0 0.16 0.92 0 0.2 0.92 0 0.24 0.92 0 0.28 0.92 0 0.32 0.92 0 0.36 0.92 0 0.4 0.92 0 0.44 0.92 0 0.48 0.92 0 0.52 0.92 0 0.56 0.92 0 0.6 0.92 0 0.64 0.92 0 0.68 0.92 0 0.72 0.92 0 0.76 0.92 0 0.8 0.92 0 0.84 0.92 0 0.88 0.92 0 0.92 0.92 0 0.96 0.92 0 1 0.92 0 1.04 0.92 0 1.08 0.92 0 1.12 0.92 0 1.16 0.92 0 1.2 0.92 0 0 0.96 0 0.04 0.96 0 0.08 0.96 0 0.12 0.96 0 0.16 0.96 0 0.2 0.96 0 0.24 0.96 0 0.28 0.96 0 0.32 0.96 0 0.36 0.96 0 0.4 0.96 0 0.44 0.96 0 0.48 0.96 0 0.52 0.96 0 0.56 0.96 0 0.6 0.96 0 0.64 0.96 0 0.68 0.96 0 0.72 0.96 0 0.76 0.96 0 0.8 0.96 0 0.84 0.96 0 0.88 0.96 0 0.92 0.96 0 0.96 0.96 0 1 0.96 0 1.04 0.96 0 1.08 0.96 0 1.12 0.96 0 1.16 0.96 0 1.2 0.96 0 0 1 0 0.04 1 0 0.08 1 0 0.12 1 0 0.16 1 0 0.2 1 0 0.24 1 0 0.28 1 0 0.32 1 0 0.36 1 0 0.4 1 0 0.44 1 0 0.48 1 0 0.52 1 0 0.56 1 0 0.6 1 0 0.64 1 0 0.68 1 0 0.72 1 0 0.76 1 0 0.8 1 0 0.84 1 0 0.88 1 0 0.92 1 0 0.96 1 0 1 1 0 1.04 1 0 1.08 1 0 1.12 1 0 1.16 1 0 1.2 1 0 0 1.04 0 0.04 1.04 0 0.08 1.04 0 0.12 1.04 0 0.16 1.04 0 0.2 1.04 0 0.24 1.04 0 0.28 1.04 0 0.32 1.04 0 0.36 1.04 0 0.4 1.04 0 0.44 1.04 0 0.48 1.04 0 0.52 1.04 0 0.56 1.04 0 0.6 1.04 0 0.64 1.04 0 0.68 1.04 0 0.72 1.04 0 0.76 1.04 0 0.8 1.04 0 0.84 1.04 0 0.88 1.04 0 0.92 1.04 0 0.96 1.04 0 1 1.04 0 1.04 1.04 0 1.08 1.04 0 1.12 1.04 0 1.16 1.04 0 1.2 1.04 0 0 1.08 0 0.04 1.08 0 0.08 1.08 0 0.12 1.08 0 0.16 1.08 0 0.2 1.08 0 0.24 1.08 0 0.28 1.08 0 0.32 1.08 0 0.36 1.08 0 0.4 1.08 0 0.44 1.08 0 0.48 1.08 0 0.52 1.08 0 0.56 1.08 0 0.6 1.08 0 0.64 1.08 0 0.68 1.08 0 0.72 1.08 0 0.76 1.08 0 0.8 1.08 0 0.84 1.08 0 0.88 1.08 0 0.92 1.08 0 0.96 1.08 0 1 1.08 0 1.04 1.08 0 1.08 1.08 0 1.12 1.08 0 1.16 1.08 0 1.2 1.08 0 0 1.12 0 
[...]
			<PointData Scalars="VitesseX">
				<DataArray Name="VitesseX" type="Float32" format="ascii">
 0 -0.0664647 -0.129824 -0.120663 -0.0634008 0.0417977 0.165111 0.28116 0.361173 0.393337 0.377189 0.338704 0.292901 0.248836 0.215155 0.195808 0.187904 0.185414 0.179095 0.108175 -0.204999 -0.542594 -0.684349 -0.623681 -0.534059 -0.448435 -0.361963 -0.27422 -0.185324 -0.0926542 0 0 0.0574668 0.0217016 0.00285604 0.0432557 0.112939 0.203485 0.294274 0.361573 0.378967 0.358401 0.317685 0.273701 0.237027 0.210341 0.194794 0.188905 0.186816 0.180091 0.111712 -0.198584 -0.5379 -0.68255 -0.62422 -0.534486 -0.44894 -0.362526 -0.274712 -0.185587 -0.0927006 0 0 0.0302959 0.0583225 0.0505407 0.0550161 0.0759031 0.10308 0.140722 0.181415 0.215753 0.229835 0.225389 0.212419 0.198125 0.187616 0.183712 0.184662 0.186169 0.180487 0.120364 -0.180149 -0.523379 -0.676195 -0.624997 -0.534734 -0.449276 -0.36304 -0.275266 -0.185933 -0.0928278 0 0 -0.0272799 -0.0466969 -0.052151 -0.0579682 -0.0556405 -0.0439358 -0.0244758 -0.00175737 0.0238997 0.0608524 0.0955217 0.120382 0.136253 0.149108 0.160785 0.172199 0.179769 0.177445 0.13008 -0.152497 -0.499611 -0.665079 -0.626673 -0.535311 -0.449848 -0.363808 -0.276248 -0.186856 -0.0932468 0 0 -0.075147 -0.118527 -0.140691 -0.151108 -0.15693 -0.15712 -0.151159 -0.130622 -0.0947609 -0.0549341 -0.00904597 0.0343391 0.0727111 0.104444 0.130923 0.151436 0.165845 0.168889 0.136612 -0.119219 -0.467084 -0.648375 -0.629535 -0.536413 -0.450821 -0.364966 -0.277733 -0.188442 -0.0941622 0 0 -0.102189 -0.166102 -0.198082 -0.218173 -0.230968 -0.236508 -0.236634 -0.216687 -0.175547 -0.126814 -0.0771803 -0.0257953 0.0217035 0.0632386 0.0967254 0.124242 0.14433 0.15365 0.136117 -0.0838529 -0.42622 -0.624926 -0.63343 -0.538166 -0.452226 -0.366459 -0.279534 -0.19044 -0.0954771 0 0 -0.114672 -0.185616 -0.224099 -0.252333 -0.271778 -0.283881 -0.28632 -0.276047 -0.236898 -0.18027 -0.123749 -0.0700412 -0.0188474 0.0250109 0.062036 0.091901 0.115831 0.130832 0.126755 -0.0496199 -0.377052 -0.596365 -0.635322 -0.540686 -0.454097 -0.368218 -0.281383 -0.192396 -0.0969839 0 0 -0.107057 -0.182458 -0.22928 -0.26163 -0.285112 -0.302944 -0.313484 -0.311658 -0.289422 -0.235453 -0.170165 -0.110479 -0.0582584 -0.0115433 0.0257533 0.0565627 0.0816173 0.101657 0.10798 -0.0196919 -0.321456 -0.562232 -0.631408 -0.543902 -0.456405 -0.37019 -0.283154 -0.193994 -0.0981774 0 0 -0.0807901 -0.143694 -0.187238 -0.228559 -0.269185 -0.30198 -0.32376 -0.33412 -0.327299 -0.296758 -0.235125 -0.165012 -0.103644 -0.0540222 -0.0124327 0.018777 0.0448396 0.0674538 0.0797012 0.00197295 -0.262355 -0.519191 -0.618062 -0.548072 -0.459066 -0.372296 -0.28486 -0.195411 -0.0992616 0 0 -0.0367317 -0.0743185 -0.111434 -0.147047 -0.200367 -0.264294 -0.315769 -0.345261 -0.356716 -0.345959 -0.309031 -0.241368 -0.167842 -0.105584 -0.058436 -0.0218067 0.00525029 0.0285927 0.0440465 0.0106802 -0.203208 -0.463393 -0.59112 -0.553763 -0.462041 -0.37439 -0.286472 -0.196756 -0.100615 0 0 0.00827452 0.00241529 -0.031012 -0.0790999 -0.134342 -0.204124 -0.282431 -0.343907 -0.378151 -0.389473 -0.374447 -0.331528 -0.256024 -0.178004 -0.115769 -0.0709782 -0.0381398 -0.0134693 0.00517251 0.00146358 -0.148115 -0.39379 -0.547266 -0.558914 -0.465286 -0.376466 -0.288151 -0.198273 -0.102285 0 0 0.0308147 0.0473919 0.0244175 -0.0265955 -0.0870646 -0.155629 -0.237799 -0.323195 -0.387097 -0.423729 -0.43469 -0.41529 -0.366314 -0.280684 -0.196208 -0.133805 -0.0899571 -0.0589375 -0.035944 -0.0250442 -0.10332 -0.313361 -0.492322 -0.550448 -0.468616 -0.378927 -0.290115 -0.20011 -0.103622 0 0 0.0377489 0.0592846 0.0462043 0.0022048 -0.0588703 -0.127767 -0.202123 -0.288625 -0.37606 -0.440397 -0.47889 -0.490635 -0.467629 -0.411409 -0.312787 -0.220301 -0.157057 -0.112408 -0.0800648 -0.0620029 -0.0801698 -0.233789 -0.422865 -0.518108 -0.473167 -0.382114 -0.292621 -0.202525 -0.104849 0 0 0.0343998 0.0530792 0.042525 0.0030257 -0.0540685 -0.11749 -0.184146 -0.255277 -0.340702 -0.430783 -0.498231 -0.539454 -0.553155 -0.528266 -0.46254 -0.34839 -0.247521 -0.181188 -0.13359 -0.102425 -0.0876504 -0.164854 -0.337518 -0.459904 -0.475135 -0.386037 -0.295927 -0.205677 -0.106731 0 0 0.0237969 0.0339742 0.0219123 -0.0147954 -0.0666182 -0.123226 -0.178205 -0.235346 -0.298286 -0.379863 -0.477385 -0.555171 -0.601636 -0.618762 -0.593599 -0.514527 -0.38208 -0.272649 -0.201851 -0.148358 -0.117305 -0.121805 -0.245434 -0.387965 -0.453666 -0.390527 -0.30027 -0.209444 -0.109423 0 0 0.00647957 0.00395099 -0.0145889 -0.0496092 -0.0953538 -0.139984 -0.180864 -0.220807 -0.26716 -0.322307 -0.40006 -0.510167 -0.609346 -0.664475 -0.684016 -0.658156 -0.56101 -0.409565 -0.290248 -0.212861 -0.156773 -0.118862 -0.164741 -0.301467 -0.399214 -0.394097 -0.305192 -0.213444 -0.112272 0 0 -0.0145026 -0.0320539 -0.0576395 -0.0947676 -0.132755 -0.163583 -0.186614 -0.208986 -0.237287 -0.277141 -0.330812 -0.406713 -0.527044 -0.654366 -0.724412 -0.744628 -0.715725 -0.59607 -0.425758 -0.299134 -0.209379 -0.148372 -0.116479 -0.206549 -0.323894 -0.377367 -0.309617 -0.217229 -0.114516 0 0 -0.0388955 -0.0742411 -0.104302 -0.127329 -0.147615 -0.165173 -0.179436 -0.191578 -0.20727 -0.23373 -0.273588 -0.330408 -0.408472 -0.533393 -0.685314 -0.7753 -0.796834 -0.758752 -0.613424 -0.425382 -0.292569 -0.191665 -0.118651 -0.123237 -0.235823 -0.324473 -0.311601 -0.220565 -0.116128 0 0 -0.0617276 -0.0982135 -0.110669 -0.11987 -0.129309 -0.136349 -0.141864 -0.150446 -0.165815 -0.188427 -0.221219 -0.265446 -0.325145 -0.405924 -0.532119 -0.702298 -0.813159 -0.834489 -0.779353 -0.609305 -0.405888 -0.263291 -0.156492 -0.0812815 -0.140827 -0.245492 -0.294048 -0.222785 -0.117376 0 0 -0.0603118 -0.0882533 -0.0866624 -0.0818543 -0.0781347 -0.0750558 -0.0769454 -0.0875509 -0.106971 -0.134973 -0.168723 -0.207697 -0.254692 -0.31442 -0.395555 -0.51892 -0.696359 -0.826835 -0.852152 -0.771823 -0.578438 -0.36851 -0.21631 -0.098081 -0.0609617 -0.153535 -0.239084 -0.220549 -0.119044 0 0 -0.0269944 -0.0344919 -0.0332699 -0.0245003 -0.0135217 -0.00923464 -0.0146237 -0.0279798 -0.0496244 -0.0790392 -0.114079 -0.150984 -0.190147 -0.238217 -0.296011 -0.37308 -0.492786 -0.667011 -0.80843 -0.839831 -0.731756 -0.521933 -0.310972 -0.154872 -0.0298223 -0.0579672 -0.152997 -0.199606 -0.120231 0 0 0.0196285 0.0206966 0.0121599 0.0168759 0.0282142 0.0341628 0.0341923 0.0259676 0.00762525 -0.0194572 -0.0520527 -0.088572 -0.128619 -0.166717 -0.209788 -0.26596 -0.337849 -0.44979 -0.61386 -0.756884 -0.794969 -0.661836 -0.44755 -0.238393 -0.0690499 0.0184056 -0.0513876 -0.138873 -0.116562 0 0 0.0254983 0.0263762 0.0275663 0.0317291 0.0426684 0.0594529 0.0742474 0.0770961 0.0675502 0.0487971 0.0231674 -0.00896083 -0.0452303 -0.0846376 -0.128505 -0.17157 -0.221805 -0.287996 -0.391901 -0.539625 -0.678518 -0.714333 -0.567231 -0.357872 -0.163222 0.0363964 0.0446934 -0.0416253 -0.0915441 0 0 0.00275137 0.00954152 0.0204868 0.0254729 0.0440697 0.074697 0.0998715 0.108283 0.105912 0.101803 0.0950086 0.0815391 0.0566409 0.0192098 -0.0239349 -0.0686836 -0.119754 -0.167189 -0.22605 -0.321193 -0.453865 -0.57303 -0.612885 -0.45901 -0.254109 -0.0534601 0.113704 0.0693678 -0.021721 0 0 -0.0144397 -0.000188434 0.0047038 0.0114325 0.0395366 0.0787285 0.103257 0.111541 0.117337 0.125818 0.135164 0.144144 0.139144 0.122526 0.0933886 0.0511458 0.00211453 -0.0510261 -0.103359 -0.162033 -0.241137 -0.359138 -0.45925 -0.483832 -0.347114 -0.172579 0.0876869 0.162751 0.0811781 0 0 -0.0235826 -0.00784058 -0.0117531 -0.00126735 0.0300614 0.065609 0.0818455 0.0874296 0.0966105 0.114385 0.139358 0.163695 0.178126 0.184208 0.180884 0.159113 0.125658 0.0804065 0.0254437 -0.032619 -0.0952922 -0.159462 -0.266063 -0.361265 -0.371594 -0.218926 -0.0402258 0.173527 0.173352 0 0 -0.0319133 -0.0214622 -0.0263562 -0.0117397 0.0172532 0.0441038 0.0528468 0.0574078 0.070019 0.0910496 0.116531 0.143138 0.169461 0.195208 0.213641 0.216224 0.210039 0.187322 0.151155 0.103876 0.0409706 -0.0161152 -0.104833 -0.180352 -0.263961 -0.250343 -0.166806 0.115783 0.146524 0 0 -0.0399221 -0.0453048 -0.0366257 -0.0182353 0.00425016 0.0198112 0.0193128 0.0211918 0.0350072 0.0573784 0.08325 0.109191 0.134208 0.158143 0.182073 0.206908 0.230739 0.237806 0.230608 0.203363 0.163361 0.11295 0.0464114 -0.024623 -0.139689 -0.216795 -0.199212 -0.0470247 0.0790888 0 0 -0.0435502 -0.0790978 -0.0405819 -0.0211998 -0.00270278 0.000630782 -0.00836593 -0.00882132 0.00217218 0.0188732 0.0384723 0.0583826 0.0781427 0.0986004 0.12037 0.14394 0.16864 0.193708 0.218837 0.230995 0.226628 0.200475 0.162283 0.10986 0.0269006 -0.0745672 -0.182886 -0.177707 -0.0568533 0 0 -0.194748 -0.0813202 -0.0468645 -0.0163734 -0.00156882 -0.0106404 -0.0229999 -0.0238353 -0.0167378 -0.00597965 0.00510082 0.0151232 0.0239602 0.0327662 0.0428966 0.0550025 0.0689074 0.0842407 0.100781 0.117715 0.13556 0.14405 0.140349 0.115756 0.0743456 0.0373319 0.0202274 -0.0423204 -0.0644871 0 0 0 0 0 0 0 0 0 0 0 0 0 0 0 0 0 0 0 0 0 0 0 0 0 0 0 0 0 0 0 0
				</DataArray>
				<DataArray Name="VitesseY" type="Float32" format="ascii">
 0 0 0 0 0 0 0 0 0 0 0 0 0 0 0 0 0 0 0 0 0 0 0 0 0 0 0 0 0 0 0 -0.0612518 0.059594 0.0288482 -0.0298897 -0.0785762 -0.107268 -0.117645 -0.100272 -0.0581316 -0.00263757 0.0279061 0.0395412 0.0380637 0.0301045 0.0170835 0.00355529 -0.00605469 -0.0102589 -0.0110985 -0.00743717 0.00250495 0.0128586 0.0183926 0.0184691 0.0160618 0.0133268 0.00991193 0.00650968 0.00355658 0.00122074 0 -0.1259 0.0258114 0.0597255 -0.0448204 -0.119275 -0.167991 -0.185596 -0.171743 -0.10569 -0.0179799 0.0383196 0.0625236 0.0598959 0.0466872 0.0245548 0.00141734 -0.0150762 -0.0214999 -0.0216392 -0.0141242 0.00484885 0.025244 0.0365157 0.0370906 0.0323016 0.0269839 0.0202689 0.0131823 0.00717503 0.00267784 0 -0.120688 0.00689906 0.0593761 -0.0419581 -0.131602 -0.189755 -0.213683 -0.211828 -0.140144 -0.054768 0.0126016 0.0462148 0.052179 0.040271 0.0155275 -0.0113466 -0.0306179 -0.0359056 -0.0330878 -0.0205716 0.00640146 0.0364935 0.0539166 0.0558307 0.0488649 0.0412154 0.031388 0.0202273 0.0108003 0.00404654 0 -0.0694959 0.0474192 0.0709724 -0.036697 -0.131478 -0.197321 -0.228671 -0.233398 -0.173069 -0.0947283 -0.0358185 0.00223395 0.0157527 0.00993965 -0.0117796 -0.0361997 -0.0538322 -0.0557716 -0.0472838 -0.0284132 0.00601234 0.045728 0.0701174 0.0744125 0.0655319 0.0557907 0.043136 0.0276531 0.014242 0.00484846 0 0.0313877 0.113073 0.101895 -0.0242401 -0.124297 -0.196865 -0.234492 -0.244626 -0.213641 -0.142617 -0.0881237 -0.0528569 -0.0360466 -0.0366394 -0.0514926 -0.0705959 -0.0839683 -0.0817774 -0.0656178 -0.0395752 0.00207958 0.0517682 0.0841771 0.092093 0.0817801 0.0701463 0.0549897 0.0353292 0.0174449 0.00498536 0 0.149418 0.201085 0.138001 -0.00065659 -0.110447 -0.189484 -0.235376 -0.252434 -0.247439 -0.200615 -0.14716 -0.111829 -0.0942546 -0.0895627 -0.09699 -0.109874 -0.11878 -0.112587 -0.0886452 -0.0558229 -0.00684664 0.052668 0.0938656 0.107468 0.0976669 0.0842304 0.0668376 0.0435256 0.0207684 0.00479249 0 0.268878 0.292578 0.182157 0.0297007 -0.0911206 -0.17693 -0.229154 -0.257004 -0.26639 -0.254631 -0.215466 -0.17723 -0.154339 -0.145316 -0.144831 -0.150619 -0.155287 -0.145589 -0.116841 -0.0773948 -0.0221368 0.0462876 0.0982298 0.120173 0.11343 0.098317 0.0789433 0.0526169 0.0246393 0.00481396 0 0.364072 0.374549 0.22784 0.0636413 -0.0623101 -0.152677 -0.213988 -0.251178 -0.275217 -0.28651 -0.279936 -0.251697 -0.22189 -0.203845 -0.195687 -0.192712 -0.191198 -0.1797 -0.148808 -0.103961 -0.0447166 0.031368 0.0969645 0.130016 0.129959 0.113157 0.092156 0.0631256 0.0296853 0.00553465 0 0.422241 0.423276 0.269014 0.0923771 -0.025 -0.107138 -0.174048 -0.229284 -0.268834 -0.300079 -0.319683 -0.322742 -0.301071 -0.272264 -0.252222 -0.238773 -0.228028 -0.2133 -0.182488 -0.134831 -0.0733041 0.008642 0.0899282 0.13785 0.147166 0.129295 0.106999 0.075613 0.0366434 0.00752795 0 0.435545 0.427725 0.297318 0.123824 0.0162537 -0.0509997 -0.107816 -0.177241 -0.241642 -0.293539 -0.337906 -0.369011 -0.378187 -0.357226 -0.32081 -0.293084 -0.269488 -0.247324 -0.215909 -0.167605 -0.105232 -0.0212666 0.0746337 0.14069 0.162433 0.147031 0.123665 0.090248 0.0459936 0.0113707 0 0.412148 0.401203 0.302258 0.164289 0.0636967 0.00596721 -0.0378916 -0.0983527 -0.185542 -0.263679 -0.332328 -0.391528 -0.431221 -0.442193 -0.413055 -0.361101 -0.321999 -0.285749 -0.249531 -0.200791 -0.140282 -0.0570576 0.0472542 0.130923 0.170082 0.166657 0.141874 0.106821 0.0576014 0.0167818 0 0.373664 0.359895 0.294236 0.197065 0.114507 0.0651338 0.0287397 -0.0202542 -0.103839 -0.206445 -0.301395 -0.386225 -0.457836 -0.501465 -0.509799 -0.46098 -0.390008 -0.336987 -0.287202 -0.236068 -0.175939 -0.0955907 0.00881738 0.111632 0.173344 0.186726 0.161132 0.124998 0.0710369 0.0226883 0 0.330008 0.319733 0.282488 0.220742 0.162502 0.123411 0.0908289 0.046609 -0.0253001 -0.124744 -0.2417 -0.353466 -0.451532 -0.53147 -0.574925 -0.574162 -0.495719 -0.406152 -0.338188 -0.27576 -0.210107 -0.136841 -0.0363035 0.0808686 0.166867 0.200174 0.181354 0.14434 0.0862785 0.0286324 0 0.290525 0.288667 0.272418 0.241067 0.206057 0.176386 0.145483 0.10119 0.0358708 -0.0502637 -0.157618 -0.286116 -0.4139 -0.523018 -0.605619 -0.647324 -0.627489 -0.516441 -0.409171 -0.326668 -0.252158 -0.176962 -0.0813196 0.036445 0.143195 0.199573 0.202969 0.164666 0.103625 0.0355419 0 0.265613 0.269817 0.270203 0.260725 0.24494 0.221946 0.188121 0.141356 0.0797903 0.00212097 -0.0863524 -0.195308 -0.330291 -0.474749 -0.594799 -0.6765 -0.712503 -0.666133 -0.521908 -0.39954 -0.30431 -0.217148 -0.128715 -0.0152868 0.107567 0.193645 0.221373 0.186117 0.123421 0.044562 0 0.259917 0.268013 0.276952 0.283118 0.280251 0.256035 0.215146 0.164083 0.105337 0.0375406 -0.0400015 -0.123144 -0.228884 -0.368909 -0.529688 -0.661733 -0.740075 -0.76652 -0.687072 -0.511919 -0.375456 -0.270048 -0.1749 -0.0655045 0.060272 0.169131 0.223243 0.209147 0.14586 0.0560577 0 0.277334 0.284697 0.294136 0.304006 0.302443 0.275233 0.227564 0.172285 0.115663 0.0559771 -0.00620458 -0.0763288 -0.154424 -0.255388 -0.399639 -0.574772 -0.719024 -0.79248 -0.805269 -0.684026 -0.487545 -0.33877 -0.223489 -0.11966 0.006207 0.132534 0.215473 0.232836 0.169972 0.0696293 0 0.318288 0.318487 0.30865 0.309081 0.307268 0.277939 0.227236 0.170956 0.117725 0.0669903 0.015673 -0.0392926 -0.102048 -0.178121 -0.276595 -0.421493 -0.606027 -0.760255 -0.831066 -0.818432 -0.657714 -0.446206 -0.288496 -0.168865 -0.0498602 0.0841349 0.191933 0.240616 0.194602 0.0847425 0 0.370697 0.355396 0.301819 0.293083 0.293959 0.264489 0.213838 0.162664 0.118227 0.0773446 0.0353139 -0.0101829 -0.061275 -0.121236 -0.195748 -0.29015 -0.432784 -0.62014 -0.779822 -0.848644 -0.801492 -0.607737 -0.389824 -0.22637 -0.104256 0.0269362 0.154038 0.2332 0.219609 0.101168 0 0.379686 0.345772 0.247127 0.236694 0.243633 0.218635 0.175509 0.135589 0.105888 0.0791242 0.0480744 0.00980668 -0.0331906 -0.0802136 -0.134493 -0.206021 -0.296774 -0.429294 -0.613448 -0.771959 -0.836763 -0.751937 -0.536821 -0.321387 -0.163997 -0.0334054 0.105262 0.205566 0.232181 0.118045 0 0.207145 0.131814 -0.00493899 -0.0192559 -0.0115959 -0.0262209 -0.0509458 -0.0630074 -0.0545883 -0.0362738 -0.0202554 -0.015702 -0.0290196 -0.0589929 -0.0982405 -0.143734 -0.203503 -0.290719 -0.407502 -0.580766 -0.731851 -0.792666 -0.675623 -0.45225 -0.240595 -0.0959238 0.0411179 0.164555 0.227648 0.135893 0 -0.202296 -0.2666 -0.347386 -0.359758 -0.367115 -0.37621 -0.378197 -0.363265 -0.330989 -0.28781 -0.240037 -0.191604 -0.145311 -0.107619 -0.0919668 -0.105207 -0.140338 -0.187234 -0.262367 -0.368973 -0.522902 -0.661766 -0.712967 -0.572262 -0.360139 -0.16139 -0.0171755 0.113321 0.201254 0.144506 0 -0.457127 -0.50208 -0.525034 -0.527113 -0.544627 -0.555289 -0.5514 -0.533154 -0.50838 -0.483965 -0.453614 -0.409625 -0.349338 -0.27636 -0.201603 -0.138582 -0.105422 -0.11486 -0.154221 -0.215637 -0.311412 -0.448267 -0.567681 -0.612447 -0.458924 -0.265337 -0.105381 0.045863 0.162489 0.140697 0 -0.454733 -0.507828 -0.486706 -0.489118 -0.510564 -0.51571 -0.516811 -0.521155 -0.532038 -0.540493 -0.538064 -0.520128 -0.482151 -0.428442 -0.360017 -0.276525 -0.187142 -0.112443 -0.0783046 -0.0979612 -0.154492 -0.238233 -0.358053 -0.458514 -0.483473 -0.362303 -0.18166 -0.0251708 0.109671 0.115938 0 -0.317904 -0.40652 -0.38511 -0.399881 -0.422645 -0.426518 -0.429795 -0.437241 -0.449774 -0.462599 -0.472957 -0.480884 -0.486292 -0.478654 -0.446162 -0.386283 -0.311902 -0.224828 -0.132092 -0.0563061 -0.0293471 -0.0699345 -0.162983 -0.253706 -0.347477 -0.371941 -0.264117 -0.140251 0.0264513 0.074294 0 -0.185494 -0.310474 -0.290978 -0.317005 -0.339375 -0.342605 -0.349081 -0.359833 -0.371944 -0.381391 -0.386712 -0.38936 -0.391862 -0.394547 -0.398306 -0.399111 -0.375907 -0.318587 -0.239216 -0.147993 -0.0538681 0.0203868 0.0362737 -0.0540574 -0.171826 -0.218652 -0.250856 -0.217175 -0.074912 0.0371576 0 -0.0465306 -0.20465 -0.205482 -0.237945 -0.255302 -0.258745 -0.268902 -0.282094 -0.292596 -0.298214 -0.299838 -0.300362 -0.300955 -0.302546 -0.30551 -0.30923 -0.312907 -0.313879 -0.293476 -0.235986 -0.1494 -0.0483622 0.0466158 0.114348 0.0874054 -0.0403504 -0.166695 -0.199359 -0.183179 0.0200195 0 0.0769234 -0.0855318 -0.133258 -0.163878 -0.170081 -0.173877 -0.185267 -0.195597 -0.204444 -0.208194 -0.208996 -0.208971 -0.209348 -0.210753 -0.213132 -0.216147 -0.219353 -0.2223 -0.224174 -0.221516 -0.199194 -0.137202 -0.0396528 0.070861 0.163416 0.1736 0.115725 -0.0470972 -0.177844 -0.0424548 0 0.436922 -0.0205904 -0.096103 -0.0785467 -0.088752 -0.0859519 -0.0902809 -0.100185 -0.106767 -0.108219 -0.109264 -0.109098 -0.108822 -0.109481 -0.111271 -0.113527 -0.115415 -0.116789 -0.117904 -0.119484 -0.120596 -0.116735 -0.0911661 -0.020837 0.0820554 0.173676 0.146519 0.079025 -0.0568959 -0.0645352 0 3.29263 0 0 0 0 0 0 0 0 0 0 0 0 0 0 0 0 0 0 0 0 0 0 0 0 0 0 0 0 0 0
				</DataArray>
			</PointData>
			<CellData Scalars="Density">
				<DataArray Name="Density" type="Float32" format="ascii">