<?xml version="1.0"?>
<VTKFile type="PolyData">
	<PolyData>
		<Piece NumberOfPoints="961" NumberOfPolys="900">
			<Points>
				<DataArray type="Float32" NumberOfComponents="3" format="ascii">
 0 0 0 0.04 0 0 0.08 0 0 0.12 0 0 0.16 0 0 0.2 0 0 0.24 0 0 0.28 0 0 0.32 0 0 0.36 0 0 0.4 0 0 0.44 0 0 0.48 0 0 0.52 0 0 0.56 0 0 0.6 0 0 0.64 0 0 0.68 0 0 0.72 0 0 0.76 0 0 0.8 0 0 0.84 0 0 0.88 0 0 0.92 0 0 0.96 0 0 1 0 0 1.04 0 0 1.08 0 0 1.12 0 0 1.16 0 0 1.2 0 0 0 0.04 0 0.04 0.04 0 0.08 0.04 0 0.12 0.04 0 0.16 0.04 0 0.2 0.04 0 0.24 0.04 0 0.28 0.04 0 0.32 0.04 0 0.36 0.04 0 0.4 0.04 0 0.44 0.04 0 0.48 0.04 0 0.52 0.04 0 0.56 0.04 0 0.6 0.04 0 0.64 0.04 0 0.68 0.04 0 0.72 0.04 0 0.76 0.04 0 0.8 0.04 0 0.84 0.04 0 0.88 0.04 0 0.92 0.04 0 0.96 0.04 0 1 0.04 0 1.04 0.04 0 1.08 0.04 0 1.12 0.04 0 1.16 0.04 0 1.2 0.04 0 0 0.08 0 0.04 0.08 0 0.08 0.08 0 0.12 0.08 0 0.16 0.08 0 0.2 0.08 0 0.24 0.08 0 0.28 0.08 0 0.32 0.08 0 0.36 0.08 0 0.4 0.08 0 0.44 0.08 0 0.48 0.08 0 0.52 0.08 0 0.56 0.08 0 0.6 0.08 0 0.64 0.08 0 0.68 0.08 0 0.72 0.08 0 0.76 0.08 0 0.8 0.08 0 0.84 0.08 0 0.88 0.08 0 0.92 0.08 0 0.96 0.08 0 1 0.08 0 1.04 0.08 0 1.08 0.08 0 1.12 0.08 0 1.16 0.08 0 1.2 0.08 0 0 0.12 0 0.04 0.12 0 0.08 0.12 0 0.12 0.12 0 0.16 0.12 0 0.2 0.12 0 0.24 0.12 0 0.28 0.12 0 0.32 0.12 0 0.36 0.12 0 0.4 0.12 0 0.44 0.12 0 0.48 0.12 0 0.52 0.12 0 0.56 0.12 0 0.6 0.12 0 0.64 0.12 0 0.68 0.12 0 0.72 0.12 0 0.76 0.12 0 0.8 0.12 0 0.84 0.12 0 0.88 0.12 0 0.92 0.12 0 0.96 0.12 0 1 0.12 0 1.04 0.12 0 1.08 0.12 0 1.12 0.12 0 1.16 0.12 0 1.2 0.12 0 0 0.16 0 0.04 0.16 0 0.08 0.16 0 0.12 0.16 0 0.16 0.16 0 0.2 0.16 0 0.24 0.16 0 0.28 0.16 0 0.32 0.16 0 0.36 0.16 0 0.4 0.16 0 0.44 0.16 0 0.48 0.16 0 0.52 0.16 0 0.56 0.16 0 0.6 0.16 0 0.64 0.16 0 0.68 0.16 0 0.72 0.16 0 0.76 0.16 0 0.8 0.16 0 0.84 0.16 0 0.88 0.16 0 0.92 0.16 0 0.96 0.16 0 1 0.16 0 1.04 0.16 0 1.08 0.16 0 1.12 0.16 0 1.16 0.16 0 1.2 0.16 0 0 0.2 0 0.04 0.2 0 0.08 0.2 0 0.12 0.2 0 0.16 0.2 0 0.2 0.2 0 0.24 0.2 0 0.28 0.2 0 0.32 0.2 0 0.36 0.2 0 0.4 0.2 0 0.44 0.2 0 0.48 0.2 0 0.52 0.2 0 0.56 0.2 0 0.6 0.2 0 0.64 0.2 0 0.68 0.2 0 0.72 0.2 0 0.76 0.2 0 0.8 0.2 0 0.84 0.2 0 0.88 0.2 0 0.92 0.2 0 0.96 0.2 0 1 0.2 0 1.04 0.2 0 1.08 0.2 0 1.12 0.2 0 1.16 0.2 0 1.2 0.2 0 0 0.24 0 0.04 0.24 0 0.08 0.24 0 0.12 0.24 0 0.16 0.24 0 0.2 0.24 0 0.24 0.24 0 0.28 0.24 0 0.32 0.24 0 0.36 0.24 0 0.4 0.24 0 0.44 0.24 0 0.48 0.24 0 0.52 0.24 0 0.56 0.24 0 0.6 0.24 0 0.64 0.24 0 0.68 0.24 0 0.72 0.24 0 0.76 0.24 0 0.8 0.24 0 0.84 0.24 0 0.88 0.24 0 0.92 0.24 0 0.96 0.24 0 1 0.24 0 1.04 0.24 0 1.08 0.24 0 1.12 0.24 0 1.16 0.24 0 1.2 0.24 0 0 0.28 0 0.04 0.28 0 0.08 0.28 0 0.12 0.28 0 0.16 0.28 0 0.2 0.28 0 0.24 0.28 0 0.28 0.28 0 0.32 0.28 0 0.36 0.28 0 0.4 0.28 0 0.44 0.28 0 0.48 0.28 0 0.52 0.28 0 0.56 0.28 0 0.6 0.28 0 0.64 0.28 0 0.68 0.28 0 0.72 0.28 0 0.76 0.28 0 0.8 0.28 0 0.84 0.28 0 0.88 0.28 0 0.92 0.28 0 0.96 0.28 0 1 0.28 0 1.04 0.28 0 1.08 0.28 0 1.12 0.28 0 1.16 0.28 0 1.2 0.28 0 0 0.32 0 0.04 0.32 0 0.08 0.32 0 0.12 0.32 0 0.16 0.32 0 0.2 0.32 0 0.24 0.32 0 0.28 0.32 0 0.32 0.32 0 0.36 0.32 0 0.4 0.32 0 0.44 0.32 0 0.48 0.32 0 0.52 0.32 0 0.56 0.32 0 0.6 0.32 0 0.64 0.32 0 0.68 0.32 0 0.72 0.32 0 0.76 0.32 0 0.8 0.32 0 0.84 0.32 0 0.88 0.32 0 0.92 0.32 0 0.96 0.32 0 1 0.32 0 1.04 0.32 0 1.08 0.32 0 1.12 0.32 0 1.16 0.32 0 1.2 0.32 0 0 0.36 0 0.04 0.36 0 0.08 0.36 0 0.12 0.36 0 0.16 0.36 0 0.2 0.36 0 0.24 0.36 0 0.28 0.36 0 0.32 0.36 0 0.36 0.36 0 0.4 0.36 0 0.44 0.36 0 0.48 0.36 0 0.52 0.36 0 0.56 0.36 0 0.6 0.36 0 0.64 0.36 0 0.68 0.36 0 0.72 0.36 0 0.76 0.36 0 0.8 0.36 0 0.84 0.36 0 0.88 0.36 0 0.92 0.36 0 0.96 0.36 0 1 0.36 0 1.04 0.36 0 1.08 0.36 0 1.12 0.36 0 1.16 0.36 0 1.2 0.36 0 0 0.4 0 0.04 0.4 0 0.08 0.4 0 0.12 0.4 0 0.16 0.4 0 0.2 0.4 0 0.24 0.4 0 0.28 0.4 0 0.32 0.4 0 0.36 0.4 0 0.4 0.4 0 0.44 0.4 0 0.48 0.4 0 0.52 0.4 0 0.56 0.4 0 0.6 0.4 0 0.64 0.4 0 0.68 0.4 0 0.72 0.4 0 0.76 0.4 0 0.8 0.4 0 0.84 0.4 0 0.88 0.4 0 0.92 0.4 0 0.96 0.4 0 1 0.4 0 1.04 0.4 0 1.08 0.4 0 1.12 0.4 0 1.16 0.4 0 1.2 0.4 0 0 0.44 0 0.04 0.44 0 0.08 0.44 0 0.12 0.44 0 0.16 0.44 0 0.2 0.44 0 0.24 0.44 0 0.28 0.44 0 0.32 0.44 0 0.36 0.44 0 0.4 0.44 0 0.44 0.44 0 0.48 0.44 0 0.52 0.44 0 0.56 0.44 0 0.6 0.44 0 0.64 0.44 0 0.68 0.44 0 0.72 0.44 0 0.76 0.44 0 0.8 0.44 0 0.84 0.44 0 0.88 0.44 0 0.92 0.44 0 0.96 0.44 0 1 0.44 0 1.04 0.44 0 1.08 0.44 0 1.12 0.44 0 1.16 0.44 0 1.2 0.44 0 0 0.48 0 0.04 0.48 0 0.08 0.48 0 0.12 0.48 0 0.16 0.48 0 0.2 0.48 0 0.24 0.48 0 0.28 0.48 0 0.32 0.48 0 0.36 0.48 0 0.4 0.48 0 0.44 0.48 0 0.48 0.48 0 0.52 0.48 0 0.56 0.48 0 0.6 0.48 0 0.64 0.48 0 0.68 0.48 0 0.72 0.48 0 0.76 0.48 0 0.8 0.48 0 0.84 0.48 0 0.88 0.48 0 0.92 0.48 0 0.96 0.48 0 1 0.48 0 1.04 0.48 0 1.08 0.48 0 1.12 0.48 0 1.16 0.48 0 1.2 0.48 0 0 0.52 0 0.04 0.52 0 0.08 0.52 0 0.12 0.52 0 0.16 0.52 0 0.2 0.52 0 0.24 0.52 0 0.28 0.52 0 0.32 0.52 0 0.36 0.52 0 0.4 0.52 0 0.44 0.52 0 0.48 0.52 0 0.52 0.52 0 0.56 0.52 0 0.6 0.52 0 0.64 0.52 0 0.68 0.52 0 0.72 0.52 0 0.76 0.52 0 0.8 0.52 0 0.84 0.52 0 0.88 0.52 0 0.92 0.52 0 0.96 0.52 0 1 0.52 0 1.04 0.52 0 1.08 0.52 0 1.12 0.52 0 1.16 0.52 0 1.2 0.52 0 0 0.56 0 0.04 0.56 0 0.08 0.56 0 0.12 0.56 0 0.16 0.56 0 0.2 0.56 0 0.24 0.56 0 0.28 0.56 0 0.32 0.56 0 0.36 0.56 0 0.4 0.56 0 0.44 0.56 0 0.48 0.56 0 0.52 0.56 0 0.56 0.56 0 0.6 0.56 0 0.64 0.56 0 0.68 0.56 0 0.72 0.56 0 0.76 0.56 0 0.8 0.56 0 0.84 0.56 0 0.88 0.56 0 0.92 0.56 0 0.96 0.56 0 1 0.56 0 1.04 0.56 0 1.08 0.56 0 1.12 0.56 0 1.16 0.56 0 1.2 0.56 0 0 0.6 0 0.04 0.6 0 0.08 0.6 0 0.12 0.6 0 0.16 0.6 0 0.2 0.6 0 0.24 0.6 0 0.28 0.6 0 0.32 0.6 0 0.36 0.6 0 0.4 0.6 0 0.44 0.6 0 0.48 0.6 0 0.52 0.6 0 0.56 0.6 0 0.6 0.6 0 0.64 0.6 0 0.68 0.6 0 0.72 0.6 0 0.76 0.6 0 0.8 0.6 0 0.84 0.6 0 0.88 0.6 0 0.92 0.6 0 0.96 0.6 0 1 0.6 0 1.04 0.6 0 1.08 0.6 0 1.12 0.6 0 1.16 0.6 0 1.2 0.6 0 0 0.64 0 0.04 0.64 0 0.08 0.64 0 0.12 0.64 0 0.16 0.64 0 0.2 0.64 0 0.24 0.64 0 0.28 0.64 0 0.32 0.64 0 0.36 0.64 0 0.4 0.64 0 0.44 0.64 0 0.48 0.64 0 0.52 0.64 0 0.56 0.64 0 0.6 0.64 0 0.64 0.64 0 0.68 0.64 0 0.72 0.64 0 0.76 0.64 0 0.8 0.64 0 0.84 0.64 0 0.88 0.64 0 0.92 0.64 0 0.96 0.64 0 1 0.64 0 1.04 0.64 0 1.08 0.64 0 1.12 0.64 0 1.16 0.64 0 1.2 0.64 0 0 0.68 0 0.04 0.68 0 0.08 0.68 0 0.12 0.68 0 0.16 0.68 0 0.2 0.68 0 0.24 0.68 0 0.28 0.68 0 0.32 0.68 0 0.36 0.68 0 0.4 0.68 0 0.44 0.68 0 0.48 0.68 0 0.52 0.68 0 0.56 0.68 0 0.6 0.68 0 0.64 0.68 0 0.68 0.68 0 0.72 0.68 0 0.76 0.68 0 0.8 0.68 0 0.84 0.68 0 0.88 0.68 0 0.92 0.68 0 0.96 0.68 0 1 0.68 0 1.04 0.68 0 1.08 0.68 0 1.12 0.68 0 1.16 0.68 0 1.2 0.68 0 0 0.72 0 0.04 0.72 0 0.08 0.72 0 0.12 0.72 0 0.16 0.72 0 0.2 0.72 0 0.24 0.72 0 0.28 0.72 0 0.32 0.72 0 0.36 0.72 0 0.4 0.72 0 0.44 0.72 0 0.48 0.72 0 0.52 0.72 0 0.56 0.72 0 0.6 0.72 0 0.64 0.72 0 0.68 0.72 0 0.72 0.72 0 0.76 0.72 0 0.8 0.72 0 0.84 0.72 0 0.88 0.72 0 0.92 0.72 0 0.96 0.72 0 1 0.72 0 1.04 0.72 0 1.08 0.72 0 1.12 0.72 0 1.16 0.72 0 1.2 0.72 0 0 0.76 0 0.04 0.76 0 0.08 0.76 0 0.12 0.76 0 0.16 0.76 0 0.2 0.76 0 0.24 0.76 0 0.28 0.76 0 0.32 0.76 0 0.36 0.76 0 0.4 0.76 0 0.44 0.76 0 0.48 0.76 0 0.52 0.76 0 0.56 0.76 0 0.6 0.76 0 0.64 0.76 0 0.68 0.76 0 0.72 0.76 0 0.76 0.76 0 0.8 0.76 0 0.84 0.76 0 0.88 0.76 0 0.92 0.76 0 0.96 0.76 0 1 0.76 0 1.04 0.76 0 1.08 0.76 0 1.12 0.76 0 1.16 0.76 0 1.2 0.76 0 0 0.8 0 0.04 0.8 0 0.08 0.8 0 0.12 0.8 0 0.16 0.8 0 0.2 0.8 0 0.24 0.8 0 0.28 0.8 0 0.32 0.8 0 0.36 0.8 0 0.4 0.8 0 0.44 0.8 0 0.48 0.8 0 0.52 0.8 0 0.56 0.8 0 0.6 0.8 0 0.64 0.8 0 0.68 0.8 0 0.72 0.8 0 0.76 0.8 0 0.8 0.8 0 0.84 0.8 0 0.88 0.8 0 0.92 0.8 0 0.96 0.8 0 1 0.8 0 1.04 0.8 0 1.08 0.8 0 1.12 0.8 0 1.16 0.8 0 1.2 0.8 0 0 0.84 0 0.04 0.84 0 0.08 0.84 0 0.12 0.84 0 0.16 0.84 0 0.2 0.84 0 0.24 0.84 0 0.28 0.84 0 0.32 0.84 0 0.36 0.84 0 0.4 0.84 0 0.44 0.84 0 0.48 0.84 0 0.52 0.84 0 0.56 0.84 0 0.6 0.84 0 0.64 0.84 0 0.68 0.84 0 0.72 0.84 0 0.76 0.84 0 0.8 0.84 0 0.84 0.84 0 0.88 0.84 0 0.92 0.84 0 0.96 0.84 0 1 0.84 0 1.04 0.84 0 1.08 0.84 0 1.12 0.84 0 1.16 0.84 0 1.2 0.84 0 0 0.88 0 0.04 0.88 0 0.08 0.88 0 0.12 0.88 0 0.16 0.88 0 0.2 0.88 0 0.24 0.88 0 0.28 0.88 0 0.32 0.88 0 0.36 0.88 0 0.4 0.88 0 0.44 0.88 0 0.48 0.88 0 0.52 0.88 0 0.56 0.88 0 0.6 0.88 0 0.64 0.88 0 0.68 0.88 0 0.72 0.88 0 0.76 0.88 0 0.8 0.88 0 0.84 0.88 0 0.88 0.88 0 0.92 0.88 0 0.96 0.88 0 1 0.88 0 1.04 0.88 0 1.08 0.88 0 1.12 0.88 0 1.16 0.88 0 1.2 0.88 0 0 0.92 0 0.04 0.92 0 0.08 0.92 0 0.12 0.92 0 0.16 0.92 0 0.2 0.92 0 0.24 0.92 0 0.28 0.92 0 0.32 0.92 0 0.36 0.92 0 0.4 0.92 0 0.44 0.92 0 0.48 0.92 0 0.52 0.92 0 0.56 0.92 0 0.6 0.92 0 0.64 0.92 0 0.68 0.92 0 0.72 0.92 0 0.76 0.92 0 0.8 0.92 0 0.84 0.92 0 0.88 0.92 0 0.92 0.92 0 0.96 0.92 0 1 0.92 0 1.04 0.92 0 1.08 0.92 0 1.12 0.92 0 1.16 0.92 0 1.2 0.92 0 0 0.96 0 0.04 0.96 0 0.08 0.96 0 0.12 0.96 0 0.16 0.96 0 0.2 0.96 0 0.24 0.96 0 0.28 0.96 0 0.32 0.96 0 0.36 0.96 0 0.4 0.96 0 0.44 0.96 0 0.48 0.96 0 0.52 0.96 0 0.56 0.96 0 0.6 0.96 0 0.64 0.96 0 0.68 0.96 0 0.72 0.96 0 0.76 0.96 0 0.8 0.96 0 0.84 0.96 0 0.88 0.96 0 0.92 0.96 0 0.96 0.96 0 1 0.96 0 1.04 0.96 0 1.08 0.96 0 1.12 0.96 0 1.16 0.96 0 1.2 0.96 0 0 1 0 0.04 1 0 0.08 1 0 0.12 1 0 0.16 1 0 0.2 1 0 0.24 1 0 0.28 1 0 0.32 1 0 0.36 1 0 0.4 1 0 0.44 1 0 0.48 1 0 0.52 1 0 0.56 1 0 0.6 1 0 0.64 1 0 0.68 1 0 0.72 1 0 0.76 1 0 0.8 1 0 0.84 1 0 0.88 1 0 0.92 1 0 0.96 1 0 1 1 0 1.04 1 0 1.08 1 0 1.12 1 0 1.16 1 0 1.2 1 0 0 1.04 0 0.04 1.04 0 0.08 1.04 0 0.12 1.04 0 0.16 1.04 0 0.2 1.04 0 0.24 1.04 0 0.28 1.04 0 0.32 1.04 0 0.36 1.04 0 0.4 1.04 0 0.44 1.04 0 0.48 1.04 0 0.52 1.04 0 0.56 1.04 0 0.6 1.04 0 0.64 1.04 0 0.68 1.04 0 0.72 1.04 0 0.76 1.04 0 0.8 1.04 0 0.84 1.04 0 0.88 1.04 0 0.92 1.04 0 0.96 1.04 0 1 1.04 0 1.04 1.04 0 1.08 1.04 0 1.12 1.04 0 1.16 1.04 0 1.2 1.04 0 0 1.08 0 0.04 1.08 0 0.08 1.08 0 0.12 1.08 0 0.16 1.08 0 0.2 1.08 0 0.24 1.08 0 0.28 1.08 0 0.32 1.08 0 0.36 1.08 0 0.4 1.08 0 0.44 1.08 0 0.48 1.08 0 0.52 1.08 0 0.56 1.08 0 0.6 1.08 0 0.64 1.08 0 0.68 1.08 0 0.72 1.08 0 0.76 1.08 0 0.8 1.08 0 0.84 1.08 0 0.88 1.08 0 0.92 1.08 0 0.96 1.08 0 1 1.08 0 1.04 1.08 0 1.08 1.08 0 1.12 1.08 0 1.16 1.08 0 1.2 1.08 0 0 1.12 0 
[...]
			<PointData Scalars="VitesseX">
				<DataArray Name="VitesseX" type="Float32" format="ascii">
 0 0.0196398 -0.0280144 0.00273588 0.037572 0.0985225 0.134274 0.162864 0.208652 0.246664 0.284714 0.326491 0.366354 0.410097 0.506114 0.509258 0.43068 0.253509 0.0557605 0.00115112 3.28568e-07 2.59704e-11 6.93538e-16 -4.0614e-32 1.51737e-15 0 -1.51737e-15 1.51743e-15 -5.18278e-15 5.18273e-15 0 0 0.0735096 0.0779493 0.0825241 0.0906804 0.126173 0.158898 0.178316 0.218278 0.25279 0.287722 0.327759 0.365323 0.409656 0.503997 0.503694 0.422528 0.244437 0.0512208 0.000978484 2.71572e-07 2.31167e-11 5.01423e-16 1.348e-30 1.51737e-15 -1.91612e-52 -1.51737e-15 1.51742e-15 -5.17812e-15 5.17808e-15 0 0 0.0592449 0.0954323 0.128299 0.134802 0.16022 0.182472 0.198275 0.229159 0.260673 0.292742 0.332507 0.366432 0.415944 0.505166 0.495043 0.404484 0.220168 0.0395441 0.000597364 1.55719e-07 1.61823e-11 7.71575e-16 -3.58258e-22 -1.80761e-15 -1.57893e-35 1.80761e-15 7.78248e-16 -5.17666e-15 2.60586e-15 0 0 0.0396159 0.0796526 0.129716 0.149745 0.179264 0.190901 0.220716 0.242842 0.272374 0.301111 0.340284 0.369579 0.430862 0.505581 0.481239 0.37547 0.18202 0.0248861 0.00025658 6.45173e-08 8.77429e-12 -1.58512e-15 5.12533e-18 4.52013e-18 -3.61306e-20 -4.484e-18 1.44168e-17 -2.5848e-15 2.58993e-15 0 0 0.0328764 0.0712969 0.124784 0.157068 0.175021 0.202982 0.233925 0.258004 0.28501 0.313263 0.349701 0.37596 0.454814 0.499907 0.459049 0.332244 0.131998 0.0120722 7.51334e-05 2.021e-08 3.64739e-12 3.91577e-16 -2.56565e-15 2.56543e-15 5.35261e-18 -3.69129e-21 -2.57591e-15 5.12569e-18 2.57078e-15 0 0 0.0277577 0.0682962 0.120544 0.146637 0.175777 0.212297 0.239138 0.269878 0.292557 0.327946 0.355241 0.388327 0.476322 0.485896 0.423462 0.270526 0.0774073 0.00422482 1.44247e-05 4.82605e-09 1.15886e-12 6.89926e-17 -4.07923e-23 -2.57617e-15 5.38874e-18 2.57075e-15 4.08556e-17 -2.61156e-15 -4.81978e-20 0 0 0.0261147 0.0633932 0.107112 0.142977 0.178911 0.210795 0.245007 0.270871 0.300404 0.336055 0.356318 0.415285 0.480945 0.460896 0.367731 0.189131 0.0340985 0.000994976 1.7592e-06 8.31768e-10 2.73297e-13 -2.33352e-18 -6.69945e-20 -2.5767e-15 5.85524e-18 2.61168e-15 -1.49849e-14 1.4985e-14 -2.61168e-15 0 0 0.0276141 0.0599011 0.0998701 0.139397 0.174603 0.210451 0.241104 0.269846 0.309142 0.33251 0.364638 0.44754 0.464562 0.416579 0.286371 0.101421 0.0103226 0.000145474 1.50783e-07 9.8825e-11 4.60359e-14 -7.55365e-15 4.90692e-15 2.63324e-15 5.68293e-18 -1.49848e-14 -2.34753e-23 2.34753e-23 1.49849e-14 0 0 0.0269242 0.058354 0.0944749 0.131881 0.169002 0.202761 0.235372 0.274935 0.303822 0.329294 0.399106 0.448465 0.429509 0.343803 0.17869 0.0376741 0.00194372 1.1751e-05 1.17634e-08 9.10089e-12 -9.53258e-15 7.5188e-15 4.86597e-15 2.63915e-15 -2.31847e-19 -1.49848e-14 -7.67471e-18 7.64606e-18 1.49849e-14 0 0 0.0269167 0.0566639 0.0895627 0.125105 0.160851 0.197575 0.236429 0.268143 0.295958 0.354064 0.418332 0.420137 0.366551 0.236032 0.0769459 0.00878655 0.0002017 5.11597e-07 7.46927e-10 7.36572e-13 1.65029e-16 1.4983e-14 -2.61173e-15 -2.25743e-21 -5.95374e-20 2.61165e-15 -1.49925e-14 1.13293e-17 1.23551e-14 0 0 0.0269951 0.0562555 0.0878121 0.122122 0.158391 0.19521 0.22833 0.262133 0.318248 0.381608 0.396622 0.36313 0.263685 0.112479 0.0208218 0.0011126 9.64488e-06 1.88337e-08 3.17183e-11 2.73599e-14 1.73989e-14 -2.61789e-15 2.61782e-15 -2.61165e-15 -2.32138e-35 -6.36816e-18 5.22967e-15 -2.02045e-14 1.75783e-14 0 0 0.027687 0.0570728 0.0882576 0.121216 0.15532 0.190224 0.230791 0.288954 0.342432 0.363005 0.341416 0.264703 0.132263 0.0328902 0.00299961 6.33291e-05 2.19887e-07 6.37281e-10 1.26172e-12 2.1257e-15 2.64214e-15 -2.61776e-15 2.60183e-15 -2.59567e-15 -6.39236e-18 -1.81241e-17 5.24776e-15 -5.22393e-15 -1.23732e-14 0 0 0.0281835 0.0576418 0.0886898 0.122302 0.160405 0.207225 0.259739 0.30174 0.321762 0.306304 0.244356 0.132503 0.0392456 0.00498477 0.000186531 1.30481e-06 4.9942e-09 1.44587e-11 5.66522e-14 4.10802e-16 -1.49809e-14 1.49811e-14 -1.76102e-14 1.76103e-14 -6.61707e-18 -1.15673e-17 -4.58017e-14 4.58188e-14 -1.49845e-14 0 0 0.0307644 0.0639371 0.100553 0.140994 0.18353 0.224212 0.258928 0.273799 0.260445 0.207403 0.115241 0.0373709 0.00572788 0.00030338 3.64742e-06 1.81973e-08 8.48029e-11 3.37206e-13 1.56146e-14 6.28276e-20 -1.49811e-14 1.49666e-14 -1.49682e-14 -4.01007e-18 1.94356e-18 1.75958e-14 -4.84312e-14 4.84308e-14 -1.7601e-14 0 0 0.0367971 0.0742127 0.111293 0.148048 0.183096 0.209688 0.219211 0.205038 0.158186 0.0860066 0.0285858 0.0047319 0.000300355 5.06564e-06 3.45033e-08 2.42034e-10 1.25945e-12 4.95904e-15 1.23711e-14 2.61172e-15 -1.06564e-19 -2.62917e-15 -1.23563e-14 -1.19555e-18 1.73006e-18 -1.82005e-19 1.75961e-14 -1.75961e-14 -5.17823e-18 0 0 0.0369976 0.0726934 0.105474 0.133741 0.153251 0.157493 0.141699 0.102832 0.052776 0.0168728 0.00273725 0.000181603 3.61413e-06 3.43033e-08 3.40233e-10 2.42858e-12 1.84286e-14 -1.49645e-14 1.2371e-14 -1.23709e-14 1.49826e-14 -1.76002e-14 2.61476e-15 1.75968e-14 -4.85224e-19 -3.51915e-14 3.51917e-14 -3.51917e-14 3.51924e-14 0 0 0.0310744 0.0581893 0.0794184 0.0917749 0.0916293 0.0777192 0.0519304 0.0242657 0.00688679 0.000998663 6.10682e-05 1.27824e-06 1.78821e-08 2.397e-10 2.41533e-12 2.49037e-14 -2.47209e-15 2.61791e-15 -2.61178e-15 -1.23713e-14 -3.7021e-18 8.6286e-19 1.75975e-14 -1.75965e-14 -4.70207e-20 -1.82171e-19 1.75961e-14 -1.75961e-14 -5.17821e-18 0 0 0.0173955 0.0301678 0.0367466 0.0362263 0.0289708 0.0171543 0.00671824 0.00154293 0.000182378 9.23537e-06 2.11233e-07 4.85426e-09 8.29336e-11 1.26779e-12 1.29504e-14 2.75133e-15 -2.61171e-15 2.61796e-15 -1.76095e-14 2.02206e-14 -3.52072e-14 3.52072e-14 -1.76015e-14 5.40463e-18 2.1643e-20 1.75956e-14 -4.8431e-14 4.8431e-14 -1.76011e-14 0 0 0.00437404 0.00694487 0.00697053 0.00492856 0.002337 0.000697197 0.000120929 1.07276e-05 4.7611e-07 1.76433e-08 6.11291e-10 1.38742e-11 3.28552e-13 4.91728e-15 1.50008e-14 -2.61765e-15 2.61769e-15 -1.49925e-14 1.54949e-16 -3.09882e-14 3.09883e-14 -1.60214e-16 7.42958e-18 3.26339e-18 2.18991e-18 1.75956e-14 -4.84311e-14 3.08315e-14 -8.47427e-18 0 0 0.000149472 0.000183855 0.000119383 4.64943e-05 1.0858e-05 1.46617e-06 1.28624e-07 1.03445e-08 6.87228e-10 2.93461e-11 1.18745e-12 2.62244e-14 1.56146e-14 -1.75944e-14 1.75943e-14 -2.61152e-15 -1.23861e-14 1.65223e-16 4.52325e-18 -3.09979e-14 3.09943e-14 -1.66224e-16 1.10601e-17 -4.14084e-19 2.16827e-18 -1.82171e-19 1.75961e-14 -3.51956e-14 1.75874e-14 0 0 5.0572e-08 5.515e-08 3.14906e-08 1.19823e-08 3.34332e-09 6.51357e-10 8.21197e-11 7.69398e-12 6.51323e-13 5.33931e-14 1.36479e-15 5.63409e-15 -5.22302e-15 2.6114e-15 -1.75942e-14 1.75939e-14 -1.49973e-14 -3.0668e-14 3.06777e-14 -9.6602e-18 6.01594e-18 1.76026e-14 -3.51959e-14 3.51959e-14 -1.13024e-21 -3.51915e-14 3.51915e-14 -1.75953e-14 1.75958e-14 0 0 2.85476e-12 4.08252e-12 3.3289e-12 1.79565e-12 6.94237e-13 1.91664e-13 3.57363e-14 -1.02332e-14 6.17396e-16 1.21148e-14 2.64187e-15 -1.4981e-14 1.49812e-14 -1.21923e-19 -1.49826e-14 -4.45529e-18 -1.05619e-17 -3.06681e-14 3.06741e-14 -6.15118e-18 1.67904e-17 -1.70024e-17 1.71367e-16 -1.6051e-16 2.16914e-18 4.38195e-19 1.75952e-14 -1.75952e-14 1.75957e-14 0 0 1.95137e-16 1.05018e-15 -2.2939e-15 3.62658e-16 -2.59449e-17 9.48424e-17 -7.55378e-15 -7.43678e-15 1.49827e-14 -2.61762e-15 2.61768e-15 -1.4981e-14 1.49666e-14 -2.60036e-15 -1.23707e-14 -1.63376e-18 -1.05732e-17 1.60068e-16 -1.54057e-16 1.76026e-14 -3.52007e-14 1.75926e-14 1.59616e-16 -1.49457e-16 1.66245e-18 1.75967e-14 -1.75984e-14 -1.75975e-14 3.51963e-14 0 0 1.10443e-33 1.51737e-15 -5.1076e-15 2.57591e-15 -1.09458e-23 6.70238e-20 -1.01034e-14 1.01443e-14 -2.61186e-15 2.6056e-15 -2.6214e-15 -1.23551e-14 1.49682e-14 -1.75858e-14 2.61476e-15 1.75967e-14 -1.76016e-14 -7.32194e-18 1.09524e-17 -6.64585e-19 1.50259e-16 -1.60516e-16 -3.03912e-20 1.06417e-17 4.86355e-18 -1.58454e-17 1.71362e-16 -1.62764e-16 -3.08421e-14 0 0 -9.64395e-30 -1.80761e-15 3.46447e-17 -2.57621e-15 2.57617e-15 -2.5767e-15 2.59029e-15 -2.58437e-15 -2.25978e-21 2.61165e-15 -2.62746e-15 -1.23551e-14 -4.14733e-18 1.30106e-18 1.75967e-14 -1.75958e-14 -6.19297e-18 3.99765e-18 -4.14091e-19 -8.55953e-22 1.6051e-16 -1.71465e-16 1.13708e-17 -4.14088e-19 5.41839e-18 -1.69233e-17 -3.06613e-14 4.82689e-14 -4.84406e-14 0 0 -5.26566e-29 -5.1326e-15 5.17173e-15 -5.14699e-15 5.38874e-18 -5.97431e-18 5.22933e-15 -5.22342e-15 5.9534e-20 -2.68783e-33 -6.22629e-18 5.22937e-15 -3.51944e-14 3.51941e-14 -3.91159e-19 -3.51916e-14 3.51916e-14 -3.51938e-14 3.51937e-14 1.12365e-21 -3.51937e-14 3.51933e-14 -3.51901e-14 3.51905e-14 -1.82177e-19 -6.22282e-19 -9.68677e-14 9.68669e-14 1.70779e-18 0 0 -1.06412e-29 -1.80761e-15 3.46085e-17 -3.69244e-21 -2.57081e-15 2.61161e-15 -1.49849e-14 1.49849e-14 -2.61164e-15 -6.25051e-18 -1.81242e-17 5.2476e-15 -1.75967e-14 1.82021e-19 -2.42569e-37 -1.82171e-19 1.75961e-14 -1.75961e-14 1.82171e-19 5.26789e-33 4.3818e-19 1.75949e-14 -3.5201e-14 3.52009e-14 1.5629e-19 -4.84553e-14 3.40125e-16 -3.39986e-16 4.84557e-14 0 0 -3.16464e-31 7.78229e-16 -5.12728e-15 2.57604e-15 4.08019e-17 -1.49848e-14 -1.10061e-34 -7.67469e-18 1.49925e-14 -6.24682e-18 -1.18004e-17 -4.58016e-14 4.84304e-14 -1.75956e-14 6.08543e-37 1.75956e-14 -4.8431e-14 4.8431e-14 -1.75956e-14 -2.07946e-19 1.75963e-14 -1.75984e-14 1.49491e-16 -3.09833e-14 -5.74142e-18 3.03766e-16 4.14062e-17 -4.1268e-17 -2.8007e-16 0 0 -2.88201e-16 -1.32807e-15 -2.56966e-15 5.25737e-18 2.61166e-15 -1.49849e-14 5.72164e-23 -7.70338e-18 1.13978e-17 1.49812e-14 -6.22236e-19 -4.58195e-14 4.84308e-14 -1.75956e-14 2.02847e-37 1.75956e-14 -4.84311e-14 3.08315e-14 3.96274e-18 1.7596e-14 -1.7596e-14 -1.76019e-14 3.53575e-14 -4.85923e-14 -5.02296e-18 3.03904e-16 4.12682e-17 -4.13338e-17 -2.80005e-16 0 0 -3.06844e-11 -3.90785e-15 2.57716e-15 -2.57078e-15 4.82043e-20 2.61161e-15 -1.49849e-14 1.49849e-14 -1.76073e-14 1.76074e-14 -1.75978e-14 2.02091e-14 -1.76023e-14 6.41939e-18 -1.15041e-46 -6.41939e-18 1.76021e-14 -3.52086e-14 1.76129e-14 1.75957e-14 -1.75958e-14 -3.8109e-18 -3.08443e-14 4.84426e-14 5.07692e-19 -4.84545e-14 3.62607e-16 -3.62672e-16 4.84552e-14 0 0 0 0 0 0 0 0 0 0 0 0 0 0 0 0 0 0 0 0 0 0 0 0 0 0 0 0 0 0 0 0
				</DataArray>
				<DataArray Name="VitesseY" type="Float32" format="ascii">