<?xml version="1.0"?>
<VTKFile type="PolyData">
	<PolyData>
		<Piece NumberOfPoints="961" NumberOfPolys="900">
			<Points>
				<DataArray type="Float32" NumberOfComponents="3" format="ascii">
 0 0 0 0.04 0 0 0.08 0 0 0.12 0 0 0.16 0 0 0.2 0 0 0.24 0 0 0.28 0 0 0.32 0 0 0.36 0 0 0.4 0 0 0.44 0 0 0.48 0 0 0.52 0 0 0.56 0 0 0.6 0 0 0.64 0 0 0.68 0 0 0.72 0 0 0.76 0 0 0.8 0 0 0.84 0 0 0.88 0 0 0.92 0 0 0.96 0 0 1 0 0 1.04 0 0 1.08 0 0 1.12 0 0 1.16 0 0 1.2 0 0 0 0.04 0 0.04 0.04 0 0.08 0.04 0 0.12 0.04 0 0.16 0.04 0 0.2 0.04 0 0.24 0.04 0 0.28 0.04 0 0.32 0.04 0 0.36 0.04 0 0.4 0.04 0 0.44 0.04 0 0.48 0.04 0 0.52 0.04 0 0.56 0.04 0 0.6 0.04 0 0.64 0.04 0 0.68 0.04 0 0.72 0.04 0 0.76 0.04 0 0.8 0.04 0 0.84 0.04 0 0.88 0.04 0 0.92 0.04 0 0.96 0.04 0 1 0.04 0 1.04 0.04 0 1.08 0.04 0 1.12 0.04 0 1.16 0.04 0 1.2 0.04 0 0 0.08 0 0.04 0.08 0 0.08 0.08 0 0.12 0.08 0 0.16 0.08 0 0.2 0.08 0 0.24 0.08 0 0.28 0.08 0 0.32 0.08 0 0.36 0.08 0 0.4 0.08 0 0.44 0.08 0 0.48 0.08 0 0.52 0.08 0 0.56 0.08 0 0.6 0.08 0 0.64 0.08 0 0.68 0.08 0 0.72 0.08 0 0.76 0.08 0 0.8 0.08 0 0.84 0.08 0 0.88 0.08 0 0.92 0.08 0 0.96 0.08 0 1 0.08 0 1.04 0.08 0 1.08 0.08 0 1.12 0.08 0 1.16 0.08 0 1.2 0.08 0 0 0.12 0 0.04 0.12 0 0.08 0.12 0 0.12 0.12 0 0.16 0.12 0 0.2 0.12 0 0.24 0.12 0 0.28 0.12 0 0.32 0.12 0 0.36 0.12 0 0.4 0.12 0 0.44 0.12 0 0.48 0.12 0 0.52 0.12 0 0.56 0.12 0 0.6 0.12 0 0.64 0.12 0 0.68 0.12 0 0.72 0.12 0 0.76 0.12 0 0.8 0.12 0 0.84 0.12 0 0.88 0.12 0 0.92 0.12 0 0.96 0.12 0 1 0.12 0 1.04 0.12 0 1.08 0.12 0 1.12 0.12 0 1.16 0.12 0 1.2 0.12 0 0 0.16 0 0.04 0.16 0 0.08 0.16 0 0.12 0.16 0 0.16 0.16 0 0.2 0.16 0 0.24 0.16 0 0.28 0.16 0 0.32 0.16 0 0.36 0.16 0 0.4 0.16 0 0.44 0.16 0 0.48 0.16 0 0.52 0.16 0 0.56 0.16 0 0.6 0.16 0 0.64 0.16 0 0.68 0.16 0 0.72 0.16 0 0.76 0.16 0 0.8 0.16 0 0.84 0.16 0 0.88 0.16 0 0.92 0.16 0 0.96 0.16 0 1 0.16 0 1.04 0.16 0 1.08 0.16 0 1.12 0.16 0 1.16 0.16 0 1.2 0.16 0 0 0.2 0 0.04 0.2 0 0.08 0.2 0 0.12 0.2 0 0.16 0.2 0 0.2 0.2 0 0.24 0.2 0 0.28 0.2 0 0.32 0.2 0 0.36 0.2 0 0.4 0.2 0 0.44 0.2 0 0.48 0.2 0 0.52 0.2 0 0.56 0.2 0 0.6 0.2 0 0.64 0.2 0 0.68 0.2 0 0.72 0.2 0 0.76 0.2 0 0.8 0.2 0 0.84 0.2 0 0.88 0.2 0 0.92 0.2 0 0.96 0.2 0 1 0.2 0 1.04 0.2 0 1.08 0.2 0 1.12 0.2 0 1.16 0.2 0 1.2 0.2 0 0 0.24 0 0.04 0.24 0 0.08 0.24 0 0.12 0.24 0 0.16 0.24 0 0.2 0.24 0 0.24 0.24 0 0.28 0.24 0 0.32 0.24 0 0.36 0.24 0 0.4 0.24 0 0.44 0.24 0 0.48 0.24 0 0.52 0.24 0 0.56 0.24 0 0.6 0.24 0 0.64 0.24 0 0.68 0.24 0 0.72 0.24 0 0.76 0.24 0 0.8 0.24 0 0.84 0.24 0 0.88 0.24 0 0.92 0.24 0 0.96 0.24 0 1 0.24 0 1.04 0.24 0 1.08 0.24 0 1.12 0.24 0 1.16 0.24 0 1.2 0.24 0 0 0.28 0 0.04 0.28 0 0.08 0.28 0 0.12 0.28 0 0.16 0.28 0 0.2 0.28 0 0.24 0.28 0 0.28 0.28 0 0.32 0.28 0 0.36 0.28 0 0.4 0.28 0 0.44 0.28 0 0.48 0.28 0 0.52 0.28 0 0.56 0.28 0 0.6 0.28 0 0.64 0.28 0 0.68 0.28 0 0.72 0.28 0 0.76 0.28 0 0.8 0.28 0 0.84 0.28 0 0.88 0.28 0 0.92 0.28 0 0.96 0.28 0 1 0.28 0 1.04 0.28 0 1.08 0.28 0 1.12 0.28 0 1.16 0.28 0 1.2 0.28 0 0 0.32 0 0.04 0.32 0 0.08 0.32 0 0.12 0.32 0 0.16 0.32 0 0.2 0.32 0 0.24 0.32 0 0.28 0.32 0 0.32 0.32 0 0.36 0.32 0 0.4 0.32 0 0.44 0.32 0 0.48 0.32 0 0.52 0.32 0 0.56 0.32 0 0.6 0.32 0 0.64 0.32 0 0.68 0.32 0 0.72 0.32 0 0.76 0.32 0 0.8 0.32 0 0.84 0.32 0 0.88 0.32 0 0.92 0.32 0 0.96 0.32 0 1 0.32 0 1.04 0.32 0 1.08 0.32 0 1.12 0.32 0 1.16 0.32 0 1.2 0.32 0 0 0.36 0 0.04 0.36 0 0.08 0.36 0 0.12 0.36 0 0.16 0.36 0 0.2 0.36 0 0.24 0.36 0 0.28 0.36 0 0.32 0.36 0 0.36 0.36 0 0.4 0.36 0 0.44 0.36 0 0.48 0.36 0 0.52 0.36 0 0.56 0.36 0 0.6 0.36 0 0.64 0.36 0 0.68 0.36 0 0.72 0.36 0 0.76 0.36 0 0.8 0.36 0 0.84 0.36 0 0.88 0.36 0 0.92 0.36 0 0.96 0.36 0 1 0.36 0 1.04 0.36 0 1.08 0.36 0 1.12 0.36 0 1.16 0.36 0 1.2 0.36 0 0 0.4 0 0.04 0.4 0 0.08 0.4 0 0.12 0.4 0 0.16 0.4 0 0.2 0.4 0 0.24 0.4 0 0.28 0.4 0 0.32 0.4 0 0.36 0.4 0 0.4 0.4 0 0.44 0.4 0 0.48 0.4 0 0.52 0.4 0 0.56 0.4 0 0.6 0.4 0 0.64 0.4 0 0.68 0.4 0 0.72 0.4 0 0.76 0.4 0 0.8 0.4 0 0.84 0.4 0 0.88 0.4 0 0.92 0.4 0 0.96 0.4 0 1 0.4 0 1.04 0.4 0 1.08 0.4 0 1.12 0.4 0 1.16 0.4 0 1.2 0.4 0 0 0.44 0 0.04 0.44 0 0.08 0.44 0 0.12 0.44 0 0.16 0.44 0 0.2 0.44 0 0.24 0.44 0 0.28 0.44 0 0.32 0.44 0 0.36 0.44 0 0.4 0.44 0 0.44 0.44 0 0.48 0.44 0 0.52 0.44 0 0.56 0.44 0 0.6 0.44 0 0.64 0.44 0 0.68 0.44 0 0.72 0.44 0 0.76 0.44 0 0.8 0.44 0 0.84 0.44 0 0.88 0.44 0 0.92 0.44 0 0.96 0.44 0 1 0.44 0 1.04 0.44 0 1.08 0.44 0 1.12 0.44 0 1.16 0.44 0 1.2 0.44 0 0 0.48 0 0.04 0.48 0 0.08 0.48 0 0.12 0.48 0 0.16 0.48 0 0.2 0.48 0 0.24 0.48 0 0.28 0.48 0 0.32 0.48 0 0.36 0.48 0 0.4 0.48 0 0.44 0.48 0 0.48 0.48 0 0.52 0.48 0 0.56 0.48 0 0.6 0.48 0 0.64 0.48 0 0.68 0.48 0 0.72 0.48 0 0.76 0.48 0 0.8 0.48 0 0.84 0.48 0 0.88 0.48 0 0.92 0.48 0 0.96 0.48 0 1 0.48 0 1.04 0.48 0 1.08 0.48 0 1.12 0.48 0 1.16 0.48 0 1.2 0.48 0 0 0.52 0 0.04 0.52 0 0.08 0.52 0 0.12 0.52 0 0.16 0.52 0 0.2 0.52 0 0.24 0.52 0 0.28 0.52 0 0.32 0.52 0 0.36 0.52 0 0.4 0.52 0 0.44 0.52 0 0.48 0.52 0 0.52 0.52 0 0.56 0.52 0 0.6 0.52 0 0.64 0.52 0 0.68 0.52 0 0.72 0.52 0 0.76 0.52 0 0.8 0.52 0 0.84 0.52 0 0.88 0.52 0 0.92 0.52 0 0.96 0.52 0 1 0.52 0 1.04 0.52 0 1.08 0.52 0 1.12 0.52 0 1.16 0.52 0 1.2 0.52 0 0 0.56 0 0.04 0.56 0 0.08 0.56 0 0.12 0.56 0 0.16 0.56 0 0.2 0.56 0 0.24 0.56 0 0.28 0.56 0 0.32 0.56 0 0.36 0.56 0 0.4 0.56 0 0.44 0.56 0 0.48 0.56 0 0.52 0.56 0 0.56 0.56 0 0.6 0.56 0 0.64 0.56 0 0.68 0.56 0 0.72 0.56 0 0.76 0.56 0 0.8 0.56 0 0.84 0.56 0 0.88 0.56 0 0.92 0.56 0 0.96 0.56 0 1 0.56 0 1.04 0.56 0 1.08 0.56 0 1.12 0.56 0 1.16 0.56 0 1.2 0.56 0 0 0.6 0 0.04 0.6 0 0.08 0.6 0 0.12 0.6 0 0.16 0.6 0 0.2 0.6 0 0.24 0.6 0 0.28 0.6 0 0.32 0.6 0 0.36 0.6 0 0.4 0.6 0 0.44 0.6 0 0.48 0.6 0 0.52 0.6 0 0.56 0.6 0 0.6 0.6 0 0.64 0.6 0 0.68 0.6 0 0.72 0.6 0 0.76 0.6 0 0.8 0.6 0 0.84 0.6 0 0.88 0.6 0 0.92 0.6 0 0.96 0.6 0 1 0.6 0 1.04 0.6 0 1.08 0.6 0 1.12 0.6 0 1.16 0.6 0 1.2 0.6 0 0 0.64 0 0.04 0.64 0 0.08 0.64 0 0.12 0.64 0 0.16 0.64 0 0.2 0.64 0 0.24 0.64 0 0.28 0.64 0 0.32 0.64 0 0.36 0.64 0 0.4 0.64 0 0.44 0.64 0 0.48 0.64 0 0.52 0.64 0 0.56 0.64 0 0.6 0.64 0 0.64 0.64 0 0.68 0.64 0 0.72 0.64 0 0.76 0.64 0 0.8 0.64 0 0.84 0.64 0 0.88 0.64 0 0.92 0.64 0 0.96 0.64 0 1 0.64 0 1.04 0.64 0 1.08 0.64 0 1.12 0.64 0 1.16 0.64 0 1.2 0.64 0 0 0.68 0 0.04 0.68 0 0.08 0.68 0 0.12 0.68 0 0.16 0.68 0 0.2 0.68 0 0.24 0.68 0 0.28 0.68 0 0.32 0.68 0 0.36 0.68 0 0.4 0.68 0 0.44 0.68 0 0.48 0.68 0 0.52 0.68 0 0.56 0.68 0 0.6 0.68 0 0.64 0.68 0 0.68 0.68 0 0.72 0.68 0 0.76 0.68 0 0.8 0.68 0 0.84 0.68 0 0.88 0.68 0 0.92 0.68 0 0.96 0.68 0 1 0.68 0 1.04 0.68 0 1.08 0.68 0 1.12 0.68 0 1.16 0.68 0 1.2 0.68 0 0 0.72 0 0.04 0.72 0 0.08 0.72 0 0.12 0.72 0 0.16 0.72 0 0.2 0.72 0 0.24 0.72 0 0.28 0.72 0 0.32 0.72 0 0.36 0.72 0 0.4 0.72 0 0.44 0.72 0 0.48 0.72 0 0.52 0.72 0 0.56 0.72 0 0.6 0.72 0 0.64 0.72 0 0.68 0.72 0 0.72 0.72 0 0.76 0.72 0 0.8 0.72 0 0.84 0.72 0 0.88 0.72 0 0.92 0.72 0 0.96 0.72 0 1 0.72 0 1.04 0.72 0 1.08 0.72 0 1.12 0.72 0 1.16 0.72 0 1.2 0.72 0 0 0.76 0 0.04 0.76 0 0.08 0.76 0 0.12 0.76 0 0.16 0.76 0 0.2 0.76 0 0.24 0.76 0 0.28 0.76 0 0.32 0.76 0 0.36 0.76 0 0.4 0.76 0 0.44 0.76 0 0.48 0.76 0 0.52 0.76 0 0.56 0.76 0 0.6 0.76 0 0.64 0.76 0 0.68 0.76 0 0.72 0.76 0 0.76 0.76 0 0.8 0.76 0 0.84 0.76 0 0.88 0.76 0 0.92 0.76 0 0.96 0.76 0 1 0.76 0 1.04 0.76 0 1.08 0.76 0 1.12 0.76 0 1.16 0.76 0 1.2 0.76 0 0 0.8 0 0.04 0.8 0 0.08 0.8 0 0.12 0.8 0 0.16 0.8 0 0.2 0.8 0 0.24 0.8 0 0.28 0.8 0 0.32 0.8 0 0.36 0.8 0 0.4 0.8 0 0.44 0.8 0 0.48 0.8 0 0.52 0.8 0 0.56 0.8 0 0.6 0.8 0 0.64 0.8 0 0.68 0.8 0 0.72 0.8 0 0.76 0.8 0 0.8 0.8 0 0.84 0.8 0 0.88 0.8 0 0.92 0.8 0 0.96 0.8 0 1 0.8 0 1.04 0.8 0 1.08 0.8 0 1.12 0.8 0 1.16 0.8 0 1.2 0.8 0 0 0.84 0 0.04 0.84 0 0.08 0.84 0 0.12 0.84 0 0.16 0.84 0 0.2 0.84 0 0.24 0.84 0 0.28 0.84 0 0.32 0.84 0 0.36 0.84 0 0.4 0.84 0 0.44 0.84 0 0.48 0.84 0 0.52 0.84 0 0.56 0.84 0 0.6 0.84 0 0.64 0.84 0 0.68 0.84 0 0.72 0.84 0 0.76 0.84 0 0.8 0.84 0 0.84 0.84 0 0.88 0.84 0 0.92 0.84 0 0.96 0.84 0 1 0.84 0 1.04 0.84 0 1.08 0.84 0 1.12 0.84 0 1.16 0.84 0 1.2 0.84 0 0 0.88 0 0.04 0.88 0 0.08 0.88 0 0.12 0.88 0 0.16 0.88 0 0.2 0.88 0 0.24 0.88 0 0.28 0.88 0 0.32 0.88 0 0.36 0.88 0 0.4 0.88 0 0.44 0.88 0 0.48 0.88 0 0.52 0.88 0 0.56 0.88 0 0.6 0.88 0 0.64 0.88 0 0.68 0.88 0 0.72 0.88 0 0.76 0.88 0 0.8 0.88 0 0.84 0.88 0 0.88 0.88 0 0.92 0.88 0 0.96 0.88 0 1 0.88 0 1.04 0.88 0 1.08 0.88 0 1.12 0.88 0 1.16 0.88 0 1.2 0.88 0 0 0.92 0 0.04 0.92 0 0.08 0.92 0 0.12 0.92 0 0.16 0.92 0 0.2 0.92 0 0.24 0.92 0 0.28 0.92 0 0.32 0.92 0 0.36 0.92 0 0.4 0.92 0 0.44 0.92 0 0.48 0.92 0 0.52 0.92 0 0.56 0.92 0 0.6 0.92 0 0.64 0.92 0 0.68 0.92 0 0.72 0.92 0 0.76 0.92 0 0.8 0.92 0 0.84 0.92 0 0.88 0.92 0 0.92 0.92 0 0.96 0.92 0 1 0.92 0 1.04 0.92 0 1.08 0.92 0 1.12 0.92 0 1.16 0.92 0 1.2 0.92 0 0 0.96 0 0.04 0.96 0 0.08 0.96 0 0.12 0.96 0 0.16 0.96 0 0.2 0.96 0 0.24 0.96 0 0.28 0.96 0 0.32 0.96 0 0.36 0.96 0 0.4 0.96 0 0.44 0.96 0 0.48 0.96 0 0.52 0.96 0 0.56 0.96 0 0.6 0.96 0 0.64 0.96 0 0.68 0.96 0 0.72 0.96 0 0.76 0.96 0 0.8 0.96 0 0.84 0.96 0 0.88 0.96 0 0.92 0.96 0 0.96 0.96 0 1 0.96 0 1.04 0.96 0 1.08 0.96 0 1.12 0.96 0 1.16 0.96 0 1.2 0.96 0 0 1 0 0.04 1 0 0.08 1 0 0.12 1 0 0.16 1 0 0.2 1 0 0.24 1 0 0.28 1 0 0.32 1 0 0.36 1 0 0.4 1 0 0.44 1 0 0.48 1 0 0.52 1 0 0.56 1 0 0.6 1 0 0.64 1 0 0.68 1 0 0.72 1 0 0.76 1 0 0.8 1 0 0.84 1 0 0.88 1 0 0.92 1 0 0.96 1 0 1 1 0 1.04 1 0 1.08 1 0 1.12 1 0 1.16 1 0 1.2 1 0 0 1.04 0 0.04 1.04 0 0.08 1.04 0 0.12 1.04 0 0.16 1.04 0 0.2 1.04 0 0.24 1.04 0 0.28 1.04 0 0.32 1.04 0 0.36 1.04 0 0.4 1.04 0 0.44 1.04 0 0.48 1.04 0 0.52 1.04 0 0.56 1.04 0 0.6 1.04 0 0.64 1.04 0 0.68 1.04 0 0.72 1.04 0 0.76 1.04 0 0.8 1.04 0 0.84 1.04 0 0.88 1.04 0 0.92 1.04 0 0.96 1.04 0 1 1.04 0 1.04 1.04 0 1.08 1.04 0 1.12 1.04 0 1.16 1.04 0 1.2 1.04 0 0 1.08 0 0.04 1.08 0 0.08 1.08 0 0.12 1.08 0 0.16 1.08 0 0.2 1.08 0 0.24 1.08 0 0.28 1.08 0 0.32 1.08 0 0.36 1.08 0 0.4 1.08 0 0.44 1.08 0 0.48 1.08 0 0.52 1.08 0 0.56 1.08 0 0.6 1.08 0 0.64 1.08 0 0.68 1.08 0 0.72 1.08 0 0.76 1.08 0 0.8 1.08 0 0.84 1.08 0 0.88 1.08 0 0.92 1.08 0 0.96 1.08 0 1 1.08 0 1.04 1.08 0 1.08 1.08 0 1.12 1.08 0 1.16 1.08 0 1.2 1.08 0 0 1.12 0 
[...]
			<PointData Scalars="VitesseX">
				<DataArray Name="VitesseX" type="Float32" format="ascii">
 0 -0.116717 -0.171774 -0.0727721 0.249122 0.332182 0.609499 0.779628 0.986266 1.15866 1.33867 1.5208 1.70627 1.90661 2.10595 2.31177 2.77831 2.8488 2.51404 1.65834 0.511862 0.0221498 1.67855e-05 2.13703e-10 4.50624e-15 -1.12638e-31 -1.74528e-15 1.74528e-15 -5.89149e-15 5.89149e-15 0 0 0.282803 0.399302 0.41575 0.518607 0.558419 0.741315 0.875546 1.05092 1.20343 1.3675 1.53732 1.71259 1.90701 2.09878 2.3061 2.77041 2.82399 2.47834 1.61523 0.481333 0.0194838 1.3655e-05 1.86566e-10 4.23395e-15 -2.89042e-32 -1.74528e-15 1.74528e-15 -5.89149e-15 5.89149e-15 0 0 0.309651 0.544624 0.665664 0.722565 0.8047 0.876893 0.985887 1.11754 1.25082 1.39997 1.562 1.72967 1.92397 2.10349 2.32613 2.78217 2.78948 2.40289 1.50271 0.398505 0.0131801 7.33527e-06 1.22563e-10 -2.96448e-16 -1.53194e-32 2.0731e-15 8.77105e-16 -5.89595e-15 2.94574e-15 0 0 0.231293 0.466173 0.647386 0.748384 0.88088 0.948507 1.09178 1.18307 1.30992 1.44556 1.59923 1.75836 1.95217 2.11502 2.37627 2.79762 2.73906 2.28183 1.32213 0.284276 0.00671611 2.58511e-06 5.86497e-11 1.03921e-15 5.00111e-33 -4.46293e-18 4.46291e-18 -2.95021e-15 2.95021e-15 0 0 0.128032 0.3674 0.585689 0.716009 0.874936 1.00479 1.16193 1.2445 1.37764 1.50394 1.64952 1.80155 1.9897 2.13722 2.46935 2.79518 2.65766 2.10322 1.07149 0.168674 0.00249046 5.94991e-07 1.96821e-11 3.34198e-15 1.15438e-30 2.50016e-30 -2.95021e-15 1.87944e-30 2.95021e-15 0 0 0.11962 0.330212 0.52463 0.688547 0.870877 1.04734 1.17361 1.2965 1.42869 1.56769 1.70051 1.85872 2.02695 2.1766 2.58877 2.75568 2.52828 1.84755 0.761789 0.0778626 0.000638739 9.20811e-08 4.53687e-12 -2.90553e-15 -6.28961e-31 2.95021e-15 9.3332e-18 -2.95954e-15 -9.14424e-30 0 0 0.142527 0.312141 0.499852 0.693688 0.881558 1.04679 1.17835 1.31967 1.46694 1.61113 1.74044 1.91736 2.04825 2.25318 2.67181 2.67441 2.32352 1.49294 0.437531 0.0260083 0.000105396 1.09981e-08 7.44309e-13 -2.93496e-15 4.88557e-30 2.95954e-15 -1.73184e-14 1.73184e-14 -2.95954e-15 0 0 0.136421 0.302136 0.499809 0.690205 0.869711 1.03247 1.17936 1.32957 1.49205 1.62358 1.78431 1.94269 2.06338 2.40303 2.66574 2.53211 2.01253 1.03664 0.18925 0.00583977 1.01591e-05 1.17044e-09 1.03666e-13 2.9556e-15 -1.22085e-28 -1.73184e-14 -2.37457e-24 2.37457e-24 1.73184e-14 0 0 0.13373 0.295352 0.484421 0.665837 0.846614 1.01502 1.17202 1.33859 1.48484 1.63594 1.81557 1.93282 2.12944 2.5295 2.56692 2.28813 1.56683 0.553282 0.0564734 0.000806744 5.29005e-07 9.37511e-11 1.61989e-14 2.95954e-15 -1.2142e-28 -1.73184e-14 1.69368e-39 -7.77932e-40 1.73184e-14 0 0 0.133461 0.285082 0.456124 0.636001 0.818278 0.991158 1.16211 1.31806 1.47493 1.66047 1.79629 1.93925 2.30583 2.50643 2.37925 1.89611 0.984534 0.205853 0.0104763 5.895e-05 1.80473e-08 4.59742e-12 -2.27652e-15 -6.24499e-31 4.89008e-30 2.95954e-15 -1.73184e-14 -2.37456e-24 1.43589e-14 0 0 0.134968 0.281907 0.441431 0.610796 0.785938 0.96104 1.12875 1.30033 1.48605 1.63636 1.77547 2.07651 2.37325 2.35538 2.04687 1.32295 0.431453 0.0485633 0.00106922 1.89806e-06 6.7167e-10 1.69744e-13 2.96887e-15 -2.95954e-15 1.22792e-45 4.89008e-30 5.91908e-15 -2.32375e-14 2.0278e-14 0 0 0.136527 0.281332 0.433241 0.593566 0.76172 0.935352 1.11601 1.29882 1.45598 1.61118 1.88489 2.20437 2.25947 2.06467 1.51045 0.653611 0.120565 0.00627889 4.83472e-05 3.03416e-08 1.77157e-11 3.80728e-15 2.95967e-15 -2.95954e-15 -4.89008e-30 3.0384e-29 5.91909e-15 -5.91908e-15 -1.43589e-14 0 0 0.136967 0.2807 0.430535 0.588593 0.75587 0.930419 1.10443 1.26894 1.44963 1.72886 2.02134 2.11504 1.98848 1.56098 0.802169 0.201703 0.0183551 0.000368345 7.62884e-07 5.63484e-10 2.80836e-13 1.73223e-14 -2.0278e-14 2.0278e-14 7.1808e-21 1.28174e-20 -5.27948e-14 5.27948e-14 -1.73185e-14 0 0 0.139343 0.283987 0.434228 0.591139 0.753781 0.920612 1.09649 1.30744 1.59343 1.83242 1.93446 1.8454 1.50124 0.849085 0.258409 0.0336239 0.00124608 6.98649e-06 6.64546e-09 7.24534e-12 -1.20215e-14 1.73181e-14 -1.73184e-14 -8.5206e-21 -1.75291e-21 2.0278e-14 -5.57543e-14 5.57543e-14 -2.0278e-14 0 0 0.141337 0.287137 0.438226 0.596434 0.767702 0.964222 1.2029 1.44604 1.63549 1.72312 1.64898 1.35376 0.796608 0.27006 0.043646 0.00237853 2.61607e-05 4.2159e-08 7.23958e-11 7.34009e-14 -8.92989e-18 -2.95954e-15 -1.43589e-14 -8.52216e-21 -8.93371e-21 9.67269e-25 2.02781e-14 -2.02781e-14 1.74533e-20 0 0 0.149782 0.308565 0.479836 0.668101 0.870623 1.0759 1.26586 1.42329 1.4799 1.40454 1.13514 0.663789 0.235394 0.0424881 0.00289287 4.82126e-05 1.32468e-07 2.98672e-10 4.38976e-13 -1.37105e-14 1.73184e-14 -2.0278e-14 2.95954e-15 2.0278e-14 -1.4816e-20 -4.0556e-14 4.05561e-14 -4.05561e-14 4.0556e-14 0 0 0.176783 0.357416 0.538609 0.718419 0.895721 1.05892 1.17232 1.20074 1.11246 0.860986 0.480844 0.169211 0.0311877 0.00233169 4.80851e-05 1.93697e-07 5.87165e-10 1.3045e-12 3.05679e-17 -1.43585e-14 -8.5206e-21 8.5206e-21 2.0278e-14 -2.0278e-14 -1.4816e-20 -5.00353e-30 2.02781e-14 -2.02781e-14 1.74543e-20 0 0 0.180999 0.357582 0.525248 0.677921 0.804931 0.881494 0.881144 0.777777 0.559067 0.288688 0.0954735 0.0164857 0.00120549 2.59738e-05 1.31885e-07 5.85972e-10 1.89146e-12 8.85177e-15 -2.02771e-14 2.32375e-14 -4.0556e-14 4.0556e-14 -2.0278e-14 -2.64059e-21 2.11191e-20 2.0278e-14 -5.57558e-14 5.57558e-14 -2.0278e-14 0 0 0.15988 0.304338 0.426437 0.516416 0.557235 0.533148 0.436917 0.284383 0.131641 0.0377098 0.00559692 0.000355184 6.91356e-06 4.17046e-08 2.96942e-10 1.29272e-12 8.84599e-15 -1.73173e-14 3.65636e-17 -3.55092e-14 3.55092e-14 -3.65634e-17 -1.68979e-22 6.29312e-21 1.21854e-20 2.0278e-14 -5.57558e-14 3.54778e-14 -3.46869e-20 0 0 0.102337 0.182953 0.234327 0.249936 0.227651 0.171051 0.0971588 0.0370691 0.00833709 0.000969768 4.68071e-05 7.50602e-07 6.5151e-09 7.16506e-11 4.40181e-13 2.94503e-17 -1.4358e-14 3.65636e-17 2.88724e-18 -3.55121e-14 3.55092e-14 -3.65634e-17 -8.69114e-21 -8.48369e-41 -8.93371e-21 -8.73262e-30 2.02781e-14 -4.0556e-14 2.0278e-14 0 0 0.0325462 0.0543983 0.0611807 0.0525542 0.0336788 0.0148802 0.00417669 0.000681116 5.49435e-05 1.8376e-06 2.92567e-08 5.49644e-10 7.10964e-12 7.20459e-14 -1.96304e-14 2.02784e-14 -1.73184e-14 -3.54361e-14 3.5439e-14 -2.88724e-18 6.66782e-23 2.0278e-14 -4.0556e-14 4.0556e-14 -1.49628e-31 -4.0556e-14 4.05561e-14 -2.02781e-14 2.0278e-14 0 0 0.00233011 0.0032121 0.00252378 0.00128625 0.000422746 8.37402e-05 9.04349e-06 4.93098e-07 1.67411e-08 6.37061e-10 1.71409e-11 2.70172e-13 2.26323e-14 -9.06122e-18 -1.73184e-14 -8.52216e-21 8.5206e-21 -3.54361e-14 3.54361e-14 7.01858e-23 1.31405e-19 -1.31572e-19 3.6555e-17 -3.65636e-17 -8.93371e-21 9.6722e-25 2.0278e-14 -2.0278e-14 2.0278e-14 0 0 2.68729e-06 2.84079e-06 1.44982e-06 4.15524e-07 7.13767e-08 8.81824e-09 9.9181e-10 8.49207e-11 4.26656e-12 1.56135e-13 9.72319e-15 -1.73138e-14 1.7318e-14 -2.95954e-15 -1.43589e-14 -8.5206e-21 8.69114e-21 3.65634e-17 -3.65634e-17 2.0278e-14 -4.05558e-14 2.02778e-14 3.65637e-17 -3.65573e-17 1.11548e-20 2.0278e-14 -2.0278e-14 -2.0278e-14 4.0556e-14 0 0 2.69777e-11 3.68154e-11 2.70321e-11 1.19291e-11 3.22497e-12 5.68154e-13 6.67064e-14 2.07703e-14 -2.29492e-15 2.96861e-15 -2.95941e-15 -1.43589e-14 1.73184e-14 -2.0278e-14 2.95954e-15 2.0278e-14 -2.0278e-14 -1.72113e-22 -8.3527e-21 -6.40543e-23 3.65719e-17 -3.65635e-17 -1.56752e-24 6.29277e-21 2.8312e-20 -3.46032e-20 3.6546e-17 -3.65119e-17 -3.54489e-14 0 0 2.72351e-16 -1.63495e-15 3.05656e-16 -2.60692e-15 2.95652e-15 -2.92708e-15 2.9556e-15 -2.95954e-15 -1.96623e-30 2.95954e-15 -2.95954e-15 -1.43589e-14 -8.52216e-21 8.52216e-21 2.0278e-14 -2.0278e-14 3.22719e-20 -2.33382e-20 -2.65166e-24 1.48878e-31 3.65636e-17 -3.65402e-17 -2.33382e-20 -2.65166e-24 2.30395e-20 1.94564e-20 -3.54301e-14 5.57081e-14 -5.57269e-14 0 0 -1.34987e-29 -5.89149e-15 5.90041e-15 -5.90041e-15 6.28633e-31 7.11158e-30 5.91908e-15 -5.91908e-15 -4.89254e-30 -2.45584e-45 -4.88763e-30 5.91908e-15 -4.0556e-14 4.0556e-14 1.4816e-20 -4.0556e-14 4.0556e-14 -4.0556e-14 4.0556e-14 1.49189e-31 -4.0556e-14 4.0556e-14 -4.0556e-14 4.0556e-14 7.16076e-28 1.91551e-20 -1.11509e-13 1.11509e-13 -7.40304e-21 0 0 -2.73722e-30 -2.0731e-15 4.46292e-18 -5.00662e-30 -2.95021e-15 2.95954e-15 -1.73184e-14 1.73184e-14 -2.95954e-15 -4.89008e-30 3.03839e-29 5.9191e-15 -2.0278e-14 -8.79282e-30 2.21821e-44 1.20505e-29 2.02781e-14 -2.02781e-14 -2.01985e-29 -1.42784e-43 -4.40161e-29 2.0278e-14 -4.0556e-14 4.0556e-14 -4.87871e-20 -5.56944e-14 3.29673e-18 -3.29673e-18 5.56944e-14 0 0 -3.24127e-31 8.77105e-16 -5.89595e-15 2.95021e-15 9.33321e-18 -1.73184e-14 1.2375e-38 -1.87067e-38 1.73184e-14 2.43101e-28 7.97801e-21 -5.27948e-14 5.57543e-14 -2.0278e-14 -2.76444e-43 2.0278e-14 -5.57558e-14 5.57558e-14 -2.0278e-14 -3.76257e-21 2.0278e-14 -2.0278e-14 3.65631e-17 -3.55032e-14 -1.99047e-17 1.43484e-16 1.82909e-32 -9.54039e-33 -7.33903e-17 0 0 -6.7964e-16 3.71416e-16 -2.95021e-15 -1.25801e-30 2.95954e-15 -1.73184e-14 5.73026e-24 -5.73026e-24 5.73025e-24 1.73184e-14 1.7397e-20 -5.27948e-14 5.57543e-14 -2.0278e-14 -2.85772e-43 2.0278e-14 -5.57558e-14 3.54778e-14 -1.62589e-20 2.0278e-14 -2.0278e-14 -2.0278e-14 4.05926e-14 -5.57812e-14 -1.98782e-17 1.43484e-16 3.90306e-23 -3.90306e-23 -7.33903e-17 0 0 -2.63665e-13 -2.57879e-15 2.95021e-15 -2.95021e-15 9.14424e-30 2.95954e-15 -1.73184e-14 1.73184e-14 -2.0278e-14 2.0278e-14 -2.0278e-14 2.32375e-14 -2.0278e-14 -1.74505e-20 -2.93256e-50 1.74505e-20 2.0278e-14 -4.0556e-14 2.0278e-14 2.0278e-14 -2.0278e-14 1.72857e-20 -3.54488e-14 5.57268e-14 -7.40422e-21 -5.56944e-14 7.33903e-17 -7.33903e-17 5.56944e-14 0 0 0 0 0 0 0 0 0 0 0 0 0 0 0 0 0 0 0 0 0 0 0 0 0 0 0 0 0 0 0 0
				</DataArray>
				<DataArray Name="VitesseY" type="Float32" format="ascii">
 0 0 0 0 0 0 0 0 0 0 0 0 0 0 0 0 0 0 0 0 0 0 0 0 0 0 0 0 0 0 0 -0.116647 0.28279 0.309635 0.231279 0.128016 0.119612 0.142524 0.136419 0.133733 0.133467 0.134976 0.136537 0.136977 0.13935 0.141338 0.14978 0.176779 0.180994 0.159874 0.102331 0.0325436 0.00232983 2.68671e-06 2.69717e-11 2.72285e-16 -1.34987e-29 2.87653e-24 2.87653e-24 -1.76526e-24 -1.76526e-24 0 -0.171711 0.399325 0.544599 0.466158 0.367404 0.330223 0.312148 0.30214 0.295357 0.285091 0.281918 0.281345 0.280713 0.283998 0.287141 0.308562 0.357408 0.357573 0.304328 0.182944 0.0543947 0.00321175 2.84021e-06 3.68073e-11 -1.63337e-15 -5.89149e-15 -2.0731e-15 8.77105e-16 4.46292e-18 -2.94574e-15 0 -0.072724 0.415784 0.665663 0.647376 0.585687 0.524631 0.499855 0.499818 0.484434 0.456143 0.44145 0.433258 0.43055 0.43424 0.438231 0.479834 0.5386 0.525237 0.426424 0.234317 0.0611773 0.00252355 1.44955e-06 2.70265e-11 3.06641e-16 5.90041e-15 4.46292e-18 -5.89595e-15 -2.95021e-15 2.95021e-15 0 0.24914 0.518617 0.72256 0.748385 0.716011 0.688549 0.693695 0.690216 0.665855 0.636028 0.610824 0.59359 0.58861 0.591151 0.596439 0.668098 0.718411 0.67791 0.516403 0.249928 0.0525521 0.00128616 4.15461e-07 1.19268e-11 -2.60942e-15 -5.90041e-15 3.45709e-25 2.95021e-15 -1.20142e-23 -2.95021e-15 0 0.332198 0.558431 0.804692 0.88087 0.87493 0.870873 0.881559 0.869719 0.846633 0.818306 0.785968 0.761745 0.755888 0.753793 0.76771 0.870621 0.895714 0.804923 0.557226 0.227647 0.0336781 0.000422729 7.13689e-08 3.22451e-12 2.95652e-15 6.28605e-31 -2.95021e-15 9.33321e-18 2.95954e-15 -1.20142e-23 0 0.609508 0.74134 0.876908 0.948504 1.00479 1.04734 1.0468 1.03249 1.01504 0.99118 0.961065 0.935373 0.930434 0.920623 0.964225 1.0759 1.05892 0.881489 0.533144 0.171051 0.0148803 8.37394e-05 8.81773e-09 5.68093e-13 -2.92708e-15 7.11158e-30 2.95954e-15 -1.73184e-14 -1.73184e-14 2.95954e-15 0 0.779619 0.875558 0.985892 1.09177 1.16192 1.17361 1.17836 1.17937 1.17204 1.16213 1.12877 1.11602 1.10444 1.0965 1.2029 1.26586 1.17232 0.881147 0.436921 0.0971609 0.00417685 9.04379e-06 9.91798e-10 6.66884e-14 2.9556e-15 5.91908e-15 -1.73184e-14 -2.40101e-24 -1.24334e-24 -1.73184e-14 0 0.986261 1.05095 1.11755 1.18307 1.24449 1.2965 1.31968 1.32957 1.33859 1.31807 1.30035 1.29883 1.26895 1.30745 1.44604 1.4233 1.20075 0.777788 0.284391 0.0370708 0.000681165 4.93138e-07 8.49233e-11 2.07703e-14 -2.95954e-15 -5.91908e-15 1.73184e-14 -2.40101e-24 -6.39106e-24 1.73184e-14 0 1.15865 1.20346 1.25084 1.30992 1.37763 1.42869 1.46694 1.49205 1.48484 1.47493 1.48605 1.45599 1.44963 1.59343 1.6355 1.47991 1.11248 0.559082 0.131646 0.00833769 5.49495e-05 1.67429e-08 4.26687e-12 -2.29492e-15 -5.97063e-24 -4.89254e-30 -2.95954e-15 1.73184e-14 -1.24335e-24 -2.0278e-14 0 1.33867 1.36752 1.39999 1.44556 1.50394 1.56769 1.61112 1.62358 1.63594 1.66046 1.63636 1.61118 1.72886 1.83243 1.72313 1.40455 0.861003 0.288696 0.0377118 0.000969854 1.83788e-06 6.37138e-10 1.56237e-13 2.96861e-15 2.95954e-15 -1.22792e-45 -4.89008e-30 -5.5592e-24 1.73184e-14 2.0278e-14 0 1.5208 1.53734 1.56202 1.59924 1.64953 1.7005 1.74043 1.7843 1.81556 1.79628 1.77546 1.88488 2.02133 1.93446 1.64899 1.13515 0.480852 0.0954764 0.00559725 4.68125e-05 2.9261e-08 1.71435e-11 9.71807e-15 -2.95941e-15 -2.95954e-15 -4.88763e-30 3.03839e-29 7.97137e-21 1.73946e-20 -2.0278e-14 0 1.70628 1.71261 1.72969 1.75837 1.80156 1.85871 1.91735 1.94268 1.93281 1.93925 2.0765 2.20437 2.11504 1.8454 1.35376 0.663798 0.169214 0.0164863 0.000355209 7.50692e-07 5.49714e-10 2.70234e-13 -1.73138e-14 -1.43589e-14 -1.43589e-14 5.91908e-15 5.9191e-15 -5.27948e-14 -5.27948e-14 2.32375e-14 0 1.90663 1.90704 1.924 1.95219 1.98971 2.02694 2.04824 2.06337 2.12943 2.30583 2.37325 2.25948 1.98848 1.50124 0.79661 0.235396 0.0311883 0.00120553 6.91407e-06 6.51572e-09 7.11046e-12 2.26325e-14 1.7318e-14 1.73184e-14 -8.52058e-21 -4.0556e-14 -2.0278e-14 5.57543e-14 5.57543e-14 -2.0278e-14 0 2.10598 2.0988 2.10351 2.11503 2.13722 2.1766 2.25317 2.40304 2.5295 2.50643 2.35538 2.06467 1.56099 0.849086 0.27006 0.0424883 0.00233173 2.59748e-05 4.1707e-08 7.16561e-11 7.20871e-14 -8.92984e-18 -2.95954e-15 -2.0278e-14 8.51232e-21 4.0556e-14 -1.60546e-24 -2.0278e-14 -2.0278e-14 -1.74516e-20 0 2.31178 2.30611 2.32613 2.37627 2.46934 2.58876 2.6718 2.66573 2.56691 2.37924 2.04686 1.51044 0.802165 0.258407 0.0436459 0.00289288 4.80856e-05 1.3189e-07 2.96954e-10 4.40212e-13 -1.96304e-14 -1.73184e-14 -1.43589e-14 2.95954e-15 2.0278e-14 1.48176e-20 -1.60544e-24 6.55196e-24 -5.66871e-24 -1.13282e-24 0 2.7783 2.7704 2.78216 2.79761 2.79517 2.75567 2.67439 2.53209 2.28811 1.8961 1.32294 0.653602 0.2017 0.0336233 0.00237849 4.82121e-05 1.93697e-07 5.8598e-10 1.29278e-12 2.9516e-17 2.02784e-14 -8.52058e-21 -8.52345e-21 2.0278e-14 -2.0278e-14 -4.0556e-14 -1.60544e-24 2.0278e-14 2.0278e-14 1.74498e-20 0 2.84881 2.824 2.78948 2.73906 2.65765 2.52827 2.32351 2.0125 1.56681 0.984513 0.431443 0.120561 0.0183544 0.00124604 2.61597e-05 1.32464e-07 5.87158e-10 1.89147e-12 8.85124e-15 -1.4358e-14 -1.73184e-14 8.51301e-21 8.68988e-21 -2.0278e-14 3.22729e-20 4.0556e-14 2.02781e-14 -5.57558e-14 -5.57558e-14 2.0278e-14 0 2.51406 2.47836 2.4029 2.28183 2.10321 1.84755 1.49292 1.03662 0.553265 0.205845 0.0485607 0.00627852 0.00036832 6.98597e-06 4.21566e-08 2.9866e-10 1.30443e-12 8.84651e-15 -1.73173e-14 3.65636e-17 -3.54361e-14 -3.54361e-14 3.65634e-17 -1.79702e-22 -2.33366e-20 -4.0556e-14 -2.02781e-14 5.57558e-14 3.54778e-14 -4.0556e-14 0 1.65836 1.61525 1.50273 1.32214 1.07149 0.761784 0.437522 0.189243 0.0564703 0.0104755 0.00106912 4.83416e-05 7.62794e-07 6.64483e-09 7.23902e-11 4.38945e-13 3.05022e-17 -2.02771e-14 3.65636e-17 2.88724e-18 3.5439e-14 3.54361e-14 -3.65634e-17 -8.35419e-21 -6.41222e-24 4.0556e-14 -1.60546e-24 -2.0278e-14 -1.62646e-20 2.0278e-14 0 0.511884 0.481352 0.398519 0.284284 0.168676 0.0778626 0.0260078 0.00583949 0.000806682 5.89433e-05 1.89778e-06 3.03372e-08 5.63413e-10 7.24444e-12 7.33599e-14 -1.37105e-14 -1.43585e-14 2.32375e-14 -3.55092e-14 -3.55121e-14 -2.88725e-18 6.22385e-23 2.0278e-14 -6.66785e-23 -3.76055e-24 1.49189e-31 -1.60544e-24 -3.76285e-21 2.0278e-14 2.0278e-14 0 0.022152 0.0194857 0.0131812 0.00671659 0.00249059 0.000638757 0.000105396 1.01587e-05 5.2896e-07 1.80453e-08 6.71587e-10 1.7713e-11 2.80774e-13 -1.20219e-14 -9.06127e-18 1.73184e-14 -8.52345e-21 -4.0556e-14 3.55092e-14 3.55092e-14 6.02254e-23 1.31398e-19 -4.05558e-14 3.65719e-17 3.65636e-17 -4.0556e-14 -1.60547e-24 2.0278e-14 -2.0278e-14 -2.0278e-14 0 1.67889e-05 1.36577e-05 7.33664e-06 2.58554e-06 5.95073e-07 9.209e-08 1.09986e-08 1.17045e-09 9.37477e-11 4.59692e-12 1.69652e-13 3.8124e-15 1.73223e-14 1.73181e-14 -2.95954e-15 -2.0278e-14 8.5182e-21 4.0556e-14 -3.65634e-17 -3.65634e-17 2.0278e-14 -1.31579e-19 2.02778e-14 -3.65635e-17 -3.65402e-17 4.0556e-14 2.0278e-14 -2.0278e-14 -2.0278e-14 1.72787e-20 0 2.13748e-10 1.86605e-10 1.22588e-10 5.86609e-11 1.96854e-11 4.53749e-12 7.44406e-13 1.03684e-13 1.61989e-14 -2.27652e-15 2.96887e-15 2.95967e-15 -2.0278e-14 -1.73184e-14 -1.43589e-14 2.95954e-15 2.0278e-14 -2.0278e-14 -1.7882e-22 -8.69399e-21 -4.0556e-14 3.6555e-17 3.65637e-17 -9.15589e-24 -2.33366e-20 -4.0556e-14 -4.0556e-14 3.65631e-17 4.05926e-14 -3.54488e-14 0 4.50624e-15 4.23388e-15 -2.95003e-16 1.04322e-15 3.34448e-15 -2.90553e-15 -2.93496e-15 2.9556e-15 2.95954e-15 -3.63085e-24 -2.95954e-15 -2.95954e-15 2.0278e-14 -8.52345e-21 -8.52058e-21 2.0278e-14 -2.0278e-14 -2.63713e-21 6.29163e-21 -2.84777e-24 4.0556e-14 -3.65636e-17 -3.65573e-17 6.28996e-21 -6.41222e-24 4.0556e-14 4.0556e-14 -3.55032e-14 -5.57812e-14 5.57268e-14 0 -1.12634e-31 -2.88959e-32 1.01311e-24 -8.76259e-25 3.87161e-24 1.67881e-25 -3.63085e-24 -3.4731e-24 2.09058e-24 -3.63085e-24 -3.63085e-24 -4.89008e-30 7.18045e-21 -1.74931e-21 -8.9297e-21 -1.48185e-20 -1.48176e-20 2.11216e-20 1.21879e-20 -8.93532e-21 -2.50702e-24 -8.9297e-21 1.11564e-20 2.83164e-20 2.30415e-20 1.5685e-24 -4.87871e-20 -1.99047e-17 -1.98782e-17 -7.41218e-21 0 -1.74528e-15 -1.74528e-15 2.0731e-15 -4.46292e-18 3.87161e-24 2.95021e-15 2.95954e-15 -1.73184e-14 -1.73184e-14 2.95954e-15 -3.63085e-24 3.0384e-29 1.28093e-20 2.0278e-14 6.10337e-24 -4.0556e-14 -1.60547e-24 2.0278e-14 2.0278e-14 -1.60547e-24 -4.0556e-14 6.10334e-24 2.0278e-14 -3.46131e-20 1.94612e-20 1.91519e-20 -5.56944e-14 1.43484e-16 1.43484e-16 -5.56944e-14 0 1.74528e-15 1.74528e-15 8.77105e-16 4.46291e-18 -2.95021e-15 9.3332e-18 -1.73184e-14 -8.80075e-24 -6.32129e-24 -1.73184e-14 5.91908e-15 5.91909e-15 -5.27948e-14 -5.57543e-14 2.02781e-14 4.05561e-14 2.02781e-14 -5.57558e-14 -5.57558e-14 2.02781e-14 4.05561e-14 2.0278e-14 -2.0278e-14 3.6546e-17 -3.54301e-14 -1.11509e-13 3.29672e-18 6.83909e-24 3.91875e-23 7.33903e-17 0 -5.26611e-15 -5.94575e-15 -6.2629e-15 -2.95021e-15 1.87944e-30 -2.95954e-15 1.73184e-14 -2.183e-24 -6.32129e-24 -8.80074e-24 -2.32375e-14 -5.91908e-15 5.27948e-14 5.57543e-14 -2.02781e-14 -4.05561e-14 -2.02781e-14 5.57558e-14 3.54778e-14 -4.0556e-14 -2.02781e-14 -2.0278e-14 -2.0278e-14 -3.65119e-17 5.57081e-14 1.11509e-13 -3.29673e-18 6.83909e-24 -3.84035e-23 -7.33903e-17 0 5.31237e-13 2.68931e-13 3.3127e-15 2.95021e-15 2.95021e-15 1.67872e-25 -2.95954e-15 1.73184e-14 1.73184e-14 1.43589e-14 2.0278e-14 -1.43589e-14 -1.73185e-14 -2.0278e-14 1.74458e-20 4.0556e-14 1.74519e-20 -2.0278e-14 -3.4694e-20 2.0278e-14 2.0278e-14 2.0278e-14 4.0556e-14 -3.54489e-14 -5.57269e-14 -7.40304e-21 5.56944e-14 -7.33903e-17 -7.33903e-17 5.56944e-14 0 2.5082e-06 0 0 0 0 0 0 0 0 0 0 0 0 0 0 0 0 0 0 0 0 0 0 0 0 0 0 0 0 0 0
				</DataArray>
			</PointData>
			<CellData Scalars="Density">
				<DataArray Name="Density" type="Float32" format="ascii">