<?xml version="1.0"?>
<VTKFile type="PolyData">
	<PolyData>
		<Piece NumberOfPoints="961" NumberOfPolys="900">
			<Points>
				<DataArray type="Float32" NumberOfComponents="3" format="ascii">
 0 0 0 0.04 0 0 0.08 0 0 0.12 0 0 0.16 0 0 0.2 0 0 0.24 0 0 0.28 0 0 0.32 0 0 0.36 0 0 0.4 0 0 0.44 0 0 0.48 0 0 0.52 0 0 0.56 0 0 0.6 0 0 0.64 0 0 0.68 0 0 0.72 0 0 0.76 0 0 0.8 0 0 0.84 0 0 0.88 0 0 0.92 0 0 0.96 0 0 1 0 0 1.04 0 0 1.08 0 0 1.12 0 0 1.16 0 0 1.2 0 0 0 0.04 0 0.04 0.04 0 0.08 0.04 0 0.12 0.04 0 0.16 0.04 0 0.2 0.04 0 0.24 0.04 0 0.28 0.04 0 0.32 0.04 0 0.36 0.04 0 0.4 0.04 0 0.44 0.04 0 0.48 0.04 0 0.52 0.04 0 0.56 0.04 0 0.6 0.04 0 0.64 0.04 0 0.68 0.04 0 0.72 0.04 0 0.76 0.04 0 0.8 0.04 0 0.84 0.04 0 0.88 0.04 0 0.92 0.04 0 0.96 0.04 0 1 0.04 0 1.04 0.04 0 1.08 0.04 0 1.12 0.04 0 1.16 0.04 0 1.2 0.04 0 0 0.08 0 0.04 0.08 0 0.08 0.08 0 0.12 0.08 0 0.16 0.08 0 0.2 0.08 0 0.24 0.08 0 0.28 0.08 0 0.32 0.08 0 0.36 0.08 0 0.4 0.08 0 0.44 0.08 0 0.48 0.08 0 0.52 0.08 0 0.56 0.08 0 0.6 0.08 0 0.64 0.08 0 0.68 0.08 0 0.72 0.08 0 0.76 0.08 0 0.8 0.08 0 0.84 0.08 0 0.88 0.08 0 0.92 0.08 0 0.96 0.08 0 1 0.08 0 1.04 0.08 0 1.08 0.08 0 1.12 0.08 0 1.16 0.08 0 1.2 0.08 0 0 0.12 0 0.04 0.12 0 0.08 0.12 0 0.12 0.12 0 0.16 0.12 0 0.2 0.12 0 0.24 0.12 0 0.28 0.12 0 0.32 0.12 0 0.36 0.12 0 0.4 0.12 0 0.44 0.12 0 0.48 0.12 0 0.52 0.12 0 0.56 0.12 0 0.6 0.12 0 0.64 0.12 0 0.68 0.12 0 0.72 0.12 0 0.76 0.12 0 0.8 0.12 0 0.84 0.12 0 0.88 0.12 0 0.92 0.12 0 0.96 0.12 0 1 0.12 0 1.04 0.12 0 1.08 0.12 0 1.12 0.12 0 1.16 0.12 0 1.2 0.12 0 0 0.16 0 0.04 0.16 0 0.08 0.16 0 0.12 0.16 0 0.16 0.16 0 0.2 0.16 0 0.24 0.16 0 0.28 0.16 0 0.32 0.16 0 0.36 0.16 0 0.4 0.16 0 0.44 0.16 0 0.48 0.16 0 0.52 0.16 0 0.56 0.16 0 0.6 0.16 0 0.64 0.16 0 0.68 0.16 0 0.72 0.16 0 0.76 0.16 0 0.8 0.16 0 0.84 0.16 0 0.88 0.16 0 0.92 0.16 0 0.96 0.16 0 1 0.16 0 1.04 0.16 0 1.08 0.16 0 1.12 0.16 0 1.16 0.16 0 1.2 0.16 0 0 0.2 0 0.04 0.2 0 0.08 0.2 0 0.12 0.2 0 0.16 0.2 0 0.2 0.2 0 0.24 0.2 0 0.28 0.2 0 0.32 0.2 0 0.36 0.2 0 0.4 0.2 0 0.44 0.2 0 0.48 0.2 0 0.52 0.2 0 0.56 0.2 0 0.6 0.2 0 0.64 0.2 0 0.68 0.2 0 0.72 0.2 0 0.76 0.2 0 0.8 0.2 0 0.84 0.2 0 0.88 0.2 0 0.92 0.2 0 0.96 0.2 0 1 0.2 0 1.04 0.2 0 1.08 0.2 0 1.12 0.2 0 1.16 0.2 0 1.2 0.2 0 0 0.24 0 0.04 0.24 0 0.08 0.24 0 0.12 0.24 0 0.16 0.24 0 0.2 0.24 0 0.24 0.24 0 0.28 0.24 0 0.32 0.24 0 0.36 0.24 0 0.4 0.24 0 0.44 0.24 0 0.48 0.24 0 0.52 0.24 0 0.56 0.24 0 0.6 0.24 0 0.64 0.24 0 0.68 0.24 0 0.72 0.24 0 0.76 0.24 0 0.8 0.24 0 0.84 0.24 0 0.88 0.24 0 0.92 0.24 0 0.96 0.24 0 1 0.24 0 1.04 0.24 0 1.08 0.24 0 1.12 0.24 0 1.16 0.24 0 1.2 0.24 0 0 0.28 0 0.04 0.28 0 0.08 0.28 0 0.12 0.28 0 0.16 0.28 0 0.2 0.28 0 0.24 0.28 0 0.28 0.28 0 0.32 0.28 0 0.36 0.28 0 0.4 0.28 0 0.44 0.28 0 0.48 0.28 0 0.52 0.28 0 0.56 0.28 0 0.6 0.28 0 0.64 0.28 0 0.68 0.28 0 0.72 0.28 0 0.76 0.28 0 0.8 0.28 0 0.84 0.28 0 0.88 0.28 0 0.92 0.28 0 0.96 0.28 0 1 0.28 0 1.04 0.28 0 1.08 0.28 0 1.12 0.28 0 1.16 0.28 0 1.2 0.28 0 0 0.32 0 0.04 0.32 0 0.08 0.32 0 0.12 0.32 0 0.16 0.32 0 0.2 0.32 0 0.24 0.32 0 0.28 0.32 0 0.32 0.32 0 0.36 0.32 0 0.4 0.32 0 0.44 0.32 0 0.48 0.32 0 0.52 0.32 0 0.56 0.32 0 0.6 0.32 0 0.64 0.32 0 0.68 0.32 0 0.72 0.32 0 0.76 0.32 0 0.8 0.32 0 0.84 0.32 0 0.88 0.32 0 0.92 0.32 0 0.96 0.32 0 1 0.32 0 1.04 0.32 0 1.08 0.32 0 1.12 0.32 0 1.16 0.32 0 1.2 0.32 0 0 0.36 0 0.04 0.36 0 0.08 0.36 0 0.12 0.36 0 0.16 0.36 0 0.2 0.36 0 0.24 0.36 0 0.28 0.36 0 0.32 0.36 0 0.36 0.36 0 0.4 0.36 0 0.44 0.36 0 0.48 0.36 0 0.52 0.36 0 0.56 0.36 0 0.6 0.36 0 0.64 0.36 0 0.68 0.36 0 0.72 0.36 0 0.76 0.36 0 0.8 0.36 0 0.84 0.36 0 0.88 0.36 0 0.92 0.36 0 0.96 0.36 0 1 0.36 0 1.04 0.36 0 1.08 0.36 0 1.12 0.36 0 1.16 0.36 0 1.2 0.36 0 0 0.4 0 0.04 0.4 0 0.08 0.4 0 0.12 0.4 0 0.16 0.4 0 0.2 0.4 0 0.24 0.4 0 0.28 0.4 0 0.32 0.4 0 0.36 0.4 0 0.4 0.4 0 0.44 0.4 0 0.48 0.4 0 0.52 0.4 0 0.56 0.4 0 0.6 0.4 0 0.64 0.4 0 0.68 0.4 0 0.72 0.4 0 0.76 0.4 0 0.8 0.4 0 0.84 0.4 0 0.88 0.4 0 0.92 0.4 0 0.96 0.4 0 1 0.4 0 1.04 0.4 0 1.08 0.4 0 1.12 0.4 0 1.16 0.4 0 1.2 0.4 0 0 0.44 0 0.04 0.44 0 0.08 0.44 0 0.12 0.44 0 0.16 0.44 0 0.2 0.44 0 0.24 0.44 0 0.28 0.44 0 0.32 0.44 0 0.36 0.44 0 0.4 0.44 0 0.44 0.44 0 0.48 0.44 0 0.52 0.44 0 0.56 0.44 0 0.6 0.44 0 0.64 0.44 0 0.68 0.44 0 0.72 0.44 0 0.76 0.44 0 0.8 0.44 0 0.84 0.44 0 0.88 0.44 0 0.92 0.44 0 0.96 0.44 0 1 0.44 0 1.04 0.44 0 1.08 0.44 0 1.12 0.44 0 1.16 0.44 0 1.2 0.44 0 0 0.48 0 0.04 0.48 0 0.08 0.48 0 0.12 0.48 0 0.16 0.48 0 0.2 0.48 0 0.24 0.48 0 0.28 0.48 0 0.32 0.48 0 0.36 0.48 0 0.4 0.48 0 0.44 0.48 0 0.48 0.48 0 0.52 0.48 0 0.56 0.48 0 0.6 0.48 0 0.64 0.48 0 0.68 0.48 0 0.72 0.48 0 0.76 0.48 0 0.8 0.48 0 0.84 0.48 0 0.88 0.48 0 0.92 0.48 0 0.96 0.48 0 1 0.48 0 1.04 0.48 0 1.08 0.48 0 1.12 0.48 0 1.16 0.48 0 1.2 0.48 0 0 0.52 0 0.04 0.52 0 0.08 0.52 0 0.12 0.52 0 0.16 0.52 0 0.2 0.52 0 0.24 0.52 0 0.28 0.52 0 0.32 0.52 0 0.36 0.52 0 0.4 0.52 0 0.44 0.52 0 0.48 0.52 0 0.52 0.52 0 0.56 0.52 0 0.6 0.52 0 0.64 0.52 0 0.68 0.52 0 0.72 0.52 0 0.76 0.52 0 0.8 0.52 0 0.84 0.52 0 0.88 0.52 0 0.92 0.52 0 0.96 0.52 0 1 0.52 0 1.04 0.52 0 1.08 0.52 0 1.12 0.52 0 1.16 0.52 0 1.2 0.52 0 0 0.56 0 0.04 0.56 0 0.08 0.56 0 0.12 0.56 0 0.16 0.56 0 0.2 0.56 0 0.24 0.56 0 0.28 0.56 0 0.32 0.56 0 0.36 0.56 0 0.4 0.56 0 0.44 0.56 0 0.48 0.56 0 0.52 0.56 0 0.56 0.56 0 0.6 0.56 0 0.64 0.56 0 0.68 0.56 0 0.72 0.56 0 0.76 0.56 0 0.8 0.56 0 0.84 0.56 0 0.88 0.56 0 0.92 0.56 0 0.96 0.56 0 1 0.56 0 1.04 0.56 0 1.08 0.56 0 1.12 0.56 0 1.16 0.56 0 1.2 0.56 0 0 0.6 0 0.04 0.6 0 0.08 0.6 0 0.12 0.6 0 0.16 0.6 0 0.2 0.6 0 0.24 0.6 0 0.28 0.6 0 0.32 0.6 0 0.36 0.6 0 0.4 0.6 0 0.44 0.6 0 0.48 0.6 0 0.52 0.6 0 0.56 0.6 0 0.6 0.6 0 0.64 0.6 0 0.68 0.6 0 0.72 0.6 0 0.76 0.6 0 0.8 0.6 0 0.84 0.6 0 0.88 0.6 0 0.92 0.6 0 0.96 0.6 0 1 0.6 0 1.04 0.6 0 1.08 0.6 0 1.12 0.6 0 1.16 0.6 0 1.2 0.6 0 0 0.64 0 0.04 0.64 0 0.08 0.64 0 0.12 0.64 0 0.16 0.64 0 0.2 0.64 0 0.24 0.64 0 0.28 0.64 0 0.32 0.64 0 0.36 0.64 0 0.4 0.64 0 0.44 0.64 0 0.48 0.64 0 0.52 0.64 0 0.56 0.64 0 0.6 0.64 0 0.64 0.64 0 0.68 0.64 0 0.72 0.64 0 0.76 0.64 0 0.8 0.64 0 0.84 0.64 0 0.88 0.64 0 0.92 0.64 0 0.96 0.64 0 1 0.64 0 1.04 0.64 0 1.08 0.64 0 1.12 0.64 0 1.16 0.64 0 1.2 0.64 0 0 0.68 0 0.04 0.68 0 0.08 0.68 0 0.12 0.68 0 0.16 0.68 0 0.2 0.68 0 0.24 0.68 0 0.28 0.68 0 0.32 0.68 0 0.36 0.68 0 0.4 0.68 0 0.44 0.68 0 0.48 0.68 0 0.52 0.68 0 0.56 0.68 0 0.6 0.68 0 0.64 0.68 0 0.68 0.68 0 0.72 0.68 0 0.76 0.68 0 0.8 0.68 0 0.84 0.68 0 0.88 0.68 0 0.92 0.68 0 0.96 0.68 0 1 0.68 0 1.04 0.68 0 1.08 0.68 0 1.12 0.68 0 1.16 0.68 0 1.2 0.68 0 0 0.72 0 0.04 0.72 0 0.08 0.72 0 0.12 0.72 0 0.16 0.72 0 0.2 0.72 0 0.24 0.72 0 0.28 0.72 0 0.32 0.72 0 0.36 0.72 0 0.4 0.72 0 0.44 0.72 0 0.48 0.72 0 0.52 0.72 0 0.56 0.72 0 0.6 0.72 0 0.64 0.72 0 0.68 0.72 0 0.72 0.72 0 0.76 0.72 0 0.8 0.72 0 0.84 0.72 0 0.88 0.72 0 0.92 0.72 0 0.96 0.72 0 1 0.72 0 1.04 0.72 0 1.08 0.72 0 1.12 0.72 0 1.16 0.72 0 1.2 0.72 0 0 0.76 0 0.04 0.76 0 0.08 0.76 0 0.12 0.76 0 0.16 0.76 0 0.2 0.76 0 0.24 0.76 0 0.28 0.76 0 0.32 0.76 0 0.36 0.76 0 0.4 0.76 0 0.44 0.76 0 0.48 0.76 0 0.52 0.76 0 0.56 0.76 0 0.6 0.76 0 0.64 0.76 0 0.68 0.76 0 0.72 0.76 0 0.76 0.76 0 0.8 0.76 0 0.84 0.76 0 0.88 0.76 0 0.92 0.76 0 0.96 0.76 0 1 0.76 0 1.04 0.76 0 1.08 0.76 0 1.12 0.76 0 1.16 0.76 0 1.2 0.76 0 0 0.8 0 0.04 0.8 0 0.08 0.8 0 0.12 0.8 0 0.16 0.8 0 0.2 0.8 0 0.24 0.8 0 0.28 0.8 0 0.32 0.8 0 0.36 0.8 0 0.4 0.8 0 0.44 0.8 0 0.48 0.8 0 0.52 0.8 0 0.56 0.8 0 0.6 0.8 0 0.64 0.8 0 0.68 0.8 0 0.72 0.8 0 0.76 0.8 0 0.8 0.8 0 0.84 0.8 0 0.88 0.8 0 0.92 0.8 0 0.96 0.8 0 1 0.8 0 1.04 0.8 0 1.08 0.8 0 1.12 0.8 0 1.16 0.8 0 1.2 0.8 0 0 0.84 0 0.04 0.84 0 0.08 0.84 0 0.12 0.84 0 0.16 0.84 0 0.2 0.84 0 0.24 0.84 0 0.28 0.84 0 0.32 0.84 0 0.36 0.84 0 0.4 0.84 0 0.44 0.84 0 0.48 0.84 0 0.52 0.84 0 0.56 0.84 0 0.6 0.84 0 0.64 0.84 0 0.68 0.84 0 0.72 0.84 0 0.76 0.84 0 0.8 0.84 0 0.84 0.84 0 0.88 0.84 0 0.92 0.84 0 0.96 0.84 0 1 0.84 0 1.04 0.84 0 1.08 0.84 0 1.12 0.84 0 1.16 0.84 0 1.2 0.84 0 0 0.88 0 0.04 0.88 0 0.08 0.88 0 0.12 0.88 0 0.16 0.88 0 0.2 0.88 0 0.24 0.88 0 0.28 0.88 0 0.32 0.88 0 0.36 0.88 0 0.4 0.88 0 0.44 0.88 0 0.48 0.88 0 0.52 0.88 0 0.56 0.88 0 0.6 0.88 0 0.64 0.88 0 0.68 0.88 0 0.72 0.88 0 0.76 0.88 0 0.8 0.88 0 0.84 0.88 0 0.88 0.88 0 0.92 0.88 0 0.96 0.88 0 1 0.88 0 1.04 0.88 0 1.08 0.88 0 1.12 0.88 0 1.16 0.88 0 1.2 0.88 0 0 0.92 0 0.04 0.92 0 0.08 0.92 0 0.12 0.92 0 0.16 0.92 0 0.2 0.92 0 0.24 0.92 0 0.28 0.92 0 0.32 0.92 0 0.36 0.92 0 0.4 0.92 0 0.44 0.92 0 0.48 0.92 0 0.52 0.92 0 0.56 0.92 0 0.6 0.92 0 0.64 0.92 0 0.68 0.92 0 0.72 0.92 0 0.76 0.92 0 0.8 0.92 0 0.84 0.92 0 0.88 0.92 0 0.92 0.92 0 0.96 0.92 0 1 0.92 0 1.04 0.92 0 1.08 0.92 0 1.12 0.92 0 1.16 0.92 0 1.2 0.92 0 0 0.96 0 0.04 0.96 0 0.08 0.96 0 0.12 0.96 0 0.16 0.96 0 0.2 0.96 0 0.24 0.96 0 0.28 0.96 0 0.32 0.96 0 0.36 0.96 0 0.4 0.96 0 0.44 0.96 0 0.48 0.96 0 0.52 0.96 0 0.56 0.96 0 0.6 0.96 0 0.64 0.96 0 0.68 0.96 0 0.72 0.96 0 0.76 0.96 0 0.8 0.96 0 0.84 0.96 0 0.88 0.96 0 0.92 0.96 0 0.96 0.96 0 1 0.96 0 1.04 0.96 0 1.08 0.96 0 1.12 0.96 0 1.16 0.96 0 1.2 0.96 0 0 1 0 0.04 1 0 0.08 1 0 0.12 1 0 0.16 1 0 0.2 1 0 0.24 1 0 0.28 1 0 0.32 1 0 0.36 1 0 0.4 1 0 0.44 1 0 0.48 1 0 0.52 1 0 0.56 1 0 0.6 1 0 0.64 1 0 0.68 1 0 0.72 1 0 0.76 1 0 0.8 1 0 0.84 1 0 0.88 1 0 0.92 1 0 0.96 1 0 1 1 0 1.04 1 0 1.08 1 0 1.12 1 0 1.16 1 0 1.2 1 0 0 1.04 0 0.04 1.04 0 0.08 1.04 0 0.12 1.04 0 0.16 1.04 0 0.2 1.04 0 0.24 1.04 0 0.28 1.04 0 0.32 1.04 0 0.36 1.04 0 0.4 1.04 0 0.44 1.04 0 0.48 1.04 0 0.52 1.04 0 0.56 1.04 0 0.6 1.04 0 0.64 1.04 0 0.68 1.04 0 0.72 1.04 0 0.76 1.04 0 0.8 1.04 0 0.84 1.04 0 0.88 1.04 0 0.92 1.04 0 0.96 1.04 0 1 1.04 0 1.04 1.04 0 1.08 1.04 0 1.12 1.04 0 1.16 1.04 0 1.2 1.04 0 0 1.08 0 0.04 1.08 0 0.08 1.08 0 0.12 1.08 0 0.16 1.08 0 0.2 1.08 0 0.24 1.08 0 0.28 1.08 0 0.32 1.08 0 0.36 1.08 0 0.4 1.08 0 0.44 1.08 0 0.48 1.08 0 0.52 1.08 0 0.56 1.08 0 0.6 1.08 0 0.64 1.08 0 0.68 1.08 0 0.72 1.08 0 0.76 1.08 0 0.8 1.08 0 0.84 1.08 0 0.88 1.08 0 0.92 1.08 0 0.96 1.08 0 1 1.08 0 1.04 1.08 0 1.08 1.08 0 1.12 1.08 0 1.16 1.08 0 1.2 1.08 0 0 1.12 0 
[...]
			<PointData Scalars="VitesseX">
				<DataArray Name="VitesseX" type="Float32" format="ascii">
 0 -0.0273693 -0.100491 -0.104925 -0.101517 -0.0583396 0.00723182 0.0815025 0.155016 0.221278 0.280946 0.334048 0.381695 0.424229 0.46246 0.496905 0.527861 0.553458 0.55812 0.502372 0.386824 0.182161 -0.122006 -0.46586 -0.740741 -0.888191 -0.906978 -0.766899 -0.531294 -0.253318 0 0 0.103664 0.0841947 0.051633 0.0338449 0.0542148 0.100563 0.15566 0.211673 0.266599 0.318538 0.365773 0.408038 0.446037 0.480285 0.511246 0.539273 0.56258 0.566234 0.510785 0.396236 0.194373 -0.105988 -0.448584 -0.725549 -0.876382 -0.899563 -0.764609 -0.531704 -0.254163 0 0 0.0994618 0.172141 0.200761 0.207117 0.210783 0.221108 0.248963 0.280369 0.315099 0.351222 0.387662 0.423347 0.456117 0.486418 0.514913 0.5417 0.564913 0.571601 0.522519 0.415511 0.225363 -0.0617648 -0.399643 -0.682471 -0.843163 -0.878423 -0.757593 -0.531333 -0.255531 0 0 0.0844609 0.156187 0.197744 0.222408 0.240332 0.249321 0.273947 0.299396 0.330612 0.361722 0.392555 0.4232 0.453599 0.483275 0.51184 0.539146 0.563573 0.57526 0.537969 0.443193 0.271882 0.00593171 -0.323091 -0.615242 -0.792615 -0.845804 -0.747276 -0.531279 -0.258124 0 0 0.0508307 0.113555 0.169314 0.203325 0.233727 0.247374 0.27176 0.295272 0.326219 0.356894 0.388245 0.419694 0.44985 0.479115 0.507641 0.535419 0.561238 0.578215 0.556453 0.476895 0.329325 0.0909742 -0.222677 -0.525129 -0.725761 -0.801042 -0.73243 -0.531007 -0.261602 0 0 0.0179569 0.0606161 0.122807 0.168463 0.209849 0.233703 0.260966 0.285017 0.316485 0.347873 0.380138 0.41267 0.444034 0.474021 0.503041 0.531412 0.558454 0.579967 0.57508 0.51352 0.392507 0.186672 -0.103126 -0.412104 -0.640375 -0.742341 -0.709872 -0.529007 -0.265776 0 0 0.00157067 0.025807 0.0755095 0.123707 0.171472 0.20681 0.240031 0.267224 0.300532 0.333573 0.36746 0.401781 0.435127 0.466901 0.49718 0.526613 0.555026 0.580137 0.590136 0.550685 0.456587 0.286524 0.0292032 -0.276784 -0.532664 -0.668145 -0.674821 -0.523276 -0.270081 0 0 -0.000736972 0.0190707 0.0566815 0.0958434 0.135642 0.173297 0.210012 0.241367 0.277343 0.313315 0.350003 0.386998 0.422875 0.456981 0.48931 0.520443 0.550653 0.578859 0.599255 0.58543 0.517112 0.384287 0.165956 -0.122843 -0.400982 -0.575169 -0.621959 -0.510547 -0.273445 0 0 0.00207905 0.0215541 0.0552939 0.0907308 0.126102 0.159934 0.193316 0.223647 0.258039 0.29322 0.330149 0.368382 0.407105 0.444483 0.479533 0.51304 0.545386 0.576389 0.603397 0.612798 0.57159 0.474498 0.298562 0.041362 -0.245675 -0.45987 -0.546672 -0.485503 -0.273813 0 0 0.00654034 0.0264583 0.0581913 0.0925166 0.126765 0.159633 0.190848 0.219743 0.251461 0.28441 0.31907 0.355414 0.39317 0.431652 0.469266 0.505308 0.540126 0.573728 0.605082 0.628773 0.6182 0.553117 0.420772 0.204118 -0.0716195 -0.319323 -0.448437 -0.441189 -0.267438 0 0 0.0118507 0.0334622 0.0645306 0.0979925 0.131187 0.162977 0.193009 0.221293 0.251504 0.28323 0.31636 0.350967 0.387298 0.425012 0.463054 0.500335 0.53668 0.571998 0.605992 0.636366 0.651688 0.618481 0.52701 0.355753 0.108771 -0.154926 -0.330614 -0.373078 -0.248662 0 0 0.0174555 0.0416057 0.0728413 0.106594 0.139249 0.170708 0.199937 0.227456 0.255855 0.286178 0.318059 0.351512 0.386788 0.423707 0.461345 0.498768 0.535615 0.571774 0.607047 0.640852 0.669035 0.669564 0.613675 0.489511 0.28101 0.0230039 -0.194257 -0.283443 -0.212928 0 0 0.0224777 0.0502225 0.0826443 0.116812 0.150157 0.181997 0.211555 0.238805 0.26589 0.294556 0.324645 0.356236 0.389833 0.425456 0.462367 0.499547 0.536505 0.573034 0.609078 0.6444 0.677456 0.700831 0.681249 0.599889 0.436523 0.199259 -0.0426879 -0.179971 -0.163203 0 0 0.0267897 0.0580585 0.0922419 0.127299 0.162144 0.195461 0.226477 0.254521 0.28092 0.308163 0.336547 0.366214 0.397723 0.431371 0.466813 0.503181 0.53981 0.576338 0.612523 0.648263 0.683218 0.71479 0.728801 0.684868 0.569126 0.363586 0.114979 -0.070039 -0.10306 0 0 0.0306054 0.0646671 0.100417 0.136384 0.172227 0.207155 0.240218 0.270727 0.298514 0.325168 0.352291 0.380305 0.40982 0.441369 0.474952 0.509931 0.545579 0.58148 0.617322 0.652901 0.688246 0.722609 0.752349 0.747715 0.674522 0.511112 0.269327 0.0454246 -0.0347827 0 0 0.0337768 0.0700599 0.107058 0.143849 0.180301 0.216031 0.25034 0.282512 0.312182 0.340079 0.367517 0.395264 0.423797 0.453754 0.485513 0.518807 0.553099 0.587974 0.623091 0.658244 0.693345 0.728414 0.762031 0.786304 0.753022 0.636846 0.417499 0.166985 0.0375027 0 0 0.0361559 0.0739965 0.112002 0.149362 0.186244 0.222378 0.257358 0.290565 0.321533 0.35057 0.378782 0.406863 0.435319 0.464706 0.495508 0.527726 0.560956 0.594857 0.62921 0.66378 0.698498 0.733425 0.768262 0.801781 0.808993 0.736122 0.555857 0.295508 0.115263 0 0 0.0376572 0.076567 0.115072 0.152986 0.189985 0.226381 0.261602 0.29538 0.327213 0.357298 0.386359 0.415045 0.443751 0.472972 0.503293 0.534856 0.567412 0.600719 0.634526 0.668697 0.703205 0.737956 0.773209 0.808659 0.839357 0.810438 0.678336 0.428512 0.203253 0 0 0.0387646 0.078255 0.117449 0.155351 0.192542 0.228616 0.263845 0.297662 0.329963 0.360787 0.390678 0.420029 0.449194 0.478686 0.508964 0.540255 0.572484 0.605417 0.638909 0.672906 0.707242 0.742074 0.77765 0.81366 0.850852 0.862808 0.776811 0.5624 0.30233 0 0 0.0406409 0.0822118 0.122351 0.161331 0.197643 0.232878 0.266836 0.299692 0.331365 0.362204 0.392438 0.422296 0.452045 0.482036 0.512573 0.543916 0.57606 0.6089 0.642365 0.676272 0.710698 0.745874 0.781452 0.818157 0.858061 0.887079 0.853714 0.693782 0.411238 0 0 0.0442101 0.0883754 0.132259 0.172915 0.211368 0.246203 0.278377 0.306927 0.335096 0.364063 0.393351 0.422999 0.452997 0.483426 0.514408 0.546041 0.578375 0.61136 0.644859 0.678934 0.713768 0.749029 0.785043 0.823617 0.862234 0.895067 0.917526 0.807616 0.5224 0 0 0.0479952 0.0974551 0.14446 0.190931 0.232479 0.269991 0.30151 0.327591 0.350777 0.37242 0.396303 0.423918 0.453241 0.483664 0.514913 0.546929 0.579597 0.612816 0.646642 0.681195 0.716198 0.751865 0.789746 0.828198 0.86448 0.913001 0.959882 0.882423 0.615911 0 0 0.0523693 0.10437 0.159535 0.210985 0.26065 0.302629 0.336985 0.362914 0.382061 0.396839 0.412123 0.429926 0.454575 0.48373 0.51483 0.547044 0.580064 0.613729 0.648069 0.682869 0.718357 0.755819 0.794201 0.830247 0.872826 0.949341 0.971064 0.903436 0.668702 0 0 0.0501101 0.106432 0.164295 0.228749 0.289184 0.342883 0.384038 0.412503 0.429612 0.43941 0.44623 0.45362 0.467055 0.486745 0.515038 0.546791 0.580153 0.614346 0.649028 0.684466 0.721743 0.759845 0.795975 0.836948 0.906138 0.960304 0.952982 0.869015 0.645443 0 0 0.0403512 0.0872775 0.151848 0.223966 0.301743 0.372897 0.430249 0.468738 0.489231 0.496916 0.497632 0.496993 0.498793 0.506901 0.523944 0.549133 0.580799 0.614767 0.650181 0.687438 0.725137 0.761388 0.80246 0.868582 0.926782 0.935335 0.889807 0.750595 0.481458 0 0 0.0118518 0.0465452 0.104859 0.190379 0.282331 0.369608 0.443878 0.500778 0.537319 0.553926 0.556526 0.552533 0.547807 0.546884 0.551553 0.565729 0.587611 0.617613 0.6533 0.690287 0.726581 0.768988 0.83465 0.890795 0.904427 0.869848 0.756558 0.523706 0.216589 0 0 -0.0368712 -0.0303982 0.0495351 0.149434 0.249772 0.339741 0.4169 0.482671 0.535698 0.572356 0.591797 0.598291 0.598018 0.595833 0.5959 0.601449 0.613273 0.634598 0.660829 0.693367 0.737585 0.802991 0.854139 0.868871 0.838877 0.737825 0.527023 0.234165 0.0548403 0 0 -0.102922 -0.0707725 0.0274766 0.124158 0.214866 0.294823 0.366945 0.431996 0.487376 0.530174 0.564729 0.591294 0.61044 0.62417 0.635731 0.64555 0.65532 0.667984 0.685689 0.717387 0.771853 0.820065 0.832027 0.802447 0.706168 0.50918 0.235342 0.0597202 0.00645506 0 0 -0.131835 -0.059491 0.0286682 0.107431 0.182664 0.245123 0.303256 0.360464 0.416054 0.465236 0.505151 0.534763 0.558704 0.584908 0.614361 0.644331 0.673648 0.703224 0.73571 0.775129 0.808265 0.811309 0.777848 0.675911 0.478936 0.221064 0.0585474 0.00693404 0.00028185 0 0 -0.101697 -0.0070705 0.011035 0.083398 0.132807 0.178741 0.226207 0.277926 0.336441 0.401702 0.465216 0.520345 0.571909 0.620167 0.661687 0.704424 0.747655 0.792022 0.837918 0.875553 0.882595 0.84502 0.713087 0.474576 0.204923 0.0526329 0.00633626 0.000280916 2.90193e-06 0 0 0 0 0 0 0 0 0 0 0 0 0 0 0 0 0 0 0 0 0 0 0 0 0 0 0 0 0 0 0 0
				</DataArray>
				<DataArray Name="VitesseY" type="Float32" format="ascii">
 0 0 0 0 0 0 0 0 0 0 0 0 0 0 0 0 0 0 0 0 0 0 0 0 0 0 0 0 0 0 0 -0.0273139 0.103676 0.0994538 0.0844474 0.0508154 0.0179482 0.00156703 -0.000741399 0.00207527 0.00653689 0.0118468 0.0174523 0.0224745 0.0267887 0.0306021 0.0337835 0.0361645 0.0378455 0.0400192 0.0445548 0.052226 0.063479 0.0775586 0.0881392 0.088345 0.080312 0.0664118 0.0501693 0.0362278 0.022934 0 -0.100426 0.0842297 0.172144 0.15618 0.11354 0.0606019 0.0257989 0.0190662 0.02155 0.0264546 0.0334586 0.0416008 0.0502186 0.0580526 0.0646685 0.070054 0.0740537 0.0768335 0.0805024 0.0888806 0.10321 0.124055 0.150471 0.171534 0.17332 0.158447 0.132597 0.102063 0.0752327 0.0481879 0 -0.104886 0.0516663 0.200751 0.197732 0.169299 0.12279 0.0754989 0.0566759 0.0552896 0.0581871 0.0645259 0.072837 0.082637 0.0922384 0.100409 0.107073 0.112032 0.115494 0.119788 0.130847 0.15025 0.178345 0.21455 0.246155 0.252128 0.23274 0.197979 0.155449 0.117101 0.0772699 0 -0.101492 0.0338682 0.207124 0.222404 0.20332 0.168454 0.123697 0.0958375 0.0907262 0.0925122 0.0979884 0.106588 0.116806 0.127289 0.136385 0.143844 0.149446 0.153317 0.157722 0.169827 0.191995 0.224657 0.267734 0.309519 0.323413 0.30318 0.262821 0.210439 0.161634 0.109489 0 -0.0583285 0.0542286 0.210785 0.240326 0.23372 0.209843 0.171466 0.135639 0.126096 0.126759 0.13118 0.139242 0.150148 0.162139 0.17222 0.180319 0.186288 0.190343 0.19432 0.205534 0.228133 0.26274 0.309504 0.359878 0.385517 0.369869 0.327004 0.266994 0.208533 0.14486 0 0.00724051 0.100569 0.22111 0.249322 0.247374 0.233701 0.206807 0.173294 0.15993 0.159627 0.16297 0.170699 0.181989 0.195452 0.207155 0.216035 0.222443 0.22661 0.2299 0.238073 0.25895 0.293296 0.340641 0.396533 0.436188 0.431004 0.389098 0.324861 0.257678 0.184064 0 0.0815064 0.155661 0.248961 0.273946 0.271759 0.260967 0.240032 0.210011 0.193312 0.190841 0.193001 0.199928 0.211544 0.226468 0.240213 0.250351 0.257395 0.261787 0.264562 0.269681 0.28658 0.317638 0.36272 0.420315 0.47293 0.483887 0.447056 0.383117 0.309261 0.228196 0 0.155014 0.211674 0.280367 0.299395 0.295271 0.285017 0.267226 0.241369 0.223645 0.219737 0.221286 0.227447 0.238796 0.25451 0.270722 0.282516 0.290596 0.295484 0.298068 0.301184 0.312004 0.33746 0.378385 0.43417 0.494268 0.52485 0.500185 0.440453 0.363221 0.278626 0 0.221271 0.266596 0.315098 0.33061 0.326219 0.316486 0.300534 0.277346 0.258038 0.251457 0.251499 0.255848 0.265882 0.280911 0.298507 0.312184 0.321549 0.327273 0.330156 0.332044 0.337022 0.355542 0.390352 0.441126 0.502916 0.550332 0.545011 0.491613 0.417334 0.336702 0 0.280934 0.318532 0.351223 0.361719 0.356892 0.347872 0.333574 0.313317 0.293221 0.284408 0.283227 0.286174 0.29455 0.308157 0.325162 0.340078 0.350577 0.357326 0.360871 0.362473 0.364814 0.374595 0.400741 0.444856 0.503432 0.560282 0.576924 0.532219 0.46585 0.401798 0 0.334032 0.365765 0.387663 0.392552 0.388241 0.380135 0.367459 0.350005 0.330151 0.31907 0.316359 0.318057 0.324642 0.336542 0.352286 0.367515 0.378783 0.386369 0.39071 0.392529 0.393596 0.396874 0.413452 0.448451 0.50044 0.559279 0.593856 0.565697 0.505427 0.465258 0 0.381674 0.408029 0.423347 0.423198 0.419691 0.412667 0.401781 0.386999 0.368387 0.355418 0.350969 0.351513 0.356236 0.366212 0.380302 0.395261 0.406862 0.415047 0.420038 0.422321 0.423063 0.42406 0.43031 0.454315 0.497936 0.553632 0.599123 0.591711 0.534876 0.520361 0 0.42421 0.446029 0.456119 0.4536 0.449849 0.444034 0.435127 0.422878 0.407111 0.393177 0.387303 0.386792 0.389836 0.397723 0.409818 0.423794 0.435317 0.44375 0.449194 0.452048 0.453006 0.453265 0.454627 0.467198 0.49905 0.548112 0.598326 0.610599 0.558746 0.571914 0 0.462452 0.480297 0.486432 0.483292 0.479131 0.474032 0.466912 0.456989 0.444495 0.431663 0.42502 0.423713 0.425461 0.431374 0.44137 0.453752 0.464703 0.472969 0.478683 0.482033 0.483423 0.483662 0.483732 0.486758 0.506937 0.546955 0.595904 0.624222 0.58492 0.620168 0 0.496989 0.511332 0.515009 0.511927 0.507717 0.503106 0.497223 0.489344 0.479555 0.469284 0.463066 0.461354 0.462374 0.466817 0.474953 0.485511 0.495506 0.50329 0.508961 0.51257 0.514404 0.514909 0.514826 0.515034 0.523944 0.55156 0.595911 0.635744 0.614363 0.661687 0 0.528368 0.539808 0.542183 0.539577 0.535772 0.531666 0.526796 0.52055 0.513107 0.505345 0.500357 0.49878 0.499555 0.503186 0.509933 0.518807 0.527725 0.534853 0.540252 0.543913 0.546037 0.546926 0.54704 0.546788 0.549131 0.565727 0.601448 0.645553 0.64433 0.704423 0 0.556604 0.565573 0.567614 0.565766 0.562869 0.559582 0.555709 0.551055 0.545587 0.540228 0.536724 0.535635 0.536515 0.539816 0.545581 0.553099 0.560954 0.567409 0.572481 0.576056 0.578372 0.579594 0.580061 0.580151 0.580798 0.58761 0.613273 0.655321 0.673648 0.747654 0 0.576452 0.583801 0.586474 0.586662 0.586036 0.584722 0.582883 0.580259 0.577062 0.574011 0.57211 0.571813 0.573049 0.576343 0.581482 0.587974 0.594856 0.600716 0.605414 0.608897 0.611356 0.612813 0.613727 0.614343 0.614765 0.617612 0.634598 0.667984 0.703225 0.792022 0 0.559274 0.565654 0.57216 0.579066 0.58716 0.594949 0.600612 0.604176 0.605516 0.605931 0.606286 0.607134 0.6091 0.612529 0.617323 0.623091 0.629208 0.634524 0.638906 0.642361 0.644856 0.646639 0.648067 0.649026 0.650179 0.653299 0.660829 0.685689 0.73571 0.837919 0 0.482341 0.488753 0.498156 0.511876 0.529948 0.551685 0.57641 0.600397 0.619658 0.631069 0.63714 0.641073 0.644447 0.648269 0.652901 0.658243 0.663779 0.668694 0.672903 0.676269 0.678931 0.681193 0.682867 0.684464 0.687436 0.690286 0.693368 0.717387 0.77513 0.875555 0 0.341574 0.346974 0.361417 0.383608 0.413873 0.451701 0.494082 0.539145 0.583692 0.624245 0.653818 0.669523 0.677574 0.683237 0.688247 0.693344 0.698496 0.703202 0.707239 0.710695 0.713765 0.716196 0.718355 0.721741 0.725136 0.726581 0.737586 0.771853 0.808267 0.882598 0 0.113851 0.120968 0.138052 0.168513 0.212787 0.269963 0.338953 0.414106 0.490273 0.560598 0.621824 0.670899 0.701153 0.714836 0.722615 0.728413 0.733423 0.737954 0.742071 0.745871 0.749026 0.751863 0.755817 0.759844 0.761388 0.768988 0.802992 0.820067 0.811311 0.845024 0 -0.182073 -0.17864 -0.161112 -0.129849 -0.0788521 -0.00434849 0.0903823 0.200405 0.316506 0.429417 0.530747 0.615114 0.681766 0.728941 0.752367 0.762032 0.768261 0.773206 0.777648 0.781449 0.785041 0.789744 0.7942 0.795975 0.80246 0.834651 0.85414 0.83203 0.777852 0.713092 0 -0.468517 -0.467288 -0.459175 -0.438848 -0.396898 -0.326701 -0.223759 -0.0928418 0.0569422 0.211934 0.359254 0.49092 0.600403 0.685029 0.747757 0.78631 0.801779 0.808657 0.813657 0.818154 0.823615 0.828197 0.830247 0.836949 0.868583 0.890798 0.868873 0.80245 0.675915 0.474581 0 -0.650626 -0.656628 -0.6612 -0.659933 -0.638617 -0.58773 -0.502944 -0.384819 -0.237205 -0.0672943 0.110901 0.281979 0.436911 0.569271 0.674565 0.753032 0.808994 0.839355 0.85085 0.858059 0.862233 0.86448 0.872826 0.906139 0.926784 0.904429 0.838879 0.706171 0.478939 0.204925 0 -0.705871 -0.708664 -0.73764 -0.757429 -0.753697 -0.721765 -0.660302 -0.572299 -0.458873 -0.318873 -0.154544 0.0232696 0.199406 0.36366 0.511146 0.636858 0.736126 0.810439 0.862809 0.887078 0.895066 0.913002 0.949343 0.960305 0.935336 0.869849 0.737827 0.509182 0.221066 0.0526337 0 -0.606777 -0.628735 -0.689559 -0.709555 -0.718475 -0.708405 -0.677527 -0.625288 -0.54916 -0.449728 -0.331102 -0.194401 -0.0427191 0.114984 0.269339 0.41751 0.555864 0.67834 0.776813 0.853716 0.917528 0.959885 0.971066 0.952984 0.889808 0.756559 0.527024 0.235343 0.0585478 0.00633634 0 -0.323442 -0.439175 -0.53901 -0.525118 -0.535755 -0.535558 -0.5283 -0.513498 -0.487016 -0.441949 -0.373468 -0.283625 -0.180037 -0.0700524 0.0454282 0.166992 0.295515 0.428517 0.562405 0.693786 0.807619 0.882426 0.903438 0.869016 0.750595 0.523705 0.234164 0.0597201 0.00693405 0.000280918 0 0.20629 -0.259486 -0.289642 -0.251019 -0.272549 -0.270087 -0.272291 -0.274615 -0.274369 -0.267654 -0.248739 -0.212956 -0.163215 -0.103063 -0.0347802 0.0375068 0.115267 0.203257 0.302334 0.411242 0.522404 0.615914 0.668704 0.645442 0.481455 0.216587 0.0548397 0.00645498 0.000281847 2.90193e-06 0 2.90536 0 0 0 0 0 0 0 0 0 0 0 0 0 0 0 0 0 0 0 0 0 0 0 0 0 0 0 0 0 0
				</DataArray>
			</PointData>
			<CellData Scalars="Density">
				<DataArray Name="Density" type="Float32" format="ascii">