<?xml version="1.0"?>
<VTKFile type="PolyData">
	<PolyData>
		<Piece NumberOfPoints="961" NumberOfPolys="900">
			<Points>
				<DataArray type="Float32" NumberOfComponents="3" format="ascii">
 0 0 0 0.04 0 0 0.08 0 0 0.12 0 0 0.16 0 0 0.2 0 0 0.24 0 0 0.28 0 0 0.32 0 0 0.36 0 0 0.4 0 0 0.44 0 0 0.48 0 0 0.52 0 0 0.56 0 0 0.6 0 0 0.64 0 0 0.68 0 0 0.72 0 0 0.76 0 0 0.8 0 0 0.84 0 0 0.88 0 0 0.92 0 0 0.96 0 0 1 0 0 1.04 0 0 1.08 0 0 1.12 0 0 1.16 0 0 1.2 0 0 0 0.04 0 0.04 0.04 0 0.08 0.04 0 0.12 0.04 0 0.16 0.04 0 0.2 0.04 0 0.24 0.04 0 0.28 0.04 0 0.32 0.04 0 0.36 0.04 0 0.4 0.04 0 0.44 0.04 0 0.48 0.04 0 0.52 0.04 0 0.56 0.04 0 0.6 0.04 0 0.64 0.04 0 0.68 0.04 0 0.72 0.04 0 0.76 0.04 0 0.8 0.04 0 0.84 0.04 0 0.88 0.04 0 0.92 0.04 0 0.96 0.04 0 1 0.04 0 1.04 0.04 0 1.08 0.04 0 1.12 0.04 0 1.16 0.04 0 1.2 0.04 0 0 0.08 0 0.04 0.08 0 0.08 0.08 0 0.12 0.08 0 0.16 0.08 0 0.2 0.08 0 0.24 0.08 0 0.28 0.08 0 0.32 0.08 0 0.36 0.08 0 0.4 0.08 0 0.44 0.08 0 0.48 0.08 0 0.52 0.08 0 0.56 0.08 0 0.6 0.08 0 0.64 0.08 0 0.68 0.08 0 0.72 0.08 0 0.76 0.08 0 0.8 0.08 0 0.84 0.08 0 0.88 0.08 0 0.92 0.08 0 0.96 0.08 0 1 0.08 0 1.04 0.08 0 1.08 0.08 0 1.12 0.08 0 1.16 0.08 0 1.2 0.08 0 0 0.12 0 0.04 0.12 0 0.08 0.12 0 0.12 0.12 0 0.16 0.12 0 0.2 0.12 0 0.24 0.12 0 0.28 0.12 0 0.32 0.12 0 0.36 0.12 0 0.4 0.12 0 0.44 0.12 0 0.48 0.12 0 0.52 0.12 0 0.56 0.12 0 0.6 0.12 0 0.64 0.12 0 0.68 0.12 0 0.72 0.12 0 0.76 0.12 0 0.8 0.12 0 0.84 0.12 0 0.88 0.12 0 0.92 0.12 0 0.96 0.12 0 1 0.12 0 1.04 0.12 0 1.08 0.12 0 1.12 0.12 0 1.16 0.12 0 1.2 0.12 0 0 0.16 0 0.04 0.16 0 0.08 0.16 0 0.12 0.16 0 0.16 0.16 0 0.2 0.16 0 0.24 0.16 0 0.28 0.16 0 0.32 0.16 0 0.36 0.16 0 0.4 0.16 0 0.44 0.16 0 0.48 0.16 0 0.52 0.16 0 0.56 0.16 0 0.6 0.16 0 0.64 0.16 0 0.68 0.16 0 0.72 0.16 0 0.76 0.16 0 0.8 0.16 0 0.84 0.16 0 0.88 0.16 0 0.92 0.16 0 0.96 0.16 0 1 0.16 0 1.04 0.16 0 1.08 0.16 0 1.12 0.16 0 1.16 0.16 0 1.2 0.16 0 0 0.2 0 0.04 0.2 0 0.08 0.2 0 0.12 0.2 0 0.16 0.2 0 0.2 0.2 0 0.24 0.2 0 0.28 0.2 0 0.32 0.2 0 0.36 0.2 0 0.4 0.2 0 0.44 0.2 0 0.48 0.2 0 0.52 0.2 0 0.56 0.2 0 0.6 0.2 0 0.64 0.2 0 0.68 0.2 0 0.72 0.2 0 0.76 0.2 0 0.8 0.2 0 0.84 0.2 0 0.88 0.2 0 0.92 0.2 0 0.96 0.2 0 1 0.2 0 1.04 0.2 0 1.08 0.2 0 1.12 0.2 0 1.16 0.2 0 1.2 0.2 0 0 0.24 0 0.04 0.24 0 0.08 0.24 0 0.12 0.24 0 0.16 0.24 0 0.2 0.24 0 0.24 0.24 0 0.28 0.24 0 0.32 0.24 0 0.36 0.24 0 0.4 0.24 0 0.44 0.24 0 0.48 0.24 0 0.52 0.24 0 0.56 0.24 0 0.6 0.24 0 0.64 0.24 0 0.68 0.24 0 0.72 0.24 0 0.76 0.24 0 0.8 0.24 0 0.84 0.24 0 0.88 0.24 0 0.92 0.24 0 0.96 0.24 0 1 0.24 0 1.04 0.24 0 1.08 0.24 0 1.12 0.24 0 1.16 0.24 0 1.2 0.24 0 0 0.28 0 0.04 0.28 0 0.08 0.28 0 0.12 0.28 0 0.16 0.28 0 0.2 0.28 0 0.24 0.28 0 0.28 0.28 0 0.32 0.28 0 0.36 0.28 0 0.4 0.28 0 0.44 0.28 0 0.48 0.28 0 0.52 0.28 0 0.56 0.28 0 0.6 0.28 0 0.64 0.28 0 0.68 0.28 0 0.72 0.28 0 0.76 0.28 0 0.8 0.28 0 0.84 0.28 0 0.88 0.28 0 0.92 0.28 0 0.96 0.28 0 1 0.28 0 1.04 0.28 0 1.08 0.28 0 1.12 0.28 0 1.16 0.28 0 1.2 0.28 0 0 0.32 0 0.04 0.32 0 0.08 0.32 0 0.12 0.32 0 0.16 0.32 0 0.2 0.32 0 0.24 0.32 0 0.28 0.32 0 0.32 0.32 0 0.36 0.32 0 0.4 0.32 0 0.44 0.32 0 0.48 0.32 0 0.52 0.32 0 0.56 0.32 0 0.6 0.32 0 0.64 0.32 0 0.68 0.32 0 0.72 0.32 0 0.76 0.32 0 0.8 0.32 0 0.84 0.32 0 0.88 0.32 0 0.92 0.32 0 0.96 0.32 0 1 0.32 0 1.04 0.32 0 1.08 0.32 0 1.12 0.32 0 1.16 0.32 0 1.2 0.32 0 0 0.36 0 0.04 0.36 0 0.08 0.36 0 0.12 0.36 0 0.16 0.36 0 0.2 0.36 0 0.24 0.36 0 0.28 0.36 0 0.32 0.36 0 0.36 0.36 0 0.4 0.36 0 0.44 0.36 0 0.48 0.36 0 0.52 0.36 0 0.56 0.36 0 0.6 0.36 0 0.64 0.36 0 0.68 0.36 0 0.72 0.36 0 0.76 0.36 0 0.8 0.36 0 0.84 0.36 0 0.88 0.36 0 0.92 0.36 0 0.96 0.36 0 1 0.36 0 1.04 0.36 0 1.08 0.36 0 1.12 0.36 0 1.16 0.36 0 1.2 0.36 0 0 0.4 0 0.04 0.4 0 0.08 0.4 0 0.12 0.4 0 0.16 0.4 0 0.2 0.4 0 0.24 0.4 0 0.28 0.4 0 0.32 0.4 0 0.36 0.4 0 0.4 0.4 0 0.44 0.4 0 0.48 0.4 0 0.52 0.4 0 0.56 0.4 0 0.6 0.4 0 0.64 0.4 0 0.68 0.4 0 0.72 0.4 0 0.76 0.4 0 0.8 0.4 0 0.84 0.4 0 0.88 0.4 0 0.92 0.4 0 0.96 0.4 0 1 0.4 0 1.04 0.4 0 1.08 0.4 0 1.12 0.4 0 1.16 0.4 0 1.2 0.4 0 0 0.44 0 0.04 0.44 0 0.08 0.44 0 0.12 0.44 0 0.16 0.44 0 0.2 0.44 0 0.24 0.44 0 0.28 0.44 0 0.32 0.44 0 0.36 0.44 0 0.4 0.44 0 0.44 0.44 0 0.48 0.44 0 0.52 0.44 0 0.56 0.44 0 0.6 0.44 0 0.64 0.44 0 0.68 0.44 0 0.72 0.44 0 0.76 0.44 0 0.8 0.44 0 0.84 0.44 0 0.88 0.44 0 0.92 0.44 0 0.96 0.44 0 1 0.44 0 1.04 0.44 0 1.08 0.44 0 1.12 0.44 0 1.16 0.44 0 1.2 0.44 0 0 0.48 0 0.04 0.48 0 0.08 0.48 0 0.12 0.48 0 0.16 0.48 0 0.2 0.48 0 0.24 0.48 0 0.28 0.48 0 0.32 0.48 0 0.36 0.48 0 0.4 0.48 0 0.44 0.48 0 0.48 0.48 0 0.52 0.48 0 0.56 0.48 0 0.6 0.48 0 0.64 0.48 0 0.68 0.48 0 0.72 0.48 0 0.76 0.48 0 0.8 0.48 0 0.84 0.48 0 0.88 0.48 0 0.92 0.48 0 0.96 0.48 0 1 0.48 0 1.04 0.48 0 1.08 0.48 0 1.12 0.48 0 1.16 0.48 0 1.2 0.48 0 0 0.52 0 0.04 0.52 0 0.08 0.52 0 0.12 0.52 0 0.16 0.52 0 0.2 0.52 0 0.24 0.52 0 0.28 0.52 0 0.32 0.52 0 0.36 0.52 0 0.4 0.52 0 0.44 0.52 0 0.48 0.52 0 0.52 0.52 0 0.56 0.52 0 0.6 0.52 0 0.64 0.52 0 0.68 0.52 0 0.72 0.52 0 0.76 0.52 0 0.8 0.52 0 0.84 0.52 0 0.88 0.52 0 0.92 0.52 0 0.96 0.52 0 1 0.52 0 1.04 0.52 0 1.08 0.52 0 1.12 0.52 0 1.16 0.52 0 1.2 0.52 0 0 0.56 0 0.04 0.56 0 0.08 0.56 0 0.12 0.56 0 0.16 0.56 0 0.2 0.56 0 0.24 0.56 0 0.28 0.56 0 0.32 0.56 0 0.36 0.56 0 0.4 0.56 0 0.44 0.56 0 0.48 0.56 0 0.52 0.56 0 0.56 0.56 0 0.6 0.56 0 0.64 0.56 0 0.68 0.56 0 0.72 0.56 0 0.76 0.56 0 0.8 0.56 0 0.84 0.56 0 0.88 0.56 0 0.92 0.56 0 0.96 0.56 0 1 0.56 0 1.04 0.56 0 1.08 0.56 0 1.12 0.56 0 1.16 0.56 0 1.2 0.56 0 0 0.6 0 0.04 0.6 0 0.08 0.6 0 0.12 0.6 0 0.16 0.6 0 0.2 0.6 0 0.24 0.6 0 0.28 0.6 0 0.32 0.6 0 0.36 0.6 0 0.4 0.6 0 0.44 0.6 0 0.48 0.6 0 0.52 0.6 0 0.56 0.6 0 0.6 0.6 0 0.64 0.6 0 0.68 0.6 0 0.72 0.6 0 0.76 0.6 0 0.8 0.6 0 0.84 0.6 0 0.88 0.6 0 0.92 0.6 0 0.96 0.6 0 1 0.6 0 1.04 0.6 0 1.08 0.6 0 1.12 0.6 0 1.16 0.6 0 1.2 0.6 0 0 0.64 0 0.04 0.64 0 0.08 0.64 0 0.12 0.64 0 0.16 0.64 0 0.2 0.64 0 0.24 0.64 0 0.28 0.64 0 0.32 0.64 0 0.36 0.64 0 0.4 0.64 0 0.44 0.64 0 0.48 0.64 0 0.52 0.64 0 0.56 0.64 0 0.6 0.64 0 0.64 0.64 0 0.68 0.64 0 0.72 0.64 0 0.76 0.64 0 0.8 0.64 0 0.84 0.64 0 0.88 0.64 0 0.92 0.64 0 0.96 0.64 0 1 0.64 0 1.04 0.64 0 1.08 0.64 0 1.12 0.64 0 1.16 0.64 0 1.2 0.64 0 0 0.68 0 0.04 0.68 0 0.08 0.68 0 0.12 0.68 0 0.16 0.68 0 0.2 0.68 0 0.24 0.68 0 0.28 0.68 0 0.32 0.68 0 0.36 0.68 0 0.4 0.68 0 0.44 0.68 0 0.48 0.68 0 0.52 0.68 0 0.56 0.68 0 0.6 0.68 0 0.64 0.68 0 0.68 0.68 0 0.72 0.68 0 0.76 0.68 0 0.8 0.68 0 0.84 0.68 0 0.88 0.68 0 0.92 0.68 0 0.96 0.68 0 1 0.68 0 1.04 0.68 0 1.08 0.68 0 1.12 0.68 0 1.16 0.68 0 1.2 0.68 0 0 0.72 0 0.04 0.72 0 0.08 0.72 0 0.12 0.72 0 0.16 0.72 0 0.2 0.72 0 0.24 0.72 0 0.28 0.72 0 0.32 0.72 0 0.36 0.72 0 0.4 0.72 0 0.44 0.72 0 0.48 0.72 0 0.52 0.72 0 0.56 0.72 0 0.6 0.72 0 0.64 0.72 0 0.68 0.72 0 0.72 0.72 0 0.76 0.72 0 0.8 0.72 0 0.84 0.72 0 0.88 0.72 0 0.92 0.72 0 0.96 0.72 0 1 0.72 0 1.04 0.72 0 1.08 0.72 0 1.12 0.72 0 1.16 0.72 0 1.2 0.72 0 0 0.76 0 0.04 0.76 0 0.08 0.76 0 0.12 0.76 0 0.16 0.76 0 0.2 0.76 0 0.24 0.76 0 0.28 0.76 0 0.32 0.76 0 0.36 0.76 0 0.4 0.76 0 0.44 0.76 0 0.48 0.76 0 0.52 0.76 0 0.56 0.76 0 0.6 0.76 0 0.64 0.76 0 0.68 0.76 0 0.72 0.76 0 0.76 0.76 0 0.8 0.76 0 0.84 0.76 0 0.88 0.76 0 0.92 0.76 0 0.96 0.76 0 1 0.76 0 1.04 0.76 0 1.08 0.76 0 1.12 0.76 0 1.16 0.76 0 1.2 0.76 0 0 0.8 0 0.04 0.8 0 0.08 0.8 0 0.12 0.8 0 0.16 0.8 0 0.2 0.8 0 0.24 0.8 0 0.28 0.8 0 0.32 0.8 0 0.36 0.8 0 0.4 0.8 0 0.44 0.8 0 0.48 0.8 0 0.52 0.8 0 0.56 0.8 0 0.6 0.8 0 0.64 0.8 0 0.68 0.8 0 0.72 0.8 0 0.76 0.8 0 0.8 0.8 0 0.84 0.8 0 0.88 0.8 0 0.92 0.8 0 0.96 0.8 0 1 0.8 0 1.04 0.8 0 1.08 0.8 0 1.12 0.8 0 1.16 0.8 0 1.2 0.8 0 0 0.84 0 0.04 0.84 0 0.08 0.84 0 0.12 0.84 0 0.16 0.84 0 0.2 0.84 0 0.24 0.84 0 0.28 0.84 0 0.32 0.84 0 0.36 0.84 0 0.4 0.84 0 0.44 0.84 0 0.48 0.84 0 0.52 0.84 0 0.56 0.84 0 0.6 0.84 0 0.64 0.84 0 0.68 0.84 0 0.72 0.84 0 0.76 0.84 0 0.8 0.84 0 0.84 0.84 0 0.88 0.84 0 0.92 0.84 0 0.96 0.84 0 1 0.84 0 1.04 0.84 0 1.08 0.84 0 1.12 0.84 0 1.16 0.84 0 1.2 0.84 0 0 0.88 0 0.04 0.88 0 0.08 0.88 0 0.12 0.88 0 0.16 0.88 0 0.2 0.88 0 0.24 0.88 0 0.28 0.88 0 0.32 0.88 0 0.36 0.88 0 0.4 0.88 0 0.44 0.88 0 0.48 0.88 0 0.52 0.88 0 0.56 0.88 0 0.6 0.88 0 0.64 0.88 0 0.68 0.88 0 0.72 0.88 0 0.76 0.88 0 0.8 0.88 0 0.84 0.88 0 0.88 0.88 0 0.92 0.88 0 0.96 0.88 0 1 0.88 0 1.04 0.88 0 1.08 0.88 0 1.12 0.88 0 1.16 0.88 0 1.2 0.88 0 0 0.92 0 0.04 0.92 0 0.08 0.92 0 0.12 0.92 0 0.16 0.92 0 0.2 0.92 0 0.24 0.92 0 0.28 0.92 0 0.32 0.92 0 0.36 0.92 0 0.4 0.92 0 0.44 0.92 0 0.48 0.92 0 0.52 0.92 0 0.56 0.92 0 0.6 0.92 0 0.64 0.92 0 0.68 0.92 0 0.72 0.92 0 0.76 0.92 0 0.8 0.92 0 0.84 0.92 0 0.88 0.92 0 0.92 0.92 0 0.96 0.92 0 1 0.92 0 1.04 0.92 0 1.08 0.92 0 1.12 0.92 0 1.16 0.92 0 1.2 0.92 0 0 0.96 0 0.04 0.96 0 0.08 0.96 0 0.12 0.96 0 0.16 0.96 0 0.2 0.96 0 0.24 0.96 0 0.28 0.96 0 0.32 0.96 0 0.36 0.96 0 0.4 0.96 0 0.44 0.96 0 0.48 0.96 0 0.52 0.96 0 0.56 0.96 0 0.6 0.96 0 0.64 0.96 0 0.68 0.96 0 0.72 0.96 0 0.76 0.96 0 0.8 0.96 0 0.84 0.96 0 0.88 0.96 0 0.92 0.96 0 0.96 0.96 0 1 0.96 0 1.04 0.96 0 1.08 0.96 0 1.12 0.96 0 1.16 0.96 0 1.2 0.96 0 0 1 0 0.04 1 0 0.08 1 0 0.12 1 0 0.16 1 0 0.2 1 0 0.24 1 0 0.28 1 0 0.32 1 0 0.36 1 0 0.4 1 0 0.44 1 0 0.48 1 0 0.52 1 0 0.56 1 0 0.6 1 0 0.64 1 0 0.68 1 0 0.72 1 0 0.76 1 0 0.8 1 0 0.84 1 0 0.88 1 0 0.92 1 0 0.96 1 0 1 1 0 1.04 1 0 1.08 1 0 1.12 1 0 1.16 1 0 1.2 1 0 0 1.04 0 0.04 1.04 0 0.08 1.04 0 0.12 1.04 0 0.16 1.04 0 0.2 1.04 0 0.24 1.04 0 0.28 1.04 0 0.32 1.04 0 0.36 1.04 0 0.4 1.04 0 0.44 1.04 0 0.48 1.04 0 0.52 1.04 0 0.56 1.04 0 0.6 1.04 0 0.64 1.04 0 0.68 1.04 0 0.72 1.04 0 0.76 1.04 0 0.8 1.04 0 0.84 1.04 0 0.88 1.04 0 0.92 1.04 0 0.96 1.04 0 1 1.04 0 1.04 1.04 0 1.08 1.04 0 1.12 1.04 0 1.16 1.04 0 1.2 1.04 0 0 1.08 0 0.04 1.08 0 0.08 1.08 0 0.12 1.08 0 0.16 1.08 0 0.2 1.08 0 0.24 1.08 0 0.28 1.08 0 0.32 1.08 0 0.36 1.08 0 0.4 1.08 0 0.44 1.08 0 0.48 1.08 0 0.52 1.08 0 0.56 1.08 0 0.6 1.08 0 0.64 1.08 0 0.68 1.08 0 0.72 1.08 0 0.76 1.08 0 0.8 1.08 0 0.84 1.08 0 0.88 1.08 0 0.92 1.08 0 0.96 1.08 0 1 1.08 0 1.04 1.08 0 1.08 1.08 0 1.12 1.08 0 1.16 1.08 0 1.2 1.08 0 0 1.12 0 
[...]
			<PointData Scalars="VitesseX">
				<DataArray Name="VitesseX" type="Float32" format="ascii">
 0 -0.0735598 -0.14492 -0.141852 -0.0877886 0.0138123 0.131177 0.236827 0.300543 0.312553 0.28442 0.236091 0.180732 0.129819 0.0896123 0.0596147 0.0352376 -0.0227699 -0.333703 -0.744678 -0.961691 -0.954316 -0.838059 -0.73613 -0.635329 -0.533991 -0.431621 -0.327832 -0.222608 -0.113122 0 0 0.0513563 0.00762552 -0.0206703 0.0101921 0.0730135 0.160064 0.244021 0.294672 0.297484 0.265642 0.21762 0.167527 0.122803 0.0866843 0.0592526 0.0356156 -0.020349 -0.326351 -0.737294 -0.957485 -0.954918 -0.838336 -0.736426 -0.635737 -0.534513 -0.432201 -0.328406 -0.22301 -0.11309 0 0 0.0253823 0.0482454 0.031749 0.0268147 0.0405074 0.0628588 0.0980915 0.138464 0.163234 0.163343 0.145774 0.119855 0.0929464 0.0698074 0.0503956 0.0314837 -0.017409 -0.306977 -0.716012 -0.945148 -0.956262 -0.838799 -0.736673 -0.636042 -0.534918 -0.432734 -0.32907 -0.223561 -0.113175 0 0 -0.034354 -0.0562099 -0.0664655 -0.0803112 -0.0847013 -0.0805444 -0.0662439 -0.0434285 -0.015899 0.0136649 0.0342059 0.0439497 0.0441105 0.0390086 0.031676 0.0203386 -0.017599 -0.279082 -0.681721 -0.926095 -0.957675 -0.840312 -0.737627 -0.636944 -0.535835 -0.433772 -0.330326 -0.224867 -0.114007 0 0 -0.0826067 -0.130332 -0.158448 -0.175941 -0.189579 -0.195162 -0.192605 -0.173035 -0.137452 -0.0993234 -0.0622342 -0.0325596 -0.0113273 0.000974015 0.00524655 0.00203769 -0.0239369 -0.246426 -0.636139 -0.900975 -0.95682 -0.84329 -0.73962 -0.638757 -0.537567 -0.435536 -0.332255 -0.226909 -0.115605 0 0 -0.111518 -0.183463 -0.221442 -0.248547 -0.268188 -0.280074 -0.283502 -0.26582 -0.226626 -0.181022 -0.136096 -0.0949409 -0.0617424 -0.0387038 -0.026141 -0.0224073 -0.038075 -0.213898 -0.582132 -0.868302 -0.95075 -0.847714 -0.742783 -0.641505 -0.540078 -0.437903 -0.334605 -0.229277 -0.117423 0 0 -0.124174 -0.203702 -0.249153 -0.283853 -0.311713 -0.331318 -0.340629 -0.333528 -0.296099 -0.242793 -0.191651 -0.145175 -0.106123 -0.077711 -0.059924 -0.0519198 -0.0611024 -0.187266 -0.522328 -0.824613 -0.935617 -0.854378 -0.74707 -0.645052 -0.543167 -0.440617 -0.33707 -0.231534 -0.118935 0 0 -0.110977 -0.19555 -0.250631 -0.291075 -0.324018 -0.352305 -0.371005 -0.376589 -0.35733 -0.304829 -0.2449 -0.1928 -0.149614 -0.116958 -0.0959346 -0.0857344 -0.0916353 -0.17162 -0.459162 -0.766759 -0.907586 -0.863637 -0.752424 -0.649262 -0.546642 -0.443504 -0.339553 -0.233572 -0.119757 0 0 -0.0750068 -0.141106 -0.195477 -0.246036 -0.300784 -0.348241 -0.381776 -0.400442 -0.402358 -0.374974 -0.314243 -0.251366 -0.200148 -0.160991 -0.13502 -0.122594 -0.125605 -0.172279 -0.395874 -0.694554 -0.863148 -0.872445 -0.759251 -0.654149 -0.550427 -0.446538 -0.342066 -0.235519 -0.120382 0 0 -0.0261045 -0.0598812 -0.10655 -0.158623 -0.222104 -0.29941 -0.368396 -0.411383 -0.43118 -0.429377 -0.3961 -0.330259 -0.265568 -0.215734 -0.180546 -0.162231 -0.161191 -0.190593 -0.340203 -0.609681 -0.809523 -0.867173 -0.767365 -0.659719 -0.554615 -0.449782 -0.344618 -0.237426 -0.121115 0 0 0.0103256 0.00723223 -0.0276815 -0.0847177 -0.151125 -0.228242 -0.319758 -0.400474 -0.448573 -0.468955 -0.463421 -0.423657 -0.351855 -0.285392 -0.237766 -0.207953 -0.199393 -0.22024 -0.301037 -0.523701 -0.741749 -0.837377 -0.777723 -0.666151 -0.55934 -0.453301 -0.347276 -0.239571 -0.122217 0 0 0.0277824 0.041448 0.0190469 -0.0333049 -0.100388 -0.175973 -0.261961 -0.360451 -0.445027 -0.495142 -0.515259 -0.506035 -0.458054 -0.378442 -0.310748 -0.266042 -0.244086 -0.250864 -0.292513 -0.444363 -0.656365 -0.781339 -0.786102 -0.674115 -0.564878 -0.457313 -0.350266 -0.242201 -0.12384 0 0 0.0312275 0.0475814 0.0342926 -0.00955949 -0.0718175 -0.144747 -0.222999 -0.31084 -0.411522 -0.497936 -0.549097 -0.568573 -0.556273 -0.497867 -0.408602 -0.340034 -0.300525 -0.285825 -0.307917 -0.381333 -0.558457 -0.712748 -0.770781 -0.683774 -0.571572 -0.462275 -0.354033 -0.245546 -0.126546 0 0 0.0257728 0.0386474 0.0279297 -0.00874723 -0.0653033 -0.1307 -0.200586 -0.274837 -0.360167 -0.461509 -0.552581 -0.606374 -0.625611 -0.610529 -0.538799 -0.44009 -0.370543 -0.335227 -0.33102 -0.352372 -0.465907 -0.627916 -0.720886 -0.69431 -0.58003 -0.468533 -0.358889 -0.249579 -0.130022 0 0 0.0134023 0.0171282 0.00355356 -0.0299811 -0.077392 -0.131897 -0.188677 -0.249262 -0.316485 -0.396544 -0.499246 -0.601607 -0.662442 -0.682168 -0.662958 -0.574391 -0.466955 -0.399801 -0.361568 -0.35868 -0.390466 -0.526743 -0.646981 -0.687535 -0.589489 -0.475874 -0.364539 -0.253918 -0.133263 0 0 -0.00192706 -0.0102511 -0.0303702 -0.0634967 -0.104812 -0.146127 -0.185791 -0.227731 -0.277552 -0.338029 -0.413218 -0.516775 -0.636045 -0.711255 -0.732554 -0.705253 -0.599214 -0.481807 -0.412877 -0.374421 -0.356518 -0.424949 -0.558514 -0.6397 -0.599646 -0.483905 -0.370393 -0.257993 -0.13578 0 0 -0.019024 -0.0398311 -0.0657385 -0.0974612 -0.130379 -0.160393 -0.185798 -0.209778 -0.239217 -0.280844 -0.337622 -0.410968 -0.513765 -0.649192 -0.746617 -0.772649 -0.728272 -0.605378 -0.480729 -0.400705 -0.362032 -0.346294 -0.453546 -0.561065 -0.594052 -0.491555 -0.376107 -0.261748 -0.137679 0 0 -0.0359294 -0.0685113 -0.0949279 -0.117417 -0.136848 -0.153577 -0.168533 -0.183337 -0.200471 -0.225952 -0.265068 -0.321038 -0.394869 -0.494681 -0.635613 -0.754996 -0.790698 -0.721541 -0.584417 -0.456793 -0.369863 -0.318257 -0.347023 -0.467326 -0.547227 -0.49934 -0.381704 -0.265427 -0.139592 0 0 -0.037939 -0.0689098 -0.0873748 -0.0954007 -0.101254 -0.108381 -0.118407 -0.131588 -0.14853 -0.169608 -0.198776 -0.238811 -0.291747 -0.362887 -0.459143 -0.595126 -0.726395 -0.774428 -0.680977 -0.533346 -0.402924 -0.320139 -0.270888 -0.359266 -0.464328 -0.492676 -0.386793 -0.269495 -0.142109 0 0 -0.0169343 -0.034582 -0.0390975 -0.0377641 -0.0353182 -0.0340053 -0.0366975 -0.0488206 -0.071646 -0.10238 -0.133697 -0.162241 -0.200216 -0.25176 -0.315271 -0.404683 -0.53 -0.6595 -0.714988 -0.60533 -0.458581 -0.328845 -0.249507 -0.249503 -0.364993 -0.44707 -0.392306 -0.27411 -0.145615 0 0 0.0024722 -0.000293843 0.011937 0.0191818 0.029705 0.0437437 0.0492507 0.0407809 0.0211703 -0.0059839 -0.0399172 -0.0809695 -0.118614 -0.149662 -0.194498 -0.253853 -0.332346 -0.443934 -0.557662 -0.613668 -0.502894 -0.361985 -0.252039 -0.175198 -0.251289 -0.35928 -0.384222 -0.279699 -0.14994 0 0 0.00480617 0.0181355 0.0380572 0.0462019 0.0700205 0.0993583 0.114522 0.116576 0.109888 0.0933553 0.065344 0.0311082 -0.00675822 -0.049971 -0.0918473 -0.12663 -0.17926 -0.248525 -0.337796 -0.433721 -0.478123 -0.37851 -0.253723 -0.156662 -0.137028 -0.250437 -0.338388 -0.283083 -0.15515 0 0 -0.00586573 0.0249587 0.0325053 0.0473331 0.0856379 0.124275 0.145751 0.154102 0.158639 0.160057 0.154117 0.142319 0.116472 0.0770162 0.0333444 -0.0136886 -0.0595638 -0.0974459 -0.15351 -0.230059 -0.290266 -0.312338 -0.239137 -0.147419 -0.0632924 -0.127463 -0.24504 -0.273408 -0.161359 0 0 -0.0122343 0.0203653 0.0166369 0.0428239 0.0901132 0.126444 0.14194 0.153048 0.168695 0.185029 0.198925 0.211741 0.211476 0.195044 0.167491 0.124341 0.0753431 0.0237677 -0.0187059 -0.0619941 -0.105533 -0.144042 -0.147357 -0.0970008 -0.0268462 -0.0105545 -0.123472 -0.223683 -0.165155 0 0 -0.0117165 0.00627106 0.00507624 0.0414474 0.087778 0.111986 0.121298 0.132096 0.151484 0.177051 0.206398 0.233328 0.253318 0.263901 0.265585 0.246423 0.215769 0.172372 0.120475 0.0691128 0.0265318 -0.00206419 0.00317273 0.0280628 0.0420184 0.0753234 0.00622801 -0.119954 -0.155601 0 0 -0.0095097 -0.0123959 -0.00311197 0.0351482 0.0756944 0.0914344 0.0979329 0.111826 0.134553 0.162623 0.192292 0.222103 0.25284 0.281184 0.303468 0.311202 0.314876 0.298469 0.267279 0.223279 0.170661 0.115088 0.0944618 0.123711 0.1754 0.171513 0.132944 0.00645792 -0.105506 0 0 -0.0148834 -0.0313514 -0.0158687 0.0219591 0.0546957 0.06402 0.0717264 0.0903228 0.116923 0.146493 0.175821 0.204804 0.232916 0.260782 0.290092 0.32013 0.347079 0.360883 0.364165 0.351978 0.320641 0.275556 0.215706 0.180742 0.217994 0.272234 0.231877 0.145402 -0.0178353 0 0 -0.0286726 -0.0506103 -0.0249136 0.00849044 0.0261652 0.0288328 0.0400569 0.0627746 0.0905305 0.118908 0.146788 0.174241 0.201815 0.230024 0.259051 0.28898 0.320352 0.35299 0.385584 0.407949 0.413437 0.403427 0.373551 0.319137 0.268929 0.271293 0.280503 0.194948 0.111844 0 0 -0.0620128 -0.0729467 -0.0285112 -0.00299938 0.000455119 -0.00252948 0.00613564 0.0242618 0.0478287 0.0723306 0.0965647 0.121194 0.147026 0.174503 0.203505 0.233448 0.264294 0.296059 0.32933 0.364957 0.40325 0.43752 0.453994 0.456848 0.421833 0.350355 0.271255 0.211385 0.0711933 0 0 -0.183612 -0.0626809 -0.0249529 -0.0110416 -0.0138743 -0.0193517 -0.0145911 -0.00345262 0.00860131 0.021163 0.0336947 0.0464088 0.0604018 0.0770687 0.0967837 0.118926 0.142356 0.167084 0.194184 0.224817 0.260531 0.301878 0.349743 0.400256 0.449289 0.493663 0.437437 0.304549 0.206077 0 0 0 0 0 0 0 0 0 0 0 0 0 0 0 0 0 0 0 0 0 0 0 0 0 0 0 0 0 0 0 0
				</DataArray>
				<DataArray Name="VitesseY" type="Float32" format="ascii">
 0 0 0 0 0 0 0 0 0 0 0 0 0 0 0 0 0 0 0 0 0 0 0 0 0 0 0 0 0 0 0 -0.0705249 0.0516837 0.0223514 -0.0382257 -0.0878752 -0.117823 -0.127937 -0.102961 -0.0526408 -0.00346795 0.0220421 0.0324998 0.0306191 0.0216729 0.00931622 -0.00129062 -0.00832016 -0.00849686 0.00102793 0.0150041 0.024008 0.0262852 0.0241858 0.0221238 0.0198006 0.0170238 0.0135822 0.009252 0.00516886 0.00199883 0 -0.144566 0.00792771 0.0459513 -0.0580818 -0.135046 -0.188327 -0.208046 -0.183247 -0.104548 -0.0204072 0.0292322 0.049042 0.0476127 0.032818 0.0118159 -0.00658705 -0.0182432 -0.0175655 0.00110898 0.0289114 0.0472908 0.0524397 0.0484501 0.0443381 0.0398288 0.0345025 0.0278031 0.0189852 0.0101164 0.00344308 0 -0.146254 -0.0225192 0.0343416 -0.0608269 -0.154689 -0.21919 -0.244956 -0.237161 -0.155143 -0.0634875 0.000960458 0.0322583 0.0378689 0.0254192 0.00149046 -0.0195766 -0.032519 -0.0294226 -0.00147686 0.0399398 0.06826 0.0776031 0.0726671 0.0666168 0.0601732 0.0524593 0.0426717 0.0294998 0.0151909 0.00453954 0 -0.09907 0.00607621 0.0342294 -0.0635135 -0.161902 -0.235259 -0.268825 -0.271586 -0.204578 -0.118812 -0.0533337 -0.013401 0.00104384 -0.00339282 -0.0233152 -0.0418924 -0.0526035 -0.0462159 -0.0091552 0.0453678 0.0848115 0.100666 0.0967771 0.0888457 0.0807439 0.0708835 0.0583099 0.0411837 0.0210967 0.00588409 0 -0.00367728 0.0635352 0.0552608 -0.0596464 -0.162483 -0.242779 -0.28532 -0.295771 -0.259305 -0.180678 -0.117301 -0.0740443 -0.0524699 -0.0489188 -0.0597901 -0.0724708 -0.0787379 -0.0691004 -0.0239948 0.0423204 0.0960254 0.121087 0.120914 0.110952 0.101506 0.089882 0.0749434 0.0545235 0.028684 0.00819004 0 0.108268 0.145914 0.0831241 -0.0453531 -0.156327 -0.242915 -0.295257 -0.314761 -0.306876 -0.251686 -0.18746 -0.142658 -0.115004 -0.103319 -0.103559 -0.108959 -0.110107 -0.0972587 -0.0471296 0.0299617 0.101254 0.138851 0.14446 0.132869 0.122504 0.109543 0.0926651 0.0696065 0.0382695 0.0116536 0 0.216858 0.231116 0.120759 -0.0237826 -0.144188 -0.235783 -0.296153 -0.327608 -0.337423 -0.319902 -0.267387 -0.216632 -0.183055 -0.16218 -0.15216 -0.148587 -0.144621 -0.12823 -0.0779088 0.00912893 0.0995901 0.153079 0.166134 0.154783 0.143733 0.129737 0.111286 0.0859001 0.0493707 0.0158087 0 0.294669 0.297949 0.163327 0.00172145 -0.120179 -0.213731 -0.284182 -0.329187 -0.353596 -0.363207 -0.34643 -0.301043 -0.257142 -0.226832 -0.205383 -0.191108 -0.179845 -0.15939 -0.113288 -0.0196333 0.0870121 0.158723 0.184377 0.17755 0.165056 0.150266 0.130512 0.102837 0.0615342 0.0201103 0 0.32829 0.324042 0.195744 0.0288921 -0.0863474 -0.171071 -0.243937 -0.308865 -0.354327 -0.383106 -0.398164 -0.386245 -0.343984 -0.300194 -0.266425 -0.239257 -0.216426 -0.191179 -0.149333 -0.0562584 0.0590594 0.151138 0.195536 0.201157 0.186085 0.171194 0.150335 0.120486 0.0747873 0.0250376 0 0.317954 0.308515 0.206531 0.0579472 -0.0481746 -0.12135 -0.181284 -0.253148 -0.328576 -0.38333 -0.42205 -0.444025 -0.435205 -0.389336 -0.338727 -0.296732 -0.25898 -0.224395 -0.181756 -0.0989197 0.0206151 0.135875 0.203759 0.221859 0.207869 0.192805 0.170938 0.139388 0.0897357 0.0315971 0 0.279524 0.2668 0.195577 0.0840138 -0.00719015 -0.0712255 -0.121093 -0.178221 -0.266744 -0.355047 -0.422576 -0.471998 -0.499437 -0.488673 -0.429863 -0.36705 -0.312864 -0.262272 -0.209093 -0.142671 -0.023272 0.107831 0.200025 0.237105 0.231903 0.214886 0.192657 0.159989 0.107151 0.0399957 0 0.227378 0.217093 0.172429 0.0999332 0.0300958 -0.0221424 -0.0645386 -0.113313 -0.188081 -0.291254 -0.392772 -0.473591 -0.531061 -0.560691 -0.539739 -0.458999 -0.381177 -0.310649 -0.244776 -0.1772 -0.0702156 0.0631085 0.179713 0.24238 0.256004 0.237488 0.215881 0.182445 0.127383 0.050058 0 0.173811 0.169743 0.146598 0.105767 0.0607491 0.022101 -0.0140956 -0.0590064 -0.123502 -0.213013 -0.326433 -0.440979 -0.53362 -0.594658 -0.622186 -0.580286 -0.471636 -0.377416 -0.291008 -0.205359 -0.119254 0.0119873 0.148888 0.241588 0.275352 0.262571 0.240401 0.206759 0.15056 0.0624552 0 0.1285 0.130281 0.123848 0.107124 0.0839778 0.0575107 0.0255381 -0.0163688 -0.0753944 -0.152411 -0.249363 -0.367874 -0.493716 -0.597364 -0.656972 -0.67735 -0.601407 -0.466028 -0.35249 -0.251091 -0.156083 -0.0388621 0.101338 0.220162 0.280281 0.289045 0.26575 0.232951 0.176523 0.0782445 0 0.096543 0.102608 0.107918 0.108513 0.101145 0.0813645 0.0504226 0.00882989 -0.0438747 -0.112259 -0.193767 -0.290029 -0.409326 -0.54336 -0.656998 -0.713074 -0.715878 -0.596755 -0.439565 -0.309989 -0.19311 -0.0906512 0.0464896 0.18622 0.279979 0.311766 0.29293 0.260858 0.204699 0.0975049 0 0.0798884 0.0880931 0.0992165 0.110412 0.111246 0.0932444 0.0584956 0.0152621 -0.0342092 -0.0916998 -0.160208 -0.238041 -0.329499 -0.443981 -0.583856 -0.701962 -0.757398 -0.726058 -0.565986 -0.391553 -0.250599 -0.129506 -0.00781216 0.137569 0.260412 0.319882 0.321833 0.290194 0.234185 0.119403 0 0.0743788 0.083022 0.0918816 0.104064 0.105955 0.0868672 0.049702 0.00353996 -0.0439307 -0.0938338 -0.14758 -0.208816 -0.279575 -0.362497 -0.469957 -0.607355 -0.726751 -0.777171 -0.700997 -0.510338 -0.32576 -0.177605 -0.0606442 0.0820838 0.225407 0.320915 0.34928 0.321087 0.264774 0.142684 0 -0.01285 0.00285327 0.0158198 0.0377921 0.0504042 0.0387941 0.00583418 -0.035736 -0.0773263 -0.117936 -0.158616 -0.203524 -0.254607 -0.316919 -0.388299 -0.483363 -0.610237 -0.721201 -0.763086 -0.641971 -0.432497 -0.246817 -0.0998772 0.0250348 0.178403 0.30537 0.365054 0.353327 0.296406 0.167311 0 -0.352951 -0.321428 -0.307786 -0.270806 -0.229215 -0.208381 -0.203571 -0.200257 -0.193423 -0.19173 -0.205108 -0.2313 -0.262975 -0.297728 -0.344172 -0.403613 -0.47822 -0.587397 -0.680706 -0.70572 -0.546795 -0.332922 -0.153464 -0.0217807 0.122775 0.271996 0.366915 0.386048 0.329576 0.194344 0 -0.741619 -0.695238 -0.684952 -0.64705 -0.609759 -0.581011 -0.55145 -0.510961 -0.462227 -0.412631 -0.364818 -0.326471 -0.307038 -0.313766 -0.333702 -0.356895 -0.394288 -0.454298 -0.533663 -0.605559 -0.608131 -0.429367 -0.230487 -0.0651465 0.0679192 0.225521 0.355129 0.409543 0.365089 0.224931 0 -0.925049 -0.874143 -0.864402 -0.833057 -0.819108 -0.806746 -0.781972 -0.746241 -0.705934 -0.657817 -0.598352 -0.529785 -0.460706 -0.396692 -0.350196 -0.340266 -0.350765 -0.363007 -0.402348 -0.457387 -0.501159 -0.474962 -0.289089 -0.106899 0.0235175 0.170794 0.322608 0.414871 0.403293 0.260619 0 -0.875405 -0.826014 -0.817607 -0.804483 -0.821074 -0.82607 -0.820634 -0.812291 -0.800965 -0.780312 -0.746524 -0.703581 -0.642856 -0.564005 -0.474722 -0.389156 -0.329471 -0.313927 -0.316543 -0.326972 -0.361542 -0.377023 -0.31204 -0.146207 -0.00629236 0.113189 0.276345 0.404572 0.43798 0.301949 0 -0.726029 -0.700713 -0.699211 -0.691693 -0.704008 -0.706104 -0.70792 -0.717701 -0.734983 -0.755598 -0.771856 -0.767515 -0.737919 -0.682629 -0.614383 -0.527247 -0.426359 -0.328997 -0.264635 -0.249053 -0.250657 -0.252892 -0.238445 -0.148269 0.00105849 0.0919627 0.214992 0.374212 0.454441 0.349784 0 -0.583459 -0.590054 -0.590046 -0.588089 -0.600054 -0.603505 -0.609893 -0.624052 -0.641038 -0.657024 -0.671111 -0.684127 -0.695894 -0.701145 -0.678343 -0.621572 -0.543778 -0.450902 -0.344657 -0.240366 -0.173099 -0.157435 -0.146436 -0.0960278 0.0271918 0.121181 0.178938 0.31924 0.457116 0.400382 0 -0.428705 -0.482879 -0.479934 -0.48426 -0.499765 -0.506767 -0.518116 -0.534145 -0.549686 -0.561038 -0.568777 -0.574496 -0.581033 -0.588803 -0.598245 -0.606644 -0.592047 -0.538122 -0.454281 -0.355882 -0.2436 -0.132373 -0.0627665 -0.0268373 0.0419437 0.17436 0.216285 0.268232 0.421962 0.4494 0 -0.268313 -0.377048 -0.365941 -0.381528 -0.403334 -0.41311 -0.428516 -0.443951 -0.455359 -0.461475 -0.464568 -0.467029 -0.470347 -0.475204 -0.481362 -0.488525 -0.495867 -0.503236 -0.492639 -0.442668 -0.353728 -0.245588 -0.123583 -0.00854343 0.0759601 0.171368 0.271587 0.270597 0.350202 0.493707 0 -0.105246 -0.259958 -0.258099 -0.283141 -0.308271 -0.319744 -0.336041 -0.348626 -0.354176 -0.356424 -0.357291 -0.358306 -0.360337 -0.363747 -0.368274 -0.37336 -0.378562 -0.383813 -0.388731 -0.394129 -0.384578 -0.336544 -0.242448 -0.121181 0.00781199 0.133679 0.23192 0.280252 0.271042 0.437427 0 0.086061 -0.131967 -0.16861 -0.189991 -0.20662 -0.218864 -0.236737 -0.2452 -0.247876 -0.248158 -0.247997 -0.248479 -0.250075 -0.252787 -0.256197 -0.259716 -0.263072 -0.266479 -0.270378 -0.274882 -0.280368 -0.283783 -0.273584 -0.223088 -0.119071 0.00724879 0.145898 0.194992 0.211317 0.304515 0 0.420817 -0.0392662 -0.112357 -0.0961845 -0.100617 -0.11511 -0.124625 -0.127349 -0.129225 -0.128022 -0.127258 -0.127313 -0.128745 -0.131396 -0.134173 -0.136392 -0.138112 -0.139896 -0.142325 -0.145773 -0.150068 -0.155258 -0.161451 -0.165268 -0.155589 -0.105333 -0.0176149 0.111969 0.0712118 0.206064 0 3.26128 0 0 0 0 0 0 0 0 0 0 0 0 0 0 0 0 0 0 0 0 0 0 0 0 0 0 0 0 0 0
				</DataArray>
			</PointData>
			<CellData Scalars="Density">
				<DataArray Name="Density" type="Float32" format="ascii">