<?xml version="1.0"?>
<VTKFile type="PolyData">
	<PolyData>
		<Piece NumberOfPoints="961" NumberOfPolys="900">
			<Points>
				<DataArray type="Float32" NumberOfComponents="3" format="ascii">
 0 0 0 0.04 0 0 0.08 0 0 0.12 0 0 0.16 0 0 0.2 0 0 0.24 0 0 0.28 0 0 0.32 0 0 0.36 0 0 0.4 0 0 0.44 0 0 0.48 0 0 0.52 0 0 0.56 0 0 0.6 0 0 0.64 0 0 0.68 0 0 0.72 0 0 0.76 0 0 0.8 0 0 0.84 0 0 0.88 0 0 0.92 0 0 0.96 0 0 1 0 0 1.04 0 0 1.08 0 0 1.12 0 0 1.16 0 0 1.2 0 0 0 0.04 0 0.04 0.04 0 0.08 0.04 0 0.12 0.04 0 0.16 0.04 0 0.2 0.04 0 0.24 0.04 0 0.28 0.04 0 0.32 0.04 0 0.36 0.04 0 0.4 0.04 0 0.44 0.04 0 0.48 0.04 0 0.52 0.04 0 0.56 0.04 0 0.6 0.04 0 0.64 0.04 0 0.68 0.04 0 0.72 0.04 0 0.76 0.04 0 0.8 0.04 0 0.84 0.04 0 0.88 0.04 0 0.92 0.04 0 0.96 0.04 0 1 0.04 0 1.04 0.04 0 1.08 0.04 0 1.12 0.04 0 1.16 0.04 0 1.2 0.04 0 0 0.08 0 0.04 0.08 0 0.08 0.08 0 0.12 0.08 0 0.16 0.08 0 0.2 0.08 0 0.24 0.08 0 0.28 0.08 0 0.32 0.08 0 0.36 0.08 0 0.4 0.08 0 0.44 0.08 0 0.48 0.08 0 0.52 0.08 0 0.56 0.08 0 0.6 0.08 0 0.64 0.08 0 0.68 0.08 0 0.72 0.08 0 0.76 0.08 0 0.8 0.08 0 0.84 0.08 0 0.88 0.08 0 0.92 0.08 0 0.96 0.08 0 1 0.08 0 1.04 0.08 0 1.08 0.08 0 1.12 0.08 0 1.16 0.08 0 1.2 0.08 0 0 0.12 0 0.04 0.12 0 0.08 0.12 0 0.12 0.12 0 0.16 0.12 0 0.2 0.12 0 0.24 0.12 0 0.28 0.12 0 0.32 0.12 0 0.36 0.12 0 0.4 0.12 0 0.44 0.12 0 0.48 0.12 0 0.52 0.12 0 0.56 0.12 0 0.6 0.12 0 0.64 0.12 0 0.68 0.12 0 0.72 0.12 0 0.76 0.12 0 0.8 0.12 0 0.84 0.12 0 0.88 0.12 0 0.92 0.12 0 0.96 0.12 0 1 0.12 0 1.04 0.12 0 1.08 0.12 0 1.12 0.12 0 1.16 0.12 0 1.2 0.12 0 0 0.16 0 0.04 0.16 0 0.08 0.16 0 0.12 0.16 0 0.16 0.16 0 0.2 0.16 0 0.24 0.16 0 0.28 0.16 0 0.32 0.16 0 0.36 0.16 0 0.4 0.16 0 0.44 0.16 0 0.48 0.16 0 0.52 0.16 0 0.56 0.16 0 0.6 0.16 0 0.64 0.16 0 0.68 0.16 0 0.72 0.16 0 0.76 0.16 0 0.8 0.16 0 0.84 0.16 0 0.88 0.16 0 0.92 0.16 0 0.96 0.16 0 1 0.16 0 1.04 0.16 0 1.08 0.16 0 1.12 0.16 0 1.16 0.16 0 1.2 0.16 0 0 0.2 0 0.04 0.2 0 0.08 0.2 0 0.12 0.2 0 0.16 0.2 0 0.2 0.2 0 0.24 0.2 0 0.28 0.2 0 0.32 0.2 0 0.36 0.2 0 0.4 0.2 0 0.44 0.2 0 0.48 0.2 0 0.52 0.2 0 0.56 0.2 0 0.6 0.2 0 0.64 0.2 0 0.68 0.2 0 0.72 0.2 0 0.76 0.2 0 0.8 0.2 0 0.84 0.2 0 0.88 0.2 0 0.92 0.2 0 0.96 0.2 0 1 0.2 0 1.04 0.2 0 1.08 0.2 0 1.12 0.2 0 1.16 0.2 0 1.2 0.2 0 0 0.24 0 0.04 0.24 0 0.08 0.24 0 0.12 0.24 0 0.16 0.24 0 0.2 0.24 0 0.24 0.24 0 0.28 0.24 0 0.32 0.24 0 0.36 0.24 0 0.4 0.24 0 0.44 0.24 0 0.48 0.24 0 0.52 0.24 0 0.56 0.24 0 0.6 0.24 0 0.64 0.24 0 0.68 0.24 0 0.72 0.24 0 0.76 0.24 0 0.8 0.24 0 0.84 0.24 0 0.88 0.24 0 0.92 0.24 0 0.96 0.24 0 1 0.24 0 1.04 0.24 0 1.08 0.24 0 1.12 0.24 0 1.16 0.24 0 1.2 0.24 0 0 0.28 0 0.04 0.28 0 0.08 0.28 0 0.12 0.28 0 0.16 0.28 0 0.2 0.28 0 0.24 0.28 0 0.28 0.28 0 0.32 0.28 0 0.36 0.28 0 0.4 0.28 0 0.44 0.28 0 0.48 0.28 0 0.52 0.28 0 0.56 0.28 0 0.6 0.28 0 0.64 0.28 0 0.68 0.28 0 0.72 0.28 0 0.76 0.28 0 0.8 0.28 0 0.84 0.28 0 0.88 0.28 0 0.92 0.28 0 0.96 0.28 0 1 0.28 0 1.04 0.28 0 1.08 0.28 0 1.12 0.28 0 1.16 0.28 0 1.2 0.28 0 0 0.32 0 0.04 0.32 0 0.08 0.32 0 0.12 0.32 0 0.16 0.32 0 0.2 0.32 0 0.24 0.32 0 0.28 0.32 0 0.32 0.32 0 0.36 0.32 0 0.4 0.32 0 0.44 0.32 0 0.48 0.32 0 0.52 0.32 0 0.56 0.32 0 0.6 0.32 0 0.64 0.32 0 0.68 0.32 0 0.72 0.32 0 0.76 0.32 0 0.8 0.32 0 0.84 0.32 0 0.88 0.32 0 0.92 0.32 0 0.96 0.32 0 1 0.32 0 1.04 0.32 0 1.08 0.32 0 1.12 0.32 0 1.16 0.32 0 1.2 0.32 0 0 0.36 0 0.04 0.36 0 0.08 0.36 0 0.12 0.36 0 0.16 0.36 0 0.2 0.36 0 0.24 0.36 0 0.28 0.36 0 0.32 0.36 0 0.36 0.36 0 0.4 0.36 0 0.44 0.36 0 0.48 0.36 0 0.52 0.36 0 0.56 0.36 0 0.6 0.36 0 0.64 0.36 0 0.68 0.36 0 0.72 0.36 0 0.76 0.36 0 0.8 0.36 0 0.84 0.36 0 0.88 0.36 0 0.92 0.36 0 0.96 0.36 0 1 0.36 0 1.04 0.36 0 1.08 0.36 0 1.12 0.36 0 1.16 0.36 0 1.2 0.36 0 0 0.4 0 0.04 0.4 0 0.08 0.4 0 0.12 0.4 0 0.16 0.4 0 0.2 0.4 0 0.24 0.4 0 0.28 0.4 0 0.32 0.4 0 0.36 0.4 0 0.4 0.4 0 0.44 0.4 0 0.48 0.4 0 0.52 0.4 0 0.56 0.4 0 0.6 0.4 0 0.64 0.4 0 0.68 0.4 0 0.72 0.4 0 0.76 0.4 0 0.8 0.4 0 0.84 0.4 0 0.88 0.4 0 0.92 0.4 0 0.96 0.4 0 1 0.4 0 1.04 0.4 0 1.08 0.4 0 1.12 0.4 0 1.16 0.4 0 1.2 0.4 0 0 0.44 0 0.04 0.44 0 0.08 0.44 0 0.12 0.44 0 0.16 0.44 0 0.2 0.44 0 0.24 0.44 0 0.28 0.44 0 0.32 0.44 0 0.36 0.44 0 0.4 0.44 0 0.44 0.44 0 0.48 0.44 0 0.52 0.44 0 0.56 0.44 0 0.6 0.44 0 0.64 0.44 0 0.68 0.44 0 0.72 0.44 0 0.76 0.44 0 0.8 0.44 0 0.84 0.44 0 0.88 0.44 0 0.92 0.44 0 0.96 0.44 0 1 0.44 0 1.04 0.44 0 1.08 0.44 0 1.12 0.44 0 1.16 0.44 0 1.2 0.44 0 0 0.48 0 0.04 0.48 0 0.08 0.48 0 0.12 0.48 0 0.16 0.48 0 0.2 0.48 0 0.24 0.48 0 0.28 0.48 0 0.32 0.48 0 0.36 0.48 0 0.4 0.48 0 0.44 0.48 0 0.48 0.48 0 0.52 0.48 0 0.56 0.48 0 0.6 0.48 0 0.64 0.48 0 0.68 0.48 0 0.72 0.48 0 0.76 0.48 0 0.8 0.48 0 0.84 0.48 0 0.88 0.48 0 0.92 0.48 0 0.96 0.48 0 1 0.48 0 1.04 0.48 0 1.08 0.48 0 1.12 0.48 0 1.16 0.48 0 1.2 0.48 0 0 0.52 0 0.04 0.52 0 0.08 0.52 0 0.12 0.52 0 0.16 0.52 0 0.2 0.52 0 0.24 0.52 0 0.28 0.52 0 0.32 0.52 0 0.36 0.52 0 0.4 0.52 0 0.44 0.52 0 0.48 0.52 0 0.52 0.52 0 0.56 0.52 0 0.6 0.52 0 0.64 0.52 0 0.68 0.52 0 0.72 0.52 0 0.76 0.52 0 0.8 0.52 0 0.84 0.52 0 0.88 0.52 0 0.92 0.52 0 0.96 0.52 0 1 0.52 0 1.04 0.52 0 1.08 0.52 0 1.12 0.52 0 1.16 0.52 0 1.2 0.52 0 0 0.56 0 0.04 0.56 0 0.08 0.56 0 0.12 0.56 0 0.16 0.56 0 0.2 0.56 0 0.24 0.56 0 0.28 0.56 0 0.32 0.56 0 0.36 0.56 0 0.4 0.56 0 0.44 0.56 0 0.48 0.56 0 0.52 0.56 0 0.56 0.56 0 0.6 0.56 0 0.64 0.56 0 0.68 0.56 0 0.72 0.56 0 0.76 0.56 0 0.8 0.56 0 0.84 0.56 0 0.88 0.56 0 0.92 0.56 0 0.96 0.56 0 1 0.56 0 1.04 0.56 0 1.08 0.56 0 1.12 0.56 0 1.16 0.56 0 1.2 0.56 0 0 0.6 0 0.04 0.6 0 0.08 0.6 0 0.12 0.6 0 0.16 0.6 0 0.2 0.6 0 0.24 0.6 0 0.28 0.6 0 0.32 0.6 0 0.36 0.6 0 0.4 0.6 0 0.44 0.6 0 0.48 0.6 0 0.52 0.6 0 0.56 0.6 0 0.6 0.6 0 0.64 0.6 0 0.68 0.6 0 0.72 0.6 0 0.76 0.6 0 0.8 0.6 0 0.84 0.6 0 0.88 0.6 0 0.92 0.6 0 0.96 0.6 0 1 0.6 0 1.04 0.6 0 1.08 0.6 0 1.12 0.6 0 1.16 0.6 0 1.2 0.6 0 0 0.64 0 0.04 0.64 0 0.08 0.64 0 0.12 0.64 0 0.16 0.64 0 0.2 0.64 0 0.24 0.64 0 0.28 0.64 0 0.32 0.64 0 0.36 0.64 0 0.4 0.64 0 0.44 0.64 0 0.48 0.64 0 0.52 0.64 0 0.56 0.64 0 0.6 0.64 0 0.64 0.64 0 0.68 0.64 0 0.72 0.64 0 0.76 0.64 0 0.8 0.64 0 0.84 0.64 0 0.88 0.64 0 0.92 0.64 0 0.96 0.64 0 1 0.64 0 1.04 0.64 0 1.08 0.64 0 1.12 0.64 0 1.16 0.64 0 1.2 0.64 0 0 0.68 0 0.04 0.68 0 0.08 0.68 0 0.12 0.68 0 0.16 0.68 0 0.2 0.68 0 0.24 0.68 0 0.28 0.68 0 0.32 0.68 0 0.36 0.68 0 0.4 0.68 0 0.44 0.68 0 0.48 0.68 0 0.52 0.68 0 0.56 0.68 0 0.6 0.68 0 0.64 0.68 0 0.68 0.68 0 0.72 0.68 0 0.76 0.68 0 0.8 0.68 0 0.84 0.68 0 0.88 0.68 0 0.92 0.68 0 0.96 0.68 0 1 0.68 0 1.04 0.68 0 1.08 0.68 0 1.12 0.68 0 1.16 0.68 0 1.2 0.68 0 0 0.72 0 0.04 0.72 0 0.08 0.72 0 0.12 0.72 0 0.16 0.72 0 0.2 0.72 0 0.24 0.72 0 0.28 0.72 0 0.32 0.72 0 0.36 0.72 0 0.4 0.72 0 0.44 0.72 0 0.48 0.72 0 0.52 0.72 0 0.56 0.72 0 0.6 0.72 0 0.64 0.72 0 0.68 0.72 0 0.72 0.72 0 0.76 0.72 0 0.8 0.72 0 0.84 0.72 0 0.88 0.72 0 0.92 0.72 0 0.96 0.72 0 1 0.72 0 1.04 0.72 0 1.08 0.72 0 1.12 0.72 0 1.16 0.72 0 1.2 0.72 0 0 0.76 0 0.04 0.76 0 0.08 0.76 0 0.12 0.76 0 0.16 0.76 0 0.2 0.76 0 0.24 0.76 0 0.28 0.76 0 0.32 0.76 0 0.36 0.76 0 0.4 0.76 0 0.44 0.76 0 0.48 0.76 0 0.52 0.76 0 0.56 0.76 0 0.6 0.76 0 0.64 0.76 0 0.68 0.76 0 0.72 0.76 0 0.76 0.76 0 0.8 0.76 0 0.84 0.76 0 0.88 0.76 0 0.92 0.76 0 0.96 0.76 0 1 0.76 0 1.04 0.76 0 1.08 0.76 0 1.12 0.76 0 1.16 0.76 0 1.2 0.76 0 0 0.8 0 0.04 0.8 0 0.08 0.8 0 0.12 0.8 0 0.16 0.8 0 0.2 0.8 0 0.24 0.8 0 0.28 0.8 0 0.32 0.8 0 0.36 0.8 0 0.4 0.8 0 0.44 0.8 0 0.48 0.8 0 0.52 0.8 0 0.56 0.8 0 0.6 0.8 0 0.64 0.8 0 0.68 0.8 0 0.72 0.8 0 0.76 0.8 0 0.8 0.8 0 0.84 0.8 0 0.88 0.8 0 0.92 0.8 0 0.96 0.8 0 1 0.8 0 1.04 0.8 0 1.08 0.8 0 1.12 0.8 0 1.16 0.8 0 1.2 0.8 0 0 0.84 0 0.04 0.84 0 0.08 0.84 0 0.12 0.84 0 0.16 0.84 0 0.2 0.84 0 0.24 0.84 0 0.28 0.84 0 0.32 0.84 0 0.36 0.84 0 0.4 0.84 0 0.44 0.84 0 0.48 0.84 0 0.52 0.84 0 0.56 0.84 0 0.6 0.84 0 0.64 0.84 0 0.68 0.84 0 0.72 0.84 0 0.76 0.84 0 0.8 0.84 0 0.84 0.84 0 0.88 0.84 0 0.92 0.84 0 0.96 0.84 0 1 0.84 0 1.04 0.84 0 1.08 0.84 0 1.12 0.84 0 1.16 0.84 0 1.2 0.84 0 0 0.88 0 0.04 0.88 0 0.08 0.88 0 0.12 0.88 0 0.16 0.88 0 0.2 0.88 0 0.24 0.88 0 0.28 0.88 0 0.32 0.88 0 0.36 0.88 0 0.4 0.88 0 0.44 0.88 0 0.48 0.88 0 0.52 0.88 0 0.56 0.88 0 0.6 0.88 0 0.64 0.88 0 0.68 0.88 0 0.72 0.88 0 0.76 0.88 0 0.8 0.88 0 0.84 0.88 0 0.88 0.88 0 0.92 0.88 0 0.96 0.88 0 1 0.88 0 1.04 0.88 0 1.08 0.88 0 1.12 0.88 0 1.16 0.88 0 1.2 0.88 0 0 0.92 0 0.04 0.92 0 0.08 0.92 0 0.12 0.92 0 0.16 0.92 0 0.2 0.92 0 0.24 0.92 0 0.28 0.92 0 0.32 0.92 0 0.36 0.92 0 0.4 0.92 0 0.44 0.92 0 0.48 0.92 0 0.52 0.92 0 0.56 0.92 0 0.6 0.92 0 0.64 0.92 0 0.68 0.92 0 0.72 0.92 0 0.76 0.92 0 0.8 0.92 0 0.84 0.92 0 0.88 0.92 0 0.92 0.92 0 0.96 0.92 0 1 0.92 0 1.04 0.92 0 1.08 0.92 0 1.12 0.92 0 1.16 0.92 0 1.2 0.92 0 0 0.96 0 0.04 0.96 0 0.08 0.96 0 0.12 0.96 0 0.16 0.96 0 0.2 0.96 0 0.24 0.96 0 0.28 0.96 0 0.32 0.96 0 0.36 0.96 0 0.4 0.96 0 0.44 0.96 0 0.48 0.96 0 0.52 0.96 0 0.56 0.96 0 0.6 0.96 0 0.64 0.96 0 0.68 0.96 0 0.72 0.96 0 0.76 0.96 0 0.8 0.96 0 0.84 0.96 0 0.88 0.96 0 0.92 0.96 0 0.96 0.96 0 1 0.96 0 1.04 0.96 0 1.08 0.96 0 1.12 0.96 0 1.16 0.96 0 1.2 0.96 0 0 1 0 0.04 1 0 0.08 1 0 0.12 1 0 0.16 1 0 0.2 1 0 0.24 1 0 0.28 1 0 0.32 1 0 0.36 1 0 0.4 1 0 0.44 1 0 0.48 1 0 0.52 1 0 0.56 1 0 0.6 1 0 0.64 1 0 0.68 1 0 0.72 1 0 0.76 1 0 0.8 1 0 0.84 1 0 0.88 1 0 0.92 1 0 0.96 1 0 1 1 0 1.04 1 0 1.08 1 0 1.12 1 0 1.16 1 0 1.2 1 0 0 1.04 0 0.04 1.04 0 0.08 1.04 0 0.12 1.04 0 0.16 1.04 0 0.2 1.04 0 0.24 1.04 0 0.28 1.04 0 0.32 1.04 0 0.36 1.04 0 0.4 1.04 0 0.44 1.04 0 0.48 1.04 0 0.52 1.04 0 0.56 1.04 0 0.6 1.04 0 0.64 1.04 0 0.68 1.04 0 0.72 1.04 0 0.76 1.04 0 0.8 1.04 0 0.84 1.04 0 0.88 1.04 0 0.92 1.04 0 0.96 1.04 0 1 1.04 0 1.04 1.04 0 1.08 1.04 0 1.12 1.04 0 1.16 1.04 0 1.2 1.04 0 0 1.08 0 0.04 1.08 0 0.08 1.08 0 0.12 1.08 0 0.16 1.08 0 0.2 1.08 0 0.24 1.08 0 0.28 1.08 0 0.32 1.08 0 0.36 1.08 0 0.4 1.08 0 0.44 1.08 0 0.48 1.08 0 0.52 1.08 0 0.56 1.08 0 0.6 1.08 0 0.64 1.08 0 0.68 1.08 0 0.72 1.08 0 0.76 1.08 0 0.8 1.08 0 0.84 1.08 0 0.88 1.08 0 0.92 1.08 0 0.96 1.08 0 1 1.08 0 1.04 1.08 0 1.08 1.08 0 1.12 1.08 0 1.16 1.08 0 1.2 1.08 0 0 1.12 0 
[...]
			<PointData Scalars="VitesseX">
				<DataArray Name="VitesseX" type="Float32" format="ascii">
 0 -0.0743419 -0.146531 -0.144108 -0.090656 0.00996917 0.126372 0.230503 0.29202 0.301634 0.271988 0.221843 0.164889 0.112511 0.0709169 0.0396813 0.0134648 -0.0793927 -0.444494 -0.843892 -1.02119 -0.96815 -0.853823 -0.750132 -0.647402 -0.544269 -0.440059 -0.334367 -0.227077 -0.115434 0 0 0.0506095 0.00608851 -0.0234077 0.00615495 0.0681916 0.154414 0.237137 0.285665 0.286717 0.253159 0.203869 0.152268 0.105897 0.0681753 0.0393755 0.0137653 -0.075983 -0.436776 -0.837078 -1.01773 -0.968733 -0.854068 -0.750418 -0.647793 -0.544781 -0.440635 -0.334952 -0.227513 -0.115413 0 0 0.024706 0.0468823 0.0295492 0.0235291 0.0360417 0.057693 0.0923274 0.1321 0.155204 0.153419 0.133743 0.105836 0.0769193 0.0518864 0.0307478 0.00944628 -0.0702469 -0.416189 -0.817404 -1.00728 -0.970345 -0.854465 -0.750671 -0.64808 -0.54517 -0.441162 -0.335635 -0.228121 -0.115515 0 0 -0.034896 -0.0569026 -0.0677963 -0.0826219 -0.0879869 -0.0851028 -0.0717568 -0.0493867 -0.0222831 0.00566042 0.0241176 0.031512 0.0293605 0.0218909 0.0124124 -0.00193682 -0.0662774 -0.385715 -0.785433 -0.98947 -0.973697 -0.855882 -0.751681 -0.649005 -0.546101 -0.442222 -0.336926 -0.229486 -0.11637 0 0 -0.0832801 -0.131351 -0.159869 -0.178149 -0.192807 -0.199317 -0.197643 -0.178709 -0.143885 -0.10659 -0.0712585 -0.0438035 -0.0251378 -0.0153946 -0.0137301 -0.0204779 -0.0675938 -0.348378 -0.741406 -0.963461 -0.978339 -0.858835 -0.75379 -0.650903 -0.547895 -0.44404 -0.338903 -0.231578 -0.117972 0 0 -0.112291 -0.184941 -0.223419 -0.251194 -0.271702 -0.284473 -0.28856 -0.27177 -0.233483 -0.189032 -0.145327 -0.106059 -0.0751203 -0.054702 -0.044907 -0.0451069 -0.0764766 -0.308229 -0.685665 -0.931816 -0.979447 -0.863549 -0.75712 -0.653802 -0.550509 -0.446485 -0.341309 -0.233986 -0.119764 0 0 -0.12497 -0.205279 -0.251331 -0.286557 -0.315274 -0.335876 -0.346183 -0.339793 -0.303306 -0.251104 -0.201387 -0.156403 -0.119442 -0.0934009 -0.0785364 -0.0744274 -0.095039 -0.270583 -0.621601 -0.89228 -0.972225 -0.869831 -0.761632 -0.657539 -0.553718 -0.449283 -0.343841 -0.236303 -0.12124 0 0 -0.111054 -0.196369 -0.252277 -0.293351 -0.327215 -0.356707 -0.376569 -0.383239 -0.364711 -0.313231 -0.254626 -0.204232 -0.162765 -0.132465 -0.114196 -0.107762 -0.122668 -0.241405 -0.552657 -0.839741 -0.951868 -0.878818 -0.767187 -0.661962 -0.557326 -0.452252 -0.3464 -0.238437 -0.122068 0 0 -0.0741766 -0.140446 -0.195841 -0.247379 -0.30319 -0.351977 -0.386845 -0.406714 -0.409916 -0.383299 -0.323706 -0.262402 -0.213189 -0.176097 -0.152881 -0.144261 -0.15527 -0.226971 -0.482571 -0.770891 -0.91428 -0.889339 -0.774094 -0.667084 -0.561286 -0.455385 -0.348991 -0.240489 -0.122749 0 0 -0.025254 -0.0585807 -0.105953 -0.15937 -0.223682 -0.301816 -0.372364 -0.416851 -0.437883 -0.437633 -0.405149 -0.340706 -0.277993 -0.230491 -0.197906 -0.183521 -0.18973 -0.233823 -0.416655 -0.687031 -0.860058 -0.893334 -0.782553 -0.672938 -0.565688 -0.458769 -0.351633 -0.242491 -0.123518 0 0 0.0105055 0.00764915 -0.0271111 -0.0845738 -0.151768 -0.229451 -0.321729 -0.404373 -0.454154 -0.475799 -0.472022 -0.433134 -0.363206 -0.29936 -0.2544 -0.228636 -0.225816 -0.257593 -0.3638 -0.595484 -0.796264 -0.873002 -0.792835 -0.679638 -0.570668 -0.462487 -0.3544 -0.244716 -0.124655 0 0 0.0276066 0.0411526 0.0191652 -0.0328811 -0.100183 -0.176174 -0.262438 -0.361631 -0.448453 -0.500355 -0.521791 -0.514539 -0.467521 -0.390454 -0.326278 -0.285352 -0.268621 -0.285022 -0.339427 -0.50913 -0.714398 -0.824429 -0.803601 -0.688037 -0.576573 -0.46676 -0.357536 -0.247418 -0.12641 0 0 0.0308786 0.0471117 0.034147 -0.00915587 -0.070959 -0.143944 -0.22249 -0.310393 -0.41163 -0.50053 -0.553622 -0.574275 -0.564067 -0.506902 -0.421438 -0.357069 -0.323232 -0.315878 -0.34525 -0.435858 -0.616504 -0.756171 -0.798633 -0.698042 -0.583705 -0.472032 -0.361507 -0.250841 -0.129335 0 0 0.0253128 0.0381106 0.0278588 -0.0080162 -0.0639385 -0.129008 -0.198951 -0.273572 -0.358868 -0.460425 -0.553911 -0.60992 -0.630151 -0.616834 -0.546663 -0.453744 -0.390281 -0.359572 -0.364252 -0.391867 -0.518433 -0.675014 -0.757617 -0.709639 -0.592586 -0.478613 -0.366587 -0.254948 -0.132949 0 0 0.0130222 0.0167323 0.00369694 -0.0289365 -0.0754509 -0.129414 -0.186112 -0.246903 -0.314734 -0.394759 -0.496766 -0.600786 -0.664057 -0.684968 -0.666917 -0.580666 -0.480197 -0.420864 -0.387897 -0.388642 -0.433093 -0.575236 -0.686016 -0.711319 -0.602488 -0.486254 -0.372404 -0.259315 -0.13618 0 0 -0.00196883 -0.00991867 -0.0293802 -0.0616124 -0.102187 -0.143058 -0.182621 -0.224691 -0.274804 -0.335901 -0.411103 -0.512723 -0.63208 -0.710092 -0.732508 -0.704987 -0.603428 -0.494065 -0.431187 -0.39964 -0.384574 -0.468496 -0.599987 -0.672713 -0.613183 -0.494459 -0.378327 -0.263379 -0.138654 0 0 -0.018484 -0.0386495 -0.0634423 -0.0943112 -0.126753 -0.156666 -0.182193 -0.206498 -0.236137 -0.277863 -0.334643 -0.407814 -0.507532 -0.640026 -0.740156 -0.768713 -0.72172 -0.60513 -0.490628 -0.415609 -0.381672 -0.37814 -0.495909 -0.597562 -0.614729 -0.502307 -0.384067 -0.267165 -0.140586 0 0 -0.0337461 -0.0650487 -0.0915006 -0.113809 -0.132977 -0.149702 -0.164841 -0.17992 -0.19745 -0.222403 -0.260965 -0.315768 -0.388859 -0.485392 -0.62008 -0.739291 -0.777789 -0.706416 -0.576863 -0.460338 -0.382556 -0.334239 -0.383914 -0.505289 -0.577024 -0.510392 -0.389652 -0.270947 -0.142651 0 0 -0.0326599 -0.0611683 -0.0795073 -0.0878638 -0.0945983 -0.102881 -0.113651 -0.127499 -0.14475 -0.165027 -0.192722 -0.232078 -0.283301 -0.351886 -0.444808 -0.572167 -0.69797 -0.748544 -0.65615 -0.519182 -0.399373 -0.327957 -0.292811 -0.397016 -0.498487 -0.509562 -0.394957 -0.275192 -0.145445 0 0 -0.0115894 -0.0267873 -0.0292859 -0.0282686 -0.026833 -0.0256285 -0.0276121 -0.038924 -0.0614524 -0.0930035 -0.125627 -0.153511 -0.18823 -0.238256 -0.298798 -0.382935 -0.49874 -0.61895 -0.67477 -0.571588 -0.43813 -0.323658 -0.252953 -0.279856 -0.399878 -0.473311 -0.400857 -0.280037 -0.149269 0 0 0.00589605 0.00458685 0.0180342 0.0258177 0.0377737 0.0545969 0.0630004 0.0552515 0.0350911 0.00782875 -0.0250858 -0.0649812 -0.104383 -0.13448 -0.174797 -0.231642 -0.303302 -0.404694 -0.507964 -0.555921 -0.457174 -0.334783 -0.242561 -0.18664 -0.284659 -0.391032 -0.397415 -0.285896 -0.153915 0 0 0.00420826 0.0213125 0.0412257 0.0503418 0.0766901 0.109612 0.12662 0.127938 0.122321 0.109093 0.0838618 0.0499913 0.0126682 -0.0289133 -0.0714163 -0.104434 -0.150364 -0.214648 -0.29276 -0.369812 -0.408258 -0.325036 -0.223707 -0.14562 -0.159934 -0.282738 -0.361345 -0.289675 -0.159431 0 0 -0.00549533 0.0273469 0.0324688 0.0502387 0.0911506 0.131132 0.153097 0.161621 0.166946 0.172682 0.169447 0.159212 0.137322 0.100009 0.0568311 0.0117513 -0.0331089 -0.0668794 -0.114747 -0.17638 -0.223257 -0.236795 -0.175269 -0.114226 -0.0622462 -0.156191 -0.274576 -0.284401 -0.16599 0 0 -0.010627 0.020103 0.0170487 0.0467853 0.0954135 0.128918 0.1435 0.155682 0.173305 0.193314 0.209173 0.223653 0.228221 0.214171 0.190138 0.150438 0.103257 0.054291 0.014157 -0.0208406 -0.0500427 -0.0666426 -0.0645201 -0.0346401 0.00390123 -0.0242703 -0.154025 -0.244167 -0.170242 0 0 -0.00914386 0.00463438 0.00678354 0.046613 0.0920323 0.113793 0.122937 0.135212 0.156072 0.182688 0.213049 0.24169 0.265021 0.276656 0.282344 0.268485 0.240977 0.201857 0.153975 0.106623 0.0694719 0.0554465 0.0781475 0.109451 0.104475 0.0909836 -0.0172738 -0.147856 -0.165044 0 0 -0.00708237 -0.0139509 0.000184376 0.0405266 0.0789288 0.0925046 0.0997092 0.115512 0.139806 0.168848 0.199025 0.22879 0.259886 0.289744 0.314582 0.32674 0.332515 0.323212 0.296164 0.257678 0.211269 0.162827 0.152027 0.197945 0.250885 0.218493 0.129343 -0.0215777 -0.12386 0 0 -0.0138149 -0.0316408 -0.0128097 0.0266623 0.056977 0.0651764 0.0742967 0.0948994 0.12284 0.153031 0.182617 0.211871 0.240476 0.268776 0.298498 0.32945 0.358682 0.378642 0.384344 0.379764 0.35432 0.316706 0.265329 0.240504 0.286067 0.33022 0.25562 0.126469 -0.0384485 0 0 -0.0289317 -0.0489153 -0.0228705 0.0116428 0.0273103 0.0302473 0.0439869 0.0686248 0.0971524 0.125814 0.153908 0.18168 0.209666 0.238399 0.268112 0.298803 0.330857 0.364429 0.398744 0.426908 0.437617 0.435885 0.41362 0.367574 0.325372 0.329229 0.32271 0.199447 0.0986831 0 0 -0.0635769 -0.0706046 -0.0271469 -0.00145784 0.000121274 -0.00178214 0.00938929 0.029595 0.0543743 0.0792883 0.10383 0.128932 0.155425 0.183622 0.213225 0.243815 0.275536 0.308234 0.342583 0.379724 0.419622 0.459353 0.4822 0.495749 0.46573 0.399777 0.318258 0.245807 0.0744962 0 0 -0.181176 -0.0616388 -0.0232083 -0.0110645 -0.0154455 -0.019091 -0.0124889 -0.000554888 0.0120103 0.0248264 0.0376022 0.0508301 0.0657452 0.0836581 0.104743 0.128063 0.152486 0.178366 0.206906 0.239343 0.277289 0.321552 0.372625 0.429858 0.487527 0.537645 0.483641 0.346265 0.244606 0 0 0 0 0 0 0 0 0 0 0 0 0 0 0 0 0 0 0 0 0 0 0 0 0 0 0 0 0 0 0 0
				</DataArray>
				<DataArray Name="VitesseY" type="Float32" format="ascii">
 0 0 0 0 0 0 0 0 0 0 0 0 0 0 0 0 0 0 0 0 0 0 0 0 0 0 0 0 0 0 0 -0.0716625 0.0506005 0.0212951 -0.0391082 -0.0889037 -0.118895 -0.129 -0.103141 -0.052207 -0.00390721 0.0214724 0.0318538 0.0300813 0.0212116 0.00914182 -0.00118753 -0.00807633 -0.00700552 0.00375763 0.0173777 0.0254626 0.026958 0.024658 0.0225878 0.0202522 0.017482 0.0140558 0.00967529 0.00540686 0.00209646 0 -0.14686 0.00567922 0.0437821 -0.0595925 -0.136874 -0.19049 -0.210408 -0.18427 -0.104616 -0.0210558 0.0282585 0.0478846 0.0468021 0.0321303 0.0116107 -0.00630391 -0.0177622 -0.0149084 0.00616024 0.0336129 0.0502925 0.0538284 0.049369 0.045259 0.0407183 0.0354041 0.0287193 0.0198527 0.010585 0.00357929 0 -0.14947 -0.0263689 0.0308642 -0.0633292 -0.157259 -0.222308 -0.248284 -0.239635 -0.156738 -0.0646613 -0.000160356 0.0311929 0.0370087 0.0248955 0.00146752 -0.0190811 -0.0318194 -0.0260452 0.00543429 0.0472817 0.073569 0.0801562 0.0739811 0.0679921 0.0614843 0.0537768 0.0440108 0.0308224 0.0159451 0.00473016 0 -0.103151 0.000577761 0.0291505 -0.0671259 -0.165396 -0.239285 -0.272939 -0.275369 -0.207809 -0.121229 -0.0549018 -0.0144424 0.000453549 -0.00354561 -0.0229186 -0.0410555 -0.0516687 -0.0424014 -0.000552665 0.0562198 0.0936946 0.105322 0.0984617 0.09072 0.0825099 0.0726537 0.0601136 0.0430342 0.0222718 0.00623619 0 -0.00892132 0.0569262 0.0486246 -0.0645537 -0.166997 -0.247731 -0.290555 -0.300834 -0.263708 -0.184321 -0.119788 -0.0753908 -0.0529206 -0.0486684 -0.058865 -0.0711191 -0.0771955 -0.0649937 -0.0136348 0.056705 0.107087 0.127216 0.123054 0.113428 0.103829 0.0922168 0.0773327 0.0570245 0.0304762 0.00885678 0 0.101912 0.138285 0.0752814 -0.0516829 -0.161994 -0.248794 -0.301554 -0.321014 -0.312478 -0.256322 -0.19082 -0.144689 -0.115652 -0.102851 -0.102254 -0.106969 -0.107643 -0.0930588 -0.0354151 0.0462508 0.113542 0.145663 0.147697 0.136004 0.125483 0.112562 0.0957645 0.0728495 0.0408642 0.0127612 0 0.208961 0.222219 0.112013 -0.031497 -0.151069 -0.242481 -0.303281 -0.334806 -0.344264 -0.325688 -0.271606 -0.219269 -0.18422 -0.161804 -0.150594 -0.146173 -0.141513 -0.124321 -0.0661696 0.0255466 0.113134 0.161429 0.170969 0.158573 0.147455 0.133507 0.115144 0.0898774 0.0528972 0.0174245 0 0.284381 0.287029 0.153847 -0.00711361 -0.128075 -0.221226 -0.291856 -0.337276 -0.361276 -0.370233 -0.351802 -0.304357 -0.258745 -0.226833 -0.203838 -0.188298 -0.176573 -0.155711 -0.102848 -0.0029978 0.103963 0.171164 0.191628 0.181722 0.16957 0.154758 0.135081 0.107477 0.0659925 0.0222398 0 0.315175 0.310629 0.18482 0.0195362 -0.095137 -0.179603 -0.252309 -0.317343 -0.362979 -0.390785 -0.404841 -0.390696 -0.345989 -0.300533 -0.265052 -0.236445 -0.212605 -0.186288 -0.14049 -0.0395152 0.0797837 0.167743 0.205801 0.206155 0.191394 0.176261 0.155501 0.125757 0.079988 0.0276413 0 0.302487 0.292811 0.193571 0.0474977 -0.0578802 -0.131188 -0.190893 -0.2621 -0.337471 -0.392073 -0.429279 -0.449842 -0.438237 -0.389635 -0.337654 -0.293923 -0.254751 -0.218562 -0.174364 -0.0823815 0.041676 0.153132 0.214596 0.228805 0.21351 0.198356 0.176593 0.145175 0.0955593 0.0346084 0 0.262086 0.249434 0.180512 0.071387 -0.0183785 -0.0824695 -0.132345 -0.188614 -0.275818 -0.36406 -0.430964 -0.478294 -0.503913 -0.489729 -0.428161 -0.364503 -0.30789 -0.256202 -0.201319 -0.12777 -0.00297835 0.12854 0.215725 0.247265 0.237745 0.220992 0.198751 0.166265 0.113597 0.0434377 0 0.208123 0.198397 0.155224 0.0849339 0.0165415 -0.0352901 -0.0775487 -0.125661 -0.198822 -0.300361 -0.401435 -0.481187 -0.536074 -0.563303 -0.538078 -0.454881 -0.376633 -0.303383 -0.234564 -0.165174 -0.0501769 0.0862357 0.198556 0.254374 0.263153 0.244098 0.222428 0.189276 0.13457 0.0541696 0 0.153094 0.149433 0.127321 0.0881153 0.0444782 0.00647161 -0.0292137 -0.0733614 -0.13647 -0.224135 -0.335337 -0.448923 -0.540097 -0.597979 -0.622286 -0.574882 -0.464839 -0.369 -0.280312 -0.19237 -0.0998844 0.0349776 0.170195 0.256436 0.284839 0.269457 0.247552 0.214232 0.15861 0.0676097 0 0.106147 0.108096 0.102229 0.0865706 0.0646008 0.03902 0.0078283 -0.0329554 -0.0905137 -0.165946 -0.260943 -0.37683 -0.500613 -0.602279 -0.658127 -0.674052 -0.590377 -0.455868 -0.339779 -0.235065 -0.139218 -0.0158568 0.126047 0.240716 0.294426 0.296801 0.273575 0.241106 0.185426 0.0847242 0 0.0719044 0.0779424 0.0835032 0.0848044 0.0784018 0.0596934 0.0298916 -0.0103535 -0.061496 -0.128143 -0.208238 -0.302761 -0.418538 -0.549274 -0.658945 -0.712332 -0.706186 -0.580026 -0.423913 -0.292417 -0.172748 -0.0674899 0.071915 0.209297 0.295643 0.32176 0.30128 0.269772 0.214288 0.1054 0 0.0519327 0.0602241 0.07136 0.0831881 0.0849539 0.0681988 0.0348049 -0.00702078 -0.0549166 -0.110883 -0.177969 -0.25443 -0.344052 -0.45393 -0.588114 -0.700704 -0.751605 -0.707813 -0.542868 -0.369321 -0.226943 -0.107411 0.0187531 0.164571 0.282615 0.335977 0.33094 0.299927 0.244478 0.128493 0 0.0371383 0.0468377 0.0580653 0.0719882 0.0744286 0.0564407 0.0208376 -0.0237325 -0.0696115 -0.118099 -0.17059 -0.230299 -0.299358 -0.378843 -0.481067 -0.609134 -0.719614 -0.762929 -0.671434 -0.478979 -0.297159 -0.148739 -0.0329716 0.110995 0.251037 0.338399 0.360572 0.331563 0.275964 0.152781 0 -0.113415 -0.0936961 -0.0714749 -0.0401996 -0.0175967 -0.0194296 -0.0437742 -0.0785397 -0.115362 -0.152814 -0.190906 -0.232654 -0.280523 -0.340198 -0.40691 -0.493632 -0.608436 -0.705369 -0.736517 -0.601399 -0.393352 -0.212825 -0.069901 0.0562839 0.20854 0.329945 0.382268 0.364799 0.308542 0.17857 0 -0.498111 -0.461726 -0.435955 -0.392657 -0.34557 -0.316044 -0.300089 -0.284515 -0.26515 -0.250459 -0.251636 -0.270748 -0.29843 -0.328232 -0.368558 -0.421374 -0.486279 -0.578127 -0.655236 -0.66477 -0.497693 -0.289551 -0.115731 0.0115527 0.15679 0.301182 0.38721 0.399103 0.342802 0.207048 0 -0.856199 -0.80573 -0.78499 -0.745156 -0.7099 -0.680211 -0.646145 -0.59936 -0.543247 -0.486953 -0.43262 -0.385168 -0.353188 -0.349435 -0.3637 -0.381021 -0.407958 -0.457739 -0.518405 -0.570874 -0.549983 -0.365445 -0.176766 -0.0243304 0.105932 0.260353 0.382759 0.428159 0.379853 0.239444 0 -0.991076 -0.93584 -0.919588 -0.888462 -0.878359 -0.866472 -0.839563 -0.800753 -0.761816 -0.71761 -0.66083 -0.591046 -0.517283 -0.445724 -0.388511 -0.366353 -0.371202 -0.374991 -0.398598 -0.436678 -0.454852 -0.406053 -0.22362 -0.0531134 0.0661017 0.211641 0.356469 0.439038 0.419666 0.277367 0 -0.891453 -0.839659 -0.831186 -0.818539 -0.833648 -0.838089 -0.835939 -0.835651 -0.833597 -0.820121 -0.78969 -0.747272 -0.690032 -0.613408 -0.521958 -0.429915 -0.35802 -0.328935 -0.324537 -0.321069 -0.333998 -0.323177 -0.236483 -0.0689418 0.0511015 0.161197 0.317771 0.436936 0.459645 0.321618 0 -0.745801 -0.714258 -0.713687 -0.706069 -0.71691 -0.718332 -0.720855 -0.732228 -0.750097 -0.770994 -0.790172 -0.794496 -0.771547 -0.720876 -0.653846 -0.569134 -0.467882 -0.363513 -0.284152 -0.252294 -0.241681 -0.222458 -0.174357 -0.0658065 0.0751461 0.149341 0.264744 0.414369 0.482631 0.37266 0 -0.599855 -0.601177 -0.602981 -0.600178 -0.610795 -0.614377 -0.621893 -0.63721 -0.654629 -0.670556 -0.68466 -0.697571 -0.71012 -0.719357 -0.705794 -0.656459 -0.579946 -0.488775 -0.381847 -0.268866 -0.182711 -0.145986 -0.113381 -0.033821 0.108527 0.195142 0.238835 0.367809 0.496015 0.429946 0 -0.441893 -0.492128 -0.491269 -0.493938 -0.508779 -0.516579 -0.529033 -0.545757 -0.561201 -0.572489 -0.580327 -0.586237 -0.592936 -0.601208 -0.610886 -0.620876 -0.614697 -0.569446 -0.488273 -0.390516 -0.27656 -0.154291 -0.0607918 0.00432206 0.104366 0.24977 0.284246 0.324779 0.465887 0.487638 0 -0.277877 -0.385079 -0.375446 -0.389093 -0.411215 -0.422104 -0.438331 -0.453701 -0.464735 -0.470548 -0.473642 -0.476335 -0.47998 -0.485165 -0.491611 -0.499019 -0.506434 -0.514313 -0.510487 -0.469905 -0.385469 -0.277706 -0.152009 -0.0217606 0.0919603 0.218434 0.329609 0.328588 0.399669 0.537695 0 -0.111436 -0.267246 -0.264777 -0.288712 -0.315296 -0.327868 -0.344223 -0.356232 -0.361337 -0.363355 -0.364215 -0.365352 -0.367618 -0.371288 -0.376012 -0.381199 -0.386443 -0.391709 -0.396812 -0.402643 -0.398294 -0.360073 -0.272164 -0.151723 -0.0155567 0.130265 0.255739 0.322471 0.318087 0.483643 0 0.0829118 -0.136945 -0.172173 -0.193672 -0.212107 -0.225 -0.242593 -0.250521 -0.252759 -0.25293 -0.252818 -0.253405 -0.255138 -0.25798 -0.26147 -0.265012 -0.268416 -0.271937 -0.276018 -0.280755 -0.286504 -0.290327 -0.28476 -0.24383 -0.147125 -0.0208347 0.126989 0.199523 0.245753 0.346243 0 0.418326 -0.041451 -0.112691 -0.0988317 -0.103118 -0.118466 -0.128083 -0.130025 -0.131467 -0.130211 -0.129463 -0.129671 -0.13137 -0.134211 -0.137014 -0.139214 -0.140978 -0.142924 -0.145639 -0.149411 -0.154028 -0.159524 -0.166065 -0.170341 -0.165078 -0.123764 -0.0382868 0.0987976 0.0745177 0.244598 0 3.25754 0 0 0 0 0 0 0 0 0 0 0 0 0 0 0 0 0 0 0 0 0 0 0 0 0 0 0 0 0 0
				</DataArray>
			</PointData>
			<CellData Scalars="Density">
				<DataArray Name="Density" type="Float32" format="ascii">