<?xml version="1.0"?>
<VTKFile type="PolyData">
	<PolyData>
		<Piece NumberOfPoints="961" NumberOfPolys="900">
			<Points>
				<DataArray type="Float32" NumberOfComponents="3" format="ascii">
 0 0 0 0.04 0 0 0.08 0 0 0.12 0 0 0.16 0 0 0.2 0 0 0.24 0 0 0.28 0 0 0.32 0 0 0.36 0 0 0.4 0 0 0.44 0 0 0.48 0 0 0.52 0 0 0.56 0 0 0.6 0 0 0.64 0 0 0.68 0 0 0.72 0 0 0.76 0 0 0.8 0 0 0.84 0 0 0.88 0 0 0.92 0 0 0.96 0 0 1 0 0 1.04 0 0 1.08 0 0 1.12 0 0 1.16 0 0 1.2 0 0 0 0.04 0 0.04 0.04 0 0.08 0.04 0 0.12 0.04 0 0.16 0.04 0 0.2 0.04 0 0.24 0.04 0 0.28 0.04 0 0.32 0.04 0 0.36 0.04 0 0.4 0.04 0 0.44 0.04 0 0.48 0.04 0 0.52 0.04 0 0.56 0.04 0 0.6 0.04 0 0.64 0.04 0 0.68 0.04 0 0.72 0.04 0 0.76 0.04 0 0.8 0.04 0 0.84 0.04 0 0.88 0.04 0 0.92 0.04 0 0.96 0.04 0 1 0.04 0 1.04 0.04 0 1.08 0.04 0 1.12 0.04 0 1.16 0.04 0 1.2 0.04 0 0 0.08 0 0.04 0.08 0 0.08 0.08 0 0.12 0.08 0 0.16 0.08 0 0.2 0.08 0 0.24 0.08 0 0.28 0.08 0 0.32 0.08 0 0.36 0.08 0 0.4 0.08 0 0.44 0.08 0 0.48 0.08 0 0.52 0.08 0 0.56 0.08 0 0.6 0.08 0 0.64 0.08 0 0.68 0.08 0 0.72 0.08 0 0.76 0.08 0 0.8 0.08 0 0.84 0.08 0 0.88 0.08 0 0.92 0.08 0 0.96 0.08 0 1 0.08 0 1.04 0.08 0 1.08 0.08 0 1.12 0.08 0 1.16 0.08 0 1.2 0.08 0 0 0.12 0 0.04 0.12 0 0.08 0.12 0 0.12 0.12 0 0.16 0.12 0 0.2 0.12 0 0.24 0.12 0 0.28 0.12 0 0.32 0.12 0 0.36 0.12 0 0.4 0.12 0 0.44 0.12 0 0.48 0.12 0 0.52 0.12 0 0.56 0.12 0 0.6 0.12 0 0.64 0.12 0 0.68 0.12 0 0.72 0.12 0 0.76 0.12 0 0.8 0.12 0 0.84 0.12 0 0.88 0.12 0 0.92 0.12 0 0.96 0.12 0 1 0.12 0 1.04 0.12 0 1.08 0.12 0 1.12 0.12 0 1.16 0.12 0 1.2 0.12 0 0 0.16 0 0.04 0.16 0 0.08 0.16 0 0.12 0.16 0 0.16 0.16 0 0.2 0.16 0 0.24 0.16 0 0.28 0.16 0 0.32 0.16 0 0.36 0.16 0 0.4 0.16 0 0.44 0.16 0 0.48 0.16 0 0.52 0.16 0 0.56 0.16 0 0.6 0.16 0 0.64 0.16 0 0.68 0.16 0 0.72 0.16 0 0.76 0.16 0 0.8 0.16 0 0.84 0.16 0 0.88 0.16 0 0.92 0.16 0 0.96 0.16 0 1 0.16 0 1.04 0.16 0 1.08 0.16 0 1.12 0.16 0 1.16 0.16 0 1.2 0.16 0 0 0.2 0 0.04 0.2 0 0.08 0.2 0 0.12 0.2 0 0.16 0.2 0 0.2 0.2 0 0.24 0.2 0 0.28 0.2 0 0.32 0.2 0 0.36 0.2 0 0.4 0.2 0 0.44 0.2 0 0.48 0.2 0 0.52 0.2 0 0.56 0.2 0 0.6 0.2 0 0.64 0.2 0 0.68 0.2 0 0.72 0.2 0 0.76 0.2 0 0.8 0.2 0 0.84 0.2 0 0.88 0.2 0 0.92 0.2 0 0.96 0.2 0 1 0.2 0 1.04 0.2 0 1.08 0.2 0 1.12 0.2 0 1.16 0.2 0 1.2 0.2 0 0 0.24 0 0.04 0.24 0 0.08 0.24 0 0.12 0.24 0 0.16 0.24 0 0.2 0.24 0 0.24 0.24 0 0.28 0.24 0 0.32 0.24 0 0.36 0.24 0 0.4 0.24 0 0.44 0.24 0 0.48 0.24 0 0.52 0.24 0 0.56 0.24 0 0.6 0.24 0 0.64 0.24 0 0.68 0.24 0 0.72 0.24 0 0.76 0.24 0 0.8 0.24 0 0.84 0.24 0 0.88 0.24 0 0.92 0.24 0 0.96 0.24 0 1 0.24 0 1.04 0.24 0 1.08 0.24 0 1.12 0.24 0 1.16 0.24 0 1.2 0.24 0 0 0.28 0 0.04 0.28 0 0.08 0.28 0 0.12 0.28 0 0.16 0.28 0 0.2 0.28 0 0.24 0.28 0 0.28 0.28 0 0.32 0.28 0 0.36 0.28 0 0.4 0.28 0 0.44 0.28 0 0.48 0.28 0 0.52 0.28 0 0.56 0.28 0 0.6 0.28 0 0.64 0.28 0 0.68 0.28 0 0.72 0.28 0 0.76 0.28 0 0.8 0.28 0 0.84 0.28 0 0.88 0.28 0 0.92 0.28 0 0.96 0.28 0 1 0.28 0 1.04 0.28 0 1.08 0.28 0 1.12 0.28 0 1.16 0.28 0 1.2 0.28 0 0 0.32 0 0.04 0.32 0 0.08 0.32 0 0.12 0.32 0 0.16 0.32 0 0.2 0.32 0 0.24 0.32 0 0.28 0.32 0 0.32 0.32 0 0.36 0.32 0 0.4 0.32 0 0.44 0.32 0 0.48 0.32 0 0.52 0.32 0 0.56 0.32 0 0.6 0.32 0 0.64 0.32 0 0.68 0.32 0 0.72 0.32 0 0.76 0.32 0 0.8 0.32 0 0.84 0.32 0 0.88 0.32 0 0.92 0.32 0 0.96 0.32 0 1 0.32 0 1.04 0.32 0 1.08 0.32 0 1.12 0.32 0 1.16 0.32 0 1.2 0.32 0 0 0.36 0 0.04 0.36 0 0.08 0.36 0 0.12 0.36 0 0.16 0.36 0 0.2 0.36 0 0.24 0.36 0 0.28 0.36 0 0.32 0.36 0 0.36 0.36 0 0.4 0.36 0 0.44 0.36 0 0.48 0.36 0 0.52 0.36 0 0.56 0.36 0 0.6 0.36 0 0.64 0.36 0 0.68 0.36 0 0.72 0.36 0 0.76 0.36 0 0.8 0.36 0 0.84 0.36 0 0.88 0.36 0 0.92 0.36 0 0.96 0.36 0 1 0.36 0 1.04 0.36 0 1.08 0.36 0 1.12 0.36 0 1.16 0.36 0 1.2 0.36 0 0 0.4 0 0.04 0.4 0 0.08 0.4 0 0.12 0.4 0 0.16 0.4 0 0.2 0.4 0 0.24 0.4 0 0.28 0.4 0 0.32 0.4 0 0.36 0.4 0 0.4 0.4 0 0.44 0.4 0 0.48 0.4 0 0.52 0.4 0 0.56 0.4 0 0.6 0.4 0 0.64 0.4 0 0.68 0.4 0 0.72 0.4 0 0.76 0.4 0 0.8 0.4 0 0.84 0.4 0 0.88 0.4 0 0.92 0.4 0 0.96 0.4 0 1 0.4 0 1.04 0.4 0 1.08 0.4 0 1.12 0.4 0 1.16 0.4 0 1.2 0.4 0 0 0.44 0 0.04 0.44 0 0.08 0.44 0 0.12 0.44 0 0.16 0.44 0 0.2 0.44 0 0.24 0.44 0 0.28 0.44 0 0.32 0.44 0 0.36 0.44 0 0.4 0.44 0 0.44 0.44 0 0.48 0.44 0 0.52 0.44 0 0.56 0.44 0 0.6 0.44 0 0.64 0.44 0 0.68 0.44 0 0.72 0.44 0 0.76 0.44 0 0.8 0.44 0 0.84 0.44 0 0.88 0.44 0 0.92 0.44 0 0.96 0.44 0 1 0.44 0 1.04 0.44 0 1.08 0.44 0 1.12 0.44 0 1.16 0.44 0 1.2 0.44 0 0 0.48 0 0.04 0.48 0 0.08 0.48 0 0.12 0.48 0 0.16 0.48 0 0.2 0.48 0 0.24 0.48 0 0.28 0.48 0 0.32 0.48 0 0.36 0.48 0 0.4 0.48 0 0.44 0.48 0 0.48 0.48 0 0.52 0.48 0 0.56 0.48 0 0.6 0.48 0 0.64 0.48 0 0.68 0.48 0 0.72 0.48 0 0.76 0.48 0 0.8 0.48 0 0.84 0.48 0 0.88 0.48 0 0.92 0.48 0 0.96 0.48 0 1 0.48 0 1.04 0.48 0 1.08 0.48 0 1.12 0.48 0 1.16 0.48 0 1.2 0.48 0 0 0.52 0 0.04 0.52 0 0.08 0.52 0 0.12 0.52 0 0.16 0.52 0 0.2 0.52 0 0.24 0.52 0 0.28 0.52 0 0.32 0.52 0 0.36 0.52 0 0.4 0.52 0 0.44 0.52 0 0.48 0.52 0 0.52 0.52 0 0.56 0.52 0 0.6 0.52 0 0.64 0.52 0 0.68 0.52 0 0.72 0.52 0 0.76 0.52 0 0.8 0.52 0 0.84 0.52 0 0.88 0.52 0 0.92 0.52 0 0.96 0.52 0 1 0.52 0 1.04 0.52 0 1.08 0.52 0 1.12 0.52 0 1.16 0.52 0 1.2 0.52 0 0 0.56 0 0.04 0.56 0 0.08 0.56 0 0.12 0.56 0 0.16 0.56 0 0.2 0.56 0 0.24 0.56 0 0.28 0.56 0 0.32 0.56 0 0.36 0.56 0 0.4 0.56 0 0.44 0.56 0 0.48 0.56 0 0.52 0.56 0 0.56 0.56 0 0.6 0.56 0 0.64 0.56 0 0.68 0.56 0 0.72 0.56 0 0.76 0.56 0 0.8 0.56 0 0.84 0.56 0 0.88 0.56 0 0.92 0.56 0 0.96 0.56 0 1 0.56 0 1.04 0.56 0 1.08 0.56 0 1.12 0.56 0 1.16 0.56 0 1.2 0.56 0 0 0.6 0 0.04 0.6 0 0.08 0.6 0 0.12 0.6 0 0.16 0.6 0 0.2 0.6 0 0.24 0.6 0 0.28 0.6 0 0.32 0.6 0 0.36 0.6 0 0.4 0.6 0 0.44 0.6 0 0.48 0.6 0 0.52 0.6 0 0.56 0.6 0 0.6 0.6 0 0.64 0.6 0 0.68 0.6 0 0.72 0.6 0 0.76 0.6 0 0.8 0.6 0 0.84 0.6 0 0.88 0.6 0 0.92 0.6 0 0.96 0.6 0 1 0.6 0 1.04 0.6 0 1.08 0.6 0 1.12 0.6 0 1.16 0.6 0 1.2 0.6 0 0 0.64 0 0.04 0.64 0 0.08 0.64 0 0.12 0.64 0 0.16 0.64 0 0.2 0.64 0 0.24 0.64 0 0.28 0.64 0 0.32 0.64 0 0.36 0.64 0 0.4 0.64 0 0.44 0.64 0 0.48 0.64 0 0.52 0.64 0 0.56 0.64 0 0.6 0.64 0 0.64 0.64 0 0.68 0.64 0 0.72 0.64 0 0.76 0.64 0 0.8 0.64 0 0.84 0.64 0 0.88 0.64 0 0.92 0.64 0 0.96 0.64 0 1 0.64 0 1.04 0.64 0 1.08 0.64 0 1.12 0.64 0 1.16 0.64 0 1.2 0.64 0 0 0.68 0 0.04 0.68 0 0.08 0.68 0 0.12 0.68 0 0.16 0.68 0 0.2 0.68 0 0.24 0.68 0 0.28 0.68 0 0.32 0.68 0 0.36 0.68 0 0.4 0.68 0 0.44 0.68 0 0.48 0.68 0 0.52 0.68 0 0.56 0.68 0 0.6 0.68 0 0.64 0.68 0 0.68 0.68 0 0.72 0.68 0 0.76 0.68 0 0.8 0.68 0 0.84 0.68 0 0.88 0.68 0 0.92 0.68 0 0.96 0.68 0 1 0.68 0 1.04 0.68 0 1.08 0.68 0 1.12 0.68 0 1.16 0.68 0 1.2 0.68 0 0 0.72 0 0.04 0.72 0 0.08 0.72 0 0.12 0.72 0 0.16 0.72 0 0.2 0.72 0 0.24 0.72 0 0.28 0.72 0 0.32 0.72 0 0.36 0.72 0 0.4 0.72 0 0.44 0.72 0 0.48 0.72 0 0.52 0.72 0 0.56 0.72 0 0.6 0.72 0 0.64 0.72 0 0.68 0.72 0 0.72 0.72 0 0.76 0.72 0 0.8 0.72 0 0.84 0.72 0 0.88 0.72 0 0.92 0.72 0 0.96 0.72 0 1 0.72 0 1.04 0.72 0 1.08 0.72 0 1.12 0.72 0 1.16 0.72 0 1.2 0.72 0 0 0.76 0 0.04 0.76 0 0.08 0.76 0 0.12 0.76 0 0.16 0.76 0 0.2 0.76 0 0.24 0.76 0 0.28 0.76 0 0.32 0.76 0 0.36 0.76 0 0.4 0.76 0 0.44 0.76 0 0.48 0.76 0 0.52 0.76 0 0.56 0.76 0 0.6 0.76 0 0.64 0.76 0 0.68 0.76 0 0.72 0.76 0 0.76 0.76 0 0.8 0.76 0 0.84 0.76 0 0.88 0.76 0 0.92 0.76 0 0.96 0.76 0 1 0.76 0 1.04 0.76 0 1.08 0.76 0 1.12 0.76 0 1.16 0.76 0 1.2 0.76 0 0 0.8 0 0.04 0.8 0 0.08 0.8 0 0.12 0.8 0 0.16 0.8 0 0.2 0.8 0 0.24 0.8 0 0.28 0.8 0 0.32 0.8 0 0.36 0.8 0 0.4 0.8 0 0.44 0.8 0 0.48 0.8 0 0.52 0.8 0 0.56 0.8 0 0.6 0.8 0 0.64 0.8 0 0.68 0.8 0 0.72 0.8 0 0.76 0.8 0 0.8 0.8 0 0.84 0.8 0 0.88 0.8 0 0.92 0.8 0 0.96 0.8 0 1 0.8 0 1.04 0.8 0 1.08 0.8 0 1.12 0.8 0 1.16 0.8 0 1.2 0.8 0 0 0.84 0 0.04 0.84 0 0.08 0.84 0 0.12 0.84 0 0.16 0.84 0 0.2 0.84 0 0.24 0.84 0 0.28 0.84 0 0.32 0.84 0 0.36 0.84 0 0.4 0.84 0 0.44 0.84 0 0.48 0.84 0 0.52 0.84 0 0.56 0.84 0 0.6 0.84 0 0.64 0.84 0 0.68 0.84 0 0.72 0.84 0 0.76 0.84 0 0.8 0.84 0 0.84 0.84 0 0.88 0.84 0 0.92 0.84 0 0.96 0.84 0 1 0.84 0 1.04 0.84 0 1.08 0.84 0 1.12 0.84 0 1.16 0.84 0 1.2 0.84 0 0 0.88 0 0.04 0.88 0 0.08 0.88 0 0.12 0.88 0 0.16 0.88 0 0.2 0.88 0 0.24 0.88 0 0.28 0.88 0 0.32 0.88 0 0.36 0.88 0 0.4 0.88 0 0.44 0.88 0 0.48 0.88 0 0.52 0.88 0 0.56 0.88 0 0.6 0.88 0 0.64 0.88 0 0.68 0.88 0 0.72 0.88 0 0.76 0.88 0 0.8 0.88 0 0.84 0.88 0 0.88 0.88 0 0.92 0.88 0 0.96 0.88 0 1 0.88 0 1.04 0.88 0 1.08 0.88 0 1.12 0.88 0 1.16 0.88 0 1.2 0.88 0 0 0.92 0 0.04 0.92 0 0.08 0.92 0 0.12 0.92 0 0.16 0.92 0 0.2 0.92 0 0.24 0.92 0 0.28 0.92 0 0.32 0.92 0 0.36 0.92 0 0.4 0.92 0 0.44 0.92 0 0.48 0.92 0 0.52 0.92 0 0.56 0.92 0 0.6 0.92 0 0.64 0.92 0 0.68 0.92 0 0.72 0.92 0 0.76 0.92 0 0.8 0.92 0 0.84 0.92 0 0.88 0.92 0 0.92 0.92 0 0.96 0.92 0 1 0.92 0 1.04 0.92 0 1.08 0.92 0 1.12 0.92 0 1.16 0.92 0 1.2 0.92 0 0 0.96 0 0.04 0.96 0 0.08 0.96 0 0.12 0.96 0 0.16 0.96 0 0.2 0.96 0 0.24 0.96 0 0.28 0.96 0 0.32 0.96 0 0.36 0.96 0 0.4 0.96 0 0.44 0.96 0 0.48 0.96 0 0.52 0.96 0 0.56 0.96 0 0.6 0.96 0 0.64 0.96 0 0.68 0.96 0 0.72 0.96 0 0.76 0.96 0 0.8 0.96 0 0.84 0.96 0 0.88 0.96 0 0.92 0.96 0 0.96 0.96 0 1 0.96 0 1.04 0.96 0 1.08 0.96 0 1.12 0.96 0 1.16 0.96 0 1.2 0.96 0 0 1 0 0.04 1 0 0.08 1 0 0.12 1 0 0.16 1 0 0.2 1 0 0.24 1 0 0.28 1 0 0.32 1 0 0.36 1 0 0.4 1 0 0.44 1 0 0.48 1 0 0.52 1 0 0.56 1 0 0.6 1 0 0.64 1 0 0.68 1 0 0.72 1 0 0.76 1 0 0.8 1 0 0.84 1 0 0.88 1 0 0.92 1 0 0.96 1 0 1 1 0 1.04 1 0 1.08 1 0 1.12 1 0 1.16 1 0 1.2 1 0 0 1.04 0 0.04 1.04 0 0.08 1.04 0 0.12 1.04 0 0.16 1.04 0 0.2 1.04 0 0.24 1.04 0 0.28 1.04 0 0.32 1.04 0 0.36 1.04 0 0.4 1.04 0 0.44 1.04 0 0.48 1.04 0 0.52 1.04 0 0.56 1.04 0 0.6 1.04 0 0.64 1.04 0 0.68 1.04 0 0.72 1.04 0 0.76 1.04 0 0.8 1.04 0 0.84 1.04 0 0.88 1.04 0 0.92 1.04 0 0.96 1.04 0 1 1.04 0 1.04 1.04 0 1.08 1.04 0 1.12 1.04 0 1.16 1.04 0 1.2 1.04 0 0 1.08 0 0.04 1.08 0 0.08 1.08 0 0.12 1.08 0 0.16 1.08 0 0.2 1.08 0 0.24 1.08 0 0.28 1.08 0 0.32 1.08 0 0.36 1.08 0 0.4 1.08 0 0.44 1.08 0 0.48 1.08 0 0.52 1.08 0 0.56 1.08 0 0.6 1.08 0 0.64 1.08 0 0.68 1.08 0 0.72 1.08 0 0.76 1.08 0 0.8 1.08 0 0.84 1.08 0 0.88 1.08 0 0.92 1.08 0 0.96 1.08 0 1 1.08 0 1.04 1.08 0 1.08 1.08 0 1.12 1.08 0 1.16 1.08 0 1.2 1.08 0 0 1.12 0 
[...]
			<PointData Scalars="VitesseX">
				<DataArray Name="VitesseX" type="Float32" format="ascii">
 0 -0.0703509 -0.1384 -0.132607 -0.0763433 0.0277885 0.148457 0.25914 0.330591 0.351314 0.327999 0.284753 0.2338 0.186614 0.150524 0.126866 0.111634 0.0961917 0.00422205 -0.343419 -0.703267 -0.850716 -0.784612 -0.684943 -0.590746 -0.496192 -0.400747 -0.304076 -0.206324 -0.104211 0 0 0.0542855 0.013979 -0.0098287 0.0255188 0.0915493 0.180905 0.26877 0.326959 0.335909 0.309388 0.264718 0.218242 0.177933 0.147079 0.126378 0.112425 0.0970299 0.00826925 -0.33617 -0.697722 -0.848365 -0.785148 -0.685298 -0.591186 -0.496723 -0.401325 -0.304612 -0.206633 -0.104181 0 0 0.0278519 0.0533723 0.0404187 0.0398385 0.0574441 0.0822179 0.118985 0.160382 0.190183 0.196459 0.185299 0.165461 0.1448 0.128292 0.117072 0.108618 0.0956701 0.0172922 -0.316 -0.681086 -0.840677 -0.78624 -0.68559 -0.591502 -0.49713 -0.401849 -0.305205 -0.207033 -0.104253 0 0 -0.0316809 -0.052629 -0.060345 -0.0705754 -0.0716593 -0.0634564 -0.0463011 -0.022895 0.00477781 0.0388844 0.0660449 0.0832105 0.0910382 0.094813 0.0971496 0.0971525 0.0893697 0.0267179 -0.285807 -0.653876 -0.827336 -0.78866 -0.686463 -0.592283 -0.497937 -0.402764 -0.306311 -0.208146 -0.104966 0 0 -0.0795701 -0.125587 -0.151671 -0.16597 -0.176021 -0.178781 -0.173941 -0.153159 -0.116255 -0.0764256 -0.0343132 0.00234268 0.032292 0.0541815 0.0693868 0.0777034 0.0763579 0.0322861 -0.248929 -0.616351 -0.807283 -0.792708 -0.688223 -0.593756 -0.499381 -0.404268 -0.308035 -0.210011 -0.106432 0 0 -0.108026 -0.176793 -0.212428 -0.236786 -0.253281 -0.262213 -0.263862 -0.244163 -0.203058 -0.154775 -0.106748 -0.0598803 -0.0191932 0.0132864 0.0362809 0.0515229 0.0565682 0.0302964 -0.209098 -0.568637 -0.779633 -0.797495 -0.691049 -0.595966 -0.501461 -0.406277 -0.310139 -0.212234 -0.108242 0 0 -0.120531 -0.196724 -0.239593 -0.27191 -0.296397 -0.312551 -0.31859 -0.309697 -0.270331 -0.214438 -0.159589 -0.108831 -0.0630883 -0.0264986 0.00106389 0.0199702 0.0301033 0.0181697 -0.16986 -0.511062 -0.747014 -0.797924 -0.695021 -0.598908 -0.504069 -0.408616 -0.312318 -0.2143 -0.109899 0 0 -0.109984 -0.191232 -0.242974 -0.280558 -0.309697 -0.333538 -0.348491 -0.350558 -0.32954 -0.275049 -0.211609 -0.154719 -0.106268 -0.0660013 -0.036227 -0.0151608 -0.00209533 -0.00443291 -0.135721 -0.447553 -0.706802 -0.789497 -0.700054 -0.60253 -0.507056 -0.411156 -0.314468 -0.216011 -0.110866 0 0 -0.0780353 -0.143059 -0.193136 -0.239858 -0.289708 -0.331614 -0.36021 -0.375085 -0.372838 -0.343584 -0.280799 -0.213434 -0.156229 -0.110845 -0.0763268 -0.0529515 -0.0377886 -0.0356613 -0.113315 -0.382093 -0.6538 -0.767909 -0.707438 -0.606742 -0.510264 -0.413837 -0.31662 -0.217575 -0.111548 0 0 -0.029879 -0.0655878 -0.108951 -0.154955 -0.214822 -0.287835 -0.350244 -0.387705 -0.403663 -0.397093 -0.361726 -0.293193 -0.222874 -0.165942 -0.123336 -0.0941796 -0.07682 -0.0723645 -0.109265 -0.317073 -0.585511 -0.729302 -0.716181 -0.611597 -0.513813 -0.416616 -0.318779 -0.219111 -0.112395 0 0 0.00953851 0.00546897 -0.0295657 -0.0841411 -0.146685 -0.22144 -0.308873 -0.381839 -0.423897 -0.440283 -0.4296 -0.38777 -0.31191 -0.238157 -0.182217 -0.142801 -0.119337 -0.110506 -0.124715 -0.25933 -0.504028 -0.676314 -0.716477 -0.617194 -0.517756 -0.419457 -0.321023 -0.220918 -0.113584 0 0 0.0286353 0.0431398 0.019744 -0.0330355 -0.098563 -0.171893 -0.256865 -0.35154 -0.427681 -0.471859 -0.4875 -0.47244 -0.42287 -0.337094 -0.259283 -0.204767 -0.168252 -0.150233 -0.155074 -0.218979 -0.41812 -0.61223 -0.693139 -0.624411 -0.522143 -0.422638 -0.323555 -0.223224 -0.114882 0 0 0.0330339 0.0505409 0.0365532 -0.00834798 -0.0713493 -0.143551 -0.220508 -0.308321 -0.405444 -0.482443 -0.527962 -0.543422 -0.524662 -0.465106 -0.367095 -0.284818 -0.23076 -0.197332 -0.188887 -0.208282 -0.338679 -0.530265 -0.642453 -0.631906 -0.527589 -0.426633 -0.326709 -0.226245 -0.116788 0 0 0.0281351 0.0420496 0.0304804 -0.00848958 -0.066285 -0.132011 -0.201329 -0.274427 -0.360152 -0.459149 -0.540032 -0.58772 -0.604277 -0.58337 -0.51033 -0.397917 -0.311356 -0.258082 -0.227585 -0.225044 -0.277095 -0.435252 -0.573823 -0.622138 -0.534135 -0.431787 -0.330812 -0.229985 -0.119591 0 0 0.0156277 0.0205332 0.00617491 -0.0295343 -0.0797615 -0.13575 -0.192496 -0.252056 -0.317543 -0.398212 -0.501933 -0.595235 -0.64833 -0.66603 -0.643315 -0.552976 -0.426085 -0.335227 -0.279406 -0.254401 -0.249087 -0.343442 -0.491481 -0.577692 -0.542281 -0.438173 -0.335851 -0.234172 -0.122719 0 0 -0.00107425 -0.00936568 -0.0300996 -0.0651843 -0.108655 -0.151653 -0.19185 -0.233252 -0.281725 -0.340418 -0.416046 -0.525393 -0.640053 -0.705831 -0.724585 -0.697848 -0.586215 -0.444996 -0.351432 -0.289158 -0.261799 -0.27124 -0.394 -0.505148 -0.538179 -0.444885 -0.341362 -0.238263 -0.125391 0 0 -0.0202599 -0.0421478 -0.0697905 -0.103723 -0.138989 -0.169434 -0.193846 -0.216775 -0.245807 -0.286794 -0.343101 -0.417438 -0.529905 -0.667631 -0.754053 -0.774796 -0.73867 -0.604798 -0.450473 -0.351886 -0.285137 -0.245131 -0.295756 -0.419592 -0.496904 -0.451865 -0.347047 -0.241939 -0.127308 0 0 -0.0406784 -0.075677 -0.103368 -0.127135 -0.147921 -0.165384 -0.179204 -0.191919 -0.208418 -0.235234 -0.275794 -0.332752 -0.409102 -0.522026 -0.677214 -0.788264 -0.813446 -0.758282 -0.603309 -0.438356 -0.327312 -0.259529 -0.22547 -0.320133 -0.422192 -0.448157 -0.352163 -0.245305 -0.12887 0 0 -0.0521943 -0.0882687 -0.103423 -0.111528 -0.117897 -0.123126 -0.130129 -0.141492 -0.159029 -0.182529 -0.213801 -0.257041 -0.314422 -0.391671 -0.501184 -0.662111 -0.795641 -0.83021 -0.748101 -0.574757 -0.40645 -0.286519 -0.209046 -0.22144 -0.332304 -0.408293 -0.355957 -0.248968 -0.130575 0 0 -0.0366065 -0.0589742 -0.0651115 -0.0618314 -0.0571248 -0.0560289 -0.0611179 -0.074072 -0.0954185 -0.123066 -0.153585 -0.188283 -0.23331 -0.28819 -0.362034 -0.467195 -0.623143 -0.769404 -0.813803 -0.705011 -0.520321 -0.349169 -0.231488 -0.157803 -0.231561 -0.330607 -0.351147 -0.252215 -0.133067 0 0 -0.00642944 -0.0138041 -0.0118333 -0.00515581 0.00294715 0.00876079 0.0092995 0.000521798 -0.0192372 -0.0484559 -0.0848446 -0.12367 -0.157994 -0.197319 -0.251271 -0.320462 -0.416087 -0.563201 -0.706297 -0.760249 -0.632016 -0.445816 -0.275634 -0.154451 -0.133257 -0.234268 -0.311133 -0.255053 -0.136439 0 0 0.00984009 0.00910951 0.0201795 0.0282554 0.0435071 0.062907 0.0768738 0.0754888 0.060409 0.0357355 0.00516 -0.0298466 -0.0708114 -0.114813 -0.152993 -0.199376 -0.264659 -0.352995 -0.481978 -0.614936 -0.67227 -0.534305 -0.351801 -0.197959 -0.0756128 -0.128086 -0.228585 -0.247919 -0.139891 0 0 -0.00175871 0.0150342 0.0310425 0.0382742 0.0636584 0.0985406 0.120159 0.123587 0.119634 0.11269 0.100114 0.0761361 0.0406832 -0.000560841 -0.0458229 -0.0956018 -0.139962 -0.197246 -0.277162 -0.384208 -0.50271 -0.552711 -0.422136 -0.249299 -0.0936551 -0.029428 -0.122314 -0.205436 -0.14254 0 0 -0.0136879 0.0168423 0.0176142 0.0313399 0.0688462 0.110996 0.133089 0.140254 0.145845 0.15299 0.161506 0.159507 0.147274 0.123236 0.082912 0.0338492 -0.0183088 -0.073919 -0.124205 -0.187111 -0.288455 -0.371128 -0.398975 -0.297314 -0.153033 0.0133143 -0.00615127 -0.115548 -0.134935 0 0 -0.0183186 0.00872888 0.00235964 0.0245835 0.0683706 0.101825 0.114873 0.122472 0.136236 0.157908 0.180726 0.197695 0.210396 0.21306 0.19536 0.165911 0.122282 0.069199 0.00896838 -0.0459065 -0.110176 -0.173452 -0.244647 -0.250622 -0.168742 -0.0151529 0.0799283 0.00658866 -0.0913057 0 0 -0.0190427 -0.00712618 -0.0112217 0.0159893 0.0589928 0.0846055 0.0919196 0.0997387 0.116376 0.140325 0.168617 0.198368 0.225897 0.247147 0.253945 0.256096 0.239423 0.207228 0.161861 0.103374 0.0374458 -0.0280446 -0.0881937 -0.112221 -0.083176 -0.0361519 0.117376 0.111122 0.0064558 0 0 -0.0223376 -0.0272617 -0.0235952 0.00463955 0.0420059 0.0582419 0.0631671 0.0746244 0.0955461 0.122194 0.150517 0.178409 0.205034 0.232266 0.259916 0.284247 0.294943 0.294326 0.280711 0.24692 0.198549 0.132719 0.0561959 -0.00574033 -0.0135786 0.0305891 0.113151 0.182146 0.0865293 0 0 -0.032158 -0.0520731 -0.0310817 -0.00420518 0.0194202 0.0249974 0.0280259 0.0421066 0.0654633 0.0926797 0.120082 0.146434 0.17267 0.198971 0.225587 0.253321 0.28205 0.311278 0.329621 0.330006 0.314546 0.279106 0.228122 0.149631 0.0805807 0.0574186 0.0987882 0.141894 0.139736 0 0 -0.054787 -0.0791117 -0.0334537 -0.0102495 0.000943777 -0.00265509 -0.0032462 0.00706741 0.0254421 0.0472994 0.0700416 0.0929772 0.116315 0.140813 0.16702 0.194731 0.22322 0.252042 0.281183 0.311899 0.338808 0.347053 0.338836 0.308089 0.25107 0.165137 0.0860906 0.0665671 0.0389923 0 0 -0.190257 -0.0687645 -0.0331413 -0.0121957 -0.00747938 -0.0177157 -0.0207945 -0.0135136 -0.00311995 0.00850004 0.0203145 0.0315384 0.0427266 0.0553505 0.0704259 0.0878513 0.107045 0.127786 0.150313 0.175269 0.202943 0.234575 0.267388 0.289868 0.308191 0.301606 0.252134 0.148995 0.0826248 0 0 0 0 0 0 0 0 0 0 0 0 0 0 0 0 0 0 0 0 0 0 0 0 0 0 0 0 0 0 0 0
				</DataArray>
				<DataArray Name="VitesseY" type="Float32" format="ascii">
 0 0 0 0 0 0 0 0 0 0 0 0 0 0 0 0 0 0 0 0 0 0 0 0 0 0 0 0 0 0 0 -0.0666074 0.0552398 0.0256579 -0.0351664 -0.0840661 -0.113865 -0.124035 -0.102408 -0.0551378 -0.00258505 0.0241522 0.0350618 0.0331856 0.0244809 0.011559 -0.000124448 -0.00793813 -0.0108195 -0.00710492 0.00385246 0.0156522 0.0220679 0.0227141 0.0203775 0.0181331 0.015352 0.0118707 0.0078749 0.00437647 0.00163592 0 -0.136627 0.0156775 0.052585 -0.0527856 -0.12876 -0.180449 -0.199331 -0.179532 -0.105442 -0.0190176 0.0325649 0.0537936 0.0515903 0.0372203 0.0152469 -0.00483786 -0.0181229 -0.0219848 -0.0142909 0.00690574 0.0304897 0.0437411 0.0454831 0.0408798 0.0365242 0.0311616 0.0244068 0.016101 0.00862162 0.00302824 0 -0.135246 -0.00934701 0.0456208 -0.0526547 -0.145657 -0.207731 -0.232777 -0.227864 -0.149828 -0.060156 0.00499199 0.0366484 0.0422224 0.0295336 0.00469874 -0.0185002 -0.0336671 -0.0356144 -0.0230858 0.00786639 0.0434874 0.0643797 0.068054 0.0614944 0.0552994 0.0475566 0.037748 0.0249508 0.0128667 0.00410399 0 -0.0855322 0.024696 0.0510892 -0.0518422 -0.149565 -0.220395 -0.253372 -0.257174 -0.192714 -0.110006 -0.0475204 -0.00886819 0.00470749 -0.000608242 -0.0218523 -0.0427174 -0.0559164 -0.0541099 -0.0354092 0.00523472 0.0534636 0.0832498 0.0900579 0.0820608 0.0742415 0.0643394 0.0517312 0.0347197 0.0174737 0.00504386 0 0.0132201 0.0859848 0.0771189 -0.0436665 -0.146711 -0.224449 -0.265479 -0.276225 -0.242211 -0.166734 -0.107335 -0.067923 -0.0489194 -0.0473971 -0.0603838 -0.0756465 -0.0846378 -0.0780441 -0.0526068 -0.0025259 0.0585466 0.0987477 0.110672 0.102322 0.0930208 0.081285 0.0662139 0.0456339 0.02297 0.00629117 0 0.128698 0.171486 0.109104 -0.0246648 -0.136671 -0.221262 -0.271464 -0.290532 -0.284588 -0.233049 -0.173586 -0.133198 -0.110279 -0.102088 -0.105445 -0.114028 -0.117821 -0.106445 -0.0753193 -0.0173326 0.0555946 0.107604 0.127846 0.122501 0.111682 0.0984503 0.0812926 0.0578118 0.0296963 0.00812974 0 0.242501 0.260683 0.149919 0.00160928 -0.120676 -0.211404 -0.269198 -0.299813 -0.31022 -0.296008 -0.24937 -0.204241 -0.175734 -0.160185 -0.154556 -0.154574 -0.15337 -0.137863 -0.104086 -0.0402798 0.0425688 0.109698 0.141554 0.142848 0.130165 0.115901 0.0970583 0.0710941 0.0374782 0.0104332 0 0.329002 0.334776 0.194714 0.0311536 -0.0935667 -0.187282 -0.255477 -0.297961 -0.323271 -0.334421 -0.323032 -0.285306 -0.247615 -0.223066 -0.207265 -0.197658 -0.189528 -0.171711 -0.136818 -0.0703736 0.0201218 0.105543 0.153314 0.162674 0.148589 0.133908 0.11367 0.085422 0.046262 0.0129959 0 0.373478 0.370813 0.232038 0.0597564 -0.0570929 -0.141873 -0.213885 -0.276597 -0.320411 -0.351846 -0.369773 -0.365162 -0.332309 -0.294795 -0.267261 -0.245527 -0.227342 -0.205977 -0.169185 -0.105594 -0.00984235 0.0936257 0.160123 0.180167 0.167878 0.152862 0.131321 0.100996 0.0565386 0.0164035 0 0.372804 0.36423 0.250843 0.091712 -0.0163343 -0.088153 -0.147891 -0.220865 -0.29394 -0.348581 -0.391633 -0.417844 -0.418551 -0.383439 -0.338342 -0.302633 -0.270535 -0.240062 -0.200541 -0.143324 -0.0461943 0.0680236 0.153295 0.190488 0.189343 0.17261 0.150192 0.118145 0.0690355 0.0216358 0 0.341747 0.329289 0.247441 0.125477 0.0291134 -0.0337659 -0.0824531 -0.14221 -0.233282 -0.319424 -0.388666 -0.444379 -0.477434 -0.478522 -0.431291 -0.372301 -0.324458 -0.279242 -0.233708 -0.17885 -0.0873091 0.0295686 0.136962 0.197317 0.210718 0.192878 0.170455 0.13695 0.084122 0.0286283 0 0.296677 0.284075 0.232068 0.149633 0.0739256 0.0212316 -0.0205393 -0.0707212 -0.150796 -0.257152 -0.358251 -0.442111 -0.50782 -0.544664 -0.538525 -0.46856 -0.393017 -0.330769 -0.271616 -0.208943 -0.132013 -0.0154654 0.110368 0.196431 0.227457 0.214862 0.192037 0.157364 0.101603 0.0365898 0 0.248094 0.241867 0.213257 0.164415 0.113483 0.0730635 0.0363894 -0.0102681 -0.0790539 -0.174642 -0.293275 -0.409061 -0.505864 -0.576903 -0.61382 -0.590631 -0.491487 -0.398555 -0.320355 -0.246004 -0.171786 -0.0629657 0.0672184 0.176729 0.231569 0.238438 0.214351 0.179369 0.121459 0.0456649 0 0.207264 0.207586 0.197494 0.175088 0.146714 0.117452 0.083768 0.0389106 -0.0246224 -0.106609 -0.210036 -0.335826 -0.465871 -0.57427 -0.646155 -0.678517 -0.628289 -0.496821 -0.387893 -0.29522 -0.206317 -0.113626 0.0145016 0.145292 0.231381 0.259063 0.237898 0.203031 0.143852 0.0570502 0 0.180194 0.185857 0.188806 0.18562 0.174431 0.151561 0.117445 0.0717318 0.0137453 -0.0600745 -0.145681 -0.248576 -0.377673 -0.520575 -0.640903 -0.710005 -0.732708 -0.645121 -0.484816 -0.360978 -0.254827 -0.158134 -0.0385688 0.0990148 0.212189 0.265599 0.262966 0.228161 0.168831 0.0714527 0 0.170472 0.178174 0.18873 0.197546 0.196059 0.174328 0.134863 0.086558 0.0320064 -0.0309209 -0.104191 -0.185806 -0.283428 -0.412717 -0.566466 -0.698624 -0.763505 -0.768889 -0.636804 -0.456396 -0.320364 -0.201262 -0.0943438 0.0426392 0.177693 0.263702 0.28746 0.254887 0.195852 0.0885248 0 0.177986 0.185714 0.193704 0.205001 0.205633 0.181398 0.137583 0.0858359 0.0338157 -0.0201947 -0.0782817 -0.144296 -0.220356 -0.311362 -0.437486 -0.598987 -0.73895 -0.804813 -0.777359 -0.60486 -0.409686 -0.264225 -0.143258 -0.0147608 0.129931 0.247508 0.299986 0.282869 0.223956 0.10752 0 0.195538 0.199669 0.190342 0.193322 0.192491 0.168224 0.124301 0.0743208 0.026282 -0.0202448 -0.0675116 -0.119262 -0.176894 -0.247157 -0.332172 -0.45204 -0.614046 -0.758727 -0.822242 -0.753966 -0.55131 -0.349685 -0.19732 -0.074879 0.0729517 0.21294 0.297824 0.311942 0.252577 0.128124 0 0.128421 0.133567 0.100025 0.108084 0.121717 0.107259 0.0718507 0.0329903 -0.00133884 -0.0352741 -0.0725701 -0.112203 -0.155408 -0.205334 -0.26805 -0.34568 -0.453588 -0.608948 -0.74866 -0.806724 -0.695822 -0.475422 -0.276572 -0.126459 0.00944701 0.16505 0.284388 0.331519 0.281545 0.150552 0 -0.197237 -0.187301 -0.235689 -0.219295 -0.189562 -0.182203 -0.1868 -0.183153 -0.166911 -0.147201 -0.134751 -0.139704 -0.161909 -0.194404 -0.232166 -0.277303 -0.34751 -0.438694 -0.578379 -0.705618 -0.755263 -0.60891 -0.381514 -0.187446 -0.0478531 0.104374 0.249433 0.331819 0.312084 0.175443 0 -0.575364 -0.554774 -0.582305 -0.564143 -0.549937 -0.541513 -0.525922 -0.494379 -0.449121 -0.39786 -0.345961 -0.294945 -0.250985 -0.223605 -0.223051 -0.24736 -0.274783 -0.324074 -0.406085 -0.521535 -0.632514 -0.669741 -0.500728 -0.28933 -0.112977 0.0363309 0.199744 0.316251 0.339422 0.203092 0 -0.741858 -0.718526 -0.724659 -0.706801 -0.712861 -0.714417 -0.69981 -0.671029 -0.639686 -0.609097 -0.56868 -0.513089 -0.443494 -0.368472 -0.298048 -0.246159 -0.235984 -0.254024 -0.283338 -0.349212 -0.446051 -0.534035 -0.55098 -0.370894 -0.173851 -0.0291431 0.13275 0.280042 0.347749 0.234673 0 -0.663045 -0.657575 -0.649899 -0.642528 -0.659971 -0.665063 -0.665052 -0.670464 -0.679449 -0.682132 -0.670538 -0.640441 -0.593834 -0.532396 -0.452854 -0.361626 -0.274315 -0.216563 -0.207496 -0.230028 -0.274666 -0.352007 -0.421852 -0.399268 -0.245993 -0.0909547 0.054789 0.228422 0.33935 0.267581 0 -0.52168 -0.550106 -0.542629 -0.542863 -0.559597 -0.563421 -0.566727 -0.576452 -0.591772 -0.607919 -0.623215 -0.635426 -0.635235 -0.610008 -0.556894 -0.486212 -0.401579 -0.30424 -0.21125 -0.154943 -0.154742 -0.197789 -0.248849 -0.297304 -0.251394 -0.112976 -0.00714532 0.149291 0.308244 0.290075 0 -0.380207 -0.449159 -0.437822 -0.447596 -0.466259 -0.470936 -0.47827 -0.491121 -0.506389 -0.518066 -0.526003 -0.532142 -0.537863 -0.544891 -0.551054 -0.53711 -0.487947 -0.411941 -0.322971 -0.223462 -0.128457 -0.0748303 -0.0947505 -0.152367 -0.167847 -0.0840173 -0.0148344 0.0797127 0.251006 0.30825 0 -0.233298 -0.347431 -0.331678 -0.353452 -0.374785 -0.380847 -0.392439 -0.407058 -0.41957 -0.427219 -0.430891 -0.432823 -0.435254 -0.439021 -0.444219 -0.450175 -0.456726 -0.44869 -0.404035 -0.324849 -0.229159 -0.124085 -0.027077 0.0135107 -0.0155038 -0.0361853 0.0300867 0.0567546 0.164801 0.301627 0 -0.0791267 -0.233262 -0.2341 -0.263342 -0.283752 -0.290972 -0.305812 -0.319966 -0.327497 -0.330815 -0.3318 -0.332511 -0.333817 -0.336327 -0.340134 -0.344762 -0.349826 -0.354487 -0.358172 -0.351591 -0.309121 -0.22554 -0.119634 -0.00429039 0.0807086 0.117537 0.113063 0.0985462 0.0857965 0.252059 0 0.0863704 -0.113957 -0.154479 -0.178055 -0.188702 -0.197626 -0.214702 -0.224705 -0.229593 -0.2307 -0.230501 -0.230622 -0.231704 -0.233922 -0.236983 -0.240354 -0.243552 -0.246632 -0.250084 -0.253206 -0.255924 -0.248143 -0.20456 -0.11417 0.0077939 0.11176 0.182385 0.141863 0.0664495 0.148911 0 0.429108 -0.0311887 -0.108781 -0.0873299 -0.0932128 -0.102073 -0.110391 -0.116542 -0.120418 -0.119915 -0.119512 -0.119191 -0.119683 -0.121475 -0.123962 -0.126237 -0.127914 -0.129309 -0.130894 -0.133312 -0.136653 -0.140075 -0.1427 -0.134905 -0.0909392 0.00696903 0.0868754 0.139808 0.0389826 0.0825921 0 3.27507 0 0 0 0 0 0 0 0 0 0 0 0 0 0 0 0 0 0 0 0 0 0 0 0 0 0 0 0 0 0
				</DataArray>
			</PointData>
			<CellData Scalars="Density">
				<DataArray Name="Density" type="Float32" format="ascii">