<?xml version="1.0"?>
<VTKFile type="PolyData">
	<PolyData>
		<Piece NumberOfPoints="961" NumberOfPolys="900">
			<Points>
				<DataArray type="Float32" NumberOfComponents="3" format="ascii">
 0 0 0 0.04 0 0 0.08 0 0 0.12 0 0 0.16 0 0 0.2 0 0 0.24 0 0 0.28 0 0 0.32 0 0 0.36 0 0 0.4 0 0 0.44 0 0 0.48 0 0 0.52 0 0 0.56 0 0 0.6 0 0 0.64 0 0 0.68 0 0 0.72 0 0 0.76 0 0 0.8 0 0 0.84 0 0 0.88 0 0 0.92 0 0 0.96 0 0 1 0 0 1.04 0 0 1.08 0 0 1.12 0 0 1.16 0 0 1.2 0 0 0 0.04 0 0.04 0.04 0 0.08 0.04 0 0.12 0.04 0 0.16 0.04 0 0.2 0.04 0 0.24 0.04 0 0.28 0.04 0 0.32 0.04 0 0.36 0.04 0 0.4 0.04 0 0.44 0.04 0 0.48 0.04 0 0.52 0.04 0 0.56 0.04 0 0.6 0.04 0 0.64 0.04 0 0.68 0.04 0 0.72 0.04 0 0.76 0.04 0 0.8 0.04 0 0.84 0.04 0 0.88 0.04 0 0.92 0.04 0 0.96 0.04 0 1 0.04 0 1.04 0.04 0 1.08 0.04 0 1.12 0.04 0 1.16 0.04 0 1.2 0.04 0 0 0.08 0 0.04 0.08 0 0.08 0.08 0 0.12 0.08 0 0.16 0.08 0 0.2 0.08 0 0.24 0.08 0 0.28 0.08 0 0.32 0.08 0 0.36 0.08 0 0.4 0.08 0 0.44 0.08 0 0.48 0.08 0 0.52 0.08 0 0.56 0.08 0 0.6 0.08 0 0.64 0.08 0 0.68 0.08 0 0.72 0.08 0 0.76 0.08 0 0.8 0.08 0 0.84 0.08 0 0.88 0.08 0 0.92 0.08 0 0.96 0.08 0 1 0.08 0 1.04 0.08 0 1.08 0.08 0 1.12 0.08 0 1.16 0.08 0 1.2 0.08 0 0 0.12 0 0.04 0.12 0 0.08 0.12 0 0.12 0.12 0 0.16 0.12 0 0.2 0.12 0 0.24 0.12 0 0.28 0.12 0 0.32 0.12 0 0.36 0.12 0 0.4 0.12 0 0.44 0.12 0 0.48 0.12 0 0.52 0.12 0 0.56 0.12 0 0.6 0.12 0 0.64 0.12 0 0.68 0.12 0 0.72 0.12 0 0.76 0.12 0 0.8 0.12 0 0.84 0.12 0 0.88 0.12 0 0.92 0.12 0 0.96 0.12 0 1 0.12 0 1.04 0.12 0 1.08 0.12 0 1.12 0.12 0 1.16 0.12 0 1.2 0.12 0 0 0.16 0 0.04 0.16 0 0.08 0.16 0 0.12 0.16 0 0.16 0.16 0 0.2 0.16 0 0.24 0.16 0 0.28 0.16 0 0.32 0.16 0 0.36 0.16 0 0.4 0.16 0 0.44 0.16 0 0.48 0.16 0 0.52 0.16 0 0.56 0.16 0 0.6 0.16 0 0.64 0.16 0 0.68 0.16 0 0.72 0.16 0 0.76 0.16 0 0.8 0.16 0 0.84 0.16 0 0.88 0.16 0 0.92 0.16 0 0.96 0.16 0 1 0.16 0 1.04 0.16 0 1.08 0.16 0 1.12 0.16 0 1.16 0.16 0 1.2 0.16 0 0 0.2 0 0.04 0.2 0 0.08 0.2 0 0.12 0.2 0 0.16 0.2 0 0.2 0.2 0 0.24 0.2 0 0.28 0.2 0 0.32 0.2 0 0.36 0.2 0 0.4 0.2 0 0.44 0.2 0 0.48 0.2 0 0.52 0.2 0 0.56 0.2 0 0.6 0.2 0 0.64 0.2 0 0.68 0.2 0 0.72 0.2 0 0.76 0.2 0 0.8 0.2 0 0.84 0.2 0 0.88 0.2 0 0.92 0.2 0 0.96 0.2 0 1 0.2 0 1.04 0.2 0 1.08 0.2 0 1.12 0.2 0 1.16 0.2 0 1.2 0.2 0 0 0.24 0 0.04 0.24 0 0.08 0.24 0 0.12 0.24 0 0.16 0.24 0 0.2 0.24 0 0.24 0.24 0 0.28 0.24 0 0.32 0.24 0 0.36 0.24 0 0.4 0.24 0 0.44 0.24 0 0.48 0.24 0 0.52 0.24 0 0.56 0.24 0 0.6 0.24 0 0.64 0.24 0 0.68 0.24 0 0.72 0.24 0 0.76 0.24 0 0.8 0.24 0 0.84 0.24 0 0.88 0.24 0 0.92 0.24 0 0.96 0.24 0 1 0.24 0 1.04 0.24 0 1.08 0.24 0 1.12 0.24 0 1.16 0.24 0 1.2 0.24 0 0 0.28 0 0.04 0.28 0 0.08 0.28 0 0.12 0.28 0 0.16 0.28 0 0.2 0.28 0 0.24 0.28 0 0.28 0.28 0 0.32 0.28 0 0.36 0.28 0 0.4 0.28 0 0.44 0.28 0 0.48 0.28 0 0.52 0.28 0 0.56 0.28 0 0.6 0.28 0 0.64 0.28 0 0.68 0.28 0 0.72 0.28 0 0.76 0.28 0 0.8 0.28 0 0.84 0.28 0 0.88 0.28 0 0.92 0.28 0 0.96 0.28 0 1 0.28 0 1.04 0.28 0 1.08 0.28 0 1.12 0.28 0 1.16 0.28 0 1.2 0.28 0 0 0.32 0 0.04 0.32 0 0.08 0.32 0 0.12 0.32 0 0.16 0.32 0 0.2 0.32 0 0.24 0.32 0 0.28 0.32 0 0.32 0.32 0 0.36 0.32 0 0.4 0.32 0 0.44 0.32 0 0.48 0.32 0 0.52 0.32 0 0.56 0.32 0 0.6 0.32 0 0.64 0.32 0 0.68 0.32 0 0.72 0.32 0 0.76 0.32 0 0.8 0.32 0 0.84 0.32 0 0.88 0.32 0 0.92 0.32 0 0.96 0.32 0 1 0.32 0 1.04 0.32 0 1.08 0.32 0 1.12 0.32 0 1.16 0.32 0 1.2 0.32 0 0 0.36 0 0.04 0.36 0 0.08 0.36 0 0.12 0.36 0 0.16 0.36 0 0.2 0.36 0 0.24 0.36 0 0.28 0.36 0 0.32 0.36 0 0.36 0.36 0 0.4 0.36 0 0.44 0.36 0 0.48 0.36 0 0.52 0.36 0 0.56 0.36 0 0.6 0.36 0 0.64 0.36 0 0.68 0.36 0 0.72 0.36 0 0.76 0.36 0 0.8 0.36 0 0.84 0.36 0 0.88 0.36 0 0.92 0.36 0 0.96 0.36 0 1 0.36 0 1.04 0.36 0 1.08 0.36 0 1.12 0.36 0 1.16 0.36 0 1.2 0.36 0 0 0.4 0 0.04 0.4 0 0.08 0.4 0 0.12 0.4 0 0.16 0.4 0 0.2 0.4 0 0.24 0.4 0 0.28 0.4 0 0.32 0.4 0 0.36 0.4 0 0.4 0.4 0 0.44 0.4 0 0.48 0.4 0 0.52 0.4 0 0.56 0.4 0 0.6 0.4 0 0.64 0.4 0 0.68 0.4 0 0.72 0.4 0 0.76 0.4 0 0.8 0.4 0 0.84 0.4 0 0.88 0.4 0 0.92 0.4 0 0.96 0.4 0 1 0.4 0 1.04 0.4 0 1.08 0.4 0 1.12 0.4 0 1.16 0.4 0 1.2 0.4 0 0 0.44 0 0.04 0.44 0 0.08 0.44 0 0.12 0.44 0 0.16 0.44 0 0.2 0.44 0 0.24 0.44 0 0.28 0.44 0 0.32 0.44 0 0.36 0.44 0 0.4 0.44 0 0.44 0.44 0 0.48 0.44 0 0.52 0.44 0 0.56 0.44 0 0.6 0.44 0 0.64 0.44 0 0.68 0.44 0 0.72 0.44 0 0.76 0.44 0 0.8 0.44 0 0.84 0.44 0 0.88 0.44 0 0.92 0.44 0 0.96 0.44 0 1 0.44 0 1.04 0.44 0 1.08 0.44 0 1.12 0.44 0 1.16 0.44 0 1.2 0.44 0 0 0.48 0 0.04 0.48 0 0.08 0.48 0 0.12 0.48 0 0.16 0.48 0 0.2 0.48 0 0.24 0.48 0 0.28 0.48 0 0.32 0.48 0 0.36 0.48 0 0.4 0.48 0 0.44 0.48 0 0.48 0.48 0 0.52 0.48 0 0.56 0.48 0 0.6 0.48 0 0.64 0.48 0 0.68 0.48 0 0.72 0.48 0 0.76 0.48 0 0.8 0.48 0 0.84 0.48 0 0.88 0.48 0 0.92 0.48 0 0.96 0.48 0 1 0.48 0 1.04 0.48 0 1.08 0.48 0 1.12 0.48 0 1.16 0.48 0 1.2 0.48 0 0 0.52 0 0.04 0.52 0 0.08 0.52 0 0.12 0.52 0 0.16 0.52 0 0.2 0.52 0 0.24 0.52 0 0.28 0.52 0 0.32 0.52 0 0.36 0.52 0 0.4 0.52 0 0.44 0.52 0 0.48 0.52 0 0.52 0.52 0 0.56 0.52 0 0.6 0.52 0 0.64 0.52 0 0.68 0.52 0 0.72 0.52 0 0.76 0.52 0 0.8 0.52 0 0.84 0.52 0 0.88 0.52 0 0.92 0.52 0 0.96 0.52 0 1 0.52 0 1.04 0.52 0 1.08 0.52 0 1.12 0.52 0 1.16 0.52 0 1.2 0.52 0 0 0.56 0 0.04 0.56 0 0.08 0.56 0 0.12 0.56 0 0.16 0.56 0 0.2 0.56 0 0.24 0.56 0 0.28 0.56 0 0.32 0.56 0 0.36 0.56 0 0.4 0.56 0 0.44 0.56 0 0.48 0.56 0 0.52 0.56 0 0.56 0.56 0 0.6 0.56 0 0.64 0.56 0 0.68 0.56 0 0.72 0.56 0 0.76 0.56 0 0.8 0.56 0 0.84 0.56 0 0.88 0.56 0 0.92 0.56 0 0.96 0.56 0 1 0.56 0 1.04 0.56 0 1.08 0.56 0 1.12 0.56 0 1.16 0.56 0 1.2 0.56 0 0 0.6 0 0.04 0.6 0 0.08 0.6 0 0.12 0.6 0 0.16 0.6 0 0.2 0.6 0 0.24 0.6 0 0.28 0.6 0 0.32 0.6 0 0.36 0.6 0 0.4 0.6 0 0.44 0.6 0 0.48 0.6 0 0.52 0.6 0 0.56 0.6 0 0.6 0.6 0 0.64 0.6 0 0.68 0.6 0 0.72 0.6 0 0.76 0.6 0 0.8 0.6 0 0.84 0.6 0 0.88 0.6 0 0.92 0.6 0 0.96 0.6 0 1 0.6 0 1.04 0.6 0 1.08 0.6 0 1.12 0.6 0 1.16 0.6 0 1.2 0.6 0 0 0.64 0 0.04 0.64 0 0.08 0.64 0 0.12 0.64 0 0.16 0.64 0 0.2 0.64 0 0.24 0.64 0 0.28 0.64 0 0.32 0.64 0 0.36 0.64 0 0.4 0.64 0 0.44 0.64 0 0.48 0.64 0 0.52 0.64 0 0.56 0.64 0 0.6 0.64 0 0.64 0.64 0 0.68 0.64 0 0.72 0.64 0 0.76 0.64 0 0.8 0.64 0 0.84 0.64 0 0.88 0.64 0 0.92 0.64 0 0.96 0.64 0 1 0.64 0 1.04 0.64 0 1.08 0.64 0 1.12 0.64 0 1.16 0.64 0 1.2 0.64 0 0 0.68 0 0.04 0.68 0 0.08 0.68 0 0.12 0.68 0 0.16 0.68 0 0.2 0.68 0 0.24 0.68 0 0.28 0.68 0 0.32 0.68 0 0.36 0.68 0 0.4 0.68 0 0.44 0.68 0 0.48 0.68 0 0.52 0.68 0 0.56 0.68 0 0.6 0.68 0 0.64 0.68 0 0.68 0.68 0 0.72 0.68 0 0.76 0.68 0 0.8 0.68 0 0.84 0.68 0 0.88 0.68 0 0.92 0.68 0 0.96 0.68 0 1 0.68 0 1.04 0.68 0 1.08 0.68 0 1.12 0.68 0 1.16 0.68 0 1.2 0.68 0 0 0.72 0 0.04 0.72 0 0.08 0.72 0 0.12 0.72 0 0.16 0.72 0 0.2 0.72 0 0.24 0.72 0 0.28 0.72 0 0.32 0.72 0 0.36 0.72 0 0.4 0.72 0 0.44 0.72 0 0.48 0.72 0 0.52 0.72 0 0.56 0.72 0 0.6 0.72 0 0.64 0.72 0 0.68 0.72 0 0.72 0.72 0 0.76 0.72 0 0.8 0.72 0 0.84 0.72 0 0.88 0.72 0 0.92 0.72 0 0.96 0.72 0 1 0.72 0 1.04 0.72 0 1.08 0.72 0 1.12 0.72 0 1.16 0.72 0 1.2 0.72 0 0 0.76 0 0.04 0.76 0 0.08 0.76 0 0.12 0.76 0 0.16 0.76 0 0.2 0.76 0 0.24 0.76 0 0.28 0.76 0 0.32 0.76 0 0.36 0.76 0 0.4 0.76 0 0.44 0.76 0 0.48 0.76 0 0.52 0.76 0 0.56 0.76 0 0.6 0.76 0 0.64 0.76 0 0.68 0.76 0 0.72 0.76 0 0.76 0.76 0 0.8 0.76 0 0.84 0.76 0 0.88 0.76 0 0.92 0.76 0 0.96 0.76 0 1 0.76 0 1.04 0.76 0 1.08 0.76 0 1.12 0.76 0 1.16 0.76 0 1.2 0.76 0 0 0.8 0 0.04 0.8 0 0.08 0.8 0 0.12 0.8 0 0.16 0.8 0 0.2 0.8 0 0.24 0.8 0 0.28 0.8 0 0.32 0.8 0 0.36 0.8 0 0.4 0.8 0 0.44 0.8 0 0.48 0.8 0 0.52 0.8 0 0.56 0.8 0 0.6 0.8 0 0.64 0.8 0 0.68 0.8 0 0.72 0.8 0 0.76 0.8 0 0.8 0.8 0 0.84 0.8 0 0.88 0.8 0 0.92 0.8 0 0.96 0.8 0 1 0.8 0 1.04 0.8 0 1.08 0.8 0 1.12 0.8 0 1.16 0.8 0 1.2 0.8 0 0 0.84 0 0.04 0.84 0 0.08 0.84 0 0.12 0.84 0 0.16 0.84 0 0.2 0.84 0 0.24 0.84 0 0.28 0.84 0 0.32 0.84 0 0.36 0.84 0 0.4 0.84 0 0.44 0.84 0 0.48 0.84 0 0.52 0.84 0 0.56 0.84 0 0.6 0.84 0 0.64 0.84 0 0.68 0.84 0 0.72 0.84 0 0.76 0.84 0 0.8 0.84 0 0.84 0.84 0 0.88 0.84 0 0.92 0.84 0 0.96 0.84 0 1 0.84 0 1.04 0.84 0 1.08 0.84 0 1.12 0.84 0 1.16 0.84 0 1.2 0.84 0 0 0.88 0 0.04 0.88 0 0.08 0.88 0 0.12 0.88 0 0.16 0.88 0 0.2 0.88 0 0.24 0.88 0 0.28 0.88 0 0.32 0.88 0 0.36 0.88 0 0.4 0.88 0 0.44 0.88 0 0.48 0.88 0 0.52 0.88 0 0.56 0.88 0 0.6 0.88 0 0.64 0.88 0 0.68 0.88 0 0.72 0.88 0 0.76 0.88 0 0.8 0.88 0 0.84 0.88 0 0.88 0.88 0 0.92 0.88 0 0.96 0.88 0 1 0.88 0 1.04 0.88 0 1.08 0.88 0 1.12 0.88 0 1.16 0.88 0 1.2 0.88 0 0 0.92 0 0.04 0.92 0 0.08 0.92 0 0.12 0.92 0 0.16 0.92 0 0.2 0.92 0 0.24 0.92 0 0.28 0.92 0 0.32 0.92 0 0.36 0.92 0 0.4 0.92 0 0.44 0.92 0 0.48 0.92 0 0.52 0.92 0 0.56 0.92 0 0.6 0.92 0 0.64 0.92 0 0.68 0.92 0 0.72 0.92 0 0.76 0.92 0 0.8 0.92 0 0.84 0.92 0 0.88 0.92 0 0.92 0.92 0 0.96 0.92 0 1 0.92 0 1.04 0.92 0 1.08 0.92 0 1.12 0.92 0 1.16 0.92 0 1.2 0.92 0 0 0.96 0 0.04 0.96 0 0.08 0.96 0 0.12 0.96 0 0.16 0.96 0 0.2 0.96 0 0.24 0.96 0 0.28 0.96 0 0.32 0.96 0 0.36 0.96 0 0.4 0.96 0 0.44 0.96 0 0.48 0.96 0 0.52 0.96 0 0.56 0.96 0 0.6 0.96 0 0.64 0.96 0 0.68 0.96 0 0.72 0.96 0 0.76 0.96 0 0.8 0.96 0 0.84 0.96 0 0.88 0.96 0 0.92 0.96 0 0.96 0.96 0 1 0.96 0 1.04 0.96 0 1.08 0.96 0 1.12 0.96 0 1.16 0.96 0 1.2 0.96 0 0 1 0 0.04 1 0 0.08 1 0 0.12 1 0 0.16 1 0 0.2 1 0 0.24 1 0 0.28 1 0 0.32 1 0 0.36 1 0 0.4 1 0 0.44 1 0 0.48 1 0 0.52 1 0 0.56 1 0 0.6 1 0 0.64 1 0 0.68 1 0 0.72 1 0 0.76 1 0 0.8 1 0 0.84 1 0 0.88 1 0 0.92 1 0 0.96 1 0 1 1 0 1.04 1 0 1.08 1 0 1.12 1 0 1.16 1 0 1.2 1 0 0 1.04 0 0.04 1.04 0 0.08 1.04 0 0.12 1.04 0 0.16 1.04 0 0.2 1.04 0 0.24 1.04 0 0.28 1.04 0 0.32 1.04 0 0.36 1.04 0 0.4 1.04 0 0.44 1.04 0 0.48 1.04 0 0.52 1.04 0 0.56 1.04 0 0.6 1.04 0 0.64 1.04 0 0.68 1.04 0 0.72 1.04 0 0.76 1.04 0 0.8 1.04 0 0.84 1.04 0 0.88 1.04 0 0.92 1.04 0 0.96 1.04 0 1 1.04 0 1.04 1.04 0 1.08 1.04 0 1.12 1.04 0 1.16 1.04 0 1.2 1.04 0 0 1.08 0 0.04 1.08 0 0.08 1.08 0 0.12 1.08 0 0.16 1.08 0 0.2 1.08 0 0.24 1.08 0 0.28 1.08 0 0.32 1.08 0 0.36 1.08 0 0.4 1.08 0 0.44 1.08 0 0.48 1.08 0 0.52 1.08 0 0.56 1.08 0 0.6 1.08 0 0.64 1.08 0 0.68 1.08 0 0.72 1.08 0 0.76 1.08 0 0.8 1.08 0 0.84 1.08 0 0.88 1.08 0 0.92 1.08 0 0.96 1.08 0 1 1.08 0 1.04 1.08 0 1.08 1.08 0 1.12 1.08 0 1.16 1.08 0 1.2 1.08 0 0 1.12 0 
[...]
			<PointData Scalars="VitesseX">
				<DataArray Name="VitesseX" type="Float32" format="ascii">
 0 -0.00588726 -0.0351768 -0.0131019 0.0165572 0.0355046 0.0649576 0.0915128 0.113784 0.135726 0.157116 0.177832 0.198467 0.219658 0.241371 0.2637 0.288005 0.310957 0.362181 0.386497 0.358519 0.269681 0.121068 0.0129597 6.36219e-05 8.9653e-09 1.10948e-12 2.23887e-15 -7.3921e-15 7.39218e-15 0 0 0.04105 0.0410389 0.0515471 0.060038 0.0635816 0.0855201 0.106543 0.123759 0.142929 0.162075 0.181229 0.200559 0.220686 0.241552 0.263359 0.287107 0.309934 0.361724 0.38393 0.354918 0.264893 0.11652 0.0118692 5.4276e-05 7.91806e-09 1.00974e-12 2.2356e-15 -7.39363e-15 7.39361e-15 0 0 0.0420226 0.0629613 0.0852141 0.0939943 0.0937279 0.10976 0.121844 0.133901 0.149812 0.16674 0.184525 0.20303 0.222725 0.243128 0.265005 0.287954 0.311125 0.364508 0.38078 0.348122 0.253057 0.103827 0.0090614 3.36039e-05 5.44574e-09 7.63757e-13 1.22366e-15 -7.42387e-15 3.75553e-15 0 0 0.0311593 0.055708 0.0837835 0.0923453 0.104203 0.120764 0.130943 0.143325 0.156986 0.172379 0.188708 0.206426 0.225818 0.245659 0.26774 0.289383 0.314339 0.368937 0.37658 0.337454 0.234054 0.0843369 0.00563844 1.49898e-05 2.89694e-09 4.6868e-13 6.86231e-17 -3.70391e-15 3.74796e-15 0 0 0.0172815 0.0420811 0.0704551 0.0881171 0.105309 0.121684 0.136927 0.150166 0.164463 0.178866 0.194237 0.21118 0.23014 0.249268 0.27153 0.291491 0.320889 0.37301 0.37057 0.321227 0.206916 0.0603542 0.00276016 4.79723e-06 1.17778e-09 2.32336e-13 -3.70716e-15 2.23852e-17 3.68995e-15 0 0 0.0123036 0.0355732 0.0599982 0.0866062 0.102526 0.121751 0.139154 0.153449 0.170012 0.18528 0.200597 0.21721 0.235474 0.254146 0.276073 0.294467 0.332248 0.374074 0.360721 0.297707 0.1706 0.0363445 0.00101988 1.11994e-06 3.62996e-10 9.458e-14 9.50214e-17 -3.76192e-15 -4.0908e-19 0 0 0.0132047 0.0359581 0.0588447 0.0829136 0.102027 0.12251 0.139167 0.15569 0.173388 0.190294 0.20606 0.223662 0.240616 0.260054 0.280178 0.299058 0.347275 0.369804 0.344846 0.264543 0.125351 0.0175712 0.000271252 2.04948e-07 8.62418e-11 3.14031e-14 -2.11598e-14 2.11612e-14 -3.76238e-15 0 0 0.0154669 0.0353322 0.0575763 0.081539 0.102594 0.122079 0.139271 0.157445 0.176156 0.193106 0.210577 0.228155 0.24492 0.26592 0.282705 0.307834 0.358021 0.360042 0.319799 0.218737 0.0760966 0.00626493 4.8943e-05 3.28741e-08 1.67901e-11 -1.47313e-14 9.90051e-22 -3.14745e-22 2.11612e-14 0 0 0.0161557 0.0348527 0.0571659 0.080381 0.102088 0.121591 0.139967 0.15905 0.177223 0.194872 0.213667 0.230247 0.24957 0.268864 0.284875 0.325084 0.357912 0.343264 0.281546 0.158842 0.0350895 0.00152929 5.65092e-06 4.55612e-09 2.81707e-12 -2.00626e-14 -9.04546e-18 9.08701e-18 2.11366e-14 0 0 0.0162936 0.0349696 0.0563157 0.07846 0.100502 0.120818 0.140162 0.158885 0.17708 0.196247 0.213929 0.23216 0.253122 0.268665 0.292501 0.340636 0.34672 0.31439 0.226545 0.0912354 0.0115102 0.000238389 4.38879e-07 4.72963e-10 3.82742e-13 3.97749e-15 -2.117e-14 1.35381e-17 1.73423e-14 0 0 0.016518 0.0348345 0.0549362 0.0761366 0.0978595 0.118697 0.138342 0.157502 0.176969 0.195355 0.213658 0.235061 0.252352 0.269885 0.312623 0.339166 0.325281 0.26775 0.152448 0.0371576 0.00240648 2.14316e-05 3.09419e-08 3.76828e-11 3.85486e-14 3.87184e-17 7.55396e-15 -2.86805e-14 2.48909e-14 0 0 0.0167635 0.0347774 0.0537875 0.0736823 0.094354 0.11506 0.135482 0.155609 0.174634 0.193782 0.2153 0.234123 0.25069 0.284032 0.32304 0.322685 0.287109 0.198413 0.0741037 0.00996042 0.000290638 1.05687e-06 2.01484e-09 2.82887e-12 3.08414e-15 9.12566e-16 5.14493e-16 -4.66152e-16 -1.8315e-14 0 0 0.0168657 0.0346058 0.0529096 0.0718821 0.0916054 0.111896 0.132267 0.152284 0.172785 0.194448 0.213915 0.231373 0.260391 0.302476 0.31198 0.290494 0.224462 0.109929 0.023558 0.00152676 1.75839e-05 4.23554e-08 9.32521e-11 2.01029e-13 2.24327e-16 2.49334e-17 -5.99936e-14 6.00094e-14 -2.1156e-14 0 0 0.0168775 0.0344121 0.0523198 0.0707675 0.0899027 0.109732 0.130194 0.151351 0.172718 0.192302 0.21154 0.240422 0.280696 0.29584 0.283117 0.233547 0.13513 0.0391207 0.00433447 0.000116885 5.18778e-07 1.69525e-09 4.01013e-12 7.5152e-15 2.64462e-18 2.40015e-14 -5.67153e-14 5.67128e-14 -2.40058e-14 0 0 0.0168346 0.0342186 0.0519902 0.0703531 0.0894704 0.109449 0.13008 0.150637 0.170561 0.192192 0.223322 0.25944 0.275889 0.268348 0.229509 0.146227 0.051356 0.00808352 0.000387556 3.63805e-06 1.42362e-08 4.78558e-11 1.35249e-13 2.26368e-16 1.55787e-18 -1.11359e-18 2.49211e-14 -2.49211e-14 -5.14053e-18 0 0 0.0169473 0.0343775 0.0522685 0.0707554 0.0898584 0.109506 0.129469 0.150467 0.175401 0.208643 0.237914 0.253236 0.247789 0.215251 0.1437 0.0566345 0.0111324 0.00078051 1.33131e-05 6.64935e-08 3.37678e-10 1.35462e-12 7.69654e-15 2.49942e-14 -1.25068e-18 -4.98405e-14 4.98404e-14 -4.98404e-14 4.98435e-14 0 0 0.0171541 0.0347229 0.0527949 0.071383 0.090661 0.111317 0.134831 0.163228 0.192194 0.215127 0.227645 0.222153 0.192568 0.129601 0.0539105 0.0120498 0.00107121 2.74303e-05 1.88924e-07 1.30732e-09 6.54755e-12 3.04444e-14 2.52427e-14 -2.49227e-14 4.55709e-20 -9.20191e-19 2.49212e-14 -2.49212e-14 -5.1442e-18 0 0 0.0176422 0.0360717 0.0555412 0.0763695 0.0992479 0.123878 0.148619 0.171316 0.19036 0.198372 0.191363 0.162403 0.106399 0.0444885 0.0104872 0.00105597 3.44487e-05 3.19993e-07 2.84905e-09 1.83977e-11 7.22925e-14 4.94656e-14 -2.49279e-14 6.18558e-18 -1.33733e-20 2.49195e-14 -6.80672e-14 6.80672e-14 -2.49255e-14 0 0 0.0203663 0.0414452 0.0629693 0.0847639 0.106354 0.127467 0.146982 0.160691 0.164545 0.154892 0.125649 0.0773952 0.0312813 0.00724126 0.00075044 2.71569e-05 3.18326e-07 3.66269e-09 3.08215e-11 2.26133e-13 4.45745e-14 -3.69861e-16 1.98414e-17 3.02894e-18 2.65057e-18 2.49195e-14 -6.80673e-14 4.31426e-14 -9.16805e-18 0 0 0.0215516 0.0428125 0.0635135 0.0834971 0.101678 0.116644 0.125542 0.125287 0.112536 0.0846348 0.0474789 0.0178172 0.00376056 0.000367087 1.30616e-05 1.85819e-07 2.82384e-09 3.06602e-11 3.48962e-13 -4.17052e-14 4.35099e-14 -3.81625e-16 2.45882e-17 -1.67222e-18 2.66394e-18 -9.20191e-19 2.49212e-14 -4.98457e-14 2.49112e-14 0 0 0.0201747 0.0390664 0.0560929 0.0704788 0.0808701 0.0851306 0.0812011 0.0675036 0.0457257 0.0227973 0.00742082 0.00131634 0.000110338 3.53259e-06 6.45565e-08 1.28368e-09 1.80497e-11 2.25314e-13 4.4584e-14 -1.57683e-17 1.25221e-17 2.49329e-14 -4.98462e-14 4.98462e-14 -1.27718e-20 -4.98405e-14 4.98394e-14 -2.49173e-14 2.49199e-14 0 0 0.0150174 0.0277356 0.0374145 0.0430875 0.0437164 0.0390131 0.0294312 0.0174335 0.00724875 0.00184388 0.000255653 1.6607e-05 4.93927e-07 1.36618e-08 3.27369e-10 6.36757e-12 1.19242e-13 -4.16854e-14 4.27736e-14 -1.34564e-17 3.06542e-17 -2.20253e-17 3.84231e-16 -3.70056e-16 2.79122e-18 1.29624e-18 2.49179e-14 -2.49173e-14 2.49199e-14 0 0 0.00648681 0.011259 0.0137402 0.0137199 0.0113668 0.00738447 0.00345428 0.00105262 0.000194104 1.93185e-05 9.77673e-07 3.9218e-08 1.60937e-09 4.54403e-11 1.30704e-12 3.18066e-14 -4.26659e-16 3.6741e-16 -3.55646e-16 2.49329e-14 -4.98526e-14 2.49179e-14 3.57402e-16 -3.45933e-16 1.22903e-18 2.49232e-14 -2.49244e-14 -2.49227e-14 4.98489e-14 0 0 0.000989921 0.0015573 0.00153034 0.00106219 0.000519257 0.000173671 3.73672e-05 4.78418e-06 3.80656e-07 2.71466e-08 1.84073e-09 8.58019e-11 3.76806e-12 1.20602e-13 7.1988e-15 2.52406e-14 -2.49277e-14 -1.90269e-17 2.37737e-17 -2.72803e-18 3.58553e-16 -3.80067e-16 4.69019e-19 2.23406e-17 5.98531e-18 -2.98695e-17 3.93297e-16 -3.7416e-16 -4.31558e-14 0 0 8.14536e-06 1.00448e-05 6.6354e-06 2.74143e-06 7.45602e-07 1.4617e-07 2.46263e-08 3.68418e-09 4.03531e-10 3.24261e-11 2.49626e-12 1.44498e-13 7.20479e-15 8.42982e-17 2.49937e-14 -2.492e-14 -8.89841e-18 6.72714e-18 -1.93471e-18 3.97739e-21 3.70056e-16 -3.94278e-16 2.60207e-17 -1.80347e-18 7.51472e-18 -3.38e-17 -4.27495e-14 6.76915e-14 -6.80762e-14 0 0 1.02816e-09 1.41384e-09 1.12136e-09 5.95716e-10 2.19298e-10 5.76492e-11 1.18688e-11 2.11733e-12 3.11495e-13 3.29758e-14 2.5449e-15 7.8381e-15 -4.98451e-14 4.98443e-14 -1.3418e-18 -4.98405e-14 4.98404e-14 -4.98431e-14 4.98432e-14 1.27627e-20 -4.98434e-14 4.98417e-14 -4.98369e-14 4.98385e-14 -9.19071e-19 -2.30572e-18 -1.36144e-13 1.36141e-13 6.80726e-18 0 0 9.97832e-14 1.4844e-13 1.41756e-13 9.4885e-14 4.29206e-14 2.04651e-14 -1.66351e-14 2.19661e-14 -3.68364e-15 3.75586e-17 8.82306e-16 5.75317e-15 -2.40052e-14 7.31597e-19 -1.80903e-35 -9.20191e-19 2.49212e-14 -2.49212e-14 9.20191e-19 -2.42069e-24 1.29623e-18 2.49174e-14 -4.98609e-14 4.98601e-14 5.59671e-19 -6.80992e-14 7.6295e-16 -7.63066e-16 6.8102e-14 0 0 3.28554e-18 1.09845e-15 -7.27843e-15 3.71763e-15 9.30501e-17 -2.11599e-14 -1.10142e-21 -9.04544e-18 2.11707e-14 -3.14916e-17 -5.21427e-15 -4.9546e-14 5.85487e-14 -2.49194e-14 -6.60736e-34 2.49195e-14 -6.80672e-14 6.80672e-14 -2.49194e-14 -1.06294e-18 2.49227e-14 -2.49243e-14 3.45415e-16 -4.34929e-14 -9.42258e-18 7.20857e-16 4.74807e-17 -4.7597e-17 -6.91556e-16 0 0 -2.92577e-16 -4.61096e-15 -3.69608e-15 6.55655e-17 3.76274e-15 -2.11613e-14 -2.52718e-22 -9.00538e-18 1.40618e-17 2.11551e-14 -5.22593e-15 -4.95668e-14 5.85513e-14 -2.49194e-14 -6.80589e-34 2.49195e-14 -6.80673e-14 4.31427e-14 5.1602e-18 2.4921e-14 -2.4921e-14 -2.49283e-14 5.02156e-14 -6.84402e-14 -6.7703e-18 7.20741e-16 4.75973e-17 -4.74002e-17 -6.91753e-16 0 0 -1.54801e-10 -8.34138e-15 3.70146e-15 -3.6469e-15 4.09077e-19 3.76223e-15 -2.11612e-14 2.11367e-14 -2.49215e-14 2.49452e-14 -2.40077e-14 2.68495e-14 -2.40114e-14 9.94352e-18 -9.45959e-38 -9.93986e-18 2.49302e-14 -4.9863e-14 2.49428e-14 2.49206e-14 -2.49207e-14 -4.96745e-18 -4.31638e-14 6.80845e-14 1.36249e-18 -6.80965e-14 7.8675e-16 -7.86553e-16 6.80991e-14 0 0 0 0 0 0 0 0 0 0 0 0 0 0 0 0 0 0 0 0 0 0 0 0 0 0 0 0 0 0 0 0
				</DataArray>
				<DataArray Name="VitesseY" type="Float32" format="ascii">
 0 0 0 0 0 0 0 0 0 0 0 0 0 0 0 0 0 0 0 0 0 0 0 0 0 0 0 0 0 0 0 -0.00586498 0.0410566 0.0420234 0.0311557 0.017279 0.0123024 0.0132041 0.0154669 0.0161564 0.0162945 0.0165187 0.0167638 0.0168661 0.0168779 0.0168351 0.0169478 0.0171543 0.0176421 0.020366 0.021551 0.0201738 0.0150163 0.00648598 0.000989732 8.14227e-06 1.02771e-09 9.97495e-14 3.30351e-18 -1.49459e-18 -1.59545e-18 0 -0.0351614 0.041051 0.0629636 0.055705 0.0420759 0.0355699 0.0359554 0.0353305 0.0348526 0.0349705 0.0348354 0.0347778 0.0346063 0.0344128 0.0342194 0.0343781 0.0347231 0.0360716 0.0414445 0.0428112 0.0390645 0.0277334 0.0112577 0.00155702 1.00412e-05 1.41325e-09 1.48342e-13 1.09835e-15 6.09618e-17 -3.60726e-15 0 -0.013101 0.0515542 0.0852142 0.0837832 0.0704533 0.0599967 0.058842 0.057573 0.0571637 0.0563152 0.0549369 0.0537883 0.0529104 0.0523207 0.0519911 0.052269 0.0527949 0.055541 0.0629681 0.0635116 0.0560902 0.0374116 0.0137387 0.00153008 6.63311e-06 1.12092e-09 1.4171e-13 -7.27828e-15 -3.67597e-15 3.70465e-15 0 0.0165636 0.0600531 0.0940068 0.0923517 0.0881196 0.0866055 0.0829102 0.0815344 0.080377 0.0784579 0.0761369 0.0736838 0.0718835 0.0707685 0.0703539 0.0707558 0.071383 0.0763691 0.0847622 0.0834946 0.0704755 0.0430844 0.0137186 0.00106203 2.74058e-06 5.955e-10 9.4849e-14 3.7175e-15 6.56944e-17 -3.64664e-15 0 0.0355039 0.0635889 0.0937391 0.104209 0.105311 0.102525 0.102024 0.102589 0.102083 0.1005 0.0978596 0.0943563 0.0916075 0.089904 0.0894712 0.0898588 0.0906611 0.0992473 0.106352 0.101675 0.0808668 0.0437138 0.011366 0.000519193 7.4541e-07 2.19228e-10 4.29153e-14 9.30501e-17 3.76274e-15 4.09045e-19 0 0.0649549 0.0855237 0.109769 0.120771 0.121688 0.121751 0.122506 0.122074 0.121587 0.120815 0.118696 0.115062 0.111898 0.109733 0.10945 0.109506 0.111317 0.123877 0.127465 0.116642 0.0851279 0.0390115 0.00738417 0.000173656 1.46143e-07 5.76343e-11 2.04496e-14 -2.11599e-14 -2.11613e-14 3.76223e-15 0 0.0915128 0.106548 0.121853 0.13095 0.13693 0.139153 0.139164 0.139267 0.139963 0.140159 0.138342 0.135483 0.132269 0.130195 0.130081 0.12947 0.134831 0.148618 0.146981 0.125541 0.0811996 0.0294309 0.00345426 3.73658e-05 2.46236e-08 1.18666e-11 -1.66349e-14 -1.12493e-21 -2.55097e-22 -2.11612e-14 0 0.113783 0.123762 0.133906 0.143331 0.150167 0.153448 0.155687 0.157442 0.159047 0.158883 0.157502 0.155609 0.152285 0.151352 0.150638 0.150468 0.163228 0.171315 0.160691 0.125287 0.0675039 0.0174339 0.00105266 4.78428e-06 3.68401e-09 2.11705e-12 2.19662e-14 -9.04542e-18 -9.00538e-18 2.11367e-14 0 0.135728 0.142933 0.149816 0.156989 0.164463 0.17001 0.173386 0.176154 0.17722 0.177079 0.176968 0.174634 0.172785 0.172718 0.170561 0.175401 0.192194 0.19036 0.164547 0.112538 0.0457272 0.00724917 0.000194121 3.80687e-07 4.03537e-10 3.1152e-13 -3.68364e-15 2.11707e-14 1.40617e-17 -2.49215e-14 0 0.157118 0.162079 0.166744 0.172381 0.178865 0.185278 0.190292 0.193104 0.19487 0.196245 0.195354 0.193782 0.194449 0.192303 0.192192 0.208643 0.215127 0.198374 0.154894 0.0846378 0.0227987 0.00184407 1.93214e-05 2.71497e-08 3.24284e-11 3.29656e-14 3.75586e-17 -3.14916e-17 2.11551e-14 2.49452e-14 0 0.177835 0.181233 0.184528 0.18871 0.194237 0.200595 0.206057 0.210575 0.213665 0.213928 0.213657 0.2153 0.213916 0.211541 0.223322 0.237916 0.227647 0.191366 0.125653 0.0474814 0.00742148 0.000255691 9.77868e-07 1.84102e-09 2.49656e-12 2.54483e-15 8.82306e-16 -5.21427e-15 -5.22593e-15 -2.40077e-14 0 0.198471 0.200564 0.203034 0.206428 0.211181 0.217208 0.223659 0.228152 0.230245 0.232159 0.23506 0.234123 0.231373 0.240423 0.259441 0.253238 0.222155 0.162407 0.0773986 0.0178185 0.0013165 1.66102e-05 3.92257e-08 8.58184e-11 1.44523e-13 7.8381e-15 5.75317e-15 -4.9546e-14 -4.95668e-14 2.68495e-14 0 0.219662 0.220691 0.222729 0.225821 0.230141 0.235473 0.240613 0.244917 0.249567 0.253121 0.252351 0.250689 0.26039 0.280697 0.275891 0.247791 0.192572 0.106403 0.0312828 0.00376089 0.000110355 4.9403e-07 1.6097e-09 3.7688e-12 7.20492e-15 -4.98451e-14 -2.40052e-14 5.85487e-14 5.85513e-14 -2.40114e-14 0 0.241375 0.241557 0.243132 0.245661 0.249269 0.254145 0.260051 0.265917 0.268861 0.268663 0.269883 0.284033 0.302476 0.295841 0.268349 0.215253 0.129604 0.04449 0.00724169 0.000367124 3.5332e-06 1.36642e-08 4.54494e-11 1.20659e-13 8.42325e-17 4.98443e-14 7.31651e-19 -2.49194e-14 -2.49194e-14 9.94359e-18 0 0.263705 0.263364 0.265009 0.267743 0.271532 0.276073 0.280176 0.282701 0.284872 0.292499 0.312622 0.32304 0.31198 0.283117 0.22951 0.143701 0.0539112 0.0104876 0.000750487 1.30631e-05 6.45656e-08 3.27425e-10 1.30719e-12 7.20386e-15 2.49937e-14 -1.34185e-18 5.37316e-23 5.60969e-23 -9.98255e-24 7.62016e-23 0 0.28801 0.287112 0.287958 0.289386 0.291492 0.294467 0.299056 0.307831 0.325082 0.340634 0.339164 0.322683 0.290493 0.233546 0.146226 0.0566346 0.0120499 0.00105599 2.71585e-05 1.85837e-07 1.28384e-09 6.36852e-12 3.18886e-14 2.52406e-14 -2.492e-14 -4.98405e-14 -9.20208e-19 2.49195e-14 2.49195e-14 -9.93984e-18 0 0.310961 0.309938 0.311128 0.31434 0.320889 0.332247 0.347273 0.358019 0.357909 0.346717 0.325278 0.287106 0.224459 0.135127 0.0513549 0.0111322 0.00107119 3.44487e-05 3.18337e-07 2.82401e-09 1.80513e-11 1.1918e-13 -4.26397e-16 -2.49277e-14 -8.89845e-18 4.98404e-14 2.49212e-14 -6.80672e-14 -6.80673e-14 2.49302e-14 0 0.36218 0.361723 0.364507 0.368937 0.373009 0.374073 0.369802 0.360039 0.34326 0.314386 0.267745 0.198408 0.109925 0.039119 0.00808307 0.000780463 2.74287e-05 3.19983e-07 3.66269e-09 3.06614e-11 2.25407e-13 -4.16854e-14 3.6741e-16 -1.90268e-17 6.72715e-18 -4.98431e-14 -2.49212e-14 6.80672e-14 4.31427e-14 -4.9863e-14 0 0.386499 0.383932 0.380782 0.376581 0.37057 0.360721 0.344844 0.319796 0.281541 0.22654 0.152443 0.0740999 0.0235564 0.00433409 0.000387516 1.33116e-05 1.88906e-07 2.84887e-09 3.08204e-11 3.48962e-13 4.45839e-14 4.27736e-14 -3.55646e-16 2.37737e-17 -1.93465e-18 4.98432e-14 9.20244e-19 -2.49194e-14 5.16019e-18 2.49428e-14 0 0.358522 0.354922 0.348125 0.337456 0.321228 0.297707 0.264541 0.218734 0.158837 0.091231 0.037155 0.00995948 0.00152657 0.000116867 3.63743e-06 6.64841e-08 1.30716e-09 1.83957e-11 2.2604e-13 -4.17051e-14 -1.57683e-17 -1.34564e-17 2.49329e-14 -2.72796e-18 3.99336e-21 1.27141e-20 5.13106e-23 -1.06295e-18 2.4921e-14 2.49206e-14 0 0.269688 0.2649 0.253063 0.234059 0.20692 0.170602 0.12535 0.0760949 0.0350879 0.0115094 0.0024062 0.000290594 1.75805e-05 5.18671e-07 1.42337e-08 3.3762e-10 6.54689e-12 7.23547e-14 4.45745e-14 4.35099e-14 1.25221e-17 3.06541e-17 -4.98526e-14 3.58553e-16 3.70056e-16 -4.98434e-14 1.29626e-18 2.49227e-14 -2.4921e-14 -2.49207e-14 0 0.121076 0.116528 0.103833 0.0843417 0.0603571 0.0363457 0.0175713 0.0062648 0.0015292 0.000238364 2.14282e-05 1.05666e-06 4.23471e-08 1.6949e-09 4.78464e-11 1.35432e-12 3.03618e-14 4.94654e-14 -3.69861e-16 -3.81625e-16 2.49329e-14 -2.20253e-17 2.49179e-14 -3.80067e-16 -3.94278e-16 4.98417e-14 2.49174e-14 -2.49243e-14 -2.49283e-14 -4.96743e-18 0 0.0129618 0.0118712 0.00906282 0.00563926 0.00276051 0.00101998 0.00027127 4.8944e-05 5.65075e-06 4.38841e-07 3.09381e-08 2.01452e-09 9.32341e-11 4.00927e-12 1.35182e-13 7.69148e-15 2.52427e-14 -2.49279e-14 1.98415e-17 2.45882e-17 -4.98462e-14 3.84231e-16 3.57402e-16 4.69135e-19 2.60207e-17 -4.98369e-14 -4.98609e-14 3.45416e-16 5.02156e-14 -4.31638e-14 0 6.36447e-05 5.42952e-05 3.36153e-05 1.49945e-05 4.79858e-06 1.12019e-06 2.0498e-07 3.28771e-08 4.55627e-09 4.72952e-10 3.76799e-11 2.82852e-12 2.01003e-13 7.5152e-15 2.26434e-16 2.49942e-14 -2.49227e-14 6.18559e-18 3.02896e-18 -1.67222e-18 4.98462e-14 -3.70056e-16 -3.45933e-16 2.23406e-17 -1.80341e-18 4.98385e-14 4.98601e-14 -4.34929e-14 -6.84402e-14 6.80845e-14 0 8.96893e-09 7.92122e-09 5.44784e-09 2.89799e-09 1.17817e-09 3.63101e-10 8.62616e-11 1.67928e-11 2.81732e-12 3.82737e-13 3.85589e-14 3.08421e-15 2.24327e-16 2.64464e-18 1.55794e-18 -1.25073e-18 4.56247e-20 -1.33226e-20 2.65062e-18 2.664e-18 -1.28226e-20 2.79128e-18 1.229e-18 5.98531e-18 7.51474e-18 -9.19055e-19 5.59624e-19 -9.42262e-18 -6.77029e-18 1.36249e-18 0 1.10995e-12 1.01017e-12 7.64061e-13 4.68839e-13 2.32413e-13 9.46158e-14 3.14181e-14 -1.47316e-14 -2.00626e-14 3.97749e-15 3.87184e-17 9.12566e-16 2.49333e-17 2.40015e-14 -1.11361e-18 -4.98405e-14 -9.20208e-19 2.49195e-14 2.49195e-14 -9.20208e-19 -4.98405e-14 1.29622e-18 2.49232e-14 -2.98694e-17 -3.38001e-17 -2.30575e-18 -6.80992e-14 7.20857e-16 7.20741e-16 -6.80965e-14 0 2.23871e-15 2.23543e-15 1.22358e-15 6.85023e-17 -3.7073e-15 9.50214e-17 -2.11598e-14 9.66247e-22 -9.04542e-18 -2.117e-14 7.55396e-15 5.14493e-16 -5.99936e-14 -5.67153e-14 2.49211e-14 4.98404e-14 2.49212e-14 -6.80672e-14 -6.80673e-14 2.49212e-14 4.98394e-14 2.49179e-14 -2.49244e-14 3.93297e-16 -4.27495e-14 -1.36144e-13 7.6295e-16 4.74807e-17 4.75974e-17 7.86751e-16 0 2.5747e-15 2.28212e-15 -2.71131e-15 -3.6833e-15 2.27818e-17 -3.76192e-15 2.11612e-14 -3.17393e-22 9.08697e-18 1.35381e-17 -2.86805e-14 -4.66152e-16 6.00094e-14 5.67128e-14 -2.49211e-14 -4.98404e-14 -2.49212e-14 6.80672e-14 4.31426e-14 -4.98457e-14 -2.49173e-14 -2.49173e-14 -2.49227e-14 -3.7416e-16 6.76915e-14 1.36141e-13 -7.63066e-16 -4.7597e-17 -4.74002e-17 -7.86553e-16 0 3.09599e-10 1.54798e-10 -9.28419e-16 3.7107e-15 3.68969e-15 -4.09076e-19 -3.76238e-15 2.11612e-14 2.11366e-14 1.73423e-14 2.48909e-14 -1.8315e-14 -2.1156e-14 -2.40058e-14 -5.14052e-18 4.98435e-14 -5.1442e-18 -2.49255e-14 -9.16811e-18 2.49112e-14 2.49199e-14 2.49199e-14 4.98489e-14 -4.31558e-14 -6.80762e-14 6.80723e-18 6.8102e-14 -6.91556e-16 -6.91753e-16 6.80991e-14 0 2.10204e-05 0 0 0 0 0 0 0 0 0 0 0 0 0 0 0 0 0 0 0 0 0 0 0 0 0 0 0 0 0 0
				</DataArray>
			</PointData>
			<CellData Scalars="Density">
				<DataArray Name="Density" type="Float32" format="ascii">