<?xml version="1.0"?>
<VTKFile type="PolyData">
	<PolyData>
		<Piece NumberOfPoints="961" NumberOfPolys="900">
			<Points>
				<DataArray type="Float32" NumberOfComponents="3" format="ascii">
 0 0 0 0.04 0 0 0.08 0 0 0.12 0 0 0.16 0 0 0.2 0 0 0.24 0 0 0.28 0 0 0.32 0 0 0.36 0 0 0.4 0 0 0.44 0 0 0.48 0 0 0.52 0 0 0.56 0 0 0.6 0 0 0.64 0 0 0.68 0 0 0.72 0 0 0.76 0 0 0.8 0 0 0.84 0 0 0.88 0 0 0.92 0 0 0.96 0 0 1 0 0 1.04 0 0 1.08 0 0 1.12 0 0 1.16 0 0 1.2 0 0 0 0.04 0 0.04 0.04 0 0.08 0.04 0 0.12 0.04 0 0.16 0.04 0 0.2 0.04 0 0.24 0.04 0 0.28 0.04 0 0.32 0.04 0 0.36 0.04 0 0.4 0.04 0 0.44 0.04 0 0.48 0.04 0 0.52 0.04 0 0.56 0.04 0 0.6 0.04 0 0.64 0.04 0 0.68 0.04 0 0.72 0.04 0 0.76 0.04 0 0.8 0.04 0 0.84 0.04 0 0.88 0.04 0 0.92 0.04 0 0.96 0.04 0 1 0.04 0 1.04 0.04 0 1.08 0.04 0 1.12 0.04 0 1.16 0.04 0 1.2 0.04 0 0 0.08 0 0.04 0.08 0 0.08 0.08 0 0.12 0.08 0 0.16 0.08 0 0.2 0.08 0 0.24 0.08 0 0.28 0.08 0 0.32 0.08 0 0.36 0.08 0 0.4 0.08 0 0.44 0.08 0 0.48 0.08 0 0.52 0.08 0 0.56 0.08 0 0.6 0.08 0 0.64 0.08 0 0.68 0.08 0 0.72 0.08 0 0.76 0.08 0 0.8 0.08 0 0.84 0.08 0 0.88 0.08 0 0.92 0.08 0 0.96 0.08 0 1 0.08 0 1.04 0.08 0 1.08 0.08 0 1.12 0.08 0 1.16 0.08 0 1.2 0.08 0 0 0.12 0 0.04 0.12 0 0.08 0.12 0 0.12 0.12 0 0.16 0.12 0 0.2 0.12 0 0.24 0.12 0 0.28 0.12 0 0.32 0.12 0 0.36 0.12 0 0.4 0.12 0 0.44 0.12 0 0.48 0.12 0 0.52 0.12 0 0.56 0.12 0 0.6 0.12 0 0.64 0.12 0 0.68 0.12 0 0.72 0.12 0 0.76 0.12 0 0.8 0.12 0 0.84 0.12 0 0.88 0.12 0 0.92 0.12 0 0.96 0.12 0 1 0.12 0 1.04 0.12 0 1.08 0.12 0 1.12 0.12 0 1.16 0.12 0 1.2 0.12 0 0 0.16 0 0.04 0.16 0 0.08 0.16 0 0.12 0.16 0 0.16 0.16 0 0.2 0.16 0 0.24 0.16 0 0.28 0.16 0 0.32 0.16 0 0.36 0.16 0 0.4 0.16 0 0.44 0.16 0 0.48 0.16 0 0.52 0.16 0 0.56 0.16 0 0.6 0.16 0 0.64 0.16 0 0.68 0.16 0 0.72 0.16 0 0.76 0.16 0 0.8 0.16 0 0.84 0.16 0 0.88 0.16 0 0.92 0.16 0 0.96 0.16 0 1 0.16 0 1.04 0.16 0 1.08 0.16 0 1.12 0.16 0 1.16 0.16 0 1.2 0.16 0 0 0.2 0 0.04 0.2 0 0.08 0.2 0 0.12 0.2 0 0.16 0.2 0 0.2 0.2 0 0.24 0.2 0 0.28 0.2 0 0.32 0.2 0 0.36 0.2 0 0.4 0.2 0 0.44 0.2 0 0.48 0.2 0 0.52 0.2 0 0.56 0.2 0 0.6 0.2 0 0.64 0.2 0 0.68 0.2 0 0.72 0.2 0 0.76 0.2 0 0.8 0.2 0 0.84 0.2 0 0.88 0.2 0 0.92 0.2 0 0.96 0.2 0 1 0.2 0 1.04 0.2 0 1.08 0.2 0 1.12 0.2 0 1.16 0.2 0 1.2 0.2 0 0 0.24 0 0.04 0.24 0 0.08 0.24 0 0.12 0.24 0 0.16 0.24 0 0.2 0.24 0 0.24 0.24 0 0.28 0.24 0 0.32 0.24 0 0.36 0.24 0 0.4 0.24 0 0.44 0.24 0 0.48 0.24 0 0.52 0.24 0 0.56 0.24 0 0.6 0.24 0 0.64 0.24 0 0.68 0.24 0 0.72 0.24 0 0.76 0.24 0 0.8 0.24 0 0.84 0.24 0 0.88 0.24 0 0.92 0.24 0 0.96 0.24 0 1 0.24 0 1.04 0.24 0 1.08 0.24 0 1.12 0.24 0 1.16 0.24 0 1.2 0.24 0 0 0.28 0 0.04 0.28 0 0.08 0.28 0 0.12 0.28 0 0.16 0.28 0 0.2 0.28 0 0.24 0.28 0 0.28 0.28 0 0.32 0.28 0 0.36 0.28 0 0.4 0.28 0 0.44 0.28 0 0.48 0.28 0 0.52 0.28 0 0.56 0.28 0 0.6 0.28 0 0.64 0.28 0 0.68 0.28 0 0.72 0.28 0 0.76 0.28 0 0.8 0.28 0 0.84 0.28 0 0.88 0.28 0 0.92 0.28 0 0.96 0.28 0 1 0.28 0 1.04 0.28 0 1.08 0.28 0 1.12 0.28 0 1.16 0.28 0 1.2 0.28 0 0 0.32 0 0.04 0.32 0 0.08 0.32 0 0.12 0.32 0 0.16 0.32 0 0.2 0.32 0 0.24 0.32 0 0.28 0.32 0 0.32 0.32 0 0.36 0.32 0 0.4 0.32 0 0.44 0.32 0 0.48 0.32 0 0.52 0.32 0 0.56 0.32 0 0.6 0.32 0 0.64 0.32 0 0.68 0.32 0 0.72 0.32 0 0.76 0.32 0 0.8 0.32 0 0.84 0.32 0 0.88 0.32 0 0.92 0.32 0 0.96 0.32 0 1 0.32 0 1.04 0.32 0 1.08 0.32 0 1.12 0.32 0 1.16 0.32 0 1.2 0.32 0 0 0.36 0 0.04 0.36 0 0.08 0.36 0 0.12 0.36 0 0.16 0.36 0 0.2 0.36 0 0.24 0.36 0 0.28 0.36 0 0.32 0.36 0 0.36 0.36 0 0.4 0.36 0 0.44 0.36 0 0.48 0.36 0 0.52 0.36 0 0.56 0.36 0 0.6 0.36 0 0.64 0.36 0 0.68 0.36 0 0.72 0.36 0 0.76 0.36 0 0.8 0.36 0 0.84 0.36 0 0.88 0.36 0 0.92 0.36 0 0.96 0.36 0 1 0.36 0 1.04 0.36 0 1.08 0.36 0 1.12 0.36 0 1.16 0.36 0 1.2 0.36 0 0 0.4 0 0.04 0.4 0 0.08 0.4 0 0.12 0.4 0 0.16 0.4 0 0.2 0.4 0 0.24 0.4 0 0.28 0.4 0 0.32 0.4 0 0.36 0.4 0 0.4 0.4 0 0.44 0.4 0 0.48 0.4 0 0.52 0.4 0 0.56 0.4 0 0.6 0.4 0 0.64 0.4 0 0.68 0.4 0 0.72 0.4 0 0.76 0.4 0 0.8 0.4 0 0.84 0.4 0 0.88 0.4 0 0.92 0.4 0 0.96 0.4 0 1 0.4 0 1.04 0.4 0 1.08 0.4 0 1.12 0.4 0 1.16 0.4 0 1.2 0.4 0 0 0.44 0 0.04 0.44 0 0.08 0.44 0 0.12 0.44 0 0.16 0.44 0 0.2 0.44 0 0.24 0.44 0 0.28 0.44 0 0.32 0.44 0 0.36 0.44 0 0.4 0.44 0 0.44 0.44 0 0.48 0.44 0 0.52 0.44 0 0.56 0.44 0 0.6 0.44 0 0.64 0.44 0 0.68 0.44 0 0.72 0.44 0 0.76 0.44 0 0.8 0.44 0 0.84 0.44 0 0.88 0.44 0 0.92 0.44 0 0.96 0.44 0 1 0.44 0 1.04 0.44 0 1.08 0.44 0 1.12 0.44 0 1.16 0.44 0 1.2 0.44 0 0 0.48 0 0.04 0.48 0 0.08 0.48 0 0.12 0.48 0 0.16 0.48 0 0.2 0.48 0 0.24 0.48 0 0.28 0.48 0 0.32 0.48 0 0.36 0.48 0 0.4 0.48 0 0.44 0.48 0 0.48 0.48 0 0.52 0.48 0 0.56 0.48 0 0.6 0.48 0 0.64 0.48 0 0.68 0.48 0 0.72 0.48 0 0.76 0.48 0 0.8 0.48 0 0.84 0.48 0 0.88 0.48 0 0.92 0.48 0 0.96 0.48 0 1 0.48 0 1.04 0.48 0 1.08 0.48 0 1.12 0.48 0 1.16 0.48 0 1.2 0.48 0 0 0.52 0 0.04 0.52 0 0.08 0.52 0 0.12 0.52 0 0.16 0.52 0 0.2 0.52 0 0.24 0.52 0 0.28 0.52 0 0.32 0.52 0 0.36 0.52 0 0.4 0.52 0 0.44 0.52 0 0.48 0.52 0 0.52 0.52 0 0.56 0.52 0 0.6 0.52 0 0.64 0.52 0 0.68 0.52 0 0.72 0.52 0 0.76 0.52 0 0.8 0.52 0 0.84 0.52 0 0.88 0.52 0 0.92 0.52 0 0.96 0.52 0 1 0.52 0 1.04 0.52 0 1.08 0.52 0 1.12 0.52 0 1.16 0.52 0 1.2 0.52 0 0 0.56 0 0.04 0.56 0 0.08 0.56 0 0.12 0.56 0 0.16 0.56 0 0.2 0.56 0 0.24 0.56 0 0.28 0.56 0 0.32 0.56 0 0.36 0.56 0 0.4 0.56 0 0.44 0.56 0 0.48 0.56 0 0.52 0.56 0 0.56 0.56 0 0.6 0.56 0 0.64 0.56 0 0.68 0.56 0 0.72 0.56 0 0.76 0.56 0 0.8 0.56 0 0.84 0.56 0 0.88 0.56 0 0.92 0.56 0 0.96 0.56 0 1 0.56 0 1.04 0.56 0 1.08 0.56 0 1.12 0.56 0 1.16 0.56 0 1.2 0.56 0 0 0.6 0 0.04 0.6 0 0.08 0.6 0 0.12 0.6 0 0.16 0.6 0 0.2 0.6 0 0.24 0.6 0 0.28 0.6 0 0.32 0.6 0 0.36 0.6 0 0.4 0.6 0 0.44 0.6 0 0.48 0.6 0 0.52 0.6 0 0.56 0.6 0 0.6 0.6 0 0.64 0.6 0 0.68 0.6 0 0.72 0.6 0 0.76 0.6 0 0.8 0.6 0 0.84 0.6 0 0.88 0.6 0 0.92 0.6 0 0.96 0.6 0 1 0.6 0 1.04 0.6 0 1.08 0.6 0 1.12 0.6 0 1.16 0.6 0 1.2 0.6 0 0 0.64 0 0.04 0.64 0 0.08 0.64 0 0.12 0.64 0 0.16 0.64 0 0.2 0.64 0 0.24 0.64 0 0.28 0.64 0 0.32 0.64 0 0.36 0.64 0 0.4 0.64 0 0.44 0.64 0 0.48 0.64 0 0.52 0.64 0 0.56 0.64 0 0.6 0.64 0 0.64 0.64 0 0.68 0.64 0 0.72 0.64 0 0.76 0.64 0 0.8 0.64 0 0.84 0.64 0 0.88 0.64 0 0.92 0.64 0 0.96 0.64 0 1 0.64 0 1.04 0.64 0 1.08 0.64 0 1.12 0.64 0 1.16 0.64 0 1.2 0.64 0 0 0.68 0 0.04 0.68 0 0.08 0.68 0 0.12 0.68 0 0.16 0.68 0 0.2 0.68 0 0.24 0.68 0 0.28 0.68 0 0.32 0.68 0 0.36 0.68 0 0.4 0.68 0 0.44 0.68 0 0.48 0.68 0 0.52 0.68 0 0.56 0.68 0 0.6 0.68 0 0.64 0.68 0 0.68 0.68 0 0.72 0.68 0 0.76 0.68 0 0.8 0.68 0 0.84 0.68 0 0.88 0.68 0 0.92 0.68 0 0.96 0.68 0 1 0.68 0 1.04 0.68 0 1.08 0.68 0 1.12 0.68 0 1.16 0.68 0 1.2 0.68 0 0 0.72 0 0.04 0.72 0 0.08 0.72 0 0.12 0.72 0 0.16 0.72 0 0.2 0.72 0 0.24 0.72 0 0.28 0.72 0 0.32 0.72 0 0.36 0.72 0 0.4 0.72 0 0.44 0.72 0 0.48 0.72 0 0.52 0.72 0 0.56 0.72 0 0.6 0.72 0 0.64 0.72 0 0.68 0.72 0 0.72 0.72 0 0.76 0.72 0 0.8 0.72 0 0.84 0.72 0 0.88 0.72 0 0.92 0.72 0 0.96 0.72 0 1 0.72 0 1.04 0.72 0 1.08 0.72 0 1.12 0.72 0 1.16 0.72 0 1.2 0.72 0 0 0.76 0 0.04 0.76 0 0.08 0.76 0 0.12 0.76 0 0.16 0.76 0 0.2 0.76 0 0.24 0.76 0 0.28 0.76 0 0.32 0.76 0 0.36 0.76 0 0.4 0.76 0 0.44 0.76 0 0.48 0.76 0 0.52 0.76 0 0.56 0.76 0 0.6 0.76 0 0.64 0.76 0 0.68 0.76 0 0.72 0.76 0 0.76 0.76 0 0.8 0.76 0 0.84 0.76 0 0.88 0.76 0 0.92 0.76 0 0.96 0.76 0 1 0.76 0 1.04 0.76 0 1.08 0.76 0 1.12 0.76 0 1.16 0.76 0 1.2 0.76 0 0 0.8 0 0.04 0.8 0 0.08 0.8 0 0.12 0.8 0 0.16 0.8 0 0.2 0.8 0 0.24 0.8 0 0.28 0.8 0 0.32 0.8 0 0.36 0.8 0 0.4 0.8 0 0.44 0.8 0 0.48 0.8 0 0.52 0.8 0 0.56 0.8 0 0.6 0.8 0 0.64 0.8 0 0.68 0.8 0 0.72 0.8 0 0.76 0.8 0 0.8 0.8 0 0.84 0.8 0 0.88 0.8 0 0.92 0.8 0 0.96 0.8 0 1 0.8 0 1.04 0.8 0 1.08 0.8 0 1.12 0.8 0 1.16 0.8 0 1.2 0.8 0 0 0.84 0 0.04 0.84 0 0.08 0.84 0 0.12 0.84 0 0.16 0.84 0 0.2 0.84 0 0.24 0.84 0 0.28 0.84 0 0.32 0.84 0 0.36 0.84 0 0.4 0.84 0 0.44 0.84 0 0.48 0.84 0 0.52 0.84 0 0.56 0.84 0 0.6 0.84 0 0.64 0.84 0 0.68 0.84 0 0.72 0.84 0 0.76 0.84 0 0.8 0.84 0 0.84 0.84 0 0.88 0.84 0 0.92 0.84 0 0.96 0.84 0 1 0.84 0 1.04 0.84 0 1.08 0.84 0 1.12 0.84 0 1.16 0.84 0 1.2 0.84 0 0 0.88 0 0.04 0.88 0 0.08 0.88 0 0.12 0.88 0 0.16 0.88 0 0.2 0.88 0 0.24 0.88 0 0.28 0.88 0 0.32 0.88 0 0.36 0.88 0 0.4 0.88 0 0.44 0.88 0 0.48 0.88 0 0.52 0.88 0 0.56 0.88 0 0.6 0.88 0 0.64 0.88 0 0.68 0.88 0 0.72 0.88 0 0.76 0.88 0 0.8 0.88 0 0.84 0.88 0 0.88 0.88 0 0.92 0.88 0 0.96 0.88 0 1 0.88 0 1.04 0.88 0 1.08 0.88 0 1.12 0.88 0 1.16 0.88 0 1.2 0.88 0 0 0.92 0 0.04 0.92 0 0.08 0.92 0 0.12 0.92 0 0.16 0.92 0 0.2 0.92 0 0.24 0.92 0 0.28 0.92 0 0.32 0.92 0 0.36 0.92 0 0.4 0.92 0 0.44 0.92 0 0.48 0.92 0 0.52 0.92 0 0.56 0.92 0 0.6 0.92 0 0.64 0.92 0 0.68 0.92 0 0.72 0.92 0 0.76 0.92 0 0.8 0.92 0 0.84 0.92 0 0.88 0.92 0 0.92 0.92 0 0.96 0.92 0 1 0.92 0 1.04 0.92 0 1.08 0.92 0 1.12 0.92 0 1.16 0.92 0 1.2 0.92 0 0 0.96 0 0.04 0.96 0 0.08 0.96 0 0.12 0.96 0 0.16 0.96 0 0.2 0.96 0 0.24 0.96 0 0.28 0.96 0 0.32 0.96 0 0.36 0.96 0 0.4 0.96 0 0.44 0.96 0 0.48 0.96 0 0.52 0.96 0 0.56 0.96 0 0.6 0.96 0 0.64 0.96 0 0.68 0.96 0 0.72 0.96 0 0.76 0.96 0 0.8 0.96 0 0.84 0.96 0 0.88 0.96 0 0.92 0.96 0 0.96 0.96 0 1 0.96 0 1.04 0.96 0 1.08 0.96 0 1.12 0.96 0 1.16 0.96 0 1.2 0.96 0 0 1 0 0.04 1 0 0.08 1 0 0.12 1 0 0.16 1 0 0.2 1 0 0.24 1 0 0.28 1 0 0.32 1 0 0.36 1 0 0.4 1 0 0.44 1 0 0.48 1 0 0.52 1 0 0.56 1 0 0.6 1 0 0.64 1 0 0.68 1 0 0.72 1 0 0.76 1 0 0.8 1 0 0.84 1 0 0.88 1 0 0.92 1 0 0.96 1 0 1 1 0 1.04 1 0 1.08 1 0 1.12 1 0 1.16 1 0 1.2 1 0 0 1.04 0 0.04 1.04 0 0.08 1.04 0 0.12 1.04 0 0.16 1.04 0 0.2 1.04 0 0.24 1.04 0 0.28 1.04 0 0.32 1.04 0 0.36 1.04 0 0.4 1.04 0 0.44 1.04 0 0.48 1.04 0 0.52 1.04 0 0.56 1.04 0 0.6 1.04 0 0.64 1.04 0 0.68 1.04 0 0.72 1.04 0 0.76 1.04 0 0.8 1.04 0 0.84 1.04 0 0.88 1.04 0 0.92 1.04 0 0.96 1.04 0 1 1.04 0 1.04 1.04 0 1.08 1.04 0 1.12 1.04 0 1.16 1.04 0 1.2 1.04 0 0 1.08 0 0.04 1.08 0 0.08 1.08 0 0.12 1.08 0 0.16 1.08 0 0.2 1.08 0 0.24 1.08 0 0.28 1.08 0 0.32 1.08 0 0.36 1.08 0 0.4 1.08 0 0.44 1.08 0 0.48 1.08 0 0.52 1.08 0 0.56 1.08 0 0.6 1.08 0 0.64 1.08 0 0.68 1.08 0 0.72 1.08 0 0.76 1.08 0 0.8 1.08 0 0.84 1.08 0 0.88 1.08 0 0.92 1.08 0 0.96 1.08 0 1 1.08 0 1.04 1.08 0 1.08 1.08 0 1.12 1.08 0 1.16 1.08 0 1.2 1.08 0 0 1.12 0 
[...]
			<PointData Scalars="VitesseX">
				<DataArray Name="VitesseX" type="Float32" format="ascii">
 0 -0.0685702 -0.134313 -0.126837 -0.0700338 0.0349331 0.157129 0.270854 0.347087 0.374046 0.354606 0.314487 0.266735 0.221702 0.187285 0.165838 0.153565 0.144614 0.125509 -0.0838963 -0.460743 -0.710406 -0.754143 -0.651526 -0.560897 -0.471085 -0.380349 -0.288418 -0.195389 -0.0980915 0 0 0.0559051 0.017706 -0.00360457 0.0343463 0.102207 0.19244 0.282148 0.345413 0.358891 0.335942 0.293802 0.249317 0.211501 0.183188 0.165062 0.154457 0.145816 0.127104 -0.0778182 -0.453898 -0.70696 -0.754114 -0.651946 -0.561332 -0.471605 -0.38092 -0.28893 -0.195668 -0.0980922 0 0 0.028916 0.0556971 0.0451796 0.047201 0.0666976 0.0927898 0.130273 0.171674 0.204433 0.215169 0.208089 0.19236 0.175488 0.162367 0.154749 0.150385 0.14519 0.129191 -0.0614551 -0.433888 -0.696304 -0.752991 -0.652374 -0.561611 -0.471979 -0.381433 -0.289494 -0.196028 -0.0981841 0 0 -0.0296218 -0.0501128 -0.0567174 -0.0647341 -0.0639991 -0.0537056 -0.0350703 -0.0116826 0.0154428 0.051795 0.0833762 0.105118 0.117556 0.126218 0.133077 0.138369 0.139375 0.128461 -0.0387628 -0.402731 -0.678944 -0.750372 -0.653395 -0.562281 -0.472668 -0.382255 -0.29052 -0.197043 -0.0987604 0 0 -0.0775159 -0.122365 -0.146782 -0.159105 -0.166916 -0.168187 -0.162485 -0.141426 -0.104462 -0.0641068 -0.0193628 0.021362 0.0561462 0.0832078 0.103956 0.118301 0.126639 0.122139 -0.0143857 -0.363002 -0.65472 -0.745044 -0.655189 -0.563543 -0.473872 -0.383564 -0.292108 -0.198783 -0.0999939 0 0 -0.105347 -0.171856 -0.205743 -0.228045 -0.242586 -0.249672 -0.25035 -0.230106 -0.188482 -0.139334 -0.089936 -0.0401905 0.00441099 0.0416922 0.0700066 0.0918121 0.106756 0.108317 0.00665846 -0.317389 -0.622678 -0.734851 -0.658193 -0.565455 -0.475608 -0.385297 -0.294045 -0.200911 -0.101625 0 0 -0.117787 -0.191479 -0.232326 -0.262686 -0.284645 -0.298607 -0.302609 -0.29275 -0.253017 -0.196223 -0.139967 -0.0872648 -0.0383721 0.00216079 0.0348021 0.0601891 0.0793958 0.0861889 0.0202294 -0.268353 -0.581272 -0.717278 -0.662921 -0.568064 -0.477831 -0.387336 -0.296034 -0.202907 -0.103279 0 0 -0.108819 -0.187335 -0.236624 -0.271763 -0.298038 -0.318757 -0.331286 -0.331134 -0.309238 -0.254548 -0.18967 -0.130928 -0.0802471 -0.0363529 -0.00221853 0.0248606 0.0455854 0.056903 0.0228 -0.218108 -0.528997 -0.689762 -0.669475 -0.57141 -0.480445 -0.38959 -0.297961 -0.204503 -0.104398 0 0 -0.079839 -0.143868 -0.190706 -0.234691 -0.280164 -0.317511 -0.342582 -0.355006 -0.35013 -0.319961 -0.257395 -0.188215 -0.128487 -0.0805254 -0.041737 -0.0133796 0.00834443 0.0227167 0.0116239 -0.170097 -0.465513 -0.651166 -0.675036 -0.575486 -0.483349 -0.391992 -0.299854 -0.205913 -0.105283 0 0 -0.0331715 -0.0701632 -0.110581 -0.151483 -0.20821 -0.27703 -0.333964 -0.367287 -0.380734 -0.371715 -0.33541 -0.266949 -0.194553 -0.134417 -0.0887743 -0.0549683 -0.0315862 -0.0150503 -0.0133119 -0.129004 -0.393154 -0.605341 -0.669154 -0.580031 -0.486582 -0.394432 -0.301707 -0.207277 -0.106384 0 0 0.00894094 0.00410936 -0.030434 -0.0822461 -0.141388 -0.213834 -0.297037 -0.364071 -0.402123 -0.415779 -0.402508 -0.360038 -0.283824 -0.207253 -0.147533 -0.10449 -0.0750621 -0.0552434 -0.0477809 -0.103247 -0.319758 -0.546229 -0.644958 -0.586146 -0.490074 -0.396849 -0.303646 -0.208882 -0.107805 0 0 0.0296424 0.0451293 0.0216958 -0.0306334 -0.0940254 -0.165183 -0.24891 -0.339374 -0.409132 -0.449458 -0.46256 -0.444712 -0.395302 -0.308811 -0.226739 -0.167528 -0.125977 -0.0990352 -0.0869238 -0.10137 -0.250295 -0.470122 -0.598608 -0.5927 -0.494002 -0.399615 -0.305886 -0.210931 -0.109066 0 0 0.0352499 0.0544836 0.0406346 -0.00415095 -0.066699 -0.137535 -0.213318 -0.300648 -0.393467 -0.463772 -0.50566 -0.519078 -0.497665 -0.439474 -0.339713 -0.251119 -0.191581 -0.150475 -0.126725 -0.122402 -0.194345 -0.381495 -0.536591 -0.585419 -0.498447 -0.403113 -0.308698 -0.213661 -0.110542 0 0 0.0310803 0.0470714 0.0356433 -0.00413279 -0.0619858 -0.127018 -0.195195 -0.267319 -0.353039 -0.448288 -0.522118 -0.566665 -0.581736 -0.557979 -0.487946 -0.372739 -0.277529 -0.216385 -0.173887 -0.155755 -0.166553 -0.29421 -0.461036 -0.548881 -0.504597 -0.407725 -0.312371 -0.217135 -0.11284 0 0 0.0193624 0.0265072 0.0128723 -0.0238606 -0.0754383 -0.131962 -0.188065 -0.246506 -0.310715 -0.392016 -0.49368 -0.578915 -0.628124 -0.6458 -0.621543 -0.535695 -0.403191 -0.300811 -0.236539 -0.194159 -0.173247 -0.22229 -0.36963 -0.484149 -0.505373 -0.413061 -0.317008 -0.221142 -0.115769 0 0 0.00208933 -0.00385985 -0.024209 -0.0597257 -0.104534 -0.148524 -0.189017 -0.229795 -0.277374 -0.334378 -0.411049 -0.52211 -0.630017 -0.689635 -0.708504 -0.681992 -0.575978 -0.426042 -0.317074 -0.244361 -0.204322 -0.182735 -0.274154 -0.405832 -0.47613 -0.419017 -0.322309 -0.225214 -0.118544 0 0 -0.0181526 -0.0390385 -0.0661997 -0.102065 -0.138635 -0.168984 -0.192658 -0.215384 -0.244178 -0.284796 -0.340142 -0.415152 -0.53236 -0.666696 -0.744576 -0.765071 -0.732686 -0.602715 -0.436168 -0.322418 -0.240556 -0.191201 -0.195291 -0.313502 -0.411653 -0.420909 -0.327627 -0.228869 -0.120594 0 0 -0.0416035 -0.0770468 -0.106196 -0.129212 -0.149648 -0.167316 -0.18152 -0.193953 -0.210079 -0.236911 -0.27725 -0.334548 -0.412212 -0.532214 -0.687969 -0.788292 -0.80938 -0.764935 -0.61063 -0.429379 -0.307204 -0.221075 -0.161992 -0.215381 -0.329941 -0.394124 -0.331994 -0.232214 -0.12211 0 0 -0.0583423 -0.0950679 -0.107614 -0.116766 -0.125312 -0.13143 -0.137261 -0.147424 -0.164216 -0.187164 -0.219558 -0.263865 -0.3229 -0.402324 -0.521141 -0.689653 -0.814241 -0.840442 -0.77279 -0.595207 -0.404865 -0.270489 -0.17828 -0.140255 -0.235838 -0.329052 -0.331038 -0.235491 -0.123469 0 0 -0.0493566 -0.0751157 -0.0778273 -0.0733829 -0.068234 -0.0656807 -0.0698886 -0.0823587 -0.102727 -0.130115 -0.162592 -0.200657 -0.247152 -0.304477 -0.383755 -0.496949 -0.668139 -0.809777 -0.844889 -0.748905 -0.552931 -0.359976 -0.220159 -0.119269 -0.138747 -0.242055 -0.304121 -0.236939 -0.125529 0 0 -0.0136231 -0.0204056 -0.0234462 -0.0164835 -0.00657217 -0.00222515 -0.00542905 -0.0172516 -0.0385861 -0.0680778 -0.103703 -0.140779 -0.176477 -0.221998 -0.277833 -0.352187 -0.459774 -0.623663 -0.773783 -0.815391 -0.69284 -0.488491 -0.294416 -0.15197 -0.0683303 -0.144057 -0.235879 -0.233594 -0.128177 0 0 0.0135401 0.0117192 0.0140075 0.0203852 0.0326059 0.0451888 0.0520081 0.0464925 0.0294854 0.00392074 -0.0278342 -0.0640752 -0.105491 -0.145627 -0.184852 -0.238423 -0.307247 -0.40727 -0.558316 -0.703534 -0.749967 -0.60914 -0.406997 -0.219267 -0.0615831 -0.0471924 -0.139731 -0.203634 -0.129336 0 0 0.0085974 0.0140514 0.0281091 0.0340138 0.0507435 0.0772076 0.0949857 0.0988583 0.0935403 0.0810027 0.0600383 0.0300635 -0.00665609 -0.0467014 -0.0927689 -0.139119 -0.185504 -0.249392 -0.340283 -0.475324 -0.60333 -0.653516 -0.507451 -0.308326 -0.132198 0.0177687 -0.0336842 -0.128959 -0.124599 0 0 -0.0071224 0.0111022 0.0187422 0.0267808 0.0547941 0.0930875 0.11742 0.126189 0.127974 0.129847 0.127685 0.119791 0.102667 0.0700709 0.0259397 -0.0217128 -0.0746004 -0.126058 -0.181339 -0.264873 -0.373736 -0.492876 -0.534028 -0.394574 -0.214429 -0.00681191 0.066288 -0.0219383 -0.091177 0 0 -0.0183904 0.00577592 0.00308613 0.0163215 0.05326 0.0916197 0.109795 0.117331 0.127809 0.143494 0.158049 0.171333 0.178983 0.16801 0.14457 0.107987 0.0589525 0.00460722 -0.0540142 -0.113633 -0.173656 -0.286028 -0.368754 -0.38776 -0.263098 -0.109108 0.102013 0.0985805 -0.0113831 0 0 -0.0230903 -0.00609403 -0.0125266 0.00541556 0.0443135 0.0764111 0.0873322 0.092927 0.105485 0.126302 0.15333 0.181629 0.20505 0.215798 0.219584 0.209822 0.182775 0.142524 0.0906869 0.0276594 -0.0320984 -0.11172 -0.171631 -0.250453 -0.247234 -0.161214 0.0619934 0.160435 0.106519 0 0 -0.0281844 -0.0236735 -0.025843 -0.00518072 0.0298778 0.0521007 0.0578082 0.065257 0.0818325 0.105818 0.132995 0.160089 0.186572 0.213247 0.23835 0.253176 0.252507 0.244195 0.215322 0.173873 0.116722 0.0456801 -0.0267661 -0.110271 -0.148402 -0.115987 -0.0278669 0.170036 0.14179 0 0 -0.0368139 -0.0493572 -0.0342585 -0.012266 0.0122935 0.0227139 0.0226361 0.0299868 0.0489593 0.0742373 0.101241 0.127367 0.152773 0.177774 0.203033 0.229155 0.256647 0.278481 0.281188 0.269407 0.237622 0.193454 0.130743 0.0499242 -0.0306678 -0.0893558 -0.0591589 0.0751535 0.121947 0 0 -0.0491633 -0.0802579 -0.0370444 -0.0158368 -0.000213624 -0.00104839 -0.00697593 -0.002194 0.0124624 0.0318043 0.0530322 0.0744529 0.0961216 0.118505 0.142471 0.168123 0.195024 0.22213 0.249346 0.275075 0.283943 0.276941 0.248669 0.206032 0.132431 0.0378007 -0.0480957 -0.0502725 -0.00589213 0 0 -0.193013 -0.0747713 -0.0400668 -0.0140282 -0.00369596 -0.0145132 -0.0229779 -0.0194517 -0.0104318 0.00072028 0.0121219 0.0226359 0.0324339 0.0428633 0.0552022 0.0697425 0.086069 0.103786 0.123366 0.144644 0.167325 0.191519 0.204718 0.211872 0.193718 0.160623 0.126471 0.0478208 0.00589822 0 0 0 0 0 0 0 0 0 0 0 0 0 0 0 0 0 0 0 0 0 0 0 0 0 0 0 0 0 0 0 0
				</DataArray>
				<DataArray Name="VitesseY" type="Float32" format="ascii">
 0 0 0 0 0 0 0 0 0 0 0 0 0 0 0 0 0 0 0 0 0 0 0 0 0 0 0 0 0 0 0 -0.0637988 0.0577631 0.0274704 -0.032347 -0.0811287 -0.110474 -0.120712 -0.10135 -0.0566355 -0.00224582 0.0261087 0.0373479 0.0356101 0.0271989 0.0140219 0.00132759 -0.00734325 -0.0107089 -0.0102467 -0.00265646 0.00961457 0.0182433 0.0210731 0.0192827 0.0170432 0.0142722 0.0108045 0.00710846 0.00391675 0.00140195 0 -0.130823 0.0212424 0.0567341 -0.0484521 -0.123675 -0.173966 -0.192206 -0.175622 -0.105474 -0.0180741 0.0356095 0.0582126 0.0556387 0.0417247 0.0193001 -0.00252217 -0.0173499 -0.0220519 -0.0200373 -0.00521483 0.0185341 0.0357564 0.0419221 0.0387388 0.0343184 0.0289482 0.0221874 0.0144715 0.00780174 0.00281769 0 -0.127292 -0.000349191 0.0533304 -0.0466616 -0.138224 -0.198383 -0.222898 -0.219716 -0.144779 -0.0571993 0.00898 0.0413508 0.0470201 0.0344324 0.00921674 -0.0160918 -0.0332286 -0.0361711 -0.0306728 -0.00854761 0.0256499 0.0516174 0.0620515 0.058395 0.0519798 0.0442391 0.0344053 0.0223269 0.0116704 0.00401516 0 -0.0765686 0.0372334 0.0623192 -0.0434348 -0.13995 -0.208425 -0.24071 -0.245064 -0.182617 -0.102214 -0.0416511 -0.00353264 0.00975519 0.00390997 -0.018011 -0.0408244 -0.0559519 -0.0553807 -0.0439709 -0.0143722 0.0293681 0.06483 0.0809008 0.0781053 0.0697789 0.0599014 0.0472949 0.0308186 0.0156091 0.0048371 0 0.0236884 0.100881 0.0911833 -0.0328512 -0.134817 -0.210146 -0.249599 -0.260139 -0.227786 -0.154593 -0.0978714 -0.0608333 -0.0433013 -0.0431221 -0.0573707 -0.0745607 -0.0852083 -0.0803663 -0.0615267 -0.0247069 0.0278166 0.0743843 0.0976127 0.0974494 0.0871974 0.0754853 0.0604106 0.0400323 0.019853 0.00546661 0 0.140759 0.187913 0.125432 -0.0112848 -0.122705 -0.20479 -0.252971 -0.271171 -0.265935 -0.216945 -0.160705 -0.123194 -0.103359 -0.0972816 -0.102843 -0.113523 -0.119336 -0.110404 -0.0842652 -0.041402 0.0198613 0.0792854 0.111889 0.116328 0.10425 0.0910163 0.0737223 0.0501898 0.0247591 0.00622661 0 0.257619 0.278626 0.167995 0.0172966 -0.104837 -0.193547 -0.248685 -0.27812 -0.288225 -0.275554 -0.233009 -0.191651 -0.166374 -0.154442 -0.151579 -0.154308 -0.155932 -0.143392 -0.11258 -0.0643046 0.00506259 0.0784783 0.123561 0.134087 0.12103 0.106684 0.0875452 0.0612912 0.0304374 0.00731591 0 0.348973 0.356941 0.213289 0.049134 -0.0766715 -0.169142 -0.234263 -0.274214 -0.299218 -0.310755 -0.302203 -0.269678 -0.236304 -0.215375 -0.203559 -0.197291 -0.192363 -0.177731 -0.14406 -0.0921865 -0.0171826 0.0696916 0.128965 0.148955 0.13835 0.123069 0.102379 0.0736549 0.0371765 0.00885835 0 0.400478 0.399465 0.252863 0.0777663 -0.039566 -0.123312 -0.193242 -0.252603 -0.29452 -0.326446 -0.345408 -0.345199 -0.318539 -0.285609 -0.262092 -0.244543 -0.2301 -0.211612 -0.17663 -0.124682 -0.0468325 0.0495008 0.124531 0.158726 0.157248 0.140582 0.118567 0.0876797 0.0456234 0.0114546 0 0.40658 0.398478 0.276581 0.109877 0.001731 -0.0681067 -0.126615 -0.198565 -0.267744 -0.321389 -0.365646 -0.394575 -0.400287 -0.372795 -0.332057 -0.300575 -0.272539 -0.245998 -0.21018 -0.159428 -0.0816666 0.0191154 0.113366 0.166521 0.177007 0.15901 0.136319 0.103628 0.0564088 0.0159257 0 0.379475 0.36777 0.277372 0.147633 0.0486084 -0.0120212 -0.0586457 -0.119202 -0.209261 -0.291823 -0.361181 -0.41935 -0.456135 -0.46303 -0.425132 -0.369459 -0.326142 -0.2852 -0.244318 -0.192158 -0.120015 -0.018701 0.0931179 0.168676 0.193735 0.178909 0.15561 0.121403 0.0696287 0.0220756 0 0.338121 0.324521 0.266196 0.176382 0.0971263 0.0455838 0.00596846 -0.0439937 -0.126435 -0.231933 -0.330482 -0.415282 -0.485079 -0.525225 -0.527994 -0.467975 -0.39457 -0.336899 -0.282529 -0.22487 -0.159518 -0.0608363 0.0583348 0.154446 0.199936 0.200594 0.175953 0.140575 0.0851103 0.0288914 0 0.292111 0.283994 0.251285 0.196269 0.141518 0.101309 0.0660536 0.0199577 -0.0507495 -0.149016 -0.267911 -0.382416 -0.480285 -0.556855 -0.597948 -0.587024 -0.497161 -0.405659 -0.332487 -0.264928 -0.194713 -0.105669 0.0116637 0.129127 0.201733 0.221171 0.197121 0.161064 0.102692 0.03618 0 0.25262 0.25195 0.239068 0.212413 0.180697 0.150634 0.117595 0.072417 0.00728326 -0.0770789 -0.18331 -0.311567 -0.441503 -0.5511 -0.629411 -0.667497 -0.633273 -0.510737 -0.402238 -0.3146 -0.232923 -0.151315 -0.0382127 0.0904885 0.189721 0.232002 0.219476 0.182956 0.122471 0.0450544 0 0.227566 0.232682 0.234349 0.228304 0.214487 0.190956 0.156238 0.109277 0.0490954 -0.0273131 -0.114724 -0.221497 -0.35464 -0.499821 -0.621096 -0.69776 -0.727993 -0.662496 -0.507528 -0.384981 -0.284039 -0.191715 -0.0890281 0.0389617 0.160083 0.229772 0.242975 0.206295 0.144851 0.0565178 0 0.221161 0.229052 0.23873 0.245768 0.243258 0.219538 0.178734 0.128717 0.0715574 0.0056978 -0.070342 -0.153168 -0.255386 -0.391438 -0.550767 -0.684187 -0.75683 -0.775385 -0.668961 -0.487841 -0.353342 -0.241033 -0.140824 -0.0161412 0.118513 0.219728 0.259113 0.231042 0.169611 0.0705908 0 0.23556 0.242269 0.250347 0.260153 0.259272 0.233462 0.187424 0.133323 0.0784924 0.0211179 -0.0395072 -0.10811 -0.185699 -0.281974 -0.418897 -0.589443 -0.734693 -0.803494 -0.801159 -0.652613 -0.453345 -0.307809 -0.187715 -0.0727221 0.0649632 0.190166 0.257527 0.257599 0.196022 0.0866609 0 0.267624 0.268989 0.256309 0.25835 0.258307 0.231203 0.182629 0.128622 0.0775036 0.0283256 -0.0214984 -0.0751388 -0.13589 -0.209952 -0.301719 -0.436209 -0.613141 -0.765996 -0.835045 -0.798106 -0.613044 -0.40405 -0.24982 -0.127859 0.00696967 0.147234 0.248551 0.280358 0.222854 0.104207 0 0.29083 0.283692 0.236882 0.231506 0.232761 0.206642 0.161211 0.113523 0.0708678 0.0307173 -0.0103392 -0.0535372 -0.101639 -0.157539 -0.227949 -0.314213 -0.441919 -0.617307 -0.773353 -0.840015 -0.764656 -0.551756 -0.339071 -0.182741 -0.0547026 0.0929379 0.218697 0.283438 0.249794 0.123669 0 0.17582 0.152363 0.0620328 0.0607692 0.0778144 0.0649195 0.0351287 0.011905 0.00171263 -0.00604806 -0.0217698 -0.0501116 -0.087418 -0.129285 -0.176047 -0.235955 -0.318595 -0.431769 -0.599187 -0.749169 -0.811184 -0.697866 -0.471957 -0.264317 -0.115266 0.0278115 0.17578 0.271541 0.275685 0.144896 0 -0.195127 -0.220689 -0.301422 -0.299312 -0.285812 -0.285939 -0.287314 -0.273829 -0.243814 -0.206562 -0.169448 -0.138489 -0.122028 -0.127885 -0.152343 -0.189851 -0.232691 -0.305288 -0.405563 -0.555063 -0.693033 -0.746866 -0.600253 -0.373503 -0.175157 -0.0333193 0.117413 0.239177 0.284845 0.16752 0 -0.520741 -0.531441 -0.563659 -0.55665 -0.560919 -0.564452 -0.555885 -0.533133 -0.500801 -0.460978 -0.411435 -0.352584 -0.290683 -0.230067 -0.183466 -0.165095 -0.183351 -0.215724 -0.269039 -0.360129 -0.489391 -0.609911 -0.65274 -0.492652 -0.286362 -0.113216 0.0449753 0.194097 0.277722 0.191758 0 -0.611474 -0.623398 -0.618484 -0.610866 -0.628966 -0.63619 -0.632177 -0.622768 -0.610907 -0.594224 -0.568084 -0.53221 -0.480054 -0.409651 -0.326399 -0.243816 -0.179073 -0.15672 -0.176287 -0.218822 -0.294479 -0.40733 -0.507042 -0.533373 -0.369339 -0.172538 -0.0275654 0.130748 0.24909 0.20503 0 -0.482176 -0.525091 -0.511789 -0.513191 -0.532532 -0.537133 -0.539148 -0.54562 -0.559948 -0.577051 -0.590489 -0.59006 -0.568941 -0.523769 -0.460912 -0.384504 -0.294293 -0.201401 -0.134065 -0.11864 -0.151989 -0.218719 -0.308521 -0.394735 -0.387797 -0.250983 -0.111946 0.0491564 0.206025 0.212071 0 -0.347615 -0.426821 -0.409757 -0.4225 -0.443522 -0.447415 -0.452379 -0.462515 -0.476642 -0.488918 -0.497937 -0.504477 -0.510626 -0.516155 -0.507311 -0.468413 -0.400627 -0.319618 -0.22676 -0.132101 -0.0659899 -0.0620904 -0.132757 -0.213463 -0.262786 -0.248161 -0.148992 -0.0312586 0.132192 0.193749 0 -0.20873 -0.327787 -0.309806 -0.334455 -0.356146 -0.360333 -0.36909 -0.382088 -0.394743 -0.403488 -0.407943 -0.409944 -0.412203 -0.415532 -0.41973 -0.425112 -0.42349 -0.391164 -0.323094 -0.236395 -0.139385 -0.0440988 0.0186995 -0.00744954 -0.109081 -0.160706 -0.116378 -0.0899365 0.03739 0.160567 0 -0.0590138 -0.217145 -0.218842 -0.250238 -0.268587 -0.273375 -0.28611 -0.300335 -0.309432 -0.313751 -0.314936 -0.315514 -0.316422 -0.318417 -0.32175 -0.326072 -0.330571 -0.334581 -0.33242 -0.302691 -0.232652 -0.136578 -0.0312843 0.0676191 0.10223 0.0617921 -0.027932 -0.059334 -0.0483794 0.126327 0 0.0791422 -0.100452 -0.143818 -0.170755 -0.17854 -0.184716 -0.199445 -0.209907 -0.216799 -0.219041 -0.219142 -0.219097 -0.219806 -0.221638 -0.224383 -0.227593 -0.230721 -0.233761 -0.236754 -0.238061 -0.234171 -0.202924 -0.127364 -0.0203297 0.0996044 0.160782 0.17012 0.075088 -0.0504034 0.0477043 0 0.433609 -0.0256887 -0.103498 -0.0823761 -0.090096 -0.0932848 -0.0998667 -0.108343 -0.113685 -0.114078 -0.114317 -0.113981 -0.113982 -0.115146 -0.117299 -0.119587 -0.121343 -0.122657 -0.123883 -0.125867 -0.128468 -0.129577 -0.124649 -0.090775 -0.0106574 0.107096 0.141992 0.121938 -0.00592195 0.00585462 0 3.28428 0 0 0 0 0 0 0 0 0 0 0 0 0 0 0 0 0 0 0 0 0 0 0 0 0 0 0 0 0 0
				</DataArray>
			</PointData>
			<CellData Scalars="Density">
				<DataArray Name="Density" type="Float32" format="ascii">