<?xml version="1.0"?>
<VTKFile type="PolyData">
	<PolyData>
		<Piece NumberOfPoints="961" NumberOfPolys="900">
			<Points>
				<DataArray type="Float32" NumberOfComponents="3" format="ascii">
 0 0 0 0.04 0 0 0.08 0 0 0.12 0 0 0.16 0 0 0.2 0 0 0.24 0 0 0.28 0 0 0.32 0 0 0.36 0 0 0.4 0 0 0.44 0 0 0.48 0 0 0.52 0 0 0.56 0 0 0.6 0 0 0.64 0 0 0.68 0 0 0.72 0 0 0.76 0 0 0.8 0 0 0.84 0 0 0.88 0 0 0.92 0 0 0.96 0 0 1 0 0 1.04 0 0 1.08 0 0 1.12 0 0 1.16 0 0 1.2 0 0 0 0.04 0 0.04 0.04 0 0.08 0.04 0 0.12 0.04 0 0.16 0.04 0 0.2 0.04 0 0.24 0.04 0 0.28 0.04 0 0.32 0.04 0 0.36 0.04 0 0.4 0.04 0 0.44 0.04 0 0.48 0.04 0 0.52 0.04 0 0.56 0.04 0 0.6 0.04 0 0.64 0.04 0 0.68 0.04 0 0.72 0.04 0 0.76 0.04 0 0.8 0.04 0 0.84 0.04 0 0.88 0.04 0 0.92 0.04 0 0.96 0.04 0 1 0.04 0 1.04 0.04 0 1.08 0.04 0 1.12 0.04 0 1.16 0.04 0 1.2 0.04 0 0 0.08 0 0.04 0.08 0 0.08 0.08 0 0.12 0.08 0 0.16 0.08 0 0.2 0.08 0 0.24 0.08 0 0.28 0.08 0 0.32 0.08 0 0.36 0.08 0 0.4 0.08 0 0.44 0.08 0 0.48 0.08 0 0.52 0.08 0 0.56 0.08 0 0.6 0.08 0 0.64 0.08 0 0.68 0.08 0 0.72 0.08 0 0.76 0.08 0 0.8 0.08 0 0.84 0.08 0 0.88 0.08 0 0.92 0.08 0 0.96 0.08 0 1 0.08 0 1.04 0.08 0 1.08 0.08 0 1.12 0.08 0 1.16 0.08 0 1.2 0.08 0 0 0.12 0 0.04 0.12 0 0.08 0.12 0 0.12 0.12 0 0.16 0.12 0 0.2 0.12 0 0.24 0.12 0 0.28 0.12 0 0.32 0.12 0 0.36 0.12 0 0.4 0.12 0 0.44 0.12 0 0.48 0.12 0 0.52 0.12 0 0.56 0.12 0 0.6 0.12 0 0.64 0.12 0 0.68 0.12 0 0.72 0.12 0 0.76 0.12 0 0.8 0.12 0 0.84 0.12 0 0.88 0.12 0 0.92 0.12 0 0.96 0.12 0 1 0.12 0 1.04 0.12 0 1.08 0.12 0 1.12 0.12 0 1.16 0.12 0 1.2 0.12 0 0 0.16 0 0.04 0.16 0 0.08 0.16 0 0.12 0.16 0 0.16 0.16 0 0.2 0.16 0 0.24 0.16 0 0.28 0.16 0 0.32 0.16 0 0.36 0.16 0 0.4 0.16 0 0.44 0.16 0 0.48 0.16 0 0.52 0.16 0 0.56 0.16 0 0.6 0.16 0 0.64 0.16 0 0.68 0.16 0 0.72 0.16 0 0.76 0.16 0 0.8 0.16 0 0.84 0.16 0 0.88 0.16 0 0.92 0.16 0 0.96 0.16 0 1 0.16 0 1.04 0.16 0 1.08 0.16 0 1.12 0.16 0 1.16 0.16 0 1.2 0.16 0 0 0.2 0 0.04 0.2 0 0.08 0.2 0 0.12 0.2 0 0.16 0.2 0 0.2 0.2 0 0.24 0.2 0 0.28 0.2 0 0.32 0.2 0 0.36 0.2 0 0.4 0.2 0 0.44 0.2 0 0.48 0.2 0 0.52 0.2 0 0.56 0.2 0 0.6 0.2 0 0.64 0.2 0 0.68 0.2 0 0.72 0.2 0 0.76 0.2 0 0.8 0.2 0 0.84 0.2 0 0.88 0.2 0 0.92 0.2 0 0.96 0.2 0 1 0.2 0 1.04 0.2 0 1.08 0.2 0 1.12 0.2 0 1.16 0.2 0 1.2 0.2 0 0 0.24 0 0.04 0.24 0 0.08 0.24 0 0.12 0.24 0 0.16 0.24 0 0.2 0.24 0 0.24 0.24 0 0.28 0.24 0 0.32 0.24 0 0.36 0.24 0 0.4 0.24 0 0.44 0.24 0 0.48 0.24 0 0.52 0.24 0 0.56 0.24 0 0.6 0.24 0 0.64 0.24 0 0.68 0.24 0 0.72 0.24 0 0.76 0.24 0 0.8 0.24 0 0.84 0.24 0 0.88 0.24 0 0.92 0.24 0 0.96 0.24 0 1 0.24 0 1.04 0.24 0 1.08 0.24 0 1.12 0.24 0 1.16 0.24 0 1.2 0.24 0 0 0.28 0 0.04 0.28 0 0.08 0.28 0 0.12 0.28 0 0.16 0.28 0 0.2 0.28 0 0.24 0.28 0 0.28 0.28 0 0.32 0.28 0 0.36 0.28 0 0.4 0.28 0 0.44 0.28 0 0.48 0.28 0 0.52 0.28 0 0.56 0.28 0 0.6 0.28 0 0.64 0.28 0 0.68 0.28 0 0.72 0.28 0 0.76 0.28 0 0.8 0.28 0 0.84 0.28 0 0.88 0.28 0 0.92 0.28 0 0.96 0.28 0 1 0.28 0 1.04 0.28 0 1.08 0.28 0 1.12 0.28 0 1.16 0.28 0 1.2 0.28 0 0 0.32 0 0.04 0.32 0 0.08 0.32 0 0.12 0.32 0 0.16 0.32 0 0.2 0.32 0 0.24 0.32 0 0.28 0.32 0 0.32 0.32 0 0.36 0.32 0 0.4 0.32 0 0.44 0.32 0 0.48 0.32 0 0.52 0.32 0 0.56 0.32 0 0.6 0.32 0 0.64 0.32 0 0.68 0.32 0 0.72 0.32 0 0.76 0.32 0 0.8 0.32 0 0.84 0.32 0 0.88 0.32 0 0.92 0.32 0 0.96 0.32 0 1 0.32 0 1.04 0.32 0 1.08 0.32 0 1.12 0.32 0 1.16 0.32 0 1.2 0.32 0 0 0.36 0 0.04 0.36 0 0.08 0.36 0 0.12 0.36 0 0.16 0.36 0 0.2 0.36 0 0.24 0.36 0 0.28 0.36 0 0.32 0.36 0 0.36 0.36 0 0.4 0.36 0 0.44 0.36 0 0.48 0.36 0 0.52 0.36 0 0.56 0.36 0 0.6 0.36 0 0.64 0.36 0 0.68 0.36 0 0.72 0.36 0 0.76 0.36 0 0.8 0.36 0 0.84 0.36 0 0.88 0.36 0 0.92 0.36 0 0.96 0.36 0 1 0.36 0 1.04 0.36 0 1.08 0.36 0 1.12 0.36 0 1.16 0.36 0 1.2 0.36 0 0 0.4 0 0.04 0.4 0 0.08 0.4 0 0.12 0.4 0 0.16 0.4 0 0.2 0.4 0 0.24 0.4 0 0.28 0.4 0 0.32 0.4 0 0.36 0.4 0 0.4 0.4 0 0.44 0.4 0 0.48 0.4 0 0.52 0.4 0 0.56 0.4 0 0.6 0.4 0 0.64 0.4 0 0.68 0.4 0 0.72 0.4 0 0.76 0.4 0 0.8 0.4 0 0.84 0.4 0 0.88 0.4 0 0.92 0.4 0 0.96 0.4 0 1 0.4 0 1.04 0.4 0 1.08 0.4 0 1.12 0.4 0 1.16 0.4 0 1.2 0.4 0 0 0.44 0 0.04 0.44 0 0.08 0.44 0 0.12 0.44 0 0.16 0.44 0 0.2 0.44 0 0.24 0.44 0 0.28 0.44 0 0.32 0.44 0 0.36 0.44 0 0.4 0.44 0 0.44 0.44 0 0.48 0.44 0 0.52 0.44 0 0.56 0.44 0 0.6 0.44 0 0.64 0.44 0 0.68 0.44 0 0.72 0.44 0 0.76 0.44 0 0.8 0.44 0 0.84 0.44 0 0.88 0.44 0 0.92 0.44 0 0.96 0.44 0 1 0.44 0 1.04 0.44 0 1.08 0.44 0 1.12 0.44 0 1.16 0.44 0 1.2 0.44 0 0 0.48 0 0.04 0.48 0 0.08 0.48 0 0.12 0.48 0 0.16 0.48 0 0.2 0.48 0 0.24 0.48 0 0.28 0.48 0 0.32 0.48 0 0.36 0.48 0 0.4 0.48 0 0.44 0.48 0 0.48 0.48 0 0.52 0.48 0 0.56 0.48 0 0.6 0.48 0 0.64 0.48 0 0.68 0.48 0 0.72 0.48 0 0.76 0.48 0 0.8 0.48 0 0.84 0.48 0 0.88 0.48 0 0.92 0.48 0 0.96 0.48 0 1 0.48 0 1.04 0.48 0 1.08 0.48 0 1.12 0.48 0 1.16 0.48 0 1.2 0.48 0 0 0.52 0 0.04 0.52 0 0.08 0.52 0 0.12 0.52 0 0.16 0.52 0 0.2 0.52 0 0.24 0.52 0 0.28 0.52 0 0.32 0.52 0 0.36 0.52 0 0.4 0.52 0 0.44 0.52 0 0.48 0.52 0 0.52 0.52 0 0.56 0.52 0 0.6 0.52 0 0.64 0.52 0 0.68 0.52 0 0.72 0.52 0 0.76 0.52 0 0.8 0.52 0 0.84 0.52 0 0.88 0.52 0 0.92 0.52 0 0.96 0.52 0 1 0.52 0 1.04 0.52 0 1.08 0.52 0 1.12 0.52 0 1.16 0.52 0 1.2 0.52 0 0 0.56 0 0.04 0.56 0 0.08 0.56 0 0.12 0.56 0 0.16 0.56 0 0.2 0.56 0 0.24 0.56 0 0.28 0.56 0 0.32 0.56 0 0.36 0.56 0 0.4 0.56 0 0.44 0.56 0 0.48 0.56 0 0.52 0.56 0 0.56 0.56 0 0.6 0.56 0 0.64 0.56 0 0.68 0.56 0 0.72 0.56 0 0.76 0.56 0 0.8 0.56 0 0.84 0.56 0 0.88 0.56 0 0.92 0.56 0 0.96 0.56 0 1 0.56 0 1.04 0.56 0 1.08 0.56 0 1.12 0.56 0 1.16 0.56 0 1.2 0.56 0 0 0.6 0 0.04 0.6 0 0.08 0.6 0 0.12 0.6 0 0.16 0.6 0 0.2 0.6 0 0.24 0.6 0 0.28 0.6 0 0.32 0.6 0 0.36 0.6 0 0.4 0.6 0 0.44 0.6 0 0.48 0.6 0 0.52 0.6 0 0.56 0.6 0 0.6 0.6 0 0.64 0.6 0 0.68 0.6 0 0.72 0.6 0 0.76 0.6 0 0.8 0.6 0 0.84 0.6 0 0.88 0.6 0 0.92 0.6 0 0.96 0.6 0 1 0.6 0 1.04 0.6 0 1.08 0.6 0 1.12 0.6 0 1.16 0.6 0 1.2 0.6 0 0 0.64 0 0.04 0.64 0 0.08 0.64 0 0.12 0.64 0 0.16 0.64 0 0.2 0.64 0 0.24 0.64 0 0.28 0.64 0 0.32 0.64 0 0.36 0.64 0 0.4 0.64 0 0.44 0.64 0 0.48 0.64 0 0.52 0.64 0 0.56 0.64 0 0.6 0.64 0 0.64 0.64 0 0.68 0.64 0 0.72 0.64 0 0.76 0.64 0 0.8 0.64 0 0.84 0.64 0 0.88 0.64 0 0.92 0.64 0 0.96 0.64 0 1 0.64 0 1.04 0.64 0 1.08 0.64 0 1.12 0.64 0 1.16 0.64 0 1.2 0.64 0 0 0.68 0 0.04 0.68 0 0.08 0.68 0 0.12 0.68 0 0.16 0.68 0 0.2 0.68 0 0.24 0.68 0 0.28 0.68 0 0.32 0.68 0 0.36 0.68 0 0.4 0.68 0 0.44 0.68 0 0.48 0.68 0 0.52 0.68 0 0.56 0.68 0 0.6 0.68 0 0.64 0.68 0 0.68 0.68 0 0.72 0.68 0 0.76 0.68 0 0.8 0.68 0 0.84 0.68 0 0.88 0.68 0 0.92 0.68 0 0.96 0.68 0 1 0.68 0 1.04 0.68 0 1.08 0.68 0 1.12 0.68 0 1.16 0.68 0 1.2 0.68 0 0 0.72 0 0.04 0.72 0 0.08 0.72 0 0.12 0.72 0 0.16 0.72 0 0.2 0.72 0 0.24 0.72 0 0.28 0.72 0 0.32 0.72 0 0.36 0.72 0 0.4 0.72 0 0.44 0.72 0 0.48 0.72 0 0.52 0.72 0 0.56 0.72 0 0.6 0.72 0 0.64 0.72 0 0.68 0.72 0 0.72 0.72 0 0.76 0.72 0 0.8 0.72 0 0.84 0.72 0 0.88 0.72 0 0.92 0.72 0 0.96 0.72 0 1 0.72 0 1.04 0.72 0 1.08 0.72 0 1.12 0.72 0 1.16 0.72 0 1.2 0.72 0 0 0.76 0 0.04 0.76 0 0.08 0.76 0 0.12 0.76 0 0.16 0.76 0 0.2 0.76 0 0.24 0.76 0 0.28 0.76 0 0.32 0.76 0 0.36 0.76 0 0.4 0.76 0 0.44 0.76 0 0.48 0.76 0 0.52 0.76 0 0.56 0.76 0 0.6 0.76 0 0.64 0.76 0 0.68 0.76 0 0.72 0.76 0 0.76 0.76 0 0.8 0.76 0 0.84 0.76 0 0.88 0.76 0 0.92 0.76 0 0.96 0.76 0 1 0.76 0 1.04 0.76 0 1.08 0.76 0 1.12 0.76 0 1.16 0.76 0 1.2 0.76 0 0 0.8 0 0.04 0.8 0 0.08 0.8 0 0.12 0.8 0 0.16 0.8 0 0.2 0.8 0 0.24 0.8 0 0.28 0.8 0 0.32 0.8 0 0.36 0.8 0 0.4 0.8 0 0.44 0.8 0 0.48 0.8 0 0.52 0.8 0 0.56 0.8 0 0.6 0.8 0 0.64 0.8 0 0.68 0.8 0 0.72 0.8 0 0.76 0.8 0 0.8 0.8 0 0.84 0.8 0 0.88 0.8 0 0.92 0.8 0 0.96 0.8 0 1 0.8 0 1.04 0.8 0 1.08 0.8 0 1.12 0.8 0 1.16 0.8 0 1.2 0.8 0 0 0.84 0 0.04 0.84 0 0.08 0.84 0 0.12 0.84 0 0.16 0.84 0 0.2 0.84 0 0.24 0.84 0 0.28 0.84 0 0.32 0.84 0 0.36 0.84 0 0.4 0.84 0 0.44 0.84 0 0.48 0.84 0 0.52 0.84 0 0.56 0.84 0 0.6 0.84 0 0.64 0.84 0 0.68 0.84 0 0.72 0.84 0 0.76 0.84 0 0.8 0.84 0 0.84 0.84 0 0.88 0.84 0 0.92 0.84 0 0.96 0.84 0 1 0.84 0 1.04 0.84 0 1.08 0.84 0 1.12 0.84 0 1.16 0.84 0 1.2 0.84 0 0 0.88 0 0.04 0.88 0 0.08 0.88 0 0.12 0.88 0 0.16 0.88 0 0.2 0.88 0 0.24 0.88 0 0.28 0.88 0 0.32 0.88 0 0.36 0.88 0 0.4 0.88 0 0.44 0.88 0 0.48 0.88 0 0.52 0.88 0 0.56 0.88 0 0.6 0.88 0 0.64 0.88 0 0.68 0.88 0 0.72 0.88 0 0.76 0.88 0 0.8 0.88 0 0.84 0.88 0 0.88 0.88 0 0.92 0.88 0 0.96 0.88 0 1 0.88 0 1.04 0.88 0 1.08 0.88 0 1.12 0.88 0 1.16 0.88 0 1.2 0.88 0 0 0.92 0 0.04 0.92 0 0.08 0.92 0 0.12 0.92 0 0.16 0.92 0 0.2 0.92 0 0.24 0.92 0 0.28 0.92 0 0.32 0.92 0 0.36 0.92 0 0.4 0.92 0 0.44 0.92 0 0.48 0.92 0 0.52 0.92 0 0.56 0.92 0 0.6 0.92 0 0.64 0.92 0 0.68 0.92 0 0.72 0.92 0 0.76 0.92 0 0.8 0.92 0 0.84 0.92 0 0.88 0.92 0 0.92 0.92 0 0.96 0.92 0 1 0.92 0 1.04 0.92 0 1.08 0.92 0 1.12 0.92 0 1.16 0.92 0 1.2 0.92 0 0 0.96 0 0.04 0.96 0 0.08 0.96 0 0.12 0.96 0 0.16 0.96 0 0.2 0.96 0 0.24 0.96 0 0.28 0.96 0 0.32 0.96 0 0.36 0.96 0 0.4 0.96 0 0.44 0.96 0 0.48 0.96 0 0.52 0.96 0 0.56 0.96 0 0.6 0.96 0 0.64 0.96 0 0.68 0.96 0 0.72 0.96 0 0.76 0.96 0 0.8 0.96 0 0.84 0.96 0 0.88 0.96 0 0.92 0.96 0 0.96 0.96 0 1 0.96 0 1.04 0.96 0 1.08 0.96 0 1.12 0.96 0 1.16 0.96 0 1.2 0.96 0 0 1 0 0.04 1 0 0.08 1 0 0.12 1 0 0.16 1 0 0.2 1 0 0.24 1 0 0.28 1 0 0.32 1 0 0.36 1 0 0.4 1 0 0.44 1 0 0.48 1 0 0.52 1 0 0.56 1 0 0.6 1 0 0.64 1 0 0.68 1 0 0.72 1 0 0.76 1 0 0.8 1 0 0.84 1 0 0.88 1 0 0.92 1 0 0.96 1 0 1 1 0 1.04 1 0 1.08 1 0 1.12 1 0 1.16 1 0 1.2 1 0 0 1.04 0 0.04 1.04 0 0.08 1.04 0 0.12 1.04 0 0.16 1.04 0 0.2 1.04 0 0.24 1.04 0 0.28 1.04 0 0.32 1.04 0 0.36 1.04 0 0.4 1.04 0 0.44 1.04 0 0.48 1.04 0 0.52 1.04 0 0.56 1.04 0 0.6 1.04 0 0.64 1.04 0 0.68 1.04 0 0.72 1.04 0 0.76 1.04 0 0.8 1.04 0 0.84 1.04 0 0.88 1.04 0 0.92 1.04 0 0.96 1.04 0 1 1.04 0 1.04 1.04 0 1.08 1.04 0 1.12 1.04 0 1.16 1.04 0 1.2 1.04 0 0 1.08 0 0.04 1.08 0 0.08 1.08 0 0.12 1.08 0 0.16 1.08 0 0.2 1.08 0 0.24 1.08 0 0.28 1.08 0 0.32 1.08 0 0.36 1.08 0 0.4 1.08 0 0.44 1.08 0 0.48 1.08 0 0.52 1.08 0 0.56 1.08 0 0.6 1.08 0 0.64 1.08 0 0.68 1.08 0 0.72 1.08 0 0.76 1.08 0 0.8 1.08 0 0.84 1.08 0 0.88 1.08 0 0.92 1.08 0 0.96 1.08 0 1 1.08 0 1.04 1.08 0 1.08 1.08 0 1.12 1.08 0 1.16 1.08 0 1.2 1.08 0 0 1.12 0 
[...]
			<PointData Scalars="VitesseX">
				<DataArray Name="VitesseX" type="Float32" format="ascii">
 0 -0.0117046 -0.00903735 -0.0191211 0.0241129 0.0546157 0.0882786 0.114147 0.14023 0.168932 0.195456 0.22114 0.248153 0.275158 0.306262 0.332335 0.38395 0.4329 0.410466 0.322357 0.160683 0.0225725 0.000187376 2.85987e-08 3.1161e-12 3.18374e-16 -1.88241e-15 1.88257e-15 -6.44156e-15 6.44149e-15 0 0 0.0539372 0.0662849 0.0506129 0.0746193 0.0824123 0.108461 0.129859 0.150888 0.175792 0.20006 0.223941 0.24946 0.275396 0.305613 0.33101 0.383941 0.429967 0.406142 0.316511 0.15473 0.0206798 0.000159386 2.48602e-08 2.82052e-12 2.90244e-16 -1.88241e-15 1.88257e-15 -6.43696e-15 6.43684e-15 0 0 0.0530506 0.0750518 0.0862562 0.118041 0.109121 0.133233 0.145592 0.162585 0.18288 0.204826 0.22759 0.252176 0.277757 0.307083 0.331867 0.389123 0.426818 0.3985 0.302586 0.13838 0.0158159 9.76862e-05 1.63981e-08 2.08053e-12 1.39756e-16 2.25459e-15 9.73918e-16 -6.44869e-15 3.25734e-15 0 0 0.0279632 0.0638836 0.0919017 0.119014 0.122901 0.148075 0.154932 0.174758 0.191397 0.211278 0.233022 0.256387 0.281934 0.309557 0.334824 0.397791 0.42248 0.386633 0.28009 0.113049 0.00984822 4.25795e-05 8.2468e-09 1.24301e-12 8.74976e-17 2.99012e-19 9.57553e-18 -3.21017e-15 3.23737e-15 0 0 0.0203133 0.0523943 0.083869 0.110561 0.130213 0.148727 0.163608 0.18474 0.201134 0.219405 0.240576 0.262239 0.288214 0.313 0.341447 0.407395 0.415637 0.36829 0.247371 0.0810246 0.0047772 1.29783e-05 3.13937e-09 5.9083e-13 1.00353e-16 -4.22979e-18 -3.21432e-15 2.23328e-17 3.19613e-15 0 0 0.0187849 0.0448729 0.0777493 0.109086 0.12831 0.146619 0.170066 0.191071 0.208969 0.227882 0.249067 0.269282 0.295836 0.316743 0.354099 0.412917 0.404633 0.340262 0.202712 0.0480342 0.00171481 2.74444e-06 8.87095e-10 2.11569e-13 2.24102e-17 3.19133e-15 6.81929e-17 -3.25924e-15 -2.84516e-19 0 0 0.0164131 0.0448785 0.0778619 0.103371 0.125325 0.148467 0.173417 0.19475 0.213348 0.235434 0.254793 0.277057 0.301562 0.321102 0.374492 0.410081 0.385607 0.299816 0.146156 0.0223704 0.00043247 4.20334e-07 1.84264e-10 5.59751e-14 2.73666e-17 3.25935e-15 -1.84864e-14 1.84866e-14 -3.25958e-15 0 0 0.0175995 0.0443991 0.0728993 0.100134 0.125613 0.150126 0.174669 0.194876 0.216861 0.238826 0.2586 0.284452 0.303332 0.330403 0.391476 0.397867 0.354594 0.242887 0.0848137 0.00748046 7.1688e-05 5.39466e-08 2.96088e-11 1.58476e-14 2.62268e-17 -1.84865e-14 -1.59403e-23 1.59403e-23 1.84865e-14 0 0 0.0193021 0.0430514 0.0698965 0.0984341 0.124651 0.149661 0.172329 0.194792 0.218325 0.238778 0.263733 0.286163 0.304168 0.352543 0.392056 0.375881 0.305834 0.167727 0.0361234 0.00165374 7.21302e-06 6.22394e-09 4.08338e-12 5.78842e-15 3.29923e-18 -1.84865e-14 -8.36894e-18 8.39797e-18 1.84723e-14 0 0 0.0197162 0.0423985 0.0675091 0.0943815 0.120882 0.14585 0.170048 0.194179 0.215948 0.240399 0.265881 0.283359 0.314906 0.37126 0.376318 0.337192 0.234579 0.0871155 0.0104521 0.000221914 4.53314e-07 5.41612e-10 4.66126e-13 1.94107e-16 3.5833e-18 3.25951e-15 -1.84948e-14 1.23976e-17 1.51941e-14 0 0 0.0197874 0.0416179 0.0651152 0.0902454 0.115954 0.141742 0.166599 0.190101 0.215586 0.241941 0.261292 0.286562 0.341628 0.365098 0.345269 0.273982 0.141347 0.0307042 0.00182567 1.59299e-05 2.53888e-08 3.44168e-11 4.27864e-14 -3.29583e-15 -1.89294e-34 -2.81515e-17 6.54707e-15 -2.50012e-14 2.17272e-14 0 0 0.0200006 0.0414074 0.0638384 0.0875217 0.11221 0.137247 0.162604 0.189233 0.21542 0.236679 0.261866 0.311679 0.345098 0.338766 0.290009 0.181614 0.05733 0.00663676 0.00017048 5.92259e-07 1.31001e-09 2.06287e-12 6.07116e-15 -3.22155e-15 -2.85688e-17 4.35674e-16 3.07135e-15 -3.0251e-15 -1.56811e-14 0 0 0.0201097 0.0412472 0.0631332 0.0860971 0.110278 0.1357 0.161938 0.18729 0.210512 0.238573 0.285557 0.320532 0.322565 0.288599 0.201787 0.0810674 0.0143252 0.000751561 7.05891e-06 1.93306e-08 4.66916e-11 1.18897e-13 -2.17055e-14 2.17813e-14 -2.88056e-17 1.6082e-17 -5.41493e-14 5.41603e-14 -1.84851e-14 0 0 0.020296 0.0414266 0.0633432 0.0863033 0.110363 0.135037 0.159726 0.185375 0.217825 0.262442 0.293472 0.299459 0.27422 0.203581 0.0945882 0.0218106 0.00183193 3.6741e-05 1.49596e-07 5.77593e-10 1.61173e-12 2.11411e-14 -1.84658e-14 -4.03994e-18 2.00932e-18 2.12955e-14 -5.39324e-14 5.39254e-14 -2.12947e-14 0 0 0.0206849 0.0419858 0.0639616 0.0866656 0.110302 0.135597 0.164665 0.20152 0.238851 0.264675 0.270724 0.25 0.190189 0.0952761 0.0257928 0.00292559 9.74259e-05 6.69466e-07 3.39263e-09 1.2563e-11 4.53217e-14 -3.25181e-15 -1.51959e-14 -1.10411e-18 1.41102e-18 -6.03202e-19 2.17447e-14 -2.17447e-14 -5.24819e-18 0 0 0.021057 0.0429842 0.0661034 0.0909483 0.118825 0.150698 0.18325 0.212026 0.233465 0.236749 0.217496 0.164517 0.0841505 0.0247723 0.00333898 0.000152313 1.63118e-06 1.03265e-08 5.49142e-11 2.67103e-13 1.90587e-14 -2.17533e-14 3.27235e-15 2.17455e-14 -8.35326e-19 -4.34882e-14 4.34882e-14 -4.34882e-14 4.349e-14 0 0 0.0241166 0.0495307 0.0760733 0.103515 0.131127 0.157687 0.182027 0.197147 0.197337 0.177235 0.129294 0.0645691 0.0194303 0.00280697 0.000151148 2.17816e-06 1.77637e-08 1.33689e-10 8.85692e-13 -1.04503e-14 -1.66924e-16 3.80345e-19 2.17468e-14 -2.17456e-14 -1.98523e-22 -5.38921e-19 2.17447e-14 -2.17447e-14 -5.24818e-18 0 0 0.0265053 0.0528503 0.0786827 0.103887 0.127138 0.145532 0.155208 0.151714 0.130036 0.0885888 0.0416839 0.0120438 0.00170263 9.54087e-05 1.61603e-06 1.76711e-08 1.79086e-10 1.55369e-12 -1.08424e-14 2.50135e-14 -4.3512e-14 4.35122e-14 -2.17508e-14 5.8633e-18 1.55252e-21 2.17436e-14 -5.956e-14 5.956e-14 -2.17495e-14 0 0 0.0254178 0.0494359 0.0712858 0.0898588 0.102905 0.107384 0.100371 0.0797862 0.0492954 0.0211298 0.00541685 0.000688616 3.56636e-05 6.55536e-07 1.01682e-08 1.32347e-10 1.5458e-12 -3.85391e-15 4.30964e-16 -3.80704e-14 3.80704e-14 -2.67658e-16 1.42436e-17 3.51149e-18 2.18324e-18 2.17436e-14 -5.95601e-14 3.78119e-14 -9.41161e-18 0 0 0.0198113 0.0367387 0.0497207 0.0572454 0.057645 0.0504804 0.0364961 0.0198776 0.0072084 0.00149912 0.000156844 6.79483e-06 1.43995e-07 3.30823e-09 5.37061e-11 8.73386e-13 -4.69904e-15 4.5364e-16 2.43703e-18 -3.80839e-14 3.80801e-14 -2.77713e-16 1.82432e-17 -4.88275e-19 2.18169e-18 -5.38921e-19 2.17447e-14 -4.34928e-14 2.17348e-14 0 0 0.00942243 0.0163201 0.019849 0.0197018 0.0160793 0.0100683 0.00440417 0.00120719 0.000189146 1.47672e-05 5.56751e-07 1.82837e-08 5.56016e-10 1.20939e-11 2.52804e-13 2.62054e-14 -1.85156e-14 -3.75351e-14 3.75493e-14 -1.39718e-17 9.94339e-18 2.17539e-14 -4.34934e-14 4.34934e-14 -4.92246e-21 -4.34882e-14 4.34876e-14 -2.17425e-14 2.1744e-14 0 0 0.00173636 0.00274052 0.00271528 0.00188999 0.00090475 0.000287496 5.67443e-05 6.31048e-06 4.05298e-07 2.29144e-08 1.22331e-09 4.37031e-11 1.56449e-12 4.38929e-14 -1.7569e-14 -1.69204e-16 -1.72562e-17 -3.75351e-14 3.75455e-14 -1.04163e-17 2.40644e-17 -1.95387e-17 2.81338e-16 -2.68363e-16 2.44406e-18 8.35119e-19 2.17427e-14 -2.17425e-14 2.17439e-14 0 0 2.43141e-05 2.98123e-05 1.94063e-05 7.74366e-06 1.94148e-06 3.20912e-07 4.24941e-08 5.21154e-09 4.77478e-10 3.05451e-11 1.879e-12 7.67957e-14 2.10803e-14 -3.22796e-15 -1.52077e-14 -2.46343e-18 -1.72358e-17 2.67408e-16 -2.57353e-16 2.17539e-14 -4.34995e-14 2.17416e-14 2.61385e-16 -2.50062e-16 1.42715e-18 2.1746e-14 -2.17475e-14 -2.17461e-14 4.34946e-14 0 0 3.57075e-09 4.62577e-09 3.40512e-09 1.68076e-09 5.70788e-10 1.32455e-10 2.23204e-11 3.22909e-12 3.93154e-13 3.71718e-14 -5.99643e-16 -1.51108e-14 1.84658e-14 -2.17415e-14 3.27262e-15 2.17454e-14 -2.17508e-14 -1.38404e-17 1.78401e-17 -1.34876e-18 2.56988e-16 -2.73634e-16 1.5553e-19 1.7034e-17 5.60743e-18 -2.35238e-17 2.86133e-16 -2.71417e-16 -3.78241e-14 0 0 2.95769e-13 4.38445e-13 3.99579e-13 2.52881e-13 1.20287e-13 3.53582e-14 1.13058e-14 -1.19828e-15 2.73348e-16 3.22329e-15 -3.2972e-15 -1.51871e-14 -3.50585e-18 6.88815e-19 2.17452e-14 -2.1744e-14 -7.55028e-18 5.53867e-18 -1.53916e-18 2.63084e-19 2.68363e-16 -2.86662e-16 1.90493e-17 -1.01372e-18 6.62945e-18 -2.5936e-17 -3.75266e-14 5.92883e-14 -5.95697e-14 0 0 2.81304e-17 -6.26916e-15 6.38686e-15 -6.32546e-15 2.06987e-17 -2.51935e-17 6.54527e-15 -6.52235e-15 3.12168e-18 -6.80382e-32 -2.81995e-17 6.54651e-15 -4.34916e-14 4.34912e-14 -8.34897e-19 -4.34882e-14 4.34882e-14 -4.34904e-14 4.34904e-14 4.90839e-21 -4.34907e-14 4.34896e-14 -4.3486e-14 4.3487e-14 -5.38927e-19 -1.39487e-18 -1.19128e-13 1.19126e-13 4.02632e-18 0 0 -2.18027e-29 -2.25459e-15 6.57426e-17 4.04981e-18 -3.19119e-15 3.25967e-15 -1.84866e-14 1.84866e-14 -3.25951e-15 -2.86167e-17 4.35674e-16 5.6628e-15 -2.12977e-14 4.74317e-19 5.03491e-34 -5.38921e-19 2.17447e-14 -2.17447e-14 5.38921e-19 -2.42069e-24 8.35101e-19 2.17423e-14 -4.35039e-14 4.35035e-14 3.101e-19 -5.9588e-14 5.57914e-16 -5.5764e-16 5.95893e-14 0 0 7.06004e-31 9.73834e-16 -6.38136e-15 3.22273e-15 6.8332e-17 -1.84864e-14 -2.27246e-34 -8.36892e-18 1.8495e-14 -2.89754e-17 -2.57586e-15 -4.89659e-14 5.48274e-14 -2.17436e-14 -2.98823e-34 2.17436e-14 -5.956e-14 5.956e-14 -2.17436e-14 -5.82473e-19 2.17455e-14 -2.17474e-14 2.49901e-16 -3.80654e-14 -7.27316e-18 5.18462e-16 4.54638e-17 -4.51897e-17 -4.91426e-16 0 0 -2.9046e-16 -2.63234e-15 -3.19474e-15 3.19286e-17 3.25981e-15 -1.84866e-14 6.53666e-23 -8.33994e-18 1.25932e-17 1.84817e-14 -2.58616e-15 -4.89909e-14 5.48344e-14 -2.17436e-14 -4.84935e-35 2.17436e-14 -5.95601e-14 3.78119e-14 4.54408e-18 2.17445e-14 -2.17445e-14 -2.17511e-14 4.37619e-14 -5.98303e-14 -5.65524e-18 5.18736e-16 4.51899e-17 -4.5387e-17 -4.91229e-16 0 0 -8.39629e-11 -5.85707e-15 3.21512e-15 -3.18666e-15 2.84515e-19 3.25944e-15 -1.84865e-14 1.84724e-14 -2.17423e-14 2.1756e-14 -2.12926e-14 2.4097e-14 -2.1298e-14 8.16544e-18 -6.16506e-39 -8.16544e-18 2.17522e-14 -4.35084e-14 2.17644e-14 2.17442e-14 -2.17443e-14 -4.32093e-18 -3.78289e-14 5.95745e-14 9.14502e-19 -5.95862e-14 5.81805e-16 -5.82003e-16 5.95879e-14 0 0 0 0 0 0 0 0 0 0 0 0 0 0 0 0 0 0 0 0 0 0 0 0 0 0 0 0 0 0 0 0
				</DataArray>
				<DataArray Name="VitesseY" type="Float32" format="ascii">
 0 0 0 0 0 0 0 0 0 0 0 0 0 0 0 0 0 0 0 0 0 0 0 0 0 0 0 0 0 0 0 -0.0116785 0.0539467 0.0530513 0.0279584 0.0203114 0.018784 0.0164125 0.0175999 0.0193034 0.0197172 0.019788 0.0200011 0.0201103 0.0202966 0.0206852 0.0210569 0.0241161 0.0265043 0.0254167 0.0198099 0.00942133 0.00173606 2.43059e-05 3.56919e-09 2.95631e-13 2.81304e-17 2.40254e-24 1.63357e-21 4.60125e-18 4.55126e-18 0 -0.00902884 0.0662927 0.0750518 0.063879 0.0523894 0.0448692 0.0448752 0.0443979 0.0430521 0.0424 0.0416189 0.0414084 0.0412482 0.0414275 0.0419863 0.0429842 0.0495298 0.0528485 0.0494337 0.0367361 0.0163183 0.00274007 2.98026e-05 4.62387e-09 4.38262e-13 -6.26923e-15 -2.25459e-15 9.7375e-16 4.87685e-17 -3.14241e-15 0 -0.0191153 0.0506255 0.086262 0.0919061 0.0838699 0.0777476 0.0778585 0.0728957 0.0698954 0.06751 0.0651165 0.06384 0.0631346 0.0633443 0.0639622 0.0661035 0.0760722 0.0786805 0.0712827 0.0497173 0.019847 0.00271486 1.94003e-05 3.40385e-09 3.9943e-13 6.38693e-15 6.57426e-17 -6.38123e-15 -3.18208e-15 3.22764e-15 0 0.0241201 0.0746346 0.118053 0.119019 0.110562 0.109084 0.103366 0.100129 0.098431 0.0943817 0.0902475 0.0875241 0.0860991 0.0863048 0.0866663 0.0909483 0.103514 0.103884 0.0898552 0.0572418 0.0197001 0.00188974 7.74155e-06 1.6802e-09 2.52796e-13 -6.32546e-15 4.04987e-18 3.2226e-15 3.20585e-17 -3.1864e-15 0 0.0546126 0.0824182 0.109133 0.122909 0.130215 0.128309 0.125321 0.125608 0.124647 0.120882 0.115956 0.112213 0.11028 0.110365 0.110303 0.118825 0.131125 0.127135 0.102901 0.057642 0.0160783 0.000904656 1.94104e-06 5.70622e-10 1.20239e-13 2.06987e-17 -3.19119e-15 6.8332e-17 3.25981e-15 2.84484e-19 0 0.0882779 0.108467 0.133242 0.148082 0.148729 0.146617 0.148462 0.150121 0.149657 0.145849 0.141743 0.13725 0.135702 0.135039 0.135599 0.150698 0.157686 0.14553 0.107381 0.0504788 0.010068 0.000287478 3.2086e-07 1.32423e-10 3.53452e-14 -2.51935e-17 3.25967e-15 -1.84864e-14 -1.84866e-14 3.25944e-15 0 0.114149 0.129865 0.1456 0.154939 0.163609 0.170064 0.173413 0.174666 0.172326 0.170048 0.166601 0.162606 0.16194 0.159728 0.164666 0.18325 0.182027 0.155207 0.10037 0.0364961 0.00440421 5.67435e-05 4.24904e-08 2.23167e-11 1.13036e-14 6.54527e-15 -1.84866e-14 -9.48359e-24 7.19132e-23 -1.84865e-14 0 0.140232 0.150893 0.16259 0.174762 0.184739 0.191069 0.194747 0.194873 0.194791 0.194179 0.190102 0.189235 0.187291 0.185376 0.20152 0.212027 0.197148 0.151715 0.0797873 0.0198783 0.00120726 6.31077e-06 5.21143e-09 3.22876e-12 -1.19855e-15 -6.52235e-15 1.84866e-14 -8.36888e-18 -8.33994e-18 1.84724e-14 0 0.168935 0.175797 0.182884 0.191399 0.201133 0.208966 0.213345 0.216859 0.218323 0.215948 0.215586 0.215422 0.210513 0.217826 0.238852 0.233467 0.197339 0.130038 0.0492974 0.0072089 0.000189166 4.0534e-07 4.77498e-10 3.93159e-13 2.73348e-16 3.12168e-18 -3.25951e-15 1.8495e-14 1.25932e-17 -2.17423e-14 0 0.195461 0.200066 0.20483 0.21128 0.219404 0.227879 0.235431 0.238824 0.238776 0.240398 0.24194 0.23668 0.238575 0.262443 0.264677 0.236752 0.177239 0.0885921 0.0211311 0.00149927 1.47695e-05 2.29173e-08 3.05479e-11 3.71669e-14 3.22329e-15 -6.80382e-32 -2.86168e-17 -2.89754e-17 1.84817e-14 2.1756e-14 0 0.221145 0.223947 0.227594 0.233024 0.240576 0.249064 0.254789 0.258596 0.263731 0.265879 0.261291 0.261866 0.285557 0.293473 0.270727 0.217499 0.129298 0.0416857 0.00541728 0.000156865 5.56851e-07 1.22351e-09 1.87924e-12 -5.99775e-16 -3.2972e-15 -2.81995e-17 4.35674e-16 -2.57586e-15 -2.58616e-15 -2.12926e-14 0 0.248158 0.249465 0.252181 0.25639 0.26224 0.269279 0.277053 0.284448 0.28616 0.283357 0.286561 0.311679 0.320532 0.29946 0.250002 0.16452 0.0645715 0.0120445 0.000688683 6.79592e-06 1.82867e-08 4.37108e-11 7.67957e-14 -1.51108e-14 -1.51871e-14 6.54651e-15 5.6628e-15 -4.89659e-14 -4.89909e-14 2.4097e-14 0 0.275164 0.275401 0.277762 0.281937 0.288215 0.295834 0.301558 0.303328 0.304165 0.314905 0.341628 0.345098 0.322565 0.274221 0.190191 0.0841523 0.019431 0.00170273 3.56676e-05 1.44017e-07 5.56109e-10 1.56475e-12 2.10752e-14 1.84658e-14 -3.50583e-18 -4.34916e-14 -2.12977e-14 5.48274e-14 5.48344e-14 -2.1298e-14 0 0.306268 0.305619 0.307088 0.309561 0.313001 0.316741 0.321099 0.3304 0.352541 0.371258 0.365096 0.338765 0.288599 0.203582 0.0952769 0.0247727 0.00280706 9.54154e-05 6.55607e-07 3.30864e-09 1.20957e-11 4.38979e-14 -3.22796e-15 -2.17415e-14 6.88859e-19 4.34912e-14 4.74354e-19 -2.17436e-14 -2.17436e-14 8.16551e-18 0 0.332339 0.331014 0.33187 0.334826 0.341446 0.354097 0.374489 0.391473 0.392053 0.376315 0.345266 0.290007 0.201786 0.0945876 0.0257927 0.00333899 0.000151151 1.61613e-06 1.0169e-08 5.37116e-11 2.5283e-13 -1.7569e-14 -1.52077e-14 3.27262e-15 2.17452e-14 -8.3494e-19 3.72997e-23 5.33712e-23 -1.1108e-24 6.99489e-23 0 0.383948 0.383939 0.389121 0.39779 0.407393 0.412915 0.410078 0.397864 0.375877 0.337188 0.273978 0.18161 0.0810656 0.02181 0.00292551 0.00015231 2.17817e-06 1.76715e-08 1.32355e-10 8.73459e-13 2.62104e-14 -1.69204e-16 -2.46343e-18 2.17454e-14 -2.1744e-14 -4.34882e-14 -5.38917e-19 2.17436e-14 2.17436e-14 -8.16541e-18 0 0.432902 0.429968 0.42682 0.422481 0.415637 0.404632 0.385605 0.35459 0.305829 0.234573 0.141342 0.0573275 0.0143245 0.00183182 9.74191e-05 1.63108e-06 1.77632e-08 1.79086e-10 1.54588e-12 -4.69378e-15 -1.85156e-14 -1.72562e-17 -1.72359e-17 -2.17508e-14 -7.55031e-18 4.34882e-14 2.17447e-14 -5.956e-14 -5.95601e-14 2.17522e-14 0 0.41047 0.406146 0.398503 0.386636 0.368291 0.340261 0.299814 0.242883 0.167722 0.0871115 0.0307022 0.00663622 0.000751487 3.67368e-05 6.69395e-07 1.03256e-08 1.33681e-10 1.55362e-12 -3.85391e-15 4.5364e-16 -3.75351e-14 -3.75351e-14 2.67408e-16 -1.38403e-17 5.53869e-18 -4.34904e-14 -2.17447e-14 5.956e-14 3.78119e-14 -4.35084e-14 0 0.322365 0.316519 0.302592 0.280095 0.247374 0.202713 0.146154 0.084811 0.0361214 0.0104513 0.00182548 0.000170457 7.05777e-06 1.49573e-07 3.39221e-09 5.49086e-11 8.85619e-13 -1.08476e-14 4.30964e-16 2.43702e-18 3.75493e-14 3.75455e-14 -2.57353e-16 1.78401e-17 -1.5391e-18 4.34904e-14 5.38958e-19 -2.17436e-14 4.54408e-18 2.17644e-14 0 0.160692 0.154739 0.138387 0.113054 0.0810277 0.0480352 0.0223703 0.0074802 0.00165362 0.00022189 1.59274e-05 5.92153e-07 1.93274e-08 5.77497e-10 1.25612e-11 2.67066e-13 -1.04554e-14 2.50135e-14 -3.80704e-14 -3.80839e-14 -1.39719e-17 -1.04163e-17 2.17539e-14 -1.34869e-18 2.63105e-19 4.87748e-21 3.48787e-23 -5.82499e-19 2.17445e-14 2.17442e-14 0 0.0225758 0.0206827 0.0158181 0.00984945 0.0047777 0.00171494 0.000432489 7.1688e-05 7.21263e-06 4.53266e-07 2.53855e-08 1.3098e-09 4.66835e-11 1.61145e-12 4.53167e-14 1.90587e-14 -1.66924e-16 -4.3512e-14 3.80704e-14 3.80801e-14 9.94339e-18 2.40643e-17 -4.34995e-14 2.56988e-16 2.68363e-16 -4.34907e-14 8.35129e-19 2.17455e-14 -2.17445e-14 -2.17443e-14 0 0.000187436 0.000159436 9.77156e-05 4.25915e-05 1.29816e-05 2.745e-06 4.20394e-07 5.39505e-08 6.224e-09 5.41587e-10 3.44134e-11 2.06263e-12 1.18907e-13 2.11462e-14 -3.25181e-15 -2.17533e-14 3.80294e-19 4.35122e-14 -2.67658e-16 -2.77713e-16 2.17539e-14 -1.95387e-17 2.17416e-14 -2.73634e-16 -2.86662e-16 4.34896e-14 2.17423e-14 -2.17474e-14 -2.17511e-14 -4.3209e-18 0 2.86101e-08 2.48699e-08 1.64041e-08 8.2496e-09 3.14033e-09 8.87331e-10 1.84304e-10 2.96131e-11 4.08371e-12 4.66131e-13 4.27915e-14 6.07116e-15 -2.17055e-14 -1.84658e-14 -1.51959e-14 3.27235e-15 2.17468e-14 -2.17508e-14 1.42436e-17 1.82432e-17 -4.34934e-14 2.81338e-16 2.61385e-16 1.55598e-19 1.90493e-17 -4.3486e-14 -4.35039e-14 2.49901e-16 4.37619e-14 -3.78289e-14 0 3.11734e-12 2.82162e-12 2.08131e-12 1.24346e-12 5.91043e-13 2.11648e-13 5.59931e-14 1.58503e-14 5.78868e-15 1.94107e-16 -3.29583e-15 -3.22155e-15 2.17813e-14 -4.03997e-18 -1.1041e-18 2.17455e-14 -2.17456e-14 5.86331e-18 3.51152e-18 -4.88275e-19 4.34934e-14 -2.68363e-16 -2.50062e-16 1.7034e-17 -1.01365e-18 4.3487e-14 4.35035e-14 -3.80654e-14 -5.98303e-14 5.95745e-14 0 3.18374e-16 2.90244e-16 1.3969e-16 8.74319e-17 1.00353e-16 2.24103e-17 2.73666e-17 2.62268e-17 3.2992e-18 3.58325e-18 -5.13197e-23 -2.85688e-17 -2.88056e-17 2.00931e-18 1.41107e-18 -8.35364e-19 -1.61223e-22 1.598e-21 2.18329e-18 2.18173e-18 -4.96081e-21 2.44411e-18 1.42714e-18 5.60742e-18 6.62947e-18 -5.38896e-19 3.10064e-19 -7.2732e-18 -5.65523e-18 9.14492e-19 0 -1.88241e-15 -1.88241e-15 2.25459e-15 2.99032e-19 -4.22976e-18 3.19133e-15 3.25935e-15 -1.84865e-14 -1.84865e-14 3.25951e-15 -2.81516e-17 4.35674e-16 1.6082e-17 2.12955e-14 -6.03207e-19 -4.34882e-14 -5.38917e-19 2.17436e-14 2.17436e-14 -5.38917e-19 -4.34882e-14 8.35134e-19 2.1746e-14 -2.35237e-17 -2.59361e-17 -1.39488e-18 -5.9588e-14 5.18462e-16 5.18736e-16 -5.95862e-14 0 1.88241e-15 1.88241e-15 9.73834e-16 9.44299e-18 -3.21445e-15 6.81928e-17 -1.84864e-14 -3.95474e-23 -8.36889e-18 -1.84948e-14 6.54707e-15 3.07135e-15 -5.41493e-14 -5.39324e-14 2.17447e-14 4.34882e-14 2.17447e-14 -5.956e-14 -5.95601e-14 2.17447e-14 4.34876e-14 2.17427e-14 -2.17475e-14 2.86133e-16 -3.75266e-14 -1.19128e-13 5.57914e-16 4.54638e-17 4.51899e-17 5.81805e-16 0 -4.6331e-16 -7.5377e-16 -3.74183e-15 -3.19699e-15 2.27284e-17 -3.25924e-15 1.84866e-14 1.58758e-23 8.39794e-18 1.23976e-17 -2.50012e-14 -3.0251e-15 5.41603e-14 5.39254e-14 -2.17447e-14 -4.34882e-14 -2.17447e-14 5.956e-14 3.78119e-14 -4.34928e-14 -2.17425e-14 -2.17425e-14 -2.17461e-14 -2.71417e-16 5.92883e-14 1.19126e-13 -5.5764e-16 -4.51896e-17 -4.53869e-17 -5.82003e-16 0 1.67926e-10 8.39634e-11 5.84034e-16 3.22432e-15 3.19586e-15 -2.84507e-19 -3.25958e-15 1.84865e-14 1.84723e-14 1.51941e-14 2.17272e-14 -1.56811e-14 -1.84851e-14 -2.12947e-14 -5.24816e-18 4.349e-14 -5.24819e-18 -2.17495e-14 -9.41167e-18 2.17348e-14 2.1744e-14 2.17439e-14 4.34946e-14 -3.78241e-14 -5.95697e-14 4.0263e-18 5.95893e-14 -4.91426e-16 -4.91229e-16 5.95879e-14 0 1.71427e-05 0 0 0 0 0 0 0 0 0 0 0 0 0 0 0 0 0 0 0 0 0 0 0 0 0 0 0 0 0 0
				</DataArray>
			</PointData>
			<CellData Scalars="Density">
				<DataArray Name="Density" type="Float32" format="ascii">