<?xml version="1.0"?>
<VTKFile type="PolyData">
	<PolyData>
		<Piece NumberOfPoints="961" NumberOfPolys="900">
			<Points>
				<DataArray type="Float32" NumberOfComponents="3" format="ascii">
 0 0 0 0.04 0 0 0.08 0 0 0.12 0 0 0.16 0 0 0.2 0 0 0.24 0 0 0.28 0 0 0.32 0 0 0.36 0 0 0.4 0 0 0.44 0 0 0.48 0 0 0.52 0 0 0.56 0 0 0.6 0 0 0.64 0 0 0.68 0 0 0.72 0 0 0.76 0 0 0.8 0 0 0.84 0 0 0.88 0 0 0.92 0 0 0.96 0 0 1 0 0 1.04 0 0 1.08 0 0 1.12 0 0 1.16 0 0 1.2 0 0 0 0.04 0 0.04 0.04 0 0.08 0.04 0 0.12 0.04 0 0.16 0.04 0 0.2 0.04 0 0.24 0.04 0 0.28 0.04 0 0.32 0.04 0 0.36 0.04 0 0.4 0.04 0 0.44 0.04 0 0.48 0.04 0 0.52 0.04 0 0.56 0.04 0 0.6 0.04 0 0.64 0.04 0 0.68 0.04 0 0.72 0.04 0 0.76 0.04 0 0.8 0.04 0 0.84 0.04 0 0.88 0.04 0 0.92 0.04 0 0.96 0.04 0 1 0.04 0 1.04 0.04 0 1.08 0.04 0 1.12 0.04 0 1.16 0.04 0 1.2 0.04 0 0 0.08 0 0.04 0.08 0 0.08 0.08 0 0.12 0.08 0 0.16 0.08 0 0.2 0.08 0 0.24 0.08 0 0.28 0.08 0 0.32 0.08 0 0.36 0.08 0 0.4 0.08 0 0.44 0.08 0 0.48 0.08 0 0.52 0.08 0 0.56 0.08 0 0.6 0.08 0 0.64 0.08 0 0.68 0.08 0 0.72 0.08 0 0.76 0.08 0 0.8 0.08 0 0.84 0.08 0 0.88 0.08 0 0.92 0.08 0 0.96 0.08 0 1 0.08 0 1.04 0.08 0 1.08 0.08 0 1.12 0.08 0 1.16 0.08 0 1.2 0.08 0 0 0.12 0 0.04 0.12 0 0.08 0.12 0 0.12 0.12 0 0.16 0.12 0 0.2 0.12 0 0.24 0.12 0 0.28 0.12 0 0.32 0.12 0 0.36 0.12 0 0.4 0.12 0 0.44 0.12 0 0.48 0.12 0 0.52 0.12 0 0.56 0.12 0 0.6 0.12 0 0.64 0.12 0 0.68 0.12 0 0.72 0.12 0 0.76 0.12 0 0.8 0.12 0 0.84 0.12 0 0.88 0.12 0 0.92 0.12 0 0.96 0.12 0 1 0.12 0 1.04 0.12 0 1.08 0.12 0 1.12 0.12 0 1.16 0.12 0 1.2 0.12 0 0 0.16 0 0.04 0.16 0 0.08 0.16 0 0.12 0.16 0 0.16 0.16 0 0.2 0.16 0 0.24 0.16 0 0.28 0.16 0 0.32 0.16 0 0.36 0.16 0 0.4 0.16 0 0.44 0.16 0 0.48 0.16 0 0.52 0.16 0 0.56 0.16 0 0.6 0.16 0 0.64 0.16 0 0.68 0.16 0 0.72 0.16 0 0.76 0.16 0 0.8 0.16 0 0.84 0.16 0 0.88 0.16 0 0.92 0.16 0 0.96 0.16 0 1 0.16 0 1.04 0.16 0 1.08 0.16 0 1.12 0.16 0 1.16 0.16 0 1.2 0.16 0 0 0.2 0 0.04 0.2 0 0.08 0.2 0 0.12 0.2 0 0.16 0.2 0 0.2 0.2 0 0.24 0.2 0 0.28 0.2 0 0.32 0.2 0 0.36 0.2 0 0.4 0.2 0 0.44 0.2 0 0.48 0.2 0 0.52 0.2 0 0.56 0.2 0 0.6 0.2 0 0.64 0.2 0 0.68 0.2 0 0.72 0.2 0 0.76 0.2 0 0.8 0.2 0 0.84 0.2 0 0.88 0.2 0 0.92 0.2 0 0.96 0.2 0 1 0.2 0 1.04 0.2 0 1.08 0.2 0 1.12 0.2 0 1.16 0.2 0 1.2 0.2 0 0 0.24 0 0.04 0.24 0 0.08 0.24 0 0.12 0.24 0 0.16 0.24 0 0.2 0.24 0 0.24 0.24 0 0.28 0.24 0 0.32 0.24 0 0.36 0.24 0 0.4 0.24 0 0.44 0.24 0 0.48 0.24 0 0.52 0.24 0 0.56 0.24 0 0.6 0.24 0 0.64 0.24 0 0.68 0.24 0 0.72 0.24 0 0.76 0.24 0 0.8 0.24 0 0.84 0.24 0 0.88 0.24 0 0.92 0.24 0 0.96 0.24 0 1 0.24 0 1.04 0.24 0 1.08 0.24 0 1.12 0.24 0 1.16 0.24 0 1.2 0.24 0 0 0.28 0 0.04 0.28 0 0.08 0.28 0 0.12 0.28 0 0.16 0.28 0 0.2 0.28 0 0.24 0.28 0 0.28 0.28 0 0.32 0.28 0 0.36 0.28 0 0.4 0.28 0 0.44 0.28 0 0.48 0.28 0 0.52 0.28 0 0.56 0.28 0 0.6 0.28 0 0.64 0.28 0 0.68 0.28 0 0.72 0.28 0 0.76 0.28 0 0.8 0.28 0 0.84 0.28 0 0.88 0.28 0 0.92 0.28 0 0.96 0.28 0 1 0.28 0 1.04 0.28 0 1.08 0.28 0 1.12 0.28 0 1.16 0.28 0 1.2 0.28 0 0 0.32 0 0.04 0.32 0 0.08 0.32 0 0.12 0.32 0 0.16 0.32 0 0.2 0.32 0 0.24 0.32 0 0.28 0.32 0 0.32 0.32 0 0.36 0.32 0 0.4 0.32 0 0.44 0.32 0 0.48 0.32 0 0.52 0.32 0 0.56 0.32 0 0.6 0.32 0 0.64 0.32 0 0.68 0.32 0 0.72 0.32 0 0.76 0.32 0 0.8 0.32 0 0.84 0.32 0 0.88 0.32 0 0.92 0.32 0 0.96 0.32 0 1 0.32 0 1.04 0.32 0 1.08 0.32 0 1.12 0.32 0 1.16 0.32 0 1.2 0.32 0 0 0.36 0 0.04 0.36 0 0.08 0.36 0 0.12 0.36 0 0.16 0.36 0 0.2 0.36 0 0.24 0.36 0 0.28 0.36 0 0.32 0.36 0 0.36 0.36 0 0.4 0.36 0 0.44 0.36 0 0.48 0.36 0 0.52 0.36 0 0.56 0.36 0 0.6 0.36 0 0.64 0.36 0 0.68 0.36 0 0.72 0.36 0 0.76 0.36 0 0.8 0.36 0 0.84 0.36 0 0.88 0.36 0 0.92 0.36 0 0.96 0.36 0 1 0.36 0 1.04 0.36 0 1.08 0.36 0 1.12 0.36 0 1.16 0.36 0 1.2 0.36 0 0 0.4 0 0.04 0.4 0 0.08 0.4 0 0.12 0.4 0 0.16 0.4 0 0.2 0.4 0 0.24 0.4 0 0.28 0.4 0 0.32 0.4 0 0.36 0.4 0 0.4 0.4 0 0.44 0.4 0 0.48 0.4 0 0.52 0.4 0 0.56 0.4 0 0.6 0.4 0 0.64 0.4 0 0.68 0.4 0 0.72 0.4 0 0.76 0.4 0 0.8 0.4 0 0.84 0.4 0 0.88 0.4 0 0.92 0.4 0 0.96 0.4 0 1 0.4 0 1.04 0.4 0 1.08 0.4 0 1.12 0.4 0 1.16 0.4 0 1.2 0.4 0 0 0.44 0 0.04 0.44 0 0.08 0.44 0 0.12 0.44 0 0.16 0.44 0 0.2 0.44 0 0.24 0.44 0 0.28 0.44 0 0.32 0.44 0 0.36 0.44 0 0.4 0.44 0 0.44 0.44 0 0.48 0.44 0 0.52 0.44 0 0.56 0.44 0 0.6 0.44 0 0.64 0.44 0 0.68 0.44 0 0.72 0.44 0 0.76 0.44 0 0.8 0.44 0 0.84 0.44 0 0.88 0.44 0 0.92 0.44 0 0.96 0.44 0 1 0.44 0 1.04 0.44 0 1.08 0.44 0 1.12 0.44 0 1.16 0.44 0 1.2 0.44 0 0 0.48 0 0.04 0.48 0 0.08 0.48 0 0.12 0.48 0 0.16 0.48 0 0.2 0.48 0 0.24 0.48 0 0.28 0.48 0 0.32 0.48 0 0.36 0.48 0 0.4 0.48 0 0.44 0.48 0 0.48 0.48 0 0.52 0.48 0 0.56 0.48 0 0.6 0.48 0 0.64 0.48 0 0.68 0.48 0 0.72 0.48 0 0.76 0.48 0 0.8 0.48 0 0.84 0.48 0 0.88 0.48 0 0.92 0.48 0 0.96 0.48 0 1 0.48 0 1.04 0.48 0 1.08 0.48 0 1.12 0.48 0 1.16 0.48 0 1.2 0.48 0 0 0.52 0 0.04 0.52 0 0.08 0.52 0 0.12 0.52 0 0.16 0.52 0 0.2 0.52 0 0.24 0.52 0 0.28 0.52 0 0.32 0.52 0 0.36 0.52 0 0.4 0.52 0 0.44 0.52 0 0.48 0.52 0 0.52 0.52 0 0.56 0.52 0 0.6 0.52 0 0.64 0.52 0 0.68 0.52 0 0.72 0.52 0 0.76 0.52 0 0.8 0.52 0 0.84 0.52 0 0.88 0.52 0 0.92 0.52 0 0.96 0.52 0 1 0.52 0 1.04 0.52 0 1.08 0.52 0 1.12 0.52 0 1.16 0.52 0 1.2 0.52 0 0 0.56 0 0.04 0.56 0 0.08 0.56 0 0.12 0.56 0 0.16 0.56 0 0.2 0.56 0 0.24 0.56 0 0.28 0.56 0 0.32 0.56 0 0.36 0.56 0 0.4 0.56 0 0.44 0.56 0 0.48 0.56 0 0.52 0.56 0 0.56 0.56 0 0.6 0.56 0 0.64 0.56 0 0.68 0.56 0 0.72 0.56 0 0.76 0.56 0 0.8 0.56 0 0.84 0.56 0 0.88 0.56 0 0.92 0.56 0 0.96 0.56 0 1 0.56 0 1.04 0.56 0 1.08 0.56 0 1.12 0.56 0 1.16 0.56 0 1.2 0.56 0 0 0.6 0 0.04 0.6 0 0.08 0.6 0 0.12 0.6 0 0.16 0.6 0 0.2 0.6 0 0.24 0.6 0 0.28 0.6 0 0.32 0.6 0 0.36 0.6 0 0.4 0.6 0 0.44 0.6 0 0.48 0.6 0 0.52 0.6 0 0.56 0.6 0 0.6 0.6 0 0.64 0.6 0 0.68 0.6 0 0.72 0.6 0 0.76 0.6 0 0.8 0.6 0 0.84 0.6 0 0.88 0.6 0 0.92 0.6 0 0.96 0.6 0 1 0.6 0 1.04 0.6 0 1.08 0.6 0 1.12 0.6 0 1.16 0.6 0 1.2 0.6 0 0 0.64 0 0.04 0.64 0 0.08 0.64 0 0.12 0.64 0 0.16 0.64 0 0.2 0.64 0 0.24 0.64 0 0.28 0.64 0 0.32 0.64 0 0.36 0.64 0 0.4 0.64 0 0.44 0.64 0 0.48 0.64 0 0.52 0.64 0 0.56 0.64 0 0.6 0.64 0 0.64 0.64 0 0.68 0.64 0 0.72 0.64 0 0.76 0.64 0 0.8 0.64 0 0.84 0.64 0 0.88 0.64 0 0.92 0.64 0 0.96 0.64 0 1 0.64 0 1.04 0.64 0 1.08 0.64 0 1.12 0.64 0 1.16 0.64 0 1.2 0.64 0 0 0.68 0 0.04 0.68 0 0.08 0.68 0 0.12 0.68 0 0.16 0.68 0 0.2 0.68 0 0.24 0.68 0 0.28 0.68 0 0.32 0.68 0 0.36 0.68 0 0.4 0.68 0 0.44 0.68 0 0.48 0.68 0 0.52 0.68 0 0.56 0.68 0 0.6 0.68 0 0.64 0.68 0 0.68 0.68 0 0.72 0.68 0 0.76 0.68 0 0.8 0.68 0 0.84 0.68 0 0.88 0.68 0 0.92 0.68 0 0.96 0.68 0 1 0.68 0 1.04 0.68 0 1.08 0.68 0 1.12 0.68 0 1.16 0.68 0 1.2 0.68 0 0 0.72 0 0.04 0.72 0 0.08 0.72 0 0.12 0.72 0 0.16 0.72 0 0.2 0.72 0 0.24 0.72 0 0.28 0.72 0 0.32 0.72 0 0.36 0.72 0 0.4 0.72 0 0.44 0.72 0 0.48 0.72 0 0.52 0.72 0 0.56 0.72 0 0.6 0.72 0 0.64 0.72 0 0.68 0.72 0 0.72 0.72 0 0.76 0.72 0 0.8 0.72 0 0.84 0.72 0 0.88 0.72 0 0.92 0.72 0 0.96 0.72 0 1 0.72 0 1.04 0.72 0 1.08 0.72 0 1.12 0.72 0 1.16 0.72 0 1.2 0.72 0 0 0.76 0 0.04 0.76 0 0.08 0.76 0 0.12 0.76 0 0.16 0.76 0 0.2 0.76 0 0.24 0.76 0 0.28 0.76 0 0.32 0.76 0 0.36 0.76 0 0.4 0.76 0 0.44 0.76 0 0.48 0.76 0 0.52 0.76 0 0.56 0.76 0 0.6 0.76 0 0.64 0.76 0 0.68 0.76 0 0.72 0.76 0 0.76 0.76 0 0.8 0.76 0 0.84 0.76 0 0.88 0.76 0 0.92 0.76 0 0.96 0.76 0 1 0.76 0 1.04 0.76 0 1.08 0.76 0 1.12 0.76 0 1.16 0.76 0 1.2 0.76 0 0 0.8 0 0.04 0.8 0 0.08 0.8 0 0.12 0.8 0 0.16 0.8 0 0.2 0.8 0 0.24 0.8 0 0.28 0.8 0 0.32 0.8 0 0.36 0.8 0 0.4 0.8 0 0.44 0.8 0 0.48 0.8 0 0.52 0.8 0 0.56 0.8 0 0.6 0.8 0 0.64 0.8 0 0.68 0.8 0 0.72 0.8 0 0.76 0.8 0 0.8 0.8 0 0.84 0.8 0 0.88 0.8 0 0.92 0.8 0 0.96 0.8 0 1 0.8 0 1.04 0.8 0 1.08 0.8 0 1.12 0.8 0 1.16 0.8 0 1.2 0.8 0 0 0.84 0 0.04 0.84 0 0.08 0.84 0 0.12 0.84 0 0.16 0.84 0 0.2 0.84 0 0.24 0.84 0 0.28 0.84 0 0.32 0.84 0 0.36 0.84 0 0.4 0.84 0 0.44 0.84 0 0.48 0.84 0 0.52 0.84 0 0.56 0.84 0 0.6 0.84 0 0.64 0.84 0 0.68 0.84 0 0.72 0.84 0 0.76 0.84 0 0.8 0.84 0 0.84 0.84 0 0.88 0.84 0 0.92 0.84 0 0.96 0.84 0 1 0.84 0 1.04 0.84 0 1.08 0.84 0 1.12 0.84 0 1.16 0.84 0 1.2 0.84 0 0 0.88 0 0.04 0.88 0 0.08 0.88 0 0.12 0.88 0 0.16 0.88 0 0.2 0.88 0 0.24 0.88 0 0.28 0.88 0 0.32 0.88 0 0.36 0.88 0 0.4 0.88 0 0.44 0.88 0 0.48 0.88 0 0.52 0.88 0 0.56 0.88 0 0.6 0.88 0 0.64 0.88 0 0.68 0.88 0 0.72 0.88 0 0.76 0.88 0 0.8 0.88 0 0.84 0.88 0 0.88 0.88 0 0.92 0.88 0 0.96 0.88 0 1 0.88 0 1.04 0.88 0 1.08 0.88 0 1.12 0.88 0 1.16 0.88 0 1.2 0.88 0 0 0.92 0 0.04 0.92 0 0.08 0.92 0 0.12 0.92 0 0.16 0.92 0 0.2 0.92 0 0.24 0.92 0 0.28 0.92 0 0.32 0.92 0 0.36 0.92 0 0.4 0.92 0 0.44 0.92 0 0.48 0.92 0 0.52 0.92 0 0.56 0.92 0 0.6 0.92 0 0.64 0.92 0 0.68 0.92 0 0.72 0.92 0 0.76 0.92 0 0.8 0.92 0 0.84 0.92 0 0.88 0.92 0 0.92 0.92 0 0.96 0.92 0 1 0.92 0 1.04 0.92 0 1.08 0.92 0 1.12 0.92 0 1.16 0.92 0 1.2 0.92 0 0 0.96 0 0.04 0.96 0 0.08 0.96 0 0.12 0.96 0 0.16 0.96 0 0.2 0.96 0 0.24 0.96 0 0.28 0.96 0 0.32 0.96 0 0.36 0.96 0 0.4 0.96 0 0.44 0.96 0 0.48 0.96 0 0.52 0.96 0 0.56 0.96 0 0.6 0.96 0 0.64 0.96 0 0.68 0.96 0 0.72 0.96 0 0.76 0.96 0 0.8 0.96 0 0.84 0.96 0 0.88 0.96 0 0.92 0.96 0 0.96 0.96 0 1 0.96 0 1.04 0.96 0 1.08 0.96 0 1.12 0.96 0 1.16 0.96 0 1.2 0.96 0 0 1 0 0.04 1 0 0.08 1 0 0.12 1 0 0.16 1 0 0.2 1 0 0.24 1 0 0.28 1 0 0.32 1 0 0.36 1 0 0.4 1 0 0.44 1 0 0.48 1 0 0.52 1 0 0.56 1 0 0.6 1 0 0.64 1 0 0.68 1 0 0.72 1 0 0.76 1 0 0.8 1 0 0.84 1 0 0.88 1 0 0.92 1 0 0.96 1 0 1 1 0 1.04 1 0 1.08 1 0 1.12 1 0 1.16 1 0 1.2 1 0 0 1.04 0 0.04 1.04 0 0.08 1.04 0 0.12 1.04 0 0.16 1.04 0 0.2 1.04 0 0.24 1.04 0 0.28 1.04 0 0.32 1.04 0 0.36 1.04 0 0.4 1.04 0 0.44 1.04 0 0.48 1.04 0 0.52 1.04 0 0.56 1.04 0 0.6 1.04 0 0.64 1.04 0 0.68 1.04 0 0.72 1.04 0 0.76 1.04 0 0.8 1.04 0 0.84 1.04 0 0.88 1.04 0 0.92 1.04 0 0.96 1.04 0 1 1.04 0 1.04 1.04 0 1.08 1.04 0 1.12 1.04 0 1.16 1.04 0 1.2 1.04 0 0 1.08 0 0.04 1.08 0 0.08 1.08 0 0.12 1.08 0 0.16 1.08 0 0.2 1.08 0 0.24 1.08 0 0.28 1.08 0 0.32 1.08 0 0.36 1.08 0 0.4 1.08 0 0.44 1.08 0 0.48 1.08 0 0.52 1.08 0 0.56 1.08 0 0.6 1.08 0 0.64 1.08 0 0.68 1.08 0 0.72 1.08 0 0.76 1.08 0 0.8 1.08 0 0.84 1.08 0 0.88 1.08 0 0.92 1.08 0 0.96 1.08 0 1 1.08 0 1.04 1.08 0 1.08 1.08 0 1.12 1.08 0 1.16 1.08 0 1.2 1.08 0 0 1.12 0 
[...]
			<PointData Scalars="VitesseX">
				<DataArray Name="VitesseX" type="Float32" format="ascii">
 0 -0.0840998 -0.16514 -0.169826 -0.125136 -0.0351433 0.0709877 0.161486 0.205667 0.200855 0.159206 0.0963609 0.0261475 -0.0438072 -0.12188 -0.296053 -0.735386 -1.20043 -1.43084 -1.42789 -1.28007 -1.14506 -1.0149 -0.887502 -0.762851 -0.640303 -0.518537 -0.395806 -0.27033 -0.135459 0 0 0.0406847 -0.0139401 -0.0562402 -0.0386857 0.0146894 0.0921656 0.163416 0.197229 0.185117 0.141221 0.0816241 0.0163374 -0.049606 -0.124961 -0.294998 -0.72736 -1.19101 -1.4243 -1.42749 -1.28036 -1.14523 -1.01512 -0.88774 -0.763119 -0.640631 -0.518973 -0.396395 -0.271091 -0.13577 0 0 0.0151088 0.0287462 0.000976877 -0.0178225 -0.0166711 -0.00130659 0.0289479 0.0620374 0.0730704 0.0558495 0.0199416 -0.0256243 -0.0768598 -0.142462 -0.299 -0.708873 -1.16595 -1.40726 -1.42682 -1.28237 -1.14647 -1.01603 -0.888313 -0.763392 -0.640771 -0.519215 -0.396994 -0.272163 -0.136401 0 0 -0.043026 -0.0700769 -0.0887147 -0.114413 -0.132078 -0.140942 -0.136795 -0.11818 -0.0962501 -0.0812978 -0.0805499 -0.0946881 -0.122811 -0.173489 -0.309999 -0.681954 -1.12525 -1.38009 -1.42419 -1.28661 -1.14961 -1.01868 -0.890346 -0.764824 -0.641811 -0.520202 -0.398265 -0.273875 -0.137572 0 0 -0.0928581 -0.147784 -0.181689 -0.20869 -0.234127 -0.25245 -0.259825 -0.248857 -0.22153 -0.192504 -0.172888 -0.167066 -0.177305 -0.213295 -0.327816 -0.648482 -1.06982 -1.3426 -1.41496 -1.29335 -1.155 -1.02346 -0.894309 -0.767932 -0.644221 -0.522258 -0.400297 -0.276134 -0.139159 0 0 -0.123202 -0.205605 -0.252163 -0.287557 -0.317711 -0.340056 -0.35247 -0.345756 -0.318081 -0.284919 -0.254175 -0.234209 -0.231081 -0.257107 -0.352112 -0.612464 -1.0017 -1.29146 -1.39321 -1.30268 -1.16287 -1.0303 -0.900165 -0.772688 -0.647945 -0.525241 -0.402866 -0.27864 -0.140867 0 0 -0.135951 -0.228465 -0.284601 -0.328452 -0.366946 -0.398281 -0.418033 -0.418752 -0.393675 -0.354349 -0.318851 -0.291814 -0.281934 -0.301778 -0.381582 -0.579619 -0.924169 -1.22342 -1.35573 -1.31076 -1.17342 -1.03876 -0.907598 -0.778763 -0.65268 -0.528863 -0.405739 -0.281203 -0.14259 0 0 -0.11719 -0.214084 -0.283564 -0.334181 -0.378443 -0.42073 -0.453862 -0.470884 -0.459806 -0.420888 -0.377495 -0.346401 -0.33205 -0.347124 -0.413373 -0.5588 -0.843246 -1.13719 -1.29681 -1.31348 -1.18585 -1.04855 -0.916218 -0.785824 -0.658171 -0.532956 -0.408848 -0.283805 -0.144386 0 0 -0.076064 -0.151276 -0.220307 -0.284852 -0.351517 -0.413669 -0.462721 -0.496359 -0.510921 -0.492622 -0.449207 -0.408378 -0.388289 -0.39526 -0.446332 -0.557743 -0.763461 -1.03289 -1.22611 -1.29358 -1.19872 -1.05993 -0.92572 -0.793745 -0.664367 -0.53754 -0.412187 -0.286358 -0.146464 0 0 -0.0286167 -0.0669426 -0.126282 -0.195156 -0.270835 -0.356278 -0.440188 -0.500624 -0.536613 -0.550228 -0.528293 -0.48665 -0.455078 -0.451426 -0.484109 -0.568536 -0.698598 -0.924667 -1.13897 -1.24428 -1.20798 -1.07299 -0.936098 -0.802578 -0.671362 -0.542765 -0.415882 -0.288884 -0.148286 0 0 0.00387307 -0.00501334 -0.0447501 -0.110447 -0.187959 -0.275133 -0.374818 -0.47295 -0.541954 -0.580361 -0.59298 -0.56975 -0.534014 -0.515419 -0.531044 -0.581407 -0.666112 -0.821041 -1.02893 -1.16737 -1.20146 -1.08774 -0.947952 -0.812617 -0.679444 -0.548853 -0.420153 -0.291709 -0.150323 0 0 0.0197493 0.0267773 0.00280507 -0.0517499 -0.124421 -0.206913 -0.300384 -0.406879 -0.511561 -0.586644 -0.6271 -0.638347 -0.615327 -0.588503 -0.581567 -0.602893 -0.656665 -0.731903 -0.906161 -1.0774 -1.16049 -1.10136 -0.96205 -0.824209 -0.689051 -0.556207 -0.425389 -0.295295 -0.153421 0 0 0.0234117 0.0345138 0.0200686 -0.0216165 -0.0831958 -0.15946 -0.243192 -0.336754 -0.442709 -0.549022 -0.630557 -0.673454 -0.681456 -0.65784 -0.635706 -0.633345 -0.646361 -0.683523 -0.785715 -0.963234 -1.08165 -1.10146 -0.978394 -0.837497 -0.700302 -0.565023 -0.431858 -0.299877 -0.157648 0 0 0.0188842 0.0279563 0.0181133 -0.0140806 -0.0655037 -0.129062 -0.201017 -0.280025 -0.369781 -0.471719 -0.576503 -0.66366 -0.70912 -0.710044 -0.682163 -0.655903 -0.645582 -0.652766 -0.684312 -0.829049 -0.98578 -1.06241 -0.994827 -0.852135 -0.712667 -0.574908 -0.439205 -0.304971 -0.161301 0 0 0.00908334 0.011522 0.000735083 -0.0258195 -0.0657237 -0.114775 -0.170408 -0.232646 -0.303931 -0.386526 -0.480547 -0.581406 -0.669763 -0.714421 -0.704845 -0.668701 -0.635978 -0.618288 -0.619367 -0.693721 -0.86197 -0.978258 -0.994123 -0.867128 -0.724447 -0.584488 -0.446231 -0.3096 -0.163917 0 0 -9.9258e-05 -0.0049212 -0.018594 -0.042993 -0.075117 -0.11125 -0.149169 -0.19169 -0.241242 -0.301636 -0.375603 -0.457074 -0.547752 -0.629817 -0.666378 -0.645617 -0.605689 -0.572246 -0.56222 -0.574169 -0.711812 -0.872041 -0.951396 -0.878046 -0.734291 -0.592722 -0.452358 -0.313768 -0.166321 0 0 -0.000760845 -0.00643782 -0.0208493 -0.0436632 -0.0710712 -0.0995369 -0.126129 -0.148794 -0.178658 -0.218974 -0.266394 -0.327255 -0.394836 -0.466481 -0.531435 -0.557005 -0.530863 -0.502409 -0.478157 -0.482489 -0.554113 -0.73152 -0.85729 -0.872838 -0.741925 -0.598855 -0.457579 -0.318026 -0.169356 0 0 0.0124928 0.0171362 0.010204 -0.0033252 -0.022068 -0.0433537 -0.0647163 -0.0886866 -0.111446 -0.130828 -0.16177 -0.200819 -0.244015 -0.292642 -0.340711 -0.382088 -0.398244 -0.374702 -0.359468 -0.372979 -0.405466 -0.555857 -0.733844 -0.822348 -0.743941 -0.602184 -0.461704 -0.322596 -0.173664 0 0 0.0281942 0.0444322 0.0527783 0.0548894 0.0532717 0.0477447 0.0369516 0.0188831 -0.00365402 -0.032903 -0.0611793 -0.0808366 -0.106778 -0.136939 -0.163555 -0.182605 -0.195667 -0.200994 -0.185983 -0.208811 -0.260949 -0.363923 -0.567492 -0.712917 -0.731044 -0.602137 -0.464007 -0.327099 -0.179102 0 0 0.0365201 0.0587523 0.0779108 0.0916959 0.110144 0.127255 0.135788 0.132312 0.115245 0.0896235 0.0635059 0.0346881 0.00955536 -0.00271574 -0.0128752 -0.0193267 -0.00818316 0.013594 0.0149367 0.0123017 -0.0626638 -0.162689 -0.356184 -0.564675 -0.667062 -0.595425 -0.46374 -0.330229 -0.18482 0 0 0.0270059 0.0564701 0.0769812 0.100526 0.135169 0.171267 0.193308 0.206477 0.206032 0.201323 0.187871 0.164311 0.139995 0.118673 0.105094 0.110121 0.130204 0.174516 0.224489 0.230223 0.200005 0.0795523 -0.109108 -0.364708 -0.540434 -0.568616 -0.458336 -0.330526 -0.189661 0 0 0.0170999 0.0460177 0.0596849 0.0920053 0.140207 0.182391 0.208798 0.232111 0.246987 0.263065 0.27553 0.275039 0.268083 0.249539 0.2316 0.224299 0.233598 0.270474 0.346748 0.428265 0.440213 0.372258 0.185661 -0.0992154 -0.364012 -0.488777 -0.442445 -0.325766 -0.19216 0 0 0.0121028 0.0289101 0.0441034 0.0881721 0.138164 0.167361 0.189041 0.214285 0.245332 0.279443 0.310256 0.331935 0.350708 0.356008 0.355459 0.348899 0.346397 0.361346 0.409252 0.504306 0.618649 0.628232 0.507062 0.226788 -0.118464 -0.34665 -0.396796 -0.312065 -0.190254 0 0 0.0118145 0.010179 0.0381064 0.0917637 0.12935 0.147807 0.166107 0.193062 0.2267 0.264177 0.303241 0.34225 0.378814 0.406361 0.428137 0.442962 0.454191 0.46943 0.493284 0.550484 0.654356 0.778705 0.761077 0.563779 0.197539 -0.141489 -0.29457 -0.282015 -0.179477 0 0 0.00502523 -0.00477741 0.0405894 0.089602 0.112211 0.124484 0.144519 0.174545 0.209937 0.2475 0.285522 0.324009 0.363596 0.403485 0.443395 0.479814 0.512353 0.54553 0.577073 0.619258 0.683366 0.787419 0.872622 0.799015 0.526657 0.129352 -0.138467 -0.212425 -0.152576 0 0 -0.00919448 -0.0112376 0.0413055 0.0761522 0.0894172 0.100611 0.124716 0.158022 0.194941 0.232293 0.268348 0.303977 0.340194 0.378348 0.419603 0.463216 0.509081 0.557742 0.607128 0.665951 0.723208 0.788341 0.868345 0.879492 0.740093 0.422173 0.0722839 -0.0949817 -0.0975354 0 0 -0.0273237 -0.01096 0.0262192 0.0541936 0.062849 0.0771412 0.105917 0.14234 0.179745 0.214786 0.248328 0.281824 0.316082 0.351934 0.390101 0.431338 0.476566 0.525801 0.579764 0.64109 0.708569 0.78228 0.837289 0.866846 0.816941 0.621436 0.311987 0.0631944 -0.0121144 0 0 -0.0441643 -0.0147685 0.00213556 0.0269347 0.0333364 0.0531538 0.0859823 0.122315 0.156607 0.188467 0.219609 0.251313 0.284449 0.319665 0.357164 0.396824 0.43865 0.483446 0.532888 0.588244 0.652208 0.723347 0.786598 0.81813 0.810775 0.719342 0.518503 0.248484 0.0880173 0 0 -0.0600492 -0.0462752 -0.0139775 0.00190992 0.00236813 0.020105 0.0523283 0.0859382 0.116185 0.143871 0.171653 0.200974 0.233 0.268 0.30532 0.344244 0.384815 0.427982 0.474998 0.526999 0.584667 0.648979 0.716288 0.7635 0.768369 0.725958 0.626684 0.463806 0.231338 0 0 -0.146144 -0.061185 -0.0147657 -0.0156951 -0.0194018 -0.00566968 0.012242 0.0310233 0.0483123 0.0645071 0.0815792 0.10254 0.128428 0.158015 0.189715 0.223059 0.258968 0.299177 0.345523 0.399638 0.463055 0.537177 0.622348 0.713078 0.785607 0.79778 0.759471 0.697203 0.612057 0 0 0 0 0 0 0 0 0 0 0 0 0 0 0 0 0 0 0 0 0 0 0 0 0 0 0 0 0 0 0 0
				</DataArray>
				<DataArray Name="VitesseY" type="Float32" format="ascii">
 0 0 0 0 0 0 0 0 0 0 0 0 0 0 0 0 0 0 0 0 0 0 0 0 0 0 0 0 0 0 0 -0.0839041 0.0385195 0.00830437 -0.0502733 -0.101097 -0.131512 -0.141408 -0.109516 -0.0574053 -0.0143065 0.0114177 0.0222264 0.0226387 0.0157746 0.00673324 0.000914331 0.00855702 0.023817 0.0346067 0.0384764 0.0359733 0.032767 0.0299623 0.0272294 0.0244857 0.0216177 0.0183493 0.0140703 0.00820574 0.00306126 0 -0.170548 -0.0194867 0.0184957 -0.0793298 -0.159813 -0.216478 -0.238477 -0.203127 -0.119709 -0.0398136 0.00919815 0.0305687 0.0336941 0.0231946 0.00800301 -0.00178929 0.0139387 0.0446905 0.0676662 0.0766137 0.072044 0.0655862 0.060016 0.0546123 0.0492184 0.0436001 0.03708 0.0284945 0.0164835 0.00558776 0 -0.183096 -0.0680228 -0.00851814 -0.0949459 -0.188913 -0.260162 -0.290753 -0.274745 -0.1893 -0.0926748 -0.0254051 0.00979852 0.0210027 0.0143405 -0.00180513 -0.012219 0.0124861 0.0594279 0.0968196 0.112959 0.107825 0.098429 0.0902823 0.0823559 0.0744433 0.0661571 0.0565204 0.0439435 0.0258442 0.00833682 0 -0.148175 -0.0563135 -0.0273733 -0.112829 -0.207772 -0.287915 -0.325681 -0.326688 -0.257182 -0.164555 -0.0884911 -0.0397249 -0.0166213 -0.013916 -0.0250177 -0.0322192 0.0015079 0.0648632 0.119078 0.144919 0.143181 0.131528 0.12101 0.110799 0.100597 0.0898906 0.0774284 0.0612003 0.0375092 0.0124091 0 -0.0663946 -0.0115235 -0.024265 -0.124961 -0.223099 -0.307089 -0.356332 -0.367061 -0.325738 -0.242749 -0.165122 -0.107796 -0.0727286 -0.0588275 -0.0602646 -0.0607509 -0.0199102 0.0584046 0.132204 0.171362 0.178264 0.165221 0.152413 0.140264 0.128109 0.115351 0.100432 0.0809331 0.0521719 0.0184997 0 0.0326131 0.0587452 -0.00929835 -0.127185 -0.231853 -0.320413 -0.380504 -0.402487 -0.388757 -0.325803 -0.249199 -0.186903 -0.142096 -0.115134 -0.103694 -0.094597 -0.0504847 0.0402795 0.13532 0.193602 0.21201 0.199669 0.184589 0.17087 0.157055 0.142554 0.12546 0.103006 0.0696879 0.0265856 0 0.125066 0.129278 0.0194182 -0.120633 -0.234817 -0.326089 -0.393375 -0.429648 -0.437809 -0.40818 -0.342116 -0.272751 -0.219306 -0.179479 -0.151812 -0.129685 -0.0862088 0.0116871 0.126471 0.208291 0.240777 0.233933 0.217607 0.202326 0.18702 0.170885 0.151797 0.126633 0.0892312 0.0361485 0 0.179617 0.177337 0.0528519 -0.10659 -0.225286 -0.317123 -0.391196 -0.444127 -0.468531 -0.471536 -0.435897 -0.368935 -0.303796 -0.250598 -0.20615 -0.167184 -0.122086 -0.0239539 0.101164 0.204577 0.257675 0.268272 0.251475 0.23423 0.217398 0.199542 0.178546 0.15087 0.109775 0.0465312 0 0.188585 0.181642 0.0705717 -0.0878636 -0.203374 -0.290407 -0.365319 -0.433496 -0.483328 -0.506666 -0.508596 -0.468407 -0.399263 -0.330854 -0.268889 -0.212034 -0.152005 -0.0649474 0.0638671 0.191755 0.271687 0.299142 0.285965 0.266386 0.247835 0.228101 0.205248 0.175227 0.130521 0.0575859 0 0.157058 0.145197 0.0613216 -0.0731147 -0.178058 -0.258374 -0.322054 -0.392359 -0.467222 -0.52165 -0.548491 -0.548506 -0.500137 -0.423107 -0.34314 -0.264999 -0.184902 -0.104379 0.0229903 0.163158 0.269835 0.318329 0.319804 0.299028 0.278371 0.256764 0.232161 0.200125 0.152023 0.0697114 0 0.0976033 0.085895 0.0269803 -0.0713504 -0.157199 -0.228154 -0.283663 -0.340627 -0.419766 -0.503447 -0.564414 -0.594283 -0.586029 -0.522756 -0.429638 -0.329217 -0.230962 -0.131104 -0.0196623 0.121859 0.253181 0.328999 0.351262 0.33283 0.309364 0.286113 0.260015 0.226596 0.175953 0.0843558 0 0.0239588 0.0166873 -0.0221305 -0.085261 -0.15022 -0.206109 -0.253931 -0.302219 -0.369391 -0.456935 -0.545676 -0.610401 -0.638761 -0.612946 -0.524316 -0.406374 -0.284165 -0.164542 -0.056503 0.0803257 0.224088 0.329346 0.374653 0.366749 0.341812 0.31682 0.28956 0.25543 0.203213 0.103978 0 -0.0540725 -0.0573912 -0.0788283 -0.116379 -0.159477 -0.200166 -0.238426 -0.282179 -0.338378 -0.4147 -0.5034 -0.591408 -0.654045 -0.671578 -0.614372 -0.491776 -0.34684 -0.209086 -0.0783229 0.0420909 0.184491 0.314892 0.38596 0.400674 0.376837 0.349538 0.321286 0.286939 0.234196 0.129168 0 -0.138607 -0.138216 -0.147438 -0.16632 -0.19122 -0.218475 -0.248789 -0.285115 -0.334237 -0.39682 -0.474056 -0.555992 -0.632119 -0.683429 -0.673156 -0.574406 -0.417547 -0.254619 -0.107248 0.0149122 0.150145 0.290655 0.390822 0.430164 0.414111 0.384971 0.355567 0.321242 0.268662 0.158423 0 -0.263944 -0.259501 -0.257224 -0.258976 -0.265726 -0.279792 -0.30029 -0.328154 -0.364708 -0.413509 -0.471981 -0.537936 -0.602761 -0.654738 -0.677075 -0.625697 -0.482793 -0.303492 -0.138942 0.00553376 0.124103 0.260529 0.383245 0.448165 0.452789 0.424162 0.392779 0.358218 0.305708 0.189959 0 -0.552318 -0.538527 -0.511113 -0.475656 -0.443026 -0.423393 -0.42085 -0.429893 -0.44537 -0.46836 -0.504333 -0.546974 -0.589815 -0.62326 -0.643043 -0.617751 -0.52104 -0.345653 -0.163107 -0.00636064 0.119032 0.240707 0.372705 0.462811 0.490448 0.467012 0.433292 0.397578 0.344489 0.223213 0 -0.9985 -0.975464 -0.925489 -0.857357 -0.784952 -0.716216 -0.656369 -0.608255 -0.576126 -0.566838 -0.569794 -0.578911 -0.594217 -0.6102 -0.606592 -0.580891 -0.505787 -0.371391 -0.174168 -0.00121364 0.132688 0.241018 0.362068 0.469461 0.522121 0.512579 0.477927 0.43924 0.384977 0.259067 0 -1.34251 -1.31463 -1.25922 -1.18919 -1.11568 -1.03775 -0.956559 -0.874307 -0.79354 -0.71834 -0.660876 -0.633836 -0.621411 -0.605231 -0.586948 -0.54945 -0.480401 -0.352374 -0.18272 0.0193672 0.171092 0.268037 0.368355 0.481478 0.555641 0.561927 0.526971 0.483902 0.428099 0.29924 0 -1.46834 -1.43927 -1.38711 -1.3311 -1.27973 -1.22569 -1.16609 -1.09658 -1.01798 -0.929525 -0.839989 -0.751553 -0.67431 -0.623132 -0.584917 -0.534259 -0.456577 -0.343156 -0.172711 0.0233975 0.222107 0.337178 0.408029 0.500553 0.585448 0.611351 0.580949 0.533233 0.475078 0.345564 0 -1.38036 -1.35032 -1.30084 -1.27238 -1.26783 -1.25724 -1.23215 -1.19249 -1.14012 -1.08641 -1.02284 -0.939112 -0.83666 -0.726667 -0.622661 -0.537823 -0.462228 -0.353096 -0.190088 0.0224717 0.231894 0.421605 0.495272 0.551493 0.625345 0.670215 0.642704 0.588566 0.527044 0.399665 0 -1.22845 -1.18066 -1.14052 -1.12341 -1.12559 -1.12332 -1.12089 -1.12736 -1.14185 -1.14244 -1.11587 -1.06356 -0.995654 -0.904279 -0.7836 -0.646554 -0.509397 -0.382726 -0.246211 -0.0474158 0.208169 0.438856 0.611153 0.649051 0.685672 0.727272 0.710307 0.652583 0.584705 0.463072 0 -1.08381 -1.02096 -0.996499 -0.983853 -0.982074 -0.978501 -0.984175 -1.00149 -1.02493 -1.05031 -1.07219 -1.08533 -1.06601 -1.0121 -0.930441 -0.824272 -0.682709 -0.514153 -0.335226 -0.145596 0.0921484 0.378607 0.627247 0.77411 0.78567 0.790846 0.783945 0.7239 0.649035 0.537191 0 -0.929111 -0.866558 -0.860802 -0.847404 -0.843888 -0.845995 -0.86027 -0.882601 -0.905833 -0.927243 -0.947641 -0.967357 -0.986135 -0.998896 -0.982768 -0.926345 -0.830297 -0.705361 -0.537647 -0.329917 -0.0896097 0.198075 0.512475 0.76147 0.871756 0.868779 0.838591 0.78706 0.716347 0.622365 0 -0.755136 -0.719554 -0.728105 -0.712388 -0.713926 -0.724228 -0.744888 -0.768147 -0.788845 -0.805564 -0.819366 -0.832226 -0.846072 -0.860901 -0.876537 -0.885095 -0.87125 -0.810524 -0.697881 -0.548485 -0.348298 -0.084522 0.237265 0.568273 0.800288 0.880047 0.867572 0.818585 0.763593 0.713095 0 -0.571378 -0.584029 -0.595807 -0.582116 -0.594957 -0.61221 -0.634569 -0.655179 -0.66971 -0.680577 -0.689551 -0.698704 -0.708892 -0.720088 -0.730909 -0.74031 -0.747974 -0.749402 -0.732453 -0.663085 -0.53418 -0.356825 -0.111226 0.203279 0.529438 0.741135 0.817546 0.811146 0.768457 0.78562 0 -0.376619 -0.45674 -0.462297 -0.459667 -0.486309 -0.506223 -0.526113 -0.539734 -0.548394 -0.553769 -0.558831 -0.564704 -0.57202 -0.580564 -0.589161 -0.5966 -0.602184 -0.605285 -0.605242 -0.598577 -0.570209 -0.488474 -0.345226 -0.139572 0.131199 0.423275 0.621921 0.719588 0.726044 0.797792 0 -0.17927 -0.328937 -0.328541 -0.345607 -0.382838 -0.401457 -0.414581 -0.421649 -0.424475 -0.426117 -0.428183 -0.43157 -0.43652 -0.442699 -0.448975 -0.45453 -0.45935 -0.463186 -0.465306 -0.464939 -0.459538 -0.443622 -0.397619 -0.294894 -0.138412 0.0725307 0.312215 0.518625 0.626744 0.759483 0 0.0243645 -0.189176 -0.20579 -0.2378 -0.271322 -0.284338 -0.293756 -0.296617 -0.296664 -0.296589 -0.297193 -0.299098 -0.30248 -0.306765 -0.310905 -0.314735 -0.318751 -0.323159 -0.327545 -0.330588 -0.330849 -0.326061 -0.312341 -0.282283 -0.212648 -0.0951044 0.063173 0.248503 0.463832 0.697214 0 0.391189 -0.064129 -0.113675 -0.127457 -0.13427 -0.146224 -0.15406 -0.152795 -0.152912 -0.152681 -0.153096 -0.15507 -0.158568 -0.161848 -0.16426 -0.166534 -0.169492 -0.173753 -0.179162 -0.184863 -0.189693 -0.192189 -0.190284 -0.179506 -0.152604 -0.0975662 -0.0121374 0.0880091 0.231339 0.612061 0 3.22202 0 0 0 0 0 0 0 0 0 0 0 0 0 0 0 0 0 0 0 0 0 0 0 0 0 0 0 0 0 0
				</DataArray>
			</PointData>
			<CellData Scalars="Density">
				<DataArray Name="Density" type="Float32" format="ascii">