<?xml version="1.0"?>
<VTKFile type="PolyData">
	<PolyData>
		<Piece NumberOfPoints="961" NumberOfPolys="900">
			<Points>
				<DataArray type="Float32" NumberOfComponents="3" format="ascii">
 0 0 0 0.04 0 0 0.08 0 0 0.12 0 0 0.16 0 0 0.2 0 0 0.24 0 0 0.28 0 0 0.32 0 0 0.36 0 0 0.4 0 0 0.44 0 0 0.48 0 0 0.52 0 0 0.56 0 0 0.6 0 0 0.64 0 0 0.68 0 0 0.72 0 0 0.76 0 0 0.8 0 0 0.84 0 0 0.88 0 0 0.92 0 0 0.96 0 0 1 0 0 1.04 0 0 1.08 0 0 1.12 0 0 1.16 0 0 1.2 0 0 0 0.04 0 0.04 0.04 0 0.08 0.04 0 0.12 0.04 0 0.16 0.04 0 0.2 0.04 0 0.24 0.04 0 0.28 0.04 0 0.32 0.04 0 0.36 0.04 0 0.4 0.04 0 0.44 0.04 0 0.48 0.04 0 0.52 0.04 0 0.56 0.04 0 0.6 0.04 0 0.64 0.04 0 0.68 0.04 0 0.72 0.04 0 0.76 0.04 0 0.8 0.04 0 0.84 0.04 0 0.88 0.04 0 0.92 0.04 0 0.96 0.04 0 1 0.04 0 1.04 0.04 0 1.08 0.04 0 1.12 0.04 0 1.16 0.04 0 1.2 0.04 0 0 0.08 0 0.04 0.08 0 0.08 0.08 0 0.12 0.08 0 0.16 0.08 0 0.2 0.08 0 0.24 0.08 0 0.28 0.08 0 0.32 0.08 0 0.36 0.08 0 0.4 0.08 0 0.44 0.08 0 0.48 0.08 0 0.52 0.08 0 0.56 0.08 0 0.6 0.08 0 0.64 0.08 0 0.68 0.08 0 0.72 0.08 0 0.76 0.08 0 0.8 0.08 0 0.84 0.08 0 0.88 0.08 0 0.92 0.08 0 0.96 0.08 0 1 0.08 0 1.04 0.08 0 1.08 0.08 0 1.12 0.08 0 1.16 0.08 0 1.2 0.08 0 0 0.12 0 0.04 0.12 0 0.08 0.12 0 0.12 0.12 0 0.16 0.12 0 0.2 0.12 0 0.24 0.12 0 0.28 0.12 0 0.32 0.12 0 0.36 0.12 0 0.4 0.12 0 0.44 0.12 0 0.48 0.12 0 0.52 0.12 0 0.56 0.12 0 0.6 0.12 0 0.64 0.12 0 0.68 0.12 0 0.72 0.12 0 0.76 0.12 0 0.8 0.12 0 0.84 0.12 0 0.88 0.12 0 0.92 0.12 0 0.96 0.12 0 1 0.12 0 1.04 0.12 0 1.08 0.12 0 1.12 0.12 0 1.16 0.12 0 1.2 0.12 0 0 0.16 0 0.04 0.16 0 0.08 0.16 0 0.12 0.16 0 0.16 0.16 0 0.2 0.16 0 0.24 0.16 0 0.28 0.16 0 0.32 0.16 0 0.36 0.16 0 0.4 0.16 0 0.44 0.16 0 0.48 0.16 0 0.52 0.16 0 0.56 0.16 0 0.6 0.16 0 0.64 0.16 0 0.68 0.16 0 0.72 0.16 0 0.76 0.16 0 0.8 0.16 0 0.84 0.16 0 0.88 0.16 0 0.92 0.16 0 0.96 0.16 0 1 0.16 0 1.04 0.16 0 1.08 0.16 0 1.12 0.16 0 1.16 0.16 0 1.2 0.16 0 0 0.2 0 0.04 0.2 0 0.08 0.2 0 0.12 0.2 0 0.16 0.2 0 0.2 0.2 0 0.24 0.2 0 0.28 0.2 0 0.32 0.2 0 0.36 0.2 0 0.4 0.2 0 0.44 0.2 0 0.48 0.2 0 0.52 0.2 0 0.56 0.2 0 0.6 0.2 0 0.64 0.2 0 0.68 0.2 0 0.72 0.2 0 0.76 0.2 0 0.8 0.2 0 0.84 0.2 0 0.88 0.2 0 0.92 0.2 0 0.96 0.2 0 1 0.2 0 1.04 0.2 0 1.08 0.2 0 1.12 0.2 0 1.16 0.2 0 1.2 0.2 0 0 0.24 0 0.04 0.24 0 0.08 0.24 0 0.12 0.24 0 0.16 0.24 0 0.2 0.24 0 0.24 0.24 0 0.28 0.24 0 0.32 0.24 0 0.36 0.24 0 0.4 0.24 0 0.44 0.24 0 0.48 0.24 0 0.52 0.24 0 0.56 0.24 0 0.6 0.24 0 0.64 0.24 0 0.68 0.24 0 0.72 0.24 0 0.76 0.24 0 0.8 0.24 0 0.84 0.24 0 0.88 0.24 0 0.92 0.24 0 0.96 0.24 0 1 0.24 0 1.04 0.24 0 1.08 0.24 0 1.12 0.24 0 1.16 0.24 0 1.2 0.24 0 0 0.28 0 0.04 0.28 0 0.08 0.28 0 0.12 0.28 0 0.16 0.28 0 0.2 0.28 0 0.24 0.28 0 0.28 0.28 0 0.32 0.28 0 0.36 0.28 0 0.4 0.28 0 0.44 0.28 0 0.48 0.28 0 0.52 0.28 0 0.56 0.28 0 0.6 0.28 0 0.64 0.28 0 0.68 0.28 0 0.72 0.28 0 0.76 0.28 0 0.8 0.28 0 0.84 0.28 0 0.88 0.28 0 0.92 0.28 0 0.96 0.28 0 1 0.28 0 1.04 0.28 0 1.08 0.28 0 1.12 0.28 0 1.16 0.28 0 1.2 0.28 0 0 0.32 0 0.04 0.32 0 0.08 0.32 0 0.12 0.32 0 0.16 0.32 0 0.2 0.32 0 0.24 0.32 0 0.28 0.32 0 0.32 0.32 0 0.36 0.32 0 0.4 0.32 0 0.44 0.32 0 0.48 0.32 0 0.52 0.32 0 0.56 0.32 0 0.6 0.32 0 0.64 0.32 0 0.68 0.32 0 0.72 0.32 0 0.76 0.32 0 0.8 0.32 0 0.84 0.32 0 0.88 0.32 0 0.92 0.32 0 0.96 0.32 0 1 0.32 0 1.04 0.32 0 1.08 0.32 0 1.12 0.32 0 1.16 0.32 0 1.2 0.32 0 0 0.36 0 0.04 0.36 0 0.08 0.36 0 0.12 0.36 0 0.16 0.36 0 0.2 0.36 0 0.24 0.36 0 0.28 0.36 0 0.32 0.36 0 0.36 0.36 0 0.4 0.36 0 0.44 0.36 0 0.48 0.36 0 0.52 0.36 0 0.56 0.36 0 0.6 0.36 0 0.64 0.36 0 0.68 0.36 0 0.72 0.36 0 0.76 0.36 0 0.8 0.36 0 0.84 0.36 0 0.88 0.36 0 0.92 0.36 0 0.96 0.36 0 1 0.36 0 1.04 0.36 0 1.08 0.36 0 1.12 0.36 0 1.16 0.36 0 1.2 0.36 0 0 0.4 0 0.04 0.4 0 0.08 0.4 0 0.12 0.4 0 0.16 0.4 0 0.2 0.4 0 0.24 0.4 0 0.28 0.4 0 0.32 0.4 0 0.36 0.4 0 0.4 0.4 0 0.44 0.4 0 0.48 0.4 0 0.52 0.4 0 0.56 0.4 0 0.6 0.4 0 0.64 0.4 0 0.68 0.4 0 0.72 0.4 0 0.76 0.4 0 0.8 0.4 0 0.84 0.4 0 0.88 0.4 0 0.92 0.4 0 0.96 0.4 0 1 0.4 0 1.04 0.4 0 1.08 0.4 0 1.12 0.4 0 1.16 0.4 0 1.2 0.4 0 0 0.44 0 0.04 0.44 0 0.08 0.44 0 0.12 0.44 0 0.16 0.44 0 0.2 0.44 0 0.24 0.44 0 0.28 0.44 0 0.32 0.44 0 0.36 0.44 0 0.4 0.44 0 0.44 0.44 0 0.48 0.44 0 0.52 0.44 0 0.56 0.44 0 0.6 0.44 0 0.64 0.44 0 0.68 0.44 0 0.72 0.44 0 0.76 0.44 0 0.8 0.44 0 0.84 0.44 0 0.88 0.44 0 0.92 0.44 0 0.96 0.44 0 1 0.44 0 1.04 0.44 0 1.08 0.44 0 1.12 0.44 0 1.16 0.44 0 1.2 0.44 0 0 0.48 0 0.04 0.48 0 0.08 0.48 0 0.12 0.48 0 0.16 0.48 0 0.2 0.48 0 0.24 0.48 0 0.28 0.48 0 0.32 0.48 0 0.36 0.48 0 0.4 0.48 0 0.44 0.48 0 0.48 0.48 0 0.52 0.48 0 0.56 0.48 0 0.6 0.48 0 0.64 0.48 0 0.68 0.48 0 0.72 0.48 0 0.76 0.48 0 0.8 0.48 0 0.84 0.48 0 0.88 0.48 0 0.92 0.48 0 0.96 0.48 0 1 0.48 0 1.04 0.48 0 1.08 0.48 0 1.12 0.48 0 1.16 0.48 0 1.2 0.48 0 0 0.52 0 0.04 0.52 0 0.08 0.52 0 0.12 0.52 0 0.16 0.52 0 0.2 0.52 0 0.24 0.52 0 0.28 0.52 0 0.32 0.52 0 0.36 0.52 0 0.4 0.52 0 0.44 0.52 0 0.48 0.52 0 0.52 0.52 0 0.56 0.52 0 0.6 0.52 0 0.64 0.52 0 0.68 0.52 0 0.72 0.52 0 0.76 0.52 0 0.8 0.52 0 0.84 0.52 0 0.88 0.52 0 0.92 0.52 0 0.96 0.52 0 1 0.52 0 1.04 0.52 0 1.08 0.52 0 1.12 0.52 0 1.16 0.52 0 1.2 0.52 0 0 0.56 0 0.04 0.56 0 0.08 0.56 0 0.12 0.56 0 0.16 0.56 0 0.2 0.56 0 0.24 0.56 0 0.28 0.56 0 0.32 0.56 0 0.36 0.56 0 0.4 0.56 0 0.44 0.56 0 0.48 0.56 0 0.52 0.56 0 0.56 0.56 0 0.6 0.56 0 0.64 0.56 0 0.68 0.56 0 0.72 0.56 0 0.76 0.56 0 0.8 0.56 0 0.84 0.56 0 0.88 0.56 0 0.92 0.56 0 0.96 0.56 0 1 0.56 0 1.04 0.56 0 1.08 0.56 0 1.12 0.56 0 1.16 0.56 0 1.2 0.56 0 0 0.6 0 0.04 0.6 0 0.08 0.6 0 0.12 0.6 0 0.16 0.6 0 0.2 0.6 0 0.24 0.6 0 0.28 0.6 0 0.32 0.6 0 0.36 0.6 0 0.4 0.6 0 0.44 0.6 0 0.48 0.6 0 0.52 0.6 0 0.56 0.6 0 0.6 0.6 0 0.64 0.6 0 0.68 0.6 0 0.72 0.6 0 0.76 0.6 0 0.8 0.6 0 0.84 0.6 0 0.88 0.6 0 0.92 0.6 0 0.96 0.6 0 1 0.6 0 1.04 0.6 0 1.08 0.6 0 1.12 0.6 0 1.16 0.6 0 1.2 0.6 0 0 0.64 0 0.04 0.64 0 0.08 0.64 0 0.12 0.64 0 0.16 0.64 0 0.2 0.64 0 0.24 0.64 0 0.28 0.64 0 0.32 0.64 0 0.36 0.64 0 0.4 0.64 0 0.44 0.64 0 0.48 0.64 0 0.52 0.64 0 0.56 0.64 0 0.6 0.64 0 0.64 0.64 0 0.68 0.64 0 0.72 0.64 0 0.76 0.64 0 0.8 0.64 0 0.84 0.64 0 0.88 0.64 0 0.92 0.64 0 0.96 0.64 0 1 0.64 0 1.04 0.64 0 1.08 0.64 0 1.12 0.64 0 1.16 0.64 0 1.2 0.64 0 0 0.68 0 0.04 0.68 0 0.08 0.68 0 0.12 0.68 0 0.16 0.68 0 0.2 0.68 0 0.24 0.68 0 0.28 0.68 0 0.32 0.68 0 0.36 0.68 0 0.4 0.68 0 0.44 0.68 0 0.48 0.68 0 0.52 0.68 0 0.56 0.68 0 0.6 0.68 0 0.64 0.68 0 0.68 0.68 0 0.72 0.68 0 0.76 0.68 0 0.8 0.68 0 0.84 0.68 0 0.88 0.68 0 0.92 0.68 0 0.96 0.68 0 1 0.68 0 1.04 0.68 0 1.08 0.68 0 1.12 0.68 0 1.16 0.68 0 1.2 0.68 0 0 0.72 0 0.04 0.72 0 0.08 0.72 0 0.12 0.72 0 0.16 0.72 0 0.2 0.72 0 0.24 0.72 0 0.28 0.72 0 0.32 0.72 0 0.36 0.72 0 0.4 0.72 0 0.44 0.72 0 0.48 0.72 0 0.52 0.72 0 0.56 0.72 0 0.6 0.72 0 0.64 0.72 0 0.68 0.72 0 0.72 0.72 0 0.76 0.72 0 0.8 0.72 0 0.84 0.72 0 0.88 0.72 0 0.92 0.72 0 0.96 0.72 0 1 0.72 0 1.04 0.72 0 1.08 0.72 0 1.12 0.72 0 1.16 0.72 0 1.2 0.72 0 0 0.76 0 0.04 0.76 0 0.08 0.76 0 0.12 0.76 0 0.16 0.76 0 0.2 0.76 0 0.24 0.76 0 0.28 0.76 0 0.32 0.76 0 0.36 0.76 0 0.4 0.76 0 0.44 0.76 0 0.48 0.76 0 0.52 0.76 0 0.56 0.76 0 0.6 0.76 0 0.64 0.76 0 0.68 0.76 0 0.72 0.76 0 0.76 0.76 0 0.8 0.76 0 0.84 0.76 0 0.88 0.76 0 0.92 0.76 0 0.96 0.76 0 1 0.76 0 1.04 0.76 0 1.08 0.76 0 1.12 0.76 0 1.16 0.76 0 1.2 0.76 0 0 0.8 0 0.04 0.8 0 0.08 0.8 0 0.12 0.8 0 0.16 0.8 0 0.2 0.8 0 0.24 0.8 0 0.28 0.8 0 0.32 0.8 0 0.36 0.8 0 0.4 0.8 0 0.44 0.8 0 0.48 0.8 0 0.52 0.8 0 0.56 0.8 0 0.6 0.8 0 0.64 0.8 0 0.68 0.8 0 0.72 0.8 0 0.76 0.8 0 0.8 0.8 0 0.84 0.8 0 0.88 0.8 0 0.92 0.8 0 0.96 0.8 0 1 0.8 0 1.04 0.8 0 1.08 0.8 0 1.12 0.8 0 1.16 0.8 0 1.2 0.8 0 0 0.84 0 0.04 0.84 0 0.08 0.84 0 0.12 0.84 0 0.16 0.84 0 0.2 0.84 0 0.24 0.84 0 0.28 0.84 0 0.32 0.84 0 0.36 0.84 0 0.4 0.84 0 0.44 0.84 0 0.48 0.84 0 0.52 0.84 0 0.56 0.84 0 0.6 0.84 0 0.64 0.84 0 0.68 0.84 0 0.72 0.84 0 0.76 0.84 0 0.8 0.84 0 0.84 0.84 0 0.88 0.84 0 0.92 0.84 0 0.96 0.84 0 1 0.84 0 1.04 0.84 0 1.08 0.84 0 1.12 0.84 0 1.16 0.84 0 1.2 0.84 0 0 0.88 0 0.04 0.88 0 0.08 0.88 0 0.12 0.88 0 0.16 0.88 0 0.2 0.88 0 0.24 0.88 0 0.28 0.88 0 0.32 0.88 0 0.36 0.88 0 0.4 0.88 0 0.44 0.88 0 0.48 0.88 0 0.52 0.88 0 0.56 0.88 0 0.6 0.88 0 0.64 0.88 0 0.68 0.88 0 0.72 0.88 0 0.76 0.88 0 0.8 0.88 0 0.84 0.88 0 0.88 0.88 0 0.92 0.88 0 0.96 0.88 0 1 0.88 0 1.04 0.88 0 1.08 0.88 0 1.12 0.88 0 1.16 0.88 0 1.2 0.88 0 0 0.92 0 0.04 0.92 0 0.08 0.92 0 0.12 0.92 0 0.16 0.92 0 0.2 0.92 0 0.24 0.92 0 0.28 0.92 0 0.32 0.92 0 0.36 0.92 0 0.4 0.92 0 0.44 0.92 0 0.48 0.92 0 0.52 0.92 0 0.56 0.92 0 0.6 0.92 0 0.64 0.92 0 0.68 0.92 0 0.72 0.92 0 0.76 0.92 0 0.8 0.92 0 0.84 0.92 0 0.88 0.92 0 0.92 0.92 0 0.96 0.92 0 1 0.92 0 1.04 0.92 0 1.08 0.92 0 1.12 0.92 0 1.16 0.92 0 1.2 0.92 0 0 0.96 0 0.04 0.96 0 0.08 0.96 0 0.12 0.96 0 0.16 0.96 0 0.2 0.96 0 0.24 0.96 0 0.28 0.96 0 0.32 0.96 0 0.36 0.96 0 0.4 0.96 0 0.44 0.96 0 0.48 0.96 0 0.52 0.96 0 0.56 0.96 0 0.6 0.96 0 0.64 0.96 0 0.68 0.96 0 0.72 0.96 0 0.76 0.96 0 0.8 0.96 0 0.84 0.96 0 0.88 0.96 0 0.92 0.96 0 0.96 0.96 0 1 0.96 0 1.04 0.96 0 1.08 0.96 0 1.12 0.96 0 1.16 0.96 0 1.2 0.96 0 0 1 0 0.04 1 0 0.08 1 0 0.12 1 0 0.16 1 0 0.2 1 0 0.24 1 0 0.28 1 0 0.32 1 0 0.36 1 0 0.4 1 0 0.44 1 0 0.48 1 0 0.52 1 0 0.56 1 0 0.6 1 0 0.64 1 0 0.68 1 0 0.72 1 0 0.76 1 0 0.8 1 0 0.84 1 0 0.88 1 0 0.92 1 0 0.96 1 0 1 1 0 1.04 1 0 1.08 1 0 1.12 1 0 1.16 1 0 1.2 1 0 0 1.04 0 0.04 1.04 0 0.08 1.04 0 0.12 1.04 0 0.16 1.04 0 0.2 1.04 0 0.24 1.04 0 0.28 1.04 0 0.32 1.04 0 0.36 1.04 0 0.4 1.04 0 0.44 1.04 0 0.48 1.04 0 0.52 1.04 0 0.56 1.04 0 0.6 1.04 0 0.64 1.04 0 0.68 1.04 0 0.72 1.04 0 0.76 1.04 0 0.8 1.04 0 0.84 1.04 0 0.88 1.04 0 0.92 1.04 0 0.96 1.04 0 1 1.04 0 1.04 1.04 0 1.08 1.04 0 1.12 1.04 0 1.16 1.04 0 1.2 1.04 0 0 1.08 0 0.04 1.08 0 0.08 1.08 0 0.12 1.08 0 0.16 1.08 0 0.2 1.08 0 0.24 1.08 0 0.28 1.08 0 0.32 1.08 0 0.36 1.08 0 0.4 1.08 0 0.44 1.08 0 0.48 1.08 0 0.52 1.08 0 0.56 1.08 0 0.6 1.08 0 0.64 1.08 0 0.68 1.08 0 0.72 1.08 0 0.76 1.08 0 0.8 1.08 0 0.84 1.08 0 0.88 1.08 0 0.92 1.08 0 0.96 1.08 0 1 1.08 0 1.04 1.08 0 1.08 1.08 0 1.12 1.08 0 1.16 1.08 0 1.2 1.08 0 0 1.12 0 
[...]
			<PointData Scalars="VitesseX">
				<DataArray Name="VitesseX" type="Float32" format="ascii">
 0 -0.00489376 -0.0178804 -0.0261893 0.0115389 0.0443344 0.0584169 0.0892093 0.110963 0.13234 0.152909 0.173363 0.19342 0.2137 0.234921 0.256246 0.28009 0.301653 0.34366 0.382075 0.364323 0.292773 0.15627 0.0264483 0.000327075 7.15176e-08 9.06191e-12 3.27631e-15 -7.51823e-15 7.51834e-15 0 0 0.041519 0.0560536 0.0393555 0.0525215 0.073374 0.0778511 0.104024 0.121225 0.139603 0.15797 0.176782 0.195599 0.214827 0.235205 0.255954 0.279322 0.300539 0.343488 0.379856 0.361097 0.28835 0.151513 0.0245914 0.000284175 6.21868e-08 8.2195e-12 3.19201e-15 -7.52084e-15 7.52084e-15 0 0 0.0414595 0.0691578 0.0738817 0.0869949 0.102318 0.100609 0.11991 0.131619 0.146396 0.162649 0.180034 0.198044 0.216839 0.236804 0.257483 0.280373 0.301227 0.347051 0.377546 0.355529 0.277958 0.138442 0.0196874 0.000185575 4.12226e-08 6.11912e-12 2.00191e-15 -7.55416e-15 3.82191e-15 0 0 0.0325649 0.0537069 0.0705181 0.0962934 0.106909 0.113955 0.12878 0.140618 0.153112 0.168132 0.184159 0.201317 0.219826 0.239305 0.260043 0.282042 0.303254 0.353095 0.374492 0.34707 0.261291 0.117958 0.0133154 8.98087e-05 2.11942e-08 3.70357e-12 4.6824e-16 -3.77006e-15 3.81636e-15 0 0 0.0188607 0.0423775 0.0656225 0.0924548 0.10303 0.118871 0.132711 0.147482 0.160077 0.174491 0.189565 0.205841 0.224036 0.24277 0.263778 0.28435 0.30759 0.360242 0.369852 0.334257 0.237107 0.091061 0.00732427 3.15466e-05 8.52689e-09 1.8066e-12 -3.61059e-15 2.23852e-17 3.75611e-15 0 0 0.0121311 0.0351623 0.0589867 0.0825969 0.100456 0.118145 0.134728 0.150675 0.165445 0.18066 0.195809 0.211508 0.229354 0.247296 0.268562 0.287102 0.315705 0.365457 0.36267 0.314835 0.203968 0.0606498 0.00311318 7.8937e-06 2.65367e-09 7.03448e-13 2.51194e-16 -3.82958e-15 -4.21807e-19 0 0 0.0123156 0.0334392 0.0582382 0.079233 0.0994717 0.117719 0.136264 0.152248 0.16854 0.185613 0.201008 0.217634 0.234682 0.252611 0.273291 0.290409 0.329326 0.365606 0.350572 0.286724 0.16077 0.0330065 0.000973042 1.41421e-06 6.25489e-10 2.14961e-13 -2.14661e-14 2.15185e-14 -3.83006e-15 0 0 0.0139501 0.0341935 0.0579625 0.0785781 0.0992344 0.118931 0.136777 0.153213 0.171219 0.188527 0.204961 0.222516 0.238653 0.258443 0.276349 0.295845 0.344597 0.359111 0.330861 0.247175 0.109082 0.0138646 0.000211869 1.9842e-07 1.12653e-10 2.73102e-14 -3.29738e-19 -4.55536e-22 2.15184e-14 0 0 0.0150988 0.0343425 0.0564079 0.0776242 0.099389 0.119059 0.136696 0.154566 0.172893 0.189943 0.208177 0.224831 0.242423 0.262587 0.277771 0.307887 0.351311 0.34633 0.299603 0.193125 0.0580152 0.0041014 2.99616e-05 2.52879e-08 1.68674e-11 -1.28235e-14 -9.39785e-18 9.11076e-18 2.14934e-14 0 0 0.0156763 0.0342666 0.055173 0.0764647 0.0981077 0.118029 0.136691 0.15506 0.172773 0.191192 0.209007 0.226042 0.24649 0.263043 0.281346 0.327071 0.345536 0.323822 0.252885 0.125536 0.0225231 0.000791614 2.60844e-06 2.78303e-09 2.24259e-12 5.24879e-15 -2.15273e-14 1.34388e-17 1.76292e-14 0 0 0.0161003 0.034072 0.0537415 0.0744821 0.0957795 0.116175 0.135339 0.153807 0.172569 0.190955 0.208363 0.228519 0.247088 0.262465 0.295831 0.333754 0.329053 0.285993 0.186731 0.0599891 0.00581788 9.18052e-05 1.63246e-07 2.23792e-10 2.38997e-13 2.41046e-16 7.68927e-15 -2.91731e-14 2.53137e-14 0 0 0.01639 0.0340465 0.0527032 0.0722371 0.0925255 0.11276 0.132474 0.15204 0.170906 0.189047 0.209286 0.229129 0.244799 0.269843 0.314091 0.323201 0.298975 0.227037 0.10561 0.0194016 0.000895146 5.67913e-06 1.02377e-08 1.48913e-11 1.88399e-14 9.76427e-16 1.73054e-16 -1.24658e-16 -1.86665e-14 0 0 0.0164962 0.0339073 0.0518405 0.0704156 0.08969 0.109477 0.12942 0.148937 0.168395 0.189199 0.209343 0.226094 0.248609 0.291103 0.310509 0.298174 0.247286 0.144179 0.0399147 0.0037812 7.30987e-05 2.12571e-07 5.16807e-10 9.77289e-13 1.21145e-15 2.387e-17 -6.07738e-14 6.07909e-14 -2.15125e-14 0 0 0.016524 0.0337082 0.0512308 0.0692601 0.0879317 0.107235 0.127017 0.147397 0.16834 0.188262 0.206291 0.229488 0.269241 0.292897 0.288691 0.252161 0.167952 0.0610187 0.00925107 0.000384935 2.70408e-06 8.22755e-09 1.9995e-11 4.45107e-14 4.99086e-17 2.43621e-14 -5.70865e-14 5.70852e-14 -2.4368e-14 0 0 0.0164873 0.0334867 0.0508254 0.0686963 0.0872625 0.106638 0.126759 0.14712 0.166711 0.186377 0.212105 0.249554 0.272742 0.273067 0.245605 0.176338 0.0762193 0.0156668 0.00109367 1.69031e-05 6.55262e-08 2.5042e-10 7.69323e-13 1.51513e-15 1.82642e-18 -9.01917e-19 2.53454e-14 -2.53454e-14 -5.75977e-18 0 0 0.0165325 0.033535 0.0509534 0.0689528 0.0875944 0.106845 0.126342 0.146161 0.168191 0.197531 0.230606 0.250908 0.252698 0.230322 0.171575 0.0819214 0.02039 0.00200919 5.44455e-05 3.20385e-07 1.69334e-09 6.46472e-12 2.61869e-14 2.56242e-14 -1.32441e-18 -5.06889e-14 5.06888e-14 -5.06888e-14 5.06921e-14 0 0 0.0167315 0.0338555 0.0514428 0.0695007 0.0880621 0.107516 0.128903 0.154435 0.184441 0.210202 0.227372 0.228097 0.207889 0.155927 0.0776558 0.0215862 0.0026351 0.000103187 9.35324e-07 6.11951e-09 3.10239e-11 1.58419e-13 2.62198e-14 -2.53471e-14 5.03605e-20 -9.762e-19 2.53454e-14 -2.53454e-14 -5.75991e-18 0 0 0.0169928 0.0346189 0.0530881 0.0725993 0.0937962 0.117612 0.142907 0.16692 0.187584 0.200569 0.199196 0.178897 0.131324 0.0650817 0.0189763 0.00258507 0.00012583 1.58757e-06 1.28474e-08 8.93549e-11 5.50157e-13 5.20438e-14 -2.52322e-14 6.86271e-18 -1.28265e-20 2.53436e-14 -6.9204e-14 6.92039e-14 -2.53503e-14 0 0 0.0191828 0.0392913 0.0601786 0.0816677 0.103374 0.124548 0.144853 0.161578 0.169542 0.165306 0.143508 0.0999301 0.047383 0.0137042 0.00190471 0.000101811 1.58035e-06 1.63503e-08 1.51534e-10 1.24219e-12 5.14645e-14 -2.20796e-16 2.05054e-17 3.17152e-18 3.13082e-18 2.53436e-14 -6.9204e-14 4.38546e-14 -9.11996e-18 0 0 0.0209653 0.0417989 0.0622762 0.0823768 0.101516 0.118003 0.129819 0.133297 0.125725 0.102728 0.0656553 0.0289244 0.00775708 0.00101389 5.31629e-05 9.21715e-07 1.27216e-08 1.50797e-10 1.64678e-12 -3.06803e-14 4.37129e-14 -3.96721e-16 2.54027e-17 -1.67537e-18 3.14365e-18 -9.762e-19 2.53454e-14 -5.06948e-14 2.53354e-14 0 0 0.0202393 0.0394944 0.0573013 0.0730433 0.0853977 0.0924668 0.0919144 0.0814999 0.060751 0.0346014 0.0136151 0.0031244 0.000354892 1.638e-05 3.11527e-07 6.0027e-09 8.79232e-11 1.23234e-12 5.62725e-14 -1.59687e-16 1.27976e-17 2.53581e-14 -5.06958e-14 5.06958e-14 -1.35462e-20 -5.06889e-14 5.06877e-14 -2.53413e-14 2.53441e-14 0 0 0.0162164 0.0303664 0.041786 0.0495224 0.0522544 0.0491018 0.0399506 0.0264676 0.0130284 0.00417205 0.000752394 6.78874e-05 2.58937e-06 6.26626e-08 1.64455e-09 3.01465e-11 5.87705e-13 -3.48438e-14 4.29471e-14 -1.38194e-17 3.13343e-17 -2.21512e-17 3.9923e-16 -3.84928e-16 3.4023e-18 1.37482e-18 2.53419e-14 -2.53413e-14 2.5344e-14 0 0 0.00828977 0.0146054 0.0183089 0.0190695 0.0169199 0.0123506 0.00683736 0.00258721 0.000604635 8.02121e-05 5.2726e-06 1.97455e-07 7.77476e-09 2.39195e-10 6.199e-12 1.57327e-13 1.19317e-15 5.4616e-16 -3.70104e-16 2.53581e-14 -5.07023e-14 2.53429e-14 3.7146e-16 -3.60037e-16 1.75486e-18 2.53476e-14 -2.53492e-14 -2.5347e-14 5.06981e-14 0 0 0.00175016 0.00286987 0.00306988 0.00243796 0.00140567 0.000564335 0.000150608 2.46285e-05 2.29301e-06 1.44016e-07 9.26677e-09 4.7995e-10 1.85875e-11 7.20233e-13 2.52469e-14 2.59761e-14 -2.5232e-14 -1.96103e-17 2.45076e-17 -2.90934e-18 3.73472e-16 -3.95593e-16 5.22593e-19 2.29763e-17 6.27279e-18 -3.0911e-17 4.08866e-16 -3.89178e-16 -4.3868e-14 0 0 3.74472e-05 4.92508e-05 3.60421e-05 1.68904e-05 5.17822e-06 1.04244e-06 1.52333e-07 2.01543e-08 2.36684e-09 1.96218e-10 1.31051e-11 8.49983e-13 4.21164e-14 9.62445e-16 2.5624e-14 -2.53442e-14 -9.74441e-18 7.14826e-18 -2.20051e-18 3.9439e-21 3.84928e-16 -4.09928e-16 2.69332e-17 -1.93795e-18 7.88343e-18 -3.50785e-17 -4.34455e-14 6.88128e-14 -6.92129e-14 0 0 8.75907e-09 1.12245e-08 8.27959e-09 4.26274e-09 1.59858e-09 4.30205e-10 8.30492e-11 1.28314e-11 1.8017e-12 2.04193e-13 1.6421e-14 8.8681e-15 -5.06475e-14 5.06936e-14 -1.42511e-18 -5.06889e-14 5.06888e-14 -5.0692e-14 5.06921e-14 1.35371e-20 -5.06924e-14 5.06906e-14 -5.06861e-14 5.06878e-14 -9.74897e-19 -2.44938e-18 -1.38417e-13 1.38415e-13 7.2553e-18 0 0 8.42936e-13 1.26081e-12 1.15132e-12 7.47114e-13 3.56431e-13 1.32585e-13 1.22193e-14 2.7909e-14 -2.94003e-15 2.32598e-16 9.44709e-16 5.76319e-15 -2.4366e-14 1.04788e-18 1.06691e-34 -9.762e-19 2.53454e-14 -2.53454e-14 9.762e-19 -2.42069e-24 1.37482e-18 2.53414e-14 -5.07108e-14 5.07099e-14 6.06484e-19 -6.92364e-14 7.92992e-16 -7.93107e-16 6.92395e-14 0 0 8.44503e-17 1.19669e-15 -7.12663e-15 3.74367e-15 1.47255e-16 -2.14661e-14 3.17775e-19 -9.39772e-18 2.15279e-14 -3.16161e-17 -5.56679e-15 -4.96247e-14 5.90475e-14 -2.53435e-14 -9.09384e-34 2.53436e-14 -6.9204e-14 6.92039e-14 -2.53436e-14 -1.14406e-18 2.5347e-14 -2.53492e-14 3.59466e-16 -4.42189e-14 -9.80362e-18 7.50355e-16 4.76665e-17 -4.77824e-17 -7.2095e-16 0 0 -2.92886e-16 -4.98538e-15 -3.76336e-15 7.00519e-17 3.83043e-15 -2.15185e-14 -3.94786e-22 -9.03643e-18 1.40139e-17 2.15123e-14 -5.57842e-15 -4.96444e-14 5.90487e-14 -2.53435e-14 -8.6983e-34 2.53436e-14 -6.9204e-14 4.38546e-14 5.82666e-18 2.53453e-14 -2.53452e-14 -2.53538e-14 5.10799e-14 -6.95918e-14 -6.98601e-18 7.50239e-16 4.77827e-17 -4.75855e-17 -7.21147e-16 0 0 -1.66717e-10 -8.7836e-15 3.7665e-15 -3.70858e-15 4.21794e-19 3.82991e-15 -2.15184e-14 2.14934e-14 -2.53482e-14 2.53724e-14 -2.43702e-14 2.72171e-14 -2.4374e-14 1.08474e-17 -1.2218e-37 -1.08473e-17 2.53553e-14 -5.07129e-14 2.53684e-14 2.53448e-14 -2.53449e-14 -5.62239e-18 -4.38765e-14 6.92217e-14 1.43525e-18 -6.92336e-14 8.16515e-16 -8.16317e-16 6.92364e-14 0 0 0 0 0 0 0 0 0 0 0 0 0 0 0 0 0 0 0 0 0 0 0 0 0 0 0 0 0 0 0 0
				</DataArray>
				<DataArray Name="VitesseY" type="Float32" format="ascii">
 0 0 0 0 0 0 0 0 0 0 0 0 0 0 0 0 0 0 0 0 0 0 0 0 0 0 0 0 0 0 0 -0.00487553 0.0415217 0.0414568 0.0325595 0.0188561 0.0121284 0.0123148 0.0139499 0.0150993 0.0156771 0.016101 0.0163903 0.0164965 0.0165243 0.0164877 0.016533 0.0167318 0.0169928 0.0191827 0.0209647 0.0202385 0.0162153 0.00828882 0.00174987 3.7435e-05 8.75503e-09 8.4256e-13 8.4339e-17 -2.56228e-18 -2.66437e-18 0 -0.0178658 0.0560645 0.0691584 0.0537053 0.0423737 0.0351588 0.0334368 0.0341919 0.0343423 0.0342674 0.0340729 0.034047 0.0339077 0.0337088 0.0334873 0.0335356 0.0338557 0.0346188 0.0392908 0.0417977 0.0394927 0.0303642 0.0146038 0.00286941 4.92354e-05 1.12197e-08 1.26026e-12 1.19908e-15 6.25491e-17 -3.6696e-15 0 -0.0261785 0.0393722 0.0738882 0.0705215 0.0656233 0.0589858 0.0582358 0.0579594 0.0564055 0.0551723 0.053742 0.0527038 0.0518412 0.0512315 0.0508261 0.050954 0.0514429 0.0530879 0.0601778 0.0622745 0.0572989 0.0417831 0.0183069 0.00306942 3.60315e-05 8.2764e-09 1.15087e-12 -7.1291e-15 -3.74214e-15 3.76856e-15 0 0.011535 0.0525268 0.0870001 0.0962957 0.0924544 0.0825944 0.0792294 0.0785737 0.0776202 0.0764625 0.0744821 0.0722385 0.0704169 0.0692611 0.068697 0.0689532 0.0695007 0.072599 0.0816663 0.0823746 0.0730403 0.0495191 0.0190677 0.00243764 1.68859e-05 4.26131e-09 7.46793e-13 3.74354e-15 7.01807e-17 -3.70832e-15 0 0.0443369 0.0733835 0.10233 0.106915 0.103033 0.100456 0.0994685 0.0992294 0.0993841 0.0981045 0.0957793 0.0925276 0.0896921 0.087933 0.0872633 0.0875948 0.0880621 0.0937958 0.103372 0.101513 0.0853944 0.0522515 0.0169187 0.00140552 5.17705e-06 1.59812e-09 3.56385e-13 1.47255e-16 3.83043e-15 4.21767e-19 0 0.0584158 0.0778562 0.100619 0.113963 0.118874 0.118145 0.117715 0.118926 0.119054 0.118025 0.116174 0.112762 0.109479 0.107237 0.106639 0.106846 0.107516 0.117611 0.124547 0.118 0.0924641 0.0490998 0.0123501 0.000564295 1.04226e-06 4.30103e-10 1.325e-13 -2.14661e-14 -2.15185e-14 3.82991e-15 0 0.0892075 0.104027 0.119917 0.128787 0.132714 0.134727 0.136261 0.136773 0.136692 0.136688 0.135338 0.132475 0.129422 0.127019 0.126761 0.126343 0.128903 0.142906 0.144852 0.129817 0.0919128 0.03995 0.00683731 0.000150604 1.52318e-07 8.30347e-11 1.22194e-14 3.17751e-19 -4.00999e-22 -2.15184e-14 0 0.110963 0.121229 0.131625 0.140624 0.147484 0.150674 0.152245 0.15321 0.154563 0.155058 0.153806 0.15204 0.148938 0.147398 0.147121 0.146161 0.154435 0.16692 0.161577 0.133296 0.0815 0.026468 0.0025873 2.46292e-05 2.01536e-08 1.283e-11 2.79143e-14 -9.39771e-18 -9.03643e-18 2.14934e-14 0 0.132341 0.139606 0.1464 0.153116 0.160077 0.165444 0.168538 0.171216 0.172891 0.172771 0.172568 0.170906 0.168395 0.16834 0.166712 0.168192 0.184441 0.187584 0.169543 0.125726 0.0607525 0.013029 0.000604685 2.29322e-06 2.3669e-09 1.80171e-12 -2.95021e-15 2.15279e-14 1.40139e-17 -2.53482e-14 0 0.152912 0.157974 0.162653 0.168134 0.174491 0.180658 0.18561 0.188525 0.189941 0.191191 0.190954 0.189047 0.189199 0.188263 0.186377 0.19753 0.210203 0.20057 0.165308 0.102731 0.0346032 0.00417242 8.0223e-05 1.44035e-07 1.96234e-10 2.04183e-13 2.37723e-16 -3.16161e-17 2.15123e-14 2.53724e-14 0 0.173366 0.176787 0.180037 0.184161 0.189565 0.195807 0.201005 0.204959 0.208175 0.209006 0.208362 0.209286 0.209344 0.206291 0.212105 0.230607 0.227374 0.199198 0.143511 0.0656583 0.0136161 0.000752494 5.27363e-06 9.26823e-09 1.31069e-11 1.64208e-14 9.44709e-16 -5.56679e-15 -5.57842e-15 -2.43702e-14 0 0.193423 0.195603 0.198047 0.201319 0.205842 0.211507 0.217631 0.222514 0.224829 0.22604 0.228518 0.229128 0.226094 0.229488 0.249555 0.25091 0.228099 0.178901 0.0999339 0.0289262 0.00312473 6.78993e-05 1.97498e-07 4.80045e-10 8.50033e-13 8.8681e-15 5.76319e-15 -4.96247e-14 -4.96444e-14 2.72171e-14 0 0.213704 0.214832 0.216843 0.219829 0.224037 0.229353 0.234679 0.23865 0.242421 0.246489 0.247087 0.244798 0.248608 0.269241 0.272743 0.2527 0.207893 0.131327 0.0473852 0.00775769 0.000354941 2.58991e-06 7.77631e-09 1.85913e-11 4.21272e-14 -5.06475e-14 -2.4366e-14 5.90475e-14 5.90487e-14 -2.4374e-14 0 0.234926 0.23521 0.236808 0.239308 0.242772 0.247295 0.252608 0.258439 0.262584 0.263041 0.262464 0.269843 0.291103 0.292897 0.273069 0.230324 0.15593 0.0650837 0.0137049 0.00101398 1.63826e-05 6.26745e-08 2.39244e-10 7.20372e-13 9.62511e-16 5.06936e-14 1.04793e-18 -2.53435e-14 -2.53435e-14 1.08475e-17 0 0.25625 0.255959 0.257487 0.260046 0.263779 0.268562 0.273289 0.276346 0.277768 0.281343 0.29583 0.31409 0.310509 0.288691 0.245606 0.171576 0.0776569 0.0189769 0.00190482 5.31687e-05 3.11574e-07 1.64483e-09 6.20013e-12 2.52419e-14 2.56238e-14 -1.42516e-18 4.98994e-23 6.12167e-23 -1.50994e-23 6.98036e-23 0 0.280095 0.279327 0.280377 0.282045 0.284351 0.287102 0.290407 0.295843 0.307885 0.327069 0.333752 0.3232 0.298173 0.252161 0.176338 0.0819216 0.0215863 0.00258512 0.000101816 9.21806e-07 6.00342e-09 3.01511e-11 1.57357e-13 2.59761e-14 -2.53442e-14 -5.06889e-14 -9.76211e-19 2.53436e-14 2.53436e-14 -1.08472e-17 0 0.301657 0.300543 0.30123 0.303256 0.307591 0.315704 0.329325 0.344595 0.351309 0.345533 0.32905 0.298973 0.247283 0.16795 0.0762178 0.0203896 0.00263507 0.00012583 1.58039e-06 1.27223e-08 8.79317e-11 5.87561e-13 1.21432e-15 -2.5232e-14 -9.74445e-18 5.06888e-14 2.53454e-14 -6.9204e-14 -6.9204e-14 2.53553e-14 0 0.343659 0.343488 0.34705 0.353094 0.360241 0.365456 0.365604 0.359108 0.346326 0.323818 0.285989 0.227033 0.144175 0.0610164 0.0156661 0.00200908 0.000103182 1.58753e-06 1.63503e-08 1.50802e-10 1.23245e-12 -3.48437e-14 5.46029e-16 -1.96102e-17 7.14826e-18 -5.0692e-14 -2.53454e-14 6.92039e-14 4.38546e-14 -5.07129e-14 0 0.382076 0.379858 0.377547 0.374493 0.369852 0.362669 0.350571 0.330859 0.299599 0.25288 0.186725 0.105606 0.0399125 0.00925037 0.00109357 5.44396e-05 9.35233e-07 1.28466e-08 1.5153e-10 1.64678e-12 5.62724e-14 4.29471e-14 -3.70104e-16 2.45077e-17 -2.20048e-18 5.06921e-14 9.7625e-19 -2.53436e-14 5.82665e-18 2.53684e-14 0 0.364326 0.361099 0.355532 0.347072 0.334258 0.314835 0.286723 0.247172 0.193121 0.125531 0.0599856 0.0194 0.00378079 0.000384882 1.69004e-05 3.20337e-07 6.11878e-09 8.93458e-11 1.24208e-12 -3.06802e-14 -1.59687e-16 -1.38194e-17 2.53581e-14 -2.90924e-18 3.96371e-21 1.34897e-20 4.74784e-23 -1.14407e-18 2.53453e-14 2.53448e-14 0 0.292779 0.288356 0.277963 0.261296 0.23711 0.203969 0.160769 0.10908 0.0580127 0.0225216 0.00581729 0.000895021 7.30857e-05 2.70352e-06 6.55139e-08 1.69306e-09 3.10197e-11 5.50342e-13 5.14641e-14 4.37129e-14 1.27975e-17 3.13342e-17 -5.07023e-14 3.73472e-16 3.84928e-16 -5.06924e-14 1.37483e-18 2.5347e-14 -2.53452e-14 -2.53449e-14 0 0.156278 0.151521 0.138449 0.117963 0.0910644 0.0606513 0.0330066 0.0138643 0.00410118 0.000791538 9.1792e-05 5.67802e-06 2.12526e-07 8.22591e-09 2.50369e-10 6.46347e-12 1.58346e-13 5.20229e-14 -2.20665e-16 -3.96721e-16 2.53581e-14 -2.21512e-17 2.53429e-14 -3.95593e-16 -4.09928e-16 5.06906e-14 2.53414e-14 -2.53492e-14 -2.53538e-14 -5.62236e-18 0 0.0264518 0.0245947 0.0196899 0.0133169 0.00732501 0.00311342 0.000973088 0.000211871 2.99604e-05 2.60819e-06 1.63224e-07 1.0236e-08 5.16704e-10 1.99908e-11 7.69194e-13 2.61916e-14 2.62198e-14 -2.52322e-14 2.05054e-17 2.54026e-17 -5.06958e-14 3.9923e-16 3.7146e-16 5.22704e-19 2.69332e-17 -5.06861e-14 -5.07108e-14 3.59466e-16 5.10799e-14 -4.38765e-14 0 0.000327174 0.00028426 0.000185628 8.98329e-05 3.15542e-05 7.8953e-06 1.41442e-06 1.98436e-07 2.52884e-08 2.78293e-09 2.23772e-10 1.48894e-11 9.77217e-13 4.45001e-14 1.51546e-15 2.56244e-14 -2.53471e-14 6.86273e-18 3.17155e-18 -1.67536e-18 5.06958e-14 -3.84928e-16 -3.60037e-16 2.29763e-17 -1.93789e-18 5.06878e-14 5.07099e-14 -4.42189e-14 -6.95918e-14 6.92217e-14 0 7.15472e-08 6.2212e-08 4.12382e-08 2.12015e-08 8.52949e-09 2.65437e-09 6.25623e-10 1.1267e-10 1.68688e-11 2.24261e-12 2.39017e-13 1.88401e-14 1.21145e-15 4.99086e-17 1.82649e-18 -1.32446e-18 5.04104e-20 -1.27835e-20 3.13087e-18 3.1437e-18 -1.35919e-20 3.40236e-18 1.75483e-18 6.2728e-18 7.88344e-18 -9.74875e-19 6.06439e-19 -9.80367e-18 -6.986e-18 1.43525e-18 0 9.06557e-12 8.22279e-12 6.12148e-12 3.70493e-12 1.80718e-12 7.03663e-13 2.15046e-13 2.73095e-14 -1.28188e-14 5.24873e-15 2.35922e-16 9.76428e-16 2.387e-17 2.43621e-14 -9.01932e-19 -5.06889e-14 -9.76211e-19 2.53436e-14 2.53436e-14 -9.76211e-19 -5.06889e-14 1.3748e-18 2.53476e-14 -3.09109e-17 -3.50785e-17 -2.44941e-18 -6.92364e-14 7.50355e-16 7.50239e-16 -6.92336e-14 0 3.27669e-15 3.19224e-15 2.00459e-15 4.70751e-16 -3.61072e-15 2.51194e-16 -2.14661e-14 -3.29767e-19 -9.39783e-18 -2.15273e-14 7.68927e-15 1.73054e-16 -6.07738e-14 -5.70865e-14 2.53454e-14 5.06888e-14 2.53454e-14 -6.9204e-14 -6.9204e-14 2.53454e-14 5.06877e-14 2.53419e-14 -2.53492e-14 4.08866e-16 -4.34455e-14 -1.38417e-13 7.92992e-16 4.76665e-17 4.77827e-17 8.16515e-16 0 3.20127e-15 2.90839e-15 -2.46337e-15 -3.74834e-15 2.27819e-17 -3.82958e-15 2.15185e-14 -4.50499e-22 9.11071e-18 1.34387e-17 -2.91731e-14 -1.24658e-16 6.07909e-14 5.70852e-14 -2.53454e-14 -5.06888e-14 -2.53454e-14 6.92039e-14 4.38546e-14 -5.06948e-14 -2.53413e-14 -2.53413e-14 -2.5347e-14 -3.89178e-16 6.88128e-14 1.38415e-13 -7.93107e-16 -4.77823e-17 -4.75854e-17 -8.16317e-16 0 3.3343e-10 1.66714e-10 -1.24088e-15 3.77574e-15 3.75585e-15 -4.21796e-19 -3.83006e-15 2.15184e-14 2.14934e-14 1.76292e-14 2.53137e-14 -1.86665e-14 -2.15125e-14 -2.4368e-14 -5.75976e-18 5.06921e-14 -5.75992e-18 -2.53503e-14 -9.12002e-18 2.53354e-14 2.53441e-14 2.5344e-14 5.06981e-14 -4.3868e-14 -6.92129e-14 7.25528e-18 6.92395e-14 -7.20949e-16 -7.21147e-16 6.92364e-14 0 2.15465e-05 0 0 0 0 0 0 0 0 0 0 0 0 0 0 0 0 0 0 0 0 0 0 0 0 0 0 0 0 0 0
				</DataArray>
			</PointData>
			<CellData Scalars="Density">
				<DataArray Name="Density" type="Float32" format="ascii">