<?xml version="1.0"?>
<VTKFile type="PolyData">
	<PolyData>
		<Piece NumberOfPoints="961" NumberOfPolys="900">
			<Points>
				<DataArray type="Float32" NumberOfComponents="3" format="ascii">
 0 0 0 0.04 0 0 0.08 0 0 0.12 0 0 0.16 0 0 0.2 0 0 0.24 0 0 0.28 0 0 0.32 0 0 0.36 0 0 0.4 0 0 0.44 0 0 0.48 0 0 0.52 0 0 0.56 0 0 0.6 0 0 0.64 0 0 0.68 0 0 0.72 0 0 0.76 0 0 0.8 0 0 0.84 0 0 0.88 0 0 0.92 0 0 0.96 0 0 1 0 0 1.04 0 0 1.08 0 0 1.12 0 0 1.16 0 0 1.2 0 0 0 0.04 0 0.04 0.04 0 0.08 0.04 0 0.12 0.04 0 0.16 0.04 0 0.2 0.04 0 0.24 0.04 0 0.28 0.04 0 0.32 0.04 0 0.36 0.04 0 0.4 0.04 0 0.44 0.04 0 0.48 0.04 0 0.52 0.04 0 0.56 0.04 0 0.6 0.04 0 0.64 0.04 0 0.68 0.04 0 0.72 0.04 0 0.76 0.04 0 0.8 0.04 0 0.84 0.04 0 0.88 0.04 0 0.92 0.04 0 0.96 0.04 0 1 0.04 0 1.04 0.04 0 1.08 0.04 0 1.12 0.04 0 1.16 0.04 0 1.2 0.04 0 0 0.08 0 0.04 0.08 0 0.08 0.08 0 0.12 0.08 0 0.16 0.08 0 0.2 0.08 0 0.24 0.08 0 0.28 0.08 0 0.32 0.08 0 0.36 0.08 0 0.4 0.08 0 0.44 0.08 0 0.48 0.08 0 0.52 0.08 0 0.56 0.08 0 0.6 0.08 0 0.64 0.08 0 0.68 0.08 0 0.72 0.08 0 0.76 0.08 0 0.8 0.08 0 0.84 0.08 0 0.88 0.08 0 0.92 0.08 0 0.96 0.08 0 1 0.08 0 1.04 0.08 0 1.08 0.08 0 1.12 0.08 0 1.16 0.08 0 1.2 0.08 0 0 0.12 0 0.04 0.12 0 0.08 0.12 0 0.12 0.12 0 0.16 0.12 0 0.2 0.12 0 0.24 0.12 0 0.28 0.12 0 0.32 0.12 0 0.36 0.12 0 0.4 0.12 0 0.44 0.12 0 0.48 0.12 0 0.52 0.12 0 0.56 0.12 0 0.6 0.12 0 0.64 0.12 0 0.68 0.12 0 0.72 0.12 0 0.76 0.12 0 0.8 0.12 0 0.84 0.12 0 0.88 0.12 0 0.92 0.12 0 0.96 0.12 0 1 0.12 0 1.04 0.12 0 1.08 0.12 0 1.12 0.12 0 1.16 0.12 0 1.2 0.12 0 0 0.16 0 0.04 0.16 0 0.08 0.16 0 0.12 0.16 0 0.16 0.16 0 0.2 0.16 0 0.24 0.16 0 0.28 0.16 0 0.32 0.16 0 0.36 0.16 0 0.4 0.16 0 0.44 0.16 0 0.48 0.16 0 0.52 0.16 0 0.56 0.16 0 0.6 0.16 0 0.64 0.16 0 0.68 0.16 0 0.72 0.16 0 0.76 0.16 0 0.8 0.16 0 0.84 0.16 0 0.88 0.16 0 0.92 0.16 0 0.96 0.16 0 1 0.16 0 1.04 0.16 0 1.08 0.16 0 1.12 0.16 0 1.16 0.16 0 1.2 0.16 0 0 0.2 0 0.04 0.2 0 0.08 0.2 0 0.12 0.2 0 0.16 0.2 0 0.2 0.2 0 0.24 0.2 0 0.28 0.2 0 0.32 0.2 0 0.36 0.2 0 0.4 0.2 0 0.44 0.2 0 0.48 0.2 0 0.52 0.2 0 0.56 0.2 0 0.6 0.2 0 0.64 0.2 0 0.68 0.2 0 0.72 0.2 0 0.76 0.2 0 0.8 0.2 0 0.84 0.2 0 0.88 0.2 0 0.92 0.2 0 0.96 0.2 0 1 0.2 0 1.04 0.2 0 1.08 0.2 0 1.12 0.2 0 1.16 0.2 0 1.2 0.2 0 0 0.24 0 0.04 0.24 0 0.08 0.24 0 0.12 0.24 0 0.16 0.24 0 0.2 0.24 0 0.24 0.24 0 0.28 0.24 0 0.32 0.24 0 0.36 0.24 0 0.4 0.24 0 0.44 0.24 0 0.48 0.24 0 0.52 0.24 0 0.56 0.24 0 0.6 0.24 0 0.64 0.24 0 0.68 0.24 0 0.72 0.24 0 0.76 0.24 0 0.8 0.24 0 0.84 0.24 0 0.88 0.24 0 0.92 0.24 0 0.96 0.24 0 1 0.24 0 1.04 0.24 0 1.08 0.24 0 1.12 0.24 0 1.16 0.24 0 1.2 0.24 0 0 0.28 0 0.04 0.28 0 0.08 0.28 0 0.12 0.28 0 0.16 0.28 0 0.2 0.28 0 0.24 0.28 0 0.28 0.28 0 0.32 0.28 0 0.36 0.28 0 0.4 0.28 0 0.44 0.28 0 0.48 0.28 0 0.52 0.28 0 0.56 0.28 0 0.6 0.28 0 0.64 0.28 0 0.68 0.28 0 0.72 0.28 0 0.76 0.28 0 0.8 0.28 0 0.84 0.28 0 0.88 0.28 0 0.92 0.28 0 0.96 0.28 0 1 0.28 0 1.04 0.28 0 1.08 0.28 0 1.12 0.28 0 1.16 0.28 0 1.2 0.28 0 0 0.32 0 0.04 0.32 0 0.08 0.32 0 0.12 0.32 0 0.16 0.32 0 0.2 0.32 0 0.24 0.32 0 0.28 0.32 0 0.32 0.32 0 0.36 0.32 0 0.4 0.32 0 0.44 0.32 0 0.48 0.32 0 0.52 0.32 0 0.56 0.32 0 0.6 0.32 0 0.64 0.32 0 0.68 0.32 0 0.72 0.32 0 0.76 0.32 0 0.8 0.32 0 0.84 0.32 0 0.88 0.32 0 0.92 0.32 0 0.96 0.32 0 1 0.32 0 1.04 0.32 0 1.08 0.32 0 1.12 0.32 0 1.16 0.32 0 1.2 0.32 0 0 0.36 0 0.04 0.36 0 0.08 0.36 0 0.12 0.36 0 0.16 0.36 0 0.2 0.36 0 0.24 0.36 0 0.28 0.36 0 0.32 0.36 0 0.36 0.36 0 0.4 0.36 0 0.44 0.36 0 0.48 0.36 0 0.52 0.36 0 0.56 0.36 0 0.6 0.36 0 0.64 0.36 0 0.68 0.36 0 0.72 0.36 0 0.76 0.36 0 0.8 0.36 0 0.84 0.36 0 0.88 0.36 0 0.92 0.36 0 0.96 0.36 0 1 0.36 0 1.04 0.36 0 1.08 0.36 0 1.12 0.36 0 1.16 0.36 0 1.2 0.36 0 0 0.4 0 0.04 0.4 0 0.08 0.4 0 0.12 0.4 0 0.16 0.4 0 0.2 0.4 0 0.24 0.4 0 0.28 0.4 0 0.32 0.4 0 0.36 0.4 0 0.4 0.4 0 0.44 0.4 0 0.48 0.4 0 0.52 0.4 0 0.56 0.4 0 0.6 0.4 0 0.64 0.4 0 0.68 0.4 0 0.72 0.4 0 0.76 0.4 0 0.8 0.4 0 0.84 0.4 0 0.88 0.4 0 0.92 0.4 0 0.96 0.4 0 1 0.4 0 1.04 0.4 0 1.08 0.4 0 1.12 0.4 0 1.16 0.4 0 1.2 0.4 0 0 0.44 0 0.04 0.44 0 0.08 0.44 0 0.12 0.44 0 0.16 0.44 0 0.2 0.44 0 0.24 0.44 0 0.28 0.44 0 0.32 0.44 0 0.36 0.44 0 0.4 0.44 0 0.44 0.44 0 0.48 0.44 0 0.52 0.44 0 0.56 0.44 0 0.6 0.44 0 0.64 0.44 0 0.68 0.44 0 0.72 0.44 0 0.76 0.44 0 0.8 0.44 0 0.84 0.44 0 0.88 0.44 0 0.92 0.44 0 0.96 0.44 0 1 0.44 0 1.04 0.44 0 1.08 0.44 0 1.12 0.44 0 1.16 0.44 0 1.2 0.44 0 0 0.48 0 0.04 0.48 0 0.08 0.48 0 0.12 0.48 0 0.16 0.48 0 0.2 0.48 0 0.24 0.48 0 0.28 0.48 0 0.32 0.48 0 0.36 0.48 0 0.4 0.48 0 0.44 0.48 0 0.48 0.48 0 0.52 0.48 0 0.56 0.48 0 0.6 0.48 0 0.64 0.48 0 0.68 0.48 0 0.72 0.48 0 0.76 0.48 0 0.8 0.48 0 0.84 0.48 0 0.88 0.48 0 0.92 0.48 0 0.96 0.48 0 1 0.48 0 1.04 0.48 0 1.08 0.48 0 1.12 0.48 0 1.16 0.48 0 1.2 0.48 0 0 0.52 0 0.04 0.52 0 0.08 0.52 0 0.12 0.52 0 0.16 0.52 0 0.2 0.52 0 0.24 0.52 0 0.28 0.52 0 0.32 0.52 0 0.36 0.52 0 0.4 0.52 0 0.44 0.52 0 0.48 0.52 0 0.52 0.52 0 0.56 0.52 0 0.6 0.52 0 0.64 0.52 0 0.68 0.52 0 0.72 0.52 0 0.76 0.52 0 0.8 0.52 0 0.84 0.52 0 0.88 0.52 0 0.92 0.52 0 0.96 0.52 0 1 0.52 0 1.04 0.52 0 1.08 0.52 0 1.12 0.52 0 1.16 0.52 0 1.2 0.52 0 0 0.56 0 0.04 0.56 0 0.08 0.56 0 0.12 0.56 0 0.16 0.56 0 0.2 0.56 0 0.24 0.56 0 0.28 0.56 0 0.32 0.56 0 0.36 0.56 0 0.4 0.56 0 0.44 0.56 0 0.48 0.56 0 0.52 0.56 0 0.56 0.56 0 0.6 0.56 0 0.64 0.56 0 0.68 0.56 0 0.72 0.56 0 0.76 0.56 0 0.8 0.56 0 0.84 0.56 0 0.88 0.56 0 0.92 0.56 0 0.96 0.56 0 1 0.56 0 1.04 0.56 0 1.08 0.56 0 1.12 0.56 0 1.16 0.56 0 1.2 0.56 0 0 0.6 0 0.04 0.6 0 0.08 0.6 0 0.12 0.6 0 0.16 0.6 0 0.2 0.6 0 0.24 0.6 0 0.28 0.6 0 0.32 0.6 0 0.36 0.6 0 0.4 0.6 0 0.44 0.6 0 0.48 0.6 0 0.52 0.6 0 0.56 0.6 0 0.6 0.6 0 0.64 0.6 0 0.68 0.6 0 0.72 0.6 0 0.76 0.6 0 0.8 0.6 0 0.84 0.6 0 0.88 0.6 0 0.92 0.6 0 0.96 0.6 0 1 0.6 0 1.04 0.6 0 1.08 0.6 0 1.12 0.6 0 1.16 0.6 0 1.2 0.6 0 0 0.64 0 0.04 0.64 0 0.08 0.64 0 0.12 0.64 0 0.16 0.64 0 0.2 0.64 0 0.24 0.64 0 0.28 0.64 0 0.32 0.64 0 0.36 0.64 0 0.4 0.64 0 0.44 0.64 0 0.48 0.64 0 0.52 0.64 0 0.56 0.64 0 0.6 0.64 0 0.64 0.64 0 0.68 0.64 0 0.72 0.64 0 0.76 0.64 0 0.8 0.64 0 0.84 0.64 0 0.88 0.64 0 0.92 0.64 0 0.96 0.64 0 1 0.64 0 1.04 0.64 0 1.08 0.64 0 1.12 0.64 0 1.16 0.64 0 1.2 0.64 0 0 0.68 0 0.04 0.68 0 0.08 0.68 0 0.12 0.68 0 0.16 0.68 0 0.2 0.68 0 0.24 0.68 0 0.28 0.68 0 0.32 0.68 0 0.36 0.68 0 0.4 0.68 0 0.44 0.68 0 0.48 0.68 0 0.52 0.68 0 0.56 0.68 0 0.6 0.68 0 0.64 0.68 0 0.68 0.68 0 0.72 0.68 0 0.76 0.68 0 0.8 0.68 0 0.84 0.68 0 0.88 0.68 0 0.92 0.68 0 0.96 0.68 0 1 0.68 0 1.04 0.68 0 1.08 0.68 0 1.12 0.68 0 1.16 0.68 0 1.2 0.68 0 0 0.72 0 0.04 0.72 0 0.08 0.72 0 0.12 0.72 0 0.16 0.72 0 0.2 0.72 0 0.24 0.72 0 0.28 0.72 0 0.32 0.72 0 0.36 0.72 0 0.4 0.72 0 0.44 0.72 0 0.48 0.72 0 0.52 0.72 0 0.56 0.72 0 0.6 0.72 0 0.64 0.72 0 0.68 0.72 0 0.72 0.72 0 0.76 0.72 0 0.8 0.72 0 0.84 0.72 0 0.88 0.72 0 0.92 0.72 0 0.96 0.72 0 1 0.72 0 1.04 0.72 0 1.08 0.72 0 1.12 0.72 0 1.16 0.72 0 1.2 0.72 0 0 0.76 0 0.04 0.76 0 0.08 0.76 0 0.12 0.76 0 0.16 0.76 0 0.2 0.76 0 0.24 0.76 0 0.28 0.76 0 0.32 0.76 0 0.36 0.76 0 0.4 0.76 0 0.44 0.76 0 0.48 0.76 0 0.52 0.76 0 0.56 0.76 0 0.6 0.76 0 0.64 0.76 0 0.68 0.76 0 0.72 0.76 0 0.76 0.76 0 0.8 0.76 0 0.84 0.76 0 0.88 0.76 0 0.92 0.76 0 0.96 0.76 0 1 0.76 0 1.04 0.76 0 1.08 0.76 0 1.12 0.76 0 1.16 0.76 0 1.2 0.76 0 0 0.8 0 0.04 0.8 0 0.08 0.8 0 0.12 0.8 0 0.16 0.8 0 0.2 0.8 0 0.24 0.8 0 0.28 0.8 0 0.32 0.8 0 0.36 0.8 0 0.4 0.8 0 0.44 0.8 0 0.48 0.8 0 0.52 0.8 0 0.56 0.8 0 0.6 0.8 0 0.64 0.8 0 0.68 0.8 0 0.72 0.8 0 0.76 0.8 0 0.8 0.8 0 0.84 0.8 0 0.88 0.8 0 0.92 0.8 0 0.96 0.8 0 1 0.8 0 1.04 0.8 0 1.08 0.8 0 1.12 0.8 0 1.16 0.8 0 1.2 0.8 0 0 0.84 0 0.04 0.84 0 0.08 0.84 0 0.12 0.84 0 0.16 0.84 0 0.2 0.84 0 0.24 0.84 0 0.28 0.84 0 0.32 0.84 0 0.36 0.84 0 0.4 0.84 0 0.44 0.84 0 0.48 0.84 0 0.52 0.84 0 0.56 0.84 0 0.6 0.84 0 0.64 0.84 0 0.68 0.84 0 0.72 0.84 0 0.76 0.84 0 0.8 0.84 0 0.84 0.84 0 0.88 0.84 0 0.92 0.84 0 0.96 0.84 0 1 0.84 0 1.04 0.84 0 1.08 0.84 0 1.12 0.84 0 1.16 0.84 0 1.2 0.84 0 0 0.88 0 0.04 0.88 0 0.08 0.88 0 0.12 0.88 0 0.16 0.88 0 0.2 0.88 0 0.24 0.88 0 0.28 0.88 0 0.32 0.88 0 0.36 0.88 0 0.4 0.88 0 0.44 0.88 0 0.48 0.88 0 0.52 0.88 0 0.56 0.88 0 0.6 0.88 0 0.64 0.88 0 0.68 0.88 0 0.72 0.88 0 0.76 0.88 0 0.8 0.88 0 0.84 0.88 0 0.88 0.88 0 0.92 0.88 0 0.96 0.88 0 1 0.88 0 1.04 0.88 0 1.08 0.88 0 1.12 0.88 0 1.16 0.88 0 1.2 0.88 0 0 0.92 0 0.04 0.92 0 0.08 0.92 0 0.12 0.92 0 0.16 0.92 0 0.2 0.92 0 0.24 0.92 0 0.28 0.92 0 0.32 0.92 0 0.36 0.92 0 0.4 0.92 0 0.44 0.92 0 0.48 0.92 0 0.52 0.92 0 0.56 0.92 0 0.6 0.92 0 0.64 0.92 0 0.68 0.92 0 0.72 0.92 0 0.76 0.92 0 0.8 0.92 0 0.84 0.92 0 0.88 0.92 0 0.92 0.92 0 0.96 0.92 0 1 0.92 0 1.04 0.92 0 1.08 0.92 0 1.12 0.92 0 1.16 0.92 0 1.2 0.92 0 0 0.96 0 0.04 0.96 0 0.08 0.96 0 0.12 0.96 0 0.16 0.96 0 0.2 0.96 0 0.24 0.96 0 0.28 0.96 0 0.32 0.96 0 0.36 0.96 0 0.4 0.96 0 0.44 0.96 0 0.48 0.96 0 0.52 0.96 0 0.56 0.96 0 0.6 0.96 0 0.64 0.96 0 0.68 0.96 0 0.72 0.96 0 0.76 0.96 0 0.8 0.96 0 0.84 0.96 0 0.88 0.96 0 0.92 0.96 0 0.96 0.96 0 1 0.96 0 1.04 0.96 0 1.08 0.96 0 1.12 0.96 0 1.16 0.96 0 1.2 0.96 0 0 1 0 0.04 1 0 0.08 1 0 0.12 1 0 0.16 1 0 0.2 1 0 0.24 1 0 0.28 1 0 0.32 1 0 0.36 1 0 0.4 1 0 0.44 1 0 0.48 1 0 0.52 1 0 0.56 1 0 0.6 1 0 0.64 1 0 0.68 1 0 0.72 1 0 0.76 1 0 0.8 1 0 0.84 1 0 0.88 1 0 0.92 1 0 0.96 1 0 1 1 0 1.04 1 0 1.08 1 0 1.12 1 0 1.16 1 0 1.2 1 0 0 1.04 0 0.04 1.04 0 0.08 1.04 0 0.12 1.04 0 0.16 1.04 0 0.2 1.04 0 0.24 1.04 0 0.28 1.04 0 0.32 1.04 0 0.36 1.04 0 0.4 1.04 0 0.44 1.04 0 0.48 1.04 0 0.52 1.04 0 0.56 1.04 0 0.6 1.04 0 0.64 1.04 0 0.68 1.04 0 0.72 1.04 0 0.76 1.04 0 0.8 1.04 0 0.84 1.04 0 0.88 1.04 0 0.92 1.04 0 0.96 1.04 0 1 1.04 0 1.04 1.04 0 1.08 1.04 0 1.12 1.04 0 1.16 1.04 0 1.2 1.04 0 0 1.08 0 0.04 1.08 0 0.08 1.08 0 0.12 1.08 0 0.16 1.08 0 0.2 1.08 0 0.24 1.08 0 0.28 1.08 0 0.32 1.08 0 0.36 1.08 0 0.4 1.08 0 0.44 1.08 0 0.48 1.08 0 0.52 1.08 0 0.56 1.08 0 0.6 1.08 0 0.64 1.08 0 0.68 1.08 0 0.72 1.08 0 0.76 1.08 0 0.8 1.08 0 0.84 1.08 0 0.88 1.08 0 0.92 1.08 0 0.96 1.08 0 1 1.08 0 1.04 1.08 0 1.08 1.08 0 1.12 1.08 0 1.16 1.08 0 1.2 1.08 0 0 1.12 0 
[...]
			<PointData Scalars="VitesseX">
				<DataArray Name="VitesseX" type="Float32" format="ascii">
 0 -0.0260256 -0.116465 -0.112233 -0.100986 -0.0384441 0.0435096 0.132064 0.21257 0.286253 0.351304 0.409695 0.462024 0.509286 0.552262 0.591933 0.629381 0.665714 0.701827 0.738116 0.774812 0.81237 0.85129 0.892121 0.935991 0.962764 0.856907 0.565719 0.14042 -0.149567 0 0 0.124346 0.102174 0.0801781 0.060679 0.0925436 0.143719 0.208322 0.270604 0.332434 0.38935 0.440771 0.487132 0.529351 0.568067 0.604242 0.63889 0.67293 0.707005 0.741461 0.776686 0.813144 0.851252 0.891473 0.934818 0.962687 0.859706 0.572897 0.149643 -0.142976 0 0 0.118721 0.195628 0.237172 0.243904 0.257309 0.268286 0.30554 0.338273 0.379261 0.419992 0.461374 0.500718 0.537823 0.5734 0.607958 0.64195 0.675753 0.709723 0.744146 0.779403 0.816008 0.854409 0.894994 0.938522 0.970409 0.875414 0.59921 0.18033 -0.121625 0 0 0.0964205 0.17992 0.226601 0.255971 0.286902 0.295302 0.332868 0.360461 0.397743 0.431792 0.466809 0.502115 0.537543 0.572587 0.607246 0.641671 0.676111 0.710778 0.74595 0.782052 0.819502 0.85866 0.899765 0.943404 0.980336 0.897202 0.636288 0.2243 -0.0907173 0 0 0.0557485 0.129226 0.190683 0.236454 0.277919 0.292816 0.328364 0.356603 0.395097 0.430393 0.467454 0.502941 0.537456 0.571683 0.60607 0.640734 0.675751 0.711176 0.747252 0.784395 0.822906 0.862909 0.904461 0.948042 0.989722 0.921998 0.680355 0.276638 -0.0511741 0 0 0.0182284 0.0704445 0.140657 0.196089 0.247736 0.278655 0.313255 0.346825 0.386008 0.423058 0.461874 0.499225 0.535218 0.570154 0.604908 0.639851 0.675298 0.71137 0.748354 0.78653 0.825992 0.866654 0.908494 0.951997 0.997166 0.948598 0.729391 0.335228 -0.00428933 0 0 0.00438548 0.0403908 0.0960941 0.149498 0.205099 0.250828 0.287581 0.328506 0.369228 0.4097 0.451262 0.491368 0.529837 0.566526 0.602583 0.638625 0.674929 0.711829 0.749707 0.788791 0.829035 0.87019 0.912251 0.955717 1.00269 0.976195 0.781844 0.400716 0.0483913 0 0 0.00507519 0.0367745 0.0824493 0.130309 0.176765 0.222813 0.260199 0.304332 0.346463 0.390737 0.435805 0.479522 0.521184 0.560617 0.598943 0.636804 0.674706 0.712904 0.751756 0.791574 0.832339 0.87383 0.916096 0.959618 1.0069 1.00383 0.835934 0.472958 0.107794 0 0 0.0095517 0.0403968 0.0824286 0.129499 0.172154 0.21623 0.252435 0.293273 0.333188 0.375974 0.42008 0.465323 0.510301 0.553252 0.594581 0.634887 0.67483 0.714671 0.754666 0.795133 0.836228 0.877952 0.920425 0.964137 1.01077 1.03008 0.889178 0.551414 0.175518 0 0 0.0155138 0.0462187 0.0874782 0.13338 0.17556 0.217402 0.253939 0.292259 0.33108 0.372047 0.414398 0.458353 0.503392 0.548155 0.591681 0.634093 0.675731 0.71711 0.758262 0.799441 0.840868 0.882822 0.925526 0.96953 1.01561 1.05262 0.940088 0.634382 0.252737 0 0 0.0221693 0.0544681 0.0959724 0.140685 0.182576 0.223219 0.259968 0.296521 0.334171 0.373718 0.414837 0.457813 0.50227 0.547077 0.591328 0.634815 0.677748 0.720295 0.762485 0.804318 0.846175 0.888409 0.931416 0.975743 1.02181 1.07024 0.988539 0.71917 0.33899 0 0 0.0282681 0.0638376 0.106012 0.150545 0.193326 0.234023 0.271381 0.306913 0.343138 0.380857 0.4201 0.461386 0.504657 0.548979 0.593435 0.637566 0.681199 0.724402 0.767286 0.809659 0.851956 0.89449 0.937897 0.982475 1.02919 1.08165 1.03528 0.80657 0.429938 0 0 0.0333646 0.07249 0.115977 0.161063 0.205571 0.24775 0.286727 0.322628 0.357693 0.393795 0.431128 0.470316 0.511705 0.554793 0.598605 0.642563 0.686194 0.729571 0.772659 0.81542 0.857996 0.900864 0.94467 0.989461 1.0379 1.08673 1.08209 0.898114 0.520898 0 0 0.0376827 0.0797264 0.124268 0.169768 0.215329 0.259387 0.300953 0.339213 0.374964 0.410281 0.446183 0.483429 0.522685 0.563885 0.606354 0.649351 0.692479 0.735545 0.778529 0.821423 0.86412 0.907395 0.951306 0.996856 1.04676 1.09013 1.12794 0.989217 0.612454 0 0 0.0412035 0.0854407 0.130895 0.17667 0.222514 0.267425 0.310363 0.350474 0.387932 0.424049 0.460111 0.496727 0.534648 0.574309 0.615303 0.657109 0.699387 0.741786 0.784424 0.827145 0.870093 0.913655 0.957693 1.00522 1.05344 1.09846 1.16824 1.06953 0.700854 0 0 0.04371 0.0894227 0.135475 0.181398 0.227196 0.272298 0.315851 0.357066 0.395825 0.433113 0.469726 0.506322 0.543805 0.582703 0.622876 0.663934 0.705508 0.747515 0.789775 0.832353 0.875713 0.919222 0.964561 1.01341 1.05821 1.11663 1.20123 1.12224 0.777613 0 0 0.0451124 0.0916028 0.138008 0.18392 0.229454 0.274371 0.318027 0.359796 0.399559 0.437844 0.475245 0.512351 0.549952 0.588627 0.628446 0.669072 0.710398 0.752186 0.794256 0.8372 0.880539 0.924588 0.972625 1.01847 1.06482 1.1558 1.21115 1.13363 0.822158 0 0 0.0456246 0.0923622 0.138823 0.184646 0.229902 0.274535 0.318072 0.359989 0.400247 0.439168 0.477252 0.515099 0.553239 0.592137 0.631923 0.672584 0.713878 0.755584 0.798139 0.841256 0.884659 0.931246 0.978524 1.02195 1.08682 1.18732 1.19356 1.0981 0.79981 0 0 0.0456786 0.0923742 0.138759 0.184399 0.229282 0.273372 0.316494 0.358414 0.399021 0.438462 0.477096 0.515496 0.554177 0.593518 0.633706 0.674585 0.716011 0.758298 0.801202 0.844299 0.889777 0.93766 0.981016 1.03348 1.13232 1.1795 1.14417 0.994193 0.659542 0 0 0.0455486 0.0919461 0.137959 0.183075 0.227228 0.27046 0.312887 0.354573 0.395456 0.435565 0.4751 0.514358 0.553718 0.593549 0.634112 0.675389 0.717514 0.760238 0.803232 0.84816 0.895947 0.939869 0.987172 1.07355 1.14524 1.13759 1.0444 0.804659 0.39759 0 0 0.0451295 0.0908532 0.136118 0.180417 0.223713 0.26611 0.307837 0.349131 0.390121 0.430805 0.47121 0.511488 0.551866 0.592547 0.633748 0.675735 0.718338 0.761367 0.806173 0.85363 0.897957 0.943571 1.01902 1.10371 1.11454 1.05367 0.870838 0.518478 0.151347 0 0 0.044379 0.0891167 0.13333 0.176662 0.219129 0.260894 0.302223 0.343399 0.384534 0.425622 0.466669 0.507749 0.549026 0.590719 0.63294 0.675584 0.718782 0.763751 0.810812 0.855262 0.900787 0.970791 1.05863 1.08248 1.04194 0.899376 0.600693 0.220021 0.0350382 0 0 0.0433728 0.0868955 0.129914 0.172257 0.214118 0.255716 0.297167 0.338556 0.379963 0.421425 0.46298 0.504702 0.546735 0.589174 0.63207 0.675679 0.720956 0.767469 0.811905 0.858368 0.927429 1.01314 1.04411 1.01648 0.901307 0.646323 0.278646 0.0572219 0.00405625 0 0 0.042223 0.0846351 0.126534 0.168285 0.20987 0.251454 0.293064 0.334726 0.376466 0.418329 0.460368 0.502649 0.545293 0.588475 0.632457 0.677889 0.723617 0.768175 0.816817 0.888358 0.96847 1.00116 0.980889 0.882954 0.659954 0.316677 0.0776117 0.00747758 0.000196735 0 0 0.0413583 0.0824363 0.123994 0.165018 0.206552 0.248242 0.290152 0.332185 0.374297 0.416524 0.458957 0.501779 0.545175 0.589406 0.634593 0.679591 0.724798 0.777564 0.853496 0.923737 0.954458 0.936732 0.848115 0.646462 0.329664 0.0908029 0.0108539 0.000404315 2.77192e-06 0 0 0.0396816 0.0825025 0.121565 0.164572 0.205709 0.247558 0.289359 0.331185 0.373271 0.415775 0.458818 0.502464 0.546724 0.591263 0.635879 0.683428 0.743031 0.819781 0.877515 0.903515 0.884303 0.79858 0.609379 0.317788 0.0937508 0.01286 0.000605089 6.05398e-06 1.79849e-08 0 0 0.0418201 0.0718281 0.126337 0.165688 0.212775 0.255929 0.29744 0.338404 0.379316 0.420364 0.461456 0.504276 0.548426 0.594676 0.647561 0.714599 0.782127 0.828719 0.847027 0.822747 0.734506 0.55089 0.283923 0.0861779 0.0126775 0.000686676 8.83438e-06 3.23108e-08 1.46104e-10 0 0 0.00933265 0.0731379 0.0976083 0.173201 0.226824 0.273208 0.315253 0.35522 0.394803 0.435121 0.475996 0.519581 0.566132 0.619483 0.683378 0.740228 0.777217 0.784394 0.751102 0.655199 0.472701 0.233143 0.0702575 0.0104196 0.000599179 8.81976e-06 3.93269e-08 2.16942e-10 7.89287e-13 0 0 -0.0138261 -0.0574581 0.0999026 0.174389 0.232147 0.280014 0.32395 0.366854 0.409678 0.453782 0.503351 0.557409 0.613201 0.668118 0.712461 0.733478 0.727299 0.676793 0.564224 0.379059 0.173451 0.0499325 0.00703302 0.000397369 6.02451e-06 3.21674e-08 2.16598e-10 9.5945e-13 2.33802e-15 0 0 -0.217184 0.036351 0.143145 0.210991 0.266911 0.316628 0.364474 0.411306 0.459951 0.512342 0.567296 0.62744 0.690749 0.742668 0.766165 0.749225 0.665868 0.503537 0.293745 0.117992 0.030059 0.00377671 0.000192617 2.74938e-06 1.78219e-08 1.45125e-10 7.90157e-13 2.00178e-15 1.44486e-13 0 0 0 0 0 0 0 0 0 0 0 0 0 0 0 0 0 0 0 0 0 0 0 0 0 0 0 0 0 0 0 0
				</DataArray>
				<DataArray Name="VitesseY" type="Float32" format="ascii">
 0 0 0 0 0 0 0 0 0 0 0 0 0 0 0 0 0 0 0 0 0 0 0 0 0 0 0 0 0 0 0 -0.0259674 0.124355 0.118713 0.0964056 0.0557338 0.018219 0.00438032 0.00507104 0.00954784 0.01551 0.0221657 0.0282655 0.0333631 0.0376824 0.0412044 0.0437117 0.0451144 0.0456266 0.0456805 0.0455506 0.0451306 0.0443821 0.0433679 0.0422522 0.0412018 0.0417218 0.0447575 0.049669 0.0492538 0.0563875 0 -0.1164 0.102207 0.19563 0.179912 0.129213 0.0704326 0.0403837 0.0367698 0.0403924 0.0462145 0.0544637 0.0638332 0.0724869 0.0797252 0.0854412 0.0894244 0.0916052 0.0923648 0.0923769 0.0919484 0.0908561 0.0891158 0.0869058 0.0845871 0.0825408 0.0832423 0.0888067 0.0976135 0.0984408 0.110834 0 -0.112195 0.0802079 0.237163 0.22659 0.190667 0.140639 0.0960844 0.0824446 0.082425 0.0874746 0.0959687 0.106008 0.115972 0.124265 0.130895 0.135476 0.138011 0.138826 0.138761 0.137962 0.13612 0.133333 0.129908 0.126565 0.123729 0.124445 0.13173 0.144005 0.145927 0.16507 0 -0.100958 0.060702 0.243906 0.255965 0.236448 0.196082 0.149492 0.130305 0.129494 0.133376 0.14068 0.150539 0.161058 0.169765 0.176669 0.1814 0.183922 0.184649 0.184402 0.183078 0.180421 0.176664 0.172258 0.168282 0.164993 0.165509 0.173887 0.188806 0.192134 0.218259 0 -0.0384312 0.0925546 0.257311 0.286899 0.277913 0.24773 0.205094 0.176762 0.172149 0.175555 0.182569 0.193319 0.205565 0.215326 0.222513 0.227197 0.229457 0.229905 0.229285 0.227232 0.223716 0.219131 0.214118 0.209876 0.206493 0.206438 0.215332 0.232323 0.237324 0.268832 0 0.0435166 0.143725 0.268285 0.295302 0.292816 0.278654 0.250826 0.222809 0.216224 0.217395 0.223211 0.234015 0.247742 0.259383 0.267425 0.272301 0.274375 0.274539 0.273376 0.270464 0.266113 0.260896 0.255716 0.251455 0.248234 0.247735 0.256568 0.274595 0.281285 0.317144 0 0.132065 0.208325 0.305539 0.332867 0.328363 0.313256 0.287584 0.260199 0.25243 0.253932 0.259959 0.271372 0.286718 0.300948 0.310362 0.315854 0.31803 0.318076 0.316499 0.31289 0.30784 0.302224 0.297167 0.293064 0.290156 0.289388 0.297575 0.31554 0.324257 0.364598 0 0.212565 0.270604 0.338273 0.36046 0.356603 0.346826 0.328508 0.304332 0.293269 0.292253 0.296514 0.306905 0.322619 0.339207 0.350473 0.357067 0.359799 0.359992 0.358417 0.354576 0.349134 0.343399 0.338556 0.334726 0.332186 0.331187 0.338425 0.355279 0.366926 0.411333 0 0.286244 0.332431 0.379263 0.397742 0.395095 0.386008 0.369229 0.346465 0.333187 0.331077 0.334167 0.343132 0.357686 0.374959 0.38793 0.395825 0.399561 0.400249 0.399023 0.395458 0.390122 0.384534 0.379963 0.376466 0.374297 0.373271 0.379321 0.394813 0.409686 0.459953 0 0.35129 0.389345 0.419995 0.43179 0.43039 0.423057 0.4097 0.39074 0.375975 0.372047 0.373716 0.380854 0.393791 0.410277 0.424046 0.433111 0.437843 0.439168 0.438463 0.435566 0.430805 0.425622 0.421425 0.418329 0.416524 0.415775 0.420365 0.435121 0.45378 0.512339 0 0.409676 0.440764 0.461376 0.466808 0.467449 0.461871 0.451261 0.435807 0.420084 0.4144 0.414839 0.4201 0.431127 0.446181 0.460108 0.469724 0.475244 0.477251 0.477095 0.4751 0.471209 0.466668 0.462979 0.460368 0.458957 0.458818 0.461456 0.475995 0.503348 0.567293 0 0.462002 0.487124 0.500718 0.502114 0.502935 0.49922 0.491365 0.479524 0.465329 0.458358 0.457817 0.461388 0.470317 0.483428 0.496725 0.50632 0.512349 0.515097 0.515494 0.514356 0.511487 0.507748 0.504702 0.502648 0.501778 0.502464 0.504275 0.51958 0.557407 0.627438 0 0.509262 0.529343 0.537821 0.53754 0.53745 0.535212 0.529834 0.521185 0.510307 0.503399 0.502276 0.504661 0.511708 0.522685 0.534647 0.543802 0.549949 0.553236 0.554174 0.553715 0.551864 0.549024 0.546734 0.545292 0.545175 0.546723 0.548425 0.566131 0.6132 0.690747 0 0.552238 0.568059 0.573396 0.572584 0.571678 0.570148 0.566522 0.560617 0.553256 0.548162 0.547084 0.548985 0.554796 0.563886 0.574308 0.582701 0.588624 0.592133 0.593515 0.593546 0.592545 0.590718 0.589173 0.588475 0.589405 0.591262 0.594675 0.619481 0.668116 0.742668 0 0.591912 0.604235 0.607953 0.607242 0.606066 0.604903 0.602579 0.598943 0.594585 0.591686 0.591334 0.593441 0.598609 0.606355 0.615302 0.622874 0.628443 0.631919 0.633703 0.634109 0.633746 0.632938 0.632069 0.632456 0.634592 0.635878 0.64756 0.683376 0.712462 0.766167 0 0.629362 0.638884 0.641945 0.641667 0.64073 0.639847 0.638621 0.636803 0.63489 0.634097 0.63482 0.637571 0.642567 0.649352 0.657108 0.663932 0.669069 0.67258 0.674581 0.675386 0.675732 0.675582 0.675678 0.677887 0.67959 0.683427 0.714598 0.740229 0.73348 0.749229 0 0.665699 0.672924 0.675748 0.676106 0.675747 0.675294 0.674926 0.674704 0.674831 0.675734 0.677752 0.681202 0.686197 0.69248 0.699386 0.705506 0.710395 0.713874 0.716008 0.717511 0.718335 0.71878 0.720954 0.723616 0.724798 0.743031 0.782127 0.777219 0.727302 0.665875 0 0.701815 0.707 0.709718 0.710773 0.711172 0.711367 0.711827 0.712902 0.714671 0.717111 0.720297 0.724404 0.729572 0.735545 0.741785 0.747513 0.752183 0.755581 0.758295 0.760235 0.761364 0.76375 0.767468 0.768174 0.777564 0.819781 0.82872 0.784397 0.676799 0.503547 0 0.738107 0.741456 0.744142 0.745946 0.747248 0.748351 0.749705 0.751754 0.754665 0.758262 0.762485 0.767287 0.77266 0.778529 0.784423 0.789772 0.794253 0.798136 0.801199 0.80323 0.806171 0.810811 0.811905 0.816817 0.853497 0.877516 0.847029 0.751107 0.564231 0.293753 0 0.774805 0.776682 0.779399 0.782048 0.784392 0.786527 0.788789 0.791572 0.795132 0.79944 0.804317 0.809659 0.81542 0.821422 0.827144 0.832351 0.837197 0.841253 0.844296 0.848158 0.853629 0.855261 0.858369 0.888359 0.923739 0.903518 0.822751 0.655205 0.379065 0.117995 0 0.812365 0.813138 0.816003 0.819499 0.822901 0.825989 0.829033 0.832337 0.836226 0.840866 0.846174 0.851955 0.857996 0.864119 0.870092 0.875711 0.880537 0.884656 0.889775 0.895945 0.897957 0.900787 0.927431 0.968473 0.954461 0.884306 0.734512 0.472707 0.173455 0.0300602 0 0.851278 0.851248 0.854404 0.858652 0.862905 0.86665 0.870187 0.873827 0.87795 0.882821 0.888408 0.894489 0.900863 0.907395 0.913653 0.91922 0.924585 0.931243 0.937658 0.939868 0.943571 0.970792 1.01314 1.00116 0.936735 0.798584 0.550895 0.233147 0.0499339 0.00377691 0 0.8921 0.891441 0.894975 0.899761 0.904453 0.908492 0.912249 0.916094 0.920423 0.925525 0.931415 0.937897 0.94467 0.951305 0.957691 0.964559 0.972623 0.978522 0.981015 0.987172 1.01902 1.05864 1.04412 0.980891 0.848118 0.609383 0.283926 0.0702589 0.00703329 0.00019263 0 0.935591 0.934554 0.938353 0.94336 0.948105 0.952032 0.955741 0.959624 0.964136 0.969529 0.975743 0.982475 0.989461 0.996856 1.00522 1.01341 1.01847 1.02195 1.03348 1.07355 1.10371 1.08248 1.01649 0.882956 0.646464 0.31779 0.0861789 0.0104198 0.000397387 2.74958e-06 0 0.976951 0.97453 0.979565 0.985983 0.991811 0.998069 1.00285 1.00691 1.01076 1.0156 1.02181 1.02919 1.0379 1.04676 1.05343 1.05821 1.06482 1.08682 1.13233 1.14524 1.11454 1.04194 0.901308 0.659954 0.329664 0.093751 0.0126776 0.000599192 6.02479e-06 1.7823e-08 0 0.9127 0.914686 0.914246 0.918801 0.933509 0.951404 0.97678 1.00397 1.03011 1.05263 1.07024 1.08165 1.08673 1.09013 1.09846 1.11663 1.1558 1.18732 1.1795 1.13759 1.05367 0.899375 0.646321 0.316675 0.0908022 0.0128599 0.000686676 8.81992e-06 3.21685e-08 1.45132e-10 0 0.733352 0.706346 0.693178 0.686106 0.691507 0.732729 0.782595 0.836064 0.889222 0.940098 0.988542 1.03529 1.08209 1.12795 1.16824 1.20123 1.21115 1.19356 1.14417 1.0444 0.870835 0.600688 0.278642 0.0776103 0.0108537 0.000605076 8.83423e-06 3.93269e-08 2.16602e-10 7.90157e-13 0 0.408409 0.426435 0.306659 0.236692 0.284403 0.336688 0.400952 0.47304 0.551442 0.634392 0.719176 0.806576 0.898121 0.989223 1.06953 1.12225 1.13364 1.0981 0.99419 0.804654 0.518471 0.220016 0.0572203 0.0074773 0.000404297 6.0537e-06 3.23098e-08 2.16938e-10 9.5945e-13 2.00178e-15 0 0.403427 0.118032 -0.144944 -0.0871734 -0.0524711 -0.00466089 0.0483831 0.107794 0.17552 0.252742 0.338997 0.429944 0.520904 0.61246 0.70086 0.777617 0.82216 0.799809 0.659536 0.397581 0.151343 0.0350369 0.00405604 0.000196722 2.77172e-06 1.79838e-08 1.46097e-10 7.89288e-13 2.33802e-15 1.44486e-13 0 2.19994 0 0 0 0 0 0 0 0 0 0 0 0 0 0 0 0 0 0 0 0 0 0 0 0 0 0 0 0 0 0
				</DataArray>
			</PointData>
			<CellData Scalars="Density">
				<DataArray Name="Density" type="Float32" format="ascii">