<?xml version="1.0"?>
<VTKFile type="PolyData">
	<PolyData>
		<Piece NumberOfPoints="961" NumberOfPolys="900">
			<Points>
				<DataArray type="Float32" NumberOfComponents="3" format="ascii">
 0 0 0 0.04 0 0 0.08 0 0 0.12 0 0 0.16 0 0 0.2 0 0 0.24 0 0 0.28 0 0 0.32 0 0 0.36 0 0 0.4 0 0 0.44 0 0 0.48 0 0 0.52 0 0 0.56 0 0 0.6 0 0 0.64 0 0 0.68 0 0 0.72 0 0 0.76 0 0 0.8 0 0 0.84 0 0 0.88 0 0 0.92 0 0 0.96 0 0 1 0 0 1.04 0 0 1.08 0 0 1.12 0 0 1.16 0 0 1.2 0 0 0 0.04 0 0.04 0.04 0 0.08 0.04 0 0.12 0.04 0 0.16 0.04 0 0.2 0.04 0 0.24 0.04 0 0.28 0.04 0 0.32 0.04 0 0.36 0.04 0 0.4 0.04 0 0.44 0.04 0 0.48 0.04 0 0.52 0.04 0 0.56 0.04 0 0.6 0.04 0 0.64 0.04 0 0.68 0.04 0 0.72 0.04 0 0.76 0.04 0 0.8 0.04 0 0.84 0.04 0 0.88 0.04 0 0.92 0.04 0 0.96 0.04 0 1 0.04 0 1.04 0.04 0 1.08 0.04 0 1.12 0.04 0 1.16 0.04 0 1.2 0.04 0 0 0.08 0 0.04 0.08 0 0.08 0.08 0 0.12 0.08 0 0.16 0.08 0 0.2 0.08 0 0.24 0.08 0 0.28 0.08 0 0.32 0.08 0 0.36 0.08 0 0.4 0.08 0 0.44 0.08 0 0.48 0.08 0 0.52 0.08 0 0.56 0.08 0 0.6 0.08 0 0.64 0.08 0 0.68 0.08 0 0.72 0.08 0 0.76 0.08 0 0.8 0.08 0 0.84 0.08 0 0.88 0.08 0 0.92 0.08 0 0.96 0.08 0 1 0.08 0 1.04 0.08 0 1.08 0.08 0 1.12 0.08 0 1.16 0.08 0 1.2 0.08 0 0 0.12 0 0.04 0.12 0 0.08 0.12 0 0.12 0.12 0 0.16 0.12 0 0.2 0.12 0 0.24 0.12 0 0.28 0.12 0 0.32 0.12 0 0.36 0.12 0 0.4 0.12 0 0.44 0.12 0 0.48 0.12 0 0.52 0.12 0 0.56 0.12 0 0.6 0.12 0 0.64 0.12 0 0.68 0.12 0 0.72 0.12 0 0.76 0.12 0 0.8 0.12 0 0.84 0.12 0 0.88 0.12 0 0.92 0.12 0 0.96 0.12 0 1 0.12 0 1.04 0.12 0 1.08 0.12 0 1.12 0.12 0 1.16 0.12 0 1.2 0.12 0 0 0.16 0 0.04 0.16 0 0.08 0.16 0 0.12 0.16 0 0.16 0.16 0 0.2 0.16 0 0.24 0.16 0 0.28 0.16 0 0.32 0.16 0 0.36 0.16 0 0.4 0.16 0 0.44 0.16 0 0.48 0.16 0 0.52 0.16 0 0.56 0.16 0 0.6 0.16 0 0.64 0.16 0 0.68 0.16 0 0.72 0.16 0 0.76 0.16 0 0.8 0.16 0 0.84 0.16 0 0.88 0.16 0 0.92 0.16 0 0.96 0.16 0 1 0.16 0 1.04 0.16 0 1.08 0.16 0 1.12 0.16 0 1.16 0.16 0 1.2 0.16 0 0 0.2 0 0.04 0.2 0 0.08 0.2 0 0.12 0.2 0 0.16 0.2 0 0.2 0.2 0 0.24 0.2 0 0.28 0.2 0 0.32 0.2 0 0.36 0.2 0 0.4 0.2 0 0.44 0.2 0 0.48 0.2 0 0.52 0.2 0 0.56 0.2 0 0.6 0.2 0 0.64 0.2 0 0.68 0.2 0 0.72 0.2 0 0.76 0.2 0 0.8 0.2 0 0.84 0.2 0 0.88 0.2 0 0.92 0.2 0 0.96 0.2 0 1 0.2 0 1.04 0.2 0 1.08 0.2 0 1.12 0.2 0 1.16 0.2 0 1.2 0.2 0 0 0.24 0 0.04 0.24 0 0.08 0.24 0 0.12 0.24 0 0.16 0.24 0 0.2 0.24 0 0.24 0.24 0 0.28 0.24 0 0.32 0.24 0 0.36 0.24 0 0.4 0.24 0 0.44 0.24 0 0.48 0.24 0 0.52 0.24 0 0.56 0.24 0 0.6 0.24 0 0.64 0.24 0 0.68 0.24 0 0.72 0.24 0 0.76 0.24 0 0.8 0.24 0 0.84 0.24 0 0.88 0.24 0 0.92 0.24 0 0.96 0.24 0 1 0.24 0 1.04 0.24 0 1.08 0.24 0 1.12 0.24 0 1.16 0.24 0 1.2 0.24 0 0 0.28 0 0.04 0.28 0 0.08 0.28 0 0.12 0.28 0 0.16 0.28 0 0.2 0.28 0 0.24 0.28 0 0.28 0.28 0 0.32 0.28 0 0.36 0.28 0 0.4 0.28 0 0.44 0.28 0 0.48 0.28 0 0.52 0.28 0 0.56 0.28 0 0.6 0.28 0 0.64 0.28 0 0.68 0.28 0 0.72 0.28 0 0.76 0.28 0 0.8 0.28 0 0.84 0.28 0 0.88 0.28 0 0.92 0.28 0 0.96 0.28 0 1 0.28 0 1.04 0.28 0 1.08 0.28 0 1.12 0.28 0 1.16 0.28 0 1.2 0.28 0 0 0.32 0 0.04 0.32 0 0.08 0.32 0 0.12 0.32 0 0.16 0.32 0 0.2 0.32 0 0.24 0.32 0 0.28 0.32 0 0.32 0.32 0 0.36 0.32 0 0.4 0.32 0 0.44 0.32 0 0.48 0.32 0 0.52 0.32 0 0.56 0.32 0 0.6 0.32 0 0.64 0.32 0 0.68 0.32 0 0.72 0.32 0 0.76 0.32 0 0.8 0.32 0 0.84 0.32 0 0.88 0.32 0 0.92 0.32 0 0.96 0.32 0 1 0.32 0 1.04 0.32 0 1.08 0.32 0 1.12 0.32 0 1.16 0.32 0 1.2 0.32 0 0 0.36 0 0.04 0.36 0 0.08 0.36 0 0.12 0.36 0 0.16 0.36 0 0.2 0.36 0 0.24 0.36 0 0.28 0.36 0 0.32 0.36 0 0.36 0.36 0 0.4 0.36 0 0.44 0.36 0 0.48 0.36 0 0.52 0.36 0 0.56 0.36 0 0.6 0.36 0 0.64 0.36 0 0.68 0.36 0 0.72 0.36 0 0.76 0.36 0 0.8 0.36 0 0.84 0.36 0 0.88 0.36 0 0.92 0.36 0 0.96 0.36 0 1 0.36 0 1.04 0.36 0 1.08 0.36 0 1.12 0.36 0 1.16 0.36 0 1.2 0.36 0 0 0.4 0 0.04 0.4 0 0.08 0.4 0 0.12 0.4 0 0.16 0.4 0 0.2 0.4 0 0.24 0.4 0 0.28 0.4 0 0.32 0.4 0 0.36 0.4 0 0.4 0.4 0 0.44 0.4 0 0.48 0.4 0 0.52 0.4 0 0.56 0.4 0 0.6 0.4 0 0.64 0.4 0 0.68 0.4 0 0.72 0.4 0 0.76 0.4 0 0.8 0.4 0 0.84 0.4 0 0.88 0.4 0 0.92 0.4 0 0.96 0.4 0 1 0.4 0 1.04 0.4 0 1.08 0.4 0 1.12 0.4 0 1.16 0.4 0 1.2 0.4 0 0 0.44 0 0.04 0.44 0 0.08 0.44 0 0.12 0.44 0 0.16 0.44 0 0.2 0.44 0 0.24 0.44 0 0.28 0.44 0 0.32 0.44 0 0.36 0.44 0 0.4 0.44 0 0.44 0.44 0 0.48 0.44 0 0.52 0.44 0 0.56 0.44 0 0.6 0.44 0 0.64 0.44 0 0.68 0.44 0 0.72 0.44 0 0.76 0.44 0 0.8 0.44 0 0.84 0.44 0 0.88 0.44 0 0.92 0.44 0 0.96 0.44 0 1 0.44 0 1.04 0.44 0 1.08 0.44 0 1.12 0.44 0 1.16 0.44 0 1.2 0.44 0 0 0.48 0 0.04 0.48 0 0.08 0.48 0 0.12 0.48 0 0.16 0.48 0 0.2 0.48 0 0.24 0.48 0 0.28 0.48 0 0.32 0.48 0 0.36 0.48 0 0.4 0.48 0 0.44 0.48 0 0.48 0.48 0 0.52 0.48 0 0.56 0.48 0 0.6 0.48 0 0.64 0.48 0 0.68 0.48 0 0.72 0.48 0 0.76 0.48 0 0.8 0.48 0 0.84 0.48 0 0.88 0.48 0 0.92 0.48 0 0.96 0.48 0 1 0.48 0 1.04 0.48 0 1.08 0.48 0 1.12 0.48 0 1.16 0.48 0 1.2 0.48 0 0 0.52 0 0.04 0.52 0 0.08 0.52 0 0.12 0.52 0 0.16 0.52 0 0.2 0.52 0 0.24 0.52 0 0.28 0.52 0 0.32 0.52 0 0.36 0.52 0 0.4 0.52 0 0.44 0.52 0 0.48 0.52 0 0.52 0.52 0 0.56 0.52 0 0.6 0.52 0 0.64 0.52 0 0.68 0.52 0 0.72 0.52 0 0.76 0.52 0 0.8 0.52 0 0.84 0.52 0 0.88 0.52 0 0.92 0.52 0 0.96 0.52 0 1 0.52 0 1.04 0.52 0 1.08 0.52 0 1.12 0.52 0 1.16 0.52 0 1.2 0.52 0 0 0.56 0 0.04 0.56 0 0.08 0.56 0 0.12 0.56 0 0.16 0.56 0 0.2 0.56 0 0.24 0.56 0 0.28 0.56 0 0.32 0.56 0 0.36 0.56 0 0.4 0.56 0 0.44 0.56 0 0.48 0.56 0 0.52 0.56 0 0.56 0.56 0 0.6 0.56 0 0.64 0.56 0 0.68 0.56 0 0.72 0.56 0 0.76 0.56 0 0.8 0.56 0 0.84 0.56 0 0.88 0.56 0 0.92 0.56 0 0.96 0.56 0 1 0.56 0 1.04 0.56 0 1.08 0.56 0 1.12 0.56 0 1.16 0.56 0 1.2 0.56 0 0 0.6 0 0.04 0.6 0 0.08 0.6 0 0.12 0.6 0 0.16 0.6 0 0.2 0.6 0 0.24 0.6 0 0.28 0.6 0 0.32 0.6 0 0.36 0.6 0 0.4 0.6 0 0.44 0.6 0 0.48 0.6 0 0.52 0.6 0 0.56 0.6 0 0.6 0.6 0 0.64 0.6 0 0.68 0.6 0 0.72 0.6 0 0.76 0.6 0 0.8 0.6 0 0.84 0.6 0 0.88 0.6 0 0.92 0.6 0 0.96 0.6 0 1 0.6 0 1.04 0.6 0 1.08 0.6 0 1.12 0.6 0 1.16 0.6 0 1.2 0.6 0 0 0.64 0 0.04 0.64 0 0.08 0.64 0 0.12 0.64 0 0.16 0.64 0 0.2 0.64 0 0.24 0.64 0 0.28 0.64 0 0.32 0.64 0 0.36 0.64 0 0.4 0.64 0 0.44 0.64 0 0.48 0.64 0 0.52 0.64 0 0.56 0.64 0 0.6 0.64 0 0.64 0.64 0 0.68 0.64 0 0.72 0.64 0 0.76 0.64 0 0.8 0.64 0 0.84 0.64 0 0.88 0.64 0 0.92 0.64 0 0.96 0.64 0 1 0.64 0 1.04 0.64 0 1.08 0.64 0 1.12 0.64 0 1.16 0.64 0 1.2 0.64 0 0 0.68 0 0.04 0.68 0 0.08 0.68 0 0.12 0.68 0 0.16 0.68 0 0.2 0.68 0 0.24 0.68 0 0.28 0.68 0 0.32 0.68 0 0.36 0.68 0 0.4 0.68 0 0.44 0.68 0 0.48 0.68 0 0.52 0.68 0 0.56 0.68 0 0.6 0.68 0 0.64 0.68 0 0.68 0.68 0 0.72 0.68 0 0.76 0.68 0 0.8 0.68 0 0.84 0.68 0 0.88 0.68 0 0.92 0.68 0 0.96 0.68 0 1 0.68 0 1.04 0.68 0 1.08 0.68 0 1.12 0.68 0 1.16 0.68 0 1.2 0.68 0 0 0.72 0 0.04 0.72 0 0.08 0.72 0 0.12 0.72 0 0.16 0.72 0 0.2 0.72 0 0.24 0.72 0 0.28 0.72 0 0.32 0.72 0 0.36 0.72 0 0.4 0.72 0 0.44 0.72 0 0.48 0.72 0 0.52 0.72 0 0.56 0.72 0 0.6 0.72 0 0.64 0.72 0 0.68 0.72 0 0.72 0.72 0 0.76 0.72 0 0.8 0.72 0 0.84 0.72 0 0.88 0.72 0 0.92 0.72 0 0.96 0.72 0 1 0.72 0 1.04 0.72 0 1.08 0.72 0 1.12 0.72 0 1.16 0.72 0 1.2 0.72 0 0 0.76 0 0.04 0.76 0 0.08 0.76 0 0.12 0.76 0 0.16 0.76 0 0.2 0.76 0 0.24 0.76 0 0.28 0.76 0 0.32 0.76 0 0.36 0.76 0 0.4 0.76 0 0.44 0.76 0 0.48 0.76 0 0.52 0.76 0 0.56 0.76 0 0.6 0.76 0 0.64 0.76 0 0.68 0.76 0 0.72 0.76 0 0.76 0.76 0 0.8 0.76 0 0.84 0.76 0 0.88 0.76 0 0.92 0.76 0 0.96 0.76 0 1 0.76 0 1.04 0.76 0 1.08 0.76 0 1.12 0.76 0 1.16 0.76 0 1.2 0.76 0 0 0.8 0 0.04 0.8 0 0.08 0.8 0 0.12 0.8 0 0.16 0.8 0 0.2 0.8 0 0.24 0.8 0 0.28 0.8 0 0.32 0.8 0 0.36 0.8 0 0.4 0.8 0 0.44 0.8 0 0.48 0.8 0 0.52 0.8 0 0.56 0.8 0 0.6 0.8 0 0.64 0.8 0 0.68 0.8 0 0.72 0.8 0 0.76 0.8 0 0.8 0.8 0 0.84 0.8 0 0.88 0.8 0 0.92 0.8 0 0.96 0.8 0 1 0.8 0 1.04 0.8 0 1.08 0.8 0 1.12 0.8 0 1.16 0.8 0 1.2 0.8 0 0 0.84 0 0.04 0.84 0 0.08 0.84 0 0.12 0.84 0 0.16 0.84 0 0.2 0.84 0 0.24 0.84 0 0.28 0.84 0 0.32 0.84 0 0.36 0.84 0 0.4 0.84 0 0.44 0.84 0 0.48 0.84 0 0.52 0.84 0 0.56 0.84 0 0.6 0.84 0 0.64 0.84 0 0.68 0.84 0 0.72 0.84 0 0.76 0.84 0 0.8 0.84 0 0.84 0.84 0 0.88 0.84 0 0.92 0.84 0 0.96 0.84 0 1 0.84 0 1.04 0.84 0 1.08 0.84 0 1.12 0.84 0 1.16 0.84 0 1.2 0.84 0 0 0.88 0 0.04 0.88 0 0.08 0.88 0 0.12 0.88 0 0.16 0.88 0 0.2 0.88 0 0.24 0.88 0 0.28 0.88 0 0.32 0.88 0 0.36 0.88 0 0.4 0.88 0 0.44 0.88 0 0.48 0.88 0 0.52 0.88 0 0.56 0.88 0 0.6 0.88 0 0.64 0.88 0 0.68 0.88 0 0.72 0.88 0 0.76 0.88 0 0.8 0.88 0 0.84 0.88 0 0.88 0.88 0 0.92 0.88 0 0.96 0.88 0 1 0.88 0 1.04 0.88 0 1.08 0.88 0 1.12 0.88 0 1.16 0.88 0 1.2 0.88 0 0 0.92 0 0.04 0.92 0 0.08 0.92 0 0.12 0.92 0 0.16 0.92 0 0.2 0.92 0 0.24 0.92 0 0.28 0.92 0 0.32 0.92 0 0.36 0.92 0 0.4 0.92 0 0.44 0.92 0 0.48 0.92 0 0.52 0.92 0 0.56 0.92 0 0.6 0.92 0 0.64 0.92 0 0.68 0.92 0 0.72 0.92 0 0.76 0.92 0 0.8 0.92 0 0.84 0.92 0 0.88 0.92 0 0.92 0.92 0 0.96 0.92 0 1 0.92 0 1.04 0.92 0 1.08 0.92 0 1.12 0.92 0 1.16 0.92 0 1.2 0.92 0 0 0.96 0 0.04 0.96 0 0.08 0.96 0 0.12 0.96 0 0.16 0.96 0 0.2 0.96 0 0.24 0.96 0 0.28 0.96 0 0.32 0.96 0 0.36 0.96 0 0.4 0.96 0 0.44 0.96 0 0.48 0.96 0 0.52 0.96 0 0.56 0.96 0 0.6 0.96 0 0.64 0.96 0 0.68 0.96 0 0.72 0.96 0 0.76 0.96 0 0.8 0.96 0 0.84 0.96 0 0.88 0.96 0 0.92 0.96 0 0.96 0.96 0 1 0.96 0 1.04 0.96 0 1.08 0.96 0 1.12 0.96 0 1.16 0.96 0 1.2 0.96 0 0 1 0 0.04 1 0 0.08 1 0 0.12 1 0 0.16 1 0 0.2 1 0 0.24 1 0 0.28 1 0 0.32 1 0 0.36 1 0 0.4 1 0 0.44 1 0 0.48 1 0 0.52 1 0 0.56 1 0 0.6 1 0 0.64 1 0 0.68 1 0 0.72 1 0 0.76 1 0 0.8 1 0 0.84 1 0 0.88 1 0 0.92 1 0 0.96 1 0 1 1 0 1.04 1 0 1.08 1 0 1.12 1 0 1.16 1 0 1.2 1 0 0 1.04 0 0.04 1.04 0 0.08 1.04 0 0.12 1.04 0 0.16 1.04 0 0.2 1.04 0 0.24 1.04 0 0.28 1.04 0 0.32 1.04 0 0.36 1.04 0 0.4 1.04 0 0.44 1.04 0 0.48 1.04 0 0.52 1.04 0 0.56 1.04 0 0.6 1.04 0 0.64 1.04 0 0.68 1.04 0 0.72 1.04 0 0.76 1.04 0 0.8 1.04 0 0.84 1.04 0 0.88 1.04 0 0.92 1.04 0 0.96 1.04 0 1 1.04 0 1.04 1.04 0 1.08 1.04 0 1.12 1.04 0 1.16 1.04 0 1.2 1.04 0 0 1.08 0 0.04 1.08 0 0.08 1.08 0 0.12 1.08 0 0.16 1.08 0 0.2 1.08 0 0.24 1.08 0 0.28 1.08 0 0.32 1.08 0 0.36 1.08 0 0.4 1.08 0 0.44 1.08 0 0.48 1.08 0 0.52 1.08 0 0.56 1.08 0 0.6 1.08 0 0.64 1.08 0 0.68 1.08 0 0.72 1.08 0 0.76 1.08 0 0.8 1.08 0 0.84 1.08 0 0.88 1.08 0 0.92 1.08 0 0.96 1.08 0 1 1.08 0 1.04 1.08 0 1.08 1.08 0 1.12 1.08 0 1.16 1.08 0 1.2 1.08 0 0 1.12 0 
[...]
			<PointData Scalars="VitesseX">
				<DataArray Name="VitesseX" type="Float32" format="ascii">
 0 -0.0400075 -0.108296 -0.125298 -0.0910568 -0.0332833 0.0624181 0.1528 0.238065 0.314335 0.381629 0.442433 0.497063 0.546581 0.592074 0.634551 0.675277 0.715318 0.755471 0.795982 0.8372 0.879714 0.92407 0.970604 1.0196 1.07189 1.13115 1.06871 0.763755 0.250232 0 0 0.125667 0.126227 0.0805177 0.0810318 0.103942 0.166452 0.229974 0.296443 0.360611 0.419643 0.473146 0.521524 0.565902 0.607085 0.646121 0.684095 0.721823 0.759847 0.798567 0.838424 0.879935 0.923537 0.969486 1.01804 1.07 1.1293 1.06992 0.768727 0.256033 0 0 0.127663 0.211756 0.239162 0.269788 0.271342 0.292424 0.327237 0.36443 0.406567 0.44993 0.493201 0.534437 0.573999 0.612381 0.650082 0.687533 0.72501 0.762906 0.801593 0.841548 0.883326 0.927299 0.973554 1.02222 1.07394 1.13342 1.08139 0.789947 0.277244 0 0 0.102955 0.184618 0.235675 0.281588 0.299893 0.319053 0.356322 0.389448 0.425373 0.462339 0.499145 0.536934 0.574916 0.612775 0.650497 0.688301 0.726332 0.76488 0.804363 0.845199 0.88781 0.932385 0.978914 1.02752 1.07869 1.13803 1.09749 0.82179 0.309086 0 0 0.0576298 0.13259 0.204864 0.256818 0.289364 0.316416 0.351048 0.386121 0.423444 0.463786 0.502187 0.53954 0.576228 0.613116 0.650521 0.688551 0.727133 0.766445 0.806905 0.848814 0.892337 0.937447 0.984099 1.03249 1.08313 1.14232 1.1165 0.861602 0.350889 0 0 0.0196043 0.0737845 0.151094 0.210601 0.258682 0.302656 0.335565 0.376257 0.415235 0.457407 0.497838 0.537602 0.575749 0.613297 0.650843 0.688979 0.727957 0.768023 0.809456 0.852354 0.89659 0.942028 0.98873 1.03704 1.08747 1.14642 1.13754 0.907745 0.402847 0 0 0.00834984 0.0445484 0.108312 0.163871 0.2182 0.272921 0.310545 0.357038 0.399465 0.444916 0.488639 0.531387 0.572026 0.611325 0.650343 0.689524 0.72931 0.770184 0.812452 0.856106 0.900835 0.9465 0.993301 1.04167 1.09222 1.1505 1.16004 0.958274 0.465072 0 0 0.0100339 0.0407081 0.097882 0.146329 0.196646 0.245662 0.286529 0.333265 0.37865 0.426968 0.474638 0.521285 0.565366 0.607605 0.648864 0.690041 0.73141 0.773358 0.816334 0.860435 0.90543 0.951264 0.99825 1.04682 1.09783 1.15517 1.1827 1.01053 0.537166 0 0 0.0146375 0.0462392 0.0985396 0.145427 0.194825 0.240416 0.28189 0.324435 0.368322 0.414465 0.461582 0.509893 0.557417 0.603104 0.647372 0.69088 0.734169 0.777491 0.821213 0.865601 0.910759 0.956744 1.004 1.05282 1.10465 1.16056 1.20436 1.06105 0.61723 0 0 0.0204401 0.0540299 0.102837 0.15054 0.198723 0.242641 0.283955 0.324758 0.367863 0.412186 0.457985 0.505472 0.553569 0.600935 0.647205 0.692564 0.737548 0.782241 0.826814 0.871589 0.916939 0.96312 1.01066 1.05979 1.11286 1.16664 1.22611 1.10658 0.693048 0 0 0.0269917 0.0635473 0.110645 0.159269 0.206392 0.250341 0.291198 0.330896 0.372279 0.415011 0.459622 0.506171 0.553833 0.601601 0.648864 0.695533 0.741671 0.787505 0.832813 0.878117 0.923733 0.970239 1.018 1.06775 1.12194 1.17307 1.24943 1.15018 0.746795 0 0 0.0330164 0.073488 0.1206 0.169836 0.21762 0.262355 0.303834 0.343077 0.382941 0.423975 0.466657 0.511393 0.557967 0.605455 0.653018 0.700114 0.746853 0.793229 0.839128 0.884858 0.930791 0.977754 1.02564 1.07674 1.13032 1.1814 1.2751 1.19321 0.783827 0 0 0.0380127 0.0818275 0.129817 0.179575 0.229016 0.275998 0.319699 0.359919 0.398767 0.438304 0.479026 0.521677 0.566444 0.612719 0.659504 0.706318 0.753036 0.799438 0.84568 0.891576 0.937964 0.985157 1.03352 1.0865 1.13728 1.19626 1.3015 1.22632 0.830111 0 0 0.0421957 0.0886644 0.137392 0.187293 0.237322 0.285868 0.331842 0.374432 0.41459 0.453975 0.4938 0.534785 0.577626 0.622162 0.667628 0.713618 0.7597 0.805884 0.852034 0.898139 0.944966 0.992075 1.04222 1.09487 1.14377 1.22685 1.31705 1.23831 0.878387 0 0 0.0454716 0.0937928 0.143158 0.19296 0.242958 0.292031 0.339084 0.383267 0.424848 0.465174 0.505155 0.545677 0.587603 0.631026 0.675525 0.720575 0.766017 0.811828 0.857751 0.904345 0.951139 0.999023 1.05165 1.10056 1.15591 1.27001 1.30969 1.22024 0.884705 0 0 0.0475773 0.0970113 0.146748 0.196387 0.245978 0.294932 0.342331 0.387416 0.430262 0.47163 0.512238 0.552932 0.594585 0.637549 0.681482 0.726128 0.77135 0.816751 0.862915 0.909707 0.956569 1.00731 1.05824 1.1058 1.18756 1.28885 1.2791 1.15404 0.812038 0 0 0.0485502 0.0984642 0.14832 0.197719 0.24681 0.295421 0.342761 0.388221 0.431795 0.47395 0.515356 0.556707 0.598667 0.641583 0.685436 0.730085 0.775105 0.820806 0.867378 0.913893 0.962833 1.01498 1.06163 1.12125 1.23399 1.27123 1.21659 1.02295 0.624369 0 0 0.0487893 0.0987549 0.148522 0.197707 0.246377 0.294402 0.341403 0.386957 0.430967 0.47369 0.515696 0.557661 0.600107 0.643413 0.687577 0.732284 0.777748 0.824104 0.870463 0.918385 0.970416 1.01808 1.06845 1.16533 1.24114 1.22334 1.10287 0.810558 0.351041 0 0 0.0487369 0.098523 0.147995 0.196685 0.244499 0.291501 0.337747 0.383163 0.427603 0.471154 0.5141 0.556856 0.599933 0.64367 0.688164 0.733499 0.779693 0.82602 0.873555 0.92501 0.973669 1.02111 1.0995 1.19794 1.20732 1.1334 0.916956 0.512897 0.129897 0 0 0.0484204 0.0976298 0.146405 0.194245 0.241067 0.287036 0.332411 0.377408 0.422067 0.466329 0.510287 0.554202 0.598308 0.642821 0.688042 0.734128 0.780496 0.82805 0.879075 0.928236 0.975102 1.04297 1.14678 1.17847 1.13418 0.974299 0.63881 0.219654 0.0297918 0 0 0.0477468 0.0959989 0.143744 0.190568 0.236479 0.281677 0.32648 0.371242 0.416021 0.460783 0.505525 0.550361 0.595525 0.641245 0.687433 0.734005 0.781879 0.83268 0.881795 0.928984 0.992521 1.09393 1.14036 1.1161 0.996021 0.720162 0.309677 0.0594111 0.00358296 0 0 0.0467653 0.0938092 0.140314 0.186089 0.231319 0.276281 0.321166 0.366085 0.411125 0.456316 0.501673 0.547289 0.593299 0.639721 0.686797 0.73521 0.785776 0.834529 0.882525 0.945898 1.04347 1.0961 1.08527 0.991625 0.761397 0.381132 0.0932246 0.0085129 0.000192057 0 0 0.0456196 0.0913865 0.136766 0.181855 0.226821 0.271801 0.316871 0.362077 0.407471 0.453101 0.499 0.545237 0.591979 0.639481 0.688299 0.738263 0.786709 0.836194 0.902718 0.996216 1.04837 1.04491 0.967641 0.769675 0.424075 0.122568 0.015111 0.000545483 3.30469e-06 0 0 0.0445803 0.0893331 0.133924 0.178591 0.223472 0.268602 0.313952 0.359494 0.405243 0.451258 0.497671 0.544652 0.592416 0.641273 0.690331 0.738799 0.791368 0.863947 0.950679 0.997972 0.996601 0.927952 0.750781 0.436399 0.140607 0.0213005 0.00106819 1.10059e-05 2.59062e-08 0 0 0.0437566 0.0877108 0.131872 0.176442 0.221495 0.266906 0.312561 0.358419 0.40452 0.451003 0.498047 0.545842 0.594199 0.642571 0.692298 0.75076 0.830218 0.903909 0.944554 0.940667 0.874274 0.70849 0.419616 0.143866 0.0248145 0.00155151 2.33879e-05 7.3742e-08 2.58047e-10 0 0 0.0431313 0.0866757 0.130635 0.175437 0.220806 0.266538 0.312503 0.358707 0.40526 0.452249 0.499665 0.547417 0.596408 0.650553 0.717905 0.79508 0.853446 0.885986 0.876131 0.806685 0.644802 0.377216 0.132342 0.0243808 0.00174072 3.35428e-05 1.39756e-07 5.78717e-10 1.67711e-12 0 0 0.0431515 0.0862373 0.130994 0.175961 0.221725 0.267693 0.313715 0.359874 0.406443 0.453918 0.503087 0.556356 0.618183 0.689072 0.751366 0.798643 0.819611 0.80095 0.723822 0.560559 0.314293 0.109081 0.0202474 0.00152982 3.34733e-05 1.72893e-07 8.57353e-10 3.11871e-12 1.48689e-13 0 0 0.035637 0.0900906 0.128236 0.181119 0.228204 0.274365 0.32066 0.367917 0.417238 0.468643 0.524944 0.587581 0.649345 0.700801 0.736516 0.743849 0.712565 0.623536 0.456972 0.238099 0.0792605 0.0139885 0.00104187 2.32508e-05 1.39191e-07 8.55875e-10 3.84663e-12 1.84846e-14 -1.08801e-15 0 0 0.0415407 0.0268245 0.136302 0.194099 0.244556 0.292774 0.340251 0.387811 0.437817 0.496021 0.555741 0.6101 0.654585 0.674818 0.664976 0.614102 0.507066 0.339406 0.159833 0.0490884 0.00775875 0.000529165 1.09073e-05 7.30963e-08 5.75531e-10 3.11126e-12 1.74678e-14 -1.54642e-16 -4.25051e-16 0 0 -0.208088 0.0838476 0.166538 0.229289 0.286004 0.340571 0.392998 0.441739 0.482559 0.52479 0.584141 0.651192 0.673808 0.648137 0.5569 0.406027 0.230317 0.0938687 0.0244907 0.00326304 0.000186342 3.26482e-06 2.55355e-08 2.56148e-10 1.66333e-12 -1.21292e-13 7.2058e-17 -7.35012e-16 1.35654e-13 0 0 0 0 0 0 0 0 0 0 0 0 0 0 0 0 0 0 0 0 0 0 0 0 0 0 0 0 0 0 0 0
				</DataArray>
				<DataArray Name="VitesseY" type="Float32" format="ascii">
 0 0 0 0 0 0 0 0 0 0 0 0 0 0 0 0 0 0 0 0 0 0 0 0 0 0 0 0 0 0 0 -0.0399445 0.125679 0.127659 0.102942 0.0576152 0.0195953 0.00834438 0.0100294 0.0146334 0.0204361 0.0269882 0.033014 0.0380115 0.0421959 0.0454729 0.0475792 0.0485523 0.0487913 0.0487389 0.0484223 0.0477484 0.0467669 0.0456181 0.0445866 0.0437432 0.0431315 0.0432339 0.0452597 0.0485739 0.0598442 0 -0.108232 0.126258 0.211754 0.184607 0.132574 0.0737724 0.0445418 0.040703 0.0462342 0.0540252 0.0635426 0.0734838 0.0818248 0.0886636 0.0937938 0.0970133 0.0984667 0.0987575 0.0985257 0.0976324 0.0960015 0.0938107 0.0913895 0.0893257 0.087729 0.0865925 0.0868116 0.0905313 0.0979711 0.117513 0 -0.125262 0.0805453 0.239155 0.235667 0.204851 0.151078 0.108304 0.0978779 0.0985366 0.102834 0.110641 0.120595 0.129813 0.13739 0.143158 0.14675 0.148323 0.148525 0.147998 0.146408 0.143747 0.140317 0.136766 0.133925 0.131869 0.130626 0.131046 0.136239 0.147327 0.174565 0 -0.09103 0.0810543 0.269788 0.28158 0.256811 0.210592 0.163863 0.146323 0.145421 0.150535 0.159263 0.16983 0.17957 0.187291 0.19296 0.196389 0.197722 0.19771 0.196688 0.194248 0.190571 0.186091 0.181856 0.178591 0.176439 0.17543 0.176136 0.182281 0.196404 0.230916 0 -0.0332705 0.103953 0.271341 0.299887 0.289358 0.258677 0.218196 0.196643 0.19482 0.198717 0.206385 0.217613 0.229011 0.23732 0.242959 0.245981 0.246813 0.24638 0.244503 0.241071 0.236482 0.231321 0.226822 0.223472 0.221493 0.220809 0.221776 0.228373 0.244953 0.286363 0 0.0624242 0.166458 0.292423 0.319052 0.316415 0.302654 0.272918 0.245657 0.240408 0.242632 0.250332 0.262346 0.275992 0.285866 0.292032 0.294935 0.295425 0.294406 0.291505 0.28704 0.28168 0.276282 0.271801 0.268602 0.266905 0.26654 0.267703 0.2744 0.292849 0.340639 0 0.1528 0.229975 0.327235 0.35632 0.351047 0.335566 0.310547 0.286526 0.281884 0.283948 0.291189 0.303825 0.319692 0.33184 0.339085 0.342335 0.342765 0.341407 0.337752 0.332414 0.326482 0.321166 0.316871 0.313952 0.312561 0.312504 0.313717 0.320665 0.340262 0.393003 0 0.238059 0.296442 0.36443 0.389446 0.386119 0.376256 0.357039 0.333264 0.324431 0.324753 0.330889 0.343069 0.359911 0.374429 0.383267 0.387418 0.388224 0.386961 0.383167 0.37741 0.371243 0.366085 0.362077 0.359494 0.358419 0.358707 0.359874 0.367916 0.387809 0.441735 0 0.314324 0.360608 0.406569 0.42537 0.423442 0.415234 0.399465 0.37865 0.36832 0.36786 0.372275 0.382935 0.398761 0.414587 0.424847 0.430263 0.431796 0.430969 0.427606 0.422069 0.416022 0.411125 0.40747 0.405243 0.40452 0.40526 0.406442 0.417236 0.437813 0.482555 0 0.381613 0.419637 0.449933 0.462336 0.463781 0.457404 0.444916 0.42697 0.414466 0.412186 0.41501 0.423973 0.4383 0.453972 0.465172 0.471629 0.47395 0.47369 0.471154 0.46633 0.460782 0.456315 0.453101 0.451258 0.451003 0.452249 0.453917 0.468641 0.496018 0.524787 0 0.442412 0.473139 0.493202 0.499143 0.50218 0.497833 0.488637 0.47464 0.461585 0.457988 0.459624 0.466658 0.479024 0.493798 0.505153 0.512236 0.515355 0.515695 0.514098 0.510286 0.505524 0.501672 0.499 0.497672 0.498047 0.499664 0.503086 0.524941 0.555738 0.584137 0 0.497039 0.521516 0.534436 0.536931 0.539533 0.537595 0.531384 0.521287 0.509899 0.505477 0.506175 0.511395 0.521677 0.534783 0.545676 0.55293 0.556705 0.557659 0.556854 0.554201 0.55036 0.547288 0.545237 0.544652 0.545842 0.547417 0.556355 0.587579 0.610098 0.651191 0 0.546556 0.565894 0.573995 0.574912 0.576222 0.575742 0.572022 0.565367 0.557423 0.553576 0.553839 0.557972 0.566446 0.577625 0.587601 0.594582 0.598665 0.600104 0.59993 0.598305 0.595523 0.593298 0.591979 0.592416 0.594199 0.596407 0.618181 0.649343 0.654585 0.67381 0 0.59205 0.607077 0.612377 0.612771 0.613111 0.61329 0.611321 0.607606 0.603108 0.600942 0.601608 0.60546 0.612722 0.622162 0.631024 0.637546 0.64158 0.643409 0.643667 0.642819 0.641243 0.63972 0.63948 0.641272 0.64257 0.650552 0.689071 0.700801 0.67482 0.648142 0 0.63453 0.646114 0.650077 0.650493 0.650516 0.650838 0.65034 0.648864 0.647375 0.64721 0.64887 0.653023 0.659507 0.667628 0.675523 0.681479 0.685433 0.687573 0.688161 0.688039 0.687432 0.686796 0.688298 0.690331 0.692298 0.717904 0.751366 0.736517 0.66498 0.556908 0 0.67526 0.684089 0.687528 0.688296 0.688547 0.688974 0.68952 0.69004 0.690882 0.692567 0.695538 0.700118 0.70632 0.713618 0.720573 0.726125 0.730082 0.732281 0.733496 0.734125 0.734004 0.735209 0.738262 0.738799 0.75076 0.79508 0.798644 0.743852 0.614108 0.406036 0 0.715305 0.721818 0.725006 0.726328 0.727129 0.727953 0.729307 0.731408 0.734169 0.73755 0.741673 0.746856 0.753038 0.7597 0.766015 0.771348 0.775102 0.777744 0.77969 0.780494 0.781877 0.785775 0.786709 0.791368 0.830218 0.853448 0.819614 0.71257 0.507074 0.230324 0 0.755461 0.759842 0.762902 0.764876 0.766441 0.768019 0.770181 0.773356 0.77749 0.782241 0.787506 0.79323 0.799439 0.805883 0.811827 0.816748 0.820803 0.824101 0.826018 0.828048 0.832678 0.834529 0.836194 0.863948 0.903911 0.885989 0.800954 0.623543 0.339414 0.0938726 0 0.795975 0.798564 0.80159 0.80436 0.806901 0.809453 0.81245 0.816333 0.821211 0.826813 0.832813 0.839128 0.84568 0.852033 0.857749 0.862912 0.867375 0.87046 0.873553 0.879073 0.881795 0.882524 0.902718 0.95068 0.944556 0.876135 0.723828 0.456979 0.159838 0.024492 0 0.837196 0.838421 0.841545 0.845196 0.848811 0.852351 0.856104 0.860433 0.865599 0.871587 0.878116 0.884857 0.891576 0.898139 0.904343 0.909705 0.91389 0.918382 0.925008 0.928235 0.928984 0.945899 0.996218 0.997974 0.94067 0.80669 0.560566 0.238104 0.0490903 0.00326327 0 0.879712 0.879933 0.883324 0.887808 0.892334 0.896587 0.900833 0.905428 0.910757 0.916938 0.923732 0.93079 0.937964 0.944965 0.951138 0.956566 0.96283 0.970413 0.973668 0.975102 0.992522 1.04347 1.04838 0.996603 0.874279 0.644808 0.314298 0.0792626 0.00775912 0.000186358 0 0.924068 0.923535 0.927297 0.932381 0.937444 0.942025 0.946497 0.951262 0.956742 0.963118 0.970237 0.977753 0.985157 0.992074 0.999021 1.0073 1.01498 1.01808 1.02111 1.04298 1.09393 1.0961 1.04491 0.927955 0.708494 0.37722 0.109083 0.013989 0.000529196 3.26514e-06 0 0.970603 0.969482 0.97355 0.978912 0.984096 0.988727 0.993298 0.998248 1.004 1.01066 1.018 1.02564 1.03352 1.04222 1.05165 1.05824 1.06163 1.06845 1.0995 1.14679 1.14036 1.08527 0.967643 0.750784 0.419618 0.132343 0.0202478 0.00104191 1.09081e-05 2.55377e-08 0 1.01959 1.01804 1.02222 1.02752 1.03249 1.03704 1.04167 1.04682 1.05281 1.05979 1.06775 1.07674 1.0865 1.09487 1.10056 1.1058 1.12125 1.16534 1.19794 1.17847 1.1161 0.991626 0.769675 0.436399 0.143866 0.024381 0.00152985 2.32518e-05 7.31012e-08 2.56168e-10 0 1.07183 1.06995 1.07392 1.07869 1.08314 1.08748 1.09222 1.09783 1.10465 1.11286 1.12194 1.13032 1.13728 1.14377 1.15591 1.18756 1.23399 1.24114 1.20732 1.13418 0.996021 0.761395 0.424073 0.140606 0.0248144 0.00174072 3.34738e-05 1.39196e-07 5.75558e-10 1.66344e-12 0 1.13139 1.13001 1.13379 1.13806 1.14255 1.14649 1.15051 1.15517 1.16056 1.16664 1.17307 1.1814 1.19626 1.22685 1.27001 1.28885 1.27123 1.22334 1.1334 0.974297 0.720158 0.381128 0.122566 0.0213001 0.00155148 3.35423e-05 1.72893e-07 8.55888e-10 3.11132e-12 -1.21292e-13 0 1.10686 1.09837 1.10033 1.10754 1.1177 1.13761 1.16006 1.1827 1.20436 1.22611 1.24943 1.2751 1.3015 1.31705 1.30969 1.27909 1.21659 1.10287 0.916951 0.638803 0.309671 0.0932222 0.0151104 0.00106814 2.33869e-05 1.39751e-07 8.57339e-10 3.84663e-12 1.74679e-14 7.2058e-17 0 0.897356 0.902 0.855452 0.825461 0.862487 0.90793 0.958312 1.01054 1.06105 1.10658 1.15019 1.19322 1.22632 1.23831 1.22024 1.15404 1.02294 0.810549 0.512887 0.219648 0.0594089 0.0085125 0.00054545 1.1005e-05 7.37371e-08 5.7869e-10 3.11865e-12 1.84844e-14 -1.54642e-16 -7.35012e-16 0 0.757122 0.513129 0.267696 0.311762 0.351068 0.402868 0.465081 0.537169 0.617235 0.693053 0.746799 0.783831 0.830115 0.87839 0.884705 0.812033 0.624359 0.351031 0.129891 0.0297901 0.00358271 0.000192041 3.30437e-06 2.5904e-08 2.58027e-10 1.67701e-12 1.48689e-13 -1.08801e-15 -4.25051e-16 1.35654e-13 0 1.8297 0 0 0 0 0 0 0 0 0 0 0 0 0 0 0 0 0 0 0 0 0 0 0 0 0 0 0 0 0 0
				</DataArray>
			</PointData>
			<CellData Scalars="Density">
				<DataArray Name="Density" type="Float32" format="ascii">