<?xml version="1.0"?>
<VTKFile type="PolyData">
	<PolyData>
		<Piece NumberOfPoints="961" NumberOfPolys="900">
			<Points>
				<DataArray type="Float32" NumberOfComponents="3" format="ascii">
 0 0 0 0.04 0 0 0.08 0 0 0.12 0 0 0.16 0 0 0.2 0 0 0.24 0 0 0.28 0 0 0.32 0 0 0.36 0 0 0.4 0 0 0.44 0 0 0.48 0 0 0.52 0 0 0.56 0 0 0.6 0 0 0.64 0 0 0.68 0 0 0.72 0 0 0.76 0 0 0.8 0 0 0.84 0 0 0.88 0 0 0.92 0 0 0.96 0 0 1 0 0 1.04 0 0 1.08 0 0 1.12 0 0 1.16 0 0 1.2 0 0 0 0.04 0 0.04 0.04 0 0.08 0.04 0 0.12 0.04 0 0.16 0.04 0 0.2 0.04 0 0.24 0.04 0 0.28 0.04 0 0.32 0.04 0 0.36 0.04 0 0.4 0.04 0 0.44 0.04 0 0.48 0.04 0 0.52 0.04 0 0.56 0.04 0 0.6 0.04 0 0.64 0.04 0 0.68 0.04 0 0.72 0.04 0 0.76 0.04 0 0.8 0.04 0 0.84 0.04 0 0.88 0.04 0 0.92 0.04 0 0.96 0.04 0 1 0.04 0 1.04 0.04 0 1.08 0.04 0 1.12 0.04 0 1.16 0.04 0 1.2 0.04 0 0 0.08 0 0.04 0.08 0 0.08 0.08 0 0.12 0.08 0 0.16 0.08 0 0.2 0.08 0 0.24 0.08 0 0.28 0.08 0 0.32 0.08 0 0.36 0.08 0 0.4 0.08 0 0.44 0.08 0 0.48 0.08 0 0.52 0.08 0 0.56 0.08 0 0.6 0.08 0 0.64 0.08 0 0.68 0.08 0 0.72 0.08 0 0.76 0.08 0 0.8 0.08 0 0.84 0.08 0 0.88 0.08 0 0.92 0.08 0 0.96 0.08 0 1 0.08 0 1.04 0.08 0 1.08 0.08 0 1.12 0.08 0 1.16 0.08 0 1.2 0.08 0 0 0.12 0 0.04 0.12 0 0.08 0.12 0 0.12 0.12 0 0.16 0.12 0 0.2 0.12 0 0.24 0.12 0 0.28 0.12 0 0.32 0.12 0 0.36 0.12 0 0.4 0.12 0 0.44 0.12 0 0.48 0.12 0 0.52 0.12 0 0.56 0.12 0 0.6 0.12 0 0.64 0.12 0 0.68 0.12 0 0.72 0.12 0 0.76 0.12 0 0.8 0.12 0 0.84 0.12 0 0.88 0.12 0 0.92 0.12 0 0.96 0.12 0 1 0.12 0 1.04 0.12 0 1.08 0.12 0 1.12 0.12 0 1.16 0.12 0 1.2 0.12 0 0 0.16 0 0.04 0.16 0 0.08 0.16 0 0.12 0.16 0 0.16 0.16 0 0.2 0.16 0 0.24 0.16 0 0.28 0.16 0 0.32 0.16 0 0.36 0.16 0 0.4 0.16 0 0.44 0.16 0 0.48 0.16 0 0.52 0.16 0 0.56 0.16 0 0.6 0.16 0 0.64 0.16 0 0.68 0.16 0 0.72 0.16 0 0.76 0.16 0 0.8 0.16 0 0.84 0.16 0 0.88 0.16 0 0.92 0.16 0 0.96 0.16 0 1 0.16 0 1.04 0.16 0 1.08 0.16 0 1.12 0.16 0 1.16 0.16 0 1.2 0.16 0 0 0.2 0 0.04 0.2 0 0.08 0.2 0 0.12 0.2 0 0.16 0.2 0 0.2 0.2 0 0.24 0.2 0 0.28 0.2 0 0.32 0.2 0 0.36 0.2 0 0.4 0.2 0 0.44 0.2 0 0.48 0.2 0 0.52 0.2 0 0.56 0.2 0 0.6 0.2 0 0.64 0.2 0 0.68 0.2 0 0.72 0.2 0 0.76 0.2 0 0.8 0.2 0 0.84 0.2 0 0.88 0.2 0 0.92 0.2 0 0.96 0.2 0 1 0.2 0 1.04 0.2 0 1.08 0.2 0 1.12 0.2 0 1.16 0.2 0 1.2 0.2 0 0 0.24 0 0.04 0.24 0 0.08 0.24 0 0.12 0.24 0 0.16 0.24 0 0.2 0.24 0 0.24 0.24 0 0.28 0.24 0 0.32 0.24 0 0.36 0.24 0 0.4 0.24 0 0.44 0.24 0 0.48 0.24 0 0.52 0.24 0 0.56 0.24 0 0.6 0.24 0 0.64 0.24 0 0.68 0.24 0 0.72 0.24 0 0.76 0.24 0 0.8 0.24 0 0.84 0.24 0 0.88 0.24 0 0.92 0.24 0 0.96 0.24 0 1 0.24 0 1.04 0.24 0 1.08 0.24 0 1.12 0.24 0 1.16 0.24 0 1.2 0.24 0 0 0.28 0 0.04 0.28 0 0.08 0.28 0 0.12 0.28 0 0.16 0.28 0 0.2 0.28 0 0.24 0.28 0 0.28 0.28 0 0.32 0.28 0 0.36 0.28 0 0.4 0.28 0 0.44 0.28 0 0.48 0.28 0 0.52 0.28 0 0.56 0.28 0 0.6 0.28 0 0.64 0.28 0 0.68 0.28 0 0.72 0.28 0 0.76 0.28 0 0.8 0.28 0 0.84 0.28 0 0.88 0.28 0 0.92 0.28 0 0.96 0.28 0 1 0.28 0 1.04 0.28 0 1.08 0.28 0 1.12 0.28 0 1.16 0.28 0 1.2 0.28 0 0 0.32 0 0.04 0.32 0 0.08 0.32 0 0.12 0.32 0 0.16 0.32 0 0.2 0.32 0 0.24 0.32 0 0.28 0.32 0 0.32 0.32 0 0.36 0.32 0 0.4 0.32 0 0.44 0.32 0 0.48 0.32 0 0.52 0.32 0 0.56 0.32 0 0.6 0.32 0 0.64 0.32 0 0.68 0.32 0 0.72 0.32 0 0.76 0.32 0 0.8 0.32 0 0.84 0.32 0 0.88 0.32 0 0.92 0.32 0 0.96 0.32 0 1 0.32 0 1.04 0.32 0 1.08 0.32 0 1.12 0.32 0 1.16 0.32 0 1.2 0.32 0 0 0.36 0 0.04 0.36 0 0.08 0.36 0 0.12 0.36 0 0.16 0.36 0 0.2 0.36 0 0.24 0.36 0 0.28 0.36 0 0.32 0.36 0 0.36 0.36 0 0.4 0.36 0 0.44 0.36 0 0.48 0.36 0 0.52 0.36 0 0.56 0.36 0 0.6 0.36 0 0.64 0.36 0 0.68 0.36 0 0.72 0.36 0 0.76 0.36 0 0.8 0.36 0 0.84 0.36 0 0.88 0.36 0 0.92 0.36 0 0.96 0.36 0 1 0.36 0 1.04 0.36 0 1.08 0.36 0 1.12 0.36 0 1.16 0.36 0 1.2 0.36 0 0 0.4 0 0.04 0.4 0 0.08 0.4 0 0.12 0.4 0 0.16 0.4 0 0.2 0.4 0 0.24 0.4 0 0.28 0.4 0 0.32 0.4 0 0.36 0.4 0 0.4 0.4 0 0.44 0.4 0 0.48 0.4 0 0.52 0.4 0 0.56 0.4 0 0.6 0.4 0 0.64 0.4 0 0.68 0.4 0 0.72 0.4 0 0.76 0.4 0 0.8 0.4 0 0.84 0.4 0 0.88 0.4 0 0.92 0.4 0 0.96 0.4 0 1 0.4 0 1.04 0.4 0 1.08 0.4 0 1.12 0.4 0 1.16 0.4 0 1.2 0.4 0 0 0.44 0 0.04 0.44 0 0.08 0.44 0 0.12 0.44 0 0.16 0.44 0 0.2 0.44 0 0.24 0.44 0 0.28 0.44 0 0.32 0.44 0 0.36 0.44 0 0.4 0.44 0 0.44 0.44 0 0.48 0.44 0 0.52 0.44 0 0.56 0.44 0 0.6 0.44 0 0.64 0.44 0 0.68 0.44 0 0.72 0.44 0 0.76 0.44 0 0.8 0.44 0 0.84 0.44 0 0.88 0.44 0 0.92 0.44 0 0.96 0.44 0 1 0.44 0 1.04 0.44 0 1.08 0.44 0 1.12 0.44 0 1.16 0.44 0 1.2 0.44 0 0 0.48 0 0.04 0.48 0 0.08 0.48 0 0.12 0.48 0 0.16 0.48 0 0.2 0.48 0 0.24 0.48 0 0.28 0.48 0 0.32 0.48 0 0.36 0.48 0 0.4 0.48 0 0.44 0.48 0 0.48 0.48 0 0.52 0.48 0 0.56 0.48 0 0.6 0.48 0 0.64 0.48 0 0.68 0.48 0 0.72 0.48 0 0.76 0.48 0 0.8 0.48 0 0.84 0.48 0 0.88 0.48 0 0.92 0.48 0 0.96 0.48 0 1 0.48 0 1.04 0.48 0 1.08 0.48 0 1.12 0.48 0 1.16 0.48 0 1.2 0.48 0 0 0.52 0 0.04 0.52 0 0.08 0.52 0 0.12 0.52 0 0.16 0.52 0 0.2 0.52 0 0.24 0.52 0 0.28 0.52 0 0.32 0.52 0 0.36 0.52 0 0.4 0.52 0 0.44 0.52 0 0.48 0.52 0 0.52 0.52 0 0.56 0.52 0 0.6 0.52 0 0.64 0.52 0 0.68 0.52 0 0.72 0.52 0 0.76 0.52 0 0.8 0.52 0 0.84 0.52 0 0.88 0.52 0 0.92 0.52 0 0.96 0.52 0 1 0.52 0 1.04 0.52 0 1.08 0.52 0 1.12 0.52 0 1.16 0.52 0 1.2 0.52 0 0 0.56 0 0.04 0.56 0 0.08 0.56 0 0.12 0.56 0 0.16 0.56 0 0.2 0.56 0 0.24 0.56 0 0.28 0.56 0 0.32 0.56 0 0.36 0.56 0 0.4 0.56 0 0.44 0.56 0 0.48 0.56 0 0.52 0.56 0 0.56 0.56 0 0.6 0.56 0 0.64 0.56 0 0.68 0.56 0 0.72 0.56 0 0.76 0.56 0 0.8 0.56 0 0.84 0.56 0 0.88 0.56 0 0.92 0.56 0 0.96 0.56 0 1 0.56 0 1.04 0.56 0 1.08 0.56 0 1.12 0.56 0 1.16 0.56 0 1.2 0.56 0 0 0.6 0 0.04 0.6 0 0.08 0.6 0 0.12 0.6 0 0.16 0.6 0 0.2 0.6 0 0.24 0.6 0 0.28 0.6 0 0.32 0.6 0 0.36 0.6 0 0.4 0.6 0 0.44 0.6 0 0.48 0.6 0 0.52 0.6 0 0.56 0.6 0 0.6 0.6 0 0.64 0.6 0 0.68 0.6 0 0.72 0.6 0 0.76 0.6 0 0.8 0.6 0 0.84 0.6 0 0.88 0.6 0 0.92 0.6 0 0.96 0.6 0 1 0.6 0 1.04 0.6 0 1.08 0.6 0 1.12 0.6 0 1.16 0.6 0 1.2 0.6 0 0 0.64 0 0.04 0.64 0 0.08 0.64 0 0.12 0.64 0 0.16 0.64 0 0.2 0.64 0 0.24 0.64 0 0.28 0.64 0 0.32 0.64 0 0.36 0.64 0 0.4 0.64 0 0.44 0.64 0 0.48 0.64 0 0.52 0.64 0 0.56 0.64 0 0.6 0.64 0 0.64 0.64 0 0.68 0.64 0 0.72 0.64 0 0.76 0.64 0 0.8 0.64 0 0.84 0.64 0 0.88 0.64 0 0.92 0.64 0 0.96 0.64 0 1 0.64 0 1.04 0.64 0 1.08 0.64 0 1.12 0.64 0 1.16 0.64 0 1.2 0.64 0 0 0.68 0 0.04 0.68 0 0.08 0.68 0 0.12 0.68 0 0.16 0.68 0 0.2 0.68 0 0.24 0.68 0 0.28 0.68 0 0.32 0.68 0 0.36 0.68 0 0.4 0.68 0 0.44 0.68 0 0.48 0.68 0 0.52 0.68 0 0.56 0.68 0 0.6 0.68 0 0.64 0.68 0 0.68 0.68 0 0.72 0.68 0 0.76 0.68 0 0.8 0.68 0 0.84 0.68 0 0.88 0.68 0 0.92 0.68 0 0.96 0.68 0 1 0.68 0 1.04 0.68 0 1.08 0.68 0 1.12 0.68 0 1.16 0.68 0 1.2 0.68 0 0 0.72 0 0.04 0.72 0 0.08 0.72 0 0.12 0.72 0 0.16 0.72 0 0.2 0.72 0 0.24 0.72 0 0.28 0.72 0 0.32 0.72 0 0.36 0.72 0 0.4 0.72 0 0.44 0.72 0 0.48 0.72 0 0.52 0.72 0 0.56 0.72 0 0.6 0.72 0 0.64 0.72 0 0.68 0.72 0 0.72 0.72 0 0.76 0.72 0 0.8 0.72 0 0.84 0.72 0 0.88 0.72 0 0.92 0.72 0 0.96 0.72 0 1 0.72 0 1.04 0.72 0 1.08 0.72 0 1.12 0.72 0 1.16 0.72 0 1.2 0.72 0 0 0.76 0 0.04 0.76 0 0.08 0.76 0 0.12 0.76 0 0.16 0.76 0 0.2 0.76 0 0.24 0.76 0 0.28 0.76 0 0.32 0.76 0 0.36 0.76 0 0.4 0.76 0 0.44 0.76 0 0.48 0.76 0 0.52 0.76 0 0.56 0.76 0 0.6 0.76 0 0.64 0.76 0 0.68 0.76 0 0.72 0.76 0 0.76 0.76 0 0.8 0.76 0 0.84 0.76 0 0.88 0.76 0 0.92 0.76 0 0.96 0.76 0 1 0.76 0 1.04 0.76 0 1.08 0.76 0 1.12 0.76 0 1.16 0.76 0 1.2 0.76 0 0 0.8 0 0.04 0.8 0 0.08 0.8 0 0.12 0.8 0 0.16 0.8 0 0.2 0.8 0 0.24 0.8 0 0.28 0.8 0 0.32 0.8 0 0.36 0.8 0 0.4 0.8 0 0.44 0.8 0 0.48 0.8 0 0.52 0.8 0 0.56 0.8 0 0.6 0.8 0 0.64 0.8 0 0.68 0.8 0 0.72 0.8 0 0.76 0.8 0 0.8 0.8 0 0.84 0.8 0 0.88 0.8 0 0.92 0.8 0 0.96 0.8 0 1 0.8 0 1.04 0.8 0 1.08 0.8 0 1.12 0.8 0 1.16 0.8 0 1.2 0.8 0 0 0.84 0 0.04 0.84 0 0.08 0.84 0 0.12 0.84 0 0.16 0.84 0 0.2 0.84 0 0.24 0.84 0 0.28 0.84 0 0.32 0.84 0 0.36 0.84 0 0.4 0.84 0 0.44 0.84 0 0.48 0.84 0 0.52 0.84 0 0.56 0.84 0 0.6 0.84 0 0.64 0.84 0 0.68 0.84 0 0.72 0.84 0 0.76 0.84 0 0.8 0.84 0 0.84 0.84 0 0.88 0.84 0 0.92 0.84 0 0.96 0.84 0 1 0.84 0 1.04 0.84 0 1.08 0.84 0 1.12 0.84 0 1.16 0.84 0 1.2 0.84 0 0 0.88 0 0.04 0.88 0 0.08 0.88 0 0.12 0.88 0 0.16 0.88 0 0.2 0.88 0 0.24 0.88 0 0.28 0.88 0 0.32 0.88 0 0.36 0.88 0 0.4 0.88 0 0.44 0.88 0 0.48 0.88 0 0.52 0.88 0 0.56 0.88 0 0.6 0.88 0 0.64 0.88 0 0.68 0.88 0 0.72 0.88 0 0.76 0.88 0 0.8 0.88 0 0.84 0.88 0 0.88 0.88 0 0.92 0.88 0 0.96 0.88 0 1 0.88 0 1.04 0.88 0 1.08 0.88 0 1.12 0.88 0 1.16 0.88 0 1.2 0.88 0 0 0.92 0 0.04 0.92 0 0.08 0.92 0 0.12 0.92 0 0.16 0.92 0 0.2 0.92 0 0.24 0.92 0 0.28 0.92 0 0.32 0.92 0 0.36 0.92 0 0.4 0.92 0 0.44 0.92 0 0.48 0.92 0 0.52 0.92 0 0.56 0.92 0 0.6 0.92 0 0.64 0.92 0 0.68 0.92 0 0.72 0.92 0 0.76 0.92 0 0.8 0.92 0 0.84 0.92 0 0.88 0.92 0 0.92 0.92 0 0.96 0.92 0 1 0.92 0 1.04 0.92 0 1.08 0.92 0 1.12 0.92 0 1.16 0.92 0 1.2 0.92 0 0 0.96 0 0.04 0.96 0 0.08 0.96 0 0.12 0.96 0 0.16 0.96 0 0.2 0.96 0 0.24 0.96 0 0.28 0.96 0 0.32 0.96 0 0.36 0.96 0 0.4 0.96 0 0.44 0.96 0 0.48 0.96 0 0.52 0.96 0 0.56 0.96 0 0.6 0.96 0 0.64 0.96 0 0.68 0.96 0 0.72 0.96 0 0.76 0.96 0 0.8 0.96 0 0.84 0.96 0 0.88 0.96 0 0.92 0.96 0 0.96 0.96 0 1 0.96 0 1.04 0.96 0 1.08 0.96 0 1.12 0.96 0 1.16 0.96 0 1.2 0.96 0 0 1 0 0.04 1 0 0.08 1 0 0.12 1 0 0.16 1 0 0.2 1 0 0.24 1 0 0.28 1 0 0.32 1 0 0.36 1 0 0.4 1 0 0.44 1 0 0.48 1 0 0.52 1 0 0.56 1 0 0.6 1 0 0.64 1 0 0.68 1 0 0.72 1 0 0.76 1 0 0.8 1 0 0.84 1 0 0.88 1 0 0.92 1 0 0.96 1 0 1 1 0 1.04 1 0 1.08 1 0 1.12 1 0 1.16 1 0 1.2 1 0 0 1.04 0 0.04 1.04 0 0.08 1.04 0 0.12 1.04 0 0.16 1.04 0 0.2 1.04 0 0.24 1.04 0 0.28 1.04 0 0.32 1.04 0 0.36 1.04 0 0.4 1.04 0 0.44 1.04 0 0.48 1.04 0 0.52 1.04 0 0.56 1.04 0 0.6 1.04 0 0.64 1.04 0 0.68 1.04 0 0.72 1.04 0 0.76 1.04 0 0.8 1.04 0 0.84 1.04 0 0.88 1.04 0 0.92 1.04 0 0.96 1.04 0 1 1.04 0 1.04 1.04 0 1.08 1.04 0 1.12 1.04 0 1.16 1.04 0 1.2 1.04 0 0 1.08 0 0.04 1.08 0 0.08 1.08 0 0.12 1.08 0 0.16 1.08 0 0.2 1.08 0 0.24 1.08 0 0.28 1.08 0 0.32 1.08 0 0.36 1.08 0 0.4 1.08 0 0.44 1.08 0 0.48 1.08 0 0.52 1.08 0 0.56 1.08 0 0.6 1.08 0 0.64 1.08 0 0.68 1.08 0 0.72 1.08 0 0.76 1.08 0 0.8 1.08 0 0.84 1.08 0 0.88 1.08 0 0.92 1.08 0 0.96 1.08 0 1 1.08 0 1.04 1.08 0 1.08 1.08 0 1.12 1.08 0 1.16 1.08 0 1.2 1.08 0 0 1.12 0 
[...]
			<PointData Scalars="VitesseX">
				<DataArray Name="VitesseX" type="Float32" format="ascii">
 0 0.0175368 0.0262605 -0.00517459 0.0658253 0.110113 0.161661 0.201383 0.250599 0.295011 0.345015 0.390506 0.444534 0.555298 0.550042 0.449403 0.241476 0.0411272 0.000489905 7.40332e-08 5.52337e-12 1.82355e-15 -1.37987e-15 5.77234e-45 1.37987e-15 0 -1.37987e-15 1.37989e-15 -4.70732e-15 4.7073e-15 0 0 0.101391 0.116428 0.0821577 0.113824 0.1495 0.184033 0.21663 0.259894 0.299904 0.347507 0.389654 0.444732 0.552394 0.542987 0.439365 0.230942 0.0371713 0.000406979 6.20724e-08 4.93688e-12 1.78944e-15 -1.37987e-15 1.04792e-30 1.37987e-15 0 -1.37987e-15 1.37988e-15 -4.70266e-15 4.70264e-15 0 0 0.0762093 0.116915 0.11456 0.168842 0.190788 0.210795 0.234393 0.271894 0.307202 0.354276 0.391191 0.454289 0.55241 0.531197 0.416534 0.202657 0.0271948 0.000232039 3.70562e-08 3.50507e-12 3.28701e-15 -6.89934e-16 -2.01447e-30 -1.63864e-15 -2.58367e-36 1.63864e-15 7.05415e-16 -4.69713e-15 2.35977e-15 0 0 0.0355678 0.0850664 0.12723 0.197426 0.202203 0.231672 0.254127 0.289708 0.319112 0.365044 0.395754 0.475683 0.54978 0.512226 0.379421 0.159128 0.0155315 8.92167e-05 1.61262e-08 1.94642e-12 2.48516e-15 -2.32187e-15 -1.41087e-29 8.78394e-18 -1.22389e-20 -8.7717e-18 1.54756e-17 -2.34813e-15 2.34813e-15 0 0 0.0268815 0.0810684 0.143988 0.18619 0.208829 0.237153 0.275584 0.302681 0.336055 0.375937 0.405203 0.504378 0.539344 0.481597 0.323919 0.104942 0.00654464 2.25271e-05 5.14515e-09 8.23082e-13 9.29729e-17 1.54757e-17 -2.33735e-15 2.33736e-15 -1.22389e-20 7.0722e-30 -2.33735e-15 5.3568e-30 2.33735e-15 0 0 0.0295305 0.0818606 0.134046 0.176164 0.206955 0.244886 0.284083 0.308694 0.353914 0.379121 0.425245 0.523071 0.518605 0.432196 0.245945 0.0533738 0.00190606 3.61554e-06 1.16704e-09 2.56005e-13 2.35535e-15 3.50113e-23 -3.50114e-23 -2.33735e-15 -1.79893e-30 2.33743e-15 3.22407e-17 -2.36972e-15 4.57942e-20 0 0 0.033419 0.0759639 0.121827 0.165556 0.206973 0.249417 0.278398 0.32062 0.356635 0.380199 0.465519 0.517894 0.480877 0.356779 0.151127 0.0195288 0.000357216 3.78388e-07 1.79455e-10 5.7373e-14 8.55525e-19 5.94236e-20 -5.94236e-20 -2.33735e-15 -1.12713e-19 2.3699e-15 -1.3661e-14 1.36609e-14 -2.36971e-15 0 0 0.0314906 0.0705662 0.112866 0.158504 0.20277 0.238149 0.280629 0.324215 0.347164 0.401756 0.489799 0.488853 0.416254 0.249909 0.0665812 0.00463776 3.88526e-05 3.19179e-08 1.95777e-11 8.7592e-15 2.90691e-20 -6.83755e-15 4.48118e-15 2.38878e-15 -1.9672e-19 -1.36608e-14 -1.88419e-23 1.88419e-23 1.36609e-14 0 0 0.0311472 0.0667884 0.106779 0.149595 0.191262 0.236515 0.280849 0.30977 0.354136 0.445217 0.473204 0.434202 0.313891 0.127987 0.0193742 0.000640664 2.21301e-06 2.39604e-09 1.7895e-12 1.00144e-14 -1.36915e-14 6.85396e-15 4.44877e-15 2.38878e-15 -1.96723e-19 -1.36608e-14 -7.5206e-18 7.49093e-18 1.36609e-14 0 0 0.0309701 0.0655412 0.103655 0.145015 0.188817 0.231385 0.266864 0.314368 0.397915 0.441128 0.424053 0.339679 0.177568 0.0426612 0.00325401 4.39927e-05 7.96591e-08 1.21348e-10 1.23624e-13 -6.87623e-15 1.37238e-18 1.36591e-14 -2.36971e-15 -1.64557e-30 -1.12717e-19 2.36971e-15 -1.36683e-14 1.08433e-17 1.12788e-14 0 0 0.031897 0.0663656 0.10333 0.142562 0.18284 0.224876 0.280091 0.354287 0.398551 0.394924 0.334794 0.20155 0.0637535 0.00815307 0.000267033 1.28235e-06 2.92224e-09 4.69718e-12 6.15196e-15 -1.60519e-14 1.60538e-14 -2.36989e-15 2.36982e-15 -2.36971e-15 -2.16695e-37 -1.12455e-19 4.73956e-15 -1.8397e-14 1.60182e-14 0 0 0.0325034 0.0668237 0.103594 0.144306 0.192184 0.252204 0.310849 0.350295 0.351742 0.30648 0.198172 0.073668 0.012871 0.000730789 8.25664e-06 2.53794e-08 7.35226e-11 1.72432e-13 1.17223e-16 -2.35898e-17 2.39331e-15 -2.36971e-15 2.35682e-15 -2.35681e-15 -4.0201e-20 -1.16133e-17 4.75108e-15 -4.73958e-15 -1.12917e-14 0 0 0.036333 0.0759749 0.120107 0.168453 0.218158 0.263723 0.296506 0.297752 0.260489 0.171898 0.0693144 0.0144372 0.00113898 2.27896e-05 1.07504e-07 5.02579e-10 1.59484e-12 -1.19669e-14 1.60048e-14 -1.87012e-19 -1.36571e-14 1.36572e-14 -1.60415e-14 1.60416e-14 -2.21238e-19 -1.14243e-17 -4.18451e-14 4.18563e-14 -1.36612e-14 0 0 0.0434576 0.0874524 0.130718 0.173495 0.21196 0.235368 0.234707 0.201075 0.129908 0.0534734 0.0119781 0.00112071 3.12745e-05 2.23809e-07 1.49137e-09 6.61205e-12 2.80167e-14 1.44567e-17 1.3659e-14 3.77552e-20 -1.36573e-14 1.36472e-14 -1.3649e-14 -3.69915e-18 1.64607e-18 1.60304e-14 -4.42262e-14 4.42259e-14 -1.60354e-14 0 0 0.0430624 0.0840981 0.120872 0.150926 0.167317 0.163239 0.133351 0.0815694 0.0325481 0.00716667 0.000699979 2.25486e-05 2.22546e-07 2.11144e-09 1.36075e-11 9.18884e-14 -1.34073e-14 9.99265e-18 1.12893e-14 2.36972e-15 -8.37409e-20 -2.37962e-15 -1.12819e-14 -1.12254e-18 1.53026e-18 -1.34224e-19 1.60306e-14 -1.60306e-14 -4.97084e-18 0 0 0.0347237 0.0641908 0.0856936 0.0951862 0.0895149 0.0687936 0.0388464 0.0140405 0.00278157 0.000252325 8.08928e-06 1.05522e-07 1.47728e-09 1.35282e-11 1.28628e-13 6.42326e-16 2.37056e-15 -1.36589e-14 1.12892e-14 -1.12892e-14 1.36589e-14 -1.60312e-14 2.36972e-15 1.60311e-14 -3.35956e-19 -3.20607e-14 3.20608e-14 -3.20608e-14 3.20613e-14 0 0 0.0175767 0.0298739 0.0350725 0.0325951 0.0232021 0.0112754 0.00338824 0.000551857 4.14883e-05 1.23751e-06 2.45259e-08 4.92529e-10 6.51621e-12 8.63804e-14 6.42688e-16 2.37049e-15 -2.36982e-15 2.36984e-15 -2.3698e-15 -1.12894e-14 -3.58526e-18 9.58984e-19 1.60316e-14 -1.60309e-14 -3.91101e-20 -1.34242e-19 1.60306e-14 -1.60306e-14 -4.97082e-18 0 0 0.00368331 0.0055843 0.00511687 0.00309861 0.00119359 0.000275982 3.42865e-05 2.05923e-06 7.41629e-08 2.78673e-09 7.07423e-11 1.51984e-12 2.75042e-14 1.39287e-14 -2.36885e-15 2.36982e-15 -2.36982e-15 2.36989e-15 -1.6041e-14 1.84104e-14 -3.2073e-14 3.2073e-14 -1.60357e-14 5.14947e-18 1.17434e-20 1.60302e-14 -4.42262e-14 4.42261e-14 -1.60354e-14 0 0 7.13604e-05 8.12255e-05 4.64237e-05 1.52518e-05 2.86529e-06 3.17952e-07 2.73799e-08 2.16542e-09 1.12525e-10 4.3672e-12 1.64591e-13 -7.29984e-15 -5.39109e-18 1.0052e-17 1.36588e-14 -2.36948e-15 2.36952e-15 -1.36683e-14 1.23999e-16 -2.83176e-14 2.83176e-14 -1.2686e-16 4.90645e-18 3.36023e-18 1.83885e-18 1.60302e-14 -4.42262e-14 2.81924e-14 -6.40698e-18 0 0 1.09311e-08 1.25897e-08 7.7702e-09 3.13087e-09 8.44283e-10 1.43749e-10 1.62448e-11 1.54251e-12 1.29885e-13 1.13402e-15 1.65103e-16 -1.13132e-14 1.3659e-14 -1.60287e-14 1.60286e-14 -2.36963e-15 -1.13015e-14 1.29534e-16 4.13135e-18 -2.83245e-14 2.8322e-14 -1.31249e-16 8.48744e-18 -2.59863e-19 1.82711e-18 -1.34242e-19 1.60306e-14 -3.20643e-14 1.6024e-14 0 0 5.86749e-13 8.42501e-13 7.18154e-13 4.05568e-13 1.57133e-13 4.6263e-14 2.36516e-15 -3.55289e-15 -6.87999e-15 1.12691e-14 2.34848e-17 4.73941e-15 -4.73927e-15 2.36955e-15 -1.60286e-14 1.60284e-14 -1.36709e-14 -2.8064e-14 2.80709e-14 -6.8988e-18 4.4283e-18 1.6036e-14 -3.20645e-14 3.20644e-14 -2.04551e-22 -3.20607e-14 3.20607e-14 -1.60301e-14 1.60304e-14 0 0 3.37758e-17 -1.53167e-15 2.33358e-15 -4.58514e-15 2.35364e-15 8.55404e-19 -2.45584e-20 -1.36266e-14 -1.54517e-18 1.12674e-14 2.39295e-15 -1.36571e-14 1.36572e-14 -1.03544e-19 -1.36589e-14 -4.01586e-18 -8.14323e-18 -2.80641e-14 2.80685e-14 -4.49113e-18 1.38383e-17 -1.40985e-17 1.35453e-16 -1.27033e-16 1.89408e-18 2.96848e-19 1.603e-14 -1.603e-14 1.60303e-14 0 0 9.77779e-34 6.89934e-16 -2.32187e-15 1.54757e-17 6.78832e-30 5.94408e-20 -6.83766e-15 -6.78901e-15 1.36589e-14 -2.36952e-15 2.36962e-15 -1.36572e-14 1.36472e-14 -2.35974e-15 -1.12918e-14 -1.4194e-18 -8.15682e-18 1.26719e-16 -1.2233e-16 1.6036e-14 -3.20673e-14 1.60271e-14 1.2655e-16 -1.18595e-16 1.53736e-18 1.6031e-14 -1.60325e-14 -1.60319e-14 3.20648e-14 0 0 -1.7423e-50 1.37987e-15 -4.64374e-15 2.33735e-15 -7.45468e-24 5.94482e-20 -9.19403e-15 9.22644e-15 -2.36993e-15 2.36982e-15 -2.38254e-15 -1.12764e-14 1.36489e-14 -1.60213e-14 2.36972e-15 1.6031e-14 -1.60358e-14 -4.86143e-18 8.44242e-18 -5.12282e-19 1.19029e-16 -1.26922e-16 -3.73745e-20 8.2458e-18 4.79651e-18 -1.32312e-17 1.35329e-16 -1.28974e-16 -2.82024e-14 0 0 -6.99857e-30 -1.63864e-15 2.21919e-17 -2.33736e-15 2.33735e-15 -2.33735e-15 2.35075e-15 -2.35075e-15 -4.9931e-30 2.36971e-15 -2.38252e-15 -1.12763e-14 -3.90198e-18 1.25583e-18 1.6031e-14 -1.60304e-14 -5.66675e-18 3.80175e-18 -2.59869e-19 -6.69698e-20 1.27033e-16 -1.3539e-16 8.68406e-18 -2.59863e-19 5.19254e-18 -1.39718e-17 -2.80587e-14 4.40984e-14 -4.42354e-14 0 0 -3.82262e-29 -4.65715e-15 4.68811e-15 -4.67471e-15 1.7989e-30 -1.12713e-19 4.73956e-15 -4.73956e-15 1.12713e-19 2.1862e-37 4.02135e-20 4.73933e-15 -3.2063e-14 3.20628e-14 -2.5772e-19 -3.20607e-14 3.20608e-14 -3.20626e-14 3.20625e-14 2.00329e-22 -3.20626e-14 3.20623e-14 -3.20589e-14 3.20592e-14 -1.34247e-19 -4.27962e-19 -8.84576e-14 8.84571e-14 1.1458e-18 0 0 -7.72458e-30 -1.63864e-15 2.21797e-17 -1.42199e-29 -2.33726e-15 2.36951e-15 -1.36608e-14 1.36608e-14 -2.36971e-15 1.12455e-19 -1.16133e-17 4.75099e-15 -1.6031e-14 1.34242e-19 1.05187e-37 -1.34242e-19 1.60306e-14 -1.60306e-14 1.34242e-19 2.62339e-33 2.96831e-19 1.60297e-14 -3.20673e-14 3.20673e-14 7.37905e-20 -4.42493e-14 2.72809e-16 -2.72738e-16 4.42496e-14 0 0 -4.36338e-31 7.0541e-16 -4.65922e-15 2.33735e-15 3.24048e-17 -1.3661e-14 -7.21225e-35 -7.52059e-18 1.36683e-14 1.46826e-19 -1.16261e-17 -4.18449e-14 4.42257e-14 -1.60302e-14 -1.01661e-42 1.60302e-14 -4.42262e-14 4.42261e-14 -1.60302e-14 -1.2147e-19 1.60307e-14 -1.60325e-14 1.1867e-16 -2.83135e-14 -4.53771e-18 2.36905e-16 3.99522e-17 -3.98814e-17 -2.14574e-16 0 0 -2.87487e-16 -1.01321e-15 -2.33735e-15 -3.63125e-30 2.36962e-15 -1.36608e-14 3.75613e-23 -7.5503e-18 1.09027e-17 1.36576e-14 -1.15692e-19 -4.18567e-14 4.42259e-14 -1.60302e-14 -7.14056e-43 1.60302e-14 -4.42262e-14 2.81924e-14 3.57879e-18 1.60305e-14 -1.60305e-14 -1.60357e-14 3.21927e-14 -4.43542e-14 -4.04062e-18 2.36975e-16 3.98815e-17 -3.98814e-17 -2.14574e-16 0 0 -1.91699e-11 -3.35487e-15 2.33735e-15 -2.33735e-15 -4.57946e-20 2.3697e-15 -1.36609e-14 1.36609e-14 -1.60363e-14 1.60364e-14 -1.60314e-14 1.84009e-14 -1.60362e-14 5.84541e-18 -7.84211e-47 -5.84541e-18 1.60362e-14 -3.20747e-14 1.60444e-14 1.60303e-14 -1.60304e-14 -3.3861e-18 -2.82038e-14 4.42367e-14 3.50123e-19 -4.42488e-14 2.94336e-16 -2.94336e-16 4.42492e-14 0 0 0 0 0 0 0 0 0 0 0 0 0 0 0 0 0 0 0 0 0 0 0 0 0 0 0 0 0 0 0 0
				</DataArray>
				<DataArray Name="VitesseY" type="Float32" format="ascii">