<?xml version="1.0"?>
<VTKFile type="PolyData">
	<PolyData>
		<Piece NumberOfPoints="961" NumberOfPolys="900">
			<Points>
				<DataArray type="Float32" NumberOfComponents="3" format="ascii">
 0 0 0 0.04 0 0 0.08 0 0 0.12 0 0 0.16 0 0 0.2 0 0 0.24 0 0 0.28 0 0 0.32 0 0 0.36 0 0 0.4 0 0 0.44 0 0 0.48 0 0 0.52 0 0 0.56 0 0 0.6 0 0 0.64 0 0 0.68 0 0 0.72 0 0 0.76 0 0 0.8 0 0 0.84 0 0 0.88 0 0 0.92 0 0 0.96 0 0 1 0 0 1.04 0 0 1.08 0 0 1.12 0 0 1.16 0 0 1.2 0 0 0 0.04 0 0.04 0.04 0 0.08 0.04 0 0.12 0.04 0 0.16 0.04 0 0.2 0.04 0 0.24 0.04 0 0.28 0.04 0 0.32 0.04 0 0.36 0.04 0 0.4 0.04 0 0.44 0.04 0 0.48 0.04 0 0.52 0.04 0 0.56 0.04 0 0.6 0.04 0 0.64 0.04 0 0.68 0.04 0 0.72 0.04 0 0.76 0.04 0 0.8 0.04 0 0.84 0.04 0 0.88 0.04 0 0.92 0.04 0 0.96 0.04 0 1 0.04 0 1.04 0.04 0 1.08 0.04 0 1.12 0.04 0 1.16 0.04 0 1.2 0.04 0 0 0.08 0 0.04 0.08 0 0.08 0.08 0 0.12 0.08 0 0.16 0.08 0 0.2 0.08 0 0.24 0.08 0 0.28 0.08 0 0.32 0.08 0 0.36 0.08 0 0.4 0.08 0 0.44 0.08 0 0.48 0.08 0 0.52 0.08 0 0.56 0.08 0 0.6 0.08 0 0.64 0.08 0 0.68 0.08 0 0.72 0.08 0 0.76 0.08 0 0.8 0.08 0 0.84 0.08 0 0.88 0.08 0 0.92 0.08 0 0.96 0.08 0 1 0.08 0 1.04 0.08 0 1.08 0.08 0 1.12 0.08 0 1.16 0.08 0 1.2 0.08 0 0 0.12 0 0.04 0.12 0 0.08 0.12 0 0.12 0.12 0 0.16 0.12 0 0.2 0.12 0 0.24 0.12 0 0.28 0.12 0 0.32 0.12 0 0.36 0.12 0 0.4 0.12 0 0.44 0.12 0 0.48 0.12 0 0.52 0.12 0 0.56 0.12 0 0.6 0.12 0 0.64 0.12 0 0.68 0.12 0 0.72 0.12 0 0.76 0.12 0 0.8 0.12 0 0.84 0.12 0 0.88 0.12 0 0.92 0.12 0 0.96 0.12 0 1 0.12 0 1.04 0.12 0 1.08 0.12 0 1.12 0.12 0 1.16 0.12 0 1.2 0.12 0 0 0.16 0 0.04 0.16 0 0.08 0.16 0 0.12 0.16 0 0.16 0.16 0 0.2 0.16 0 0.24 0.16 0 0.28 0.16 0 0.32 0.16 0 0.36 0.16 0 0.4 0.16 0 0.44 0.16 0 0.48 0.16 0 0.52 0.16 0 0.56 0.16 0 0.6 0.16 0 0.64 0.16 0 0.68 0.16 0 0.72 0.16 0 0.76 0.16 0 0.8 0.16 0 0.84 0.16 0 0.88 0.16 0 0.92 0.16 0 0.96 0.16 0 1 0.16 0 1.04 0.16 0 1.08 0.16 0 1.12 0.16 0 1.16 0.16 0 1.2 0.16 0 0 0.2 0 0.04 0.2 0 0.08 0.2 0 0.12 0.2 0 0.16 0.2 0 0.2 0.2 0 0.24 0.2 0 0.28 0.2 0 0.32 0.2 0 0.36 0.2 0 0.4 0.2 0 0.44 0.2 0 0.48 0.2 0 0.52 0.2 0 0.56 0.2 0 0.6 0.2 0 0.64 0.2 0 0.68 0.2 0 0.72 0.2 0 0.76 0.2 0 0.8 0.2 0 0.84 0.2 0 0.88 0.2 0 0.92 0.2 0 0.96 0.2 0 1 0.2 0 1.04 0.2 0 1.08 0.2 0 1.12 0.2 0 1.16 0.2 0 1.2 0.2 0 0 0.24 0 0.04 0.24 0 0.08 0.24 0 0.12 0.24 0 0.16 0.24 0 0.2 0.24 0 0.24 0.24 0 0.28 0.24 0 0.32 0.24 0 0.36 0.24 0 0.4 0.24 0 0.44 0.24 0 0.48 0.24 0 0.52 0.24 0 0.56 0.24 0 0.6 0.24 0 0.64 0.24 0 0.68 0.24 0 0.72 0.24 0 0.76 0.24 0 0.8 0.24 0 0.84 0.24 0 0.88 0.24 0 0.92 0.24 0 0.96 0.24 0 1 0.24 0 1.04 0.24 0 1.08 0.24 0 1.12 0.24 0 1.16 0.24 0 1.2 0.24 0 0 0.28 0 0.04 0.28 0 0.08 0.28 0 0.12 0.28 0 0.16 0.28 0 0.2 0.28 0 0.24 0.28 0 0.28 0.28 0 0.32 0.28 0 0.36 0.28 0 0.4 0.28 0 0.44 0.28 0 0.48 0.28 0 0.52 0.28 0 0.56 0.28 0 0.6 0.28 0 0.64 0.28 0 0.68 0.28 0 0.72 0.28 0 0.76 0.28 0 0.8 0.28 0 0.84 0.28 0 0.88 0.28 0 0.92 0.28 0 0.96 0.28 0 1 0.28 0 1.04 0.28 0 1.08 0.28 0 1.12 0.28 0 1.16 0.28 0 1.2 0.28 0 0 0.32 0 0.04 0.32 0 0.08 0.32 0 0.12 0.32 0 0.16 0.32 0 0.2 0.32 0 0.24 0.32 0 0.28 0.32 0 0.32 0.32 0 0.36 0.32 0 0.4 0.32 0 0.44 0.32 0 0.48 0.32 0 0.52 0.32 0 0.56 0.32 0 0.6 0.32 0 0.64 0.32 0 0.68 0.32 0 0.72 0.32 0 0.76 0.32 0 0.8 0.32 0 0.84 0.32 0 0.88 0.32 0 0.92 0.32 0 0.96 0.32 0 1 0.32 0 1.04 0.32 0 1.08 0.32 0 1.12 0.32 0 1.16 0.32 0 1.2 0.32 0 0 0.36 0 0.04 0.36 0 0.08 0.36 0 0.12 0.36 0 0.16 0.36 0 0.2 0.36 0 0.24 0.36 0 0.28 0.36 0 0.32 0.36 0 0.36 0.36 0 0.4 0.36 0 0.44 0.36 0 0.48 0.36 0 0.52 0.36 0 0.56 0.36 0 0.6 0.36 0 0.64 0.36 0 0.68 0.36 0 0.72 0.36 0 0.76 0.36 0 0.8 0.36 0 0.84 0.36 0 0.88 0.36 0 0.92 0.36 0 0.96 0.36 0 1 0.36 0 1.04 0.36 0 1.08 0.36 0 1.12 0.36 0 1.16 0.36 0 1.2 0.36 0 0 0.4 0 0.04 0.4 0 0.08 0.4 0 0.12 0.4 0 0.16 0.4 0 0.2 0.4 0 0.24 0.4 0 0.28 0.4 0 0.32 0.4 0 0.36 0.4 0 0.4 0.4 0 0.44 0.4 0 0.48 0.4 0 0.52 0.4 0 0.56 0.4 0 0.6 0.4 0 0.64 0.4 0 0.68 0.4 0 0.72 0.4 0 0.76 0.4 0 0.8 0.4 0 0.84 0.4 0 0.88 0.4 0 0.92 0.4 0 0.96 0.4 0 1 0.4 0 1.04 0.4 0 1.08 0.4 0 1.12 0.4 0 1.16 0.4 0 1.2 0.4 0 0 0.44 0 0.04 0.44 0 0.08 0.44 0 0.12 0.44 0 0.16 0.44 0 0.2 0.44 0 0.24 0.44 0 0.28 0.44 0 0.32 0.44 0 0.36 0.44 0 0.4 0.44 0 0.44 0.44 0 0.48 0.44 0 0.52 0.44 0 0.56 0.44 0 0.6 0.44 0 0.64 0.44 0 0.68 0.44 0 0.72 0.44 0 0.76 0.44 0 0.8 0.44 0 0.84 0.44 0 0.88 0.44 0 0.92 0.44 0 0.96 0.44 0 1 0.44 0 1.04 0.44 0 1.08 0.44 0 1.12 0.44 0 1.16 0.44 0 1.2 0.44 0 0 0.48 0 0.04 0.48 0 0.08 0.48 0 0.12 0.48 0 0.16 0.48 0 0.2 0.48 0 0.24 0.48 0 0.28 0.48 0 0.32 0.48 0 0.36 0.48 0 0.4 0.48 0 0.44 0.48 0 0.48 0.48 0 0.52 0.48 0 0.56 0.48 0 0.6 0.48 0 0.64 0.48 0 0.68 0.48 0 0.72 0.48 0 0.76 0.48 0 0.8 0.48 0 0.84 0.48 0 0.88 0.48 0 0.92 0.48 0 0.96 0.48 0 1 0.48 0 1.04 0.48 0 1.08 0.48 0 1.12 0.48 0 1.16 0.48 0 1.2 0.48 0 0 0.52 0 0.04 0.52 0 0.08 0.52 0 0.12 0.52 0 0.16 0.52 0 0.2 0.52 0 0.24 0.52 0 0.28 0.52 0 0.32 0.52 0 0.36 0.52 0 0.4 0.52 0 0.44 0.52 0 0.48 0.52 0 0.52 0.52 0 0.56 0.52 0 0.6 0.52 0 0.64 0.52 0 0.68 0.52 0 0.72 0.52 0 0.76 0.52 0 0.8 0.52 0 0.84 0.52 0 0.88 0.52 0 0.92 0.52 0 0.96 0.52 0 1 0.52 0 1.04 0.52 0 1.08 0.52 0 1.12 0.52 0 1.16 0.52 0 1.2 0.52 0 0 0.56 0 0.04 0.56 0 0.08 0.56 0 0.12 0.56 0 0.16 0.56 0 0.2 0.56 0 0.24 0.56 0 0.28 0.56 0 0.32 0.56 0 0.36 0.56 0 0.4 0.56 0 0.44 0.56 0 0.48 0.56 0 0.52 0.56 0 0.56 0.56 0 0.6 0.56 0 0.64 0.56 0 0.68 0.56 0 0.72 0.56 0 0.76 0.56 0 0.8 0.56 0 0.84 0.56 0 0.88 0.56 0 0.92 0.56 0 0.96 0.56 0 1 0.56 0 1.04 0.56 0 1.08 0.56 0 1.12 0.56 0 1.16 0.56 0 1.2 0.56 0 0 0.6 0 0.04 0.6 0 0.08 0.6 0 0.12 0.6 0 0.16 0.6 0 0.2 0.6 0 0.24 0.6 0 0.28 0.6 0 0.32 0.6 0 0.36 0.6 0 0.4 0.6 0 0.44 0.6 0 0.48 0.6 0 0.52 0.6 0 0.56 0.6 0 0.6 0.6 0 0.64 0.6 0 0.68 0.6 0 0.72 0.6 0 0.76 0.6 0 0.8 0.6 0 0.84 0.6 0 0.88 0.6 0 0.92 0.6 0 0.96 0.6 0 1 0.6 0 1.04 0.6 0 1.08 0.6 0 1.12 0.6 0 1.16 0.6 0 1.2 0.6 0 0 0.64 0 0.04 0.64 0 0.08 0.64 0 0.12 0.64 0 0.16 0.64 0 0.2 0.64 0 0.24 0.64 0 0.28 0.64 0 0.32 0.64 0 0.36 0.64 0 0.4 0.64 0 0.44 0.64 0 0.48 0.64 0 0.52 0.64 0 0.56 0.64 0 0.6 0.64 0 0.64 0.64 0 0.68 0.64 0 0.72 0.64 0 0.76 0.64 0 0.8 0.64 0 0.84 0.64 0 0.88 0.64 0 0.92 0.64 0 0.96 0.64 0 1 0.64 0 1.04 0.64 0 1.08 0.64 0 1.12 0.64 0 1.16 0.64 0 1.2 0.64 0 0 0.68 0 0.04 0.68 0 0.08 0.68 0 0.12 0.68 0 0.16 0.68 0 0.2 0.68 0 0.24 0.68 0 0.28 0.68 0 0.32 0.68 0 0.36 0.68 0 0.4 0.68 0 0.44 0.68 0 0.48 0.68 0 0.52 0.68 0 0.56 0.68 0 0.6 0.68 0 0.64 0.68 0 0.68 0.68 0 0.72 0.68 0 0.76 0.68 0 0.8 0.68 0 0.84 0.68 0 0.88 0.68 0 0.92 0.68 0 0.96 0.68 0 1 0.68 0 1.04 0.68 0 1.08 0.68 0 1.12 0.68 0 1.16 0.68 0 1.2 0.68 0 0 0.72 0 0.04 0.72 0 0.08 0.72 0 0.12 0.72 0 0.16 0.72 0 0.2 0.72 0 0.24 0.72 0 0.28 0.72 0 0.32 0.72 0 0.36 0.72 0 0.4 0.72 0 0.44 0.72 0 0.48 0.72 0 0.52 0.72 0 0.56 0.72 0 0.6 0.72 0 0.64 0.72 0 0.68 0.72 0 0.72 0.72 0 0.76 0.72 0 0.8 0.72 0 0.84 0.72 0 0.88 0.72 0 0.92 0.72 0 0.96 0.72 0 1 0.72 0 1.04 0.72 0 1.08 0.72 0 1.12 0.72 0 1.16 0.72 0 1.2 0.72 0 0 0.76 0 0.04 0.76 0 0.08 0.76 0 0.12 0.76 0 0.16 0.76 0 0.2 0.76 0 0.24 0.76 0 0.28 0.76 0 0.32 0.76 0 0.36 0.76 0 0.4 0.76 0 0.44 0.76 0 0.48 0.76 0 0.52 0.76 0 0.56 0.76 0 0.6 0.76 0 0.64 0.76 0 0.68 0.76 0 0.72 0.76 0 0.76 0.76 0 0.8 0.76 0 0.84 0.76 0 0.88 0.76 0 0.92 0.76 0 0.96 0.76 0 1 0.76 0 1.04 0.76 0 1.08 0.76 0 1.12 0.76 0 1.16 0.76 0 1.2 0.76 0 0 0.8 0 0.04 0.8 0 0.08 0.8 0 0.12 0.8 0 0.16 0.8 0 0.2 0.8 0 0.24 0.8 0 0.28 0.8 0 0.32 0.8 0 0.36 0.8 0 0.4 0.8 0 0.44 0.8 0 0.48 0.8 0 0.52 0.8 0 0.56 0.8 0 0.6 0.8 0 0.64 0.8 0 0.68 0.8 0 0.72 0.8 0 0.76 0.8 0 0.8 0.8 0 0.84 0.8 0 0.88 0.8 0 0.92 0.8 0 0.96 0.8 0 1 0.8 0 1.04 0.8 0 1.08 0.8 0 1.12 0.8 0 1.16 0.8 0 1.2 0.8 0 0 0.84 0 0.04 0.84 0 0.08 0.84 0 0.12 0.84 0 0.16 0.84 0 0.2 0.84 0 0.24 0.84 0 0.28 0.84 0 0.32 0.84 0 0.36 0.84 0 0.4 0.84 0 0.44 0.84 0 0.48 0.84 0 0.52 0.84 0 0.56 0.84 0 0.6 0.84 0 0.64 0.84 0 0.68 0.84 0 0.72 0.84 0 0.76 0.84 0 0.8 0.84 0 0.84 0.84 0 0.88 0.84 0 0.92 0.84 0 0.96 0.84 0 1 0.84 0 1.04 0.84 0 1.08 0.84 0 1.12 0.84 0 1.16 0.84 0 1.2 0.84 0 0 0.88 0 0.04 0.88 0 0.08 0.88 0 0.12 0.88 0 0.16 0.88 0 0.2 0.88 0 0.24 0.88 0 0.28 0.88 0 0.32 0.88 0 0.36 0.88 0 0.4 0.88 0 0.44 0.88 0 0.48 0.88 0 0.52 0.88 0 0.56 0.88 0 0.6 0.88 0 0.64 0.88 0 0.68 0.88 0 0.72 0.88 0 0.76 0.88 0 0.8 0.88 0 0.84 0.88 0 0.88 0.88 0 0.92 0.88 0 0.96 0.88 0 1 0.88 0 1.04 0.88 0 1.08 0.88 0 1.12 0.88 0 1.16 0.88 0 1.2 0.88 0 0 0.92 0 0.04 0.92 0 0.08 0.92 0 0.12 0.92 0 0.16 0.92 0 0.2 0.92 0 0.24 0.92 0 0.28 0.92 0 0.32 0.92 0 0.36 0.92 0 0.4 0.92 0 0.44 0.92 0 0.48 0.92 0 0.52 0.92 0 0.56 0.92 0 0.6 0.92 0 0.64 0.92 0 0.68 0.92 0 0.72 0.92 0 0.76 0.92 0 0.8 0.92 0 0.84 0.92 0 0.88 0.92 0 0.92 0.92 0 0.96 0.92 0 1 0.92 0 1.04 0.92 0 1.08 0.92 0 1.12 0.92 0 1.16 0.92 0 1.2 0.92 0 0 0.96 0 0.04 0.96 0 0.08 0.96 0 0.12 0.96 0 0.16 0.96 0 0.2 0.96 0 0.24 0.96 0 0.28 0.96 0 0.32 0.96 0 0.36 0.96 0 0.4 0.96 0 0.44 0.96 0 0.48 0.96 0 0.52 0.96 0 0.56 0.96 0 0.6 0.96 0 0.64 0.96 0 0.68 0.96 0 0.72 0.96 0 0.76 0.96 0 0.8 0.96 0 0.84 0.96 0 0.88 0.96 0 0.92 0.96 0 0.96 0.96 0 1 0.96 0 1.04 0.96 0 1.08 0.96 0 1.12 0.96 0 1.16 0.96 0 1.2 0.96 0 0 1 0 0.04 1 0 0.08 1 0 0.12 1 0 0.16 1 0 0.2 1 0 0.24 1 0 0.28 1 0 0.32 1 0 0.36 1 0 0.4 1 0 0.44 1 0 0.48 1 0 0.52 1 0 0.56 1 0 0.6 1 0 0.64 1 0 0.68 1 0 0.72 1 0 0.76 1 0 0.8 1 0 0.84 1 0 0.88 1 0 0.92 1 0 0.96 1 0 1 1 0 1.04 1 0 1.08 1 0 1.12 1 0 1.16 1 0 1.2 1 0 0 1.04 0 0.04 1.04 0 0.08 1.04 0 0.12 1.04 0 0.16 1.04 0 0.2 1.04 0 0.24 1.04 0 0.28 1.04 0 0.32 1.04 0 0.36 1.04 0 0.4 1.04 0 0.44 1.04 0 0.48 1.04 0 0.52 1.04 0 0.56 1.04 0 0.6 1.04 0 0.64 1.04 0 0.68 1.04 0 0.72 1.04 0 0.76 1.04 0 0.8 1.04 0 0.84 1.04 0 0.88 1.04 0 0.92 1.04 0 0.96 1.04 0 1 1.04 0 1.04 1.04 0 1.08 1.04 0 1.12 1.04 0 1.16 1.04 0 1.2 1.04 0 0 1.08 0 0.04 1.08 0 0.08 1.08 0 0.12 1.08 0 0.16 1.08 0 0.2 1.08 0 0.24 1.08 0 0.28 1.08 0 0.32 1.08 0 0.36 1.08 0 0.4 1.08 0 0.44 1.08 0 0.48 1.08 0 0.52 1.08 0 0.56 1.08 0 0.6 1.08 0 0.64 1.08 0 0.68 1.08 0 0.72 1.08 0 0.76 1.08 0 0.8 1.08 0 0.84 1.08 0 0.88 1.08 0 0.92 1.08 0 0.96 1.08 0 1 1.08 0 1.04 1.08 0 1.08 1.08 0 1.12 1.08 0 1.16 1.08 0 1.2 1.08 0 0 1.12 0 
[...]
			<PointData Scalars="VitesseX">
				<DataArray Name="VitesseX" type="Float32" format="ascii">
 0 -0.0550144 -0.194358 -0.0655156 0.323855 0.387128 0.728851 0.875532 1.0896 1.30585 1.50231 1.71615 1.93077 2.16201 2.36394 2.8578 3.03702 2.74223 1.9037 0.676455 0.0403446 5.70371e-05 7.62556e-10 9.26927e-15 1.62901e-15 -2.22577e-32 -1.62901e-15 1.62901e-15 -5.49994e-15 5.49994e-15 0 0 0.395957 0.388825 0.402021 0.627003 0.588238 0.868489 0.982026 1.15551 1.34783 1.5289 1.72875 1.93475 2.15652 2.35655 2.85383 3.01011 2.70403 1.85558 0.638398 0.0356372 4.64282e-05 6.6134e-10 8.32235e-15 1.62901e-15 -9.31607e-33 -1.62901e-15 1.62901e-15 -5.49994e-15 5.49994e-15 0 0 0.41022 0.51137 0.667906 0.843829 0.837033 0.999669 1.10274 1.2305 1.39297 1.56369 1.75188 1.95659 2.16459 2.37284 2.88128 2.97428 2.6269 1.73279 0.534361 0.0243727 2.49551e-05 4.27437e-10 6.02444e-15 -1.93547e-15 -2.97136e-46 1.93547e-15 8.18292e-16 -5.50373e-15 2.74997e-15 0 0 0.245772 0.481499 0.700302 0.864479 0.977165 1.05529 1.19517 1.3205 1.45362 1.6166 1.78915 1.99468 2.18077 2.41881 2.91987 2.92414 2.50153 1.53465 0.38666 0.0125922 8.75583e-06 2.00286e-10 3.38955e-15 3.78775e-18 -7.49776e-35 -3.78775e-18 3.78773e-18 -2.75376e-15 2.75376e-15 0 0 0.135184 0.405007 0.645272 0.857407 0.987601 1.09017 1.26497 1.40305 1.52373 1.68658 1.84202 2.04726 2.20563 2.51224 2.94153 2.84389 2.31109 1.25503 0.232109 0.0047388 1.96792e-06 6.53502e-11 -1.37984e-15 2.75376e-15 9.98181e-31 1.991e-30 -2.75376e-15 1.49636e-30 2.75376e-15 0 0 0.119687 0.382068 0.621084 0.815882 0.956356 1.1158 1.3206 1.44326 1.59535 1.74441 1.90661 2.09662 2.24142 2.65858 2.91422 2.70911 2.03612 0.901707 0.108697 0.00123327 2.81195e-07 1.42641e-11 4.13987e-16 -2.75376e-15 -4.9961e-31 2.75376e-15 7.92084e-18 -2.76168e-15 -7.29451e-30 0 0 0.127691 0.36646 0.590913 0.776274 0.950211 1.15462 1.32453 1.47065 1.63992 1.77864 1.97411 2.11695 2.3114 2.78155 2.82841 2.49203 1.64846 0.52174 0.0365933 0.000205544 2.79794e-08 2.07774e-12 9.28855e-17 -2.75376e-15 3.89706e-30 2.76168e-15 -1.61813e-14 1.61813e-14 -2.76168e-15 0 0 0.141191 0.333531 0.547498 0.760941 0.959829 1.14446 1.31223 1.49275 1.64069 1.82042 1.99863 2.12189 2.47122 2.794 2.67516 2.15238 1.13953 0.223922 0.0081831 1.97281e-05 2.44636e-09 2.18761e-13 5.34583e-15 2.76168e-15 -9.7438e-29 -1.61813e-14 -1.805e-24 1.805e-24 1.61813e-14 0 0 0.149534 0.325195 0.523256 0.734421 0.930484 1.11855 1.30865 1.47195 1.64615 1.84926 1.97571 2.18662 2.6285 2.68738 2.40536 1.65771 0.596933 0.0655044 0.00110707 9.74539e-07 1.7953e-10 2.91362e-14 5.33791e-15 2.76168e-15 -9.6909e-29 -1.61813e-14 1.69368e-39 -3.54075e-40 1.61813e-14 0 0 0.148524 0.314543 0.498274 0.695207 0.894869 1.09246 1.27192 1.45843 1.66593 1.81316 1.98015 2.38765 2.60313 2.47228 1.9645 1.01016 0.214054 0.0116785 7.72291e-05 2.79887e-08 8.00518e-12 1.71106e-14 -2.76168e-15 -4.73211e-31 3.90005e-30 2.76168e-15 -1.61813e-14 -1.80499e-24 1.34196e-14 0 0 0.149302 0.310672 0.483355 0.668115 0.860904 1.05509 1.25632 1.46049 1.6234 1.79583 2.15168 2.44643 2.42343 2.08855 1.31862 0.418644 0.0474666 0.00110875 2.26083e-06 8.61388e-10 2.6508e-13 -2.73822e-15 2.76168e-15 -2.76168e-15 8.34181e-46 3.90005e-30 5.52336e-15 -2.17046e-14 1.89429e-14 0 0 0.150064 0.309523 0.477361 0.655785 0.846642 1.04566 1.24139 1.4176 1.61652 1.95408 2.25488 2.2986 2.07567 1.47134 0.603179 0.107708 0.00555802 4.41522e-05 3.05086e-08 2.00019e-11 1.09378e-14 -2.76148e-15 2.76168e-15 -2.76168e-15 -3.90005e-30 2.4292e-29 5.52337e-15 -5.52336e-15 -1.34196e-14 0 0 0.152383 0.31245 0.480039 0.656816 0.840903 1.02783 1.21991 1.45377 1.7856 2.04564 2.1204 1.96298 1.48221 0.70763 0.167438 0.0143562 0.000275948 5.73028e-07 4.80758e-10 2.81181e-13 -1.58503e-14 1.6181e-14 -1.89429e-14 1.89429e-14 2.32857e-21 1.98909e-20 -4.93958e-14 4.93958e-14 -1.61813e-14 0 0 0.155229 0.316023 0.482742 0.657537 0.845959 1.06088 1.32942 1.61456 1.82537 1.89947 1.77626 1.37724 0.711559 0.19923 0.0234836 0.00078957 4.02276e-06 4.27084e-09 5.11446e-12 4.32666e-15 -1.6181e-14 1.6181e-14 -1.61813e-14 -4.19426e-21 -6.45949e-21 1.8943e-14 -5.21575e-14 5.21575e-14 -1.8943e-14 0 0 0.161855 0.333216 0.518101 0.724291 0.955639 1.19489 1.4146 1.59023 1.63989 1.52843 1.18028 0.623803 0.190655 0.0269408 0.00127044 1.17347e-05 1.91532e-08 3.81962e-11 5.60514e-14 2.7492e-15 6.35387e-24 -2.76168e-15 -1.34196e-14 -4.19564e-21 -8.78806e-21 -3.5758e-25 1.8943e-14 -1.8943e-14 1.29827e-20 0 0 0.192888 0.392707 0.596128 0.800785 1.00088 1.1883 1.317 1.34122 1.22485 0.913596 0.471935 0.147627 0.0224446 0.00126042 1.64596e-05 4.1696e-08 1.18777e-10 1.70629e-13 1.34287e-14 -1.34196e-14 1.61813e-14 -1.89429e-14 2.76168e-15 1.89429e-14 -7.24679e-21 -3.78859e-14 3.7886e-14 -3.7886e-14 3.78859e-14 0 0 0.20227 0.400901 0.591807 0.76809 0.914016 1.00278 0.999415 0.873033 0.60964 0.296872 0.0891963 0.0132608 0.0007733 1.16883e-05 4.15904e-08 1.70898e-10 3.92485e-13 4.02762e-15 -2.76168e-15 -1.34196e-14 -4.19426e-21 4.19426e-21 1.89429e-14 -1.89429e-14 -7.24679e-21 -9.33431e-30 1.8943e-14 -1.8943e-14 1.29823e-20 0 0 0.183299 0.350872 0.494198 0.601218 0.651168 0.62368 0.507928 0.323468 0.143261 0.0381386 0.00506429 0.000268685 3.99235e-06 1.89913e-08 1.1835e-10 3.98001e-13 -1.4871e-15 2.76207e-15 -1.89429e-14 2.17046e-14 -3.78859e-14 3.78859e-14 -1.89429e-14 -5.73764e-21 2.2734e-20 1.89429e-14 -5.2157e-14 5.2157e-14 -1.8943e-14 0 0 0.124045 0.223042 0.287457 0.30797 0.281398 0.211181 0.118683 0.0441606 0.00949075 0.00101923 4.30158e-05 5.65379e-07 4.20455e-09 3.79082e-11 2.00489e-13 -1.49646e-15 2.76207e-15 -1.61813e-14 3.10309e-17 -3.32365e-14 3.32365e-14 -3.10309e-17 1.37444e-24 3.05042e-21 1.39459e-20 1.89429e-14 -5.2157e-14 3.3214e-14 -2.73504e-20 0 0 0.0437559 0.0732477 0.0830864 0.0725127 0.0471246 0.0210822 0.0059097 0.000943138 7.24736e-05 2.20033e-06 2.95904e-08 4.71109e-10 5.03731e-12 2.36512e-14 1.8952e-14 -2.76168e-15 -1.34196e-14 3.10309e-17 1.50997e-18 -3.3238e-14 3.32365e-14 -3.10309e-17 -4.19426e-21 -8.48369e-41 -8.78806e-21 -1.40117e-30 1.8943e-14 -3.78859e-14 1.8943e-14 0 0 0.0041352 0.00580673 0.00465856 0.00242103 0.000812229 0.000163398 1.76586e-05 9.18274e-07 2.63105e-08 8.2233e-10 1.94609e-11 2.78605e-13 -1.17207e-15 2.7492e-15 -1.89429e-14 1.89429e-14 -1.61813e-14 -3.31745e-14 3.3176e-14 -1.50997e-18 -5.52236e-23 1.89429e-14 -3.78859e-14 3.78859e-14 -1.07853e-31 -3.78859e-14 3.7886e-14 -1.8943e-14 1.8943e-14 0 0 9.10243e-06 9.65041e-06 4.93992e-06 1.40151e-06 2.26528e-07 2.33628e-08 2.10269e-09 1.64027e-10 7.52967e-12 2.43912e-13 1.02921e-14 -1.58503e-14 1.6181e-14 -6.35387e-24 -1.61813e-14 -4.19564e-21 4.19426e-21 -3.31745e-14 3.31745e-14 -5.21052e-23 -1.37444e-24 9.52094e-29 3.10267e-17 -3.10309e-17 -8.78806e-21 -3.5763e-25 1.8943e-14 -1.8943e-14 1.8943e-14 0 0 9.92945e-11 1.32011e-10 9.42879e-11 4.05673e-11 1.0524e-11 1.66465e-12 1.78495e-13 1.11606e-14 1.70641e-14 -2.73861e-15 2.76188e-15 -1.6181e-14 1.6181e-14 -2.76168e-15 -1.34196e-14 -4.19426e-21 4.19426e-21 3.10309e-17 -3.10309e-17 1.89429e-14 -3.78859e-14 1.89429e-14 3.10309e-17 -3.10279e-17 1.50118e-20 1.89429e-14 -1.89429e-14 -1.89429e-14 3.78859e-14 0 0 9.45478e-16 2.98196e-15 -4.21747e-15 3.48685e-15 2.28217e-16 9.28842e-17 -1.08533e-14 1.08613e-14 -2.76168e-15 2.76168e-15 -2.76168e-15 -1.34196e-14 1.61813e-14 -1.89429e-14 2.76168e-15 1.89429e-14 -1.89429e-14 -1.37444e-24 -4.19653e-21 5.35936e-32 3.10351e-17 -3.10309e-17 -1.37444e-24 3.05026e-21 2.38514e-20 -2.69003e-20 3.10275e-17 -3.09966e-17 -3.31817e-14 0 0 -1.93056e-30 -1.93547e-15 3.78774e-18 -2.75376e-15 2.75376e-15 -2.75376e-15 2.76168e-15 -2.76168e-15 -1.41963e-30 2.76168e-15 -2.76168e-15 -1.34196e-14 -4.19564e-21 4.19564e-21 1.89429e-14 -1.8943e-14 2.02305e-20 -1.14424e-20 -2.27408e-24 1.0739e-31 3.10309e-17 -3.10195e-17 -1.14424e-20 -2.27408e-24 7.29839e-21 2.7677e-20 -3.31744e-14 5.21174e-14 -5.21247e-14 0 0 -1.07656e-29 -5.49994e-15 5.50752e-15 -5.50752e-15 4.9961e-31 5.68588e-30 5.52336e-15 -5.52336e-15 -3.9025e-30 -1.66836e-45 -3.8976e-30 5.52336e-15 -3.78859e-14 3.78859e-14 7.24679e-21 -3.78859e-14 3.78859e-14 -3.78859e-14 3.78859e-14 1.07594e-31 -3.78859e-14 3.78859e-14 -3.78859e-14 3.78859e-14 5.71256e-28 2.35307e-20 -1.04311e-13 1.04311e-13 -1.10188e-20 0 0 -2.18016e-30 -1.93547e-15 3.78774e-18 -3.98654e-30 -2.75376e-15 2.76168e-15 -1.61813e-14 1.61813e-14 -2.76168e-15 -3.90005e-30 2.4292e-29 5.52338e-15 -1.8943e-14 -4.25915e-30 1.91774e-44 7.51674e-30 1.8943e-14 -1.8943e-14 -1.56647e-29 -1.00998e-43 -3.7982e-29 1.8943e-14 -3.78859e-14 3.78859e-14 -3.80243e-20 -5.20994e-14 -5.82924e-19 5.82924e-19 5.20994e-14 0 0 -1.79275e-31 8.18292e-16 -5.50373e-15 2.75376e-15 7.92085e-18 -1.61813e-14 7.48451e-39 -1.12619e-38 1.61813e-14 1.94035e-28 9.20172e-21 -4.93958e-14 5.21575e-14 -1.89429e-14 -2.24833e-43 1.89429e-14 -5.2157e-14 5.2157e-14 -1.89429e-14 -7.05606e-21 1.89429e-14 -1.89429e-14 3.10359e-17 -3.32364e-14 -1.39729e-17 1.25153e-16 1.82909e-32 -9.5404e-33 -6.22852e-17 0 0 -5.38629e-16 2.96922e-16 -2.75376e-15 -1.00121e-30 2.76168e-15 -1.61813e-14 4.40625e-24 -4.40625e-24 4.40624e-24 1.61813e-14 1.35909e-20 -4.93958e-14 5.21575e-14 -1.89429e-14 -2.35604e-43 1.89429e-14 -5.2157e-14 3.3214e-14 -1.03567e-20 1.89429e-14 -1.8943e-14 -1.89429e-14 3.79169e-14 -5.21794e-14 -1.39531e-17 1.25153e-16 3.60181e-23 -3.60181e-23 -6.22852e-17 0 0 -1.92267e-13 -2.45684e-15 2.75376e-15 -2.75376e-15 7.29451e-30 2.76168e-15 -1.61813e-14 1.61813e-14 -1.89429e-14 1.89429e-14 -1.89429e-14 2.17046e-14 -1.8943e-14 -1.298e-20 -1.62113e-50 1.298e-20 1.8943e-14 -3.78859e-14 1.89429e-14 1.8943e-14 -1.8943e-14 1.29844e-20 -3.31817e-14 5.21246e-14 -1.10194e-20 -5.20994e-14 6.22852e-17 -6.22852e-17 5.20994e-14 0 0 0 0 0 0 0 0 0 0 0 0 0 0 0 0 0 0 0 0 0 0 0 0 0 0 0 0 0 0 0 0
				</DataArray>
				<DataArray Name="VitesseY" type="Float32" format="ascii">
 0 0 0 0 0 0 0 0 0 0 0 0 0 0 0 0 0 0 0 0 0 0 0 0 0 0 0 0 0 0 0 -0.0549151 0.39597 0.41021 0.245753 0.135171 0.11968 0.127688 0.14119 0.149536 0.148529 0.149309 0.15007 0.152388 0.15523 0.161852 0.192883 0.202265 0.183293 0.124039 0.0437528 0.00413477 9.10065e-06 9.92732e-11 9.46923e-16 -4.24203e-24 -1.07656e-29 2.68966e-24 2.68967e-24 -2.71038e-24 -2.71038e-24 0 -0.194317 0.388842 0.511355 0.481494 0.40502 0.382082 0.366465 0.333537 0.325205 0.314553 0.310682 0.309534 0.312461 0.316027 0.333213 0.392698 0.400891 0.350861 0.223032 0.073243 0.00580617 9.64863e-06 1.31983e-10 2.97999e-15 -1.93547e-15 -5.49994e-15 -1.93547e-15 8.18292e-16 3.78774e-18 -2.74997e-15 0 -0.0654769 0.402043 0.667893 0.700282 0.645262 0.62108 0.590912 0.547505 0.523272 0.498291 0.483369 0.477377 0.480053 0.48275 0.5181 0.596118 0.591795 0.494184 0.287446 0.0830823 0.00465817 4.93909e-06 9.42697e-11 -4.21602e-15 3.78775e-18 5.50752e-15 3.78774e-18 -5.50373e-15 -2.75376e-15 2.75376e-15 0 0.32388 0.627014 0.843819 0.864478 0.857407 0.815879 0.77628 0.760957 0.734445 0.695236 0.66814 0.655803 0.656829 0.657546 0.724292 0.800776 0.768079 0.601205 0.307961 0.0725101 0.00242088 1.40132e-06 4.05604e-11 3.48547e-15 -2.75376e-15 -5.50752e-15 5.40477e-25 2.75376e-15 -1.27723e-23 -2.75376e-15 0 0.387125 0.588236 0.837016 0.977146 0.987593 0.956356 0.950217 0.959842 0.930507 0.8949 0.860934 0.846664 0.840918 0.84597 0.955639 1.00087 0.914007 0.65116 0.281393 0.0471239 0.0008122 2.26506e-07 1.05224e-11 2.28217e-16 2.75376e-15 4.9961e-31 -2.75376e-15 7.92084e-18 2.76168e-15 -1.27723e-23 0 0.728864 0.868515 0.999679 1.05529 1.09016 1.1158 1.15463 1.14448 1.11857 1.09248 1.05512 1.04569 1.02785 1.06088 1.19489 1.18829 1.00278 0.623676 0.211181 0.0210824 0.000163397 2.33616e-08 1.66448e-12 9.28842e-17 -2.75376e-15 5.68588e-30 2.76168e-15 -1.61813e-14 -1.61813e-14 2.76168e-15 0 0.875528 0.982049 1.10275 1.19516 1.26496 1.3206 1.32454 1.31224 1.30866 1.27193 1.25634 1.24141 1.21992 1.32942 1.4146 1.317 0.99942 0.507934 0.118686 0.00590991 1.76592e-05 2.10268e-09 1.7848e-13 -1.08533e-14 2.76168e-15 5.52336e-15 -1.61813e-14 -2.98179e-24 -1.03323e-24 -1.61813e-14 0 1.08959 1.15554 1.23051 1.32049 1.40304 1.44326 1.47066 1.49276 1.47196 1.45844 1.4605 1.41761 1.45378 1.61457 1.59024 1.34124 0.873047 0.323476 0.0441625 0.000943204 9.18349e-07 1.64033e-10 1.11607e-14 1.08613e-14 -2.76168e-15 -5.52336e-15 1.61813e-14 -2.98179e-24 -3.74393e-24 1.61813e-14 0 1.30584 1.34785 1.39299 1.45362 1.52372 1.59535 1.63992 1.64069 1.64616 1.66593 1.6234 1.61653 1.7856 1.82538 1.6399 1.22487 0.609653 0.143267 0.00949134 7.2481e-05 2.63135e-08 7.53036e-12 1.70641e-14 -2.76168e-15 -6.15822e-24 -3.9025e-30 -2.76168e-15 1.61813e-14 -1.03324e-24 -1.89429e-14 0 1.50231 1.52892 1.56371 1.61661 1.68659 1.7444 1.77864 1.82041 1.84925 1.81315 1.79582 1.95408 2.04564 1.89948 1.52844 0.91361 0.296881 0.0381403 0.00101931 2.20061e-06 8.22426e-10 2.43912e-13 -2.73861e-15 2.76168e-15 2.76168e-15 -8.34181e-46 -3.90005e-30 -5.37764e-24 1.61813e-14 1.89429e-14 0 1.71616 1.72877 1.7519 1.78916 1.84203 1.9066 1.9741 1.99862 1.9757 1.98014 2.15168 2.25489 2.1204 1.77626 1.18029 0.471943 0.0891984 0.00506455 4.302e-05 2.95944e-08 1.94632e-11 1.02768e-14 2.76188e-15 -2.76168e-15 -2.76168e-15 -3.8976e-30 2.4292e-29 9.19507e-21 1.35907e-20 -1.89429e-14 0 1.93079 1.93478 1.95662 1.9947 2.04727 2.09661 2.11694 2.12188 2.18662 2.38765 2.44643 2.2986 1.96298 1.37725 0.623808 0.147629 0.0132611 0.000268699 5.65437e-07 4.7116e-10 2.78687e-13 -1.58503e-14 -1.6181e-14 -1.34196e-14 -1.34196e-14 5.52336e-15 5.52338e-15 -4.93958e-14 -4.93958e-14 2.17046e-14 0 2.16203 2.15654 2.16461 2.18078 2.20563 2.24141 2.31139 2.47122 2.6285 2.60313 2.42343 2.07567 1.48221 0.711561 0.190656 0.0224449 0.000773324 3.99257e-06 4.20484e-09 5.03792e-12 -1.17174e-15 1.6181e-14 1.6181e-14 1.61813e-14 -4.19536e-21 -3.78859e-14 -1.8943e-14 5.21575e-14 5.21575e-14 -1.8943e-14 0 2.36394 2.35655 2.37284 2.4188 2.51223 2.65857 2.78154 2.79399 2.68737 2.47228 2.08855 1.47134 0.707628 0.199229 0.0269408 0.00126043 1.16885e-05 1.89922e-08 3.79104e-11 2.36457e-14 2.7492e-15 -8.9806e-24 -2.76168e-15 -1.89429e-14 4.18844e-21 3.78859e-14 8.43584e-26 -1.89429e-14 -1.89429e-14 -1.29825e-20 0 2.85779 2.85382 2.88128 2.91986 2.94152 2.91421 2.82839 2.67514 2.40535 1.96448 1.31861 0.603173 0.167437 0.0234834 0.00127043 1.64596e-05 4.15912e-08 1.18352e-10 2.00479e-13 1.8952e-14 -1.89429e-14 -1.61813e-14 -1.34196e-14 2.76168e-15 1.89429e-14 7.24966e-21 8.43747e-26 3.34771e-24 -2.84036e-24 -2.45304e-24 0 3.03703 3.01012 2.97429 2.92414 2.84388 2.70909 2.49201 2.15235 1.65769 1.01015 0.418638 0.107706 0.0143558 0.000789546 1.17344e-05 4.16952e-08 1.70898e-10 3.9799e-13 -1.49652e-15 -2.76168e-15 1.89429e-14 -4.19536e-21 -4.19843e-21 1.89429e-14 -1.8943e-14 -3.78859e-14 8.43747e-26 1.89429e-14 1.89429e-14 1.29807e-20 0 2.74225 2.70405 2.62691 2.50154 2.31109 2.03611 1.64844 1.1395 0.596917 0.214046 0.0474646 0.00555774 0.000275934 4.02254e-06 1.91523e-08 1.18774e-10 3.92495e-13 -1.4871e-15 2.76207e-15 -1.34196e-14 -1.61813e-14 4.18875e-21 4.19128e-21 -1.89429e-14 2.02309e-20 3.78859e-14 1.8943e-14 -5.2157e-14 -5.2157e-14 1.8943e-14 0 1.90373 1.85561 1.73281 1.53467 1.25503 0.901701 0.52173 0.223914 0.0655012 0.0116778 0.00110865 4.4148e-05 5.72969e-07 4.27055e-09 3.81941e-11 1.70639e-13 4.02769e-15 2.76207e-15 -1.61813e-14 3.10309e-17 -3.31745e-14 -3.31745e-14 3.10309e-17 -6.88564e-24 -1.14422e-20 -3.78859e-14 -1.8943e-14 5.2157e-14 3.3214e-14 -3.78859e-14 0 0.676479 0.63842 0.534378 0.38667 0.232112 0.108697 0.0365924 0.00818273 0.00110699 7.7221e-05 2.26054e-06 3.05045e-08 4.80707e-10 5.11387e-12 5.60568e-14 1.34287e-14 -2.76168e-15 -1.89429e-14 3.10309e-17 1.50997e-18 3.3176e-14 3.31745e-14 -3.10309e-17 -4.19972e-21 -5.46301e-24 3.78859e-14 8.4361e-26 -1.89429e-14 -1.03596e-20 1.89429e-14 0 0.0403481 0.0356402 0.0243745 0.012593 0.00473902 0.0012333 0.000205543 1.97273e-05 9.74458e-07 2.79855e-08 8.61288e-10 1.99994e-11 2.81098e-13 4.32633e-15 2.7492e-15 -1.34196e-14 -1.34196e-14 2.17046e-14 -3.32365e-14 -3.3238e-14 -1.50997e-18 -5.93011e-23 1.89429e-14 -3.18894e-24 -3.18894e-24 1.07594e-31 8.43747e-26 -7.05557e-21 1.89429e-14 1.8943e-14 0 5.70475e-05 4.64365e-05 2.49593e-05 8.75716e-06 1.96816e-06 2.8122e-07 2.79806e-08 2.44636e-09 1.79523e-10 8.00452e-12 2.65111e-13 1.09532e-14 -1.58503e-14 -1.6181e-14 7.74102e-24 1.61813e-14 -4.19843e-21 -3.78859e-14 3.32365e-14 3.32365e-14 -6.07348e-23 -6.88564e-24 -3.78859e-14 3.10351e-17 3.10309e-17 -3.78859e-14 8.43489e-26 1.89429e-14 -1.8943e-14 -1.8943e-14 0 7.62709e-10 6.61471e-10 4.27518e-10 2.00322e-10 6.53606e-11 1.4266e-11 2.07793e-12 2.18776e-13 2.91362e-14 1.71106e-14 -2.73822e-15 -2.76148e-15 1.6181e-14 1.6181e-14 -2.76168e-15 -1.89429e-14 4.19128e-21 3.78859e-14 -3.1031e-17 -3.10309e-17 1.89429e-14 -5.51111e-24 1.89429e-14 -3.10309e-17 -3.10195e-17 3.78859e-14 1.8943e-14 -1.89429e-14 -1.89429e-14 1.2979e-20 0 9.27019e-15 8.32471e-15 6.02628e-15 3.39086e-15 -1.37846e-15 4.13987e-16 9.28855e-17 5.34583e-15 5.33791e-15 -2.76168e-15 2.76168e-15 2.76168e-15 -1.89429e-14 -1.61813e-14 -1.34196e-14 2.76168e-15 1.89429e-14 -1.89429e-14 -5.82148e-24 -4.19843e-21 -3.78859e-14 3.10267e-17 3.10309e-17 -6.88564e-24 -1.14422e-20 -3.78859e-14 -3.78859e-14 3.10359e-17 3.79169e-14 -3.31817e-14 0 1.62901e-15 1.62901e-15 -1.93547e-15 3.78775e-18 2.75376e-15 -2.75376e-15 -2.75376e-15 2.76168e-15 2.76168e-15 -4.38397e-24 -2.76168e-15 -2.76168e-15 1.89429e-14 -4.19843e-21 -4.19536e-21 1.89429e-14 -1.89429e-14 -5.73644e-21 3.04931e-21 -4.16711e-24 3.78859e-14 -3.10309e-17 -3.10279e-17 3.04669e-21 -5.46301e-24 3.78859e-14 3.78859e-14 -3.32364e-14 -5.21794e-14 5.21246e-14 0 -2.22492e-32 -9.3195e-33 6.91937e-26 -1.63591e-24 4.06617e-24 -1.52846e-24 -4.38396e-24 -4.22984e-24 1.33093e-24 -4.38396e-24 -4.38397e-24 -3.90005e-30 2.32936e-21 -6.45664e-21 -8.78688e-21 -7.24929e-21 -7.24671e-21 2.27356e-20 1.39475e-20 -8.78798e-21 -2.50298e-24 -8.78688e-21 1.50133e-20 2.38545e-20 7.30092e-21 2.87131e-24 -3.80243e-20 -1.39729e-17 -1.39532e-17 -1.10255e-20 0 -1.62901e-15 -1.62901e-15 1.93547e-15 -3.78774e-18 4.06618e-24 2.75376e-15 2.76168e-15 -1.61813e-14 -1.61813e-14 2.76168e-15 -4.38396e-24 2.4292e-29 1.9884e-20 1.8943e-14 3.26698e-24 -3.78859e-14 8.4355e-26 1.89429e-14 1.89429e-14 8.43523e-26 -3.78859e-14 3.26695e-24 1.89429e-14 -2.69075e-20 2.76795e-20 2.3529e-20 -5.20994e-14 1.25153e-16 1.25153e-16 -5.20994e-14 0 1.62901e-15 1.62901e-15 8.18292e-16 3.78773e-18 -2.75376e-15 7.92084e-18 -1.61813e-14 -7.47626e-24 -5.56011e-24 -1.61813e-14 5.52336e-15 5.52337e-15 -4.93958e-14 -5.21575e-14 1.8943e-14 3.7886e-14 1.8943e-14 -5.2157e-14 -5.2157e-14 1.8943e-14 3.7886e-14 1.8943e-14 -1.89429e-14 3.10275e-17 -3.31744e-14 -1.04311e-13 -5.82929e-19 5.33007e-24 3.73034e-23 6.22852e-17 0 -5.00895e-15 -5.54758e-15 -5.79686e-15 -2.75376e-15 1.49636e-30 -2.76168e-15 1.61813e-14 -2.19122e-24 -5.56011e-24 -7.47625e-24 -2.17046e-14 -5.52336e-15 4.93958e-14 5.21575e-14 -1.8943e-14 -3.7886e-14 -1.8943e-14 5.2157e-14 3.3214e-14 -3.78859e-14 -1.8943e-14 -1.8943e-14 -1.89429e-14 -3.09966e-17 5.21174e-14 1.04311e-13 5.82927e-19 5.33007e-24 -3.38835e-23 -6.22852e-17 0 3.88466e-13 1.97276e-13 3.0431e-15 2.75376e-15 2.75376e-15 -1.52846e-24 -2.76168e-15 1.61813e-14 1.61813e-14 1.34196e-14 1.89429e-14 -1.34196e-14 -1.61813e-14 -1.8943e-14 1.29772e-20 3.78859e-14 1.29793e-20 -1.8943e-14 -2.73559e-20 1.8943e-14 1.8943e-14 1.8943e-14 3.78859e-14 -3.31817e-14 -5.21247e-14 -1.10188e-20 5.20994e-14 -6.22852e-17 -6.22852e-17 5.20994e-14 0 2.25742e-06 0 0 0 0 0 0 0 0 0 0 0 0 0 0 0 0 0 0 0 0 0 0 0 0 0 0 0 0 0 0
				</DataArray>
			</PointData>
			<CellData Scalars="Density">
				<DataArray Name="Density" type="Float32" format="ascii">