<?xml version="1.0"?>
<VTKFile type="PolyData">
	<PolyData>
		<Piece NumberOfPoints="961" NumberOfPolys="900">
			<Points>
				<DataArray type="Float32" NumberOfComponents="3" format="ascii">
 0 0 0 0.04 0 0 0.08 0 0 0.12 0 0 0.16 0 0 0.2 0 0 0.24 0 0 0.28 0 0 0.32 0 0 0.36 0 0 0.4 0 0 0.44 0 0 0.48 0 0 0.52 0 0 0.56 0 0 0.6 0 0 0.64 0 0 0.68 0 0 0.72 0 0 0.76 0 0 0.8 0 0 0.84 0 0 0.88 0 0 0.92 0 0 0.96 0 0 1 0 0 1.04 0 0 1.08 0 0 1.12 0 0 1.16 0 0 1.2 0 0 0 0.04 0 0.04 0.04 0 0.08 0.04 0 0.12 0.04 0 0.16 0.04 0 0.2 0.04 0 0.24 0.04 0 0.28 0.04 0 0.32 0.04 0 0.36 0.04 0 0.4 0.04 0 0.44 0.04 0 0.48 0.04 0 0.52 0.04 0 0.56 0.04 0 0.6 0.04 0 0.64 0.04 0 0.68 0.04 0 0.72 0.04 0 0.76 0.04 0 0.8 0.04 0 0.84 0.04 0 0.88 0.04 0 0.92 0.04 0 0.96 0.04 0 1 0.04 0 1.04 0.04 0 1.08 0.04 0 1.12 0.04 0 1.16 0.04 0 1.2 0.04 0 0 0.08 0 0.04 0.08 0 0.08 0.08 0 0.12 0.08 0 0.16 0.08 0 0.2 0.08 0 0.24 0.08 0 0.28 0.08 0 0.32 0.08 0 0.36 0.08 0 0.4 0.08 0 0.44 0.08 0 0.48 0.08 0 0.52 0.08 0 0.56 0.08 0 0.6 0.08 0 0.64 0.08 0 0.68 0.08 0 0.72 0.08 0 0.76 0.08 0 0.8 0.08 0 0.84 0.08 0 0.88 0.08 0 0.92 0.08 0 0.96 0.08 0 1 0.08 0 1.04 0.08 0 1.08 0.08 0 1.12 0.08 0 1.16 0.08 0 1.2 0.08 0 0 0.12 0 0.04 0.12 0 0.08 0.12 0 0.12 0.12 0 0.16 0.12 0 0.2 0.12 0 0.24 0.12 0 0.28 0.12 0 0.32 0.12 0 0.36 0.12 0 0.4 0.12 0 0.44 0.12 0 0.48 0.12 0 0.52 0.12 0 0.56 0.12 0 0.6 0.12 0 0.64 0.12 0 0.68 0.12 0 0.72 0.12 0 0.76 0.12 0 0.8 0.12 0 0.84 0.12 0 0.88 0.12 0 0.92 0.12 0 0.96 0.12 0 1 0.12 0 1.04 0.12 0 1.08 0.12 0 1.12 0.12 0 1.16 0.12 0 1.2 0.12 0 0 0.16 0 0.04 0.16 0 0.08 0.16 0 0.12 0.16 0 0.16 0.16 0 0.2 0.16 0 0.24 0.16 0 0.28 0.16 0 0.32 0.16 0 0.36 0.16 0 0.4 0.16 0 0.44 0.16 0 0.48 0.16 0 0.52 0.16 0 0.56 0.16 0 0.6 0.16 0 0.64 0.16 0 0.68 0.16 0 0.72 0.16 0 0.76 0.16 0 0.8 0.16 0 0.84 0.16 0 0.88 0.16 0 0.92 0.16 0 0.96 0.16 0 1 0.16 0 1.04 0.16 0 1.08 0.16 0 1.12 0.16 0 1.16 0.16 0 1.2 0.16 0 0 0.2 0 0.04 0.2 0 0.08 0.2 0 0.12 0.2 0 0.16 0.2 0 0.2 0.2 0 0.24 0.2 0 0.28 0.2 0 0.32 0.2 0 0.36 0.2 0 0.4 0.2 0 0.44 0.2 0 0.48 0.2 0 0.52 0.2 0 0.56 0.2 0 0.6 0.2 0 0.64 0.2 0 0.68 0.2 0 0.72 0.2 0 0.76 0.2 0 0.8 0.2 0 0.84 0.2 0 0.88 0.2 0 0.92 0.2 0 0.96 0.2 0 1 0.2 0 1.04 0.2 0 1.08 0.2 0 1.12 0.2 0 1.16 0.2 0 1.2 0.2 0 0 0.24 0 0.04 0.24 0 0.08 0.24 0 0.12 0.24 0 0.16 0.24 0 0.2 0.24 0 0.24 0.24 0 0.28 0.24 0 0.32 0.24 0 0.36 0.24 0 0.4 0.24 0 0.44 0.24 0 0.48 0.24 0 0.52 0.24 0 0.56 0.24 0 0.6 0.24 0 0.64 0.24 0 0.68 0.24 0 0.72 0.24 0 0.76 0.24 0 0.8 0.24 0 0.84 0.24 0 0.88 0.24 0 0.92 0.24 0 0.96 0.24 0 1 0.24 0 1.04 0.24 0 1.08 0.24 0 1.12 0.24 0 1.16 0.24 0 1.2 0.24 0 0 0.28 0 0.04 0.28 0 0.08 0.28 0 0.12 0.28 0 0.16 0.28 0 0.2 0.28 0 0.24 0.28 0 0.28 0.28 0 0.32 0.28 0 0.36 0.28 0 0.4 0.28 0 0.44 0.28 0 0.48 0.28 0 0.52 0.28 0 0.56 0.28 0 0.6 0.28 0 0.64 0.28 0 0.68 0.28 0 0.72 0.28 0 0.76 0.28 0 0.8 0.28 0 0.84 0.28 0 0.88 0.28 0 0.92 0.28 0 0.96 0.28 0 1 0.28 0 1.04 0.28 0 1.08 0.28 0 1.12 0.28 0 1.16 0.28 0 1.2 0.28 0 0 0.32 0 0.04 0.32 0 0.08 0.32 0 0.12 0.32 0 0.16 0.32 0 0.2 0.32 0 0.24 0.32 0 0.28 0.32 0 0.32 0.32 0 0.36 0.32 0 0.4 0.32 0 0.44 0.32 0 0.48 0.32 0 0.52 0.32 0 0.56 0.32 0 0.6 0.32 0 0.64 0.32 0 0.68 0.32 0 0.72 0.32 0 0.76 0.32 0 0.8 0.32 0 0.84 0.32 0 0.88 0.32 0 0.92 0.32 0 0.96 0.32 0 1 0.32 0 1.04 0.32 0 1.08 0.32 0 1.12 0.32 0 1.16 0.32 0 1.2 0.32 0 0 0.36 0 0.04 0.36 0 0.08 0.36 0 0.12 0.36 0 0.16 0.36 0 0.2 0.36 0 0.24 0.36 0 0.28 0.36 0 0.32 0.36 0 0.36 0.36 0 0.4 0.36 0 0.44 0.36 0 0.48 0.36 0 0.52 0.36 0 0.56 0.36 0 0.6 0.36 0 0.64 0.36 0 0.68 0.36 0 0.72 0.36 0 0.76 0.36 0 0.8 0.36 0 0.84 0.36 0 0.88 0.36 0 0.92 0.36 0 0.96 0.36 0 1 0.36 0 1.04 0.36 0 1.08 0.36 0 1.12 0.36 0 1.16 0.36 0 1.2 0.36 0 0 0.4 0 0.04 0.4 0 0.08 0.4 0 0.12 0.4 0 0.16 0.4 0 0.2 0.4 0 0.24 0.4 0 0.28 0.4 0 0.32 0.4 0 0.36 0.4 0 0.4 0.4 0 0.44 0.4 0 0.48 0.4 0 0.52 0.4 0 0.56 0.4 0 0.6 0.4 0 0.64 0.4 0 0.68 0.4 0 0.72 0.4 0 0.76 0.4 0 0.8 0.4 0 0.84 0.4 0 0.88 0.4 0 0.92 0.4 0 0.96 0.4 0 1 0.4 0 1.04 0.4 0 1.08 0.4 0 1.12 0.4 0 1.16 0.4 0 1.2 0.4 0 0 0.44 0 0.04 0.44 0 0.08 0.44 0 0.12 0.44 0 0.16 0.44 0 0.2 0.44 0 0.24 0.44 0 0.28 0.44 0 0.32 0.44 0 0.36 0.44 0 0.4 0.44 0 0.44 0.44 0 0.48 0.44 0 0.52 0.44 0 0.56 0.44 0 0.6 0.44 0 0.64 0.44 0 0.68 0.44 0 0.72 0.44 0 0.76 0.44 0 0.8 0.44 0 0.84 0.44 0 0.88 0.44 0 0.92 0.44 0 0.96 0.44 0 1 0.44 0 1.04 0.44 0 1.08 0.44 0 1.12 0.44 0 1.16 0.44 0 1.2 0.44 0 0 0.48 0 0.04 0.48 0 0.08 0.48 0 0.12 0.48 0 0.16 0.48 0 0.2 0.48 0 0.24 0.48 0 0.28 0.48 0 0.32 0.48 0 0.36 0.48 0 0.4 0.48 0 0.44 0.48 0 0.48 0.48 0 0.52 0.48 0 0.56 0.48 0 0.6 0.48 0 0.64 0.48 0 0.68 0.48 0 0.72 0.48 0 0.76 0.48 0 0.8 0.48 0 0.84 0.48 0 0.88 0.48 0 0.92 0.48 0 0.96 0.48 0 1 0.48 0 1.04 0.48 0 1.08 0.48 0 1.12 0.48 0 1.16 0.48 0 1.2 0.48 0 0 0.52 0 0.04 0.52 0 0.08 0.52 0 0.12 0.52 0 0.16 0.52 0 0.2 0.52 0 0.24 0.52 0 0.28 0.52 0 0.32 0.52 0 0.36 0.52 0 0.4 0.52 0 0.44 0.52 0 0.48 0.52 0 0.52 0.52 0 0.56 0.52 0 0.6 0.52 0 0.64 0.52 0 0.68 0.52 0 0.72 0.52 0 0.76 0.52 0 0.8 0.52 0 0.84 0.52 0 0.88 0.52 0 0.92 0.52 0 0.96 0.52 0 1 0.52 0 1.04 0.52 0 1.08 0.52 0 1.12 0.52 0 1.16 0.52 0 1.2 0.52 0 0 0.56 0 0.04 0.56 0 0.08 0.56 0 0.12 0.56 0 0.16 0.56 0 0.2 0.56 0 0.24 0.56 0 0.28 0.56 0 0.32 0.56 0 0.36 0.56 0 0.4 0.56 0 0.44 0.56 0 0.48 0.56 0 0.52 0.56 0 0.56 0.56 0 0.6 0.56 0 0.64 0.56 0 0.68 0.56 0 0.72 0.56 0 0.76 0.56 0 0.8 0.56 0 0.84 0.56 0 0.88 0.56 0 0.92 0.56 0 0.96 0.56 0 1 0.56 0 1.04 0.56 0 1.08 0.56 0 1.12 0.56 0 1.16 0.56 0 1.2 0.56 0 0 0.6 0 0.04 0.6 0 0.08 0.6 0 0.12 0.6 0 0.16 0.6 0 0.2 0.6 0 0.24 0.6 0 0.28 0.6 0 0.32 0.6 0 0.36 0.6 0 0.4 0.6 0 0.44 0.6 0 0.48 0.6 0 0.52 0.6 0 0.56 0.6 0 0.6 0.6 0 0.64 0.6 0 0.68 0.6 0 0.72 0.6 0 0.76 0.6 0 0.8 0.6 0 0.84 0.6 0 0.88 0.6 0 0.92 0.6 0 0.96 0.6 0 1 0.6 0 1.04 0.6 0 1.08 0.6 0 1.12 0.6 0 1.16 0.6 0 1.2 0.6 0 0 0.64 0 0.04 0.64 0 0.08 0.64 0 0.12 0.64 0 0.16 0.64 0 0.2 0.64 0 0.24 0.64 0 0.28 0.64 0 0.32 0.64 0 0.36 0.64 0 0.4 0.64 0 0.44 0.64 0 0.48 0.64 0 0.52 0.64 0 0.56 0.64 0 0.6 0.64 0 0.64 0.64 0 0.68 0.64 0 0.72 0.64 0 0.76 0.64 0 0.8 0.64 0 0.84 0.64 0 0.88 0.64 0 0.92 0.64 0 0.96 0.64 0 1 0.64 0 1.04 0.64 0 1.08 0.64 0 1.12 0.64 0 1.16 0.64 0 1.2 0.64 0 0 0.68 0 0.04 0.68 0 0.08 0.68 0 0.12 0.68 0 0.16 0.68 0 0.2 0.68 0 0.24 0.68 0 0.28 0.68 0 0.32 0.68 0 0.36 0.68 0 0.4 0.68 0 0.44 0.68 0 0.48 0.68 0 0.52 0.68 0 0.56 0.68 0 0.6 0.68 0 0.64 0.68 0 0.68 0.68 0 0.72 0.68 0 0.76 0.68 0 0.8 0.68 0 0.84 0.68 0 0.88 0.68 0 0.92 0.68 0 0.96 0.68 0 1 0.68 0 1.04 0.68 0 1.08 0.68 0 1.12 0.68 0 1.16 0.68 0 1.2 0.68 0 0 0.72 0 0.04 0.72 0 0.08 0.72 0 0.12 0.72 0 0.16 0.72 0 0.2 0.72 0 0.24 0.72 0 0.28 0.72 0 0.32 0.72 0 0.36 0.72 0 0.4 0.72 0 0.44 0.72 0 0.48 0.72 0 0.52 0.72 0 0.56 0.72 0 0.6 0.72 0 0.64 0.72 0 0.68 0.72 0 0.72 0.72 0 0.76 0.72 0 0.8 0.72 0 0.84 0.72 0 0.88 0.72 0 0.92 0.72 0 0.96 0.72 0 1 0.72 0 1.04 0.72 0 1.08 0.72 0 1.12 0.72 0 1.16 0.72 0 1.2 0.72 0 0 0.76 0 0.04 0.76 0 0.08 0.76 0 0.12 0.76 0 0.16 0.76 0 0.2 0.76 0 0.24 0.76 0 0.28 0.76 0 0.32 0.76 0 0.36 0.76 0 0.4 0.76 0 0.44 0.76 0 0.48 0.76 0 0.52 0.76 0 0.56 0.76 0 0.6 0.76 0 0.64 0.76 0 0.68 0.76 0 0.72 0.76 0 0.76 0.76 0 0.8 0.76 0 0.84 0.76 0 0.88 0.76 0 0.92 0.76 0 0.96 0.76 0 1 0.76 0 1.04 0.76 0 1.08 0.76 0 1.12 0.76 0 1.16 0.76 0 1.2 0.76 0 0 0.8 0 0.04 0.8 0 0.08 0.8 0 0.12 0.8 0 0.16 0.8 0 0.2 0.8 0 0.24 0.8 0 0.28 0.8 0 0.32 0.8 0 0.36 0.8 0 0.4 0.8 0 0.44 0.8 0 0.48 0.8 0 0.52 0.8 0 0.56 0.8 0 0.6 0.8 0 0.64 0.8 0 0.68 0.8 0 0.72 0.8 0 0.76 0.8 0 0.8 0.8 0 0.84 0.8 0 0.88 0.8 0 0.92 0.8 0 0.96 0.8 0 1 0.8 0 1.04 0.8 0 1.08 0.8 0 1.12 0.8 0 1.16 0.8 0 1.2 0.8 0 0 0.84 0 0.04 0.84 0 0.08 0.84 0 0.12 0.84 0 0.16 0.84 0 0.2 0.84 0 0.24 0.84 0 0.28 0.84 0 0.32 0.84 0 0.36 0.84 0 0.4 0.84 0 0.44 0.84 0 0.48 0.84 0 0.52 0.84 0 0.56 0.84 0 0.6 0.84 0 0.64 0.84 0 0.68 0.84 0 0.72 0.84 0 0.76 0.84 0 0.8 0.84 0 0.84 0.84 0 0.88 0.84 0 0.92 0.84 0 0.96 0.84 0 1 0.84 0 1.04 0.84 0 1.08 0.84 0 1.12 0.84 0 1.16 0.84 0 1.2 0.84 0 0 0.88 0 0.04 0.88 0 0.08 0.88 0 0.12 0.88 0 0.16 0.88 0 0.2 0.88 0 0.24 0.88 0 0.28 0.88 0 0.32 0.88 0 0.36 0.88 0 0.4 0.88 0 0.44 0.88 0 0.48 0.88 0 0.52 0.88 0 0.56 0.88 0 0.6 0.88 0 0.64 0.88 0 0.68 0.88 0 0.72 0.88 0 0.76 0.88 0 0.8 0.88 0 0.84 0.88 0 0.88 0.88 0 0.92 0.88 0 0.96 0.88 0 1 0.88 0 1.04 0.88 0 1.08 0.88 0 1.12 0.88 0 1.16 0.88 0 1.2 0.88 0 0 0.92 0 0.04 0.92 0 0.08 0.92 0 0.12 0.92 0 0.16 0.92 0 0.2 0.92 0 0.24 0.92 0 0.28 0.92 0 0.32 0.92 0 0.36 0.92 0 0.4 0.92 0 0.44 0.92 0 0.48 0.92 0 0.52 0.92 0 0.56 0.92 0 0.6 0.92 0 0.64 0.92 0 0.68 0.92 0 0.72 0.92 0 0.76 0.92 0 0.8 0.92 0 0.84 0.92 0 0.88 0.92 0 0.92 0.92 0 0.96 0.92 0 1 0.92 0 1.04 0.92 0 1.08 0.92 0 1.12 0.92 0 1.16 0.92 0 1.2 0.92 0 0 0.96 0 0.04 0.96 0 0.08 0.96 0 0.12 0.96 0 0.16 0.96 0 0.2 0.96 0 0.24 0.96 0 0.28 0.96 0 0.32 0.96 0 0.36 0.96 0 0.4 0.96 0 0.44 0.96 0 0.48 0.96 0 0.52 0.96 0 0.56 0.96 0 0.6 0.96 0 0.64 0.96 0 0.68 0.96 0 0.72 0.96 0 0.76 0.96 0 0.8 0.96 0 0.84 0.96 0 0.88 0.96 0 0.92 0.96 0 0.96 0.96 0 1 0.96 0 1.04 0.96 0 1.08 0.96 0 1.12 0.96 0 1.16 0.96 0 1.2 0.96 0 0 1 0 0.04 1 0 0.08 1 0 0.12 1 0 0.16 1 0 0.2 1 0 0.24 1 0 0.28 1 0 0.32 1 0 0.36 1 0 0.4 1 0 0.44 1 0 0.48 1 0 0.52 1 0 0.56 1 0 0.6 1 0 0.64 1 0 0.68 1 0 0.72 1 0 0.76 1 0 0.8 1 0 0.84 1 0 0.88 1 0 0.92 1 0 0.96 1 0 1 1 0 1.04 1 0 1.08 1 0 1.12 1 0 1.16 1 0 1.2 1 0 0 1.04 0 0.04 1.04 0 0.08 1.04 0 0.12 1.04 0 0.16 1.04 0 0.2 1.04 0 0.24 1.04 0 0.28 1.04 0 0.32 1.04 0 0.36 1.04 0 0.4 1.04 0 0.44 1.04 0 0.48 1.04 0 0.52 1.04 0 0.56 1.04 0 0.6 1.04 0 0.64 1.04 0 0.68 1.04 0 0.72 1.04 0 0.76 1.04 0 0.8 1.04 0 0.84 1.04 0 0.88 1.04 0 0.92 1.04 0 0.96 1.04 0 1 1.04 0 1.04 1.04 0 1.08 1.04 0 1.12 1.04 0 1.16 1.04 0 1.2 1.04 0 0 1.08 0 0.04 1.08 0 0.08 1.08 0 0.12 1.08 0 0.16 1.08 0 0.2 1.08 0 0.24 1.08 0 0.28 1.08 0 0.32 1.08 0 0.36 1.08 0 0.4 1.08 0 0.44 1.08 0 0.48 1.08 0 0.52 1.08 0 0.56 1.08 0 0.6 1.08 0 0.64 1.08 0 0.68 1.08 0 0.72 1.08 0 0.76 1.08 0 0.8 1.08 0 0.84 1.08 0 0.88 1.08 0 0.92 1.08 0 0.96 1.08 0 1 1.08 0 1.04 1.08 0 1.08 1.08 0 1.12 1.08 0 1.16 1.08 0 1.2 1.08 0 0 1.12 0 
[...]
			<PointData Scalars="VitesseX">
				<DataArray Name="VitesseX" type="Float32" format="ascii">
 0 0.00206299 -0.0285048 -0.0160652 -0.000502188 0.0401145 0.0518655 0.0820072 0.101885 0.121303 0.141001 0.159425 0.177731 0.19617 0.214855 0.234278 0.254608 0.276268 0.297373 0.344081 0.364763 0.338839 0.256722 0.117948 0.0134176 7.49215e-05 1.17083e-08 1.57016e-12 -7.7629e-15 7.94976e-15 0 0 0.0398942 0.0409455 0.0461651 0.041783 0.0681267 0.0723531 0.0961407 0.112255 0.128487 0.146157 0.16301 0.180087 0.197555 0.215461 0.234219 0.254143 0.275386 0.296449 0.343605 0.3625 0.335675 0.25249 0.113845 0.0123626 6.44449e-05 1.03652e-08 1.43192e-12 -7.78142e-15 7.95221e-15 0 0 0.0337676 0.0622833 0.0792699 0.0767063 0.095017 0.0966017 0.11104 0.122649 0.135357 0.150681 0.166158 0.182429 0.199425 0.217108 0.235558 0.255533 0.276103 0.297533 0.34587 0.359731 0.32972 0.242044 0.102373 0.00961585 4.08903e-05 7.18932e-09 1.08249e-12 -7.89548e-15 4.04518e-15 0 0 0.0253578 0.0557644 0.0723373 0.082953 0.0994262 0.107536 0.118943 0.13043 0.142222 0.155728 0.169893 0.185483 0.202014 0.219549 0.237644 0.257748 0.277272 0.300335 0.349506 0.35608 0.320432 0.225309 0.0846301 0.00618519 1.8983e-05 3.89254e-09 6.72363e-13 -3.97845e-15 4.05027e-15 0 0 0.0148737 0.0424335 0.0628031 0.0803251 0.0975973 0.109506 0.122999 0.13623 0.148465 0.161384 0.174597 0.189647 0.20561 0.222857 0.240531 0.260742 0.279022 0.305899 0.352926 0.350939 0.306403 0.201449 0.0624017 0.00318066 6.40486e-06 1.63002e-09 3.34746e-13 -4.7207e-19 3.98242e-15 0 0 0.00991956 0.0325514 0.0559545 0.0737161 0.0938363 0.10868 0.124662 0.13852 0.152748 0.16648 0.180046 0.194769 0.210242 0.227027 0.244447 0.264363 0.28154 0.315431 0.354022 0.342642 0.286157 0.169479 0.0392806 0.00125572 1.58669e-06 5.23505e-10 1.36392e-13 -3.99059e-15 -8.89973e-17 0 0 0.0111223 0.0298399 0.0540841 0.0708777 0.0921542 0.108601 0.124302 0.139298 0.155618 0.170097 0.185234 0.199818 0.215534 0.231532 0.24934 0.267953 0.285433 0.328359 0.350766 0.329394 0.257711 0.1291 0.0202593 0.000364077 3.05823e-07 1.30389e-10 2.03058e-14 2.28268e-14 -4.15061e-15 0 0 0.0133227 0.0304173 0.0527949 0.0711925 0.0921644 0.10837 0.124136 0.141167 0.157391 0.17306 0.188671 0.204054 0.22004 0.235563 0.25449 0.270569 0.292522 0.338627 0.342915 0.308651 0.218444 0.0834635 0.00791703 7.33677e-05 5.11855e-08 2.65152e-11 9.77099e-15 6.41295e-20 2.27382e-14 0 0 0.0141626 0.0305532 0.0512931 0.0719056 0.0916829 0.108451 0.125519 0.142566 0.158781 0.175053 0.190824 0.207459 0.222734 0.23971 0.25789 0.272669 0.306344 0.340318 0.329602 0.27684 0.166496 0.0419912 0.00217212 9.68022e-06 7.59876e-09 4.65842e-12 1.20214e-15 9.64009e-18 2.27118e-14 0 0 0.0147494 0.0312308 0.0506844 0.071176 0.0908209 0.108786 0.126062 0.142984 0.159502 0.175664 0.192625 0.208814 0.224708 0.243614 0.258621 0.277983 0.322018 0.332365 0.306607 0.230968 0.10447 0.01553 0.000392077 8.45025e-07 8.77514e-10 6.93072e-13 -2.24262e-14 1.42685e-17 1.86132e-14 0 0 0.0150193 0.0316069 0.0500083 0.0696074 0.0892378 0.107768 0.125518 0.142573 0.159082 0.176097 0.192968 0.208999 0.227521 0.244299 0.259141 0.293429 0.324486 0.315994 0.269169 0.167726 0.0481387 0.00380582 4.27707e-05 6.25442e-08 7.63325e-11 7.72455e-14 8.28516e-15 -3.08565e-14 2.67629e-14 0 0 0.0152957 0.0316833 0.0491813 0.0676644 0.0866862 0.10547 0.123514 0.140875 0.158334 0.175498 0.191974 0.210281 0.228423 0.24292 0.267331 0.308004 0.31322 0.2867 0.21261 0.0931645 0.0151766 0.000561555 2.58457e-06 4.52455e-09 6.08055e-12 8.12846e-15 -9.91136e-16 1.04042e-15 -1.98674e-14 0 0 0.015423 0.0316552 0.0485179 0.0659562 0.0839568 0.102246 0.120497 0.13866 0.156276 0.173564 0.192269 0.210917 0.226211 0.246695 0.286761 0.303451 0.289594 0.237532 0.134788 0.0349658 0.00289662 4.4635e-05 1.10182e-07 2.42515e-10 4.30767e-13 5.18849e-16 -6.3443e-14 6.34569e-14 -2.27273e-14 0 0 0.0154306 0.031502 0.0479168 0.0647032 0.0819853 0.0997867 0.117877 0.135969 0.154344 0.173573 0.192189 0.208398 0.228477 0.26559 0.288421 0.28339 0.246772 0.163305 0.0577577 0.00814569 0.000295159 1.69586e-06 4.94286e-09 1.10389e-11 2.20156e-14 2.55989e-14 -5.83587e-14 5.83541e-14 -2.56015e-14 0 0 0.0154096 0.0312802 0.0473982 0.0638596 0.0808167 0.0983494 0.116477 0.135228 0.154351 0.172633 0.1899 0.211473 0.246679 0.270634 0.271031 0.24446 0.176766 0.0766175 0.015292 0.000992662 1.34222e-05 4.78757e-08 1.64256e-10 4.87593e-13 4.59876e-16 -1.07909e-18 2.67967e-14 -2.67968e-14 -5.56532e-18 0 0 0.0153543 0.0310911 0.0471066 0.0635564 0.0805804 0.0982673 0.116573 0.135041 0.153116 0.171868 0.196229 0.229582 0.251277 0.25418 0.233527 0.177216 0.0868527 0.0216657 0.00209134 5.31862e-05 2.85061e-07 1.38976e-09 4.98644e-12 4.25651e-14 1.99713e-17 -5.35914e-14 5.35913e-14 -5.35914e-14 5.35953e-14 0 0 0.0154144 0.0311854 0.0473166 0.0639163 0.080994 0.0985186 0.11638 0.134963 0.156157 0.183877 0.212349 0.230678 0.233584 0.215848 0.166928 0.0870783 0.0248863 0.00310757 0.000121066 1.04327e-06 6.25046e-09 2.90971e-11 1.6255e-13 -2.57373e-14 2.63367e-19 -1.19835e-18 2.67969e-14 -2.6797e-14 -5.52265e-18 0 0 0.0155414 0.0314272 0.0477664 0.0645457 0.0818575 0.100203 0.120689 0.145068 0.171162 0.193127 0.208342 0.209306 0.19226 0.1477 0.0781347 0.0239666 0.00347249 0.000176954 2.24721e-06 1.63009e-08 1.04616e-10 6.92655e-13 -2.34679e-14 6.72448e-18 1.84862e-19 2.67947e-14 -7.30864e-14 7.30863e-14 -2.68014e-14 0 0 0.0159726 0.0326374 0.0502102 0.0688859 0.0891729 0.1109 0.132926 0.153564 0.171741 0.182477 0.180991 0.16284 0.121014 0.0622702 0.0194381 0.00298613 0.000175594 2.88235e-06 2.60957e-08 2.25886e-10 1.76637e-12 9.96338e-15 4.18068e-17 2.8884e-18 3.20712e-18 2.67947e-14 -7.30864e-14 4.62856e-14 -8.92718e-18 0 0 0.0183394 0.0372746 0.0565686 0.0760658 0.0954131 0.11438 0.132315 0.146145 0.152395 0.147776 0.12759 0.0888847 0.0429412 0.0129647 0.00194631 0.000118531 2.22718e-06 2.5963e-08 2.90789e-10 2.74041e-12 6.54992e-14 -4.54822e-16 2.83456e-17 -2.12213e-18 3.21883e-18 -1.13275e-18 2.67968e-14 -5.35974e-14 2.67866e-14 0 0 0.0193418 0.0384197 0.0570152 0.0750199 0.0916053 0.105684 0.115124 0.117085 0.109082 0.0878266 0.055512 0.0245379 0.00668251 0.000908244 5.16069e-05 1.02301e-06 1.60567e-08 2.23737e-10 2.81599e-12 2.68729e-14 3.60363e-16 2.68108e-14 -5.35986e-14 5.35985e-14 -1.61371e-20 -5.35914e-14 5.35898e-14 -2.67914e-14 2.6795e-14 0 0 0.0181377 0.0351661 0.0506128 0.0638719 0.07389 0.0789416 0.0771557 0.0669215 0.048719 0.0271619 0.0104991 0.00236923 0.000270375 1.29373e-05 2.75364e-07 6.09954e-09 1.02497e-10 1.65787e-12 6.3927e-14 3.31702e-16 3.43832e-17 -2.36648e-17 4.53174e-16 -4.38036e-16 3.47742e-18 1.67483e-18 2.67925e-14 -2.67918e-14 2.67952e-14 0 0 0.0136233 0.025257 0.0342994 0.0399649 0.0412902 0.0379009 0.0299625 0.0191844 0.00903278 0.00273908 0.000472539 4.13381e-05 1.6105e-06 4.54518e-08 1.34202e-09 2.80953e-11 6.24811e-13 1.08611e-14 -4.25768e-16 2.68108e-14 -5.36051e-14 2.67942e-14 4.21858e-16 -4.1025e-16 1.50384e-18 2.67994e-14 -2.68009e-14 -2.67985e-14 5.36018e-14 0 0 0.00601982 0.0105184 0.0129932 0.0132362 0.0113691 0.00786288 0.00405091 0.0014046 0.000304085 3.75218e-05 2.37554e-06 1.01012e-07 4.64325e-09 1.5543e-10 4.74805e-12 1.57922e-13 -2.34846e-14 -3.51302e-18 2.7129e-17 -3.45866e-18 4.26403e-16 -4.508e-16 7.2661e-19 2.52327e-17 6.48517e-18 -3.38404e-17 4.64526e-16 -4.42811e-16 -4.62999e-14 0 0 0.000963512 0.00154183 0.00156501 0.00114487 0.000601034 0.000220489 5.36248e-05 7.99349e-06 7.26861e-07 5.40557e-08 4.07051e-09 2.2207e-10 1.01334e-11 4.58918e-13 4.04946e-14 -2.57337e-14 -1.02621e-17 7.92246e-18 -2.77827e-18 1.35105e-19 4.38036e-16 -4.65962e-16 3.02404e-17 -2.4502e-18 8.40813e-18 -3.88977e-17 -4.58204e-14 7.26406e-14 -7.3095e-14 0 0 9.14995e-06 1.15954e-05 8.01066e-06 3.51664e-06 1.02761e-06 2.14436e-07 3.75473e-08 5.99079e-09 7.37266e-10 6.51142e-11 5.27355e-12 3.96751e-13 -3.2469e-14 5.40221e-14 1.98378e-17 -5.35915e-14 5.35915e-14 -5.35946e-14 5.35948e-14 1.61318e-20 -5.35949e-14 5.35928e-14 -5.35881e-14 5.35901e-14 -1.19639e-18 -2.98576e-18 -1.46183e-13 1.46179e-13 8.93856e-18 0 0 1.31528e-09 1.81511e-09 1.45968e-09 7.98799e-10 3.07873e-10 8.55107e-11 1.8408e-11 3.46968e-12 5.43418e-13 6.46072e-14 7.10534e-15 6.29627e-15 -2.56036e-14 1.23079e-18 -5.70491e-34 -1.19835e-18 2.67969e-14 -2.6797e-14 1.26396e-18 -2.42069e-24 1.67482e-18 2.6792e-14 -5.36156e-14 5.36145e-14 7.50555e-19 -7.31212e-14 9.00684e-16 -9.00863e-16 7.31251e-14 0 0 1.38343e-13 2.11456e-13 1.9114e-13 1.38795e-13 6.78175e-14 2.80662e-15 7.73569e-15 8.22075e-16 2.28072e-14 9.84483e-17 -6.76915e-15 -4.98908e-14 6.07477e-14 -2.67946e-14 -1.23874e-33 2.67947e-14 -7.30864e-14 7.30863e-14 -2.67946e-14 -1.45213e-18 2.67989e-14 -2.68009e-14 4.09524e-16 -4.67006e-14 -1.06037e-17 8.55265e-16 4.84419e-17 -4.86217e-17 -8.25674e-16 0 0 -2.7807e-16 -6.47674e-15 -3.97031e-15 1.0008e-16 4.13352e-15 -2.2827e-14 1.93942e-19 -9.58827e-18 1.50089e-17 2.27313e-14 -6.78138e-15 -4.9914e-14 6.07524e-14 -2.67946e-14 -1.44542e-33 2.67947e-14 -7.30864e-14 4.62856e-14 6.36783e-18 2.67965e-14 -2.67967e-14 -2.68054e-14 5.40352e-14 -7.35277e-14 -7.1671e-18 8.55084e-16 4.86221e-17 -4.83588e-17 -8.25937e-16 0 0 -2.12368e-10 -1.05682e-14 3.98867e-15 -3.91957e-15 8.89973e-17 3.97338e-15 -2.27381e-14 2.27118e-14 -2.68004e-14 2.68256e-14 -2.56091e-14 2.84703e-14 -2.56089e-14 1.16833e-17 -1.24812e-37 -1.17237e-17 2.68074e-14 -5.36165e-14 2.68211e-14 2.67961e-14 -2.67964e-14 -5.86098e-18 -4.63103e-14 7.3106e-14 1.669e-18 -7.31177e-14 9.22917e-16 -9.22654e-16 7.31212e-14 0 0 0 0 0 0 0 0 0 0 0 0 0 0 0 0 0 0 0 0 0 0 0 0 0 0 0 0 0 0 0 0
				</DataArray>
				<DataArray Name="VitesseY" type="Float32" format="ascii">
 0 0 0 0 0 0 0 0 0 0 0 0 0 0 0 0 0 0 0 0 0 0 0 0 0 0 0 0 0 0 0 0.00207898 0.0398949 0.0337642 0.0253529 0.014869 0.00991628 0.0111208 0.0133223 0.014163 0.0147502 0.01502 0.0152959 0.0154231 0.0154308 0.0154098 0.0153546 0.0154146 0.0155415 0.0159725 0.0183393 0.0193414 0.018137 0.0136222 0.00601905 0.000963332 9.14656e-06 1.31471e-09 1.38274e-13 1.34832e-17 -2.58472e-18 0 -0.0284873 0.0409584 0.062285 0.0557637 0.0424311 0.0325492 0.029838 0.0304156 0.0305526 0.0312312 0.0316076 0.0316836 0.0316553 0.0315022 0.0312805 0.0310914 0.0311857 0.0314272 0.0326373 0.0372738 0.0384184 0.0351643 0.025255 0.0105171 0.00154155 1.15912e-05 1.81435e-09 2.11398e-13 1.18968e-16 -3.88606e-15 0 -0.0160578 0.0461778 0.0792717 0.0723362 0.0628011 0.055952 0.0540808 0.0527914 0.0512903 0.0506831 0.0500083 0.0491818 0.0485184 0.0479172 0.0473986 0.0471069 0.0473168 0.0477663 0.05021 0.0565675 0.0570135 0.0506103 0.0342967 0.0129918 0.00156475 8.00794e-06 1.45911e-09 1.90991e-13 -3.93999e-15 3.98715e-15 0 -0.000501841 0.0417933 0.0767168 0.0829589 0.0803273 0.0737151 0.0708747 0.0711884 0.0719013 0.0711731 0.0696066 0.0676652 0.0659573 0.064704 0.0638601 0.0635567 0.0639164 0.0645454 0.0688854 0.0760641 0.0750176 0.0638688 0.039962 0.0132349 0.0011447 3.51556e-06 7.98513e-10 1.38806e-13 9.77126e-17 -3.9193e-15 0 0.0401132 0.0681319 0.0950243 0.0994294 0.0975989 0.0938358 0.0921512 0.0921597 0.091678 0.090817 0.0892362 0.0866872 0.0839587 0.0819865 0.0808174 0.0805808 0.0809941 0.0818573 0.0891722 0.0954111 0.0916027 0.0738868 0.0412876 0.0113683 0.000600958 1.02734e-06 3.07775e-10 6.77689e-14 4.13352e-15 8.89973e-17 0 0.0518648 0.0723587 0.0966129 0.107545 0.10951 0.10868 0.108598 0.108365 0.108446 0.108782 0.107766 0.10547 0.102248 0.0997883 0.0983504 0.0982679 0.0985188 0.100203 0.110899 0.114378 0.105681 0.0789389 0.0378992 0.00786251 0.00022047 2.14395e-07 8.54882e-11 2.80675e-15 -2.2827e-14 3.97338e-15 0 0.0820047 0.0961428 0.111046 0.118949 0.123002 0.124662 0.124299 0.124132 0.125514 0.126058 0.125516 0.123514 0.120498 0.117878 0.116478 0.116573 0.11638 0.120689 0.132924 0.132314 0.115122 0.077154 0.0299619 0.00405086 5.36225e-05 3.75429e-08 1.84046e-11 7.72807e-15 1.93945e-19 -2.27381e-14 0 0.101884 0.112258 0.122655 0.130436 0.136232 0.138519 0.139295 0.141164 0.142563 0.142981 0.142571 0.140875 0.138661 0.135969 0.135229 0.135041 0.134964 0.145067 0.153563 0.146145 0.117084 0.0669214 0.0191846 0.00140465 7.99361e-06 5.99048e-09 3.4692e-12 8.21813e-16 -9.58828e-18 2.27118e-14 0 0.121304 0.12849 0.135361 0.142226 0.148466 0.152747 0.155616 0.157388 0.158779 0.1595 0.159081 0.158334 0.156277 0.154345 0.154352 0.153117 0.156157 0.171162 0.171741 0.152396 0.109083 0.0487202 0.00903323 0.000304109 7.26916e-07 7.37273e-10 5.43404e-13 2.28073e-14 1.50089e-17 -2.68004e-14 0 0.141002 0.14616 0.150684 0.15573 0.161384 0.166478 0.170095 0.173058 0.175051 0.175662 0.176096 0.175497 0.173564 0.173573 0.172633 0.171868 0.183876 0.193128 0.182479 0.147778 0.0878291 0.0271633 0.00273934 3.75271e-05 5.40619e-08 6.51188e-11 6.46174e-14 9.84483e-17 2.27313e-14 2.68256e-14 0 0.159427 0.163013 0.166161 0.169895 0.174598 0.180044 0.185231 0.188669 0.190822 0.192624 0.192967 0.191974 0.19227 0.19219 0.1899 0.196229 0.21235 0.208344 0.180993 0.127594 0.0555147 0.0105 0.000472604 2.37601e-06 4.07113e-09 5.27397e-12 7.10527e-15 -6.76915e-15 -6.78138e-15 -2.56091e-14 0 0.177734 0.180091 0.182432 0.185485 0.189648 0.194768 0.199816 0.204051 0.207457 0.208813 0.208998 0.210281 0.210918 0.208399 0.211473 0.229583 0.23068 0.209308 0.162844 0.0888883 0.0245396 0.00236952 4.13461e-05 1.01033e-07 2.22113e-10 3.96823e-13 6.29627e-15 -4.98908e-14 -4.9914e-14 2.84703e-14 0 0.196173 0.197559 0.199429 0.202017 0.205612 0.210242 0.215532 0.220037 0.222731 0.224707 0.227521 0.228423 0.22621 0.228477 0.24668 0.251278 0.233586 0.192263 0.121018 0.0429434 0.00668311 0.000270416 1.61087e-06 4.64424e-09 1.01354e-11 -3.24584e-14 -2.56036e-14 6.07477e-14 6.07524e-14 -2.56089e-14 0 0.214858 0.215465 0.217112 0.219552 0.222859 0.227027 0.23153 0.23556 0.239707 0.243613 0.244298 0.24292 0.246695 0.26559 0.270635 0.254182 0.215851 0.147703 0.0622725 0.0129656 0.000908346 1.29397e-05 4.5461e-08 1.55465e-10 4.59015e-13 5.40116e-14 1.23083e-18 -2.67946e-14 -2.67946e-14 1.16834e-17 0 0.234282 0.234223 0.235561 0.237646 0.240532 0.244447 0.249338 0.254488 0.257888 0.258619 0.25914 0.267331 0.286761 0.288421 0.271032 0.233528 0.166931 0.0781365 0.0194388 0.00194646 5.16138e-05 2.75414e-07 1.34229e-09 4.74891e-12 4.04841e-14 1.98377e-17 4.21334e-23 6.51286e-23 -1.89821e-23 6.20806e-23 0 0.254612 0.254148 0.255537 0.25775 0.260743 0.264363 0.267951 0.270566 0.272666 0.277981 0.293429 0.308003 0.30345 0.28339 0.24446 0.177217 0.0870789 0.023967 0.00298624 0.00011854 1.02315e-06 6.10044e-09 2.81002e-11 1.58034e-13 -2.57337e-14 -5.35915e-14 -1.19837e-18 2.67947e-14 2.67947e-14 -1.17236e-17 0 0.276272 0.27539 0.276107 0.277274 0.279024 0.28154 0.285432 0.29252 0.306343 0.322016 0.324483 0.313218 0.289593 0.246771 0.176765 0.0868521 0.0248861 0.00347249 0.000175599 2.22733e-06 1.60582e-08 1.0251e-10 6.24793e-13 -2.35047e-14 -1.02622e-17 5.35915e-14 2.67969e-14 -7.30864e-14 -7.30864e-14 2.68074e-14 0 0.297377 0.296452 0.297536 0.300336 0.305899 0.31543 0.328358 0.338625 0.340316 0.332363 0.315991 0.286697 0.237529 0.163302 0.0766157 0.0216651 0.00310746 0.00017695 2.88235e-06 2.59638e-08 2.23752e-10 1.65782e-12 1.0881e-14 -3.51293e-18 7.92245e-18 -5.35946e-14 -2.6797e-14 7.30863e-14 4.62856e-14 -5.36165e-14 0 0.344081 0.343605 0.345869 0.349505 0.352925 0.354022 0.350764 0.342913 0.329599 0.306603 0.269165 0.212605 0.134784 0.0577551 0.0152911 0.00209119 0.000121057 2.24706e-06 2.6095e-08 2.9079e-10 2.81606e-12 6.39265e-14 -4.25768e-16 2.7129e-17 -2.77822e-18 5.35948e-14 1.264e-18 -2.67946e-14 6.36782e-18 2.68211e-14 0 0.364765 0.362501 0.359732 0.356081 0.35094 0.342642 0.329392 0.308649 0.276836 0.230963 0.167721 0.0931597 0.0349634 0.00814495 0.000992551 5.31791e-05 1.04314e-06 1.62994e-08 2.25871e-10 2.74034e-12 2.68729e-14 3.31702e-16 2.68108e-14 -3.45859e-18 1.35129e-19 1.60973e-20 3.97124e-23 -1.45214e-18 2.67965e-14 2.67961e-14 0 0.338843 0.335678 0.329723 0.320434 0.306405 0.286157 0.25771 0.218441 0.166491 0.104466 0.0481356 0.0151751 0.00289626 0.000295114 1.34197e-05 2.8501e-07 6.24954e-09 1.04603e-10 1.76647e-12 6.54997e-14 3.60363e-16 3.43832e-17 -5.36051e-14 4.26403e-16 4.38037e-16 -5.35949e-14 1.67485e-18 2.67989e-14 -2.67967e-14 -2.67964e-14 0 0.256728 0.252496 0.242049 0.225314 0.201452 0.169481 0.1291 0.0834618 0.0419895 0.0155289 0.00380541 0.000561473 4.46263e-05 1.69547e-06 4.78661e-08 1.38948e-09 2.90923e-11 6.92594e-13 9.94347e-15 -4.54822e-16 2.68108e-14 -2.36648e-17 2.67942e-14 -4.508e-16 -4.65962e-16 5.35928e-14 2.6792e-14 -2.68009e-14 -2.68054e-14 -5.86095e-18 0 0.117955 0.113852 0.102379 0.0846348 0.0624048 0.039282 0.0202596 0.0079169 0.002172 0.000392039 4.27644e-05 2.58406e-06 1.10159e-07 4.94181e-09 1.64219e-10 4.98538e-12 1.62478e-13 -2.34478e-14 4.18069e-17 2.83456e-17 -5.35986e-14 4.53174e-16 4.21858e-16 7.2672e-19 3.02404e-17 -5.35881e-14 -5.36156e-14 4.09525e-16 5.40352e-14 -4.63103e-14 0 0.0134197 0.0123645 0.00961732 0.00618607 0.00318106 0.00125585 0.000364102 7.33696e-05 9.67996e-06 8.44956e-07 6.25366e-08 4.52384e-09 2.42467e-10 1.10367e-11 4.87496e-13 4.25756e-14 -2.57373e-14 6.7245e-18 2.88842e-18 -2.12213e-18 5.35985e-14 -4.38036e-16 -4.1025e-16 2.52327e-17 -2.45013e-18 5.35901e-14 5.36145e-14 -4.67006e-14 -7.35277e-14 7.3106e-14 0 7.49477e-05 6.44671e-05 4.0904e-05 1.89889e-05 6.40665e-06 1.58706e-06 3.05874e-07 5.11905e-08 7.59904e-09 8.77496e-10 7.6327e-11 6.07999e-12 4.30695e-13 2.2026e-14 4.70387e-16 1.99713e-17 2.63409e-19 1.84921e-19 3.20718e-18 3.21889e-18 -1.62047e-20 3.47747e-18 1.50381e-18 6.48518e-18 8.40814e-18 -1.19637e-18 7.50508e-19 -1.06037e-17 -7.16709e-18 1.66901e-18 0 1.1713e-08 1.03693e-08 7.19206e-09 3.89393e-09 1.63056e-09 5.23655e-10 1.30419e-10 2.65195e-11 4.65891e-12 6.93067e-13 7.72355e-14 8.12852e-15 5.18849e-16 2.55989e-14 -1.07909e-18 -5.35914e-14 -1.19837e-18 2.67947e-14 2.67947e-14 -1.13276e-18 -5.35914e-14 1.67481e-18 2.67994e-14 -3.38404e-17 -3.88977e-17 -2.98577e-18 -7.31212e-14 8.55265e-16 8.55084e-16 -7.31177e-14 0 1.5708e-12 1.43249e-12 1.08294e-12 6.72602e-13 3.34842e-13 1.36456e-13 2.03213e-14 9.77901e-15 1.20227e-15 -2.24262e-14 8.28516e-15 -9.91136e-16 -6.3443e-14 -5.83587e-14 2.67967e-14 5.35913e-14 2.67969e-14 -7.30864e-14 -7.30864e-14 2.67968e-14 5.35898e-14 2.67925e-14 -2.68009e-14 4.64526e-16 -4.58204e-14 -1.46183e-13 9.00684e-16 4.84419e-17 4.86221e-17 9.22917e-16 0 6.06849e-15 5.7586e-15 -1.24828e-15 -3.95269e-15 2.421e-18 -3.99059e-15 2.28268e-14 6.41487e-20 9.64004e-18 1.42684e-17 -3.08565e-14 1.04042e-15 6.34569e-14 5.83541e-14 -2.67968e-14 -5.35914e-14 -2.6797e-14 7.30863e-14 4.62856e-14 -5.35974e-14 -2.67914e-14 -2.67918e-14 -2.67985e-14 -4.42811e-16 7.26406e-14 1.46179e-13 -9.00863e-16 -4.86217e-17 -4.83587e-17 -9.22654e-16 0 4.2473e-10 2.12363e-10 -2.57395e-15 3.99793e-15 3.98216e-15 -8.89973e-17 -4.15061e-15 2.27382e-14 2.27118e-14 1.86132e-14 2.67629e-14 -1.98674e-14 -2.27273e-14 -2.56015e-14 -5.56531e-18 5.35953e-14 -5.52267e-18 -2.68014e-14 -8.92723e-18 2.67866e-14 2.6795e-14 2.67952e-14 5.36018e-14 -4.62999e-14 -7.3095e-14 8.93854e-18 7.31251e-14 -8.25674e-16 -8.25937e-16 7.31212e-14 0 2.33569e-05 0 0 0 0 0 0 0 0 0 0 0 0 0 0 0 0 0 0 0 0 0 0 0 0 0 0 0 0 0 0
				</DataArray>
			</PointData>
			<CellData Scalars="Density">
				<DataArray Name="Density" type="Float32" format="ascii">