<?xml version="1.0"?>
<VTKFile type="PolyData">
	<PolyData>
		<Piece NumberOfPoints="961" NumberOfPolys="900">
			<Points>
				<DataArray type="Float32" NumberOfComponents="3" format="ascii">
 0 0 0 0.04 0 0 0.08 0 0 0.12 0 0 0.16 0 0 0.2 0 0 0.24 0 0 0.28 0 0 0.32 0 0 0.36 0 0 0.4 0 0 0.44 0 0 0.48 0 0 0.52 0 0 0.56 0 0 0.6 0 0 0.64 0 0 0.68 0 0 0.72 0 0 0.76 0 0 0.8 0 0 0.84 0 0 0.88 0 0 0.92 0 0 0.96 0 0 1 0 0 1.04 0 0 1.08 0 0 1.12 0 0 1.16 0 0 1.2 0 0 0 0.04 0 0.04 0.04 0 0.08 0.04 0 0.12 0.04 0 0.16 0.04 0 0.2 0.04 0 0.24 0.04 0 0.28 0.04 0 0.32 0.04 0 0.36 0.04 0 0.4 0.04 0 0.44 0.04 0 0.48 0.04 0 0.52 0.04 0 0.56 0.04 0 0.6 0.04 0 0.64 0.04 0 0.68 0.04 0 0.72 0.04 0 0.76 0.04 0 0.8 0.04 0 0.84 0.04 0 0.88 0.04 0 0.92 0.04 0 0.96 0.04 0 1 0.04 0 1.04 0.04 0 1.08 0.04 0 1.12 0.04 0 1.16 0.04 0 1.2 0.04 0 0 0.08 0 0.04 0.08 0 0.08 0.08 0 0.12 0.08 0 0.16 0.08 0 0.2 0.08 0 0.24 0.08 0 0.28 0.08 0 0.32 0.08 0 0.36 0.08 0 0.4 0.08 0 0.44 0.08 0 0.48 0.08 0 0.52 0.08 0 0.56 0.08 0 0.6 0.08 0 0.64 0.08 0 0.68 0.08 0 0.72 0.08 0 0.76 0.08 0 0.8 0.08 0 0.84 0.08 0 0.88 0.08 0 0.92 0.08 0 0.96 0.08 0 1 0.08 0 1.04 0.08 0 1.08 0.08 0 1.12 0.08 0 1.16 0.08 0 1.2 0.08 0 0 0.12 0 0.04 0.12 0 0.08 0.12 0 0.12 0.12 0 0.16 0.12 0 0.2 0.12 0 0.24 0.12 0 0.28 0.12 0 0.32 0.12 0 0.36 0.12 0 0.4 0.12 0 0.44 0.12 0 0.48 0.12 0 0.52 0.12 0 0.56 0.12 0 0.6 0.12 0 0.64 0.12 0 0.68 0.12 0 0.72 0.12 0 0.76 0.12 0 0.8 0.12 0 0.84 0.12 0 0.88 0.12 0 0.92 0.12 0 0.96 0.12 0 1 0.12 0 1.04 0.12 0 1.08 0.12 0 1.12 0.12 0 1.16 0.12 0 1.2 0.12 0 0 0.16 0 0.04 0.16 0 0.08 0.16 0 0.12 0.16 0 0.16 0.16 0 0.2 0.16 0 0.24 0.16 0 0.28 0.16 0 0.32 0.16 0 0.36 0.16 0 0.4 0.16 0 0.44 0.16 0 0.48 0.16 0 0.52 0.16 0 0.56 0.16 0 0.6 0.16 0 0.64 0.16 0 0.68 0.16 0 0.72 0.16 0 0.76 0.16 0 0.8 0.16 0 0.84 0.16 0 0.88 0.16 0 0.92 0.16 0 0.96 0.16 0 1 0.16 0 1.04 0.16 0 1.08 0.16 0 1.12 0.16 0 1.16 0.16 0 1.2 0.16 0 0 0.2 0 0.04 0.2 0 0.08 0.2 0 0.12 0.2 0 0.16 0.2 0 0.2 0.2 0 0.24 0.2 0 0.28 0.2 0 0.32 0.2 0 0.36 0.2 0 0.4 0.2 0 0.44 0.2 0 0.48 0.2 0 0.52 0.2 0 0.56 0.2 0 0.6 0.2 0 0.64 0.2 0 0.68 0.2 0 0.72 0.2 0 0.76 0.2 0 0.8 0.2 0 0.84 0.2 0 0.88 0.2 0 0.92 0.2 0 0.96 0.2 0 1 0.2 0 1.04 0.2 0 1.08 0.2 0 1.12 0.2 0 1.16 0.2 0 1.2 0.2 0 0 0.24 0 0.04 0.24 0 0.08 0.24 0 0.12 0.24 0 0.16 0.24 0 0.2 0.24 0 0.24 0.24 0 0.28 0.24 0 0.32 0.24 0 0.36 0.24 0 0.4 0.24 0 0.44 0.24 0 0.48 0.24 0 0.52 0.24 0 0.56 0.24 0 0.6 0.24 0 0.64 0.24 0 0.68 0.24 0 0.72 0.24 0 0.76 0.24 0 0.8 0.24 0 0.84 0.24 0 0.88 0.24 0 0.92 0.24 0 0.96 0.24 0 1 0.24 0 1.04 0.24 0 1.08 0.24 0 1.12 0.24 0 1.16 0.24 0 1.2 0.24 0 0 0.28 0 0.04 0.28 0 0.08 0.28 0 0.12 0.28 0 0.16 0.28 0 0.2 0.28 0 0.24 0.28 0 0.28 0.28 0 0.32 0.28 0 0.36 0.28 0 0.4 0.28 0 0.44 0.28 0 0.48 0.28 0 0.52 0.28 0 0.56 0.28 0 0.6 0.28 0 0.64 0.28 0 0.68 0.28 0 0.72 0.28 0 0.76 0.28 0 0.8 0.28 0 0.84 0.28 0 0.88 0.28 0 0.92 0.28 0 0.96 0.28 0 1 0.28 0 1.04 0.28 0 1.08 0.28 0 1.12 0.28 0 1.16 0.28 0 1.2 0.28 0 0 0.32 0 0.04 0.32 0 0.08 0.32 0 0.12 0.32 0 0.16 0.32 0 0.2 0.32 0 0.24 0.32 0 0.28 0.32 0 0.32 0.32 0 0.36 0.32 0 0.4 0.32 0 0.44 0.32 0 0.48 0.32 0 0.52 0.32 0 0.56 0.32 0 0.6 0.32 0 0.64 0.32 0 0.68 0.32 0 0.72 0.32 0 0.76 0.32 0 0.8 0.32 0 0.84 0.32 0 0.88 0.32 0 0.92 0.32 0 0.96 0.32 0 1 0.32 0 1.04 0.32 0 1.08 0.32 0 1.12 0.32 0 1.16 0.32 0 1.2 0.32 0 0 0.36 0 0.04 0.36 0 0.08 0.36 0 0.12 0.36 0 0.16 0.36 0 0.2 0.36 0 0.24 0.36 0 0.28 0.36 0 0.32 0.36 0 0.36 0.36 0 0.4 0.36 0 0.44 0.36 0 0.48 0.36 0 0.52 0.36 0 0.56 0.36 0 0.6 0.36 0 0.64 0.36 0 0.68 0.36 0 0.72 0.36 0 0.76 0.36 0 0.8 0.36 0 0.84 0.36 0 0.88 0.36 0 0.92 0.36 0 0.96 0.36 0 1 0.36 0 1.04 0.36 0 1.08 0.36 0 1.12 0.36 0 1.16 0.36 0 1.2 0.36 0 0 0.4 0 0.04 0.4 0 0.08 0.4 0 0.12 0.4 0 0.16 0.4 0 0.2 0.4 0 0.24 0.4 0 0.28 0.4 0 0.32 0.4 0 0.36 0.4 0 0.4 0.4 0 0.44 0.4 0 0.48 0.4 0 0.52 0.4 0 0.56 0.4 0 0.6 0.4 0 0.64 0.4 0 0.68 0.4 0 0.72 0.4 0 0.76 0.4 0 0.8 0.4 0 0.84 0.4 0 0.88 0.4 0 0.92 0.4 0 0.96 0.4 0 1 0.4 0 1.04 0.4 0 1.08 0.4 0 1.12 0.4 0 1.16 0.4 0 1.2 0.4 0 0 0.44 0 0.04 0.44 0 0.08 0.44 0 0.12 0.44 0 0.16 0.44 0 0.2 0.44 0 0.24 0.44 0 0.28 0.44 0 0.32 0.44 0 0.36 0.44 0 0.4 0.44 0 0.44 0.44 0 0.48 0.44 0 0.52 0.44 0 0.56 0.44 0 0.6 0.44 0 0.64 0.44 0 0.68 0.44 0 0.72 0.44 0 0.76 0.44 0 0.8 0.44 0 0.84 0.44 0 0.88 0.44 0 0.92 0.44 0 0.96 0.44 0 1 0.44 0 1.04 0.44 0 1.08 0.44 0 1.12 0.44 0 1.16 0.44 0 1.2 0.44 0 0 0.48 0 0.04 0.48 0 0.08 0.48 0 0.12 0.48 0 0.16 0.48 0 0.2 0.48 0 0.24 0.48 0 0.28 0.48 0 0.32 0.48 0 0.36 0.48 0 0.4 0.48 0 0.44 0.48 0 0.48 0.48 0 0.52 0.48 0 0.56 0.48 0 0.6 0.48 0 0.64 0.48 0 0.68 0.48 0 0.72 0.48 0 0.76 0.48 0 0.8 0.48 0 0.84 0.48 0 0.88 0.48 0 0.92 0.48 0 0.96 0.48 0 1 0.48 0 1.04 0.48 0 1.08 0.48 0 1.12 0.48 0 1.16 0.48 0 1.2 0.48 0 0 0.52 0 0.04 0.52 0 0.08 0.52 0 0.12 0.52 0 0.16 0.52 0 0.2 0.52 0 0.24 0.52 0 0.28 0.52 0 0.32 0.52 0 0.36 0.52 0 0.4 0.52 0 0.44 0.52 0 0.48 0.52 0 0.52 0.52 0 0.56 0.52 0 0.6 0.52 0 0.64 0.52 0 0.68 0.52 0 0.72 0.52 0 0.76 0.52 0 0.8 0.52 0 0.84 0.52 0 0.88 0.52 0 0.92 0.52 0 0.96 0.52 0 1 0.52 0 1.04 0.52 0 1.08 0.52 0 1.12 0.52 0 1.16 0.52 0 1.2 0.52 0 0 0.56 0 0.04 0.56 0 0.08 0.56 0 0.12 0.56 0 0.16 0.56 0 0.2 0.56 0 0.24 0.56 0 0.28 0.56 0 0.32 0.56 0 0.36 0.56 0 0.4 0.56 0 0.44 0.56 0 0.48 0.56 0 0.52 0.56 0 0.56 0.56 0 0.6 0.56 0 0.64 0.56 0 0.68 0.56 0 0.72 0.56 0 0.76 0.56 0 0.8 0.56 0 0.84 0.56 0 0.88 0.56 0 0.92 0.56 0 0.96 0.56 0 1 0.56 0 1.04 0.56 0 1.08 0.56 0 1.12 0.56 0 1.16 0.56 0 1.2 0.56 0 0 0.6 0 0.04 0.6 0 0.08 0.6 0 0.12 0.6 0 0.16 0.6 0 0.2 0.6 0 0.24 0.6 0 0.28 0.6 0 0.32 0.6 0 0.36 0.6 0 0.4 0.6 0 0.44 0.6 0 0.48 0.6 0 0.52 0.6 0 0.56 0.6 0 0.6 0.6 0 0.64 0.6 0 0.68 0.6 0 0.72 0.6 0 0.76 0.6 0 0.8 0.6 0 0.84 0.6 0 0.88 0.6 0 0.92 0.6 0 0.96 0.6 0 1 0.6 0 1.04 0.6 0 1.08 0.6 0 1.12 0.6 0 1.16 0.6 0 1.2 0.6 0 0 0.64 0 0.04 0.64 0 0.08 0.64 0 0.12 0.64 0 0.16 0.64 0 0.2 0.64 0 0.24 0.64 0 0.28 0.64 0 0.32 0.64 0 0.36 0.64 0 0.4 0.64 0 0.44 0.64 0 0.48 0.64 0 0.52 0.64 0 0.56 0.64 0 0.6 0.64 0 0.64 0.64 0 0.68 0.64 0 0.72 0.64 0 0.76 0.64 0 0.8 0.64 0 0.84 0.64 0 0.88 0.64 0 0.92 0.64 0 0.96 0.64 0 1 0.64 0 1.04 0.64 0 1.08 0.64 0 1.12 0.64 0 1.16 0.64 0 1.2 0.64 0 0 0.68 0 0.04 0.68 0 0.08 0.68 0 0.12 0.68 0 0.16 0.68 0 0.2 0.68 0 0.24 0.68 0 0.28 0.68 0 0.32 0.68 0 0.36 0.68 0 0.4 0.68 0 0.44 0.68 0 0.48 0.68 0 0.52 0.68 0 0.56 0.68 0 0.6 0.68 0 0.64 0.68 0 0.68 0.68 0 0.72 0.68 0 0.76 0.68 0 0.8 0.68 0 0.84 0.68 0 0.88 0.68 0 0.92 0.68 0 0.96 0.68 0 1 0.68 0 1.04 0.68 0 1.08 0.68 0 1.12 0.68 0 1.16 0.68 0 1.2 0.68 0 0 0.72 0 0.04 0.72 0 0.08 0.72 0 0.12 0.72 0 0.16 0.72 0 0.2 0.72 0 0.24 0.72 0 0.28 0.72 0 0.32 0.72 0 0.36 0.72 0 0.4 0.72 0 0.44 0.72 0 0.48 0.72 0 0.52 0.72 0 0.56 0.72 0 0.6 0.72 0 0.64 0.72 0 0.68 0.72 0 0.72 0.72 0 0.76 0.72 0 0.8 0.72 0 0.84 0.72 0 0.88 0.72 0 0.92 0.72 0 0.96 0.72 0 1 0.72 0 1.04 0.72 0 1.08 0.72 0 1.12 0.72 0 1.16 0.72 0 1.2 0.72 0 0 0.76 0 0.04 0.76 0 0.08 0.76 0 0.12 0.76 0 0.16 0.76 0 0.2 0.76 0 0.24 0.76 0 0.28 0.76 0 0.32 0.76 0 0.36 0.76 0 0.4 0.76 0 0.44 0.76 0 0.48 0.76 0 0.52 0.76 0 0.56 0.76 0 0.6 0.76 0 0.64 0.76 0 0.68 0.76 0 0.72 0.76 0 0.76 0.76 0 0.8 0.76 0 0.84 0.76 0 0.88 0.76 0 0.92 0.76 0 0.96 0.76 0 1 0.76 0 1.04 0.76 0 1.08 0.76 0 1.12 0.76 0 1.16 0.76 0 1.2 0.76 0 0 0.8 0 0.04 0.8 0 0.08 0.8 0 0.12 0.8 0 0.16 0.8 0 0.2 0.8 0 0.24 0.8 0 0.28 0.8 0 0.32 0.8 0 0.36 0.8 0 0.4 0.8 0 0.44 0.8 0 0.48 0.8 0 0.52 0.8 0 0.56 0.8 0 0.6 0.8 0 0.64 0.8 0 0.68 0.8 0 0.72 0.8 0 0.76 0.8 0 0.8 0.8 0 0.84 0.8 0 0.88 0.8 0 0.92 0.8 0 0.96 0.8 0 1 0.8 0 1.04 0.8 0 1.08 0.8 0 1.12 0.8 0 1.16 0.8 0 1.2 0.8 0 0 0.84 0 0.04 0.84 0 0.08 0.84 0 0.12 0.84 0 0.16 0.84 0 0.2 0.84 0 0.24 0.84 0 0.28 0.84 0 0.32 0.84 0 0.36 0.84 0 0.4 0.84 0 0.44 0.84 0 0.48 0.84 0 0.52 0.84 0 0.56 0.84 0 0.6 0.84 0 0.64 0.84 0 0.68 0.84 0 0.72 0.84 0 0.76 0.84 0 0.8 0.84 0 0.84 0.84 0 0.88 0.84 0 0.92 0.84 0 0.96 0.84 0 1 0.84 0 1.04 0.84 0 1.08 0.84 0 1.12 0.84 0 1.16 0.84 0 1.2 0.84 0 0 0.88 0 0.04 0.88 0 0.08 0.88 0 0.12 0.88 0 0.16 0.88 0 0.2 0.88 0 0.24 0.88 0 0.28 0.88 0 0.32 0.88 0 0.36 0.88 0 0.4 0.88 0 0.44 0.88 0 0.48 0.88 0 0.52 0.88 0 0.56 0.88 0 0.6 0.88 0 0.64 0.88 0 0.68 0.88 0 0.72 0.88 0 0.76 0.88 0 0.8 0.88 0 0.84 0.88 0 0.88 0.88 0 0.92 0.88 0 0.96 0.88 0 1 0.88 0 1.04 0.88 0 1.08 0.88 0 1.12 0.88 0 1.16 0.88 0 1.2 0.88 0 0 0.92 0 0.04 0.92 0 0.08 0.92 0 0.12 0.92 0 0.16 0.92 0 0.2 0.92 0 0.24 0.92 0 0.28 0.92 0 0.32 0.92 0 0.36 0.92 0 0.4 0.92 0 0.44 0.92 0 0.48 0.92 0 0.52 0.92 0 0.56 0.92 0 0.6 0.92 0 0.64 0.92 0 0.68 0.92 0 0.72 0.92 0 0.76 0.92 0 0.8 0.92 0 0.84 0.92 0 0.88 0.92 0 0.92 0.92 0 0.96 0.92 0 1 0.92 0 1.04 0.92 0 1.08 0.92 0 1.12 0.92 0 1.16 0.92 0 1.2 0.92 0 0 0.96 0 0.04 0.96 0 0.08 0.96 0 0.12 0.96 0 0.16 0.96 0 0.2 0.96 0 0.24 0.96 0 0.28 0.96 0 0.32 0.96 0 0.36 0.96 0 0.4 0.96 0 0.44 0.96 0 0.48 0.96 0 0.52 0.96 0 0.56 0.96 0 0.6 0.96 0 0.64 0.96 0 0.68 0.96 0 0.72 0.96 0 0.76 0.96 0 0.8 0.96 0 0.84 0.96 0 0.88 0.96 0 0.92 0.96 0 0.96 0.96 0 1 0.96 0 1.04 0.96 0 1.08 0.96 0 1.12 0.96 0 1.16 0.96 0 1.2 0.96 0 0 1 0 0.04 1 0 0.08 1 0 0.12 1 0 0.16 1 0 0.2 1 0 0.24 1 0 0.28 1 0 0.32 1 0 0.36 1 0 0.4 1 0 0.44 1 0 0.48 1 0 0.52 1 0 0.56 1 0 0.6 1 0 0.64 1 0 0.68 1 0 0.72 1 0 0.76 1 0 0.8 1 0 0.84 1 0 0.88 1 0 0.92 1 0 0.96 1 0 1 1 0 1.04 1 0 1.08 1 0 1.12 1 0 1.16 1 0 1.2 1 0 0 1.04 0 0.04 1.04 0 0.08 1.04 0 0.12 1.04 0 0.16 1.04 0 0.2 1.04 0 0.24 1.04 0 0.28 1.04 0 0.32 1.04 0 0.36 1.04 0 0.4 1.04 0 0.44 1.04 0 0.48 1.04 0 0.52 1.04 0 0.56 1.04 0 0.6 1.04 0 0.64 1.04 0 0.68 1.04 0 0.72 1.04 0 0.76 1.04 0 0.8 1.04 0 0.84 1.04 0 0.88 1.04 0 0.92 1.04 0 0.96 1.04 0 1 1.04 0 1.04 1.04 0 1.08 1.04 0 1.12 1.04 0 1.16 1.04 0 1.2 1.04 0 0 1.08 0 0.04 1.08 0 0.08 1.08 0 0.12 1.08 0 0.16 1.08 0 0.2 1.08 0 0.24 1.08 0 0.28 1.08 0 0.32 1.08 0 0.36 1.08 0 0.4 1.08 0 0.44 1.08 0 0.48 1.08 0 0.52 1.08 0 0.56 1.08 0 0.6 1.08 0 0.64 1.08 0 0.68 1.08 0 0.72 1.08 0 0.76 1.08 0 0.8 1.08 0 0.84 1.08 0 0.88 1.08 0 0.92 1.08 0 0.96 1.08 0 1 1.08 0 1.04 1.08 0 1.08 1.08 0 1.12 1.08 0 1.16 1.08 0 1.2 1.08 0 0 1.12 0 
[...]
			<PointData Scalars="VitesseX">
				<DataArray Name="VitesseX" type="Float32" format="ascii">
 0 -0.0873803 -0.170287 -0.176753 -0.134486 -0.0467476 0.0573972 0.145413 0.186515 0.17883 0.13228 0.0613489 -0.0234349 -0.128819 -0.3148 -0.712106 -1.20349 -1.52205 -1.61336 -1.49505 -1.34613 -1.20564 -1.06771 -0.932412 -0.799858 -0.669923 -0.541822 -0.413715 -0.283253 -0.141471 0 0 0.0374624 -0.0207351 -0.0659593 -0.0507364 0.000948011 0.0770484 0.146519 0.178006 0.162607 0.114338 0.046673 -0.0336376 -0.135467 -0.317259 -0.706259 -1.19317 -1.51389 -1.60923 -1.49524 -1.34621 -1.20577 -1.06791 -0.932646 -0.800111 -0.670212 -0.542207 -0.414267 -0.284061 -0.141924 0 0 0.011235 0.0224174 -0.00847521 -0.0302246 -0.0311206 -0.0157835 0.0146796 0.0462167 0.0537938 0.030002 -0.0154139 -0.0773027 -0.165241 -0.332946 -0.695796 -1.16754 -1.49279 -1.59881 -1.49723 -1.34801 -1.2072 -1.06904 -0.933404 -0.800491 -0.670342 -0.542363 -0.414752 -0.285143 -0.142785 0 0 -0.0464914 -0.0761504 -0.096887 -0.125615 -0.146376 -0.157611 -0.155099 -0.137231 -0.117622 -0.108542 -0.118133 -0.149549 -0.215122 -0.360949 -0.682528 -1.12777 -1.4578 -1.57995 -1.50024 -1.35235 -1.21074 -1.07213 -0.935851 -0.802259 -0.671554 -0.543337 -0.415906 -0.286787 -0.14409 0 0 -0.0971426 -0.154969 -0.191284 -0.221144 -0.249877 -0.271971 -0.281719 -0.273337 -0.249075 -0.224656 -0.214732 -0.227119 -0.275025 -0.397312 -0.667548 -1.07488 -1.40722 -1.54958 -1.50278 -1.35939 -1.21663 -1.07752 -0.940421 -0.805918 -0.674341 -0.545489 -0.417864 -0.288933 -0.145713 0 0 -0.128368 -0.215625 -0.266025 -0.304412 -0.337826 -0.363754 -0.379412 -0.376365 -0.353445 -0.32574 -0.304572 -0.302055 -0.336118 -0.437671 -0.65381 -1.01142 -1.33906 -1.50156 -1.50241 -1.36946 -1.22481 -1.08503 -0.94699 -0.811362 -0.678607 -0.548707 -0.420446 -0.29133 -0.147479 0 0 -0.141741 -0.240865 -0.302828 -0.351175 -0.394114 -0.429536 -0.452639 -0.45638 -0.436369 -0.404391 -0.378224 -0.369591 -0.394473 -0.478136 -0.646621 -0.940851 -1.25023 -1.43973 -1.49083 -1.38022 -1.23513 -1.09418 -0.95512 -0.818186 -0.684008 -0.55273 -0.423466 -0.293844 -0.149387 0 0 -0.122722 -0.226258 -0.303308 -0.360604 -0.410204 -0.457771 -0.49668 -0.51738 -0.510373 -0.478886 -0.446178 -0.433339 -0.451328 -0.518089 -0.650666 -0.8682 -1.14905 -1.36593 -1.4566 -1.38786 -1.24705 -1.1045 -0.964333 -0.825971 -0.690227 -0.557375 -0.426864 -0.296476 -0.151538 0 0 -0.08176 -0.164397 -0.241421 -0.312675 -0.385318 -0.454436 -0.510238 -0.550588 -0.569458 -0.556945 -0.52529 -0.503207 -0.512119 -0.560739 -0.661243 -0.809289 -1.04398 -1.27108 -1.39159 -1.38752 -1.26084 -1.11566 -0.974299 -0.834529 -0.697176 -0.562659 -0.430616 -0.299115 -0.154006 0 0 -0.0351468 -0.0802585 -0.147704 -0.225521 -0.308117 -0.397914 -0.48787 -0.556845 -0.600772 -0.619964 -0.60802 -0.585249 -0.579697 -0.61017 -0.674468 -0.776433 -0.939076 -1.15315 -1.30958 -1.36655 -1.27275 -1.12777 -0.985005 -0.843893 -0.704925 -0.568686 -0.434852 -0.301829 -0.156102 0 0 -0.00303098 -0.0187154 -0.0647382 -0.137073 -0.221776 -0.315699 -0.420419 -0.523943 -0.603863 -0.652859 -0.673 -0.664821 -0.653446 -0.66106 -0.696113 -0.759135 -0.847972 -1.02763 -1.21072 -1.3079 -1.27681 -1.14192 -0.996794 -0.85437 -0.713743 -0.575613 -0.439783 -0.304981 -0.158404 0 0 0.0128679 0.0135628 -0.015371 -0.0745663 -0.151982 -0.239675 -0.338741 -0.451031 -0.560879 -0.649262 -0.703812 -0.723226 -0.717536 -0.710849 -0.720198 -0.743472 -0.792214 -0.902098 -1.08482 -1.21926 -1.26083 -1.15694 -1.01004 -0.866272 -0.723983 -0.583803 -0.4458 -0.309072 -0.161799 0 0 0.0170745 0.0229817 0.00449098 -0.0399442 -0.104118 -0.182905 -0.270093 -0.367473 -0.478891 -0.589905 -0.683718 -0.742151 -0.756479 -0.746065 -0.73392 -0.73265 -0.748059 -0.792854 -0.943164 -1.11238 -1.20334 -1.16385 -1.02524 -0.879565 -0.735681 -0.593392 -0.453084 -0.314228 -0.166099 0 0 0.0138582 0.0187837 0.0063117 -0.0267178 -0.0779713 -0.142026 -0.214449 -0.295086 -0.386523 -0.490215 -0.597822 -0.689327 -0.741888 -0.7469 -0.726404 -0.707609 -0.698773 -0.713839 -0.798845 -0.974279 -1.10808 -1.14751 -1.03986 -0.893056 -0.748034 -0.603753 -0.461004 -0.319706 -0.169533 0 0 0.00724789 0.00847194 -0.00221786 -0.0277973 -0.0662274 -0.113208 -0.167306 -0.22808 -0.298563 -0.381283 -0.469973 -0.564087 -0.645144 -0.68355 -0.67663 -0.650758 -0.632997 -0.634339 -0.665856 -0.812591 -0.988202 -1.08388 -1.04327 -0.904709 -0.75879 -0.613023 -0.46805 -0.324475 -0.172038 0 0 0.00488211 0.00464937 -0.00507403 -0.0256947 -0.0546625 -0.0874627 -0.121284 -0.162844 -0.212695 -0.26872 -0.336413 -0.407347 -0.477651 -0.53665 -0.559808 -0.546117 -0.531209 -0.52642 -0.549951 -0.639955 -0.828415 -0.975958 -1.02094 -0.910826 -0.766038 -0.619994 -0.473708 -0.328708 -0.174636 0 0 0.0153306 0.02441 0.0231082 0.0110738 -0.0101421 -0.0374365 -0.0674111 -0.0945294 -0.121421 -0.16036 -0.204085 -0.251237 -0.299622 -0.342152 -0.372127 -0.383126 -0.371074 -0.375127 -0.408546 -0.467517 -0.634787 -0.833098 -0.94314 -0.905313 -0.768598 -0.623584 -0.477822 -0.332935 -0.178183 0 0 0.0317319 0.0559378 0.0683986 0.0694841 0.0597992 0.0436918 0.0241493 0.00146353 -0.0274542 -0.0539968 -0.0783222 -0.108701 -0.13703 -0.157391 -0.169697 -0.170205 -0.169385 -0.165455 -0.209806 -0.285202 -0.417979 -0.639883 -0.812058 -0.866488 -0.763217 -0.623279 -0.480086 -0.337107 -0.183032 0 0 0.0438645 0.0773108 0.101295 0.114362 0.123713 0.129917 0.128166 0.11298 0.0905271 0.0664967 0.0393799 0.0175605 0.00559092 -0.00258056 0.000807152 0.0248354 0.0546041 0.0619067 0.0457393 -0.0441965 -0.178364 -0.399809 -0.634176 -0.764936 -0.739467 -0.61684 -0.479875 -0.340288 -0.188578 0 0 0.0475499 0.0825087 0.112587 0.133666 0.158841 0.187281 0.204564 0.206066 0.202603 0.188646 0.168036 0.147997 0.131113 0.123885 0.136972 0.167788 0.225268 0.281815 0.292472 0.251131 0.111028 -0.112482 -0.396243 -0.604512 -0.673308 -0.597558 -0.475074 -0.341001 -0.193397 0 0 0.0359339 0.0699263 0.0914339 0.12164 0.16471 0.208575 0.237127 0.252687 0.269942 0.278205 0.281548 0.275702 0.261905 0.253241 0.254591 0.27514 0.328559 0.418582 0.503271 0.514572 0.4361 0.228174 -0.0867463 -0.382844 -0.544806 -0.552567 -0.460623 -0.337253 -0.195979 0 0 0.0254372 0.0530307 0.0697004 0.108224 0.158161 0.198961 0.2263 0.256947 0.289468 0.316846 0.342344 0.363668 0.373544 0.379064 0.379317 0.389045 0.420177 0.487736 0.600095 0.709721 0.70874 0.57565 0.285216 -0.0858467 -0.353964 -0.456257 -0.427079 -0.324895 -0.194464 0 0 0.0192113 0.0307989 0.0542692 0.103439 0.149875 0.176753 0.200908 0.232751 0.269906 0.31152 0.355344 0.396844 0.428781 0.456647 0.477141 0.500342 0.526415 0.568483 0.648796 0.773701 0.879679 0.843003 0.637452 0.273226 -0.0949418 -0.302712 -0.353951 -0.297685 -0.184784 0 0 0.0157363 0.010256 0.0501451 0.104261 0.135193 0.153088 0.176454 0.209458 0.248721 0.291546 0.336021 0.381215 0.427949 0.476128 0.519543 0.562595 0.603496 0.649722 0.710772 0.802377 0.924937 0.980304 0.885772 0.608219 0.216391 -0.0921931 -0.232256 -0.242286 -0.160236 0 0 0.00267114 -0.00163068 0.0541579 0.0967598 0.114086 0.128647 0.154616 0.190191 0.230568 0.272366 0.31419 0.356456 0.400646 0.447701 0.497835 0.554145 0.615895 0.683332 0.757662 0.832937 0.924293 1.00858 0.998246 0.835478 0.514514 0.162057 -0.0670948 -0.147352 -0.112778 0 0 -0.0155159 -0.00238443 0.052579 0.07958 0.0895019 0.105259 0.135438 0.173559 0.21414 0.254257 0.293108 0.33185 0.371825 0.414556 0.461402 0.513616 0.572364 0.640662 0.721553 0.815944 0.903212 0.98085 1.00934 0.943558 0.723299 0.418459 0.136268 -0.0192259 -0.0401565 0 0 -0.0337096 0.00114263 0.0360813 0.0554911 0.0631928 0.0835424 0.117775 0.157973 0.197552 0.23453 0.270075 0.30574 0.342677 0.382069 0.424821 0.471659 0.523788 0.582874 0.650974 0.733277 0.824337 0.904021 0.957064 0.950487 0.840729 0.617651 0.353956 0.133831 0.0487247 0 0 -0.046607 -0.00317402 0.00910747 0.0270064 0.0360271 0.0622677 0.0993776 0.138073 0.173847 0.20711 0.239787 0.273243 0.308532 0.346395 0.38696 0.430109 0.476235 0.526799 0.58404 0.649957 0.726012 0.798722 0.855373 0.883658 0.860114 0.745093 0.548803 0.311496 0.145183 0 0 -0.0523955 -0.0395693 -0.0109106 0.000693268 0.00647951 0.0312686 0.0674702 0.10261 0.133805 0.16249 0.191364 0.222414 0.256772 0.294299 0.334152 0.375723 0.419436 0.466532 0.518319 0.575864 0.639645 0.706866 0.762668 0.796291 0.795132 0.757502 0.671403 0.519524 0.307823 0 0 -0.132987 -0.0623113 -0.014624 -0.0170296 -0.0164897 0.000855306 0.0213314 0.0418603 0.0607547 0.078612 0.0978671 0.121601 0.150614 0.183336 0.218152 0.25503 0.295404 0.341228 0.394287 0.456156 0.528293 0.611131 0.699739 0.777775 0.82223 0.823818 0.796701 0.758559 0.662339 0 0 0 0 0 0 0 0 0 0 0 0 0 0 0 0 0 0 0 0 0 0 0 0 0 0 0 0 0 0 0 0
				</DataArray>
				<DataArray Name="VitesseY" type="Float32" format="ascii">
 0 0 0 0 0 0 0 0 0 0 0 0 0 0 0 0 0 0 0 0 0 0 0 0 0 0 0 0 0 0 0 -0.0895639 0.0330521 0.00164297 -0.0564828 -0.107715 -0.138655 -0.148858 -0.116465 -0.0650228 -0.0228384 0.00325861 0.014764 0.0163211 0.0110189 0.00514683 0.00893912 0.0233021 0.0371252 0.0440998 0.042912 0.0389049 0.035227 0.0319497 0.0288828 0.0258837 0.0228507 0.0195453 0.0153401 0.00925318 0.0034237 0 -0.180477 -0.031206 0.0064547 -0.0918265 -0.172698 -0.231506 -0.254954 -0.218392 -0.135416 -0.0560273 -0.00645356 0.0164095 0.0217243 0.0141412 0.00486511 0.0134878 0.0425848 0.0713711 0.0863153 0.0857037 0.0779471 0.0705878 0.0640878 0.0580325 0.0521308 0.0461552 0.0395048 0.0310073 0.0187933 0.00652497 0 -0.19767 -0.0858396 -0.0274838 -0.11344 -0.208008 -0.282357 -0.316464 -0.299001 -0.214627 -0.116596 -0.0474752 -0.0102095 0.00391339 0.00122253 -0.00676163 0.00883534 0.0536652 0.0995897 0.124663 0.128176 0.117103 0.106157 0.0966439 0.0877461 0.0790604 0.070231 0.0603711 0.0478551 0.0297514 0.0101217 0 -0.167778 -0.0799668 -0.0536301 -0.138182 -0.233069 -0.316643 -0.358488 -0.360409 -0.291685 -0.19798 -0.11793 -0.0654144 -0.0384266 -0.0312423 -0.0320941 -0.00775622 0.0536237 0.119563 0.158735 0.16942 0.156456 0.142299 0.129987 0.118465 0.107213 0.0957695 0.0829767 0.0667827 0.0432329 0.0152879 0 -0.0910586 -0.0400761 -0.0571821 -0.156958 -0.255579 -0.342306 -0.396079 -0.410048 -0.367994 -0.285924 -0.203185 -0.140136 -0.0997311 -0.0796476 -0.0687906 -0.0354138 0.0420007 0.129461 0.187921 0.208325 0.195844 0.179302 0.164423 0.150591 0.137068 0.123318 0.107888 0.0883151 0.0597576 0.0225875 0 0.00317489 0.0256228 -0.0465749 -0.165606 -0.271361 -0.36224 -0.42818 -0.454226 -0.440285 -0.376743 -0.296558 -0.226884 -0.174914 -0.13866 -0.111557 -0.0705664 0.0187504 0.124957 0.20415 0.238899 0.235395 0.217431 0.200099 0.184233 0.168669 0.152824 0.134941 0.112213 0.0791045 0.0319907 0 0.0901494 0.0912894 -0.0213151 -0.164101 -0.280349 -0.375107 -0.448247 -0.489948 -0.500557 -0.467116 -0.398176 -0.321001 -0.257551 -0.205215 -0.15936 -0.108388 -0.0140486 0.104718 0.207348 0.262275 0.274763 0.256679 0.237024 0.219103 0.201537 0.183611 0.163391 0.137712 0.100524 0.0431224 0 0.138309 0.133628 0.00850575 -0.15444 -0.277247 -0.373137 -0.452562 -0.51226 -0.541203 -0.542335 -0.49975 -0.425278 -0.347109 -0.278376 -0.213222 -0.143903 -0.0540337 0.0733436 0.199705 0.281542 0.310525 0.296347 0.275034 0.254821 0.235062 0.214883 0.192357 0.163905 0.123001 0.0554323 0 0.13991 0.131724 0.0208924 -0.140377 -0.261502 -0.354611 -0.435067 -0.5093 -0.563262 -0.589781 -0.58349 -0.531317 -0.447803 -0.359615 -0.274472 -0.184507 -0.0928669 0.0364685 0.175004 0.281653 0.332323 0.336069 0.313979 0.29109 0.268906 0.246258 0.221406 0.190311 0.145631 0.0686034 0 0.100346 0.0873519 0.00369935 -0.132947 -0.243394 -0.331519 -0.402631 -0.477724 -0.555985 -0.611151 -0.637456 -0.620801 -0.552288 -0.452487 -0.344029 -0.236041 -0.123432 -0.00507798 0.138081 0.270588 0.349244 0.373516 0.353611 0.327869 0.303074 0.277886 0.250737 0.21731 0.168971 0.0828786 0 0.029655 0.0175593 -0.0425336 -0.143681 -0.234341 -0.313312 -0.375539 -0.439296 -0.520007 -0.602462 -0.659072 -0.681245 -0.644642 -0.549787 -0.424677 -0.292207 -0.162676 -0.04115 0.0998067 0.24463 0.352294 0.400289 0.392954 0.365695 0.337958 0.310293 0.281015 0.245868 0.194693 0.100054 0 -0.0607144 -0.0687824 -0.109935 -0.176771 -0.246632 -0.309316 -0.364277 -0.417036 -0.486658 -0.570679 -0.650264 -0.702928 -0.708107 -0.638737 -0.509024 -0.356361 -0.207987 -0.0666917 0.0633959 0.209483 0.342637 0.416582 0.432989 0.405629 0.374496 0.344276 0.313065 0.276848 0.224137 0.12269 0 -0.168745 -0.173159 -0.197949 -0.239738 -0.28783 -0.333772 -0.376409 -0.422757 -0.47837 -0.549555 -0.626835 -0.690994 -0.728001 -0.697542 -0.586189 -0.423097 -0.251929 -0.0964968 0.0382536 0.178659 0.321253 0.424501 0.467126 0.447604 0.414059 0.380905 0.347705 0.310757 0.257682 0.151166 0 -0.317047 -0.317472 -0.328545 -0.349462 -0.375566 -0.40283 -0.4314 -0.463733 -0.505458 -0.557024 -0.616503 -0.673248 -0.710059 -0.709602 -0.633589 -0.47951 -0.294952 -0.122522 0.0287713 0.156967 0.296847 0.423635 0.490786 0.493211 0.458047 0.421207 0.385647 0.347852 0.294801 0.183637 0 -0.576772 -0.569974 -0.560216 -0.550344 -0.543178 -0.541731 -0.545367 -0.553547 -0.568901 -0.597248 -0.632495 -0.666565 -0.689055 -0.686598 -0.63482 -0.51064 -0.325646 -0.13693 0.0241738 0.156567 0.284563 0.417975 0.509625 0.538822 0.506418 0.466234 0.427473 0.387978 0.33445 0.21833 0 -1.00107 -0.984991 -0.949303 -0.898491 -0.839111 -0.779193 -0.728271 -0.6926 -0.675017 -0.667044 -0.668378 -0.677008 -0.681112 -0.661063 -0.609532 -0.505664 -0.341645 -0.138507 0.0399213 0.178655 0.292325 0.416118 0.526087 0.580837 0.561279 0.517359 0.473666 0.430866 0.375916 0.25514 0 -1.38956 -1.36855 -1.32078 -1.2511 -1.16781 -1.07934 -0.991634 -0.906523 -0.825401 -0.763122 -0.729577 -0.705604 -0.680762 -0.650443 -0.590903 -0.491645 -0.33592 -0.139504 0.0703213 0.226577 0.33195 0.434463 0.547544 0.62244 0.624008 0.575727 0.525297 0.476827 0.419569 0.295473 0 -1.58171 -1.55947 -1.51248 -1.44869 -1.38069 -1.30837 -1.22685 -1.13362 -1.03193 -0.933567 -0.839521 -0.761334 -0.707575 -0.655183 -0.587698 -0.486342 -0.338607 -0.137608 0.0794872 0.285777 0.411437 0.49068 0.581702 0.664573 0.691412 0.643741 0.584135 0.527274 0.466628 0.341271 0 -1.58647 -1.56388 -1.52428 -1.48152 -1.44565 -1.4029 -1.34522 -1.27295 -1.20103 -1.12092 -1.0232 -0.916497 -0.80539 -0.699247 -0.60797 -0.510017 -0.371355 -0.17512 0.0676831 0.301038 0.501134 0.591711 0.653108 0.721768 0.766985 0.725263 0.65219 0.58444 0.518382 0.394313 0 -1.4415 -1.41623 -1.37035 -1.34111 -1.33653 -1.32902 -1.31646 -1.3024 -1.27541 -1.22749 -1.16738 -1.09172 -0.989293 -0.861856 -0.719435 -0.571995 -0.426435 -0.25382 -0.0145442 0.268708 0.518531 0.705655 0.76905 0.807982 0.840494 0.819138 0.734549 0.650332 0.575913 0.456172 0 -1.29189 -1.2518 -1.20594 -1.18642 -1.18271 -1.17637 -1.17596 -1.18697 -1.20571 -1.2229 -1.22076 -1.18664 -1.11962 -1.03236 -0.912957 -0.755669 -0.573099 -0.371752 -0.145597 0.136603 0.450737 0.712272 0.878436 0.925096 0.929225 0.907094 0.825681 0.726376 0.639705 0.528304 0 -1.14413 -1.08552 -1.05305 -1.03834 -1.03168 -1.0276 -1.03619 -1.05598 -1.08042 -1.10609 -1.12934 -1.1471 -1.14806 -1.11451 -1.03708 -0.932246 -0.787478 -0.59339 -0.358884 -0.07947 0.251541 0.588085 0.847809 0.982254 1.0113 0.984044 0.905273 0.799048 0.706928 0.611142 0 -0.982059 -0.920999 -0.908366 -0.89134 -0.885067 -0.889565 -0.907408 -0.931646 -0.955389 -0.976828 -0.99577 -1.01406 -1.03264 -1.04671 -1.0455 -1.00814 -0.918101 -0.7872 -0.608071 -0.369123 -0.0618405 0.303577 0.646897 0.890318 1.00109 1.0117 0.958414 0.855717 0.762709 0.699751 0 -0.804087 -0.762131 -0.766892 -0.747079 -0.748382 -0.762408 -0.786086 -0.810312 -0.831213 -0.847706 -0.861622 -0.874691 -0.887854 -0.901105 -0.913201 -0.919255 -0.911662 -0.863495 -0.75451 -0.593092 -0.370801 -0.073403 0.283708 0.614065 0.838732 0.945635 0.951652 0.884063 0.796353 0.777784 0 -0.614866 -0.614695 -0.627178 -0.609849 -0.623602 -0.644293 -0.668632 -0.689415 -0.703739 -0.714517 -0.723781 -0.733437 -0.744138 -0.755449 -0.765186 -0.771809 -0.774224 -0.768777 -0.744231 -0.674482 -0.543179 -0.351034 -0.0914887 0.219868 0.516815 0.724754 0.841583 0.86045 0.795197 0.822237 0 -0.411368 -0.477894 -0.487426 -0.481981 -0.509806 -0.531658 -0.552041 -0.565391 -0.573801 -0.579562 -0.585289 -0.591965 -0.600064 -0.609158 -0.617456 -0.623683 -0.626786 -0.626264 -0.619663 -0.600313 -0.554952 -0.457851 -0.303397 -0.0922317 0.162493 0.418937 0.618048 0.745291 0.757561 0.823825 0 -0.203152 -0.344681 -0.348091 -0.363742 -0.402146 -0.420932 -0.433104 -0.439458 -0.44232 -0.444502 -0.447352 -0.451578 -0.45738 -0.464217 -0.470545 -0.475656 -0.479381 -0.48137 -0.481016 -0.476112 -0.461586 -0.428012 -0.354806 -0.232862 -0.067415 0.136198 0.354005 0.548869 0.671436 0.796708 0 0.00626234 -0.20511 -0.217708 -0.252646 -0.288478 -0.300339 -0.307067 -0.308827 -0.308741 -0.308859 -0.309889 -0.312408 -0.316471 -0.321265 -0.325605 -0.329535 -0.333552 -0.33758 -0.340657 -0.341309 -0.337515 -0.325115 -0.297881 -0.242492 -0.14753 -0.0193289 0.133798 0.311495 0.519534 0.758565 0 0.381495 -0.0726987 -0.115744 -0.136899 -0.145618 -0.154031 -0.1607 -0.159457 -0.159695 -0.159834 -0.160667 -0.163101 -0.166813 -0.169945 -0.172293 -0.17479 -0.17828 -0.183095 -0.188619 -0.193427 -0.196004 -0.194488 -0.184805 -0.160254 -0.112796 -0.0401727 0.0487145 0.145179 0.307824 0.662341 0 3.21099 0 0 0 0 0 0 0 0 0 0 0 0 0 0 0 0 0 0 0 0 0 0 0 0 0 0 0 0 0 0
				</DataArray>
			</PointData>
			<CellData Scalars="Density">
				<DataArray Name="Density" type="Float32" format="ascii">