<?xml version="1.0"?>
<VTKFile type="PolyData">
	<PolyData>
		<Piece NumberOfPoints="961" NumberOfPolys="900">
			<Points>
				<DataArray type="Float32" NumberOfComponents="3" format="ascii">
 0 0 0 0.04 0 0 0.08 0 0 0.12 0 0 0.16 0 0 0.2 0 0 0.24 0 0 0.28 0 0 0.32 0 0 0.36 0 0 0.4 0 0 0.44 0 0 0.48 0 0 0.52 0 0 0.56 0 0 0.6 0 0 0.64 0 0 0.68 0 0 0.72 0 0 0.76 0 0 0.8 0 0 0.84 0 0 0.88 0 0 0.92 0 0 0.96 0 0 1 0 0 1.04 0 0 1.08 0 0 1.12 0 0 1.16 0 0 1.2 0 0 0 0.04 0 0.04 0.04 0 0.08 0.04 0 0.12 0.04 0 0.16 0.04 0 0.2 0.04 0 0.24 0.04 0 0.28 0.04 0 0.32 0.04 0 0.36 0.04 0 0.4 0.04 0 0.44 0.04 0 0.48 0.04 0 0.52 0.04 0 0.56 0.04 0 0.6 0.04 0 0.64 0.04 0 0.68 0.04 0 0.72 0.04 0 0.76 0.04 0 0.8 0.04 0 0.84 0.04 0 0.88 0.04 0 0.92 0.04 0 0.96 0.04 0 1 0.04 0 1.04 0.04 0 1.08 0.04 0 1.12 0.04 0 1.16 0.04 0 1.2 0.04 0 0 0.08 0 0.04 0.08 0 0.08 0.08 0 0.12 0.08 0 0.16 0.08 0 0.2 0.08 0 0.24 0.08 0 0.28 0.08 0 0.32 0.08 0 0.36 0.08 0 0.4 0.08 0 0.44 0.08 0 0.48 0.08 0 0.52 0.08 0 0.56 0.08 0 0.6 0.08 0 0.64 0.08 0 0.68 0.08 0 0.72 0.08 0 0.76 0.08 0 0.8 0.08 0 0.84 0.08 0 0.88 0.08 0 0.92 0.08 0 0.96 0.08 0 1 0.08 0 1.04 0.08 0 1.08 0.08 0 1.12 0.08 0 1.16 0.08 0 1.2 0.08 0 0 0.12 0 0.04 0.12 0 0.08 0.12 0 0.12 0.12 0 0.16 0.12 0 0.2 0.12 0 0.24 0.12 0 0.28 0.12 0 0.32 0.12 0 0.36 0.12 0 0.4 0.12 0 0.44 0.12 0 0.48 0.12 0 0.52 0.12 0 0.56 0.12 0 0.6 0.12 0 0.64 0.12 0 0.68 0.12 0 0.72 0.12 0 0.76 0.12 0 0.8 0.12 0 0.84 0.12 0 0.88 0.12 0 0.92 0.12 0 0.96 0.12 0 1 0.12 0 1.04 0.12 0 1.08 0.12 0 1.12 0.12 0 1.16 0.12 0 1.2 0.12 0 0 0.16 0 0.04 0.16 0 0.08 0.16 0 0.12 0.16 0 0.16 0.16 0 0.2 0.16 0 0.24 0.16 0 0.28 0.16 0 0.32 0.16 0 0.36 0.16 0 0.4 0.16 0 0.44 0.16 0 0.48 0.16 0 0.52 0.16 0 0.56 0.16 0 0.6 0.16 0 0.64 0.16 0 0.68 0.16 0 0.72 0.16 0 0.76 0.16 0 0.8 0.16 0 0.84 0.16 0 0.88 0.16 0 0.92 0.16 0 0.96 0.16 0 1 0.16 0 1.04 0.16 0 1.08 0.16 0 1.12 0.16 0 1.16 0.16 0 1.2 0.16 0 0 0.2 0 0.04 0.2 0 0.08 0.2 0 0.12 0.2 0 0.16 0.2 0 0.2 0.2 0 0.24 0.2 0 0.28 0.2 0 0.32 0.2 0 0.36 0.2 0 0.4 0.2 0 0.44 0.2 0 0.48 0.2 0 0.52 0.2 0 0.56 0.2 0 0.6 0.2 0 0.64 0.2 0 0.68 0.2 0 0.72 0.2 0 0.76 0.2 0 0.8 0.2 0 0.84 0.2 0 0.88 0.2 0 0.92 0.2 0 0.96 0.2 0 1 0.2 0 1.04 0.2 0 1.08 0.2 0 1.12 0.2 0 1.16 0.2 0 1.2 0.2 0 0 0.24 0 0.04 0.24 0 0.08 0.24 0 0.12 0.24 0 0.16 0.24 0 0.2 0.24 0 0.24 0.24 0 0.28 0.24 0 0.32 0.24 0 0.36 0.24 0 0.4 0.24 0 0.44 0.24 0 0.48 0.24 0 0.52 0.24 0 0.56 0.24 0 0.6 0.24 0 0.64 0.24 0 0.68 0.24 0 0.72 0.24 0 0.76 0.24 0 0.8 0.24 0 0.84 0.24 0 0.88 0.24 0 0.92 0.24 0 0.96 0.24 0 1 0.24 0 1.04 0.24 0 1.08 0.24 0 1.12 0.24 0 1.16 0.24 0 1.2 0.24 0 0 0.28 0 0.04 0.28 0 0.08 0.28 0 0.12 0.28 0 0.16 0.28 0 0.2 0.28 0 0.24 0.28 0 0.28 0.28 0 0.32 0.28 0 0.36 0.28 0 0.4 0.28 0 0.44 0.28 0 0.48 0.28 0 0.52 0.28 0 0.56 0.28 0 0.6 0.28 0 0.64 0.28 0 0.68 0.28 0 0.72 0.28 0 0.76 0.28 0 0.8 0.28 0 0.84 0.28 0 0.88 0.28 0 0.92 0.28 0 0.96 0.28 0 1 0.28 0 1.04 0.28 0 1.08 0.28 0 1.12 0.28 0 1.16 0.28 0 1.2 0.28 0 0 0.32 0 0.04 0.32 0 0.08 0.32 0 0.12 0.32 0 0.16 0.32 0 0.2 0.32 0 0.24 0.32 0 0.28 0.32 0 0.32 0.32 0 0.36 0.32 0 0.4 0.32 0 0.44 0.32 0 0.48 0.32 0 0.52 0.32 0 0.56 0.32 0 0.6 0.32 0 0.64 0.32 0 0.68 0.32 0 0.72 0.32 0 0.76 0.32 0 0.8 0.32 0 0.84 0.32 0 0.88 0.32 0 0.92 0.32 0 0.96 0.32 0 1 0.32 0 1.04 0.32 0 1.08 0.32 0 1.12 0.32 0 1.16 0.32 0 1.2 0.32 0 0 0.36 0 0.04 0.36 0 0.08 0.36 0 0.12 0.36 0 0.16 0.36 0 0.2 0.36 0 0.24 0.36 0 0.28 0.36 0 0.32 0.36 0 0.36 0.36 0 0.4 0.36 0 0.44 0.36 0 0.48 0.36 0 0.52 0.36 0 0.56 0.36 0 0.6 0.36 0 0.64 0.36 0 0.68 0.36 0 0.72 0.36 0 0.76 0.36 0 0.8 0.36 0 0.84 0.36 0 0.88 0.36 0 0.92 0.36 0 0.96 0.36 0 1 0.36 0 1.04 0.36 0 1.08 0.36 0 1.12 0.36 0 1.16 0.36 0 1.2 0.36 0 0 0.4 0 0.04 0.4 0 0.08 0.4 0 0.12 0.4 0 0.16 0.4 0 0.2 0.4 0 0.24 0.4 0 0.28 0.4 0 0.32 0.4 0 0.36 0.4 0 0.4 0.4 0 0.44 0.4 0 0.48 0.4 0 0.52 0.4 0 0.56 0.4 0 0.6 0.4 0 0.64 0.4 0 0.68 0.4 0 0.72 0.4 0 0.76 0.4 0 0.8 0.4 0 0.84 0.4 0 0.88 0.4 0 0.92 0.4 0 0.96 0.4 0 1 0.4 0 1.04 0.4 0 1.08 0.4 0 1.12 0.4 0 1.16 0.4 0 1.2 0.4 0 0 0.44 0 0.04 0.44 0 0.08 0.44 0 0.12 0.44 0 0.16 0.44 0 0.2 0.44 0 0.24 0.44 0 0.28 0.44 0 0.32 0.44 0 0.36 0.44 0 0.4 0.44 0 0.44 0.44 0 0.48 0.44 0 0.52 0.44 0 0.56 0.44 0 0.6 0.44 0 0.64 0.44 0 0.68 0.44 0 0.72 0.44 0 0.76 0.44 0 0.8 0.44 0 0.84 0.44 0 0.88 0.44 0 0.92 0.44 0 0.96 0.44 0 1 0.44 0 1.04 0.44 0 1.08 0.44 0 1.12 0.44 0 1.16 0.44 0 1.2 0.44 0 0 0.48 0 0.04 0.48 0 0.08 0.48 0 0.12 0.48 0 0.16 0.48 0 0.2 0.48 0 0.24 0.48 0 0.28 0.48 0 0.32 0.48 0 0.36 0.48 0 0.4 0.48 0 0.44 0.48 0 0.48 0.48 0 0.52 0.48 0 0.56 0.48 0 0.6 0.48 0 0.64 0.48 0 0.68 0.48 0 0.72 0.48 0 0.76 0.48 0 0.8 0.48 0 0.84 0.48 0 0.88 0.48 0 0.92 0.48 0 0.96 0.48 0 1 0.48 0 1.04 0.48 0 1.08 0.48 0 1.12 0.48 0 1.16 0.48 0 1.2 0.48 0 0 0.52 0 0.04 0.52 0 0.08 0.52 0 0.12 0.52 0 0.16 0.52 0 0.2 0.52 0 0.24 0.52 0 0.28 0.52 0 0.32 0.52 0 0.36 0.52 0 0.4 0.52 0 0.44 0.52 0 0.48 0.52 0 0.52 0.52 0 0.56 0.52 0 0.6 0.52 0 0.64 0.52 0 0.68 0.52 0 0.72 0.52 0 0.76 0.52 0 0.8 0.52 0 0.84 0.52 0 0.88 0.52 0 0.92 0.52 0 0.96 0.52 0 1 0.52 0 1.04 0.52 0 1.08 0.52 0 1.12 0.52 0 1.16 0.52 0 1.2 0.52 0 0 0.56 0 0.04 0.56 0 0.08 0.56 0 0.12 0.56 0 0.16 0.56 0 0.2 0.56 0 0.24 0.56 0 0.28 0.56 0 0.32 0.56 0 0.36 0.56 0 0.4 0.56 0 0.44 0.56 0 0.48 0.56 0 0.52 0.56 0 0.56 0.56 0 0.6 0.56 0 0.64 0.56 0 0.68 0.56 0 0.72 0.56 0 0.76 0.56 0 0.8 0.56 0 0.84 0.56 0 0.88 0.56 0 0.92 0.56 0 0.96 0.56 0 1 0.56 0 1.04 0.56 0 1.08 0.56 0 1.12 0.56 0 1.16 0.56 0 1.2 0.56 0 0 0.6 0 0.04 0.6 0 0.08 0.6 0 0.12 0.6 0 0.16 0.6 0 0.2 0.6 0 0.24 0.6 0 0.28 0.6 0 0.32 0.6 0 0.36 0.6 0 0.4 0.6 0 0.44 0.6 0 0.48 0.6 0 0.52 0.6 0 0.56 0.6 0 0.6 0.6 0 0.64 0.6 0 0.68 0.6 0 0.72 0.6 0 0.76 0.6 0 0.8 0.6 0 0.84 0.6 0 0.88 0.6 0 0.92 0.6 0 0.96 0.6 0 1 0.6 0 1.04 0.6 0 1.08 0.6 0 1.12 0.6 0 1.16 0.6 0 1.2 0.6 0 0 0.64 0 0.04 0.64 0 0.08 0.64 0 0.12 0.64 0 0.16 0.64 0 0.2 0.64 0 0.24 0.64 0 0.28 0.64 0 0.32 0.64 0 0.36 0.64 0 0.4 0.64 0 0.44 0.64 0 0.48 0.64 0 0.52 0.64 0 0.56 0.64 0 0.6 0.64 0 0.64 0.64 0 0.68 0.64 0 0.72 0.64 0 0.76 0.64 0 0.8 0.64 0 0.84 0.64 0 0.88 0.64 0 0.92 0.64 0 0.96 0.64 0 1 0.64 0 1.04 0.64 0 1.08 0.64 0 1.12 0.64 0 1.16 0.64 0 1.2 0.64 0 0 0.68 0 0.04 0.68 0 0.08 0.68 0 0.12 0.68 0 0.16 0.68 0 0.2 0.68 0 0.24 0.68 0 0.28 0.68 0 0.32 0.68 0 0.36 0.68 0 0.4 0.68 0 0.44 0.68 0 0.48 0.68 0 0.52 0.68 0 0.56 0.68 0 0.6 0.68 0 0.64 0.68 0 0.68 0.68 0 0.72 0.68 0 0.76 0.68 0 0.8 0.68 0 0.84 0.68 0 0.88 0.68 0 0.92 0.68 0 0.96 0.68 0 1 0.68 0 1.04 0.68 0 1.08 0.68 0 1.12 0.68 0 1.16 0.68 0 1.2 0.68 0 0 0.72 0 0.04 0.72 0 0.08 0.72 0 0.12 0.72 0 0.16 0.72 0 0.2 0.72 0 0.24 0.72 0 0.28 0.72 0 0.32 0.72 0 0.36 0.72 0 0.4 0.72 0 0.44 0.72 0 0.48 0.72 0 0.52 0.72 0 0.56 0.72 0 0.6 0.72 0 0.64 0.72 0 0.68 0.72 0 0.72 0.72 0 0.76 0.72 0 0.8 0.72 0 0.84 0.72 0 0.88 0.72 0 0.92 0.72 0 0.96 0.72 0 1 0.72 0 1.04 0.72 0 1.08 0.72 0 1.12 0.72 0 1.16 0.72 0 1.2 0.72 0 0 0.76 0 0.04 0.76 0 0.08 0.76 0 0.12 0.76 0 0.16 0.76 0 0.2 0.76 0 0.24 0.76 0 0.28 0.76 0 0.32 0.76 0 0.36 0.76 0 0.4 0.76 0 0.44 0.76 0 0.48 0.76 0 0.52 0.76 0 0.56 0.76 0 0.6 0.76 0 0.64 0.76 0 0.68 0.76 0 0.72 0.76 0 0.76 0.76 0 0.8 0.76 0 0.84 0.76 0 0.88 0.76 0 0.92 0.76 0 0.96 0.76 0 1 0.76 0 1.04 0.76 0 1.08 0.76 0 1.12 0.76 0 1.16 0.76 0 1.2 0.76 0 0 0.8 0 0.04 0.8 0 0.08 0.8 0 0.12 0.8 0 0.16 0.8 0 0.2 0.8 0 0.24 0.8 0 0.28 0.8 0 0.32 0.8 0 0.36 0.8 0 0.4 0.8 0 0.44 0.8 0 0.48 0.8 0 0.52 0.8 0 0.56 0.8 0 0.6 0.8 0 0.64 0.8 0 0.68 0.8 0 0.72 0.8 0 0.76 0.8 0 0.8 0.8 0 0.84 0.8 0 0.88 0.8 0 0.92 0.8 0 0.96 0.8 0 1 0.8 0 1.04 0.8 0 1.08 0.8 0 1.12 0.8 0 1.16 0.8 0 1.2 0.8 0 0 0.84 0 0.04 0.84 0 0.08 0.84 0 0.12 0.84 0 0.16 0.84 0 0.2 0.84 0 0.24 0.84 0 0.28 0.84 0 0.32 0.84 0 0.36 0.84 0 0.4 0.84 0 0.44 0.84 0 0.48 0.84 0 0.52 0.84 0 0.56 0.84 0 0.6 0.84 0 0.64 0.84 0 0.68 0.84 0 0.72 0.84 0 0.76 0.84 0 0.8 0.84 0 0.84 0.84 0 0.88 0.84 0 0.92 0.84 0 0.96 0.84 0 1 0.84 0 1.04 0.84 0 1.08 0.84 0 1.12 0.84 0 1.16 0.84 0 1.2 0.84 0 0 0.88 0 0.04 0.88 0 0.08 0.88 0 0.12 0.88 0 0.16 0.88 0 0.2 0.88 0 0.24 0.88 0 0.28 0.88 0 0.32 0.88 0 0.36 0.88 0 0.4 0.88 0 0.44 0.88 0 0.48 0.88 0 0.52 0.88 0 0.56 0.88 0 0.6 0.88 0 0.64 0.88 0 0.68 0.88 0 0.72 0.88 0 0.76 0.88 0 0.8 0.88 0 0.84 0.88 0 0.88 0.88 0 0.92 0.88 0 0.96 0.88 0 1 0.88 0 1.04 0.88 0 1.08 0.88 0 1.12 0.88 0 1.16 0.88 0 1.2 0.88 0 0 0.92 0 0.04 0.92 0 0.08 0.92 0 0.12 0.92 0 0.16 0.92 0 0.2 0.92 0 0.24 0.92 0 0.28 0.92 0 0.32 0.92 0 0.36 0.92 0 0.4 0.92 0 0.44 0.92 0 0.48 0.92 0 0.52 0.92 0 0.56 0.92 0 0.6 0.92 0 0.64 0.92 0 0.68 0.92 0 0.72 0.92 0 0.76 0.92 0 0.8 0.92 0 0.84 0.92 0 0.88 0.92 0 0.92 0.92 0 0.96 0.92 0 1 0.92 0 1.04 0.92 0 1.08 0.92 0 1.12 0.92 0 1.16 0.92 0 1.2 0.92 0 0 0.96 0 0.04 0.96 0 0.08 0.96 0 0.12 0.96 0 0.16 0.96 0 0.2 0.96 0 0.24 0.96 0 0.28 0.96 0 0.32 0.96 0 0.36 0.96 0 0.4 0.96 0 0.44 0.96 0 0.48 0.96 0 0.52 0.96 0 0.56 0.96 0 0.6 0.96 0 0.64 0.96 0 0.68 0.96 0 0.72 0.96 0 0.76 0.96 0 0.8 0.96 0 0.84 0.96 0 0.88 0.96 0 0.92 0.96 0 0.96 0.96 0 1 0.96 0 1.04 0.96 0 1.08 0.96 0 1.12 0.96 0 1.16 0.96 0 1.2 0.96 0 0 1 0 0.04 1 0 0.08 1 0 0.12 1 0 0.16 1 0 0.2 1 0 0.24 1 0 0.28 1 0 0.32 1 0 0.36 1 0 0.4 1 0 0.44 1 0 0.48 1 0 0.52 1 0 0.56 1 0 0.6 1 0 0.64 1 0 0.68 1 0 0.72 1 0 0.76 1 0 0.8 1 0 0.84 1 0 0.88 1 0 0.92 1 0 0.96 1 0 1 1 0 1.04 1 0 1.08 1 0 1.12 1 0 1.16 1 0 1.2 1 0 0 1.04 0 0.04 1.04 0 0.08 1.04 0 0.12 1.04 0 0.16 1.04 0 0.2 1.04 0 0.24 1.04 0 0.28 1.04 0 0.32 1.04 0 0.36 1.04 0 0.4 1.04 0 0.44 1.04 0 0.48 1.04 0 0.52 1.04 0 0.56 1.04 0 0.6 1.04 0 0.64 1.04 0 0.68 1.04 0 0.72 1.04 0 0.76 1.04 0 0.8 1.04 0 0.84 1.04 0 0.88 1.04 0 0.92 1.04 0 0.96 1.04 0 1 1.04 0 1.04 1.04 0 1.08 1.04 0 1.12 1.04 0 1.16 1.04 0 1.2 1.04 0 0 1.08 0 0.04 1.08 0 0.08 1.08 0 0.12 1.08 0 0.16 1.08 0 0.2 1.08 0 0.24 1.08 0 0.28 1.08 0 0.32 1.08 0 0.36 1.08 0 0.4 1.08 0 0.44 1.08 0 0.48 1.08 0 0.52 1.08 0 0.56 1.08 0 0.6 1.08 0 0.64 1.08 0 0.68 1.08 0 0.72 1.08 0 0.76 1.08 0 0.8 1.08 0 0.84 1.08 0 0.88 1.08 0 0.92 1.08 0 0.96 1.08 0 1 1.08 0 1.04 1.08 0 1.08 1.08 0 1.12 1.08 0 1.16 1.08 0 1.2 1.08 0 0 1.12 0 
[...]
			<PointData Scalars="VitesseX">
				<DataArray Name="VitesseX" type="Float32" format="ascii">
 0 -0.0263477 -0.0256625 -0.0148329 0.0502348 0.0460589 0.0973428 0.124378 0.156409 0.183066 0.211721 0.240859 0.270061 0.302707 0.332846 0.369664 0.442563 0.442444 0.37831 0.231792 0.0576389 0.00156066 6.86442e-07 6.44818e-11 8.44475e-15 -1.22133e-23 -1.78946e-15 1.78961e-15 -6.12153e-15 6.12145e-15 0 0 0.0462829 0.0596816 0.0583378 0.0955142 0.080128 0.118998 0.13847 0.166375 0.190014 0.216118 0.243322 0.270962 0.302657 0.331581 0.369092 0.440732 0.438356 0.372334 0.22497 0.0536902 0.00135563 5.72008e-07 5.74977e-11 7.88046e-15 -4.88522e-24 -1.78946e-15 1.78961e-15 -6.11692e-15 6.11681e-15 0 0 0.0553896 0.0795996 0.0998712 0.126738 0.11712 0.141977 0.155095 0.176431 0.197561 0.221136 0.247142 0.273672 0.305161 0.332162 0.373387 0.441037 0.432078 0.359268 0.206757 0.0432216 0.000883872 3.34955e-07 4.04973e-11 2.45826e-15 5.9101e-22 2.14101e-15 9.23788e-16 -6.12497e-15 3.09172e-15 0 0 0.0352538 0.0751919 0.102376 0.12363 0.130569 0.154897 0.17148 0.186464 0.207271 0.22832 0.25292 0.27835 0.309274 0.334057 0.383226 0.440993 0.422442 0.338476 0.177716 0.0295204 0.000424562 1.42909e-07 2.22621e-11 2.93475e-15 -7.59511e-20 2.51037e-18 7.39896e-18 -3.04723e-15 3.06881e-15 0 0 0.0195643 0.0600537 0.0890632 0.112092 0.134998 0.164657 0.180752 0.196872 0.217896 0.237733 0.260688 0.285507 0.31463 0.338276 0.399101 0.437442 0.407457 0.307791 0.13865 0.0163119 0.000145671 4.68522e-08 9.5175e-12 4.42967e-15 2.17744e-17 -5.69096e-20 -3.05476e-15 2.1587e-17 3.03317e-15 0 0 0.019646 0.0505717 0.0796949 0.108553 0.141313 0.167277 0.182617 0.205479 0.225827 0.247863 0.268519 0.294984 0.319769 0.346361 0.415173 0.428856 0.383924 0.264202 0.0924957 0.00684987 3.43714e-05 1.22156e-08 3.18954e-12 -2.60278e-15 2.1851e-17 3.03321e-15 6.05816e-17 -3.09356e-15 -2.32066e-19 0 0 0.0238414 0.0487668 0.078668 0.111966 0.141499 0.16375 0.185157 0.208766 0.232292 0.2541 0.275394 0.303443 0.322795 0.362286 0.422723 0.413837 0.347183 0.205125 0.0486742 0.00204224 5.36239e-06 2.46184e-09 8.33386e-13 -2.9772e-15 2.25276e-17 3.09368e-15 -1.75966e-14 1.75968e-14 -3.09386e-15 0 0 0.0224951 0.0479114 0.0787695 0.109383 0.137051 0.162224 0.186044 0.210688 0.235595 0.256123 0.28309 0.305925 0.326882 0.38767 0.416544 0.387269 0.293295 0.132967 0.0190419 0.000405283 5.65174e-07 3.58338e-10 1.69444e-13 3.10196e-15 2.22519e-17 -1.75967e-14 -2.08781e-23 2.08781e-23 1.75967e-14 0 0 0.0211322 0.0466347 0.0759281 0.104777 0.133596 0.159985 0.185358 0.211548 0.233933 0.259323 0.286475 0.304249 0.342467 0.400603 0.397494 0.34323 0.217644 0.06422 0.00500377 4.9105e-05 4.94845e-08 3.87177e-11 2.88273e-14 3.18077e-15 4.64241e-19 -1.75967e-14 -8.1822e-18 8.1957e-18 1.75869e-14 0 0 0.0210543 0.0449005 0.0716954 0.100192 0.128928 0.156348 0.183345 0.207566 0.233506 0.262469 0.282252 0.308824 0.370381 0.390792 0.36285 0.274803 0.125447 0.0213515 0.000802461 3.30514e-06 4.03964e-09 3.68313e-12 -6.85507e-16 -5.09136e-19 7.3993e-19 3.09379e-15 -1.76048e-14 1.21621e-17 1.44746e-14 0 0 0.0213378 0.0444866 0.0695691 0.0961995 0.123794 0.151331 0.177949 0.205877 0.234862 0.257076 0.281601 0.335858 0.372621 0.362317 0.303236 0.178627 0.0492013 0.00436379 6.98703e-05 1.4349e-07 2.3853e-10 2.92913e-13 3.333e-15 -3.09382e-15 -1.52014e-34 -2.26239e-17 6.21014e-15 -2.378e-14 2.06717e-14 0 0 0.021537 0.0443461 0.0682851 0.0935583 0.120168 0.147827 0.176581 0.204953 0.228995 0.25574 0.305161 0.347514 0.349079 0.309735 0.210971 0.0790448 0.0120412 0.000478162 2.83672e-06 6.33972e-09 1.09519e-11 1.39677e-14 3.14114e-15 -3.06141e-15 -2.29373e-17 2.833e-16 3.91777e-15 -3.87712e-15 -1.48045e-14 0 0 0.0216209 0.0443116 0.0680141 0.0930425 0.119514 0.146983 0.174063 0.200161 0.231154 0.27948 0.31903 0.327262 0.299961 0.221773 0.100527 0.0215172 0.0015469 2.32765e-05 7.19114e-08 2.13097e-10 4.74625e-13 1.80212e-14 -2.07108e-14 2.07203e-14 -2.31782e-17 1.06054e-17 -5.22037e-14 5.22155e-14 -1.75963e-14 0 0 0.0220396 0.0448991 0.0686297 0.0933668 0.118973 0.14549 0.174297 0.210512 0.255865 0.28873 0.298944 0.278375 0.214446 0.108278 0.0285822 0.00301794 8.60694e-05 4.64939e-07 1.95069e-09 5.77497e-12 -2.13913e-15 1.74006e-14 -1.75772e-14 -4.16684e-18 1.82831e-18 2.03933e-14 -5.30045e-14 5.29985e-14 -2.03931e-14 0 0 0.0223269 0.0454155 0.0694492 0.0948562 0.122827 0.155553 0.1939 0.229747 0.256774 0.265023 0.247457 0.192504 0.101818 0.0302966 0.00404357 0.000173618 1.61043e-06 8.46249e-09 3.62576e-11 1.54068e-13 2.83049e-16 -3.11813e-15 -1.44756e-14 -1.28407e-18 1.34189e-18 -2.86131e-19 2.06896e-14 -2.06896e-14 -5.24055e-18 0 0 0.0241937 0.0499675 0.0778529 0.107949 0.139574 0.170849 0.199514 0.221213 0.22563 0.208279 0.158938 0.083818 0.0262639 0.00395111 0.000215301 2.94404e-06 1.97994e-08 1.25065e-10 7.01058e-13 -1.15808e-14 1.75908e-14 -2.06981e-14 3.10421e-15 2.06902e-14 -7.53632e-19 -4.13781e-14 4.13781e-14 -4.13781e-14 4.13796e-14 0 0 0.028307 0.0569346 0.0852928 0.113425 0.140844 0.164703 0.179578 0.180205 0.161257 0.117012 0.0590787 0.0183829 0.00283031 0.000170801 2.93089e-06 2.61579e-08 2.30894e-10 1.648e-12 6.17612e-15 -1.4299e-14 -3.24854e-18 4.54949e-19 2.06914e-14 -2.06903e-14 -2.62288e-20 -4.18108e-19 2.06896e-14 -2.06896e-14 -5.24055e-18 0 0 0.0284186 0.055891 0.0815037 0.104447 0.122577 0.131754 0.128372 0.108356 0.0725386 0.0339809 0.00980237 0.00141346 8.36739e-05 1.58749e-06 1.95858e-08 2.29802e-10 2.17898e-12 2.06188e-14 -2.05932e-14 2.38014e-14 -4.13995e-14 4.13997e-14 -2.06954e-14 5.72857e-18 8.27018e-21 2.06887e-14 -5.67314e-14 5.67313e-14 -2.06944e-14 0 0 0.0242424 0.0457528 0.0634237 0.0755526 0.0795119 0.0734644 0.0572087 0.0344158 0.0142763 0.00350634 0.000434854 2.24667e-05 4.51919e-07 8.28481e-09 1.23177e-10 1.62554e-12 2.04749e-14 -1.74171e-14 2.27456e-16 -3.6268e-14 3.62681e-14 -2.37705e-16 1.24089e-17 3.43118e-18 2.20937e-18 2.06887e-14 -5.67314e-14 3.60385e-14 -9.45425e-18 0 0 0.014272 0.0251952 0.0316826 0.0328997 0.028841 0.0203276 0.0104118 0.00346467 0.000661432 6.42275e-05 2.70547e-06 6.84707e-08 1.89028e-09 3.51549e-11 6.93901e-13 6.35452e-15 -1.44053e-14 2.47451e-16 3.24981e-18 -3.6281e-14 3.62769e-14 -2.46751e-16 1.65134e-17 -6.99484e-19 2.2011e-18 -4.18108e-19 2.06895e-14 -4.13824e-14 2.06797e-14 0 0 0.00390629 0.0064319 0.00693662 0.00557563 0.00322524 0.00124846 0.000303651 4.22921e-05 3.02727e-06 1.31591e-07 5.94381e-09 2.0274e-10 5.50085e-12 1.49216e-13 -1.81731e-14 2.08892e-14 -1.76139e-14 -3.57927e-14 3.58062e-14 -1.3247e-17 8.95903e-18 2.06979e-14 -4.13828e-14 4.13827e-14 -2.5599e-21 -4.13781e-14 4.13777e-14 -2.06878e-14 2.0689e-14 0 0 0.000178496 0.000235398 0.00017263 8.0057e-05 2.35946e-05 4.2427e-06 4.71822e-07 4.18964e-08 3.58945e-09 2.18082e-10 1.00283e-11 4.4574e-13 3.21074e-14 2.83077e-16 -1.75909e-14 -5.04479e-18 -1.55966e-17 -3.57928e-14 3.58021e-14 -9.32359e-18 2.24373e-17 -1.92896e-17 2.50839e-16 -2.38299e-16 2.3336e-18 7.2739e-19 2.06879e-14 -2.06878e-14 2.06889e-14 0 0 1.01254e-07 1.13267e-07 6.68082e-08 2.64109e-08 7.92822e-09 1.81689e-09 2.87969e-10 3.19677e-11 3.12812e-12 2.60236e-13 1.90488e-14 -1.67951e-14 1.74006e-14 -3.09075e-15 -1.44893e-14 -2.14201e-18 -1.55871e-17 2.37514e-16 -2.28468e-16 2.06979e-14 -4.13886e-14 2.0686e-14 2.33098e-16 -2.21916e-16 1.4612e-18 2.06906e-14 -2.06922e-14 -2.06909e-14 4.13838e-14 0 0 6.98663e-12 1.00233e-11 8.21753e-12 4.52883e-12 1.80926e-12 5.48331e-13 1.0981e-13 3.0719e-14 -1.02363e-15 3.19287e-15 -3.06551e-15 -1.44587e-14 1.75772e-14 -2.06844e-14 3.10421e-15 2.06902e-14 -2.06955e-14 -1.20996e-17 1.62041e-17 -1.31914e-18 2.27044e-16 -2.42013e-16 8.45222e-20 1.55588e-17 5.13299e-18 -2.14238e-17 2.54239e-16 -2.41005e-16 -3.60499e-14 0 0 5.65146e-16 -1.21548e-15 7.92496e-16 -2.26545e-15 3.23648e-15 -2.86318e-15 2.97216e-15 -3.00741e-15 6.7315e-19 3.09382e-15 -3.12591e-15 -1.44685e-14 -3.8625e-18 1.05015e-18 2.069e-14 -2.06889e-14 -7.14539e-18 5.04055e-18 -9.62216e-19 -1.11956e-21 2.38299e-16 -2.54626e-16 1.71587e-17 -8.30847e-19 6.03418e-18 -2.34296e-17 -3.57852e-14 5.64903e-14 -5.67407e-14 0 0 -7.32811e-24 -6.07148e-15 6.12964e-15 -6.08839e-15 2.18509e-17 -2.223e-17 6.20997e-15 -6.18818e-15 4.42354e-19 -4.15371e-32 -2.26112e-17 6.20967e-15 -4.13815e-14 4.13811e-14 -7.01143e-19 -4.13781e-14 4.13781e-14 -4.13803e-14 4.13803e-14 2.55812e-21 -4.13804e-14 4.13796e-14 -4.13759e-14 4.13767e-14 -4.18114e-19 -1.16302e-18 -1.1347e-13 1.13468e-13 3.30889e-18 0 0 -1.84527e-29 -2.14101e-15 6.05944e-17 -5.69275e-20 -3.03313e-15 3.0939e-15 -1.75968e-14 1.75968e-14 -3.09379e-15 -2.29246e-17 2.833e-16 5.63083e-15 -2.0395e-14 5.49767e-19 1.08839e-34 -4.18108e-19 2.06896e-14 -2.06896e-14 4.18108e-19 -2.42069e-24 7.27377e-19 2.06875e-14 -4.13921e-14 4.13919e-14 2.66627e-19 -5.6758e-14 4.9705e-16 -4.96777e-16 5.6759e-14 0 0 2.7919e-31 9.23716e-16 -6.05908e-15 3.05489e-15 6.06574e-17 -1.75966e-14 -1.94862e-34 -8.18217e-18 1.7605e-14 -2.31473e-17 -1.70293e-15 -4.87771e-14 5.35948e-14 -2.06887e-14 -6.30584e-35 2.06887e-14 -5.67314e-14 5.67313e-14 -2.06886e-14 -4.63603e-19 2.06902e-14 -2.06921e-14 2.21839e-16 -3.62635e-14 -6.59554e-18 4.58757e-16 4.44732e-17 -4.42002e-17 -4.32437e-16 0 0 -2.89831e-16 -2.20537e-15 -3.03205e-15 2.17196e-17 3.09402e-15 -1.75968e-14 6.65843e-23 -8.16874e-18 1.22963e-17 1.75923e-14 -1.70788e-15 -4.8801e-14 5.36008e-14 -2.06887e-14 -9.69086e-36 2.06887e-14 -5.67314e-14 3.60385e-14 4.21358e-18 2.06894e-14 -2.06894e-14 -2.06957e-14 4.16216e-14 -5.69714e-14 -5.25428e-18 4.5903e-16 4.42004e-17 -4.44632e-17 -4.32174e-16 0 0 -6.67394e-11 -5.26339e-15 3.05601e-15 -3.03317e-15 2.3207e-19 3.09372e-15 -1.75967e-14 1.75869e-14 -2.06912e-14 2.07008e-14 -2.03897e-14 2.31818e-14 -2.03958e-14 7.63343e-18 -1.27969e-39 -7.63343e-18 2.06966e-14 -4.13973e-14 2.07084e-14 2.06891e-14 -2.06892e-14 -4.05396e-18 -3.60539e-14 5.67446e-14 8.03265e-19 -5.67565e-14 5.20837e-16 -5.211e-16 5.6758e-14 0 0 0 0 0 0 0 0 0 0 0 0 0 0 0 0 0 0 0 0 0 0 0 0 0 0 0 0 0 0 0 0
				</DataArray>
				<DataArray Name="VitesseY" type="Float32" format="ascii">
 0 0 0 0 0 0 0 0 0 0 0 0 0 0 0 0 0 0 0 0 0 0 0 0 0 0 0 0 0 0 0 -0.0263226 0.0462912 0.0553908 0.0352492 0.0195608 0.0196441 0.023841 0.0224958 0.0211337 0.0210555 0.0213385 0.0215374 0.0216212 0.0220401 0.022327 0.0241933 0.028306 0.0284175 0.0242411 0.0142706 0.00390573 0.000178449 1.01207e-07 6.98358e-12 5.64291e-16 -6.10669e-24 -1.28831e-24 -3.70429e-21 4.60744e-18 4.57914e-18 0 -0.0256509 0.0596915 0.0796003 0.0751887 0.06005 0.0505693 0.0487646 0.0479106 0.0466358 0.0449021 0.0444874 0.0443466 0.0443122 0.0448999 0.0454158 0.0499669 0.0569328 0.0558888 0.0457501 0.0251929 0.00643104 0.000235338 1.13218e-07 1.0019e-11 -1.21358e-15 -6.07148e-15 -2.14101e-15 9.23646e-16 4.51687e-17 -2.98793e-15 0 -0.0148289 0.0583501 0.0998774 0.10238 0.0890627 0.0796913 0.0786638 0.0787662 0.0759274 0.0716968 0.0695704 0.0682864 0.0680154 0.0686309 0.0694498 0.0778523 0.0852905 0.0815006 0.0634201 0.0316799 0.00693577 0.00017259 6.67825e-08 8.2142e-12 7.95321e-16 6.12964e-15 6.05945e-17 -6.05895e-15 -3.01912e-15 3.06881e-15 0 0.0502383 0.0955263 0.126747 0.123633 0.112093 0.108551 0.111962 0.109378 0.104774 0.100193 0.0962023 0.0935609 0.0930444 0.093368 0.0948567 0.107949 0.113423 0.104443 0.0755488 0.0328971 0.00557505 8.00404e-05 2.64026e-08 4.52721e-12 -2.27084e-15 -6.08839e-15 -5.68772e-20 3.05476e-15 2.15869e-17 -3.03317e-15 0 0.0460603 0.0801374 0.117133 0.130576 0.134999 0.141309 0.141493 0.137045 0.133593 0.128928 0.123797 0.120172 0.119516 0.118975 0.122828 0.139573 0.140841 0.122574 0.0795086 0.0288394 0.00322499 2.35905e-05 7.92627e-09 1.80872e-12 3.23668e-15 2.18509e-17 -3.03313e-15 6.06574e-17 3.09402e-15 2.32033e-19 0 0.0973423 0.119004 0.141987 0.154904 0.164658 0.167274 0.163745 0.16222 0.159982 0.156348 0.151333 0.14783 0.146985 0.145492 0.155553 0.170848 0.164702 0.131752 0.0734625 0.0203272 0.0012484 4.24218e-06 1.81655e-09 5.48179e-13 -2.86331e-15 -2.223e-17 3.0939e-15 -1.75966e-14 -1.75968e-14 3.09372e-15 0 0.124378 0.138475 0.155101 0.171485 0.180752 0.182614 0.185153 0.18604 0.185356 0.183345 0.17795 0.176583 0.174065 0.174299 0.1939 0.199514 0.179578 0.128372 0.0572087 0.0104119 0.000303652 4.71795e-07 2.87931e-10 1.09792e-13 2.97216e-15 6.20997e-15 -1.75968e-14 -2.13165e-24 6.70106e-23 -1.75967e-14 0 0.156411 0.16638 0.176436 0.186468 0.196871 0.205477 0.208763 0.210686 0.211546 0.207566 0.205878 0.204954 0.200163 0.210513 0.229748 0.221215 0.180206 0.108357 0.0344169 0.00346485 4.22945e-05 4.18966e-08 3.19656e-11 3.07109e-14 -3.00741e-15 -6.18818e-15 1.75968e-14 -8.18214e-18 -8.16872e-18 1.75869e-14 0 0.183071 0.190021 0.197566 0.207272 0.217894 0.225824 0.23229 0.235593 0.233932 0.233506 0.234862 0.228998 0.231155 0.255866 0.256776 0.225632 0.161261 0.0725413 0.014277 0.000661494 3.02762e-06 3.58966e-09 3.12817e-12 -1.02356e-15 6.73065e-19 4.42354e-19 -3.09379e-15 1.7605e-14 1.22963e-17 -2.06912e-14 0 0.211725 0.216123 0.221141 0.228322 0.237732 0.247859 0.254096 0.256121 0.259321 0.262467 0.257076 0.255741 0.279481 0.288732 0.265025 0.208283 0.117016 0.0339826 0.00350664 6.4236e-05 1.31611e-07 2.18106e-10 2.60195e-13 3.19287e-15 3.09382e-15 -4.15372e-32 -2.29246e-17 -2.31473e-17 1.75923e-14 2.07008e-14 0 0.240863 0.243327 0.247147 0.252924 0.260689 0.268515 0.275389 0.283086 0.286473 0.28225 0.281599 0.305161 0.31903 0.298946 0.24746 0.158942 0.0590807 0.00980299 0.000434901 2.70593e-06 5.9447e-09 1.00296e-11 1.90694e-14 -3.06551e-15 -3.12591e-15 -2.26111e-17 2.833e-16 -1.70293e-15 -1.70788e-15 -2.03897e-14 0 0.270067 0.270968 0.273678 0.278353 0.285508 0.294981 0.303439 0.305921 0.304245 0.308822 0.335857 0.347514 0.327263 0.278377 0.192507 0.0838203 0.0183836 0.00141357 2.24697e-05 6.84812e-08 2.02775e-10 4.45867e-13 -1.67951e-14 -1.44587e-14 -1.44685e-14 6.20967e-15 5.63083e-15 -4.87771e-14 -4.8801e-14 2.31818e-14 0 0.302713 0.302664 0.305167 0.309277 0.31463 0.319767 0.322791 0.326879 0.342465 0.37038 0.372621 0.349079 0.299962 0.214448 0.101819 0.0262645 0.00283044 8.3681e-05 4.51978e-07 1.89055e-09 5.50168e-12 3.21233e-14 1.74006e-14 1.75772e-14 -3.86249e-18 -4.13815e-14 -2.0395e-14 5.35948e-14 5.36008e-14 -2.03958e-14 0 0.33285 0.331585 0.332166 0.334059 0.338276 0.346359 0.362283 0.387667 0.400601 0.39079 0.362314 0.309734 0.221773 0.108278 0.0302967 0.00395118 0.000170809 1.58762e-06 8.28562e-09 3.51593e-11 1.49206e-13 2.83077e-16 -3.09075e-15 -2.06844e-14 1.05021e-18 4.13811e-14 5.49808e-19 -2.06887e-14 -2.06887e-14 7.63349e-18 0 0.369664 0.369092 0.373386 0.383224 0.399098 0.415171 0.422719 0.416541 0.39749 0.362847 0.303233 0.210968 0.100526 0.0285817 0.00404352 0.000215301 2.93098e-06 1.95869e-08 1.23187e-10 6.93967e-13 -1.81729e-14 -1.75909e-14 -1.44893e-14 3.10421e-15 2.069e-14 -7.01188e-19 4.09757e-23 4.72518e-23 1.33728e-24 6.86803e-23 0 0.442563 0.440731 0.441037 0.440993 0.437442 0.428854 0.413834 0.387265 0.343225 0.274798 0.178623 0.0790422 0.0215165 0.00301781 0.000173611 2.94395e-06 2.61579e-08 2.2981e-10 1.62562e-12 6.3496e-15 2.08892e-14 -5.04475e-18 -2.142e-18 2.06902e-14 -2.06889e-14 -4.13781e-14 -4.18109e-19 2.06887e-14 2.06887e-14 -7.6334e-18 0 0.442448 0.438359 0.43208 0.422444 0.407457 0.383923 0.34718 0.29329 0.217639 0.125443 0.0491989 0.0120405 0.00154679 8.60622e-05 1.6103e-06 1.97984e-08 2.30887e-10 2.17898e-12 2.04745e-14 -1.44053e-14 -1.76139e-14 -1.55966e-17 -1.55871e-17 -2.06955e-14 -7.14542e-18 4.13781e-14 2.06896e-14 -5.67314e-14 -5.67314e-14 2.06966e-14 0 0.378317 0.37234 0.359273 0.338481 0.307794 0.264203 0.205123 0.132963 0.0642171 0.0213502 0.0043634 0.00047811 2.32734e-05 4.64879e-07 8.46167e-09 1.25055e-10 1.64791e-12 2.06191e-14 -1.74171e-14 2.47451e-16 -3.57927e-14 -3.57928e-14 2.37514e-16 -1.20996e-17 5.04057e-18 -4.13803e-14 -2.06896e-14 5.67313e-14 3.60385e-14 -4.13973e-14 0 0.231802 0.224979 0.206764 0.177722 0.138653 0.0924967 0.0486738 0.0190413 0.00500344 0.00080238 6.98609e-05 2.83624e-06 7.19004e-08 1.95042e-09 3.62531e-11 7.01002e-13 6.18104e-15 -2.05932e-14 2.27456e-16 3.2498e-18 3.58062e-14 3.58021e-14 -2.28468e-16 1.62042e-17 -9.62161e-19 4.13803e-14 4.18149e-19 -2.06886e-14 4.21358e-18 2.07084e-14 0 0.0576451 0.0536958 0.0432259 0.029523 0.0163131 0.00685022 0.00204228 0.000405276 4.91017e-05 3.30475e-06 1.43468e-07 6.33876e-09 2.13061e-10 5.77419e-12 1.54078e-13 -1.1581e-14 -1.4299e-14 2.38014e-14 -3.6268e-14 -3.6281e-14 -1.3247e-17 -9.32358e-18 2.06979e-14 -1.31907e-18 -1.09503e-21 2.54319e-21 3.85547e-23 -4.63621e-19 2.06894e-14 2.06891e-14 0 0.00156104 0.00135596 0.000884074 0.000424651 0.000145698 3.43767e-05 5.36297e-06 5.652e-07 4.94839e-08 4.03939e-09 2.38503e-10 1.09503e-11 4.74466e-13 -2.15496e-15 2.83049e-16 1.75908e-14 -3.2485e-18 -4.13995e-14 3.62681e-14 3.62769e-14 8.95902e-18 2.24373e-17 -4.13886e-14 2.27044e-16 2.38299e-16 -4.13804e-14 7.274e-19 2.06902e-14 -2.06894e-14 -2.06892e-14 0 6.86733e-07 5.72244e-07 3.35084e-07 1.42958e-07 4.68653e-08 1.22184e-08 2.46227e-09 3.5838e-10 3.87197e-11 3.68311e-12 2.92913e-13 1.39471e-14 1.80212e-14 1.74006e-14 -3.11813e-15 -2.06981e-14 4.5491e-19 4.13997e-14 -2.37705e-16 -2.46751e-16 2.06979e-14 -1.92896e-17 2.0686e-14 -2.42013e-16 -2.54626e-16 4.13796e-14 2.06875e-14 -2.06921e-14 -2.06957e-14 -4.05394e-18 0 6.45078e-11 5.75206e-11 4.05129e-11 2.22701e-11 9.52054e-12 3.19043e-12 8.33589e-13 1.69478e-13 2.88353e-14 -6.85573e-16 3.333e-15 3.14114e-15 -2.07108e-14 -1.75772e-14 -1.44756e-14 3.10421e-15 2.06914e-14 -2.06954e-14 1.2409e-17 1.65134e-17 -4.13828e-14 2.50839e-16 2.33098e-16 8.45822e-20 1.71587e-17 -4.13759e-14 -4.13921e-14 2.21839e-16 4.16216e-14 -3.60539e-14 0 8.44764e-15 7.88249e-15 2.46135e-15 2.94257e-15 4.43493e-15 -2.60271e-15 -2.97707e-15 3.10196e-15 3.18077e-15 -5.09187e-19 -3.09382e-15 -3.06141e-15 2.07203e-14 -4.16685e-18 -1.28406e-18 2.06902e-14 -2.06903e-14 5.72859e-18 3.43121e-18 -6.99476e-19 4.13827e-14 -2.38299e-16 -2.21916e-16 1.55588e-17 -8.3079e-19 4.13767e-14 4.13919e-14 -3.62635e-14 -5.69714e-14 5.67446e-14 0 -1.22133e-23 -4.88522e-24 5.79059e-22 -7.59568e-20 2.17745e-17 2.1851e-17 2.25276e-17 2.22518e-17 4.6421e-19 7.39882e-19 -4.88274e-23 -2.29373e-17 -2.31782e-17 1.8283e-18 1.34194e-18 -7.53672e-19 -2.61878e-20 8.31442e-21 2.20941e-18 2.20114e-18 -2.59949e-21 2.33365e-18 1.46119e-18 5.13299e-18 6.03422e-18 -4.18079e-19 2.66593e-19 -6.59558e-18 -5.25427e-18 8.03252e-19 0 -1.78946e-15 -1.78946e-15 2.14101e-15 2.51039e-18 -5.68766e-20 3.03321e-15 3.09368e-15 -1.75967e-14 -1.75967e-14 3.09379e-15 -2.26239e-17 2.833e-16 1.06054e-17 2.03933e-14 -2.86145e-19 -4.13781e-14 -4.18109e-19 2.06887e-14 2.06887e-14 -4.18109e-19 -4.13781e-14 7.27416e-19 2.06906e-14 -2.14238e-17 -2.34296e-17 -1.16304e-18 -5.6758e-14 4.58757e-16 4.5903e-16 -5.67565e-14 0 1.78946e-15 1.78946e-15 9.23716e-16 7.26542e-18 -3.05489e-15 6.05816e-17 -1.75966e-14 -4.45011e-23 -8.18216e-18 -1.76048e-14 6.21014e-15 3.91777e-15 -5.22037e-14 -5.30045e-14 2.06896e-14 4.13781e-14 2.06896e-14 -5.67314e-14 -5.67314e-14 2.06895e-14 4.13777e-14 2.06879e-14 -2.06922e-14 2.54239e-16 -3.57852e-14 -1.1347e-13 4.9705e-16 4.44732e-17 4.42004e-17 5.20837e-16 0 -1.00569e-15 -1.29552e-15 -3.84869e-15 -3.03429e-15 2.17196e-17 -3.09356e-15 1.75968e-14 2.32322e-23 8.19567e-18 1.21621e-17 -2.378e-14 -3.87712e-15 5.22155e-14 5.29985e-14 -2.06896e-14 -4.13781e-14 -2.06896e-14 5.67313e-14 3.60385e-14 -4.13824e-14 -2.06878e-14 -2.06878e-14 -2.06909e-14 -2.41005e-16 5.64903e-14 1.13468e-13 -4.96777e-16 -4.42002e-17 -4.44632e-17 -5.211e-16 0 1.33479e-10 6.67405e-11 8.40372e-16 3.05601e-15 3.03317e-15 -2.3206e-19 -3.09386e-15 1.75967e-14 1.75869e-14 1.44746e-14 2.06717e-14 -1.48045e-14 -1.75963e-14 -2.03931e-14 -5.24053e-18 4.13796e-14 -5.24054e-18 -2.06944e-14 -9.45431e-18 2.06797e-14 2.0689e-14 2.06889e-14 4.13838e-14 -3.60499e-14 -5.67407e-14 3.30886e-18 5.6759e-14 -4.32437e-16 -4.32174e-16 5.6758e-14 0 1.58798e-05 0 0 0 0 0 0 0 0 0 0 0 0 0 0 0 0 0 0 0 0 0 0 0 0 0 0 0 0 0 0
				</DataArray>
			</PointData>
			<CellData Scalars="Density">