<?xml version="1.0"?>
<VTKFile type="PolyData">
	<PolyData>
		<Piece NumberOfPoints="961" NumberOfPolys="900">
			<Points>
				<DataArray type="Float32" NumberOfComponents="3" format="ascii">
 0 0 0 0.04 0 0 0.08 0 0 0.12 0 0 0.16 0 0 0.2 0 0 0.24 0 0 0.28 0 0 0.32 0 0 0.36 0 0 0.4 0 0 0.44 0 0 0.48 0 0 0.52 0 0 0.56 0 0 0.6 0 0 0.64 0 0 0.68 0 0 0.72 0 0 0.76 0 0 0.8 0 0 0.84 0 0 0.88 0 0 0.92 0 0 0.96 0 0 1 0 0 1.04 0 0 1.08 0 0 1.12 0 0 1.16 0 0 1.2 0 0 0 0.04 0 0.04 0.04 0 0.08 0.04 0 0.12 0.04 0 0.16 0.04 0 0.2 0.04 0 0.24 0.04 0 0.28 0.04 0 0.32 0.04 0 0.36 0.04 0 0.4 0.04 0 0.44 0.04 0 0.48 0.04 0 0.52 0.04 0 0.56 0.04 0 0.6 0.04 0 0.64 0.04 0 0.68 0.04 0 0.72 0.04 0 0.76 0.04 0 0.8 0.04 0 0.84 0.04 0 0.88 0.04 0 0.92 0.04 0 0.96 0.04 0 1 0.04 0 1.04 0.04 0 1.08 0.04 0 1.12 0.04 0 1.16 0.04 0 1.2 0.04 0 0 0.08 0 0.04 0.08 0 0.08 0.08 0 0.12 0.08 0 0.16 0.08 0 0.2 0.08 0 0.24 0.08 0 0.28 0.08 0 0.32 0.08 0 0.36 0.08 0 0.4 0.08 0 0.44 0.08 0 0.48 0.08 0 0.52 0.08 0 0.56 0.08 0 0.6 0.08 0 0.64 0.08 0 0.68 0.08 0 0.72 0.08 0 0.76 0.08 0 0.8 0.08 0 0.84 0.08 0 0.88 0.08 0 0.92 0.08 0 0.96 0.08 0 1 0.08 0 1.04 0.08 0 1.08 0.08 0 1.12 0.08 0 1.16 0.08 0 1.2 0.08 0 0 0.12 0 0.04 0.12 0 0.08 0.12 0 0.12 0.12 0 0.16 0.12 0 0.2 0.12 0 0.24 0.12 0 0.28 0.12 0 0.32 0.12 0 0.36 0.12 0 0.4 0.12 0 0.44 0.12 0 0.48 0.12 0 0.52 0.12 0 0.56 0.12 0 0.6 0.12 0 0.64 0.12 0 0.68 0.12 0 0.72 0.12 0 0.76 0.12 0 0.8 0.12 0 0.84 0.12 0 0.88 0.12 0 0.92 0.12 0 0.96 0.12 0 1 0.12 0 1.04 0.12 0 1.08 0.12 0 1.12 0.12 0 1.16 0.12 0 1.2 0.12 0 0 0.16 0 0.04 0.16 0 0.08 0.16 0 0.12 0.16 0 0.16 0.16 0 0.2 0.16 0 0.24 0.16 0 0.28 0.16 0 0.32 0.16 0 0.36 0.16 0 0.4 0.16 0 0.44 0.16 0 0.48 0.16 0 0.52 0.16 0 0.56 0.16 0 0.6 0.16 0 0.64 0.16 0 0.68 0.16 0 0.72 0.16 0 0.76 0.16 0 0.8 0.16 0 0.84 0.16 0 0.88 0.16 0 0.92 0.16 0 0.96 0.16 0 1 0.16 0 1.04 0.16 0 1.08 0.16 0 1.12 0.16 0 1.16 0.16 0 1.2 0.16 0 0 0.2 0 0.04 0.2 0 0.08 0.2 0 0.12 0.2 0 0.16 0.2 0 0.2 0.2 0 0.24 0.2 0 0.28 0.2 0 0.32 0.2 0 0.36 0.2 0 0.4 0.2 0 0.44 0.2 0 0.48 0.2 0 0.52 0.2 0 0.56 0.2 0 0.6 0.2 0 0.64 0.2 0 0.68 0.2 0 0.72 0.2 0 0.76 0.2 0 0.8 0.2 0 0.84 0.2 0 0.88 0.2 0 0.92 0.2 0 0.96 0.2 0 1 0.2 0 1.04 0.2 0 1.08 0.2 0 1.12 0.2 0 1.16 0.2 0 1.2 0.2 0 0 0.24 0 0.04 0.24 0 0.08 0.24 0 0.12 0.24 0 0.16 0.24 0 0.2 0.24 0 0.24 0.24 0 0.28 0.24 0 0.32 0.24 0 0.36 0.24 0 0.4 0.24 0 0.44 0.24 0 0.48 0.24 0 0.52 0.24 0 0.56 0.24 0 0.6 0.24 0 0.64 0.24 0 0.68 0.24 0 0.72 0.24 0 0.76 0.24 0 0.8 0.24 0 0.84 0.24 0 0.88 0.24 0 0.92 0.24 0 0.96 0.24 0 1 0.24 0 1.04 0.24 0 1.08 0.24 0 1.12 0.24 0 1.16 0.24 0 1.2 0.24 0 0 0.28 0 0.04 0.28 0 0.08 0.28 0 0.12 0.28 0 0.16 0.28 0 0.2 0.28 0 0.24 0.28 0 0.28 0.28 0 0.32 0.28 0 0.36 0.28 0 0.4 0.28 0 0.44 0.28 0 0.48 0.28 0 0.52 0.28 0 0.56 0.28 0 0.6 0.28 0 0.64 0.28 0 0.68 0.28 0 0.72 0.28 0 0.76 0.28 0 0.8 0.28 0 0.84 0.28 0 0.88 0.28 0 0.92 0.28 0 0.96 0.28 0 1 0.28 0 1.04 0.28 0 1.08 0.28 0 1.12 0.28 0 1.16 0.28 0 1.2 0.28 0 0 0.32 0 0.04 0.32 0 0.08 0.32 0 0.12 0.32 0 0.16 0.32 0 0.2 0.32 0 0.24 0.32 0 0.28 0.32 0 0.32 0.32 0 0.36 0.32 0 0.4 0.32 0 0.44 0.32 0 0.48 0.32 0 0.52 0.32 0 0.56 0.32 0 0.6 0.32 0 0.64 0.32 0 0.68 0.32 0 0.72 0.32 0 0.76 0.32 0 0.8 0.32 0 0.84 0.32 0 0.88 0.32 0 0.92 0.32 0 0.96 0.32 0 1 0.32 0 1.04 0.32 0 1.08 0.32 0 1.12 0.32 0 1.16 0.32 0 1.2 0.32 0 0 0.36 0 0.04 0.36 0 0.08 0.36 0 0.12 0.36 0 0.16 0.36 0 0.2 0.36 0 0.24 0.36 0 0.28 0.36 0 0.32 0.36 0 0.36 0.36 0 0.4 0.36 0 0.44 0.36 0 0.48 0.36 0 0.52 0.36 0 0.56 0.36 0 0.6 0.36 0 0.64 0.36 0 0.68 0.36 0 0.72 0.36 0 0.76 0.36 0 0.8 0.36 0 0.84 0.36 0 0.88 0.36 0 0.92 0.36 0 0.96 0.36 0 1 0.36 0 1.04 0.36 0 1.08 0.36 0 1.12 0.36 0 1.16 0.36 0 1.2 0.36 0 0 0.4 0 0.04 0.4 0 0.08 0.4 0 0.12 0.4 0 0.16 0.4 0 0.2 0.4 0 0.24 0.4 0 0.28 0.4 0 0.32 0.4 0 0.36 0.4 0 0.4 0.4 0 0.44 0.4 0 0.48 0.4 0 0.52 0.4 0 0.56 0.4 0 0.6 0.4 0 0.64 0.4 0 0.68 0.4 0 0.72 0.4 0 0.76 0.4 0 0.8 0.4 0 0.84 0.4 0 0.88 0.4 0 0.92 0.4 0 0.96 0.4 0 1 0.4 0 1.04 0.4 0 1.08 0.4 0 1.12 0.4 0 1.16 0.4 0 1.2 0.4 0 0 0.44 0 0.04 0.44 0 0.08 0.44 0 0.12 0.44 0 0.16 0.44 0 0.2 0.44 0 0.24 0.44 0 0.28 0.44 0 0.32 0.44 0 0.36 0.44 0 0.4 0.44 0 0.44 0.44 0 0.48 0.44 0 0.52 0.44 0 0.56 0.44 0 0.6 0.44 0 0.64 0.44 0 0.68 0.44 0 0.72 0.44 0 0.76 0.44 0 0.8 0.44 0 0.84 0.44 0 0.88 0.44 0 0.92 0.44 0 0.96 0.44 0 1 0.44 0 1.04 0.44 0 1.08 0.44 0 1.12 0.44 0 1.16 0.44 0 1.2 0.44 0 0 0.48 0 0.04 0.48 0 0.08 0.48 0 0.12 0.48 0 0.16 0.48 0 0.2 0.48 0 0.24 0.48 0 0.28 0.48 0 0.32 0.48 0 0.36 0.48 0 0.4 0.48 0 0.44 0.48 0 0.48 0.48 0 0.52 0.48 0 0.56 0.48 0 0.6 0.48 0 0.64 0.48 0 0.68 0.48 0 0.72 0.48 0 0.76 0.48 0 0.8 0.48 0 0.84 0.48 0 0.88 0.48 0 0.92 0.48 0 0.96 0.48 0 1 0.48 0 1.04 0.48 0 1.08 0.48 0 1.12 0.48 0 1.16 0.48 0 1.2 0.48 0 0 0.52 0 0.04 0.52 0 0.08 0.52 0 0.12 0.52 0 0.16 0.52 0 0.2 0.52 0 0.24 0.52 0 0.28 0.52 0 0.32 0.52 0 0.36 0.52 0 0.4 0.52 0 0.44 0.52 0 0.48 0.52 0 0.52 0.52 0 0.56 0.52 0 0.6 0.52 0 0.64 0.52 0 0.68 0.52 0 0.72 0.52 0 0.76 0.52 0 0.8 0.52 0 0.84 0.52 0 0.88 0.52 0 0.92 0.52 0 0.96 0.52 0 1 0.52 0 1.04 0.52 0 1.08 0.52 0 1.12 0.52 0 1.16 0.52 0 1.2 0.52 0 0 0.56 0 0.04 0.56 0 0.08 0.56 0 0.12 0.56 0 0.16 0.56 0 0.2 0.56 0 0.24 0.56 0 0.28 0.56 0 0.32 0.56 0 0.36 0.56 0 0.4 0.56 0 0.44 0.56 0 0.48 0.56 0 0.52 0.56 0 0.56 0.56 0 0.6 0.56 0 0.64 0.56 0 0.68 0.56 0 0.72 0.56 0 0.76 0.56 0 0.8 0.56 0 0.84 0.56 0 0.88 0.56 0 0.92 0.56 0 0.96 0.56 0 1 0.56 0 1.04 0.56 0 1.08 0.56 0 1.12 0.56 0 1.16 0.56 0 1.2 0.56 0 0 0.6 0 0.04 0.6 0 0.08 0.6 0 0.12 0.6 0 0.16 0.6 0 0.2 0.6 0 0.24 0.6 0 0.28 0.6 0 0.32 0.6 0 0.36 0.6 0 0.4 0.6 0 0.44 0.6 0 0.48 0.6 0 0.52 0.6 0 0.56 0.6 0 0.6 0.6 0 0.64 0.6 0 0.68 0.6 0 0.72 0.6 0 0.76 0.6 0 0.8 0.6 0 0.84 0.6 0 0.88 0.6 0 0.92 0.6 0 0.96 0.6 0 1 0.6 0 1.04 0.6 0 1.08 0.6 0 1.12 0.6 0 1.16 0.6 0 1.2 0.6 0 0 0.64 0 0.04 0.64 0 0.08 0.64 0 0.12 0.64 0 0.16 0.64 0 0.2 0.64 0 0.24 0.64 0 0.28 0.64 0 0.32 0.64 0 0.36 0.64 0 0.4 0.64 0 0.44 0.64 0 0.48 0.64 0 0.52 0.64 0 0.56 0.64 0 0.6 0.64 0 0.64 0.64 0 0.68 0.64 0 0.72 0.64 0 0.76 0.64 0 0.8 0.64 0 0.84 0.64 0 0.88 0.64 0 0.92 0.64 0 0.96 0.64 0 1 0.64 0 1.04 0.64 0 1.08 0.64 0 1.12 0.64 0 1.16 0.64 0 1.2 0.64 0 0 0.68 0 0.04 0.68 0 0.08 0.68 0 0.12 0.68 0 0.16 0.68 0 0.2 0.68 0 0.24 0.68 0 0.28 0.68 0 0.32 0.68 0 0.36 0.68 0 0.4 0.68 0 0.44 0.68 0 0.48 0.68 0 0.52 0.68 0 0.56 0.68 0 0.6 0.68 0 0.64 0.68 0 0.68 0.68 0 0.72 0.68 0 0.76 0.68 0 0.8 0.68 0 0.84 0.68 0 0.88 0.68 0 0.92 0.68 0 0.96 0.68 0 1 0.68 0 1.04 0.68 0 1.08 0.68 0 1.12 0.68 0 1.16 0.68 0 1.2 0.68 0 0 0.72 0 0.04 0.72 0 0.08 0.72 0 0.12 0.72 0 0.16 0.72 0 0.2 0.72 0 0.24 0.72 0 0.28 0.72 0 0.32 0.72 0 0.36 0.72 0 0.4 0.72 0 0.44 0.72 0 0.48 0.72 0 0.52 0.72 0 0.56 0.72 0 0.6 0.72 0 0.64 0.72 0 0.68 0.72 0 0.72 0.72 0 0.76 0.72 0 0.8 0.72 0 0.84 0.72 0 0.88 0.72 0 0.92 0.72 0 0.96 0.72 0 1 0.72 0 1.04 0.72 0 1.08 0.72 0 1.12 0.72 0 1.16 0.72 0 1.2 0.72 0 0 0.76 0 0.04 0.76 0 0.08 0.76 0 0.12 0.76 0 0.16 0.76 0 0.2 0.76 0 0.24 0.76 0 0.28 0.76 0 0.32 0.76 0 0.36 0.76 0 0.4 0.76 0 0.44 0.76 0 0.48 0.76 0 0.52 0.76 0 0.56 0.76 0 0.6 0.76 0 0.64 0.76 0 0.68 0.76 0 0.72 0.76 0 0.76 0.76 0 0.8 0.76 0 0.84 0.76 0 0.88 0.76 0 0.92 0.76 0 0.96 0.76 0 1 0.76 0 1.04 0.76 0 1.08 0.76 0 1.12 0.76 0 1.16 0.76 0 1.2 0.76 0 0 0.8 0 0.04 0.8 0 0.08 0.8 0 0.12 0.8 0 0.16 0.8 0 0.2 0.8 0 0.24 0.8 0 0.28 0.8 0 0.32 0.8 0 0.36 0.8 0 0.4 0.8 0 0.44 0.8 0 0.48 0.8 0 0.52 0.8 0 0.56 0.8 0 0.6 0.8 0 0.64 0.8 0 0.68 0.8 0 0.72 0.8 0 0.76 0.8 0 0.8 0.8 0 0.84 0.8 0 0.88 0.8 0 0.92 0.8 0 0.96 0.8 0 1 0.8 0 1.04 0.8 0 1.08 0.8 0 1.12 0.8 0 1.16 0.8 0 1.2 0.8 0 0 0.84 0 0.04 0.84 0 0.08 0.84 0 0.12 0.84 0 0.16 0.84 0 0.2 0.84 0 0.24 0.84 0 0.28 0.84 0 0.32 0.84 0 0.36 0.84 0 0.4 0.84 0 0.44 0.84 0 0.48 0.84 0 0.52 0.84 0 0.56 0.84 0 0.6 0.84 0 0.64 0.84 0 0.68 0.84 0 0.72 0.84 0 0.76 0.84 0 0.8 0.84 0 0.84 0.84 0 0.88 0.84 0 0.92 0.84 0 0.96 0.84 0 1 0.84 0 1.04 0.84 0 1.08 0.84 0 1.12 0.84 0 1.16 0.84 0 1.2 0.84 0 0 0.88 0 0.04 0.88 0 0.08 0.88 0 0.12 0.88 0 0.16 0.88 0 0.2 0.88 0 0.24 0.88 0 0.28 0.88 0 0.32 0.88 0 0.36 0.88 0 0.4 0.88 0 0.44 0.88 0 0.48 0.88 0 0.52 0.88 0 0.56 0.88 0 0.6 0.88 0 0.64 0.88 0 0.68 0.88 0 0.72 0.88 0 0.76 0.88 0 0.8 0.88 0 0.84 0.88 0 0.88 0.88 0 0.92 0.88 0 0.96 0.88 0 1 0.88 0 1.04 0.88 0 1.08 0.88 0 1.12 0.88 0 1.16 0.88 0 1.2 0.88 0 0 0.92 0 0.04 0.92 0 0.08 0.92 0 0.12 0.92 0 0.16 0.92 0 0.2 0.92 0 0.24 0.92 0 0.28 0.92 0 0.32 0.92 0 0.36 0.92 0 0.4 0.92 0 0.44 0.92 0 0.48 0.92 0 0.52 0.92 0 0.56 0.92 0 0.6 0.92 0 0.64 0.92 0 0.68 0.92 0 0.72 0.92 0 0.76 0.92 0 0.8 0.92 0 0.84 0.92 0 0.88 0.92 0 0.92 0.92 0 0.96 0.92 0 1 0.92 0 1.04 0.92 0 1.08 0.92 0 1.12 0.92 0 1.16 0.92 0 1.2 0.92 0 0 0.96 0 0.04 0.96 0 0.08 0.96 0 0.12 0.96 0 0.16 0.96 0 0.2 0.96 0 0.24 0.96 0 0.28 0.96 0 0.32 0.96 0 0.36 0.96 0 0.4 0.96 0 0.44 0.96 0 0.48 0.96 0 0.52 0.96 0 0.56 0.96 0 0.6 0.96 0 0.64 0.96 0 0.68 0.96 0 0.72 0.96 0 0.76 0.96 0 0.8 0.96 0 0.84 0.96 0 0.88 0.96 0 0.92 0.96 0 0.96 0.96 0 1 0.96 0 1.04 0.96 0 1.08 0.96 0 1.12 0.96 0 1.16 0.96 0 1.2 0.96 0 0 1 0 0.04 1 0 0.08 1 0 0.12 1 0 0.16 1 0 0.2 1 0 0.24 1 0 0.28 1 0 0.32 1 0 0.36 1 0 0.4 1 0 0.44 1 0 0.48 1 0 0.52 1 0 0.56 1 0 0.6 1 0 0.64 1 0 0.68 1 0 0.72 1 0 0.76 1 0 0.8 1 0 0.84 1 0 0.88 1 0 0.92 1 0 0.96 1 0 1 1 0 1.04 1 0 1.08 1 0 1.12 1 0 1.16 1 0 1.2 1 0 0 1.04 0 0.04 1.04 0 0.08 1.04 0 0.12 1.04 0 0.16 1.04 0 0.2 1.04 0 0.24 1.04 0 0.28 1.04 0 0.32 1.04 0 0.36 1.04 0 0.4 1.04 0 0.44 1.04 0 0.48 1.04 0 0.52 1.04 0 0.56 1.04 0 0.6 1.04 0 0.64 1.04 0 0.68 1.04 0 0.72 1.04 0 0.76 1.04 0 0.8 1.04 0 0.84 1.04 0 0.88 1.04 0 0.92 1.04 0 0.96 1.04 0 1 1.04 0 1.04 1.04 0 1.08 1.04 0 1.12 1.04 0 1.16 1.04 0 1.2 1.04 0 0 1.08 0 0.04 1.08 0 0.08 1.08 0 0.12 1.08 0 0.16 1.08 0 0.2 1.08 0 0.24 1.08 0 0.28 1.08 0 0.32 1.08 0 0.36 1.08 0 0.4 1.08 0 0.44 1.08 0 0.48 1.08 0 0.52 1.08 0 0.56 1.08 0 0.6 1.08 0 0.64 1.08 0 0.68 1.08 0 0.72 1.08 0 0.76 1.08 0 0.8 1.08 0 0.84 1.08 0 0.88 1.08 0 0.92 1.08 0 0.96 1.08 0 1 1.08 0 1.04 1.08 0 1.08 1.08 0 1.12 1.08 0 1.16 1.08 0 1.2 1.08 0 0 1.12 0 
[...]
			<PointData Scalars="VitesseX">
				<DataArray Name="VitesseX" type="Float32" format="ascii">
 0 0.00126187 -0.0287647 -0.0218805 0.0199297 0.0458776 0.0691922 0.099165 0.120987 0.14541 0.167872 0.190067 0.212788 0.235986 0.258806 0.284945 0.308633 0.345596 0.39891 0.389206 0.325246 0.190878 0.0420057 0.000890918 3.07593e-07 3.48985e-11 2.0473e-15 2.06913e-15 -7.07685e-15 7.07688e-15 0 0 0.0481712 0.0503664 0.0472577 0.0601893 0.0768782 0.0880313 0.113889 0.131783 0.152555 0.172826 0.19328 0.21464 0.23676 0.258779 0.284355 0.307417 0.345295 0.396978 0.385817 0.320512 0.185533 0.0392429 0.000779019 2.61725e-07 3.14023e-11 1.71527e-15 2.06915e-15 -7.07532e-15 7.07526e-15 0 0 0.0461407 0.066741 0.084089 0.0946799 0.108118 0.109762 0.129572 0.142822 0.159547 0.177509 0.196688 0.217168 0.23879 0.260534 0.28583 0.307923 0.349227 0.395717 0.380335 0.309863 0.171026 0.0319285 0.000518402 1.63169e-07 2.27823e-11 5.41474e-15 1.07518e-15 -7.09814e-15 3.58924e-15 0 0 0.0365559 0.0535403 0.0802683 0.104861 0.113685 0.124372 0.139472 0.152102 0.167318 0.183122 0.201301 0.220951 0.241924 0.263529 0.288147 0.309574 0.357034 0.393653 0.372166 0.292904 0.148056 0.0222331 0.000258224 7.69886e-08 1.3225e-11 1.79716e-15 1.75039e-17 -3.53887e-15 3.5773e-15 0 0 0.0204808 0.0446741 0.0727478 0.0999799 0.110425 0.131029 0.143983 0.160514 0.175079 0.190077 0.207417 0.226333 0.246266 0.268013 0.291237 0.31328 0.36738 0.3897 0.35983 0.268057 0.117306 0.0127261 9.37419e-05 2.85368e-08 6.12024e-12 9.26719e-16 -3.53193e-15 2.23766e-17 3.52488e-15 0 0 0.0144528 0.0395245 0.0649512 0.0915416 0.110284 0.130599 0.145763 0.166146 0.180821 0.197501 0.214314 0.233042 0.251649 0.274089 0.294725 0.320375 0.376967 0.382701 0.340858 0.233329 0.0809398 0.00566746 2.40471e-05 8.40586e-09 2.2534e-12 3.95753e-15 8.48228e-17 -3.59342e-15 -3.7321e-19 0 0 0.0147767 0.0377774 0.0641379 0.0891426 0.109552 0.128302 0.149 0.168141 0.18511 0.202851 0.22089 0.239085 0.257421 0.28015 0.297929 0.333336 0.380885 0.371184 0.312089 0.18699 0.0454461 0.00184726 4.24953e-06 1.90938e-09 6.5184e-13 3.72052e-15 -2.02686e-14 2.02688e-14 -3.59384e-15 0 0 0.0148457 0.0380362 0.0640249 0.0870982 0.108535 0.12955 0.150496 0.169082 0.18776 0.206339 0.225754 0.242813 0.26375 0.283661 0.302296 0.352111 0.376081 0.351381 0.270877 0.129643 0.0197025 0.000416892 5.3649e-07 3.21778e-10 1.44517e-13 -2.02466e-14 -1.45925e-23 1.45925e-23 2.02688e-14 0 0 0.0163391 0.0377651 0.0614588 0.0857393 0.108512 0.129811 0.150235 0.169584 0.188711 0.209017 0.227253 0.24613 0.268386 0.284458 0.313205 0.363411 0.362882 0.319249 0.213399 0.070502 0.00600599 6.06778e-05 5.77001e-08 4.20587e-11 2.42048e-14 -2.02686e-14 -8.76456e-18 8.81158e-18 2.02457e-14 0 0 0.0172483 0.0374233 0.0596681 0.0836184 0.106526 0.128313 0.149086 0.168901 0.189413 0.208939 0.227594 0.250254 0.26831 0.286877 0.334743 0.359193 0.339474 0.269666 0.13963 0.0276324 0.00118152 5.24422e-06 5.75925e-09 4.86032e-12 3.02596e-15 3.5941e-15 -2.02774e-14 1.33661e-17 1.66254e-14 0 0 0.0175319 0.0368929 0.0578927 0.0803785 0.103134 0.125393 0.146737 0.167867 0.187981 0.207333 0.22991 0.250224 0.266718 0.301853 0.344225 0.341535 0.299105 0.198293 0.0665126 0.00715149 0.000137335 2.91741e-07 4.33239e-10 4.77327e-13 3.39229e-16 -2.97076e-17 7.21701e-15 -2.74511e-14 2.38356e-14 0 0 0.0177869 0.0366804 0.0566482 0.0777132 0.0995121 0.121647 0.143633 0.164535 0.185264 0.208195 0.229632 0.246834 0.274983 0.322299 0.332937 0.308563 0.234866 0.110065 0.0211093 0.00108268 8.24898e-06 1.56575e-08 2.48916e-11 3.11235e-14 -3.78586e-17 7.52195e-16 1.36769e-15 -1.3195e-15 -1.74361e-14 0 0 0.0178343 0.0365235 0.0558955 0.0759632 0.0968695 0.118391 0.14005 0.162259 0.185418 0.206988 0.225759 0.252567 0.298063 0.317477 0.304488 0.251219 0.144465 0.0401004 0.00395612 8.4468e-05 2.75091e-07 7.23535e-10 1.37553e-12 2.55763e-14 -3.99378e-17 2.37867e-17 -5.80448e-14 5.80573e-14 -2.02647e-14 0 0 0.017801 0.0363167 0.0553194 0.0749689 0.0954776 0.116949 0.139285 0.161898 0.183205 0.204082 0.232723 0.275092 0.297221 0.291597 0.251996 0.163441 0.057659 0.00871554 0.000374485 2.83963e-06 9.24302e-09 2.44249e-11 4.03032e-14 -2.0099e-17 2.44207e-18 2.31001e-14 -5.57883e-14 5.57826e-14 -2.31012e-14 0 0 0.0178478 0.0363258 0.055332 0.0750594 0.0956469 0.117014 0.138564 0.160061 0.1836 0.215745 0.253318 0.274181 0.272178 0.24096 0.166719 0.0682722 0.0135585 0.000927377 1.44314e-05 6.01466e-08 2.49752e-10 8.40528e-13 -1.50231e-14 -1.30763e-18 1.55144e-18 -1.05152e-18 2.38605e-14 -2.38605e-14 -5.22352e-18 0 0 0.018131 0.0367432 0.0558864 0.0755983 0.0958937 0.117002 0.139861 0.167124 0.201068 0.230721 0.24893 0.247377 0.220623 0.156542 0.0694099 0.0162757 0.00150332 3.86469e-05 2.34714e-07 1.35896e-09 5.67062e-12 -2.02538e-15 3.61822e-15 2.38614e-14 -1.08411e-18 -4.77194e-14 4.77193e-14 -4.77193e-14 4.77219e-14 0 0 0.0183488 0.0373012 0.0570513 0.0778192 0.100322 0.125982 0.15488 0.182763 0.206152 0.220433 0.217609 0.192341 0.13535 0.0614831 0.0157316 0.00173077 6.10867e-05 5.37168e-07 3.9645e-09 2.16497e-11 1.18369e-13 8.88249e-16 2.38633e-14 -2.38618e-14 3.38839e-20 -7.91689e-19 2.38605e-14 -2.38605e-14 -5.22472e-18 0 0 0.0202283 0.0416486 0.0643063 0.0880507 0.112446 0.136557 0.15933 0.178692 0.187673 0.182484 0.156758 0.10583 0.0471213 0.0123064 0.00145508 6.07293e-05 7.05724e-07 6.64339e-09 4.88901e-11 3.91521e-13 -4.61842e-14 4.76968e-14 -2.3867e-14 6.12238e-18 -1.19085e-20 2.3859e-14 -6.5228e-14 6.5228e-14 -2.3865e-14 0 0 0.0228885 0.0457629 0.0682931 0.0906644 0.112329 0.131502 0.145272 0.149701 0.141347 0.114996 0.072015 0.0303652 0.00754149 0.000875889 3.80171e-05 5.31735e-07 6.61239e-09 6.40332e-11 6.20931e-13 -3.7722e-14 4.16824e-14 -3.33241e-16 1.79527e-17 3.3438e-18 2.39822e-18 2.3859e-14 -6.52281e-14 4.1364e-14 -9.2068e-18 0 0 0.0225661 0.0442048 0.0643674 0.082588 0.0972921 0.106051 0.106179 0.0948397 0.0708619 0.0399552 0.0152962 0.00334339 0.00034997 1.40734e-05 2.29487e-07 3.90967e-09 4.83772e-11 6.1998e-13 4.42129e-15 -4.16908e-14 4.16967e-14 -3.45078e-16 2.24346e-17 -1.10415e-18 2.41013e-18 -7.91689e-19 2.38605e-14 -4.77245e-14 2.38506e-14 0 0 0.0188257 0.0354885 0.0492518 0.0589959 0.0630112 0.0599377 0.0493638 0.0330317 0.0163079 0.00521033 0.000921184 7.9098e-05 2.73743e-06 5.79391e-08 1.32703e-09 2.12001e-11 3.38777e-13 -3.709e-14 4.10438e-14 -1.53398e-17 1.16666e-17 2.38715e-14 -4.77252e-14 4.77251e-14 -1.08662e-20 -4.77194e-14 4.77184e-14 -2.38572e-14 2.38595e-14 0 0 0.0106125 0.0188101 0.0238305 0.0251205 0.0226717 0.0169414 0.00966451 0.00378238 0.000904509 0.000120546 7.72353e-06 2.58318e-07 8.79853e-09 2.40248e-10 5.43564e-12 1.17189e-13 1.45657e-15 -4.10219e-14 4.10313e-14 -1.24105e-17 2.86193e-17 -2.1321e-17 3.47763e-16 -3.34239e-16 2.93126e-18 1.11798e-18 2.38576e-14 -2.38573e-14 2.38594e-14 0 0 0.00268341 0.00445185 0.00487735 0.00404734 0.00247743 0.00105072 0.000292967 4.98457e-05 4.67176e-06 2.62299e-07 1.4299e-08 6.78763e-10 2.28887e-11 8.01808e-13 3.31721e-15 9.88104e-16 -7.1902e-17 3.32837e-16 -3.21001e-16 2.38714e-14 -4.7731e-14 2.38571e-14 3.23511e-16 -3.12301e-16 1.57035e-18 2.38622e-14 -2.38638e-14 -2.38617e-14 4.7727e-14 0 0 9.76537e-05 0.000131377 9.98587e-05 4.896e-05 1.56981e-05 3.20535e-06 4.29019e-07 4.70142e-08 4.94723e-09 3.86934e-10 2.22629e-11 1.26814e-12 7.75294e-14 -2.22608e-14 3.61822e-15 2.38614e-14 -2.38669e-14 -1.73104e-17 2.17923e-17 -2.44031e-18 3.22988e-16 -3.42688e-16 3.47732e-19 2.05887e-17 5.70764e-18 -2.75791e-17 3.55394e-16 -3.37731e-16 -4.13768e-14 0 0 4.14524e-08 4.93539e-08 3.2481e-08 1.48482e-08 5.15065e-09 1.34197e-09 2.4673e-10 3.32671e-11 3.96927e-12 4.19222e-13 2.76409e-14 -1.49243e-14 -1.90074e-17 4.51587e-19 2.3861e-14 -2.38595e-14 -8.45e-18 6.40829e-18 -1.89244e-18 -1.26966e-19 3.34239e-16 -3.56252e-16 2.36382e-17 -1.49831e-18 7.04554e-18 -3.09544e-17 -4.10086e-14 6.48888e-14 -6.52372e-14 0 0 3.49813e-12 5.11973e-12 4.44375e-12 2.66559e-12 1.1966e-12 4.06119e-13 1.08745e-13 1.16399e-14 2.35149e-15 3.35525e-16 -3.76828e-17 7.22584e-15 -4.77233e-14 4.77226e-14 -1.15185e-18 -4.77193e-14 4.77193e-14 -4.77217e-14 4.77218e-14 1.08596e-20 -4.77223e-14 4.77209e-14 -4.77165e-14 4.77179e-14 -7.91172e-19 -1.9678e-18 -1.30465e-13 1.30462e-13 5.76847e-18 0 0 3.30521e-16 -1.95978e-15 6.80627e-16 2.69729e-16 -3.26952e-15 3.67641e-15 -2.02466e-14 2.02685e-14 -3.59343e-15 -3.04714e-17 7.33128e-16 5.72454e-15 -2.31033e-14 5.32938e-19 2.88068e-34 -7.91689e-19 2.38605e-14 -2.38605e-14 7.91689e-19 -2.42069e-24 1.11797e-18 2.38572e-14 -4.77384e-14 4.77378e-14 4.50019e-19 -6.52583e-14 6.90467e-16 -6.90518e-16 6.52606e-14 0 0 2.02127e-30 1.0751e-15 -7.03093e-15 3.56271e-15 8.51214e-17 -2.02687e-14 -2.95262e-34 -8.76455e-18 2.02779e-14 -3.11875e-17 -4.33357e-15 -4.93497e-14 5.73038e-14 -2.3859e-14 -4.61866e-34 2.3859e-14 -6.5228e-14 6.5228e-14 -2.3859e-14 -8.79804e-19 2.38617e-14 -2.38638e-14 3.11959e-16 -4.168e-14 -8.88039e-18 6.49913e-16 4.67062e-17 -4.67581e-17 -6.21118e-16 0 0 -2.9183e-16 -3.80541e-15 -3.52803e-15 5.43499e-17 3.59417e-15 -2.02689e-14 7.15067e-23 -8.71759e-18 1.37621e-17 2.02629e-14 -4.34533e-15 -4.93736e-14 5.73095e-14 -2.3859e-14 -3.21013e-34 2.3859e-14 -6.52281e-14 4.1364e-14 5.0409e-18 2.38603e-14 -2.38603e-14 -2.38677e-14 4.80591e-14 -6.55647e-14 -6.61205e-18 6.49861e-16 4.67583e-17 -4.6627e-17 -6.21249e-16 0 0 -1.27703e-10 -7.36429e-15 3.53935e-15 -3.49304e-15 3.73207e-19 3.59369e-15 -2.02688e-14 2.02458e-14 -2.38564e-14 2.38788e-14 -2.31014e-14 2.59307e-14 -2.31059e-14 9.34892e-18 -4.20802e-38 -9.34771e-18 2.3869e-14 -4.77412e-14 2.38816e-14 2.38599e-14 -2.386e-14 -4.80794e-18 -4.13836e-14 6.52442e-14 1.18602e-18 -6.5256e-14 7.14634e-16 -7.14503e-16 6.52582e-14 0 0 0 0 0 0 0 0 0 0 0 0 0 0 0 0 0 0 0 0 0 0 0 0 0 0 0 0 0 0 0 0
				</DataArray>
				<DataArray Name="VitesseY" type="Float32" format="ascii">
 0 0 0 0 0 0 0 0 0 0 0 0 0 0 0 0 0 0 0 0 0 0 0 0 0 0 0 0 0 0 0 0.0012882 0.0481814 0.0461438 0.0365537 0.0204776 0.0144508 0.0147763 0.0148457 0.0163401 0.0172493 0.0175327 0.0177873 0.0178348 0.0178017 0.0178484 0.0181314 0.0183489 0.0202281 0.0228878 0.0225652 0.0188245 0.0106114 0.00268299 9.76251e-05 4.14324e-08 3.49657e-12 3.32031e-16 1.24754e-20 1.55801e-18 1.46697e-18 0 -0.0287511 0.0503777 0.0667432 0.0535376 0.0446685 0.0395203 0.0377746 0.0380345 0.037765 0.0374244 0.0368937 0.036681 0.0365243 0.0363177 0.0363267 0.0367436 0.0373013 0.0416483 0.0457616 0.044203 0.0354862 0.0188081 0.00445119 0.00013134 4.93317e-08 5.11747e-12 -1.96254e-15 1.07499e-15 5.6665e-17 -3.45208e-15 0 -0.0218784 0.0472664 0.0840908 0.0802691 0.0727487 0.0649511 0.0641351 0.0640215 0.0614568 0.059668 0.0578934 0.0566492 0.0558968 0.0553206 0.055333 0.0558868 0.0570512 0.0643056 0.0682913 0.0643649 0.0492487 0.0238282 0.00487669 9.98326e-05 3.24681e-08 4.44192e-12 6.82007e-16 -7.03078e-15 -3.51087e-15 3.5452e-15 0 0.0199319 0.0602018 0.094693 0.104867 0.0999807 0.0915395 0.0891389 0.0870936 0.0857355 0.083617 0.0803796 0.077715 0.0759648 0.0749701 0.0750603 0.0755986 0.0778192 0.0880495 0.0906621 0.0825849 0.0589924 0.0251184 0.00404687 4.89486e-05 1.48433e-08 2.66459e-12 2.69663e-16 3.56258e-15 5.44791e-17 -3.49277e-15 0 0.0458783 0.0768858 0.108128 0.11369 0.110428 0.110283 0.109549 0.10853 0.108508 0.106524 0.103135 0.0995147 0.0968717 0.0954789 0.0956477 0.0958941 0.100322 0.112445 0.112327 0.0972889 0.0630079 0.0226703 0.00247721 1.5695e-05 5.14926e-09 1.1962e-12 -3.26952e-15 8.51214e-17 3.59417e-15 3.73171e-19 0 0.0691913 0.0880372 0.109773 0.12438 0.131032 0.130598 0.128298 0.129545 0.129807 0.12831 0.125393 0.12165 0.118393 0.11695 0.117015 0.117003 0.125982 0.136555 0.1315 0.106048 0.0599355 0.0169408 0.00105066 3.20488e-06 1.34168e-09 4.06004e-13 3.67641e-15 -2.02687e-14 -2.02689e-14 3.59369e-15 0 0.0991641 0.113893 0.129579 0.139478 0.143985 0.145761 0.148996 0.150492 0.150231 0.149084 0.146737 0.143635 0.140052 0.139287 0.138565 0.139862 0.15488 0.159329 0.14527 0.106177 0.0493632 0.0096645 0.000292963 4.28984e-07 2.46691e-10 1.08716e-13 -2.02466e-14 -3.13691e-24 7.29717e-23 -2.02688e-14 0 0.120989 0.131787 0.142828 0.152108 0.160515 0.166145 0.168138 0.169079 0.169581 0.168899 0.167867 0.164536 0.16226 0.161899 0.160062 0.167125 0.182763 0.178692 0.149701 0.0948401 0.0330323 0.00378253 4.98478e-05 4.70136e-08 3.32643e-11 1.16401e-14 2.02685e-14 -8.76453e-18 -8.71759e-18 2.02458e-14 0 0.145412 0.152559 0.159551 0.167321 0.175079 0.180819 0.185108 0.187758 0.188709 0.189412 0.187981 0.185265 0.185418 0.183206 0.1836 0.201068 0.206152 0.187674 0.141349 0.0708639 0.0163087 0.000904588 4.67224e-06 4.94744e-09 3.96915e-12 2.3511e-15 -3.59343e-15 2.02779e-14 1.37621e-17 -2.38564e-14 0 0.167876 0.172831 0.177513 0.183124 0.190077 0.197498 0.202848 0.206337 0.209015 0.208937 0.207333 0.208196 0.206989 0.204083 0.215744 0.230722 0.220435 0.182487 0.114999 0.0399574 0.00521079 0.000120563 2.62338e-07 3.86973e-10 4.19217e-13 3.35525e-16 -3.04714e-17 -3.11875e-17 2.02629e-14 2.38788e-14 0 0.190071 0.193284 0.196692 0.201303 0.207417 0.214311 0.220887 0.225752 0.227251 0.227593 0.229909 0.229631 0.22576 0.232724 0.25332 0.248931 0.217612 0.156761 0.0720182 0.0152974 0.000921297 7.725e-06 1.43013e-08 2.2266e-11 2.76618e-14 -3.76828e-17 7.33128e-16 -4.33357e-15 -4.34533e-15 -2.31014e-14 0 0.212792 0.214645 0.217173 0.220953 0.226334 0.233039 0.239081 0.242809 0.246128 0.250253 0.250223 0.246833 0.252566 0.275092 0.274182 0.24738 0.192345 0.105834 0.0303669 0.00334371 7.91107e-05 2.5837e-07 6.78896e-10 1.26833e-12 -1.49244e-14 7.22584e-15 5.72454e-15 -4.93497e-14 -4.93736e-14 2.59307e-14 0 0.23599 0.236765 0.238794 0.241927 0.246267 0.251648 0.257418 0.263746 0.268383 0.268308 0.266718 0.274983 0.298062 0.297221 0.272179 0.220626 0.135353 0.0471233 0.00754199 0.00035001 2.73794e-06 8.80015e-09 2.28931e-11 7.75498e-14 -1.90074e-17 -4.77233e-14 -2.31033e-14 5.73038e-14 5.73095e-14 -2.31059e-14 0 0.258811 0.258784 0.260539 0.263532 0.268015 0.274088 0.280148 0.283658 0.284455 0.286875 0.301852 0.3223 0.317477 0.291598 0.240962 0.156545 0.0614846 0.012307 0.000875956 1.40752e-05 5.79482e-08 2.40293e-10 8.01937e-13 -2.22608e-14 4.51618e-19 4.77226e-14 5.32987e-19 -2.3859e-14 -2.3859e-14 9.34899e-18 0 0.28495 0.28436 0.285834 0.28815 0.291238 0.294725 0.297926 0.302293 0.313203 0.334742 0.344223 0.332935 0.304487 0.251996 0.16672 0.0694104 0.0157318 0.00145513 3.80203e-05 2.29514e-07 1.32721e-09 5.43645e-12 3.33278e-15 3.61822e-15 2.3861e-14 -1.1519e-18 4.8661e-23 5.3529e-23 -1.00086e-23 7.3669e-23 0 0.308638 0.307422 0.307927 0.309577 0.31328 0.320374 0.333334 0.352109 0.363408 0.35919 0.341533 0.308561 0.251217 0.163439 0.0682714 0.0162756 0.00173078 6.07309e-05 5.31769e-07 3.91003e-09 2.12025e-11 1.17215e-13 9.8817e-16 2.38614e-14 -2.38595e-14 -4.77193e-14 -7.91689e-19 2.3859e-14 2.3859e-14 -9.34769e-18 0 0.345596 0.345295 0.349227 0.357033 0.367379 0.376966 0.380883 0.376078 0.362879 0.33947 0.299101 0.234863 0.144462 0.0576571 0.0135581 0.00150326 6.10852e-05 7.05724e-07 6.61258e-09 4.83802e-11 3.3888e-13 1.44632e-15 -7.19677e-17 -2.38669e-14 -8.45003e-18 4.77193e-14 2.38605e-14 -6.5228e-14 -6.52281e-14 2.3869e-14 0 0.398911 0.396979 0.395718 0.393653 0.3897 0.3827 0.371182 0.351378 0.319244 0.26966 0.198288 0.110061 0.0400984 0.00871499 0.000927307 3.86437e-05 5.37135e-07 6.6432e-09 6.40333e-11 6.20021e-13 -3.70798e-14 -4.10219e-14 3.32837e-16 -1.73103e-17 6.4083e-18 -4.77217e-14 -2.38605e-14 6.5228e-14 4.1364e-14 -4.77412e-14 0 0.389209 0.38582 0.380338 0.372168 0.359831 0.340857 0.312088 0.270874 0.213394 0.139625 0.0665088 0.0211077 0.00395573 0.000374442 1.44295e-05 2.34686e-07 3.96415e-09 4.88873e-11 6.2091e-13 4.42129e-15 4.10438e-14 4.10313e-14 -3.21001e-16 2.17923e-17 -1.89238e-18 4.77218e-14 7.91737e-19 -2.3859e-14 5.04089e-18 2.38816e-14 0 0.325252 0.320517 0.309868 0.292908 0.26806 0.23333 0.186989 0.12964 0.0704988 0.0276305 0.00715079 0.00108254 8.44544e-05 2.83911e-06 6.01371e-08 1.35877e-09 2.16471e-11 3.91377e-13 -3.77322e-14 -4.16908e-14 -1.53398e-17 -1.24105e-17 2.38714e-14 -2.44024e-18 -1.26954e-19 1.08148e-20 4.624e-23 -8.79821e-19 2.38603e-14 2.38599e-14 0 0.190887 0.185541 0.171033 0.148062 0.11731 0.0809412 0.0454459 0.0197019 0.00600562 0.0011814 0.000137315 8.2474e-06 2.75035e-07 9.24132e-09 2.49706e-10 5.66982e-12 1.18364e-13 -4.61741e-14 4.16824e-14 4.16967e-14 1.16666e-17 2.86192e-17 -4.7731e-14 3.22988e-16 3.3424e-16 -4.77223e-14 1.11801e-18 2.38617e-14 -2.38603e-14 -2.386e-14 0 0.0420107 0.0392475 0.0319321 0.0222354 0.0127272 0.00566782 0.00184731 0.000416889 6.06745e-05 5.24365e-06 2.91697e-07 1.56549e-08 7.23393e-10 2.44203e-11 8.40368e-13 -2.04095e-15 8.88315e-16 4.76969e-14 -3.33241e-16 -3.45078e-16 2.38715e-14 -2.1321e-17 2.38571e-14 -3.42688e-16 -3.56252e-16 4.77209e-14 2.38572e-14 -2.38638e-14 -2.38677e-14 -4.80791e-18 0 0.000891158 0.000779226 0.000518535 0.000258285 9.37617e-05 2.40513e-05 4.25007e-06 5.36525e-07 5.77002e-08 5.75896e-09 4.33193e-10 2.48881e-11 1.3753e-12 4.02829e-14 -1.50231e-14 3.61822e-15 2.38633e-14 -2.3867e-14 1.79528e-17 2.24346e-17 -4.77252e-14 3.47763e-16 3.23511e-16 3.47835e-19 2.36382e-17 -4.77165e-14 -4.77384e-14 3.11959e-16 4.80591e-14 -4.13836e-14 0 3.07727e-07 2.61836e-07 1.63233e-07 7.70154e-08 2.85452e-08 8.40791e-09 1.90976e-09 3.21823e-10 4.20617e-11 4.86041e-12 4.77291e-13 3.11027e-14 2.55764e-14 -2.00991e-17 -1.30763e-18 2.38614e-14 -2.38618e-14 6.1224e-18 3.34382e-18 -1.10415e-18 4.77251e-14 -3.34239e-16 -3.12301e-16 2.05887e-17 -1.49825e-18 4.77179e-14 4.77378e-14 -4.168e-14 -6.55647e-14 6.52442e-14 0 3.49129e-11 3.14151e-11 2.27913e-11 1.32299e-11 6.12232e-12 2.25409e-12 6.52012e-13 1.44546e-13 2.42053e-14 3.02635e-15 3.39229e-16 -3.78586e-17 -3.99378e-17 2.44208e-18 1.5515e-18 -1.08416e-18 3.39326e-20 -1.18692e-20 2.39826e-18 2.41018e-18 -1.09196e-20 2.93131e-18 1.57033e-18 5.70764e-18 7.04558e-18 -7.91143e-19 4.49979e-19 -8.88043e-18 -6.61204e-18 1.18602e-18 0 2.04717e-15 1.71665e-15 5.41488e-15 1.79592e-15 9.26785e-16 3.95753e-15 3.72052e-15 -2.02466e-14 -2.02686e-14 3.5941e-15 -2.97076e-17 7.52195e-16 2.37867e-17 2.31001e-14 -1.05154e-18 -4.77194e-14 -7.91689e-19 2.3859e-14 2.3859e-14 -7.91689e-19 -4.77194e-14 1.11798e-18 2.38622e-14 -2.7579e-17 -3.09544e-17 -1.96783e-18 -6.52583e-14 6.49913e-16 6.49861e-16 -6.5256e-14 0 2.06897e-15 2.06897e-15 1.0751e-15 1.73776e-17 -3.53206e-15 8.48228e-17 -2.02686e-14 -2.31629e-23 -8.76454e-18 -2.02774e-14 7.21701e-15 1.36769e-15 -5.80448e-14 -5.57883e-14 2.38605e-14 4.77193e-14 2.38605e-14 -6.5228e-14 -6.52281e-14 2.38605e-14 4.77184e-14 2.38576e-14 -2.38638e-14 3.55394e-16 -4.10086e-14 -1.30465e-13 6.90467e-16 4.67062e-17 4.67584e-17 7.14634e-16 0 1.26899e-15 9.77161e-16 -3.2013e-15 -3.52119e-15 2.27729e-17 -3.59342e-15 2.02688e-14 2.08264e-23 8.81155e-18 1.33661e-17 -2.74511e-14 -1.3195e-15 5.80573e-14 5.57826e-14 -2.38605e-14 -4.77193e-14 -2.38605e-14 6.5228e-14 4.1364e-14 -4.77245e-14 -2.38572e-14 -2.38573e-14 -2.38617e-14 -3.37731e-16 6.48888e-14 1.30462e-13 -6.90518e-16 -4.67581e-17 -4.6627e-17 -7.14503e-16 0 2.55403e-10 1.27701e-10 -2.79822e-16 3.54858e-15 3.52461e-15 -3.732e-19 -3.59384e-15 2.02688e-14 2.02457e-14 1.66254e-14 2.38356e-14 -1.74361e-14 -2.02647e-14 -2.31012e-14 -5.22349e-18 4.77219e-14 -5.22471e-18 -2.3865e-14 -9.20687e-18 2.38506e-14 2.38595e-14 2.38594e-14 4.7727e-14 -4.13768e-14 -6.52372e-14 5.76844e-18 6.52606e-14 -6.21118e-16 -6.21249e-16 6.52582e-14 0 1.97144e-05 0 0 0 0 0 0 0 0 0 0 0 0 0 0 0 0 0 0 0 0 0 0 0 0 0 0 0 0 0 0
				</DataArray>
			</PointData>
			<CellData Scalars="Density">
				<DataArray Name="Density" type="Float32" format="ascii">