<?xml version="1.0"?>
<VTKFile type="PolyData">
	<PolyData>
		<Piece NumberOfPoints="961" NumberOfPolys="900">
			<Points>
				<DataArray type="Float32" NumberOfComponents="3" format="ascii">
 0 0 0 0.04 0 0 0.08 0 0 0.12 0 0 0.16 0 0 0.2 0 0 0.24 0 0 0.28 0 0 0.32 0 0 0.36 0 0 0.4 0 0 0.44 0 0 0.48 0 0 0.52 0 0 0.56 0 0 0.6 0 0 0.64 0 0 0.68 0 0 0.72 0 0 0.76 0 0 0.8 0 0 0.84 0 0 0.88 0 0 0.92 0 0 0.96 0 0 1 0 0 1.04 0 0 1.08 0 0 1.12 0 0 1.16 0 0 1.2 0 0 0 0.04 0 0.04 0.04 0 0.08 0.04 0 0.12 0.04 0 0.16 0.04 0 0.2 0.04 0 0.24 0.04 0 0.28 0.04 0 0.32 0.04 0 0.36 0.04 0 0.4 0.04 0 0.44 0.04 0 0.48 0.04 0 0.52 0.04 0 0.56 0.04 0 0.6 0.04 0 0.64 0.04 0 0.68 0.04 0 0.72 0.04 0 0.76 0.04 0 0.8 0.04 0 0.84 0.04 0 0.88 0.04 0 0.92 0.04 0 0.96 0.04 0 1 0.04 0 1.04 0.04 0 1.08 0.04 0 1.12 0.04 0 1.16 0.04 0 1.2 0.04 0 0 0.08 0 0.04 0.08 0 0.08 0.08 0 0.12 0.08 0 0.16 0.08 0 0.2 0.08 0 0.24 0.08 0 0.28 0.08 0 0.32 0.08 0 0.36 0.08 0 0.4 0.08 0 0.44 0.08 0 0.48 0.08 0 0.52 0.08 0 0.56 0.08 0 0.6 0.08 0 0.64 0.08 0 0.68 0.08 0 0.72 0.08 0 0.76 0.08 0 0.8 0.08 0 0.84 0.08 0 0.88 0.08 0 0.92 0.08 0 0.96 0.08 0 1 0.08 0 1.04 0.08 0 1.08 0.08 0 1.12 0.08 0 1.16 0.08 0 1.2 0.08 0 0 0.12 0 0.04 0.12 0 0.08 0.12 0 0.12 0.12 0 0.16 0.12 0 0.2 0.12 0 0.24 0.12 0 0.28 0.12 0 0.32 0.12 0 0.36 0.12 0 0.4 0.12 0 0.44 0.12 0 0.48 0.12 0 0.52 0.12 0 0.56 0.12 0 0.6 0.12 0 0.64 0.12 0 0.68 0.12 0 0.72 0.12 0 0.76 0.12 0 0.8 0.12 0 0.84 0.12 0 0.88 0.12 0 0.92 0.12 0 0.96 0.12 0 1 0.12 0 1.04 0.12 0 1.08 0.12 0 1.12 0.12 0 1.16 0.12 0 1.2 0.12 0 0 0.16 0 0.04 0.16 0 0.08 0.16 0 0.12 0.16 0 0.16 0.16 0 0.2 0.16 0 0.24 0.16 0 0.28 0.16 0 0.32 0.16 0 0.36 0.16 0 0.4 0.16 0 0.44 0.16 0 0.48 0.16 0 0.52 0.16 0 0.56 0.16 0 0.6 0.16 0 0.64 0.16 0 0.68 0.16 0 0.72 0.16 0 0.76 0.16 0 0.8 0.16 0 0.84 0.16 0 0.88 0.16 0 0.92 0.16 0 0.96 0.16 0 1 0.16 0 1.04 0.16 0 1.08 0.16 0 1.12 0.16 0 1.16 0.16 0 1.2 0.16 0 0 0.2 0 0.04 0.2 0 0.08 0.2 0 0.12 0.2 0 0.16 0.2 0 0.2 0.2 0 0.24 0.2 0 0.28 0.2 0 0.32 0.2 0 0.36 0.2 0 0.4 0.2 0 0.44 0.2 0 0.48 0.2 0 0.52 0.2 0 0.56 0.2 0 0.6 0.2 0 0.64 0.2 0 0.68 0.2 0 0.72 0.2 0 0.76 0.2 0 0.8 0.2 0 0.84 0.2 0 0.88 0.2 0 0.92 0.2 0 0.96 0.2 0 1 0.2 0 1.04 0.2 0 1.08 0.2 0 1.12 0.2 0 1.16 0.2 0 1.2 0.2 0 0 0.24 0 0.04 0.24 0 0.08 0.24 0 0.12 0.24 0 0.16 0.24 0 0.2 0.24 0 0.24 0.24 0 0.28 0.24 0 0.32 0.24 0 0.36 0.24 0 0.4 0.24 0 0.44 0.24 0 0.48 0.24 0 0.52 0.24 0 0.56 0.24 0 0.6 0.24 0 0.64 0.24 0 0.68 0.24 0 0.72 0.24 0 0.76 0.24 0 0.8 0.24 0 0.84 0.24 0 0.88 0.24 0 0.92 0.24 0 0.96 0.24 0 1 0.24 0 1.04 0.24 0 1.08 0.24 0 1.12 0.24 0 1.16 0.24 0 1.2 0.24 0 0 0.28 0 0.04 0.28 0 0.08 0.28 0 0.12 0.28 0 0.16 0.28 0 0.2 0.28 0 0.24 0.28 0 0.28 0.28 0 0.32 0.28 0 0.36 0.28 0 0.4 0.28 0 0.44 0.28 0 0.48 0.28 0 0.52 0.28 0 0.56 0.28 0 0.6 0.28 0 0.64 0.28 0 0.68 0.28 0 0.72 0.28 0 0.76 0.28 0 0.8 0.28 0 0.84 0.28 0 0.88 0.28 0 0.92 0.28 0 0.96 0.28 0 1 0.28 0 1.04 0.28 0 1.08 0.28 0 1.12 0.28 0 1.16 0.28 0 1.2 0.28 0 0 0.32 0 0.04 0.32 0 0.08 0.32 0 0.12 0.32 0 0.16 0.32 0 0.2 0.32 0 0.24 0.32 0 0.28 0.32 0 0.32 0.32 0 0.36 0.32 0 0.4 0.32 0 0.44 0.32 0 0.48 0.32 0 0.52 0.32 0 0.56 0.32 0 0.6 0.32 0 0.64 0.32 0 0.68 0.32 0 0.72 0.32 0 0.76 0.32 0 0.8 0.32 0 0.84 0.32 0 0.88 0.32 0 0.92 0.32 0 0.96 0.32 0 1 0.32 0 1.04 0.32 0 1.08 0.32 0 1.12 0.32 0 1.16 0.32 0 1.2 0.32 0 0 0.36 0 0.04 0.36 0 0.08 0.36 0 0.12 0.36 0 0.16 0.36 0 0.2 0.36 0 0.24 0.36 0 0.28 0.36 0 0.32 0.36 0 0.36 0.36 0 0.4 0.36 0 0.44 0.36 0 0.48 0.36 0 0.52 0.36 0 0.56 0.36 0 0.6 0.36 0 0.64 0.36 0 0.68 0.36 0 0.72 0.36 0 0.76 0.36 0 0.8 0.36 0 0.84 0.36 0 0.88 0.36 0 0.92 0.36 0 0.96 0.36 0 1 0.36 0 1.04 0.36 0 1.08 0.36 0 1.12 0.36 0 1.16 0.36 0 1.2 0.36 0 0 0.4 0 0.04 0.4 0 0.08 0.4 0 0.12 0.4 0 0.16 0.4 0 0.2 0.4 0 0.24 0.4 0 0.28 0.4 0 0.32 0.4 0 0.36 0.4 0 0.4 0.4 0 0.44 0.4 0 0.48 0.4 0 0.52 0.4 0 0.56 0.4 0 0.6 0.4 0 0.64 0.4 0 0.68 0.4 0 0.72 0.4 0 0.76 0.4 0 0.8 0.4 0 0.84 0.4 0 0.88 0.4 0 0.92 0.4 0 0.96 0.4 0 1 0.4 0 1.04 0.4 0 1.08 0.4 0 1.12 0.4 0 1.16 0.4 0 1.2 0.4 0 0 0.44 0 0.04 0.44 0 0.08 0.44 0 0.12 0.44 0 0.16 0.44 0 0.2 0.44 0 0.24 0.44 0 0.28 0.44 0 0.32 0.44 0 0.36 0.44 0 0.4 0.44 0 0.44 0.44 0 0.48 0.44 0 0.52 0.44 0 0.56 0.44 0 0.6 0.44 0 0.64 0.44 0 0.68 0.44 0 0.72 0.44 0 0.76 0.44 0 0.8 0.44 0 0.84 0.44 0 0.88 0.44 0 0.92 0.44 0 0.96 0.44 0 1 0.44 0 1.04 0.44 0 1.08 0.44 0 1.12 0.44 0 1.16 0.44 0 1.2 0.44 0 0 0.48 0 0.04 0.48 0 0.08 0.48 0 0.12 0.48 0 0.16 0.48 0 0.2 0.48 0 0.24 0.48 0 0.28 0.48 0 0.32 0.48 0 0.36 0.48 0 0.4 0.48 0 0.44 0.48 0 0.48 0.48 0 0.52 0.48 0 0.56 0.48 0 0.6 0.48 0 0.64 0.48 0 0.68 0.48 0 0.72 0.48 0 0.76 0.48 0 0.8 0.48 0 0.84 0.48 0 0.88 0.48 0 0.92 0.48 0 0.96 0.48 0 1 0.48 0 1.04 0.48 0 1.08 0.48 0 1.12 0.48 0 1.16 0.48 0 1.2 0.48 0 0 0.52 0 0.04 0.52 0 0.08 0.52 0 0.12 0.52 0 0.16 0.52 0 0.2 0.52 0 0.24 0.52 0 0.28 0.52 0 0.32 0.52 0 0.36 0.52 0 0.4 0.52 0 0.44 0.52 0 0.48 0.52 0 0.52 0.52 0 0.56 0.52 0 0.6 0.52 0 0.64 0.52 0 0.68 0.52 0 0.72 0.52 0 0.76 0.52 0 0.8 0.52 0 0.84 0.52 0 0.88 0.52 0 0.92 0.52 0 0.96 0.52 0 1 0.52 0 1.04 0.52 0 1.08 0.52 0 1.12 0.52 0 1.16 0.52 0 1.2 0.52 0 0 0.56 0 0.04 0.56 0 0.08 0.56 0 0.12 0.56 0 0.16 0.56 0 0.2 0.56 0 0.24 0.56 0 0.28 0.56 0 0.32 0.56 0 0.36 0.56 0 0.4 0.56 0 0.44 0.56 0 0.48 0.56 0 0.52 0.56 0 0.56 0.56 0 0.6 0.56 0 0.64 0.56 0 0.68 0.56 0 0.72 0.56 0 0.76 0.56 0 0.8 0.56 0 0.84 0.56 0 0.88 0.56 0 0.92 0.56 0 0.96 0.56 0 1 0.56 0 1.04 0.56 0 1.08 0.56 0 1.12 0.56 0 1.16 0.56 0 1.2 0.56 0 0 0.6 0 0.04 0.6 0 0.08 0.6 0 0.12 0.6 0 0.16 0.6 0 0.2 0.6 0 0.24 0.6 0 0.28 0.6 0 0.32 0.6 0 0.36 0.6 0 0.4 0.6 0 0.44 0.6 0 0.48 0.6 0 0.52 0.6 0 0.56 0.6 0 0.6 0.6 0 0.64 0.6 0 0.68 0.6 0 0.72 0.6 0 0.76 0.6 0 0.8 0.6 0 0.84 0.6 0 0.88 0.6 0 0.92 0.6 0 0.96 0.6 0 1 0.6 0 1.04 0.6 0 1.08 0.6 0 1.12 0.6 0 1.16 0.6 0 1.2 0.6 0 0 0.64 0 0.04 0.64 0 0.08 0.64 0 0.12 0.64 0 0.16 0.64 0 0.2 0.64 0 0.24 0.64 0 0.28 0.64 0 0.32 0.64 0 0.36 0.64 0 0.4 0.64 0 0.44 0.64 0 0.48 0.64 0 0.52 0.64 0 0.56 0.64 0 0.6 0.64 0 0.64 0.64 0 0.68 0.64 0 0.72 0.64 0 0.76 0.64 0 0.8 0.64 0 0.84 0.64 0 0.88 0.64 0 0.92 0.64 0 0.96 0.64 0 1 0.64 0 1.04 0.64 0 1.08 0.64 0 1.12 0.64 0 1.16 0.64 0 1.2 0.64 0 0 0.68 0 0.04 0.68 0 0.08 0.68 0 0.12 0.68 0 0.16 0.68 0 0.2 0.68 0 0.24 0.68 0 0.28 0.68 0 0.32 0.68 0 0.36 0.68 0 0.4 0.68 0 0.44 0.68 0 0.48 0.68 0 0.52 0.68 0 0.56 0.68 0 0.6 0.68 0 0.64 0.68 0 0.68 0.68 0 0.72 0.68 0 0.76 0.68 0 0.8 0.68 0 0.84 0.68 0 0.88 0.68 0 0.92 0.68 0 0.96 0.68 0 1 0.68 0 1.04 0.68 0 1.08 0.68 0 1.12 0.68 0 1.16 0.68 0 1.2 0.68 0 0 0.72 0 0.04 0.72 0 0.08 0.72 0 0.12 0.72 0 0.16 0.72 0 0.2 0.72 0 0.24 0.72 0 0.28 0.72 0 0.32 0.72 0 0.36 0.72 0 0.4 0.72 0 0.44 0.72 0 0.48 0.72 0 0.52 0.72 0 0.56 0.72 0 0.6 0.72 0 0.64 0.72 0 0.68 0.72 0 0.72 0.72 0 0.76 0.72 0 0.8 0.72 0 0.84 0.72 0 0.88 0.72 0 0.92 0.72 0 0.96 0.72 0 1 0.72 0 1.04 0.72 0 1.08 0.72 0 1.12 0.72 0 1.16 0.72 0 1.2 0.72 0 0 0.76 0 0.04 0.76 0 0.08 0.76 0 0.12 0.76 0 0.16 0.76 0 0.2 0.76 0 0.24 0.76 0 0.28 0.76 0 0.32 0.76 0 0.36 0.76 0 0.4 0.76 0 0.44 0.76 0 0.48 0.76 0 0.52 0.76 0 0.56 0.76 0 0.6 0.76 0 0.64 0.76 0 0.68 0.76 0 0.72 0.76 0 0.76 0.76 0 0.8 0.76 0 0.84 0.76 0 0.88 0.76 0 0.92 0.76 0 0.96 0.76 0 1 0.76 0 1.04 0.76 0 1.08 0.76 0 1.12 0.76 0 1.16 0.76 0 1.2 0.76 0 0 0.8 0 0.04 0.8 0 0.08 0.8 0 0.12 0.8 0 0.16 0.8 0 0.2 0.8 0 0.24 0.8 0 0.28 0.8 0 0.32 0.8 0 0.36 0.8 0 0.4 0.8 0 0.44 0.8 0 0.48 0.8 0 0.52 0.8 0 0.56 0.8 0 0.6 0.8 0 0.64 0.8 0 0.68 0.8 0 0.72 0.8 0 0.76 0.8 0 0.8 0.8 0 0.84 0.8 0 0.88 0.8 0 0.92 0.8 0 0.96 0.8 0 1 0.8 0 1.04 0.8 0 1.08 0.8 0 1.12 0.8 0 1.16 0.8 0 1.2 0.8 0 0 0.84 0 0.04 0.84 0 0.08 0.84 0 0.12 0.84 0 0.16 0.84 0 0.2 0.84 0 0.24 0.84 0 0.28 0.84 0 0.32 0.84 0 0.36 0.84 0 0.4 0.84 0 0.44 0.84 0 0.48 0.84 0 0.52 0.84 0 0.56 0.84 0 0.6 0.84 0 0.64 0.84 0 0.68 0.84 0 0.72 0.84 0 0.76 0.84 0 0.8 0.84 0 0.84 0.84 0 0.88 0.84 0 0.92 0.84 0 0.96 0.84 0 1 0.84 0 1.04 0.84 0 1.08 0.84 0 1.12 0.84 0 1.16 0.84 0 1.2 0.84 0 0 0.88 0 0.04 0.88 0 0.08 0.88 0 0.12 0.88 0 0.16 0.88 0 0.2 0.88 0 0.24 0.88 0 0.28 0.88 0 0.32 0.88 0 0.36 0.88 0 0.4 0.88 0 0.44 0.88 0 0.48 0.88 0 0.52 0.88 0 0.56 0.88 0 0.6 0.88 0 0.64 0.88 0 0.68 0.88 0 0.72 0.88 0 0.76 0.88 0 0.8 0.88 0 0.84 0.88 0 0.88 0.88 0 0.92 0.88 0 0.96 0.88 0 1 0.88 0 1.04 0.88 0 1.08 0.88 0 1.12 0.88 0 1.16 0.88 0 1.2 0.88 0 0 0.92 0 0.04 0.92 0 0.08 0.92 0 0.12 0.92 0 0.16 0.92 0 0.2 0.92 0 0.24 0.92 0 0.28 0.92 0 0.32 0.92 0 0.36 0.92 0 0.4 0.92 0 0.44 0.92 0 0.48 0.92 0 0.52 0.92 0 0.56 0.92 0 0.6 0.92 0 0.64 0.92 0 0.68 0.92 0 0.72 0.92 0 0.76 0.92 0 0.8 0.92 0 0.84 0.92 0 0.88 0.92 0 0.92 0.92 0 0.96 0.92 0 1 0.92 0 1.04 0.92 0 1.08 0.92 0 1.12 0.92 0 1.16 0.92 0 1.2 0.92 0 0 0.96 0 0.04 0.96 0 0.08 0.96 0 0.12 0.96 0 0.16 0.96 0 0.2 0.96 0 0.24 0.96 0 0.28 0.96 0 0.32 0.96 0 0.36 0.96 0 0.4 0.96 0 0.44 0.96 0 0.48 0.96 0 0.52 0.96 0 0.56 0.96 0 0.6 0.96 0 0.64 0.96 0 0.68 0.96 0 0.72 0.96 0 0.76 0.96 0 0.8 0.96 0 0.84 0.96 0 0.88 0.96 0 0.92 0.96 0 0.96 0.96 0 1 0.96 0 1.04 0.96 0 1.08 0.96 0 1.12 0.96 0 1.16 0.96 0 1.2 0.96 0 0 1 0 0.04 1 0 0.08 1 0 0.12 1 0 0.16 1 0 0.2 1 0 0.24 1 0 0.28 1 0 0.32 1 0 0.36 1 0 0.4 1 0 0.44 1 0 0.48 1 0 0.52 1 0 0.56 1 0 0.6 1 0 0.64 1 0 0.68 1 0 0.72 1 0 0.76 1 0 0.8 1 0 0.84 1 0 0.88 1 0 0.92 1 0 0.96 1 0 1 1 0 1.04 1 0 1.08 1 0 1.12 1 0 1.16 1 0 1.2 1 0 0 1.04 0 0.04 1.04 0 0.08 1.04 0 0.12 1.04 0 0.16 1.04 0 0.2 1.04 0 0.24 1.04 0 0.28 1.04 0 0.32 1.04 0 0.36 1.04 0 0.4 1.04 0 0.44 1.04 0 0.48 1.04 0 0.52 1.04 0 0.56 1.04 0 0.6 1.04 0 0.64 1.04 0 0.68 1.04 0 0.72 1.04 0 0.76 1.04 0 0.8 1.04 0 0.84 1.04 0 0.88 1.04 0 0.92 1.04 0 0.96 1.04 0 1 1.04 0 1.04 1.04 0 1.08 1.04 0 1.12 1.04 0 1.16 1.04 0 1.2 1.04 0 0 1.08 0 0.04 1.08 0 0.08 1.08 0 0.12 1.08 0 0.16 1.08 0 0.2 1.08 0 0.24 1.08 0 0.28 1.08 0 0.32 1.08 0 0.36 1.08 0 0.4 1.08 0 0.44 1.08 0 0.48 1.08 0 0.52 1.08 0 0.56 1.08 0 0.6 1.08 0 0.64 1.08 0 0.68 1.08 0 0.72 1.08 0 0.76 1.08 0 0.8 1.08 0 0.84 1.08 0 0.88 1.08 0 0.92 1.08 0 0.96 1.08 0 1 1.08 0 1.04 1.08 0 1.08 1.08 0 1.12 1.08 0 1.16 1.08 0 1.2 1.08 0 0 1.12 0 
[...]
			<PointData Scalars="VitesseX">
				<DataArray Name="VitesseX" type="Float32" format="ascii">
 0 -0.0203443 -0.0331964 0.00446117 0.0372841 0.0685238 0.118908 0.139148 0.177802 0.20943 0.242942 0.276673 0.31292 0.347509 0.386202 0.46966 0.473612 0.406003 0.24855 0.0614643 0.00163546 6.79785e-07 5.82547e-11 5.36222e-15 1.65427e-15 -1.03477e-31 -1.65427e-15 1.65438e-15 -5.65545e-15 5.65536e-15 0 0 0.0412152 0.0638025 0.0870857 0.0859333 0.102632 0.138432 0.155339 0.187675 0.215905 0.246884 0.278417 0.31339 0.346336 0.385576 0.467842 0.468933 0.399161 0.240734 0.057004 0.00141019 5.62221e-07 5.18061e-11 4.89742e-15 1.65427e-15 -4.17597e-32 -1.65427e-15 1.65437e-15 -5.65081e-15 5.65072e-15 0 0 0.0411577 0.0974205 0.12728 0.1256 0.137329 0.158762 0.174373 0.198688 0.223227 0.252363 0.281986 0.316773 0.347132 0.39039 0.468879 0.461919 0.384185 0.219937 0.0452683 0.000898981 3.22139e-07 3.61581e-11 3.73949e-15 -1.97552e-15 -4.52853e-35 1.97552e-15 8.51239e-16 -5.65389e-15 2.8505e-15 0 0 0.0311015 0.0891796 0.117726 0.131558 0.148978 0.173384 0.190806 0.211747 0.233209 0.260766 0.288023 0.322374 0.349485 0.401861 0.469734 0.450919 0.360262 0.186829 0.0301309 0.000415351 1.3285e-07 1.95241e-11 2.26683e-15 7.77488e-19 -6.11737e-20 -7.16315e-19 1.06452e-17 -2.81739e-15 2.8308e-15 0 0 0.0244667 0.070227 0.103164 0.127368 0.153322 0.181811 0.20389 0.223206 0.24561 0.271249 0.297146 0.3296 0.354423 0.421139 0.466062 0.433435 0.324802 0.142516 0.0159448 0.00013467 4.16905e-08 8.11848e-12 -1.76844e-15 2.78975e-15 1.36182e-17 -2.24317e-20 -2.81676e-15 1.34159e-17 2.80334e-15 0 0 0.0256353 0.0608006 0.0948196 0.125772 0.154447 0.185832 0.211093 0.230239 0.257692 0.279497 0.308793 0.335466 0.363721 0.440699 0.455765 0.405643 0.274166 0.0911512 0.00628369 2.94416e-05 1.0304e-08 2.6151e-12 4.0266e-16 -2.81702e-15 1.36794e-17 2.80335e-15 5.02984e-17 -2.8535e-15 -1.46162e-19 0 0 0.0246454 0.0551345 0.0925779 0.123641 0.155241 0.187814 0.210283 0.237127 0.262528 0.286323 0.317939 0.337789 0.383 0.448792 0.437327 0.361934 0.20563 0.0449721 0.00172023 4.16165e-06 1.93574e-09 6.4875e-13 1.17013e-16 -2.81755e-15 1.42354e-17 2.85363e-15 -1.63001e-14 1.63003e-14 -2.85373e-15 0 0 0.0234846 0.0529453 0.0893032 0.121754 0.154355 0.182638 0.210751 0.239221 0.262649 0.294689 0.318468 0.3424 0.41267 0.43965 0.40444 0.297546 0.12469 0.0160203 0.000304882 3.94268e-07 2.56991e-10 1.10743e-13 5.31904e-15 2.87532e-15 1.39967e-17 -1.63001e-14 -2.94053e-23 2.94053e-23 1.63002e-14 0 0 0.0240465 0.0517137 0.084261 0.11687 0.148476 0.179691 0.209516 0.235091 0.266466 0.29547 0.315093 0.364267 0.423003 0.415006 0.349825 0.208108 0.0544049 0.00371337 3.16468e-05 3.18166e-08 2.52348e-11 2.33049e-14 5.26297e-15 2.88951e-15 -2.09653e-19 -1.63001e-14 -8.0539e-18 8.04503e-18 1.62968e-14 0 0 0.0236971 0.0501512 0.0795722 0.110882 0.143271 0.174484 0.203281 0.235585 0.266703 0.288181 0.325079 0.392975 0.406613 0.370101 0.265812 0.107307 0.0158169 0.000504285 1.76538e-06 2.33134e-09 2.1988e-12 1.72199e-14 -2.85384e-15 -1.84867e-20 2.90135e-20 2.85366e-15 -1.63082e-14 1.15409e-17 1.34251e-14 0 0 0.0238845 0.0497318 0.0772689 0.106812 0.137783 0.169411 0.202404 0.233477 0.258285 0.293464 0.358032 0.386455 0.367861 0.293819 0.153899 0.0363834 0.00268062 3.47804e-05 6.82768e-08 1.17755e-10 1.74645e-13 -2.74978e-15 2.86805e-15 -2.85368e-15 -1.50127e-34 -1.45711e-17 5.72188e-15 -2.20039e-14 1.91357e-14 0 0 0.0240113 0.049614 0.076597 0.105383 0.136145 0.167832 0.198007 0.226866 0.265672 0.325047 0.357906 0.351108 0.297817 0.181706 0.057489 0.00723037 0.00022811 1.07522e-06 2.72213e-09 4.92295e-12 1.0869e-14 -2.86508e-15 2.84721e-15 -2.82941e-15 -1.47276e-17 6.23106e-17 5.15176e-15 -5.11946e-15 -1.35272e-14 0 0 0.0245184 0.0502335 0.0771248 0.105384 0.134695 0.164857 0.198079 0.242326 0.294011 0.324711 0.323798 0.283504 0.187861 0.0710984 0.012487 0.000698618 7.73435e-06 2.49503e-08 7.48737e-11 1.9245e-13 -1.57232e-14 1.62928e-14 -1.91727e-14 1.9176e-14 -1.49723e-17 2.61756e-18 -4.937e-14 4.93851e-14 -1.63036e-14 0 0 0.0248981 0.0507541 0.077746 0.106532 0.138578 0.176742 0.22163 0.261492 0.288167 0.28815 0.255099 0.174844 0.0729441 0.01566 0.00125625 2.54608e-05 1.20599e-07 5.6591e-10 1.89382e-12 4.97557e-15 -1.6296e-14 1.62804e-14 -1.62824e-14 -3.86063e-18 1.69911e-18 1.90785e-14 -5.16532e-14 5.16505e-14 -1.90815e-14 0 0 0.0269295 0.0557408 0.0871913 0.121701 0.158216 0.194005 0.22604 0.246761 0.245352 0.215294 0.146668 0.0634335 0.0151085 0.00149187 4.4161e-05 3.16291e-07 2.0235e-09 9.0036e-12 5.30115e-14 2.88363e-15 5.37903e-21 -2.87631e-15 -1.34246e-14 -1.1249e-18 1.36151e-18 -2.76093e-19 1.91535e-14 -1.91535e-14 -5.02789e-18 0 0 0.0319286 0.0643707 0.0966198 0.128555 0.159589 0.185613 0.199492 0.195352 0.16599 0.10841 0.0463228 0.0112832 0.00121625 4.39098e-05 4.35359e-07 3.72116e-09 2.32188e-11 1.31785e-13 1.36906e-14 -1.34441e-14 1.62981e-14 -1.91615e-14 2.86049e-15 1.91541e-14 -6.30963e-19 -3.83062e-14 3.83063e-14 -3.83063e-14 3.83074e-14 0 0 0.0322211 0.0634225 0.0924408 0.118101 0.137629 0.145704 0.138157 0.110553 0.0670188 0.0270949 0.00623319 0.000661031 2.5056e-05 3.1286e-07 3.7036e-09 3.18039e-11 2.73803e-13 4.73131e-15 -2.85369e-15 -1.3445e-14 -3.23605e-18 5.15283e-19 1.9155e-14 -1.91541e-14 -4.87159e-20 -2.76267e-19 1.91535e-14 -1.91535e-14 -5.02789e-18 0 0 0.0275209 0.05186 0.0715846 0.0844947 0.0873842 0.0783859 0.0578491 0.0317217 0.0113861 0.00227139 0.000214064 7.5397e-06 1.17682e-07 1.99501e-09 2.2952e-11 2.79121e-13 -7.67526e-16 2.82751e-15 -1.91694e-14 2.20224e-14 -3.83242e-14 3.83243e-14 -1.91589e-14 5.3632e-18 1.62053e-20 1.91529e-14 -5.26111e-14 5.2611e-14 -1.91583e-14 0 0 0.0161465 0.028343 0.0352771 0.0359982 0.0306034 0.0203295 0.0094354 0.00273191 0.000434189 3.26907e-05 1.03097e-06 2.39753e-08 5.51738e-10 8.7886e-12 1.61047e-13 -9.23822e-16 2.82769e-15 -1.63082e-14 1.89569e-16 -3.36453e-14 3.36453e-14 -1.97283e-16 9.88677e-18 3.40164e-18 1.95996e-18 1.91529e-14 -5.26111e-14 3.34543e-14 -9.3665e-18 0 0 0.00439711 0.00716112 0.00755366 0.00582765 0.00315171 0.0011117 0.000238962 2.80377e-05 1.63492e-06 6.31764e-08 2.58483e-09 7.15202e-11 1.82473e-12 1.99869e-14 1.93985e-14 -2.85363e-15 -1.3462e-14 2.04651e-16 4.51776e-18 -3.36572e-14 3.36528e-14 -2.04838e-16 1.38447e-17 -6.04905e-19 1.94376e-18 -2.76267e-19 1.91535e-14 -3.83102e-14 1.91439e-14 0 0 0.000195738 0.000252235 0.000177516 7.74725e-05 2.10051e-05 3.38175e-06 3.34229e-07 2.74116e-08 2.1089e-09 1.08586e-10 4.5612e-12 1.89371e-13 -7.9657e-16 2.88304e-15 -1.91516e-14 1.91513e-14 -1.63152e-14 -3.32508e-14 3.3263e-14 -1.2059e-17 7.51202e-18 1.91607e-14 -3.83102e-14 3.83101e-14 -1.6743e-21 -3.83062e-14 3.8306e-14 -1.91523e-14 1.91531e-14 0 0 1.036e-07 1.13269e-07 6.43776e-08 2.42609e-08 6.89457e-09 1.4691e-09 2.10793e-10 2.11614e-11 1.90413e-12 1.54254e-13 9.73541e-15 -1.57233e-14 1.62962e-14 6.27874e-22 -1.62981e-14 -4.44458e-18 -1.3166e-17 -3.32509e-14 3.32586e-14 -7.74732e-18 1.93736e-17 -1.8342e-17 2.09871e-16 -1.97726e-16 2.01053e-18 5.82251e-19 1.91523e-14 -1.91522e-14 1.9153e-14 0 0 6.45064e-12 9.20525e-12 7.4333e-12 3.97875e-12 1.52768e-12 4.3985e-13 8.21526e-14 5.38437e-15 1.69955e-14 -2.76231e-15 2.87103e-15 -1.62928e-14 1.62804e-14 -2.84487e-15 -1.34403e-14 -1.70691e-18 -1.3166e-17 1.97135e-16 -1.89579e-16 1.91607e-14 -3.83163e-14 1.915e-14 1.95151e-16 -1.83997e-16 1.33024e-18 1.91543e-14 -1.91557e-14 -1.91549e-14 3.83112e-14 0 0 4.6289e-16 2.34931e-15 -4.77733e-15 3.25396e-15 1.79984e-16 1.05795e-16 -1.09859e-14 1.1042e-14 -2.85382e-15 2.83924e-15 -2.86667e-15 -1.34171e-14 1.62824e-14 -1.91457e-14 2.86049e-15 1.9154e-14 -1.91591e-14 -9.69116e-18 1.36491e-17 -1.02228e-18 1.86479e-16 -1.99116e-16 1.01995e-20 1.31942e-17 4.44522e-18 -1.81688e-17 2.11177e-16 -2.00208e-16 -3.34652e-14 0 0 -1.27643e-29 -1.97552e-15 4.75123e-17 -2.81711e-15 2.81702e-15 -2.81755e-15 2.83235e-15 -2.81812e-15 -1.84951e-20 2.85368e-15 -2.87768e-15 -1.34205e-14 -3.81989e-18 1.0973e-18 1.91539e-14 -1.91531e-14 -6.44014e-18 4.51415e-18 -6.04908e-19 -6.67612e-20 1.97726e-16 -2.11354e-16 1.42995e-17 -6.04906e-19 5.17589e-18 -1.96658e-17 -3.32441e-14 5.2411e-14 -5.26204e-14 0 0 -7.02982e-29 -5.6053e-15 5.65353e-15 -5.62047e-15 1.36794e-17 -1.41773e-17 5.72161e-15 -5.7074e-15 -2.90122e-20 -1.57908e-32 -1.4475e-17 5.7215e-15 -3.8309e-14 3.83087e-14 -5.33511e-19 -3.83062e-14 3.83063e-14 -3.83082e-14 3.83081e-14 1.66646e-21 -3.83082e-14 3.83076e-14 -3.83044e-14 3.8305e-14 -2.76273e-19 -8.69321e-19 -1.05228e-13 1.05227e-13 2.42616e-18 0 0 -1.42099e-29 -1.97552e-15 4.74511e-17 -2.24387e-20 -2.80334e-15 2.85369e-15 -1.63002e-14 1.63002e-14 -2.85366e-15 -1.46315e-17 6.23106e-17 5.58477e-15 -1.90797e-14 2.76117e-19 -7.84841e-37 -2.76267e-19 1.91535e-14 -1.91535e-14 2.76267e-19 9.37849e-33 5.82227e-19 1.91519e-14 -3.8318e-14 3.83179e-14 2.11902e-19 -5.26361e-14 4.14876e-16 -4.14802e-16 5.2637e-14 0 0 -6.3882e-32 8.51196e-16 -5.59618e-15 2.81689e-15 5.02995e-17 -1.63001e-14 -1.50998e-34 -8.05388e-18 1.63082e-14 -1.47103e-17 -4.30849e-16 -4.85035e-14 5.18013e-14 -1.91529e-14 1.47995e-36 1.91529e-14 -5.26111e-14 5.2611e-14 -1.91528e-14 -3.23106e-19 1.91539e-14 -1.91557e-14 1.83958e-16 -3.36409e-14 -6.30369e-18 3.78223e-16 4.30859e-17 -4.30116e-17 -3.52643e-16 0 0 -2.88982e-16 -1.71452e-15 -2.80222e-15 1.3548e-17 2.85379e-15 -1.63003e-14 7.02434e-23 -8.06281e-18 1.16231e-17 1.62965e-14 -4.27798e-16 -4.85238e-14 5.1804e-14 -1.91529e-14 4.49296e-37 1.91529e-14 -5.26111e-14 3.34543e-14 3.90754e-18 1.91534e-14 -1.91534e-14 -1.91589e-14 3.85088e-14 -5.28098e-14 -5.30304e-18 3.78298e-16 4.30118e-17 -4.30118e-17 -3.52643e-16 0 0 -4.63599e-11 -4.53636e-15 2.81801e-15 -2.80334e-15 1.46173e-19 2.8536e-15 -1.63002e-14 1.62968e-14 -1.91614e-14 1.91648e-14 -1.90746e-14 2.18511e-14 -1.90833e-14 6.77545e-18 -7.90231e-42 -6.77545e-18 1.91598e-14 -3.83244e-14 1.91713e-14 1.91531e-14 -1.91532e-14 -3.68307e-18 -3.34681e-14 5.26232e-14 6.56365e-19 -5.26352e-14 4.38666e-16 -4.38666e-16 5.26361e-14 0 0 0 0 0 0 0 0 0 0 0 0 0 0 0 0 0 0 0 0 0 0 0 0 0 0 0 0 0 0 0 0
				</DataArray>
				<DataArray Name="VitesseY" type="Float32" format="ascii">