<?xml version="1.0"?>
<VTKFile type="PolyData">
	<PolyData>
		<Piece NumberOfPoints="961" NumberOfPolys="900">
			<Points>
				<DataArray type="Float32" NumberOfComponents="3" format="ascii">
 0 0 0 0.04 0 0 0.08 0 0 0.12 0 0 0.16 0 0 0.2 0 0 0.24 0 0 0.28 0 0 0.32 0 0 0.36 0 0 0.4 0 0 0.44 0 0 0.48 0 0 0.52 0 0 0.56 0 0 0.6 0 0 0.64 0 0 0.68 0 0 0.72 0 0 0.76 0 0 0.8 0 0 0.84 0 0 0.88 0 0 0.92 0 0 0.96 0 0 1 0 0 1.04 0 0 1.08 0 0 1.12 0 0 1.16 0 0 1.2 0 0 0 0.04 0 0.04 0.04 0 0.08 0.04 0 0.12 0.04 0 0.16 0.04 0 0.2 0.04 0 0.24 0.04 0 0.28 0.04 0 0.32 0.04 0 0.36 0.04 0 0.4 0.04 0 0.44 0.04 0 0.48 0.04 0 0.52 0.04 0 0.56 0.04 0 0.6 0.04 0 0.64 0.04 0 0.68 0.04 0 0.72 0.04 0 0.76 0.04 0 0.8 0.04 0 0.84 0.04 0 0.88 0.04 0 0.92 0.04 0 0.96 0.04 0 1 0.04 0 1.04 0.04 0 1.08 0.04 0 1.12 0.04 0 1.16 0.04 0 1.2 0.04 0 0 0.08 0 0.04 0.08 0 0.08 0.08 0 0.12 0.08 0 0.16 0.08 0 0.2 0.08 0 0.24 0.08 0 0.28 0.08 0 0.32 0.08 0 0.36 0.08 0 0.4 0.08 0 0.44 0.08 0 0.48 0.08 0 0.52 0.08 0 0.56 0.08 0 0.6 0.08 0 0.64 0.08 0 0.68 0.08 0 0.72 0.08 0 0.76 0.08 0 0.8 0.08 0 0.84 0.08 0 0.88 0.08 0 0.92 0.08 0 0.96 0.08 0 1 0.08 0 1.04 0.08 0 1.08 0.08 0 1.12 0.08 0 1.16 0.08 0 1.2 0.08 0 0 0.12 0 0.04 0.12 0 0.08 0.12 0 0.12 0.12 0 0.16 0.12 0 0.2 0.12 0 0.24 0.12 0 0.28 0.12 0 0.32 0.12 0 0.36 0.12 0 0.4 0.12 0 0.44 0.12 0 0.48 0.12 0 0.52 0.12 0 0.56 0.12 0 0.6 0.12 0 0.64 0.12 0 0.68 0.12 0 0.72 0.12 0 0.76 0.12 0 0.8 0.12 0 0.84 0.12 0 0.88 0.12 0 0.92 0.12 0 0.96 0.12 0 1 0.12 0 1.04 0.12 0 1.08 0.12 0 1.12 0.12 0 1.16 0.12 0 1.2 0.12 0 0 0.16 0 0.04 0.16 0 0.08 0.16 0 0.12 0.16 0 0.16 0.16 0 0.2 0.16 0 0.24 0.16 0 0.28 0.16 0 0.32 0.16 0 0.36 0.16 0 0.4 0.16 0 0.44 0.16 0 0.48 0.16 0 0.52 0.16 0 0.56 0.16 0 0.6 0.16 0 0.64 0.16 0 0.68 0.16 0 0.72 0.16 0 0.76 0.16 0 0.8 0.16 0 0.84 0.16 0 0.88 0.16 0 0.92 0.16 0 0.96 0.16 0 1 0.16 0 1.04 0.16 0 1.08 0.16 0 1.12 0.16 0 1.16 0.16 0 1.2 0.16 0 0 0.2 0 0.04 0.2 0 0.08 0.2 0 0.12 0.2 0 0.16 0.2 0 0.2 0.2 0 0.24 0.2 0 0.28 0.2 0 0.32 0.2 0 0.36 0.2 0 0.4 0.2 0 0.44 0.2 0 0.48 0.2 0 0.52 0.2 0 0.56 0.2 0 0.6 0.2 0 0.64 0.2 0 0.68 0.2 0 0.72 0.2 0 0.76 0.2 0 0.8 0.2 0 0.84 0.2 0 0.88 0.2 0 0.92 0.2 0 0.96 0.2 0 1 0.2 0 1.04 0.2 0 1.08 0.2 0 1.12 0.2 0 1.16 0.2 0 1.2 0.2 0 0 0.24 0 0.04 0.24 0 0.08 0.24 0 0.12 0.24 0 0.16 0.24 0 0.2 0.24 0 0.24 0.24 0 0.28 0.24 0 0.32 0.24 0 0.36 0.24 0 0.4 0.24 0 0.44 0.24 0 0.48 0.24 0 0.52 0.24 0 0.56 0.24 0 0.6 0.24 0 0.64 0.24 0 0.68 0.24 0 0.72 0.24 0 0.76 0.24 0 0.8 0.24 0 0.84 0.24 0 0.88 0.24 0 0.92 0.24 0 0.96 0.24 0 1 0.24 0 1.04 0.24 0 1.08 0.24 0 1.12 0.24 0 1.16 0.24 0 1.2 0.24 0 0 0.28 0 0.04 0.28 0 0.08 0.28 0 0.12 0.28 0 0.16 0.28 0 0.2 0.28 0 0.24 0.28 0 0.28 0.28 0 0.32 0.28 0 0.36 0.28 0 0.4 0.28 0 0.44 0.28 0 0.48 0.28 0 0.52 0.28 0 0.56 0.28 0 0.6 0.28 0 0.64 0.28 0 0.68 0.28 0 0.72 0.28 0 0.76 0.28 0 0.8 0.28 0 0.84 0.28 0 0.88 0.28 0 0.92 0.28 0 0.96 0.28 0 1 0.28 0 1.04 0.28 0 1.08 0.28 0 1.12 0.28 0 1.16 0.28 0 1.2 0.28 0 0 0.32 0 0.04 0.32 0 0.08 0.32 0 0.12 0.32 0 0.16 0.32 0 0.2 0.32 0 0.24 0.32 0 0.28 0.32 0 0.32 0.32 0 0.36 0.32 0 0.4 0.32 0 0.44 0.32 0 0.48 0.32 0 0.52 0.32 0 0.56 0.32 0 0.6 0.32 0 0.64 0.32 0 0.68 0.32 0 0.72 0.32 0 0.76 0.32 0 0.8 0.32 0 0.84 0.32 0 0.88 0.32 0 0.92 0.32 0 0.96 0.32 0 1 0.32 0 1.04 0.32 0 1.08 0.32 0 1.12 0.32 0 1.16 0.32 0 1.2 0.32 0 0 0.36 0 0.04 0.36 0 0.08 0.36 0 0.12 0.36 0 0.16 0.36 0 0.2 0.36 0 0.24 0.36 0 0.28 0.36 0 0.32 0.36 0 0.36 0.36 0 0.4 0.36 0 0.44 0.36 0 0.48 0.36 0 0.52 0.36 0 0.56 0.36 0 0.6 0.36 0 0.64 0.36 0 0.68 0.36 0 0.72 0.36 0 0.76 0.36 0 0.8 0.36 0 0.84 0.36 0 0.88 0.36 0 0.92 0.36 0 0.96 0.36 0 1 0.36 0 1.04 0.36 0 1.08 0.36 0 1.12 0.36 0 1.16 0.36 0 1.2 0.36 0 0 0.4 0 0.04 0.4 0 0.08 0.4 0 0.12 0.4 0 0.16 0.4 0 0.2 0.4 0 0.24 0.4 0 0.28 0.4 0 0.32 0.4 0 0.36 0.4 0 0.4 0.4 0 0.44 0.4 0 0.48 0.4 0 0.52 0.4 0 0.56 0.4 0 0.6 0.4 0 0.64 0.4 0 0.68 0.4 0 0.72 0.4 0 0.76 0.4 0 0.8 0.4 0 0.84 0.4 0 0.88 0.4 0 0.92 0.4 0 0.96 0.4 0 1 0.4 0 1.04 0.4 0 1.08 0.4 0 1.12 0.4 0 1.16 0.4 0 1.2 0.4 0 0 0.44 0 0.04 0.44 0 0.08 0.44 0 0.12 0.44 0 0.16 0.44 0 0.2 0.44 0 0.24 0.44 0 0.28 0.44 0 0.32 0.44 0 0.36 0.44 0 0.4 0.44 0 0.44 0.44 0 0.48 0.44 0 0.52 0.44 0 0.56 0.44 0 0.6 0.44 0 0.64 0.44 0 0.68 0.44 0 0.72 0.44 0 0.76 0.44 0 0.8 0.44 0 0.84 0.44 0 0.88 0.44 0 0.92 0.44 0 0.96 0.44 0 1 0.44 0 1.04 0.44 0 1.08 0.44 0 1.12 0.44 0 1.16 0.44 0 1.2 0.44 0 0 0.48 0 0.04 0.48 0 0.08 0.48 0 0.12 0.48 0 0.16 0.48 0 0.2 0.48 0 0.24 0.48 0 0.28 0.48 0 0.32 0.48 0 0.36 0.48 0 0.4 0.48 0 0.44 0.48 0 0.48 0.48 0 0.52 0.48 0 0.56 0.48 0 0.6 0.48 0 0.64 0.48 0 0.68 0.48 0 0.72 0.48 0 0.76 0.48 0 0.8 0.48 0 0.84 0.48 0 0.88 0.48 0 0.92 0.48 0 0.96 0.48 0 1 0.48 0 1.04 0.48 0 1.08 0.48 0 1.12 0.48 0 1.16 0.48 0 1.2 0.48 0 0 0.52 0 0.04 0.52 0 0.08 0.52 0 0.12 0.52 0 0.16 0.52 0 0.2 0.52 0 0.24 0.52 0 0.28 0.52 0 0.32 0.52 0 0.36 0.52 0 0.4 0.52 0 0.44 0.52 0 0.48 0.52 0 0.52 0.52 0 0.56 0.52 0 0.6 0.52 0 0.64 0.52 0 0.68 0.52 0 0.72 0.52 0 0.76 0.52 0 0.8 0.52 0 0.84 0.52 0 0.88 0.52 0 0.92 0.52 0 0.96 0.52 0 1 0.52 0 1.04 0.52 0 1.08 0.52 0 1.12 0.52 0 1.16 0.52 0 1.2 0.52 0 0 0.56 0 0.04 0.56 0 0.08 0.56 0 0.12 0.56 0 0.16 0.56 0 0.2 0.56 0 0.24 0.56 0 0.28 0.56 0 0.32 0.56 0 0.36 0.56 0 0.4 0.56 0 0.44 0.56 0 0.48 0.56 0 0.52 0.56 0 0.56 0.56 0 0.6 0.56 0 0.64 0.56 0 0.68 0.56 0 0.72 0.56 0 0.76 0.56 0 0.8 0.56 0 0.84 0.56 0 0.88 0.56 0 0.92 0.56 0 0.96 0.56 0 1 0.56 0 1.04 0.56 0 1.08 0.56 0 1.12 0.56 0 1.16 0.56 0 1.2 0.56 0 0 0.6 0 0.04 0.6 0 0.08 0.6 0 0.12 0.6 0 0.16 0.6 0 0.2 0.6 0 0.24 0.6 0 0.28 0.6 0 0.32 0.6 0 0.36 0.6 0 0.4 0.6 0 0.44 0.6 0 0.48 0.6 0 0.52 0.6 0 0.56 0.6 0 0.6 0.6 0 0.64 0.6 0 0.68 0.6 0 0.72 0.6 0 0.76 0.6 0 0.8 0.6 0 0.84 0.6 0 0.88 0.6 0 0.92 0.6 0 0.96 0.6 0 1 0.6 0 1.04 0.6 0 1.08 0.6 0 1.12 0.6 0 1.16 0.6 0 1.2 0.6 0 0 0.64 0 0.04 0.64 0 0.08 0.64 0 0.12 0.64 0 0.16 0.64 0 0.2 0.64 0 0.24 0.64 0 0.28 0.64 0 0.32 0.64 0 0.36 0.64 0 0.4 0.64 0 0.44 0.64 0 0.48 0.64 0 0.52 0.64 0 0.56 0.64 0 0.6 0.64 0 0.64 0.64 0 0.68 0.64 0 0.72 0.64 0 0.76 0.64 0 0.8 0.64 0 0.84 0.64 0 0.88 0.64 0 0.92 0.64 0 0.96 0.64 0 1 0.64 0 1.04 0.64 0 1.08 0.64 0 1.12 0.64 0 1.16 0.64 0 1.2 0.64 0 0 0.68 0 0.04 0.68 0 0.08 0.68 0 0.12 0.68 0 0.16 0.68 0 0.2 0.68 0 0.24 0.68 0 0.28 0.68 0 0.32 0.68 0 0.36 0.68 0 0.4 0.68 0 0.44 0.68 0 0.48 0.68 0 0.52 0.68 0 0.56 0.68 0 0.6 0.68 0 0.64 0.68 0 0.68 0.68 0 0.72 0.68 0 0.76 0.68 0 0.8 0.68 0 0.84 0.68 0 0.88 0.68 0 0.92 0.68 0 0.96 0.68 0 1 0.68 0 1.04 0.68 0 1.08 0.68 0 1.12 0.68 0 1.16 0.68 0 1.2 0.68 0 0 0.72 0 0.04 0.72 0 0.08 0.72 0 0.12 0.72 0 0.16 0.72 0 0.2 0.72 0 0.24 0.72 0 0.28 0.72 0 0.32 0.72 0 0.36 0.72 0 0.4 0.72 0 0.44 0.72 0 0.48 0.72 0 0.52 0.72 0 0.56 0.72 0 0.6 0.72 0 0.64 0.72 0 0.68 0.72 0 0.72 0.72 0 0.76 0.72 0 0.8 0.72 0 0.84 0.72 0 0.88 0.72 0 0.92 0.72 0 0.96 0.72 0 1 0.72 0 1.04 0.72 0 1.08 0.72 0 1.12 0.72 0 1.16 0.72 0 1.2 0.72 0 0 0.76 0 0.04 0.76 0 0.08 0.76 0 0.12 0.76 0 0.16 0.76 0 0.2 0.76 0 0.24 0.76 0 0.28 0.76 0 0.32 0.76 0 0.36 0.76 0 0.4 0.76 0 0.44 0.76 0 0.48 0.76 0 0.52 0.76 0 0.56 0.76 0 0.6 0.76 0 0.64 0.76 0 0.68 0.76 0 0.72 0.76 0 0.76 0.76 0 0.8 0.76 0 0.84 0.76 0 0.88 0.76 0 0.92 0.76 0 0.96 0.76 0 1 0.76 0 1.04 0.76 0 1.08 0.76 0 1.12 0.76 0 1.16 0.76 0 1.2 0.76 0 0 0.8 0 0.04 0.8 0 0.08 0.8 0 0.12 0.8 0 0.16 0.8 0 0.2 0.8 0 0.24 0.8 0 0.28 0.8 0 0.32 0.8 0 0.36 0.8 0 0.4 0.8 0 0.44 0.8 0 0.48 0.8 0 0.52 0.8 0 0.56 0.8 0 0.6 0.8 0 0.64 0.8 0 0.68 0.8 0 0.72 0.8 0 0.76 0.8 0 0.8 0.8 0 0.84 0.8 0 0.88 0.8 0 0.92 0.8 0 0.96 0.8 0 1 0.8 0 1.04 0.8 0 1.08 0.8 0 1.12 0.8 0 1.16 0.8 0 1.2 0.8 0 0 0.84 0 0.04 0.84 0 0.08 0.84 0 0.12 0.84 0 0.16 0.84 0 0.2 0.84 0 0.24 0.84 0 0.28 0.84 0 0.32 0.84 0 0.36 0.84 0 0.4 0.84 0 0.44 0.84 0 0.48 0.84 0 0.52 0.84 0 0.56 0.84 0 0.6 0.84 0 0.64 0.84 0 0.68 0.84 0 0.72 0.84 0 0.76 0.84 0 0.8 0.84 0 0.84 0.84 0 0.88 0.84 0 0.92 0.84 0 0.96 0.84 0 1 0.84 0 1.04 0.84 0 1.08 0.84 0 1.12 0.84 0 1.16 0.84 0 1.2 0.84 0 0 0.88 0 0.04 0.88 0 0.08 0.88 0 0.12 0.88 0 0.16 0.88 0 0.2 0.88 0 0.24 0.88 0 0.28 0.88 0 0.32 0.88 0 0.36 0.88 0 0.4 0.88 0 0.44 0.88 0 0.48 0.88 0 0.52 0.88 0 0.56 0.88 0 0.6 0.88 0 0.64 0.88 0 0.68 0.88 0 0.72 0.88 0 0.76 0.88 0 0.8 0.88 0 0.84 0.88 0 0.88 0.88 0 0.92 0.88 0 0.96 0.88 0 1 0.88 0 1.04 0.88 0 1.08 0.88 0 1.12 0.88 0 1.16 0.88 0 1.2 0.88 0 0 0.92 0 0.04 0.92 0 0.08 0.92 0 0.12 0.92 0 0.16 0.92 0 0.2 0.92 0 0.24 0.92 0 0.28 0.92 0 0.32 0.92 0 0.36 0.92 0 0.4 0.92 0 0.44 0.92 0 0.48 0.92 0 0.52 0.92 0 0.56 0.92 0 0.6 0.92 0 0.64 0.92 0 0.68 0.92 0 0.72 0.92 0 0.76 0.92 0 0.8 0.92 0 0.84 0.92 0 0.88 0.92 0 0.92 0.92 0 0.96 0.92 0 1 0.92 0 1.04 0.92 0 1.08 0.92 0 1.12 0.92 0 1.16 0.92 0 1.2 0.92 0 0 0.96 0 0.04 0.96 0 0.08 0.96 0 0.12 0.96 0 0.16 0.96 0 0.2 0.96 0 0.24 0.96 0 0.28 0.96 0 0.32 0.96 0 0.36 0.96 0 0.4 0.96 0 0.44 0.96 0 0.48 0.96 0 0.52 0.96 0 0.56 0.96 0 0.6 0.96 0 0.64 0.96 0 0.68 0.96 0 0.72 0.96 0 0.76 0.96 0 0.8 0.96 0 0.84 0.96 0 0.88 0.96 0 0.92 0.96 0 0.96 0.96 0 1 0.96 0 1.04 0.96 0 1.08 0.96 0 1.12 0.96 0 1.16 0.96 0 1.2 0.96 0 0 1 0 0.04 1 0 0.08 1 0 0.12 1 0 0.16 1 0 0.2 1 0 0.24 1 0 0.28 1 0 0.32 1 0 0.36 1 0 0.4 1 0 0.44 1 0 0.48 1 0 0.52 1 0 0.56 1 0 0.6 1 0 0.64 1 0 0.68 1 0 0.72 1 0 0.76 1 0 0.8 1 0 0.84 1 0 0.88 1 0 0.92 1 0 0.96 1 0 1 1 0 1.04 1 0 1.08 1 0 1.12 1 0 1.16 1 0 1.2 1 0 0 1.04 0 0.04 1.04 0 0.08 1.04 0 0.12 1.04 0 0.16 1.04 0 0.2 1.04 0 0.24 1.04 0 0.28 1.04 0 0.32 1.04 0 0.36 1.04 0 0.4 1.04 0 0.44 1.04 0 0.48 1.04 0 0.52 1.04 0 0.56 1.04 0 0.6 1.04 0 0.64 1.04 0 0.68 1.04 0 0.72 1.04 0 0.76 1.04 0 0.8 1.04 0 0.84 1.04 0 0.88 1.04 0 0.92 1.04 0 0.96 1.04 0 1 1.04 0 1.04 1.04 0 1.08 1.04 0 1.12 1.04 0 1.16 1.04 0 1.2 1.04 0 0 1.08 0 0.04 1.08 0 0.08 1.08 0 0.12 1.08 0 0.16 1.08 0 0.2 1.08 0 0.24 1.08 0 0.28 1.08 0 0.32 1.08 0 0.36 1.08 0 0.4 1.08 0 0.44 1.08 0 0.48 1.08 0 0.52 1.08 0 0.56 1.08 0 0.6 1.08 0 0.64 1.08 0 0.68 1.08 0 0.72 1.08 0 0.76 1.08 0 0.8 1.08 0 0.84 1.08 0 0.88 1.08 0 0.92 1.08 0 0.96 1.08 0 1 1.08 0 1.04 1.08 0 1.08 1.08 0 1.12 1.08 0 1.16 1.08 0 1.2 1.08 0 0 1.12 0 
[...]
			<PointData Scalars="VitesseX">
				<DataArray Name="VitesseX" type="Float32" format="ascii">
 0 -0.0362882 -0.100625 -0.113072 -0.0995968 -0.0509992 0.0209427 0.101659 0.177801 0.247193 0.309126 0.364238 0.413704 0.457991 0.497935 0.53428 0.567877 0.599741 0.630813 0.661797 0.692974 0.723246 0.725276 0.640599 0.4451 0.11278 -0.266018 -0.502757 -0.535712 -0.345104 0 0 0.106211 0.100051 0.0587579 0.0462762 0.0676913 0.117814 0.176562 0.235203 0.292881 0.346908 0.395752 0.439581 0.479117 0.514935 0.547749 0.578455 0.607975 0.637077 0.666274 0.695854 0.724932 0.727819 0.645271 0.453842 0.126393 -0.251524 -0.492253 -0.530282 -0.344801 0 0 0.107346 0.185112 0.210269 0.224943 0.227106 0.24253 0.270006 0.304077 0.340538 0.37868 0.417099 0.454204 0.488453 0.52061 0.551308 0.581049 0.610258 0.639291 0.668471 0.698058 0.727398 0.735492 0.660834 0.482148 0.16827 -0.207199 -0.460953 -0.512956 -0.34262 0 0 0.0922086 0.160709 0.208762 0.239338 0.253867 0.27332 0.293762 0.325077 0.35723 0.389807 0.422159 0.454511 0.486712 0.518321 0.549123 0.579317 0.609162 0.638948 0.66892 0.699307 0.729752 0.745518 0.683524 0.523521 0.230065 -0.141448 -0.414178 -0.486931 -0.339522 0 0 0.0554884 0.11558 0.181863 0.218712 0.24412 0.270802 0.290179 0.321079 0.353282 0.38593 0.419475 0.452632 0.484428 0.515494 0.546187 0.576716 0.607204 0.637766 0.668577 0.699908 0.73163 0.755071 0.710308 0.572434 0.303804 -0.0582336 -0.353034 -0.452234 -0.333616 0 0 0.0186086 0.0621871 0.129939 0.181755 0.220532 0.255586 0.278806 0.310058 0.343774 0.37742 0.412361 0.44695 0.480007 0.5118 0.542957 0.57391 0.604916 0.636153 0.667794 0.700052 0.732978 0.762254 0.738262 0.624102 0.384954 0.0389735 -0.276729 -0.406937 -0.322644 0 0 0.00213846 0.0324356 0.0809572 0.135636 0.181364 0.226284 0.257384 0.291203 0.327482 0.363164 0.400336 0.437043 0.472423 0.506012 0.538432 0.570394 0.602287 0.634383 0.666888 0.700115 0.734127 0.767038 0.764875 0.674884 0.469577 0.146533 -0.184064 -0.349094 -0.303773 0 0 0.000944227 0.0275657 0.0647043 0.110366 0.149545 0.19311 0.228083 0.265301 0.304111 0.343113 0.383451 0.42324 0.461404 0.49755 0.532091 0.565784 0.599159 0.632569 0.666238 0.700465 0.735403 0.770236 0.787277 0.722379 0.55378 0.260399 -0.0751214 -0.277381 -0.27346 0 0 0.0045607 0.0291164 0.064775 0.106429 0.143629 0.182346 0.215494 0.250595 0.287079 0.32505 0.36497 0.405948 0.447271 0.4868 0.524184 0.560301 0.595706 0.630839 0.66604 0.701386 0.737118 0.773024 0.802381 0.76612 0.633966 0.374906 0.0474908 -0.1905 -0.227876 0 0 0.00993757 0.0342496 0.0693374 0.108528 0.145454 0.182309 0.215042 0.248146 0.282308 0.318356 0.356032 0.395311 0.436011 0.477053 0.516902 0.555435 0.59298 0.629877 0.666443 0.702912 0.73942 0.776003 0.810839 0.805022 0.706642 0.487188 0.177007 -0.0873705 -0.164324 0 0 0.0158409 0.0416176 0.0767279 0.11474 0.151168 0.186511 0.218821 0.250509 0.283537 0.318443 0.354741 0.392649 0.432281 0.472855 0.513355 0.553075 0.591895 0.62997 0.667676 0.705132 0.742332 0.779451 0.816031 0.835864 0.769618 0.593711 0.306452 0.0274687 -0.0842912 0 0 0.0217334 0.0503458 0.0858632 0.123931 0.160409 0.195543 0.227718 0.258374 0.289748 0.322993 0.357735 0.394292 0.43283 0.472827 0.51319 0.55314 0.592519 0.631379 0.669904 0.708099 0.745903 0.783459 0.820888 0.854527 0.823821 0.690658 0.432733 0.144376 0.000987398 0 0 0.0268208 0.0591891 0.0961124 0.134601 0.172296 0.208016 0.241081 0.271603 0.301805 0.333379 0.366245 0.400777 0.437438 0.476052 0.51571 0.555563 0.595231 0.634465 0.673315 0.711887 0.750095 0.788021 0.825963 0.86353 0.868962 0.774062 0.553219 0.261357 0.0780617 0 0 0.0311798 0.0668555 0.105255 0.144555 0.183769 0.221442 0.256675 0.288667 0.318466 0.348662 0.379805 0.412346 0.446878 0.483588 0.521874 0.560883 0.600104 0.639166 0.677924 0.716505 0.754871 0.793049 0.831285 0.869702 0.899619 0.843211 0.666074 0.379208 0.153146 0 0 0.0349392 0.073191 0.112921 0.152898 0.192801 0.231765 0.268818 0.303239 0.334975 0.365344 0.395882 0.427117 0.45978 0.494417 0.530874 0.568484 0.606685 0.645087 0.683456 0.721738 0.76008 0.798344 0.836785 0.875827 0.914641 0.900554 0.767394 0.496758 0.233474 0 0 0.0379035 0.0780981 0.11884 0.15938 0.199651 0.239176 0.27726 0.313079 0.346339 0.377913 0.408945 0.440217 0.47229 0.505746 0.540785 0.577067 0.614116 0.651664 0.689393 0.727231 0.765299 0.803505 0.842249 0.881585 0.921807 0.944339 0.852446 0.61509 0.323415 0 0 0.0399047 0.0813776 0.122828 0.163725 0.204132 0.24388 0.282374 0.319016 0.353465 0.386135 0.418009 0.449653 0.481579 0.514513 0.548832 0.584334 0.620677 0.657555 0.694799 0.732361 0.770133 0.808466 0.847422 0.886988 0.929738 0.966027 0.923341 0.736668 0.423336 0 0 0.0409817 0.0830762 0.124886 0.165957 0.206376 0.246082 0.28469 0.321721 0.356924 0.390612 0.423327 0.455545 0.487833 0.520779 0.554793 0.589896 0.625804 0.662315 0.699361 0.736711 0.774552 0.813166 0.85208 0.892857 0.936732 0.971956 0.985786 0.851854 0.529238 0 0 0.0413377 0.0835916 0.125474 0.166563 0.206907 0.246469 0.285022 0.322145 0.357738 0.392061 0.425467 0.458368 0.491262 0.524586 0.558715 0.593739 0.629518 0.665982 0.702899 0.740337 0.778587 0.817154 0.856817 0.899681 0.9404 0.981161 1.03515 0.943181 0.629868 0 0 0.041346 0.0835678 0.125362 0.166367 0.206507 0.245788 0.284066 0.321158 0.357 0.391707 0.425527 0.45895 0.49242 0.526278 0.560765 0.595989 0.631961 0.668488 0.705595 0.743515 0.781818 0.820863 0.862875 0.90416 0.943738 1.00822 1.06367 0.990223 0.707472 0 0 0.0412253 0.0831098 0.124668 0.165241 0.204917 0.24359 0.281367 0.318278 0.354323 0.389536 0.424069 0.45818 0.4922 0.526484 0.561401 0.597075 0.633309 0.670168 0.70782 0.745902 0.784628 0.825891 0.867649 0.9065 0.957603 1.04555 1.06183 0.986916 0.732025 0 0 0.0407678 0.0823077 0.12295 0.163103 0.201879 0.239946 0.277137 0.313751 0.349874 0.38554 0.420816 0.455811 0.490713 0.52576 0.561197 0.597216 0.633955 0.67143 0.709344 0.74794 0.788772 0.830551 0.869472 0.915772 0.997697 1.04706 1.02871 0.920201 0.65687 0 0 0.0408026 0.0808813 0.122006 0.160322 0.198787 0.23565 0.272207 0.308455 0.344619 0.380662 0.416532 0.452294 0.488068 0.52399 0.560233 0.596966 0.634335 0.672162 0.710767 0.751442 0.792934 0.832049 0.876681 0.952685 1.01256 1.01259 0.945849 0.763535 0.433436 0 0 0.039974 0.0830416 0.121356 0.163481 0.201178 0.23881 0.273751 0.307159 0.341518 0.376739 0.412555 0.448827 0.48524 0.521877 0.558942 0.596468 0.634411 0.673187 0.713861 0.754852 0.794182 0.838997 0.911763 0.97448 0.983804 0.935025 0.788394 0.500406 0.171425 0 0 0.041097 0.0793087 0.127439 0.168614 0.213762 0.253225 0.289128 0.321277 0.352613 0.383505 0.414067 0.447765 0.483575 0.520546 0.558171 0.596283 0.63534 0.676006 0.716394 0.75608 0.802621 0.87478 0.935039 0.949044 0.91036 0.78585 0.531485 0.207665 0.0396021 0 0 0.0299184 0.0759953 0.118386 0.179789 0.231176 0.279884 0.319667 0.352436 0.380671 0.406639 0.432203 0.460851 0.490931 0.522778 0.559164 0.597872 0.638008 0.67783 0.718211 0.768282 0.840701 0.894768 0.909721 0.876006 0.764824 0.535542 0.228353 0.0504231 0.00426269 0 0 0.0106808 0.0346838 0.103376 0.172227 0.248558 0.308656 0.355268 0.39123 0.419801 0.444173 0.467342 0.490705 0.514461 0.540942 0.572312 0.604626 0.640698 0.682503 0.737437 0.807263 0.853376 0.866145 0.833212 0.728386 0.515828 0.230209 0.0560231 0.00563945 0.000173885 0 0 -0.0504482 -0.0322541 0.054766 0.163158 0.244125 0.310853 0.365283 0.409315 0.444872 0.474941 0.501512 0.52628 0.550445 0.575135 0.600896 0.627669 0.661897 0.711133 0.773371 0.812856 0.819625 0.783371 0.67845 0.47529 0.213791 0.0548186 0.00613335 0.000229235 1.77913e-06 0 0 -0.150528 -0.0929556 0.0721285 0.159157 0.230829 0.289824 0.33929 0.382259 0.42068 0.453641 0.486284 0.520814 0.556519 0.593368 0.631521 0.672451 0.717375 0.76299 0.789167 0.786398 0.739917 0.623728 0.419584 0.183131 0.0473817 0.00551977 0.000228456 2.14576e-06 9.18964e-09 0 0 -0.1601 -0.00441758 0.0712173 0.145998 0.204554 0.259793 0.314876 0.371239 0.429402 0.483287 0.523538 0.561537 0.607426 0.658927 0.712507 0.765843 0.815155 0.847834 0.844013 0.780076 0.620139 0.378165 0.150061 0.0363359 0.00410315 0.000172263 1.77356e-06 9.17038e-09 5.45187e-11 0 0 0 0 0 0 0 0 0 0 0 0 0 0 0 0 0 0 0 0 0 0 0 0 0 0 0 0 0 0 0 0
				</DataArray>
				<DataArray Name="VitesseY" type="Float32" format="ascii">
 0 0 0 0 0 0 0 0 0 0 0 0 0 0 0 0 0 0 0 0 0 0 0 0 0 0 0 0 0 0 0 -0.0362319 0.106222 0.107339 0.0921961 0.0554725 0.0186002 0.00213547 0.000940035 0.00455697 0.00993408 0.0158372 0.0217302 0.0268187 0.031179 0.0349393 0.0379046 0.039906 0.0409837 0.0413374 0.0413502 0.0412071 0.0409426 0.0420928 0.0460458 0.053559 0.0632652 0.0670951 0.0609152 0.049744 0.0378964 0 -0.100558 0.100086 0.185114 0.160701 0.115565 0.0621729 0.0324273 0.0275617 0.0291124 0.0342455 0.041614 0.0503421 0.0591856 0.0668531 0.0731905 0.0780986 0.0813795 0.083077 0.0835947 0.083561 0.0831337 0.082347 0.0839302 0.0907397 0.104422 0.122452 0.130899 0.119827 0.100205 0.0767633 0 -0.113034 0.0587899 0.21026 0.208751 0.18185 0.129924 0.0809477 0.0646994 0.0647717 0.069334 0.0767239 0.0858583 0.0961069 0.105251 0.112919 0.11884 0.122829 0.124888 0.125473 0.125369 0.124643 0.123236 0.124304 0.132615 0.150555 0.175193 0.189227 0.176543 0.15039 0.118611 0 -0.0995719 0.0462996 0.22495 0.239335 0.218707 0.181746 0.135627 0.110361 0.106424 0.108524 0.114736 0.123927 0.134595 0.14455 0.152895 0.159379 0.163726 0.165958 0.166566 0.166362 0.165268 0.163156 0.162641 0.171275 0.191895 0.221259 0.24198 0.230622 0.2007 0.163529 0 -0.0509883 0.0677049 0.227106 0.253862 0.244114 0.220528 0.18136 0.149542 0.143625 0.14545 0.151162 0.160402 0.172289 0.183764 0.192799 0.19965 0.204133 0.206379 0.206908 0.206512 0.204914 0.202037 0.199756 0.207604 0.229 0.261402 0.289 0.281769 0.250271 0.211427 0 0.0209531 0.117821 0.242532 0.273322 0.270802 0.255585 0.226283 0.193107 0.182342 0.182303 0.186504 0.195535 0.208008 0.221436 0.231762 0.239176 0.243882 0.246084 0.246472 0.245789 0.243604 0.239999 0.236313 0.242332 0.262625 0.296381 0.330122 0.32948 0.297851 0.26224 0 0.101663 0.176565 0.270005 0.293761 0.290179 0.278808 0.257386 0.228083 0.21549 0.215036 0.218814 0.227709 0.241071 0.256667 0.268815 0.27726 0.282375 0.284692 0.285025 0.28407 0.281374 0.27718 0.272459 0.275655 0.293628 0.327323 0.365202 0.373121 0.342522 0.315702 0 0.177798 0.235204 0.304077 0.325078 0.32108 0.310061 0.291206 0.265303 0.250593 0.248141 0.250503 0.258366 0.271594 0.288659 0.303235 0.313078 0.319018 0.321723 0.322147 0.321161 0.318283 0.313771 0.30855 0.307887 0.322988 0.355452 0.395047 0.412292 0.383524 0.371527 0 0.247187 0.292879 0.34054 0.357229 0.353283 0.343775 0.327485 0.304114 0.287079 0.282305 0.283533 0.289742 0.301798 0.318459 0.334971 0.346337 0.353465 0.356925 0.35774 0.357002 0.354326 0.349882 0.344652 0.341678 0.353129 0.381677 0.421086 0.445964 0.42115 0.429504 0 0.309115 0.346904 0.378683 0.389806 0.385929 0.37742 0.363166 0.343116 0.325052 0.318356 0.318441 0.322989 0.333374 0.348657 0.365339 0.377911 0.386134 0.390612 0.392062 0.391708 0.389537 0.385543 0.38067 0.376774 0.383649 0.406931 0.444561 0.475283 0.453805 0.483315 0 0.364222 0.395746 0.417102 0.422158 0.419473 0.412359 0.400337 0.383454 0.364974 0.356034 0.354742 0.357734 0.366243 0.379802 0.395878 0.408942 0.418007 0.423326 0.425467 0.425527 0.424069 0.420816 0.416533 0.412559 0.414089 0.432256 0.467443 0.501606 0.486322 0.523546 0 0.413684 0.439574 0.454205 0.45451 0.452628 0.446946 0.437042 0.423242 0.405953 0.395316 0.392652 0.394294 0.400777 0.412345 0.427114 0.440214 0.449651 0.455543 0.458366 0.458949 0.458178 0.45581 0.452293 0.448825 0.447764 0.460856 0.490722 0.526302 0.520818 0.561537 0 0.457969 0.479109 0.488452 0.48671 0.484424 0.480003 0.472421 0.461405 0.447277 0.436017 0.432287 0.432835 0.43744 0.446879 0.459778 0.472288 0.481577 0.48783 0.49126 0.492417 0.492198 0.490711 0.488067 0.485238 0.483574 0.490931 0.514463 0.550448 0.556518 0.607425 0 0.497912 0.514927 0.520606 0.518318 0.515489 0.511795 0.506008 0.497551 0.486805 0.477061 0.472862 0.472834 0.476057 0.48359 0.494416 0.505745 0.51451 0.520776 0.524582 0.526275 0.526481 0.525758 0.523989 0.521876 0.520545 0.522777 0.540942 0.575135 0.593368 0.658926 0 0.534258 0.54774 0.551303 0.549118 0.546183 0.542952 0.538428 0.53209 0.524187 0.516908 0.513362 0.513197 0.515715 0.521877 0.530874 0.540783 0.548829 0.55479 0.558712 0.560761 0.561398 0.561194 0.560231 0.55894 0.55817 0.559163 0.572312 0.600896 0.631521 0.712506 0 0.567856 0.578447 0.581042 0.579311 0.576711 0.573905 0.570391 0.565783 0.560304 0.55544 0.553081 0.553146 0.555568 0.560886 0.568485 0.577065 0.584332 0.589892 0.593736 0.595985 0.597071 0.597213 0.596964 0.596466 0.596282 0.597871 0.604626 0.62767 0.672451 0.765842 0 0.599722 0.607965 0.610251 0.609155 0.607198 0.604911 0.602283 0.599158 0.595708 0.592984 0.5919 0.592524 0.595236 0.600107 0.606685 0.614115 0.620675 0.625801 0.629515 0.631958 0.633306 0.633952 0.634332 0.63441 0.635339 0.638007 0.640698 0.661897 0.717375 0.815155 0 0.630793 0.637068 0.639282 0.63894 0.63776 0.636148 0.63438 0.632568 0.63084 0.629879 0.629974 0.631383 0.634468 0.639168 0.645088 0.651662 0.657552 0.662312 0.665978 0.668484 0.670165 0.671427 0.67216 0.673185 0.676005 0.67783 0.682503 0.711133 0.762991 0.847836 0 0.661785 0.666262 0.668465 0.668916 0.668574 0.667795 0.666887 0.666239 0.666042 0.666445 0.667679 0.669906 0.673317 0.677926 0.683456 0.689391 0.694796 0.699358 0.702895 0.705591 0.707817 0.709342 0.710765 0.71386 0.716393 0.718211 0.737436 0.773371 0.789168 0.844016 0 0.692996 0.695914 0.698109 0.699359 0.69996 0.70008 0.70014 0.700476 0.701391 0.702915 0.705134 0.708101 0.711888 0.716506 0.721738 0.727229 0.732359 0.736708 0.740334 0.743512 0.745899 0.747938 0.75144 0.754852 0.75608 0.768282 0.807264 0.812858 0.7864 0.780082 0 0.724395 0.725886 0.728282 0.730416 0.732041 0.733285 0.734265 0.735482 0.737148 0.739429 0.742335 0.745904 0.750095 0.754871 0.76008 0.765297 0.77013 0.774549 0.778584 0.781816 0.784626 0.78877 0.792933 0.794182 0.802622 0.840702 0.853378 0.819627 0.739922 0.620146 0 0.745992 0.747538 0.750918 0.755747 0.760922 0.764857 0.768219 0.77067 0.773175 0.776041 0.779457 0.783459 0.78802 0.793049 0.798344 0.803503 0.808464 0.813164 0.817152 0.820861 0.82589 0.830551 0.832049 0.838998 0.874782 0.89477 0.866147 0.783374 0.623733 0.378171 0 0.701022 0.701213 0.708805 0.719978 0.734367 0.752784 0.771861 0.790122 0.803179 0.810991 0.816058 0.820889 0.825962 0.831285 0.836784 0.842248 0.847419 0.852078 0.856815 0.862873 0.867648 0.869472 0.876682 0.911765 0.935042 0.909724 0.833215 0.678454 0.419589 0.150063 0 0.56963 0.57261 0.57903 0.593849 0.61782 0.648256 0.686636 0.727078 0.767905 0.805631 0.836015 0.854553 0.863532 0.869702 0.875826 0.881583 0.886986 0.892855 0.899679 0.904159 0.9065 0.915773 0.952687 0.974481 0.949046 0.876008 0.72839 0.475294 0.183134 0.0363368 0 0.33511 0.327409 0.330776 0.341602 0.368965 0.419931 0.484626 0.559607 0.636191 0.707341 0.769821 0.823876 0.868977 0.899622 0.914641 0.921806 0.929736 0.93673 0.940399 0.943737 0.957603 0.997698 1.01256 0.983805 0.910361 0.764826 0.51583 0.213793 0.0473825 0.00410328 0 0.0261333 0.01818 -0.0109212 -0.021304 0.00662731 0.0671468 0.158914 0.265057 0.376445 0.487818 0.593913 0.690717 0.77408 0.843218 0.900557 0.94434 0.966026 0.971955 0.981161 1.00822 1.04556 1.04706 1.01259 0.935026 0.785851 0.535543 0.23021 0.054819 0.00551985 0.000172268 0 -0.196985 -0.235456 -0.309668 -0.350488 -0.32788 -0.265865 -0.180536 -0.0741764 0.047897 0.177242 0.306553 0.432769 0.553234 0.666083 0.7674 0.85245 0.923343 0.985789 1.03515 1.06367 1.06183 1.02871 0.94585 0.788393 0.531484 0.228352 0.0560229 0.00613335 0.000228459 1.77361e-06 0 -0.228357 -0.292167 -0.468078 -0.477324 -0.450005 -0.409404 -0.351335 -0.278327 -0.190742 -0.0874121 0.0274656 0.144383 0.261365 0.379216 0.496765 0.615097 0.736674 0.851859 0.943185 0.990226 0.986917 0.920201 0.763533 0.500403 0.207663 0.0504224 0.00563937 0.000229233 2.14576e-06 9.17053e-09 0 0.0914217 -0.269134 -0.395701 -0.335195 -0.34032 -0.325636 -0.304797 -0.2739 -0.228074 -0.164393 -0.0843053 0.000987882 0.0780658 0.153151 0.23348 0.323421 0.423341 0.529243 0.629872 0.707475 0.732026 0.656868 0.433432 0.171422 0.0396012 0.00426256 0.00017388 1.77908e-06 9.18949e-09 5.45187e-11 0 2.68111 0 0 0 0 0 0 0 0 0 0 0 0 0 0 0 0 0 0 0 0 0 0 0 0 0 0 0 0 0 0
				</DataArray>
			</PointData>
			<CellData Scalars="Density">
				<DataArray Name="Density" type="Float32" format="ascii">