<?xml version="1.0"?>
<VTKFile type="PolyData">
	<PolyData>
		<Piece NumberOfPoints="961" NumberOfPolys="900">
			<Points>
				<DataArray type="Float32" NumberOfComponents="3" format="ascii">
 0 0 0 0.04 0 0 0.08 0 0 0.12 0 0 0.16 0 0 0.2 0 0 0.24 0 0 0.28 0 0 0.32 0 0 0.36 0 0 0.4 0 0 0.44 0 0 0.48 0 0 0.52 0 0 0.56 0 0 0.6 0 0 0.64 0 0 0.68 0 0 0.72 0 0 0.76 0 0 0.8 0 0 0.84 0 0 0.88 0 0 0.92 0 0 0.96 0 0 1 0 0 1.04 0 0 1.08 0 0 1.12 0 0 1.16 0 0 1.2 0 0 0 0.04 0 0.04 0.04 0 0.08 0.04 0 0.12 0.04 0 0.16 0.04 0 0.2 0.04 0 0.24 0.04 0 0.28 0.04 0 0.32 0.04 0 0.36 0.04 0 0.4 0.04 0 0.44 0.04 0 0.48 0.04 0 0.52 0.04 0 0.56 0.04 0 0.6 0.04 0 0.64 0.04 0 0.68 0.04 0 0.72 0.04 0 0.76 0.04 0 0.8 0.04 0 0.84 0.04 0 0.88 0.04 0 0.92 0.04 0 0.96 0.04 0 1 0.04 0 1.04 0.04 0 1.08 0.04 0 1.12 0.04 0 1.16 0.04 0 1.2 0.04 0 0 0.08 0 0.04 0.08 0 0.08 0.08 0 0.12 0.08 0 0.16 0.08 0 0.2 0.08 0 0.24 0.08 0 0.28 0.08 0 0.32 0.08 0 0.36 0.08 0 0.4 0.08 0 0.44 0.08 0 0.48 0.08 0 0.52 0.08 0 0.56 0.08 0 0.6 0.08 0 0.64 0.08 0 0.68 0.08 0 0.72 0.08 0 0.76 0.08 0 0.8 0.08 0 0.84 0.08 0 0.88 0.08 0 0.92 0.08 0 0.96 0.08 0 1 0.08 0 1.04 0.08 0 1.08 0.08 0 1.12 0.08 0 1.16 0.08 0 1.2 0.08 0 0 0.12 0 0.04 0.12 0 0.08 0.12 0 0.12 0.12 0 0.16 0.12 0 0.2 0.12 0 0.24 0.12 0 0.28 0.12 0 0.32 0.12 0 0.36 0.12 0 0.4 0.12 0 0.44 0.12 0 0.48 0.12 0 0.52 0.12 0 0.56 0.12 0 0.6 0.12 0 0.64 0.12 0 0.68 0.12 0 0.72 0.12 0 0.76 0.12 0 0.8 0.12 0 0.84 0.12 0 0.88 0.12 0 0.92 0.12 0 0.96 0.12 0 1 0.12 0 1.04 0.12 0 1.08 0.12 0 1.12 0.12 0 1.16 0.12 0 1.2 0.12 0 0 0.16 0 0.04 0.16 0 0.08 0.16 0 0.12 0.16 0 0.16 0.16 0 0.2 0.16 0 0.24 0.16 0 0.28 0.16 0 0.32 0.16 0 0.36 0.16 0 0.4 0.16 0 0.44 0.16 0 0.48 0.16 0 0.52 0.16 0 0.56 0.16 0 0.6 0.16 0 0.64 0.16 0 0.68 0.16 0 0.72 0.16 0 0.76 0.16 0 0.8 0.16 0 0.84 0.16 0 0.88 0.16 0 0.92 0.16 0 0.96 0.16 0 1 0.16 0 1.04 0.16 0 1.08 0.16 0 1.12 0.16 0 1.16 0.16 0 1.2 0.16 0 0 0.2 0 0.04 0.2 0 0.08 0.2 0 0.12 0.2 0 0.16 0.2 0 0.2 0.2 0 0.24 0.2 0 0.28 0.2 0 0.32 0.2 0 0.36 0.2 0 0.4 0.2 0 0.44 0.2 0 0.48 0.2 0 0.52 0.2 0 0.56 0.2 0 0.6 0.2 0 0.64 0.2 0 0.68 0.2 0 0.72 0.2 0 0.76 0.2 0 0.8 0.2 0 0.84 0.2 0 0.88 0.2 0 0.92 0.2 0 0.96 0.2 0 1 0.2 0 1.04 0.2 0 1.08 0.2 0 1.12 0.2 0 1.16 0.2 0 1.2 0.2 0 0 0.24 0 0.04 0.24 0 0.08 0.24 0 0.12 0.24 0 0.16 0.24 0 0.2 0.24 0 0.24 0.24 0 0.28 0.24 0 0.32 0.24 0 0.36 0.24 0 0.4 0.24 0 0.44 0.24 0 0.48 0.24 0 0.52 0.24 0 0.56 0.24 0 0.6 0.24 0 0.64 0.24 0 0.68 0.24 0 0.72 0.24 0 0.76 0.24 0 0.8 0.24 0 0.84 0.24 0 0.88 0.24 0 0.92 0.24 0 0.96 0.24 0 1 0.24 0 1.04 0.24 0 1.08 0.24 0 1.12 0.24 0 1.16 0.24 0 1.2 0.24 0 0 0.28 0 0.04 0.28 0 0.08 0.28 0 0.12 0.28 0 0.16 0.28 0 0.2 0.28 0 0.24 0.28 0 0.28 0.28 0 0.32 0.28 0 0.36 0.28 0 0.4 0.28 0 0.44 0.28 0 0.48 0.28 0 0.52 0.28 0 0.56 0.28 0 0.6 0.28 0 0.64 0.28 0 0.68 0.28 0 0.72 0.28 0 0.76 0.28 0 0.8 0.28 0 0.84 0.28 0 0.88 0.28 0 0.92 0.28 0 0.96 0.28 0 1 0.28 0 1.04 0.28 0 1.08 0.28 0 1.12 0.28 0 1.16 0.28 0 1.2 0.28 0 0 0.32 0 0.04 0.32 0 0.08 0.32 0 0.12 0.32 0 0.16 0.32 0 0.2 0.32 0 0.24 0.32 0 0.28 0.32 0 0.32 0.32 0 0.36 0.32 0 0.4 0.32 0 0.44 0.32 0 0.48 0.32 0 0.52 0.32 0 0.56 0.32 0 0.6 0.32 0 0.64 0.32 0 0.68 0.32 0 0.72 0.32 0 0.76 0.32 0 0.8 0.32 0 0.84 0.32 0 0.88 0.32 0 0.92 0.32 0 0.96 0.32 0 1 0.32 0 1.04 0.32 0 1.08 0.32 0 1.12 0.32 0 1.16 0.32 0 1.2 0.32 0 0 0.36 0 0.04 0.36 0 0.08 0.36 0 0.12 0.36 0 0.16 0.36 0 0.2 0.36 0 0.24 0.36 0 0.28 0.36 0 0.32 0.36 0 0.36 0.36 0 0.4 0.36 0 0.44 0.36 0 0.48 0.36 0 0.52 0.36 0 0.56 0.36 0 0.6 0.36 0 0.64 0.36 0 0.68 0.36 0 0.72 0.36 0 0.76 0.36 0 0.8 0.36 0 0.84 0.36 0 0.88 0.36 0 0.92 0.36 0 0.96 0.36 0 1 0.36 0 1.04 0.36 0 1.08 0.36 0 1.12 0.36 0 1.16 0.36 0 1.2 0.36 0 0 0.4 0 0.04 0.4 0 0.08 0.4 0 0.12 0.4 0 0.16 0.4 0 0.2 0.4 0 0.24 0.4 0 0.28 0.4 0 0.32 0.4 0 0.36 0.4 0 0.4 0.4 0 0.44 0.4 0 0.48 0.4 0 0.52 0.4 0 0.56 0.4 0 0.6 0.4 0 0.64 0.4 0 0.68 0.4 0 0.72 0.4 0 0.76 0.4 0 0.8 0.4 0 0.84 0.4 0 0.88 0.4 0 0.92 0.4 0 0.96 0.4 0 1 0.4 0 1.04 0.4 0 1.08 0.4 0 1.12 0.4 0 1.16 0.4 0 1.2 0.4 0 0 0.44 0 0.04 0.44 0 0.08 0.44 0 0.12 0.44 0 0.16 0.44 0 0.2 0.44 0 0.24 0.44 0 0.28 0.44 0 0.32 0.44 0 0.36 0.44 0 0.4 0.44 0 0.44 0.44 0 0.48 0.44 0 0.52 0.44 0 0.56 0.44 0 0.6 0.44 0 0.64 0.44 0 0.68 0.44 0 0.72 0.44 0 0.76 0.44 0 0.8 0.44 0 0.84 0.44 0 0.88 0.44 0 0.92 0.44 0 0.96 0.44 0 1 0.44 0 1.04 0.44 0 1.08 0.44 0 1.12 0.44 0 1.16 0.44 0 1.2 0.44 0 0 0.48 0 0.04 0.48 0 0.08 0.48 0 0.12 0.48 0 0.16 0.48 0 0.2 0.48 0 0.24 0.48 0 0.28 0.48 0 0.32 0.48 0 0.36 0.48 0 0.4 0.48 0 0.44 0.48 0 0.48 0.48 0 0.52 0.48 0 0.56 0.48 0 0.6 0.48 0 0.64 0.48 0 0.68 0.48 0 0.72 0.48 0 0.76 0.48 0 0.8 0.48 0 0.84 0.48 0 0.88 0.48 0 0.92 0.48 0 0.96 0.48 0 1 0.48 0 1.04 0.48 0 1.08 0.48 0 1.12 0.48 0 1.16 0.48 0 1.2 0.48 0 0 0.52 0 0.04 0.52 0 0.08 0.52 0 0.12 0.52 0 0.16 0.52 0 0.2 0.52 0 0.24 0.52 0 0.28 0.52 0 0.32 0.52 0 0.36 0.52 0 0.4 0.52 0 0.44 0.52 0 0.48 0.52 0 0.52 0.52 0 0.56 0.52 0 0.6 0.52 0 0.64 0.52 0 0.68 0.52 0 0.72 0.52 0 0.76 0.52 0 0.8 0.52 0 0.84 0.52 0 0.88 0.52 0 0.92 0.52 0 0.96 0.52 0 1 0.52 0 1.04 0.52 0 1.08 0.52 0 1.12 0.52 0 1.16 0.52 0 1.2 0.52 0 0 0.56 0 0.04 0.56 0 0.08 0.56 0 0.12 0.56 0 0.16 0.56 0 0.2 0.56 0 0.24 0.56 0 0.28 0.56 0 0.32 0.56 0 0.36 0.56 0 0.4 0.56 0 0.44 0.56 0 0.48 0.56 0 0.52 0.56 0 0.56 0.56 0 0.6 0.56 0 0.64 0.56 0 0.68 0.56 0 0.72 0.56 0 0.76 0.56 0 0.8 0.56 0 0.84 0.56 0 0.88 0.56 0 0.92 0.56 0 0.96 0.56 0 1 0.56 0 1.04 0.56 0 1.08 0.56 0 1.12 0.56 0 1.16 0.56 0 1.2 0.56 0 0 0.6 0 0.04 0.6 0 0.08 0.6 0 0.12 0.6 0 0.16 0.6 0 0.2 0.6 0 0.24 0.6 0 0.28 0.6 0 0.32 0.6 0 0.36 0.6 0 0.4 0.6 0 0.44 0.6 0 0.48 0.6 0 0.52 0.6 0 0.56 0.6 0 0.6 0.6 0 0.64 0.6 0 0.68 0.6 0 0.72 0.6 0 0.76 0.6 0 0.8 0.6 0 0.84 0.6 0 0.88 0.6 0 0.92 0.6 0 0.96 0.6 0 1 0.6 0 1.04 0.6 0 1.08 0.6 0 1.12 0.6 0 1.16 0.6 0 1.2 0.6 0 0 0.64 0 0.04 0.64 0 0.08 0.64 0 0.12 0.64 0 0.16 0.64 0 0.2 0.64 0 0.24 0.64 0 0.28 0.64 0 0.32 0.64 0 0.36 0.64 0 0.4 0.64 0 0.44 0.64 0 0.48 0.64 0 0.52 0.64 0 0.56 0.64 0 0.6 0.64 0 0.64 0.64 0 0.68 0.64 0 0.72 0.64 0 0.76 0.64 0 0.8 0.64 0 0.84 0.64 0 0.88 0.64 0 0.92 0.64 0 0.96 0.64 0 1 0.64 0 1.04 0.64 0 1.08 0.64 0 1.12 0.64 0 1.16 0.64 0 1.2 0.64 0 0 0.68 0 0.04 0.68 0 0.08 0.68 0 0.12 0.68 0 0.16 0.68 0 0.2 0.68 0 0.24 0.68 0 0.28 0.68 0 0.32 0.68 0 0.36 0.68 0 0.4 0.68 0 0.44 0.68 0 0.48 0.68 0 0.52 0.68 0 0.56 0.68 0 0.6 0.68 0 0.64 0.68 0 0.68 0.68 0 0.72 0.68 0 0.76 0.68 0 0.8 0.68 0 0.84 0.68 0 0.88 0.68 0 0.92 0.68 0 0.96 0.68 0 1 0.68 0 1.04 0.68 0 1.08 0.68 0 1.12 0.68 0 1.16 0.68 0 1.2 0.68 0 0 0.72 0 0.04 0.72 0 0.08 0.72 0 0.12 0.72 0 0.16 0.72 0 0.2 0.72 0 0.24 0.72 0 0.28 0.72 0 0.32 0.72 0 0.36 0.72 0 0.4 0.72 0 0.44 0.72 0 0.48 0.72 0 0.52 0.72 0 0.56 0.72 0 0.6 0.72 0 0.64 0.72 0 0.68 0.72 0 0.72 0.72 0 0.76 0.72 0 0.8 0.72 0 0.84 0.72 0 0.88 0.72 0 0.92 0.72 0 0.96 0.72 0 1 0.72 0 1.04 0.72 0 1.08 0.72 0 1.12 0.72 0 1.16 0.72 0 1.2 0.72 0 0 0.76 0 0.04 0.76 0 0.08 0.76 0 0.12 0.76 0 0.16 0.76 0 0.2 0.76 0 0.24 0.76 0 0.28 0.76 0 0.32 0.76 0 0.36 0.76 0 0.4 0.76 0 0.44 0.76 0 0.48 0.76 0 0.52 0.76 0 0.56 0.76 0 0.6 0.76 0 0.64 0.76 0 0.68 0.76 0 0.72 0.76 0 0.76 0.76 0 0.8 0.76 0 0.84 0.76 0 0.88 0.76 0 0.92 0.76 0 0.96 0.76 0 1 0.76 0 1.04 0.76 0 1.08 0.76 0 1.12 0.76 0 1.16 0.76 0 1.2 0.76 0 0 0.8 0 0.04 0.8 0 0.08 0.8 0 0.12 0.8 0 0.16 0.8 0 0.2 0.8 0 0.24 0.8 0 0.28 0.8 0 0.32 0.8 0 0.36 0.8 0 0.4 0.8 0 0.44 0.8 0 0.48 0.8 0 0.52 0.8 0 0.56 0.8 0 0.6 0.8 0 0.64 0.8 0 0.68 0.8 0 0.72 0.8 0 0.76 0.8 0 0.8 0.8 0 0.84 0.8 0 0.88 0.8 0 0.92 0.8 0 0.96 0.8 0 1 0.8 0 1.04 0.8 0 1.08 0.8 0 1.12 0.8 0 1.16 0.8 0 1.2 0.8 0 0 0.84 0 0.04 0.84 0 0.08 0.84 0 0.12 0.84 0 0.16 0.84 0 0.2 0.84 0 0.24 0.84 0 0.28 0.84 0 0.32 0.84 0 0.36 0.84 0 0.4 0.84 0 0.44 0.84 0 0.48 0.84 0 0.52 0.84 0 0.56 0.84 0 0.6 0.84 0 0.64 0.84 0 0.68 0.84 0 0.72 0.84 0 0.76 0.84 0 0.8 0.84 0 0.84 0.84 0 0.88 0.84 0 0.92 0.84 0 0.96 0.84 0 1 0.84 0 1.04 0.84 0 1.08 0.84 0 1.12 0.84 0 1.16 0.84 0 1.2 0.84 0 0 0.88 0 0.04 0.88 0 0.08 0.88 0 0.12 0.88 0 0.16 0.88 0 0.2 0.88 0 0.24 0.88 0 0.28 0.88 0 0.32 0.88 0 0.36 0.88 0 0.4 0.88 0 0.44 0.88 0 0.48 0.88 0 0.52 0.88 0 0.56 0.88 0 0.6 0.88 0 0.64 0.88 0 0.68 0.88 0 0.72 0.88 0 0.76 0.88 0 0.8 0.88 0 0.84 0.88 0 0.88 0.88 0 0.92 0.88 0 0.96 0.88 0 1 0.88 0 1.04 0.88 0 1.08 0.88 0 1.12 0.88 0 1.16 0.88 0 1.2 0.88 0 0 0.92 0 0.04 0.92 0 0.08 0.92 0 0.12 0.92 0 0.16 0.92 0 0.2 0.92 0 0.24 0.92 0 0.28 0.92 0 0.32 0.92 0 0.36 0.92 0 0.4 0.92 0 0.44 0.92 0 0.48 0.92 0 0.52 0.92 0 0.56 0.92 0 0.6 0.92 0 0.64 0.92 0 0.68 0.92 0 0.72 0.92 0 0.76 0.92 0 0.8 0.92 0 0.84 0.92 0 0.88 0.92 0 0.92 0.92 0 0.96 0.92 0 1 0.92 0 1.04 0.92 0 1.08 0.92 0 1.12 0.92 0 1.16 0.92 0 1.2 0.92 0 0 0.96 0 0.04 0.96 0 0.08 0.96 0 0.12 0.96 0 0.16 0.96 0 0.2 0.96 0 0.24 0.96 0 0.28 0.96 0 0.32 0.96 0 0.36 0.96 0 0.4 0.96 0 0.44 0.96 0 0.48 0.96 0 0.52 0.96 0 0.56 0.96 0 0.6 0.96 0 0.64 0.96 0 0.68 0.96 0 0.72 0.96 0 0.76 0.96 0 0.8 0.96 0 0.84 0.96 0 0.88 0.96 0 0.92 0.96 0 0.96 0.96 0 1 0.96 0 1.04 0.96 0 1.08 0.96 0 1.12 0.96 0 1.16 0.96 0 1.2 0.96 0 0 1 0 0.04 1 0 0.08 1 0 0.12 1 0 0.16 1 0 0.2 1 0 0.24 1 0 0.28 1 0 0.32 1 0 0.36 1 0 0.4 1 0 0.44 1 0 0.48 1 0 0.52 1 0 0.56 1 0 0.6 1 0 0.64 1 0 0.68 1 0 0.72 1 0 0.76 1 0 0.8 1 0 0.84 1 0 0.88 1 0 0.92 1 0 0.96 1 0 1 1 0 1.04 1 0 1.08 1 0 1.12 1 0 1.16 1 0 1.2 1 0 0 1.04 0 0.04 1.04 0 0.08 1.04 0 0.12 1.04 0 0.16 1.04 0 0.2 1.04 0 0.24 1.04 0 0.28 1.04 0 0.32 1.04 0 0.36 1.04 0 0.4 1.04 0 0.44 1.04 0 0.48 1.04 0 0.52 1.04 0 0.56 1.04 0 0.6 1.04 0 0.64 1.04 0 0.68 1.04 0 0.72 1.04 0 0.76 1.04 0 0.8 1.04 0 0.84 1.04 0 0.88 1.04 0 0.92 1.04 0 0.96 1.04 0 1 1.04 0 1.04 1.04 0 1.08 1.04 0 1.12 1.04 0 1.16 1.04 0 1.2 1.04 0 0 1.08 0 0.04 1.08 0 0.08 1.08 0 0.12 1.08 0 0.16 1.08 0 0.2 1.08 0 0.24 1.08 0 0.28 1.08 0 0.32 1.08 0 0.36 1.08 0 0.4 1.08 0 0.44 1.08 0 0.48 1.08 0 0.52 1.08 0 0.56 1.08 0 0.6 1.08 0 0.64 1.08 0 0.68 1.08 0 0.72 1.08 0 0.76 1.08 0 0.8 1.08 0 0.84 1.08 0 0.88 1.08 0 0.92 1.08 0 0.96 1.08 0 1 1.08 0 1.04 1.08 0 1.08 1.08 0 1.12 1.08 0 1.16 1.08 0 1.2 1.08 0 0 1.12 0 
[...]
			<PointData Scalars="VitesseX">
				<DataArray Name="VitesseX" type="Float32" format="ascii">
 0 -0.00203002 -0.0220182 -0.00674798 -0.00170701 0.0334425 0.0663339 0.0833249 0.108445 0.12918 0.149031 0.169015 0.188616 0.208161 0.22869 0.249331 0.272315 0.293632 0.326303 0.374646 0.367215 0.311282 0.189922 0.0469005 0.00127125 6.1412e-07 7.41912e-11 1.17073e-14 -7.6447e-15 7.64483e-15 0 0 0.0416627 0.0441431 0.0550948 0.0457709 0.0630491 0.0857577 0.0971897 0.118886 0.136569 0.154179 0.172453 0.190865 0.209376 0.22908 0.249091 0.271669 0.29252 0.32595 0.373008 0.364315 0.307193 0.185199 0.0441267 0.00112406 5.22721e-07 6.67117e-11 1.0939e-14 -7.64719e-15 7.64722e-15 0 0 0.0332522 0.0627481 0.0856071 0.0846463 0.0944114 0.106755 0.113143 0.129341 0.143496 0.158785 0.175659 0.193286 0.211344 0.230714 0.250516 0.272917 0.292986 0.329142 0.372092 0.359729 0.298119 0.172461 0.0366538 0.000773967 3.2563e-07 4.83178e-11 8.04716e-15 -7.68351e-15 3.88728e-15 0 0 0.016094 0.0585282 0.0789491 0.0880688 0.102538 0.114598 0.124186 0.137715 0.150086 0.164043 0.179713 0.196496 0.214194 0.233219 0.252884 0.274819 0.294332 0.335607 0.370609 0.352977 0.283761 0.152108 0.0265511 0.000408727 1.53077e-07 2.79966e-11 4.35947e-15 -3.83628e-15 3.88483e-15 0 0 0.00991533 0.0426611 0.0683644 0.0826877 0.103223 0.116647 0.129016 0.144155 0.15659 0.170154 0.184985 0.20088 0.21822 0.236626 0.256351 0.277344 0.297238 0.344514 0.367602 0.34291 0.262795 0.124498 0.0161983 0.000161153 5.67732e-08 1.29784e-11 -1.63219e-15 2.23832e-17 3.82235e-15 0 0 0.0126228 0.0344231 0.0609767 0.076753 0.101275 0.115397 0.130419 0.147373 0.161579 0.175993 0.191123 0.206269 0.223407 0.240953 0.261086 0.280303 0.302701 0.353466 0.362126 0.32758 0.233443 0.0908242 0.00789536 4.5875e-05 1.71148e-08 4.84741e-12 1.1782e-15 -3.89741e-15 -4.33598e-19 0 0 0.013092 0.0318405 0.0575756 0.0769986 0.0975318 0.113629 0.131952 0.149153 0.164396 0.180751 0.196289 0.211952 0.228897 0.245821 0.266279 0.283204 0.312623 0.358441 0.353221 0.304245 0.193967 0.0554161 0.00288988 9.12729e-06 4.12608e-09 1.45579e-12 -2.15178e-14 2.18759e-14 -3.8979e-15 0 0 0.0132215 0.0324399 0.055899 0.0768741 0.0961321 0.114946 0.133624 0.150016 0.166508 0.183961 0.199816 0.216905 0.232883 0.251079 0.270074 0.286677 0.32843 0.356323 0.337962 0.270596 0.143692 0.0267428 0.000751783 1.27193e-06 7.56569e-10 3.19554e-13 6.97564e-19 -6.63067e-20 2.18759e-14 0 0 0.0141511 0.0337426 0.0551955 0.0761114 0.0964315 0.115999 0.133889 0.150674 0.168452 0.185356 0.202777 0.219628 0.235988 0.255976 0.271645 0.294091 0.341466 0.346713 0.313112 0.223381 0.0872842 0.00946884 0.00013081 1.41106e-07 1.0544e-10 3.93375e-14 -5.59887e-17 9.20347e-18 2.18505e-14 0 0 0.0151391 0.0335889 0.0538194 0.0749564 0.0957323 0.1153 0.133472 0.151302 0.168661 0.186311 0.204186 0.220538 0.239701 0.257513 0.273004 0.311 0.341933 0.329586 0.274062 0.160393 0.0393478 0.00224516 1.40052e-05 1.47946e-08 1.25492e-11 1.26878e-14 -2.18849e-14 1.40055e-17 1.7916e-14 0 0 0.0157264 0.0333824 0.0525172 0.0729925 0.0937061 0.113632 0.132408 0.150324 0.168325 0.186569 0.203554 0.222108 0.24168 0.256515 0.281343 0.325526 0.330055 0.299519 0.216849 0.0889441 0.0123501 0.0003291 9.11544e-07 1.28523e-09 1.34914e-12 1.09559e-15 7.8249e-15 -2.96658e-14 2.57364e-14 0 0 0.0160451 0.0333283 0.0516062 0.0708504 0.0907565 0.110583 0.129678 0.148559 0.167206 0.184784 0.203571 0.223846 0.23978 0.259116 0.301667 0.321661 0.306725 0.250258 0.139616 0.0340315 0.00239215 2.67184e-05 4.97044e-08 8.12777e-11 1.12357e-13 1.08637e-15 -1.68466e-16 2.16913e-16 -1.90183e-14 0 0 0.0161518 0.0332264 0.0508223 0.0690379 0.0878948 0.107187 0.126662 0.145798 0.164463 0.184141 0.2045 0.221501 0.2399 0.27717 0.306459 0.302662 0.264971 0.176852 0.0623936 0.0082707 0.000256248 1.11793e-06 2.68178e-09 4.80153e-12 7.09736e-15 2.3854e-17 -6.15557e-14 6.15729e-14 -2.18692e-14 0 0 0.0161822 0.0330308 0.0501997 0.0678355 0.0860692 0.104902 0.1241 0.143695 0.163993 0.184099 0.201876 0.221341 0.255741 0.287897 0.291339 0.265998 0.196921 0.0884636 0.0176755 0.00109391 1.28842e-05 3.78248e-08 1.03317e-10 2.46408e-13 4.35056e-16 2.47243e-14 -5.7459e-14 5.74578e-14 -2.47302e-14 0 0 0.0161573 0.0327983 0.0497403 0.0671569 0.0852066 0.103996 0.123551 0.143571 0.163075 0.181726 0.203437 0.237658 0.267693 0.275106 0.257163 0.202086 0.105381 0.0274297 0.00271804 6.73847e-05 3.15386e-07 1.27234e-09 3.74286e-12 8.67106e-15 1.04257e-16 -1.28148e-18 2.57708e-14 -2.57708e-14 -5.26772e-18 0 0 0.016154 0.032756 0.0497286 0.0672456 0.0854089 0.104237 0.123403 0.14256 0.16265 0.187666 0.221405 0.246637 0.255061 0.241128 0.195207 0.110642 0.0340002 0.00459189 0.000188751 1.5898e-06 7.82231e-09 3.06755e-11 1.22965e-13 2.6096e-14 -1.40205e-18 -5.15397e-14 5.15396e-14 -5.15396e-14 5.15431e-14 0 0 0.0163232 0.0330273 0.0501656 0.0677716 0.0858151 0.104446 0.124264 0.147002 0.175488 0.204092 0.224566 0.231577 0.219158 0.178522 0.104578 0.0353181 0.00577082 0.000329452 4.51899e-06 2.69242e-08 1.52431e-10 7.74618e-13 2.89882e-14 -2.57123e-14 5.5273e-20 -1.03628e-18 2.57709e-14 -2.57709e-14 -5.26038e-18 0 0 0.0164827 0.0334731 0.0511439 0.0695998 0.089303 0.111309 0.136342 0.161589 0.183747 0.20064 0.204422 0.191604 0.15356 0.0891182 0.0312747 0.00563269 0.000390387 7.45896e-06 5.62188e-08 4.41008e-10 2.70551e-12 6.37716e-14 -2.53696e-14 6.4283e-18 -1.21349e-20 2.5769e-14 -7.03412e-14 7.03412e-14 -2.57752e-14 0 0 0.0180116 0.0370287 0.0571238 0.0781331 0.0997622 0.121347 0.141908 0.160657 0.172427 0.172956 0.158235 0.121632 0.0673211 0.0234155 0.00428825 0.000323198 7.42662e-06 7.17115e-08 7.41695e-10 5.73714e-12 8.51132e-14 1.12475e-16 2.1374e-17 2.98128e-18 2.82934e-18 2.5769e-14 -7.03413e-14 4.45668e-14 -9.06806e-18 0 0 0.0203569 0.0407323 0.0608154 0.0807863 0.100298 0.118228 0.132205 0.139324 0.13629 0.118988 0.0850088 0.0434188 0.0142857 0.00245949 0.000182575 4.45917e-06 5.56107e-08 7.38439e-10 7.37003e-12 2.572e-14 4.42063e-14 -4.12194e-16 2.63592e-17 -1.94849e-18 2.84147e-18 -1.03628e-18 2.57709e-14 -5.15453e-14 2.57609e-14 0 0 0.0201652 0.0395843 0.0578085 0.0745306 0.0886217 0.098141 0.100819 0.0942415 0.0761783 0.0490302 0.0225534 0.00652694 0.000978273 6.47255e-05 1.55135e-06 2.63457e-08 4.34865e-10 5.68055e-12 1.13413e-13 -5.94467e-17 2.56822e-17 2.57835e-14 -5.1546e-14 5.15459e-14 -1.43111e-20 -5.15397e-14 5.15384e-14 -2.57664e-14 2.57695e-14 0 0 0.0170991 0.0323912 0.0453061 0.0549873 0.0600225 0.0590204 0.0512038 0.037349 0.0210703 0.00823857 0.00190981 0.000231377 1.23176e-05 3.02366e-07 7.58012e-09 1.48484e-10 2.69822e-12 -1.40883e-15 4.33853e-14 -1.69479e-18 3.26194e-17 -2.28847e-17 4.14491e-16 -4.00122e-16 3.1658e-18 1.4578e-18 2.57671e-14 -2.57665e-14 2.57694e-14 0 0 0.0100783 0.0180244 0.0231888 0.0250413 0.0234325 0.0186192 0.0118326 0.00542349 0.00159622 0.00027452 2.45121e-05 1.04857e-06 3.55233e-08 1.21928e-09 2.93791e-11 7.55992e-13 1.1947e-14 9.0988e-16 -3.84817e-16 2.57835e-14 -5.15521e-14 2.57676e-14 3.8583e-16 -3.7452e-16 1.42838e-18 2.57731e-14 -2.57745e-14 -2.57723e-14 5.15488e-14 0 0 0.00275393 0.00465018 0.00527007 0.00463404 0.00312035 0.00150535 0.000490384 0.00010185 1.21753e-05 8.17553e-07 4.4668e-08 2.49051e-09 9.65103e-11 3.51836e-12 1.177e-13 2.82697e-14 -2.53594e-14 -2.03922e-17 2.53772e-17 -3.29583e-18 3.8878e-16 -4.11441e-16 5.78965e-19 2.37438e-17 6.30197e-18 -3.18341e-17 4.24694e-16 -4.0439e-16 -4.45806e-14 0 0 0.000128744 0.000179342 0.000145129 7.80158e-05 2.81446e-05 6.62506e-06 1.00552e-06 1.13804e-07 1.23944e-08 1.13391e-09 7.23894e-11 4.29406e-12 2.30035e-13 8.35527e-15 2.59752e-14 -2.57092e-14 -9.48717e-18 7.25122e-18 -2.21077e-18 -1.9317e-19 4.00122e-16 -4.25841e-16 2.79916e-17 -2.07963e-18 7.99844e-18 -3.62493e-17 -4.41416e-14 6.99344e-14 -7.03503e-14 0 0 8.18719e-08 9.77804e-08 6.41035e-08 2.90392e-08 1.01606e-08 2.80229e-09 5.68839e-10 8.29201e-11 1.00755e-11 1.13998e-12 9.88396e-14 1.43205e-14 -5.13177e-14 5.16464e-14 -1.51257e-18 -5.15397e-14 5.15396e-14 -5.15425e-14 5.15426e-14 1.43007e-20 -5.15429e-14 5.15411e-14 -5.15358e-14 5.15376e-14 -1.03479e-18 -2.5992e-18 -1.40692e-13 1.40689e-13 7.72352e-18 0 0 7.48294e-12 1.09228e-11 9.4058e-12 5.62262e-12 2.51355e-12 8.80759e-13 2.12777e-13 6.75694e-14 2.74352e-15 9.92671e-16 1.05359e-15 5.77431e-15 -2.47285e-14 7.73115e-19 -1.42355e-34 -1.03628e-18 2.57709e-14 -2.57709e-14 1.03628e-18 -2.42069e-24 1.4578e-18 2.57666e-14 -5.15614e-14 5.15605e-14 6.5157e-19 -7.03745e-14 8.23684e-16 -8.23734e-16 7.03776e-14 0 0 7.72384e-16 2.22129e-15 -6.12901e-15 4.52728e-15 5.57696e-16 -2.16128e-14 9.42027e-17 -5.59902e-17 2.18856e-14 -3.17421e-17 -5.91945e-15 -4.97024e-14 5.95454e-14 -2.57689e-14 -9.84358e-34 2.5769e-14 -7.03412e-14 7.03412e-14 -2.57689e-14 -1.22938e-18 2.57726e-14 -2.57745e-14 3.7389e-16 -4.49455e-14 -1.02658e-17 7.80488e-16 4.79717e-17 -4.80213e-17 -7.5092e-16 0 0 -2.932e-16 -5.39363e-15 -3.8308e-15 7.45384e-17 3.89827e-15 -2.18759e-14 -6.62459e-20 -9.13767e-18 1.46324e-17 2.18692e-14 -5.93103e-15 -4.97221e-14 5.95466e-14 -2.57689e-14 -1.06855e-33 2.5769e-14 -7.03413e-14 4.45668e-14 5.51613e-18 2.57707e-14 -2.57707e-14 -2.57786e-14 5.19452e-14 -7.07443e-14 -7.27621e-18 7.80438e-16 4.80216e-17 -4.789e-17 -7.51052e-16 0 0 -1.79286e-10 -9.25933e-15 3.83155e-15 -3.77033e-15 4.33587e-19 3.89775e-15 -2.18759e-14 2.18506e-14 -2.57748e-14 2.57992e-14 -2.47331e-14 2.75851e-14 -2.47366e-14 1.06478e-17 -1.48303e-37 -1.06552e-17 2.57805e-14 -5.15632e-14 2.57934e-14 2.57703e-14 -2.57704e-14 -5.30021e-18 -4.45897e-14 7.03597e-14 1.50553e-18 -7.03714e-14 8.46963e-16 -8.46832e-16 7.03744e-14 0 0 0 0 0 0 0 0 0 0 0 0 0 0 0 0 0 0 0 0 0 0 0 0 0 0 0 0 0 0 0 0
				</DataArray>
				<DataArray Name="VitesseY" type="Float32" format="ascii">
 0 0 0 0 0 0 0 0 0 0 0 0 0 0 0 0 0 0 0 0 0 0 0 0 0 0 0 0 0 0 0 -0.00201114 0.0416661 0.0332506 0.0160898 0.00991181 0.0126203 0.0130909 0.0132214 0.0141516 0.0151399 0.0157271 0.0160454 0.016152 0.0161825 0.0161577 0.0161544 0.0163234 0.0164828 0.0180115 0.0203566 0.0201647 0.0170981 0.0100773 0.00275351 0.000128707 8.18324e-08 7.47948e-12 7.68334e-16 -2.44816e-18 -2.54999e-18 0 -0.0220026 0.0441545 0.0627491 0.0585263 0.0426587 0.0344209 0.0318384 0.0324384 0.0337422 0.0335895 0.0333832 0.0333287 0.0332267 0.0330312 0.0327988 0.0327565 0.0330276 0.033473 0.0370285 0.0407309 0.0395825 0.0323891 0.0180226 0.00464952 0.000179293 9.7736e-08 1.09179e-11 2.22052e-15 6.31212e-17 -3.73303e-15 0 -0.00674095 0.0551075 0.08561 0.0789493 0.0683625 0.0609729 0.0575713 0.0558956 0.0551931 0.0538185 0.0525176 0.0516068 0.0508229 0.0502003 0.0497409 0.0497291 0.0501657 0.0511437 0.0571233 0.0608138 0.0578063 0.0453032 0.0231865 0.00526938 0.000145093 6.40775e-08 9.40187e-12 -6.12532e-15 -3.80839e-15 3.83255e-15 0 -0.00170394 0.0457834 0.0846569 0.0880741 0.0826901 0.076753 0.0769965 0.0768703 0.0761075 0.074954 0.0729923 0.0708517 0.0690392 0.0678364 0.0671575 0.0672461 0.0677716 0.0695996 0.078132 0.0807842 0.0745277 0.054984 0.0250392 0.0046335 7.79983e-05 2.90293e-08 5.62042e-12 4.52458e-15 7.4667e-17 -3.77007e-15 0 0.0334384 0.0630524 0.0944189 0.102543 0.103226 0.101274 0.0975282 0.096127 0.0964266 0.0957289 0.0937055 0.0907584 0.0878968 0.0860705 0.0852073 0.0854093 0.0858152 0.0893027 0.0997607 0.100295 0.0886186 0.0600194 0.0234309 0.00312007 2.81392e-05 1.01578e-08 2.51279e-12 5.57761e-16 3.89827e-15 4.33555e-19 0 0.0663348 0.0857646 0.106767 0.114606 0.11665 0.115397 0.113626 0.114941 0.115994 0.115297 0.113631 0.110584 0.10719 0.104904 0.103997 0.104237 0.104446 0.111309 0.121345 0.118226 0.0981383 0.0590179 0.0186184 0.00150526 6.62411e-06 2.80169e-09 8.8046e-13 -2.16127e-14 -2.18759e-14 3.89775e-15 0 0.0833229 0.0971926 0.113151 0.124193 0.129019 0.130418 0.131949 0.13362 0.133884 0.133469 0.132407 0.129679 0.126664 0.124101 0.123552 0.123404 0.124264 0.136341 0.141907 0.132204 0.100817 0.0512028 0.0118325 0.000490376 1.00544e-06 5.68751e-10 2.12742e-13 9.42027e-17 -6.62509e-20 -2.18759e-14 0 0.108444 0.118889 0.129346 0.137721 0.144156 0.147372 0.14915 0.150012 0.15067 0.151299 0.150323 0.148559 0.145799 0.143696 0.143572 0.142561 0.147002 0.161588 0.160656 0.139323 0.0942412 0.0373494 0.00542364 0.000101853 1.13802e-07 8.29125e-11 6.75696e-14 -5.59902e-17 -9.13768e-18 2.18506e-14 0 0.129181 0.136573 0.143499 0.150089 0.15659 0.161578 0.164394 0.166505 0.168449 0.168659 0.168324 0.167206 0.164464 0.163994 0.163076 0.16265 0.175488 0.183747 0.172428 0.136291 0.0761797 0.0210712 0.00159634 1.21764e-05 1.23949e-08 1.00753e-11 2.73852e-15 2.18856e-14 1.46324e-17 -2.57748e-14 0 0.149033 0.154183 0.158789 0.164046 0.170154 0.175991 0.180749 0.183959 0.185354 0.186309 0.186568 0.184784 0.184141 0.1841 0.181726 0.187666 0.204092 0.200641 0.172958 0.118991 0.0490324 0.00823919 0.000274554 8.17675e-07 1.13401e-09 1.14002e-12 9.97797e-16 -3.17421e-17 2.18692e-14 2.57992e-14 0 0.169018 0.172457 0.175662 0.179715 0.184985 0.191121 0.196286 0.199814 0.202775 0.204185 0.203553 0.203571 0.204501 0.201877 0.203437 0.221406 0.224567 0.204425 0.158239 0.0850121 0.0225549 0.00191004 2.45165e-05 4.46755e-08 7.23998e-11 9.88242e-14 1.05359e-15 -5.91945e-15 -5.93103e-15 -2.47331e-14 0 0.188619 0.190869 0.193289 0.196498 0.200881 0.206268 0.211949 0.216903 0.219626 0.220537 0.222108 0.223846 0.221501 0.221341 0.237659 0.246639 0.231579 0.191607 0.121636 0.0434213 0.00652754 0.000231413 1.0488e-06 2.49099e-09 4.29474e-12 1.43254e-14 5.77431e-15 -4.97024e-14 -4.97221e-14 2.75851e-14 0 0.208165 0.20938 0.211348 0.214197 0.218222 0.223406 0.228894 0.23288 0.235986 0.2397 0.241679 0.239779 0.2399 0.255741 0.267694 0.255063 0.21916 0.153563 0.067324 0.0142867 0.000978392 1.232e-05 3.55305e-08 9.65314e-11 2.30046e-13 -5.13177e-14 -2.47285e-14 5.95454e-14 5.95466e-14 -2.47366e-14 0 0.228694 0.229084 0.230718 0.233222 0.236628 0.240952 0.245818 0.251075 0.255973 0.257512 0.256514 0.259116 0.27717 0.287898 0.275108 0.24113 0.178525 0.0891207 0.0234166 0.00245969 6.47349e-05 3.02427e-07 1.21953e-09 3.51903e-12 8.35074e-15 5.16464e-14 7.73165e-19 -2.57689e-14 -2.57689e-14 1.06479e-17 0 0.249335 0.249096 0.25052 0.252887 0.256352 0.261086 0.266277 0.270071 0.271642 0.273002 0.281342 0.301667 0.306459 0.291339 0.257164 0.195209 0.104579 0.0312755 0.00428846 0.000182593 1.55159e-06 7.58137e-09 2.93848e-11 1.17761e-13 2.59748e-14 -1.51262e-18 4.98992e-23 5.99308e-23 -1.2516e-23 6.98081e-23 0 0.27232 0.271674 0.272921 0.274822 0.277346 0.280303 0.283202 0.286675 0.294089 0.310999 0.325524 0.32166 0.30266 0.265998 0.202086 0.110643 0.0353183 0.00563278 0.000323213 4.4596e-06 2.63489e-08 1.48506e-10 7.56156e-13 2.82898e-14 -2.57092e-14 -5.15397e-14 -1.0363e-18 2.5769e-14 2.5769e-14 -1.06551e-17 0 0.293637 0.292524 0.29299 0.294334 0.297239 0.302701 0.312622 0.328429 0.341464 0.34193 0.330052 0.306722 0.264968 0.196919 0.10538 0.0339997 0.00577076 0.000390387 7.42682e-06 5.56141e-08 4.34907e-10 2.69837e-12 1.1969e-14 -2.53693e-14 -9.48721e-18 5.15396e-14 2.57709e-14 -7.03412e-14 -7.03413e-14 2.57805e-14 0 0.326304 0.32595 0.329143 0.335606 0.344513 0.353465 0.35844 0.356321 0.34671 0.329582 0.299515 0.250254 0.176848 0.0884609 0.0274286 0.00459169 0.000329438 7.45876e-06 7.17116e-08 7.3846e-10 5.68088e-12 -1.42907e-15 9.09486e-16 -2.03921e-17 7.25122e-18 -5.15425e-14 -2.57709e-14 7.03412e-14 4.45668e-14 -5.15632e-14 0 0.374647 0.373009 0.372093 0.37061 0.367602 0.362125 0.353219 0.33796 0.313108 0.274057 0.216844 0.139611 0.0623906 0.0176744 0.00271781 0.000188732 4.51856e-06 5.62154e-08 7.41674e-10 7.37001e-12 1.13403e-13 4.33853e-14 -3.84817e-16 2.53772e-17 -2.21073e-18 5.15426e-14 1.03633e-18 -2.57689e-14 5.51612e-18 2.57934e-14 0 0.367218 0.364318 0.359731 0.352978 0.342911 0.32758 0.304244 0.270593 0.223377 0.160388 0.0889395 0.0340291 0.00826991 0.00109377 6.73749e-05 1.58955e-06 2.69209e-08 4.40965e-10 5.73679e-12 2.57301e-14 -5.94467e-17 -1.6948e-18 2.57835e-14 -3.29574e-18 -1.93148e-19 1.42585e-20 4.74781e-23 -1.22939e-18 2.57707e-14 2.57703e-14 0 0.311287 0.307198 0.298124 0.283765 0.262797 0.233444 0.193966 0.143689 0.0872809 0.0393454 0.012349 0.00239185 0.000256207 1.28816e-05 3.15323e-07 7.82103e-09 1.52409e-10 2.70547e-12 8.51327e-14 4.42064e-14 2.56822e-17 3.26193e-17 -5.15521e-14 3.8878e-16 4.00122e-16 -5.15429e-14 1.45782e-18 2.57726e-14 -2.57707e-14 -2.57704e-14 0 0.18993 0.185206 0.172467 0.152114 0.124502 0.0908259 0.0554162 0.0267422 0.00946834 0.00224496 0.000329056 2.67134e-05 1.11768e-06 3.78171e-08 1.27208e-09 3.06696e-11 7.74411e-13 6.37304e-14 1.12869e-16 -4.12194e-16 2.57835e-14 -2.28847e-17 2.57676e-14 -4.11441e-16 -4.25841e-16 5.15411e-14 2.57666e-14 -2.57745e-14 -2.57786e-14 -5.30019e-18 0 0.0469057 0.0441315 0.0366576 0.0265536 0.0161996 0.00789584 0.00288997 0.00075178 0.000130804 1.40038e-05 9.11407e-07 4.96959e-08 2.68125e-09 1.03295e-10 3.74203e-12 1.22883e-13 2.89881e-14 -2.53596e-14 2.13741e-17 2.63592e-17 -5.1546e-14 4.14491e-16 3.8583e-16 5.79069e-19 2.79916e-17 -5.15358e-14 -5.15614e-14 3.7389e-16 5.19452e-14 -4.45897e-14 0 0.00127157 0.00112434 0.000774154 0.000408818 0.000161186 4.58827e-05 9.12843e-06 1.27202e-06 1.41107e-07 1.47939e-08 1.2851e-09 8.1266e-11 4.80085e-12 2.46407e-13 8.67638e-15 2.60964e-14 -2.57123e-14 6.42832e-18 2.9813e-18 -1.94848e-18 5.15459e-14 -4.00122e-16 -3.7452e-16 2.37438e-17 -2.07956e-18 5.15376e-14 5.15605e-14 -4.49455e-14 -7.07443e-14 7.03597e-14 0 6.14389e-07 5.22945e-07 3.2576e-07 1.53132e-07 5.67901e-08 1.7119e-08 4.12686e-09 7.56673e-10 1.05448e-10 1.25493e-11 1.34913e-12 1.12362e-13 7.0925e-15 4.35056e-16 1.04257e-16 -1.4021e-18 5.53229e-20 -1.2088e-20 2.82938e-18 2.84152e-18 -1.43633e-20 3.16587e-18 1.42835e-18 6.30198e-18 7.99846e-18 -1.03477e-18 6.51527e-19 -1.02659e-17 -7.2762e-18 1.50553e-18 0 7.42223e-11 6.67394e-11 4.83371e-11 2.80071e-11 1.29828e-11 4.84884e-12 1.45616e-12 3.19589e-13 3.93371e-14 1.26826e-14 1.09046e-15 1.08638e-15 2.3854e-17 2.47243e-14 -1.2815e-18 -5.15397e-14 -1.0363e-18 2.5769e-14 2.5769e-14 -1.0363e-18 -5.15397e-14 1.45778e-18 2.57731e-14 -3.1834e-17 -3.62493e-17 -2.59923e-18 -7.03745e-14 7.80488e-16 7.80438e-16 -7.03714e-14 0 1.17144e-14 1.0942e-14 8.04552e-15 4.36067e-15 -1.63002e-15 1.178e-15 -2.15179e-14 6.97534e-19 -5.59887e-17 -2.18849e-14 7.8249e-15 -1.68466e-16 -6.15557e-14 -5.7459e-14 2.57708e-14 5.15396e-14 2.57709e-14 -7.03412e-14 -7.03413e-14 2.57709e-14 5.15384e-14 2.57671e-14 -2.57745e-14 4.24694e-16 -4.41416e-14 -1.40692e-13 8.23684e-16 4.79717e-17 4.80217e-17 8.46963e-16 0 3.89564e-15 3.60244e-15 -2.18155e-15 -3.81339e-15 2.278e-17 -3.89741e-15 2.18759e-14 -6.62952e-20 9.20343e-18 1.40055e-17 -2.96658e-14 2.16913e-16 6.15729e-14 5.74578e-14 -2.57708e-14 -5.15396e-14 -2.57709e-14 7.03412e-14 4.45668e-14 -5.15453e-14 -2.57664e-14 -2.57665e-14 -2.57723e-14 -4.0439e-16 6.99344e-14 1.40689e-13 -8.23734e-16 -4.80213e-17 -4.78899e-17 -8.46832e-16 0 3.58568e-10 1.79282e-10 -1.58769e-15 3.84079e-15 3.82209e-15 -4.33586e-19 -3.8979e-15 2.18759e-14 2.18505e-14 1.7916e-14 2.57364e-14 -1.90183e-14 -2.18692e-14 -2.47302e-14 -5.26771e-18 5.15431e-14 -5.26038e-18 -2.57752e-14 -9.06812e-18 2.57609e-14 2.57695e-14 2.57694e-14 5.15488e-14 -4.45806e-14 -7.03503e-14 7.7235e-18 7.03776e-14 -7.5092e-16 -7.51052e-16 7.03744e-14 0 2.2075e-05 0 0 0 0 0 0 0 0 0 0 0 0 0 0 0 0 0 0 0 0 0 0 0 0 0 0 0 0 0 0
				</DataArray>
			</PointData>
			<CellData Scalars="Density">
				<DataArray Name="Density" type="Float32" format="ascii">