<?xml version="1.0"?>
<VTKFile type="PolyData">
	<PolyData>
		<Piece NumberOfPoints="961" NumberOfPolys="900">
			<Points>
				<DataArray type="Float32" NumberOfComponents="3" format="ascii">
 0 0 0 0.04 0 0 0.08 0 0 0.12 0 0 0.16 0 0 0.2 0 0 0.24 0 0 0.28 0 0 0.32 0 0 0.36 0 0 0.4 0 0 0.44 0 0 0.48 0 0 0.52 0 0 0.56 0 0 0.6 0 0 0.64 0 0 0.68 0 0 0.72 0 0 0.76 0 0 0.8 0 0 0.84 0 0 0.88 0 0 0.92 0 0 0.96 0 0 1 0 0 1.04 0 0 1.08 0 0 1.12 0 0 1.16 0 0 1.2 0 0 0 0.04 0 0.04 0.04 0 0.08 0.04 0 0.12 0.04 0 0.16 0.04 0 0.2 0.04 0 0.24 0.04 0 0.28 0.04 0 0.32 0.04 0 0.36 0.04 0 0.4 0.04 0 0.44 0.04 0 0.48 0.04 0 0.52 0.04 0 0.56 0.04 0 0.6 0.04 0 0.64 0.04 0 0.68 0.04 0 0.72 0.04 0 0.76 0.04 0 0.8 0.04 0 0.84 0.04 0 0.88 0.04 0 0.92 0.04 0 0.96 0.04 0 1 0.04 0 1.04 0.04 0 1.08 0.04 0 1.12 0.04 0 1.16 0.04 0 1.2 0.04 0 0 0.08 0 0.04 0.08 0 0.08 0.08 0 0.12 0.08 0 0.16 0.08 0 0.2 0.08 0 0.24 0.08 0 0.28 0.08 0 0.32 0.08 0 0.36 0.08 0 0.4 0.08 0 0.44 0.08 0 0.48 0.08 0 0.52 0.08 0 0.56 0.08 0 0.6 0.08 0 0.64 0.08 0 0.68 0.08 0 0.72 0.08 0 0.76 0.08 0 0.8 0.08 0 0.84 0.08 0 0.88 0.08 0 0.92 0.08 0 0.96 0.08 0 1 0.08 0 1.04 0.08 0 1.08 0.08 0 1.12 0.08 0 1.16 0.08 0 1.2 0.08 0 0 0.12 0 0.04 0.12 0 0.08 0.12 0 0.12 0.12 0 0.16 0.12 0 0.2 0.12 0 0.24 0.12 0 0.28 0.12 0 0.32 0.12 0 0.36 0.12 0 0.4 0.12 0 0.44 0.12 0 0.48 0.12 0 0.52 0.12 0 0.56 0.12 0 0.6 0.12 0 0.64 0.12 0 0.68 0.12 0 0.72 0.12 0 0.76 0.12 0 0.8 0.12 0 0.84 0.12 0 0.88 0.12 0 0.92 0.12 0 0.96 0.12 0 1 0.12 0 1.04 0.12 0 1.08 0.12 0 1.12 0.12 0 1.16 0.12 0 1.2 0.12 0 0 0.16 0 0.04 0.16 0 0.08 0.16 0 0.12 0.16 0 0.16 0.16 0 0.2 0.16 0 0.24 0.16 0 0.28 0.16 0 0.32 0.16 0 0.36 0.16 0 0.4 0.16 0 0.44 0.16 0 0.48 0.16 0 0.52 0.16 0 0.56 0.16 0 0.6 0.16 0 0.64 0.16 0 0.68 0.16 0 0.72 0.16 0 0.76 0.16 0 0.8 0.16 0 0.84 0.16 0 0.88 0.16 0 0.92 0.16 0 0.96 0.16 0 1 0.16 0 1.04 0.16 0 1.08 0.16 0 1.12 0.16 0 1.16 0.16 0 1.2 0.16 0 0 0.2 0 0.04 0.2 0 0.08 0.2 0 0.12 0.2 0 0.16 0.2 0 0.2 0.2 0 0.24 0.2 0 0.28 0.2 0 0.32 0.2 0 0.36 0.2 0 0.4 0.2 0 0.44 0.2 0 0.48 0.2 0 0.52 0.2 0 0.56 0.2 0 0.6 0.2 0 0.64 0.2 0 0.68 0.2 0 0.72 0.2 0 0.76 0.2 0 0.8 0.2 0 0.84 0.2 0 0.88 0.2 0 0.92 0.2 0 0.96 0.2 0 1 0.2 0 1.04 0.2 0 1.08 0.2 0 1.12 0.2 0 1.16 0.2 0 1.2 0.2 0 0 0.24 0 0.04 0.24 0 0.08 0.24 0 0.12 0.24 0 0.16 0.24 0 0.2 0.24 0 0.24 0.24 0 0.28 0.24 0 0.32 0.24 0 0.36 0.24 0 0.4 0.24 0 0.44 0.24 0 0.48 0.24 0 0.52 0.24 0 0.56 0.24 0 0.6 0.24 0 0.64 0.24 0 0.68 0.24 0 0.72 0.24 0 0.76 0.24 0 0.8 0.24 0 0.84 0.24 0 0.88 0.24 0 0.92 0.24 0 0.96 0.24 0 1 0.24 0 1.04 0.24 0 1.08 0.24 0 1.12 0.24 0 1.16 0.24 0 1.2 0.24 0 0 0.28 0 0.04 0.28 0 0.08 0.28 0 0.12 0.28 0 0.16 0.28 0 0.2 0.28 0 0.24 0.28 0 0.28 0.28 0 0.32 0.28 0 0.36 0.28 0 0.4 0.28 0 0.44 0.28 0 0.48 0.28 0 0.52 0.28 0 0.56 0.28 0 0.6 0.28 0 0.64 0.28 0 0.68 0.28 0 0.72 0.28 0 0.76 0.28 0 0.8 0.28 0 0.84 0.28 0 0.88 0.28 0 0.92 0.28 0 0.96 0.28 0 1 0.28 0 1.04 0.28 0 1.08 0.28 0 1.12 0.28 0 1.16 0.28 0 1.2 0.28 0 0 0.32 0 0.04 0.32 0 0.08 0.32 0 0.12 0.32 0 0.16 0.32 0 0.2 0.32 0 0.24 0.32 0 0.28 0.32 0 0.32 0.32 0 0.36 0.32 0 0.4 0.32 0 0.44 0.32 0 0.48 0.32 0 0.52 0.32 0 0.56 0.32 0 0.6 0.32 0 0.64 0.32 0 0.68 0.32 0 0.72 0.32 0 0.76 0.32 0 0.8 0.32 0 0.84 0.32 0 0.88 0.32 0 0.92 0.32 0 0.96 0.32 0 1 0.32 0 1.04 0.32 0 1.08 0.32 0 1.12 0.32 0 1.16 0.32 0 1.2 0.32 0 0 0.36 0 0.04 0.36 0 0.08 0.36 0 0.12 0.36 0 0.16 0.36 0 0.2 0.36 0 0.24 0.36 0 0.28 0.36 0 0.32 0.36 0 0.36 0.36 0 0.4 0.36 0 0.44 0.36 0 0.48 0.36 0 0.52 0.36 0 0.56 0.36 0 0.6 0.36 0 0.64 0.36 0 0.68 0.36 0 0.72 0.36 0 0.76 0.36 0 0.8 0.36 0 0.84 0.36 0 0.88 0.36 0 0.92 0.36 0 0.96 0.36 0 1 0.36 0 1.04 0.36 0 1.08 0.36 0 1.12 0.36 0 1.16 0.36 0 1.2 0.36 0 0 0.4 0 0.04 0.4 0 0.08 0.4 0 0.12 0.4 0 0.16 0.4 0 0.2 0.4 0 0.24 0.4 0 0.28 0.4 0 0.32 0.4 0 0.36 0.4 0 0.4 0.4 0 0.44 0.4 0 0.48 0.4 0 0.52 0.4 0 0.56 0.4 0 0.6 0.4 0 0.64 0.4 0 0.68 0.4 0 0.72 0.4 0 0.76 0.4 0 0.8 0.4 0 0.84 0.4 0 0.88 0.4 0 0.92 0.4 0 0.96 0.4 0 1 0.4 0 1.04 0.4 0 1.08 0.4 0 1.12 0.4 0 1.16 0.4 0 1.2 0.4 0 0 0.44 0 0.04 0.44 0 0.08 0.44 0 0.12 0.44 0 0.16 0.44 0 0.2 0.44 0 0.24 0.44 0 0.28 0.44 0 0.32 0.44 0 0.36 0.44 0 0.4 0.44 0 0.44 0.44 0 0.48 0.44 0 0.52 0.44 0 0.56 0.44 0 0.6 0.44 0 0.64 0.44 0 0.68 0.44 0 0.72 0.44 0 0.76 0.44 0 0.8 0.44 0 0.84 0.44 0 0.88 0.44 0 0.92 0.44 0 0.96 0.44 0 1 0.44 0 1.04 0.44 0 1.08 0.44 0 1.12 0.44 0 1.16 0.44 0 1.2 0.44 0 0 0.48 0 0.04 0.48 0 0.08 0.48 0 0.12 0.48 0 0.16 0.48 0 0.2 0.48 0 0.24 0.48 0 0.28 0.48 0 0.32 0.48 0 0.36 0.48 0 0.4 0.48 0 0.44 0.48 0 0.48 0.48 0 0.52 0.48 0 0.56 0.48 0 0.6 0.48 0 0.64 0.48 0 0.68 0.48 0 0.72 0.48 0 0.76 0.48 0 0.8 0.48 0 0.84 0.48 0 0.88 0.48 0 0.92 0.48 0 0.96 0.48 0 1 0.48 0 1.04 0.48 0 1.08 0.48 0 1.12 0.48 0 1.16 0.48 0 1.2 0.48 0 0 0.52 0 0.04 0.52 0 0.08 0.52 0 0.12 0.52 0 0.16 0.52 0 0.2 0.52 0 0.24 0.52 0 0.28 0.52 0 0.32 0.52 0 0.36 0.52 0 0.4 0.52 0 0.44 0.52 0 0.48 0.52 0 0.52 0.52 0 0.56 0.52 0 0.6 0.52 0 0.64 0.52 0 0.68 0.52 0 0.72 0.52 0 0.76 0.52 0 0.8 0.52 0 0.84 0.52 0 0.88 0.52 0 0.92 0.52 0 0.96 0.52 0 1 0.52 0 1.04 0.52 0 1.08 0.52 0 1.12 0.52 0 1.16 0.52 0 1.2 0.52 0 0 0.56 0 0.04 0.56 0 0.08 0.56 0 0.12 0.56 0 0.16 0.56 0 0.2 0.56 0 0.24 0.56 0 0.28 0.56 0 0.32 0.56 0 0.36 0.56 0 0.4 0.56 0 0.44 0.56 0 0.48 0.56 0 0.52 0.56 0 0.56 0.56 0 0.6 0.56 0 0.64 0.56 0 0.68 0.56 0 0.72 0.56 0 0.76 0.56 0 0.8 0.56 0 0.84 0.56 0 0.88 0.56 0 0.92 0.56 0 0.96 0.56 0 1 0.56 0 1.04 0.56 0 1.08 0.56 0 1.12 0.56 0 1.16 0.56 0 1.2 0.56 0 0 0.6 0 0.04 0.6 0 0.08 0.6 0 0.12 0.6 0 0.16 0.6 0 0.2 0.6 0 0.24 0.6 0 0.28 0.6 0 0.32 0.6 0 0.36 0.6 0 0.4 0.6 0 0.44 0.6 0 0.48 0.6 0 0.52 0.6 0 0.56 0.6 0 0.6 0.6 0 0.64 0.6 0 0.68 0.6 0 0.72 0.6 0 0.76 0.6 0 0.8 0.6 0 0.84 0.6 0 0.88 0.6 0 0.92 0.6 0 0.96 0.6 0 1 0.6 0 1.04 0.6 0 1.08 0.6 0 1.12 0.6 0 1.16 0.6 0 1.2 0.6 0 0 0.64 0 0.04 0.64 0 0.08 0.64 0 0.12 0.64 0 0.16 0.64 0 0.2 0.64 0 0.24 0.64 0 0.28 0.64 0 0.32 0.64 0 0.36 0.64 0 0.4 0.64 0 0.44 0.64 0 0.48 0.64 0 0.52 0.64 0 0.56 0.64 0 0.6 0.64 0 0.64 0.64 0 0.68 0.64 0 0.72 0.64 0 0.76 0.64 0 0.8 0.64 0 0.84 0.64 0 0.88 0.64 0 0.92 0.64 0 0.96 0.64 0 1 0.64 0 1.04 0.64 0 1.08 0.64 0 1.12 0.64 0 1.16 0.64 0 1.2 0.64 0 0 0.68 0 0.04 0.68 0 0.08 0.68 0 0.12 0.68 0 0.16 0.68 0 0.2 0.68 0 0.24 0.68 0 0.28 0.68 0 0.32 0.68 0 0.36 0.68 0 0.4 0.68 0 0.44 0.68 0 0.48 0.68 0 0.52 0.68 0 0.56 0.68 0 0.6 0.68 0 0.64 0.68 0 0.68 0.68 0 0.72 0.68 0 0.76 0.68 0 0.8 0.68 0 0.84 0.68 0 0.88 0.68 0 0.92 0.68 0 0.96 0.68 0 1 0.68 0 1.04 0.68 0 1.08 0.68 0 1.12 0.68 0 1.16 0.68 0 1.2 0.68 0 0 0.72 0 0.04 0.72 0 0.08 0.72 0 0.12 0.72 0 0.16 0.72 0 0.2 0.72 0 0.24 0.72 0 0.28 0.72 0 0.32 0.72 0 0.36 0.72 0 0.4 0.72 0 0.44 0.72 0 0.48 0.72 0 0.52 0.72 0 0.56 0.72 0 0.6 0.72 0 0.64 0.72 0 0.68 0.72 0 0.72 0.72 0 0.76 0.72 0 0.8 0.72 0 0.84 0.72 0 0.88 0.72 0 0.92 0.72 0 0.96 0.72 0 1 0.72 0 1.04 0.72 0 1.08 0.72 0 1.12 0.72 0 1.16 0.72 0 1.2 0.72 0 0 0.76 0 0.04 0.76 0 0.08 0.76 0 0.12 0.76 0 0.16 0.76 0 0.2 0.76 0 0.24 0.76 0 0.28 0.76 0 0.32 0.76 0 0.36 0.76 0 0.4 0.76 0 0.44 0.76 0 0.48 0.76 0 0.52 0.76 0 0.56 0.76 0 0.6 0.76 0 0.64 0.76 0 0.68 0.76 0 0.72 0.76 0 0.76 0.76 0 0.8 0.76 0 0.84 0.76 0 0.88 0.76 0 0.92 0.76 0 0.96 0.76 0 1 0.76 0 1.04 0.76 0 1.08 0.76 0 1.12 0.76 0 1.16 0.76 0 1.2 0.76 0 0 0.8 0 0.04 0.8 0 0.08 0.8 0 0.12 0.8 0 0.16 0.8 0 0.2 0.8 0 0.24 0.8 0 0.28 0.8 0 0.32 0.8 0 0.36 0.8 0 0.4 0.8 0 0.44 0.8 0 0.48 0.8 0 0.52 0.8 0 0.56 0.8 0 0.6 0.8 0 0.64 0.8 0 0.68 0.8 0 0.72 0.8 0 0.76 0.8 0 0.8 0.8 0 0.84 0.8 0 0.88 0.8 0 0.92 0.8 0 0.96 0.8 0 1 0.8 0 1.04 0.8 0 1.08 0.8 0 1.12 0.8 0 1.16 0.8 0 1.2 0.8 0 0 0.84 0 0.04 0.84 0 0.08 0.84 0 0.12 0.84 0 0.16 0.84 0 0.2 0.84 0 0.24 0.84 0 0.28 0.84 0 0.32 0.84 0 0.36 0.84 0 0.4 0.84 0 0.44 0.84 0 0.48 0.84 0 0.52 0.84 0 0.56 0.84 0 0.6 0.84 0 0.64 0.84 0 0.68 0.84 0 0.72 0.84 0 0.76 0.84 0 0.8 0.84 0 0.84 0.84 0 0.88 0.84 0 0.92 0.84 0 0.96 0.84 0 1 0.84 0 1.04 0.84 0 1.08 0.84 0 1.12 0.84 0 1.16 0.84 0 1.2 0.84 0 0 0.88 0 0.04 0.88 0 0.08 0.88 0 0.12 0.88 0 0.16 0.88 0 0.2 0.88 0 0.24 0.88 0 0.28 0.88 0 0.32 0.88 0 0.36 0.88 0 0.4 0.88 0 0.44 0.88 0 0.48 0.88 0 0.52 0.88 0 0.56 0.88 0 0.6 0.88 0 0.64 0.88 0 0.68 0.88 0 0.72 0.88 0 0.76 0.88 0 0.8 0.88 0 0.84 0.88 0 0.88 0.88 0 0.92 0.88 0 0.96 0.88 0 1 0.88 0 1.04 0.88 0 1.08 0.88 0 1.12 0.88 0 1.16 0.88 0 1.2 0.88 0 0 0.92 0 0.04 0.92 0 0.08 0.92 0 0.12 0.92 0 0.16 0.92 0 0.2 0.92 0 0.24 0.92 0 0.28 0.92 0 0.32 0.92 0 0.36 0.92 0 0.4 0.92 0 0.44 0.92 0 0.48 0.92 0 0.52 0.92 0 0.56 0.92 0 0.6 0.92 0 0.64 0.92 0 0.68 0.92 0 0.72 0.92 0 0.76 0.92 0 0.8 0.92 0 0.84 0.92 0 0.88 0.92 0 0.92 0.92 0 0.96 0.92 0 1 0.92 0 1.04 0.92 0 1.08 0.92 0 1.12 0.92 0 1.16 0.92 0 1.2 0.92 0 0 0.96 0 0.04 0.96 0 0.08 0.96 0 0.12 0.96 0 0.16 0.96 0 0.2 0.96 0 0.24 0.96 0 0.28 0.96 0 0.32 0.96 0 0.36 0.96 0 0.4 0.96 0 0.44 0.96 0 0.48 0.96 0 0.52 0.96 0 0.56 0.96 0 0.6 0.96 0 0.64 0.96 0 0.68 0.96 0 0.72 0.96 0 0.76 0.96 0 0.8 0.96 0 0.84 0.96 0 0.88 0.96 0 0.92 0.96 0 0.96 0.96 0 1 0.96 0 1.04 0.96 0 1.08 0.96 0 1.12 0.96 0 1.16 0.96 0 1.2 0.96 0 0 1 0 0.04 1 0 0.08 1 0 0.12 1 0 0.16 1 0 0.2 1 0 0.24 1 0 0.28 1 0 0.32 1 0 0.36 1 0 0.4 1 0 0.44 1 0 0.48 1 0 0.52 1 0 0.56 1 0 0.6 1 0 0.64 1 0 0.68 1 0 0.72 1 0 0.76 1 0 0.8 1 0 0.84 1 0 0.88 1 0 0.92 1 0 0.96 1 0 1 1 0 1.04 1 0 1.08 1 0 1.12 1 0 1.16 1 0 1.2 1 0 0 1.04 0 0.04 1.04 0 0.08 1.04 0 0.12 1.04 0 0.16 1.04 0 0.2 1.04 0 0.24 1.04 0 0.28 1.04 0 0.32 1.04 0 0.36 1.04 0 0.4 1.04 0 0.44 1.04 0 0.48 1.04 0 0.52 1.04 0 0.56 1.04 0 0.6 1.04 0 0.64 1.04 0 0.68 1.04 0 0.72 1.04 0 0.76 1.04 0 0.8 1.04 0 0.84 1.04 0 0.88 1.04 0 0.92 1.04 0 0.96 1.04 0 1 1.04 0 1.04 1.04 0 1.08 1.04 0 1.12 1.04 0 1.16 1.04 0 1.2 1.04 0 0 1.08 0 0.04 1.08 0 0.08 1.08 0 0.12 1.08 0 0.16 1.08 0 0.2 1.08 0 0.24 1.08 0 0.28 1.08 0 0.32 1.08 0 0.36 1.08 0 0.4 1.08 0 0.44 1.08 0 0.48 1.08 0 0.52 1.08 0 0.56 1.08 0 0.6 1.08 0 0.64 1.08 0 0.68 1.08 0 0.72 1.08 0 0.76 1.08 0 0.8 1.08 0 0.84 1.08 0 0.88 1.08 0 0.92 1.08 0 0.96 1.08 0 1 1.08 0 1.04 1.08 0 1.08 1.08 0 1.12 1.08 0 1.16 1.08 0 1.2 1.08 0 0 1.12 0 
[...]
			<PointData Scalars="VitesseX">
				<DataArray Name="VitesseX" type="Float32" format="ascii">
 0 -0.0126261 -0.0142188 -0.00923474 0.001023 0.0374981 0.0728094 0.0915963 0.117477 0.13916 0.161486 0.182469 0.203876 0.226004 0.248052 0.27179 0.296113 0.322349 0.37927 0.389004 0.348905 0.24154 0.0863422 0.00527648 8.97828e-06 1.03694e-09 1.20101e-13 2.12528e-15 -7.26577e-15 7.26583e-15 0 0 0.0359656 0.0561976 0.0557192 0.0505102 0.0671224 0.0932232 0.106062 0.12761 0.146319 0.166402 0.185818 0.205873 0.226924 0.248145 0.271386 0.29507 0.321533 0.378298 0.38616 0.344839 0.23645 0.0822247 0.00474312 7.55656e-06 9.20875e-10 1.09445e-13 2.12529e-15 -7.26616e-15 7.26612e-15 0 0 0.0309156 0.07502 0.0848104 0.0911847 0.0981229 0.115902 0.121514 0.137973 0.153371 0.17099 0.189174 0.208366 0.228966 0.249747 0.273099 0.295658 0.323605 0.379648 0.382329 0.336471 0.223343 0.0708261 0.00342505 4.51407e-06 6.41214e-10 8.72071e-14 1.10741e-15 -7.2935e-15 3.68899e-15 0 0 0.0145093 0.0660655 0.0807348 0.091692 0.109621 0.122783 0.132883 0.147011 0.161137 0.176597 0.193485 0.211927 0.232105 0.252389 0.275804 0.296903 0.328607 0.381622 0.377037 0.323161 0.202337 0.0542038 0.00194905 1.93132e-06 3.4561e-10 5.28505e-14 1.42207e-17 -3.63784e-15 3.67964e-15 0 0 0.0107696 0.0465883 0.0717912 0.087876 0.112345 0.122637 0.14076 0.15346 0.169111 0.183131 0.199211 0.21696 0.236451 0.25627 0.279408 0.299178 0.337886 0.382305 0.368712 0.30364 0.172758 0.0356818 0.000848853 6.08841e-07 1.43149e-10 2.67716e-14 -3.63498e-15 2.23833e-17 3.62386e-15 0 0 0.0146943 0.0380141 0.0652024 0.0852468 0.108137 0.124946 0.142215 0.157491 0.174667 0.189867 0.205749 0.223341 0.241742 0.26164 0.283526 0.30309 0.351259 0.379264 0.355676 0.275882 0.134557 0.01941 0.000272089 1.50674e-07 4.61761e-11 1.44957e-14 9.01685e-17 -3.6944e-15 -3.95419e-19 0 0 0.0155256 0.0356792 0.0615693 0.0839595 0.106701 0.124992 0.141674 0.160578 0.178189 0.19501 0.211639 0.229813 0.246895 0.26804 0.287076 0.310062 0.363403 0.371799 0.335352 0.23725 0.0902526 0.00810169 6.10904e-05 3.15957e-08 1.20454e-11 7.08284e-15 -2.0804e-14 2.08042e-14 -3.69485e-15 0 0 0.0162411 0.0352741 0.0588992 0.0843299 0.105842 0.124156 0.14292 0.162501 0.180783 0.197984 0.216596 0.233856 0.251851 0.273241 0.28954 0.323507 0.367819 0.359052 0.303975 0.185567 0.0479996 0.00241624 9.13528e-06 5.56813e-09 2.61262e-12 -2.00264e-14 1.73187e-22 -1.73187e-22 2.08041e-14 0 0 0.0165863 0.0357056 0.0586022 0.0831495 0.10448 0.124321 0.144051 0.163454 0.181535 0.200285 0.219108 0.236088 0.257162 0.275004 0.293817 0.342622 0.361653 0.336833 0.258443 0.122256 0.0191123 0.000483341 9.13357e-07 7.45293e-10 4.53524e-13 -2.06515e-14 -8.82555e-18 8.86935e-18 2.07799e-14 0 0 0.0167662 0.0358782 0.0574316 0.0806349 0.102889 0.123741 0.143735 0.162716 0.181741 0.20136 0.219053 0.239055 0.259411 0.274834 0.307346 0.350517 0.346093 0.300348 0.194869 0.0606837 0.00516686 5.98908e-05 7.50008e-08 7.4437e-11 5.89386e-14 3.69696e-15 -2.08128e-14 1.31867e-17 1.70555e-14 0 0 0.0169285 0.0356729 0.0561001 0.0778723 0.0999086 0.121247 0.14151 0.161486 0.181414 0.199863 0.219623 0.241439 0.257637 0.279862 0.327974 0.341885 0.318109 0.244285 0.116209 0.0209582 0.000862086 4.17877e-06 5.97006e-09 6.59277e-12 5.95498e-15 -2.95548e-17 7.41895e-15 -2.81886e-14 2.44688e-14 0 0 0.0171622 0.0355156 0.0548741 0.0752177 0.0962978 0.117557 0.138685 0.159185 0.178558 0.199131 0.221301 0.238957 0.258215 0.300687 0.328972 0.319631 0.270294 0.164935 0.047873 0.00453264 8.00918e-05 1.88727e-07 3.59138e-10 5.18011e-13 4.39467e-16 8.48245e-16 8.55773e-16 -8.07489e-16 -1.79635e-14 0 0 0.017251 0.0353395 0.05405 0.0734497 0.0936371 0.11442 0.135227 0.155943 0.177609 0.199657 0.218376 0.238058 0.275499 0.310403 0.31115 0.278674 0.196043 0.0779201 0.0125922 0.000538758 3.58233e-06 8.71615e-09 1.697e-11 5.42105e-14 4.52208e-18 2.44794e-17 -5.92138e-14 5.92283e-14 -2.07995e-14 0 0 0.0172391 0.0351457 0.0534694 0.0723655 0.0920047 0.112436 0.133649 0.155504 0.176999 0.196565 0.218247 0.254317 0.289199 0.296153 0.274166 0.209518 0.101554 0.0231409 0.00179836 2.99688e-05 1.00043e-07 3.1878e-10 7.79207e-13 1.14522e-15 2.88433e-18 2.36407e-14 -5.63444e-14 5.63406e-14 -2.36439e-14 0 0 0.0172095 0.0350085 0.0532497 0.0721385 0.0918338 0.112402 0.13345 0.15423 0.174958 0.199728 0.236292 0.266826 0.276442 0.260535 0.208356 0.113617 0.0322204 0.00372852 0.000118222 7.04467e-07 3.01053e-09 9.43525e-12 1.01353e-14 -1.66296e-18 1.88327e-18 -7.34109e-19 2.44961e-14 -2.44961e-14 -5.77457e-18 0 0 0.0174002 0.0352842 0.0536655 0.072638 0.0921925 0.112275 0.133021 0.155851 0.184691 0.218806 0.243562 0.252873 0.239903 0.19544 0.113049 0.0365879 0.00545841 0.000264946 2.80203e-06 1.44108e-08 6.44586e-11 2.52164e-13 4.34676e-15 2.44976e-14 -1.18102e-18 -4.89906e-14 4.89905e-14 -4.89905e-14 4.89934e-14 0 0 0.0175959 0.0356526 0.0542847 0.07356 0.0938492 0.116165 0.142293 0.171898 0.198627 0.218956 0.22552 0.21315 0.172851 0.10121 0.0350353 0.00604874 0.000383015 6.19647e-06 3.98413e-08 2.57459e-10 1.38658e-12 5.59805e-15 2.46744e-14 -2.44976e-14 4.07845e-20 -8.68098e-19 2.44962e-14 -2.44962e-14 -5.77781e-18 0 0 0.0184849 0.0379316 0.0586376 0.0809794 0.104875 0.129552 0.153437 0.17514 0.191001 0.19395 0.180366 0.142112 0.0808735 0.0284178 0.0052002 0.000379165 7.98813e-06 6.62316e-08 5.8269e-10 3.92993e-12 -2.53688e-14 4.84517e-14 -2.45034e-14 6.76132e-18 -1.37062e-20 2.44946e-14 -6.69311e-14 6.6931e-14 -2.45012e-14 0 0 0.0214748 0.0433951 0.0654032 0.0873346 0.108999 0.129921 0.14755 0.157972 0.15728 0.141266 0.105071 0.0560567 0.0190802 0.00341464 0.000257765 6.14216e-06 6.58701e-08 7.59688e-10 6.4887e-12 9.34287e-15 4.28111e-14 -3.55045e-16 1.89882e-17 3.07915e-18 3.22764e-18 2.44946e-14 -6.69311e-14 4.24309e-14 -9.21254e-18 0 0 0.0220572 0.0436373 0.0643699 0.0837537 0.100857 0.11378 0.119334 0.114934 0.0969862 0.0659508 0.0320745 0.00997357 0.0016109 0.000113822 2.7505e-06 3.9187e-08 5.77459e-10 6.45785e-12 6.74656e-14 -4.2757e-14 4.2784e-14 -3.66827e-16 2.38501e-17 -1.74186e-18 3.24135e-18 -8.68098e-19 2.44962e-14 -4.89963e-14 2.44862e-14 0 0 0.0198698 0.0380989 0.0540261 0.0668154 0.0748815 0.0761057 0.0689516 0.0531461 0.032102 0.0137387 0.00357378 0.000482837 2.87197e-05 6.81691e-07 1.40255e-08 2.52462e-10 3.82231e-12 1.00575e-14 4.21093e-14 -1.55614e-17 1.22386e-17 2.45081e-14 -4.89972e-14 4.89972e-14 -1.19594e-20 -4.89906e-14 4.89895e-14 -2.44925e-14 2.4495e-14 0 0 0.013479 0.0245064 0.0322866 0.0359608 0.0349887 0.0293873 0.0202268 0.0103982 0.00353795 0.000701653 7.29764e-05 3.39941e-06 9.47225e-08 2.90169e-09 6.22098e-11 1.35308e-12 2.24258e-14 -4.2026e-14 4.20765e-14 -1.30917e-17 2.95936e-17 -2.15212e-17 3.69414e-16 -3.55491e-16 3.3687e-18 1.22179e-18 2.44931e-14 -2.44926e-14 2.44949e-14 0 0 0.00479969 0.00821188 0.00970154 0.009169 0.0068809 0.00386215 0.00147913 0.000360226 5.13038e-05 3.81412e-06 1.72456e-07 8.12616e-09 3.01876e-10 8.94512e-12 2.47794e-13 7.08382e-15 -5.90529e-16 3.53278e-16 -3.41497e-16 2.4508e-14 -4.90038e-14 2.44936e-14 3.43641e-16 -3.32261e-16 1.8884e-18 2.44981e-14 -2.44999e-14 -2.44976e-14 4.89992e-14 0 0 0.000470791 0.000696605 0.000615982 0.000371983 0.000154711 4.263e-05 7.31143e-06 7.71313e-07 6.38157e-08 5.29466e-09 3.27566e-10 1.54831e-11 7.69402e-13 1.7846e-15 3.99726e-15 2.46724e-14 -2.45033e-14 -1.82475e-17 2.31093e-17 -2.7516e-18 3.44074e-16 -3.6485e-16 4.18354e-19 2.17708e-17 5.83213e-18 -2.90363e-17 3.77908e-16 -3.59387e-16 -4.24439e-14 0 0 1.24127e-06 1.45225e-06 8.92461e-07 3.47052e-07 9.59707e-08 2.17724e-08 4.21717e-09 6.09336e-10 6.23259e-11 5.62381e-12 4.61604e-13 1.03778e-14 1.14656e-15 6.05746e-19 2.44972e-14 -2.44951e-14 -9.31365e-18 6.51308e-18 -1.61037e-18 -1.93069e-19 3.55491e-16 -3.78811e-16 2.51882e-17 -1.67612e-18 7.28361e-18 -3.27391e-17 -4.2053e-14 6.65701e-14 -6.69401e-14 0 0 1.15783e-10 1.63505e-10 1.3205e-10 7.04986e-11 2.65296e-11 7.62656e-12 1.82117e-12 3.39601e-13 4.79015e-14 5.08559e-15 3.44049e-16 7.47888e-15 -4.89959e-14 4.89952e-14 -1.26256e-18 -4.89906e-14 4.89905e-14 -4.89938e-14 4.89939e-14 1.19516e-20 -4.8994e-14 4.89925e-14 -4.89881e-14 4.89896e-14 -8.67188e-19 -2.16712e-18 -1.33871e-13 1.33869e-13 6.37764e-18 0 0 1.0657e-14 1.3723e-14 1.56401e-14 1.05385e-14 1.75924e-15 5.83397e-15 -2.03277e-14 2.09528e-14 -3.69285e-15 -3.03999e-17 8.22464e-16 5.74169e-15 -2.36442e-14 1.00647e-18 2.94947e-34 -8.68098e-19 2.44962e-14 -2.44962e-14 8.68098e-19 -2.42069e-24 1.22178e-18 2.44926e-14 -4.90114e-14 4.90107e-14 5.12116e-19 -6.69624e-14 7.33659e-16 -7.33711e-16 6.6965e-14 0 0 -2.64072e-22 1.10416e-15 -7.21734e-15 3.65765e-15 9.05276e-17 -2.0804e-14 -1.85229e-22 -8.82554e-18 2.08133e-14 -3.13687e-17 -4.86195e-15 -4.94673e-14 5.80505e-14 -2.44945e-14 -6.5448e-34 2.44946e-14 -6.69311e-14 6.6931e-14 -2.44945e-14 -9.86062e-19 2.44976e-14 -2.44999e-14 3.31791e-16 -4.27672e-14 -9.18475e-18 6.91831e-16 4.72174e-17 -4.72685e-17 -6.62907e-16 0 0 -2.92272e-16 -4.26761e-15 -3.62874e-15 6.10793e-17 3.6952e-15 -2.08042e-14 -1.14981e-22 -8.78178e-18 1.3659e-17 2.07982e-14 -4.87365e-15 -4.94894e-14 5.80543e-14 -2.44945e-14 -5.13874e-34 2.44946e-14 -6.69311e-14 4.24309e-14 5.61835e-18 2.4496e-14 -2.44959e-14 -2.45044e-14 4.93524e-14 -6.72892e-14 -6.69137e-18 6.9178e-16 4.72688e-17 -4.71375e-17 -6.63039e-16 0 0 -1.43506e-10 -7.93076e-15 3.63663e-15 -3.5853e-15 3.95418e-19 3.6947e-15 -2.08041e-14 2.078e-14 -2.44952e-14 2.45186e-14 -2.36452e-14 2.6482e-14 -2.36492e-14 1.03004e-17 -6.98727e-38 -1.02972e-17 2.45056e-14 -4.90139e-14 2.45186e-14 2.44956e-14 -2.44957e-14 -5.43689e-18 -4.24515e-14 6.69479e-14 1.28836e-18 -6.69599e-14 7.57445e-16 -7.57313e-16 6.69623e-14 0 0 0 0 0 0 0 0 0 0 0 0 0 0 0 0 0 0 0 0 0 0 0 0 0 0 0 0 0 0 0 0
				</DataArray>
				<DataArray Name="VitesseY" type="Float32" format="ascii">
 0 0 0 0 0 0 0 0 0 0 0 0 0 0 0 0 0 0 0 0 0 0 0 0 0 0 0 0 0 0 0 -0.0126089 0.0359673 0.0309127 0.0145042 0.0107663 0.0146923 0.0155247 0.0162412 0.0165872 0.0167671 0.0169293 0.0171626 0.0172514 0.0172397 0.01721 0.0174007 0.017596 0.0184848 0.0214743 0.0220565 0.0198688 0.0134778 0.00479903 0.000470684 1.24073e-06 1.1573e-10 1.06567e-14 1.55085e-20 -3.63638e-19 -4.61714e-19 0 -0.0142052 0.056207 0.0750187 0.0660625 0.0465864 0.0380121 0.0356769 0.0352725 0.0357054 0.0358792 0.0356737 0.0355161 0.0353401 0.0351466 0.0350094 0.0352848 0.0356527 0.0379314 0.0433941 0.0436358 0.0380968 0.0245042 0.00821082 0.000696451 1.45164e-06 1.63432e-10 1.37027e-14 1.10406e-15 5.92143e-17 -3.54516e-15 0 -0.00922237 0.0557377 0.0848183 0.0807385 0.0717899 0.0651983 0.0615652 0.0588956 0.0586 0.0574313 0.0561007 0.0548749 0.054051 0.0534704 0.0532506 0.053666 0.0542846 0.0586372 0.0654018 0.0643678 0.0540232 0.0322838 0.00970041 0.000615854 8.92111e-07 1.31994e-10 1.5634e-14 -7.21719e-15 -3.60987e-15 3.64082e-15 0 0.00102388 0.0505196 0.0911912 0.0916953 0.0878787 0.085247 0.083957 0.0843255 0.0831456 0.080633 0.0778729 0.0752193 0.0734512 0.0723666 0.0721393 0.0726384 0.0735599 0.0809788 0.0873326 0.0837509 0.0668119 0.035958 0.00916809 0.000371916 3.46934e-07 7.04712e-11 1.05344e-14 3.65751e-15 6.12083e-17 -3.58504e-15 0 0.0374963 0.0671284 0.0981341 0.109628 0.112348 0.108136 0.106697 0.105837 0.104475 0.102886 0.0999091 0.0963003 0.0936394 0.092006 0.0918346 0.0921929 0.0938492 0.104874 0.108997 0.100854 0.0748782 0.0349865 0.00688037 0.000154688 9.59449e-08 2.65208e-11 1.76449e-15 9.05275e-17 3.6952e-15 3.95383e-19 0 0.0728088 0.0932289 0.115912 0.12279 0.122639 0.124945 0.124988 0.124152 0.124316 0.123738 0.121246 0.11756 0.114422 0.112438 0.112403 0.112276 0.116165 0.129551 0.129919 0.113777 0.0761031 0.0293862 0.00386198 4.26255e-05 2.17682e-08 7.62459e-12 5.82898e-15 -2.0804e-14 -2.08042e-14 3.6947e-15 0 0.0915959 0.106066 0.121522 0.13289 0.140762 0.142215 0.141671 0.142916 0.144047 0.143733 0.141509 0.138686 0.135228 0.133651 0.133451 0.133022 0.142293 0.153436 0.147549 0.119332 0.0689505 0.0202267 0.00147912 7.31104e-06 4.21665e-09 1.82075e-12 -2.03277e-14 -1.94705e-22 -1.09699e-22 -2.08041e-14 0 0.117477 0.127614 0.137979 0.147016 0.153461 0.15749 0.160575 0.162498 0.163451 0.162714 0.161485 0.159186 0.155944 0.155505 0.154231 0.155852 0.171897 0.17514 0.157971 0.114934 0.0531466 0.0103985 0.000360241 7.71321e-07 6.09298e-10 3.39596e-13 2.09528e-14 -8.82552e-18 -8.78178e-18 2.078e-14 0 0.139162 0.146323 0.153376 0.16114 0.169111 0.174665 0.178187 0.18078 0.181533 0.18174 0.181413 0.178558 0.17761 0.177 0.174958 0.18469 0.198627 0.191002 0.157281 0.096988 0.0321033 0.0035382 5.13087e-05 6.38198e-08 6.2326e-11 4.7901e-14 -3.69285e-15 2.08133e-14 1.3659e-17 -2.44952e-14 0 0.161489 0.166406 0.170994 0.176599 0.183131 0.189864 0.195007 0.197981 0.200283 0.201359 0.199863 0.199131 0.199658 0.196566 0.199727 0.218806 0.218957 0.193953 0.141269 0.0659535 0.0137397 0.000701734 3.81472e-06 5.29522e-09 5.62405e-12 5.08579e-15 -3.03999e-17 -3.13687e-17 2.07982e-14 2.45186e-14 0 0.182472 0.185823 0.189178 0.193488 0.199212 0.205747 0.211636 0.216593 0.219106 0.219052 0.219622 0.221301 0.218377 0.218248 0.236292 0.243564 0.225523 0.180369 0.105075 0.0320764 0.00357414 7.29884e-05 1.72488e-07 3.27618e-10 4.61655e-13 3.43983e-16 8.22464e-16 -4.86195e-15 -4.87365e-15 -2.36452e-14 0 0.20388 0.205877 0.20837 0.21193 0.216961 0.223339 0.22981 0.233853 0.236085 0.239054 0.241438 0.238957 0.238058 0.254317 0.266828 0.252875 0.213153 0.142116 0.0560593 0.00997435 0.000482902 3.40011e-06 8.12769e-09 1.54858e-11 1.04033e-14 7.47888e-15 5.74169e-15 -4.94673e-14 -4.94894e-14 2.6482e-14 0 0.226008 0.226929 0.22897 0.232107 0.236452 0.24174 0.246892 0.251847 0.25716 0.25941 0.257636 0.258215 0.275499 0.2892 0.276444 0.239905 0.172854 0.0808763 0.0190812 0.00161106 2.87245e-05 9.47411e-08 3.01938e-10 7.69576e-13 1.14656e-15 -4.89959e-14 -2.36442e-14 5.80505e-14 5.80543e-14 -2.36492e-14 0 0.248057 0.248149 0.249751 0.252392 0.256272 0.261639 0.268038 0.273238 0.275001 0.274832 0.279862 0.300688 0.310403 0.296154 0.260536 0.195442 0.101212 0.0284188 0.00341487 0.000113835 6.81809e-07 2.90222e-09 8.94684e-12 1.7898e-15 6.05777e-19 4.89952e-14 1.00652e-18 -2.44945e-14 -2.44945e-14 1.03005e-17 0 0.271795 0.27139 0.273104 0.275807 0.279409 0.283526 0.287074 0.289536 0.293815 0.307344 0.327973 0.328971 0.311149 0.274166 0.208357 0.11305 0.0350358 0.00520037 0.000257783 2.75084e-06 1.40274e-08 6.22203e-11 2.47825e-13 3.99726e-15 2.44972e-14 -1.26261e-18 4.99157e-23 4.46208e-23 -9.98821e-24 7.49249e-23 0 0.296118 0.295075 0.295662 0.296906 0.299179 0.30309 0.310061 0.323505 0.342621 0.350515 0.341882 0.319628 0.278673 0.209516 0.113616 0.0365877 0.00604876 0.000379174 6.14254e-06 3.91906e-08 2.52494e-10 1.35318e-12 7.08376e-15 2.46724e-14 -2.44951e-14 -4.89906e-14 -8.68108e-19 2.44946e-14 2.44946e-14 -1.02972e-17 0 0.322351 0.321535 0.323607 0.328608 0.337885 0.351258 0.363402 0.367816 0.36165 0.346089 0.318105 0.270291 0.19604 0.101551 0.0322196 0.00545825 0.000383007 7.98813e-06 6.58722e-08 5.77496e-10 3.82273e-12 2.24155e-14 -5.90464e-16 -2.45033e-14 -9.31369e-18 4.89905e-14 2.44962e-14 -6.69311e-14 -6.69311e-14 2.45056e-14 0 0.379269 0.378298 0.379648 0.381622 0.382305 0.379263 0.371797 0.359049 0.336829 0.300343 0.24428 0.16493 0.0779171 0.0231397 0.00372828 0.000264928 6.19609e-06 6.62296e-08 7.59688e-10 6.45805e-12 1.00683e-14 -4.20259e-14 3.53278e-16 -1.82474e-17 6.51308e-18 -4.89938e-14 -2.44962e-14 6.6931e-14 4.24309e-14 -4.90139e-14 0 0.389006 0.386162 0.382331 0.377038 0.368713 0.355676 0.33535 0.303972 0.258439 0.194863 0.116204 0.0478703 0.0125912 0.00179818 0.000118209 2.80168e-06 3.98377e-08 5.82653e-10 6.48852e-12 6.74656e-14 4.21093e-14 4.20765e-14 -3.41497e-16 2.31093e-17 -1.61032e-18 4.89939e-14 8.68148e-19 -2.44945e-14 5.61834e-18 2.45186e-14 0 0.34891 0.344843 0.336475 0.323164 0.303642 0.275882 0.237249 0.185563 0.122251 0.0606804 0.0209566 0.00453215 0.000538685 2.99638e-05 7.04346e-07 1.44089e-08 2.57426e-10 3.92947e-12 9.33229e-15 -4.2757e-14 -1.55614e-17 -1.30917e-17 2.4508e-14 -2.75153e-18 -1.93057e-19 1.1903e-20 4.74947e-23 -9.86076e-19 2.4496e-14 2.44956e-14 0 0.241548 0.236457 0.22335 0.202342 0.172762 0.134559 0.0902521 0.0479984 0.0191113 0.00516642 0.000861979 8.00783e-05 3.58159e-06 1.00023e-07 3.00998e-09 6.44479e-11 1.38651e-12 -2.53587e-14 4.2811e-14 4.2784e-14 1.22385e-17 2.95935e-17 -4.90038e-14 3.44074e-16 3.55491e-16 -4.8994e-14 1.22181e-18 2.44976e-14 -2.44959e-14 -2.44957e-14 0 0.0863494 0.0822315 0.0708317 0.0542078 0.0356839 0.0194108 0.00810183 0.0024162 0.000483314 5.98844e-05 4.1781e-06 1.88692e-07 8.71449e-09 3.18715e-10 9.43348e-12 2.52134e-13 5.59798e-15 4.84516e-14 -3.55045e-16 -3.66827e-16 2.45081e-14 -2.15212e-17 2.44936e-14 -3.6485e-16 -3.78811e-16 4.89925e-14 2.44926e-14 -2.44999e-14 -2.45044e-14 -5.43686e-18 0 0.00527755 0.00474408 0.00342571 0.0019494 0.000848985 0.000272123 6.10958e-05 9.13564e-06 9.13339e-07 7.49955e-08 5.96939e-09 3.59081e-10 1.6967e-11 7.79022e-13 1.01301e-14 4.34676e-15 2.46744e-14 -2.45034e-14 1.89883e-17 2.385e-17 -4.89972e-14 3.69414e-16 3.43641e-16 4.18461e-19 2.51882e-17 -4.89881e-14 -4.90114e-14 3.31791e-16 4.93524e-14 -4.24515e-14 0 8.98199e-06 7.55964e-06 4.51583e-06 1.93201e-06 6.09026e-07 1.5071e-07 3.16009e-08 5.56872e-09 7.45329e-10 7.44363e-11 6.59238e-12 5.17909e-13 5.4185e-14 1.14522e-15 -1.66295e-18 2.44976e-14 -2.44976e-14 6.76133e-18 3.07917e-18 -1.74186e-18 4.89972e-14 -3.55491e-16 -3.32261e-16 2.17708e-17 -1.67606e-18 4.89896e-14 4.90107e-14 -4.27672e-14 -6.72892e-14 6.69479e-14 0 1.03738e-09 9.21262e-10 6.41476e-10 3.45743e-10 1.43198e-10 4.61897e-11 1.20482e-11 2.61305e-12 4.5353e-13 5.89388e-14 5.95491e-15 4.39533e-16 4.52207e-18 2.88435e-18 1.88333e-18 -1.18107e-18 4.08344e-20 -1.36593e-20 3.22769e-18 3.2414e-18 -1.2009e-20 3.36875e-18 1.88838e-18 5.83213e-18 7.28364e-18 -8.67166e-19 5.12075e-19 -9.18479e-18 -6.69137e-18 1.28836e-18 0 1.20162e-13 1.09505e-13 8.72474e-14 5.28643e-14 2.67753e-14 1.45004e-14 7.08783e-15 -2.00264e-14 -2.06515e-14 3.69696e-15 -2.95548e-17 8.48245e-16 2.44794e-17 2.36407e-14 -7.34129e-19 -4.89906e-14 -8.68108e-19 2.44946e-14 2.44946e-14 -8.68108e-19 -4.89906e-14 1.22178e-18 2.44981e-14 -2.90363e-17 -3.27392e-17 -2.16715e-18 -6.69624e-14 6.91831e-16 6.9178e-16 -6.69599e-14 0 2.12512e-15 2.12512e-15 1.10732e-15 1.40974e-17 -3.63512e-15 9.01685e-17 -2.0804e-14 1.55757e-22 -8.82553e-18 -2.08128e-14 7.41895e-15 8.55773e-16 -5.92138e-14 -5.63444e-14 2.44961e-14 4.89905e-14 2.44962e-14 -6.69311e-14 -6.69311e-14 2.44962e-14 4.89895e-14 2.44931e-14 -2.44999e-14 3.77908e-16 -4.2053e-14 -1.33871e-13 7.33659e-16 4.72174e-17 4.72689e-17 7.57445e-16 0 2.01e-15 1.71773e-15 -2.92852e-15 -3.61846e-15 2.27797e-17 -3.6944e-15 2.08042e-14 -1.73289e-22 8.86932e-18 1.31866e-17 -2.81886e-14 -8.07489e-16 5.92283e-14 5.63406e-14 -2.44961e-14 -4.89905e-14 -2.44962e-14 6.6931e-14 4.24309e-14 -4.89963e-14 -2.44925e-14 -2.44926e-14 -2.44976e-14 -3.59387e-16 6.65701e-14 1.33869e-13 -7.33711e-16 -4.72685e-17 -4.71375e-17 -7.57313e-16 0 2.8701e-10 1.43504e-10 -6.46309e-16 3.64586e-15 3.6236e-15 -3.9541e-19 -3.69485e-15 2.08041e-14 2.07799e-14 1.70555e-14 2.44688e-14 -1.79635e-14 -2.07995e-14 -2.36439e-14 -5.77455e-18 4.89934e-14 -5.77781e-18 -2.45012e-14 -9.21259e-18 2.44862e-14 2.4495e-14 2.44949e-14 4.89992e-14 -4.24439e-14 -6.69401e-14 6.37762e-18 6.6965e-14 -6.62907e-16 -6.63039e-16 6.69623e-14 0 2.04963e-05 0 0 0 0 0 0 0 0 0 0 0 0 0 0 0 0 0 0 0 0 0 0 0 0 0 0 0 0 0 0
				</DataArray>
			</PointData>
			<CellData Scalars="Density">
				<DataArray Name="Density" type="Float32" format="ascii">