<?xml version="1.0"?>
<VTKFile type="PolyData">
	<PolyData>
		<Piece NumberOfPoints="961" NumberOfPolys="900">
			<Points>
				<DataArray type="Float32" NumberOfComponents="3" format="ascii">
 0 0 0 0.04 0 0 0.08 0 0 0.12 0 0 0.16 0 0 0.2 0 0 0.24 0 0 0.28 0 0 0.32 0 0 0.36 0 0 0.4 0 0 0.44 0 0 0.48 0 0 0.52 0 0 0.56 0 0 0.6 0 0 0.64 0 0 0.68 0 0 0.72 0 0 0.76 0 0 0.8 0 0 0.84 0 0 0.88 0 0 0.92 0 0 0.96 0 0 1 0 0 1.04 0 0 1.08 0 0 1.12 0 0 1.16 0 0 1.2 0 0 0 0.04 0 0.04 0.04 0 0.08 0.04 0 0.12 0.04 0 0.16 0.04 0 0.2 0.04 0 0.24 0.04 0 0.28 0.04 0 0.32 0.04 0 0.36 0.04 0 0.4 0.04 0 0.44 0.04 0 0.48 0.04 0 0.52 0.04 0 0.56 0.04 0 0.6 0.04 0 0.64 0.04 0 0.68 0.04 0 0.72 0.04 0 0.76 0.04 0 0.8 0.04 0 0.84 0.04 0 0.88 0.04 0 0.92 0.04 0 0.96 0.04 0 1 0.04 0 1.04 0.04 0 1.08 0.04 0 1.12 0.04 0 1.16 0.04 0 1.2 0.04 0 0 0.08 0 0.04 0.08 0 0.08 0.08 0 0.12 0.08 0 0.16 0.08 0 0.2 0.08 0 0.24 0.08 0 0.28 0.08 0 0.32 0.08 0 0.36 0.08 0 0.4 0.08 0 0.44 0.08 0 0.48 0.08 0 0.52 0.08 0 0.56 0.08 0 0.6 0.08 0 0.64 0.08 0 0.68 0.08 0 0.72 0.08 0 0.76 0.08 0 0.8 0.08 0 0.84 0.08 0 0.88 0.08 0 0.92 0.08 0 0.96 0.08 0 1 0.08 0 1.04 0.08 0 1.08 0.08 0 1.12 0.08 0 1.16 0.08 0 1.2 0.08 0 0 0.12 0 0.04 0.12 0 0.08 0.12 0 0.12 0.12 0 0.16 0.12 0 0.2 0.12 0 0.24 0.12 0 0.28 0.12 0 0.32 0.12 0 0.36 0.12 0 0.4 0.12 0 0.44 0.12 0 0.48 0.12 0 0.52 0.12 0 0.56 0.12 0 0.6 0.12 0 0.64 0.12 0 0.68 0.12 0 0.72 0.12 0 0.76 0.12 0 0.8 0.12 0 0.84 0.12 0 0.88 0.12 0 0.92 0.12 0 0.96 0.12 0 1 0.12 0 1.04 0.12 0 1.08 0.12 0 1.12 0.12 0 1.16 0.12 0 1.2 0.12 0 0 0.16 0 0.04 0.16 0 0.08 0.16 0 0.12 0.16 0 0.16 0.16 0 0.2 0.16 0 0.24 0.16 0 0.28 0.16 0 0.32 0.16 0 0.36 0.16 0 0.4 0.16 0 0.44 0.16 0 0.48 0.16 0 0.52 0.16 0 0.56 0.16 0 0.6 0.16 0 0.64 0.16 0 0.68 0.16 0 0.72 0.16 0 0.76 0.16 0 0.8 0.16 0 0.84 0.16 0 0.88 0.16 0 0.92 0.16 0 0.96 0.16 0 1 0.16 0 1.04 0.16 0 1.08 0.16 0 1.12 0.16 0 1.16 0.16 0 1.2 0.16 0 0 0.2 0 0.04 0.2 0 0.08 0.2 0 0.12 0.2 0 0.16 0.2 0 0.2 0.2 0 0.24 0.2 0 0.28 0.2 0 0.32 0.2 0 0.36 0.2 0 0.4 0.2 0 0.44 0.2 0 0.48 0.2 0 0.52 0.2 0 0.56 0.2 0 0.6 0.2 0 0.64 0.2 0 0.68 0.2 0 0.72 0.2 0 0.76 0.2 0 0.8 0.2 0 0.84 0.2 0 0.88 0.2 0 0.92 0.2 0 0.96 0.2 0 1 0.2 0 1.04 0.2 0 1.08 0.2 0 1.12 0.2 0 1.16 0.2 0 1.2 0.2 0 0 0.24 0 0.04 0.24 0 0.08 0.24 0 0.12 0.24 0 0.16 0.24 0 0.2 0.24 0 0.24 0.24 0 0.28 0.24 0 0.32 0.24 0 0.36 0.24 0 0.4 0.24 0 0.44 0.24 0 0.48 0.24 0 0.52 0.24 0 0.56 0.24 0 0.6 0.24 0 0.64 0.24 0 0.68 0.24 0 0.72 0.24 0 0.76 0.24 0 0.8 0.24 0 0.84 0.24 0 0.88 0.24 0 0.92 0.24 0 0.96 0.24 0 1 0.24 0 1.04 0.24 0 1.08 0.24 0 1.12 0.24 0 1.16 0.24 0 1.2 0.24 0 0 0.28 0 0.04 0.28 0 0.08 0.28 0 0.12 0.28 0 0.16 0.28 0 0.2 0.28 0 0.24 0.28 0 0.28 0.28 0 0.32 0.28 0 0.36 0.28 0 0.4 0.28 0 0.44 0.28 0 0.48 0.28 0 0.52 0.28 0 0.56 0.28 0 0.6 0.28 0 0.64 0.28 0 0.68 0.28 0 0.72 0.28 0 0.76 0.28 0 0.8 0.28 0 0.84 0.28 0 0.88 0.28 0 0.92 0.28 0 0.96 0.28 0 1 0.28 0 1.04 0.28 0 1.08 0.28 0 1.12 0.28 0 1.16 0.28 0 1.2 0.28 0 0 0.32 0 0.04 0.32 0 0.08 0.32 0 0.12 0.32 0 0.16 0.32 0 0.2 0.32 0 0.24 0.32 0 0.28 0.32 0 0.32 0.32 0 0.36 0.32 0 0.4 0.32 0 0.44 0.32 0 0.48 0.32 0 0.52 0.32 0 0.56 0.32 0 0.6 0.32 0 0.64 0.32 0 0.68 0.32 0 0.72 0.32 0 0.76 0.32 0 0.8 0.32 0 0.84 0.32 0 0.88 0.32 0 0.92 0.32 0 0.96 0.32 0 1 0.32 0 1.04 0.32 0 1.08 0.32 0 1.12 0.32 0 1.16 0.32 0 1.2 0.32 0 0 0.36 0 0.04 0.36 0 0.08 0.36 0 0.12 0.36 0 0.16 0.36 0 0.2 0.36 0 0.24 0.36 0 0.28 0.36 0 0.32 0.36 0 0.36 0.36 0 0.4 0.36 0 0.44 0.36 0 0.48 0.36 0 0.52 0.36 0 0.56 0.36 0 0.6 0.36 0 0.64 0.36 0 0.68 0.36 0 0.72 0.36 0 0.76 0.36 0 0.8 0.36 0 0.84 0.36 0 0.88 0.36 0 0.92 0.36 0 0.96 0.36 0 1 0.36 0 1.04 0.36 0 1.08 0.36 0 1.12 0.36 0 1.16 0.36 0 1.2 0.36 0 0 0.4 0 0.04 0.4 0 0.08 0.4 0 0.12 0.4 0 0.16 0.4 0 0.2 0.4 0 0.24 0.4 0 0.28 0.4 0 0.32 0.4 0 0.36 0.4 0 0.4 0.4 0 0.44 0.4 0 0.48 0.4 0 0.52 0.4 0 0.56 0.4 0 0.6 0.4 0 0.64 0.4 0 0.68 0.4 0 0.72 0.4 0 0.76 0.4 0 0.8 0.4 0 0.84 0.4 0 0.88 0.4 0 0.92 0.4 0 0.96 0.4 0 1 0.4 0 1.04 0.4 0 1.08 0.4 0 1.12 0.4 0 1.16 0.4 0 1.2 0.4 0 0 0.44 0 0.04 0.44 0 0.08 0.44 0 0.12 0.44 0 0.16 0.44 0 0.2 0.44 0 0.24 0.44 0 0.28 0.44 0 0.32 0.44 0 0.36 0.44 0 0.4 0.44 0 0.44 0.44 0 0.48 0.44 0 0.52 0.44 0 0.56 0.44 0 0.6 0.44 0 0.64 0.44 0 0.68 0.44 0 0.72 0.44 0 0.76 0.44 0 0.8 0.44 0 0.84 0.44 0 0.88 0.44 0 0.92 0.44 0 0.96 0.44 0 1 0.44 0 1.04 0.44 0 1.08 0.44 0 1.12 0.44 0 1.16 0.44 0 1.2 0.44 0 0 0.48 0 0.04 0.48 0 0.08 0.48 0 0.12 0.48 0 0.16 0.48 0 0.2 0.48 0 0.24 0.48 0 0.28 0.48 0 0.32 0.48 0 0.36 0.48 0 0.4 0.48 0 0.44 0.48 0 0.48 0.48 0 0.52 0.48 0 0.56 0.48 0 0.6 0.48 0 0.64 0.48 0 0.68 0.48 0 0.72 0.48 0 0.76 0.48 0 0.8 0.48 0 0.84 0.48 0 0.88 0.48 0 0.92 0.48 0 0.96 0.48 0 1 0.48 0 1.04 0.48 0 1.08 0.48 0 1.12 0.48 0 1.16 0.48 0 1.2 0.48 0 0 0.52 0 0.04 0.52 0 0.08 0.52 0 0.12 0.52 0 0.16 0.52 0 0.2 0.52 0 0.24 0.52 0 0.28 0.52 0 0.32 0.52 0 0.36 0.52 0 0.4 0.52 0 0.44 0.52 0 0.48 0.52 0 0.52 0.52 0 0.56 0.52 0 0.6 0.52 0 0.64 0.52 0 0.68 0.52 0 0.72 0.52 0 0.76 0.52 0 0.8 0.52 0 0.84 0.52 0 0.88 0.52 0 0.92 0.52 0 0.96 0.52 0 1 0.52 0 1.04 0.52 0 1.08 0.52 0 1.12 0.52 0 1.16 0.52 0 1.2 0.52 0 0 0.56 0 0.04 0.56 0 0.08 0.56 0 0.12 0.56 0 0.16 0.56 0 0.2 0.56 0 0.24 0.56 0 0.28 0.56 0 0.32 0.56 0 0.36 0.56 0 0.4 0.56 0 0.44 0.56 0 0.48 0.56 0 0.52 0.56 0 0.56 0.56 0 0.6 0.56 0 0.64 0.56 0 0.68 0.56 0 0.72 0.56 0 0.76 0.56 0 0.8 0.56 0 0.84 0.56 0 0.88 0.56 0 0.92 0.56 0 0.96 0.56 0 1 0.56 0 1.04 0.56 0 1.08 0.56 0 1.12 0.56 0 1.16 0.56 0 1.2 0.56 0 0 0.6 0 0.04 0.6 0 0.08 0.6 0 0.12 0.6 0 0.16 0.6 0 0.2 0.6 0 0.24 0.6 0 0.28 0.6 0 0.32 0.6 0 0.36 0.6 0 0.4 0.6 0 0.44 0.6 0 0.48 0.6 0 0.52 0.6 0 0.56 0.6 0 0.6 0.6 0 0.64 0.6 0 0.68 0.6 0 0.72 0.6 0 0.76 0.6 0 0.8 0.6 0 0.84 0.6 0 0.88 0.6 0 0.92 0.6 0 0.96 0.6 0 1 0.6 0 1.04 0.6 0 1.08 0.6 0 1.12 0.6 0 1.16 0.6 0 1.2 0.6 0 0 0.64 0 0.04 0.64 0 0.08 0.64 0 0.12 0.64 0 0.16 0.64 0 0.2 0.64 0 0.24 0.64 0 0.28 0.64 0 0.32 0.64 0 0.36 0.64 0 0.4 0.64 0 0.44 0.64 0 0.48 0.64 0 0.52 0.64 0 0.56 0.64 0 0.6 0.64 0 0.64 0.64 0 0.68 0.64 0 0.72 0.64 0 0.76 0.64 0 0.8 0.64 0 0.84 0.64 0 0.88 0.64 0 0.92 0.64 0 0.96 0.64 0 1 0.64 0 1.04 0.64 0 1.08 0.64 0 1.12 0.64 0 1.16 0.64 0 1.2 0.64 0 0 0.68 0 0.04 0.68 0 0.08 0.68 0 0.12 0.68 0 0.16 0.68 0 0.2 0.68 0 0.24 0.68 0 0.28 0.68 0 0.32 0.68 0 0.36 0.68 0 0.4 0.68 0 0.44 0.68 0 0.48 0.68 0 0.52 0.68 0 0.56 0.68 0 0.6 0.68 0 0.64 0.68 0 0.68 0.68 0 0.72 0.68 0 0.76 0.68 0 0.8 0.68 0 0.84 0.68 0 0.88 0.68 0 0.92 0.68 0 0.96 0.68 0 1 0.68 0 1.04 0.68 0 1.08 0.68 0 1.12 0.68 0 1.16 0.68 0 1.2 0.68 0 0 0.72 0 0.04 0.72 0 0.08 0.72 0 0.12 0.72 0 0.16 0.72 0 0.2 0.72 0 0.24 0.72 0 0.28 0.72 0 0.32 0.72 0 0.36 0.72 0 0.4 0.72 0 0.44 0.72 0 0.48 0.72 0 0.52 0.72 0 0.56 0.72 0 0.6 0.72 0 0.64 0.72 0 0.68 0.72 0 0.72 0.72 0 0.76 0.72 0 0.8 0.72 0 0.84 0.72 0 0.88 0.72 0 0.92 0.72 0 0.96 0.72 0 1 0.72 0 1.04 0.72 0 1.08 0.72 0 1.12 0.72 0 1.16 0.72 0 1.2 0.72 0 0 0.76 0 0.04 0.76 0 0.08 0.76 0 0.12 0.76 0 0.16 0.76 0 0.2 0.76 0 0.24 0.76 0 0.28 0.76 0 0.32 0.76 0 0.36 0.76 0 0.4 0.76 0 0.44 0.76 0 0.48 0.76 0 0.52 0.76 0 0.56 0.76 0 0.6 0.76 0 0.64 0.76 0 0.68 0.76 0 0.72 0.76 0 0.76 0.76 0 0.8 0.76 0 0.84 0.76 0 0.88 0.76 0 0.92 0.76 0 0.96 0.76 0 1 0.76 0 1.04 0.76 0 1.08 0.76 0 1.12 0.76 0 1.16 0.76 0 1.2 0.76 0 0 0.8 0 0.04 0.8 0 0.08 0.8 0 0.12 0.8 0 0.16 0.8 0 0.2 0.8 0 0.24 0.8 0 0.28 0.8 0 0.32 0.8 0 0.36 0.8 0 0.4 0.8 0 0.44 0.8 0 0.48 0.8 0 0.52 0.8 0 0.56 0.8 0 0.6 0.8 0 0.64 0.8 0 0.68 0.8 0 0.72 0.8 0 0.76 0.8 0 0.8 0.8 0 0.84 0.8 0 0.88 0.8 0 0.92 0.8 0 0.96 0.8 0 1 0.8 0 1.04 0.8 0 1.08 0.8 0 1.12 0.8 0 1.16 0.8 0 1.2 0.8 0 0 0.84 0 0.04 0.84 0 0.08 0.84 0 0.12 0.84 0 0.16 0.84 0 0.2 0.84 0 0.24 0.84 0 0.28 0.84 0 0.32 0.84 0 0.36 0.84 0 0.4 0.84 0 0.44 0.84 0 0.48 0.84 0 0.52 0.84 0 0.56 0.84 0 0.6 0.84 0 0.64 0.84 0 0.68 0.84 0 0.72 0.84 0 0.76 0.84 0 0.8 0.84 0 0.84 0.84 0 0.88 0.84 0 0.92 0.84 0 0.96 0.84 0 1 0.84 0 1.04 0.84 0 1.08 0.84 0 1.12 0.84 0 1.16 0.84 0 1.2 0.84 0 0 0.88 0 0.04 0.88 0 0.08 0.88 0 0.12 0.88 0 0.16 0.88 0 0.2 0.88 0 0.24 0.88 0 0.28 0.88 0 0.32 0.88 0 0.36 0.88 0 0.4 0.88 0 0.44 0.88 0 0.48 0.88 0 0.52 0.88 0 0.56 0.88 0 0.6 0.88 0 0.64 0.88 0 0.68 0.88 0 0.72 0.88 0 0.76 0.88 0 0.8 0.88 0 0.84 0.88 0 0.88 0.88 0 0.92 0.88 0 0.96 0.88 0 1 0.88 0 1.04 0.88 0 1.08 0.88 0 1.12 0.88 0 1.16 0.88 0 1.2 0.88 0 0 0.92 0 0.04 0.92 0 0.08 0.92 0 0.12 0.92 0 0.16 0.92 0 0.2 0.92 0 0.24 0.92 0 0.28 0.92 0 0.32 0.92 0 0.36 0.92 0 0.4 0.92 0 0.44 0.92 0 0.48 0.92 0 0.52 0.92 0 0.56 0.92 0 0.6 0.92 0 0.64 0.92 0 0.68 0.92 0 0.72 0.92 0 0.76 0.92 0 0.8 0.92 0 0.84 0.92 0 0.88 0.92 0 0.92 0.92 0 0.96 0.92 0 1 0.92 0 1.04 0.92 0 1.08 0.92 0 1.12 0.92 0 1.16 0.92 0 1.2 0.92 0 0 0.96 0 0.04 0.96 0 0.08 0.96 0 0.12 0.96 0 0.16 0.96 0 0.2 0.96 0 0.24 0.96 0 0.28 0.96 0 0.32 0.96 0 0.36 0.96 0 0.4 0.96 0 0.44 0.96 0 0.48 0.96 0 0.52 0.96 0 0.56 0.96 0 0.6 0.96 0 0.64 0.96 0 0.68 0.96 0 0.72 0.96 0 0.76 0.96 0 0.8 0.96 0 0.84 0.96 0 0.88 0.96 0 0.92 0.96 0 0.96 0.96 0 1 0.96 0 1.04 0.96 0 1.08 0.96 0 1.12 0.96 0 1.16 0.96 0 1.2 0.96 0 0 1 0 0.04 1 0 0.08 1 0 0.12 1 0 0.16 1 0 0.2 1 0 0.24 1 0 0.28 1 0 0.32 1 0 0.36 1 0 0.4 1 0 0.44 1 0 0.48 1 0 0.52 1 0 0.56 1 0 0.6 1 0 0.64 1 0 0.68 1 0 0.72 1 0 0.76 1 0 0.8 1 0 0.84 1 0 0.88 1 0 0.92 1 0 0.96 1 0 1 1 0 1.04 1 0 1.08 1 0 1.12 1 0 1.16 1 0 1.2 1 0 0 1.04 0 0.04 1.04 0 0.08 1.04 0 0.12 1.04 0 0.16 1.04 0 0.2 1.04 0 0.24 1.04 0 0.28 1.04 0 0.32 1.04 0 0.36 1.04 0 0.4 1.04 0 0.44 1.04 0 0.48 1.04 0 0.52 1.04 0 0.56 1.04 0 0.6 1.04 0 0.64 1.04 0 0.68 1.04 0 0.72 1.04 0 0.76 1.04 0 0.8 1.04 0 0.84 1.04 0 0.88 1.04 0 0.92 1.04 0 0.96 1.04 0 1 1.04 0 1.04 1.04 0 1.08 1.04 0 1.12 1.04 0 1.16 1.04 0 1.2 1.04 0 0 1.08 0 0.04 1.08 0 0.08 1.08 0 0.12 1.08 0 0.16 1.08 0 0.2 1.08 0 0.24 1.08 0 0.28 1.08 0 0.32 1.08 0 0.36 1.08 0 0.4 1.08 0 0.44 1.08 0 0.48 1.08 0 0.52 1.08 0 0.56 1.08 0 0.6 1.08 0 0.64 1.08 0 0.68 1.08 0 0.72 1.08 0 0.76 1.08 0 0.8 1.08 0 0.84 1.08 0 0.88 1.08 0 0.92 1.08 0 0.96 1.08 0 1 1.08 0 1.04 1.08 0 1.08 1.08 0 1.12 1.08 0 1.16 1.08 0 1.2 1.08 0 0 1.12 0 
[...]
			<PointData Scalars="VitesseX">
				<DataArray Name="VitesseX" type="Float32" format="ascii">
 0 0.028243 0.011086 0.0730713 0.0570958 0.127765 0.206955 0.244862 0.300839 0.36109 0.413912 0.477974 0.60738 0.596628 0.475056 0.237017 0.0329704 0.000254383 2.60445e-08 1.78103e-12 -1.13346e-15 1.25684e-15 -1.25684e-15 4.39419e-45 1.25684e-15 0 -1.25684e-15 1.25684e-15 -4.28135e-15 4.28135e-15 0 0 0.110167 0.129227 0.140953 0.123734 0.164704 0.228151 0.260283 0.309169 0.365572 0.413597 0.479012 0.603782 0.587848 0.462818 0.224855 0.0293012 0.000207162 2.20625e-08 1.59322e-12 -1.14226e-15 1.25684e-15 -1.25684e-15 7.62102e-31 1.25684e-15 0 -1.25684e-15 1.25684e-15 -4.27668e-15 4.27667e-15 0 0 0.0908235 0.1312 0.164771 0.19008 0.217138 0.245888 0.281559 0.320486 0.375551 0.416016 0.492458 0.602991 0.572601 0.434441 0.192193 0.0203515 0.000111433 1.34691e-08 1.13535e-12 -2.0505e-15 2.74481e-15 -6.2842e-16 -1.46641e-30 -1.48797e-15 -5.90038e-38 1.48797e-15 6.4065e-16 -4.26791e-15 2.13929e-15 0 0 0.03398 0.0978831 0.159991 0.212481 0.24435 0.264411 0.307225 0.337268 0.391176 0.422496 0.521191 0.597719 0.547656 0.387885 0.142956 0.0106212 3.90224e-05 5.92417e-09 6.35298e-13 -1.43915e-15 2.11639e-15 -2.11639e-15 -1.02715e-29 1.22312e-17 -1.02494e-21 -1.22301e-17 1.22301e-17 -2.13191e-15 2.13191e-15 0 0 0.0270039 0.0947382 0.153854 0.214259 0.243854 0.287945 0.316715 0.360576 0.402459 0.435557 0.55512 0.582195 0.506878 0.318091 0.0856223 0.00393471 8.68687e-06 1.83781e-09 2.68474e-13 -2.07795e-15 -2.07729e-21 1.22301e-17 -2.12862e-15 2.12862e-15 -1.02494e-21 5.14623e-30 -2.12862e-15 3.89256e-30 2.12862e-15 0 0 0.0403302 0.0995236 0.148127 0.200623 0.24888 0.288322 0.322983 0.37934 0.401817 0.466101 0.570144 0.552752 0.440925 0.22292 0.0382701 0.000970439 1.20613e-06 3.85262e-10 8.01778e-14 -2.10298e-15 2.12862e-15 3.05375e-23 -3.05375e-23 -2.12862e-15 -1.30615e-30 2.12868e-15 2.54886e-17 -2.15427e-15 1.00604e-19 0 0 0.037532 0.0895977 0.13868 0.194215 0.240601 0.28011 0.339021 0.372593 0.405401 0.516452 0.553851 0.498829 0.341801 0.11895 0.0116363 0.000146581 1.15219e-07 5.35641e-11 1.85897e-14 1.077e-17 1.60337e-23 3.55069e-20 -3.55069e-20 -2.12862e-15 -1.30954e-19 2.15438e-15 -1.24743e-14 1.24741e-14 -2.15419e-15 0 0 0.0354438 0.0790214 0.12942 0.180641 0.229106 0.286592 0.329635 0.360152 0.448338 0.526298 0.509472 0.408057 0.209449 0.0435715 0.00218577 1.20169e-05 9.54193e-09 5.55201e-12 4.35315e-15 1.86745e-17 6.17777e-20 -6.23913e-15 4.099e-15 2.16572e-15 -1.49403e-19 -1.2474e-14 -1.65849e-23 1.65849e-23 1.24741e-14 0 0 0.0359006 0.0774592 0.123296 0.17424 0.227993 0.273776 0.313682 0.390879 0.480665 0.490407 0.428362 0.272131 0.0871779 0.00985267 0.000221554 5.10228e-07 6.18507e-10 4.8561e-13 -8.24355e-15 8.41205e-15 -1.2498e-14 6.25888e-15 4.07339e-15 2.16572e-15 -1.49405e-19 -1.2474e-14 -7.37142e-18 7.35141e-18 1.24742e-14 0 0 0.0371379 0.0778795 0.121954 0.169375 0.216767 0.268286 0.346417 0.426719 0.451776 0.413832 0.295716 0.122496 0.022342 0.00118237 9.95074e-06 1.72547e-08 2.54464e-11 3.44049e-14 -8.36778e-15 -6.23471e-15 1.39929e-18 1.24723e-14 -2.15414e-15 -1.2111e-30 -1.30956e-19 2.15419e-15 -1.24814e-14 1.0739e-17 1.0313e-14 0 0 0.0376395 0.0778444 0.121734 0.171309 0.231791 0.306453 0.369573 0.398855 0.374952 0.284617 0.13633 0.0330049 0.00293521 6.03448e-05 1.99028e-07 5.36966e-10 9.39501e-13 3.67588e-15 3.53804e-20 -1.46441e-14 1.46441e-14 -2.15438e-15 2.15432e-15 -2.15419e-15 -3.89647e-38 -1.30927e-19 4.30856e-15 -1.67792e-14 1.46215e-14 0 0 0.0427393 0.0899736 0.143009 0.201068 0.259441 0.310396 0.335297 0.318367 0.246444 0.126424 0.0358826 0.00433354 0.000154641 1.03352e-06 3.87071e-09 1.06205e-11 2.48587e-14 1.00731e-16 9.46895e-18 -1.62221e-17 2.17037e-15 -2.15422e-15 2.14129e-15 -2.14128e-15 -1.49257e-20 -5.82454e-18 4.31427e-15 -4.30858e-15 -1.03205e-14 0 0 0.05134 0.103246 0.154194 0.204046 0.2452 0.263154 0.248194 0.189164 0.098223 0.0298956 0.00422145 0.000205791 2.29165e-06 1.18099e-08 5.45684e-11 2.0077e-13 1.28024e-14 -1.46349e-14 1.46359e-14 -1.85308e-19 -1.24703e-14 1.24704e-14 -1.46393e-14 1.46394e-14 -1.43509e-19 -5.6924e-18 -3.82984e-14 3.8304e-14 -1.24746e-14 0 0 0.0503833 0.0979279 0.139587 0.171253 0.183075 0.168078 0.122575 0.0617778 0.0186415 0.00273421 0.000151997 2.28099e-06 1.70017e-08 1.22658e-10 6.73393e-13 -9.89314e-15 -1.07355e-16 9.34192e-18 1.24723e-14 1.95173e-20 -1.24705e-14 1.24663e-14 -1.24681e-14 -3.70201e-18 1.58624e-18 1.46284e-14 -4.04583e-14 4.04581e-14 -1.46333e-14 0 0 0.0393375 0.0718517 0.0937871 0.0999808 0.0884756 0.060744 0.0284296 0.0078421 0.00107544 5.86089e-05 1.01754e-06 1.16728e-08 1.22043e-10 9.73629e-13 6.21302e-15 2.15561e-15 -1.24814e-14 9.31891e-18 1.03181e-14 2.15419e-15 -6.61142e-20 -2.15828e-15 -1.03166e-14 -1.08716e-18 1.53915e-18 -1.06257e-19 1.46285e-14 -1.46285e-14 -4.8413e-18 0 0 0.0184112 0.0307043 0.0347874 0.0303348 0.0188531 0.00753907 0.00174284 0.000201567 9.58002e-06 1.92395e-07 3.78312e-09 5.36528e-11 6.61544e-13 6.27687e-15 -3.04076e-17 -1.00602e-19 2.15416e-15 -1.24721e-14 1.03181e-14 -1.03181e-14 1.24722e-14 -1.4629e-14 2.15422e-15 1.46289e-14 -2.04367e-19 -2.92567e-14 2.92567e-14 -2.92567e-14 2.92571e-14 0 0 0.0033137 0.00479419 0.00400018 0.00209232 0.000669044 0.000121339 1.09881e-05 4.77509e-07 1.6247e-08 5.17886e-10 1.02509e-11 1.96674e-13 1.48524e-14 -2.15277e-15 1.00612e-19 2.15419e-15 -2.15432e-15 2.15436e-15 -2.15427e-15 -1.03181e-14 -3.68169e-18 9.96417e-19 1.46293e-14 -1.46287e-14 -2.86969e-20 -1.06271e-19 1.46285e-14 -1.46285e-14 -4.84129e-18 0 0 4.03949e-05 4.29615e-05 2.20964e-05 6.26152e-06 9.82815e-07 9.72228e-08 8.36238e-09 5.7028e-10 2.36739e-11 8.88866e-13 2.85122e-14 -1.19444e-14 -1.07309e-16 1.24814e-14 -2.15422e-15 2.15432e-15 -2.15432e-15 2.15438e-15 -1.46364e-14 1.67905e-14 -2.92664e-14 2.92663e-14 -1.46335e-14 5.00277e-18 1.40099e-21 1.46282e-14 -4.04578e-14 4.04578e-14 -1.46332e-14 0 0 3.73343e-09 4.5236e-09 2.91012e-09 1.16407e-09 2.8845e-10 4.33982e-11 4.64668e-12 4.28467e-13 2.73202e-14 -8.51067e-16 9.90028e-17 -1.03078e-14 -9.33587e-18 9.3589e-18 1.2472e-14 -2.15398e-15 2.154e-15 -1.24814e-14 9.95814e-17 -2.59267e-14 2.59268e-14 -1.0024e-16 2.70506e-18 3.31095e-18 1.71622e-18 1.46282e-14 -4.04579e-14 2.58263e-14 -4.34354e-18 0 0 1.87925e-13 2.68942e-13 2.3123e-13 1.36951e-13 4.71917e-14 1.44108e-14 -1.87603e-16 -3.94871e-15 8.41887e-15 -4.30839e-15 -9.39225e-18 -1.03086e-14 1.24722e-14 -1.46264e-14 1.46264e-14 -2.15418e-15 -1.0328e-14 1.00772e-16 3.73795e-18 -2.59311e-14 2.59298e-14 -1.03201e-16 6.14054e-18 -1.53225e-19 1.71482e-18 -1.06271e-19 1.46285e-14 -2.926e-14 1.4624e-14 0 0 8.04443e-17 -2.07645e-15 2.72195e-15 -2.08321e-15 -2.12455e-15 4.26805e-15 -4.27607e-15 -4.06606e-15 -6.23477e-15 1.03037e-14 1.58836e-17 4.30851e-15 -4.30837e-15 2.15414e-15 -1.46264e-14 1.46262e-14 -1.24819e-14 -2.57264e-14 2.57308e-14 -4.3331e-18 3.0139e-18 1.4633e-14 -2.92601e-14 2.92601e-14 -7.69001e-24 -2.92567e-14 2.92566e-14 -1.46282e-14 1.46284e-14 0 0 -3.71098e-30 -1.48797e-15 2.11639e-15 -4.23279e-15 2.12862e-15 -5.20991e-24 -5.93466e-20 -1.24467e-14 -1.502e-18 1.03037e-14 2.16999e-15 -1.24702e-14 1.24704e-14 -7.629e-20 -1.24722e-14 -3.91113e-18 -5.91555e-18 -2.57265e-14 2.57295e-14 -3.02976e-18 1.14028e-17 -1.15748e-17 1.06491e-16 -1.00334e-16 1.71582e-18 1.75666e-19 1.46281e-14 -1.46281e-14 1.46283e-14 0 0 -2.61727e-45 6.2842e-16 -2.11639e-15 1.22301e-17 5.19275e-30 3.55229e-20 -6.2392e-15 -6.20758e-15 1.24722e-14 -2.154e-15 2.15411e-15 -1.24704e-14 1.24662e-14 -2.15007e-15 -1.03207e-14 -1.26284e-18 -5.92664e-18 1.00119e-16 -9.71576e-17 1.4633e-14 -2.92608e-14 1.4625e-14 1.0002e-16 -9.41678e-17 1.47112e-18 1.46287e-14 -1.46302e-14 -1.46298e-14 2.92603e-14 0 0 0 1.25684e-15 -4.23279e-15 2.12862e-15 -5.2099e-24 3.55281e-20 -8.37933e-15 8.40494e-15 -2.1544e-15 2.15432e-15 -2.16709e-15 -1.03051e-14 1.24681e-14 -1.46249e-14 2.15422e-15 1.46289e-14 -1.46335e-14 -2.70071e-18 6.13619e-18 -3.11386e-19 9.44961e-17 -1.003e-16 -2.05552e-20 6.01407e-18 5.07348e-18 -1.11801e-17 1.06404e-16 -1.0209e-16 -2.58357e-14 0 0 -5.09175e-30 -1.48797e-15 1.22311e-17 -2.12862e-15 2.12862e-15 -2.12862e-15 2.14271e-15 -2.14271e-15 -3.65231e-30 2.15419e-15 -2.16708e-15 -1.03051e-14 -3.89082e-18 1.17207e-18 1.46289e-14 -1.46284e-14 -5.29785e-18 3.56001e-18 -1.53232e-19 -9.90454e-22 1.00334e-16 -1.06443e-16 6.26264e-18 -1.53226e-19 5.34687e-18 -1.1687e-17 -2.57207e-14 4.03562e-14 -4.04667e-14 0 0 -2.78067e-29 -4.23279e-15 4.25725e-15 -4.25725e-15 1.30613e-30 -1.30954e-19 4.30855e-15 -4.30855e-15 1.30954e-19 3.9056e-38 1.49269e-20 4.30839e-15 -2.92587e-14 2.92585e-14 -1.46955e-19 -2.92567e-14 2.92567e-14 -2.92584e-14 2.92584e-14 5.76403e-24 -2.92584e-14 2.92582e-14 -2.92546e-14 2.92548e-14 -1.06277e-19 -2.93383e-19 -8.09201e-14 8.09197e-14 7.63537e-19 0 0 -5.62095e-30 -1.48797e-15 1.22301e-17 -1.034e-29 -2.12857e-15 2.15401e-15 -1.2474e-14 1.2474e-14 -2.15419e-15 1.30927e-19 -5.82455e-18 4.31423e-15 -1.46288e-14 1.06271e-19 6.54675e-38 -1.06271e-19 1.46285e-14 -1.46285e-14 1.06271e-19 1.20188e-33 1.75651e-19 1.46279e-14 -2.92606e-14 2.92606e-14 1.89502e-20 -4.04802e-14 2.18644e-16 -2.18574e-16 4.04804e-14 0 0 -4.61818e-31 6.4065e-16 -4.24502e-15 2.12862e-15 2.56027e-17 -1.24742e-14 -3.98116e-35 -7.37141e-18 1.24814e-14 1.77067e-19 -5.85901e-18 -3.82983e-14 4.0458e-14 -1.46282e-14 -6.88077e-43 1.46282e-14 -4.04578e-14 4.04578e-14 -1.46282e-14 -8.00428e-20 1.46286e-14 -1.46302e-14 9.42475e-17 -2.59219e-14 -5.43048e-18 1.84045e-16 3.84086e-17 -3.83389e-17 -1.62741e-16 0 0 -2.86917e-16 -7.73835e-16 -2.12862e-15 -2.63313e-30 2.15407e-15 -1.2474e-14 3.75863e-23 -7.39146e-18 1.07791e-17 1.24708e-14 -1.29691e-19 -3.83042e-14 4.04581e-14 -1.46282e-14 -5.31132e-43 1.46282e-14 -4.04579e-14 2.58263e-14 3.31315e-18 1.46284e-14 -1.46284e-14 -1.46333e-14 2.93617e-14 -4.05581e-14 -5.08485e-18 1.84115e-16 3.8339e-17 -3.83389e-17 -1.62741e-16 0 0 -1.18261e-11 -2.89844e-15 2.12862e-15 -2.12862e-15 -1.00602e-19 2.1542e-15 -1.24741e-14 1.24741e-14 -1.46285e-14 1.46286e-14 -1.46292e-14 1.67833e-14 -1.46338e-14 5.45932e-18 -4.91747e-47 -5.45932e-18 1.46337e-14 -2.92679e-14 1.46396e-14 1.46283e-14 -1.46283e-14 -3.14518e-18 -2.58367e-14 4.04676e-14 2.40051e-19 -4.04799e-14 2.39419e-16 -2.39418e-16 4.04801e-14 0 0 0 0 0 0 0 0 0 0 0 0 0 0 0 0 0 0 0 0 0 0 0 0 0 0 0 0 0 0 0 0
				</DataArray>
				<DataArray Name="VitesseY" type="Float32" format="ascii">