<?xml version="1.0"?>
<VTKFile type="PolyData">
	<PolyData>
		<Piece NumberOfPoints="961" NumberOfPolys="900">
			<Points>
				<DataArray type="Float32" NumberOfComponents="3" format="ascii">
 0 0 0 0.04 0 0 0.08 0 0 0.12 0 0 0.16 0 0 0.2 0 0 0.24 0 0 0.28 0 0 0.32 0 0 0.36 0 0 0.4 0 0 0.44 0 0 0.48 0 0 0.52 0 0 0.56 0 0 0.6 0 0 0.64 0 0 0.68 0 0 0.72 0 0 0.76 0 0 0.8 0 0 0.84 0 0 0.88 0 0 0.92 0 0 0.96 0 0 1 0 0 1.04 0 0 1.08 0 0 1.12 0 0 1.16 0 0 1.2 0 0 0 0.04 0 0.04 0.04 0 0.08 0.04 0 0.12 0.04 0 0.16 0.04 0 0.2 0.04 0 0.24 0.04 0 0.28 0.04 0 0.32 0.04 0 0.36 0.04 0 0.4 0.04 0 0.44 0.04 0 0.48 0.04 0 0.52 0.04 0 0.56 0.04 0 0.6 0.04 0 0.64 0.04 0 0.68 0.04 0 0.72 0.04 0 0.76 0.04 0 0.8 0.04 0 0.84 0.04 0 0.88 0.04 0 0.92 0.04 0 0.96 0.04 0 1 0.04 0 1.04 0.04 0 1.08 0.04 0 1.12 0.04 0 1.16 0.04 0 1.2 0.04 0 0 0.08 0 0.04 0.08 0 0.08 0.08 0 0.12 0.08 0 0.16 0.08 0 0.2 0.08 0 0.24 0.08 0 0.28 0.08 0 0.32 0.08 0 0.36 0.08 0 0.4 0.08 0 0.44 0.08 0 0.48 0.08 0 0.52 0.08 0 0.56 0.08 0 0.6 0.08 0 0.64 0.08 0 0.68 0.08 0 0.72 0.08 0 0.76 0.08 0 0.8 0.08 0 0.84 0.08 0 0.88 0.08 0 0.92 0.08 0 0.96 0.08 0 1 0.08 0 1.04 0.08 0 1.08 0.08 0 1.12 0.08 0 1.16 0.08 0 1.2 0.08 0 0 0.12 0 0.04 0.12 0 0.08 0.12 0 0.12 0.12 0 0.16 0.12 0 0.2 0.12 0 0.24 0.12 0 0.28 0.12 0 0.32 0.12 0 0.36 0.12 0 0.4 0.12 0 0.44 0.12 0 0.48 0.12 0 0.52 0.12 0 0.56 0.12 0 0.6 0.12 0 0.64 0.12 0 0.68 0.12 0 0.72 0.12 0 0.76 0.12 0 0.8 0.12 0 0.84 0.12 0 0.88 0.12 0 0.92 0.12 0 0.96 0.12 0 1 0.12 0 1.04 0.12 0 1.08 0.12 0 1.12 0.12 0 1.16 0.12 0 1.2 0.12 0 0 0.16 0 0.04 0.16 0 0.08 0.16 0 0.12 0.16 0 0.16 0.16 0 0.2 0.16 0 0.24 0.16 0 0.28 0.16 0 0.32 0.16 0 0.36 0.16 0 0.4 0.16 0 0.44 0.16 0 0.48 0.16 0 0.52 0.16 0 0.56 0.16 0 0.6 0.16 0 0.64 0.16 0 0.68 0.16 0 0.72 0.16 0 0.76 0.16 0 0.8 0.16 0 0.84 0.16 0 0.88 0.16 0 0.92 0.16 0 0.96 0.16 0 1 0.16 0 1.04 0.16 0 1.08 0.16 0 1.12 0.16 0 1.16 0.16 0 1.2 0.16 0 0 0.2 0 0.04 0.2 0 0.08 0.2 0 0.12 0.2 0 0.16 0.2 0 0.2 0.2 0 0.24 0.2 0 0.28 0.2 0 0.32 0.2 0 0.36 0.2 0 0.4 0.2 0 0.44 0.2 0 0.48 0.2 0 0.52 0.2 0 0.56 0.2 0 0.6 0.2 0 0.64 0.2 0 0.68 0.2 0 0.72 0.2 0 0.76 0.2 0 0.8 0.2 0 0.84 0.2 0 0.88 0.2 0 0.92 0.2 0 0.96 0.2 0 1 0.2 0 1.04 0.2 0 1.08 0.2 0 1.12 0.2 0 1.16 0.2 0 1.2 0.2 0 0 0.24 0 0.04 0.24 0 0.08 0.24 0 0.12 0.24 0 0.16 0.24 0 0.2 0.24 0 0.24 0.24 0 0.28 0.24 0 0.32 0.24 0 0.36 0.24 0 0.4 0.24 0 0.44 0.24 0 0.48 0.24 0 0.52 0.24 0 0.56 0.24 0 0.6 0.24 0 0.64 0.24 0 0.68 0.24 0 0.72 0.24 0 0.76 0.24 0 0.8 0.24 0 0.84 0.24 0 0.88 0.24 0 0.92 0.24 0 0.96 0.24 0 1 0.24 0 1.04 0.24 0 1.08 0.24 0 1.12 0.24 0 1.16 0.24 0 1.2 0.24 0 0 0.28 0 0.04 0.28 0 0.08 0.28 0 0.12 0.28 0 0.16 0.28 0 0.2 0.28 0 0.24 0.28 0 0.28 0.28 0 0.32 0.28 0 0.36 0.28 0 0.4 0.28 0 0.44 0.28 0 0.48 0.28 0 0.52 0.28 0 0.56 0.28 0 0.6 0.28 0 0.64 0.28 0 0.68 0.28 0 0.72 0.28 0 0.76 0.28 0 0.8 0.28 0 0.84 0.28 0 0.88 0.28 0 0.92 0.28 0 0.96 0.28 0 1 0.28 0 1.04 0.28 0 1.08 0.28 0 1.12 0.28 0 1.16 0.28 0 1.2 0.28 0 0 0.32 0 0.04 0.32 0 0.08 0.32 0 0.12 0.32 0 0.16 0.32 0 0.2 0.32 0 0.24 0.32 0 0.28 0.32 0 0.32 0.32 0 0.36 0.32 0 0.4 0.32 0 0.44 0.32 0 0.48 0.32 0 0.52 0.32 0 0.56 0.32 0 0.6 0.32 0 0.64 0.32 0 0.68 0.32 0 0.72 0.32 0 0.76 0.32 0 0.8 0.32 0 0.84 0.32 0 0.88 0.32 0 0.92 0.32 0 0.96 0.32 0 1 0.32 0 1.04 0.32 0 1.08 0.32 0 1.12 0.32 0 1.16 0.32 0 1.2 0.32 0 0 0.36 0 0.04 0.36 0 0.08 0.36 0 0.12 0.36 0 0.16 0.36 0 0.2 0.36 0 0.24 0.36 0 0.28 0.36 0 0.32 0.36 0 0.36 0.36 0 0.4 0.36 0 0.44 0.36 0 0.48 0.36 0 0.52 0.36 0 0.56 0.36 0 0.6 0.36 0 0.64 0.36 0 0.68 0.36 0 0.72 0.36 0 0.76 0.36 0 0.8 0.36 0 0.84 0.36 0 0.88 0.36 0 0.92 0.36 0 0.96 0.36 0 1 0.36 0 1.04 0.36 0 1.08 0.36 0 1.12 0.36 0 1.16 0.36 0 1.2 0.36 0 0 0.4 0 0.04 0.4 0 0.08 0.4 0 0.12 0.4 0 0.16 0.4 0 0.2 0.4 0 0.24 0.4 0 0.28 0.4 0 0.32 0.4 0 0.36 0.4 0 0.4 0.4 0 0.44 0.4 0 0.48 0.4 0 0.52 0.4 0 0.56 0.4 0 0.6 0.4 0 0.64 0.4 0 0.68 0.4 0 0.72 0.4 0 0.76 0.4 0 0.8 0.4 0 0.84 0.4 0 0.88 0.4 0 0.92 0.4 0 0.96 0.4 0 1 0.4 0 1.04 0.4 0 1.08 0.4 0 1.12 0.4 0 1.16 0.4 0 1.2 0.4 0 0 0.44 0 0.04 0.44 0 0.08 0.44 0 0.12 0.44 0 0.16 0.44 0 0.2 0.44 0 0.24 0.44 0 0.28 0.44 0 0.32 0.44 0 0.36 0.44 0 0.4 0.44 0 0.44 0.44 0 0.48 0.44 0 0.52 0.44 0 0.56 0.44 0 0.6 0.44 0 0.64 0.44 0 0.68 0.44 0 0.72 0.44 0 0.76 0.44 0 0.8 0.44 0 0.84 0.44 0 0.88 0.44 0 0.92 0.44 0 0.96 0.44 0 1 0.44 0 1.04 0.44 0 1.08 0.44 0 1.12 0.44 0 1.16 0.44 0 1.2 0.44 0 0 0.48 0 0.04 0.48 0 0.08 0.48 0 0.12 0.48 0 0.16 0.48 0 0.2 0.48 0 0.24 0.48 0 0.28 0.48 0 0.32 0.48 0 0.36 0.48 0 0.4 0.48 0 0.44 0.48 0 0.48 0.48 0 0.52 0.48 0 0.56 0.48 0 0.6 0.48 0 0.64 0.48 0 0.68 0.48 0 0.72 0.48 0 0.76 0.48 0 0.8 0.48 0 0.84 0.48 0 0.88 0.48 0 0.92 0.48 0 0.96 0.48 0 1 0.48 0 1.04 0.48 0 1.08 0.48 0 1.12 0.48 0 1.16 0.48 0 1.2 0.48 0 0 0.52 0 0.04 0.52 0 0.08 0.52 0 0.12 0.52 0 0.16 0.52 0 0.2 0.52 0 0.24 0.52 0 0.28 0.52 0 0.32 0.52 0 0.36 0.52 0 0.4 0.52 0 0.44 0.52 0 0.48 0.52 0 0.52 0.52 0 0.56 0.52 0 0.6 0.52 0 0.64 0.52 0 0.68 0.52 0 0.72 0.52 0 0.76 0.52 0 0.8 0.52 0 0.84 0.52 0 0.88 0.52 0 0.92 0.52 0 0.96 0.52 0 1 0.52 0 1.04 0.52 0 1.08 0.52 0 1.12 0.52 0 1.16 0.52 0 1.2 0.52 0 0 0.56 0 0.04 0.56 0 0.08 0.56 0 0.12 0.56 0 0.16 0.56 0 0.2 0.56 0 0.24 0.56 0 0.28 0.56 0 0.32 0.56 0 0.36 0.56 0 0.4 0.56 0 0.44 0.56 0 0.48 0.56 0 0.52 0.56 0 0.56 0.56 0 0.6 0.56 0 0.64 0.56 0 0.68 0.56 0 0.72 0.56 0 0.76 0.56 0 0.8 0.56 0 0.84 0.56 0 0.88 0.56 0 0.92 0.56 0 0.96 0.56 0 1 0.56 0 1.04 0.56 0 1.08 0.56 0 1.12 0.56 0 1.16 0.56 0 1.2 0.56 0 0 0.6 0 0.04 0.6 0 0.08 0.6 0 0.12 0.6 0 0.16 0.6 0 0.2 0.6 0 0.24 0.6 0 0.28 0.6 0 0.32 0.6 0 0.36 0.6 0 0.4 0.6 0 0.44 0.6 0 0.48 0.6 0 0.52 0.6 0 0.56 0.6 0 0.6 0.6 0 0.64 0.6 0 0.68 0.6 0 0.72 0.6 0 0.76 0.6 0 0.8 0.6 0 0.84 0.6 0 0.88 0.6 0 0.92 0.6 0 0.96 0.6 0 1 0.6 0 1.04 0.6 0 1.08 0.6 0 1.12 0.6 0 1.16 0.6 0 1.2 0.6 0 0 0.64 0 0.04 0.64 0 0.08 0.64 0 0.12 0.64 0 0.16 0.64 0 0.2 0.64 0 0.24 0.64 0 0.28 0.64 0 0.32 0.64 0 0.36 0.64 0 0.4 0.64 0 0.44 0.64 0 0.48 0.64 0 0.52 0.64 0 0.56 0.64 0 0.6 0.64 0 0.64 0.64 0 0.68 0.64 0 0.72 0.64 0 0.76 0.64 0 0.8 0.64 0 0.84 0.64 0 0.88 0.64 0 0.92 0.64 0 0.96 0.64 0 1 0.64 0 1.04 0.64 0 1.08 0.64 0 1.12 0.64 0 1.16 0.64 0 1.2 0.64 0 0 0.68 0 0.04 0.68 0 0.08 0.68 0 0.12 0.68 0 0.16 0.68 0 0.2 0.68 0 0.24 0.68 0 0.28 0.68 0 0.32 0.68 0 0.36 0.68 0 0.4 0.68 0 0.44 0.68 0 0.48 0.68 0 0.52 0.68 0 0.56 0.68 0 0.6 0.68 0 0.64 0.68 0 0.68 0.68 0 0.72 0.68 0 0.76 0.68 0 0.8 0.68 0 0.84 0.68 0 0.88 0.68 0 0.92 0.68 0 0.96 0.68 0 1 0.68 0 1.04 0.68 0 1.08 0.68 0 1.12 0.68 0 1.16 0.68 0 1.2 0.68 0 0 0.72 0 0.04 0.72 0 0.08 0.72 0 0.12 0.72 0 0.16 0.72 0 0.2 0.72 0 0.24 0.72 0 0.28 0.72 0 0.32 0.72 0 0.36 0.72 0 0.4 0.72 0 0.44 0.72 0 0.48 0.72 0 0.52 0.72 0 0.56 0.72 0 0.6 0.72 0 0.64 0.72 0 0.68 0.72 0 0.72 0.72 0 0.76 0.72 0 0.8 0.72 0 0.84 0.72 0 0.88 0.72 0 0.92 0.72 0 0.96 0.72 0 1 0.72 0 1.04 0.72 0 1.08 0.72 0 1.12 0.72 0 1.16 0.72 0 1.2 0.72 0 0 0.76 0 0.04 0.76 0 0.08 0.76 0 0.12 0.76 0 0.16 0.76 0 0.2 0.76 0 0.24 0.76 0 0.28 0.76 0 0.32 0.76 0 0.36 0.76 0 0.4 0.76 0 0.44 0.76 0 0.48 0.76 0 0.52 0.76 0 0.56 0.76 0 0.6 0.76 0 0.64 0.76 0 0.68 0.76 0 0.72 0.76 0 0.76 0.76 0 0.8 0.76 0 0.84 0.76 0 0.88 0.76 0 0.92 0.76 0 0.96 0.76 0 1 0.76 0 1.04 0.76 0 1.08 0.76 0 1.12 0.76 0 1.16 0.76 0 1.2 0.76 0 0 0.8 0 0.04 0.8 0 0.08 0.8 0 0.12 0.8 0 0.16 0.8 0 0.2 0.8 0 0.24 0.8 0 0.28 0.8 0 0.32 0.8 0 0.36 0.8 0 0.4 0.8 0 0.44 0.8 0 0.48 0.8 0 0.52 0.8 0 0.56 0.8 0 0.6 0.8 0 0.64 0.8 0 0.68 0.8 0 0.72 0.8 0 0.76 0.8 0 0.8 0.8 0 0.84 0.8 0 0.88 0.8 0 0.92 0.8 0 0.96 0.8 0 1 0.8 0 1.04 0.8 0 1.08 0.8 0 1.12 0.8 0 1.16 0.8 0 1.2 0.8 0 0 0.84 0 0.04 0.84 0 0.08 0.84 0 0.12 0.84 0 0.16 0.84 0 0.2 0.84 0 0.24 0.84 0 0.28 0.84 0 0.32 0.84 0 0.36 0.84 0 0.4 0.84 0 0.44 0.84 0 0.48 0.84 0 0.52 0.84 0 0.56 0.84 0 0.6 0.84 0 0.64 0.84 0 0.68 0.84 0 0.72 0.84 0 0.76 0.84 0 0.8 0.84 0 0.84 0.84 0 0.88 0.84 0 0.92 0.84 0 0.96 0.84 0 1 0.84 0 1.04 0.84 0 1.08 0.84 0 1.12 0.84 0 1.16 0.84 0 1.2 0.84 0 0 0.88 0 0.04 0.88 0 0.08 0.88 0 0.12 0.88 0 0.16 0.88 0 0.2 0.88 0 0.24 0.88 0 0.28 0.88 0 0.32 0.88 0 0.36 0.88 0 0.4 0.88 0 0.44 0.88 0 0.48 0.88 0 0.52 0.88 0 0.56 0.88 0 0.6 0.88 0 0.64 0.88 0 0.68 0.88 0 0.72 0.88 0 0.76 0.88 0 0.8 0.88 0 0.84 0.88 0 0.88 0.88 0 0.92 0.88 0 0.96 0.88 0 1 0.88 0 1.04 0.88 0 1.08 0.88 0 1.12 0.88 0 1.16 0.88 0 1.2 0.88 0 0 0.92 0 0.04 0.92 0 0.08 0.92 0 0.12 0.92 0 0.16 0.92 0 0.2 0.92 0 0.24 0.92 0 0.28 0.92 0 0.32 0.92 0 0.36 0.92 0 0.4 0.92 0 0.44 0.92 0 0.48 0.92 0 0.52 0.92 0 0.56 0.92 0 0.6 0.92 0 0.64 0.92 0 0.68 0.92 0 0.72 0.92 0 0.76 0.92 0 0.8 0.92 0 0.84 0.92 0 0.88 0.92 0 0.92 0.92 0 0.96 0.92 0 1 0.92 0 1.04 0.92 0 1.08 0.92 0 1.12 0.92 0 1.16 0.92 0 1.2 0.92 0 0 0.96 0 0.04 0.96 0 0.08 0.96 0 0.12 0.96 0 0.16 0.96 0 0.2 0.96 0 0.24 0.96 0 0.28 0.96 0 0.32 0.96 0 0.36 0.96 0 0.4 0.96 0 0.44 0.96 0 0.48 0.96 0 0.52 0.96 0 0.56 0.96 0 0.6 0.96 0 0.64 0.96 0 0.68 0.96 0 0.72 0.96 0 0.76 0.96 0 0.8 0.96 0 0.84 0.96 0 0.88 0.96 0 0.92 0.96 0 0.96 0.96 0 1 0.96 0 1.04 0.96 0 1.08 0.96 0 1.12 0.96 0 1.16 0.96 0 1.2 0.96 0 0 1 0 0.04 1 0 0.08 1 0 0.12 1 0 0.16 1 0 0.2 1 0 0.24 1 0 0.28 1 0 0.32 1 0 0.36 1 0 0.4 1 0 0.44 1 0 0.48 1 0 0.52 1 0 0.56 1 0 0.6 1 0 0.64 1 0 0.68 1 0 0.72 1 0 0.76 1 0 0.8 1 0 0.84 1 0 0.88 1 0 0.92 1 0 0.96 1 0 1 1 0 1.04 1 0 1.08 1 0 1.12 1 0 1.16 1 0 1.2 1 0 0 1.04 0 0.04 1.04 0 0.08 1.04 0 0.12 1.04 0 0.16 1.04 0 0.2 1.04 0 0.24 1.04 0 0.28 1.04 0 0.32 1.04 0 0.36 1.04 0 0.4 1.04 0 0.44 1.04 0 0.48 1.04 0 0.52 1.04 0 0.56 1.04 0 0.6 1.04 0 0.64 1.04 0 0.68 1.04 0 0.72 1.04 0 0.76 1.04 0 0.8 1.04 0 0.84 1.04 0 0.88 1.04 0 0.92 1.04 0 0.96 1.04 0 1 1.04 0 1.04 1.04 0 1.08 1.04 0 1.12 1.04 0 1.16 1.04 0 1.2 1.04 0 0 1.08 0 0.04 1.08 0 0.08 1.08 0 0.12 1.08 0 0.16 1.08 0 0.2 1.08 0 0.24 1.08 0 0.28 1.08 0 0.32 1.08 0 0.36 1.08 0 0.4 1.08 0 0.44 1.08 0 0.48 1.08 0 0.52 1.08 0 0.56 1.08 0 0.6 1.08 0 0.64 1.08 0 0.68 1.08 0 0.72 1.08 0 0.76 1.08 0 0.8 1.08 0 0.84 1.08 0 0.88 1.08 0 0.92 1.08 0 0.96 1.08 0 1 1.08 0 1.04 1.08 0 1.08 1.08 0 1.12 1.08 0 1.16 1.08 0 1.2 1.08 0 0 1.12 0 
[...]
			<PointData Scalars="VitesseX">
				<DataArray Name="VitesseX" type="Float32" format="ascii">
 0 -0.0333696 -0.157478 -0.0880969 0.0208074 0.15334 0.377989 0.487173 0.630308 0.756902 0.872286 0.988767 1.10147 1.21524 1.32964 1.44877 1.57081 1.70621 1.83091 2.04489 2.3041 2.23411 1.86808 1.10668 0.250873 0.00568331 1.33338e-06 2.02417e-11 -7.47233e-15 7.77254e-15 0 0 0.251307 0.268992 0.290648 0.29584 0.345574 0.49108 0.580991 0.69625 0.804718 0.90606 1.01246 1.11745 1.22485 1.33424 1.44934 1.56835 1.70157 1.82428 2.04332 2.2933 2.21692 1.84415 1.07928 0.236073 0.00502816 1.105e-06 1.79043e-11 -7.50918e-15 7.77254e-15 0 0 0.243866 0.378839 0.474508 0.520126 0.564726 0.615718 0.685345 0.761727 0.848155 0.935113 1.03265 1.13231 1.23664 1.34444 1.45816 1.57655 1.70796 1.82744 2.06302 2.28409 2.18903 1.79004 1.00469 0.196346 0.00346689 6.30617e-07 1.22811e-11 -7.60126e-15 3.88627e-15 0 0 0.163476 0.315247 0.447666 0.533739 0.624006 0.666033 0.747809 0.811939 0.887991 0.966474 1.05605 1.15063 1.25252 1.35934 1.47139 1.58959 1.71751 1.83618 2.09841 2.2717 2.14794 1.70419 0.886024 0.142613 0.00183257 2.50868e-07 6.40957e-12 -3.83429e-15 3.89479e-15 0 0 0.0840401 0.220464 0.393659 0.515201 0.607731 0.677796 0.769725 0.846046 0.924328 1.00169 1.08519 1.17551 1.27442 1.3797 1.48886 1.60805 1.7304 1.85455 2.14439 2.25149 2.0869 1.57926 0.7259 0.0874147 0.000720905 7.21416e-08 2.51375e-12 -2.54832e-17 3.89479e-15 0 0 0.0752962 0.194026 0.329226 0.483387 0.576481 0.67384 0.766841 0.861474 0.946561 1.03439 1.11716 1.20695 1.3023 1.40578 1.51144 1.63262 1.74573 1.8888 2.18798 2.21825 1.99477 1.40588 0.531741 0.0430476 0.000202624 1.6196e-08 7.56782e-13 -3.93207e-15 -2.25314e-29 0 0 0.0733302 0.192689 0.312148 0.465926 0.557152 0.665451 0.771417 0.867322 0.960849 1.0558 1.14717 1.23912 1.33382 1.43501 1.53867 1.65997 1.76264 1.94894 2.20909 2.16546 1.85687 1.17506 0.328583 0.0160558 3.86013e-05 3.07711e-09 1.58853e-13 2.278e-14 -3.91262e-15 0 0 0.0733984 0.190783 0.313511 0.456541 0.556208 0.671544 0.775979 0.871067 0.972352 1.07124 1.16997 1.26357 1.36335 1.45978 1.56902 1.6818 1.78512 2.03879 2.19286 2.07641 1.66093 0.882487 0.162737 0.00429437 4.69425e-06 4.75891e-10 3.44893e-14 -2.62739e-19 2.27802e-14 0 0 0.0833148 0.19516 0.316556 0.447113 0.562082 0.677243 0.778269 0.878953 0.982319 1.08538 1.1832 1.28387 1.38312 1.48049 1.59809 1.69386 1.82985 2.11011 2.13804 1.93377 1.38803 0.551904 0.0600416 0.000769091 3.57157e-07 5.22766e-11 4.29565e-15 -1.98478e-32 2.27802e-14 0 0 0.0886614 0.19617 0.315409 0.440381 0.562701 0.676868 0.781226 0.884677 0.989762 1.09078 1.19212 1.29689 1.39295 1.50363 1.61142 1.70446 1.92499 2.11449 2.04267 1.71174 1.02486 0.261033 0.0150704 8.27865e-05 2.05089e-08 3.92152e-12 -2.23101e-14 6.57139e-18 1.8861e-14 0 0 0.0922881 0.196856 0.311735 0.432759 0.55552 0.67109 0.779314 0.885755 0.988883 1.0914 1.19799 1.29825 1.40356 1.51991 1.60992 1.74784 2.01427 2.05133 1.87647 1.38831 0.600983 0.0878682 0.00237193 4.70164e-06 1.22282e-09 2.48228e-13 7.92956e-15 -3.05989e-14 2.66863e-14 0 0 0.0949786 0.197743 0.307363 0.422863 0.541664 0.658197 0.770069 0.877385 0.983199 1.09071 1.19383 1.29905 1.4177 1.51525 1.62004 1.8618 2.00424 1.92715 1.60476 0.946007 0.248868 0.0187486 0.000206959 1.4083e-07 5.67062e-11 1.53624e-14 7.82557e-15 -7.82518e-15 -1.88677e-14 0 0 0.0962885 0.197706 0.303303 0.412491 0.525007 0.6392 0.752066 0.863439 0.973683 1.07975 1.18876 1.30795 1.41208 1.51063 1.70601 1.91383 1.90819 1.70459 1.19664 0.465444 0.0677748 0.00226556 8.17424e-06 3.82705e-09 1.67409e-12 6.28993e-16 -6.91181e-14 6.91183e-14 -2.27803e-14 0 0 0.0964587 0.196866 0.299516 0.404354 0.512032 0.622545 0.734823 0.846959 0.958152 1.0733 1.19301 1.30025 1.4023 1.57392 1.8015 1.84663 1.71982 1.3371 0.668055 0.149102 0.0104427 0.000130143 1.40666e-07 1.05435e-10 5.01784e-14 2.66928e-14 -7.30309e-14 7.30309e-14 -2.66929e-14 0 0 0.0962284 0.195434 0.296107 0.398605 0.503798 0.612158 0.723393 0.837551 0.955517 1.07383 1.18241 1.29267 1.46211 1.68196 1.75675 1.6774 1.3853 0.808494 0.238517 0.0275303 0.00078172 2.7192e-06 2.26414e-09 1.73032e-12 8.7521e-16 1.01876e-20 2.66929e-14 -2.66929e-14 9.04676e-21 0 0 0.0958061 0.193908 0.293471 0.395278 0.500249 0.609062 0.722048 0.837999 0.952629 1.0635 1.18611 1.36646 1.56346 1.64666 1.595 1.362 0.869879 0.307659 0.0493428 0.00242337 2.10188e-05 2.53743e-08 3.45112e-11 5.75258e-14 -6.70508e-20 -5.33857e-14 5.33858e-14 -5.33858e-14 5.33857e-14 0 0 0.0957702 0.193699 0.293544 0.396147 0.501971 0.611092 0.722543 0.834688 0.952042 1.09314 1.28259 1.44299 1.52121 1.4811 1.28256 0.855495 0.33726 0.066696 0.00470303 7.65266e-05 1.72926e-07 3.00296e-10 3.63306e-13 -2.57946e-14 -6.85337e-20 1.0188e-20 2.66929e-14 -2.66929e-14 9.04635e-21 0 0 0.0964948 0.194947 0.29589 0.399375 0.505156 0.614245 0.730264 0.862231 1.02398 1.18948 1.3161 1.37934 1.33896 1.15619 0.776361 0.32185 0.0718744 0.00635408 0.000155419 6.17783e-07 1.26194e-09 2.24141e-12 -2.25935e-14 4.94837e-20 -1.69947e-20 2.66928e-14 -7.30321e-14 7.30322e-14 -2.66929e-14 0 0 0.0974171 0.197969 0.302787 0.412287 0.528799 0.657744 0.800945 0.944677 1.07365 1.17838 1.21707 1.16764 0.98739 0.645274 0.268411 0.063029 0.00627 0.000194244 1.14695e-06 2.91995e-09 7.85931e-12 1.74285e-14 5.34741e-18 3.47749e-20 -2.47731e-21 2.66928e-14 -7.3032e-14 4.63392e-14 -4.1948e-20 0 0 0.107475 0.220534 0.338789 0.461226 0.586075 0.710196 0.829254 0.939291 1.01394 1.02907 0.963714 0.780014 0.479478 0.192777 0.0444481 0.00453473 0.000154309 1.14502e-06 3.85677e-09 1.4625e-11 8.44415e-14 -8.2961e-17 -7.05591e-20 -1.62022e-35 1.45174e-20 1.0188e-20 2.6693e-14 -5.33858e-14 2.66928e-14 0 0 0.119465 0.238431 0.355825 0.472112 0.585368 0.689019 0.771842 0.818177 0.809406 0.7243 0.544501 0.304829 0.114091 0.0240419 0.00230535 7.55976e-05 6.14419e-07 2.90613e-09 1.46872e-11 5.28607e-14 2.54416e-16 2.66929e-14 -5.33858e-14 5.33858e-14 -5.42154e-31 -5.33857e-14 5.33859e-14 -2.6693e-14 2.66929e-14 0 0 0.117256 0.229759 0.335379 0.432025 0.513415 0.569854 0.588906 0.557256 0.462013 0.312434 0.155492 0.0509618 0.00905724 0.000742843 2.07128e-05 1.70989e-07 1.25068e-09 7.7259e-12 8.37568e-14 2.54416e-16 7.95057e-18 -7.99194e-18 6.98108e-17 -6.98401e-17 1.46371e-20 -4.08873e-25 2.66929e-14 -2.66929e-14 2.66929e-14 0 0 0.09807 0.185535 0.259261 0.314585 0.344117 0.340359 0.299047 0.223717 0.132206 0.0557724 0.0144403 0.00200475 0.000124683 2.67209e-06 2.48422e-08 2.96584e-10 2.16094e-12 1.75846e-14 -8.2961e-17 2.66929e-14 -5.33778e-14 2.66849e-14 6.98611e-17 -6.98053e-17 -1.48879e-20 2.66928e-14 -2.66929e-14 -2.66928e-14 5.33858e-14 0 0 0.0560458 0.100257 0.129055 0.139692 0.131526 0.105846 0.0690125 0.0330566 0.010381 0.00193996 0.000189752 7.89068e-06 1.36362e-07 2.19879e-09 3.38995e-11 3.56883e-13 -2.26044e-14 5.3474e-18 3.05253e-21 -2.05411e-20 6.98367e-17 -6.98192e-17 -4.71403e-24 3.48993e-20 4.9121e-18 -4.94844e-18 6.97429e-17 -6.97069e-17 -4.63378e-14 0 0 0.0144785 0.024472 0.0277802 0.0245307 0.0166504 0.00818021 0.0027519 0.00059395 7.27438e-05 4.41259e-06 1.33388e-07 3.62201e-09 1.02113e-10 1.67197e-12 5.57194e-14 -2.57947e-14 8.79647e-20 -1.0229e-19 -3.06097e-24 -1.16292e-22 6.98401e-17 -6.97376e-17 -1.02411e-19 -3.06097e-24 5.01016e-18 -4.94371e-18 -4.62584e-14 7.29513e-14 -7.30306e-14 0 0 0.000573203 0.000800729 0.00065045 0.00035033 0.000125729 2.88042e-05 3.95302e-06 3.16909e-07 1.81647e-08 1.11292e-09 5.34766e-11 1.58422e-12 -4.97342e-15 5.42609e-14 7.00166e-20 -5.33858e-14 5.33859e-14 -5.33859e-14 5.33858e-14 5.41984e-31 -5.33858e-14 5.33859e-14 -5.33809e-14 5.33809e-14 1.0017e-20 -3.4413e-20 -1.46084e-13 1.46084e-13 4.02267e-20 0 0 1.98591e-07 2.21044e-07 1.2498e-07 4.36442e-08 1.07941e-08 2.21959e-09 3.78674e-10 4.49594e-11 3.44685e-12 2.1898e-13 1.41044e-14 8.45461e-15 -2.66929e-14 -1.0188e-20 -7.02645e-38 1.0188e-20 2.66929e-14 -2.66929e-14 -1.0188e-20 -1.76189e-35 -1.42163e-28 2.66929e-14 -5.33808e-14 5.33809e-14 -8.26385e-20 -7.29925e-14 6.95874e-17 -6.9719e-17 7.29926e-14 0 0 2.33685e-12 3.28609e-12 2.57839e-12 1.31037e-12 4.54666e-13 9.77661e-14 2.66164e-14 3.56365e-15 2.30421e-14 1.0392e-16 7.11125e-20 -6.91182e-14 7.30309e-14 -2.66928e-14 -6.12918e-43 2.66928e-14 -7.30321e-14 7.30322e-14 -2.66929e-14 1.2724e-20 2.66928e-14 -2.66929e-14 6.98073e-17 -4.63979e-14 -4.20697e-17 2.10758e-16 2.90647e-17 -2.91963e-17 -1.10986e-16 0 0 -1.33499e-15 6.65491e-16 -3.82221e-15 1.34027e-17 3.89318e-15 -2.278e-14 -2.62732e-19 -1.16506e-23 6.5714e-18 2.27737e-14 2.85114e-20 -6.91183e-14 7.30309e-14 -2.66928e-14 -6.18798e-43 2.66928e-14 -7.3032e-14 4.63392e-14 -2.52029e-20 2.66929e-14 -2.66929e-14 -2.66929e-14 5.34555e-14 -7.30909e-14 -4.19954e-17 2.10627e-16 2.91964e-17 -2.9328e-17 -1.10855e-16 0 0 -8.89579e-13 -3.27619e-15 3.89479e-15 -3.89479e-15 2.30954e-29 3.91262e-15 -2.27802e-14 2.27802e-14 -2.66863e-14 2.66863e-14 -2.66928e-14 3.06054e-14 -2.66928e-14 -2.94204e-20 -1.54135e-49 2.94204e-20 2.66929e-14 -5.33858e-14 2.66929e-14 2.66929e-14 -2.66928e-14 -1.75673e-20 -4.63377e-14 7.30305e-14 6.0237e-20 -7.29926e-14 1.69379e-16 -1.69511e-16 7.29928e-14 0 0 0 0 0 0 0 0 0 0 0 0 0 0 0 0 0 0 0 0 0 0 0 0 0 0 0 0 0 0 0 0
				</DataArray>
				<DataArray Name="VitesseY" type="Float32" format="ascii">
 0 0 0 0 0 0 0 0 0 0 0 0 0 0 0 0 0 0 0 0 0 0 0 0 0 0 0 0 0 0 0 -0.0333052 0.251301 0.243846 0.163454 0.0840287 0.0752928 0.0733267 0.0733937 0.0833099 0.0886589 0.0922882 0.0949808 0.0962918 0.0964626 0.0962326 0.0958098 0.095773 0.0964963 0.0974175 0.107475 0.119463 0.117253 0.098066 0.0560424 0.0144774 0.000573135 1.9855e-07 2.33637e-12 3.68525e-17 -1.22739e-24 0 -0.157413 0.269023 0.378835 0.315233 0.220447 0.194018 0.192682 0.190777 0.195156 0.196167 0.196856 0.197746 0.19771 0.196871 0.19544 0.193913 0.193702 0.194949 0.19797 0.220532 0.238427 0.229753 0.185528 0.100251 0.0244704 0.000800643 2.21001e-07 3.28542e-12 5.52284e-17 -3.88627e-15 0 -0.0880636 0.290665 0.474496 0.447656 0.393647 0.32922 0.312145 0.313508 0.316553 0.315408 0.311737 0.307367 0.303309 0.299523 0.296113 0.293476 0.293548 0.295892 0.302787 0.338786 0.355819 0.335372 0.259252 0.129049 0.0277786 0.000650391 1.24959e-07 2.57791e-12 -3.82221e-15 3.89479e-15 0 0.0208303 0.295851 0.520111 0.533727 0.515192 0.483379 0.465918 0.456536 0.44711 0.440381 0.432765 0.422872 0.412501 0.404361 0.398611 0.395282 0.39615 0.399376 0.412286 0.461221 0.472104 0.432016 0.314576 0.139687 0.0245297 0.000350307 4.36384e-08 1.31018e-12 1.34027e-17 -3.89479e-15 0 0.153343 0.345573 0.564711 0.623994 0.607722 0.576475 0.557145 0.556201 0.562077 0.562701 0.555527 0.541677 0.525021 0.512041 0.503804 0.500253 0.501974 0.505157 0.528796 0.586068 0.585361 0.513406 0.344109 0.131523 0.01665 0.000125724 1.07931e-08 4.54595e-13 3.89318e-15 -1.75099e-23 0 0.377988 0.491086 0.615718 0.666027 0.677791 0.673834 0.665445 0.671538 0.67724 0.67687 0.671096 0.658209 0.639214 0.622554 0.612163 0.609066 0.611095 0.614246 0.657742 0.710191 0.689014 0.569847 0.340354 0.105846 0.00818025 2.88041e-05 2.21949e-09 9.77343e-14 -2.278e-14 3.91262e-15 0 0.487158 0.58099 0.685344 0.747794 0.76971 0.766834 0.771416 0.775981 0.778272 0.78123 0.779319 0.770077 0.752075 0.734829 0.723397 0.722051 0.722546 0.730265 0.800941 0.82925 0.771839 0.588904 0.299047 0.0690136 0.002752 3.95317e-06 3.78672e-10 2.66295e-14 -2.62735e-19 -2.27802e-14 0 0.630287 0.696249 0.761731 0.811927 0.846032 0.861471 0.867324 0.871073 0.878959 0.884683 0.88576 0.877391 0.863444 0.846961 0.837552 0.838001 0.83469 0.862231 0.944676 0.93929 0.818177 0.557259 0.223721 0.0330579 0.00059399 3.16934e-07 4.49608e-11 3.56365e-15 -1.12078e-23 2.27802e-14 0 0.756879 0.804717 0.848158 0.887983 0.924312 0.946557 0.960855 0.972361 0.982329 0.98977 0.988889 0.983204 0.973685 0.958151 0.955516 0.952629 0.952042 1.02398 1.07365 1.01395 0.809411 0.462021 0.132211 0.0103817 7.27516e-05 1.81667e-08 3.44723e-12 2.30421e-14 6.57139e-18 -2.66863e-14 0 0.872263 0.906061 0.935117 0.966472 1.00168 1.03438 1.05581 1.07125 1.08539 1.09078 1.09141 1.09072 1.07975 1.0733 1.07383 1.0635 1.09314 1.18948 1.17839 1.02907 0.724311 0.312444 0.0557754 0.00194014 4.41325e-06 1.11306e-09 2.18969e-13 1.0392e-16 2.27737e-14 2.66863e-14 0 0.988749 1.01246 1.03266 1.05605 1.08518 1.11716 1.14718 1.16998 1.18321 1.19213 1.198 1.19384 1.18877 1.19302 1.18241 1.18611 1.28259 1.3161 1.21708 0.963726 0.544514 0.155498 0.0144414 0.000189776 1.33411e-07 5.34848e-11 1.41044e-14 7.11063e-20 2.85125e-20 -2.66928e-14 0 1.10146 1.11746 1.13232 1.15063 1.17551 1.20695 1.23913 1.26358 1.28387 1.29689 1.29826 1.29905 1.30795 1.30025 1.29267 1.36646 1.443 1.37934 1.16765 0.780028 0.304838 0.0509646 0.00200495 7.89194e-06 3.62259e-09 1.58457e-12 8.45461e-15 -6.91182e-14 -6.91183e-14 3.06054e-14 0 1.21524 1.22486 1.23665 1.25253 1.27442 1.3023 1.33382 1.36334 1.38312 1.39296 1.40356 1.41771 1.41208 1.40231 1.46211 1.56347 1.52122 1.33897 0.987403 0.479488 0.114095 0.00905782 0.000124698 1.36386e-07 1.02131e-10 -4.95785e-15 -2.66929e-14 7.30309e-14 7.30309e-14 -2.66928e-14 0 1.32965 1.33426 1.34446 1.35935 1.37971 1.40578 1.43501 1.45977 1.48048 1.50363 1.51991 1.51525 1.51063 1.57392 1.68196 1.64666 1.48111 1.1562 0.645283 0.192782 0.024043 0.000742902 2.67245e-06 2.19911e-09 1.67221e-12 5.42609e-14 -1.01901e-20 -2.66928e-14 -2.66928e-14 -2.94174e-20 0 1.44878 1.44936 1.45818 1.4714 1.48886 1.51144 1.53867 1.56901 1.59808 1.61142 1.60992 1.62004 1.70601 1.8015 1.75675 1.595 1.28257 0.776367 0.268415 0.0444493 0.00230547 2.07148e-05 2.48453e-08 3.39043e-11 5.57295e-14 7.00172e-20 -2.09632e-24 1.2343e-23 -1.32265e-23 3.03701e-24 0 1.57084 1.56837 1.57657 1.5896 1.60806 1.63262 1.65997 1.68179 1.69385 1.70445 1.74784 1.8618 1.91383 1.84663 1.6774 1.362 0.855498 0.321854 0.0630298 0.00453485 7.56018e-05 1.71005e-07 2.96614e-10 3.56914e-13 -2.57948e-14 -5.33858e-14 1.01823e-20 2.66928e-14 2.66928e-14 2.94189e-20 0 1.70623 1.70159 1.70797 1.71752 1.73041 1.74573 1.76264 1.78512 1.82985 1.92499 2.01427 2.00423 1.90818 1.71982 1.3853 0.869877 0.337258 0.0718745 0.00627008 0.000154313 6.14451e-07 1.25076e-09 2.16118e-12 -2.26042e-14 8.79608e-20 5.33859e-14 2.66929e-14 -7.30321e-14 -7.3032e-14 2.66929e-14 0 1.83093 1.8243 1.82746 1.83619 1.85455 1.8888 1.94894 2.03879 2.11011 2.11448 2.05132 1.92714 1.70458 1.3371 0.808489 0.307657 0.0666953 0.006354 0.000194244 1.14505e-06 2.90623e-09 7.72613e-12 1.76051e-14 5.3474e-18 -1.02284e-19 -5.33859e-14 -2.66929e-14 7.30322e-14 4.63392e-14 -5.33858e-14 0 2.0449 2.04332 2.06303 2.09841 2.14439 2.18798 2.20909 2.19286 2.13803 2.04266 1.87646 1.60475 1.19663 0.668044 0.238512 0.0493417 0.00470291 0.000155415 1.14693e-06 3.85677e-09 1.46875e-11 8.37668e-14 -8.2961e-17 3.048e-21 -3.98653e-24 5.33858e-14 -1.01901e-20 -2.66929e-14 -2.52161e-20 2.66929e-14 0 2.3041 2.2933 2.28409 2.2717 2.25149 2.21824 2.16545 2.0764 1.93375 1.71172 1.3883 0.945988 0.465432 0.149097 0.0275291 0.00242324 7.65224e-05 6.17751e-07 2.91986e-09 1.46247e-11 5.28607e-14 2.54416e-16 2.66929e-14 -2.05394e-20 -1.21438e-22 5.41984e-31 -2.09632e-24 1.27219e-20 2.66929e-14 2.66929e-14 0 2.23411 2.21693 2.18903 2.14794 2.0869 1.99476 1.85686 1.66091 1.38801 1.02484 0.600965 0.248858 0.0677711 0.010442 0.000781658 2.10168e-05 1.7291e-07 1.26186e-09 7.85909e-12 8.44315e-14 2.54416e-16 7.95056e-18 -5.33778e-14 6.98367e-17 6.98401e-17 -5.33858e-14 -2.09645e-24 2.66928e-14 -2.66929e-14 -2.66928e-14 0 1.86809 1.84416 1.79004 1.7042 1.57926 1.40588 1.17504 0.882471 0.551888 0.261022 0.087863 0.0187471 0.00226534 0.000130128 2.71884e-06 2.53711e-08 3.00266e-10 2.24113e-12 1.74079e-14 -8.2961e-17 2.66929e-14 -7.99194e-18 2.66849e-14 -6.98192e-17 -6.97376e-17 5.33859e-14 2.66929e-14 -2.66929e-14 -2.66929e-14 -1.75696e-20 0 1.1067 1.0793 1.0047 0.886031 0.725902 0.531738 0.328577 0.162732 0.0600384 0.0150693 0.0023717 0.000206933 8.17292e-06 1.40641e-07 2.26381e-09 3.45064e-11 3.63274e-13 -2.25938e-14 5.3474e-18 -7.05599e-20 -5.33858e-14 6.98108e-17 6.98611e-17 -5.34435e-24 -1.02404e-19 -5.33809e-14 -5.33808e-14 6.98073e-17 5.34555e-14 -4.63377e-14 0 0.250884 0.236082 0.196353 0.142617 0.0874159 0.0430475 0.0160555 0.00429416 0.000769031 8.27771e-05 4.70093e-06 1.40806e-07 3.82643e-09 1.05417e-10 1.73007e-12 5.75158e-14 -2.57946e-14 4.94909e-20 3.47706e-20 -7.36911e-25 5.33858e-14 -6.98401e-17 -6.98053e-17 3.49001e-20 -3.98653e-24 5.33809e-14 5.33809e-14 -4.63979e-14 -7.30909e-14 7.30305e-14 0 0.00568386 0.00502862 0.00346718 0.0018327 0.00072094 0.000202629 3.8601e-05 4.69405e-06 3.57127e-07 2.05066e-08 1.22266e-09 5.66973e-11 1.67371e-12 5.01629e-14 8.7521e-16 -6.70533e-20 -6.85358e-20 -1.69921e-20 -2.47474e-21 1.45153e-20 -2.49133e-24 1.46429e-20 -1.48814e-20 4.9121e-18 5.01016e-18 1.00197e-20 -8.26393e-20 -4.20697e-17 -4.19954e-17 6.0227e-20 0 1.33363e-06 1.1052e-06 6.30724e-07 2.50905e-07 7.21498e-08 1.61972e-08 3.07721e-09 4.7589e-10 5.22745e-11 3.92117e-12 2.48239e-13 1.53624e-14 6.28993e-16 2.66928e-14 1.01876e-20 -5.33857e-14 1.01823e-20 2.66928e-14 2.66928e-14 1.01823e-20 -5.33857e-14 6.26678e-24 2.66928e-14 -4.94845e-18 -4.94371e-18 -3.44221e-20 -7.29925e-14 2.10758e-16 2.10627e-16 -7.29926e-14 0 2.02456e-11 1.79077e-11 1.22833e-11 6.41061e-12 2.51413e-12 7.56891e-13 1.58859e-13 3.44762e-14 4.29565e-15 -2.23101e-14 7.92956e-15 7.82557e-15 -6.91181e-14 -7.30309e-14 2.66929e-14 5.33858e-14 2.66929e-14 -7.30321e-14 -7.3032e-14 2.6693e-14 5.33859e-14 2.66929e-14 -2.66929e-14 6.97429e-17 -4.62584e-14 -1.46084e-13 6.95874e-17 2.90647e-17 2.91964e-17 1.69379e-16 0 -5.94917e-15 -7.35786e-15 -8.21152e-15 -3.83429e-15 -2.54832e-17 -3.93207e-15 2.278e-14 -2.62741e-19 1.57483e-24 6.57138e-18 -3.05989e-14 -7.82518e-15 6.91183e-14 7.30309e-14 -2.66929e-14 -5.33858e-14 -2.66929e-14 7.30322e-14 4.63392e-14 -5.33858e-14 -2.6693e-14 -2.66929e-14 -2.66928e-14 -6.97069e-17 7.29513e-14 1.46084e-13 -6.9719e-17 -2.91963e-17 -2.9328e-17 -1.69511e-16 0 1.78266e-12 8.95829e-13 4.49672e-15 3.89479e-15 3.89479e-15 3.0789e-24 -3.91262e-15 2.27802e-14 2.27802e-14 1.8861e-14 2.66863e-14 -1.88677e-14 -2.27803e-14 -2.66929e-14 9.04613e-21 5.33857e-14 9.0432e-21 -2.66929e-14 -4.1955e-20 2.66928e-14 2.66929e-14 2.66929e-14 5.33858e-14 -4.63378e-14 -7.30306e-14 4.02285e-20 7.29926e-14 -1.10986e-16 -1.10855e-16 7.29928e-14 0 3.76318e-06 0 0 0 0 0 0 0 0 0 0 0 0 0 0 0 0 0 0 0 0 0 0 0 0 0 0 0 0 0 0
				</DataArray>
			</PointData>
			<CellData Scalars="Density">
				<DataArray Name="Density" type="Float32" format="ascii">