<?xml version="1.0"?>
<VTKFile type="PolyData">
	<PolyData>
		<Piece NumberOfPoints="961" NumberOfPolys="900">
			<Points>
				<DataArray type="Float32" NumberOfComponents="3" format="ascii">
 0 0 0 0.04 0 0 0.08 0 0 0.12 0 0 0.16 0 0 0.2 0 0 0.24 0 0 0.28 0 0 0.32 0 0 0.36 0 0 0.4 0 0 0.44 0 0 0.48 0 0 0.52 0 0 0.56 0 0 0.6 0 0 0.64 0 0 0.68 0 0 0.72 0 0 0.76 0 0 0.8 0 0 0.84 0 0 0.88 0 0 0.92 0 0 0.96 0 0 1 0 0 1.04 0 0 1.08 0 0 1.12 0 0 1.16 0 0 1.2 0 0 0 0.04 0 0.04 0.04 0 0.08 0.04 0 0.12 0.04 0 0.16 0.04 0 0.2 0.04 0 0.24 0.04 0 0.28 0.04 0 0.32 0.04 0 0.36 0.04 0 0.4 0.04 0 0.44 0.04 0 0.48 0.04 0 0.52 0.04 0 0.56 0.04 0 0.6 0.04 0 0.64 0.04 0 0.68 0.04 0 0.72 0.04 0 0.76 0.04 0 0.8 0.04 0 0.84 0.04 0 0.88 0.04 0 0.92 0.04 0 0.96 0.04 0 1 0.04 0 1.04 0.04 0 1.08 0.04 0 1.12 0.04 0 1.16 0.04 0 1.2 0.04 0 0 0.08 0 0.04 0.08 0 0.08 0.08 0 0.12 0.08 0 0.16 0.08 0 0.2 0.08 0 0.24 0.08 0 0.28 0.08 0 0.32 0.08 0 0.36 0.08 0 0.4 0.08 0 0.44 0.08 0 0.48 0.08 0 0.52 0.08 0 0.56 0.08 0 0.6 0.08 0 0.64 0.08 0 0.68 0.08 0 0.72 0.08 0 0.76 0.08 0 0.8 0.08 0 0.84 0.08 0 0.88 0.08 0 0.92 0.08 0 0.96 0.08 0 1 0.08 0 1.04 0.08 0 1.08 0.08 0 1.12 0.08 0 1.16 0.08 0 1.2 0.08 0 0 0.12 0 0.04 0.12 0 0.08 0.12 0 0.12 0.12 0 0.16 0.12 0 0.2 0.12 0 0.24 0.12 0 0.28 0.12 0 0.32 0.12 0 0.36 0.12 0 0.4 0.12 0 0.44 0.12 0 0.48 0.12 0 0.52 0.12 0 0.56 0.12 0 0.6 0.12 0 0.64 0.12 0 0.68 0.12 0 0.72 0.12 0 0.76 0.12 0 0.8 0.12 0 0.84 0.12 0 0.88 0.12 0 0.92 0.12 0 0.96 0.12 0 1 0.12 0 1.04 0.12 0 1.08 0.12 0 1.12 0.12 0 1.16 0.12 0 1.2 0.12 0 0 0.16 0 0.04 0.16 0 0.08 0.16 0 0.12 0.16 0 0.16 0.16 0 0.2 0.16 0 0.24 0.16 0 0.28 0.16 0 0.32 0.16 0 0.36 0.16 0 0.4 0.16 0 0.44 0.16 0 0.48 0.16 0 0.52 0.16 0 0.56 0.16 0 0.6 0.16 0 0.64 0.16 0 0.68 0.16 0 0.72 0.16 0 0.76 0.16 0 0.8 0.16 0 0.84 0.16 0 0.88 0.16 0 0.92 0.16 0 0.96 0.16 0 1 0.16 0 1.04 0.16 0 1.08 0.16 0 1.12 0.16 0 1.16 0.16 0 1.2 0.16 0 0 0.2 0 0.04 0.2 0 0.08 0.2 0 0.12 0.2 0 0.16 0.2 0 0.2 0.2 0 0.24 0.2 0 0.28 0.2 0 0.32 0.2 0 0.36 0.2 0 0.4 0.2 0 0.44 0.2 0 0.48 0.2 0 0.52 0.2 0 0.56 0.2 0 0.6 0.2 0 0.64 0.2 0 0.68 0.2 0 0.72 0.2 0 0.76 0.2 0 0.8 0.2 0 0.84 0.2 0 0.88 0.2 0 0.92 0.2 0 0.96 0.2 0 1 0.2 0 1.04 0.2 0 1.08 0.2 0 1.12 0.2 0 1.16 0.2 0 1.2 0.2 0 0 0.24 0 0.04 0.24 0 0.08 0.24 0 0.12 0.24 0 0.16 0.24 0 0.2 0.24 0 0.24 0.24 0 0.28 0.24 0 0.32 0.24 0 0.36 0.24 0 0.4 0.24 0 0.44 0.24 0 0.48 0.24 0 0.52 0.24 0 0.56 0.24 0 0.6 0.24 0 0.64 0.24 0 0.68 0.24 0 0.72 0.24 0 0.76 0.24 0 0.8 0.24 0 0.84 0.24 0 0.88 0.24 0 0.92 0.24 0 0.96 0.24 0 1 0.24 0 1.04 0.24 0 1.08 0.24 0 1.12 0.24 0 1.16 0.24 0 1.2 0.24 0 0 0.28 0 0.04 0.28 0 0.08 0.28 0 0.12 0.28 0 0.16 0.28 0 0.2 0.28 0 0.24 0.28 0 0.28 0.28 0 0.32 0.28 0 0.36 0.28 0 0.4 0.28 0 0.44 0.28 0 0.48 0.28 0 0.52 0.28 0 0.56 0.28 0 0.6 0.28 0 0.64 0.28 0 0.68 0.28 0 0.72 0.28 0 0.76 0.28 0 0.8 0.28 0 0.84 0.28 0 0.88 0.28 0 0.92 0.28 0 0.96 0.28 0 1 0.28 0 1.04 0.28 0 1.08 0.28 0 1.12 0.28 0 1.16 0.28 0 1.2 0.28 0 0 0.32 0 0.04 0.32 0 0.08 0.32 0 0.12 0.32 0 0.16 0.32 0 0.2 0.32 0 0.24 0.32 0 0.28 0.32 0 0.32 0.32 0 0.36 0.32 0 0.4 0.32 0 0.44 0.32 0 0.48 0.32 0 0.52 0.32 0 0.56 0.32 0 0.6 0.32 0 0.64 0.32 0 0.68 0.32 0 0.72 0.32 0 0.76 0.32 0 0.8 0.32 0 0.84 0.32 0 0.88 0.32 0 0.92 0.32 0 0.96 0.32 0 1 0.32 0 1.04 0.32 0 1.08 0.32 0 1.12 0.32 0 1.16 0.32 0 1.2 0.32 0 0 0.36 0 0.04 0.36 0 0.08 0.36 0 0.12 0.36 0 0.16 0.36 0 0.2 0.36 0 0.24 0.36 0 0.28 0.36 0 0.32 0.36 0 0.36 0.36 0 0.4 0.36 0 0.44 0.36 0 0.48 0.36 0 0.52 0.36 0 0.56 0.36 0 0.6 0.36 0 0.64 0.36 0 0.68 0.36 0 0.72 0.36 0 0.76 0.36 0 0.8 0.36 0 0.84 0.36 0 0.88 0.36 0 0.92 0.36 0 0.96 0.36 0 1 0.36 0 1.04 0.36 0 1.08 0.36 0 1.12 0.36 0 1.16 0.36 0 1.2 0.36 0 0 0.4 0 0.04 0.4 0 0.08 0.4 0 0.12 0.4 0 0.16 0.4 0 0.2 0.4 0 0.24 0.4 0 0.28 0.4 0 0.32 0.4 0 0.36 0.4 0 0.4 0.4 0 0.44 0.4 0 0.48 0.4 0 0.52 0.4 0 0.56 0.4 0 0.6 0.4 0 0.64 0.4 0 0.68 0.4 0 0.72 0.4 0 0.76 0.4 0 0.8 0.4 0 0.84 0.4 0 0.88 0.4 0 0.92 0.4 0 0.96 0.4 0 1 0.4 0 1.04 0.4 0 1.08 0.4 0 1.12 0.4 0 1.16 0.4 0 1.2 0.4 0 0 0.44 0 0.04 0.44 0 0.08 0.44 0 0.12 0.44 0 0.16 0.44 0 0.2 0.44 0 0.24 0.44 0 0.28 0.44 0 0.32 0.44 0 0.36 0.44 0 0.4 0.44 0 0.44 0.44 0 0.48 0.44 0 0.52 0.44 0 0.56 0.44 0 0.6 0.44 0 0.64 0.44 0 0.68 0.44 0 0.72 0.44 0 0.76 0.44 0 0.8 0.44 0 0.84 0.44 0 0.88 0.44 0 0.92 0.44 0 0.96 0.44 0 1 0.44 0 1.04 0.44 0 1.08 0.44 0 1.12 0.44 0 1.16 0.44 0 1.2 0.44 0 0 0.48 0 0.04 0.48 0 0.08 0.48 0 0.12 0.48 0 0.16 0.48 0 0.2 0.48 0 0.24 0.48 0 0.28 0.48 0 0.32 0.48 0 0.36 0.48 0 0.4 0.48 0 0.44 0.48 0 0.48 0.48 0 0.52 0.48 0 0.56 0.48 0 0.6 0.48 0 0.64 0.48 0 0.68 0.48 0 0.72 0.48 0 0.76 0.48 0 0.8 0.48 0 0.84 0.48 0 0.88 0.48 0 0.92 0.48 0 0.96 0.48 0 1 0.48 0 1.04 0.48 0 1.08 0.48 0 1.12 0.48 0 1.16 0.48 0 1.2 0.48 0 0 0.52 0 0.04 0.52 0 0.08 0.52 0 0.12 0.52 0 0.16 0.52 0 0.2 0.52 0 0.24 0.52 0 0.28 0.52 0 0.32 0.52 0 0.36 0.52 0 0.4 0.52 0 0.44 0.52 0 0.48 0.52 0 0.52 0.52 0 0.56 0.52 0 0.6 0.52 0 0.64 0.52 0 0.68 0.52 0 0.72 0.52 0 0.76 0.52 0 0.8 0.52 0 0.84 0.52 0 0.88 0.52 0 0.92 0.52 0 0.96 0.52 0 1 0.52 0 1.04 0.52 0 1.08 0.52 0 1.12 0.52 0 1.16 0.52 0 1.2 0.52 0 0 0.56 0 0.04 0.56 0 0.08 0.56 0 0.12 0.56 0 0.16 0.56 0 0.2 0.56 0 0.24 0.56 0 0.28 0.56 0 0.32 0.56 0 0.36 0.56 0 0.4 0.56 0 0.44 0.56 0 0.48 0.56 0 0.52 0.56 0 0.56 0.56 0 0.6 0.56 0 0.64 0.56 0 0.68 0.56 0 0.72 0.56 0 0.76 0.56 0 0.8 0.56 0 0.84 0.56 0 0.88 0.56 0 0.92 0.56 0 0.96 0.56 0 1 0.56 0 1.04 0.56 0 1.08 0.56 0 1.12 0.56 0 1.16 0.56 0 1.2 0.56 0 0 0.6 0 0.04 0.6 0 0.08 0.6 0 0.12 0.6 0 0.16 0.6 0 0.2 0.6 0 0.24 0.6 0 0.28 0.6 0 0.32 0.6 0 0.36 0.6 0 0.4 0.6 0 0.44 0.6 0 0.48 0.6 0 0.52 0.6 0 0.56 0.6 0 0.6 0.6 0 0.64 0.6 0 0.68 0.6 0 0.72 0.6 0 0.76 0.6 0 0.8 0.6 0 0.84 0.6 0 0.88 0.6 0 0.92 0.6 0 0.96 0.6 0 1 0.6 0 1.04 0.6 0 1.08 0.6 0 1.12 0.6 0 1.16 0.6 0 1.2 0.6 0 0 0.64 0 0.04 0.64 0 0.08 0.64 0 0.12 0.64 0 0.16 0.64 0 0.2 0.64 0 0.24 0.64 0 0.28 0.64 0 0.32 0.64 0 0.36 0.64 0 0.4 0.64 0 0.44 0.64 0 0.48 0.64 0 0.52 0.64 0 0.56 0.64 0 0.6 0.64 0 0.64 0.64 0 0.68 0.64 0 0.72 0.64 0 0.76 0.64 0 0.8 0.64 0 0.84 0.64 0 0.88 0.64 0 0.92 0.64 0 0.96 0.64 0 1 0.64 0 1.04 0.64 0 1.08 0.64 0 1.12 0.64 0 1.16 0.64 0 1.2 0.64 0 0 0.68 0 0.04 0.68 0 0.08 0.68 0 0.12 0.68 0 0.16 0.68 0 0.2 0.68 0 0.24 0.68 0 0.28 0.68 0 0.32 0.68 0 0.36 0.68 0 0.4 0.68 0 0.44 0.68 0 0.48 0.68 0 0.52 0.68 0 0.56 0.68 0 0.6 0.68 0 0.64 0.68 0 0.68 0.68 0 0.72 0.68 0 0.76 0.68 0 0.8 0.68 0 0.84 0.68 0 0.88 0.68 0 0.92 0.68 0 0.96 0.68 0 1 0.68 0 1.04 0.68 0 1.08 0.68 0 1.12 0.68 0 1.16 0.68 0 1.2 0.68 0 0 0.72 0 0.04 0.72 0 0.08 0.72 0 0.12 0.72 0 0.16 0.72 0 0.2 0.72 0 0.24 0.72 0 0.28 0.72 0 0.32 0.72 0 0.36 0.72 0 0.4 0.72 0 0.44 0.72 0 0.48 0.72 0 0.52 0.72 0 0.56 0.72 0 0.6 0.72 0 0.64 0.72 0 0.68 0.72 0 0.72 0.72 0 0.76 0.72 0 0.8 0.72 0 0.84 0.72 0 0.88 0.72 0 0.92 0.72 0 0.96 0.72 0 1 0.72 0 1.04 0.72 0 1.08 0.72 0 1.12 0.72 0 1.16 0.72 0 1.2 0.72 0 0 0.76 0 0.04 0.76 0 0.08 0.76 0 0.12 0.76 0 0.16 0.76 0 0.2 0.76 0 0.24 0.76 0 0.28 0.76 0 0.32 0.76 0 0.36 0.76 0 0.4 0.76 0 0.44 0.76 0 0.48 0.76 0 0.52 0.76 0 0.56 0.76 0 0.6 0.76 0 0.64 0.76 0 0.68 0.76 0 0.72 0.76 0 0.76 0.76 0 0.8 0.76 0 0.84 0.76 0 0.88 0.76 0 0.92 0.76 0 0.96 0.76 0 1 0.76 0 1.04 0.76 0 1.08 0.76 0 1.12 0.76 0 1.16 0.76 0 1.2 0.76 0 0 0.8 0 0.04 0.8 0 0.08 0.8 0 0.12 0.8 0 0.16 0.8 0 0.2 0.8 0 0.24 0.8 0 0.28 0.8 0 0.32 0.8 0 0.36 0.8 0 0.4 0.8 0 0.44 0.8 0 0.48 0.8 0 0.52 0.8 0 0.56 0.8 0 0.6 0.8 0 0.64 0.8 0 0.68 0.8 0 0.72 0.8 0 0.76 0.8 0 0.8 0.8 0 0.84 0.8 0 0.88 0.8 0 0.92 0.8 0 0.96 0.8 0 1 0.8 0 1.04 0.8 0 1.08 0.8 0 1.12 0.8 0 1.16 0.8 0 1.2 0.8 0 0 0.84 0 0.04 0.84 0 0.08 0.84 0 0.12 0.84 0 0.16 0.84 0 0.2 0.84 0 0.24 0.84 0 0.28 0.84 0 0.32 0.84 0 0.36 0.84 0 0.4 0.84 0 0.44 0.84 0 0.48 0.84 0 0.52 0.84 0 0.56 0.84 0 0.6 0.84 0 0.64 0.84 0 0.68 0.84 0 0.72 0.84 0 0.76 0.84 0 0.8 0.84 0 0.84 0.84 0 0.88 0.84 0 0.92 0.84 0 0.96 0.84 0 1 0.84 0 1.04 0.84 0 1.08 0.84 0 1.12 0.84 0 1.16 0.84 0 1.2 0.84 0 0 0.88 0 0.04 0.88 0 0.08 0.88 0 0.12 0.88 0 0.16 0.88 0 0.2 0.88 0 0.24 0.88 0 0.28 0.88 0 0.32 0.88 0 0.36 0.88 0 0.4 0.88 0 0.44 0.88 0 0.48 0.88 0 0.52 0.88 0 0.56 0.88 0 0.6 0.88 0 0.64 0.88 0 0.68 0.88 0 0.72 0.88 0 0.76 0.88 0 0.8 0.88 0 0.84 0.88 0 0.88 0.88 0 0.92 0.88 0 0.96 0.88 0 1 0.88 0 1.04 0.88 0 1.08 0.88 0 1.12 0.88 0 1.16 0.88 0 1.2 0.88 0 0 0.92 0 0.04 0.92 0 0.08 0.92 0 0.12 0.92 0 0.16 0.92 0 0.2 0.92 0 0.24 0.92 0 0.28 0.92 0 0.32 0.92 0 0.36 0.92 0 0.4 0.92 0 0.44 0.92 0 0.48 0.92 0 0.52 0.92 0 0.56 0.92 0 0.6 0.92 0 0.64 0.92 0 0.68 0.92 0 0.72 0.92 0 0.76 0.92 0 0.8 0.92 0 0.84 0.92 0 0.88 0.92 0 0.92 0.92 0 0.96 0.92 0 1 0.92 0 1.04 0.92 0 1.08 0.92 0 1.12 0.92 0 1.16 0.92 0 1.2 0.92 0 0 0.96 0 0.04 0.96 0 0.08 0.96 0 0.12 0.96 0 0.16 0.96 0 0.2 0.96 0 0.24 0.96 0 0.28 0.96 0 0.32 0.96 0 0.36 0.96 0 0.4 0.96 0 0.44 0.96 0 0.48 0.96 0 0.52 0.96 0 0.56 0.96 0 0.6 0.96 0 0.64 0.96 0 0.68 0.96 0 0.72 0.96 0 0.76 0.96 0 0.8 0.96 0 0.84 0.96 0 0.88 0.96 0 0.92 0.96 0 0.96 0.96 0 1 0.96 0 1.04 0.96 0 1.08 0.96 0 1.12 0.96 0 1.16 0.96 0 1.2 0.96 0 0 1 0 0.04 1 0 0.08 1 0 0.12 1 0 0.16 1 0 0.2 1 0 0.24 1 0 0.28 1 0 0.32 1 0 0.36 1 0 0.4 1 0 0.44 1 0 0.48 1 0 0.52 1 0 0.56 1 0 0.6 1 0 0.64 1 0 0.68 1 0 0.72 1 0 0.76 1 0 0.8 1 0 0.84 1 0 0.88 1 0 0.92 1 0 0.96 1 0 1 1 0 1.04 1 0 1.08 1 0 1.12 1 0 1.16 1 0 1.2 1 0 0 1.04 0 0.04 1.04 0 0.08 1.04 0 0.12 1.04 0 0.16 1.04 0 0.2 1.04 0 0.24 1.04 0 0.28 1.04 0 0.32 1.04 0 0.36 1.04 0 0.4 1.04 0 0.44 1.04 0 0.48 1.04 0 0.52 1.04 0 0.56 1.04 0 0.6 1.04 0 0.64 1.04 0 0.68 1.04 0 0.72 1.04 0 0.76 1.04 0 0.8 1.04 0 0.84 1.04 0 0.88 1.04 0 0.92 1.04 0 0.96 1.04 0 1 1.04 0 1.04 1.04 0 1.08 1.04 0 1.12 1.04 0 1.16 1.04 0 1.2 1.04 0 0 1.08 0 0.04 1.08 0 0.08 1.08 0 0.12 1.08 0 0.16 1.08 0 0.2 1.08 0 0.24 1.08 0 0.28 1.08 0 0.32 1.08 0 0.36 1.08 0 0.4 1.08 0 0.44 1.08 0 0.48 1.08 0 0.52 1.08 0 0.56 1.08 0 0.6 1.08 0 0.64 1.08 0 0.68 1.08 0 0.72 1.08 0 0.76 1.08 0 0.8 1.08 0 0.84 1.08 0 0.88 1.08 0 0.92 1.08 0 0.96 1.08 0 1 1.08 0 1.04 1.08 0 1.08 1.08 0 1.12 1.08 0 1.16 1.08 0 1.2 1.08 0 0 1.12 0 
[...]
			<PointData Scalars="VitesseX">
				<DataArray Name="VitesseX" type="Float32" format="ascii">
 0 -0.0318218 -0.0914519 -0.101712 -0.0998326 -0.0666426 -0.00891173 0.0564404 0.119731 0.169251 0.192706 0.175966 0.133888 0.0553269 -0.0707152 -0.250996 -0.48066 -0.739529 -0.991777 -1.20448 -1.35964 -1.4422 -1.44523 -1.37346 -1.23253 -1.04804 -0.841366 -0.626879 -0.411499 -0.201419 0 0 0.094866 0.077358 0.0389091 0.0225065 0.0379579 0.0793318 0.12814 0.174428 0.211544 0.225822 0.202728 0.155378 0.0728921 -0.0557271 -0.237271 -0.467244 -0.725931 -0.978232 -1.19134 -1.34712 -1.43177 -1.43705 -1.36835 -1.22984 -1.04684 -0.841116 -0.627487 -0.412415 -0.20204 0 0 0.0937175 0.160161 0.186785 0.188122 0.190118 0.196625 0.216423 0.238791 0.253669 0.248869 0.213175 0.159313 0.0743699 -0.0527544 -0.228887 -0.450972 -0.702023 -0.949271 -1.16031 -1.31632 -1.40594 -1.41726 -1.35648 -1.22419 -1.04466 -0.840589 -0.628081 -0.41341 -0.202744 0 0 0.0805498 0.145071 0.186795 0.204376 0.22142 0.226193 0.238276 0.253693 0.262395 0.251153 0.210491 0.152785 0.0698972 -0.0490317 -0.21234 -0.419483 -0.657001 -0.896192 -1.10544 -1.26417 -1.3625 -1.38476 -1.33724 -1.21603 -1.04273 -0.841317 -0.629959 -0.415397 -0.203716 0 0 0.0488855 0.106901 0.15941 0.18844 0.213571 0.225642 0.236547 0.250893 0.259143 0.249663 0.213407 0.158811 0.0821482 -0.0266976 -0.174915 -0.363841 -0.58434 -0.814081 -1.02322 -1.18855 -1.29858 -1.33735 -1.30802 -1.20376 -1.04041 -0.843258 -0.633364 -0.418714 -0.205065 0 0 0.0169077 0.0581617 0.113843 0.157331 0.190231 0.21459 0.228364 0.244064 0.254823 0.251545 0.225563 0.177792 0.112269 0.0179446 -0.112118 -0.280793 -0.483078 -0.70279 -0.912794 -1.08752 -1.21153 -1.27203 -1.26453 -1.18382 -1.03577 -0.845688 -0.637968 -0.423388 -0.20703 0 0 -0.000252499 0.0229232 0.0669691 0.113442 0.156 0.190106 0.210668 0.230808 0.246015 0.251738 0.239508 0.202935 0.151163 0.0753039 -0.0328278 -0.178067 -0.359332 -0.565683 -0.774528 -0.95919 -1.09946 -1.18444 -1.20212 -1.15109 -1.02558 -0.846989 -0.643186 -0.429241 -0.20978 0 0 -0.00382725 0.0135102 0.0461386 0.0824928 0.119774 0.155621 0.183662 0.209945 0.230939 0.246568 0.248899 0.228853 0.191059 0.134695 0.0507228 -0.0673931 -0.222305 -0.408591 -0.61019 -0.802149 -0.960372 -1.06932 -1.11715 -1.09934 -1.00495 -0.844501 -0.647579 -0.435928 -0.21344 0 0 -0.00164942 0.0145068 0.0435041 0.0754463 0.108043 0.139355 0.166821 0.193134 0.216574 0.23788 0.251303 0.249974 0.228213 0.190854 0.131462 0.042643 -0.0807593 -0.239365 -0.424491 -0.616964 -0.791151 -0.924854 -1.00542 -1.02234 -0.96733 -0.834035 -0.648977 -0.442331 -0.217964 0 0 0.00217296 0.0184104 0.0460812 0.0776957 0.109045 0.139485 0.16579 0.190566 0.213943 0.237006 0.255964 0.267221 0.262784 0.241733 0.205115 0.145386 0.0558338 -0.0682008 -0.226254 -0.407788 -0.591336 -0.749793 -0.862338 -0.916198 -0.90462 -0.81014 -0.645099 -0.44635 -0.223179 0 0 0.0067793 0.0244255 0.0523857 0.0841548 0.115451 0.145019 0.171356 0.195247 0.218483 0.242168 0.264307 0.282934 0.29401 0.290569 0.272142 0.237666 0.179994 0.0922361 -0.0302186 -0.186231 -0.364758 -0.541456 -0.686494 -0.77924 -0.809551 -0.764757 -0.632426 -0.446695 -0.228343 0 0 0.0124029 0.0332383 0.0631677 0.0969207 0.129096 0.158463 0.183751 0.205899 0.227348 0.250237 0.273603 0.296381 0.316705 0.330354 0.330951 0.316734 0.286086 0.232064 0.147368 0.0271719 -0.127089 -0.304279 -0.476199 -0.608979 -0.682086 -0.687888 -0.604574 -0.442155 -0.231085 0 0 0.0199462 0.0467173 0.0806104 0.11751 0.152626 0.182755 0.206756 0.226081 0.244136 0.263746 0.28532 0.308397 0.332299 0.355237 0.372907 0.379084 0.370274 0.344686 0.295456 0.214553 0.0962567 -0.0581411 -0.236212 -0.404618 -0.524451 -0.576613 -0.551662 -0.428311 -0.230886 0 0 0.0294685 0.0645511 0.103879 0.144725 0.183672 0.217092 0.242525 0.260372 0.272612 0.286134 0.302867 0.32303 0.34626 0.371626 0.397225 0.419047 0.431013 0.428677 0.408764 0.364532 0.286678 0.16807 0.0103226 -0.171114 -0.33561 -0.439297 -0.467363 -0.399357 -0.226975 0 0 0.0406579 0.0851623 0.131461 0.176784 0.219643 0.256776 0.286096 0.305849 0.316073 0.32159 0.329172 0.342971 0.362338 0.386261 0.413155 0.440848 0.466222 0.48349 0.488224 0.473476 0.43315 0.356069 0.233362 0.0677267 -0.119479 -0.27695 -0.35774 -0.349648 -0.216044 0 0 0.0531389 0.108555 0.163075 0.214525 0.261109 0.301419 0.333162 0.355356 0.367091 0.369357 0.367568 0.370081 0.382357 0.402143 0.427163 0.455264 0.484287 0.511883 0.533874 0.544473 0.534475 0.496001 0.415796 0.283131 0.103986 -0.0888287 -0.229642 -0.275761 -0.192436 0 0 0.0666549 0.133854 0.198394 0.257032 0.308853 0.352317 0.386472 0.409538 0.421184 0.42219 0.415327 0.406351 0.406304 0.41945 0.441085 0.46755 0.4965 0.526148 0.554923 0.580233 0.595251 0.589157 0.548898 0.459482 0.308827 0.111673 -0.0791387 -0.179528 -0.150163 0 0 0.0799405 0.159394 0.234286 0.301956 0.360318 0.409323 0.446804 0.471245 0.481653 0.479515 0.468311 0.451723 0.437355 0.437928 0.453744 0.477747 0.505604 0.535183 0.565231 0.594737 0.621849 0.640388 0.63565 0.588229 0.480918 0.303481 0.0912483 -0.0656826 -0.0868559 0 0 0.0909936 0.18066 0.265475 0.342357 0.41032 0.467367 0.511482 0.53961 0.550312 0.544902 0.527592 0.503612 0.478328 0.46221 0.466883 0.486524 0.512746 0.541656 0.571662 0.601994 0.631989 0.660213 0.681073 0.672651 0.61051 0.473163 0.265184 0.0629179 -0.00972977 0 0 0.0965334 0.19177 0.282552 0.368235 0.446811 0.516114 0.571448 0.608752 0.624646 0.619039 0.596241 0.563137 0.527565 0.497054 0.484333 0.495251 0.518638 0.546597 0.576266 0.606603 0.63729 0.667838 0.69691 0.718451 0.697554 0.60902 0.428819 0.201942 0.0732783 0 0 0.0962053 0.190666 0.282392 0.370952 0.457072 0.538125 0.609924 0.66466 0.694849 0.696856 0.673811 0.633027 0.585713 0.542383 0.512047 0.506902 0.524159 0.550526 0.579755 0.610019 0.640771 0.671891 0.703326 0.733558 0.750331 0.705922 0.571913 0.346406 0.163901 0 0 0.0904802 0.179132 0.264612 0.350789 0.438408 0.527748 0.613282 0.68743 0.741175 0.763885 0.751978 0.711212 0.654975 0.597965 0.552523 0.527795 0.531685 0.553912 0.58234 0.612552 0.643393 0.674882 0.706922 0.739157 0.772212 0.769151 0.684636 0.488709 0.265559 0 0 0.0799485 0.155783 0.231365 0.308026 0.393026 0.486421 0.582369 0.671885 0.746964 0.796833 0.81058 0.786386 0.731418 0.664986 0.605134 0.563268 0.547534 0.558901 0.584524 0.614404 0.645599 0.677362 0.709594 0.743351 0.779121 0.80154 0.768156 0.624207 0.375781 0 0 0.064868 0.125531 0.179473 0.238811 0.32165 0.420519 0.525349 0.625748 0.713956 0.784605 0.827841 0.833245 0.800369 0.737925 0.669148 0.613189 0.579221 0.57214 0.58818 0.616122 0.647336 0.679395 0.712691 0.747862 0.781796 0.815977 0.832408 0.734971 0.483863 0 0 0.0510564 0.0862139 0.105123 0.157586 0.241175 0.342684 0.452424 0.558649 0.653854 0.734468 0.796 0.832135 0.8328 0.797935 0.737223 0.674541 0.627341 0.602437 0.601768 0.619892 0.649014 0.681862 0.716789 0.75039 0.784845 0.840835 0.867862 0.797692 0.57104 0 0 0.0374985 0.035003 0.046283 0.101705 0.182591 0.277334 0.37673 0.476145 0.572186 0.658049 0.727678 0.778926 0.809712 0.811624 0.78488 0.736221 0.68602 0.650213 0.63302 0.63613 0.655074 0.685981 0.719147 0.753192 0.802385 0.867055 0.870288 0.805179 0.607331 0 0 0.0168538 -0.00502223 0.0168112 0.0730524 0.149138 0.231548 0.313073 0.394567 0.476681 0.557879 0.631657 0.690517 0.733678 0.763266 0.773637 0.763926 0.737681 0.704895 0.680774 0.672131 0.677631 0.69529 0.72372 0.771302 0.834187 0.860145 0.840735 0.750953 0.550322 0 0 -0.00889927 -0.0234495 0.00498642 0.0578636 0.128897 0.197368 0.261697 0.325689 0.390628 0.456797 0.521813 0.580213 0.627201 0.665905 0.697647 0.72432 0.737615 0.736867 0.729863 0.719981 0.715955 0.722632 0.750095 0.803056 0.832846 0.822197 0.756364 0.600672 0.343334 0 0 -0.0331437 -0.0258929 -0.00461499 0.0448724 0.109747 0.163524 0.212832 0.262583 0.314572 0.36896 0.42493 0.479962 0.530097 0.57488 0.614227 0.647934 0.672526 0.694408 0.714524 0.731918 0.750123 0.773751 0.80594 0.825715 0.813525 0.750581 0.599823 0.347297 0.115419 0 0 -0.0639847 -0.0223608 -0.0241949 0.0278513 0.0667688 0.104022 0.140241 0.1779 0.219318 0.266316 0.319899 0.377415 0.437636 0.502267 0.571555 0.639871 0.697719 0.738108 0.769375 0.802978 0.83927 0.876916 0.904534 0.899131 0.829054 0.646644 0.362542 0.118101 0.0202523 0 0 0 0 0 0 0 0 0 0 0 0 0 0 0 0 0 0 0 0 0 0 0 0 0 0 0 0 0 0 0 0
				</DataArray>
				<DataArray Name="VitesseY" type="Float32" format="ascii">
 0 0 0 0 0 0 0 0 0 0 0 0 0 0 0 0 0 0 0 0 0 0 0 0 0 0 0 0 0 0 0 -0.0316854 0.0949607 0.0937792 0.0805759 0.0488572 0.0168021 -0.000489809 -0.00425075 -0.00229744 0.00136374 0.00655039 0.0148201 0.0261627 0.039537 0.0549925 0.0724333 0.0908817 0.108111 0.120695 0.125337 0.122953 0.114336 0.100493 0.0825835 0.0648155 0.0507215 0.0401885 0.0314058 0.0228232 0.0123382 0 -0.0912055 0.077584 0.160359 0.145229 0.106982 0.0581202 0.0227116 0.0130395 0.013803 0.0177326 0.0253919 0.039076 0.0590554 0.0837014 0.112408 0.144985 0.179832 0.212806 0.237359 0.246917 0.242943 0.227199 0.201277 0.166985 0.13179 0.103551 0.0825848 0.0653263 0.0484854 0.0271458 0 -0.101362 0.0392949 0.187199 0.187226 0.159796 0.114138 0.0671377 0.0462212 0.0436581 0.047002 0.056356 0.0735272 0.0985214 0.13042 0.168735 0.213014 0.261307 0.30807 0.344314 0.36052 0.357004 0.336856 0.30179 0.25393 0.202381 0.160009 0.128457 0.102756 0.0777716 0.0454056 0 -0.0992778 0.0231533 0.188948 0.20531 0.189389 0.158233 0.114306 0.0834546 0.0769782 0.0808397 0.091525 0.111976 0.140586 0.176721 0.221017 0.273226 0.331325 0.389471 0.437729 0.46387 0.464013 0.442756 0.401789 0.34388 0.27763 0.220725 0.177847 0.143371 0.110164 0.0663052 0 -0.0656932 0.0390814 0.191667 0.223249 0.21545 0.192069 0.157792 0.12175 0.110825 0.113981 0.125218 0.147763 0.179747 0.2195 0.267521 0.324144 0.388188 0.454992 0.515099 0.55441 0.562549 0.543537 0.500011 0.436161 0.358037 0.286225 0.230772 0.18675 0.144978 0.0895567 0 -0.00718502 0.0814083 0.199523 0.229675 0.229209 0.21798 0.193272 0.158758 0.143178 0.145374 0.155568 0.177937 0.21192 0.2547 0.305335 0.364204 0.431412 0.504168 0.574449 0.628202 0.648866 0.635782 0.594102 0.528748 0.443523 0.357361 0.287939 0.233179 0.18226 0.11563 0 0.0598488 0.132142 0.221953 0.244867 0.243168 0.234478 0.216014 0.188418 0.171632 0.172097 0.18129 0.201009 0.234999 0.279987 0.332342 0.391988 0.460149 0.535901 0.613421 0.68047 0.718161 0.717269 0.681866 0.618422 0.53227 0.434676 0.350415 0.283503 0.222766 0.145465 0 0.12685 0.182604 0.249539 0.266315 0.263316 0.255127 0.240022 0.217354 0.199462 0.197122 0.204042 0.219893 0.249968 0.294402 0.347904 0.40717 0.473912 0.549173 0.629955 0.707296 0.764126 0.781511 0.757846 0.701412 0.619799 0.517327 0.418688 0.338464 0.267494 0.180072 0 0.184997 0.228983 0.275352 0.287059 0.282848 0.275212 0.262217 0.243049 0.225536 0.221321 0.226221 0.237969 0.260963 0.300082 0.352464 0.410425 0.473791 0.545166 0.624604 0.706979 0.779589 0.821272 0.818587 0.773602 0.699585 0.601509 0.492038 0.397937 0.316895 0.220221 0 0.229403 0.264962 0.293751 0.299145 0.294158 0.288719 0.280317 0.267001 0.251767 0.246509 0.24977 0.258254 0.274936 0.304025 0.34904 0.404086 0.462947 0.528007 0.601522 0.682582 0.763934 0.827819 0.852606 0.830516 0.767736 0.678817 0.567669 0.460998 0.37009 0.266687 0 0.248418 0.277411 0.292965 0.292608 0.28986 0.289919 0.288798 0.283533 0.273881 0.27 0.273249 0.280421 0.292557 0.313083 0.345676 0.391864 0.445192 0.502634 0.567197 0.640772 0.721425 0.799553 0.852735 0.860887 0.819792 0.741772 0.637987 0.524296 0.42559 0.320041 0 0.226474 0.249878 0.257985 0.253215 0.254844 0.26424 0.276248 0.285151 0.287392 0.289305 0.295448 0.303642 0.313662 0.328648 0.350945 0.383014 0.425194 0.474492 0.52905 0.591466 0.663574 0.742193 0.815225 0.856959 0.84824 0.788223 0.69449 0.581628 0.480366 0.377482 0 0.178352 0.197337 0.201125 0.195281 0.199502 0.215182 0.237218 0.261086 0.282286 0.298545 0.313328 0.326363 0.337348 0.349713 0.366011 0.387584 0.414681 0.449773 0.493371 0.543803 0.603007 0.67266 0.748352 0.814883 0.843767 0.815745 0.736126 0.627982 0.530321 0.437671 0 0.0940216 0.109659 0.111811 0.109966 0.119999 0.145346 0.179974 0.216796 0.253155 0.287495 0.320206 0.345162 0.361593 0.374552 0.388129 0.404098 0.422211 0.442234 0.46871 0.505235 0.551077 0.606848 0.673493 0.745447 0.803831 0.815547 0.764844 0.666358 0.574987 0.502284 0 -0.0369307 -0.0238394 -0.0198055 -0.0138404 0.00601755 0.0441719 0.0948261 0.149792 0.204728 0.25683 0.30751 0.35251 0.382653 0.400691 0.414512 0.427968 0.441891 0.454862 0.468648 0.487 0.515556 0.556295 0.608818 0.672467 0.739835 0.786761 0.774602 0.697915 0.614281 0.57156 0 -0.220948 -0.209001 -0.200569 -0.183741 -0.150244 -0.096066 -0.0263449 0.0503496 0.129183 0.205244 0.276858 0.341501 0.392721 0.424312 0.442365 0.45574 0.467796 0.477996 0.486832 0.495786 0.507747 0.528946 0.564552 0.614398 0.675571 0.736896 0.764403 0.724476 0.647963 0.639873 0 -0.450652 -0.439647 -0.425097 -0.396956 -0.348439 -0.277657 -0.1887 -0.0880727 0.0183996 0.124271 0.224059 0.312812 0.385724 0.438305 0.468381 0.484797 0.496609 0.505643 0.512781 0.518681 0.524248 0.53187 0.547805 0.57955 0.627648 0.686263 0.737819 0.737681 0.672539 0.697719 0 -0.703219 -0.692444 -0.67305 -0.635651 -0.575514 -0.492047 -0.38754 -0.266066 -0.132179 0.00655323 0.140592 0.261027 0.360641 0.437062 0.486892 0.512579 0.526272 0.535193 0.541645 0.546584 0.550512 0.553901 0.558924 0.572192 0.602503 0.650274 0.704925 0.736893 0.694413 0.738108 0 -0.940274 -0.930387 -0.907982 -0.866674 -0.802903 -0.715859 -0.605431 -0.471917 -0.318281 -0.150747 0.0196249 0.177627 0.311886 0.416898 0.492018 0.535159 0.555112 0.565251 0.571656 0.576257 0.579745 0.582328 0.584512 0.588177 0.601776 0.63303 0.680783 0.729869 0.714527 0.769376 0 -1.13041 -1.121 -1.09758 -1.0568 -0.996927 -0.916399 -0.812382 -0.681727 -0.522864 -0.339245 -0.140183 0.0562286 0.230696 0.372397 0.476993 0.545865 0.580569 0.594777 0.601994 0.606598 0.610015 0.612548 0.614399 0.616117 0.619889 0.63613 0.672133 0.719983 0.731919 0.80298 0 -1.25978 -1.25043 -1.22511 -1.18648 -1.13496 -1.06788 -0.980255 -0.865343 -0.718129 -0.537362 -0.327716 -0.103237 0.110496 0.293857 0.436291 0.535768 0.59568 0.621902 0.631995 0.637287 0.640768 0.64339 0.645597 0.647334 0.649012 0.655073 0.677632 0.715956 0.750124 0.839271 0 -1.32532 -1.31389 -1.28486 -1.24745 -1.20651 -1.15901 -1.09373 -1.00128 -0.876096 -0.714707 -0.516925 -0.288457 -0.0481109 0.173759 0.358672 0.497039 0.589566 0.640516 0.660223 0.667837 0.671887 0.674879 0.67736 0.679393 0.681861 0.68598 0.69529 0.722633 0.773752 0.876917 0 -1.32151 -1.30518 -1.26537 -1.22543 -1.19998 -1.17631 -1.13868 -1.07609 -0.979621 -0.845626 -0.675062 -0.468747 -0.231538 0.0135084 0.235149 0.416549 0.549182 0.635752 0.681099 0.69691 0.703323 0.70692 0.709591 0.712689 0.716789 0.719147 0.72372 0.750096 0.805941 0.904536 0 -1.23455 -1.20418 -1.14743 -1.11611 -1.11954 -1.12379 -1.11333 -1.07793 -1.01203 -0.912771 -0.778239 -0.608249 -0.404194 -0.170644 0.0683707 0.283552 0.459654 0.588293 0.672673 0.718455 0.733556 0.739155 0.74335 0.747861 0.75039 0.753193 0.771303 0.803058 0.825717 0.899134 0 -1.06682 -1.01592 -0.962774 -0.960333 -0.985923 -1.0066 -1.01304 -1.00182 -0.968456 -0.907443 -0.813041 -0.685047 -0.526269 -0.336615 -0.119851 0.104002 0.308897 0.480954 0.610523 0.697558 0.750331 0.77221 0.77912 0.781796 0.784846 0.802386 0.834189 0.832848 0.813527 0.829058 0 -0.828816 -0.777965 -0.774195 -0.787914 -0.818533 -0.840102 -0.850147 -0.850354 -0.840246 -0.815468 -0.768882 -0.690895 -0.578619 -0.440461 -0.277546 -0.0890549 0.111649 0.303488 0.47317 0.609024 0.705924 0.769151 0.80154 0.815977 0.840836 0.867056 0.860147 0.822199 0.750584 0.646648 0 -0.527302 -0.552521 -0.597793 -0.604141 -0.630171 -0.644675 -0.651899 -0.655244 -0.654901 -0.649237 -0.635139 -0.606299 -0.552755 -0.468035 -0.358109 -0.229813 -0.0792009 0.091241 0.265189 0.428824 0.571916 0.684639 0.768158 0.83241 0.867863 0.870289 0.840737 0.756366 0.599826 0.362545 0 -0.156438 -0.355501 -0.413134 -0.402077 -0.429459 -0.433773 -0.437437 -0.441674 -0.445928 -0.448502 -0.447954 -0.442811 -0.428658 -0.399549 -0.349762 -0.275825 -0.179557 -0.065689 0.0629203 0.201946 0.34641 0.488713 0.624211 0.734974 0.797694 0.805181 0.750954 0.600673 0.347298 0.118102 0 0.262154 -0.197448 -0.19505 -0.199114 -0.219686 -0.213731 -0.214606 -0.216378 -0.219504 -0.223871 -0.228672 -0.231253 -0.230975 -0.227015 -0.216062 -0.192442 -0.150164 -0.0868544 -0.00972737 0.0732808 0.163903 0.265562 0.375784 0.483866 0.571042 0.607332 0.550323 0.343333 0.115418 0.0202523 0 3.0585 0 0 0 0 0 0 0 0 0 0 0 0 0 0 0 0 0 0 0 0 0 0 0 0 0 0 0 0 0 0
				</DataArray>
			</PointData>
			<CellData Scalars="Density">
				<DataArray Name="Density" type="Float32" format="ascii">