<?xml version="1.0"?>
<VTKFile type="PolyData">
	<PolyData>
		<Piece NumberOfPoints="961" NumberOfPolys="900">
			<Points>
				<DataArray type="Float32" NumberOfComponents="3" format="ascii">
 0 0 0 0.04 0 0 0.08 0 0 0.12 0 0 0.16 0 0 0.2 0 0 0.24 0 0 0.28 0 0 0.32 0 0 0.36 0 0 0.4 0 0 0.44 0 0 0.48 0 0 0.52 0 0 0.56 0 0 0.6 0 0 0.64 0 0 0.68 0 0 0.72 0 0 0.76 0 0 0.8 0 0 0.84 0 0 0.88 0 0 0.92 0 0 0.96 0 0 1 0 0 1.04 0 0 1.08 0 0 1.12 0 0 1.16 0 0 1.2 0 0 0 0.04 0 0.04 0.04 0 0.08 0.04 0 0.12 0.04 0 0.16 0.04 0 0.2 0.04 0 0.24 0.04 0 0.28 0.04 0 0.32 0.04 0 0.36 0.04 0 0.4 0.04 0 0.44 0.04 0 0.48 0.04 0 0.52 0.04 0 0.56 0.04 0 0.6 0.04 0 0.64 0.04 0 0.68 0.04 0 0.72 0.04 0 0.76 0.04 0 0.8 0.04 0 0.84 0.04 0 0.88 0.04 0 0.92 0.04 0 0.96 0.04 0 1 0.04 0 1.04 0.04 0 1.08 0.04 0 1.12 0.04 0 1.16 0.04 0 1.2 0.04 0 0 0.08 0 0.04 0.08 0 0.08 0.08 0 0.12 0.08 0 0.16 0.08 0 0.2 0.08 0 0.24 0.08 0 0.28 0.08 0 0.32 0.08 0 0.36 0.08 0 0.4 0.08 0 0.44 0.08 0 0.48 0.08 0 0.52 0.08 0 0.56 0.08 0 0.6 0.08 0 0.64 0.08 0 0.68 0.08 0 0.72 0.08 0 0.76 0.08 0 0.8 0.08 0 0.84 0.08 0 0.88 0.08 0 0.92 0.08 0 0.96 0.08 0 1 0.08 0 1.04 0.08 0 1.08 0.08 0 1.12 0.08 0 1.16 0.08 0 1.2 0.08 0 0 0.12 0 0.04 0.12 0 0.08 0.12 0 0.12 0.12 0 0.16 0.12 0 0.2 0.12 0 0.24 0.12 0 0.28 0.12 0 0.32 0.12 0 0.36 0.12 0 0.4 0.12 0 0.44 0.12 0 0.48 0.12 0 0.52 0.12 0 0.56 0.12 0 0.6 0.12 0 0.64 0.12 0 0.68 0.12 0 0.72 0.12 0 0.76 0.12 0 0.8 0.12 0 0.84 0.12 0 0.88 0.12 0 0.92 0.12 0 0.96 0.12 0 1 0.12 0 1.04 0.12 0 1.08 0.12 0 1.12 0.12 0 1.16 0.12 0 1.2 0.12 0 0 0.16 0 0.04 0.16 0 0.08 0.16 0 0.12 0.16 0 0.16 0.16 0 0.2 0.16 0 0.24 0.16 0 0.28 0.16 0 0.32 0.16 0 0.36 0.16 0 0.4 0.16 0 0.44 0.16 0 0.48 0.16 0 0.52 0.16 0 0.56 0.16 0 0.6 0.16 0 0.64 0.16 0 0.68 0.16 0 0.72 0.16 0 0.76 0.16 0 0.8 0.16 0 0.84 0.16 0 0.88 0.16 0 0.92 0.16 0 0.96 0.16 0 1 0.16 0 1.04 0.16 0 1.08 0.16 0 1.12 0.16 0 1.16 0.16 0 1.2 0.16 0 0 0.2 0 0.04 0.2 0 0.08 0.2 0 0.12 0.2 0 0.16 0.2 0 0.2 0.2 0 0.24 0.2 0 0.28 0.2 0 0.32 0.2 0 0.36 0.2 0 0.4 0.2 0 0.44 0.2 0 0.48 0.2 0 0.52 0.2 0 0.56 0.2 0 0.6 0.2 0 0.64 0.2 0 0.68 0.2 0 0.72 0.2 0 0.76 0.2 0 0.8 0.2 0 0.84 0.2 0 0.88 0.2 0 0.92 0.2 0 0.96 0.2 0 1 0.2 0 1.04 0.2 0 1.08 0.2 0 1.12 0.2 0 1.16 0.2 0 1.2 0.2 0 0 0.24 0 0.04 0.24 0 0.08 0.24 0 0.12 0.24 0 0.16 0.24 0 0.2 0.24 0 0.24 0.24 0 0.28 0.24 0 0.32 0.24 0 0.36 0.24 0 0.4 0.24 0 0.44 0.24 0 0.48 0.24 0 0.52 0.24 0 0.56 0.24 0 0.6 0.24 0 0.64 0.24 0 0.68 0.24 0 0.72 0.24 0 0.76 0.24 0 0.8 0.24 0 0.84 0.24 0 0.88 0.24 0 0.92 0.24 0 0.96 0.24 0 1 0.24 0 1.04 0.24 0 1.08 0.24 0 1.12 0.24 0 1.16 0.24 0 1.2 0.24 0 0 0.28 0 0.04 0.28 0 0.08 0.28 0 0.12 0.28 0 0.16 0.28 0 0.2 0.28 0 0.24 0.28 0 0.28 0.28 0 0.32 0.28 0 0.36 0.28 0 0.4 0.28 0 0.44 0.28 0 0.48 0.28 0 0.52 0.28 0 0.56 0.28 0 0.6 0.28 0 0.64 0.28 0 0.68 0.28 0 0.72 0.28 0 0.76 0.28 0 0.8 0.28 0 0.84 0.28 0 0.88 0.28 0 0.92 0.28 0 0.96 0.28 0 1 0.28 0 1.04 0.28 0 1.08 0.28 0 1.12 0.28 0 1.16 0.28 0 1.2 0.28 0 0 0.32 0 0.04 0.32 0 0.08 0.32 0 0.12 0.32 0 0.16 0.32 0 0.2 0.32 0 0.24 0.32 0 0.28 0.32 0 0.32 0.32 0 0.36 0.32 0 0.4 0.32 0 0.44 0.32 0 0.48 0.32 0 0.52 0.32 0 0.56 0.32 0 0.6 0.32 0 0.64 0.32 0 0.68 0.32 0 0.72 0.32 0 0.76 0.32 0 0.8 0.32 0 0.84 0.32 0 0.88 0.32 0 0.92 0.32 0 0.96 0.32 0 1 0.32 0 1.04 0.32 0 1.08 0.32 0 1.12 0.32 0 1.16 0.32 0 1.2 0.32 0 0 0.36 0 0.04 0.36 0 0.08 0.36 0 0.12 0.36 0 0.16 0.36 0 0.2 0.36 0 0.24 0.36 0 0.28 0.36 0 0.32 0.36 0 0.36 0.36 0 0.4 0.36 0 0.44 0.36 0 0.48 0.36 0 0.52 0.36 0 0.56 0.36 0 0.6 0.36 0 0.64 0.36 0 0.68 0.36 0 0.72 0.36 0 0.76 0.36 0 0.8 0.36 0 0.84 0.36 0 0.88 0.36 0 0.92 0.36 0 0.96 0.36 0 1 0.36 0 1.04 0.36 0 1.08 0.36 0 1.12 0.36 0 1.16 0.36 0 1.2 0.36 0 0 0.4 0 0.04 0.4 0 0.08 0.4 0 0.12 0.4 0 0.16 0.4 0 0.2 0.4 0 0.24 0.4 0 0.28 0.4 0 0.32 0.4 0 0.36 0.4 0 0.4 0.4 0 0.44 0.4 0 0.48 0.4 0 0.52 0.4 0 0.56 0.4 0 0.6 0.4 0 0.64 0.4 0 0.68 0.4 0 0.72 0.4 0 0.76 0.4 0 0.8 0.4 0 0.84 0.4 0 0.88 0.4 0 0.92 0.4 0 0.96 0.4 0 1 0.4 0 1.04 0.4 0 1.08 0.4 0 1.12 0.4 0 1.16 0.4 0 1.2 0.4 0 0 0.44 0 0.04 0.44 0 0.08 0.44 0 0.12 0.44 0 0.16 0.44 0 0.2 0.44 0 0.24 0.44 0 0.28 0.44 0 0.32 0.44 0 0.36 0.44 0 0.4 0.44 0 0.44 0.44 0 0.48 0.44 0 0.52 0.44 0 0.56 0.44 0 0.6 0.44 0 0.64 0.44 0 0.68 0.44 0 0.72 0.44 0 0.76 0.44 0 0.8 0.44 0 0.84 0.44 0 0.88 0.44 0 0.92 0.44 0 0.96 0.44 0 1 0.44 0 1.04 0.44 0 1.08 0.44 0 1.12 0.44 0 1.16 0.44 0 1.2 0.44 0 0 0.48 0 0.04 0.48 0 0.08 0.48 0 0.12 0.48 0 0.16 0.48 0 0.2 0.48 0 0.24 0.48 0 0.28 0.48 0 0.32 0.48 0 0.36 0.48 0 0.4 0.48 0 0.44 0.48 0 0.48 0.48 0 0.52 0.48 0 0.56 0.48 0 0.6 0.48 0 0.64 0.48 0 0.68 0.48 0 0.72 0.48 0 0.76 0.48 0 0.8 0.48 0 0.84 0.48 0 0.88 0.48 0 0.92 0.48 0 0.96 0.48 0 1 0.48 0 1.04 0.48 0 1.08 0.48 0 1.12 0.48 0 1.16 0.48 0 1.2 0.48 0 0 0.52 0 0.04 0.52 0 0.08 0.52 0 0.12 0.52 0 0.16 0.52 0 0.2 0.52 0 0.24 0.52 0 0.28 0.52 0 0.32 0.52 0 0.36 0.52 0 0.4 0.52 0 0.44 0.52 0 0.48 0.52 0 0.52 0.52 0 0.56 0.52 0 0.6 0.52 0 0.64 0.52 0 0.68 0.52 0 0.72 0.52 0 0.76 0.52 0 0.8 0.52 0 0.84 0.52 0 0.88 0.52 0 0.92 0.52 0 0.96 0.52 0 1 0.52 0 1.04 0.52 0 1.08 0.52 0 1.12 0.52 0 1.16 0.52 0 1.2 0.52 0 0 0.56 0 0.04 0.56 0 0.08 0.56 0 0.12 0.56 0 0.16 0.56 0 0.2 0.56 0 0.24 0.56 0 0.28 0.56 0 0.32 0.56 0 0.36 0.56 0 0.4 0.56 0 0.44 0.56 0 0.48 0.56 0 0.52 0.56 0 0.56 0.56 0 0.6 0.56 0 0.64 0.56 0 0.68 0.56 0 0.72 0.56 0 0.76 0.56 0 0.8 0.56 0 0.84 0.56 0 0.88 0.56 0 0.92 0.56 0 0.96 0.56 0 1 0.56 0 1.04 0.56 0 1.08 0.56 0 1.12 0.56 0 1.16 0.56 0 1.2 0.56 0 0 0.6 0 0.04 0.6 0 0.08 0.6 0 0.12 0.6 0 0.16 0.6 0 0.2 0.6 0 0.24 0.6 0 0.28 0.6 0 0.32 0.6 0 0.36 0.6 0 0.4 0.6 0 0.44 0.6 0 0.48 0.6 0 0.52 0.6 0 0.56 0.6 0 0.6 0.6 0 0.64 0.6 0 0.68 0.6 0 0.72 0.6 0 0.76 0.6 0 0.8 0.6 0 0.84 0.6 0 0.88 0.6 0 0.92 0.6 0 0.96 0.6 0 1 0.6 0 1.04 0.6 0 1.08 0.6 0 1.12 0.6 0 1.16 0.6 0 1.2 0.6 0 0 0.64 0 0.04 0.64 0 0.08 0.64 0 0.12 0.64 0 0.16 0.64 0 0.2 0.64 0 0.24 0.64 0 0.28 0.64 0 0.32 0.64 0 0.36 0.64 0 0.4 0.64 0 0.44 0.64 0 0.48 0.64 0 0.52 0.64 0 0.56 0.64 0 0.6 0.64 0 0.64 0.64 0 0.68 0.64 0 0.72 0.64 0 0.76 0.64 0 0.8 0.64 0 0.84 0.64 0 0.88 0.64 0 0.92 0.64 0 0.96 0.64 0 1 0.64 0 1.04 0.64 0 1.08 0.64 0 1.12 0.64 0 1.16 0.64 0 1.2 0.64 0 0 0.68 0 0.04 0.68 0 0.08 0.68 0 0.12 0.68 0 0.16 0.68 0 0.2 0.68 0 0.24 0.68 0 0.28 0.68 0 0.32 0.68 0 0.36 0.68 0 0.4 0.68 0 0.44 0.68 0 0.48 0.68 0 0.52 0.68 0 0.56 0.68 0 0.6 0.68 0 0.64 0.68 0 0.68 0.68 0 0.72 0.68 0 0.76 0.68 0 0.8 0.68 0 0.84 0.68 0 0.88 0.68 0 0.92 0.68 0 0.96 0.68 0 1 0.68 0 1.04 0.68 0 1.08 0.68 0 1.12 0.68 0 1.16 0.68 0 1.2 0.68 0 0 0.72 0 0.04 0.72 0 0.08 0.72 0 0.12 0.72 0 0.16 0.72 0 0.2 0.72 0 0.24 0.72 0 0.28 0.72 0 0.32 0.72 0 0.36 0.72 0 0.4 0.72 0 0.44 0.72 0 0.48 0.72 0 0.52 0.72 0 0.56 0.72 0 0.6 0.72 0 0.64 0.72 0 0.68 0.72 0 0.72 0.72 0 0.76 0.72 0 0.8 0.72 0 0.84 0.72 0 0.88 0.72 0 0.92 0.72 0 0.96 0.72 0 1 0.72 0 1.04 0.72 0 1.08 0.72 0 1.12 0.72 0 1.16 0.72 0 1.2 0.72 0 0 0.76 0 0.04 0.76 0 0.08 0.76 0 0.12 0.76 0 0.16 0.76 0 0.2 0.76 0 0.24 0.76 0 0.28 0.76 0 0.32 0.76 0 0.36 0.76 0 0.4 0.76 0 0.44 0.76 0 0.48 0.76 0 0.52 0.76 0 0.56 0.76 0 0.6 0.76 0 0.64 0.76 0 0.68 0.76 0 0.72 0.76 0 0.76 0.76 0 0.8 0.76 0 0.84 0.76 0 0.88 0.76 0 0.92 0.76 0 0.96 0.76 0 1 0.76 0 1.04 0.76 0 1.08 0.76 0 1.12 0.76 0 1.16 0.76 0 1.2 0.76 0 0 0.8 0 0.04 0.8 0 0.08 0.8 0 0.12 0.8 0 0.16 0.8 0 0.2 0.8 0 0.24 0.8 0 0.28 0.8 0 0.32 0.8 0 0.36 0.8 0 0.4 0.8 0 0.44 0.8 0 0.48 0.8 0 0.52 0.8 0 0.56 0.8 0 0.6 0.8 0 0.64 0.8 0 0.68 0.8 0 0.72 0.8 0 0.76 0.8 0 0.8 0.8 0 0.84 0.8 0 0.88 0.8 0 0.92 0.8 0 0.96 0.8 0 1 0.8 0 1.04 0.8 0 1.08 0.8 0 1.12 0.8 0 1.16 0.8 0 1.2 0.8 0 0 0.84 0 0.04 0.84 0 0.08 0.84 0 0.12 0.84 0 0.16 0.84 0 0.2 0.84 0 0.24 0.84 0 0.28 0.84 0 0.32 0.84 0 0.36 0.84 0 0.4 0.84 0 0.44 0.84 0 0.48 0.84 0 0.52 0.84 0 0.56 0.84 0 0.6 0.84 0 0.64 0.84 0 0.68 0.84 0 0.72 0.84 0 0.76 0.84 0 0.8 0.84 0 0.84 0.84 0 0.88 0.84 0 0.92 0.84 0 0.96 0.84 0 1 0.84 0 1.04 0.84 0 1.08 0.84 0 1.12 0.84 0 1.16 0.84 0 1.2 0.84 0 0 0.88 0 0.04 0.88 0 0.08 0.88 0 0.12 0.88 0 0.16 0.88 0 0.2 0.88 0 0.24 0.88 0 0.28 0.88 0 0.32 0.88 0 0.36 0.88 0 0.4 0.88 0 0.44 0.88 0 0.48 0.88 0 0.52 0.88 0 0.56 0.88 0 0.6 0.88 0 0.64 0.88 0 0.68 0.88 0 0.72 0.88 0 0.76 0.88 0 0.8 0.88 0 0.84 0.88 0 0.88 0.88 0 0.92 0.88 0 0.96 0.88 0 1 0.88 0 1.04 0.88 0 1.08 0.88 0 1.12 0.88 0 1.16 0.88 0 1.2 0.88 0 0 0.92 0 0.04 0.92 0 0.08 0.92 0 0.12 0.92 0 0.16 0.92 0 0.2 0.92 0 0.24 0.92 0 0.28 0.92 0 0.32 0.92 0 0.36 0.92 0 0.4 0.92 0 0.44 0.92 0 0.48 0.92 0 0.52 0.92 0 0.56 0.92 0 0.6 0.92 0 0.64 0.92 0 0.68 0.92 0 0.72 0.92 0 0.76 0.92 0 0.8 0.92 0 0.84 0.92 0 0.88 0.92 0 0.92 0.92 0 0.96 0.92 0 1 0.92 0 1.04 0.92 0 1.08 0.92 0 1.12 0.92 0 1.16 0.92 0 1.2 0.92 0 0 0.96 0 0.04 0.96 0 0.08 0.96 0 0.12 0.96 0 0.16 0.96 0 0.2 0.96 0 0.24 0.96 0 0.28 0.96 0 0.32 0.96 0 0.36 0.96 0 0.4 0.96 0 0.44 0.96 0 0.48 0.96 0 0.52 0.96 0 0.56 0.96 0 0.6 0.96 0 0.64 0.96 0 0.68 0.96 0 0.72 0.96 0 0.76 0.96 0 0.8 0.96 0 0.84 0.96 0 0.88 0.96 0 0.92 0.96 0 0.96 0.96 0 1 0.96 0 1.04 0.96 0 1.08 0.96 0 1.12 0.96 0 1.16 0.96 0 1.2 0.96 0 0 1 0 0.04 1 0 0.08 1 0 0.12 1 0 0.16 1 0 0.2 1 0 0.24 1 0 0.28 1 0 0.32 1 0 0.36 1 0 0.4 1 0 0.44 1 0 0.48 1 0 0.52 1 0 0.56 1 0 0.6 1 0 0.64 1 0 0.68 1 0 0.72 1 0 0.76 1 0 0.8 1 0 0.84 1 0 0.88 1 0 0.92 1 0 0.96 1 0 1 1 0 1.04 1 0 1.08 1 0 1.12 1 0 1.16 1 0 1.2 1 0 0 1.04 0 0.04 1.04 0 0.08 1.04 0 0.12 1.04 0 0.16 1.04 0 0.2 1.04 0 0.24 1.04 0 0.28 1.04 0 0.32 1.04 0 0.36 1.04 0 0.4 1.04 0 0.44 1.04 0 0.48 1.04 0 0.52 1.04 0 0.56 1.04 0 0.6 1.04 0 0.64 1.04 0 0.68 1.04 0 0.72 1.04 0 0.76 1.04 0 0.8 1.04 0 0.84 1.04 0 0.88 1.04 0 0.92 1.04 0 0.96 1.04 0 1 1.04 0 1.04 1.04 0 1.08 1.04 0 1.12 1.04 0 1.16 1.04 0 1.2 1.04 0 0 1.08 0 0.04 1.08 0 0.08 1.08 0 0.12 1.08 0 0.16 1.08 0 0.2 1.08 0 0.24 1.08 0 0.28 1.08 0 0.32 1.08 0 0.36 1.08 0 0.4 1.08 0 0.44 1.08 0 0.48 1.08 0 0.52 1.08 0 0.56 1.08 0 0.6 1.08 0 0.64 1.08 0 0.68 1.08 0 0.72 1.08 0 0.76 1.08 0 0.8 1.08 0 0.84 1.08 0 0.88 1.08 0 0.92 1.08 0 0.96 1.08 0 1 1.08 0 1.04 1.08 0 1.08 1.08 0 1.12 1.08 0 1.16 1.08 0 1.2 1.08 0 0 1.12 0 
[...]
			<PointData Scalars="VitesseX">
				<DataArray Name="VitesseX" type="Float32" format="ascii">
 0 -0.0263296 -0.146324 -0.115428 -0.0591132 0.0702934 0.213412 0.326823 0.438542 0.536726 0.626664 0.711115 0.790218 0.866826 0.942311 1.01787 1.09464 1.17365 1.25587 1.34134 1.43315 1.52855 1.63309 1.85001 1.91235 1.77697 1.36377 0.656548 0.0845783 0.000598337 0 0 0.199812 0.191165 0.189978 0.182252 0.238405 0.325479 0.413543 0.501524 0.585104 0.663203 0.738176 0.810093 0.881253 0.952305 1.02401 1.09772 1.17437 1.25475 1.33873 1.42973 1.52409 1.62936 1.84688 1.90303 1.76395 1.3461 0.638552 0.0792149 0.000525993 0 0 0.192474 0.289918 0.365654 0.392507 0.430008 0.454936 0.513742 0.566402 0.627921 0.691756 0.756502 0.822597 0.89078 0.959972 1.03066 1.10395 1.18045 1.26081 1.34444 1.43537 1.527 1.63479 1.85281 1.89156 1.73925 1.30239 0.587988 0.0648409 0.000355868 0 0 0.1391 0.249742 0.353362 0.400528 0.471829 0.490843 0.557491 0.602231 0.655859 0.712569 0.772346 0.834654 0.900045 0.967841 1.03828 1.11204 1.18889 1.26921 1.35217 1.44288 1.53128 1.64676 1.86284 1.87689 1.70138 1.23288 0.508645 0.0457131 0.000182898 0 0 0.0687575 0.175252 0.305759 0.379065 0.449556 0.490589 0.560877 0.617367 0.675761 0.731477 0.789431 0.848761 0.9112 0.977777 1.04812 1.1221 1.19893 1.27883 1.36133 1.45189 1.53758 1.66833 1.87235 1.85686 1.64564 1.13449 0.405344 0.0270259 6.99304e-05 0 0 0.0389335 0.129925 0.235185 0.333823 0.407521 0.481297 0.54782 0.61444 0.679396 0.742172 0.803476 0.863639 0.925232 0.991085 1.06099 1.13456 1.21098 1.29007 1.37269 1.46261 1.54688 1.70308 1.87544 1.82579 1.56707 1.00298 0.288281 0.0129312 1.93757e-05 0 0 0.0344883 0.119179 0.206483 0.304596 0.38073 0.462687 0.531015 0.60443 0.675286 0.744253 0.811768 0.876235 0.941317 1.00758 1.07702 1.14966 1.22555 1.30344 1.38712 1.4747 1.56114 1.75002 1.86545 1.77851 1.45831 0.834073 0.176418 0.00481196 3.78281e-06 0 0 0.040147 0.116657 0.205112 0.299811 0.379543 0.455698 0.525876 0.5998 0.673033 0.745612 0.816926 0.886415 0.956202 1.02487 1.09502 1.16684 1.24219 1.31883 1.40461 1.48698 1.58487 1.79431 1.84093 1.70717 1.30947 0.629007 0.0893595 0.00132567 5.17781e-07 0 0 0.0498524 0.122748 0.210308 0.299659 0.382853 0.457989 0.530498 0.603098 0.675863 0.749647 0.82299 0.896484 0.96851 1.04038 1.11107 1.18399 1.25856 1.33555 1.42193 1.49861 1.62698 1.81761 1.80048 1.59876 1.11089 0.405383 0.0346492 0.000252932 5.43078e-08 0 0 0.0567344 0.130798 0.216807 0.30546 0.389682 0.466462 0.540362 0.611999 0.684395 0.757604 0.831666 0.905942 0.979806 1.05294 1.12506 1.1994 1.27227 1.35369 1.43501 1.51411 1.69299 1.80777 1.73256 1.44174 0.856402 0.207675 0.00960546 3.07403e-05 5.36083e-09 0 0 0.062943 0.138159 0.222062 0.309222 0.395815 0.476419 0.551829 0.624041 0.695592 0.767983 0.841169 0.91489 0.98951 1.06264 1.13757 1.21048 1.28531 1.37046 1.44303 1.54733 1.74504 1.76583 1.62228 1.22139 0.556113 0.0804871 0.00179108 2.20729e-06 4.87057e-10 0 0 0.0677864 0.143843 0.225375 0.310706 0.397559 0.480235 0.557073 0.630658 0.70315 0.775127 0.847983 0.922131 0.995781 1.07076 1.1457 1.21833 1.30077 1.37865 1.45303 1.61741 1.74532 1.69272 1.4489 0.924172 0.274982 0.0213016 0.000204098 1.00679e-07 3.12286e-11 0 0 0.071089 0.147434 0.227488 0.310564 0.395785 0.478752 0.557132 0.632021 0.704988 0.777791 0.85138 0.925047 0.999658 1.07588 1.14927 1.22801 1.31115 1.38042 1.48932 1.6762 1.69646 1.56517 1.19394 0.563674 0.096992 0.00353538 1.22497e-05 4.47623e-09 1.44311e-12 0 0 0.0729003 0.149263 0.227737 0.308328 0.390577 0.472696 0.552388 0.628751 0.703223 0.777053 0.850716 0.92535 1.00152 1.07626 1.15378 1.23853 1.31054 1.39355 1.57124 1.66363 1.60248 1.35538 0.839977 0.244633 0.0219421 0.00033107 3.66135e-07 1.94177e-10 3.6782e-14 0 0 0.0734242 0.149448 0.226696 0.304567 0.38329 0.462773 0.5421 0.619999 0.696375 0.771626 0.847422 0.923983 0.99935 1.07731 1.16218 1.2376 1.31285 1.45959 1.60145 1.59152 1.43331 1.0378 0.434657 0.0706204 0.00283456 1.42505e-05 8.71265e-09 5.36892e-12 1.98752e-15 0 0 0.0732911 0.148704 0.224472 0.30017 0.376102 0.452711 0.53019 0.607964 0.685583 0.76361 0.841365 0.918485 0.998568 1.08329 1.16076 1.23573 1.36125 1.52365 1.55097 1.45145 1.15312 0.611368 0.147725 0.0117276 0.000179611 2.62323e-07 2.35776e-10 7.46968e-14 6.81719e-14 0 0 0.0727358 0.147014 0.221292 0.295321 0.369673 0.444986 0.5216 0.599247 0.677598 0.756171 0.83564 0.917959 1.00234 1.0806 1.1582 1.27693 1.43925 1.4913 1.42865 1.20115 0.739141 0.233838 0.0297572 0.000972925 4.26435e-06 4.13385e-09 4.02944e-12 -3.06713e-14 -2.8438e-19 0 0 0.0717954 0.144665 0.217532 0.290654 0.364543 0.439602 0.516057 0.593859 0.672954 0.753794 0.836839 0.919829 0.998453 1.08086 1.20275 1.3557 1.41796 1.37815 1.19784 0.805407 0.306669 0.0535697 0.00294704 3.07015e-05 4.41494e-08 6.80733e-11 -2.27675e-14 9.26646e-14 -3.39842e-14 0 0 0.0707729 0.142513 0.214591 0.287481 0.361488 0.436832 0.513753 0.592545 0.673297 0.755472 0.83655 0.916605 1.00723 1.13852 1.2735 1.33498 1.30661 1.15489 0.814494 0.348669 0.075024 0.00590612 0.000113209 3.05832e-07 5.57592e-10 7.52864e-13 -9.20388e-14 5.86748e-14 9.2217e-21 0 0 0.070139 0.141278 0.213323 0.286647 0.361265 0.437284 0.514977 0.594265 0.674366 0.754711 0.83972 0.943939 1.0796 1.18882 1.24322 1.21681 1.07945 0.774468 0.352412 0.086339 0.00862065 0.000248906 1.18868e-06 2.44656e-09 4.78319e-12 9.07193e-15 3.39838e-14 -6.79681e-14 3.39837e-14 0 0 0.0700987 0.141257 0.213817 0.28796 0.363381 0.439861 0.517448 0.596858 0.680964 0.777255 0.895625 1.01205 1.09892 1.14018 1.10881 0.974615 0.69247 0.319638 0.0838888 0.00963119 0.000359706 2.60209e-06 6.48352e-09 1.88541e-11 4.22145e-14 -6.79675e-14 6.79676e-14 -3.39839e-14 3.39838e-14 0 0 0.0701578 0.141754 0.215524 0.29116 0.368414 0.448148 0.532893 0.627208 0.733282 0.837897 0.928908 1.00017 1.02233 0.980125 0.840721 0.575126 0.258909 0.0690719 0.00838158 0.000358112 3.35397e-06 1.06161e-08 4.20167e-11 1.11991e-13 2.07596e-16 -1.44582e-20 3.39838e-14 -3.39838e-14 3.39839e-14 0 0 0.0722631 0.147469 0.226366 0.30897 0.395966 0.486727 0.579428 0.670481 0.755842 0.832832 0.881257 0.88478 0.8269 0.678002 0.432729 0.184329 0.0472463 0.00561626 0.000245928 2.59362e-06 1.05904e-08 5.46941e-11 1.82848e-13 1.88989e-17 3.99564e-19 3.39838e-14 -3.39842e-14 -3.39837e-14 6.79681e-14 0 0 0.0815806 0.165044 0.249415 0.33413 0.418249 0.501318 0.58256 0.656347 0.712162 0.738387 0.722043 0.645112 0.491274 0.283132 0.111124 0.0255741 0.00277136 0.000111357 1.18046e-06 6.43677e-09 4.18751e-11 1.81677e-13 6.19561e-16 -2.4471e-19 1.61444e-17 -1.62475e-17 1.21464e-16 -1.21453e-16 -5.87047e-14 0 0 0.0847252 0.168223 0.249842 0.329233 0.404256 0.472212 0.528259 0.562852 0.567355 0.530568 0.439776 0.299927 0.15216 0.0524632 0.0100437 0.000916672 3.01568e-05 3.02023e-07 2.41841e-09 1.86443e-11 1.12326e-13 1.96041e-17 -4.59769e-19 1.46402e-20 1.63446e-17 -1.63804e-17 -5.85419e-14 9.25259e-14 -9.26887e-14 0 0 0.0794828 0.154547 0.223711 0.285373 0.336675 0.372764 0.386532 0.371518 0.321026 0.238177 0.140786 0.0612918 0.0167337 0.00248148 0.00017112 4.18249e-06 4.31697e-08 5.4938e-10 4.78472e-12 4.17798e-14 -6.77609e-14 6.79681e-14 -6.79523e-14 6.79524e-14 1.75456e-20 -1.17547e-19 -1.85337e-13 1.85337e-13 2.27521e-19 0 0 0.0606942 0.113655 0.157028 0.188503 0.204538 0.201902 0.179415 0.139331 0.0898092 0.0441844 0.0145397 0.00285751 0.000301328 1.37223e-05 2.54539e-07 4.00626e-09 6.67805e-11 6.67973e-13 9.07214e-15 8.86378e-21 -1.44614e-20 3.39838e-14 -6.79523e-14 6.79523e-14 -3.11384e-20 -9.26509e-14 2.05183e-16 -2.05314e-16 9.2651e-14 0 0 0.0281321 0.0501229 0.0640484 0.0689165 0.064626 0.0523276 0.0348187 0.0175389 0.00609082 0.00136453 0.000178006 1.14925e-05 3.49208e-07 8.25741e-09 2.28087e-10 3.89681e-12 -2.3956e-14 9.32797e-14 -3.39838e-14 3.18234e-20 3.39837e-14 -3.39842e-14 1.21443e-16 -5.87849e-14 -4.19555e-17 2.82768e-16 6.85424e-17 -6.86743e-17 -1.75333e-16 0 0 0.00497185 0.00832024 0.00919632 0.00775007 0.00499268 0.00239637 0.000823395 0.00018849 2.60625e-05 2.00288e-06 9.20354e-08 4.1001e-09 1.83752e-10 5.09221e-12 1.36428e-13 3.72857e-14 -9.26536e-14 5.86748e-14 4.71351e-19 3.39838e-14 -3.39838e-14 -3.39847e-14 6.80899e-14 -9.27693e-14 -4.17383e-17 2.82636e-16 6.86743e-17 -6.88062e-17 -1.75201e-16 0 0 6.34113e-05 8.64874e-05 6.74083e-05 3.46316e-05 1.19828e-05 2.74436e-06 4.12202e-07 4.4306e-08 4.44491e-09 4.27435e-10 2.84227e-11 1.37115e-12 3.35084e-14 1.58009e-15 2.0397e-16 -2.86679e-19 3.39844e-14 -6.79687e-14 3.39848e-14 3.39837e-14 -3.39836e-14 -5.95685e-19 -5.87047e-14 9.26887e-14 2.93254e-19 -9.26511e-14 3.12681e-16 -3.12813e-16 9.26512e-14 0 0 0 0 0 0 0 0 0 0 0 0 0 0 0 0 0 0 0 0 0 0 0 0 0 0 0 0 0 0 0 0
				</DataArray>
				<DataArray Name="VitesseY" type="Float32" format="ascii">
 0 0 0 0 0 0 0 0 0 0 0 0 0 0 0 0 0 0 0 0 0 0 0 0 0 0 0 0 0 0 0 -0.0262632 0.199815 0.19246 0.13908 0.0687427 0.0389247 0.0344823 0.0401417 0.049848 0.0567317 0.0629421 0.0677875 0.0710917 0.0729038 0.0734279 0.0732949 0.0727392 0.0717981 0.0707743 0.0701391 0.0700982 0.0701565 0.0722616 0.0815788 0.0847229 0.0794802 0.0606914 0.0281304 0.0049715 6.34042e-05 0 -0.146261 0.191197 0.28992 0.249736 0.175241 0.12992 0.119177 0.116654 0.122745 0.130795 0.138158 0.143844 0.147437 0.149268 0.149453 0.148709 0.14702 0.144669 0.142514 0.141278 0.141255 0.141752 0.147468 0.165042 0.16822 0.154542 0.11365 0.0501201 0.00831969 8.6478e-05 0 -0.115388 0.190001 0.365643 0.35335 0.305747 0.235177 0.206479 0.205109 0.210305 0.216805 0.222061 0.225376 0.227492 0.227743 0.226703 0.224479 0.221298 0.217536 0.214592 0.213323 0.213815 0.215521 0.226363 0.24941 0.249836 0.223705 0.157021 0.0640454 0.00919581 6.7402e-05 0 -0.0590868 0.182273 0.392507 0.400521 0.379055 0.333816 0.304593 0.29981 0.299656 0.305457 0.309222 0.310709 0.31057 0.308336 0.304576 0.300177 0.295326 0.290658 0.287482 0.286646 0.287958 0.291157 0.308967 0.334125 0.329226 0.285366 0.188496 0.0689139 0.00774975 3.46292e-05 0 0.0703046 0.238412 0.430001 0.471826 0.449556 0.407522 0.380728 0.379537 0.382847 0.389677 0.395816 0.397564 0.395794 0.390589 0.383301 0.376109 0.369678 0.364546 0.361488 0.361264 0.363379 0.368412 0.395963 0.418243 0.40425 0.336667 0.204533 0.0646245 0.00499258 1.19823e-05 0 0.213418 0.325487 0.454938 0.490844 0.490588 0.481296 0.462685 0.455694 0.457985 0.466458 0.476419 0.480239 0.47876 0.472709 0.462786 0.452719 0.444991 0.439604 0.436831 0.437283 0.439859 0.448145 0.486724 0.501313 0.472206 0.372757 0.201898 0.0523272 0.00239638 2.74433e-06 0 0.32682 0.413548 0.513746 0.557487 0.560876 0.547821 0.531017 0.525874 0.530496 0.54036 0.551829 0.557076 0.557139 0.552397 0.542111 0.530197 0.521603 0.516058 0.513753 0.514976 0.517447 0.532891 0.579424 0.582555 0.528254 0.386528 0.179414 0.0348191 0.00082342 4.12213e-07 0 0.438532 0.501527 0.56641 0.602228 0.617364 0.614439 0.604432 0.599802 0.6031 0.612001 0.624043 0.630661 0.632026 0.628757 0.620005 0.607968 0.59925 0.59386 0.592545 0.594265 0.596858 0.627205 0.670477 0.656343 0.562849 0.371518 0.139332 0.0175396 0.000188502 4.43088e-08 0 0.53671 0.585105 0.62793 0.655858 0.675754 0.679396 0.67529 0.673039 0.675869 0.6844 0.695596 0.703153 0.704991 0.703226 0.696378 0.685585 0.677599 0.672955 0.673297 0.674367 0.680963 0.733278 0.755839 0.712161 0.567355 0.321029 0.0898118 0.00609121 2.60652e-05 4.44529e-09 0 0.626645 0.663205 0.691763 0.71257 0.731469 0.74217 0.744258 0.74562 0.749656 0.757612 0.767988 0.77513 0.777793 0.777055 0.771626 0.763609 0.756171 0.753794 0.755472 0.754711 0.777253 0.837896 0.832832 0.738389 0.530573 0.238182 0.0441866 0.00136466 2.00317e-06 4.27483e-10 0 0.711095 0.738177 0.756507 0.772348 0.789427 0.803472 0.811772 0.816935 0.823 0.831675 0.841174 0.847985 0.851382 0.850717 0.847421 0.841363 0.83564 0.836838 0.83655 0.83972 0.895623 0.928908 0.88126 0.722049 0.439784 0.140792 0.0145408 0.000178029 9.20511e-08 2.84268e-11 0 0.790201 0.810095 0.822601 0.834657 0.84876 0.863636 0.876238 0.886422 0.896493 0.90595 0.914894 0.922133 0.925047 0.92535 0.923982 0.918483 0.917957 0.919829 0.916605 0.943937 1.01205 1.00017 0.884786 0.645121 0.299936 0.0612952 0.0028578 1.14945e-05 4.10077e-09 1.37145e-12 0 0.866814 0.881256 0.890784 0.900048 0.911201 0.925231 0.941318 0.956206 0.968516 0.979812 0.989514 0.995783 0.999658 1.00152 0.999349 0.998566 1.00234 0.998452 1.00722 1.0796 1.09892 1.02234 0.82691 0.491285 0.152166 0.016735 0.000301368 3.49278e-07 1.83785e-10 3.35389e-14 0 0.942303 0.952308 0.959977 0.967845 0.97778 0.991086 1.00758 1.02487 1.04038 1.05294 1.06264 1.07076 1.07588 1.07626 1.0773 1.08329 1.0806 1.08085 1.13852 1.18882 1.14019 0.980133 0.678013 0.283142 0.0524661 0.00248172 1.37246e-05 8.2589e-09 5.09337e-12 1.58015e-15 0 1.01786 1.02401 1.03066 1.03829 1.04812 1.06099 1.07702 1.09501 1.11107 1.12506 1.13757 1.1457 1.14927 1.15378 1.16218 1.16076 1.1582 1.20275 1.2735 1.24323 1.10882 0.84073 0.432738 0.111128 0.0100444 0.000171141 2.54586e-07 2.28128e-10 1.36458e-13 2.0397e-16 0 1.09464 1.09773 1.10396 1.11204 1.1221 1.13456 1.14966 1.16684 1.18399 1.1994 1.21048 1.21833 1.22801 1.23853 1.2376 1.23573 1.27693 1.3557 1.33499 1.21682 0.974623 0.575137 0.184335 0.0255754 0.000916753 4.18312e-06 4.00688e-09 3.8975e-12 3.72856e-14 -2.86675e-19 0 1.17365 1.17438 1.18045 1.18889 1.19893 1.21098 1.22555 1.24219 1.25856 1.27226 1.28531 1.30077 1.31115 1.31054 1.31285 1.36125 1.43925 1.41796 1.30661 1.07946 0.692478 0.258915 0.047248 0.00277154 3.016e-05 4.31758e-08 6.6791e-11 -2.3997e-14 -9.26536e-14 3.39844e-14 0 1.25588 1.25475 1.26082 1.26921 1.27883 1.29007 1.30344 1.31883 1.33555 1.35369 1.37046 1.37865 1.38042 1.39356 1.45959 1.52365 1.4913 1.37815 1.1549 0.774473 0.319641 0.0690734 0.00561648 0.000111365 3.02058e-07 5.49444e-10 6.67994e-13 9.32794e-14 5.86748e-14 -6.79687e-14 0 1.34135 1.33874 1.34444 1.35218 1.36133 1.37269 1.38712 1.4046 1.42193 1.43501 1.44303 1.45302 1.48933 1.57124 1.60145 1.55097 1.42865 1.19784 0.814495 0.352413 0.0838895 0.00838173 0.000245939 1.18055e-06 2.41863e-09 4.78528e-12 9.07187e-15 -3.39838e-14 4.71345e-19 3.39848e-14 0 1.43316 1.42974 1.43537 1.44288 1.45189 1.46261 1.47469 1.48697 1.4986 1.51411 1.54733 1.61741 1.6762 1.66363 1.59152 1.45145 1.20115 0.805405 0.348667 0.0863387 0.0096312 0.000358117 2.59371e-06 6.43712e-09 1.86458e-11 4.18003e-14 8.86196e-21 3.18195e-20 3.39838e-14 3.39837e-14 0 1.52856 1.5241 1.52701 1.53128 1.53758 1.54688 1.56114 1.58487 1.62698 1.69299 1.74504 1.74532 1.69646 1.60248 1.43331 1.15312 0.739133 0.306664 0.0750227 0.00862051 0.000359701 3.35397e-06 1.05906e-08 4.18765e-11 1.12367e-13 -6.77609e-14 -1.4465e-20 3.39837e-14 -3.39838e-14 -3.39836e-14 0 1.6331 1.62937 1.63479 1.64676 1.66834 1.70308 1.75002 1.79431 1.81761 1.80777 1.76582 1.69271 1.56516 1.35537 1.03778 0.611357 0.233831 0.0535679 0.0059059 0.000248895 2.602e-06 1.06159e-08 5.46941e-11 1.81647e-13 1.96041e-17 6.79681e-14 3.39838e-14 -3.39842e-14 -3.39847e-14 -5.95683e-19 0 1.85002 1.84688 1.85281 1.86284 1.87235 1.87544 1.86545 1.84093 1.80047 1.73255 1.62227 1.44889 1.19392 0.839961 0.434645 0.147719 0.0297557 0.00294685 0.000113201 1.18859e-06 6.48318e-09 4.20154e-11 1.82878e-13 6.19561e-16 -4.5976e-19 -6.79523e-14 -6.79523e-14 1.21443e-16 6.80899e-14 -5.87047e-14 0 1.91235 1.90303 1.89156 1.87689 1.85686 1.82579 1.77851 1.70717 1.59875 1.44173 1.22137 0.924154 0.563657 0.244621 0.0706164 0.0117267 0.000972839 3.06982e-05 3.05797e-07 2.44635e-09 1.88526e-11 1.1195e-13 1.88989e-17 -2.4471e-19 1.46341e-20 6.79524e-14 6.79523e-14 -5.87849e-14 -9.27693e-14 9.26887e-14 0 1.77698 1.76395 1.73926 1.70138 1.64564 1.56706 1.4583 1.30946 1.11087 0.856385 0.556096 0.274969 0.096986 0.0219403 0.00283428 0.000179589 4.26371e-06 4.41431e-08 5.57527e-10 4.78258e-12 4.21939e-14 2.07596e-16 3.9957e-19 1.61444e-17 1.63446e-17 1.75566e-20 -3.11397e-20 -4.19555e-17 -4.17383e-17 2.93241e-19 0 1.36378 1.34611 1.3024 1.23289 1.13449 1.00297 0.834066 0.628997 0.405371 0.207666 0.0804821 0.0212997 0.00353499 0.000331025 1.42481e-05 2.62275e-07 4.13321e-09 6.80627e-11 7.52844e-13 9.07219e-15 -6.79675e-14 -1.44489e-20 3.39838e-14 -1.62475e-17 -1.63804e-17 -1.17553e-19 -9.26509e-14 2.82768e-16 2.82636e-16 -9.26511e-14 0 0.65656 0.638563 0.587996 0.50865 0.405346 0.28828 0.176415 0.0893565 0.0346474 0.00960472 0.0017909 0.00020407 1.22475e-05 3.66062e-07 8.71108e-09 2.35734e-10 4.02883e-12 -2.27258e-14 -9.20384e-14 3.39838e-14 6.79676e-14 3.39838e-14 -3.39842e-14 1.21464e-16 -5.85419e-14 -1.85337e-13 2.05183e-16 6.85424e-17 6.86743e-17 3.12681e-16 0 0.0845821 0.0792183 0.0648434 0.0457144 0.0270264 0.0129312 0.00481186 0.00132561 0.000252913 3.07369e-05 2.20696e-06 1.00662e-07 4.47549e-09 1.94142e-10 5.3677e-12 7.46666e-14 -3.06712e-14 9.26646e-14 5.86748e-14 -6.79681e-14 -3.39839e-14 -3.39838e-14 -3.39837e-14 -1.21453e-16 9.25259e-14 1.85337e-13 -2.05314e-16 -6.86742e-17 -6.88062e-17 -3.12813e-16 0 0.000598397 0.000526044 0.000355899 0.000182911 6.99342e-05 1.93763e-05 3.7828e-06 5.17763e-07 5.43042e-08 5.36035e-09 4.87001e-10 3.12238e-11 1.44275e-12 3.67513e-14 1.98745e-15 6.81719e-14 -2.84389e-19 -3.39842e-14 9.21553e-21 3.39837e-14 3.39838e-14 3.39839e-14 6.79681e-14 -5.87047e-14 -9.26887e-14 2.27522e-19 9.2651e-14 -1.75333e-16 -1.75201e-16 9.26512e-14 0 5.29673e-06 2.15748e-13 0 0 0 0 0 0 0 0 0 0 0 0 0 0 0 0 0 0 0 0 0 0 0 0 0 0 0 0 0
				</DataArray>
			</PointData>
			<CellData Scalars="Density">
				<DataArray Name="Density" type="Float32" format="ascii">