<?xml version="1.0"?>
<VTKFile type="PolyData">
	<PolyData>
		<Piece NumberOfPoints="961" NumberOfPolys="900">
			<Points>
				<DataArray type="Float32" NumberOfComponents="3" format="ascii">
 0 0 0 0.04 0 0 0.08 0 0 0.12 0 0 0.16 0 0 0.2 0 0 0.24 0 0 0.28 0 0 0.32 0 0 0.36 0 0 0.4 0 0 0.44 0 0 0.48 0 0 0.52 0 0 0.56 0 0 0.6 0 0 0.64 0 0 0.68 0 0 0.72 0 0 0.76 0 0 0.8 0 0 0.84 0 0 0.88 0 0 0.92 0 0 0.96 0 0 1 0 0 1.04 0 0 1.08 0 0 1.12 0 0 1.16 0 0 1.2 0 0 0 0.04 0 0.04 0.04 0 0.08 0.04 0 0.12 0.04 0 0.16 0.04 0 0.2 0.04 0 0.24 0.04 0 0.28 0.04 0 0.32 0.04 0 0.36 0.04 0 0.4 0.04 0 0.44 0.04 0 0.48 0.04 0 0.52 0.04 0 0.56 0.04 0 0.6 0.04 0 0.64 0.04 0 0.68 0.04 0 0.72 0.04 0 0.76 0.04 0 0.8 0.04 0 0.84 0.04 0 0.88 0.04 0 0.92 0.04 0 0.96 0.04 0 1 0.04 0 1.04 0.04 0 1.08 0.04 0 1.12 0.04 0 1.16 0.04 0 1.2 0.04 0 0 0.08 0 0.04 0.08 0 0.08 0.08 0 0.12 0.08 0 0.16 0.08 0 0.2 0.08 0 0.24 0.08 0 0.28 0.08 0 0.32 0.08 0 0.36 0.08 0 0.4 0.08 0 0.44 0.08 0 0.48 0.08 0 0.52 0.08 0 0.56 0.08 0 0.6 0.08 0 0.64 0.08 0 0.68 0.08 0 0.72 0.08 0 0.76 0.08 0 0.8 0.08 0 0.84 0.08 0 0.88 0.08 0 0.92 0.08 0 0.96 0.08 0 1 0.08 0 1.04 0.08 0 1.08 0.08 0 1.12 0.08 0 1.16 0.08 0 1.2 0.08 0 0 0.12 0 0.04 0.12 0 0.08 0.12 0 0.12 0.12 0 0.16 0.12 0 0.2 0.12 0 0.24 0.12 0 0.28 0.12 0 0.32 0.12 0 0.36 0.12 0 0.4 0.12 0 0.44 0.12 0 0.48 0.12 0 0.52 0.12 0 0.56 0.12 0 0.6 0.12 0 0.64 0.12 0 0.68 0.12 0 0.72 0.12 0 0.76 0.12 0 0.8 0.12 0 0.84 0.12 0 0.88 0.12 0 0.92 0.12 0 0.96 0.12 0 1 0.12 0 1.04 0.12 0 1.08 0.12 0 1.12 0.12 0 1.16 0.12 0 1.2 0.12 0 0 0.16 0 0.04 0.16 0 0.08 0.16 0 0.12 0.16 0 0.16 0.16 0 0.2 0.16 0 0.24 0.16 0 0.28 0.16 0 0.32 0.16 0 0.36 0.16 0 0.4 0.16 0 0.44 0.16 0 0.48 0.16 0 0.52 0.16 0 0.56 0.16 0 0.6 0.16 0 0.64 0.16 0 0.68 0.16 0 0.72 0.16 0 0.76 0.16 0 0.8 0.16 0 0.84 0.16 0 0.88 0.16 0 0.92 0.16 0 0.96 0.16 0 1 0.16 0 1.04 0.16 0 1.08 0.16 0 1.12 0.16 0 1.16 0.16 0 1.2 0.16 0 0 0.2 0 0.04 0.2 0 0.08 0.2 0 0.12 0.2 0 0.16 0.2 0 0.2 0.2 0 0.24 0.2 0 0.28 0.2 0 0.32 0.2 0 0.36 0.2 0 0.4 0.2 0 0.44 0.2 0 0.48 0.2 0 0.52 0.2 0 0.56 0.2 0 0.6 0.2 0 0.64 0.2 0 0.68 0.2 0 0.72 0.2 0 0.76 0.2 0 0.8 0.2 0 0.84 0.2 0 0.88 0.2 0 0.92 0.2 0 0.96 0.2 0 1 0.2 0 1.04 0.2 0 1.08 0.2 0 1.12 0.2 0 1.16 0.2 0 1.2 0.2 0 0 0.24 0 0.04 0.24 0 0.08 0.24 0 0.12 0.24 0 0.16 0.24 0 0.2 0.24 0 0.24 0.24 0 0.28 0.24 0 0.32 0.24 0 0.36 0.24 0 0.4 0.24 0 0.44 0.24 0 0.48 0.24 0 0.52 0.24 0 0.56 0.24 0 0.6 0.24 0 0.64 0.24 0 0.68 0.24 0 0.72 0.24 0 0.76 0.24 0 0.8 0.24 0 0.84 0.24 0 0.88 0.24 0 0.92 0.24 0 0.96 0.24 0 1 0.24 0 1.04 0.24 0 1.08 0.24 0 1.12 0.24 0 1.16 0.24 0 1.2 0.24 0 0 0.28 0 0.04 0.28 0 0.08 0.28 0 0.12 0.28 0 0.16 0.28 0 0.2 0.28 0 0.24 0.28 0 0.28 0.28 0 0.32 0.28 0 0.36 0.28 0 0.4 0.28 0 0.44 0.28 0 0.48 0.28 0 0.52 0.28 0 0.56 0.28 0 0.6 0.28 0 0.64 0.28 0 0.68 0.28 0 0.72 0.28 0 0.76 0.28 0 0.8 0.28 0 0.84 0.28 0 0.88 0.28 0 0.92 0.28 0 0.96 0.28 0 1 0.28 0 1.04 0.28 0 1.08 0.28 0 1.12 0.28 0 1.16 0.28 0 1.2 0.28 0 0 0.32 0 0.04 0.32 0 0.08 0.32 0 0.12 0.32 0 0.16 0.32 0 0.2 0.32 0 0.24 0.32 0 0.28 0.32 0 0.32 0.32 0 0.36 0.32 0 0.4 0.32 0 0.44 0.32 0 0.48 0.32 0 0.52 0.32 0 0.56 0.32 0 0.6 0.32 0 0.64 0.32 0 0.68 0.32 0 0.72 0.32 0 0.76 0.32 0 0.8 0.32 0 0.84 0.32 0 0.88 0.32 0 0.92 0.32 0 0.96 0.32 0 1 0.32 0 1.04 0.32 0 1.08 0.32 0 1.12 0.32 0 1.16 0.32 0 1.2 0.32 0 0 0.36 0 0.04 0.36 0 0.08 0.36 0 0.12 0.36 0 0.16 0.36 0 0.2 0.36 0 0.24 0.36 0 0.28 0.36 0 0.32 0.36 0 0.36 0.36 0 0.4 0.36 0 0.44 0.36 0 0.48 0.36 0 0.52 0.36 0 0.56 0.36 0 0.6 0.36 0 0.64 0.36 0 0.68 0.36 0 0.72 0.36 0 0.76 0.36 0 0.8 0.36 0 0.84 0.36 0 0.88 0.36 0 0.92 0.36 0 0.96 0.36 0 1 0.36 0 1.04 0.36 0 1.08 0.36 0 1.12 0.36 0 1.16 0.36 0 1.2 0.36 0 0 0.4 0 0.04 0.4 0 0.08 0.4 0 0.12 0.4 0 0.16 0.4 0 0.2 0.4 0 0.24 0.4 0 0.28 0.4 0 0.32 0.4 0 0.36 0.4 0 0.4 0.4 0 0.44 0.4 0 0.48 0.4 0 0.52 0.4 0 0.56 0.4 0 0.6 0.4 0 0.64 0.4 0 0.68 0.4 0 0.72 0.4 0 0.76 0.4 0 0.8 0.4 0 0.84 0.4 0 0.88 0.4 0 0.92 0.4 0 0.96 0.4 0 1 0.4 0 1.04 0.4 0 1.08 0.4 0 1.12 0.4 0 1.16 0.4 0 1.2 0.4 0 0 0.44 0 0.04 0.44 0 0.08 0.44 0 0.12 0.44 0 0.16 0.44 0 0.2 0.44 0 0.24 0.44 0 0.28 0.44 0 0.32 0.44 0 0.36 0.44 0 0.4 0.44 0 0.44 0.44 0 0.48 0.44 0 0.52 0.44 0 0.56 0.44 0 0.6 0.44 0 0.64 0.44 0 0.68 0.44 0 0.72 0.44 0 0.76 0.44 0 0.8 0.44 0 0.84 0.44 0 0.88 0.44 0 0.92 0.44 0 0.96 0.44 0 1 0.44 0 1.04 0.44 0 1.08 0.44 0 1.12 0.44 0 1.16 0.44 0 1.2 0.44 0 0 0.48 0 0.04 0.48 0 0.08 0.48 0 0.12 0.48 0 0.16 0.48 0 0.2 0.48 0 0.24 0.48 0 0.28 0.48 0 0.32 0.48 0 0.36 0.48 0 0.4 0.48 0 0.44 0.48 0 0.48 0.48 0 0.52 0.48 0 0.56 0.48 0 0.6 0.48 0 0.64 0.48 0 0.68 0.48 0 0.72 0.48 0 0.76 0.48 0 0.8 0.48 0 0.84 0.48 0 0.88 0.48 0 0.92 0.48 0 0.96 0.48 0 1 0.48 0 1.04 0.48 0 1.08 0.48 0 1.12 0.48 0 1.16 0.48 0 1.2 0.48 0 0 0.52 0 0.04 0.52 0 0.08 0.52 0 0.12 0.52 0 0.16 0.52 0 0.2 0.52 0 0.24 0.52 0 0.28 0.52 0 0.32 0.52 0 0.36 0.52 0 0.4 0.52 0 0.44 0.52 0 0.48 0.52 0 0.52 0.52 0 0.56 0.52 0 0.6 0.52 0 0.64 0.52 0 0.68 0.52 0 0.72 0.52 0 0.76 0.52 0 0.8 0.52 0 0.84 0.52 0 0.88 0.52 0 0.92 0.52 0 0.96 0.52 0 1 0.52 0 1.04 0.52 0 1.08 0.52 0 1.12 0.52 0 1.16 0.52 0 1.2 0.52 0 0 0.56 0 0.04 0.56 0 0.08 0.56 0 0.12 0.56 0 0.16 0.56 0 0.2 0.56 0 0.24 0.56 0 0.28 0.56 0 0.32 0.56 0 0.36 0.56 0 0.4 0.56 0 0.44 0.56 0 0.48 0.56 0 0.52 0.56 0 0.56 0.56 0 0.6 0.56 0 0.64 0.56 0 0.68 0.56 0 0.72 0.56 0 0.76 0.56 0 0.8 0.56 0 0.84 0.56 0 0.88 0.56 0 0.92 0.56 0 0.96 0.56 0 1 0.56 0 1.04 0.56 0 1.08 0.56 0 1.12 0.56 0 1.16 0.56 0 1.2 0.56 0 0 0.6 0 0.04 0.6 0 0.08 0.6 0 0.12 0.6 0 0.16 0.6 0 0.2 0.6 0 0.24 0.6 0 0.28 0.6 0 0.32 0.6 0 0.36 0.6 0 0.4 0.6 0 0.44 0.6 0 0.48 0.6 0 0.52 0.6 0 0.56 0.6 0 0.6 0.6 0 0.64 0.6 0 0.68 0.6 0 0.72 0.6 0 0.76 0.6 0 0.8 0.6 0 0.84 0.6 0 0.88 0.6 0 0.92 0.6 0 0.96 0.6 0 1 0.6 0 1.04 0.6 0 1.08 0.6 0 1.12 0.6 0 1.16 0.6 0 1.2 0.6 0 0 0.64 0 0.04 0.64 0 0.08 0.64 0 0.12 0.64 0 0.16 0.64 0 0.2 0.64 0 0.24 0.64 0 0.28 0.64 0 0.32 0.64 0 0.36 0.64 0 0.4 0.64 0 0.44 0.64 0 0.48 0.64 0 0.52 0.64 0 0.56 0.64 0 0.6 0.64 0 0.64 0.64 0 0.68 0.64 0 0.72 0.64 0 0.76 0.64 0 0.8 0.64 0 0.84 0.64 0 0.88 0.64 0 0.92 0.64 0 0.96 0.64 0 1 0.64 0 1.04 0.64 0 1.08 0.64 0 1.12 0.64 0 1.16 0.64 0 1.2 0.64 0 0 0.68 0 0.04 0.68 0 0.08 0.68 0 0.12 0.68 0 0.16 0.68 0 0.2 0.68 0 0.24 0.68 0 0.28 0.68 0 0.32 0.68 0 0.36 0.68 0 0.4 0.68 0 0.44 0.68 0 0.48 0.68 0 0.52 0.68 0 0.56 0.68 0 0.6 0.68 0 0.64 0.68 0 0.68 0.68 0 0.72 0.68 0 0.76 0.68 0 0.8 0.68 0 0.84 0.68 0 0.88 0.68 0 0.92 0.68 0 0.96 0.68 0 1 0.68 0 1.04 0.68 0 1.08 0.68 0 1.12 0.68 0 1.16 0.68 0 1.2 0.68 0 0 0.72 0 0.04 0.72 0 0.08 0.72 0 0.12 0.72 0 0.16 0.72 0 0.2 0.72 0 0.24 0.72 0 0.28 0.72 0 0.32 0.72 0 0.36 0.72 0 0.4 0.72 0 0.44 0.72 0 0.48 0.72 0 0.52 0.72 0 0.56 0.72 0 0.6 0.72 0 0.64 0.72 0 0.68 0.72 0 0.72 0.72 0 0.76 0.72 0 0.8 0.72 0 0.84 0.72 0 0.88 0.72 0 0.92 0.72 0 0.96 0.72 0 1 0.72 0 1.04 0.72 0 1.08 0.72 0 1.12 0.72 0 1.16 0.72 0 1.2 0.72 0 0 0.76 0 0.04 0.76 0 0.08 0.76 0 0.12 0.76 0 0.16 0.76 0 0.2 0.76 0 0.24 0.76 0 0.28 0.76 0 0.32 0.76 0 0.36 0.76 0 0.4 0.76 0 0.44 0.76 0 0.48 0.76 0 0.52 0.76 0 0.56 0.76 0 0.6 0.76 0 0.64 0.76 0 0.68 0.76 0 0.72 0.76 0 0.76 0.76 0 0.8 0.76 0 0.84 0.76 0 0.88 0.76 0 0.92 0.76 0 0.96 0.76 0 1 0.76 0 1.04 0.76 0 1.08 0.76 0 1.12 0.76 0 1.16 0.76 0 1.2 0.76 0 0 0.8 0 0.04 0.8 0 0.08 0.8 0 0.12 0.8 0 0.16 0.8 0 0.2 0.8 0 0.24 0.8 0 0.28 0.8 0 0.32 0.8 0 0.36 0.8 0 0.4 0.8 0 0.44 0.8 0 0.48 0.8 0 0.52 0.8 0 0.56 0.8 0 0.6 0.8 0 0.64 0.8 0 0.68 0.8 0 0.72 0.8 0 0.76 0.8 0 0.8 0.8 0 0.84 0.8 0 0.88 0.8 0 0.92 0.8 0 0.96 0.8 0 1 0.8 0 1.04 0.8 0 1.08 0.8 0 1.12 0.8 0 1.16 0.8 0 1.2 0.8 0 0 0.84 0 0.04 0.84 0 0.08 0.84 0 0.12 0.84 0 0.16 0.84 0 0.2 0.84 0 0.24 0.84 0 0.28 0.84 0 0.32 0.84 0 0.36 0.84 0 0.4 0.84 0 0.44 0.84 0 0.48 0.84 0 0.52 0.84 0 0.56 0.84 0 0.6 0.84 0 0.64 0.84 0 0.68 0.84 0 0.72 0.84 0 0.76 0.84 0 0.8 0.84 0 0.84 0.84 0 0.88 0.84 0 0.92 0.84 0 0.96 0.84 0 1 0.84 0 1.04 0.84 0 1.08 0.84 0 1.12 0.84 0 1.16 0.84 0 1.2 0.84 0 0 0.88 0 0.04 0.88 0 0.08 0.88 0 0.12 0.88 0 0.16 0.88 0 0.2 0.88 0 0.24 0.88 0 0.28 0.88 0 0.32 0.88 0 0.36 0.88 0 0.4 0.88 0 0.44 0.88 0 0.48 0.88 0 0.52 0.88 0 0.56 0.88 0 0.6 0.88 0 0.64 0.88 0 0.68 0.88 0 0.72 0.88 0 0.76 0.88 0 0.8 0.88 0 0.84 0.88 0 0.88 0.88 0 0.92 0.88 0 0.96 0.88 0 1 0.88 0 1.04 0.88 0 1.08 0.88 0 1.12 0.88 0 1.16 0.88 0 1.2 0.88 0 0 0.92 0 0.04 0.92 0 0.08 0.92 0 0.12 0.92 0 0.16 0.92 0 0.2 0.92 0 0.24 0.92 0 0.28 0.92 0 0.32 0.92 0 0.36 0.92 0 0.4 0.92 0 0.44 0.92 0 0.48 0.92 0 0.52 0.92 0 0.56 0.92 0 0.6 0.92 0 0.64 0.92 0 0.68 0.92 0 0.72 0.92 0 0.76 0.92 0 0.8 0.92 0 0.84 0.92 0 0.88 0.92 0 0.92 0.92 0 0.96 0.92 0 1 0.92 0 1.04 0.92 0 1.08 0.92 0 1.12 0.92 0 1.16 0.92 0 1.2 0.92 0 0 0.96 0 0.04 0.96 0 0.08 0.96 0 0.12 0.96 0 0.16 0.96 0 0.2 0.96 0 0.24 0.96 0 0.28 0.96 0 0.32 0.96 0 0.36 0.96 0 0.4 0.96 0 0.44 0.96 0 0.48 0.96 0 0.52 0.96 0 0.56 0.96 0 0.6 0.96 0 0.64 0.96 0 0.68 0.96 0 0.72 0.96 0 0.76 0.96 0 0.8 0.96 0 0.84 0.96 0 0.88 0.96 0 0.92 0.96 0 0.96 0.96 0 1 0.96 0 1.04 0.96 0 1.08 0.96 0 1.12 0.96 0 1.16 0.96 0 1.2 0.96 0 0 1 0 0.04 1 0 0.08 1 0 0.12 1 0 0.16 1 0 0.2 1 0 0.24 1 0 0.28 1 0 0.32 1 0 0.36 1 0 0.4 1 0 0.44 1 0 0.48 1 0 0.52 1 0 0.56 1 0 0.6 1 0 0.64 1 0 0.68 1 0 0.72 1 0 0.76 1 0 0.8 1 0 0.84 1 0 0.88 1 0 0.92 1 0 0.96 1 0 1 1 0 1.04 1 0 1.08 1 0 1.12 1 0 1.16 1 0 1.2 1 0 0 1.04 0 0.04 1.04 0 0.08 1.04 0 0.12 1.04 0 0.16 1.04 0 0.2 1.04 0 0.24 1.04 0 0.28 1.04 0 0.32 1.04 0 0.36 1.04 0 0.4 1.04 0 0.44 1.04 0 0.48 1.04 0 0.52 1.04 0 0.56 1.04 0 0.6 1.04 0 0.64 1.04 0 0.68 1.04 0 0.72 1.04 0 0.76 1.04 0 0.8 1.04 0 0.84 1.04 0 0.88 1.04 0 0.92 1.04 0 0.96 1.04 0 1 1.04 0 1.04 1.04 0 1.08 1.04 0 1.12 1.04 0 1.16 1.04 0 1.2 1.04 0 0 1.08 0 0.04 1.08 0 0.08 1.08 0 0.12 1.08 0 0.16 1.08 0 0.2 1.08 0 0.24 1.08 0 0.28 1.08 0 0.32 1.08 0 0.36 1.08 0 0.4 1.08 0 0.44 1.08 0 0.48 1.08 0 0.52 1.08 0 0.56 1.08 0 0.6 1.08 0 0.64 1.08 0 0.68 1.08 0 0.72 1.08 0 0.76 1.08 0 0.8 1.08 0 0.84 1.08 0 0.88 1.08 0 0.92 1.08 0 0.96 1.08 0 1 1.08 0 1.04 1.08 0 1.08 1.08 0 1.12 1.08 0 1.16 1.08 0 1.2 1.08 0 0 1.12 0 
[...]
			<PointData Scalars="VitesseX">
				<DataArray Name="VitesseX" type="Float32" format="ascii">
 0 -0.0420758 -0.118415 -0.138911 -0.0724287 0.0222841 0.134256 0.249377 0.342034 0.432108 0.510244 0.582461 0.648536 0.710601 0.76975 0.827796 0.88602 0.944761 1.00462 1.06658 1.13125 1.19926 1.27096 1.34857 1.42563 1.5504 1.70335 1.67046 1.45819 0.933837 0 0 0.163556 0.168901 0.123909 0.143033 0.177276 0.243706 0.330886 0.403586 0.480085 0.547864 0.611099 0.670437 0.727079 0.782012 0.836683 0.891862 0.948052 1.00597 1.06646 1.12999 1.19709 1.26822 1.3454 1.422 1.54892 1.69816 1.66231 1.4469 0.922229 0 0 0.163218 0.252442 0.295598 0.348849 0.348835 0.377378 0.429382 0.469829 0.523873 0.576634 0.62941 0.682403 0.735322 0.788397 0.842133 0.896773 0.952679 1.01062 1.07132 1.13508 1.20212 1.27297 1.34911 1.42416 1.557 1.69463 1.65006 1.42275 0.891521 0 0 0.122336 0.216491 0.297983 0.357334 0.374481 0.416888 0.462373 0.50072 0.54647 0.592328 0.640357 0.690251 0.741123 0.793237 0.846617 0.901337 0.957829 1.01661 1.07791 1.14188 1.20855 1.27897 1.35375 1.42818 1.57205 1.69042 1.63293 1.38518 0.840608 0 0 0.0673089 0.153617 0.265122 0.321162 0.358841 0.415876 0.457118 0.505619 0.556407 0.60411 0.651272 0.698761 0.74779 0.798691 0.851508 0.906466 0.963727 1.02333 1.08504 1.14903 1.21524 1.28565 1.35922 1.43509 1.5928 1.68375 1.60869 1.33081 0.765675 0 0 0.0302085 0.094326 0.196441 0.266085 0.332694 0.397297 0.44401 0.498403 0.551901 0.604897 0.656697 0.705686 0.755097 0.805402 0.857887 0.913075 0.970888 1.03093 1.0927 1.1566 1.22254 1.29353 1.36566 1.44658 1.61658 1.67254 1.57374 1.25488 0.663181 0 0 0.0202946 0.0785179 0.160543 0.231447 0.300926 0.366234 0.421948 0.482059 0.541057 0.598895 0.654562 0.708332 0.760668 0.813021 0.866303 0.92181 0.979771 1.03979 1.10143 1.16521 1.23112 1.30301 1.3731 1.46529 1.63792 1.65489 1.52285 1.15178 0.532186 0 0 0.0240305 0.0812346 0.154523 0.223789 0.289951 0.352317 0.409268 0.468392 0.528865 0.590173 0.650323 0.708303 0.764678 0.820471 0.876151 0.932497 0.990462 1.05017 1.11168 1.17519 1.24156 1.31371 1.38202 1.49526 1.64907 1.62833 1.44885 1.01631 0.380592 0 0 0.031887 0.0867232 0.155685 0.22583 0.292032 0.353436 0.409607 0.467927 0.527289 0.587714 0.648754 0.709348 0.769008 0.827561 0.885874 0.943695 1.00228 1.06176 1.12331 1.18633 1.25407 1.32466 1.3942 1.53902 1.64389 1.58547 1.3455 0.843494 0.23017 0 0 0.0398258 0.0949916 0.163028 0.232581 0.29846 0.359258 0.416265 0.4734 0.531326 0.59071 0.651579 0.713189 0.774375 0.835007 0.894819 0.954284 1.01347 1.07345 1.13523 1.19808 1.26797 1.3344 1.41448 1.58078 1.62134 1.51926 1.20315 0.631682 0.113133 0 0 0.0468797 0.104432 0.171285 0.241192 0.308211 0.370531 0.428737 0.485058 0.5417 0.599658 0.659442 0.720374 0.78172 0.842981 0.903694 0.964086 1.02362 1.08465 1.14592 1.2105 1.28037 1.34347 1.45249 1.59915 1.58251 1.41723 1.01159 0.398974 0.0421319 0 0 0.0523319 0.112461 0.178785 0.247937 0.316974 0.382082 0.442594 0.499896 0.55599 0.612622 0.670517 0.730013 0.790583 0.851159 0.912206 0.972499 1.03317 1.09436 1.15552 1.22414 1.28893 1.35797 1.50931 1.58506 1.51709 1.26749 0.764699 0.195742 0.0109245 0 0 0.0564993 0.118757 0.184447 0.252455 0.321363 0.388076 0.450566 0.509594 0.566648 0.623033 0.680201 0.738841 0.798312 0.858558 0.919061 0.979669 1.04136 1.10163 1.16613 1.23487 1.29485 1.39313 1.54246 1.54265 1.40961 1.05579 0.475612 0.0709478 0.00184939 0 0 0.0596174 0.12298 0.18818 0.254848 0.322555 0.389428 0.453104 0.513293 0.571398 0.628597 0.685969 0.74429 0.803778 0.863769 0.923918 0.985717 1.0466 1.10859 1.17789 1.23929 1.30818 1.45588 1.52868 1.46889 1.2411 0.770814 0.218787 0.0170308 0.000184669 0 0 0.0612952 0.125081 0.189769 0.255288 0.321762 0.387914 0.451905 0.512951 0.571914 0.629763 0.687723 0.746604 0.806254 0.866279 0.927698 0.989104 1.05049 1.11824 1.18294 1.24291 1.35343 1.48348 1.47601 1.34051 0.993392 0.436937 0.070105 0.0024778 9.19312e-06 0 0 0.0618144 0.125586 0.189801 0.254284 0.318852 0.383318 0.446914 0.508812 0.568943 0.628024 0.686987 0.746267 0.806168 0.867503 0.929208 0.990729 1.05711 1.12415 1.18299 1.26757 1.41511 1.45334 1.3785 1.13286 0.655519 0.170934 0.0138099 0.000193354 2.26009e-07 0 0 0.061798 0.125275 0.188757 0.251743 0.314265 0.376587 0.438873 0.500827 0.562042 0.622708 0.683038 0.74363 0.805188 0.867025 0.92907 0.995067 1.06288 1.12287 1.196 1.3354 1.41096 1.37598 1.20543 0.822708 0.303607 0.0430814 0.00149269 6.47366e-06 5.07387e-09 0 0 0.0614255 0.124053 0.186372 0.247922 0.308861 0.369601 0.430659 0.492093 0.553656 0.615248 0.67723 0.739785 0.802284 0.865542 0.932086 0.999753 1.06102 1.13086 1.25813 1.35471 1.34836 1.22934 0.926213 0.434381 0.0905241 0.00593847 7.31435e-05 9.90411e-08 1.18323e-10 0 0 0.0605932 0.121976 0.182932 0.243227 0.303231 0.363445 0.424169 0.485591 0.547596 0.610063 0.672946 0.73627 0.800985 0.868234 0.935103 0.997468 1.06845 1.18878 1.29199 1.30389 1.21842 0.975202 0.534724 0.144886 0.0150562 0.000386071 1.27964e-06 1.64889e-09 1.7862e-12 0 0 0.0594463 0.119402 0.179068 0.238625 0.298393 0.358635 0.419544 0.481228 0.543668 0.606799 0.670872 0.736411 0.803605 0.869289 0.933062 1.00854 1.12758 1.22587 1.24762 1.18228 0.980643 0.59271 0.1918 0.0274616 0.00117166 8.60557e-06 1.29898e-08 2.27118e-11 6.94781e-14 0 0 0.058335 0.117171 0.17606 0.235337 0.295215 0.355756 0.417014 0.4791 0.542203 0.606494 0.6721 0.738239 0.803155 0.8697 0.953497 1.07181 1.15768 1.18171 1.12679 0.951214 0.606411 0.220266 0.0390628 0.00236805 3.14901e-05 6.98744e-08 1.64255e-10 2.1256e-13 4.0423e-14 0 0 0.057533 0.115647 0.174268 0.233767 0.294062 0.355061 0.416827 0.479541 0.543397 0.60812 0.672984 0.738567 0.811469 0.907163 1.01564 1.08672 1.10659 1.05439 0.892436 0.579608 0.22438 0.0455153 0.00348535 6.98351e-05 2.40927e-07 6.60882e-10 1.34237e-12 -3.72548e-14 3.98167e-14 0 0 0.0571744 0.115062 0.17394 0.233897 0.294756 0.356359 0.418646 0.481617 0.545287 0.610504 0.680947 0.765034 0.866131 0.95268 1.01122 1.02102 0.965061 0.807021 0.517842 0.204592 0.0445036 0.00391729 0.000101775 5.04214e-07 1.60927e-09 4.41336e-12 -2.66549e-14 -3.98167e-14 7.96426e-14 0 0 0.0571086 0.115121 0.174546 0.235309 0.296944 0.359205 0.422411 0.487859 0.558331 0.638598 0.728628 0.812379 0.881021 0.925087 0.922398 0.856883 0.695973 0.428014 0.166564 0.0366219 0.00341688 0.000101483 6.42646e-07 2.49149e-09 9.12645e-12 3.04721e-14 1.79665e-16 -1.74271e-16 -6.85887e-14 0 0 0.0573264 0.116248 0.17741 0.240458 0.305284 0.372697 0.444561 0.521601 0.600025 0.67496 0.74287 0.799002 0.823784 0.80615 0.726692 0.560554 0.320174 0.118919 0.0248962 0.00228636 6.92842e-05 5.02418e-07 2.48637e-09 1.16441e-11 4.8036e-14 2.64534e-17 -6.83641e-14 1.0819e-13 -1.08414e-13 0 0 0.0615181 0.125626 0.192321 0.260781 0.330397 0.400472 0.470124 0.537728 0.603057 0.659596 0.696427 0.702773 0.667915 0.572139 0.406035 0.209051 0.0716721 0.0133829 0.00112304 3.11344e-05 2.39009e-07 1.59976e-09 9.01212e-12 1.26864e-13 4.38482e-16 -2.33506e-19 -2.16771e-13 2.16771e-13 5.06386e-19 0 0 0.0675418 0.135062 0.201952 0.268536 0.334492 0.399034 0.459579 0.512249 0.552249 0.56972 0.558015 0.503897 0.397625 0.250443 0.114246 0.0338517 0.00527208 0.00037054 8.48855e-06 6.88762e-08 6.54697e-10 4.37838e-12 -4.92222e-14 7.96787e-14 -6.02179e-20 -1.08393e-13 3.3562e-16 -3.35752e-16 1.08393e-13 0 0 0.0670755 0.132389 0.195031 0.254834 0.310338 0.358864 0.396556 0.418479 0.418084 0.388052 0.321769 0.224893 0.122113 0.0475786 0.011077 0.00135033 7.06581e-05 1.25671e-06 1.27069e-08 1.62073e-10 1.32109e-12 -2.66659e-14 1.79033e-16 -6.87122e-14 -4.26192e-17 3.63138e-16 1.00124e-16 -1.00256e-16 -2.49089e-16 0 0 0.0595652 0.113745 0.16359 0.206045 0.239361 0.260222 0.26471 0.249037 0.210853 0.154854 0.0928751 0.0420139 0.0123102 0.00208482 0.000180028 6.28045e-06 9.59911e-08 1.60702e-09 2.23454e-11 2.88242e-13 -3.72549e-14 -3.98352e-14 7.98254e-14 -1.08539e-13 -4.2231e-17 3.63006e-16 1.00256e-16 -1.00388e-16 -2.48957e-16 0 0 0.0318108 0.0783528 0.106784 0.123637 0.12842 0.120995 0.102726 0.0766058 0.0479348 0.0227434 0.00729631 0.00146441 0.000165231 8.73349e-06 2.16277e-07 4.84716e-09 1.15049e-10 1.65183e-12 6.84972e-14 4.04228e-14 -3.98164e-14 -9.5428e-18 -6.85891e-14 1.08414e-13 4.43298e-19 -1.08393e-13 4.496e-16 -4.49732e-16 1.08393e-13 0 0 0 0 0 0 0 0 0 0 0 0 0 0 0 0 0 0 0 0 0 0 0 0 0 0 0 0 0 0 0 0
				</DataArray>
				<DataArray Name="VitesseY" type="Float32" format="ascii">
 0 0 0 0 0 0 0 0 0 0 0 0 0 0 0 0 0 0 0 0 0 0 0 0 0 0 0 0 0 0 0 -0.0420066 0.163567 0.163215 0.122324 0.0672958 0.0302006 0.0202887 0.0240253 0.0318826 0.039822 0.0468772 0.0523311 0.0565003 0.0596197 0.061298 0.0618174 0.061801 0.0614283 0.0605957 0.0594481 0.0583357 0.0575331 0.0571739 0.0571077 0.0573255 0.061517 0.0675396 0.0671033 0.0595331 0.043306 0 -0.118359 0.168923 0.252431 0.216475 0.1536 0.0943157 0.0785122 0.0812296 0.0867183 0.0949867 0.104428 0.112458 0.118757 0.122983 0.125085 0.12559 0.125279 0.124057 0.12198 0.119405 0.117173 0.115647 0.115061 0.11512 0.116246 0.125623 0.13506 0.132382 0.114415 0.0796032 0 -0.13887 0.12394 0.295596 0.297976 0.265111 0.196429 0.160537 0.154519 0.155681 0.163024 0.171281 0.178782 0.184446 0.188182 0.189772 0.189806 0.188762 0.186377 0.182936 0.179071 0.176061 0.174268 0.173939 0.174545 0.177407 0.192318 0.201947 0.195056 0.163642 0.106883 0 -0.0724055 0.143052 0.348846 0.357325 0.321152 0.266075 0.231442 0.223785 0.225826 0.232576 0.241188 0.247935 0.252455 0.254851 0.255292 0.25429 0.251749 0.247928 0.243232 0.238628 0.235338 0.233767 0.233897 0.235308 0.240455 0.260777 0.268532 0.25483 0.206045 0.123643 0 0.0222946 0.177283 0.348829 0.374475 0.358837 0.332691 0.300923 0.289946 0.292025 0.298452 0.308204 0.316972 0.321365 0.32256 0.321768 0.318859 0.314272 0.308866 0.303235 0.298396 0.295216 0.294063 0.294755 0.296942 0.305281 0.330393 0.334487 0.310332 0.239355 0.128418 0 0.13426 0.243712 0.377377 0.416887 0.415873 0.397295 0.366231 0.352311 0.35343 0.359251 0.370524 0.382079 0.388078 0.389433 0.387921 0.383326 0.376595 0.369606 0.363448 0.358637 0.355756 0.355061 0.356358 0.359203 0.372694 0.400467 0.399029 0.358858 0.260218 0.120993 0 0.249374 0.330888 0.429382 0.462369 0.457115 0.44401 0.421948 0.409264 0.409601 0.416258 0.42873 0.44259 0.450567 0.453108 0.451911 0.446922 0.43888 0.430663 0.424171 0.419545 0.417015 0.416827 0.418645 0.42241 0.444558 0.470119 0.459574 0.396551 0.264707 0.102726 0 0.342024 0.403585 0.469832 0.500716 0.505615 0.498401 0.482059 0.46839 0.467924 0.473396 0.485054 0.499892 0.509594 0.513295 0.512955 0.508818 0.500833 0.492096 0.485592 0.481229 0.4791 0.479541 0.481616 0.487857 0.521597 0.537724 0.512245 0.418476 0.249037 0.0766067 0 0.432092 0.480082 0.523878 0.546466 0.556401 0.551897 0.541057 0.528866 0.52729 0.531326 0.541699 0.555989 0.566648 0.571399 0.571916 0.568945 0.562045 0.553658 0.547597 0.543668 0.542203 0.543396 0.545286 0.558329 0.600021 0.603053 0.552247 0.418084 0.210855 0.0479362 0 0.510222 0.54786 0.576637 0.592326 0.604101 0.604892 0.598894 0.590177 0.587718 0.590714 0.59966 0.612623 0.623033 0.628597 0.629764 0.628025 0.622709 0.615248 0.610063 0.606799 0.606494 0.60812 0.610503 0.638595 0.674957 0.659595 0.56972 0.388054 0.154857 0.0227445 0 0.582437 0.611094 0.629411 0.640355 0.651263 0.65669 0.654562 0.650327 0.64876 0.651585 0.659446 0.670518 0.680201 0.685968 0.687722 0.686986 0.683036 0.677229 0.672946 0.670872 0.6721 0.672984 0.680945 0.728625 0.742868 0.696427 0.558018 0.321775 0.0928786 0.00729687 0 0.648512 0.670433 0.682402 0.690249 0.698754 0.705679 0.708331 0.708307 0.709355 0.713197 0.72038 0.730016 0.738841 0.744289 0.746603 0.746265 0.743628 0.739783 0.736269 0.73641 0.738238 0.738566 0.765031 0.812378 0.799003 0.702776 0.503904 0.224899 0.0420162 0.00146457 0 0.71058 0.727076 0.735321 0.741122 0.747787 0.755091 0.760666 0.764681 0.769014 0.774381 0.781725 0.790585 0.798312 0.803777 0.806252 0.806165 0.805186 0.802283 0.800983 0.803605 0.803154 0.811468 0.86613 0.881022 0.823788 0.667921 0.397634 0.122119 0.0123112 0.000165255 0 0.769734 0.78201 0.788396 0.793236 0.798689 0.805398 0.813019 0.820473 0.827565 0.835012 0.842985 0.85116 0.858558 0.863767 0.866277 0.8675 0.867022 0.86554 0.868232 0.869288 0.8697 0.907162 0.952681 0.925091 0.806156 0.572149 0.250452 0.0475815 0.00208504 8.73508e-06 0 0.827784 0.836681 0.842133 0.846616 0.851507 0.857885 0.866301 0.876151 0.885876 0.894822 0.903697 0.912207 0.91906 0.923916 0.927696 0.929205 0.929068 0.932083 0.935102 0.933062 0.953497 1.01564 1.01122 0.922404 0.7267 0.406044 0.114251 0.0110779 0.000180053 2.16321e-07 0 0.886013 0.891862 0.896774 0.901337 0.906467 0.913075 0.92181 0.932496 0.943694 0.954284 0.964087 0.972499 0.979668 0.985715 0.989102 0.990727 0.995065 0.999752 0.997467 1.00854 1.07181 1.08672 1.02103 0.856891 0.560564 0.209058 0.0338537 0.00135047 6.28153e-06 4.84802e-09 0 0.944758 0.948053 0.952682 0.957831 0.963728 0.970889 0.97977 0.99046 1.00227 1.01347 1.02362 1.03317 1.04136 1.0466 1.05048 1.05711 1.06288 1.06102 1.06845 1.12758 1.15768 1.10659 0.965067 0.695982 0.320182 0.0716751 0.00527247 7.06673e-05 9.60083e-08 1.1507e-10 0 1.00463 1.00597 1.01063 1.01661 1.02333 1.03093 1.03979 1.05017 1.06176 1.07345 1.08465 1.09436 1.10163 1.10859 1.11824 1.12415 1.12287 1.13086 1.18878 1.22587 1.18171 1.05439 0.807029 0.428022 0.118922 0.0133837 0.000370574 1.2569e-06 1.60726e-09 1.65189e-12 0 1.06659 1.06647 1.07132 1.07791 1.08504 1.0927 1.10142 1.11168 1.1233 1.13523 1.14592 1.15552 1.16613 1.17789 1.18294 1.18299 1.196 1.25813 1.292 1.24762 1.12679 0.892442 0.517848 0.166567 0.0248971 0.00112312 8.48951e-06 1.27085e-08 2.23489e-11 6.85487e-14 0 1.13126 1.12999 1.13508 1.14188 1.14903 1.1566 1.1652 1.17519 1.18633 1.19808 1.2105 1.22414 1.23487 1.23929 1.24291 1.26757 1.3354 1.35471 1.3039 1.18228 0.951217 0.579612 0.204594 0.0366227 0.00228647 3.11368e-05 6.88838e-08 1.62093e-10 2.88283e-13 4.04228e-14 0 1.19926 1.1971 1.20212 1.20855 1.21524 1.22254 1.23111 1.24155 1.25407 1.26797 1.28037 1.28893 1.29485 1.30818 1.35343 1.41511 1.41096 1.34836 1.21842 0.980644 0.606411 0.224381 0.0445041 0.00341695 6.92874e-05 2.39029e-07 6.54754e-10 1.32116e-12 -3.72547e-14 -3.98164e-14 0 1.27096 1.26822 1.27297 1.27897 1.28565 1.29353 1.30301 1.31371 1.32466 1.3344 1.34347 1.35797 1.39313 1.45588 1.48348 1.45334 1.37598 1.22934 0.9752 0.592707 0.220265 0.045515 0.0039173 0.000101484 5.02437e-07 1.59985e-09 4.37878e-12 -2.66658e-14 -3.98352e-14 -9.54279e-18 0 1.34857 1.3454 1.34911 1.35375 1.35922 1.36566 1.3731 1.38202 1.3942 1.41448 1.45249 1.50931 1.54246 1.52868 1.47601 1.37849 1.20543 0.926207 0.534718 0.191797 0.039062 0.00348528 0.000101773 6.42646e-07 2.48642e-09 9.01245e-12 -4.92224e-14 1.79033e-16 7.98254e-14 -6.85891e-14 0 1.42563 1.422 1.42416 1.42818 1.43509 1.44657 1.46529 1.49526 1.53902 1.58078 1.59915 1.58506 1.54265 1.46889 1.3405 1.13285 0.822698 0.434372 0.144882 0.0274606 0.00236794 6.98318e-05 5.04195e-07 2.49145e-09 1.16441e-11 1.26864e-13 7.96787e-14 -6.87122e-14 -1.08539e-13 1.08414e-13 0 1.5504 1.54892 1.557 1.57205 1.5928 1.61658 1.63792 1.64907 1.64388 1.62133 1.58251 1.51708 1.40961 1.24109 0.99338 0.655506 0.303598 0.0905203 0.0150554 0.00117159 3.14876e-05 2.40908e-07 1.60919e-09 9.12612e-12 4.80361e-14 4.38482e-16 -6.02198e-20 -4.26192e-17 -4.2231e-17 4.4328e-19 0 1.70336 1.69816 1.69464 1.69042 1.68375 1.67254 1.65488 1.62833 1.58546 1.51926 1.41722 1.26748 1.05578 0.770798 0.436924 0.170926 0.0430788 0.00593802 0.000386034 8.6046e-06 6.98668e-08 6.60825e-10 4.41296e-12 3.04723e-14 2.64534e-17 -2.33515e-19 -1.08393e-13 3.63138e-16 3.63006e-16 -1.08393e-13 0 1.67059 1.6624 1.65012 1.63297 1.60869 1.57374 1.52285 1.44884 1.34549 1.20314 1.01158 0.764683 0.475596 0.218777 0.0701005 0.0138088 0.00149254 7.31339e-05 1.27945e-06 1.29882e-08 1.64236e-10 1.3423e-12 -2.6655e-14 1.79665e-16 -6.83641e-14 -2.16771e-13 3.3562e-16 1.00124e-16 1.00256e-16 4.496e-16 0 1.45952 1.44827 1.42346 1.38519 1.33081 1.25487 1.15178 1.0163 0.843483 0.631668 0.39896 0.195733 0.070943 0.0170293 0.00247752 0.000193327 6.47254e-06 9.90235e-08 1.64865e-09 2.27082e-11 2.12519e-13 -3.7255e-14 -3.98167e-14 -1.74271e-16 1.0819e-13 2.16771e-13 -3.35752e-16 -1.00256e-16 -1.00388e-16 -4.49732e-16 0 0.955091 0.932756 0.890913 0.840589 0.765676 0.663179 0.532181 0.380586 0.230163 0.113128 0.0421291 0.0109235 0.00184918 0.000184642 9.19143e-06 2.25963e-07 5.07298e-09 1.18301e-10 1.78604e-12 6.94267e-14 4.0423e-14 3.98167e-14 7.96426e-14 -6.85887e-14 -1.08414e-13 5.06384e-19 1.08393e-13 -2.49089e-16 -2.48957e-16 1.08393e-13 0 0.261488 5.62332e-06 0 0 0 0 0 0 0 0 0 0 0 0 0 0 0 0 0 0 0 0 0 0 0 0 0 0 0 0 0
				</DataArray>
			</PointData>
			<CellData Scalars="Density">
				<DataArray Name="Density" type="Float32" format="ascii">