<?xml version="1.0"?>
<VTKFile type="PolyData">
	<PolyData>
		<Piece NumberOfPoints="961" NumberOfPolys="900">
			<Points>
				<DataArray type="Float32" NumberOfComponents="3" format="ascii">
 0 0 0 0.04 0 0 0.08 0 0 0.12 0 0 0.16 0 0 0.2 0 0 0.24 0 0 0.28 0 0 0.32 0 0 0.36 0 0 0.4 0 0 0.44 0 0 0.48 0 0 0.52 0 0 0.56 0 0 0.6 0 0 0.64 0 0 0.68 0 0 0.72 0 0 0.76 0 0 0.8 0 0 0.84 0 0 0.88 0 0 0.92 0 0 0.96 0 0 1 0 0 1.04 0 0 1.08 0 0 1.12 0 0 1.16 0 0 1.2 0 0 0 0.04 0 0.04 0.04 0 0.08 0.04 0 0.12 0.04 0 0.16 0.04 0 0.2 0.04 0 0.24 0.04 0 0.28 0.04 0 0.32 0.04 0 0.36 0.04 0 0.4 0.04 0 0.44 0.04 0 0.48 0.04 0 0.52 0.04 0 0.56 0.04 0 0.6 0.04 0 0.64 0.04 0 0.68 0.04 0 0.72 0.04 0 0.76 0.04 0 0.8 0.04 0 0.84 0.04 0 0.88 0.04 0 0.92 0.04 0 0.96 0.04 0 1 0.04 0 1.04 0.04 0 1.08 0.04 0 1.12 0.04 0 1.16 0.04 0 1.2 0.04 0 0 0.08 0 0.04 0.08 0 0.08 0.08 0 0.12 0.08 0 0.16 0.08 0 0.2 0.08 0 0.24 0.08 0 0.28 0.08 0 0.32 0.08 0 0.36 0.08 0 0.4 0.08 0 0.44 0.08 0 0.48 0.08 0 0.52 0.08 0 0.56 0.08 0 0.6 0.08 0 0.64 0.08 0 0.68 0.08 0 0.72 0.08 0 0.76 0.08 0 0.8 0.08 0 0.84 0.08 0 0.88 0.08 0 0.92 0.08 0 0.96 0.08 0 1 0.08 0 1.04 0.08 0 1.08 0.08 0 1.12 0.08 0 1.16 0.08 0 1.2 0.08 0 0 0.12 0 0.04 0.12 0 0.08 0.12 0 0.12 0.12 0 0.16 0.12 0 0.2 0.12 0 0.24 0.12 0 0.28 0.12 0 0.32 0.12 0 0.36 0.12 0 0.4 0.12 0 0.44 0.12 0 0.48 0.12 0 0.52 0.12 0 0.56 0.12 0 0.6 0.12 0 0.64 0.12 0 0.68 0.12 0 0.72 0.12 0 0.76 0.12 0 0.8 0.12 0 0.84 0.12 0 0.88 0.12 0 0.92 0.12 0 0.96 0.12 0 1 0.12 0 1.04 0.12 0 1.08 0.12 0 1.12 0.12 0 1.16 0.12 0 1.2 0.12 0 0 0.16 0 0.04 0.16 0 0.08 0.16 0 0.12 0.16 0 0.16 0.16 0 0.2 0.16 0 0.24 0.16 0 0.28 0.16 0 0.32 0.16 0 0.36 0.16 0 0.4 0.16 0 0.44 0.16 0 0.48 0.16 0 0.52 0.16 0 0.56 0.16 0 0.6 0.16 0 0.64 0.16 0 0.68 0.16 0 0.72 0.16 0 0.76 0.16 0 0.8 0.16 0 0.84 0.16 0 0.88 0.16 0 0.92 0.16 0 0.96 0.16 0 1 0.16 0 1.04 0.16 0 1.08 0.16 0 1.12 0.16 0 1.16 0.16 0 1.2 0.16 0 0 0.2 0 0.04 0.2 0 0.08 0.2 0 0.12 0.2 0 0.16 0.2 0 0.2 0.2 0 0.24 0.2 0 0.28 0.2 0 0.32 0.2 0 0.36 0.2 0 0.4 0.2 0 0.44 0.2 0 0.48 0.2 0 0.52 0.2 0 0.56 0.2 0 0.6 0.2 0 0.64 0.2 0 0.68 0.2 0 0.72 0.2 0 0.76 0.2 0 0.8 0.2 0 0.84 0.2 0 0.88 0.2 0 0.92 0.2 0 0.96 0.2 0 1 0.2 0 1.04 0.2 0 1.08 0.2 0 1.12 0.2 0 1.16 0.2 0 1.2 0.2 0 0 0.24 0 0.04 0.24 0 0.08 0.24 0 0.12 0.24 0 0.16 0.24 0 0.2 0.24 0 0.24 0.24 0 0.28 0.24 0 0.32 0.24 0 0.36 0.24 0 0.4 0.24 0 0.44 0.24 0 0.48 0.24 0 0.52 0.24 0 0.56 0.24 0 0.6 0.24 0 0.64 0.24 0 0.68 0.24 0 0.72 0.24 0 0.76 0.24 0 0.8 0.24 0 0.84 0.24 0 0.88 0.24 0 0.92 0.24 0 0.96 0.24 0 1 0.24 0 1.04 0.24 0 1.08 0.24 0 1.12 0.24 0 1.16 0.24 0 1.2 0.24 0 0 0.28 0 0.04 0.28 0 0.08 0.28 0 0.12 0.28 0 0.16 0.28 0 0.2 0.28 0 0.24 0.28 0 0.28 0.28 0 0.32 0.28 0 0.36 0.28 0 0.4 0.28 0 0.44 0.28 0 0.48 0.28 0 0.52 0.28 0 0.56 0.28 0 0.6 0.28 0 0.64 0.28 0 0.68 0.28 0 0.72 0.28 0 0.76 0.28 0 0.8 0.28 0 0.84 0.28 0 0.88 0.28 0 0.92 0.28 0 0.96 0.28 0 1 0.28 0 1.04 0.28 0 1.08 0.28 0 1.12 0.28 0 1.16 0.28 0 1.2 0.28 0 0 0.32 0 0.04 0.32 0 0.08 0.32 0 0.12 0.32 0 0.16 0.32 0 0.2 0.32 0 0.24 0.32 0 0.28 0.32 0 0.32 0.32 0 0.36 0.32 0 0.4 0.32 0 0.44 0.32 0 0.48 0.32 0 0.52 0.32 0 0.56 0.32 0 0.6 0.32 0 0.64 0.32 0 0.68 0.32 0 0.72 0.32 0 0.76 0.32 0 0.8 0.32 0 0.84 0.32 0 0.88 0.32 0 0.92 0.32 0 0.96 0.32 0 1 0.32 0 1.04 0.32 0 1.08 0.32 0 1.12 0.32 0 1.16 0.32 0 1.2 0.32 0 0 0.36 0 0.04 0.36 0 0.08 0.36 0 0.12 0.36 0 0.16 0.36 0 0.2 0.36 0 0.24 0.36 0 0.28 0.36 0 0.32 0.36 0 0.36 0.36 0 0.4 0.36 0 0.44 0.36 0 0.48 0.36 0 0.52 0.36 0 0.56 0.36 0 0.6 0.36 0 0.64 0.36 0 0.68 0.36 0 0.72 0.36 0 0.76 0.36 0 0.8 0.36 0 0.84 0.36 0 0.88 0.36 0 0.92 0.36 0 0.96 0.36 0 1 0.36 0 1.04 0.36 0 1.08 0.36 0 1.12 0.36 0 1.16 0.36 0 1.2 0.36 0 0 0.4 0 0.04 0.4 0 0.08 0.4 0 0.12 0.4 0 0.16 0.4 0 0.2 0.4 0 0.24 0.4 0 0.28 0.4 0 0.32 0.4 0 0.36 0.4 0 0.4 0.4 0 0.44 0.4 0 0.48 0.4 0 0.52 0.4 0 0.56 0.4 0 0.6 0.4 0 0.64 0.4 0 0.68 0.4 0 0.72 0.4 0 0.76 0.4 0 0.8 0.4 0 0.84 0.4 0 0.88 0.4 0 0.92 0.4 0 0.96 0.4 0 1 0.4 0 1.04 0.4 0 1.08 0.4 0 1.12 0.4 0 1.16 0.4 0 1.2 0.4 0 0 0.44 0 0.04 0.44 0 0.08 0.44 0 0.12 0.44 0 0.16 0.44 0 0.2 0.44 0 0.24 0.44 0 0.28 0.44 0 0.32 0.44 0 0.36 0.44 0 0.4 0.44 0 0.44 0.44 0 0.48 0.44 0 0.52 0.44 0 0.56 0.44 0 0.6 0.44 0 0.64 0.44 0 0.68 0.44 0 0.72 0.44 0 0.76 0.44 0 0.8 0.44 0 0.84 0.44 0 0.88 0.44 0 0.92 0.44 0 0.96 0.44 0 1 0.44 0 1.04 0.44 0 1.08 0.44 0 1.12 0.44 0 1.16 0.44 0 1.2 0.44 0 0 0.48 0 0.04 0.48 0 0.08 0.48 0 0.12 0.48 0 0.16 0.48 0 0.2 0.48 0 0.24 0.48 0 0.28 0.48 0 0.32 0.48 0 0.36 0.48 0 0.4 0.48 0 0.44 0.48 0 0.48 0.48 0 0.52 0.48 0 0.56 0.48 0 0.6 0.48 0 0.64 0.48 0 0.68 0.48 0 0.72 0.48 0 0.76 0.48 0 0.8 0.48 0 0.84 0.48 0 0.88 0.48 0 0.92 0.48 0 0.96 0.48 0 1 0.48 0 1.04 0.48 0 1.08 0.48 0 1.12 0.48 0 1.16 0.48 0 1.2 0.48 0 0 0.52 0 0.04 0.52 0 0.08 0.52 0 0.12 0.52 0 0.16 0.52 0 0.2 0.52 0 0.24 0.52 0 0.28 0.52 0 0.32 0.52 0 0.36 0.52 0 0.4 0.52 0 0.44 0.52 0 0.48 0.52 0 0.52 0.52 0 0.56 0.52 0 0.6 0.52 0 0.64 0.52 0 0.68 0.52 0 0.72 0.52 0 0.76 0.52 0 0.8 0.52 0 0.84 0.52 0 0.88 0.52 0 0.92 0.52 0 0.96 0.52 0 1 0.52 0 1.04 0.52 0 1.08 0.52 0 1.12 0.52 0 1.16 0.52 0 1.2 0.52 0 0 0.56 0 0.04 0.56 0 0.08 0.56 0 0.12 0.56 0 0.16 0.56 0 0.2 0.56 0 0.24 0.56 0 0.28 0.56 0 0.32 0.56 0 0.36 0.56 0 0.4 0.56 0 0.44 0.56 0 0.48 0.56 0 0.52 0.56 0 0.56 0.56 0 0.6 0.56 0 0.64 0.56 0 0.68 0.56 0 0.72 0.56 0 0.76 0.56 0 0.8 0.56 0 0.84 0.56 0 0.88 0.56 0 0.92 0.56 0 0.96 0.56 0 1 0.56 0 1.04 0.56 0 1.08 0.56 0 1.12 0.56 0 1.16 0.56 0 1.2 0.56 0 0 0.6 0 0.04 0.6 0 0.08 0.6 0 0.12 0.6 0 0.16 0.6 0 0.2 0.6 0 0.24 0.6 0 0.28 0.6 0 0.32 0.6 0 0.36 0.6 0 0.4 0.6 0 0.44 0.6 0 0.48 0.6 0 0.52 0.6 0 0.56 0.6 0 0.6 0.6 0 0.64 0.6 0 0.68 0.6 0 0.72 0.6 0 0.76 0.6 0 0.8 0.6 0 0.84 0.6 0 0.88 0.6 0 0.92 0.6 0 0.96 0.6 0 1 0.6 0 1.04 0.6 0 1.08 0.6 0 1.12 0.6 0 1.16 0.6 0 1.2 0.6 0 0 0.64 0 0.04 0.64 0 0.08 0.64 0 0.12 0.64 0 0.16 0.64 0 0.2 0.64 0 0.24 0.64 0 0.28 0.64 0 0.32 0.64 0 0.36 0.64 0 0.4 0.64 0 0.44 0.64 0 0.48 0.64 0 0.52 0.64 0 0.56 0.64 0 0.6 0.64 0 0.64 0.64 0 0.68 0.64 0 0.72 0.64 0 0.76 0.64 0 0.8 0.64 0 0.84 0.64 0 0.88 0.64 0 0.92 0.64 0 0.96 0.64 0 1 0.64 0 1.04 0.64 0 1.08 0.64 0 1.12 0.64 0 1.16 0.64 0 1.2 0.64 0 0 0.68 0 0.04 0.68 0 0.08 0.68 0 0.12 0.68 0 0.16 0.68 0 0.2 0.68 0 0.24 0.68 0 0.28 0.68 0 0.32 0.68 0 0.36 0.68 0 0.4 0.68 0 0.44 0.68 0 0.48 0.68 0 0.52 0.68 0 0.56 0.68 0 0.6 0.68 0 0.64 0.68 0 0.68 0.68 0 0.72 0.68 0 0.76 0.68 0 0.8 0.68 0 0.84 0.68 0 0.88 0.68 0 0.92 0.68 0 0.96 0.68 0 1 0.68 0 1.04 0.68 0 1.08 0.68 0 1.12 0.68 0 1.16 0.68 0 1.2 0.68 0 0 0.72 0 0.04 0.72 0 0.08 0.72 0 0.12 0.72 0 0.16 0.72 0 0.2 0.72 0 0.24 0.72 0 0.28 0.72 0 0.32 0.72 0 0.36 0.72 0 0.4 0.72 0 0.44 0.72 0 0.48 0.72 0 0.52 0.72 0 0.56 0.72 0 0.6 0.72 0 0.64 0.72 0 0.68 0.72 0 0.72 0.72 0 0.76 0.72 0 0.8 0.72 0 0.84 0.72 0 0.88 0.72 0 0.92 0.72 0 0.96 0.72 0 1 0.72 0 1.04 0.72 0 1.08 0.72 0 1.12 0.72 0 1.16 0.72 0 1.2 0.72 0 0 0.76 0 0.04 0.76 0 0.08 0.76 0 0.12 0.76 0 0.16 0.76 0 0.2 0.76 0 0.24 0.76 0 0.28 0.76 0 0.32 0.76 0 0.36 0.76 0 0.4 0.76 0 0.44 0.76 0 0.48 0.76 0 0.52 0.76 0 0.56 0.76 0 0.6 0.76 0 0.64 0.76 0 0.68 0.76 0 0.72 0.76 0 0.76 0.76 0 0.8 0.76 0 0.84 0.76 0 0.88 0.76 0 0.92 0.76 0 0.96 0.76 0 1 0.76 0 1.04 0.76 0 1.08 0.76 0 1.12 0.76 0 1.16 0.76 0 1.2 0.76 0 0 0.8 0 0.04 0.8 0 0.08 0.8 0 0.12 0.8 0 0.16 0.8 0 0.2 0.8 0 0.24 0.8 0 0.28 0.8 0 0.32 0.8 0 0.36 0.8 0 0.4 0.8 0 0.44 0.8 0 0.48 0.8 0 0.52 0.8 0 0.56 0.8 0 0.6 0.8 0 0.64 0.8 0 0.68 0.8 0 0.72 0.8 0 0.76 0.8 0 0.8 0.8 0 0.84 0.8 0 0.88 0.8 0 0.92 0.8 0 0.96 0.8 0 1 0.8 0 1.04 0.8 0 1.08 0.8 0 1.12 0.8 0 1.16 0.8 0 1.2 0.8 0 0 0.84 0 0.04 0.84 0 0.08 0.84 0 0.12 0.84 0 0.16 0.84 0 0.2 0.84 0 0.24 0.84 0 0.28 0.84 0 0.32 0.84 0 0.36 0.84 0 0.4 0.84 0 0.44 0.84 0 0.48 0.84 0 0.52 0.84 0 0.56 0.84 0 0.6 0.84 0 0.64 0.84 0 0.68 0.84 0 0.72 0.84 0 0.76 0.84 0 0.8 0.84 0 0.84 0.84 0 0.88 0.84 0 0.92 0.84 0 0.96 0.84 0 1 0.84 0 1.04 0.84 0 1.08 0.84 0 1.12 0.84 0 1.16 0.84 0 1.2 0.84 0 0 0.88 0 0.04 0.88 0 0.08 0.88 0 0.12 0.88 0 0.16 0.88 0 0.2 0.88 0 0.24 0.88 0 0.28 0.88 0 0.32 0.88 0 0.36 0.88 0 0.4 0.88 0 0.44 0.88 0 0.48 0.88 0 0.52 0.88 0 0.56 0.88 0 0.6 0.88 0 0.64 0.88 0 0.68 0.88 0 0.72 0.88 0 0.76 0.88 0 0.8 0.88 0 0.84 0.88 0 0.88 0.88 0 0.92 0.88 0 0.96 0.88 0 1 0.88 0 1.04 0.88 0 1.08 0.88 0 1.12 0.88 0 1.16 0.88 0 1.2 0.88 0 0 0.92 0 0.04 0.92 0 0.08 0.92 0 0.12 0.92 0 0.16 0.92 0 0.2 0.92 0 0.24 0.92 0 0.28 0.92 0 0.32 0.92 0 0.36 0.92 0 0.4 0.92 0 0.44 0.92 0 0.48 0.92 0 0.52 0.92 0 0.56 0.92 0 0.6 0.92 0 0.64 0.92 0 0.68 0.92 0 0.72 0.92 0 0.76 0.92 0 0.8 0.92 0 0.84 0.92 0 0.88 0.92 0 0.92 0.92 0 0.96 0.92 0 1 0.92 0 1.04 0.92 0 1.08 0.92 0 1.12 0.92 0 1.16 0.92 0 1.2 0.92 0 0 0.96 0 0.04 0.96 0 0.08 0.96 0 0.12 0.96 0 0.16 0.96 0 0.2 0.96 0 0.24 0.96 0 0.28 0.96 0 0.32 0.96 0 0.36 0.96 0 0.4 0.96 0 0.44 0.96 0 0.48 0.96 0 0.52 0.96 0 0.56 0.96 0 0.6 0.96 0 0.64 0.96 0 0.68 0.96 0 0.72 0.96 0 0.76 0.96 0 0.8 0.96 0 0.84 0.96 0 0.88 0.96 0 0.92 0.96 0 0.96 0.96 0 1 0.96 0 1.04 0.96 0 1.08 0.96 0 1.12 0.96 0 1.16 0.96 0 1.2 0.96 0 0 1 0 0.04 1 0 0.08 1 0 0.12 1 0 0.16 1 0 0.2 1 0 0.24 1 0 0.28 1 0 0.32 1 0 0.36 1 0 0.4 1 0 0.44 1 0 0.48 1 0 0.52 1 0 0.56 1 0 0.6 1 0 0.64 1 0 0.68 1 0 0.72 1 0 0.76 1 0 0.8 1 0 0.84 1 0 0.88 1 0 0.92 1 0 0.96 1 0 1 1 0 1.04 1 0 1.08 1 0 1.12 1 0 1.16 1 0 1.2 1 0 0 1.04 0 0.04 1.04 0 0.08 1.04 0 0.12 1.04 0 0.16 1.04 0 0.2 1.04 0 0.24 1.04 0 0.28 1.04 0 0.32 1.04 0 0.36 1.04 0 0.4 1.04 0 0.44 1.04 0 0.48 1.04 0 0.52 1.04 0 0.56 1.04 0 0.6 1.04 0 0.64 1.04 0 0.68 1.04 0 0.72 1.04 0 0.76 1.04 0 0.8 1.04 0 0.84 1.04 0 0.88 1.04 0 0.92 1.04 0 0.96 1.04 0 1 1.04 0 1.04 1.04 0 1.08 1.04 0 1.12 1.04 0 1.16 1.04 0 1.2 1.04 0 0 1.08 0 0.04 1.08 0 0.08 1.08 0 0.12 1.08 0 0.16 1.08 0 0.2 1.08 0 0.24 1.08 0 0.28 1.08 0 0.32 1.08 0 0.36 1.08 0 0.4 1.08 0 0.44 1.08 0 0.48 1.08 0 0.52 1.08 0 0.56 1.08 0 0.6 1.08 0 0.64 1.08 0 0.68 1.08 0 0.72 1.08 0 0.76 1.08 0 0.8 1.08 0 0.84 1.08 0 0.88 1.08 0 0.92 1.08 0 0.96 1.08 0 1 1.08 0 1.04 1.08 0 1.08 1.08 0 1.12 1.08 0 1.16 1.08 0 1.2 1.08 0 0 1.12 0 
[...]
			<PointData Scalars="VitesseX">
				<DataArray Name="VitesseX" type="Float32" format="ascii">
 0 0.000616982 -0.0302916 0.0269594 0.0787961 0.0737818 0.157498 0.19468 0.234075 0.280453 0.323467 0.37234 0.411771 0.515302 0.54724 0.483202 0.313716 0.0909793 0.00337865 2.2156e-06 1.55342e-10 1.33197e-14 -1.41988e-15 4.58869e-40 1.41988e-15 0 -1.41988e-15 1.41991e-15 -4.84576e-15 4.84573e-15 0 0 0.0655674 0.0785466 0.121008 0.11913 0.117622 0.176598 0.210141 0.243958 0.285632 0.326208 0.372148 0.410886 0.514678 0.541275 0.474652 0.303433 0.0842302 0.00289598 1.7903e-06 1.36631e-10 1.22171e-14 -1.41988e-15 1.15426e-30 1.41988e-15 -5.49209e-53 -1.41988e-15 1.41991e-15 -4.8411e-15 4.84107e-15 0 0 0.0526239 0.112544 0.159144 0.150945 0.174139 0.198909 0.226928 0.256095 0.292829 0.332919 0.374525 0.415603 0.520733 0.53288 0.456663 0.276655 0.0663993 0.00181114 9.53066e-07 9.18285e-11 1.1082e-14 -7.09942e-16 -2.21961e-30 -1.68785e-15 -4.94385e-36 1.68785e-15 7.26562e-16 -4.8367e-15 2.43143e-15 0 0 0.040748 0.09051 0.142614 0.159791 0.199031 0.222308 0.242105 0.274437 0.303658 0.344501 0.37898 0.428536 0.528062 0.520483 0.426851 0.233526 0.0433041 0.000807466 3.4462e-07 4.6006e-11 7.20927e-15 -2.38865e-15 -1.55334e-29 7.49215e-18 -1.86119e-20 -7.47354e-18 1.66115e-17 -2.41848e-15 2.41848e-15 0 0 0.026405 0.0691057 0.129314 0.160316 0.210064 0.231443 0.257219 0.291143 0.316723 0.358968 0.384739 0.454029 0.529046 0.499148 0.381751 0.174954 0.0220917 0.000247273 9.01414e-08 1.69837e-11 2.28333e-15 1.66116e-17 -2.40526e-15 2.40528e-15 -1.86119e-20 7.78814e-30 -2.40526e-15 5.9013e-30 2.40526e-15 0 0 0.0293826 0.0741551 0.120014 0.168077 0.207292 0.230903 0.27066 0.295926 0.332623 0.366008 0.393604 0.486882 0.517077 0.463465 0.316148 0.107171 0.00814779 4.94214e-05 1.84674e-08 4.70806e-12 3.20889e-15 3.72982e-23 -3.72982e-23 -2.40526e-15 -1.98224e-30 2.40535e-15 3.4607e-17 -2.43998e-15 2.1858e-20 0 0 0.0338324 0.0766851 0.117304 0.161068 0.196672 0.236661 0.268989 0.30048 0.343175 0.364312 0.417288 0.501773 0.491632 0.405689 0.225959 0.0487805 0.00201603 6.05027e-06 2.94942e-09 1.0053e-12 2.12106e-16 6.38779e-20 -6.38779e-20 -2.40526e-15 -1.00866e-19 2.44019e-15 -1.40467e-14 1.40466e-14 -2.44001e-15 0 0 0.0294237 0.068872 0.109146 0.151549 0.193963 0.230436 0.264419 0.309573 0.336854 0.368208 0.457971 0.488222 0.445386 0.318115 0.123768 0.0152653 0.000306529 4.5653e-07 3.26861e-10 1.58657e-13 7.98704e-18 -7.03196e-15 4.60524e-15 2.46153e-15 -2.10193e-19 -1.40464e-14 -1.99874e-23 1.99874e-23 1.40465e-14 0 0 0.0295912 0.0640515 0.102451 0.143979 0.183876 0.223516 0.268108 0.301153 0.330256 0.404772 0.4642 0.450269 0.367114 0.199081 0.0464049 0.00294061 2.52258e-05 2.81051e-08 2.50603e-11 2.63357e-14 -1.40788e-14 7.04749e-15 4.57045e-15 2.46153e-15 -2.10184e-19 -1.40464e-14 -7.51318e-18 7.48158e-18 1.40466e-14 0 0 0.029633 0.0624266 0.0988792 0.13808 0.179569 0.222226 0.257933 0.292689 0.358876 0.427487 0.433319 0.380874 0.248664 0.0846709 0.0107779 0.000305357 1.02295e-06 1.58934e-09 1.67221e-12 -6.00643e-15 1.43252e-18 1.40447e-14 -2.44002e-15 -1.80517e-30 -1.00858e-19 2.44e-15 -1.4054e-14 1.10016e-17 1.15916e-14 0 0 0.0302271 0.0630213 0.0985033 0.136367 0.17539 0.213517 0.256403 0.322403 0.384717 0.401914 0.368179 0.266529 0.114233 0.0221706 0.00132305 1.40242e-05 3.02197e-08 5.90192e-11 9.17436e-14 -1.64876e-14 1.65121e-14 -2.44037e-15 2.4403e-15 -2.44e-15 -3.62278e-37 -4.94665e-19 4.88052e-15 -1.89231e-14 1.64716e-14 0 0 0.0309917 0.0636197 0.0981179 0.135148 0.176165 0.226586 0.289296 0.33935 0.359791 0.336794 0.25696 0.125469 0.031381 0.00297885 6.95392e-05 2.77218e-07 8.88804e-10 1.90307e-12 3.12728e-15 -2.54925e-17 2.46601e-15 -2.4402e-15 2.42732e-15 -2.4271e-15 -4.45374e-19 -1.35527e-17 4.89399e-15 -4.88015e-15 -1.16069e-14 0 0 0.0327159 0.0679078 0.106959 0.152121 0.202315 0.251332 0.291983 0.309174 0.291362 0.225727 0.116978 0.0337712 0.004231 0.000161904 1.22514e-06 5.21331e-09 1.6983e-11 3.64051e-14 1.64353e-14 -1.80425e-19 -1.40426e-14 1.40428e-14 -1.64973e-14 1.64974e-14 -6.4108e-19 -1.29507e-17 -4.29979e-14 4.3011e-14 -1.40467e-14 0 0 0.0400234 0.0816222 0.123901 0.166004 0.206807 0.23955 0.251102 0.234439 0.178438 0.0929719 0.0285802 0.00412625 0.000209491 2.51566e-06 1.43117e-08 7.44276e-11 3.29527e-13 7.86298e-16 1.40446e-14 4.54607e-20 -1.40428e-14 1.40309e-14 -1.40326e-14 -3.79169e-18 1.71668e-18 1.64862e-14 -4.54512e-14 4.54509e-14 -1.64911e-14 0 0 0.0417128 0.0825409 0.121086 0.154774 0.179039 0.185491 0.168015 0.121771 0.0611805 0.0186641 0.0027816 0.000159187 2.5041e-06 1.99145e-08 1.54708e-10 9.37404e-13 -9.61526e-15 5.08671e-18 1.16045e-14 2.44003e-15 -9.1043e-20 -2.4521e-15 -1.15949e-14 -1.18451e-18 1.57471e-18 -1.43908e-19 1.64864e-14 -1.64864e-14 -4.9291e-18 0 0 0.0367519 0.0696021 0.0960917 0.112603 0.11416 0.0981358 0.0662011 0.0309167 0.00864854 0.00120521 6.75633e-05 1.20679e-06 1.41499e-08 1.53946e-10 1.30878e-12 8.80714e-15 2.70528e-15 -1.40444e-14 1.16044e-14 -1.16044e-14 1.40444e-14 -1.64873e-14 2.44033e-15 1.64868e-14 -3.79548e-19 -3.29722e-14 3.29723e-14 -3.29723e-14 3.29729e-14 0 0 0.0229051 0.0401366 0.0495479 0.0496542 0.040581 0.0248217 0.00999884 0.00235003 0.000277821 1.35185e-05 2.68599e-07 5.09862e-09 7.32425e-11 9.22808e-13 9.12892e-15 2.54449e-15 -2.44036e-15 2.44039e-15 -2.44011e-15 -1.16046e-14 -3.63292e-18 9.8354e-19 1.64874e-14 -1.64867e-14 -4.1877e-20 -1.43995e-19 1.64864e-14 -1.64864e-14 -4.92909e-18 0 0 0.00693161 0.011199 0.011673 0.00869339 0.00439849 0.00139551 0.000253935 2.31621e-05 9.66276e-07 2.85818e-08 8.59041e-10 1.64051e-11 3.22747e-13 1.7953e-14 -2.17471e-15 2.43984e-15 -2.4401e-15 2.44043e-15 -1.64976e-14 1.89373e-14 -3.29854e-14 3.29854e-14 -1.64914e-14 5.11587e-18 1.4916e-20 1.6486e-14 -4.54506e-14 4.54505e-14 -1.64911e-14 0 0 0.000418878 0.000531036 0.000360976 0.000149096 3.69182e-05 5.13273e-06 4.02918e-07 2.50786e-08 1.47791e-09 5.54776e-11 1.80505e-12 3.9598e-14 7.76456e-16 5.14988e-18 1.40443e-14 -2.44004e-15 2.44009e-15 -1.4054e-14 1.32646e-16 -2.90949e-14 2.9095e-14 -1.36175e-16 5.71519e-18 3.24157e-18 1.9273e-18 1.6486e-14 -4.54506e-14 2.8961e-14 -7.05272e-18 0 0 3.67044e-07 3.75827e-07 1.87795e-07 5.77956e-08 1.31586e-08 2.34405e-09 2.80175e-10 2.19092e-11 1.51596e-12 8.05217e-14 3.22707e-15 -1.1654e-14 1.40446e-14 -1.64845e-14 1.64844e-14 -2.43991e-15 -1.16175e-14 1.39498e-16 4.33586e-18 -2.91027e-14 2.90998e-14 -1.41019e-16 9.21581e-18 -3.00914e-19 1.91238e-18 -1.43995e-19 1.64863e-14 -3.29759e-14 1.64791e-14 0 0 1.87029e-11 2.60945e-11 1.97421e-11 9.29236e-12 2.98439e-12 7.25104e-13 1.22123e-13 1.02977e-14 -6.05439e-15 1.16036e-14 2.64434e-17 4.87995e-15 -4.87981e-15 2.43981e-15 -1.64844e-14 1.64841e-14 -1.40572e-14 -2.88228e-14 2.88305e-14 -7.76149e-18 4.87476e-18 1.64921e-14 -3.29761e-14 3.2976e-14 -4.73439e-22 -3.29722e-14 3.29722e-14 -1.64858e-14 1.64861e-14 0 0 1.10223e-15 3.53302e-17 3.84421e-15 -3.69551e-15 2.7991e-15 1.97484e-16 6.6395e-18 -1.40092e-14 -1.62112e-18 1.15804e-14 2.46567e-15 -1.40426e-14 1.40428e-14 -1.09525e-19 -1.40444e-14 -4.14548e-18 -8.82886e-18 -2.88228e-14 2.88277e-14 -4.95594e-18 1.46649e-17 -1.49628e-17 1.45591e-16 -1.36381e-16 1.91355e-18 3.37671e-19 1.64857e-14 -1.64857e-14 1.64861e-14 0 0 2.30111e-24 7.09942e-16 -2.38865e-15 1.66115e-17 7.27691e-30 6.38974e-20 -7.03209e-15 -6.97778e-15 1.40444e-14 -2.44002e-15 2.44011e-15 -1.40427e-14 1.40308e-14 -2.42848e-15 -1.16067e-14 -1.52219e-18 -8.84289e-18 1.36031e-16 -1.31188e-16 1.64921e-14 -3.29796e-14 1.64829e-14 1.35838e-16 -1.27154e-16 1.51611e-18 1.64868e-14 -1.64883e-14 -1.64878e-14 3.29764e-14 0 0 -2.66566e-46 1.41988e-15 -4.7773e-15 2.40526e-15 -7.45268e-24 6.39049e-20 -9.45881e-15 9.4936e-15 -2.44022e-15 2.4399e-15 -2.45262e-15 -1.15916e-14 1.40326e-14 -1.64755e-14 2.44033e-15 1.64868e-14 -1.64916e-14 -5.65429e-18 9.1549e-18 -5.02209e-19 1.27631e-16 -1.36245e-16 -3.8666e-20 8.92818e-18 4.81365e-18 -1.39703e-17 1.4545e-16 -1.38455e-16 -2.89711e-14 0 0 -7.70997e-30 -1.68785e-15 2.57682e-17 -2.40528e-15 2.40526e-15 -2.40526e-15 2.41862e-15 -2.41862e-15 -5.48919e-30 2.44e-15 -2.45279e-15 -1.15916e-14 -3.98672e-18 1.32121e-18 1.64868e-14 -1.64861e-14 -5.71016e-18 3.75966e-18 -3.0092e-19 -1.1593e-21 1.36381e-16 -1.45521e-16 9.44253e-18 -3.00914e-19 5.25344e-18 -1.48008e-17 -2.88168e-14 4.53129e-14 -4.54599e-14 0 0 -4.21092e-29 -4.79558e-15 4.82882e-15 -4.81054e-15 1.98221e-30 -1.00856e-19 4.88014e-15 -4.88014e-15 1.00861e-19 -6.61422e-36 -3.4302e-19 4.88027e-15 -3.29746e-14 3.29744e-14 -2.95777e-19 -3.29722e-14 3.29723e-14 -3.29742e-14 3.29741e-14 4.69189e-22 -3.29741e-14 3.29738e-14 -3.29705e-14 3.29709e-14 -1.44001e-19 -4.7976e-19 -9.09065e-14 9.09059e-14 1.29443e-18 0 0 -8.50911e-30 -1.68785e-15 2.57496e-17 -1.56628e-29 -2.40517e-15 2.43981e-15 -1.40465e-14 1.40465e-14 -2.44e-15 -2.93734e-19 -1.35527e-17 4.89389e-15 -1.64868e-14 1.43925e-19 1.02134e-37 -1.43995e-19 1.64864e-14 -1.64864e-14 1.43995e-19 3.26582e-33 3.37654e-19 1.64854e-14 -3.29796e-14 3.29795e-14 1.00222e-19 -4.5474e-14 2.91397e-16 -2.91326e-16 4.54744e-14 0 0 -4.12726e-31 7.26553e-16 -4.79391e-15 2.40526e-15 3.47853e-17 -1.40466e-14 -8.2787e-35 -7.51317e-18 1.4054e-14 -2.65312e-19 -1.31658e-17 -4.29978e-14 4.54506e-14 -1.6486e-14 2.69713e-38 1.6486e-14 -4.54506e-14 4.54505e-14 -1.64859e-14 -1.42121e-19 1.64865e-14 -1.64883e-14 1.27221e-16 -2.90903e-14 -5.4314e-18 2.55779e-16 4.04342e-17 -4.03629e-17 -2.32772e-16 0 0 -2.87687e-16 -1.09799e-15 -2.4048e-15 -4.00299e-30 2.43994e-15 -1.40465e-14 4.79082e-23 -7.54481e-18 1.10648e-17 1.40431e-14 -1.13582e-19 -4.30115e-14 4.54509e-14 -1.6486e-14 8.99003e-39 1.6486e-14 -4.54506e-14 2.8961e-14 3.6293e-18 1.64863e-14 -1.64863e-14 -1.64916e-14 3.31136e-14 -4.55876e-14 -4.87577e-18 2.55851e-16 4.0363e-17 -4.03629e-17 -2.32772e-16 0 0 -2.21314e-11 -3.5076e-15 2.40572e-15 -2.40526e-15 -2.18597e-20 2.43999e-15 -1.40465e-14 1.40465e-14 -1.64945e-14 1.64946e-14 -1.64872e-14 1.8927e-14 -1.64921e-14 5.89695e-18 -8.80133e-47 -5.89695e-18 1.6492e-14 -3.2987e-14 1.65009e-14 1.64861e-14 -1.64861e-14 -3.49438e-18 -2.89728e-14 4.54614e-14 3.96815e-19 -4.54735e-14 3.13498e-16 -3.13498e-16 4.5474e-14 0 0 0 0 0 0 0 0 0 0 0 0 0 0 0 0 0 0 0 0 0 0 0 0 0 0 0 0 0 0 0 0
				</DataArray>
				<DataArray Name="VitesseY" type="Float32" format="ascii">