<?xml version="1.0"?>
<VTKFile type="PolyData">
	<PolyData>
		<Piece NumberOfPoints="961" NumberOfPolys="900">
			<Points>
				<DataArray type="Float32" NumberOfComponents="3" format="ascii">
 0 0 0 0.04 0 0 0.08 0 0 0.12 0 0 0.16 0 0 0.2 0 0 0.24 0 0 0.28 0 0 0.32 0 0 0.36 0 0 0.4 0 0 0.44 0 0 0.48 0 0 0.52 0 0 0.56 0 0 0.6 0 0 0.64 0 0 0.68 0 0 0.72 0 0 0.76 0 0 0.8 0 0 0.84 0 0 0.88 0 0 0.92 0 0 0.96 0 0 1 0 0 1.04 0 0 1.08 0 0 1.12 0 0 1.16 0 0 1.2 0 0 0 0.04 0 0.04 0.04 0 0.08 0.04 0 0.12 0.04 0 0.16 0.04 0 0.2 0.04 0 0.24 0.04 0 0.28 0.04 0 0.32 0.04 0 0.36 0.04 0 0.4 0.04 0 0.44 0.04 0 0.48 0.04 0 0.52 0.04 0 0.56 0.04 0 0.6 0.04 0 0.64 0.04 0 0.68 0.04 0 0.72 0.04 0 0.76 0.04 0 0.8 0.04 0 0.84 0.04 0 0.88 0.04 0 0.92 0.04 0 0.96 0.04 0 1 0.04 0 1.04 0.04 0 1.08 0.04 0 1.12 0.04 0 1.16 0.04 0 1.2 0.04 0 0 0.08 0 0.04 0.08 0 0.08 0.08 0 0.12 0.08 0 0.16 0.08 0 0.2 0.08 0 0.24 0.08 0 0.28 0.08 0 0.32 0.08 0 0.36 0.08 0 0.4 0.08 0 0.44 0.08 0 0.48 0.08 0 0.52 0.08 0 0.56 0.08 0 0.6 0.08 0 0.64 0.08 0 0.68 0.08 0 0.72 0.08 0 0.76 0.08 0 0.8 0.08 0 0.84 0.08 0 0.88 0.08 0 0.92 0.08 0 0.96 0.08 0 1 0.08 0 1.04 0.08 0 1.08 0.08 0 1.12 0.08 0 1.16 0.08 0 1.2 0.08 0 0 0.12 0 0.04 0.12 0 0.08 0.12 0 0.12 0.12 0 0.16 0.12 0 0.2 0.12 0 0.24 0.12 0 0.28 0.12 0 0.32 0.12 0 0.36 0.12 0 0.4 0.12 0 0.44 0.12 0 0.48 0.12 0 0.52 0.12 0 0.56 0.12 0 0.6 0.12 0 0.64 0.12 0 0.68 0.12 0 0.72 0.12 0 0.76 0.12 0 0.8 0.12 0 0.84 0.12 0 0.88 0.12 0 0.92 0.12 0 0.96 0.12 0 1 0.12 0 1.04 0.12 0 1.08 0.12 0 1.12 0.12 0 1.16 0.12 0 1.2 0.12 0 0 0.16 0 0.04 0.16 0 0.08 0.16 0 0.12 0.16 0 0.16 0.16 0 0.2 0.16 0 0.24 0.16 0 0.28 0.16 0 0.32 0.16 0 0.36 0.16 0 0.4 0.16 0 0.44 0.16 0 0.48 0.16 0 0.52 0.16 0 0.56 0.16 0 0.6 0.16 0 0.64 0.16 0 0.68 0.16 0 0.72 0.16 0 0.76 0.16 0 0.8 0.16 0 0.84 0.16 0 0.88 0.16 0 0.92 0.16 0 0.96 0.16 0 1 0.16 0 1.04 0.16 0 1.08 0.16 0 1.12 0.16 0 1.16 0.16 0 1.2 0.16 0 0 0.2 0 0.04 0.2 0 0.08 0.2 0 0.12 0.2 0 0.16 0.2 0 0.2 0.2 0 0.24 0.2 0 0.28 0.2 0 0.32 0.2 0 0.36 0.2 0 0.4 0.2 0 0.44 0.2 0 0.48 0.2 0 0.52 0.2 0 0.56 0.2 0 0.6 0.2 0 0.64 0.2 0 0.68 0.2 0 0.72 0.2 0 0.76 0.2 0 0.8 0.2 0 0.84 0.2 0 0.88 0.2 0 0.92 0.2 0 0.96 0.2 0 1 0.2 0 1.04 0.2 0 1.08 0.2 0 1.12 0.2 0 1.16 0.2 0 1.2 0.2 0 0 0.24 0 0.04 0.24 0 0.08 0.24 0 0.12 0.24 0 0.16 0.24 0 0.2 0.24 0 0.24 0.24 0 0.28 0.24 0 0.32 0.24 0 0.36 0.24 0 0.4 0.24 0 0.44 0.24 0 0.48 0.24 0 0.52 0.24 0 0.56 0.24 0 0.6 0.24 0 0.64 0.24 0 0.68 0.24 0 0.72 0.24 0 0.76 0.24 0 0.8 0.24 0 0.84 0.24 0 0.88 0.24 0 0.92 0.24 0 0.96 0.24 0 1 0.24 0 1.04 0.24 0 1.08 0.24 0 1.12 0.24 0 1.16 0.24 0 1.2 0.24 0 0 0.28 0 0.04 0.28 0 0.08 0.28 0 0.12 0.28 0 0.16 0.28 0 0.2 0.28 0 0.24 0.28 0 0.28 0.28 0 0.32 0.28 0 0.36 0.28 0 0.4 0.28 0 0.44 0.28 0 0.48 0.28 0 0.52 0.28 0 0.56 0.28 0 0.6 0.28 0 0.64 0.28 0 0.68 0.28 0 0.72 0.28 0 0.76 0.28 0 0.8 0.28 0 0.84 0.28 0 0.88 0.28 0 0.92 0.28 0 0.96 0.28 0 1 0.28 0 1.04 0.28 0 1.08 0.28 0 1.12 0.28 0 1.16 0.28 0 1.2 0.28 0 0 0.32 0 0.04 0.32 0 0.08 0.32 0 0.12 0.32 0 0.16 0.32 0 0.2 0.32 0 0.24 0.32 0 0.28 0.32 0 0.32 0.32 0 0.36 0.32 0 0.4 0.32 0 0.44 0.32 0 0.48 0.32 0 0.52 0.32 0 0.56 0.32 0 0.6 0.32 0 0.64 0.32 0 0.68 0.32 0 0.72 0.32 0 0.76 0.32 0 0.8 0.32 0 0.84 0.32 0 0.88 0.32 0 0.92 0.32 0 0.96 0.32 0 1 0.32 0 1.04 0.32 0 1.08 0.32 0 1.12 0.32 0 1.16 0.32 0 1.2 0.32 0 0 0.36 0 0.04 0.36 0 0.08 0.36 0 0.12 0.36 0 0.16 0.36 0 0.2 0.36 0 0.24 0.36 0 0.28 0.36 0 0.32 0.36 0 0.36 0.36 0 0.4 0.36 0 0.44 0.36 0 0.48 0.36 0 0.52 0.36 0 0.56 0.36 0 0.6 0.36 0 0.64 0.36 0 0.68 0.36 0 0.72 0.36 0 0.76 0.36 0 0.8 0.36 0 0.84 0.36 0 0.88 0.36 0 0.92 0.36 0 0.96 0.36 0 1 0.36 0 1.04 0.36 0 1.08 0.36 0 1.12 0.36 0 1.16 0.36 0 1.2 0.36 0 0 0.4 0 0.04 0.4 0 0.08 0.4 0 0.12 0.4 0 0.16 0.4 0 0.2 0.4 0 0.24 0.4 0 0.28 0.4 0 0.32 0.4 0 0.36 0.4 0 0.4 0.4 0 0.44 0.4 0 0.48 0.4 0 0.52 0.4 0 0.56 0.4 0 0.6 0.4 0 0.64 0.4 0 0.68 0.4 0 0.72 0.4 0 0.76 0.4 0 0.8 0.4 0 0.84 0.4 0 0.88 0.4 0 0.92 0.4 0 0.96 0.4 0 1 0.4 0 1.04 0.4 0 1.08 0.4 0 1.12 0.4 0 1.16 0.4 0 1.2 0.4 0 0 0.44 0 0.04 0.44 0 0.08 0.44 0 0.12 0.44 0 0.16 0.44 0 0.2 0.44 0 0.24 0.44 0 0.28 0.44 0 0.32 0.44 0 0.36 0.44 0 0.4 0.44 0 0.44 0.44 0 0.48 0.44 0 0.52 0.44 0 0.56 0.44 0 0.6 0.44 0 0.64 0.44 0 0.68 0.44 0 0.72 0.44 0 0.76 0.44 0 0.8 0.44 0 0.84 0.44 0 0.88 0.44 0 0.92 0.44 0 0.96 0.44 0 1 0.44 0 1.04 0.44 0 1.08 0.44 0 1.12 0.44 0 1.16 0.44 0 1.2 0.44 0 0 0.48 0 0.04 0.48 0 0.08 0.48 0 0.12 0.48 0 0.16 0.48 0 0.2 0.48 0 0.24 0.48 0 0.28 0.48 0 0.32 0.48 0 0.36 0.48 0 0.4 0.48 0 0.44 0.48 0 0.48 0.48 0 0.52 0.48 0 0.56 0.48 0 0.6 0.48 0 0.64 0.48 0 0.68 0.48 0 0.72 0.48 0 0.76 0.48 0 0.8 0.48 0 0.84 0.48 0 0.88 0.48 0 0.92 0.48 0 0.96 0.48 0 1 0.48 0 1.04 0.48 0 1.08 0.48 0 1.12 0.48 0 1.16 0.48 0 1.2 0.48 0 0 0.52 0 0.04 0.52 0 0.08 0.52 0 0.12 0.52 0 0.16 0.52 0 0.2 0.52 0 0.24 0.52 0 0.28 0.52 0 0.32 0.52 0 0.36 0.52 0 0.4 0.52 0 0.44 0.52 0 0.48 0.52 0 0.52 0.52 0 0.56 0.52 0 0.6 0.52 0 0.64 0.52 0 0.68 0.52 0 0.72 0.52 0 0.76 0.52 0 0.8 0.52 0 0.84 0.52 0 0.88 0.52 0 0.92 0.52 0 0.96 0.52 0 1 0.52 0 1.04 0.52 0 1.08 0.52 0 1.12 0.52 0 1.16 0.52 0 1.2 0.52 0 0 0.56 0 0.04 0.56 0 0.08 0.56 0 0.12 0.56 0 0.16 0.56 0 0.2 0.56 0 0.24 0.56 0 0.28 0.56 0 0.32 0.56 0 0.36 0.56 0 0.4 0.56 0 0.44 0.56 0 0.48 0.56 0 0.52 0.56 0 0.56 0.56 0 0.6 0.56 0 0.64 0.56 0 0.68 0.56 0 0.72 0.56 0 0.76 0.56 0 0.8 0.56 0 0.84 0.56 0 0.88 0.56 0 0.92 0.56 0 0.96 0.56 0 1 0.56 0 1.04 0.56 0 1.08 0.56 0 1.12 0.56 0 1.16 0.56 0 1.2 0.56 0 0 0.6 0 0.04 0.6 0 0.08 0.6 0 0.12 0.6 0 0.16 0.6 0 0.2 0.6 0 0.24 0.6 0 0.28 0.6 0 0.32 0.6 0 0.36 0.6 0 0.4 0.6 0 0.44 0.6 0 0.48 0.6 0 0.52 0.6 0 0.56 0.6 0 0.6 0.6 0 0.64 0.6 0 0.68 0.6 0 0.72 0.6 0 0.76 0.6 0 0.8 0.6 0 0.84 0.6 0 0.88 0.6 0 0.92 0.6 0 0.96 0.6 0 1 0.6 0 1.04 0.6 0 1.08 0.6 0 1.12 0.6 0 1.16 0.6 0 1.2 0.6 0 0 0.64 0 0.04 0.64 0 0.08 0.64 0 0.12 0.64 0 0.16 0.64 0 0.2 0.64 0 0.24 0.64 0 0.28 0.64 0 0.32 0.64 0 0.36 0.64 0 0.4 0.64 0 0.44 0.64 0 0.48 0.64 0 0.52 0.64 0 0.56 0.64 0 0.6 0.64 0 0.64 0.64 0 0.68 0.64 0 0.72 0.64 0 0.76 0.64 0 0.8 0.64 0 0.84 0.64 0 0.88 0.64 0 0.92 0.64 0 0.96 0.64 0 1 0.64 0 1.04 0.64 0 1.08 0.64 0 1.12 0.64 0 1.16 0.64 0 1.2 0.64 0 0 0.68 0 0.04 0.68 0 0.08 0.68 0 0.12 0.68 0 0.16 0.68 0 0.2 0.68 0 0.24 0.68 0 0.28 0.68 0 0.32 0.68 0 0.36 0.68 0 0.4 0.68 0 0.44 0.68 0 0.48 0.68 0 0.52 0.68 0 0.56 0.68 0 0.6 0.68 0 0.64 0.68 0 0.68 0.68 0 0.72 0.68 0 0.76 0.68 0 0.8 0.68 0 0.84 0.68 0 0.88 0.68 0 0.92 0.68 0 0.96 0.68 0 1 0.68 0 1.04 0.68 0 1.08 0.68 0 1.12 0.68 0 1.16 0.68 0 1.2 0.68 0 0 0.72 0 0.04 0.72 0 0.08 0.72 0 0.12 0.72 0 0.16 0.72 0 0.2 0.72 0 0.24 0.72 0 0.28 0.72 0 0.32 0.72 0 0.36 0.72 0 0.4 0.72 0 0.44 0.72 0 0.48 0.72 0 0.52 0.72 0 0.56 0.72 0 0.6 0.72 0 0.64 0.72 0 0.68 0.72 0 0.72 0.72 0 0.76 0.72 0 0.8 0.72 0 0.84 0.72 0 0.88 0.72 0 0.92 0.72 0 0.96 0.72 0 1 0.72 0 1.04 0.72 0 1.08 0.72 0 1.12 0.72 0 1.16 0.72 0 1.2 0.72 0 0 0.76 0 0.04 0.76 0 0.08 0.76 0 0.12 0.76 0 0.16 0.76 0 0.2 0.76 0 0.24 0.76 0 0.28 0.76 0 0.32 0.76 0 0.36 0.76 0 0.4 0.76 0 0.44 0.76 0 0.48 0.76 0 0.52 0.76 0 0.56 0.76 0 0.6 0.76 0 0.64 0.76 0 0.68 0.76 0 0.72 0.76 0 0.76 0.76 0 0.8 0.76 0 0.84 0.76 0 0.88 0.76 0 0.92 0.76 0 0.96 0.76 0 1 0.76 0 1.04 0.76 0 1.08 0.76 0 1.12 0.76 0 1.16 0.76 0 1.2 0.76 0 0 0.8 0 0.04 0.8 0 0.08 0.8 0 0.12 0.8 0 0.16 0.8 0 0.2 0.8 0 0.24 0.8 0 0.28 0.8 0 0.32 0.8 0 0.36 0.8 0 0.4 0.8 0 0.44 0.8 0 0.48 0.8 0 0.52 0.8 0 0.56 0.8 0 0.6 0.8 0 0.64 0.8 0 0.68 0.8 0 0.72 0.8 0 0.76 0.8 0 0.8 0.8 0 0.84 0.8 0 0.88 0.8 0 0.92 0.8 0 0.96 0.8 0 1 0.8 0 1.04 0.8 0 1.08 0.8 0 1.12 0.8 0 1.16 0.8 0 1.2 0.8 0 0 0.84 0 0.04 0.84 0 0.08 0.84 0 0.12 0.84 0 0.16 0.84 0 0.2 0.84 0 0.24 0.84 0 0.28 0.84 0 0.32 0.84 0 0.36 0.84 0 0.4 0.84 0 0.44 0.84 0 0.48 0.84 0 0.52 0.84 0 0.56 0.84 0 0.6 0.84 0 0.64 0.84 0 0.68 0.84 0 0.72 0.84 0 0.76 0.84 0 0.8 0.84 0 0.84 0.84 0 0.88 0.84 0 0.92 0.84 0 0.96 0.84 0 1 0.84 0 1.04 0.84 0 1.08 0.84 0 1.12 0.84 0 1.16 0.84 0 1.2 0.84 0 0 0.88 0 0.04 0.88 0 0.08 0.88 0 0.12 0.88 0 0.16 0.88 0 0.2 0.88 0 0.24 0.88 0 0.28 0.88 0 0.32 0.88 0 0.36 0.88 0 0.4 0.88 0 0.44 0.88 0 0.48 0.88 0 0.52 0.88 0 0.56 0.88 0 0.6 0.88 0 0.64 0.88 0 0.68 0.88 0 0.72 0.88 0 0.76 0.88 0 0.8 0.88 0 0.84 0.88 0 0.88 0.88 0 0.92 0.88 0 0.96 0.88 0 1 0.88 0 1.04 0.88 0 1.08 0.88 0 1.12 0.88 0 1.16 0.88 0 1.2 0.88 0 0 0.92 0 0.04 0.92 0 0.08 0.92 0 0.12 0.92 0 0.16 0.92 0 0.2 0.92 0 0.24 0.92 0 0.28 0.92 0 0.32 0.92 0 0.36 0.92 0 0.4 0.92 0 0.44 0.92 0 0.48 0.92 0 0.52 0.92 0 0.56 0.92 0 0.6 0.92 0 0.64 0.92 0 0.68 0.92 0 0.72 0.92 0 0.76 0.92 0 0.8 0.92 0 0.84 0.92 0 0.88 0.92 0 0.92 0.92 0 0.96 0.92 0 1 0.92 0 1.04 0.92 0 1.08 0.92 0 1.12 0.92 0 1.16 0.92 0 1.2 0.92 0 0 0.96 0 0.04 0.96 0 0.08 0.96 0 0.12 0.96 0 0.16 0.96 0 0.2 0.96 0 0.24 0.96 0 0.28 0.96 0 0.32 0.96 0 0.36 0.96 0 0.4 0.96 0 0.44 0.96 0 0.48 0.96 0 0.52 0.96 0 0.56 0.96 0 0.6 0.96 0 0.64 0.96 0 0.68 0.96 0 0.72 0.96 0 0.76 0.96 0 0.8 0.96 0 0.84 0.96 0 0.88 0.96 0 0.92 0.96 0 0.96 0.96 0 1 0.96 0 1.04 0.96 0 1.08 0.96 0 1.12 0.96 0 1.16 0.96 0 1.2 0.96 0 0 1 0 0.04 1 0 0.08 1 0 0.12 1 0 0.16 1 0 0.2 1 0 0.24 1 0 0.28 1 0 0.32 1 0 0.36 1 0 0.4 1 0 0.44 1 0 0.48 1 0 0.52 1 0 0.56 1 0 0.6 1 0 0.64 1 0 0.68 1 0 0.72 1 0 0.76 1 0 0.8 1 0 0.84 1 0 0.88 1 0 0.92 1 0 0.96 1 0 1 1 0 1.04 1 0 1.08 1 0 1.12 1 0 1.16 1 0 1.2 1 0 0 1.04 0 0.04 1.04 0 0.08 1.04 0 0.12 1.04 0 0.16 1.04 0 0.2 1.04 0 0.24 1.04 0 0.28 1.04 0 0.32 1.04 0 0.36 1.04 0 0.4 1.04 0 0.44 1.04 0 0.48 1.04 0 0.52 1.04 0 0.56 1.04 0 0.6 1.04 0 0.64 1.04 0 0.68 1.04 0 0.72 1.04 0 0.76 1.04 0 0.8 1.04 0 0.84 1.04 0 0.88 1.04 0 0.92 1.04 0 0.96 1.04 0 1 1.04 0 1.04 1.04 0 1.08 1.04 0 1.12 1.04 0 1.16 1.04 0 1.2 1.04 0 0 1.08 0 0.04 1.08 0 0.08 1.08 0 0.12 1.08 0 0.16 1.08 0 0.2 1.08 0 0.24 1.08 0 0.28 1.08 0 0.32 1.08 0 0.36 1.08 0 0.4 1.08 0 0.44 1.08 0 0.48 1.08 0 0.52 1.08 0 0.56 1.08 0 0.6 1.08 0 0.64 1.08 0 0.68 1.08 0 0.72 1.08 0 0.76 1.08 0 0.8 1.08 0 0.84 1.08 0 0.88 1.08 0 0.92 1.08 0 0.96 1.08 0 1 1.08 0 1.04 1.08 0 1.08 1.08 0 1.12 1.08 0 1.16 1.08 0 1.2 1.08 0 0 1.12 0 
[...]
			<PointData Scalars="VitesseX">
				<DataArray Name="VitesseX" type="Float32" format="ascii">
 0 -0.0155196 -0.0144493 -0.0197774 0.00604752 0.0237554 0.0607707 0.0756782 0.100602 0.118868 0.137755 0.156032 0.173811 0.191831 0.209955 0.228865 0.248353 0.269757 0.289499 0.329138 0.361382 0.343886 0.276267 0.147893 0.025253 0.000320396 7.49796e-08 1.02203e-11 -6.68972e-15 8.06875e-15 0 0 0.0359377 0.0472521 0.0397485 0.0514387 0.052137 0.0797638 0.0902199 0.110875 0.126156 0.142912 0.159675 0.176232 0.193272 0.210624 0.228889 0.247934 0.268963 0.288493 0.328905 0.359375 0.341022 0.27233 0.143635 0.0235678 0.0002801 6.54859e-08 9.28958e-12 -6.7985e-15 8.0713e-15 0 0 0.0359944 0.0582135 0.0718698 0.0893431 0.081874 0.101302 0.106326 0.121017 0.132967 0.147403 0.162826 0.178549 0.195116 0.212239 0.230242 0.249258 0.269829 0.289169 0.331837 0.357235 0.336051 0.263048 0.131911 0.0190904 0.000186375 4.39703e-08 6.95568e-12 -7.1521e-15 4.10687e-15 0 0 0.0196334 0.050672 0.0726841 0.090145 0.0903939 0.109368 0.115408 0.128479 0.13952 0.152395 0.166483 0.181485 0.197636 0.214614 0.232298 0.251379 0.271184 0.291019 0.336786 0.354451 0.328521 0.248192 0.113492 0.0131923 9.31113e-05 2.30828e-08 4.26127e-12 -3.51044e-15 4.11495e-15 0 0 0.0113659 0.0382164 0.0643785 0.0795926 0.0923698 0.109587 0.11947 0.133818 0.145444 0.158012 0.171042 0.185488 0.201116 0.217846 0.235064 0.25437 0.273045 0.294874 0.342605 0.350349 0.317201 0.22671 0.0891756 0.00750744 3.42248e-05 9.56712e-09 2.11396e-12 2.6584e-16 4.045e-15 0 0 0.0109807 0.0309025 0.0550614 0.0719079 0.0912985 0.107355 0.120951 0.136042 0.149269 0.163142 0.17617 0.190497 0.205564 0.221958 0.238719 0.258157 0.275358 0.301933 0.346879 0.344138 0.300191 0.197376 0.0612432 0.00335159 9.08604e-06 3.10193e-09 8.44245e-13 -3.90269e-15 -1.45861e-16 0 0 0.0110891 0.0293114 0.052763 0.0707716 0.0889715 0.105814 0.121825 0.136513 0.151868 0.166527 0.181092 0.195505 0.210631 0.226478 0.243219 0.262139 0.27831 0.313586 0.347097 0.333798 0.275744 0.159107 0.0348662 0.00111853 1.74654e-06 7.71862e-10 2.42012e-13 2.321e-14 -4.27169e-15 0 0 0.0122097 0.0296238 0.0509476 0.0703457 0.0887349 0.106392 0.121957 0.137469 0.153768 0.169159 0.184608 0.19946 0.215233 0.230334 0.248255 0.265136 0.283033 0.327006 0.341854 0.317139 0.241483 0.112531 0.015677 0.000265311 2.62258e-07 1.48146e-10 6.35387e-14 -1.0619e-17 2.30753e-14 0 0 0.013687 0.0303041 0.0501396 0.0703714 0.0893185 0.106677 0.122569 0.139016 0.155251 0.171297 0.186656 0.202782 0.218107 0.233903 0.25239 0.266884 0.292811 0.334066 0.331404 0.290849 0.194627 0.0641627 0.00508855 4.19652e-05 3.5481e-08 2.35819e-11 1.12222e-14 9.61038e-18 2.30484e-14 0 0 0.0142923 0.0306602 0.0496488 0.0695007 0.0888792 0.106636 0.123213 0.139773 0.15618 0.171977 0.188243 0.204529 0.219733 0.237837 0.25376 0.269694 0.30961 0.330638 0.31322 0.251453 0.134671 0.0272879 0.00110585 4.17211e-06 4.25358e-09 3.35623e-12 -2.10453e-14 1.44007e-17 1.88853e-14 0 0 0.014657 0.0309718 0.0490857 0.0682101 0.0875363 0.105688 0.122892 0.139684 0.155852 0.172211 0.188976 0.20464 0.221928 0.239611 0.253559 0.280039 0.318756 0.317818 0.282556 0.195322 0.0712783 0.00801579 0.000149734 2.87742e-07 3.82397e-10 3.92504e-13 8.68846e-15 -3.13219e-14 2.7164e-14 0 0 0.014986 0.0311024 0.0483376 0.066498 0.0851856 0.103558 0.121225 0.138157 0.155017 0.171969 0.188089 0.20521 0.223762 0.238381 0.25747 0.298278 0.312572 0.294464 0.23417 0.122448 0.026225 0.00145686 1.13159e-05 1.92319e-08 2.75198e-11 3.60059e-14 -1.34165e-15 1.36163e-15 -2.0199e-14 0 0 0.0151521 0.0310898 0.0476815 0.0648331 0.0825249 0.100485 0.118304 0.135982 0.153333 0.170065 0.187747 0.206512 0.22212 0.239087 0.274902 0.300395 0.293958 0.253739 0.163908 0.0534782 0.00613033 0.000148429 4.89206e-07 1.12171e-09 1.92079e-12 2.42879e-15 -6.41786e-14 6.41924e-14 -2.30625e-14 0 0 0.0151648 0.0309508 0.0470881 0.0635757 0.080527 0.0979536 0.115664 0.133343 0.151037 0.169546 0.188259 0.204564 0.221793 0.253594 0.284125 0.28573 0.259137 0.189047 0.081655 0.0149844 0.000790872 7.25939e-06 1.99673e-08 4.79789e-11 1.05911e-13 2.59393e-14 -5.87089e-14 5.87041e-14 -2.59418e-14 0 0 0.0151351 0.0307312 0.0465638 0.0627025 0.0792912 0.0964039 0.114025 0.132193 0.150901 0.169283 0.186139 0.204782 0.235552 0.265926 0.272472 0.25429 0.199295 0.102754 0.0256113 0.00231091 4.86237e-05 1.96395e-07 7.30166e-10 2.06397e-12 3.5569e-15 -1.19161e-18 2.71977e-14 -2.71976e-14 -5.74243e-18 0 0 0.0150737 0.0305121 0.0461991 0.062271 0.0788736 0.0961068 0.11399 0.132221 0.150087 0.167756 0.18876 0.220138 0.246931 0.25553 0.24221 0.197466 0.113082 0.034322 0.00443931 0.000166298 1.22139e-06 5.66483e-09 2.02735e-11 9.88583e-14 5.09167e-17 -5.43933e-14 5.43931e-14 -5.43929e-14 5.4397e-14 0 0 0.0150945 0.0305335 0.0462977 0.0625134 0.0792251 0.0964189 0.113927 0.131725 0.151016 0.175392 0.205429 0.227269 0.235547 0.224495 0.185955 0.112155 0.0383481 0.00624869 0.000343992 4.36344e-06 2.40518e-08 1.22941e-10 6.0871e-13 -2.42928e-14 -2.55594e-19 -1.26836e-18 2.71979e-14 -2.71978e-14 -5.67897e-18 0 0 0.0152173 0.0307519 0.0466996 0.0630496 0.0798031 0.0972578 0.116219 0.138364 0.164626 0.188711 0.206512 0.212502 0.201753 0.16636 0.101248 0.0367483 0.00684092 0.000479713 9.03381e-06 6.23454e-08 4.46128e-10 2.62527e-12 -1.41719e-14 7.19984e-18 -3.40683e-19 2.71955e-14 -7.41584e-14 7.41584e-14 -2.72023e-14 0 0 0.0154507 0.0314738 0.0482621 0.0659309 0.0849473 0.106023 0.128351 0.149948 0.16906 0.18328 0.185932 0.173933 0.139712 0.0825959 0.0303204 0.00595025 0.000474614 1.13972e-05 1.00576e-07 9.5022e-10 6.77174e-12 4.34309e-14 2.72172e-16 2.75416e-18 3.50914e-18 2.71954e-14 -7.41585e-14 4.69567e-14 -8.86462e-18 0 0 0.0174232 0.0356151 0.0544263 0.0736848 0.0930955 0.112091 0.130462 0.146387 0.155634 0.15499 0.140576 0.107149 0.0593849 0.0211287 0.00405838 0.000334086 8.9548e-06 1.00036e-07 1.21421e-09 1.07769e-11 1.3921e-13 -2.63e-16 2.87978e-17 -2.47508e-18 3.52054e-18 -1.39987e-18 2.71978e-14 -5.43993e-14 2.71876e-14 0 0 0.0188878 0.0376461 0.0560698 0.0741568 0.091443 0.106624 0.118169 0.123032 0.118889 0.101935 0.0713394 0.0359709 0.0118326 0.00206083 0.000159684 4.28554e-06 6.13306e-08 9.41923e-10 1.08102e-11 1.2096e-13 1.20925e-15 2.72122e-14 -5.44005e-14 5.44004e-14 -1.68762e-20 -5.43933e-14 5.43916e-14 -2.71921e-14 2.71958e-14 0 0 0.0181972 0.0355255 0.0515899 0.0658979 0.0774058 0.084611 0.0854717 0.0780825 0.0613048 0.0381963 0.0171123 0.0047933 0.000703177 4.64929e-05 1.18454e-06 2.34059e-08 4.3785e-10 6.58382e-12 1.36262e-13 1.1805e-15 3.5041e-17 -2.40968e-17 4.68611e-16 -4.53332e-16 3.58198e-18 1.76604e-18 2.71932e-14 -2.71923e-14 2.71959e-14 0 0 0.0145886 0.0273681 0.0377935 0.0450955 0.0481736 0.0461513 0.03879 0.0271907 0.0146612 0.00539129 0.00116813 0.000134166 6.90266e-06 1.86625e-07 5.46133e-09 1.18983e-10 2.50831e-12 4.43953e-14 -2.3439e-16 2.72121e-14 -5.44071e-14 2.71951e-14 4.36375e-16 -4.24822e-16 1.50855e-18 2.72006e-14 -2.72021e-14 -2.71991e-14 5.44037e-14 0 0 0.00749134 0.0132597 0.0167552 0.0176832 0.0160377 0.0121841 0.00721941 0.00301982 0.000803964 0.000126496 1.03608e-05 4.52335e-07 1.86299e-08 6.94458e-10 1.92639e-11 5.88705e-13 -1.46489e-14 2.26496e-16 2.748e-17 -3.86079e-18 4.41756e-16 -4.66688e-16 7.8887e-19 2.59986e-17 6.45864e-18 -3.47217e-17 4.80392e-16 -4.5806e-16 -4.69713e-14 0 0 0.00159394 0.00263976 0.00287723 0.00236033 0.00143265 0.000616893 0.000180465 3.34202e-05 3.61072e-06 2.51679e-07 1.71238e-08 1.03293e-09 4.41766e-11 1.93312e-12 9.31387e-14 -2.42888e-14 -1.11001e-17 8.10904e-18 -2.73698e-18 -6.19781e-20 4.53332e-16 -4.8199e-16 3.13251e-17 -2.60603e-18 8.47761e-18 -4.00468e-17 -4.64754e-14 7.36971e-14 -7.41671e-14 0 0 3.52369e-05 4.72648e-05 3.57868e-05 1.76084e-05 5.76025e-06 1.25581e-06 1.97868e-07 2.76941e-08 3.5451e-09 3.31623e-10 2.39401e-11 1.72891e-12 4.44461e-14 5.78592e-14 5.07694e-17 -5.43929e-14 5.43928e-14 -5.43964e-14 5.43965e-14 1.68774e-20 -5.43969e-14 5.43947e-14 -5.43896e-14 5.43917e-14 -1.2662e-18 -3.14623e-18 -1.48328e-13 1.48324e-13 9.44657e-18 0 0 8.92845e-09 1.15946e-08 8.73632e-09 4.63626e-09 1.81339e-09 5.17141e-10 1.07027e-10 1.76622e-11 2.63001e-12 3.28734e-13 3.10962e-14 8.21669e-15 -2.59441e-14 1.21909e-18 -5.06194e-34 -1.26836e-18 2.71979e-14 -2.71978e-14 1.13685e-18 -2.42069e-24 1.76603e-18 2.71927e-14 -5.4418e-14 5.44168e-14 7.85534e-19 -7.41941e-14 9.31002e-16 -9.31181e-16 7.41982e-14 0 0 9.31311e-13 1.40425e-12 1.28412e-12 8.56631e-13 4.22167e-13 1.34291e-13 4.42595e-14 8.01454e-15 2.42538e-14 4.31729e-16 -7.13029e-15 -4.99659e-14 6.12187e-14 -2.71955e-14 -1.37796e-33 2.71955e-14 -7.41584e-14 7.41584e-14 -2.71955e-14 -1.54612e-18 2.72e-14 -2.72021e-14 4.2409e-16 -4.73864e-14 -1.15587e-17 8.86172e-16 4.86559e-17 -4.88352e-17 -8.55846e-16 0 0 -1.90769e-16 -6.84836e-15 -3.83749e-15 1.79653e-16 4.35031e-15 -2.32103e-14 -1.0262e-17 -9.55707e-18 1.51782e-17 2.3068e-14 -7.11314e-15 -4.99893e-14 6.12235e-14 -2.71953e-14 -1.57326e-33 2.71954e-14 -7.41585e-14 4.69567e-14 6.53416e-18 2.71974e-14 -2.71975e-14 -2.72068e-14 5.48523e-14 -7.46153e-14 -7.93475e-18 8.85992e-16 4.88356e-17 -4.85722e-17 -8.5611e-16 0 0 -2.26397e-10 -1.11506e-14 4.05786e-15 -3.97792e-15 1.45861e-16 3.98074e-15 -2.30749e-14 2.30484e-14 -2.72011e-14 2.72267e-14 -2.59513e-14 2.88162e-14 -2.59496e-14 1.21619e-17 -1.13104e-37 -1.22197e-17 2.72087e-14 -5.44188e-14 2.72224e-14 2.7197e-14 -2.71972e-14 -6.08021e-18 -4.69823e-14 7.41787e-14 1.73076e-18 -7.41904e-14 9.53517e-16 -9.53254e-16 7.4194e-14 0 0 0 0 0 0 0 0 0 0 0 0 0 0 0 0 0 0 0 0 0 0 0 0 0 0 0 0 0 0 0 0
				</DataArray>
				<DataArray Name="VitesseY" type="Float32" format="ascii">
 0 0 0 0 0 0 0 0 0 0 0 0 0 0 0 0 0 0 0 0 0 0 0 0 0 0 0 0 0 0 0 -0.0154965 0.0359457 0.0359961 0.0196305 0.0113633 0.0109787 0.0110878 0.0122094 0.0136873 0.0142929 0.0146576 0.0149863 0.0151522 0.0151649 0.0151352 0.0150739 0.0150947 0.0152174 0.0154507 0.0174232 0.0188874 0.0181965 0.0145875 0.00749046 0.00159367 3.52256e-05 8.92437e-09 9.30904e-13 1.03577e-16 -2.66157e-18 0 -0.0144366 0.0472612 0.058213 0.050667 0.0382112 0.0308993 0.0293086 0.0296222 0.0303035 0.0306605 0.0309724 0.0311027 0.0310899 0.0309509 0.0307314 0.0305124 0.0305337 0.030752 0.0314738 0.0356145 0.0376449 0.0355239 0.0273662 0.0132582 0.00263934 4.72501e-05 1.15896e-08 1.40368e-12 2.6596e-16 -3.94583e-15 0 -0.0197727 0.0397595 0.0718737 0.0726873 0.0643789 0.0550591 0.0527595 0.0509441 0.0501367 0.0496474 0.0490855 0.048338 0.0476819 0.0470884 0.0465641 0.0461993 0.0462979 0.0466995 0.0482618 0.0544254 0.0560682 0.0515876 0.0377908 0.0167534 0.0028768 3.57764e-05 8.73297e-09 1.28353e-12 -3.81393e-15 4.0476e-15 0 0.00605157 0.0514515 0.0893513 0.0901468 0.0795923 0.0719066 0.0707692 0.0703419 0.0703672 0.0694976 0.0682089 0.0664985 0.064834 0.0635763 0.0627029 0.0622713 0.0625135 0.0630494 0.0659304 0.0736834 0.0741547 0.065895 0.0450925 0.0176816 0.00236001 1.76037e-05 4.6347e-09 8.5636e-13 1.77547e-16 -3.97766e-15 0 0.0237512 0.0521406 0.0818826 0.0904007 0.0923738 0.0912988 0.0889685 0.0887299 0.0893134 0.0888752 0.0875344 0.0851862 0.0825266 0.080528 0.0792918 0.078874 0.0792253 0.079803 0.0849468 0.0930937 0.0914406 0.0774028 0.0481708 0.0160365 0.00143249 5.75893e-06 1.81286e-09 4.22049e-13 4.35005e-15 1.45861e-16 0 0.0607706 0.0797696 0.101312 0.109374 0.109589 0.107355 0.105811 0.106387 0.106672 0.106631 0.105686 0.103559 0.100487 0.0979551 0.0964048 0.0961074 0.0964191 0.0972577 0.106023 0.112089 0.106622 0.0846082 0.0461492 0.0121836 0.000616846 1.25559e-06 5.17015e-10 1.34211e-13 -2.32103e-14 3.98074e-15 0 0.0756758 0.0902224 0.106333 0.115415 0.119473 0.120951 0.121823 0.121953 0.122564 0.123209 0.12289 0.121225 0.118305 0.115666 0.114026 0.11399 0.113928 0.116219 0.12835 0.13046 0.118167 0.0854699 0.0387891 0.00721931 0.000180459 1.97847e-07 1.07007e-10 4.42621e-14 -1.0262e-17 -2.30749e-14 0 0.100601 0.110877 0.121022 0.128484 0.13382 0.136041 0.13651 0.137465 0.139012 0.139771 0.139682 0.138157 0.135982 0.133344 0.132194 0.132222 0.131726 0.138363 0.149947 0.146386 0.123031 0.0780821 0.0271909 0.0030199 3.34209e-05 2.76931e-08 1.76602e-11 8.01441e-15 -9.55708e-18 2.30484e-14 0 0.118869 0.126159 0.132971 0.139524 0.145445 0.149268 0.151866 0.153766 0.155248 0.156178 0.155851 0.155017 0.153334 0.151038 0.150901 0.150088 0.151016 0.164626 0.16906 0.155635 0.11889 0.0613059 0.0146619 0.000804024 3.61102e-06 3.54517e-09 2.62995e-12 2.42539e-14 1.51782e-17 -2.72011e-14 0 0.137756 0.142915 0.147406 0.152398 0.158012 0.16314 0.166526 0.169158 0.171295 0.171975 0.17221 0.171969 0.170066 0.169547 0.169284 0.167756 0.175391 0.188711 0.183281 0.154992 0.101937 0.038198 0.00539173 0.000126512 2.51712e-07 3.31649e-10 3.28729e-13 4.31729e-16 2.3068e-14 2.72267e-14 0 0.156034 0.159678 0.162829 0.166485 0.171043 0.176169 0.18109 0.184606 0.186654 0.188242 0.188975 0.188089 0.187747 0.18826 0.186139 0.18876 0.205429 0.206513 0.185934 0.140579 0.0713424 0.0171135 0.00116827 1.03628e-05 1.71265e-08 2.39428e-11 3.11012e-14 -7.13029e-15 -7.11314e-15 -2.59513e-14 0 0.173814 0.176236 0.178552 0.181487 0.185488 0.190496 0.195502 0.199458 0.20278 0.204527 0.204639 0.205209 0.206513 0.204564 0.204782 0.220138 0.22727 0.212504 0.173936 0.107153 0.0359731 0.00479381 0.000134189 4.52435e-07 1.03313e-09 1.72913e-12 8.21663e-15 -4.99659e-14 -4.99893e-14 2.88162e-14 0 0.191834 0.193276 0.195119 0.197638 0.201118 0.205564 0.210629 0.21523 0.218105 0.219732 0.221928 0.223762 0.222119 0.221793 0.235552 0.246932 0.235549 0.201756 0.139716 0.0593878 0.0118335 0.000703274 6.90418e-06 1.86339e-08 4.41862e-11 4.45031e-14 -2.59441e-14 6.12187e-14 6.12235e-14 -2.59496e-14 0 0.209958 0.210628 0.212243 0.214616 0.217848 0.221958 0.226476 0.230331 0.233901 0.237835 0.23961 0.238381 0.239087 0.253594 0.265927 0.255532 0.224497 0.166364 0.0825989 0.02113 0.00206104 4.65009e-05 1.86665e-07 6.94615e-10 1.93337e-12 5.78485e-14 1.21914e-18 -2.71955e-14 -2.71953e-14 1.21619e-17 0 0.228869 0.228893 0.230245 0.232301 0.235065 0.238719 0.243218 0.248252 0.252387 0.253758 0.253558 0.25747 0.274902 0.284125 0.272473 0.242212 0.185957 0.10125 0.0303214 0.00405865 0.000159704 1.18476e-06 5.46238e-09 1.92678e-11 9.31491e-14 5.07693e-17 4.99405e-23 6.51286e-23 -1.24747e-23 5.16682e-23 0 0.248357 0.247938 0.249261 0.251381 0.254371 0.258157 0.262138 0.265133 0.266881 0.269692 0.280038 0.298278 0.300394 0.285729 0.25429 0.197467 0.112156 0.0367489 0.00595045 0.000334109 4.28609e-06 2.34094e-08 1.19005e-10 5.88951e-13 -2.42889e-14 -5.43929e-14 -1.26836e-18 2.71955e-14 2.71954e-14 -1.22197e-17 0 0.269761 0.268967 0.269832 0.271187 0.273046 0.275358 0.278309 0.283031 0.292809 0.309608 0.318754 0.31257 0.293956 0.259135 0.199294 0.113081 0.0383479 0.00684094 0.000474626 8.95537e-06 6.13363e-08 4.37907e-10 2.50852e-12 -1.46692e-14 -1.11e-17 5.43928e-14 2.71979e-14 -7.41584e-14 -7.41585e-14 2.72087e-14 0 0.289503 0.288496 0.289172 0.29102 0.294875 0.301932 0.313585 0.327004 0.334064 0.330636 0.317815 0.294462 0.253737 0.189045 0.102752 0.0343211 0.00624852 0.000479702 1.13972e-05 1.00039e-07 9.41985e-10 6.58409e-12 4.44256e-14 2.26496e-16 8.10904e-18 -5.43964e-14 -2.71978e-14 7.41584e-14 4.69567e-14 -5.44188e-14 0 0.329138 0.328905 0.331836 0.336786 0.342604 0.346878 0.347096 0.341852 0.331401 0.313217 0.282552 0.234165 0.163904 0.0816518 0.0256099 0.00443903 0.00034397 9.03324e-06 1.00573e-07 1.21421e-09 1.08105e-11 1.36323e-13 -2.3439e-16 2.748e-17 -2.73694e-18 5.43965e-14 1.1369e-18 -2.71955e-14 6.53415e-18 2.72224e-14 0 0.361383 0.359377 0.357236 0.354452 0.350349 0.344138 0.333797 0.317137 0.290846 0.251448 0.195317 0.122443 0.053475 0.0149832 0.00231068 0.000166278 4.36289e-06 6.23397e-08 9.50157e-10 1.07767e-11 1.2096e-13 1.1805e-15 2.72121e-14 -3.86071e-18 -6.19518e-20 1.68417e-20 4.75195e-23 -1.54613e-18 2.71974e-14 2.7197e-14 0 0.343889 0.341025 0.336053 0.328523 0.317202 0.300191 0.275743 0.241481 0.194623 0.134666 0.0712742 0.0262228 0.00612965 0.000790761 4.86153e-05 1.22116e-06 2.40483e-08 4.46071e-10 6.7714e-12 1.39149e-13 1.20925e-15 3.50409e-17 -5.44071e-14 4.41756e-16 4.53332e-16 -5.43969e-14 1.76607e-18 2.72e-14 -2.71975e-14 -2.71972e-14 0 0.276272 0.272335 0.263053 0.248196 0.226713 0.197378 0.159107 0.112529 0.0641603 0.0272862 0.00801501 0.00145666 0.000148402 7.25779e-06 1.96353e-07 5.66375e-09 1.22919e-10 2.62495e-12 4.34006e-14 -2.63e-16 2.72122e-14 -2.40968e-17 2.71951e-14 -4.66688e-16 -4.8199e-16 5.43947e-14 2.71927e-14 -2.72021e-14 -2.72068e-14 -6.08018e-18 0 0.1479 0.143642 0.131917 0.113497 0.089179 0.0612448 0.0348665 0.0156767 0.00508829 0.00110575 0.000149713 1.13137e-05 4.89098e-07 1.99631e-08 7.3e-10 2.02692e-11 6.08504e-13 -1.41517e-14 2.72172e-16 2.87978e-17 -5.44005e-14 4.68611e-16 4.36375e-16 7.88978e-19 3.13251e-17 -5.43896e-14 -5.4418e-14 4.2409e-16 5.48523e-14 -4.69823e-14 0 0.0252563 0.0235709 0.0190928 0.0131939 0.00750821 0.00335186 0.00111858 0.000265314 4.19638e-05 4.17174e-06 2.87703e-07 1.92288e-08 1.12149e-09 4.79688e-11 2.06368e-12 9.88481e-14 -2.42927e-14 7.19979e-18 2.75419e-18 -2.47509e-18 5.44004e-14 -4.53332e-16 -4.24822e-16 2.59986e-17 -2.60597e-18 5.43917e-14 5.44168e-14 -4.73864e-14 -7.46153e-14 7.41787e-14 0 0.000320492 0.000280183 0.000186428 9.31363e-05 3.42331e-05 9.08791e-06 1.74681e-06 2.62281e-07 3.54819e-08 4.25345e-09 3.82365e-10 2.75166e-11 1.92047e-12 1.05875e-13 3.56761e-15 5.09167e-17 -2.55544e-19 -3.40627e-19 3.50921e-18 3.52061e-18 -1.69386e-20 3.58205e-18 1.50853e-18 6.45867e-18 8.47762e-18 -1.26618e-18 7.85485e-19 -1.15587e-17 -7.93474e-18 1.73077e-18 0 7.50103e-08 6.55121e-08 4.39868e-08 2.30907e-08 9.57003e-09 3.10275e-09 7.7203e-10 1.4817e-10 2.3584e-11 3.35629e-12 3.925e-13 3.6001e-14 2.42886e-15 2.59393e-14 -1.19161e-18 -5.43933e-14 -1.26836e-18 2.71955e-14 2.71954e-14 -1.39987e-18 -5.43933e-14 1.76603e-18 2.72006e-14 -3.47216e-17 -4.00468e-17 -3.14622e-18 -7.41941e-14 8.86172e-16 8.85992e-16 -7.41904e-14 0 1.02244e-11 9.29325e-12 6.95838e-12 4.26279e-12 2.11462e-12 8.44517e-13 2.42087e-13 6.35362e-14 1.12222e-14 -2.10454e-14 8.68846e-15 -1.34165e-15 -6.41786e-14 -5.87089e-14 2.71977e-14 5.43931e-14 2.71979e-14 -7.41584e-14 -7.41585e-14 2.71978e-14 5.43916e-14 2.71932e-14 -2.72021e-14 4.80392e-16 -4.64754e-14 -1.48328e-13 9.31002e-16 4.86559e-17 4.88356e-17 9.53517e-16 0 8.16829e-15 7.77048e-15 4.24478e-18 -3.49118e-15 2.68997e-16 -3.90243e-15 2.321e-14 -1.0619e-17 9.61033e-18 1.44006e-17 -3.13219e-14 1.36163e-15 6.41924e-14 5.87041e-14 -2.71976e-14 -5.43929e-14 -2.71978e-14 7.41584e-14 4.69567e-14 -5.43993e-14 -2.71921e-14 -2.71923e-14 -2.71991e-14 -4.5806e-16 7.36971e-14 1.48324e-13 -9.31181e-16 -4.88352e-17 -4.85721e-17 -9.53254e-16 0 4.52786e-10 2.2639e-10 -3.02138e-15 4.06714e-15 4.04474e-15 -1.45861e-16 -4.27169e-15 2.30753e-14 2.30484e-14 1.88853e-14 2.7164e-14 -2.0199e-14 -2.30625e-14 -2.59418e-14 -5.74243e-18 5.4397e-14 -5.67898e-18 -2.72023e-14 -8.86466e-18 2.71876e-14 2.71958e-14 2.71959e-14 5.44037e-14 -4.69713e-14 -7.41671e-14 9.44656e-18 7.41982e-14 -8.55846e-16 -8.5611e-16 7.4194e-14 0 2.38602e-05 0 0 0 0 0 0 0 0 0 0 0 0 0 0 0 0 0 0 0 0 0 0 0 0 0 0 0 0 0 0
				</DataArray>
			</PointData>
			<CellData Scalars="Density">
				<DataArray Name="Density" type="Float32" format="ascii">