<?xml version="1.0"?>
<VTKFile type="PolyData">
	<PolyData>
		<Piece NumberOfPoints="961" NumberOfPolys="900">
			<Points>
				<DataArray type="Float32" NumberOfComponents="3" format="ascii">
 0 0 0 0.04 0 0 0.08 0 0 0.12 0 0 0.16 0 0 0.2 0 0 0.24 0 0 0.28 0 0 0.32 0 0 0.36 0 0 0.4 0 0 0.44 0 0 0.48 0 0 0.52 0 0 0.56 0 0 0.6 0 0 0.64 0 0 0.68 0 0 0.72 0 0 0.76 0 0 0.8 0 0 0.84 0 0 0.88 0 0 0.92 0 0 0.96 0 0 1 0 0 1.04 0 0 1.08 0 0 1.12 0 0 1.16 0 0 1.2 0 0 0 0.04 0 0.04 0.04 0 0.08 0.04 0 0.12 0.04 0 0.16 0.04 0 0.2 0.04 0 0.24 0.04 0 0.28 0.04 0 0.32 0.04 0 0.36 0.04 0 0.4 0.04 0 0.44 0.04 0 0.48 0.04 0 0.52 0.04 0 0.56 0.04 0 0.6 0.04 0 0.64 0.04 0 0.68 0.04 0 0.72 0.04 0 0.76 0.04 0 0.8 0.04 0 0.84 0.04 0 0.88 0.04 0 0.92 0.04 0 0.96 0.04 0 1 0.04 0 1.04 0.04 0 1.08 0.04 0 1.12 0.04 0 1.16 0.04 0 1.2 0.04 0 0 0.08 0 0.04 0.08 0 0.08 0.08 0 0.12 0.08 0 0.16 0.08 0 0.2 0.08 0 0.24 0.08 0 0.28 0.08 0 0.32 0.08 0 0.36 0.08 0 0.4 0.08 0 0.44 0.08 0 0.48 0.08 0 0.52 0.08 0 0.56 0.08 0 0.6 0.08 0 0.64 0.08 0 0.68 0.08 0 0.72 0.08 0 0.76 0.08 0 0.8 0.08 0 0.84 0.08 0 0.88 0.08 0 0.92 0.08 0 0.96 0.08 0 1 0.08 0 1.04 0.08 0 1.08 0.08 0 1.12 0.08 0 1.16 0.08 0 1.2 0.08 0 0 0.12 0 0.04 0.12 0 0.08 0.12 0 0.12 0.12 0 0.16 0.12 0 0.2 0.12 0 0.24 0.12 0 0.28 0.12 0 0.32 0.12 0 0.36 0.12 0 0.4 0.12 0 0.44 0.12 0 0.48 0.12 0 0.52 0.12 0 0.56 0.12 0 0.6 0.12 0 0.64 0.12 0 0.68 0.12 0 0.72 0.12 0 0.76 0.12 0 0.8 0.12 0 0.84 0.12 0 0.88 0.12 0 0.92 0.12 0 0.96 0.12 0 1 0.12 0 1.04 0.12 0 1.08 0.12 0 1.12 0.12 0 1.16 0.12 0 1.2 0.12 0 0 0.16 0 0.04 0.16 0 0.08 0.16 0 0.12 0.16 0 0.16 0.16 0 0.2 0.16 0 0.24 0.16 0 0.28 0.16 0 0.32 0.16 0 0.36 0.16 0 0.4 0.16 0 0.44 0.16 0 0.48 0.16 0 0.52 0.16 0 0.56 0.16 0 0.6 0.16 0 0.64 0.16 0 0.68 0.16 0 0.72 0.16 0 0.76 0.16 0 0.8 0.16 0 0.84 0.16 0 0.88 0.16 0 0.92 0.16 0 0.96 0.16 0 1 0.16 0 1.04 0.16 0 1.08 0.16 0 1.12 0.16 0 1.16 0.16 0 1.2 0.16 0 0 0.2 0 0.04 0.2 0 0.08 0.2 0 0.12 0.2 0 0.16 0.2 0 0.2 0.2 0 0.24 0.2 0 0.28 0.2 0 0.32 0.2 0 0.36 0.2 0 0.4 0.2 0 0.44 0.2 0 0.48 0.2 0 0.52 0.2 0 0.56 0.2 0 0.6 0.2 0 0.64 0.2 0 0.68 0.2 0 0.72 0.2 0 0.76 0.2 0 0.8 0.2 0 0.84 0.2 0 0.88 0.2 0 0.92 0.2 0 0.96 0.2 0 1 0.2 0 1.04 0.2 0 1.08 0.2 0 1.12 0.2 0 1.16 0.2 0 1.2 0.2 0 0 0.24 0 0.04 0.24 0 0.08 0.24 0 0.12 0.24 0 0.16 0.24 0 0.2 0.24 0 0.24 0.24 0 0.28 0.24 0 0.32 0.24 0 0.36 0.24 0 0.4 0.24 0 0.44 0.24 0 0.48 0.24 0 0.52 0.24 0 0.56 0.24 0 0.6 0.24 0 0.64 0.24 0 0.68 0.24 0 0.72 0.24 0 0.76 0.24 0 0.8 0.24 0 0.84 0.24 0 0.88 0.24 0 0.92 0.24 0 0.96 0.24 0 1 0.24 0 1.04 0.24 0 1.08 0.24 0 1.12 0.24 0 1.16 0.24 0 1.2 0.24 0 0 0.28 0 0.04 0.28 0 0.08 0.28 0 0.12 0.28 0 0.16 0.28 0 0.2 0.28 0 0.24 0.28 0 0.28 0.28 0 0.32 0.28 0 0.36 0.28 0 0.4 0.28 0 0.44 0.28 0 0.48 0.28 0 0.52 0.28 0 0.56 0.28 0 0.6 0.28 0 0.64 0.28 0 0.68 0.28 0 0.72 0.28 0 0.76 0.28 0 0.8 0.28 0 0.84 0.28 0 0.88 0.28 0 0.92 0.28 0 0.96 0.28 0 1 0.28 0 1.04 0.28 0 1.08 0.28 0 1.12 0.28 0 1.16 0.28 0 1.2 0.28 0 0 0.32 0 0.04 0.32 0 0.08 0.32 0 0.12 0.32 0 0.16 0.32 0 0.2 0.32 0 0.24 0.32 0 0.28 0.32 0 0.32 0.32 0 0.36 0.32 0 0.4 0.32 0 0.44 0.32 0 0.48 0.32 0 0.52 0.32 0 0.56 0.32 0 0.6 0.32 0 0.64 0.32 0 0.68 0.32 0 0.72 0.32 0 0.76 0.32 0 0.8 0.32 0 0.84 0.32 0 0.88 0.32 0 0.92 0.32 0 0.96 0.32 0 1 0.32 0 1.04 0.32 0 1.08 0.32 0 1.12 0.32 0 1.16 0.32 0 1.2 0.32 0 0 0.36 0 0.04 0.36 0 0.08 0.36 0 0.12 0.36 0 0.16 0.36 0 0.2 0.36 0 0.24 0.36 0 0.28 0.36 0 0.32 0.36 0 0.36 0.36 0 0.4 0.36 0 0.44 0.36 0 0.48 0.36 0 0.52 0.36 0 0.56 0.36 0 0.6 0.36 0 0.64 0.36 0 0.68 0.36 0 0.72 0.36 0 0.76 0.36 0 0.8 0.36 0 0.84 0.36 0 0.88 0.36 0 0.92 0.36 0 0.96 0.36 0 1 0.36 0 1.04 0.36 0 1.08 0.36 0 1.12 0.36 0 1.16 0.36 0 1.2 0.36 0 0 0.4 0 0.04 0.4 0 0.08 0.4 0 0.12 0.4 0 0.16 0.4 0 0.2 0.4 0 0.24 0.4 0 0.28 0.4 0 0.32 0.4 0 0.36 0.4 0 0.4 0.4 0 0.44 0.4 0 0.48 0.4 0 0.52 0.4 0 0.56 0.4 0 0.6 0.4 0 0.64 0.4 0 0.68 0.4 0 0.72 0.4 0 0.76 0.4 0 0.8 0.4 0 0.84 0.4 0 0.88 0.4 0 0.92 0.4 0 0.96 0.4 0 1 0.4 0 1.04 0.4 0 1.08 0.4 0 1.12 0.4 0 1.16 0.4 0 1.2 0.4 0 0 0.44 0 0.04 0.44 0 0.08 0.44 0 0.12 0.44 0 0.16 0.44 0 0.2 0.44 0 0.24 0.44 0 0.28 0.44 0 0.32 0.44 0 0.36 0.44 0 0.4 0.44 0 0.44 0.44 0 0.48 0.44 0 0.52 0.44 0 0.56 0.44 0 0.6 0.44 0 0.64 0.44 0 0.68 0.44 0 0.72 0.44 0 0.76 0.44 0 0.8 0.44 0 0.84 0.44 0 0.88 0.44 0 0.92 0.44 0 0.96 0.44 0 1 0.44 0 1.04 0.44 0 1.08 0.44 0 1.12 0.44 0 1.16 0.44 0 1.2 0.44 0 0 0.48 0 0.04 0.48 0 0.08 0.48 0 0.12 0.48 0 0.16 0.48 0 0.2 0.48 0 0.24 0.48 0 0.28 0.48 0 0.32 0.48 0 0.36 0.48 0 0.4 0.48 0 0.44 0.48 0 0.48 0.48 0 0.52 0.48 0 0.56 0.48 0 0.6 0.48 0 0.64 0.48 0 0.68 0.48 0 0.72 0.48 0 0.76 0.48 0 0.8 0.48 0 0.84 0.48 0 0.88 0.48 0 0.92 0.48 0 0.96 0.48 0 1 0.48 0 1.04 0.48 0 1.08 0.48 0 1.12 0.48 0 1.16 0.48 0 1.2 0.48 0 0 0.52 0 0.04 0.52 0 0.08 0.52 0 0.12 0.52 0 0.16 0.52 0 0.2 0.52 0 0.24 0.52 0 0.28 0.52 0 0.32 0.52 0 0.36 0.52 0 0.4 0.52 0 0.44 0.52 0 0.48 0.52 0 0.52 0.52 0 0.56 0.52 0 0.6 0.52 0 0.64 0.52 0 0.68 0.52 0 0.72 0.52 0 0.76 0.52 0 0.8 0.52 0 0.84 0.52 0 0.88 0.52 0 0.92 0.52 0 0.96 0.52 0 1 0.52 0 1.04 0.52 0 1.08 0.52 0 1.12 0.52 0 1.16 0.52 0 1.2 0.52 0 0 0.56 0 0.04 0.56 0 0.08 0.56 0 0.12 0.56 0 0.16 0.56 0 0.2 0.56 0 0.24 0.56 0 0.28 0.56 0 0.32 0.56 0 0.36 0.56 0 0.4 0.56 0 0.44 0.56 0 0.48 0.56 0 0.52 0.56 0 0.56 0.56 0 0.6 0.56 0 0.64 0.56 0 0.68 0.56 0 0.72 0.56 0 0.76 0.56 0 0.8 0.56 0 0.84 0.56 0 0.88 0.56 0 0.92 0.56 0 0.96 0.56 0 1 0.56 0 1.04 0.56 0 1.08 0.56 0 1.12 0.56 0 1.16 0.56 0 1.2 0.56 0 0 0.6 0 0.04 0.6 0 0.08 0.6 0 0.12 0.6 0 0.16 0.6 0 0.2 0.6 0 0.24 0.6 0 0.28 0.6 0 0.32 0.6 0 0.36 0.6 0 0.4 0.6 0 0.44 0.6 0 0.48 0.6 0 0.52 0.6 0 0.56 0.6 0 0.6 0.6 0 0.64 0.6 0 0.68 0.6 0 0.72 0.6 0 0.76 0.6 0 0.8 0.6 0 0.84 0.6 0 0.88 0.6 0 0.92 0.6 0 0.96 0.6 0 1 0.6 0 1.04 0.6 0 1.08 0.6 0 1.12 0.6 0 1.16 0.6 0 1.2 0.6 0 0 0.64 0 0.04 0.64 0 0.08 0.64 0 0.12 0.64 0 0.16 0.64 0 0.2 0.64 0 0.24 0.64 0 0.28 0.64 0 0.32 0.64 0 0.36 0.64 0 0.4 0.64 0 0.44 0.64 0 0.48 0.64 0 0.52 0.64 0 0.56 0.64 0 0.6 0.64 0 0.64 0.64 0 0.68 0.64 0 0.72 0.64 0 0.76 0.64 0 0.8 0.64 0 0.84 0.64 0 0.88 0.64 0 0.92 0.64 0 0.96 0.64 0 1 0.64 0 1.04 0.64 0 1.08 0.64 0 1.12 0.64 0 1.16 0.64 0 1.2 0.64 0 0 0.68 0 0.04 0.68 0 0.08 0.68 0 0.12 0.68 0 0.16 0.68 0 0.2 0.68 0 0.24 0.68 0 0.28 0.68 0 0.32 0.68 0 0.36 0.68 0 0.4 0.68 0 0.44 0.68 0 0.48 0.68 0 0.52 0.68 0 0.56 0.68 0 0.6 0.68 0 0.64 0.68 0 0.68 0.68 0 0.72 0.68 0 0.76 0.68 0 0.8 0.68 0 0.84 0.68 0 0.88 0.68 0 0.92 0.68 0 0.96 0.68 0 1 0.68 0 1.04 0.68 0 1.08 0.68 0 1.12 0.68 0 1.16 0.68 0 1.2 0.68 0 0 0.72 0 0.04 0.72 0 0.08 0.72 0 0.12 0.72 0 0.16 0.72 0 0.2 0.72 0 0.24 0.72 0 0.28 0.72 0 0.32 0.72 0 0.36 0.72 0 0.4 0.72 0 0.44 0.72 0 0.48 0.72 0 0.52 0.72 0 0.56 0.72 0 0.6 0.72 0 0.64 0.72 0 0.68 0.72 0 0.72 0.72 0 0.76 0.72 0 0.8 0.72 0 0.84 0.72 0 0.88 0.72 0 0.92 0.72 0 0.96 0.72 0 1 0.72 0 1.04 0.72 0 1.08 0.72 0 1.12 0.72 0 1.16 0.72 0 1.2 0.72 0 0 0.76 0 0.04 0.76 0 0.08 0.76 0 0.12 0.76 0 0.16 0.76 0 0.2 0.76 0 0.24 0.76 0 0.28 0.76 0 0.32 0.76 0 0.36 0.76 0 0.4 0.76 0 0.44 0.76 0 0.48 0.76 0 0.52 0.76 0 0.56 0.76 0 0.6 0.76 0 0.64 0.76 0 0.68 0.76 0 0.72 0.76 0 0.76 0.76 0 0.8 0.76 0 0.84 0.76 0 0.88 0.76 0 0.92 0.76 0 0.96 0.76 0 1 0.76 0 1.04 0.76 0 1.08 0.76 0 1.12 0.76 0 1.16 0.76 0 1.2 0.76 0 0 0.8 0 0.04 0.8 0 0.08 0.8 0 0.12 0.8 0 0.16 0.8 0 0.2 0.8 0 0.24 0.8 0 0.28 0.8 0 0.32 0.8 0 0.36 0.8 0 0.4 0.8 0 0.44 0.8 0 0.48 0.8 0 0.52 0.8 0 0.56 0.8 0 0.6 0.8 0 0.64 0.8 0 0.68 0.8 0 0.72 0.8 0 0.76 0.8 0 0.8 0.8 0 0.84 0.8 0 0.88 0.8 0 0.92 0.8 0 0.96 0.8 0 1 0.8 0 1.04 0.8 0 1.08 0.8 0 1.12 0.8 0 1.16 0.8 0 1.2 0.8 0 0 0.84 0 0.04 0.84 0 0.08 0.84 0 0.12 0.84 0 0.16 0.84 0 0.2 0.84 0 0.24 0.84 0 0.28 0.84 0 0.32 0.84 0 0.36 0.84 0 0.4 0.84 0 0.44 0.84 0 0.48 0.84 0 0.52 0.84 0 0.56 0.84 0 0.6 0.84 0 0.64 0.84 0 0.68 0.84 0 0.72 0.84 0 0.76 0.84 0 0.8 0.84 0 0.84 0.84 0 0.88 0.84 0 0.92 0.84 0 0.96 0.84 0 1 0.84 0 1.04 0.84 0 1.08 0.84 0 1.12 0.84 0 1.16 0.84 0 1.2 0.84 0 0 0.88 0 0.04 0.88 0 0.08 0.88 0 0.12 0.88 0 0.16 0.88 0 0.2 0.88 0 0.24 0.88 0 0.28 0.88 0 0.32 0.88 0 0.36 0.88 0 0.4 0.88 0 0.44 0.88 0 0.48 0.88 0 0.52 0.88 0 0.56 0.88 0 0.6 0.88 0 0.64 0.88 0 0.68 0.88 0 0.72 0.88 0 0.76 0.88 0 0.8 0.88 0 0.84 0.88 0 0.88 0.88 0 0.92 0.88 0 0.96 0.88 0 1 0.88 0 1.04 0.88 0 1.08 0.88 0 1.12 0.88 0 1.16 0.88 0 1.2 0.88 0 0 0.92 0 0.04 0.92 0 0.08 0.92 0 0.12 0.92 0 0.16 0.92 0 0.2 0.92 0 0.24 0.92 0 0.28 0.92 0 0.32 0.92 0 0.36 0.92 0 0.4 0.92 0 0.44 0.92 0 0.48 0.92 0 0.52 0.92 0 0.56 0.92 0 0.6 0.92 0 0.64 0.92 0 0.68 0.92 0 0.72 0.92 0 0.76 0.92 0 0.8 0.92 0 0.84 0.92 0 0.88 0.92 0 0.92 0.92 0 0.96 0.92 0 1 0.92 0 1.04 0.92 0 1.08 0.92 0 1.12 0.92 0 1.16 0.92 0 1.2 0.92 0 0 0.96 0 0.04 0.96 0 0.08 0.96 0 0.12 0.96 0 0.16 0.96 0 0.2 0.96 0 0.24 0.96 0 0.28 0.96 0 0.32 0.96 0 0.36 0.96 0 0.4 0.96 0 0.44 0.96 0 0.48 0.96 0 0.52 0.96 0 0.56 0.96 0 0.6 0.96 0 0.64 0.96 0 0.68 0.96 0 0.72 0.96 0 0.76 0.96 0 0.8 0.96 0 0.84 0.96 0 0.88 0.96 0 0.92 0.96 0 0.96 0.96 0 1 0.96 0 1.04 0.96 0 1.08 0.96 0 1.12 0.96 0 1.16 0.96 0 1.2 0.96 0 0 1 0 0.04 1 0 0.08 1 0 0.12 1 0 0.16 1 0 0.2 1 0 0.24 1 0 0.28 1 0 0.32 1 0 0.36 1 0 0.4 1 0 0.44 1 0 0.48 1 0 0.52 1 0 0.56 1 0 0.6 1 0 0.64 1 0 0.68 1 0 0.72 1 0 0.76 1 0 0.8 1 0 0.84 1 0 0.88 1 0 0.92 1 0 0.96 1 0 1 1 0 1.04 1 0 1.08 1 0 1.12 1 0 1.16 1 0 1.2 1 0 0 1.04 0 0.04 1.04 0 0.08 1.04 0 0.12 1.04 0 0.16 1.04 0 0.2 1.04 0 0.24 1.04 0 0.28 1.04 0 0.32 1.04 0 0.36 1.04 0 0.4 1.04 0 0.44 1.04 0 0.48 1.04 0 0.52 1.04 0 0.56 1.04 0 0.6 1.04 0 0.64 1.04 0 0.68 1.04 0 0.72 1.04 0 0.76 1.04 0 0.8 1.04 0 0.84 1.04 0 0.88 1.04 0 0.92 1.04 0 0.96 1.04 0 1 1.04 0 1.04 1.04 0 1.08 1.04 0 1.12 1.04 0 1.16 1.04 0 1.2 1.04 0 0 1.08 0 0.04 1.08 0 0.08 1.08 0 0.12 1.08 0 0.16 1.08 0 0.2 1.08 0 0.24 1.08 0 0.28 1.08 0 0.32 1.08 0 0.36 1.08 0 0.4 1.08 0 0.44 1.08 0 0.48 1.08 0 0.52 1.08 0 0.56 1.08 0 0.6 1.08 0 0.64 1.08 0 0.68 1.08 0 0.72 1.08 0 0.76 1.08 0 0.8 1.08 0 0.84 1.08 0 0.88 1.08 0 0.92 1.08 0 0.96 1.08 0 1 1.08 0 1.04 1.08 0 1.08 1.08 0 1.12 1.08 0 1.16 1.08 0 1.2 1.08 0 0 1.12 0 
[...]
			<PointData Scalars="VitesseX">
				<DataArray Name="VitesseX" type="Float32" format="ascii">
 0 -0.0118916 -0.0188654 -0.0165779 0.00577368 0.0215333 0.0609503 0.0750176 0.0989648 0.117931 0.136184 0.154357 0.171935 0.189724 0.207605 0.226247 0.245376 0.266549 0.285984 0.321615 0.359044 0.345551 0.284675 0.162507 0.0331131 0.000606479 1.93369e-07 2.59017e-11 -4.54377e-15 8.1284e-15 0 0 0.0374668 0.0446894 0.0421259 0.0498196 0.0508236 0.0788401 0.0896384 0.109198 0.125301 0.14138 0.15802 0.174391 0.191195 0.208302 0.226311 0.24498 0.265802 0.28496 0.321433 0.357213 0.342809 0.280879 0.158239 0.0310661 0.00053446 1.67258e-07 2.34663e-11 -4.82989e-15 8.13096e-15 0 0 0.0381131 0.0577996 0.071865 0.0861571 0.0837062 0.0985808 0.105976 0.11929 0.132071 0.145875 0.161158 0.176699 0.193027 0.209897 0.227673 0.246271 0.266744 0.285508 0.324521 0.35546 0.338248 0.272152 0.146546 0.025614 0.000364224 1.09353e-07 1.73991e-11 -5.62085e-15 4.13775e-15 0 0 0.0229184 0.0485384 0.0708121 0.0870883 0.0933271 0.106047 0.115618 0.126903 0.138393 0.150797 0.164796 0.179575 0.195513 0.212232 0.229725 0.248331 0.268172 0.287031 0.329856 0.353176 0.331455 0.258254 0.128093 0.0182637 0.000189156 5.54745e-08 1.04984e-11 -2.5057e-15 4.14731e-15 0 0 0.0121679 0.0349848 0.0627046 0.0801606 0.0929232 0.107058 0.11928 0.132202 0.14412 0.156336 0.169324 0.183489 0.19894 0.215419 0.232451 0.251251 0.270125 0.290227 0.336552 0.34965 0.321305 0.238055 0.103369 0.0108895 7.31262e-05 2.24172e-08 5.13116e-12 7.99826e-16 4.07632e-15 0 0 0.0116428 0.0303077 0.0525287 0.0739678 0.0898407 0.105721 0.119586 0.134545 0.147697 0.161448 0.174338 0.188419 0.20331 0.219491 0.236006 0.255068 0.272457 0.296176 0.342402 0.344087 0.305998 0.210189 0.073922 0.00516661 2.04958e-05 7.24107e-09 2.02724e-12 -3.72381e-15 -1.74313e-16 0 0 0.0113141 0.029798 0.0499475 0.0720122 0.0871003 0.104242 0.120508 0.135266 0.150065 0.164788 0.179097 0.193416 0.208265 0.224021 0.24033 0.25922 0.275167 0.30641 0.344488 0.335138 0.283411 0.17339 0.0442396 0.00184789 4.09472e-06 1.82481e-09 6.14041e-13 2.33579e-14 -4.33227e-15 0 0 0.011605 0.029619 0.0493605 0.0707768 0.0870047 0.105098 0.120979 0.135926 0.151913 0.167269 0.18263 0.197263 0.212863 0.227856 0.245179 0.262441 0.279072 0.320441 0.340828 0.320259 0.251549 0.127374 0.021141 0.000474063 6.05558e-07 3.50743e-10 1.55126e-13 -7.72949e-17 2.32437e-14 0 0 0.013225 0.0303298 0.0494558 0.069767 0.087941 0.105714 0.121368 0.137295 0.15345 0.169448 0.184671 0.200486 0.215852 0.231193 0.249572 0.264239 0.287036 0.330042 0.331533 0.296591 0.207456 0.0769582 0.00743092 8.21501e-05 7.67405e-08 5.36819e-11 2.84541e-14 9.99373e-18 2.32165e-14 0 0 0.0139601 0.0305073 0.0491769 0.0687456 0.0878727 0.105608 0.121904 0.138165 0.154517 0.170213 0.18613 0.20241 0.217399 0.234944 0.251351 0.266256 0.302839 0.329069 0.315525 0.26024 0.149603 0.0349134 0.00176824 8.93884e-06 9.05826e-09 7.28328e-12 -1.85345e-14 1.48322e-17 1.90212e-14 0 0 0.0144452 0.0306912 0.0486221 0.0675218 0.0866748 0.10468 0.121616 0.138241 0.154293 0.170356 0.18699 0.202567 0.219247 0.237203 0.251091 0.274299 0.315016 0.31802 0.287936 0.207783 0.0844055 0.011174 0.000265061 6.27191e-07 8.43537e-10 8.58958e-13 9.08873e-15 -3.15546e-14 2.73645e-14 0 0 0.0148268 0.0308283 0.0479197 0.065924 0.0844465 0.102629 0.120099 0.136847 0.153422 0.170212 0.18624 0.202844 0.221352 0.236248 0.253452 0.292531 0.311602 0.297286 0.243397 0.137305 0.0333983 0.00224657 2.25781e-05 3.92611e-08 5.92925e-11 7.87624e-14 -1.5161e-15 1.52224e-15 -2.03649e-14 0 0 0.0150158 0.03082 0.047277 0.0642906 0.0818304 0.0996327 0.117252 0.134679 0.151877 0.168419 0.185612 0.204239 0.220156 0.235993 0.268558 0.298254 0.295269 0.260442 0.177365 0.0645386 0.00858828 0.00025696 1.03898e-06 2.34911e-09 3.97151e-12 5.30952e-15 -6.45472e-14 6.45603e-14 -2.32302e-14 0 0 0.0150361 0.0306864 0.046687 0.0630306 0.0798233 0.0970692 0.114594 0.132089 0.149494 0.167605 0.186249 0.202726 0.219022 0.247579 0.281347 0.286199 0.263966 0.200503 0.0948479 0.0196513 0.00124069 1.4432e-05 3.97849e-08 1.0123e-10 2.27273e-13 2.61454e-14 -5.88846e-14 5.88792e-14 -2.6112e-14 0 0 0.0150023 0.0304658 0.0461603 0.062146 0.0785613 0.0954795 0.112866 0.130745 0.149203 0.167576 0.184396 0.20202 0.229987 0.26295 0.272534 0.258021 0.209056 0.116497 0.0322257 0.00339367 8.78472e-05 4.04134e-07 1.50859e-09 4.16308e-12 8.58303e-15 -1.2108e-18 2.73982e-14 -2.73982e-14 -5.70079e-18 0 0 0.0149383 0.0302351 0.0457672 0.0616606 0.0780604 0.0950701 0.112731 0.130813 0.148618 0.165958 0.185667 0.215078 0.244286 0.255527 0.245491 0.206122 0.126451 0.0421362 0.00623953 0.000279688 2.50677e-06 1.11569e-08 4.12567e-11 1.77319e-13 3.26315e-16 -5.47943e-14 5.47941e-14 -5.47941e-14 5.47984e-14 0 0 0.0149423 0.0302234 0.0458116 0.0618378 0.0783634 0.0953896 0.112755 0.130281 0.148857 0.171658 0.201497 0.22517 0.235861 0.227807 0.194101 0.124756 0.0465314 0.00856254 0.000553573 8.6541e-06 4.69257e-08 2.53822e-10 1.20106e-12 -2.23792e-14 -5.24172e-20 -1.30465e-18 2.73984e-14 -2.73984e-14 -5.62558e-18 0 0 0.0150595 0.0304269 0.0461911 0.0623507 0.0788795 0.0959851 0.114323 0.135409 0.161076 0.186161 0.20507 0.213449 0.205498 0.174483 0.112977 0.0444714 0.00928268 0.000755522 1.74067e-05 1.23044e-07 9.0989e-10 5.12401e-12 -1.18694e-15 7.14745e-18 -1.43621e-19 2.7396e-14 -7.46946e-14 7.46946e-14 -2.74028e-14 0 0 0.0152311 0.0309805 0.0474303 0.0646627 0.0830806 0.103532 0.12584 0.147868 0.167501 0.183057 0.187741 0.178451 0.148086 0.0932273 0.0369515 0.00811548 0.000746157 2.17273e-05 2.00112e-07 1.9087e-09 1.3284e-11 9.05715e-14 4.96614e-16 2.71877e-18 3.56342e-18 2.7396e-14 -7.46947e-14 4.72923e-14 -8.76612e-18 0 0 0.016956 0.0347494 0.0532772 0.0723777 0.0917597 0.110903 0.12933 0.14602 0.156698 0.157893 0.146162 0.115713 0.0683973 0.0262463 0.00565177 0.000534953 1.72464e-05 1.99054e-07 2.42499e-09 2.13271e-11 2.39685e-13 2.00457e-16 2.91935e-17 -2.68672e-18 3.57459e-18 -1.30482e-18 2.73984e-14 -5.48004e-14 2.73882e-14 0 0 0.018668 0.0372229 0.0555302 0.0735878 0.0910761 0.106808 0.119172 0.125468 0.123063 0.108394 0.0793419 0.0426671 0.0152195 0.00298619 0.000266702 8.4983e-06 1.21033e-07 1.89222e-09 2.13044e-11 2.48539e-13 2.34757e-15 2.74131e-14 -5.48015e-14 5.48014e-14 -1.72538e-20 -5.47943e-14 5.47925e-14 -2.73924e-14 2.73962e-14 0 0 0.0181946 0.035593 0.0518738 0.0666162 0.0788124 0.0869821 0.0891346 0.0832556 0.0676296 0.0443516 0.021213 0.00655623 0.00108505 8.34476e-05 2.43477e-06 4.56142e-08 8.93563e-10 1.29898e-11 2.35366e-13 2.3193e-15 3.5346e-17 -2.43834e-17 4.76522e-16 -4.61072e-16 3.5703e-18 1.81302e-18 2.73936e-14 -2.73928e-14 2.73965e-14 0 0 0.014981 0.0282538 0.0393091 0.0473985 0.0513908 0.0502161 0.0433895 0.0316852 0.0180974 0.00725325 0.00175561 0.000228646 1.36876e-05 3.85009e-07 1.07353e-08 2.46074e-10 4.93838e-12 9.10886e-14 2.28906e-16 2.7413e-14 -5.48081e-14 2.73956e-14 4.4369e-16 -4.32067e-16 1.4455e-18 2.74012e-14 -2.74027e-14 -2.73998e-14 5.4805e-14 0 0 0.00822583 0.0146547 0.0187327 0.0200774 0.0186453 0.0146976 0.00924938 0.00421226 0.00124213 0.000218729 2.05203e-05 9.65407e-07 3.7024e-08 1.43581e-09 3.92331e-11 1.15922e-12 -2.1226e-15 4.50556e-16 2.7823e-17 -3.90031e-18 4.49427e-16 -4.74757e-16 8.20923e-19 2.63488e-17 6.51289e-18 -3.51996e-17 4.88582e-16 -4.65941e-16 -4.73071e-14 0 0 0.00197814 0.0033174 0.00371111 0.0031927 0.00207844 0.000970186 0.000309757 6.37509e-05 7.69255e-06 5.53265e-07 3.48482e-08 2.16128e-09 9.35942e-11 3.8885e-12 1.67891e-13 -2.23752e-14 -1.1224e-17 8.23876e-18 -2.68581e-18 3.67825e-21 4.61072e-16 -4.90229e-16 3.18393e-17 -2.68626e-18 8.58129e-18 -4.06619e-17 -4.68029e-14 7.42254e-14 -7.47032e-14 0 0 6.30248e-05 8.68595e-05 6.88258e-05 3.59862e-05 1.26374e-05 2.93402e-06 4.64148e-07 6.01631e-08 7.49225e-09 7.33819e-10 5.19147e-11 3.55185e-12 1.5593e-13 6.27509e-14 3.26221e-16 -5.47941e-14 5.4794e-14 -5.47977e-14 5.47978e-14 1.72525e-20 -5.47979e-14 5.47956e-14 -5.47905e-14 5.47927e-14 -1.3024e-18 -3.22827e-18 -1.494e-13 1.49397e-13 9.70727e-18 0 0 2.39933e-08 3.00799e-08 2.15132e-08 1.08938e-08 4.19483e-09 1.21846e-09 2.56568e-10 4.07891e-11 5.70789e-12 7.16131e-13 6.81442e-14 1.10322e-14 -2.60798e-14 1.25035e-18 1.43314e-23 -1.30465e-18 2.73984e-14 -2.73984e-14 1.30449e-18 -2.42069e-24 1.81301e-18 2.73931e-14 -5.48193e-14 5.48181e-14 8.0227e-19 -7.47308e-14 9.46907e-16 -9.47086e-16 7.4735e-14 0 0 2.43685e-12 3.63432e-12 3.26308e-12 2.0998e-12 1.01459e-12 3.53209e-13 1.05919e-13 2.05921e-14 2.64026e-14 7.95255e-16 -7.31006e-15 -5.0003e-14 6.14538e-14 -2.73959e-14 -1.47802e-33 2.7396e-14 -7.46946e-14 7.46946e-14 -2.73959e-14 -1.59451e-18 2.74006e-14 -2.74026e-14 4.31296e-16 -4.77295e-14 -1.15494e-17 9.01247e-16 4.87919e-17 -4.8971e-17 -8.71084e-16 0 0 -1.26144e-17 -6.88631e-15 -3.54096e-15 3.81052e-16 4.55778e-15 -2.33225e-14 -7.69171e-17 -9.93434e-18 1.56267e-17 2.32362e-14 -7.27903e-15 -5.0027e-14 6.14592e-14 -2.73959e-14 -1.60973e-33 2.7396e-14 -7.46947e-14 4.72923e-14 6.68566e-18 2.7398e-14 -2.73981e-14 -2.74072e-14 5.5261e-14 -7.51594e-14 -7.82923e-18 9.01068e-16 4.89713e-17 -4.87079e-17 -8.71347e-16 0 0 -2.33643e-10 -1.14736e-14 4.10913e-15 -4.00712e-15 1.74313e-16 3.98443e-15 -2.32432e-14 2.32166e-14 -2.74014e-14 2.74271e-14 -2.61226e-14 2.89893e-14 -2.61201e-14 1.22734e-17 -8.8032e-38 -1.23413e-17 2.74094e-14 -5.48201e-14 2.74232e-14 2.73975e-14 -2.73978e-14 -6.0279e-18 -4.73184e-14 7.47152e-14 1.76112e-18 -7.47269e-14 9.69026e-16 -9.68763e-16 7.47307e-14 0 0 0 0 0 0 0 0 0 0 0 0 0 0 0 0 0 0 0 0 0 0 0 0 0 0 0 0 0 0 0 0
				</DataArray>
				<DataArray Name="VitesseY" type="Float32" format="ascii">
 0 0 0 0 0 0 0 0 0 0 0 0 0 0 0 0 0 0 0 0 0 0 0 0 0 0 0 0 0 0 0 -0.01187 0.0374734 0.0381125 0.0229135 0.0121652 0.0116414 0.0113133 0.0116049 0.0132253 0.0139607 0.0144458 0.014827 0.0150158 0.0150362 0.0150025 0.0149385 0.0149425 0.0150596 0.0152311 0.0169559 0.0186676 0.0181939 0.01498 0.00822491 0.00197783 6.30059e-05 2.39819e-08 2.43576e-12 2.80897e-16 -2.66668e-18 0 -0.0188537 0.0446986 0.0578001 0.0485351 0.0349799 0.0303036 0.0297947 0.0296171 0.030329 0.0305075 0.0306918 0.0308286 0.0308201 0.0306865 0.030466 0.0302354 0.0302236 0.030427 0.0309804 0.0347489 0.0372217 0.0355915 0.0282518 0.0146531 0.0033169 8.68344e-05 3.00667e-08 3.63278e-12 5.24914e-16 -3.9757e-15 0 -0.0165696 0.0421398 0.0718703 0.0708161 0.0627043 0.0525263 0.0499445 0.0493571 0.0494531 0.0491755 0.0486218 0.0479201 0.0472774 0.0466874 0.0461605 0.0457674 0.0458117 0.046191 0.0474301 0.0532765 0.0555287 0.0518716 0.0393064 0.0187308 0.00371059 6.88071e-05 2.15048e-08 3.26167e-12 -3.54748e-15 4.07785e-15 0 0.00577419 0.0498276 0.0861609 0.0870888 0.0801605 0.0739669 0.0720099 0.0707728 0.0697628 0.0687424 0.0675205 0.0659244 0.0642914 0.0630312 0.0621464 0.0616609 0.0618379 0.0623506 0.0646623 0.0723765 0.0735857 0.0666134 0.0473954 0.0200756 0.0031923 3.59773e-05 1.08902e-08 2.09907e-12 3.83939e-16 -4.00686e-15 0 0.0215325 0.0508309 0.0837186 0.0933356 0.0929271 0.089841 0.0870975 0.0869998 0.0879359 0.0878685 0.0866727 0.084447 0.0818321 0.0798244 0.0785619 0.0780608 0.0783636 0.0788794 0.0830801 0.091758 0.0910738 0.0788094 0.0513879 0.0186439 0.00207823 1.26347e-05 4.19366e-09 1.01431e-12 4.55778e-15 1.74313e-16 0 0.060948 0.0788437 0.0985886 0.106052 0.10706 0.105721 0.104239 0.105093 0.105709 0.105604 0.104678 0.102629 0.0996347 0.0970707 0.0954804 0.0950706 0.0953898 0.095985 0.103532 0.110901 0.106805 0.0869793 0.0502138 0.014697 0.000970117 2.93354e-06 1.21818e-09 3.53039e-13 -2.33228e-14 3.98443e-15 0 0.0750161 0.0896418 0.105984 0.115626 0.119284 0.119586 0.120505 0.120975 0.121363 0.1219 0.121613 0.120099 0.117254 0.114595 0.112867 0.112732 0.112755 0.114323 0.125839 0.129328 0.11917 0.0891328 0.0433885 0.00924925 0.000309749 4.64102e-07 2.56523e-10 1.05911e-13 -7.67858e-17 -2.32432e-14 0 0.0989632 0.109201 0.119295 0.126908 0.132204 0.134544 0.135264 0.135923 0.137291 0.138162 0.138239 0.136847 0.134679 0.13209 0.130746 0.130813 0.130281 0.135409 0.147867 0.146019 0.125467 0.0832551 0.0316853 0.00421237 6.37524e-05 6.01611e-08 4.07847e-11 2.05867e-14 -9.93435e-18 2.32166e-14 0 0.117931 0.125303 0.132074 0.138397 0.144121 0.147696 0.150063 0.151911 0.153447 0.154515 0.154291 0.153422 0.151877 0.149495 0.149203 0.148619 0.148858 0.161075 0.167501 0.156698 0.123063 0.0676306 0.0180981 0.00124222 7.69319e-06 7.49243e-09 5.70774e-12 2.64027e-14 1.56267e-17 -2.74014e-14 0 0.136185 0.141383 0.145878 0.1508 0.156336 0.161447 0.164786 0.167267 0.169446 0.170212 0.170355 0.170212 0.168419 0.167605 0.167577 0.165959 0.171658 0.186161 0.183057 0.157894 0.108396 0.0443534 0.0072538 0.000218756 5.53342e-07 7.33879e-10 7.16146e-13 7.95255e-16 2.32362e-14 2.74271e-14 0 0.154359 0.158024 0.161161 0.164797 0.169324 0.174336 0.179095 0.182628 0.18467 0.186129 0.186989 0.186239 0.185613 0.18625 0.184396 0.185667 0.201498 0.205071 0.187743 0.146164 0.0793449 0.0212144 0.00175582 2.0524e-05 3.48538e-08 5.19213e-11 6.81389e-14 -7.31006e-15 -7.27903e-15 -2.61226e-14 0 0.171938 0.174394 0.176703 0.179577 0.183489 0.188417 0.193414 0.197261 0.200484 0.202408 0.202566 0.202844 0.204239 0.202726 0.20202 0.215078 0.225171 0.213451 0.178454 0.115717 0.0426696 0.00655688 0.000228684 9.65625e-07 2.1617e-09 3.55232e-12 1.1032e-14 -5.0003e-14 -5.0027e-14 2.89893e-14 0 0.189727 0.191198 0.19303 0.195515 0.198942 0.203309 0.208263 0.21286 0.215849 0.217397 0.219246 0.221351 0.220156 0.219022 0.229988 0.244287 0.235863 0.205501 0.14809 0.0684004 0.0152206 0.00108519 1.36905e-05 3.70321e-08 9.3615e-11 1.56034e-13 -2.60796e-14 6.14538e-14 6.14592e-14 -2.61201e-14 0 0.207608 0.208305 0.2099 0.212235 0.215421 0.219491 0.224019 0.227853 0.23119 0.234943 0.237202 0.236247 0.235993 0.247579 0.262951 0.255529 0.227809 0.174486 0.0932305 0.0262477 0.00298648 8.34613e-05 3.85094e-07 1.43613e-09 3.88914e-12 6.27249e-14 1.2504e-18 -2.73959e-14 -2.73959e-14 1.22735e-17 0 0.22625 0.226315 0.227676 0.229727 0.232452 0.236006 0.240328 0.245177 0.24957 0.251349 0.251089 0.253452 0.268558 0.281347 0.272535 0.245492 0.194103 0.112979 0.0369528 0.00565213 0.000266733 2.43522e-06 1.07373e-08 3.92413e-11 1.67932e-13 3.26155e-16 6.03641e-23 6.90346e-23 -1.11715e-23 5.03655e-23 0 0.24538 0.244984 0.246274 0.248333 0.251253 0.255068 0.259219 0.262439 0.264236 0.266254 0.274298 0.29253 0.298253 0.286198 0.258021 0.206123 0.124757 0.0444723 0.00811574 0.000534987 8.49935e-06 4.56211e-08 2.46119e-10 1.15961e-12 -2.23752e-14 -5.47941e-14 -1.30466e-18 2.7396e-14 2.7396e-14 -1.23413e-17 0 0.266553 0.265806 0.266747 0.268175 0.270126 0.272457 0.275166 0.27907 0.287035 0.302838 0.315014 0.311601 0.295267 0.263965 0.209055 0.12645 0.0465313 0.00928272 0.000746176 1.72475e-05 1.21044e-07 8.93678e-10 4.93899e-12 -2.13266e-15 -1.12239e-17 5.4794e-14 2.73984e-14 -7.46946e-14 -7.46947e-14 2.74094e-14 0 0.285988 0.284964 0.285511 0.287033 0.290228 0.296176 0.306409 0.32044 0.33004 0.329067 0.318018 0.297283 0.260439 0.2005 0.116495 0.0421354 0.00856231 0.000755506 2.17273e-05 1.99062e-07 1.89234e-09 1.29906e-11 9.10879e-14 4.50556e-16 8.23875e-18 -5.47977e-14 -2.73984e-14 7.46946e-14 4.72923e-14 -5.48201e-14 0 0.321615 0.321432 0.32452 0.329855 0.336552 0.342401 0.344487 0.340826 0.33153 0.315522 0.287932 0.243392 0.177361 0.0948444 0.0322241 0.00623917 0.000553539 1.74056e-05 2.00105e-07 2.425e-09 2.13051e-11 2.35447e-13 2.28972e-16 2.7823e-17 -2.68576e-18 5.47978e-14 1.30453e-18 -2.73959e-14 6.68565e-18 2.74232e-14 0 0.359045 0.357214 0.355461 0.353176 0.34965 0.344087 0.335137 0.320257 0.296588 0.260236 0.207778 0.1373 0.0645351 0.0196498 0.00339334 0.000279656 8.65303e-06 1.23033e-07 1.90858e-09 2.13265e-11 2.48539e-13 2.3193e-15 2.7413e-14 -3.90024e-18 3.6993e-21 1.72219e-20 4.36118e-23 -1.59452e-18 2.7398e-14 2.73975e-14 0 0.345554 0.342811 0.33825 0.331457 0.321306 0.305998 0.28341 0.251547 0.207452 0.149598 0.084401 0.0333957 0.00858738 0.00124052 8.78328e-05 2.50631e-06 4.69187e-08 9.09774e-10 1.3283e-11 2.39603e-13 2.34757e-15 3.5346e-17 -5.48081e-14 4.49427e-16 4.61072e-16 -5.47979e-14 1.81305e-18 2.74006e-14 -2.73981e-14 -2.73978e-14 0 0.28468 0.280884 0.272157 0.258258 0.238058 0.21019 0.173389 0.127372 0.0769554 0.0349114 0.011173 0.00224628 0.000256916 1.44289e-05 4.04045e-07 1.11548e-08 2.53777e-10 5.12339e-12 9.05721e-14 2.00392e-16 2.74131e-14 -2.43834e-17 2.73956e-14 -4.74757e-16 -4.90229e-16 5.47956e-14 2.73931e-14 -2.74026e-14 -2.74072e-14 -6.02787e-18 0 0.162515 0.158246 0.146553 0.128098 0.103372 0.0739237 0.0442398 0.0211407 0.00743055 0.00176809 0.000265025 2.25739e-05 1.03875e-06 3.97763e-08 1.50825e-09 4.12478e-11 1.20069e-12 -1.17687e-15 4.96614e-16 2.91935e-17 -5.48015e-14 4.76522e-16 4.4369e-16 8.21024e-19 3.18393e-17 -5.47905e-14 -5.48193e-14 4.31297e-16 5.5261e-14 -4.73184e-14 0 0.0331172 0.0310699 0.025617 0.0182656 0.0108905 0.00516699 0.00184797 0.000474067 8.21469e-05 8.93801e-06 6.27102e-07 3.92546e-08 2.34865e-09 1.01208e-10 4.16231e-12 1.77278e-13 -2.23792e-14 7.14727e-18 2.7188e-18 -2.68672e-18 5.48014e-14 -4.61072e-16 -4.32067e-16 2.63488e-17 -2.6862e-18 5.47927e-14 5.48181e-14 -4.77295e-14 -7.51594e-14 7.47152e-14 0 0.000606647 0.000534606 0.00036432 0.000189203 7.31425e-05 2.04997e-05 4.09531e-06 6.05608e-07 7.6742e-08 9.05794e-09 8.43462e-10 5.92848e-11 3.97088e-12 2.27222e-13 8.60918e-15 3.26381e-16 -5.23712e-20 -1.43569e-19 3.56348e-18 3.57465e-18 -1.73124e-20 3.57036e-18 1.44548e-18 6.51292e-18 8.5813e-18 -1.30239e-18 8.02224e-19 -1.15494e-17 -7.82923e-18 1.76113e-18 0 1.93451e-07 1.67327e-07 1.09395e-07 5.54936e-08 2.24239e-08 7.2429e-09 1.82518e-09 3.50797e-10 5.36865e-11 7.2834e-12 8.58953e-13 7.87679e-14 5.30952e-15 2.61453e-14 -1.2108e-18 -5.47943e-14 -1.30466e-18 2.7396e-14 2.7396e-14 -1.30483e-18 -5.47943e-14 1.81301e-18 2.74012e-14 -3.51995e-17 -4.06619e-17 -3.22827e-18 -7.47308e-14 9.01247e-16 9.01068e-16 -7.47269e-14 0 2.59121e-11 2.34757e-11 1.74059e-11 1.05022e-11 5.13282e-12 2.02788e-12 6.14236e-13 1.55144e-13 2.84592e-14 -1.85347e-14 9.08873e-15 -1.5161e-15 -6.45472e-14 -5.88846e-14 2.73982e-14 5.47941e-14 2.73984e-14 -7.46946e-14 -7.46947e-14 2.73984e-14 5.47925e-14 2.73936e-14 -2.74027e-14 4.88582e-16 -4.68029e-14 -1.494e-13 9.46907e-16 4.87919e-17 4.89714e-17 9.69026e-16 0 1.08608e-14 1.02845e-14 1.79271e-15 -2.50642e-15 7.97859e-16 -3.72341e-15 2.3358e-14 -7.74262e-17 9.99369e-18 1.48322e-17 -3.15546e-14 1.52224e-15 6.45603e-14 5.88792e-14 -2.73982e-14 -5.47941e-14 -2.73984e-14 7.46946e-14 4.72923e-14 -5.48004e-14 -2.73924e-14 -2.73928e-14 -2.73998e-14 -4.65941e-16 7.42254e-14 1.49397e-13 -9.47086e-16 -4.8971e-17 -4.87078e-17 -9.68763e-16 0 4.67278e-10 2.33636e-10 -3.24356e-15 4.11841e-15 4.07606e-15 -1.74313e-16 -4.33227e-15 2.32437e-14 2.32165e-14 1.90212e-14 2.73645e-14 -2.03649e-14 -2.32302e-14 -2.6112e-14 -5.70079e-18 5.47984e-14 -5.62559e-18 -2.74028e-14 -8.76617e-18 2.73882e-14 2.73962e-14 2.73965e-14 5.4805e-14 -4.73071e-14 -7.47032e-14 9.70726e-18 7.4735e-14 -8.71084e-16 -8.71347e-16 7.47307e-14 0 2.41121e-05 0 0 0 0 0 0 0 0 0 0 0 0 0 0 0 0 0 0 0 0 0 0 0 0 0 0 0 0 0 0
				</DataArray>
			</PointData>
			<CellData Scalars="Density">
				<DataArray Name="Density" type="Float32" format="ascii">