<?xml version="1.0"?>
<VTKFile type="PolyData">
	<PolyData>
		<Piece NumberOfPoints="961" NumberOfPolys="900">
			<Points>
				<DataArray type="Float32" NumberOfComponents="3" format="ascii">
 0 0 0 0.04 0 0 0.08 0 0 0.12 0 0 0.16 0 0 0.2 0 0 0.24 0 0 0.28 0 0 0.32 0 0 0.36 0 0 0.4 0 0 0.44 0 0 0.48 0 0 0.52 0 0 0.56 0 0 0.6 0 0 0.64 0 0 0.68 0 0 0.72 0 0 0.76 0 0 0.8 0 0 0.84 0 0 0.88 0 0 0.92 0 0 0.96 0 0 1 0 0 1.04 0 0 1.08 0 0 1.12 0 0 1.16 0 0 1.2 0 0 0 0.04 0 0.04 0.04 0 0.08 0.04 0 0.12 0.04 0 0.16 0.04 0 0.2 0.04 0 0.24 0.04 0 0.28 0.04 0 0.32 0.04 0 0.36 0.04 0 0.4 0.04 0 0.44 0.04 0 0.48 0.04 0 0.52 0.04 0 0.56 0.04 0 0.6 0.04 0 0.64 0.04 0 0.68 0.04 0 0.72 0.04 0 0.76 0.04 0 0.8 0.04 0 0.84 0.04 0 0.88 0.04 0 0.92 0.04 0 0.96 0.04 0 1 0.04 0 1.04 0.04 0 1.08 0.04 0 1.12 0.04 0 1.16 0.04 0 1.2 0.04 0 0 0.08 0 0.04 0.08 0 0.08 0.08 0 0.12 0.08 0 0.16 0.08 0 0.2 0.08 0 0.24 0.08 0 0.28 0.08 0 0.32 0.08 0 0.36 0.08 0 0.4 0.08 0 0.44 0.08 0 0.48 0.08 0 0.52 0.08 0 0.56 0.08 0 0.6 0.08 0 0.64 0.08 0 0.68 0.08 0 0.72 0.08 0 0.76 0.08 0 0.8 0.08 0 0.84 0.08 0 0.88 0.08 0 0.92 0.08 0 0.96 0.08 0 1 0.08 0 1.04 0.08 0 1.08 0.08 0 1.12 0.08 0 1.16 0.08 0 1.2 0.08 0 0 0.12 0 0.04 0.12 0 0.08 0.12 0 0.12 0.12 0 0.16 0.12 0 0.2 0.12 0 0.24 0.12 0 0.28 0.12 0 0.32 0.12 0 0.36 0.12 0 0.4 0.12 0 0.44 0.12 0 0.48 0.12 0 0.52 0.12 0 0.56 0.12 0 0.6 0.12 0 0.64 0.12 0 0.68 0.12 0 0.72 0.12 0 0.76 0.12 0 0.8 0.12 0 0.84 0.12 0 0.88 0.12 0 0.92 0.12 0 0.96 0.12 0 1 0.12 0 1.04 0.12 0 1.08 0.12 0 1.12 0.12 0 1.16 0.12 0 1.2 0.12 0 0 0.16 0 0.04 0.16 0 0.08 0.16 0 0.12 0.16 0 0.16 0.16 0 0.2 0.16 0 0.24 0.16 0 0.28 0.16 0 0.32 0.16 0 0.36 0.16 0 0.4 0.16 0 0.44 0.16 0 0.48 0.16 0 0.52 0.16 0 0.56 0.16 0 0.6 0.16 0 0.64 0.16 0 0.68 0.16 0 0.72 0.16 0 0.76 0.16 0 0.8 0.16 0 0.84 0.16 0 0.88 0.16 0 0.92 0.16 0 0.96 0.16 0 1 0.16 0 1.04 0.16 0 1.08 0.16 0 1.12 0.16 0 1.16 0.16 0 1.2 0.16 0 0 0.2 0 0.04 0.2 0 0.08 0.2 0 0.12 0.2 0 0.16 0.2 0 0.2 0.2 0 0.24 0.2 0 0.28 0.2 0 0.32 0.2 0 0.36 0.2 0 0.4 0.2 0 0.44 0.2 0 0.48 0.2 0 0.52 0.2 0 0.56 0.2 0 0.6 0.2 0 0.64 0.2 0 0.68 0.2 0 0.72 0.2 0 0.76 0.2 0 0.8 0.2 0 0.84 0.2 0 0.88 0.2 0 0.92 0.2 0 0.96 0.2 0 1 0.2 0 1.04 0.2 0 1.08 0.2 0 1.12 0.2 0 1.16 0.2 0 1.2 0.2 0 0 0.24 0 0.04 0.24 0 0.08 0.24 0 0.12 0.24 0 0.16 0.24 0 0.2 0.24 0 0.24 0.24 0 0.28 0.24 0 0.32 0.24 0 0.36 0.24 0 0.4 0.24 0 0.44 0.24 0 0.48 0.24 0 0.52 0.24 0 0.56 0.24 0 0.6 0.24 0 0.64 0.24 0 0.68 0.24 0 0.72 0.24 0 0.76 0.24 0 0.8 0.24 0 0.84 0.24 0 0.88 0.24 0 0.92 0.24 0 0.96 0.24 0 1 0.24 0 1.04 0.24 0 1.08 0.24 0 1.12 0.24 0 1.16 0.24 0 1.2 0.24 0 0 0.28 0 0.04 0.28 0 0.08 0.28 0 0.12 0.28 0 0.16 0.28 0 0.2 0.28 0 0.24 0.28 0 0.28 0.28 0 0.32 0.28 0 0.36 0.28 0 0.4 0.28 0 0.44 0.28 0 0.48 0.28 0 0.52 0.28 0 0.56 0.28 0 0.6 0.28 0 0.64 0.28 0 0.68 0.28 0 0.72 0.28 0 0.76 0.28 0 0.8 0.28 0 0.84 0.28 0 0.88 0.28 0 0.92 0.28 0 0.96 0.28 0 1 0.28 0 1.04 0.28 0 1.08 0.28 0 1.12 0.28 0 1.16 0.28 0 1.2 0.28 0 0 0.32 0 0.04 0.32 0 0.08 0.32 0 0.12 0.32 0 0.16 0.32 0 0.2 0.32 0 0.24 0.32 0 0.28 0.32 0 0.32 0.32 0 0.36 0.32 0 0.4 0.32 0 0.44 0.32 0 0.48 0.32 0 0.52 0.32 0 0.56 0.32 0 0.6 0.32 0 0.64 0.32 0 0.68 0.32 0 0.72 0.32 0 0.76 0.32 0 0.8 0.32 0 0.84 0.32 0 0.88 0.32 0 0.92 0.32 0 0.96 0.32 0 1 0.32 0 1.04 0.32 0 1.08 0.32 0 1.12 0.32 0 1.16 0.32 0 1.2 0.32 0 0 0.36 0 0.04 0.36 0 0.08 0.36 0 0.12 0.36 0 0.16 0.36 0 0.2 0.36 0 0.24 0.36 0 0.28 0.36 0 0.32 0.36 0 0.36 0.36 0 0.4 0.36 0 0.44 0.36 0 0.48 0.36 0 0.52 0.36 0 0.56 0.36 0 0.6 0.36 0 0.64 0.36 0 0.68 0.36 0 0.72 0.36 0 0.76 0.36 0 0.8 0.36 0 0.84 0.36 0 0.88 0.36 0 0.92 0.36 0 0.96 0.36 0 1 0.36 0 1.04 0.36 0 1.08 0.36 0 1.12 0.36 0 1.16 0.36 0 1.2 0.36 0 0 0.4 0 0.04 0.4 0 0.08 0.4 0 0.12 0.4 0 0.16 0.4 0 0.2 0.4 0 0.24 0.4 0 0.28 0.4 0 0.32 0.4 0 0.36 0.4 0 0.4 0.4 0 0.44 0.4 0 0.48 0.4 0 0.52 0.4 0 0.56 0.4 0 0.6 0.4 0 0.64 0.4 0 0.68 0.4 0 0.72 0.4 0 0.76 0.4 0 0.8 0.4 0 0.84 0.4 0 0.88 0.4 0 0.92 0.4 0 0.96 0.4 0 1 0.4 0 1.04 0.4 0 1.08 0.4 0 1.12 0.4 0 1.16 0.4 0 1.2 0.4 0 0 0.44 0 0.04 0.44 0 0.08 0.44 0 0.12 0.44 0 0.16 0.44 0 0.2 0.44 0 0.24 0.44 0 0.28 0.44 0 0.32 0.44 0 0.36 0.44 0 0.4 0.44 0 0.44 0.44 0 0.48 0.44 0 0.52 0.44 0 0.56 0.44 0 0.6 0.44 0 0.64 0.44 0 0.68 0.44 0 0.72 0.44 0 0.76 0.44 0 0.8 0.44 0 0.84 0.44 0 0.88 0.44 0 0.92 0.44 0 0.96 0.44 0 1 0.44 0 1.04 0.44 0 1.08 0.44 0 1.12 0.44 0 1.16 0.44 0 1.2 0.44 0 0 0.48 0 0.04 0.48 0 0.08 0.48 0 0.12 0.48 0 0.16 0.48 0 0.2 0.48 0 0.24 0.48 0 0.28 0.48 0 0.32 0.48 0 0.36 0.48 0 0.4 0.48 0 0.44 0.48 0 0.48 0.48 0 0.52 0.48 0 0.56 0.48 0 0.6 0.48 0 0.64 0.48 0 0.68 0.48 0 0.72 0.48 0 0.76 0.48 0 0.8 0.48 0 0.84 0.48 0 0.88 0.48 0 0.92 0.48 0 0.96 0.48 0 1 0.48 0 1.04 0.48 0 1.08 0.48 0 1.12 0.48 0 1.16 0.48 0 1.2 0.48 0 0 0.52 0 0.04 0.52 0 0.08 0.52 0 0.12 0.52 0 0.16 0.52 0 0.2 0.52 0 0.24 0.52 0 0.28 0.52 0 0.32 0.52 0 0.36 0.52 0 0.4 0.52 0 0.44 0.52 0 0.48 0.52 0 0.52 0.52 0 0.56 0.52 0 0.6 0.52 0 0.64 0.52 0 0.68 0.52 0 0.72 0.52 0 0.76 0.52 0 0.8 0.52 0 0.84 0.52 0 0.88 0.52 0 0.92 0.52 0 0.96 0.52 0 1 0.52 0 1.04 0.52 0 1.08 0.52 0 1.12 0.52 0 1.16 0.52 0 1.2 0.52 0 0 0.56 0 0.04 0.56 0 0.08 0.56 0 0.12 0.56 0 0.16 0.56 0 0.2 0.56 0 0.24 0.56 0 0.28 0.56 0 0.32 0.56 0 0.36 0.56 0 0.4 0.56 0 0.44 0.56 0 0.48 0.56 0 0.52 0.56 0 0.56 0.56 0 0.6 0.56 0 0.64 0.56 0 0.68 0.56 0 0.72 0.56 0 0.76 0.56 0 0.8 0.56 0 0.84 0.56 0 0.88 0.56 0 0.92 0.56 0 0.96 0.56 0 1 0.56 0 1.04 0.56 0 1.08 0.56 0 1.12 0.56 0 1.16 0.56 0 1.2 0.56 0 0 0.6 0 0.04 0.6 0 0.08 0.6 0 0.12 0.6 0 0.16 0.6 0 0.2 0.6 0 0.24 0.6 0 0.28 0.6 0 0.32 0.6 0 0.36 0.6 0 0.4 0.6 0 0.44 0.6 0 0.48 0.6 0 0.52 0.6 0 0.56 0.6 0 0.6 0.6 0 0.64 0.6 0 0.68 0.6 0 0.72 0.6 0 0.76 0.6 0 0.8 0.6 0 0.84 0.6 0 0.88 0.6 0 0.92 0.6 0 0.96 0.6 0 1 0.6 0 1.04 0.6 0 1.08 0.6 0 1.12 0.6 0 1.16 0.6 0 1.2 0.6 0 0 0.64 0 0.04 0.64 0 0.08 0.64 0 0.12 0.64 0 0.16 0.64 0 0.2 0.64 0 0.24 0.64 0 0.28 0.64 0 0.32 0.64 0 0.36 0.64 0 0.4 0.64 0 0.44 0.64 0 0.48 0.64 0 0.52 0.64 0 0.56 0.64 0 0.6 0.64 0 0.64 0.64 0 0.68 0.64 0 0.72 0.64 0 0.76 0.64 0 0.8 0.64 0 0.84 0.64 0 0.88 0.64 0 0.92 0.64 0 0.96 0.64 0 1 0.64 0 1.04 0.64 0 1.08 0.64 0 1.12 0.64 0 1.16 0.64 0 1.2 0.64 0 0 0.68 0 0.04 0.68 0 0.08 0.68 0 0.12 0.68 0 0.16 0.68 0 0.2 0.68 0 0.24 0.68 0 0.28 0.68 0 0.32 0.68 0 0.36 0.68 0 0.4 0.68 0 0.44 0.68 0 0.48 0.68 0 0.52 0.68 0 0.56 0.68 0 0.6 0.68 0 0.64 0.68 0 0.68 0.68 0 0.72 0.68 0 0.76 0.68 0 0.8 0.68 0 0.84 0.68 0 0.88 0.68 0 0.92 0.68 0 0.96 0.68 0 1 0.68 0 1.04 0.68 0 1.08 0.68 0 1.12 0.68 0 1.16 0.68 0 1.2 0.68 0 0 0.72 0 0.04 0.72 0 0.08 0.72 0 0.12 0.72 0 0.16 0.72 0 0.2 0.72 0 0.24 0.72 0 0.28 0.72 0 0.32 0.72 0 0.36 0.72 0 0.4 0.72 0 0.44 0.72 0 0.48 0.72 0 0.52 0.72 0 0.56 0.72 0 0.6 0.72 0 0.64 0.72 0 0.68 0.72 0 0.72 0.72 0 0.76 0.72 0 0.8 0.72 0 0.84 0.72 0 0.88 0.72 0 0.92 0.72 0 0.96 0.72 0 1 0.72 0 1.04 0.72 0 1.08 0.72 0 1.12 0.72 0 1.16 0.72 0 1.2 0.72 0 0 0.76 0 0.04 0.76 0 0.08 0.76 0 0.12 0.76 0 0.16 0.76 0 0.2 0.76 0 0.24 0.76 0 0.28 0.76 0 0.32 0.76 0 0.36 0.76 0 0.4 0.76 0 0.44 0.76 0 0.48 0.76 0 0.52 0.76 0 0.56 0.76 0 0.6 0.76 0 0.64 0.76 0 0.68 0.76 0 0.72 0.76 0 0.76 0.76 0 0.8 0.76 0 0.84 0.76 0 0.88 0.76 0 0.92 0.76 0 0.96 0.76 0 1 0.76 0 1.04 0.76 0 1.08 0.76 0 1.12 0.76 0 1.16 0.76 0 1.2 0.76 0 0 0.8 0 0.04 0.8 0 0.08 0.8 0 0.12 0.8 0 0.16 0.8 0 0.2 0.8 0 0.24 0.8 0 0.28 0.8 0 0.32 0.8 0 0.36 0.8 0 0.4 0.8 0 0.44 0.8 0 0.48 0.8 0 0.52 0.8 0 0.56 0.8 0 0.6 0.8 0 0.64 0.8 0 0.68 0.8 0 0.72 0.8 0 0.76 0.8 0 0.8 0.8 0 0.84 0.8 0 0.88 0.8 0 0.92 0.8 0 0.96 0.8 0 1 0.8 0 1.04 0.8 0 1.08 0.8 0 1.12 0.8 0 1.16 0.8 0 1.2 0.8 0 0 0.84 0 0.04 0.84 0 0.08 0.84 0 0.12 0.84 0 0.16 0.84 0 0.2 0.84 0 0.24 0.84 0 0.28 0.84 0 0.32 0.84 0 0.36 0.84 0 0.4 0.84 0 0.44 0.84 0 0.48 0.84 0 0.52 0.84 0 0.56 0.84 0 0.6 0.84 0 0.64 0.84 0 0.68 0.84 0 0.72 0.84 0 0.76 0.84 0 0.8 0.84 0 0.84 0.84 0 0.88 0.84 0 0.92 0.84 0 0.96 0.84 0 1 0.84 0 1.04 0.84 0 1.08 0.84 0 1.12 0.84 0 1.16 0.84 0 1.2 0.84 0 0 0.88 0 0.04 0.88 0 0.08 0.88 0 0.12 0.88 0 0.16 0.88 0 0.2 0.88 0 0.24 0.88 0 0.28 0.88 0 0.32 0.88 0 0.36 0.88 0 0.4 0.88 0 0.44 0.88 0 0.48 0.88 0 0.52 0.88 0 0.56 0.88 0 0.6 0.88 0 0.64 0.88 0 0.68 0.88 0 0.72 0.88 0 0.76 0.88 0 0.8 0.88 0 0.84 0.88 0 0.88 0.88 0 0.92 0.88 0 0.96 0.88 0 1 0.88 0 1.04 0.88 0 1.08 0.88 0 1.12 0.88 0 1.16 0.88 0 1.2 0.88 0 0 0.92 0 0.04 0.92 0 0.08 0.92 0 0.12 0.92 0 0.16 0.92 0 0.2 0.92 0 0.24 0.92 0 0.28 0.92 0 0.32 0.92 0 0.36 0.92 0 0.4 0.92 0 0.44 0.92 0 0.48 0.92 0 0.52 0.92 0 0.56 0.92 0 0.6 0.92 0 0.64 0.92 0 0.68 0.92 0 0.72 0.92 0 0.76 0.92 0 0.8 0.92 0 0.84 0.92 0 0.88 0.92 0 0.92 0.92 0 0.96 0.92 0 1 0.92 0 1.04 0.92 0 1.08 0.92 0 1.12 0.92 0 1.16 0.92 0 1.2 0.92 0 0 0.96 0 0.04 0.96 0 0.08 0.96 0 0.12 0.96 0 0.16 0.96 0 0.2 0.96 0 0.24 0.96 0 0.28 0.96 0 0.32 0.96 0 0.36 0.96 0 0.4 0.96 0 0.44 0.96 0 0.48 0.96 0 0.52 0.96 0 0.56 0.96 0 0.6 0.96 0 0.64 0.96 0 0.68 0.96 0 0.72 0.96 0 0.76 0.96 0 0.8 0.96 0 0.84 0.96 0 0.88 0.96 0 0.92 0.96 0 0.96 0.96 0 1 0.96 0 1.04 0.96 0 1.08 0.96 0 1.12 0.96 0 1.16 0.96 0 1.2 0.96 0 0 1 0 0.04 1 0 0.08 1 0 0.12 1 0 0.16 1 0 0.2 1 0 0.24 1 0 0.28 1 0 0.32 1 0 0.36 1 0 0.4 1 0 0.44 1 0 0.48 1 0 0.52 1 0 0.56 1 0 0.6 1 0 0.64 1 0 0.68 1 0 0.72 1 0 0.76 1 0 0.8 1 0 0.84 1 0 0.88 1 0 0.92 1 0 0.96 1 0 1 1 0 1.04 1 0 1.08 1 0 1.12 1 0 1.16 1 0 1.2 1 0 0 1.04 0 0.04 1.04 0 0.08 1.04 0 0.12 1.04 0 0.16 1.04 0 0.2 1.04 0 0.24 1.04 0 0.28 1.04 0 0.32 1.04 0 0.36 1.04 0 0.4 1.04 0 0.44 1.04 0 0.48 1.04 0 0.52 1.04 0 0.56 1.04 0 0.6 1.04 0 0.64 1.04 0 0.68 1.04 0 0.72 1.04 0 0.76 1.04 0 0.8 1.04 0 0.84 1.04 0 0.88 1.04 0 0.92 1.04 0 0.96 1.04 0 1 1.04 0 1.04 1.04 0 1.08 1.04 0 1.12 1.04 0 1.16 1.04 0 1.2 1.04 0 0 1.08 0 0.04 1.08 0 0.08 1.08 0 0.12 1.08 0 0.16 1.08 0 0.2 1.08 0 0.24 1.08 0 0.28 1.08 0 0.32 1.08 0 0.36 1.08 0 0.4 1.08 0 0.44 1.08 0 0.48 1.08 0 0.52 1.08 0 0.56 1.08 0 0.6 1.08 0 0.64 1.08 0 0.68 1.08 0 0.72 1.08 0 0.76 1.08 0 0.8 1.08 0 0.84 1.08 0 0.88 1.08 0 0.92 1.08 0 0.96 1.08 0 1 1.08 0 1.04 1.08 0 1.08 1.08 0 1.12 1.08 0 1.16 1.08 0 1.2 1.08 0 0 1.12 0 
[...]
			<PointData Scalars="VitesseX">
				<DataArray Name="VitesseX" type="Float32" format="ascii">
 0 -0.0355882 -0.10156 -0.115429 -0.101509 -0.0452524 0.0285417 0.112946 0.190877 0.261869 0.324881 0.381288 0.431782 0.477141 0.518169 0.555647 0.590565 0.623984 0.65686 0.689749 0.72289 0.756654 0.791508 0.820644 0.768902 0.598634 0.269462 -0.128003 -0.36065 -0.349113 0 0 0.110481 0.105348 0.0650304 0.0506351 0.0782502 0.127016 0.188359 0.24844 0.307677 0.362772 0.412634 0.457378 0.497877 0.534701 0.568676 0.600721 0.631821 0.662721 0.6938 0.725383 0.757943 0.791895 0.821014 0.771726 0.605185 0.280559 -0.115254 -0.352566 -0.345994 0 0 0.10909 0.189649 0.220552 0.232243 0.239254 0.251575 0.283458 0.316942 0.354952 0.394118 0.433731 0.471586 0.506852 0.540198 0.572265 0.603485 0.634311 0.665127 0.696184 0.727776 0.760397 0.794522 0.825644 0.784952 0.629309 0.317024 -0.0759198 -0.327221 -0.33538 0 0 0.0919611 0.166453 0.217698 0.245538 0.264999 0.280755 0.308797 0.338993 0.371953 0.405764 0.438861 0.472217 0.505625 0.538438 0.570604 0.602284 0.633771 0.665329 0.697151 0.729542 0.762982 0.797892 0.831685 0.803871 0.663796 0.369412 -0.0185997 -0.289712 -0.319409 0 0 0.0552504 0.12124 0.18707 0.224083 0.255919 0.278981 0.304591 0.335226 0.367538 0.402923 0.437238 0.471327 0.504184 0.536333 0.568352 0.600333 0.632444 0.664745 0.697408 0.730782 0.765261 0.801165 0.837362 0.825193 0.703548 0.431801 0.0523758 -0.241212 -0.296295 0 0 0.0183877 0.0655234 0.133752 0.186983 0.231009 0.263893 0.291189 0.324768 0.357794 0.395175 0.430612 0.466412 0.500542 0.533442 0.565869 0.598258 0.630861 0.663825 0.6973 0.731663 0.767149 0.803915 0.841511 0.84639 0.744837 0.500476 0.134539 -0.180109 -0.263969 0 0 0.00309475 0.0345128 0.0856127 0.142319 0.189325 0.234279 0.268745 0.305941 0.341711 0.381211 0.418959 0.457219 0.493754 0.528421 0.562142 0.595563 0.629072 0.662866 0.697254 0.732566 0.768949 0.806412 0.844717 0.865222 0.785729 0.572544 0.225895 -0.105248 -0.220517 0 0 0.00279522 0.0301838 0.0707707 0.119367 0.157824 0.203745 0.240659 0.27975 0.318858 0.361137 0.402519 0.444103 0.483547 0.520857 0.556768 0.591943 0.626976 0.662099 0.697633 0.733861 0.770972 0.80895 0.847639 0.879679 0.825113 0.645475 0.321627 -0.0166699 -0.164573 0 0 0.00663775 0.0328779 0.0714413 0.115938 0.152976 0.194917 0.22953 0.265796 0.30372 0.343996 0.385056 0.427834 0.4705 0.511286 0.550091 0.587764 0.624778 0.661703 0.698646 0.735833 0.773528 0.811834 0.850775 0.888966 0.86249 0.716491 0.420679 0.0823104 -0.0961651 0 0 0.0120757 0.0384355 0.0761721 0.117968 0.156021 0.19529 0.229534 0.264105 0.300338 0.338232 0.377454 0.418544 0.460862 0.503308 0.544528 0.584471 0.623504 0.662001 0.700292 0.738474 0.776754 0.815346 0.854525 0.894525 0.89678 0.78281 0.520618 0.186877 -0.0182856 0 0 0.0182197 0.0462228 0.0838548 0.124261 0.162692 0.200149 0.234081 0.267315 0.302232 0.338813 0.376893 0.416736 0.458211 0.500421 0.542296 0.583353 0.623572 0.663264 0.702689 0.741765 0.780612 0.819559 0.858989 0.899206 0.924772 0.842584 0.619259 0.294006 0.0641217 0 0 0.0241842 0.055369 0.0934172 0.13383 0.172638 0.20975 0.24381 0.276168 0.309437 0.344316 0.380718 0.419057 0.459391 0.50102 0.542837 0.584299 0.625263 0.665777 0.705916 0.745706 0.78505 0.82439 0.864094 0.90454 0.9432 0.896107 0.714416 0.402844 0.14836 0 0 0.029267 0.0642065 0.103605 0.144562 0.184794 0.222836 0.258014 0.290499 0.322496 0.355748 0.390266 0.426515 0.464922 0.505177 0.546392 0.587794 0.628983 0.669715 0.710137 0.750275 0.79001 0.829685 0.869667 0.910544 0.952822 0.943937 0.802435 0.51224 0.231513 0 0 0.0336279 0.0717197 0.112445 0.154087 0.195701 0.235779 0.273436 0.307762 0.339735 0.371733 0.404558 0.438799 0.475053 0.513433 0.55329 0.593812 0.634508 0.674982 0.715296 0.755447 0.79541 0.835263 0.87556 0.916764 0.958653 0.983369 0.87991 0.621624 0.316139 0 0 0.0373097 0.0778561 0.119754 0.161932 0.204076 0.245284 0.284567 0.321153 0.355026 0.387568 0.420153 0.453362 0.487939 0.524391 0.562496 0.601639 0.641315 0.681188 0.721045 0.760977 0.800952 0.840931 0.881552 0.922856 0.966228 1.00672 0.947234 0.733351 0.406692 0 0 0.0401271 0.0824379 0.125192 0.167776 0.210149 0.251788 0.29196 0.329808 0.365139 0.398801 0.431892 0.465153 0.499184 0.534665 0.571629 0.609642 0.648383 0.687495 0.726811 0.766396 0.80615 0.846431 0.887195 0.928963 0.974885 1.01489 1.00787 0.845728 0.505044 0 0 0.0419201 0.0853116 0.128628 0.171437 0.21379 0.255509 0.295971 0.334551 0.370951 0.4057 0.439663 0.473281 0.507277 0.542349 0.578684 0.616093 0.654223 0.692856 0.731929 0.771209 0.81104 0.851581 0.892416 0.93592 0.981218 1.01961 1.06146 0.946878 0.606413 0 0 0.0427619 0.0866347 0.130197 0.173068 0.215294 0.25683 0.297291 0.336165 0.373248 0.408937 0.443677 0.477952 0.512385 0.547519 0.58369 0.620807 0.65866 0.69716 0.736022 0.775387 0.815585 0.856014 0.89802 0.943189 0.984926 1.03344 1.10259 1.01992 0.69751 0 0 0.0429751 0.0869093 0.130497 0.173317 0.215387 0.256705 0.297012 0.335921 0.373319 0.409479 0.444786 0.479728 0.514784 0.550352 0.586699 0.62387 0.661798 0.700238 0.739242 0.779097 0.819249 0.860359 0.90489 0.947338 0.989801 1.06838 1.12028 1.04679 0.758435 0 0 0.0429408 0.0867589 0.130198 0.172798 0.214497 0.255285 0.295146 0.333965 0.371663 0.408322 0.444198 0.479668 0.515228 0.551262 0.588029 0.62554 0.66365 0.70239 0.741961 0.781893 0.82253 0.866201 0.90947 0.950158 1.00984 1.10077 1.10868 1.02443 0.755543 0 0 0.0427148 0.0861009 0.129083 0.171129 0.212171 0.252235 0.291482 0.330024 0.367878 0.405087 0.441772 0.478132 0.514451 0.551044 0.588227 0.626137 0.664703 0.704058 0.743823 0.784267 0.827317 0.870932 0.911392 0.962881 1.05289 1.09349 1.06341 0.931678 0.63535 0 0 0.0421744 0.0848369 0.12697 0.168248 0.208488 0.247866 0.286553 0.324767 0.362679 0.400349 0.437778 0.475044 0.512321 0.549799 0.587672 0.626119 0.665354 0.705028 0.745459 0.788231 0.831733 0.872384 0.920415 1.00433 1.05995 1.05089 0.964619 0.747032 0.379272 0 0 0.0414274 0.0828868 0.124177 0.164311 0.203872 0.242685 0.281129 0.319346 0.357455 0.39548 0.433429 0.471369 0.509421 0.547772 0.586577 0.625867 0.665571 0.706142 0.74887 0.791959 0.832874 0.880121 0.959207 1.02156 1.02476 0.962159 0.78734 0.460625 0.13681 0 0 0.0401827 0.081377 0.120421 0.160525 0.198976 0.2377 0.276188 0.314661 0.353113 0.391523 0.429917 0.468392 0.507089 0.546145 0.585608 0.625585 0.666475 0.709198 0.751685 0.792968 0.841297 0.918304 0.980908 0.991343 0.943074 0.79733 0.509627 0.178282 0.0286654 0 0 0.0408819 0.078075 0.121962 0.159421 0.200582 0.238758 0.276104 0.312868 0.350546 0.388625 0.427228 0.466278 0.505627 0.545277 0.585476 0.626686 0.669196 0.711122 0.753086 0.80435 0.881049 0.939052 0.952511 0.912291 0.785403 0.528959 0.207556 0.0404824 0.00279977 0 0 0.0343099 0.0808034 0.116532 0.167475 0.209266 0.251335 0.289291 0.324927 0.360395 0.395659 0.430483 0.467069 0.505801 0.545849 0.58714 0.629045 0.670516 0.714128 0.770573 0.845693 0.896028 0.908831 0.871754 0.75551 0.521421 0.219301 0.0487206 0.00421192 0.000101827 0 0 0.0295829 0.0521712 0.11823 0.165724 0.226234 0.274597 0.315415 0.351288 0.384528 0.41633 0.447788 0.481299 0.517019 0.552813 0.590247 0.631437 0.678605 0.741151 0.809174 0.851289 0.860127 0.821957 0.709589 0.490102 0.21213 0.0509543 0.00509651 0.000159144 9.65948e-07 0 0 -0.0189761 0.0231057 0.0676643 0.16921 0.23878 0.295358 0.341028 0.379284 0.413353 0.446125 0.478104 0.51018 0.54261 0.574772 0.609914 0.653973 0.71211 0.771717 0.805691 0.80705 0.763374 0.648672 0.437821 0.188159 0.0467197 0.00504325 0.000183504 1.42801e-06 5.64107e-09 0 0 -0.102235 -0.0904402 0.0855158 0.168873 0.235429 0.288134 0.331422 0.370193 0.408294 0.446258 0.48529 0.526004 0.567661 0.611645 0.659211 0.709216 0.753411 0.772812 0.764055 0.706632 0.578882 0.369718 0.152619 0.0374114 0.00408896 0.000158169 1.42575e-06 6.74255e-09 3.4868e-11 0 0 -0.18907 0.00675687 0.104304 0.177186 0.239088 0.295713 0.349376 0.399934 0.445937 0.489509 0.534143 0.580745 0.634647 0.693294 0.750917 0.799719 0.824175 0.808359 0.723355 0.546952 0.310144 0.115581 0.0258987 0.00268244 0.000100718 9.61178e-07 5.61802e-09 3.48066e-11 3.26436e-13 0 0 0 0 0 0 0 0 0 0 0 0 0 0 0 0 0 0 0 0 0 0 0 0 0 0 0 0 0 0 0 0
				</DataArray>
				<DataArray Name="VitesseY" type="Float32" format="ascii">
 0 0 0 0 0 0 0 0 0 0 0 0 0 0 0 0 0 0 0 0 0 0 0 0 0 0 0 0 0 0 0 -0.0355243 0.110498 0.109088 0.0919513 0.0552372 0.0183803 0.00309065 0.00278991 0.00663376 0.0120724 0.0182162 0.0241813 0.0292652 0.0336272 0.0373102 0.0401284 0.0419218 0.0427638 0.0429765 0.0429428 0.0427131 0.0421836 0.0413658 0.0408979 0.0432344 0.0490648 0.056576 0.0584309 0.0522101 0.0463681 0 -0.101505 0.105373 0.189642 0.166438 0.121223 0.0655098 0.0345055 0.03018 0.0328736 0.0384309 0.0462186 0.0553648 0.0642029 0.0717178 0.077856 0.082439 0.0853137 0.0866367 0.0869118 0.0867596 0.0861054 0.084816 0.0829835 0.0815617 0.0855739 0.0961134 0.110211 0.11439 0.104124 0.092599 0 -0.115384 0.0650679 0.220549 0.217692 0.187059 0.133738 0.085605 0.0707658 0.071437 0.0761692 0.0838514 0.0934125 0.1036 0.112441 0.119753 0.125193 0.12863 0.1302 0.130499 0.130201 0.129081 0.126985 0.124089 0.121503 0.126267 0.14005 0.159146 0.167172 0.154197 0.140897 0 -0.101486 0.0506559 0.232243 0.245528 0.224074 0.186974 0.14231 0.119362 0.115935 0.117963 0.124256 0.133825 0.144556 0.154083 0.16193 0.167777 0.171439 0.173071 0.173319 0.1728 0.171133 0.168235 0.164377 0.160677 0.165456 0.180993 0.203915 0.216475 0.20286 0.191463 0 -0.0452412 0.0782663 0.239259 0.264998 0.255915 0.231004 0.189321 0.157822 0.15297 0.156016 0.162687 0.172631 0.184787 0.195697 0.204074 0.21015 0.213792 0.215297 0.215389 0.2145 0.212172 0.208495 0.203857 0.199343 0.203461 0.219509 0.244934 0.262485 0.24976 0.243967 0 0.0285515 0.127022 0.251576 0.280755 0.278982 0.263892 0.234277 0.203742 0.194912 0.195283 0.200141 0.209741 0.222828 0.235774 0.245282 0.251789 0.255512 0.256833 0.256708 0.255288 0.252238 0.247866 0.242699 0.237805 0.240553 0.255991 0.282832 0.305087 0.293365 0.297291 0 0.112948 0.188361 0.283456 0.308797 0.304591 0.29119 0.268747 0.240659 0.229526 0.229528 0.234073 0.243801 0.258004 0.27343 0.284565 0.291961 0.295974 0.297295 0.297016 0.29515 0.291485 0.286555 0.281134 0.276233 0.2768 0.290934 0.318347 0.344216 0.333263 0.349874 0 0.190874 0.248442 0.316942 0.338993 0.335227 0.32477 0.305943 0.279751 0.265793 0.2641 0.267308 0.27616 0.29049 0.307755 0.32115 0.329808 0.334553 0.336168 0.335924 0.333968 0.330026 0.324769 0.319349 0.314681 0.313013 0.325373 0.352124 0.380246 0.370803 0.400083 0 0.261862 0.307675 0.354954 0.371952 0.367538 0.357795 0.341713 0.318861 0.303719 0.300335 0.302227 0.309431 0.322489 0.339728 0.355022 0.365138 0.370951 0.37325 0.373321 0.371665 0.36788 0.36268 0.357456 0.353118 0.350568 0.360494 0.384735 0.413632 0.408431 0.445973 0 0.324868 0.362768 0.394121 0.405763 0.402922 0.395174 0.381213 0.36114 0.343997 0.338231 0.338811 0.344313 0.355744 0.371728 0.387564 0.398799 0.405699 0.408937 0.40948 0.408323 0.405088 0.400349 0.39548 0.391523 0.388627 0.395679 0.416379 0.446187 0.446296 0.489514 0 0.381271 0.412628 0.433734 0.438859 0.437235 0.43061 0.418959 0.402522 0.38506 0.377456 0.376894 0.380718 0.390264 0.404555 0.42015 0.43189 0.439661 0.443676 0.444785 0.444197 0.441772 0.437778 0.433429 0.429916 0.427228 0.430486 0.447795 0.478116 0.485295 0.534143 0 0.431761 0.457371 0.471587 0.472216 0.471323 0.466408 0.457218 0.444105 0.427839 0.418549 0.41674 0.41906 0.426516 0.438798 0.45336 0.465151 0.473278 0.47795 0.479726 0.479666 0.47813 0.475043 0.471368 0.468392 0.466277 0.467068 0.481299 0.51018 0.526002 0.580743 0 0.477119 0.497869 0.50685 0.505623 0.50418 0.500537 0.493752 0.483548 0.470506 0.460869 0.458217 0.459396 0.464925 0.475053 0.487937 0.499182 0.507274 0.512381 0.514781 0.515225 0.514449 0.51232 0.50942 0.507089 0.505627 0.5058 0.517019 0.54261 0.56766 0.634645 0 0.518145 0.534693 0.540194 0.538434 0.536329 0.533437 0.528418 0.520857 0.511291 0.503316 0.500428 0.501026 0.505182 0.513435 0.52439 0.534663 0.542346 0.547516 0.550348 0.551259 0.551041 0.549797 0.54777 0.546144 0.545276 0.545848 0.552813 0.574772 0.611644 0.693292 0 0.555625 0.568669 0.57226 0.5706 0.568348 0.565864 0.562138 0.556768 0.550095 0.544535 0.542303 0.542843 0.546397 0.553292 0.562496 0.571627 0.578681 0.583687 0.586695 0.588026 0.588224 0.587669 0.586576 0.585607 0.585474 0.58714 0.590247 0.609914 0.65921 0.750916 0 0.590546 0.600714 0.60348 0.602279 0.600329 0.598254 0.595559 0.591943 0.587767 0.584476 0.583359 0.584305 0.587798 0.593815 0.601639 0.60964 0.61609 0.620803 0.623867 0.625537 0.626134 0.626116 0.625865 0.625584 0.626685 0.629044 0.631437 0.653972 0.709216 0.799719 0 0.623968 0.631814 0.634305 0.633766 0.632439 0.630857 0.629069 0.626975 0.62478 0.623508 0.623576 0.625268 0.628987 0.63451 0.641314 0.648381 0.65422 0.658657 0.661795 0.663646 0.6647 0.665352 0.665569 0.666473 0.669195 0.670516 0.678604 0.712109 0.753411 0.824178 0 0.656845 0.662714 0.665121 0.665324 0.66474 0.663821 0.662863 0.662098 0.661704 0.662003 0.663267 0.665781 0.669718 0.674983 0.681188 0.687493 0.692853 0.697156 0.700235 0.702386 0.704055 0.705026 0.70614 0.709197 0.711121 0.714128 0.741151 0.771718 0.772814 0.808363 0 0.689736 0.693791 0.696177 0.697145 0.697403 0.697297 0.697251 0.697632 0.698646 0.700293 0.702691 0.705918 0.710139 0.715297 0.721045 0.726809 0.731926 0.736019 0.739238 0.741958 0.74382 0.745457 0.748868 0.751684 0.753086 0.770573 0.809174 0.805693 0.764058 0.723362 0 0.722873 0.725373 0.727767 0.729534 0.730778 0.731658 0.732563 0.73386 0.735832 0.738474 0.741765 0.745707 0.750276 0.755447 0.760976 0.766394 0.771206 0.775384 0.779094 0.78189 0.784265 0.78823 0.791958 0.792968 0.80435 0.845694 0.851291 0.807053 0.706636 0.54696 0 0.756639 0.757915 0.760385 0.762976 0.765253 0.767152 0.768947 0.770973 0.773528 0.776754 0.780612 0.78505 0.79001 0.79541 0.800952 0.806148 0.811038 0.815582 0.819246 0.822528 0.827315 0.831732 0.832874 0.841298 0.88105 0.89603 0.86013 0.763378 0.578888 0.310151 0 0.791458 0.791947 0.794568 0.797956 0.801258 0.803943 0.806444 0.808962 0.811838 0.815346 0.819559 0.82439 0.829685 0.835263 0.84093 0.846429 0.851579 0.856011 0.860356 0.866199 0.870931 0.872384 0.880122 0.918305 0.939055 0.908834 0.821961 0.648677 0.369724 0.115584 0 0.826449 0.825923 0.829534 0.834154 0.838395 0.842152 0.844952 0.847749 0.850806 0.854528 0.858988 0.864093 0.869667 0.87556 0.881552 0.887194 0.892413 0.898018 0.904888 0.909469 0.911392 0.920416 0.959209 0.98091 0.952513 0.871757 0.709593 0.437825 0.152622 0.0258995 0 0.811524 0.81296 0.817845 0.826935 0.839796 0.853112 0.86811 0.880448 0.889096 0.894539 0.899206 0.904539 0.910544 0.916764 0.922855 0.928961 0.935918 0.943187 0.947336 0.950157 0.962881 1.00433 1.02156 0.991345 0.912293 0.755513 0.490106 0.188161 0.0374122 0.00268255 0 0.703665 0.698278 0.70448 0.714723 0.730814 0.758573 0.790493 0.826596 0.862972 0.896903 0.924797 0.943204 0.952822 0.958653 0.966228 0.974884 0.981216 0.984925 0.989801 1.00984 1.0529 1.05995 1.02476 0.943075 0.785405 0.521423 0.212132 0.0467203 0.00408906 0.000100723 0 0.46673 0.466799 0.452073 0.451513 0.476026 0.516488 0.578397 0.647211 0.717031 0.782958 0.842623 0.896117 0.94394 0.983371 1.00672 1.01489 1.01961 1.03344 1.06839 1.10077 1.09349 1.05089 0.96216 0.79733 0.528958 0.2193 0.0509544 0.0050433 0.000158173 9.61221e-07 0 0.184119 0.141969 0.099574 0.0632831 0.0781304 0.145614 0.229347 0.322502 0.420989 0.52073 0.619293 0.714428 0.802441 0.879915 0.947238 1.00788 1.06147 1.10259 1.12028 1.10868 1.06341 0.964619 0.787339 0.509625 0.207554 0.0487202 0.00509647 0.000183504 1.42577e-06 5.61819e-09 0 -0.0408665 -0.0579144 -0.248299 -0.278554 -0.233756 -0.179406 -0.105617 -0.0167204 0.082358 0.186904 0.294017 0.402853 0.512248 0.621632 0.733358 0.845734 0.946883 1.01992 1.04679 1.02443 0.931677 0.747029 0.460621 0.17828 0.0404816 0.00421183 0.00015914 1.42799e-06 6.74255e-09 3.48074e-11 0 0.116956 -0.183967 -0.380532 -0.317471 -0.301866 -0.266354 -0.221263 -0.164829 -0.0962447 -0.0182993 0.0641257 0.148365 0.231519 0.316145 0.406698 0.50505 0.606419 0.697514 0.758437 0.755543 0.635346 0.379266 0.136807 0.0286646 0.00279967 0.000101822 9.65905e-07 5.6409e-09 3.48672e-11 3.26436e-13 0 2.5179 0 0 0 0 0 0 0 0 0 0 0 0 0 0 0 0 0 0 0 0 0 0 0 0 0 0 0 0 0 0
				</DataArray>
			</PointData>
			<CellData Scalars="Density">
				<DataArray Name="Density" type="Float32" format="ascii">