<?xml version="1.0"?>
<VTKFile type="PolyData">
	<PolyData>
		<Piece NumberOfPoints="961" NumberOfPolys="900">
			<Points>
				<DataArray type="Float32" NumberOfComponents="3" format="ascii">
 0 0 0 0.04 0 0 0.08 0 0 0.12 0 0 0.16 0 0 0.2 0 0 0.24 0 0 0.28 0 0 0.32 0 0 0.36 0 0 0.4 0 0 0.44 0 0 0.48 0 0 0.52 0 0 0.56 0 0 0.6 0 0 0.64 0 0 0.68 0 0 0.72 0 0 0.76 0 0 0.8 0 0 0.84 0 0 0.88 0 0 0.92 0 0 0.96 0 0 1 0 0 1.04 0 0 1.08 0 0 1.12 0 0 1.16 0 0 1.2 0 0 0 0.04 0 0.04 0.04 0 0.08 0.04 0 0.12 0.04 0 0.16 0.04 0 0.2 0.04 0 0.24 0.04 0 0.28 0.04 0 0.32 0.04 0 0.36 0.04 0 0.4 0.04 0 0.44 0.04 0 0.48 0.04 0 0.52 0.04 0 0.56 0.04 0 0.6 0.04 0 0.64 0.04 0 0.68 0.04 0 0.72 0.04 0 0.76 0.04 0 0.8 0.04 0 0.84 0.04 0 0.88 0.04 0 0.92 0.04 0 0.96 0.04 0 1 0.04 0 1.04 0.04 0 1.08 0.04 0 1.12 0.04 0 1.16 0.04 0 1.2 0.04 0 0 0.08 0 0.04 0.08 0 0.08 0.08 0 0.12 0.08 0 0.16 0.08 0 0.2 0.08 0 0.24 0.08 0 0.28 0.08 0 0.32 0.08 0 0.36 0.08 0 0.4 0.08 0 0.44 0.08 0 0.48 0.08 0 0.52 0.08 0 0.56 0.08 0 0.6 0.08 0 0.64 0.08 0 0.68 0.08 0 0.72 0.08 0 0.76 0.08 0 0.8 0.08 0 0.84 0.08 0 0.88 0.08 0 0.92 0.08 0 0.96 0.08 0 1 0.08 0 1.04 0.08 0 1.08 0.08 0 1.12 0.08 0 1.16 0.08 0 1.2 0.08 0 0 0.12 0 0.04 0.12 0 0.08 0.12 0 0.12 0.12 0 0.16 0.12 0 0.2 0.12 0 0.24 0.12 0 0.28 0.12 0 0.32 0.12 0 0.36 0.12 0 0.4 0.12 0 0.44 0.12 0 0.48 0.12 0 0.52 0.12 0 0.56 0.12 0 0.6 0.12 0 0.64 0.12 0 0.68 0.12 0 0.72 0.12 0 0.76 0.12 0 0.8 0.12 0 0.84 0.12 0 0.88 0.12 0 0.92 0.12 0 0.96 0.12 0 1 0.12 0 1.04 0.12 0 1.08 0.12 0 1.12 0.12 0 1.16 0.12 0 1.2 0.12 0 0 0.16 0 0.04 0.16 0 0.08 0.16 0 0.12 0.16 0 0.16 0.16 0 0.2 0.16 0 0.24 0.16 0 0.28 0.16 0 0.32 0.16 0 0.36 0.16 0 0.4 0.16 0 0.44 0.16 0 0.48 0.16 0 0.52 0.16 0 0.56 0.16 0 0.6 0.16 0 0.64 0.16 0 0.68 0.16 0 0.72 0.16 0 0.76 0.16 0 0.8 0.16 0 0.84 0.16 0 0.88 0.16 0 0.92 0.16 0 0.96 0.16 0 1 0.16 0 1.04 0.16 0 1.08 0.16 0 1.12 0.16 0 1.16 0.16 0 1.2 0.16 0 0 0.2 0 0.04 0.2 0 0.08 0.2 0 0.12 0.2 0 0.16 0.2 0 0.2 0.2 0 0.24 0.2 0 0.28 0.2 0 0.32 0.2 0 0.36 0.2 0 0.4 0.2 0 0.44 0.2 0 0.48 0.2 0 0.52 0.2 0 0.56 0.2 0 0.6 0.2 0 0.64 0.2 0 0.68 0.2 0 0.72 0.2 0 0.76 0.2 0 0.8 0.2 0 0.84 0.2 0 0.88 0.2 0 0.92 0.2 0 0.96 0.2 0 1 0.2 0 1.04 0.2 0 1.08 0.2 0 1.12 0.2 0 1.16 0.2 0 1.2 0.2 0 0 0.24 0 0.04 0.24 0 0.08 0.24 0 0.12 0.24 0 0.16 0.24 0 0.2 0.24 0 0.24 0.24 0 0.28 0.24 0 0.32 0.24 0 0.36 0.24 0 0.4 0.24 0 0.44 0.24 0 0.48 0.24 0 0.52 0.24 0 0.56 0.24 0 0.6 0.24 0 0.64 0.24 0 0.68 0.24 0 0.72 0.24 0 0.76 0.24 0 0.8 0.24 0 0.84 0.24 0 0.88 0.24 0 0.92 0.24 0 0.96 0.24 0 1 0.24 0 1.04 0.24 0 1.08 0.24 0 1.12 0.24 0 1.16 0.24 0 1.2 0.24 0 0 0.28 0 0.04 0.28 0 0.08 0.28 0 0.12 0.28 0 0.16 0.28 0 0.2 0.28 0 0.24 0.28 0 0.28 0.28 0 0.32 0.28 0 0.36 0.28 0 0.4 0.28 0 0.44 0.28 0 0.48 0.28 0 0.52 0.28 0 0.56 0.28 0 0.6 0.28 0 0.64 0.28 0 0.68 0.28 0 0.72 0.28 0 0.76 0.28 0 0.8 0.28 0 0.84 0.28 0 0.88 0.28 0 0.92 0.28 0 0.96 0.28 0 1 0.28 0 1.04 0.28 0 1.08 0.28 0 1.12 0.28 0 1.16 0.28 0 1.2 0.28 0 0 0.32 0 0.04 0.32 0 0.08 0.32 0 0.12 0.32 0 0.16 0.32 0 0.2 0.32 0 0.24 0.32 0 0.28 0.32 0 0.32 0.32 0 0.36 0.32 0 0.4 0.32 0 0.44 0.32 0 0.48 0.32 0 0.52 0.32 0 0.56 0.32 0 0.6 0.32 0 0.64 0.32 0 0.68 0.32 0 0.72 0.32 0 0.76 0.32 0 0.8 0.32 0 0.84 0.32 0 0.88 0.32 0 0.92 0.32 0 0.96 0.32 0 1 0.32 0 1.04 0.32 0 1.08 0.32 0 1.12 0.32 0 1.16 0.32 0 1.2 0.32 0 0 0.36 0 0.04 0.36 0 0.08 0.36 0 0.12 0.36 0 0.16 0.36 0 0.2 0.36 0 0.24 0.36 0 0.28 0.36 0 0.32 0.36 0 0.36 0.36 0 0.4 0.36 0 0.44 0.36 0 0.48 0.36 0 0.52 0.36 0 0.56 0.36 0 0.6 0.36 0 0.64 0.36 0 0.68 0.36 0 0.72 0.36 0 0.76 0.36 0 0.8 0.36 0 0.84 0.36 0 0.88 0.36 0 0.92 0.36 0 0.96 0.36 0 1 0.36 0 1.04 0.36 0 1.08 0.36 0 1.12 0.36 0 1.16 0.36 0 1.2 0.36 0 0 0.4 0 0.04 0.4 0 0.08 0.4 0 0.12 0.4 0 0.16 0.4 0 0.2 0.4 0 0.24 0.4 0 0.28 0.4 0 0.32 0.4 0 0.36 0.4 0 0.4 0.4 0 0.44 0.4 0 0.48 0.4 0 0.52 0.4 0 0.56 0.4 0 0.6 0.4 0 0.64 0.4 0 0.68 0.4 0 0.72 0.4 0 0.76 0.4 0 0.8 0.4 0 0.84 0.4 0 0.88 0.4 0 0.92 0.4 0 0.96 0.4 0 1 0.4 0 1.04 0.4 0 1.08 0.4 0 1.12 0.4 0 1.16 0.4 0 1.2 0.4 0 0 0.44 0 0.04 0.44 0 0.08 0.44 0 0.12 0.44 0 0.16 0.44 0 0.2 0.44 0 0.24 0.44 0 0.28 0.44 0 0.32 0.44 0 0.36 0.44 0 0.4 0.44 0 0.44 0.44 0 0.48 0.44 0 0.52 0.44 0 0.56 0.44 0 0.6 0.44 0 0.64 0.44 0 0.68 0.44 0 0.72 0.44 0 0.76 0.44 0 0.8 0.44 0 0.84 0.44 0 0.88 0.44 0 0.92 0.44 0 0.96 0.44 0 1 0.44 0 1.04 0.44 0 1.08 0.44 0 1.12 0.44 0 1.16 0.44 0 1.2 0.44 0 0 0.48 0 0.04 0.48 0 0.08 0.48 0 0.12 0.48 0 0.16 0.48 0 0.2 0.48 0 0.24 0.48 0 0.28 0.48 0 0.32 0.48 0 0.36 0.48 0 0.4 0.48 0 0.44 0.48 0 0.48 0.48 0 0.52 0.48 0 0.56 0.48 0 0.6 0.48 0 0.64 0.48 0 0.68 0.48 0 0.72 0.48 0 0.76 0.48 0 0.8 0.48 0 0.84 0.48 0 0.88 0.48 0 0.92 0.48 0 0.96 0.48 0 1 0.48 0 1.04 0.48 0 1.08 0.48 0 1.12 0.48 0 1.16 0.48 0 1.2 0.48 0 0 0.52 0 0.04 0.52 0 0.08 0.52 0 0.12 0.52 0 0.16 0.52 0 0.2 0.52 0 0.24 0.52 0 0.28 0.52 0 0.32 0.52 0 0.36 0.52 0 0.4 0.52 0 0.44 0.52 0 0.48 0.52 0 0.52 0.52 0 0.56 0.52 0 0.6 0.52 0 0.64 0.52 0 0.68 0.52 0 0.72 0.52 0 0.76 0.52 0 0.8 0.52 0 0.84 0.52 0 0.88 0.52 0 0.92 0.52 0 0.96 0.52 0 1 0.52 0 1.04 0.52 0 1.08 0.52 0 1.12 0.52 0 1.16 0.52 0 1.2 0.52 0 0 0.56 0 0.04 0.56 0 0.08 0.56 0 0.12 0.56 0 0.16 0.56 0 0.2 0.56 0 0.24 0.56 0 0.28 0.56 0 0.32 0.56 0 0.36 0.56 0 0.4 0.56 0 0.44 0.56 0 0.48 0.56 0 0.52 0.56 0 0.56 0.56 0 0.6 0.56 0 0.64 0.56 0 0.68 0.56 0 0.72 0.56 0 0.76 0.56 0 0.8 0.56 0 0.84 0.56 0 0.88 0.56 0 0.92 0.56 0 0.96 0.56 0 1 0.56 0 1.04 0.56 0 1.08 0.56 0 1.12 0.56 0 1.16 0.56 0 1.2 0.56 0 0 0.6 0 0.04 0.6 0 0.08 0.6 0 0.12 0.6 0 0.16 0.6 0 0.2 0.6 0 0.24 0.6 0 0.28 0.6 0 0.32 0.6 0 0.36 0.6 0 0.4 0.6 0 0.44 0.6 0 0.48 0.6 0 0.52 0.6 0 0.56 0.6 0 0.6 0.6 0 0.64 0.6 0 0.68 0.6 0 0.72 0.6 0 0.76 0.6 0 0.8 0.6 0 0.84 0.6 0 0.88 0.6 0 0.92 0.6 0 0.96 0.6 0 1 0.6 0 1.04 0.6 0 1.08 0.6 0 1.12 0.6 0 1.16 0.6 0 1.2 0.6 0 0 0.64 0 0.04 0.64 0 0.08 0.64 0 0.12 0.64 0 0.16 0.64 0 0.2 0.64 0 0.24 0.64 0 0.28 0.64 0 0.32 0.64 0 0.36 0.64 0 0.4 0.64 0 0.44 0.64 0 0.48 0.64 0 0.52 0.64 0 0.56 0.64 0 0.6 0.64 0 0.64 0.64 0 0.68 0.64 0 0.72 0.64 0 0.76 0.64 0 0.8 0.64 0 0.84 0.64 0 0.88 0.64 0 0.92 0.64 0 0.96 0.64 0 1 0.64 0 1.04 0.64 0 1.08 0.64 0 1.12 0.64 0 1.16 0.64 0 1.2 0.64 0 0 0.68 0 0.04 0.68 0 0.08 0.68 0 0.12 0.68 0 0.16 0.68 0 0.2 0.68 0 0.24 0.68 0 0.28 0.68 0 0.32 0.68 0 0.36 0.68 0 0.4 0.68 0 0.44 0.68 0 0.48 0.68 0 0.52 0.68 0 0.56 0.68 0 0.6 0.68 0 0.64 0.68 0 0.68 0.68 0 0.72 0.68 0 0.76 0.68 0 0.8 0.68 0 0.84 0.68 0 0.88 0.68 0 0.92 0.68 0 0.96 0.68 0 1 0.68 0 1.04 0.68 0 1.08 0.68 0 1.12 0.68 0 1.16 0.68 0 1.2 0.68 0 0 0.72 0 0.04 0.72 0 0.08 0.72 0 0.12 0.72 0 0.16 0.72 0 0.2 0.72 0 0.24 0.72 0 0.28 0.72 0 0.32 0.72 0 0.36 0.72 0 0.4 0.72 0 0.44 0.72 0 0.48 0.72 0 0.52 0.72 0 0.56 0.72 0 0.6 0.72 0 0.64 0.72 0 0.68 0.72 0 0.72 0.72 0 0.76 0.72 0 0.8 0.72 0 0.84 0.72 0 0.88 0.72 0 0.92 0.72 0 0.96 0.72 0 1 0.72 0 1.04 0.72 0 1.08 0.72 0 1.12 0.72 0 1.16 0.72 0 1.2 0.72 0 0 0.76 0 0.04 0.76 0 0.08 0.76 0 0.12 0.76 0 0.16 0.76 0 0.2 0.76 0 0.24 0.76 0 0.28 0.76 0 0.32 0.76 0 0.36 0.76 0 0.4 0.76 0 0.44 0.76 0 0.48 0.76 0 0.52 0.76 0 0.56 0.76 0 0.6 0.76 0 0.64 0.76 0 0.68 0.76 0 0.72 0.76 0 0.76 0.76 0 0.8 0.76 0 0.84 0.76 0 0.88 0.76 0 0.92 0.76 0 0.96 0.76 0 1 0.76 0 1.04 0.76 0 1.08 0.76 0 1.12 0.76 0 1.16 0.76 0 1.2 0.76 0 0 0.8 0 0.04 0.8 0 0.08 0.8 0 0.12 0.8 0 0.16 0.8 0 0.2 0.8 0 0.24 0.8 0 0.28 0.8 0 0.32 0.8 0 0.36 0.8 0 0.4 0.8 0 0.44 0.8 0 0.48 0.8 0 0.52 0.8 0 0.56 0.8 0 0.6 0.8 0 0.64 0.8 0 0.68 0.8 0 0.72 0.8 0 0.76 0.8 0 0.8 0.8 0 0.84 0.8 0 0.88 0.8 0 0.92 0.8 0 0.96 0.8 0 1 0.8 0 1.04 0.8 0 1.08 0.8 0 1.12 0.8 0 1.16 0.8 0 1.2 0.8 0 0 0.84 0 0.04 0.84 0 0.08 0.84 0 0.12 0.84 0 0.16 0.84 0 0.2 0.84 0 0.24 0.84 0 0.28 0.84 0 0.32 0.84 0 0.36 0.84 0 0.4 0.84 0 0.44 0.84 0 0.48 0.84 0 0.52 0.84 0 0.56 0.84 0 0.6 0.84 0 0.64 0.84 0 0.68 0.84 0 0.72 0.84 0 0.76 0.84 0 0.8 0.84 0 0.84 0.84 0 0.88 0.84 0 0.92 0.84 0 0.96 0.84 0 1 0.84 0 1.04 0.84 0 1.08 0.84 0 1.12 0.84 0 1.16 0.84 0 1.2 0.84 0 0 0.88 0 0.04 0.88 0 0.08 0.88 0 0.12 0.88 0 0.16 0.88 0 0.2 0.88 0 0.24 0.88 0 0.28 0.88 0 0.32 0.88 0 0.36 0.88 0 0.4 0.88 0 0.44 0.88 0 0.48 0.88 0 0.52 0.88 0 0.56 0.88 0 0.6 0.88 0 0.64 0.88 0 0.68 0.88 0 0.72 0.88 0 0.76 0.88 0 0.8 0.88 0 0.84 0.88 0 0.88 0.88 0 0.92 0.88 0 0.96 0.88 0 1 0.88 0 1.04 0.88 0 1.08 0.88 0 1.12 0.88 0 1.16 0.88 0 1.2 0.88 0 0 0.92 0 0.04 0.92 0 0.08 0.92 0 0.12 0.92 0 0.16 0.92 0 0.2 0.92 0 0.24 0.92 0 0.28 0.92 0 0.32 0.92 0 0.36 0.92 0 0.4 0.92 0 0.44 0.92 0 0.48 0.92 0 0.52 0.92 0 0.56 0.92 0 0.6 0.92 0 0.64 0.92 0 0.68 0.92 0 0.72 0.92 0 0.76 0.92 0 0.8 0.92 0 0.84 0.92 0 0.88 0.92 0 0.92 0.92 0 0.96 0.92 0 1 0.92 0 1.04 0.92 0 1.08 0.92 0 1.12 0.92 0 1.16 0.92 0 1.2 0.92 0 0 0.96 0 0.04 0.96 0 0.08 0.96 0 0.12 0.96 0 0.16 0.96 0 0.2 0.96 0 0.24 0.96 0 0.28 0.96 0 0.32 0.96 0 0.36 0.96 0 0.4 0.96 0 0.44 0.96 0 0.48 0.96 0 0.52 0.96 0 0.56 0.96 0 0.6 0.96 0 0.64 0.96 0 0.68 0.96 0 0.72 0.96 0 0.76 0.96 0 0.8 0.96 0 0.84 0.96 0 0.88 0.96 0 0.92 0.96 0 0.96 0.96 0 1 0.96 0 1.04 0.96 0 1.08 0.96 0 1.12 0.96 0 1.16 0.96 0 1.2 0.96 0 0 1 0 0.04 1 0 0.08 1 0 0.12 1 0 0.16 1 0 0.2 1 0 0.24 1 0 0.28 1 0 0.32 1 0 0.36 1 0 0.4 1 0 0.44 1 0 0.48 1 0 0.52 1 0 0.56 1 0 0.6 1 0 0.64 1 0 0.68 1 0 0.72 1 0 0.76 1 0 0.8 1 0 0.84 1 0 0.88 1 0 0.92 1 0 0.96 1 0 1 1 0 1.04 1 0 1.08 1 0 1.12 1 0 1.16 1 0 1.2 1 0 0 1.04 0 0.04 1.04 0 0.08 1.04 0 0.12 1.04 0 0.16 1.04 0 0.2 1.04 0 0.24 1.04 0 0.28 1.04 0 0.32 1.04 0 0.36 1.04 0 0.4 1.04 0 0.44 1.04 0 0.48 1.04 0 0.52 1.04 0 0.56 1.04 0 0.6 1.04 0 0.64 1.04 0 0.68 1.04 0 0.72 1.04 0 0.76 1.04 0 0.8 1.04 0 0.84 1.04 0 0.88 1.04 0 0.92 1.04 0 0.96 1.04 0 1 1.04 0 1.04 1.04 0 1.08 1.04 0 1.12 1.04 0 1.16 1.04 0 1.2 1.04 0 0 1.08 0 0.04 1.08 0 0.08 1.08 0 0.12 1.08 0 0.16 1.08 0 0.2 1.08 0 0.24 1.08 0 0.28 1.08 0 0.32 1.08 0 0.36 1.08 0 0.4 1.08 0 0.44 1.08 0 0.48 1.08 0 0.52 1.08 0 0.56 1.08 0 0.6 1.08 0 0.64 1.08 0 0.68 1.08 0 0.72 1.08 0 0.76 1.08 0 0.8 1.08 0 0.84 1.08 0 0.88 1.08 0 0.92 1.08 0 0.96 1.08 0 1 1.08 0 1.04 1.08 0 1.08 1.08 0 1.12 1.08 0 1.16 1.08 0 1.2 1.08 0 0 1.12 0 
[...]
			<PointData Scalars="VitesseX">
				<DataArray Name="VitesseX" type="Float32" format="ascii">
 0 0.060322 0.0418055 0.116556 0.0298513 0.211571 0.260449 0.315934 0.405106 0.458181 0.575889 0.696813 0.63886 0.443575 0.151199 0.00801061 9.1883e-06 4.84622e-10 2.81711e-14 -1.448e-22 -1.10726e-15 1.1127e-15 -1.1127e-15 2.97679e-45 1.1127e-15 0 -1.1127e-15 1.1127e-15 -3.78162e-15 3.78162e-15 0 0 0.124982 0.18556 0.175527 0.120831 0.237248 0.285685 0.329229 0.411985 0.458607 0.579919 0.688565 0.625872 0.427182 0.139139 0.00676415 7.20572e-06 4.20476e-10 2.54124e-14 -2.16173e-22 -1.10726e-15 1.1127e-15 -1.1127e-15 4.9854e-31 1.1127e-15 0 -1.1127e-15 1.1127e-15 -3.77694e-15 3.77694e-15 0 0 0.0893607 0.166639 0.197688 0.22767 0.26458 0.316229 0.348268 0.42552 0.464366 0.602501 0.677908 0.600173 0.385903 0.107261 0.00402898 3.48786e-06 2.6925e-10 1.99427e-14 -5.60724e-16 -1.87263e-15 2.4317e-15 -5.56352e-16 -9.6219e-31 -1.319e-15 -1.22905e-45 1.319e-15 5.65249e-16 -3.77038e-15 1.88613e-15 0 0 0.0213215 0.115961 0.206191 0.248057 0.303707 0.333523 0.381476 0.440598 0.480382 0.634483 0.659836 0.556523 0.317765 0.0657802 0.00163899 1.05397e-06 1.21579e-10 1.00146e-14 1.31463e-15 -1.319e-15 1.87535e-15 -1.87535e-15 -6.7259e-30 8.89732e-18 -2.1765e-34 -8.89732e-18 8.89726e-18 -1.88425e-15 1.88425e-15 0 0 0.036851 0.127067 0.18451 0.261184 0.310779 0.341154 0.416852 0.442379 0.517025 0.651595 0.627366 0.48489 0.223072 0.0300466 0.000435625 2.06847e-07 3.72569e-11 4.39116e-15 1.85664e-15 -1.87535e-15 6.74041e-30 8.89731e-18 -1.88425e-15 1.88425e-15 1.69916e-30 3.3685e-30 -1.88425e-15 2.54369e-30 1.88425e-15 0 0 0.0541632 0.121366 0.183538 0.251529 0.292973 0.36744 0.413832 0.443959 0.580751 0.634925 0.567157 0.376391 0.119314 0.00929535 7.0399e-05 2.98153e-08 7.85087e-12 3.17899e-15 -2.23285e-17 -1.87174e-15 1.88425e-15 3.37834e-23 -3.37834e-23 -1.88425e-15 -8.52483e-31 1.88427e-15 1.85641e-17 -1.90297e-15 1.29724e-19 0 0 0.0455182 0.105175 0.166687 0.228418 0.30219 0.362066 0.391782 0.490169 0.601448 0.585169 0.465132 0.231171 0.0441101 0.0017903 6.25276e-06 3.41521e-09 1.23221e-12 2.98892e-16 1.88064e-15 3.61285e-18 1.39159e-23 9.48982e-21 -9.48982e-21 -1.88425e-15 6.65884e-30 1.90287e-15 -1.10811e-14 1.1081e-14 -1.90271e-15 0 0 0.0452713 0.0979922 0.159172 0.227157 0.288615 0.333548 0.418995 0.542137 0.562806 0.493074 0.311276 0.0970378 0.0101181 0.000187568 3.01901e-07 2.63531e-10 1.44766e-13 -1.772e-15 1.87432e-15 9.8367e-18 8.98152e-20 -5.53672e-15 3.64978e-15 1.90554e-15 3.08987e-20 -1.10811e-14 -6.65835e-24 6.65835e-24 1.10811e-14 0 0 0.0460146 0.0972287 0.154485 0.213418 0.274573 0.364669 0.472528 0.513772 0.475078 0.341592 0.141433 0.0252522 0.00124891 8.84048e-06 1.19443e-08 1.28568e-11 1.06324e-14 4.03832e-20 -7.43097e-15 7.44945e-15 -1.10978e-14 5.5612e-15 3.63116e-15 1.90554e-15 3.08987e-20 -1.10811e-14 -5.21338e-18 5.20437e-18 1.10811e-14 0 0 0.0466576 0.098258 0.157324 0.228682 0.317707 0.400238 0.445841 0.425377 0.327307 0.158878 0.0387402 0.00340848 6.62032e-05 1.86177e-07 4.06818e-10 5.54975e-13 -1.4232e-15 3.78714e-15 -7.42105e-15 -5.54397e-15 1.4209e-18 1.10793e-14 -1.90288e-15 -8.02061e-31 6.67555e-30 1.90285e-15 -1.10863e-14 8.36138e-18 9.17148e-15 0 0 0.0579159 0.121307 0.189637 0.260391 0.325886 0.365078 0.353482 0.278849 0.146206 0.0424024 0.00520798 0.00018613 1.17531e-06 3.71113e-09 8.50468e-12 1.58223e-14 1.65651e-17 1.90286e-15 4.6912e-21 -1.29972e-14 1.29972e-14 -1.90289e-15 1.90285e-15 -1.90285e-15 -4.81765e-40 6.67767e-30 3.80575e-15 -1.48837e-14 1.29773e-14 0 0 0.0647657 0.12944 0.191497 0.245265 0.274806 0.266003 0.207609 0.110955 0.0347512 0.00505924 0.000254105 2.83623e-06 1.28394e-08 5.33792e-11 1.80092e-13 2.29959e-15 -1.90288e-15 -9.39375e-18 9.44872e-18 -1.35917e-17 1.91646e-15 -1.90292e-15 1.88993e-15 -1.8899e-15 -9.70032e-22 -8.12669e-20 3.80583e-15 -3.80589e-15 -9.17862e-15 0 0 0.0593912 0.113111 0.1557 0.17728 0.168775 0.127379 0.0666308 0.0207123 0.00315317 0.000182644 2.82301e-06 1.92931e-08 1.31666e-10 6.38899e-13 7.64196e-15 -1.1011e-14 1.10784e-14 -1.29915e-14 1.29916e-14 -2.14044e-20 -1.10775e-14 1.10774e-14 -1.2995e-14 1.29951e-14 -8.06801e-20 5.96539e-22 -3.41333e-14 3.41332e-14 -1.10815e-14 0 0 0.0394835 0.0687768 0.0827317 0.0784733 0.0570187 0.0277602 0.00790146 0.00112718 6.41454e-05 1.15695e-06 1.26821e-08 1.3101e-10 9.57132e-13 1.66011e-14 2.04518e-19 -1.10785e-14 -7.89105e-18 7.04256e-18 1.10793e-14 4.17433e-20 -1.10775e-14 1.10774e-14 -1.10792e-14 -3.64278e-18 1.77218e-18 1.29839e-14 -3.60362e-14 3.60361e-14 -1.29887e-14 0 0 0.0132896 0.0210016 0.020971 0.013972 0.00584286 0.00140661 0.000169477 8.48541e-06 1.79615e-07 3.62184e-09 5.24668e-11 6.21142e-13 1.65541e-14 -1.87936e-15 1.31338e-19 1.90272e-15 -1.10862e-14 7.03168e-18 9.17642e-15 1.90287e-15 -7.06996e-20 -1.90285e-15 -9.17876e-15 -1.31503e-18 1.7821e-18 -7.49304e-20 1.2984e-14 -1.2984e-14 -4.72609e-18 0 0 0.00108192 0.00131438 0.000814962 0.00029068 5.72522e-05 5.6446e-06 2.79048e-07 1.11701e-08 3.9118e-10 8.18982e-12 1.65334e-13 1.15828e-14 -3.80588e-15 1.31335e-19 -1.74288e-38 -1.29719e-19 1.90298e-15 -1.10793e-14 9.17648e-15 -9.17649e-15 1.10792e-14 -1.29844e-14 1.90286e-15 1.29844e-14 -7.94052e-20 -2.59678e-14 2.59678e-14 -2.59678e-14 2.59681e-14 0 0 1.67615e-06 1.57646e-06 6.64852e-07 1.51808e-07 2.34631e-08 2.91454e-09 2.39142e-10 1.18008e-11 5.21089e-13 1.51918e-14 2.16454e-15 -1.10108e-14 1.10784e-14 -1.90298e-15 1.29719e-19 1.90285e-15 -1.90285e-15 1.9029e-15 -1.9029e-15 -9.17646e-15 -3.67568e-18 1.27554e-18 1.29846e-14 -1.29841e-14 -9.61738e-21 -7.4946e-20 1.2984e-14 -1.2984e-14 -4.72608e-18 0 0 6.39161e-11 8.7045e-11 6.05768e-11 2.37562e-11 5.6539e-12 9.67022e-13 1.24612e-13 9.74343e-15 -1.4564e-15 1.66309e-17 1.90281e-15 -1.10784e-14 -7.86925e-18 1.10862e-14 -1.90272e-15 1.90285e-15 -1.90285e-15 1.90289e-15 -1.29894e-14 1.48922e-14 -2.59751e-14 2.5975e-14 -1.29888e-14 4.85195e-18 -9.71783e-21 1.29839e-14 -3.60361e-14 3.60361e-14 -1.29887e-14 0 0 2.75916e-15 2.7314e-15 3.44905e-15 2.19842e-15 -9.82303e-16 7.44042e-17 1.99649e-15 4.03795e-20 1.85686e-17 -1.90286e-15 -9.45968e-18 -9.16698e-15 -7.03877e-18 7.04967e-18 1.10793e-14 -1.90281e-15 1.90281e-15 -1.10863e-14 7.27426e-17 -2.31239e-14 2.3124e-14 -7.28998e-17 3.83542e-19 3.00649e-18 1.84217e-18 1.29839e-14 -3.60362e-14 2.30489e-14 -1.83841e-18 0 0 6.89461e-17 -5.46537e-16 -1.32337e-15 1.89407e-15 -3.77303e-15 1.88786e-15 -1.89418e-15 -3.64254e-15 7.45817e-15 -3.8057e-15 -9.42672e-18 -9.16697e-15 1.10792e-14 -1.2982e-14 1.29821e-14 -1.90288e-15 -9.1836e-15 7.30058e-17 3.95584e-18 -2.31281e-14 2.3124e-14 -7.28609e-17 3.44406e-18 -6.3643e-20 1.85189e-18 -7.4946e-20 1.2984e-14 -2.59711e-14 1.29821e-14 0 0 6.89461e-17 -1.87263e-15 2.4317e-15 -1.87535e-15 -1.87897e-15 3.77211e-15 -3.77852e-15 -3.62387e-15 -5.544e-15 9.16433e-15 1.35697e-17 3.80576e-15 -3.8058e-15 1.90291e-15 -1.29821e-14 1.2982e-14 -1.10863e-14 -2.29783e-14 2.29823e-14 -4.0874e-18 1.0592e-20 1.29891e-14 -2.59715e-14 2.59715e-14 -7.69001e-24 -2.59678e-14 2.59678e-14 -1.29838e-14 1.2984e-14 0 0 -2.42892e-30 -1.319e-15 1.87535e-15 -3.7507e-15 1.88425e-15 -6.29526e-24 -8.95985e-20 -1.10606e-14 -1.44923e-18 9.16436e-15 1.91637e-15 -1.10774e-14 1.10774e-14 -5.92933e-20 -1.10792e-14 -3.7526e-18 -3.33232e-18 -2.29783e-14 2.29782e-14 1.06237e-20 8.73376e-18 -8.82497e-18 7.64091e-17 -7.29388e-17 1.85237e-18 6.97894e-20 1.29838e-14 -1.29838e-14 1.29839e-14 0 0 -1.25981e-45 5.56352e-16 -1.87535e-15 8.89728e-18 3.3931e-30 9.50374e-21 -5.53674e-15 -5.52394e-15 1.10793e-14 -1.90281e-15 1.90278e-15 -1.10774e-14 1.10774e-14 -1.90283e-15 -9.17876e-15 -1.38481e-18 -3.34153e-18 7.2822e-17 -7.28609e-17 1.29891e-14 -2.59696e-14 1.29806e-14 7.27694e-17 -6.94714e-17 1.71503e-18 1.29841e-14 -1.29858e-14 -1.29854e-14 2.59714e-14 0 0 0 1.1127e-15 -3.7507e-15 1.88425e-15 -6.29526e-24 9.51003e-21 -7.42369e-15 7.44231e-15 -1.90288e-15 1.90285e-15 -1.91582e-15 -9.16344e-15 1.10792e-14 -1.29844e-14 1.90286e-15 1.29844e-14 -1.29888e-14 -4.11995e-19 3.47249e-18 -1.91398e-19 6.96946e-17 -7.29706e-17 -5.18008e-21 3.40425e-18 5.01251e-18 -8.4415e-18 7.63595e-17 -7.45813e-17 -2.3058e-14 0 0 -3.33536e-30 -1.319e-15 8.89728e-18 -1.88425e-15 1.88425e-15 -1.88425e-15 1.90016e-15 -1.90016e-15 -2.40709e-30 1.90285e-15 -1.91579e-15 -9.16342e-15 -3.7855e-18 1.34532e-18 1.29845e-14 -1.29839e-14 -4.97287e-18 3.11454e-18 -6.36543e-20 -4.66695e-22 7.29388e-17 -7.6387e-17 3.51229e-18 -6.36485e-20 5.15947e-18 -8.73915e-18 -2.29733e-14 3.59621e-14 -3.6045e-14 0 0 -1.8205e-29 -3.7507e-15 3.7685e-15 -3.7685e-15 8.5248e-31 9.69103e-30 3.80573e-15 -3.80573e-15 -6.68432e-30 4.82451e-40 9.68975e-22 3.80574e-15 -2.59699e-14 2.59698e-14 -6.01565e-20 -2.59679e-14 2.59679e-14 -2.59697e-14 2.59697e-14 5.76403e-24 -2.59697e-14 2.59696e-14 -2.59663e-14 2.59664e-14 -7.49517e-20 -1.70549e-19 -7.20762e-14 7.2076e-14 4.37562e-19 0 0 -3.68253e-30 -1.319e-15 8.89728e-18 -6.76218e-30 -1.88422e-15 1.90282e-15 -1.10811e-14 1.10811e-14 -1.90285e-15 -6.67767e-30 -8.12834e-20 3.80583e-15 -1.29842e-14 7.4946e-20 3.05261e-38 -7.4946e-20 1.2984e-14 -1.2984e-14 7.4946e-20 3.67315e-34 6.97738e-20 1.29837e-14 -2.59697e-14 2.59697e-14 1.53155e-22 -3.60564e-14 1.62086e-16 -1.62017e-16 3.60565e-14 0 0 -4.1982e-31 5.65249e-16 -3.7596e-15 1.88425e-15 1.86123e-17 -1.10811e-14 -1.24803e-35 -5.21338e-18 1.10863e-14 4.75795e-20 -1.26044e-19 -3.41332e-14 3.60359e-14 -1.29839e-14 -4.16417e-43 1.29839e-14 -3.60361e-14 3.60361e-14 -1.29838e-14 -3.85317e-20 1.2984e-14 -1.29858e-14 6.95203e-17 -2.31195e-14 -5.0943e-18 1.30742e-16 3.52431e-17 -3.51745e-17 -1.11098e-16 0 0 -2.86341e-16 -5.17708e-16 -1.88425e-15 -1.71603e-30 1.90271e-15 -1.1081e-14 1.89343e-23 -5.22242e-18 8.37942e-18 1.1078e-14 -1.45948e-19 -3.41333e-14 3.6036e-14 -1.29839e-14 -3.52645e-43 1.29839e-14 -3.60362e-14 2.30489e-14 3.35816e-18 1.29839e-14 -1.29839e-14 -1.29891e-14 2.60458e-14 -3.61088e-14 -4.88133e-18 1.30811e-16 3.51746e-17 -3.51745e-17 -1.11098e-16 0 0 -6.06802e-12 -2.39283e-15 1.88425e-15 -1.88425e-15 -1.29718e-19 1.90299e-15 -1.10811e-14 1.10811e-14 -1.29843e-14 1.29844e-14 -1.29847e-14 1.48874e-14 -1.2989e-14 5.09875e-18 -2.06852e-47 -5.09875e-18 1.2989e-14 -2.59765e-14 1.29926e-14 1.29839e-14 -1.29839e-14 -3.28911e-18 -2.30586e-14 3.60454e-14 1.59105e-19 -3.60562e-14 1.81447e-16 -1.81447e-16 3.60563e-14 0 0 0 0 0 0 0 0 0 0 0 0 0 0 0 0 0 0 0 0 0 0 0 0 0 0 0 0 0 0 0 0
				</DataArray>
				<DataArray Name="VitesseY" type="Float32" format="ascii">