<?xml version="1.0"?>
<VTKFile type="PolyData">
	<PolyData>
		<Piece NumberOfPoints="961" NumberOfPolys="900">
			<Points>
				<DataArray type="Float32" NumberOfComponents="3" format="ascii">
 0 0 0 0.04 0 0 0.08 0 0 0.12 0 0 0.16 0 0 0.2 0 0 0.24 0 0 0.28 0 0 0.32 0 0 0.36 0 0 0.4 0 0 0.44 0 0 0.48 0 0 0.52 0 0 0.56 0 0 0.6 0 0 0.64 0 0 0.68 0 0 0.72 0 0 0.76 0 0 0.8 0 0 0.84 0 0 0.88 0 0 0.92 0 0 0.96 0 0 1 0 0 1.04 0 0 1.08 0 0 1.12 0 0 1.16 0 0 1.2 0 0 0 0.04 0 0.04 0.04 0 0.08 0.04 0 0.12 0.04 0 0.16 0.04 0 0.2 0.04 0 0.24 0.04 0 0.28 0.04 0 0.32 0.04 0 0.36 0.04 0 0.4 0.04 0 0.44 0.04 0 0.48 0.04 0 0.52 0.04 0 0.56 0.04 0 0.6 0.04 0 0.64 0.04 0 0.68 0.04 0 0.72 0.04 0 0.76 0.04 0 0.8 0.04 0 0.84 0.04 0 0.88 0.04 0 0.92 0.04 0 0.96 0.04 0 1 0.04 0 1.04 0.04 0 1.08 0.04 0 1.12 0.04 0 1.16 0.04 0 1.2 0.04 0 0 0.08 0 0.04 0.08 0 0.08 0.08 0 0.12 0.08 0 0.16 0.08 0 0.2 0.08 0 0.24 0.08 0 0.28 0.08 0 0.32 0.08 0 0.36 0.08 0 0.4 0.08 0 0.44 0.08 0 0.48 0.08 0 0.52 0.08 0 0.56 0.08 0 0.6 0.08 0 0.64 0.08 0 0.68 0.08 0 0.72 0.08 0 0.76 0.08 0 0.8 0.08 0 0.84 0.08 0 0.88 0.08 0 0.92 0.08 0 0.96 0.08 0 1 0.08 0 1.04 0.08 0 1.08 0.08 0 1.12 0.08 0 1.16 0.08 0 1.2 0.08 0 0 0.12 0 0.04 0.12 0 0.08 0.12 0 0.12 0.12 0 0.16 0.12 0 0.2 0.12 0 0.24 0.12 0 0.28 0.12 0 0.32 0.12 0 0.36 0.12 0 0.4 0.12 0 0.44 0.12 0 0.48 0.12 0 0.52 0.12 0 0.56 0.12 0 0.6 0.12 0 0.64 0.12 0 0.68 0.12 0 0.72 0.12 0 0.76 0.12 0 0.8 0.12 0 0.84 0.12 0 0.88 0.12 0 0.92 0.12 0 0.96 0.12 0 1 0.12 0 1.04 0.12 0 1.08 0.12 0 1.12 0.12 0 1.16 0.12 0 1.2 0.12 0 0 0.16 0 0.04 0.16 0 0.08 0.16 0 0.12 0.16 0 0.16 0.16 0 0.2 0.16 0 0.24 0.16 0 0.28 0.16 0 0.32 0.16 0 0.36 0.16 0 0.4 0.16 0 0.44 0.16 0 0.48 0.16 0 0.52 0.16 0 0.56 0.16 0 0.6 0.16 0 0.64 0.16 0 0.68 0.16 0 0.72 0.16 0 0.76 0.16 0 0.8 0.16 0 0.84 0.16 0 0.88 0.16 0 0.92 0.16 0 0.96 0.16 0 1 0.16 0 1.04 0.16 0 1.08 0.16 0 1.12 0.16 0 1.16 0.16 0 1.2 0.16 0 0 0.2 0 0.04 0.2 0 0.08 0.2 0 0.12 0.2 0 0.16 0.2 0 0.2 0.2 0 0.24 0.2 0 0.28 0.2 0 0.32 0.2 0 0.36 0.2 0 0.4 0.2 0 0.44 0.2 0 0.48 0.2 0 0.52 0.2 0 0.56 0.2 0 0.6 0.2 0 0.64 0.2 0 0.68 0.2 0 0.72 0.2 0 0.76 0.2 0 0.8 0.2 0 0.84 0.2 0 0.88 0.2 0 0.92 0.2 0 0.96 0.2 0 1 0.2 0 1.04 0.2 0 1.08 0.2 0 1.12 0.2 0 1.16 0.2 0 1.2 0.2 0 0 0.24 0 0.04 0.24 0 0.08 0.24 0 0.12 0.24 0 0.16 0.24 0 0.2 0.24 0 0.24 0.24 0 0.28 0.24 0 0.32 0.24 0 0.36 0.24 0 0.4 0.24 0 0.44 0.24 0 0.48 0.24 0 0.52 0.24 0 0.56 0.24 0 0.6 0.24 0 0.64 0.24 0 0.68 0.24 0 0.72 0.24 0 0.76 0.24 0 0.8 0.24 0 0.84 0.24 0 0.88 0.24 0 0.92 0.24 0 0.96 0.24 0 1 0.24 0 1.04 0.24 0 1.08 0.24 0 1.12 0.24 0 1.16 0.24 0 1.2 0.24 0 0 0.28 0 0.04 0.28 0 0.08 0.28 0 0.12 0.28 0 0.16 0.28 0 0.2 0.28 0 0.24 0.28 0 0.28 0.28 0 0.32 0.28 0 0.36 0.28 0 0.4 0.28 0 0.44 0.28 0 0.48 0.28 0 0.52 0.28 0 0.56 0.28 0 0.6 0.28 0 0.64 0.28 0 0.68 0.28 0 0.72 0.28 0 0.76 0.28 0 0.8 0.28 0 0.84 0.28 0 0.88 0.28 0 0.92 0.28 0 0.96 0.28 0 1 0.28 0 1.04 0.28 0 1.08 0.28 0 1.12 0.28 0 1.16 0.28 0 1.2 0.28 0 0 0.32 0 0.04 0.32 0 0.08 0.32 0 0.12 0.32 0 0.16 0.32 0 0.2 0.32 0 0.24 0.32 0 0.28 0.32 0 0.32 0.32 0 0.36 0.32 0 0.4 0.32 0 0.44 0.32 0 0.48 0.32 0 0.52 0.32 0 0.56 0.32 0 0.6 0.32 0 0.64 0.32 0 0.68 0.32 0 0.72 0.32 0 0.76 0.32 0 0.8 0.32 0 0.84 0.32 0 0.88 0.32 0 0.92 0.32 0 0.96 0.32 0 1 0.32 0 1.04 0.32 0 1.08 0.32 0 1.12 0.32 0 1.16 0.32 0 1.2 0.32 0 0 0.36 0 0.04 0.36 0 0.08 0.36 0 0.12 0.36 0 0.16 0.36 0 0.2 0.36 0 0.24 0.36 0 0.28 0.36 0 0.32 0.36 0 0.36 0.36 0 0.4 0.36 0 0.44 0.36 0 0.48 0.36 0 0.52 0.36 0 0.56 0.36 0 0.6 0.36 0 0.64 0.36 0 0.68 0.36 0 0.72 0.36 0 0.76 0.36 0 0.8 0.36 0 0.84 0.36 0 0.88 0.36 0 0.92 0.36 0 0.96 0.36 0 1 0.36 0 1.04 0.36 0 1.08 0.36 0 1.12 0.36 0 1.16 0.36 0 1.2 0.36 0 0 0.4 0 0.04 0.4 0 0.08 0.4 0 0.12 0.4 0 0.16 0.4 0 0.2 0.4 0 0.24 0.4 0 0.28 0.4 0 0.32 0.4 0 0.36 0.4 0 0.4 0.4 0 0.44 0.4 0 0.48 0.4 0 0.52 0.4 0 0.56 0.4 0 0.6 0.4 0 0.64 0.4 0 0.68 0.4 0 0.72 0.4 0 0.76 0.4 0 0.8 0.4 0 0.84 0.4 0 0.88 0.4 0 0.92 0.4 0 0.96 0.4 0 1 0.4 0 1.04 0.4 0 1.08 0.4 0 1.12 0.4 0 1.16 0.4 0 1.2 0.4 0 0 0.44 0 0.04 0.44 0 0.08 0.44 0 0.12 0.44 0 0.16 0.44 0 0.2 0.44 0 0.24 0.44 0 0.28 0.44 0 0.32 0.44 0 0.36 0.44 0 0.4 0.44 0 0.44 0.44 0 0.48 0.44 0 0.52 0.44 0 0.56 0.44 0 0.6 0.44 0 0.64 0.44 0 0.68 0.44 0 0.72 0.44 0 0.76 0.44 0 0.8 0.44 0 0.84 0.44 0 0.88 0.44 0 0.92 0.44 0 0.96 0.44 0 1 0.44 0 1.04 0.44 0 1.08 0.44 0 1.12 0.44 0 1.16 0.44 0 1.2 0.44 0 0 0.48 0 0.04 0.48 0 0.08 0.48 0 0.12 0.48 0 0.16 0.48 0 0.2 0.48 0 0.24 0.48 0 0.28 0.48 0 0.32 0.48 0 0.36 0.48 0 0.4 0.48 0 0.44 0.48 0 0.48 0.48 0 0.52 0.48 0 0.56 0.48 0 0.6 0.48 0 0.64 0.48 0 0.68 0.48 0 0.72 0.48 0 0.76 0.48 0 0.8 0.48 0 0.84 0.48 0 0.88 0.48 0 0.92 0.48 0 0.96 0.48 0 1 0.48 0 1.04 0.48 0 1.08 0.48 0 1.12 0.48 0 1.16 0.48 0 1.2 0.48 0 0 0.52 0 0.04 0.52 0 0.08 0.52 0 0.12 0.52 0 0.16 0.52 0 0.2 0.52 0 0.24 0.52 0 0.28 0.52 0 0.32 0.52 0 0.36 0.52 0 0.4 0.52 0 0.44 0.52 0 0.48 0.52 0 0.52 0.52 0 0.56 0.52 0 0.6 0.52 0 0.64 0.52 0 0.68 0.52 0 0.72 0.52 0 0.76 0.52 0 0.8 0.52 0 0.84 0.52 0 0.88 0.52 0 0.92 0.52 0 0.96 0.52 0 1 0.52 0 1.04 0.52 0 1.08 0.52 0 1.12 0.52 0 1.16 0.52 0 1.2 0.52 0 0 0.56 0 0.04 0.56 0 0.08 0.56 0 0.12 0.56 0 0.16 0.56 0 0.2 0.56 0 0.24 0.56 0 0.28 0.56 0 0.32 0.56 0 0.36 0.56 0 0.4 0.56 0 0.44 0.56 0 0.48 0.56 0 0.52 0.56 0 0.56 0.56 0 0.6 0.56 0 0.64 0.56 0 0.68 0.56 0 0.72 0.56 0 0.76 0.56 0 0.8 0.56 0 0.84 0.56 0 0.88 0.56 0 0.92 0.56 0 0.96 0.56 0 1 0.56 0 1.04 0.56 0 1.08 0.56 0 1.12 0.56 0 1.16 0.56 0 1.2 0.56 0 0 0.6 0 0.04 0.6 0 0.08 0.6 0 0.12 0.6 0 0.16 0.6 0 0.2 0.6 0 0.24 0.6 0 0.28 0.6 0 0.32 0.6 0 0.36 0.6 0 0.4 0.6 0 0.44 0.6 0 0.48 0.6 0 0.52 0.6 0 0.56 0.6 0 0.6 0.6 0 0.64 0.6 0 0.68 0.6 0 0.72 0.6 0 0.76 0.6 0 0.8 0.6 0 0.84 0.6 0 0.88 0.6 0 0.92 0.6 0 0.96 0.6 0 1 0.6 0 1.04 0.6 0 1.08 0.6 0 1.12 0.6 0 1.16 0.6 0 1.2 0.6 0 0 0.64 0 0.04 0.64 0 0.08 0.64 0 0.12 0.64 0 0.16 0.64 0 0.2 0.64 0 0.24 0.64 0 0.28 0.64 0 0.32 0.64 0 0.36 0.64 0 0.4 0.64 0 0.44 0.64 0 0.48 0.64 0 0.52 0.64 0 0.56 0.64 0 0.6 0.64 0 0.64 0.64 0 0.68 0.64 0 0.72 0.64 0 0.76 0.64 0 0.8 0.64 0 0.84 0.64 0 0.88 0.64 0 0.92 0.64 0 0.96 0.64 0 1 0.64 0 1.04 0.64 0 1.08 0.64 0 1.12 0.64 0 1.16 0.64 0 1.2 0.64 0 0 0.68 0 0.04 0.68 0 0.08 0.68 0 0.12 0.68 0 0.16 0.68 0 0.2 0.68 0 0.24 0.68 0 0.28 0.68 0 0.32 0.68 0 0.36 0.68 0 0.4 0.68 0 0.44 0.68 0 0.48 0.68 0 0.52 0.68 0 0.56 0.68 0 0.6 0.68 0 0.64 0.68 0 0.68 0.68 0 0.72 0.68 0 0.76 0.68 0 0.8 0.68 0 0.84 0.68 0 0.88 0.68 0 0.92 0.68 0 0.96 0.68 0 1 0.68 0 1.04 0.68 0 1.08 0.68 0 1.12 0.68 0 1.16 0.68 0 1.2 0.68 0 0 0.72 0 0.04 0.72 0 0.08 0.72 0 0.12 0.72 0 0.16 0.72 0 0.2 0.72 0 0.24 0.72 0 0.28 0.72 0 0.32 0.72 0 0.36 0.72 0 0.4 0.72 0 0.44 0.72 0 0.48 0.72 0 0.52 0.72 0 0.56 0.72 0 0.6 0.72 0 0.64 0.72 0 0.68 0.72 0 0.72 0.72 0 0.76 0.72 0 0.8 0.72 0 0.84 0.72 0 0.88 0.72 0 0.92 0.72 0 0.96 0.72 0 1 0.72 0 1.04 0.72 0 1.08 0.72 0 1.12 0.72 0 1.16 0.72 0 1.2 0.72 0 0 0.76 0 0.04 0.76 0 0.08 0.76 0 0.12 0.76 0 0.16 0.76 0 0.2 0.76 0 0.24 0.76 0 0.28 0.76 0 0.32 0.76 0 0.36 0.76 0 0.4 0.76 0 0.44 0.76 0 0.48 0.76 0 0.52 0.76 0 0.56 0.76 0 0.6 0.76 0 0.64 0.76 0 0.68 0.76 0 0.72 0.76 0 0.76 0.76 0 0.8 0.76 0 0.84 0.76 0 0.88 0.76 0 0.92 0.76 0 0.96 0.76 0 1 0.76 0 1.04 0.76 0 1.08 0.76 0 1.12 0.76 0 1.16 0.76 0 1.2 0.76 0 0 0.8 0 0.04 0.8 0 0.08 0.8 0 0.12 0.8 0 0.16 0.8 0 0.2 0.8 0 0.24 0.8 0 0.28 0.8 0 0.32 0.8 0 0.36 0.8 0 0.4 0.8 0 0.44 0.8 0 0.48 0.8 0 0.52 0.8 0 0.56 0.8 0 0.6 0.8 0 0.64 0.8 0 0.68 0.8 0 0.72 0.8 0 0.76 0.8 0 0.8 0.8 0 0.84 0.8 0 0.88 0.8 0 0.92 0.8 0 0.96 0.8 0 1 0.8 0 1.04 0.8 0 1.08 0.8 0 1.12 0.8 0 1.16 0.8 0 1.2 0.8 0 0 0.84 0 0.04 0.84 0 0.08 0.84 0 0.12 0.84 0 0.16 0.84 0 0.2 0.84 0 0.24 0.84 0 0.28 0.84 0 0.32 0.84 0 0.36 0.84 0 0.4 0.84 0 0.44 0.84 0 0.48 0.84 0 0.52 0.84 0 0.56 0.84 0 0.6 0.84 0 0.64 0.84 0 0.68 0.84 0 0.72 0.84 0 0.76 0.84 0 0.8 0.84 0 0.84 0.84 0 0.88 0.84 0 0.92 0.84 0 0.96 0.84 0 1 0.84 0 1.04 0.84 0 1.08 0.84 0 1.12 0.84 0 1.16 0.84 0 1.2 0.84 0 0 0.88 0 0.04 0.88 0 0.08 0.88 0 0.12 0.88 0 0.16 0.88 0 0.2 0.88 0 0.24 0.88 0 0.28 0.88 0 0.32 0.88 0 0.36 0.88 0 0.4 0.88 0 0.44 0.88 0 0.48 0.88 0 0.52 0.88 0 0.56 0.88 0 0.6 0.88 0 0.64 0.88 0 0.68 0.88 0 0.72 0.88 0 0.76 0.88 0 0.8 0.88 0 0.84 0.88 0 0.88 0.88 0 0.92 0.88 0 0.96 0.88 0 1 0.88 0 1.04 0.88 0 1.08 0.88 0 1.12 0.88 0 1.16 0.88 0 1.2 0.88 0 0 0.92 0 0.04 0.92 0 0.08 0.92 0 0.12 0.92 0 0.16 0.92 0 0.2 0.92 0 0.24 0.92 0 0.28 0.92 0 0.32 0.92 0 0.36 0.92 0 0.4 0.92 0 0.44 0.92 0 0.48 0.92 0 0.52 0.92 0 0.56 0.92 0 0.6 0.92 0 0.64 0.92 0 0.68 0.92 0 0.72 0.92 0 0.76 0.92 0 0.8 0.92 0 0.84 0.92 0 0.88 0.92 0 0.92 0.92 0 0.96 0.92 0 1 0.92 0 1.04 0.92 0 1.08 0.92 0 1.12 0.92 0 1.16 0.92 0 1.2 0.92 0 0 0.96 0 0.04 0.96 0 0.08 0.96 0 0.12 0.96 0 0.16 0.96 0 0.2 0.96 0 0.24 0.96 0 0.28 0.96 0 0.32 0.96 0 0.36 0.96 0 0.4 0.96 0 0.44 0.96 0 0.48 0.96 0 0.52 0.96 0 0.56 0.96 0 0.6 0.96 0 0.64 0.96 0 0.68 0.96 0 0.72 0.96 0 0.76 0.96 0 0.8 0.96 0 0.84 0.96 0 0.88 0.96 0 0.92 0.96 0 0.96 0.96 0 1 0.96 0 1.04 0.96 0 1.08 0.96 0 1.12 0.96 0 1.16 0.96 0 1.2 0.96 0 0 1 0 0.04 1 0 0.08 1 0 0.12 1 0 0.16 1 0 0.2 1 0 0.24 1 0 0.28 1 0 0.32 1 0 0.36 1 0 0.4 1 0 0.44 1 0 0.48 1 0 0.52 1 0 0.56 1 0 0.6 1 0 0.64 1 0 0.68 1 0 0.72 1 0 0.76 1 0 0.8 1 0 0.84 1 0 0.88 1 0 0.92 1 0 0.96 1 0 1 1 0 1.04 1 0 1.08 1 0 1.12 1 0 1.16 1 0 1.2 1 0 0 1.04 0 0.04 1.04 0 0.08 1.04 0 0.12 1.04 0 0.16 1.04 0 0.2 1.04 0 0.24 1.04 0 0.28 1.04 0 0.32 1.04 0 0.36 1.04 0 0.4 1.04 0 0.44 1.04 0 0.48 1.04 0 0.52 1.04 0 0.56 1.04 0 0.6 1.04 0 0.64 1.04 0 0.68 1.04 0 0.72 1.04 0 0.76 1.04 0 0.8 1.04 0 0.84 1.04 0 0.88 1.04 0 0.92 1.04 0 0.96 1.04 0 1 1.04 0 1.04 1.04 0 1.08 1.04 0 1.12 1.04 0 1.16 1.04 0 1.2 1.04 0 0 1.08 0 0.04 1.08 0 0.08 1.08 0 0.12 1.08 0 0.16 1.08 0 0.2 1.08 0 0.24 1.08 0 0.28 1.08 0 0.32 1.08 0 0.36 1.08 0 0.4 1.08 0 0.44 1.08 0 0.48 1.08 0 0.52 1.08 0 0.56 1.08 0 0.6 1.08 0 0.64 1.08 0 0.68 1.08 0 0.72 1.08 0 0.76 1.08 0 0.8 1.08 0 0.84 1.08 0 0.88 1.08 0 0.92 1.08 0 0.96 1.08 0 1 1.08 0 1.04 1.08 0 1.08 1.08 0 1.12 1.08 0 1.16 1.08 0 1.2 1.08 0 0 1.12 0 
[...]
			<PointData Scalars="VitesseX">
				<DataArray Name="VitesseX" type="Float32" format="ascii">
 0 -0.065888 -0.12863 -0.119055 -0.0618163 0.0432472 0.166724 0.283434 0.364526 0.398387 0.38345 0.345583 0.300542 0.256946 0.223556 0.204775 0.197781 0.196339 0.192491 0.1505 -0.123329 -0.475325 -0.648884 -0.616519 -0.525773 -0.441371 -0.356223 -0.269764 -0.18215 -0.0910069 0 0 0.0577656 0.022693 0.00446416 0.0455022 0.115637 0.206146 0.297092 0.365633 0.384366 0.364668 0.324527 0.280822 0.244608 0.218504 0.20366 0.198763 0.197776 0.193586 0.153118 -0.117241 -0.470191 -0.646516 -0.617121 -0.526201 -0.441872 -0.356782 -0.270249 -0.182408 -0.0910723 0 0 0.0306229 0.0588259 0.0518151 0.0568962 0.0780635 0.10548 0.143158 0.183567 0.21839 0.23362 0.230125 0.218142 0.204784 0.195155 0.192306 0.194316 0.197086 0.194137 0.159138 -0.0998524 -0.454422 -0.638502 -0.618052 -0.526447 -0.442196 -0.357299 -0.270801 -0.18275 -0.0912146 0 0 -0.0266523 -0.0457736 -0.051026 -0.056243 -0.0535061 -0.0414316 -0.0217892 0.000745939 0.0259038 0.0630023 0.0986961 0.124641 0.141641 0.155801 0.168774 0.181551 0.190539 0.191201 0.164839 -0.0741927 -0.42887 -0.624744 -0.6199 -0.527024 -0.442736 -0.358059 -0.271772 -0.183639 -0.0915831 0 0 -0.0744638 -0.117473 -0.138926 -0.148826 -0.154073 -0.15398 -0.147962 -0.127637 -0.0921512 -0.0525141 -0.00626102 0.0379315 0.0774121 0.110479 0.138468 0.16042 0.176333 0.182782 0.166498 -0.0441667 -0.394406 -0.605238 -0.622347 -0.528145 -0.443639 -0.359181 -0.273227 -0.185164 -0.0923827 0 0 -0.101217 -0.164346 -0.195767 -0.215169 -0.22746 -0.232533 -0.232495 -0.212659 -0.171725 -0.123148 -0.0734716 -0.0216361 0.0266551 0.0693031 0.104088 0.132949 0.154681 0.167515 0.161094 -0.0136162 -0.351902 -0.581119 -0.623223 -0.529911 -0.44496 -0.360606 -0.274988 -0.187107 -0.0935671 0 0 -0.113712 -0.183808 -0.221538 -0.249099 -0.267751 -0.279282 -0.281228 -0.270824 -0.231866 -0.175336 -0.118788 -0.0648716 -0.0131093 0.0315149 0.0696051 0.100588 0.126302 0.144461 0.147274 0.0140382 -0.303206 -0.55182 -0.620123 -0.532361 -0.446739 -0.362281 -0.276801 -0.189045 -0.0949965 0 0 -0.106466 -0.180893 -0.226949 -0.258387 -0.280984 -0.297898 -0.307796 -0.305416 -0.283046 -0.229335 -0.164012 -0.104147 -0.0516394 -0.00427797 0.0337364 0.0656456 0.0923089 0.114856 0.125084 0.0354173 -0.250507 -0.51525 -0.610533 -0.535628 -0.448957 -0.364165 -0.278537 -0.190657 -0.0961926 0 0 -0.0810598 -0.14359 -0.186162 -0.226652 -0.265638 -0.296913 -0.31761 -0.327269 -0.31985 -0.289173 -0.227886 -0.157639 -0.0959473 -0.0460151 -0.00369174 0.0283466 0.0558112 0.0801292 0.0947795 0.046799 -0.196065 -0.468619 -0.59096 -0.540312 -0.451544 -0.366177 -0.280205 -0.192107 -0.097328 0 0 -0.0379551 -0.0757471 -0.111706 -0.145635 -0.197813 -0.260049 -0.309682 -0.33793 -0.348724 -0.337436 -0.300331 -0.233048 -0.159313 -0.0965533 -0.0490761 -0.0116252 0.0163099 0.0407781 0.0586135 0.0446956 -0.143035 -0.409607 -0.557823 -0.546147 -0.454491 -0.36816 -0.28176 -0.19348 -0.0987467 0 0 0.00786986 0.00159077 -0.0314647 -0.078139 -0.132012 -0.200793 -0.277373 -0.337008 -0.369974 -0.380553 -0.365064 -0.322036 -0.246949 -0.168585 -0.105649 -0.0605142 -0.0269605 -0.00153497 0.0199441 0.0263132 -0.0960619 -0.338321 -0.511388 -0.547192 -0.457592 -0.370151 -0.28337 -0.194998 -0.100485 0 0 0.0311907 0.0480337 0.0252687 -0.0252109 -0.0845787 -0.152227 -0.233751 -0.317315 -0.379316 -0.414743 -0.42504 -0.405303 -0.35647 -0.271359 -0.186305 -0.123052 -0.0788768 -0.0470035 -0.0216267 -0.00612042 -0.0613631 -0.260465 -0.454511 -0.530805 -0.460977 -0.372527 -0.285252 -0.196783 -0.101857 0 0 0.0385828 0.060977 0.0481713 0.00451954 -0.0559509 -0.124071 -0.197896 -0.283949 -0.369429 -0.431889 -0.469298 -0.480456 -0.457087 -0.401606 -0.3038 -0.210363 -0.146165 -0.100787 -0.067055 -0.0455398 -0.050317 -0.186436 -0.381305 -0.490608 -0.465518 -0.375632 -0.287661 -0.199098 -0.103035 0 0 0.0355818 0.055198 0.0450512 0.00573196 -0.0509674 -0.11373 -0.179744 -0.250505 -0.335665 -0.423798 -0.489211 -0.529358 -0.542645 -0.517559 -0.453339 -0.340194 -0.237904 -0.170402 -0.122007 -0.0873085 -0.0672137 -0.125948 -0.294025 -0.428689 -0.462494 -0.379275 -0.290862 -0.202133 -0.104805 0 0 0.0254036 0.0367752 0.0252503 -0.0113446 -0.0631359 -0.119601 -0.174069 -0.230629 -0.293122 -0.374658 -0.470516 -0.545968 -0.591571 -0.608379 -0.583063 -0.506451 -0.375142 -0.26402 -0.191441 -0.135722 -0.101835 -0.0944857 -0.204945 -0.354177 -0.432305 -0.383558 -0.295127 -0.205805 -0.107417 0 0 0.0082637 0.00698756 -0.0107449 -0.0456649 -0.0916281 -0.13638 -0.177217 -0.216722 -0.262554 -0.317093 -0.39515 -0.504375 -0.600513 -0.654435 -0.674177 -0.648624 -0.5549 -0.404262 -0.282585 -0.203716 -0.143468 -0.101996 -0.131789 -0.265401 -0.371224 -0.384162 -0.29982 -0.209773 -0.110281 0 0 -0.0129475 -0.0289909 -0.0540463 -0.0914871 -0.130005 -0.16091 -0.18365 -0.205789 -0.233803 -0.273358 -0.326352 -0.402641 -0.523477 -0.647842 -0.715644 -0.736242 -0.707955 -0.593141 -0.422734 -0.292333 -0.201265 -0.136377 -0.0956067 -0.171792 -0.293856 -0.359054 -0.303835 -0.213646 -0.112593 0 0 -0.0372348 -0.0723887 -0.102879 -0.126261 -0.146419 -0.16371 -0.177697 -0.18971 -0.205298 -0.231566 -0.271263 -0.327649 -0.405852 -0.53207 -0.682022 -0.768764 -0.790374 -0.754423 -0.613431 -0.424552 -0.287827 -0.184224 -0.107639 -0.09653 -0.20394 -0.298582 -0.303275 -0.216885 -0.114263 0 0 -0.0624305 -0.0988317 -0.111373 -0.120373 -0.129975 -0.13719 -0.142595 -0.150618 -0.165586 -0.188117 -0.220841 -0.264908 -0.324555 -0.405559 -0.534063 -0.703233 -0.80937 -0.829235 -0.778447 -0.61258 -0.407008 -0.261628 -0.15089 -0.0669856 -0.110522 -0.217081 -0.277777 -0.218481 -0.115527 0 0 -0.0630034 -0.0915893 -0.0891817 -0.0844346 -0.0812057 -0.0781787 -0.0793246 -0.0891739 -0.108325 -0.136349 -0.170036 -0.20902 -0.255978 -0.316533 -0.397581 -0.524918 -0.702042 -0.827791 -0.851063 -0.775565 -0.585478 -0.371557 -0.216363 -0.0945765 -0.0389799 -0.124119 -0.214356 -0.213506 -0.116977 0 0 -0.033134 -0.0411916 -0.036868 -0.0270758 -0.0159893 -0.0114221 -0.0168654 -0.030439 -0.0520974 -0.0813773 -0.116217 -0.153457 -0.193772 -0.242063 -0.30029 -0.3786 -0.501711 -0.677153 -0.815048 -0.843995 -0.740403 -0.531574 -0.316121 -0.156903 -0.0221002 -0.0314653 -0.124638 -0.183982 -0.117324 0 0 0.0196436 0.0222834 0.011946 0.0162337 0.0276281 0.0322408 0.0302968 0.0209059 0.00189476 -0.0255363 -0.05819 -0.0946601 -0.134266 -0.17215 -0.216751 -0.272757 -0.346377 -0.461918 -0.628592 -0.770168 -0.803733 -0.674541 -0.4584 -0.244336 -0.0746223 0.0350641 -0.0225337 -0.113881 -0.110141 0 0 0.0324246 0.0329644 0.0289961 0.0319183 0.0415516 0.0556985 0.0682848 0.0696268 0.058711 0.0388166 0.01236 -0.0202147 -0.0561022 -0.0953802 -0.138115 -0.180519 -0.231457 -0.299236 -0.406515 -0.5583 -0.696511 -0.727601 -0.582394 -0.372097 -0.17062 0.0355582 0.0672407 -0.0114592 -0.0753413 0 0 0.00844746 0.011411 0.0216327 0.0256851 0.0414608 0.0694046 0.0935 0.100585 0.0981368 0.0929001 0.0843968 0.0684238 0.0413449 0.00330722 -0.0386788 -0.0827253 -0.131782 -0.179091 -0.23951 -0.337541 -0.476379 -0.591851 -0.630434 -0.4784 -0.266699 -0.0698609 0.122752 0.0960671 0.00609135 0 0 -0.0111211 -0.00187394 0.00520399 0.0105085 0.0354639 0.0738188 0.0998685 0.108088 0.113294 0.119911 0.127618 0.132992 0.125302 0.10717 0.0761718 0.0327936 -0.0150733 -0.0673459 -0.11843 -0.174147 -0.262871 -0.378275 -0.486697 -0.512401 -0.369129 -0.183429 0.0731366 0.176766 0.109161 0 0 -0.0231322 -0.00893847 -0.0113503 -0.00270123 0.0257037 0.0615385 0.0797559 0.085799 0.0940546 0.1108 0.134649 0.156316 0.168444 0.173697 0.165844 0.14209 0.106506 0.0602946 0.00498453 -0.0491175 -0.113872 -0.173233 -0.299424 -0.390211 -0.396499 -0.242897 -0.0757109 0.168143 0.18332 0 0 -0.0324937 -0.0211201 -0.0263112 -0.0132649 0.0132235 0.0410504 0.0511821 0.0551323 0.0664143 0.0865063 0.111342 0.137703 0.164046 0.188968 0.203456 0.203521 0.194241 0.167953 0.130066 0.0812365 0.0185659 -0.0343581 -0.126217 -0.203806 -0.300657 -0.298802 -0.197295 0.08375 0.138075 0 0 -0.0402433 -0.0438455 -0.0372553 -0.0198009 0.00159278 0.0185946 0.0184896 0.0189241 0.031027 0.0521821 0.077521 0.103295 0.128197 0.151922 0.175393 0.19987 0.220446 0.223429 0.212143 0.18098 0.139346 0.0869237 0.0241263 -0.0499689 -0.173373 -0.256348 -0.239131 -0.0986821 0.0602987 0 0 -0.0417819 -0.0784619 -0.0416771 -0.0228932 -0.00380972 0.00102341 -0.00840336 -0.0104853 -0.000745532 0.0150973 0.0340867 0.0535499 0.0726939 0.0924623 0.113536 0.136409 0.160217 0.184621 0.207604 0.215113 0.206079 0.174588 0.134405 0.0789554 -0.00294625 -0.112354 -0.226672 -0.216574 -0.0748596 0 0 -0.195177 -0.0834716 -0.0489856 -0.0172608 -0.00127112 -0.00935035 -0.0225615 -0.024919 -0.0186031 -0.00803574 0.00296223 0.0128648 0.0214602 0.0298287 0.039329 0.0507072 0.0638902 0.0785237 0.0939903 0.109387 0.124235 0.127224 0.115766 0.0803939 0.035621 0.00116889 -0.0101025 -0.0707632 -0.0865412 0 0 0 0 0 0 0 0 0 0 0 0 0 0 0 0 0 0 0 0 0 0 0 0 0 0 0 0 0 0 0 0
				</DataArray>
				<DataArray Name="VitesseY" type="Float32" format="ascii">
 0 0 0 0 0 0 0 0 0 0 0 0 0 0 0 0 0 0 0 0 0 0 0 0 0 0 0 0 0 0 0 -0.0603656 0.060136 0.0293058 -0.0290543 -0.0776812 -0.106108 -0.11653 -0.099764 -0.0584694 -0.00277901 0.028598 0.0403984 0.0390269 0.0312372 0.01832 0.00452113 -0.0055091 -0.0100661 -0.0110807 -0.00858343 0.000330184 0.0110717 0.0174224 0.0181992 0.015755 0.0130356 0.00965005 0.00634038 0.00345812 0.00117512 0 -0.12428 0.0273007 0.0606772 -0.0435432 -0.117725 -0.165852 -0.183267 -0.170208 -0.10553 -0.0178981 0.0393898 0.0641882 0.0616036 0.0486366 0.0266408 0.00306402 -0.0141329 -0.0212352 -0.0216456 -0.0162072 0.000801952 0.0217827 0.0346015 0.0365062 0.0316734 0.0263809 0.0196914 0.0128146 0.00700352 0.00264624 0 -0.118542 0.00922092 0.0613401 -0.0403398 -0.129255 -0.186738 -0.210449 -0.208989 -0.138355 -0.0537812 0.0140522 0.0481722 0.0542539 0.0425956 0.0180048 -0.00946423 -0.0295999 -0.035674 -0.0332755 -0.0232836 0.000954691 0.0315625 0.0510956 0.0548405 0.0478983 0.0402696 0.030454 0.0196215 0.010567 0.00407318 0 -0.0672301 0.0506332 0.0737014 -0.0344222 -0.128559 -0.193496 -0.224509 -0.229313 -0.169685 -0.0919814 -0.0335633 0.00455498 0.0181676 0.0123373 -0.00935601 -0.0344124 -0.0530236 -0.055625 -0.0478085 -0.0314738 -0.000316361 0.0394442 0.0661296 0.0727728 0.0642354 0.0544825 0.0418147 0.0267262 0.0138694 0.00488147 0 0.0337077 0.116911 0.10518 -0.021449 -0.120745 -0.192383 -0.229354 -0.239332 -0.208721 -0.138384 -0.0845564 -0.0497979 -0.0331856 -0.0340815 -0.0491986 -0.0689772 -0.0833118 -0.0817013 -0.0665015 -0.0427453 -0.0047426 0.0439502 0.0779633 0.088953 0.0801781 0.0684465 0.0532483 0.033944 0.0167653 0.00488044 0 0.151933 0.205151 0.14178 0.0026851 -0.10644 -0.184379 -0.229512 -0.246129 -0.241145 -0.19496 -0.142364 -0.107695 -0.0907892 -0.0865672 -0.0946284 -0.108231 -0.118051 -0.112547 -0.0897484 -0.0588896 -0.0140141 0.043056 0.0858255 0.103156 0.0957377 0.0820804 0.0646437 0.0415274 0.0196119 0.00440165 0 0.272126 0.29674 0.186391 0.0334516 -0.0867273 -0.171495 -0.222717 -0.250005 -0.259085 -0.247545 -0.209387 -0.172111 -0.149937 -0.141792 -0.142038 -0.148733 -0.154303 -0.145586 -0.11815 -0.0802504 -0.0295449 0.0351522 0.0889047 0.114832 0.111183 0.0956822 0.0762658 0.049964 0.0229414 0.00410059 0 0.368386 0.379732 0.232116 0.0680164 -0.0578655 -0.147409 -0.207401 -0.243651 -0.267293 -0.278405 -0.272402 -0.245409 -0.216673 -0.199442 -0.192364 -0.190347 -0.189918 -0.179705 -0.150357 -0.106528 -0.0519149 0.019556 0.0868044 0.123759 0.12728 0.110038 0.0889799 0.0598901 0.0274908 0.00458445 0 0.428604 0.43036 0.27367 0.0966999 -0.020573 -0.10217 -0.167932 -0.221766 -0.260435 -0.291312 -0.311128 -0.314991 -0.294777 -0.267182 -0.248061 -0.235886 -0.226403 -0.213155 -0.183932 -0.136858 -0.079717 -0.00310012 0.0786085 0.130672 0.143469 0.125848 0.103396 0.0718763 0.0340149 0.00641263 0 0.444231 0.436627 0.303296 0.127799 0.0204501 -0.045816 -0.102102 -0.170425 -0.233171 -0.284382 -0.328652 -0.36028 -0.370335 -0.351221 -0.316142 -0.289475 -0.267426 -0.246858 -0.216881 -0.169462 -0.110762 -0.032701 0.0610974 0.129382 0.155669 0.143382 0.119684 0.086062 0.0429358 0.0100668 0 0.422122 0.411414 0.309661 0.168841 0.0679469 0.0112049 -0.0316116 -0.0919434 -0.177875 -0.254466 -0.322716 -0.38199 -0.422378 -0.43444 -0.407829 -0.357199 -0.319385 -0.284779 -0.250196 -0.203155 -0.144976 -0.0675865 0.0320912 0.118017 0.161764 0.162895 0.137506 0.102208 0.0540596 0.0152457 0 0.384463 0.370751 0.302535 0.202902 0.119263 0.070781 0.0355411 -0.013007 -0.096772 -0.198078 -0.29168 -0.376285 -0.448163 -0.492706 -0.502338 -0.457215 -0.387179 -0.335693 -0.287605 -0.238627 -0.179622 -0.104923 -0.00647599 0.0972111 0.164224 0.181811 0.156466 0.12 0.066894 0.0208885 0 0.341533 0.330611 0.291738 0.227697 0.16834 0.129687 0.0981884 0.0547189 -0.0174462 -0.116989 -0.232924 -0.343545 -0.441453 -0.521933 -0.565993 -0.567985 -0.493714 -0.404855 -0.33877 -0.277941 -0.214367 -0.144788 -0.0502062 0.0644118 0.152958 0.191076 0.176389 0.139025 0.0813432 0.0264639 0 0.30202 0.299668 0.282286 0.249298 0.213088 0.183712 0.153652 0.109843 0.0446741 -0.0418841 -0.149289 -0.277398 -0.404106 -0.51278 -0.596323 -0.638885 -0.623444 -0.516575 -0.409987 -0.329525 -0.256976 -0.183381 -0.0936884 0.0189633 0.127335 0.189074 0.197567 0.158922 0.0978668 0.0328213 0 0.276805 0.28075 0.280659 0.26991 0.253468 0.230663 0.197349 0.150844 0.0890236 0.0112945 -0.0773885 -0.18666 -0.321878 -0.465475 -0.584804 -0.667829 -0.705359 -0.664825 -0.525099 -0.402472 -0.309277 -0.224332 -0.13947 -0.0315797 0.0898595 0.179507 0.212391 0.179692 0.116835 0.0411258 0 0.270972 0.279015 0.287738 0.293564 0.290472 0.266246 0.225484 0.174343 0.115371 0.047209 -0.0304587 -0.11355 -0.220175 -0.361038 -0.521563 -0.652661 -0.732676 -0.761236 -0.689866 -0.518631 -0.381338 -0.277402 -0.184135 -0.0801827 0.0413126 0.151972 0.210752 0.202253 0.138497 0.0518399 0 0.288473 0.296351 0.306294 0.316227 0.314402 0.286721 0.238836 0.183522 0.126669 0.0665221 0.00404849 -0.0663705 -0.144408 -0.246794 -0.393043 -0.568579 -0.711487 -0.786902 -0.802838 -0.690855 -0.496921 -0.347403 -0.233299 -0.132294 -0.0116336 0.113081 0.200061 0.223153 0.161662 0.0646574 0 0.331978 0.33181 0.323428 0.323418 0.32108 0.291349 0.240226 0.183521 0.129844 0.0787059 0.0269377 -0.0283994 -0.0916769 -0.168276 -0.268662 -0.416486 -0.602954 -0.75619 -0.8265 -0.82042 -0.668398 -0.458263 -0.299678 -0.180548 -0.0665453 0.0637068 0.172496 0.226351 0.185581 0.0790559 0 0.38923 0.37324 0.319168 0.310424 0.311689 0.281678 0.229713 0.177441 0.132308 0.0908888 0.0482173 0.00195972 -0.0497683 -0.110524 -0.186156 -0.283174 -0.429958 -0.62008 -0.778972 -0.848001 -0.808837 -0.622812 -0.404425 -0.239605 -0.119304 0.00619891 0.132728 0.214934 0.208613 0.0944149 0 0.419016 0.381632 0.282788 0.270389 0.275622 0.248658 0.203363 0.160765 0.127688 0.0977463 0.0646069 0.0254106 -0.0182658 -0.0667262 -0.123122 -0.197232 -0.290432 -0.428606 -0.616624 -0.775711 -0.841222 -0.765471 -0.555382 -0.337607 -0.175954 -0.0500477 0.0824366 0.183108 0.216369 0.109746 0 0.311362 0.23037 0.082954 0.065375 0.071319 0.0521852 0.0207884 0.000897819 0.00185782 0.0128414 0.0206827 0.0161167 -0.00535407 -0.0407379 -0.0830011 -0.131188 -0.195838 -0.285953 -0.408832 -0.587622 -0.740281 -0.80162 -0.693832 -0.474842 -0.262296 -0.114614 0.0184277 0.14041 0.207174 0.124679 0 -0.0666648 -0.155609 -0.260226 -0.280018 -0.289057 -0.301176 -0.308376 -0.298132 -0.268299 -0.227511 -0.183248 -0.139761 -0.100464 -0.0719892 -0.0673878 -0.0891327 -0.128498 -0.180373 -0.260721 -0.372206 -0.53273 -0.674386 -0.726082 -0.590749 -0.378836 -0.174602 -0.0352068 0.0872062 0.175303 0.127704 0 -0.382337 -0.440788 -0.474042 -0.482457 -0.500806 -0.513156 -0.511176 -0.493517 -0.469571 -0.443781 -0.410374 -0.363515 -0.301929 -0.231222 -0.161813 -0.107294 -0.08569 -0.1038 -0.148552 -0.215817 -0.316584 -0.45907 -0.582982 -0.630272 -0.486429 -0.298989 -0.126986 0.0233642 0.134534 0.116146 0 -0.441135 -0.499352 -0.479706 -0.482956 -0.505077 -0.510395 -0.511116 -0.513526 -0.519307 -0.52189 -0.51406 -0.491102 -0.450066 -0.39507 -0.323822 -0.239159 -0.152878 -0.0869927 -0.0647662 -0.094503 -0.156488 -0.244368 -0.372271 -0.477759 -0.511882 -0.391089 -0.204656 -0.0503343 0.0786905 0.0805373 0 -0.309119 -0.40043 -0.377714 -0.392966 -0.41614 -0.420135 -0.42303 -0.429631 -0.441451 -0.454529 -0.465599 -0.473685 -0.476334 -0.461552 -0.421494 -0.357657 -0.281247 -0.192653 -0.102224 -0.0350579 -0.0219956 -0.0753336 -0.170092 -0.266483 -0.369517 -0.396726 -0.300908 -0.173996 -0.00343569 0.0355264 0 -0.178453 -0.30527 -0.285325 -0.311512 -0.334106 -0.337235 -0.343088 -0.353023 -0.364827 -0.37442 -0.380032 -0.383066 -0.385591 -0.388221 -0.391723 -0.387777 -0.356138 -0.292184 -0.210666 -0.118609 -0.0276763 0.03657 0.0350951 -0.0703353 -0.182607 -0.24283 -0.299287 -0.256628 -0.112666 0.000952932 0 -0.0433972 -0.201021 -0.201349 -0.233967 -0.251157 -0.254395 -0.263672 -0.276297 -0.287171 -0.293294 -0.29514 -0.295679 -0.296195 -0.297679 -0.300518 -0.303985 -0.307263 -0.305067 -0.276446 -0.210864 -0.120996 -0.0196012 0.0689833 0.123213 0.0727622 -0.0757006 -0.197151 -0.2393 -0.226973 -0.010325 0 0.0773158 -0.0802974 -0.129811 -0.16157 -0.167507 -0.170646 -0.180806 -0.190973 -0.200396 -0.204696 -0.205819 -0.205858 -0.206144 -0.207401 -0.209647 -0.212597 -0.21586 -0.218681 -0.219896 -0.214262 -0.183147 -0.11196 -0.00942486 0.0974347 0.177299 0.168126 0.0836542 -0.0987488 -0.216713 -0.0708997 0 0.437825 -0.0189679 -0.0932272 -0.0774512 -0.0886174 -0.0839117 -0.0874162 -0.0975041 -0.104432 -0.106258 -0.107584 -0.107502 -0.107179 -0.107704 -0.109377 -0.11161 -0.113544 -0.114964 -0.116096 -0.11745 -0.117704 -0.11021 -0.0747585 0.00711837 0.109992 0.183528 0.138016 0.060225 -0.0749039 -0.0865893 0 3.29523 0 0 0 0 0 0 0 0 0 0 0 0 0 0 0 0 0 0 0 0 0 0 0 0 0 0 0 0 0 0
				</DataArray>
			</PointData>
			<CellData Scalars="Density">
				<DataArray Name="Density" type="Float32" format="ascii">