<?xml version="1.0"?>
<VTKFile type="PolyData">
	<PolyData>
		<Piece NumberOfPoints="961" NumberOfPolys="900">
			<Points>
				<DataArray type="Float32" NumberOfComponents="3" format="ascii">
 0 0 0 0.04 0 0 0.08 0 0 0.12 0 0 0.16 0 0 0.2 0 0 0.24 0 0 0.28 0 0 0.32 0 0 0.36 0 0 0.4 0 0 0.44 0 0 0.48 0 0 0.52 0 0 0.56 0 0 0.6 0 0 0.64 0 0 0.68 0 0 0.72 0 0 0.76 0 0 0.8 0 0 0.84 0 0 0.88 0 0 0.92 0 0 0.96 0 0 1 0 0 1.04 0 0 1.08 0 0 1.12 0 0 1.16 0 0 1.2 0 0 0 0.04 0 0.04 0.04 0 0.08 0.04 0 0.12 0.04 0 0.16 0.04 0 0.2 0.04 0 0.24 0.04 0 0.28 0.04 0 0.32 0.04 0 0.36 0.04 0 0.4 0.04 0 0.44 0.04 0 0.48 0.04 0 0.52 0.04 0 0.56 0.04 0 0.6 0.04 0 0.64 0.04 0 0.68 0.04 0 0.72 0.04 0 0.76 0.04 0 0.8 0.04 0 0.84 0.04 0 0.88 0.04 0 0.92 0.04 0 0.96 0.04 0 1 0.04 0 1.04 0.04 0 1.08 0.04 0 1.12 0.04 0 1.16 0.04 0 1.2 0.04 0 0 0.08 0 0.04 0.08 0 0.08 0.08 0 0.12 0.08 0 0.16 0.08 0 0.2 0.08 0 0.24 0.08 0 0.28 0.08 0 0.32 0.08 0 0.36 0.08 0 0.4 0.08 0 0.44 0.08 0 0.48 0.08 0 0.52 0.08 0 0.56 0.08 0 0.6 0.08 0 0.64 0.08 0 0.68 0.08 0 0.72 0.08 0 0.76 0.08 0 0.8 0.08 0 0.84 0.08 0 0.88 0.08 0 0.92 0.08 0 0.96 0.08 0 1 0.08 0 1.04 0.08 0 1.08 0.08 0 1.12 0.08 0 1.16 0.08 0 1.2 0.08 0 0 0.12 0 0.04 0.12 0 0.08 0.12 0 0.12 0.12 0 0.16 0.12 0 0.2 0.12 0 0.24 0.12 0 0.28 0.12 0 0.32 0.12 0 0.36 0.12 0 0.4 0.12 0 0.44 0.12 0 0.48 0.12 0 0.52 0.12 0 0.56 0.12 0 0.6 0.12 0 0.64 0.12 0 0.68 0.12 0 0.72 0.12 0 0.76 0.12 0 0.8 0.12 0 0.84 0.12 0 0.88 0.12 0 0.92 0.12 0 0.96 0.12 0 1 0.12 0 1.04 0.12 0 1.08 0.12 0 1.12 0.12 0 1.16 0.12 0 1.2 0.12 0 0 0.16 0 0.04 0.16 0 0.08 0.16 0 0.12 0.16 0 0.16 0.16 0 0.2 0.16 0 0.24 0.16 0 0.28 0.16 0 0.32 0.16 0 0.36 0.16 0 0.4 0.16 0 0.44 0.16 0 0.48 0.16 0 0.52 0.16 0 0.56 0.16 0 0.6 0.16 0 0.64 0.16 0 0.68 0.16 0 0.72 0.16 0 0.76 0.16 0 0.8 0.16 0 0.84 0.16 0 0.88 0.16 0 0.92 0.16 0 0.96 0.16 0 1 0.16 0 1.04 0.16 0 1.08 0.16 0 1.12 0.16 0 1.16 0.16 0 1.2 0.16 0 0 0.2 0 0.04 0.2 0 0.08 0.2 0 0.12 0.2 0 0.16 0.2 0 0.2 0.2 0 0.24 0.2 0 0.28 0.2 0 0.32 0.2 0 0.36 0.2 0 0.4 0.2 0 0.44 0.2 0 0.48 0.2 0 0.52 0.2 0 0.56 0.2 0 0.6 0.2 0 0.64 0.2 0 0.68 0.2 0 0.72 0.2 0 0.76 0.2 0 0.8 0.2 0 0.84 0.2 0 0.88 0.2 0 0.92 0.2 0 0.96 0.2 0 1 0.2 0 1.04 0.2 0 1.08 0.2 0 1.12 0.2 0 1.16 0.2 0 1.2 0.2 0 0 0.24 0 0.04 0.24 0 0.08 0.24 0 0.12 0.24 0 0.16 0.24 0 0.2 0.24 0 0.24 0.24 0 0.28 0.24 0 0.32 0.24 0 0.36 0.24 0 0.4 0.24 0 0.44 0.24 0 0.48 0.24 0 0.52 0.24 0 0.56 0.24 0 0.6 0.24 0 0.64 0.24 0 0.68 0.24 0 0.72 0.24 0 0.76 0.24 0 0.8 0.24 0 0.84 0.24 0 0.88 0.24 0 0.92 0.24 0 0.96 0.24 0 1 0.24 0 1.04 0.24 0 1.08 0.24 0 1.12 0.24 0 1.16 0.24 0 1.2 0.24 0 0 0.28 0 0.04 0.28 0 0.08 0.28 0 0.12 0.28 0 0.16 0.28 0 0.2 0.28 0 0.24 0.28 0 0.28 0.28 0 0.32 0.28 0 0.36 0.28 0 0.4 0.28 0 0.44 0.28 0 0.48 0.28 0 0.52 0.28 0 0.56 0.28 0 0.6 0.28 0 0.64 0.28 0 0.68 0.28 0 0.72 0.28 0 0.76 0.28 0 0.8 0.28 0 0.84 0.28 0 0.88 0.28 0 0.92 0.28 0 0.96 0.28 0 1 0.28 0 1.04 0.28 0 1.08 0.28 0 1.12 0.28 0 1.16 0.28 0 1.2 0.28 0 0 0.32 0 0.04 0.32 0 0.08 0.32 0 0.12 0.32 0 0.16 0.32 0 0.2 0.32 0 0.24 0.32 0 0.28 0.32 0 0.32 0.32 0 0.36 0.32 0 0.4 0.32 0 0.44 0.32 0 0.48 0.32 0 0.52 0.32 0 0.56 0.32 0 0.6 0.32 0 0.64 0.32 0 0.68 0.32 0 0.72 0.32 0 0.76 0.32 0 0.8 0.32 0 0.84 0.32 0 0.88 0.32 0 0.92 0.32 0 0.96 0.32 0 1 0.32 0 1.04 0.32 0 1.08 0.32 0 1.12 0.32 0 1.16 0.32 0 1.2 0.32 0 0 0.36 0 0.04 0.36 0 0.08 0.36 0 0.12 0.36 0 0.16 0.36 0 0.2 0.36 0 0.24 0.36 0 0.28 0.36 0 0.32 0.36 0 0.36 0.36 0 0.4 0.36 0 0.44 0.36 0 0.48 0.36 0 0.52 0.36 0 0.56 0.36 0 0.6 0.36 0 0.64 0.36 0 0.68 0.36 0 0.72 0.36 0 0.76 0.36 0 0.8 0.36 0 0.84 0.36 0 0.88 0.36 0 0.92 0.36 0 0.96 0.36 0 1 0.36 0 1.04 0.36 0 1.08 0.36 0 1.12 0.36 0 1.16 0.36 0 1.2 0.36 0 0 0.4 0 0.04 0.4 0 0.08 0.4 0 0.12 0.4 0 0.16 0.4 0 0.2 0.4 0 0.24 0.4 0 0.28 0.4 0 0.32 0.4 0 0.36 0.4 0 0.4 0.4 0 0.44 0.4 0 0.48 0.4 0 0.52 0.4 0 0.56 0.4 0 0.6 0.4 0 0.64 0.4 0 0.68 0.4 0 0.72 0.4 0 0.76 0.4 0 0.8 0.4 0 0.84 0.4 0 0.88 0.4 0 0.92 0.4 0 0.96 0.4 0 1 0.4 0 1.04 0.4 0 1.08 0.4 0 1.12 0.4 0 1.16 0.4 0 1.2 0.4 0 0 0.44 0 0.04 0.44 0 0.08 0.44 0 0.12 0.44 0 0.16 0.44 0 0.2 0.44 0 0.24 0.44 0 0.28 0.44 0 0.32 0.44 0 0.36 0.44 0 0.4 0.44 0 0.44 0.44 0 0.48 0.44 0 0.52 0.44 0 0.56 0.44 0 0.6 0.44 0 0.64 0.44 0 0.68 0.44 0 0.72 0.44 0 0.76 0.44 0 0.8 0.44 0 0.84 0.44 0 0.88 0.44 0 0.92 0.44 0 0.96 0.44 0 1 0.44 0 1.04 0.44 0 1.08 0.44 0 1.12 0.44 0 1.16 0.44 0 1.2 0.44 0 0 0.48 0 0.04 0.48 0 0.08 0.48 0 0.12 0.48 0 0.16 0.48 0 0.2 0.48 0 0.24 0.48 0 0.28 0.48 0 0.32 0.48 0 0.36 0.48 0 0.4 0.48 0 0.44 0.48 0 0.48 0.48 0 0.52 0.48 0 0.56 0.48 0 0.6 0.48 0 0.64 0.48 0 0.68 0.48 0 0.72 0.48 0 0.76 0.48 0 0.8 0.48 0 0.84 0.48 0 0.88 0.48 0 0.92 0.48 0 0.96 0.48 0 1 0.48 0 1.04 0.48 0 1.08 0.48 0 1.12 0.48 0 1.16 0.48 0 1.2 0.48 0 0 0.52 0 0.04 0.52 0 0.08 0.52 0 0.12 0.52 0 0.16 0.52 0 0.2 0.52 0 0.24 0.52 0 0.28 0.52 0 0.32 0.52 0 0.36 0.52 0 0.4 0.52 0 0.44 0.52 0 0.48 0.52 0 0.52 0.52 0 0.56 0.52 0 0.6 0.52 0 0.64 0.52 0 0.68 0.52 0 0.72 0.52 0 0.76 0.52 0 0.8 0.52 0 0.84 0.52 0 0.88 0.52 0 0.92 0.52 0 0.96 0.52 0 1 0.52 0 1.04 0.52 0 1.08 0.52 0 1.12 0.52 0 1.16 0.52 0 1.2 0.52 0 0 0.56 0 0.04 0.56 0 0.08 0.56 0 0.12 0.56 0 0.16 0.56 0 0.2 0.56 0 0.24 0.56 0 0.28 0.56 0 0.32 0.56 0 0.36 0.56 0 0.4 0.56 0 0.44 0.56 0 0.48 0.56 0 0.52 0.56 0 0.56 0.56 0 0.6 0.56 0 0.64 0.56 0 0.68 0.56 0 0.72 0.56 0 0.76 0.56 0 0.8 0.56 0 0.84 0.56 0 0.88 0.56 0 0.92 0.56 0 0.96 0.56 0 1 0.56 0 1.04 0.56 0 1.08 0.56 0 1.12 0.56 0 1.16 0.56 0 1.2 0.56 0 0 0.6 0 0.04 0.6 0 0.08 0.6 0 0.12 0.6 0 0.16 0.6 0 0.2 0.6 0 0.24 0.6 0 0.28 0.6 0 0.32 0.6 0 0.36 0.6 0 0.4 0.6 0 0.44 0.6 0 0.48 0.6 0 0.52 0.6 0 0.56 0.6 0 0.6 0.6 0 0.64 0.6 0 0.68 0.6 0 0.72 0.6 0 0.76 0.6 0 0.8 0.6 0 0.84 0.6 0 0.88 0.6 0 0.92 0.6 0 0.96 0.6 0 1 0.6 0 1.04 0.6 0 1.08 0.6 0 1.12 0.6 0 1.16 0.6 0 1.2 0.6 0 0 0.64 0 0.04 0.64 0 0.08 0.64 0 0.12 0.64 0 0.16 0.64 0 0.2 0.64 0 0.24 0.64 0 0.28 0.64 0 0.32 0.64 0 0.36 0.64 0 0.4 0.64 0 0.44 0.64 0 0.48 0.64 0 0.52 0.64 0 0.56 0.64 0 0.6 0.64 0 0.64 0.64 0 0.68 0.64 0 0.72 0.64 0 0.76 0.64 0 0.8 0.64 0 0.84 0.64 0 0.88 0.64 0 0.92 0.64 0 0.96 0.64 0 1 0.64 0 1.04 0.64 0 1.08 0.64 0 1.12 0.64 0 1.16 0.64 0 1.2 0.64 0 0 0.68 0 0.04 0.68 0 0.08 0.68 0 0.12 0.68 0 0.16 0.68 0 0.2 0.68 0 0.24 0.68 0 0.28 0.68 0 0.32 0.68 0 0.36 0.68 0 0.4 0.68 0 0.44 0.68 0 0.48 0.68 0 0.52 0.68 0 0.56 0.68 0 0.6 0.68 0 0.64 0.68 0 0.68 0.68 0 0.72 0.68 0 0.76 0.68 0 0.8 0.68 0 0.84 0.68 0 0.88 0.68 0 0.92 0.68 0 0.96 0.68 0 1 0.68 0 1.04 0.68 0 1.08 0.68 0 1.12 0.68 0 1.16 0.68 0 1.2 0.68 0 0 0.72 0 0.04 0.72 0 0.08 0.72 0 0.12 0.72 0 0.16 0.72 0 0.2 0.72 0 0.24 0.72 0 0.28 0.72 0 0.32 0.72 0 0.36 0.72 0 0.4 0.72 0 0.44 0.72 0 0.48 0.72 0 0.52 0.72 0 0.56 0.72 0 0.6 0.72 0 0.64 0.72 0 0.68 0.72 0 0.72 0.72 0 0.76 0.72 0 0.8 0.72 0 0.84 0.72 0 0.88 0.72 0 0.92 0.72 0 0.96 0.72 0 1 0.72 0 1.04 0.72 0 1.08 0.72 0 1.12 0.72 0 1.16 0.72 0 1.2 0.72 0 0 0.76 0 0.04 0.76 0 0.08 0.76 0 0.12 0.76 0 0.16 0.76 0 0.2 0.76 0 0.24 0.76 0 0.28 0.76 0 0.32 0.76 0 0.36 0.76 0 0.4 0.76 0 0.44 0.76 0 0.48 0.76 0 0.52 0.76 0 0.56 0.76 0 0.6 0.76 0 0.64 0.76 0 0.68 0.76 0 0.72 0.76 0 0.76 0.76 0 0.8 0.76 0 0.84 0.76 0 0.88 0.76 0 0.92 0.76 0 0.96 0.76 0 1 0.76 0 1.04 0.76 0 1.08 0.76 0 1.12 0.76 0 1.16 0.76 0 1.2 0.76 0 0 0.8 0 0.04 0.8 0 0.08 0.8 0 0.12 0.8 0 0.16 0.8 0 0.2 0.8 0 0.24 0.8 0 0.28 0.8 0 0.32 0.8 0 0.36 0.8 0 0.4 0.8 0 0.44 0.8 0 0.48 0.8 0 0.52 0.8 0 0.56 0.8 0 0.6 0.8 0 0.64 0.8 0 0.68 0.8 0 0.72 0.8 0 0.76 0.8 0 0.8 0.8 0 0.84 0.8 0 0.88 0.8 0 0.92 0.8 0 0.96 0.8 0 1 0.8 0 1.04 0.8 0 1.08 0.8 0 1.12 0.8 0 1.16 0.8 0 1.2 0.8 0 0 0.84 0 0.04 0.84 0 0.08 0.84 0 0.12 0.84 0 0.16 0.84 0 0.2 0.84 0 0.24 0.84 0 0.28 0.84 0 0.32 0.84 0 0.36 0.84 0 0.4 0.84 0 0.44 0.84 0 0.48 0.84 0 0.52 0.84 0 0.56 0.84 0 0.6 0.84 0 0.64 0.84 0 0.68 0.84 0 0.72 0.84 0 0.76 0.84 0 0.8 0.84 0 0.84 0.84 0 0.88 0.84 0 0.92 0.84 0 0.96 0.84 0 1 0.84 0 1.04 0.84 0 1.08 0.84 0 1.12 0.84 0 1.16 0.84 0 1.2 0.84 0 0 0.88 0 0.04 0.88 0 0.08 0.88 0 0.12 0.88 0 0.16 0.88 0 0.2 0.88 0 0.24 0.88 0 0.28 0.88 0 0.32 0.88 0 0.36 0.88 0 0.4 0.88 0 0.44 0.88 0 0.48 0.88 0 0.52 0.88 0 0.56 0.88 0 0.6 0.88 0 0.64 0.88 0 0.68 0.88 0 0.72 0.88 0 0.76 0.88 0 0.8 0.88 0 0.84 0.88 0 0.88 0.88 0 0.92 0.88 0 0.96 0.88 0 1 0.88 0 1.04 0.88 0 1.08 0.88 0 1.12 0.88 0 1.16 0.88 0 1.2 0.88 0 0 0.92 0 0.04 0.92 0 0.08 0.92 0 0.12 0.92 0 0.16 0.92 0 0.2 0.92 0 0.24 0.92 0 0.28 0.92 0 0.32 0.92 0 0.36 0.92 0 0.4 0.92 0 0.44 0.92 0 0.48 0.92 0 0.52 0.92 0 0.56 0.92 0 0.6 0.92 0 0.64 0.92 0 0.68 0.92 0 0.72 0.92 0 0.76 0.92 0 0.8 0.92 0 0.84 0.92 0 0.88 0.92 0 0.92 0.92 0 0.96 0.92 0 1 0.92 0 1.04 0.92 0 1.08 0.92 0 1.12 0.92 0 1.16 0.92 0 1.2 0.92 0 0 0.96 0 0.04 0.96 0 0.08 0.96 0 0.12 0.96 0 0.16 0.96 0 0.2 0.96 0 0.24 0.96 0 0.28 0.96 0 0.32 0.96 0 0.36 0.96 0 0.4 0.96 0 0.44 0.96 0 0.48 0.96 0 0.52 0.96 0 0.56 0.96 0 0.6 0.96 0 0.64 0.96 0 0.68 0.96 0 0.72 0.96 0 0.76 0.96 0 0.8 0.96 0 0.84 0.96 0 0.88 0.96 0 0.92 0.96 0 0.96 0.96 0 1 0.96 0 1.04 0.96 0 1.08 0.96 0 1.12 0.96 0 1.16 0.96 0 1.2 0.96 0 0 1 0 0.04 1 0 0.08 1 0 0.12 1 0 0.16 1 0 0.2 1 0 0.24 1 0 0.28 1 0 0.32 1 0 0.36 1 0 0.4 1 0 0.44 1 0 0.48 1 0 0.52 1 0 0.56 1 0 0.6 1 0 0.64 1 0 0.68 1 0 0.72 1 0 0.76 1 0 0.8 1 0 0.84 1 0 0.88 1 0 0.92 1 0 0.96 1 0 1 1 0 1.04 1 0 1.08 1 0 1.12 1 0 1.16 1 0 1.2 1 0 0 1.04 0 0.04 1.04 0 0.08 1.04 0 0.12 1.04 0 0.16 1.04 0 0.2 1.04 0 0.24 1.04 0 0.28 1.04 0 0.32 1.04 0 0.36 1.04 0 0.4 1.04 0 0.44 1.04 0 0.48 1.04 0 0.52 1.04 0 0.56 1.04 0 0.6 1.04 0 0.64 1.04 0 0.68 1.04 0 0.72 1.04 0 0.76 1.04 0 0.8 1.04 0 0.84 1.04 0 0.88 1.04 0 0.92 1.04 0 0.96 1.04 0 1 1.04 0 1.04 1.04 0 1.08 1.04 0 1.12 1.04 0 1.16 1.04 0 1.2 1.04 0 0 1.08 0 0.04 1.08 0 0.08 1.08 0 0.12 1.08 0 0.16 1.08 0 0.2 1.08 0 0.24 1.08 0 0.28 1.08 0 0.32 1.08 0 0.36 1.08 0 0.4 1.08 0 0.44 1.08 0 0.48 1.08 0 0.52 1.08 0 0.56 1.08 0 0.6 1.08 0 0.64 1.08 0 0.68 1.08 0 0.72 1.08 0 0.76 1.08 0 0.8 1.08 0 0.84 1.08 0 0.88 1.08 0 0.92 1.08 0 0.96 1.08 0 1 1.08 0 1.04 1.08 0 1.08 1.08 0 1.12 1.08 0 1.16 1.08 0 1.2 1.08 0 0 1.12 0 
[...]
			<PointData Scalars="VitesseX">
				<DataArray Name="VitesseX" type="Float32" format="ascii">
 0 -0.0613584 -0.11992 -0.107714 -0.0508398 0.0517099 0.175026 0.296138 0.384484 0.430302 0.425993 0.392919 0.352907 0.312202 0.278828 0.26072 0.256901 0.264079 0.27546 0.286934 0.284198 0.143363 -0.185479 -0.42673 -0.474862 -0.392584 -0.315808 -0.238342 -0.160165 -0.0803277 0 0 0.058813 0.0293548 0.0154385 0.0602377 0.133544 0.223457 0.314083 0.390269 0.420389 0.407848 0.37185 0.329613 0.294953 0.270819 0.257805 0.258024 0.26588 0.277342 0.288029 0.285152 0.146877 -0.180776 -0.4243 -0.474988 -0.393078 -0.316308 -0.238731 -0.160385 -0.0805186 0 0 0.0334463 0.0615513 0.0601069 0.0695195 0.0917075 0.120311 0.158277 0.196704 0.233507 0.256859 0.259921 0.253836 0.246174 0.241005 0.243325 0.251502 0.264924 0.278763 0.289374 0.287197 0.157214 -0.165996 -0.416004 -0.474116 -0.393491 -0.316816 -0.239197 -0.160679 -0.0807967 0 0 -0.0223553 -0.0381731 -0.0424161 -0.0440047 -0.0382502 -0.024293 -0.00400026 0.0171275 0.0379786 0.0736405 0.1153 0.14806 0.171622 0.193168 0.213363 0.235933 0.257648 0.275415 0.288149 0.287964 0.17185 -0.142653 -0.402227 -0.472164 -0.394126 -0.317567 -0.240031 -0.161229 -0.0808886 0 0 -0.0689694 -0.109265 -0.125235 -0.131546 -0.133579 -0.131381 -0.125357 -0.107311 -0.0760515 -0.0390527 0.00811771 0.0561611 0.101246 0.141811 0.179613 0.21266 0.241815 0.265086 0.281785 0.284858 0.186933 -0.112958 -0.383287 -0.46849 -0.395062 -0.318558 -0.241199 -0.162032 -0.0809373 0 0 -0.0936831 -0.151389 -0.178328 -0.192961 -0.201613 -0.20416 -0.202906 -0.184801 -0.146449 -0.10064 -0.0521124 0.00127089 0.0532313 0.102317 0.145395 0.184757 0.218817 0.247488 0.268112 0.275905 0.199156 -0.0790749 -0.359165 -0.462026 -0.396411 -0.319681 -0.242611 -0.163165 -0.0811195 0 0 -0.106938 -0.170577 -0.202899 -0.225088 -0.238567 -0.246084 -0.245475 -0.234113 -0.197366 -0.142632 -0.0871833 -0.0327494 0.0214275 0.0700166 0.114927 0.15386 0.190424 0.222123 0.246877 0.260257 0.206345 -0.0430234 -0.329465 -0.451486 -0.39834 -0.320933 -0.244176 -0.164673 -0.0817235 0 0 -0.101848 -0.169589 -0.209747 -0.234903 -0.251047 -0.262118 -0.267241 -0.261516 -0.238081 -0.186731 -0.121932 -0.0616753 -0.00787784 0.0425637 0.0847753 0.123295 0.157724 0.191245 0.219285 0.237937 0.207022 -0.00644875 -0.293451 -0.435196 -0.400932 -0.32239 -0.245808 -0.166337 -0.0826768 0 0 -0.0827942 -0.142506 -0.179744 -0.213458 -0.240522 -0.260417 -0.273737 -0.278035 -0.266814 -0.234617 -0.175721 -0.105216 -0.0418284 0.009763 0.0553898 0.0911731 0.124796 0.156716 0.186499 0.209144 0.200151 0.029117 -0.249983 -0.41084 -0.40399 -0.324071 -0.247487 -0.168202 -0.0839224 0 0 -0.0472738 -0.0872424 -0.115048 -0.13915 -0.181189 -0.229554 -0.264991 -0.284918 -0.290255 -0.275035 -0.23621 -0.171486 -0.0965873 -0.0311718 0.0176953 0.0580622 0.0891381 0.119654 0.14937 0.175616 0.18433 0.0614009 -0.197878 -0.377125 -0.404969 -0.325844 -0.249024 -0.170072 -0.0854173 0 0 0.000251902 -0.011294 -0.0401655 -0.0728718 -0.116754 -0.176405 -0.239287 -0.284383 -0.308117 -0.312976 -0.29418 -0.250108 -0.178688 -0.0980866 -0.0314616 0.0146116 0.0508602 0.0796676 0.109798 0.137904 0.159114 0.0867933 -0.137616 -0.33413 -0.397732 -0.327649 -0.250504 -0.171923 -0.0871673 0 0 0.0322909 0.0489443 0.0274599 -0.0173231 -0.0659431 -0.126385 -0.200493 -0.269544 -0.317267 -0.343711 -0.348815 -0.326845 -0.278745 -0.200058 -0.111703 -0.0432353 0.00156899 0.0362687 0.0657127 0.0978021 0.125 0.100532 -0.0736728 -0.279127 -0.37615 -0.329818 -0.2521 -0.173652 -0.0886304 0 0 0.044232 0.0731103 0.0624744 0.0220157 -0.0324331 -0.0928649 -0.162716 -0.242219 -0.31198 -0.360872 -0.389457 -0.39571 -0.371769 -0.320706 -0.232931 -0.135009 -0.0644153 -0.0184187 0.0178982 0.0533631 0.0842869 0.0973341 -0.013752 -0.21041 -0.33458 -0.331362 -0.254142 -0.175451 -0.0896924 0 0 0.0440721 0.0711398 0.0647927 0.0284608 -0.022725 -0.0793852 -0.138946 -0.20736 -0.287198 -0.358433 -0.409725 -0.441799 -0.451294 -0.426561 -0.37241 -0.273076 -0.164269 -0.0905256 -0.0402913 0.00106046 0.0400405 0.0744233 0.031746 -0.130343 -0.275573 -0.322684 -0.256641 -0.177638 -0.0909214 0 0 0.037934 0.0589399 0.0522691 0.0185766 -0.0309371 -0.0833546 -0.132736 -0.183101 -0.242551 -0.321354 -0.40152 -0.460888 -0.498757 -0.512575 -0.488382 -0.429501 -0.315758 -0.194888 -0.11586 -0.0607766 -0.00999992 0.0349443 0.0514183 -0.0503273 -0.203425 -0.290428 -0.258916 -0.180512 -0.0929421 0 0 0.0234369 0.0340226 0.0234387 -0.00918577 -0.0548332 -0.0989763 -0.137183 -0.17215 -0.21231 -0.262277 -0.340696 -0.437632 -0.51313 -0.559004 -0.57742 -0.554588 -0.488061 -0.356743 -0.225073 -0.137975 -0.0731198 -0.0152713 0.0396462 0.0126067 -0.119482 -0.231627 -0.254567 -0.183948 -0.0957167 0 0 0.00315441 -0.00059383 -0.0169519 -0.05338 -0.0952855 -0.127599 -0.148841 -0.16828 -0.191934 -0.227047 -0.274062 -0.353926 -0.469737 -0.566885 -0.621366 -0.643294 -0.621317 -0.543178 -0.392702 -0.248478 -0.151395 -0.0738283 -0.00243644 0.0419812 -0.0333074 -0.156056 -0.226648 -0.18657 -0.0984371 0 0 -0.0200089 -0.0435821 -0.0767949 -0.107159 -0.128707 -0.143184 -0.153692 -0.163176 -0.177124 -0.199307 -0.23511 -0.284758 -0.366159 -0.496507 -0.619196 -0.683854 -0.70648 -0.683663 -0.589047 -0.417504 -0.256773 -0.148838 -0.062159 0.0299606 0.0339094 -0.0693703 -0.167182 -0.181283 -0.1005 0 0 -0.0522856 -0.0919068 -0.107962 -0.115999 -0.126076 -0.133765 -0.138456 -0.1435 -0.154083 -0.17319 -0.201821 -0.241582 -0.296272 -0.379923 -0.519199 -0.664255 -0.740788 -0.762159 -0.733267 -0.613028 -0.420972 -0.250254 -0.129166 -0.0249299 0.0624758 0.0183658 -0.0865549 -0.150583 -0.100084 0 0 -0.073712 -0.103884 -0.104046 -0.100537 -0.0988942 -0.0975027 -0.0960032 -0.100145 -0.113731 -0.136913 -0.167023 -0.20378 -0.246683 -0.305994 -0.391713 -0.535635 -0.697772 -0.784904 -0.801482 -0.757795 -0.610421 -0.399967 -0.221258 -0.0956665 0.0402551 0.080547 0.0076208 -0.0844119 -0.0905128 0 0 -0.0698111 -0.0904686 -0.0727451 -0.0557476 -0.0447738 -0.0366726 -0.0355204 -0.0443349 -0.0632458 -0.0906236 -0.125258 -0.163261 -0.203554 -0.247895 -0.309976 -0.397734 -0.53973 -0.709494 -0.808521 -0.821143 -0.751976 -0.580671 -0.355845 -0.167657 -0.0357735 0.102082 0.0937434 0.00818999 -0.0519981 0 0 -0.0369924 -0.0317111 -0.0113398 0.00589667 0.0195733 0.0224522 0.0141646 -0.00163545 -0.0232061 -0.050531 -0.0823098 -0.117735 -0.156701 -0.198723 -0.243054 -0.302524 -0.390418 -0.525826 -0.69304 -0.799013 -0.811086 -0.715549 -0.525086 -0.29361 -0.111953 0.05897 0.146457 0.108196 0.0269082 0 0 0.0382908 0.0611586 0.0469555 0.0447927 0.0519269 0.0511793 0.0413633 0.0273 0.00936298 -0.0144353 -0.0436493 -0.0761792 -0.110368 -0.145924 -0.183252 -0.225151 -0.282052 -0.3664 -0.494063 -0.654254 -0.757212 -0.770922 -0.656856 -0.450114 -0.208608 -0.0374009 0.144986 0.176102 0.120334 0 0 0.0824369 0.0913049 0.0602181 0.0509824 0.0524556 0.0522742 0.0525572 0.0504063 0.0414448 0.0252782 0.00214585 -0.0263031 -0.0577794 -0.0896143 -0.123047 -0.157495 -0.194775 -0.24681 -0.325108 -0.448898 -0.597512 -0.695887 -0.710007 -0.585301 -0.383451 -0.141157 0.0704073 0.18656 0.175137 0 0 0.0532217 0.0474364 0.0299315 0.0250277 0.0276375 0.0405688 0.0579653 0.0676862 0.0662427 0.0596403 0.0503372 0.03602 0.0135967 -0.0165308 -0.0510268 -0.0860693 -0.118989 -0.157573 -0.196182 -0.276322 -0.392298 -0.536767 -0.630446 -0.645295 -0.522554 -0.300615 -0.0929892 0.13583 0.152308 0 0 0.000675313 -0.00402398 -0.00309928 -0.00208053 0.00442873 0.0262626 0.0546622 0.0677778 0.0721797 0.0769552 0.0819542 0.0826174 0.0769169 0.0617329 0.0364287 0.00194241 -0.0364536 -0.0767305 -0.109021 -0.153594 -0.20634 -0.353137 -0.490101 -0.582409 -0.590654 -0.463142 -0.247616 -0.0524017 0.0932578 0 0 -0.0244845 -0.0238217 -0.0239889 -0.0183626 -0.00952101 0.01352 0.0347933 0.0413587 0.0448088 0.0557321 0.0743645 0.0943421 0.108554 0.113226 0.103099 0.0814232 0.0501686 0.0133558 -0.0270859 -0.0649105 -0.100534 -0.167011 -0.293198 -0.481449 -0.543824 -0.530752 -0.422768 -0.235805 -0.0321181 0 0 -0.0330626 -0.0340982 -0.0389791 -0.027626 -0.0151524 0.00394929 0.0128401 0.00946519 0.00978038 0.0202284 0.0384114 0.0604838 0.0830945 0.104661 0.11993 0.123335 0.112215 0.0857213 0.0481571 0.00967088 -0.0337872 -0.0644021 -0.126531 -0.274133 -0.428938 -0.523254 -0.49828 -0.333348 -0.144944 0 0 -0.0314316 -0.072507 -0.0479584 -0.0346227 -0.014443 -0.00143206 -0.00483202 -0.0148812 -0.0162112 -0.00769982 0.0063035 0.0220074 0.0376575 0.0527227 0.0674904 0.0830079 0.0960828 0.0996562 0.0903739 0.0618175 0.0218543 -0.0197464 -0.0678098 -0.114576 -0.247073 -0.382359 -0.426045 -0.376125 -0.190433 0 0 -0.197334 -0.0966102 -0.0610998 -0.0262285 -0.00620916 -0.00247698 -0.0136889 -0.0261916 -0.0285924 -0.0216832 -0.0116382 -0.00215542 0.0055262 0.0118344 0.0178416 0.0246866 0.032536 0.0397418 0.0403493 0.0263716 -0.00536485 -0.065161 -0.133876 -0.179871 -0.193511 -0.181748 -0.182408 -0.197188 -0.198095 0 0 0 0 0 0 0 0 0 0 0 0 0 0 0 0 0 0 0 0 0 0 0 0 0 0 0 0 0 0 0 0
				</DataArray>
				<DataArray Name="VitesseY" type="Float32" format="ascii">
 0 0 0 0 0 0 0 0 0 0 0 0 0 0 0 0 0 0 0 0 0 0 0 0 0 0 0 0 0 0 0 -0.0527278 0.0634137 0.0327176 -0.0228445 -0.0706747 -0.0970463 -0.108116 -0.0954453 -0.0607626 -0.00673427 0.0320278 0.0455837 0.04514 0.0388942 0.0274268 0.0126933 -0.00017268 -0.00712922 -0.0100531 -0.0108156 -0.00990656 -0.0043619 0.00518052 0.01202 0.01361 0.0109873 0.00806528 0.00540295 0.00303485 0.00110537 0 -0.11196 0.0385123 0.0671387 -0.0337748 -0.105707 -0.149464 -0.165956 -0.157992 -0.10446 -0.0214979 0.0444661 0.074594 0.0729499 0.0620612 0.0423253 0.017362 -0.00442009 -0.01633 -0.0203599 -0.0205716 -0.0180661 -0.00760452 0.0103452 0.0236925 0.0271426 0.0221064 0.016099 0.0107158 0.00619477 0.00264726 0 -0.102814 0.0264593 0.0750687 -0.0278692 -0.111333 -0.163648 -0.186205 -0.1878 -0.125917 -0.0493118 0.021764 0.061 0.0683475 0.0592709 0.0373692 0.00846072 -0.0178088 -0.0302593 -0.0324828 -0.0302229 -0.0241952 -0.00938471 0.0153089 0.0345455 0.0403528 0.0334255 0.0242346 0.0159826 0.00935885 0.00434077 0 -0.0497594 0.0728793 0.0929505 -0.0174098 -0.105835 -0.164755 -0.193164 -0.199029 -0.145673 -0.0733733 -0.018561 0.0208197 0.0360861 0.0312425 0.0116877 -0.0155383 -0.0415072 -0.0501469 -0.0487485 -0.0411464 -0.0295543 -0.0104788 0.0195364 0.0440506 0.0529185 0.0448238 0.0324459 0.0209069 0.0117705 0.00520559 0 0.0491199 0.144796 0.127182 -0.00058648 -0.0935894 -0.158247 -0.191272 -0.200129 -0.172659 -0.107853 -0.058676 -0.0265504 -0.00979774 -0.0116941 -0.0268926 -0.0499376 -0.0720057 -0.0763944 -0.0700533 -0.0547052 -0.0362952 -0.0125118 0.0220628 0.0516705 0.0644755 0.0560179 0.0406185 0.025164 0.0128061 0.00451498 0 0.16846 0.234205 0.167347 0.0266941 -0.075885 -0.145745 -0.185635 -0.199627 -0.194614 -0.15294 -0.106104 -0.0750667 -0.0610988 -0.0586198 -0.0698363 -0.087465 -0.105723 -0.107323 -0.0953736 -0.0722775 -0.0464978 -0.0175537 0.0215186 0.0567456 0.07464 0.0668517 0.0487129 0.0289603 0.012755 0.00245625 0 0.293189 0.326524 0.214721 0.0600735 -0.0537181 -0.130144 -0.17459 -0.198175 -0.205187 -0.194614 -0.162626 -0.130955 -0.112144 -0.107859 -0.112215 -0.124928 -0.138971 -0.139536 -0.124107 -0.0941566 -0.0613392 -0.0272704 0.0165217 0.0587344 0.0831475 0.0778127 0.0571902 0.0331606 0.0128143 0.000283473 0 0.397769 0.415021 0.262157 0.0984407 -0.0249201 -0.107555 -0.158122 -0.188204 -0.208676 -0.217968 -0.215061 -0.194612 -0.171778 -0.158154 -0.156795 -0.161333 -0.170364 -0.170827 -0.154301 -0.11994 -0.0811943 -0.0425258 0.0059217 0.0567574 0.0895322 0.0896067 0.0668828 0.0388901 0.0143501 -0.00060558 0 0.471479 0.480044 0.305474 0.12872 0.0110427 -0.0661279 -0.123145 -0.166375 -0.198397 -0.226373 -0.246536 -0.253528 -0.241136 -0.220266 -0.205096 -0.201028 -0.200921 -0.199889 -0.184067 -0.148955 -0.105567 -0.0628785 -0.0111801 0.0493501 0.0920203 0.10126 0.0784004 0.0469762 0.0181308 0.000254735 0 0.505608 0.50174 0.344079 0.155496 0.0496717 -0.0104203 -0.0625666 -0.120556 -0.171269 -0.216801 -0.259156 -0.291708 -0.305329 -0.296338 -0.2691 -0.246958 -0.235939 -0.227831 -0.212488 -0.179884 -0.13247 -0.0876889 -0.0344461 0.03433 0.0889395 0.110909 0.0917879 0.0574925 0.0241877 0.00258258 0 0.496397 0.487295 0.36233 0.196452 0.0948798 0.0454227 0.0100311 -0.0480057 -0.12182 -0.187261 -0.250464 -0.307778 -0.349625 -0.366343 -0.353897 -0.312646 -0.280604 -0.259972 -0.241189 -0.209925 -0.163073 -0.115505 -0.062338 0.0106632 0.0790136 0.116701 0.106662 0.0701343 0.0320707 0.00600303 0 0.464274 0.451905 0.361157 0.238606 0.146753 0.105234 0.0795577 0.0346142 -0.0480068 -0.136329 -0.219464 -0.299335 -0.368778 -0.415562 -0.431828 -0.408954 -0.347882 -0.305219 -0.272998 -0.240999 -0.196976 -0.145415 -0.0923906 -0.0204799 0.0607814 0.115283 0.122283 0.0845097 0.0411182 0.00991082 0 0.425803 0.411006 0.355123 0.27062 0.200396 0.165972 0.144467 0.107414 0.0349165 -0.0624977 -0.166963 -0.266637 -0.359446 -0.437706 -0.485538 -0.497831 -0.456916 -0.374408 -0.319859 -0.275367 -0.232826 -0.177813 -0.123476 -0.0559084 0.032395 0.103235 0.131053 0.0998997 0.0508346 0.0135374 0 0.385793 0.378158 0.348986 0.298869 0.251144 0.22482 0.203318 0.16584 0.10309 0.0156815 -0.0890517 -0.208471 -0.323642 -0.42621 -0.50936 -0.554972 -0.561327 -0.494414 -0.393238 -0.326399 -0.269125 -0.214926 -0.156174 -0.0909585 -0.00441903 0.0805788 0.130284 0.116024 0.0614229 0.0169532 0 0.355899 0.355822 0.348955 0.325353 0.300109 0.279898 0.253485 0.211479 0.150436 0.0748689 -0.0136271 -0.120938 -0.253236 -0.383905 -0.4946 -0.579929 -0.622936 -0.61791 -0.521634 -0.403471 -0.323372 -0.255728 -0.190963 -0.125557 -0.0451319 0.0488122 0.116701 0.128938 0.0732135 0.0209903 0 0.343208 0.351087 0.35599 0.354422 0.349085 0.327402 0.290866 0.241488 0.182132 0.113555 0.0385066 -0.0433473 -0.151782 -0.294849 -0.443732 -0.562897 -0.647537 -0.686381 -0.664084 -0.537584 -0.405202 -0.309721 -0.230293 -0.159694 -0.0843475 0.009098 0.0908451 0.130109 0.0867789 0.0266045 0 0.354926 0.364904 0.378365 0.390642 0.38837 0.360134 0.313013 0.258531 0.200802 0.13855 0.0757272 0.00666841 -0.0695272 -0.179162 -0.333735 -0.500537 -0.628151 -0.70969 -0.742082 -0.696509 -0.539671 -0.393556 -0.285286 -0.197115 -0.119581 -0.0332774 0.0560191 0.117837 0.0991572 0.0338104 0 0.397209 0.402999 0.411403 0.415898 0.410765 0.377635 0.325557 0.268084 0.211567 0.156902 0.102818 0.0472859 -0.0165708 -0.0931763 -0.20415 -0.369092 -0.552033 -0.687582 -0.763247 -0.78442 -0.706458 -0.524422 -0.36697 -0.247232 -0.158347 -0.0764101 0.0162296 0.0898089 0.102285 0.0407442 0 0.472117 0.46097 0.431852 0.421155 0.419296 0.386715 0.329833 0.271633 0.22069 0.174743 0.129732 0.0817996 0.0285654 -0.0354604 -0.114987 -0.228082 -0.399752 -0.59413 -0.734794 -0.800834 -0.80656 -0.689601 -0.492221 -0.325206 -0.196759 -0.109409 -0.0261682 0.0506458 0.0926444 0.041541 0 0.563105 0.522624 0.430507 0.412144 0.415274 0.383623 0.327427 0.274024 0.232235 0.196065 0.159204 0.117833 0.0696586 0.0134573 -0.0517205 -0.13372 -0.248657 -0.421001 -0.615566 -0.757622 -0.819704 -0.796664 -0.65179 -0.447588 -0.275736 -0.154509 -0.065809 0.0105043 0.0635125 0.0275496 0 0.64907 0.561274 0.414234 0.392035 0.399347 0.371492 0.323194 0.277509 0.244334 0.217044 0.187713 0.151331 0.107974 0.0602477 0.00356199 -0.0649888 -0.146168 -0.25587 -0.422638 -0.611713 -0.751628 -0.80971 -0.755235 -0.595776 -0.391838 -0.206156 -0.100898 -0.0338468 0.0224653 -0.00432281 0 0.661077 0.536035 0.353474 0.321786 0.318761 0.29161 0.248049 0.20923 0.190089 0.184625 0.178872 0.16359 0.137086 0.0984689 0.0510968 -0.00346753 -0.0673073 -0.145356 -0.249105 -0.401368 -0.581406 -0.7153 -0.770162 -0.694998 -0.536033 -0.352904 -0.167676 -0.0653765 -0.0198828 -0.0645867 0 0.540509 0.347277 0.155361 0.0921548 0.0567203 0.0252531 -0.0116316 -0.0342576 -0.030566 -0.00757699 0.0225355 0.0510599 0.0726586 0.0834344 0.0780188 0.0517395 0.00348034 -0.0583641 -0.127284 -0.221069 -0.356551 -0.525931 -0.656455 -0.709042 -0.62958 -0.490078 -0.292719 -0.126643 -0.0682659 -0.134007 0 0.166777 -0.0208316 -0.13 -0.196422 -0.241442 -0.266134 -0.283224 -0.284787 -0.271271 -0.247988 -0.216572 -0.175804 -0.124388 -0.0650805 -0.00712855 0.0362771 0.0521844 0.033037 -0.0242081 -0.0942833 -0.167328 -0.294111 -0.450192 -0.585408 -0.64528 -0.582516 -0.481813 -0.274402 -0.11514 -0.180313 0 -0.141216 -0.27321 -0.284145 -0.322845 -0.356581 -0.369706 -0.375327 -0.373447 -0.369033 -0.363602 -0.352433 -0.32935 -0.292115 -0.239993 -0.173042 -0.094778 -0.016217 0.0428253 0.0652026 0.0398191 -0.0362464 -0.110868 -0.208868 -0.383545 -0.522494 -0.590556 -0.544098 -0.428883 -0.247275 -0.193976 0 -0.140558 -0.274545 -0.249329 -0.273615 -0.295873 -0.301283 -0.304785 -0.308714 -0.316867 -0.327742 -0.337047 -0.342285 -0.33916 -0.321093 -0.281161 -0.219869 -0.144778 -0.0597122 0.0250991 0.0837827 0.102773 0.0582587 -0.0373135 -0.140402 -0.301005 -0.463226 -0.530808 -0.523698 -0.382857 -0.182099 0 -0.0205916 -0.17327 -0.172199 -0.203894 -0.221001 -0.225652 -0.229683 -0.235467 -0.245949 -0.256055 -0.261109 -0.263246 -0.26439 -0.265578 -0.266114 -0.257626 -0.224685 -0.162413 -0.0812765 0.0123476 0.0965622 0.147586 0.144997 0.0698701 -0.0928248 -0.247599 -0.423003 -0.498432 -0.426367 -0.182634 0 0.0886264 -0.0425471 -0.104457 -0.1413 -0.149505 -0.151003 -0.151715 -0.158243 -0.169758 -0.177669 -0.182197 -0.183863 -0.184099 -0.184424 -0.185685 -0.187906 -0.189497 -0.182542 -0.149366 -0.0816501 0.0113398 0.110522 0.177067 0.186744 0.135552 -0.0526577 -0.235799 -0.333472 -0.37628 -0.197319 0 0.442874 -0.00669062 -0.0657421 -0.0700852 -0.0890574 -0.0739218 -0.0716262 -0.0777782 -0.0858001 -0.0909785 -0.0944037 -0.0951708 -0.0950197 -0.0949555 -0.0958321 -0.0976998 -0.0998579 -0.101567 -0.100888 -0.0906338 -0.0509621 0.0286724 0.12174 0.17549 0.152058 0.0929236 -0.0322769 -0.144966 -0.190444 -0.198131 0 3.31315 0 0 0 0 0 0 0 0 0 0 0 0 0 0 0 0 0 0 0 0 0 0 0 0 0 0 0 0 0 0
				</DataArray>
			</PointData>
			<CellData Scalars="Density">
				<DataArray Name="Density" type="Float32" format="ascii">