<?xml version="1.0"?>
<VTKFile type="PolyData">
	<PolyData>
		<Piece NumberOfPoints="961" NumberOfPolys="900">
			<Points>
				<DataArray type="Float32" NumberOfComponents="3" format="ascii">
 0 0 0 0.04 0 0 0.08 0 0 0.12 0 0 0.16 0 0 0.2 0 0 0.24 0 0 0.28 0 0 0.32 0 0 0.36 0 0 0.4 0 0 0.44 0 0 0.48 0 0 0.52 0 0 0.56 0 0 0.6 0 0 0.64 0 0 0.68 0 0 0.72 0 0 0.76 0 0 0.8 0 0 0.84 0 0 0.88 0 0 0.92 0 0 0.96 0 0 1 0 0 1.04 0 0 1.08 0 0 1.12 0 0 1.16 0 0 1.2 0 0 0 0.04 0 0.04 0.04 0 0.08 0.04 0 0.12 0.04 0 0.16 0.04 0 0.2 0.04 0 0.24 0.04 0 0.28 0.04 0 0.32 0.04 0 0.36 0.04 0 0.4 0.04 0 0.44 0.04 0 0.48 0.04 0 0.52 0.04 0 0.56 0.04 0 0.6 0.04 0 0.64 0.04 0 0.68 0.04 0 0.72 0.04 0 0.76 0.04 0 0.8 0.04 0 0.84 0.04 0 0.88 0.04 0 0.92 0.04 0 0.96 0.04 0 1 0.04 0 1.04 0.04 0 1.08 0.04 0 1.12 0.04 0 1.16 0.04 0 1.2 0.04 0 0 0.08 0 0.04 0.08 0 0.08 0.08 0 0.12 0.08 0 0.16 0.08 0 0.2 0.08 0 0.24 0.08 0 0.28 0.08 0 0.32 0.08 0 0.36 0.08 0 0.4 0.08 0 0.44 0.08 0 0.48 0.08 0 0.52 0.08 0 0.56 0.08 0 0.6 0.08 0 0.64 0.08 0 0.68 0.08 0 0.72 0.08 0 0.76 0.08 0 0.8 0.08 0 0.84 0.08 0 0.88 0.08 0 0.92 0.08 0 0.96 0.08 0 1 0.08 0 1.04 0.08 0 1.08 0.08 0 1.12 0.08 0 1.16 0.08 0 1.2 0.08 0 0 0.12 0 0.04 0.12 0 0.08 0.12 0 0.12 0.12 0 0.16 0.12 0 0.2 0.12 0 0.24 0.12 0 0.28 0.12 0 0.32 0.12 0 0.36 0.12 0 0.4 0.12 0 0.44 0.12 0 0.48 0.12 0 0.52 0.12 0 0.56 0.12 0 0.6 0.12 0 0.64 0.12 0 0.68 0.12 0 0.72 0.12 0 0.76 0.12 0 0.8 0.12 0 0.84 0.12 0 0.88 0.12 0 0.92 0.12 0 0.96 0.12 0 1 0.12 0 1.04 0.12 0 1.08 0.12 0 1.12 0.12 0 1.16 0.12 0 1.2 0.12 0 0 0.16 0 0.04 0.16 0 0.08 0.16 0 0.12 0.16 0 0.16 0.16 0 0.2 0.16 0 0.24 0.16 0 0.28 0.16 0 0.32 0.16 0 0.36 0.16 0 0.4 0.16 0 0.44 0.16 0 0.48 0.16 0 0.52 0.16 0 0.56 0.16 0 0.6 0.16 0 0.64 0.16 0 0.68 0.16 0 0.72 0.16 0 0.76 0.16 0 0.8 0.16 0 0.84 0.16 0 0.88 0.16 0 0.92 0.16 0 0.96 0.16 0 1 0.16 0 1.04 0.16 0 1.08 0.16 0 1.12 0.16 0 1.16 0.16 0 1.2 0.16 0 0 0.2 0 0.04 0.2 0 0.08 0.2 0 0.12 0.2 0 0.16 0.2 0 0.2 0.2 0 0.24 0.2 0 0.28 0.2 0 0.32 0.2 0 0.36 0.2 0 0.4 0.2 0 0.44 0.2 0 0.48 0.2 0 0.52 0.2 0 0.56 0.2 0 0.6 0.2 0 0.64 0.2 0 0.68 0.2 0 0.72 0.2 0 0.76 0.2 0 0.8 0.2 0 0.84 0.2 0 0.88 0.2 0 0.92 0.2 0 0.96 0.2 0 1 0.2 0 1.04 0.2 0 1.08 0.2 0 1.12 0.2 0 1.16 0.2 0 1.2 0.2 0 0 0.24 0 0.04 0.24 0 0.08 0.24 0 0.12 0.24 0 0.16 0.24 0 0.2 0.24 0 0.24 0.24 0 0.28 0.24 0 0.32 0.24 0 0.36 0.24 0 0.4 0.24 0 0.44 0.24 0 0.48 0.24 0 0.52 0.24 0 0.56 0.24 0 0.6 0.24 0 0.64 0.24 0 0.68 0.24 0 0.72 0.24 0 0.76 0.24 0 0.8 0.24 0 0.84 0.24 0 0.88 0.24 0 0.92 0.24 0 0.96 0.24 0 1 0.24 0 1.04 0.24 0 1.08 0.24 0 1.12 0.24 0 1.16 0.24 0 1.2 0.24 0 0 0.28 0 0.04 0.28 0 0.08 0.28 0 0.12 0.28 0 0.16 0.28 0 0.2 0.28 0 0.24 0.28 0 0.28 0.28 0 0.32 0.28 0 0.36 0.28 0 0.4 0.28 0 0.44 0.28 0 0.48 0.28 0 0.52 0.28 0 0.56 0.28 0 0.6 0.28 0 0.64 0.28 0 0.68 0.28 0 0.72 0.28 0 0.76 0.28 0 0.8 0.28 0 0.84 0.28 0 0.88 0.28 0 0.92 0.28 0 0.96 0.28 0 1 0.28 0 1.04 0.28 0 1.08 0.28 0 1.12 0.28 0 1.16 0.28 0 1.2 0.28 0 0 0.32 0 0.04 0.32 0 0.08 0.32 0 0.12 0.32 0 0.16 0.32 0 0.2 0.32 0 0.24 0.32 0 0.28 0.32 0 0.32 0.32 0 0.36 0.32 0 0.4 0.32 0 0.44 0.32 0 0.48 0.32 0 0.52 0.32 0 0.56 0.32 0 0.6 0.32 0 0.64 0.32 0 0.68 0.32 0 0.72 0.32 0 0.76 0.32 0 0.8 0.32 0 0.84 0.32 0 0.88 0.32 0 0.92 0.32 0 0.96 0.32 0 1 0.32 0 1.04 0.32 0 1.08 0.32 0 1.12 0.32 0 1.16 0.32 0 1.2 0.32 0 0 0.36 0 0.04 0.36 0 0.08 0.36 0 0.12 0.36 0 0.16 0.36 0 0.2 0.36 0 0.24 0.36 0 0.28 0.36 0 0.32 0.36 0 0.36 0.36 0 0.4 0.36 0 0.44 0.36 0 0.48 0.36 0 0.52 0.36 0 0.56 0.36 0 0.6 0.36 0 0.64 0.36 0 0.68 0.36 0 0.72 0.36 0 0.76 0.36 0 0.8 0.36 0 0.84 0.36 0 0.88 0.36 0 0.92 0.36 0 0.96 0.36 0 1 0.36 0 1.04 0.36 0 1.08 0.36 0 1.12 0.36 0 1.16 0.36 0 1.2 0.36 0 0 0.4 0 0.04 0.4 0 0.08 0.4 0 0.12 0.4 0 0.16 0.4 0 0.2 0.4 0 0.24 0.4 0 0.28 0.4 0 0.32 0.4 0 0.36 0.4 0 0.4 0.4 0 0.44 0.4 0 0.48 0.4 0 0.52 0.4 0 0.56 0.4 0 0.6 0.4 0 0.64 0.4 0 0.68 0.4 0 0.72 0.4 0 0.76 0.4 0 0.8 0.4 0 0.84 0.4 0 0.88 0.4 0 0.92 0.4 0 0.96 0.4 0 1 0.4 0 1.04 0.4 0 1.08 0.4 0 1.12 0.4 0 1.16 0.4 0 1.2 0.4 0 0 0.44 0 0.04 0.44 0 0.08 0.44 0 0.12 0.44 0 0.16 0.44 0 0.2 0.44 0 0.24 0.44 0 0.28 0.44 0 0.32 0.44 0 0.36 0.44 0 0.4 0.44 0 0.44 0.44 0 0.48 0.44 0 0.52 0.44 0 0.56 0.44 0 0.6 0.44 0 0.64 0.44 0 0.68 0.44 0 0.72 0.44 0 0.76 0.44 0 0.8 0.44 0 0.84 0.44 0 0.88 0.44 0 0.92 0.44 0 0.96 0.44 0 1 0.44 0 1.04 0.44 0 1.08 0.44 0 1.12 0.44 0 1.16 0.44 0 1.2 0.44 0 0 0.48 0 0.04 0.48 0 0.08 0.48 0 0.12 0.48 0 0.16 0.48 0 0.2 0.48 0 0.24 0.48 0 0.28 0.48 0 0.32 0.48 0 0.36 0.48 0 0.4 0.48 0 0.44 0.48 0 0.48 0.48 0 0.52 0.48 0 0.56 0.48 0 0.6 0.48 0 0.64 0.48 0 0.68 0.48 0 0.72 0.48 0 0.76 0.48 0 0.8 0.48 0 0.84 0.48 0 0.88 0.48 0 0.92 0.48 0 0.96 0.48 0 1 0.48 0 1.04 0.48 0 1.08 0.48 0 1.12 0.48 0 1.16 0.48 0 1.2 0.48 0 0 0.52 0 0.04 0.52 0 0.08 0.52 0 0.12 0.52 0 0.16 0.52 0 0.2 0.52 0 0.24 0.52 0 0.28 0.52 0 0.32 0.52 0 0.36 0.52 0 0.4 0.52 0 0.44 0.52 0 0.48 0.52 0 0.52 0.52 0 0.56 0.52 0 0.6 0.52 0 0.64 0.52 0 0.68 0.52 0 0.72 0.52 0 0.76 0.52 0 0.8 0.52 0 0.84 0.52 0 0.88 0.52 0 0.92 0.52 0 0.96 0.52 0 1 0.52 0 1.04 0.52 0 1.08 0.52 0 1.12 0.52 0 1.16 0.52 0 1.2 0.52 0 0 0.56 0 0.04 0.56 0 0.08 0.56 0 0.12 0.56 0 0.16 0.56 0 0.2 0.56 0 0.24 0.56 0 0.28 0.56 0 0.32 0.56 0 0.36 0.56 0 0.4 0.56 0 0.44 0.56 0 0.48 0.56 0 0.52 0.56 0 0.56 0.56 0 0.6 0.56 0 0.64 0.56 0 0.68 0.56 0 0.72 0.56 0 0.76 0.56 0 0.8 0.56 0 0.84 0.56 0 0.88 0.56 0 0.92 0.56 0 0.96 0.56 0 1 0.56 0 1.04 0.56 0 1.08 0.56 0 1.12 0.56 0 1.16 0.56 0 1.2 0.56 0 0 0.6 0 0.04 0.6 0 0.08 0.6 0 0.12 0.6 0 0.16 0.6 0 0.2 0.6 0 0.24 0.6 0 0.28 0.6 0 0.32 0.6 0 0.36 0.6 0 0.4 0.6 0 0.44 0.6 0 0.48 0.6 0 0.52 0.6 0 0.56 0.6 0 0.6 0.6 0 0.64 0.6 0 0.68 0.6 0 0.72 0.6 0 0.76 0.6 0 0.8 0.6 0 0.84 0.6 0 0.88 0.6 0 0.92 0.6 0 0.96 0.6 0 1 0.6 0 1.04 0.6 0 1.08 0.6 0 1.12 0.6 0 1.16 0.6 0 1.2 0.6 0 0 0.64 0 0.04 0.64 0 0.08 0.64 0 0.12 0.64 0 0.16 0.64 0 0.2 0.64 0 0.24 0.64 0 0.28 0.64 0 0.32 0.64 0 0.36 0.64 0 0.4 0.64 0 0.44 0.64 0 0.48 0.64 0 0.52 0.64 0 0.56 0.64 0 0.6 0.64 0 0.64 0.64 0 0.68 0.64 0 0.72 0.64 0 0.76 0.64 0 0.8 0.64 0 0.84 0.64 0 0.88 0.64 0 0.92 0.64 0 0.96 0.64 0 1 0.64 0 1.04 0.64 0 1.08 0.64 0 1.12 0.64 0 1.16 0.64 0 1.2 0.64 0 0 0.68 0 0.04 0.68 0 0.08 0.68 0 0.12 0.68 0 0.16 0.68 0 0.2 0.68 0 0.24 0.68 0 0.28 0.68 0 0.32 0.68 0 0.36 0.68 0 0.4 0.68 0 0.44 0.68 0 0.48 0.68 0 0.52 0.68 0 0.56 0.68 0 0.6 0.68 0 0.64 0.68 0 0.68 0.68 0 0.72 0.68 0 0.76 0.68 0 0.8 0.68 0 0.84 0.68 0 0.88 0.68 0 0.92 0.68 0 0.96 0.68 0 1 0.68 0 1.04 0.68 0 1.08 0.68 0 1.12 0.68 0 1.16 0.68 0 1.2 0.68 0 0 0.72 0 0.04 0.72 0 0.08 0.72 0 0.12 0.72 0 0.16 0.72 0 0.2 0.72 0 0.24 0.72 0 0.28 0.72 0 0.32 0.72 0 0.36 0.72 0 0.4 0.72 0 0.44 0.72 0 0.48 0.72 0 0.52 0.72 0 0.56 0.72 0 0.6 0.72 0 0.64 0.72 0 0.68 0.72 0 0.72 0.72 0 0.76 0.72 0 0.8 0.72 0 0.84 0.72 0 0.88 0.72 0 0.92 0.72 0 0.96 0.72 0 1 0.72 0 1.04 0.72 0 1.08 0.72 0 1.12 0.72 0 1.16 0.72 0 1.2 0.72 0 0 0.76 0 0.04 0.76 0 0.08 0.76 0 0.12 0.76 0 0.16 0.76 0 0.2 0.76 0 0.24 0.76 0 0.28 0.76 0 0.32 0.76 0 0.36 0.76 0 0.4 0.76 0 0.44 0.76 0 0.48 0.76 0 0.52 0.76 0 0.56 0.76 0 0.6 0.76 0 0.64 0.76 0 0.68 0.76 0 0.72 0.76 0 0.76 0.76 0 0.8 0.76 0 0.84 0.76 0 0.88 0.76 0 0.92 0.76 0 0.96 0.76 0 1 0.76 0 1.04 0.76 0 1.08 0.76 0 1.12 0.76 0 1.16 0.76 0 1.2 0.76 0 0 0.8 0 0.04 0.8 0 0.08 0.8 0 0.12 0.8 0 0.16 0.8 0 0.2 0.8 0 0.24 0.8 0 0.28 0.8 0 0.32 0.8 0 0.36 0.8 0 0.4 0.8 0 0.44 0.8 0 0.48 0.8 0 0.52 0.8 0 0.56 0.8 0 0.6 0.8 0 0.64 0.8 0 0.68 0.8 0 0.72 0.8 0 0.76 0.8 0 0.8 0.8 0 0.84 0.8 0 0.88 0.8 0 0.92 0.8 0 0.96 0.8 0 1 0.8 0 1.04 0.8 0 1.08 0.8 0 1.12 0.8 0 1.16 0.8 0 1.2 0.8 0 0 0.84 0 0.04 0.84 0 0.08 0.84 0 0.12 0.84 0 0.16 0.84 0 0.2 0.84 0 0.24 0.84 0 0.28 0.84 0 0.32 0.84 0 0.36 0.84 0 0.4 0.84 0 0.44 0.84 0 0.48 0.84 0 0.52 0.84 0 0.56 0.84 0 0.6 0.84 0 0.64 0.84 0 0.68 0.84 0 0.72 0.84 0 0.76 0.84 0 0.8 0.84 0 0.84 0.84 0 0.88 0.84 0 0.92 0.84 0 0.96 0.84 0 1 0.84 0 1.04 0.84 0 1.08 0.84 0 1.12 0.84 0 1.16 0.84 0 1.2 0.84 0 0 0.88 0 0.04 0.88 0 0.08 0.88 0 0.12 0.88 0 0.16 0.88 0 0.2 0.88 0 0.24 0.88 0 0.28 0.88 0 0.32 0.88 0 0.36 0.88 0 0.4 0.88 0 0.44 0.88 0 0.48 0.88 0 0.52 0.88 0 0.56 0.88 0 0.6 0.88 0 0.64 0.88 0 0.68 0.88 0 0.72 0.88 0 0.76 0.88 0 0.8 0.88 0 0.84 0.88 0 0.88 0.88 0 0.92 0.88 0 0.96 0.88 0 1 0.88 0 1.04 0.88 0 1.08 0.88 0 1.12 0.88 0 1.16 0.88 0 1.2 0.88 0 0 0.92 0 0.04 0.92 0 0.08 0.92 0 0.12 0.92 0 0.16 0.92 0 0.2 0.92 0 0.24 0.92 0 0.28 0.92 0 0.32 0.92 0 0.36 0.92 0 0.4 0.92 0 0.44 0.92 0 0.48 0.92 0 0.52 0.92 0 0.56 0.92 0 0.6 0.92 0 0.64 0.92 0 0.68 0.92 0 0.72 0.92 0 0.76 0.92 0 0.8 0.92 0 0.84 0.92 0 0.88 0.92 0 0.92 0.92 0 0.96 0.92 0 1 0.92 0 1.04 0.92 0 1.08 0.92 0 1.12 0.92 0 1.16 0.92 0 1.2 0.92 0 0 0.96 0 0.04 0.96 0 0.08 0.96 0 0.12 0.96 0 0.16 0.96 0 0.2 0.96 0 0.24 0.96 0 0.28 0.96 0 0.32 0.96 0 0.36 0.96 0 0.4 0.96 0 0.44 0.96 0 0.48 0.96 0 0.52 0.96 0 0.56 0.96 0 0.6 0.96 0 0.64 0.96 0 0.68 0.96 0 0.72 0.96 0 0.76 0.96 0 0.8 0.96 0 0.84 0.96 0 0.88 0.96 0 0.92 0.96 0 0.96 0.96 0 1 0.96 0 1.04 0.96 0 1.08 0.96 0 1.12 0.96 0 1.16 0.96 0 1.2 0.96 0 0 1 0 0.04 1 0 0.08 1 0 0.12 1 0 0.16 1 0 0.2 1 0 0.24 1 0 0.28 1 0 0.32 1 0 0.36 1 0 0.4 1 0 0.44 1 0 0.48 1 0 0.52 1 0 0.56 1 0 0.6 1 0 0.64 1 0 0.68 1 0 0.72 1 0 0.76 1 0 0.8 1 0 0.84 1 0 0.88 1 0 0.92 1 0 0.96 1 0 1 1 0 1.04 1 0 1.08 1 0 1.12 1 0 1.16 1 0 1.2 1 0 0 1.04 0 0.04 1.04 0 0.08 1.04 0 0.12 1.04 0 0.16 1.04 0 0.2 1.04 0 0.24 1.04 0 0.28 1.04 0 0.32 1.04 0 0.36 1.04 0 0.4 1.04 0 0.44 1.04 0 0.48 1.04 0 0.52 1.04 0 0.56 1.04 0 0.6 1.04 0 0.64 1.04 0 0.68 1.04 0 0.72 1.04 0 0.76 1.04 0 0.8 1.04 0 0.84 1.04 0 0.88 1.04 0 0.92 1.04 0 0.96 1.04 0 1 1.04 0 1.04 1.04 0 1.08 1.04 0 1.12 1.04 0 1.16 1.04 0 1.2 1.04 0 0 1.08 0 0.04 1.08 0 0.08 1.08 0 0.12 1.08 0 0.16 1.08 0 0.2 1.08 0 0.24 1.08 0 0.28 1.08 0 0.32 1.08 0 0.36 1.08 0 0.4 1.08 0 0.44 1.08 0 0.48 1.08 0 0.52 1.08 0 0.56 1.08 0 0.6 1.08 0 0.64 1.08 0 0.68 1.08 0 0.72 1.08 0 0.76 1.08 0 0.8 1.08 0 0.84 1.08 0 0.88 1.08 0 0.92 1.08 0 0.96 1.08 0 1 1.08 0 1.04 1.08 0 1.08 1.08 0 1.12 1.08 0 1.16 1.08 0 1.2 1.08 0 0 1.12 0 
[...]
			<PointData Scalars="VitesseX">
				<DataArray Name="VitesseX" type="Float32" format="ascii">
 0 -0.0196067 -0.130245 -0.123618 -0.0853531 0.0167547 0.123412 0.235608 0.327693 0.41535 0.491998 0.562205 0.626748 0.686662 0.743726 0.79924 0.854628 0.910559 0.967433 1.02597 1.08691 1.15095 1.21819 1.29049 1.36568 1.45081 1.62028 1.66445 1.53932 1.1186 0 0 0.173644 0.147903 0.128604 0.125292 0.169852 0.232609 0.317125 0.388142 0.463157 0.529553 0.591357 0.649009 0.703455 0.75634 0.808507 0.860905 0.914286 0.969163 1.02622 1.08601 1.14915 1.21572 1.28767 1.3623 1.44805 1.61778 1.65786 1.53061 1.10739 0 0 0.164879 0.236001 0.295136 0.331612 0.342268 0.364397 0.416665 0.453274 0.507734 0.558227 0.610031 0.660841 0.711575 0.762536 0.81372 0.865608 0.918718 0.973551 1.0308 1.09087 1.15413 1.22046 1.29198 1.36476 1.45204 1.6216 1.65013 1.51512 1.08074 0 0 0.120086 0.207646 0.294741 0.340476 0.369378 0.399769 0.449883 0.483066 0.530047 0.573364 0.620056 0.66784 0.716838 0.766811 0.817666 0.869672 0.923332 0.978968 1.03698 1.09742 1.16057 1.22638 1.29736 1.3681 1.46029 1.62842 1.64053 1.49199 1.03958 0 0 0.0650427 0.148124 0.259222 0.308505 0.352109 0.398442 0.443645 0.487609 0.537823 0.584416 0.629739 0.675646 0.722741 0.771563 0.821873 0.874079 0.928475 0.985005 1.04364 1.10425 1.16715 1.23264 1.30336 1.37261 1.47451 1.63548 1.62774 1.45779 0.983846 0 0 0.0289231 0.0914877 0.190386 0.256465 0.321558 0.384521 0.428421 0.480477 0.532088 0.583713 0.633601 0.681488 0.728988 0.777312 0.827315 0.879734 0.93472 0.991858 1.05074 1.11137 1.17404 1.2397 1.31027 1.37892 1.49684 1.63936 1.60818 1.4085 0.912274 0 0 0.0186822 0.0737433 0.151987 0.219443 0.289519 0.354465 0.403702 0.463138 0.520559 0.576577 0.630297 0.682442 0.733164 0.783427 0.834474 0.887343 0.942596 0.999911 1.05872 1.11934 1.18183 1.24821 1.31822 1.38807 1.52843 1.63539 1.5785 1.3388 0.814771 0 0 0.0228927 0.0747959 0.145676 0.210623 0.279603 0.335769 0.389423 0.448735 0.507225 0.566121 0.624506 0.680858 0.735384 0.789246 0.842714 0.896805 0.952232 1.00943 1.06803 1.12864 1.19099 1.25861 1.3269 1.40228 1.56225 1.62203 1.53441 1.24158 0.68031 0 0 0.0300289 0.0801185 0.147707 0.212865 0.279875 0.335339 0.390957 0.447661 0.50428 0.562411 0.621653 0.680609 0.73809 0.794789 0.851068 0.906822 0.962996 1.02016 1.07868 1.13914 1.20171 1.27053 1.33578 1.42603 1.58797 1.59832 1.46847 1.10912 0.509817 0 0 0.0371558 0.0886983 0.154791 0.220398 0.2851 0.341596 0.397406 0.451838 0.507354 0.564766 0.623656 0.683156 0.742406 0.800912 0.859014 0.916258 0.973568 1.03098 1.08997 1.15008 1.21391 1.28201 1.34593 1.46553 1.59424 1.56106 1.37109 0.935149 0.323425 0 0 0.0440402 0.0989127 0.163048 0.229651 0.294233 0.353049 0.40911 0.462632 0.517178 0.573035 0.630563 0.689604 0.748947 0.808295 0.866994 0.925546 0.983189 1.04124 1.1007 1.16071 1.2273 1.29142 1.362 1.51472 1.57734 1.5 1.23374 0.715694 0.163446 0 0 0.0496988 0.107318 0.171021 0.237439 0.303652 0.365642 0.423514 0.47808 0.531767 0.585916 0.6417 0.699096 0.7576 0.816434 0.875167 0.933963 0.991935 1.05105 1.1099 1.17181 1.23911 1.29906 1.39494 1.54247 1.54012 1.40343 1.04418 0.462128 0.0628211 0 0 0.0542104 0.113805 0.17714 0.242774 0.309064 0.37296 0.433024 0.489578 0.543859 0.597787 0.652585 0.708813 0.766151 0.824023 0.8826 0.940932 0.999987 1.05899 1.11809 1.18435 1.24642 1.31127 1.45152 1.53302 1.47735 1.25633 0.793467 0.229345 0.0165837 0 0 0.0574557 0.118424 0.181503 0.246009 0.311254 0.375419 0.436775 0.494739 0.550138 0.604684 0.659584 0.715398 0.772244 0.830066 0.88802 0.946688 1.00634 1.06477 1.12776 1.19345 1.25102 1.34509 1.48718 1.49098 1.37096 1.04388 0.492094 0.0825642 0.00279407 0 0 0.0593196 0.121004 0.183671 0.247021 0.311165 0.374985 0.436537 0.495198 0.551685 0.607078 0.662419 0.71853 0.775773 0.833427 0.891648 0.951252 1.01005 1.07099 1.13788 1.19624 1.26487 1.40723 1.47242 1.41567 1.20009 0.752616 0.22158 0.0193948 0.000272336 0 0 0.0599819 0.121773 0.184018 0.24654 0.30926 0.371741 0.433081 0.492464 0.549937 0.606222 0.662339 0.719043 0.776348 0.834619 0.894146 0.953235 1.01352 1.07983 1.14061 1.20049 1.31485 1.42824 1.41669 1.28223 0.944968 0.411618 0.0680249 0.00268183 1.2717e-05 0 0 0.0600017 0.121625 0.183346 0.244634 0.305471 0.366006 0.426273 0.485843 0.544345 0.602138 0.659654 0.717212 0.775501 0.834872 0.894359 0.954768 1.02036 1.08293 1.14096 1.23284 1.36754 1.39172 1.31158 1.0642 0.596758 0.151809 0.0124652 0.000191491 2.73372e-07 0 0 0.0597318 0.120692 0.181393 0.241301 0.300497 0.359294 0.418196 0.477286 0.536338 0.595196 0.654087 0.713545 0.773483 0.833354 0.894539 0.959961 1.02319 1.08174 1.16309 1.29815 1.35055 1.30514 1.1244 0.738191 0.255259 0.0348611 0.00120457 5.53067e-06 5.19194e-09 0 0 0.0590116 0.118853 0.17826 0.236896 0.294955 0.352987 0.411369 0.470279 0.529594 0.589204 0.64931 0.709744 0.770658 0.833216 0.898652 0.961713 1.02155 1.10023 1.22962 1.29736 1.27589 1.14086 0.823885 0.354253 0.0684963 0.00418689 4.91397e-05 7.21159e-08 1.03708e-10 0 0 0.0579315 0.116377 0.174404 0.232073 0.289734 0.347673 0.406126 0.465253 0.525038 0.585353 0.646185 0.707971 0.771412 0.836467 0.898957 0.960717 1.04202 1.16588 1.23727 1.23065 1.1251 0.860137 0.426953 0.104664 0.00965321 0.00022088 6.81085e-07 1.08683e-09 1.39321e-12 0 0 0.0567479 0.113928 0.171013 0.22824 0.285867 0.344031 0.402804 0.462245 0.52247 0.583614 0.645879 0.709569 0.77345 0.835658 0.900789 0.989162 1.10617 1.17301 1.17304 1.08482 0.855611 0.463065 0.132935 0.0163658 0.000595073 3.62905e-06 6.42378e-09 1.23977e-11 6.15591e-14 0 0 0.0558197 0.112124 0.168699 0.225922 0.283852 0.342415 0.401608 0.461578 0.522532 0.584604 0.647519 0.71026 0.773472 0.845283 0.943799 1.04677 1.10492 1.10469 1.02425 0.817082 0.461361 0.146027 0.0217483 0.00108298 1.10871e-05 2.50444e-08 6.87805e-11 8.79127e-14 4.09866e-14 0 0 0.0552506 0.1111 0.167735 0.225344 0.283733 0.342769 0.402515 0.463049 0.524338 0.586143 0.648958 0.716776 0.799633 0.900992 0.982914 1.03136 1.02518 0.944853 0.748874 0.425105 0.141377 0.023518 0.00143108 2.08781e-05 6.41878e-08 2.21713e-10 4.55755e-13 -4.02511e-14 8.19348e-14 0 0 0.0550852 0.110944 0.167939 0.226123 0.285171 0.344797 0.40489 0.465711 0.528339 0.595602 0.673083 0.763782 0.847869 0.9131 0.948094 0.932571 0.84599 0.653456 0.360483 0.12097 0.0209837 0.001421 2.55837e-05 1.03489e-07 4.36332e-10 1.23824e-12 3.66459e-15 -1.85664e-16 -7.05281e-14 0 0 0.0550414 0.111195 0.169075 0.228391 0.288738 0.350279 0.414045 0.482228 0.557932 0.638252 0.714581 0.78146 0.834262 0.851912 0.823275 0.725377 0.53321 0.276564 0.0903405 0.0153157 0.00106217 2.07964e-05 1.03269e-07 5.4402e-10 1.9687e-12 8.13548e-15 -7.02932e-14 1.11265e-13 -1.11501e-13 0 0 0.0565305 0.11519 0.176488 0.24016 0.306382 0.374981 0.445191 0.515411 0.583264 0.647496 0.703547 0.737264 0.738051 0.693244 0.581323 0.39414 0.186829 0.0570138 0.00885421 0.000579273 1.10063e-05 6.37543e-08 4.3477e-10 2.04502e-12 1.09401e-14 -2.61642e-19 -2.22944e-13 2.22944e-13 5.80074e-19 0 0 0.0630361 0.127386 0.192469 0.257785 0.322843 0.387158 0.450814 0.511832 0.564772 0.603726 0.618757 0.601911 0.538546 0.417198 0.252078 0.107473 0.0286047 0.00382095 0.000214657 3.59099e-06 2.47369e-08 2.20217e-10 1.14687e-12 9.00797e-14 -6.76295e-20 -1.11485e-13 3.63669e-16 -3.63801e-16 1.11485e-13 0 0 0.0652643 0.129941 0.193146 0.255256 0.314784 0.370255 0.419616 0.457784 0.478589 0.475898 0.44033 0.363583 0.25016 0.131068 0.048331 0.0103243 0.00111158 4.78647e-05 6.70323e-07 6.31087e-09 6.80417e-11 4.50173e-13 3.66729e-15 -7.06643e-14 -4.27846e-17 3.81251e-16 1.06322e-16 -1.06453e-16 -2.65948e-16 0 0 0.0623477 0.120297 0.177245 0.227984 0.271902 0.306438 0.327665 0.330707 0.311018 0.263746 0.193168 0.114092 0.0506958 0.0144124 0.00230033 0.000180306 5.39349e-06 7.01533e-08 1.06477e-09 1.22627e-11 8.65527e-14 -4.0275e-14 8.21318e-14 -1.11637e-13 -4.23565e-17 3.81119e-16 1.06454e-16 -1.06585e-16 -2.65817e-16 0 0 0.0389515 0.0947758 0.13837 0.172708 0.196061 0.198599 0.184255 0.15435 0.113983 0.0711351 0.0343755 0.0112161 0.0022339 0.000245677 1.21645e-05 2.63522e-07 4.99572e-09 1.01141e-10 1.35661e-12 6.14776e-14 -4.0936e-14 -1.21183e-17 -7.05285e-14 1.11501e-13 4.70084e-19 -1.11485e-13 4.78856e-16 -4.78987e-16 1.11485e-13 0 0 0 0 0 0 0 0 0 0 0 0 0 0 0 0 0 0 0 0 0 0 0 0 0 0 0 0 0 0 0 0
				</DataArray>
				<DataArray Name="VitesseY" type="Float32" format="ascii">
 0 0 0 0 0 0 0 0 0 0 0 0 0 0 0 0 0 0 0 0 0 0 0 0 0 0 0 0 0 0 0 -0.0195462 0.173647 0.164869 0.120071 0.0650278 0.0289146 0.0186762 0.0228872 0.030024 0.0371515 0.0440374 0.0496976 0.0542109 0.0574576 0.0593221 0.0599846 0.0600044 0.0597344 0.059014 0.0579334 0.0567488 0.05582 0.0552503 0.0550845 0.0550406 0.0565297 0.0630178 0.0653896 0.0624282 0.051537 0 -0.130178 0.147936 0.235999 0.207637 0.148109 0.0914776 0.0737383 0.0747912 0.0801138 0.0886937 0.0989085 0.107315 0.113804 0.118425 0.121007 0.121777 0.121629 0.120696 0.118856 0.11638 0.11393 0.112124 0.111099 0.110943 0.111194 0.115188 0.127386 0.129938 0.121896 0.0979816 0 -0.123581 0.128628 0.295127 0.294729 0.259208 0.190372 0.151981 0.145672 0.147703 0.154787 0.163044 0.171017 0.177139 0.181504 0.183675 0.184022 0.18335 0.181398 0.178265 0.174408 0.171015 0.168699 0.167735 0.167938 0.169073 0.176486 0.192462 0.193253 0.177465 0.138648 0 -0.0853289 0.125313 0.331611 0.34047 0.308497 0.256455 0.219437 0.210619 0.21286 0.220392 0.229645 0.237436 0.242773 0.246011 0.247025 0.246545 0.244639 0.241306 0.236901 0.232076 0.228242 0.225922 0.225344 0.226122 0.228389 0.240157 0.257782 0.255261 0.228003 0.172742 0 0.0167659 0.16986 0.342261 0.369371 0.352104 0.321555 0.289516 0.279598 0.279868 0.285092 0.294226 0.303649 0.309065 0.311258 0.31117 0.309266 0.305477 0.300502 0.294959 0.289737 0.285868 0.283853 0.283733 0.28517 0.288736 0.306379 0.322838 0.314779 0.271899 0.196064 0 0.123417 0.232615 0.364396 0.399768 0.398439 0.384518 0.354462 0.335762 0.335332 0.341588 0.35304 0.365637 0.37296 0.375423 0.374991 0.371749 0.366013 0.359298 0.35299 0.347675 0.344032 0.342416 0.342769 0.344796 0.350277 0.374977 0.387153 0.37025 0.306434 0.198597 0 0.235605 0.317126 0.416664 0.449879 0.443643 0.428421 0.403702 0.389419 0.390951 0.397398 0.409102 0.423509 0.433024 0.436778 0.436542 0.433088 0.42628 0.418201 0.411372 0.406127 0.402805 0.401608 0.402515 0.404889 0.414042 0.445187 0.450809 0.419611 0.327661 0.184254 0 0.327683 0.38814 0.453276 0.483062 0.487606 0.480475 0.463138 0.448733 0.447658 0.451834 0.462627 0.478075 0.489577 0.494741 0.495202 0.492469 0.485848 0.47729 0.47028 0.465254 0.462245 0.461577 0.463048 0.465709 0.482225 0.515407 0.511828 0.45778 0.330705 0.15435 0 0.415335 0.463153 0.507738 0.530043 0.537817 0.532084 0.520558 0.507226 0.504281 0.507354 0.517177 0.531765 0.543858 0.550139 0.551687 0.54994 0.544348 0.53634 0.529595 0.525039 0.52247 0.522532 0.524337 0.528337 0.557928 0.583261 0.564769 0.478587 0.311019 0.113985 0 0.491977 0.529548 0.55823 0.573361 0.584406 0.583708 0.576575 0.566125 0.562414 0.564769 0.573037 0.585916 0.597786 0.604684 0.607078 0.606223 0.602138 0.595196 0.589205 0.585353 0.583614 0.584604 0.586143 0.5956 0.638249 0.647493 0.603725 0.475899 0.263749 0.0711374 0 0.56218 0.591351 0.610032 0.620054 0.62973 0.633595 0.630296 0.62451 0.621659 0.623662 0.630568 0.641702 0.652585 0.659583 0.662418 0.662338 0.659653 0.654086 0.64931 0.646185 0.645878 0.647519 0.648957 0.67308 0.714579 0.703546 0.618759 0.440334 0.193173 0.0343773 0 0.626724 0.649003 0.660839 0.667838 0.675639 0.68148 0.682441 0.680861 0.680615 0.683163 0.689609 0.699099 0.708813 0.715398 0.718529 0.719041 0.71721 0.713544 0.709744 0.70797 0.709568 0.710259 0.716774 0.763779 0.781459 0.737266 0.601916 0.36359 0.114096 0.011217 0 0.68664 0.70345 0.711573 0.716836 0.722737 0.728981 0.733162 0.735386 0.738096 0.742413 0.748953 0.757603 0.766151 0.772243 0.775771 0.776346 0.775498 0.77348 0.770657 0.771412 0.773449 0.773471 0.799632 0.847869 0.834264 0.738056 0.538554 0.250168 0.0506986 0.00223414 0 0.743708 0.756336 0.762534 0.766808 0.77156 0.777307 0.783424 0.789247 0.794794 0.800917 0.8083 0.816436 0.824023 0.830065 0.833424 0.834616 0.83487 0.833352 0.833214 0.836466 0.835658 0.845282 0.900992 0.913101 0.851916 0.693252 0.417208 0.131073 0.0144135 0.000245711 0 0.799226 0.808505 0.813718 0.817664 0.821871 0.827313 0.834473 0.842714 0.851071 0.859018 0.866997 0.875168 0.8826 0.888019 0.891646 0.894143 0.894356 0.894536 0.898651 0.898957 0.900789 0.943799 0.982917 0.948098 0.823281 0.581333 0.252087 0.0483338 0.00230056 1.21666e-05 0 0.854619 0.860904 0.865608 0.869672 0.874079 0.879733 0.887342 0.896804 0.906821 0.916259 0.925548 0.933964 0.940931 0.946686 0.95125 0.953232 0.954765 0.959959 0.961711 0.960717 0.989162 1.04677 1.03137 0.932577 0.725386 0.39415 0.107478 0.010325 0.00018033 2.63574e-07 0 0.910554 0.914286 0.918719 0.923332 0.928475 0.93472 0.942595 0.952231 0.962993 0.973567 0.983189 0.991935 0.999986 1.00634 1.01005 1.01352 1.02036 1.02319 1.02155 1.04202 1.10617 1.10493 1.02518 0.845998 0.533219 0.186834 0.0286063 0.00111169 5.39437e-06 4.99656e-09 0 0.967433 0.969165 0.973553 0.97897 0.985006 0.991858 0.999911 1.00943 1.02016 1.03098 1.04124 1.05105 1.05899 1.06477 1.07099 1.07983 1.08293 1.08174 1.10023 1.16588 1.17301 1.10469 0.94486 0.653464 0.276571 0.0570161 0.00382122 4.78705e-05 7.01647e-08 1.01158e-10 0 1.02597 1.02622 1.03081 1.03698 1.04364 1.05074 1.05872 1.06803 1.07867 1.08997 1.1007 1.1099 1.11809 1.12776 1.13788 1.14061 1.14096 1.16309 1.22962 1.23728 1.17305 1.02425 0.748881 0.36049 0.0903431 0.00885466 0.000214676 6.70415e-07 1.06492e-09 1.35701e-12 0 1.08692 1.08601 1.09088 1.09742 1.10425 1.11136 1.11934 1.12864 1.13914 1.15008 1.16071 1.17181 1.18435 1.19345 1.19624 1.20049 1.23285 1.29815 1.29737 1.23065 1.08483 0.817087 0.425108 0.120972 0.0153162 0.000579309 3.59137e-06 6.31158e-09 1.22644e-11 6.15085e-14 0 1.15096 1.14915 1.15413 1.16057 1.16715 1.17404 1.18182 1.19099 1.20171 1.21391 1.2273 1.23911 1.24642 1.25102 1.26487 1.31485 1.36755 1.35055 1.27589 1.1251 0.855613 0.461363 0.141378 0.0209841 0.00106221 1.10071e-05 2.47391e-08 6.80489e-11 8.65425e-14 -4.0936e-14 0 1.2182 1.21573 1.22046 1.22638 1.23264 1.23969 1.24821 1.25861 1.27053 1.28201 1.29142 1.29906 1.31127 1.3451 1.40723 1.42824 1.39172 1.30514 1.14086 0.860136 0.463064 0.146027 0.0235181 0.00142101 2.07971e-05 6.37581e-08 2.20234e-10 4.50215e-13 -4.0275e-14 -1.21183e-17 0 1.2905 1.28767 1.29198 1.29736 1.30336 1.31027 1.31822 1.3269 1.33578 1.34593 1.362 1.39494 1.45152 1.48718 1.47241 1.41669 1.31158 1.1244 0.82388 0.426948 0.132933 0.021748 0.00143107 2.55837e-05 1.03271e-07 4.34786e-10 1.14698e-12 3.6671e-15 8.21318e-14 -7.05285e-14 0 1.36568 1.3623 1.36476 1.3681 1.37261 1.37892 1.38807 1.40228 1.42603 1.46553 1.51472 1.54247 1.53302 1.49097 1.41567 1.28222 1.06419 0.738182 0.354246 0.104662 0.0163653 0.00108294 2.08774e-05 1.03486e-07 5.4402e-10 2.04504e-12 9.00796e-14 -7.06643e-14 -1.11637e-13 1.11501e-13 0 1.45081 1.44805 1.45204 1.46029 1.47451 1.49684 1.52843 1.56225 1.58797 1.59424 1.57733 1.54012 1.47734 1.37095 1.20009 0.944958 0.596746 0.255252 0.0684937 0.00965273 0.000595036 1.10863e-05 6.4184e-08 4.36317e-10 1.96868e-12 1.09401e-14 -6.76318e-20 -4.27846e-17 -4.23565e-17 4.70068e-19 0 1.62024 1.61776 1.62159 1.62842 1.63549 1.63936 1.63539 1.62203 1.59832 1.56106 1.5 1.40342 1.25632 1.04387 0.752602 0.411606 0.151803 0.0348591 0.00418659 0.000220861 3.62867e-06 2.50421e-08 2.21696e-10 1.23812e-12 8.13555e-15 -2.61656e-19 -1.11485e-13 3.81251e-16 3.81119e-16 -1.11485e-13 0 1.66499 1.65827 1.6504 1.64066 1.62775 1.60818 1.5785 1.5344 1.46847 1.37108 1.23373 1.04417 0.793451 0.492079 0.22157 0.0680208 0.0124642 0.00120445 4.91337e-05 6.80992e-07 6.42305e-09 6.87731e-11 4.55714e-13 3.66479e-15 -7.02932e-14 -2.22944e-13 3.63669e-16 1.06322e-16 1.06454e-16 4.78856e-16 0 1.54278 1.53404 1.51689 1.49207 1.45778 1.4085 1.3388 1.24157 1.10911 0.935137 0.715679 0.462113 0.229334 0.082559 0.0193932 0.00268155 0.000191465 5.52976e-06 7.21042e-08 1.08668e-09 1.23961e-11 8.79229e-14 -4.02511e-14 -1.85664e-16 1.11265e-13 2.22944e-13 -3.63801e-16 -1.06453e-16 -1.06585e-16 -4.78987e-16 0 1.14193 1.11842 1.07977 1.03939 0.983838 0.912272 0.814767 0.680303 0.509807 0.323415 0.163439 0.062817 0.0165823 0.00279375 0.000272297 1.27147e-05 2.73319e-07 5.19107e-09 1.0369e-10 1.39279e-12 6.15281e-14 4.09866e-14 8.19348e-14 -7.05281e-14 -1.11501e-13 5.80071e-19 1.11485e-13 -2.65948e-16 -2.65817e-16 1.11485e-13 0 0.503603 1.34051e-05 0 0 0 0 0 0 0 0 0 0 0 0 0 0 0 0 0 0 0 0 0 0 0 0 0 0 0 0 0
				</DataArray>
			</PointData>
			<CellData Scalars="Density">
				<DataArray Name="Density" type="Float32" format="ascii">