<?xml version="1.0"?>
<VTKFile type="PolyData">
	<PolyData>
		<Piece NumberOfPoints="961" NumberOfPolys="900">
			<Points>
				<DataArray type="Float32" NumberOfComponents="3" format="ascii">
 0 0 0 0.04 0 0 0.08 0 0 0.12 0 0 0.16 0 0 0.2 0 0 0.24 0 0 0.28 0 0 0.32 0 0 0.36 0 0 0.4 0 0 0.44 0 0 0.48 0 0 0.52 0 0 0.56 0 0 0.6 0 0 0.64 0 0 0.68 0 0 0.72 0 0 0.76 0 0 0.8 0 0 0.84 0 0 0.88 0 0 0.92 0 0 0.96 0 0 1 0 0 1.04 0 0 1.08 0 0 1.12 0 0 1.16 0 0 1.2 0 0 0 0.04 0 0.04 0.04 0 0.08 0.04 0 0.12 0.04 0 0.16 0.04 0 0.2 0.04 0 0.24 0.04 0 0.28 0.04 0 0.32 0.04 0 0.36 0.04 0 0.4 0.04 0 0.44 0.04 0 0.48 0.04 0 0.52 0.04 0 0.56 0.04 0 0.6 0.04 0 0.64 0.04 0 0.68 0.04 0 0.72 0.04 0 0.76 0.04 0 0.8 0.04 0 0.84 0.04 0 0.88 0.04 0 0.92 0.04 0 0.96 0.04 0 1 0.04 0 1.04 0.04 0 1.08 0.04 0 1.12 0.04 0 1.16 0.04 0 1.2 0.04 0 0 0.08 0 0.04 0.08 0 0.08 0.08 0 0.12 0.08 0 0.16 0.08 0 0.2 0.08 0 0.24 0.08 0 0.28 0.08 0 0.32 0.08 0 0.36 0.08 0 0.4 0.08 0 0.44 0.08 0 0.48 0.08 0 0.52 0.08 0 0.56 0.08 0 0.6 0.08 0 0.64 0.08 0 0.68 0.08 0 0.72 0.08 0 0.76 0.08 0 0.8 0.08 0 0.84 0.08 0 0.88 0.08 0 0.92 0.08 0 0.96 0.08 0 1 0.08 0 1.04 0.08 0 1.08 0.08 0 1.12 0.08 0 1.16 0.08 0 1.2 0.08 0 0 0.12 0 0.04 0.12 0 0.08 0.12 0 0.12 0.12 0 0.16 0.12 0 0.2 0.12 0 0.24 0.12 0 0.28 0.12 0 0.32 0.12 0 0.36 0.12 0 0.4 0.12 0 0.44 0.12 0 0.48 0.12 0 0.52 0.12 0 0.56 0.12 0 0.6 0.12 0 0.64 0.12 0 0.68 0.12 0 0.72 0.12 0 0.76 0.12 0 0.8 0.12 0 0.84 0.12 0 0.88 0.12 0 0.92 0.12 0 0.96 0.12 0 1 0.12 0 1.04 0.12 0 1.08 0.12 0 1.12 0.12 0 1.16 0.12 0 1.2 0.12 0 0 0.16 0 0.04 0.16 0 0.08 0.16 0 0.12 0.16 0 0.16 0.16 0 0.2 0.16 0 0.24 0.16 0 0.28 0.16 0 0.32 0.16 0 0.36 0.16 0 0.4 0.16 0 0.44 0.16 0 0.48 0.16 0 0.52 0.16 0 0.56 0.16 0 0.6 0.16 0 0.64 0.16 0 0.68 0.16 0 0.72 0.16 0 0.76 0.16 0 0.8 0.16 0 0.84 0.16 0 0.88 0.16 0 0.92 0.16 0 0.96 0.16 0 1 0.16 0 1.04 0.16 0 1.08 0.16 0 1.12 0.16 0 1.16 0.16 0 1.2 0.16 0 0 0.2 0 0.04 0.2 0 0.08 0.2 0 0.12 0.2 0 0.16 0.2 0 0.2 0.2 0 0.24 0.2 0 0.28 0.2 0 0.32 0.2 0 0.36 0.2 0 0.4 0.2 0 0.44 0.2 0 0.48 0.2 0 0.52 0.2 0 0.56 0.2 0 0.6 0.2 0 0.64 0.2 0 0.68 0.2 0 0.72 0.2 0 0.76 0.2 0 0.8 0.2 0 0.84 0.2 0 0.88 0.2 0 0.92 0.2 0 0.96 0.2 0 1 0.2 0 1.04 0.2 0 1.08 0.2 0 1.12 0.2 0 1.16 0.2 0 1.2 0.2 0 0 0.24 0 0.04 0.24 0 0.08 0.24 0 0.12 0.24 0 0.16 0.24 0 0.2 0.24 0 0.24 0.24 0 0.28 0.24 0 0.32 0.24 0 0.36 0.24 0 0.4 0.24 0 0.44 0.24 0 0.48 0.24 0 0.52 0.24 0 0.56 0.24 0 0.6 0.24 0 0.64 0.24 0 0.68 0.24 0 0.72 0.24 0 0.76 0.24 0 0.8 0.24 0 0.84 0.24 0 0.88 0.24 0 0.92 0.24 0 0.96 0.24 0 1 0.24 0 1.04 0.24 0 1.08 0.24 0 1.12 0.24 0 1.16 0.24 0 1.2 0.24 0 0 0.28 0 0.04 0.28 0 0.08 0.28 0 0.12 0.28 0 0.16 0.28 0 0.2 0.28 0 0.24 0.28 0 0.28 0.28 0 0.32 0.28 0 0.36 0.28 0 0.4 0.28 0 0.44 0.28 0 0.48 0.28 0 0.52 0.28 0 0.56 0.28 0 0.6 0.28 0 0.64 0.28 0 0.68 0.28 0 0.72 0.28 0 0.76 0.28 0 0.8 0.28 0 0.84 0.28 0 0.88 0.28 0 0.92 0.28 0 0.96 0.28 0 1 0.28 0 1.04 0.28 0 1.08 0.28 0 1.12 0.28 0 1.16 0.28 0 1.2 0.28 0 0 0.32 0 0.04 0.32 0 0.08 0.32 0 0.12 0.32 0 0.16 0.32 0 0.2 0.32 0 0.24 0.32 0 0.28 0.32 0 0.32 0.32 0 0.36 0.32 0 0.4 0.32 0 0.44 0.32 0 0.48 0.32 0 0.52 0.32 0 0.56 0.32 0 0.6 0.32 0 0.64 0.32 0 0.68 0.32 0 0.72 0.32 0 0.76 0.32 0 0.8 0.32 0 0.84 0.32 0 0.88 0.32 0 0.92 0.32 0 0.96 0.32 0 1 0.32 0 1.04 0.32 0 1.08 0.32 0 1.12 0.32 0 1.16 0.32 0 1.2 0.32 0 0 0.36 0 0.04 0.36 0 0.08 0.36 0 0.12 0.36 0 0.16 0.36 0 0.2 0.36 0 0.24 0.36 0 0.28 0.36 0 0.32 0.36 0 0.36 0.36 0 0.4 0.36 0 0.44 0.36 0 0.48 0.36 0 0.52 0.36 0 0.56 0.36 0 0.6 0.36 0 0.64 0.36 0 0.68 0.36 0 0.72 0.36 0 0.76 0.36 0 0.8 0.36 0 0.84 0.36 0 0.88 0.36 0 0.92 0.36 0 0.96 0.36 0 1 0.36 0 1.04 0.36 0 1.08 0.36 0 1.12 0.36 0 1.16 0.36 0 1.2 0.36 0 0 0.4 0 0.04 0.4 0 0.08 0.4 0 0.12 0.4 0 0.16 0.4 0 0.2 0.4 0 0.24 0.4 0 0.28 0.4 0 0.32 0.4 0 0.36 0.4 0 0.4 0.4 0 0.44 0.4 0 0.48 0.4 0 0.52 0.4 0 0.56 0.4 0 0.6 0.4 0 0.64 0.4 0 0.68 0.4 0 0.72 0.4 0 0.76 0.4 0 0.8 0.4 0 0.84 0.4 0 0.88 0.4 0 0.92 0.4 0 0.96 0.4 0 1 0.4 0 1.04 0.4 0 1.08 0.4 0 1.12 0.4 0 1.16 0.4 0 1.2 0.4 0 0 0.44 0 0.04 0.44 0 0.08 0.44 0 0.12 0.44 0 0.16 0.44 0 0.2 0.44 0 0.24 0.44 0 0.28 0.44 0 0.32 0.44 0 0.36 0.44 0 0.4 0.44 0 0.44 0.44 0 0.48 0.44 0 0.52 0.44 0 0.56 0.44 0 0.6 0.44 0 0.64 0.44 0 0.68 0.44 0 0.72 0.44 0 0.76 0.44 0 0.8 0.44 0 0.84 0.44 0 0.88 0.44 0 0.92 0.44 0 0.96 0.44 0 1 0.44 0 1.04 0.44 0 1.08 0.44 0 1.12 0.44 0 1.16 0.44 0 1.2 0.44 0 0 0.48 0 0.04 0.48 0 0.08 0.48 0 0.12 0.48 0 0.16 0.48 0 0.2 0.48 0 0.24 0.48 0 0.28 0.48 0 0.32 0.48 0 0.36 0.48 0 0.4 0.48 0 0.44 0.48 0 0.48 0.48 0 0.52 0.48 0 0.56 0.48 0 0.6 0.48 0 0.64 0.48 0 0.68 0.48 0 0.72 0.48 0 0.76 0.48 0 0.8 0.48 0 0.84 0.48 0 0.88 0.48 0 0.92 0.48 0 0.96 0.48 0 1 0.48 0 1.04 0.48 0 1.08 0.48 0 1.12 0.48 0 1.16 0.48 0 1.2 0.48 0 0 0.52 0 0.04 0.52 0 0.08 0.52 0 0.12 0.52 0 0.16 0.52 0 0.2 0.52 0 0.24 0.52 0 0.28 0.52 0 0.32 0.52 0 0.36 0.52 0 0.4 0.52 0 0.44 0.52 0 0.48 0.52 0 0.52 0.52 0 0.56 0.52 0 0.6 0.52 0 0.64 0.52 0 0.68 0.52 0 0.72 0.52 0 0.76 0.52 0 0.8 0.52 0 0.84 0.52 0 0.88 0.52 0 0.92 0.52 0 0.96 0.52 0 1 0.52 0 1.04 0.52 0 1.08 0.52 0 1.12 0.52 0 1.16 0.52 0 1.2 0.52 0 0 0.56 0 0.04 0.56 0 0.08 0.56 0 0.12 0.56 0 0.16 0.56 0 0.2 0.56 0 0.24 0.56 0 0.28 0.56 0 0.32 0.56 0 0.36 0.56 0 0.4 0.56 0 0.44 0.56 0 0.48 0.56 0 0.52 0.56 0 0.56 0.56 0 0.6 0.56 0 0.64 0.56 0 0.68 0.56 0 0.72 0.56 0 0.76 0.56 0 0.8 0.56 0 0.84 0.56 0 0.88 0.56 0 0.92 0.56 0 0.96 0.56 0 1 0.56 0 1.04 0.56 0 1.08 0.56 0 1.12 0.56 0 1.16 0.56 0 1.2 0.56 0 0 0.6 0 0.04 0.6 0 0.08 0.6 0 0.12 0.6 0 0.16 0.6 0 0.2 0.6 0 0.24 0.6 0 0.28 0.6 0 0.32 0.6 0 0.36 0.6 0 0.4 0.6 0 0.44 0.6 0 0.48 0.6 0 0.52 0.6 0 0.56 0.6 0 0.6 0.6 0 0.64 0.6 0 0.68 0.6 0 0.72 0.6 0 0.76 0.6 0 0.8 0.6 0 0.84 0.6 0 0.88 0.6 0 0.92 0.6 0 0.96 0.6 0 1 0.6 0 1.04 0.6 0 1.08 0.6 0 1.12 0.6 0 1.16 0.6 0 1.2 0.6 0 0 0.64 0 0.04 0.64 0 0.08 0.64 0 0.12 0.64 0 0.16 0.64 0 0.2 0.64 0 0.24 0.64 0 0.28 0.64 0 0.32 0.64 0 0.36 0.64 0 0.4 0.64 0 0.44 0.64 0 0.48 0.64 0 0.52 0.64 0 0.56 0.64 0 0.6 0.64 0 0.64 0.64 0 0.68 0.64 0 0.72 0.64 0 0.76 0.64 0 0.8 0.64 0 0.84 0.64 0 0.88 0.64 0 0.92 0.64 0 0.96 0.64 0 1 0.64 0 1.04 0.64 0 1.08 0.64 0 1.12 0.64 0 1.16 0.64 0 1.2 0.64 0 0 0.68 0 0.04 0.68 0 0.08 0.68 0 0.12 0.68 0 0.16 0.68 0 0.2 0.68 0 0.24 0.68 0 0.28 0.68 0 0.32 0.68 0 0.36 0.68 0 0.4 0.68 0 0.44 0.68 0 0.48 0.68 0 0.52 0.68 0 0.56 0.68 0 0.6 0.68 0 0.64 0.68 0 0.68 0.68 0 0.72 0.68 0 0.76 0.68 0 0.8 0.68 0 0.84 0.68 0 0.88 0.68 0 0.92 0.68 0 0.96 0.68 0 1 0.68 0 1.04 0.68 0 1.08 0.68 0 1.12 0.68 0 1.16 0.68 0 1.2 0.68 0 0 0.72 0 0.04 0.72 0 0.08 0.72 0 0.12 0.72 0 0.16 0.72 0 0.2 0.72 0 0.24 0.72 0 0.28 0.72 0 0.32 0.72 0 0.36 0.72 0 0.4 0.72 0 0.44 0.72 0 0.48 0.72 0 0.52 0.72 0 0.56 0.72 0 0.6 0.72 0 0.64 0.72 0 0.68 0.72 0 0.72 0.72 0 0.76 0.72 0 0.8 0.72 0 0.84 0.72 0 0.88 0.72 0 0.92 0.72 0 0.96 0.72 0 1 0.72 0 1.04 0.72 0 1.08 0.72 0 1.12 0.72 0 1.16 0.72 0 1.2 0.72 0 0 0.76 0 0.04 0.76 0 0.08 0.76 0 0.12 0.76 0 0.16 0.76 0 0.2 0.76 0 0.24 0.76 0 0.28 0.76 0 0.32 0.76 0 0.36 0.76 0 0.4 0.76 0 0.44 0.76 0 0.48 0.76 0 0.52 0.76 0 0.56 0.76 0 0.6 0.76 0 0.64 0.76 0 0.68 0.76 0 0.72 0.76 0 0.76 0.76 0 0.8 0.76 0 0.84 0.76 0 0.88 0.76 0 0.92 0.76 0 0.96 0.76 0 1 0.76 0 1.04 0.76 0 1.08 0.76 0 1.12 0.76 0 1.16 0.76 0 1.2 0.76 0 0 0.8 0 0.04 0.8 0 0.08 0.8 0 0.12 0.8 0 0.16 0.8 0 0.2 0.8 0 0.24 0.8 0 0.28 0.8 0 0.32 0.8 0 0.36 0.8 0 0.4 0.8 0 0.44 0.8 0 0.48 0.8 0 0.52 0.8 0 0.56 0.8 0 0.6 0.8 0 0.64 0.8 0 0.68 0.8 0 0.72 0.8 0 0.76 0.8 0 0.8 0.8 0 0.84 0.8 0 0.88 0.8 0 0.92 0.8 0 0.96 0.8 0 1 0.8 0 1.04 0.8 0 1.08 0.8 0 1.12 0.8 0 1.16 0.8 0 1.2 0.8 0 0 0.84 0 0.04 0.84 0 0.08 0.84 0 0.12 0.84 0 0.16 0.84 0 0.2 0.84 0 0.24 0.84 0 0.28 0.84 0 0.32 0.84 0 0.36 0.84 0 0.4 0.84 0 0.44 0.84 0 0.48 0.84 0 0.52 0.84 0 0.56 0.84 0 0.6 0.84 0 0.64 0.84 0 0.68 0.84 0 0.72 0.84 0 0.76 0.84 0 0.8 0.84 0 0.84 0.84 0 0.88 0.84 0 0.92 0.84 0 0.96 0.84 0 1 0.84 0 1.04 0.84 0 1.08 0.84 0 1.12 0.84 0 1.16 0.84 0 1.2 0.84 0 0 0.88 0 0.04 0.88 0 0.08 0.88 0 0.12 0.88 0 0.16 0.88 0 0.2 0.88 0 0.24 0.88 0 0.28 0.88 0 0.32 0.88 0 0.36 0.88 0 0.4 0.88 0 0.44 0.88 0 0.48 0.88 0 0.52 0.88 0 0.56 0.88 0 0.6 0.88 0 0.64 0.88 0 0.68 0.88 0 0.72 0.88 0 0.76 0.88 0 0.8 0.88 0 0.84 0.88 0 0.88 0.88 0 0.92 0.88 0 0.96 0.88 0 1 0.88 0 1.04 0.88 0 1.08 0.88 0 1.12 0.88 0 1.16 0.88 0 1.2 0.88 0 0 0.92 0 0.04 0.92 0 0.08 0.92 0 0.12 0.92 0 0.16 0.92 0 0.2 0.92 0 0.24 0.92 0 0.28 0.92 0 0.32 0.92 0 0.36 0.92 0 0.4 0.92 0 0.44 0.92 0 0.48 0.92 0 0.52 0.92 0 0.56 0.92 0 0.6 0.92 0 0.64 0.92 0 0.68 0.92 0 0.72 0.92 0 0.76 0.92 0 0.8 0.92 0 0.84 0.92 0 0.88 0.92 0 0.92 0.92 0 0.96 0.92 0 1 0.92 0 1.04 0.92 0 1.08 0.92 0 1.12 0.92 0 1.16 0.92 0 1.2 0.92 0 0 0.96 0 0.04 0.96 0 0.08 0.96 0 0.12 0.96 0 0.16 0.96 0 0.2 0.96 0 0.24 0.96 0 0.28 0.96 0 0.32 0.96 0 0.36 0.96 0 0.4 0.96 0 0.44 0.96 0 0.48 0.96 0 0.52 0.96 0 0.56 0.96 0 0.6 0.96 0 0.64 0.96 0 0.68 0.96 0 0.72 0.96 0 0.76 0.96 0 0.8 0.96 0 0.84 0.96 0 0.88 0.96 0 0.92 0.96 0 0.96 0.96 0 1 0.96 0 1.04 0.96 0 1.08 0.96 0 1.12 0.96 0 1.16 0.96 0 1.2 0.96 0 0 1 0 0.04 1 0 0.08 1 0 0.12 1 0 0.16 1 0 0.2 1 0 0.24 1 0 0.28 1 0 0.32 1 0 0.36 1 0 0.4 1 0 0.44 1 0 0.48 1 0 0.52 1 0 0.56 1 0 0.6 1 0 0.64 1 0 0.68 1 0 0.72 1 0 0.76 1 0 0.8 1 0 0.84 1 0 0.88 1 0 0.92 1 0 0.96 1 0 1 1 0 1.04 1 0 1.08 1 0 1.12 1 0 1.16 1 0 1.2 1 0 0 1.04 0 0.04 1.04 0 0.08 1.04 0 0.12 1.04 0 0.16 1.04 0 0.2 1.04 0 0.24 1.04 0 0.28 1.04 0 0.32 1.04 0 0.36 1.04 0 0.4 1.04 0 0.44 1.04 0 0.48 1.04 0 0.52 1.04 0 0.56 1.04 0 0.6 1.04 0 0.64 1.04 0 0.68 1.04 0 0.72 1.04 0 0.76 1.04 0 0.8 1.04 0 0.84 1.04 0 0.88 1.04 0 0.92 1.04 0 0.96 1.04 0 1 1.04 0 1.04 1.04 0 1.08 1.04 0 1.12 1.04 0 1.16 1.04 0 1.2 1.04 0 0 1.08 0 0.04 1.08 0 0.08 1.08 0 0.12 1.08 0 0.16 1.08 0 0.2 1.08 0 0.24 1.08 0 0.28 1.08 0 0.32 1.08 0 0.36 1.08 0 0.4 1.08 0 0.44 1.08 0 0.48 1.08 0 0.52 1.08 0 0.56 1.08 0 0.6 1.08 0 0.64 1.08 0 0.68 1.08 0 0.72 1.08 0 0.76 1.08 0 0.8 1.08 0 0.84 1.08 0 0.88 1.08 0 0.92 1.08 0 0.96 1.08 0 1 1.08 0 1.04 1.08 0 1.08 1.08 0 1.12 1.08 0 1.16 1.08 0 1.2 1.08 0 0 1.12 0 
[...]
			<PointData Scalars="VitesseX">
				<DataArray Name="VitesseX" type="Float32" format="ascii">
 0 0.00913184 -0.0299054 -0.0252878 0.148616 0.160877 0.204897 0.283096 0.332391 0.405126 0.451769 0.58385 0.645338 0.57031 0.365783 0.100737 0.00328948 1.65247e-06 9.22737e-11 5.68908e-15 -1.18889e-15 1.19547e-15 -1.19547e-15 3.75607e-45 1.19547e-15 0 -1.19547e-15 1.19547e-15 -4.06866e-15 4.06866e-15 0 0 0.0993934 0.0841416 0.101137 0.180036 0.202056 0.226389 0.297391 0.340775 0.40767 0.45158 0.584852 0.637135 0.558393 0.351495 0.0919378 0.00275692 1.31144e-06 8.07849e-11 5.14499e-15 -1.18889e-15 1.19547e-15 -1.19547e-15 6.41126e-31 1.19547e-15 -1.71363e-62 -1.19547e-15 1.19547e-15 -4.06398e-15 4.06398e-15 0 0 0.0727868 0.132204 0.176006 0.20894 0.24275 0.259204 0.314122 0.355234 0.414075 0.458665 0.597669 0.625443 0.533359 0.314326 0.0692602 0.00161116 6.63068e-07 5.33885e-11 3.14885e-15 -2.01051e-15 2.61154e-15 -5.97734e-16 -1.23521e-30 -1.41607e-15 -1.89474e-45 1.41607e-15 6.08484e-16 -4.0542e-15 2.02965e-15 0 0 0.0718757 0.128749 0.181294 0.228396 0.249396 0.301214 0.32968 0.380288 0.423129 0.477931 0.612813 0.607355 0.490883 0.254384 0.0415142 0.000640216 2.21357e-07 2.57876e-11 3.59438e-15 -1.41607e-15 2.0138e-15 -2.0138e-15 -8.6446e-30 1.07501e-17 -3.01766e-34 -1.07501e-17 1.07501e-17 -2.02455e-15 2.02455e-15 0 0 0.0604602 0.108801 0.186865 0.216677 0.266233 0.313768 0.343825 0.404605 0.428413 0.517594 0.615102 0.574923 0.424813 0.175146 0.0183892 0.00016611 5.23392e-08 8.93792e-12 2.92397e-15 -2.0138e-15 -2.73032e-22 1.07501e-17 -2.02455e-15 2.02455e-15 2.18697e-30 4.33041e-30 -2.02455e-15 3.27309e-30 2.02455e-15 0 0 0.0417212 0.0937993 0.16466 0.216556 0.272449 0.306166 0.368294 0.404346 0.439163 0.565856 0.593809 0.518792 0.327659 0.0919984 0.00556981 2.6422e-05 9.46375e-09 2.26373e-12 1.70964e-16 -2.00512e-15 2.02455e-15 2.94182e-23 -2.94182e-23 -2.02455e-15 -1.09773e-30 2.02459e-15 2.24129e-17 -2.04712e-15 1.17555e-19 0 0 0.0426587 0.0907722 0.152307 0.208937 0.255051 0.31652 0.367673 0.392637 0.484882 0.57447 0.549183 0.426635 0.20145 0.0338891 0.00105978 2.40341e-06 1.25069e-09 4.23822e-13 1.99323e-15 8.66975e-18 2.15721e-23 2.24891e-20 -2.24891e-20 -2.02455e-15 8.5405e-30 2.04707e-15 -1.18814e-14 1.18813e-14 -2.04688e-15 0 0 0.0391454 0.0867001 0.140031 0.194609 0.256183 0.311446 0.344851 0.415563 0.527461 0.539411 0.468195 0.290827 0.086139 0.00787009 0.000112181 1.35432e-07 1.0623e-10 5.28922e-14 1.98552e-15 1.49142e-17 7.50713e-20 -5.94023e-15 3.90792e-15 2.05479e-15 7.44852e-21 -1.18814e-14 -1.21371e-23 1.21371e-23 1.18814e-14 0 0 0.0397895 0.0848121 0.135441 0.191264 0.244653 0.291074 0.362685 0.46849 0.504684 0.46541 0.335583 0.138207 0.0233537 0.001012 5.61894e-06 6.92314e-09 6.37547e-12 4.46805e-15 -7.9796e-15 8.00225e-15 -1.1902e-14 5.96182e-15 3.88541e-15 2.05479e-15 7.44852e-21 -1.18814e-14 -6.52489e-18 6.50958e-18 1.18814e-14 0 0 0.0407237 0.0847291 0.1326 0.184111 0.241652 0.320366 0.40797 0.451896 0.4324 0.338 0.168178 0.040744 0.00342139 5.90386e-05 1.41412e-07 2.73367e-10 3.42222e-13 4.29712e-15 -7.96487e-15 -5.94076e-15 1.47856e-18 1.18796e-14 -2.04709e-15 -1.02448e-30 8.56553e-30 2.04703e-15 -1.18879e-14 9.72189e-18 9.82753e-15 0 0 0.0424171 0.0889205 0.14226 0.206559 0.279518 0.345872 0.387507 0.377774 0.306799 0.168581 0.0502858 0.00626927 0.000218493 1.25883e-06 3.52011e-09 7.05359e-12 1.26015e-14 2.11504e-15 1.75271e-20 -1.39416e-14 1.39417e-14 -2.04708e-15 2.04703e-15 -2.04703e-15 -1.03343e-38 8.56914e-30 4.0941e-15 -1.59723e-14 1.39217e-14 0 0 0.0533104 0.109777 0.168099 0.226475 0.281077 0.313769 0.307598 0.250963 0.142886 0.0474955 0.00738162 0.000389369 4.361e-06 1.69922e-08 6.20638e-11 1.82841e-13 -1.84299e-15 -9.38903e-18 9.45628e-18 -1.35894e-17 2.0606e-15 -2.04707e-15 2.03411e-15 -2.0341e-15 -6.96682e-21 -2.91484e-18 4.09702e-15 -4.09425e-15 -9.83471e-15 0 0 0.0565662 0.112182 0.164345 0.207632 0.232054 0.225414 0.179173 0.100842 0.0346179 0.00590088 0.000384912 6.45759e-06 3.71321e-08 2.22664e-10 9.16214e-13 -8.80463e-15 1.19057e-14 -1.39359e-14 1.3936e-14 -3.97778e-20 -1.18777e-14 1.18777e-14 -1.39394e-14 1.39395e-14 -1.12605e-19 -2.80671e-18 -3.65265e-14 3.65292e-14 -1.18817e-14 0 0 0.0497369 0.0937618 0.127461 0.143847 0.136344 0.103659 0.05579 0.0183438 0.00308259 0.000211974 4.31992e-06 3.69027e-08 3.36e-10 2.00593e-12 1.08865e-14 -1.18817e-14 -9.18989e-18 8.3958e-18 1.18795e-14 2.39404e-20 -1.18777e-14 1.18764e-14 -1.18782e-14 -3.60958e-18 1.78127e-18 1.39282e-14 -3.85763e-14 3.85762e-14 -1.39332e-14 0 0 0.030302 0.0521347 0.0621024 0.0584812 0.0423487 0.02061 0.00599473 0.000898543 5.67119e-05 1.2318e-06 1.66709e-08 2.20474e-10 1.99374e-12 1.4925e-14 -4.53323e-18 2.04704e-15 -1.18878e-14 8.37799e-18 9.83249e-15 2.04703e-15 -6.4491e-20 -2.04828e-15 -9.83361e-15 -1.23428e-18 1.76206e-18 -9.26542e-20 1.39284e-14 -1.39284e-14 -4.94701e-18 0 0 0.00880328 0.0137609 0.0132824 0.00856271 0.0034909 0.000827359 0.000100585 5.34664e-06 1.34987e-07 3.41101e-09 6.06001e-11 9.04661e-13 6.79525e-15 -4.53476e-18 1.31394e-19 -1.17547e-19 2.04714e-15 -1.18795e-14 9.83253e-15 -9.83253e-15 1.18795e-14 -1.39289e-14 2.04705e-15 1.39289e-14 -1.46311e-19 -2.78564e-14 2.78565e-14 -2.78565e-14 2.78568e-14 0 0 0.000459124 0.000540676 0.00032427 0.00011182 2.14277e-05 2.13588e-06 1.22216e-07 6.40118e-09 2.60236e-10 6.72239e-12 1.76976e-13 -8.73912e-15 1.18755e-14 -2.04701e-15 1.17554e-19 2.04703e-15 -2.04703e-15 2.04707e-15 -2.04709e-15 -9.83253e-15 -3.61884e-18 1.16858e-18 1.39291e-14 -1.39285e-14 -2.14666e-20 -9.26698e-20 1.39284e-14 -1.39284e-14 -4.947e-18 0 0 2.91632e-07 2.83118e-07 1.29058e-07 3.5469e-08 7.16099e-09 1.05098e-09 9.4238e-11 5.72011e-12 3.17536e-13 1.2381e-14 2.19701e-15 -1.18517e-14 -9.15422e-18 1.18878e-14 -2.04691e-15 2.04703e-15 -2.04703e-15 2.04708e-15 -1.39353e-14 1.59823e-14 -2.78653e-14 2.78653e-14 -1.39334e-14 5.09618e-18 -3.45271e-21 1.39281e-14 -3.85761e-14 3.85761e-14 -1.39332e-14 0 0 1.14841e-11 1.59097e-11 1.16915e-11 5.16268e-12 1.51376e-12 3.22682e-13 4.82764e-14 4.15379e-15 1.11945e-16 -1.97905e-15 -9.42507e-18 -9.82306e-15 -8.39073e-18 8.40856e-18 1.18795e-14 -2.04696e-15 2.04697e-15 -1.18879e-14 8.77221e-17 -2.47334e-14 2.47335e-14 -8.80995e-17 1.70931e-18 3.22398e-18 1.88345e-18 1.39281e-14 -3.85762e-14 2.46445e-14 -3.24796e-18 0 0 6.17965e-16 2.6414e-16 -7.02236e-16 2.56798e-15 -3.85994e-15 2.05919e-15 -2.06412e-15 -3.90041e-15 8.00975e-15 -4.09405e-15 -9.40706e-18 -9.82305e-15 1.18794e-14 -1.39265e-14 1.39265e-14 -2.04704e-15 -9.84119e-15 8.83826e-17 3.60982e-18 -2.47374e-14 2.47358e-14 -9.03471e-17 5.02242e-18 -1.10579e-19 1.88691e-18 -9.26698e-20 1.39283e-14 -2.78599e-14 1.3925e-14 0 0 7.40044e-17 -2.01051e-15 2.61154e-15 -2.0138e-15 -2.02248e-15 4.05779e-15 -4.06418e-15 -3.87814e-15 -5.94081e-15 9.8205e-15 1.35402e-17 4.09408e-15 -4.0941e-15 2.04702e-15 -1.39265e-14 1.39264e-14 -1.1888e-14 -2.45574e-14 2.45613e-14 -3.94003e-18 2.30095e-18 1.39327e-14 -2.78603e-14 2.78603e-14 -7.69001e-24 -2.78564e-14 2.78564e-14 -1.39281e-14 1.39283e-14 0 0 -3.12239e-30 -1.41607e-15 2.0138e-15 -4.0276e-15 2.02455e-15 -1.88516e-24 -7.36065e-20 -1.1857e-14 -1.54396e-18 9.82054e-15 2.0605e-15 -1.18776e-14 1.18776e-14 -6.53763e-20 -1.18795e-14 -3.77252e-18 -4.84966e-18 -2.45575e-14 2.45597e-14 -2.29861e-18 1.03071e-17 -1.04425e-17 9.30795e-17 -8.81656e-17 2.01906e-18 1.24844e-19 1.3928e-14 -1.39281e-14 1.39282e-14 0 0 -1.94392e-45 5.97734e-16 -2.0138e-15 1.07501e-17 4.36633e-30 2.25107e-20 -5.94027e-15 -5.91675e-15 1.18795e-14 -2.04697e-15 2.04695e-15 -1.18776e-14 1.18763e-14 -2.04575e-15 -9.83487e-15 -1.35913e-18 -4.85963e-18 8.79951e-17 -8.57475e-17 1.39327e-14 -2.78598e-14 1.39249e-14 8.79207e-17 -8.3248e-17 1.82315e-18 1.39285e-14 -1.39303e-14 -1.39297e-14 2.78602e-14 0 0 0 1.19547e-15 -4.0276e-15 2.02455e-15 -1.88515e-24 2.25126e-20 -7.97258e-15 7.99509e-15 -2.04709e-15 2.04703e-15 -2.05996e-15 -9.81953e-15 1.18782e-14 -1.39276e-14 2.04705e-15 1.39288e-14 -1.39334e-14 -1.72108e-18 5.03417e-18 -3.87882e-19 8.35304e-17 -8.81639e-17 -1.27448e-20 4.93916e-18 5.04759e-18 -1.00451e-17 9.30744e-17 -8.99065e-17 -2.46537e-14 0 0 -4.28592e-30 -1.41607e-15 1.07501e-17 -2.02455e-15 2.02455e-15 -2.02455e-15 2.03928e-15 -2.03928e-15 -3.08171e-30 2.04703e-15 -2.05994e-15 -9.81948e-15 -3.78179e-18 1.2934e-18 1.39289e-14 -1.39282e-14 -5.30385e-18 3.40222e-18 -1.10588e-19 -1.32144e-19 8.81656e-17 -9.30403e-17 5.11741e-18 -1.10582e-19 5.26496e-18 -1.04554e-17 -2.45521e-14 3.84867e-14 -3.8585e-14 0 0 -2.34007e-29 -4.0276e-15 4.0491e-15 -4.0491e-15 1.09772e-30 1.23712e-29 4.09408e-15 -4.09408e-15 -8.57429e-30 1.03291e-38 6.96249e-21 4.09408e-15 -2.78586e-14 2.78584e-14 -1.03362e-19 -2.78565e-14 2.78565e-14 -2.78584e-14 2.78583e-14 5.76403e-24 -2.78585e-14 2.78583e-14 -2.78548e-14 2.7855e-14 -9.26756e-20 -2.37428e-19 -7.71562e-14 7.71559e-14 6.10115e-19 0 0 -4.73165e-30 -1.41607e-15 1.07501e-17 -8.69753e-30 -2.02451e-15 2.04698e-15 -1.18813e-14 1.18813e-14 -2.04703e-15 -8.56914e-30 -2.91486e-18 4.09701e-15 -1.39286e-14 9.26698e-20 4.89141e-38 -9.26698e-20 1.39284e-14 -1.39284e-14 9.26698e-20 7.58745e-34 1.24828e-19 1.39279e-14 -2.78598e-14 2.78597e-14 6.06208e-21 -3.8598e-14 1.94107e-16 -1.94038e-16 3.85982e-14 0 0 -4.52152e-31 6.08484e-16 -4.03835e-15 2.02455e-15 2.24987e-17 -1.18814e-14 -2.57559e-35 -6.52489e-18 1.18879e-14 4.83239e-20 -2.95731e-18 -3.65264e-14 3.8576e-14 -1.39281e-14 -5.55721e-43 1.39281e-14 -3.85761e-14 3.85761e-14 -1.39281e-14 -6.29472e-20 1.39284e-14 -1.39303e-14 8.32525e-17 -2.47289e-14 -5.23938e-18 1.5979e-16 3.75854e-17 -3.75163e-17 -1.39225e-16 0 0 -2.86665e-16 -6.62475e-16 -2.02455e-15 -2.21157e-30 2.04689e-15 -1.18812e-14 3.203e-23 -6.54023e-18 9.75252e-18 1.18782e-14 -1.38217e-19 -3.65293e-14 3.85762e-14 -1.39281e-14 -4.47635e-43 1.39281e-14 -3.85762e-14 2.46445e-14 3.51187e-18 1.39283e-14 -1.39283e-14 -1.39337e-14 2.79498e-14 -3.8664e-14 -4.9558e-18 1.59859e-16 3.75164e-17 -3.75163e-17 -1.39225e-16 0 0 -9.04142e-12 -2.68296e-15 2.02455e-15 -2.02455e-15 -1.17545e-19 2.04717e-15 -1.18814e-14 1.18813e-14 -1.39287e-14 1.39288e-14 -1.39291e-14 1.5976e-14 -1.39337e-14 5.45305e-18 -3.62676e-47 -5.45305e-18 1.39336e-14 -2.78669e-14 1.39387e-14 1.39282e-14 -1.39282e-14 -3.42168e-18 -2.46545e-14 3.85857e-14 2.00524e-19 -3.85977e-14 2.14257e-16 -2.14257e-16 3.85979e-14 0 0 0 0 0 0 0 0 0 0 0 0 0 0 0 0 0 0 0 0 0 0 0 0 0 0 0 0 0 0 0 0
				</DataArray>
				<DataArray Name="VitesseY" type="Float32" format="ascii">