<?xml version="1.0"?>
<VTKFile type="PolyData">
	<PolyData>
		<Piece NumberOfPoints="1206" NumberOfPolys="1000">
			<Points>
				<DataArray type="Float32" NumberOfComponents="3" format="ascii">
 0 0 0 0.02 0 0 0.04 0 0 0.06 0 0 0.08 0 0 0.1 0 0 0 0.005 0 0.02 0.005 0 0.04 0.005 0 0.06 0.005 0 0.08 0.005 0 0.1 0.005 0 0 0.01 0 0.02 0.01 0 0.04 0.01 0 0.06 0.01 0 0.08 0.01 0 0.1 0.01 0 0 0.015 0 0.02 0.015 0 0.04 0.015 0 0.06 0.015 0 0.08 0.015 0 0.1 0.015 0 0 0.02 0 0.02 0.02 0 0.04 0.02 0 0.06 0.02 0 0.08 0.02 0 0.1 0.02 0 0 0.025 0 0.02 0.025 0 0.04 0.025 0 0.06 0.025 0 0.08 0.025 0 0.1 0.025 0 0 0.03 0 0.02 0.03 0 0.04 0.03 0 0.06 0.03 0 0.08 0.03 0 0.1 0.03 0 0 0.035 0 0.02 0.035 0 0.04 0.035 0 0.06 0.035 0 0.08 0.035 0 0.1 0.035 0 0 0.04 0 0.02 0.04 0 0.04 0.04 0 0.06 0.04 0 0.08 0.04 0 0.1 0.04 0 0 0.045 0 0.02 0.045 0 0.04 0.045 0 0.06 0.045 0 0.08 0.045 0 0.1 0.045 0 0 0.05 0 0.02 0.05 0 0.04 0.05 0 0.06 0.05 0 0.08 0.05 0 0.1 0.05 0 0 0.055 0 0.02 0.055 0 0.04 0.055 0 0.06 0.055 0 0.08 0.055 0 0.1 0.055 0 0 0.06 0 0.02 0.06 0 0.04 0.06 0 0.06 0.06 0 0.08 0.06 0 0.1 0.06 0 0 0.065 0 0.02 0.065 0 0.04 0.065 0 0.06 0.065 0 0.08 0.065 0 0.1 0.065 0 0 0.07 0 0.02 0.07 0 0.04 0.07 0 0.06 0.07 0 0.08 0.07 0 0.1 0.07 0 0 0.075 0 0.02 0.075 0 0.04 0.075 0 0.06 0.075 0 0.08 0.075 0 0.1 0.075 0 0 0.08 0 0.02 0.08 0 0.04 0.08 0 0.06 0.08 0 0.08 0.08 0 0.1 0.08 0 0 0.085 0 0.02 0.085 0 0.04 0.085 0 0.06 0.085 0 0.08 0.085 0 0.1 0.085 0 0 0.09 0 0.02 0.09 0 0.04 0.09 0 0.06 0.09 0 0.08 0.09 0 0.1 0.09 0 0 0.095 0 0.02 0.095 0 0.04 0.095 0 0.06 0.095 0 0.08 0.095 0 0.1 0.095 0 0 0.1 0 0.02 0.1 0 0.04 0.1 0 0.06 0.1 0 0.08 0.1 0 0.1 0.1 0 0 0.105 0 0.02 0.105 0 0.04 0.105 0 0.06 0.105 0 0.08 0.105 0 0.1 0.105 0 0 0.11 0 0.02 0.11 0 0.04 0.11 0 0.06 0.11 0 0.08 0.11 0 0.1 0.11 0 0 0.115 0 0.02 0.115 0 0.04 0.115 0 0.06 0.115 0 0.08 0.115 0 0.1 0.115 0 0 0.12 0 0.02 0.12 0 0.04 0.12 0 0.06 0.12 0 0.08 0.12 0 0.1 0.12 0 0 0.125 0 0.02 0.125 0 0.04 0.125 0 0.06 0.125 0 0.08 0.125 0 0.1 0.125 0 0 0.13 0 0.02 0.13 0 0.04 0.13 0 0.06 0.13 0 0.08 0.13 0 0.1 0.13 0 0 0.135 0 0.02 0.135 0 0.04 0.135 0 0.06 0.135 0 0.08 0.135 0 0.1 0.135 0 0 0.14 0 0.02 0.14 0 0.04 0.14 0 0.06 0.14 0 0.08 0.14 0 0.1 0.14 0 0 0.145 0 0.02 0.145 0 0.04 0.145 0 0.06 0.145 0 0.08 0.145 0 0.1 0.145 0 0 0.15 0 0.02 0.15 0 0.04 0.15 0 0.06 0.15 0 0.08 0.15 0 0.1 0.15 0 0 0.155 0 0.02 0.155 0 0.04 0.155 0 0.06 0.155 0 0.08 0.155 0 0.1 0.155 0 0 0.16 0 0.02 0.16 0 0.04 0.16 0 0.06 0.16 0 0.08 0.16 0 0.1 0.16 0 0 0.165 0 0.02 0.165 0 0.04 0.165 0 0.06 0.165 0 0.08 0.165 0 0.1 0.165 0 0 0.17 0 0.02 0.17 0 0.04 0.17 0 0.06 0.17 0 0.08 0.17 0 0.1 0.17 0 0 0.175 0 0.02 0.175 0 0.04 0.175 0 0.06 0.175 0 0.08 0.175 0 0.1 0.175 0 0 0.18 0 0.02 0.18 0 0.04 0.18 0 0.06 0.18 0 0.08 0.18 0 0.1 0.18 0 0 0.185 0 0.02 0.185 0 0.04 0.185 0 0.06 0.185 0 0.08 0.185 0 0.1 0.185 0 0 0.19 0 0.02 0.19 0 0.04 0.19 0 0.06 0.19 0 0.08 0.19 0 0.1 0.19 0 0 0.195 0 0.02 0.195 0 0.04 0.195 0 0.06 0.195 0 0.08 0.195 0 0.1 0.195 0 0 0.2 0 0.02 0.2 0 0.04 0.2 0 0.06 0.2 0 0.08 0.2 0 0.1 0.2 0 0 0.205 0 0.02 0.205 0 0.04 0.205 0 0.06 0.205 0 0.08 0.205 0 0.1 0.205 0 0 0.21 0 0.02 0.21 0 0.04 0.21 0 0.06 0.21 0 0.08 0.21 0 0.1 0.21 0 0 0.215 0 0.02 0.215 0 0.04 0.215 0 0.06 0.215 0 0.08 0.215 0 0.1 0.215 0 0 0.22 0 0.02 0.22 0 0.04 0.22 0 0.06 0.22 0 0.08 0.22 0 0.1 0.22 0 0 0.225 0 0.02 0.225 0 0.04 0.225 0 0.06 0.225 0 0.08 0.225 0 0.1 0.225 0 0 0.23 0 0.02 0.23 0 0.04 0.23 0 0.06 0.23 0 0.08 0.23 0 0.1 0.23 0 0 0.235 0 0.02 0.235 0 0.04 0.235 0 0.06 0.235 0 0.08 0.235 0 0.1 0.235 0 0 0.24 0 0.02 0.24 0 0.04 0.24 0 0.06 0.24 0 0.08 0.24 0 0.1 0.24 0 0 0.245 0 0.02 0.245 0 0.04 0.245 0 0.06 0.245 0 0.08 0.245 0 0.1 0.245 0 0 0.25 0 0.02 0.25 0 0.04 0.25 0 0.06 0.25 0 0.08 0.25 0 0.1 0.25 0 0 0.255 0 0.02 0.255 0 0.04 0.255 0 0.06 0.255 0 0.08 0.255 0 0.1 0.255 0 0 0.26 0 0.02 0.26 0 0.04 0.26 0 0.06 0.26 0 0.08 0.26 0 0.1 0.26 0 0 0.265 0 0.02 0.265 0 0.04 0.265 0 0.06 0.265 0 0.08 0.265 0 0.1 0.265 0 0 0.27 0 0.02 0.27 0 0.04 0.27 0 0.06 0.27 0 0.08 0.27 0 0.1 0.27 0 0 0.275 0 0.02 0.275 0 0.04 0.275 0 0.06 0.275 0 0.08 0.275 0 0.1 0.275 0 0 0.28 0 0.02 0.28 0 0.04 0.28 0 0.06 0.28 0 0.08 0.28 0 0.1 0.28 0 0 0.285 0 0.02 0.285 0 0.04 0.285 0 0.06 0.285 0 0.08 0.285 0 0.1 0.285 0 0 0.29 0 0.02 0.29 0 0.04 0.29 0 0.06 0.29 0 0.08 0.29 0 0.1 0.29 0 0 0.295 0 0.02 0.295 0 0.04 0.295 0 0.06 0.295 0 0.08 0.295 0 0.1 0.295 0 0 0.3 0 0.02 0.3 0 0.04 0.3 0 0.06 0.3 0 0.08 0.3 0 0.1 0.3 0 0 0.305 0 0.02 0.305 0 0.04 0.305 0 0.06 0.305 0 0.08 0.305 0 0.1 0.305 0 0 0.31 0 0.02 0.31 0 0.04 0.31 0 0.06 0.31 0 0.08 0.31 0 0.1 0.31 0 0 0.315 0 0.02 0.315 0 0.04 0.315 0 0.06 0.315 0 0.08 0.315 0 0.1 0.315 0 0 0.32 0 0.02 0.32 0 0.04 0.32 0 0.06 0.32 0 0.08 0.32 0 0.1 0.32 0 0 0.325 0 0.02 0.325 0 0.04 0.325 0 0.06 0.325 0 0.08 0.325 0 0.1 0.325 0 0 0.33 0 0.02 0.33 0 0.04 0.33 0 0.06 0.33 0 0.08 0.33 0 0.1 0.33 0 0 0.335 0 0.02 0.335 0 0.04 0.335 0 0.06 0.335 0 0.08 0.335 0 0.1 0.335 0 0 0.34 0 0.02 0.34 0 0.04 0.34 0 0.06 0.34 0 0.08 0.34 0 0.1 0.34 0 0 0.345 0 0.02 0.345 0 0.04 0.345 0 0.06 0.345 0 0.08 0.345 0 0.1 0.345 0 0 0.35 0 0.02 0.35 0 0.04 0.35 0 0.06 0.35 0 0.08 0.35 0 0.1 0.35 0 0 0.355 0 0.02 0.355 0 0.04 0.355 0 0.06 0.355 0 0.08 0.355 0 0.1 0.355 0 0 0.36 0 0.02 0.36 0 0.04 0.36 0 0.06 0.36 0 0.08 0.36 0 0.1 0.36 0 0 0.365 0 0.02 0.365 0 0.04 0.365 0 0.06 0.365 0 0.08 0.365 0 0.1 0.365 0 0 0.37 0 0.02 0.37 0 0.04 0.37 0 0.06 0.37 0 0.08 0.37 0 0.1 0.37 0 0 0.375 0 0.02 0.375 0 0.04 0.375 0 0.06 0.375 0 0.08 0.375 0 0.1 0.375 0 0 0.38 0 0.02 0.38 0 0.04 0.38 0 0.06 0.38 0 0.08 0.38 0 0.1 0.38 0 0 0.385 0 0.02 0.385 0 0.04 0.385 0 0.06 0.385 0 0.08 0.385 0 0.1 0.385 0 0 0.39 0 0.02 0.39 0 0.04 0.39 0 0.06 0.39 0 0.08 0.39 0 0.1 0.39 0 0 0.395 0 0.02 0.395 0 0.04 0.395 0 0.06 0.395 0 0.08 0.395 0 0.1 0.395 0 0 0.4 0 0.02 0.4 0 0.04 0.4 0 0.06 0.4 0 0.08 0.4 0 0.1 0.4 0 0 0.405 0 0.02 0.405 0 0.04 0.405 0 0.06 0.405 0 0.08 0.405 0 0.1 0.405 0 0 0.41 0 0.02 0.41 0 0.04 0.41 0 0.06 0.41 0 0.08 0.41 0 0.1 0.41 0 0 0.415 0 0.02 0.415 0 0.04 0.415 0 0.06 0.415 0 0.08 0.415 0 0.1 0.415 0 0 0.42 0 0.02 0.42 0 0.04 0.42 0 0.06 0.42 0 0.08 0.42 0 0.1 0.42 0 0 0.425 0 0.02 0.425 0 0.04 0.425 0 0.06 0.425 0 0.08 0.425 0 0.1 0.425 0 0 0.43 0 0.02 0.43 0 0.04 0.43 0 0.06 0.43 0 0.08 0.43 0 0.1 0.43 0 0 0.435 0 0.02 0.435 0 0.04 0.435 0 0.06 0.435 0 0.08 0.435 0 0.1 0.435 0 0 0.44 0 0.02 0.44 0 0.04 0.44 0 0.06 0.44 0 0.08 0.44 0 0.1 0.44 0 0 0.445 0 0.02 0.445 0 0.04 0.445 0 0.06 0.445 0 0.08 0.445 0 0.1 0.445 0 0 0.45 0 0.02 0.45 0 0.04 0.45 0 0.06 0.45 0 0.08 0.45 0 0.1 0.45 0 0 0.455 0 0.02 0.455 0 0.04 0.455 0 0.06 0.455 0 0.08 0.455 0 0.1 0.455 0 0 0.46 0 0.02 0.46 0 0.04 0.46 0 0.06 0.46 0 0.08 0.46 0 0.1 0.46 0 0 0.465 0 0.02 0.465 0 0.04 0.465 0 0.06 0.465 0 0.08 0.465 0 0.1 0.465 0 0 0.47 0 0.02 0.47 0 0.04 0.47 0 0.06 0.47 0 0.08 0.47 0 0.1 0.47 0 0 0.475 0 0.02 0.475 0 0.04 0.475 0 0.06 0.475 0 0.08 0.475 0 0.1 0.475 0 0 0.48 0 0.02 0.48 0 0.04 0.48 0 0.06 0.48 0 0.08 0.48 0 0.1 0.48 0 0 0.485 0 0.02 0.485 0 0.04 0.485 0 0.06 0.485 0 0.08 0.485 0 0.1 0.485 0 0 0.49 0 0.02 0.49 0 0.04 0.49 0 0.06 0.49 0 0.08 0.49 0 0.1 0.49 0 0 0.495 0 0.02 0.495 0 0.04 0.495 0 0.06 0.495 0 0.08 0.495 0 0.1 0.495 0 0 0.5 0 0.02 0.5 0 0.04 0.5 0 0.06 0.5 0 0.08 0.5 0 0.1 0.5 0 0 0.505 0 0.02 0.505 0 0.04 0.505 0 0.06 0.505 0 0.08 0.505 0 0.1 0.505 0 0 0.51 0 0.02 0.51 0 0.04 0.51 0 0.06 0.51 0 0.08 0.51 0 0.1 0.51 0 0 0.515 0 0.02 0.515 0 0.04 0.515 0 0.06 0.515 0 0.08 0.515 0 0.1 0.515 0 0 0.52 0 0.02 0.52 0 0.04 0.52 0 0.06 0.52 0 0.08 0.52 0 0.1 0.52 0 0 0.525 0 0.02 0.525 0 0.04 0.525 0 0.06 0.525 0 0.08 0.525 0 0.1 0.525 0 0 0.53 0 0.02 0.53 0 0.04 0.53 0 0.06 0.53 0 0.08 0.53 0 0.1 0.53 0 0 0.535 0 0.02 0.535 0 0.04 0.535 0 0.06 0.535 0 0.08 0.535 0 0.1 0.535 0 0 0.54 0 0.02 0.54 0 0.04 0.54 0 0.06 0.54 0 0.08 0.54 0 0.1 0.54 0 0 0.545 0 0.02 0.545 0 0.04 0.545 0 0.06 0.545 0 0.08 0.545 0 0.1 0.545 0 0 0.55 0 0.02 0.55 0 0.04 0.55 0 0.06 0.55 0 0.08 0.55 0 0.1 0.55 0 0 0.555 0 0.02 0.555 0 0.04 0.555 0 0.06 0.555 0 0.08 0.555 0 0.1 0.555 0 0 0.56 0 0.02 0.56 0 0.04 0.56 0 0.06 0.56 0 0.08 0.56 0 0.1 0.56 0 0 0.565 0 0.02 0.565 0 0.04 0.565 0 0.06 0.565 0 0.08 0.565 0 0.1 0.565 0 0 0.57 0 0.02 0.57 0 0.04 0.57 0 0.06 0.57 0 0.08 0.57 0 0.1 0.57 0 0 0.575 0 0.02 0.575 0 0.04 0.575 0 0.06 0.575 0 0.08 0.575 0 0.1 0.575 0 0 0.58 0 0.02 0.58 0 0.04 0.58 0 0.06 0.58 0 0.08 0.58 0 0.1 0.58 0 0 0.585 0 0.02 0.585 0 0.04 0.585 0 0.06 0.585 0 0.08 0.585 0 0.1 0.585 0 0 0.59 0 0.02 0.59 0 0.04 0.59 0 0.06 0.59 0 0.08 0.59 0 0.1 0.59 0 0 0.595 0 0.02 0.595 0 0.04 0.595 0 0.06 0.595 0 0.08 0.595 0 0.1 0.595 0 0 0.6 0 0.02 0.6 0 0.04 0.6 0 0.06 0.6 0 0.08 0.6 0 0.1 0.6 0 0 0.605 0 0.02 0.605 0 0.04 0.605 0 0.06 0.605 0 0.08 0.605 0 0.1 0.605 0 0 0.61 0 0.02 0.61 0 0.04 0.61 0 0.06 0.61 0 0.08 0.61 0 0.1 0.61 0 0 0.615 0 0.02 0.615 0 0.04 0.615 0 0.06 0.615 0 0.08 0.615 0 0.1 0.615 0 0 0.62 0 0.02 0.62 0 0.04 0.62 0 0.06 0.62 0 0.08 0.62 0 0.1 0.62 0 0 0.625 0 0.02 0.625 0 0.04 0.625 0 0.06 0.625 0 0.08 0.625 0 0.1 0.625 0 0 0.63 0 0.02 0.63 0 0.04 0.63 0 0.06 0.63 0 0.08 0.63 0 0.1 0.63 0 0 0.635 0 0.02 0.635 0 0.04 0.635 0 0.06 0.635 0 0.08 0.635 0 0.1 0.635 0 0 0.64 0 0.02 0.64 0 0.04 0.64 0 0.06 0.64 0 0.08 0.64 0 0.1 0.64 0 0 0.645 0 0.02 0.645 0 0.04 0.645 0 0.06 0.645 0 0.08 0.645 0 0.1 0.645 0 0 0.65 0 0.02 0.65 0 0.04 0.65 0 0.06 0.65 0 0.08 0.65 0 0.1 0.65 0 0 0.655 0 0.02 0.655 0 0.04 0.655 0 0.06 0.655 0 0.08 0.655 0 0.1 0.655 0 0 0.66 0 0.02 0.66 0 0.04 0.66 0 0.06 0.66 0 0.08 0.66 0 0.1 0.66 0 0 0.665 0 0.02 0.665 0 0.04 0.665 0 0.06 0.665 0 0.08 0.665 0 0.1 0.665 0 0 0.67 0 0.02 0.67 0 0.04 0.67 0 0.06 0.67 0 0.08 0.67 0 0.1 0.67 0 0 0.675 0 0.02 0.675 0 0.04 0.675 0 0.06 0.675 0 0.08 0.675 0 0.1 0.675 0 0 0.68 0 0.02 0.68 0 0.04 0.68 0 0.06 0.68 0 0.08 0.68 0 0.1 0.68 0 0 0.685 0 0.02 0.685 0 0.04 0.685 0 0.06 0.685 0 0.08 0.685 0 0.1 0.685 0 0 0.69 0 0.02 0.69 0 0.04 0.69 0 0.06 0.69 0 0.08 0.69 0 0.1 
[...]
			<PointData Scalars="VitesseX">
				<DataArray Name="VitesseX" type="Float32" format="ascii">
 0 3.22954e-14 -2.19691e-14 1.66271e-14 -1.4854e-14 0 0 2.92362e-14 -1.00266e-14 2.64663e-15 -8.84186e-17 0 0 2.43803e-14 8.30474e-15 -8.56593e-15 1.31361e-14 0 0 2.46891e-14 1.43728e-14 4.69181e-15 3.28507e-15 0 0 5.31724e-15 4.48639e-14 1.21499e-15 -1.14934e-15 0 0 -3.6875e-15 6.21637e-14 6.95375e-16 -5.3836e-15 0 0 4.88296e-14 -1.64658e-15 5.42304e-14 -3.31841e-14 0 0 7.38317e-14 -2.77986e-14 7.19304e-14 -3.83777e-14 0 0 5.86981e-14 -7.48417e-16 4.04301e-14 -1.39396e-14 0 0 2.05564e-14 5.92875e-14 -2.32043e-14 2.88052e-14 0 0 7.57309e-15 7.8625e-14 -5.5595e-14 5.76348e-14 0 0 3.89116e-14 3.39831e-14 -1.53512e-14 2.68156e-14 0 0 7.33158e-14 -1.43834e-14 5.05466e-14 -3.11461e-14 0 0 6.34233e-14 6.68256e-15 3.72296e-14 -1.30513e-14 0 0 3.54177e-14 5.54823e-14 -1.03885e-14 2.55128e-14 0 0 7.27349e-14 9.25259e-15 3.57536e-14 -8.8452e-15 0 0 5.70786e-14 4.2281e-14 8.18584e-15 7.69723e-15 0 0 1.36288e-14 6.94176e-14 1.67058e-14 -1.59237e-15 0 0 -4.4436e-15 7.64764e-14 9.46075e-15 1.4248e-14 0 0 1.95151e-14 6.04717e-14 -2.43995e-14 6.43712e-14 0 0 8.94088e-14 -4.82867e-14 7.57317e-14 1.69723e-15 0 0 8.82267e-14 -5.84842e-14 1.01331e-13 -2.00266e-14 0 0 7.99786e-15 6.38111e-14 -6.3254e-15 5.23686e-14 0 0 -1.88178e-14 1.29898e-13 -8.45058e-14 1.17274e-13 0 0 7.03083e-14 8.82848e-16 4.03217e-14 6.20033e-14 0 0 1.72709e-13 -1.40492e-13 2.05136e-13 -3.40938e-14 0 0 9.50643e-14 3.12783e-14 4.18827e-14 7.68615e-14 0 0 -1.38325e-14 1.88731e-13 -7.16202e-14 1.52752e-13 0 0 4.96133e-14 8.10955e-14 2.69624e-14 1.04676e-13 0 0 1.10824e-13 -1.1587e-14 1.05904e-13 5.2108e-14 0 0 9.14887e-14 -1.24739e-14 1.14862e-13 9.52747e-15 0 0 7.26254e-14 1.0439e-14 7.52635e-14 -1.84002e-14 0 0 3.03052e-14 9.90637e-14 -2.99356e-14 2.67845e-14 0 0 3.89865e-15 1.85939e-13 -1.8313e-13 1.65361e-13 0 0 1.43962e-13 -1.1356e-14 -3.78337e-14 7.73342e-14 0 0 2.0305e-13 -1.18567e-13 8.46024e-14 -4.30811e-14 0 0 1.3371e-13 -8.05707e-15 -4.22806e-14 5.8063e-14 0 0 7.64954e-14 9.37227e-14 -1.77178e-13 1.99817e-13 0 0 6.58455e-14 1.30079e-13 -1.85509e-13 1.83902e-13 0 0 1.07761e-13 7.94222e-14 -4.81753e-14 2.98697e-14 0 0 1.54105e-13 -2.39869e-15 1.06376e-13 -9.07139e-14 0 0 1.67541e-13 -2.68451e-14 1.63259e-13 -1.37103e-13 0 0 7.92792e-14 1.41768e-13 1.22412e-15 -1.72418e-14 0 0 1.82084e-13 2.80179e-14 5.70759e-14 2.51436e-14 0 0 3.6824e-13 -1.78053e-13 1.64713e-13 2.61498e-14 0 0 2.97522e-13 4.87259e-15 -9.86194e-14 2.13312e-13 0 0 1.49895e-13 2.01443e-13 -2.72943e-13 3.05367e-13 0 0 1.13959e-13 2.21431e-13 -2.2086e-13 2.48218e-13 0 0 2.27859e-13 6.21477e-14 -6.51218e-14 1.81685e-13 0 0 4.62602e-13 -2.987e-13 2.25273e-13 6.77476e-14 0 0 5.85435e-13 -5.78927e-13 4.95122e-13 -7.38179e-14 0 0 3.09118e-13 -2.3945e-13 2.21234e-13 3.74555e-14 0 0 -4.46739e-14 2.84027e-13 -2.83878e-13 2.94791e-13 0 0 5.71261e-14 1.81265e-13 -2.73332e-13 3.38738e-13 0 0 3.32096e-13 -1.46038e-13 -4.87319e-14 2.61462e-13 0 0 4.17009e-13 -2.04687e-13 -2.77309e-14 2.38112e-13 0 0 3.40033e-13 -2.71012e-14 -1.90252e-13 2.82485e-13 0 0 2.52549e-13 3.23068e-14 -1.84075e-13 2.36903e-13 0 0 2.77561e-13 -1.19631e-13 4.55782e-14 -2.65278e-15 0 0 2.90183e-13 -1.361e-13 1.09077e-13 -1.47046e-13 0 0 1.86615e-13 5.37933e-14 -7.23965e-14 -2.58973e-14 0 0 1.59005e-13 9.60198e-14 -1.45892e-13 1.03515e-13 0 0 2.14984e-13 -5.74696e-14 7.37516e-14 -2.40049e-14 0 0 1.6264e-13 -6.39085e-14 2.17218e-13 -1.59943e-13 0 0 6.76545e-14 3.82331e-14 1.7135e-13 -1.34085e-13 0 0 2.64421e-14 1.21222e-13 7.14883e-14 -9.00637e-14 0 0 1.85687e-14 2.2263e-13 -8.25992e-14 -2.18794e-14 0 0 1.96912e-13 3.67489e-14 -1.23939e-14 -3.23535e-14 0 0 4.25954e-13 -2.76814e-13 2.30112e-13 -1.58353e-13 0 0 2.96736e-13 -4.75809e-14 4.69394e-14 -6.49242e-14 0 0 1.44788e-13 2.22848e-13 -1.7397e-13 9.85416e-14 0 0 3.05571e-13 4.24919e-14 -8.76663e-14 1.74365e-13 0 0 5.27693e-13 -2.64953e-13 1.01118e-13 1.96764e-13 0 0 5.60079e-13 -2.75636e-13 1.63494e-13 1.6679e-13 0 0 3.93677e-13 1.02146e-13 -8.98759e-14 2.46974e-13 0 0 3.41476e-13 3.20154e-13 -2.57166e-13 2.92909e-13 0 0 5.13373e-13 2.16043e-14 1.1941e-13 3.2385e-14 0 0 6.3004e-13 -3.01436e-13 5.48164e-13 -2.20508e-13 0 0 5.54133e-13 -1.02483e-13 2.70286e-13 6.07025e-14 0 0 4.2835e-13 1.09443e-13 1.80688e-13 1.85153e-13 0 0 3.79455e-13 1.81158e-14 6.05376e-13 -1.38427e-13 0 0 3.72121e-13 2.34513e-13 2.28725e-13 1.09723e-13 0 0 3.22993e-13 5.70222e-13 -4.07294e-13 6.85715e-13 0 0 3.85867e-13 2.52433e-13 6.46897e-14 4.46271e-13 0 0 3.47507e-13 -2.93436e-13 1.02781e-12 -1.61494e-13 0 0 -1.23163e-13 2.68164e-13 7.25831e-13 2.24879e-14 0 0 -2.21888e-13 9.61514e-13 -1.04382e-13 5.6392e-13 0 0 2.01509e-13 4.78485e-13 1.3852e-13 5.4343e-13 0 0 4.77631e-13 -9.9451e-14 7.88184e-13 6.39122e-14 0 0 5.74875e-13 -2.37723e-13 1.15232e-12 -3.08369e-13 0 0 3.62546e-13 1.33975e-13 6.85081e-13 -1.59945e-13 0 0 -3.338e-13 1.05174e-12 1.20194e-14 -3.81849e-14 0 0 -5.30576e-13 1.19615e-12 -1.28456e-13 -3.28633e-14 0 0 -1.94198e-13 8.6104e-13 -9.04715e-14 1.4096e-13 0 0 5.45357e-13 1.22078e-13 1.55997e-13 3.26756e-13 0 0 9.34769e-13 -7.2583e-13 6.60105e-13 1.66495e-13 0 0 8.90801e-13 -8.7567e-13 9.45361e-13 -7.28439e-14 0 0 5.52457e-13 -6.39146e-13 7.86561e-13 -1.59073e-14 0 0 -2.2765e-13 2.10103e-13 1.67462e-13 2.60129e-13 0 0 -7.00221e-13 9.48545e-13 -9.34042e-13 9.35266e-13 0 0 -6.45258e-13 9.1848e-13 -1.18473e-12 1.24341e-12 0 0 -5.4732e-14 3.38597e-13 -9.27543e-13 1.12197e-12 0 0 8.69399e-13 -6.50228e-13 -3.77299e-13 9.16165e-13 0 0 1.1068e-12 -9.5205e-13 -1.07379e-13 8.29886e-13 0 0 8.96216e-13 -8.12129e-13 -1.5307e-14 6.98915e-13 0 0 2.65226e-13 -3.04915e-13 7.81523e-14 4.148e-13 0 0 -1.64706e-13 1.65847e-15 2.41732e-13 8.72644e-14 0 0 -2.36498e-13 1.67314e-14 3.63636e-13 -1.8004e-14 0 0 -1.70731e-13 -2.48293e-14 4.02462e-13 -7.03816e-14 0 0 -4.77725e-14 -4.42966e-14 4.00777e-13 -1.55398e-13 0 0 8.34847e-15 -2.63985e-14 3.72856e-13 -1.68492e-13 0 0 3.44619e-14 -2.36876e-14 3.14178e-13 -1.20019e-13 0 0 4.56346e-14 -2.0528e-14 2.44775e-13 -1.27015e-13 0 0 3.83612e-14 1.42384e-14 1.62043e-13 -1.44897e-13 0 0 4.67175e-14 -3.42326e-15 1.21416e-13 -1.35497e-13 0 0 7.53642e-14 -3.09177e-14 8.71841e-14 -1.60435e-13 0 0 6.19188e-14 -4.59664e-16 -6.19597e-15 -1.29621e-13 0 0 4.62599e-14 1.57063e-14 -7.67231e-14 -2.89239e-14 0 0 6.78414e-14 -3.05379e-14 -5.40495e-14 -6.79101e-14 0 0 8.23375e-14 -1.00493e-13 5.11124e-14 -2.1757e-13 0 0 4.98845e-14 -1.0175e-13 1.19585e-13 -2.0478e-13 0 0 2.64551e-14 -9.90063e-15 6.34054e-14 -1.14365e-13 0 0 8.827e-14 -1.52698e-14 7.58503e-14 -8.05273e-14 0 0 8.07089e-14 1.45582e-14 1.30519e-13 -6.18574e-14 0 0 4.45528e-14 2.10658e-13 -6.99998e-15 5.59337e-14 0 0 1.04506e-13 2.83758e-13 -1.0737e-13 1.25003e-13 0 0 2.30495e-13 1.63511e-13 1.74878e-14 9.84966e-14 0 0 4.32432e-13 -1.1632e-13 2.79622e-13 2.46075e-14 0 0 2.84766e-13 9.6593e-14 1.11751e-13 5.40187e-14 0 0 1.99021e-13 1.92655e-13 6.92166e-14 2.79346e-14 0 0 1.65004e-13 2.13733e-13 5.03776e-14 8.94727e-15 0 0 2.10842e-13 8.35261e-14 1.51653e-13 -7.41327e-14 0 0 4.02296e-13 -2.66088e-13 4.59034e-13 -1.9762e-13 0 0 2.00477e-13 2.68247e-14 1.29712e-13 5.92598e-14 0 0 1.6799e-13 9.24808e-14 4.9538e-14 7.67425e-14 0 0 1.61622e-13 1.35416e-13 5.54974e-14 4.57958e-14 0 0 2.3247e-13 3.00272e-14 1.44262e-13 1.20222e-13 0 0 4.6284e-13 -3.78869e-13 6.02383e-13 -1.04464e-13 0 0 1.66996e-13 1.01016e-13 2.32247e-13 1.12864e-13 0 0 1.22707e-13 2.42631e-13 1.38722e-13 2.16608e-13 0 0 2.05908e-13 1.78583e-13 2.1136e-13 1.92598e-13 0 0 6.08861e-14 5.15444e-13 -1.98679e-13 4.80674e-13 0 0 4.6283e-13 -7.6827e-14 3.475e-13 1.72724e-13 0 0 5.90506e-13 -3.09161e-13 6.37407e-13 -6.38634e-14 0 0 1.32755e-13 3.87175e-13 -2.89819e-14 4.01263e-13 0 0 1.67575e-13 2.79637e-13 1.17741e-13 4.10907e-13 0 0 1.79469e-13 2.84901e-13 1.21806e-13 3.33547e-13 0 0 4.06577e-13 -9.20239e-14 4.78831e-13 2.18956e-14 0 0 6.58194e-13 -3.85812e-13 7.03793e-13 -1.51947e-13 0 0 1.58122e-13 6.53787e-13 -3.94256e-13 4.81999e-13 0 0 2.74613e-13 5.41433e-13 -1.38015e-13 9.18091e-14 0 0 6.04177e-13 6.63895e-14 2.7232e-13 -1.39838e-13 0 0 7.15029e-13 -2.15393e-13 4.70214e-13 -2.30782e-14 0 0 4.70276e-13 -3.15071e-14 4.12722e-13 -8.3335e-14 0 0 7.02839e-14 4.99485e-13 -1.39454e-13 1.53854e-13 0 0 1.04733e-13 4.21915e-13 -1.96327e-13 1.45346e-13 0 0 3.33226e-13 9.43595e-14 7.50577e-14 -1.0121e-13 0 0 7.15737e-13 -5.26309e-13 5.6038e-13 -2.03443e-13 0 0 3.38108e-13 -1.30682e-13 1.69622e-13 2.52504e-13 0 0 -3.09755e-13 6.68578e-13 -3.6251e-13 5.783e-13 0 0 -4.1505e-13 7.47968e-13 -2.20205e-13 3.61654e-13 0 0 2.12967e-13 -3.12168e-13 8.15627e-13 -5.31878e-14 0 0 5.69147e-13 -1.05083e-12 1.3925e-12 2.91477e-14 0 0 -5.66526e-14 -1.72433e-13 3.89815e-13 6.30004e-13 0 0 -4.17452e-13 5.35785e-13 -5.04979e-13 1.06018e-12 0 0 -9.86579e-14 1.46045e-13 -2.32712e-13 8.82322e-13 0 0 1.6166e-13 -3.84158e-13 4.25549e-13 4.449e-13 0 0 1.05373e-13 -5.60716e-13 9.04989e-13 2.82891e-14 0 0 -1.7907e-13 -2.19149e-13 6.88587e-13 8.23859e-14 0 0 -1.91008e-14 -2.53375e-13 5.58344e-13 1.11163e-13 0 0 2.22523e-13 -3.59735e-13 4.21432e-13 1.22725e-13 0 0 -1.9073e-13 2.33709e-13 -1.01696e-13 3.35789e-13 0 0 -4.13233e-14 -1.83598e-13 4.19212e-13 -1.83534e-14 0 0 1.26915e-14 -2.58213e-13 2.77765e-13 2.5087e-13 0 0 1.31031e-13 -3.56595e-13 3.22224e-13 2.75586e-13 0 0 1.25639e-13 -4.05929e-13 5.81804e-13 -1.72275e-14 0 0 -3.574e-13 2.94167e-13 -7.15749e-14 2.323e-13 0 0 -1.97565e-13 1.00542e-13 -1.00504e-14 9.00026e-14 0 0 4.73167e-14 -2.58917e-13 2.0961e-13 -8.81902e-14 0 0 2.93307e-13 -5.9088e-13 3.40606e-13 -1.24367e-13 0 0 2.34828e-13 -4.33075e-13 1.68528e-13 -1.2034e-14 0 0 -3.73392e-13 5.01199e-13 -4.97974e-13 4.27301e-13 0 0 -1.30891e-13 1.28535e-13 4.50822e-14 2.36707e-13 0 0 1.13308e-13 -2.58462e-13 5.20149e-13 7.82668e-14 0 0 4.81576e-14 -1.47494e-13 4.38641e-13 1.63966e-13 0 0 -6.11076e-14 4.92696e-14 3.45236e-13 6.72606e-14 0 0 -5.32462e-13 7.22221e-13 -2.15865e-13 3.49566e-13 0 0 -3.22932e-14 -4.92992e-14 4.57226e-13 -3.5466e-14 0 0 3.98317e-13 -4.11825e-13 5.71514e-13 -1.4778e-13 0 0 6.14255e-13 -4.7828e-13 4.56543e-13 -2.19218e-13 0 0 3.91275e-13 -3.06739e-13 5.77841e-13 -5.34547e-13 0 0 -4.07677e-13 7.2863e-13 -3.07057e-13 -5.79625e-15 0 0 2.86514e-13 -2.54555e-13 3.11135e-13 -1.05596e-13 0 0 1.02532e-12 -1.08677e-12 8.5605e-13 -2.40404e-13 0 0 3.74164e-13 2.99683e-15 -1.51929e-13 3.1762e-13 0 0 -2.57761e-13 7.25606e-13 -6.24054e-13 5.06015e-13 0 0 -2.40476e-13 5.76542e-13 -4.92678e-13 5.32179e-13 0 0 9.65037e-13 -1.20323e-12 1.14429e-12 -2.8897e-13 0 0 1.1242e-12 -1.08719e-12 1.01931e-12 -1.99271e-13 0 0 -2.1206e-13 1.24069e-12 -1.03607e-12 8.11857e-13 0 0 -6.78823e-13 1.9233e-12 -1.45314e-12 8.75523e-13 0
				</DataArray>
				<DataArray Name="VitesseY" type="Float32" format="ascii">