<?xml version="1.0"?>
<VTKFile type="PolyData">
	<PolyData>
		<Piece NumberOfPoints="1206" NumberOfPolys="1000">
			<Points>
				<DataArray type="Float32" NumberOfComponents="3" format="ascii">
 0 0 0 0.02 0 0 0.04 0 0 0.06 0 0 0.08 0 0 0.1 0 0 0 0.005 0 0.02 0.005 0 0.04 0.005 0 0.06 0.005 0 0.08 0.005 0 0.1 0.005 0 0 0.01 0 0.02 0.01 0 0.04 0.01 0 0.06 0.01 0 0.08 0.01 0 0.1 0.01 0 0 0.015 0 0.02 0.015 0 0.04 0.015 0 0.06 0.015 0 0.08 0.015 0 0.1 0.015 0 0 0.02 0 0.02 0.02 0 0.04 0.02 0 0.06 0.02 0 0.08 0.02 0 0.1 0.02 0 0 0.025 0 0.02 0.025 0 0.04 0.025 0 0.06 0.025 0 0.08 0.025 0 0.1 0.025 0 0 0.03 0 0.02 0.03 0 0.04 0.03 0 0.06 0.03 0 0.08 0.03 0 0.1 0.03 0 0 0.035 0 0.02 0.035 0 0.04 0.035 0 0.06 0.035 0 0.08 0.035 0 0.1 0.035 0 0 0.04 0 0.02 0.04 0 0.04 0.04 0 0.06 0.04 0 0.08 0.04 0 0.1 0.04 0 0 0.045 0 0.02 0.045 0 0.04 0.045 0 0.06 0.045 0 0.08 0.045 0 0.1 0.045 0 0 0.05 0 0.02 0.05 0 0.04 0.05 0 0.06 0.05 0 0.08 0.05 0 0.1 0.05 0 0 0.055 0 0.02 0.055 0 0.04 0.055 0 0.06 0.055 0 0.08 0.055 0 0.1 0.055 0 0 0.06 0 0.02 0.06 0 0.04 0.06 0 0.06 0.06 0 0.08 0.06 0 0.1 0.06 0 0 0.065 0 0.02 0.065 0 0.04 0.065 0 0.06 0.065 0 0.08 0.065 0 0.1 0.065 0 0 0.07 0 0.02 0.07 0 0.04 0.07 0 0.06 0.07 0 0.08 0.07 0 0.1 0.07 0 0 0.075 0 0.02 0.075 0 0.04 0.075 0 0.06 0.075 0 0.08 0.075 0 0.1 0.075 0 0 0.08 0 0.02 0.08 0 0.04 0.08 0 0.06 0.08 0 0.08 0.08 0 0.1 0.08 0 0 0.085 0 0.02 0.085 0 0.04 0.085 0 0.06 0.085 0 0.08 0.085 0 0.1 0.085 0 0 0.09 0 0.02 0.09 0 0.04 0.09 0 0.06 0.09 0 0.08 0.09 0 0.1 0.09 0 0 0.095 0 0.02 0.095 0 0.04 0.095 0 0.06 0.095 0 0.08 0.095 0 0.1 0.095 0 0 0.1 0 0.02 0.1 0 0.04 0.1 0 0.06 0.1 0 0.08 0.1 0 0.1 0.1 0 0 0.105 0 0.02 0.105 0 0.04 0.105 0 0.06 0.105 0 0.08 0.105 0 0.1 0.105 0 0 0.11 0 0.02 0.11 0 0.04 0.11 0 0.06 0.11 0 0.08 0.11 0 0.1 0.11 0 0 0.115 0 0.02 0.115 0 0.04 0.115 0 0.06 0.115 0 0.08 0.115 0 0.1 0.115 0 0 0.12 0 0.02 0.12 0 0.04 0.12 0 0.06 0.12 0 0.08 0.12 0 0.1 0.12 0 0 0.125 0 0.02 0.125 0 0.04 0.125 0 0.06 0.125 0 0.08 0.125 0 0.1 0.125 0 0 0.13 0 0.02 0.13 0 0.04 0.13 0 0.06 0.13 0 0.08 0.13 0 0.1 0.13 0 0 0.135 0 0.02 0.135 0 0.04 0.135 0 0.06 0.135 0 0.08 0.135 0 0.1 0.135 0 0 0.14 0 0.02 0.14 0 0.04 0.14 0 0.06 0.14 0 0.08 0.14 0 0.1 0.14 0 0 0.145 0 0.02 0.145 0 0.04 0.145 0 0.06 0.145 0 0.08 0.145 0 0.1 0.145 0 0 0.15 0 0.02 0.15 0 0.04 0.15 0 0.06 0.15 0 0.08 0.15 0 0.1 0.15 0 0 0.155 0 0.02 0.155 0 0.04 0.155 0 0.06 0.155 0 0.08 0.155 0 0.1 0.155 0 0 0.16 0 0.02 0.16 0 0.04 0.16 0 0.06 0.16 0 0.08 0.16 0 0.1 0.16 0 0 0.165 0 0.02 0.165 0 0.04 0.165 0 0.06 0.165 0 0.08 0.165 0 0.1 0.165 0 0 0.17 0 0.02 0.17 0 0.04 0.17 0 0.06 0.17 0 0.08 0.17 0 0.1 0.17 0 0 0.175 0 0.02 0.175 0 0.04 0.175 0 0.06 0.175 0 0.08 0.175 0 0.1 0.175 0 0 0.18 0 0.02 0.18 0 0.04 0.18 0 0.06 0.18 0 0.08 0.18 0 0.1 0.18 0 0 0.185 0 0.02 0.185 0 0.04 0.185 0 0.06 0.185 0 0.08 0.185 0 0.1 0.185 0 0 0.19 0 0.02 0.19 0 0.04 0.19 0 0.06 0.19 0 0.08 0.19 0 0.1 0.19 0 0 0.195 0 0.02 0.195 0 0.04 0.195 0 0.06 0.195 0 0.08 0.195 0 0.1 0.195 0 0 0.2 0 0.02 0.2 0 0.04 0.2 0 0.06 0.2 0 0.08 0.2 0 0.1 0.2 0 0 0.205 0 0.02 0.205 0 0.04 0.205 0 0.06 0.205 0 0.08 0.205 0 0.1 0.205 0 0 0.21 0 0.02 0.21 0 0.04 0.21 0 0.06 0.21 0 0.08 0.21 0 0.1 0.21 0 0 0.215 0 0.02 0.215 0 0.04 0.215 0 0.06 0.215 0 0.08 0.215 0 0.1 0.215 0 0 0.22 0 0.02 0.22 0 0.04 0.22 0 0.06 0.22 0 0.08 0.22 0 0.1 0.22 0 0 0.225 0 0.02 0.225 0 0.04 0.225 0 0.06 0.225 0 0.08 0.225 0 0.1 0.225 0 0 0.23 0 0.02 0.23 0 0.04 0.23 0 0.06 0.23 0 0.08 0.23 0 0.1 0.23 0 0 0.235 0 0.02 0.235 0 0.04 0.235 0 0.06 0.235 0 0.08 0.235 0 0.1 0.235 0 0 0.24 0 0.02 0.24 0 0.04 0.24 0 0.06 0.24 0 0.08 0.24 0 0.1 0.24 0 0 0.245 0 0.02 0.245 0 0.04 0.245 0 0.06 0.245 0 0.08 0.245 0 0.1 0.245 0 0 0.25 0 0.02 0.25 0 0.04 0.25 0 0.06 0.25 0 0.08 0.25 0 0.1 0.25 0 0 0.255 0 0.02 0.255 0 0.04 0.255 0 0.06 0.255 0 0.08 0.255 0 0.1 0.255 0 0 0.26 0 0.02 0.26 0 0.04 0.26 0 0.06 0.26 0 0.08 0.26 0 0.1 0.26 0 0 0.265 0 0.02 0.265 0 0.04 0.265 0 0.06 0.265 0 0.08 0.265 0 0.1 0.265 0 0 0.27 0 0.02 0.27 0 0.04 0.27 0 0.06 0.27 0 0.08 0.27 0 0.1 0.27 0 0 0.275 0 0.02 0.275 0 0.04 0.275 0 0.06 0.275 0 0.08 0.275 0 0.1 0.275 0 0 0.28 0 0.02 0.28 0 0.04 0.28 0 0.06 0.28 0 0.08 0.28 0 0.1 0.28 0 0 0.285 0 0.02 0.285 0 0.04 0.285 0 0.06 0.285 0 0.08 0.285 0 0.1 0.285 0 0 0.29 0 0.02 0.29 0 0.04 0.29 0 0.06 0.29 0 0.08 0.29 0 0.1 0.29 0 0 0.295 0 0.02 0.295 0 0.04 0.295 0 0.06 0.295 0 0.08 0.295 0 0.1 0.295 0 0 0.3 0 0.02 0.3 0 0.04 0.3 0 0.06 0.3 0 0.08 0.3 0 0.1 0.3 0 0 0.305 0 0.02 0.305 0 0.04 0.305 0 0.06 0.305 0 0.08 0.305 0 0.1 0.305 0 0 0.31 0 0.02 0.31 0 0.04 0.31 0 0.06 0.31 0 0.08 0.31 0 0.1 0.31 0 0 0.315 0 0.02 0.315 0 0.04 0.315 0 0.06 0.315 0 0.08 0.315 0 0.1 0.315 0 0 0.32 0 0.02 0.32 0 0.04 0.32 0 0.06 0.32 0 0.08 0.32 0 0.1 0.32 0 0 0.325 0 0.02 0.325 0 0.04 0.325 0 0.06 0.325 0 0.08 0.325 0 0.1 0.325 0 0 0.33 0 0.02 0.33 0 0.04 0.33 0 0.06 0.33 0 0.08 0.33 0 0.1 0.33 0 0 0.335 0 0.02 0.335 0 0.04 0.335 0 0.06 0.335 0 0.08 0.335 0 0.1 0.335 0 0 0.34 0 0.02 0.34 0 0.04 0.34 0 0.06 0.34 0 0.08 0.34 0 0.1 0.34 0 0 0.345 0 0.02 0.345 0 0.04 0.345 0 0.06 0.345 0 0.08 0.345 0 0.1 0.345 0 0 0.35 0 0.02 0.35 0 0.04 0.35 0 0.06 0.35 0 0.08 0.35 0 0.1 0.35 0 0 0.355 0 0.02 0.355 0 0.04 0.355 0 0.06 0.355 0 0.08 0.355 0 0.1 0.355 0 0 0.36 0 0.02 0.36 0 0.04 0.36 0 0.06 0.36 0 0.08 0.36 0 0.1 0.36 0 0 0.365 0 0.02 0.365 0 0.04 0.365 0 0.06 0.365 0 0.08 0.365 0 0.1 0.365 0 0 0.37 0 0.02 0.37 0 0.04 0.37 0 0.06 0.37 0 0.08 0.37 0 0.1 0.37 0 0 0.375 0 0.02 0.375 0 0.04 0.375 0 0.06 0.375 0 0.08 0.375 0 0.1 0.375 0 0 0.38 0 0.02 0.38 0 0.04 0.38 0 0.06 0.38 0 0.08 0.38 0 0.1 0.38 0 0 0.385 0 0.02 0.385 0 0.04 0.385 0 0.06 0.385 0 0.08 0.385 0 0.1 0.385 0 0 0.39 0 0.02 0.39 0 0.04 0.39 0 0.06 0.39 0 0.08 0.39 0 0.1 0.39 0 0 0.395 0 0.02 0.395 0 0.04 0.395 0 0.06 0.395 0 0.08 0.395 0 0.1 0.395 0 0 0.4 0 0.02 0.4 0 0.04 0.4 0 0.06 0.4 0 0.08 0.4 0 0.1 0.4 0 0 0.405 0 0.02 0.405 0 0.04 0.405 0 0.06 0.405 0 0.08 0.405 0 0.1 0.405 0 0 0.41 0 0.02 0.41 0 0.04 0.41 0 0.06 0.41 0 0.08 0.41 0 0.1 0.41 0 0 0.415 0 0.02 0.415 0 0.04 0.415 0 0.06 0.415 0 0.08 0.415 0 0.1 0.415 0 0 0.42 0 0.02 0.42 0 0.04 0.42 0 0.06 0.42 0 0.08 0.42 0 0.1 0.42 0 0 0.425 0 0.02 0.425 0 0.04 0.425 0 0.06 0.425 0 0.08 0.425 0 0.1 0.425 0 0 0.43 0 0.02 0.43 0 0.04 0.43 0 0.06 0.43 0 0.08 0.43 0 0.1 0.43 0 0 0.435 0 0.02 0.435 0 0.04 0.435 0 0.06 0.435 0 0.08 0.435 0 0.1 0.435 0 0 0.44 0 0.02 0.44 0 0.04 0.44 0 0.06 0.44 0 0.08 0.44 0 0.1 0.44 0 0 0.445 0 0.02 0.445 0 0.04 0.445 0 0.06 0.445 0 0.08 0.445 0 0.1 0.445 0 0 0.45 0 0.02 0.45 0 0.04 0.45 0 0.06 0.45 0 0.08 0.45 0 0.1 0.45 0 0 0.455 0 0.02 0.455 0 0.04 0.455 0 0.06 0.455 0 0.08 0.455 0 0.1 0.455 0 0 0.46 0 0.02 0.46 0 0.04 0.46 0 0.06 0.46 0 0.08 0.46 0 0.1 0.46 0 0 0.465 0 0.02 0.465 0 0.04 0.465 0 0.06 0.465 0 0.08 0.465 0 0.1 0.465 0 0 0.47 0 0.02 0.47 0 0.04 0.47 0 0.06 0.47 0 0.08 0.47 0 0.1 0.47 0 0 0.475 0 0.02 0.475 0 0.04 0.475 0 0.06 0.475 0 0.08 0.475 0 0.1 0.475 0 0 0.48 0 0.02 0.48 0 0.04 0.48 0 0.06 0.48 0 0.08 0.48 0 0.1 0.48 0 0 0.485 0 0.02 0.485 0 0.04 0.485 0 0.06 0.485 0 0.08 0.485 0 0.1 0.485 0 0 0.49 0 0.02 0.49 0 0.04 0.49 0 0.06 0.49 0 0.08 0.49 0 0.1 0.49 0 0 0.495 0 0.02 0.495 0 0.04 0.495 0 0.06 0.495 0 0.08 0.495 0 0.1 0.495 0 0 0.5 0 0.02 0.5 0 0.04 0.5 0 0.06 0.5 0 0.08 0.5 0 0.1 0.5 0 0 0.505 0 0.02 0.505 0 0.04 0.505 0 0.06 0.505 0 0.08 0.505 0 0.1 0.505 0 0 0.51 0 0.02 0.51 0 0.04 0.51 0 0.06 0.51 0 0.08 0.51 0 0.1 0.51 0 0 0.515 0 0.02 0.515 0 0.04 0.515 0 0.06 0.515 0 0.08 0.515 0 0.1 0.515 0 0 0.52 0 0.02 0.52 0 0.04 0.52 0 0.06 0.52 0 0.08 0.52 0 0.1 0.52 0 0 0.525 0 0.02 0.525 0 0.04 0.525 0 0.06 0.525 0 0.08 0.525 0 0.1 0.525 0 0 0.53 0 0.02 0.53 0 0.04 0.53 0 0.06 0.53 0 0.08 0.53 0 0.1 0.53 0 0 0.535 0 0.02 0.535 0 0.04 0.535 0 0.06 0.535 0 0.08 0.535 0 0.1 0.535 0 0 0.54 0 0.02 0.54 0 0.04 0.54 0 0.06 0.54 0 0.08 0.54 0 0.1 0.54 0 0 0.545 0 0.02 0.545 0 0.04 0.545 0 0.06 0.545 0 0.08 0.545 0 0.1 0.545 0 0 0.55 0 0.02 0.55 0 0.04 0.55 0 0.06 0.55 0 0.08 0.55 0 0.1 0.55 0 0 0.555 0 0.02 0.555 0 0.04 0.555 0 0.06 0.555 0 0.08 0.555 0 0.1 0.555 0 0 0.56 0 0.02 0.56 0 0.04 0.56 0 0.06 0.56 0 0.08 0.56 0 0.1 0.56 0 0 0.565 0 0.02 0.565 0 0.04 0.565 0 0.06 0.565 0 0.08 0.565 0 0.1 0.565 0 0 0.57 0 0.02 0.57 0 0.04 0.57 0 0.06 0.57 0 0.08 0.57 0 0.1 0.57 0 0 0.575 0 0.02 0.575 0 0.04 0.575 0 0.06 0.575 0 0.08 0.575 0 0.1 0.575 0 0 0.58 0 0.02 0.58 0 0.04 0.58 0 0.06 0.58 0 0.08 0.58 0 0.1 0.58 0 0 0.585 0 0.02 0.585 0 0.04 0.585 0 0.06 0.585 0 0.08 0.585 0 0.1 0.585 0 0 0.59 0 0.02 0.59 0 0.04 0.59 0 0.06 0.59 0 0.08 0.59 0 0.1 0.59 0 0 0.595 0 0.02 0.595 0 0.04 0.595 0 0.06 0.595 0 0.08 0.595 0 0.1 0.595 0 0 0.6 0 0.02 0.6 0 0.04 0.6 0 0.06 0.6 0 0.08 0.6 0 0.1 0.6 0 0 0.605 0 0.02 0.605 0 0.04 0.605 0 0.06 0.605 0 0.08 0.605 0 0.1 0.605 0 0 0.61 0 0.02 0.61 0 0.04 0.61 0 0.06 0.61 0 0.08 0.61 0 0.1 0.61 0 0 0.615 0 0.02 0.615 0 0.04 0.615 0 0.06 0.615 0 0.08 0.615 0 0.1 0.615 0 0 0.62 0 0.02 0.62 0 0.04 0.62 0 0.06 0.62 0 0.08 0.62 0 0.1 0.62 0 0 0.625 0 0.02 0.625 0 0.04 0.625 0 0.06 0.625 0 0.08 0.625 0 0.1 0.625 0 0 0.63 0 0.02 0.63 0 0.04 0.63 0 0.06 0.63 0 0.08 0.63 0 0.1 0.63 0 0 0.635 0 0.02 0.635 0 0.04 0.635 0 0.06 0.635 0 0.08 0.635 0 0.1 0.635 0 0 0.64 0 0.02 0.64 0 0.04 0.64 0 0.06 0.64 0 0.08 0.64 0 0.1 0.64 0 0 0.645 0 0.02 0.645 0 0.04 0.645 0 0.06 0.645 0 0.08 0.645 0 0.1 0.645 0 0 0.65 0 0.02 0.65 0 0.04 0.65 0 0.06 0.65 0 0.08 0.65 0 0.1 0.65 0 0 0.655 0 0.02 0.655 0 0.04 0.655 0 0.06 0.655 0 0.08 0.655 0 0.1 0.655 0 0 0.66 0 0.02 0.66 0 0.04 0.66 0 0.06 0.66 0 0.08 0.66 0 0.1 0.66 0 0 0.665 0 0.02 0.665 0 0.04 0.665 0 0.06 0.665 0 0.08 0.665 0 0.1 0.665 0 0 0.67 0 0.02 0.67 0 0.04 0.67 0 0.06 0.67 0 0.08 0.67 0 0.1 0.67 0 0 0.675 0 0.02 0.675 0 0.04 0.675 0 0.06 0.675 0 0.08 0.675 0 0.1 0.675 0 0 0.68 0 0.02 0.68 0 0.04 0.68 0 0.06 0.68 0 0.08 0.68 0 0.1 0.68 0 0 0.685 0 0.02 0.685 0 0.04 0.685 0 0.06 0.685 0 0.08 0.685 0 0.1 0.685 0 0 0.69 0 0.02 0.69 0 0.04 0.69 0 0.06 0.69 0 0.08 0.69 0 0.1 
[...]
			<PointData Scalars="VitesseX">
				<DataArray Name="VitesseX" type="Float32" format="ascii">
 0 4.78466e-14 5.40927e-15 1.86592e-14 2.88342e-14 0 0 3.58734e-14 2.02949e-14 1.05267e-14 2.59297e-14 0 0 3.06798e-14 2.2181e-14 2.2745e-14 1.01165e-15 0 0 1.14767e-14 4.80586e-14 1.20828e-14 -8.94155e-15 0 0 1.05488e-14 5.79755e-14 -3.96435e-16 -5.82763e-15 0 0 4.64216e-14 2.26686e-14 1.52039e-14 -6.85653e-15 0 0 5.96893e-14 6.54452e-15 2.63121e-14 -1.11093e-14 0 0 5.69602e-14 8.34905e-15 2.57874e-14 -1.57449e-14 0 0 4.31873e-14 3.78356e-14 -1.64253e-14 1.41088e-14 0 0 3.1788e-14 5.3479e-14 -4.20759e-14 4.11823e-14 0 0 1.50826e-14 7.81258e-14 -5.32808e-14 4.33682e-14 0 0 3.05749e-14 5.66172e-14 -4.03304e-15 -4.03555e-15 0 0 1.49572e-14 7.42135e-14 9.41538e-15 -2.33487e-14 0 0 2.78699e-14 5.59977e-14 3.70038e-14 -3.10714e-14 0 0 5.42385e-14 2.55686e-14 5.43042e-14 -1.93158e-14 0 0 1.86677e-14 7.03094e-14 1.28836e-14 7.4906e-15 0 0 3.58523e-14 3.72833e-14 4.02968e-14 -7.72109e-15 0 0 4.12584e-14 4.15873e-14 2.36155e-15 3.35697e-14 0 0 1.9248e-14 6.67677e-14 -4.04388e-14 8.46365e-14 0 0 1.35718e-14 6.54351e-14 -1.46163e-14 8.14552e-14 0 0 3.68962e-14 3.04169e-14 4.26569e-14 5.56043e-14 0 0 4.8814e-14 3.81743e-14 4.39187e-14 4.94472e-14 0 0 6.94406e-14 4.11478e-14 4.68176e-14 4.43707e-14 0 0 8.56365e-14 4.22951e-14 4.24989e-14 6.5753e-14 0 0 5.55815e-14 1.11173e-13 1.32534e-14 6.65195e-14 0 0 6.35178e-14 9.84079e-14 5.47146e-14 2.66375e-14 0 0 7.51225e-14 9.00474e-14 4.83775e-14 3.46598e-14 0 0 6.74842e-14 1.06675e-13 3.32726e-14 3.54417e-14 0 0 5.63657e-14 1.08638e-13 2.69439e-14 3.33156e-14 0 0 6.57756e-14 8.23911e-14 3.86899e-14 1.8269e-14 0 0 1.17625e-13 -9.90262e-15 1.34131e-13 -7.45608e-14 0 0 8.57219e-14 3.86565e-14 6.06037e-14 -2.61013e-14 0 0 5.83228e-14 7.60838e-14 -9.64925e-15 5.35245e-14 0 0 9.91614e-14 -1.23152e-14 9.07109e-14 5.02122e-15 0 0 5.2026e-14 7.50065e-14 -4.36724e-14 1.20428e-13 0 0 1.16219e-13 -1.76611e-15 3.08757e-15 8.459e-14 0 0 1.26432e-13 8.71166e-15 3.01072e-14 8.19713e-15 0 0 7.0765e-14 1.32964e-13 -1.00209e-13 5.6696e-14 0 0 3.36172e-14 1.84124e-13 -1.18934e-13 8.76873e-14 0 0 4.44052e-14 1.6623e-13 -3.38011e-14 3.67029e-14 0 0 1.54814e-13 4.39396e-14 1.20699e-13 -9.11775e-14 0 0 1.77345e-13 6.65445e-14 9.12564e-14 -6.8102e-14 0 0 2.4067e-13 1.45109e-14 7.90025e-14 -1.88519e-14 0 0 2.55548e-13 4.07494e-14 1.21148e-14 3.08923e-14 0 0 1.96446e-13 9.21609e-14 1.79674e-14 1.34227e-15 0 0 1.70418e-13 9.73211e-14 3.46752e-14 2.28661e-14 0 0 1.20268e-13 1.93724e-13 -1.23088e-13 2.08829e-13 0 0 1.5018e-13 1.20905e-13 -1.14636e-13 3.06829e-13 0 0 2.15369e-13 -3.63303e-14 1.31726e-14 3.01571e-13 0 0 2.88403e-13 -2.43842e-13 2.54277e-13 1.54152e-13 0 0 2.98735e-13 -3.2041e-13 3.78672e-13 4.013e-14 0 0 1.61515e-13 -7.07239e-14 1.30867e-13 1.78913e-13 0 0 2.09385e-13 -1.00587e-13 1.28907e-13 1.82094e-13 0 0 1.53773e-13 3.40652e-14 -2.20284e-14 2.229e-13 0 0 8.41375e-14 1.81528e-13 -2.11328e-13 3.11153e-13 0 0 2.28431e-13 -6.82764e-14 -1.29416e-14 2.35425e-13 0 0 1.07808e-13 9.80922e-14 -1.64253e-13 3.34779e-13 0 0 1.35427e-13 8.16426e-14 -7.07762e-14 2.07166e-13 0 0 2.17385e-13 -3.0059e-15 5.88603e-14 1.19144e-13 0 0 1.04965e-13 1.45949e-13 -7.83855e-14 2.26977e-13 0 0 8.48798e-14 1.60022e-13 -8.34197e-14 2.16793e-13 0 0 1.44698e-13 1.13154e-13 -4.37117e-14 1.5426e-13 0 0 2.41509e-13 -1.95222e-14 1.1918e-13 -4.10148e-14 0 0 2.16191e-13 -3.27639e-15 1.24451e-13 -7.06572e-14 0 0 1.69489e-13 4.94798e-14 8.49887e-14 -4.99857e-14 0 0 1.81481e-13 5.93432e-14 6.1227e-14 -6.10272e-14 0 0 1.48928e-13 1.34045e-13 -4.39576e-14 3.61848e-14 0 0 1.92042e-13 5.65257e-14 6.16963e-14 -2.57785e-15 0 0 2.29783e-13 -9.71513e-15 1.35053e-13 1.26331e-14 0 0 1.85347e-13 7.04303e-14 4.75859e-15 2.01123e-13 0 0 3.16479e-13 -1.11516e-13 1.11363e-13 2.15268e-13 0 0 2.30816e-13 7.51545e-14 -3.69266e-14 2.83992e-13 0 0 2.31692e-13 1.8311e-13 -1.14141e-15 1.7728e-13 0 0 2.69196e-13 2.37397e-13 -5.0393e-14 2.21946e-13 0 0 3.9261e-13 4.33233e-14 7.68791e-14 2.49211e-13 0 0 3.65022e-13 -6.34353e-14 2.84771e-13 1.78128e-13 0 0 -9.44142e-15 4.12214e-13 -5.95108e-14 3.95895e-13 0 0 2.63516e-13 2.78314e-14 3.3452e-13 2.39492e-13 0 0 2.01752e-13 1.42056e-13 2.79517e-13 3.33569e-13 0 0 3.6852e-13 -1.00259e-13 5.65049e-13 4.62876e-14 0 0 4.39221e-13 7.0429e-14 2.87801e-13 1.31597e-13 0 0 -1.19006e-14 8.24646e-13 -3.56686e-13 4.95954e-13 0 0 2.58688e-13 1.3886e-13 6.53918e-13 -2.10808e-13 0 0 5.43118e-14 4.38859e-13 4.70352e-13 -1.3117e-14 0 0 -2.48993e-13 1.25261e-12 -2.81336e-13 5.27224e-13 0 0 3.46327e-13 6.67637e-13 2.50424e-13 1.9505e-13 0 0 8.74885e-13 2.60333e-14 6.54969e-13 8.07659e-14 0 0 7.02844e-13 3.7762e-13 3.60603e-13 2.22551e-13 0 0 4.39059e-13 6.99196e-13 3.56076e-13 -2.07917e-14 0 0 1.3691e-13 7.74376e-13 7.23246e-13 -5.51528e-13 0 0 -1.67968e-13 8.55765e-13 6.94425e-13 -4.99361e-13 0 0 -1.86505e-13 9.11966e-13 4.45079e-13 -1.68444e-13 0 0 2.02277e-13 5.28831e-13 3.79976e-13 1.84511e-13 0 0 6.4277e-13 2.25795e-13 2.04686e-13 4.45916e-13 0 0 6.53074e-13 3.44501e-13 -5.9418e-14 5.26663e-13 0 0 6.47517e-13 2.91827e-13 -6.5997e-16 3.40445e-13 0 0 5.26799e-13 7.59701e-14 3.74295e-13 -1.17901e-13 0 0 4.4191e-13 2.62806e-14 4.88965e-13 -1.68001e-13 0 0 5.25176e-13 -1.0171e-13 4.29553e-13 2.87312e-14 0 0 6.15637e-13 -2.2409e-13 2.85379e-13 3.44183e-13 0 0 4.85466e-13 -7.58028e-14 -1.35545e-13 7.7077e-13 0 0 1.24654e-13 2.63887e-13 -5.42432e-13 1.02163e-12 0 0 -2.19885e-13 4.22662e-13 -5.38475e-13 9.58166e-13 0 0 -2.70955e-13 3.45877e-13 -3.23118e-13 6.67355e-13 0 0 6.73279e-15 -2.80569e-14 5.71148e-14 3.5929e-13 0 0 4.07958e-13 -3.51738e-13 2.66189e-13 2.688e-13 0 0 4.90304e-13 -3.78903e-13 3.10021e-13 2.4391e-13 0 0 3.88409e-13 -2.6764e-13 3.49141e-13 1.95168e-13 0 0 2.12363e-13 -1.89574e-13 4.53515e-13 4.97351e-14 0 0 1.27707e-13 -1.60691e-13 4.98655e-13 4.19691e-14 0 0 7.67629e-14 -1.28283e-13 4.76184e-13 8.55949e-14 0 0 3.5867e-14 -7.93156e-14 4.21227e-13 1.55197e-13 0 0 2.50462e-14 -1.43937e-14 3.48358e-13 1.9246e-13 0 0 1.24132e-14 4.2028e-15 3.65417e-13 1.41801e-13 0 0 -5.82614e-15 4.86119e-14 3.26365e-13 1.70149e-13 0 0 -1.31754e-14 1.38073e-13 2.37581e-13 1.56898e-13 0 0 4.81535e-15 1.42742e-13 2.24434e-13 1.35462e-13 0 0 6.34935e-14 1.06967e-13 2.57822e-13 6.7541e-14 0 0 9.87055e-14 1.18353e-13 2.38549e-13 -3.6697e-14 0 0 1.31764e-13 1.35189e-13 1.48491e-13 -4.2649e-14 0 0 1.6395e-13 1.42436e-13 5.48857e-14 -3.51656e-14 0 0 1.58262e-13 1.65525e-13 -6.01533e-14 -2.51837e-14 0 0 1.27573e-13 1.4817e-13 -2.92116e-14 -9.11778e-14 0 0 1.08394e-13 1.04036e-13 7.18644e-14 -1.63137e-13 0 0 7.49763e-14 1.31704e-13 4.79105e-14 -6.62124e-14 0 0 7.39836e-14 1.51246e-13 9.41122e-14 -5.66377e-14 0 0 1.21003e-13 1.12477e-13 1.69625e-13 -1.20474e-13 0 0 1.61047e-13 1.6983e-13 1.15867e-13 -5.35614e-14 0 0 1.60573e-13 1.86382e-13 1.52851e-13 -2.07143e-15 0 0 1.31007e-13 2.30127e-13 1.77029e-13 7.93003e-14 0 0 1.31836e-13 2.3522e-13 2.16461e-13 9.34245e-14 0 0 2.61224e-13 4.98142e-14 3.53959e-13 3.36296e-14 0 0 2.98217e-13 1.81226e-14 3.75083e-13 5.36524e-14 0 0 2.39108e-13 1.32934e-13 3.23136e-13 4.86275e-14 0 0 1.87688e-13 2.4811e-13 2.31503e-13 1.29439e-13 0 0 2.05951e-13 2.38383e-13 3.09796e-13 1.15787e-13 0 0 2.45975e-13 1.76587e-13 4.91558e-13 -1.64667e-14 0 0 2.68919e-13 2.55353e-13 3.64596e-13 1.13709e-13 0 0 3.05064e-13 3.12036e-13 2.42076e-13 2.33326e-13 0 0 3.24911e-13 2.9565e-13 2.69309e-13 2.23695e-13 0 0 3.2091e-13 3.70749e-13 1.57988e-13 2.91195e-13 0 0 3.77008e-13 3.66008e-13 1.62354e-13 2.84539e-13 0 0 4.02963e-13 3.53651e-13 2.3244e-13 2.07764e-13 0 0 4.76674e-13 2.81625e-13 2.93097e-13 1.4127e-13 0 0 4.77629e-13 3.31902e-13 1.56233e-13 2.95796e-13 0 0 2.88807e-13 6.49264e-13 -2.86105e-13 6.95298e-13 0 0 4.40151e-13 3.39033e-13 1.14393e-14 5.0486e-13 0 0 5.79354e-13 7.01041e-14 3.31582e-13 2.03236e-13 0 0 5.10989e-13 1.76734e-13 2.04861e-13 2.00398e-13 0 0 3.04547e-13 5.08424e-13 -7.97828e-14 2.46422e-13 0 0 2.6447e-13 6.24655e-13 -1.99717e-13 2.84526e-13 0 0 6.67422e-13 1.68376e-14 3.2753e-13 1.06015e-13 0 0 7.64954e-13 -1.74941e-13 5.10585e-13 6.70295e-14 0 0 5.45125e-13 1.02738e-13 3.2165e-13 6.43795e-14 0 0 2.65263e-13 5.29954e-13 -5.27914e-15 8.75753e-14 0 0 3.77812e-13 4.53782e-13 -1.69036e-14 1.74371e-13 0 0 7.00729e-13 -5.2198e-14 4.93298e-13 -6.69144e-14 0 0 5.40635e-13 5.16054e-14 5.19462e-13 -6.79405e-14 0 0 2.21816e-13 4.41068e-13 1.88286e-13 2.94066e-13 0 0 -2.71269e-13 1.11329e-12 -3.90902e-13 8.38828e-13 0 0 -8.42081e-14 7.08343e-13 4.32514e-14 7.95496e-13 0 0 5.85381e-13 -4.79846e-13 1.35608e-12 -4.7977e-14 0 0 6.49317e-13 -5.13227e-13 1.34753e-12 5.40725e-14 0 0 4.02799e-13 -7.20176e-14 6.6928e-13 7.24109e-13 0 0 -2.34386e-13 7.29854e-13 1.93593e-14 9.49484e-13 0 0 -4.8601e-13 9.58968e-13 -2.42446e-14 7.1202e-13 0 0 -3.60459e-14 2.0656e-13 5.86539e-13 2.76586e-13 0 0 3.55463e-13 -3.81403e-13 9.88452e-13 7.98142e-14 0 0 4.81256e-13 -5.54422e-13 1.15971e-12 -4.39507e-14 0 0 1.96231e-13 -1.71503e-13 1.03532e-12 -1.62654e-13 0 0 -1.77794e-13 4.43783e-13 4.89478e-13 1.60189e-13 0 0 -7.73483e-14 4.11286e-13 3.1663e-13 3.28394e-13 0 0 9.45955e-14 1.91877e-13 3.38273e-13 3.22105e-13 0 0 1.59997e-13 1.47214e-13 2.36533e-13 4.16637e-13 0 0 2.32872e-13 4.37867e-14 1.98278e-13 4.44782e-13 0 0 1.98717e-13 3.85243e-14 1.73776e-13 4.48171e-13 0 0 -9.14468e-14 3.28944e-13 2.21769e-13 2.6773e-13 0 0 -2.65224e-13 4.07854e-13 4.32837e-13 3.53583e-14 0 0 1.95747e-13 -1.52421e-13 7.98181e-13 -1.0914e-13 0 0 3.79899e-13 -1.45008e-13 4.7257e-13 2.14857e-13 0 0 1.34369e-13 2.33799e-13 4.92873e-14 4.99043e-13 0 0 -5.91349e-14 4.73713e-13 -2.99412e-13 8.25075e-13 0 0 -1.0574e-13 4.37999e-13 -1.62304e-13 7.33689e-13 0 0 2.97496e-13 -8.59578e-14 5.14329e-13 2.57243e-13 0 0 4.93131e-13 -1.41332e-13 4.91976e-13 3.6533e-13 0 0 2.42931e-13 2.56346e-13 2.12462e-13 4.8658e-13 0 0 5.99069e-14 5.07749e-13 1.56955e-13 3.33481e-13 0 0 1.65459e-13 5.17176e-13 7.18088e-14 2.32424e-13 0 0 5.76578e-13 -4.97484e-14 5.75123e-13 -1.1104e-13 0 0 6.63169e-13 -1.75765e-13 8.26257e-13 -3.8056e-13 0 0 5.1573e-13 3.37728e-13 1.10548e-13 8.98199e-15 0 0 5.59162e-13 3.9931e-13 -2.48959e-13 4.34735e-13 0 0 6.08085e-13 2.27281e-13 -3.95781e-14 4.1451e-13 0 0 6.50935e-13 -1.80764e-14 2.33397e-13 2.83414e-13 0 0 4.32006e-13 2.70534e-13 -1.31947e-13 5.81837e-13 0 0 1.2044e-13 9.02417e-13 -9.09146e-13 1.17599e-12 0 0 5.11315e-13 4.5175e-13 -6.80427e-13 1.18541e-12 0 0 1.10554e-12 -4.15444e-13 -2.80662e-14 9.62379e-13 0 0 1.02469e-12 -3.01905e-13 -7.39488e-14 9.92966e-13 0 0 2.10522e-13 9.2067e-13 -8.32478e-13 1.28216e-12 0 0 -3.69267e-13 1.77825e-12 -1.44649e-12 1.62648e-12 0
				</DataArray>
				<DataArray Name="VitesseY" type="Float32" format="ascii">