<?xml version="1.0"?>
<VTKFile type="PolyData">
	<PolyData>
		<Piece NumberOfPoints="1206" NumberOfPolys="1000">
			<Points>
				<DataArray type="Float32" NumberOfComponents="3" format="ascii">
 0 0 0 0.02 0 0 0.04 0 0 0.06 0 0 0.08 0 0 0.1 0 0 0 0.005 0 0.02 0.005 0 0.04 0.005 0 0.06 0.005 0 0.08 0.005 0 0.1 0.005 0 0 0.01 0 0.02 0.01 0 0.04 0.01 0 0.06 0.01 0 0.08 0.01 0 0.1 0.01 0 0 0.015 0 0.02 0.015 0 0.04 0.015 0 0.06 0.015 0 0.08 0.015 0 0.1 0.015 0 0 0.02 0 0.02 0.02 0 0.04 0.02 0 0.06 0.02 0 0.08 0.02 0 0.1 0.02 0 0 0.025 0 0.02 0.025 0 0.04 0.025 0 0.06 0.025 0 0.08 0.025 0 0.1 0.025 0 0 0.03 0 0.02 0.03 0 0.04 0.03 0 0.06 0.03 0 0.08 0.03 0 0.1 0.03 0 0 0.035 0 0.02 0.035 0 0.04 0.035 0 0.06 0.035 0 0.08 0.035 0 0.1 0.035 0 0 0.04 0 0.02 0.04 0 0.04 0.04 0 0.06 0.04 0 0.08 0.04 0 0.1 0.04 0 0 0.045 0 0.02 0.045 0 0.04 0.045 0 0.06 0.045 0 0.08 0.045 0 0.1 0.045 0 0 0.05 0 0.02 0.05 0 0.04 0.05 0 0.06 0.05 0 0.08 0.05 0 0.1 0.05 0 0 0.055 0 0.02 0.055 0 0.04 0.055 0 0.06 0.055 0 0.08 0.055 0 0.1 0.055 0 0 0.06 0 0.02 0.06 0 0.04 0.06 0 0.06 0.06 0 0.08 0.06 0 0.1 0.06 0 0 0.065 0 0.02 0.065 0 0.04 0.065 0 0.06 0.065 0 0.08 0.065 0 0.1 0.065 0 0 0.07 0 0.02 0.07 0 0.04 0.07 0 0.06 0.07 0 0.08 0.07 0 0.1 0.07 0 0 0.075 0 0.02 0.075 0 0.04 0.075 0 0.06 0.075 0 0.08 0.075 0 0.1 0.075 0 0 0.08 0 0.02 0.08 0 0.04 0.08 0 0.06 0.08 0 0.08 0.08 0 0.1 0.08 0 0 0.085 0 0.02 0.085 0 0.04 0.085 0 0.06 0.085 0 0.08 0.085 0 0.1 0.085 0 0 0.09 0 0.02 0.09 0 0.04 0.09 0 0.06 0.09 0 0.08 0.09 0 0.1 0.09 0 0 0.095 0 0.02 0.095 0 0.04 0.095 0 0.06 0.095 0 0.08 0.095 0 0.1 0.095 0 0 0.1 0 0.02 0.1 0 0.04 0.1 0 0.06 0.1 0 0.08 0.1 0 0.1 0.1 0 0 0.105 0 0.02 0.105 0 0.04 0.105 0 0.06 0.105 0 0.08 0.105 0 0.1 0.105 0 0 0.11 0 0.02 0.11 0 0.04 0.11 0 0.06 0.11 0 0.08 0.11 0 0.1 0.11 0 0 0.115 0 0.02 0.115 0 0.04 0.115 0 0.06 0.115 0 0.08 0.115 0 0.1 0.115 0 0 0.12 0 0.02 0.12 0 0.04 0.12 0 0.06 0.12 0 0.08 0.12 0 0.1 0.12 0 0 0.125 0 0.02 0.125 0 0.04 0.125 0 0.06 0.125 0 0.08 0.125 0 0.1 0.125 0 0 0.13 0 0.02 0.13 0 0.04 0.13 0 0.06 0.13 0 0.08 0.13 0 0.1 0.13 0 0 0.135 0 0.02 0.135 0 0.04 0.135 0 0.06 0.135 0 0.08 0.135 0 0.1 0.135 0 0 0.14 0 0.02 0.14 0 0.04 0.14 0 0.06 0.14 0 0.08 0.14 0 0.1 0.14 0 0 0.145 0 0.02 0.145 0 0.04 0.145 0 0.06 0.145 0 0.08 0.145 0 0.1 0.145 0 0 0.15 0 0.02 0.15 0 0.04 0.15 0 0.06 0.15 0 0.08 0.15 0 0.1 0.15 0 0 0.155 0 0.02 0.155 0 0.04 0.155 0 0.06 0.155 0 0.08 0.155 0 0.1 0.155 0 0 0.16 0 0.02 0.16 0 0.04 0.16 0 0.06 0.16 0 0.08 0.16 0 0.1 0.16 0 0 0.165 0 0.02 0.165 0 0.04 0.165 0 0.06 0.165 0 0.08 0.165 0 0.1 0.165 0 0 0.17 0 0.02 0.17 0 0.04 0.17 0 0.06 0.17 0 0.08 0.17 0 0.1 0.17 0 0 0.175 0 0.02 0.175 0 0.04 0.175 0 0.06 0.175 0 0.08 0.175 0 0.1 0.175 0 0 0.18 0 0.02 0.18 0 0.04 0.18 0 0.06 0.18 0 0.08 0.18 0 0.1 0.18 0 0 0.185 0 0.02 0.185 0 0.04 0.185 0 0.06 0.185 0 0.08 0.185 0 0.1 0.185 0 0 0.19 0 0.02 0.19 0 0.04 0.19 0 0.06 0.19 0 0.08 0.19 0 0.1 0.19 0 0 0.195 0 0.02 0.195 0 0.04 0.195 0 0.06 0.195 0 0.08 0.195 0 0.1 0.195 0 0 0.2 0 0.02 0.2 0 0.04 0.2 0 0.06 0.2 0 0.08 0.2 0 0.1 0.2 0 0 0.205 0 0.02 0.205 0 0.04 0.205 0 0.06 0.205 0 0.08 0.205 0 0.1 0.205 0 0 0.21 0 0.02 0.21 0 0.04 0.21 0 0.06 0.21 0 0.08 0.21 0 0.1 0.21 0 0 0.215 0 0.02 0.215 0 0.04 0.215 0 0.06 0.215 0 0.08 0.215 0 0.1 0.215 0 0 0.22 0 0.02 0.22 0 0.04 0.22 0 0.06 0.22 0 0.08 0.22 0 0.1 0.22 0 0 0.225 0 0.02 0.225 0 0.04 0.225 0 0.06 0.225 0 0.08 0.225 0 0.1 0.225 0 0 0.23 0 0.02 0.23 0 0.04 0.23 0 0.06 0.23 0 0.08 0.23 0 0.1 0.23 0 0 0.235 0 0.02 0.235 0 0.04 0.235 0 0.06 0.235 0 0.08 0.235 0 0.1 0.235 0 0 0.24 0 0.02 0.24 0 0.04 0.24 0 0.06 0.24 0 0.08 0.24 0 0.1 0.24 0 0 0.245 0 0.02 0.245 0 0.04 0.245 0 0.06 0.245 0 0.08 0.245 0 0.1 0.245 0 0 0.25 0 0.02 0.25 0 0.04 0.25 0 0.06 0.25 0 0.08 0.25 0 0.1 0.25 0 0 0.255 0 0.02 0.255 0 0.04 0.255 0 0.06 0.255 0 0.08 0.255 0 0.1 0.255 0 0 0.26 0 0.02 0.26 0 0.04 0.26 0 0.06 0.26 0 0.08 0.26 0 0.1 0.26 0 0 0.265 0 0.02 0.265 0 0.04 0.265 0 0.06 0.265 0 0.08 0.265 0 0.1 0.265 0 0 0.27 0 0.02 0.27 0 0.04 0.27 0 0.06 0.27 0 0.08 0.27 0 0.1 0.27 0 0 0.275 0 0.02 0.275 0 0.04 0.275 0 0.06 0.275 0 0.08 0.275 0 0.1 0.275 0 0 0.28 0 0.02 0.28 0 0.04 0.28 0 0.06 0.28 0 0.08 0.28 0 0.1 0.28 0 0 0.285 0 0.02 0.285 0 0.04 0.285 0 0.06 0.285 0 0.08 0.285 0 0.1 0.285 0 0 0.29 0 0.02 0.29 0 0.04 0.29 0 0.06 0.29 0 0.08 0.29 0 0.1 0.29 0 0 0.295 0 0.02 0.295 0 0.04 0.295 0 0.06 0.295 0 0.08 0.295 0 0.1 0.295 0 0 0.3 0 0.02 0.3 0 0.04 0.3 0 0.06 0.3 0 0.08 0.3 0 0.1 0.3 0 0 0.305 0 0.02 0.305 0 0.04 0.305 0 0.06 0.305 0 0.08 0.305 0 0.1 0.305 0 0 0.31 0 0.02 0.31 0 0.04 0.31 0 0.06 0.31 0 0.08 0.31 0 0.1 0.31 0 0 0.315 0 0.02 0.315 0 0.04 0.315 0 0.06 0.315 0 0.08 0.315 0 0.1 0.315 0 0 0.32 0 0.02 0.32 0 0.04 0.32 0 0.06 0.32 0 0.08 0.32 0 0.1 0.32 0 0 0.325 0 0.02 0.325 0 0.04 0.325 0 0.06 0.325 0 0.08 0.325 0 0.1 0.325 0 0 0.33 0 0.02 0.33 0 0.04 0.33 0 0.06 0.33 0 0.08 0.33 0 0.1 0.33 0 0 0.335 0 0.02 0.335 0 0.04 0.335 0 0.06 0.335 0 0.08 0.335 0 0.1 0.335 0 0 0.34 0 0.02 0.34 0 0.04 0.34 0 0.06 0.34 0 0.08 0.34 0 0.1 0.34 0 0 0.345 0 0.02 0.345 0 0.04 0.345 0 0.06 0.345 0 0.08 0.345 0 0.1 0.345 0 0 0.35 0 0.02 0.35 0 0.04 0.35 0 0.06 0.35 0 0.08 0.35 0 0.1 0.35 0 0 0.355 0 0.02 0.355 0 0.04 0.355 0 0.06 0.355 0 0.08 0.355 0 0.1 0.355 0 0 0.36 0 0.02 0.36 0 0.04 0.36 0 0.06 0.36 0 0.08 0.36 0 0.1 0.36 0 0 0.365 0 0.02 0.365 0 0.04 0.365 0 0.06 0.365 0 0.08 0.365 0 0.1 0.365 0 0 0.37 0 0.02 0.37 0 0.04 0.37 0 0.06 0.37 0 0.08 0.37 0 0.1 0.37 0 0 0.375 0 0.02 0.375 0 0.04 0.375 0 0.06 0.375 0 0.08 0.375 0 0.1 0.375 0 0 0.38 0 0.02 0.38 0 0.04 0.38 0 0.06 0.38 0 0.08 0.38 0 0.1 0.38 0 0 0.385 0 0.02 0.385 0 0.04 0.385 0 0.06 0.385 0 0.08 0.385 0 0.1 0.385 0 0 0.39 0 0.02 0.39 0 0.04 0.39 0 0.06 0.39 0 0.08 0.39 0 0.1 0.39 0 0 0.395 0 0.02 0.395 0 0.04 0.395 0 0.06 0.395 0 0.08 0.395 0 0.1 0.395 0 0 0.4 0 0.02 0.4 0 0.04 0.4 0 0.06 0.4 0 0.08 0.4 0 0.1 0.4 0 0 0.405 0 0.02 0.405 0 0.04 0.405 0 0.06 0.405 0 0.08 0.405 0 0.1 0.405 0 0 0.41 0 0.02 0.41 0 0.04 0.41 0 0.06 0.41 0 0.08 0.41 0 0.1 0.41 0 0 0.415 0 0.02 0.415 0 0.04 0.415 0 0.06 0.415 0 0.08 0.415 0 0.1 0.415 0 0 0.42 0 0.02 0.42 0 0.04 0.42 0 0.06 0.42 0 0.08 0.42 0 0.1 0.42 0 0 0.425 0 0.02 0.425 0 0.04 0.425 0 0.06 0.425 0 0.08 0.425 0 0.1 0.425 0 0 0.43 0 0.02 0.43 0 0.04 0.43 0 0.06 0.43 0 0.08 0.43 0 0.1 0.43 0 0 0.435 0 0.02 0.435 0 0.04 0.435 0 0.06 0.435 0 0.08 0.435 0 0.1 0.435 0 0 0.44 0 0.02 0.44 0 0.04 0.44 0 0.06 0.44 0 0.08 0.44 0 0.1 0.44 0 0 0.445 0 0.02 0.445 0 0.04 0.445 0 0.06 0.445 0 0.08 0.445 0 0.1 0.445 0 0 0.45 0 0.02 0.45 0 0.04 0.45 0 0.06 0.45 0 0.08 0.45 0 0.1 0.45 0 0 0.455 0 0.02 0.455 0 0.04 0.455 0 0.06 0.455 0 0.08 0.455 0 0.1 0.455 0 0 0.46 0 0.02 0.46 0 0.04 0.46 0 0.06 0.46 0 0.08 0.46 0 0.1 0.46 0 0 0.465 0 0.02 0.465 0 0.04 0.465 0 0.06 0.465 0 0.08 0.465 0 0.1 0.465 0 0 0.47 0 0.02 0.47 0 0.04 0.47 0 0.06 0.47 0 0.08 0.47 0 0.1 0.47 0 0 0.475 0 0.02 0.475 0 0.04 0.475 0 0.06 0.475 0 0.08 0.475 0 0.1 0.475 0 0 0.48 0 0.02 0.48 0 0.04 0.48 0 0.06 0.48 0 0.08 0.48 0 0.1 0.48 0 0 0.485 0 0.02 0.485 0 0.04 0.485 0 0.06 0.485 0 0.08 0.485 0 0.1 0.485 0 0 0.49 0 0.02 0.49 0 0.04 0.49 0 0.06 0.49 0 0.08 0.49 0 0.1 0.49 0 0 0.495 0 0.02 0.495 0 0.04 0.495 0 0.06 0.495 0 0.08 0.495 0 0.1 0.495 0 0 0.5 0 0.02 0.5 0 0.04 0.5 0 0.06 0.5 0 0.08 0.5 0 0.1 0.5 0 0 0.505 0 0.02 0.505 0 0.04 0.505 0 0.06 0.505 0 0.08 0.505 0 0.1 0.505 0 0 0.51 0 0.02 0.51 0 0.04 0.51 0 0.06 0.51 0 0.08 0.51 0 0.1 0.51 0 0 0.515 0 0.02 0.515 0 0.04 0.515 0 0.06 0.515 0 0.08 0.515 0 0.1 0.515 0 0 0.52 0 0.02 0.52 0 0.04 0.52 0 0.06 0.52 0 0.08 0.52 0 0.1 0.52 0 0 0.525 0 0.02 0.525 0 0.04 0.525 0 0.06 0.525 0 0.08 0.525 0 0.1 0.525 0 0 0.53 0 0.02 0.53 0 0.04 0.53 0 0.06 0.53 0 0.08 0.53 0 0.1 0.53 0 0 0.535 0 0.02 0.535 0 0.04 0.535 0 0.06 0.535 0 0.08 0.535 0 0.1 0.535 0 0 0.54 0 0.02 0.54 0 0.04 0.54 0 0.06 0.54 0 0.08 0.54 0 0.1 0.54 0 0 0.545 0 0.02 0.545 0 0.04 0.545 0 0.06 0.545 0 0.08 0.545 0 0.1 0.545 0 0 0.55 0 0.02 0.55 0 0.04 0.55 0 0.06 0.55 0 0.08 0.55 0 0.1 0.55 0 0 0.555 0 0.02 0.555 0 0.04 0.555 0 0.06 0.555 0 0.08 0.555 0 0.1 0.555 0 0 0.56 0 0.02 0.56 0 0.04 0.56 0 0.06 0.56 0 0.08 0.56 0 0.1 0.56 0 0 0.565 0 0.02 0.565 0 0.04 0.565 0 0.06 0.565 0 0.08 0.565 0 0.1 0.565 0 0 0.57 0 0.02 0.57 0 0.04 0.57 0 0.06 0.57 0 0.08 0.57 0 0.1 0.57 0 0 0.575 0 0.02 0.575 0 0.04 0.575 0 0.06 0.575 0 0.08 0.575 0 0.1 0.575 0 0 0.58 0 0.02 0.58 0 0.04 0.58 0 0.06 0.58 0 0.08 0.58 0 0.1 0.58 0 0 0.585 0 0.02 0.585 0 0.04 0.585 0 0.06 0.585 0 0.08 0.585 0 0.1 0.585 0 0 0.59 0 0.02 0.59 0 0.04 0.59 0 0.06 0.59 0 0.08 0.59 0 0.1 0.59 0 0 0.595 0 0.02 0.595 0 0.04 0.595 0 0.06 0.595 0 0.08 0.595 0 0.1 0.595 0 0 0.6 0 0.02 0.6 0 0.04 0.6 0 0.06 0.6 0 0.08 0.6 0 0.1 0.6 0 0 0.605 0 0.02 0.605 0 0.04 0.605 0 0.06 0.605 0 0.08 0.605 0 0.1 0.605 0 0 0.61 0 0.02 0.61 0 0.04 0.61 0 0.06 0.61 0 0.08 0.61 0 0.1 0.61 0 0 0.615 0 0.02 0.615 0 0.04 0.615 0 0.06 0.615 0 0.08 0.615 0 0.1 0.615 0 0 0.62 0 0.02 0.62 0 0.04 0.62 0 0.06 0.62 0 0.08 0.62 0 0.1 0.62 0 0 0.625 0 0.02 0.625 0 0.04 0.625 0 0.06 0.625 0 0.08 0.625 0 0.1 0.625 0 0 0.63 0 0.02 0.63 0 0.04 0.63 0 0.06 0.63 0 0.08 0.63 0 0.1 0.63 0 0 0.635 0 0.02 0.635 0 0.04 0.635 0 0.06 0.635 0 0.08 0.635 0 0.1 0.635 0 0 0.64 0 0.02 0.64 0 0.04 0.64 0 0.06 0.64 0 0.08 0.64 0 0.1 0.64 0 0 0.645 0 0.02 0.645 0 0.04 0.645 0 0.06 0.645 0 0.08 0.645 0 0.1 0.645 0 0 0.65 0 0.02 0.65 0 0.04 0.65 0 0.06 0.65 0 0.08 0.65 0 0.1 0.65 0 0 0.655 0 0.02 0.655 0 0.04 0.655 0 0.06 0.655 0 0.08 0.655 0 0.1 0.655 0 0 0.66 0 0.02 0.66 0 0.04 0.66 0 0.06 0.66 0 0.08 0.66 0 0.1 0.66 0 0 0.665 0 0.02 0.665 0 0.04 0.665 0 0.06 0.665 0 0.08 0.665 0 0.1 0.665 0 0 0.67 0 0.02 0.67 0 0.04 0.67 0 0.06 0.67 0 0.08 0.67 0 0.1 0.67 0 0 0.675 0 0.02 0.675 0 0.04 0.675 0 0.06 0.675 0 0.08 0.675 0 0.1 0.675 0 0 0.68 0 0.02 0.68 0 0.04 0.68 0 0.06 0.68 0 0.08 0.68 0 0.1 0.68 0 0 0.685 0 0.02 0.685 0 0.04 0.685 0 0.06 0.685 0 0.08 0.685 0 0.1 0.685 0 0 0.69 0 0.02 0.69 0 0.04 0.69 0 0.06 0.69 0 0.08 0.69 0 0.1 
[...]
			<PointData Scalars="VitesseX">
				<DataArray Name="VitesseX" type="Float32" format="ascii">
 0 -1.81702e-14 -6.03006e-16 1.18561e-14 1.07062e-14 0 0 -1.40798e-14 -5.11596e-15 1.50571e-14 8.86772e-15 0 0 -7.9296e-15 -9.11371e-15 1.36561e-14 1.16806e-14 0 0 -6.37133e-15 -7.45961e-15 9.89283e-15 1.93095e-14 0 0 -3.05318e-15 -7.5418e-15 8.85797e-15 2.53338e-14 0 0 3.85217e-15 -5.93775e-15 4.46721e-15 3.19203e-14 0 0 -1.67011e-15 9.36632e-15 -2.17692e-15 3.38173e-14 0 0 -2.61772e-15 1.08031e-14 1.08658e-14 2.07266e-14 0 0 4.48589e-15 4.94132e-15 2.12195e-14 1.38574e-14 0 0 4.75055e-15 1.28645e-14 1.23301e-14 1.98247e-14 0 0 2.15267e-15 1.96408e-14 6.60662e-15 1.98492e-14 0 0 -1.18701e-14 3.99198e-14 -1.26847e-14 2.00313e-14 0 0 -2.06388e-14 4.46515e-14 -4.90536e-15 5.19349e-16 0 0 -1.71985e-14 7.8747e-15 4.72311e-14 -3.81352e-14 0 0 -2.59394e-14 -1.42538e-17 3.88559e-14 -1.97919e-14 0 0 -2.61856e-14 -5.76298e-15 2.44654e-14 -5.87193e-15 0 0 -8.81702e-15 -3.69067e-14 4.39934e-14 -2.31299e-14 0 0 -8.01571e-15 -3.82634e-14 3.82477e-14 -1.99947e-14 0 0 -2.92532e-14 -9.70717e-15 3.43093e-15 1.07473e-14 0 0 -1.89826e-14 -1.47869e-14 -1.83012e-14 4.07994e-14 0 0 -2.53366e-14 9.05501e-15 -6.4281e-14 6.95682e-14 0 0 -5.32313e-14 3.49277e-14 -7.77764e-14 6.52696e-14 0 0 -1.01748e-14 -6.37803e-14 5.28477e-14 -2.77542e-14 0 0 8.76386e-15 -9.00473e-14 5.70499e-14 -7.04906e-15 0 0 -3.92666e-14 -1.43132e-14 -2.12746e-14 5.55312e-14 0 0 -4.04942e-14 -7.18366e-15 -1.62374e-14 4.6531e-14 0 0 1.92186e-14 -5.28086e-14 6.1952e-16 3.4005e-14 0 0 4.69586e-14 -6.06664e-14 -4.49354e-15 2.8053e-14 0 0 -2.03706e-15 2.67535e-14 -8.99934e-14 6.97914e-14 0 0 1.50374e-14 -2.38944e-14 -2.00055e-14 8.58062e-15 0 0 5.30362e-14 -1.22336e-13 7.92364e-14 -3.08553e-14 0 0 4.20611e-14 -1.088e-13 6.30645e-14 -4.3655e-15 0 0 1.84309e-14 -4.33627e-14 -1.32938e-14 2.60378e-14 0 0 2.1234e-14 -4.39433e-14 -2.39786e-14 3.60562e-14 0 0 -2.00521e-14 -1.117e-15 -6.01838e-14 6.72482e-14 0 0 -7.0237e-14 4.74389e-14 -8.08623e-14 9.89256e-14 0 0 -2.64912e-14 -4.13734e-14 2.22963e-14 7.75633e-14 0 0 -2.11452e-14 -4.68479e-14 2.56992e-14 9.93779e-14 0 0 -3.00568e-14 -2.30126e-14 3.90627e-14 4.57562e-14 0 0 2.57043e-15 -4.44277e-14 5.31521e-14 -8.75403e-15 0 0 2.52943e-14 -5.58014e-14 5.12994e-14 -4.68911e-14 0 0 4.32487e-14 -5.74492e-14 4.8068e-14 -8.1029e-14 0 0 1.32623e-13 -1.36212e-13 2.67234e-14 -2.89813e-14 0 0 1.00974e-13 -7.74854e-14 -7.05352e-14 7.00274e-14 0 0 1.15445e-13 -1.18541e-13 1.30485e-14 -8.79093e-15 0 0 1.58198e-13 -1.19303e-13 -4.97917e-14 4.64251e-14 0 0 7.57021e-14 1.69815e-14 -2.06695e-13 1.78932e-13 0 0 6.66907e-14 -3.72487e-14 -8.90342e-14 1.01556e-13 0 0 6.19958e-14 -6.95394e-14 -3.35572e-14 7.51854e-14 0 0 1.51676e-13 -1.79615e-13 4.85907e-14 2.7006e-14 0 0 1.65159e-13 -1.35006e-13 -2.28514e-14 5.797e-14 0 0 1.15154e-13 -4.09834e-14 -1.25733e-13 1.28414e-13 0 0 1.8208e-13 -1.28743e-13 -2.50882e-14 5.56284e-14 0 0 2.32207e-13 -1.97803e-13 9.46228e-14 -3.65652e-14 0 0 1.23536e-13 4.43069e-14 -1.30639e-13 1.0647e-13 0 0 6.43537e-14 1.82165e-13 -1.8373e-13 1.1145e-13 0 0 1.29722e-13 -1.23456e-14 9.91399e-14 -6.27871e-14 0 0 8.71481e-14 4.56714e-14 -2.47934e-15 2.36912e-14 0 0 1.43087e-13 -1.13418e-14 2.16067e-14 1.71211e-14 0 0 6.53924e-14 8.29407e-14 4.99992e-15 -8.78389e-16 0 0 1.90595e-15 2.40056e-13 -1.00707e-13 3.53621e-14 0 0 1.25193e-13 1.07534e-13 -9.66384e-16 -2.38449e-14 0 0 1.56622e-13 5.83734e-14 2.36088e-14 -5.19031e-14 0 0 1.18576e-13 2.99128e-14 1.05327e-13 -9.16299e-14 0 0 -4.20871e-15 1.11252e-13 1.00397e-13 -5.47605e-14 0 0 3.09026e-14 5.24825e-14 9.79006e-14 3.22463e-15 0 0 2.59931e-13 -2.05746e-13 1.30497e-13 5.40655e-14 0 0 2.22956e-13 -7.01685e-14 -1.375e-13 1.75427e-13 0 0 1.17507e-14 2.35081e-13 -3.4523e-13 1.58683e-13 0 0 2.16327e-13 1.26799e-14 -9.9353e-14 -1.38859e-14 0 0 3.93888e-13 -1.30682e-13 5.5026e-15 -2.68118e-14 0 0 2.98515e-13 -3.35618e-14 -4.75546e-14 4.13549e-14 0 0 1.03317e-13 1.74649e-13 -2.02108e-13 1.90736e-13 0 0 -6.6616e-16 3.44192e-13 -3.93819e-13 3.1203e-13 0 0 2.97574e-13 1.89157e-14 -1.52358e-13 1.21351e-13 0 0 4.63508e-13 -1.56021e-13 4.90505e-14 -5.50699e-14 0 0 3.83777e-13 -5.89319e-14 -4.18155e-15 -6.11074e-14 0 0 2.32395e-13 2.06608e-13 -3.26245e-13 1.43475e-13 0 0 2.20017e-13 2.75738e-13 -6.19648e-13 3.77754e-13 0 0 3.70381e-13 3.33969e-14 -4.7635e-13 3.23819e-13 0 0 4.4934e-13 -3.67694e-13 -1.06878e-13 1.41021e-13 0 0 2.92136e-13 -2.95098e-13 -6.56218e-14 5.06779e-14 0 0 -4.22488e-15 -3.04951e-14 -1.86669e-13 2.44927e-14 0 0 -3.02066e-13 7.7234e-14 -8.42612e-14 -9.17598e-14 0 0 -3.27782e-13 -8.9791e-15 6.39148e-14 -2.30174e-13 0 0 -2.85827e-13 -1.50742e-13 1.56271e-13 -1.45902e-13 0 0 -2.76142e-13 -1.40787e-13 1.26742e-14 8.05848e-14 0 0 -3.94592e-13 4.3812e-14 -3.24699e-13 4.16866e-13 0 0 -5.42803e-13 2.18895e-13 -5.50113e-13 5.97233e-13 0 0 -4.80142e-13 9.69879e-14 -4.80686e-13 5.40386e-13 0 0 -1.4897e-13 -3.61754e-13 -2.28017e-13 3.96162e-13 0 0 1.79558e-13 -7.68035e-13 -1.78345e-14 3.00846e-13 0 0 1.96828e-13 -8.12635e-13 3.24345e-14 2.75131e-13 0 0 2.10862e-14 -6.99327e-13 3.53864e-14 2.44332e-13 0 0 -3.07005e-13 -4.98422e-13 5.18055e-14 1.52802e-13 0 0 -6.18494e-13 -2.7681e-13 9.64006e-14 2.27006e-14 0 0 -7.86689e-13 -1.11266e-13 1.718e-13 -1.29571e-13 0 0 -8.52012e-13 -8.83806e-14 2.82032e-13 -3.59496e-13 0 0 -9.26409e-13 -7.86142e-14 3.45736e-13 -4.63929e-13 0 0 -8.84247e-13 -2.45987e-14 3.2964e-13 -4.45634e-13 0 0 -7.19426e-13 -4.28783e-14 1.78508e-13 -3.05604e-13 0 0 -4.38777e-13 -6.26614e-14 -1.55196e-13 6.51517e-14 0 0 -1.96245e-13 -5.16003e-14 -3.4083e-13 3.67505e-13 0 0 -9.47673e-14 -7.32303e-14 -3.03604e-13 3.78145e-13 0 0 -6.86602e-14 -9.58434e-14 -1.31263e-13 2.46718e-13 0 0 -4.03537e-14 -1.01266e-13 2.39102e-13 -9.97995e-14 0 0 4.06732e-14 -1.21318e-13 4.41716e-13 -2.28561e-13 0 0 1.60201e-13 -1.00394e-13 3.90313e-13 -1.79417e-13 0 0 2.15503e-13 -1.15204e-13 3.6588e-13 -1.19472e-13 0 0 2.32254e-13 -1.06834e-13 3.12882e-13 1.59829e-14 0 0 2.28262e-13 -3.6867e-14 1.98727e-13 2.40895e-13 0 0 2.06734e-13 6.86135e-14 6.65398e-14 4.06205e-13 0 0 1.88224e-13 1.40638e-13 5.57705e-15 4.49285e-13 0 0 1.60283e-13 2.4224e-13 -4.34363e-14 4.86395e-13 0 0 1.5848e-13 2.5088e-13 -3.41457e-15 4.84848e-13 0 0 2.27513e-13 1.62416e-13 1.14861e-13 3.92615e-13 0 0 3.50941e-13 1.9071e-14 2.35643e-13 3.09317e-13 0 0 3.57383e-13 5.11899e-14 1.94095e-13 2.65259e-13 0 0 3.50275e-13 1.18202e-13 1.35668e-13 2.2493e-13 0 0 3.43197e-13 1.29206e-13 1.73057e-13 1.76282e-13 0 0 2.77359e-13 1.869e-13 1.73711e-13 1.22662e-13 0 0 2.12467e-13 2.37234e-13 1.69313e-13 3.89374e-14 0 0 1.58945e-13 2.50866e-13 2.07858e-13 -2.07541e-14 0 0 1.40031e-13 2.16202e-13 2.67311e-13 -6.80687e-14 0 0 1.23402e-13 1.58991e-13 2.80597e-13 -9.05798e-14 0 0 8.05599e-14 1.61197e-13 2.33303e-13 -7.7964e-14 0 0 8.5395e-14 1.45153e-13 1.87614e-13 -3.8562e-14 0 0 9.17027e-14 1.04327e-13 1.70325e-13 -3.944e-14 0 0 7.8077e-14 1.09543e-13 1.12274e-13 -2.66712e-14 0 0 6.95572e-14 1.19032e-13 4.06604e-14 3.06734e-14 0 0 6.30557e-14 1.1953e-13 2.08178e-14 -9.00342e-15 0 0 8.00043e-14 1.11628e-13 1.46821e-14 -7.69285e-14 0 0 1.08353e-13 8.80431e-14 1.41513e-14 -8.94144e-14 0 0 1.00272e-13 7.71239e-14 1.82671e-14 -5.88537e-14 0 0 7.60841e-14 1.15461e-13 -6.86107e-14 2.5805e-14 0 0 5.66251e-14 1.29797e-13 -1.11818e-13 5.98852e-14 0 0 2.47985e-14 9.4055e-14 -3.27427e-14 5.41312e-14 0 0 2.05563e-15 3.73164e-14 9.99213e-14 -4.51904e-14 0 0 -4.86053e-15 -6.14561e-15 1.18794e-13 -9.97321e-14 0 0 -9.03237e-15 -2.3796e-14 5.66004e-14 2.46415e-14 0 0 -1.07567e-14 -4.20687e-14 2.1012e-15 1.53152e-13 0 0 -5.73063e-14 -3.37082e-14 1.81613e-14 1.4613e-13 0 0 -8.14887e-14 -3.35422e-14 2.89576e-14 8.28052e-14 0 0 -7.03973e-14 -3.07289e-14 -4.51688e-14 5.32156e-14 0 0 -7.62796e-14 -3.63311e-14 6.00966e-15 -1.03553e-13 0 0 -3.37549e-14 -1.33635e-13 2.64895e-13 -1.98101e-13 0 0 4.59232e-14 -1.84232e-13 3.26035e-13 -1.33032e-13 0 0 8.96876e-14 -3.88319e-14 1.11428e-13 -2.57805e-14 0 0 7.55415e-14 7.49261e-14 4.41745e-14 -6.03326e-15 0 0 5.59719e-14 8.64876e-14 2.29397e-13 -5.02048e-14 0 0 5.01886e-14 1.91174e-13 2.52451e-13 2.06923e-13 0 0 1.16882e-13 1.44303e-13 3.36109e-13 3.05602e-13 0 0 1.49915e-13 1.48646e-13 4.03814e-13 1.42107e-13 0 0 1.67555e-13 2.32411e-13 3.15708e-13 1.21702e-13 0 0 1.56902e-13 2.5059e-13 2.84279e-13 1.91954e-13 0 0 1.62913e-13 2.24122e-13 3.15067e-13 1.59091e-13 0 0 2.47969e-13 1.29333e-13 3.96963e-13 6.18587e-14 0 0 2.39343e-13 1.20625e-13 4.35561e-13 -1.28193e-14 0 0 1.27868e-13 2.36036e-13 3.8009e-13 -6.50021e-14 0 0 -2.54926e-14 4.67572e-13 2.25847e-13 3.13934e-15 0 0 -1.38474e-14 4.62241e-13 2.56813e-13 2.70249e-14 0 0 1.32911e-13 2.28925e-13 4.60959e-13 -1.00404e-14 0 0 2.3809e-13 7.19571e-14 5.39413e-13 5.30712e-14 0 0 1.46157e-13 2.30669e-13 4.06546e-13 1.3183e-13 0 0 5.33e-14 4.21602e-13 2.57654e-13 2.1636e-13 0 0 1.30944e-13 3.62066e-13 2.42534e-13 2.92153e-13 0 0 2.46812e-13 2.31965e-13 3.38671e-13 3.00858e-13 0 0 3.26515e-13 1.75034e-13 4.24502e-13 2.49901e-13 0 0 4.10332e-13 9.73483e-14 5.87383e-13 2.48734e-14 0 0 3.27546e-13 2.54659e-13 5.17883e-13 -1.32655e-14 0 0 2.07778e-13 5.0296e-13 2.64895e-13 2.25518e-13 0 0 1.50724e-13 5.85817e-13 2.75551e-13 2.05275e-13 0 0 1.20219e-13 5.93496e-13 3.41547e-13 2.0359e-13 0 0 2.32603e-13 4.20719e-13 4.14394e-13 3.27305e-13 0 0 2.37576e-13 4.42798e-13 3.91793e-13 2.60094e-13 0 0 1.91582e-13 5.20859e-13 3.40088e-13 2.2918e-13 0 0 2.31725e-13 4.29837e-13 4.02187e-13 2.11156e-13 0 0 2.78614e-13 4.92407e-13 2.99455e-13 1.46525e-13 0 0 2.85929e-13 4.65905e-13 3.65404e-13 7.48124e-14 0 0 3.72001e-13 2.35649e-13 5.98727e-13 4.02314e-16 0 0 3.01847e-13 2.6944e-13 6.36498e-13 -1.18951e-13 0 0 1.13242e-13 5.85821e-13 3.19518e-13 1.09354e-13 0 0 1.01817e-13 6.34093e-13 1.65797e-13 2.93482e-13 0 0 7.88244e-14 4.75209e-13 5.87252e-13 -1.27482e-13 0 0 2.2547e-13 2.45512e-13 7.99647e-13 -2.58664e-13 0 0 1.53354e-13 3.85411e-13 4.36548e-13 7.05188e-14 0 0 1.26794e-14 5.09761e-13 4.45972e-13 4.80981e-14 0 0 1.20241e-14 4.93125e-13 5.87825e-13 -7.31289e-14 0 0 -3.39192e-14 5.99204e-13 5.15131e-13 -7.35163e-14 0 0 2.1184e-13 1.79441e-13 8.1554e-13 -1.72636e-13 0 0 1.14174e-13 2.34229e-13 7.20386e-13 -6.79025e-14 0 0 -3.28204e-14 4.60293e-13 3.3936e-13 3.15781e-13 0 0 -1.59142e-13 6.14233e-13 7.04766e-14 5.59722e-13 0 0 -2.12765e-13 5.14478e-13 2.99007e-13 2.73537e-13 0 0 1.56877e-13 1.88552e-13 3.4062e-13 3.95418e-13 0 0 1.8941e-13 3.87305e-13 9.83412e-14 5.71338e-13 0 0 2.15197e-13 3.16942e-13 4.8606e-13 1.72834e-13 0 0 6.5774e-14 5.94673e-13 4.24608e-13 3.49072e-14 0 0 -1.31277e-13 9.71685e-13 -6.95836e-14 3.6785e-13 0 0 -1.0407e-13 1.04288e-12 -3.7084e-13 6.28782e-13 0 0 -2.20967e-13 1.25594e-12 -5.73269e-13 6.65866e-13 0
				</DataArray>
				<DataArray Name="VitesseY" type="Float32" format="ascii">