<?xml version="1.0"?>
<VTKFile type="PolyData">
	<PolyData>
		<Piece NumberOfPoints="1206" NumberOfPolys="1000">
			<Points>
				<DataArray type="Float32" NumberOfComponents="3" format="ascii">
 0 0 0 0.02 0 0 0.04 0 0 0.06 0 0 0.08 0 0 0.1 0 0 0 0.005 0 0.02 0.005 0 0.04 0.005 0 0.06 0.005 0 0.08 0.005 0 0.1 0.005 0 0 0.01 0 0.02 0.01 0 0.04 0.01 0 0.06 0.01 0 0.08 0.01 0 0.1 0.01 0 0 0.015 0 0.02 0.015 0 0.04 0.015 0 0.06 0.015 0 0.08 0.015 0 0.1 0.015 0 0 0.02 0 0.02 0.02 0 0.04 0.02 0 0.06 0.02 0 0.08 0.02 0 0.1 0.02 0 0 0.025 0 0.02 0.025 0 0.04 0.025 0 0.06 0.025 0 0.08 0.025 0 0.1 0.025 0 0 0.03 0 0.02 0.03 0 0.04 0.03 0 0.06 0.03 0 0.08 0.03 0 0.1 0.03 0 0 0.035 0 0.02 0.035 0 0.04 0.035 0 0.06 0.035 0 0.08 0.035 0 0.1 0.035 0 0 0.04 0 0.02 0.04 0 0.04 0.04 0 0.06 0.04 0 0.08 0.04 0 0.1 0.04 0 0 0.045 0 0.02 0.045 0 0.04 0.045 0 0.06 0.045 0 0.08 0.045 0 0.1 0.045 0 0 0.05 0 0.02 0.05 0 0.04 0.05 0 0.06 0.05 0 0.08 0.05 0 0.1 0.05 0 0 0.055 0 0.02 0.055 0 0.04 0.055 0 0.06 0.055 0 0.08 0.055 0 0.1 0.055 0 0 0.06 0 0.02 0.06 0 0.04 0.06 0 0.06 0.06 0 0.08 0.06 0 0.1 0.06 0 0 0.065 0 0.02 0.065 0 0.04 0.065 0 0.06 0.065 0 0.08 0.065 0 0.1 0.065 0 0 0.07 0 0.02 0.07 0 0.04 0.07 0 0.06 0.07 0 0.08 0.07 0 0.1 0.07 0 0 0.075 0 0.02 0.075 0 0.04 0.075 0 0.06 0.075 0 0.08 0.075 0 0.1 0.075 0 0 0.08 0 0.02 0.08 0 0.04 0.08 0 0.06 0.08 0 0.08 0.08 0 0.1 0.08 0 0 0.085 0 0.02 0.085 0 0.04 0.085 0 0.06 0.085 0 0.08 0.085 0 0.1 0.085 0 0 0.09 0 0.02 0.09 0 0.04 0.09 0 0.06 0.09 0 0.08 0.09 0 0.1 0.09 0 0 0.095 0 0.02 0.095 0 0.04 0.095 0 0.06 0.095 0 0.08 0.095 0 0.1 0.095 0 0 0.1 0 0.02 0.1 0 0.04 0.1 0 0.06 0.1 0 0.08 0.1 0 0.1 0.1 0 0 0.105 0 0.02 0.105 0 0.04 0.105 0 0.06 0.105 0 0.08 0.105 0 0.1 0.105 0 0 0.11 0 0.02 0.11 0 0.04 0.11 0 0.06 0.11 0 0.08 0.11 0 0.1 0.11 0 0 0.115 0 0.02 0.115 0 0.04 0.115 0 0.06 0.115 0 0.08 0.115 0 0.1 0.115 0 0 0.12 0 0.02 0.12 0 0.04 0.12 0 0.06 0.12 0 0.08 0.12 0 0.1 0.12 0 0 0.125 0 0.02 0.125 0 0.04 0.125 0 0.06 0.125 0 0.08 0.125 0 0.1 0.125 0 0 0.13 0 0.02 0.13 0 0.04 0.13 0 0.06 0.13 0 0.08 0.13 0 0.1 0.13 0 0 0.135 0 0.02 0.135 0 0.04 0.135 0 0.06 0.135 0 0.08 0.135 0 0.1 0.135 0 0 0.14 0 0.02 0.14 0 0.04 0.14 0 0.06 0.14 0 0.08 0.14 0 0.1 0.14 0 0 0.145 0 0.02 0.145 0 0.04 0.145 0 0.06 0.145 0 0.08 0.145 0 0.1 0.145 0 0 0.15 0 0.02 0.15 0 0.04 0.15 0 0.06 0.15 0 0.08 0.15 0 0.1 0.15 0 0 0.155 0 0.02 0.155 0 0.04 0.155 0 0.06 0.155 0 0.08 0.155 0 0.1 0.155 0 0 0.16 0 0.02 0.16 0 0.04 0.16 0 0.06 0.16 0 0.08 0.16 0 0.1 0.16 0 0 0.165 0 0.02 0.165 0 0.04 0.165 0 0.06 0.165 0 0.08 0.165 0 0.1 0.165 0 0 0.17 0 0.02 0.17 0 0.04 0.17 0 0.06 0.17 0 0.08 0.17 0 0.1 0.17 0 0 0.175 0 0.02 0.175 0 0.04 0.175 0 0.06 0.175 0 0.08 0.175 0 0.1 0.175 0 0 0.18 0 0.02 0.18 0 0.04 0.18 0 0.06 0.18 0 0.08 0.18 0 0.1 0.18 0 0 0.185 0 0.02 0.185 0 0.04 0.185 0 0.06 0.185 0 0.08 0.185 0 0.1 0.185 0 0 0.19 0 0.02 0.19 0 0.04 0.19 0 0.06 0.19 0 0.08 0.19 0 0.1 0.19 0 0 0.195 0 0.02 0.195 0 0.04 0.195 0 0.06 0.195 0 0.08 0.195 0 0.1 0.195 0 0 0.2 0 0.02 0.2 0 0.04 0.2 0 0.06 0.2 0 0.08 0.2 0 0.1 0.2 0 0 0.205 0 0.02 0.205 0 0.04 0.205 0 0.06 0.205 0 0.08 0.205 0 0.1 0.205 0 0 0.21 0 0.02 0.21 0 0.04 0.21 0 0.06 0.21 0 0.08 0.21 0 0.1 0.21 0 0 0.215 0 0.02 0.215 0 0.04 0.215 0 0.06 0.215 0 0.08 0.215 0 0.1 0.215 0 0 0.22 0 0.02 0.22 0 0.04 0.22 0 0.06 0.22 0 0.08 0.22 0 0.1 0.22 0 0 0.225 0 0.02 0.225 0 0.04 0.225 0 0.06 0.225 0 0.08 0.225 0 0.1 0.225 0 0 0.23 0 0.02 0.23 0 0.04 0.23 0 0.06 0.23 0 0.08 0.23 0 0.1 0.23 0 0 0.235 0 0.02 0.235 0 0.04 0.235 0 0.06 0.235 0 0.08 0.235 0 0.1 0.235 0 0 0.24 0 0.02 0.24 0 0.04 0.24 0 0.06 0.24 0 0.08 0.24 0 0.1 0.24 0 0 0.245 0 0.02 0.245 0 0.04 0.245 0 0.06 0.245 0 0.08 0.245 0 0.1 0.245 0 0 0.25 0 0.02 0.25 0 0.04 0.25 0 0.06 0.25 0 0.08 0.25 0 0.1 0.25 0 0 0.255 0 0.02 0.255 0 0.04 0.255 0 0.06 0.255 0 0.08 0.255 0 0.1 0.255 0 0 0.26 0 0.02 0.26 0 0.04 0.26 0 0.06 0.26 0 0.08 0.26 0 0.1 0.26 0 0 0.265 0 0.02 0.265 0 0.04 0.265 0 0.06 0.265 0 0.08 0.265 0 0.1 0.265 0 0 0.27 0 0.02 0.27 0 0.04 0.27 0 0.06 0.27 0 0.08 0.27 0 0.1 0.27 0 0 0.275 0 0.02 0.275 0 0.04 0.275 0 0.06 0.275 0 0.08 0.275 0 0.1 0.275 0 0 0.28 0 0.02 0.28 0 0.04 0.28 0 0.06 0.28 0 0.08 0.28 0 0.1 0.28 0 0 0.285 0 0.02 0.285 0 0.04 0.285 0 0.06 0.285 0 0.08 0.285 0 0.1 0.285 0 0 0.29 0 0.02 0.29 0 0.04 0.29 0 0.06 0.29 0 0.08 0.29 0 0.1 0.29 0 0 0.295 0 0.02 0.295 0 0.04 0.295 0 0.06 0.295 0 0.08 0.295 0 0.1 0.295 0 0 0.3 0 0.02 0.3 0 0.04 0.3 0 0.06 0.3 0 0.08 0.3 0 0.1 0.3 0 0 0.305 0 0.02 0.305 0 0.04 0.305 0 0.06 0.305 0 0.08 0.305 0 0.1 0.305 0 0 0.31 0 0.02 0.31 0 0.04 0.31 0 0.06 0.31 0 0.08 0.31 0 0.1 0.31 0 0 0.315 0 0.02 0.315 0 0.04 0.315 0 0.06 0.315 0 0.08 0.315 0 0.1 0.315 0 0 0.32 0 0.02 0.32 0 0.04 0.32 0 0.06 0.32 0 0.08 0.32 0 0.1 0.32 0 0 0.325 0 0.02 0.325 0 0.04 0.325 0 0.06 0.325 0 0.08 0.325 0 0.1 0.325 0 0 0.33 0 0.02 0.33 0 0.04 0.33 0 0.06 0.33 0 0.08 0.33 0 0.1 0.33 0 0 0.335 0 0.02 0.335 0 0.04 0.335 0 0.06 0.335 0 0.08 0.335 0 0.1 0.335 0 0 0.34 0 0.02 0.34 0 0.04 0.34 0 0.06 0.34 0 0.08 0.34 0 0.1 0.34 0 0 0.345 0 0.02 0.345 0 0.04 0.345 0 0.06 0.345 0 0.08 0.345 0 0.1 0.345 0 0 0.35 0 0.02 0.35 0 0.04 0.35 0 0.06 0.35 0 0.08 0.35 0 0.1 0.35 0 0 0.355 0 0.02 0.355 0 0.04 0.355 0 0.06 0.355 0 0.08 0.355 0 0.1 0.355 0 0 0.36 0 0.02 0.36 0 0.04 0.36 0 0.06 0.36 0 0.08 0.36 0 0.1 0.36 0 0 0.365 0 0.02 0.365 0 0.04 0.365 0 0.06 0.365 0 0.08 0.365 0 0.1 0.365 0 0 0.37 0 0.02 0.37 0 0.04 0.37 0 0.06 0.37 0 0.08 0.37 0 0.1 0.37 0 0 0.375 0 0.02 0.375 0 0.04 0.375 0 0.06 0.375 0 0.08 0.375 0 0.1 0.375 0 0 0.38 0 0.02 0.38 0 0.04 0.38 0 0.06 0.38 0 0.08 0.38 0 0.1 0.38 0 0 0.385 0 0.02 0.385 0 0.04 0.385 0 0.06 0.385 0 0.08 0.385 0 0.1 0.385 0 0 0.39 0 0.02 0.39 0 0.04 0.39 0 0.06 0.39 0 0.08 0.39 0 0.1 0.39 0 0 0.395 0 0.02 0.395 0 0.04 0.395 0 0.06 0.395 0 0.08 0.395 0 0.1 0.395 0 0 0.4 0 0.02 0.4 0 0.04 0.4 0 0.06 0.4 0 0.08 0.4 0 0.1 0.4 0 0 0.405 0 0.02 0.405 0 0.04 0.405 0 0.06 0.405 0 0.08 0.405 0 0.1 0.405 0 0 0.41 0 0.02 0.41 0 0.04 0.41 0 0.06 0.41 0 0.08 0.41 0 0.1 0.41 0 0 0.415 0 0.02 0.415 0 0.04 0.415 0 0.06 0.415 0 0.08 0.415 0 0.1 0.415 0 0 0.42 0 0.02 0.42 0 0.04 0.42 0 0.06 0.42 0 0.08 0.42 0 0.1 0.42 0 0 0.425 0 0.02 0.425 0 0.04 0.425 0 0.06 0.425 0 0.08 0.425 0 0.1 0.425 0 0 0.43 0 0.02 0.43 0 0.04 0.43 0 0.06 0.43 0 0.08 0.43 0 0.1 0.43 0 0 0.435 0 0.02 0.435 0 0.04 0.435 0 0.06 0.435 0 0.08 0.435 0 0.1 0.435 0 0 0.44 0 0.02 0.44 0 0.04 0.44 0 0.06 0.44 0 0.08 0.44 0 0.1 0.44 0 0 0.445 0 0.02 0.445 0 0.04 0.445 0 0.06 0.445 0 0.08 0.445 0 0.1 0.445 0 0 0.45 0 0.02 0.45 0 0.04 0.45 0 0.06 0.45 0 0.08 0.45 0 0.1 0.45 0 0 0.455 0 0.02 0.455 0 0.04 0.455 0 0.06 0.455 0 0.08 0.455 0 0.1 0.455 0 0 0.46 0 0.02 0.46 0 0.04 0.46 0 0.06 0.46 0 0.08 0.46 0 0.1 0.46 0 0 0.465 0 0.02 0.465 0 0.04 0.465 0 0.06 0.465 0 0.08 0.465 0 0.1 0.465 0 0 0.47 0 0.02 0.47 0 0.04 0.47 0 0.06 0.47 0 0.08 0.47 0 0.1 0.47 0 0 0.475 0 0.02 0.475 0 0.04 0.475 0 0.06 0.475 0 0.08 0.475 0 0.1 0.475 0 0 0.48 0 0.02 0.48 0 0.04 0.48 0 0.06 0.48 0 0.08 0.48 0 0.1 0.48 0 0 0.485 0 0.02 0.485 0 0.04 0.485 0 0.06 0.485 0 0.08 0.485 0 0.1 0.485 0 0 0.49 0 0.02 0.49 0 0.04 0.49 0 0.06 0.49 0 0.08 0.49 0 0.1 0.49 0 0 0.495 0 0.02 0.495 0 0.04 0.495 0 0.06 0.495 0 0.08 0.495 0 0.1 0.495 0 0 0.5 0 0.02 0.5 0 0.04 0.5 0 0.06 0.5 0 0.08 0.5 0 0.1 0.5 0 0 0.505 0 0.02 0.505 0 0.04 0.505 0 0.06 0.505 0 0.08 0.505 0 0.1 0.505 0 0 0.51 0 0.02 0.51 0 0.04 0.51 0 0.06 0.51 0 0.08 0.51 0 0.1 0.51 0 0 0.515 0 0.02 0.515 0 0.04 0.515 0 0.06 0.515 0 0.08 0.515 0 0.1 0.515 0 0 0.52 0 0.02 0.52 0 0.04 0.52 0 0.06 0.52 0 0.08 0.52 0 0.1 0.52 0 0 0.525 0 0.02 0.525 0 0.04 0.525 0 0.06 0.525 0 0.08 0.525 0 0.1 0.525 0 0 0.53 0 0.02 0.53 0 0.04 0.53 0 0.06 0.53 0 0.08 0.53 0 0.1 0.53 0 0 0.535 0 0.02 0.535 0 0.04 0.535 0 0.06 0.535 0 0.08 0.535 0 0.1 0.535 0 0 0.54 0 0.02 0.54 0 0.04 0.54 0 0.06 0.54 0 0.08 0.54 0 0.1 0.54 0 0 0.545 0 0.02 0.545 0 0.04 0.545 0 0.06 0.545 0 0.08 0.545 0 0.1 0.545 0 0 0.55 0 0.02 0.55 0 0.04 0.55 0 0.06 0.55 0 0.08 0.55 0 0.1 0.55 0 0 0.555 0 0.02 0.555 0 0.04 0.555 0 0.06 0.555 0 0.08 0.555 0 0.1 0.555 0 0 0.56 0 0.02 0.56 0 0.04 0.56 0 0.06 0.56 0 0.08 0.56 0 0.1 0.56 0 0 0.565 0 0.02 0.565 0 0.04 0.565 0 0.06 0.565 0 0.08 0.565 0 0.1 0.565 0 0 0.57 0 0.02 0.57 0 0.04 0.57 0 0.06 0.57 0 0.08 0.57 0 0.1 0.57 0 0 0.575 0 0.02 0.575 0 0.04 0.575 0 0.06 0.575 0 0.08 0.575 0 0.1 0.575 0 0 0.58 0 0.02 0.58 0 0.04 0.58 0 0.06 0.58 0 0.08 0.58 0 0.1 0.58 0 0 0.585 0 0.02 0.585 0 0.04 0.585 0 0.06 0.585 0 0.08 0.585 0 0.1 0.585 0 0 0.59 0 0.02 0.59 0 0.04 0.59 0 0.06 0.59 0 0.08 0.59 0 0.1 0.59 0 0 0.595 0 0.02 0.595 0 0.04 0.595 0 0.06 0.595 0 0.08 0.595 0 0.1 0.595 0 0 0.6 0 0.02 0.6 0 0.04 0.6 0 0.06 0.6 0 0.08 0.6 0 0.1 0.6 0 0 0.605 0 0.02 0.605 0 0.04 0.605 0 0.06 0.605 0 0.08 0.605 0 0.1 0.605 0 0 0.61 0 0.02 0.61 0 0.04 0.61 0 0.06 0.61 0 0.08 0.61 0 0.1 0.61 0 0 0.615 0 0.02 0.615 0 0.04 0.615 0 0.06 0.615 0 0.08 0.615 0 0.1 0.615 0 0 0.62 0 0.02 0.62 0 0.04 0.62 0 0.06 0.62 0 0.08 0.62 0 0.1 0.62 0 0 0.625 0 0.02 0.625 0 0.04 0.625 0 0.06 0.625 0 0.08 0.625 0 0.1 0.625 0 0 0.63 0 0.02 0.63 0 0.04 0.63 0 0.06 0.63 0 0.08 0.63 0 0.1 0.63 0 0 0.635 0 0.02 0.635 0 0.04 0.635 0 0.06 0.635 0 0.08 0.635 0 0.1 0.635 0 0 0.64 0 0.02 0.64 0 0.04 0.64 0 0.06 0.64 0 0.08 0.64 0 0.1 0.64 0 0 0.645 0 0.02 0.645 0 0.04 0.645 0 0.06 0.645 0 0.08 0.645 0 0.1 0.645 0 0 0.65 0 0.02 0.65 0 0.04 0.65 0 0.06 0.65 0 0.08 0.65 0 0.1 0.65 0 0 0.655 0 0.02 0.655 0 0.04 0.655 0 0.06 0.655 0 0.08 0.655 0 0.1 0.655 0 0 0.66 0 0.02 0.66 0 0.04 0.66 0 0.06 0.66 0 0.08 0.66 0 0.1 0.66 0 0 0.665 0 0.02 0.665 0 0.04 0.665 0 0.06 0.665 0 0.08 0.665 0 0.1 0.665 0 0 0.67 0 0.02 0.67 0 0.04 0.67 0 0.06 0.67 0 0.08 0.67 0 0.1 0.67 0 0 0.675 0 0.02 0.675 0 0.04 0.675 0 0.06 0.675 0 0.08 0.675 0 0.1 0.675 0 0 0.68 0 0.02 0.68 0 0.04 0.68 0 0.06 0.68 0 0.08 0.68 0 0.1 0.68 0 0 0.685 0 0.02 0.685 0 0.04 0.685 0 0.06 0.685 0 0.08 0.685 0 0.1 0.685 0 0 0.69 0 0.02 0.69 0 0.04 0.69 0 0.06 0.69 0 0.08 0.69 0 0.1 
[...]
			<PointData Scalars="VitesseX">
				<DataArray Name="VitesseX" type="Float32" format="ascii">
 0 -6.86307e-15 -3.12017e-14 -8.25074e-16 2.79964e-14 0 0 -1.67202e-14 -1.94103e-14 -4.09224e-16 2.11683e-14 0 0 -1.50584e-14 -2.53517e-14 1.53137e-14 5.83099e-15 0 0 -3.46583e-14 -1.96047e-15 -8.16254e-15 2.3838e-14 0 0 -5.41642e-14 1.35865e-14 -1.02685e-14 2.22254e-14 0 0 -3.13042e-14 -2.52422e-14 2.57679e-14 -9.14415e-15 0 0 2.11992e-16 -5.48575e-14 1.06199e-14 4.25912e-15 0 0 -5.84526e-15 -3.73334e-14 -4.7771e-14 4.47876e-14 0 0 -2.72053e-14 -3.5703e-14 -4.33631e-14 2.81503e-14 0 0 -4.71449e-14 -3.55507e-14 -3.53826e-14 3.04616e-14 0 0 -9.0881e-14 3.18189e-14 -9.10752e-14 7.47452e-14 0 0 -4.62968e-14 -4.61848e-14 1.97416e-14 -2.98728e-15 0 0 -7.57807e-14 -2.11841e-14 3.30385e-14 -4.24222e-14 0 0 -6.73327e-14 -3.20563e-15 6.28724e-15 -6.06886e-14 0 0 -3.38983e-14 -1.85276e-15 -3.91836e-14 -2.0538e-14 0 0 -8.5049e-14 7.75975e-14 -1.22065e-13 5.08693e-14 0 0 -1.44697e-14 -5.57584e-14 -9.9325e-15 1.03414e-14 0 0 -7.52225e-14 3.05203e-14 -1.09262e-13 7.78029e-14 0 0 -1.28525e-13 1.13229e-13 -1.73594e-13 7.94079e-14 0 0 -5.60596e-14 5.41829e-15 -9.4767e-14 4.05858e-14 0 0 -3.18979e-14 -2.78512e-14 -1.43574e-13 1.18228e-13 0 0 -3.87884e-14 -4.343e-14 -1.56097e-13 1.40519e-13 0 0 -8.74487e-14 -5.34936e-14 -2.85025e-14 1.63201e-14 0 0 -8.96355e-14 -6.67479e-14 7.94027e-14 -1.23354e-13 0 0 -3.27927e-14 -3.11493e-14 -3.07011e-14 -7.08685e-14 0 0 -5.86648e-15 3.37643e-15 -1.1501e-13 -2.45662e-14 0 0 -3.18028e-14 -1.9732e-14 -2.68996e-14 -1.61874e-13 0 0 -1.22097e-13 2.32319e-14 -4.80528e-14 -2.02533e-13 0 0 -1.07198e-13 -1.31057e-14 -1.00688e-13 -1.31326e-13 0 0 -7.3018e-14 -2.75422e-14 -1.29826e-13 -1.05465e-13 0 0 -2.93336e-14 -8.26411e-14 -1.33325e-14 -1.84305e-13 0 0 -2.48847e-14 -8.26548e-14 6.15719e-15 -1.17311e-13 0 0 -1.05522e-13 7.05244e-15 -5.08027e-14 -2.10727e-14 0 0 -1.11748e-13 -6.49506e-14 7.12828e-14 -6.54592e-14 0 0 -1.14008e-13 -2.89812e-14 -4.30019e-14 9.03596e-14 0 0 -3.54878e-14 -7.67117e-14 -4.15984e-14 1.53332e-13 0 0 -1.14132e-13 1.43981e-14 -1.26447e-14 1.27028e-13 0 0 -1.63473e-13 5.24158e-14 5.57305e-14 2.48966e-14 0 0 -1.54545e-13 6.75503e-14 3.57652e-14 2.36293e-14 0 0 -9.11878e-14 1.29852e-14 -6.86772e-15 9.04126e-14 0 0 -2.47809e-14 -1.39491e-13 5.77315e-14 3.01683e-14 0 0 -1.01042e-13 -1.32246e-13 3.20807e-14 4.45182e-15 0 0 -1.17789e-13 -1.2534e-13 2.43313e-14 -5.41581e-14 0 0 -4.49382e-14 -1.19845e-13 -5.679e-14 -3.50977e-14 0 0 -2.9267e-14 -5.02833e-14 -1.2528e-13 -1.79225e-14 0 0 -2.26271e-14 -1.26664e-13 1.17064e-13 -2.80786e-13 0 0 -2.62397e-13 6.47922e-14 8.53714e-14 -3.46718e-13 0 0 -3.19667e-13 5.29847e-14 8.26972e-14 -3.15455e-13 0 0 -1.52959e-13 -1.6444e-13 1.23967e-13 -2.46274e-13 0 0 -9.76891e-14 -1.66145e-13 -7.4851e-14 -5.51147e-15 0 0 3.87169e-14 -3.13465e-13 2.36682e-15 -1.2963e-14 0 0 -2.45293e-13 3.05438e-14 -9.04757e-14 -1.13425e-13 0 0 -3.15494e-13 -3.04543e-14 2.47546e-13 -5.47016e-13 0 0 -3.65061e-13 8.96232e-14 6.60985e-14 -4.29356e-13 0 0 -2.22024e-13 1.82576e-13 -3.40662e-13 -6.26946e-15 0 0 1.07166e-13 -1.82885e-13 -9.10746e-14 -1.02397e-13 0 0 -2.79717e-13 1.33296e-13 -1.79559e-13 -9.44802e-14 0 0 -2.34757e-13 -2.04723e-13 3.94208e-13 -5.60877e-13 0 0 -2.0567e-13 -2.09536e-13 3.89393e-13 -5.72764e-13 0 0 -3.02257e-13 1.2224e-13 -1.74672e-13 -9.34058e-14 0 0 -9.85526e-14 -8.41802e-14 -1.71108e-13 1.25393e-14 0 0 -2.3514e-13 9.23843e-14 -3.0354e-13 1.04772e-13 0 0 -1.02252e-13 -7.96219e-14 -8.75936e-14 -4.97702e-14 0 0 -5.20775e-14 -5.71563e-14 -1.56771e-13 -1.22494e-14 0 0 -1.20819e-13 5.77034e-14 -2.70138e-13 5.93268e-14 0 0 -3.66487e-14 -1.16752e-13 -8.46124e-14 -3.18281e-14 0 0 -1.80486e-13 2.67972e-14 -2.15381e-13 6.18292e-14 0 0 -6.33693e-14 -9.92707e-14 -1.67389e-13 1.9139e-14 0 0 -2.77373e-14 -1.15719e-13 -2.00766e-13 4.37314e-14 0 0 -2.5766e-13 9.52588e-14 -1.40752e-13 -9.14009e-14 0 0 -1.42626e-13 -2.49502e-13 5.00167e-13 -5.575e-13 0 0 -3.07617e-13 5.32252e-15 2.16268e-13 -1.88973e-13 0 0 -1.56338e-13 2.58411e-14 -4.91838e-14 2.45189e-13 0 0 -8.96621e-14 -4.37547e-15 -1.32693e-13 4.03266e-13 0 0 -3.88069e-13 1.49934e-13 -3.67785e-14 1.98622e-13 0 0 -4.07759e-13 3.23978e-14 2.43816e-13 -1.25873e-13 0 0 -3.66135e-13 1.70053e-13 -2.06282e-13 1.88605e-13 0 0 -6.1339e-14 -1.8109e-13 -1.19874e-13 9.94718e-14 0 0 -3.81844e-13 5.13501e-14 -2.25326e-13 -8.65682e-15 0 0 -4.60473e-13 -1.26469e-13 2.03234e-14 -2.66997e-13 0 0 -2.9339e-13 -2.71202e-13 -4.37324e-14 -1.79911e-13 0 0 -5.18559e-13 1.21236e-13 -4.4562e-13 8.12042e-14 0 0 -2.78356e-13 -3.01768e-13 1.57716e-13 -5.05743e-13 0 0 -2.55562e-13 -4.07653e-15 -4.06927e-13 -2.86553e-13 0 0 -2.65773e-13 3.28141e-13 -9.96466e-13 5.701e-14 0 0 -1.42372e-13 -2.03027e-13 -1.97886e-13 -4.48185e-13 0 0 -4.88054e-13 -2.1763e-13 4.7861e-14 -5.17291e-13 0 0 -3.9295e-13 -2.31299e-13 -2.88267e-13 -1.09348e-13 0 0 1.78641e-13 -6.90637e-13 -3.45966e-13 1.73011e-13 0 0 -9.77087e-14 -1.85188e-13 -5.45219e-13 -3.49985e-14 0 0 -3.94945e-13 -4.50865e-15 -1.648e-13 -5.90507e-13 0 0 -4.6754e-13 -1.90571e-13 5.56699e-14 -6.66894e-13 0 0 -1.312e-13 -1.8624e-13 -4.63254e-13 -7.4748e-15 0 0 3.92356e-13 -8.11501e-13 -5.58986e-13 5.40498e-13 0 0 -4.23538e-13 -1.23956e-14 -4.00952e-13 1.24293e-13 0 0 -4.11033e-13 -1.85288e-13 6.82014e-13 -9.95602e-13 0 0 2.22465e-13 -7.12372e-13 5.91674e-13 -8.65063e-13 0 0 -1.00856e-12 1.22276e-12 -6.05595e-13 -3.77065e-13 0 0 -2.93051e-13 3.44322e-13 2.45314e-13 -8.93346e-13 0 0 5.07491e-13 -6.45424e-13 4.50159e-13 -8.563e-13 0 0 2.72903e-13 -3.53175e-13 -3.74522e-14 -2.98626e-13 0 0 2.18739e-14 -1.6791e-13 -7.48126e-13 3.60036e-13 0 0 -7.5831e-14 -2.31499e-13 -7.6861e-13 4.00893e-13 0 0 -2.15437e-13 -3.08561e-13 -6.83683e-13 3.21049e-13 0 0 -3.83098e-13 -3.40884e-13 -5.02913e-13 4.91687e-14 0 0 -4.35947e-13 -4.08483e-13 -1.80445e-13 -4.40651e-13 0 0 -3.70076e-13 -5.11861e-13 -1.33835e-13 -4.5799e-13 0 0 -2.56077e-13 -3.35745e-13 -5.01529e-13 -9.79184e-14 0 0 -2.82548e-13 -7.5311e-14 -6.42464e-13 -2.29306e-14 0 0 -3.05506e-13 -1.17112e-13 -2.84056e-13 -2.72205e-13 0 0 -2.9937e-13 -1.42593e-13 -9.28732e-14 -4.26693e-13 0 0 -1.15899e-13 -1.64849e-13 -2.47612e-13 -2.92105e-13 0 0 1.12105e-14 -1.15615e-13 -5.51109e-13 2.68587e-15 0 0 -5.79856e-14 -1.31123e-13 -5.10708e-13 9.52626e-15 0 0 -3.11684e-13 -1.48426e-13 -2.27859e-13 -2.03016e-13 0 0 -3.55408e-13 -2.97245e-13 -1.07637e-14 -3.54689e-13 0 0 -6.8535e-14 -4.67537e-13 -1.61493e-13 -2.34498e-13 0 0 -1.32162e-13 -9.88305e-14 -6.41163e-13 -3.24042e-14 0 0 -2.46796e-13 -1.16526e-13 -2.76911e-13 -4.05927e-13 0 0 -3.86196e-13 -1.58717e-13 -6.5959e-14 -4.21431e-13 0 0 -3.80658e-13 -2.27129e-13 -1.24228e-13 -1.85341e-13 0 0 -7.47854e-14 -4.97558e-13 -6.62516e-14 -2.20551e-13 0 0 -2.4202e-13 -1.23196e-13 -5.18101e-13 2.21005e-14 0 0 -3.70382e-13 -1.8016e-13 -2.40733e-13 -2.23681e-13 0 0 -5.20432e-13 -1.52391e-13 -9.94655e-14 -3.02633e-13 0 0 -5.91942e-13 -1.90225e-13 -3.6992e-14 -1.59949e-13 0 0 -2.52227e-13 -3.41447e-13 -1.27235e-13 -1.77512e-14 0 0 -2.52795e-13 -3.91226e-14 -5.796e-13 1.06475e-13 0 0 -3.72695e-13 -2.00151e-13 -1.57867e-13 -4.21688e-13 0 0 -5.53179e-13 -1.39949e-13 -8.89479e-14 -4.74987e-13 0 0 -6.44919e-13 -1.70275e-13 -3.00632e-14 -2.89086e-13 0 0 -2.90542e-13 -3.86509e-13 -3.99916e-14 -1.88898e-13 0 0 -2.1395e-13 -1.63705e-13 -5.30219e-13 1.39397e-13 0 0 -3.27289e-13 -2.33851e-13 -3.24278e-13 -1.4316e-13 0 0 -5.00516e-13 -9.87429e-14 -2.77304e-13 -3.80053e-13 0 0 -5.55527e-13 -8.82788e-14 -1.62649e-13 -3.52881e-13 0 0 -2.60583e-13 -1.37404e-13 -2.82924e-13 -2.30523e-13 0 0 -1.78209e-13 5.24062e-14 -7.54298e-13 -3.14752e-14 0 0 -3.57292e-13 -1.69316e-13 -4.59765e-13 -3.01886e-13 0 0 -3.92616e-13 -4.57135e-13 -3.34917e-13 -2.44557e-13 0 0 -2.88113e-13 -5.94635e-13 -2.64885e-13 -1.89081e-13 0 0 -1.99246e-13 -5.76333e-13 1.19189e-13 -6.9577e-13 0 0 -1.77906e-13 -7.04175e-14 -5.89778e-13 -4.13163e-13 0 0 -1.39135e-13 3.90113e-14 -8.25099e-13 -3.59738e-13 0 0 -4.09089e-13 -1.81083e-13 -1.91759e-13 -6.60507e-13 0 0 -6.63848e-13 -2.23812e-14 -4.46289e-13 1.96953e-14 0 0 -2.69994e-13 -4.88571e-13 -2.24002e-13 2.59556e-13 0 0 -2.41056e-13 -3.55423e-13 -4.4849e-13 3.96347e-13 0 0 -3.60488e-13 -1.34841e-13 -6.47274e-13 5.06539e-13 0 0 -6.07254e-13 -1.6669e-13 -4.40559e-13 5.34134e-13 0 0 -7.36125e-13 -4.62516e-14 -7.74405e-13 9.3245e-13 0 0 -2.59264e-13 -7.19586e-13 -9.23668e-14 3.75814e-13 0 0 -3.53091e-13 -4.20415e-13 -8.79881e-14 -1.00092e-13 0 0 -3.71434e-13 -1.9756e-13 -2.46351e-13 -2.44763e-13 0 0 -4.75674e-13 -1.90953e-13 -1.8422e-13 -2.70284e-13 0 0 -7.1208e-13 -1.77434e-13 -1.99833e-13 -2.01116e-13 0 0 -3.14112e-13 -6.30251e-13 -1.50283e-13 -3.11622e-13 0 0 -6.79762e-14 -4.95111e-13 -9.01029e-13 -8.98076e-14 0 0 -2.60057e-13 -2.77687e-13 -1.00998e-12 -3.88671e-13 0 0 -8.53419e-13 1.91786e-13 -6.71599e-13 -7.07795e-13 0 0 -8.56665e-13 3.66977e-14 -3.05939e-13 -4.27147e-13 0 0 -3.61208e-14 -6.51495e-13 -3.24216e-13 -1.96765e-14 0 0 2.48224e-13 -7.73374e-13 -6.39179e-13 -2.21141e-14 0 0 -2.32049e-13 -4.2933e-13 -5.52881e-13 -9.35778e-13 0 0 -8.76366e-13 1.91225e-13 -7.56284e-13 -1.46786e-12 0 0 -8.67218e-13 1.51118e-13 -1.04184e-12 -9.87096e-13 0 0 -2.71397e-13 -2.56664e-13 -1.17921e-12 -3.55635e-13 0 0 -1.2576e-13 -3.81881e-13 -8.65617e-13 -4.14697e-13 0 0 -2.3045e-13 -7.31192e-13 4.02482e-14 -1.09988e-12 0 0 -2.05652e-13 -7.78859e-13 -1.06593e-13 -9.82181e-13 0 0 -3.71631e-13 -4.92912e-13 -6.95733e-13 -7.15405e-13 0 0 -5.31278e-13 -3.09835e-13 -7.21652e-13 -1.14668e-12 0 0 -5.99478e-13 2.91968e-14 -9.95017e-13 -1.10824e-12 0 0 -1.69853e-13 -4.7469e-13 -7.75834e-13 -7.59993e-13 0 0 1.13309e-13 -9.45566e-13 -5.1581e-13 -3.821e-13 0 0 -2.80021e-13 -6.81318e-13 -4.30323e-13 -4.1926e-13 0 0 -5.80367e-13 -3.58166e-13 -3.4615e-13 -1.0923e-12 0 0 -5.99267e-13 2.08569e-14 -8.22393e-13 -1.20272e-12 0 0 -1.0505e-13 -6.1301e-13 -4.82444e-13 -1.02192e-12 0 0 1.21672e-13 -9.51466e-13 -4.55034e-13 -3.6196e-13 0 0 -2.78835e-13 -4.78386e-13 -8.62304e-13 -4.08573e-17 0 0 -5.48422e-13 -3.07511e-13 -4.96838e-13 -8.28201e-13 0 0 -6.53436e-13 7.38254e-15 -7.73395e-13 -9.63827e-13 0 0 -1.64084e-13 -5.59538e-13 -6.54909e-13 -6.64604e-13 0 0 1.06145e-13 -9.82143e-13 -4.5228e-13 -3.0267e-13 0 0 -3.71308e-13 -5.17036e-13 -7.22067e-13 -3.51303e-14 0 0 -5.22115e-13 -4.492e-13 -4.4535e-13 -7.4325e-13 0 0 -5.69303e-13 -8.72615e-14 -9.90983e-13 -9.48375e-13 0 0 -1.88983e-13 -5.49462e-13 -9.81274e-13 -8.65387e-13 0 0 1.98652e-13 -1.12327e-12 -6.90404e-13 -3.12461e-13 0 0 -5.62598e-13 -3.10952e-13 -6.13039e-13 -2.80919e-13 0 0 -7.0194e-13 -5.11557e-13 6.42313e-13 -1.73688e-12 0 0 -3.99108e-13 -4.86311e-13 -2.0314e-13 -1.13375e-12 0 0 -1.00031e-13 -4.13231e-13 -1.36733e-12 -3.39482e-14 0 0 -3.95525e-13 -5.15524e-13 -8.57598e-13 -5.26675e-13 0 0 -1.28707e-12 2.99829e-13 -9.59321e-13 -6.58512e-13 0 0 -6.00623e-13 -3.22193e-13 -7.62566e-13 -4.12712e-13 0 0 1.07918e-14 -6.61333e-13 -1.26327e-12 4.71313e-13 0 0 2.76694e-14 -9.82546e-13 -8.81893e-13 4.45342e-13 0 0 -5.31062e-13 -8.26994e-13 -2.72999e-13 -2.05976e-13 0 0 -1.25663e-12 1.42222e-13 -9.0123e-13 -4.27763e-14 0
				</DataArray>
				<DataArray Name="VitesseY" type="Float32" format="ascii">