<?xml version="1.0"?>
<VTKFile type="PolyData">
	<PolyData>
		<Piece NumberOfPoints="2601" NumberOfPolys="2500">
			<Points>
				<DataArray type="Float32" NumberOfComponents="3" format="ascii">
 0 0 0 0.02 0 0 0.04 0 0 0.06 0 0 0.08 0 0 0.1 0 0 0.12 0 0 0.14 0 0 0.16 0 0 0.18 0 0 0.2 0 0 0.22 0 0 0.24 0 0 0.26 0 0 0.28 0 0 0.3 0 0 0.32 0 0 0.34 0 0 0.36 0 0 0.38 0 0 0.4 0 0 0.42 0 0 0.44 0 0 0.46 0 0 0.48 0 0 0.5 0 0 0.52 0 0 0.54 0 0 0.56 0 0 0.58 0 0 0.6 0 0 0.62 0 0 0.64 0 0 0.66 0 0 0.68 0 0 0.7 0 0 0.72 0 0 0.74 0 0 0.76 0 0 0.78 0 0 0.8 0 0 0.82 0 0 0.84 0 0 0.86 0 0 0.88 0 0 0.9 0 0 0.92 0 0 0.94 0 0 0.96 0 0 0.98 0 0 1 0 0 0 0.02 0 0.02 0.02 0 0.04 0.02 0 0.06 0.02 0 0.08 0.02 0 0.1 0.02 0 0.12 0.02 0 0.14 0.02 0 0.16 0.02 0 0.18 0.02 0 0.2 0.02 0 0.22 0.02 0 0.24 0.02 0 0.26 0.02 0 0.28 0.02 0 0.3 0.02 0 0.32 0.02 0 0.34 0.02 0 0.36 0.02 0 0.38 0.02 0 0.4 0.02 0 0.42 0.02 0 0.44 0.02 0 0.46 0.02 0 0.48 0.02 0 0.5 0.02 0 0.52 0.02 0 0.54 0.02 0 0.56 0.02 0 0.58 0.02 0 0.6 0.02 0 0.62 0.02 0 0.64 0.02 0 0.66 0.02 0 0.68 0.02 0 0.7 0.02 0 0.72 0.02 0 0.74 0.02 0 0.76 0.02 0 0.78 0.02 0 0.8 0.02 0 0.82 0.02 0 0.84 0.02 0 0.86 0.02 0 0.88 0.02 0 0.9 0.02 0 0.92 0.02 0 0.94 0.02 0 0.96 0.02 0 0.98 0.02 0 1 0.02 0 0 0.04 0 0.02 0.04 0 0.04 0.04 0 0.06 0.04 0 0.08 0.04 0 0.1 0.04 0 0.12 0.04 0 0.14 0.04 0 0.16 0.04 0 0.18 0.04 0 0.2 0.04 0 0.22 0.04 0 0.24 0.04 0 0.26 0.04 0 0.28 0.04 0 0.3 0.04 0 0.32 0.04 0 0.34 0.04 0 0.36 0.04 0 0.38 0.04 0 0.4 0.04 0 0.42 0.04 0 0.44 0.04 0 0.46 0.04 0 0.48 0.04 0 0.5 0.04 0 0.52 0.04 0 0.54 0.04 0 0.56 0.04 0 0.58 0.04 0 0.6 0.04 0 0.62 0.04 0 0.64 0.04 0 0.66 0.04 0 0.68 0.04 0 0.7 0.04 0 0.72 0.04 0 0.74 0.04 0 0.76 0.04 0 0.78 0.04 0 0.8 0.04 0 0.82 0.04 0 0.84 0.04 0 0.86 0.04 0 0.88 0.04 0 0.9 0.04 0 0.92 0.04 0 0.94 0.04 0 0.96 0.04 0 0.98 0.04 0 1 0.04 0 0 0.06 0 0.02 0.06 0 0.04 0.06 0 0.06 0.06 0 0.08 0.06 0 0.1 0.06 0 0.12 0.06 0 0.14 0.06 0 0.16 0.06 0 0.18 0.06 0 0.2 0.06 0 0.22 0.06 0 0.24 0.06 0 0.26 0.06 0 0.28 0.06 0 0.3 0.06 0 0.32 0.06 0 0.34 0.06 0 0.36 0.06 0 0.38 0.06 0 0.4 0.06 0 0.42 0.06 0 0.44 0.06 0 0.46 0.06 0 0.48 0.06 0 0.5 0.06 0 0.52 0.06 0 0.54 0.06 0 0.56 0.06 0 0.58 0.06 0 0.6 0.06 0 0.62 0.06 0 0.64 0.06 0 0.66 0.06 0 0.68 0.06 0 0.7 0.06 0 0.72 0.06 0 0.74 0.06 0 0.76 0.06 0 0.78 0.06 0 0.8 0.06 0 0.82 0.06 0 0.84 0.06 0 0.86 0.06 0 0.88 0.06 0 0.9 0.06 0 0.92 0.06 0 0.94 0.06 0 0.96 0.06 0 0.98 0.06 0 1 0.06 0 0 0.08 0 0.02 0.08 0 0.04 0.08 0 0.06 0.08 0 0.08 0.08 0 0.1 0.08 0 0.12 0.08 0 0.14 0.08 0 0.16 0.08 0 0.18 0.08 0 0.2 0.08 0 0.22 0.08 0 0.24 0.08 0 0.26 0.08 0 0.28 0.08 0 0.3 0.08 0 0.32 0.08 0 0.34 0.08 0 0.36 0.08 0 0.38 0.08 0 0.4 0.08 0 0.42 0.08 0 0.44 0.08 0 0.46 0.08 0 0.48 0.08 0 0.5 0.08 0 0.52 0.08 0 0.54 0.08 0 0.56 0.08 0 0.58 0.08 0 0.6 0.08 0 0.62 0.08 0 0.64 0.08 0 0.66 0.08 0 0.68 0.08 0 0.7 0.08 0 0.72 0.08 0 0.74 0.08 0 0.76 0.08 0 0.78 0.08 0 0.8 0.08 0 0.82 0.08 0 0.84 0.08 0 0.86 0.08 0 0.88 0.08 0 0.9 0.08 0 0.92 0.08 0 0.94 0.08 0 0.96 0.08 0 0.98 0.08 0 1 0.08 0 0 0.1 0 0.02 0.1 0 0.04 0.1 0 0.06 0.1 0 0.08 0.1 0 0.1 0.1 0 0.12 0.1 0 0.14 0.1 0 0.16 0.1 0 0.18 0.1 0 0.2 0.1 0 0.22 0.1 0 0.24 0.1 0 0.26 0.1 0 0.28 0.1 0 0.3 0.1 0 0.32 0.1 0 0.34 0.1 0 0.36 0.1 0 0.38 0.1 0 0.4 0.1 0 0.42 0.1 0 0.44 0.1 0 0.46 0.1 0 0.48 0.1 0 0.5 0.1 0 0.52 0.1 0 0.54 0.1 0 0.56 0.1 0 0.58 0.1 0 0.6 0.1 0 0.62 0.1 0 0.64 0.1 0 0.66 0.1 0 0.68 0.1 0 0.7 0.1 0 0.72 0.1 0 0.74 0.1 0 0.76 0.1 0 0.78 0.1 0 0.8 0.1 0 0.82 0.1 0 0.84 0.1 0 0.86 0.1 0 0.88 0.1 0 0.9 0.1 0 0.92 0.1 0 0.94 0.1 0 0.96 0.1 0 0.98 0.1 0 1 0.1 0 0 0.12 0 0.02 0.12 0 0.04 0.12 0 0.06 0.12 0 0.08 0.12 0 0.1 0.12 0 0.12 0.12 0 0.14 0.12 0 0.16 0.12 0 0.18 0.12 0 0.2 0.12 0 0.22 0.12 0 0.24 0.12 0 0.26 0.12 0 0.28 0.12 0 0.3 0.12 0 0.32 0.12 0 0.34 0.12 0 0.36 0.12 0 0.38 0.12 0 0.4 0.12 0 0.42 0.12 0 0.44 0.12 0 0.46 0.12 0 0.48 0.12 0 0.5 0.12 0 0.52 0.12 0 0.54 0.12 0 0.56 0.12 0 0.58 0.12 0 0.6 0.12 0 0.62 0.12 0 0.64 0.12 0 0.66 0.12 0 0.68 0.12 0 0.7 0.12 0 0.72 0.12 0 0.74 0.12 0 0.76 0.12 0 0.78 0.12 0 0.8 0.12 0 0.82 0.12 0 0.84 0.12 0 0.86 0.12 0 0.88 0.12 0 0.9 0.12 0 0.92 0.12 0 0.94 0.12 0 0.96 0.12 0 0.98 0.12 0 1 0.12 0 0 0.14 0 0.02 0.14 0 0.04 0.14 0 0.06 0.14 0 0.08 0.14 0 0.1 0.14 0 0.12 0.14 0 0.14 0.14 0 0.16 0.14 0 0.18 0.14 0 0.2 0.14 0 0.22 0.14 0 0.24 0.14 0 0.26 0.14 0 0.28 0.14 0 0.3 0.14 0 0.32 0.14 0 0.34 0.14 0 0.36 0.14 0 0.38 0.14 0 0.4 0.14 0 0.42 0.14 0 0.44 0.14 0 0.46 0.14 0 0.48 0.14 0 0.5 0.14 0 0.52 0.14 0 0.54 0.14 0 0.56 0.14 0 0.58 0.14 0 0.6 0.14 0 0.62 0.14 0 0.64 0.14 0 0.66 0.14 0 0.68 0.14 0 0.7 0.14 0 0.72 0.14 0 0.74 0.14 0 0.76 0.14 0 0.78 0.14 0 0.8 0.14 0 0.82 0.14 0 0.84 0.14 0 0.86 0.14 0 0.88 0.14 0 0.9 0.14 0 0.92 0.14 0 0.94 0.14 0 0.96 0.14 0 0.98 0.14 0 1 0.14 0 0 0.16 0 0.02 0.16 0 0.04 0.16 0 0.06 0.16 0 0.08 0.16 0 0.1 0.16 0 0.12 0.16 0 0.14 0.16 0 0.16 0.16 0 0.18 0.16 0 0.2 0.16 0 0.22 0.16 0 0.24 0.16 0 0.26 0.16 0 0.28 0.16 0 0.3 0.16 0 0.32 0.16 0 0.34 0.16 0 0.36 0.16 0 0.38 0.16 0 0.4 0.16 0 0.42 0.16 0 0.44 0.16 0 0.46 0.16 0 0.48 0.16 0 0.5 0.16 0 0.52 0.16 0 0.54 0.16 0 0.56 0.16 0 0.58 0.16 0 0.6 0.16 0 0.62 0.16 0 0.64 0.16 0 0.66 0.16 0 0.68 0.16 0 0.7 0.16 0 0.72 0.16 0 0.74 0.16 0 0.76 0.16 0 0.78 0.16 0 0.8 0.16 0 0.82 0.16 0 0.84 0.16 0 0.86 0.16 0 0.88 0.16 0 0.9 0.16 0 0.92 0.16 0 0.94 0.16 0 0.96 0.16 0 0.98 0.16 0 1 0.16 0 0 0.18 0 0.02 0.18 0 0.04 0.18 0 0.06 0.18 0 0.08 0.18 0 0.1 0.18 0 0.12 0.18 0 0.14 0.18 0 0.16 0.18 0 0.18 0.18 0 0.2 0.18 0 0.22 0.18 0 0.24 0.18 0 0.26 0.18 0 0.28 0.18 0 0.3 0.18 0 0.32 0.18 0 0.34 0.18 0 0.36 0.18 0 0.38 0.18 0 0.4 0.18 0 0.42 0.18 0 0.44 0.18 0 0.46 0.18 0 0.48 0.18 0 0.5 0.18 0 0.52 0.18 0 0.54 0.18 0 0.56 0.18 0 0.58 0.18 0 0.6 0.18 0 0.62 0.18 0 0.64 0.18 0 0.66 0.18 0 0.68 0.18 0 0.7 0.18 0 0.72 0.18 0 0.74 0.18 0 0.76 0.18 0 0.78 0.18 0 0.8 0.18 0 0.82 0.18 0 0.84 0.18 0 0.86 0.18 0 0.88 0.18 0 0.9 0.18 0 0.92 0.18 0 0.94 0.18 0 0.96 0.18 0 0.98 0.18 0 1 0.18 0 0 0.2 0 0.02 0.2 0 0.04 0.2 0 0.06 0.2 0 0.08 0.2 0 0.1 0.2 0 0.12 0.2 0 0.14 0.2 0 0.16 0.2 0 0.18 0.2 0 0.2 0.2 0 0.22 0.2 0 0.24 0.2 0 0.26 0.2 0 0.28 0.2 0 0.3 0.2 0 0.32 0.2 0 0.34 0.2 0 0.36 0.2 0 0.38 0.2 0 0.4 0.2 0 0.42 0.2 0 0.44 0.2 0 0.46 0.2 0 0.48 0.2 0 0.5 0.2 0 0.52 0.2 0 0.54 0.2 0 0.56 0.2 0 0.58 0.2 0 0.6 0.2 0 0.62 0.2 0 0.64 0.2 0 0.66 0.2 0 0.68 0.2 0 0.7 0.2 0 0.72 0.2 0 0.74 0.2 0 0.76 0.2 0 0.78 0.2 0 0.8 0.2 0 0.82 0.2 0 0.84 0.2 0 0.86 0.2 0 0.88 0.2 0 0.9 0.2 0 0.92 0.2 0 0.94 0.2 0 0.96 0.2 0 0.98 0.2 0 1 0.2 0 0 0.22 0 0.02 0.22 0 0.04 0.22 0 0.06 0.22 0 0.08 0.22 0 0.1 0.22 0 0.12 0.22 0 0.14 0.22 0 0.16 0.22 0 0.18 0.22 0 0.2 0.22 0 0.22 0.22 0 0.24 0.22 0 0.26 0.22 0 0.28 0.22 0 0.3 0.22 0 0.32 0.22 0 0.34 0.22 0 0.36 0.22 0 0.38 0.22 0 0.4 0.22 0 0.42 0.22 0 0.44 0.22 0 0.46 0.22 0 0.48 0.22 0 0.5 0.22 0 0.52 0.22 0 0.54 0.22 0 0.56 0.22 0 0.58 0.22 0 0.6 0.22 0 0.62 0.22 0 0.64 0.22 0 0.66 0.22 0 0.68 0.22 0 0.7 0.22 0 0.72 0.22 0 0.74 0.22 0 0.76 0.22 0 0.78 0.22 0 0.8 0.22 0 0.82 0.22 0 0.84 0.22 0 0.86 0.22 0 0.88 0.22 0 0.9 0.22 0 0.92 0.22 0 0.94 0.22 0 0.96 0.22 0 0.98 0.22 0 1 0.22 0 0 0.24 0 0.02 0.24 0 0.04 0.24 0 0.06 0.24 0 0.08 0.24 0 0.1 0.24 0 0.12 0.24 0 0.14 0.24 0 0.16 0.24 0 0.18 0.24 0 0.2 0.24 0 0.22 0.24 0 0.24 0.24 0 0.26 0.24 0 0.28 0.24 0 0.3 0.24 0 0.32 0.24 0 0.34 0.24 0 0.36 0.24 0 0.38 0.24 0 0.4 0.24 0 0.42 0.24 0 0.44 0.24 0 0.46 0.24 0 0.48 0.24 0 0.5 0.24 0 0.52 0.24 0 0.54 0.24 0 0.56 0.24 0 0.58 0.24 0 0.6 0.24 0 0.62 0.24 0 0.64 0.24 0 0.66 0.24 0 0.68 0.24 0 0.7 0.24 0 0.72 0.24 0 0.74 0.24 0 0.76 0.24 0 0.78 0.24 0 0.8 0.24 0 0.82 0.24 0 0.84 0.24 0 0.86 0.24 0 0.88 0.24 0 0.9 0.24 0 0.92 0.24 0 0.94 0.24 0 0.96 0.24 0 0.98 0.24 0 1 0.24 0 0 0.26 0 0.02 0.26 0 0.04 0.26 0 0.06 0.26 0 0.08 0.26 0 0.1 0.26 0 0.12 0.26 0 0.14 0.26 0 0.16 0.26 0 0.18 0.26 0 0.2 0.26 0 0.22 0.26 0 0.24 0.26 0 0.26 0.26 0 0.28 0.26 0 0.3 0.26 0 0.32 0.26 0 0.34 0.26 0 0.36 0.26 0 0.38 0.26 0 0.4 0.26 0 0.42 0.26 0 0.44 0.26 0 0.46 0.26 0 0.48 0.26 0 0.5 0.26 0 0.52 0.26 0 0.54 0.26 0 0.56 0.26 0 0.58 0.26 0 0.6 0.26 0 0.62 0.26 0 0.64 0.26 0 0.66 0.26 0 0.68 0.26 0 0.7 0.26 0 0.72 0.26 0 0.74 0.26 0 0.76 0.26 0 0.78 0.26 0 0.8 0.26 0 0.82 0.26 0 0.84 0.26 0 0.86 0.26 0 0.88 0.26 0 0.9 0.26 0 0.92 0.26 0 0.94 0.26 0 0.96 0.26 0 0.98 0.26 0 1 0.26 0 0 0.28 0 0.02 0.28 0 0.04 0.28 0 0.06 0.28 0 0.08 0.28 0 0.1 0.28 0 0.12 0.28 0 0.14 0.28 0 0.16 0.28 0 0.18 0.28 0 0.2 0.28 0 0.22 0.28 0 0.24 0.28 0 0.26 0.28 0 0.28 0.28 0 0.3 0.28 0 0.32 0.28 0 0.34 0.28 0 0.36 0.28 0 0.38 0.28 0 0.4 0.28 0 0.42 0.28 0 0.44 0.28 0 0.46 0.28 0 0.48 0.28 0 0.5 0.28 0 0.52 0.28 0 0.54 0.28 0 0.56 0.28 0 0.58 0.28 0 0.6 0.28 0 0.62 0.28 0 0.64 0.28 0 0.66 0.28 0 0.68 0.28 0 0.7 0.28 0 0.72 0.28 0 0.74 0.28 0 0.76 0.28 0 0.78 0.28 0 0.8 0.28 0 0.82 0.28 0 0.84 0.28 0 0.86 0.28 0 0.88 0.28 0 0.9 0.28 0 0.92 0.28 0 0.94 0.28 0 0.96 0.28 0 0.98 0.28 0 1 0.28 0 0 0.3 0 0.02 0.3 0 0.04 0.3 0 0.06 0.3 0 0.08 0.3 0 0.1 0.3 0 0.12 0.3 0 0.14 0.3 0 0.16 0.3 0 0.18 0.3 0 0.2 0.3 0 0.22 0.3 0 0.24 0.3 0 0.26 0.3 0 0.28 0.3 0 0.3 0.3 0 0.32 0.3 0 0.34 0.3 0 0.36 0.3 0 0.38 0.3 0 0.4 0.3 0 0.42 0.3 0 0.44 0.3 0 0.46 0.3 0 0.48 0.3 0 0.5 0.3 0 0.52 0.3 0 0.54 0.3 0 0.56 0.3 0 0.58 0.3 0 0.6 0.3 0 0.62 0.3 0 0.64 0.3 0 0.66 0.3 0 0.68 0.3 0 0.7 0.3 0 0.72 0.3 0 0.74 0.3 0 0.76 0.3 0 0.78 0.3 0 0.8 0.3 0 0.82 0.3 0 0.84 0.3 0 0.86 0.3 0 0.88 0.3 0 0.9 0.3 0 0.92 0.3 0 0.94 0.3 0 0.96 0.3 0 0.98 0.3 0 1 0.3 0 0 0.32 0 0.02 0.32 0 0.04 0.32 0 0.06 0.32 0 0.08 0.32 0 0.1 0.32 0 0.12 0.32 0 0.14 0.32 0 0.16 0.32 0 0.18 0.32 0 0.2 0.32 0 0.22 0.32 0 0.24 0.32 0 0.26 0.32 0 0.28 0.32 0 0.3 0.32 0 0.32 0.32 0 0.34 0.32 0 0.36 0.32 0 0.38 0.32 0 0.4 0.32 0 0.42 0.32 0 0.44 0.32 0 0.46 0.32 0 0.48 0.32 0 0.5 0.32 0 0.52 0.32 0 0.54 0.32 0 0.56 0.32 0 0.58 0.32 0 0.6 0.32 0 0.62 0.32 0 0.64 0.32 0 0.66 0.32 0 0.68 0.32 0 0.7 0.32 0 0.72 0.32 0 0.74 0.32 0 0.76 0.32 0 0.78 0.32 0 0.8 0.32 0 0.82 0.32 0 0.84 0.32 0 0.86 0.32 0 0.88 0.32 0 0.9 0.32 0 0.92 0.32 0 0.94 0.
[...]
			<PointData Scalars="VitesseX">
				<DataArray Name="VitesseX" type="Float32" format="ascii">
 0 0 0 0 0 0 0 0 0 0 0 0 0 0 0 0 0 0 0 0 0 0 0 0 0 0 0 0 0 0 0 0 0 0 0 0 0 0 0 0 0 0 0 0 0 0 0 0 0 0 -0 0 -0.000485399 -0.00193417 -0.00432355 -0.00761603 -0.0117598 -0.0166896 -0.0223276 -0.028585 -0.0353631 -0.0425547 -0.0500465 -0.0577192 -0.0654521 -0.0731244 -0.080614 -0.0878028 -0.0945772 -0.10083 -0.106463 -0.111388 -0.115526 -0.118812 -0.121206 -0.12264 -0.123112 -0.122628 -0.121149 -0.118746 -0.115443 -0.111291 -0.106356 -0.100715 -0.0944592 -0.0876854 -0.0805007 -0.0730181 -0.0653562 -0.0576343 -0.049973 -0.0424939 -0.0353146 -0.0285482 -0.022301 -0.0166715 -0.0117485 -0.00760971 -0.0043205 -0.00193284 -0.000485214 -5.26783e-27 0 -0.000963452 -0.00384067 -0.00858825 -0.0151334 -0.0233746 -0.0331828 -0.0444039 -0.0568606 -0.0703558 -0.0846754 -0.0995915 -0.114864 -0.13025 -0.145511 -0.1604 -0.174679 -0.188123 -0.200518 -0.211667 -0.221394 -0.229548 -0.235999 -0.240692 -0.24344 -0.244273 -0.243273 -0.24024 -0.235406 -0.228793 -0.220506 -0.210678 -0.199464 -0.187039 -0.173601 -0.159358 -0.144535 -0.129365 -0.114082 -0.0989204 -0.0841215 -0.0699166 -0.056528 -0.0441654 -0.0330231 -0.0232766 -0.0150801 -0.0085639 -0.00383171 -0.000962251 -1.04534e-26 0 -0.00142647 -0.00568828 -0.012723 -0.0224249 -0.0346448 -0.0491924 -0.0658395 -0.0843232 -0.10435 -0.125601 -0.147736 -0.170395 -0.193217 -0.215847 -0.237916 -0.25907 -0.278972 -0.297305 -0.313777 -0.328129 -0.340136 -0.349611 -0.356491 -0.360467 -0.361566 -0.360044 -0.355422 -0.348181 -0.338317 -0.325989 -0.311395 -0.294765 -0.276361 -0.256472 -0.235407 -0.213495 -0.191083 -0.16851 -0.14612 -0.124267 -0.103293 -0.0835225 -0.0652657 -0.0488083 -0.0344094 -0.0222971 -0.0126649 -0.00566721 -0.00142366 -1.5475e-26 0 -0.0018672 -0.00744809 -0.0166635 -0.0293773 -0.045396 -0.0644717 -0.0863054 -0.110552 -0.136826 -0.164707 -0.193747 -0.223468 -0.253394 -0.283062 -0.311981 -0.339686 -0.365733 -0.389705 -0.41122 -0.429941 -0.445572 -0.457874 -0.466784 -0.471877 -0.47314 -0.47109 -0.464878 -0.455292 -0.442288 -0.426077 -0.40692 -0.385119 -0.361019 -0.334994 -0.307451 -0.278815 -0.249539 -0.220064 -0.190828 -0.162299 -0.134917 -0.109107 -0.08527 -0.0637788 -0.0449717 -0.0291471 -0.0165591 -0.00741053 -0.0018622 -2.02532e-26 0 -0.00227869 -0.00909236 -0.0203475 -0.035881 -0.0554589 -0.0787798 -0.105479 -0.135134 -0.167273 -0.201378 -0.236899 -0.273246 -0.309834 -0.346097 -0.381428 -0.415257 -0.447038 -0.476261 -0.50246 -0.525222 -0.544192 -0.559079 -0.569824 -0.575907 -0.577234 -0.574648 -0.566879 -0.555048 -0.539065 -0.51919 -0.495745 -0.469101 -0.439677 -0.407931 -0.374354 -0.339464 -0.303813 -0.26793 -0.232342 -0.197619 -0.164293 -0.132879 -0.103863 -0.077699 -0.0547973 -0.0355225 -0.0201852 -0.00903436 -0.00227097 -2.47121e-26 0 -0.00265446 -0.0105951 -0.0237169 -0.0418335 -0.0646748 -0.0918913 -0.123058 -0.157682 -0.19521 -0.235035 -0.276512 -0.318945 -0.361648 -0.403958 -0.445163 -0.484591 -0.521604 -0.555606 -0.586054 -0.612468 -0.634436 -0.651624 -0.663981 -0.670902 -0.672208 -0.669072 -0.659811 -0.645871 -0.627117 -0.603857 -0.576468 -0.545385 -0.511095 -0.474131 -0.435063 -0.394489 -0.353049 -0.311353 -0.270007 -0.229669 -0.190957 -0.154463 -0.120753 -0.0903497 -0.0637318 -0.0413229 -0.0234862 -0.0105133 -0.00264359 -2.8781e-26 0 -0.00298858 -0.0119327 -0.0267186 -0.0471407 -0.0728983 -0.103599 -0.138766 -0.17784 -0.220197 -0.265149 -0.311962 -0.359844 -0.408017 -0.455733 -0.502178 -0.546593 -0.588254 -0.626487 -0.660681 -0.690297 -0.714876 -0.734045 -0.747764 -0.755349 -0.756565 -0.752859 -0.742201 -0.726323 -0.70505 -0.678738 -0.647812 -0.612764 -0.574144 -0.532549 -0.488617 -0.443019 -0.39647 -0.34965 -0.303229 -0.257945 -0.214488 -0.173521 -0.135673 -0.101532 -0.0716344 -0.0464573 -0.0264105 -0.0118242 -0.0029742 -3.23952e-26 0 -0.0032758 -0.013084 -0.0293051 -0.0517191 -0.0799995 -0.113719 -0.152353 -0.19529 -0.241839 -0.291242 -0.342687 -0.395297 -0.44821 -0.500602 -0.551573 -0.600282 -0.645931 -0.68778 -0.725158 -0.757476 -0.784236 -0.805035 -0.819846 -0.827902 -0.828973 -0.824675 -0.812745 -0.795128 -0.77163 -0.742646 -0.708646 -0.670172 -0.627826 -0.58226 -0.534171 -0.484288 -0.43339 -0.382213 -0.331482 -0.282001 -0.234517 -0.189751 -0.148388 -0.11107 -0.0783811 -0.0508449 -0.028912 -0.0129468 -0.00325766 -3.54974e-26 0 -0.0035116 -0.0140308 -0.0314358 -0.0554961 -0.0858664 -0.12209 -0.163606 -0.209756 -0.259794 -0.312901 -0.368201 -0.424741 -0.481589 -0.537856 -0.592565 -0.644807 -0.693722 -0.738514 -0.778463 -0.81294 -0.841416 -0.863467 -0.879088 -0.887404 -0.888292 -0.883378 -0.870322 -0.851196 -0.825802 -0.794569 -0.758008 -0.7167 -0.671291 -0.622478 -0.571003 -0.517642 -0.463225 -0.408528 -0.35432 -0.301455 -0.250725 -0.202896 -0.158698 -0.118813 -0.0838655 -0.0544169 -0.0309516 -0.0138634 -0.00348952 -3.8038e-26 0 -0.00369226 -0.0147582 -0.0330768 -0.0584123 -0.090406 -0.128581 -0.172346 -0.221008 -0.273777 -0.329785 -0.388101 -0.447711 -0.507627 -0.566904 -0.624503 -0.679462 -0.730869 -0.777884 -0.81975 -0.855809 -0.885509 -0.908414 -0.924553 -0.932905 -0.933585 -0.928037 -0.914021 -0.893638 -0.866706 -0.833684 -0.795114 -0.751609 -0.703849 -0.652564 -0.598529 -0.542552 -0.485501 -0.428178 -0.371381 -0.315999 -0.262857 -0.212751 -0.16644 -0.124639 -0.0880014 -0.057117 -0.0324974 -0.0145598 -0.00366616 -3.99768e-26 0 -0.00381493 -0.0152546 -0.0342023 -0.0604214 -0.0935466 -0.133088 -0.178435 -0.228868 -0.283566 -0.341624 -0.40207 -0.46384 -0.525909 -0.587283 -0.64688 -0.703695 -0.756781 -0.805265 -0.848365 -0.885403 -0.915817 -0.939166 -0.955524 -0.963684 -0.964185 -0.95826 -0.943607 -0.922379 -0.894401 -0.860156 -0.820208 -0.775199 -0.725832 -0.672862 -0.617088 -0.559341 -0.500511 -0.441419 -0.382881 -0.325809 -0.271045 -0.219407 -0.171674 -0.12858 -0.0908013 -0.0589456 -0.0335441 -0.0150312 -0.00378564 -4.12828e-26 0 -0.00387859 -0.0155194 -0.0348173 -0.0615432 -0.0953336 -0.135694 -0.182004 -0.233526 -0.289417 -0.348744 -0.410503 -0.473591 -0.536956 -0.599564 -0.660297 -0.718118 -0.772053 -0.821206 -0.86478 -0.902088 -0.932564 -0.955774 -0.971888 -0.979316 -0.979429 -0.972313 -0.956799 -0.934596 -0.905645 -0.870447 -0.829584 -0.783704 -0.733518 -0.679783 -0.623297 -0.564889 -0.505448 -0.445777 -0.386699 -0.329116 -0.273867 -0.221766 -0.173592 -0.13008 -0.0919121 -0.0597042 -0.0339994 -0.0152464 -0.00384293 -4.19352e-26 0 -0.00387865 -0.0155202 -0.0348211 -0.0615544 -0.0953591 -0.135743 -0.182087 -0.233653 -0.289598 -0.348984 -0.410802 -0.473944 -0.537354 -0.599989 -0.66073 -0.718538 -0.772439 -0.821541 -0.86505 -0.902288 -0.932696 -0.955846 -0.971915 -0.97932 -0.979424 -0.97227 -0.956684 -0.934386 -0.905327 -0.870018 -0.829051 -0.783085 -0.732839 -0.679073 -0.622589 -0.564212 -0.50483 -0.445234 -0.386245 -0.328755 -0.273595 -0.221574 -0.173467 -0.130006 -0.091873 -0.059687 -0.0339935 -0.0152451 -0.00384284 -4.19238e-26 0 -0.00382158 -0.0153076 -0.0343773 -0.060824 -0.0943032 -0.134335 -0.180307 -0.231487 -0.287027 -0.345988 -0.407352 -0.469996 -0.532867 -0.5949 -0.654969 -0.712027 -0.765094 -0.813278 -0.855789 -0.891958 -0.921243 -0.943238 -0.958283 -0.964144 -0.963818 -0.955718 -0.939802 -0.917249 -0.888139 -0.852989 -0.812388 -0.766988 -0.717492 -0.664644 -0.609218 -0.552011 -0.493884 -0.435583 -0.377913 -0.321724 -0.267817 -0.216971 -0.169936 -0.127424 -0.0901 -0.0585723 -0.0333817 -0.014982 -0.00377935 -4.12487e-26 0 -0.00370147 -0.0148319 -0.0333215 -0.0589777 -0.0914728 -0.130346 -0.175005 -0.224738 -0.278718 -0.336026 -0.395664 -0.45653 -0.517597 -0.57781 -0.636069 -0.691353 -0.742706 -0.789263 -0.830261 -0.86506 -0.893142 -0.914129 -0.928416 -0.933581 -0.933085 -0.924373 -0.90849 -0.88614 -0.857512 -0.823121 -0.783549 -0.739432 -0.691452 -0.640324 -0.58679 -0.53161 -0.475601 -0.419461 -0.363962 -0.309906 -0.258048 -0.209129 -0.163861 -0.122927 -0.0869666 -0.056568 -0.0322593 -0.014488 -0.00365702 -3.99208e-26 0 -0.00352424 -0.0141319 -0.0317716 -0.056272 -0.0873303 -0.124512 -0.167256 -0.214876 -0.266577 -0.32147 -0.378587 -0.436855 -0.495285 -0.552841 -0.608461 -0.661155 -0.710003 -0.754172 -0.792937 -0.82569 -0.851952 -0.871375 -0.884455 -0.888412 -0.887668 -0.878387 -0.862743 -0.840895 -0.813154 -0.780026 -0.742077 -0.699919 -0.654202 -0.605602 -0.554815 -0.502548 -0.449567 -0.396501 -0.344082 -0.293044 -0.244086 -0.197895 -0.155136 -0.116448 -0.0824355 -0.0536579 -0.0306225 -0.0137641 -0.00347687 -3.79613e-26 0 -0.00329168 -0.013211 -0.0297266 -0.0526926 -0.0818365 -0.116758 -0.156933 -0.201715 -0.250352 -0.301996 -0.355723 -0.410506 -0.465408 -0.519426 -0.57155 -0.620837 -0.666413 -0.707493 -0.743399 -0.773566 -0.797559 -0.815069 -0.826689 -0.829307 -0.828285 -0.81851 -0.803298 -0.782243 -0.755778 -0.724395 -0.688637 -0.649082 -0.606339 -0.561032 -0.513801 -0.46529 -0.416195 -0.367068 -0.318588 -0.271405 -0.226152 -0.183447 -0.143898 -0.108089 -0.0765778 -0.0498877 -0.0284968 -0.0128215 -0.0032417 -3.54015e-26 0 -0.00300745 -0.0120835 -0.0272188 -0.0482962 -0.0750782 -0.107206 -0.144199 -0.185464 -0.230298 -0.277911 -0.327435 -0.377903 -0.428443 -0.478097 -0.525924 -0.571041 -0.612633 -0.649974 -0.68244 -0.709523 -0.730836 -0.746225 -0.755716 -0.757655 -0.755534 -0.745835 -0.731109 -0.711124 -0.686303 -0.657119 -0.624083 -0.587733 -0.548625 -0.507325 -0.464402 -0.420428 -0.376014 -0.33163 -0.287883 -0.245333 -0.204529 -0.166015 -0.130325 -0.0979811 -0.0694859 -0.0453166 -0.0259156 -0.0116749 -0.00295519 -3.22821e-26 0 -0.00267603 -0.0107673 -0.0242879 -0.0431522 -0.0671623 -0.0960063 -0.129258 -0.16638 -0.206735 -0.249598 -0.294172 -0.339563 -0.384975 -0.429511 -0.47231 -0.512561 -0.549521 -0.582531 -0.611035 -0.634583 -0.652847 -0.665844 -0.672936 -0.674251 -0.67088 -0.661396 -0.647328 -0.628672 -0.605837 -0.579269 -0.549443 -0.516847 -0.481977 -0.445331 -0.4074 -0.368675 -0.329654 -0.290746 -0.252453 -0.215238 -0.179558 -0.145871 -0.11463 -0.0862838 -0.0612713 -0.0400165 -0.0229193 -0.0103422 -0.00262182 -2.86528e-26 0 -0.00230263 -0.00928316 -0.0209802 -0.0373419 -0.058214 -0.0833369 -0.112344 -0.144765 -0.180035 -0.217505 -0.256461 -0.296094 -0.335693 -0.374438 -0.411557 -0.446324 -0.478077 -0.506235 -0.530314 -0.549935 -0.56483 -0.57517 -0.579757 -0.580302 -0.575727 -0.566531 -0.553284 -0.536195 -0.515655 -0.49208 -0.465899 -0.437546 -0.407451 -0.376032 -0.343696 -0.310847 -0.277851 -0.245062 -0.212858 -0.181596 -0.151635 -0.123335 -0.0970613 -0.0731814 -0.0520633 -0.0340706 -0.0195551 -0.00884411 -0.00224679 -2.45714e-26 0 -0.00189315 -0.00765457 -0.017348 -0.0309571 -0.0483748 -0.0693978 -0.0937255 -0.120961 -0.150621 -0.182142 -0.214897 -0.248188 -0.281379 -0.313751 -0.344628 -0.373379 -0.399432 -0.422292 -0.441555 -0.456918 -0.468209 -0.475533 -0.477792 -0.47716 -0.471643 -0.462741 -0.450464 -0.435156 -0.417183 -0.396928 -0.37477 -0.351082 -0.32622 -0.30052 -0.274294 -0.24785 -0.221425 -0.195299 -0.16972 -0.144936 -0.121197 -0.0987606 -0.0778949 -0.05888 -0.0420066 -0.0275725 -0.0158757 -0.00720411 -0.00183597 -2.01027e-26 0 -0.00145403 -0.00590721 -0.0134485 -0.0240987 -0.0378 -0.0544095 -0.073697 -0.0953458 -0.118958 -0.144066 -0.170139 -0.196601 -0.222891 -0.248407 -0.27258 -0.294877 -0.314826 -0.332025 -0.346157 -0.356995 -0.364567 -0.36828 -0.368978 -0.366221 -0.360329 -0.351658 -0.340487 -0.327144 -0.311972 -0.295312 -0.277491 -0.258816 -0.239564 -0.219985 -0.200294 -0.180663 -0.161264 -0.142238 -0.123719 -0.105835 -0.0887247 -0.0725349 -0.0574326 -0.0436047 -0.0312597 -0.0206243 -0.0119389 -0.00544785 -0.00139582 -1.53175e-26 0 -0.000992191 -0.00406864 -0.00934325 -0.0168749 -0.0266566 -0.0386087 -0.0525749 -0.0683227 -0.0855476 -0.103881 -0.122898 -0.142144 -0.161151 -0.179439 -0.196547 -0.212054 -0.225591 -0.236855 -0.245617 -0.251815 -0.255125 -0.255918 -0.254092 -0.249809 -0.243388 -0.235027 -0.225077 -0.213854 -0.201671 -0.188826 -0.17559 -0.162203 -0.148848 -0.135687 -0.122833 -0.11036 -0.0983131 -0.0867155 -0.0755779 -0.0649096 -0.0547287 -0.0450708 -0.0359965 -0.0275961 -0.0199916 -0.0133354 -0.00780666 -0.00360285 -0.00093323 -1.02916e-26 0 -0.000514908 -0.00216785 -0.00509709 -0.00939967 -0.0151206 -0.0222447 -0.0306926 -0.040319 -0.0509162 -0.0622206 -0.0739194 -0.0856766 -0.0971333 -0.10793 -0.117726 -0.126212 -0.133128 -0.138286 -0.141533 -0.14277 -0.142151 -0.139587 -0.135352 -0.129624 -0.12265 -0.114672 -0.106048 -0.0970777 -0.0880341 -0.0791678 -0.0706926 -0.0627719 -0.0555162 -0.0489841 -0.0431834 -0.0380776 -0.0335932 -0.0296306 -0.0260778 -0.0228213 -0.019759 -0.0168117 -0.013932 -0.0111112 -0.00838254 -0.0058219 -0.00354444 -0.0016982 -0.000455483 -5.10454e-27 0 -2.97031e-05 -0.000234822 -0.000776951 -0.00179095 -0.00337378 -0.00557584 -0.00839538 -0.0117765 -0.0156106 -0.0197417 -0.0239751 -0.0280882 -0.0318443 -0.0350071 -0.0373556 -0.0386984 -0.0388865 -0.0378231 -0.0354719 -0.0318598 -0.0270777 -0.0212768 -0.0146608 -0.00747647 -1.31042e-07 0.00747646 0.0146608 0.0212766 0.0270773 0.0318596 0.0354714 0.0378227 0.0388863 0.0386985 0.0373561 0.0350079 0.0318449 0.0280885 0.0239753 0.0197418 0.0156106 0.0117765 0.00839538 0.00557584 0.00337378 0.00179095 0.000776951 0.000234822 2.97031e-05 1.61768e-28 0 0.000455483 0.0016982 0.00354444 0.0058219 0.00838254 0.0111112 0.013932 0.0168117 0.019759 0.0228213 0.026078 0.0296309 0.0335934 0.0380782 0.0431841 0.0489844 0.0555161 0.0627716 0.0706925 0.0791676 0.0880337 0.0970775 0.106048 0.114672 0.12265 0.129624 0.135352 0.139587 0.142151 0.14277 0.141533 0.138286 0.133128 0.126212 0.117726 0.107931 0.0971341 0.0856772 0.0739196 0.0622207 0.0509162 0.040319 0.0306926 0.0222447 0.0151206 0.00939967 0.00509709 0.00216785 0.000514908 5.42427e-27 0 0.00093323 0.00360285 0.00780666 0.0133354 0.0199916 0.0275961 0.0359965 0.0450708 0.0547287 0.0649096 0.075578 0.0867158 0.0983135 0.11036 0.122833 0.135688 0.148848 0.162203 0.17559 0.188826 0.201671 0.213854 0.225077 0.235027 0.243388 0.249809 0.254092 0.255918 0.255125 0.251815 0.245617 0.236854 0.225591 0.212054 0.196547 0.179439 0.161152 0.142145 0.122899 0.103881 0.0855476 0.0683227 0.0525749 0.0386087 0.0266566 0.0168749 0.00934325 0.00406864 0.000992191 1.06001e-26 0 0.00139582 0.00544785 0.0119389 0.0206243 0.0312597 0.0436047 0.0574326 0.0725349 0.0887247 0.105835 0.123719 0.142238 0.161264 0.180664 0.200294 0.219986 0.239565 0.258816 0.277491 0.295311 0.311972 0.327143 0.340486 0.351658 0.360328 0.366221 0.368978 0.36828 0.364567 0.356995 0.346157 0.332025 0.314826 0.294877 0.27258 0.248407 0.222892 0.196601 0.170139 0.144067 0.118958 0.0953458 0.073697 0.0544095 0.0378 0.0240987 0.0134485 0.00590721 0.00145403 1.56078e-26 0 0.00183597 0.00720411 0.0158757 0.0275725 0.0420066 0.05888 0.0778949 0.0987606 0.121197 0.144936 0.16972 0.195299 0.221425 0.24785 0.274294 0.30052 0.326221 0.351082 0.37477 0.396928 0.417183 0.435156 0.450464 0.462741 0.471643 0.47716 0.477792 0.475533 0.468209 0.456918 0.441555 0.422292 0.399432 0.373379 0.344628 0.313751 0.28138 0.248189 0.214897 0.182142 0.150621 0.120961 0.0937255 0.0693978 0.0483748 0.0309571 0.017348 0.00765457 0.00189315 2.03688e-26 0 0.00224679 0.00884411 0.0195551 0.0340706 0.0520633 0.0731814 0.0970613 0.123335 0.151635 0.181596 0.212858 0.245062 0.277851 0.310847 0.343696 0.376032 0.407451 0.437546 0.465899 0.492079 0.515655 0.536195 0.553284 0.566531 0.575727 0.580302 0.579757 0.57517 0.56483 0.549935 0.530314 0.506235 0.478077 0.446324 0.411557 0.374438 0.335694 0.296095 0.256461 0.217506 0.180035 0.144765 0.112344 0.0833369 0.058214 0.0373419 0.0209802 0.00928316 0.00230263 2.48084e-26 0 0.00262182 0.0103422 0.0229193 0.0400165 0.0612713 0.0862838 0.11463 0.145871 0.179558 0.215238 0.252453 0.290746 0.329654 0.368675 0.4074 0.445331 0.481978 0.516847 0.549443 0.579269 0.605837 0.628672 0.647328 0.661396 0.67088 0.674251 0.672936 0.665844 0.652847 0.634583 0.611035 0.582531 0.549521 0.512561 0.47231 0.429511 0.384975 0.339563 0.294172 0.249598 0.206735 0.16638 0.129258 0.0960063 0.0671623 0.0431522 0.0242879 0.0107673 0.00267603 2.88571e-26 0 0.00295519 0.0116749 0.0259156 0.0453166 0.0694859 0.0979811 0.130325 0.166015 0.204529 0.245333 0.287883 0.33163 0.376014 0.420428 0.464402 0.507325 0.548625 0.587733 0.624083 0.657119 0.686303 0.711124 0.731109 0.745835 0.755534 0.757655 0.755716 0.746225 0.730836 0.709524 0.682441 0.649974 0.612633 0.571041 0.525924 0.478097 0.428443 0.377903 0.327436 0.277911 0.230298 0.185464 0.144199 0.107206 0.0750782 0.0482962 0.0272188 0.0120835 0.00300745 3.24514e-26 0 0.0032417 0.0128215 0.0284968 0.0498877 0.0765778 0.108089 0.143898 0.183447 0.226152 0.271405 0.318588 0.367068 0.416195 0.46529 0.513801 0.561032 0.606339 0.649082 0.688637 0.724395 0.755778 0.782243 0.803298 0.81851 0.828285 0.829307 0.826689 0.815069 0.797559 0.773566 0.743399 0.707494 0.666413 0.620837 0.57155 0.519426 0.465409 0.410506 0.355724 0.301996 0.250352 0.201715 0.156933 0.116758 0.0818365 0.0526926 0.0297266 0.013211 0.00329168 3.55351e-26 0 0.00347687 0.0137641 0.0306225 0.0536579 0.0824355 0.116448 0.155136 0.197895 0.244086 0.293044 0.344082 0.396501 0.449567 0.502548 0.554815 0.605602 0.654202 0.699919 0.742077 0.780026 0.813154 0.840895 0.862743 0.878387 0.887668 0.888412 0.884455 0.871375 0.851952 0.82569 0.792937 0.754172 0.710003 0.661155 0.608461 0.552841 0.495285 0.436855 0.378588 0.32147 0.266577 0.214876 0.167256 0.124512 0.0873303 0.056272 0.0317716 0.0141319 0.00352424 3.80601e-26 0 0.00365702 0.014488 0.0322593 0.056568 0.0869666 0.122927 0.163861 0.209129 0.258048 0.309906 0.363962 0.419461 0.475601 0.53161 0.58679 0.640324 0.691452 0.739432 0.783549 0.823121 0.857512 0.88614 0.90849 0.924373 0.933086 0.933581 0.928416 0.914129 0.893143 0.86506 0.830262 0.789263 0.742706 0.691353 0.636069 0.57781 0.517597 0.45653 0.395665 0.336026 0.278718 0.224738 0.175005 0.130346 0.0914728 0.0589777 0.0333215 0.0148319 0.00370147 3.99869e-26 0 0.00377935 0.014982 0.0333817 0.0585723 0.0901 0.127424 0.169936 0.216971 0.267817 0.321724 0.377913 0.435583 0.493884 0.552011 0.609218 0.664644 0.717492 0.766988 0.812388 0.852989 0.888139 0.917249 0.939802 0.955718 0.963818 0.964144 0.958283 0.943238 0.921244 0.891958 0.855789 0.813278 0.765094 0.712027 0.654969 0.5949 0.532867 0.469996 0.407352 0.345988 0.287027 0.231487 0.180307 0.134335 0.0943032 0.060824 0.0343773 0.0153076 0.00382158 4.12853e-26 0 0.00384284 0.0152451 0.0339935 0.059687 0.091873 0.130006 0.173467 0.221574 0.273595 0.328755 0.386245 0.445234 0.50483 0.564212 0.622589 0.679073 0.732839 0.783085 0.829051 0.870018 0.905327 0.934386 0.956684 0.97227 0.979424 0.97932 0.971915 0.955847 0.932697 0.902288 0.86505 0.821541 0.772439 0.718538 0.66073 0.599989 0.537354 0.473944 0.410802 0.348984 0.289598 0.233653 0.182087 0.135743 0.0953591 0.0615544 0.0348211 0.0155202 0.00387865 4.19352e-26 0 0.00384293 0.0152464 0.0339994 0.0597042 0.0919121 0.13008 0.173592 0.221766 0.273867 0.329116 0.386699 0.445777 0.505448 0.564889 0.623297 0.679783 0.733518 0.783704 0.829584 0.870447 0.905645 0.934596 0.956799 0.972313 0.979429 0.979316 0.971887 0.955774 0.932564 0.902088 0.86478 0.821207 0.772053 0.718118 0.660297 0.599564 0.536956 0.473591 0.410503 0.348744 0.289417 0.233526 0.182004 0.135694 0.0953336 0.0615432 0.0348173 0.0155194 0.00387859 4.19263e-26 0 0.00378564 0.0150312 0.0335441 0.0589456 0.0908013 0.12858 0.171674 0.219407 0.271045 0.325809 0.382881 0.441419 0.500511 0.559341 0.617088 0.672862 0.725832 0.775199 0.820208 0.860156 0.894401 0.922379 0.943607 0.95826 0.964185 0.963684 0.955524 0.939166 0.915817 0.885403 0.848365 0.805265 0.756781 0.703696 0.64688 0.587283 0.525909 0.46384 0.40207 0.341624 0.283566 0.228868 0.178435 0.133088 0.0935466 0.0604214 0.0342023 0.0152546 0.00381493 4.12587e-26 0 0.00366616 0.0145598 0.0324974 0.057117 0.0880014 0.124639 0.16644 0.212751 0.262857 0.315999 0.371381 0.428178 0.485501 0.542552 0.598529 0.652564 0.703849 0.751609 0.795114 0.833684 0.866706 0.893638 0.914021 0.928037 0.933585 0.932905 0.924553 0.908414 0.885509 0.855809 0.819751 0.77788