<?xml version="1.0"?>
<VTKFile type="PolyData">
	<PolyData>
		<Piece NumberOfPoints="2601" NumberOfPolys="2500">
			<Points>
				<DataArray type="Float32" NumberOfComponents="3" format="ascii">
 0 0 0 0.02 0 0 0.04 0 0 0.06 0 0 0.08 0 0 0.1 0 0 0.12 0 0 0.14 0 0 0.16 0 0 0.18 0 0 0.2 0 0 0.22 0 0 0.24 0 0 0.26 0 0 0.28 0 0 0.3 0 0 0.32 0 0 0.34 0 0 0.36 0 0 0.38 0 0 0.4 0 0 0.42 0 0 0.44 0 0 0.46 0 0 0.48 0 0 0.5 0 0 0.52 0 0 0.54 0 0 0.56 0 0 0.58 0 0 0.6 0 0 0.62 0 0 0.64 0 0 0.66 0 0 0.68 0 0 0.7 0 0 0.72 0 0 0.74 0 0 0.76 0 0 0.78 0 0 0.8 0 0 0.82 0 0 0.84 0 0 0.86 0 0 0.88 0 0 0.9 0 0 0.92 0 0 0.94 0 0 0.96 0 0 0.98 0 0 1 0 0 0 0.02 0 0.02 0.02 0 0.04 0.02 0 0.06 0.02 0 0.08 0.02 0 0.1 0.02 0 0.12 0.02 0 0.14 0.02 0 0.16 0.02 0 0.18 0.02 0 0.2 0.02 0 0.22 0.02 0 0.24 0.02 0 0.26 0.02 0 0.28 0.02 0 0.3 0.02 0 0.32 0.02 0 0.34 0.02 0 0.36 0.02 0 0.38 0.02 0 0.4 0.02 0 0.42 0.02 0 0.44 0.02 0 0.46 0.02 0 0.48 0.02 0 0.5 0.02 0 0.52 0.02 0 0.54 0.02 0 0.56 0.02 0 0.58 0.02 0 0.6 0.02 0 0.62 0.02 0 0.64 0.02 0 0.66 0.02 0 0.68 0.02 0 0.7 0.02 0 0.72 0.02 0 0.74 0.02 0 0.76 0.02 0 0.78 0.02 0 0.8 0.02 0 0.82 0.02 0 0.84 0.02 0 0.86 0.02 0 0.88 0.02 0 0.9 0.02 0 0.92 0.02 0 0.94 0.02 0 0.96 0.02 0 0.98 0.02 0 1 0.02 0 0 0.04 0 0.02 0.04 0 0.04 0.04 0 0.06 0.04 0 0.08 0.04 0 0.1 0.04 0 0.12 0.04 0 0.14 0.04 0 0.16 0.04 0 0.18 0.04 0 0.2 0.04 0 0.22 0.04 0 0.24 0.04 0 0.26 0.04 0 0.28 0.04 0 0.3 0.04 0 0.32 0.04 0 0.34 0.04 0 0.36 0.04 0 0.38 0.04 0 0.4 0.04 0 0.42 0.04 0 0.44 0.04 0 0.46 0.04 0 0.48 0.04 0 0.5 0.04 0 0.52 0.04 0 0.54 0.04 0 0.56 0.04 0 0.58 0.04 0 0.6 0.04 0 0.62 0.04 0 0.64 0.04 0 0.66 0.04 0 0.68 0.04 0 0.7 0.04 0 0.72 0.04 0 0.74 0.04 0 0.76 0.04 0 0.78 0.04 0 0.8 0.04 0 0.82 0.04 0 0.84 0.04 0 0.86 0.04 0 0.88 0.04 0 0.9 0.04 0 0.92 0.04 0 0.94 0.04 0 0.96 0.04 0 0.98 0.04 0 1 0.04 0 0 0.06 0 0.02 0.06 0 0.04 0.06 0 0.06 0.06 0 0.08 0.06 0 0.1 0.06 0 0.12 0.06 0 0.14 0.06 0 0.16 0.06 0 0.18 0.06 0 0.2 0.06 0 0.22 0.06 0 0.24 0.06 0 0.26 0.06 0 0.28 0.06 0 0.3 0.06 0 0.32 0.06 0 0.34 0.06 0 0.36 0.06 0 0.38 0.06 0 0.4 0.06 0 0.42 0.06 0 0.44 0.06 0 0.46 0.06 0 0.48 0.06 0 0.5 0.06 0 0.52 0.06 0 0.54 0.06 0 0.56 0.06 0 0.58 0.06 0 0.6 0.06 0 0.62 0.06 0 0.64 0.06 0 0.66 0.06 0 0.68 0.06 0 0.7 0.06 0 0.72 0.06 0 0.74 0.06 0 0.76 0.06 0 0.78 0.06 0 0.8 0.06 0 0.82 0.06 0 0.84 0.06 0 0.86 0.06 0 0.88 0.06 0 0.9 0.06 0 0.92 0.06 0 0.94 0.06 0 0.96 0.06 0 0.98 0.06 0 1 0.06 0 0 0.08 0 0.02 0.08 0 0.04 0.08 0 0.06 0.08 0 0.08 0.08 0 0.1 0.08 0 0.12 0.08 0 0.14 0.08 0 0.16 0.08 0 0.18 0.08 0 0.2 0.08 0 0.22 0.08 0 0.24 0.08 0 0.26 0.08 0 0.28 0.08 0 0.3 0.08 0 0.32 0.08 0 0.34 0.08 0 0.36 0.08 0 0.38 0.08 0 0.4 0.08 0 0.42 0.08 0 0.44 0.08 0 0.46 0.08 0 0.48 0.08 0 0.5 0.08 0 0.52 0.08 0 0.54 0.08 0 0.56 0.08 0 0.58 0.08 0 0.6 0.08 0 0.62 0.08 0 0.64 0.08 0 0.66 0.08 0 0.68 0.08 0 0.7 0.08 0 0.72 0.08 0 0.74 0.08 0 0.76 0.08 0 0.78 0.08 0 0.8 0.08 0 0.82 0.08 0 0.84 0.08 0 0.86 0.08 0 0.88 0.08 0 0.9 0.08 0 0.92 0.08 0 0.94 0.08 0 0.96 0.08 0 0.98 0.08 0 1 0.08 0 0 0.1 0 0.02 0.1 0 0.04 0.1 0 0.06 0.1 0 0.08 0.1 0 0.1 0.1 0 0.12 0.1 0 0.14 0.1 0 0.16 0.1 0 0.18 0.1 0 0.2 0.1 0 0.22 0.1 0 0.24 0.1 0 0.26 0.1 0 0.28 0.1 0 0.3 0.1 0 0.32 0.1 0 0.34 0.1 0 0.36 0.1 0 0.38 0.1 0 0.4 0.1 0 0.42 0.1 0 0.44 0.1 0 0.46 0.1 0 0.48 0.1 0 0.5 0.1 0 0.52 0.1 0 0.54 0.1 0 0.56 0.1 0 0.58 0.1 0 0.6 0.1 0 0.62 0.1 0 0.64 0.1 0 0.66 0.1 0 0.68 0.1 0 0.7 0.1 0 0.72 0.1 0 0.74 0.1 0 0.76 0.1 0 0.78 0.1 0 0.8 0.1 0 0.82 0.1 0 0.84 0.1 0 0.86 0.1 0 0.88 0.1 0 0.9 0.1 0 0.92 0.1 0 0.94 0.1 0 0.96 0.1 0 0.98 0.1 0 1 0.1 0 0 0.12 0 0.02 0.12 0 0.04 0.12 0 0.06 0.12 0 0.08 0.12 0 0.1 0.12 0 0.12 0.12 0 0.14 0.12 0 0.16 0.12 0 0.18 0.12 0 0.2 0.12 0 0.22 0.12 0 0.24 0.12 0 0.26 0.12 0 0.28 0.12 0 0.3 0.12 0 0.32 0.12 0 0.34 0.12 0 0.36 0.12 0 0.38 0.12 0 0.4 0.12 0 0.42 0.12 0 0.44 0.12 0 0.46 0.12 0 0.48 0.12 0 0.5 0.12 0 0.52 0.12 0 0.54 0.12 0 0.56 0.12 0 0.58 0.12 0 0.6 0.12 0 0.62 0.12 0 0.64 0.12 0 0.66 0.12 0 0.68 0.12 0 0.7 0.12 0 0.72 0.12 0 0.74 0.12 0 0.76 0.12 0 0.78 0.12 0 0.8 0.12 0 0.82 0.12 0 0.84 0.12 0 0.86 0.12 0 0.88 0.12 0 0.9 0.12 0 0.92 0.12 0 0.94 0.12 0 0.96 0.12 0 0.98 0.12 0 1 0.12 0 0 0.14 0 0.02 0.14 0 0.04 0.14 0 0.06 0.14 0 0.08 0.14 0 0.1 0.14 0 0.12 0.14 0 0.14 0.14 0 0.16 0.14 0 0.18 0.14 0 0.2 0.14 0 0.22 0.14 0 0.24 0.14 0 0.26 0.14 0 0.28 0.14 0 0.3 0.14 0 0.32 0.14 0 0.34 0.14 0 0.36 0.14 0 0.38 0.14 0 0.4 0.14 0 0.42 0.14 0 0.44 0.14 0 0.46 0.14 0 0.48 0.14 0 0.5 0.14 0 0.52 0.14 0 0.54 0.14 0 0.56 0.14 0 0.58 0.14 0 0.6 0.14 0 0.62 0.14 0 0.64 0.14 0 0.66 0.14 0 0.68 0.14 0 0.7 0.14 0 0.72 0.14 0 0.74 0.14 0 0.76 0.14 0 0.78 0.14 0 0.8 0.14 0 0.82 0.14 0 0.84 0.14 0 0.86 0.14 0 0.88 0.14 0 0.9 0.14 0 0.92 0.14 0 0.94 0.14 0 0.96 0.14 0 0.98 0.14 0 1 0.14 0 0 0.16 0 0.02 0.16 0 0.04 0.16 0 0.06 0.16 0 0.08 0.16 0 0.1 0.16 0 0.12 0.16 0 0.14 0.16 0 0.16 0.16 0 0.18 0.16 0 0.2 0.16 0 0.22 0.16 0 0.24 0.16 0 0.26 0.16 0 0.28 0.16 0 0.3 0.16 0 0.32 0.16 0 0.34 0.16 0 0.36 0.16 0 0.38 0.16 0 0.4 0.16 0 0.42 0.16 0 0.44 0.16 0 0.46 0.16 0 0.48 0.16 0 0.5 0.16 0 0.52 0.16 0 0.54 0.16 0 0.56 0.16 0 0.58 0.16 0 0.6 0.16 0 0.62 0.16 0 0.64 0.16 0 0.66 0.16 0 0.68 0.16 0 0.7 0.16 0 0.72 0.16 0 0.74 0.16 0 0.76 0.16 0 0.78 0.16 0 0.8 0.16 0 0.82 0.16 0 0.84 0.16 0 0.86 0.16 0 0.88 0.16 0 0.9 0.16 0 0.92 0.16 0 0.94 0.16 0 0.96 0.16 0 0.98 0.16 0 1 0.16 0 0 0.18 0 0.02 0.18 0 0.04 0.18 0 0.06 0.18 0 0.08 0.18 0 0.1 0.18 0 0.12 0.18 0 0.14 0.18 0 0.16 0.18 0 0.18 0.18 0 0.2 0.18 0 0.22 0.18 0 0.24 0.18 0 0.26 0.18 0 0.28 0.18 0 0.3 0.18 0 0.32 0.18 0 0.34 0.18 0 0.36 0.18 0 0.38 0.18 0 0.4 0.18 0 0.42 0.18 0 0.44 0.18 0 0.46 0.18 0 0.48 0.18 0 0.5 0.18 0 0.52 0.18 0 0.54 0.18 0 0.56 0.18 0 0.58 0.18 0 0.6 0.18 0 0.62 0.18 0 0.64 0.18 0 0.66 0.18 0 0.68 0.18 0 0.7 0.18 0 0.72 0.18 0 0.74 0.18 0 0.76 0.18 0 0.78 0.18 0 0.8 0.18 0 0.82 0.18 0 0.84 0.18 0 0.86 0.18 0 0.88 0.18 0 0.9 0.18 0 0.92 0.18 0 0.94 0.18 0 0.96 0.18 0 0.98 0.18 0 1 0.18 0 0 0.2 0 0.02 0.2 0 0.04 0.2 0 0.06 0.2 0 0.08 0.2 0 0.1 0.2 0 0.12 0.2 0 0.14 0.2 0 0.16 0.2 0 0.18 0.2 0 0.2 0.2 0 0.22 0.2 0 0.24 0.2 0 0.26 0.2 0 0.28 0.2 0 0.3 0.2 0 0.32 0.2 0 0.34 0.2 0 0.36 0.2 0 0.38 0.2 0 0.4 0.2 0 0.42 0.2 0 0.44 0.2 0 0.46 0.2 0 0.48 0.2 0 0.5 0.2 0 0.52 0.2 0 0.54 0.2 0 0.56 0.2 0 0.58 0.2 0 0.6 0.2 0 0.62 0.2 0 0.64 0.2 0 0.66 0.2 0 0.68 0.2 0 0.7 0.2 0 0.72 0.2 0 0.74 0.2 0 0.76 0.2 0 0.78 0.2 0 0.8 0.2 0 0.82 0.2 0 0.84 0.2 0 0.86 0.2 0 0.88 0.2 0 0.9 0.2 0 0.92 0.2 0 0.94 0.2 0 0.96 0.2 0 0.98 0.2 0 1 0.2 0 0 0.22 0 0.02 0.22 0 0.04 0.22 0 0.06 0.22 0 0.08 0.22 0 0.1 0.22 0 0.12 0.22 0 0.14 0.22 0 0.16 0.22 0 0.18 0.22 0 0.2 0.22 0 0.22 0.22 0 0.24 0.22 0 0.26 0.22 0 0.28 0.22 0 0.3 0.22 0 0.32 0.22 0 0.34 0.22 0 0.36 0.22 0 0.38 0.22 0 0.4 0.22 0 0.42 0.22 0 0.44 0.22 0 0.46 0.22 0 0.48 0.22 0 0.5 0.22 0 0.52 0.22 0 0.54 0.22 0 0.56 0.22 0 0.58 0.22 0 0.6 0.22 0 0.62 0.22 0 0.64 0.22 0 0.66 0.22 0 0.68 0.22 0 0.7 0.22 0 0.72 0.22 0 0.74 0.22 0 0.76 0.22 0 0.78 0.22 0 0.8 0.22 0 0.82 0.22 0 0.84 0.22 0 0.86 0.22 0 0.88 0.22 0 0.9 0.22 0 0.92 0.22 0 0.94 0.22 0 0.96 0.22 0 0.98 0.22 0 1 0.22 0 0 0.24 0 0.02 0.24 0 0.04 0.24 0 0.06 0.24 0 0.08 0.24 0 0.1 0.24 0 0.12 0.24 0 0.14 0.24 0 0.16 0.24 0 0.18 0.24 0 0.2 0.24 0 0.22 0.24 0 0.24 0.24 0 0.26 0.24 0 0.28 0.24 0 0.3 0.24 0 0.32 0.24 0 0.34 0.24 0 0.36 0.24 0 0.38 0.24 0 0.4 0.24 0 0.42 0.24 0 0.44 0.24 0 0.46 0.24 0 0.48 0.24 0 0.5 0.24 0 0.52 0.24 0 0.54 0.24 0 0.56 0.24 0 0.58 0.24 0 0.6 0.24 0 0.62 0.24 0 0.64 0.24 0 0.66 0.24 0 0.68 0.24 0 0.7 0.24 0 0.72 0.24 0 0.74 0.24 0 0.76 0.24 0 0.78 0.24 0 0.8 0.24 0 0.82 0.24 0 0.84 0.24 0 0.86 0.24 0 0.88 0.24 0 0.9 0.24 0 0.92 0.24 0 0.94 0.24 0 0.96 0.24 0 0.98 0.24 0 1 0.24 0 0 0.26 0 0.02 0.26 0 0.04 0.26 0 0.06 0.26 0 0.08 0.26 0 0.1 0.26 0 0.12 0.26 0 0.14 0.26 0 0.16 0.26 0 0.18 0.26 0 0.2 0.26 0 0.22 0.26 0 0.24 0.26 0 0.26 0.26 0 0.28 0.26 0 0.3 0.26 0 0.32 0.26 0 0.34 0.26 0 0.36 0.26 0 0.38 0.26 0 0.4 0.26 0 0.42 0.26 0 0.44 0.26 0 0.46 0.26 0 0.48 0.26 0 0.5 0.26 0 0.52 0.26 0 0.54 0.26 0 0.56 0.26 0 0.58 0.26 0 0.6 0.26 0 0.62 0.26 0 0.64 0.26 0 0.66 0.26 0 0.68 0.26 0 0.7 0.26 0 0.72 0.26 0 0.74 0.26 0 0.76 0.26 0 0.78 0.26 0 0.8 0.26 0 0.82 0.26 0 0.84 0.26 0 0.86 0.26 0 0.88 0.26 0 0.9 0.26 0 0.92 0.26 0 0.94 0.26 0 0.96 0.26 0 0.98 0.26 0 1 0.26 0 0 0.28 0 0.02 0.28 0 0.04 0.28 0 0.06 0.28 0 0.08 0.28 0 0.1 0.28 0 0.12 0.28 0 0.14 0.28 0 0.16 0.28 0 0.18 0.28 0 0.2 0.28 0 0.22 0.28 0 0.24 0.28 0 0.26 0.28 0 0.28 0.28 0 0.3 0.28 0 0.32 0.28 0 0.34 0.28 0 0.36 0.28 0 0.38 0.28 0 0.4 0.28 0 0.42 0.28 0 0.44 0.28 0 0.46 0.28 0 0.48 0.28 0 0.5 0.28 0 0.52 0.28 0 0.54 0.28 0 0.56 0.28 0 0.58 0.28 0 0.6 0.28 0 0.62 0.28 0 0.64 0.28 0 0.66 0.28 0 0.68 0.28 0 0.7 0.28 0 0.72 0.28 0 0.74 0.28 0 0.76 0.28 0 0.78 0.28 0 0.8 0.28 0 0.82 0.28 0 0.84 0.28 0 0.86 0.28 0 0.88 0.28 0 0.9 0.28 0 0.92 0.28 0 0.94 0.28 0 0.96 0.28 0 0.98 0.28 0 1 0.28 0 0 0.3 0 0.02 0.3 0 0.04 0.3 0 0.06 0.3 0 0.08 0.3 0 0.1 0.3 0 0.12 0.3 0 0.14 0.3 0 0.16 0.3 0 0.18 0.3 0 0.2 0.3 0 0.22 0.3 0 0.24 0.3 0 0.26 0.3 0 0.28 0.3 0 0.3 0.3 0 0.32 0.3 0 0.34 0.3 0 0.36 0.3 0 0.38 0.3 0 0.4 0.3 0 0.42 0.3 0 0.44 0.3 0 0.46 0.3 0 0.48 0.3 0 0.5 0.3 0 0.52 0.3 0 0.54 0.3 0 0.56 0.3 0 0.58 0.3 0 0.6 0.3 0 0.62 0.3 0 0.64 0.3 0 0.66 0.3 0 0.68 0.3 0 0.7 0.3 0 0.72 0.3 0 0.74 0.3 0 0.76 0.3 0 0.78 0.3 0 0.8 0.3 0 0.82 0.3 0 0.84 0.3 0 0.86 0.3 0 0.88 0.3 0 0.9 0.3 0 0.92 0.3 0 0.94 0.3 0 0.96 0.3 0 0.98 0.3 0 1 0.3 0 0 0.32 0 0.02 0.32 0 0.04 0.32 0 0.06 0.32 0 0.08 0.32 0 0.1 0.32 0 0.12 0.32 0 0.14 0.32 0 0.16 0.32 0 0.18 0.32 0 0.2 0.32 0 0.22 0.32 0 0.24 0.32 0 0.26 0.32 0 0.28 0.32 0 0.3 0.32 0 0.32 0.32 0 0.34 0.32 0 0.36 0.32 0 0.38 0.32 0 0.4 0.32 0 0.42 0.32 0 0.44 0.32 0 0.46 0.32 0 0.48 0.32 0 0.5 0.32 0 0.52 0.32 0 0.54 0.32 0 0.56 0.32 0 0.58 0.32 0 0.6 0.32 0 0.62 0.32 0 0.64 0.32 0 0.66 0.32 0 0.68 0.32 0 0.7 0.32 0 0.72 0.32 0 0.74 0.32 0 0.76 0.32 0 0.78 0.32 0 0.8 0.32 0 0.82 0.32 0 0.84 0.32 0 0.86 0.32 0 0.88 0.32 0 0.9 0.32 0 0.92 0.32 0 0.94 0.
[...]
			<PointData Scalars="VitesseX">
				<DataArray Name="VitesseX" type="Float32" format="ascii">
 0 0 0 0 0 0 0 0 0 0 0 0 0 0 0 0 0 0 0 0 0 0 0 0 0 0 0 0 0 0 0 0 0 0 0 0 0 0 0 0 0 0 0 0 0 0 0 0 0 0 0 0 0.0004939 0.00196743 0.00439783 0.00774589 0.0119588 0.0169698 0.0227 0.0290589 0.0359464 0.0432541 0.050867 0.0586653 0.0665253 0.0743243 0.0819408 0.0892541 0.0961492 0.102517 0.108259 0.113282 0.117509 0.120872 0.123318 0.124824 0.125316 0.124836 0.123377 0.12094 0.117595 0.113383 0.10837 0.102636 0.0962714 0.0893757 0.0820582 0.0744344 0.0666247 0.0587533 0.0509431 0.0433171 0.0359966 0.0290971 0.0227276 0.0169885 0.0119704 0.00775244 0.00440099 0.00196881 0.000494091 5.36024e-27 0 0.000979466 0.00390022 0.00871701 0.0153496 0.0236925 0.0336129 0.044954 0.0575372 0.0711646 0.0856228 0.100686 0.116118 0.131673 0.147114 0.162202 0.1767 0.190379 0.203026 0.214441 0.224447 0.232883 0.239616 0.244538 0.247629 0.248646 0.247802 0.245006 0.240231 0.233665 0.225367 0.215466 0.204118 0.191501 0.177817 0.163281 0.148125 0.132591 0.116928 0.101381 0.0861967 0.0716197 0.0578818 0.0452012 0.0337784 0.023794 0.0154049 0.00874224 0.00390951 0.00098071 1.0635e-26 0 0.00144912 0.00576845 0.0128911 0.0226951 0.0350233 0.0496787 0.0664292 0.0850109 0.105133 0.12648 0.148722 0.171511 0.194485 0.217297 0.2396 0.261041 0.281286 0.30002 0.316949 0.331807 0.344358 0.354402 0.361777 0.366489 0.368039 0.366927 0.362885 0.355884 0.346243 0.334024 0.319417 0.302651 0.283991 0.263733 0.242199 0.219734 0.196697 0.173464 0.150397 0.127862 0.106228 0.0858405 0.0670237 0.0500768 0.0352672 0.0228276 0.0129513 0.00579028 0.00145203 1.57408e-26 0 0.00189548 0.00754281 0.0168546 0.0296669 0.045773 0.0649145 0.0867875 0.111048 0.137316 0.165184 0.194219 0.223974 0.253973 0.283769 0.312915 0.34095 0.36744 0.391974 0.414167 0.433672 0.450178 0.463421 0.473186 0.47952 0.48161 0.480337 0.475159 0.466096 0.453581 0.437674 0.418623 0.396725 0.372325 0.345812 0.317609 0.28817 0.257967 0.227501 0.197244 0.167679 0.139294 0.112545 0.0878604 0.0656325 0.0462127 0.0299054 0.0169628 0.00758173 0.00190066 2.05975e-26 0 0.00231154 0.00919549 0.020545 0.0361552 0.0557725 0.0790805 0.105709 0.135238 0.167208 0.201124 0.236462 0.27268 0.309199 0.345484 0.380994 0.415169 0.447484 0.477436 0.504561 0.528432 0.54867 0.56495 0.577004 0.584928 0.587566 0.586235 0.580053 0.569126 0.553983 0.534682 0.511518 0.484855 0.455111 0.422761 0.388324 0.352356 0.315438 0.278189 0.241184 0.205019 0.170296 0.137575 0.107383 0.0802004 0.056458 0.0365267 0.0207132 0.00925559 0.00231954 2.51287e-26 0 0.00269079 0.0107007 0.0239045 0.0420581 0.0648643 0.0919537 0.122895 0.157201 0.194338 0.233734 0.274784 0.316862 0.359294 0.401468 0.442763 0.482527 0.520152 0.555058 0.586704 0.614591 0.638278 0.657383 0.671588 0.681037 0.684239 0.682937 0.675905 0.663344 0.645862 0.623513 0.596636 0.565649 0.531042 0.493366 0.453228 0.41128 0.368204 0.324728 0.281525 0.239295 0.198745 0.160536 0.125283 0.093551 0.0658415 0.0425871 0.0241435 0.0107855 0.00270205 2.92634e-26 0 0.00302728 0.0120348 0.0268804 0.0472828 0.0729056 0.103332 0.138075 0.17659 0.218279 0.262501 0.308581 0.355821 0.403467 0.450839 0.497246 0.541959 0.584298 0.623613 0.659295 0.690785 0.717584 0.739256 0.75544 0.766317 0.770103 0.768902 0.761198 0.747257 0.727764 0.702762 0.672629 0.637831 0.598918 0.556511 0.511297 0.464012 0.415432 0.366385 0.317631 0.269965 0.224194 0.181066 0.141279 0.105474 0.0742152 0.047991 0.0271997 0.0121472 0.00304218 3.2937e-26 0 0.00331577 0.0131771 0.0294259 0.0517473 0.0797699 0.113035 0.15101 0.193099 0.238652 0.286969 0.337319 0.388942 0.441019 0.492815 0.543582 0.592526 0.638905 0.682013 0.721185 0.755807 0.785329 0.809271 0.82723 0.839409 0.843806 0.842758 0.834583 0.819536 0.79839 0.771173 0.738293 0.700257 0.657665 0.611199 0.561613 0.509719 0.456375 0.402499 0.34893 0.296544 0.246239 0.198839 0.155118 0.11578 0.0814469 0.052653 0.0298333 0.0133193 0.00333457 3.60919e-26 0 0.00355173 0.0141098 0.0315012 0.0553813 0.0853491 0.120911 0.161496 0.206469 0.255135 0.306752 0.360543 0.415701 0.471357 0.526732 0.581036 0.633424 0.683109 0.729335 0.771393 0.808626 0.840441 0.866318 0.88582 0.899151 0.904183 0.903328 0.894896 0.879032 0.856619 0.827661 0.792588 0.751938 0.706352 0.656561 0.603377 0.547677 0.490387 0.432501 0.374927 0.318613 0.264532 0.213576 0.166582 0.124307 0.0874224 0.0564996 0.0320029 0.0142833 0.00357462 3.86788e-26 0 0.0037315 0.0148184 0.0330738 0.0581279 0.0895555 0.126835 0.169368 0.216488 0.267468 0.321537 0.377884 0.435674 0.493999 0.552051 0.609015 0.664008 0.716208 0.764828 0.809124 0.848405 0.882045 0.909493 0.930281 0.944595 0.950282 0.949646 0.941186 0.924803 0.901527 0.871329 0.83465 0.792052 0.744205 0.691878 0.635928 0.577284 0.516926 0.455913 0.39521 0.335822 0.278783 0.225043 0.175488 0.13092 0.092047 0.05947 0.0336742 0.015024 0.00375854 4.06576e-26 0 0.00385308 0.015298 0.0341387 0.0599879 0.092403 0.130843 0.174689 0.223254 0.27579 0.331505 0.38957 0.449127 0.509251 0.56911 0.627874 0.684636 0.738551 0.788808 0.834637 0.875323 0.910213 0.938731 0.960384 0.975351 0.981427 0.980977 0.972722 0.956123 0.932404 0.901484 0.863814 0.819964 0.770623 0.716589 0.658748 0.598068 0.535572 0.472364 0.409457 0.347896 0.288766 0.233058 0.181695 0.135514 0.0952478 0.0615171 0.0348207 0.0155296 0.00388344 4.19972e-26 0 0.00391134 0.0155166 0.0346006 0.0607567 0.0935275 0.13236 0.176627 0.225635 0.278637 0.33484 0.393418 0.453519 0.514224 0.5747 0.634132 0.691614 0.746306 0.797395 0.844112 0.885733 0.921598 0.951114 0.97377 0.989624 0.996934 0.996887 0.989393 0.973054 0.949486 0.918512 0.880573 0.836245 0.786226 0.731327 0.672461 0.610622 0.546866 0.482333 0.418078 0.355174 0.294746 0.237818 0.185342 0.138176 0.0970723 0.062662 0.0354481 0.0157995 0.00394829 4.26769e-26 0 0.00391124 0.0155153 0.0345944 0.0607386 0.0934864 0.132282 0.176495 0.225433 0.27835 0.334459 0.392939 0.452946 0.513573 0.573987 0.633386 0.690866 0.74559 0.796743 0.84355 0.88528 0.921262 0.950893 0.973648 0.989578 0.996928 0.99689 0.989422 0.97313 0.949624 0.918722 0.880857 0.836597 0.786632 0.73177 0.672918 0.61107 0.547285 0.482705 0.418394 0.355427 0.294937 0.237953 0.185429 0.138228 0.0970992 0.0626738 0.035452 0.0158003 0.00394835 4.26861e-26 0 0.00384657 0.0152471 0.0339704 0.0596012 0.0916766 0.129646 0.172889 0.220731 0.272446 0.327275 0.384424 0.443083 0.502386 0.561518 0.619721 0.676121 0.72991 0.780298 0.82653 0.867891 0.903716 0.933405 0.956429 0.972704 0.981034 0.981438 0.975566 0.960328 0.938012 0.908263 0.871494 0.828254 0.779226 0.725212 0.667121 0.605954 0.542776 0.478738 0.414926 0.352415 0.292351 0.235771 0.183635 0.136806 0.0960315 0.0619342 0.035002 0.0155845 0.00389032 4.20248e-26 0 0.00372203 0.0147441 0.0328272 0.0575591 0.0884834 0.125062 0.166696 0.212735 0.262485 0.315223 0.370197 0.42664 0.48374 0.54071 0.596848 0.65132 0.703356 0.752202 0.797131 0.837448 0.872505 0.901709 0.924533 0.940779 0.949746 0.950325 0.945169 0.930705 0.909419 0.880898 0.845528 0.803832 0.756462 0.704193 0.647909 0.588582 0.527255 0.465052 0.403048 0.342289 0.283904 0.228909 0.178243 0.132749 0.0931525 0.0600559 0.0339278 0.0151004 0.00376808 4.07033e-26 0 0.00353863 0.014007 0.0311602 0.054595 0.0838675 0.118461 0.157806 0.201287 0.248256 0.298037 0.349935 0.403238 0.457204 0.51109 0.564258 0.615933 0.665395 0.711938 0.754874 0.793542 0.827318 0.855625 0.877944 0.893953 0.903513 0.904344 0.900432 0.887201 0.867513 0.840852 0.807568 0.768148 0.72321 0.673493 0.619844 0.563202 0.504577 0.445053 0.385689 0.327493 0.271562 0.218883 0.170364 0.126817 0.0889394 0.0573036 0.0323509 0.0143881 0.00358771 3.87424e-26 0 0.00329924 0.0130474 0.0289958 0.0507556 0.0779017 0.109947 0.146358 0.186569 0.229985 0.275991 0.323959 0.373249 0.423201 0.473128 0.522471 0.570524 0.616634 0.660151 0.700439 0.73688 0.768884 0.795897 0.817416 0.832996 0.84306 0.844177 0.841645 0.829904 0.812168 0.787821 0.757173 0.720667 0.678875 0.632488 0.582307 0.529222 0.474195 0.418259 0.362439 0.307689 0.255061 0.205497 0.159864 0.118929 0.0833504 0.0536618 0.03027 0.0134509 0.00335102 3.61725e-26 0 0.00300759 0.0118801 0.0263677 0.0461011 0.0706797 0.0996527 0.132534 0.168813 0.20796 0.249433 0.292682 0.33715 0.382271 0.427429 0.472152 0.515818 0.557849 0.597666 0.634694 0.668367 0.698137 0.723482 0.743918 0.759011 0.768989 0.771277 0.769388 0.759852 0.744272 0.722658 0.695153 0.66215 0.624166 0.581834 0.535896 0.487183 0.436595 0.385096 0.333665 0.28319 0.234662 0.188966 0.14691 0.109211 0.0764741 0.0491883 0.027718 0.0123034 0.00306173 3.30338e-26 0 0.00266823 0.0105234 0.0233172 0.0407046 0.0623153 0.0877413 0.116551 0.148299 0.182529 0.218783 0.256598 0.29551 0.335053 0.374721 0.414098 0.452682 0.489975 0.525478 0.558686 0.589095 0.616206 0.639535 0.658624 0.673054 0.682818 0.686392 0.685134 0.678053 0.664909 0.646401 0.622497 0.593529 0.559953 0.522337 0.481351 0.437754 0.392373 0.346091 0.299825 0.254385 0.210689 0.169549 0.131707 0.0978152 0.0684191 0.0439535 0.0247353 0.0109638 0.0027244 2.93755e-26 0 0.00228648 0.00899839 0.0198923 0.034651 0.0529399 0.0744002 0.0986617 0.125351 0.154094 0.184523 0.216275 0.248987 0.2823 0.315832 0.349226 0.382114 0.414086 0.44473 0.473621 0.500323 0.524392 0.54539 0.562889 0.576489 0.585963 0.590774 0.590296 0.585775 0.575338 0.560263 0.540358 0.515894 0.487258 0.454941 0.419536 0.381719 0.342231 0.301863 0.261454 0.221731 0.183521 0.147555 0.114496 0.0849226 0.0593129 0.0380404 0.0213689 0.00945328 0.00234434 2.52547e-26 0 0.00186831 0.00732895 0.0161465 0.0280355 0.0427012 0.0598393 0.0791468 0.100329 0.123102 0.147195 0.17235 0.198316 0.224845 0.251686 0.278561 0.305227 0.331379 0.356697 0.380842 0.403452 0.424146 0.442534 0.458226 0.470842 0.480031 0.48577 0.486558 0.484346 0.477019 0.465603 0.450034 0.430473 0.407229 0.380714 0.351431 0.319965 0.286963 0.253115 0.219158 0.185745 0.153589 0.123332 0.0955492 0.070737 0.0492993 0.0315423 0.017672 0.00779567 0.00192755 2.07359e-26 0 0.00142027 0.00554118 0.0121389 0.0209621 0.0317602 0.0442878 0.0583139 0.0736275 0.0900399 0.107384 0.125513 0.144292 0.163591 0.18328 0.203218 0.223235 0.243156 0.262765 0.28181 0.300008 0.317046 0.332587 0.346282 0.357778 0.366734 0.372857 0.375815 0.375189 0.371543 0.363913 0.35295 0.338613 0.32113 0.300826 0.27811 0.253468 0.227442 0.200616 0.17361 0.146996 0.121365 0.0972621 0.0751656 0.0554827 0.0385366 0.0245619 0.013703 0.00601713 0.00148058 1.58899e-26 0 0.000949396 0.00366311 0.00793245 0.0135421 0.0202891 0.0279905 0.0364909 0.0456672 0.0554293 0.0657186 0.0765022 0.0877656 0.0995029 0.111707 0.124358 0.137416 0.150806 0.164415 0.178081 0.191614 0.204772 0.217274 0.228814 0.239069 0.247713 0.254384 0.258868 0.260863 0.26014 0.256878 0.25063 0.241757 0.230315 0.216536 0.20073 0.183276 0.164607 0.145193 0.12553 0.106097 0.0873609 0.0697585 0.0536677 0.0394005 0.0271947 0.0172093 0.00952453 0.00414571 0.00101049 1.07926e-26 0 0.000463094 0.00172432 0.00359377 0.00589361 0.00847143 0.0112091 0.0140294 0.0168994 0.01983 0.0228725 0.026111 0.0296532 0.0336183 0.0381249 0.0432781 0.0491563 0.0558002 0.0632035 0.0713073 0.0799978 0.0891075 0.0984169 0.107665 0.116573 0.124829 0.132064 0.138024 0.142455 0.145171 0.145893 0.144695 0.14144 0.136209 0.129169 0.120508 0.110496 0.0994494 0.0877203 0.0756784 0.0636936 0.0521118 0.0412552 0.0313949 0.0227445 0.0154526 0.00960054 0.00520248 0.00221093 0.000524666 5.52428e-27 0 -3.07767e-05 -0.000243308 -0.000805024 -0.00185565 -0.00349564 -0.00577723 -0.00869866 -0.012202 -0.0161747 -0.0204549 -0.0248407 -0.029102 -0.0329937 -0.036271 -0.0387044 -0.0400954 -0.0402894 -0.0391868 -0.03675 -0.0330071 -0.0280525 -0.0220425 -0.0151884 -0.00774554 -4.24159e-08 0.0077457 0.0151887 0.0220428 0.0280527 0.0330072 0.0367497 0.0391862 0.0402883 0.040094 0.0387032 0.0362704 0.0329937 0.0291023 0.0248408 0.0204547 0.0161744 0.0122018 0.00869858 0.00577721 0.00349564 0.00185565 0.000805025 0.000243309 3.07767e-05 1.67614e-28 0 -0.000524666 -0.00221093 -0.00520248 -0.00960054 -0.0154526 -0.0227445 -0.031395 -0.0412554 -0.052112 -0.0636937 -0.0756782 -0.0877201 -0.0994495 -0.110497 -0.120509 -0.129169 -0.13621 -0.141441 -0.144695 -0.145893 -0.14517 -0.142455 -0.138024 -0.132064 -0.124829 -0.116573 -0.107665 -0.0984167 -0.0891074 -0.0799981 -0.071308 -0.0632047 -0.0558018 -0.049158 -0.0432792 -0.0381253 -0.0336181 -0.0296529 -0.026111 -0.0228728 -0.0198304 -0.0168996 -0.0140295 -0.0112091 -0.00847143 -0.00589361 -0.00359377 -0.00172432 -0.000463094 -5.19299e-27 0 -0.00101049 -0.00414571 -0.00952453 -0.0172093 -0.0271947 -0.0394006 -0.0536678 -0.0697587 -0.0873611 -0.106097 -0.12553 -0.145193 -0.164607 -0.183277 -0.200731 -0.216537 -0.230315 -0.241757 -0.25063 -0.256877 -0.260139 -0.260863 -0.258867 -0.254383 -0.247713 -0.239069 -0.228814 -0.217274 -0.204772 -0.191615 -0.178082 -0.164417 -0.150808 -0.137417 -0.124359 -0.111707 -0.0995026 -0.0877654 -0.0765024 -0.065719 -0.0554297 -0.0456673 -0.036491 -0.0279905 -0.0202891 -0.0135421 -0.00793245 -0.00366311 -0.000949396 -1.0473e-26 0 -0.00148058 -0.00601713 -0.013703 -0.0245619 -0.0385366 -0.0554827 -0.0751658 -0.0972623 -0.121366 -0.146996 -0.173609 -0.200616 -0.227442 -0.253468 -0.278111 -0.300827 -0.32113 -0.338613 -0.35295 -0.363913 -0.371542 -0.375189 -0.375815 -0.372857 -0.366734 -0.357778 -0.346282 -0.332587 -0.317046 -0.300009 -0.281812 -0.262767 -0.243157 -0.223237 -0.203218 -0.18328 -0.163591 -0.144292 -0.125514 -0.107385 -0.0900402 -0.0736276 -0.058314 -0.0442878 -0.0317602 -0.0209621 -0.0121389 -0.00554118 -0.00142027 -1.5589e-26 0 -0.00192755 -0.00779567 -0.017672 -0.0315423 -0.0492993 -0.0707371 -0.0955494 -0.123332 -0.153589 -0.185745 -0.219158 -0.253115 -0.286963 -0.319965 -0.351431 -0.380714 -0.407229 -0.430473 -0.450034 -0.465603 -0.477018 -0.484346 -0.486557 -0.48577 -0.48003 -0.470841 -0.458225 -0.442533 -0.424146 -0.403453 -0.380844 -0.356699 -0.33138 -0.305228 -0.278561 -0.251686 -0.224845 -0.198316 -0.17235 -0.147195 -0.123102 -0.100329 -0.0791468 -0.0598393 -0.0427012 -0.0280355 -0.0161465 -0.00732895 -0.00186831 -2.04601e-26 0 -0.00234434 -0.00945328 -0.0213689 -0.0380404 -0.0593129 -0.0849227 -0.114497 -0.147555 -0.183521 -0.221731 -0.261453 -0.301863 -0.342231 -0.381719 -0.419536 -0.454941 -0.487258 -0.515894 -0.540357 -0.560262 -0.575338 -0.585774 -0.590296 -0.590773 -0.585962 -0.576487 -0.562887 -0.545388 -0.524391 -0.500323 -0.473622 -0.444731 -0.414086 -0.382114 -0.349226 -0.315833 -0.2823 -0.248988 -0.216275 -0.184524 -0.154094 -0.125351 -0.0986617 -0.0744002 -0.0529399 -0.034651 -0.0198923 -0.00899839 -0.00228648 -2.50091e-26 0 -0.0027244 -0.0109638 -0.0247353 -0.0439535 -0.0684192 -0.0978153 -0.131708 -0.169549 -0.210689 -0.254385 -0.299824 -0.346091 -0.392373 -0.437754 -0.481351 -0.522337 -0.559953 -0.593529 -0.622497 -0.646401 -0.664908 -0.678052 -0.685133 -0.686391 -0.682818 -0.673053 -0.658623 -0.639534 -0.616206 -0.589095 -0.558686 -0.525478 -0.489975 -0.452681 -0.414098 -0.374722 -0.335054 -0.29551 -0.256598 -0.218783 -0.182529 -0.148299 -0.116551 -0.0877413 -0.0623153 -0.0407046 -0.0233172 -0.0105234 -0.00266823 -2.91639e-26 0 -0.00306173 -0.0123034 -0.027718 -0.0491883 -0.0764742 -0.109211 -0.146911 -0.188966 -0.234662 -0.28319 -0.333665 -0.385095 -0.436595 -0.487183 -0.535896 -0.581834 -0.624166 -0.66215 -0.695153 -0.722657 -0.744271 -0.759851 -0.769388 -0.771277 -0.768989 -0.75901 -0.743917 -0.723481 -0.698136 -0.668366 -0.634693 -0.597665 -0.557848 -0.515818 -0.472152 -0.427429 -0.382271 -0.33715 -0.292682 -0.249433 -0.20796 -0.168813 -0.132534 -0.0996527 -0.0706797 -0.0461011 -0.0263677 -0.0118801 -0.00300759 -3.28585e-26 0 -0.00335102 -0.0134509 -0.03027 -0.0536619 -0.0833505 -0.11893 -0.159864 -0.205498 -0.255061 -0.307689 -0.362438 -0.418258 -0.474195 -0.529222 -0.582307 -0.632488 -0.678875 -0.720667 -0.757173 -0.787821 -0.812167 -0.829903 -0.841645 -0.844177 -0.843059 -0.832995 -0.817414 -0.795895 -0.768882 -0.736878 -0.700437 -0.660149 -0.616633 -0.570524 -0.522471 -0.473129 -0.423202 -0.37325 -0.32396 -0.275991 -0.229985 -0.186569 -0.146358 -0.109947 -0.0779017 -0.0507556 -0.0289958 -0.0130474 -0.00329924 -3.6034e-26 0 -0.00358771 -0.0143881 -0.0323509 -0.0573036 -0.0889395 -0.126817 -0.170364 -0.218883 -0.271562 -0.327493 -0.385689 -0.445052 -0.504576 -0.563202 -0.619844 -0.673493 -0.72321 -0.768148 -0.807567 -0.840851 -0.867513 -0.887201 -0.900432 -0.904344 -0.903513 -0.893953 -0.877943 -0.855624 -0.827317 -0.793541 -0.754873 -0.711937 -0.665395 -0.615933 -0.564258 -0.51109 -0.457204 -0.403238 -0.349935 -0.298037 -0.248256 -0.201287 -0.157806 -0.118461 -0.0838675 -0.054595 -0.0311602 -0.014007 -0.00353863 -3.864e-26 0 -0.00376808 -0.0151004 -0.0339278 -0.0600559 -0.0931526 -0.132749 -0.178244 -0.228909 -0.283903 -0.342289 -0.403047 -0.465051 -0.527255 -0.588582 -0.647909 -0.704193 -0.756462 -0.803832 -0.845528 -0.880898 -0.909419 -0.930705 -0.945169 -0.950325 -0.949746 -0.940779 -0.924532 -0.901708 -0.872504 -0.837447 -0.79713 -0.752202 -0.703356 -0.65132 -0.596848 -0.54071 -0.48374 -0.42664 -0.370197 -0.315223 -0.262485 -0.212735 -0.166696 -0.125062 -0.0884834 -0.0575591 -0.0328272 -0.0147441 -0.00372203 -4.06349e-26 0 -0.00389032 -0.0155845 -0.035002 -0.0619343 -0.0960317 -0.136806 -0.183635 -0.23577 -0.29235 -0.352415 -0.414926 -0.478738 -0.542776 -0.605954 -0.667121 -0.725212 -0.779226 -0.828254 -0.871494 -0.908263 -0.938011 -0.960328 -0.975566 -0.981438 -0.981034 -0.972704 -0.956429 -0.933405 -0.903716 -0.86789 -0.82653 -0.780298 -0.729909 -0.676121 -0.619721 -0.561518 -0.502386 -0.443083 -0.384424 -0.327275 -0.272447 -0.220731 -0.172889 -0.129646 -0.0916766 -0.0596012 -0.0339704 -0.0152471 -0.00384657 -4.19869e-26 0 -0.00394835 -0.0158003 -0.035452 -0.0626739 -0.0970994 -0.138228 -0.185429 -0.237952 -0.294936 -0.355427 -0.418394 -0.482705 -0.547284 -0.61107 -0.672918 -0.73177 -0.786632 -0.836597 -0.880857 -0.918722 -0.949624 -0.97313 -0.989422 -0.99689 -0.996928 -0.989578 -0.973648 -0.950893 -0.921262 -0.88528 -0.84355 -0.796743 -0.74559 -0.690866 -0.633385 -0.573986 -0.513573 -0.452946 -0.392939 -0.334459 -0.27835 -0.225433 -0.176495 -0.132282 -0.0934864 -0.0607386 -0.0345944 -0.0155153 -0.00391124 -4.26743e-26 0 -0.00394829 -0.0157995 -0.0354481 -0.0626621 -0.0970725 -0.138176 -0.185342 -0.237817 -0.294744 -0.355174 -0.418079 -0.482334 -0.546866 -0.610622 -0.672461 -0.731327 -0.786226 -0.836245 -0.880573 -0.918511 -0.949486 -0.973054 -0.989393 -0.996887 -0.996934 -0.989624 -0.97377 -0.951114 -0.921598 -0.885733 -0.844112 -0.797395 -0.746305 -0.691614 -0.634132 -0.5747 -0.514224 -0.453519 -0.393418 -0.33484 -0.278637 -0.225635 -0.176627 -0.13236 -0.0935275 -0.0607567 -0.0346006 -0.0155166 -0.00391134 -4.26861e-26 0 -0.00388344 -0.0155296 -0.0348207 -0.0615172 -0.0952481 -0.135515 -0.181696 -0.233057 -0.288764 -0.347895 -0.409458 -0.472366 -0.535573 -0.598068 -0.658748 -0.716589 -0.770623 -0.819964 -0.863814 -0.901484 -0.932404 -0.956123 -0.972722 -0.980977 -0.981427 -0.975351 -0.960384 -0.938731 -0.910213 -0.875323 -0.834637 -0.788808 -0.738551 -0.684635 -0.627874 -0.56911 -0.50925 -0.449127 -0.38957 -0.331505 -0.27579 -0.223254 -0.174689 -0.130843 -0.092403 -0.0599879 -0.0341387 -0.015298 -0.00385308 -4.20221e-26 0 -0.00375854 -0.015024 -0.0336742 -0.0594701 -0.0920474 -0.130921 -0.175488 -0.225042 -0.27878 -0.33582 -0.395211 -0.455916 -0.516928 -0.577284 -0.635928 -0.691878 -0.744205 -0.792052 -0.83465 -0.871329 -0.901527 -0.924803 -0.941186 -0.949646 -0.950282 -0.944595 -0.930281 -0.909493 -0.882045 -0.848405 -0.809123 -0.764828 -0.716208 -0.664007 -0.609015 -0.552051 -0.493999 -0.435673 -0.377884 -0.321537 -0.267468 -0.216488 -0.169368 -0.126835 -0.0895555 -0.0581279 -0.0330738 -0.0148184 -0.0037315 -4.06929e-26 0 -0.00357462 -0.0142833 -0.0320029 -0.0564997 -0.0874227 -0.124308 -0.166582 -0.213575 -0.264528 -0.31861 -0.374927 -0.432504 -0.490389 -0.547679 -0.603377 -0.656561 -0.706351 -0.751938 -0.792588 -0.827661 -0.856619 -0.879032 -0.894896 -0.903328 -0.904183 -0.899151 -0.8858