<?xml version="1.0"?>
<VTKFile type="PolyData">
	<PolyData>
		<Piece NumberOfPoints="2601" NumberOfPolys="2500">
			<Points>
				<DataArray type="Float32" NumberOfComponents="3" format="ascii">
 0 0 0 0.02 0 0 0.04 0 0 0.06 0 0 0.08 0 0 0.1 0 0 0.12 0 0 0.14 0 0 0.16 0 0 0.18 0 0 0.2 0 0 0.22 0 0 0.24 0 0 0.26 0 0 0.28 0 0 0.3 0 0 0.32 0 0 0.34 0 0 0.36 0 0 0.38 0 0 0.4 0 0 0.42 0 0 0.44 0 0 0.46 0 0 0.48 0 0 0.5 0 0 0.52 0 0 0.54 0 0 0.56 0 0 0.58 0 0 0.6 0 0 0.62 0 0 0.64 0 0 0.66 0 0 0.68 0 0 0.7 0 0 0.72 0 0 0.74 0 0 0.76 0 0 0.78 0 0 0.8 0 0 0.82 0 0 0.84 0 0 0.86 0 0 0.88 0 0 0.9 0 0 0.92 0 0 0.94 0 0 0.96 0 0 0.98 0 0 1 0 0 0 0.02 0 0.02 0.02 0 0.04 0.02 0 0.06 0.02 0 0.08 0.02 0 0.1 0.02 0 0.12 0.02 0 0.14 0.02 0 0.16 0.02 0 0.18 0.02 0 0.2 0.02 0 0.22 0.02 0 0.24 0.02 0 0.26 0.02 0 0.28 0.02 0 0.3 0.02 0 0.32 0.02 0 0.34 0.02 0 0.36 0.02 0 0.38 0.02 0 0.4 0.02 0 0.42 0.02 0 0.44 0.02 0 0.46 0.02 0 0.48 0.02 0 0.5 0.02 0 0.52 0.02 0 0.54 0.02 0 0.56 0.02 0 0.58 0.02 0 0.6 0.02 0 0.62 0.02 0 0.64 0.02 0 0.66 0.02 0 0.68 0.02 0 0.7 0.02 0 0.72 0.02 0 0.74 0.02 0 0.76 0.02 0 0.78 0.02 0 0.8 0.02 0 0.82 0.02 0 0.84 0.02 0 0.86 0.02 0 0.88 0.02 0 0.9 0.02 0 0.92 0.02 0 0.94 0.02 0 0.96 0.02 0 0.98 0.02 0 1 0.02 0 0 0.04 0 0.02 0.04 0 0.04 0.04 0 0.06 0.04 0 0.08 0.04 0 0.1 0.04 0 0.12 0.04 0 0.14 0.04 0 0.16 0.04 0 0.18 0.04 0 0.2 0.04 0 0.22 0.04 0 0.24 0.04 0 0.26 0.04 0 0.28 0.04 0 0.3 0.04 0 0.32 0.04 0 0.34 0.04 0 0.36 0.04 0 0.38 0.04 0 0.4 0.04 0 0.42 0.04 0 0.44 0.04 0 0.46 0.04 0 0.48 0.04 0 0.5 0.04 0 0.52 0.04 0 0.54 0.04 0 0.56 0.04 0 0.58 0.04 0 0.6 0.04 0 0.62 0.04 0 0.64 0.04 0 0.66 0.04 0 0.68 0.04 0 0.7 0.04 0 0.72 0.04 0 0.74 0.04 0 0.76 0.04 0 0.78 0.04 0 0.8 0.04 0 0.82 0.04 0 0.84 0.04 0 0.86 0.04 0 0.88 0.04 0 0.9 0.04 0 0.92 0.04 0 0.94 0.04 0 0.96 0.04 0 0.98 0.04 0 1 0.04 0 0 0.06 0 0.02 0.06 0 0.04 0.06 0 0.06 0.06 0 0.08 0.06 0 0.1 0.06 0 0.12 0.06 0 0.14 0.06 0 0.16 0.06 0 0.18 0.06 0 0.2 0.06 0 0.22 0.06 0 0.24 0.06 0 0.26 0.06 0 0.28 0.06 0 0.3 0.06 0 0.32 0.06 0 0.34 0.06 0 0.36 0.06 0 0.38 0.06 0 0.4 0.06 0 0.42 0.06 0 0.44 0.06 0 0.46 0.06 0 0.48 0.06 0 0.5 0.06 0 0.52 0.06 0 0.54 0.06 0 0.56 0.06 0 0.58 0.06 0 0.6 0.06 0 0.62 0.06 0 0.64 0.06 0 0.66 0.06 0 0.68 0.06 0 0.7 0.06 0 0.72 0.06 0 0.74 0.06 0 0.76 0.06 0 0.78 0.06 0 0.8 0.06 0 0.82 0.06 0 0.84 0.06 0 0.86 0.06 0 0.88 0.06 0 0.9 0.06 0 0.92 0.06 0 0.94 0.06 0 0.96 0.06 0 0.98 0.06 0 1 0.06 0 0 0.08 0 0.02 0.08 0 0.04 0.08 0 0.06 0.08 0 0.08 0.08 0 0.1 0.08 0 0.12 0.08 0 0.14 0.08 0 0.16 0.08 0 0.18 0.08 0 0.2 0.08 0 0.22 0.08 0 0.24 0.08 0 0.26 0.08 0 0.28 0.08 0 0.3 0.08 0 0.32 0.08 0 0.34 0.08 0 0.36 0.08 0 0.38 0.08 0 0.4 0.08 0 0.42 0.08 0 0.44 0.08 0 0.46 0.08 0 0.48 0.08 0 0.5 0.08 0 0.52 0.08 0 0.54 0.08 0 0.56 0.08 0 0.58 0.08 0 0.6 0.08 0 0.62 0.08 0 0.64 0.08 0 0.66 0.08 0 0.68 0.08 0 0.7 0.08 0 0.72 0.08 0 0.74 0.08 0 0.76 0.08 0 0.78 0.08 0 0.8 0.08 0 0.82 0.08 0 0.84 0.08 0 0.86 0.08 0 0.88 0.08 0 0.9 0.08 0 0.92 0.08 0 0.94 0.08 0 0.96 0.08 0 0.98 0.08 0 1 0.08 0 0 0.1 0 0.02 0.1 0 0.04 0.1 0 0.06 0.1 0 0.08 0.1 0 0.1 0.1 0 0.12 0.1 0 0.14 0.1 0 0.16 0.1 0 0.18 0.1 0 0.2 0.1 0 0.22 0.1 0 0.24 0.1 0 0.26 0.1 0 0.28 0.1 0 0.3 0.1 0 0.32 0.1 0 0.34 0.1 0 0.36 0.1 0 0.38 0.1 0 0.4 0.1 0 0.42 0.1 0 0.44 0.1 0 0.46 0.1 0 0.48 0.1 0 0.5 0.1 0 0.52 0.1 0 0.54 0.1 0 0.56 0.1 0 0.58 0.1 0 0.6 0.1 0 0.62 0.1 0 0.64 0.1 0 0.66 0.1 0 0.68 0.1 0 0.7 0.1 0 0.72 0.1 0 0.74 0.1 0 0.76 0.1 0 0.78 0.1 0 0.8 0.1 0 0.82 0.1 0 0.84 0.1 0 0.86 0.1 0 0.88 0.1 0 0.9 0.1 0 0.92 0.1 0 0.94 0.1 0 0.96 0.1 0 0.98 0.1 0 1 0.1 0 0 0.12 0 0.02 0.12 0 0.04 0.12 0 0.06 0.12 0 0.08 0.12 0 0.1 0.12 0 0.12 0.12 0 0.14 0.12 0 0.16 0.12 0 0.18 0.12 0 0.2 0.12 0 0.22 0.12 0 0.24 0.12 0 0.26 0.12 0 0.28 0.12 0 0.3 0.12 0 0.32 0.12 0 0.34 0.12 0 0.36 0.12 0 0.38 0.12 0 0.4 0.12 0 0.42 0.12 0 0.44 0.12 0 0.46 0.12 0 0.48 0.12 0 0.5 0.12 0 0.52 0.12 0 0.54 0.12 0 0.56 0.12 0 0.58 0.12 0 0.6 0.12 0 0.62 0.12 0 0.64 0.12 0 0.66 0.12 0 0.68 0.12 0 0.7 0.12 0 0.72 0.12 0 0.74 0.12 0 0.76 0.12 0 0.78 0.12 0 0.8 0.12 0 0.82 0.12 0 0.84 0.12 0 0.86 0.12 0 0.88 0.12 0 0.9 0.12 0 0.92 0.12 0 0.94 0.12 0 0.96 0.12 0 0.98 0.12 0 1 0.12 0 0 0.14 0 0.02 0.14 0 0.04 0.14 0 0.06 0.14 0 0.08 0.14 0 0.1 0.14 0 0.12 0.14 0 0.14 0.14 0 0.16 0.14 0 0.18 0.14 0 0.2 0.14 0 0.22 0.14 0 0.24 0.14 0 0.26 0.14 0 0.28 0.14 0 0.3 0.14 0 0.32 0.14 0 0.34 0.14 0 0.36 0.14 0 0.38 0.14 0 0.4 0.14 0 0.42 0.14 0 0.44 0.14 0 0.46 0.14 0 0.48 0.14 0 0.5 0.14 0 0.52 0.14 0 0.54 0.14 0 0.56 0.14 0 0.58 0.14 0 0.6 0.14 0 0.62 0.14 0 0.64 0.14 0 0.66 0.14 0 0.68 0.14 0 0.7 0.14 0 0.72 0.14 0 0.74 0.14 0 0.76 0.14 0 0.78 0.14 0 0.8 0.14 0 0.82 0.14 0 0.84 0.14 0 0.86 0.14 0 0.88 0.14 0 0.9 0.14 0 0.92 0.14 0 0.94 0.14 0 0.96 0.14 0 0.98 0.14 0 1 0.14 0 0 0.16 0 0.02 0.16 0 0.04 0.16 0 0.06 0.16 0 0.08 0.16 0 0.1 0.16 0 0.12 0.16 0 0.14 0.16 0 0.16 0.16 0 0.18 0.16 0 0.2 0.16 0 0.22 0.16 0 0.24 0.16 0 0.26 0.16 0 0.28 0.16 0 0.3 0.16 0 0.32 0.16 0 0.34 0.16 0 0.36 0.16 0 0.38 0.16 0 0.4 0.16 0 0.42 0.16 0 0.44 0.16 0 0.46 0.16 0 0.48 0.16 0 0.5 0.16 0 0.52 0.16 0 0.54 0.16 0 0.56 0.16 0 0.58 0.16 0 0.6 0.16 0 0.62 0.16 0 0.64 0.16 0 0.66 0.16 0 0.68 0.16 0 0.7 0.16 0 0.72 0.16 0 0.74 0.16 0 0.76 0.16 0 0.78 0.16 0 0.8 0.16 0 0.82 0.16 0 0.84 0.16 0 0.86 0.16 0 0.88 0.16 0 0.9 0.16 0 0.92 0.16 0 0.94 0.16 0 0.96 0.16 0 0.98 0.16 0 1 0.16 0 0 0.18 0 0.02 0.18 0 0.04 0.18 0 0.06 0.18 0 0.08 0.18 0 0.1 0.18 0 0.12 0.18 0 0.14 0.18 0 0.16 0.18 0 0.18 0.18 0 0.2 0.18 0 0.22 0.18 0 0.24 0.18 0 0.26 0.18 0 0.28 0.18 0 0.3 0.18 0 0.32 0.18 0 0.34 0.18 0 0.36 0.18 0 0.38 0.18 0 0.4 0.18 0 0.42 0.18 0 0.44 0.18 0 0.46 0.18 0 0.48 0.18 0 0.5 0.18 0 0.52 0.18 0 0.54 0.18 0 0.56 0.18 0 0.58 0.18 0 0.6 0.18 0 0.62 0.18 0 0.64 0.18 0 0.66 0.18 0 0.68 0.18 0 0.7 0.18 0 0.72 0.18 0 0.74 0.18 0 0.76 0.18 0 0.78 0.18 0 0.8 0.18 0 0.82 0.18 0 0.84 0.18 0 0.86 0.18 0 0.88 0.18 0 0.9 0.18 0 0.92 0.18 0 0.94 0.18 0 0.96 0.18 0 0.98 0.18 0 1 0.18 0 0 0.2 0 0.02 0.2 0 0.04 0.2 0 0.06 0.2 0 0.08 0.2 0 0.1 0.2 0 0.12 0.2 0 0.14 0.2 0 0.16 0.2 0 0.18 0.2 0 0.2 0.2 0 0.22 0.2 0 0.24 0.2 0 0.26 0.2 0 0.28 0.2 0 0.3 0.2 0 0.32 0.2 0 0.34 0.2 0 0.36 0.2 0 0.38 0.2 0 0.4 0.2 0 0.42 0.2 0 0.44 0.2 0 0.46 0.2 0 0.48 0.2 0 0.5 0.2 0 0.52 0.2 0 0.54 0.2 0 0.56 0.2 0 0.58 0.2 0 0.6 0.2 0 0.62 0.2 0 0.64 0.2 0 0.66 0.2 0 0.68 0.2 0 0.7 0.2 0 0.72 0.2 0 0.74 0.2 0 0.76 0.2 0 0.78 0.2 0 0.8 0.2 0 0.82 0.2 0 0.84 0.2 0 0.86 0.2 0 0.88 0.2 0 0.9 0.2 0 0.92 0.2 0 0.94 0.2 0 0.96 0.2 0 0.98 0.2 0 1 0.2 0 0 0.22 0 0.02 0.22 0 0.04 0.22 0 0.06 0.22 0 0.08 0.22 0 0.1 0.22 0 0.12 0.22 0 0.14 0.22 0 0.16 0.22 0 0.18 0.22 0 0.2 0.22 0 0.22 0.22 0 0.24 0.22 0 0.26 0.22 0 0.28 0.22 0 0.3 0.22 0 0.32 0.22 0 0.34 0.22 0 0.36 0.22 0 0.38 0.22 0 0.4 0.22 0 0.42 0.22 0 0.44 0.22 0 0.46 0.22 0 0.48 0.22 0 0.5 0.22 0 0.52 0.22 0 0.54 0.22 0 0.56 0.22 0 0.58 0.22 0 0.6 0.22 0 0.62 0.22 0 0.64 0.22 0 0.66 0.22 0 0.68 0.22 0 0.7 0.22 0 0.72 0.22 0 0.74 0.22 0 0.76 0.22 0 0.78 0.22 0 0.8 0.22 0 0.82 0.22 0 0.84 0.22 0 0.86 0.22 0 0.88 0.22 0 0.9 0.22 0 0.92 0.22 0 0.94 0.22 0 0.96 0.22 0 0.98 0.22 0 1 0.22 0 0 0.24 0 0.02 0.24 0 0.04 0.24 0 0.06 0.24 0 0.08 0.24 0 0.1 0.24 0 0.12 0.24 0 0.14 0.24 0 0.16 0.24 0 0.18 0.24 0 0.2 0.24 0 0.22 0.24 0 0.24 0.24 0 0.26 0.24 0 0.28 0.24 0 0.3 0.24 0 0.32 0.24 0 0.34 0.24 0 0.36 0.24 0 0.38 0.24 0 0.4 0.24 0 0.42 0.24 0 0.44 0.24 0 0.46 0.24 0 0.48 0.24 0 0.5 0.24 0 0.52 0.24 0 0.54 0.24 0 0.56 0.24 0 0.58 0.24 0 0.6 0.24 0 0.62 0.24 0 0.64 0.24 0 0.66 0.24 0 0.68 0.24 0 0.7 0.24 0 0.72 0.24 0 0.74 0.24 0 0.76 0.24 0 0.78 0.24 0 0.8 0.24 0 0.82 0.24 0 0.84 0.24 0 0.86 0.24 0 0.88 0.24 0 0.9 0.24 0 0.92 0.24 0 0.94 0.24 0 0.96 0.24 0 0.98 0.24 0 1 0.24 0 0 0.26 0 0.02 0.26 0 0.04 0.26 0 0.06 0.26 0 0.08 0.26 0 0.1 0.26 0 0.12 0.26 0 0.14 0.26 0 0.16 0.26 0 0.18 0.26 0 0.2 0.26 0 0.22 0.26 0 0.24 0.26 0 0.26 0.26 0 0.28 0.26 0 0.3 0.26 0 0.32 0.26 0 0.34 0.26 0 0.36 0.26 0 0.38 0.26 0 0.4 0.26 0 0.42 0.26 0 0.44 0.26 0 0.46 0.26 0 0.48 0.26 0 0.5 0.26 0 0.52 0.26 0 0.54 0.26 0 0.56 0.26 0 0.58 0.26 0 0.6 0.26 0 0.62 0.26 0 0.64 0.26 0 0.66 0.26 0 0.68 0.26 0 0.7 0.26 0 0.72 0.26 0 0.74 0.26 0 0.76 0.26 0 0.78 0.26 0 0.8 0.26 0 0.82 0.26 0 0.84 0.26 0 0.86 0.26 0 0.88 0.26 0 0.9 0.26 0 0.92 0.26 0 0.94 0.26 0 0.96 0.26 0 0.98 0.26 0 1 0.26 0 0 0.28 0 0.02 0.28 0 0.04 0.28 0 0.06 0.28 0 0.08 0.28 0 0.1 0.28 0 0.12 0.28 0 0.14 0.28 0 0.16 0.28 0 0.18 0.28 0 0.2 0.28 0 0.22 0.28 0 0.24 0.28 0 0.26 0.28 0 0.28 0.28 0 0.3 0.28 0 0.32 0.28 0 0.34 0.28 0 0.36 0.28 0 0.38 0.28 0 0.4 0.28 0 0.42 0.28 0 0.44 0.28 0 0.46 0.28 0 0.48 0.28 0 0.5 0.28 0 0.52 0.28 0 0.54 0.28 0 0.56 0.28 0 0.58 0.28 0 0.6 0.28 0 0.62 0.28 0 0.64 0.28 0 0.66 0.28 0 0.68 0.28 0 0.7 0.28 0 0.72 0.28 0 0.74 0.28 0 0.76 0.28 0 0.78 0.28 0 0.8 0.28 0 0.82 0.28 0 0.84 0.28 0 0.86 0.28 0 0.88 0.28 0 0.9 0.28 0 0.92 0.28 0 0.94 0.28 0 0.96 0.28 0 0.98 0.28 0 1 0.28 0 0 0.3 0 0.02 0.3 0 0.04 0.3 0 0.06 0.3 0 0.08 0.3 0 0.1 0.3 0 0.12 0.3 0 0.14 0.3 0 0.16 0.3 0 0.18 0.3 0 0.2 0.3 0 0.22 0.3 0 0.24 0.3 0 0.26 0.3 0 0.28 0.3 0 0.3 0.3 0 0.32 0.3 0 0.34 0.3 0 0.36 0.3 0 0.38 0.3 0 0.4 0.3 0 0.42 0.3 0 0.44 0.3 0 0.46 0.3 0 0.48 0.3 0 0.5 0.3 0 0.52 0.3 0 0.54 0.3 0 0.56 0.3 0 0.58 0.3 0 0.6 0.3 0 0.62 0.3 0 0.64 0.3 0 0.66 0.3 0 0.68 0.3 0 0.7 0.3 0 0.72 0.3 0 0.74 0.3 0 0.76 0.3 0 0.78 0.3 0 0.8 0.3 0 0.82 0.3 0 0.84 0.3 0 0.86 0.3 0 0.88 0.3 0 0.9 0.3 0 0.92 0.3 0 0.94 0.3 0 0.96 0.3 0 0.98 0.3 0 1 0.3 0 0 0.32 0 0.02 0.32 0 0.04 0.32 0 0.06 0.32 0 0.08 0.32 0 0.1 0.32 0 0.12 0.32 0 0.14 0.32 0 0.16 0.32 0 0.18 0.32 0 0.2 0.32 0 0.22 0.32 0 0.24 0.32 0 0.26 0.32 0 0.28 0.32 0 0.3 0.32 0 0.32 0.32 0 0.34 0.32 0 0.36 0.32 0 0.38 0.32 0 0.4 0.32 0 0.42 0.32 0 0.44 0.32 0 0.46 0.32 0 0.48 0.32 0 0.5 0.32 0 0.52 0.32 0 0.54 0.32 0 0.56 0.32 0 0.58 0.32 0 0.6 0.32 0 0.62 0.32 0 0.64 0.32 0 0.66 0.32 0 0.68 0.32 0 0.7 0.32 0 0.72 0.32 0 0.74 0.32 0 0.76 0.32 0 0.78 0.32 0 0.8 0.32 0 0.82 0.32 0 0.84 0.32 0 0.86 0.32 0 0.88 0.32 0 0.9 0.32 0 0.92 0.32 0 0.94 0.
[...]
			<PointData Scalars="VitesseX">
				<DataArray Name="VitesseX" type="Float32" format="ascii">
 0 0 0 0 0 0 0 0 0 0 0 0 0 0 0 0 0 0 0 0 0 0 0 0 0 0 0 0 0 0 0 0 0 0 0 0 0 0 0 0 0 0 0 0 0 0 0 0 0 0 -0 0 -0.000423348 -0.00168689 -0.00377076 -0.00664223 -0.0102561 -0.0145554 -0.0194725 -0.0249296 -0.0308407 -0.0371126 -0.0436462 -0.0503376 -0.0570817 -0.0637727 -0.0703045 -0.076574 -0.0824822 -0.0879358 -0.0928487 -0.0971436 -0.100753 -0.103619 -0.105708 -0.106956 -0.107374 -0.106949 -0.105664 -0.10357 -0.10069 -0.0970695 -0.0927662 -0.0878477 -0.0823915 -0.0764837 -0.0702173 -0.0636909 -0.0570078 -0.0502722 -0.0435896 -0.0370658 -0.0308035 -0.0249012 -0.019452 -0.0145416 -0.0102475 -0.0066374 -0.00376843 -0.00168588 -0.000423207 -4.59425e-27 0 -0.000840252 -0.00334932 -0.00748912 -0.013196 -0.020381 -0.0289318 -0.0387137 -0.0495723 -0.0613359 -0.0738178 -0.0868198 -0.100133 -0.113546 -0.12685 -0.139831 -0.152283 -0.164007 -0.174818 -0.184545 -0.193034 -0.200152 -0.205788 -0.209892 -0.212286 -0.213048 -0.212165 -0.209541 -0.205336 -0.199577 -0.192358 -0.183792 -0.174015 -0.163181 -0.151461 -0.139038 -0.126106 -0.112872 -0.0995368 -0.0863082 -0.0733956 -0.0610011 -0.0493188 -0.038532 -0.0288101 -0.0203064 -0.0131554 -0.00747059 -0.0033425 -0.00083934 -9.11667e-27 0 -0.00124403 -0.00496019 -0.0110935 -0.0195511 -0.0302024 -0.0428812 -0.0573885 -0.0734951 -0.0909454 -0.109462 -0.128749 -0.148493 -0.168382 -0.188105 -0.207341 -0.225784 -0.243139 -0.25913 -0.273504 -0.286034 -0.296524 -0.304809 -0.310842 -0.314293 -0.315348 -0.313989 -0.310012 -0.303721 -0.29514 -0.284406 -0.271692 -0.257197 -0.241151 -0.223805 -0.205431 -0.186313 -0.166757 -0.147058 -0.127517 -0.108446 -0.0901399 -0.0728853 -0.0569516 -0.0425888 -0.0300232 -0.0194538 -0.0110493 -0.00494416 -0.00124189 -1.3496e-26 0 -0.00162834 -0.00649427 -0.0145277 -0.0256087 -0.0395678 -0.056188 -0.0752088 -0.0963293 -0.119214 -0.143497 -0.16879 -0.194677 -0.220748 -0.246596 -0.271797 -0.295946 -0.318658 -0.33957 -0.358349 -0.374699 -0.388365 -0.399133 -0.406969 -0.411372 -0.412658 -0.410808 -0.405487 -0.397171 -0.385868 -0.371761 -0.355077 -0.336081 -0.31507 -0.292375 -0.268348 -0.243362 -0.217814 -0.192085 -0.166567 -0.141663 -0.11776 -0.0952289 -0.0744204 -0.0556606 -0.0392448 -0.0254336 -0.0144483 -0.0064657 -0.00162453 -1.76629e-26 0 -0.00198712 -0.00792737 -0.0177374 -0.0312733 -0.0483295 -0.0686423 -0.0918933 -0.117715 -0.145696 -0.175387 -0.206311 -0.237956 -0.269819 -0.301401 -0.332182 -0.361664 -0.389373 -0.414867 -0.43774 -0.457629 -0.474226 -0.487272 -0.496752 -0.501988 -0.503441 -0.501089 -0.49446 -0.48421 -0.470329 -0.453044 -0.432634 -0.409422 -0.383773 -0.356088 -0.326797 -0.296352 -0.265236 -0.233909 -0.20284 -0.172524 -0.143426 -0.115997 -0.0906633 -0.0678196 -0.0478261 -0.0310006 -0.017614 -0.00788326 -0.00198126 -2.15514e-26 0 -0.00231472 -0.00923687 -0.0206722 -0.0364556 -0.0563495 -0.0800476 -0.107179 -0.137315 -0.169973 -0.204628 -0.240721 -0.277648 -0.314821 -0.351658 -0.387545 -0.421901 -0.454171 -0.483837 -0.510426 -0.533519 -0.552754 -0.567836 -0.578772 -0.584714 -0.586266 -0.583407 -0.575529 -0.563467 -0.547194 -0.526976 -0.503139 -0.476065 -0.446177 -0.413942 -0.379858 -0.34445 -0.308277 -0.27187 -0.235767 -0.200542 -0.166734 -0.134864 -0.105424 -0.0788744 -0.0556319 -0.0360672 -0.0204968 -0.00917463 -0.00230647 -2.50998e-26 0 -0.00260599 -0.0104021 -0.0232856 -0.0410738 -0.0635012 -0.0902242 -0.120825 -0.15482 -0.191663 -0.230761 -0.271478 -0.313129 -0.355048 -0.396576 -0.437017 -0.475712 -0.512033 -0.545395 -0.575267 -0.601174 -0.622715 -0.63956 -0.651739 -0.658249 -0.659831 -0.656463 -0.647419 -0.633697 -0.615253 -0.592392 -0.565486 -0.534962 -0.501302 -0.465027 -0.426697 -0.386899 -0.346261 -0.30537 -0.264828 -0.225276 -0.187317 -0.151531 -0.118471 -0.0886509 -0.0625395 -0.0405538 -0.0230513 -0.0103196 -0.00259507 -2.82518e-26 0 -0.00285634 -0.0114048 -0.0255366 -0.045055 -0.0696718 -0.0990116 -0.132617 -0.169954 -0.210425 -0.253374 -0.298098 -0.34384 -0.389865 -0.435449 -0.479819 -0.52225 -0.56205 -0.598576 -0.631242 -0.659534 -0.683012 -0.701318 -0.714505 -0.721439 -0.722981 -0.71911 -0.709002 -0.693797 -0.673439 -0.648268 -0.618694 -0.58519 -0.548282 -0.508541 -0.466578 -0.423032 -0.378589 -0.333884 -0.289567 -0.246338 -0.204851 -0.165738 -0.129599 -0.0969957 -0.0684404 -0.04439 -0.0252375 -0.0113004 -0.00284255 -3.09573e-26 0 -0.00306182 -0.0122289 -0.0273894 -0.0483365 -0.0747641 -0.106271 -0.142367 -0.18248 -0.225963 -0.27211 -0.320162 -0.369299 -0.418728 -0.467667 -0.515281 -0.560786 -0.603438 -0.642544 -0.677477 -0.707685 -0.732699 -0.752143 -0.766086 -0.773294 -0.774726 -0.770367 -0.759314 -0.742826 -0.72084 -0.693728 -0.661932 -0.625961 -0.586381 -0.543802 -0.498877 -0.452284 -0.404756 -0.356963 -0.309596 -0.263397 -0.219061 -0.17726 -0.138633 -0.103777 -0.0732419 -0.0475155 -0.0270212 -0.0121016 -0.00304503 -3.31734e-26 0 -0.0032192 -0.0128617 -0.0288151 -0.0508665 -0.0786976 -0.111889 -0.149924 -0.192199 -0.238033 -0.286675 -0.337323 -0.389105 -0.441181 -0.492723 -0.542845 -0.590717 -0.635549 -0.676613 -0.713248 -0.744873 -0.771001 -0.791239 -0.805678 -0.813005 -0.814258 -0.809432 -0.797568 -0.780017 -0.756716 -0.72806 -0.694522 -0.656638 -0.615003 -0.570259 -0.523087 -0.474197 -0.424351 -0.374246 -0.3246 -0.276184 -0.229724 -0.185917 -0.145431 -0.10889 -0.0768685 -0.0498813 -0.0283743 -0.0127107 -0.00319936 -3.48647e-26 0 -0.003326 -0.013293 -0.0297909 -0.0526052 -0.0814105 -0.115775 -0.155167 -0.198959 -0.246443 -0.296839 -0.34931 -0.402947 -0.456873 -0.510226 -0.562081 -0.611572 -0.657881 -0.70025 -0.737994 -0.770517 -0.797318 -0.817998 -0.832661 -0.83995 -0.840961 -0.835846 -0.823453 -0.805193 -0.781004 -0.7513 -0.716574 -0.677386 -0.634351 -0.588135 -0.539438 -0.488991 -0.437578 -0.385914 -0.334731 -0.284822 -0.23693 -0.191771 -0.15003 -0.11235 -0.0793242 -0.0514834 -0.0292905 -0.013123 -0.00330372 -3.60044e-26 0 -0.00338124 -0.0135215 -0.0303191 -0.0535644 -0.0829327 -0.117988 -0.158189 -0.202895 -0.251379 -0.30284 -0.356416 -0.411168 -0.466194 -0.520603 -0.573441 -0.623817 -0.67089 -0.71388 -0.75209 -0.784914 -0.811845 -0.832486 -0.846957 -0.853889 -0.854417 -0.848599 -0.835426 -0.816356 -0.79134 -0.760813 -0.72528 -0.685313 -0.641535 -0.594615 -0.545257 -0.49419 -0.442197 -0.389987 -0.338289 -0.287894 -0.23954 -0.193942 -0.151785 -0.113715 -0.0803283 -0.0521646 -0.0296964 -0.0133135 -0.00335409 -3.65745e-26 0 -0.00338128 -0.013522 -0.0303216 -0.0535719 -0.0829497 -0.118021 -0.158244 -0.202979 -0.251499 -0.302998 -0.356614 -0.411403 -0.466459 -0.520889 -0.573735 -0.624105 -0.671157 -0.714116 -0.752285 -0.785062 -0.811946 -0.832546 -0.846984 -0.853895 -0.854417 -0.848579 -0.835365 -0.816236 -0.79115 -0.760549 -0.724946 -0.684919 -0.641097 -0.594153 -0.544792 -0.493742 -0.441786 -0.389625 -0.337986 -0.287652 -0.239357 -0.193813 -0.151701 -0.113665 -0.080302 -0.052153 -0.0296925 -0.0133127 -0.00335403 -3.65658e-26 0 -0.00333112 -0.0133333 -0.0299238 -0.0529101 -0.0819827 -0.116718 -0.156581 -0.200938 -0.24906 -0.300143 -0.353318 -0.407641 -0.462195 -0.516083 -0.56834 -0.618071 -0.66443 -0.706641 -0.74401 -0.775942 -0.801948 -0.821653 -0.835192 -0.841246 -0.840961 -0.834638 -0.821091 -0.801775 -0.776665 -0.746207 -0.710917 -0.671366 -0.628174 -0.581997 -0.53352 -0.48345 -0.432541 -0.38147 -0.330937 -0.281697 -0.234456 -0.189902 -0.148696 -0.111463 -0.0787862 -0.0511972 -0.0291661 -0.0130854 -0.00329894 -3.59785e-26 0 -0.00322629 -0.0129178 -0.0290005 -0.0512939 -0.0795024 -0.113218 -0.151925 -0.195006 -0.241753 -0.291379 -0.343035 -0.395797 -0.448768 -0.501066 -0.551751 -0.599946 -0.644829 -0.685644 -0.721721 -0.752488 -0.777477 -0.796331 -0.80919 -0.814796 -0.814259 -0.807673 -0.79412 -0.775011 -0.750342 -0.720558 -0.686168 -0.647729 -0.605843 -0.561144 -0.514288 -0.465952 -0.416852 -0.367631 -0.318955 -0.271538 -0.226051 -0.183148 -0.143458 -0.10758 -0.0760766 -0.0494613 -0.0281923 -0.0126559 -0.00319242 -3.48221e-26 0 -0.00307154 -0.0123059 -0.0276439 -0.048923 -0.0758688 -0.108097 -0.145116 -0.186335 -0.231073 -0.278571 -0.328009 -0.378492 -0.429149 -0.479126 -0.527512 -0.573461 -0.616179 -0.654941 -0.689108 -0.718135 -0.741585 -0.759127 -0.770903 -0.775751 -0.774727 -0.767935 -0.754548 -0.735908 -0.712034 -0.683365 -0.650393 -0.613658 -0.573732 -0.531215 -0.486728 -0.4409 -0.394401 -0.347829 -0.301802 -0.256981 -0.213989 -0.173435 -0.135907 -0.101968 -0.0721475 -0.0469349 -0.0267696 -0.0120257 -0.00303543 -3.3115e-26 0 -0.00286854 -0.0115013 -0.025856 -0.0457913 -0.0710588 -0.101304 -0.136068 -0.174795 -0.216842 -0.261489 -0.307954 -0.355386 -0.402954 -0.44984 -0.495179 -0.538165 -0.578046 -0.614138 -0.645841 -0.67265 -0.694162 -0.710082 -0.720548 -0.72452 -0.722981 -0.716044 -0.702993 -0.685076 -0.66234 -0.635208 -0.604154 -0.569686 -0.532343 -0.492681 -0.45127 -0.408688 -0.365542 -0.322375 -0.279746 -0.238253 -0.198459 -0.160917 -0.126163 -0.0947146 -0.0670607 -0.0436579 -0.0249202 -0.0112046 -0.00283043 -3.08844e-26 0 -0.00262049 -0.0105168 -0.023665 -0.0419482 -0.0651483 -0.0929465 -0.124924 -0.16057 -0.199286 -0.240401 -0.283186 -0.326845 -0.370596 -0.413671 -0.45526 -0.494613 -0.531029 -0.563875 -0.5926 -0.616745 -0.635951 -0.649962 -0.658911 -0.661905 -0.659832 -0.652811 -0.640262 -0.623312 -0.602036 -0.576842 -0.548173 -0.516503 -0.482326 -0.446145 -0.40847 -0.369819 -0.330726 -0.291667 -0.253134 -0.215649 -0.179705 -0.14579 -0.114379 -0.085934 -0.060896 -0.0396817 -0.0226732 -0.0102055 -0.00258063 -2.81657e-26 0 -0.00233128 -0.0093678 -0.0211054 -0.0374542 -0.0582308 -0.083157 -0.111861 -0.143883 -0.17868 -0.215641 -0.254096 -0.293316 -0.332583 -0.371185 -0.408383 -0.443489 -0.475865 -0.504939 -0.530218 -0.551296 -0.567863 -0.57971 -0.586959 -0.588887 -0.586267 -0.579226 -0.567338 -0.551582 -0.53207 -0.509182 -0.48333 -0.454943 -0.424464 -0.392335 -0.359002 -0.324907 -0.290501 -0.256189 -0.222384 -0.189524 -0.158023 -0.128293 -0.100741 -0.0757643 -0.0537504 -0.0350687 -0.0200638 -0.00904395 -0.00228992 -2.50023e-26 0 -0.00200547 -0.00807251 -0.0182177 -0.0323805 -0.0504153 -0.0720898 -0.0970847 -0.124998 -0.155351 -0.187598 -0.221142 -0.25533 -0.289514 -0.323053 -0.355286 -0.385598 -0.413423 -0.438259 -0.459676 -0.477331 -0.49097 -0.500429 -0.505824 -0.506612 -0.503442 -0.496448 -0.485366 -0.471014 -0.453538 -0.43329 -0.410641 -0.385973 -0.359666 -0.332099 -0.303641 -0.274654 -0.245497 -0.216497 -0.18798 -0.160289 -0.133753 -0.108701 -0.0854619 -0.0643655 -0.0457363 -0.0298914 -0.0171329 -0.00773804 -0.00196287 -2.14444e-26 0 -0.0016482 -0.00665135 -0.0150474 -0.026807 -0.0418252 -0.0599195 -0.0808279 -0.104213 -0.129665 -0.156716 -0.184844 -0.213484 -0.242068 -0.270033 -0.296804 -0.321851 -0.344686 -0.364883 -0.382086 -0.396017 -0.406481 -0.413368 -0.416783 -0.416374 -0.412658 -0.40578 -0.395634 -0.382874 -0.367676 -0.350359 -0.33125 -0.310676 -0.288952 -0.266384 -0.243259 -0.219851 -0.196425 -0.173219 -0.150464 -0.128405 -0.107277 -0.087321 -0.0687834 -0.051917 -0.0369798 -0.0242313 -0.0139268 -0.00630823 -0.0016046 -1.75484e-26 0 -0.00126509 -0.00512675 -0.0116446 -0.0208217 -0.0325962 -0.0468382 -0.0633475 -0.0818553 -0.102029 -0.12348 -0.145775 -0.168438 -0.190993 -0.21296 -0.233861 -0.253253 -0.270738 -0.28597 -0.298671 -0.308635 -0.315729 -0.319899 -0.321243 -0.319595 -0.315348 -0.308653 -0.299555 -0.28855 -0.275835 -0.261695 -0.246407 -0.230238 -0.213435 -0.196223 -0.178805 -0.161362 -0.144057 -0.127036 -0.110427 -0.0943737 -0.079013 -0.0644917 -0.0509681 -0.0386149 -0.0276187 -0.0181774 -0.0104956 -0.00477691 -0.00122072 -1.33761e-26 0 -0.000862184 -0.00352275 -0.00806301 -0.014519 -0.0228738 -0.0330524 -0.0449192 -0.0582786 -0.0728786 -0.088417 -0.104552 -0.120904 -0.137095 -0.152735 -0.167449 -0.180888 -0.192746 -0.202765 -0.210749 -0.216565 -0.220148 -0.221497 -0.220719 -0.217805 -0.213048 -0.206606 -0.198647 -0.189529 -0.179465 -0.168696 -0.15745 -0.145927 -0.134304 -0.122723 -0.111297 -0.100109 -0.0892199 -0.0786751 -0.068501 -0.0587329 -0.0494069 -0.0405725 -0.0322968 -0.0246689 -0.0178005 -0.0118251 -0.00689345 -0.00316812 -0.00081727 -8.99357e-27 0 -0.000445831 -0.00186467 -0.00435904 -0.00799848 -0.0128114 -0.0187795 -0.0258339 -0.0338548 -0.0426738 -0.0520792 -0.0618243 -0.0716326 -0.0812246 -0.0903099 -0.0986179 -0.1059 -0.111944 -0.116585 -0.11971 -0.121264 -0.121248 -0.119721 -0.116804 -0.112613 -0.107374 -0.101255 -0.0945045 -0.087378 -0.0800872 -0.0728313 -0.0657818 -0.0590754 -0.0528102 -0.0470447 -0.0417988 -0.0370592 -0.0327786 -0.0289018 -0.0253476 -0.0220447 -0.0189257 -0.0159407 -0.013064 -0.0102987 -0.00768001 -0.0052743 -0.003177 -0.00150711 -0.000400585 -4.47003e-27 0 -2.25987e-05 -0.000178712 -0.000591467 -0.00136378 -0.00256981 -0.00424833 -0.00639835 -0.00897742 -0.0119027 -0.015055 -0.0182854 -0.0214214 -0.0242869 -0.0266944 -0.0284814 -0.0294988 -0.0296343 -0.0288154 -0.0270153 -0.0242561 -0.0206084 -0.0161882 -0.0111524 -0.00568531 4.23147e-08 0.00568538 0.0111526 0.0161885 0.0206087 0.0242563 0.0270154 0.0288154 0.0296344 0.0294988 0.0284814 0.0266945 0.024287 0.0214216 0.0182855 0.0150551 0.0119028 0.00897751 0.00639838 0.00424834 0.00256982 0.00136378 0.000591467 0.000178712 2.25987e-05 1.23053e-28 0 0.000400585 0.00150711 0.003177 0.00527431 0.00768001 0.0102988 0.013064 0.0159408 0.0189258 0.0220448 0.0253477 0.028902 0.0327788 0.0370593 0.0417989 0.0470448 0.0528103 0.0590754 0.0657819 0.0728315 0.0800874 0.0873781 0.0945046 0.101255 0.107374 0.112613 0.116804 0.119721 0.121248 0.121264 0.11971 0.116585 0.111944 0.1059 0.0986179 0.0903099 0.0812246 0.0716327 0.0618244 0.0520793 0.0426739 0.0338549 0.0258339 0.0187795 0.0128115 0.00799848 0.00435904 0.00186467 0.000445831 4.71324e-27 0 0.00081727 0.00316812 0.00689345 0.0118251 0.0178005 0.0246689 0.0322968 0.0405725 0.0494071 0.058733 0.0685011 0.0786754 0.0892203 0.10011 0.111297 0.122723 0.134304 0.145928 0.15745 0.168696 0.179465 0.18953 0.198647 0.206606 0.213048 0.217806 0.220719 0.221498 0.220148 0.216565 0.210749 0.202765 0.192746 0.180888 0.167449 0.152735 0.137095 0.120905 0.104552 0.0884171 0.0728787 0.0582787 0.0449192 0.0330524 0.0228738 0.014519 0.00806301 0.00352275 0.000862184 9.22824e-27 0 0.00122072 0.00477691 0.0104956 0.0181774 0.0276187 0.0386149 0.0509681 0.0644917 0.0790132 0.0943739 0.110427 0.127036 0.144058 0.161363 0.178805 0.196223 0.213435 0.230238 0.246407 0.261695 0.275835 0.28855 0.299556 0.308653 0.315348 0.319596 0.321244 0.319899 0.31573 0.308635 0.298671 0.28597 0.270737 0.253253 0.233861 0.21296 0.190993 0.168438 0.145775 0.12348 0.102029 0.0818554 0.0633475 0.0468382 0.0325962 0.0208217 0.0116446 0.00512675 0.00126509 1.3597e-26 0 0.0016046 0.00630823 0.0139268 0.0242313 0.0369798 0.051917 0.0687834 0.0873211 0.107277 0.128405 0.150464 0.17322 0.196426 0.219852 0.243259 0.266384 0.288952 0.310676 0.331251 0.350359 0.367676 0.382874 0.395634 0.40578 0.412659 0.416374 0.416783 0.413368 0.406482 0.396018 0.382086 0.364883 0.344686 0.321851 0.296804 0.270033 0.242068 0.213484 0.184844 0.156716 0.129665 0.104213 0.080828 0.0599195 0.0418252 0.026807 0.0150474 0.00665135 0.0016482 1.77509e-26 0 0.00196287 0.00773804 0.0171329 0.0298914 0.0457363 0.0643655 0.0854619 0.108701 0.133753 0.160289 0.187981 0.216498 0.245498 0.274654 0.303642 0.3321 0.359667 0.385973 0.410642 0.43329 0.453538 0.471015 0.485366 0.496448 0.503442 0.506612 0.505824 0.50043 0.490971 0.477332 0.459676 0.438258 0.413423 0.385598 0.355286 0.323053 0.289514 0.25533 0.221142 0.187598 0.155351 0.124998 0.0970847 0.0720898 0.0504153 0.0323805 0.0182177 0.00807251 0.00200547 2.16247e-26 0 0.00228992 0.00904395 0.0200638 0.0350687 0.0537504 0.0757643 0.100741 0.128293 0.158023 0.189524 0.222384 0.256189 0.290501 0.324908 0.359003 0.392336 0.424464 0.454944 0.48333 0.509182 0.53207 0.551583 0.567339 0.579227 0.586267 0.588888 0.58696 0.57971 0.567864 0.551296 0.530218 0.504939 0.475865 0.443489 0.408383 0.371185 0.332583 0.293316 0.254096 0.215641 0.17868 0.143883 0.111861 0.083157 0.0582308 0.0374542 0.0211054 0.0093678 0.00233128 2.51577e-26 0 0.00258063 0.0102055 0.0226732 0.0396817 0.060896 0.085934 0.114379 0.14579 0.179705 0.215649 0.253134 0.291667 0.330727 0.369821 0.408472 0.446145 0.482326 0.516504 0.548174 0.576842 0.602037 0.623312 0.640263 0.652811 0.659832 0.661906 0.658912 0.649962 0.635951 0.616745 0.5926 0.563875 0.531029 0.494613 0.45526 0.413671 0.370596 0.326845 0.283186 0.240401 0.199286 0.16057 0.124924 0.0929465 0.0651483 0.0419482 0.023665 0.0105168 0.00262049 2.82945e-26 0 0.00283043 0.0112046 0.0249202 0.0436579 0.0670607 0.0947146 0.126163 0.160917 0.198459 0.238253 0.279746 0.322375 0.365542 0.408688 0.451271 0.492681 0.532343 0.569687 0.604154 0.635208 0.66234 0.685076 0.702994 0.716044 0.722981 0.72452 0.720548 0.710082 0.694162 0.67265 0.645842 0.614138 0.578046 0.538165 0.495179 0.44984 0.402954 0.355386 0.307954 0.261489 0.216842 0.174795 0.136068 0.101304 0.0710588 0.0457913 0.025856 0.0115013 0.00286854 3.0986e-26 0 0.00303543 0.0120257 0.0267696 0.0469349 0.0721475 0.101968 0.135907 0.173435 0.213989 0.256981 0.301802 0.34783 0.394402 0.4409 0.486728 0.531216 0.573732 0.613658 0.650393 0.683365 0.712034 0.735908 0.754548 0.767936 0.774727 0.775751 0.770903 0.759127 0.741585 0.718135 0.689108 0.654941 0.616179 0.573461 0.527512 0.479126 0.429149 0.378491 0.328009 0.278571 0.231073 0.186335 0.145116 0.108097 0.0758688 0.048923 0.0276439 0.0123059 0.00307154 3.31901e-26 0 0.00319242 0.0126559 0.0281923 0.0494613 0.0760766 0.10758 0.143458 0.183148 0.226051 0.271538 0.318955 0.367631 0.416851 0.465951 0.514289 0.561144 0.605843 0.647729 0.686168 0.720559 0.750342 0.775011 0.79412 0.807673 0.814259 0.814796 0.80919 0.796331 0.777477 0.752488 0.721721 0.685643 0.644829 0.599946 0.551751 0.501066 0.448767 0.395797 0.343035 0.291379 0.241753 0.195006 0.151925 0.113218 0.0795024 0.0512939 0.0290005 0.0129178 0.00322629 3.48724e-26 0 0.00329894 0.0130854 0.0291661 0.0511972 0.0787862 0.111463 0.148696 0.189902 0.234456 0.281696 0.330937 0.38147 0.43254 0.483449 0.53352 0.581997 0.628174 0.671367 0.710917 0.746207 0.776665 0.801775 0.821091 0.834638 0.840961 0.841246 0.835192 0.821653 0.801948 0.775942 0.74401 0.70664 0.66443 0.618071 0.56834 0.516082 0.462195 0.407641 0.353318 0.300143 0.24906 0.200938 0.156581 0.116718 0.0819827 0.0529101 0.0299238 0.0133333 0.00333112 3.60064e-26 0 0.00335403 0.0133127 0.0296925 0.052153 0.080302 0.113665 0.151701 0.193813 0.239357 0.287652 0.337986 0.389625 0.441786 0.493742 0.544792 0.594153 0.641097 0.684918 0.724946 0.760549 0.79115 0.816236 0.835365 0.84858 0.854417 0.853895 0.846984 0.832546 0.811946 0.785062 0.752285 0.714116 0.671157 0.624105 0.573735 0.520889 0.466459 0.411403 0.356614 0.302998 0.251498 0.202979 0.158244 0.118021 0.0829497 0.0535719 0.0303216 0.013522 0.00338128 3.65745e-26 0 0.00335409 0.0133135 0.0296964 0.0521646 0.0803283 0.113715 0.151785 0.193942 0.23954 0.287894 0.338289 0.389987 0.442197 0.49419 0.545257 0.594615 0.641535 0.685313 0.72528 0.760813 0.79134 0.816356 0.835426 0.848599 0.854417 0.853888 0.846957 0.832486 0.811844 0.784914 0.75209 0.71388 0.670889 0.623817 0.573441 0.520603 0.466194 0.411168 0.356416 0.30284 0.251379 0.202895 0.158189 0.117988 0.0829327 0.0535644 0.0303191 0.0135215 0.00338124 3.65677e-26 0 0.00330372 0.013123 0.0292905 0.0514834 0.0793242 0.11235 0.15003 0.191771 0.23693 0.284822 0.334731 0.385914 0.437578 0.48899 0.539438 0.588135 0.634351 0.677385 0.716574 0.7513 0.781004 0.805193 0.823453 0.835846 0.840961 0.83995 0.832661 0.817998 0.797318 0.770517 0.737994 0.70025 0.657881 0.611572 0.562081 0.510226 0.456873 0.402947 0.34931 0.296839 0.246443 0.198959 0.155167 0.115775 0.0814105 0.0526052 0.0297909 0.013293 0.003326 3.59861e-26 0 0.00319936 0.0127107 0.0283743 0.0498813 0.0768685 0.10889 0.145431 0.185917 0.229724 0.276184 0.3246 0.374246 0.424351 0.474197 0.523087 0.570259 0.615003 0.656638 0.694521 0.72806 0.756716 0.780017 0.797568 0.809432 0.814258 0.813005 0.805677 0.791239 0.771001 0.7