<?xml version="1.0"?>
<VTKFile type="PolyData">
	<PolyData>
		<Piece NumberOfPoints="2601" NumberOfPolys="2500">
			<Points>
				<DataArray type="Float32" NumberOfComponents="3" format="ascii">
 0 0 0 0.02 0 0 0.04 0 0 0.06 0 0 0.08 0 0 0.1 0 0 0.12 0 0 0.14 0 0 0.16 0 0 0.18 0 0 0.2 0 0 0.22 0 0 0.24 0 0 0.26 0 0 0.28 0 0 0.3 0 0 0.32 0 0 0.34 0 0 0.36 0 0 0.38 0 0 0.4 0 0 0.42 0 0 0.44 0 0 0.46 0 0 0.48 0 0 0.5 0 0 0.52 0 0 0.54 0 0 0.56 0 0 0.58 0 0 0.6 0 0 0.62 0 0 0.64 0 0 0.66 0 0 0.68 0 0 0.7 0 0 0.72 0 0 0.74 0 0 0.76 0 0 0.78 0 0 0.8 0 0 0.82 0 0 0.84 0 0 0.86 0 0 0.88 0 0 0.9 0 0 0.92 0 0 0.94 0 0 0.96 0 0 0.98 0 0 1 0 0 0 0.02 0 0.02 0.02 0 0.04 0.02 0 0.06 0.02 0 0.08 0.02 0 0.1 0.02 0 0.12 0.02 0 0.14 0.02 0 0.16 0.02 0 0.18 0.02 0 0.2 0.02 0 0.22 0.02 0 0.24 0.02 0 0.26 0.02 0 0.28 0.02 0 0.3 0.02 0 0.32 0.02 0 0.34 0.02 0 0.36 0.02 0 0.38 0.02 0 0.4 0.02 0 0.42 0.02 0 0.44 0.02 0 0.46 0.02 0 0.48 0.02 0 0.5 0.02 0 0.52 0.02 0 0.54 0.02 0 0.56 0.02 0 0.58 0.02 0 0.6 0.02 0 0.62 0.02 0 0.64 0.02 0 0.66 0.02 0 0.68 0.02 0 0.7 0.02 0 0.72 0.02 0 0.74 0.02 0 0.76 0.02 0 0.78 0.02 0 0.8 0.02 0 0.82 0.02 0 0.84 0.02 0 0.86 0.02 0 0.88 0.02 0 0.9 0.02 0 0.92 0.02 0 0.94 0.02 0 0.96 0.02 0 0.98 0.02 0 1 0.02 0 0 0.04 0 0.02 0.04 0 0.04 0.04 0 0.06 0.04 0 0.08 0.04 0 0.1 0.04 0 0.12 0.04 0 0.14 0.04 0 0.16 0.04 0 0.18 0.04 0 0.2 0.04 0 0.22 0.04 0 0.24 0.04 0 0.26 0.04 0 0.28 0.04 0 0.3 0.04 0 0.32 0.04 0 0.34 0.04 0 0.36 0.04 0 0.38 0.04 0 0.4 0.04 0 0.42 0.04 0 0.44 0.04 0 0.46 0.04 0 0.48 0.04 0 0.5 0.04 0 0.52 0.04 0 0.54 0.04 0 0.56 0.04 0 0.58 0.04 0 0.6 0.04 0 0.62 0.04 0 0.64 0.04 0 0.66 0.04 0 0.68 0.04 0 0.7 0.04 0 0.72 0.04 0 0.74 0.04 0 0.76 0.04 0 0.78 0.04 0 0.8 0.04 0 0.82 0.04 0 0.84 0.04 0 0.86 0.04 0 0.88 0.04 0 0.9 0.04 0 0.92 0.04 0 0.94 0.04 0 0.96 0.04 0 0.98 0.04 0 1 0.04 0 0 0.06 0 0.02 0.06 0 0.04 0.06 0 0.06 0.06 0 0.08 0.06 0 0.1 0.06 0 0.12 0.06 0 0.14 0.06 0 0.16 0.06 0 0.18 0.06 0 0.2 0.06 0 0.22 0.06 0 0.24 0.06 0 0.26 0.06 0 0.28 0.06 0 0.3 0.06 0 0.32 0.06 0 0.34 0.06 0 0.36 0.06 0 0.38 0.06 0 0.4 0.06 0 0.42 0.06 0 0.44 0.06 0 0.46 0.06 0 0.48 0.06 0 0.5 0.06 0 0.52 0.06 0 0.54 0.06 0 0.56 0.06 0 0.58 0.06 0 0.6 0.06 0 0.62 0.06 0 0.64 0.06 0 0.66 0.06 0 0.68 0.06 0 0.7 0.06 0 0.72 0.06 0 0.74 0.06 0 0.76 0.06 0 0.78 0.06 0 0.8 0.06 0 0.82 0.06 0 0.84 0.06 0 0.86 0.06 0 0.88 0.06 0 0.9 0.06 0 0.92 0.06 0 0.94 0.06 0 0.96 0.06 0 0.98 0.06 0 1 0.06 0 0 0.08 0 0.02 0.08 0 0.04 0.08 0 0.06 0.08 0 0.08 0.08 0 0.1 0.08 0 0.12 0.08 0 0.14 0.08 0 0.16 0.08 0 0.18 0.08 0 0.2 0.08 0 0.22 0.08 0 0.24 0.08 0 0.26 0.08 0 0.28 0.08 0 0.3 0.08 0 0.32 0.08 0 0.34 0.08 0 0.36 0.08 0 0.38 0.08 0 0.4 0.08 0 0.42 0.08 0 0.44 0.08 0 0.46 0.08 0 0.48 0.08 0 0.5 0.08 0 0.52 0.08 0 0.54 0.08 0 0.56 0.08 0 0.58 0.08 0 0.6 0.08 0 0.62 0.08 0 0.64 0.08 0 0.66 0.08 0 0.68 0.08 0 0.7 0.08 0 0.72 0.08 0 0.74 0.08 0 0.76 0.08 0 0.78 0.08 0 0.8 0.08 0 0.82 0.08 0 0.84 0.08 0 0.86 0.08 0 0.88 0.08 0 0.9 0.08 0 0.92 0.08 0 0.94 0.08 0 0.96 0.08 0 0.98 0.08 0 1 0.08 0 0 0.1 0 0.02 0.1 0 0.04 0.1 0 0.06 0.1 0 0.08 0.1 0 0.1 0.1 0 0.12 0.1 0 0.14 0.1 0 0.16 0.1 0 0.18 0.1 0 0.2 0.1 0 0.22 0.1 0 0.24 0.1 0 0.26 0.1 0 0.28 0.1 0 0.3 0.1 0 0.32 0.1 0 0.34 0.1 0 0.36 0.1 0 0.38 0.1 0 0.4 0.1 0 0.42 0.1 0 0.44 0.1 0 0.46 0.1 0 0.48 0.1 0 0.5 0.1 0 0.52 0.1 0 0.54 0.1 0 0.56 0.1 0 0.58 0.1 0 0.6 0.1 0 0.62 0.1 0 0.64 0.1 0 0.66 0.1 0 0.68 0.1 0 0.7 0.1 0 0.72 0.1 0 0.74 0.1 0 0.76 0.1 0 0.78 0.1 0 0.8 0.1 0 0.82 0.1 0 0.84 0.1 0 0.86 0.1 0 0.88 0.1 0 0.9 0.1 0 0.92 0.1 0 0.94 0.1 0 0.96 0.1 0 0.98 0.1 0 1 0.1 0 0 0.12 0 0.02 0.12 0 0.04 0.12 0 0.06 0.12 0 0.08 0.12 0 0.1 0.12 0 0.12 0.12 0 0.14 0.12 0 0.16 0.12 0 0.18 0.12 0 0.2 0.12 0 0.22 0.12 0 0.24 0.12 0 0.26 0.12 0 0.28 0.12 0 0.3 0.12 0 0.32 0.12 0 0.34 0.12 0 0.36 0.12 0 0.38 0.12 0 0.4 0.12 0 0.42 0.12 0 0.44 0.12 0 0.46 0.12 0 0.48 0.12 0 0.5 0.12 0 0.52 0.12 0 0.54 0.12 0 0.56 0.12 0 0.58 0.12 0 0.6 0.12 0 0.62 0.12 0 0.64 0.12 0 0.66 0.12 0 0.68 0.12 0 0.7 0.12 0 0.72 0.12 0 0.74 0.12 0 0.76 0.12 0 0.78 0.12 0 0.8 0.12 0 0.82 0.12 0 0.84 0.12 0 0.86 0.12 0 0.88 0.12 0 0.9 0.12 0 0.92 0.12 0 0.94 0.12 0 0.96 0.12 0 0.98 0.12 0 1 0.12 0 0 0.14 0 0.02 0.14 0 0.04 0.14 0 0.06 0.14 0 0.08 0.14 0 0.1 0.14 0 0.12 0.14 0 0.14 0.14 0 0.16 0.14 0 0.18 0.14 0 0.2 0.14 0 0.22 0.14 0 0.24 0.14 0 0.26 0.14 0 0.28 0.14 0 0.3 0.14 0 0.32 0.14 0 0.34 0.14 0 0.36 0.14 0 0.38 0.14 0 0.4 0.14 0 0.42 0.14 0 0.44 0.14 0 0.46 0.14 0 0.48 0.14 0 0.5 0.14 0 0.52 0.14 0 0.54 0.14 0 0.56 0.14 0 0.58 0.14 0 0.6 0.14 0 0.62 0.14 0 0.64 0.14 0 0.66 0.14 0 0.68 0.14 0 0.7 0.14 0 0.72 0.14 0 0.74 0.14 0 0.76 0.14 0 0.78 0.14 0 0.8 0.14 0 0.82 0.14 0 0.84 0.14 0 0.86 0.14 0 0.88 0.14 0 0.9 0.14 0 0.92 0.14 0 0.94 0.14 0 0.96 0.14 0 0.98 0.14 0 1 0.14 0 0 0.16 0 0.02 0.16 0 0.04 0.16 0 0.06 0.16 0 0.08 0.16 0 0.1 0.16 0 0.12 0.16 0 0.14 0.16 0 0.16 0.16 0 0.18 0.16 0 0.2 0.16 0 0.22 0.16 0 0.24 0.16 0 0.26 0.16 0 0.28 0.16 0 0.3 0.16 0 0.32 0.16 0 0.34 0.16 0 0.36 0.16 0 0.38 0.16 0 0.4 0.16 0 0.42 0.16 0 0.44 0.16 0 0.46 0.16 0 0.48 0.16 0 0.5 0.16 0 0.52 0.16 0 0.54 0.16 0 0.56 0.16 0 0.58 0.16 0 0.6 0.16 0 0.62 0.16 0 0.64 0.16 0 0.66 0.16 0 0.68 0.16 0 0.7 0.16 0 0.72 0.16 0 0.74 0.16 0 0.76 0.16 0 0.78 0.16 0 0.8 0.16 0 0.82 0.16 0 0.84 0.16 0 0.86 0.16 0 0.88 0.16 0 0.9 0.16 0 0.92 0.16 0 0.94 0.16 0 0.96 0.16 0 0.98 0.16 0 1 0.16 0 0 0.18 0 0.02 0.18 0 0.04 0.18 0 0.06 0.18 0 0.08 0.18 0 0.1 0.18 0 0.12 0.18 0 0.14 0.18 0 0.16 0.18 0 0.18 0.18 0 0.2 0.18 0 0.22 0.18 0 0.24 0.18 0 0.26 0.18 0 0.28 0.18 0 0.3 0.18 0 0.32 0.18 0 0.34 0.18 0 0.36 0.18 0 0.38 0.18 0 0.4 0.18 0 0.42 0.18 0 0.44 0.18 0 0.46 0.18 0 0.48 0.18 0 0.5 0.18 0 0.52 0.18 0 0.54 0.18 0 0.56 0.18 0 0.58 0.18 0 0.6 0.18 0 0.62 0.18 0 0.64 0.18 0 0.66 0.18 0 0.68 0.18 0 0.7 0.18 0 0.72 0.18 0 0.74 0.18 0 0.76 0.18 0 0.78 0.18 0 0.8 0.18 0 0.82 0.18 0 0.84 0.18 0 0.86 0.18 0 0.88 0.18 0 0.9 0.18 0 0.92 0.18 0 0.94 0.18 0 0.96 0.18 0 0.98 0.18 0 1 0.18 0 0 0.2 0 0.02 0.2 0 0.04 0.2 0 0.06 0.2 0 0.08 0.2 0 0.1 0.2 0 0.12 0.2 0 0.14 0.2 0 0.16 0.2 0 0.18 0.2 0 0.2 0.2 0 0.22 0.2 0 0.24 0.2 0 0.26 0.2 0 0.28 0.2 0 0.3 0.2 0 0.32 0.2 0 0.34 0.2 0 0.36 0.2 0 0.38 0.2 0 0.4 0.2 0 0.42 0.2 0 0.44 0.2 0 0.46 0.2 0 0.48 0.2 0 0.5 0.2 0 0.52 0.2 0 0.54 0.2 0 0.56 0.2 0 0.58 0.2 0 0.6 0.2 0 0.62 0.2 0 0.64 0.2 0 0.66 0.2 0 0.68 0.2 0 0.7 0.2 0 0.72 0.2 0 0.74 0.2 0 0.76 0.2 0 0.78 0.2 0 0.8 0.2 0 0.82 0.2 0 0.84 0.2 0 0.86 0.2 0 0.88 0.2 0 0.9 0.2 0 0.92 0.2 0 0.94 0.2 0 0.96 0.2 0 0.98 0.2 0 1 0.2 0 0 0.22 0 0.02 0.22 0 0.04 0.22 0 0.06 0.22 0 0.08 0.22 0 0.1 0.22 0 0.12 0.22 0 0.14 0.22 0 0.16 0.22 0 0.18 0.22 0 0.2 0.22 0 0.22 0.22 0 0.24 0.22 0 0.26 0.22 0 0.28 0.22 0 0.3 0.22 0 0.32 0.22 0 0.34 0.22 0 0.36 0.22 0 0.38 0.22 0 0.4 0.22 0 0.42 0.22 0 0.44 0.22 0 0.46 0.22 0 0.48 0.22 0 0.5 0.22 0 0.52 0.22 0 0.54 0.22 0 0.56 0.22 0 0.58 0.22 0 0.6 0.22 0 0.62 0.22 0 0.64 0.22 0 0.66 0.22 0 0.68 0.22 0 0.7 0.22 0 0.72 0.22 0 0.74 0.22 0 0.76 0.22 0 0.78 0.22 0 0.8 0.22 0 0.82 0.22 0 0.84 0.22 0 0.86 0.22 0 0.88 0.22 0 0.9 0.22 0 0.92 0.22 0 0.94 0.22 0 0.96 0.22 0 0.98 0.22 0 1 0.22 0 0 0.24 0 0.02 0.24 0 0.04 0.24 0 0.06 0.24 0 0.08 0.24 0 0.1 0.24 0 0.12 0.24 0 0.14 0.24 0 0.16 0.24 0 0.18 0.24 0 0.2 0.24 0 0.22 0.24 0 0.24 0.24 0 0.26 0.24 0 0.28 0.24 0 0.3 0.24 0 0.32 0.24 0 0.34 0.24 0 0.36 0.24 0 0.38 0.24 0 0.4 0.24 0 0.42 0.24 0 0.44 0.24 0 0.46 0.24 0 0.48 0.24 0 0.5 0.24 0 0.52 0.24 0 0.54 0.24 0 0.56 0.24 0 0.58 0.24 0 0.6 0.24 0 0.62 0.24 0 0.64 0.24 0 0.66 0.24 0 0.68 0.24 0 0.7 0.24 0 0.72 0.24 0 0.74 0.24 0 0.76 0.24 0 0.78 0.24 0 0.8 0.24 0 0.82 0.24 0 0.84 0.24 0 0.86 0.24 0 0.88 0.24 0 0.9 0.24 0 0.92 0.24 0 0.94 0.24 0 0.96 0.24 0 0.98 0.24 0 1 0.24 0 0 0.26 0 0.02 0.26 0 0.04 0.26 0 0.06 0.26 0 0.08 0.26 0 0.1 0.26 0 0.12 0.26 0 0.14 0.26 0 0.16 0.26 0 0.18 0.26 0 0.2 0.26 0 0.22 0.26 0 0.24 0.26 0 0.26 0.26 0 0.28 0.26 0 0.3 0.26 0 0.32 0.26 0 0.34 0.26 0 0.36 0.26 0 0.38 0.26 0 0.4 0.26 0 0.42 0.26 0 0.44 0.26 0 0.46 0.26 0 0.48 0.26 0 0.5 0.26 0 0.52 0.26 0 0.54 0.26 0 0.56 0.26 0 0.58 0.26 0 0.6 0.26 0 0.62 0.26 0 0.64 0.26 0 0.66 0.26 0 0.68 0.26 0 0.7 0.26 0 0.72 0.26 0 0.74 0.26 0 0.76 0.26 0 0.78 0.26 0 0.8 0.26 0 0.82 0.26 0 0.84 0.26 0 0.86 0.26 0 0.88 0.26 0 0.9 0.26 0 0.92 0.26 0 0.94 0.26 0 0.96 0.26 0 0.98 0.26 0 1 0.26 0 0 0.28 0 0.02 0.28 0 0.04 0.28 0 0.06 0.28 0 0.08 0.28 0 0.1 0.28 0 0.12 0.28 0 0.14 0.28 0 0.16 0.28 0 0.18 0.28 0 0.2 0.28 0 0.22 0.28 0 0.24 0.28 0 0.26 0.28 0 0.28 0.28 0 0.3 0.28 0 0.32 0.28 0 0.34 0.28 0 0.36 0.28 0 0.38 0.28 0 0.4 0.28 0 0.42 0.28 0 0.44 0.28 0 0.46 0.28 0 0.48 0.28 0 0.5 0.28 0 0.52 0.28 0 0.54 0.28 0 0.56 0.28 0 0.58 0.28 0 0.6 0.28 0 0.62 0.28 0 0.64 0.28 0 0.66 0.28 0 0.68 0.28 0 0.7 0.28 0 0.72 0.28 0 0.74 0.28 0 0.76 0.28 0 0.78 0.28 0 0.8 0.28 0 0.82 0.28 0 0.84 0.28 0 0.86 0.28 0 0.88 0.28 0 0.9 0.28 0 0.92 0.28 0 0.94 0.28 0 0.96 0.28 0 0.98 0.28 0 1 0.28 0 0 0.3 0 0.02 0.3 0 0.04 0.3 0 0.06 0.3 0 0.08 0.3 0 0.1 0.3 0 0.12 0.3 0 0.14 0.3 0 0.16 0.3 0 0.18 0.3 0 0.2 0.3 0 0.22 0.3 0 0.24 0.3 0 0.26 0.3 0 0.28 0.3 0 0.3 0.3 0 0.32 0.3 0 0.34 0.3 0 0.36 0.3 0 0.38 0.3 0 0.4 0.3 0 0.42 0.3 0 0.44 0.3 0 0.46 0.3 0 0.48 0.3 0 0.5 0.3 0 0.52 0.3 0 0.54 0.3 0 0.56 0.3 0 0.58 0.3 0 0.6 0.3 0 0.62 0.3 0 0.64 0.3 0 0.66 0.3 0 0.68 0.3 0 0.7 0.3 0 0.72 0.3 0 0.74 0.3 0 0.76 0.3 0 0.78 0.3 0 0.8 0.3 0 0.82 0.3 0 0.84 0.3 0 0.86 0.3 0 0.88 0.3 0 0.9 0.3 0 0.92 0.3 0 0.94 0.3 0 0.96 0.3 0 0.98 0.3 0 1 0.3 0 0 0.32 0 0.02 0.32 0 0.04 0.32 0 0.06 0.32 0 0.08 0.32 0 0.1 0.32 0 0.12 0.32 0 0.14 0.32 0 0.16 0.32 0 0.18 0.32 0 0.2 0.32 0 0.22 0.32 0 0.24 0.32 0 0.26 0.32 0 0.28 0.32 0 0.3 0.32 0 0.32 0.32 0 0.34 0.32 0 0.36 0.32 0 0.38 0.32 0 0.4 0.32 0 0.42 0.32 0 0.44 0.32 0 0.46 0.32 0 0.48 0.32 0 0.5 0.32 0 0.52 0.32 0 0.54 0.32 0 0.56 0.32 0 0.58 0.32 0 0.6 0.32 0 0.62 0.32 0 0.64 0.32 0 0.66 0.32 0 0.68 0.32 0 0.7 0.32 0 0.72 0.32 0 0.74 0.32 0 0.76 0.32 0 0.78 0.32 0 0.8 0.32 0 0.82 0.32 0 0.84 0.32 0 0.86 0.32 0 0.88 0.32 0 0.9 0.32 0 0.92 0.32 0 0.94 0.
[...]
			<PointData Scalars="VitesseX">
				<DataArray Name="VitesseX" type="Float32" format="ascii">
 0 0 0 0 0 0 0 0 0 0 0 0 0 0 0 0 0 0 0 0 0 0 0 0 0 0 0 0 0 0 0 0 0 0 0 0 0 0 0 0 0 0 0 0 0 0 0 0 0 0 0 0 9.25871e-05 0.000368875 0.000824523 0.00145231 0.00224235 0.00318215 0.00425691 0.00544967 0.00674163 0.00811242 0.00954043 0.0110031 0.0124775 0.0139402 0.0153683 0.0167393 0.0180316 0.0192246 0.0202998 0.02124 0.0220306 0.0226589 0.0231151 0.0233925 0.0234851 0.0233928 0.0231172 0.0226612 0.0220336 0.0212436 0.0203037 0.0192288 0.0180359 0.0167436 0.0153725 0.0139441 0.012481 0.0110063 0.00954312 0.00811465 0.00674341 0.00545102 0.00425789 0.00318281 0.00224276 0.00145254 0.000824634 0.000368923 9.25938e-05 1.00458e-27 0 0.000183695 0.000731805 0.00163571 0.00288102 0.00444804 0.00631204 0.00844358 0.0108091 0.0133712 0.0160897 0.0189217 0.0218226 0.0247466 0.0276478 0.0304806 0.0332005 0.0357645 0.0381322 0.0402664 0.0421334 0.0437037 0.0449526 0.0458602 0.0464143 0.0465997 0.04642 0.0458771 0.0449742 0.0437312 0.0421658 0.0403024 0.0381706 0.035804 0.0332398 0.0305186 0.0276833 0.0247788 0.0218511 0.0189461 0.0161099 0.0133872 0.0108212 0.00845227 0.00631785 0.00445161 0.00288296 0.0016366 0.000732131 0.000183738 1.99329e-27 0 0.000271889 0.00108309 0.00242084 0.00426372 0.00658256 0.0093407 0.0124946 0.0159946 0.0197854 0.0238075 0.0279976 0.0322897 0.0366161 0.040909 0.0451012 0.0491267 0.0529219 0.0564273 0.0595875 0.0623529 0.0646796 0.066531 0.0678777 0.0687029 0.0689794 0.0687171 0.0679179 0.0665831 0.0647459 0.0624309 0.0596743 0.0565198 0.053017 0.0492213 0.0451926 0.0409947 0.0366938 0.0323583 0.0280565 0.0238561 0.0198239 0.0160237 0.0125155 0.00935467 0.00659112 0.00426837 0.00242296 0.00108385 0.000271991 2.95052e-27 0 0.00035578 0.00141719 0.00316753 0.00557861 0.00861223 0.0122204 0.0163461 0.0209243 0.025883 0.0311441 0.036625 0.0422395 0.047899 0.0535148 0.0589997 0.0642668 0.0692334 0.0738214 0.0779585 0.0815797 0.0846276 0.087054 0.0888204 0.0899066 0.0902709 0.0899327 0.0888924 0.0871481 0.0847472 0.0817204 0.0781153 0.0739884 0.0694051 0.0644377 0.0591647 0.0536695 0.0480392 0.0423634 0.0367313 0.0312318 0.0259525 0.0209769 0.0163838 0.0122456 0.00862766 0.00558698 0.00317133 0.00141855 0.000355962 3.86118e-27 0 0.000434047 0.00172884 0.00386401 0.00680497 0.0105051 0.0149057 0.0199373 0.0255207 0.0315679 0.0379839 0.0446679 0.0515151 0.0584172 0.0652666 0.0719568 0.0783821 0.0844416 0.0900402 0.0950897 0.0995106 0.103233 0.106198 0.108358 0.109691 0.110139 0.109732 0.10847 0.106345 0.10342 0.0997303 0.0953344 0.090301 0.0847098 0.0786489 0.0722144 0.065508 0.0586362 0.0517085 0.0448338 0.0381207 0.0316763 0.0256028 0.0199961 0.014945 0.0105291 0.006818 0.00386991 0.00173095 0.000434327 4.71093e-27 0 0.000505455 0.00201314 0.00449931 0.00792347 0.0122312 0.0173543 0.0232117 0.0297112 0.0367504 0.0442189 0.0519995 0.0599701 0.0680049 0.0759789 0.0837682 0.09125 0.0983069 0.104828 0.110711 0.115863 0.120202 0.12366 0.126182 0.127743 0.128269 0.127803 0.126341 0.12387 0.120469 0.116177 0.11106 0.1052 0.0986897 0.0916309 0.0841359 0.0763235 0.0683176 0.0602463 0.0522362 0.0444141 0.0369051 0.0298282 0.0232955 0.0174103 0.0122655 0.00794202 0.00450769 0.00201611 0.000505849 5.48638e-27 0 0.000568881 0.00226561 0.00506341 0.00891649 0.0137635 0.0195276 0.0261176 0.0334297 0.0413489 0.0497509 0.0585041 0.0674714 0.0765111 0.0854828 0.0942478 0.102668 0.110611 0.117952 0.124576 0.130379 0.135268 0.139167 0.142012 0.143779 0.144377 0.143861 0.142224 0.139448 0.135626 0.1308 0.125045 0.118451 0.111124 0.103179 0.0947414 0.0859455 0.0769309 0.067842 0.0588218 0.0500129 0.0415565 0.0335867 0.02623 0.0196027 0.0138094 0.00894131 0.0050746 0.00226955 0.000569402 6.17532e-27 0 0.000623325 0.00248228 0.00554743 0.00976836 0.0150778 0.0213914 0.0286092 0.0366177 0.0452908 0.0544927 0.0640792 0.0739005 0.0838015 0.0936286 0.10323 0.112455 0.121159 0.129204 0.136466 0.142829 0.148193 0.152472 0.155598 0.157545 0.158208 0.157652 0.155868 0.152833 0.148652 0.143369 0.137067 0.129845 0.121818 0.113111 0.103864 0.0942221 0.08434 0.074376 0.0644867 0.0548286 0.0455569 0.036819 0.0287533 0.0214876 0.0151366 0.00980011 0.00556171 0.00248726 0.000623984 6.7669e-27 0 0.000667932 0.00265974 0.00594375 0.0104657 0.0161533 0.0229162 0.0306472 0.0392248 0.048514 0.0583694 0.0686369 0.0791562 0.0897612 0.100288 0.110574 0.120458 0.129785 0.138408 0.146193 0.153017 0.158772 0.163366 0.166726 0.168824 0.169543 0.168958 0.167058 0.163813 0.159341 0.153686 0.146938 0.139202 0.130601 0.12127 0.111358 0.101023 0.0904283 0.0797452 0.0691415 0.0587854 0.0488435 0.0394739 0.0308255 0.0230352 0.016226 0.0105049 0.00596133 0.00266582 0.000668734 7.2518e-27 0 0.000701999 0.00279519 0.00624612 0.0109974 0.0169731 0.024078 0.0321996 0.0412099 0.0509676 0.06132 0.0721053 0.0831555 0.0942962 0.105355 0.116163 0.12655 0.136353 0.145419 0.153605 0.160783 0.16684 0.171678 0.17522 0.177438 0.178205 0.177601 0.175618 0.172216 0.167525 0.161589 0.154502 0.146375 0.137336 0.127528 0.117108 0.106241 0.0950997 0.0838648 0.0727129 0.0618208 0.0513643 0.0415098 0.032414 0.0242211 0.0170604 0.0110445 0.00626717 0.0028024 0.000702946 7.6224e-27 0 0.000725018 0.00288674 0.00645054 0.011357 0.0175276 0.0248639 0.0332498 0.0425531 0.052628 0.0633167 0.0744526 0.085862 0.0973652 0.108785 0.119946 0.130672 0.140797 0.150161 0.158619 0.166036 0.172295 0.177297 0.180961 0.183258 0.184056 0.183445 0.181411 0.177909 0.173074 0.166953 0.15964 0.15125 0.141916 0.131786 0.121021 0.109793 0.0982806 0.08667 0.0751444 0.0638869 0.0530795 0.0428944 0.0334938 0.0250267 0.0176268 0.0114104 0.00647439 0.00289486 0.000726081 7.87286e-27 0 0.000736511 0.00293203 0.00655076 0.0115318 0.017795 0.0252401 0.0337492 0.0431883 0.0534095 0.0642532 0.0755508 0.0871268 0.0987994 0.110389 0.121719 0.132612 0.142898 0.152416 0.161017 0.168567 0.174945 0.18005 0.183799 0.186161 0.187005 0.186404 0.184364 0.180826 0.175932 0.169728 0.162309 0.153792 0.144313 0.13402 0.123078 0.111663 0.0999559 0.0881474 0.0764243 0.0649731 0.0539794 0.043619 0.0340571 0.0254454 0.01792 0.011599 0.0065806 0.00294199 0.000737809 7.99924e-27 0 0.00073651 0.00293202 0.00655071 0.0115317 0.0177946 0.0252395 0.0337482 0.0431867 0.0534073 0.0642503 0.0755472 0.0871225 0.0987945 0.110384 0.121714 0.132606 0.142892 0.152411 0.161013 0.168564 0.174943 0.180048 0.183798 0.186161 0.187005 0.186404 0.184365 0.180827 0.175933 0.16973 0.162311 0.153795 0.144316 0.134023 0.123082 0.111666 0.099959 0.0881502 0.0764266 0.0649749 0.0539808 0.04362 0.0340577 0.0254458 0.0179202 0.0115991 0.00658064 0.002942 0.00073781 7.99957e-27 0 0.000724788 0.00288493 0.00644455 0.0113432 0.0175016 0.024821 0.0331851 0.0424625 0.0525078 0.0631647 0.0742679 0.0856455 0.0971197 0.108515 0.119657 0.130372 0.140495 0.149867 0.158342 0.165786 0.172081 0.177128 0.180842 0.183193 0.184056 0.183496 0.18153 0.178081 0.173294 0.167212 0.15993 0.15156 0.142235 0.132104 0.121328 0.110081 0.0985426 0.0869012 0.0753419 0.0640496 0.0532082 0.0429915 0.0335631 0.0250727 0.0176547 0.0114252 0.00648081 0.0028968 0.000726327 7.87383e-27 0 0.000701666 0.00279256 0.00623742 0.0109774 0.0169353 0.0240155 0.0321055 0.041078 0.0507927 0.0610986 0.0718363 0.0828401 0.0939384 0.104962 0.115743 0.126113 0.135913 0.14499 0.153202 0.16042 0.166529 0.171432 0.175048 0.177342 0.178204 0.177672 0.175782 0.172454 0.167829 0.161949 0.154904 0.146805 0.137779 0.12797 0.117534 0.106641 0.0954637 0.084186 0.0729872 0.0620467 0.0515429 0.0416446 0.0325101 0.0242849 0.017099 0.011065 0.00627605 0.00280509 0.000703284 7.624e-27 0 0.000667472 0.0026561 0.00593172 0.0104379 0.016101 0.0228298 0.0305172 0.0390423 0.048272 0.0580632 0.0682649 0.07872 0.0892664 0.0997432 0.109992 0.119854 0.129177 0.137816 0.145636 0.152515 0.158343 0.163026 0.166489 0.168693 0.169542 0.169057 0.167284 0.164139 0.159759 0.154181 0.14749 0.139792 0.131209 0.121876 0.111943 0.101572 0.0909278 0.0801858 0.0695179 0.0590954 0.0490886 0.0396589 0.0309573 0.0231227 0.0162789 0.010533 0.00597352 0.0026695 0.000669198 7.25403e-27 0 0.000622744 0.00247769 0.00553225 0.00973336 0.0150119 0.0212824 0.0284451 0.0363874 0.0449855 0.0541064 0.0636099 0.0733503 0.0831774 0.0929417 0.102496 0.111694 0.120392 0.128457 0.135763 0.142196 0.147652 0.152044 0.1553 0.157381 0.158207 0.157777 0.156152 0.153243 0.149177 0.14399 0.13776 0.130586 0.122581 0.113871 0.104598 0.0949108 0.0849669 0.074929 0.064959 0.0552176 0.0458646 0.037051 0.0289187 0.0215974 0.015203 0.00983538 0.00557701 0.00249188 0.000624567 6.76972e-27 0 0.000568188 0.00226014 0.00504531 0.00887477 0.0136849 0.0193977 0.0259221 0.0331553 0.0409851 0.0492907 0.0579449 0.0668158 0.0757676 0.0846645 0.0933736 0.101761 0.109698 0.117062 0.123739 0.129625 0.134625 0.138658 0.141657 0.143585 0.144376 0.144012 0.142562 0.139936 0.136251 0.131538 0.125868 0.119332 0.11203 0.104082 0.0956135 0.0867633 0.0776751 0.0684986 0.0593826 0.0504747 0.0419217 0.0338622 0.0264264 0.0197331 0.0138883 0.00898318 0.00509276 0.00227503 0.000570095 6.17872e-27 0 0.000504662 0.00200688 0.00447858 0.0078757 0.0121412 0.0172056 0.0229878 0.029397 0.0363339 0.0436919 0.0513592 0.0592196 0.0671536 0.075042 0.0827675 0.090212 0.0972622 0.10381 0.109754 0.115001 0.119467 0.123079 0.125777 0.127524 0.128269 0.127979 0.126727 0.124428 0.121184 0.11702 0.112002 0.106206 0.0997249 0.0926621 0.0851321 0.0772575 0.0691676 0.060996 0.0528765 0.0449415 0.0373221 0.0301428 0.0235198 0.0175592 0.0123556 0.00798983 0.00452842 0.00202237 0.00050664 5.49031e-27 0 0.000433165 0.00172188 0.00384098 0.00675189 0.0104051 0.0147405 0.0196885 0.0251716 0.0311051 0.0373984 0.0439566 0.0506813 0.0574716 0.0642261 0.0708454 0.0772294 0.0832818 0.0889103 0.0940279 0.0985545 0.102418 0.105554 0.10791 0.10945 0.110138 0.109931 0.108899 0.106965 0.104213 0.100667 0.0963793 0.0914168 0.085858 0.0797925 0.0733189 0.0665436 0.0595785 0.0525397 0.0455435 0.0387052 0.0321385 0.0259514 0.0202446 0.01511 0.010629 0.00687099 0.00389289 0.00173789 0.000435203 4.71535e-27 0 0.000354825 0.00140964 0.00314256 0.00552106 0.00850383 0.0120412 0.0160764 0.0205459 0.0253813 0.0305095 0.035854 0.0413358 0.046874 0.0523872 0.0577954 0.0630179 0.067977 0.0725976 0.0768089 0.0805449 0.0837456 0.0863579 0.0883369 0.089649 0.0902705 0.0901517 0.0893583 0.0878218 0.085608 0.0827357 0.0792474 0.0751969 0.0706486 0.0656758 0.0603603 0.0547904 0.049059 0.0432629 0.0374993 0.0318642 0.0264526 0.0213541 0.0166527 0.0124242 0.00873569 0.00564432 0.00319619 0.00142606 0.000356911 3.86604e-27 0 0.000270875 0.00107508 0.00239433 0.00420262 0.00646746 0.00915049 0.0122082 0.0155928 0.0192528 0.0231338 0.0271791 0.0313304 0.0355282 0.0397122 0.0438232 0.0478016 0.0515891 0.0551294 0.0583686 0.0612562 0.0637455 0.0657945 0.067367 0.0684335 0.0689791 0.0689545 0.0684132 0.0672998 0.0656607 0.0635091 0.0608762 0.0578024 0.0543364 0.0505348 0.0464608 0.0421833 0.0377751 0.0333121 0.0288707 0.0245265 0.020354 0.0164236 0.0128005 0.00954397 0.00670565 0.00432915 0.00244932 0.00109182 0.000272998 2.95575e-27 0 0.000182638 0.000723454 0.00160808 0.00281733 0.00432808 0.00611378 0.00814508 0.0103903 0.0128161 0.0153875 0.0180687 0.0208229 0.0236129 0.0264008 0.0291492 0.0318203 0.0343765 0.036781 0.0389979 0.0409926 0.0427325 0.0441876 0.0453308 0.046139 0.0465968 0.0466764 0.0463916 0.0457239 0.0446861 0.0432905 0.0415556 0.0395074 0.0371787 0.0346081 0.0318395 0.0289212 0.0259048 0.0228442 0.0197939 0.0168079 0.0139391 0.0112375 0.00874902 0.00651493 0.00457084 0.00294625 0.00166405 0.000740427 0.000184787 1.99882e-27 0 9.15043e-05 0.000360318 0.000796213 0.00138707 0.00211945 0.00297905 0.00395112 0.00502072 0.00617298 0.00739319 0.0086668 0.00997938 0.0113165 0.0126634 0.0140053 0.0153265 0.0166111 0.0178421 0.0190023 0.0200737 0.0210382 0.0218781 0.0225758 0.0231152 0.0234819 0.0236623 0.0236456 0.0234326 0.0230148 0.0223986 0.02159 0.0206005 0.019446 0.0181469 0.0167269 0.0152132 0.0136353 0.0120242 0.010412 0.00883 0.007309 0.00587766 0.00456201 0.00338478 0.00236496 0.00151741 0.000852771 0.000377427 9.36691e-05 1.01034e-27 0 -1.08087e-06 -8.54497e-06 -2.82725e-05 -6.51716e-05 -0.000122772 -0.000202913 -0.000305537 -0.000428622 -0.000568233 -0.00071871 -0.000872975 -0.00102294 -0.00116 -0.00127554 -0.00136148 -0.00141081 -0.00141807 -0.00137969 -0.00129427 -0.00116277 -0.000988457 -0.000776835 -0.000535353 -0.000273032 -2.64967e-09 0.000273034 0.00053536 0.00077685 0.000988475 0.00116279 0.00129429 0.00137971 0.00141809 0.00141082 0.00136148 0.00127554 0.00116 0.00102295 0.000872976 0.000718711 0.000568234 0.000428623 0.000305537 0.000202912 0.000122772 6.51717e-05 2.82725e-05 8.54497e-06 1.08087e-06 5.88662e-30 0 -9.36691e-05 -0.000377427 -0.000852771 -0.00151741 -0.00236496 -0.00338478 -0.00456201 -0.00587766 -0.007309 -0.00883 -0.010412 -0.0120242 -0.0136353 -0.0152132 -0.0167269 -0.0181469 -0.019446 -0.0206005 -0.02159 -0.0223986 -0.0230148 -0.0234326 -0.0236455 -0.0236623 -0.0234819 -0.0231152 -0.0225758 -0.0218781 -0.0210382 -0.0200736 -0.0190022 -0.0178421 -0.0166111 -0.0153265 -0.0140053 -0.0126634 -0.0113165 -0.00997938 -0.0086668 -0.00739319 -0.00617298 -0.00502072 -0.00395112 -0.00297905 -0.00211945 -0.00138707 -0.000796213 -0.000360318 -9.15043e-05 -9.98708e-28 0 -0.000184787 -0.000740427 -0.00166405 -0.00294625 -0.00457084 -0.00651493 -0.00874902 -0.0112375 -0.0139391 -0.0168079 -0.0197939 -0.0228442 -0.0259048 -0.0289212 -0.0318395 -0.0346081 -0.0371787 -0.0395074 -0.0415555 -0.0432905 -0.0446861 -0.0457239 -0.0463915 -0.0466764 -0.0465968 -0.046139 -0.0453308 -0.0441876 -0.0427325 -0.0409926 -0.0389978 -0.036781 -0.0343765 -0.0318203 -0.0291492 -0.0264008 -0.0236129 -0.0208229 -0.0180687 -0.0153875 -0.0128161 -0.0103903 -0.00814508 -0.00611378 -0.00432808 -0.00281733 -0.00160808 -0.000723454 -0.000182638 -1.9876e-27 0 -0.000272998 -0.00109182 -0.00244932 -0.00432915 -0.00670565 -0.00954398 -0.0128005 -0.0164236 -0.020354 -0.0245265 -0.0288707 -0.0333121 -0.0377751 -0.0421833 -0.0464608 -0.0505348 -0.0543364 -0.0578024 -0.0608762 -0.0635091 -0.0656607 -0.0672998 -0.0684131 -0.0689545 -0.068979 -0.0684335 -0.067367 -0.0657945 -0.0637454 -0.0612562 -0.0583686 -0.0551294 -0.0515891 -0.0478016 -0.0438232 -0.0397122 -0.0355282 -0.0313304 -0.0271791 -0.0231338 -0.0192528 -0.0155928 -0.0122082 -0.00915049 -0.00646746 -0.00420262 -0.00239433 -0.00107508 -0.000270875 -2.94518e-27 0 -0.000356911 -0.00142606 -0.00319619 -0.00564432 -0.00873569 -0.0124242 -0.0166527 -0.0213541 -0.0264526 -0.0318642 -0.0374993 -0.0432629 -0.049059 -0.0547904 -0.0603604 -0.0656759 -0.0706486 -0.0751969 -0.0792474 -0.0827357 -0.085608 -0.0878218 -0.0893583 -0.0901517 -0.0902705 -0.089649 -0.0883369 -0.0863579 -0.0837456 -0.0805449 -0.0768089 -0.0725976 -0.067977 -0.0630179 -0.0577954 -0.0523872 -0.046874 -0.0413358 -0.035854 -0.0305095 -0.0253813 -0.0205459 -0.0160764 -0.0120412 -0.00850383 -0.00552106 -0.00314256 -0.00140964 -0.000354825 -3.85635e-27 0 -0.000435203 -0.00173789 -0.00389289 -0.00687099 -0.010629 -0.01511 -0.0202446 -0.0259514 -0.0321385 -0.0387052 -0.0455435 -0.0525397 -0.0595785 -0.0665436 -0.0733189 -0.0797925 -0.0858581 -0.0914168 -0.0963793 -0.100667 -0.104213 -0.106965 -0.108899 -0.109931 -0.110138 -0.10945 -0.10791 -0.105554 -0.102418 -0.0985545 -0.0940279 -0.0889103 -0.0832818 -0.0772294 -0.0708454 -0.0642261 -0.0574716 -0.0506813 -0.0439566 -0.0373984 -0.0311051 -0.0251716 -0.0196885 -0.0147405 -0.0104051 -0.00675189 -0.00384098 -0.00172188 -0.000433165 -4.70673e-27 0 -0.00050664 -0.00202237 -0.00452842 -0.00798983 -0.0123556 -0.0175592 -0.0235198 -0.0301428 -0.0373221 -0.0449415 -0.0528765 -0.060996 -0.0691676 -0.0772575 -0.0851321 -0.0926621 -0.0997249 -0.106206 -0.112002 -0.11702 -0.121184 -0.124428 -0.126727 -0.127979 -0.128269 -0.127524 -0.125777 -0.123079 -0.119467 -0.115001 -0.109754 -0.10381 -0.0972622 -0.090212 -0.0827675 -0.075042 -0.0671536 -0.0592196 -0.0513592 -0.0436919 -0.0363339 -0.029397 -0.0229878 -0.0172056 -0.0121412 -0.0078757 -0.00447858 -0.00200688 -0.000504662 -5.48288e-27 0 -0.000570095 -0.00227503 -0.00509276 -0.00898318 -0.0138883 -0.0197331 -0.0264264 -0.0338622 -0.0419217 -0.0504747 -0.0593826 -0.0684986 -0.0776751 -0.0867633 -0.0956135 -0.104082 -0.11203 -0.119332 -0.125868 -0.131538 -0.136251 -0.139936 -0.142562 -0.144012 -0.144376 -0.143585 -0.141657 -0.138658 -0.134625 -0.129625 -0.123739 -0.117062 -0.109698 -0.101761 -0.0933736 -0.0846645 -0.0757676 -0.0668158 -0.0579449 -0.0492907 -0.0409851 -0.0331553 -0.0259221 -0.0193977 -0.0136849 -0.00887477 -0.00504531 -0.00226014 -0.000568188 -6.17256e-27 0 -0.000624567 -0.00249188 -0.00557701 -0.00983538 -0.015203 -0.0215974 -0.0289187 -0.037051 -0.0458646 -0.0552176 -0.064959 -0.074929 -0.0849669 -0.0949108 -0.104598 -0.113871 -0.122581 -0.130586 -0.13776 -0.14399 -0.149177 -0.153243 -0.156152 -0.157777 -0.158207 -0.157381 -0.1553 -0.152044 -0.147652 -0.142196 -0.135763 -0.128457 -0.120392 -0.111694 -0.102496 -0.0929417 -0.0831774 -0.0733503 -0.0636099 -0.0541064 -0.0449855 -0.0363874 -0.0284451 -0.0212824 -0.0150119 -0.00973336 -0.00553225 -0.00247769 -0.000622744 -6.76486e-27 0 -0.000669198 -0.0026695 -0.00597352 -0.010533 -0.0162789 -0.0231227 -0.0309573 -0.0396589 -0.0490886 -0.0590954 -0.0695179 -0.0801858 -0.0909278 -0.101572 -0.111943 -0.121876 -0.131209 -0.139792 -0.14749 -0.154181 -0.159759 -0.164139 -0.167284 -0.169057 -0.169542 -0.168693 -0.166489 -0.163026 -0.158343 -0.152515 -0.145636 -0.137816 -0.129177 -0.119854 -0.109992 -0.0997432 -0.0892664 -0.07872 -0.0682649 -0.0580632 -0.048272 -0.0390422 -0.0305172 -0.0228298 -0.016101 -0.0104379 -0.00593172 -0.0026561 -0.000667472 -7.25043e-27 0 -0.000703284 -0.00280509 -0.00627605 -0.011065 -0.017099 -0.0242849 -0.0325101 -0.0416446 -0.0515429 -0.0620467 -0.0729872 -0.084186 -0.0954637 -0.106641 -0.117534 -0.12797 -0.137779 -0.146805 -0.154904 -0.161949 -0.167829 -0.172454 -0.175782 -0.177672 -0.178204 -0.177342 -0.175048 -0.171432 -0.166529 -0.16042 -0.153202 -0.14499 -0.135913 -0.126113 -0.115743 -0.104962 -0.0939384 -0.0828401 -0.0718363 -0.0610986 -0.0507927 -0.041078 -0.0321055 -0.0240155 -0.0169353 -0.0109774 -0.00623742 -0.00279256 -0.000701666 -7.6216e-27 0 -0.000726327 -0.0028968 -0.00648081 -0.0114252 -0.0176547 -0.0250727 -0.0335631 -0.0429915 -0.0532082 -0.0640496 -0.0753419 -0.0869012 -0.0985426 -0.110081 -0.121328 -0.132104 -0.142235 -0.15156 -0.15993 -0.167212 -0.173294 -0.178081 -0.18153 -0.183496 -0.184056 -0.183193 -0.180842 -0.177128 -0.172081 -0.165786 -0.158342 -0.149867 -0.140495 -0.130372 -0.119657 -0.108515 -0.0971197 -0.0856455 -0.0742679 -0.0631647 -0.0525078 -0.0424625 -0.0331851 -0.024821 -0.0175016 -0.0113432 -0.00644455 -0.00288493 -0.000724788 -7.87249e-27 0 -0.00073781 -0.002942 -0.00658064 -0.0115991 -0.0179202 -0.0254458 -0.0340577 -0.04362 -0.0539808 -0.0649749 -0.0764266 -0.0881502 -0.099959 -0.111666 -0.123082 -0.134023 -0.144316 -0.153795 -0.162311 -0.16973 -0.175933 -0.180827 -0.184365 -0.186404 -0.187005 -0.186161 -0.183798 -0.180048 -0.174943 -0.168564 -0.161013 -0.152411 -0.142892 -0.132606 -0.121714 -0.110384 -0.0987945 -0.0871225 -0.0755472 -0.0642503 -0.0534073 -0.0431867 -0.0337482 -0.0252395 -0.0177946 -0.0115317 -0.00655071 -0.00293202 -0.00073651 -7.99915e-27 0 -0.000737809 -0.00294199 -0.0065806 -0.011599 -0.01792 -0.0254454 -0.0340571 -0.043619 -0.0539794 -0.0649731 -0.0764243 -0.0881474 -0.0999559 -0.111663 -0.123078 -0.13402 -0.144313 -0.153792 -0.162309 -0.169728 -0.175932 -0.180826 -0.184364 -0.186404 -0.187005 -0.186161 -0.183799 -0.18005 -0.174945 -0.168567 -0.161017 -0.152416 -0.142898 -0.132612 -0.121719 -0.110389 -0.0987994 -0.0871268 -0.0755508 -0.0642532 -0.0534095 -0.0431883 -0.0337492 -0.0252401 -0.017795 -0.0115318 -0.00655076 -0.00293203 -0.000736511 -7.99957e-27 0 -0.000726081 -0.00289486 -0.00647439 -0.0114104 -0.0176268 -0.0250267 -0.0334938 -0.0428944 -0.0530795 -0.0638869 -0.0751444 -0.08667 -0.0982806 -0.109793 -0.121021 -0.131786 -