<?xml version="1.0"?>
<VTKFile type="PolyData">
	<PolyData>
		<Piece NumberOfPoints="2601" NumberOfPolys="2500">
			<Points>
				<DataArray type="Float32" NumberOfComponents="3" format="ascii">
 0 0 0 0.02 0 0 0.04 0 0 0.06 0 0 0.08 0 0 0.1 0 0 0.12 0 0 0.14 0 0 0.16 0 0 0.18 0 0 0.2 0 0 0.22 0 0 0.24 0 0 0.26 0 0 0.28 0 0 0.3 0 0 0.32 0 0 0.34 0 0 0.36 0 0 0.38 0 0 0.4 0 0 0.42 0 0 0.44 0 0 0.46 0 0 0.48 0 0 0.5 0 0 0.52 0 0 0.54 0 0 0.56 0 0 0.58 0 0 0.6 0 0 0.62 0 0 0.64 0 0 0.66 0 0 0.68 0 0 0.7 0 0 0.72 0 0 0.74 0 0 0.76 0 0 0.78 0 0 0.8 0 0 0.82 0 0 0.84 0 0 0.86 0 0 0.88 0 0 0.9 0 0 0.92 0 0 0.94 0 0 0.96 0 0 0.98 0 0 1 0 0 0 0.02 0 0.02 0.02 0 0.04 0.02 0 0.06 0.02 0 0.08 0.02 0 0.1 0.02 0 0.12 0.02 0 0.14 0.02 0 0.16 0.02 0 0.18 0.02 0 0.2 0.02 0 0.22 0.02 0 0.24 0.02 0 0.26 0.02 0 0.28 0.02 0 0.3 0.02 0 0.32 0.02 0 0.34 0.02 0 0.36 0.02 0 0.38 0.02 0 0.4 0.02 0 0.42 0.02 0 0.44 0.02 0 0.46 0.02 0 0.48 0.02 0 0.5 0.02 0 0.52 0.02 0 0.54 0.02 0 0.56 0.02 0 0.58 0.02 0 0.6 0.02 0 0.62 0.02 0 0.64 0.02 0 0.66 0.02 0 0.68 0.02 0 0.7 0.02 0 0.72 0.02 0 0.74 0.02 0 0.76 0.02 0 0.78 0.02 0 0.8 0.02 0 0.82 0.02 0 0.84 0.02 0 0.86 0.02 0 0.88 0.02 0 0.9 0.02 0 0.92 0.02 0 0.94 0.02 0 0.96 0.02 0 0.98 0.02 0 1 0.02 0 0 0.04 0 0.02 0.04 0 0.04 0.04 0 0.06 0.04 0 0.08 0.04 0 0.1 0.04 0 0.12 0.04 0 0.14 0.04 0 0.16 0.04 0 0.18 0.04 0 0.2 0.04 0 0.22 0.04 0 0.24 0.04 0 0.26 0.04 0 0.28 0.04 0 0.3 0.04 0 0.32 0.04 0 0.34 0.04 0 0.36 0.04 0 0.38 0.04 0 0.4 0.04 0 0.42 0.04 0 0.44 0.04 0 0.46 0.04 0 0.48 0.04 0 0.5 0.04 0 0.52 0.04 0 0.54 0.04 0 0.56 0.04 0 0.58 0.04 0 0.6 0.04 0 0.62 0.04 0 0.64 0.04 0 0.66 0.04 0 0.68 0.04 0 0.7 0.04 0 0.72 0.04 0 0.74 0.04 0 0.76 0.04 0 0.78 0.04 0 0.8 0.04 0 0.82 0.04 0 0.84 0.04 0 0.86 0.04 0 0.88 0.04 0 0.9 0.04 0 0.92 0.04 0 0.94 0.04 0 0.96 0.04 0 0.98 0.04 0 1 0.04 0 0 0.06 0 0.02 0.06 0 0.04 0.06 0 0.06 0.06 0 0.08 0.06 0 0.1 0.06 0 0.12 0.06 0 0.14 0.06 0 0.16 0.06 0 0.18 0.06 0 0.2 0.06 0 0.22 0.06 0 0.24 0.06 0 0.26 0.06 0 0.28 0.06 0 0.3 0.06 0 0.32 0.06 0 0.34 0.06 0 0.36 0.06 0 0.38 0.06 0 0.4 0.06 0 0.42 0.06 0 0.44 0.06 0 0.46 0.06 0 0.48 0.06 0 0.5 0.06 0 0.52 0.06 0 0.54 0.06 0 0.56 0.06 0 0.58 0.06 0 0.6 0.06 0 0.62 0.06 0 0.64 0.06 0 0.66 0.06 0 0.68 0.06 0 0.7 0.06 0 0.72 0.06 0 0.74 0.06 0 0.76 0.06 0 0.78 0.06 0 0.8 0.06 0 0.82 0.06 0 0.84 0.06 0 0.86 0.06 0 0.88 0.06 0 0.9 0.06 0 0.92 0.06 0 0.94 0.06 0 0.96 0.06 0 0.98 0.06 0 1 0.06 0 0 0.08 0 0.02 0.08 0 0.04 0.08 0 0.06 0.08 0 0.08 0.08 0 0.1 0.08 0 0.12 0.08 0 0.14 0.08 0 0.16 0.08 0 0.18 0.08 0 0.2 0.08 0 0.22 0.08 0 0.24 0.08 0 0.26 0.08 0 0.28 0.08 0 0.3 0.08 0 0.32 0.08 0 0.34 0.08 0 0.36 0.08 0 0.38 0.08 0 0.4 0.08 0 0.42 0.08 0 0.44 0.08 0 0.46 0.08 0 0.48 0.08 0 0.5 0.08 0 0.52 0.08 0 0.54 0.08 0 0.56 0.08 0 0.58 0.08 0 0.6 0.08 0 0.62 0.08 0 0.64 0.08 0 0.66 0.08 0 0.68 0.08 0 0.7 0.08 0 0.72 0.08 0 0.74 0.08 0 0.76 0.08 0 0.78 0.08 0 0.8 0.08 0 0.82 0.08 0 0.84 0.08 0 0.86 0.08 0 0.88 0.08 0 0.9 0.08 0 0.92 0.08 0 0.94 0.08 0 0.96 0.08 0 0.98 0.08 0 1 0.08 0 0 0.1 0 0.02 0.1 0 0.04 0.1 0 0.06 0.1 0 0.08 0.1 0 0.1 0.1 0 0.12 0.1 0 0.14 0.1 0 0.16 0.1 0 0.18 0.1 0 0.2 0.1 0 0.22 0.1 0 0.24 0.1 0 0.26 0.1 0 0.28 0.1 0 0.3 0.1 0 0.32 0.1 0 0.34 0.1 0 0.36 0.1 0 0.38 0.1 0 0.4 0.1 0 0.42 0.1 0 0.44 0.1 0 0.46 0.1 0 0.48 0.1 0 0.5 0.1 0 0.52 0.1 0 0.54 0.1 0 0.56 0.1 0 0.58 0.1 0 0.6 0.1 0 0.62 0.1 0 0.64 0.1 0 0.66 0.1 0 0.68 0.1 0 0.7 0.1 0 0.72 0.1 0 0.74 0.1 0 0.76 0.1 0 0.78 0.1 0 0.8 0.1 0 0.82 0.1 0 0.84 0.1 0 0.86 0.1 0 0.88 0.1 0 0.9 0.1 0 0.92 0.1 0 0.94 0.1 0 0.96 0.1 0 0.98 0.1 0 1 0.1 0 0 0.12 0 0.02 0.12 0 0.04 0.12 0 0.06 0.12 0 0.08 0.12 0 0.1 0.12 0 0.12 0.12 0 0.14 0.12 0 0.16 0.12 0 0.18 0.12 0 0.2 0.12 0 0.22 0.12 0 0.24 0.12 0 0.26 0.12 0 0.28 0.12 0 0.3 0.12 0 0.32 0.12 0 0.34 0.12 0 0.36 0.12 0 0.38 0.12 0 0.4 0.12 0 0.42 0.12 0 0.44 0.12 0 0.46 0.12 0 0.48 0.12 0 0.5 0.12 0 0.52 0.12 0 0.54 0.12 0 0.56 0.12 0 0.58 0.12 0 0.6 0.12 0 0.62 0.12 0 0.64 0.12 0 0.66 0.12 0 0.68 0.12 0 0.7 0.12 0 0.72 0.12 0 0.74 0.12 0 0.76 0.12 0 0.78 0.12 0 0.8 0.12 0 0.82 0.12 0 0.84 0.12 0 0.86 0.12 0 0.88 0.12 0 0.9 0.12 0 0.92 0.12 0 0.94 0.12 0 0.96 0.12 0 0.98 0.12 0 1 0.12 0 0 0.14 0 0.02 0.14 0 0.04 0.14 0 0.06 0.14 0 0.08 0.14 0 0.1 0.14 0 0.12 0.14 0 0.14 0.14 0 0.16 0.14 0 0.18 0.14 0 0.2 0.14 0 0.22 0.14 0 0.24 0.14 0 0.26 0.14 0 0.28 0.14 0 0.3 0.14 0 0.32 0.14 0 0.34 0.14 0 0.36 0.14 0 0.38 0.14 0 0.4 0.14 0 0.42 0.14 0 0.44 0.14 0 0.46 0.14 0 0.48 0.14 0 0.5 0.14 0 0.52 0.14 0 0.54 0.14 0 0.56 0.14 0 0.58 0.14 0 0.6 0.14 0 0.62 0.14 0 0.64 0.14 0 0.66 0.14 0 0.68 0.14 0 0.7 0.14 0 0.72 0.14 0 0.74 0.14 0 0.76 0.14 0 0.78 0.14 0 0.8 0.14 0 0.82 0.14 0 0.84 0.14 0 0.86 0.14 0 0.88 0.14 0 0.9 0.14 0 0.92 0.14 0 0.94 0.14 0 0.96 0.14 0 0.98 0.14 0 1 0.14 0 0 0.16 0 0.02 0.16 0 0.04 0.16 0 0.06 0.16 0 0.08 0.16 0 0.1 0.16 0 0.12 0.16 0 0.14 0.16 0 0.16 0.16 0 0.18 0.16 0 0.2 0.16 0 0.22 0.16 0 0.24 0.16 0 0.26 0.16 0 0.28 0.16 0 0.3 0.16 0 0.32 0.16 0 0.34 0.16 0 0.36 0.16 0 0.38 0.16 0 0.4 0.16 0 0.42 0.16 0 0.44 0.16 0 0.46 0.16 0 0.48 0.16 0 0.5 0.16 0 0.52 0.16 0 0.54 0.16 0 0.56 0.16 0 0.58 0.16 0 0.6 0.16 0 0.62 0.16 0 0.64 0.16 0 0.66 0.16 0 0.68 0.16 0 0.7 0.16 0 0.72 0.16 0 0.74 0.16 0 0.76 0.16 0 0.78 0.16 0 0.8 0.16 0 0.82 0.16 0 0.84 0.16 0 0.86 0.16 0 0.88 0.16 0 0.9 0.16 0 0.92 0.16 0 0.94 0.16 0 0.96 0.16 0 0.98 0.16 0 1 0.16 0 0 0.18 0 0.02 0.18 0 0.04 0.18 0 0.06 0.18 0 0.08 0.18 0 0.1 0.18 0 0.12 0.18 0 0.14 0.18 0 0.16 0.18 0 0.18 0.18 0 0.2 0.18 0 0.22 0.18 0 0.24 0.18 0 0.26 0.18 0 0.28 0.18 0 0.3 0.18 0 0.32 0.18 0 0.34 0.18 0 0.36 0.18 0 0.38 0.18 0 0.4 0.18 0 0.42 0.18 0 0.44 0.18 0 0.46 0.18 0 0.48 0.18 0 0.5 0.18 0 0.52 0.18 0 0.54 0.18 0 0.56 0.18 0 0.58 0.18 0 0.6 0.18 0 0.62 0.18 0 0.64 0.18 0 0.66 0.18 0 0.68 0.18 0 0.7 0.18 0 0.72 0.18 0 0.74 0.18 0 0.76 0.18 0 0.78 0.18 0 0.8 0.18 0 0.82 0.18 0 0.84 0.18 0 0.86 0.18 0 0.88 0.18 0 0.9 0.18 0 0.92 0.18 0 0.94 0.18 0 0.96 0.18 0 0.98 0.18 0 1 0.18 0 0 0.2 0 0.02 0.2 0 0.04 0.2 0 0.06 0.2 0 0.08 0.2 0 0.1 0.2 0 0.12 0.2 0 0.14 0.2 0 0.16 0.2 0 0.18 0.2 0 0.2 0.2 0 0.22 0.2 0 0.24 0.2 0 0.26 0.2 0 0.28 0.2 0 0.3 0.2 0 0.32 0.2 0 0.34 0.2 0 0.36 0.2 0 0.38 0.2 0 0.4 0.2 0 0.42 0.2 0 0.44 0.2 0 0.46 0.2 0 0.48 0.2 0 0.5 0.2 0 0.52 0.2 0 0.54 0.2 0 0.56 0.2 0 0.58 0.2 0 0.6 0.2 0 0.62 0.2 0 0.64 0.2 0 0.66 0.2 0 0.68 0.2 0 0.7 0.2 0 0.72 0.2 0 0.74 0.2 0 0.76 0.2 0 0.78 0.2 0 0.8 0.2 0 0.82 0.2 0 0.84 0.2 0 0.86 0.2 0 0.88 0.2 0 0.9 0.2 0 0.92 0.2 0 0.94 0.2 0 0.96 0.2 0 0.98 0.2 0 1 0.2 0 0 0.22 0 0.02 0.22 0 0.04 0.22 0 0.06 0.22 0 0.08 0.22 0 0.1 0.22 0 0.12 0.22 0 0.14 0.22 0 0.16 0.22 0 0.18 0.22 0 0.2 0.22 0 0.22 0.22 0 0.24 0.22 0 0.26 0.22 0 0.28 0.22 0 0.3 0.22 0 0.32 0.22 0 0.34 0.22 0 0.36 0.22 0 0.38 0.22 0 0.4 0.22 0 0.42 0.22 0 0.44 0.22 0 0.46 0.22 0 0.48 0.22 0 0.5 0.22 0 0.52 0.22 0 0.54 0.22 0 0.56 0.22 0 0.58 0.22 0 0.6 0.22 0 0.62 0.22 0 0.64 0.22 0 0.66 0.22 0 0.68 0.22 0 0.7 0.22 0 0.72 0.22 0 0.74 0.22 0 0.76 0.22 0 0.78 0.22 0 0.8 0.22 0 0.82 0.22 0 0.84 0.22 0 0.86 0.22 0 0.88 0.22 0 0.9 0.22 0 0.92 0.22 0 0.94 0.22 0 0.96 0.22 0 0.98 0.22 0 1 0.22 0 0 0.24 0 0.02 0.24 0 0.04 0.24 0 0.06 0.24 0 0.08 0.24 0 0.1 0.24 0 0.12 0.24 0 0.14 0.24 0 0.16 0.24 0 0.18 0.24 0 0.2 0.24 0 0.22 0.24 0 0.24 0.24 0 0.26 0.24 0 0.28 0.24 0 0.3 0.24 0 0.32 0.24 0 0.34 0.24 0 0.36 0.24 0 0.38 0.24 0 0.4 0.24 0 0.42 0.24 0 0.44 0.24 0 0.46 0.24 0 0.48 0.24 0 0.5 0.24 0 0.52 0.24 0 0.54 0.24 0 0.56 0.24 0 0.58 0.24 0 0.6 0.24 0 0.62 0.24 0 0.64 0.24 0 0.66 0.24 0 0.68 0.24 0 0.7 0.24 0 0.72 0.24 0 0.74 0.24 0 0.76 0.24 0 0.78 0.24 0 0.8 0.24 0 0.82 0.24 0 0.84 0.24 0 0.86 0.24 0 0.88 0.24 0 0.9 0.24 0 0.92 0.24 0 0.94 0.24 0 0.96 0.24 0 0.98 0.24 0 1 0.24 0 0 0.26 0 0.02 0.26 0 0.04 0.26 0 0.06 0.26 0 0.08 0.26 0 0.1 0.26 0 0.12 0.26 0 0.14 0.26 0 0.16 0.26 0 0.18 0.26 0 0.2 0.26 0 0.22 0.26 0 0.24 0.26 0 0.26 0.26 0 0.28 0.26 0 0.3 0.26 0 0.32 0.26 0 0.34 0.26 0 0.36 0.26 0 0.38 0.26 0 0.4 0.26 0 0.42 0.26 0 0.44 0.26 0 0.46 0.26 0 0.48 0.26 0 0.5 0.26 0 0.52 0.26 0 0.54 0.26 0 0.56 0.26 0 0.58 0.26 0 0.6 0.26 0 0.62 0.26 0 0.64 0.26 0 0.66 0.26 0 0.68 0.26 0 0.7 0.26 0 0.72 0.26 0 0.74 0.26 0 0.76 0.26 0 0.78 0.26 0 0.8 0.26 0 0.82 0.26 0 0.84 0.26 0 0.86 0.26 0 0.88 0.26 0 0.9 0.26 0 0.92 0.26 0 0.94 0.26 0 0.96 0.26 0 0.98 0.26 0 1 0.26 0 0 0.28 0 0.02 0.28 0 0.04 0.28 0 0.06 0.28 0 0.08 0.28 0 0.1 0.28 0 0.12 0.28 0 0.14 0.28 0 0.16 0.28 0 0.18 0.28 0 0.2 0.28 0 0.22 0.28 0 0.24 0.28 0 0.26 0.28 0 0.28 0.28 0 0.3 0.28 0 0.32 0.28 0 0.34 0.28 0 0.36 0.28 0 0.38 0.28 0 0.4 0.28 0 0.42 0.28 0 0.44 0.28 0 0.46 0.28 0 0.48 0.28 0 0.5 0.28 0 0.52 0.28 0 0.54 0.28 0 0.56 0.28 0 0.58 0.28 0 0.6 0.28 0 0.62 0.28 0 0.64 0.28 0 0.66 0.28 0 0.68 0.28 0 0.7 0.28 0 0.72 0.28 0 0.74 0.28 0 0.76 0.28 0 0.78 0.28 0 0.8 0.28 0 0.82 0.28 0 0.84 0.28 0 0.86 0.28 0 0.88 0.28 0 0.9 0.28 0 0.92 0.28 0 0.94 0.28 0 0.96 0.28 0 0.98 0.28 0 1 0.28 0 0 0.3 0 0.02 0.3 0 0.04 0.3 0 0.06 0.3 0 0.08 0.3 0 0.1 0.3 0 0.12 0.3 0 0.14 0.3 0 0.16 0.3 0 0.18 0.3 0 0.2 0.3 0 0.22 0.3 0 0.24 0.3 0 0.26 0.3 0 0.28 0.3 0 0.3 0.3 0 0.32 0.3 0 0.34 0.3 0 0.36 0.3 0 0.38 0.3 0 0.4 0.3 0 0.42 0.3 0 0.44 0.3 0 0.46 0.3 0 0.48 0.3 0 0.5 0.3 0 0.52 0.3 0 0.54 0.3 0 0.56 0.3 0 0.58 0.3 0 0.6 0.3 0 0.62 0.3 0 0.64 0.3 0 0.66 0.3 0 0.68 0.3 0 0.7 0.3 0 0.72 0.3 0 0.74 0.3 0 0.76 0.3 0 0.78 0.3 0 0.8 0.3 0 0.82 0.3 0 0.84 0.3 0 0.86 0.3 0 0.88 0.3 0 0.9 0.3 0 0.92 0.3 0 0.94 0.3 0 0.96 0.3 0 0.98 0.3 0 1 0.3 0 0 0.32 0 0.02 0.32 0 0.04 0.32 0 0.06 0.32 0 0.08 0.32 0 0.1 0.32 0 0.12 0.32 0 0.14 0.32 0 0.16 0.32 0 0.18 0.32 0 0.2 0.32 0 0.22 0.32 0 0.24 0.32 0 0.26 0.32 0 0.28 0.32 0 0.3 0.32 0 0.32 0.32 0 0.34 0.32 0 0.36 0.32 0 0.38 0.32 0 0.4 0.32 0 0.42 0.32 0 0.44 0.32 0 0.46 0.32 0 0.48 0.32 0 0.5 0.32 0 0.52 0.32 0 0.54 0.32 0 0.56 0.32 0 0.58 0.32 0 0.6 0.32 0 0.62 0.32 0 0.64 0.32 0 0.66 0.32 0 0.68 0.32 0 0.7 0.32 0 0.72 0.32 0 0.74 0.32 0 0.76 0.32 0 0.78 0.32 0 0.8 0.32 0 0.82 0.32 0 0.84 0.32 0 0.86 0.32 0 0.88 0.32 0 0.9 0.32 0 0.92 0.32 0 0.94 0.
[...]
			<PointData Scalars="VitesseX">
				<DataArray Name="VitesseX" type="Float32" format="ascii">
 0 0 0 0 0 0 0 0 0 0 0 0 0 0 0 0 0 0 0 0 0 0 0 0 0 0 0 0 0 0 0 0 0 0 0 0 0 0 0 0 0 0 0 0 0 0 0 0 0 0 0 0 0.000483701 0.00192682 0.00430703 0.00758598 0.0117119 0.0166195 0.0222315 0.0284592 0.0352046 0.0423615 0.0498173 0.0574547 0.0651525 0.0727905 0.0802498 0.0874121 0.0941648 0.100401 0.106024 0.110944 0.115083 0.118376 0.120771 0.122245 0.122728 0.122257 0.120828 0.118441 0.115165 0.11104 0.106131 0.100516 0.094282 0.0875288 0.0803624 0.0728962 0.0652478 0.0575391 0.0498903 0.0424219 0.0352527 0.0284958 0.0222579 0.0166375 0.0117231 0.00759226 0.00431006 0.00192814 0.000483885 5.24952e-27 0 0.000959252 0.00381977 0.00853723 0.0150331 0.0232041 0.0329203 0.044028 0.0563521 0.0696992 0.0838599 0.0986128 0.113727 0.128963 0.144085 0.158863 0.173061 0.186458 0.198843 0.210022 0.21982 0.22808 0.234672 0.239491 0.242515 0.243511 0.24268 0.239941 0.235262 0.228831 0.220702 0.211005 0.19989 0.187534 0.174133 0.159898 0.145056 0.129843 0.114504 0.0992798 0.0844103 0.0701357 0.0566827 0.044265 0.0330791 0.0233015 0.0150862 0.00856143 0.00382868 0.000960445 1.04153e-26 0 0.00141923 0.00564957 0.0126255 0.0222277 0.0343024 0.0486566 0.065063 0.0832632 0.102972 0.123881 0.145666 0.167988 0.19049 0.212833 0.234677 0.255676 0.275503 0.29385 0.310427 0.324976 0.337264 0.347097 0.354315 0.358921 0.360438 0.359341 0.355378 0.348518 0.339072 0.327102 0.312794 0.296373 0.278098 0.258258 0.23717 0.21517 0.192611 0.169861 0.147273 0.125207 0.104023 0.0840589 0.0656332 0.0490383 0.0345363 0.0223548 0.0126833 0.00567051 0.00142202 1.54157e-26 0 0.0018564 0.00738748 0.0165076 0.0290566 0.044832 0.0635809 0.0850055 0.108769 0.134499 0.161796 0.190237 0.219382 0.248767 0.277951 0.306498 0.333956 0.3599 0.383925 0.405657 0.424754 0.440913 0.453876 0.463431 0.469621 0.471664 0.470403 0.465325 0.456442 0.444177 0.428593 0.409931 0.388482 0.364585 0.338619 0.311001 0.282172 0.252598 0.222765 0.193138 0.16419 0.136396 0.110205 0.0860346 0.0642695 0.0452538 0.0292853 0.0166114 0.00742481 0.00186137 2.01721e-26 0 0.00226391 0.00900628 0.0201225 0.0354122 0.0546274 0.0774582 0.103542 0.132468 0.163785 0.197008 0.231624 0.267102 0.302874 0.338415 0.373197 0.406669 0.438316 0.467649 0.494209 0.51758 0.537391 0.553323 0.565115 0.572857 0.575434 0.574107 0.568042 0.557328 0.542486 0.523574 0.500882 0.474764 0.445632 0.41395 0.380227 0.345007 0.308858 0.272385 0.236153 0.200744 0.166746 0.134709 0.105147 0.0785324 0.0552849 0.0357685 0.0202838 0.00906392 0.00227157 2.46099e-26 0 0.00263536 0.0104807 0.0234133 0.0411948 0.0635344 0.0900703 0.12038 0.153986 0.190367 0.228961 0.269174 0.310393 0.35196 0.393272 0.433721 0.472668 0.509516 0.543699 0.574684 0.601986 0.625172 0.643865 0.657759 0.666987 0.670112 0.668805 0.661903 0.649583 0.632445 0.610543 0.584211 0.553857 0.519961 0.483063 0.443758 0.402683 0.360506 0.317938 0.275639 0.234294 0.194594 0.157185 0.122671 0.0916022 0.0644716 0.0417022 0.0236426 0.010562 0.00264616 2.86593e-26 0 0.00296496 0.0117876 0.0263286 0.0463134 0.0714129 0.101218 0.135254 0.172986 0.213828 0.257151 0.302296 0.348574 0.395251 0.441656 0.487114 0.530909 0.572374 0.610874 0.645811 0.676638 0.702866 0.724069 0.739895 0.750514 0.754206 0.752988 0.745423 0.731744 0.71263 0.688125 0.6586 0.624511 0.586396 0.544866 0.50059 0.454291 0.406726 0.358705 0.310974 0.26431 0.219501 0.177279 0.138328 0.103273 0.0726689 0.0469926 0.0266348 0.0118954 0.00297924 3.2257e-26 0 0.00324753 0.0129066 0.0288224 0.0506877 0.078139 0.110727 0.147931 0.189167 0.233796 0.281135 0.330464 0.38104 0.43206 0.482801 0.532531 0.580471 0.625895 0.668109 0.706461 0.740352 0.769243 0.792663 0.810221 0.822108 0.826389 0.825314 0.817279 0.802509 0.78177 0.75509 0.72287 0.685607 0.643887 0.598381 0.549825 0.499014 0.446788 0.394043 0.3416 0.290318 0.241073 0.194672 0.151871 0.11336 0.0797474 0.0515564 0.0292131 0.013043 0.00326557 3.53468e-26 0 0.00347867 0.0138204 0.0308559 0.0542488 0.0836069 0.118447 0.158211 0.202274 0.249956 0.300531 0.353235 0.407278 0.461807 0.516057 0.569255 0.62057 0.669231 0.714498 0.755675 0.792119 0.823251 0.848561 0.867622 0.88063 0.885523 0.884629 0.876334 0.860755 0.838767 0.810376 0.776003 0.736176 0.691523 0.64276 0.590682 0.536146 0.480058 0.42339 0.36703 0.311907 0.258968 0.20909 0.163088 0.121704 0.0855953 0.0553213 0.031337 0.0139868 0.00350062 3.78803e-26 0 0.00365478 0.0145147 0.0323969 0.0569409 0.0877306 0.124256 0.16593 0.212099 0.262053 0.315034 0.370247 0.426872 0.48402 0.540897 0.596702 0.650569 0.701695 0.749305 0.792672 0.831119 0.864033 0.890875 0.911188 0.925152 0.930675 0.929988 0.921655 0.905559 0.882719 0.853106 0.817155 0.775416 0.728546 0.677299 0.622513 0.565096 0.506008 0.446283 0.386863 0.328734 0.272905 0.220305 0.171799 0.128173 0.0901201 0.058228 0.0329727 0.0147119 0.00368071 3.98181e-26 0 0.00377388 0.0149847 0.0334405 0.058764 0.0905222 0.128186 0.171149 0.218737 0.270218 0.324816 0.381715 0.440075 0.498988 0.557638 0.615208 0.67081 0.723615 0.772827 0.817694 0.857512 0.891646 0.91953 0.940684 0.955282 0.961181 0.960671 0.952528 0.936212 0.912928 0.882602 0.845674 0.802705 0.75437 0.70145 0.644813 0.585405 0.524226 0.462356 0.400784 0.340532 0.282661 0.228138 0.177867 0.132665 0.0932502 0.0602305 0.0340946 0.0152067 0.003803 4.113e-26 0 0.00383101 0.0151993 0.0338946 0.0595208 0.0916305 0.129683 0.173063 0.221092 0.273036 0.328119 0.385528 0.444428 0.503918 0.563178 0.621409 0.67772 0.731288 0.781317 0.827051 0.867783 0.902864 0.931717 0.953842 0.969297 0.976379 0.976255 0.968838 0.952764 0.929617 0.899227 0.862029 0.818587 0.769585 0.715818 0.658179 0.597639 0.535231 0.47207 0.409184 0.347625 0.288489 0.232778 0.181422 0.135261 0.0950307 0.0613484 0.0347075 0.0154706 0.00386645 4.17955e-26 0 0.00383092 0.0151981 0.0338888 0.0595037 0.0915918 0.129609 0.172939 0.220901 0.272766 0.32776 0.385078 0.443889 0.503305 0.562507 0.620707 0.677017 0.730616 0.780705 0.826524 0.867358 0.90255 0.93151 0.953728 0.969254 0.976374 0.976258 0.968865 0.952836 0.929748 0.899426 0.862297 0.818918 0.769967 0.716234 0.658608 0.59806 0.535625 0.472419 0.409481 0.347862 0.288668 0.232905 0.181505 0.13531 0.095056 0.0613594 0.0347112 0.0154714 0.0038665 4.18044e-26 0 0.00376764 0.0149358 0.0332791 0.058393 0.0898252 0.127037 0.169421 0.216316 0.26701 0.320756 0.376777 0.434276 0.492401 0.550354 0.607387 0.662643 0.715328 0.764668 0.809922 0.850391 0.885424 0.914433 0.936904 0.952759 0.960819 0.961131 0.955272 0.940261 0.918323 0.889119 0.853054 0.810669 0.762633 0.709731 0.652853 0.592976 0.531142 0.468474 0.406033 0.344869 0.286101 0.230741 0.179728 0.133904 0.0940021 0.0606307 0.0342685 0.0152594 0.0038096 4.11565e-26 0 0.0036457 0.0144434 0.0321604 0.0563953 0.0867022 0.122555 0.163367 0.2085 0.257274 0.308978 0.362875 0.418209 0.474182 0.530023 0.585036 0.638407 0.689376 0.737206 0.781181 0.820624 0.854899 0.883427 0.905694 0.921514 0.930183 0.930664 0.925497 0.911241 0.890308 0.862301 0.827603 0.786726 0.740311 0.689117 0.634008 0.575934 0.515916 0.455047 0.39438 0.334936 0.277815 0.224011 0.174441 0.129927 0.0911802 0.0587899 0.0332159 0.0147851 0.00368986 3.9862e-26 0 0.00346611 0.0137218 0.0305288 0.0534946 0.0821858 0.116097 0.154671 0.197303 0.243359 0.292173 0.343062 0.395326 0.448235 0.501059 0.553168 0.6038 0.65225 0.697823 0.739845 0.777669 0.810685 0.838328 0.860093 0.875674 0.884907 0.885636 0.881672 0.868618 0.849242 0.82305 0.790389 0.751738 0.707703 0.659007 0.60648 0.551038 0.493668 0.435428 0.377352 0.320422 0.26571 0.214178 0.166714 0.124111 0.0870501 0.0560923 0.0316707 0.0140873 0.00351319 3.79412e-26 0 0.00323168 0.0127822 0.0284098 0.0497364 0.076347 0.107765 0.143469 0.182903 0.225483 0.270605 0.317651 0.36599 0.414972 0.463923 0.512289 0.559377 0.604543 0.647152 0.686579 0.722218 0.753493 0.779863 0.800837 0.815985 0.82571 0.826716 0.824084 0.812485 0.795014 0.771083 0.741 0.7052 0.664243 0.618808 0.569678 0.517722 0.463879 0.409157 0.354555 0.301005 0.249532 0.201056 0.156422 0.11638 0.0815728 0.0525238 0.0296319 0.0131692 0.00328135 3.54241e-26 0 0.00294606 0.0116392 0.0258368 0.0451799 0.0692778 0.0976896 0.12994 0.165526 0.20393 0.244617 0.287046 0.330667 0.374922 0.419206 0.46305 0.505843 0.547015 0.586 0.622232 0.655157 0.684239 0.708969 0.728876 0.743539 0.75319 0.755282 0.753334 0.743851 0.728495 0.707236 0.680227 0.647854 0.610626 0.569162 0.524189 0.476516 0.427024 0.376651 0.326352 0.276992 0.229539 0.184854 0.143727 0.106857 0.0748351 0.0481408 0.0271319 0.0120451 0.002998 3.23499e-26 0 0.00261373 0.0103106 0.02285 0.0398965 0.0610893 0.0860296 0.114295 0.145448 0.17904 0.214619 0.25173 0.289915 0.328711 0.36762 0.40623 0.444047 0.480581 0.51534 0.547829 0.577554 0.604028 0.626777 0.645358 0.659364 0.6688 0.672136 0.670811 0.663718 0.650746 0.632525 0.609039 0.580617 0.547705 0.510859 0.470737 0.428077 0.383687 0.338427 0.293189 0.248765 0.206047 0.165828 0.128831 0.0956914 0.0669435 0.0430126 0.02421 0.010733 0.0026676 2.87668e-26 0 0.00223987 0.00881722 0.0194963 0.0339694 0.0519104 0.0729687 0.0967821 0.122983 0.151205 0.181085 0.212261 0.244377 0.277074 0.309976 0.342729 0.374968 0.406291 0.436291 0.46455 0.49064 0.51413 0.534591 0.551609 0.564795 0.573944 0.578478 0.577921 0.573322 0.563 0.548137 0.528566 0.504554 0.476479 0.444826 0.410171 0.373173 0.334557 0.295091 0.255592 0.216771 0.179429 0.14428 0.111969 0.0830609 0.0580227 0.0372202 0.0209126 0.00925353 0.00229537 2.47307e-26 0 0.00183034 0.00718234 0.0158285 0.0274917 0.0418854 0.0587126 0.0776763 0.0984868 0.120864 0.144541 0.16926 0.194771 0.220827 0.247178 0.273547 0.299696 0.325318 0.350101 0.373709 0.395788 0.415968 0.433868 0.44911 0.461328 0.470181 0.47566 0.476265 0.473998 0.466675 0.455406 0.44008 0.420868 0.398075 0.372106 0.343449 0.312672 0.280409 0.247332 0.214156 0.181515 0.150105 0.120549 0.0934082 0.0691648 0.0482138 0.0308552 0.0172916 0.00763001 0.00188716 2.03049e-26 0 0.00139156 0.00543157 0.011904 0.0205654 0.0311723 0.0434855 0.0572786 0.072344 0.0884947 0.105564 0.123404 0.141878 0.160856 0.180204 0.199781 0.219417 0.238938 0.258127 0.276737 0.294491 0.311085 0.326193 0.339475 0.350591 0.359212 0.365065 0.367787 0.367077 0.363353 0.355791 0.344976 0.33088 0.31373 0.293845 0.27162 0.247529 0.222101 0.195903 0.169536 0.143557 0.11854 0.0950126 0.0734416 0.0542228 0.0376718 0.0240181 0.0134042 0.00588808 0.00144941 1.55587e-26 0 0.000930411 0.00359234 0.0077847 0.0132993 0.0199396 0.0275272 0.03591 0.0449663 0.0546057 0.0647675 0.0754153 0.0865306 0.0981036 0.110123 0.122566 0.135387 0.148509 0.161819 0.175155 0.188338 0.201129 0.213257 0.224425 0.234322 0.242634 0.249012 0.253261 0.255058 0.254253 0.250936 0.244747 0.236003 0.22477 0.211276 0.19582 0.178773 0.160552 0.141615 0.122441 0.103496 0.0852326 0.0680733 0.052385 0.038471 0.026563 0.0168167 0.00931171 0.00405522 0.000989006 1.05666e-26 0 0.000454155 0.00169363 0.0035358 0.00580931 0.00836688 0.0110939 0.0139146 0.0167958 0.0197457 0.0228111 0.0260704 0.0296248 0.0335871 0.0380691 0.0431686 0.048957 0.0554695 0.0626981 0.0705855 0.0790219 0.0878452 0.0968429 0.105765 0.11434 0.12227 0.1292 0.134887 0.139088 0.141627 0.142228 0.140985 0.137739 0.132594 0.1257 0.117244 0.107486 0.096732 0.0853224 0.0736145 0.0619652 0.0507088 0.0401566 0.0305707 0.022158 0.0150629 0.00936477 0.00507878 0.00216036 0.00051321 5.40686e-27 0 -2.95183e-05 -0.00023336 -0.000772109 -0.00177978 -0.00335272 -0.00554103 -0.00834299 -0.011703 -0.0155133 -0.0196189 -0.023826 -0.0279134 -0.0316453 -0.0347867 -0.0371186 -0.0384519 -0.0386392 -0.0375839 -0.035249 -0.0316607 -0.026909 -0.0211444 -0.0145697 -0.00743006 -1.4642e-07 0.0074301 0.0145698 0.0211447 0.0269099 0.0316629 0.0352517 0.037588 0.0386448 0.0384579 0.0371235 0.0347896 0.0316463 0.0279133 0.0238258 0.0196188 0.0155133 0.011703 0.00834298 0.00554103 0.00335273 0.00177978 0.00077211 0.00023336 2.95183e-05 1.60761e-28 0 -0.00051321 -0.00216036 -0.00507877 -0.00936477 -0.0150629 -0.022158 -0.0305707 -0.0401566 -0.0507089 -0.0619653 -0.0736147 -0.0853223 -0.0967308 -0.107483 -0.11724 -0.125695 -0.13259 -0.137736 -0.140983 -0.142226 -0.141626 -0.139088 -0.134887 -0.1292 -0.12227 -0.11434 -0.105765 -0.0968426 -0.0878444 -0.07902 -0.0705825 -0.0626934 -0.0554636 -0.0489514 -0.0431647 -0.0380674 -0.0335869 -0.0296251 -0.0260706 -0.0228111 -0.0197457 -0.0167958 -0.0139146 -0.0110939 -0.00836687 -0.00580931 -0.0035358 -0.00169363 -0.000454155 -5.08912e-27 0 -0.000989006 -0.00405522 -0.00931171 -0.0168167 -0.026563 -0.038471 -0.052385 -0.0680733 -0.0852327 -0.103497 -0.122441 -0.141614 -0.16055 -0.17877 -0.195818 -0.211274 -0.224768 -0.236 -0.244744 -0.250934 -0.254252 -0.255058 -0.253261 -0.249012 -0.242634 -0.234322 -0.224425 -0.213256 -0.201128 -0.188337 -0.175153 -0.161815 -0.148504 -0.135383 -0.122565 -0.110123 -0.0981041 -0.086531 -0.0754154 -0.0647674 -0.0546057 -0.0449663 -0.03591 -0.0275272 -0.0199396 -0.0132993 -0.0077847 -0.00359234 -0.000930411 -1.026e-26 0 -0.00144941 -0.00588808 -0.0134042 -0.0240181 -0.0376718 -0.0542228 -0.0734416 -0.0950126 -0.11854 -0.143557 -0.169536 -0.195903 -0.2221 -0.247527 -0.271618 -0.293843 -0.313729 -0.330878 -0.344974 -0.35579 -0.363352 -0.367077 -0.367787 -0.365065 -0.359212 -0.350591 -0.339475 -0.326193 -0.311085 -0.29449 -0.276736 -0.258125 -0.238936 -0.219417 -0.199782 -0.180205 -0.160857 -0.141879 -0.123404 -0.105564 -0.0884947 -0.072344 -0.0572786 -0.0434855 -0.0311723 -0.0205654 -0.011904 -0.00543157 -0.00139156 -1.52702e-26 0 -0.00188716 -0.00763001 -0.0172916 -0.0308552 -0.0482138 -0.0691648 -0.0934082 -0.120549 -0.150105 -0.181516 -0.214156 -0.247332 -0.280409 -0.312671 -0.343446 -0.372104 -0.398076 -0.420868 -0.440079 -0.455405 -0.466674 -0.473998 -0.476265 -0.47566 -0.470181 -0.461328 -0.44911 -0.433868 -0.415968 -0.395788 -0.373709 -0.350101 -0.325319 -0.299697 -0.273549 -0.24718 -0.220828 -0.194771 -0.16926 -0.144541 -0.120864 -0.0984868 -0.0776763 -0.0587125 -0.0418854 -0.0274917 -0.0158285 -0.00718234 -0.00183034 -2.00404e-26 0 -0.00229537 -0.00925353 -0.0209126 -0.0372202 -0.0580227 -0.0830608 -0.111969 -0.14428 -0.179429 -0.216771 -0.255593 -0.295092 -0.334557 -0.373172 -0.41017 -0.444826 -0.47648 -0.504554 -0.528565 -0.548136 -0.563 -0.573322 -0.577921 -0.578478 -0.573944 -0.564795 -0.551609 -0.534592 -0.514131 -0.490641 -0.464551 -0.436292 -0.406292 -0.37497 -0.342731 -0.309977 -0.277074 -0.244377 -0.212261 -0.181084 -0.151205 -0.122983 -0.0967821 -0.0729687 -0.0519104 -0.0339694 -0.0194963 -0.00881721 -0.00223987 -2.44952e-26 0 -0.0026676 -0.010733 -0.02421 -0.0430126 -0.0669435 -0.0956914 -0.128831 -0.165828 -0.206047 -0.248766 -0.29319 -0.338428 -0.383688 -0.428077 -0.470737 -0.51086 -0.547706 -0.580617 -0.609039 -0.632525 -0.650746 -0.663717 -0.670811 -0.672136 -0.6688 -0.659364 -0.645359 -0.626778 -0.604028 -0.577555 -0.54783 -0.515341 -0.480582 -0.444049 -0.406231 -0.36762 -0.328712 -0.289914 -0.25173 -0.214619 -0.17904 -0.145448 -0.114295 -0.0860296 -0.0610893 -0.0398965 -0.02285 -0.0103106 -0.00261373 -2.85638e-26 0 -0.002998 -0.0120451 -0.0271319 -0.0481408 -0.0748351 -0.106857 -0.143727 -0.184854 -0.229539 -0.276993 -0.326353 -0.376652 -0.427025 -0.476516 -0.524188 -0.569162 -0.610626 -0.647855 -0.680227 -0.707236 -0.728495 -0.743851 -0.753334 -0.755282 -0.75319 -0.743539 -0.728877 -0.70897 -0.68424 -0.655158 -0.622233 -0.586001 -0.547016 -0.505843 -0.46305 -0.419206 -0.374922 -0.330667 -0.287046 -0.244617 -0.20393 -0.165526 -0.12994 -0.0976896 -0.0692778 -0.0451799 -0.0258368 -0.0116392 -0.00294606 -3.21817e-26 0 -0.00328135 -0.0131692 -0.0296319 -0.0525238 -0.0815728 -0.11638 -0.156422 -0.201057 -0.249532 -0.301006 -0.354556 -0.409158 -0.46388 -0.517721 -0.569676 -0.618807 -0.664243 -0.705201 -0.741001 -0.771084 -0.795014 -0.812485 -0.824084 -0.826716 -0.82571 -0.815985 -0.800837 -0.779863 -0.753493 -0.722219 -0.686579 -0.647151 -0.604543 -0.559377 -0.512289 -0.463923 -0.414972 -0.36599 -0.317651 -0.270605 -0.225483 -0.182903 -0.143469 -0.107765 -0.076347 -0.0497364 -0.0284098 -0.0127822 -0.00323168 -3.52913e-26 0 -0.00351319 -0.0140873 -0.0316707 -0.0560923 -0.08705 -0.124111 -0.166714 -0.214178 -0.26571 -0.320423 -0.377353 -0.43543 -0.493669 -0.551037 -0.606477 -0.659004 -0.707702 -0.751739 -0.79039 -0.823051 -0.849242 -0.868618 -0.881672 -0.885636 -0.884907 -0.875674 -0.860093 -0.838328 -0.810685 -0.77767 -0.739845 -0.697823 -0.65225 -0.603801 -0.553168 -0.501059 -0.448235 -0.395326 -0.343061 -0.292173 -0.243358 -0.197303 -0.154671 -0.116097 -0.0821858 -0.0534946 -0.0305288 -0.0137218 -0.00346611 -3.78431e-26 0 -0.00368986 -0.0147851 -0.0332159 -0.0587899 -0.0911802 -0.129927 -0.174441 -0.224011 -0.277816 -0.334937 -0.394381 -0.455049 -0.515917 -0.575934 -0.634005 -0.689114 -0.740308 -0.786725 -0.827604 -0.862302 -0.890308 -0.911241 -0.925497 -0.930664 -0.930182 -0.921514 -0.905694 -0.883427 -0.854899 -0.820624 -0.781182 -0.737206 -0.689377 -0.638407 -0.585036 -0.530023 -0.474182 -0.418209 -0.362875 -0.308978 -0.257274 -0.2085 -0.163367 -0.122555 -0.0867022 -0.0563953 -0.0321604 -0.0144434 -0.0036457 -3.97964e-26 0 -0.0038096 -0.0152594 -0.0342685 -0.0606307 -0.0940021 -0.133904 -0.179728 -0.230741 -0.286101 -0.34487 -0.406034 -0.468476 -0.531144 -0.592977 -0.652852 -0.709727 -0.76263 -0.810668 -0.853054 -0.889119 -0.918323 -0.940262 -0.955273 -0.961131 -0.960819 -0.952759 -0.936904 -0.914433 -0.885424 -0.850391 -0.809923 -0.764668 -0.715328 -0.662643 -0.607387 -0.550354 -0.492401 -0.434275 -0.376777 -0.320756 -0.26701 -0.216316 -0.169421 -0.127037 -0.0898252 -0.058393 -0.0332791 -0.0149358 -0.00376764 -4.11201e-26 0 -0.0038665 -0.0154714 -0.0347112 -0.0613594 -0.095056 -0.13531 -0.181505 -0.232905 -0.288668 -0.347863 -0.409481 -0.472421 -0.535627 -0.598062 -0.658608 -0.716232 -0.769964 -0.818915 -0.862296 -0.899425 -0.929748 -0.952836 -0.968866 -0.976258 -0.976374 -0.969254 -0.953728 -0.93151 -0.90255 -0.867358 -0.826524 -0.780705 -0.730616 -0.677017 -0.620707 -0.562507 -0.503305 -0.443889 -0.385077 -0.32776 -0.272766 -0.220901 -0.172939 -0.129609 -0.0915918 -0.0595037 -0.0338888 -0.0151981 -0.00383092 -4.1793e-26 0 -0.00386645 -0.0154706 -0.0347075 -0.0613484 -0.0950307 -0.135261 -0.181422 -0.232778 -0.288489 -0.347625 -0.409184 -0.47207 -0.535233 -0.597641 -0.65818 -0.715818 -0.769583 -0.818584 -0.862027 -0.899226 -0.929617 -0.952764 -0.968838 -0.976255 -0.976379 -0.969297 -0.953842 -0.931717 -0.902864 -0.867783 -0.827051 -0.781317 -0.731288 -0.67772 -0.621409 -0.563178 -0.503918 -0.444428 -0.385528 -0.328118 -0.273036 -0.221092 -0.173063 -0.129683 -0.0916305 -0.0595208 -0.0338946 -0.0151993 -0.00383101 -4.18044e-26 0 -0.003803 -0.0152067 -0.0340946 -0.0602305 -0.0932502 -0.132665 -0.177867 -0.228138 -0.282661 -0.340533 -0.400784 -0.462356 -0.524227 -0.585407 -0.644816 -0.701451 -0.75437 -0.802703 -0.845672 -0.882601 -0.912927 -0.936211 -0.952528 -0.960671 -0.961181 -0.955282 -0.940684 -0.91953 -0.891646 -0.857513 -0.817694 -0.772827 -0.723615 -0.67081 -0.615208 -0.557638 -0.498988 -0.440075 -0.381715 -0.324816 -0.270218 -0.218737 -0.171149 -0.128186 -0.0905222 -0.058764 -0.0334405 -0.0149847 -0.00377388 -4.11539e-26 0 -0.00368071 -0.0147119 -0.0329727 -0.058228 -0.0901201 -0.128173 -0.171799 -0.220305 -0.272905 -0.328734 -0.386862 -0.446281 -0.506007 -0.565098 -0.622516 -0.677301 -0.728547 -0.775416 -0.817154 -0.853105 -0.882718 -0.905558 -0.921655 -0.929988 -0.930675 -0.925152 -0.911188 -0.890875 -0.864033 -0.831119 -0.792672 -0.749305 -0.701695 -0.650569 -0.596701 -0.540897 -0.48402 -0.426871 -0.370247 -0.315034 -0.262053 -0.212099 -0.16593 -0.124256 -0.0877306 -0.0569409 -0.0323969 -0.0145147 -0.00365478 -3.9852e-26 0 -0.00350062 -0.0139868 -0.031337 -0.0553213 -0.0855953 -0.121704 -0.163088 -0.209091 -0.258969 -0.311907 -0.367029 -0.423386 -0.480055 -0.536147 -0.590685 -0.642763 -0.691524 -0.736177 -0.776003 -0.810376 -0.838767 -0.860755 -0.876334 -0.884629 -0.885523 -0.88063 -0.867622 -0.848561 -0.823251 -0.79212 -0.755675 -0.714498 -0