<?xml version="1.0"?>
<VTKFile type="PolyData">
	<PolyData>
		<Piece NumberOfPoints="2601" NumberOfPolys="2500">
			<Points>
				<DataArray type="Float32" NumberOfComponents="3" format="ascii">
 0 0 0 0.02 0 0 0.04 0 0 0.06 0 0 0.08 0 0 0.1 0 0 0.12 0 0 0.14 0 0 0.16 0 0 0.18 0 0 0.2 0 0 0.22 0 0 0.24 0 0 0.26 0 0 0.28 0 0 0.3 0 0 0.32 0 0 0.34 0 0 0.36 0 0 0.38 0 0 0.4 0 0 0.42 0 0 0.44 0 0 0.46 0 0 0.48 0 0 0.5 0 0 0.52 0 0 0.54 0 0 0.56 0 0 0.58 0 0 0.6 0 0 0.62 0 0 0.64 0 0 0.66 0 0 0.68 0 0 0.7 0 0 0.72 0 0 0.74 0 0 0.76 0 0 0.78 0 0 0.8 0 0 0.82 0 0 0.84 0 0 0.86 0 0 0.88 0 0 0.9 0 0 0.92 0 0 0.94 0 0 0.96 0 0 0.98 0 0 1 0 0 0 0.02 0 0.02 0.02 0 0.04 0.02 0 0.06 0.02 0 0.08 0.02 0 0.1 0.02 0 0.12 0.02 0 0.14 0.02 0 0.16 0.02 0 0.18 0.02 0 0.2 0.02 0 0.22 0.02 0 0.24 0.02 0 0.26 0.02 0 0.28 0.02 0 0.3 0.02 0 0.32 0.02 0 0.34 0.02 0 0.36 0.02 0 0.38 0.02 0 0.4 0.02 0 0.42 0.02 0 0.44 0.02 0 0.46 0.02 0 0.48 0.02 0 0.5 0.02 0 0.52 0.02 0 0.54 0.02 0 0.56 0.02 0 0.58 0.02 0 0.6 0.02 0 0.62 0.02 0 0.64 0.02 0 0.66 0.02 0 0.68 0.02 0 0.7 0.02 0 0.72 0.02 0 0.74 0.02 0 0.76 0.02 0 0.78 0.02 0 0.8 0.02 0 0.82 0.02 0 0.84 0.02 0 0.86 0.02 0 0.88 0.02 0 0.9 0.02 0 0.92 0.02 0 0.94 0.02 0 0.96 0.02 0 0.98 0.02 0 1 0.02 0 0 0.04 0 0.02 0.04 0 0.04 0.04 0 0.06 0.04 0 0.08 0.04 0 0.1 0.04 0 0.12 0.04 0 0.14 0.04 0 0.16 0.04 0 0.18 0.04 0 0.2 0.04 0 0.22 0.04 0 0.24 0.04 0 0.26 0.04 0 0.28 0.04 0 0.3 0.04 0 0.32 0.04 0 0.34 0.04 0 0.36 0.04 0 0.38 0.04 0 0.4 0.04 0 0.42 0.04 0 0.44 0.04 0 0.46 0.04 0 0.48 0.04 0 0.5 0.04 0 0.52 0.04 0 0.54 0.04 0 0.56 0.04 0 0.58 0.04 0 0.6 0.04 0 0.62 0.04 0 0.64 0.04 0 0.66 0.04 0 0.68 0.04 0 0.7 0.04 0 0.72 0.04 0 0.74 0.04 0 0.76 0.04 0 0.78 0.04 0 0.8 0.04 0 0.82 0.04 0 0.84 0.04 0 0.86 0.04 0 0.88 0.04 0 0.9 0.04 0 0.92 0.04 0 0.94 0.04 0 0.96 0.04 0 0.98 0.04 0 1 0.04 0 0 0.06 0 0.02 0.06 0 0.04 0.06 0 0.06 0.06 0 0.08 0.06 0 0.1 0.06 0 0.12 0.06 0 0.14 0.06 0 0.16 0.06 0 0.18 0.06 0 0.2 0.06 0 0.22 0.06 0 0.24 0.06 0 0.26 0.06 0 0.28 0.06 0 0.3 0.06 0 0.32 0.06 0 0.34 0.06 0 0.36 0.06 0 0.38 0.06 0 0.4 0.06 0 0.42 0.06 0 0.44 0.06 0 0.46 0.06 0 0.48 0.06 0 0.5 0.06 0 0.52 0.06 0 0.54 0.06 0 0.56 0.06 0 0.58 0.06 0 0.6 0.06 0 0.62 0.06 0 0.64 0.06 0 0.66 0.06 0 0.68 0.06 0 0.7 0.06 0 0.72 0.06 0 0.74 0.06 0 0.76 0.06 0 0.78 0.06 0 0.8 0.06 0 0.82 0.06 0 0.84 0.06 0 0.86 0.06 0 0.88 0.06 0 0.9 0.06 0 0.92 0.06 0 0.94 0.06 0 0.96 0.06 0 0.98 0.06 0 1 0.06 0 0 0.08 0 0.02 0.08 0 0.04 0.08 0 0.06 0.08 0 0.08 0.08 0 0.1 0.08 0 0.12 0.08 0 0.14 0.08 0 0.16 0.08 0 0.18 0.08 0 0.2 0.08 0 0.22 0.08 0 0.24 0.08 0 0.26 0.08 0 0.28 0.08 0 0.3 0.08 0 0.32 0.08 0 0.34 0.08 0 0.36 0.08 0 0.38 0.08 0 0.4 0.08 0 0.42 0.08 0 0.44 0.08 0 0.46 0.08 0 0.48 0.08 0 0.5 0.08 0 0.52 0.08 0 0.54 0.08 0 0.56 0.08 0 0.58 0.08 0 0.6 0.08 0 0.62 0.08 0 0.64 0.08 0 0.66 0.08 0 0.68 0.08 0 0.7 0.08 0 0.72 0.08 0 0.74 0.08 0 0.76 0.08 0 0.78 0.08 0 0.8 0.08 0 0.82 0.08 0 0.84 0.08 0 0.86 0.08 0 0.88 0.08 0 0.9 0.08 0 0.92 0.08 0 0.94 0.08 0 0.96 0.08 0 0.98 0.08 0 1 0.08 0 0 0.1 0 0.02 0.1 0 0.04 0.1 0 0.06 0.1 0 0.08 0.1 0 0.1 0.1 0 0.12 0.1 0 0.14 0.1 0 0.16 0.1 0 0.18 0.1 0 0.2 0.1 0 0.22 0.1 0 0.24 0.1 0 0.26 0.1 0 0.28 0.1 0 0.3 0.1 0 0.32 0.1 0 0.34 0.1 0 0.36 0.1 0 0.38 0.1 0 0.4 0.1 0 0.42 0.1 0 0.44 0.1 0 0.46 0.1 0 0.48 0.1 0 0.5 0.1 0 0.52 0.1 0 0.54 0.1 0 0.56 0.1 0 0.58 0.1 0 0.6 0.1 0 0.62 0.1 0 0.64 0.1 0 0.66 0.1 0 0.68 0.1 0 0.7 0.1 0 0.72 0.1 0 0.74 0.1 0 0.76 0.1 0 0.78 0.1 0 0.8 0.1 0 0.82 0.1 0 0.84 0.1 0 0.86 0.1 0 0.88 0.1 0 0.9 0.1 0 0.92 0.1 0 0.94 0.1 0 0.96 0.1 0 0.98 0.1 0 1 0.1 0 0 0.12 0 0.02 0.12 0 0.04 0.12 0 0.06 0.12 0 0.08 0.12 0 0.1 0.12 0 0.12 0.12 0 0.14 0.12 0 0.16 0.12 0 0.18 0.12 0 0.2 0.12 0 0.22 0.12 0 0.24 0.12 0 0.26 0.12 0 0.28 0.12 0 0.3 0.12 0 0.32 0.12 0 0.34 0.12 0 0.36 0.12 0 0.38 0.12 0 0.4 0.12 0 0.42 0.12 0 0.44 0.12 0 0.46 0.12 0 0.48 0.12 0 0.5 0.12 0 0.52 0.12 0 0.54 0.12 0 0.56 0.12 0 0.58 0.12 0 0.6 0.12 0 0.62 0.12 0 0.64 0.12 0 0.66 0.12 0 0.68 0.12 0 0.7 0.12 0 0.72 0.12 0 0.74 0.12 0 0.76 0.12 0 0.78 0.12 0 0.8 0.12 0 0.82 0.12 0 0.84 0.12 0 0.86 0.12 0 0.88 0.12 0 0.9 0.12 0 0.92 0.12 0 0.94 0.12 0 0.96 0.12 0 0.98 0.12 0 1 0.12 0 0 0.14 0 0.02 0.14 0 0.04 0.14 0 0.06 0.14 0 0.08 0.14 0 0.1 0.14 0 0.12 0.14 0 0.14 0.14 0 0.16 0.14 0 0.18 0.14 0 0.2 0.14 0 0.22 0.14 0 0.24 0.14 0 0.26 0.14 0 0.28 0.14 0 0.3 0.14 0 0.32 0.14 0 0.34 0.14 0 0.36 0.14 0 0.38 0.14 0 0.4 0.14 0 0.42 0.14 0 0.44 0.14 0 0.46 0.14 0 0.48 0.14 0 0.5 0.14 0 0.52 0.14 0 0.54 0.14 0 0.56 0.14 0 0.58 0.14 0 0.6 0.14 0 0.62 0.14 0 0.64 0.14 0 0.66 0.14 0 0.68 0.14 0 0.7 0.14 0 0.72 0.14 0 0.74 0.14 0 0.76 0.14 0 0.78 0.14 0 0.8 0.14 0 0.82 0.14 0 0.84 0.14 0 0.86 0.14 0 0.88 0.14 0 0.9 0.14 0 0.92 0.14 0 0.94 0.14 0 0.96 0.14 0 0.98 0.14 0 1 0.14 0 0 0.16 0 0.02 0.16 0 0.04 0.16 0 0.06 0.16 0 0.08 0.16 0 0.1 0.16 0 0.12 0.16 0 0.14 0.16 0 0.16 0.16 0 0.18 0.16 0 0.2 0.16 0 0.22 0.16 0 0.24 0.16 0 0.26 0.16 0 0.28 0.16 0 0.3 0.16 0 0.32 0.16 0 0.34 0.16 0 0.36 0.16 0 0.38 0.16 0 0.4 0.16 0 0.42 0.16 0 0.44 0.16 0 0.46 0.16 0 0.48 0.16 0 0.5 0.16 0 0.52 0.16 0 0.54 0.16 0 0.56 0.16 0 0.58 0.16 0 0.6 0.16 0 0.62 0.16 0 0.64 0.16 0 0.66 0.16 0 0.68 0.16 0 0.7 0.16 0 0.72 0.16 0 0.74 0.16 0 0.76 0.16 0 0.78 0.16 0 0.8 0.16 0 0.82 0.16 0 0.84 0.16 0 0.86 0.16 0 0.88 0.16 0 0.9 0.16 0 0.92 0.16 0 0.94 0.16 0 0.96 0.16 0 0.98 0.16 0 1 0.16 0 0 0.18 0 0.02 0.18 0 0.04 0.18 0 0.06 0.18 0 0.08 0.18 0 0.1 0.18 0 0.12 0.18 0 0.14 0.18 0 0.16 0.18 0 0.18 0.18 0 0.2 0.18 0 0.22 0.18 0 0.24 0.18 0 0.26 0.18 0 0.28 0.18 0 0.3 0.18 0 0.32 0.18 0 0.34 0.18 0 0.36 0.18 0 0.38 0.18 0 0.4 0.18 0 0.42 0.18 0 0.44 0.18 0 0.46 0.18 0 0.48 0.18 0 0.5 0.18 0 0.52 0.18 0 0.54 0.18 0 0.56 0.18 0 0.58 0.18 0 0.6 0.18 0 0.62 0.18 0 0.64 0.18 0 0.66 0.18 0 0.68 0.18 0 0.7 0.18 0 0.72 0.18 0 0.74 0.18 0 0.76 0.18 0 0.78 0.18 0 0.8 0.18 0 0.82 0.18 0 0.84 0.18 0 0.86 0.18 0 0.88 0.18 0 0.9 0.18 0 0.92 0.18 0 0.94 0.18 0 0.96 0.18 0 0.98 0.18 0 1 0.18 0 0 0.2 0 0.02 0.2 0 0.04 0.2 0 0.06 0.2 0 0.08 0.2 0 0.1 0.2 0 0.12 0.2 0 0.14 0.2 0 0.16 0.2 0 0.18 0.2 0 0.2 0.2 0 0.22 0.2 0 0.24 0.2 0 0.26 0.2 0 0.28 0.2 0 0.3 0.2 0 0.32 0.2 0 0.34 0.2 0 0.36 0.2 0 0.38 0.2 0 0.4 0.2 0 0.42 0.2 0 0.44 0.2 0 0.46 0.2 0 0.48 0.2 0 0.5 0.2 0 0.52 0.2 0 0.54 0.2 0 0.56 0.2 0 0.58 0.2 0 0.6 0.2 0 0.62 0.2 0 0.64 0.2 0 0.66 0.2 0 0.68 0.2 0 0.7 0.2 0 0.72 0.2 0 0.74 0.2 0 0.76 0.2 0 0.78 0.2 0 0.8 0.2 0 0.82 0.2 0 0.84 0.2 0 0.86 0.2 0 0.88 0.2 0 0.9 0.2 0 0.92 0.2 0 0.94 0.2 0 0.96 0.2 0 0.98 0.2 0 1 0.2 0 0 0.22 0 0.02 0.22 0 0.04 0.22 0 0.06 0.22 0 0.08 0.22 0 0.1 0.22 0 0.12 0.22 0 0.14 0.22 0 0.16 0.22 0 0.18 0.22 0 0.2 0.22 0 0.22 0.22 0 0.24 0.22 0 0.26 0.22 0 0.28 0.22 0 0.3 0.22 0 0.32 0.22 0 0.34 0.22 0 0.36 0.22 0 0.38 0.22 0 0.4 0.22 0 0.42 0.22 0 0.44 0.22 0 0.46 0.22 0 0.48 0.22 0 0.5 0.22 0 0.52 0.22 0 0.54 0.22 0 0.56 0.22 0 0.58 0.22 0 0.6 0.22 0 0.62 0.22 0 0.64 0.22 0 0.66 0.22 0 0.68 0.22 0 0.7 0.22 0 0.72 0.22 0 0.74 0.22 0 0.76 0.22 0 0.78 0.22 0 0.8 0.22 0 0.82 0.22 0 0.84 0.22 0 0.86 0.22 0 0.88 0.22 0 0.9 0.22 0 0.92 0.22 0 0.94 0.22 0 0.96 0.22 0 0.98 0.22 0 1 0.22 0 0 0.24 0 0.02 0.24 0 0.04 0.24 0 0.06 0.24 0 0.08 0.24 0 0.1 0.24 0 0.12 0.24 0 0.14 0.24 0 0.16 0.24 0 0.18 0.24 0 0.2 0.24 0 0.22 0.24 0 0.24 0.24 0 0.26 0.24 0 0.28 0.24 0 0.3 0.24 0 0.32 0.24 0 0.34 0.24 0 0.36 0.24 0 0.38 0.24 0 0.4 0.24 0 0.42 0.24 0 0.44 0.24 0 0.46 0.24 0 0.48 0.24 0 0.5 0.24 0 0.52 0.24 0 0.54 0.24 0 0.56 0.24 0 0.58 0.24 0 0.6 0.24 0 0.62 0.24 0 0.64 0.24 0 0.66 0.24 0 0.68 0.24 0 0.7 0.24 0 0.72 0.24 0 0.74 0.24 0 0.76 0.24 0 0.78 0.24 0 0.8 0.24 0 0.82 0.24 0 0.84 0.24 0 0.86 0.24 0 0.88 0.24 0 0.9 0.24 0 0.92 0.24 0 0.94 0.24 0 0.96 0.24 0 0.98 0.24 0 1 0.24 0 0 0.26 0 0.02 0.26 0 0.04 0.26 0 0.06 0.26 0 0.08 0.26 0 0.1 0.26 0 0.12 0.26 0 0.14 0.26 0 0.16 0.26 0 0.18 0.26 0 0.2 0.26 0 0.22 0.26 0 0.24 0.26 0 0.26 0.26 0 0.28 0.26 0 0.3 0.26 0 0.32 0.26 0 0.34 0.26 0 0.36 0.26 0 0.38 0.26 0 0.4 0.26 0 0.42 0.26 0 0.44 0.26 0 0.46 0.26 0 0.48 0.26 0 0.5 0.26 0 0.52 0.26 0 0.54 0.26 0 0.56 0.26 0 0.58 0.26 0 0.6 0.26 0 0.62 0.26 0 0.64 0.26 0 0.66 0.26 0 0.68 0.26 0 0.7 0.26 0 0.72 0.26 0 0.74 0.26 0 0.76 0.26 0 0.78 0.26 0 0.8 0.26 0 0.82 0.26 0 0.84 0.26 0 0.86 0.26 0 0.88 0.26 0 0.9 0.26 0 0.92 0.26 0 0.94 0.26 0 0.96 0.26 0 0.98 0.26 0 1 0.26 0 0 0.28 0 0.02 0.28 0 0.04 0.28 0 0.06 0.28 0 0.08 0.28 0 0.1 0.28 0 0.12 0.28 0 0.14 0.28 0 0.16 0.28 0 0.18 0.28 0 0.2 0.28 0 0.22 0.28 0 0.24 0.28 0 0.26 0.28 0 0.28 0.28 0 0.3 0.28 0 0.32 0.28 0 0.34 0.28 0 0.36 0.28 0 0.38 0.28 0 0.4 0.28 0 0.42 0.28 0 0.44 0.28 0 0.46 0.28 0 0.48 0.28 0 0.5 0.28 0 0.52 0.28 0 0.54 0.28 0 0.56 0.28 0 0.58 0.28 0 0.6 0.28 0 0.62 0.28 0 0.64 0.28 0 0.66 0.28 0 0.68 0.28 0 0.7 0.28 0 0.72 0.28 0 0.74 0.28 0 0.76 0.28 0 0.78 0.28 0 0.8 0.28 0 0.82 0.28 0 0.84 0.28 0 0.86 0.28 0 0.88 0.28 0 0.9 0.28 0 0.92 0.28 0 0.94 0.28 0 0.96 0.28 0 0.98 0.28 0 1 0.28 0 0 0.3 0 0.02 0.3 0 0.04 0.3 0 0.06 0.3 0 0.08 0.3 0 0.1 0.3 0 0.12 0.3 0 0.14 0.3 0 0.16 0.3 0 0.18 0.3 0 0.2 0.3 0 0.22 0.3 0 0.24 0.3 0 0.26 0.3 0 0.28 0.3 0 0.3 0.3 0 0.32 0.3 0 0.34 0.3 0 0.36 0.3 0 0.38 0.3 0 0.4 0.3 0 0.42 0.3 0 0.44 0.3 0 0.46 0.3 0 0.48 0.3 0 0.5 0.3 0 0.52 0.3 0 0.54 0.3 0 0.56 0.3 0 0.58 0.3 0 0.6 0.3 0 0.62 0.3 0 0.64 0.3 0 0.66 0.3 0 0.68 0.3 0 0.7 0.3 0 0.72 0.3 0 0.74 0.3 0 0.76 0.3 0 0.78 0.3 0 0.8 0.3 0 0.82 0.3 0 0.84 0.3 0 0.86 0.3 0 0.88 0.3 0 0.9 0.3 0 0.92 0.3 0 0.94 0.3 0 0.96 0.3 0 0.98 0.3 0 1 0.3 0 0 0.32 0 0.02 0.32 0 0.04 0.32 0 0.06 0.32 0 0.08 0.32 0 0.1 0.32 0 0.12 0.32 0 0.14 0.32 0 0.16 0.32 0 0.18 0.32 0 0.2 0.32 0 0.22 0.32 0 0.24 0.32 0 0.26 0.32 0 0.28 0.32 0 0.3 0.32 0 0.32 0.32 0 0.34 0.32 0 0.36 0.32 0 0.38 0.32 0 0.4 0.32 0 0.42 0.32 0 0.44 0.32 0 0.46 0.32 0 0.48 0.32 0 0.5 0.32 0 0.52 0.32 0 0.54 0.32 0 0.56 0.32 0 0.58 0.32 0 0.6 0.32 0 0.62 0.32 0 0.64 0.32 0 0.66 0.32 0 0.68 0.32 0 0.7 0.32 0 0.72 0.32 0 0.74 0.32 0 0.76 0.32 0 0.78 0.32 0 0.8 0.32 0 0.82 0.32 0 0.84 0.32 0 0.86 0.32 0 0.88 0.32 0 0.9 0.32 0 0.92 0.32 0 0.94 0.
[...]
			<PointData Scalars="VitesseX">
				<DataArray Name="VitesseX" type="Float32" format="ascii">
 0 0 0 0 0 0 0 0 0 0 0 0 0 0 0 0 0 0 0 0 0 0 0 0 0 0 0 0 0 0 0 0 0 0 0 0 0 0 0 0 0 0 0 0 0 0 0 0 0 0 0 0 0.000436564 0.00173908 0.00388736 0.00684687 0.0105709 0.0150005 0.0200658 0.0256871 0.0317756 0.0382355 0.0449652 0.0518588 0.058807 0.0657011 0.0724336 0.078898 0.0849924 0.0906209 0.0956949 0.100134 0.103869 0.10684 0.109001 0.110328 0.110764 0.110338 0.109047 0.106893 0.103936 0.100213 0.0957823 0.090714 0.085088 0.0789931 0.0725254 0.0657872 0.0588847 0.0519276 0.0450248 0.0382848 0.0318148 0.0257169 0.0200874 0.0150151 0.01058 0.00685198 0.00388983 0.00174015 0.000436714 4.73781e-27 0 0.000865818 0.0034479 0.00770616 0.0135701 0.0209465 0.0297182 0.0397465 0.0508733 0.0629239 0.0757091 0.0890288 0.102675 0.11643 0.130083 0.143422 0.156238 0.168329 0.179506 0.189592 0.19843 0.20588 0.211822 0.216163 0.218878 0.219774 0.219012 0.21653 0.212303 0.206491 0.199149 0.190393 0.180359 0.169206 0.157111 0.144265 0.130873 0.117147 0.103308 0.0895722 0.0761575 0.0632794 0.0511426 0.0399396 0.0298475 0.0210259 0.0136133 0.00772587 0.00345516 0.00086679 9.40015e-27 0 0.00128105 0.00509997 0.0113975 0.0200668 0.030969 0.0439304 0.0587455 0.0751812 0.0929797 0.111863 0.131536 0.151693 0.172013 0.192188 0.211909 0.230865 0.248761 0.265315 0.28027 0.29339 0.304467 0.313324 0.319819 0.323945 0.325308 0.324284 0.320688 0.314482 0.30594 0.295122 0.282199 0.267371 0.250874 0.232969 0.21394 0.194092 0.173741 0.153219 0.132845 0.112943 0.0938358 0.0758294 0.05921 0.0442413 0.0311595 0.0201702 0.0114445 0.00511703 0.00128333 1.39133e-26 0 0.00167574 0.00666934 0.0149033 0.0262345 0.0404805 0.0574132 0.0767639 0.0982281 0.12147 0.146127 0.171817 0.198142 0.224683 0.25104 0.276816 0.301605 0.32502 0.346699 0.3663 0.383517 0.398076 0.409745 0.418334 0.423866 0.425697 0.424497 0.419883 0.411835 0.400735 0.386645 0.369782 0.350411 0.328837 0.305403 0.280484 0.254478 0.227803 0.200898 0.17418 0.148077 0.123015 0.099398 0.0776021 0.057974 0.040824 0.0264208 0.0149878 0.00669974 0.00167979 1.82063e-26 0 0.00204369 0.0081314 0.0181685 0.0319763 0.0493314 0.0699545 0.093518 0.119651 0.147946 0.177963 0.209239 0.24129 0.273608 0.305711 0.337122 0.367342 0.395907 0.422372 0.446325 0.467389 0.485231 0.499563 0.510151 0.517058 0.519359 0.518066 0.512546 0.502825 0.489381 0.472272 0.45176 0.428168 0.401866 0.373273 0.342848 0.31108 0.278481 0.245594 0.212928 0.181006 0.150358 0.121477 0.0948258 0.0708293 0.0498669 0.0322665 0.0182998 0.00817834 0.00204993 2.22118e-26 0 0.00237912 0.00946328 0.0211417 0.0372019 0.0573823 0.0813568 0.108744 0.139113 0.171991 0.206869 0.24321 0.280458 0.318018 0.355341 0.391874 0.427041 0.460301 0.491141 0.51908 0.543681 0.564552 0.581357 0.59382 0.602039 0.604817 0.603505 0.597211 0.586014 0.570477 0.550651 0.52684 0.499415 0.468808 0.435508 0.40005 0.363006 0.324978 0.286603 0.248476 0.211212 0.175434 0.141718 0.11061 0.0826045 0.0581456 0.0376151 0.0213284 0.00952951 0.00238791 2.58668e-26 0 0.00267679 0.0106441 0.0237763 0.0418292 0.0645067 0.0914407 0.122202 0.156307 0.193225 0.232388 0.273196 0.315026 0.357212 0.399145 0.440209 0.479758 0.517186 0.551919 0.583417 0.611187 0.634786 0.653834 0.668015 0.67746 0.680725 0.679456 0.672538 0.660086 0.64274 0.620544 0.593834 0.563027 0.528607 0.491126 0.451186 0.409436 0.366558 0.323277 0.280265 0.238218 0.197846 0.159803 0.124705 0.0931138 0.0655296 0.0423823 0.0240256 0.0107319 0.00268842 2.9114e-26 0 0.00293203 0.0116555 0.0260309 0.0457854 0.0705924 0.100047 0.13368 0.170962 0.211314 0.254119 0.298722 0.344448 0.390572 0.436432 0.481363 0.524659 0.565663 0.603745 0.638317 0.668838 0.694822 0.715847 0.731563 0.742122 0.745886 0.744709 0.737336 0.723866 0.705025 0.680842 0.651683 0.617997 0.580317 0.539246 0.495448 0.449637 0.402565 0.355037 0.307791 0.261598 0.217241 0.175445 0.136889 0.102191 0.0719022 0.0464928 0.026349 0.0117666 0.00294671 3.19028e-26 0 0.00314085 0.0124817 0.0278701 0.0490083 0.0755437 0.107041 0.142997 0.182846 0.225973 0.271717 0.319385 0.36826 0.417569 0.466612 0.514685 0.561035 0.604963 0.645799 0.682912 0.715722 0.743708 0.766413 0.783455 0.794996 0.799272 0.798224 0.790581 0.776346 0.756347 0.730593 0.699469 0.663455 0.623119 0.579108 0.532135 0.482973 0.432431 0.38138 0.33062 0.280981 0.233312 0.188397 0.146969 0.109694 0.0771629 0.0498817 0.0282619 0.0126172 0.00315872 3.41894e-26 0 0.0033 0.0131098 0.0292652 0.0514473 0.0792827 0.112312 0.150006 0.191773 0.236968 0.284905 0.334859 0.386084 0.437777 0.489208 0.539647 0.58831 0.634466 0.677414 0.716494 0.751097 0.78067 0.804731 0.822872 0.835243 0.840043 0.839151 0.831431 0.816692 0.795891 0.769006 0.736435 0.69868 0.656335 0.610079 0.560668 0.508915 0.455681 0.40189 0.34839 0.296061 0.245805 0.198455 0.154785 0.115502 0.0812285 0.0524955 0.0297341 0.0132704 0.00332111 3.59382e-26 0 0.00340762 0.0135349 0.0302099 0.0530991 0.0818145 0.11588 0.154748 0.197809 0.244399 0.293811 0.345305 0.398115 0.451415 0.50446 0.556502 0.606735 0.654407 0.698796 0.739219 0.775045 0.8057 0.830679 0.849555 0.862477 0.867587 0.866839 0.859242 0.844268 0.823032 0.795474 0.761998 0.723115 0.679437 0.631669 0.580592 0.527053 0.471948 0.416241 0.360819 0.306598 0.254522 0.205458 0.160215 0.119525 0.0840347 0.0542929 0.0307423 0.0137157 0.00343133 3.71219e-26 0 0.00345949 0.0137309 0.0306269 0.0537984 0.0828442 0.117278 0.156545 0.20003 0.247067 0.296948 0.348935 0.402264 0.456116 0.50974 0.562402 0.613294 0.661666 0.706795 0.747996 0.784629 0.816112 0.841926 0.861628 0.875273 0.881352 0.880911 0.873888 0.859084 0.837922 0.810266 0.776515 0.737183 0.692892 0.64436 0.592386 0.537839 0.481646 0.424799 0.368221 0.31285 0.259664 0.209556 0.163358 0.121825 0.0856151 0.0552875 0.0312892 0.013952 0.00348837 3.7722e-26 0 0.00345943 0.01373 0.0306227 0.0537857 0.0828155 0.117224 0.156453 0.199889 0.246867 0.296683 0.348602 0.401865 0.455663 0.509245 0.561884 0.612776 0.661171 0.706345 0.747609 0.784318 0.815882 0.841776 0.861546 0.875243 0.881349 0.880914 0.87391 0.859139 0.838022 0.810415 0.776715 0.73743 0.693176 0.644668 0.592702 0.538149 0.481935 0.425056 0.368439 0.313025 0.259795 0.209649 0.163419 0.12186 0.0856337 0.0552957 0.031292 0.0139526 0.00348841 3.77292e-26 0 0.00340253 0.013495 0.0300782 0.0527964 0.0812455 0.114942 0.153337 0.195832 0.241779 0.290496 0.341274 0.39338 0.44604 0.498518 0.550125 0.600081 0.64766 0.69216 0.732907 0.769271 0.800667 0.826571 0.846527 0.86048 0.867347 0.867284 0.861539 0.847629 0.827486 0.800839 0.768062 0.729651 0.686211 0.638453 0.587173 0.533247 0.477605 0.421243 0.365109 0.310141 0.257331 0.207583 0.161733 0.120536 0.0846481 0.0546192 0.0308841 0.0137586 0.00343672 3.71435e-26 0 0.0032926 0.0130517 0.0290724 0.0510027 0.0784448 0.110927 0.147918 0.188841 0.233076 0.279974 0.328857 0.379034 0.429771 0.480363 0.530163 0.578427 0.624462 0.667596 0.70718 0.742602 0.773292 0.798734 0.818473 0.832366 0.839716 0.839798 0.834641 0.821401 0.802146 0.77656 0.745 0.707936 0.66595 0.619728 0.570044 0.51775 0.463754 0.409028 0.354509 0.30111 0.249802 0.201471 0.156935 0.116929 0.0820914 0.0529529 0.0299322 0.01333 0.00332858 3.5974e-26 0 0.00313062 0.0124013 0.0276036 0.0483937 0.0743856 0.105127 0.140113 0.178797 0.220598 0.264909 0.311101 0.358529 0.406521 0.454409 0.501601 0.547404 0.591169 0.632264 0.670076 0.704021 0.733553 0.758168 0.777423 0.791074 0.798863 0.799175 0.795031 0.782855 0.764974 0.741 0.711257 0.676187 0.636341 0.59237 0.545021 0.495111 0.443519 0.391183 0.339022 0.287912 0.238798 0.192537 0.14992 0.111652 0.0783469 0.0505093 0.0285337 0.0126991 0.00316897 3.4239e-26 0 0.00291911 0.0115541 0.0256946 0.0450101 0.069132 0.0976334 0.130044 0.165858 0.204542 0.245541 0.288286 0.332193 0.376659 0.421068 0.464895 0.507506 0.548311 0.586728 0.622188 0.654147 0.682086 0.705526 0.724036 0.737271 0.745437 0.74601 0.742995 0.732115 0.715925 0.693968 0.666533 0.634022 0.596946 0.555918 0.511638 0.464884 0.416489 0.367345 0.318337 0.270296 0.224125 0.18064 0.140592 0.104649 0.0733879 0.0472804 0.02669 0.0118694 0.00295958 3.19657e-26 0 0.0026614 0.0105232 0.0233755 0.0409053 0.0627666 0.0885647 0.117871 0.150228 0.18516 0.222176 0.260773 0.300441 0.340657 0.380869 0.420627 0.459369 0.496572 0.531713 0.564281 0.593774 0.619714 0.641649 0.659166 0.671901 0.680097 0.681376 0.6792 0.670046 0.655783 0.636216 0.61154 0.582113 0.548396 0.510953 0.470431 0.42755 0.383093 0.337891 0.292782 0.248541 0.206015 0.165968 0.129099 0.0960306 0.0672928 0.043317 0.0244304 0.0108539 0.00270371 2.91897e-26 0 0.0023615 0.00932466 0.0206826 0.0361438 0.0553895 0.0780637 0.103785 0.132154 0.16276 0.195183 0.228998 0.263776 0.299084 0.334451 0.369498 0.403755 0.43677 0.468094 0.497274 0.523864 0.547429 0.567552 0.583846 0.595959 0.603941 0.60628 0.604683 0.597628 0.585507 0.568664 0.547155 0.521284 0.491461 0.458188 0.422049 0.383702 0.343862 0.303289 0.262764 0.222992 0.184755 0.148753 0.115624 0.0859328 0.0601578 0.038682 0.0217905 0.00966883 0.00240539 2.59543e-26 0 0.00202411 0.00797731 0.0176582 0.0308004 0.047117 0.0662955 0.0880088 0.111921 0.137694 0.164987 0.193461 0.222776 0.252592 0.282547 0.312316 0.341542 0.369853 0.396876 0.422227 0.445522 0.466376 0.484412 0.49927 0.510617 0.518325 0.521687 0.5208 0.515947 0.506209 0.492384 0.474398 0.452504 0.427046 0.398459 0.367261 0.334035 0.299417 0.264088 0.228756 0.194054 0.160682 0.129267 0.100379 0.0745157 0.0520957 0.0334485 0.0188119 0.00833279 0.00206933 2.23102e-26 0 0.00165451 0.00650216 0.0143499 0.0249592 0.0380791 0.0534455 0.0707905 0.0898481 0.110358 0.132065 0.154723 0.178089 0.201921 0.225971 0.249982 0.273712 0.296876 0.319183 0.340327 0.359987 0.377836 0.39354 0.406774 0.417224 0.424614 0.428906 0.428901 0.426282 0.419142 0.408579 0.39442 0.376856 0.356166 0.332713 0.306935 0.279334 0.250461 0.220907 0.191296 0.162184 0.134176 0.107819 0.0836051 0.0619595 0.0432341 0.0276991 0.0155418 0.00686688 0.00170081 1.83145e-26 0 0.00125851 0.00492233 0.0108096 0.0187121 0.0284182 0.039716 0.0524013 0.066282 0.0811807 0.0969346 0.113394 0.130417 0.147868 0.165606 0.183483 0.201333 0.218988 0.236239 0.252862 0.268606 0.283203 0.296369 0.307815 0.317251 0.324405 0.329086 0.330822 0.329763 0.325772 0.31857 0.308479 0.295534 0.279941 0.261986 0.242021 0.220461 0.197767 0.174432 0.150977 0.127886 0.105657 0.0847483 0.0655679 0.0484627 0.0337127 0.0215247 0.0120316 0.00529424 0.00130565 1.40298e-26 0 0.000842324 0.00326259 0.007093 0.0121574 0.0182863 0.0253232 0.0331307 0.0415942 0.0506229 0.060149 0.0701236 0.0805113 0.091283 0.102409 0.113848 0.125544 0.137416 0.149349 0.161206 0.172813 0.183963 0.194425 0.203946 0.212268 0.219129 0.224242 0.227475 0.22845 0.227311 0.223811 0.217929 0.209817 0.199571 0.187391 0.173543 0.158347 0.142166 0.125392 0.108438 0.0917018 0.0755741 0.0604186 0.0465521 0.0342385 0.0236819 0.0150227 0.00833695 0.00363969 0.000890062 9.52332e-27 0 0.000412496 0.00154909 0.00325899 0.00539922 0.00784517 0.0104977 0.0132883 0.0161821 0.0191772 0.0223026 0.0256122 0.0291782 0.0330817 0.037403 0.0422115 0.0475562 0.0534569 0.0598978 0.0668229 0.074134 0.0816916 0.089315 0.0968013 0.10392 0.110427 0.116032 0.12054 0.123753 0.125539 0.125637 0.124222 0.121054 0.116319 0.110104 0.102581 0.0939709 0.0845353 0.0745613 0.0643503 0.0542033 0.0444037 0.0352143 0.0268579 0.0195113 0.0133001 0.00829565 0.00451595 0.00192931 0.000460605 4.86596e-27 0 -2.40437e-05 -0.00019008 -0.00062891 -0.0014497 -0.00273093 -0.00451344 -0.00679584 -0.00953292 -0.0126369 -0.0159816 -0.0194093 -0.0227401 -0.0257822 -0.0283443 -0.0302475 -0.0313365 -0.0314905 -0.0306311 -0.0287285 -0.0258043 -0.0219321 -0.0172341 -0.0118756 -0.00605619 -1.5032e-07 0.00605607 0.0118754 0.0172339 0.0219319 0.0258041 0.0287283 0.030631 0.0314904 0.0313364 0.0302473 0.0283442 0.0257821 0.0227404 0.0194096 0.0159816 0.0126369 0.00953297 0.0067959 0.00451346 0.00273094 0.0014497 0.00062891 0.00019008 2.40437e-05 1.30945e-28 0 -0.000460605 -0.00192931 -0.00451595 -0.00829564 -0.0133001 -0.0195113 -0.0268578 -0.0352142 -0.0444036 -0.0542033 -0.0643502 -0.0745612 -0.0845355 -0.0939711 -0.102581 -0.110104 -0.116319 -0.121054 -0.124222 -0.125637 -0.125539 -0.123753 -0.12054 -0.116032 -0.110427 -0.10392 -0.0968015 -0.0893152 -0.0816918 -0.0741342 -0.0668231 -0.0598979 -0.053457 -0.0475563 -0.0422116 -0.0374031 -0.0330817 -0.029178 -0.0256121 -0.0223026 -0.0191772 -0.016182 -0.0132883 -0.0104977 -0.00784517 -0.00539921 -0.00325899 -0.00154909 -0.000412496 -4.60715e-27 0 -0.000890062 -0.00363969 -0.00833695 -0.0150227 -0.0236819 -0.0342385 -0.046552 -0.0604185 -0.0755741 -0.0917017 -0.108438 -0.125392 -0.142166 -0.158347 -0.173544 -0.187392 -0.199571 -0.209818 -0.217929 -0.223811 -0.227311 -0.22845 -0.227475 -0.224242 -0.219129 -0.212268 -0.203947 -0.194425 -0.183963 -0.172813 -0.161206 -0.14935 -0.137416 -0.125544 -0.113848 -0.102409 -0.091283 -0.0805112 -0.0701236 -0.0601491 -0.0506229 -0.0415941 -0.0331307 -0.0253232 -0.0182863 -0.0121574 -0.007093 -0.00326259 -0.000842324 -9.27361e-27 0 -0.00130565 -0.00529424 -0.0120316 -0.0215247 -0.0337127 -0.0484627 -0.0655678 -0.0847482 -0.105656 -0.127886 -0.150977 -0.174432 -0.197766 -0.220461 -0.242021 -0.261986 -0.279941 -0.295534 -0.308479 -0.31857 -0.325772 -0.329763 -0.330822 -0.329086 -0.324405 -0.317251 -0.307815 -0.29637 -0.283203 -0.268606 -0.252862 -0.236239 -0.218988 -0.201333 -0.183483 -0.165606 -0.147868 -0.130417 -0.113394 -0.0969346 -0.0811806 -0.0662819 -0.0524012 -0.039716 -0.0284182 -0.0187121 -0.0108096 -0.00492233 -0.00125851 -1.37947e-26 0 -0.00170081 -0.00686688 -0.0155418 -0.0276991 -0.0432341 -0.0619595 -0.083605 -0.107819 -0.134176 -0.162183 -0.191296 -0.220907 -0.250461 -0.279332 -0.306934 -0.332713 -0.356166 -0.376856 -0.39442 -0.408579 -0.419142 -0.426282 -0.428901 -0.428906 -0.424614 -0.417224 -0.406774 -0.393541 -0.377836 -0.359987 -0.340327 -0.319183 -0.296876 -0.273712 -0.249982 -0.225971 -0.201921 -0.178089 -0.154723 -0.132065 -0.110357 -0.089848 -0.0707904 -0.0534454 -0.0380791 -0.0249592 -0.0143499 -0.00650216 -0.00165451 -1.8099e-26 0 -0.00206933 -0.00833279 -0.0188119 -0.0334485 -0.0520957 -0.0745157 -0.100379 -0.129267 -0.160682 -0.194054 -0.228756 -0.264088 -0.299417 -0.334034 -0.367261 -0.398459 -0.427046 -0.452504 -0.474398 -0.492384 -0.506209 -0.515947 -0.5208 -0.521687 -0.518325 -0.510617 -0.49927 -0.484412 -0.466376 -0.445522 -0.422227 -0.396876 -0.369853 -0.341542 -0.312316 -0.282547 -0.252592 -0.222776 -0.193461 -0.164987 -0.137694 -0.111921 -0.0880087 -0.0662954 -0.047117 -0.0308004 -0.0176582 -0.00797731 -0.00202411 -2.21183e-26 0 -0.00240539 -0.00966883 -0.0217905 -0.038682 -0.0601578 -0.0859328 -0.115624 -0.148753 -0.184755 -0.222992 -0.262764 -0.303289 -0.343863 -0.383702 -0.422048 -0.458187 -0.491462 -0.521285 -0.547155 -0.568665 -0.585507 -0.597628 -0.604683 -0.606281 -0.603942 -0.595959 -0.583846 -0.567552 -0.547428 -0.523862 -0.497272 -0.468092 -0.436769 -0.403754 -0.369498 -0.334451 -0.299083 -0.263776 -0.228998 -0.195183 -0.16276 -0.132154 -0.103785 -0.0780636 -0.0553895 -0.0361438 -0.0206826 -0.00932466 -0.0023615 -2.5789e-26 0 -0.00270371 -0.0108539 -0.0244304 -0.043317 -0.0672927 -0.0960306 -0.129099 -0.165968 -0.206015 -0.248541 -0.292783 -0.337891 -0.383094 -0.42755 -0.47043 -0.510953 -0.548396 -0.582112 -0.61154 -0.636216 -0.655784 -0.670047 -0.6792 -0.681376 -0.680097 -0.671901 -0.659165 -0.641647 -0.61971 -0.593768 -0.564273 -0.531706 -0.496566 -0.459366 -0.420625 -0.380869 -0.340657 -0.300441 -0.260773 -0.222176 -0.18516 -0.150228 -0.117871 -0.0885647 -0.0627666 -0.0409053 -0.0233755 -0.0105232 -0.0026614 -2.90527e-26 0 -0.00295958 -0.0118694 -0.02669 -0.0472804 -0.0733879 -0.104649 -0.140592 -0.18064 -0.224125 -0.270295 -0.318337 -0.367345 -0.416489 -0.464884 -0.511639 -0.555918 -0.596947 -0.634022 -0.666532 -0.693968 -0.715925 -0.732115 -0.742995 -0.74601 -0.745437 -0.737272 -0.724036 -0.705524 -0.682079 -0.654135 -0.622171 -0.586709 -0.548296 -0.507497 -0.464891 -0.421067 -0.376659 -0.332193 -0.288286 -0.245541 -0.204542 -0.165858 -0.130044 -0.0976333 -0.069132 -0.0450101 -0.0256946 -0.0115541 -0.00291911 -3.18576e-26 0 -0.00316897 -0.0126991 -0.0285337 -0.0505093 -0.0783469 -0.111652 -0.14992 -0.192537 -0.238798 -0.287911 -0.339022 -0.391184 -0.443519 -0.495111 -0.545021 -0.59237 -0.636341 -0.676187 -0.711257 -0.740999 -0.764974 -0.782855 -0.795031 -0.799175 -0.798863 -0.791075 -0.777425 -0.758172 -0.733554 -0.704018 -0.670064 -0.632245 -0.591149 -0.547389 -0.501594 -0.454407 -0.406521 -0.358529 -0.311101 -0.264909 -0.220598 -0.178797 -0.140112 -0.105127 -0.0743856 -0.0483937 -0.0276036 -0.0124013 -0.00313062 -3.41591e-26 0 -0.00332858 -0.01333 -0.0299321 -0.0529529 -0.0820913 -0.116929 -0.156935 -0.201471 -0.249801 -0.301109 -0.354509 -0.409029 -0.463754 -0.51775 -0.570045 -0.619728 -0.66595 -0.707936 -0.745 -0.77656 -0.802146 -0.821401 -0.834641 -0.839798 -0.839715 -0.832367 -0.818476 -0.798742 -0.773305 -0.742616 -0.707188 -0.667593 -0.624451 -0.578415 -0.530156 -0.480361 -0.429771 -0.379034 -0.328857 -0.279974 -0.233076 -0.188841 -0.147918 -0.110927 -0.0784448 -0.0510027 -0.0290724 -0.0130517 -0.0032926 -3.59205e-26 0 -0.00343672 -0.0137586 -0.0308841 -0.0546192 -0.0846481 -0.120536 -0.161733 -0.207583 -0.257331 -0.310141 -0.365109 -0.421243 -0.477604 -0.533247 -0.587174 -0.638453 -0.686211 -0.729651 -0.768062 -0.800838 -0.827486 -0.847629 -0.861539 -0.867284 -0.867346 -0.86048 -0.846527 -0.826574 -0.800676 -0.769286 -0.732924 -0.69217 -0.647662 -0.600077 -0.550121 -0.498517 -0.44604 -0.39338 -0.341274 -0.290496 -0.241779 -0.195832 -0.153337 -0.114942 -0.0812455 -0.0527964 -0.0300782 -0.013495 -0.00340253 -3.71138e-26 0 -0.00348841 -0.0139526 -0.031292 -0.0552957 -0.0856337 -0.12186 -0.163419 -0.209649 -0.259795 -0.313025 -0.368439 -0.425056 -0.481935 -0.538148 -0.5927 -0.644666 -0.693176 -0.73743 -0.776715 -0.810415 -0.838022 -0.859139 -0.87391 -0.880914 -0.881348 -0.875241 -0.861543 -0.841772 -0.815881 -0.784322 -0.747619 -0.706356 -0.661179 -0.612779 -0.561884 -0.509244 -0.455663 -0.401865 -0.348602 -0.296683 -0.246867 -0.199889 -0.156453 -0.117224 -0.0828155 -0.0537857 -0.0306227 -0.01373 -0.00345943 -3.77199e-26 0 -0.00348837 -0.013952 -0.0312892 -0.0552875 -0.0856151 -0.121825 -0.163358 -0.209556 -0.259664 -0.31285 -0.368221 -0.424799 -0.481646 -0.537838 -0.592383 -0.644358 -0.692892 -0.737183 -0.776515 -0.810266 -0.837922 -0.859084 -0.873888 -0.880911 -0.881352 -0.875272 -0.861626 -0.841922 -0.816107 -0.784627 -0.748 -0.706804 -0.661675 -0.6133 -0.562404 -0.509741 -0.456116 -0.402264 -0.348935 -0.296948 -0.247067 -0.20003 -0.156545 -0.117278 -0.0828442 -0.0537984 -0.0306269 -0.0137309 -0.00345949 -3.77292e-26 0 -0.00343133 -0.0137157 -0.0307423 -0.0542929 -0.0840347 -0.119525 -0.160215 -0.205458 -0.254522 -0.306598 -0.360819 -0.416241 -0.471948 -0.527053 -0.580592 -0.631669 -0.679437 -0.723114 -0.761997 -0.795474 -0.823032 -0.844268 -0.859242 -0.866839 -0.867587 -0.862477 -0.849555 -0.830679 -0.8057 -0.775047 -0.739224 -0.698803 -0.654414 -0.60674 -0.556504 -0.50446 -0.451415 -0.398115 -0.345305 -0.293811 -0.244399 -0.197809 -0.154748 -0.11588 -0.0818145 -0.0530991 -0.0302099 -0.0135349 -0.00340762 -3.71414e-26 0 -0.00332111 -0.0132704 -0.0297341 -0.0524955 -0.0812285 -0.115502 -0.154785 -0.198455 -0.245805 -0.296061 -0.34839 -0.40189 -0.455681 -0.508915 -0.560668 -0.610079 -0.656335 -0.69868 -0.736435 -0.769006 -0.795891 -0.816692 -0.831431 -0.839151 -0.840043 -0.835243 -0.822872 -0.804731 -0.780671 -0.751098 -0.716497 -0.677417 -0.634469 -0.588313 -0.539648 -0.489208 -0.437777 -0.386084 -0.334859 -0.284904 -0.236968 -0.191773 -0.150006 -0.112312 -0.0792827 -0.0514473 -0.0292652 -0.0131098 -0.0033 -3.59658e-26 0 -0.00315872 -0.0126172 -0.0282619 -0.0498817 -0.0771629 -0.109694 -0.146969 -0.188397 -0.233312 -0.280981 -0.33062 -0.38138 -0.432431 -0.482973 -0.532135 -0.579108 -0.623119 -0.663455 -0.699469 -0.730593 -0.756347 -0.776346 -0.790581 -0.798224 -0.799272 -