<?xml version="1.0"?>
<VTKFile type="PolyData">
	<PolyData>
		<Piece NumberOfPoints="2601" NumberOfPolys="2500">
			<Points>
				<DataArray type="Float32" NumberOfComponents="3" format="ascii">
 0 0 0 0.02 0 0 0.04 0 0 0.06 0 0 0.08 0 0 0.1 0 0 0.12 0 0 0.14 0 0 0.16 0 0 0.18 0 0 0.2 0 0 0.22 0 0 0.24 0 0 0.26 0 0 0.28 0 0 0.3 0 0 0.32 0 0 0.34 0 0 0.36 0 0 0.38 0 0 0.4 0 0 0.42 0 0 0.44 0 0 0.46 0 0 0.48 0 0 0.5 0 0 0.52 0 0 0.54 0 0 0.56 0 0 0.58 0 0 0.6 0 0 0.62 0 0 0.64 0 0 0.66 0 0 0.68 0 0 0.7 0 0 0.72 0 0 0.74 0 0 0.76 0 0 0.78 0 0 0.8 0 0 0.82 0 0 0.84 0 0 0.86 0 0 0.88 0 0 0.9 0 0 0.92 0 0 0.94 0 0 0.96 0 0 0.98 0 0 1 0 0 0 0.02 0 0.02 0.02 0 0.04 0.02 0 0.06 0.02 0 0.08 0.02 0 0.1 0.02 0 0.12 0.02 0 0.14 0.02 0 0.16 0.02 0 0.18 0.02 0 0.2 0.02 0 0.22 0.02 0 0.24 0.02 0 0.26 0.02 0 0.28 0.02 0 0.3 0.02 0 0.32 0.02 0 0.34 0.02 0 0.36 0.02 0 0.38 0.02 0 0.4 0.02 0 0.42 0.02 0 0.44 0.02 0 0.46 0.02 0 0.48 0.02 0 0.5 0.02 0 0.52 0.02 0 0.54 0.02 0 0.56 0.02 0 0.58 0.02 0 0.6 0.02 0 0.62 0.02 0 0.64 0.02 0 0.66 0.02 0 0.68 0.02 0 0.7 0.02 0 0.72 0.02 0 0.74 0.02 0 0.76 0.02 0 0.78 0.02 0 0.8 0.02 0 0.82 0.02 0 0.84 0.02 0 0.86 0.02 0 0.88 0.02 0 0.9 0.02 0 0.92 0.02 0 0.94 0.02 0 0.96 0.02 0 0.98 0.02 0 1 0.02 0 0 0.04 0 0.02 0.04 0 0.04 0.04 0 0.06 0.04 0 0.08 0.04 0 0.1 0.04 0 0.12 0.04 0 0.14 0.04 0 0.16 0.04 0 0.18 0.04 0 0.2 0.04 0 0.22 0.04 0 0.24 0.04 0 0.26 0.04 0 0.28 0.04 0 0.3 0.04 0 0.32 0.04 0 0.34 0.04 0 0.36 0.04 0 0.38 0.04 0 0.4 0.04 0 0.42 0.04 0 0.44 0.04 0 0.46 0.04 0 0.48 0.04 0 0.5 0.04 0 0.52 0.04 0 0.54 0.04 0 0.56 0.04 0 0.58 0.04 0 0.6 0.04 0 0.62 0.04 0 0.64 0.04 0 0.66 0.04 0 0.68 0.04 0 0.7 0.04 0 0.72 0.04 0 0.74 0.04 0 0.76 0.04 0 0.78 0.04 0 0.8 0.04 0 0.82 0.04 0 0.84 0.04 0 0.86 0.04 0 0.88 0.04 0 0.9 0.04 0 0.92 0.04 0 0.94 0.04 0 0.96 0.04 0 0.98 0.04 0 1 0.04 0 0 0.06 0 0.02 0.06 0 0.04 0.06 0 0.06 0.06 0 0.08 0.06 0 0.1 0.06 0 0.12 0.06 0 0.14 0.06 0 0.16 0.06 0 0.18 0.06 0 0.2 0.06 0 0.22 0.06 0 0.24 0.06 0 0.26 0.06 0 0.28 0.06 0 0.3 0.06 0 0.32 0.06 0 0.34 0.06 0 0.36 0.06 0 0.38 0.06 0 0.4 0.06 0 0.42 0.06 0 0.44 0.06 0 0.46 0.06 0 0.48 0.06 0 0.5 0.06 0 0.52 0.06 0 0.54 0.06 0 0.56 0.06 0 0.58 0.06 0 0.6 0.06 0 0.62 0.06 0 0.64 0.06 0 0.66 0.06 0 0.68 0.06 0 0.7 0.06 0 0.72 0.06 0 0.74 0.06 0 0.76 0.06 0 0.78 0.06 0 0.8 0.06 0 0.82 0.06 0 0.84 0.06 0 0.86 0.06 0 0.88 0.06 0 0.9 0.06 0 0.92 0.06 0 0.94 0.06 0 0.96 0.06 0 0.98 0.06 0 1 0.06 0 0 0.08 0 0.02 0.08 0 0.04 0.08 0 0.06 0.08 0 0.08 0.08 0 0.1 0.08 0 0.12 0.08 0 0.14 0.08 0 0.16 0.08 0 0.18 0.08 0 0.2 0.08 0 0.22 0.08 0 0.24 0.08 0 0.26 0.08 0 0.28 0.08 0 0.3 0.08 0 0.32 0.08 0 0.34 0.08 0 0.36 0.08 0 0.38 0.08 0 0.4 0.08 0 0.42 0.08 0 0.44 0.08 0 0.46 0.08 0 0.48 0.08 0 0.5 0.08 0 0.52 0.08 0 0.54 0.08 0 0.56 0.08 0 0.58 0.08 0 0.6 0.08 0 0.62 0.08 0 0.64 0.08 0 0.66 0.08 0 0.68 0.08 0 0.7 0.08 0 0.72 0.08 0 0.74 0.08 0 0.76 0.08 0 0.78 0.08 0 0.8 0.08 0 0.82 0.08 0 0.84 0.08 0 0.86 0.08 0 0.88 0.08 0 0.9 0.08 0 0.92 0.08 0 0.94 0.08 0 0.96 0.08 0 0.98 0.08 0 1 0.08 0 0 0.1 0 0.02 0.1 0 0.04 0.1 0 0.06 0.1 0 0.08 0.1 0 0.1 0.1 0 0.12 0.1 0 0.14 0.1 0 0.16 0.1 0 0.18 0.1 0 0.2 0.1 0 0.22 0.1 0 0.24 0.1 0 0.26 0.1 0 0.28 0.1 0 0.3 0.1 0 0.32 0.1 0 0.34 0.1 0 0.36 0.1 0 0.38 0.1 0 0.4 0.1 0 0.42 0.1 0 0.44 0.1 0 0.46 0.1 0 0.48 0.1 0 0.5 0.1 0 0.52 0.1 0 0.54 0.1 0 0.56 0.1 0 0.58 0.1 0 0.6 0.1 0 0.62 0.1 0 0.64 0.1 0 0.66 0.1 0 0.68 0.1 0 0.7 0.1 0 0.72 0.1 0 0.74 0.1 0 0.76 0.1 0 0.78 0.1 0 0.8 0.1 0 0.82 0.1 0 0.84 0.1 0 0.86 0.1 0 0.88 0.1 0 0.9 0.1 0 0.92 0.1 0 0.94 0.1 0 0.96 0.1 0 0.98 0.1 0 1 0.1 0 0 0.12 0 0.02 0.12 0 0.04 0.12 0 0.06 0.12 0 0.08 0.12 0 0.1 0.12 0 0.12 0.12 0 0.14 0.12 0 0.16 0.12 0 0.18 0.12 0 0.2 0.12 0 0.22 0.12 0 0.24 0.12 0 0.26 0.12 0 0.28 0.12 0 0.3 0.12 0 0.32 0.12 0 0.34 0.12 0 0.36 0.12 0 0.38 0.12 0 0.4 0.12 0 0.42 0.12 0 0.44 0.12 0 0.46 0.12 0 0.48 0.12 0 0.5 0.12 0 0.52 0.12 0 0.54 0.12 0 0.56 0.12 0 0.58 0.12 0 0.6 0.12 0 0.62 0.12 0 0.64 0.12 0 0.66 0.12 0 0.68 0.12 0 0.7 0.12 0 0.72 0.12 0 0.74 0.12 0 0.76 0.12 0 0.78 0.12 0 0.8 0.12 0 0.82 0.12 0 0.84 0.12 0 0.86 0.12 0 0.88 0.12 0 0.9 0.12 0 0.92 0.12 0 0.94 0.12 0 0.96 0.12 0 0.98 0.12 0 1 0.12 0 0 0.14 0 0.02 0.14 0 0.04 0.14 0 0.06 0.14 0 0.08 0.14 0 0.1 0.14 0 0.12 0.14 0 0.14 0.14 0 0.16 0.14 0 0.18 0.14 0 0.2 0.14 0 0.22 0.14 0 0.24 0.14 0 0.26 0.14 0 0.28 0.14 0 0.3 0.14 0 0.32 0.14 0 0.34 0.14 0 0.36 0.14 0 0.38 0.14 0 0.4 0.14 0 0.42 0.14 0 0.44 0.14 0 0.46 0.14 0 0.48 0.14 0 0.5 0.14 0 0.52 0.14 0 0.54 0.14 0 0.56 0.14 0 0.58 0.14 0 0.6 0.14 0 0.62 0.14 0 0.64 0.14 0 0.66 0.14 0 0.68 0.14 0 0.7 0.14 0 0.72 0.14 0 0.74 0.14 0 0.76 0.14 0 0.78 0.14 0 0.8 0.14 0 0.82 0.14 0 0.84 0.14 0 0.86 0.14 0 0.88 0.14 0 0.9 0.14 0 0.92 0.14 0 0.94 0.14 0 0.96 0.14 0 0.98 0.14 0 1 0.14 0 0 0.16 0 0.02 0.16 0 0.04 0.16 0 0.06 0.16 0 0.08 0.16 0 0.1 0.16 0 0.12 0.16 0 0.14 0.16 0 0.16 0.16 0 0.18 0.16 0 0.2 0.16 0 0.22 0.16 0 0.24 0.16 0 0.26 0.16 0 0.28 0.16 0 0.3 0.16 0 0.32 0.16 0 0.34 0.16 0 0.36 0.16 0 0.38 0.16 0 0.4 0.16 0 0.42 0.16 0 0.44 0.16 0 0.46 0.16 0 0.48 0.16 0 0.5 0.16 0 0.52 0.16 0 0.54 0.16 0 0.56 0.16 0 0.58 0.16 0 0.6 0.16 0 0.62 0.16 0 0.64 0.16 0 0.66 0.16 0 0.68 0.16 0 0.7 0.16 0 0.72 0.16 0 0.74 0.16 0 0.76 0.16 0 0.78 0.16 0 0.8 0.16 0 0.82 0.16 0 0.84 0.16 0 0.86 0.16 0 0.88 0.16 0 0.9 0.16 0 0.92 0.16 0 0.94 0.16 0 0.96 0.16 0 0.98 0.16 0 1 0.16 0 0 0.18 0 0.02 0.18 0 0.04 0.18 0 0.06 0.18 0 0.08 0.18 0 0.1 0.18 0 0.12 0.18 0 0.14 0.18 0 0.16 0.18 0 0.18 0.18 0 0.2 0.18 0 0.22 0.18 0 0.24 0.18 0 0.26 0.18 0 0.28 0.18 0 0.3 0.18 0 0.32 0.18 0 0.34 0.18 0 0.36 0.18 0 0.38 0.18 0 0.4 0.18 0 0.42 0.18 0 0.44 0.18 0 0.46 0.18 0 0.48 0.18 0 0.5 0.18 0 0.52 0.18 0 0.54 0.18 0 0.56 0.18 0 0.58 0.18 0 0.6 0.18 0 0.62 0.18 0 0.64 0.18 0 0.66 0.18 0 0.68 0.18 0 0.7 0.18 0 0.72 0.18 0 0.74 0.18 0 0.76 0.18 0 0.78 0.18 0 0.8 0.18 0 0.82 0.18 0 0.84 0.18 0 0.86 0.18 0 0.88 0.18 0 0.9 0.18 0 0.92 0.18 0 0.94 0.18 0 0.96 0.18 0 0.98 0.18 0 1 0.18 0 0 0.2 0 0.02 0.2 0 0.04 0.2 0 0.06 0.2 0 0.08 0.2 0 0.1 0.2 0 0.12 0.2 0 0.14 0.2 0 0.16 0.2 0 0.18 0.2 0 0.2 0.2 0 0.22 0.2 0 0.24 0.2 0 0.26 0.2 0 0.28 0.2 0 0.3 0.2 0 0.32 0.2 0 0.34 0.2 0 0.36 0.2 0 0.38 0.2 0 0.4 0.2 0 0.42 0.2 0 0.44 0.2 0 0.46 0.2 0 0.48 0.2 0 0.5 0.2 0 0.52 0.2 0 0.54 0.2 0 0.56 0.2 0 0.58 0.2 0 0.6 0.2 0 0.62 0.2 0 0.64 0.2 0 0.66 0.2 0 0.68 0.2 0 0.7 0.2 0 0.72 0.2 0 0.74 0.2 0 0.76 0.2 0 0.78 0.2 0 0.8 0.2 0 0.82 0.2 0 0.84 0.2 0 0.86 0.2 0 0.88 0.2 0 0.9 0.2 0 0.92 0.2 0 0.94 0.2 0 0.96 0.2 0 0.98 0.2 0 1 0.2 0 0 0.22 0 0.02 0.22 0 0.04 0.22 0 0.06 0.22 0 0.08 0.22 0 0.1 0.22 0 0.12 0.22 0 0.14 0.22 0 0.16 0.22 0 0.18 0.22 0 0.2 0.22 0 0.22 0.22 0 0.24 0.22 0 0.26 0.22 0 0.28 0.22 0 0.3 0.22 0 0.32 0.22 0 0.34 0.22 0 0.36 0.22 0 0.38 0.22 0 0.4 0.22 0 0.42 0.22 0 0.44 0.22 0 0.46 0.22 0 0.48 0.22 0 0.5 0.22 0 0.52 0.22 0 0.54 0.22 0 0.56 0.22 0 0.58 0.22 0 0.6 0.22 0 0.62 0.22 0 0.64 0.22 0 0.66 0.22 0 0.68 0.22 0 0.7 0.22 0 0.72 0.22 0 0.74 0.22 0 0.76 0.22 0 0.78 0.22 0 0.8 0.22 0 0.82 0.22 0 0.84 0.22 0 0.86 0.22 0 0.88 0.22 0 0.9 0.22 0 0.92 0.22 0 0.94 0.22 0 0.96 0.22 0 0.98 0.22 0 1 0.22 0 0 0.24 0 0.02 0.24 0 0.04 0.24 0 0.06 0.24 0 0.08 0.24 0 0.1 0.24 0 0.12 0.24 0 0.14 0.24 0 0.16 0.24 0 0.18 0.24 0 0.2 0.24 0 0.22 0.24 0 0.24 0.24 0 0.26 0.24 0 0.28 0.24 0 0.3 0.24 0 0.32 0.24 0 0.34 0.24 0 0.36 0.24 0 0.38 0.24 0 0.4 0.24 0 0.42 0.24 0 0.44 0.24 0 0.46 0.24 0 0.48 0.24 0 0.5 0.24 0 0.52 0.24 0 0.54 0.24 0 0.56 0.24 0 0.58 0.24 0 0.6 0.24 0 0.62 0.24 0 0.64 0.24 0 0.66 0.24 0 0.68 0.24 0 0.7 0.24 0 0.72 0.24 0 0.74 0.24 0 0.76 0.24 0 0.78 0.24 0 0.8 0.24 0 0.82 0.24 0 0.84 0.24 0 0.86 0.24 0 0.88 0.24 0 0.9 0.24 0 0.92 0.24 0 0.94 0.24 0 0.96 0.24 0 0.98 0.24 0 1 0.24 0 0 0.26 0 0.02 0.26 0 0.04 0.26 0 0.06 0.26 0 0.08 0.26 0 0.1 0.26 0 0.12 0.26 0 0.14 0.26 0 0.16 0.26 0 0.18 0.26 0 0.2 0.26 0 0.22 0.26 0 0.24 0.26 0 0.26 0.26 0 0.28 0.26 0 0.3 0.26 0 0.32 0.26 0 0.34 0.26 0 0.36 0.26 0 0.38 0.26 0 0.4 0.26 0 0.42 0.26 0 0.44 0.26 0 0.46 0.26 0 0.48 0.26 0 0.5 0.26 0 0.52 0.26 0 0.54 0.26 0 0.56 0.26 0 0.58 0.26 0 0.6 0.26 0 0.62 0.26 0 0.64 0.26 0 0.66 0.26 0 0.68 0.26 0 0.7 0.26 0 0.72 0.26 0 0.74 0.26 0 0.76 0.26 0 0.78 0.26 0 0.8 0.26 0 0.82 0.26 0 0.84 0.26 0 0.86 0.26 0 0.88 0.26 0 0.9 0.26 0 0.92 0.26 0 0.94 0.26 0 0.96 0.26 0 0.98 0.26 0 1 0.26 0 0 0.28 0 0.02 0.28 0 0.04 0.28 0 0.06 0.28 0 0.08 0.28 0 0.1 0.28 0 0.12 0.28 0 0.14 0.28 0 0.16 0.28 0 0.18 0.28 0 0.2 0.28 0 0.22 0.28 0 0.24 0.28 0 0.26 0.28 0 0.28 0.28 0 0.3 0.28 0 0.32 0.28 0 0.34 0.28 0 0.36 0.28 0 0.38 0.28 0 0.4 0.28 0 0.42 0.28 0 0.44 0.28 0 0.46 0.28 0 0.48 0.28 0 0.5 0.28 0 0.52 0.28 0 0.54 0.28 0 0.56 0.28 0 0.58 0.28 0 0.6 0.28 0 0.62 0.28 0 0.64 0.28 0 0.66 0.28 0 0.68 0.28 0 0.7 0.28 0 0.72 0.28 0 0.74 0.28 0 0.76 0.28 0 0.78 0.28 0 0.8 0.28 0 0.82 0.28 0 0.84 0.28 0 0.86 0.28 0 0.88 0.28 0 0.9 0.28 0 0.92 0.28 0 0.94 0.28 0 0.96 0.28 0 0.98 0.28 0 1 0.28 0 0 0.3 0 0.02 0.3 0 0.04 0.3 0 0.06 0.3 0 0.08 0.3 0 0.1 0.3 0 0.12 0.3 0 0.14 0.3 0 0.16 0.3 0 0.18 0.3 0 0.2 0.3 0 0.22 0.3 0 0.24 0.3 0 0.26 0.3 0 0.28 0.3 0 0.3 0.3 0 0.32 0.3 0 0.34 0.3 0 0.36 0.3 0 0.38 0.3 0 0.4 0.3 0 0.42 0.3 0 0.44 0.3 0 0.46 0.3 0 0.48 0.3 0 0.5 0.3 0 0.52 0.3 0 0.54 0.3 0 0.56 0.3 0 0.58 0.3 0 0.6 0.3 0 0.62 0.3 0 0.64 0.3 0 0.66 0.3 0 0.68 0.3 0 0.7 0.3 0 0.72 0.3 0 0.74 0.3 0 0.76 0.3 0 0.78 0.3 0 0.8 0.3 0 0.82 0.3 0 0.84 0.3 0 0.86 0.3 0 0.88 0.3 0 0.9 0.3 0 0.92 0.3 0 0.94 0.3 0 0.96 0.3 0 0.98 0.3 0 1 0.3 0 0 0.32 0 0.02 0.32 0 0.04 0.32 0 0.06 0.32 0 0.08 0.32 0 0.1 0.32 0 0.12 0.32 0 0.14 0.32 0 0.16 0.32 0 0.18 0.32 0 0.2 0.32 0 0.22 0.32 0 0.24 0.32 0 0.26 0.32 0 0.28 0.32 0 0.3 0.32 0 0.32 0.32 0 0.34 0.32 0 0.36 0.32 0 0.38 0.32 0 0.4 0.32 0 0.42 0.32 0 0.44 0.32 0 0.46 0.32 0 0.48 0.32 0 0.5 0.32 0 0.52 0.32 0 0.54 0.32 0 0.56 0.32 0 0.58 0.32 0 0.6 0.32 0 0.62 0.32 0 0.64 0.32 0 0.66 0.32 0 0.68 0.32 0 0.7 0.32 0 0.72 0.32 0 0.74 0.32 0 0.76 0.32 0 0.78 0.32 0 0.8 0.32 0 0.82 0.32 0 0.84 0.32 0 0.86 0.32 0 0.88 0.32 0 0.9 0.32 0 0.92 0.32 0 0.94 0.
[...]
			<PointData Scalars="VitesseX">
				<DataArray Name="VitesseX" type="Float32" format="ascii">
 0 0 0 0 0 0 0 0 0 0 0 0 0 0 0 0 0 0 0 0 0 0 0 0 0 0 0 0 0 0 0 0 0 0 0 0 0 0 0 0 0 0 0 0 0 0 0 0 0 0 -0 0 -0.000119126 -0.000474641 -0.00106094 -0.00186879 -0.00288546 -0.00409492 -0.00547809 -0.00701317 -0.00867593 -0.0104402 -0.012278 -0.0141605 -0.0160578 -0.0179402 -0.0197779 -0.021542 -0.0232045 -0.0247393 -0.0261222 -0.0273313 -0.0283476 -0.029155 -0.0297418 -0.030096 -0.0302147 -0.0300955 -0.0297382 -0.0291511 -0.0283426 -0.0273254 -0.0261156 -0.0247323 -0.0231973 -0.0215348 -0.019771 -0.0179337 -0.016052 -0.0141553 -0.0122735 -0.0104365 -0.00867299 -0.00701093 -0.00547648 -0.00409383 -0.00288478 -0.00186841 -0.00106076 -0.000474561 -0.000119115 -1.29255e-27 0 -0.000236393 -0.000941966 -0.00210571 -0.0037094 -0.00572784 -0.00812926 -0.0108758 -0.0139242 -0.0172262 -0.0207298 -0.0243796 -0.0281176 -0.0318849 -0.0356222 -0.0392703 -0.0427715 -0.0460705 -0.0491151 -0.0518573 -0.0542539 -0.0562671 -0.0578651 -0.0590263 -0.0597226 -0.0599527 -0.0597132 -0.0589983 -0.0578293 -0.0562215 -0.0542003 -0.0517977 -0.0490515 -0.0460051 -0.0427064 -0.0392075 -0.0355633 -0.0318315 -0.0280704 -0.0243391 -0.0206964 -0.0171997 -0.0139041 -0.0108614 -0.00811963 -0.00572194 -0.00370619 -0.00210425 -0.000941427 -0.00023632 -2.56477e-27 0 -0.000349941 -0.00139454 -0.0031176 -0.00549226 -0.0084813 -0.0120377 -0.0161055 -0.0206205 -0.0255114 -0.0307008 -0.0361066 -0.0416429 -0.0472222 -0.0527568 -0.0581586 -0.0633422 -0.0682256 -0.0727316 -0.076789 -0.0803337 -0.08331 -0.0856711 -0.0873872 -0.08841 -0.088745 -0.0883867 -0.0873205 -0.0855849 -0.0832003 -0.0802047 -0.0766453 -0.0725784 -0.0680681 -0.0631855 -0.0580073 -0.0526149 -0.0470935 -0.0415293 -0.0360091 -0.0306203 -0.0254476 -0.0205723 -0.016071 -0.0120146 -0.00846713 -0.00548457 -0.0031141 -0.00139327 -0.000349772 -3.79659e-27 0 -0.000457982 -0.00182523 -0.0040807 -0.00718937 -0.0111026 -0.015759 -0.0210853 -0.0269973 -0.0334016 -0.040197 -0.0472756 -0.0545247 -0.0618296 -0.0690756 -0.0761471 -0.082932 -0.0893229 -0.0952186 -0.100526 -0.105161 -0.109052 -0.112136 -0.114378 -0.115706 -0.116137 -0.115664 -0.114258 -0.11198 -0.108853 -0.104928 -0.100267 -0.0949421 -0.0890386 -0.0826491 -0.075874 -0.0688196 -0.0615974 -0.0543196 -0.0470997 -0.0400518 -0.0332866 -0.0269102 -0.0210229 -0.0157173 -0.0110771 -0.00717552 -0.00407442 -0.00182297 -0.000457681 -4.96858e-27 0 -0.000558812 -0.00222725 -0.00497981 -0.00877395 -0.0135505 -0.0192345 -0.0257365 -0.0329539 -0.0407725 -0.0490686 -0.0577105 -0.0665599 -0.0754769 -0.0843215 -0.0929522 -0.101232 -0.10903 -0.116222 -0.122694 -0.128345 -0.133086 -0.136841 -0.139572 -0.141181 -0.141698 -0.141113 -0.139386 -0.136598 -0.132776 -0.127981 -0.122289 -0.11579 -0.108586 -0.10079 -0.0925258 -0.0839218 -0.0751144 -0.0662397 -0.0574359 -0.0488421 -0.040593 -0.032818 -0.0256392 -0.0191694 -0.0135107 -0.00875238 -0.00497005 -0.00222376 -0.000558349 -6.06222e-27 0 -0.000650843 -0.00259425 -0.00580076 -0.010221 -0.0157862 -0.0224092 -0.0299858 -0.0383964 -0.0475079 -0.0571758 -0.0672466 -0.0775587 -0.0879489 -0.0982541 -0.108309 -0.117954 -0.127035 -0.135409 -0.142944 -0.14952 -0.155033 -0.159399 -0.162572 -0.164433 -0.165023 -0.164334 -0.162309 -0.159052 -0.154592 -0.149001 -0.142366 -0.134793 -0.126402 -0.117323 -0.1077 -0.0976836 -0.0874314 -0.0771017 -0.0668547 -0.0568526 -0.0472518 -0.0382026 -0.0298471 -0.0223165 -0.0157295 -0.0101903 -0.00578689 -0.00258933 -0.00065019 -7.06023e-27 0 -0.000732623 -0.00292046 -0.00653061 -0.0115078 -0.0177746 -0.0252332 -0.0337662 -0.043239 -0.0535015 -0.0643907 -0.0757337 -0.0873477 -0.099049 -0.110654 -0.121975 -0.132833 -0.143055 -0.152479 -0.160956 -0.168351 -0.174549 -0.179452 -0.183015 -0.185094 -0.185745 -0.184959 -0.182664 -0.178987 -0.173957 -0.167654 -0.16018 -0.151652 -0.142205 -0.131987 -0.121158 -0.109888 -0.0983542 -0.0867342 -0.0752077 -0.063957 -0.0531578 -0.042979 -0.0335802 -0.0251089 -0.0176986 -0.0114667 -0.00651208 -0.00291394 -0.00073176 -7.94686e-27 0 -0.000802863 -0.00320072 -0.00715783 -0.0126139 -0.0194843 -0.027662 -0.0370182 -0.0474053 -0.0586587 -0.0705996 -0.0830378 -0.0957725 -0.108602 -0.121325 -0.133736 -0.145637 -0.156838 -0.167163 -0.176446 -0.184542 -0.191324 -0.196685 -0.200579 -0.20284 -0.203538 -0.202664 -0.200132 -0.196088 -0.190564 -0.183649 -0.175451 -0.166102 -0.155747 -0.144551 -0.132688 -0.120343 -0.107711 -0.0949855 -0.0823633 -0.0700434 -0.0582181 -0.0470721 -0.0367797 -0.0275026 -0.019387 -0.0125613 -0.00713419 -0.00319247 -0.000801773 -8.70808e-27 0 -0.000860455 -0.00343062 -0.00767254 -0.0135219 -0.0208884 -0.0296571 -0.0396903 -0.0508296 -0.0628984 -0.0757045 -0.0890438 -0.1027 -0.116458 -0.130099 -0.143405 -0.156162 -0.168166 -0.179228 -0.189171 -0.197839 -0.205095 -0.210827 -0.214986 -0.21739 -0.218121 -0.21717 -0.214436 -0.210087 -0.204154 -0.196732 -0.187938 -0.177914 -0.166815 -0.154817 -0.142107 -0.128883 -0.115353 -0.101725 -0.0882085 -0.0750158 -0.0623529 -0.0504171 -0.0393952 -0.02946 -0.0207681 -0.013457 -0.00764343 -0.00342054 -0.000859128 -9.33188e-27 0 -0.000904492 -0.00360652 -0.00806662 -0.0142175 -0.0219646 -0.0311872 -0.0417406 -0.053458 -0.0661535 -0.0796249 -0.093657 -0.108022 -0.122492 -0.136839 -0.15083 -0.164242 -0.176861 -0.188485 -0.198929 -0.20803 -0.215645 -0.221654 -0.22601 -0.228516 -0.229264 -0.228246 -0.225352 -0.220763 -0.214511 -0.206697 -0.197445 -0.186902 -0.175234 -0.162623 -0.149267 -0.135374 -0.121162 -0.106848 -0.0926513 -0.0787959 -0.0654969 -0.0529616 -0.0413855 -0.0309502 -0.0218201 -0.0141397 -0.00803178 -0.00359458 -0.000902924 -9.80838e-27 0 -0.000934281 -0.00372566 -0.00833385 -0.0146898 -0.022696 -0.0322281 -0.0431365 -0.0552489 -0.0683729 -0.0822991 -0.0968046 -0.111654 -0.12661 -0.141438 -0.155896 -0.169752 -0.182785 -0.194787 -0.205568 -0.214957 -0.222807 -0.228996 -0.233477 -0.236041 -0.236792 -0.235731 -0.232731 -0.227982 -0.221517 -0.213439 -0.203878 -0.192985 -0.180931 -0.167907 -0.154114 -0.139768 -0.125094 -0.110316 -0.0956589 -0.0813547 -0.0676251 -0.0546837 -0.0427325 -0.0319586 -0.0225317 -0.0146014 -0.00829438 -0.00371223 -0.00093252 -1.01301e-26 0 -0.000949406 -0.0037866 -0.00847147 -0.0149346 -0.0230774 -0.0327737 -0.0438716 -0.0561956 -0.0695498 -0.0837206 -0.0984806 -0.113589 -0.128805 -0.143886 -0.158588 -0.172673 -0.185917 -0.198106 -0.209047 -0.218568 -0.226519 -0.232777 -0.237295 -0.239863 -0.240586 -0.239459 -0.236361 -0.231493 -0.224886 -0.216648 -0.206911 -0.195828 -0.183576 -0.170345 -0.15634 -0.14178 -0.126892 -0.111901 -0.0970357 -0.0825297 -0.0686069 -0.055483 -0.0433622 -0.032434 -0.0228705 -0.0148235 -0.00842209 -0.00377012 -0.000947257 -1.02918e-26 0 -0.000949408 -0.00378661 -0.00847154 -0.0149348 -0.0230778 -0.0327745 -0.0438729 -0.0561977 -0.0695527 -0.0837244 -0.0984854 -0.113595 -0.128811 -0.143893 -0.158595 -0.172681 -0.185923 -0.198112 -0.209053 -0.218572 -0.226522 -0.232779 -0.237296 -0.239863 -0.240586 -0.239458 -0.23636 -0.23149 -0.224882 -0.216642 -0.206902 -0.195819 -0.183565 -0.170333 -0.156329 -0.141769 -0.126881 -0.111892 -0.0970283 -0.0825238 -0.0686024 -0.0554798 -0.0433601 -0.0324327 -0.0228698 -0.0148232 -0.00842198 -0.00377009 -0.000947255 -1.02911e-26 0 -0.000934687 -0.00372887 -0.00834447 -0.0147143 -0.022742 -0.0323041 -0.0432508 -0.0554091 -0.0685851 -0.0825674 -0.0971305 -0.112036 -0.127043 -0.141914 -0.156404 -0.170279 -0.183315 -0.195303 -0.206053 -0.215393 -0.223178 -0.229288 -0.233678 -0.236144 -0.236792 -0.235635 -0.232543 -0.22771 -0.22117 -0.213031 -0.203424 -0.192501 -0.180435 -0.167413 -0.153638 -0.139322 -0.124688 -0.109958 -0.0953535 -0.0811032 -0.0674262 -0.0545337 -0.0426254 -0.0318875 -0.0224887 -0.0145785 -0.00828445 -0.00370923 -0.000932141 -1.0128e-26 0 -0.000905054 -0.00361096 -0.00808131 -0.0142514 -0.0220284 -0.0312926 -0.0418993 -0.0536807 -0.0664487 -0.0799983 -0.0941105 -0.108554 -0.123095 -0.137502 -0.151538 -0.164975 -0.177597 -0.189201 -0.199602 -0.208635 -0.216159 -0.222058 -0.226289 -0.228658 -0.229264 -0.228107 -0.225079 -0.220367 -0.214007 -0.206104 -0.196784 -0.186198 -0.17451 -0.161903 -0.148572 -0.134723 -0.12057 -0.106326 -0.0922056 -0.078429 -0.0652069 -0.0527428 -0.0412296 -0.0308467 -0.0217574 -0.0141064 -0.00801736 -0.00359023 -0.000902374 -9.805e-27 0 -0.000861226 -0.00343671 -0.0076927 -0.0135684 -0.0209759 -0.0298018 -0.0399082 -0.0511352 -0.0633034 -0.0762168 -0.089666 -0.10343 -0.117285 -0.131009 -0.144375 -0.157167 -0.169177 -0.180211 -0.190094 -0.198668 -0.2058 -0.211381 -0.215368 -0.217585 -0.218121 -0.216977 -0.214058 -0.209539 -0.203457 -0.195911 -0.187025 -0.17694 -0.165814 -0.153821 -0.141146 -0.127982 -0.114535 -0.101003 -0.0875922 -0.0745085 -0.0619518 -0.0501146 -0.0391796 -0.0293169 -0.0206815 -0.013411 -0.00762349 -0.00341452 -0.000858367 -9.32725e-27 0 -0.00080383 -0.00320837 -0.00718313 -0.0126722 -0.0195942 -0.0278435 -0.0372916 -0.0477888 -0.0591671 -0.0712426 -0.0838188 -0.0966877 -0.10964 -0.122466 -0.134954 -0.146899 -0.158107 -0.168397 -0.177604 -0.185583 -0.192209 -0.197381 -0.201058 -0.203084 -0.203538 -0.202421 -0.199655 -0.195397 -0.189684 -0.182614 -0.174299 -0.164873 -0.154485 -0.143295 -0.131476 -0.119207 -0.106678 -0.0940747 -0.081586 -0.0694035 -0.0577122 -0.0466905 -0.0365077 -0.027322 -0.0192777 -0.0125033 -0.00710904 -0.00318487 -0.000800811 -8.7023e-27 0 -0.000733771 -0.00292954 -0.00656064 -0.011577 -0.0179051 -0.0254488 -0.0340908 -0.0436943 -0.0541051 -0.0651542 -0.076661 -0.0884343 -0.100281 -0.112009 -0.123421 -0.134332 -0.144562 -0.153945 -0.162331 -0.169586 -0.175599 -0.180277 -0.183584 -0.185384 -0.185745 -0.18467 -0.182096 -0.178163 -0.172908 -0.166421 -0.158807 -0.150189 -0.140701 -0.130491 -0.119714 -0.108535 -0.0971237 -0.0856491 -0.0742817 -0.0631947 -0.0525551 -0.0425244 -0.0332561 -0.0248937 -0.0175684 -0.0113975 -0.0064821 -0.00290488 -0.000730614 -7.94004e-27 0 -0.000652154 -0.00260462 -0.00583506 -0.0103001 -0.0159352 -0.0226554 -0.0303565 -0.0389164 -0.0481972 -0.0580477 -0.0683057 -0.0787996 -0.089356 -0.0998014 -0.10996 -0.119665 -0.128755 -0.137083 -0.144514 -0.15093 -0.156232 -0.160341 -0.163221 -0.164764 -0.165023 -0.164002 -0.161658 -0.158108 -0.153392 -0.147588 -0.140794 -0.133118 -0.124679 -0.11561 -0.106047 -0.0961346 -0.0860226 -0.0758593 -0.0657945 -0.0559797 -0.0465617 -0.0376821 -0.029476 -0.02207 -0.0155804 -0.0101112 -0.00575256 -0.00257896 -0.000648878 -7.05251e-27 0 -0.000560266 -0.00223874 -0.00501783 -0.0088616 -0.0137156 -0.0195073 -0.0261474 -0.0335303 -0.0415367 -0.0500352 -0.0588845 -0.0679355 -0.0770368 -0.0860368 -0.094783 -0.103129 -0.110936 -0.118077 -0.124434 -0.129909 -0.134415 -0.137886 -0.140292 -0.141548 -0.141698 -0.140745 -0.138664 -0.13555 -0.131443 -0.126413 -0.120543 -0.113929 -0.106673 -0.0988872 -0.0906893 -0.0822012 -0.0735496 -0.0648597 -0.0562582 -0.0478726 -0.0398265 -0.0322398 -0.025227 -0.0188957 -0.013345 -0.00866447 -0.00493191 -0.00221223 -0.000556891 -6.05374e-27 0 -0.000459555 -0.00183766 -0.00412185 -0.00728422 -0.0112813 -0.0160544 -0.02153 -0.0276211 -0.0342287 -0.041243 -0.0485462 -0.0560135 -0.0635178 -0.070932 -0.0781285 -0.0849852 -0.0913866 -0.0972264 -0.102409 -0.106853 -0.11049 -0.113266 -0.115157 -0.116104 -0.116137 -0.115264 -0.113475 -0.110844 -0.107408 -0.103228 -0.0983741 -0.0929247 -0.0869652 -0.0805863 -0.0738834 -0.0669546 -0.0599013 -0.0528239 -0.0458233 -0.0390009 -0.0324557 -0.0262835 -0.0205761 -0.0154206 -0.0108976 -0.00708022 -0.00403307 -0.00181047 -0.0004561 -4.95951e-27 0 -0.000351609 -0.00140772 -0.00316123 -0.00559284 -0.00867077 -0.0123509 -0.0165771 -0.021282 -0.0263883 -0.0318099 -0.0374539 -0.0432215 -0.0490123 -0.0547251 -0.0602596 -0.0655193 -0.0704138 -0.0748605 -0.078786 -0.0821278 -0.0848352 -0.0868697 -0.0882133 -0.0888313 -0.088745 -0.0879627 -0.0864893 -0.0843788 -0.0816658 -0.0783996 -0.0746362 -0.0704369 -0.0658671 -0.0609958 -0.0558942 -0.0506352 -0.0452931 -0.0399416 -0.0346542 -0.0295048 -0.0245656 -0.0199069 -0.0155967 -0.0116996 -0.00827654 -0.00538339 -0.00307021 -0.00138 -0.000348093 -3.7871e-27 0 -0.000238129 -0.000955697 -0.00215114 -0.00381413 -0.00592513 -0.00845533 -0.0113668 -0.014613 -0.0181394 -0.0218848 -0.0257824 -0.0297614 -0.033749 -0.0376719 -0.0414581 -0.0450385 -0.048349 -0.0513319 -0.0539368 -0.0561221 -0.0578552 -0.0591132 -0.0598865 -0.0601612 -0.0599527 -0.0592714 -0.0581321 -0.0565725 -0.0546224 -0.0523193 -0.0497041 -0.0468198 -0.0437114 -0.0404246 -0.0370055 -0.0335004 -0.0299554 -0.0264159 -0.0229271 -0.0195339 -0.0162806 -0.0132108 -0.0103672 -0.00779138 -0.00552332 -0.00360075 -0.0020585 -0.000927602 -0.000234571 -2.55502e-27 0 -0.000120907 -0.000488716 -0.00110751 -0.00197614 -0.00308769 -0.00442917 -0.0059814 -0.00771923 -0.00961199 -0.0116241 -0.0137161 -0.0158455 -0.0179686 -0.0200413 -0.0220205 -0.0238658 -0.0255402 -0.0270117 -0.0282538 -0.0292463 -0.0299755 -0.0304344 -0.0306235 -0.0305457 -0.0302147 -0.0296428 -0.0288508 -0.0278635 -0.0267043 -0.0253984 -0.0239708 -0.0224461 -0.0208476 -0.0191972 -0.0175152 -0.0158203 -0.0141299 -0.0124603 -0.010827 -0.00924555 -0.00773139 -0.00630064 -0.00497013 -0.00375753 -0.00268129 -0.00176039 -0.00101389 -0.000460395 -0.000117323 -1.28272e-27 0 -1.78916e-06 -1.41455e-05 -4.68053e-05 -0.000107898 -0.000203274 -0.000335982 -0.000505933 -0.000709776 -0.000940995 -0.00119021 -0.0014457 -0.00169405 -0.001921 -0.00211227 -0.00225452 -0.00233612 -0.00234802 -0.00228433 -0.00214276 -0.0019249 -0.00163622 -0.00128583 -0.000886085 -0.000451866 -9.91227e-09 0.000451856 0.000886068 0.0012858 0.0016362 0.00192489 0.00214274 0.00228431 0.00234801 0.00233611 0.0022545 0.00211226 0.001921 0.00169404 0.0014457 0.00119021 0.000940992 0.000709774 0.000505932 0.000335982 0.000203275 0.000107898 4.68053e-05 1.41455e-05 1.78916e-06 9.74359e-30 0 0.000117323 0.000460395 0.00101389 0.00176039 0.00268129 0.00375753 0.00497013 0.00630064 0.00773138 0.00924555 0.010827 0.0124603 0.0141299 0.0158203 0.0175151 0.0191971 0.0208475 0.0224461 0.0239708 0.0253984 0.0267043 0.0278635 0.0288508 0.0296428 0.0302147 0.0305456 0.0306234 0.0304343 0.0299754 0.0292463 0.0282538 0.0270117 0.0255402 0.0238658 0.0220205 0.0200413 0.0179686 0.0158455 0.0137161 0.0116241 0.00961198 0.00771923 0.00598139 0.00442917 0.0030877 0.00197614 0.00110751 0.000488716 0.000120907 1.30197e-27 0 0.000234571 0.000927602 0.0020585 0.00360075 0.00552332 0.00779138 0.0103672 0.0132108 0.0162806 0.0195339 0.0229271 0.0264159 0.0299554 0.0335004 0.0370055 0.0404246 0.0437114 0.0468198 0.0497041 0.0523193 0.0546224 0.0565725 0.0581321 0.0592713 0.0599527 0.0601612 0.0598865 0.0591132 0.0578552 0.0561221 0.0539368 0.0513319 0.048349 0.0450385 0.041458 0.0376719 0.0337489 0.0297614 0.0257824 0.0218848 0.0181394 0.014613 0.0113668 0.00845533 0.00592513 0.00381413 0.00215114 0.000955697 0.000238129 2.5736e-27 0 0.000348093 0.00138 0.00307021 0.00538339 0.00827654 0.0116996 0.0155967 0.0199069 0.0245656 0.0295048 0.0346542 0.0399416 0.0452931 0.0506352 0.0558942 0.0609958 0.0658671 0.0704368 0.0746362 0.0783996 0.0816658 0.0843788 0.0864892 0.0879627 0.088745 0.0888313 0.0882133 0.0868697 0.0848352 0.0821278 0.078786 0.0748605 0.0704138 0.0655193 0.0602596 0.0547251 0.0490123 0.0432215 0.0374539 0.0318099 0.0263883 0.021282 0.0165771 0.0123509 0.00867077 0.00559284 0.00316123 0.00140772 0.000351609 3.80459e-27 0 0.0004561 0.00181047 0.00403307 0.00708022 0.0108976 0.0154206 0.0205761 0.0262835 0.0324557 0.0390009 0.0458233 0.0528239 0.0599013 0.0669546 0.0738834 0.0805863 0.0869651 0.0929247 0.098374 0.103228 0.107408 0.110844 0.113475 0.115264 0.116137 0.116104 0.115157 0.113266 0.11049 0.106853 0.102409 0.0972264 0.0913866 0.0849852 0.0781285 0.070932 0.0635178 0.0560135 0.0485462 0.041243 0.0342287 0.0276211 0.02153 0.0160544 0.0112813 0.00728422 0.00412185 0.00183766 0.000459555 4.97554e-27 0 0.000556891 0.00221223 0.00493191 0.00866447 0.013345 0.0188957 0.025227 0.0322398 0.0398265 0.0478725 0.0562582 0.0648597 0.0735496 0.0822012 0.0906893 0.0988872 0.106673 0.113929 0.120543 0.126413 0.131443 0.13555 0.138664 0.140745 0.141698 0.141548 0.140292 0.137886 0.134415 0.129909 0.124434 0.118077 0.110937 0.103129 0.094783 0.0860368 0.0770368 0.0679355 0.0588845 0.0500352 0.0415367 0.0335303 0.0261474 0.0195073 0.0137156 0.0088616 0.00501783 0.00223874 0.000560266 6.06801e-27 0 0.000648878 0.00257896 0.00575256 0.0101112 0.0155804 0.02207 0.029476 0.0376821 0.0465617 0.0559797 0.0657945 0.0758593 0.0860226 0.0961346 0.106047 0.11561 0.124679 0.133118 0.140794 0.147588 0.153392 0.158108 0.161658 0.164002 0.165023 0.164764 0.163221 0.160341 0.156232 0.15093 0.144514 0.137083 0.128755 0.119665 0.10996 0.0998014 0.089356 0.0787996 0.0683057 0.0580477 0.0481972 0.0389164 0.0303565 0.0226554 0.0159352 0.0103001 0.00583506 0.00260462 0.000652154 7.06481e-27 0 0.000730614 0.00290488 0.0064821 0.0113975 0.0175684 0.0248937 0.0332561 0.0425244 0.0525551 0.0631947 0.0742817 0.0856491 0.0971237 0.108535 0.119714 0.130491 0.140701 0.150189 0.158807 0.166421 0.172908 0.178163 0.182096 0.18467 0.185745 0.185384 0.183584 0.180277 0.175599 0.169586 0.162331 0.153945 0.144562 0.134332 0.123421 0.112009 0.100281 0.0884343 0.076661 0.0651542 0.0541051 0.0436943 0.0340908 0.0254488 0.0179051 0.011577 0.00656064 0.00292954 0.000733771 7.95023e-27 0 0.000800811 0.00318487 0.00710904 0.0125033 0.0192778 0.027322 0.0365077 0.0466905 0.0577122 0.0694035 0.081586 0.0940747 0.106678 0.119207 0.131476 0.143295 0.154485 0.164873 0.174299 0.182614 0.189684 0.195397 0.199655 0.202421 0.203538 0.203084 0.201058 0.197381 0.192209 0.185583 0.177604 0.168397 0.158107 0.146899 0.134954 0.122466 0.10964 0.0966877 0.0838188 0.0712426 0.0591671 0.0477888 0.0372916 0.0278435 0.0195942 0.0126722 0.00718313 0.00320837 0.00080383 8.71035e-27 0 0.000858367 0.00341452 0.00762349 0.013411 0.0206815 0.0293169 0.0391796 0.0501146 0.0619518 0.0745085 0.0875922 0.101003 0.114535 0.127982 0.141146 0.153821 0.165814 0.17694 0.187025 0.195911 0.203457 0.209539 0.214058 0.216977 0.218121 0.217585 0.215368 0.211381 0.2058 0.198668 0.190094 0.180211 0.169177 0.157167 0.144375 0.131009 0.117285 0.10343 0.089666 0.0762168 0.0633034 0.0511352 0.0399082 0.0298018 0.0209759 0.0135684 0.0076927 0.00343671 0.000861226 9.3332e-27 0 0.000902374 0.00359023 0.00801736 0.0141064 0.0217574 0.0308467 0.0412296 0.0527428 0.0652069 0.078429 0.0922056 0.106326 0.12057 0.134723 0.148572 0.161903 0.17451 0.186198 0.196784 0.206104 0.214007 0.220367 0.225079 0.228107 0.229264 0.228658 0.226289 0.222058 0.216159 0.208635 0.199602 0.189201 0.177597 0.164975 0.151538 0.137502 0.123095 0.108554 0.0941105 0.0799983 0.0664487 0.0536807 0.0418993 0.0312926 0.0220284 0.0142514 0.00808131 0.00361096 0.000905054 9.80898e-27 0 0.000932141 0.00370923 0.00828445 0.0145785 0.0224887 0.0318875 0.0426254 0.0545337 0.0674262 0.0811032 0.0953535 0.109958 0.124688 0.139322 0.153638 0.167413 0.180435 0.192501 0.203424 0.213031 0.22117 0.22771 0.232543 0.235635 0.236792 0.236144 0.233678 0.229288 0.223178 0.215393 0.206053 0.195303 0.183315 0.170279 0.156404 0.141914 0.127043 0.112036 0.0971305 0.0825674 0.0685851 0.0554091 0.0432508 0.0323041 0.022742 0.0147143 0.00834447 0.00372887 0.000934687 1.01302e-26 0 0.000947255 0.00377009 0.00842198 0.0148232 0.0228698 0.0324327 0.0433601 0.0554798 0.0686024 0.0825238 0.0970283 0.111892 0.126881 0.141769 0.156329 0.170333 0.183565 0.195819 0.206902 0.216642 0.224882 0.23149 0.23636 0.239458 0.240586 0.239863 0.237296 0.232779 0.226522 0.218572 0.209053 0.198112 0.185923 0.172681 0.158595 0.143893 0.128811 0.113595 0.0984853 0.0837244 0.0695527 0.0561977 0.0438729 0.0327745 0.0230778 0.0149348 0.00847154 0.00378661 0.000949408 1.02918e-26 0 0.000947257 0.00377012 0.00842209 0.0148235 0.0228705 0.032434 0.0433622 0.055483 0.0686069 0.0825297 0.0970357 0.111901 0.126892 0.14178 0.15634 0.170345 0.183576 0.195828 0.206911 0.216648 0.224886 0.231493 0.236361 0.239459 0.240586 0.239863 0.237295 0.232777 0.226519 0.218568 0.2090