<?xml version="1.0"?>
<VTKFile type="PolyData">
	<PolyData>
		<Piece NumberOfPoints="2601" NumberOfPolys="2500">
			<Points>
				<DataArray type="Float32" NumberOfComponents="3" format="ascii">
 0 0 0 0.02 0 0 0.04 0 0 0.06 0 0 0.08 0 0 0.1 0 0 0.12 0 0 0.14 0 0 0.16 0 0 0.18 0 0 0.2 0 0 0.22 0 0 0.24 0 0 0.26 0 0 0.28 0 0 0.3 0 0 0.32 0 0 0.34 0 0 0.36 0 0 0.38 0 0 0.4 0 0 0.42 0 0 0.44 0 0 0.46 0 0 0.48 0 0 0.5 0 0 0.52 0 0 0.54 0 0 0.56 0 0 0.58 0 0 0.6 0 0 0.62 0 0 0.64 0 0 0.66 0 0 0.68 0 0 0.7 0 0 0.72 0 0 0.74 0 0 0.76 0 0 0.78 0 0 0.8 0 0 0.82 0 0 0.84 0 0 0.86 0 0 0.88 0 0 0.9 0 0 0.92 0 0 0.94 0 0 0.96 0 0 0.98 0 0 1 0 0 0 0.02 0 0.02 0.02 0 0.04 0.02 0 0.06 0.02 0 0.08 0.02 0 0.1 0.02 0 0.12 0.02 0 0.14 0.02 0 0.16 0.02 0 0.18 0.02 0 0.2 0.02 0 0.22 0.02 0 0.24 0.02 0 0.26 0.02 0 0.28 0.02 0 0.3 0.02 0 0.32 0.02 0 0.34 0.02 0 0.36 0.02 0 0.38 0.02 0 0.4 0.02 0 0.42 0.02 0 0.44 0.02 0 0.46 0.02 0 0.48 0.02 0 0.5 0.02 0 0.52 0.02 0 0.54 0.02 0 0.56 0.02 0 0.58 0.02 0 0.6 0.02 0 0.62 0.02 0 0.64 0.02 0 0.66 0.02 0 0.68 0.02 0 0.7 0.02 0 0.72 0.02 0 0.74 0.02 0 0.76 0.02 0 0.78 0.02 0 0.8 0.02 0 0.82 0.02 0 0.84 0.02 0 0.86 0.02 0 0.88 0.02 0 0.9 0.02 0 0.92 0.02 0 0.94 0.02 0 0.96 0.02 0 0.98 0.02 0 1 0.02 0 0 0.04 0 0.02 0.04 0 0.04 0.04 0 0.06 0.04 0 0.08 0.04 0 0.1 0.04 0 0.12 0.04 0 0.14 0.04 0 0.16 0.04 0 0.18 0.04 0 0.2 0.04 0 0.22 0.04 0 0.24 0.04 0 0.26 0.04 0 0.28 0.04 0 0.3 0.04 0 0.32 0.04 0 0.34 0.04 0 0.36 0.04 0 0.38 0.04 0 0.4 0.04 0 0.42 0.04 0 0.44 0.04 0 0.46 0.04 0 0.48 0.04 0 0.5 0.04 0 0.52 0.04 0 0.54 0.04 0 0.56 0.04 0 0.58 0.04 0 0.6 0.04 0 0.62 0.04 0 0.64 0.04 0 0.66 0.04 0 0.68 0.04 0 0.7 0.04 0 0.72 0.04 0 0.74 0.04 0 0.76 0.04 0 0.78 0.04 0 0.8 0.04 0 0.82 0.04 0 0.84 0.04 0 0.86 0.04 0 0.88 0.04 0 0.9 0.04 0 0.92 0.04 0 0.94 0.04 0 0.96 0.04 0 0.98 0.04 0 1 0.04 0 0 0.06 0 0.02 0.06 0 0.04 0.06 0 0.06 0.06 0 0.08 0.06 0 0.1 0.06 0 0.12 0.06 0 0.14 0.06 0 0.16 0.06 0 0.18 0.06 0 0.2 0.06 0 0.22 0.06 0 0.24 0.06 0 0.26 0.06 0 0.28 0.06 0 0.3 0.06 0 0.32 0.06 0 0.34 0.06 0 0.36 0.06 0 0.38 0.06 0 0.4 0.06 0 0.42 0.06 0 0.44 0.06 0 0.46 0.06 0 0.48 0.06 0 0.5 0.06 0 0.52 0.06 0 0.54 0.06 0 0.56 0.06 0 0.58 0.06 0 0.6 0.06 0 0.62 0.06 0 0.64 0.06 0 0.66 0.06 0 0.68 0.06 0 0.7 0.06 0 0.72 0.06 0 0.74 0.06 0 0.76 0.06 0 0.78 0.06 0 0.8 0.06 0 0.82 0.06 0 0.84 0.06 0 0.86 0.06 0 0.88 0.06 0 0.9 0.06 0 0.92 0.06 0 0.94 0.06 0 0.96 0.06 0 0.98 0.06 0 1 0.06 0 0 0.08 0 0.02 0.08 0 0.04 0.08 0 0.06 0.08 0 0.08 0.08 0 0.1 0.08 0 0.12 0.08 0 0.14 0.08 0 0.16 0.08 0 0.18 0.08 0 0.2 0.08 0 0.22 0.08 0 0.24 0.08 0 0.26 0.08 0 0.28 0.08 0 0.3 0.08 0 0.32 0.08 0 0.34 0.08 0 0.36 0.08 0 0.38 0.08 0 0.4 0.08 0 0.42 0.08 0 0.44 0.08 0 0.46 0.08 0 0.48 0.08 0 0.5 0.08 0 0.52 0.08 0 0.54 0.08 0 0.56 0.08 0 0.58 0.08 0 0.6 0.08 0 0.62 0.08 0 0.64 0.08 0 0.66 0.08 0 0.68 0.08 0 0.7 0.08 0 0.72 0.08 0 0.74 0.08 0 0.76 0.08 0 0.78 0.08 0 0.8 0.08 0 0.82 0.08 0 0.84 0.08 0 0.86 0.08 0 0.88 0.08 0 0.9 0.08 0 0.92 0.08 0 0.94 0.08 0 0.96 0.08 0 0.98 0.08 0 1 0.08 0 0 0.1 0 0.02 0.1 0 0.04 0.1 0 0.06 0.1 0 0.08 0.1 0 0.1 0.1 0 0.12 0.1 0 0.14 0.1 0 0.16 0.1 0 0.18 0.1 0 0.2 0.1 0 0.22 0.1 0 0.24 0.1 0 0.26 0.1 0 0.28 0.1 0 0.3 0.1 0 0.32 0.1 0 0.34 0.1 0 0.36 0.1 0 0.38 0.1 0 0.4 0.1 0 0.42 0.1 0 0.44 0.1 0 0.46 0.1 0 0.48 0.1 0 0.5 0.1 0 0.52 0.1 0 0.54 0.1 0 0.56 0.1 0 0.58 0.1 0 0.6 0.1 0 0.62 0.1 0 0.64 0.1 0 0.66 0.1 0 0.68 0.1 0 0.7 0.1 0 0.72 0.1 0 0.74 0.1 0 0.76 0.1 0 0.78 0.1 0 0.8 0.1 0 0.82 0.1 0 0.84 0.1 0 0.86 0.1 0 0.88 0.1 0 0.9 0.1 0 0.92 0.1 0 0.94 0.1 0 0.96 0.1 0 0.98 0.1 0 1 0.1 0 0 0.12 0 0.02 0.12 0 0.04 0.12 0 0.06 0.12 0 0.08 0.12 0 0.1 0.12 0 0.12 0.12 0 0.14 0.12 0 0.16 0.12 0 0.18 0.12 0 0.2 0.12 0 0.22 0.12 0 0.24 0.12 0 0.26 0.12 0 0.28 0.12 0 0.3 0.12 0 0.32 0.12 0 0.34 0.12 0 0.36 0.12 0 0.38 0.12 0 0.4 0.12 0 0.42 0.12 0 0.44 0.12 0 0.46 0.12 0 0.48 0.12 0 0.5 0.12 0 0.52 0.12 0 0.54 0.12 0 0.56 0.12 0 0.58 0.12 0 0.6 0.12 0 0.62 0.12 0 0.64 0.12 0 0.66 0.12 0 0.68 0.12 0 0.7 0.12 0 0.72 0.12 0 0.74 0.12 0 0.76 0.12 0 0.78 0.12 0 0.8 0.12 0 0.82 0.12 0 0.84 0.12 0 0.86 0.12 0 0.88 0.12 0 0.9 0.12 0 0.92 0.12 0 0.94 0.12 0 0.96 0.12 0 0.98 0.12 0 1 0.12 0 0 0.14 0 0.02 0.14 0 0.04 0.14 0 0.06 0.14 0 0.08 0.14 0 0.1 0.14 0 0.12 0.14 0 0.14 0.14 0 0.16 0.14 0 0.18 0.14 0 0.2 0.14 0 0.22 0.14 0 0.24 0.14 0 0.26 0.14 0 0.28 0.14 0 0.3 0.14 0 0.32 0.14 0 0.34 0.14 0 0.36 0.14 0 0.38 0.14 0 0.4 0.14 0 0.42 0.14 0 0.44 0.14 0 0.46 0.14 0 0.48 0.14 0 0.5 0.14 0 0.52 0.14 0 0.54 0.14 0 0.56 0.14 0 0.58 0.14 0 0.6 0.14 0 0.62 0.14 0 0.64 0.14 0 0.66 0.14 0 0.68 0.14 0 0.7 0.14 0 0.72 0.14 0 0.74 0.14 0 0.76 0.14 0 0.78 0.14 0 0.8 0.14 0 0.82 0.14 0 0.84 0.14 0 0.86 0.14 0 0.88 0.14 0 0.9 0.14 0 0.92 0.14 0 0.94 0.14 0 0.96 0.14 0 0.98 0.14 0 1 0.14 0 0 0.16 0 0.02 0.16 0 0.04 0.16 0 0.06 0.16 0 0.08 0.16 0 0.1 0.16 0 0.12 0.16 0 0.14 0.16 0 0.16 0.16 0 0.18 0.16 0 0.2 0.16 0 0.22 0.16 0 0.24 0.16 0 0.26 0.16 0 0.28 0.16 0 0.3 0.16 0 0.32 0.16 0 0.34 0.16 0 0.36 0.16 0 0.38 0.16 0 0.4 0.16 0 0.42 0.16 0 0.44 0.16 0 0.46 0.16 0 0.48 0.16 0 0.5 0.16 0 0.52 0.16 0 0.54 0.16 0 0.56 0.16 0 0.58 0.16 0 0.6 0.16 0 0.62 0.16 0 0.64 0.16 0 0.66 0.16 0 0.68 0.16 0 0.7 0.16 0 0.72 0.16 0 0.74 0.16 0 0.76 0.16 0 0.78 0.16 0 0.8 0.16 0 0.82 0.16 0 0.84 0.16 0 0.86 0.16 0 0.88 0.16 0 0.9 0.16 0 0.92 0.16 0 0.94 0.16 0 0.96 0.16 0 0.98 0.16 0 1 0.16 0 0 0.18 0 0.02 0.18 0 0.04 0.18 0 0.06 0.18 0 0.08 0.18 0 0.1 0.18 0 0.12 0.18 0 0.14 0.18 0 0.16 0.18 0 0.18 0.18 0 0.2 0.18 0 0.22 0.18 0 0.24 0.18 0 0.26 0.18 0 0.28 0.18 0 0.3 0.18 0 0.32 0.18 0 0.34 0.18 0 0.36 0.18 0 0.38 0.18 0 0.4 0.18 0 0.42 0.18 0 0.44 0.18 0 0.46 0.18 0 0.48 0.18 0 0.5 0.18 0 0.52 0.18 0 0.54 0.18 0 0.56 0.18 0 0.58 0.18 0 0.6 0.18 0 0.62 0.18 0 0.64 0.18 0 0.66 0.18 0 0.68 0.18 0 0.7 0.18 0 0.72 0.18 0 0.74 0.18 0 0.76 0.18 0 0.78 0.18 0 0.8 0.18 0 0.82 0.18 0 0.84 0.18 0 0.86 0.18 0 0.88 0.18 0 0.9 0.18 0 0.92 0.18 0 0.94 0.18 0 0.96 0.18 0 0.98 0.18 0 1 0.18 0 0 0.2 0 0.02 0.2 0 0.04 0.2 0 0.06 0.2 0 0.08 0.2 0 0.1 0.2 0 0.12 0.2 0 0.14 0.2 0 0.16 0.2 0 0.18 0.2 0 0.2 0.2 0 0.22 0.2 0 0.24 0.2 0 0.26 0.2 0 0.28 0.2 0 0.3 0.2 0 0.32 0.2 0 0.34 0.2 0 0.36 0.2 0 0.38 0.2 0 0.4 0.2 0 0.42 0.2 0 0.44 0.2 0 0.46 0.2 0 0.48 0.2 0 0.5 0.2 0 0.52 0.2 0 0.54 0.2 0 0.56 0.2 0 0.58 0.2 0 0.6 0.2 0 0.62 0.2 0 0.64 0.2 0 0.66 0.2 0 0.68 0.2 0 0.7 0.2 0 0.72 0.2 0 0.74 0.2 0 0.76 0.2 0 0.78 0.2 0 0.8 0.2 0 0.82 0.2 0 0.84 0.2 0 0.86 0.2 0 0.88 0.2 0 0.9 0.2 0 0.92 0.2 0 0.94 0.2 0 0.96 0.2 0 0.98 0.2 0 1 0.2 0 0 0.22 0 0.02 0.22 0 0.04 0.22 0 0.06 0.22 0 0.08 0.22 0 0.1 0.22 0 0.12 0.22 0 0.14 0.22 0 0.16 0.22 0 0.18 0.22 0 0.2 0.22 0 0.22 0.22 0 0.24 0.22 0 0.26 0.22 0 0.28 0.22 0 0.3 0.22 0 0.32 0.22 0 0.34 0.22 0 0.36 0.22 0 0.38 0.22 0 0.4 0.22 0 0.42 0.22 0 0.44 0.22 0 0.46 0.22 0 0.48 0.22 0 0.5 0.22 0 0.52 0.22 0 0.54 0.22 0 0.56 0.22 0 0.58 0.22 0 0.6 0.22 0 0.62 0.22 0 0.64 0.22 0 0.66 0.22 0 0.68 0.22 0 0.7 0.22 0 0.72 0.22 0 0.74 0.22 0 0.76 0.22 0 0.78 0.22 0 0.8 0.22 0 0.82 0.22 0 0.84 0.22 0 0.86 0.22 0 0.88 0.22 0 0.9 0.22 0 0.92 0.22 0 0.94 0.22 0 0.96 0.22 0 0.98 0.22 0 1 0.22 0 0 0.24 0 0.02 0.24 0 0.04 0.24 0 0.06 0.24 0 0.08 0.24 0 0.1 0.24 0 0.12 0.24 0 0.14 0.24 0 0.16 0.24 0 0.18 0.24 0 0.2 0.24 0 0.22 0.24 0 0.24 0.24 0 0.26 0.24 0 0.28 0.24 0 0.3 0.24 0 0.32 0.24 0 0.34 0.24 0 0.36 0.24 0 0.38 0.24 0 0.4 0.24 0 0.42 0.24 0 0.44 0.24 0 0.46 0.24 0 0.48 0.24 0 0.5 0.24 0 0.52 0.24 0 0.54 0.24 0 0.56 0.24 0 0.58 0.24 0 0.6 0.24 0 0.62 0.24 0 0.64 0.24 0 0.66 0.24 0 0.68 0.24 0 0.7 0.24 0 0.72 0.24 0 0.74 0.24 0 0.76 0.24 0 0.78 0.24 0 0.8 0.24 0 0.82 0.24 0 0.84 0.24 0 0.86 0.24 0 0.88 0.24 0 0.9 0.24 0 0.92 0.24 0 0.94 0.24 0 0.96 0.24 0 0.98 0.24 0 1 0.24 0 0 0.26 0 0.02 0.26 0 0.04 0.26 0 0.06 0.26 0 0.08 0.26 0 0.1 0.26 0 0.12 0.26 0 0.14 0.26 0 0.16 0.26 0 0.18 0.26 0 0.2 0.26 0 0.22 0.26 0 0.24 0.26 0 0.26 0.26 0 0.28 0.26 0 0.3 0.26 0 0.32 0.26 0 0.34 0.26 0 0.36 0.26 0 0.38 0.26 0 0.4 0.26 0 0.42 0.26 0 0.44 0.26 0 0.46 0.26 0 0.48 0.26 0 0.5 0.26 0 0.52 0.26 0 0.54 0.26 0 0.56 0.26 0 0.58 0.26 0 0.6 0.26 0 0.62 0.26 0 0.64 0.26 0 0.66 0.26 0 0.68 0.26 0 0.7 0.26 0 0.72 0.26 0 0.74 0.26 0 0.76 0.26 0 0.78 0.26 0 0.8 0.26 0 0.82 0.26 0 0.84 0.26 0 0.86 0.26 0 0.88 0.26 0 0.9 0.26 0 0.92 0.26 0 0.94 0.26 0 0.96 0.26 0 0.98 0.26 0 1 0.26 0 0 0.28 0 0.02 0.28 0 0.04 0.28 0 0.06 0.28 0 0.08 0.28 0 0.1 0.28 0 0.12 0.28 0 0.14 0.28 0 0.16 0.28 0 0.18 0.28 0 0.2 0.28 0 0.22 0.28 0 0.24 0.28 0 0.26 0.28 0 0.28 0.28 0 0.3 0.28 0 0.32 0.28 0 0.34 0.28 0 0.36 0.28 0 0.38 0.28 0 0.4 0.28 0 0.42 0.28 0 0.44 0.28 0 0.46 0.28 0 0.48 0.28 0 0.5 0.28 0 0.52 0.28 0 0.54 0.28 0 0.56 0.28 0 0.58 0.28 0 0.6 0.28 0 0.62 0.28 0 0.64 0.28 0 0.66 0.28 0 0.68 0.28 0 0.7 0.28 0 0.72 0.28 0 0.74 0.28 0 0.76 0.28 0 0.78 0.28 0 0.8 0.28 0 0.82 0.28 0 0.84 0.28 0 0.86 0.28 0 0.88 0.28 0 0.9 0.28 0 0.92 0.28 0 0.94 0.28 0 0.96 0.28 0 0.98 0.28 0 1 0.28 0 0 0.3 0 0.02 0.3 0 0.04 0.3 0 0.06 0.3 0 0.08 0.3 0 0.1 0.3 0 0.12 0.3 0 0.14 0.3 0 0.16 0.3 0 0.18 0.3 0 0.2 0.3 0 0.22 0.3 0 0.24 0.3 0 0.26 0.3 0 0.28 0.3 0 0.3 0.3 0 0.32 0.3 0 0.34 0.3 0 0.36 0.3 0 0.38 0.3 0 0.4 0.3 0 0.42 0.3 0 0.44 0.3 0 0.46 0.3 0 0.48 0.3 0 0.5 0.3 0 0.52 0.3 0 0.54 0.3 0 0.56 0.3 0 0.58 0.3 0 0.6 0.3 0 0.62 0.3 0 0.64 0.3 0 0.66 0.3 0 0.68 0.3 0 0.7 0.3 0 0.72 0.3 0 0.74 0.3 0 0.76 0.3 0 0.78 0.3 0 0.8 0.3 0 0.82 0.3 0 0.84 0.3 0 0.86 0.3 0 0.88 0.3 0 0.9 0.3 0 0.92 0.3 0 0.94 0.3 0 0.96 0.3 0 0.98 0.3 0 1 0.3 0 0 0.32 0 0.02 0.32 0 0.04 0.32 0 0.06 0.32 0 0.08 0.32 0 0.1 0.32 0 0.12 0.32 0 0.14 0.32 0 0.16 0.32 0 0.18 0.32 0 0.2 0.32 0 0.22 0.32 0 0.24 0.32 0 0.26 0.32 0 0.28 0.32 0 0.3 0.32 0 0.32 0.32 0 0.34 0.32 0 0.36 0.32 0 0.38 0.32 0 0.4 0.32 0 0.42 0.32 0 0.44 0.32 0 0.46 0.32 0 0.48 0.32 0 0.5 0.32 0 0.52 0.32 0 0.54 0.32 0 0.56 0.32 0 0.58 0.32 0 0.6 0.32 0 0.62 0.32 0 0.64 0.32 0 0.66 0.32 0 0.68 0.32 0 0.7 0.32 0 0.72 0.32 0 0.74 0.32 0 0.76 0.32 0 0.78 0.32 0 0.8 0.32 0 0.82 0.32 0 0.84 0.32 0 0.86 0.32 0 0.88 0.32 0 0.9 0.32 0 0.92 0.32 0 0.94 0.
[...]
			<PointData Scalars="VitesseX">
				<DataArray Name="VitesseX" type="Float32" format="ascii">
 0 0 0 0 0 0 0 0 0 0 0 0 0 0 0 0 0 0 0 0 0 0 0 0 0 0 0 0 0 0 0 0 0 0 0 0 0 0 0 0 0 0 0 0 0 0 0 0 0 0 0 0 2.3277e-05 9.27401e-05 0.000207295 0.000365133 0.000563764 0.000800057 0.00107028 0.00137018 0.00169503 0.00203969 0.00239874 0.00276651 0.00313721 0.00350498 0.00386404 0.00420872 0.00453358 0.0048335 0.00510375 0.00534007 0.00553873 0.0056966 0.00581119 0.00588072 0.005904 0.00588074 0.00581133 0.00569675 0.00553892 0.00534029 0.005104 0.00483376 0.00453385 0.00420899 0.0038643 0.00350523 0.00313743 0.00276671 0.00239891 0.00203983 0.00169514 0.00137027 0.00107035 0.000800099 0.00056379 0.000365147 0.000207302 9.27432e-05 2.32774e-05 2.52548e-28 0 4.61857e-05 0.00018401 0.0004113 0.000724462 0.00111856 0.00158736 0.00212349 0.00271848 0.00336296 0.00404676 0.0047591 0.00548875 0.00622421 0.00695388 0.00766627 0.00835016 0.00899475 0.00958988 0.0101262 0.0105952 0.0109895 0.0113029 0.0115304 0.0116686 0.0117149 0.0116689 0.0115315 0.0113042 0.0109912 0.0105972 0.0101285 0.00959231 0.00899725 0.00835264 0.00766867 0.00695613 0.00622624 0.00549055 0.00476064 0.00404803 0.00336397 0.00271925 0.00212404 0.00158773 0.00111878 0.000724585 0.000411356 0.00018403 4.61885e-05 5.0111e-28 0 6.8365e-05 0.00027237 0.000608801 0.00107233 0.00165564 0.00234953 0.00314305 0.00402369 0.00497757 0.00598964 0.00704396 0.00812391 0.00921246 0.0102925 0.0113469 0.0123592 0.0133133 0.0141943 0.0149883 0.0156826 0.0162664 0.0167305 0.0170675 0.0172724 0.017341 0.0172732 0.01707 0.0167338 0.0162706 0.0156875 0.0149937 0.0142002 0.0133194 0.0123652 0.0113527 0.0102979 0.00921737 0.00812825 0.00704768 0.00599271 0.00498 0.00402553 0.00314437 0.00235042 0.00165618 0.00107262 0.000608935 0.000272419 6.83715e-05 7.41768e-28 0 8.94652e-05 0.000356429 0.000796685 0.00140325 0.00216655 0.00307454 0.00411289 0.00526523 0.00651339 0.0078377 0.00921729 0.0106304 0.0120548 0.0134681 0.0148479 0.0161726 0.0174213 0.0185742 0.0196133 0.0205221 0.0212863 0.0218938 0.0223351 0.0226037 0.0226937 0.0226053 0.0223397 0.0218998 0.0212939 0.020531 0.0196232 0.0185848 0.0174321 0.0161834 0.0148583 0.0134778 0.0120637 0.0106383 0.00922401 0.00784324 0.00651778 0.00526855 0.00411527 0.00307613 0.00216753 0.00140378 0.000796925 0.000356515 8.94767e-05 9.70725e-28 0 0.000109154 0.000434861 0.000971989 0.00171201 0.00264323 0.00375096 0.00501771 0.00642351 0.0079462 0.00956179 0.0112448 0.0129688 0.0147065 0.0164306 0.0181141 0.0197302 0.0212537 0.0226605 0.0239284 0.0250374 0.02597 0.0267115 0.0272503 0.0275784 0.0276885 0.0275809 0.0272574 0.0267208 0.0259818 0.0250513 0.0239438 0.022677 0.0212707 0.0197471 0.0181303 0.0164459 0.0147204 0.012981 0.0112553 0.00957044 0.00795305 0.00642869 0.00502142 0.00375344 0.00264475 0.00171283 0.000972362 0.000434994 0.000109171 1.18437e-27 0 0.00012712 0.000506429 0.00113195 0.00199373 0.00307816 0.00436812 0.00584324 0.00748027 0.00925341 0.0111347 0.0130946 0.0151021 0.0171257 0.0191334 0.0210938 0.022976 0.0247503 0.0263887 0.0278654 0.0291572 0.0302436 0.0311076 0.0317354 0.0321181 0.0322466 0.0321218 0.0317455 0.0311208 0.0302605 0.029177 0.0278875 0.0264122 0.0247745 0.0230001 0.0211171 0.0191552 0.0171454 0.0151196 0.0131095 0.0111471 0.00926319 0.00748767 0.00584853 0.00437166 0.00308033 0.0019949 0.00113248 0.000506617 0.000127145 1.37934e-27 0 0.00014308 0.000570005 0.00127404 0.00224398 0.00346448 0.00491628 0.00657646 0.00841885 0.0104144 0.0125317 0.0147374 0.0169968 0.0192742 0.0215338 0.0237403 0.0258587 0.0278558 0.0297 0.0313624 0.0328166 0.0340398 0.0350127 0.0357197 0.0361511 0.0362961 0.0361562 0.0357332 0.0350304 0.0340625 0.0328432 0.031392 0.0297316 0.0278883 0.025891 0.0237715 0.0215631 0.0193007 0.0170202 0.0147575 0.0125483 0.0104275 0.00842877 0.00658357 0.00492103 0.00346739 0.00224555 0.00127475 0.000570254 0.000143113 1.55256e-27 0 0.000156784 0.000624588 0.00139603 0.0024588 0.00379611 0.00538682 0.00720582 0.00922444 0.0114109 0.0137307 0.0161474 0.0186229 0.0211181 0.023594 0.0260117 0.0283329 0.0305213 0.0325423 0.0343641 0.0359579 0.0372987 0.0383652 0.0391405 0.0396139 0.0397732 0.0396205 0.0391577 0.038388 0.0373277 0.0359921 0.0344021 0.0325828 0.0305629 0.0283744 0.0260517 0.0236315 0.0211522 0.0186529 0.0161731 0.0137519 0.0114277 0.00923716 0.00721492 0.0053929 0.00379982 0.00246081 0.00139693 0.000624903 0.000156826 1.70129e-27 0 0.000168014 0.000669316 0.00149598 0.00263482 0.00406781 0.0057723 0.00772139 0.00988435 0.0122271 0.0147128 0.0173022 0.0199548 0.0226285 0.0252815 0.0278721 0.0303596 0.0327048 0.0348706 0.0368232 0.0385316 0.0399688 0.0411122 0.0419437 0.0424518 0.0426231 0.0424601 0.0419649 0.0411405 0.0400048 0.0385739 0.0368703 0.0349208 0.0327564 0.030411 0.0279217 0.0253279 0.0226706 0.019992 0.0173341 0.0147391 0.0122479 0.00990009 0.00773265 0.00577982 0.0040724 0.00263729 0.00149709 0.0006697 0.000168065 1.82319e-27 0 0.000176595 0.000703485 0.00157233 0.00276925 0.00427529 0.00606664 0.00811503 0.0103882 0.0128502 0.0154625 0.0181838 0.0209714 0.0237814 0.0265696 0.0292924 0.0319068 0.0343717 0.0366484 0.0387009 0.0404969 0.0420081 0.0432106 0.0440852 0.04462 0.0448008 0.0446302 0.0441105 0.0432446 0.0420514 0.0405479 0.0387576 0.0367089 0.0344339 0.0319686 0.0293521 0.0266255 0.0238322 0.0210163 0.0182222 0.0154941 0.0128753 0.0104071 0.00812858 0.00607569 0.00428081 0.00277222 0.00157366 0.000703941 0.000176655 1.91635e-27 0 0.000182392 0.000726571 0.00162392 0.00286009 0.0044155 0.00626557 0.00838108 0.0107287 0.0132714 0.0159692 0.0187797 0.0216586 0.0245607 0.0274403 0.0302523 0.0329525 0.0354984 0.0378499 0.0399699 0.0418251 0.0433862 0.0446284 0.0455321 0.0460849 0.046272 0.0460966 0.0455608 0.0446671 0.0434354 0.041883 0.0400344 0.0379186 0.0355691 0.0330229 0.0303202 0.0275039 0.0246184 0.0217096 0.0188233 0.0160052 0.0132999 0.0107502 0.00839648 0.00627584 0.00442177 0.00286346 0.00162543 0.000727084 0.000182459 1.97929e-27 0 0.000185307 0.000738152 0.00164974 0.00290546 0.00448539 0.00636454 0.00851323 0.0108976 0.0134801 0.0162201 0.0190745 0.0219985 0.0249461 0.027871 0.0307275 0.0334706 0.0360572 0.0384467 0.0406013 0.0424871 0.0440744 0.045338 0.0462579 0.0468214 0.0470134 0.0468367 0.0462938 0.0453871 0.0441368 0.0425606 0.040683 0.0385338 0.0361468 0.0335598 0.0308136 0.0279516 0.0250193 0.0220631 0.0191298 0.0162656 0.0135161 0.0109248 0.00853271 0.00637753 0.0044933 0.00290971 0.00165163 0.000738781 0.000185389 2.01102e-27 0 0.000185306 0.000738151 0.00164974 0.00290546 0.00448538 0.00636452 0.0085132 0.0108975 0.01348 0.01622 0.0190744 0.0219984 0.024946 0.0278709 0.0307274 0.0334705 0.0360571 0.0384466 0.0406012 0.042487 0.0440743 0.0453379 0.0462578 0.0468214 0.0470134 0.0468367 0.0462938 0.0453871 0.0441369 0.0425606 0.0406831 0.0385339 0.0361469 0.0335599 0.0308136 0.0279517 0.0250194 0.0220632 0.0191298 0.0162657 0.0135162 0.0109249 0.00853272 0.00637754 0.00449331 0.00290971 0.00165163 0.000738782 0.000185389 2.01104e-27 0 0.000182377 0.000726457 0.00162354 0.00285922 0.00441386 0.00626284 0.00837698 0.0107229 0.0132638 0.0159596 0.018768 0.0216449 0.0245451 0.0274231 0.030234 0.0329336 0.0354793 0.0378313 0.0399525 0.0418094 0.0433728 0.0446179 0.0455248 0.0460811 0.046272 0.0461003 0.0455684 0.0446782 0.0434496 0.0418997 0.040053 0.0379384 0.0355894 0.0330431 0.0303398 0.0275222 0.0246351 0.0217243 0.0188359 0.0160155 0.013308 0.0107564 0.00840087 0.00627876 0.00442353 0.0028644 0.00162583 0.000727207 0.000182475 1.97935e-27 0 0.000176574 0.000703319 0.00157178 0.00276798 0.0042729 0.0060627 0.00810909 0.0103798 0.0128392 0.0154485 0.0181668 0.0209515 0.0237588 0.0265447 0.0292658 0.0318793 0.0343441 0.0366215 0.0386757 0.0404742 0.0419888 0.0431953 0.0440747 0.0446145 0.0448008 0.0446354 0.0441211 0.0432599 0.042071 0.0405709 0.0387833 0.0367362 0.034462 0.0319966 0.0293791 0.0266508 0.0238552 0.0210366 0.0182395 0.0155084 0.0128866 0.0104156 0.00813465 0.00607972 0.00428325 0.00277352 0.00157422 0.00070411 0.000176676 1.91645e-27 0 0.000167985 0.000669086 0.00149522 0.00263306 0.0040645 0.00576683 0.00771316 0.00987281 0.0122118 0.0146934 0.0172787 0.0199272 0.0225972 0.0252471 0.0278354 0.0303216 0.0326665 0.0348334 0.0367882 0.0385001 0.0399421 0.0410912 0.0419291 0.0424442 0.0426231 0.0424672 0.0419794 0.0411615 0.0400316 0.0386054 0.0369054 0.0349583 0.0327949 0.0304493 0.0279587 0.0253626 0.0227022 0.0200198 0.0173579 0.0147586 0.0122634 0.00991177 0.00774097 0.00578534 0.00407574 0.00263907 0.00149786 0.000669933 0.000168095 1.82334e-27 0 0.000156747 0.000624297 0.00139507 0.00245659 0.00379194 0.00537992 0.00719544 0.00920988 0.0113916 0.0137063 0.0161177 0.0185881 0.0210787 0.0235507 0.0259654 0.0282849 0.030473 0.0324953 0.03432 0.0359183 0.0372649 0.0383386 0.0391221 0.0396043 0.0397732 0.0396294 0.0391759 0.0384144 0.0373613 0.0360317 0.0344462 0.0326299 0.0306113 0.0284226 0.0260982 0.0236751 0.0211918 0.0186879 0.0162029 0.0137765 0.0114471 0.00925181 0.00722537 0.00539983 0.00380402 0.00246304 0.00139789 0.000625195 0.000156862 1.70147e-27 0 0.000143037 0.000569659 0.0012729 0.00224134 0.00345951 0.00490807 0.00656409 0.00840149 0.0103914 0.0125026 0.014702 0.0169553 0.0192272 0.0214822 0.0236851 0.0258015 0.0277983 0.029644 0.0313098 0.0327694 0.0339996 0.034981 0.0356978 0.0361397 0.0362961 0.0361668 0.0357548 0.0350618 0.0341024 0.0328903 0.0314444 0.0297875 0.0279457 0.0259482 0.0238267 0.0216148 0.0193478 0.0170617 0.0147929 0.0125774 0.0104506 0.00844616 0.00659596 0.00492926 0.00347237 0.00224819 0.00127589 0.000570601 0.000143157 1.55277e-27 0 0.00012707 0.000506033 0.00113064 0.00199071 0.00307247 0.00435871 0.00582907 0.0074604 0.00922706 0.0111014 0.0130541 0.0150547 0.0170719 0.0190742 0.0210307 0.0229105 0.0246844 0.0263246 0.0278053 0.0291031 0.0301976 0.0310714 0.0317103 0.0321051 0.0322465 0.032134 0.0317702 0.0311567 0.0303061 0.0292308 0.0279473 0.026476 0.0248401 0.0230654 0.0211801 0.0192143 0.0171992 0.015167 0.01315 0.0111804 0.00928952 0.00750753 0.00586269 0.00438106 0.00308602 0.00199792 0.00113379 0.000507013 0.000127195 1.37959e-27 0 0.000109098 0.000434421 0.000970532 0.00170865 0.00263691 0.0037405 0.00500197 0.00640143 0.00791693 0.00952476 0.0111998 0.0129161 0.0146467 0.0163649 0.0180439 0.0196575 0.0211806 0.0225893 0.0238616 0.0249773 0.0259189 0.0266713 0.0272225 0.027564 0.0276885 0.0275946 0.0272848 0.0267606 0.0260324 0.0251109 0.0240102 0.0227477 0.0213434 0.0198195 0.0182002 0.0165114 0.0147799 0.0130336 0.0113001 0.00960735 0.00798224 0.00645071 0.00503711 0.00376386 0.00265106 0.00171618 0.000973813 0.000435433 0.000109227 1.18465e-27 0 8.94048e-05 0.000355952 0.000795106 0.00139961 0.0021597 0.00306321 0.00409583 0.00524129 0.00648165 0.00779756 0.00916854 0.0105733 0.01199 0.0133968 0.0147718 0.0160938 0.017342 0.0184971 0.0195409 0.020457 0.021231 0.0218503 0.0223051 0.0225881 0.0226937 0.0226201 0.0223694 0.0219428 0.0213487 0.0205955 0.019695 0.0186614 0.0175109 0.0162618 0.014934 0.0135487 0.0121282 0.0106951 0.00927253 0.00788319 0.00654936 0.00529237 0.00413225 0.00308741 0.00217435 0.0014074 0.000798496 0.00035699 8.95367e-05 9.71032e-28 0 6.83009e-05 0.000271864 0.000607125 0.00106847 0.00164836 0.0023375 0.00312494 0.00399828 0.00494388 0.00594703 0.0069922 0.00806325 0.00914367 0.0102168 0.0112662 0.0122755 0.0132292 0.0141124 0.0149114 0.0156135 0.0162077 0.0166843 0.0170356 0.017256 0.017341 0.0172891 0.0171015 0.0167794 0.0163287 0.015756 0.0150699 0.0142814 0.0134029 0.0124483 0.0114329 0.010373 0.00928572 0.00818852 0.00709913 0.00603506 0.00501349 0.00405079 0.00316238 0.00236237 0.00166342 0.00107647 0.000610601 0.000272922 6.84351e-05 7.42098e-28 0 4.61189e-05 0.000183482 0.000409553 0.000720435 0.00111097 0.00157483 0.00210461 0.002692 0.00332785 0.00400235 0.00470515 0.00542554 0.00615252 0.00687505 0.00758212 0.00826295 0.00890708 0.00950457 0.0100461 0.0105232 0.0109283 0.0112548 0.0114972 0.0116516 0.0117149 0.0116855 0.0115643 0.0113518 0.0110518 0.0106685 0.0102078 0.00967693 0.00908423 0.00843919 0.0077522 0.00703438 0.00629742 0.00555331 0.00481421 0.00409213 0.00339884 0.00274555 0.00214279 0.00160018 0.00112632 0.000728584 0.000413091 0.000184554 4.62548e-05 5.0146e-28 0 2.32086e-05 9.21991e-05 0.000205505 0.000361007 0.000555992 0.000787212 0.00105094 0.00134305 0.00165906 0.00199419 0.00234348 0.00270176 0.00306378 0.00342423 0.00377784 0.00411939 0.00444378 0.00474612 0.00502177 0.00526641 0.0054761 0.00564737 0.00577724 0.00586336 0.005904 0.00589782 0.00584498 0.00574557 0.00560105 0.00541339 0.00518538 0.00492052 0.00462302 0.00429771 0.00394993 0.00358545 0.00321039 0.00283105 0.00245382 0.00208503 0.00173088 0.00139723 0.00108956 0.000812861 0.000571512 0.000369246 0.00020908 9.32806e-05 2.33454e-05 2.52912e-28 0 -6.83098e-08 -5.40031e-07 -1.78679e-06 -4.11876e-06 -7.75906e-06 -1.28238e-05 -1.93097e-05 -2.70886e-05 -3.5912e-05 -4.54222e-05 -5.5172e-05 -6.46504e-05 -7.33132e-05 -8.06158e-05 -8.6048e-05 -8.91672e-05 -8.96272e-05 -8.72021e-05 -8.18043e-05 -7.34933e-05 -6.24764e-05 -4.9101e-05 -3.38379e-05 -1.72575e-05 -2.01473e-10 1.72576e-05 3.38383e-05 4.91018e-05 6.24778e-05 7.3495e-05 8.18058e-05 8.72033e-05 8.9628e-05 8.91679e-05 8.60485e-05 8.0616e-05 7.33133e-05 6.46506e-05 5.51721e-05 4.54223e-05 3.5912e-05 2.70886e-05 1.93097e-05 1.28238e-05 7.75905e-06 4.11877e-06 1.78679e-06 5.40031e-07 6.83098e-08 3.72027e-31 0 -2.33454e-05 -9.32806e-05 -0.00020908 -0.000369246 -0.000571512 -0.000812861 -0.00108956 -0.00139723 -0.00173088 -0.00208503 -0.00245381 -0.00283105 -0.00321039 -0.00358545 -0.00394993 -0.00429771 -0.00462302 -0.00492052 -0.00518537 -0.00541339 -0.00560105 -0.00574557 -0.00584498 -0.00589782 -0.005904 -0.00586336 -0.00577724 -0.00564737 -0.0054761 -0.00526641 -0.00502177 -0.00474612 -0.00444378 -0.00411939 -0.00377784 -0.00342423 -0.00306378 -0.00270176 -0.00234348 -0.00199419 -0.00165906 -0.00134305 -0.00105094 -0.000787212 -0.000555992 -0.000361007 -0.000205505 -9.21991e-05 -2.32086e-05 -2.52176e-28 0 -4.62548e-05 -0.000184554 -0.000413091 -0.000728584 -0.00112632 -0.00160018 -0.00214279 -0.00274555 -0.00339884 -0.00409213 -0.00481421 -0.00555331 -0.00629742 -0.00703438 -0.0077522 -0.00843919 -0.00908423 -0.00967693 -0.0102078 -0.0106685 -0.0110518 -0.0113518 -0.0115643 -0.0116855 -0.0117149 -0.0116516 -0.0114972 -0.0112548 -0.0109283 -0.0105232 -0.0100461 -0.00950457 -0.00890708 -0.00826295 -0.00758212 -0.00687505 -0.00615252 -0.00542554 -0.00470515 -0.00400235 -0.00332785 -0.002692 -0.00210461 -0.00157483 -0.00111097 -0.000720435 -0.000409553 -0.000183482 -4.61189e-05 -5.00751e-28 0 -6.84351e-05 -0.000272922 -0.000610601 -0.00107647 -0.00166342 -0.00236237 -0.00316238 -0.00405079 -0.00501349 -0.00603506 -0.00709913 -0.00818852 -0.00928572 -0.010373 -0.0114329 -0.0124483 -0.0134029 -0.0142814 -0.0150699 -0.015756 -0.0163287 -0.0167794 -0.0171015 -0.0172891 -0.017341 -0.017256 -0.0170356 -0.0166843 -0.0162077 -0.0156135 -0.0149114 -0.0141124 -0.0132292 -0.0122755 -0.0112662 -0.0102168 -0.00914367 -0.00806325 -0.0069922 -0.00594703 -0.00494388 -0.00399828 -0.00312494 -0.0023375 -0.00164836 -0.00106847 -0.000607125 -0.000271864 -6.83009e-05 -7.41431e-28 0 -8.95367e-05 -0.00035699 -0.000798496 -0.0014074 -0.00217435 -0.00308741 -0.00413225 -0.00529237 -0.00654936 -0.00788319 -0.00927253 -0.0106951 -0.0121282 -0.0135487 -0.014934 -0.0162618 -0.0175109 -0.0186614 -0.019695 -0.0205955 -0.0213487 -0.0219428 -0.0223694 -0.0226201 -0.0226937 -0.0225881 -0.022305 -0.0218503 -0.021231 -0.020457 -0.0195409 -0.0184971 -0.017342 -0.0160938 -0.0147718 -0.0133968 -0.01199 -0.0105733 -0.00916854 -0.00779756 -0.00648165 -0.00524129 -0.00409583 -0.00306321 -0.0021597 -0.00139961 -0.000795106 -0.000355952 -8.94048e-05 -9.7042e-28 0 -0.000109227 -0.000435433 -0.000973813 -0.00171618 -0.00265106 -0.00376386 -0.00503711 -0.00645071 -0.00798224 -0.00960735 -0.0113001 -0.0130336 -0.0147799 -0.0165114 -0.0182002 -0.0198195 -0.0213434 -0.0227477 -0.0240102 -0.0251109 -0.0260324 -0.0267606 -0.0272848 -0.0275946 -0.0276885 -0.027564 -0.0272225 -0.0266713 -0.0259189 -0.0249773 -0.0238616 -0.0225893 -0.0211806 -0.0196575 -0.0180439 -0.0163649 -0.0146467 -0.0129161 -0.0111998 -0.00952476 -0.00791693 -0.00640143 -0.00500197 -0.0037405 -0.00263691 -0.00170865 -0.000970532 -0.000434421 -0.000109098 -1.18411e-27 0 -0.000127195 -0.000507013 -0.00113379 -0.00199792 -0.00308602 -0.00438106 -0.00586269 -0.00750753 -0.00928952 -0.0111804 -0.01315 -0.015167 -0.0171992 -0.0192143 -0.0211801 -0.0230654 -0.0248401 -0.026476 -0.0279473 -0.0292308 -0.0303061 -0.0311567 -0.0317702 -0.032134 -0.0322465 -0.0321051 -0.0317103 -0.0310714 -0.0301976 -0.0291031 -0.0278053 -0.0263246 -0.0246844 -0.0229105 -0.0210307 -0.0190742 -0.0170719 -0.0150547 -0.0130541 -0.0111014 -0.00922706 -0.0074604 -0.00582907 -0.00435871 -0.00307247 -0.00199071 -0.00113064 -0.000506033 -0.00012707 -1.37912e-27 0 -0.000143157 -0.000570601 -0.00127589 -0.00224819 -0.00347237 -0.00492926 -0.00659596 -0.00844616 -0.0104506 -0.0125774 -0.0147929 -0.0170617 -0.0193478 -0.0216148 -0.0238267 -0.0259482 -0.0279457 -0.0297875 -0.0314444 -0.0328903 -0.0341024 -0.0350618 -0.0357548 -0.0361668 -0.0362961 -0.0361397 -0.0356978 -0.034981 -0.0339996 -0.0327694 -0.0313098 -0.029644 -0.0277983 -0.0258015 -0.0236851 -0.0214822 -0.0192272 -0.0169553 -0.014702 -0.0125026 -0.0103914 -0.00840149 -0.00656409 -0.00490807 -0.00345951 -0.00224134 -0.0012729 -0.000569659 -0.000143037 -1.55238e-27 0 -0.000156862 -0.000625195 -0.00139789 -0.00246304 -0.00380402 -0.00539983 -0.00722537 -0.00925181 -0.0114471 -0.0137765 -0.0162029 -0.0186879 -0.0211918 -0.0236751 -0.0260982 -0.0284226 -0.0306113 -0.0326299 -0.0344462 -0.0360317 -0.0373613 -0.0384144 -0.0391759 -0.0396294 -0.0397732 -0.0396043 -0.0391221 -0.0383386 -0.0372649 -0.0359183 -0.03432 -0.0324953 -0.030473 -0.0282849 -0.0259654 -0.0235507 -0.0210787 -0.0185881 -0.0161177 -0.0137063 -0.0113916 -0.00920988 -0.00719544 -0.00537992 -0.00379194 -0.00245659 -0.00139507 -0.000624297 -0.000156747 -1.70116e-27 0 -0.000168095 -0.000669933 -0.00149786 -0.00263907 -0.00407574 -0.00578534 -0.00774097 -0.00991177 -0.0122634 -0.0147586 -0.0173579 -0.0200198 -0.0227022 -0.0253626 -0.0279587 -0.0304493 -0.0327949 -0.0349583 -0.0369054 -0.0386054 -0.0400316 -0.0411615 -0.0419794 -0.0424672 -0.0426231 -0.0424442 -0.0419291 -0.0410912 -0.0399421 -0.0385001 -0.0367882 -0.0348334 -0.0326665 -0.0303216 -0.0278354 -0.0252471 -0.0225972 -0.0199272 -0.0172787 -0.0146934 -0.0122118 -0.00987281 -0.00771316 -0.00576683 -0.0040645 -0.00263306 -0.00149522 -0.000669086 -0.000167985 -1.82311e-27 0 -0.000176676 -0.00070411 -0.00157422 -0.00277352 -0.00428325 -0.00607972 -0.00813465 -0.0104156 -0.0128866 -0.0155084 -0.0182395 -0.0210366 -0.0238552 -0.0266508 -0.0293791 -0.0319966 -0.034462 -0.0367362 -0.0387833 -0.0405709 -0.042071 -0.0432599 -0.0441211 -0.0446354 -0.0448008 -0.0446145 -0.0440747 -0.0431953 -0.0419888 -0.0404742 -0.0386757 -0.0366215 -0.0343441 -0.0318793 -0.0292658 -0.0265447 -0.0237588 -0.0209515 -0.0181668 -0.0154485 -0.0128392 -0.0103798 -0.00810909 -0.0060627 -0.0042729 -0.00276798 -0.00157178 -0.000703319 -0.000176574 -1.9163e-27 0 -0.000182475 -0.000727207 -0.00162583 -0.0028644 -0.00442353 -0.00627876 -0.00840087 -0.0107564 -0.013308 -0.0160155 -0.0188359 -0.0217243 -0.0246351 -0.0275222 -0.0303398 -0.0330431 -0.0355894 -0.0379384 -0.040053 -0.0418997 -0.0434496 -0.0446782 -0.0455684 -0.0461003 -0.046272 -0.0460811 -0.0455248 -0.0446179 -0.0433728 -0.0418094 -0.0399525 -0.0378313 -0.0354793 -0.0329336 -0.030234 -0.0274231 -0.0245451 -0.0216449 -0.018768 -0.0159596 -0.0132638 -0.0107229 -0.00837698 -0.00626284 -0.00441386 -0.00285922 -0.00162354 -0.000726457 -0.000182377 -1.97927e-27 0 -0.000185389 -0.000738782 -0.00165163 -0.00290971 -0.00449331 -0.00637754 -0.00853272 -0.0109249 -0.0135162 -0.0162657 -0.0191298 -0.0220632 -0.0250194 -0.0279517 -0.0308136 -0.0335599 -0.0361469 -0.