<?xml version="1.0"?>
<VTKFile type="PolyData">
	<PolyData>
		<Piece NumberOfPoints="2601" NumberOfPolys="2500">
			<Points>
				<DataArray type="Float32" NumberOfComponents="3" format="ascii">
 0 0 0 0.02 0 0 0.04 0 0 0.06 0 0 0.08 0 0 0.1 0 0 0.12 0 0 0.14 0 0 0.16 0 0 0.18 0 0 0.2 0 0 0.22 0 0 0.24 0 0 0.26 0 0 0.28 0 0 0.3 0 0 0.32 0 0 0.34 0 0 0.36 0 0 0.38 0 0 0.4 0 0 0.42 0 0 0.44 0 0 0.46 0 0 0.48 0 0 0.5 0 0 0.52 0 0 0.54 0 0 0.56 0 0 0.58 0 0 0.6 0 0 0.62 0 0 0.64 0 0 0.66 0 0 0.68 0 0 0.7 0 0 0.72 0 0 0.74 0 0 0.76 0 0 0.78 0 0 0.8 0 0 0.82 0 0 0.84 0 0 0.86 0 0 0.88 0 0 0.9 0 0 0.92 0 0 0.94 0 0 0.96 0 0 0.98 0 0 1 0 0 0 0.02 0 0.02 0.02 0 0.04 0.02 0 0.06 0.02 0 0.08 0.02 0 0.1 0.02 0 0.12 0.02 0 0.14 0.02 0 0.16 0.02 0 0.18 0.02 0 0.2 0.02 0 0.22 0.02 0 0.24 0.02 0 0.26 0.02 0 0.28 0.02 0 0.3 0.02 0 0.32 0.02 0 0.34 0.02 0 0.36 0.02 0 0.38 0.02 0 0.4 0.02 0 0.42 0.02 0 0.44 0.02 0 0.46 0.02 0 0.48 0.02 0 0.5 0.02 0 0.52 0.02 0 0.54 0.02 0 0.56 0.02 0 0.58 0.02 0 0.6 0.02 0 0.62 0.02 0 0.64 0.02 0 0.66 0.02 0 0.68 0.02 0 0.7 0.02 0 0.72 0.02 0 0.74 0.02 0 0.76 0.02 0 0.78 0.02 0 0.8 0.02 0 0.82 0.02 0 0.84 0.02 0 0.86 0.02 0 0.88 0.02 0 0.9 0.02 0 0.92 0.02 0 0.94 0.02 0 0.96 0.02 0 0.98 0.02 0 1 0.02 0 0 0.04 0 0.02 0.04 0 0.04 0.04 0 0.06 0.04 0 0.08 0.04 0 0.1 0.04 0 0.12 0.04 0 0.14 0.04 0 0.16 0.04 0 0.18 0.04 0 0.2 0.04 0 0.22 0.04 0 0.24 0.04 0 0.26 0.04 0 0.28 0.04 0 0.3 0.04 0 0.32 0.04 0 0.34 0.04 0 0.36 0.04 0 0.38 0.04 0 0.4 0.04 0 0.42 0.04 0 0.44 0.04 0 0.46 0.04 0 0.48 0.04 0 0.5 0.04 0 0.52 0.04 0 0.54 0.04 0 0.56 0.04 0 0.58 0.04 0 0.6 0.04 0 0.62 0.04 0 0.64 0.04 0 0.66 0.04 0 0.68 0.04 0 0.7 0.04 0 0.72 0.04 0 0.74 0.04 0 0.76 0.04 0 0.78 0.04 0 0.8 0.04 0 0.82 0.04 0 0.84 0.04 0 0.86 0.04 0 0.88 0.04 0 0.9 0.04 0 0.92 0.04 0 0.94 0.04 0 0.96 0.04 0 0.98 0.04 0 1 0.04 0 0 0.06 0 0.02 0.06 0 0.04 0.06 0 0.06 0.06 0 0.08 0.06 0 0.1 0.06 0 0.12 0.06 0 0.14 0.06 0 0.16 0.06 0 0.18 0.06 0 0.2 0.06 0 0.22 0.06 0 0.24 0.06 0 0.26 0.06 0 0.28 0.06 0 0.3 0.06 0 0.32 0.06 0 0.34 0.06 0 0.36 0.06 0 0.38 0.06 0 0.4 0.06 0 0.42 0.06 0 0.44 0.06 0 0.46 0.06 0 0.48 0.06 0 0.5 0.06 0 0.52 0.06 0 0.54 0.06 0 0.56 0.06 0 0.58 0.06 0 0.6 0.06 0 0.62 0.06 0 0.64 0.06 0 0.66 0.06 0 0.68 0.06 0 0.7 0.06 0 0.72 0.06 0 0.74 0.06 0 0.76 0.06 0 0.78 0.06 0 0.8 0.06 0 0.82 0.06 0 0.84 0.06 0 0.86 0.06 0 0.88 0.06 0 0.9 0.06 0 0.92 0.06 0 0.94 0.06 0 0.96 0.06 0 0.98 0.06 0 1 0.06 0 0 0.08 0 0.02 0.08 0 0.04 0.08 0 0.06 0.08 0 0.08 0.08 0 0.1 0.08 0 0.12 0.08 0 0.14 0.08 0 0.16 0.08 0 0.18 0.08 0 0.2 0.08 0 0.22 0.08 0 0.24 0.08 0 0.26 0.08 0 0.28 0.08 0 0.3 0.08 0 0.32 0.08 0 0.34 0.08 0 0.36 0.08 0 0.38 0.08 0 0.4 0.08 0 0.42 0.08 0 0.44 0.08 0 0.46 0.08 0 0.48 0.08 0 0.5 0.08 0 0.52 0.08 0 0.54 0.08 0 0.56 0.08 0 0.58 0.08 0 0.6 0.08 0 0.62 0.08 0 0.64 0.08 0 0.66 0.08 0 0.68 0.08 0 0.7 0.08 0 0.72 0.08 0 0.74 0.08 0 0.76 0.08 0 0.78 0.08 0 0.8 0.08 0 0.82 0.08 0 0.84 0.08 0 0.86 0.08 0 0.88 0.08 0 0.9 0.08 0 0.92 0.08 0 0.94 0.08 0 0.96 0.08 0 0.98 0.08 0 1 0.08 0 0 0.1 0 0.02 0.1 0 0.04 0.1 0 0.06 0.1 0 0.08 0.1 0 0.1 0.1 0 0.12 0.1 0 0.14 0.1 0 0.16 0.1 0 0.18 0.1 0 0.2 0.1 0 0.22 0.1 0 0.24 0.1 0 0.26 0.1 0 0.28 0.1 0 0.3 0.1 0 0.32 0.1 0 0.34 0.1 0 0.36 0.1 0 0.38 0.1 0 0.4 0.1 0 0.42 0.1 0 0.44 0.1 0 0.46 0.1 0 0.48 0.1 0 0.5 0.1 0 0.52 0.1 0 0.54 0.1 0 0.56 0.1 0 0.58 0.1 0 0.6 0.1 0 0.62 0.1 0 0.64 0.1 0 0.66 0.1 0 0.68 0.1 0 0.7 0.1 0 0.72 0.1 0 0.74 0.1 0 0.76 0.1 0 0.78 0.1 0 0.8 0.1 0 0.82 0.1 0 0.84 0.1 0 0.86 0.1 0 0.88 0.1 0 0.9 0.1 0 0.92 0.1 0 0.94 0.1 0 0.96 0.1 0 0.98 0.1 0 1 0.1 0 0 0.12 0 0.02 0.12 0 0.04 0.12 0 0.06 0.12 0 0.08 0.12 0 0.1 0.12 0 0.12 0.12 0 0.14 0.12 0 0.16 0.12 0 0.18 0.12 0 0.2 0.12 0 0.22 0.12 0 0.24 0.12 0 0.26 0.12 0 0.28 0.12 0 0.3 0.12 0 0.32 0.12 0 0.34 0.12 0 0.36 0.12 0 0.38 0.12 0 0.4 0.12 0 0.42 0.12 0 0.44 0.12 0 0.46 0.12 0 0.48 0.12 0 0.5 0.12 0 0.52 0.12 0 0.54 0.12 0 0.56 0.12 0 0.58 0.12 0 0.6 0.12 0 0.62 0.12 0 0.64 0.12 0 0.66 0.12 0 0.68 0.12 0 0.7 0.12 0 0.72 0.12 0 0.74 0.12 0 0.76 0.12 0 0.78 0.12 0 0.8 0.12 0 0.82 0.12 0 0.84 0.12 0 0.86 0.12 0 0.88 0.12 0 0.9 0.12 0 0.92 0.12 0 0.94 0.12 0 0.96 0.12 0 0.98 0.12 0 1 0.12 0 0 0.14 0 0.02 0.14 0 0.04 0.14 0 0.06 0.14 0 0.08 0.14 0 0.1 0.14 0 0.12 0.14 0 0.14 0.14 0 0.16 0.14 0 0.18 0.14 0 0.2 0.14 0 0.22 0.14 0 0.24 0.14 0 0.26 0.14 0 0.28 0.14 0 0.3 0.14 0 0.32 0.14 0 0.34 0.14 0 0.36 0.14 0 0.38 0.14 0 0.4 0.14 0 0.42 0.14 0 0.44 0.14 0 0.46 0.14 0 0.48 0.14 0 0.5 0.14 0 0.52 0.14 0 0.54 0.14 0 0.56 0.14 0 0.58 0.14 0 0.6 0.14 0 0.62 0.14 0 0.64 0.14 0 0.66 0.14 0 0.68 0.14 0 0.7 0.14 0 0.72 0.14 0 0.74 0.14 0 0.76 0.14 0 0.78 0.14 0 0.8 0.14 0 0.82 0.14 0 0.84 0.14 0 0.86 0.14 0 0.88 0.14 0 0.9 0.14 0 0.92 0.14 0 0.94 0.14 0 0.96 0.14 0 0.98 0.14 0 1 0.14 0 0 0.16 0 0.02 0.16 0 0.04 0.16 0 0.06 0.16 0 0.08 0.16 0 0.1 0.16 0 0.12 0.16 0 0.14 0.16 0 0.16 0.16 0 0.18 0.16 0 0.2 0.16 0 0.22 0.16 0 0.24 0.16 0 0.26 0.16 0 0.28 0.16 0 0.3 0.16 0 0.32 0.16 0 0.34 0.16 0 0.36 0.16 0 0.38 0.16 0 0.4 0.16 0 0.42 0.16 0 0.44 0.16 0 0.46 0.16 0 0.48 0.16 0 0.5 0.16 0 0.52 0.16 0 0.54 0.16 0 0.56 0.16 0 0.58 0.16 0 0.6 0.16 0 0.62 0.16 0 0.64 0.16 0 0.66 0.16 0 0.68 0.16 0 0.7 0.16 0 0.72 0.16 0 0.74 0.16 0 0.76 0.16 0 0.78 0.16 0 0.8 0.16 0 0.82 0.16 0 0.84 0.16 0 0.86 0.16 0 0.88 0.16 0 0.9 0.16 0 0.92 0.16 0 0.94 0.16 0 0.96 0.16 0 0.98 0.16 0 1 0.16 0 0 0.18 0 0.02 0.18 0 0.04 0.18 0 0.06 0.18 0 0.08 0.18 0 0.1 0.18 0 0.12 0.18 0 0.14 0.18 0 0.16 0.18 0 0.18 0.18 0 0.2 0.18 0 0.22 0.18 0 0.24 0.18 0 0.26 0.18 0 0.28 0.18 0 0.3 0.18 0 0.32 0.18 0 0.34 0.18 0 0.36 0.18 0 0.38 0.18 0 0.4 0.18 0 0.42 0.18 0 0.44 0.18 0 0.46 0.18 0 0.48 0.18 0 0.5 0.18 0 0.52 0.18 0 0.54 0.18 0 0.56 0.18 0 0.58 0.18 0 0.6 0.18 0 0.62 0.18 0 0.64 0.18 0 0.66 0.18 0 0.68 0.18 0 0.7 0.18 0 0.72 0.18 0 0.74 0.18 0 0.76 0.18 0 0.78 0.18 0 0.8 0.18 0 0.82 0.18 0 0.84 0.18 0 0.86 0.18 0 0.88 0.18 0 0.9 0.18 0 0.92 0.18 0 0.94 0.18 0 0.96 0.18 0 0.98 0.18 0 1 0.18 0 0 0.2 0 0.02 0.2 0 0.04 0.2 0 0.06 0.2 0 0.08 0.2 0 0.1 0.2 0 0.12 0.2 0 0.14 0.2 0 0.16 0.2 0 0.18 0.2 0 0.2 0.2 0 0.22 0.2 0 0.24 0.2 0 0.26 0.2 0 0.28 0.2 0 0.3 0.2 0 0.32 0.2 0 0.34 0.2 0 0.36 0.2 0 0.38 0.2 0 0.4 0.2 0 0.42 0.2 0 0.44 0.2 0 0.46 0.2 0 0.48 0.2 0 0.5 0.2 0 0.52 0.2 0 0.54 0.2 0 0.56 0.2 0 0.58 0.2 0 0.6 0.2 0 0.62 0.2 0 0.64 0.2 0 0.66 0.2 0 0.68 0.2 0 0.7 0.2 0 0.72 0.2 0 0.74 0.2 0 0.76 0.2 0 0.78 0.2 0 0.8 0.2 0 0.82 0.2 0 0.84 0.2 0 0.86 0.2 0 0.88 0.2 0 0.9 0.2 0 0.92 0.2 0 0.94 0.2 0 0.96 0.2 0 0.98 0.2 0 1 0.2 0 0 0.22 0 0.02 0.22 0 0.04 0.22 0 0.06 0.22 0 0.08 0.22 0 0.1 0.22 0 0.12 0.22 0 0.14 0.22 0 0.16 0.22 0 0.18 0.22 0 0.2 0.22 0 0.22 0.22 0 0.24 0.22 0 0.26 0.22 0 0.28 0.22 0 0.3 0.22 0 0.32 0.22 0 0.34 0.22 0 0.36 0.22 0 0.38 0.22 0 0.4 0.22 0 0.42 0.22 0 0.44 0.22 0 0.46 0.22 0 0.48 0.22 0 0.5 0.22 0 0.52 0.22 0 0.54 0.22 0 0.56 0.22 0 0.58 0.22 0 0.6 0.22 0 0.62 0.22 0 0.64 0.22 0 0.66 0.22 0 0.68 0.22 0 0.7 0.22 0 0.72 0.22 0 0.74 0.22 0 0.76 0.22 0 0.78 0.22 0 0.8 0.22 0 0.82 0.22 0 0.84 0.22 0 0.86 0.22 0 0.88 0.22 0 0.9 0.22 0 0.92 0.22 0 0.94 0.22 0 0.96 0.22 0 0.98 0.22 0 1 0.22 0 0 0.24 0 0.02 0.24 0 0.04 0.24 0 0.06 0.24 0 0.08 0.24 0 0.1 0.24 0 0.12 0.24 0 0.14 0.24 0 0.16 0.24 0 0.18 0.24 0 0.2 0.24 0 0.22 0.24 0 0.24 0.24 0 0.26 0.24 0 0.28 0.24 0 0.3 0.24 0 0.32 0.24 0 0.34 0.24 0 0.36 0.24 0 0.38 0.24 0 0.4 0.24 0 0.42 0.24 0 0.44 0.24 0 0.46 0.24 0 0.48 0.24 0 0.5 0.24 0 0.52 0.24 0 0.54 0.24 0 0.56 0.24 0 0.58 0.24 0 0.6 0.24 0 0.62 0.24 0 0.64 0.24 0 0.66 0.24 0 0.68 0.24 0 0.7 0.24 0 0.72 0.24 0 0.74 0.24 0 0.76 0.24 0 0.78 0.24 0 0.8 0.24 0 0.82 0.24 0 0.84 0.24 0 0.86 0.24 0 0.88 0.24 0 0.9 0.24 0 0.92 0.24 0 0.94 0.24 0 0.96 0.24 0 0.98 0.24 0 1 0.24 0 0 0.26 0 0.02 0.26 0 0.04 0.26 0 0.06 0.26 0 0.08 0.26 0 0.1 0.26 0 0.12 0.26 0 0.14 0.26 0 0.16 0.26 0 0.18 0.26 0 0.2 0.26 0 0.22 0.26 0 0.24 0.26 0 0.26 0.26 0 0.28 0.26 0 0.3 0.26 0 0.32 0.26 0 0.34 0.26 0 0.36 0.26 0 0.38 0.26 0 0.4 0.26 0 0.42 0.26 0 0.44 0.26 0 0.46 0.26 0 0.48 0.26 0 0.5 0.26 0 0.52 0.26 0 0.54 0.26 0 0.56 0.26 0 0.58 0.26 0 0.6 0.26 0 0.62 0.26 0 0.64 0.26 0 0.66 0.26 0 0.68 0.26 0 0.7 0.26 0 0.72 0.26 0 0.74 0.26 0 0.76 0.26 0 0.78 0.26 0 0.8 0.26 0 0.82 0.26 0 0.84 0.26 0 0.86 0.26 0 0.88 0.26 0 0.9 0.26 0 0.92 0.26 0 0.94 0.26 0 0.96 0.26 0 0.98 0.26 0 1 0.26 0 0 0.28 0 0.02 0.28 0 0.04 0.28 0 0.06 0.28 0 0.08 0.28 0 0.1 0.28 0 0.12 0.28 0 0.14 0.28 0 0.16 0.28 0 0.18 0.28 0 0.2 0.28 0 0.22 0.28 0 0.24 0.28 0 0.26 0.28 0 0.28 0.28 0 0.3 0.28 0 0.32 0.28 0 0.34 0.28 0 0.36 0.28 0 0.38 0.28 0 0.4 0.28 0 0.42 0.28 0 0.44 0.28 0 0.46 0.28 0 0.48 0.28 0 0.5 0.28 0 0.52 0.28 0 0.54 0.28 0 0.56 0.28 0 0.58 0.28 0 0.6 0.28 0 0.62 0.28 0 0.64 0.28 0 0.66 0.28 0 0.68 0.28 0 0.7 0.28 0 0.72 0.28 0 0.74 0.28 0 0.76 0.28 0 0.78 0.28 0 0.8 0.28 0 0.82 0.28 0 0.84 0.28 0 0.86 0.28 0 0.88 0.28 0 0.9 0.28 0 0.92 0.28 0 0.94 0.28 0 0.96 0.28 0 0.98 0.28 0 1 0.28 0 0 0.3 0 0.02 0.3 0 0.04 0.3 0 0.06 0.3 0 0.08 0.3 0 0.1 0.3 0 0.12 0.3 0 0.14 0.3 0 0.16 0.3 0 0.18 0.3 0 0.2 0.3 0 0.22 0.3 0 0.24 0.3 0 0.26 0.3 0 0.28 0.3 0 0.3 0.3 0 0.32 0.3 0 0.34 0.3 0 0.36 0.3 0 0.38 0.3 0 0.4 0.3 0 0.42 0.3 0 0.44 0.3 0 0.46 0.3 0 0.48 0.3 0 0.5 0.3 0 0.52 0.3 0 0.54 0.3 0 0.56 0.3 0 0.58 0.3 0 0.6 0.3 0 0.62 0.3 0 0.64 0.3 0 0.66 0.3 0 0.68 0.3 0 0.7 0.3 0 0.72 0.3 0 0.74 0.3 0 0.76 0.3 0 0.78 0.3 0 0.8 0.3 0 0.82 0.3 0 0.84 0.3 0 0.86 0.3 0 0.88 0.3 0 0.9 0.3 0 0.92 0.3 0 0.94 0.3 0 0.96 0.3 0 0.98 0.3 0 1 0.3 0 0 0.32 0 0.02 0.32 0 0.04 0.32 0 0.06 0.32 0 0.08 0.32 0 0.1 0.32 0 0.12 0.32 0 0.14 0.32 0 0.16 0.32 0 0.18 0.32 0 0.2 0.32 0 0.22 0.32 0 0.24 0.32 0 0.26 0.32 0 0.28 0.32 0 0.3 0.32 0 0.32 0.32 0 0.34 0.32 0 0.36 0.32 0 0.38 0.32 0 0.4 0.32 0 0.42 0.32 0 0.44 0.32 0 0.46 0.32 0 0.48 0.32 0 0.5 0.32 0 0.52 0.32 0 0.54 0.32 0 0.56 0.32 0 0.58 0.32 0 0.6 0.32 0 0.62 0.32 0 0.64 0.32 0 0.66 0.32 0 0.68 0.32 0 0.7 0.32 0 0.72 0.32 0 0.74 0.32 0 0.76 0.32 0 0.78 0.32 0 0.8 0.32 0 0.82 0.32 0 0.84 0.32 0 0.86 0.32 0 0.88 0.32 0 0.9 0.32 0 0.92 0.32 0 0.94 0.
[...]
			<PointData Scalars="VitesseX">
				<DataArray Name="VitesseX" type="Float32" format="ascii">
 0 0 0 0 0 0 0 0 0 0 0 0 0 0 0 0 0 0 0 0 0 0 0 0 0 0 0 0 0 0 0 0 0 0 0 0 0 0 0 0 0 0 0 0 0 0 0 0 0 0 0 0 0.000181882 0.000724608 0.00161968 0.00285287 0.00440472 0.00625073 0.00836178 0.0107046 0.0132422 0.0159346 0.0187395 0.0216125 0.0245084 0.0273815 0.0301869 0.0328801 0.0354187 0.0377628 0.0398753 0.041723 0.0432768 0.044512 0.0454092 0.0459562 0.0461381 0.0459576 0.0454174 0.0445211 0.0432884 0.0417367 0.0398905 0.037779 0.0354354 0.0328967 0.0302029 0.0273966 0.024522 0.0216245 0.0187499 0.0159432 0.013249 0.0107098 0.00836554 0.00625327 0.00440631 0.00285376 0.00162011 0.000724795 0.000181908 1.97356e-27 0 0.000360822 0.0014373 0.00321256 0.00565804 0.00873502 0.0123948 0.0165797 0.0212237 0.0262536 0.0315903 0.0371499 0.042845 0.0485856 0.0542818 0.0598449 0.0651869 0.0702239 0.0748765 0.0790716 0.0827429 0.0858326 0.0882917 0.0900813 0.091181 0.0915481 0.0912033 0.0901461 0.0883752 0.0859388 0.0828678 0.0792106 0.0750247 0.0703762 0.0653385 0.0599913 0.054419 0.04871 0.0429549 0.0372443 0.0316681 0.0263153 0.0212704 0.0166132 0.0124173 0.00874879 0.00566553 0.00321598 0.00143856 0.00036099 3.91586e-27 0 0.000534008 0.00212691 0.00475374 0.00837177 0.0129236 0.018337 0.0245266 0.0313947 0.0388334 0.0467256 0.0549477 0.0633705 0.0718608 0.0802866 0.088517 0.096422 0.103878 0.110767 0.116981 0.122422 0.127004 0.130655 0.133316 0.134963 0.135513 0.135019 0.13347 0.130856 0.12726 0.122723 0.117315 0.111124 0.104245 0.0967873 0.0888697 0.0806172 0.0721606 0.0636353 0.0551749 0.0469131 0.0389819 0.0315072 0.0246072 0.018391 0.0129566 0.00838971 0.0047619 0.00212986 0.000534402 5.79624e-27 0 0.000698713 0.00278258 0.00621895 0.0109513 0.0169044 0.0239836 0.0320772 0.0410574 0.0507833 0.0611021 0.0718522 0.0828654 0.0939673 0.104986 0.115751 0.126093 0.135849 0.144867 0.153005 0.160134 0.166142 0.170933 0.174432 0.176611 0.17734 0.176714 0.174707 0.171296 0.166604 0.160677 0.153609 0.145512 0.136512 0.126753 0.116388 0.105583 0.0945087 0.0833436 0.0722624 0.0614404 0.0510514 0.0412604 0.0322225 0.0240809 0.0169639 0.0109836 0.0062336 0.00278785 0.000699414 7.58509e-27 0 0.000852344 0.003394 0.0075851 0.013356 0.0206147 0.0292456 0.0391124 0.0500595 0.0619149 0.074493 0.0875971 0.101022 0.114556 0.12799 0.141118 0.153732 0.165635 0.176641 0.186576 0.195285 0.202629 0.208492 0.212779 0.215466 0.216369 0.215631 0.213206 0.209058 0.20335 0.196133 0.18752 0.177647 0.16667 0.154762 0.142112 0.128922 0.115402 0.101769 0.0882373 0.0750211 0.0623334 0.0503762 0.0393392 0.0293973 0.0207075 0.0134063 0.00760786 0.00340213 0.000853425 9.25423e-27 0 0.000992484 0.00395155 0.00883068 0.015548 0.023996 0.0340402 0.0455214 0.0582589 0.0720528 0.0866873 0.101934 0.117555 0.133304 0.148938 0.164218 0.178904 0.192765 0.205586 0.217165 0.22732 0.235889 0.242738 0.247754 0.250917 0.251985 0.251155 0.248359 0.243546 0.236918 0.22853 0.218512 0.207023 0.194242 0.180374 0.165637 0.150268 0.134511 0.118621 0.102848 0.0874409 0.07265 0.0587108 0.045845 0.0342565 0.0241283 0.0156196 0.00886303 0.00396303 0.000994007 1.07774e-26 0 0.00111693 0.00444647 0.00993608 0.0174927 0.0269951 0.0382916 0.0512032 0.0655266 0.0810372 0.0974928 0.114637 0.132203 0.149914 0.167497 0.184687 0.201211 0.216812 0.231247 0.244289 0.255734 0.265399 0.273131 0.278804 0.282401 0.283625 0.282726 0.279611 0.274216 0.26678 0.257358 0.246098 0.233175 0.218794 0.203184 0.186592 0.169283 0.151534 0.133634 0.115863 0.098504 0.0818385 0.0661328 0.0516372 0.0385816 0.0271724 0.0175886 0.00997929 0.00446169 0.00111894 1.21307e-26 0 0.00122372 0.004871 0.0108839 0.0191596 0.0295648 0.0419331 0.0560683 0.0717479 0.0887264 0.106739 0.125506 0.144736 0.164124 0.183377 0.202202 0.220302 0.237396 0.253219 0.267521 0.280078 0.290692 0.299192 0.30544 0.309422 0.310792 0.309844 0.306469 0.300584 0.292463 0.282162 0.269841 0.255692 0.239939 0.222833 0.204645 0.185667 0.166203 0.146571 0.127079 0.108036 0.0897539 0.0725251 0.0566245 0.0423046 0.0297918 0.0192822 0.010939 0.00489025 0.00122627 1.32927e-26 0 0.00131119 0.00521846 0.0116592 0.0205223 0.0316645 0.0449071 0.0600399 0.0768248 0.0949992 0.11428 0.134369 0.154954 0.175711 0.196325 0.216486 0.235875 0.254193 0.271154 0.286493 0.299969 0.311369 0.320509 0.327241 0.331551 0.333056 0.332081 0.328509 0.322233 0.313563 0.302551 0.289367 0.274218 0.257343 0.23901 0.219513 0.199162 0.178287 0.157228 0.136317 0.115886 0.0962713 0.0777868 0.0607282 0.0453667 0.0319451 0.0206737 0.0117271 0.00524195 0.00131428 1.42453e-26 0 0.00137795 0.0054834 0.0122499 0.0215595 0.0332612 0.0471668 0.0630555 0.0806772 0.0997567 0.119997 0.141086 0.162698 0.184492 0.206139 0.227315 0.247686 0.266937 0.28477 0.300907 0.315093 0.327104 0.336746 0.343863 0.34844 0.350069 0.349085 0.345383 0.338823 0.329747 0.318202 0.304368 0.288461 0.270731 0.251461 0.23096 0.209556 0.187594 0.165437 0.143432 0.121931 0.101288 0.081835 0.0638836 0.0477195 0.0335983 0.0217411 0.0123312 0.00551124 0.00138161 1.49735e-26 0 0.00142307 0.00566255 0.0126495 0.0222614 0.0343419 0.0486966 0.0650973 0.0832859 0.102978 0.123869 0.145636 0.167942 0.190439 0.212785 0.234648 0.255683 0.275567 0.29399 0.310665 0.32533 0.337752 0.347731 0.355103 0.359857 0.361561 0.360587 0.356825 0.350091 0.340758 0.32887 0.314608 0.298196 0.279893 0.25999 0.238806 0.216683 0.193979 0.171067 0.148311 0.126074 0.104725 0.0846057 0.0660408 0.049326 0.0347255 0.0224677 0.0127416 0.00569387 0.00142718 1.54658e-26 0 0.0014454 0.00574958 0.0128402 0.0225907 0.034841 0.0493929 0.0660145 0.0844445 0.104396 0.12556 0.147613 0.170216 0.193016 0.215672 0.237847 0.259197 0.279393 0.298122 0.315095 0.330045 0.342734 0.352957 0.360546 0.365478 0.36735 0.366428 0.362715 0.355947 0.346537 0.334516 0.320071 0.303426 0.284843 0.26462 0.243081 0.220576 0.19747 0.174147 0.150977 0.128333 0.106592 0.0861043 0.067201 0.0501842 0.0353231 0.0228496 0.0129553 0.00578799 0.00145041 1.57145e-26 0 0.00144539 0.0057495 0.0128398 0.0225897 0.0348388 0.0493886 0.0660073 0.0844335 0.10438 0.12554 0.147587 0.170186 0.192981 0.215633 0.237808 0.259158 0.279356 0.298089 0.315067 0.330022 0.342717 0.352946 0.360541 0.365476 0.36735 0.366428 0.362717 0.355953 0.346546 0.334529 0.320088 0.303445 0.284865 0.264643 0.243105 0.2206 0.197492 0.174166 0.150993 0.128346 0.106602 0.0861113 0.0672056 0.050187 0.0353245 0.0228503 0.0129555 0.00578804 0.00145041 1.57157e-26 0 0.00142219 0.00565558 0.0126264 0.0222083 0.034242 0.0485317 0.0648492 0.082938 0.102517 0.123286 0.144927 0.167111 0.189495 0.211744 0.233535 0.254527 0.2744 0.292849 0.309589 0.324355 0.336914 0.347061 0.354627 0.359576 0.361554 0.360748 0.357271 0.350733 0.341587 0.329854 0.31571 0.299376 0.281109 0.261203 0.23998 0.217785 0.194982 0.171953 0.149069 0.126699 0.105219 0.0849789 0.0663072 0.0495031 0.0348327 0.0225247 0.0127663 0.00570135 0.00142812 1.54695e-26 0 0.00137667 0.00547327 0.0122164 0.0214822 0.0331155 0.046926 0.0626928 0.0801682 0.0990815 0.119143 0.140047 0.161479 0.183109 0.204615 0.225685 0.245993 0.26523 0.283103 0.299335 0.313672 0.325884 0.335773 0.343172 0.348035 0.350059 0.34931 0.346002 0.339714 0.330899 0.319572 0.305904 0.290107 0.27243 0.253157 0.232601 0.211096 0.188998 0.166676 0.144491 0.122804 0.101978 0.0823559 0.0642549 0.0479661 0.0337475 0.0218203 0.0123655 0.00552159 0.00138291 1.49797e-26 0 0.00130941 0.00520445 0.0116129 0.0204154 0.031463 0.044574 0.0595383 0.076121 0.0940657 0.113099 0.132933 0.153269 0.1738 0.194219 0.214234 0.233536 0.251835 0.268851 0.284322 0.298006 0.309684 0.319166 0.32629 0.330996 0.333044 0.332397 0.32936 0.323459 0.315147 0.304433 0.291476 0.276478 0.259675 0.241338 0.221765 0.201277 0.180213 0.158928 0.13777 0.117084 0.0972187 0.0785016 0.0612377 0.045705 0.0321497 0.0207822 0.0117742 0.00525615 0.00131607 1.42539e-26 0 0.00122148 0.00485332 0.0108254 0.0190246 0.0293106 0.041513 0.0554357 0.0708602 0.0875492 0.105249 0.123695 0.142611 0.161714 0.180722 0.199363 0.217353 0.234424 0.250317 0.264786 0.277606 0.288572 0.297503 0.304246 0.308729 0.310778 0.310251 0.307541 0.302127 0.294456 0.284528 0.272491 0.258531 0.242869 0.225756 0.207473 0.188322 0.168621 0.148705 0.128903 0.109539 0.0909428 0.0734221 0.0572639 0.0427292 0.0300486 0.0194184 0.0109981 0.00490808 0.00122851 1.33036e-26 0 0.00111426 0.0044254 0.00986631 0.0173319 0.0266922 0.037791 0.0504494 0.0644689 0.0796346 0.0957179 0.11248 0.129673 0.147043 0.164336 0.181307 0.197701 0.213275 0.227794 0.241036 0.252795 0.26288 0.271127 0.27739 0.281589 0.283612 0.283225 0.280889 0.276057 0.269153 0.260174 0.24925 0.23655 0.222276 0.206657 0.189951 0.172435 0.154405 0.136168 0.118029 0.100288 0.0832498 0.0671976 0.0523962 0.0390856 0.0274772 0.0177503 0.0100494 0.00448286 0.00112161 1.21438e-26 0 0.000989424 0.00392741 0.00875077 0.0153638 0.0236491 0.0334669 0.0446582 0.0570478 0.0704468 0.0846552 0.0994644 0.114659 0.130018 0.14532 0.16035 0.174888 0.18872 0.201638 0.213448 0.223963 0.233015 0.240453 0.246146 0.250003 0.251972 0.251746 0.249825 0.245659 0.239638 0.231753 0.222119 0.210882 0.198222 0.184342 0.169475 0.153869 0.13779 0.121515 0.105321 0.0894781 0.0742613 0.0599264 0.0467114 0.0348318 0.0244763 0.0158042 0.00894308 0.0039872 0.000997054 1.07926e-26 0 0.000848944 0.00336717 0.00749631 0.0131514 0.0202292 0.0286087 0.0381533 0.0487139 0.0601308 0.0722357 0.084854 0.0978061 0.110908 0.123973 0.136825 0.149276 0.161147 0.172262 0.182455 0.191566 0.199448 0.205968 0.211008 0.214473 0.216359 0.216313 0.21484 0.211413 0.206377 0.199716 0.191527 0.181933 0.171086 0.159165 0.146369 0.132915 0.119037 0.104977 0.0909783 0.0772788 0.064119 0.0517232 0.0402994 0.0300349 0.0210932 0.0136109 0.0076966 0.00342893 0.000856805 9.2713e-27 0 0.000695027 0.00275349 0.00612267 0.0107294 0.0164864 0.023293 0.0310373 0.0395987 0.0488491 0.0586552 0.068879 0.0793797 0.0900136 0.100634 0.111101 0.121267 0.130991 0.14013 0.148548 0.156116 0.162708 0.168213 0.172528 0.175568 0.177311 0.177511 0.176465 0.173867 0.169894 0.164567 0.157955 0.150157 0.141297 0.131521 0.120997 0.109905 0.0984435 0.0868152 0.075228 0.0638829 0.052983 0.0427176 0.0332613 0.0247707 0.0173812 0.011205 0.00632961 0.00281685 0.000703074 7.60384e-27 0 0.000530095 0.00209601 0.00465151 0.00813615 0.0124798 0.0176037 0.0234224 0.0298458 0.0367798 0.0441279 0.0517915 0.0596707 0.0676645 0.0756686 0.0835836 0.0913044 0.0987268 0.105747 0.112262 0.11817 0.123375 0.127785 0.131315 0.13389 0.135469 0.135924 0.135327 0.133606 0.130764 0.126861 0.121935 0.116058 0.109325 0.101848 0.093759 0.0852019 0.0763331 0.0673162 0.0583186 0.049502 0.0410292 0.0330516 0.0257081 0.019122 0.0133989 0.00862442 0.00486369 0.00216061 0.000538284 5.81644e-27 0 0.000356743 0.00140509 0.00310598 0.00541241 0.00827239 0.0116303 0.0154287 0.0196091 0.0241131 0.0288828 0.0338607 0.0389898 0.044213 0.0494719 0.0547074 0.0598593 0.0648639 0.0696556 0.0741666 0.0783277 0.0820689 0.085321 0.0880175 0.090096 0.091503 0.0921906 0.0920887 0.0912586 0.0896051 0.0871922 0.0840331 0.0801728 0.0756735 0.0706134 0.0650854 0.0591945 0.053055 0.0467876 0.0405168 0.034363 0.0284462 0.0228779 0.0177591 0.0131782 0.00920914 0.00590986 0.00332195 0.00147057 0.000365035 3.93722e-27 0 0.000177704 0.000691599 0.00151048 0.00260122 0.00393076 0.00546756 0.00718272 0.00905075 0.0110499 0.0131618 0.0153714 0.0176655 0.0200319 0.0224582 0.0249302 0.0274307 0.0299383 0.0324272 0.0348658 0.0372175 0.0394408 0.0414903 0.0433179 0.0448748 0.0461136 0.0469817 0.0474525 0.0474786 0.0470692 0.0461856 0.044847 0.0430664 0.040873 0.0383089 0.0354279 0.0322933 0.0289763 0.0255533 0.0221034 0.0187045 0.0154324 0.0123568 0.00953956 0.00703294 0.00487802 0.00310414 0.00172872 0.000757614 0.000186057 1.99579e-27 0 -4.17169e-06 -3.29798e-05 -0.000109119 -0.000251533 -0.000473845 -0.000783147 -0.00117922 -0.00165426 -0.00219305 -0.00277376 -0.00336908 -0.0039478 -0.00447663 -0.00492235 -0.00525389 -0.00544413 -0.00547193 -0.00532362 -0.00499386 -0.00448632 -0.00381367 -0.00299713 -0.00206543 -0.00105337 -2.61325e-09 0.00105338 0.00206547 0.0029972 0.00381375 0.00448639 0.00499392 0.00532365 0.00547193 0.00544407 0.00525383 0.00492234 0.0044766 0.00394777 0.00336908 0.00277377 0.00219306 0.00165426 0.00117922 0.000783144 0.000473845 0.000251533 0.000109119 3.29798e-05 4.17169e-06 2.27197e-29 0 -0.000186057 -0.000757614 -0.00172872 -0.00310414 -0.00487802 -0.00703295 -0.00953956 -0.0123568 -0.0154324 -0.0187045 -0.0221034 -0.0255533 -0.0289764 -0.0322933 -0.035428 -0.038309 -0.040873 -0.0430663 -0.0448469 -0.0461855 -0.0470691 -0.0474785 -0.0474525 -0.0469817 -0.0461136 -0.0448748 -0.0433178 -0.0414902 -0.0394408 -0.0372175 -0.0348658 -0.0324271 -0.0299383 -0.0274307 -0.0249302 -0.0224582 -0.0200319 -0.0176655 -0.0153714 -0.0131618 -0.0110499 -0.00905075 -0.00718272 -0.00546756 -0.00393076 -0.00260122 -0.00151048 -0.000691599 -0.000177704 -1.95088e-27 0 -0.000365035 -0.00147057 -0.00332195 -0.00590986 -0.00920914 -0.0131782 -0.0177591 -0.0228779 -0.0284462 -0.0343629 -0.0405168 -0.0467876 -0.0530551 -0.0591946 -0.0650855 -0.0706135 -0.0756735 -0.0801728 -0.0840331 -0.0871922 -0.0896051 -0.0912585 -0.0920887 -0.0921906 -0.091503 -0.090096 -0.0880175 -0.085321 -0.0820688 -0.0783276 -0.0741666 -0.0696556 -0.0648639 -0.0598593 -0.0547074 -0.0494719 -0.044213 -0.0389898 -0.0338607 -0.0288828 -0.0241131 -0.0196091 -0.0154287 -0.0116303 -0.00827239 -0.00541241 -0.00310598 -0.00140509 -0.000356743 -3.89389e-27 0 -0.000538284 -0.00216061 -0.00486369 -0.00862442 -0.0133989 -0.019122 -0.0257081 -0.0330516 -0.0410292 -0.049502 -0.0583186 -0.0673162 -0.0763332 -0.085202 -0.0937591 -0.101848 -0.109325 -0.116058 -0.121935 -0.126861 -0.130764 -0.133606 -0.135327 -0.135924 -0.135469 -0.13389 -0.131315 -0.127785 -0.123375 -0.11817 -0.112262 -0.105747 -0.0987268 -0.0913044 -0.0835836 -0.0756686 -0.0676644 -0.0596707 -0.0517915 -0.0441279 -0.0367798 -0.0298458 -0.0234224 -0.0176037 -0.0124798 -0.00813615 -0.00465151 -0.00209601 -0.000530095 -5.77566e-27 0 -0.000703074 -0.00281685 -0.00632961 -0.011205 -0.0173812 -0.0247707 -0.0332613 -0.0427176 -0.052983 -0.0638829 -0.075228 -0.0868153 -0.0984436 -0.109906 -0.120997 -0.131522 -0.141297 -0.150157 -0.157956 -0.164567 -0.169894 -0.173867 -0.176465 -0.177511 -0.177311 -0.175567 -0.172528 -0.168213 -0.162708 -0.156116 -0.148548 -0.14013 -0.130991 -0.121267 -0.111101 -0.100634 -0.0900136 -0.0793797 -0.068879 -0.0586552 -0.0488491 -0.0395987 -0.0310373 -0.023293 -0.0164864 -0.0107294 -0.00612267 -0.00275349 -0.000695027 -7.56646e-27 0 -0.000856805 -0.00342893 -0.0076966 -0.0136109 -0.0210932 -0.0300349 -0.0402994 -0.0517232 -0.064119 -0.0772788 -0.0909783 -0.104977 -0.119038 -0.132916 -0.146369 -0.159165 -0.171086 -0.181933 -0.191527 -0.199716 -0.206377 -0.211413 -0.21484 -0.216313 -0.216359 -0.214473 -0.211008 -0.205968 -0.199448 -0.191566 -0.182455 -0.172262 -0.161147 -0.149276 -0.136825 -0.123973 -0.110908 -0.0978061 -0.084854 -0.0722357 -0.0601308 -0.0487139 -0.0381533 -0.0286087 -0.0202292 -0.0131514 -0.00749631 -0.00336717 -0.000848944 -9.23801e-27 0 -0.000997054 -0.0039872 -0.00894308 -0.0158042 -0.0244763 -0.0348318 -0.0467115 -0.0599264 -0.0742613 -0.0894781 -0.105321 -0.121515 -0.13779 -0.153869 -0.169475 -0.184342 -0.198222 -0.210882 -0.222119 -0.231753 -0.239638 -0.245659 -0.249825 -0.251746 -0.251972 -0.250003 -0.246146 -0.240453 -0.233015 -0.223963 -0.213447 -0.201638 -0.18872 -0.174888 -0.16035 -0.14532 -0.130018 -0.114659 -0.0994644 -0.0846552 -0.0704468 -0.0570478 -0.0446582 -0.0334669 -0.0236491 -0.0153638 -0.00875077 -0.00392741 -0.000989424 -1.07639e-26 0 -0.00112161 -0.00448286 -0.0100494 -0.0177503 -0.0274772 -0.0390856 -0.0523962 -0.0671976 -0.0832498 -0.100288 -0.118029 -0.136168 -0.154405 -0.172436 -0.189951 -0.206657 -0.222276 -0.23655 -0.24925 -0.260174 -0.269153 -0.276057 -0.280889 -0.283225 -0.283612 -0.281589 -0.27739 -0.271127 -0.26288 -0.252795 -0.241036 -0.227794 -0.213275 -0.197701 -0.181307 -0.164336 -0.147043 -0.129673 -0.11248 -0.0957179 -0.0796346 -0.0644689 -0.0504494 -0.037791 -0.0266922 -0.0173319 -0.00986631 -0.0044254 -0.00111426 -1.212e-26 0 -0.00122851 -0.00490808 -0.0109981 -0.0194184 -0.0300486 -0.0427292 -0.0572639 -0.0734221 -0.0909428 -0.109539 -0.128903 -0.148705 -0.168621 -0.188322 -0.207473 -0.225756 -0.242869 -0.258531 -0.272491 -0.284528 -0.294456 -0.302127 -0.307541 -0.310251 -0.310778 -0.308729 -0.304246 -0.297503 -0.288572 -0.277606 -0.264786 -0.250317 -0.234424 -0.217353 -0.199363 -0.180722 -0.161714 -0.142612 -0.123695 -0.105249 -0.0875492 -0.0708602 -0.0554357 -0.041513 -0.0293106 -0.0190246 -0.0108254 -0.00485332 -0.00122148 -1.32849e-26 0 -0.00131607 -0.00525615 -0.0117742 -0.0207822 -0.0321497 -0.045705 -0.0612377 -0.0785016 -0.0972187 -0.117084 -0.13777 -0.158928 -0.180213 -0.201277 -0.221765 -0.241338 -0.259675 -0.276478 -0.291476 -0.304433 -0.315147 -0.323459 -0.32936 -0.332397 -0.333044 -0.330996 -0.32629 -0.319166 -0.309684 -0.298006 -0.284322 -0.268851 -0.251835 -0.233536 -0.214234 -0.194219 -0.1738 -0.15327 -0.132933 -0.113099 -0.0940657 -0.076121 -0.0595383 -0.044574 -0.031463 -0.0204154 -0.0116129 -0.00520445 -0.00130941 -1.424e-26 0 -0.00138291 -0.00552159 -0.0123655 -0.0218203 -0.0337475 -0.0479661 -0.0642549 -0.082356 -0.101978 -0.122804 -0.144491 -0.166676 -0.188998 -0.211096 -0.232601 -0.253157 -0.27243 -0.290107 -0.305904 -0.319572 -0.330899 -0.339714 -0.346002 -0.34931 -0.350059 -0.348035 -0.343172 -0.335773 -0.325884 -0.313672 -0.299335 -0.283103 -0.26523 -0.245993 -0.225685 -0.204615 -0.183109 -0.161479 -0.140047 -0.119143 -0.0990814 -0.0801682 -0.0626928 -0.046926 -0.0331155 -0.0214822 -0.0122164 -0.00547327 -0.00137667 -1.49704e-26 0 -0.00142812 -0.00570135 -0.0127663 -0.0225247 -0.0348327 -0.049503 -0.0663072 -0.0849789 -0.105219 -0.126699 -0.149069 -0.171953 -0.194982 -0.217785 -0.23998 -0.261203 -0.281109 -0.299376 -0.31571 -0.329854 -0.341587 -0.350733 -0.357271 -0.360748 -0.361554 -0.359576 -0.354627 -0.347061 -0.336914 -0.324355 -0.309589 -0.292849 -0.2744 -0.254527 -0.233535 -0.211745 -0.189495 -0.167111 -0.144927 -0.123286 -0.102517 -0.082938 -0.0648492 -0.0485317 -0.034242 -0.0222083 -0.0126264 -0.00565558 -0.00142219 -1.54644e-26 0 -0.00145041 -0.00578804 -0.0129555 -0.0228503 -0.0353245 -0.050187 -0.0672056 -0.0861112 -0.106602 -0.128347 -0.150994 -0.174166 -0.197492 -0.2206 -0.243105 -0.264643 -0.284865 -0.303445 -0.320088 -0.334529 -0.346546 -0.355953 -0.362717 -0.366428 -0.36735 -0.365476 -0.360541 -0.352947 -0.342717 -0.330022 -0.315067 -0.298089 -0.279356 -0.259159 -0.237809 -0.215635 -0.192982 -0.170186 -0.147587 -0.12554 -0.10438 -0.0844335 -0.0660073 -0.0493886 -0.0348388 -0.0225897 -0.0128398 -0.0057495 -0.00144539 -1.57141e-26 0 -0.00145041 -0.00578799 -0.0129553 -0.0228496 -0.0353231 -0.0501842 -0.067201 -0.0861043 -0.106592 -0.128333 -0.150977 -0.174147 -0.19747 -0.220576 -0.243081 -0.26462 -0.284843 -0.303426 -0.320071 -0.334516 -0.346537 -0.355947 -0.362715 -0.366428 -0.36735 -0.365478 -0.360546 -0.352957 -0.342734 -0.330045 -0.315096 -0.298123 -0.279393 -0.259198 -0.237848 -0.215672 -0.193016 -0.170216 -0.147613 -0.12556 -0.104396 -0.0844445 -0.0660145 -0.0493929 -0.034841 -0.0225907 -0.0128402 -0.00574958 -0.0014454 -1.57157e-26 0 -0.00142718 -0.00569387 -0.0127416 -0.0224677 -0.0347255 -0.049326 -0.0660408 -0.0846057 -0.104725 -0.126075 -0.148311 -0.171067 -0.193979 -0.216683 -0.238806 -0.25999 -0.279893 -0.298196 -0.314608 -0.32887 -0.340758 -0.350091 -0.356825 -0.360587 -0.361561 -0.359857 -0.355103 -0.347731 -0.337752 -0.325331 -0.310666 -0.29399 -0.275567 -0.255684 -0.234648 -0.212785 -0.190439 -0.167942 -0.145636 -0.123869 -0.102978 -0.0832859 -0.0650973 -0.0486966 -0.0343419 -0.0222614 -0.0126495 -0.00566255 -0.00142307 -1.54692e-26 0 -0.00138161 -0.00551124 -0.0123312 -0.0217411 -0.0335983 -0.0477195 -0.0638836 -0.081835 -0.101288 -0.121931 -0.143432 -0.165437 -0.187594 -0.209556 -0.23096 -0.251461 -0.270731 -0.288461 -0.304368 -0.318