<?xml version="1.0"?>
<VTKFile type="PolyData">
	<PolyData>
		<Piece NumberOfPoints="2601" NumberOfPolys="2500">
			<Points>
				<DataArray type="Float32" NumberOfComponents="3" format="ascii">
 0 0 0 0.02 0 0 0.04 0 0 0.06 0 0 0.08 0 0 0.1 0 0 0.12 0 0 0.14 0 0 0.16 0 0 0.18 0 0 0.2 0 0 0.22 0 0 0.24 0 0 0.26 0 0 0.28 0 0 0.3 0 0 0.32 0 0 0.34 0 0 0.36 0 0 0.38 0 0 0.4 0 0 0.42 0 0 0.44 0 0 0.46 0 0 0.48 0 0 0.5 0 0 0.52 0 0 0.54 0 0 0.56 0 0 0.58 0 0 0.6 0 0 0.62 0 0 0.64 0 0 0.66 0 0 0.68 0 0 0.7 0 0 0.72 0 0 0.74 0 0 0.76 0 0 0.78 0 0 0.8 0 0 0.82 0 0 0.84 0 0 0.86 0 0 0.88 0 0 0.9 0 0 0.92 0 0 0.94 0 0 0.96 0 0 0.98 0 0 1 0 0 0 0.02 0 0.02 0.02 0 0.04 0.02 0 0.06 0.02 0 0.08 0.02 0 0.1 0.02 0 0.12 0.02 0 0.14 0.02 0 0.16 0.02 0 0.18 0.02 0 0.2 0.02 0 0.22 0.02 0 0.24 0.02 0 0.26 0.02 0 0.28 0.02 0 0.3 0.02 0 0.32 0.02 0 0.34 0.02 0 0.36 0.02 0 0.38 0.02 0 0.4 0.02 0 0.42 0.02 0 0.44 0.02 0 0.46 0.02 0 0.48 0.02 0 0.5 0.02 0 0.52 0.02 0 0.54 0.02 0 0.56 0.02 0 0.58 0.02 0 0.6 0.02 0 0.62 0.02 0 0.64 0.02 0 0.66 0.02 0 0.68 0.02 0 0.7 0.02 0 0.72 0.02 0 0.74 0.02 0 0.76 0.02 0 0.78 0.02 0 0.8 0.02 0 0.82 0.02 0 0.84 0.02 0 0.86 0.02 0 0.88 0.02 0 0.9 0.02 0 0.92 0.02 0 0.94 0.02 0 0.96 0.02 0 0.98 0.02 0 1 0.02 0 0 0.04 0 0.02 0.04 0 0.04 0.04 0 0.06 0.04 0 0.08 0.04 0 0.1 0.04 0 0.12 0.04 0 0.14 0.04 0 0.16 0.04 0 0.18 0.04 0 0.2 0.04 0 0.22 0.04 0 0.24 0.04 0 0.26 0.04 0 0.28 0.04 0 0.3 0.04 0 0.32 0.04 0 0.34 0.04 0 0.36 0.04 0 0.38 0.04 0 0.4 0.04 0 0.42 0.04 0 0.44 0.04 0 0.46 0.04 0 0.48 0.04 0 0.5 0.04 0 0.52 0.04 0 0.54 0.04 0 0.56 0.04 0 0.58 0.04 0 0.6 0.04 0 0.62 0.04 0 0.64 0.04 0 0.66 0.04 0 0.68 0.04 0 0.7 0.04 0 0.72 0.04 0 0.74 0.04 0 0.76 0.04 0 0.78 0.04 0 0.8 0.04 0 0.82 0.04 0 0.84 0.04 0 0.86 0.04 0 0.88 0.04 0 0.9 0.04 0 0.92 0.04 0 0.94 0.04 0 0.96 0.04 0 0.98 0.04 0 1 0.04 0 0 0.06 0 0.02 0.06 0 0.04 0.06 0 0.06 0.06 0 0.08 0.06 0 0.1 0.06 0 0.12 0.06 0 0.14 0.06 0 0.16 0.06 0 0.18 0.06 0 0.2 0.06 0 0.22 0.06 0 0.24 0.06 0 0.26 0.06 0 0.28 0.06 0 0.3 0.06 0 0.32 0.06 0 0.34 0.06 0 0.36 0.06 0 0.38 0.06 0 0.4 0.06 0 0.42 0.06 0 0.44 0.06 0 0.46 0.06 0 0.48 0.06 0 0.5 0.06 0 0.52 0.06 0 0.54 0.06 0 0.56 0.06 0 0.58 0.06 0 0.6 0.06 0 0.62 0.06 0 0.64 0.06 0 0.66 0.06 0 0.68 0.06 0 0.7 0.06 0 0.72 0.06 0 0.74 0.06 0 0.76 0.06 0 0.78 0.06 0 0.8 0.06 0 0.82 0.06 0 0.84 0.06 0 0.86 0.06 0 0.88 0.06 0 0.9 0.06 0 0.92 0.06 0 0.94 0.06 0 0.96 0.06 0 0.98 0.06 0 1 0.06 0 0 0.08 0 0.02 0.08 0 0.04 0.08 0 0.06 0.08 0 0.08 0.08 0 0.1 0.08 0 0.12 0.08 0 0.14 0.08 0 0.16 0.08 0 0.18 0.08 0 0.2 0.08 0 0.22 0.08 0 0.24 0.08 0 0.26 0.08 0 0.28 0.08 0 0.3 0.08 0 0.32 0.08 0 0.34 0.08 0 0.36 0.08 0 0.38 0.08 0 0.4 0.08 0 0.42 0.08 0 0.44 0.08 0 0.46 0.08 0 0.48 0.08 0 0.5 0.08 0 0.52 0.08 0 0.54 0.08 0 0.56 0.08 0 0.58 0.08 0 0.6 0.08 0 0.62 0.08 0 0.64 0.08 0 0.66 0.08 0 0.68 0.08 0 0.7 0.08 0 0.72 0.08 0 0.74 0.08 0 0.76 0.08 0 0.78 0.08 0 0.8 0.08 0 0.82 0.08 0 0.84 0.08 0 0.86 0.08 0 0.88 0.08 0 0.9 0.08 0 0.92 0.08 0 0.94 0.08 0 0.96 0.08 0 0.98 0.08 0 1 0.08 0 0 0.1 0 0.02 0.1 0 0.04 0.1 0 0.06 0.1 0 0.08 0.1 0 0.1 0.1 0 0.12 0.1 0 0.14 0.1 0 0.16 0.1 0 0.18 0.1 0 0.2 0.1 0 0.22 0.1 0 0.24 0.1 0 0.26 0.1 0 0.28 0.1 0 0.3 0.1 0 0.32 0.1 0 0.34 0.1 0 0.36 0.1 0 0.38 0.1 0 0.4 0.1 0 0.42 0.1 0 0.44 0.1 0 0.46 0.1 0 0.48 0.1 0 0.5 0.1 0 0.52 0.1 0 0.54 0.1 0 0.56 0.1 0 0.58 0.1 0 0.6 0.1 0 0.62 0.1 0 0.64 0.1 0 0.66 0.1 0 0.68 0.1 0 0.7 0.1 0 0.72 0.1 0 0.74 0.1 0 0.76 0.1 0 0.78 0.1 0 0.8 0.1 0 0.82 0.1 0 0.84 0.1 0 0.86 0.1 0 0.88 0.1 0 0.9 0.1 0 0.92 0.1 0 0.94 0.1 0 0.96 0.1 0 0.98 0.1 0 1 0.1 0 0 0.12 0 0.02 0.12 0 0.04 0.12 0 0.06 0.12 0 0.08 0.12 0 0.1 0.12 0 0.12 0.12 0 0.14 0.12 0 0.16 0.12 0 0.18 0.12 0 0.2 0.12 0 0.22 0.12 0 0.24 0.12 0 0.26 0.12 0 0.28 0.12 0 0.3 0.12 0 0.32 0.12 0 0.34 0.12 0 0.36 0.12 0 0.38 0.12 0 0.4 0.12 0 0.42 0.12 0 0.44 0.12 0 0.46 0.12 0 0.48 0.12 0 0.5 0.12 0 0.52 0.12 0 0.54 0.12 0 0.56 0.12 0 0.58 0.12 0 0.6 0.12 0 0.62 0.12 0 0.64 0.12 0 0.66 0.12 0 0.68 0.12 0 0.7 0.12 0 0.72 0.12 0 0.74 0.12 0 0.76 0.12 0 0.78 0.12 0 0.8 0.12 0 0.82 0.12 0 0.84 0.12 0 0.86 0.12 0 0.88 0.12 0 0.9 0.12 0 0.92 0.12 0 0.94 0.12 0 0.96 0.12 0 0.98 0.12 0 1 0.12 0 0 0.14 0 0.02 0.14 0 0.04 0.14 0 0.06 0.14 0 0.08 0.14 0 0.1 0.14 0 0.12 0.14 0 0.14 0.14 0 0.16 0.14 0 0.18 0.14 0 0.2 0.14 0 0.22 0.14 0 0.24 0.14 0 0.26 0.14 0 0.28 0.14 0 0.3 0.14 0 0.32 0.14 0 0.34 0.14 0 0.36 0.14 0 0.38 0.14 0 0.4 0.14 0 0.42 0.14 0 0.44 0.14 0 0.46 0.14 0 0.48 0.14 0 0.5 0.14 0 0.52 0.14 0 0.54 0.14 0 0.56 0.14 0 0.58 0.14 0 0.6 0.14 0 0.62 0.14 0 0.64 0.14 0 0.66 0.14 0 0.68 0.14 0 0.7 0.14 0 0.72 0.14 0 0.74 0.14 0 0.76 0.14 0 0.78 0.14 0 0.8 0.14 0 0.82 0.14 0 0.84 0.14 0 0.86 0.14 0 0.88 0.14 0 0.9 0.14 0 0.92 0.14 0 0.94 0.14 0 0.96 0.14 0 0.98 0.14 0 1 0.14 0 0 0.16 0 0.02 0.16 0 0.04 0.16 0 0.06 0.16 0 0.08 0.16 0 0.1 0.16 0 0.12 0.16 0 0.14 0.16 0 0.16 0.16 0 0.18 0.16 0 0.2 0.16 0 0.22 0.16 0 0.24 0.16 0 0.26 0.16 0 0.28 0.16 0 0.3 0.16 0 0.32 0.16 0 0.34 0.16 0 0.36 0.16 0 0.38 0.16 0 0.4 0.16 0 0.42 0.16 0 0.44 0.16 0 0.46 0.16 0 0.48 0.16 0 0.5 0.16 0 0.52 0.16 0 0.54 0.16 0 0.56 0.16 0 0.58 0.16 0 0.6 0.16 0 0.62 0.16 0 0.64 0.16 0 0.66 0.16 0 0.68 0.16 0 0.7 0.16 0 0.72 0.16 0 0.74 0.16 0 0.76 0.16 0 0.78 0.16 0 0.8 0.16 0 0.82 0.16 0 0.84 0.16 0 0.86 0.16 0 0.88 0.16 0 0.9 0.16 0 0.92 0.16 0 0.94 0.16 0 0.96 0.16 0 0.98 0.16 0 1 0.16 0 0 0.18 0 0.02 0.18 0 0.04 0.18 0 0.06 0.18 0 0.08 0.18 0 0.1 0.18 0 0.12 0.18 0 0.14 0.18 0 0.16 0.18 0 0.18 0.18 0 0.2 0.18 0 0.22 0.18 0 0.24 0.18 0 0.26 0.18 0 0.28 0.18 0 0.3 0.18 0 0.32 0.18 0 0.34 0.18 0 0.36 0.18 0 0.38 0.18 0 0.4 0.18 0 0.42 0.18 0 0.44 0.18 0 0.46 0.18 0 0.48 0.18 0 0.5 0.18 0 0.52 0.18 0 0.54 0.18 0 0.56 0.18 0 0.58 0.18 0 0.6 0.18 0 0.62 0.18 0 0.64 0.18 0 0.66 0.18 0 0.68 0.18 0 0.7 0.18 0 0.72 0.18 0 0.74 0.18 0 0.76 0.18 0 0.78 0.18 0 0.8 0.18 0 0.82 0.18 0 0.84 0.18 0 0.86 0.18 0 0.88 0.18 0 0.9 0.18 0 0.92 0.18 0 0.94 0.18 0 0.96 0.18 0 0.98 0.18 0 1 0.18 0 0 0.2 0 0.02 0.2 0 0.04 0.2 0 0.06 0.2 0 0.08 0.2 0 0.1 0.2 0 0.12 0.2 0 0.14 0.2 0 0.16 0.2 0 0.18 0.2 0 0.2 0.2 0 0.22 0.2 0 0.24 0.2 0 0.26 0.2 0 0.28 0.2 0 0.3 0.2 0 0.32 0.2 0 0.34 0.2 0 0.36 0.2 0 0.38 0.2 0 0.4 0.2 0 0.42 0.2 0 0.44 0.2 0 0.46 0.2 0 0.48 0.2 0 0.5 0.2 0 0.52 0.2 0 0.54 0.2 0 0.56 0.2 0 0.58 0.2 0 0.6 0.2 0 0.62 0.2 0 0.64 0.2 0 0.66 0.2 0 0.68 0.2 0 0.7 0.2 0 0.72 0.2 0 0.74 0.2 0 0.76 0.2 0 0.78 0.2 0 0.8 0.2 0 0.82 0.2 0 0.84 0.2 0 0.86 0.2 0 0.88 0.2 0 0.9 0.2 0 0.92 0.2 0 0.94 0.2 0 0.96 0.2 0 0.98 0.2 0 1 0.2 0 0 0.22 0 0.02 0.22 0 0.04 0.22 0 0.06 0.22 0 0.08 0.22 0 0.1 0.22 0 0.12 0.22 0 0.14 0.22 0 0.16 0.22 0 0.18 0.22 0 0.2 0.22 0 0.22 0.22 0 0.24 0.22 0 0.26 0.22 0 0.28 0.22 0 0.3 0.22 0 0.32 0.22 0 0.34 0.22 0 0.36 0.22 0 0.38 0.22 0 0.4 0.22 0 0.42 0.22 0 0.44 0.22 0 0.46 0.22 0 0.48 0.22 0 0.5 0.22 0 0.52 0.22 0 0.54 0.22 0 0.56 0.22 0 0.58 0.22 0 0.6 0.22 0 0.62 0.22 0 0.64 0.22 0 0.66 0.22 0 0.68 0.22 0 0.7 0.22 0 0.72 0.22 0 0.74 0.22 0 0.76 0.22 0 0.78 0.22 0 0.8 0.22 0 0.82 0.22 0 0.84 0.22 0 0.86 0.22 0 0.88 0.22 0 0.9 0.22 0 0.92 0.22 0 0.94 0.22 0 0.96 0.22 0 0.98 0.22 0 1 0.22 0 0 0.24 0 0.02 0.24 0 0.04 0.24 0 0.06 0.24 0 0.08 0.24 0 0.1 0.24 0 0.12 0.24 0 0.14 0.24 0 0.16 0.24 0 0.18 0.24 0 0.2 0.24 0 0.22 0.24 0 0.24 0.24 0 0.26 0.24 0 0.28 0.24 0 0.3 0.24 0 0.32 0.24 0 0.34 0.24 0 0.36 0.24 0 0.38 0.24 0 0.4 0.24 0 0.42 0.24 0 0.44 0.24 0 0.46 0.24 0 0.48 0.24 0 0.5 0.24 0 0.52 0.24 0 0.54 0.24 0 0.56 0.24 0 0.58 0.24 0 0.6 0.24 0 0.62 0.24 0 0.64 0.24 0 0.66 0.24 0 0.68 0.24 0 0.7 0.24 0 0.72 0.24 0 0.74 0.24 0 0.76 0.24 0 0.78 0.24 0 0.8 0.24 0 0.82 0.24 0 0.84 0.24 0 0.86 0.24 0 0.88 0.24 0 0.9 0.24 0 0.92 0.24 0 0.94 0.24 0 0.96 0.24 0 0.98 0.24 0 1 0.24 0 0 0.26 0 0.02 0.26 0 0.04 0.26 0 0.06 0.26 0 0.08 0.26 0 0.1 0.26 0 0.12 0.26 0 0.14 0.26 0 0.16 0.26 0 0.18 0.26 0 0.2 0.26 0 0.22 0.26 0 0.24 0.26 0 0.26 0.26 0 0.28 0.26 0 0.3 0.26 0 0.32 0.26 0 0.34 0.26 0 0.36 0.26 0 0.38 0.26 0 0.4 0.26 0 0.42 0.26 0 0.44 0.26 0 0.46 0.26 0 0.48 0.26 0 0.5 0.26 0 0.52 0.26 0 0.54 0.26 0 0.56 0.26 0 0.58 0.26 0 0.6 0.26 0 0.62 0.26 0 0.64 0.26 0 0.66 0.26 0 0.68 0.26 0 0.7 0.26 0 0.72 0.26 0 0.74 0.26 0 0.76 0.26 0 0.78 0.26 0 0.8 0.26 0 0.82 0.26 0 0.84 0.26 0 0.86 0.26 0 0.88 0.26 0 0.9 0.26 0 0.92 0.26 0 0.94 0.26 0 0.96 0.26 0 0.98 0.26 0 1 0.26 0 0 0.28 0 0.02 0.28 0 0.04 0.28 0 0.06 0.28 0 0.08 0.28 0 0.1 0.28 0 0.12 0.28 0 0.14 0.28 0 0.16 0.28 0 0.18 0.28 0 0.2 0.28 0 0.22 0.28 0 0.24 0.28 0 0.26 0.28 0 0.28 0.28 0 0.3 0.28 0 0.32 0.28 0 0.34 0.28 0 0.36 0.28 0 0.38 0.28 0 0.4 0.28 0 0.42 0.28 0 0.44 0.28 0 0.46 0.28 0 0.48 0.28 0 0.5 0.28 0 0.52 0.28 0 0.54 0.28 0 0.56 0.28 0 0.58 0.28 0 0.6 0.28 0 0.62 0.28 0 0.64 0.28 0 0.66 0.28 0 0.68 0.28 0 0.7 0.28 0 0.72 0.28 0 0.74 0.28 0 0.76 0.28 0 0.78 0.28 0 0.8 0.28 0 0.82 0.28 0 0.84 0.28 0 0.86 0.28 0 0.88 0.28 0 0.9 0.28 0 0.92 0.28 0 0.94 0.28 0 0.96 0.28 0 0.98 0.28 0 1 0.28 0 0 0.3 0 0.02 0.3 0 0.04 0.3 0 0.06 0.3 0 0.08 0.3 0 0.1 0.3 0 0.12 0.3 0 0.14 0.3 0 0.16 0.3 0 0.18 0.3 0 0.2 0.3 0 0.22 0.3 0 0.24 0.3 0 0.26 0.3 0 0.28 0.3 0 0.3 0.3 0 0.32 0.3 0 0.34 0.3 0 0.36 0.3 0 0.38 0.3 0 0.4 0.3 0 0.42 0.3 0 0.44 0.3 0 0.46 0.3 0 0.48 0.3 0 0.5 0.3 0 0.52 0.3 0 0.54 0.3 0 0.56 0.3 0 0.58 0.3 0 0.6 0.3 0 0.62 0.3 0 0.64 0.3 0 0.66 0.3 0 0.68 0.3 0 0.7 0.3 0 0.72 0.3 0 0.74 0.3 0 0.76 0.3 0 0.78 0.3 0 0.8 0.3 0 0.82 0.3 0 0.84 0.3 0 0.86 0.3 0 0.88 0.3 0 0.9 0.3 0 0.92 0.3 0 0.94 0.3 0 0.96 0.3 0 0.98 0.3 0 1 0.3 0 0 0.32 0 0.02 0.32 0 0.04 0.32 0 0.06 0.32 0 0.08 0.32 0 0.1 0.32 0 0.12 0.32 0 0.14 0.32 0 0.16 0.32 0 0.18 0.32 0 0.2 0.32 0 0.22 0.32 0 0.24 0.32 0 0.26 0.32 0 0.28 0.32 0 0.3 0.32 0 0.32 0.32 0 0.34 0.32 0 0.36 0.32 0 0.38 0.32 0 0.4 0.32 0 0.42 0.32 0 0.44 0.32 0 0.46 0.32 0 0.48 0.32 0 0.5 0.32 0 0.52 0.32 0 0.54 0.32 0 0.56 0.32 0 0.58 0.32 0 0.6 0.32 0 0.62 0.32 0 0.64 0.32 0 0.66 0.32 0 0.68 0.32 0 0.7 0.32 0 0.72 0.32 0 0.74 0.32 0 0.76 0.32 0 0.78 0.32 0 0.8 0.32 0 0.82 0.32 0 0.84 0.32 0 0.86 0.32 0 0.88 0.32 0 0.9 0.32 0 0.92 0.32 0 0.94 0.
[...]
			<PointData Scalars="VitesseX">
				<DataArray Name="VitesseX" type="Float32" format="ascii">
 0 0 0 0 0 0 0 0 0 0 0 0 0 0 0 0 0 0 0 0 0 0 0 0 0 0 0 0 0 0 0 0 0 0 0 0 0 0 0 0 0 0 0 0 0 0 0 0 0 0 -0 0 -0.00048139 -0.00191819 -0.00428783 -0.00755311 -0.0116626 -0.0165517 -0.0221431 -0.0283489 -0.0350709 -0.0422031 -0.0496329 -0.0572421 -0.0649111 -0.0725198 -0.0799473 -0.0870764 -0.0937946 -0.0999957 -0.105582 -0.110465 -0.114569 -0.117827 -0.120204 -0.12162 -0.122095 -0.121611 -0.120146 -0.117763 -0.114487 -0.110369 -0.105475 -0.0998818 -0.0936773 -0.0869597 -0.0798345 -0.0724139 -0.0648155 -0.0571575 -0.0495597 -0.0421425 -0.0350227 -0.0283122 -0.0221167 -0.0165338 -0.0116515 -0.00754686 -0.00428482 -0.00191688 -0.000481208 -5.22431e-27 0 -0.000955488 -0.00380891 -0.00851718 -0.0150081 -0.0231808 -0.0329075 -0.0440351 -0.056388 -0.0697706 -0.0839705 -0.0987619 -0.113906 -0.129164 -0.144297 -0.159061 -0.173222 -0.186553 -0.198844 -0.209901 -0.219548 -0.227634 -0.234033 -0.238694 -0.241399 -0.242253 -0.241242 -0.238242 -0.233449 -0.226891 -0.218674 -0.208927 -0.197806 -0.185486 -0.172159 -0.158035 -0.143335 -0.128292 -0.113136 -0.0981003 -0.0834245 -0.0693377 -0.0560602 -0.0438001 -0.0327501 -0.0230843 -0.0149556 -0.00849321 -0.00380009 -0.000954308 -1.0367e-26 0 -0.00141468 -0.00564118 -0.0126176 -0.0222387 -0.0343566 -0.0487824 -0.0652897 -0.0836178 -0.103475 -0.124547 -0.146494 -0.16896 -0.191589 -0.214027 -0.235909 -0.256885 -0.276619 -0.294798 -0.311132 -0.325366 -0.337274 -0.346671 -0.353515 -0.357402 -0.358572 -0.357007 -0.352445 -0.345266 -0.335485 -0.323261 -0.308789 -0.292299 -0.274049 -0.254327 -0.233439 -0.211711 -0.189488 -0.167104 -0.144902 -0.123233 -0.102434 -0.0828291 -0.0647247 -0.0484042 -0.0341248 -0.0221129 -0.0125604 -0.00562046 -0.00141191 -1.53471e-26 0 -0.00185175 -0.00738635 -0.016525 -0.0291326 -0.0450168 -0.0639314 -0.0855798 -0.10962 -0.135669 -0.16331 -0.1921 -0.221563 -0.251232 -0.280644 -0.309315 -0.336782 -0.362607 -0.386376 -0.407711 -0.426276 -0.44178 -0.453983 -0.462859 -0.467801 -0.469211 -0.467067 -0.46095 -0.451446 -0.438553 -0.422479 -0.403483 -0.381866 -0.357969 -0.332165 -0.304855 -0.276462 -0.247437 -0.218211 -0.189225 -0.160938 -0.133789 -0.108197 -0.0845603 -0.0632493 -0.0445991 -0.0289061 -0.0164223 -0.0073494 -0.00184683 -2.00858e-26 0 -0.00225982 -0.00901688 -0.020178 -0.0355811 -0.0549934 -0.0781155 -0.104585 -0.133984 -0.165843 -0.19965 -0.234859 -0.270884 -0.307153 -0.343097 -0.37812 -0.411655 -0.443162 -0.472135 -0.498114 -0.520688 -0.539504 -0.554272 -0.564995 -0.570852 -0.572421 -0.56968 -0.562044 -0.550315 -0.534468 -0.514761 -0.491514 -0.465095 -0.435921 -0.404446 -0.371157 -0.336568 -0.301226 -0.26565 -0.230371 -0.195947 -0.162908 -0.131763 -0.102995 -0.0770515 -0.0543422 -0.0352283 -0.0200184 -0.00895984 -0.00225224 -2.45078e-26 0 -0.00263246 -0.0105071 -0.0235189 -0.0414825 -0.0641291 -0.0911112 -0.122007 -0.156327 -0.193523 -0.232993 -0.274099 -0.316148 -0.35847 -0.400403 -0.441242 -0.480323 -0.517014 -0.550725 -0.580917 -0.607113 -0.628905 -0.645961 -0.658308 -0.664931 -0.666578 -0.663225 -0.654134 -0.640315 -0.621719 -0.598656 -0.571497 -0.540677 -0.506678 -0.470032 -0.431301 -0.391081 -0.350007 -0.308674 -0.267691 -0.227708 -0.189333 -0.153157 -0.119737 -0.0895936 -0.0632009 -0.0409801 -0.023292 -0.0104266 -0.00262178 -2.85431e-26 0 -0.0029638 -0.0118334 -0.0264949 -0.0467436 -0.0722798 -0.102713 -0.13757 -0.176296 -0.218271 -0.262815 -0.309201 -0.356642 -0.404379 -0.451661 -0.497689 -0.541709 -0.583005 -0.620911 -0.654819 -0.684195 -0.708581 -0.727607 -0.741331 -0.74856 -0.7502 -0.746229 -0.735773 -0.72003 -0.698936 -0.672843 -0.642175 -0.607422 -0.56913 -0.527892 -0.484343 -0.439145 -0.393013 -0.346606 -0.300599 -0.25572 -0.212649 -0.172042 -0.134525 -0.100678 -0.0710359 -0.0460711 -0.0261919 -0.0117267 -0.00294967 -3.21275e-26 0 -0.00324863 -0.0129749 -0.0290592 -0.0512817 -0.079317 -0.11274 -0.151029 -0.193577 -0.239699 -0.288646 -0.339613 -0.391729 -0.444157 -0.496067 -0.546575 -0.594849 -0.640099 -0.681592 -0.718663 -0.750725 -0.777282 -0.797933 -0.81276 -0.820429 -0.821978 -0.817389 -0.805682 -0.788214 -0.764909 -0.736162 -0.702441 -0.664285 -0.622295 -0.57712 -0.52945 -0.480007 -0.42957 -0.37885 -0.328578 -0.279544 -0.232488 -0.188122 -0.147125 -0.110132 -0.0777241 -0.0504215 -0.0286725 -0.0128399 -0.00323079 -3.5204e-26 0 -0.00348245 -0.0139137 -0.0311713 -0.0550249 -0.0851297 -0.121031 -0.162172 -0.207897 -0.25747 -0.310079 -0.364857 -0.420859 -0.477179 -0.532924 -0.587134 -0.63891 -0.687402 -0.73182 -0.771449 -0.805663 -0.833934 -0.855839 -0.87148 -0.879414 -0.88079 -0.875594 -0.862768 -0.843798 -0.818607 -0.787621 -0.751351 -0.710378 -0.665344 -0.616945 -0.565917 -0.513027 -0.459104 -0.404901 -0.351188 -0.298807 -0.24854 -0.201144 -0.15734 -0.117805 -0.0831606 -0.0539629 -0.030695 -0.0137489 -0.00346074 -3.77237e-26 0 -0.0036616 -0.0146348 -0.0327978 -0.0579144 -0.0896263 -0.127458 -0.170823 -0.219031 -0.271302 -0.326777 -0.384536 -0.443573 -0.502929 -0.561654 -0.61873 -0.673204 -0.724175 -0.770809 -0.812353 -0.848153 -0.877655 -0.900421 -0.916575 -0.924596 -0.925717 -0.919936 -0.906141 -0.885918 -0.859191 -0.826419 -0.788143 -0.74498 -0.697604 -0.646746 -0.593174 -0.537689 -0.481155 -0.424351 -0.368077 -0.313206 -0.260553 -0.210904 -0.16501 -0.123579 -0.0872601 -0.05664 -0.0322278 -0.0144396 -0.00363594 -3.96464e-26 0 -0.00378325 -0.015127 -0.0339132 -0.0599045 -0.0927357 -0.131918 -0.176846 -0.226803 -0.280979 -0.338478 -0.398341 -0.459516 -0.521001 -0.581807 -0.640869 -0.697193 -0.749842 -0.79795 -0.840738 -0.877531 -0.907762 -0.930987 -0.947345 -0.955272 -0.956063 -0.94992 -0.935492 -0.914429 -0.886661 -0.852669 -0.813022 -0.768359 -0.719384 -0.66685 -0.61155 -0.554308 -0.496012 -0.437456 -0.37946 -0.322917 -0.26866 -0.217495 -0.170195 -0.127484 -0.0900352 -0.0584528 -0.0332657 -0.014907 -0.00375443 -4.09417e-26 0 -0.00384639 -0.0153893 -0.0345221 -0.0610142 -0.0945018 -0.134492 -0.180367 -0.231397 -0.286748 -0.345498 -0.406657 -0.469141 -0.531912 -0.593951 -0.654156 -0.711502 -0.765024 -0.813831 -0.857129 -0.894229 -0.924561 -0.947683 -0.963752 -0.971196 -0.971354 -0.964311 -0.948908 -0.926848 -0.898078 -0.863102 -0.822505 -0.776939 -0.727115 -0.673791 -0.617759 -0.559841 -0.50092 -0.441785 -0.383246 -0.326194 -0.271454 -0.219831 -0.172094 -0.12897 -0.0911361 -0.059205 -0.0337172 -0.0151205 -0.00381128 -4.15888e-26 0 -0.00384645 -0.0153901 -0.0345258 -0.0610252 -0.0945267 -0.134539 -0.180448 -0.231521 -0.286923 -0.34573 -0.406948 -0.469485 -0.532302 -0.59437 -0.654586 -0.711923 -0.765415 -0.814175 -0.857411 -0.894443 -0.924707 -0.947768 -0.963789 -0.971204 -0.971354 -0.964282 -0.948818 -0.926671 -0.897798 -0.862714 -0.822014 -0.776362 -0.726475 -0.673115 -0.61708 -0.559188 -0.500321 -0.441256 -0.382803 -0.325841 -0.271189 -0.219643 -0.171971 -0.128897 -0.0910978 -0.0591881 -0.0337115 -0.0151193 -0.0038112 -4.15776e-26 0 -0.00378987 -0.0151791 -0.0340846 -0.0602979 -0.0934735 -0.133132 -0.178667 -0.22935 -0.284346 -0.342729 -0.403496 -0.465553 -0.527845 -0.589341 -0.648922 -0.705557 -0.758274 -0.806182 -0.848491 -0.884526 -0.913736 -0.935706 -0.950614 -0.956948 -0.956063 -0.948359 -0.932442 -0.910017 -0.881062 -0.8461 -0.805727 -0.760599 -0.711421 -0.658939 -0.603924 -0.547168 -0.48952 -0.431729 -0.37457 -0.318888 -0.265471 -0.215086 -0.168474 -0.126339 -0.0893409 -0.0580834 -0.0331051 -0.0148585 -0.00374826 -4.09082e-26 0 -0.00367077 -0.0147073 -0.0330376 -0.0584669 -0.0906666 -0.129177 -0.173409 -0.222659 -0.27611 -0.332857 -0.391918 -0.452222 -0.512732 -0.572435 -0.630238 -0.68513 -0.736165 -0.782478 -0.823304 -0.857994 -0.886024 -0.907002 -0.921114 -0.926912 -0.925718 -0.917663 -0.901684 -0.879446 -0.85095 -0.816719 -0.77734 -0.733458 -0.685758 -0.634956 -0.581793 -0.527024 -0.471455 -0.415794 -0.360776 -0.307196 -0.255802 -0.207322 -0.162458 -0.121885 -0.086236 -0.0560968 -0.0319924 -0.0143687 -0.00362697 -3.95914e-26 0 -0.00349503 -0.0140131 -0.0315004 -0.0557833 -0.086558 -0.123391 -0.165724 -0.21288 -0.264074 -0.318431 -0.375 -0.432742 -0.490649 -0.547735 -0.602942 -0.655291 -0.703868 -0.747841 -0.78648 -0.819169 -0.845418 -0.864866 -0.877706 -0.882589 -0.880791 -0.872452 -0.856608 -0.834856 -0.807223 -0.774224 -0.736434 -0.69447 -0.648989 -0.600669 -0.550207 -0.498305 -0.445714 -0.393089 -0.341109 -0.29051 -0.241981 -0.196197 -0.153815 -0.115465 -0.0817455 -0.0532123 -0.0303697 -0.0136509 -0.00344833 -3.76482e-26 0 -0.00326441 -0.0130998 -0.0294723 -0.0522337 -0.0811104 -0.115703 -0.155491 -0.199836 -0.247995 -0.299137 -0.352354 -0.406656 -0.461076 -0.51467 -0.566429 -0.61542 -0.660774 -0.701706 -0.737531 -0.767676 -0.791692 -0.809259 -0.820571 -0.824411 -0.82198 -0.813427 -0.797917 -0.776943 -0.750564 -0.719281 -0.683646 -0.644244 -0.601691 -0.556616 -0.509658 -0.46146 -0.4127 -0.363968 -0.315878 -0.269089 -0.224223 -0.181888 -0.142682 -0.107182 -0.0759402 -0.049475 -0.0282622 -0.0127162 -0.00321513 -3.51097e-26 0 -0.00298254 -0.0119816 -0.0269855 -0.0478743 -0.0744097 -0.106234 -0.14287 -0.183731 -0.228127 -0.275279 -0.324338 -0.374375 -0.42448 -0.47376 -0.521272 -0.566141 -0.607558 -0.644794 -0.67722 -0.704317 -0.725685 -0.741049 -0.7506 -0.753285 -0.750202 -0.74151 -0.726527 -0.706611 -0.681858 -0.652748 -0.619801 -0.583564 -0.544601 -0.503483 -0.460782 -0.417066 -0.372929 -0.328889 -0.285479 -0.243271 -0.202807 -0.164619 -0.129234 -0.0971655 -0.068911 -0.0449436 -0.025703 -0.0115792 -0.00293101 -3.20162e-26 0 -0.00265386 -0.0106764 -0.0240791 -0.0427738 -0.0665618 -0.095132 -0.128061 -0.164821 -0.204782 -0.247233 -0.291392 -0.336407 -0.381434 -0.425648 -0.46818 -0.508228 -0.545054 -0.577997 -0.606493 -0.630085 -0.64843 -0.661303 -0.668887 -0.670323 -0.666579 -0.657825 -0.643553 -0.62496 -0.602179 -0.575664 -0.545899 -0.513381 -0.478615 -0.442104 -0.404343 -0.365817 -0.327025 -0.288401 -0.250388 -0.213461 -0.17807 -0.144661 -0.113682 -0.0855726 -0.0607684 -0.0396892 -0.0227322 -0.0102577 -0.0026004 -2.84171e-26 0 -0.00228355 -0.00920456 -0.020799 -0.0370127 -0.0576906 -0.0825737 -0.111299 -0.143403 -0.178329 -0.215441 -0.254037 -0.29335 -0.332618 -0.37109 -0.407988 -0.442593 -0.474246 -0.502366 -0.526462 -0.546146 -0.561139 -0.571272 -0.576716 -0.576826 -0.572422 -0.563685 -0.550297 -0.53327 -0.512776 -0.48924 -0.463098 -0.434795 -0.404767 -0.373442 -0.341228 -0.308519 -0.275709 -0.243141 -0.211158 -0.180128 -0.150401 -0.122329 -0.0962696 -0.0725857 -0.0516405 -0.0337944 -0.0193965 -0.00877214 -0.00222848 -2.43695e-26 0 -0.00187743 -0.00758946 -0.0171971 -0.0306821 -0.0479361 -0.068757 -0.0928468 -0.119815 -0.149185 -0.180405 -0.212861 -0.245882 -0.2788 -0.310946 -0.341644 -0.370267 -0.396248 -0.419089 -0.438385 -0.453821 -0.465186 -0.472373 -0.475537 -0.474263 -0.469211 -0.460572 -0.448224 -0.432981 -0.415054 -0.394831 -0.3727 -0.34904 -0.324218 -0.298575 -0.272428 -0.246073 -0.219789 -0.193822 -0.168407 -0.143797 -0.120235 -0.0979726 -0.0772722 -0.0584092 -0.0416708 -0.0273518 -0.0157482 -0.00714586 -0.00182107 -1.99378e-26 0 -0.00144191 -0.00585655 -0.0133302 -0.0238817 -0.0374523 -0.0538998 -0.0729964 -0.0944301 -0.11781 -0.142677 -0.168514 -0.194753 -0.220828 -0.246164 -0.270194 -0.292393 -0.312289 -0.329482 -0.343651 -0.354565 -0.362085 -0.366164 -0.366951 -0.364251 -0.358573 -0.350115 -0.338941 -0.325672 -0.310551 -0.293925 -0.276126 -0.257468 -0.238235 -0.218682 -0.199027 -0.17946 -0.160145 -0.141221 -0.122807 -0.105039 -0.0880481 -0.0719771 -0.0569886 -0.0432665 -0.0310162 -0.0204628 -0.0118446 -0.00540426 -0.00138455 -1.51922e-26 0 -0.000983845 -0.00403316 -0.00925926 -0.016719 -0.0264046 -0.0382366 -0.0520609 -0.0676484 -0.0846996 -0.102852 -0.121695 -0.140769 -0.159616 -0.177766 -0.194767 -0.210199 -0.223698 -0.23496 -0.243759 -0.249948 -0.253464 -0.254324 -0.252679 -0.248528 -0.242254 -0.234063 -0.224173 -0.213036 -0.200916 -0.188112 -0.1749 -0.16152 -0.148175 -0.135023 -0.122183 -0.109733 -0.0977186 -0.0861677 -0.0750792 -0.0644679 -0.0543479 -0.0447521 -0.0357387 -0.0273961 -0.0198446 -0.0132358 -0.0077471 -0.00357467 -0.000925777 -1.02079e-26 0 -0.00051046 -0.00214806 -0.00504852 -0.00930695 -0.0149673 -0.0220147 -0.0303707 -0.0398926 -0.0503758 -0.0615607 -0.0731438 -0.0847821 -0.0961323 -0.106833 -0.116553 -0.124985 -0.131873 -0.137018 -0.140289 -0.141626 -0.141043 -0.138624 -0.134534 -0.128926 -0.122095 -0.114258 -0.105736 -0.0968536 -0.0878796 -0.0790634 -0.070619 -0.0627119 -0.0554575 -0.0489188 -0.0431077 -0.0379927 -0.0334956 -0.0295318 -0.0259766 -0.0227227 -0.0196662 -0.0167272 -0.0138576 -0.0110482 -0.00833207 -0.00578458 -0.0035202 -0.00168577 -0.00045196 -5.0637e-27 0 -2.92208e-05 -0.000231091 -0.000764861 -0.0017637 -0.0033236 -0.00549477 -0.0082759 -0.011612 -0.0153957 -0.0194728 -0.0236504 -0.0277045 -0.0314088 -0.0345182 -0.0368247 -0.0381349 -0.0383045 -0.0372402 -0.0349085 -0.0313387 -0.0266224 -0.0209098 -0.0144039 -0.00734221 4.39045e-10 0.00734221 0.0144039 0.0209098 0.0266225 0.0313395 0.0349088 0.0372402 0.0383045 0.038135 0.0368248 0.0345184 0.0314093 0.0277051 0.0236508 0.0194729 0.0153958 0.011612 0.0082759 0.00549477 0.0033236 0.0017637 0.000764861 0.000231091 2.92208e-05 1.59107e-28 0 0.00045196 0.00168577 0.0035202 0.00578458 0.00833207 0.0110482 0.0138576 0.0167272 0.0196663 0.0227228 0.0259769 0.0295323 0.0334965 0.0379933 0.043108 0.0489188 0.0554575 0.0627118 0.0706192 0.079064 0.0878797 0.0968536 0.105736 0.114258 0.122095 0.128926 0.134534 0.138624 0.141043 0.141627 0.140289 0.137018 0.131873 0.124985 0.116553 0.106834 0.0961326 0.0847826 0.0731442 0.0615608 0.0503758 0.0398926 0.0303707 0.0220147 0.0149673 0.00930695 0.00504852 0.00214806 0.00051046 5.37817e-27 0 0.000925777 0.00357467 0.0077471 0.0132358 0.0198446 0.0273961 0.0357387 0.0447521 0.0543479 0.064468 0.0750793 0.0861679 0.0977192 0.109735 0.122183 0.135024 0.148175 0.16152 0.1749 0.188112 0.200916 0.213036 0.224173 0.234063 0.242254 0.248528 0.252679 0.254324 0.253464 0.249949 0.24376 0.23496 0.223698 0.210199 0.194767 0.177766 0.159617 0.140769 0.121695 0.102853 0.0846997 0.0676484 0.0520609 0.0382366 0.0264046 0.016719 0.00925926 0.00403316 0.000983845 1.05113e-26 0 0.00138455 0.00540426 0.0118446 0.0204628 0.0310162 0.0432665 0.0569886 0.0719771 0.0880481 0.10504 0.122807 0.141221 0.160145 0.179461 0.199028 0.218683 0.238236 0.257468 0.276126 0.293925 0.310551 0.325671 0.338941 0.350115 0.358573 0.364251 0.366951 0.366164 0.362085 0.354566 0.343652 0.329483 0.31229 0.292393 0.270194 0.246164 0.220828 0.194753 0.168514 0.142677 0.11781 0.0944301 0.0729964 0.0538998 0.0374523 0.0238817 0.0133302 0.00585655 0.00144191 1.54778e-26 0 0.00182107 0.00714586 0.0157482 0.0273518 0.0416708 0.0584092 0.0772722 0.0979726 0.120235 0.143797 0.168407 0.193822 0.219789 0.246073 0.272429 0.298575 0.324219 0.349041 0.3727 0.394831 0.415054 0.432981 0.448224 0.460572 0.469211 0.474263 0.475537 0.472373 0.465187 0.453821 0.438386 0.41909 0.396248 0.370268 0.341644 0.310946 0.2788 0.245883 0.212861 0.180405 0.149185 0.119815 0.0928468 0.068757 0.0479361 0.0306821 0.0171971 0.00758946 0.00187743 2.01996e-26 0 0.00222848 0.00877214 0.0193965 0.0337944 0.0516405 0.0725857 0.0962696 0.122329 0.150401 0.180128 0.211159 0.243141 0.275709 0.30852 0.341228 0.373442 0.404768 0.434796 0.463099 0.48924 0.512776 0.53327 0.550297 0.563685 0.572422 0.576826 0.576716 0.571272 0.561139 0.546147 0.526463 0.502366 0.474246 0.442593 0.407988 0.37109 0.332618 0.29335 0.254037 0.215441 0.178329 0.143403 0.111299 0.0825737 0.0576906 0.0370127 0.020799 0.00920456 0.00228355 2.46026e-26 0 0.0026004 0.0102577 0.0227322 0.0396892 0.0607684 0.0855726 0.113682 0.144661 0.17807 0.213461 0.250388 0.288401 0.327025 0.365818 0.404343 0.442104 0.478616 0.513382 0.545899 0.575664 0.602179 0.62496 0.643553 0.657825 0.666579 0.670323 0.668887 0.661303 0.64843 0.630086 0.606494 0.577998 0.545054 0.508229 0.46818 0.425648 0.381435 0.336407 0.291393 0.247233 0.204782 0.164821 0.128061 0.095132 0.0665618 0.0427738 0.0240791 0.0106764 0.00265386 2.86179e-26 0 0.00293101 0.0115792 0.025703 0.0449436 0.068911 0.0971655 0.129234 0.164619 0.202807 0.243271 0.285479 0.328889 0.372929 0.417066 0.460782 0.503483 0.544602 0.583565 0.619801 0.652748 0.681858 0.706611 0.726527 0.74151 0.750202 0.753285 0.7506 0.741049 0.725685 0.704317 0.677221 0.644794 0.607558 0.566141 0.521272 0.47376 0.42448 0.374375 0.324338 0.275279 0.228127 0.183731 0.14287 0.106234 0.0744097 0.0478743 0.0269855 0.0119816 0.00298254 3.21827e-26 0 0.00321513 0.0127162 0.0282622 0.049475 0.0759402 0.107182 0.142682 0.181888 0.224223 0.269089 0.315878 0.363968 0.4127 0.46146 0.509658 0.556616 0.601691 0.644244 0.683646 0.719281 0.750564 0.776943 0.797917 0.813427 0.82198 0.824411 0.820571 0.809259 0.791692 0.767676 0.737531 0.701706 0.660774 0.61542 0.566429 0.51467 0.461076 0.406656 0.352354 0.299137 0.247996 0.199836 0.155491 0.115703 0.0811104 0.0522337 0.0294723 0.0130998 0.00326441 3.52411e-26 0 0.00344833 0.0136509 0.0303697 0.0532123 0.0817455 0.115465 0.153815 0.196197 0.241981 0.29051 0.341109 0.393089 0.445714 0.498305 0.550207 0.600669 0.648989 0.69447 0.736434 0.774224 0.807223 0.834856 0.856608 0.872452 0.880791 0.882589 0.877706 0.864866 0.845418 0.81917 0.786481 0.747841 0.703868 0.655291 0.602942 0.547735 0.490649 0.432742 0.375 0.318431 0.264074 0.21288 0.165724 0.123391 0.086558 0.0557833 0.0315004 0.0140131 0.00349503 3.77454e-26 0 0.00362697 0.0143687 0.0319924 0.0560968 0.086236 0.121885 0.162458 0.207322 0.255802 0.307196 0.360776 0.415794 0.471455 0.527024 0.581793 0.634956 0.685758 0.733458 0.77734 0.816719 0.85095 0.879446 0.901684 0.917663 0.925718 0.926912 0.921114 0.907002 0.886024 0.857994 0.823304 0.782478 0.736165 0.685131 0.630238 0.572435 0.512732 0.452222 0.391918 0.332857 0.27611 0.222659 0.173409 0.129177 0.0906666 0.0584669 0.0330376 0.0147073 0.00367077 3.96564e-26 0 0.00374826 0.0148585 0.0331051 0.0580834 0.0893409 0.126339 0.168474 0.215086 0.265471 0.318888 0.37457 0.431729 0.48952 0.547168 0.603924 0.658939 0.711421 0.760599 0.805727 0.8461 0.881062 0.910017 0.932442 0.948359 0.956063 0.956948 0.950614 0.935706 0.913736 0.884526 0.848492 0.806182 0.758274 0.705558 0.648922 0.589341 0.527845 0.465553 0.403496 0.342729 0.284346 0.22935 0.178667 0.133132 0.0934735 0.0602979 0.0340846 0.0151791 0.00378987 4.09442e-26 0 0.0038112 0.0151193 0.0337115 0.0591881 0.0910978 0.128897 0.171971 0.219643 0.271189 0.325841 0.382803 0.441256 0.500321 0.559188 0.61708 0.673115 0.726475 0.776362 0.822014 0.862714 0.897798 0.926671 0.948818 0.964282 0.971354 0.971204 0.963789 0.947768 0.924707 0.894443 0.857412 0.814175 0.765415 0.711923 0.654586 0.594371 0.532302 0.469485 0.406948 0.34573 0.286923 0.231521 0.180448 0.134539 0.0945267 0.0610252 0.0345258 0.0153901 0.00384645 4.15888e-26 0 0.00381128 0.0151205 0.0337172 0.059205 0.0911361 0.12897 0.172094 0.219831 0.271454 0.326194 0.383246 0.441785 0.50092 0.559841 0.617759 0.673791 0.727115 0.776939 0.822505 0.863102 0.898078 0.926848 0.948908 0.964311 0.971354 0.971196 0.963752 0.947683 0.924561 0.894229 0.857129 0.813832 0.765024 0.711502 0.654156 0.593951 0.531912 0.469141 0.406657 0.345498 0.286748 0.231397 0.180367 0.134492 0.0945018 0.0610142 0.0345221 0.0153893 0.00384639 4.158e-26 0 0.00375443 0.014907 0.0332657 0.0584528 0.0900352 0.127484 0.170195 0.217495 0.26866 0.322917 0.37946 0.437456 0.496012 0.554308 0.61155 0.66685 0.719384 0.768359 0.813022 0.852669 0.886661 0.914429 0.935492 0.94992 0.956063 0.955272 0.947345 0.930987 0.907762 0.87753 0.840738 0.79795 0.749843 0.697193 0.640869 0.581807 0.521001 0.459515 0.39834 0.338478 0.280979 0.226803 0.176846 0.131918 0.0927357 0.0599045 0.0339132 0.015127 0.00378325 4.0918e-26 0 0.00363594 0.0144396 0.0322278 0.05664 0.0872601 0.123579 0.16501 0.210904 0.260553 0.313206 0.368077 0.424351 0.481155 0.537689 0.593174 0.646746 0.697604 0.74498 0.788143 0.826419 0.859191 0.885918 0.906141 0.919936 0.925717 0.924596 0.916575 0.900421 0.877655 0.848153 0.812353 0.770809 0.724175 