<?xml version="1.0"?>
<VTKFile type="PolyData">
	<PolyData>
		<Piece NumberOfPoints="2601" NumberOfPolys="2500">
			<Points>
				<DataArray type="Float32" NumberOfComponents="3" format="ascii">
 0 0 0 0.02 0 0 0.04 0 0 0.06 0 0 0.08 0 0 0.1 0 0 0.12 0 0 0.14 0 0 0.16 0 0 0.18 0 0 0.2 0 0 0.22 0 0 0.24 0 0 0.26 0 0 0.28 0 0 0.3 0 0 0.32 0 0 0.34 0 0 0.36 0 0 0.38 0 0 0.4 0 0 0.42 0 0 0.44 0 0 0.46 0 0 0.48 0 0 0.5 0 0 0.52 0 0 0.54 0 0 0.56 0 0 0.58 0 0 0.6 0 0 0.62 0 0 0.64 0 0 0.66 0 0 0.68 0 0 0.7 0 0 0.72 0 0 0.74 0 0 0.76 0 0 0.78 0 0 0.8 0 0 0.82 0 0 0.84 0 0 0.86 0 0 0.88 0 0 0.9 0 0 0.92 0 0 0.94 0 0 0.96 0 0 0.98 0 0 1 0 0 0 0.02 0 0.02 0.02 0 0.04 0.02 0 0.06 0.02 0 0.08 0.02 0 0.1 0.02 0 0.12 0.02 0 0.14 0.02 0 0.16 0.02 0 0.18 0.02 0 0.2 0.02 0 0.22 0.02 0 0.24 0.02 0 0.26 0.02 0 0.28 0.02 0 0.3 0.02 0 0.32 0.02 0 0.34 0.02 0 0.36 0.02 0 0.38 0.02 0 0.4 0.02 0 0.42 0.02 0 0.44 0.02 0 0.46 0.02 0 0.48 0.02 0 0.5 0.02 0 0.52 0.02 0 0.54 0.02 0 0.56 0.02 0 0.58 0.02 0 0.6 0.02 0 0.62 0.02 0 0.64 0.02 0 0.66 0.02 0 0.68 0.02 0 0.7 0.02 0 0.72 0.02 0 0.74 0.02 0 0.76 0.02 0 0.78 0.02 0 0.8 0.02 0 0.82 0.02 0 0.84 0.02 0 0.86 0.02 0 0.88 0.02 0 0.9 0.02 0 0.92 0.02 0 0.94 0.02 0 0.96 0.02 0 0.98 0.02 0 1 0.02 0 0 0.04 0 0.02 0.04 0 0.04 0.04 0 0.06 0.04 0 0.08 0.04 0 0.1 0.04 0 0.12 0.04 0 0.14 0.04 0 0.16 0.04 0 0.18 0.04 0 0.2 0.04 0 0.22 0.04 0 0.24 0.04 0 0.26 0.04 0 0.28 0.04 0 0.3 0.04 0 0.32 0.04 0 0.34 0.04 0 0.36 0.04 0 0.38 0.04 0 0.4 0.04 0 0.42 0.04 0 0.44 0.04 0 0.46 0.04 0 0.48 0.04 0 0.5 0.04 0 0.52 0.04 0 0.54 0.04 0 0.56 0.04 0 0.58 0.04 0 0.6 0.04 0 0.62 0.04 0 0.64 0.04 0 0.66 0.04 0 0.68 0.04 0 0.7 0.04 0 0.72 0.04 0 0.74 0.04 0 0.76 0.04 0 0.78 0.04 0 0.8 0.04 0 0.82 0.04 0 0.84 0.04 0 0.86 0.04 0 0.88 0.04 0 0.9 0.04 0 0.92 0.04 0 0.94 0.04 0 0.96 0.04 0 0.98 0.04 0 1 0.04 0 0 0.06 0 0.02 0.06 0 0.04 0.06 0 0.06 0.06 0 0.08 0.06 0 0.1 0.06 0 0.12 0.06 0 0.14 0.06 0 0.16 0.06 0 0.18 0.06 0 0.2 0.06 0 0.22 0.06 0 0.24 0.06 0 0.26 0.06 0 0.28 0.06 0 0.3 0.06 0 0.32 0.06 0 0.34 0.06 0 0.36 0.06 0 0.38 0.06 0 0.4 0.06 0 0.42 0.06 0 0.44 0.06 0 0.46 0.06 0 0.48 0.06 0 0.5 0.06 0 0.52 0.06 0 0.54 0.06 0 0.56 0.06 0 0.58 0.06 0 0.6 0.06 0 0.62 0.06 0 0.64 0.06 0 0.66 0.06 0 0.68 0.06 0 0.7 0.06 0 0.72 0.06 0 0.74 0.06 0 0.76 0.06 0 0.78 0.06 0 0.8 0.06 0 0.82 0.06 0 0.84 0.06 0 0.86 0.06 0 0.88 0.06 0 0.9 0.06 0 0.92 0.06 0 0.94 0.06 0 0.96 0.06 0 0.98 0.06 0 1 0.06 0 0 0.08 0 0.02 0.08 0 0.04 0.08 0 0.06 0.08 0 0.08 0.08 0 0.1 0.08 0 0.12 0.08 0 0.14 0.08 0 0.16 0.08 0 0.18 0.08 0 0.2 0.08 0 0.22 0.08 0 0.24 0.08 0 0.26 0.08 0 0.28 0.08 0 0.3 0.08 0 0.32 0.08 0 0.34 0.08 0 0.36 0.08 0 0.38 0.08 0 0.4 0.08 0 0.42 0.08 0 0.44 0.08 0 0.46 0.08 0 0.48 0.08 0 0.5 0.08 0 0.52 0.08 0 0.54 0.08 0 0.56 0.08 0 0.58 0.08 0 0.6 0.08 0 0.62 0.08 0 0.64 0.08 0 0.66 0.08 0 0.68 0.08 0 0.7 0.08 0 0.72 0.08 0 0.74 0.08 0 0.76 0.08 0 0.78 0.08 0 0.8 0.08 0 0.82 0.08 0 0.84 0.08 0 0.86 0.08 0 0.88 0.08 0 0.9 0.08 0 0.92 0.08 0 0.94 0.08 0 0.96 0.08 0 0.98 0.08 0 1 0.08 0 0 0.1 0 0.02 0.1 0 0.04 0.1 0 0.06 0.1 0 0.08 0.1 0 0.1 0.1 0 0.12 0.1 0 0.14 0.1 0 0.16 0.1 0 0.18 0.1 0 0.2 0.1 0 0.22 0.1 0 0.24 0.1 0 0.26 0.1 0 0.28 0.1 0 0.3 0.1 0 0.32 0.1 0 0.34 0.1 0 0.36 0.1 0 0.38 0.1 0 0.4 0.1 0 0.42 0.1 0 0.44 0.1 0 0.46 0.1 0 0.48 0.1 0 0.5 0.1 0 0.52 0.1 0 0.54 0.1 0 0.56 0.1 0 0.58 0.1 0 0.6 0.1 0 0.62 0.1 0 0.64 0.1 0 0.66 0.1 0 0.68 0.1 0 0.7 0.1 0 0.72 0.1 0 0.74 0.1 0 0.76 0.1 0 0.78 0.1 0 0.8 0.1 0 0.82 0.1 0 0.84 0.1 0 0.86 0.1 0 0.88 0.1 0 0.9 0.1 0 0.92 0.1 0 0.94 0.1 0 0.96 0.1 0 0.98 0.1 0 1 0.1 0 0 0.12 0 0.02 0.12 0 0.04 0.12 0 0.06 0.12 0 0.08 0.12 0 0.1 0.12 0 0.12 0.12 0 0.14 0.12 0 0.16 0.12 0 0.18 0.12 0 0.2 0.12 0 0.22 0.12 0 0.24 0.12 0 0.26 0.12 0 0.28 0.12 0 0.3 0.12 0 0.32 0.12 0 0.34 0.12 0 0.36 0.12 0 0.38 0.12 0 0.4 0.12 0 0.42 0.12 0 0.44 0.12 0 0.46 0.12 0 0.48 0.12 0 0.5 0.12 0 0.52 0.12 0 0.54 0.12 0 0.56 0.12 0 0.58 0.12 0 0.6 0.12 0 0.62 0.12 0 0.64 0.12 0 0.66 0.12 0 0.68 0.12 0 0.7 0.12 0 0.72 0.12 0 0.74 0.12 0 0.76 0.12 0 0.78 0.12 0 0.8 0.12 0 0.82 0.12 0 0.84 0.12 0 0.86 0.12 0 0.88 0.12 0 0.9 0.12 0 0.92 0.12 0 0.94 0.12 0 0.96 0.12 0 0.98 0.12 0 1 0.12 0 0 0.14 0 0.02 0.14 0 0.04 0.14 0 0.06 0.14 0 0.08 0.14 0 0.1 0.14 0 0.12 0.14 0 0.14 0.14 0 0.16 0.14 0 0.18 0.14 0 0.2 0.14 0 0.22 0.14 0 0.24 0.14 0 0.26 0.14 0 0.28 0.14 0 0.3 0.14 0 0.32 0.14 0 0.34 0.14 0 0.36 0.14 0 0.38 0.14 0 0.4 0.14 0 0.42 0.14 0 0.44 0.14 0 0.46 0.14 0 0.48 0.14 0 0.5 0.14 0 0.52 0.14 0 0.54 0.14 0 0.56 0.14 0 0.58 0.14 0 0.6 0.14 0 0.62 0.14 0 0.64 0.14 0 0.66 0.14 0 0.68 0.14 0 0.7 0.14 0 0.72 0.14 0 0.74 0.14 0 0.76 0.14 0 0.78 0.14 0 0.8 0.14 0 0.82 0.14 0 0.84 0.14 0 0.86 0.14 0 0.88 0.14 0 0.9 0.14 0 0.92 0.14 0 0.94 0.14 0 0.96 0.14 0 0.98 0.14 0 1 0.14 0 0 0.16 0 0.02 0.16 0 0.04 0.16 0 0.06 0.16 0 0.08 0.16 0 0.1 0.16 0 0.12 0.16 0 0.14 0.16 0 0.16 0.16 0 0.18 0.16 0 0.2 0.16 0 0.22 0.16 0 0.24 0.16 0 0.26 0.16 0 0.28 0.16 0 0.3 0.16 0 0.32 0.16 0 0.34 0.16 0 0.36 0.16 0 0.38 0.16 0 0.4 0.16 0 0.42 0.16 0 0.44 0.16 0 0.46 0.16 0 0.48 0.16 0 0.5 0.16 0 0.52 0.16 0 0.54 0.16 0 0.56 0.16 0 0.58 0.16 0 0.6 0.16 0 0.62 0.16 0 0.64 0.16 0 0.66 0.16 0 0.68 0.16 0 0.7 0.16 0 0.72 0.16 0 0.74 0.16 0 0.76 0.16 0 0.78 0.16 0 0.8 0.16 0 0.82 0.16 0 0.84 0.16 0 0.86 0.16 0 0.88 0.16 0 0.9 0.16 0 0.92 0.16 0 0.94 0.16 0 0.96 0.16 0 0.98 0.16 0 1 0.16 0 0 0.18 0 0.02 0.18 0 0.04 0.18 0 0.06 0.18 0 0.08 0.18 0 0.1 0.18 0 0.12 0.18 0 0.14 0.18 0 0.16 0.18 0 0.18 0.18 0 0.2 0.18 0 0.22 0.18 0 0.24 0.18 0 0.26 0.18 0 0.28 0.18 0 0.3 0.18 0 0.32 0.18 0 0.34 0.18 0 0.36 0.18 0 0.38 0.18 0 0.4 0.18 0 0.42 0.18 0 0.44 0.18 0 0.46 0.18 0 0.48 0.18 0 0.5 0.18 0 0.52 0.18 0 0.54 0.18 0 0.56 0.18 0 0.58 0.18 0 0.6 0.18 0 0.62 0.18 0 0.64 0.18 0 0.66 0.18 0 0.68 0.18 0 0.7 0.18 0 0.72 0.18 0 0.74 0.18 0 0.76 0.18 0 0.78 0.18 0 0.8 0.18 0 0.82 0.18 0 0.84 0.18 0 0.86 0.18 0 0.88 0.18 0 0.9 0.18 0 0.92 0.18 0 0.94 0.18 0 0.96 0.18 0 0.98 0.18 0 1 0.18 0 0 0.2 0 0.02 0.2 0 0.04 0.2 0 0.06 0.2 0 0.08 0.2 0 0.1 0.2 0 0.12 0.2 0 0.14 0.2 0 0.16 0.2 0 0.18 0.2 0 0.2 0.2 0 0.22 0.2 0 0.24 0.2 0 0.26 0.2 0 0.28 0.2 0 0.3 0.2 0 0.32 0.2 0 0.34 0.2 0 0.36 0.2 0 0.38 0.2 0 0.4 0.2 0 0.42 0.2 0 0.44 0.2 0 0.46 0.2 0 0.48 0.2 0 0.5 0.2 0 0.52 0.2 0 0.54 0.2 0 0.56 0.2 0 0.58 0.2 0 0.6 0.2 0 0.62 0.2 0 0.64 0.2 0 0.66 0.2 0 0.68 0.2 0 0.7 0.2 0 0.72 0.2 0 0.74 0.2 0 0.76 0.2 0 0.78 0.2 0 0.8 0.2 0 0.82 0.2 0 0.84 0.2 0 0.86 0.2 0 0.88 0.2 0 0.9 0.2 0 0.92 0.2 0 0.94 0.2 0 0.96 0.2 0 0.98 0.2 0 1 0.2 0 0 0.22 0 0.02 0.22 0 0.04 0.22 0 0.06 0.22 0 0.08 0.22 0 0.1 0.22 0 0.12 0.22 0 0.14 0.22 0 0.16 0.22 0 0.18 0.22 0 0.2 0.22 0 0.22 0.22 0 0.24 0.22 0 0.26 0.22 0 0.28 0.22 0 0.3 0.22 0 0.32 0.22 0 0.34 0.22 0 0.36 0.22 0 0.38 0.22 0 0.4 0.22 0 0.42 0.22 0 0.44 0.22 0 0.46 0.22 0 0.48 0.22 0 0.5 0.22 0 0.52 0.22 0 0.54 0.22 0 0.56 0.22 0 0.58 0.22 0 0.6 0.22 0 0.62 0.22 0 0.64 0.22 0 0.66 0.22 0 0.68 0.22 0 0.7 0.22 0 0.72 0.22 0 0.74 0.22 0 0.76 0.22 0 0.78 0.22 0 0.8 0.22 0 0.82 0.22 0 0.84 0.22 0 0.86 0.22 0 0.88 0.22 0 0.9 0.22 0 0.92 0.22 0 0.94 0.22 0 0.96 0.22 0 0.98 0.22 0 1 0.22 0 0 0.24 0 0.02 0.24 0 0.04 0.24 0 0.06 0.24 0 0.08 0.24 0 0.1 0.24 0 0.12 0.24 0 0.14 0.24 0 0.16 0.24 0 0.18 0.24 0 0.2 0.24 0 0.22 0.24 0 0.24 0.24 0 0.26 0.24 0 0.28 0.24 0 0.3 0.24 0 0.32 0.24 0 0.34 0.24 0 0.36 0.24 0 0.38 0.24 0 0.4 0.24 0 0.42 0.24 0 0.44 0.24 0 0.46 0.24 0 0.48 0.24 0 0.5 0.24 0 0.52 0.24 0 0.54 0.24 0 0.56 0.24 0 0.58 0.24 0 0.6 0.24 0 0.62 0.24 0 0.64 0.24 0 0.66 0.24 0 0.68 0.24 0 0.7 0.24 0 0.72 0.24 0 0.74 0.24 0 0.76 0.24 0 0.78 0.24 0 0.8 0.24 0 0.82 0.24 0 0.84 0.24 0 0.86 0.24 0 0.88 0.24 0 0.9 0.24 0 0.92 0.24 0 0.94 0.24 0 0.96 0.24 0 0.98 0.24 0 1 0.24 0 0 0.26 0 0.02 0.26 0 0.04 0.26 0 0.06 0.26 0 0.08 0.26 0 0.1 0.26 0 0.12 0.26 0 0.14 0.26 0 0.16 0.26 0 0.18 0.26 0 0.2 0.26 0 0.22 0.26 0 0.24 0.26 0 0.26 0.26 0 0.28 0.26 0 0.3 0.26 0 0.32 0.26 0 0.34 0.26 0 0.36 0.26 0 0.38 0.26 0 0.4 0.26 0 0.42 0.26 0 0.44 0.26 0 0.46 0.26 0 0.48 0.26 0 0.5 0.26 0 0.52 0.26 0 0.54 0.26 0 0.56 0.26 0 0.58 0.26 0 0.6 0.26 0 0.62 0.26 0 0.64 0.26 0 0.66 0.26 0 0.68 0.26 0 0.7 0.26 0 0.72 0.26 0 0.74 0.26 0 0.76 0.26 0 0.78 0.26 0 0.8 0.26 0 0.82 0.26 0 0.84 0.26 0 0.86 0.26 0 0.88 0.26 0 0.9 0.26 0 0.92 0.26 0 0.94 0.26 0 0.96 0.26 0 0.98 0.26 0 1 0.26 0 0 0.28 0 0.02 0.28 0 0.04 0.28 0 0.06 0.28 0 0.08 0.28 0 0.1 0.28 0 0.12 0.28 0 0.14 0.28 0 0.16 0.28 0 0.18 0.28 0 0.2 0.28 0 0.22 0.28 0 0.24 0.28 0 0.26 0.28 0 0.28 0.28 0 0.3 0.28 0 0.32 0.28 0 0.34 0.28 0 0.36 0.28 0 0.38 0.28 0 0.4 0.28 0 0.42 0.28 0 0.44 0.28 0 0.46 0.28 0 0.48 0.28 0 0.5 0.28 0 0.52 0.28 0 0.54 0.28 0 0.56 0.28 0 0.58 0.28 0 0.6 0.28 0 0.62 0.28 0 0.64 0.28 0 0.66 0.28 0 0.68 0.28 0 0.7 0.28 0 0.72 0.28 0 0.74 0.28 0 0.76 0.28 0 0.78 0.28 0 0.8 0.28 0 0.82 0.28 0 0.84 0.28 0 0.86 0.28 0 0.88 0.28 0 0.9 0.28 0 0.92 0.28 0 0.94 0.28 0 0.96 0.28 0 0.98 0.28 0 1 0.28 0 0 0.3 0 0.02 0.3 0 0.04 0.3 0 0.06 0.3 0 0.08 0.3 0 0.1 0.3 0 0.12 0.3 0 0.14 0.3 0 0.16 0.3 0 0.18 0.3 0 0.2 0.3 0 0.22 0.3 0 0.24 0.3 0 0.26 0.3 0 0.28 0.3 0 0.3 0.3 0 0.32 0.3 0 0.34 0.3 0 0.36 0.3 0 0.38 0.3 0 0.4 0.3 0 0.42 0.3 0 0.44 0.3 0 0.46 0.3 0 0.48 0.3 0 0.5 0.3 0 0.52 0.3 0 0.54 0.3 0 0.56 0.3 0 0.58 0.3 0 0.6 0.3 0 0.62 0.3 0 0.64 0.3 0 0.66 0.3 0 0.68 0.3 0 0.7 0.3 0 0.72 0.3 0 0.74 0.3 0 0.76 0.3 0 0.78 0.3 0 0.8 0.3 0 0.82 0.3 0 0.84 0.3 0 0.86 0.3 0 0.88 0.3 0 0.9 0.3 0 0.92 0.3 0 0.94 0.3 0 0.96 0.3 0 0.98 0.3 0 1 0.3 0 0 0.32 0 0.02 0.32 0 0.04 0.32 0 0.06 0.32 0 0.08 0.32 0 0.1 0.32 0 0.12 0.32 0 0.14 0.32 0 0.16 0.32 0 0.18 0.32 0 0.2 0.32 0 0.22 0.32 0 0.24 0.32 0 0.26 0.32 0 0.28 0.32 0 0.3 0.32 0 0.32 0.32 0 0.34 0.32 0 0.36 0.32 0 0.38 0.32 0 0.4 0.32 0 0.42 0.32 0 0.44 0.32 0 0.46 0.32 0 0.48 0.32 0 0.5 0.32 0 0.52 0.32 0 0.54 0.32 0 0.56 0.32 0 0.58 0.32 0 0.6 0.32 0 0.62 0.32 0 0.64 0.32 0 0.66 0.32 0 0.68 0.32 0 0.7 0.32 0 0.72 0.32 0 0.74 0.32 0 0.76 0.32 0 0.78 0.32 0 0.8 0.32 0 0.82 0.32 0 0.84 0.32 0 0.86 0.32 0 0.88 0.32 0 0.9 0.32 0 0.92 0.32 0 0.94 0.
[...]
			<PointData Scalars="VitesseX">
				<DataArray Name="VitesseX" type="Float32" format="ascii">
 0 0 0 0 0 0 0 0 0 0 0 0 0 0 0 0 0 0 0 0 0 0 0 0 0 0 0 0 0 0 0 0 0 0 0 0 0 0 0 0 0 0 0 0 0 0 0 0 0 0 0 0 0.000490979 0.0019558 0.00437182 0.00770009 0.011888 0.0168695 0.0225658 0.0288871 0.0357339 0.0429984 0.0505663 0.0583185 0.0661321 0.073885 0.0814565 0.0887265 0.0955808 0.101911 0.107619 0.112613 0.116814 0.120157 0.122589 0.124085 0.124575 0.124097 0.122647 0.120224 0.116899 0.112712 0.107729 0.102029 0.0957016 0.0888467 0.0815725 0.0739938 0.0662303 0.0584055 0.0506415 0.0430607 0.0357835 0.0289249 0.0225931 0.016888 0.0118996 0.00770656 0.00437494 0.00195716 0.000491168 5.32853e-27 0 0.000973676 0.00387718 0.00866552 0.015259 0.0235526 0.0334145 0.0446888 0.0571978 0.0707449 0.0851179 0.100092 0.115433 0.130897 0.146247 0.161246 0.175657 0.189256 0.201828 0.213176 0.223121 0.231507 0.2382 0.243092 0.246164 0.247175 0.246335 0.243555 0.238808 0.23228 0.224031 0.214188 0.202907 0.190365 0.176762 0.162312 0.147246 0.131804 0.116234 0.100779 0.085685 0.0711946 0.0575384 0.044933 0.0335781 0.023653 0.0153136 0.00869045 0.00388636 0.000974905 1.05721e-26 0 0.00144056 0.0057344 0.0128151 0.0225613 0.0348168 0.049386 0.0660379 0.0845103 0.104514 0.125736 0.147847 0.170502 0.193341 0.216018 0.23819 0.259504 0.27963 0.298253 0.315081 0.329851 0.342327 0.35231 0.35964 0.364321 0.365862 0.364754 0.360734 0.353774 0.344189 0.332041 0.31752 0.300853 0.282303 0.262165 0.240759 0.218427 0.195526 0.172432 0.149502 0.127102 0.105597 0.0853302 0.0666255 0.0497793 0.0350579 0.0226922 0.0128746 0.00575598 0.00144344 1.56477e-26 0 0.00188428 0.00749832 0.0167552 0.0294921 0.0455035 0.0645326 0.0862772 0.110395 0.136509 0.164214 0.193079 0.222659 0.252482 0.282103 0.311078 0.338947 0.365281 0.389669 0.41173 0.431118 0.447524 0.460687 0.470392 0.476685 0.478761 0.477492 0.472342 0.463331 0.450887 0.435073 0.416133 0.394364 0.370108 0.343752 0.315716 0.286452 0.256429 0.226145 0.196068 0.166679 0.138464 0.111875 0.0873374 0.065242 0.045938 0.0297278 0.0168621 0.00753678 0.00188941 2.04756e-26 0 0.0022979 0.0091413 0.020424 0.0359424 0.0554445 0.0786159 0.105088 0.134445 0.166228 0.199945 0.235077 0.271082 0.307388 0.343459 0.378761 0.412735 0.444858 0.474633 0.501596 0.525324 0.54544 0.56162 0.573599 0.581471 0.584091 0.582761 0.576613 0.565747 0.55069 0.5315 0.508472 0.481964 0.452395 0.420237 0.386005 0.35025 0.313553 0.276526 0.239743 0.203794 0.169279 0.136754 0.106742 0.0797226 0.056122 0.0363095 0.0205902 0.00920069 0.0023058 2.49801e-26 0 0.00267491 0.0106376 0.0237639 0.0418109 0.0644835 0.0914143 0.122174 0.15628 0.193201 0.232367 0.273178 0.315009 0.357194 0.399121 0.440173 0.479704 0.517106 0.551805 0.583261 0.610981 0.634525 0.653511 0.667627 0.677013 0.680193 0.678889 0.671895 0.659402 0.642019 0.619798 0.593077 0.562271 0.527867 0.490414 0.450515 0.408817 0.365999 0.322783 0.279839 0.237862 0.197556 0.159576 0.124535 0.0929928 0.0654491 0.0423336 0.024 0.0107214 0.00268604 2.90904e-26 0 0.00300943 0.011964 0.0267224 0.0470052 0.0724782 0.102726 0.137267 0.175558 0.217004 0.260969 0.306781 0.353746 0.401114 0.448209 0.494344 0.538795 0.580883 0.619965 0.655433 0.686734 0.713369 0.734906 0.750988 0.761791 0.76555 0.764344 0.75668 0.742814 0.723429 0.698569 0.66861 0.634015 0.595331 0.553175 0.50823 0.461227 0.412938 0.364185 0.315724 0.268345 0.222849 0.179981 0.140434 0.104843 0.0737723 0.047705 0.0270378 0.0120751 0.00302415 3.27422e-26 0 0.00329622 0.0130997 0.0292531 0.0514438 0.0793029 0.112374 0.150128 0.191973 0.237261 0.285298 0.335356 0.38668 0.438454 0.489947 0.540417 0.589074 0.63518 0.678032 0.716968 0.751381 0.780722 0.804514 0.822359 0.834454 0.838817 0.837762 0.829626 0.814658 0.793629 0.766566 0.733875 0.69606 0.653718 0.607526 0.558235 0.506653 0.453628 0.400077 0.34683 0.294761 0.244759 0.197645 0.154188 0.115087 0.0809601 0.0523389 0.0296556 0.0132402 0.00331481 3.58785e-26 0 0.00353081 0.0140269 0.0313164 0.055057 0.0848502 0.120205 0.160556 0.205268 0.253652 0.304971 0.35845 0.413289 0.468622 0.523675 0.577663 0.629744 0.679135 0.725087 0.766892 0.803899 0.835518 0.861233 0.880608 0.893847 0.898838 0.897972 0.889579 0.873797 0.851505 0.822709 0.787837 0.747422 0.702103 0.652607 0.59974 0.544374 0.487427 0.429891 0.372664 0.316692 0.262938 0.212291 0.165581 0.123561 0.086899 0.0561621 0.0318121 0.0141984 0.00355342 3.84501e-26 0 0.00370953 0.0147314 0.0328799 0.057788 0.0890329 0.126097 0.168384 0.215231 0.265917 0.319675 0.375698 0.433153 0.491142 0.548857 0.605489 0.66016 0.712052 0.760383 0.804413 0.843455 0.876887 0.904162 0.924813 0.939026 0.944666 0.944016 0.935591 0.91929 0.896139 0.866108 0.829638 0.787286 0.739719 0.687701 0.632085 0.573792 0.513798 0.453154 0.392819 0.333791 0.277099 0.223686 0.174431 0.130133 0.091495 0.0591142 0.0334732 0.0149346 0.00373625 4.04171e-26 0 0.0038304 0.0152083 0.0339388 0.0596374 0.0918644 0.130082 0.173676 0.22196 0.274194 0.32959 0.387321 0.446536 0.506312 0.565825 0.624247 0.680677 0.734274 0.784232 0.829785 0.870223 0.904896 0.933232 0.954742 0.969603 0.975628 0.975161 0.966938 0.950419 0.926825 0.896075 0.858617 0.815019 0.765967 0.712251 0.654756 0.59444 0.532321 0.469497 0.406972 0.345786 0.287017 0.231648 0.180599 0.134698 0.0946755 0.0611486 0.0346127 0.0154371 0.0038604 4.17488e-26 0 0.00388833 0.0154257 0.0343984 0.0604028 0.0929843 0.131594 0.175607 0.224334 0.277033 0.332916 0.391159 0.450916 0.511274 0.571401 0.630489 0.687636 0.742006 0.792792 0.839227 0.880593 0.916234 0.94556 0.968063 0.983803 0.991047 0.990978 0.983505 0.967242 0.943794 0.912987 0.875261 0.831186 0.781458 0.726883 0.668369 0.606902 0.543532 0.479392 0.415529 0.353011 0.292953 0.236374 0.184219 0.137341 0.0964874 0.0622857 0.0352359 0.0157053 0.00392485 4.24244e-26 0 0.00388824 0.0154245 0.0343924 0.060385 0.0929439 0.131517 0.175477 0.224136 0.276752 0.332541 0.390689 0.450353 0.510633 0.5707 0.629756 0.686901 0.741303 0.792151 0.838675 0.880149 0.915904 0.945342 0.967944 0.983757 0.991041 0.990981 0.983534 0.967317 0.94393 0.913194 0.87554 0.831532 0.781857 0.727318 0.668817 0.607342 0.543943 0.479758 0.41584 0.35326 0.293141 0.236506 0.184305 0.137392 0.0965139 0.0622973 0.0352398 0.0157061 0.0039249 4.24336e-26 0 0.00382397 0.015158 0.0337725 0.0592552 0.0911465 0.128899 0.171896 0.219467 0.27089 0.325409 0.382235 0.440562 0.499528 0.558322 0.61619 0.672263 0.725735 0.775823 0.821775 0.86288 0.898478 0.927972 0.950837 0.966992 0.975244 0.975622 0.969753 0.95458 0.932371 0.902778 0.86621 0.823216 0.774471 0.720775 0.663032 0.602235 0.539442 0.475796 0.412378 0.350253 0.29056 0.234329 0.182515 0.135974 0.0954501 0.0615608 0.0347919 0.0154913 0.0038672 4.17761e-26 0 0.00370017 0.014658 0.0326362 0.0572259 0.0879734 0.124344 0.165743 0.211522 0.260993 0.313435 0.368101 0.424227 0.481004 0.537651 0.593467 0.647624 0.699354 0.747909 0.792564 0.83263 0.867463 0.896473 0.919138 0.935262 0.944143 0.944694 0.939534 0.925129 0.903944 0.87557 0.840392 0.79893 0.751834 0.699873 0.643925 0.584957 0.524005 0.462184 0.400563 0.340182 0.282159 0.227505 0.177154 0.13194 0.0925874 0.0596932 0.0337238 0.0150101 0.00374568 4.04624e-26 0 0.00351786 0.0139253 0.0309794 0.05428 0.0833861 0.117785 0.156908 0.200147 0.246854 0.296359 0.347968 0.400974 0.454637 0.508219 0.561084 0.61246 0.661632 0.707897 0.750571 0.788997 0.822555 0.850671 0.872832 0.888718 0.898184 0.898985 0.895058 0.881878 0.862278 0.835751 0.802645 0.763446 0.718766 0.669341 0.616014 0.559715 0.50145 0.442294 0.3833 0.325467 0.269885 0.217534 0.169318 0.126042 0.088398 0.0569565 0.032156 0.014302 0.00356637 3.85129e-26 0 0.00327989 0.0129714 0.028828 0.0504638 0.0774566 0.109322 0.145531 0.18552 0.228696 0.27445 0.322154 0.371172 0.420847 0.470494 0.519557 0.567334 0.613173 0.65643 0.696471 0.732682 0.764476 0.791305 0.812668 0.828124 0.838091 0.839176 0.836614 0.824914 0.807253 0.783025 0.752539 0.716235 0.674682 0.628567 0.578687 0.525925 0.471238 0.41565 0.360179 0.305773 0.253476 0.204225 0.158878 0.118199 0.0828411 0.0533358 0.0300872 0.0133702 0.00333106 3.59581e-26 0 0.00298997 0.0118111 0.0262157 0.0458373 0.0702784 0.0990908 0.131792 0.167873 0.206807 0.248055 0.29107 0.335295 0.380168 0.425077 0.469548 0.512964 0.55475 0.594328 0.631128 0.664586 0.694159 0.719327 0.739611 0.75458 0.764464 0.766695 0.764789 0.755268 0.739752 0.718239 0.690876 0.658053 0.620285 0.578202 0.53254 0.484125 0.433852 0.382675 0.331569 0.281413 0.233193 0.187787 0.145998 0.108536 0.0760044 0.0488881 0.0275501 0.0122294 0.00304347 3.28379e-26 0 0.00265262 0.0104625 0.0231835 0.0404733 0.0619644 0.0872515 0.115906 0.147483 0.181531 0.217592 0.255205 0.29391 0.33324 0.372691 0.411849 0.450214 0.48729 0.52258 0.555582 0.585795 0.612722 0.635884 0.654826 0.669134 0.678803 0.682308 0.681031 0.673945 0.66085 0.642425 0.61864 0.589828 0.556442 0.519046 0.478308 0.434979 0.389883 0.343894 0.297922 0.252774 0.209358 0.168482 0.130883 0.0972064 0.0679962 0.0436839 0.0245848 0.0108977 0.00270813 2.92011e-26 0 0.00227313 0.00894652 0.0197789 0.0344559 0.0526453 0.0739907 0.098124 0.124673 0.153268 0.18354 0.215127 0.247669 0.280806 0.314159 0.347371 0.380074 0.411861 0.442321 0.47103 0.497555 0.521458 0.5423 0.55966 0.57314 0.582521 0.587252 0.586751 0.582207 0.571802 0.556787 0.536977 0.512643 0.484168 0.45204 0.41685 0.379268 0.34003 0.299921 0.259773 0.220309 0.182347 0.146616 0.113772 0.0843889 0.0589431 0.0378054 0.0212381 0.00939605 0.00233031 2.51046e-26 0 0.00185743 0.00728698 0.0160555 0.0278799 0.0424678 0.059517 0.0787264 0.0998022 0.122462 0.146437 0.171467 0.197303 0.223697 0.2504 0.277131 0.30365 0.329651 0.354816 0.378806 0.401262 0.421808 0.440055 0.455617 0.468119 0.47721 0.482874 0.483609 0.481381 0.474054 0.46268 0.44718 0.427719 0.404604 0.378244 0.34914 0.317872 0.285083 0.251456 0.217724 0.184532 0.152589 0.122534 0.0949353 0.0702862 0.0489881 0.0313454 0.017563 0.0077482 0.00191598 2.06124e-26 0 0.00141205 0.00550981 0.0120717 0.0208486 0.0315921 0.0440585 0.0580181 0.073261 0.0895988 0.106865 0.124912 0.143603 0.162811 0.182404 0.202239 0.222148 0.241954 0.261442 0.280362 0.298432 0.315342 0.330759 0.344334 0.355721 0.36458 0.370625 0.373515 0.372865 0.369195 0.361584 0.350663 0.336395 0.319007 0.298823 0.276248 0.251763 0.225909 0.199264 0.172441 0.146009 0.120555 0.0966167 0.0746711 0.0551213 0.0382886 0.024406 0.0136173 0.00598015 0.00147165 1.5795e-26 0 0.000943961 0.00364286 0.0078902 0.0134727 0.0201893 0.0278583 0.0363253 0.0454676 0.055195 0.065448 0.0761929 0.0874143 0.0991053 0.111258 0.12385 0.136839 0.150152 0.163675 0.177246 0.190679 0.203731 0.216125 0.227558 0.23771 0.246259 0.252845 0.257261 0.259199 0.258451 0.255173 0.248942 0.240105 0.228724 0.215026 0.199321 0.181983 0.163443 0.144166 0.124643 0.10535 0.0867499 0.0692748 0.0532996 0.0391338 0.0270135 0.0170967 0.0094635 0.00411977 0.00100433 1.07279e-26 0 0.000460536 0.00171555 0.00357723 0.00586963 0.00844179 0.0111766 0.0139973 0.0168709 0.0198074 0.0228566 0.0261012 0.0296472 0.0336121 0.0381123 0.04325 0.0491019 0.0557076 0.0630607 0.0711027 0.0797207 0.0887482 0.097968 0.107122 0.115935 0.124097 0.131243 0.137125 0.141489 0.144153 0.144841 0.14363 0.140377 0.13517 0.128171 0.11957 0.10963 0.098668 0.0870309 0.075085 0.0631968 0.0517086 0.0409395 0.0311581 0.022576 0.0153407 0.00953285 0.00516698 0.00219643 0.000521382 5.49063e-27 0 -3.04136e-05 -0.000240438 -0.000795526 -0.00183376 -0.0034544 -0.00570907 -0.00859599 -0.0120579 -0.0159838 -0.0202138 -0.0245484 -0.0287596 -0.0326051 -0.0358433 -0.038248 -0.0396231 -0.0398155 -0.0387262 -0.036318 -0.0326191 -0.0277228 -0.0217834 -0.0150099 -0.00765452 -8.43127e-08 0.00765465 0.0150101 0.0217837 0.0277231 0.0326193 0.0363179 0.0387254 0.0398141 0.0396217 0.0382473 0.035843 0.0326047 0.0287591 0.0245479 0.0202135 0.0159836 0.0120579 0.00859598 0.00570906 0.0034544 0.00183376 0.000795527 0.000240438 3.04136e-05 1.65636e-28 0 -0.000521382 -0.00219643 -0.00516698 -0.00953285 -0.0153407 -0.022576 -0.0311581 -0.0409395 -0.0517088 -0.0631972 -0.0750856 -0.0870314 -0.0986686 -0.109631 -0.119571 -0.128173 -0.135172 -0.140378 -0.14363 -0.14484 -0.144153 -0.141489 -0.137124 -0.131243 -0.124097 -0.115934 -0.107122 -0.0979677 -0.0887478 -0.0797199 -0.0711024 -0.0630614 -0.0557085 -0.0491025 -0.0432497 -0.0381118 -0.0336122 -0.0296476 -0.0261017 -0.0228569 -0.0198075 -0.0168709 -0.0139974 -0.0111766 -0.00844179 -0.00586962 -0.00357723 -0.00171555 -0.000460536 -5.16326e-27 0 -0.00100433 -0.00411977 -0.0094635 -0.0170967 -0.0270135 -0.0391338 -0.0532996 -0.0692749 -0.0867502 -0.105351 -0.124644 -0.144166 -0.163443 -0.181984 -0.199322 -0.215027 -0.228725 -0.240106 -0.248942 -0.255173 -0.258451 -0.259199 -0.257261 -0.252845 -0.246259 -0.23771 -0.227558 -0.216125 -0.20373 -0.190677 -0.177245 -0.163675 -0.150151 -0.136838 -0.123849 -0.111257 -0.099105 -0.0874145 -0.0761932 -0.0654482 -0.0551951 -0.0454676 -0.0363253 -0.0278583 -0.0201893 -0.0134727 -0.0078902 -0.00364286 -0.000943961 -1.0412e-26 0 -0.00147165 -0.00598014 -0.0136173 -0.024406 -0.0382886 -0.0551214 -0.0746711 -0.0966169 -0.120555 -0.14601 -0.172441 -0.199264 -0.225909 -0.251764 -0.276249 -0.298824 -0.319008 -0.336395 -0.350663 -0.361584 -0.369195 -0.372864 -0.373514 -0.370625 -0.36458 -0.35572 -0.344334 -0.330757 -0.315341 -0.298431 -0.280361 -0.261441 -0.241952 -0.222146 -0.202237 -0.182403 -0.162811 -0.143603 -0.124912 -0.106865 -0.0895989 -0.073261 -0.0580181 -0.0440585 -0.0315921 -0.0208486 -0.0120717 -0.00550981 -0.00141205 -1.54977e-26 0 -0.00191598 -0.0077482 -0.017563 -0.0313454 -0.0489881 -0.0702862 -0.0949353 -0.122534 -0.15259 -0.184532 -0.217724 -0.251456 -0.285082 -0.317873 -0.349141 -0.378245 -0.404605 -0.42772 -0.44718 -0.46268 -0.474054 -0.481381 -0.483608 -0.482874 -0.47721 -0.468118 -0.455616 -0.440054 -0.421807 -0.401261 -0.378804 -0.354812 -0.329647 -0.303647 -0.277128 -0.250398 -0.223697 -0.197303 -0.171467 -0.146437 -0.122462 -0.0998022 -0.0787264 -0.059517 -0.0424678 -0.0278799 -0.0160555 -0.00728698 -0.00185743 -2.03399e-26 0 -0.00233031 -0.00939605 -0.0212381 -0.0378054 -0.0589431 -0.0843889 -0.113772 -0.146616 -0.182348 -0.220309 -0.259773 -0.299921 -0.34003 -0.379268 -0.416851 -0.452042 -0.484168 -0.512644 -0.536978 -0.556787 -0.571802 -0.582207 -0.586751 -0.587252 -0.582521 -0.57314 -0.559659 -0.542299 -0.521456 -0.497553 -0.471027 -0.442317 -0.411857 -0.380071 -0.347368 -0.314158 -0.280806 -0.247669 -0.215127 -0.18354 -0.153268 -0.124673 -0.098124 -0.0739907 -0.0526453 -0.0344559 -0.0197789 -0.00894652 -0.00227313 -2.48619e-26 0 -0.00270813 -0.0108977 -0.0245848 -0.0436839 -0.0679962 -0.0972065 -0.130883 -0.168483 -0.209359 -0.252775 -0.297922 -0.343893 -0.389882 -0.434979 -0.478308 -0.519047 -0.556443 -0.589829 -0.61864 -0.642425 -0.66085 -0.673945 -0.681031 -0.682308 -0.678803 -0.669133 -0.654825 -0.635883 -0.61272 -0.585792 -0.55558 -0.522577 -0.487287 -0.450212 -0.411847 -0.37269 -0.33324 -0.29391 -0.255205 -0.217592 -0.181531 -0.147483 -0.115906 -0.0872515 -0.0619644 -0.0404733 -0.0231835 -0.0104625 -0.00265262 -2.8992e-26 0 -0.00304347 -0.0122294 -0.0275501 -0.0488881 -0.0760044 -0.108536 -0.145998 -0.187788 -0.233194 -0.281414 -0.331569 -0.382674 -0.43385 -0.484124 -0.53254 -0.578203 -0.620286 -0.658054 -0.690876 -0.718239 -0.739752 -0.755268 -0.764789 -0.766695 -0.764464 -0.75458 -0.739611 -0.719327 -0.694158 -0.664585 -0.631127 -0.594327 -0.554749 -0.512963 -0.469547 -0.425076 -0.380168 -0.335295 -0.29107 -0.248055 -0.206807 -0.167873 -0.131792 -0.0990908 -0.0702784 -0.0458373 -0.0262157 -0.0118111 -0.00298997 -3.26646e-26 0 -0.00333106 -0.0133702 -0.0300872 -0.0533358 -0.0828411 -0.118199 -0.158878 -0.204225 -0.253477 -0.305774 -0.360179 -0.415649 -0.471237 -0.525924 -0.578686 -0.628568 -0.674682 -0.716235 -0.752539 -0.783025 -0.807253 -0.824914 -0.836614 -0.839176 -0.838091 -0.828124 -0.812668 -0.791306 -0.764477 -0.732682 -0.69647 -0.656429 -0.613173 -0.567334 -0.519557 -0.470494 -0.420847 -0.371172 -0.322154 -0.27445 -0.228696 -0.18552 -0.145531 -0.109322 -0.0774566 -0.0504638 -0.028828 -0.0129714 -0.00327989 -3.58213e-26 0 -0.00356637 -0.014302 -0.032156 -0.0569565 -0.088398 -0.126042 -0.169318 -0.217535 -0.269885 -0.325467 -0.3833 -0.442293 -0.501448 -0.559714 -0.616013 -0.669342 -0.718767 -0.763446 -0.802646 -0.835751 -0.862278 -0.881878 -0.895058 -0.898985 -0.898184 -0.888718 -0.872832 -0.850672 -0.822555 -0.788997 -0.750571 -0.707897 -0.661632 -0.61246 -0.561084 -0.508219 -0.454637 -0.400973 -0.347967 -0.296359 -0.246854 -0.200147 -0.156908 -0.117785 -0.0833861 -0.05428 -0.0309794 -0.0139253 -0.00351786 -3.84117e-26 0 -0.00374568 -0.0150101 -0.0337238 -0.0596932 -0.0925874 -0.13194 -0.177154 -0.227506 -0.28216 -0.340183 -0.400564 -0.462184 -0.524004 -0.584956 -0.643924 -0.699873 -0.751834 -0.798931 -0.840393 -0.87557 -0.903944 -0.925129 -0.939534 -0.944694 -0.944143 -0.935262 -0.919138 -0.896474 -0.867464 -0.832631 -0.792564 -0.747909 -0.699354 -0.647624 -0.593467 -0.537651 -0.481004 -0.424227 -0.368101 -0.313435 -0.260993 -0.211522 -0.165743 -0.124344 -0.0879734 -0.0572259 -0.0326362 -0.014658 -0.00370017 -4.03947e-26 0 -0.0038672 -0.0154913 -0.0347919 -0.0615608 -0.0954501 -0.135975 -0.182516 -0.23433 -0.29056 -0.350253 -0.412378 -0.475797 -0.539441 -0.602233 -0.663031 -0.720775 -0.774471 -0.823216 -0.866211 -0.902778 -0.932371 -0.95458 -0.969753 -0.975622 -0.975244 -0.966992 -0.950838 -0.927973 -0.898479 -0.86288 -0.821775 -0.775823 -0.725735 -0.672263 -0.61619 -0.558322 -0.499528 -0.440562 -0.382235 -0.325408 -0.27089 -0.219467 -0.171896 -0.128899 -0.0911465 -0.0592552 -0.0337725 -0.015158 -0.00382397 -4.17386e-26 0 -0.0039249 -0.0157061 -0.0352398 -0.0622973 -0.0965139 -0.137392 -0.184305 -0.236506 -0.293141 -0.35326 -0.41584 -0.479758 -0.543943 -0.607341 -0.668816 -0.727317 -0.781857 -0.831532 -0.87554 -0.913194 -0.94393 -0.967317 -0.983534 -0.990981 -0.991041 -0.983757 -0.967944 -0.945342 -0.915904 -0.880149 -0.838675 -0.792151 -0.741302 -0.686901 -0.629756 -0.5707 -0.510633 -0.450353 -0.390689 -0.332541 -0.276752 -0.224136 -0.175477 -0.131517 -0.0929439 -0.060385 -0.0343924 -0.0154245 -0.00388824 -4.24219e-26 0 -0.00392485 -0.0157053 -0.0352359 -0.0622857 -0.0964874 -0.137341 -0.184219 -0.236374 -0.292953 -0.35301 -0.415529 -0.479393 -0.543533 -0.606901 -0.668368 -0.726882 -0.781457 -0.831186 -0.87526 -0.912987 -0.943794 -0.967242 -0.983505 -0.990978 -0.991047 -0.983803 -0.968064 -0.94556 -0.916234 -0.880593 -0.839227 -0.792792 -0.742006 -0.687636 -0.630489 -0.571401 -0.511273 -0.450916 -0.391159 -0.332916 -0.277033 -0.224334 -0.175607 -0.131594 -0.0929843 -0.0604028 -0.0343984 -0.0154257 -0.00388833 -4.24336e-26 0 -0.0038604 -0.0154371 -0.0346127 -0.0611486 -0.0946756 -0.134698 -0.180599 -0.231649 -0.287016 -0.345785 -0.406971 -0.469497 -0.532322 -0.594441 -0.654756 -0.71225 -0.765966 -0.815018 -0.858617 -0.896075 -0.926825 -0.950419 -0.966937 -0.975161 -0.975628 -0.969603 -0.954742 -0.933232 -0.904896 -0.870223 -0.829785 -0.784232 -0.734274 -0.680677 -0.624247 -0.565825 -0.506312 -0.446535 -0.38732 -0.329589 -0.274195 -0.22196 -0.173676 -0.130082 -0.0918644 -0.0596374 -0.0339388 -0.0152083 -0.0038304 -4.17735e-26 0 -0.00373625 -0.0149346 -0.0334732 -0.0591142 -0.0914951 -0.130133 -0.174432 -0.223686 -0.277098 -0.333788 -0.392816 -0.453154 -0.5138 -0.573794 -0.632086 -0.687701 -0.739718 -0.787286 -0.829638 -0.866108 -0.896139 -0.91929 -0.935591 -0.944016 -0.944666 -0.939026 -0.924813 -0.904162 -0.876887 -0.843455 -0.804413 -0.760383 -0.712052 -0.66016 -0.605489 -0.548857 -0.491141 -0.433153 -0.375696 -0.319674 -0.265917 -0.215231 -0.168384 -0.126097 -0.0890329 -0.057788 -0.0328799 -0.0147314 -0.00370953 -4.0452e-26 0 -0.00355342 -0.0141984 -0.0318121 -0.0561621 -0.086899 -0.123562 -0.165582 -0.212292 -0.262937 -0.316688 -0.37266 -0.42989 -0.48743 -0.544377 -0.599742 -0.652607 -0.702103 -0.747422 -0.787836 -0.822709 -0.851505 -0.873797 -0.889579 -0.897972 -0.898838 -0.893847 -0.880608 -0.861233 -0.835518 -0.803899