<?xml version="1.0"?>
<VTKFile type="PolyData">
	<PolyData>
		<Piece NumberOfPoints="2601" NumberOfPolys="2500">
			<Points>
				<DataArray type="Float32" NumberOfComponents="3" format="ascii">
 0 0 0 0.02 0 0 0.04 0 0 0.06 0 0 0.08 0 0 0.1 0 0 0.12 0 0 0.14 0 0 0.16 0 0 0.18 0 0 0.2 0 0 0.22 0 0 0.24 0 0 0.26 0 0 0.28 0 0 0.3 0 0 0.32 0 0 0.34 0 0 0.36 0 0 0.38 0 0 0.4 0 0 0.42 0 0 0.44 0 0 0.46 0 0 0.48 0 0 0.5 0 0 0.52 0 0 0.54 0 0 0.56 0 0 0.58 0 0 0.6 0 0 0.62 0 0 0.64 0 0 0.66 0 0 0.68 0 0 0.7 0 0 0.72 0 0 0.74 0 0 0.76 0 0 0.78 0 0 0.8 0 0 0.82 0 0 0.84 0 0 0.86 0 0 0.88 0 0 0.9 0 0 0.92 0 0 0.94 0 0 0.96 0 0 0.98 0 0 1 0 0 0 0.02 0 0.02 0.02 0 0.04 0.02 0 0.06 0.02 0 0.08 0.02 0 0.1 0.02 0 0.12 0.02 0 0.14 0.02 0 0.16 0.02 0 0.18 0.02 0 0.2 0.02 0 0.22 0.02 0 0.24 0.02 0 0.26 0.02 0 0.28 0.02 0 0.3 0.02 0 0.32 0.02 0 0.34 0.02 0 0.36 0.02 0 0.38 0.02 0 0.4 0.02 0 0.42 0.02 0 0.44 0.02 0 0.46 0.02 0 0.48 0.02 0 0.5 0.02 0 0.52 0.02 0 0.54 0.02 0 0.56 0.02 0 0.58 0.02 0 0.6 0.02 0 0.62 0.02 0 0.64 0.02 0 0.66 0.02 0 0.68 0.02 0 0.7 0.02 0 0.72 0.02 0 0.74 0.02 0 0.76 0.02 0 0.78 0.02 0 0.8 0.02 0 0.82 0.02 0 0.84 0.02 0 0.86 0.02 0 0.88 0.02 0 0.9 0.02 0 0.92 0.02 0 0.94 0.02 0 0.96 0.02 0 0.98 0.02 0 1 0.02 0 0 0.04 0 0.02 0.04 0 0.04 0.04 0 0.06 0.04 0 0.08 0.04 0 0.1 0.04 0 0.12 0.04 0 0.14 0.04 0 0.16 0.04 0 0.18 0.04 0 0.2 0.04 0 0.22 0.04 0 0.24 0.04 0 0.26 0.04 0 0.28 0.04 0 0.3 0.04 0 0.32 0.04 0 0.34 0.04 0 0.36 0.04 0 0.38 0.04 0 0.4 0.04 0 0.42 0.04 0 0.44 0.04 0 0.46 0.04 0 0.48 0.04 0 0.5 0.04 0 0.52 0.04 0 0.54 0.04 0 0.56 0.04 0 0.58 0.04 0 0.6 0.04 0 0.62 0.04 0 0.64 0.04 0 0.66 0.04 0 0.68 0.04 0 0.7 0.04 0 0.72 0.04 0 0.74 0.04 0 0.76 0.04 0 0.78 0.04 0 0.8 0.04 0 0.82 0.04 0 0.84 0.04 0 0.86 0.04 0 0.88 0.04 0 0.9 0.04 0 0.92 0.04 0 0.94 0.04 0 0.96 0.04 0 0.98 0.04 0 1 0.04 0 0 0.06 0 0.02 0.06 0 0.04 0.06 0 0.06 0.06 0 0.08 0.06 0 0.1 0.06 0 0.12 0.06 0 0.14 0.06 0 0.16 0.06 0 0.18 0.06 0 0.2 0.06 0 0.22 0.06 0 0.24 0.06 0 0.26 0.06 0 0.28 0.06 0 0.3 0.06 0 0.32 0.06 0 0.34 0.06 0 0.36 0.06 0 0.38 0.06 0 0.4 0.06 0 0.42 0.06 0 0.44 0.06 0 0.46 0.06 0 0.48 0.06 0 0.5 0.06 0 0.52 0.06 0 0.54 0.06 0 0.56 0.06 0 0.58 0.06 0 0.6 0.06 0 0.62 0.06 0 0.64 0.06 0 0.66 0.06 0 0.68 0.06 0 0.7 0.06 0 0.72 0.06 0 0.74 0.06 0 0.76 0.06 0 0.78 0.06 0 0.8 0.06 0 0.82 0.06 0 0.84 0.06 0 0.86 0.06 0 0.88 0.06 0 0.9 0.06 0 0.92 0.06 0 0.94 0.06 0 0.96 0.06 0 0.98 0.06 0 1 0.06 0 0 0.08 0 0.02 0.08 0 0.04 0.08 0 0.06 0.08 0 0.08 0.08 0 0.1 0.08 0 0.12 0.08 0 0.14 0.08 0 0.16 0.08 0 0.18 0.08 0 0.2 0.08 0 0.22 0.08 0 0.24 0.08 0 0.26 0.08 0 0.28 0.08 0 0.3 0.08 0 0.32 0.08 0 0.34 0.08 0 0.36 0.08 0 0.38 0.08 0 0.4 0.08 0 0.42 0.08 0 0.44 0.08 0 0.46 0.08 0 0.48 0.08 0 0.5 0.08 0 0.52 0.08 0 0.54 0.08 0 0.56 0.08 0 0.58 0.08 0 0.6 0.08 0 0.62 0.08 0 0.64 0.08 0 0.66 0.08 0 0.68 0.08 0 0.7 0.08 0 0.72 0.08 0 0.74 0.08 0 0.76 0.08 0 0.78 0.08 0 0.8 0.08 0 0.82 0.08 0 0.84 0.08 0 0.86 0.08 0 0.88 0.08 0 0.9 0.08 0 0.92 0.08 0 0.94 0.08 0 0.96 0.08 0 0.98 0.08 0 1 0.08 0 0 0.1 0 0.02 0.1 0 0.04 0.1 0 0.06 0.1 0 0.08 0.1 0 0.1 0.1 0 0.12 0.1 0 0.14 0.1 0 0.16 0.1 0 0.18 0.1 0 0.2 0.1 0 0.22 0.1 0 0.24 0.1 0 0.26 0.1 0 0.28 0.1 0 0.3 0.1 0 0.32 0.1 0 0.34 0.1 0 0.36 0.1 0 0.38 0.1 0 0.4 0.1 0 0.42 0.1 0 0.44 0.1 0 0.46 0.1 0 0.48 0.1 0 0.5 0.1 0 0.52 0.1 0 0.54 0.1 0 0.56 0.1 0 0.58 0.1 0 0.6 0.1 0 0.62 0.1 0 0.64 0.1 0 0.66 0.1 0 0.68 0.1 0 0.7 0.1 0 0.72 0.1 0 0.74 0.1 0 0.76 0.1 0 0.78 0.1 0 0.8 0.1 0 0.82 0.1 0 0.84 0.1 0 0.86 0.1 0 0.88 0.1 0 0.9 0.1 0 0.92 0.1 0 0.94 0.1 0 0.96 0.1 0 0.98 0.1 0 1 0.1 0 0 0.12 0 0.02 0.12 0 0.04 0.12 0 0.06 0.12 0 0.08 0.12 0 0.1 0.12 0 0.12 0.12 0 0.14 0.12 0 0.16 0.12 0 0.18 0.12 0 0.2 0.12 0 0.22 0.12 0 0.24 0.12 0 0.26 0.12 0 0.28 0.12 0 0.3 0.12 0 0.32 0.12 0 0.34 0.12 0 0.36 0.12 0 0.38 0.12 0 0.4 0.12 0 0.42 0.12 0 0.44 0.12 0 0.46 0.12 0 0.48 0.12 0 0.5 0.12 0 0.52 0.12 0 0.54 0.12 0 0.56 0.12 0 0.58 0.12 0 0.6 0.12 0 0.62 0.12 0 0.64 0.12 0 0.66 0.12 0 0.68 0.12 0 0.7 0.12 0 0.72 0.12 0 0.74 0.12 0 0.76 0.12 0 0.78 0.12 0 0.8 0.12 0 0.82 0.12 0 0.84 0.12 0 0.86 0.12 0 0.88 0.12 0 0.9 0.12 0 0.92 0.12 0 0.94 0.12 0 0.96 0.12 0 0.98 0.12 0 1 0.12 0 0 0.14 0 0.02 0.14 0 0.04 0.14 0 0.06 0.14 0 0.08 0.14 0 0.1 0.14 0 0.12 0.14 0 0.14 0.14 0 0.16 0.14 0 0.18 0.14 0 0.2 0.14 0 0.22 0.14 0 0.24 0.14 0 0.26 0.14 0 0.28 0.14 0 0.3 0.14 0 0.32 0.14 0 0.34 0.14 0 0.36 0.14 0 0.38 0.14 0 0.4 0.14 0 0.42 0.14 0 0.44 0.14 0 0.46 0.14 0 0.48 0.14 0 0.5 0.14 0 0.52 0.14 0 0.54 0.14 0 0.56 0.14 0 0.58 0.14 0 0.6 0.14 0 0.62 0.14 0 0.64 0.14 0 0.66 0.14 0 0.68 0.14 0 0.7 0.14 0 0.72 0.14 0 0.74 0.14 0 0.76 0.14 0 0.78 0.14 0 0.8 0.14 0 0.82 0.14 0 0.84 0.14 0 0.86 0.14 0 0.88 0.14 0 0.9 0.14 0 0.92 0.14 0 0.94 0.14 0 0.96 0.14 0 0.98 0.14 0 1 0.14 0 0 0.16 0 0.02 0.16 0 0.04 0.16 0 0.06 0.16 0 0.08 0.16 0 0.1 0.16 0 0.12 0.16 0 0.14 0.16 0 0.16 0.16 0 0.18 0.16 0 0.2 0.16 0 0.22 0.16 0 0.24 0.16 0 0.26 0.16 0 0.28 0.16 0 0.3 0.16 0 0.32 0.16 0 0.34 0.16 0 0.36 0.16 0 0.38 0.16 0 0.4 0.16 0 0.42 0.16 0 0.44 0.16 0 0.46 0.16 0 0.48 0.16 0 0.5 0.16 0 0.52 0.16 0 0.54 0.16 0 0.56 0.16 0 0.58 0.16 0 0.6 0.16 0 0.62 0.16 0 0.64 0.16 0 0.66 0.16 0 0.68 0.16 0 0.7 0.16 0 0.72 0.16 0 0.74 0.16 0 0.76 0.16 0 0.78 0.16 0 0.8 0.16 0 0.82 0.16 0 0.84 0.16 0 0.86 0.16 0 0.88 0.16 0 0.9 0.16 0 0.92 0.16 0 0.94 0.16 0 0.96 0.16 0 0.98 0.16 0 1 0.16 0 0 0.18 0 0.02 0.18 0 0.04 0.18 0 0.06 0.18 0 0.08 0.18 0 0.1 0.18 0 0.12 0.18 0 0.14 0.18 0 0.16 0.18 0 0.18 0.18 0 0.2 0.18 0 0.22 0.18 0 0.24 0.18 0 0.26 0.18 0 0.28 0.18 0 0.3 0.18 0 0.32 0.18 0 0.34 0.18 0 0.36 0.18 0 0.38 0.18 0 0.4 0.18 0 0.42 0.18 0 0.44 0.18 0 0.46 0.18 0 0.48 0.18 0 0.5 0.18 0 0.52 0.18 0 0.54 0.18 0 0.56 0.18 0 0.58 0.18 0 0.6 0.18 0 0.62 0.18 0 0.64 0.18 0 0.66 0.18 0 0.68 0.18 0 0.7 0.18 0 0.72 0.18 0 0.74 0.18 0 0.76 0.18 0 0.78 0.18 0 0.8 0.18 0 0.82 0.18 0 0.84 0.18 0 0.86 0.18 0 0.88 0.18 0 0.9 0.18 0 0.92 0.18 0 0.94 0.18 0 0.96 0.18 0 0.98 0.18 0 1 0.18 0 0 0.2 0 0.02 0.2 0 0.04 0.2 0 0.06 0.2 0 0.08 0.2 0 0.1 0.2 0 0.12 0.2 0 0.14 0.2 0 0.16 0.2 0 0.18 0.2 0 0.2 0.2 0 0.22 0.2 0 0.24 0.2 0 0.26 0.2 0 0.28 0.2 0 0.3 0.2 0 0.32 0.2 0 0.34 0.2 0 0.36 0.2 0 0.38 0.2 0 0.4 0.2 0 0.42 0.2 0 0.44 0.2 0 0.46 0.2 0 0.48 0.2 0 0.5 0.2 0 0.52 0.2 0 0.54 0.2 0 0.56 0.2 0 0.58 0.2 0 0.6 0.2 0 0.62 0.2 0 0.64 0.2 0 0.66 0.2 0 0.68 0.2 0 0.7 0.2 0 0.72 0.2 0 0.74 0.2 0 0.76 0.2 0 0.78 0.2 0 0.8 0.2 0 0.82 0.2 0 0.84 0.2 0 0.86 0.2 0 0.88 0.2 0 0.9 0.2 0 0.92 0.2 0 0.94 0.2 0 0.96 0.2 0 0.98 0.2 0 1 0.2 0 0 0.22 0 0.02 0.22 0 0.04 0.22 0 0.06 0.22 0 0.08 0.22 0 0.1 0.22 0 0.12 0.22 0 0.14 0.22 0 0.16 0.22 0 0.18 0.22 0 0.2 0.22 0 0.22 0.22 0 0.24 0.22 0 0.26 0.22 0 0.28 0.22 0 0.3 0.22 0 0.32 0.22 0 0.34 0.22 0 0.36 0.22 0 0.38 0.22 0 0.4 0.22 0 0.42 0.22 0 0.44 0.22 0 0.46 0.22 0 0.48 0.22 0 0.5 0.22 0 0.52 0.22 0 0.54 0.22 0 0.56 0.22 0 0.58 0.22 0 0.6 0.22 0 0.62 0.22 0 0.64 0.22 0 0.66 0.22 0 0.68 0.22 0 0.7 0.22 0 0.72 0.22 0 0.74 0.22 0 0.76 0.22 0 0.78 0.22 0 0.8 0.22 0 0.82 0.22 0 0.84 0.22 0 0.86 0.22 0 0.88 0.22 0 0.9 0.22 0 0.92 0.22 0 0.94 0.22 0 0.96 0.22 0 0.98 0.22 0 1 0.22 0 0 0.24 0 0.02 0.24 0 0.04 0.24 0 0.06 0.24 0 0.08 0.24 0 0.1 0.24 0 0.12 0.24 0 0.14 0.24 0 0.16 0.24 0 0.18 0.24 0 0.2 0.24 0 0.22 0.24 0 0.24 0.24 0 0.26 0.24 0 0.28 0.24 0 0.3 0.24 0 0.32 0.24 0 0.34 0.24 0 0.36 0.24 0 0.38 0.24 0 0.4 0.24 0 0.42 0.24 0 0.44 0.24 0 0.46 0.24 0 0.48 0.24 0 0.5 0.24 0 0.52 0.24 0 0.54 0.24 0 0.56 0.24 0 0.58 0.24 0 0.6 0.24 0 0.62 0.24 0 0.64 0.24 0 0.66 0.24 0 0.68 0.24 0 0.7 0.24 0 0.72 0.24 0 0.74 0.24 0 0.76 0.24 0 0.78 0.24 0 0.8 0.24 0 0.82 0.24 0 0.84 0.24 0 0.86 0.24 0 0.88 0.24 0 0.9 0.24 0 0.92 0.24 0 0.94 0.24 0 0.96 0.24 0 0.98 0.24 0 1 0.24 0 0 0.26 0 0.02 0.26 0 0.04 0.26 0 0.06 0.26 0 0.08 0.26 0 0.1 0.26 0 0.12 0.26 0 0.14 0.26 0 0.16 0.26 0 0.18 0.26 0 0.2 0.26 0 0.22 0.26 0 0.24 0.26 0 0.26 0.26 0 0.28 0.26 0 0.3 0.26 0 0.32 0.26 0 0.34 0.26 0 0.36 0.26 0 0.38 0.26 0 0.4 0.26 0 0.42 0.26 0 0.44 0.26 0 0.46 0.26 0 0.48 0.26 0 0.5 0.26 0 0.52 0.26 0 0.54 0.26 0 0.56 0.26 0 0.58 0.26 0 0.6 0.26 0 0.62 0.26 0 0.64 0.26 0 0.66 0.26 0 0.68 0.26 0 0.7 0.26 0 0.72 0.26 0 0.74 0.26 0 0.76 0.26 0 0.78 0.26 0 0.8 0.26 0 0.82 0.26 0 0.84 0.26 0 0.86 0.26 0 0.88 0.26 0 0.9 0.26 0 0.92 0.26 0 0.94 0.26 0 0.96 0.26 0 0.98 0.26 0 1 0.26 0 0 0.28 0 0.02 0.28 0 0.04 0.28 0 0.06 0.28 0 0.08 0.28 0 0.1 0.28 0 0.12 0.28 0 0.14 0.28 0 0.16 0.28 0 0.18 0.28 0 0.2 0.28 0 0.22 0.28 0 0.24 0.28 0 0.26 0.28 0 0.28 0.28 0 0.3 0.28 0 0.32 0.28 0 0.34 0.28 0 0.36 0.28 0 0.38 0.28 0 0.4 0.28 0 0.42 0.28 0 0.44 0.28 0 0.46 0.28 0 0.48 0.28 0 0.5 0.28 0 0.52 0.28 0 0.54 0.28 0 0.56 0.28 0 0.58 0.28 0 0.6 0.28 0 0.62 0.28 0 0.64 0.28 0 0.66 0.28 0 0.68 0.28 0 0.7 0.28 0 0.72 0.28 0 0.74 0.28 0 0.76 0.28 0 0.78 0.28 0 0.8 0.28 0 0.82 0.28 0 0.84 0.28 0 0.86 0.28 0 0.88 0.28 0 0.9 0.28 0 0.92 0.28 0 0.94 0.28 0 0.96 0.28 0 0.98 0.28 0 1 0.28 0 0 0.3 0 0.02 0.3 0 0.04 0.3 0 0.06 0.3 0 0.08 0.3 0 0.1 0.3 0 0.12 0.3 0 0.14 0.3 0 0.16 0.3 0 0.18 0.3 0 0.2 0.3 0 0.22 0.3 0 0.24 0.3 0 0.26 0.3 0 0.28 0.3 0 0.3 0.3 0 0.32 0.3 0 0.34 0.3 0 0.36 0.3 0 0.38 0.3 0 0.4 0.3 0 0.42 0.3 0 0.44 0.3 0 0.46 0.3 0 0.48 0.3 0 0.5 0.3 0 0.52 0.3 0 0.54 0.3 0 0.56 0.3 0 0.58 0.3 0 0.6 0.3 0 0.62 0.3 0 0.64 0.3 0 0.66 0.3 0 0.68 0.3 0 0.7 0.3 0 0.72 0.3 0 0.74 0.3 0 0.76 0.3 0 0.78 0.3 0 0.8 0.3 0 0.82 0.3 0 0.84 0.3 0 0.86 0.3 0 0.88 0.3 0 0.9 0.3 0 0.92 0.3 0 0.94 0.3 0 0.96 0.3 0 0.98 0.3 0 1 0.3 0 0 0.32 0 0.02 0.32 0 0.04 0.32 0 0.06 0.32 0 0.08 0.32 0 0.1 0.32 0 0.12 0.32 0 0.14 0.32 0 0.16 0.32 0 0.18 0.32 0 0.2 0.32 0 0.22 0.32 0 0.24 0.32 0 0.26 0.32 0 0.28 0.32 0 0.3 0.32 0 0.32 0.32 0 0.34 0.32 0 0.36 0.32 0 0.38 0.32 0 0.4 0.32 0 0.42 0.32 0 0.44 0.32 0 0.46 0.32 0 0.48 0.32 0 0.5 0.32 0 0.52 0.32 0 0.54 0.32 0 0.56 0.32 0 0.58 0.32 0 0.6 0.32 0 0.62 0.32 0 0.64 0.32 0 0.66 0.32 0 0.68 0.32 0 0.7 0.32 0 0.72 0.32 0 0.74 0.32 0 0.76 0.32 0 0.78 0.32 0 0.8 0.32 0 0.82 0.32 0 0.84 0.32 0 0.86 0.32 0 0.88 0.32 0 0.9 0.32 0 0.92 0.32 0 0.94 0.
[...]
			<PointData Scalars="VitesseX">
				<DataArray Name="VitesseX" type="Float32" format="ascii">
 0 0 0 0 0 0 0 0 0 0 0 0 0 0 0 0 0 0 0 0 0 0 0 0 0 0 0 0 0 0 0 0 0 0 0 0 0 0 0 0 0 0 0 0 0 0 0 0 0 0 -0 0 -0.000471151 -0.00187739 -0.00419662 -0.00739243 -0.0114145 -0.0161995 -0.021672 -0.0277457 -0.0343247 -0.0413051 -0.0485768 -0.0560241 -0.0635299 -0.0709767 -0.0782463 -0.0852237 -0.091799 -0.0978682 -0.103336 -0.108115 -0.112131 -0.115321 -0.117647 -0.119034 -0.119498 -0.119025 -0.117591 -0.11526 -0.112053 -0.108023 -0.103233 -0.0977591 -0.0916867 -0.0851119 -0.0781382 -0.0708753 -0.0634383 -0.055943 -0.0485066 -0.0412471 -0.0342785 -0.0277105 -0.0216467 -0.0161824 -0.0114038 -0.00738644 -0.00419374 -0.00187614 -0.000470977 -5.11316e-27 0 -0.00093516 -0.00372783 -0.0083358 -0.0146884 -0.0226869 -0.032206 -0.0430962 -0.0551854 -0.0682823 -0.082179 -0.0966546 -0.111476 -0.126408 -0.141219 -0.155668 -0.169527 -0.182575 -0.194605 -0.205427 -0.21487 -0.222785 -0.22905 -0.233613 -0.236264 -0.237101 -0.236113 -0.233179 -0.22849 -0.222074 -0.214033 -0.204495 -0.193611 -0.181552 -0.168509 -0.154685 -0.140297 -0.125573 -0.110738 -0.0960209 -0.081656 -0.0678676 -0.0548714 -0.0428711 -0.0320553 -0.0225944 -0.0146381 -0.00831285 -0.00371938 -0.00093403 -1.01465e-26 0 -0.00138457 -0.00552104 -0.0123487 -0.0217645 -0.0336235 -0.0477411 -0.0638954 -0.0818313 -0.101264 -0.121884 -0.143362 -0.165348 -0.187493 -0.209452 -0.230867 -0.251396 -0.270711 -0.288503 -0.304493 -0.318426 -0.330084 -0.339286 -0.345987 -0.349798 -0.350948 -0.349419 -0.344961 -0.337939 -0.32837 -0.31641 -0.302248 -0.28611 -0.268249 -0.248945 -0.228501 -0.207233 -0.18548 -0.16357 -0.141837 -0.120626 -0.100266 -0.0810759 -0.0633541 -0.0473788 -0.0334016 -0.021644 -0.0122939 -0.00550119 -0.00138193 -1.50206e-26 0 -0.00181234 -0.00722896 -0.0161726 -0.0285108 -0.0440551 -0.0625647 -0.0837493 -0.107274 -0.132764 -0.159813 -0.187985 -0.216817 -0.245851 -0.274634 -0.302692 -0.329574 -0.35485 -0.378115 -0.399 -0.417175 -0.432355 -0.444305 -0.452999 -0.457846 -0.459235 -0.457145 -0.451169 -0.441876 -0.429263 -0.413537 -0.394949 -0.373795 -0.350407 -0.325151 -0.29842 -0.270628 -0.242216 -0.213606 -0.185231 -0.157541 -0.130963 -0.105911 -0.0827728 -0.0619114 -0.0436551 -0.0282938 -0.0160742 -0.00719357 -0.00180763 -1.96584e-26 0 -0.00221171 -0.00882465 -0.0197474 -0.0348208 -0.0538172 -0.0764433 -0.102345 -0.131112 -0.162286 -0.195366 -0.229819 -0.26507 -0.300561 -0.335735 -0.370009 -0.402829 -0.433666 -0.462027 -0.487458 -0.509559 -0.527984 -0.54245 -0.552955 -0.558704 -0.560254 -0.557583 -0.550126 -0.538659 -0.52316 -0.503882 -0.481136 -0.455283 -0.42673 -0.395924 -0.36334 -0.329481 -0.294884 -0.260057 -0.225519 -0.191819 -0.159475 -0.128984 -0.100821 -0.0754241 -0.0531935 -0.0344829 -0.0195944 -0.00877 -0.00220445 -2.39863e-26 0 -0.0025764 -0.0102829 -0.0230165 -0.0405952 -0.0627558 -0.089158 -0.119389 -0.15297 -0.189364 -0.227984 -0.268205 -0.309349 -0.350762 -0.391795 -0.43176 -0.470008 -0.505919 -0.538917 -0.568474 -0.594124 -0.615466 -0.632175 -0.644276 -0.65078 -0.652413 -0.649149 -0.640273 -0.626766 -0.608582 -0.586022 -0.55945 -0.529291 -0.496018 -0.460149 -0.422238 -0.382866 -0.342655 -0.30219 -0.262067 -0.222921 -0.185352 -0.149934 -0.117215 -0.0877044 -0.0618667 -0.040114 -0.0227992 -0.0102058 -0.00256618 -2.79357e-26 0 -0.00290067 -0.0115808 -0.0259285 -0.0457428 -0.07073 -0.100508 -0.134613 -0.172503 -0.213572 -0.257153 -0.302538 -0.348956 -0.395666 -0.441932 -0.486973 -0.530054 -0.570473 -0.607577 -0.640775 -0.66954 -0.693427 -0.71207 -0.725524 -0.732629 -0.734262 -0.730399 -0.720195 -0.704812 -0.684187 -0.658666 -0.628662 -0.594656 -0.557181 -0.516819 -0.474189 -0.429943 -0.384779 -0.339343 -0.294299 -0.250358 -0.208187 -0.168429 -0.131696 -0.098559 -0.0695385 -0.0450986 -0.0256382 -0.0114786 -0.00288714 -3.14438e-26 0 -0.00317941 -0.0126978 -0.0284374 -0.0501824 -0.0776139 -0.110315 -0.147777 -0.189404 -0.234528 -0.282414 -0.332279 -0.383269 -0.434565 -0.485358 -0.534783 -0.582025 -0.626314 -0.666932 -0.703227 -0.734626 -0.760643 -0.780883 -0.795424 -0.802967 -0.804518 -0.80006 -0.788637 -0.771572 -0.74879 -0.720675 -0.687687 -0.650354 -0.60926 -0.565043 -0.518379 -0.469975 -0.420593 -0.370932 -0.321708 -0.273697 -0.227621 -0.18418 -0.144038 -0.107817 -0.0760882 -0.0493585 -0.028067 -0.0125685 -0.00316233 -3.44548e-26 0 -0.00340824 -0.0136163 -0.0305037 -0.053844 -0.0832992 -0.118424 -0.158673 -0.203407 -0.251903 -0.30337 -0.356959 -0.411748 -0.466851 -0.521393 -0.574438 -0.625108 -0.67257 -0.716052 -0.754854 -0.788364 -0.816064 -0.837538 -0.852884 -0.860694 -0.862084 -0.857041 -0.844531 -0.826003 -0.80138 -0.77108 -0.735602 -0.695512 -0.651441 -0.604068 -0.554115 -0.502335 -0.449538 -0.396462 -0.343867 -0.292573 -0.24335 -0.196938 -0.154045 -0.115334 -0.0814131 -0.0528268 -0.0300475 -0.0134585 -0.00338744 -3.69209e-26 0 -0.00358354 -0.0143219 -0.0320947 -0.0566699 -0.087696 -0.124707 -0.16713 -0.214289 -0.265422 -0.319689 -0.376191 -0.433946 -0.492015 -0.549471 -0.605319 -0.658628 -0.708516 -0.754168 -0.794849 -0.829915 -0.858825 -0.881151 -0.897007 -0.904911 -0.906061 -0.900453 -0.887003 -0.867256 -0.841138 -0.809095 -0.771657 -0.729427 -0.683064 -0.633284 -0.58084 -0.526517 -0.47116 -0.415534 -0.360426 -0.306691 -0.255126 -0.206505 -0.161563 -0.120992 -0.0854296 -0.0554491 -0.0315487 -0.0141349 -0.00355897 -3.88029e-26 0 -0.00370257 -0.0148033 -0.0331853 -0.0586154 -0.0907351 -0.129066 -0.173014 -0.221881 -0.274874 -0.331117 -0.389672 -0.449514 -0.509663 -0.569152 -0.626941 -0.682059 -0.73359 -0.780687 -0.822588 -0.85863 -0.888261 -0.911042 -0.927108 -0.934928 -0.935764 -0.929809 -0.915745 -0.895182 -0.868049 -0.834818 -0.796042 -0.752346 -0.70442 -0.653 -0.598863 -0.542818 -0.485733 -0.428389 -0.371591 -0.316214 -0.263076 -0.212968 -0.166645 -0.124819 -0.0881487 -0.0572249 -0.0325652 -0.0145926 -0.00367497 -4.00707e-26 0 -0.00376431 -0.0150596 -0.0337799 -0.0596982 -0.0924576 -0.131575 -0.176446 -0.226357 -0.280493 -0.337953 -0.397771 -0.458887 -0.520289 -0.580979 -0.639882 -0.695998 -0.748382 -0.796165 -0.838568 -0.874917 -0.904654 -0.927345 -0.94314 -0.9505 -0.950732 -0.943913 -0.92891 -0.907383 -0.879281 -0.845094 -0.805394 -0.760818 -0.712061 -0.659866 -0.60501 -0.548297 -0.490594 -0.432677 -0.375341 -0.319458 -0.265841 -0.215276 -0.16852 -0.126285 -0.0892332 -0.057965 -0.0330089 -0.0148021 -0.00373068 -4.07043e-26 0 -0.00376436 -0.0150603 -0.0337833 -0.0597085 -0.0924809 -0.131619 -0.176522 -0.226473 -0.280657 -0.338171 -0.398044 -0.45921 -0.520654 -0.581372 -0.640286 -0.696392 -0.748749 -0.796487 -0.838833 -0.875118 -0.904792 -0.927426 -0.943175 -0.950508 -0.950732 -0.943886 -0.928825 -0.907218 -0.879019 -0.844731 -0.804934 -0.760276 -0.71146 -0.659232 -0.604372 -0.547684 -0.490032 -0.432181 -0.374925 -0.319127 -0.265591 -0.2151 -0.168405 -0.126216 -0.0891972 -0.0579492 -0.0330035 -0.014801 -0.0037306 -4.06935e-26 0 -0.00370891 -0.0148532 -0.0333497 -0.0589924 -0.0914421 -0.13023 -0.17476 -0.224323 -0.278102 -0.335192 -0.394615 -0.455303 -0.516226 -0.576375 -0.634662 -0.690078 -0.741673 -0.788578 -0.830019 -0.865335 -0.893986 -0.915564 -0.93024 -0.936533 -0.935764 -0.928313 -0.912823 -0.890954 -0.862684 -0.828523 -0.78905 -0.744908 -0.696788 -0.645417 -0.591554 -0.535973 -0.47951 -0.4229 -0.366904 -0.312353 -0.26002 -0.210659 -0.164996 -0.123722 -0.0874834 -0.056871 -0.0324113 -0.0145461 -0.00366906 -4.00386e-26 0 -0.00359232 -0.0143913 -0.0323244 -0.0571991 -0.0886926 -0.126354 -0.169608 -0.217765 -0.270028 -0.325513 -0.383263 -0.442231 -0.501407 -0.559799 -0.616344 -0.670053 -0.720003 -0.765347 -0.805339 -0.839343 -0.866844 -0.887455 -0.901356 -0.907129 -0.906062 -0.898276 -0.882734 -0.861056 -0.833243 -0.799803 -0.761309 -0.71839 -0.671717 -0.621991 -0.569939 -0.516301 -0.461868 -0.407338 -0.353432 -0.300934 -0.250576 -0.203074 -0.159118 -0.119369 -0.0844486 -0.0549289 -0.0313232 -0.0140669 -0.00355037 -3.87502e-26 0 -0.00342028 -0.0137116 -0.0308189 -0.0545705 -0.0846674 -0.120685 -0.162076 -0.20818 -0.25823 -0.311371 -0.366676 -0.423131 -0.479754 -0.535582 -0.589582 -0.640801 -0.688344 -0.7314 -0.769254 -0.801303 -0.827065 -0.846186 -0.858848 -0.863736 -0.862085 -0.85403 -0.83863 -0.817436 -0.790475 -0.758247 -0.721312 -0.680274 -0.635774 -0.588477 -0.539067 -0.488233 -0.436712 -0.385148 -0.334212 -0.284625 -0.237067 -0.1922 -0.150669 -0.113093 -0.0800576 -0.0521077 -0.0297358 -0.0133646 -0.00337555 -3.68487e-26 0 -0.00319453 -0.0128174 -0.0288331 -0.0510944 -0.0793318 -0.113154 -0.152051 -0.1954 -0.242475 -0.292465 -0.344484 -0.397568 -0.450774 -0.50318 -0.553802 -0.601732 -0.64612 -0.686201 -0.721302 -0.750865 -0.774448 -0.791734 -0.802907 -0.806782 -0.804519 -0.796264 -0.781199 -0.760774 -0.735047 -0.704504 -0.669682 -0.631155 -0.589522 -0.545401 -0.49942 -0.452209 -0.404434 -0.356677 -0.309544 -0.263682 -0.219704 -0.178208 -0.139782 -0.104992 -0.0743793 -0.0484518 -0.027674 -0.01245 -0.00314733 -3.43645e-26 0 -0.00291863 -0.0117228 -0.0263984 -0.0468259 -0.0727702 -0.10388 -0.13969 -0.179625 -0.223013 -0.269093 -0.317038 -0.365943 -0.414921 -0.463102 -0.509565 -0.553459 -0.593993 -0.630457 -0.662235 -0.688817 -0.709813 -0.724948 -0.734404 -0.737156 -0.734263 -0.725879 -0.711337 -0.691955 -0.667825 -0.639413 -0.607227 -0.5718 -0.533683 -0.493436 -0.451619 -0.408793 -0.36554 -0.322372 -0.279815 -0.238433 -0.198759 -0.161318 -0.126628 -0.0951939 -0.067503 -0.0440185 -0.0251699 -0.0113374 -0.00286926 -3.13372e-26 0 -0.0025969 -0.0104451 -0.0235531 -0.0418322 -0.0650861 -0.0930095 -0.125189 -0.161106 -0.200149 -0.241625 -0.28477 -0.328756 -0.37276 -0.415978 -0.457565 -0.49674 -0.532781 -0.565043 -0.592976 -0.616131 -0.634172 -0.646874 -0.654411 -0.655947 -0.652414 -0.643975 -0.630137 -0.612056 -0.589861 -0.563994 -0.534926 -0.503141 -0.469133 -0.433395 -0.396413 -0.358665 -0.320641 -0.28277 -0.245492 -0.209275 -0.174562 -0.141795 -0.111414 -0.0838525 -0.0595366 -0.0388774 -0.022263 -0.010044 -0.00254569 -2.78149e-26 0 -0.00223444 -0.00900442 -0.0203422 -0.0361922 -0.0564009 -0.0807138 -0.108776 -0.140134 -0.174246 -0.210492 -0.248189 -0.286591 -0.324955 -0.362551 -0.398621 -0.432467 -0.463445 -0.490987 -0.514615 -0.533949 -0.548712 -0.558737 -0.564184 -0.564427 -0.560255 -0.551839 -0.538872 -0.522328 -0.502377 -0.47943 -0.453912 -0.426255 -0.396886 -0.366222 -0.334668 -0.302612 -0.27044 -0.238495 -0.207116 -0.176666 -0.147494 -0.119947 -0.094379 -0.0711462 -0.0506054 -0.0331093 -0.0189987 -0.00859019 -0.00218169 -2.38538e-26 0 -0.00183694 -0.00742352 -0.0168164 -0.029995 -0.0468515 -0.0671871 -0.0907102 -0.11704 -0.145711 -0.176187 -0.207872 -0.240113 -0.272259 -0.303661 -0.333662 -0.361652 -0.387077 -0.409455 -0.428385 -0.443563 -0.454779 -0.461924 -0.465145 -0.464037 -0.459236 -0.450921 -0.438976 -0.424182 -0.406748 -0.387047 -0.365457 -0.342347 -0.318073 -0.292972 -0.267356 -0.241516 -0.21573 -0.190243 -0.165289 -0.141121 -0.11798 -0.0961168 -0.0757912 -0.0572749 -0.0408499 -0.0268049 -0.0154284 -0.00699857 -0.00178294 -1.95166e-26 0 -0.00141066 -0.00572734 -0.0130313 -0.0233383 -0.0365889 -0.0526428 -0.0712773 -0.0921881 -0.114995 -0.139251 -0.164454 -0.190055 -0.215501 -0.240237 -0.263711 -0.285412 -0.304882 -0.321732 -0.335647 -0.3464 -0.353855 -0.357961 -0.35886 -0.356359 -0.350948 -0.342816 -0.332022 -0.319164 -0.304479 -0.288302 -0.270954 -0.25274 -0.233938 -0.214798 -0.195535 -0.176339 -0.157371 -0.138775 -0.120672 -0.103198 -0.0864859 -0.0706805 -0.0559435 -0.0424572 -0.0304237 -0.0200633 -0.0116082 -0.00529408 -0.00135571 -1.48721e-26 0 -0.000962324 -0.00394264 -0.00904666 -0.0163273 -0.0257748 -0.0373106 -0.0507838 -0.0659712 -0.0825821 -0.100265 -0.118621 -0.137207 -0.155579 -0.173279 -0.189872 -0.20495 -0.218159 -0.229205 -0.237865 -0.243996 -0.247533 -0.248491 -0.247012 -0.243094 -0.237102 -0.229234 -0.2197 -0.208931 -0.197184 -0.18475 -0.171893 -0.158846 -0.145807 -0.132932 -0.120339 -0.108108 -0.0962851 -0.0849034 -0.0739678 -0.063497 -0.0535085 -0.0440391 -0.0351488 -0.0269265 -0.019491 -0.0129906 -0.00759811 -0.00350344 -0.000906699 -9.994e-27 0 -0.000498998 -0.00209759 -0.00492529 -0.00907242 -0.01458 -0.0214324 -0.0295529 -0.0388029 -0.0489845 -0.0598469 -0.071097 -0.0824042 -0.0934366 -0.103846 -0.113312 -0.121539 -0.128278 -0.133336 -0.136586 -0.137969 -0.137497 -0.135247 -0.131377 -0.126033 -0.119498 -0.11198 -0.103784 -0.0952251 -0.0865591 -0.0780275 -0.069837 -0.0621473 -0.0550698 -0.0486673 -0.0429537 -0.0379007 -0.0334357 -0.0294792 -0.0259155 -0.0226443 -0.0195682 -0.016613 -0.0137351 -0.0109276 -0.00822406 -0.00569829 -0.00346127 -0.00165475 -0.00044296 -4.95931e-27 0 -2.79909e-05 -0.000221363 -0.000732657 -0.00168942 -0.00318359 -0.00526322 -0.00792707 -0.0111225 -0.0147467 -0.018652 -0.0226538 -0.0265375 -0.0300861 -0.0330654 -0.0352755 -0.0365316 -0.0366949 -0.0356763 -0.0334435 -0.0300242 -0.0255064 -0.0200337 -0.0138007 -0.00703482 6.60981e-09 0.00703483 0.0138007 0.0200338 0.0255067 0.0300251 0.0334448 0.0356771 0.0366954 0.036532 0.0352758 0.0330655 0.0300862 0.0265377 0.0226541 0.0186522 0.0147468 0.0111225 0.00792708 0.00526323 0.00318359 0.00168942 0.000732657 0.000221363 2.79909e-05 1.52411e-28 0 0.00044296 0.00165475 0.00346127 0.00569829 0.00822406 0.0109276 0.0137351 0.0166131 0.0195683 0.0226445 0.0259159 0.0294795 0.0334358 0.0379008 0.0429539 0.0486677 0.0550701 0.0621477 0.0698382 0.0780294 0.0865601 0.0952253 0.103784 0.11198 0.119498 0.126033 0.131377 0.135247 0.137497 0.13797 0.136587 0.133338 0.128279 0.12154 0.113313 0.103846 0.0934367 0.0824043 0.0710973 0.0598471 0.0489846 0.0388029 0.0295529 0.0214324 0.01458 0.00907242 0.00492529 0.00209759 0.000498998 5.26055e-27 0 0.000906699 0.00350344 0.00759811 0.0129906 0.019491 0.0269265 0.0351488 0.0440391 0.0535086 0.0634971 0.0739684 0.084904 0.0962853 0.108108 0.120339 0.132933 0.145807 0.158846 0.171893 0.184751 0.197186 0.208932 0.2197 0.229234 0.237102 0.243094 0.247012 0.248491 0.247533 0.243996 0.237865 0.229206 0.218161 0.204951 0.189872 0.17328 0.155579 0.137207 0.118621 0.100265 0.0825822 0.0659713 0.0507838 0.0373106 0.0257748 0.0163273 0.00904666 0.00394264 0.000962324 1.02847e-26 0 0.00135571 0.00529408 0.0116082 0.0200633 0.0304237 0.0424572 0.0559436 0.0706805 0.086486 0.103198 0.120672 0.138776 0.157372 0.176339 0.195536 0.214798 0.233939 0.25274 0.270954 0.288303 0.304481 0.319165 0.332023 0.342816 0.350948 0.356359 0.35886 0.357961 0.353855 0.346401 0.335647 0.321733 0.304884 0.285413 0.263711 0.240237 0.215501 0.190055 0.164454 0.139251 0.114995 0.0921881 0.0712773 0.0526429 0.0365889 0.0233383 0.0130313 0.00572734 0.00141066 1.51457e-26 0 0.00178294 0.00699857 0.0154284 0.0268049 0.0408499 0.0572749 0.0757912 0.0961168 0.11798 0.141121 0.165289 0.190243 0.21573 0.241516 0.267356 0.292972 0.318074 0.342347 0.365457 0.387048 0.406749 0.424183 0.438976 0.450921 0.459236 0.464037 0.465145 0.461924 0.454779 0.443563 0.428386 0.409455 0.387078 0.361653 0.333663 0.303661 0.272259 0.240113 0.207872 0.176187 0.145711 0.11704 0.0907102 0.0671871 0.0468515 0.029995 0.0168164 0.00742352 0.00183694 1.97673e-26 0 0.00218169 0.00859019 0.0189987 0.0331093 0.0506054 0.0711462 0.094379 0.119947 0.147494 0.176666 0.207116 0.238495 0.270441 0.302612 0.334669 0.366223 0.396886 0.426255 0.453912 0.47943 0.502378 0.522329 0.538872 0.551839 0.560255 0.564427 0.564184 0.558737 0.548712 0.533949 0.514615 0.490987 0.463445 0.432468 0.398622 0.362551 0.324955 0.286591 0.24819 0.210493 0.174246 0.140134 0.108776 0.0807138 0.0564009 0.0361922 0.0203422 0.00900442 0.00223444 2.40771e-26 0 0.00254569 0.010044 0.022263 0.0388774 0.0595366 0.0838525 0.111414 0.141795 0.174562 0.209275 0.245492 0.28277 0.32064 0.358665 0.396414 0.433396 0.469135 0.503142 0.534927 0.563995 0.589862 0.612056 0.630137 0.643975 0.652414 0.655946 0.654411 0.646874 0.634172 0.616131 0.592976 0.565043 0.532781 0.496741 0.457566 0.415979 0.372761 0.328756 0.284771 0.241625 0.20015 0.161106 0.125189 0.0930095 0.0650861 0.0418322 0.0235531 0.0104451 0.0025969 2.80074e-26 0 0.00286926 0.0113374 0.0251699 0.0440185 0.067503 0.0951939 0.126628 0.161318 0.198759 0.238433 0.279815 0.322372 0.36554 0.408793 0.45162 0.493436 0.533684 0.571801 0.607228 0.639414 0.667825 0.691955 0.711337 0.725879 0.734263 0.737156 0.734404 0.724948 0.709813 0.688817 0.662235 0.630457 0.593993 0.553459 0.509565 0.463102 0.414921 0.365943 0.317038 0.269093 0.223013 0.179625 0.13969 0.10388 0.0727702 0.0468259 0.0263984 0.0117228 0.00291863 3.14967e-26 0 0.00314733 0.01245 0.027674 0.0484518 0.0743793 0.104992 0.139782 0.178208 0.219704 0.263682 0.309544 0.356677 0.404434 0.452209 0.49942 0.545402 0.589522 0.631155 0.669682 0.704504 0.735047 0.760775 0.781199 0.796264 0.804519 0.806782 0.802907 0.791734 0.774448 0.750865 0.721302 0.686201 0.64612 0.601732 0.553802 0.50318 0.450774 0.397568 0.344484 0.292465 0.242475 0.1954 0.152051 0.113154 0.0793318 0.0510944 0.0288331 0.0128174 0.00319453 3.44904e-26 0 0.00337555 0.0133646 0.0297358 0.0521077 0.0800576 0.113093 0.150669 0.1922 0.237067 0.284625 0.334212 0.385148 0.436712 0.488233 0.539067 0.588478 0.635774 0.680274 0.721312 0.758247 0.790475 0.817437 0.83863 0.85403 0.862085 0.863736 0.858848 0.846186 0.827065 0.801303 0.769254 0.7314 0.688344 0.640801 0.589582 0.535582 0.479755 0.423131 0.366676 0.311371 0.25823 0.20818 0.162077 0.120685 0.0846674 0.0545705 0.0308189 0.0137116 0.00342028 3.69417e-26 0 0.00355037 0.0140669 0.0313232 0.0549289 0.0844486 0.119369 0.159118 0.203074 0.250576 0.300934 0.353432 0.407338 0.461868 0.516301 0.569939 0.621991 0.671717 0.71839 0.761309 0.799803 0.833243 0.861056 0.882734 0.898276 0.906062 0.907129 0.901356 0.887455 0.866844 0.839343 0.805339 0.765347 0.720003 0.670053 0.616344 0.5598 0.501407 0.442232 0.383263 0.325513 0.270028 0.217765 0.169608 0.126354 0.0886926 0.0571991 0.0323244 0.0143913 0.00359232 3.88124e-26 0 0.00366906 0.0145461 0.0324113 0.056871 0.0874834 0.123722 0.164996 0.210659 0.26002 0.312353 0.366904 0.4229 0.47951 0.535973 0.591554 0.645417 0.696788 0.744909 0.78905 0.828523 0.862684 0.890954 0.912823 0.928313 0.935764 0.936533 0.93024 0.915564 0.893986 0.865335 0.830019 0.788578 0.741673 0.690078 0.634662 0.576376 0.516226 0.455303 0.394615 0.335192 0.278102 0.224323 0.17476 0.13023 0.0914421 0.0589924 0.0333497 0.0148532 0.00370891 4.00732e-26 0 0.0037306 0.014801 0.0330035 0.0579492 0.0891972 0.126216 0.168405 0.2151 0.265591 0.319127 0.374925 0.432181 0.490032 0.547684 0.604372 0.659232 0.71146 0.760276 0.804934 0.844731 0.879019 0.907218 0.928825 0.943886 0.950732 0.950508 0.943175 0.927426 0.904792 0.875118 0.838833 0.796487 0.748749 0.696392 0.640286 0.581372 0.520655 0.45921 0.398044 0.338171 0.280657 0.226473 0.176522 0.131619 0.0924809 0.0597085 0.0337833 0.0150603 0.00376436 4.07043e-26 0 0.00373068 0.0148021 0.0330089 0.057965 0.0892332 0.126285 0.16852 0.215276 0.265841 0.319458 0.375341 0.432677 0.490594 0.548297 0.60501 0.659866 0.712061 0.760818 0.805394 0.845094 0.879281 0.907383 0.92891 0.943913 0.950732 0.9505 0.94314 0.927345 0.904654 0.874917 0.838568 0.796165 0.748382 0.695998 0.639882 0.58098 0.520289 0.458887 0.397771 0.337953 0.280493 0.226357 0.176446 0.131575 0.0924576 0.0596982 0.0337799 0.0150596 0.00376431 4.06959e-26 0 0.00367497 0.0145926 0.0325652 0.0572249 0.0881487 0.124819 0.166645 0.212968 0.263076 0.316214 0.371591 0.428389 0.485733 0.542818 0.598863 0.653 0.70442 0.752346 0.796042 0.834818 0.868049 0.895182 0.915745 0.929809 0.935764 0.934928 0.927108 0.911042 0.888261 0.85863 0.822588 0.780687 0.73359 0.682059 0.626941 0.569153 0.509664 0.449514 0.389672 0.331117 0.274874 0.221881 0.173014 0.129066 0.0907351 0.0586154 0.0331853 0.0148033 0.00370257 4.0048e-26 0 0.00355897 0.0141349 0.0315487 0.0554491 0.0854296 0.120992 0.161563 0.206505 0.255126 0.306691 0.360426 0.415534 0.47116 0.526517 0.58084 0.633284 0.683064 0.729427 0.771657 0.809095 0.841138 0.867256 0.887003 0.900453 0.906061 0.904911 0.897007 0.881151 0.858825 0.829915 0.794849 0.754168 0.708516 0