<?xml version="1.0"?>
<VTKFile type="PolyData">
	<PolyData>
		<Piece NumberOfPoints="2601" NumberOfPolys="2500">
			<Points>
				<DataArray type="Float32" NumberOfComponents="3" format="ascii">
 0 0 0 0.02 0 0 0.04 0 0 0.06 0 0 0.08 0 0 0.1 0 0 0.12 0 0 0.14 0 0 0.16 0 0 0.18 0 0 0.2 0 0 0.22 0 0 0.24 0 0 0.26 0 0 0.28 0 0 0.3 0 0 0.32 0 0 0.34 0 0 0.36 0 0 0.38 0 0 0.4 0 0 0.42 0 0 0.44 0 0 0.46 0 0 0.48 0 0 0.5 0 0 0.52 0 0 0.54 0 0 0.56 0 0 0.58 0 0 0.6 0 0 0.62 0 0 0.64 0 0 0.66 0 0 0.68 0 0 0.7 0 0 0.72 0 0 0.74 0 0 0.76 0 0 0.78 0 0 0.8 0 0 0.82 0 0 0.84 0 0 0.86 0 0 0.88 0 0 0.9 0 0 0.92 0 0 0.94 0 0 0.96 0 0 0.98 0 0 1 0 0 0 0.02 0 0.02 0.02 0 0.04 0.02 0 0.06 0.02 0 0.08 0.02 0 0.1 0.02 0 0.12 0.02 0 0.14 0.02 0 0.16 0.02 0 0.18 0.02 0 0.2 0.02 0 0.22 0.02 0 0.24 0.02 0 0.26 0.02 0 0.28 0.02 0 0.3 0.02 0 0.32 0.02 0 0.34 0.02 0 0.36 0.02 0 0.38 0.02 0 0.4 0.02 0 0.42 0.02 0 0.44 0.02 0 0.46 0.02 0 0.48 0.02 0 0.5 0.02 0 0.52 0.02 0 0.54 0.02 0 0.56 0.02 0 0.58 0.02 0 0.6 0.02 0 0.62 0.02 0 0.64 0.02 0 0.66 0.02 0 0.68 0.02 0 0.7 0.02 0 0.72 0.02 0 0.74 0.02 0 0.76 0.02 0 0.78 0.02 0 0.8 0.02 0 0.82 0.02 0 0.84 0.02 0 0.86 0.02 0 0.88 0.02 0 0.9 0.02 0 0.92 0.02 0 0.94 0.02 0 0.96 0.02 0 0.98 0.02 0 1 0.02 0 0 0.04 0 0.02 0.04 0 0.04 0.04 0 0.06 0.04 0 0.08 0.04 0 0.1 0.04 0 0.12 0.04 0 0.14 0.04 0 0.16 0.04 0 0.18 0.04 0 0.2 0.04 0 0.22 0.04 0 0.24 0.04 0 0.26 0.04 0 0.28 0.04 0 0.3 0.04 0 0.32 0.04 0 0.34 0.04 0 0.36 0.04 0 0.38 0.04 0 0.4 0.04 0 0.42 0.04 0 0.44 0.04 0 0.46 0.04 0 0.48 0.04 0 0.5 0.04 0 0.52 0.04 0 0.54 0.04 0 0.56 0.04 0 0.58 0.04 0 0.6 0.04 0 0.62 0.04 0 0.64 0.04 0 0.66 0.04 0 0.68 0.04 0 0.7 0.04 0 0.72 0.04 0 0.74 0.04 0 0.76 0.04 0 0.78 0.04 0 0.8 0.04 0 0.82 0.04 0 0.84 0.04 0 0.86 0.04 0 0.88 0.04 0 0.9 0.04 0 0.92 0.04 0 0.94 0.04 0 0.96 0.04 0 0.98 0.04 0 1 0.04 0 0 0.06 0 0.02 0.06 0 0.04 0.06 0 0.06 0.06 0 0.08 0.06 0 0.1 0.06 0 0.12 0.06 0 0.14 0.06 0 0.16 0.06 0 0.18 0.06 0 0.2 0.06 0 0.22 0.06 0 0.24 0.06 0 0.26 0.06 0 0.28 0.06 0 0.3 0.06 0 0.32 0.06 0 0.34 0.06 0 0.36 0.06 0 0.38 0.06 0 0.4 0.06 0 0.42 0.06 0 0.44 0.06 0 0.46 0.06 0 0.48 0.06 0 0.5 0.06 0 0.52 0.06 0 0.54 0.06 0 0.56 0.06 0 0.58 0.06 0 0.6 0.06 0 0.62 0.06 0 0.64 0.06 0 0.66 0.06 0 0.68 0.06 0 0.7 0.06 0 0.72 0.06 0 0.74 0.06 0 0.76 0.06 0 0.78 0.06 0 0.8 0.06 0 0.82 0.06 0 0.84 0.06 0 0.86 0.06 0 0.88 0.06 0 0.9 0.06 0 0.92 0.06 0 0.94 0.06 0 0.96 0.06 0 0.98 0.06 0 1 0.06 0 0 0.08 0 0.02 0.08 0 0.04 0.08 0 0.06 0.08 0 0.08 0.08 0 0.1 0.08 0 0.12 0.08 0 0.14 0.08 0 0.16 0.08 0 0.18 0.08 0 0.2 0.08 0 0.22 0.08 0 0.24 0.08 0 0.26 0.08 0 0.28 0.08 0 0.3 0.08 0 0.32 0.08 0 0.34 0.08 0 0.36 0.08 0 0.38 0.08 0 0.4 0.08 0 0.42 0.08 0 0.44 0.08 0 0.46 0.08 0 0.48 0.08 0 0.5 0.08 0 0.52 0.08 0 0.54 0.08 0 0.56 0.08 0 0.58 0.08 0 0.6 0.08 0 0.62 0.08 0 0.64 0.08 0 0.66 0.08 0 0.68 0.08 0 0.7 0.08 0 0.72 0.08 0 0.74 0.08 0 0.76 0.08 0 0.78 0.08 0 0.8 0.08 0 0.82 0.08 0 0.84 0.08 0 0.86 0.08 0 0.88 0.08 0 0.9 0.08 0 0.92 0.08 0 0.94 0.08 0 0.96 0.08 0 0.98 0.08 0 1 0.08 0 0 0.1 0 0.02 0.1 0 0.04 0.1 0 0.06 0.1 0 0.08 0.1 0 0.1 0.1 0 0.12 0.1 0 0.14 0.1 0 0.16 0.1 0 0.18 0.1 0 0.2 0.1 0 0.22 0.1 0 0.24 0.1 0 0.26 0.1 0 0.28 0.1 0 0.3 0.1 0 0.32 0.1 0 0.34 0.1 0 0.36 0.1 0 0.38 0.1 0 0.4 0.1 0 0.42 0.1 0 0.44 0.1 0 0.46 0.1 0 0.48 0.1 0 0.5 0.1 0 0.52 0.1 0 0.54 0.1 0 0.56 0.1 0 0.58 0.1 0 0.6 0.1 0 0.62 0.1 0 0.64 0.1 0 0.66 0.1 0 0.68 0.1 0 0.7 0.1 0 0.72 0.1 0 0.74 0.1 0 0.76 0.1 0 0.78 0.1 0 0.8 0.1 0 0.82 0.1 0 0.84 0.1 0 0.86 0.1 0 0.88 0.1 0 0.9 0.1 0 0.92 0.1 0 0.94 0.1 0 0.96 0.1 0 0.98 0.1 0 1 0.1 0 0 0.12 0 0.02 0.12 0 0.04 0.12 0 0.06 0.12 0 0.08 0.12 0 0.1 0.12 0 0.12 0.12 0 0.14 0.12 0 0.16 0.12 0 0.18 0.12 0 0.2 0.12 0 0.22 0.12 0 0.24 0.12 0 0.26 0.12 0 0.28 0.12 0 0.3 0.12 0 0.32 0.12 0 0.34 0.12 0 0.36 0.12 0 0.38 0.12 0 0.4 0.12 0 0.42 0.12 0 0.44 0.12 0 0.46 0.12 0 0.48 0.12 0 0.5 0.12 0 0.52 0.12 0 0.54 0.12 0 0.56 0.12 0 0.58 0.12 0 0.6 0.12 0 0.62 0.12 0 0.64 0.12 0 0.66 0.12 0 0.68 0.12 0 0.7 0.12 0 0.72 0.12 0 0.74 0.12 0 0.76 0.12 0 0.78 0.12 0 0.8 0.12 0 0.82 0.12 0 0.84 0.12 0 0.86 0.12 0 0.88 0.12 0 0.9 0.12 0 0.92 0.12 0 0.94 0.12 0 0.96 0.12 0 0.98 0.12 0 1 0.12 0 0 0.14 0 0.02 0.14 0 0.04 0.14 0 0.06 0.14 0 0.08 0.14 0 0.1 0.14 0 0.12 0.14 0 0.14 0.14 0 0.16 0.14 0 0.18 0.14 0 0.2 0.14 0 0.22 0.14 0 0.24 0.14 0 0.26 0.14 0 0.28 0.14 0 0.3 0.14 0 0.32 0.14 0 0.34 0.14 0 0.36 0.14 0 0.38 0.14 0 0.4 0.14 0 0.42 0.14 0 0.44 0.14 0 0.46 0.14 0 0.48 0.14 0 0.5 0.14 0 0.52 0.14 0 0.54 0.14 0 0.56 0.14 0 0.58 0.14 0 0.6 0.14 0 0.62 0.14 0 0.64 0.14 0 0.66 0.14 0 0.68 0.14 0 0.7 0.14 0 0.72 0.14 0 0.74 0.14 0 0.76 0.14 0 0.78 0.14 0 0.8 0.14 0 0.82 0.14 0 0.84 0.14 0 0.86 0.14 0 0.88 0.14 0 0.9 0.14 0 0.92 0.14 0 0.94 0.14 0 0.96 0.14 0 0.98 0.14 0 1 0.14 0 0 0.16 0 0.02 0.16 0 0.04 0.16 0 0.06 0.16 0 0.08 0.16 0 0.1 0.16 0 0.12 0.16 0 0.14 0.16 0 0.16 0.16 0 0.18 0.16 0 0.2 0.16 0 0.22 0.16 0 0.24 0.16 0 0.26 0.16 0 0.28 0.16 0 0.3 0.16 0 0.32 0.16 0 0.34 0.16 0 0.36 0.16 0 0.38 0.16 0 0.4 0.16 0 0.42 0.16 0 0.44 0.16 0 0.46 0.16 0 0.48 0.16 0 0.5 0.16 0 0.52 0.16 0 0.54 0.16 0 0.56 0.16 0 0.58 0.16 0 0.6 0.16 0 0.62 0.16 0 0.64 0.16 0 0.66 0.16 0 0.68 0.16 0 0.7 0.16 0 0.72 0.16 0 0.74 0.16 0 0.76 0.16 0 0.78 0.16 0 0.8 0.16 0 0.82 0.16 0 0.84 0.16 0 0.86 0.16 0 0.88 0.16 0 0.9 0.16 0 0.92 0.16 0 0.94 0.16 0 0.96 0.16 0 0.98 0.16 0 1 0.16 0 0 0.18 0 0.02 0.18 0 0.04 0.18 0 0.06 0.18 0 0.08 0.18 0 0.1 0.18 0 0.12 0.18 0 0.14 0.18 0 0.16 0.18 0 0.18 0.18 0 0.2 0.18 0 0.22 0.18 0 0.24 0.18 0 0.26 0.18 0 0.28 0.18 0 0.3 0.18 0 0.32 0.18 0 0.34 0.18 0 0.36 0.18 0 0.38 0.18 0 0.4 0.18 0 0.42 0.18 0 0.44 0.18 0 0.46 0.18 0 0.48 0.18 0 0.5 0.18 0 0.52 0.18 0 0.54 0.18 0 0.56 0.18 0 0.58 0.18 0 0.6 0.18 0 0.62 0.18 0 0.64 0.18 0 0.66 0.18 0 0.68 0.18 0 0.7 0.18 0 0.72 0.18 0 0.74 0.18 0 0.76 0.18 0 0.78 0.18 0 0.8 0.18 0 0.82 0.18 0 0.84 0.18 0 0.86 0.18 0 0.88 0.18 0 0.9 0.18 0 0.92 0.18 0 0.94 0.18 0 0.96 0.18 0 0.98 0.18 0 1 0.18 0 0 0.2 0 0.02 0.2 0 0.04 0.2 0 0.06 0.2 0 0.08 0.2 0 0.1 0.2 0 0.12 0.2 0 0.14 0.2 0 0.16 0.2 0 0.18 0.2 0 0.2 0.2 0 0.22 0.2 0 0.24 0.2 0 0.26 0.2 0 0.28 0.2 0 0.3 0.2 0 0.32 0.2 0 0.34 0.2 0 0.36 0.2 0 0.38 0.2 0 0.4 0.2 0 0.42 0.2 0 0.44 0.2 0 0.46 0.2 0 0.48 0.2 0 0.5 0.2 0 0.52 0.2 0 0.54 0.2 0 0.56 0.2 0 0.58 0.2 0 0.6 0.2 0 0.62 0.2 0 0.64 0.2 0 0.66 0.2 0 0.68 0.2 0 0.7 0.2 0 0.72 0.2 0 0.74 0.2 0 0.76 0.2 0 0.78 0.2 0 0.8 0.2 0 0.82 0.2 0 0.84 0.2 0 0.86 0.2 0 0.88 0.2 0 0.9 0.2 0 0.92 0.2 0 0.94 0.2 0 0.96 0.2 0 0.98 0.2 0 1 0.2 0 0 0.22 0 0.02 0.22 0 0.04 0.22 0 0.06 0.22 0 0.08 0.22 0 0.1 0.22 0 0.12 0.22 0 0.14 0.22 0 0.16 0.22 0 0.18 0.22 0 0.2 0.22 0 0.22 0.22 0 0.24 0.22 0 0.26 0.22 0 0.28 0.22 0 0.3 0.22 0 0.32 0.22 0 0.34 0.22 0 0.36 0.22 0 0.38 0.22 0 0.4 0.22 0 0.42 0.22 0 0.44 0.22 0 0.46 0.22 0 0.48 0.22 0 0.5 0.22 0 0.52 0.22 0 0.54 0.22 0 0.56 0.22 0 0.58 0.22 0 0.6 0.22 0 0.62 0.22 0 0.64 0.22 0 0.66 0.22 0 0.68 0.22 0 0.7 0.22 0 0.72 0.22 0 0.74 0.22 0 0.76 0.22 0 0.78 0.22 0 0.8 0.22 0 0.82 0.22 0 0.84 0.22 0 0.86 0.22 0 0.88 0.22 0 0.9 0.22 0 0.92 0.22 0 0.94 0.22 0 0.96 0.22 0 0.98 0.22 0 1 0.22 0 0 0.24 0 0.02 0.24 0 0.04 0.24 0 0.06 0.24 0 0.08 0.24 0 0.1 0.24 0 0.12 0.24 0 0.14 0.24 0 0.16 0.24 0 0.18 0.24 0 0.2 0.24 0 0.22 0.24 0 0.24 0.24 0 0.26 0.24 0 0.28 0.24 0 0.3 0.24 0 0.32 0.24 0 0.34 0.24 0 0.36 0.24 0 0.38 0.24 0 0.4 0.24 0 0.42 0.24 0 0.44 0.24 0 0.46 0.24 0 0.48 0.24 0 0.5 0.24 0 0.52 0.24 0 0.54 0.24 0 0.56 0.24 0 0.58 0.24 0 0.6 0.24 0 0.62 0.24 0 0.64 0.24 0 0.66 0.24 0 0.68 0.24 0 0.7 0.24 0 0.72 0.24 0 0.74 0.24 0 0.76 0.24 0 0.78 0.24 0 0.8 0.24 0 0.82 0.24 0 0.84 0.24 0 0.86 0.24 0 0.88 0.24 0 0.9 0.24 0 0.92 0.24 0 0.94 0.24 0 0.96 0.24 0 0.98 0.24 0 1 0.24 0 0 0.26 0 0.02 0.26 0 0.04 0.26 0 0.06 0.26 0 0.08 0.26 0 0.1 0.26 0 0.12 0.26 0 0.14 0.26 0 0.16 0.26 0 0.18 0.26 0 0.2 0.26 0 0.22 0.26 0 0.24 0.26 0 0.26 0.26 0 0.28 0.26 0 0.3 0.26 0 0.32 0.26 0 0.34 0.26 0 0.36 0.26 0 0.38 0.26 0 0.4 0.26 0 0.42 0.26 0 0.44 0.26 0 0.46 0.26 0 0.48 0.26 0 0.5 0.26 0 0.52 0.26 0 0.54 0.26 0 0.56 0.26 0 0.58 0.26 0 0.6 0.26 0 0.62 0.26 0 0.64 0.26 0 0.66 0.26 0 0.68 0.26 0 0.7 0.26 0 0.72 0.26 0 0.74 0.26 0 0.76 0.26 0 0.78 0.26 0 0.8 0.26 0 0.82 0.26 0 0.84 0.26 0 0.86 0.26 0 0.88 0.26 0 0.9 0.26 0 0.92 0.26 0 0.94 0.26 0 0.96 0.26 0 0.98 0.26 0 1 0.26 0 0 0.28 0 0.02 0.28 0 0.04 0.28 0 0.06 0.28 0 0.08 0.28 0 0.1 0.28 0 0.12 0.28 0 0.14 0.28 0 0.16 0.28 0 0.18 0.28 0 0.2 0.28 0 0.22 0.28 0 0.24 0.28 0 0.26 0.28 0 0.28 0.28 0 0.3 0.28 0 0.32 0.28 0 0.34 0.28 0 0.36 0.28 0 0.38 0.28 0 0.4 0.28 0 0.42 0.28 0 0.44 0.28 0 0.46 0.28 0 0.48 0.28 0 0.5 0.28 0 0.52 0.28 0 0.54 0.28 0 0.56 0.28 0 0.58 0.28 0 0.6 0.28 0 0.62 0.28 0 0.64 0.28 0 0.66 0.28 0 0.68 0.28 0 0.7 0.28 0 0.72 0.28 0 0.74 0.28 0 0.76 0.28 0 0.78 0.28 0 0.8 0.28 0 0.82 0.28 0 0.84 0.28 0 0.86 0.28 0 0.88 0.28 0 0.9 0.28 0 0.92 0.28 0 0.94 0.28 0 0.96 0.28 0 0.98 0.28 0 1 0.28 0 0 0.3 0 0.02 0.3 0 0.04 0.3 0 0.06 0.3 0 0.08 0.3 0 0.1 0.3 0 0.12 0.3 0 0.14 0.3 0 0.16 0.3 0 0.18 0.3 0 0.2 0.3 0 0.22 0.3 0 0.24 0.3 0 0.26 0.3 0 0.28 0.3 0 0.3 0.3 0 0.32 0.3 0 0.34 0.3 0 0.36 0.3 0 0.38 0.3 0 0.4 0.3 0 0.42 0.3 0 0.44 0.3 0 0.46 0.3 0 0.48 0.3 0 0.5 0.3 0 0.52 0.3 0 0.54 0.3 0 0.56 0.3 0 0.58 0.3 0 0.6 0.3 0 0.62 0.3 0 0.64 0.3 0 0.66 0.3 0 0.68 0.3 0 0.7 0.3 0 0.72 0.3 0 0.74 0.3 0 0.76 0.3 0 0.78 0.3 0 0.8 0.3 0 0.82 0.3 0 0.84 0.3 0 0.86 0.3 0 0.88 0.3 0 0.9 0.3 0 0.92 0.3 0 0.94 0.3 0 0.96 0.3 0 0.98 0.3 0 1 0.3 0 0 0.32 0 0.02 0.32 0 0.04 0.32 0 0.06 0.32 0 0.08 0.32 0 0.1 0.32 0 0.12 0.32 0 0.14 0.32 0 0.16 0.32 0 0.18 0.32 0 0.2 0.32 0 0.22 0.32 0 0.24 0.32 0 0.26 0.32 0 0.28 0.32 0 0.3 0.32 0 0.32 0.32 0 0.34 0.32 0 0.36 0.32 0 0.38 0.32 0 0.4 0.32 0 0.42 0.32 0 0.44 0.32 0 0.46 0.32 0 0.48 0.32 0 0.5 0.32 0 0.52 0.32 0 0.54 0.32 0 0.56 0.32 0 0.58 0.32 0 0.6 0.32 0 0.62 0.32 0 0.64 0.32 0 0.66 0.32 0 0.68 0.32 0 0.7 0.32 0 0.72 0.32 0 0.74 0.32 0 0.76 0.32 0 0.78 0.32 0 0.8 0.32 0 0.82 0.32 0 0.84 0.32 0 0.86 0.32 0 0.88 0.32 0 0.9 0.32 0 0.92 0.32 0 0.94 0.
[...]
			<PointData Scalars="VitesseX">
				<DataArray Name="VitesseX" type="Float32" format="ascii">
 0 0 0 0 0 0 0 0 0 0 0 0 0 0 0 0 0 0 0 0 0 0 0 0 0 0 0 0 0 0 0 0 0 0 0 0 0 0 0 0 0 0 0 0 0 0 0 0 0 0 -0 0 -0.000174669 -0.00069595 -0.00155563 -0.00274018 -0.00423094 -0.00600439 -0.00803258 -0.0102835 -0.0127217 -0.0153087 -0.0180036 -0.0207638 -0.0235459 -0.0263061 -0.0290007 -0.0315873 -0.034025 -0.0362754 -0.0383029 -0.0400756 -0.0415656 -0.0427493 -0.0436098 -0.0441286 -0.0443021 -0.0441274 -0.0436022 -0.0427408 -0.0415548 -0.040063 -0.0382889 -0.0362604 -0.0340096 -0.031572 -0.028986 -0.0262923 -0.0235334 -0.0207528 -0.017994 -0.0153007 -0.0127154 -0.0102787 -0.00802912 -0.00600204 -0.00422947 -0.00273937 -0.00155524 -0.000695778 -0.000174645 -1.89526e-27 0 -0.000346623 -0.00138129 -0.00308794 -0.00543993 -0.00840037 -0.0119227 -0.0159515 -0.0204231 -0.0252669 -0.0304064 -0.0357603 -0.0412434 -0.0467692 -0.0522508 -0.0576012 -0.0627355 -0.0675727 -0.0720363 -0.0760557 -0.0795677 -0.0825168 -0.0848567 -0.0865574 -0.0875732 -0.087905 -0.0875526 -0.0864976 -0.0847797 -0.0824189 -0.0794525 -0.0759276 -0.0718996 -0.0674322 -0.0625957 -0.0574662 -0.0521243 -0.0466545 -0.0411421 -0.0356733 -0.0303346 -0.02521 -0.02038 -0.0159206 -0.011902 -0.00838768 -0.00543302 -0.00308479 -0.00138013 -0.000346467 -3.76074e-27 0 -0.000513131 -0.00204506 -0.00457225 -0.00805551 -0.0124404 -0.0176581 -0.0236264 -0.0302512 -0.0374278 -0.0450426 -0.0529748 -0.0610978 -0.0692833 -0.0774027 -0.0853264 -0.0929287 -0.100089 -0.106695 -0.112641 -0.117833 -0.122191 -0.125645 -0.128155 -0.129644 -0.130121 -0.129593 -0.128013 -0.125459 -0.121955 -0.117556 -0.112332 -0.106365 -0.0997508 -0.0925919 -0.0850012 -0.0770979 -0.0690069 -0.0608537 -0.0527653 -0.0448697 -0.0372908 -0.0301475 -0.0235521 -0.0176083 -0.0124099 -0.00803897 -0.00456474 -0.00204234 -0.000512768 -5.56703e-27 0 -0.000671573 -0.00267683 -0.00598527 -0.0105459 -0.0162877 -0.0231207 -0.0309375 -0.0396145 -0.0490147 -0.0589889 -0.0693788 -0.0800177 -0.0907374 -0.10137 -0.111744 -0.121696 -0.131067 -0.139709 -0.147485 -0.154273 -0.159965 -0.164473 -0.167749 -0.169679 -0.170283 -0.169584 -0.167495 -0.164138 -0.159539 -0.153772 -0.146928 -0.139115 -0.130456 -0.121088 -0.111157 -0.100819 -0.0902382 -0.0795768 -0.0690006 -0.0586769 -0.0487674 -0.0394274 -0.0308034 -0.0230311 -0.0162328 -0.0105161 -0.00597177 -0.00267197 -0.000670926 -7.28559e-27 0 -0.00081945 -0.00326662 -0.0073047 -0.0128719 -0.0198817 -0.0282246 -0.0377694 -0.0483654 -0.0598448 -0.0720254 -0.0847135 -0.0977047 -0.110793 -0.123774 -0.136438 -0.148583 -0.160017 -0.170558 -0.18004 -0.188311 -0.195244 -0.200728 -0.204713 -0.207045 -0.207759 -0.206894 -0.204319 -0.200206 -0.194579 -0.18753 -0.179169 -0.169631 -0.159064 -0.147634 -0.135521 -0.122915 -0.110014 -0.0970164 -0.0841232 -0.0715385 -0.0594589 -0.0480734 -0.0375602 -0.0280847 -0.0197961 -0.0128255 -0.00728371 -0.00325912 -0.000818454 -8.88928e-27 0 -0.000954432 -0.00380514 -0.00850975 -0.0149967 -0.0231656 -0.0328891 -0.0440144 -0.0563657 -0.0697474 -0.0839466 -0.0987373 -0.11388 -0.129135 -0.144262 -0.159019 -0.173168 -0.186484 -0.198757 -0.209791 -0.219413 -0.227471 -0.233839 -0.238464 -0.241154 -0.241958 -0.240935 -0.237906 -0.233093 -0.226522 -0.218297 -0.208549 -0.197432 -0.185123 -0.171812 -0.15771 -0.143036 -0.128022 -0.112897 -0.0978948 -0.0832518 -0.0691968 -0.0559491 -0.0437161 -0.0326897 -0.0230436 -0.0149307 -0.00847992 -0.00379456 -0.000953028 -1.03527e-26 0 -0.00107439 -0.0042839 -0.00958139 -0.0168868 -0.0260877 -0.0370407 -0.0495739 -0.0634894 -0.0785662 -0.0945645 -0.111229 -0.128288 -0.145473 -0.162512 -0.17913 -0.19506 -0.21005 -0.223859 -0.23627 -0.247086 -0.256137 -0.263283 -0.268469 -0.271467 -0.272339 -0.271168 -0.267724 -0.262283 -0.254864 -0.245588 -0.234603 -0.222082 -0.208222 -0.193242 -0.177374 -0.160866 -0.143979 -0.126969 -0.110098 -0.0936322 -0.0778275 -0.0629305 -0.0491739 -0.0367734 -0.0259243 -0.0167985 -0.00954155 -0.00426987 -0.00107253 -1.16528e-26 0 -0.00117744 -0.00469534 -0.0105027 -0.0185125 -0.0286019 -0.040614 -0.0543604 -0.069624 -0.0861622 -0.103711 -0.121991 -0.140703 -0.159549 -0.178235 -0.196454 -0.213917 -0.230342 -0.24547 -0.259058 -0.270894 -0.280791 -0.288596 -0.294254 -0.297504 -0.298425 -0.297115 -0.293304 -0.287312 -0.279158 -0.268973 -0.25692 -0.243189 -0.227998 -0.211583 -0.194202 -0.176123 -0.157632 -0.13901 -0.120541 -0.102516 -0.085215 -0.0689074 -0.0538476 -0.0402714 -0.0283926 -0.0183995 -0.0104519 -0.00467759 -0.00117509 -1.2769e-26 0 -0.00126194 -0.00503297 -0.0112592 -0.0198481 -0.0306685 -0.0435525 -0.0582983 -0.0746727 -0.0924156 -0.111243 -0.130854 -0.150927 -0.171142 -0.191182 -0.210719 -0.229439 -0.247042 -0.263247 -0.277797 -0.290462 -0.301044 -0.309378 -0.315413 -0.318854 -0.319805 -0.318366 -0.314242 -0.307788 -0.299021 -0.288082 -0.275148 -0.260422 -0.244138 -0.226549 -0.207929 -0.188567 -0.168768 -0.148831 -0.129058 -0.109763 -0.0912427 -0.0737858 -0.0576637 -0.0431288 -0.0304098 -0.0197086 -0.0111966 -0.00501131 -0.00125909 -1.36836e-26 0 -0.00132658 -0.00529147 -0.011839 -0.0208725 -0.0322549 -0.0458099 -0.0613254 -0.078556 -0.0972275 -0.117041 -0.137678 -0.1588 -0.180069 -0.201151 -0.221699 -0.241382 -0.259885 -0.276912 -0.292191 -0.305481 -0.316575 -0.325302 -0.331611 -0.335179 -0.33614 -0.334586 -0.330208 -0.323386 -0.314139 -0.302615 -0.288999 -0.273509 -0.256387 -0.237901 -0.218338 -0.198001 -0.177209 -0.156275 -0.135516 -0.115258 -0.0958157 -0.0774886 -0.0605619 -0.0453004 -0.031944 -0.0207051 -0.0117641 -0.0052658 -0.00132321 -1.43821e-26 0 -0.00137033 -0.00546676 -0.0122328 -0.0215696 -0.033336 -0.0473506 -0.0633939 -0.0812125 -0.100522 -0.121013 -0.142356 -0.164197 -0.186189 -0.207983 -0.229221 -0.249559 -0.268669 -0.286247 -0.302011 -0.315714 -0.32714 -0.336115 -0.342592 -0.346222 -0.347176 -0.34555 -0.341004 -0.333939 -0.324369 -0.312451 -0.298377 -0.28237 -0.264682 -0.245589 -0.225388 -0.20439 -0.182926 -0.161317 -0.139889 -0.11898 -0.0989125 -0.0799958 -0.0625242 -0.0467704 -0.0329825 -0.0213794 -0.0121479 -0.00543788 -0.00136654 -1.48535e-26 0 -0.00139261 -0.00555701 -0.0124376 -0.0219354 -0.0339082 -0.0481719 -0.0645039 -0.0826456 -0.102307 -0.123173 -0.144904 -0.167141 -0.189526 -0.211704 -0.233308 -0.253986 -0.273404 -0.291251 -0.30724 -0.321121 -0.332676 -0.341728 -0.348241 -0.351829 -0.352734 -0.350954 -0.346241 -0.338971 -0.32917 -0.316998 -0.302652 -0.286361 -0.268378 -0.248986 -0.228482 -0.207182 -0.185419 -0.163516 -0.141801 -0.120616 -0.100283 -0.0811151 -0.0634097 -0.0474422 -0.0334637 -0.0216967 -0.0123315 -0.0055216 -0.001388 -1.50903e-26 0 -0.00139262 -0.00555705 -0.0124378 -0.021936 -0.0339095 -0.0481744 -0.0645079 -0.0826518 -0.102316 -0.123184 -0.144918 -0.167158 -0.189546 -0.211725 -0.233329 -0.254007 -0.273424 -0.291268 -0.307255 -0.321133 -0.332684 -0.341733 -0.348243 -0.35183 -0.352734 -0.350953 -0.346236 -0.338962 -0.329155 -0.316978 -0.302627 -0.286331 -0.268346 -0.248951 -0.228447 -0.207149 -0.185388 -0.163489 -0.141779 -0.120597 -0.100269 -0.0811054 -0.0634033 -0.0474384 -0.0334617 -0.0216958 -0.0123311 -0.00552153 -0.00138799 -1.50889e-26 0 -0.0013712 -0.00547366 -0.0122556 -0.0216222 -0.033435 -0.0475139 -0.0636396 -0.0815568 -0.100978 -0.121589 -0.143054 -0.165015 -0.187115 -0.209 -0.230304 -0.250678 -0.269792 -0.287336 -0.303029 -0.316623 -0.327906 -0.336708 -0.343005 -0.346373 -0.34717 -0.345293 -0.340566 -0.333322 -0.323597 -0.311552 -0.297384 -0.281318 -0.263606 -0.244523 -0.224361 -0.203431 -0.182055 -0.16055 -0.139235 -0.118442 -0.098487 -0.0796749 -0.0622953 -0.0466183 -0.0328903 -0.0213304 -0.0121266 -0.00543145 -0.00136572 -1.48491e-26 0 -0.00132778 -0.00530102 -0.0118706 -0.0209455 -0.0323924 -0.0460373 -0.0616677 -0.0790363 -0.0978641 -0.117846 -0.138655 -0.159942 -0.181363 -0.202571 -0.223212 -0.242946 -0.261452 -0.27843 -0.293608 -0.306745 -0.317639 -0.326125 -0.332182 -0.335391 -0.336132 -0.334215 -0.329573 -0.322491 -0.313015 -0.301305 -0.287551 -0.271973 -0.254814 -0.236341 -0.216836 -0.196596 -0.175934 -0.155151 -0.134558 -0.114471 -0.0951932 -0.0770192 -0.0602275 -0.0450783 -0.0318097 -0.0206338 -0.0117331 -0.00525646 -0.00132202 -1.43748e-26 0 -0.00126359 -0.00504607 -0.0113026 -0.0199482 -0.0308571 -0.0438644 -0.058768 -0.0753317 -0.0932889 -0.112347 -0.132194 -0.152495 -0.172918 -0.193132 -0.212796 -0.231586 -0.249193 -0.265332 -0.279743 -0.292199 -0.302506 -0.310511 -0.316199 -0.31915 -0.319794 -0.317858 -0.313368 -0.306552 -0.29747 -0.286274 -0.273147 -0.2583 -0.241964 -0.224392 -0.205853 -0.186625 -0.167006 -0.147278 -0.127734 -0.108673 -0.090382 -0.0731368 -0.0572012 -0.0428217 -0.030224 -0.01961 -0.0111539 -0.00499839 -0.00125745 -1.36736e-26 0 -0.00117951 -0.00471178 -0.0105572 -0.0186381 -0.0288386 -0.0410054 -0.0549499 -0.0704509 -0.0872583 -0.105097 -0.123673 -0.142671 -0.161779 -0.180682 -0.199062 -0.216613 -0.233044 -0.248089 -0.261504 -0.273078 -0.282631 -0.290022 -0.295244 -0.297885 -0.298414 -0.296481 -0.292206 -0.285758 -0.277206 -0.266696 -0.2544 -0.240515 -0.225259 -0.208866 -0.191585 -0.173675 -0.155411 -0.137052 -0.118871 -0.101142 -0.0841295 -0.0680889 -0.0532643 -0.0398841 -0.0281583 -0.0182751 -0.0103979 -0.00466129 -0.00117302 -1.27566e-26 0 -0.00107685 -0.00430342 -0.00964603 -0.0170359 -0.0263688 -0.0375054 -0.0502737 -0.064471 -0.0798674 -0.0962096 -0.113226 -0.130625 -0.14812 -0.165419 -0.182227 -0.198263 -0.213261 -0.226973 -0.239178 -0.249684 -0.258328 -0.264984 -0.269649 -0.271933 -0.272328 -0.270423 -0.266424 -0.260438 -0.252545 -0.242881 -0.231605 -0.218899 -0.204962 -0.190006 -0.174257 -0.157951 -0.141332 -0.124637 -0.108109 -0.0919956 -0.0765342 -0.0619552 -0.0484788 -0.0363118 -0.025645 -0.0166502 -0.00947722 -0.00425044 -0.00107007 -1.16382e-26 0 -0.000957242 -0.00382743 -0.00858355 -0.0151669 -0.0234865 -0.0334195 -0.0448132 -0.0574863 -0.0712328 -0.0858248 -0.101017 -0.116548 -0.132158 -0.147583 -0.162557 -0.176828 -0.190154 -0.202317 -0.213119 -0.222387 -0.229981 -0.23579 -0.239818 -0.241706 -0.241947 -0.240097 -0.236427 -0.23099 -0.223875 -0.215204 -0.205123 -0.193794 -0.181393 -0.168111 -0.154145 -0.1397 -0.124993 -0.110227 -0.0956177 -0.0813781 -0.0677159 -0.0548323 -0.0429201 -0.032161 -0.0227238 -0.0147608 -0.00840624 -0.0037723 -0.000950207 -1.03361e-26 0 -0.000822567 -0.00329133 -0.00738651 -0.0130605 -0.0202373 -0.0288124 -0.0386546 -0.0496072 -0.0614909 -0.0741069 -0.0872406 -0.100662 -0.114145 -0.127456 -0.140363 -0.152644 -0.16409 -0.174511 -0.183736 -0.191618 -0.198037 -0.202902 -0.206221 -0.20768 -0.207751 -0.205983 -0.202689 -0.197881 -0.191649 -0.184103 -0.175372 -0.165595 -0.154926 -0.143526 -0.131563 -0.119211 -0.10665 -0.0940508 -0.081594 -0.0694572 -0.0578138 -0.0468327 -0.0366759 -0.0274974 -0.0194407 -0.0126368 -0.00720184 -0.00323438 -0.000815319 -8.87106e-27 0 -0.000674947 -0.00270356 -0.00607379 -0.0107501 -0.0166724 -0.0237567 -0.0318951 -0.040958 -0.0507955 -0.0612407 -0.072113 -0.0832185 -0.0943653 -0.105355 -0.115994 -0.126094 -0.13548 -0.143994 -0.151494 -0.157862 -0.163001 -0.166844 -0.169375 -0.170414 -0.170261 -0.168625 -0.165743 -0.161632 -0.156376 -0.150069 -0.14282 -0.134748 -0.125977 -0.116639 -0.106869 -0.0968066 -0.0865928 -0.0763629 -0.0662592 -0.0564207 -0.046984 -0.0380823 -0.0298446 -0.0223943 -0.0158475 -0.0103115 -0.00588299 -0.00264514 -0.000667528 -7.2661e-27 0 -0.000516711 -0.00207341 -0.0046661 -0.0082719 -0.0128481 -0.0183321 -0.0246414 -0.0316751 -0.0393153 -0.0474294 -0.0558732 -0.0644916 -0.0731304 -0.08163 -0.0898348 -0.0975956 -0.104774 -0.111246 -0.116901 -0.121651 -0.125424 -0.128181 -0.129872 -0.130479 -0.130083 -0.128606 -0.126171 -0.122815 -0.118611 -0.113637 -0.107982 -0.101738 -0.0950023 -0.0878737 -0.0804527 -0.0728401 -0.0651377 -0.0574423 -0.0498551 -0.0424744 -0.0353973 -0.0287193 -0.022534 -0.0169321 -0.0120007 -0.00782171 -0.00447047 -0.00201385 -0.00050916 -5.54662e-27 0 -0.000350352 -0.00141081 -0.00318564 -0.00566519 -0.0088248 -0.0126243 -0.0170079 -0.0219051 -0.0272315 -0.0328909 -0.0387775 -0.0447771 -0.0507754 -0.056654 -0.0622983 -0.0675994 -0.0724574 -0.0767837 -0.0805032 -0.083556 -0.0858986 -0.087516 -0.0883517 -0.0884837 -0.0878659 -0.086554 -0.0845963 -0.0820421 -0.0789499 -0.0753826 -0.0714059 -0.0670864 -0.0624906 -0.0576837 -0.0527294 -0.0476893 -0.0426228 -0.0375874 -0.0326405 -0.0278381 -0.0232363 -0.0188912 -0.0148593 -0.0111971 -0.00796111 -0.00520655 -0.00298652 -0.00135043 -0.000342707 -3.73978e-27 0 -0.000178494 -0.000726209 -0.00165577 -0.00297103 -0.00466585 -0.00672323 -0.009115 -0.011802 -0.0147347 -0.0178545 -0.0210955 -0.0243861 -0.0276529 -0.030821 -0.0338184 -0.0365777 -0.0390389 -0.0411508 -0.0428733 -0.0441779 -0.0450526 -0.0454767 -0.0454873 -0.0450738 -0.0442804 -0.0431312 -0.0416748 -0.0399554 -0.0380186 -0.0359092 -0.0336702 -0.0313409 -0.0289565 -0.0265475 -0.0241391 -0.0217527 -0.0194058 -0.0171133 -0.0148884 -0.012744 -0.0106939 -0.00875378 -0.00694195 -0.00527992 -0.00379246 -0.00250733 -0.00145455 -0.000665342 -0.000170793 -1.87411e-27 0 -3.84629e-06 -3.04072e-05 -0.000100607 -0.000231908 -0.000436877 -0.000722051 -0.00108723 -0.00152521 -0.00202198 -0.0025574 -0.00310628 -0.00363985 -0.00412745 -0.00453843 -0.00484412 -0.00501955 -0.00504524 -0.00490853 -0.00460452 -0.00413656 -0.00351637 -0.00276349 -0.00190442 -0.00097126 -2.23044e-08 0.000971238 0.00190439 0.00276344 0.00351632 0.00413652 0.00460447 0.00490848 0.00504518 0.00501948 0.00484406 0.00453841 0.00412743 0.00363983 0.00310627 0.00255739 0.00202197 0.0015252 0.00108723 0.000722052 0.000436879 0.000231909 0.000100607 3.04072e-05 3.84629e-06 2.09475e-29 0 0.000170793 0.000665342 0.00145455 0.00250733 0.00379247 0.00527992 0.00694195 0.00875378 0.0106939 0.012744 0.0148884 0.0171133 0.0194058 0.0217527 0.024139 0.0265474 0.0289565 0.0313409 0.0336701 0.0359091 0.0380185 0.0399554 0.0416748 0.0431312 0.0442803 0.0450738 0.0454872 0.0454767 0.0450526 0.0441778 0.0428733 0.0411508 0.0390388 0.0365777 0.0338184 0.030821 0.0276529 0.0243861 0.0210954 0.0178545 0.0147347 0.011802 0.009115 0.00672323 0.00466585 0.00297103 0.00165577 0.000726209 0.000178494 1.91552e-27 0 0.000342707 0.00135043 0.00298652 0.00520655 0.00796111 0.0111971 0.0148593 0.0188912 0.0232363 0.0278381 0.0326405 0.0375874 0.0426227 0.0476893 0.0527293 0.0576837 0.0624905 0.0670863 0.0714058 0.0753825 0.0789498 0.0820421 0.0845963 0.086554 0.0878659 0.0884837 0.0883516 0.0875159 0.0858986 0.083556 0.0805032 0.0767837 0.0724574 0.0675994 0.0622982 0.0566539 0.0507753 0.0447771 0.0387775 0.0328909 0.0272315 0.0219051 0.0170079 0.0126243 0.0088248 0.00566519 0.00318564 0.00141081 0.000350352 3.77973e-27 0 0.00050916 0.00201385 0.00447047 0.00782171 0.0120007 0.0169321 0.022534 0.0287193 0.0353973 0.0424744 0.0498551 0.0574423 0.0651376 0.07284 0.0804527 0.0878737 0.0950022 0.101738 0.107982 0.113637 0.118611 0.122815 0.126171 0.128606 0.130083 0.130479 0.129872 0.128181 0.125424 0.121651 0.116901 0.111246 0.104774 0.0975956 0.0898347 0.08163 0.0731303 0.0644916 0.0558732 0.0474294 0.0393153 0.0316751 0.0246414 0.0183321 0.0128481 0.00827191 0.0046661 0.00207341 0.000516711 5.58422e-27 0 0.000667528 0.00264514 0.00588299 0.0103115 0.0158475 0.0223943 0.0298446 0.0380823 0.046984 0.0564207 0.0662592 0.0763629 0.0865928 0.0968066 0.106869 0.116639 0.125977 0.134748 0.14282 0.150069 0.156376 0.161632 0.165743 0.168625 0.170261 0.170414 0.169375 0.166844 0.163001 0.157862 0.151494 0.143994 0.13548 0.126094 0.115994 0.105355 0.0943653 0.0832185 0.072113 0.0612407 0.0507955 0.040958 0.0318951 0.0237567 0.0166724 0.0107501 0.00607379 0.00270356 0.000674947 7.30056e-27 0 0.000815319 0.00323438 0.00720184 0.0126368 0.0194407 0.0274974 0.0366759 0.0468327 0.0578138 0.0694572 0.081594 0.0940508 0.10665 0.119211 0.131563 0.143526 0.154926 0.165595 0.175372 0.184103 0.191649 0.197881 0.202689 0.205982 0.207751 0.20768 0.206221 0.202902 0.198037 0.191618 0.183736 0.174511 0.16409 0.152644 0.140363 0.127456 0.114145 0.100662 0.0872406 0.0741069 0.0614909 0.0496072 0.0386546 0.0288124 0.0202373 0.0130605 0.00738651 0.00329133 0.000822567 8.90175e-27 0 0.000950207 0.0037723 0.00840624 0.0147608 0.0227238 0.032161 0.0429201 0.0548323 0.0677159 0.0813781 0.0956177 0.110227 0.124993 0.1397 0.154145 0.168111 0.181393 0.193794 0.205123 0.215204 0.223875 0.23099 0.236426 0.240097 0.241947 0.241706 0.239818 0.23579 0.229981 0.222387 0.213119 0.202317 0.190154 0.176828 0.162557 0.147583 0.132158 0.116548 0.101017 0.0858248 0.0712328 0.0574863 0.0448132 0.0334195 0.0234865 0.0151669 0.00858355 0.00382743 0.000957242 1.03626e-26 0 0.00107007 0.00425044 0.00947722 0.0166502 0.025645 0.0363118 0.0484788 0.0619552 0.0765342 0.0919956 0.108109 0.124637 0.141332 0.157951 0.174257 0.190006 0.204962 0.218899 0.231605 0.242881 0.252545 0.260438 0.266424 0.270423 0.272328 0.271933 0.269649 0.264983 0.258328 0.249684 0.239178 0.226973 0.213261 0.198263 0.182227 0.165419 0.14812 0.130625 0.113226 0.0962096 0.0798674 0.064471 0.0502737 0.0375054 0.0263688 0.0170359 0.00964603 0.00430342 0.00107685 1.16601e-26 0 0.00117302 0.00466129 0.0103979 0.0182751 0.0281583 0.0398841 0.0532643 0.0680889 0.0841295 0.101142 0.118871 0.137052 0.155411 0.173675 0.191585 0.208865 0.225259 0.240515 0.2544 0.266696 0.277206 0.285758 0.292206 0.296481 0.298414 0.297885 0.295244 0.290022 0.282631 0.273078 0.261504 0.248089 0.233044 0.216613 0.199062 0.180682 0.161779 0.142671 0.123673 0.105097 0.0872583 0.0704509 0.0549499 0.0410054 0.0288386 0.0186381 0.0105572 0.00471178 0.00117951 1.27739e-26 0 0.00125745 0.00499839 0.0111539 0.01961 0.030224 0.0428217 0.0572012 0.0731368 0.090382 0.108673 0.127734 0.147278 0.167006 0.186625 0.205853 0.224392 0.241964 0.2583 0.273147 0.286274 0.29747 0.306552 0.313368 0.317858 0.319794 0.31915 0.316199 0.310511 0.302506 0.292199 0.279743 0.265332 0.249193 0.231586 0.212796 0.193132 0.172918 0.152495 0.132194 0.112347 0.0932889 0.0753317 0.058768 0.0438644 0.0308571 0.0199482 0.0113026 0.00504607 0.00126359 1.36864e-26 0 0.00132202 0.00525646 0.0117331 0.0206338 0.0318097 0.0450783 0.0602275 0.0770192 0.0951932 0.114471 0.134558 0.155151 0.175934 0.196596 0.216836 0.236341 0.254814 0.271973 0.287552 0.301305 0.313015 0.322491 0.329573 0.334215 0.336132 0.335391 0.332182 0.326125 0.317639 0.306745 0.293608 0.27843 0.261452 0.242946 0.223212 0.202571 0.181363 0.159942 0.138655 0.117846 0.097864 0.0790363 0.0616677 0.0460373 0.0323924 0.0209455 0.0118706 0.00530102 0.00132778 1.43834e-26 0 0.00136572 0.00543145 0.0121266 0.0213304 0.0328903 0.0466183 0.0622953 0.0796749 0.098487 0.118442 0.139235 0.16055 0.182055 0.203431 0.224361 0.244523 0.263606 0.281318 0.297384 0.311552 0.323597 0.333322 0.340566 0.345293 0.34717 0.346373 0.343005 0.336708 0.327906 0.316623 0.303029 0.287336 0.269792 0.250678 0.230304 0.209 0.187115 0.165015 0.143054 0.121589 0.100978 0.0815567 0.0636396 0.0475139 0.033435 0.0216222 0.0122556 0.00547366 0.0013712 1.48538e-26 0 0.00138799 0.00552153 0.0123311 0.0216958 0.0334617 0.0474384 0.0634033 0.0811054 0.100269 0.120597 0.141779 0.163489 0.185388 0.207149 0.228447 0.248951 0.268346 0.286331 0.302627 0.316978 0.329155 0.338962 0.346236 0.350953 0.352734 0.35183 0.348243 0.341733 0.332684 0.321133 0.307255 0.291268 0.273424 0.254007 0.233329 0.211725 0.189546 0.167158 0.144918 0.123184 0.102316 0.0826518 0.0645079 0.0481744 0.0339095 0.021936 0.0124378 0.00555705 0.00139262 1.50903e-26 0 0.001388 0.0055216 0.0123315 0.0216967 0.0334637 0.0474422 0.0634097 0.0811151 0.100283 0.120616 0.141801 0.163516 0.185419 0.207182 0.228482 0.248986 0.268378 0.286361 0.302652 0.316998 0.32917 0.338971 0.346241 0.350954 0.352734 0.351829 0.348241 0.341728 0.332676 0.321121 0.30724 0.291251 0.273404 0.253986 0.233308 0.211704 0.189526 0.167141 0.144904 0.123173 0.102307 0.0826456 0.0645039 0.0481719 0.0339082 0.0219354 0.0124376 0.00555701 0.00139261 1.50892e-26 0 0.00136654 0.00543788 0.0121479 0.0213794 0.0329825 0.0467704 0.0625242 0.0799958 0.0989124 0.11898 0.139889 0.161317 0.1