<?xml version="1.0"?>
<VTKFile type="PolyData">
	<PolyData>
		<Piece NumberOfPoints="2601" NumberOfPolys="2500">
			<Points>
				<DataArray type="Float32" NumberOfComponents="3" format="ascii">
 0 0 0 0.02 0 0 0.04 0 0 0.06 0 0 0.08 0 0 0.1 0 0 0.12 0 0 0.14 0 0 0.16 0 0 0.18 0 0 0.2 0 0 0.22 0 0 0.24 0 0 0.26 0 0 0.28 0 0 0.3 0 0 0.32 0 0 0.34 0 0 0.36 0 0 0.38 0 0 0.4 0 0 0.42 0 0 0.44 0 0 0.46 0 0 0.48 0 0 0.5 0 0 0.52 0 0 0.54 0 0 0.56 0 0 0.58 0 0 0.6 0 0 0.62 0 0 0.64 0 0 0.66 0 0 0.68 0 0 0.7 0 0 0.72 0 0 0.74 0 0 0.76 0 0 0.78 0 0 0.8 0 0 0.82 0 0 0.84 0 0 0.86 0 0 0.88 0 0 0.9 0 0 0.92 0 0 0.94 0 0 0.96 0 0 0.98 0 0 1 0 0 0 0.02 0 0.02 0.02 0 0.04 0.02 0 0.06 0.02 0 0.08 0.02 0 0.1 0.02 0 0.12 0.02 0 0.14 0.02 0 0.16 0.02 0 0.18 0.02 0 0.2 0.02 0 0.22 0.02 0 0.24 0.02 0 0.26 0.02 0 0.28 0.02 0 0.3 0.02 0 0.32 0.02 0 0.34 0.02 0 0.36 0.02 0 0.38 0.02 0 0.4 0.02 0 0.42 0.02 0 0.44 0.02 0 0.46 0.02 0 0.48 0.02 0 0.5 0.02 0 0.52 0.02 0 0.54 0.02 0 0.56 0.02 0 0.58 0.02 0 0.6 0.02 0 0.62 0.02 0 0.64 0.02 0 0.66 0.02 0 0.68 0.02 0 0.7 0.02 0 0.72 0.02 0 0.74 0.02 0 0.76 0.02 0 0.78 0.02 0 0.8 0.02 0 0.82 0.02 0 0.84 0.02 0 0.86 0.02 0 0.88 0.02 0 0.9 0.02 0 0.92 0.02 0 0.94 0.02 0 0.96 0.02 0 0.98 0.02 0 1 0.02 0 0 0.04 0 0.02 0.04 0 0.04 0.04 0 0.06 0.04 0 0.08 0.04 0 0.1 0.04 0 0.12 0.04 0 0.14 0.04 0 0.16 0.04 0 0.18 0.04 0 0.2 0.04 0 0.22 0.04 0 0.24 0.04 0 0.26 0.04 0 0.28 0.04 0 0.3 0.04 0 0.32 0.04 0 0.34 0.04 0 0.36 0.04 0 0.38 0.04 0 0.4 0.04 0 0.42 0.04 0 0.44 0.04 0 0.46 0.04 0 0.48 0.04 0 0.5 0.04 0 0.52 0.04 0 0.54 0.04 0 0.56 0.04 0 0.58 0.04 0 0.6 0.04 0 0.62 0.04 0 0.64 0.04 0 0.66 0.04 0 0.68 0.04 0 0.7 0.04 0 0.72 0.04 0 0.74 0.04 0 0.76 0.04 0 0.78 0.04 0 0.8 0.04 0 0.82 0.04 0 0.84 0.04 0 0.86 0.04 0 0.88 0.04 0 0.9 0.04 0 0.92 0.04 0 0.94 0.04 0 0.96 0.04 0 0.98 0.04 0 1 0.04 0 0 0.06 0 0.02 0.06 0 0.04 0.06 0 0.06 0.06 0 0.08 0.06 0 0.1 0.06 0 0.12 0.06 0 0.14 0.06 0 0.16 0.06 0 0.18 0.06 0 0.2 0.06 0 0.22 0.06 0 0.24 0.06 0 0.26 0.06 0 0.28 0.06 0 0.3 0.06 0 0.32 0.06 0 0.34 0.06 0 0.36 0.06 0 0.38 0.06 0 0.4 0.06 0 0.42 0.06 0 0.44 0.06 0 0.46 0.06 0 0.48 0.06 0 0.5 0.06 0 0.52 0.06 0 0.54 0.06 0 0.56 0.06 0 0.58 0.06 0 0.6 0.06 0 0.62 0.06 0 0.64 0.06 0 0.66 0.06 0 0.68 0.06 0 0.7 0.06 0 0.72 0.06 0 0.74 0.06 0 0.76 0.06 0 0.78 0.06 0 0.8 0.06 0 0.82 0.06 0 0.84 0.06 0 0.86 0.06 0 0.88 0.06 0 0.9 0.06 0 0.92 0.06 0 0.94 0.06 0 0.96 0.06 0 0.98 0.06 0 1 0.06 0 0 0.08 0 0.02 0.08 0 0.04 0.08 0 0.06 0.08 0 0.08 0.08 0 0.1 0.08 0 0.12 0.08 0 0.14 0.08 0 0.16 0.08 0 0.18 0.08 0 0.2 0.08 0 0.22 0.08 0 0.24 0.08 0 0.26 0.08 0 0.28 0.08 0 0.3 0.08 0 0.32 0.08 0 0.34 0.08 0 0.36 0.08 0 0.38 0.08 0 0.4 0.08 0 0.42 0.08 0 0.44 0.08 0 0.46 0.08 0 0.48 0.08 0 0.5 0.08 0 0.52 0.08 0 0.54 0.08 0 0.56 0.08 0 0.58 0.08 0 0.6 0.08 0 0.62 0.08 0 0.64 0.08 0 0.66 0.08 0 0.68 0.08 0 0.7 0.08 0 0.72 0.08 0 0.74 0.08 0 0.76 0.08 0 0.78 0.08 0 0.8 0.08 0 0.82 0.08 0 0.84 0.08 0 0.86 0.08 0 0.88 0.08 0 0.9 0.08 0 0.92 0.08 0 0.94 0.08 0 0.96 0.08 0 0.98 0.08 0 1 0.08 0 0 0.1 0 0.02 0.1 0 0.04 0.1 0 0.06 0.1 0 0.08 0.1 0 0.1 0.1 0 0.12 0.1 0 0.14 0.1 0 0.16 0.1 0 0.18 0.1 0 0.2 0.1 0 0.22 0.1 0 0.24 0.1 0 0.26 0.1 0 0.28 0.1 0 0.3 0.1 0 0.32 0.1 0 0.34 0.1 0 0.36 0.1 0 0.38 0.1 0 0.4 0.1 0 0.42 0.1 0 0.44 0.1 0 0.46 0.1 0 0.48 0.1 0 0.5 0.1 0 0.52 0.1 0 0.54 0.1 0 0.56 0.1 0 0.58 0.1 0 0.6 0.1 0 0.62 0.1 0 0.64 0.1 0 0.66 0.1 0 0.68 0.1 0 0.7 0.1 0 0.72 0.1 0 0.74 0.1 0 0.76 0.1 0 0.78 0.1 0 0.8 0.1 0 0.82 0.1 0 0.84 0.1 0 0.86 0.1 0 0.88 0.1 0 0.9 0.1 0 0.92 0.1 0 0.94 0.1 0 0.96 0.1 0 0.98 0.1 0 1 0.1 0 0 0.12 0 0.02 0.12 0 0.04 0.12 0 0.06 0.12 0 0.08 0.12 0 0.1 0.12 0 0.12 0.12 0 0.14 0.12 0 0.16 0.12 0 0.18 0.12 0 0.2 0.12 0 0.22 0.12 0 0.24 0.12 0 0.26 0.12 0 0.28 0.12 0 0.3 0.12 0 0.32 0.12 0 0.34 0.12 0 0.36 0.12 0 0.38 0.12 0 0.4 0.12 0 0.42 0.12 0 0.44 0.12 0 0.46 0.12 0 0.48 0.12 0 0.5 0.12 0 0.52 0.12 0 0.54 0.12 0 0.56 0.12 0 0.58 0.12 0 0.6 0.12 0 0.62 0.12 0 0.64 0.12 0 0.66 0.12 0 0.68 0.12 0 0.7 0.12 0 0.72 0.12 0 0.74 0.12 0 0.76 0.12 0 0.78 0.12 0 0.8 0.12 0 0.82 0.12 0 0.84 0.12 0 0.86 0.12 0 0.88 0.12 0 0.9 0.12 0 0.92 0.12 0 0.94 0.12 0 0.96 0.12 0 0.98 0.12 0 1 0.12 0 0 0.14 0 0.02 0.14 0 0.04 0.14 0 0.06 0.14 0 0.08 0.14 0 0.1 0.14 0 0.12 0.14 0 0.14 0.14 0 0.16 0.14 0 0.18 0.14 0 0.2 0.14 0 0.22 0.14 0 0.24 0.14 0 0.26 0.14 0 0.28 0.14 0 0.3 0.14 0 0.32 0.14 0 0.34 0.14 0 0.36 0.14 0 0.38 0.14 0 0.4 0.14 0 0.42 0.14 0 0.44 0.14 0 0.46 0.14 0 0.48 0.14 0 0.5 0.14 0 0.52 0.14 0 0.54 0.14 0 0.56 0.14 0 0.58 0.14 0 0.6 0.14 0 0.62 0.14 0 0.64 0.14 0 0.66 0.14 0 0.68 0.14 0 0.7 0.14 0 0.72 0.14 0 0.74 0.14 0 0.76 0.14 0 0.78 0.14 0 0.8 0.14 0 0.82 0.14 0 0.84 0.14 0 0.86 0.14 0 0.88 0.14 0 0.9 0.14 0 0.92 0.14 0 0.94 0.14 0 0.96 0.14 0 0.98 0.14 0 1 0.14 0 0 0.16 0 0.02 0.16 0 0.04 0.16 0 0.06 0.16 0 0.08 0.16 0 0.1 0.16 0 0.12 0.16 0 0.14 0.16 0 0.16 0.16 0 0.18 0.16 0 0.2 0.16 0 0.22 0.16 0 0.24 0.16 0 0.26 0.16 0 0.28 0.16 0 0.3 0.16 0 0.32 0.16 0 0.34 0.16 0 0.36 0.16 0 0.38 0.16 0 0.4 0.16 0 0.42 0.16 0 0.44 0.16 0 0.46 0.16 0 0.48 0.16 0 0.5 0.16 0 0.52 0.16 0 0.54 0.16 0 0.56 0.16 0 0.58 0.16 0 0.6 0.16 0 0.62 0.16 0 0.64 0.16 0 0.66 0.16 0 0.68 0.16 0 0.7 0.16 0 0.72 0.16 0 0.74 0.16 0 0.76 0.16 0 0.78 0.16 0 0.8 0.16 0 0.82 0.16 0 0.84 0.16 0 0.86 0.16 0 0.88 0.16 0 0.9 0.16 0 0.92 0.16 0 0.94 0.16 0 0.96 0.16 0 0.98 0.16 0 1 0.16 0 0 0.18 0 0.02 0.18 0 0.04 0.18 0 0.06 0.18 0 0.08 0.18 0 0.1 0.18 0 0.12 0.18 0 0.14 0.18 0 0.16 0.18 0 0.18 0.18 0 0.2 0.18 0 0.22 0.18 0 0.24 0.18 0 0.26 0.18 0 0.28 0.18 0 0.3 0.18 0 0.32 0.18 0 0.34 0.18 0 0.36 0.18 0 0.38 0.18 0 0.4 0.18 0 0.42 0.18 0 0.44 0.18 0 0.46 0.18 0 0.48 0.18 0 0.5 0.18 0 0.52 0.18 0 0.54 0.18 0 0.56 0.18 0 0.58 0.18 0 0.6 0.18 0 0.62 0.18 0 0.64 0.18 0 0.66 0.18 0 0.68 0.18 0 0.7 0.18 0 0.72 0.18 0 0.74 0.18 0 0.76 0.18 0 0.78 0.18 0 0.8 0.18 0 0.82 0.18 0 0.84 0.18 0 0.86 0.18 0 0.88 0.18 0 0.9 0.18 0 0.92 0.18 0 0.94 0.18 0 0.96 0.18 0 0.98 0.18 0 1 0.18 0 0 0.2 0 0.02 0.2 0 0.04 0.2 0 0.06 0.2 0 0.08 0.2 0 0.1 0.2 0 0.12 0.2 0 0.14 0.2 0 0.16 0.2 0 0.18 0.2 0 0.2 0.2 0 0.22 0.2 0 0.24 0.2 0 0.26 0.2 0 0.28 0.2 0 0.3 0.2 0 0.32 0.2 0 0.34 0.2 0 0.36 0.2 0 0.38 0.2 0 0.4 0.2 0 0.42 0.2 0 0.44 0.2 0 0.46 0.2 0 0.48 0.2 0 0.5 0.2 0 0.52 0.2 0 0.54 0.2 0 0.56 0.2 0 0.58 0.2 0 0.6 0.2 0 0.62 0.2 0 0.64 0.2 0 0.66 0.2 0 0.68 0.2 0 0.7 0.2 0 0.72 0.2 0 0.74 0.2 0 0.76 0.2 0 0.78 0.2 0 0.8 0.2 0 0.82 0.2 0 0.84 0.2 0 0.86 0.2 0 0.88 0.2 0 0.9 0.2 0 0.92 0.2 0 0.94 0.2 0 0.96 0.2 0 0.98 0.2 0 1 0.2 0 0 0.22 0 0.02 0.22 0 0.04 0.22 0 0.06 0.22 0 0.08 0.22 0 0.1 0.22 0 0.12 0.22 0 0.14 0.22 0 0.16 0.22 0 0.18 0.22 0 0.2 0.22 0 0.22 0.22 0 0.24 0.22 0 0.26 0.22 0 0.28 0.22 0 0.3 0.22 0 0.32 0.22 0 0.34 0.22 0 0.36 0.22 0 0.38 0.22 0 0.4 0.22 0 0.42 0.22 0 0.44 0.22 0 0.46 0.22 0 0.48 0.22 0 0.5 0.22 0 0.52 0.22 0 0.54 0.22 0 0.56 0.22 0 0.58 0.22 0 0.6 0.22 0 0.62 0.22 0 0.64 0.22 0 0.66 0.22 0 0.68 0.22 0 0.7 0.22 0 0.72 0.22 0 0.74 0.22 0 0.76 0.22 0 0.78 0.22 0 0.8 0.22 0 0.82 0.22 0 0.84 0.22 0 0.86 0.22 0 0.88 0.22 0 0.9 0.22 0 0.92 0.22 0 0.94 0.22 0 0.96 0.22 0 0.98 0.22 0 1 0.22 0 0 0.24 0 0.02 0.24 0 0.04 0.24 0 0.06 0.24 0 0.08 0.24 0 0.1 0.24 0 0.12 0.24 0 0.14 0.24 0 0.16 0.24 0 0.18 0.24 0 0.2 0.24 0 0.22 0.24 0 0.24 0.24 0 0.26 0.24 0 0.28 0.24 0 0.3 0.24 0 0.32 0.24 0 0.34 0.24 0 0.36 0.24 0 0.38 0.24 0 0.4 0.24 0 0.42 0.24 0 0.44 0.24 0 0.46 0.24 0 0.48 0.24 0 0.5 0.24 0 0.52 0.24 0 0.54 0.24 0 0.56 0.24 0 0.58 0.24 0 0.6 0.24 0 0.62 0.24 0 0.64 0.24 0 0.66 0.24 0 0.68 0.24 0 0.7 0.24 0 0.72 0.24 0 0.74 0.24 0 0.76 0.24 0 0.78 0.24 0 0.8 0.24 0 0.82 0.24 0 0.84 0.24 0 0.86 0.24 0 0.88 0.24 0 0.9 0.24 0 0.92 0.24 0 0.94 0.24 0 0.96 0.24 0 0.98 0.24 0 1 0.24 0 0 0.26 0 0.02 0.26 0 0.04 0.26 0 0.06 0.26 0 0.08 0.26 0 0.1 0.26 0 0.12 0.26 0 0.14 0.26 0 0.16 0.26 0 0.18 0.26 0 0.2 0.26 0 0.22 0.26 0 0.24 0.26 0 0.26 0.26 0 0.28 0.26 0 0.3 0.26 0 0.32 0.26 0 0.34 0.26 0 0.36 0.26 0 0.38 0.26 0 0.4 0.26 0 0.42 0.26 0 0.44 0.26 0 0.46 0.26 0 0.48 0.26 0 0.5 0.26 0 0.52 0.26 0 0.54 0.26 0 0.56 0.26 0 0.58 0.26 0 0.6 0.26 0 0.62 0.26 0 0.64 0.26 0 0.66 0.26 0 0.68 0.26 0 0.7 0.26 0 0.72 0.26 0 0.74 0.26 0 0.76 0.26 0 0.78 0.26 0 0.8 0.26 0 0.82 0.26 0 0.84 0.26 0 0.86 0.26 0 0.88 0.26 0 0.9 0.26 0 0.92 0.26 0 0.94 0.26 0 0.96 0.26 0 0.98 0.26 0 1 0.26 0 0 0.28 0 0.02 0.28 0 0.04 0.28 0 0.06 0.28 0 0.08 0.28 0 0.1 0.28 0 0.12 0.28 0 0.14 0.28 0 0.16 0.28 0 0.18 0.28 0 0.2 0.28 0 0.22 0.28 0 0.24 0.28 0 0.26 0.28 0 0.28 0.28 0 0.3 0.28 0 0.32 0.28 0 0.34 0.28 0 0.36 0.28 0 0.38 0.28 0 0.4 0.28 0 0.42 0.28 0 0.44 0.28 0 0.46 0.28 0 0.48 0.28 0 0.5 0.28 0 0.52 0.28 0 0.54 0.28 0 0.56 0.28 0 0.58 0.28 0 0.6 0.28 0 0.62 0.28 0 0.64 0.28 0 0.66 0.28 0 0.68 0.28 0 0.7 0.28 0 0.72 0.28 0 0.74 0.28 0 0.76 0.28 0 0.78 0.28 0 0.8 0.28 0 0.82 0.28 0 0.84 0.28 0 0.86 0.28 0 0.88 0.28 0 0.9 0.28 0 0.92 0.28 0 0.94 0.28 0 0.96 0.28 0 0.98 0.28 0 1 0.28 0 0 0.3 0 0.02 0.3 0 0.04 0.3 0 0.06 0.3 0 0.08 0.3 0 0.1 0.3 0 0.12 0.3 0 0.14 0.3 0 0.16 0.3 0 0.18 0.3 0 0.2 0.3 0 0.22 0.3 0 0.24 0.3 0 0.26 0.3 0 0.28 0.3 0 0.3 0.3 0 0.32 0.3 0 0.34 0.3 0 0.36 0.3 0 0.38 0.3 0 0.4 0.3 0 0.42 0.3 0 0.44 0.3 0 0.46 0.3 0 0.48 0.3 0 0.5 0.3 0 0.52 0.3 0 0.54 0.3 0 0.56 0.3 0 0.58 0.3 0 0.6 0.3 0 0.62 0.3 0 0.64 0.3 0 0.66 0.3 0 0.68 0.3 0 0.7 0.3 0 0.72 0.3 0 0.74 0.3 0 0.76 0.3 0 0.78 0.3 0 0.8 0.3 0 0.82 0.3 0 0.84 0.3 0 0.86 0.3 0 0.88 0.3 0 0.9 0.3 0 0.92 0.3 0 0.94 0.3 0 0.96 0.3 0 0.98 0.3 0 1 0.3 0 0 0.32 0 0.02 0.32 0 0.04 0.32 0 0.06 0.32 0 0.08 0.32 0 0.1 0.32 0 0.12 0.32 0 0.14 0.32 0 0.16 0.32 0 0.18 0.32 0 0.2 0.32 0 0.22 0.32 0 0.24 0.32 0 0.26 0.32 0 0.28 0.32 0 0.3 0.32 0 0.32 0.32 0 0.34 0.32 0 0.36 0.32 0 0.38 0.32 0 0.4 0.32 0 0.42 0.32 0 0.44 0.32 0 0.46 0.32 0 0.48 0.32 0 0.5 0.32 0 0.52 0.32 0 0.54 0.32 0 0.56 0.32 0 0.58 0.32 0 0.6 0.32 0 0.62 0.32 0 0.64 0.32 0 0.66 0.32 0 0.68 0.32 0 0.7 0.32 0 0.72 0.32 0 0.74 0.32 0 0.76 0.32 0 0.78 0.32 0 0.8 0.32 0 0.82 0.32 0 0.84 0.32 0 0.86 0.32 0 0.88 0.32 0 0.9 0.32 0 0.92 0.32 0 0.94 0.
[...]
			<PointData Scalars="VitesseX">
				<DataArray Name="VitesseX" type="Float32" format="ascii">
 0 0 0 0 0 0 0 0 0 0 0 0 0 0 0 0 0 0 0 0 0 0 0 0 0 0 0 0 0 0 0 0 0 0 0 0 0 0 0 0 0 0 0 0 0 0 0 0 0 0 0 0 0.000354763 0.00141326 0.00315905 0.00556414 0.00859058 0.0121905 0.0163072 0.0208757 0.025824 0.0310742 0.0365437 0.0421462 0.0477932 0.0533961 0.0588674 0.0641205 0.0690727 0.073646 0.0777684 0.0813748 0.0844084 0.0868212 0.088575 0.08965 0.0900044 0.0896559 0.0886059 0.086856 0.0844526 0.0814267 0.0778261 0.0737075 0.0691359 0.0641833 0.0589281 0.053453 0.0478446 0.0421917 0.036583 0.0311068 0.02585 0.0208955 0.0163215 0.0122002 0.00859661 0.00556752 0.00316068 0.00141398 0.000354862 3.84987e-27 0 0.000703651 0.00280237 0.00626348 0.0110302 0.0170269 0.0241583 0.0323118 0.041359 0.0511574 0.0615533 0.0723837 0.0834789 0.094663 0.105763 0.116606 0.127022 0.136847 0.145927 0.15412 0.161295 0.16734 0.172158 0.175674 0.177861 0.178586 0.177948 0.175918 0.172476 0.167744 0.16177 0.154648 0.146491 0.137427 0.127599 0.117163 0.106285 0.0951363 0.083897 0.0727426 0.0618495 0.0513922 0.0415368 0.0324393 0.0242437 0.0170792 0.0110587 0.0062765 0.00280716 0.000704292 7.63852e-27 0 0.0010412 0.00414571 0.00926523 0.016314 0.0251795 0.0357206 0.0477706 0.0611396 0.0756176 0.0909782 0.106981 0.123377 0.139905 0.156312 0.172347 0.187756 0.202298 0.215746 0.227889 0.238534 0.247515 0.254688 0.259938 0.263246 0.264344 0.263467 0.260516 0.255453 0.248488 0.239679 0.229162 0.217104 0.203694 0.189145 0.173688 0.15757 0.141046 0.124384 0.107846 0.0916913 0.076183 0.0615676 0.0480773 0.0359259 0.0253053 0.0163823 0.00929627 0.00415697 0.0010427 1.13061e-26 0 0.0013621 0.00542217 0.012117 0.0213322 0.0329201 0.0466954 0.06244 0.079906 0.0988195 0.118885 0.139791 0.161212 0.182807 0.204249 0.225212 0.245365 0.264394 0.282001 0.297912 0.311876 0.323671 0.33311 0.340039 0.344458 0.345926 0.344867 0.34107 0.33449 0.325427 0.313941 0.300212 0.284453 0.266914 0.247873 0.227634 0.20652 0.184868 0.163031 0.141352 0.120173 0.0998399 0.0806784 0.0629934 0.0470657 0.0331468 0.0214552 0.0121728 0.00544224 0.00136478 1.47949e-26 0 0.00166132 0.00661172 0.014774 0.026006 0.0401268 0.0569099 0.0760892 0.0973627 0.120398 0.144835 0.170297 0.196388 0.222693 0.248818 0.274368 0.298941 0.322155 0.343649 0.363086 0.380162 0.394605 0.406185 0.414712 0.420208 0.422044 0.420862 0.416306 0.408339 0.397347 0.383387 0.366676 0.347476 0.32609 0.302858 0.27815 0.252363 0.225911 0.199229 0.172733 0.146845 0.12199 0.0985681 0.0769526 0.0574874 0.0404803 0.0261976 0.0148607 0.0066427 0.00166544 1.80501e-26 0 0.00193414 0.0076957 0.0171944 0.0302618 0.0466861 0.0662032 0.088503 0.113235 0.140012 0.168419 0.198017 0.228349 0.258934 0.289316 0.319041 0.34764 0.374672 0.399716 0.422383 0.442316 0.459198 0.472759 0.482778 0.489298 0.491499 0.490248 0.485035 0.475835 0.463111 0.446918 0.427507 0.40518 0.380289 0.353232 0.32444 0.294377 0.263529 0.232406 0.201494 0.171287 0.142285 0.114955 0.0897347 0.0670268 0.0471899 0.0305345 0.0173176 0.00773942 0.00193995 2.10205e-26 0 0.00217631 0.00865715 0.0193402 0.0340326 0.0524948 0.0744289 0.0994859 0.127272 0.157353 0.189265 0.222515 0.256593 0.290959 0.325105 0.358525 0.390694 0.421115 0.449318 0.474865 0.497354 0.516429 0.531781 0.543159 0.550631 0.553195 0.551924 0.54617 0.535909 0.521681 0.503533 0.481744 0.456653 0.428656 0.3982 0.365773 0.331899 0.297128 0.26204 0.227182 0.193114 0.160403 0.129579 0.101138 0.0755333 0.05317 0.0343976 0.0195048 0.00871509 0.00218398 2.36595e-26 0 0.00238401 0.00948101 0.0211777 0.0372591 0.0574616 0.0814576 0.108865 0.139253 0.172148 0.207043 0.243403 0.280673 0.318262 0.35562 0.392198 0.427421 0.46075 0.491671 0.519703 0.544408 0.565393 0.582317 0.594903 0.603234 0.606161 0.604912 0.598746 0.587613 0.57213 0.552335 0.528528 0.501081 0.470426 0.437052 0.401497 0.364337 0.326179 0.287663 0.24939 0.21198 0.17606 0.142212 0.110983 0.0828726 0.0583261 0.037726 0.0213876 0.00955432 0.0023937 2.59259e-26 0 0.00255399 0.0101544 0.022678 0.0398906 0.0615081 0.0871785 0.116492 0.148988 0.184163 0.221474 0.260353 0.300209 0.340412 0.380379 0.419527 0.457243 0.492951 0.526105 0.556189 0.582734 0.605316 0.623569 0.63719 0.646271 0.649563 0.648369 0.64193 0.630128 0.613661 0.592553 0.567122 0.537763 0.504938 0.469174 0.431047 0.391179 0.350221 0.308869 0.267769 0.227589 0.189007 0.152652 0.119113 0.088929 0.0625768 0.040467 0.0229365 0.0102439 0.00256579 2.7784e-26 0 0.00268361 0.0106669 0.0238175 0.0418857 0.0645708 0.0915015 0.122247 0.156325 0.193208 0.23233 0.273096 0.314892 0.357059 0.39899 0.44008 0.479687 0.51721 0.552076 0.583746 0.611725 0.635566 0.654883 0.669351 0.679062 0.682716 0.681604 0.675043 0.662782 0.645618 0.623551 0.596913 0.566117 0.531648 0.494058 0.453956 0.411998 0.368876 0.325323 0.282027 0.239693 0.19904 0.160735 0.125401 0.0936068 0.065855 0.0425775 0.024127 0.0107729 0.00269754 2.92048e-26 0 0.00277125 0.0110136 0.024589 0.0432368 0.066645 0.094429 0.126144 0.161292 0.199329 0.239674 0.281715 0.324822 0.368317 0.411578 0.453983 0.494873 0.533628 0.569658 0.602406 0.631358 0.656052 0.676085 0.691118 0.701244 0.705113 0.704092 0.697561 0.68506 0.667494 0.644839 0.617432 0.585697 0.550132 0.51131 0.469861 0.426467 0.381847 0.336765 0.291939 0.2481 0.206 0.166333 0.129747 0.0968318 0.0681089 0.0440241 0.0249402 0.0111329 0.00278689 3.01662e-26 0 0.00281384 0.0111762 0.0249383 0.0438283 0.0675243 0.0956339 0.127706 0.163236 0.201679 0.242452 0.284942 0.328517 0.372506 0.416278 0.459221 0.500672 0.540011 0.576645 0.610012 0.639593 0.664917 0.68557 0.701199 0.711841 0.71635 0.715529 0.709345 0.696915 0.679341 0.656549 0.628876 0.596746 0.560667 0.521221 0.479053 0.434864 0.389391 0.343421 0.297697 0.252968 0.210009 0.169534 0.13221 0.0986388 0.0693553 0.0448121 0.0253758 0.0113222 0.00283291 3.0653e-26 0 0.0028138 0.0111757 0.024936 0.0438213 0.0675086 0.0956041 0.127655 0.16316 0.201571 0.242307 0.28476 0.328301 0.37226 0.41601 0.458941 0.500392 0.539745 0.576403 0.609805 0.639428 0.664796 0.685491 0.701157 0.711825 0.716349 0.715531 0.709358 0.696947 0.679398 0.656633 0.628987 0.596881 0.560822 0.521388 0.479225 0.435031 0.389547 0.343559 0.297813 0.253061 0.21008 0.169584 0.132242 0.0986582 0.0693654 0.0448166 0.0253774 0.0113225 0.00283293 3.06578e-26 0 0.00276788 0.0109872 0.0245018 0.0430363 0.0662679 0.0938069 0.125209 0.159981 0.197591 0.237475 0.279042 0.321684 0.364755 0.407644 0.449765 0.490477 0.529178 0.565289 0.59826 0.627577 0.652771 0.673424 0.689178 0.699998 0.705008 0.704476 0.699143 0.687351 0.670504 0.648446 0.621498 0.590068 0.554656 0.515834 0.474246 0.43059 0.385608 0.340089 0.294787 0.250451 0.207863 0.167742 0.130754 0.0975015 0.0685149 0.04424 0.025034 0.0111613 0.00279046 3.01804e-26 0 0.00267872 0.0106284 0.0236901 0.0415919 0.0640172 0.0905862 0.120868 0.154389 0.190638 0.229075 0.269137 0.310243 0.351781 0.393164 0.433837 0.473188 0.51064 0.545637 0.57765 0.606179 0.630767 0.651004 0.666535 0.677268 0.682574 0.682154 0.677247 0.665983 0.649831 0.628612 0.60263 0.572278 0.538034 0.500455 0.460164 0.417841 0.374208 0.330036 0.286064 0.243021 0.201675 0.162724 0.126819 0.0945478 0.066424 0.0428792 0.0242577 0.0108123 0.00270248 2.92284e-26 0 0.00254723 0.0101013 0.0225018 0.0394844 0.0607428 0.0859134 0.114586 0.146313 0.180613 0.216979 0.254885 0.293789 0.333125 0.372336 0.41091 0.448273 0.483885 0.517222 0.547781 0.575088 0.598704 0.61823 0.633322 0.643823 0.649384 0.649161 0.644977 0.634545 0.619466 0.599519 0.574985 0.546233 0.513715 0.477964 0.439575 0.399203 0.357544 0.31534 0.273311 0.232158 0.192623 0.155381 0.121059 0.0902204 0.0633575 0.040881 0.0231158 0.0102979 0.00257257 2.78167e-26 0 0.00237548 0.00941392 0.0209554 0.0367467 0.0564964 0.0798622 0.106462 0.13588 0.167674 0.201378 0.236513 0.272585 0.309082 0.345489 0.381347 0.416129 0.449339 0.480495 0.50913 0.5348 0.557091 0.575625 0.590068 0.600201 0.605966 0.605971 0.602605 0.593198 0.579454 0.561112 0.538426 0.511735 0.48146 0.448098 0.41221 0.374416 0.335374 0.295787 0.256346 0.217715 0.180598 0.145636 0.113424 0.0844931 0.0593058 0.0382455 0.0216127 0.00962217 0.00240221 2.59674e-26 0 0.00216614 0.00857717 0.0190753 0.0334219 0.0513447 0.0725281 0.0966233 0.123254 0.152024 0.182518 0.214311 0.246964 0.280031 0.31305 0.345617 0.377264 0.40755 0.436039 0.46231 0.485955 0.506592 0.523867 0.537462 0.547104 0.552996 0.553278 0.550803 0.542601 0.53043 0.514001 0.493535 0.469334 0.441782 0.411332 0.378504 0.343872 0.308049 0.271687 0.235439 0.199921 0.165789 0.133644 0.104035 0.0774565 0.0543328 0.0350142 0.0197719 0.00879565 0.0021941 2.37095e-26 0 0.0019225 0.00760407 0.016891 0.0295624 0.0453689 0.0640265 0.0852253 0.108635 0.133912 0.160698 0.188629 0.217333 0.246433 0.27553 0.304284 0.332294 0.359179 0.384559 0.408063 0.429328 0.448008 0.463777 0.47634 0.485434 0.491147 0.492141 0.490228 0.48361 0.473174 0.458935 0.441023 0.419702 0.395309 0.368249 0.338991 0.308055 0.276001 0.243422 0.21092 0.179056 0.148432 0.119593 0.0930409 0.0692217 0.0485171 0.0312383 0.0176226 0.00783141 0.00195151 2.10783e-26 0 0.00164839 0.00650986 0.0144368 0.0252289 0.0386632 0.0544914 0.0724477 0.0922536 0.113622 0.136261 0.159872 0.184158 0.208816 0.233524 0.258002 0.281929 0.30499 0.326868 0.347246 0.365813 0.382264 0.396306 0.407667 0.416102 0.421573 0.423312 0.422004 0.417104 0.408591 0.396784 0.381723 0.363624 0.342776 0.31953 0.294295 0.267532 0.239738 0.211439 0.183177 0.155452 0.128799 0.103706 0.0806149 0.0599189 0.0419506 0.0269774 0.0151987 0.00674468 0.00167826 1.8115e-26 0 0.00134808 0.00531169 0.0117513 0.0204895 0.031333 0.044073 0.0584918 0.0743671 0.0914749 0.109592 0.128495 0.147963 0.167773 0.187692 0.207499 0.226963 0.245838 0.263876 0.280821 0.296415 0.3104 0.322519 0.332529 0.340204 0.345399 0.347828 0.34725 0.344116 0.337701 0.32853 0.316569 0.301987 0.285014 0.265945 0.245124 0.222944 0.199833 0.176243 0.152648 0.129481 0.107203 0.0862337 0.0669535 0.0496951 0.034737 0.0222988 0.0125384 0.0055526 0.00137867 1.48663e-26 0 0.00102632 0.00402833 0.00887675 0.0154188 0.0234938 0.0329354 0.0435775 0.0552577 0.0678192 0.081112 0.0949918 0.109318 0.123953 0.138755 0.153573 0.168262 0.182656 0.196576 0.209833 0.222226 0.233546 0.243579 0.25211 0.258934 0.263859 0.266801 0.267232 0.265735 0.261641 0.255249 0.246591 0.235761 0.222934 0.208339 0.192252 0.174993 0.156915 0.138391 0.119816 0.101553 0.0839833 0.0674526 0.0522725 0.0387116 0.0269902 0.0172762 0.00968383 0.00427398 0.00105745 1.1383e-26 0 0.000688136 0.00267994 0.0058584 0.0100968 0.0152691 0.021254 0.0279397 0.0352264 0.0430277 0.0512697 0.0598896 0.0688325 0.0780465 0.0874789 0.0970708 0.106752 0.116436 0.126026 0.135398 0.144413 0.152913 0.160727 0.167674 0.17357 0.178238 0.181485 0.183247 0.183176 0.18161 0.178094 0.172888 0.16599 0.157514 0.14762 0.136514 0.124437 0.111662 0.0984805 0.0851985 0.0721104 0.0595073 0.047659 0.0368037 0.0271419 0.0188324 0.011989 0.00667991 0.002929 0.000719667 7.71985e-27 0 0.000338869 0.00128777 0.00274394 0.00460772 0.00678964 0.00921517 0.0118285 0.0145943 0.017498 0.0205441 0.023753 0.0271564 0.0307914 0.0346947 0.0388957 0.0434108 0.0482379 0.0533519 0.0587023 0.0642119 0.069776 0.0752697 0.0805491 0.0854549 0.0898232 0.0934605 0.0962405 0.0980438 0.0987419 0.0982746 0.0966322 0.0937711 0.0897827 0.0847451 0.0787874 0.0720719 0.0647869 0.057139 0.0493441 0.0416169 0.0341611 0.0271653 0.0207911 0.0151685 0.0103924 0.00652062 0.00357406 0.00153887 0.000370641 3.93448e-27 0 -1.58755e-05 -0.000125505 -0.000415255 -0.000957204 -0.00180319 -0.00298018 -0.00448731 -0.00629476 -0.00834462 -0.0105537 -0.0128178 -0.0150183 -0.0170285 -0.018722 -0.0199807 -0.0207019 -0.0208054 -0.0202392 -0.0189836 -0.0170525 -0.0144944 -0.0113901 -0.00784889 -0.00400276 8.75123e-09 0.00400279 0.0078489 0.0113901 0.0144943 0.0170523 0.0189834 0.0202391 0.0208052 0.0207018 0.0199807 0.0187221 0.0170285 0.0150183 0.0128178 0.0105537 0.00834461 0.00629476 0.00448737 0.00298024 0.00180321 0.000957205 0.000415255 0.000125505 1.58755e-05 8.64603e-29 0 -0.000370641 -0.00153887 -0.00357406 -0.00652061 -0.0103923 -0.0151684 -0.020791 -0.0271653 -0.0341611 -0.0416169 -0.0493441 -0.057139 -0.0647869 -0.0720718 -0.0787878 -0.0847456 -0.0897828 -0.0937712 -0.0966323 -0.0982748 -0.098742 -0.0980438 -0.0962405 -0.0934605 -0.0898232 -0.0854549 -0.080549 -0.0752696 -0.069776 -0.064212 -0.0587025 -0.0533521 -0.0482381 -0.0434109 -0.0388957 -0.0346946 -0.0307914 -0.0271564 -0.023753 -0.0205441 -0.017498 -0.0145943 -0.0118284 -0.00921513 -0.00678962 -0.00460772 -0.00274394 -0.00128777 -0.000338869 -3.76359e-27 0 -0.000719667 -0.002929 -0.00667991 -0.011989 -0.0188324 -0.0271418 -0.0368036 -0.0476591 -0.0595073 -0.0721104 -0.0851985 -0.0984805 -0.111662 -0.124437 -0.136514 -0.147621 -0.157515 -0.16599 -0.172888 -0.178095 -0.18161 -0.183176 -0.183247 -0.181485 -0.178238 -0.17357 -0.167674 -0.160727 -0.152913 -0.144413 -0.135398 -0.126026 -0.116436 -0.106752 -0.0970708 -0.0874789 -0.0780465 -0.0688325 -0.0598896 -0.0512697 -0.0430277 -0.0352264 -0.0279397 -0.021254 -0.0152691 -0.0100968 -0.0058584 -0.00267994 -0.000688136 -7.55496e-27 0 -0.00105745 -0.00427398 -0.00968383 -0.0172762 -0.0269902 -0.0387115 -0.0522725 -0.0674527 -0.0839834 -0.101553 -0.119816 -0.138391 -0.156915 -0.174993 -0.192252 -0.208339 -0.222935 -0.235761 -0.246591 -0.25525 -0.261641 -0.265735 -0.267232 -0.266801 -0.263859 -0.258934 -0.25211 -0.243579 -0.233546 -0.222226 -0.209833 -0.196576 -0.182656 -0.168262 -0.153573 -0.138755 -0.123953 -0.109318 -0.0949918 -0.081112 -0.0678192 -0.0552577 -0.0435775 -0.0329353 -0.0234937 -0.0154188 -0.00887675 -0.00402833 -0.00102632 -1.12278e-26 0 -0.00137867 -0.0055526 -0.0125384 -0.0222988 -0.034737 -0.049695 -0.0669535 -0.0862338 -0.107203 -0.129481 -0.152648 -0.176243 -0.199832 -0.222944 -0.245123 -0.265944 -0.285014 -0.301987 -0.316569 -0.32853 -0.337701 -0.344116 -0.34725 -0.347828 -0.345399 -0.340204 -0.332529 -0.322519 -0.3104 -0.296415 -0.280821 -0.263876 -0.245838 -0.226963 -0.207499 -0.187692 -0.167773 -0.147963 -0.128495 -0.109592 -0.0914749 -0.0743671 -0.0584918 -0.044073 -0.0313329 -0.0204895 -0.0117513 -0.00531169 -0.00134808 -1.4724e-26 0 -0.00167826 -0.00674468 -0.0151987 -0.0269774 -0.0419506 -0.0599189 -0.0806149 -0.103706 -0.1288 -0.155452 -0.183177 -0.211439 -0.239738 -0.267532 -0.294295 -0.319529 -0.342776 -0.363624 -0.381723 -0.396784 -0.408591 -0.417104 -0.422004 -0.423312 -0.421573 -0.416102 -0.407667 -0.396306 -0.382264 -0.365814 -0.347246 -0.326868 -0.30499 -0.281929 -0.258002 -0.233524 -0.208816 -0.184158 -0.159872 -0.136261 -0.113622 -0.0922536 -0.0724477 -0.0544914 -0.0386631 -0.0252289 -0.0144368 -0.00650986 -0.00164839 -1.79884e-26 0 -0.00195151 -0.00783141 -0.0176226 -0.0312383 -0.0485171 -0.0692217 -0.0930409 -0.119593 -0.148432 -0.179056 -0.21092 -0.243422 -0.276001 -0.308055 -0.338991 -0.368249 -0.395309 -0.419702 -0.441023 -0.458935 -0.473174 -0.48361 -0.490228 -0.492141 -0.491147 -0.485434 -0.47634 -0.463777 -0.448008 -0.429328 -0.408063 -0.384559 -0.359179 -0.332294 -0.304284 -0.27553 -0.246433 -0.217333 -0.188629 -0.160698 -0.133912 -0.108636 -0.0852253 -0.0640265 -0.0453689 -0.0295624 -0.016891 -0.00760407 -0.0019225 -2.09691e-26 0 -0.0021941 -0.00879565 -0.0197719 -0.0350142 -0.0543328 -0.0774565 -0.104035 -0.133644 -0.165789 -0.199921 -0.235439 -0.271687 -0.308049 -0.343872 -0.378504 -0.411332 -0.441782 -0.469334 -0.493535 -0.514001 -0.53043 -0.542601 -0.550803 -0.553278 -0.552996 -0.547104 -0.537462 -0.523867 -0.506592 -0.485955 -0.46231 -0.436039 -0.40755 -0.377264 -0.345617 -0.31305 -0.280031 -0.246964 -0.214311 -0.182518 -0.152024 -0.123255 -0.0966233 -0.0725281 -0.0513447 -0.0334219 -0.0190753 -0.00857717 -0.00216614 -2.3619e-26 0 -0.00240221 -0.00962217 -0.0216127 -0.0382455 -0.0593058 -0.0844931 -0.113424 -0.145636 -0.180598 -0.217715 -0.256347 -0.295787 -0.335374 -0.374415 -0.41221 -0.448098 -0.48146 -0.511735 -0.538426 -0.561112 -0.579454 -0.593198 -0.602605 -0.605971 -0.605966 -0.600201 -0.590068 -0.575625 -0.557091 -0.5348 -0.50913 -0.480495 -0.44934 -0.416129 -0.381347 -0.345489 -0.309082 -0.272585 -0.236513 -0.201378 -0.167674 -0.13588 -0.106462 -0.0798622 -0.0564963 -0.0367467 -0.0209554 -0.00941392 -0.00237548 -2.5896e-26 0 -0.00257257 -0.0102979 -0.0231158 -0.040881 -0.0633575 -0.0902204 -0.121059 -0.155381 -0.192623 -0.232158 -0.273311 -0.31534 -0.357544 -0.399203 -0.439575 -0.477964 -0.513715 -0.546233 -0.574985 -0.599519 -0.619466 -0.634545 -0.644977 -0.649161 -0.649384 -0.643823 -0.633322 -0.61823 -0.598704 -0.575088 -0.547781 -0.517222 -0.483885 -0.448273 -0.41091 -0.372336 -0.333125 -0.293789 -0.254885 -0.216979 -0.180613 -0.146313 -0.114586 -0.0859134 -0.0607428 -0.0394844 -0.0225018 -0.0101013 -0.00254723 -2.77639e-26 0 -0.00270248 -0.0108123 -0.0242577 -0.0428792 -0.066424 -0.0945478 -0.126819 -0.162724 -0.201675 -0.243022 -0.286064 -0.330036 -0.374208 -0.417841 -0.460164 -0.500455 -0.538034 -0.572278 -0.60263 -0.628612 -0.649831 -0.665983 -0.677247 -0.682154 -0.682574 -0.677269 -0.666535 -0.651004 -0.630767 -0.606179 -0.57765 -0.545637 -0.51064 -0.473188 -0.433837 -0.393164 -0.351781 -0.310243 -0.269137 -0.229075 -0.190638 -0.154389 -0.120868 -0.0905862 -0.0640172 -0.0415919 -0.0236901 -0.0106284 -0.00267872 -2.91931e-26 0 -0.00279046 -0.0111613 -0.025034 -0.04424 -0.0685149 -0.0975015 -0.130754 -0.167742 -0.207863 -0.250451 -0.294787 -0.340089 -0.385608 -0.43059 -0.474246 -0.515834 -0.554656 -0.590068 -0.621498 -0.648446 -0.670504 -0.687351 -0.699143 -0.704476 -0.705008 -0.699998 -0.689178 -0.673424 -0.652771 -0.627577 -0.59826 -0.565289 -0.529178 -0.490477 -0.449765 -0.407644 -0.364755 -0.321684 -0.279042 -0.237475 -0.197591 -0.159981 -0.125209 -0.0938069 -0.0662679 -0.0430362 -0.0245018 -0.0109872 -0.00276788 -3.01609e-26 0 -0.00283293 -0.0113225 -0.0253774 -0.0448166 -0.0693654 -0.0986581 -0.132242 -0.169584 -0.21008 -0.253061 -0.297814 -0.34356 -0.389547 -0.435031 -0.479225 -0.521388 -0.560822 -0.596881 -0.628987 -0.656633 -0.679398 -0.696948 -0.709358 -0.715531 -0.716349 -0.711825 -0.701157 -0.685491 -0.664796 -0.639428 -0.609805 -0.576403 -0.539745 -0.500392 -0.458941 -0.41601 -0.37226 -0.328301 -0.28476 -0.242307 -0.201571 -0.16316 -0.127655 -0.0956041 -0.0675086 -0.0438213 -0.024936 -0.0111757 -0.0028138 -3.06517e-26 0 -0.00283291 -0.0113222 -0.0253758 -0.0448121 -0.0693553 -0.0986388 -0.132209 -0.169534 -0.210009 -0.252968 -0.297697 -0.343421 -0.389391 -0.434864 -0.479053 -0.521221 -0.560667 -0.596746 -0.628876 -0.656549 -0.679341 -0.696915 -0.709345 -0.715529 -0.71635 -0.711841 -0.701199 -0.68557 -0.664918 -0.639593 -0.610012 -0.576645 -0.540011 -0.500672 -0.459221 -0.416278 -0.372506 -0.328517 -0.284942 -0.242452 -0.201679 -0.163236 -0.127706 -0.0956339 -0.0675243 -0.0438283 -0.0249383 -0.0111762 -0.00281384 -3.06578e-26 0 -0.00278689 -0.0111329 -0.0249402 -0.0440241 -0.0681089 -0.0968318 -0.129747 -0.166333 -0.206 -0.2481 -0.291939 -0.336765 -0.381846 -0.426467 -0.469861 -0.51131 -0.550132 -0.585697 -0.617432 -0.644839 -0.667494 -0.68506 -0.697561 -0.704092 -0.705113 -0.701244 -0.691118 -0.676085 -0.656053 -0.631358 -0.602406 -0.569658 -0.533628 -0.494873 -0.453983 -0.411578 -0.368317 -0.324822 -0.281715 -0.239674 -0.199329 -0.161292 -0.126144 -0.094429 -0.066645 -0.0432368 -0.024589 -0.0110136 -0.00277125 -3.01791e-26 0 -0.00269754 -0.0107729 -0.024127 -0.0425775 -0.065855 -0.0936067 -0.125401 -0.160735 -0.19904 -0.239693 -0.282027 -0.325323 -0.368875 -0.411998 -0.453956 -0.494058 -0.531648 -0.566117 -0.596913 -0.623551 -0.645618 -0.662782 -0.675043 -0.681605 -0.682716 -0.679062 -0.669352 -0.654883 -0.635567 -0.611725 -0.583746 -0.552076 -0.51721 -0.479687 -0.44008 -0.39899 -0.357059 -0.314892 -0.273096 -0.23233 -0.193208 -0.156325 -0.122247 -0.0915015 -0.0645708 -0.0418857 -0.0238175 -0.0106669 -0.00268361 -2.92231e-26 0 -0.00256579 -0.0102439 -0.0229365 -0.040467 -0.0625768 -0.088929 -0.119113 -0.152652 -0.189007 -0.227589 -0.267769 -0.308869 -0.350221 