<?xml version="1.0"?>
<VTKFile type="PolyData">
	<PolyData>
		<Piece NumberOfPoints="2601" NumberOfPolys="2500">
			<Points>
				<DataArray type="Float32" NumberOfComponents="3" format="ascii">
 0 0 0 0.02 0 0 0.04 0 0 0.06 0 0 0.08 0 0 0.1 0 0 0.12 0 0 0.14 0 0 0.16 0 0 0.18 0 0 0.2 0 0 0.22 0 0 0.24 0 0 0.26 0 0 0.28 0 0 0.3 0 0 0.32 0 0 0.34 0 0 0.36 0 0 0.38 0 0 0.4 0 0 0.42 0 0 0.44 0 0 0.46 0 0 0.48 0 0 0.5 0 0 0.52 0 0 0.54 0 0 0.56 0 0 0.58 0 0 0.6 0 0 0.62 0 0 0.64 0 0 0.66 0 0 0.68 0 0 0.7 0 0 0.72 0 0 0.74 0 0 0.76 0 0 0.78 0 0 0.8 0 0 0.82 0 0 0.84 0 0 0.86 0 0 0.88 0 0 0.9 0 0 0.92 0 0 0.94 0 0 0.96 0 0 0.98 0 0 1 0 0 0 0.02 0 0.02 0.02 0 0.04 0.02 0 0.06 0.02 0 0.08 0.02 0 0.1 0.02 0 0.12 0.02 0 0.14 0.02 0 0.16 0.02 0 0.18 0.02 0 0.2 0.02 0 0.22 0.02 0 0.24 0.02 0 0.26 0.02 0 0.28 0.02 0 0.3 0.02 0 0.32 0.02 0 0.34 0.02 0 0.36 0.02 0 0.38 0.02 0 0.4 0.02 0 0.42 0.02 0 0.44 0.02 0 0.46 0.02 0 0.48 0.02 0 0.5 0.02 0 0.52 0.02 0 0.54 0.02 0 0.56 0.02 0 0.58 0.02 0 0.6 0.02 0 0.62 0.02 0 0.64 0.02 0 0.66 0.02 0 0.68 0.02 0 0.7 0.02 0 0.72 0.02 0 0.74 0.02 0 0.76 0.02 0 0.78 0.02 0 0.8 0.02 0 0.82 0.02 0 0.84 0.02 0 0.86 0.02 0 0.88 0.02 0 0.9 0.02 0 0.92 0.02 0 0.94 0.02 0 0.96 0.02 0 0.98 0.02 0 1 0.02 0 0 0.04 0 0.02 0.04 0 0.04 0.04 0 0.06 0.04 0 0.08 0.04 0 0.1 0.04 0 0.12 0.04 0 0.14 0.04 0 0.16 0.04 0 0.18 0.04 0 0.2 0.04 0 0.22 0.04 0 0.24 0.04 0 0.26 0.04 0 0.28 0.04 0 0.3 0.04 0 0.32 0.04 0 0.34 0.04 0 0.36 0.04 0 0.38 0.04 0 0.4 0.04 0 0.42 0.04 0 0.44 0.04 0 0.46 0.04 0 0.48 0.04 0 0.5 0.04 0 0.52 0.04 0 0.54 0.04 0 0.56 0.04 0 0.58 0.04 0 0.6 0.04 0 0.62 0.04 0 0.64 0.04 0 0.66 0.04 0 0.68 0.04 0 0.7 0.04 0 0.72 0.04 0 0.74 0.04 0 0.76 0.04 0 0.78 0.04 0 0.8 0.04 0 0.82 0.04 0 0.84 0.04 0 0.86 0.04 0 0.88 0.04 0 0.9 0.04 0 0.92 0.04 0 0.94 0.04 0 0.96 0.04 0 0.98 0.04 0 1 0.04 0 0 0.06 0 0.02 0.06 0 0.04 0.06 0 0.06 0.06 0 0.08 0.06 0 0.1 0.06 0 0.12 0.06 0 0.14 0.06 0 0.16 0.06 0 0.18 0.06 0 0.2 0.06 0 0.22 0.06 0 0.24 0.06 0 0.26 0.06 0 0.28 0.06 0 0.3 0.06 0 0.32 0.06 0 0.34 0.06 0 0.36 0.06 0 0.38 0.06 0 0.4 0.06 0 0.42 0.06 0 0.44 0.06 0 0.46 0.06 0 0.48 0.06 0 0.5 0.06 0 0.52 0.06 0 0.54 0.06 0 0.56 0.06 0 0.58 0.06 0 0.6 0.06 0 0.62 0.06 0 0.64 0.06 0 0.66 0.06 0 0.68 0.06 0 0.7 0.06 0 0.72 0.06 0 0.74 0.06 0 0.76 0.06 0 0.78 0.06 0 0.8 0.06 0 0.82 0.06 0 0.84 0.06 0 0.86 0.06 0 0.88 0.06 0 0.9 0.06 0 0.92 0.06 0 0.94 0.06 0 0.96 0.06 0 0.98 0.06 0 1 0.06 0 0 0.08 0 0.02 0.08 0 0.04 0.08 0 0.06 0.08 0 0.08 0.08 0 0.1 0.08 0 0.12 0.08 0 0.14 0.08 0 0.16 0.08 0 0.18 0.08 0 0.2 0.08 0 0.22 0.08 0 0.24 0.08 0 0.26 0.08 0 0.28 0.08 0 0.3 0.08 0 0.32 0.08 0 0.34 0.08 0 0.36 0.08 0 0.38 0.08 0 0.4 0.08 0 0.42 0.08 0 0.44 0.08 0 0.46 0.08 0 0.48 0.08 0 0.5 0.08 0 0.52 0.08 0 0.54 0.08 0 0.56 0.08 0 0.58 0.08 0 0.6 0.08 0 0.62 0.08 0 0.64 0.08 0 0.66 0.08 0 0.68 0.08 0 0.7 0.08 0 0.72 0.08 0 0.74 0.08 0 0.76 0.08 0 0.78 0.08 0 0.8 0.08 0 0.82 0.08 0 0.84 0.08 0 0.86 0.08 0 0.88 0.08 0 0.9 0.08 0 0.92 0.08 0 0.94 0.08 0 0.96 0.08 0 0.98 0.08 0 1 0.08 0 0 0.1 0 0.02 0.1 0 0.04 0.1 0 0.06 0.1 0 0.08 0.1 0 0.1 0.1 0 0.12 0.1 0 0.14 0.1 0 0.16 0.1 0 0.18 0.1 0 0.2 0.1 0 0.22 0.1 0 0.24 0.1 0 0.26 0.1 0 0.28 0.1 0 0.3 0.1 0 0.32 0.1 0 0.34 0.1 0 0.36 0.1 0 0.38 0.1 0 0.4 0.1 0 0.42 0.1 0 0.44 0.1 0 0.46 0.1 0 0.48 0.1 0 0.5 0.1 0 0.52 0.1 0 0.54 0.1 0 0.56 0.1 0 0.58 0.1 0 0.6 0.1 0 0.62 0.1 0 0.64 0.1 0 0.66 0.1 0 0.68 0.1 0 0.7 0.1 0 0.72 0.1 0 0.74 0.1 0 0.76 0.1 0 0.78 0.1 0 0.8 0.1 0 0.82 0.1 0 0.84 0.1 0 0.86 0.1 0 0.88 0.1 0 0.9 0.1 0 0.92 0.1 0 0.94 0.1 0 0.96 0.1 0 0.98 0.1 0 1 0.1 0 0 0.12 0 0.02 0.12 0 0.04 0.12 0 0.06 0.12 0 0.08 0.12 0 0.1 0.12 0 0.12 0.12 0 0.14 0.12 0 0.16 0.12 0 0.18 0.12 0 0.2 0.12 0 0.22 0.12 0 0.24 0.12 0 0.26 0.12 0 0.28 0.12 0 0.3 0.12 0 0.32 0.12 0 0.34 0.12 0 0.36 0.12 0 0.38 0.12 0 0.4 0.12 0 0.42 0.12 0 0.44 0.12 0 0.46 0.12 0 0.48 0.12 0 0.5 0.12 0 0.52 0.12 0 0.54 0.12 0 0.56 0.12 0 0.58 0.12 0 0.6 0.12 0 0.62 0.12 0 0.64 0.12 0 0.66 0.12 0 0.68 0.12 0 0.7 0.12 0 0.72 0.12 0 0.74 0.12 0 0.76 0.12 0 0.78 0.12 0 0.8 0.12 0 0.82 0.12 0 0.84 0.12 0 0.86 0.12 0 0.88 0.12 0 0.9 0.12 0 0.92 0.12 0 0.94 0.12 0 0.96 0.12 0 0.98 0.12 0 1 0.12 0 0 0.14 0 0.02 0.14 0 0.04 0.14 0 0.06 0.14 0 0.08 0.14 0 0.1 0.14 0 0.12 0.14 0 0.14 0.14 0 0.16 0.14 0 0.18 0.14 0 0.2 0.14 0 0.22 0.14 0 0.24 0.14 0 0.26 0.14 0 0.28 0.14 0 0.3 0.14 0 0.32 0.14 0 0.34 0.14 0 0.36 0.14 0 0.38 0.14 0 0.4 0.14 0 0.42 0.14 0 0.44 0.14 0 0.46 0.14 0 0.48 0.14 0 0.5 0.14 0 0.52 0.14 0 0.54 0.14 0 0.56 0.14 0 0.58 0.14 0 0.6 0.14 0 0.62 0.14 0 0.64 0.14 0 0.66 0.14 0 0.68 0.14 0 0.7 0.14 0 0.72 0.14 0 0.74 0.14 0 0.76 0.14 0 0.78 0.14 0 0.8 0.14 0 0.82 0.14 0 0.84 0.14 0 0.86 0.14 0 0.88 0.14 0 0.9 0.14 0 0.92 0.14 0 0.94 0.14 0 0.96 0.14 0 0.98 0.14 0 1 0.14 0 0 0.16 0 0.02 0.16 0 0.04 0.16 0 0.06 0.16 0 0.08 0.16 0 0.1 0.16 0 0.12 0.16 0 0.14 0.16 0 0.16 0.16 0 0.18 0.16 0 0.2 0.16 0 0.22 0.16 0 0.24 0.16 0 0.26 0.16 0 0.28 0.16 0 0.3 0.16 0 0.32 0.16 0 0.34 0.16 0 0.36 0.16 0 0.38 0.16 0 0.4 0.16 0 0.42 0.16 0 0.44 0.16 0 0.46 0.16 0 0.48 0.16 0 0.5 0.16 0 0.52 0.16 0 0.54 0.16 0 0.56 0.16 0 0.58 0.16 0 0.6 0.16 0 0.62 0.16 0 0.64 0.16 0 0.66 0.16 0 0.68 0.16 0 0.7 0.16 0 0.72 0.16 0 0.74 0.16 0 0.76 0.16 0 0.78 0.16 0 0.8 0.16 0 0.82 0.16 0 0.84 0.16 0 0.86 0.16 0 0.88 0.16 0 0.9 0.16 0 0.92 0.16 0 0.94 0.16 0 0.96 0.16 0 0.98 0.16 0 1 0.16 0 0 0.18 0 0.02 0.18 0 0.04 0.18 0 0.06 0.18 0 0.08 0.18 0 0.1 0.18 0 0.12 0.18 0 0.14 0.18 0 0.16 0.18 0 0.18 0.18 0 0.2 0.18 0 0.22 0.18 0 0.24 0.18 0 0.26 0.18 0 0.28 0.18 0 0.3 0.18 0 0.32 0.18 0 0.34 0.18 0 0.36 0.18 0 0.38 0.18 0 0.4 0.18 0 0.42 0.18 0 0.44 0.18 0 0.46 0.18 0 0.48 0.18 0 0.5 0.18 0 0.52 0.18 0 0.54 0.18 0 0.56 0.18 0 0.58 0.18 0 0.6 0.18 0 0.62 0.18 0 0.64 0.18 0 0.66 0.18 0 0.68 0.18 0 0.7 0.18 0 0.72 0.18 0 0.74 0.18 0 0.76 0.18 0 0.78 0.18 0 0.8 0.18 0 0.82 0.18 0 0.84 0.18 0 0.86 0.18 0 0.88 0.18 0 0.9 0.18 0 0.92 0.18 0 0.94 0.18 0 0.96 0.18 0 0.98 0.18 0 1 0.18 0 0 0.2 0 0.02 0.2 0 0.04 0.2 0 0.06 0.2 0 0.08 0.2 0 0.1 0.2 0 0.12 0.2 0 0.14 0.2 0 0.16 0.2 0 0.18 0.2 0 0.2 0.2 0 0.22 0.2 0 0.24 0.2 0 0.26 0.2 0 0.28 0.2 0 0.3 0.2 0 0.32 0.2 0 0.34 0.2 0 0.36 0.2 0 0.38 0.2 0 0.4 0.2 0 0.42 0.2 0 0.44 0.2 0 0.46 0.2 0 0.48 0.2 0 0.5 0.2 0 0.52 0.2 0 0.54 0.2 0 0.56 0.2 0 0.58 0.2 0 0.6 0.2 0 0.62 0.2 0 0.64 0.2 0 0.66 0.2 0 0.68 0.2 0 0.7 0.2 0 0.72 0.2 0 0.74 0.2 0 0.76 0.2 0 0.78 0.2 0 0.8 0.2 0 0.82 0.2 0 0.84 0.2 0 0.86 0.2 0 0.88 0.2 0 0.9 0.2 0 0.92 0.2 0 0.94 0.2 0 0.96 0.2 0 0.98 0.2 0 1 0.2 0 0 0.22 0 0.02 0.22 0 0.04 0.22 0 0.06 0.22 0 0.08 0.22 0 0.1 0.22 0 0.12 0.22 0 0.14 0.22 0 0.16 0.22 0 0.18 0.22 0 0.2 0.22 0 0.22 0.22 0 0.24 0.22 0 0.26 0.22 0 0.28 0.22 0 0.3 0.22 0 0.32 0.22 0 0.34 0.22 0 0.36 0.22 0 0.38 0.22 0 0.4 0.22 0 0.42 0.22 0 0.44 0.22 0 0.46 0.22 0 0.48 0.22 0 0.5 0.22 0 0.52 0.22 0 0.54 0.22 0 0.56 0.22 0 0.58 0.22 0 0.6 0.22 0 0.62 0.22 0 0.64 0.22 0 0.66 0.22 0 0.68 0.22 0 0.7 0.22 0 0.72 0.22 0 0.74 0.22 0 0.76 0.22 0 0.78 0.22 0 0.8 0.22 0 0.82 0.22 0 0.84 0.22 0 0.86 0.22 0 0.88 0.22 0 0.9 0.22 0 0.92 0.22 0 0.94 0.22 0 0.96 0.22 0 0.98 0.22 0 1 0.22 0 0 0.24 0 0.02 0.24 0 0.04 0.24 0 0.06 0.24 0 0.08 0.24 0 0.1 0.24 0 0.12 0.24 0 0.14 0.24 0 0.16 0.24 0 0.18 0.24 0 0.2 0.24 0 0.22 0.24 0 0.24 0.24 0 0.26 0.24 0 0.28 0.24 0 0.3 0.24 0 0.32 0.24 0 0.34 0.24 0 0.36 0.24 0 0.38 0.24 0 0.4 0.24 0 0.42 0.24 0 0.44 0.24 0 0.46 0.24 0 0.48 0.24 0 0.5 0.24 0 0.52 0.24 0 0.54 0.24 0 0.56 0.24 0 0.58 0.24 0 0.6 0.24 0 0.62 0.24 0 0.64 0.24 0 0.66 0.24 0 0.68 0.24 0 0.7 0.24 0 0.72 0.24 0 0.74 0.24 0 0.76 0.24 0 0.78 0.24 0 0.8 0.24 0 0.82 0.24 0 0.84 0.24 0 0.86 0.24 0 0.88 0.24 0 0.9 0.24 0 0.92 0.24 0 0.94 0.24 0 0.96 0.24 0 0.98 0.24 0 1 0.24 0 0 0.26 0 0.02 0.26 0 0.04 0.26 0 0.06 0.26 0 0.08 0.26 0 0.1 0.26 0 0.12 0.26 0 0.14 0.26 0 0.16 0.26 0 0.18 0.26 0 0.2 0.26 0 0.22 0.26 0 0.24 0.26 0 0.26 0.26 0 0.28 0.26 0 0.3 0.26 0 0.32 0.26 0 0.34 0.26 0 0.36 0.26 0 0.38 0.26 0 0.4 0.26 0 0.42 0.26 0 0.44 0.26 0 0.46 0.26 0 0.48 0.26 0 0.5 0.26 0 0.52 0.26 0 0.54 0.26 0 0.56 0.26 0 0.58 0.26 0 0.6 0.26 0 0.62 0.26 0 0.64 0.26 0 0.66 0.26 0 0.68 0.26 0 0.7 0.26 0 0.72 0.26 0 0.74 0.26 0 0.76 0.26 0 0.78 0.26 0 0.8 0.26 0 0.82 0.26 0 0.84 0.26 0 0.86 0.26 0 0.88 0.26 0 0.9 0.26 0 0.92 0.26 0 0.94 0.26 0 0.96 0.26 0 0.98 0.26 0 1 0.26 0 0 0.28 0 0.02 0.28 0 0.04 0.28 0 0.06 0.28 0 0.08 0.28 0 0.1 0.28 0 0.12 0.28 0 0.14 0.28 0 0.16 0.28 0 0.18 0.28 0 0.2 0.28 0 0.22 0.28 0 0.24 0.28 0 0.26 0.28 0 0.28 0.28 0 0.3 0.28 0 0.32 0.28 0 0.34 0.28 0 0.36 0.28 0 0.38 0.28 0 0.4 0.28 0 0.42 0.28 0 0.44 0.28 0 0.46 0.28 0 0.48 0.28 0 0.5 0.28 0 0.52 0.28 0 0.54 0.28 0 0.56 0.28 0 0.58 0.28 0 0.6 0.28 0 0.62 0.28 0 0.64 0.28 0 0.66 0.28 0 0.68 0.28 0 0.7 0.28 0 0.72 0.28 0 0.74 0.28 0 0.76 0.28 0 0.78 0.28 0 0.8 0.28 0 0.82 0.28 0 0.84 0.28 0 0.86 0.28 0 0.88 0.28 0 0.9 0.28 0 0.92 0.28 0 0.94 0.28 0 0.96 0.28 0 0.98 0.28 0 1 0.28 0 0 0.3 0 0.02 0.3 0 0.04 0.3 0 0.06 0.3 0 0.08 0.3 0 0.1 0.3 0 0.12 0.3 0 0.14 0.3 0 0.16 0.3 0 0.18 0.3 0 0.2 0.3 0 0.22 0.3 0 0.24 0.3 0 0.26 0.3 0 0.28 0.3 0 0.3 0.3 0 0.32 0.3 0 0.34 0.3 0 0.36 0.3 0 0.38 0.3 0 0.4 0.3 0 0.42 0.3 0 0.44 0.3 0 0.46 0.3 0 0.48 0.3 0 0.5 0.3 0 0.52 0.3 0 0.54 0.3 0 0.56 0.3 0 0.58 0.3 0 0.6 0.3 0 0.62 0.3 0 0.64 0.3 0 0.66 0.3 0 0.68 0.3 0 0.7 0.3 0 0.72 0.3 0 0.74 0.3 0 0.76 0.3 0 0.78 0.3 0 0.8 0.3 0 0.82 0.3 0 0.84 0.3 0 0.86 0.3 0 0.88 0.3 0 0.9 0.3 0 0.92 0.3 0 0.94 0.3 0 0.96 0.3 0 0.98 0.3 0 1 0.3 0 0 0.32 0 0.02 0.32 0 0.04 0.32 0 0.06 0.32 0 0.08 0.32 0 0.1 0.32 0 0.12 0.32 0 0.14 0.32 0 0.16 0.32 0 0.18 0.32 0 0.2 0.32 0 0.22 0.32 0 0.24 0.32 0 0.26 0.32 0 0.28 0.32 0 0.3 0.32 0 0.32 0.32 0 0.34 0.32 0 0.36 0.32 0 0.38 0.32 0 0.4 0.32 0 0.42 0.32 0 0.44 0.32 0 0.46 0.32 0 0.48 0.32 0 0.5 0.32 0 0.52 0.32 0 0.54 0.32 0 0.56 0.32 0 0.58 0.32 0 0.6 0.32 0 0.62 0.32 0 0.64 0.32 0 0.66 0.32 0 0.68 0.32 0 0.7 0.32 0 0.72 0.32 0 0.74 0.32 0 0.76 0.32 0 0.78 0.32 0 0.8 0.32 0 0.82 0.32 0 0.84 0.32 0 0.86 0.32 0 0.88 0.32 0 0.9 0.32 0 0.92 0.32 0 0.94 0.
[...]
			<PointData Scalars="VitesseX">
				<DataArray Name="VitesseX" type="Float32" format="ascii">
 0 0 0 0 0 0 0 0 0 0 0 0 0 0 0 0 0 0 0 0 0 0 0 0 0 0 0 0 0 0 0 0 0 0 0 0 0 0 0 0 0 0 0 0 0 0 0 0 0 0 0 0 0.000203317 0.000809996 0.00181055 0.00318905 0.00492375 0.00698726 0.00934703 0.0119658 0.0148024 0.0178121 0.0209474 0.0241589 0.0273959 0.0306076 0.0337435 0.0367541 0.0395919 0.0422123 0.044574 0.0466396 0.0483766 0.0497577 0.0507609 0.0513729 0.0515763 0.0513747 0.0507711 0.0497691 0.0483912 0.0466567 0.0445929 0.0422326 0.0396127 0.0367748 0.0337635 0.0306263 0.0274128 0.0241739 0.0209603 0.0178228 0.014811 0.0119723 0.00935172 0.00699044 0.00492573 0.00319016 0.00181108 0.000810229 0.000203349 2.20617e-27 0 0.000403334 0.0016066 0.00359097 0.00632441 0.00976366 0.0138543 0.0185317 0.0237222 0.0293439 0.0353086 0.0415224 0.0478878 0.0543039 0.0606707 0.0668889 0.0728602 0.0784907 0.0836921 0.0883822 0.0924872 0.0959423 0.0986928 0.100695 0.101927 0.102338 0.101955 0.100776 0.0987971 0.096075 0.0926433 0.0885559 0.0838772 0.0786811 0.0730496 0.0670718 0.0608422 0.0544594 0.0480251 0.0416403 0.0354059 0.0294211 0.0237806 0.0185736 0.0138823 0.00978086 0.00633377 0.00359524 0.00160818 0.000403545 4.37738e-27 0 0.000596913 0.00237736 0.00531347 0.00935729 0.0144446 0.0204947 0.0274121 0.0350877 0.0434008 0.0522207 0.0614093 0.0708224 0.080311 0.0897277 0.0989268 0.107763 0.116097 0.123798 0.130746 0.136831 0.141957 0.146041 0.14902 0.150868 0.151485 0.150938 0.149212 0.146293 0.142276 0.137207 0.131165 0.124245 0.116555 0.108219 0.0993674 0.0901408 0.0806856 0.0711533 0.0616932 0.0524549 0.0435864 0.0352283 0.0275128 0.0205622 0.0144859 0.00937971 0.00532366 0.00238105 0.000597405 6.47935e-27 0 0.000781003 0.00311013 0.00695091 0.0122399 0.0188928 0.026804 0.0358484 0.0458834 0.0567513 0.0682818 0.0802944 0.0926012 0.105007 0.117321 0.129352 0.140911 0.151817 0.161899 0.170999 0.178972 0.185694 0.191056 0.194975 0.197422 0.198242 0.197552 0.195318 0.19151 0.186271 0.179651 0.171754 0.162705 0.152646 0.141736 0.130148 0.118067 0.105684 0.0931987 0.0808069 0.0687046 0.0570864 0.046137 0.0360301 0.0269256 0.0189672 0.0122802 0.00696922 0.00311671 0.000781879 8.47899e-27 0 0.000952707 0.00379338 0.00847751 0.0149268 0.0230382 0.0326826 0.0437075 0.055939 0.0691852 0.0832388 0.0978801 0.112881 0.128003 0.143015 0.157686 0.171784 0.18509 0.197394 0.208504 0.218246 0.226464 0.233028 0.237833 0.240855 0.24187 0.241062 0.238364 0.233736 0.227364 0.219305 0.209684 0.198651 0.186382 0.173071 0.158928 0.144179 0.12906 0.113814 0.0986801 0.0838986 0.0697082 0.0563348 0.0439909 0.0328722 0.0231542 0.0149896 0.00850596 0.00380355 0.000954059 1.03448e-26 0 0.00110933 0.00441639 0.00986923 0.0173757 0.0268155 0.038038 0.0508656 0.0650961 0.0805064 0.0968558 0.113889 0.131342 0.148937 0.166405 0.18348 0.199894 0.215388 0.229723 0.242672 0.254032 0.263624 0.271294 0.276918 0.280479 0.281682 0.280779 0.277672 0.272304 0.26491 0.255545 0.244355 0.231518 0.217234 0.20173 0.185254 0.168067 0.150445 0.132674 0.115031 0.0977975 0.0812527 0.0656608 0.0512699 0.0383083 0.0269808 0.0174652 0.00990966 0.00443074 0.00111123 1.20474e-26 0 0.0012484 0.00496937 0.0111042 0.019548 0.0301651 0.0427857 0.0572099 0.0732103 0.0905365 0.108918 0.128069 0.147693 0.167477 0.187122 0.20633 0.224797 0.242236 0.258376 0.272963 0.285768 0.296588 0.305251 0.311615 0.315669 0.31705 0.316078 0.312621 0.306607 0.298313 0.287798 0.275222 0.260785 0.244713 0.227262 0.20871 0.189353 0.169502 0.14948 0.129602 0.110182 0.0915378 0.0739679 0.0577521 0.0431482 0.0303867 0.0196678 0.0111582 0.00498838 0.00125091 1.35601e-26 0 0.00136773 0.00544362 0.0121629 0.0214095 0.0330343 0.046851 0.0626404 0.0801538 0.0991174 0.119236 0.140197 0.161676 0.183333 0.20484 0.225874 0.246101 0.265209 0.282901 0.298898 0.312951 0.324836 0.334362 0.341375 0.345868 0.347417 0.346399 0.342658 0.336102 0.327049 0.315555 0.301797 0.285991 0.268387 0.249264 0.228927 0.207702 0.185931 0.163969 0.142162 0.120856 0.100401 0.0811251 0.0633354 0.0473154 0.033318 0.0215627 0.0122318 0.00546768 0.00137091 1.48591e-26 0 0.00146546 0.00583172 0.0130288 0.022931 0.035378 0.0501698 0.0670715 0.0858171 0.106114 0.127646 0.15008 0.17307 0.196253 0.219279 0.241803 0.263471 0.283946 0.302911 0.32007 0.335153 0.347921 0.358168 0.365729 0.370597 0.372304 0.371262 0.36731 0.360323 0.350662 0.338378 0.323661 0.306739 0.287882 0.267388 0.245586 0.222825 0.199472 0.175912 0.152514 0.129653 0.107703 0.0870194 0.0679317 0.0507442 0.0357287 0.0231201 0.0131136 0.00586108 0.00146933 1.5924e-26 0 0.00154005 0.00612758 0.0136881 0.0240884 0.0371592 0.0526898 0.0704334 0.0901109 0.111415 0.134015 0.157563 0.181696 0.206034 0.230212 0.253868 0.276631 0.298149 0.31809 0.336143 0.352023 0.365479 0.376295 0.384292 0.389467 0.39132 0.390276 0.386188 0.37889 0.368781 0.355908 0.340468 0.322702 0.30289 0.281349 0.258423 0.234482 0.209912 0.185119 0.160494 0.136432 0.113329 0.0915578 0.0714683 0.0533805 0.0375805 0.0243154 0.0137897 0.00616237 0.00154462 1.6738e-26 0 0.00159046 0.00632765 0.0141342 0.0248717 0.038365 0.0543961 0.07271 0.0930187 0.115005 0.13833 0.162632 0.187539 0.212659 0.237616 0.262038 0.285542 0.307768 0.328369 0.347026 0.363444 0.377363 0.388559 0.396847 0.402223 0.404166 0.403139 0.398993 0.391508 0.38112 0.367867 0.351953 0.333626 0.313175 0.290926 0.267236 0.242489 0.217085 0.191446 0.165977 0.141087 0.117189 0.0946687 0.0738895 0.0551828 0.0388444 0.0251297 0.0142494 0.0063668 0.00159559 1.72884e-26 0 0.00161535 0.00642442 0.0143458 0.0252362 0.038916 0.0551631 0.0737185 0.0942905 0.116559 0.140181 0.164795 0.190025 0.215478 0.240774 0.26554 0.289393 0.311965 0.332911 0.351903 0.368646 0.382872 0.394352 0.402895 0.408484 0.410635 0.409673 0.4056 0.398087 0.387622 0.374231 0.358118 0.339534 0.318773 0.296166 0.272077 0.246899 0.221041 0.194935 0.168997 0.143645 0.119302 0.0963639 0.0752008 0.0561517 0.0395182 0.0255597 0.0144896 0.00647241 0.00162161 1.75666e-26 0 0.00161534 0.00642432 0.0143453 0.0252348 0.0389129 0.0551572 0.0737086 0.0942754 0.116538 0.140153 0.16476 0.189983 0.21543 0.240721 0.265486 0.289339 0.311914 0.332864 0.351864 0.368614 0.382849 0.394337 0.402887 0.408481 0.410635 0.409674 0.405604 0.398094 0.387634 0.374249 0.358141 0.339562 0.318804 0.296198 0.272111 0.246931 0.221071 0.194962 0.16902 0.143663 0.119316 0.0963735 0.0752071 0.0561555 0.0395202 0.0255606 0.0144899 0.00647248 0.00162162 1.75681e-26 0 0.00158936 0.00631894 0.0141054 0.0248055 0.0382403 0.0541902 0.0724003 0.0925844 0.11443 0.137601 0.161747 0.186501 0.211481 0.236317 0.260648 0.284098 0.306309 0.326942 0.345678 0.362223 0.376312 0.387717 0.396246 0.401865 0.404155 0.40333 0.399547 0.392304 0.38215 0.369092 0.353325 0.335096 0.314691 0.292439 0.2687 0.243863 0.218337 0.192551 0.166922 0.141866 0.117805 0.0951346 0.0742221 0.0554039 0.0389784 0.0252009 0.0142803 0.00637614 0.00159677 1.72931e-26 0 0.00153844 0.00611493 0.0136462 0.0239918 0.0369771 0.0523889 0.0699802 0.0894748 0.110571 0.132948 0.156265 0.180173 0.204306 0.228307 0.25183 0.274513 0.296013 0.316003 0.334174 0.350241 0.363948 0.375071 0.383422 0.388949 0.391305 0.390544 0.386956 0.379995 0.370215 0.357614 0.342382 0.324754 0.30501 0.283466 0.260472 0.236406 0.211665 0.186667 0.161818 0.137523 0.114192 0.092209 0.0719326 0.0536888 0.037767 0.0244143 0.0138326 0.00617531 0.00154625 1.67457e-26 0 0.00146324 0.00581422 0.0129708 0.0227974 0.0351263 0.0497537 0.0664449 0.0849377 0.104947 0.126169 0.148285 0.170965 0.193864 0.216647 0.238987 0.260544 0.280995 0.300028 0.317351 0.332692 0.345808 0.356481 0.36453 0.369889 0.372285 0.371639 0.368367 0.361845 0.352633 0.340722 0.32629 0.309558 0.290792 0.270294 0.248398 0.225466 0.201879 0.178037 0.154331 0.13115 0.108888 0.0879129 0.0685687 0.0511672 0.0359844 0.0232558 0.0131724 0.00587883 0.00147156 1.59347e-26 0 0.00136493 0.00542154 0.0120898 0.021241 0.0327168 0.0463262 0.06185 0.0790448 0.0976465 0.117374 0.137934 0.159021 0.180321 0.201522 0.222324 0.242414 0.261491 0.279269 0.295474 0.309854 0.322177 0.332241 0.339871 0.344985 0.347396 0.346886 0.34399 0.338019 0.329529 0.318502 0.305102 0.289533 0.272043 0.252914 0.232459 0.211019 0.188952 0.166637 0.144442 0.122735 0.101888 0.0822464 0.0641348 0.0478461 0.033639 0.021733 0.0123056 0.00548996 0.00137372 1.48728e-26 0 0.00124506 0.00494304 0.011017 0.0193471 0.0297867 0.0421603 0.0562681 0.071889 0.0887842 0.106701 0.125374 0.144531 0.16389 0.18317 0.202104 0.220408 0.237811 0.254055 0.26889 0.282086 0.293431 0.302734 0.309835 0.314635 0.317029 0.316677 0.31421 0.308894 0.301268 0.291306 0.279153 0.264996 0.249058 0.231599 0.212905 0.193292 0.17309 0.152647 0.132309 0.112412 0.0933021 0.0752989 0.058701 0.0437782 0.0307677 0.0198699 0.0112458 0.00501483 0.00125425 1.35765e-26 0 0.0011055 0.00438624 0.0097694 0.0171456 0.0263821 0.0373218 0.0497871 0.063583 0.0785 0.0943169 0.110803 0.127723 0.144831 0.161883 0.178646 0.194873 0.210329 0.224784 0.238019 0.249829 0.260022 0.268428 0.274896 0.279318 0.281663 0.281493 0.279496 0.274931 0.268297 0.259563 0.248854 0.236334 0.222201 0.206686 0.190047 0.172566 0.154543 0.13629 0.118122 0.100344 0.0832668 0.0671803 0.052353 0.0390275 0.0274158 0.017696 0.0100097 0.00446095 0.00111504 1.20664e-26 0 0.000948459 0.00375987 0.00836658 0.0146711 0.0225567 0.0318869 0.0425093 0.054258 0.0669563 0.0804186 0.0944529 0.108862 0.123444 0.137994 0.152319 0.166213 0.179477 0.191918 0.203348 0.213591 0.222479 0.229862 0.235606 0.239598 0.241849 0.241892 0.240397 0.236667 0.231136 0.223774 0.214683 0.204 0.191896 0.178569 0.164245 0.149168 0.133602 0.117823 0.102106 0.0867205 0.07194 0.0580185 0.0451911 0.0336692 0.0236363 0.0152454 0.00861686 0.00383704 0.00095828 1.03661e-26 0 0.000776397 0.00307378 0.00683063 0.0119627 0.0183707 0.0259412 0.0345493 0.044061 0.054335 0.0652249 0.0765798 0.088246 0.100067 0.111882 0.12354 0.134879 0.145743 0.155975 0.165424 0.173944 0.181395 0.187647 0.192585 0.196107 0.198187 0.198546 0.197493 0.194717 0.190372 0.184504 0.177178 0.168504 0.158621 0.147692 0.135905 0.123467 0.1106 0.0975369 0.0845133 0.0717574 0.0595007 0.0479584 0.0373284 0.0277877 0.0194887 0.012557 0.00708921 0.00315295 0.000786451 8.50242e-27 0 0.000592023 0.00233876 0.00518574 0.00906291 0.0138902 0.0195785 0.0260327 0.0331526 0.0408352 0.0489753 0.0574661 0.0661998 0.0750677 0.0839576 0.0927617 0.101367 0.109658 0.117523 0.124845 0.131513 0.137415 0.142447 0.146511 0.149518 0.151415 0.152068 0.151515 0.149724 0.146647 0.142372 0.136932 0.130406 0.122901 0.114541 0.105476 0.0958692 0.0858993 0.075753 0.065622 0.0556906 0.0461452 0.0371585 0.0288888 0.0214759 0.0150386 0.00967304 0.00545086 0.00241948 0.000602256 6.50459e-27 0 0.000398238 0.00156636 0.00345781 0.00601752 0.00918565 0.0128991 0.0170937 0.021705 0.0266698 0.031926 0.0374131 0.0430712 0.0488407 0.0546609 0.0604693 0.0662025 0.071792 0.0771663 0.0822503 0.0869663 0.0912346 0.0949752 0.09811 0.100565 0.102273 0.103187 0.103191 0.102397 0.100651 0.098042 0.0945779 0.0903069 0.085298 0.0796393 0.0734363 0.066809 0.0598888 0.0528145 0.0457299 0.0387737 0.0320841 0.0257895 0.0200056 0.0148333 0.0103562 0.00663912 0.00372767 0.00164819 0.000408599 4.40408e-27 0 0.000198096 0.000768752 0.00167411 0.00287463 0.00433159 0.00600879 0.00787398 0.00989968 0.0120635 0.014348 0.0167396 0.0192278 0.0218033 0.0244566 0.0271758 0.0299454 0.0327444 0.035545 0.0383136 0.0410084 0.0435815 0.0459793 0.0481446 0.0500183 0.0515421 0.0526507 0.0533093 0.0534641 0.0531098 0.0522146 0.0507841 0.0488377 0.046406 0.0435369 0.0402919 0.0367449 0.0329789 0.0290833 0.0251509 0.0212735 0.0175394 0.0140305 0.0108189 0.00796478 0.00551523 0.00350306 0.00194681 0.000851241 0.000208533 2.23395e-27 0 -5.21306e-06 -4.12125e-05 -0.000136359 -0.000314322 -0.000592128 -0.000978639 -0.00147358 -0.00206719 -0.00274047 -0.00346612 -0.00421 -0.00493313 -0.00559394 -0.00615084 -0.00656504 -0.00680271 -0.00683737 -0.00665197 -0.00623986 -0.00560563 -0.00476511 -0.00374483 -0.00258068 -0.00131614 -1.13591e-10 0.00131617 0.00258074 0.00374492 0.00476521 0.00560571 0.00623993 0.006652 0.00683734 0.00680261 0.00656496 0.0061508 0.00559388 0.0049331 0.00421 0.00346612 0.00274047 0.00206719 0.00147358 0.000978637 0.000592129 0.000314322 0.000136359 4.12125e-05 5.21306e-06 2.83912e-29 0 -0.000208533 -0.000851241 -0.00194681 -0.00350306 -0.00551523 -0.00796478 -0.0108189 -0.0140305 -0.0175394 -0.0212735 -0.0251509 -0.0290833 -0.032979 -0.036745 -0.040292 -0.043537 -0.0464061 -0.0488377 -0.050784 -0.0522145 -0.0531097 -0.053464 -0.0533092 -0.0526507 -0.051542 -0.0500183 -0.0481446 -0.0459793 -0.0435814 -0.0410083 -0.0383135 -0.035545 -0.0327444 -0.0299454 -0.0271759 -0.0244566 -0.0218033 -0.0192278 -0.0167396 -0.014348 -0.0120635 -0.00989968 -0.00787398 -0.0060088 -0.00433159 -0.00287463 -0.00167411 -0.000768752 -0.000198096 -2.17783e-27 0 -0.000408599 -0.00164819 -0.00372767 -0.00663912 -0.0103562 -0.0148333 -0.0200056 -0.0257895 -0.0320841 -0.0387736 -0.0457299 -0.0528146 -0.0598889 -0.0668091 -0.0734364 -0.0796395 -0.0852982 -0.0903069 -0.0945779 -0.098042 -0.100651 -0.102397 -0.103191 -0.103187 -0.102273 -0.100565 -0.0981099 -0.0949752 -0.0912346 -0.0869663 -0.0822503 -0.0771662 -0.071792 -0.0662026 -0.0604693 -0.0546609 -0.0488407 -0.0430712 -0.0374131 -0.031926 -0.0266698 -0.021705 -0.0170937 -0.0128991 -0.00918565 -0.00601752 -0.00345781 -0.00156636 -0.000398238 -4.34993e-27 0 -0.000602256 -0.00241948 -0.00545086 -0.00967304 -0.0150386 -0.0214759 -0.0288888 -0.0371585 -0.0461452 -0.0556906 -0.065622 -0.0757531 -0.0858995 -0.0958693 -0.105476 -0.114541 -0.122901 -0.130407 -0.136932 -0.142372 -0.146647 -0.149724 -0.151515 -0.152068 -0.151415 -0.149518 -0.146511 -0.142447 -0.137415 -0.131513 -0.124845 -0.117523 -0.109658 -0.101367 -0.0927617 -0.0839576 -0.0750677 -0.0661998 -0.0574661 -0.0489753 -0.0408352 -0.0331526 -0.0260327 -0.0195785 -0.0138902 -0.00906291 -0.00518574 -0.00233876 -0.000592023 -6.45363e-27 0 -0.000786451 -0.00315295 -0.00708921 -0.012557 -0.0194887 -0.0277877 -0.0373284 -0.0479584 -0.0595007 -0.0717574 -0.0845133 -0.097537 -0.110601 -0.123467 -0.135905 -0.147692 -0.158621 -0.168505 -0.177178 -0.184504 -0.190372 -0.194717 -0.197493 -0.198546 -0.198187 -0.196107 -0.192585 -0.187647 -0.181395 -0.173944 -0.165424 -0.155975 -0.145743 -0.134879 -0.12354 -0.111882 -0.100067 -0.088246 -0.0765798 -0.0652249 -0.054335 -0.044061 -0.0345493 -0.0259412 -0.0183707 -0.0119627 -0.00683063 -0.00307378 -0.000776397 -8.45571e-27 0 -0.00095828 -0.00383704 -0.00861686 -0.0152454 -0.0236363 -0.0336692 -0.0451911 -0.0580185 -0.07194 -0.0867205 -0.102106 -0.117823 -0.133603 -0.149168 -0.164245 -0.178569 -0.191896 -0.204 -0.214683 -0.223774 -0.231136 -0.236667 -0.240397 -0.241892 -0.241849 -0.239598 -0.235606 -0.229862 -0.222479 -0.213591 -0.203348 -0.191918 -0.179477 -0.166213 -0.152319 -0.137994 -0.123444 -0.108862 -0.0944529 -0.0804186 -0.0669563 -0.054258 -0.0425093 -0.0318869 -0.0225567 -0.0146711 -0.00836658 -0.00375987 -0.000948459 -1.03245e-26 0 -0.00111504 -0.00446095 -0.0100097 -0.017696 -0.0274158 -0.0390275 -0.052353 -0.0671803 -0.0832668 -0.100344 -0.118122 -0.13629 -0.154543 -0.172566 -0.190047 -0.206686 -0.222202 -0.236334 -0.248854 -0.259563 -0.268297 -0.274931 -0.279496 -0.281493 -0.281663 -0.279318 -0.274896 -0.268428 -0.260022 -0.249829 -0.238019 -0.224784 -0.210329 -0.194873 -0.178646 -0.161883 -0.144831 -0.127723 -0.110803 -0.0943169 -0.0785 -0.063583 -0.0497871 -0.0373218 -0.0263821 -0.0171456 -0.0097694 -0.00438624 -0.0011055 -1.20306e-26 0 -0.00125425 -0.00501483 -0.0112458 -0.0198699 -0.0307677 -0.0437782 -0.058701 -0.075299 -0.0933021 -0.112412 -0.132309 -0.152647 -0.17309 -0.193292 -0.212905 -0.231599 -0.249058 -0.264996 -0.279154 -0.291306 -0.301268 -0.308894 -0.314209 -0.316677 -0.317029 -0.314635 -0.309835 -0.302734 -0.293431 -0.282086 -0.26889 -0.254055 -0.237811 -0.220408 -0.202104 -0.18317 -0.16389 -0.144531 -0.125374 -0.106701 -0.0887842 -0.071889 -0.0562681 -0.0421603 -0.0297867 -0.0193471 -0.011017 -0.00494304 -0.00124506 -1.35468e-26 0 -0.00137372 -0.00548996 -0.0123056 -0.021733 -0.033639 -0.0478461 -0.0641348 -0.0822464 -0.101888 -0.122735 -0.144442 -0.166637 -0.188952 -0.211019 -0.232459 -0.252914 -0.272043 -0.289533 -0.305102 -0.318502 -0.329529 -0.338019 -0.34399 -0.346886 -0.347396 -0.344985 -0.339871 -0.332241 -0.322177 -0.309854 -0.295474 -0.279269 -0.261491 -0.242414 -0.222324 -0.201522 -0.180321 -0.159021 -0.137934 -0.117374 -0.0976465 -0.0790448 -0.06185 -0.0463262 -0.0327168 -0.021241 -0.0120898 -0.00542154 -0.00136493 -1.48493e-26 0 -0.00147156 -0.00587883 -0.0131724 -0.0232558 -0.0359844 -0.0511671 -0.0685686 -0.0879129 -0.108888 -0.13115 -0.154331 -0.178037 -0.201879 -0.225466 -0.248398 -0.270294 -0.290792 -0.309558 -0.32629 -0.340722 -0.352633 -0.361845 -0.368367 -0.371639 -0.372285 -0.369889 -0.36453 -0.356481 -0.345808 -0.332692 -0.317351 -0.300028 -0.280995 -0.260544 -0.238987 -0.216647 -0.193864 -0.170965 -0.148285 -0.126169 -0.104947 -0.0849377 -0.0664449 -0.0497537 -0.0351263 -0.0227974 -0.0129708 -0.00581422 -0.00146324 -1.59174e-26 0 -0.00154625 -0.00617531 -0.0138326 -0.0244143 -0.037767 -0.0536888 -0.0719325 -0.092209 -0.114192 -0.137523 -0.161818 -0.186667 -0.211665 -0.236406 -0.260472 -0.283466 -0.30501 -0.324754 -0.342382 -0.357614 -0.370215 -0.379995 -0.386956 -0.390544 -0.391305 -0.388949 -0.383422 -0.375071 -0.363948 -0.350241 -0.334174 -0.316003 -0.296013 -0.274513 -0.25183 -0.228307 -0.204306 -0.180173 -0.156265 -0.132947 -0.110571 -0.0894748 -0.0699802 -0.0523889 -0.0369771 -0.0239918 -0.0136462 -0.00611493 -0.00153844 -1.67341e-26 0 -0.00159677 -0.00637614 -0.0142803 -0.0252009 -0.0389784 -0.0554039 -0.0742221 -0.0951346 -0.117805 -0.141866 -0.166922 -0.192551 -0.218337 -0.243863 -0.2687 -0.292439 -0.314691 -0.335096 -0.353325 -0.369092 -0.38215 -0.392304 -0.399547 -0.40333 -0.404155 -0.401865 -0.396246 -0.387717 -0.376312 -0.362223 -0.345678 -0.326943 -0.30631 -0.284098 -0.260649 -0.236317 -0.211481 -0.186501 -0.161747 -0.137601 -0.11443 -0.0925844 -0.0724003 -0.0541902 -0.0382403 -0.0248055 -0.0141054 -0.00631894 -0.00158936 -1.72866e-26 0 -0.00162162 -0.00647248 -0.0144899 -0.0255606 -0.0395202 -0.0561555 -0.0752071 -0.0963735 -0.119316 -0.143663 -0.16902 -0.194962 -0.221071 -0.246931 -0.272111 -0.296198 -0.318804 -0.339562 -0.358141 -0.374249 -0.387634 -0.398094 -0.405604 -0.409674 -0.410635 -0.408481 -0.402887 -0.394337 -0.382849 -0.368614 -0.351864 -0.332865 -0.311915 -0.28934 -0.265487 -0.240722 -0.21543 -0.189983 -0.16476 -0.140153 -0.116538 -0.0942754 -0.0737086 -0.0551572 -0.0389129 -0.0252348 -0.0143453 -0.00642432 -0.00161534 -1.75661e-26 0 -0.00162161 -0.00647241 -0.0144896 -0.0255597 -0.0395182 -0.0561517 -0.0752008 -0.0963638 -0.119302 -0.143645 -0.168997 -0.194936 -0.221041 -0.246899 -0.272077 -0.296166 -0.318773 -0.339534 -0.358118 -0.374231 -0.387622 -0.398087 -0.4056 -0.409673 -0.410635 -0.408484 -0.402895 -0.394352 -0.382872 -0.368646 -0.351904 -0.332911 -0.311966 -0.289394 -0.265542 -0.240774 -0.215478 -0.190025 -0.164795 -0.140181 -0.116559 -0.0942905 -0.0737185 -0.0551631 -0.038916 -0.0252362 -0.0143458 -0.00642442 -0.00161535 -1.75681e-26 0 -0.00159559 -0.0063668 -0.0142494 -0.0251297 -0.0388444 -0.0551828 -0.0738895 -0.0946687 -0.117188 -0.141087 -0.165977 -0.191446 -0.217085 -0.242489 -0.267236 -0.290926 -0.313175 -0.333626 -0.351953 -0.367867 -0.38112 -0.391508 -0.398993 -0.403139 -0.404166 -0.402223 -0.396847 -0.388559 -0.377364 -0.363445 -0.347026 -0.32837 -0.307768 -0.285543 -0.262038 -0.237616 -0.212659 -0.187539 -0.162632 -0.138329 -0.115005 -0.0930187 -0.07271 -0.0543961 -0.038365 -0.0248717 -0.0141342 -0.00632765 -0.00159046 -1.72926e-26 0 -0.00154462 -0.00616237 -0.0137897 -0.0243154 -0.0375805 -0.0533805 -0.0714683 -0.0915578 -0.113329 -0.136432 -0.160494 -0.185119 -0.209912 -0.234482 -0.258423 -0.281349 -0.30289 -0.322702 -0.340468 -0.355908 -0.368781 -0.37889 -0.386188 -0.390276 -0.39132 -0.389467 -