<?xml version="1.0"?>
<VTKFile type="PolyData">
	<PolyData>
		<Piece NumberOfPoints="2601" NumberOfPolys="2500">
			<Points>
				<DataArray type="Float32" NumberOfComponents="3" format="ascii">
 0 0 0 0.02 0 0 0.04 0 0 0.06 0 0 0.08 0 0 0.1 0 0 0.12 0 0 0.14 0 0 0.16 0 0 0.18 0 0 0.2 0 0 0.22 0 0 0.24 0 0 0.26 0 0 0.28 0 0 0.3 0 0 0.32 0 0 0.34 0 0 0.36 0 0 0.38 0 0 0.4 0 0 0.42 0 0 0.44 0 0 0.46 0 0 0.48 0 0 0.5 0 0 0.52 0 0 0.54 0 0 0.56 0 0 0.58 0 0 0.6 0 0 0.62 0 0 0.64 0 0 0.66 0 0 0.68 0 0 0.7 0 0 0.72 0 0 0.74 0 0 0.76 0 0 0.78 0 0 0.8 0 0 0.82 0 0 0.84 0 0 0.86 0 0 0.88 0 0 0.9 0 0 0.92 0 0 0.94 0 0 0.96 0 0 0.98 0 0 1 0 0 0 0.02 0 0.02 0.02 0 0.04 0.02 0 0.06 0.02 0 0.08 0.02 0 0.1 0.02 0 0.12 0.02 0 0.14 0.02 0 0.16 0.02 0 0.18 0.02 0 0.2 0.02 0 0.22 0.02 0 0.24 0.02 0 0.26 0.02 0 0.28 0.02 0 0.3 0.02 0 0.32 0.02 0 0.34 0.02 0 0.36 0.02 0 0.38 0.02 0 0.4 0.02 0 0.42 0.02 0 0.44 0.02 0 0.46 0.02 0 0.48 0.02 0 0.5 0.02 0 0.52 0.02 0 0.54 0.02 0 0.56 0.02 0 0.58 0.02 0 0.6 0.02 0 0.62 0.02 0 0.64 0.02 0 0.66 0.02 0 0.68 0.02 0 0.7 0.02 0 0.72 0.02 0 0.74 0.02 0 0.76 0.02 0 0.78 0.02 0 0.8 0.02 0 0.82 0.02 0 0.84 0.02 0 0.86 0.02 0 0.88 0.02 0 0.9 0.02 0 0.92 0.02 0 0.94 0.02 0 0.96 0.02 0 0.98 0.02 0 1 0.02 0 0 0.04 0 0.02 0.04 0 0.04 0.04 0 0.06 0.04 0 0.08 0.04 0 0.1 0.04 0 0.12 0.04 0 0.14 0.04 0 0.16 0.04 0 0.18 0.04 0 0.2 0.04 0 0.22 0.04 0 0.24 0.04 0 0.26 0.04 0 0.28 0.04 0 0.3 0.04 0 0.32 0.04 0 0.34 0.04 0 0.36 0.04 0 0.38 0.04 0 0.4 0.04 0 0.42 0.04 0 0.44 0.04 0 0.46 0.04 0 0.48 0.04 0 0.5 0.04 0 0.52 0.04 0 0.54 0.04 0 0.56 0.04 0 0.58 0.04 0 0.6 0.04 0 0.62 0.04 0 0.64 0.04 0 0.66 0.04 0 0.68 0.04 0 0.7 0.04 0 0.72 0.04 0 0.74 0.04 0 0.76 0.04 0 0.78 0.04 0 0.8 0.04 0 0.82 0.04 0 0.84 0.04 0 0.86 0.04 0 0.88 0.04 0 0.9 0.04 0 0.92 0.04 0 0.94 0.04 0 0.96 0.04 0 0.98 0.04 0 1 0.04 0 0 0.06 0 0.02 0.06 0 0.04 0.06 0 0.06 0.06 0 0.08 0.06 0 0.1 0.06 0 0.12 0.06 0 0.14 0.06 0 0.16 0.06 0 0.18 0.06 0 0.2 0.06 0 0.22 0.06 0 0.24 0.06 0 0.26 0.06 0 0.28 0.06 0 0.3 0.06 0 0.32 0.06 0 0.34 0.06 0 0.36 0.06 0 0.38 0.06 0 0.4 0.06 0 0.42 0.06 0 0.44 0.06 0 0.46 0.06 0 0.48 0.06 0 0.5 0.06 0 0.52 0.06 0 0.54 0.06 0 0.56 0.06 0 0.58 0.06 0 0.6 0.06 0 0.62 0.06 0 0.64 0.06 0 0.66 0.06 0 0.68 0.06 0 0.7 0.06 0 0.72 0.06 0 0.74 0.06 0 0.76 0.06 0 0.78 0.06 0 0.8 0.06 0 0.82 0.06 0 0.84 0.06 0 0.86 0.06 0 0.88 0.06 0 0.9 0.06 0 0.92 0.06 0 0.94 0.06 0 0.96 0.06 0 0.98 0.06 0 1 0.06 0 0 0.08 0 0.02 0.08 0 0.04 0.08 0 0.06 0.08 0 0.08 0.08 0 0.1 0.08 0 0.12 0.08 0 0.14 0.08 0 0.16 0.08 0 0.18 0.08 0 0.2 0.08 0 0.22 0.08 0 0.24 0.08 0 0.26 0.08 0 0.28 0.08 0 0.3 0.08 0 0.32 0.08 0 0.34 0.08 0 0.36 0.08 0 0.38 0.08 0 0.4 0.08 0 0.42 0.08 0 0.44 0.08 0 0.46 0.08 0 0.48 0.08 0 0.5 0.08 0 0.52 0.08 0 0.54 0.08 0 0.56 0.08 0 0.58 0.08 0 0.6 0.08 0 0.62 0.08 0 0.64 0.08 0 0.66 0.08 0 0.68 0.08 0 0.7 0.08 0 0.72 0.08 0 0.74 0.08 0 0.76 0.08 0 0.78 0.08 0 0.8 0.08 0 0.82 0.08 0 0.84 0.08 0 0.86 0.08 0 0.88 0.08 0 0.9 0.08 0 0.92 0.08 0 0.94 0.08 0 0.96 0.08 0 0.98 0.08 0 1 0.08 0 0 0.1 0 0.02 0.1 0 0.04 0.1 0 0.06 0.1 0 0.08 0.1 0 0.1 0.1 0 0.12 0.1 0 0.14 0.1 0 0.16 0.1 0 0.18 0.1 0 0.2 0.1 0 0.22 0.1 0 0.24 0.1 0 0.26 0.1 0 0.28 0.1 0 0.3 0.1 0 0.32 0.1 0 0.34 0.1 0 0.36 0.1 0 0.38 0.1 0 0.4 0.1 0 0.42 0.1 0 0.44 0.1 0 0.46 0.1 0 0.48 0.1 0 0.5 0.1 0 0.52 0.1 0 0.54 0.1 0 0.56 0.1 0 0.58 0.1 0 0.6 0.1 0 0.62 0.1 0 0.64 0.1 0 0.66 0.1 0 0.68 0.1 0 0.7 0.1 0 0.72 0.1 0 0.74 0.1 0 0.76 0.1 0 0.78 0.1 0 0.8 0.1 0 0.82 0.1 0 0.84 0.1 0 0.86 0.1 0 0.88 0.1 0 0.9 0.1 0 0.92 0.1 0 0.94 0.1 0 0.96 0.1 0 0.98 0.1 0 1 0.1 0 0 0.12 0 0.02 0.12 0 0.04 0.12 0 0.06 0.12 0 0.08 0.12 0 0.1 0.12 0 0.12 0.12 0 0.14 0.12 0 0.16 0.12 0 0.18 0.12 0 0.2 0.12 0 0.22 0.12 0 0.24 0.12 0 0.26 0.12 0 0.28 0.12 0 0.3 0.12 0 0.32 0.12 0 0.34 0.12 0 0.36 0.12 0 0.38 0.12 0 0.4 0.12 0 0.42 0.12 0 0.44 0.12 0 0.46 0.12 0 0.48 0.12 0 0.5 0.12 0 0.52 0.12 0 0.54 0.12 0 0.56 0.12 0 0.58 0.12 0 0.6 0.12 0 0.62 0.12 0 0.64 0.12 0 0.66 0.12 0 0.68 0.12 0 0.7 0.12 0 0.72 0.12 0 0.74 0.12 0 0.76 0.12 0 0.78 0.12 0 0.8 0.12 0 0.82 0.12 0 0.84 0.12 0 0.86 0.12 0 0.88 0.12 0 0.9 0.12 0 0.92 0.12 0 0.94 0.12 0 0.96 0.12 0 0.98 0.12 0 1 0.12 0 0 0.14 0 0.02 0.14 0 0.04 0.14 0 0.06 0.14 0 0.08 0.14 0 0.1 0.14 0 0.12 0.14 0 0.14 0.14 0 0.16 0.14 0 0.18 0.14 0 0.2 0.14 0 0.22 0.14 0 0.24 0.14 0 0.26 0.14 0 0.28 0.14 0 0.3 0.14 0 0.32 0.14 0 0.34 0.14 0 0.36 0.14 0 0.38 0.14 0 0.4 0.14 0 0.42 0.14 0 0.44 0.14 0 0.46 0.14 0 0.48 0.14 0 0.5 0.14 0 0.52 0.14 0 0.54 0.14 0 0.56 0.14 0 0.58 0.14 0 0.6 0.14 0 0.62 0.14 0 0.64 0.14 0 0.66 0.14 0 0.68 0.14 0 0.7 0.14 0 0.72 0.14 0 0.74 0.14 0 0.76 0.14 0 0.78 0.14 0 0.8 0.14 0 0.82 0.14 0 0.84 0.14 0 0.86 0.14 0 0.88 0.14 0 0.9 0.14 0 0.92 0.14 0 0.94 0.14 0 0.96 0.14 0 0.98 0.14 0 1 0.14 0 0 0.16 0 0.02 0.16 0 0.04 0.16 0 0.06 0.16 0 0.08 0.16 0 0.1 0.16 0 0.12 0.16 0 0.14 0.16 0 0.16 0.16 0 0.18 0.16 0 0.2 0.16 0 0.22 0.16 0 0.24 0.16 0 0.26 0.16 0 0.28 0.16 0 0.3 0.16 0 0.32 0.16 0 0.34 0.16 0 0.36 0.16 0 0.38 0.16 0 0.4 0.16 0 0.42 0.16 0 0.44 0.16 0 0.46 0.16 0 0.48 0.16 0 0.5 0.16 0 0.52 0.16 0 0.54 0.16 0 0.56 0.16 0 0.58 0.16 0 0.6 0.16 0 0.62 0.16 0 0.64 0.16 0 0.66 0.16 0 0.68 0.16 0 0.7 0.16 0 0.72 0.16 0 0.74 0.16 0 0.76 0.16 0 0.78 0.16 0 0.8 0.16 0 0.82 0.16 0 0.84 0.16 0 0.86 0.16 0 0.88 0.16 0 0.9 0.16 0 0.92 0.16 0 0.94 0.16 0 0.96 0.16 0 0.98 0.16 0 1 0.16 0 0 0.18 0 0.02 0.18 0 0.04 0.18 0 0.06 0.18 0 0.08 0.18 0 0.1 0.18 0 0.12 0.18 0 0.14 0.18 0 0.16 0.18 0 0.18 0.18 0 0.2 0.18 0 0.22 0.18 0 0.24 0.18 0 0.26 0.18 0 0.28 0.18 0 0.3 0.18 0 0.32 0.18 0 0.34 0.18 0 0.36 0.18 0 0.38 0.18 0 0.4 0.18 0 0.42 0.18 0 0.44 0.18 0 0.46 0.18 0 0.48 0.18 0 0.5 0.18 0 0.52 0.18 0 0.54 0.18 0 0.56 0.18 0 0.58 0.18 0 0.6 0.18 0 0.62 0.18 0 0.64 0.18 0 0.66 0.18 0 0.68 0.18 0 0.7 0.18 0 0.72 0.18 0 0.74 0.18 0 0.76 0.18 0 0.78 0.18 0 0.8 0.18 0 0.82 0.18 0 0.84 0.18 0 0.86 0.18 0 0.88 0.18 0 0.9 0.18 0 0.92 0.18 0 0.94 0.18 0 0.96 0.18 0 0.98 0.18 0 1 0.18 0 0 0.2 0 0.02 0.2 0 0.04 0.2 0 0.06 0.2 0 0.08 0.2 0 0.1 0.2 0 0.12 0.2 0 0.14 0.2 0 0.16 0.2 0 0.18 0.2 0 0.2 0.2 0 0.22 0.2 0 0.24 0.2 0 0.26 0.2 0 0.28 0.2 0 0.3 0.2 0 0.32 0.2 0 0.34 0.2 0 0.36 0.2 0 0.38 0.2 0 0.4 0.2 0 0.42 0.2 0 0.44 0.2 0 0.46 0.2 0 0.48 0.2 0 0.5 0.2 0 0.52 0.2 0 0.54 0.2 0 0.56 0.2 0 0.58 0.2 0 0.6 0.2 0 0.62 0.2 0 0.64 0.2 0 0.66 0.2 0 0.68 0.2 0 0.7 0.2 0 0.72 0.2 0 0.74 0.2 0 0.76 0.2 0 0.78 0.2 0 0.8 0.2 0 0.82 0.2 0 0.84 0.2 0 0.86 0.2 0 0.88 0.2 0 0.9 0.2 0 0.92 0.2 0 0.94 0.2 0 0.96 0.2 0 0.98 0.2 0 1 0.2 0 0 0.22 0 0.02 0.22 0 0.04 0.22 0 0.06 0.22 0 0.08 0.22 0 0.1 0.22 0 0.12 0.22 0 0.14 0.22 0 0.16 0.22 0 0.18 0.22 0 0.2 0.22 0 0.22 0.22 0 0.24 0.22 0 0.26 0.22 0 0.28 0.22 0 0.3 0.22 0 0.32 0.22 0 0.34 0.22 0 0.36 0.22 0 0.38 0.22 0 0.4 0.22 0 0.42 0.22 0 0.44 0.22 0 0.46 0.22 0 0.48 0.22 0 0.5 0.22 0 0.52 0.22 0 0.54 0.22 0 0.56 0.22 0 0.58 0.22 0 0.6 0.22 0 0.62 0.22 0 0.64 0.22 0 0.66 0.22 0 0.68 0.22 0 0.7 0.22 0 0.72 0.22 0 0.74 0.22 0 0.76 0.22 0 0.78 0.22 0 0.8 0.22 0 0.82 0.22 0 0.84 0.22 0 0.86 0.22 0 0.88 0.22 0 0.9 0.22 0 0.92 0.22 0 0.94 0.22 0 0.96 0.22 0 0.98 0.22 0 1 0.22 0 0 0.24 0 0.02 0.24 0 0.04 0.24 0 0.06 0.24 0 0.08 0.24 0 0.1 0.24 0 0.12 0.24 0 0.14 0.24 0 0.16 0.24 0 0.18 0.24 0 0.2 0.24 0 0.22 0.24 0 0.24 0.24 0 0.26 0.24 0 0.28 0.24 0 0.3 0.24 0 0.32 0.24 0 0.34 0.24 0 0.36 0.24 0 0.38 0.24 0 0.4 0.24 0 0.42 0.24 0 0.44 0.24 0 0.46 0.24 0 0.48 0.24 0 0.5 0.24 0 0.52 0.24 0 0.54 0.24 0 0.56 0.24 0 0.58 0.24 0 0.6 0.24 0 0.62 0.24 0 0.64 0.24 0 0.66 0.24 0 0.68 0.24 0 0.7 0.24 0 0.72 0.24 0 0.74 0.24 0 0.76 0.24 0 0.78 0.24 0 0.8 0.24 0 0.82 0.24 0 0.84 0.24 0 0.86 0.24 0 0.88 0.24 0 0.9 0.24 0 0.92 0.24 0 0.94 0.24 0 0.96 0.24 0 0.98 0.24 0 1 0.24 0 0 0.26 0 0.02 0.26 0 0.04 0.26 0 0.06 0.26 0 0.08 0.26 0 0.1 0.26 0 0.12 0.26 0 0.14 0.26 0 0.16 0.26 0 0.18 0.26 0 0.2 0.26 0 0.22 0.26 0 0.24 0.26 0 0.26 0.26 0 0.28 0.26 0 0.3 0.26 0 0.32 0.26 0 0.34 0.26 0 0.36 0.26 0 0.38 0.26 0 0.4 0.26 0 0.42 0.26 0 0.44 0.26 0 0.46 0.26 0 0.48 0.26 0 0.5 0.26 0 0.52 0.26 0 0.54 0.26 0 0.56 0.26 0 0.58 0.26 0 0.6 0.26 0 0.62 0.26 0 0.64 0.26 0 0.66 0.26 0 0.68 0.26 0 0.7 0.26 0 0.72 0.26 0 0.74 0.26 0 0.76 0.26 0 0.78 0.26 0 0.8 0.26 0 0.82 0.26 0 0.84 0.26 0 0.86 0.26 0 0.88 0.26 0 0.9 0.26 0 0.92 0.26 0 0.94 0.26 0 0.96 0.26 0 0.98 0.26 0 1 0.26 0 0 0.28 0 0.02 0.28 0 0.04 0.28 0 0.06 0.28 0 0.08 0.28 0 0.1 0.28 0 0.12 0.28 0 0.14 0.28 0 0.16 0.28 0 0.18 0.28 0 0.2 0.28 0 0.22 0.28 0 0.24 0.28 0 0.26 0.28 0 0.28 0.28 0 0.3 0.28 0 0.32 0.28 0 0.34 0.28 0 0.36 0.28 0 0.38 0.28 0 0.4 0.28 0 0.42 0.28 0 0.44 0.28 0 0.46 0.28 0 0.48 0.28 0 0.5 0.28 0 0.52 0.28 0 0.54 0.28 0 0.56 0.28 0 0.58 0.28 0 0.6 0.28 0 0.62 0.28 0 0.64 0.28 0 0.66 0.28 0 0.68 0.28 0 0.7 0.28 0 0.72 0.28 0 0.74 0.28 0 0.76 0.28 0 0.78 0.28 0 0.8 0.28 0 0.82 0.28 0 0.84 0.28 0 0.86 0.28 0 0.88 0.28 0 0.9 0.28 0 0.92 0.28 0 0.94 0.28 0 0.96 0.28 0 0.98 0.28 0 1 0.28 0 0 0.3 0 0.02 0.3 0 0.04 0.3 0 0.06 0.3 0 0.08 0.3 0 0.1 0.3 0 0.12 0.3 0 0.14 0.3 0 0.16 0.3 0 0.18 0.3 0 0.2 0.3 0 0.22 0.3 0 0.24 0.3 0 0.26 0.3 0 0.28 0.3 0 0.3 0.3 0 0.32 0.3 0 0.34 0.3 0 0.36 0.3 0 0.38 0.3 0 0.4 0.3 0 0.42 0.3 0 0.44 0.3 0 0.46 0.3 0 0.48 0.3 0 0.5 0.3 0 0.52 0.3 0 0.54 0.3 0 0.56 0.3 0 0.58 0.3 0 0.6 0.3 0 0.62 0.3 0 0.64 0.3 0 0.66 0.3 0 0.68 0.3 0 0.7 0.3 0 0.72 0.3 0 0.74 0.3 0 0.76 0.3 0 0.78 0.3 0 0.8 0.3 0 0.82 0.3 0 0.84 0.3 0 0.86 0.3 0 0.88 0.3 0 0.9 0.3 0 0.92 0.3 0 0.94 0.3 0 0.96 0.3 0 0.98 0.3 0 1 0.3 0 0 0.32 0 0.02 0.32 0 0.04 0.32 0 0.06 0.32 0 0.08 0.32 0 0.1 0.32 0 0.12 0.32 0 0.14 0.32 0 0.16 0.32 0 0.18 0.32 0 0.2 0.32 0 0.22 0.32 0 0.24 0.32 0 0.26 0.32 0 0.28 0.32 0 0.3 0.32 0 0.32 0.32 0 0.34 0.32 0 0.36 0.32 0 0.38 0.32 0 0.4 0.32 0 0.42 0.32 0 0.44 0.32 0 0.46 0.32 0 0.48 0.32 0 0.5 0.32 0 0.52 0.32 0 0.54 0.32 0 0.56 0.32 0 0.58 0.32 0 0.6 0.32 0 0.62 0.32 0 0.64 0.32 0 0.66 0.32 0 0.68 0.32 0 0.7 0.32 0 0.72 0.32 0 0.74 0.32 0 0.76 0.32 0 0.78 0.32 0 0.8 0.32 0 0.82 0.32 0 0.84 0.32 0 0.86 0.32 0 0.88 0.32 0 0.9 0.32 0 0.92 0.32 0 0.94 0.
[...]
			<PointData Scalars="VitesseX">
				<DataArray Name="VitesseX" type="Float32" format="ascii">
 0 0 0 0 0 0 0 0 0 0 0 0 0 0 0 0 0 0 0 0 0 0 0 0 0 0 0 0 0 0 0 0 0 0 0 0 0 0 0 0 0 0 0 0 0 0 0 0 0 0 0 0 0.000302796 0.00120627 0.00269634 0.00474919 0.00733241 0.0104052 0.0139191 0.0178187 0.0220425 0.026524 0.0311926 0.0359748 0.0407949 0.0455774 0.0502474 0.054731 0.0589576 0.0628607 0.0663787 0.0694563 0.0720447 0.0741031 0.0755991 0.0765146 0.0768172 0.0765187 0.0756217 0.0741285 0.0720769 0.0694941 0.0664208 0.0629055 0.0590037 0.0547768 0.0502916 0.0456189 0.0408324 0.036008 0.0312213 0.0265477 0.0220614 0.0178331 0.0139295 0.0104123 0.00733681 0.00475165 0.00269752 0.00120678 0.000302868 3.28581e-27 0 0.000600612 0.00239215 0.00534666 0.00941595 0.0145355 0.0206241 0.0275856 0.0353102 0.0436765 0.052553 0.0618005 0.0712737 0.0808228 0.0902993 0.0995563 0.108448 0.116833 0.124582 0.131572 0.137692 0.142847 0.146954 0.149948 0.151804 0.152421 0.151867 0.150126 0.147185 0.143141 0.138038 0.131957 0.124993 0.117255 0.108868 0.099962 0.0906796 0.0811676 0.0715783 0.0620619 0.0527688 0.0438476 0.0354398 0.0276784 0.0206863 0.0145736 0.00943671 0.00535614 0.00239564 0.000601079 6.51944e-27 0 0.00088878 0.00353916 0.0079098 0.0139281 0.0214983 0.0304999 0.0407905 0.0522081 0.0645734 0.0776923 0.0913599 0.105362 0.119478 0.133488 0.147179 0.160333 0.172745 0.184221 0.194579 0.203657 0.211311 0.21742 0.221886 0.224685 0.225616 0.224844 0.222308 0.217977 0.21202 0.20449 0.195507 0.18521 0.173762 0.161346 0.148156 0.134404 0.120309 0.106096 0.0919896 0.0782118 0.0649852 0.0525199 0.0410139 0.0306494 0.0215899 0.0139779 0.00793242 0.00354736 0.000889874 9.64981e-27 0 0.00116277 0.00462926 0.0103454 0.0182147 0.0281111 0.039877 0.053326 0.0682462 0.0844037 0.101546 0.119405 0.137704 0.156151 0.174464 0.192365 0.209571 0.225813 0.240836 0.254407 0.26631 0.276358 0.28439 0.290278 0.294006 0.295249 0.294301 0.291032 0.285396 0.277637 0.267815 0.256082 0.242622 0.227649 0.211399 0.19413 0.176118 0.157651 0.139029 0.120542 0.102484 0.085147 0.0688089 0.053729 0.0401467 0.0282763 0.0183042 0.010386 0.00464388 0.00116471 1.26276e-26 0 0.00141826 0.00564533 0.0126152 0.022208 0.0342699 0.0486077 0.0649944 0.0831718 0.102855 0.123738 0.145494 0.167788 0.190264 0.212581 0.234403 0.255385 0.275199 0.293537 0.310113 0.324664 0.336961 0.346808 0.354044 0.358671 0.360219 0.359141 0.355211 0.348378 0.338958 0.327013 0.312728 0.296326 0.278066 0.258238 0.237158 0.215164 0.192607 0.169857 0.147269 0.125201 0.104015 0.0840498 0.0656233 0.0490284 0.0345273 0.0223475 0.0126783 0.0056679 0.00142126 1.54061e-26 0 0.00165126 0.00657143 0.0146834 0.0258454 0.0398776 0.0565546 0.075612 0.0967496 0.119637 0.143918 0.169216 0.195141 0.221279 0.247239 0.27263 0.297052 0.320125 0.341491 0.360817 0.377798 0.392165 0.403688 0.412179 0.417656 0.419504 0.418339 0.413832 0.405928 0.395015 0.381151 0.36455 0.345472 0.324217 0.301125 0.276563 0.250926 0.224626 0.198096 0.171749 0.146007 0.121293 0.0980025 0.0765091 0.0571545 0.0402445 0.0260441 0.0147731 0.00660327 0.00165548 1.79415e-26 0 0.00185809 0.00739304 0.0165175 0.0290696 0.0448459 0.0635925 0.0850115 0.108766 0.134485 0.161769 0.190197 0.219331 0.248708 0.27789 0.306443 0.333915 0.359882 0.383942 0.40572 0.424873 0.441096 0.454131 0.463763 0.470026 0.472169 0.470956 0.465968 0.457138 0.444923 0.429374 0.410731 0.389286 0.365376 0.339383 0.311722 0.28284 0.253201 0.223298 0.193596 0.164573 0.136706 0.110447 0.0862148 0.0643968 0.0453376 0.0293355 0.0166373 0.00743524 0.00186368 2.01941e-26 0 0.00203552 0.00809729 0.0180886 0.0318298 0.0490967 0.0696105 0.0930448 0.119031 0.147164 0.177009 0.208105 0.239976 0.272117 0.304052 0.335308 0.365393 0.393843 0.42022 0.444112 0.465145 0.482983 0.497341 0.507982 0.514951 0.517383 0.516159 0.510796 0.501199 0.487892 0.470919 0.450541 0.427075 0.400892 0.372408 0.342081 0.310402 0.277883 0.245067 0.212466 0.180605 0.150013 0.121186 0.0945872 0.070641 0.0497263 0.0321698 0.0182416 0.00815068 0.00204258 2.21286e-26 0 0.00218077 0.00867316 0.0193722 0.0340826 0.052563 0.0745138 0.0995852 0.127383 0.157475 0.189397 0.222658 0.256751 0.291138 0.325311 0.35877 0.390988 0.421472 0.449751 0.475387 0.497978 0.517164 0.532635 0.544136 0.55172 0.554435 0.553231 0.547607 0.537414 0.523244 0.505131 0.483351 0.458243 0.430203 0.399678 0.367161 0.333177 0.298281 0.263058 0.228059 0.19385 0.161003 0.130051 0.101494 0.0757886 0.0533412 0.0345024 0.0195606 0.00873831 0.00218936 2.37145e-26 0 0.00229155 0.00911165 0.0203481 0.0357927 0.0551902 0.0782251 0.10453 0.133691 0.165255 0.198738 0.233626 0.269391 0.305469 0.341332 0.376458 0.410296 0.442331 0.472069 0.499051 0.522853 0.543098 0.559456 0.571655 0.579749 0.582742 0.581583 0.575821 0.565211 0.550421 0.531469 0.508643 0.482297 0.452847 0.420764 0.386564 0.350806 0.314074 0.276987 0.240131 0.2041 0.169502 0.136902 0.106827 0.0797582 0.0561254 0.0362964 0.0205735 0.00918884 0.0023017 2.4927e-26 0 0.00236645 0.00940828 0.0210086 0.0369505 0.0569695 0.0807387 0.107878 0.137962 0.170523 0.205061 0.241051 0.277946 0.315169 0.352176 0.388432 0.423368 0.456455 0.487183 0.515077 0.5397 0.560659 0.577612 0.590276 0.598706 0.601864 0.600766 0.594992 0.584151 0.568992 0.549517 0.526017 0.498858 0.468466 0.43533 0.399985 0.36301 0.325011 0.286635 0.248489 0.211192 0.175377 0.14163 0.1105 0.0824872 0.0580349 0.0375235 0.0212643 0.00949518 0.00237784 2.57473e-26 0 0.00240305 0.00954889 0.0213125 0.0374681 0.0577436 0.0818054 0.109268 0.1397 0.172632 0.207561 0.243961 0.281284 0.318952 0.356419 0.393151 0.428579 0.462172 0.493416 0.521831 0.546974 0.568444 0.585892 0.599022 0.607852 0.611474 0.610522 0.604979 0.594163 0.578961 0.559338 0.535587 0.508075 0.477237 0.443567 0.407616 0.369974 0.331265 0.292152 0.253262 0.215229 0.178705 0.144292 0.112551 0.0839957 0.0590781 0.0381851 0.0216313 0.00965528 0.00241693 2.61624e-26 0 0.00240302 0.00954857 0.021311 0.0374638 0.0577338 0.0817866 0.109236 0.139652 0.172564 0.207471 0.243847 0.281148 0.318797 0.356251 0.392975 0.428404 0.462005 0.493266 0.521703 0.546871 0.568369 0.585843 0.598996 0.607843 0.611474 0.610524 0.604988 0.594185 0.578998 0.559392 0.535658 0.508161 0.477335 0.443672 0.407723 0.370078 0.331362 0.292238 0.253335 0.215288 0.178749 0.144323 0.112571 0.0840078 0.0590845 0.0381879 0.0216322 0.00965549 0.00241695 2.61659e-26 0 0.002364 0.00938903 0.020945 0.0368041 0.0566942 0.0802844 0.107195 0.137004 0.169253 0.203455 0.239098 0.275655 0.312568 0.349306 0.385356 0.420165 0.453214 0.484006 0.512067 0.536961 0.558288 0.575697 0.58889 0.597835 0.601808 0.601092 0.596172 0.585853 0.571217 0.552175 0.529007 0.502068 0.471785 0.438646 0.403197 0.366028 0.327764 0.289066 0.250571 0.21291 0.176738 0.142659 0.111235 0.082976 0.0583311 0.037681 0.0213327 0.00951587 0.00238044 2.57577e-26 0 0.00228799 0.00908363 0.0202552 0.0355786 0.0547868 0.0775581 0.103525 0.13228 0.163384 0.196368 0.230744 0.266007 0.301628 0.337095 0.37192 0.405575 0.437561 0.4674 0.494636 0.518844 0.539636 0.556668 0.569645 0.578495 0.582666 0.582045 0.577462 0.567584 0.553528 0.535189 0.512835 0.486808 0.457516 0.425436 0.391094 0.355066 0.31796 0.280421 0.24307 0.206523 0.17142 0.138349 0.107858 0.0804431 0.0565396 0.0365161 0.0206686 0.00921755 0.0023053 2.49442e-26 0 0.00217584 0.0086344 0.0192438 0.0337866 0.0520052 0.0735917 0.0981964 0.125434 0.154889 0.186123 0.218676 0.252077 0.285833 0.319459 0.352504 0.384469 0.414887 0.443306 0.469294 0.492446 0.512391 0.528796 0.541372 0.550006 0.55434 0.553891 0.549872 0.540686 0.527522 0.510249 0.489115 0.464442 0.436618 0.406096 0.373382 0.339027 0.303617 0.267771 0.232094 0.197176 0.163634 0.132037 0.10291 0.0767284 0.0539095 0.0348038 0.0196911 0.00877768 0.0021943 2.37383e-26 0 0.00202931 0.00804838 0.0179266 0.0314563 0.0483932 0.0684477 0.0912935 0.116573 0.143904 0.172881 0.203086 0.234086 0.265432 0.296679 0.327415 0.357183 0.385553 0.412108 0.436446 0.458189 0.476987 0.492524 0.504523 0.512825 0.517279 0.517031 0.51366 0.505331 0.493284 0.477363 0.457793 0.434869 0.408955 0.380471 0.349896 0.317748 0.284582 0.250984 0.21753 0.184779 0.153316 0.123678 0.0963636 0.0718203 0.0504393 0.032548 0.0184054 0.0082001 0.00204879 2.21588e-26 0 0.00185069 0.00733473 0.0163244 0.0286245 0.0440076 0.062207 0.082925 0.105838 0.130601 0.156853 0.18422 0.212317 0.240749 0.269114 0.29705 0.324148 0.350023 0.374299 0.396612 0.416615 0.433986 0.448428 0.459681 0.467545 0.472066 0.472054 0.469397 0.462082 0.451359 0.437054 0.419366 0.39856 0.374964 0.348967 0.321007 0.291566 0.261157 0.230324 0.199608 0.169527 0.140626 0.113404 0.0883231 0.0657965 0.046184 0.0297844 0.0168318 0.00749392 0.00187106 2.02305e-26 0 0.00164278 0.00650463 0.0144622 0.0253357 0.0389175 0.054968 0.0732229 0.0933974 0.115191 0.138291 0.162376 0.187115 0.212173 0.2372 0.261889 0.285887 0.30886 0.330479 0.350423 0.368383 0.384068 0.397207 0.407558 0.414912 0.419356 0.419741 0.41774 0.411638 0.402409 0.38996 0.374442 0.356087 0.335186 0.312083 0.287174 0.260895 0.233712 0.206119 0.178612 0.151663 0.125767 0.101378 0.0789155 0.0587522 0.0412106 0.0265565 0.0149952 0.00667028 0.00166391 1.79836e-26 0 0.00140884 0.00557109 0.0123694 0.0216416 0.033203 0.0468448 0.06234 0.0794477 0.0979168 0.117488 0.137898 0.158877 0.180154 0.201441 0.222487 0.243004 0.262713 0.281339 0.298608 0.314255 0.328023 0.339671 0.348978 0.355749 0.359977 0.360949 0.359482 0.354805 0.34721 0.336826 0.323733 0.308124 0.290247 0.270401 0.248931 0.22622 0.202681 0.178751 0.154874 0.131468 0.108972 0.0877897 0.0682892 0.0507984 0.0355978 0.0229154 0.0129244 0.00574218 0.00143061 1.54534e-26 0 0.00115255 0.00454873 0.0100789 0.0176004 0.0269543 0.0379655 0.050448 0.0642088 0.0790503 0.0947722 0.111173 0.128049 0.145197 0.162402 0.179466 0.196174 0.21231 0.227654 0.241985 0.255084 0.266735 0.276727 0.284865 0.290969 0.294953 0.296477 0.295642 0.292445 0.286633 0.27849 0.268038 0.255427 0.240859 0.22458 0.206881 0.188088 0.168554 0.148653 0.128768 0.109261 0.0905078 0.0728533 0.0566121 0.042061 0.0294341 0.0189185 0.0106523 0.00472426 0.00117484 1.26796e-26 0 0.000877936 0.00345361 0.0076267 0.0132757 0.0202696 0.0284698 0.0377342 0.0479209 0.0588892 0.0705012 0.0826217 0.0951169 0.107854 0.120695 0.133503 0.146137 0.158445 0.17027 0.181447 0.191805 0.20117 0.209368 0.216229 0.221593 0.225318 0.227331 0.227237 0.225538 0.221631 0.215873 0.208236 0.198828 0.187799 0.175342 0.161688 0.147102 0.13187 0.116299 0.100708 0.0853935 0.0706651 0.0568051 0.0440686 0.0326778 0.0228168 0.0146289 0.00821468 0.00363259 0.000900622 9.7058e-27 0 0.000589309 0.00230293 0.00505147 0.00873572 0.0132544 0.0185074 0.024399 0.0308405 0.0377511 0.0450577 0.0526942 0.0605992 0.0687133 0.0769761 0.0853229 0.0936796 0.101967 0.110092 0.117946 0.125411 0.13236 0.138654 0.144152 0.148714 0.152204 0.154496 0.155473 0.155044 0.15326 0.149959 0.145269 0.139217 0.131904 0.123464 0.114066 0.103907 0.0932077 0.0822019 0.0711347 0.0602419 0.0497576 0.0398983 0.0308567 0.0227968 0.0158504 0.0101143 0.00564996 0.00248439 0.000612282 6.57867e-27 0 0.000291216 0.00111482 0.00239386 0.00405223 0.00601997 0.0082368 0.0106549 0.0132405 0.0159739 0.0188488 0.0218698 0.025049 0.0284028 0.0319469 0.0356919 0.0396389 0.0437759 0.0480751 0.0524905 0.056957 0.0613922 0.0656994 0.0697669 0.0734759 0.0767044 0.0793106 0.0812038 0.0823046 0.0824934 0.0817963 0.0801295 0.077534 0.0740544 0.069763 0.0647637 0.0591853 0.053176 0.046897 0.0405171 0.0342033 0.028115 0.0223997 0.0171849 0.0125741 0.00864474 0.00544585 0.00299863 0.00129776 0.000314363 3.34744e-27 0 -1.15641e-05 -9.14216e-05 -0.000302484 -0.000697257 -0.0013135 -0.00217088 -0.00326875 -0.00458543 -0.00607875 -0.00768811 -0.00933774 -0.0109411 -0.0124061 -0.0136405 -0.0145582 -0.0150841 -0.0151601 -0.0147483 -0.0138337 -0.0124269 -0.0105631 -0.00830101 -0.00572029 -0.00291726 2.12158e-08 0.00291733 0.0057204 0.00830112 0.0105632 0.012427 0.0138337 0.0147481 0.01516 0.015084 0.014558 0.0136404 0.012406 0.0109411 0.00933775 0.00768812 0.00607875 0.00458542 0.00326876 0.00217089 0.00131351 0.000697258 0.000302484 9.14216e-05 1.15641e-05 6.29802e-29 0 -0.000314363 -0.00129776 -0.00299862 -0.00544585 -0.00864474 -0.0125741 -0.0171849 -0.0223997 -0.028115 -0.0342033 -0.0405171 -0.0468971 -0.053176 -0.0591855 -0.0647639 -0.0697631 -0.0740545 -0.0775343 -0.0801297 -0.0817963 -0.0824934 -0.0823045 -0.0812038 -0.0793105 -0.0767043 -0.0734758 -0.0697668 -0.0656993 -0.0613921 -0.0569569 -0.0524905 -0.0480751 -0.043776 -0.0396389 -0.035692 -0.0319471 -0.028403 -0.0250491 -0.0218698 -0.0188488 -0.0159739 -0.0132405 -0.0106549 -0.00823679 -0.00601997 -0.00405223 -0.00239386 -0.00111482 -0.000291216 -3.22296e-27 0 -0.000612282 -0.00248439 -0.00564996 -0.0101143 -0.0158504 -0.0227968 -0.0308567 -0.0398983 -0.0497576 -0.0602419 -0.0711347 -0.0822019 -0.0932077 -0.103907 -0.114066 -0.123464 -0.131904 -0.139218 -0.145269 -0.149959 -0.15326 -0.155044 -0.155473 -0.154496 -0.152204 -0.148714 -0.144152 -0.138654 -0.13236 -0.125411 -0.117946 -0.110091 -0.101967 -0.0936797 -0.0853231 -0.0769763 -0.0687134 -0.0605993 -0.0526942 -0.0450577 -0.0377511 -0.0308405 -0.024399 -0.0185074 -0.0132544 -0.00873572 -0.00505147 -0.00230293 -0.000589309 -6.45857e-27 0 -0.000900622 -0.00363259 -0.00821468 -0.0146289 -0.0228168 -0.0326777 -0.0440686 -0.0568051 -0.0706652 -0.0853934 -0.100708 -0.116299 -0.13187 -0.147102 -0.161689 -0.175342 -0.187799 -0.198828 -0.208236 -0.215873 -0.221632 -0.225538 -0.227237 -0.227331 -0.225318 -0.221593 -0.216229 -0.209368 -0.20117 -0.191805 -0.181447 -0.17027 -0.158445 -0.146137 -0.133503 -0.120695 -0.107854 -0.095117 -0.0826217 -0.0705012 -0.0588892 -0.0479209 -0.0377342 -0.0284698 -0.0202696 -0.0132757 -0.0076267 -0.00345361 -0.000877936 -9.59276e-27 0 -0.00117484 -0.00472426 -0.0106523 -0.0189185 -0.0294341 -0.042061 -0.0566121 -0.0728533 -0.0905078 -0.109261 -0.128768 -0.148653 -0.168554 -0.188088 -0.206881 -0.22458 -0.240859 -0.255428 -0.268038 -0.27849 -0.286633 -0.292445 -0.295642 -0.296477 -0.294953 -0.290969 -0.284865 -0.276727 -0.266735 -0.255084 -0.241985 -0.227654 -0.21231 -0.196174 -0.179466 -0.162402 -0.145197 -0.128049 -0.111173 -0.0947722 -0.0790503 -0.0642088 -0.050448 -0.0379655 -0.0269543 -0.0176004 -0.0100789 -0.00454873 -0.00115255 -1.2576e-26 0 -0.00143061 -0.00574218 -0.0129244 -0.0229154 -0.0355978 -0.0507984 -0.0682891 -0.0877897 -0.108972 -0.131468 -0.154874 -0.178751 -0.202681 -0.22622 -0.248931 -0.270401 -0.290247 -0.308124 -0.323733 -0.336826 -0.34721 -0.354805 -0.359482 -0.360949 -0.359977 -0.355749 -0.348978 -0.339671 -0.328023 -0.314255 -0.298608 -0.281339 -0.262713 -0.243004 -0.222487 -0.201441 -0.180154 -0.158877 -0.137898 -0.117488 -0.0979168 -0.0794477 -0.06234 -0.0468448 -0.033203 -0.0216416 -0.0123694 -0.00557109 -0.00140884 -1.53612e-26 0 -0.00166391 -0.00667028 -0.0149952 -0.0265565 -0.0412106 -0.0587521 -0.0789154 -0.101378 -0.125767 -0.151663 -0.178612 -0.206119 -0.233712 -0.260895 -0.287174 -0.312083 -0.335186 -0.356087 -0.374442 -0.38996 -0.402409 -0.411638 -0.41774 -0.419741 -0.419356 -0.414912 -0.407558 -0.397207 -0.384068 -0.368383 -0.350423 -0.330479 -0.30886 -0.285887 -0.261889 -0.2372 -0.212173 -0.187115 -0.162376 -0.138291 -0.115191 -0.0933974 -0.0732229 -0.054968 -0.0389175 -0.0253357 -0.0144622 -0.00650463 -0.00164278 -1.79041e-26 0 -0.00187106 -0.00749392 -0.0168318 -0.0297844 -0.046184 -0.0657965 -0.0883231 -0.113404 -0.140626 -0.169527 -0.199608 -0.230324 -0.261157 -0.291566 -0.321007 -0.348967 -0.374964 -0.39856 -0.419366 -0.437054 -0.451359 -0.462082 -0.469397 -0.472054 -0.472066 -0.467545 -0.459681 -0.448428 -0.433986 -0.416615 -0.396612 -0.3743 -0.350024 -0.324148 -0.29705 -0.269114 -0.240749 -0.212317 -0.18422 -0.156853 -0.130601 -0.105838 -0.082925 -0.062207 -0.0440076 -0.0286245 -0.0163244 -0.00733473 -0.00185069 -2.01646e-26 0 -0.00204879 -0.0082001 -0.0184054 -0.032548 -0.0504393 -0.0718203 -0.0963636 -0.123678 -0.153316 -0.184779 -0.21753 -0.250984 -0.284582 -0.317748 -0.349896 -0.380471 -0.408955 -0.434869 -0.457793 -0.477363 -0.493284 -0.505331 -0.51366 -0.517031 -0.517279 -0.512825 -0.504523 -0.492524 -0.476987 -0.458189 -0.436446 -0.412108 -0.385553 -0.357183 -0.327415 -0.296679 -0.265432 -0.234086 -0.203086 -0.172881 -0.143904 -0.116573 -0.0912935 -0.0684477 -0.0483932 -0.0314563 -0.0179266 -0.00804838 -0.00202931 -2.21068e-26 0 -0.0021943 -0.00877768 -0.0196911 -0.0348038 -0.0539095 -0.0767283 -0.10291 -0.132037 -0.163635 -0.197176 -0.232094 -0.267771 -0.303617 -0.339027 -0.373382 -0.406096 -0.436618 -0.464442 -0.489115 -0.510249 -0.527522 -0.540686 -0.549872 -0.553891 -0.55434 -0.550006 -0.541372 -0.528796 -0.512391 -0.492446 -0.469294 -0.443306 -0.414887 -0.384469 -0.352504 -0.319459 -0.285833 -0.252077 -0.218676 -0.186122 -0.154889 -0.125434 -0.0981964 -0.0735917 -0.0520052 -0.0337866 -0.0192438 -0.0086344 -0.00217584 -2.36999e-26 0 -0.0023053 -0.00921755 -0.0206686 -0.0365161 -0.0565396 -0.0804431 -0.107858 -0.138349 -0.17142 -0.206523 -0.24307 -0.280421 -0.31796 -0.355066 -0.391094 -0.425436 -0.457516 -0.486808 -0.512835 -0.535189 -0.553528 -0.567584 -0.577462 -0.582045 -0.582666 -0.578495 -0.569645 -0.556668 -0.539636 -0.518844 -0.494635 -0.4674 -0.437561 -0.405575 -0.37192 -0.337095 -0.301628 -0.266007 -0.230744 -0.196368 -0.163384 -0.13228 -0.103525 -0.0775581 -0.0547868 -0.0355785 -0.0202552 -0.00908363 -0.00228799 -2.49185e-26 0 -0.00238044 -0.00951587 -0.0213327 -0.037681 -0.0583311 -0.082976 -0.111235 -0.142659 -0.176738 -0.21291 -0.250571 -0.289066 -0.327764 -0.366028 -0.403197 -0.438646 -0.471785 -0.502068 -0.529007 -0.552175 -0.571217 -0.585853 -0.596172 -0.601092 -0.601808 -0.597835 -0.58889 -0.575697 -0.558288 -0.536961 -0.512067 -0.484006 -0.453214 -0.420165 -0.385356 -0.349306 -0.312568 -0.275655 -0.239098 -0.203455 -0.169253 -0.137004 -0.107195 -0.0802844 -0.0566942 -0.0368041 -0.020945 -0.00938903 -0.002364 -2.57434e-26 0 -0.00241695 -0.00965549 -0.0216322 -0.0381879 -0.0590845 -0.0840078 -0.112571 -0.144323 -0.178749 -0.215288 -0.253335 -0.292238 -0.331362 -0.370078 -0.407723 -0.443672 -0.477334 -0.508161 -0.535658 -0.559392 -0.578998 -0.594185 -0.604988 -0.610524 -0.611474 -0.607843 -0.598996 -0.585843 -0.568369 -0.546871 -0.521703 -0.493266 -0.462006 -0.428406 -0.392976 -0.356251 -0.318797 -0.281148 -0.243847 -0.207471 -0.172564 -0.139652 -0.109236 -0.0817866 -0.0577338 -0.0374638 -0.021311 -0.00954857 -0.00240302 -2.61614e-26 0 -0.00241693 -0.00965528 -0.0216313 -0.0381851 -0.0590781 -0.0839957 -0.112551 -0.144292 -0.178705 -0.215229 -0.253262 -0.292152 -0.331265 -0.369974 -0.407616 -0.443567 -0.477237 -0.508075 -0.535587 -0.559338 -0.578961 -0.594163 -0.604979 -0.610522 -0.611474 -0.607852 -0.599022 -0.585892 -0.568444 -0.546974 -0.521831 -0.493416 -0.462173 -0.428581 -0.393152 -0.356419 -0.318952 -0.281284 -0.243961 -0.207561 -0.172632 -0.1397 -0.109268 -0.0818054 -0.0577436 -0.0374681 -0.0213125 -0.00954889 -0.00240305 -2.61659e-26 0 -0.00237784 -0.00949518 -0.0212643 -0.0375235 -0.0580349 -0.0824872 -0.1105 -0.14163 -0.175377 -0.211192 -0.248488 -0.286635 -0.325011 -0.36301 -0.399985 -0.43533 -0.468466 -0.498858 -0.526017 -0.549517 -0.568992 -0.584151 -0.594992 -0.600766 -0.601864 -0.598706 -0.590276 -0.577612 -0.560659 -0.539701 -0.515078 -0.487183 -0.456455 -0.423368 -0.388432 -0.352176 -0.315169 -0.277946 -0.241051 -0.205061 -0.170523 -0.137962 -0.107878 -0.0807387 -0.0569695 -0.0369505 -0.0210086 -0.00940828 -0.00236645 -2.57567e-26 0 -0.0023017 -0.00918884 -0.0205735 -0.0362964 -0.0561254 -0.0797582 -0.106827 -0.136902 -0.169502 -0.2041 -0.24013 -0.276987 -0.314074 -0.350806 -0.386564 -0.420764 -0.452847 -0.482297 -0.508643 -0.531469 -0.550421 -0.565211 -0.575821 -0.581583 -0.582742 -0.579749 -0.571655 -0.559456 -0.543098 -0.522854 -0.499051 -0.472069 -0.442331 -0.410296 -0.376458 -0.341332 -0.305469 -0.269391 -0.233626 -0.198738 -0.165255 -0.133691 -0.10453 -0.0782251 -0.0551902 -0.0357927 -0.0203481 -0.00911165 -0.00229155 -2.49403e-26 0