<?xml version="1.0"?>
<VTKFile type="PolyData">
	<PolyData>
		<Piece NumberOfPoints="2601" NumberOfPolys="2500">
			<Points>
				<DataArray type="Float32" NumberOfComponents="3" format="ascii">
 0 0 0 0.02 0 0 0.04 0 0 0.06 0 0 0.08 0 0 0.1 0 0 0.12 0 0 0.14 0 0 0.16 0 0 0.18 0 0 0.2 0 0 0.22 0 0 0.24 0 0 0.26 0 0 0.28 0 0 0.3 0 0 0.32 0 0 0.34 0 0 0.36 0 0 0.38 0 0 0.4 0 0 0.42 0 0 0.44 0 0 0.46 0 0 0.48 0 0 0.5 0 0 0.52 0 0 0.54 0 0 0.56 0 0 0.58 0 0 0.6 0 0 0.62 0 0 0.64 0 0 0.66 0 0 0.68 0 0 0.7 0 0 0.72 0 0 0.74 0 0 0.76 0 0 0.78 0 0 0.8 0 0 0.82 0 0 0.84 0 0 0.86 0 0 0.88 0 0 0.9 0 0 0.92 0 0 0.94 0 0 0.96 0 0 0.98 0 0 1 0 0 0 0.02 0 0.02 0.02 0 0.04 0.02 0 0.06 0.02 0 0.08 0.02 0 0.1 0.02 0 0.12 0.02 0 0.14 0.02 0 0.16 0.02 0 0.18 0.02 0 0.2 0.02 0 0.22 0.02 0 0.24 0.02 0 0.26 0.02 0 0.28 0.02 0 0.3 0.02 0 0.32 0.02 0 0.34 0.02 0 0.36 0.02 0 0.38 0.02 0 0.4 0.02 0 0.42 0.02 0 0.44 0.02 0 0.46 0.02 0 0.48 0.02 0 0.5 0.02 0 0.52 0.02 0 0.54 0.02 0 0.56 0.02 0 0.58 0.02 0 0.6 0.02 0 0.62 0.02 0 0.64 0.02 0 0.66 0.02 0 0.68 0.02 0 0.7 0.02 0 0.72 0.02 0 0.74 0.02 0 0.76 0.02 0 0.78 0.02 0 0.8 0.02 0 0.82 0.02 0 0.84 0.02 0 0.86 0.02 0 0.88 0.02 0 0.9 0.02 0 0.92 0.02 0 0.94 0.02 0 0.96 0.02 0 0.98 0.02 0 1 0.02 0 0 0.04 0 0.02 0.04 0 0.04 0.04 0 0.06 0.04 0 0.08 0.04 0 0.1 0.04 0 0.12 0.04 0 0.14 0.04 0 0.16 0.04 0 0.18 0.04 0 0.2 0.04 0 0.22 0.04 0 0.24 0.04 0 0.26 0.04 0 0.28 0.04 0 0.3 0.04 0 0.32 0.04 0 0.34 0.04 0 0.36 0.04 0 0.38 0.04 0 0.4 0.04 0 0.42 0.04 0 0.44 0.04 0 0.46 0.04 0 0.48 0.04 0 0.5 0.04 0 0.52 0.04 0 0.54 0.04 0 0.56 0.04 0 0.58 0.04 0 0.6 0.04 0 0.62 0.04 0 0.64 0.04 0 0.66 0.04 0 0.68 0.04 0 0.7 0.04 0 0.72 0.04 0 0.74 0.04 0 0.76 0.04 0 0.78 0.04 0 0.8 0.04 0 0.82 0.04 0 0.84 0.04 0 0.86 0.04 0 0.88 0.04 0 0.9 0.04 0 0.92 0.04 0 0.94 0.04 0 0.96 0.04 0 0.98 0.04 0 1 0.04 0 0 0.06 0 0.02 0.06 0 0.04 0.06 0 0.06 0.06 0 0.08 0.06 0 0.1 0.06 0 0.12 0.06 0 0.14 0.06 0 0.16 0.06 0 0.18 0.06 0 0.2 0.06 0 0.22 0.06 0 0.24 0.06 0 0.26 0.06 0 0.28 0.06 0 0.3 0.06 0 0.32 0.06 0 0.34 0.06 0 0.36 0.06 0 0.38 0.06 0 0.4 0.06 0 0.42 0.06 0 0.44 0.06 0 0.46 0.06 0 0.48 0.06 0 0.5 0.06 0 0.52 0.06 0 0.54 0.06 0 0.56 0.06 0 0.58 0.06 0 0.6 0.06 0 0.62 0.06 0 0.64 0.06 0 0.66 0.06 0 0.68 0.06 0 0.7 0.06 0 0.72 0.06 0 0.74 0.06 0 0.76 0.06 0 0.78 0.06 0 0.8 0.06 0 0.82 0.06 0 0.84 0.06 0 0.86 0.06 0 0.88 0.06 0 0.9 0.06 0 0.92 0.06 0 0.94 0.06 0 0.96 0.06 0 0.98 0.06 0 1 0.06 0 0 0.08 0 0.02 0.08 0 0.04 0.08 0 0.06 0.08 0 0.08 0.08 0 0.1 0.08 0 0.12 0.08 0 0.14 0.08 0 0.16 0.08 0 0.18 0.08 0 0.2 0.08 0 0.22 0.08 0 0.24 0.08 0 0.26 0.08 0 0.28 0.08 0 0.3 0.08 0 0.32 0.08 0 0.34 0.08 0 0.36 0.08 0 0.38 0.08 0 0.4 0.08 0 0.42 0.08 0 0.44 0.08 0 0.46 0.08 0 0.48 0.08 0 0.5 0.08 0 0.52 0.08 0 0.54 0.08 0 0.56 0.08 0 0.58 0.08 0 0.6 0.08 0 0.62 0.08 0 0.64 0.08 0 0.66 0.08 0 0.68 0.08 0 0.7 0.08 0 0.72 0.08 0 0.74 0.08 0 0.76 0.08 0 0.78 0.08 0 0.8 0.08 0 0.82 0.08 0 0.84 0.08 0 0.86 0.08 0 0.88 0.08 0 0.9 0.08 0 0.92 0.08 0 0.94 0.08 0 0.96 0.08 0 0.98 0.08 0 1 0.08 0 0 0.1 0 0.02 0.1 0 0.04 0.1 0 0.06 0.1 0 0.08 0.1 0 0.1 0.1 0 0.12 0.1 0 0.14 0.1 0 0.16 0.1 0 0.18 0.1 0 0.2 0.1 0 0.22 0.1 0 0.24 0.1 0 0.26 0.1 0 0.28 0.1 0 0.3 0.1 0 0.32 0.1 0 0.34 0.1 0 0.36 0.1 0 0.38 0.1 0 0.4 0.1 0 0.42 0.1 0 0.44 0.1 0 0.46 0.1 0 0.48 0.1 0 0.5 0.1 0 0.52 0.1 0 0.54 0.1 0 0.56 0.1 0 0.58 0.1 0 0.6 0.1 0 0.62 0.1 0 0.64 0.1 0 0.66 0.1 0 0.68 0.1 0 0.7 0.1 0 0.72 0.1 0 0.74 0.1 0 0.76 0.1 0 0.78 0.1 0 0.8 0.1 0 0.82 0.1 0 0.84 0.1 0 0.86 0.1 0 0.88 0.1 0 0.9 0.1 0 0.92 0.1 0 0.94 0.1 0 0.96 0.1 0 0.98 0.1 0 1 0.1 0 0 0.12 0 0.02 0.12 0 0.04 0.12 0 0.06 0.12 0 0.08 0.12 0 0.1 0.12 0 0.12 0.12 0 0.14 0.12 0 0.16 0.12 0 0.18 0.12 0 0.2 0.12 0 0.22 0.12 0 0.24 0.12 0 0.26 0.12 0 0.28 0.12 0 0.3 0.12 0 0.32 0.12 0 0.34 0.12 0 0.36 0.12 0 0.38 0.12 0 0.4 0.12 0 0.42 0.12 0 0.44 0.12 0 0.46 0.12 0 0.48 0.12 0 0.5 0.12 0 0.52 0.12 0 0.54 0.12 0 0.56 0.12 0 0.58 0.12 0 0.6 0.12 0 0.62 0.12 0 0.64 0.12 0 0.66 0.12 0 0.68 0.12 0 0.7 0.12 0 0.72 0.12 0 0.74 0.12 0 0.76 0.12 0 0.78 0.12 0 0.8 0.12 0 0.82 0.12 0 0.84 0.12 0 0.86 0.12 0 0.88 0.12 0 0.9 0.12 0 0.92 0.12 0 0.94 0.12 0 0.96 0.12 0 0.98 0.12 0 1 0.12 0 0 0.14 0 0.02 0.14 0 0.04 0.14 0 0.06 0.14 0 0.08 0.14 0 0.1 0.14 0 0.12 0.14 0 0.14 0.14 0 0.16 0.14 0 0.18 0.14 0 0.2 0.14 0 0.22 0.14 0 0.24 0.14 0 0.26 0.14 0 0.28 0.14 0 0.3 0.14 0 0.32 0.14 0 0.34 0.14 0 0.36 0.14 0 0.38 0.14 0 0.4 0.14 0 0.42 0.14 0 0.44 0.14 0 0.46 0.14 0 0.48 0.14 0 0.5 0.14 0 0.52 0.14 0 0.54 0.14 0 0.56 0.14 0 0.58 0.14 0 0.6 0.14 0 0.62 0.14 0 0.64 0.14 0 0.66 0.14 0 0.68 0.14 0 0.7 0.14 0 0.72 0.14 0 0.74 0.14 0 0.76 0.14 0 0.78 0.14 0 0.8 0.14 0 0.82 0.14 0 0.84 0.14 0 0.86 0.14 0 0.88 0.14 0 0.9 0.14 0 0.92 0.14 0 0.94 0.14 0 0.96 0.14 0 0.98 0.14 0 1 0.14 0 0 0.16 0 0.02 0.16 0 0.04 0.16 0 0.06 0.16 0 0.08 0.16 0 0.1 0.16 0 0.12 0.16 0 0.14 0.16 0 0.16 0.16 0 0.18 0.16 0 0.2 0.16 0 0.22 0.16 0 0.24 0.16 0 0.26 0.16 0 0.28 0.16 0 0.3 0.16 0 0.32 0.16 0 0.34 0.16 0 0.36 0.16 0 0.38 0.16 0 0.4 0.16 0 0.42 0.16 0 0.44 0.16 0 0.46 0.16 0 0.48 0.16 0 0.5 0.16 0 0.52 0.16 0 0.54 0.16 0 0.56 0.16 0 0.58 0.16 0 0.6 0.16 0 0.62 0.16 0 0.64 0.16 0 0.66 0.16 0 0.68 0.16 0 0.7 0.16 0 0.72 0.16 0 0.74 0.16 0 0.76 0.16 0 0.78 0.16 0 0.8 0.16 0 0.82 0.16 0 0.84 0.16 0 0.86 0.16 0 0.88 0.16 0 0.9 0.16 0 0.92 0.16 0 0.94 0.16 0 0.96 0.16 0 0.98 0.16 0 1 0.16 0 0 0.18 0 0.02 0.18 0 0.04 0.18 0 0.06 0.18 0 0.08 0.18 0 0.1 0.18 0 0.12 0.18 0 0.14 0.18 0 0.16 0.18 0 0.18 0.18 0 0.2 0.18 0 0.22 0.18 0 0.24 0.18 0 0.26 0.18 0 0.28 0.18 0 0.3 0.18 0 0.32 0.18 0 0.34 0.18 0 0.36 0.18 0 0.38 0.18 0 0.4 0.18 0 0.42 0.18 0 0.44 0.18 0 0.46 0.18 0 0.48 0.18 0 0.5 0.18 0 0.52 0.18 0 0.54 0.18 0 0.56 0.18 0 0.58 0.18 0 0.6 0.18 0 0.62 0.18 0 0.64 0.18 0 0.66 0.18 0 0.68 0.18 0 0.7 0.18 0 0.72 0.18 0 0.74 0.18 0 0.76 0.18 0 0.78 0.18 0 0.8 0.18 0 0.82 0.18 0 0.84 0.18 0 0.86 0.18 0 0.88 0.18 0 0.9 0.18 0 0.92 0.18 0 0.94 0.18 0 0.96 0.18 0 0.98 0.18 0 1 0.18 0 0 0.2 0 0.02 0.2 0 0.04 0.2 0 0.06 0.2 0 0.08 0.2 0 0.1 0.2 0 0.12 0.2 0 0.14 0.2 0 0.16 0.2 0 0.18 0.2 0 0.2 0.2 0 0.22 0.2 0 0.24 0.2 0 0.26 0.2 0 0.28 0.2 0 0.3 0.2 0 0.32 0.2 0 0.34 0.2 0 0.36 0.2 0 0.38 0.2 0 0.4 0.2 0 0.42 0.2 0 0.44 0.2 0 0.46 0.2 0 0.48 0.2 0 0.5 0.2 0 0.52 0.2 0 0.54 0.2 0 0.56 0.2 0 0.58 0.2 0 0.6 0.2 0 0.62 0.2 0 0.64 0.2 0 0.66 0.2 0 0.68 0.2 0 0.7 0.2 0 0.72 0.2 0 0.74 0.2 0 0.76 0.2 0 0.78 0.2 0 0.8 0.2 0 0.82 0.2 0 0.84 0.2 0 0.86 0.2 0 0.88 0.2 0 0.9 0.2 0 0.92 0.2 0 0.94 0.2 0 0.96 0.2 0 0.98 0.2 0 1 0.2 0 0 0.22 0 0.02 0.22 0 0.04 0.22 0 0.06 0.22 0 0.08 0.22 0 0.1 0.22 0 0.12 0.22 0 0.14 0.22 0 0.16 0.22 0 0.18 0.22 0 0.2 0.22 0 0.22 0.22 0 0.24 0.22 0 0.26 0.22 0 0.28 0.22 0 0.3 0.22 0 0.32 0.22 0 0.34 0.22 0 0.36 0.22 0 0.38 0.22 0 0.4 0.22 0 0.42 0.22 0 0.44 0.22 0 0.46 0.22 0 0.48 0.22 0 0.5 0.22 0 0.52 0.22 0 0.54 0.22 0 0.56 0.22 0 0.58 0.22 0 0.6 0.22 0 0.62 0.22 0 0.64 0.22 0 0.66 0.22 0 0.68 0.22 0 0.7 0.22 0 0.72 0.22 0 0.74 0.22 0 0.76 0.22 0 0.78 0.22 0 0.8 0.22 0 0.82 0.22 0 0.84 0.22 0 0.86 0.22 0 0.88 0.22 0 0.9 0.22 0 0.92 0.22 0 0.94 0.22 0 0.96 0.22 0 0.98 0.22 0 1 0.22 0 0 0.24 0 0.02 0.24 0 0.04 0.24 0 0.06 0.24 0 0.08 0.24 0 0.1 0.24 0 0.12 0.24 0 0.14 0.24 0 0.16 0.24 0 0.18 0.24 0 0.2 0.24 0 0.22 0.24 0 0.24 0.24 0 0.26 0.24 0 0.28 0.24 0 0.3 0.24 0 0.32 0.24 0 0.34 0.24 0 0.36 0.24 0 0.38 0.24 0 0.4 0.24 0 0.42 0.24 0 0.44 0.24 0 0.46 0.24 0 0.48 0.24 0 0.5 0.24 0 0.52 0.24 0 0.54 0.24 0 0.56 0.24 0 0.58 0.24 0 0.6 0.24 0 0.62 0.24 0 0.64 0.24 0 0.66 0.24 0 0.68 0.24 0 0.7 0.24 0 0.72 0.24 0 0.74 0.24 0 0.76 0.24 0 0.78 0.24 0 0.8 0.24 0 0.82 0.24 0 0.84 0.24 0 0.86 0.24 0 0.88 0.24 0 0.9 0.24 0 0.92 0.24 0 0.94 0.24 0 0.96 0.24 0 0.98 0.24 0 1 0.24 0 0 0.26 0 0.02 0.26 0 0.04 0.26 0 0.06 0.26 0 0.08 0.26 0 0.1 0.26 0 0.12 0.26 0 0.14 0.26 0 0.16 0.26 0 0.18 0.26 0 0.2 0.26 0 0.22 0.26 0 0.24 0.26 0 0.26 0.26 0 0.28 0.26 0 0.3 0.26 0 0.32 0.26 0 0.34 0.26 0 0.36 0.26 0 0.38 0.26 0 0.4 0.26 0 0.42 0.26 0 0.44 0.26 0 0.46 0.26 0 0.48 0.26 0 0.5 0.26 0 0.52 0.26 0 0.54 0.26 0 0.56 0.26 0 0.58 0.26 0 0.6 0.26 0 0.62 0.26 0 0.64 0.26 0 0.66 0.26 0 0.68 0.26 0 0.7 0.26 0 0.72 0.26 0 0.74 0.26 0 0.76 0.26 0 0.78 0.26 0 0.8 0.26 0 0.82 0.26 0 0.84 0.26 0 0.86 0.26 0 0.88 0.26 0 0.9 0.26 0 0.92 0.26 0 0.94 0.26 0 0.96 0.26 0 0.98 0.26 0 1 0.26 0 0 0.28 0 0.02 0.28 0 0.04 0.28 0 0.06 0.28 0 0.08 0.28 0 0.1 0.28 0 0.12 0.28 0 0.14 0.28 0 0.16 0.28 0 0.18 0.28 0 0.2 0.28 0 0.22 0.28 0 0.24 0.28 0 0.26 0.28 0 0.28 0.28 0 0.3 0.28 0 0.32 0.28 0 0.34 0.28 0 0.36 0.28 0 0.38 0.28 0 0.4 0.28 0 0.42 0.28 0 0.44 0.28 0 0.46 0.28 0 0.48 0.28 0 0.5 0.28 0 0.52 0.28 0 0.54 0.28 0 0.56 0.28 0 0.58 0.28 0 0.6 0.28 0 0.62 0.28 0 0.64 0.28 0 0.66 0.28 0 0.68 0.28 0 0.7 0.28 0 0.72 0.28 0 0.74 0.28 0 0.76 0.28 0 0.78 0.28 0 0.8 0.28 0 0.82 0.28 0 0.84 0.28 0 0.86 0.28 0 0.88 0.28 0 0.9 0.28 0 0.92 0.28 0 0.94 0.28 0 0.96 0.28 0 0.98 0.28 0 1 0.28 0 0 0.3 0 0.02 0.3 0 0.04 0.3 0 0.06 0.3 0 0.08 0.3 0 0.1 0.3 0 0.12 0.3 0 0.14 0.3 0 0.16 0.3 0 0.18 0.3 0 0.2 0.3 0 0.22 0.3 0 0.24 0.3 0 0.26 0.3 0 0.28 0.3 0 0.3 0.3 0 0.32 0.3 0 0.34 0.3 0 0.36 0.3 0 0.38 0.3 0 0.4 0.3 0 0.42 0.3 0 0.44 0.3 0 0.46 0.3 0 0.48 0.3 0 0.5 0.3 0 0.52 0.3 0 0.54 0.3 0 0.56 0.3 0 0.58 0.3 0 0.6 0.3 0 0.62 0.3 0 0.64 0.3 0 0.66 0.3 0 0.68 0.3 0 0.7 0.3 0 0.72 0.3 0 0.74 0.3 0 0.76 0.3 0 0.78 0.3 0 0.8 0.3 0 0.82 0.3 0 0.84 0.3 0 0.86 0.3 0 0.88 0.3 0 0.9 0.3 0 0.92 0.3 0 0.94 0.3 0 0.96 0.3 0 0.98 0.3 0 1 0.3 0 0 0.32 0 0.02 0.32 0 0.04 0.32 0 0.06 0.32 0 0.08 0.32 0 0.1 0.32 0 0.12 0.32 0 0.14 0.32 0 0.16 0.32 0 0.18 0.32 0 0.2 0.32 0 0.22 0.32 0 0.24 0.32 0 0.26 0.32 0 0.28 0.32 0 0.3 0.32 0 0.32 0.32 0 0.34 0.32 0 0.36 0.32 0 0.38 0.32 0 0.4 0.32 0 0.42 0.32 0 0.44 0.32 0 0.46 0.32 0 0.48 0.32 0 0.5 0.32 0 0.52 0.32 0 0.54 0.32 0 0.56 0.32 0 0.58 0.32 0 0.6 0.32 0 0.62 0.32 0 0.64 0.32 0 0.66 0.32 0 0.68 0.32 0 0.7 0.32 0 0.72 0.32 0 0.74 0.32 0 0.76 0.32 0 0.78 0.32 0 0.8 0.32 0 0.82 0.32 0 0.84 0.32 0 0.86 0.32 0 0.88 0.32 0 0.9 0.32 0 0.92 0.32 0 0.94 0.
[...]
			<PointData Scalars="VitesseX">
				<DataArray Name="VitesseX" type="Float32" format="ascii">
 0 0 0 0 0 0 0 0 0 0 0 0 0 0 0 0 0 0 0 0 0 0 0 0 0 0 0 0 0 0 0 0 0 0 0 0 0 0 0 0 0 0 0 0 0 0 0 0 0 0 -0 0 -0.000390456 -0.00155581 -0.00347775 -0.00612606 -0.00945906 -0.0134242 -0.0179591 -0.022992 -0.0284437 -0.034228 -0.0402538 -0.0464252 -0.0526452 -0.0588163 -0.0648407 -0.0706231 -0.0760724 -0.0811025 -0.0856341 -0.0895957 -0.0929249 -0.095569 -0.0974948 -0.0986493 -0.0990318 -0.0986421 -0.0974574 -0.0955269 -0.0928713 -0.0895329 -0.0855643 -0.0810281 -0.075996 -0.0705471 -0.0647672 -0.0587474 -0.052583 -0.0463702 -0.0402061 -0.0341886 -0.0284123 -0.0229681 -0.0179418 -0.0134125 -0.00945176 -0.00612197 -0.00347577 -0.00155495 -0.000390336 -4.23722e-27 0 -0.000774953 -0.00308892 -0.00690669 -0.0121694 -0.0187951 -0.02668 -0.0357 -0.0457127 -0.0565599 -0.0680694 -0.0800586 -0.092335 -0.104704 -0.116973 -0.128945 -0.140429 -0.151242 -0.161215 -0.170188 -0.178021 -0.18459 -0.189793 -0.193576 -0.195804 -0.196497 -0.195697 -0.193282 -0.189408 -0.184102 -0.177446 -0.169549 -0.160533 -0.150541 -0.139731 -0.128271 -0.116342 -0.104132 -0.091829 -0.0796242 -0.0677109 -0.0562756 -0.0454975 -0.0355456 -0.0265766 -0.0187317 -0.0121349 -0.00689093 -0.00308312 -0.000774176 -8.40814e-27 0 -0.00114733 -0.0045744 -0.0102303 -0.018029 -0.0278502 -0.0395405 -0.0529164 -0.0677665 -0.0838556 -0.100928 -0.118711 -0.136916 -0.155256 -0.173443 -0.191183 -0.208193 -0.224201 -0.238954 -0.252217 -0.263781 -0.273465 -0.281117 -0.286678 -0.289911 -0.290855 -0.289642 -0.285981 -0.280191 -0.272287 -0.262396 -0.250675 -0.23731 -0.222511 -0.206511 -0.189559 -0.171921 -0.153875 -0.135697 -0.117664 -0.100064 -0.0831712 -0.0672484 -0.0525451 -0.039292 -0.0276979 -0.0179463 -0.0101927 -0.00456077 -0.00114552 -1.2447e-26 0 -0.00150175 -0.00598897 -0.0133966 -0.0236137 -0.0364838 -0.0518068 -0.0693424 -0.0888135 -0.109911 -0.132298 -0.155617 -0.179486 -0.203524 -0.227359 -0.2506 -0.272874 -0.293825 -0.313119 -0.330449 -0.345543 -0.358164 -0.368115 -0.375336 -0.37949 -0.380616 -0.378991 -0.374092 -0.366444 -0.356038 -0.343043 -0.327666 -0.310151 -0.290773 -0.269837 -0.247668 -0.22461 -0.20103 -0.177283 -0.153728 -0.13074 -0.108676 -0.0878784 -0.0686724 -0.0513585 -0.0362093 -0.0234648 -0.013329 -0.00596467 -0.00149852 -1.629e-26 0 -0.00183262 -0.00731032 -0.0163557 -0.0288354 -0.0445597 -0.0632854 -0.084719 -0.108522 -0.134315 -0.161686 -0.190195 -0.219372 -0.24875 -0.277873 -0.306259 -0.333452 -0.359015 -0.38254 -0.403652 -0.422018 -0.43735 -0.449413 -0.458147 -0.463125 -0.464364 -0.462327 -0.456224 -0.446805 -0.434032 -0.418114 -0.399306 -0.377906 -0.354251 -0.328711 -0.301681 -0.27358 -0.244854 -0.215932 -0.187246 -0.159254 -0.132387 -0.107063 -0.0836737 -0.0625861 -0.0441317 -0.0286035 -0.0162507 -0.0072728 -0.00182763 -1.98762e-26 0 -0.00213472 -0.00851761 -0.0190609 -0.0336118 -0.0519507 -0.0737953 -0.098804 -0.126581 -0.156684 -0.188629 -0.221901 -0.255946 -0.290219 -0.324186 -0.357283 -0.388972 -0.418745 -0.446122 -0.470669 -0.491997 -0.509774 -0.523727 -0.533802 -0.53949 -0.540779 -0.53833 -0.531079 -0.520004 -0.505037 -0.486425 -0.464465 -0.439508 -0.411944 -0.382203 -0.350747 -0.318059 -0.284656 -0.251034 -0.217691 -0.185157 -0.153932 -0.124499 -0.0973126 -0.0727981 -0.0513407 -0.0332815 -0.0189118 -0.00846468 -0.0021277 -2.31487e-26 0 -0.00240331 -0.0095918 -0.0214697 -0.0378674 -0.0585401 -0.0831708 -0.111375 -0.142707 -0.176664 -0.212701 -0.250233 -0.288632 -0.327278 -0.36557 -0.402866 -0.438558 -0.47207 -0.502861 -0.530441 -0.554375 -0.57429 -0.589882 -0.601105 -0.607372 -0.608656 -0.605793 -0.597473 -0.584884 -0.567932 -0.546895 -0.522114 -0.493982 -0.46294 -0.429471 -0.394092 -0.357344 -0.319808 -0.282037 -0.244583 -0.208041 -0.172971 -0.139912 -0.109374 -0.0818336 -0.0577226 -0.0374254 -0.0212704 -0.00952164 -0.00239401 -2.60557e-26 0 -0.00263413 -0.0105159 -0.0235438 -0.0415352 -0.0642239 -0.0912638 -0.122234 -0.156643 -0.193941 -0.233523 -0.274745 -0.316913 -0.359342 -0.401371 -0.442289 -0.481426 -0.518147 -0.55186 -0.582024 -0.608165 -0.629877 -0.64683 -0.658992 -0.665691 -0.666926 -0.663643 -0.654356 -0.64042 -0.621721 -0.59857 -0.571341 -0.540468 -0.506434 -0.469767 -0.431031 -0.390816 -0.349756 -0.30845 -0.267496 -0.227545 -0.189204 -0.15306 -0.119669 -0.0895505 -0.0631772 -0.0409699 -0.0232895 -0.0104272 -0.0026224 -2.8551e-26 0 -0.00282357 -0.0112754 -0.0252507 -0.0445573 -0.0689124 -0.0979467 -0.131208 -0.168171 -0.20824 -0.250765 -0.295049 -0.340341 -0.385903 -0.431022 -0.474927 -0.516898 -0.556249 -0.592343 -0.624602 -0.652517 -0.675656 -0.693672 -0.706548 -0.713521 -0.714671 -0.710964 -0.700828 -0.685731 -0.665553 -0.64063 -0.611367 -0.57823 -0.541737 -0.502453 -0.46098 -0.417946 -0.374026 -0.329855 -0.28607 -0.243361 -0.202374 -0.163735 -0.128034 -0.095827 -0.0676184 -0.0438593 -0.0249376 -0.0111671 -0.00280929 -3.05949e-26 0 -0.00296864 -0.0118583 -0.0265633 -0.0468858 -0.0725316 -0.103114 -0.138157 -0.177107 -0.219336 -0.264154 -0.310824 -0.358547 -0.406542 -0.454054 -0.500266 -0.544413 -0.585772 -0.623671 -0.6575 -0.686728 -0.710903 -0.729664 -0.743021 -0.750101 -0.751139 -0.747003 -0.736152 -0.720102 -0.698735 -0.672411 -0.64156 -0.606671 -0.568292 -0.527014 -0.483465 -0.438304 -0.392234 -0.345915 -0.30001 -0.255238 -0.212274 -0.171768 -0.134338 -0.100564 -0.0709766 -0.0460482 -0.0261886 -0.01173 -0.00295177 -3.21551e-26 0 -0.00306705 -0.0122554 -0.027461 -0.0484841 -0.0750241 -0.106683 -0.142971 -0.183311 -0.227053 -0.273478 -0.321819 -0.371241 -0.420932 -0.470103 -0.517902 -0.563535 -0.606249 -0.645346 -0.680198 -0.710256 -0.735059 -0.75424 -0.767837 -0.774851 -0.775775 -0.771385 -0.760063 -0.743375 -0.721207 -0.693932 -0.661999 -0.625919 -0.586256 -0.543622 -0.498665 -0.452062 -0.404538 -0.356768 -0.309432 -0.263268 -0.218969 -0.177203 -0.138605 -0.103772 -0.0732508 -0.0475306 -0.0270356 -0.0121109 -0.00304811 -3.32066e-26 0 -0.00311784 -0.0124649 -0.0279445 -0.0493609 -0.0764137 -0.108701 -0.145724 -0.186895 -0.231545 -0.278937 -0.328278 -0.378708 -0.429395 -0.479518 -0.528204 -0.574633 -0.618032 -0.657688 -0.69296 -0.723291 -0.748217 -0.767373 -0.780861 -0.787435 -0.788117 -0.782952 -0.771026 -0.753646 -0.730767 -0.702778 -0.67014 -0.633372 -0.593046 -0.549776 -0.504213 -0.457035 -0.408968 -0.360677 -0.312847 -0.266214 -0.221467 -0.179275 -0.140274 -0.105065 -0.0741978 -0.0481701 -0.0274149 -0.0122882 -0.00309476 -3.37328e-26 0 -0.00311787 -0.0124654 -0.0279465 -0.0493668 -0.0764271 -0.108727 -0.145768 -0.186962 -0.231639 -0.279061 -0.328434 -0.378892 -0.429602 -0.479741 -0.528432 -0.574855 -0.618237 -0.657867 -0.693106 -0.7234 -0.748291 -0.767415 -0.780878 -0.787438 -0.788115 -0.782931 -0.770969 -0.75354 -0.730604 -0.702557 -0.669864 -0.63305 -0.592691 -0.549404 -0.503841 -0.456679 -0.408642 -0.360391 -0.312607 -0.266023 -0.221323 -0.179173 -0.140208 -0.105025 -0.0741771 -0.048161 -0.0274118 -0.0122875 -0.00309471 -3.37254e-26 0 -0.00307136 -0.0122897 -0.0275745 -0.0487453 -0.0755151 -0.107493 -0.144187 -0.185014 -0.229304 -0.276318 -0.325259 -0.375254 -0.425472 -0.475077 -0.52319 -0.568989 -0.611699 -0.650609 -0.685088 -0.71459 -0.738667 -0.756975 -0.769719 -0.775266 -0.775622 -0.769838 -0.757682 -0.740126 -0.717211 -0.689337 -0.656968 -0.620622 -0.580866 -0.538301 -0.493562 -0.447305 -0.400233 -0.352976 -0.306201 -0.260612 -0.21687 -0.175619 -0.137475 -0.10302 -0.072795 -0.0472881 -0.0269301 -0.012079 -0.00304404 -3.31845e-26 0 -0.00297462 -0.011906 -0.0267216 -0.0472512 -0.0732208 -0.104254 -0.139875 -0.179516 -0.222528 -0.268186 -0.315713 -0.364253 -0.412997 -0.461123 -0.507773 -0.552145 -0.593485 -0.631104 -0.664389 -0.692817 -0.71596 -0.733491 -0.745646 -0.7507 -0.75093 -0.744775 -0.732696 -0.715363 -0.692886 -0.665663 -0.63415 -0.598853 -0.56032 -0.519132 -0.475897 -0.431243 -0.38584 -0.340284 -0.295214 -0.251297 -0.209163 -0.169424 -0.132669 -0.0994566 -0.0703065 -0.0456926 -0.0260344 -0.0116835 -0.00294585 -3.21188e-26 0 -0.00283177 -0.0113409 -0.0254678 -0.0450586 -0.0698582 -0.0995111 -0.133565 -0.171477 -0.212621 -0.2563 -0.301761 -0.348176 -0.394768 -0.440732 -0.485242 -0.527523 -0.566851 -0.602565 -0.63408 -0.660901 -0.682627 -0.698956 -0.71018 -0.714391 -0.714409 -0.707924 -0.696084 -0.679212 -0.657498 -0.631331 -0.601152 -0.567447 -0.530739 -0.491578 -0.450536 -0.408201 -0.3652 -0.322081 -0.279449 -0.237919 -0.198077 -0.160497 -0.125728 -0.0942959 -0.0666923 -0.0433677 -0.0247243 -0.0111028 -0.00280111 -3.05453e-26 0 -0.00264443 -0.0105981 -0.0238163 -0.0421644 -0.0654107 -0.093227 -0.125191 -0.160792 -0.199439 -0.24047 -0.28317 -0.32675 -0.370473 -0.413566 -0.455247 -0.49478 -0.531478 -0.56472 -0.593959 -0.618733 -0.638677 -0.653519 -0.663601 -0.666865 -0.666639 -0.65988 -0.648431 -0.632253 -0.611613 -0.586888 -0.558499 -0.526905 -0.492595 -0.456078 -0.417882 -0.378544 -0.338639 -0.298656 -0.259154 -0.220687 -0.183788 -0.148978 -0.116761 -0.0876198 -0.0620091 -0.0403498 -0.0230206 -0.010346 -0.00261208 -2.84889e-26 0 -0.00241554 -0.00968933 -0.0217931 -0.0386142 -0.0599485 -0.0855005 -0.114885 -0.14763 -0.183189 -0.220947 -0.260234 -0.300312 -0.340498 -0.380058 -0.418266 -0.454436 -0.48793 -0.518173 -0.544664 -0.566986 -0.584811 -0.597918 -0.606607 -0.608942 -0.608312 -0.601447 -0.590499 -0.575233 -0.555962 -0.533043 -0.506871 -0.477872 -0.446493 -0.413195 -0.378452 -0.342743 -0.306577 -0.270379 -0.234651 -0.199876 -0.166522 -0.135051 -0.10591 -0.0795334 -0.0563308 -0.0366864 -0.0209498 -0.00942487 -0.00238171 -2.59825e-26 0 -0.00214871 -0.00862898 -0.0194302 -0.0344642 -0.0535582 -0.076454 -0.102809 -0.1322 -0.16413 -0.19804 -0.233316 -0.269283 -0.305317 -0.340739 -0.374885 -0.407131 -0.436896 -0.463661 -0.486978 -0.50648 -0.521884 -0.533086 -0.53995 -0.541752 -0.540232 -0.533572 -0.523207 -0.509059 -0.491428 -0.470649 -0.447087 -0.421125 -0.393164 -0.363609 -0.332872 -0.301364 -0.269521 -0.237698 -0.206327 -0.175812 -0.14655 -0.118933 -0.0933464 -0.0701641 -0.0497468 -0.0324352 -0.0185445 -0.0083538 -0.00211361 -2.30658e-26 0 -0.00184814 -0.00743378 -0.0167649 -0.0297799 -0.0463405 -0.0662303 -0.089155 -0.114745 -0.142563 -0.172111 -0.202843 -0.234154 -0.265488 -0.29623 -0.325792 -0.353614 -0.379185 -0.402048 -0.421816 -0.438175 -0.450894 -0.459972 -0.464913 -0.466062 -0.463681 -0.457279 -0.447621 -0.434779 -0.419034 -0.400695 -0.380091 -0.357562 -0.33345 -0.308102 -0.28186 -0.255064 -0.228054 -0.201128 -0.174629 -0.148876 -0.124188 -0.10088 -0.0792672 -0.0596595 -0.0423606 -0.027663 -0.0158426 -0.00714955 -0.00181198 -1.97852e-26 0 -0.00151856 -0.00612257 -0.0138393 -0.0246352 -0.0384095 -0.0549911 -0.0741385 -0.0955418 -0.118828 -0.14357 -0.169296 -0.19548 -0.22164 -0.247237 -0.271761 -0.294732 -0.315709 -0.334308 -0.350206 -0.36315 -0.37296 -0.379724 -0.382697 -0.38305 -0.379878 -0.373771 -0.364935 -0.353564 -0.339921 -0.324285 -0.306943 -0.288184 -0.268295 -0.247551 -0.226221 -0.204568 -0.182831 -0.161247 -0.140057 -0.119493 -0.0997876 -0.0811756 -0.0638946 -0.048185 -0.0342886 -0.0224449 -0.0128864 -0.00583096 -0.00148154 -1.61926e-26 0 -0.00116518 -0.00471606 -0.0106995 -0.0191115 -0.0298905 -0.0429138 -0.0579967 -0.0748934 -0.0933016 -0.11287 -0.133204 -0.153874 -0.174465 -0.194531 -0.213646 -0.231412 -0.24747 -0.261509 -0.273277 -0.282585 -0.289359 -0.293463 -0.294797 -0.293861 -0.290209 -0.284365 -0.276452 -0.266696 -0.255338 -0.242622 -0.228793 -0.214086 -0.198722 -0.182908 -0.166832 -0.150668 -0.134567 -0.118682 -0.103155 -0.0881247 -0.073734 -0.0601304 -0.0474708 -0.0359214 -0.0256578 -0.016863 -0.0097225 -0.0044187 -0.0011275 -1.23451e-26 0 -0.000793561 -0.00323643 -0.00739512 -0.0132958 -0.0209179 -0.0301892 -0.0409846 -0.053126 -0.066386 -0.0804933 -0.0951389 -0.10999 -0.124708 -0.138944 -0.152363 -0.164654 -0.175542 -0.184796 -0.19224 -0.197762 -0.201322 -0.202716 -0.202401 -0.200042 -0.196035 -0.190464 -0.183562 -0.175539 -0.166612 -0.156991 -0.146871 -0.136432 -0.12583 -0.115192 -0.104624 -0.094212 -0.0840211 -0.0741035 -0.064504 -0.0552659 -0.0464372 -0.038076 -0.0302546 -0.0230618 -0.0166043 -0.0110051 -0.00640062 -0.00293494 -0.000755394 -8.30342e-27 0 -0.000409556 -0.00170702 -0.00397823 -0.00728 -0.0116332 -0.017018 -0.0233705 -0.0305832 -0.0385062 -0.0469525 -0.0557027 -0.0645199 -0.0731538 -0.0813528 -0.0888766 -0.0955067 -0.101056 -0.105376 -0.108389 -0.109958 -0.110214 -0.109083 -0.106714 -0.103232 -0.0987908 -0.093544 -0.0877251 -0.0815304 -0.0751508 -0.0687517 -0.0624828 -0.056463 -0.0507785 -0.0454826 -0.040597 -0.0361152 -0.032008 -0.0282301 -0.0247275 -0.0214454 -0.0183363 -0.0153663 -0.0125215 -0.00981161 -0.0072721 -0.00496437 -0.00297332 -0.00140305 -0.000371094 -4.13155e-27 0 -1.92199e-05 -0.000151946 -0.000502738 -0.00115885 -0.00218303 -0.00360793 -0.0054325 -0.00762063 -0.0101022 -0.0127762 -0.0155169 -0.0181803 -0.0206132 -0.0226628 -0.0241857 -0.0250578 -0.025182 -0.0244957 -0.0229749 -0.0206372 -0.0175409 -0.0137841 -0.00949851 -0.00484409 -6.89167e-08 0.00484413 0.00949863 0.0137843 0.0175413 0.0206375 0.0229752 0.0244957 0.0251818 0.0250574 0.0241854 0.0226626 0.0206132 0.0181803 0.0155169 0.0127763 0.0101022 0.00762067 0.00543254 0.00360794 0.00218303 0.00115885 0.000502738 0.000151946 1.92199e-05 1.04674e-28 0 0.000371094 0.00140305 0.00297332 0.00496437 0.0072721 0.00981162 0.0125216 0.0153664 0.0183363 0.0214455 0.0247275 0.0282301 0.032008 0.0361151 0.0405968 0.0454823 0.0507783 0.0564629 0.0624829 0.0687519 0.0751512 0.0815307 0.0877252 0.093544 0.0987907 0.103232 0.106714 0.109083 0.110215 0.109959 0.10839 0.105377 0.101056 0.0955063 0.0888763 0.0813526 0.0731538 0.0645199 0.0557027 0.0469525 0.0385063 0.0305832 0.0233706 0.017018 0.0116332 0.00728 0.00397823 0.00170702 0.000409556 4.33843e-27 0 0.000755394 0.00293494 0.00640062 0.0110051 0.0166043 0.0230618 0.0302546 0.0380761 0.0464373 0.0552659 0.064504 0.0741035 0.0840211 0.0942119 0.104624 0.115192 0.12583 0.136432 0.146871 0.156991 0.166612 0.175539 0.183562 0.190464 0.196035 0.200042 0.202401 0.202717 0.201322 0.197762 0.19224 0.184797 0.175542 0.164654 0.152363 0.138944 0.124708 0.10999 0.0951389 0.0804933 0.066386 0.053126 0.0409846 0.0301892 0.0209179 0.0132958 0.00739512 0.00323643 0.000793561 8.50304e-27 0 0.0011275 0.0044187 0.0097225 0.016863 0.0256578 0.0359214 0.0474709 0.0601305 0.073734 0.0881248 0.103155 0.118682 0.134567 0.150668 0.166832 0.182908 0.198722 0.214086 0.228793 0.242622 0.255338 0.266696 0.276452 0.284365 0.290209 0.293861 0.294798 0.293463 0.289359 0.282586 0.273277 0.261509 0.24747 0.231412 0.213646 0.194531 0.174465 0.153874 0.133204 0.11287 0.0933016 0.0748934 0.0579967 0.0429139 0.0298905 0.0191115 0.0106995 0.00471606 0.00116518 1.2533e-26 0 0.00148154 0.00583096 0.0128864 0.0224449 0.0342886 0.048185 0.0638946 0.0811757 0.0997877 0.119493 0.140057 0.161247 0.182831 0.204568 0.226221 0.247551 0.268294 0.288184 0.306943 0.324285 0.339921 0.353565 0.364935 0.373771 0.379878 0.38305 0.382698 0.379724 0.37296 0.36315 0.350206 0.334308 0.315709 0.294732 0.271761 0.247236 0.22164 0.19548 0.169296 0.14357 0.118828 0.0955418 0.0741385 0.0549911 0.0384095 0.0246352 0.0138393 0.00612257 0.00151856 1.63648e-26 0 0.00181198 0.00714955 0.0158426 0.027663 0.0423606 0.0596595 0.0792672 0.10088 0.124188 0.148876 0.174629 0.201128 0.228054 0.255064 0.28186 0.308102 0.33345 0.357562 0.380091 0.400695 0.419034 0.434779 0.447621 0.457279 0.463681 0.466062 0.464913 0.459972 0.450894 0.438175 0.421816 0.402048 0.379185 0.353614 0.325792 0.29623 0.265488 0.234154 0.202843 0.172111 0.142563 0.114745 0.089155 0.0662304 0.0463405 0.0297799 0.0167649 0.00743378 0.00184814 1.99385e-26 0 0.00211361 0.0083538 0.0185445 0.0324352 0.0497468 0.0701641 0.0933463 0.118933 0.14655 0.175812 0.206327 0.237698 0.269522 0.301364 0.332872 0.363609 0.393164 0.421125 0.447087 0.470649 0.491428 0.509059 0.523207 0.533572 0.540233 0.541752 0.539951 0.533086 0.521884 0.50648 0.486978 0.463661 0.436896 0.407131 0.374885 0.340739 0.305317 0.269283 0.233316 0.19804 0.16413 0.1322 0.102809 0.076454 0.0535582 0.0344642 0.0194302 0.00862898 0.00214871 2.3198e-26 0 0.00238171 0.00942487 0.0209498 0.0366864 0.0563308 0.0795334 0.10591 0.135051 0.166522 0.199876 0.234651 0.270379 0.306577 0.342743 0.378453 0.413195 0.446493 0.477872 0.506871 0.533043 0.555962 0.575234 0.590499 0.601447 0.608312 0.608943 0.606607 0.597918 0.584811 0.566986 0.544664 0.518173 0.48793 0.454436 0.418266 0.380058 0.340498 0.300312 0.260234 0.220947 0.183189 0.14763 0.114885 0.0855005 0.0599486 0.0386142 0.0217931 0.00968933 0.00241554 2.6092e-26 0 0.00261208 0.010346 0.0230206 0.0403498 0.0620091 0.0876198 0.116761 0.148978 0.183789 0.220687 0.259154 0.298655 0.338638 0.378544 0.417882 0.456078 0.492595 0.526905 0.558499 0.586888 0.611613 0.632253 0.648431 0.65988 0.666639 0.666865 0.663601 0.65352 0.638677 0.618733 0.593959 0.56472 0.531478 0.49478 0.455247 0.413566 0.370473 0.32675 0.28317 0.24047 0.199438 0.160792 0.125191 0.093227 0.0654107 0.0421644 0.0238163 0.0105981 0.00264443 2.85754e-26 0 0.00280111 0.0111028 0.0247243 0.0433677 0.0666923 0.0942959 0.125728 0.160497 0.198077 0.237919 0.279449 0.322081 0.3652 0.4082 0.450536 0.491578 0.530739 0.567447 0.601152 0.631331 0.657499 0.679213 0.696084 0.707924 0.714409 0.714391 0.71018 0.698957 0.682627 0.660901 0.63408 0.602565 0.566851 0.527523 0.485241 0.440732 0.394768 0.348176 0.301761 0.2563 0.212621 0.171477 0.133565 0.0995112 0.0698582 0.0450586 0.0254678 0.0113409 0.00283177 3.06092e-26 0 0.00294585 0.0116835 0.0260344 0.0456926 0.0703065 0.0994566 0.132669 0.169424 0.209163 0.251297 0.295214 0.340284 0.38584 0.431243 0.475897 0.519132 0.56032 0.598853 0.63415 0.665664 0.692886 0.715363 0.732696 0.744775 0.75093 0.7507 0.745646 0.733491 0.71596 0.692817 0.664389 0.631103 0.593485 0.552145 0.507773 0.461123 0.412997 0.364253 0.315712 0.268186 0.222527 0.179516 0.139875 0.104254 0.0732208 0.0472512 0.0267216 0.011906 0.00297462 3.21616e-26 0 0.00304404 0.012079 0.0269301 0.0472881 0.072795 0.10302 0.137475 0.175619 0.21687 0.260611 0.306201 0.352976 0.400233 0.447305 0.493562 0.538301 0.580866 0.620622 0.656968 0.689337 0.717211 0.740126 0.757682 0.769838 0.775622 0.775266 0.769719 0.756975 0.738667 0.71459 0.685088 0.650609 0.611699 0.568989 0.52319 0.475077 0.425472 0.375254 0.325259 0.276318 0.229304 0.185014 0.144187 0.107493 0.0755151 0.0487453 0.0275745 0.0122897 0.00307136 3.32082e-26 0 0.00309471 0.0122875 0.0274118 0.048161 0.0741771 0.105025 0.140208 0.179173 0.221323 0.266023 0.312607 0.360391 0.408642 0.456679 0.503842 0.549404 0.592691 0.63305 0.669864 0.702557 0.730604 0.75354 0.770969 0.782931 0.788115 0.787438 0.780878 0.767415 0.74829 0.7234 0.693105 0.657867 0.618237 0.574855 0.528432 0.479741 0.429602 0.378892 0.328434 0.279061 0.231639 0.186962 0.145768 0.108727 0.0764271 0.0493668 0.0279465 0.0124654 0.00311787 3.37328e-26 0 0.00309476 0.0122882 0.0274149 0.0481701 0.0741978 0.105065 0.140274 0.179275 0.221467 0.266214 0.312847 0.360677 0.408968 0.457035 0.504213 0.549776 0.593045 0.633372 0.67014 0.702778 0.730767 0.753647 0.771026 0.782952 0.788117 0.787435 0.780861 0.767373 0.748217 0.723291 0.69296 0.657688 0.618032 0.574633 0.528204 0.479518 0.429395 0.378708 0.328278 0.278937 0.231545 0.186895 0.145724 0.108701 0.0764137 0.0493609 0.0279445 0.0124649 0.00311784 3.3727e-26 0 0.00304811 0.0121109 0.0270356 0.0475306 0.0732508 0.103772 0.138605 0.177203 0.218969 0.263268 0.309431 0.356768 0.404538 0.452062 0.498665 0.543622 0.586256 0.625919 0.661999 0.693932 0.721206 0.743375 0.760063 0.771385 0.775775 0.774851 0.767837 0.754239 0.735059 0.710256 0.680198 0.645346 0.606249 0.563535 0.517902 0.470103 0.420932 0.371241 0.321819 0.273478 0.227053 0.183311 0.142971 0.106683 0.0750241 0.0484841 0.027461 0.0122554 0.00306705 3.3191e-26 0 0.00295177 0.01173 0.0261886 0.0460482 0.0709766 0.100564 0.134338 0.171768 0.212274 0.255238 0.30001 0.345915 0.392234 0.438304 0.483465 0.527014 0.568292 0.606671 0.641559 0.672411 0.698735 0.720102 0.736152 0.747003 0.7