<?xml version="1.0"?>
<VTKFile type="PolyData">
	<PolyData>
		<Piece NumberOfPoints="2601" NumberOfPolys="2500">
			<Points>
				<DataArray type="Float32" NumberOfComponents="3" format="ascii">
 0 0 0 0.02 0 0 0.04 0 0 0.06 0 0 0.08 0 0 0.1 0 0 0.12 0 0 0.14 0 0 0.16 0 0 0.18 0 0 0.2 0 0 0.22 0 0 0.24 0 0 0.26 0 0 0.28 0 0 0.3 0 0 0.32 0 0 0.34 0 0 0.36 0 0 0.38 0 0 0.4 0 0 0.42 0 0 0.44 0 0 0.46 0 0 0.48 0 0 0.5 0 0 0.52 0 0 0.54 0 0 0.56 0 0 0.58 0 0 0.6 0 0 0.62 0 0 0.64 0 0 0.66 0 0 0.68 0 0 0.7 0 0 0.72 0 0 0.74 0 0 0.76 0 0 0.78 0 0 0.8 0 0 0.82 0 0 0.84 0 0 0.86 0 0 0.88 0 0 0.9 0 0 0.92 0 0 0.94 0 0 0.96 0 0 0.98 0 0 1 0 0 0 0.02 0 0.02 0.02 0 0.04 0.02 0 0.06 0.02 0 0.08 0.02 0 0.1 0.02 0 0.12 0.02 0 0.14 0.02 0 0.16 0.02 0 0.18 0.02 0 0.2 0.02 0 0.22 0.02 0 0.24 0.02 0 0.26 0.02 0 0.28 0.02 0 0.3 0.02 0 0.32 0.02 0 0.34 0.02 0 0.36 0.02 0 0.38 0.02 0 0.4 0.02 0 0.42 0.02 0 0.44 0.02 0 0.46 0.02 0 0.48 0.02 0 0.5 0.02 0 0.52 0.02 0 0.54 0.02 0 0.56 0.02 0 0.58 0.02 0 0.6 0.02 0 0.62 0.02 0 0.64 0.02 0 0.66 0.02 0 0.68 0.02 0 0.7 0.02 0 0.72 0.02 0 0.74 0.02 0 0.76 0.02 0 0.78 0.02 0 0.8 0.02 0 0.82 0.02 0 0.84 0.02 0 0.86 0.02 0 0.88 0.02 0 0.9 0.02 0 0.92 0.02 0 0.94 0.02 0 0.96 0.02 0 0.98 0.02 0 1 0.02 0 0 0.04 0 0.02 0.04 0 0.04 0.04 0 0.06 0.04 0 0.08 0.04 0 0.1 0.04 0 0.12 0.04 0 0.14 0.04 0 0.16 0.04 0 0.18 0.04 0 0.2 0.04 0 0.22 0.04 0 0.24 0.04 0 0.26 0.04 0 0.28 0.04 0 0.3 0.04 0 0.32 0.04 0 0.34 0.04 0 0.36 0.04 0 0.38 0.04 0 0.4 0.04 0 0.42 0.04 0 0.44 0.04 0 0.46 0.04 0 0.48 0.04 0 0.5 0.04 0 0.52 0.04 0 0.54 0.04 0 0.56 0.04 0 0.58 0.04 0 0.6 0.04 0 0.62 0.04 0 0.64 0.04 0 0.66 0.04 0 0.68 0.04 0 0.7 0.04 0 0.72 0.04 0 0.74 0.04 0 0.76 0.04 0 0.78 0.04 0 0.8 0.04 0 0.82 0.04 0 0.84 0.04 0 0.86 0.04 0 0.88 0.04 0 0.9 0.04 0 0.92 0.04 0 0.94 0.04 0 0.96 0.04 0 0.98 0.04 0 1 0.04 0 0 0.06 0 0.02 0.06 0 0.04 0.06 0 0.06 0.06 0 0.08 0.06 0 0.1 0.06 0 0.12 0.06 0 0.14 0.06 0 0.16 0.06 0 0.18 0.06 0 0.2 0.06 0 0.22 0.06 0 0.24 0.06 0 0.26 0.06 0 0.28 0.06 0 0.3 0.06 0 0.32 0.06 0 0.34 0.06 0 0.36 0.06 0 0.38 0.06 0 0.4 0.06 0 0.42 0.06 0 0.44 0.06 0 0.46 0.06 0 0.48 0.06 0 0.5 0.06 0 0.52 0.06 0 0.54 0.06 0 0.56 0.06 0 0.58 0.06 0 0.6 0.06 0 0.62 0.06 0 0.64 0.06 0 0.66 0.06 0 0.68 0.06 0 0.7 0.06 0 0.72 0.06 0 0.74 0.06 0 0.76 0.06 0 0.78 0.06 0 0.8 0.06 0 0.82 0.06 0 0.84 0.06 0 0.86 0.06 0 0.88 0.06 0 0.9 0.06 0 0.92 0.06 0 0.94 0.06 0 0.96 0.06 0 0.98 0.06 0 1 0.06 0 0 0.08 0 0.02 0.08 0 0.04 0.08 0 0.06 0.08 0 0.08 0.08 0 0.1 0.08 0 0.12 0.08 0 0.14 0.08 0 0.16 0.08 0 0.18 0.08 0 0.2 0.08 0 0.22 0.08 0 0.24 0.08 0 0.26 0.08 0 0.28 0.08 0 0.3 0.08 0 0.32 0.08 0 0.34 0.08 0 0.36 0.08 0 0.38 0.08 0 0.4 0.08 0 0.42 0.08 0 0.44 0.08 0 0.46 0.08 0 0.48 0.08 0 0.5 0.08 0 0.52 0.08 0 0.54 0.08 0 0.56 0.08 0 0.58 0.08 0 0.6 0.08 0 0.62 0.08 0 0.64 0.08 0 0.66 0.08 0 0.68 0.08 0 0.7 0.08 0 0.72 0.08 0 0.74 0.08 0 0.76 0.08 0 0.78 0.08 0 0.8 0.08 0 0.82 0.08 0 0.84 0.08 0 0.86 0.08 0 0.88 0.08 0 0.9 0.08 0 0.92 0.08 0 0.94 0.08 0 0.96 0.08 0 0.98 0.08 0 1 0.08 0 0 0.1 0 0.02 0.1 0 0.04 0.1 0 0.06 0.1 0 0.08 0.1 0 0.1 0.1 0 0.12 0.1 0 0.14 0.1 0 0.16 0.1 0 0.18 0.1 0 0.2 0.1 0 0.22 0.1 0 0.24 0.1 0 0.26 0.1 0 0.28 0.1 0 0.3 0.1 0 0.32 0.1 0 0.34 0.1 0 0.36 0.1 0 0.38 0.1 0 0.4 0.1 0 0.42 0.1 0 0.44 0.1 0 0.46 0.1 0 0.48 0.1 0 0.5 0.1 0 0.52 0.1 0 0.54 0.1 0 0.56 0.1 0 0.58 0.1 0 0.6 0.1 0 0.62 0.1 0 0.64 0.1 0 0.66 0.1 0 0.68 0.1 0 0.7 0.1 0 0.72 0.1 0 0.74 0.1 0 0.76 0.1 0 0.78 0.1 0 0.8 0.1 0 0.82 0.1 0 0.84 0.1 0 0.86 0.1 0 0.88 0.1 0 0.9 0.1 0 0.92 0.1 0 0.94 0.1 0 0.96 0.1 0 0.98 0.1 0 1 0.1 0 0 0.12 0 0.02 0.12 0 0.04 0.12 0 0.06 0.12 0 0.08 0.12 0 0.1 0.12 0 0.12 0.12 0 0.14 0.12 0 0.16 0.12 0 0.18 0.12 0 0.2 0.12 0 0.22 0.12 0 0.24 0.12 0 0.26 0.12 0 0.28 0.12 0 0.3 0.12 0 0.32 0.12 0 0.34 0.12 0 0.36 0.12 0 0.38 0.12 0 0.4 0.12 0 0.42 0.12 0 0.44 0.12 0 0.46 0.12 0 0.48 0.12 0 0.5 0.12 0 0.52 0.12 0 0.54 0.12 0 0.56 0.12 0 0.58 0.12 0 0.6 0.12 0 0.62 0.12 0 0.64 0.12 0 0.66 0.12 0 0.68 0.12 0 0.7 0.12 0 0.72 0.12 0 0.74 0.12 0 0.76 0.12 0 0.78 0.12 0 0.8 0.12 0 0.82 0.12 0 0.84 0.12 0 0.86 0.12 0 0.88 0.12 0 0.9 0.12 0 0.92 0.12 0 0.94 0.12 0 0.96 0.12 0 0.98 0.12 0 1 0.12 0 0 0.14 0 0.02 0.14 0 0.04 0.14 0 0.06 0.14 0 0.08 0.14 0 0.1 0.14 0 0.12 0.14 0 0.14 0.14 0 0.16 0.14 0 0.18 0.14 0 0.2 0.14 0 0.22 0.14 0 0.24 0.14 0 0.26 0.14 0 0.28 0.14 0 0.3 0.14 0 0.32 0.14 0 0.34 0.14 0 0.36 0.14 0 0.38 0.14 0 0.4 0.14 0 0.42 0.14 0 0.44 0.14 0 0.46 0.14 0 0.48 0.14 0 0.5 0.14 0 0.52 0.14 0 0.54 0.14 0 0.56 0.14 0 0.58 0.14 0 0.6 0.14 0 0.62 0.14 0 0.64 0.14 0 0.66 0.14 0 0.68 0.14 0 0.7 0.14 0 0.72 0.14 0 0.74 0.14 0 0.76 0.14 0 0.78 0.14 0 0.8 0.14 0 0.82 0.14 0 0.84 0.14 0 0.86 0.14 0 0.88 0.14 0 0.9 0.14 0 0.92 0.14 0 0.94 0.14 0 0.96 0.14 0 0.98 0.14 0 1 0.14 0 0 0.16 0 0.02 0.16 0 0.04 0.16 0 0.06 0.16 0 0.08 0.16 0 0.1 0.16 0 0.12 0.16 0 0.14 0.16 0 0.16 0.16 0 0.18 0.16 0 0.2 0.16 0 0.22 0.16 0 0.24 0.16 0 0.26 0.16 0 0.28 0.16 0 0.3 0.16 0 0.32 0.16 0 0.34 0.16 0 0.36 0.16 0 0.38 0.16 0 0.4 0.16 0 0.42 0.16 0 0.44 0.16 0 0.46 0.16 0 0.48 0.16 0 0.5 0.16 0 0.52 0.16 0 0.54 0.16 0 0.56 0.16 0 0.58 0.16 0 0.6 0.16 0 0.62 0.16 0 0.64 0.16 0 0.66 0.16 0 0.68 0.16 0 0.7 0.16 0 0.72 0.16 0 0.74 0.16 0 0.76 0.16 0 0.78 0.16 0 0.8 0.16 0 0.82 0.16 0 0.84 0.16 0 0.86 0.16 0 0.88 0.16 0 0.9 0.16 0 0.92 0.16 0 0.94 0.16 0 0.96 0.16 0 0.98 0.16 0 1 0.16 0 0 0.18 0 0.02 0.18 0 0.04 0.18 0 0.06 0.18 0 0.08 0.18 0 0.1 0.18 0 0.12 0.18 0 0.14 0.18 0 0.16 0.18 0 0.18 0.18 0 0.2 0.18 0 0.22 0.18 0 0.24 0.18 0 0.26 0.18 0 0.28 0.18 0 0.3 0.18 0 0.32 0.18 0 0.34 0.18 0 0.36 0.18 0 0.38 0.18 0 0.4 0.18 0 0.42 0.18 0 0.44 0.18 0 0.46 0.18 0 0.48 0.18 0 0.5 0.18 0 0.52 0.18 0 0.54 0.18 0 0.56 0.18 0 0.58 0.18 0 0.6 0.18 0 0.62 0.18 0 0.64 0.18 0 0.66 0.18 0 0.68 0.18 0 0.7 0.18 0 0.72 0.18 0 0.74 0.18 0 0.76 0.18 0 0.78 0.18 0 0.8 0.18 0 0.82 0.18 0 0.84 0.18 0 0.86 0.18 0 0.88 0.18 0 0.9 0.18 0 0.92 0.18 0 0.94 0.18 0 0.96 0.18 0 0.98 0.18 0 1 0.18 0 0 0.2 0 0.02 0.2 0 0.04 0.2 0 0.06 0.2 0 0.08 0.2 0 0.1 0.2 0 0.12 0.2 0 0.14 0.2 0 0.16 0.2 0 0.18 0.2 0 0.2 0.2 0 0.22 0.2 0 0.24 0.2 0 0.26 0.2 0 0.28 0.2 0 0.3 0.2 0 0.32 0.2 0 0.34 0.2 0 0.36 0.2 0 0.38 0.2 0 0.4 0.2 0 0.42 0.2 0 0.44 0.2 0 0.46 0.2 0 0.48 0.2 0 0.5 0.2 0 0.52 0.2 0 0.54 0.2 0 0.56 0.2 0 0.58 0.2 0 0.6 0.2 0 0.62 0.2 0 0.64 0.2 0 0.66 0.2 0 0.68 0.2 0 0.7 0.2 0 0.72 0.2 0 0.74 0.2 0 0.76 0.2 0 0.78 0.2 0 0.8 0.2 0 0.82 0.2 0 0.84 0.2 0 0.86 0.2 0 0.88 0.2 0 0.9 0.2 0 0.92 0.2 0 0.94 0.2 0 0.96 0.2 0 0.98 0.2 0 1 0.2 0 0 0.22 0 0.02 0.22 0 0.04 0.22 0 0.06 0.22 0 0.08 0.22 0 0.1 0.22 0 0.12 0.22 0 0.14 0.22 0 0.16 0.22 0 0.18 0.22 0 0.2 0.22 0 0.22 0.22 0 0.24 0.22 0 0.26 0.22 0 0.28 0.22 0 0.3 0.22 0 0.32 0.22 0 0.34 0.22 0 0.36 0.22 0 0.38 0.22 0 0.4 0.22 0 0.42 0.22 0 0.44 0.22 0 0.46 0.22 0 0.48 0.22 0 0.5 0.22 0 0.52 0.22 0 0.54 0.22 0 0.56 0.22 0 0.58 0.22 0 0.6 0.22 0 0.62 0.22 0 0.64 0.22 0 0.66 0.22 0 0.68 0.22 0 0.7 0.22 0 0.72 0.22 0 0.74 0.22 0 0.76 0.22 0 0.78 0.22 0 0.8 0.22 0 0.82 0.22 0 0.84 0.22 0 0.86 0.22 0 0.88 0.22 0 0.9 0.22 0 0.92 0.22 0 0.94 0.22 0 0.96 0.22 0 0.98 0.22 0 1 0.22 0 0 0.24 0 0.02 0.24 0 0.04 0.24 0 0.06 0.24 0 0.08 0.24 0 0.1 0.24 0 0.12 0.24 0 0.14 0.24 0 0.16 0.24 0 0.18 0.24 0 0.2 0.24 0 0.22 0.24 0 0.24 0.24 0 0.26 0.24 0 0.28 0.24 0 0.3 0.24 0 0.32 0.24 0 0.34 0.24 0 0.36 0.24 0 0.38 0.24 0 0.4 0.24 0 0.42 0.24 0 0.44 0.24 0 0.46 0.24 0 0.48 0.24 0 0.5 0.24 0 0.52 0.24 0 0.54 0.24 0 0.56 0.24 0 0.58 0.24 0 0.6 0.24 0 0.62 0.24 0 0.64 0.24 0 0.66 0.24 0 0.68 0.24 0 0.7 0.24 0 0.72 0.24 0 0.74 0.24 0 0.76 0.24 0 0.78 0.24 0 0.8 0.24 0 0.82 0.24 0 0.84 0.24 0 0.86 0.24 0 0.88 0.24 0 0.9 0.24 0 0.92 0.24 0 0.94 0.24 0 0.96 0.24 0 0.98 0.24 0 1 0.24 0 0 0.26 0 0.02 0.26 0 0.04 0.26 0 0.06 0.26 0 0.08 0.26 0 0.1 0.26 0 0.12 0.26 0 0.14 0.26 0 0.16 0.26 0 0.18 0.26 0 0.2 0.26 0 0.22 0.26 0 0.24 0.26 0 0.26 0.26 0 0.28 0.26 0 0.3 0.26 0 0.32 0.26 0 0.34 0.26 0 0.36 0.26 0 0.38 0.26 0 0.4 0.26 0 0.42 0.26 0 0.44 0.26 0 0.46 0.26 0 0.48 0.26 0 0.5 0.26 0 0.52 0.26 0 0.54 0.26 0 0.56 0.26 0 0.58 0.26 0 0.6 0.26 0 0.62 0.26 0 0.64 0.26 0 0.66 0.26 0 0.68 0.26 0 0.7 0.26 0 0.72 0.26 0 0.74 0.26 0 0.76 0.26 0 0.78 0.26 0 0.8 0.26 0 0.82 0.26 0 0.84 0.26 0 0.86 0.26 0 0.88 0.26 0 0.9 0.26 0 0.92 0.26 0 0.94 0.26 0 0.96 0.26 0 0.98 0.26 0 1 0.26 0 0 0.28 0 0.02 0.28 0 0.04 0.28 0 0.06 0.28 0 0.08 0.28 0 0.1 0.28 0 0.12 0.28 0 0.14 0.28 0 0.16 0.28 0 0.18 0.28 0 0.2 0.28 0 0.22 0.28 0 0.24 0.28 0 0.26 0.28 0 0.28 0.28 0 0.3 0.28 0 0.32 0.28 0 0.34 0.28 0 0.36 0.28 0 0.38 0.28 0 0.4 0.28 0 0.42 0.28 0 0.44 0.28 0 0.46 0.28 0 0.48 0.28 0 0.5 0.28 0 0.52 0.28 0 0.54 0.28 0 0.56 0.28 0 0.58 0.28 0 0.6 0.28 0 0.62 0.28 0 0.64 0.28 0 0.66 0.28 0 0.68 0.28 0 0.7 0.28 0 0.72 0.28 0 0.74 0.28 0 0.76 0.28 0 0.78 0.28 0 0.8 0.28 0 0.82 0.28 0 0.84 0.28 0 0.86 0.28 0 0.88 0.28 0 0.9 0.28 0 0.92 0.28 0 0.94 0.28 0 0.96 0.28 0 0.98 0.28 0 1 0.28 0 0 0.3 0 0.02 0.3 0 0.04 0.3 0 0.06 0.3 0 0.08 0.3 0 0.1 0.3 0 0.12 0.3 0 0.14 0.3 0 0.16 0.3 0 0.18 0.3 0 0.2 0.3 0 0.22 0.3 0 0.24 0.3 0 0.26 0.3 0 0.28 0.3 0 0.3 0.3 0 0.32 0.3 0 0.34 0.3 0 0.36 0.3 0 0.38 0.3 0 0.4 0.3 0 0.42 0.3 0 0.44 0.3 0 0.46 0.3 0 0.48 0.3 0 0.5 0.3 0 0.52 0.3 0 0.54 0.3 0 0.56 0.3 0 0.58 0.3 0 0.6 0.3 0 0.62 0.3 0 0.64 0.3 0 0.66 0.3 0 0.68 0.3 0 0.7 0.3 0 0.72 0.3 0 0.74 0.3 0 0.76 0.3 0 0.78 0.3 0 0.8 0.3 0 0.82 0.3 0 0.84 0.3 0 0.86 0.3 0 0.88 0.3 0 0.9 0.3 0 0.92 0.3 0 0.94 0.3 0 0.96 0.3 0 0.98 0.3 0 1 0.3 0 0 0.32 0 0.02 0.32 0 0.04 0.32 0 0.06 0.32 0 0.08 0.32 0 0.1 0.32 0 0.12 0.32 0 0.14 0.32 0 0.16 0.32 0 0.18 0.32 0 0.2 0.32 0 0.22 0.32 0 0.24 0.32 0 0.26 0.32 0 0.28 0.32 0 0.3 0.32 0 0.32 0.32 0 0.34 0.32 0 0.36 0.32 0 0.38 0.32 0 0.4 0.32 0 0.42 0.32 0 0.44 0.32 0 0.46 0.32 0 0.48 0.32 0 0.5 0.32 0 0.52 0.32 0 0.54 0.32 0 0.56 0.32 0 0.58 0.32 0 0.6 0.32 0 0.62 0.32 0 0.64 0.32 0 0.66 0.32 0 0.68 0.32 0 0.7 0.32 0 0.72 0.32 0 0.74 0.32 0 0.76 0.32 0 0.78 0.32 0 0.8 0.32 0 0.82 0.32 0 0.84 0.32 0 0.86 0.32 0 0.88 0.32 0 0.9 0.32 0 0.92 0.32 0 0.94 0.
[...]
			<PointData Scalars="VitesseX">
				<DataArray Name="VitesseX" type="Float32" format="ascii">
 0 0 0 0 0 0 0 0 0 0 0 0 0 0 0 0 0 0 0 0 0 0 0 0 0 0 0 0 0 0 0 0 0 0 0 0 0 0 0 0 0 0 0 0 0 0 0 0 0 0 0 0 0.000478448 0.00190589 0.00426026 0.00750361 0.0115847 0.0164391 0.0219901 0.0281502 0.0348224 0.0419016 0.0492765 0.056831 0.0644453 0.0720004 0.0793787 0.0864632 0.0931425 0.0993114 0.104873 0.109739 0.113833 0.11709 0.119459 0.120917 0.121394 0.120928 0.119515 0.117154 0.113913 0.109833 0.104978 0.0994231 0.0932572 0.0865774 0.0794889 0.0721038 0.0645386 0.0569136 0.049348 0.0419608 0.0348695 0.0281861 0.022016 0.0164566 0.0115957 0.00750975 0.00426322 0.00190718 0.000478627 5.19249e-27 0 0.000948839 0.00377833 0.00844461 0.0148701 0.0229525 0.0325635 0.0435509 0.0557416 0.0689442 0.0829517 0.0975449 0.112496 0.127566 0.142525 0.157142 0.171186 0.184438 0.196688 0.207746 0.217436 0.225606 0.232126 0.236891 0.23988 0.240865 0.240042 0.237331 0.232703 0.22634 0.2183 0.208707 0.197713 0.185491 0.172235 0.158155 0.143474 0.128427 0.113256 0.0981975 0.0834902 0.0693713 0.0560651 0.0437828 0.0327188 0.0230478 0.014922 0.00846829 0.00378704 0.000950006 1.03022e-26 0 0.00140383 0.00558832 0.0124887 0.0219869 0.033931 0.04813 0.0643591 0.0823627 0.101859 0.122542 0.144092 0.166172 0.188432 0.210533 0.23214 0.252912 0.272524 0.29067 0.307067 0.321456 0.33361 0.343333 0.35047 0.355023 0.356523 0.355433 0.35151 0.344724 0.335378 0.323537 0.309383 0.293139 0.275062 0.255438 0.23458 0.21282 0.190507 0.168005 0.145664 0.123839 0.102887 0.0831413 0.064917 0.0485035 0.0341598 0.0221112 0.0125452 0.00560881 0.00140656 1.52483e-26 0 0.00183627 0.00730746 0.0163288 0.0287421 0.0443472 0.0628938 0.0840874 0.107595 0.133048 0.160051 0.188185 0.217016 0.246084 0.274954 0.303192 0.330353 0.356014 0.379778 0.401272 0.42016 0.43614 0.448958 0.458405 0.464522 0.466541 0.465286 0.460259 0.451469 0.439334 0.423916 0.405454 0.384236 0.360598 0.334915 0.307597 0.279084 0.249832 0.220326 0.191024 0.162392 0.134904 0.109 0.0850942 0.0635674 0.0447598 0.0289659 0.0164303 0.00734398 0.00184113 1.9953e-26 0 0.00223937 0.0089088 0.0199048 0.0350294 0.0540374 0.0766224 0.102425 0.13104 0.162021 0.194887 0.229131 0.264227 0.299615 0.334773 0.369179 0.402289 0.433593 0.462605 0.488875 0.511988 0.53158 0.547333 0.55899 0.566638 0.569184 0.56786 0.561855 0.551252 0.536565 0.517853 0.495403 0.469567 0.44075 0.409413 0.376058 0.341222 0.305469 0.269397 0.233562 0.198542 0.164918 0.133233 0.103996 0.0776733 0.0546807 0.035378 0.0200626 0.00896519 0.00224687 2.43426e-26 0 0.00260681 0.0103673 0.0231603 0.04075 0.0628491 0.0890998 0.119084 0.15233 0.188321 0.226501 0.266283 0.30706 0.348181 0.389049 0.429061 0.467587 0.504036 0.537846 0.568491 0.595492 0.618418 0.636901 0.650634 0.659749 0.662835 0.661526 0.654691 0.642495 0.625535 0.603864 0.577812 0.547784 0.514254 0.477757 0.438882 0.398256 0.356541 0.314442 0.272609 0.231718 0.192456 0.15546 0.121325 0.0905986 0.0637661 0.0412464 0.0233845 0.0104469 0.00261738 2.8348e-26 0 0.00293285 0.0116602 0.0260442 0.0458139 0.0706437 0.10013 0.133801 0.171129 0.211534 0.254395 0.299056 0.344839 0.391016 0.436923 0.481892 0.525214 0.566229 0.604309 0.638862 0.669348 0.695283 0.716244 0.731886 0.742373 0.746016 0.744791 0.737297 0.723753 0.704836 0.680587 0.651375 0.617651 0.579948 0.538869 0.495077 0.449285 0.402243 0.354752 0.307547 0.261398 0.217084 0.175329 0.136808 0.102139 0.0718726 0.0464784 0.0263438 0.0117656 0.00294682 3.19067e-26 0 0.00321238 0.0127673 0.0285115 0.0501417 0.0772986 0.109538 0.146345 0.18714 0.231293 0.278128 0.326931 0.376968 0.427443 0.47764 0.526836 0.574259 0.61919 0.660943 0.698874 0.732388 0.760954 0.784106 0.801457 0.813195 0.817417 0.816329 0.808366 0.793739 0.77321 0.746808 0.714928 0.678062 0.636793 0.591781 0.543755 0.493503 0.441851 0.389688 0.337826 0.287112 0.238413 0.192526 0.1502 0.112114 0.0788722 0.0509916 0.0288937 0.0129007 0.00323002 3.49629e-26 0 0.00344104 0.0136713 0.0305233 0.0536652 0.0827091 0.117177 0.156517 0.200111 0.247287 0.297325 0.349468 0.402936 0.456884 0.510555 0.563182 0.613944 0.662078 0.706851 0.747575 0.783613 0.814393 0.839411 0.858245 0.871088 0.875911 0.874997 0.866773 0.851342 0.829574 0.801475 0.767463 0.72806 0.683888 0.635654 0.584146 0.530209 0.47474 0.4187 0.362965 0.308454 0.256104 0.20678 0.161289 0.120364 0.0846545 0.0547145 0.030994 0.0138341 0.00346251 3.74689e-26 0 0.00361525 0.0143582 0.0320481 0.0563292 0.0867901 0.122926 0.164158 0.209837 0.259262 0.311682 0.36631 0.422334 0.478875 0.535146 0.590354 0.643642 0.694214 0.741305 0.784193 0.82221 0.854751 0.881281 0.90135 0.915134 0.920575 0.919862 0.911595 0.895648 0.873033 0.843722 0.808147 0.766851 0.720485 0.669794 0.615607 0.558822 0.500388 0.441325 0.382567 0.325085 0.269879 0.217865 0.1699 0.126759 0.0891279 0.0575885 0.0326115 0.0145511 0.00364062 3.93857e-26 0 0.00373308 0.0148232 0.0330807 0.0581333 0.0895529 0.126816 0.169324 0.216408 0.267346 0.321367 0.377665 0.435408 0.493697 0.551723 0.608678 0.663682 0.715915 0.76459 0.80896 0.848333 0.882077 0.909635 0.930533 0.944942 0.95075 0.950211 0.942126 0.925957 0.902899 0.872879 0.836334 0.793819 0.746003 0.693657 0.63764 0.578887 0.518386 0.457205 0.39632 0.336742 0.279518 0.225605 0.175896 0.131198 0.0922217 0.059568 0.0337206 0.0150405 0.00376156 4.06833e-26 0 0.00378962 0.0150358 0.0335308 0.0588838 0.0906527 0.128303 0.171226 0.218749 0.270148 0.324653 0.38146 0.43974 0.498604 0.557237 0.614848 0.670557 0.723546 0.773029 0.818256 0.85853 0.893209 0.921721 0.943573 0.958823 0.96579 0.965627 0.958251 0.942314 0.919386 0.889298 0.852482 0.809497 0.761019 0.707835 0.650827 0.590957 0.529243 0.466787 0.404607 0.343739 0.285268 0.230184 0.179405 0.133761 0.0939796 0.060672 0.0343261 0.0153012 0.0038243 4.13415e-26 0 0.00378953 0.0150346 0.0335252 0.0588673 0.0906152 0.128231 0.171105 0.218565 0.269887 0.324306 0.381023 0.439219 0.49801 0.556588 0.614169 0.669876 0.722895 0.772436 0.817746 0.858119 0.892905 0.92152 0.943463 0.958782 0.965785 0.96563 0.958277 0.942384 0.919513 0.889491 0.852742 0.809818 0.761389 0.708238 0.651243 0.591364 0.529624 0.467125 0.404894 0.343969 0.285442 0.230306 0.179485 0.133808 0.0940041 0.0606827 0.0343297 0.015302 0.00382435 4.13502e-26 0 0.00372697 0.0147754 0.0329228 0.0577702 0.0888708 0.125692 0.167633 0.214039 0.264206 0.317394 0.372833 0.429733 0.487251 0.544595 0.601025 0.655692 0.707808 0.756608 0.801359 0.841369 0.875994 0.904655 0.926842 0.942481 0.950404 0.950671 0.94482 0.929927 0.908185 0.879262 0.843562 0.801618 0.754093 0.701764 0.645511 0.586298 0.525156 0.463193 0.401457 0.340987 0.282885 0.228153 0.177717 0.132411 0.0929575 0.0599595 0.0338908 0.015092 0.00376802 4.07092e-26 0 0.00360636 0.0142885 0.0318167 0.0557953 0.0857839 0.121262 0.16165 0.206316 0.254587 0.305757 0.359098 0.413859 0.469251 0.524509 0.578943 0.631746 0.682166 0.729472 0.772957 0.811949 0.845822 0.874003 0.895985 0.911587 0.920103 0.920535 0.915365 0.901218 0.880467 0.852727 0.818376 0.777922 0.732 0.681359 0.626855 0.569427 0.510081 0.4499 0.38992 0.331153 0.274683 0.221491 0.172485 0.128475 0.090165 0.0581382 0.0328494 0.0146228 0.00364958 3.94286e-26 0 0.00342874 0.0135748 0.0302032 0.0529272 0.0813186 0.114878 0.153053 0.195248 0.240832 0.289147 0.339515 0.391243 0.443607 0.495883 0.547445 0.597541 0.645469 0.690543 0.732095 0.769484 0.802109 0.829411 0.850893 0.866254 0.87532 0.875999 0.872009 0.859049 0.839835 0.813886 0.781547 0.743294 0.699724 0.651554 0.599604 0.54478 0.488056 0.430477 0.373063 0.316785 0.262699 0.211758 0.164837 0.122719 0.0860777 0.0554688 0.0313205 0.0139324 0.0034748 3.75285e-26 0 0.00319687 0.0126455 0.0281077 0.0492109 0.0755453 0.10664 0.141979 0.181011 0.22316 0.267826 0.314395 0.362243 0.410725 0.459172 0.507034 0.553624 0.598305 0.640446 0.67943 0.714657 0.745557 0.771597 0.792292 0.80722 0.81677 0.817721 0.81504 0.803516 0.786183 0.762468 0.732677 0.697241 0.656715 0.611771 0.563182 0.511807 0.458574 0.404476 0.3505 0.297567 0.246689 0.198772 0.154651 0.115068 0.080658 0.051938 0.0293034 0.0130241 0.00324546 3.50385e-26 0 0.00291436 0.011515 0.025563 0.0447048 0.0685546 0.0966768 0.128601 0.16383 0.20185 0.242131 0.284136 0.327319 0.371127 0.41496 0.458351 0.500694 0.541425 0.579981 0.615803 0.648343 0.677072 0.701486 0.721122 0.735565 0.745048 0.747042 0.745066 0.735612 0.720374 0.699299 0.672547 0.6405 0.603661 0.562646 0.51817 0.471033 0.422103 0.372309 0.322591 0.273806 0.226905 0.18274 0.14209 0.105646 0.0739918 0.0476017 0.0268302 0.0119122 0.00296517 3.19976e-26 0 0.00258564 0.0102009 0.022609 0.0394797 0.0604567 0.0851462 0.11313 0.143975 0.177238 0.212469 0.249216 0.287024 0.325435 0.363952 0.402168 0.439589 0.475731 0.510107 0.542226 0.571599 0.597745 0.620198 0.638519 0.652308 0.661577 0.664793 0.663435 0.656338 0.643457 0.625385 0.602115 0.573975 0.541406 0.504958 0.465281 0.423104 0.379223 0.334488 0.289778 0.245876 0.203661 0.163915 0.127352 0.0945991 0.0661843 0.0425284 0.0239397 0.0106142 0.00263835 2.84532e-26 0 0.00221585 0.00872381 0.0192921 0.0336177 0.0513789 0.0722296 0.0958113 0.12176 0.149712 0.179307 0.210186 0.241993 0.274373 0.306949 0.339372 0.371277 0.402264 0.431932 0.459865 0.485641 0.508834 0.52902 0.545792 0.558767 0.56775 0.572145 0.571548 0.566913 0.556652 0.5419 0.522501 0.498722 0.470937 0.439625 0.405355 0.36878 0.330613 0.291612 0.252581 0.214222 0.177326 0.142596 0.11067 0.0821036 0.0573592 0.0367983 0.0206778 0.00915071 0.00227015 2.44608e-26 0 0.00181077 0.00710674 0.0156643 0.027211 0.0414641 0.0581303 0.0769161 0.0975342 0.119707 0.143168 0.167661 0.192936 0.218748 0.244846 0.270954 0.296834 0.322182 0.346688 0.370021 0.391828 0.411744 0.429395 0.444408 0.456423 0.465105 0.470452 0.470967 0.468673 0.461355 0.450162 0.434962 0.415931 0.393371 0.36768 0.339344 0.308925 0.277043 0.244362 0.211587 0.179343 0.148316 0.11912 0.092308 0.0683567 0.0476558 0.0305019 0.0170958 0.00754474 0.00186637 2.00829e-26 0 0.00137676 0.00537503 0.0117827 0.0203604 0.0308684 0.0430703 0.0567425 0.0716788 0.0876935 0.10462 0.12231 0.140626 0.159437 0.178609 0.197998 0.217434 0.236746 0.25572 0.274107 0.291636 0.308004 0.322891 0.335963 0.346885 0.355336 0.361052 0.363656 0.362904 0.359142 0.351617 0.340877 0.326907 0.30993 0.290258 0.268287 0.24448 0.219359 0.193484 0.167446 0.141793 0.11709 0.0938578 0.0725563 0.0535757 0.0372274 0.0237385 0.0132505 0.00582168 0.00143336 1.53882e-26 0 0.000920621 0.0035558 0.00770832 0.0131737 0.0197584 0.0272866 0.0356079 0.0446012 0.0541761 0.0642708 0.0748475 0.0858855 0.0973722 0.109294 0.121625 0.13432 0.147303 0.160461 0.173631 0.186638 0.199242 0.211179 0.222158 0.231873 0.240016 0.246247 0.250376 0.252074 0.251228 0.247884 0.241726 0.23305 0.221927 0.208579 0.193304 0.176464 0.158473 0.139781 0.120858 0.102164 0.0841416 0.0672091 0.051727 0.0379941 0.0262388 0.0166151 0.00920235 0.00400869 0.000977951 1.04501e-26 0 0.000449539 0.00167774 0.00350567 0.00576526 0.00831186 0.0110326 0.0138526 0.0167383 0.0196968 0.0227727 0.0260416 0.0296008 0.0335588 0.0380238 0.043091 0.0488304 0.0552761 0.0624181 0.070198 0.0785067 0.087185 0.0960243 0.10478 0.113187 0.120951 0.127726 0.133276 0.137361 0.13981 0.140349 0.139084 0.135844 0.130744 0.123926 0.115575 0.105947 0.0953433 0.0840973 0.07256 0.061082 0.0499916 0.0395947 0.030149 0.0218578 0.0148632 0.00924393 0.00501532 0.00213439 0.00050732 5.34642e-27 0 -2.88803e-05 -0.000228316 -0.000755421 -0.00174131 -0.00328026 -0.00542128 -0.00816269 -0.0114501 -0.0151781 -0.019195 -0.0233115 -0.0273113 -0.0309642 -0.0340398 -0.0363227 -0.0376269 -0.0378085 -0.0367746 -0.0344894 -0.0309784 -0.0263293 -0.020689 -0.0142559 -0.00727006 -1.71612e-07 0.00727005 0.014256 0.0206891 0.0263296 0.0309795 0.0344913 0.0367774 0.0378113 0.0376283 0.0363224 0.0340386 0.0309633 0.0273111 0.0233116 0.0191952 0.0151782 0.0114501 0.00816269 0.00542128 0.00328027 0.00174132 0.000755422 0.000228316 2.88803e-05 1.57286e-28 0 -0.000507319 -0.00213439 -0.00501532 -0.00924393 -0.0148632 -0.0218578 -0.030149 -0.0395947 -0.0499915 -0.0610818 -0.0725599 -0.0840975 -0.0953437 -0.105947 -0.115573 -0.123922 -0.130739 -0.13584 -0.139081 -0.140348 -0.139809 -0.13736 -0.133276 -0.127726 -0.120952 -0.113187 -0.10478 -0.0960243 -0.0871849 -0.0785061 -0.0701971 -0.0624175 -0.0552764 -0.0488319 -0.0430932 -0.0380258 -0.0335599 -0.0296009 -0.0260414 -0.0227725 -0.0196967 -0.0167383 -0.0138526 -0.0110326 -0.00831185 -0.00576526 -0.00350567 -0.00167774 -0.000449539 -5.03555e-27 0 -0.000977951 -0.00400869 -0.00920235 -0.0166151 -0.0262388 -0.0379941 -0.051727 -0.0672091 -0.0841417 -0.102164 -0.120859 -0.139781 -0.158473 -0.176462 -0.193299 -0.208573 -0.22192 -0.233045 -0.241722 -0.247882 -0.251227 -0.252074 -0.250376 -0.246247 -0.240017 -0.231873 -0.222158 -0.211179 -0.199242 -0.186638 -0.173631 -0.160462 -0.147305 -0.134323 -0.121628 -0.109295 -0.097373 -0.0858856 -0.0748473 -0.0642705 -0.0541759 -0.0446012 -0.0356079 -0.0272866 -0.0197584 -0.0131737 -0.00770832 -0.0035558 -0.000920621 -1.01502e-26 0 -0.00143336 -0.00582168 -0.0132505 -0.0237385 -0.0372274 -0.0535757 -0.0725563 -0.0938578 -0.11709 -0.141793 -0.167446 -0.193485 -0.219359 -0.244477 -0.268282 -0.290252 -0.309924 -0.326903 -0.340874 -0.351614 -0.35914 -0.362903 -0.363656 -0.361052 -0.355336 -0.346885 -0.335963 -0.322891 -0.308004 -0.291636 -0.274108 -0.255721 -0.236749 -0.217436 -0.198 -0.17861 -0.159438 -0.140627 -0.12231 -0.10462 -0.0876932 -0.0716788 -0.0567425 -0.0430703 -0.0308684 -0.0203604 -0.0117827 -0.00537503 -0.00137676 -1.51058e-26 0 -0.00186637 -0.00754474 -0.0170958 -0.0305018 -0.0476558 -0.0683567 -0.092308 -0.11912 -0.148316 -0.179343 -0.211587 -0.244362 -0.277042 -0.308922 -0.33934 -0.367676 -0.393368 -0.415928 -0.434959 -0.450159 -0.461353 -0.468672 -0.470967 -0.470452 -0.465105 -0.456423 -0.444408 -0.429395 -0.411745 -0.391829 -0.370022 -0.34669 -0.322184 -0.296836 -0.270955 -0.244847 -0.218748 -0.192936 -0.167661 -0.143168 -0.119707 -0.0975341 -0.0769161 -0.0581303 -0.0414641 -0.027211 -0.0156643 -0.00710674 -0.00181077 -1.98241e-26 0 -0.00227015 -0.00915071 -0.0206778 -0.0367983 -0.0573592 -0.0821036 -0.11067 -0.142596 -0.177326 -0.214222 -0.252581 -0.291612 -0.330612 -0.368779 -0.405354 -0.439624 -0.470937 -0.498721 -0.522499 -0.541897 -0.55665 -0.566912 -0.571548 -0.572145 -0.56775 -0.558767 -0.545792 -0.52902 -0.508834 -0.485642 -0.459866 -0.431933 -0.402266 -0.371278 -0.339373 -0.306949 -0.274373 -0.241993 -0.210186 -0.179307 -0.149712 -0.12176 -0.0958112 -0.0722296 -0.0513789 -0.0336177 -0.0192921 -0.00872381 -0.00221585 -2.42304e-26 0 -0.00263835 -0.0106142 -0.0239397 -0.0425284 -0.0661843 -0.0945991 -0.127352 -0.163915 -0.203661 -0.245876 -0.289778 -0.334488 -0.379223 -0.423102 -0.46528 -0.504959 -0.541407 -0.573976 -0.602115 -0.625384 -0.643455 -0.656337 -0.663435 -0.664793 -0.661577 -0.652308 -0.638519 -0.620198 -0.597745 -0.571599 -0.542226 -0.510108 -0.475732 -0.43959 -0.402168 -0.363952 -0.325435 -0.287024 -0.249216 -0.212469 -0.177238 -0.143975 -0.11313 -0.0851462 -0.0604567 -0.0394797 -0.022609 -0.0102009 -0.00258564 -2.82546e-26 0 -0.00296517 -0.0119122 -0.0268302 -0.0476017 -0.0739918 -0.105646 -0.14209 -0.18274 -0.226905 -0.273806 -0.322591 -0.37231 -0.422104 -0.471032 -0.518169 -0.562646 -0.603662 -0.640501 -0.672547 -0.699298 -0.720373 -0.735611 -0.745066 -0.747042 -0.745048 -0.735565 -0.721122 -0.701487 -0.677072 -0.648343 -0.615803 -0.579981 -0.541425 -0.500694 -0.458351 -0.41496 -0.371127 -0.327319 -0.284136 -0.242131 -0.20185 -0.16383 -0.128601 -0.0966768 -0.0685546 -0.0447048 -0.025563 -0.011515 -0.00291436 -3.1833e-26 0 -0.00324546 -0.0130241 -0.0293034 -0.051938 -0.080658 -0.115068 -0.154651 -0.198772 -0.246689 -0.297567 -0.350501 -0.404477 -0.458575 -0.511808 -0.563182 -0.611771 -0.656715 -0.697241 -0.732678 -0.762469 -0.786183 -0.803516 -0.815039 -0.81772 -0.816769 -0.80722 -0.792292 -0.771597 -0.745557 -0.714657 -0.67943 -0.640447 -0.598305 -0.553624 -0.507034 -0.459172 -0.410725 -0.362243 -0.314395 -0.267825 -0.22316 -0.181011 -0.141979 -0.10664 -0.0755453 -0.0492109 -0.0281077 -0.0126455 -0.00319687 -3.49086e-26 0 -0.0034748 -0.0139324 -0.0313205 -0.0554688 -0.0860776 -0.122719 -0.164837 -0.211758 -0.262699 -0.316785 -0.373063 -0.430478 -0.488058 -0.544782 -0.599604 -0.651553 -0.699722 -0.743293 -0.781548 -0.813887 -0.839835 -0.859048 -0.872009 -0.875999 -0.87532 -0.866254 -0.850893 -0.829411 -0.802109 -0.769484 -0.732095 -0.690543 -0.645469 -0.597541 -0.547446 -0.495883 -0.443607 -0.391243 -0.339515 -0.289147 -0.240832 -0.195248 -0.153053 -0.114878 -0.0813186 -0.0529272 -0.0302032 -0.0135748 -0.00342874 -3.74325e-26 0 -0.00364958 -0.0146228 -0.0328494 -0.0581382 -0.090165 -0.128475 -0.172485 -0.221491 -0.274683 -0.331153 -0.389921 -0.449901 -0.510084 -0.56943 -0.626856 -0.681358 -0.731996 -0.777919 -0.818375 -0.852728 -0.880468 -0.901218 -0.915365 -0.920535 -0.920103 -0.911587 -0.895985 -0.874003 -0.845822 -0.811949 -0.772957 -0.729472 -0.682166 -0.631746 -0.578943 -0.524509 -0.469251 -0.413859 -0.359098 -0.305757 -0.254586 -0.206315 -0.16165 -0.121262 -0.0857839 -0.0557953 -0.0318167 -0.0142885 -0.00360636 -3.93644e-26 0 -0.00376802 -0.015092 -0.0338908 -0.0599595 -0.0929575 -0.132411 -0.177717 -0.228153 -0.282885 -0.340987 -0.401458 -0.463194 -0.525158 -0.586301 -0.645513 -0.701764 -0.75409 -0.801615 -0.84356 -0.879262 -0.908186 -0.929928 -0.94482 -0.950671 -0.950403 -0.942481 -0.926842 -0.904655 -0.875994 -0.841369 -0.80136 -0.756608 -0.707808 -0.655692 -0.601025 -0.544595 -0.487251 -0.429733 -0.372833 -0.317394 -0.264206 -0.214039 -0.167633 -0.125692 -0.0888708 -0.0577702 -0.0329228 -0.0147754 -0.00372697 -4.06736e-26 0 -0.00382435 -0.015302 -0.0343297 -0.0606827 -0.0940041 -0.133808 -0.179485 -0.230306 -0.285442 -0.343969 -0.404894 -0.467126 -0.529626 -0.591367 -0.651246 -0.70824 -0.761388 -0.809814 -0.852738 -0.889488 -0.919512 -0.942385 -0.958278 -0.96563 -0.965785 -0.958781 -0.943462 -0.92152 -0.892905 -0.858119 -0.817746 -0.772436 -0.722895 -0.669876 -0.614169 -0.556588 -0.49801 -0.439218 -0.381023 -0.324306 -0.269887 -0.218565 -0.171105 -0.128231 -0.0906152 -0.0588673 -0.0335252 -0.0150346 -0.00378953 -4.1339e-26 0 -0.0038243 -0.0153012 -0.0343261 -0.060672 -0.0939796 -0.133761 -0.179405 -0.230184 -0.285268 -0.343739 -0.404607 -0.466788 -0.529245 -0.590959 -0.650831 -0.707838 -0.76102 -0.809495 -0.852479 -0.889295 -0.919384 -0.942314 -0.958251 -0.965627 -0.96579 -0.958823 -0.943573 -0.92172 -0.893209 -0.85853 -0.818257 -0.773029 -0.723546 -0.670557 -0.614848 -0.557237 -0.498604 -0.43974 -0.38146 -0.324653 -0.270148 -0.218749 -0.171226 -0.128303 -0.0906527 -0.0588838 -0.0335308 -0.0150358 -0.00378962 -4.13502e-26 0 -0.00376156 -0.0150405 -0.0337206 -0.059568 -0.0922217 -0.131198 -0.175896 -0.225605 -0.279518 -0.336742 -0.39632 -0.457205 -0.518387 -0.578889 -0.637643 -0.69366 -0.746006 -0.79382 -0.836333 -0.872877 -0.902897 -0.925955 -0.942126 -0.950211 -0.95075 -0.944942 -0.930533 -0.909635 -0.882077 -0.848333 -0.80896 -0.76459 -0.715915 -0.663682 -0.608678 -0.551723 -0.493697 -0.435408 -0.377665 -0.321367 -0.267346 -0.216408 -0.169324 -0.126816 -0.0895529 -0.0581333 -0.0330807 -0.0148232 -0.00373308 -4.07067e-26 0 -0.00364062 -0.0145511 -0.0326115 -0.0575885 -0.0891279 -0.126759 -0.1699 -0.217865 -0.269879 -0.325086 -0.382567 -0.441324 -0.500387 -0.558822 -0.615609 -0.669796 -0.720487 -0.766853 -0.808148 -0.843722 -0.873032 -0.895647 -0.911595 -0.919862 -0.920575 -0.915134 -0.90135 -0.881281 -0.854751 -0.822211 -0.784193 -0.741305 -0.694214 -0.643642 -0.590354 -0.535146 -0.478875 -0.422334 -0.36631 -0.311682 -0.259262 -0.209837 -0.164158 -0.122926 -0.0867901 -0.0563292 -0.0320481 -0.0143582 -0.00361525 -3.94188e-26 0 -0.00346251 -0.0138341 -0.030994 -0.0547145 -0.0846545 -0.120364 -0.161289 -0.20678 -0.256105 -0.308455 -0.362965 -0.418698 -0.474737 -0.530208 -0.584147 -0.635657 -0.68389 -0.728062 -0.767464 -0.801476 -0.829574 -0.851341 -0.866773 -0.874997 -0.875911 -0.871088 -0.858245 -0.839411