<?xml version="1.0"?>
<VTKFile type="PolyData">
	<PolyData>
		<Piece NumberOfPoints="2601" NumberOfPolys="2500">
			<Points>
				<DataArray type="Float32" NumberOfComponents="3" format="ascii">
 0 0 0 0.02 0 0 0.04 0 0 0.06 0 0 0.08 0 0 0.1 0 0 0.12 0 0 0.14 0 0 0.16 0 0 0.18 0 0 0.2 0 0 0.22 0 0 0.24 0 0 0.26 0 0 0.28 0 0 0.3 0 0 0.32 0 0 0.34 0 0 0.36 0 0 0.38 0 0 0.4 0 0 0.42 0 0 0.44 0 0 0.46 0 0 0.48 0 0 0.5 0 0 0.52 0 0 0.54 0 0 0.56 0 0 0.58 0 0 0.6 0 0 0.62 0 0 0.64 0 0 0.66 0 0 0.68 0 0 0.7 0 0 0.72 0 0 0.74 0 0 0.76 0 0 0.78 0 0 0.8 0 0 0.82 0 0 0.84 0 0 0.86 0 0 0.88 0 0 0.9 0 0 0.92 0 0 0.94 0 0 0.96 0 0 0.98 0 0 1 0 0 0 0.02 0 0.02 0.02 0 0.04 0.02 0 0.06 0.02 0 0.08 0.02 0 0.1 0.02 0 0.12 0.02 0 0.14 0.02 0 0.16 0.02 0 0.18 0.02 0 0.2 0.02 0 0.22 0.02 0 0.24 0.02 0 0.26 0.02 0 0.28 0.02 0 0.3 0.02 0 0.32 0.02 0 0.34 0.02 0 0.36 0.02 0 0.38 0.02 0 0.4 0.02 0 0.42 0.02 0 0.44 0.02 0 0.46 0.02 0 0.48 0.02 0 0.5 0.02 0 0.52 0.02 0 0.54 0.02 0 0.56 0.02 0 0.58 0.02 0 0.6 0.02 0 0.62 0.02 0 0.64 0.02 0 0.66 0.02 0 0.68 0.02 0 0.7 0.02 0 0.72 0.02 0 0.74 0.02 0 0.76 0.02 0 0.78 0.02 0 0.8 0.02 0 0.82 0.02 0 0.84 0.02 0 0.86 0.02 0 0.88 0.02 0 0.9 0.02 0 0.92 0.02 0 0.94 0.02 0 0.96 0.02 0 0.98 0.02 0 1 0.02 0 0 0.04 0 0.02 0.04 0 0.04 0.04 0 0.06 0.04 0 0.08 0.04 0 0.1 0.04 0 0.12 0.04 0 0.14 0.04 0 0.16 0.04 0 0.18 0.04 0 0.2 0.04 0 0.22 0.04 0 0.24 0.04 0 0.26 0.04 0 0.28 0.04 0 0.3 0.04 0 0.32 0.04 0 0.34 0.04 0 0.36 0.04 0 0.38 0.04 0 0.4 0.04 0 0.42 0.04 0 0.44 0.04 0 0.46 0.04 0 0.48 0.04 0 0.5 0.04 0 0.52 0.04 0 0.54 0.04 0 0.56 0.04 0 0.58 0.04 0 0.6 0.04 0 0.62 0.04 0 0.64 0.04 0 0.66 0.04 0 0.68 0.04 0 0.7 0.04 0 0.72 0.04 0 0.74 0.04 0 0.76 0.04 0 0.78 0.04 0 0.8 0.04 0 0.82 0.04 0 0.84 0.04 0 0.86 0.04 0 0.88 0.04 0 0.9 0.04 0 0.92 0.04 0 0.94 0.04 0 0.96 0.04 0 0.98 0.04 0 1 0.04 0 0 0.06 0 0.02 0.06 0 0.04 0.06 0 0.06 0.06 0 0.08 0.06 0 0.1 0.06 0 0.12 0.06 0 0.14 0.06 0 0.16 0.06 0 0.18 0.06 0 0.2 0.06 0 0.22 0.06 0 0.24 0.06 0 0.26 0.06 0 0.28 0.06 0 0.3 0.06 0 0.32 0.06 0 0.34 0.06 0 0.36 0.06 0 0.38 0.06 0 0.4 0.06 0 0.42 0.06 0 0.44 0.06 0 0.46 0.06 0 0.48 0.06 0 0.5 0.06 0 0.52 0.06 0 0.54 0.06 0 0.56 0.06 0 0.58 0.06 0 0.6 0.06 0 0.62 0.06 0 0.64 0.06 0 0.66 0.06 0 0.68 0.06 0 0.7 0.06 0 0.72 0.06 0 0.74 0.06 0 0.76 0.06 0 0.78 0.06 0 0.8 0.06 0 0.82 0.06 0 0.84 0.06 0 0.86 0.06 0 0.88 0.06 0 0.9 0.06 0 0.92 0.06 0 0.94 0.06 0 0.96 0.06 0 0.98 0.06 0 1 0.06 0 0 0.08 0 0.02 0.08 0 0.04 0.08 0 0.06 0.08 0 0.08 0.08 0 0.1 0.08 0 0.12 0.08 0 0.14 0.08 0 0.16 0.08 0 0.18 0.08 0 0.2 0.08 0 0.22 0.08 0 0.24 0.08 0 0.26 0.08 0 0.28 0.08 0 0.3 0.08 0 0.32 0.08 0 0.34 0.08 0 0.36 0.08 0 0.38 0.08 0 0.4 0.08 0 0.42 0.08 0 0.44 0.08 0 0.46 0.08 0 0.48 0.08 0 0.5 0.08 0 0.52 0.08 0 0.54 0.08 0 0.56 0.08 0 0.58 0.08 0 0.6 0.08 0 0.62 0.08 0 0.64 0.08 0 0.66 0.08 0 0.68 0.08 0 0.7 0.08 0 0.72 0.08 0 0.74 0.08 0 0.76 0.08 0 0.78 0.08 0 0.8 0.08 0 0.82 0.08 0 0.84 0.08 0 0.86 0.08 0 0.88 0.08 0 0.9 0.08 0 0.92 0.08 0 0.94 0.08 0 0.96 0.08 0 0.98 0.08 0 1 0.08 0 0 0.1 0 0.02 0.1 0 0.04 0.1 0 0.06 0.1 0 0.08 0.1 0 0.1 0.1 0 0.12 0.1 0 0.14 0.1 0 0.16 0.1 0 0.18 0.1 0 0.2 0.1 0 0.22 0.1 0 0.24 0.1 0 0.26 0.1 0 0.28 0.1 0 0.3 0.1 0 0.32 0.1 0 0.34 0.1 0 0.36 0.1 0 0.38 0.1 0 0.4 0.1 0 0.42 0.1 0 0.44 0.1 0 0.46 0.1 0 0.48 0.1 0 0.5 0.1 0 0.52 0.1 0 0.54 0.1 0 0.56 0.1 0 0.58 0.1 0 0.6 0.1 0 0.62 0.1 0 0.64 0.1 0 0.66 0.1 0 0.68 0.1 0 0.7 0.1 0 0.72 0.1 0 0.74 0.1 0 0.76 0.1 0 0.78 0.1 0 0.8 0.1 0 0.82 0.1 0 0.84 0.1 0 0.86 0.1 0 0.88 0.1 0 0.9 0.1 0 0.92 0.1 0 0.94 0.1 0 0.96 0.1 0 0.98 0.1 0 1 0.1 0 0 0.12 0 0.02 0.12 0 0.04 0.12 0 0.06 0.12 0 0.08 0.12 0 0.1 0.12 0 0.12 0.12 0 0.14 0.12 0 0.16 0.12 0 0.18 0.12 0 0.2 0.12 0 0.22 0.12 0 0.24 0.12 0 0.26 0.12 0 0.28 0.12 0 0.3 0.12 0 0.32 0.12 0 0.34 0.12 0 0.36 0.12 0 0.38 0.12 0 0.4 0.12 0 0.42 0.12 0 0.44 0.12 0 0.46 0.12 0 0.48 0.12 0 0.5 0.12 0 0.52 0.12 0 0.54 0.12 0 0.56 0.12 0 0.58 0.12 0 0.6 0.12 0 0.62 0.12 0 0.64 0.12 0 0.66 0.12 0 0.68 0.12 0 0.7 0.12 0 0.72 0.12 0 0.74 0.12 0 0.76 0.12 0 0.78 0.12 0 0.8 0.12 0 0.82 0.12 0 0.84 0.12 0 0.86 0.12 0 0.88 0.12 0 0.9 0.12 0 0.92 0.12 0 0.94 0.12 0 0.96 0.12 0 0.98 0.12 0 1 0.12 0 0 0.14 0 0.02 0.14 0 0.04 0.14 0 0.06 0.14 0 0.08 0.14 0 0.1 0.14 0 0.12 0.14 0 0.14 0.14 0 0.16 0.14 0 0.18 0.14 0 0.2 0.14 0 0.22 0.14 0 0.24 0.14 0 0.26 0.14 0 0.28 0.14 0 0.3 0.14 0 0.32 0.14 0 0.34 0.14 0 0.36 0.14 0 0.38 0.14 0 0.4 0.14 0 0.42 0.14 0 0.44 0.14 0 0.46 0.14 0 0.48 0.14 0 0.5 0.14 0 0.52 0.14 0 0.54 0.14 0 0.56 0.14 0 0.58 0.14 0 0.6 0.14 0 0.62 0.14 0 0.64 0.14 0 0.66 0.14 0 0.68 0.14 0 0.7 0.14 0 0.72 0.14 0 0.74 0.14 0 0.76 0.14 0 0.78 0.14 0 0.8 0.14 0 0.82 0.14 0 0.84 0.14 0 0.86 0.14 0 0.88 0.14 0 0.9 0.14 0 0.92 0.14 0 0.94 0.14 0 0.96 0.14 0 0.98 0.14 0 1 0.14 0 0 0.16 0 0.02 0.16 0 0.04 0.16 0 0.06 0.16 0 0.08 0.16 0 0.1 0.16 0 0.12 0.16 0 0.14 0.16 0 0.16 0.16 0 0.18 0.16 0 0.2 0.16 0 0.22 0.16 0 0.24 0.16 0 0.26 0.16 0 0.28 0.16 0 0.3 0.16 0 0.32 0.16 0 0.34 0.16 0 0.36 0.16 0 0.38 0.16 0 0.4 0.16 0 0.42 0.16 0 0.44 0.16 0 0.46 0.16 0 0.48 0.16 0 0.5 0.16 0 0.52 0.16 0 0.54 0.16 0 0.56 0.16 0 0.58 0.16 0 0.6 0.16 0 0.62 0.16 0 0.64 0.16 0 0.66 0.16 0 0.68 0.16 0 0.7 0.16 0 0.72 0.16 0 0.74 0.16 0 0.76 0.16 0 0.78 0.16 0 0.8 0.16 0 0.82 0.16 0 0.84 0.16 0 0.86 0.16 0 0.88 0.16 0 0.9 0.16 0 0.92 0.16 0 0.94 0.16 0 0.96 0.16 0 0.98 0.16 0 1 0.16 0 0 0.18 0 0.02 0.18 0 0.04 0.18 0 0.06 0.18 0 0.08 0.18 0 0.1 0.18 0 0.12 0.18 0 0.14 0.18 0 0.16 0.18 0 0.18 0.18 0 0.2 0.18 0 0.22 0.18 0 0.24 0.18 0 0.26 0.18 0 0.28 0.18 0 0.3 0.18 0 0.32 0.18 0 0.34 0.18 0 0.36 0.18 0 0.38 0.18 0 0.4 0.18 0 0.42 0.18 0 0.44 0.18 0 0.46 0.18 0 0.48 0.18 0 0.5 0.18 0 0.52 0.18 0 0.54 0.18 0 0.56 0.18 0 0.58 0.18 0 0.6 0.18 0 0.62 0.18 0 0.64 0.18 0 0.66 0.18 0 0.68 0.18 0 0.7 0.18 0 0.72 0.18 0 0.74 0.18 0 0.76 0.18 0 0.78 0.18 0 0.8 0.18 0 0.82 0.18 0 0.84 0.18 0 0.86 0.18 0 0.88 0.18 0 0.9 0.18 0 0.92 0.18 0 0.94 0.18 0 0.96 0.18 0 0.98 0.18 0 1 0.18 0 0 0.2 0 0.02 0.2 0 0.04 0.2 0 0.06 0.2 0 0.08 0.2 0 0.1 0.2 0 0.12 0.2 0 0.14 0.2 0 0.16 0.2 0 0.18 0.2 0 0.2 0.2 0 0.22 0.2 0 0.24 0.2 0 0.26 0.2 0 0.28 0.2 0 0.3 0.2 0 0.32 0.2 0 0.34 0.2 0 0.36 0.2 0 0.38 0.2 0 0.4 0.2 0 0.42 0.2 0 0.44 0.2 0 0.46 0.2 0 0.48 0.2 0 0.5 0.2 0 0.52 0.2 0 0.54 0.2 0 0.56 0.2 0 0.58 0.2 0 0.6 0.2 0 0.62 0.2 0 0.64 0.2 0 0.66 0.2 0 0.68 0.2 0 0.7 0.2 0 0.72 0.2 0 0.74 0.2 0 0.76 0.2 0 0.78 0.2 0 0.8 0.2 0 0.82 0.2 0 0.84 0.2 0 0.86 0.2 0 0.88 0.2 0 0.9 0.2 0 0.92 0.2 0 0.94 0.2 0 0.96 0.2 0 0.98 0.2 0 1 0.2 0 0 0.22 0 0.02 0.22 0 0.04 0.22 0 0.06 0.22 0 0.08 0.22 0 0.1 0.22 0 0.12 0.22 0 0.14 0.22 0 0.16 0.22 0 0.18 0.22 0 0.2 0.22 0 0.22 0.22 0 0.24 0.22 0 0.26 0.22 0 0.28 0.22 0 0.3 0.22 0 0.32 0.22 0 0.34 0.22 0 0.36 0.22 0 0.38 0.22 0 0.4 0.22 0 0.42 0.22 0 0.44 0.22 0 0.46 0.22 0 0.48 0.22 0 0.5 0.22 0 0.52 0.22 0 0.54 0.22 0 0.56 0.22 0 0.58 0.22 0 0.6 0.22 0 0.62 0.22 0 0.64 0.22 0 0.66 0.22 0 0.68 0.22 0 0.7 0.22 0 0.72 0.22 0 0.74 0.22 0 0.76 0.22 0 0.78 0.22 0 0.8 0.22 0 0.82 0.22 0 0.84 0.22 0 0.86 0.22 0 0.88 0.22 0 0.9 0.22 0 0.92 0.22 0 0.94 0.22 0 0.96 0.22 0 0.98 0.22 0 1 0.22 0 0 0.24 0 0.02 0.24 0 0.04 0.24 0 0.06 0.24 0 0.08 0.24 0 0.1 0.24 0 0.12 0.24 0 0.14 0.24 0 0.16 0.24 0 0.18 0.24 0 0.2 0.24 0 0.22 0.24 0 0.24 0.24 0 0.26 0.24 0 0.28 0.24 0 0.3 0.24 0 0.32 0.24 0 0.34 0.24 0 0.36 0.24 0 0.38 0.24 0 0.4 0.24 0 0.42 0.24 0 0.44 0.24 0 0.46 0.24 0 0.48 0.24 0 0.5 0.24 0 0.52 0.24 0 0.54 0.24 0 0.56 0.24 0 0.58 0.24 0 0.6 0.24 0 0.62 0.24 0 0.64 0.24 0 0.66 0.24 0 0.68 0.24 0 0.7 0.24 0 0.72 0.24 0 0.74 0.24 0 0.76 0.24 0 0.78 0.24 0 0.8 0.24 0 0.82 0.24 0 0.84 0.24 0 0.86 0.24 0 0.88 0.24 0 0.9 0.24 0 0.92 0.24 0 0.94 0.24 0 0.96 0.24 0 0.98 0.24 0 1 0.24 0 0 0.26 0 0.02 0.26 0 0.04 0.26 0 0.06 0.26 0 0.08 0.26 0 0.1 0.26 0 0.12 0.26 0 0.14 0.26 0 0.16 0.26 0 0.18 0.26 0 0.2 0.26 0 0.22 0.26 0 0.24 0.26 0 0.26 0.26 0 0.28 0.26 0 0.3 0.26 0 0.32 0.26 0 0.34 0.26 0 0.36 0.26 0 0.38 0.26 0 0.4 0.26 0 0.42 0.26 0 0.44 0.26 0 0.46 0.26 0 0.48 0.26 0 0.5 0.26 0 0.52 0.26 0 0.54 0.26 0 0.56 0.26 0 0.58 0.26 0 0.6 0.26 0 0.62 0.26 0 0.64 0.26 0 0.66 0.26 0 0.68 0.26 0 0.7 0.26 0 0.72 0.26 0 0.74 0.26 0 0.76 0.26 0 0.78 0.26 0 0.8 0.26 0 0.82 0.26 0 0.84 0.26 0 0.86 0.26 0 0.88 0.26 0 0.9 0.26 0 0.92 0.26 0 0.94 0.26 0 0.96 0.26 0 0.98 0.26 0 1 0.26 0 0 0.28 0 0.02 0.28 0 0.04 0.28 0 0.06 0.28 0 0.08 0.28 0 0.1 0.28 0 0.12 0.28 0 0.14 0.28 0 0.16 0.28 0 0.18 0.28 0 0.2 0.28 0 0.22 0.28 0 0.24 0.28 0 0.26 0.28 0 0.28 0.28 0 0.3 0.28 0 0.32 0.28 0 0.34 0.28 0 0.36 0.28 0 0.38 0.28 0 0.4 0.28 0 0.42 0.28 0 0.44 0.28 0 0.46 0.28 0 0.48 0.28 0 0.5 0.28 0 0.52 0.28 0 0.54 0.28 0 0.56 0.28 0 0.58 0.28 0 0.6 0.28 0 0.62 0.28 0 0.64 0.28 0 0.66 0.28 0 0.68 0.28 0 0.7 0.28 0 0.72 0.28 0 0.74 0.28 0 0.76 0.28 0 0.78 0.28 0 0.8 0.28 0 0.82 0.28 0 0.84 0.28 0 0.86 0.28 0 0.88 0.28 0 0.9 0.28 0 0.92 0.28 0 0.94 0.28 0 0.96 0.28 0 0.98 0.28 0 1 0.28 0 0 0.3 0 0.02 0.3 0 0.04 0.3 0 0.06 0.3 0 0.08 0.3 0 0.1 0.3 0 0.12 0.3 0 0.14 0.3 0 0.16 0.3 0 0.18 0.3 0 0.2 0.3 0 0.22 0.3 0 0.24 0.3 0 0.26 0.3 0 0.28 0.3 0 0.3 0.3 0 0.32 0.3 0 0.34 0.3 0 0.36 0.3 0 0.38 0.3 0 0.4 0.3 0 0.42 0.3 0 0.44 0.3 0 0.46 0.3 0 0.48 0.3 0 0.5 0.3 0 0.52 0.3 0 0.54 0.3 0 0.56 0.3 0 0.58 0.3 0 0.6 0.3 0 0.62 0.3 0 0.64 0.3 0 0.66 0.3 0 0.68 0.3 0 0.7 0.3 0 0.72 0.3 0 0.74 0.3 0 0.76 0.3 0 0.78 0.3 0 0.8 0.3 0 0.82 0.3 0 0.84 0.3 0 0.86 0.3 0 0.88 0.3 0 0.9 0.3 0 0.92 0.3 0 0.94 0.3 0 0.96 0.3 0 0.98 0.3 0 1 0.3 0 0 0.32 0 0.02 0.32 0 0.04 0.32 0 0.06 0.32 0 0.08 0.32 0 0.1 0.32 0 0.12 0.32 0 0.14 0.32 0 0.16 0.32 0 0.18 0.32 0 0.2 0.32 0 0.22 0.32 0 0.24 0.32 0 0.26 0.32 0 0.28 0.32 0 0.3 0.32 0 0.32 0.32 0 0.34 0.32 0 0.36 0.32 0 0.38 0.32 0 0.4 0.32 0 0.42 0.32 0 0.44 0.32 0 0.46 0.32 0 0.48 0.32 0 0.5 0.32 0 0.52 0.32 0 0.54 0.32 0 0.56 0.32 0 0.58 0.32 0 0.6 0.32 0 0.62 0.32 0 0.64 0.32 0 0.66 0.32 0 0.68 0.32 0 0.7 0.32 0 0.72 0.32 0 0.74 0.32 0 0.76 0.32 0 0.78 0.32 0 0.8 0.32 0 0.82 0.32 0 0.84 0.32 0 0.86 0.32 0 0.88 0.32 0 0.9 0.32 0 0.92 0.32 0 0.94 0.
[...]
			<PointData Scalars="VitesseX">
				<DataArray Name="VitesseX" type="Float32" format="ascii">
 0 0 0 0 0 0 0 0 0 0 0 0 0 0 0 0 0 0 0 0 0 0 0 0 0 0 0 0 0 0 0 0 0 0 0 0 0 0 0 0 0 0 0 0 0 0 0 0 0 0 0 0 0.000385533 0.00153582 0.00343301 0.00604666 0.0093355 0.0132476 0.0177211 0.0226856 0.0280629 0.0337682 0.0397117 0.0457999 0.0519364 0.058025 0.0639707 0.0696794 0.0750613 0.0800315 0.0845118 0.0884315 0.0917288 0.0943515 0.0962582 0.097428 0.097813 0.0974351 0.0962947 0.0943927 0.091781 0.0884928 0.08458 0.0801041 0.0751359 0.0697537 0.0640424 0.0580922 0.051997 0.0458536 0.0397582 0.0338066 0.0280935 0.0227089 0.017738 0.013259 0.00934262 0.00605065 0.00343494 0.00153666 0.00038565 4.18386e-27 0 0.000764655 0.00304522 0.00680623 0.0119858 0.0185015 0.0262502 0.0351091 0.0449388 0.0555847 0.0668798 0.0786469 0.0907019 0.102853 0.114914 0.126696 0.138015 0.148693 0.158561 0.167466 0.175266 0.181839 0.18708 0.190905 0.193289 0.194079 0.193393 0.191192 0.187454 0.182316 0.175827 0.16809 0.159227 0.149377 0.138696 0.127354 0.11553 0.103412 0.0911956 0.0790707 0.0672295 0.055862 0.0451488 0.0352597 0.026351 0.0185634 0.0120194 0.0068216 0.00305088 0.000765413 8.30116e-27 0 0.00113143 0.00450474 0.0100675 0.017726 0.027358 0.0388099 0.0519006 0.0664239 0.0821517 0.0988381 0.116223 0.134034 0.151989 0.169814 0.187236 0.20398 0.219783 0.2344 0.2476 0.259175 0.268943 0.276749 0.282465 0.286079 0.287276 0.286341 0.283145 0.277652 0.270092 0.260526 0.249104 0.236003 0.221432 0.205621 0.188821 0.171299 0.153337 0.135224 0.117243 0.0996802 0.0828194 0.0669294 0.0522629 0.0390524 0.0275065 0.0178067 0.0101041 0.00451804 0.00113321 1.22868e-26 0 0.0014801 0.00589144 0.0131654 0.023177 0.0357653 0.0507291 0.0678313 0.0868025 0.107346 0.12914 0.151847 0.175114 0.198571 0.221863 0.244638 0.266535 0.287213 0.306352 0.32365 0.338836 0.351669 0.361944 0.369495 0.374329 0.375932 0.374816 0.370709 0.363574 0.353743 0.341275 0.326365 0.309247 0.29019 0.269497 0.247498 0.224544 0.201004 0.177263 0.15369 0.13066 0.108551 0.0877147 0.0684849 0.0511665 0.0360331 0.0233222 0.0132313 0.00591514 0.00148326 1.60781e-26 0 0.00180518 0.00718357 0.0160514 0.0282529 0.0435912 0.0618201 0.0826502 0.105754 0.130769 0.157308 0.184959 0.213295 0.241864 0.270239 0.297996 0.324694 0.34992 0.373283 0.394418 0.412992 0.428711 0.441322 0.450621 0.456641 0.45865 0.457419 0.452497 0.443866 0.431948 0.4168 0.398657 0.377804 0.354568 0.329319 0.302462 0.274426 0.245664 0.21665 0.187836 0.159681 0.13265 0.107177 0.08367 0.0625022 0.0440088 0.0284792 0.0161538 0.00722017 0.00181005 1.96155e-26 0 0.00210157 0.00836089 0.01868 0.032874 0.0507126 0.0719082 0.096124 0.122979 0.152054 0.182899 0.215037 0.247974 0.281186 0.314181 0.346469 0.37754 0.406915 0.434139 0.458787 0.480472 0.498851 0.513627 0.524559 0.531711 0.534126 0.532841 0.527217 0.517259 0.503472 0.485908 0.464838 0.440591 0.413549 0.384144 0.352845 0.320159 0.286613 0.252766 0.219143 0.186286 0.154739 0.125011 0.0975788 0.072881 0.0513077 0.0331961 0.0188255 0.00841253 0.00210843 2.28435e-26 0 0.00236462 0.00940497 0.0210099 0.0369675 0.0570172 0.0808346 0.10804 0.138207 0.170864 0.205508 0.241606 0.278605 0.315917 0.352996 0.389294 0.42424 0.457297 0.487956 0.515739 0.54021 0.560982 0.577717 0.590142 0.598346 0.601168 0.599885 0.593687 0.582593 0.567184 0.547507 0.523862 0.496618 0.466204 0.433105 0.397854 0.36102 0.323203 0.285038 0.247118 0.210054 0.174467 0.140933 0.109992 0.082139 0.0578147 0.0373988 0.0212043 0.00947341 0.00237369 2.57113e-26 0 0.00259022 0.0102995 0.0230046 0.0404691 0.062406 0.0884587 0.118212 0.151197 0.186903 0.22478 0.264247 0.304704 0.345508 0.386069 0.425793 0.464055 0.500271 0.533885 0.564374 0.591262 0.61412 0.632579 0.646332 0.655489 0.658723 0.657485 0.650856 0.638833 0.622077 0.600623 0.574797 0.544999 0.511699 0.47543 0.436776 0.396366 0.354859 0.312959 0.271318 0.230611 0.191524 0.154693 0.120713 0.0901301 0.0634272 0.0410207 0.0232526 0.0103861 0.00260167 2.81742e-26 0 0.00277484 0.0110305 0.0246326 0.0433238 0.0667941 0.0946604 0.126478 0.161746 0.199918 0.240409 0.282602 0.325858 0.369493 0.41288 0.45539 0.496356 0.535158 0.571199 0.603924 0.632819 0.657425 0.677343 0.692239 0.702231 0.705881 0.704724 0.697821 0.685089 0.667282 0.644416 0.616835 0.584968 0.549315 0.510448 0.468996 0.425636 0.38108 0.336087 0.291361 0.247632 0.20564 0.166073 0.129574 0.0967282 0.0680564 0.0440047 0.0249381 0.0111361 0.00278877 3.01935e-26 0 0.00291557 0.0115865 0.0258686 0.0454866 0.0701125 0.0993421 0.132708 0.169685 0.209703 0.252149 0.296381 0.341733 0.387492 0.433003 0.477616 0.520633 0.561404 0.599309 0.633762 0.664225 0.690213 0.711302 0.727137 0.737832 0.741902 0.740852 0.733841 0.72063 0.702083 0.678191 0.649313 0.615892 0.578457 0.537606 0.494005 0.448368 0.40145 0.354055 0.30693 0.260847 0.216592 0.174894 0.136433 0.101829 0.0716294 0.0463038 0.0262342 0.0117117 0.00293203 3.17377e-26 0 0.00301074 0.0119628 0.0267055 0.0469513 0.0723597 0.102512 0.136925 0.175057 0.216321 0.260087 0.305695 0.352462 0.399656 0.446605 0.492642 0.53705 0.579161 0.618333 0.653963 0.685492 0.712417 0.734296 0.750759 0.761918 0.766236 0.765297 0.758346 0.744895 0.725931 0.701416 0.671715 0.637283 0.598662 0.556474 0.511406 0.464202 0.415647 0.366579 0.317778 0.270047 0.224206 0.181016 0.141183 0.105352 0.0740896 0.0478815 0.0271204 0.0121038 0.00302922 3.27826e-26 0 0.00305685 0.0121381 0.0270808 0.0475845 0.0732978 0.103793 0.13858 0.177113 0.2188 0.263011 0.309087 0.356344 0.404054 0.451543 0.49815 0.543158 0.585897 0.625725 0.662033 0.694258 0.721886 0.744463 0.761605 0.773355 0.778429 0.777726 0.771202 0.757855 0.73891 0.714271 0.684297 0.649449 0.610275 0.56741 0.521556 0.473478 0.423984 0.373935 0.324142 0.275424 0.228632 0.184547 0.143897 0.107341 0.0754597 0.0487462 0.0275975 0.0123106 0.00307936 3.3312e-26 0 0.0030568 0.0121375 0.0270778 0.0475757 0.0732778 0.103755 0.138516 0.177015 0.218661 0.262827 0.308855 0.356067 0.40374 0.4512 0.497792 0.5428 0.585556 0.625415 0.661767 0.694045 0.721729 0.744361 0.761549 0.773335 0.778427 0.777729 0.771219 0.757895 0.738981 0.714376 0.684438 0.649621 0.610473 0.567623 0.521776 0.473693 0.424184 0.374112 0.324292 0.275545 0.228723 0.184611 0.143939 0.107365 0.0754726 0.0487519 0.0275994 0.012311 0.00307939 3.33177e-26 0 0.00300677 0.0119317 0.0266026 0.0467147 0.071915 0.101779 0.135822 0.173512 0.214273 0.257495 0.302543 0.348761 0.395455 0.441964 0.487663 0.531859 0.573902 0.613167 0.649056 0.681012 0.708522 0.73113 0.74844 0.760414 0.76609 0.765708 0.760187 0.747569 0.729455 0.705648 0.676489 0.642421 0.603982 0.561797 0.516568 0.469057 0.420077 0.370495 0.321135 0.272818 0.226403 0.182677 0.14237 0.106142 0.0745687 0.0481363 0.0272312 0.0121373 0.00303343 3.27995e-26 0 0.0029098 0.0115412 0.0257182 0.0451397 0.0694588 0.0982612 0.131079 0.167399 0.206668 0.248305 0.291703 0.336239 0.381255 0.426116 0.470234 0.512945 0.553629 0.591685 0.626538 0.657647 0.684512 0.706684 0.723771 0.735666 0.741703 0.741445 0.736408 0.72437 0.707022 0.684137 0.656037 0.623146 0.585983 0.54515 0.50133 0.455265 0.407747 0.359621 0.311699 0.26478 0.219705 0.177244 0.138109 0.102941 0.0723017 0.0466602 0.0263886 0.0117583 0.00293786 3.17656e-26 0 0.00276685 0.0109677 0.0244246 0.0428442 0.0658905 0.0931667 0.124227 0.158587 0.195726 0.2351 0.276143 0.318273 0.360884 0.403374 0.445203 0.485749 0.524431 0.560684 0.593963 0.623753 0.649575 0.670991 0.687619 0.699276 0.705632 0.705584 0.701373 0.690253 0.67409 0.652601 0.626087 0.594943 0.55966 0.520815 0.479059 0.435109 0.389728 0.34373 0.297909 0.253031 0.209913 0.169298 0.131873 0.0982542 0.068979 0.0444938 0.0251499 0.0112 0.00279677 3.02322e-26 0 0.00258015 0.0102203 0.0227421 0.0398642 0.0612665 0.0865751 0.115375 0.147216 0.18162 0.21809 0.256109 0.295149 0.334663 0.374098 0.412967 0.450703 0.486774 0.520659 0.551852 0.579873 0.604267 0.62462 0.640561 0.65183 0.65845 0.658643 0.655361 0.645368 0.63067 0.61094 0.586445 0.557549 0.524707 0.488459 0.449419 0.408263 0.365719 0.322556 0.279537 0.237388 0.196887 0.15874 0.123598 0.092045 0.0645848 0.0416344 0.0235184 0.0104662 0.00261172 2.82233e-26 0 0.00235262 0.00931056 0.0206971 0.0362466 0.0556594 0.0785904 0.104661 0.133464 0.164573 0.197542 0.231917 0.267232 0.303009 0.338753 0.374039 0.408365 0.441256 0.472245 0.500875 0.526704 0.549312 0.568312 0.583348 0.594116 0.60085 0.601421 0.599073 0.590439 0.577457 0.559818 0.537744 0.51156 0.48168 0.448597 0.412879 0.375155 0.3361 0.296433 0.256874 0.218097 0.180832 0.145736 0.113415 0.0844116 0.0591886 0.0381272 0.0215198 0.00956855 0.00238563 2.57703e-26 0 0.00208782 0.00825272 0.0183217 0.0320484 0.0491575 0.0693385 0.0922544 0.117549 0.144852 0.173782 0.203951 0.234964 0.266422 0.297896 0.329033 0.359403 0.388597 0.41621 0.441839 0.465089 0.485582 0.502959 0.51689 0.52708 0.533609 0.535052 0.533233 0.526397 0.515295 0.500046 0.480756 0.457707 0.431261 0.401861 0.370019 0.336307 0.301342 0.265776 0.230279 0.195466 0.162002 0.130491 0.101486 0.0754745 0.0528757 0.0340277 0.0191857 0.00852117 0.00212207 2.29117e-26 0 0.00178991 0.00706332 0.0156532 0.0273354 0.0418633 0.0589649 0.0783512 0.099722 0.12277 0.147184 0.17265 0.198853 0.225474 0.252176 0.278661 0.304591 0.329631 0.35344 0.375679 0.396005 0.414086 0.429598 0.442238 0.451726 0.457999 0.460288 0.459115 0.454174 0.445169 0.432571 0.416384 0.39684 0.374248 0.348991 0.321518 0.292336 0.261993 0.231071 0.200174 0.16985 0.140696 0.113248 0.0879972 0.065375 0.0457459 0.0294005 0.016553 0.00734061 0.00182519 1.96923e-26 0 0.00146354 0.00576099 0.0127336 0.022182 0.0338915 0.0476331 0.0631701 0.0802633 0.0986745 0.118168 0.13851 0.15947 0.180817 0.20231 0.223715 0.244794 0.265286 0.284926 0.303438 0.320542 0.335953 0.349387 0.360571 0.369246 0.375225 0.378292 0.377906 0.374906 0.368186 0.358459 0.345645 0.329923 0.311543 0.290823 0.268143 0.243936 0.218677 0.192866 0.167034 0.141656 0.117249 0.0942781 0.0731635 0.0542728 0.0379117 0.0243187 0.0136632 0.00604548 0.00149966 1.61624e-26 0 0.00111385 0.00436614 0.00960879 0.0166691 0.0253677 0.0355216 0.0469502 0.0594797 0.0729449 0.0871899 0.102067 0.117435 0.133153 0.149081 0.165065 0.180954 0.196577 0.211746 0.226256 0.239889 0.252413 0.263589 0.273176 0.280937 0.286653 0.290205 0.291068 0.289709 0.285601 0.278877 0.269654 0.258011 0.244135 0.228274 0.210735 0.191872 0.172076 0.151766 0.131381 0.11133 0.092034 0.0738816 0.0572188 0.0423431 0.0294969 0.0188626 0.0105619 0.00465623 0.00115062 1.23776e-26 0 0.000746332 0.00290066 0.0063279 0.0108836 0.0164261 0.0228211 0.0299472 0.0376986 0.0459865 0.0547386 0.0638958 0.0734092 0.0832341 0.0933246 0.103628 0.114077 0.124586 0.135051 0.145345 0.155313 0.16478 0.173553 0.181427 0.188189 0.193633 0.197533 0.199809 0.200064 0.198647 0.195087 0.189606 0.182235 0.173084 0.16233 0.1502 0.136964 0.122927 0.108419 0.093782 0.0793493 0.0654476 0.0523806 0.0404149 0.0297744 0.0206342 0.0131183 0.00729807 0.00319478 0.000783567 8.39721e-27 0 0.000366762 0.00138763 0.00294285 0.00491734 0.00720905 0.00973453 0.0124332 0.0152694 0.0182329 0.0213361 0.0246109 0.0281026 0.0318636 0.0359452 0.0403907 0.0452271 0.0504596 0.0560666 0.0619947 0.0681586 0.0744422 0.0806989 0.086766 0.0924572 0.0975806 0.101909 0.105291 0.10758 0.108649 0.108362 0.106781 0.103786 0.0995097 0.0940295 0.0874911 0.0800779 0.0720044 0.0635059 0.0548292 0.0462198 0.0379098 0.0301143 0.023017 0.0167648 0.0114636 0.00717635 0.00392317 0.00168417 0.000404284 4.2838e-27 0 -1.87497e-05 -0.000148228 -0.000490435 -0.0011305 -0.00212965 -0.00351971 -0.00529965 -0.00743424 -0.00985506 -0.0124638 -0.0151375 -0.0177358 -0.0201093 -0.0221087 -0.0235943 -0.0244451 -0.0245668 -0.0238977 -0.0224144 -0.0201341 -0.0171133 -0.0134479 -0.00926672 -0.00472579 -2.92156e-08 0.00472577 0.00926664 0.0134477 0.017113 0.0201336 0.0224141 0.0238974 0.0245666 0.0244452 0.0235944 0.0221088 0.0201093 0.0177358 0.0151375 0.0124638 0.00985502 0.0074342 0.00529967 0.00351975 0.00212966 0.0011305 0.000490436 0.000148228 1.87497e-05 1.02114e-28 0 -0.000404284 -0.00168417 -0.00392317 -0.00717635 -0.0114636 -0.0167648 -0.023017 -0.0301144 -0.0379098 -0.0462198 -0.0548292 -0.0635059 -0.0720043 -0.0800778 -0.0874909 -0.0940294 -0.0995097 -0.103787 -0.106781 -0.108362 -0.108649 -0.10758 -0.105291 -0.101909 -0.0975807 -0.0924572 -0.086766 -0.080699 -0.0744425 -0.068159 -0.0619948 -0.0560668 -0.0504599 -0.0452271 -0.0403905 -0.0359451 -0.0318635 -0.0281026 -0.0246109 -0.0213361 -0.0182329 -0.0152695 -0.0124331 -0.00973448 -0.00720904 -0.00491734 -0.00294285 -0.00138763 -0.000366762 -4.08197e-27 0 -0.000783567 -0.00319478 -0.00729807 -0.0131183 -0.0206342 -0.0297743 -0.0404149 -0.0523806 -0.0654476 -0.0793493 -0.093782 -0.108419 -0.122927 -0.136964 -0.1502 -0.16233 -0.173084 -0.182235 -0.189607 -0.195088 -0.198647 -0.200064 -0.199809 -0.197533 -0.193633 -0.188189 -0.181427 -0.173553 -0.16478 -0.155313 -0.145345 -0.135051 -0.124586 -0.114077 -0.103628 -0.0933246 -0.083234 -0.0734092 -0.0638958 -0.0547386 -0.0459866 -0.0376986 -0.0299471 -0.0228211 -0.0164261 -0.0108836 -0.0063279 -0.00290066 -0.000746332 -8.20247e-27 0 -0.00115062 -0.00465623 -0.0105619 -0.0188626 -0.0294969 -0.0423431 -0.0572188 -0.0738816 -0.092034 -0.11133 -0.131381 -0.151766 -0.172076 -0.191872 -0.210735 -0.228274 -0.244135 -0.258011 -0.269654 -0.278877 -0.285601 -0.289709 -0.291068 -0.290205 -0.286653 -0.280937 -0.273176 -0.263589 -0.252413 -0.239889 -0.226256 -0.211746 -0.196577 -0.180954 -0.165065 -0.149081 -0.133153 -0.117435 -0.102067 -0.0871899 -0.0729449 -0.0594797 -0.0469502 -0.0355215 -0.0253677 -0.0166691 -0.00960879 -0.00436614 -0.00111385 -1.21943e-26 0 -0.00149966 -0.00604548 -0.0136632 -0.0243187 -0.0379117 -0.0542728 -0.0731634 -0.0942781 -0.117249 -0.141656 -0.167034 -0.192866 -0.218677 -0.243936 -0.268143 -0.290823 -0.311543 -0.329923 -0.345645 -0.358459 -0.368186 -0.374906 -0.377906 -0.378292 -0.375225 -0.369246 -0.360571 -0.349387 -0.335953 -0.320542 -0.303438 -0.284926 -0.265286 -0.244794 -0.223715 -0.20231 -0.180817 -0.15947 -0.13851 -0.118168 -0.0986745 -0.0802633 -0.06317 -0.047633 -0.0338915 -0.0221819 -0.0127336 -0.00576099 -0.00146354 -1.59944e-26 0 -0.00182519 -0.00734061 -0.016553 -0.0294005 -0.0457459 -0.065375 -0.0879971 -0.113248 -0.140696 -0.16985 -0.200174 -0.231071 -0.261993 -0.292336 -0.321518 -0.348991 -0.374248 -0.39684 -0.416384 -0.432571 -0.445169 -0.454174 -0.459115 -0.460288 -0.457999 -0.451726 -0.442238 -0.429599 -0.414087 -0.396005 -0.375678 -0.35344 -0.329631 -0.304591 -0.27866 -0.252176 -0.225474 -0.198853 -0.17265 -0.147184 -0.12277 -0.099722 -0.0783511 -0.0589648 -0.0418633 -0.0273354 -0.0156532 -0.00706332 -0.00178991 -1.95427e-26 0 -0.00212207 -0.00852117 -0.0191857 -0.0340277 -0.0528757 -0.0754745 -0.101485 -0.130491 -0.162002 -0.195466 -0.230279 -0.265776 -0.301342 -0.336307 -0.370019 -0.401861 -0.431261 -0.457707 -0.480756 -0.500046 -0.515295 -0.526397 -0.533233 -0.535052 -0.533609 -0.52708 -0.51689 -0.50296 -0.485583 -0.465089 -0.441839 -0.41621 -0.388597 -0.359403 -0.329033 -0.297896 -0.266422 -0.234964 -0.203951 -0.173782 -0.144852 -0.117549 -0.0922544 -0.0693384 -0.0491575 -0.0320484 -0.0183217 -0.00825272 -0.00208782 -2.27828e-26 0 -0.00238563 -0.00956855 -0.0215198 -0.0381272 -0.0591886 -0.0844116 -0.113415 -0.145736 -0.180832 -0.218098 -0.256874 -0.296433 -0.3361 -0.375155 -0.412879 -0.448597 -0.48168 -0.51156 -0.537744 -0.559818 -0.577457 -0.590439 -0.599073 -0.601421 -0.60085 -0.594116 -0.583349 -0.568312 -0.549313 -0.526704 -0.500875 -0.472245 -0.441256 -0.408365 -0.374039 -0.338753 -0.303009 -0.267232 -0.231917 -0.197542 -0.164573 -0.133464 -0.104661 -0.0785904 -0.0556594 -0.0362466 -0.0206971 -0.00931056 -0.00235262 -2.56635e-26 0 -0.00261172 -0.0104662 -0.0235184 -0.0416344 -0.0645848 -0.092045 -0.123598 -0.15874 -0.196887 -0.237388 -0.279537 -0.322556 -0.365719 -0.408263 -0.449418 -0.488459 -0.524707 -0.557549 -0.586445 -0.61094 -0.63067 -0.645368 -0.655361 -0.658643 -0.658449 -0.65183 -0.640561 -0.62462 -0.604267 -0.579873 -0.551852 -0.520659 -0.486774 -0.450704 -0.412968 -0.374098 -0.334663 -0.295149 -0.256109 -0.21809 -0.18162 -0.147216 -0.115375 -0.0865751 -0.0612665 -0.0398642 -0.0227421 -0.0102203 -0.00258015 -2.81389e-26 0 -0.00279677 -0.0112 -0.0251499 -0.0444938 -0.068979 -0.0982542 -0.131873 -0.169298 -0.209914 -0.253031 -0.297909 -0.34373 -0.389728 -0.435109 -0.479059 -0.520815 -0.55966 -0.594943 -0.626087 -0.652601 -0.674089 -0.690253 -0.701373 -0.705584 -0.705632 -0.699276 -0.687619 -0.670991 -0.649575 -0.623753 -0.593963 -0.560684 -0.524431 -0.485749 -0.445203 -0.403374 -0.360884 -0.318273 -0.276143 -0.2351 -0.195726 -0.158587 -0.124227 -0.0931667 -0.0658905 -0.0428442 -0.0244246 -0.0109677 -0.00276685 -3.01698e-26 0 -0.00293786 -0.0117583 -0.0263886 -0.0466602 -0.0723017 -0.102941 -0.138108 -0.177244 -0.219705 -0.26478 -0.311699 -0.359621 -0.407747 -0.455265 -0.50133 -0.54515 -0.585983 -0.623146 -0.656037 -0.684137 -0.707022 -0.72437 -0.736408 -0.741445 -0.741703 -0.735666 -0.723772 -0.706685 -0.684512 -0.657647 -0.626538 -0.591685 -0.553629 -0.512945 -0.470234 -0.426116 -0.381255 -0.336239 -0.291703 -0.248305 -0.206668 -0.167399 -0.131079 -0.0982612 -0.0694588 -0.0451397 -0.0257182 -0.0115412 -0.0029098 -3.17239e-26 0 -0.00303343 -0.0121373 -0.0272312 -0.0481363 -0.0745687 -0.106142 -0.14237 -0.182677 -0.226403 -0.272818 -0.321136 -0.370495 -0.420077 -0.469057 -0.516568 -0.561797 -0.603982 -0.642421 -0.676489 -0.705648 -0.729455 -0.747569 -0.760187 -0.765708 -0.76609 -0.760414 -0.74844 -0.73113 -0.708523 -0.681012 -0.649056 -0.613166 -0.573902 -0.531859 -0.487663 -0.441964 -0.395455 -0.348761 -0.302543 -0.257495 -0.214273 -0.173512 -0.135822 -0.101779 -0.071915 -0.0467147 -0.0266026 -0.0119317 -0.00300677 -3.27763e-26 0 -0.00307939 -0.012311 -0.0275994 -0.0487519 -0.0754726 -0.107365 -0.143939 -0.184611 -0.228723 -0.275544 -0.324292 -0.374112 -0.424183 -0.473693 -0.521776 -0.567623 -0.610473 -0.649621 -0.684438 -0.714376 -0.738982 -0.757895 -0.771219 -0.777729 -0.778427 -0.773335 -0.761549 -0.744361 -0.721729 -0.694045 -0.661768 -0.625415 -0.585556 -0.5428 -0.497792 -0.4512 -0.40374 -0.356067 -0.308855 -0.262827 -0.218661 -0.177015 -0.138516 -0.103755 -0.0732778 -0.0475757 -0.0270778 -0.0121375 -0.0030568 -3.33104e-26 0 -0.00307936 -0.0123106 -0.0275975 -0.0487462 -0.0754597 -0.107341 -0.143897 -0.184547 -0.228632 -0.275424 -0.324142 -0.373935 -0.423984 -0.473479 -0.521556 -0.56741 -0.610275 -0.649449 -0.684297 -0.714271 -0.738911 -0.757855 -0.771202 -0.777726 -0.778429 -0.773355 -0.761605 -0.744463 -0.721886 -0.694258 -0.662033 -0.625725 -0.585897 -0.543158 -0.49815 -0.451543 -0.404054 -0.356344 -0.309087 -0.263011 -0.2188 -0.177113 -0.13858 -0.103793 -0.0732978 -0.0475845 -0.0270808 -0.0121381 -0.00305685 -3.33177e-26 0 -0.00302922 -0.0121038 -0.0271204 -0.0478815 -0.0740896 -0.105352 -0.141183 -0.181016 -0.224206 -0.270047 -0.317778 -0.366579 -0.415647 -0.464202 -0.511407 -0.556474 -0.598663 -0.637283 -0.671715 -0.701416 -0.725931 -0.744895 -0.758346 -0.765297 -0.766236 -0.761918 -0.750759 -0.734296 -0.712417 -0.685492 -0.653963 -0.618333 -0.579161 -0.53705 -0.492642 -0.446605 -0.399656 -0.352462 -0.305695 -0.260087 -0.216321 -0.175057 -0.136925 -0.102512 -0.0723597 -0.0469513 -0.0267055 -0.0119628 -0.00301074 -3.27978e-26 0 -0.00293203 -0.0117117 -0.0262342 -0.0463038 -0.0716294 -0.101829 -0.136433 -0.174894 -0.216592 -0.260847 -0.30693 -0.354055 -0.40145 -0.448368 -0.494005 -0.537606 -0.578457 -0.615892 -0.649313 -0.678191 -0.702083 -0.72063 -0.733841 -0.740852 -0.741902 -0.737832 -0.727137 -0.711302 -0.690213 -0.664225 -0.633762 -0.599309 -0.561404 -0.520633 -0.477616 -0.433003 -0.387492 -0.341733 -0.296381 -0.252149 -0.209703 -0.169685 -0.132708 -0.0993421 -0.0701125 -0.0454866 -0.0258686 -0.0115865 -0.00291557 -3.17592e-26 0 -0.00278877 -0.0111361 -0.0249381 -0.0440047 -0.0680564 -0.0967282 -0.129574 -0.166073 -0.20564 -0.247632 -0.291361 -0.336087 -0.38108 -0.425636 -0.468996 -0.510448 -0.549315 -