<?xml version="1.0"?>
<VTKFile type="PolyData">
	<PolyData>
		<Piece NumberOfPoints="2601" NumberOfPolys="2500">
			<Points>
				<DataArray type="Float32" NumberOfComponents="3" format="ascii">
 0 0 0 0.02 0 0 0.04 0 0 0.06 0 0 0.08 0 0 0.1 0 0 0.12 0 0 0.14 0 0 0.16 0 0 0.18 0 0 0.2 0 0 0.22 0 0 0.24 0 0 0.26 0 0 0.28 0 0 0.3 0 0 0.32 0 0 0.34 0 0 0.36 0 0 0.38 0 0 0.4 0 0 0.42 0 0 0.44 0 0 0.46 0 0 0.48 0 0 0.5 0 0 0.52 0 0 0.54 0 0 0.56 0 0 0.58 0 0 0.6 0 0 0.62 0 0 0.64 0 0 0.66 0 0 0.68 0 0 0.7 0 0 0.72 0 0 0.74 0 0 0.76 0 0 0.78 0 0 0.8 0 0 0.82 0 0 0.84 0 0 0.86 0 0 0.88 0 0 0.9 0 0 0.92 0 0 0.94 0 0 0.96 0 0 0.98 0 0 1 0 0 0 0.02 0 0.02 0.02 0 0.04 0.02 0 0.06 0.02 0 0.08 0.02 0 0.1 0.02 0 0.12 0.02 0 0.14 0.02 0 0.16 0.02 0 0.18 0.02 0 0.2 0.02 0 0.22 0.02 0 0.24 0.02 0 0.26 0.02 0 0.28 0.02 0 0.3 0.02 0 0.32 0.02 0 0.34 0.02 0 0.36 0.02 0 0.38 0.02 0 0.4 0.02 0 0.42 0.02 0 0.44 0.02 0 0.46 0.02 0 0.48 0.02 0 0.5 0.02 0 0.52 0.02 0 0.54 0.02 0 0.56 0.02 0 0.58 0.02 0 0.6 0.02 0 0.62 0.02 0 0.64 0.02 0 0.66 0.02 0 0.68 0.02 0 0.7 0.02 0 0.72 0.02 0 0.74 0.02 0 0.76 0.02 0 0.78 0.02 0 0.8 0.02 0 0.82 0.02 0 0.84 0.02 0 0.86 0.02 0 0.88 0.02 0 0.9 0.02 0 0.92 0.02 0 0.94 0.02 0 0.96 0.02 0 0.98 0.02 0 1 0.02 0 0 0.04 0 0.02 0.04 0 0.04 0.04 0 0.06 0.04 0 0.08 0.04 0 0.1 0.04 0 0.12 0.04 0 0.14 0.04 0 0.16 0.04 0 0.18 0.04 0 0.2 0.04 0 0.22 0.04 0 0.24 0.04 0 0.26 0.04 0 0.28 0.04 0 0.3 0.04 0 0.32 0.04 0 0.34 0.04 0 0.36 0.04 0 0.38 0.04 0 0.4 0.04 0 0.42 0.04 0 0.44 0.04 0 0.46 0.04 0 0.48 0.04 0 0.5 0.04 0 0.52 0.04 0 0.54 0.04 0 0.56 0.04 0 0.58 0.04 0 0.6 0.04 0 0.62 0.04 0 0.64 0.04 0 0.66 0.04 0 0.68 0.04 0 0.7 0.04 0 0.72 0.04 0 0.74 0.04 0 0.76 0.04 0 0.78 0.04 0 0.8 0.04 0 0.82 0.04 0 0.84 0.04 0 0.86 0.04 0 0.88 0.04 0 0.9 0.04 0 0.92 0.04 0 0.94 0.04 0 0.96 0.04 0 0.98 0.04 0 1 0.04 0 0 0.06 0 0.02 0.06 0 0.04 0.06 0 0.06 0.06 0 0.08 0.06 0 0.1 0.06 0 0.12 0.06 0 0.14 0.06 0 0.16 0.06 0 0.18 0.06 0 0.2 0.06 0 0.22 0.06 0 0.24 0.06 0 0.26 0.06 0 0.28 0.06 0 0.3 0.06 0 0.32 0.06 0 0.34 0.06 0 0.36 0.06 0 0.38 0.06 0 0.4 0.06 0 0.42 0.06 0 0.44 0.06 0 0.46 0.06 0 0.48 0.06 0 0.5 0.06 0 0.52 0.06 0 0.54 0.06 0 0.56 0.06 0 0.58 0.06 0 0.6 0.06 0 0.62 0.06 0 0.64 0.06 0 0.66 0.06 0 0.68 0.06 0 0.7 0.06 0 0.72 0.06 0 0.74 0.06 0 0.76 0.06 0 0.78 0.06 0 0.8 0.06 0 0.82 0.06 0 0.84 0.06 0 0.86 0.06 0 0.88 0.06 0 0.9 0.06 0 0.92 0.06 0 0.94 0.06 0 0.96 0.06 0 0.98 0.06 0 1 0.06 0 0 0.08 0 0.02 0.08 0 0.04 0.08 0 0.06 0.08 0 0.08 0.08 0 0.1 0.08 0 0.12 0.08 0 0.14 0.08 0 0.16 0.08 0 0.18 0.08 0 0.2 0.08 0 0.22 0.08 0 0.24 0.08 0 0.26 0.08 0 0.28 0.08 0 0.3 0.08 0 0.32 0.08 0 0.34 0.08 0 0.36 0.08 0 0.38 0.08 0 0.4 0.08 0 0.42 0.08 0 0.44 0.08 0 0.46 0.08 0 0.48 0.08 0 0.5 0.08 0 0.52 0.08 0 0.54 0.08 0 0.56 0.08 0 0.58 0.08 0 0.6 0.08 0 0.62 0.08 0 0.64 0.08 0 0.66 0.08 0 0.68 0.08 0 0.7 0.08 0 0.72 0.08 0 0.74 0.08 0 0.76 0.08 0 0.78 0.08 0 0.8 0.08 0 0.82 0.08 0 0.84 0.08 0 0.86 0.08 0 0.88 0.08 0 0.9 0.08 0 0.92 0.08 0 0.94 0.08 0 0.96 0.08 0 0.98 0.08 0 1 0.08 0 0 0.1 0 0.02 0.1 0 0.04 0.1 0 0.06 0.1 0 0.08 0.1 0 0.1 0.1 0 0.12 0.1 0 0.14 0.1 0 0.16 0.1 0 0.18 0.1 0 0.2 0.1 0 0.22 0.1 0 0.24 0.1 0 0.26 0.1 0 0.28 0.1 0 0.3 0.1 0 0.32 0.1 0 0.34 0.1 0 0.36 0.1 0 0.38 0.1 0 0.4 0.1 0 0.42 0.1 0 0.44 0.1 0 0.46 0.1 0 0.48 0.1 0 0.5 0.1 0 0.52 0.1 0 0.54 0.1 0 0.56 0.1 0 0.58 0.1 0 0.6 0.1 0 0.62 0.1 0 0.64 0.1 0 0.66 0.1 0 0.68 0.1 0 0.7 0.1 0 0.72 0.1 0 0.74 0.1 0 0.76 0.1 0 0.78 0.1 0 0.8 0.1 0 0.82 0.1 0 0.84 0.1 0 0.86 0.1 0 0.88 0.1 0 0.9 0.1 0 0.92 0.1 0 0.94 0.1 0 0.96 0.1 0 0.98 0.1 0 1 0.1 0 0 0.12 0 0.02 0.12 0 0.04 0.12 0 0.06 0.12 0 0.08 0.12 0 0.1 0.12 0 0.12 0.12 0 0.14 0.12 0 0.16 0.12 0 0.18 0.12 0 0.2 0.12 0 0.22 0.12 0 0.24 0.12 0 0.26 0.12 0 0.28 0.12 0 0.3 0.12 0 0.32 0.12 0 0.34 0.12 0 0.36 0.12 0 0.38 0.12 0 0.4 0.12 0 0.42 0.12 0 0.44 0.12 0 0.46 0.12 0 0.48 0.12 0 0.5 0.12 0 0.52 0.12 0 0.54 0.12 0 0.56 0.12 0 0.58 0.12 0 0.6 0.12 0 0.62 0.12 0 0.64 0.12 0 0.66 0.12 0 0.68 0.12 0 0.7 0.12 0 0.72 0.12 0 0.74 0.12 0 0.76 0.12 0 0.78 0.12 0 0.8 0.12 0 0.82 0.12 0 0.84 0.12 0 0.86 0.12 0 0.88 0.12 0 0.9 0.12 0 0.92 0.12 0 0.94 0.12 0 0.96 0.12 0 0.98 0.12 0 1 0.12 0 0 0.14 0 0.02 0.14 0 0.04 0.14 0 0.06 0.14 0 0.08 0.14 0 0.1 0.14 0 0.12 0.14 0 0.14 0.14 0 0.16 0.14 0 0.18 0.14 0 0.2 0.14 0 0.22 0.14 0 0.24 0.14 0 0.26 0.14 0 0.28 0.14 0 0.3 0.14 0 0.32 0.14 0 0.34 0.14 0 0.36 0.14 0 0.38 0.14 0 0.4 0.14 0 0.42 0.14 0 0.44 0.14 0 0.46 0.14 0 0.48 0.14 0 0.5 0.14 0 0.52 0.14 0 0.54 0.14 0 0.56 0.14 0 0.58 0.14 0 0.6 0.14 0 0.62 0.14 0 0.64 0.14 0 0.66 0.14 0 0.68 0.14 0 0.7 0.14 0 0.72 0.14 0 0.74 0.14 0 0.76 0.14 0 0.78 0.14 0 0.8 0.14 0 0.82 0.14 0 0.84 0.14 0 0.86 0.14 0 0.88 0.14 0 0.9 0.14 0 0.92 0.14 0 0.94 0.14 0 0.96 0.14 0 0.98 0.14 0 1 0.14 0 0 0.16 0 0.02 0.16 0 0.04 0.16 0 0.06 0.16 0 0.08 0.16 0 0.1 0.16 0 0.12 0.16 0 0.14 0.16 0 0.16 0.16 0 0.18 0.16 0 0.2 0.16 0 0.22 0.16 0 0.24 0.16 0 0.26 0.16 0 0.28 0.16 0 0.3 0.16 0 0.32 0.16 0 0.34 0.16 0 0.36 0.16 0 0.38 0.16 0 0.4 0.16 0 0.42 0.16 0 0.44 0.16 0 0.46 0.16 0 0.48 0.16 0 0.5 0.16 0 0.52 0.16 0 0.54 0.16 0 0.56 0.16 0 0.58 0.16 0 0.6 0.16 0 0.62 0.16 0 0.64 0.16 0 0.66 0.16 0 0.68 0.16 0 0.7 0.16 0 0.72 0.16 0 0.74 0.16 0 0.76 0.16 0 0.78 0.16 0 0.8 0.16 0 0.82 0.16 0 0.84 0.16 0 0.86 0.16 0 0.88 0.16 0 0.9 0.16 0 0.92 0.16 0 0.94 0.16 0 0.96 0.16 0 0.98 0.16 0 1 0.16 0 0 0.18 0 0.02 0.18 0 0.04 0.18 0 0.06 0.18 0 0.08 0.18 0 0.1 0.18 0 0.12 0.18 0 0.14 0.18 0 0.16 0.18 0 0.18 0.18 0 0.2 0.18 0 0.22 0.18 0 0.24 0.18 0 0.26 0.18 0 0.28 0.18 0 0.3 0.18 0 0.32 0.18 0 0.34 0.18 0 0.36 0.18 0 0.38 0.18 0 0.4 0.18 0 0.42 0.18 0 0.44 0.18 0 0.46 0.18 0 0.48 0.18 0 0.5 0.18 0 0.52 0.18 0 0.54 0.18 0 0.56 0.18 0 0.58 0.18 0 0.6 0.18 0 0.62 0.18 0 0.64 0.18 0 0.66 0.18 0 0.68 0.18 0 0.7 0.18 0 0.72 0.18 0 0.74 0.18 0 0.76 0.18 0 0.78 0.18 0 0.8 0.18 0 0.82 0.18 0 0.84 0.18 0 0.86 0.18 0 0.88 0.18 0 0.9 0.18 0 0.92 0.18 0 0.94 0.18 0 0.96 0.18 0 0.98 0.18 0 1 0.18 0 0 0.2 0 0.02 0.2 0 0.04 0.2 0 0.06 0.2 0 0.08 0.2 0 0.1 0.2 0 0.12 0.2 0 0.14 0.2 0 0.16 0.2 0 0.18 0.2 0 0.2 0.2 0 0.22 0.2 0 0.24 0.2 0 0.26 0.2 0 0.28 0.2 0 0.3 0.2 0 0.32 0.2 0 0.34 0.2 0 0.36 0.2 0 0.38 0.2 0 0.4 0.2 0 0.42 0.2 0 0.44 0.2 0 0.46 0.2 0 0.48 0.2 0 0.5 0.2 0 0.52 0.2 0 0.54 0.2 0 0.56 0.2 0 0.58 0.2 0 0.6 0.2 0 0.62 0.2 0 0.64 0.2 0 0.66 0.2 0 0.68 0.2 0 0.7 0.2 0 0.72 0.2 0 0.74 0.2 0 0.76 0.2 0 0.78 0.2 0 0.8 0.2 0 0.82 0.2 0 0.84 0.2 0 0.86 0.2 0 0.88 0.2 0 0.9 0.2 0 0.92 0.2 0 0.94 0.2 0 0.96 0.2 0 0.98 0.2 0 1 0.2 0 0 0.22 0 0.02 0.22 0 0.04 0.22 0 0.06 0.22 0 0.08 0.22 0 0.1 0.22 0 0.12 0.22 0 0.14 0.22 0 0.16 0.22 0 0.18 0.22 0 0.2 0.22 0 0.22 0.22 0 0.24 0.22 0 0.26 0.22 0 0.28 0.22 0 0.3 0.22 0 0.32 0.22 0 0.34 0.22 0 0.36 0.22 0 0.38 0.22 0 0.4 0.22 0 0.42 0.22 0 0.44 0.22 0 0.46 0.22 0 0.48 0.22 0 0.5 0.22 0 0.52 0.22 0 0.54 0.22 0 0.56 0.22 0 0.58 0.22 0 0.6 0.22 0 0.62 0.22 0 0.64 0.22 0 0.66 0.22 0 0.68 0.22 0 0.7 0.22 0 0.72 0.22 0 0.74 0.22 0 0.76 0.22 0 0.78 0.22 0 0.8 0.22 0 0.82 0.22 0 0.84 0.22 0 0.86 0.22 0 0.88 0.22 0 0.9 0.22 0 0.92 0.22 0 0.94 0.22 0 0.96 0.22 0 0.98 0.22 0 1 0.22 0 0 0.24 0 0.02 0.24 0 0.04 0.24 0 0.06 0.24 0 0.08 0.24 0 0.1 0.24 0 0.12 0.24 0 0.14 0.24 0 0.16 0.24 0 0.18 0.24 0 0.2 0.24 0 0.22 0.24 0 0.24 0.24 0 0.26 0.24 0 0.28 0.24 0 0.3 0.24 0 0.32 0.24 0 0.34 0.24 0 0.36 0.24 0 0.38 0.24 0 0.4 0.24 0 0.42 0.24 0 0.44 0.24 0 0.46 0.24 0 0.48 0.24 0 0.5 0.24 0 0.52 0.24 0 0.54 0.24 0 0.56 0.24 0 0.58 0.24 0 0.6 0.24 0 0.62 0.24 0 0.64 0.24 0 0.66 0.24 0 0.68 0.24 0 0.7 0.24 0 0.72 0.24 0 0.74 0.24 0 0.76 0.24 0 0.78 0.24 0 0.8 0.24 0 0.82 0.24 0 0.84 0.24 0 0.86 0.24 0 0.88 0.24 0 0.9 0.24 0 0.92 0.24 0 0.94 0.24 0 0.96 0.24 0 0.98 0.24 0 1 0.24 0 0 0.26 0 0.02 0.26 0 0.04 0.26 0 0.06 0.26 0 0.08 0.26 0 0.1 0.26 0 0.12 0.26 0 0.14 0.26 0 0.16 0.26 0 0.18 0.26 0 0.2 0.26 0 0.22 0.26 0 0.24 0.26 0 0.26 0.26 0 0.28 0.26 0 0.3 0.26 0 0.32 0.26 0 0.34 0.26 0 0.36 0.26 0 0.38 0.26 0 0.4 0.26 0 0.42 0.26 0 0.44 0.26 0 0.46 0.26 0 0.48 0.26 0 0.5 0.26 0 0.52 0.26 0 0.54 0.26 0 0.56 0.26 0 0.58 0.26 0 0.6 0.26 0 0.62 0.26 0 0.64 0.26 0 0.66 0.26 0 0.68 0.26 0 0.7 0.26 0 0.72 0.26 0 0.74 0.26 0 0.76 0.26 0 0.78 0.26 0 0.8 0.26 0 0.82 0.26 0 0.84 0.26 0 0.86 0.26 0 0.88 0.26 0 0.9 0.26 0 0.92 0.26 0 0.94 0.26 0 0.96 0.26 0 0.98 0.26 0 1 0.26 0 0 0.28 0 0.02 0.28 0 0.04 0.28 0 0.06 0.28 0 0.08 0.28 0 0.1 0.28 0 0.12 0.28 0 0.14 0.28 0 0.16 0.28 0 0.18 0.28 0 0.2 0.28 0 0.22 0.28 0 0.24 0.28 0 0.26 0.28 0 0.28 0.28 0 0.3 0.28 0 0.32 0.28 0 0.34 0.28 0 0.36 0.28 0 0.38 0.28 0 0.4 0.28 0 0.42 0.28 0 0.44 0.28 0 0.46 0.28 0 0.48 0.28 0 0.5 0.28 0 0.52 0.28 0 0.54 0.28 0 0.56 0.28 0 0.58 0.28 0 0.6 0.28 0 0.62 0.28 0 0.64 0.28 0 0.66 0.28 0 0.68 0.28 0 0.7 0.28 0 0.72 0.28 0 0.74 0.28 0 0.76 0.28 0 0.78 0.28 0 0.8 0.28 0 0.82 0.28 0 0.84 0.28 0 0.86 0.28 0 0.88 0.28 0 0.9 0.28 0 0.92 0.28 0 0.94 0.28 0 0.96 0.28 0 0.98 0.28 0 1 0.28 0 0 0.3 0 0.02 0.3 0 0.04 0.3 0 0.06 0.3 0 0.08 0.3 0 0.1 0.3 0 0.12 0.3 0 0.14 0.3 0 0.16 0.3 0 0.18 0.3 0 0.2 0.3 0 0.22 0.3 0 0.24 0.3 0 0.26 0.3 0 0.28 0.3 0 0.3 0.3 0 0.32 0.3 0 0.34 0.3 0 0.36 0.3 0 0.38 0.3 0 0.4 0.3 0 0.42 0.3 0 0.44 0.3 0 0.46 0.3 0 0.48 0.3 0 0.5 0.3 0 0.52 0.3 0 0.54 0.3 0 0.56 0.3 0 0.58 0.3 0 0.6 0.3 0 0.62 0.3 0 0.64 0.3 0 0.66 0.3 0 0.68 0.3 0 0.7 0.3 0 0.72 0.3 0 0.74 0.3 0 0.76 0.3 0 0.78 0.3 0 0.8 0.3 0 0.82 0.3 0 0.84 0.3 0 0.86 0.3 0 0.88 0.3 0 0.9 0.3 0 0.92 0.3 0 0.94 0.3 0 0.96 0.3 0 0.98 0.3 0 1 0.3 0 0 0.32 0 0.02 0.32 0 0.04 0.32 0 0.06 0.32 0 0.08 0.32 0 0.1 0.32 0 0.12 0.32 0 0.14 0.32 0 0.16 0.32 0 0.18 0.32 0 0.2 0.32 0 0.22 0.32 0 0.24 0.32 0 0.26 0.32 0 0.28 0.32 0 0.3 0.32 0 0.32 0.32 0 0.34 0.32 0 0.36 0.32 0 0.38 0.32 0 0.4 0.32 0 0.42 0.32 0 0.44 0.32 0 0.46 0.32 0 0.48 0.32 0 0.5 0.32 0 0.52 0.32 0 0.54 0.32 0 0.56 0.32 0 0.58 0.32 0 0.6 0.32 0 0.62 0.32 0 0.64 0.32 0 0.66 0.32 0 0.68 0.32 0 0.7 0.32 0 0.72 0.32 0 0.74 0.32 0 0.76 0.32 0 0.78 0.32 0 0.8 0.32 0 0.82 0.32 0 0.84 0.32 0 0.86 0.32 0 0.88 0.32 0 0.9 0.32 0 0.92 0.32 0 0.94 0.
[...]
			<PointData Scalars="VitesseX">
				<DataArray Name="VitesseX" type="Float32" format="ascii">
 0 0 0 0 0 0 0 0 0 0 0 0 0 0 0 0 0 0 0 0 0 0 0 0 0 0 0 0 0 0 0 0 0 0 0 0 0 0 0 0 0 0 0 0 0 0 0 0 0 0 -0 0 -0.000494015 -0.00196851 -0.00440031 -0.00775125 -0.0119686 -0.0169859 -0.0227241 -0.0290927 -0.0359911 -0.0433105 -0.0509353 -0.0587441 -0.0666142 -0.0744226 -0.0820449 -0.0893611 -0.0962554 -0.102619 -0.108352 -0.113363 -0.117574 -0.120918 -0.123357 -0.12481 -0.125297 -0.1248 -0.123296 -0.120851 -0.117488 -0.113262 -0.108239 -0.102499 -0.0961319 -0.0892381 -0.0819261 -0.074311 -0.0665135 -0.0586549 -0.0508581 -0.0432466 -0.0359403 -0.029054 -0.0226962 -0.016967 -0.0119568 -0.00774467 -0.00439714 -0.00196713 -0.000493823 -5.36136e-27 0 -0.000980556 -0.00390889 -0.00874084 -0.0154024 -0.02379 -0.0337726 -0.0451931 -0.0578712 -0.0716061 -0.0861799 -0.101361 -0.116904 -0.132563 -0.148094 -0.163246 -0.177778 -0.191459 -0.204072 -0.215418 -0.225317 -0.233613 -0.240177 -0.244959 -0.247732 -0.248606 -0.247567 -0.244484 -0.239562 -0.232831 -0.224396 -0.214393 -0.202979 -0.190335 -0.176659 -0.162165 -0.147081 -0.131644 -0.116092 -0.100664 -0.085605 -0.0711502 -0.057526 -0.0449456 -0.0336069 -0.0236884 -0.0153471 -0.0087156 -0.0038996 -0.000979313 -1.0639e-26 0 -0.0014518 -0.00578934 -0.0129492 -0.0228235 -0.0352606 -0.0500667 -0.0670095 -0.0858211 -0.106203 -0.12783 -0.150357 -0.173416 -0.196641 -0.21967 -0.242128 -0.263654 -0.283906 -0.30256 -0.319321 -0.333924 -0.34614 -0.355779 -0.362799 -0.36678 -0.367974 -0.366363 -0.361673 -0.354299 -0.344257 -0.331708 -0.316854 -0.299929 -0.2812 -0.26096 -0.239526 -0.217231 -0.194428 -0.171461 -0.14868 -0.126446 -0.105106 -0.0849906 -0.0664143 -0.0496684 -0.0350166 -0.0226911 -0.012889 -0.00576751 -0.00144889 -1.57498e-26 0 -0.00190035 -0.00758045 -0.0169597 -0.0298995 -0.0462028 -0.065617 -0.0878377 -0.112514 -0.139252 -0.167624 -0.197176 -0.227417 -0.25787 -0.288058 -0.317483 -0.345673 -0.372175 -0.396565 -0.418456 -0.437502 -0.453404 -0.465917 -0.475019 -0.480076 -0.481511 -0.479302 -0.47301 -0.463247 -0.450006 -0.433503 -0.414003 -0.391816 -0.36729 -0.34081 -0.312787 -0.283654 -0.253873 -0.223887 -0.194148 -0.165126 -0.137272 -0.111015 -0.0867639 -0.0648986 -0.0457629 -0.029661 -0.0168515 -0.00754154 -0.00189517 -2.06128e-26 0 -0.00231915 -0.00925396 -0.0207092 -0.0365188 -0.0564441 -0.0801781 -0.107349 -0.137528 -0.170231 -0.204935 -0.241077 -0.278057 -0.315284 -0.352178 -0.388125 -0.422541 -0.454874 -0.484604 -0.511258 -0.534414 -0.553711 -0.568852 -0.579843 -0.585831 -0.587424 -0.584596 -0.576737 -0.564685 -0.548408 -0.528173 -0.504307 -0.477191 -0.447249 -0.414949 -0.380791 -0.345302 -0.309042 -0.272544 -0.23635 -0.201035 -0.16714 -0.135188 -0.105674 -0.0790574 -0.0557583 -0.0361472 -0.020541 -0.00919388 -0.00231116 -2.5151e-26 0 -0.00270159 -0.0107835 -0.0241385 -0.0425768 -0.065823 -0.0935206 -0.125237 -0.160469 -0.198653 -0.239173 -0.281371 -0.324536 -0.367981 -0.411023 -0.452939 -0.493049 -0.530702 -0.565291 -0.596265 -0.623135 -0.645481 -0.662962 -0.675613 -0.68238 -0.684044 -0.68058 -0.671221 -0.657016 -0.637913 -0.614228 -0.586346 -0.554709 -0.519817 -0.48221 -0.44247 -0.401205 -0.359066 -0.316665 -0.274622 -0.233606 -0.194241 -0.15713 -0.122846 -0.0919222 -0.0648454 -0.0420477 -0.0238995 -0.0106987 -0.00269034 -2.92921e-26 0 -0.00304165 -0.0121449 -0.0271936 -0.0479782 -0.0741916 -0.105434 -0.141218 -0.180976 -0.22407 -0.269801 -0.317423 -0.366125 -0.41513 -0.463666 -0.51091 -0.556088 -0.598467 -0.637359 -0.672144 -0.702271 -0.727273 -0.746769 -0.760824 -0.768205 -0.769853 -0.765745 -0.754977 -0.738791 -0.717117 -0.690317 -0.658829 -0.623154 -0.583854 -0.541537 -0.496854 -0.450484 -0.403159 -0.355555 -0.308363 -0.262328 -0.218148 -0.176495 -0.138011 -0.103291 -0.0728815 -0.0472699 -0.0268744 -0.0120325 -0.00302677 -3.29706e-26 0 -0.00333398 -0.0133167 -0.0298262 -0.0526377 -0.081418 -0.115731 -0.155041 -0.198726 -0.246081 -0.296335 -0.348664 -0.40217 -0.455993 -0.509282 -0.561126 -0.610671 -0.657106 -0.699678 -0.737704 -0.770583 -0.797806 -0.818961 -0.834139 -0.841961 -0.843506 -0.838754 -0.826693 -0.808727 -0.784777 -0.755247 -0.720621 -0.681453 -0.638357 -0.592 -0.54309 -0.492367 -0.440629 -0.388604 -0.337041 -0.286749 -0.238485 -0.19298 -0.150929 -0.112984 -0.0797403 -0.0517317 -0.0294188 -0.0131745 -0.00331519 -3.61278e-26 0 -0.00357398 -0.0142804 -0.0319948 -0.0564818 -0.0873881 -0.124248 -0.166488 -0.213439 -0.26434 -0.318359 -0.374605 -0.432104 -0.489927 -0.547155 -0.6028 -0.655942 -0.705703 -0.751274 -0.791922 -0.827004 -0.855978 -0.878411 -0.894413 -0.902498 -0.903853 -0.898466 -0.885248 -0.865732 -0.839837 -0.808004 -0.770757 -0.728694 -0.682473 -0.632809 -0.580455 -0.526199 -0.470889 -0.415296 -0.360208 -0.306487 -0.254934 -0.206326 -0.1614 -0.12085 -0.0853142 -0.0553632 -0.0314931 -0.0141069 -0.00355111 -3.87135e-26 0 -0.00375787 -0.0150208 -0.0336652 -0.0594498 -0.0920079 -0.130852 -0.17538 -0.224883 -0.278559 -0.335526 -0.394837 -0.455457 -0.5164 -0.576691 -0.635281 -0.691192 -0.743498 -0.791341 -0.83395 -0.870652 -0.900881 -0.92419 -0.940707 -0.948871 -0.949953 -0.943953 -0.92973 -0.908917 -0.881438 -0.847765 -0.808455 -0.76414 -0.715515 -0.663328 -0.608366 -0.551451 -0.493467 -0.435211 -0.377501 -0.321232 -0.267237 -0.216322 -0.169257 -0.126766 -0.0895157 -0.0581075 -0.0330648 -0.0148152 -0.00373084 -4.06866e-26 0 -0.00388276 -0.0155263 -0.0348111 -0.0614951 -0.0952044 -0.135438 -0.181574 -0.232878 -0.288515 -0.347566 -0.409042 -0.471863 -0.534997 -0.597428 -0.65806 -0.715872 -0.7699 -0.819253 -0.863135 -0.900849 -0.931818 -0.955588 -0.972303 -0.980359 -0.98109 -0.974712 -0.959832 -0.93815 -0.909595 -0.874664 -0.833941 -0.788084 -0.737816 -0.683908 -0.627175 -0.568459 -0.508671 -0.448623 -0.389151 -0.331172 -0.275537 -0.223073 -0.174568 -0.130767 -0.0923597 -0.0599659 -0.0341291 -0.0152946 -0.0038524 -4.20157e-26 0 -0.00394762 -0.0157961 -0.0354378 -0.0626381 -0.0970247 -0.138092 -0.185207 -0.237619 -0.29447 -0.354813 -0.417628 -0.481801 -0.546263 -0.609967 -0.671777 -0.730641 -0.785565 -0.835636 -0.880036 -0.918058 -0.949121 -0.972771 -0.989174 -0.996716 -0.99678 -0.989456 -0.973556 -0.950833 -0.921236 -0.885285 -0.843581 -0.796794 -0.745654 -0.690937 -0.633457 -0.574054 -0.513632 -0.452998 -0.39298 -0.334487 -0.278367 -0.22544 -0.176495 -0.132278 -0.0934805 -0.0607329 -0.0345902 -0.015513 -0.00391065 -4.26795e-26 0 -0.00394768 -0.0157969 -0.0354418 -0.0626499 -0.0970516 -0.138144 -0.185294 -0.237752 -0.294659 -0.355064 -0.417943 -0.482173 -0.546685 -0.61042 -0.672242 -0.731095 -0.785987 -0.836006 -0.88034 -0.918289 -0.949278 -0.972863 -0.989213 -0.996725 -0.99678 -0.989424 -0.973458 -0.950642 -0.920934 -0.884866 -0.843051 -0.79617 -0.744962 -0.690208 -0.632724 -0.573349 -0.512986 -0.452428 -0.392502 -0.334107 -0.27808 -0.225238 -0.176363 -0.132199 -0.0934392 -0.0607147 -0.0345841 -0.0155117 -0.00391055 -4.26677e-26 0 -0.00388972 -0.0155811 -0.0349916 -0.0619091 -0.0959809 -0.136716 -0.183491 -0.235558 -0.292058 -0.352038 -0.414465 -0.478214 -0.542196 -0.605353 -0.666532 -0.724672 -0.778771 -0.827916 -0.871294 -0.908212 -0.938108 -0.960556 -0.975745 -0.982124 -0.981091 -0.973068 -0.956621 -0.933505 -0.903702 -0.867749 -0.826263 -0.779916 -0.729435 -0.675583 -0.619149 -0.560944 -0.501839 -0.442595 -0.384005 -0.326932 -0.272181 -0.220537 -0.172757 -0.129562 -0.0916289 -0.059577 -0.03396 -0.0152435 -0.0038459 -4.19804e-26 0 -0.00376752 -0.0150972 -0.0339177 -0.0600316 -0.0931035 -0.132662 -0.178104 -0.228703 -0.283622 -0.341928 -0.40261 -0.464564 -0.526723 -0.588043 -0.647399 -0.703751 -0.756124 -0.803629 -0.845482 -0.881016 -0.909695 -0.93112 -0.945487 -0.951309 -0.949954 -0.94156 -0.925036 -0.902102 -0.872759 -0.837549 -0.797078 -0.752006 -0.703039 -0.65091 -0.59638 -0.540218 -0.483251 -0.426199 -0.369811 -0.314902 -0.262234 -0.21255 -0.166569 -0.124982 -0.0884372 -0.0575355 -0.032817 -0.0147405 -0.0037214 -4.06286e-26 0 -0.00358722 -0.0143851 -0.0323413 -0.0572804 -0.0888923 -0.126733 -0.17023 -0.218686 -0.271295 -0.327155 -0.385286 -0.444617 -0.504111 -0.562751 -0.619447 -0.673191 -0.723043 -0.768146 -0.807751 -0.841226 -0.868071 -0.887917 -0.900969 -0.905841 -0.903854 -0.895158 -0.878761 -0.856315 -0.827849 -0.793896 -0.755048 -0.711942 -0.66525 -0.615668 -0.56391 -0.510694 -0.456787 -0.402856 -0.349592 -0.297748 -0.248026 -0.201116 -0.157687 -0.118386 -0.0838239 -0.0545727 -0.0311505 -0.0140036 -0.00353804 -3.86341e-26 0 -0.0033506 -0.0134482 -0.0302612 -0.0536403 -0.0833067 -0.118852 -0.15974 -0.205317 -0.254818 -0.307384 -0.362082 -0.417889 -0.47381 -0.528872 -0.582033 -0.632333 -0.678878 -0.720859 -0.757573 -0.788433 -0.81298 -0.830888 -0.842364 -0.846155 -0.843508 -0.834582 -0.818516 -0.796859 -0.769671 -0.737472 -0.700829 -0.660348 -0.616659 -0.570407 -0.522247 -0.472835 -0.422863 -0.372932 -0.323666 -0.275738 -0.229781 -0.186415 -0.146251 -0.109878 -0.0778616 -0.050735 -0.0289868 -0.0130442 -0.0032987 -3.60285e-26 0 -0.00306138 -0.012301 -0.0277101 -0.0491689 -0.0764347 -0.109141 -0.1468 -0.188806 -0.234449 -0.282927 -0.333364 -0.384801 -0.436298 -0.486938 -0.535744 -0.581817 -0.624322 -0.662509 -0.695733 -0.72346 -0.745284 -0.760924 -0.770584 -0.773181 -0.769854 -0.760776 -0.745241 -0.724661 -0.699133 -0.669157 -0.635268 -0.598032 -0.558025 -0.515833 -0.472042 -0.427232 -0.382009 -0.336897 -0.292439 -0.249218 -0.207783 -0.168678 -0.132439 -0.0995911 -0.0706437 -0.0460825 -0.0263595 -0.0118772 -0.00300711 -3.28534e-26 0 -0.00272412 -0.0109618 -0.0247285 -0.0439368 -0.0683851 -0.0977552 -0.131613 -0.169414 -0.210511 -0.25417 -0.299584 -0.345872 -0.392165 -0.437608 -0.481307 -0.522435 -0.560229 -0.59401 -0.623198 -0.647324 -0.66604 -0.679118 -0.686753 -0.688058 -0.684045 -0.674894 -0.660081 -0.640849 -0.617338 -0.590019 -0.559391 -0.525968 -0.490266 -0.452802 -0.414082 -0.3746 -0.334865 -0.295315 -0.256401 -0.218603 -0.182379 -0.148183 -0.116469 -0.0876876 -0.0622838 -0.0406883 -0.0233101 -0.0105208 -0.00266782 -2.91594e-26 0 -0.00234413 -0.00945161 -0.0213632 -0.0380265 -0.0592847 -0.0848734 -0.11442 -0.147447 -0.183381 -0.221566 -0.261275 -0.301717 -0.342103 -0.381658 -0.419578 -0.455121 -0.487607 -0.516437 -0.541108 -0.561221 -0.576492 -0.586752 -0.592184 -0.592122 -0.587425 -0.578283 -0.56437 -0.546738 -0.525568 -0.5013 -0.474387 -0.445285 -0.414445 -0.382302 -0.349275 -0.315765 -0.282171 -0.24884 -0.216118 -0.184376 -0.153968 -0.125252 -0.0985916 -0.0743545 -0.0529131 -0.0346372 -0.0198862 -0.00899623 -0.00228614 -2.50053e-26 0 -0.0019274 -0.00779435 -0.0176675 -0.0315314 -0.0492774 -0.0706992 -0.0954912 -0.123251 -0.153487 -0.185628 -0.219041 -0.25303 -0.286903 -0.31997 -0.35153 -0.380936 -0.4076 -0.431013 -0.450754 -0.466505 -0.47805 -0.48528 -0.488368 -0.48688 -0.481512 -0.472463 -0.459611 -0.443804 -0.425264 -0.404392 -0.38159 -0.357252 -0.331752 -0.30544 -0.278641 -0.251652 -0.224757 -0.198203 -0.172224 -0.147074 -0.122998 -0.100248 -0.0790887 -0.0598015 -0.0426791 -0.0280242 -0.0161416 -0.00732719 -0.00186804 -2.0457e-26 0 -0.00148048 -0.00601615 -0.0136997 -0.0245539 -0.0385209 -0.0554563 -0.0751261 -0.0972089 -0.121301 -0.146925 -0.173548 -0.200581 -0.227434 -0.253515 -0.278234 -0.301048 -0.321469 -0.339084 -0.353563 -0.36467 -0.372265 -0.376303 -0.376946 -0.37399 -0.367974 -0.359106 -0.347455 -0.333669 -0.318005 -0.30082 -0.282462 -0.263254 -0.243489 -0.223427 -0.20329 -0.18327 -0.163528 -0.144203 -0.125412 -0.107287 -0.0899561 -0.0735621 -0.0582675 -0.0442579 -0.0317429 -0.0209533 -0.0121351 -0.00553985 -0.00142007 -1.55866e-26 0 -0.00101042 -0.00414506 -0.00952237 -0.0172042 -0.0271852 -0.0393852 -0.0536459 -0.0697309 -0.0873298 -0.106067 -0.125514 -0.145196 -0.164635 -0.183342 -0.200848 -0.216719 -0.230574 -0.242103 -0.25107 -0.257327 -0.26081 -0.261542 -0.259684 -0.255238 -0.248606 -0.240008 -0.229672 -0.218071 -0.205482 -0.192218 -0.178565 -0.164772 -0.151048 -0.137555 -0.124412 -0.111697 -0.0994485 -0.0876922 -0.0764203 -0.0656414 -0.0553642 -0.0456172 -0.036456 -0.0279685 -0.0202767 -0.0135359 -0.00792987 -0.00366221 -0.000949267 -1.04714e-26 0 -0.00052463 -0.00221059 -0.00520143 -0.00959832 -0.015449 -0.0227395 -0.0313895 -0.0412508 -0.0521107 -0.0636985 -0.0756976 -0.0877496 -0.0994964 -0.11056 -0.120595 -0.129283 -0.136354 -0.141604 -0.144897 -0.146173 -0.145449 -0.142815 -0.138445 -0.132502 -0.125297 -0.117059 -0.108125 -0.0988361 -0.0894744 -0.0803014 -0.0715393 -0.0633616 -0.0558875 -0.0491809 -0.0432517 -0.038064 -0.0335317 -0.0295627 -0.0260225 -0.0227952 -0.0197681 -0.0168536 -0.0139984 -0.0111901 -0.00846115 -0.0058888 -0.00359191 -0.00172375 -0.000463022 -5.19222e-27 0 -3.07738e-05 -0.000243375 -0.000805524 -0.00185748 -0.00350037 -0.00578709 -0.00871629 -0.01223 -0.0162153 -0.0205094 -0.0249095 -0.0291789 -0.0330798 -0.0363535 -0.0387815 -0.04016 -0.040337 -0.0392148 -0.0367581 -0.0329979 -0.028031 -0.0220155 -0.0151652 -0.00773004 2.47507e-13 0.00773004 0.0151652 0.0220155 0.028031 0.0329979 0.0367581 0.0392148 0.040337 0.04016 0.0387815 0.0363535 0.0330798 0.0291789 0.0249095 0.0205094 0.0162153 0.01223 0.00871629 0.00578709 0.00350037 0.00185748 0.000805524 0.000243375 3.07738e-05 1.67562e-28 0 0.000463022 0.00172375 0.00359191 0.0058888 0.00846115 0.0111901 0.0139984 0.0168536 0.0197681 0.0227952 0.0260225 0.0295627 0.0335317 0.038064 0.0432517 0.0491809 0.0558875 0.0633616 0.0715393 0.0803014 0.0894744 0.0988361 0.108125 0.117059 0.125297 0.132502 0.138445 0.142815 0.145449 0.146173 0.144897 0.141604 0.136354 0.129283 0.120595 0.11056 0.0994964 0.0877496 0.0756976 0.0636985 0.0521107 0.0412508 0.0313895 0.0227395 0.015449 0.00959832 0.00520143 0.00221059 0.00052463 5.5234e-27 0 0.000949267 0.00366221 0.00792987 0.0135359 0.0202767 0.0279685 0.036456 0.0456172 0.0553642 0.0656414 0.0764203 0.0876922 0.0994485 0.111697 0.124412 0.137555 0.151048 0.164772 0.178565 0.192218 0.205482 0.218071 0.229672 0.240008 0.248606 0.255238 0.259684 0.261542 0.26081 0.257327 0.25107 0.242103 0.230574 0.216719 0.200848 0.183342 0.164635 0.145196 0.125514 0.106067 0.0873298 0.0697309 0.0536459 0.0393852 0.0271852 0.0172042 0.00952237 0.00414506 0.00101042 1.0791e-26 0 0.00142007 0.00553985 0.0121351 0.0209533 0.0317429 0.0442579 0.0582675 0.0735621 0.0899561 0.107287 0.125412 0.144203 0.163528 0.18327 0.20329 0.223427 0.243489 0.263254 0.282462 0.30082 0.318005 0.333669 0.347455 0.359106 0.367974 0.37399 0.376946 0.376303 0.372264 0.36467 0.353563 0.339084 0.321469 0.301048 0.278234 0.253515 0.227434 0.200581 0.173548 0.146925 0.121301 0.0972089 0.0751261 0.0554563 0.0385209 0.0245539 0.0136997 0.00601615 0.00148048 1.58874e-26 0 0.00186804 0.00732719 0.0161416 0.0280242 0.0426791 0.0598015 0.0790887 0.100248 0.122998 0.147074 0.172224 0.198203 0.224757 0.251652 0.278641 0.30544 0.331752 0.357252 0.38159 0.404392 0.425264 0.443804 0.459611 0.472463 0.481512 0.48688 0.488368 0.48528 0.478049 0.466505 0.450754 0.431013 0.4076 0.380936 0.35153 0.31997 0.286903 0.25303 0.219041 0.185628 0.153487 0.123251 0.0954912 0.0706992 0.0492774 0.0315314 0.0176675 0.00779435 0.0019274 2.07327e-26 0 0.00228614 0.00899623 0.0198862 0.0346372 0.0529131 0.0743545 0.0985916 0.125252 0.153968 0.184376 0.216118 0.24884 0.282171 0.315765 0.349275 0.382302 0.414445 0.445285 0.474387 0.5013 0.525568 0.546738 0.56437 0.578283 0.587425 0.592122 0.592184 0.586752 0.576492 0.56122 0.541108 0.516437 0.487607 0.455121 0.419578 0.381658 0.342103 0.301717 0.261275 0.221566 0.183381 0.147447 0.11442 0.0848734 0.0592847 0.0380265 0.0213632 0.00945161 0.00234413 2.52508e-26 0 0.00266782 0.0105208 0.0233101 0.0406883 0.0622838 0.0876876 0.116469 0.148183 0.182379 0.218603 0.256401 0.295315 0.334865 0.3746 0.414082 0.452802 0.490266 0.525968 0.559391 0.590019 0.617338 0.640849 0.660081 0.674894 0.684045 0.688058 0.686753 0.679118 0.66604 0.647324 0.623198 0.59401 0.560229 0.522435 0.481307 0.437608 0.392165 0.345872 0.299584 0.25417 0.210511 0.169414 0.131613 0.0977552 0.0683851 0.0439368 0.0247285 0.0109618 0.00272412 2.9371e-26 0 0.00300711 0.0118772 0.0263595 0.0460825 0.0706437 0.0995911 0.132439 0.168678 0.207783 0.249218 0.292439 0.336897 0.382009 0.427232 0.472042 0.515833 0.558025 0.598032 0.635268 0.669157 0.699133 0.724661 0.745241 0.760776 0.769854 0.773181 0.770584 0.760924 0.745284 0.72346 0.695733 0.66251 0.624322 0.581817 0.535744 0.486938 0.436298 0.384801 0.333364 0.282927 0.234449 0.188806 0.1468 0.109141 0.0764347 0.0491689 0.0277101 0.012301 0.00306138 3.30287e-26 0 0.0032987 0.0130442 0.0289868 0.050735 0.0778616 0.109878 0.146251 0.186415 0.229781 0.275738 0.323666 0.372932 0.422863 0.472835 0.522247 0.570407 0.616659 0.660348 0.700826 0.737469 0.769671 0.796859 0.818516 0.834582 0.843508 0.846155 0.842364 0.830888 0.81298 0.788433 0.757573 0.72086 0.678879 0.632334 0.582033 0.528872 0.47381 0.417889 0.362082 0.307384 0.254818 0.205317 0.15974 0.118852 0.0833067 0.0536403 0.0302612 0.0134482 0.0033506 3.61669e-26 0 0.00353804 0.0140036 0.0311505 0.0545727 0.0838239 0.118386 0.157687 0.201116 0.248026 0.297748 0.349592 0.402856 0.456787 0.510694 0.56391 0.615668 0.66525 0.711942 0.755044 0.793892 0.827849 0.856315 0.878761 0.895158 0.903854 0.905841 0.900969 0.887917 0.868071 0.841226 0.807751 0.768146 0.723044 0.673192 0.619447 0.562751 0.504111 0.444617 0.385286 0.327155 0.271295 0.218686 0.17023 0.126733 0.0888923 0.0572804 0.0323413 0.0143851 0.00358722 3.87364e-26 0 0.0037214 0.0147405 0.032817 0.0575355 0.0884372 0.124982 0.166569 0.21255 0.262234 0.314902 0.369811 0.426199 0.483251 0.540218 0.59638 0.65091 0.703039 0.752003 0.797074 0.837548 0.872759 0.902102 0.925036 0.94156 0.949954 0.951309 0.945487 0.93112 0.909695 0.881016 0.845482 0.803629 0.756124 0.703751 0.647399 0.588043 0.526723 0.464564 0.40261 0.341928 0.283622 0.228703 0.178104 0.132662 0.0931035 0.0600316 0.0339177 0.0150972 0.00376752 4.06971e-26 0 0.0038459 0.0152435 0.03396 0.059577 0.0916289 0.129562 0.172757 0.220537 0.272181 0.326932 0.384005 0.442595 0.501839 0.560944 0.619149 0.675583 0.729435 0.779914 0.82626 0.867749 0.903701 0.933505 0.956621 0.973068 0.981091 0.982124 0.975745 0.960556 0.938108 0.908212 0.871294 0.827916 0.778772 0.724672 0.666533 0.605353 0.542196 0.478214 0.414465 0.352038 0.292058 0.235558 0.183491 0.136716 0.0959809 0.0619091 0.0349916 0.0155811 0.00388972 4.20183e-26 0 0.00391055 0.0155117 0.0345841 0.0607147 0.0934392 0.132199 0.176363 0.225238 0.27808 0.334107 0.392502 0.452428 0.512986 0.573349 0.632724 0.690208 0.744962 0.79617 0.84305 0.884866 0.920934 0.950642 0.973458 0.989424 0.99678 0.996725 0.989213 0.972863 0.949278 0.918289 0.88034 0.836006 0.785987 0.731096 0.672242 0.61042 0.546685 0.482173 0.417943 0.355064 0.294659 0.237752 0.185294 0.138144 0.0970516 0.0626499 0.0354418 0.0157969 0.00394768 4.26795e-26 0 0.00391065 0.015513 0.0345902 0.0607329 0.0934805 0.132278 0.176495 0.22544 0.278367 0.334487 0.39298 0.452998 0.513632 0.574054 0.633457 0.690937 0.745654 0.796794 0.84358 0.885285 0.921236 0.950833 0.973556 0.989456 0.99678 0.996716 0.989174 0.972771 0.949121 0.918058 0.880036 0.835636 0.785565 0.730641 0.671777 0.609967 0.546263 0.481801 0.417628 0.354813 0.29447 0.237619 0.185207 0.138092 0.0970247 0.0626381 0.0354378 0.0157961 0.00394762 4.26703e-26 0 0.0038524 0.0152946 0.0341291 0.0599659 0.0923597 0.130767 0.174568 0.223073 0.275537 0.331172 0.389151 0.448623 0.508671 0.568459 0.627175 0.683908 0.737816 0.788082 0.833934 0.87466 0.909595 0.93815 0.959832 0.974712 0.98109 0.980359 0.972303 0.955588 0.931818 0.900849 0.863135 0.819253 0.7699 0.715872 0.65806 0.597429 0.534997 0.471863 0.409042 0.347566 0.288515 0.232878 0.181574 0.135438 0.0952044 0.0614951 0.0348111 0.0155263 0.00388276 4.19907e-26 0 0.00373084 0.0148152 0.0330648 0.0581075 0.0895157 0.126766 0.169257 0.216322 0.267237 0.321232 0.377501 0.435211 0.493467 0.551451 0.608366 0.663328 0.715515 0.764137 0.808447 0.847761 0.881438 0.908917 0.92973 0.943953 0.949953 0.948871 0.940707 0.92419 0.900881 0.870652 0.83395 0.791341 0.743498 0.691193 0.635282 0