<?xml version="1.0"?>
<VTKFile type="PolyData">
	<PolyData>
		<Piece NumberOfPoints="2601" NumberOfPolys="2500">
			<Points>
				<DataArray type="Float32" NumberOfComponents="3" format="ascii">
 0 0 0 0.02 0 0 0.04 0 0 0.06 0 0 0.08 0 0 0.1 0 0 0.12 0 0 0.14 0 0 0.16 0 0 0.18 0 0 0.2 0 0 0.22 0 0 0.24 0 0 0.26 0 0 0.28 0 0 0.3 0 0 0.32 0 0 0.34 0 0 0.36 0 0 0.38 0 0 0.4 0 0 0.42 0 0 0.44 0 0 0.46 0 0 0.48 0 0 0.5 0 0 0.52 0 0 0.54 0 0 0.56 0 0 0.58 0 0 0.6 0 0 0.62 0 0 0.64 0 0 0.66 0 0 0.68 0 0 0.7 0 0 0.72 0 0 0.74 0 0 0.76 0 0 0.78 0 0 0.8 0 0 0.82 0 0 0.84 0 0 0.86 0 0 0.88 0 0 0.9 0 0 0.92 0 0 0.94 0 0 0.96 0 0 0.98 0 0 1 0 0 0 0.02 0 0.02 0.02 0 0.04 0.02 0 0.06 0.02 0 0.08 0.02 0 0.1 0.02 0 0.12 0.02 0 0.14 0.02 0 0.16 0.02 0 0.18 0.02 0 0.2 0.02 0 0.22 0.02 0 0.24 0.02 0 0.26 0.02 0 0.28 0.02 0 0.3 0.02 0 0.32 0.02 0 0.34 0.02 0 0.36 0.02 0 0.38 0.02 0 0.4 0.02 0 0.42 0.02 0 0.44 0.02 0 0.46 0.02 0 0.48 0.02 0 0.5 0.02 0 0.52 0.02 0 0.54 0.02 0 0.56 0.02 0 0.58 0.02 0 0.6 0.02 0 0.62 0.02 0 0.64 0.02 0 0.66 0.02 0 0.68 0.02 0 0.7 0.02 0 0.72 0.02 0 0.74 0.02 0 0.76 0.02 0 0.78 0.02 0 0.8 0.02 0 0.82 0.02 0 0.84 0.02 0 0.86 0.02 0 0.88 0.02 0 0.9 0.02 0 0.92 0.02 0 0.94 0.02 0 0.96 0.02 0 0.98 0.02 0 1 0.02 0 0 0.04 0 0.02 0.04 0 0.04 0.04 0 0.06 0.04 0 0.08 0.04 0 0.1 0.04 0 0.12 0.04 0 0.14 0.04 0 0.16 0.04 0 0.18 0.04 0 0.2 0.04 0 0.22 0.04 0 0.24 0.04 0 0.26 0.04 0 0.28 0.04 0 0.3 0.04 0 0.32 0.04 0 0.34 0.04 0 0.36 0.04 0 0.38 0.04 0 0.4 0.04 0 0.42 0.04 0 0.44 0.04 0 0.46 0.04 0 0.48 0.04 0 0.5 0.04 0 0.52 0.04 0 0.54 0.04 0 0.56 0.04 0 0.58 0.04 0 0.6 0.04 0 0.62 0.04 0 0.64 0.04 0 0.66 0.04 0 0.68 0.04 0 0.7 0.04 0 0.72 0.04 0 0.74 0.04 0 0.76 0.04 0 0.78 0.04 0 0.8 0.04 0 0.82 0.04 0 0.84 0.04 0 0.86 0.04 0 0.88 0.04 0 0.9 0.04 0 0.92 0.04 0 0.94 0.04 0 0.96 0.04 0 0.98 0.04 0 1 0.04 0 0 0.06 0 0.02 0.06 0 0.04 0.06 0 0.06 0.06 0 0.08 0.06 0 0.1 0.06 0 0.12 0.06 0 0.14 0.06 0 0.16 0.06 0 0.18 0.06 0 0.2 0.06 0 0.22 0.06 0 0.24 0.06 0 0.26 0.06 0 0.28 0.06 0 0.3 0.06 0 0.32 0.06 0 0.34 0.06 0 0.36 0.06 0 0.38 0.06 0 0.4 0.06 0 0.42 0.06 0 0.44 0.06 0 0.46 0.06 0 0.48 0.06 0 0.5 0.06 0 0.52 0.06 0 0.54 0.06 0 0.56 0.06 0 0.58 0.06 0 0.6 0.06 0 0.62 0.06 0 0.64 0.06 0 0.66 0.06 0 0.68 0.06 0 0.7 0.06 0 0.72 0.06 0 0.74 0.06 0 0.76 0.06 0 0.78 0.06 0 0.8 0.06 0 0.82 0.06 0 0.84 0.06 0 0.86 0.06 0 0.88 0.06 0 0.9 0.06 0 0.92 0.06 0 0.94 0.06 0 0.96 0.06 0 0.98 0.06 0 1 0.06 0 0 0.08 0 0.02 0.08 0 0.04 0.08 0 0.06 0.08 0 0.08 0.08 0 0.1 0.08 0 0.12 0.08 0 0.14 0.08 0 0.16 0.08 0 0.18 0.08 0 0.2 0.08 0 0.22 0.08 0 0.24 0.08 0 0.26 0.08 0 0.28 0.08 0 0.3 0.08 0 0.32 0.08 0 0.34 0.08 0 0.36 0.08 0 0.38 0.08 0 0.4 0.08 0 0.42 0.08 0 0.44 0.08 0 0.46 0.08 0 0.48 0.08 0 0.5 0.08 0 0.52 0.08 0 0.54 0.08 0 0.56 0.08 0 0.58 0.08 0 0.6 0.08 0 0.62 0.08 0 0.64 0.08 0 0.66 0.08 0 0.68 0.08 0 0.7 0.08 0 0.72 0.08 0 0.74 0.08 0 0.76 0.08 0 0.78 0.08 0 0.8 0.08 0 0.82 0.08 0 0.84 0.08 0 0.86 0.08 0 0.88 0.08 0 0.9 0.08 0 0.92 0.08 0 0.94 0.08 0 0.96 0.08 0 0.98 0.08 0 1 0.08 0 0 0.1 0 0.02 0.1 0 0.04 0.1 0 0.06 0.1 0 0.08 0.1 0 0.1 0.1 0 0.12 0.1 0 0.14 0.1 0 0.16 0.1 0 0.18 0.1 0 0.2 0.1 0 0.22 0.1 0 0.24 0.1 0 0.26 0.1 0 0.28 0.1 0 0.3 0.1 0 0.32 0.1 0 0.34 0.1 0 0.36 0.1 0 0.38 0.1 0 0.4 0.1 0 0.42 0.1 0 0.44 0.1 0 0.46 0.1 0 0.48 0.1 0 0.5 0.1 0 0.52 0.1 0 0.54 0.1 0 0.56 0.1 0 0.58 0.1 0 0.6 0.1 0 0.62 0.1 0 0.64 0.1 0 0.66 0.1 0 0.68 0.1 0 0.7 0.1 0 0.72 0.1 0 0.74 0.1 0 0.76 0.1 0 0.78 0.1 0 0.8 0.1 0 0.82 0.1 0 0.84 0.1 0 0.86 0.1 0 0.88 0.1 0 0.9 0.1 0 0.92 0.1 0 0.94 0.1 0 0.96 0.1 0 0.98 0.1 0 1 0.1 0 0 0.12 0 0.02 0.12 0 0.04 0.12 0 0.06 0.12 0 0.08 0.12 0 0.1 0.12 0 0.12 0.12 0 0.14 0.12 0 0.16 0.12 0 0.18 0.12 0 0.2 0.12 0 0.22 0.12 0 0.24 0.12 0 0.26 0.12 0 0.28 0.12 0 0.3 0.12 0 0.32 0.12 0 0.34 0.12 0 0.36 0.12 0 0.38 0.12 0 0.4 0.12 0 0.42 0.12 0 0.44 0.12 0 0.46 0.12 0 0.48 0.12 0 0.5 0.12 0 0.52 0.12 0 0.54 0.12 0 0.56 0.12 0 0.58 0.12 0 0.6 0.12 0 0.62 0.12 0 0.64 0.12 0 0.66 0.12 0 0.68 0.12 0 0.7 0.12 0 0.72 0.12 0 0.74 0.12 0 0.76 0.12 0 0.78 0.12 0 0.8 0.12 0 0.82 0.12 0 0.84 0.12 0 0.86 0.12 0 0.88 0.12 0 0.9 0.12 0 0.92 0.12 0 0.94 0.12 0 0.96 0.12 0 0.98 0.12 0 1 0.12 0 0 0.14 0 0.02 0.14 0 0.04 0.14 0 0.06 0.14 0 0.08 0.14 0 0.1 0.14 0 0.12 0.14 0 0.14 0.14 0 0.16 0.14 0 0.18 0.14 0 0.2 0.14 0 0.22 0.14 0 0.24 0.14 0 0.26 0.14 0 0.28 0.14 0 0.3 0.14 0 0.32 0.14 0 0.34 0.14 0 0.36 0.14 0 0.38 0.14 0 0.4 0.14 0 0.42 0.14 0 0.44 0.14 0 0.46 0.14 0 0.48 0.14 0 0.5 0.14 0 0.52 0.14 0 0.54 0.14 0 0.56 0.14 0 0.58 0.14 0 0.6 0.14 0 0.62 0.14 0 0.64 0.14 0 0.66 0.14 0 0.68 0.14 0 0.7 0.14 0 0.72 0.14 0 0.74 0.14 0 0.76 0.14 0 0.78 0.14 0 0.8 0.14 0 0.82 0.14 0 0.84 0.14 0 0.86 0.14 0 0.88 0.14 0 0.9 0.14 0 0.92 0.14 0 0.94 0.14 0 0.96 0.14 0 0.98 0.14 0 1 0.14 0 0 0.16 0 0.02 0.16 0 0.04 0.16 0 0.06 0.16 0 0.08 0.16 0 0.1 0.16 0 0.12 0.16 0 0.14 0.16 0 0.16 0.16 0 0.18 0.16 0 0.2 0.16 0 0.22 0.16 0 0.24 0.16 0 0.26 0.16 0 0.28 0.16 0 0.3 0.16 0 0.32 0.16 0 0.34 0.16 0 0.36 0.16 0 0.38 0.16 0 0.4 0.16 0 0.42 0.16 0 0.44 0.16 0 0.46 0.16 0 0.48 0.16 0 0.5 0.16 0 0.52 0.16 0 0.54 0.16 0 0.56 0.16 0 0.58 0.16 0 0.6 0.16 0 0.62 0.16 0 0.64 0.16 0 0.66 0.16 0 0.68 0.16 0 0.7 0.16 0 0.72 0.16 0 0.74 0.16 0 0.76 0.16 0 0.78 0.16 0 0.8 0.16 0 0.82 0.16 0 0.84 0.16 0 0.86 0.16 0 0.88 0.16 0 0.9 0.16 0 0.92 0.16 0 0.94 0.16 0 0.96 0.16 0 0.98 0.16 0 1 0.16 0 0 0.18 0 0.02 0.18 0 0.04 0.18 0 0.06 0.18 0 0.08 0.18 0 0.1 0.18 0 0.12 0.18 0 0.14 0.18 0 0.16 0.18 0 0.18 0.18 0 0.2 0.18 0 0.22 0.18 0 0.24 0.18 0 0.26 0.18 0 0.28 0.18 0 0.3 0.18 0 0.32 0.18 0 0.34 0.18 0 0.36 0.18 0 0.38 0.18 0 0.4 0.18 0 0.42 0.18 0 0.44 0.18 0 0.46 0.18 0 0.48 0.18 0 0.5 0.18 0 0.52 0.18 0 0.54 0.18 0 0.56 0.18 0 0.58 0.18 0 0.6 0.18 0 0.62 0.18 0 0.64 0.18 0 0.66 0.18 0 0.68 0.18 0 0.7 0.18 0 0.72 0.18 0 0.74 0.18 0 0.76 0.18 0 0.78 0.18 0 0.8 0.18 0 0.82 0.18 0 0.84 0.18 0 0.86 0.18 0 0.88 0.18 0 0.9 0.18 0 0.92 0.18 0 0.94 0.18 0 0.96 0.18 0 0.98 0.18 0 1 0.18 0 0 0.2 0 0.02 0.2 0 0.04 0.2 0 0.06 0.2 0 0.08 0.2 0 0.1 0.2 0 0.12 0.2 0 0.14 0.2 0 0.16 0.2 0 0.18 0.2 0 0.2 0.2 0 0.22 0.2 0 0.24 0.2 0 0.26 0.2 0 0.28 0.2 0 0.3 0.2 0 0.32 0.2 0 0.34 0.2 0 0.36 0.2 0 0.38 0.2 0 0.4 0.2 0 0.42 0.2 0 0.44 0.2 0 0.46 0.2 0 0.48 0.2 0 0.5 0.2 0 0.52 0.2 0 0.54 0.2 0 0.56 0.2 0 0.58 0.2 0 0.6 0.2 0 0.62 0.2 0 0.64 0.2 0 0.66 0.2 0 0.68 0.2 0 0.7 0.2 0 0.72 0.2 0 0.74 0.2 0 0.76 0.2 0 0.78 0.2 0 0.8 0.2 0 0.82 0.2 0 0.84 0.2 0 0.86 0.2 0 0.88 0.2 0 0.9 0.2 0 0.92 0.2 0 0.94 0.2 0 0.96 0.2 0 0.98 0.2 0 1 0.2 0 0 0.22 0 0.02 0.22 0 0.04 0.22 0 0.06 0.22 0 0.08 0.22 0 0.1 0.22 0 0.12 0.22 0 0.14 0.22 0 0.16 0.22 0 0.18 0.22 0 0.2 0.22 0 0.22 0.22 0 0.24 0.22 0 0.26 0.22 0 0.28 0.22 0 0.3 0.22 0 0.32 0.22 0 0.34 0.22 0 0.36 0.22 0 0.38 0.22 0 0.4 0.22 0 0.42 0.22 0 0.44 0.22 0 0.46 0.22 0 0.48 0.22 0 0.5 0.22 0 0.52 0.22 0 0.54 0.22 0 0.56 0.22 0 0.58 0.22 0 0.6 0.22 0 0.62 0.22 0 0.64 0.22 0 0.66 0.22 0 0.68 0.22 0 0.7 0.22 0 0.72 0.22 0 0.74 0.22 0 0.76 0.22 0 0.78 0.22 0 0.8 0.22 0 0.82 0.22 0 0.84 0.22 0 0.86 0.22 0 0.88 0.22 0 0.9 0.22 0 0.92 0.22 0 0.94 0.22 0 0.96 0.22 0 0.98 0.22 0 1 0.22 0 0 0.24 0 0.02 0.24 0 0.04 0.24 0 0.06 0.24 0 0.08 0.24 0 0.1 0.24 0 0.12 0.24 0 0.14 0.24 0 0.16 0.24 0 0.18 0.24 0 0.2 0.24 0 0.22 0.24 0 0.24 0.24 0 0.26 0.24 0 0.28 0.24 0 0.3 0.24 0 0.32 0.24 0 0.34 0.24 0 0.36 0.24 0 0.38 0.24 0 0.4 0.24 0 0.42 0.24 0 0.44 0.24 0 0.46 0.24 0 0.48 0.24 0 0.5 0.24 0 0.52 0.24 0 0.54 0.24 0 0.56 0.24 0 0.58 0.24 0 0.6 0.24 0 0.62 0.24 0 0.64 0.24 0 0.66 0.24 0 0.68 0.24 0 0.7 0.24 0 0.72 0.24 0 0.74 0.24 0 0.76 0.24 0 0.78 0.24 0 0.8 0.24 0 0.82 0.24 0 0.84 0.24 0 0.86 0.24 0 0.88 0.24 0 0.9 0.24 0 0.92 0.24 0 0.94 0.24 0 0.96 0.24 0 0.98 0.24 0 1 0.24 0 0 0.26 0 0.02 0.26 0 0.04 0.26 0 0.06 0.26 0 0.08 0.26 0 0.1 0.26 0 0.12 0.26 0 0.14 0.26 0 0.16 0.26 0 0.18 0.26 0 0.2 0.26 0 0.22 0.26 0 0.24 0.26 0 0.26 0.26 0 0.28 0.26 0 0.3 0.26 0 0.32 0.26 0 0.34 0.26 0 0.36 0.26 0 0.38 0.26 0 0.4 0.26 0 0.42 0.26 0 0.44 0.26 0 0.46 0.26 0 0.48 0.26 0 0.5 0.26 0 0.52 0.26 0 0.54 0.26 0 0.56 0.26 0 0.58 0.26 0 0.6 0.26 0 0.62 0.26 0 0.64 0.26 0 0.66 0.26 0 0.68 0.26 0 0.7 0.26 0 0.72 0.26 0 0.74 0.26 0 0.76 0.26 0 0.78 0.26 0 0.8 0.26 0 0.82 0.26 0 0.84 0.26 0 0.86 0.26 0 0.88 0.26 0 0.9 0.26 0 0.92 0.26 0 0.94 0.26 0 0.96 0.26 0 0.98 0.26 0 1 0.26 0 0 0.28 0 0.02 0.28 0 0.04 0.28 0 0.06 0.28 0 0.08 0.28 0 0.1 0.28 0 0.12 0.28 0 0.14 0.28 0 0.16 0.28 0 0.18 0.28 0 0.2 0.28 0 0.22 0.28 0 0.24 0.28 0 0.26 0.28 0 0.28 0.28 0 0.3 0.28 0 0.32 0.28 0 0.34 0.28 0 0.36 0.28 0 0.38 0.28 0 0.4 0.28 0 0.42 0.28 0 0.44 0.28 0 0.46 0.28 0 0.48 0.28 0 0.5 0.28 0 0.52 0.28 0 0.54 0.28 0 0.56 0.28 0 0.58 0.28 0 0.6 0.28 0 0.62 0.28 0 0.64 0.28 0 0.66 0.28 0 0.68 0.28 0 0.7 0.28 0 0.72 0.28 0 0.74 0.28 0 0.76 0.28 0 0.78 0.28 0 0.8 0.28 0 0.82 0.28 0 0.84 0.28 0 0.86 0.28 0 0.88 0.28 0 0.9 0.28 0 0.92 0.28 0 0.94 0.28 0 0.96 0.28 0 0.98 0.28 0 1 0.28 0 0 0.3 0 0.02 0.3 0 0.04 0.3 0 0.06 0.3 0 0.08 0.3 0 0.1 0.3 0 0.12 0.3 0 0.14 0.3 0 0.16 0.3 0 0.18 0.3 0 0.2 0.3 0 0.22 0.3 0 0.24 0.3 0 0.26 0.3 0 0.28 0.3 0 0.3 0.3 0 0.32 0.3 0 0.34 0.3 0 0.36 0.3 0 0.38 0.3 0 0.4 0.3 0 0.42 0.3 0 0.44 0.3 0 0.46 0.3 0 0.48 0.3 0 0.5 0.3 0 0.52 0.3 0 0.54 0.3 0 0.56 0.3 0 0.58 0.3 0 0.6 0.3 0 0.62 0.3 0 0.64 0.3 0 0.66 0.3 0 0.68 0.3 0 0.7 0.3 0 0.72 0.3 0 0.74 0.3 0 0.76 0.3 0 0.78 0.3 0 0.8 0.3 0 0.82 0.3 0 0.84 0.3 0 0.86 0.3 0 0.88 0.3 0 0.9 0.3 0 0.92 0.3 0 0.94 0.3 0 0.96 0.3 0 0.98 0.3 0 1 0.3 0 0 0.32 0 0.02 0.32 0 0.04 0.32 0 0.06 0.32 0 0.08 0.32 0 0.1 0.32 0 0.12 0.32 0 0.14 0.32 0 0.16 0.32 0 0.18 0.32 0 0.2 0.32 0 0.22 0.32 0 0.24 0.32 0 0.26 0.32 0 0.28 0.32 0 0.3 0.32 0 0.32 0.32 0 0.34 0.32 0 0.36 0.32 0 0.38 0.32 0 0.4 0.32 0 0.42 0.32 0 0.44 0.32 0 0.46 0.32 0 0.48 0.32 0 0.5 0.32 0 0.52 0.32 0 0.54 0.32 0 0.56 0.32 0 0.58 0.32 0 0.6 0.32 0 0.62 0.32 0 0.64 0.32 0 0.66 0.32 0 0.68 0.32 0 0.7 0.32 0 0.72 0.32 0 0.74 0.32 0 0.76 0.32 0 0.78 0.32 0 0.8 0.32 0 0.82 0.32 0 0.84 0.32 0 0.86 0.32 0 0.88 0.32 0 0.9 0.32 0 0.92 0.32 0 0.94 0.
[...]
			<PointData Scalars="VitesseX">
				<DataArray Name="VitesseX" type="Float32" format="ascii">
 0 0 0 0 0 0 0 0 0 0 0 0 0 0 0 0 0 0 0 0 0 0 0 0 0 0 0 0 0 0 0 0 0 0 0 0 0 0 0 0 0 0 0 0 0 0 0 0 0 0 -0 0 -0.00022779 -0.000907617 -0.00202878 -0.00357363 -0.00551784 -0.00783076 -0.0104759 -0.0134116 -0.0165915 -0.0199654 -0.0234801 -0.02708 -0.0307083 -0.0343081 -0.0378223 -0.0411955 -0.0443745 -0.0473092 -0.0499532 -0.0522648 -0.0542077 -0.0557511 -0.0568738 -0.0575491 -0.0577752 -0.057547 -0.0568608 -0.0557367 -0.0541894 -0.0522434 -0.0499293 -0.0472837 -0.0443483 -0.0411694 -0.0377971 -0.0342844 -0.0306869 -0.0270611 -0.0234638 -0.0199519 -0.0165807 -0.0134034 -0.01047 -0.00782675 -0.00551535 -0.00357224 -0.00202811 -0.000907324 -0.000227749 -2.47173e-27 0 -0.000452054 -0.00180154 -0.00402761 -0.00709561 -0.0109575 -0.0155526 -0.0208086 -0.0266425 -0.0329621 -0.0396675 -0.0466526 -0.0538059 -0.0610145 -0.0681653 -0.0751443 -0.0818409 -0.0881492 -0.0939694 -0.0992095 -0.103787 -0.107629 -0.110677 -0.112893 -0.114209 -0.114638 -0.114174 -0.112791 -0.110546 -0.107463 -0.103591 -0.0989914 -0.0937369 -0.0879101 -0.081603 -0.0749146 -0.06795 -0.0608193 -0.0536334 -0.0465045 -0.0395454 -0.0328653 -0.0265691 -0.020756 -0.0155174 -0.0109359 -0.00708386 -0.00402225 -0.00179957 -0.00045179 -4.90467e-27 0 -0.000669226 -0.00266742 -0.00596412 -0.0105084 -0.0162296 -0.0230378 -0.030826 -0.0394712 -0.0488367 -0.0587741 -0.0691257 -0.0797254 -0.0904059 -0.100999 -0.111336 -0.121253 -0.130591 -0.139203 -0.146953 -0.153718 -0.159393 -0.163887 -0.167157 -0.169077 -0.169691 -0.168991 -0.166914 -0.163572 -0.158992 -0.153247 -0.146428 -0.138643 -0.130015 -0.12068 -0.110783 -0.100481 -0.0899355 -0.07931 -0.0687692 -0.05848 -0.0486036 -0.0392947 -0.0306995 -0.0229532 -0.0161777 -0.0104803 -0.00595133 -0.00266278 -0.000668607 -7.26045e-27 0 -0.000875886 -0.00349164 -0.00780794 -0.0137587 -0.0212515 -0.0301693 -0.0403718 -0.0516979 -0.0639682 -0.076988 -0.0905502 -0.104436 -0.118426 -0.1323 -0.145836 -0.158817 -0.171038 -0.182304 -0.192438 -0.201278 -0.208686 -0.214547 -0.218811 -0.221289 -0.222065 -0.22113 -0.218377 -0.213978 -0.207963 -0.200427 -0.19149 -0.181294 -0.169999 -0.157783 -0.144837 -0.131364 -0.117576 -0.103686 -0.0899067 -0.0764573 -0.0635476 -0.0513795 -0.0401437 -0.0300167 -0.0211581 -0.013708 -0.00778496 -0.00348338 -0.000874786 -9.50186e-27 0 -0.00106878 -0.00426122 -0.00952999 -0.0167951 -0.0259443 -0.0368348 -0.0492956 -0.0631298 -0.078118 -0.094022 -0.110588 -0.127548 -0.144632 -0.161574 -0.178099 -0.193943 -0.208854 -0.222594 -0.234947 -0.245716 -0.254733 -0.261857 -0.267039 -0.27002 -0.270934 -0.269768 -0.266367 -0.260969 -0.253603 -0.244387 -0.233467 -0.221017 -0.207232 -0.192329 -0.17654 -0.160113 -0.143306 -0.126377 -0.109584 -0.0931936 -0.0774615 -0.0626329 -0.0489398 -0.0365969 -0.0257987 -0.0167162 -0.00949428 -0.00424846 -0.00106708 -1.15935e-26 0 -0.00124486 -0.00496401 -0.0111031 -0.0195698 -0.0302338 -0.0429291 -0.0574566 -0.0735866 -0.091063 -0.109607 -0.128923 -0.148696 -0.168612 -0.18836 -0.207617 -0.226076 -0.243441 -0.259437 -0.27381 -0.286332 -0.296807 -0.305072 -0.311081 -0.314504 -0.315528 -0.314137 -0.310127 -0.303805 -0.295195 -0.284435 -0.271698 -0.257186 -0.241126 -0.223771 -0.205392 -0.186274 -0.166719 -0.147025 -0.12749 -0.108425 -0.0901262 -0.0728777 -0.056949 -0.0425898 -0.0300262 -0.0194574 -0.0110524 -0.004946 -0.00124247 -1.35021e-26 0 -0.00140136 -0.00558892 -0.0125025 -0.0220389 -0.0340523 -0.0483562 -0.0647261 -0.0829034 -0.102599 -0.123499 -0.145267 -0.167548 -0.189988 -0.212235 -0.233925 -0.254709 -0.274256 -0.292253 -0.308415 -0.322486 -0.334245 -0.343511 -0.35024 -0.354039 -0.355143 -0.353538 -0.348969 -0.34181 -0.332081 -0.31994 -0.305581 -0.289231 -0.271149 -0.251616 -0.230938 -0.209435 -0.187447 -0.165305 -0.143344 -0.121912 -0.101342 -0.0819525 -0.0640454 -0.0479013 -0.0337743 -0.0218886 -0.0124347 -0.00556506 -0.0013982 -1.51977e-26 0 -0.00153581 -0.0061261 -0.013706 -0.0241637 -0.0373398 -0.0530304 -0.0709895 -0.0909333 -0.112544 -0.135477 -0.159362 -0.183807 -0.208423 -0.232824 -0.256608 -0.279393 -0.300813 -0.320526 -0.338217 -0.353608 -0.366458 -0.376568 -0.3839 -0.388001 -0.389156 -0.387349 -0.38228 -0.374386 -0.363682 -0.350343 -0.334581 -0.316648 -0.296826 -0.275425 -0.252777 -0.229232 -0.205163 -0.180928 -0.156895 -0.133442 -0.110933 -0.0897142 -0.070117 -0.0524475 -0.0369837 -0.0239714 -0.0136196 -0.00609591 -0.00153183 -1.66534e-26 0 -0.0016461 -0.00656708 -0.0146948 -0.0259105 -0.0400443 -0.056878 -0.0761481 -0.0975498 -0.120742 -0.145353 -0.170985 -0.197216 -0.223627 -0.249803 -0.27531 -0.299739 -0.322694 -0.343809 -0.362748 -0.37921 -0.392939 -0.403723 -0.411531 -0.415858 -0.417031 -0.415037 -0.409537 -0.401021 -0.389501 -0.375165 -0.358243 -0.339006 -0.317755 -0.294823 -0.270564 -0.245353 -0.219588 -0.19365 -0.16793 -0.142833 -0.118746 -0.0960406 -0.0750684 -0.056157 -0.0396041 -0.0256731 -0.0145883 -0.00653024 -0.00164124 -1.7846e-26 0 -0.00173047 -0.00690491 -0.0154532 -0.0272518 -0.0421231 -0.0598383 -0.0801204 -0.102648 -0.127063 -0.152971 -0.179954 -0.207565 -0.235361 -0.262904 -0.289737 -0.315425 -0.339555 -0.361738 -0.38162 -0.398888 -0.413271 -0.42455 -0.432697 -0.43717 -0.43833 -0.436166 -0.43031 -0.421295 -0.40913 -0.394015 -0.376195 -0.355953 -0.333607 -0.309505 -0.28402 -0.257545 -0.230495 -0.203269 -0.176275 -0.149938 -0.124661 -0.100832 -0.0788215 -0.0589713 -0.0415942 -0.0269669 -0.0153257 -0.00686124 -0.00172473 -1.87568e-26 0 -0.00178761 -0.00713424 -0.0159692 -0.0281664 -0.0435435 -0.0618647 -0.0828439 -0.106149 -0.131407 -0.158211 -0.186127 -0.214689 -0.243439 -0.27192 -0.29966 -0.326207 -0.35113 -0.374029 -0.394538 -0.412333 -0.427136 -0.43872 -0.447065 -0.451602 -0.452719 -0.450449 -0.44436 -0.435013 -0.422416 -0.406778 -0.388351 -0.367429 -0.344341 -0.319448 -0.293133 -0.265801 -0.237881 -0.209783 -0.181927 -0.15475 -0.128666 -0.104077 -0.0813631 -0.0608771 -0.0429416 -0.0278426 -0.0158247 -0.00708509 -0.00178117 -1.93712e-26 0 -0.00181682 -0.00725306 -0.0162399 -0.0286518 -0.0443053 -0.0629616 -0.0843298 -0.108072 -0.133806 -0.161117 -0.189559 -0.218655 -0.247936 -0.276933 -0.305162 -0.332161 -0.357488 -0.380736 -0.401531 -0.419544 -0.434494 -0.446155 -0.45451 -0.45898 -0.45997 -0.457483 -0.451122 -0.44147 -0.428537 -0.412539 -0.393737 -0.372429 -0.348952 -0.323668 -0.296966 -0.269252 -0.240959 -0.212498 -0.184289 -0.156773 -0.130366 -0.105471 -0.0824705 -0.0617214 -0.0435498 -0.028246 -0.0160595 -0.00719283 -0.00180896 -1.96796e-26 0 -0.00181683 -0.00725316 -0.0162404 -0.0286531 -0.0443081 -0.0629668 -0.0843386 -0.108085 -0.133825 -0.161142 -0.189591 -0.218693 -0.247978 -0.276979 -0.30521 -0.332207 -0.357532 -0.380775 -0.401563 -0.419569 -0.434512 -0.446166 -0.454515 -0.458981 -0.45997 -0.45748 -0.451112 -0.44145 -0.428506 -0.412497 -0.393683 -0.372366 -0.348881 -0.323593 -0.296891 -0.26918 -0.240892 -0.212439 -0.18424 -0.156734 -0.130336 -0.10545 -0.0824567 -0.0617132 -0.0435454 -0.028244 -0.0160588 -0.00719268 -0.00180895 -1.96771e-26 0 -0.0017891 -0.00714596 -0.0160079 -0.0282554 -0.0437108 -0.0621408 -0.0832588 -0.10673 -0.132177 -0.159184 -0.187308 -0.216072 -0.245007 -0.273645 -0.301502 -0.328118 -0.353053 -0.375903 -0.396299 -0.413918 -0.428486 -0.439783 -0.4478 -0.451978 -0.452719 -0.450098 -0.443673 -0.434018 -0.421152 -0.405292 -0.386699 -0.36567 -0.342535 -0.317652 -0.291401 -0.264179 -0.236406 -0.208483 -0.180817 -0.153835 -0.127943 -0.103531 -0.0809736 -0.0606182 -0.0427848 -0.0277593 -0.0157885 -0.00707415 -0.00177979 -1.93637e-26 0 -0.00173253 -0.00692114 -0.0155069 -0.0273756 -0.0423563 -0.0602236 -0.0807005 -0.103462 -0.128141 -0.154335 -0.181611 -0.209506 -0.237561 -0.265324 -0.29232 -0.318103 -0.342246 -0.364357 -0.384077 -0.401096 -0.415149 -0.426025 -0.433715 -0.437688 -0.43833 -0.435657 -0.429312 -0.419846 -0.407285 -0.391845 -0.373779 -0.353376 -0.330958 -0.306869 -0.281477 -0.255161 -0.228327 -0.201357 -0.174644 -0.148595 -0.123599 -0.100032 -0.0782509 -0.0585925 -0.0413651 -0.0268453 -0.015273 -0.00684533 -0.00172272 -1.87445e-26 0 -0.00164891 -0.00658936 -0.0147685 -0.0260803 -0.0403642 -0.0574068 -0.0769442 -0.0986665 -0.122222 -0.147225 -0.173259 -0.199881 -0.226648 -0.253125 -0.278856 -0.303413 -0.326388 -0.347403 -0.366119 -0.382239 -0.395514 -0.405747 -0.412927 -0.416569 -0.417031 -0.414332 -0.408156 -0.399017 -0.38695 -0.372164 -0.354903 -0.335445 -0.314094 -0.29118 -0.267049 -0.242059 -0.216592 -0.191008 -0.165675 -0.140977 -0.117279 -0.094934 -0.0742797 -0.0556333 -0.0392874 -0.025505 -0.0145154 -0.00650824 -0.00163846 -1.78291e-26 0 -0.00153935 -0.00615406 -0.0137985 -0.0243769 -0.0377414 -0.0536941 -0.0719889 -0.0923353 -0.114403 -0.137827 -0.162217 -0.187152 -0.212216 -0.236995 -0.26106 -0.284006 -0.30545 -0.325037 -0.342449 -0.35741 -0.36969 -0.379108 -0.385652 -0.388894 -0.389156 -0.38646 -0.380538 -0.371859 -0.360466 -0.346559 -0.330369 -0.312158 -0.292211 -0.270832 -0.248345 -0.225079 -0.201386 -0.177597 -0.154052 -0.131102 -0.109082 -0.0883188 -0.0691225 -0.0517871 -0.0365842 -0.0237594 -0.0135276 -0.00606815 -0.00152831 -1.66323e-26 0 -0.00140556 -0.00562211 -0.0126123 -0.0222921 -0.0345292 -0.0491443 -0.0659129 -0.0845682 -0.104806 -0.12629 -0.148658 -0.171521 -0.194492 -0.217188 -0.239211 -0.260187 -0.279762 -0.29761 -0.31344 -0.327 -0.338082 -0.346527 -0.35232 -0.355099 -0.355143 -0.352479 -0.346893 -0.338799 -0.328249 -0.315432 -0.300563 -0.283882 -0.26565 -0.246146 -0.225659 -0.204489 -0.182949 -0.161337 -0.139958 -0.119125 -0.0991384 -0.0802902 -0.0628606 -0.0471145 -0.0332983 -0.021636 -0.0123251 -0.00553197 -0.00139402 -1.51728e-26 0 -0.00124966 -0.00500191 -0.0112285 -0.0198589 -0.0307784 -0.0438292 -0.0588119 -0.0754879 -0.0935836 -0.112795 -0.132796 -0.153233 -0.173756 -0.194016 -0.213654 -0.232331 -0.249729 -0.265554 -0.279548 -0.291486 -0.301189 -0.308516 -0.313455 -0.315714 -0.315528 -0.312925 -0.307751 -0.300357 -0.290808 -0.279275 -0.265954 -0.251062 -0.234832 -0.21751 -0.199349 -0.180612 -0.16157 -0.142483 -0.123615 -0.105235 -0.0876035 -0.0709749 -0.0555927 -0.0416891 -0.0294813 -0.0191682 -0.0109269 -0.00490811 -0.00123768 -1.34739e-26 0 -0.00107409 -0.00430324 -0.00966901 -0.0171156 -0.026548 -0.0378327 -0.0507981 -0.0652376 -0.0809124 -0.0975563 -0.114881 -0.132577 -0.150335 -0.167845 -0.184792 -0.200878 -0.215824 -0.229375 -0.241307 -0.25143 -0.25959 -0.265674 -0.269671 -0.271362 -0.270935 -0.268421 -0.263727 -0.25714 -0.248731 -0.238656 -0.227088 -0.214216 -0.200242 -0.185374 -0.169829 -0.153825 -0.137587 -0.121333 -0.105279 -0.0896499 -0.0746597 -0.0605195 -0.0474332 -0.0355963 -0.0251933 -0.0163949 -0.00935489 -0.00420636 -0.00106176 -1.15625e-26 0 -0.000881637 -0.00353712 -0.0079584 -0.0141055 -0.0219049 -0.0312493 -0.041998 -0.0539792 -0.0669926 -0.0808133 -0.0951963 -0.10988 -0.124598 -0.139087 -0.153079 -0.166323 -0.178581 -0.189643 -0.199321 -0.207461 -0.213942 -0.218678 -0.221658 -0.22274 -0.222065 -0.21967 -0.215516 -0.209828 -0.202682 -0.194215 -0.184576 -0.173924 -0.162424 -0.150247 -0.137564 -0.12455 -0.111379 -0.0982199 -0.0852419 -0.0726166 -0.0605109 -0.0490889 -0.0385108 -0.0289323 -0.020502 -0.0133597 -0.00763386 -0.00343773 -0.00086901 -9.4687e-27 0 -0.000675324 -0.00271564 -0.00612366 -0.0108762 -0.0169224 -0.0241829 -0.0325503 -0.0418902 -0.0520437 -0.0628304 -0.0740525 -0.085498 -0.0969513 -0.108196 -0.119017 -0.129211 -0.138589 -0.146984 -0.154251 -0.160274 -0.164965 -0.168267 -0.170176 -0.170616 -0.169691 -0.167441 -0.163878 -0.159167 -0.153387 -0.146653 -0.139089 -0.13082 -0.121975 -0.11268 -0.103063 -0.0932479 -0.083357 -0.0735083 -0.0638178 -0.0544034 -0.0453803 -0.0368633 -0.0289662 -0.021802 -0.0154811 -0.0101105 -0.00579091 -0.00261431 -0.000662474 -7.22574e-27 0 -0.000458404 -0.00185175 -0.00419373 -0.00747856 -0.0116789 -0.016745 -0.0226042 -0.0291615 -0.0363016 -0.0438914 -0.051783 -0.0598171 -0.0678306 -0.0756595 -0.0831426 -0.0901281 -0.0964779 -0.102072 -0.106809 -0.110613 -0.113432 -0.115237 -0.116036 -0.115811 -0.114638 -0.11256 -0.109627 -0.105955 -0.101622 -0.096721 -0.0913447 -0.0855855 -0.0795319 -0.0732674 -0.0668702 -0.0604131 -0.0539644 -0.047588 -0.0413451 -0.0352974 -0.0295065 -0.0240354 -0.0189498 -0.0143178 -0.01021 -0.0066985 -0.00385505 -0.00174904 -0.000445397 -4.86902e-27 0 -0.000234299 -0.000959082 -0.00219906 -0.00396618 -0.00625736 -0.00905307 -0.0123165 -0.0159938 -0.0200148 -0.0242953 -0.0287393 -0.0332422 -0.0376957 -0.0419905 -0.0460215 -0.0496908 -0.0529123 -0.0556147 -0.0577434 -0.0592625 -0.0601556 -0.0604252 -0.0600951 -0.0591917 -0.0577753 -0.0558936 -0.0536196 -0.051034 -0.0482061 -0.0452054 -0.0420956 -0.0389331 -0.0357652 -0.03263 -0.0295559 -0.0265632 -0.0236644 -0.020868 -0.0181782 -0.0156 -0.0131398 -0.0108077 -0.0086195 -0.00659769 -0.00477162 -0.0031774 -0.00185679 -0.000855544 -0.000221198 -2.43577e-27 0 -6.54215e-06 -5.17276e-05 -0.000171171 -0.000394617 -0.000743486 -0.00122895 -0.00185069 -0.00259644 -0.00344235 -0.00435406 -0.00528864 -0.00619682 -0.00702675 -0.00772563 -0.00824516 -0.00854272 -0.00858518 -0.00835116 -0.00783256 -0.00703529 -0.00597943 -0.00469839 -0.00323751 -0.00165081 -3.50748e-08 0.00165078 0.00323745 0.00469832 0.00597935 0.00703519 0.00783245 0.00835105 0.00858503 0.00854257 0.00824509 0.00772559 0.00702669 0.00619678 0.00528862 0.00435404 0.00344234 0.00259644 0.00185068 0.00122895 0.000743489 0.000394617 0.000171171 5.17276e-05 6.54215e-06 3.56261e-29 0 0.000221198 0.000855544 0.00185679 0.0031774 0.00477162 0.00659769 0.0086195 0.0108076 0.0131397 0.0156 0.0181782 0.0208679 0.0236643 0.0265631 0.0295559 0.0326299 0.0357651 0.0389329 0.0420954 0.0452052 0.048206 0.0510339 0.0536195 0.0558935 0.0577752 0.0591917 0.060095 0.0604251 0.0601556 0.0592625 0.0577433 0.0556146 0.0529122 0.0496907 0.0460214 0.0419905 0.0376956 0.0332421 0.0287393 0.0242952 0.0200148 0.0159938 0.0123165 0.00905307 0.00625737 0.00396618 0.00219906 0.000959082 0.000234299 2.50618e-27 0 0.000445397 0.00174904 0.00385505 0.0066985 0.01021 0.0143178 0.0189498 0.0240354 0.0295065 0.0352974 0.041345 0.047588 0.0539643 0.060413 0.0668701 0.0732673 0.0795317 0.0855853 0.0913445 0.0967208 0.101622 0.105955 0.109627 0.11256 0.114638 0.115811 0.116036 0.115237 0.113432 0.110613 0.106809 0.102072 0.0964779 0.090128 0.0831425 0.0756595 0.0678306 0.0598171 0.051783 0.0438914 0.0363016 0.0291615 0.0226042 0.016745 0.011679 0.00747856 0.00419373 0.00185175 0.000458404 4.93696e-27 0 0.000662474 0.00261431 0.00579091 0.0101105 0.0154811 0.021802 0.0289662 0.0368633 0.0453803 0.0544034 0.0638178 0.0735083 0.0833569 0.0932477 0.103063 0.11268 0.121975 0.13082 0.139089 0.146653 0.153387 0.159167 0.163878 0.167441 0.169691 0.170616 0.170176 0.168267 0.164965 0.160274 0.154251 0.146984 0.138589 0.129211 0.119017 0.108196 0.0969513 0.085498 0.0740525 0.0628303 0.0520437 0.0418902 0.0325503 0.0241829 0.0169224 0.0108762 0.00612366 0.00271564 0.000675324 7.28969e-27 0 0.00086901 0.00343773 0.00763386 0.0133597 0.020502 0.0289323 0.0385108 0.0490889 0.0605109 0.0726166 0.0852419 0.0982199 0.111379 0.12455 0.137564 0.150247 0.162424 0.173924 0.184576 0.194215 0.202682 0.209828 0.215516 0.21967 0.222065 0.22274 0.221658 0.218678 0.213942 0.207461 0.199321 0.189643 0.178581 0.166323 0.153079 0.139087 0.124598 0.10988 0.0951964 0.0808132 0.0669926 0.0539792 0.041998 0.0312493 0.0219049 0.0141055 0.0079584 0.00353712 0.000881637 9.52732e-27 0 0.00106176 0.00420636 0.00935489 0.0163949 0.0251933 0.0355963 0.0474332 0.0605195 0.0746597 0.0896499 0.105279 0.121333 0.137587 0.153825 0.169829 0.185374 0.200242 0.214216 0.227088 0.238656 0.248731 0.25714 0.263727 0.268421 0.270935 0.271362 0.269671 0.265674 0.25959 0.25143 0.241307 0.229375 0.215824 0.200878 0.184792 0.167845 0.150335 0.132577 0.114881 0.0975563 0.0809124 0.0652376 0.0507981 0.0378327 0.026548 0.0171156 0.00966901 0.00430324 0.00107409 1.16147e-26 0 0.00123768 0.00490811 0.0109269 0.0191682 0.0294813 0.0416891 0.0555927 0.0709749 0.0876035 0.105235 0.123615 0.142483 0.16157 0.180612 0.199349 0.217509 0.234832 0.251062 0.265954 0.279275 0.290808 0.300357 0.307751 0.312925 0.315528 0.315714 0.313455 0.308516 0.301189 0.291486 0.279548 0.265554 0.249729 0.232331 0.213654 0.194016 0.173756 0.153233 0.132796 0.112795 0.0935836 0.0754879 0.0588119 0.0438292 0.0307784 0.0198589 0.0112285 0.00500191 0.00124966 1.35189e-26 0 0.00139402 0.00553197 0.0123251 0.021636 0.0332983 0.0471145 0.0628606 0.0802902 0.0991384 0.119125 0.139958 0.161337 0.182949 0.204489 0.225659 0.246146 0.26565 0.283882 0.300563 0.315432 0.328249 0.338799 0.346893 0.352479 0.355143 0.355099 0.352319 0.346527 0.338082 0.327 0.31344 0.29761 0.279762 0.260187 0.239211 0.217188 0.194492 0.171521 0.148658 0.12629 0.104806 0.0845682 0.0659128 0.0491443 0.0345292 0.0222921 0.0126123 0.00562211 0.00140556 1.52101e-26 0 0.00152831 0.00606815 0.0135276 0.0237594 0.0365842 0.0517871 0.0691225 0.0883188 0.109082 0.131102 0.154052 0.177597 0.201386 0.225079 0.248345 0.270832 0.29221 0.312158 0.330369 0.346559 0.360466 0.371859 0.380538 0.38646 0.389156 0.388894 0.385652 0.379108 0.36969 0.35741 0.342449 0.325037 0.30545 0.284006 0.26106 0.236995 0.212216 0.187152 0.162217 0.137827 0.114403 0.0923352 0.0719889 0.0536941 0.0377414 0.0243769 0.0137985 0.00615406 0.00153935 1.66617e-26 0 0.00163846 0.00650824 0.0145154 0.025505 0.0392874 0.0556333 0.0742797 0.094934 0.117279 0.140977 0.165675 0.191008 0.216592 0.242059 0.267049 0.29118 0.314094 0.335445 0.354903 0.372164 0.38695 0.399017 0.408156 0.414332 0.417031 0.416569 0.412927 0.405747 0.395514 0.382239 0.366119 0.347403 0.326388 0.303413 0.278856 0.253125 0.226648 0.199881 0.173259 0.147225 0.122222 0.0986665 0.0769442 0.0574068 0.0403642 0.0260803 0.0147685 0.00658936 0.00164891 1.78509e-26 0 0.00172272 0.00684533 0.015273 0.0268453 0.0413651 0.0585925 0.0782509 0.100032 0.123599 0.148595 0.174644 0.201357 0.228327 0.255161 0.281477 0.306869 0.330958 0.353376 0.373779 0.391845 0.407285 0.419846 0.429312 0.435657 0.43833 0.437688 0.433715 0.426025 0.415149 0.401096 0.384077 0.364357 0.342246 0.318103 0.29232 0.265324 0.237562 0.209506 0.181611 0.154335 0.128141 0.103462 0.0807005 0.0602236 0.0423563 0.0273756 0.0155069 0.00692114 0.00173253 1.8759e-26 0 0.00177979 0.00707415 0.0157885 0.0277593 0.0427848 0.0606182 0.0809736 0.103531 0.127943 0.153835 0.180817 0.208483 0.236406 0.264179 0.291401 0.317652 0.342535 0.36567 0.386699 0.405292 0.421152 0.434018 0.443673 0.450098 0.452719 0.451978 0.4478 0.439783 0.428486 0.413918 0.396299 0.375903 0.353053 0.328118 0.301502 0.273645 0.245007 0.216072 0.187308 0.159184 0.132177 0.10673 0.0832588 0.0621408 0.0437109 0.0282554 0.0160079 0.00714596 0.0017891 1.93718e-26 0 0.00180895 0.00719268 0.0160588 0.028244 0.0435454 0.0617132 0.0824567 0.10545 0.130336 0.156734 0.18424 0.212439 0.240892 0.26918 0.296891 0.323593 0.348881 0.372366 0.393683 0.412497 0.428506 0.44145 0.451112 0.45748 0.45997 0.458981 0.454515 0.446166 0.434512 0.419569 0.401563 0.380775 0.357532 0.332207 0.30521 0.276979 0.247978 0.218693 0.189591 0.161142 0.133825 0.108085 0.0843386 0.0629668 0.0443081 0.0286531 0.0162404 0.00725316 0.00181683 1.96796e-26 0 0.00180896 0.00719283 0.0160595 0.028246 0.0435498 0.0617214 0.0824705 0.105471 0.130366 0.156773 0.184289 0.212498 0.240959 0.269252 0.296966 0.323668 0.348952 0.372429 0.393737 0.412539 0.428537 0.44147 0.451122 0.457483 0.45997 0.45898 0.45451 0.446155 0.434494 0.419544 0.401531 0.380736 0.357488 0.332161 0.305162 0.276933 0.247936 0.218655 0.189559 0.161117 0.133806 0.108072 0.0843298 0.0629616 0.0443053 0.0286518 0.0162399 0.00725306 0.00181682 1.96777e-26 0 0.00178117 0.00708509 0.0158247 0.0278426 0.0429416 0.0608771 0.0813631 0.104077 0.128666 0.154749 0.181927 0.209783 0.237881 0.265801 0.293133 0.319448 0.344341 0.367429 0.388351 0.406778 0.422416 0.435013 0.44436 0.450449 0.452719 0.451602 0.447065 0.43872 0.427136 0.412333 0.394538 0.374029 0.35113 0.326207 0.29966 0.27192 0.243439 0.214689 0.1