<?xml version="1.0"?>
<VTKFile type="PolyData">
	<PolyData>
		<Piece NumberOfPoints="2601" NumberOfPolys="2500">
			<Points>
				<DataArray type="Float32" NumberOfComponents="3" format="ascii">
 0 0 0 0.02 0 0 0.04 0 0 0.06 0 0 0.08 0 0 0.1 0 0 0.12 0 0 0.14 0 0 0.16 0 0 0.18 0 0 0.2 0 0 0.22 0 0 0.24 0 0 0.26 0 0 0.28 0 0 0.3 0 0 0.32 0 0 0.34 0 0 0.36 0 0 0.38 0 0 0.4 0 0 0.42 0 0 0.44 0 0 0.46 0 0 0.48 0 0 0.5 0 0 0.52 0 0 0.54 0 0 0.56 0 0 0.58 0 0 0.6 0 0 0.62 0 0 0.64 0 0 0.66 0 0 0.68 0 0 0.7 0 0 0.72 0 0 0.74 0 0 0.76 0 0 0.78 0 0 0.8 0 0 0.82 0 0 0.84 0 0 0.86 0 0 0.88 0 0 0.9 0 0 0.92 0 0 0.94 0 0 0.96 0 0 0.98 0 0 1 0 0 0 0.02 0 0.02 0.02 0 0.04 0.02 0 0.06 0.02 0 0.08 0.02 0 0.1 0.02 0 0.12 0.02 0 0.14 0.02 0 0.16 0.02 0 0.18 0.02 0 0.2 0.02 0 0.22 0.02 0 0.24 0.02 0 0.26 0.02 0 0.28 0.02 0 0.3 0.02 0 0.32 0.02 0 0.34 0.02 0 0.36 0.02 0 0.38 0.02 0 0.4 0.02 0 0.42 0.02 0 0.44 0.02 0 0.46 0.02 0 0.48 0.02 0 0.5 0.02 0 0.52 0.02 0 0.54 0.02 0 0.56 0.02 0 0.58 0.02 0 0.6 0.02 0 0.62 0.02 0 0.64 0.02 0 0.66 0.02 0 0.68 0.02 0 0.7 0.02 0 0.72 0.02 0 0.74 0.02 0 0.76 0.02 0 0.78 0.02 0 0.8 0.02 0 0.82 0.02 0 0.84 0.02 0 0.86 0.02 0 0.88 0.02 0 0.9 0.02 0 0.92 0.02 0 0.94 0.02 0 0.96 0.02 0 0.98 0.02 0 1 0.02 0 0 0.04 0 0.02 0.04 0 0.04 0.04 0 0.06 0.04 0 0.08 0.04 0 0.1 0.04 0 0.12 0.04 0 0.14 0.04 0 0.16 0.04 0 0.18 0.04 0 0.2 0.04 0 0.22 0.04 0 0.24 0.04 0 0.26 0.04 0 0.28 0.04 0 0.3 0.04 0 0.32 0.04 0 0.34 0.04 0 0.36 0.04 0 0.38 0.04 0 0.4 0.04 0 0.42 0.04 0 0.44 0.04 0 0.46 0.04 0 0.48 0.04 0 0.5 0.04 0 0.52 0.04 0 0.54 0.04 0 0.56 0.04 0 0.58 0.04 0 0.6 0.04 0 0.62 0.04 0 0.64 0.04 0 0.66 0.04 0 0.68 0.04 0 0.7 0.04 0 0.72 0.04 0 0.74 0.04 0 0.76 0.04 0 0.78 0.04 0 0.8 0.04 0 0.82 0.04 0 0.84 0.04 0 0.86 0.04 0 0.88 0.04 0 0.9 0.04 0 0.92 0.04 0 0.94 0.04 0 0.96 0.04 0 0.98 0.04 0 1 0.04 0 0 0.06 0 0.02 0.06 0 0.04 0.06 0 0.06 0.06 0 0.08 0.06 0 0.1 0.06 0 0.12 0.06 0 0.14 0.06 0 0.16 0.06 0 0.18 0.06 0 0.2 0.06 0 0.22 0.06 0 0.24 0.06 0 0.26 0.06 0 0.28 0.06 0 0.3 0.06 0 0.32 0.06 0 0.34 0.06 0 0.36 0.06 0 0.38 0.06 0 0.4 0.06 0 0.42 0.06 0 0.44 0.06 0 0.46 0.06 0 0.48 0.06 0 0.5 0.06 0 0.52 0.06 0 0.54 0.06 0 0.56 0.06 0 0.58 0.06 0 0.6 0.06 0 0.62 0.06 0 0.64 0.06 0 0.66 0.06 0 0.68 0.06 0 0.7 0.06 0 0.72 0.06 0 0.74 0.06 0 0.76 0.06 0 0.78 0.06 0 0.8 0.06 0 0.82 0.06 0 0.84 0.06 0 0.86 0.06 0 0.88 0.06 0 0.9 0.06 0 0.92 0.06 0 0.94 0.06 0 0.96 0.06 0 0.98 0.06 0 1 0.06 0 0 0.08 0 0.02 0.08 0 0.04 0.08 0 0.06 0.08 0 0.08 0.08 0 0.1 0.08 0 0.12 0.08 0 0.14 0.08 0 0.16 0.08 0 0.18 0.08 0 0.2 0.08 0 0.22 0.08 0 0.24 0.08 0 0.26 0.08 0 0.28 0.08 0 0.3 0.08 0 0.32 0.08 0 0.34 0.08 0 0.36 0.08 0 0.38 0.08 0 0.4 0.08 0 0.42 0.08 0 0.44 0.08 0 0.46 0.08 0 0.48 0.08 0 0.5 0.08 0 0.52 0.08 0 0.54 0.08 0 0.56 0.08 0 0.58 0.08 0 0.6 0.08 0 0.62 0.08 0 0.64 0.08 0 0.66 0.08 0 0.68 0.08 0 0.7 0.08 0 0.72 0.08 0 0.74 0.08 0 0.76 0.08 0 0.78 0.08 0 0.8 0.08 0 0.82 0.08 0 0.84 0.08 0 0.86 0.08 0 0.88 0.08 0 0.9 0.08 0 0.92 0.08 0 0.94 0.08 0 0.96 0.08 0 0.98 0.08 0 1 0.08 0 0 0.1 0 0.02 0.1 0 0.04 0.1 0 0.06 0.1 0 0.08 0.1 0 0.1 0.1 0 0.12 0.1 0 0.14 0.1 0 0.16 0.1 0 0.18 0.1 0 0.2 0.1 0 0.22 0.1 0 0.24 0.1 0 0.26 0.1 0 0.28 0.1 0 0.3 0.1 0 0.32 0.1 0 0.34 0.1 0 0.36 0.1 0 0.38 0.1 0 0.4 0.1 0 0.42 0.1 0 0.44 0.1 0 0.46 0.1 0 0.48 0.1 0 0.5 0.1 0 0.52 0.1 0 0.54 0.1 0 0.56 0.1 0 0.58 0.1 0 0.6 0.1 0 0.62 0.1 0 0.64 0.1 0 0.66 0.1 0 0.68 0.1 0 0.7 0.1 0 0.72 0.1 0 0.74 0.1 0 0.76 0.1 0 0.78 0.1 0 0.8 0.1 0 0.82 0.1 0 0.84 0.1 0 0.86 0.1 0 0.88 0.1 0 0.9 0.1 0 0.92 0.1 0 0.94 0.1 0 0.96 0.1 0 0.98 0.1 0 1 0.1 0 0 0.12 0 0.02 0.12 0 0.04 0.12 0 0.06 0.12 0 0.08 0.12 0 0.1 0.12 0 0.12 0.12 0 0.14 0.12 0 0.16 0.12 0 0.18 0.12 0 0.2 0.12 0 0.22 0.12 0 0.24 0.12 0 0.26 0.12 0 0.28 0.12 0 0.3 0.12 0 0.32 0.12 0 0.34 0.12 0 0.36 0.12 0 0.38 0.12 0 0.4 0.12 0 0.42 0.12 0 0.44 0.12 0 0.46 0.12 0 0.48 0.12 0 0.5 0.12 0 0.52 0.12 0 0.54 0.12 0 0.56 0.12 0 0.58 0.12 0 0.6 0.12 0 0.62 0.12 0 0.64 0.12 0 0.66 0.12 0 0.68 0.12 0 0.7 0.12 0 0.72 0.12 0 0.74 0.12 0 0.76 0.12 0 0.78 0.12 0 0.8 0.12 0 0.82 0.12 0 0.84 0.12 0 0.86 0.12 0 0.88 0.12 0 0.9 0.12 0 0.92 0.12 0 0.94 0.12 0 0.96 0.12 0 0.98 0.12 0 1 0.12 0 0 0.14 0 0.02 0.14 0 0.04 0.14 0 0.06 0.14 0 0.08 0.14 0 0.1 0.14 0 0.12 0.14 0 0.14 0.14 0 0.16 0.14 0 0.18 0.14 0 0.2 0.14 0 0.22 0.14 0 0.24 0.14 0 0.26 0.14 0 0.28 0.14 0 0.3 0.14 0 0.32 0.14 0 0.34 0.14 0 0.36 0.14 0 0.38 0.14 0 0.4 0.14 0 0.42 0.14 0 0.44 0.14 0 0.46 0.14 0 0.48 0.14 0 0.5 0.14 0 0.52 0.14 0 0.54 0.14 0 0.56 0.14 0 0.58 0.14 0 0.6 0.14 0 0.62 0.14 0 0.64 0.14 0 0.66 0.14 0 0.68 0.14 0 0.7 0.14 0 0.72 0.14 0 0.74 0.14 0 0.76 0.14 0 0.78 0.14 0 0.8 0.14 0 0.82 0.14 0 0.84 0.14 0 0.86 0.14 0 0.88 0.14 0 0.9 0.14 0 0.92 0.14 0 0.94 0.14 0 0.96 0.14 0 0.98 0.14 0 1 0.14 0 0 0.16 0 0.02 0.16 0 0.04 0.16 0 0.06 0.16 0 0.08 0.16 0 0.1 0.16 0 0.12 0.16 0 0.14 0.16 0 0.16 0.16 0 0.18 0.16 0 0.2 0.16 0 0.22 0.16 0 0.24 0.16 0 0.26 0.16 0 0.28 0.16 0 0.3 0.16 0 0.32 0.16 0 0.34 0.16 0 0.36 0.16 0 0.38 0.16 0 0.4 0.16 0 0.42 0.16 0 0.44 0.16 0 0.46 0.16 0 0.48 0.16 0 0.5 0.16 0 0.52 0.16 0 0.54 0.16 0 0.56 0.16 0 0.58 0.16 0 0.6 0.16 0 0.62 0.16 0 0.64 0.16 0 0.66 0.16 0 0.68 0.16 0 0.7 0.16 0 0.72 0.16 0 0.74 0.16 0 0.76 0.16 0 0.78 0.16 0 0.8 0.16 0 0.82 0.16 0 0.84 0.16 0 0.86 0.16 0 0.88 0.16 0 0.9 0.16 0 0.92 0.16 0 0.94 0.16 0 0.96 0.16 0 0.98 0.16 0 1 0.16 0 0 0.18 0 0.02 0.18 0 0.04 0.18 0 0.06 0.18 0 0.08 0.18 0 0.1 0.18 0 0.12 0.18 0 0.14 0.18 0 0.16 0.18 0 0.18 0.18 0 0.2 0.18 0 0.22 0.18 0 0.24 0.18 0 0.26 0.18 0 0.28 0.18 0 0.3 0.18 0 0.32 0.18 0 0.34 0.18 0 0.36 0.18 0 0.38 0.18 0 0.4 0.18 0 0.42 0.18 0 0.44 0.18 0 0.46 0.18 0 0.48 0.18 0 0.5 0.18 0 0.52 0.18 0 0.54 0.18 0 0.56 0.18 0 0.58 0.18 0 0.6 0.18 0 0.62 0.18 0 0.64 0.18 0 0.66 0.18 0 0.68 0.18 0 0.7 0.18 0 0.72 0.18 0 0.74 0.18 0 0.76 0.18 0 0.78 0.18 0 0.8 0.18 0 0.82 0.18 0 0.84 0.18 0 0.86 0.18 0 0.88 0.18 0 0.9 0.18 0 0.92 0.18 0 0.94 0.18 0 0.96 0.18 0 0.98 0.18 0 1 0.18 0 0 0.2 0 0.02 0.2 0 0.04 0.2 0 0.06 0.2 0 0.08 0.2 0 0.1 0.2 0 0.12 0.2 0 0.14 0.2 0 0.16 0.2 0 0.18 0.2 0 0.2 0.2 0 0.22 0.2 0 0.24 0.2 0 0.26 0.2 0 0.28 0.2 0 0.3 0.2 0 0.32 0.2 0 0.34 0.2 0 0.36 0.2 0 0.38 0.2 0 0.4 0.2 0 0.42 0.2 0 0.44 0.2 0 0.46 0.2 0 0.48 0.2 0 0.5 0.2 0 0.52 0.2 0 0.54 0.2 0 0.56 0.2 0 0.58 0.2 0 0.6 0.2 0 0.62 0.2 0 0.64 0.2 0 0.66 0.2 0 0.68 0.2 0 0.7 0.2 0 0.72 0.2 0 0.74 0.2 0 0.76 0.2 0 0.78 0.2 0 0.8 0.2 0 0.82 0.2 0 0.84 0.2 0 0.86 0.2 0 0.88 0.2 0 0.9 0.2 0 0.92 0.2 0 0.94 0.2 0 0.96 0.2 0 0.98 0.2 0 1 0.2 0 0 0.22 0 0.02 0.22 0 0.04 0.22 0 0.06 0.22 0 0.08 0.22 0 0.1 0.22 0 0.12 0.22 0 0.14 0.22 0 0.16 0.22 0 0.18 0.22 0 0.2 0.22 0 0.22 0.22 0 0.24 0.22 0 0.26 0.22 0 0.28 0.22 0 0.3 0.22 0 0.32 0.22 0 0.34 0.22 0 0.36 0.22 0 0.38 0.22 0 0.4 0.22 0 0.42 0.22 0 0.44 0.22 0 0.46 0.22 0 0.48 0.22 0 0.5 0.22 0 0.52 0.22 0 0.54 0.22 0 0.56 0.22 0 0.58 0.22 0 0.6 0.22 0 0.62 0.22 0 0.64 0.22 0 0.66 0.22 0 0.68 0.22 0 0.7 0.22 0 0.72 0.22 0 0.74 0.22 0 0.76 0.22 0 0.78 0.22 0 0.8 0.22 0 0.82 0.22 0 0.84 0.22 0 0.86 0.22 0 0.88 0.22 0 0.9 0.22 0 0.92 0.22 0 0.94 0.22 0 0.96 0.22 0 0.98 0.22 0 1 0.22 0 0 0.24 0 0.02 0.24 0 0.04 0.24 0 0.06 0.24 0 0.08 0.24 0 0.1 0.24 0 0.12 0.24 0 0.14 0.24 0 0.16 0.24 0 0.18 0.24 0 0.2 0.24 0 0.22 0.24 0 0.24 0.24 0 0.26 0.24 0 0.28 0.24 0 0.3 0.24 0 0.32 0.24 0 0.34 0.24 0 0.36 0.24 0 0.38 0.24 0 0.4 0.24 0 0.42 0.24 0 0.44 0.24 0 0.46 0.24 0 0.48 0.24 0 0.5 0.24 0 0.52 0.24 0 0.54 0.24 0 0.56 0.24 0 0.58 0.24 0 0.6 0.24 0 0.62 0.24 0 0.64 0.24 0 0.66 0.24 0 0.68 0.24 0 0.7 0.24 0 0.72 0.24 0 0.74 0.24 0 0.76 0.24 0 0.78 0.24 0 0.8 0.24 0 0.82 0.24 0 0.84 0.24 0 0.86 0.24 0 0.88 0.24 0 0.9 0.24 0 0.92 0.24 0 0.94 0.24 0 0.96 0.24 0 0.98 0.24 0 1 0.24 0 0 0.26 0 0.02 0.26 0 0.04 0.26 0 0.06 0.26 0 0.08 0.26 0 0.1 0.26 0 0.12 0.26 0 0.14 0.26 0 0.16 0.26 0 0.18 0.26 0 0.2 0.26 0 0.22 0.26 0 0.24 0.26 0 0.26 0.26 0 0.28 0.26 0 0.3 0.26 0 0.32 0.26 0 0.34 0.26 0 0.36 0.26 0 0.38 0.26 0 0.4 0.26 0 0.42 0.26 0 0.44 0.26 0 0.46 0.26 0 0.48 0.26 0 0.5 0.26 0 0.52 0.26 0 0.54 0.26 0 0.56 0.26 0 0.58 0.26 0 0.6 0.26 0 0.62 0.26 0 0.64 0.26 0 0.66 0.26 0 0.68 0.26 0 0.7 0.26 0 0.72 0.26 0 0.74 0.26 0 0.76 0.26 0 0.78 0.26 0 0.8 0.26 0 0.82 0.26 0 0.84 0.26 0 0.86 0.26 0 0.88 0.26 0 0.9 0.26 0 0.92 0.26 0 0.94 0.26 0 0.96 0.26 0 0.98 0.26 0 1 0.26 0 0 0.28 0 0.02 0.28 0 0.04 0.28 0 0.06 0.28 0 0.08 0.28 0 0.1 0.28 0 0.12 0.28 0 0.14 0.28 0 0.16 0.28 0 0.18 0.28 0 0.2 0.28 0 0.22 0.28 0 0.24 0.28 0 0.26 0.28 0 0.28 0.28 0 0.3 0.28 0 0.32 0.28 0 0.34 0.28 0 0.36 0.28 0 0.38 0.28 0 0.4 0.28 0 0.42 0.28 0 0.44 0.28 0 0.46 0.28 0 0.48 0.28 0 0.5 0.28 0 0.52 0.28 0 0.54 0.28 0 0.56 0.28 0 0.58 0.28 0 0.6 0.28 0 0.62 0.28 0 0.64 0.28 0 0.66 0.28 0 0.68 0.28 0 0.7 0.28 0 0.72 0.28 0 0.74 0.28 0 0.76 0.28 0 0.78 0.28 0 0.8 0.28 0 0.82 0.28 0 0.84 0.28 0 0.86 0.28 0 0.88 0.28 0 0.9 0.28 0 0.92 0.28 0 0.94 0.28 0 0.96 0.28 0 0.98 0.28 0 1 0.28 0 0 0.3 0 0.02 0.3 0 0.04 0.3 0 0.06 0.3 0 0.08 0.3 0 0.1 0.3 0 0.12 0.3 0 0.14 0.3 0 0.16 0.3 0 0.18 0.3 0 0.2 0.3 0 0.22 0.3 0 0.24 0.3 0 0.26 0.3 0 0.28 0.3 0 0.3 0.3 0 0.32 0.3 0 0.34 0.3 0 0.36 0.3 0 0.38 0.3 0 0.4 0.3 0 0.42 0.3 0 0.44 0.3 0 0.46 0.3 0 0.48 0.3 0 0.5 0.3 0 0.52 0.3 0 0.54 0.3 0 0.56 0.3 0 0.58 0.3 0 0.6 0.3 0 0.62 0.3 0 0.64 0.3 0 0.66 0.3 0 0.68 0.3 0 0.7 0.3 0 0.72 0.3 0 0.74 0.3 0 0.76 0.3 0 0.78 0.3 0 0.8 0.3 0 0.82 0.3 0 0.84 0.3 0 0.86 0.3 0 0.88 0.3 0 0.9 0.3 0 0.92 0.3 0 0.94 0.3 0 0.96 0.3 0 0.98 0.3 0 1 0.3 0 0 0.32 0 0.02 0.32 0 0.04 0.32 0 0.06 0.32 0 0.08 0.32 0 0.1 0.32 0 0.12 0.32 0 0.14 0.32 0 0.16 0.32 0 0.18 0.32 0 0.2 0.32 0 0.22 0.32 0 0.24 0.32 0 0.26 0.32 0 0.28 0.32 0 0.3 0.32 0 0.32 0.32 0 0.34 0.32 0 0.36 0.32 0 0.38 0.32 0 0.4 0.32 0 0.42 0.32 0 0.44 0.32 0 0.46 0.32 0 0.48 0.32 0 0.5 0.32 0 0.52 0.32 0 0.54 0.32 0 0.56 0.32 0 0.58 0.32 0 0.6 0.32 0 0.62 0.32 0 0.64 0.32 0 0.66 0.32 0 0.68 0.32 0 0.7 0.32 0 0.72 0.32 0 0.74 0.32 0 0.76 0.32 0 0.78 0.32 0 0.8 0.32 0 0.82 0.32 0 0.84 0.32 0 0.86 0.32 0 0.88 0.32 0 0.9 0.32 0 0.92 0.32 0 0.94 0.
[...]
			<PointData Scalars="VitesseX">
				<DataArray Name="VitesseX" type="Float32" format="ascii">
 0 0 0 0 0 0 0 0 0 0 0 0 0 0 0 0 0 0 0 0 0 0 0 0 0 0 0 0 0 0 0 0 0 0 0 0 0 0 0 0 0 0 0 0 0 0 0 0 0 0 0 0 4.65015e-05 0.000185269 0.000414119 0.000729434 0.00112624 0.00159828 0.00213811 0.00273721 0.00338614 0.00407466 0.00479193 0.00552662 0.00626715 0.00700185 0.00771914 0.00840772 0.00905671 0.0096559 0.0101958 0.010668 0.0110649 0.0113803 0.0116093 0.0117484 0.0117949 0.0117485 0.0116099 0.0113809 0.0110657 0.0106689 0.0101968 0.00965696 0.0090578 0.0084088 0.00772019 0.00700283 0.00626804 0.0055274 0.00479261 0.00407523 0.00338659 0.00273755 0.00213835 0.00159845 0.00112635 0.000729493 0.000414147 0.000185282 4.65032e-05 5.04533e-28 0 9.22649e-05 0.000367585 0.000821625 0.00144719 0.0022344 0.00317083 0.00424171 0.00543016 0.00671744 0.00808325 0.00950608 0.0109635 0.0124325 0.01389 0.0153131 0.0166793 0.017967 0.019156 0.0202276 0.0211647 0.0219528 0.0225792 0.0230342 0.0233111 0.0234038 0.0233125 0.0230385 0.0225847 0.0219597 0.0211729 0.0202366 0.0191657 0.0179769 0.0166892 0.0153227 0.013899 0.0124407 0.0109707 0.00951225 0.00808834 0.00672147 0.00543322 0.0042439 0.0031723 0.0022353 0.00144768 0.000821848 0.000367667 9.22759e-05 1.0011e-27 0 0.000136569 0.000544076 0.00121611 0.00214197 0.00330705 0.00469295 0.00627779 0.0080366 0.00994164 0.0119629 0.0140686 0.0162254 0.0183995 0.0205566 0.0226628 0.0246849 0.026591 0.0283512 0.0299376 0.0313254 0.0324924 0.0334205 0.0340947 0.0345058 0.0346435 0.0345093 0.0341049 0.0334336 0.0325092 0.031345 0.0299595 0.0283745 0.026615 0.0247088 0.0226858 0.0205782 0.0184191 0.0162427 0.0140834 0.0119752 0.00995135 0.00804395 0.00628306 0.00469647 0.00330921 0.00214315 0.00121664 0.000544269 0.000136595 1.48187e-27 0 0.000178715 0.000711961 0.00159134 0.00280284 0.0043273 0.00614064 0.00821425 0.0105154 0.0130079 0.0156525 0.0184074 0.0212294 0.024074 0.0268963 0.0296523 0.0322983 0.0347928 0.0370965 0.039173 0.0409896 0.0425177 0.043733 0.0446165 0.045156 0.0453369 0.0451625 0.0446347 0.0437568 0.0425479 0.0410251 0.0392125 0.0371386 0.0348362 0.0323415 0.0296939 0.0269353 0.0241093 0.0212607 0.0184342 0.0156746 0.0130254 0.0105287 0.00822375 0.00614699 0.00433119 0.00280495 0.0015923 0.000712306 0.000178761 1.93926e-27 0 0.00021804 0.000868594 0.00194142 0.00341936 0.00527904 0.00749107 0.0100205 0.0128275 0.0158679 0.0190937 0.0224542 0.0258966 0.0293664 0.0328093 0.0361714 0.0393996 0.0424431 0.0452539 0.0477879 0.050005 0.0518703 0.0533543 0.0544335 0.0550936 0.0553153 0.055104 0.0544618 0.0533914 0.0519175 0.0500605 0.0478496 0.0453197 0.0425107 0.0394669 0.0362364 0.0328702 0.0294217 0.0259454 0.0224961 0.0191282 0.0158952 0.0128482 0.0100354 0.00750098 0.0052851 0.00342264 0.0019429 0.000869126 0.000218111 2.36606e-27 0 0.000253923 0.00101151 0.00226081 0.00398182 0.00614727 0.00872294 0.0116682 0.0149365 0.0184765 0.0222324 0.0261452 0.0301533 0.0341934 0.0382024 0.0421173 0.0458766 0.0494211 0.0526949 0.0556466 0.0582295 0.060403 0.0621326 0.063391 0.064162 0.0644213 0.064177 0.0634312 0.0621855 0.0604703 0.0583087 0.0557347 0.0527888 0.0495176 0.0459727 0.0422101 0.0382893 0.0342723 0.0302229 0.0262049 0.0222817 0.0185155 0.014966 0.0116893 0.00873708 0.00615592 0.00398649 0.00226293 0.00101226 0.000254022 2.75555e-27 0 0.000285798 0.00113845 0.00254449 0.00448134 0.00691831 0.00981685 0.0131312 0.0168091 0.0207926 0.0250191 0.0294221 0.0339324 0.0384789 0.0429904 0.0473964 0.0516274 0.0556169 0.0593021 0.0626251 0.0655334 0.0679811 0.0699295 0.0713476 0.072218 0.0725113 0.0722384 0.0714013 0.0700005 0.0680714 0.0656396 0.0627433 0.0594282 0.0557465 0.0517563 0.0475209 0.043107 0.0385848 0.0340259 0.0295022 0.0250851 0.0208449 0.0168487 0.0131595 0.00983579 0.00692989 0.0044876 0.00254732 0.00113944 0.000285929 3.10158e-27 0 0.000313164 0.00124741 0.00278799 0.00491007 0.00758 0.0107555 0.0143865 0.0184157 0.0227796 0.0274097 0.0322332 0.0371744 0.0421552 0.0470978 0.0519252 0.0565611 0.0609327 0.0649713 0.0686134 0.0718014 0.0744851 0.0766219 0.078178 0.0791345 0.0794578 0.0791611 0.0782465 0.076713 0.0746009 0.0719377 0.068765 0.0651331 0.061099 0.0567265 0.0520849 0.0472475 0.042291 0.0372943 0.032336 0.0274944 0.0228467 0.0184664 0.0144228 0.0107798 0.00759483 0.00491807 0.00279159 0.00124867 0.00031333 3.39871e-27 0 0.000335589 0.00133669 0.00298746 0.00526123 0.00812191 0.0115242 0.0154143 0.019731 0.0244063 0.0293667 0.0345343 0.039828 0.0451644 0.05046 0.0556324 0.0606 0.0652848 0.0696132 0.073517 0.0769347 0.0798124 0.0821045 0.0837744 0.0848024 0.0851512 0.0848358 0.0838587 0.0822173 0.0799559 0.0771035 0.0737049 0.0698135 0.0654907 0.0608049 0.0558302 0.0506454 0.0453327 0.0399766 0.0346616 0.0294716 0.0244894 0.0197938 0.0154593 0.0115542 0.00814023 0.00527111 0.0029919 0.00133823 0.000335791 3.64225e-27 0 0.000352719 0.00140488 0.00313977 0.00552929 0.00853549 0.0121107 0.0161985 0.0207343 0.0256469 0.0308591 0.036289 0.0418516 0.047459 0.0530239 0.0584596 0.0636804 0.0686045 0.0731544 0.0772586 0.0808524 0.0838791 0.0862906 0.0880485 0.0891323 0.0895016 0.0891731 0.0881494 0.0864264 0.0840519 0.0810557 0.0774849 0.0733957 0.0688525 0.0639272 0.0586978 0.0532472 0.0476617 0.0420305 0.0364422 0.0309854 0.0257469 0.0208099 0.0162525 0.0121468 0.00855751 0.00554116 0.00314508 0.0014067 0.000352958 3.82836e-27 0 0.000364294 0.00145095 0.0032427 0.00571048 0.00881506 0.0125072 0.0167286 0.0214127 0.0264858 0.0318683 0.0374756 0.04322 0.0490108 0.0547577 0.0603714 0.0657634 0.0708491 0.0755487 0.0797882 0.0835007 0.0866278 0.0891197 0.0909368 0.0920579 0.0924406 0.0921046 0.0910509 0.0892741 0.0868243 0.0837319 0.0800456 0.0758231 0.0711313 0.0660442 0.0606425 0.0550117 0.0492414 0.0434236 0.03765 0.032012 0.0265996 0.0214987 0.0167901 0.0125482 0.00884007 0.00572394 0.00324871 0.001453 0.000364562 3.95412e-27 0 0.0003701 0.00147396 0.00329386 0.00580015 0.00895288 0.012702 0.0169882 0.0217439 0.0268944 0.032359 0.0380519 0.0438841 0.0497639 0.0555997 0.0613009 0.0667779 0.0719448 0.0767206 0.0810303 0.084806 0.0879879 0.0905256 0.0923785 0.0935249 0.0939218 0.0935859 0.0925216 0.0907215 0.0882371 0.0850991 0.0813565 0.0770683 0.0723021 0.0671334 0.0616441 0.0559213 0.0500559 0.0441419 0.0382725 0.0325407 0.0270383 0.0218526 0.0170659 0.0127538 0.00898443 0.0058171 0.00330139 0.00147647 0.000370427 4.01753e-27 0 0.000370099 0.00147395 0.00329385 0.00580013 0.00895282 0.0127019 0.016988 0.0217437 0.0268941 0.0323585 0.0380514 0.0438835 0.0497632 0.0555989 0.0613001 0.0667771 0.071944 0.0767199 0.0810297 0.0848055 0.0879876 0.0905254 0.0923784 0.0935248 0.0939218 0.0935859 0.0925217 0.0907216 0.0882373 0.0850994 0.0813569 0.0770688 0.0723026 0.0671339 0.0616446 0.0559217 0.0500564 0.0441423 0.0382728 0.032541 0.0270385 0.0218528 0.017066 0.0127538 0.00898446 0.00581711 0.0033014 0.00147647 0.000370427 4.01761e-27 0 0.000364236 0.00145049 0.00324119 0.00570699 0.00880849 0.0124964 0.0167123 0.0213898 0.0264554 0.0318298 0.0374289 0.0431653 0.0489487 0.0546894 0.0602984 0.0656877 0.070773 0.0754745 0.0797185 0.083438 0.0865743 0.0890775 0.0909074 0.0920422 0.0924406 0.0921188 0.0910813 0.089318 0.0868804 0.0837981 0.0801193 0.0759018 0.0712122 0.0661248 0.0607203 0.0550847 0.0493078 0.0434821 0.0376999 0.0320531 0.0266321 0.0215233 0.0168076 0.0125599 0.00884711 0.00572768 0.00325033 0.00145349 0.000364624 3.95436e-27 0 0.000352635 0.00140421 0.00313757 0.00552423 0.00852595 0.0120949 0.0161747 0.020701 0.0256028 0.0308032 0.0362212 0.0417721 0.0473689 0.0529247 0.0583536 0.0635706 0.068494 0.0730467 0.0771575 0.0807614 0.0838015 0.0862294 0.088006 0.0891097 0.0895016 0.0891929 0.0881913 0.0864871 0.0841295 0.0811472 0.0775869 0.0735045 0.0689645 0.0640388 0.0588055 0.0533481 0.0477536 0.0421115 0.0365114 0.0310423 0.025792 0.0208439 0.0162768 0.0121629 0.00856724 0.00554632 0.00314732 0.00140737 0.000353044 3.82876e-27 0 0.000335472 0.00133578 0.00298443 0.00525423 0.00810872 0.0115024 0.0153815 0.0196849 0.0243452 0.0292894 0.0344404 0.039718 0.0450397 0.0503228 0.0554858 0.060448 0.0651319 0.0694643 0.0733771 0.0768088 0.0797051 0.0820198 0.0837157 0.0847712 0.0851511 0.084863 0.0839163 0.0823006 0.0800624 0.077229 0.0738448 0.0699629 0.0656444 0.060958 0.055978 0.0507839 0.0454587 0.0400877 0.0347565 0.0295497 0.0245512 0.0198404 0.0154925 0.0115763 0.00815358 0.0052782 0.00299497 0.00133916 0.000335908 3.64281e-27 0 0.000313017 0.00124626 0.00278416 0.00490123 0.00756336 0.010728 0.0143451 0.0183576 0.0227026 0.0273123 0.0321148 0.0370356 0.0419978 0.0469247 0.0517403 0.0563694 0.0607399 0.0647835 0.068437 0.0716427 0.0743498 0.0765153 0.078104 0.0790953 0.0794577 0.0791954 0.0783188 0.0768177 0.0747346 0.0720953 0.0689407 0.0653206 0.0612919 0.0569186 0.0522704 0.0474214 0.0424492 0.0374338 0.0324551 0.0275925 0.0229243 0.0185249 0.0144645 0.0108075 0.00761158 0.00492697 0.00279545 0.00124984 0.000313477 3.39942e-27 0 0.000285623 0.00113707 0.00253993 0.00447082 0.00689848 0.00978407 0.0130818 0.0167398 0.0207008 0.0249029 0.029281 0.0337671 0.0382914 0.042784 0.047176 0.0513989 0.0553871 0.0590784 0.062415 0.0653443 0.06782 0.0698025 0.0712596 0.0721715 0.0725113 0.0722795 0.0714873 0.0701249 0.0682302 0.0658268 0.062952 0.0596509 0.0559756 0.0519844 0.0477411 0.0433134 0.0387725 0.0341915 0.0296436 0.0252016 0.020937 0.0169181 0.013209 0.00986866 0.00694978 0.00449816 0.0025519 0.00114082 0.000286104 3.10244e-27 0 0.000253722 0.00100993 0.00225558 0.00396976 0.00612456 0.00868541 0.0116116 0.0148572 0.0183714 0.0220994 0.0259836 0.0299639 0.0339787 0.0379661 0.0418651 0.0456151 0.049158 0.0524388 0.0554061 0.0580132 0.0602187 0.0619874 0.0632903 0.064109 0.0644213 0.0642243 0.0635294 0.0623277 0.0606518 0.0585226 0.0559731 0.0530432 0.0497793 0.0462332 0.0424616 0.038525 0.0344867 0.030412 0.0263663 0.0224146 0.0186206 0.0150453 0.0117458 0.00877461 0.00617863 0.00399855 0.00226815 0.00101384 0.000254222 2.75654e-27 0 0.000217818 0.000866838 0.00193561 0.00340596 0.0052538 0.00744936 0.00995773 0.0127394 0.0157511 0.018946 0.0222747 0.0256862 0.0291279 0.0325469 0.0358912 0.0391091 0.0421509 0.0449695 0.0475209 0.0497649 0.0516658 0.0531932 0.0543219 0.0550351 0.0553153 0.0551569 0.0545709 0.0535493 0.0521189 0.0502978 0.048114 0.0456018 0.0428008 0.0397557 0.0365152 0.0331316 0.0296594 0.026155 0.022675 0.0192756 0.0160118 0.0129361 0.010098 0.00754258 0.00531027 0.003436 0.0019487 0.000870877 0.000218332 2.36718e-27 0 0.000178475 0.000710057 0.00158504 0.00278831 0.00429994 0.00609542 0.00814617 0.0104199 0.0128813 0.0154923 0.0182129 0.0210014 0.0238154 0.0266119 0.0293486 0.0319835 0.0344763 0.0367883 0.0388837 0.0407294 0.0422962 0.0435586 0.0444958 0.045093 0.0453369 0.0452203 0.0447529 0.0439279 0.042766 0.0412821 0.0394988 0.0374441 0.0351502 0.0326541 0.0299957 0.0272182 0.0243666 0.0214876 0.0186279 0.015834 0.0131515 0.0106238 0.00829154 0.00619202 0.00435843 0.0028194 0.00159857 0.000714201 0.000179001 1.94049e-27 0 0.000136313 0.000542055 0.00120942 0.00212655 0.00327801 0.00464495 0.00620552 0.0079352 0.00980722 0.0117929 0.013862 0.0159834 0.018125 0.0202547 0.0223404 0.0243508 0.0262551 0.0280242 0.0296307 0.0310494 0.0322576 0.0332356 0.033967 0.0344395 0.0346435 0.0345713 0.0342303 0.0336153 0.0327408 0.0316178 0.0302633 0.0286985 0.0269482 0.0250403 0.0230059 0.0208781 0.0186919 0.0164833 0.0142888 0.0121442 0.010085 0.00814478 0.00635494 0.00474421 0.00333809 0.00215847 0.00122329 0.000546279 0.000136849 1.48319e-27 0 9.19983e-05 0.000365478 0.000814653 0.00143112 0.00220413 0.0031208 0.00416638 0.00532448 0.00657734 0.00790605 0.00929083 0.0107113 0.0121465 0.0135754 0.0149772 0.0163312 0.017617 0.0188154 0.0199079 0.0208774 0.0217084 0.0223869 0.0229014 0.0232425 0.0234038 0.0233778 0.0231693 0.0227743 0.0222012 0.0214571 0.0205532 0.0195032 0.018324 0.0170345 0.015656 0.0142113 0.0127247 0.0112212 0.00972605 0.00826437 0.00686065 0.0055382 0.00431874 0.00322199 0.00226537 0.00146364 0.000828772 0.000369759 9.25405e-05 1.0025e-27 0 4.62284e-05 0.000183111 0.000406977 0.000712971 0.00109523 0.00154703 0.00206094 0.00262895 0.00324262 0.00389314 0.00457144 0.00526825 0.00597415 0.00667964 0.00737519 0.00805125 0.00869836 0.00930718 0.00986861 0.0103739 0.0108148 0.0111837 0.0114737 0.0116788 0.0117947 0.0118165 0.0117439 0.0115757 0.0113135 0.0109605 0.0105215 0.0100031 0.00941364 0.00876286 0.00806189 0.00732298 0.00655921 0.00578418 0.00501175 0.00425565 0.00352923 0.00284515 0.00221506 0.00164939 0.00115716 0.000745852 0.000421244 0.000187426 4.67745e-05 5.05986e-28 0 -2.72633e-07 -2.15533e-06 -7.13129e-06 -1.64385e-05 -3.09674e-05 -5.11815e-05 -7.70671e-05 -0.000108114 -0.000143329 -0.000181285 -0.000220197 -0.000258026 -0.0002926 -0.000321745 -0.000343425 -0.000355873 -0.000357708 -0.000348028 -0.000326485 -0.000293314 -0.000249345 -0.000195963 -0.000135048 -6.88751e-05 -7.80161e-10 6.88753e-05 0.000135049 0.000195967 0.00024935 0.00029332 0.000326491 0.000348033 0.000357711 0.000355876 0.000343426 0.000321745 0.000292601 0.000258027 0.000220198 0.000181285 0.000143329 0.000108114 7.70672e-05 5.11814e-05 3.09673e-05 1.64385e-05 7.13129e-06 2.15533e-06 2.72633e-07 1.4848e-30 0 -4.67745e-05 -0.000187426 -0.000421244 -0.000745852 -0.00115716 -0.00164939 -0.00221506 -0.00284515 -0.00352923 -0.00425565 -0.00501175 -0.00578418 -0.00655921 -0.00732298 -0.00806189 -0.00876285 -0.00941364 -0.0100031 -0.0105215 -0.0109605 -0.0113135 -0.0115757 -0.0117439 -0.0118165 -0.0117947 -0.0116788 -0.0114737 -0.0111837 -0.0108148 -0.0103739 -0.00986861 -0.00930717 -0.00869836 -0.00805125 -0.00737519 -0.00667964 -0.00597415 -0.00526825 -0.00457144 -0.00389314 -0.00324262 -0.00262895 -0.00206094 -0.00154703 -0.00109523 -0.000712971 -0.000406977 -0.000183111 -4.62284e-05 -5.03051e-28 0 -9.25405e-05 -0.000369759 -0.000828772 -0.00146364 -0.00226537 -0.003222 -0.00431874 -0.0055382 -0.00686065 -0.00826437 -0.00972605 -0.0112212 -0.0127247 -0.0142113 -0.015656 -0.0170345 -0.018324 -0.0195032 -0.0205532 -0.0214571 -0.0222012 -0.0227743 -0.0231693 -0.0233778 -0.0234038 -0.0232425 -0.0229014 -0.0223869 -0.0217084 -0.0208774 -0.0199079 -0.0188154 -0.017617 -0.0163312 -0.0149772 -0.0135754 -0.0121465 -0.0107113 -0.00929083 -0.00790605 -0.00657734 -0.00532448 -0.00416638 -0.0031208 -0.00220413 -0.00143112 -0.000814653 -0.000365478 -9.19983e-05 -9.99666e-28 0 -0.000136849 -0.000546279 -0.00122329 -0.00215847 -0.00333809 -0.00474421 -0.00635494 -0.00814478 -0.010085 -0.0121442 -0.0142888 -0.0164833 -0.0186919 -0.0208781 -0.0230059 -0.0250403 -0.0269482 -0.0286985 -0.0302633 -0.0316178 -0.0327408 -0.0336153 -0.0342303 -0.0345713 -0.0346435 -0.0344395 -0.033967 -0.0332356 -0.0322576 -0.0310494 -0.0296307 -0.0280242 -0.0262551 -0.0243508 -0.0223404 -0.0202547 -0.018125 -0.0159834 -0.013862 -0.0117929 -0.00980722 -0.0079352 -0.00620552 -0.00464495 -0.00327801 -0.00212655 -0.00120942 -0.000542055 -0.000136313 -1.48053e-27 0 -0.000179001 -0.000714201 -0.00159857 -0.0028194 -0.00435843 -0.00619202 -0.00829154 -0.0106238 -0.0131515 -0.015834 -0.0186279 -0.0214876 -0.0243666 -0.0272182 -0.0299957 -0.0326541 -0.0351503 -0.0374441 -0.0394988 -0.0412821 -0.042766 -0.0439279 -0.0447529 -0.0452203 -0.0453369 -0.045093 -0.0444958 -0.0435586 -0.0422962 -0.0407294 -0.0388837 -0.0367883 -0.0344763 -0.0319835 -0.0293486 -0.0266119 -0.0238154 -0.0210014 -0.0182129 -0.0154923 -0.0128813 -0.0104199 -0.00814617 -0.00609542 -0.00429994 -0.00278831 -0.00158504 -0.000710057 -0.000178475 -1.93804e-27 0 -0.000218332 -0.000870877 -0.0019487 -0.003436 -0.00531027 -0.00754258 -0.010098 -0.0129361 -0.0160118 -0.0192756 -0.022675 -0.026155 -0.0296594 -0.0331316 -0.0365152 -0.0397557 -0.0428008 -0.0456018 -0.048114 -0.0502978 -0.0521189 -0.0535493 -0.0545709 -0.0551569 -0.0553153 -0.0550351 -0.0543219 -0.0531932 -0.0516658 -0.0497649 -0.0475209 -0.0449695 -0.0421509 -0.0391091 -0.0358912 -0.0325469 -0.0291279 -0.0256862 -0.0222747 -0.018946 -0.0157511 -0.0127394 -0.00995773 -0.00744936 -0.0052538 -0.00340596 -0.00193561 -0.000866838 -0.000217818 -2.365e-27 0 -0.000254222 -0.00101384 -0.00226815 -0.00399855 -0.00617863 -0.00877461 -0.0117458 -0.0150453 -0.0186206 -0.0224146 -0.0263663 -0.030412 -0.0344867 -0.038525 -0.0424616 -0.0462332 -0.0497793 -0.0530432 -0.0559731 -0.0585226 -0.0606518 -0.0623277 -0.0635294 -0.0642243 -0.0644213 -0.064109 -0.0632903 -0.0619874 -0.0602187 -0.0580132 -0.0554061 -0.0524388 -0.049158 -0.0456151 -0.0418651 -0.0379661 -0.0339787 -0.0299639 -0.0259836 -0.0220994 -0.0183714 -0.0148572 -0.0116116 -0.00868541 -0.00612456 -0.00396976 -0.00225558 -0.00100993 -0.000253722 -2.75467e-27 0 -0.000286104 -0.00114082 -0.0025519 -0.00449816 -0.00694978 -0.00986866 -0.013209 -0.0169181 -0.020937 -0.0252016 -0.0296436 -0.0341915 -0.0387725 -0.0433135 -0.0477411 -0.0519844 -0.0559756 -0.0596509 -0.062952 -0.0658268 -0.0682302 -0.0701249 -0.0714873 -0.0722795 -0.0725113 -0.0721715 -0.0712596 -0.0698025 -0.06782 -0.0653443 -0.062415 -0.0590784 -0.0553871 -0.0513989 -0.047176 -0.042784 -0.0382914 -0.0337671 -0.029281 -0.0249029 -0.0207008 -0.0167398 -0.0130818 -0.00978407 -0.00689848 -0.00447082 -0.00253993 -0.00113707 -0.000285623 -3.10089e-27 0 -0.000313477 -0.00124984 -0.00279545 -0.00492697 -0.00761158 -0.0108075 -0.0144645 -0.0185249 -0.0229243 -0.0275925 -0.0324551 -0.0374338 -0.0424492 -0.0474214 -0.0522703 -0.0569186 -0.0612919 -0.0653206 -0.0689407 -0.0720953 -0.0747346 -0.0768177 -0.0783188 -0.0791954 -0.0794577 -0.0790953 -0.078104 -0.0765153 -0.0743498 -0.0716427 -0.068437 -0.0647835 -0.0607399 -0.0563694 -0.0517403 -0.0469247 -0.0419978 -0.0370356 -0.0321148 -0.0273123 -0.0227026 -0.0183576 -0.0143451 -0.010728 -0.00756336 -0.00490123 -0.00278416 -0.00124626 -0.000313017 -3.3982e-27 0 -0.000335908 -0.00133916 -0.00299497 -0.0052782 -0.00815358 -0.0115763 -0.0154925 -0.0198404 -0.0245512 -0.0295497 -0.0347565 -0.0400877 -0.0454587 -0.0507839 -0.055978 -0.060958 -0.0656444 -0.0699629 -0.0738448 -0.077229 -0.0800624 -0.0823006 -0.0839163 -0.084863 -0.0851511 -0.0847712 -0.0837157 -0.0820198 -0.0797051 -0.0768089 -0.0733771 -0.0694643 -0.0651319 -0.060448 -0.0554858 -0.0503228 -0.0450397 -0.039718 -0.0344404 -0.0292894 -0.0243452 -0.0196849 -0.0153815 -0.0115024 -0.00810872 -0.00525423 -0.00298443 -0.00133578 -0.000335472 -3.6419e-27 0 -0.000353044 -0.00140737 -0.00314732 -0.00554632 -0.00856724 -0.0121629 -0.0162768 -0.0208439 -0.025792 -0.0310424 -0.0365114 -0.0421115 -0.0477536 -0.0533481 -0.0588055 -0.0640388 -0.0689645 -0.0735045 -0.0775869 -0.0811472 -0.0841295 -0.0864871 -0.0881913 -0.0891929 -0.0895016 -0.0891097 -0.088006 -0.0862294 -0.0838015 -0.0807614 -0.0771575 -0.0730467 -0.068494 -0.0635706 -0.0583536 -0.0529247 -0.0473689 -0.0417721 -0.0362212 -0.0308032 -0.0256028 -0.020701 -0.0161747 -0.0120949 -0.00852595 -0.00552423 -0.00313757 -0.00140421 -0.000352635 -3.82816e-27 0 -0.000364624 -0.00145349 -0.00325033 -0.00572768 -0.00884711 -0.0125599 -0.0168076 -0.0215233 -0.0266321 -0.0320531 -0.0376999 -0.0434821 -0.0493078 -0.0550847 -0.0607203 -0.0661248 -0.0712122 -0.0759018 -0.0801193 -0.0837981 -0.0868804 -0.089318 -0.0910813 -0.0921188 -0.0924406 -0.0920422 -0.0909074 -0.0890775 -0.0865743 -0.083438 -0.0797185 -0.0754745 -0.070773 -0.0656877 -0.0602984 -0.0546894 -0.0489487 -0.0431653 -0.0374289 -0.0318298 -0.0264554 -0.0213898 -0.0167123 -0.0124964 -0.00880849 -0.00570699 -0.00324119 -0.00145049 -0.000364236 -3.95402e-27 0 -0.000370427 -0.00147647 -0.0033014 -0.00581711 -0.00898446 -0.0127538 -0.017066 -0.0218528 -0.0270385 -0.032541 -0.0382728 -0.0441423 -0.0500564 -0.0559217 -0.0616446 -0.0671339 -0.0723026 -0.0770688 -0.0813569 -0.0850994 -0.0882373 -0.0907216 -0.0925217 -0.0935859 -0.0939218 -0.0935248 -0.0923784 -0.0905254 -0.0879876 -0.0848055 -0.0810297 -0.0767199 -0.071944 -0.0667771 -0.0613001 -0.0555989 -0.0497632 -0.0438835 -0.0380514 -0.0323585 -0.0268941 -0.0217437 -0.016988 -0.0127019 -0.00895282 -0.00580013 -0.00329385 -0.00147395 -0.000370099