<?xml version="1.0"?>
<VTKFile type="PolyData">
	<PolyData>
		<Piece NumberOfPoints="2601" NumberOfPolys="2500">
			<Points>
				<DataArray type="Float32" NumberOfComponents="3" format="ascii">
 0 0 0 0.02 0 0 0.04 0 0 0.06 0 0 0.08 0 0 0.1 0 0 0.12 0 0 0.14 0 0 0.16 0 0 0.18 0 0 0.2 0 0 0.22 0 0 0.24 0 0 0.26 0 0 0.28 0 0 0.3 0 0 0.32 0 0 0.34 0 0 0.36 0 0 0.38 0 0 0.4 0 0 0.42 0 0 0.44 0 0 0.46 0 0 0.48 0 0 0.5 0 0 0.52 0 0 0.54 0 0 0.56 0 0 0.58 0 0 0.6 0 0 0.62 0 0 0.64 0 0 0.66 0 0 0.68 0 0 0.7 0 0 0.72 0 0 0.74 0 0 0.76 0 0 0.78 0 0 0.8 0 0 0.82 0 0 0.84 0 0 0.86 0 0 0.88 0 0 0.9 0 0 0.92 0 0 0.94 0 0 0.96 0 0 0.98 0 0 1 0 0 0 0.02 0 0.02 0.02 0 0.04 0.02 0 0.06 0.02 0 0.08 0.02 0 0.1 0.02 0 0.12 0.02 0 0.14 0.02 0 0.16 0.02 0 0.18 0.02 0 0.2 0.02 0 0.22 0.02 0 0.24 0.02 0 0.26 0.02 0 0.28 0.02 0 0.3 0.02 0 0.32 0.02 0 0.34 0.02 0 0.36 0.02 0 0.38 0.02 0 0.4 0.02 0 0.42 0.02 0 0.44 0.02 0 0.46 0.02 0 0.48 0.02 0 0.5 0.02 0 0.52 0.02 0 0.54 0.02 0 0.56 0.02 0 0.58 0.02 0 0.6 0.02 0 0.62 0.02 0 0.64 0.02 0 0.66 0.02 0 0.68 0.02 0 0.7 0.02 0 0.72 0.02 0 0.74 0.02 0 0.76 0.02 0 0.78 0.02 0 0.8 0.02 0 0.82 0.02 0 0.84 0.02 0 0.86 0.02 0 0.88 0.02 0 0.9 0.02 0 0.92 0.02 0 0.94 0.02 0 0.96 0.02 0 0.98 0.02 0 1 0.02 0 0 0.04 0 0.02 0.04 0 0.04 0.04 0 0.06 0.04 0 0.08 0.04 0 0.1 0.04 0 0.12 0.04 0 0.14 0.04 0 0.16 0.04 0 0.18 0.04 0 0.2 0.04 0 0.22 0.04 0 0.24 0.04 0 0.26 0.04 0 0.28 0.04 0 0.3 0.04 0 0.32 0.04 0 0.34 0.04 0 0.36 0.04 0 0.38 0.04 0 0.4 0.04 0 0.42 0.04 0 0.44 0.04 0 0.46 0.04 0 0.48 0.04 0 0.5 0.04 0 0.52 0.04 0 0.54 0.04 0 0.56 0.04 0 0.58 0.04 0 0.6 0.04 0 0.62 0.04 0 0.64 0.04 0 0.66 0.04 0 0.68 0.04 0 0.7 0.04 0 0.72 0.04 0 0.74 0.04 0 0.76 0.04 0 0.78 0.04 0 0.8 0.04 0 0.82 0.04 0 0.84 0.04 0 0.86 0.04 0 0.88 0.04 0 0.9 0.04 0 0.92 0.04 0 0.94 0.04 0 0.96 0.04 0 0.98 0.04 0 1 0.04 0 0 0.06 0 0.02 0.06 0 0.04 0.06 0 0.06 0.06 0 0.08 0.06 0 0.1 0.06 0 0.12 0.06 0 0.14 0.06 0 0.16 0.06 0 0.18 0.06 0 0.2 0.06 0 0.22 0.06 0 0.24 0.06 0 0.26 0.06 0 0.28 0.06 0 0.3 0.06 0 0.32 0.06 0 0.34 0.06 0 0.36 0.06 0 0.38 0.06 0 0.4 0.06 0 0.42 0.06 0 0.44 0.06 0 0.46 0.06 0 0.48 0.06 0 0.5 0.06 0 0.52 0.06 0 0.54 0.06 0 0.56 0.06 0 0.58 0.06 0 0.6 0.06 0 0.62 0.06 0 0.64 0.06 0 0.66 0.06 0 0.68 0.06 0 0.7 0.06 0 0.72 0.06 0 0.74 0.06 0 0.76 0.06 0 0.78 0.06 0 0.8 0.06 0 0.82 0.06 0 0.84 0.06 0 0.86 0.06 0 0.88 0.06 0 0.9 0.06 0 0.92 0.06 0 0.94 0.06 0 0.96 0.06 0 0.98 0.06 0 1 0.06 0 0 0.08 0 0.02 0.08 0 0.04 0.08 0 0.06 0.08 0 0.08 0.08 0 0.1 0.08 0 0.12 0.08 0 0.14 0.08 0 0.16 0.08 0 0.18 0.08 0 0.2 0.08 0 0.22 0.08 0 0.24 0.08 0 0.26 0.08 0 0.28 0.08 0 0.3 0.08 0 0.32 0.08 0 0.34 0.08 0 0.36 0.08 0 0.38 0.08 0 0.4 0.08 0 0.42 0.08 0 0.44 0.08 0 0.46 0.08 0 0.48 0.08 0 0.5 0.08 0 0.52 0.08 0 0.54 0.08 0 0.56 0.08 0 0.58 0.08 0 0.6 0.08 0 0.62 0.08 0 0.64 0.08 0 0.66 0.08 0 0.68 0.08 0 0.7 0.08 0 0.72 0.08 0 0.74 0.08 0 0.76 0.08 0 0.78 0.08 0 0.8 0.08 0 0.82 0.08 0 0.84 0.08 0 0.86 0.08 0 0.88 0.08 0 0.9 0.08 0 0.92 0.08 0 0.94 0.08 0 0.96 0.08 0 0.98 0.08 0 1 0.08 0 0 0.1 0 0.02 0.1 0 0.04 0.1 0 0.06 0.1 0 0.08 0.1 0 0.1 0.1 0 0.12 0.1 0 0.14 0.1 0 0.16 0.1 0 0.18 0.1 0 0.2 0.1 0 0.22 0.1 0 0.24 0.1 0 0.26 0.1 0 0.28 0.1 0 0.3 0.1 0 0.32 0.1 0 0.34 0.1 0 0.36 0.1 0 0.38 0.1 0 0.4 0.1 0 0.42 0.1 0 0.44 0.1 0 0.46 0.1 0 0.48 0.1 0 0.5 0.1 0 0.52 0.1 0 0.54 0.1 0 0.56 0.1 0 0.58 0.1 0 0.6 0.1 0 0.62 0.1 0 0.64 0.1 0 0.66 0.1 0 0.68 0.1 0 0.7 0.1 0 0.72 0.1 0 0.74 0.1 0 0.76 0.1 0 0.78 0.1 0 0.8 0.1 0 0.82 0.1 0 0.84 0.1 0 0.86 0.1 0 0.88 0.1 0 0.9 0.1 0 0.92 0.1 0 0.94 0.1 0 0.96 0.1 0 0.98 0.1 0 1 0.1 0 0 0.12 0 0.02 0.12 0 0.04 0.12 0 0.06 0.12 0 0.08 0.12 0 0.1 0.12 0 0.12 0.12 0 0.14 0.12 0 0.16 0.12 0 0.18 0.12 0 0.2 0.12 0 0.22 0.12 0 0.24 0.12 0 0.26 0.12 0 0.28 0.12 0 0.3 0.12 0 0.32 0.12 0 0.34 0.12 0 0.36 0.12 0 0.38 0.12 0 0.4 0.12 0 0.42 0.12 0 0.44 0.12 0 0.46 0.12 0 0.48 0.12 0 0.5 0.12 0 0.52 0.12 0 0.54 0.12 0 0.56 0.12 0 0.58 0.12 0 0.6 0.12 0 0.62 0.12 0 0.64 0.12 0 0.66 0.12 0 0.68 0.12 0 0.7 0.12 0 0.72 0.12 0 0.74 0.12 0 0.76 0.12 0 0.78 0.12 0 0.8 0.12 0 0.82 0.12 0 0.84 0.12 0 0.86 0.12 0 0.88 0.12 0 0.9 0.12 0 0.92 0.12 0 0.94 0.12 0 0.96 0.12 0 0.98 0.12 0 1 0.12 0 0 0.14 0 0.02 0.14 0 0.04 0.14 0 0.06 0.14 0 0.08 0.14 0 0.1 0.14 0 0.12 0.14 0 0.14 0.14 0 0.16 0.14 0 0.18 0.14 0 0.2 0.14 0 0.22 0.14 0 0.24 0.14 0 0.26 0.14 0 0.28 0.14 0 0.3 0.14 0 0.32 0.14 0 0.34 0.14 0 0.36 0.14 0 0.38 0.14 0 0.4 0.14 0 0.42 0.14 0 0.44 0.14 0 0.46 0.14 0 0.48 0.14 0 0.5 0.14 0 0.52 0.14 0 0.54 0.14 0 0.56 0.14 0 0.58 0.14 0 0.6 0.14 0 0.62 0.14 0 0.64 0.14 0 0.66 0.14 0 0.68 0.14 0 0.7 0.14 0 0.72 0.14 0 0.74 0.14 0 0.76 0.14 0 0.78 0.14 0 0.8 0.14 0 0.82 0.14 0 0.84 0.14 0 0.86 0.14 0 0.88 0.14 0 0.9 0.14 0 0.92 0.14 0 0.94 0.14 0 0.96 0.14 0 0.98 0.14 0 1 0.14 0 0 0.16 0 0.02 0.16 0 0.04 0.16 0 0.06 0.16 0 0.08 0.16 0 0.1 0.16 0 0.12 0.16 0 0.14 0.16 0 0.16 0.16 0 0.18 0.16 0 0.2 0.16 0 0.22 0.16 0 0.24 0.16 0 0.26 0.16 0 0.28 0.16 0 0.3 0.16 0 0.32 0.16 0 0.34 0.16 0 0.36 0.16 0 0.38 0.16 0 0.4 0.16 0 0.42 0.16 0 0.44 0.16 0 0.46 0.16 0 0.48 0.16 0 0.5 0.16 0 0.52 0.16 0 0.54 0.16 0 0.56 0.16 0 0.58 0.16 0 0.6 0.16 0 0.62 0.16 0 0.64 0.16 0 0.66 0.16 0 0.68 0.16 0 0.7 0.16 0 0.72 0.16 0 0.74 0.16 0 0.76 0.16 0 0.78 0.16 0 0.8 0.16 0 0.82 0.16 0 0.84 0.16 0 0.86 0.16 0 0.88 0.16 0 0.9 0.16 0 0.92 0.16 0 0.94 0.16 0 0.96 0.16 0 0.98 0.16 0 1 0.16 0 0 0.18 0 0.02 0.18 0 0.04 0.18 0 0.06 0.18 0 0.08 0.18 0 0.1 0.18 0 0.12 0.18 0 0.14 0.18 0 0.16 0.18 0 0.18 0.18 0 0.2 0.18 0 0.22 0.18 0 0.24 0.18 0 0.26 0.18 0 0.28 0.18 0 0.3 0.18 0 0.32 0.18 0 0.34 0.18 0 0.36 0.18 0 0.38 0.18 0 0.4 0.18 0 0.42 0.18 0 0.44 0.18 0 0.46 0.18 0 0.48 0.18 0 0.5 0.18 0 0.52 0.18 0 0.54 0.18 0 0.56 0.18 0 0.58 0.18 0 0.6 0.18 0 0.62 0.18 0 0.64 0.18 0 0.66 0.18 0 0.68 0.18 0 0.7 0.18 0 0.72 0.18 0 0.74 0.18 0 0.76 0.18 0 0.78 0.18 0 0.8 0.18 0 0.82 0.18 0 0.84 0.18 0 0.86 0.18 0 0.88 0.18 0 0.9 0.18 0 0.92 0.18 0 0.94 0.18 0 0.96 0.18 0 0.98 0.18 0 1 0.18 0 0 0.2 0 0.02 0.2 0 0.04 0.2 0 0.06 0.2 0 0.08 0.2 0 0.1 0.2 0 0.12 0.2 0 0.14 0.2 0 0.16 0.2 0 0.18 0.2 0 0.2 0.2 0 0.22 0.2 0 0.24 0.2 0 0.26 0.2 0 0.28 0.2 0 0.3 0.2 0 0.32 0.2 0 0.34 0.2 0 0.36 0.2 0 0.38 0.2 0 0.4 0.2 0 0.42 0.2 0 0.44 0.2 0 0.46 0.2 0 0.48 0.2 0 0.5 0.2 0 0.52 0.2 0 0.54 0.2 0 0.56 0.2 0 0.58 0.2 0 0.6 0.2 0 0.62 0.2 0 0.64 0.2 0 0.66 0.2 0 0.68 0.2 0 0.7 0.2 0 0.72 0.2 0 0.74 0.2 0 0.76 0.2 0 0.78 0.2 0 0.8 0.2 0 0.82 0.2 0 0.84 0.2 0 0.86 0.2 0 0.88 0.2 0 0.9 0.2 0 0.92 0.2 0 0.94 0.2 0 0.96 0.2 0 0.98 0.2 0 1 0.2 0 0 0.22 0 0.02 0.22 0 0.04 0.22 0 0.06 0.22 0 0.08 0.22 0 0.1 0.22 0 0.12 0.22 0 0.14 0.22 0 0.16 0.22 0 0.18 0.22 0 0.2 0.22 0 0.22 0.22 0 0.24 0.22 0 0.26 0.22 0 0.28 0.22 0 0.3 0.22 0 0.32 0.22 0 0.34 0.22 0 0.36 0.22 0 0.38 0.22 0 0.4 0.22 0 0.42 0.22 0 0.44 0.22 0 0.46 0.22 0 0.48 0.22 0 0.5 0.22 0 0.52 0.22 0 0.54 0.22 0 0.56 0.22 0 0.58 0.22 0 0.6 0.22 0 0.62 0.22 0 0.64 0.22 0 0.66 0.22 0 0.68 0.22 0 0.7 0.22 0 0.72 0.22 0 0.74 0.22 0 0.76 0.22 0 0.78 0.22 0 0.8 0.22 0 0.82 0.22 0 0.84 0.22 0 0.86 0.22 0 0.88 0.22 0 0.9 0.22 0 0.92 0.22 0 0.94 0.22 0 0.96 0.22 0 0.98 0.22 0 1 0.22 0 0 0.24 0 0.02 0.24 0 0.04 0.24 0 0.06 0.24 0 0.08 0.24 0 0.1 0.24 0 0.12 0.24 0 0.14 0.24 0 0.16 0.24 0 0.18 0.24 0 0.2 0.24 0 0.22 0.24 0 0.24 0.24 0 0.26 0.24 0 0.28 0.24 0 0.3 0.24 0 0.32 0.24 0 0.34 0.24 0 0.36 0.24 0 0.38 0.24 0 0.4 0.24 0 0.42 0.24 0 0.44 0.24 0 0.46 0.24 0 0.48 0.24 0 0.5 0.24 0 0.52 0.24 0 0.54 0.24 0 0.56 0.24 0 0.58 0.24 0 0.6 0.24 0 0.62 0.24 0 0.64 0.24 0 0.66 0.24 0 0.68 0.24 0 0.7 0.24 0 0.72 0.24 0 0.74 0.24 0 0.76 0.24 0 0.78 0.24 0 0.8 0.24 0 0.82 0.24 0 0.84 0.24 0 0.86 0.24 0 0.88 0.24 0 0.9 0.24 0 0.92 0.24 0 0.94 0.24 0 0.96 0.24 0 0.98 0.24 0 1 0.24 0 0 0.26 0 0.02 0.26 0 0.04 0.26 0 0.06 0.26 0 0.08 0.26 0 0.1 0.26 0 0.12 0.26 0 0.14 0.26 0 0.16 0.26 0 0.18 0.26 0 0.2 0.26 0 0.22 0.26 0 0.24 0.26 0 0.26 0.26 0 0.28 0.26 0 0.3 0.26 0 0.32 0.26 0 0.34 0.26 0 0.36 0.26 0 0.38 0.26 0 0.4 0.26 0 0.42 0.26 0 0.44 0.26 0 0.46 0.26 0 0.48 0.26 0 0.5 0.26 0 0.52 0.26 0 0.54 0.26 0 0.56 0.26 0 0.58 0.26 0 0.6 0.26 0 0.62 0.26 0 0.64 0.26 0 0.66 0.26 0 0.68 0.26 0 0.7 0.26 0 0.72 0.26 0 0.74 0.26 0 0.76 0.26 0 0.78 0.26 0 0.8 0.26 0 0.82 0.26 0 0.84 0.26 0 0.86 0.26 0 0.88 0.26 0 0.9 0.26 0 0.92 0.26 0 0.94 0.26 0 0.96 0.26 0 0.98 0.26 0 1 0.26 0 0 0.28 0 0.02 0.28 0 0.04 0.28 0 0.06 0.28 0 0.08 0.28 0 0.1 0.28 0 0.12 0.28 0 0.14 0.28 0 0.16 0.28 0 0.18 0.28 0 0.2 0.28 0 0.22 0.28 0 0.24 0.28 0 0.26 0.28 0 0.28 0.28 0 0.3 0.28 0 0.32 0.28 0 0.34 0.28 0 0.36 0.28 0 0.38 0.28 0 0.4 0.28 0 0.42 0.28 0 0.44 0.28 0 0.46 0.28 0 0.48 0.28 0 0.5 0.28 0 0.52 0.28 0 0.54 0.28 0 0.56 0.28 0 0.58 0.28 0 0.6 0.28 0 0.62 0.28 0 0.64 0.28 0 0.66 0.28 0 0.68 0.28 0 0.7 0.28 0 0.72 0.28 0 0.74 0.28 0 0.76 0.28 0 0.78 0.28 0 0.8 0.28 0 0.82 0.28 0 0.84 0.28 0 0.86 0.28 0 0.88 0.28 0 0.9 0.28 0 0.92 0.28 0 0.94 0.28 0 0.96 0.28 0 0.98 0.28 0 1 0.28 0 0 0.3 0 0.02 0.3 0 0.04 0.3 0 0.06 0.3 0 0.08 0.3 0 0.1 0.3 0 0.12 0.3 0 0.14 0.3 0 0.16 0.3 0 0.18 0.3 0 0.2 0.3 0 0.22 0.3 0 0.24 0.3 0 0.26 0.3 0 0.28 0.3 0 0.3 0.3 0 0.32 0.3 0 0.34 0.3 0 0.36 0.3 0 0.38 0.3 0 0.4 0.3 0 0.42 0.3 0 0.44 0.3 0 0.46 0.3 0 0.48 0.3 0 0.5 0.3 0 0.52 0.3 0 0.54 0.3 0 0.56 0.3 0 0.58 0.3 0 0.6 0.3 0 0.62 0.3 0 0.64 0.3 0 0.66 0.3 0 0.68 0.3 0 0.7 0.3 0 0.72 0.3 0 0.74 0.3 0 0.76 0.3 0 0.78 0.3 0 0.8 0.3 0 0.82 0.3 0 0.84 0.3 0 0.86 0.3 0 0.88 0.3 0 0.9 0.3 0 0.92 0.3 0 0.94 0.3 0 0.96 0.3 0 0.98 0.3 0 1 0.3 0 0 0.32 0 0.02 0.32 0 0.04 0.32 0 0.06 0.32 0 0.08 0.32 0 0.1 0.32 0 0.12 0.32 0 0.14 0.32 0 0.16 0.32 0 0.18 0.32 0 0.2 0.32 0 0.22 0.32 0 0.24 0.32 0 0.26 0.32 0 0.28 0.32 0 0.3 0.32 0 0.32 0.32 0 0.34 0.32 0 0.36 0.32 0 0.38 0.32 0 0.4 0.32 0 0.42 0.32 0 0.44 0.32 0 0.46 0.32 0 0.48 0.32 0 0.5 0.32 0 0.52 0.32 0 0.54 0.32 0 0.56 0.32 0 0.58 0.32 0 0.6 0.32 0 0.62 0.32 0 0.64 0.32 0 0.66 0.32 0 0.68 0.32 0 0.7 0.32 0 0.72 0.32 0 0.74 0.32 0 0.76 0.32 0 0.78 0.32 0 0.8 0.32 0 0.82 0.32 0 0.84 0.32 0 0.86 0.32 0 0.88 0.32 0 0.9 0.32 0 0.92 0.32 0 0.94 0.
[...]
			<PointData Scalars="VitesseX">
				<DataArray Name="VitesseX" type="Float32" format="ascii">
 0 0 0 0 0 0 0 0 0 0 0 0 0 0 0 0 0 0 0 0 0 0 0 0 0 0 0 0 0 0 0 0 0 0 0 0 0 0 0 0 0 0 0 0 0 0 0 0 0 0 0 0 0.000115346 0.000459544 0.00102719 0.00180929 0.0027935 0.00396429 0.00530319 0.00678909 0.00839857 0.0101062 0.0118852 0.0137074 0.0155441 0.0173663 0.0191455 0.0208535 0.0224634 0.0239498 0.0252893 0.0264607 0.0274457 0.0282286 0.0287971 0.029143 0.0292584 0.0291436 0.0288004 0.0282323 0.0274504 0.0264662 0.0252954 0.0239563 0.0224701 0.0208601 0.0191519 0.0173724 0.0155495 0.0137122 0.0118894 0.0101097 0.00840132 0.00679119 0.0053047 0.00396531 0.00279413 0.00180965 0.00102736 0.000459619 0.000115356 1.25154e-27 0 0.000228843 0.000911643 0.00203767 0.00358895 0.00554094 0.00786282 0.0105179 0.0134644 0.0166558 0.020042 0.0235695 0.0271829 0.030825 0.0344389 0.0379678 0.041356 0.0445503 0.0475003 0.0501595 0.052486 0.0544431 0.0559999 0.0571317 0.0578238 0.0580553 0.0578327 0.0571579 0.0560335 0.0544858 0.0525362 0.0502154 0.0475599 0.0446116 0.041417 0.0380267 0.0344941 0.0308751 0.0272271 0.0236074 0.0200733 0.0166807 0.0134832 0.0105314 0.00787184 0.00554648 0.00359196 0.00203905 0.000912148 0.000228911 2.48328e-27 0 0.000338706 0.0013492 0.00301561 0.00531112 0.0081994 0.0116347 0.0155629 0.019922 0.0246434 0.0296527 0.0348712 0.040217 0.0456055 0.0509524 0.0561743 0.0611888 0.0659169 0.0702844 0.0742225 0.077669 0.0805695 0.0828782 0.0845585 0.0855907 0.0859364 0.0856128 0.0846207 0.0829591 0.0806724 0.07779 0.0743572 0.070428 0.0660646 0.0613357 0.0563161 0.0510853 0.045726 0.0403235 0.0349626 0.0297281 0.0247031 0.0199672 0.0155953 0.0116564 0.00821269 0.00531834 0.00301889 0.00135039 0.000338864 3.6758e-27 0 0.000443203 0.00176532 0.00394558 0.00694866 0.010727 0.0152206 0.0203586 0.0260601 0.0322352 0.0387869 0.0456123 0.0526043 0.0596523 0.0666465 0.073478 0.080039 0.0862264 0.0919429 0.0970987 0.101613 0.105413 0.10844 0.110645 0.112006 0.112462 0.112046 0.110757 0.108586 0.105599 0.101831 0.097342 0.0922022 0.0864929 0.0803042 0.0737341 0.0668865 0.0598701 0.0527966 0.0457772 0.0389229 0.032343 0.0261417 0.0204171 0.0152597 0.0107509 0.00696165 0.00395147 0.00176744 0.000443485 4.8103e-27 0 0.000540688 0.00215345 0.00481293 0.00847576 0.0130838 0.0185639 0.0248295 0.0317819 0.0393116 0.0473006 0.0556233 0.0641495 0.0727441 0.0812737 0.089606 0.0976094 0.105158 0.112134 0.118428 0.123939 0.128582 0.132281 0.13498 0.136651 0.137213 0.136716 0.135153 0.132509 0.128872 0.12428 0.118807 0.112539 0.105575 0.0980236 0.0900059 0.0816485 0.0730841 0.0644497 0.0558808 0.0475129 0.0394799 0.0319092 0.0249207 0.0186249 0.0131211 0.00849598 0.00482208 0.00215672 0.000541123 5.8689e-27 0 0.000629627 0.00250748 0.00560399 0.00986835 0.0152327 0.0216118 0.028905 0.0369971 0.0457611 0.0550594 0.0647464 0.0746704 0.0846745 0.0946036 0.104304 0.113623 0.122414 0.13054 0.137873 0.144297 0.14971 0.154027 0.157179 0.159139 0.159801 0.159233 0.157424 0.154353 0.150124 0.144783 0.138415 0.131118 0.123008 0.114214 0.104875 0.0951385 0.0851599 0.075099 0.0651139 0.0553625 0.0460013 0.0371788 0.0290351 0.0216988 0.0152859 0.00989714 0.005617 0.00251209 0.000630239 6.83494e-27 0 0.000708619 0.00282184 0.00630631 0.0111045 0.0171398 0.0243165 0.0325208 0.0416237 0.051482 0.0619412 0.0728378 0.0840013 0.0952553 0.106426 0.117341 0.127828 0.137723 0.146871 0.155128 0.162364 0.168465 0.173334 0.176893 0.179114 0.179867 0.179243 0.17722 0.173771 0.169021 0.163018 0.155855 0.147646 0.13852 0.128621 0.118107 0.107144 0.0959069 0.0845766 0.0733309 0.0623479 0.0518042 0.0418674 0.0326953 0.0244331 0.0172111 0.011143 0.00632368 0.00282796 0.000709429 7.69321e-27 0 0.000776421 0.00309159 0.00690883 0.0121647 0.0187752 0.0266351 0.0356201 0.0455886 0.056384 0.0678374 0.0797698 0.091995 0.10432 0.116554 0.12851 0.139999 0.150841 0.160867 0.16992 0.177856 0.184551 0.189898 0.19381 0.196261 0.197097 0.196428 0.194227 0.190458 0.185264 0.178695 0.170853 0.161862 0.151864 0.141017 0.129493 0.117475 0.105156 0.092733 0.0804023 0.0683589 0.0567971 0.045901 0.0358437 0.0267845 0.0188664 0.012214 0.00693099 0.00309933 0.000777443 8.43018e-27 0 0.000831966 0.00331248 0.00740204 0.0130323 0.020113 0.0285313 0.0381539 0.0488293 0.0603899 0.072655 0.0854332 0.0985254 0.111725 0.124829 0.137636 0.149945 0.161564 0.17231 0.182017 0.190529 0.197714 0.203456 0.207664 0.210308 0.211219 0.210517 0.208178 0.20415 0.198597 0.191568 0.183173 0.173543 0.162831 0.151206 0.138853 0.125969 0.11276 0.0994396 0.0862164 0.0733007 0.0609014 0.0492161 0.0384306 0.028716 0.0202258 0.0130931 0.00742934 0.00332193 0.00083321 9.03428e-27 0 0.000874381 0.00348105 0.0077782 0.0136935 0.0211321 0.029975 0.0400823 0.0512948 0.0634366 0.0763181 0.0897386 0.10349 0.117354 0.131119 0.144575 0.157509 0.169721 0.181019 0.191227 0.200183 0.207747 0.213797 0.218235 0.221034 0.22201 0.221289 0.218851 0.214632 0.20881 0.201434 0.192619 0.182503 0.171247 0.159028 0.146041 0.132493 0.118601 0.104591 0.0906816 0.0770954 0.0640522 0.0517602 0.0404152 0.0301972 0.0212676 0.0137666 0.00781087 0.00349224 0.000875851 9.496e-27 0 0.000903043 0.00359499 0.00803255 0.0141408 0.0218215 0.0309519 0.0413873 0.0529634 0.0654987 0.0787976 0.0926531 0.10685 0.121164 0.135377 0.149272 0.162629 0.175241 0.186912 0.197458 0.206714 0.214533 0.220789 0.225382 0.228283 0.229299 0.228574 0.226079 0.221738 0.215742 0.208137 0.199043 0.188602 0.176979 0.164359 0.150942 0.136943 0.122586 0.108105 0.0937274 0.0796831 0.0661999 0.0534933 0.0417662 0.0312047 0.0219756 0.0142237 0.00806956 0.00360758 0.000904693 9.80808e-27 0 0.00091732 0.0036511 0.0081564 0.0143563 0.0221503 0.0314135 0.041999 0.05374 0.066453 0.0799399 0.0939917 0.108391 0.122912 0.137332 0.151434 0.164997 0.177809 0.189672 0.200401 0.209826 0.217798 0.224189 0.228896 0.231887 0.232972 0.232266 0.229772 0.225393 0.219329 0.211626 0.202404 0.191808 0.180004 0.167181 0.153542 0.139308 0.124706 0.109974 0.0953466 0.0810566 0.0673372 0.0544083 0.0424767 0.0317321 0.0223443 0.0144604 0.0082027 0.00366655 0.000919335 9.9656e-27 0 0.000917318 0.00365108 0.0081563 0.014356 0.0221497 0.0314124 0.0419971 0.0537371 0.0664488 0.0799344 0.0939848 0.108383 0.122902 0.137322 0.151424 0.164986 0.177799 0.189663 0.200393 0.209819 0.217793 0.224186 0.228895 0.231886 0.232972 0.232266 0.229773 0.225395 0.219331 0.21163 0.202409 0.191814 0.18001 0.167187 0.153549 0.139314 0.124711 0.109979 0.095351 0.0810601 0.0673398 0.0544102 0.0424779 0.0317328 0.0223447 0.0144606 0.00820277 0.00366656 0.000919336 9.96611e-27 0 0.000902687 0.00359218 0.00802325 0.0141194 0.0217812 0.0308853 0.0412871 0.0528229 0.0653125 0.0785621 0.0923669 0.106514 0.120784 0.134958 0.148823 0.162163 0.174772 0.186455 0.197027 0.206325 0.214199 0.220524 0.225196 0.228178 0.229298 0.228649 0.226262 0.222002 0.216081 0.208538 0.199491 0.189081 0.177473 0.164851 0.151417 0.137388 0.122992 0.108463 0.0940335 0.0799353 0.0663994 0.053644 0.0418736 0.031276 0.0220188 0.0142467 0.00807953 0.0036106 0.000905074 9.80958e-27 0 0.000873864 0.00347697 0.0077647 0.0136624 0.0210734 0.0298781 0.0399364 0.05109 0.063165 0.0759745 0.089321 0.103 0.116798 0.130507 0.143921 0.156831 0.169037 0.180352 0.190599 0.199617 0.207263 0.213412 0.217965 0.220882 0.222008 0.221395 0.219105 0.214998 0.20928 0.201991 0.193241 0.183169 0.171933 0.159712 0.146702 0.133113 0.119166 0.105089 0.0911075 0.0774462 0.0643296 0.0519695 0.0405644 0.0302963 0.0213275 0.0137984 0.00782466 0.0034964 0.000876376 9.4985e-27 0 0.000831252 0.00330684 0.00738337 0.0129892 0.0200319 0.0283972 0.0379521 0.0485461 0.0600144 0.0721799 0.0848557 0.0978483 0.110957 0.123983 0.136732 0.149007 0.160619 0.171389 0.18115 0.189747 0.197045 0.202926 0.207291 0.2101 0.211217 0.210664 0.208526 0.204653 0.199243 0.192332 0.184027 0.174457 0.163772 0.152145 0.139761 0.126821 0.113535 0.100123 0.0868007 0.073782 0.061282 0.0495032 0.0386353 0.028852 0.020308 0.0131367 0.00744826 0.00332764 0.000833931 9.03774e-27 0 0.000775519 0.00308447 0.00688527 0.0121104 0.0186729 0.026466 0.0353655 0.0452313 0.0559103 0.0672381 0.0790415 0.091141 0.103351 0.115488 0.12737 0.138816 0.14965 0.159706 0.168827 0.176871 0.183709 0.18923 0.193342 0.196 0.197095 0.196614 0.194666 0.19109 0.186076 0.179655 0.171927 0.16301 0.153047 0.142195 0.130632 0.118544 0.106128 0.0935913 0.0811355 0.0689628 0.0572748 0.0462614 0.0361006 0.0269551 0.0189696 0.0122687 0.00695473 0.0031065 0.000778348 8.43457e-27 0 0.000707544 0.00281336 0.00627823 0.0110398 0.0170179 0.024115 0.0322174 0.041198 0.0509175 0.0612271 0.07197 0.0829839 0.0941013 0.105155 0.115983 0.126419 0.136304 0.145488 0.153827 0.161191 0.167463 0.17254 0.176337 0.178807 0.179865 0.179468 0.177742 0.174523 0.169986 0.16416 0.157131 0.14901 0.139925 0.130021 0.11946 0.108413 0.097062 0.0855957 0.0742015 0.0630649 0.0523712 0.0422952 0.0330002 0.0246355 0.0173336 0.011208 0.00635187 0.00283647 0.000710503 7.69848e-27 0 0.000628396 0.00249776 0.00557183 0.00979422 0.0150931 0.0213811 0.0285575 0.0365096 0.0451148 0.0542417 0.0637528 0.0735056 0.0833533 0.0931492 0.10275 0.112011 0.120792 0.128958 0.136385 0.142956 0.148565 0.153121 0.156546 0.158792 0.159799 0.159497 0.158022 0.155215 0.151229 0.14609 0.139873 0.132677 0.124614 0.115814 0.10642 0.0965878 0.086479 0.0762627 0.0661079 0.0561811 0.0466486 0.0376672 0.0293832 0.02193 0.0154257 0.00997135 0.00564918 0.00252181 0.000631466 6.84104e-27 0 0.000539321 0.00214265 0.00477719 0.0083934 0.0129286 0.0183075 0.0244434 0.0312403 0.0385935 0.0463921 0.0545196 0.0628556 0.0712766 0.0796586 0.0878806 0.0958196 0.103357 0.110379 0.116777 0.122452 0.127313 0.131278 0.13428 0.136271 0.137212 0.137015 0.135817 0.133469 0.1301 0.125731 0.120426 0.114269 0.107355 0.0997974 0.0917195 0.0832554 0.0745465 0.0657397 0.0569825 0.0484202 0.0401974 0.0324505 0.0253065 0.0188811 0.0132761 0.00857824 0.00485775 0.00216749 0.000542483 5.87577e-27 0 0.00044172 0.00175361 0.00390683 0.00685937 0.0105588 0.0149426 0.0199401 0.0254729 0.0314567 0.0378021 0.0444159 0.0512019 0.0580618 0.0648962 0.0716085 0.0781 0.0842753 0.0900421 0.0953124 0.100004 0.104041 0.107356 0.109891 0.1116 0.112461 0.112378 0.111478 0.109628 0.106931 0.103404 0.0990968 0.0940761 0.0884215 0.082225 0.0755893 0.0686258 0.0614527 0.0541927 0.0469694 0.0399047 0.0331193 0.0267273 0.0208346 0.0155369 0.0109186 0.00705066 0.00399007 0.0017791 0.000444958 4.81784e-27 0 0.000337132 0.00133677 0.00297447 0.00521631 0.0080208 0.0113396 0.0151185 0.0192986 0.0238169 0.0286072 0.0336011 0.0387283 0.0439172 0.0490949 0.0541906 0.0591317 0.0638475 0.0682689 0.0723291 0.0759649 0.0791172 0.0817323 0.0837628 0.0851689 0.0859326 0.0859782 0.0853854 0.0840693 0.0820896 0.0794612 0.0762207 0.0724171 0.0681111 0.0633734 0.0582839 0.0529299 0.0474043 0.0418038 0.0362265 0.0307688 0.025526 0.020588 0.0160378 0.0119503 0.00839047 0.0054127 0.00305981 0.00136275 0.000340426 3.68392e-27 0 0.000227203 0.000898683 0.0019948 0.00349012 0.00535479 0.00755518 0.0100547 0.0128146 0.0157944 0.0189524 0.0222459 0.0256316 0.0290658 0.0325037 0.0359014 0.0392138 0.0423957 0.0454024 0.0481896 0.0507141 0.0529341 0.0548107 0.0563079 0.0573942 0.0580473 0.0582304 0.0579519 0.0571961 0.0559659 0.0542803 0.052159 0.0496336 0.0467444 0.0435401 0.0400764 0.0364152 0.0326227 0.0287684 0.0249232 0.0211567 0.0175373 0.0141294 0.010992 0.00817775 0.00573156 0.0036902 0.00208166 0.000925024 0.000230538 2.49187e-27 0 0.000113665 0.000446264 0.000983259 0.00170804 0.00260278 0.00364913 0.00482869 0.0061235 0.00751622 0.00899025 0.0105296 0.0121189 0.0137426 0.0153851 0.0170303 0.018661 0.0202588 0.0218039 0.0232752 0.02465 0.0259049 0.0270159 0.0279591 0.0287116 0.0292522 0.0295604 0.0296198 0.0294277 0.0289727 0.028258 0.027291 0.0260845 0.0246583 0.0230378 0.0212539 0.019342 0.0173411 0.0152922 0.0132379 0.01122 0.00927922 0.00745341 0.00577675 0.0042788 0.00298381 0.00191032 0.00107104 0.000472817 0.000117025 1.26048e-27 0 -1.67762e-06 -1.32626e-05 -4.38816e-05 -0.000101152 -0.000190554 -0.000314939 -0.000474221 -0.00066526 -0.000881945 -0.00111549 -0.00135492 -0.00158768 -0.00180039 -0.00197971 -0.00211308 -0.00218964 -0.00220089 -0.0021413 -0.00200872 -0.00180461 -0.00153407 -0.00120563 -0.000830855 -0.000423739 -3.55421e-09 0.000423743 0.000830869 0.00120566 0.0015341 0.00180464 0.00200875 0.00214132 0.00220091 0.00218965 0.00211308 0.0019797 0.0018004 0.00158768 0.00135492 0.0011155 0.000881947 0.000665261 0.000474221 0.000314938 0.000190554 0.000101153 4.38816e-05 1.32626e-05 1.67762e-06 9.13659e-30 0 -0.000117025 -0.000472817 -0.00107104 -0.00191032 -0.00298381 -0.0042788 -0.00577676 -0.00745341 -0.00927922 -0.01122 -0.0132379 -0.0152922 -0.0173411 -0.019342 -0.0212539 -0.0230378 -0.0246583 -0.0260845 -0.027291 -0.028258 -0.0289727 -0.0294277 -0.0296197 -0.0295604 -0.0292522 -0.0287116 -0.0279591 -0.0270158 -0.0259049 -0.02465 -0.0232751 -0.0218039 -0.0202588 -0.018661 -0.0170303 -0.0153851 -0.0137426 -0.0121189 -0.0105296 -0.00899025 -0.00751622 -0.0061235 -0.00482869 -0.00364913 -0.00260278 -0.00170804 -0.000983259 -0.000446264 -0.000113665 -1.24242e-27 0 -0.000230538 -0.000925024 -0.00208166 -0.0036902 -0.00573156 -0.00817775 -0.010992 -0.0141294 -0.0175373 -0.0211567 -0.0249232 -0.0287684 -0.0326227 -0.0364152 -0.0400765 -0.0435402 -0.0467444 -0.0496335 -0.052159 -0.0542803 -0.0559659 -0.057196 -0.0579519 -0.0582304 -0.0580473 -0.0573942 -0.0563079 -0.0548107 -0.0529341 -0.050714 -0.0481896 -0.0454024 -0.0423957 -0.0392138 -0.0359014 -0.0325037 -0.0290658 -0.0256316 -0.0222459 -0.0189524 -0.0157944 -0.0128146 -0.0100547 -0.00755518 -0.00535479 -0.00349012 -0.0019948 -0.000898683 -0.000227203 -2.47445e-27 0 -0.000340426 -0.00136275 -0.00305981 -0.00541269 -0.00839047 -0.0119503 -0.0160378 -0.020588 -0.025526 -0.0307688 -0.0362265 -0.0418038 -0.0474043 -0.0529299 -0.058284 -0.0633735 -0.0681111 -0.0724171 -0.0762207 -0.0794612 -0.0820896 -0.0840693 -0.0853853 -0.0859782 -0.0859326 -0.0851689 -0.0837628 -0.0817322 -0.0791172 -0.0759649 -0.0723291 -0.0682689 -0.0638475 -0.0591317 -0.0541906 -0.0490949 -0.0439172 -0.0387283 -0.0336011 -0.0286072 -0.0238169 -0.0192986 -0.0151185 -0.0113396 -0.0080208 -0.00521631 -0.00297447 -0.00133677 -0.000337132 -3.66752e-27 0 -0.000444958 -0.0017791 -0.00399007 -0.00705065 -0.0109186 -0.0155369 -0.0208346 -0.0267273 -0.0331193 -0.0399047 -0.0469694 -0.0541927 -0.0614527 -0.0686258 -0.0755893 -0.082225 -0.0884215 -0.0940761 -0.0990967 -0.103404 -0.106931 -0.109628 -0.111478 -0.112378 -0.112461 -0.1116 -0.109891 -0.107356 -0.104041 -0.100004 -0.0953124 -0.0900421 -0.0842753 -0.0781 -0.0716085 -0.0648962 -0.0580618 -0.0512019 -0.0444159 -0.0378021 -0.0314567 -0.0254729 -0.0199401 -0.0149426 -0.0105588 -0.00685937 -0.00390683 -0.00175361 -0.00044172 -4.80281e-27 0 -0.000542483 -0.00216749 -0.00485775 -0.00857824 -0.0132761 -0.0188811 -0.0253065 -0.0324505 -0.0401974 -0.0484202 -0.0569825 -0.0657397 -0.0745465 -0.0832554 -0.0917195 -0.0997975 -0.107355 -0.114269 -0.120426 -0.125731 -0.1301 -0.133469 -0.135817 -0.137015 -0.137212 -0.136271 -0.13428 -0.131278 -0.127313 -0.122452 -0.116777 -0.110379 -0.103357 -0.0958196 -0.0878806 -0.0796586 -0.0712766 -0.0628556 -0.0545196 -0.0463921 -0.0385935 -0.0312403 -0.0244434 -0.0183075 -0.0129286 -0.0083934 -0.00477719 -0.00214265 -0.000539321 -5.86238e-27 0 -0.000631466 -0.00252181 -0.00564918 -0.00997135 -0.0154257 -0.02193 -0.0293832 -0.0376672 -0.0466486 -0.0561811 -0.0661079 -0.0762627 -0.086479 -0.0965878 -0.10642 -0.115814 -0.124614 -0.132677 -0.139873 -0.14609 -0.151229 -0.155215 -0.158022 -0.159497 -0.159799 -0.158792 -0.156546 -0.153121 -0.148565 -0.142956 -0.136385 -0.128958 -0.120792 -0.112011 -0.10275 -0.0931492 -0.0833533 -0.0735056 -0.0637528 -0.0542417 -0.0451148 -0.0365096 -0.0285575 -0.0213811 -0.0150931 -0.00979422 -0.00557183 -0.00249776 -0.000628396 -6.82951e-27 0 -0.000710503 -0.00283647 -0.00635187 -0.011208 -0.0173336 -0.0246355 -0.0330002 -0.0422952 -0.0523712 -0.0630649 -0.0742015 -0.0855957 -0.0970619 -0.108413 -0.11946 -0.130021 -0.139925 -0.14901 -0.157131 -0.16416 -0.169986 -0.174523 -0.177742 -0.179468 -0.179865 -0.178807 -0.176337 -0.17254 -0.167463 -0.161191 -0.153827 -0.145488 -0.136304 -0.126419 -0.115983 -0.105155 -0.0941013 -0.0829839 -0.07197 -0.0612271 -0.0509175 -0.041198 -0.0322174 -0.024115 -0.0170179 -0.0110398 -0.00627823 -0.00281336 -0.000707544 -7.68892e-27 0 -0.000778348 -0.0031065 -0.00695473 -0.0122687 -0.0189696 -0.0269551 -0.0361006 -0.0462614 -0.0572748 -0.0689628 -0.0811355 -0.0935913 -0.106128 -0.118544 -0.130632 -0.142195 -0.153047 -0.16301 -0.171927 -0.179655 -0.186076 -0.19109 -0.194666 -0.196614 -0.197095 -0.196 -0.193342 -0.18923 -0.183709 -0.176871 -0.168827 -0.159706 -0.14965 -0.138816 -0.12737 -0.115488 -0.103351 -0.091141 -0.0790415 -0.0672381 -0.0559103 -0.0452313 -0.0353655 -0.026466 -0.0186729 -0.0121104 -0.00688527 -0.00308447 -0.000775519 -8.42702e-27 0 -0.000833931 -0.00332764 -0.00744826 -0.0131367 -0.020308 -0.028852 -0.0386353 -0.0495032 -0.061282 -0.073782 -0.0868007 -0.100123 -0.113535 -0.126821 -0.139761 -0.152145 -0.163772 -0.174457 -0.184027 -0.192332 -0.199243 -0.204653 -0.208526 -0.210664 -0.211217 -0.2101 -0.207291 -0.202926 -0.197045 -0.189747 -0.18115 -0.171389 -0.160619 -0.149007 -0.136732 -0.123983 -0.110957 -0.0978483 -0.0848557 -0.0721798 -0.0600144 -0.0485461 -0.0379521 -0.0283972 -0.0200319 -0.0129892 -0.00738337 -0.00330684 -0.000831252 -9.03216e-27 0 -0.000876376 -0.0034964 -0.00782466 -0.0137984 -0.0213275 -0.0302963 -0.0405644 -0.0519695 -0.0643296 -0.0774462 -0.0911075 -0.105089 -0.119166 -0.133113 -0.146702 -0.159712 -0.171933 -0.183169 -0.193241 -0.201991 -0.20928 -0.214998 -0.219105 -0.221395 -0.222008 -0.220882 -0.217965 -0.213412 -0.207263 -0.199617 -0.190599 -0.180352 -0.169037 -0.156831 -0.143921 -0.130507 -0.116798 -0.103 -0.089321 -0.0759745 -0.063165 -0.05109 -0.0399364 -0.0298781 -0.0210734 -0.0136624 -0.0077647 -0.00347697 -0.000873864 -9.49476e-27 0 -0.000905074 -0.0036106 -0.00807953 -0.0142467 -0.0220188 -0.031276 -0.0418736 -0.053644 -0.0663994 -0.0799353 -0.0940335 -0.108463 -0.122992 -0.137388 -0.151417 -0.164851 -0.177473 -0.189081 -0.199491 -0.208538 -0.216081 -0.222002 -0.226262 -0.228649 -0.229298 -0.228178 -0.225196 -0.220524 -0.214199 -0.206325 -0.197027 -0.186455 -0.174772 -0.162164 -0.148823 -0.134958 -0.120784 -0.106514 -0.0923669 -0.0785621 -0.0653125 -0.0528229 -0.0412871 -0.0308853 -0.0217812 -0.0141194 -0.00802325 -0.00359218 -0.000902687 -9.80751e-27 0 -0.000919336 -0.00366656 -0.00820277 -0.0144606 -0.0223447 -0.0317328 -0.0424779 -0.0544102 -0.0673398 -0.0810601 -0.095351 -0.109979 -0.124711 -0.139314 -0.153549 -0.167187 -0.18001 -0.191814 -0.202409 -0.21163 -0.219331 -0.225395 -0.229773 -0.232266 -0.232972 -0.231886 -0.228895 -0.224186 -0.217793 -0.209819 -0.200393 -0.189663 -0.177799 -0.164986 -0.151424 -0.137322 -0.122902 -0.108383 -0.0939848 -0.0799344 -0.0664488 -0.0537371 -0.0419971 -0.0314124 -0.0221497 -0.014356 -0.0081563 -0.00365108 -0.000917318 -9.96546e-27 0 -0.000919335 -0.00366655 -0.0082027 -0.0144604 -0.0223443 -0.0317321 -0.0424767 -0.0544083 -0.0673372 -0.0810566 -0.0953466 -0.109974 -0.124706 -0.139308 -0.153542 -0.167181 -0.180004 -0.191808 -0.202404 -0.211626 -0.219329 -0.225393 -0.229772 -0.232266 -0.232972 -0.231887 -0.228896 -0.224189 -0.217798 -0.209826 -0.200401 -0.189672 -0.177809 -0.164997 -0.151434 -0.137332 -0.122912 -0.108391 -0.0939917 -0.0799399 -0.066453 -0.05374 -0.041999 -0.0314135 -0.0221503 -0.0143563 -0.0081564 -0.0036511 -0.00091732 -9.96611e-27 0 -0.000904693 -0.00360758 -0.00806956 -0.0142237 -0.0219756 -0.0312046 -0.0417662 -0.0534933 -0.0661999 -0.0796831 -0.0937274 -0.108105 -0.122586 -0.136943 -0.150942 -0.164359 -0.176979 -0.188602 -0.199043 -0.208137 -0.215742 -0.221738 -0.226079 -0.228574 -0.229299 -0.228283 -0.225382 -0.220789 -0.214533 -0.206714 -0.197458 -0.186912 -0.175241 -0.162629 -0.149272 -0.135377 -0.121164 -0.10685 