<?xml version="1.0"?>
<VTKFile type="PolyData">
	<PolyData>
		<Piece NumberOfPoints="2601" NumberOfPolys="2500">
			<Points>
				<DataArray type="Float32" NumberOfComponents="3" format="ascii">
 0 0 0 0.02 0 0 0.04 0 0 0.06 0 0 0.08 0 0 0.1 0 0 0.12 0 0 0.14 0 0 0.16 0 0 0.18 0 0 0.2 0 0 0.22 0 0 0.24 0 0 0.26 0 0 0.28 0 0 0.3 0 0 0.32 0 0 0.34 0 0 0.36 0 0 0.38 0 0 0.4 0 0 0.42 0 0 0.44 0 0 0.46 0 0 0.48 0 0 0.5 0 0 0.52 0 0 0.54 0 0 0.56 0 0 0.58 0 0 0.6 0 0 0.62 0 0 0.64 0 0 0.66 0 0 0.68 0 0 0.7 0 0 0.72 0 0 0.74 0 0 0.76 0 0 0.78 0 0 0.8 0 0 0.82 0 0 0.84 0 0 0.86 0 0 0.88 0 0 0.9 0 0 0.92 0 0 0.94 0 0 0.96 0 0 0.98 0 0 1 0 0 0 0.02 0 0.02 0.02 0 0.04 0.02 0 0.06 0.02 0 0.08 0.02 0 0.1 0.02 0 0.12 0.02 0 0.14 0.02 0 0.16 0.02 0 0.18 0.02 0 0.2 0.02 0 0.22 0.02 0 0.24 0.02 0 0.26 0.02 0 0.28 0.02 0 0.3 0.02 0 0.32 0.02 0 0.34 0.02 0 0.36 0.02 0 0.38 0.02 0 0.4 0.02 0 0.42 0.02 0 0.44 0.02 0 0.46 0.02 0 0.48 0.02 0 0.5 0.02 0 0.52 0.02 0 0.54 0.02 0 0.56 0.02 0 0.58 0.02 0 0.6 0.02 0 0.62 0.02 0 0.64 0.02 0 0.66 0.02 0 0.68 0.02 0 0.7 0.02 0 0.72 0.02 0 0.74 0.02 0 0.76 0.02 0 0.78 0.02 0 0.8 0.02 0 0.82 0.02 0 0.84 0.02 0 0.86 0.02 0 0.88 0.02 0 0.9 0.02 0 0.92 0.02 0 0.94 0.02 0 0.96 0.02 0 0.98 0.02 0 1 0.02 0 0 0.04 0 0.02 0.04 0 0.04 0.04 0 0.06 0.04 0 0.08 0.04 0 0.1 0.04 0 0.12 0.04 0 0.14 0.04 0 0.16 0.04 0 0.18 0.04 0 0.2 0.04 0 0.22 0.04 0 0.24 0.04 0 0.26 0.04 0 0.28 0.04 0 0.3 0.04 0 0.32 0.04 0 0.34 0.04 0 0.36 0.04 0 0.38 0.04 0 0.4 0.04 0 0.42 0.04 0 0.44 0.04 0 0.46 0.04 0 0.48 0.04 0 0.5 0.04 0 0.52 0.04 0 0.54 0.04 0 0.56 0.04 0 0.58 0.04 0 0.6 0.04 0 0.62 0.04 0 0.64 0.04 0 0.66 0.04 0 0.68 0.04 0 0.7 0.04 0 0.72 0.04 0 0.74 0.04 0 0.76 0.04 0 0.78 0.04 0 0.8 0.04 0 0.82 0.04 0 0.84 0.04 0 0.86 0.04 0 0.88 0.04 0 0.9 0.04 0 0.92 0.04 0 0.94 0.04 0 0.96 0.04 0 0.98 0.04 0 1 0.04 0 0 0.06 0 0.02 0.06 0 0.04 0.06 0 0.06 0.06 0 0.08 0.06 0 0.1 0.06 0 0.12 0.06 0 0.14 0.06 0 0.16 0.06 0 0.18 0.06 0 0.2 0.06 0 0.22 0.06 0 0.24 0.06 0 0.26 0.06 0 0.28 0.06 0 0.3 0.06 0 0.32 0.06 0 0.34 0.06 0 0.36 0.06 0 0.38 0.06 0 0.4 0.06 0 0.42 0.06 0 0.44 0.06 0 0.46 0.06 0 0.48 0.06 0 0.5 0.06 0 0.52 0.06 0 0.54 0.06 0 0.56 0.06 0 0.58 0.06 0 0.6 0.06 0 0.62 0.06 0 0.64 0.06 0 0.66 0.06 0 0.68 0.06 0 0.7 0.06 0 0.72 0.06 0 0.74 0.06 0 0.76 0.06 0 0.78 0.06 0 0.8 0.06 0 0.82 0.06 0 0.84 0.06 0 0.86 0.06 0 0.88 0.06 0 0.9 0.06 0 0.92 0.06 0 0.94 0.06 0 0.96 0.06 0 0.98 0.06 0 1 0.06 0 0 0.08 0 0.02 0.08 0 0.04 0.08 0 0.06 0.08 0 0.08 0.08 0 0.1 0.08 0 0.12 0.08 0 0.14 0.08 0 0.16 0.08 0 0.18 0.08 0 0.2 0.08 0 0.22 0.08 0 0.24 0.08 0 0.26 0.08 0 0.28 0.08 0 0.3 0.08 0 0.32 0.08 0 0.34 0.08 0 0.36 0.08 0 0.38 0.08 0 0.4 0.08 0 0.42 0.08 0 0.44 0.08 0 0.46 0.08 0 0.48 0.08 0 0.5 0.08 0 0.52 0.08 0 0.54 0.08 0 0.56 0.08 0 0.58 0.08 0 0.6 0.08 0 0.62 0.08 0 0.64 0.08 0 0.66 0.08 0 0.68 0.08 0 0.7 0.08 0 0.72 0.08 0 0.74 0.08 0 0.76 0.08 0 0.78 0.08 0 0.8 0.08 0 0.82 0.08 0 0.84 0.08 0 0.86 0.08 0 0.88 0.08 0 0.9 0.08 0 0.92 0.08 0 0.94 0.08 0 0.96 0.08 0 0.98 0.08 0 1 0.08 0 0 0.1 0 0.02 0.1 0 0.04 0.1 0 0.06 0.1 0 0.08 0.1 0 0.1 0.1 0 0.12 0.1 0 0.14 0.1 0 0.16 0.1 0 0.18 0.1 0 0.2 0.1 0 0.22 0.1 0 0.24 0.1 0 0.26 0.1 0 0.28 0.1 0 0.3 0.1 0 0.32 0.1 0 0.34 0.1 0 0.36 0.1 0 0.38 0.1 0 0.4 0.1 0 0.42 0.1 0 0.44 0.1 0 0.46 0.1 0 0.48 0.1 0 0.5 0.1 0 0.52 0.1 0 0.54 0.1 0 0.56 0.1 0 0.58 0.1 0 0.6 0.1 0 0.62 0.1 0 0.64 0.1 0 0.66 0.1 0 0.68 0.1 0 0.7 0.1 0 0.72 0.1 0 0.74 0.1 0 0.76 0.1 0 0.78 0.1 0 0.8 0.1 0 0.82 0.1 0 0.84 0.1 0 0.86 0.1 0 0.88 0.1 0 0.9 0.1 0 0.92 0.1 0 0.94 0.1 0 0.96 0.1 0 0.98 0.1 0 1 0.1 0 0 0.12 0 0.02 0.12 0 0.04 0.12 0 0.06 0.12 0 0.08 0.12 0 0.1 0.12 0 0.12 0.12 0 0.14 0.12 0 0.16 0.12 0 0.18 0.12 0 0.2 0.12 0 0.22 0.12 0 0.24 0.12 0 0.26 0.12 0 0.28 0.12 0 0.3 0.12 0 0.32 0.12 0 0.34 0.12 0 0.36 0.12 0 0.38 0.12 0 0.4 0.12 0 0.42 0.12 0 0.44 0.12 0 0.46 0.12 0 0.48 0.12 0 0.5 0.12 0 0.52 0.12 0 0.54 0.12 0 0.56 0.12 0 0.58 0.12 0 0.6 0.12 0 0.62 0.12 0 0.64 0.12 0 0.66 0.12 0 0.68 0.12 0 0.7 0.12 0 0.72 0.12 0 0.74 0.12 0 0.76 0.12 0 0.78 0.12 0 0.8 0.12 0 0.82 0.12 0 0.84 0.12 0 0.86 0.12 0 0.88 0.12 0 0.9 0.12 0 0.92 0.12 0 0.94 0.12 0 0.96 0.12 0 0.98 0.12 0 1 0.12 0 0 0.14 0 0.02 0.14 0 0.04 0.14 0 0.06 0.14 0 0.08 0.14 0 0.1 0.14 0 0.12 0.14 0 0.14 0.14 0 0.16 0.14 0 0.18 0.14 0 0.2 0.14 0 0.22 0.14 0 0.24 0.14 0 0.26 0.14 0 0.28 0.14 0 0.3 0.14 0 0.32 0.14 0 0.34 0.14 0 0.36 0.14 0 0.38 0.14 0 0.4 0.14 0 0.42 0.14 0 0.44 0.14 0 0.46 0.14 0 0.48 0.14 0 0.5 0.14 0 0.52 0.14 0 0.54 0.14 0 0.56 0.14 0 0.58 0.14 0 0.6 0.14 0 0.62 0.14 0 0.64 0.14 0 0.66 0.14 0 0.68 0.14 0 0.7 0.14 0 0.72 0.14 0 0.74 0.14 0 0.76 0.14 0 0.78 0.14 0 0.8 0.14 0 0.82 0.14 0 0.84 0.14 0 0.86 0.14 0 0.88 0.14 0 0.9 0.14 0 0.92 0.14 0 0.94 0.14 0 0.96 0.14 0 0.98 0.14 0 1 0.14 0 0 0.16 0 0.02 0.16 0 0.04 0.16 0 0.06 0.16 0 0.08 0.16 0 0.1 0.16 0 0.12 0.16 0 0.14 0.16 0 0.16 0.16 0 0.18 0.16 0 0.2 0.16 0 0.22 0.16 0 0.24 0.16 0 0.26 0.16 0 0.28 0.16 0 0.3 0.16 0 0.32 0.16 0 0.34 0.16 0 0.36 0.16 0 0.38 0.16 0 0.4 0.16 0 0.42 0.16 0 0.44 0.16 0 0.46 0.16 0 0.48 0.16 0 0.5 0.16 0 0.52 0.16 0 0.54 0.16 0 0.56 0.16 0 0.58 0.16 0 0.6 0.16 0 0.62 0.16 0 0.64 0.16 0 0.66 0.16 0 0.68 0.16 0 0.7 0.16 0 0.72 0.16 0 0.74 0.16 0 0.76 0.16 0 0.78 0.16 0 0.8 0.16 0 0.82 0.16 0 0.84 0.16 0 0.86 0.16 0 0.88 0.16 0 0.9 0.16 0 0.92 0.16 0 0.94 0.16 0 0.96 0.16 0 0.98 0.16 0 1 0.16 0 0 0.18 0 0.02 0.18 0 0.04 0.18 0 0.06 0.18 0 0.08 0.18 0 0.1 0.18 0 0.12 0.18 0 0.14 0.18 0 0.16 0.18 0 0.18 0.18 0 0.2 0.18 0 0.22 0.18 0 0.24 0.18 0 0.26 0.18 0 0.28 0.18 0 0.3 0.18 0 0.32 0.18 0 0.34 0.18 0 0.36 0.18 0 0.38 0.18 0 0.4 0.18 0 0.42 0.18 0 0.44 0.18 0 0.46 0.18 0 0.48 0.18 0 0.5 0.18 0 0.52 0.18 0 0.54 0.18 0 0.56 0.18 0 0.58 0.18 0 0.6 0.18 0 0.62 0.18 0 0.64 0.18 0 0.66 0.18 0 0.68 0.18 0 0.7 0.18 0 0.72 0.18 0 0.74 0.18 0 0.76 0.18 0 0.78 0.18 0 0.8 0.18 0 0.82 0.18 0 0.84 0.18 0 0.86 0.18 0 0.88 0.18 0 0.9 0.18 0 0.92 0.18 0 0.94 0.18 0 0.96 0.18 0 0.98 0.18 0 1 0.18 0 0 0.2 0 0.02 0.2 0 0.04 0.2 0 0.06 0.2 0 0.08 0.2 0 0.1 0.2 0 0.12 0.2 0 0.14 0.2 0 0.16 0.2 0 0.18 0.2 0 0.2 0.2 0 0.22 0.2 0 0.24 0.2 0 0.26 0.2 0 0.28 0.2 0 0.3 0.2 0 0.32 0.2 0 0.34 0.2 0 0.36 0.2 0 0.38 0.2 0 0.4 0.2 0 0.42 0.2 0 0.44 0.2 0 0.46 0.2 0 0.48 0.2 0 0.5 0.2 0 0.52 0.2 0 0.54 0.2 0 0.56 0.2 0 0.58 0.2 0 0.6 0.2 0 0.62 0.2 0 0.64 0.2 0 0.66 0.2 0 0.68 0.2 0 0.7 0.2 0 0.72 0.2 0 0.74 0.2 0 0.76 0.2 0 0.78 0.2 0 0.8 0.2 0 0.82 0.2 0 0.84 0.2 0 0.86 0.2 0 0.88 0.2 0 0.9 0.2 0 0.92 0.2 0 0.94 0.2 0 0.96 0.2 0 0.98 0.2 0 1 0.2 0 0 0.22 0 0.02 0.22 0 0.04 0.22 0 0.06 0.22 0 0.08 0.22 0 0.1 0.22 0 0.12 0.22 0 0.14 0.22 0 0.16 0.22 0 0.18 0.22 0 0.2 0.22 0 0.22 0.22 0 0.24 0.22 0 0.26 0.22 0 0.28 0.22 0 0.3 0.22 0 0.32 0.22 0 0.34 0.22 0 0.36 0.22 0 0.38 0.22 0 0.4 0.22 0 0.42 0.22 0 0.44 0.22 0 0.46 0.22 0 0.48 0.22 0 0.5 0.22 0 0.52 0.22 0 0.54 0.22 0 0.56 0.22 0 0.58 0.22 0 0.6 0.22 0 0.62 0.22 0 0.64 0.22 0 0.66 0.22 0 0.68 0.22 0 0.7 0.22 0 0.72 0.22 0 0.74 0.22 0 0.76 0.22 0 0.78 0.22 0 0.8 0.22 0 0.82 0.22 0 0.84 0.22 0 0.86 0.22 0 0.88 0.22 0 0.9 0.22 0 0.92 0.22 0 0.94 0.22 0 0.96 0.22 0 0.98 0.22 0 1 0.22 0 0 0.24 0 0.02 0.24 0 0.04 0.24 0 0.06 0.24 0 0.08 0.24 0 0.1 0.24 0 0.12 0.24 0 0.14 0.24 0 0.16 0.24 0 0.18 0.24 0 0.2 0.24 0 0.22 0.24 0 0.24 0.24 0 0.26 0.24 0 0.28 0.24 0 0.3 0.24 0 0.32 0.24 0 0.34 0.24 0 0.36 0.24 0 0.38 0.24 0 0.4 0.24 0 0.42 0.24 0 0.44 0.24 0 0.46 0.24 0 0.48 0.24 0 0.5 0.24 0 0.52 0.24 0 0.54 0.24 0 0.56 0.24 0 0.58 0.24 0 0.6 0.24 0 0.62 0.24 0 0.64 0.24 0 0.66 0.24 0 0.68 0.24 0 0.7 0.24 0 0.72 0.24 0 0.74 0.24 0 0.76 0.24 0 0.78 0.24 0 0.8 0.24 0 0.82 0.24 0 0.84 0.24 0 0.86 0.24 0 0.88 0.24 0 0.9 0.24 0 0.92 0.24 0 0.94 0.24 0 0.96 0.24 0 0.98 0.24 0 1 0.24 0 0 0.26 0 0.02 0.26 0 0.04 0.26 0 0.06 0.26 0 0.08 0.26 0 0.1 0.26 0 0.12 0.26 0 0.14 0.26 0 0.16 0.26 0 0.18 0.26 0 0.2 0.26 0 0.22 0.26 0 0.24 0.26 0 0.26 0.26 0 0.28 0.26 0 0.3 0.26 0 0.32 0.26 0 0.34 0.26 0 0.36 0.26 0 0.38 0.26 0 0.4 0.26 0 0.42 0.26 0 0.44 0.26 0 0.46 0.26 0 0.48 0.26 0 0.5 0.26 0 0.52 0.26 0 0.54 0.26 0 0.56 0.26 0 0.58 0.26 0 0.6 0.26 0 0.62 0.26 0 0.64 0.26 0 0.66 0.26 0 0.68 0.26 0 0.7 0.26 0 0.72 0.26 0 0.74 0.26 0 0.76 0.26 0 0.78 0.26 0 0.8 0.26 0 0.82 0.26 0 0.84 0.26 0 0.86 0.26 0 0.88 0.26 0 0.9 0.26 0 0.92 0.26 0 0.94 0.26 0 0.96 0.26 0 0.98 0.26 0 1 0.26 0 0 0.28 0 0.02 0.28 0 0.04 0.28 0 0.06 0.28 0 0.08 0.28 0 0.1 0.28 0 0.12 0.28 0 0.14 0.28 0 0.16 0.28 0 0.18 0.28 0 0.2 0.28 0 0.22 0.28 0 0.24 0.28 0 0.26 0.28 0 0.28 0.28 0 0.3 0.28 0 0.32 0.28 0 0.34 0.28 0 0.36 0.28 0 0.38 0.28 0 0.4 0.28 0 0.42 0.28 0 0.44 0.28 0 0.46 0.28 0 0.48 0.28 0 0.5 0.28 0 0.52 0.28 0 0.54 0.28 0 0.56 0.28 0 0.58 0.28 0 0.6 0.28 0 0.62 0.28 0 0.64 0.28 0 0.66 0.28 0 0.68 0.28 0 0.7 0.28 0 0.72 0.28 0 0.74 0.28 0 0.76 0.28 0 0.78 0.28 0 0.8 0.28 0 0.82 0.28 0 0.84 0.28 0 0.86 0.28 0 0.88 0.28 0 0.9 0.28 0 0.92 0.28 0 0.94 0.28 0 0.96 0.28 0 0.98 0.28 0 1 0.28 0 0 0.3 0 0.02 0.3 0 0.04 0.3 0 0.06 0.3 0 0.08 0.3 0 0.1 0.3 0 0.12 0.3 0 0.14 0.3 0 0.16 0.3 0 0.18 0.3 0 0.2 0.3 0 0.22 0.3 0 0.24 0.3 0 0.26 0.3 0 0.28 0.3 0 0.3 0.3 0 0.32 0.3 0 0.34 0.3 0 0.36 0.3 0 0.38 0.3 0 0.4 0.3 0 0.42 0.3 0 0.44 0.3 0 0.46 0.3 0 0.48 0.3 0 0.5 0.3 0 0.52 0.3 0 0.54 0.3 0 0.56 0.3 0 0.58 0.3 0 0.6 0.3 0 0.62 0.3 0 0.64 0.3 0 0.66 0.3 0 0.68 0.3 0 0.7 0.3 0 0.72 0.3 0 0.74 0.3 0 0.76 0.3 0 0.78 0.3 0 0.8 0.3 0 0.82 0.3 0 0.84 0.3 0 0.86 0.3 0 0.88 0.3 0 0.9 0.3 0 0.92 0.3 0 0.94 0.3 0 0.96 0.3 0 0.98 0.3 0 1 0.3 0 0 0.32 0 0.02 0.32 0 0.04 0.32 0 0.06 0.32 0 0.08 0.32 0 0.1 0.32 0 0.12 0.32 0 0.14 0.32 0 0.16 0.32 0 0.18 0.32 0 0.2 0.32 0 0.22 0.32 0 0.24 0.32 0 0.26 0.32 0 0.28 0.32 0 0.3 0.32 0 0.32 0.32 0 0.34 0.32 0 0.36 0.32 0 0.38 0.32 0 0.4 0.32 0 0.42 0.32 0 0.44 0.32 0 0.46 0.32 0 0.48 0.32 0 0.5 0.32 0 0.52 0.32 0 0.54 0.32 0 0.56 0.32 0 0.58 0.32 0 0.6 0.32 0 0.62 0.32 0 0.64 0.32 0 0.66 0.32 0 0.68 0.32 0 0.7 0.32 0 0.72 0.32 0 0.74 0.32 0 0.76 0.32 0 0.78 0.32 0 0.8 0.32 0 0.82 0.32 0 0.84 0.32 0 0.86 0.32 0 0.88 0.32 0 0.9 0.32 0 0.92 0.32 0 0.94 0.
[...]
			<PointData Scalars="VitesseX">
				<DataArray Name="VitesseX" type="Float32" format="ascii">
 0 0 0 0 0 0 0 0 0 0 0 0 0 0 0 0 0 0 0 0 0 0 0 0 0 0 0 0 0 0 0 0 0 0 0 0 0 0 0 0 0 0 0 0 0 0 0 0 0 0 0 0 0.000137848 0.000549188 0.00122757 0.00216223 0.00333841 0.00473757 0.00633762 0.00811334 0.0100367 0.0120775 0.0142034 0.016381 0.0185759 0.0207536 0.0228798 0.024921 0.0268449 0.0286214 0.0302223 0.0316224 0.0327997 0.0337355 0.0344151 0.0348289 0.0349668 0.0348297 0.0344198 0.0337408 0.0328064 0.0316303 0.030231 0.0286307 0.0268545 0.0249305 0.022889 0.0207622 0.0185837 0.0163879 0.0142094 0.0120824 0.0100407 0.00811633 0.00633978 0.00473903 0.00333932 0.00216274 0.00122781 0.000549295 0.000137863 1.49571e-27 0 0.000273479 0.00108943 0.00243505 0.00428879 0.00662133 0.0093958 0.0125684 0.0160891 0.0199025 0.0239485 0.0281635 0.0324811 0.0368332 0.0411514 0.0453684 0.0494175 0.0532349 0.0567606 0.0599391 0.0627202 0.06506 0.0669216 0.0682755 0.0691047 0.069382 0.0691174 0.0683128 0.0669696 0.065121 0.0627919 0.0600189 0.0568457 0.0533224 0.0495046 0.0454525 0.0412303 0.0369046 0.0325442 0.0282177 0.0239933 0.019938 0.016116 0.0125877 0.00940869 0.00662923 0.00429309 0.00243702 0.00109015 0.000273576 2.96776e-27 0 0.000404761 0.00161226 0.00360354 0.00634645 0.00979753 0.0139021 0.0185955 0.0238035 0.0294444 0.0354292 0.041664 0.048051 0.054489 0.0608776 0.0671173 0.0731094 0.07876 0.0839801 0.0886875 0.092808 0.0962766 0.0990384 0.101049 0.102288 0.102702 0.10232 0.101138 0.0991539 0.0964235 0.0929808 0.0888798 0.0841852 0.0789709 0.0733193 0.0673199 0.0610675 0.0546612 0.0482031 0.0417946 0.0355369 0.0295297 0.0238681 0.0186418 0.0139331 0.00981651 0.00635676 0.00360823 0.00161396 0.000404988 4.39291e-27 0 0.000529626 0.00210943 0.00471462 0.00830278 0.0128169 0.0181856 0.0243238 0.0311349 0.0385118 0.0463385 0.0544922 0.0628451 0.0712651 0.079621 0.0877835 0.0956234 0.103018 0.109851 0.116014 0.121411 0.125957 0.129579 0.13222 0.133855 0.134403 0.133913 0.132379 0.129788 0.126222 0.121723 0.116361 0.110221 0.103399 0.0960023 0.0881493 0.0799639 0.071576 0.0631197 0.0547278 0.0465328 0.0386658 0.0312515 0.0244073 0.0182414 0.0128511 0.00832133 0.00472303 0.00211246 0.000530029 5.74871e-27 0 0.000646107 0.00257312 0.00575079 0.0101269 0.015632 0.0221785 0.0296631 0.0379677 0.0469618 0.0565043 0.0664457 0.0766302 0.0868969 0.0970863 0.107041 0.116604 0.125626 0.133964 0.141488 0.14808 0.153634 0.158063 0.161296 0.163307 0.163983 0.1634 0.161542 0.158388 0.154048 0.148567 0.142031 0.134542 0.12622 0.117196 0.107612 0.0976216 0.0873824 0.077059 0.0668134 0.0568076 0.0472022 0.0381496 0.0297933 0.0222656 0.0156853 0.0101558 0.00576386 0.0025778 0.000646727 7.0138e-27 0 0.00075237 0.00299604 0.00669571 0.0117902 0.0181983 0.0258181 0.0345292 0.0441942 0.0546613 0.0657665 0.077336 0.089189 0.101138 0.112998 0.124587 0.135722 0.146228 0.155941 0.164708 0.172392 0.17887 0.18404 0.187818 0.190179 0.190976 0.190315 0.188168 0.184504 0.179461 0.173087 0.165482 0.156766 0.147076 0.136566 0.125402 0.113762 0.101831 0.0898011 0.0778608 0.0661993 0.0550043 0.0444537 0.034715 0.0259423 0.0182743 0.0118313 0.00671429 0.00300263 0.000753244 8.16826e-27 0 0.000846743 0.00337153 0.00753452 0.0132663 0.0204754 0.0290469 0.0388453 0.0497162 0.0614888 0.073979 0.0869915 0.100323 0.113764 0.127106 0.140144 0.152674 0.164499 0.175434 0.185308 0.193964 0.201267 0.2071 0.211369 0.214048 0.214957 0.214232 0.211835 0.207724 0.202061 0.194898 0.186346 0.176542 0.165637 0.153807 0.141238 0.128131 0.114694 0.101145 0.0876958 0.0745598 0.061949 0.0500643 0.0390945 0.0292135 0.0205772 0.0133214 0.00755933 0.00338027 0.000847899 9.19394e-27 0 0.000927741 0.00369369 0.008254 0.0145321 0.0224275 0.0318142 0.0425436 0.0544467 0.0673368 0.0810123 0.09526 0.109858 0.124575 0.139186 0.153467 0.167194 0.180151 0.192136 0.202962 0.212457 0.220473 0.22688 0.231576 0.234535 0.235548 0.234775 0.23217 0.22768 0.22149 0.213655 0.204294 0.193557 0.181611 0.168647 0.154871 0.140502 0.125769 0.110912 0.0961633 0.0817571 0.0679268 0.054893 0.042863 0.0320275 0.0225578 0.0146025 0.00828565 0.00370475 0.000929201 1.00747e-26 0 0.000994091 0.00395746 0.00884282 0.0155676 0.0240237 0.0340761 0.0455656 0.0583111 0.0721129 0.0867555 0.102011 0.117642 0.133402 0.14905 0.164347 0.179052 0.192936 0.205783 0.217392 0.227579 0.236184 0.243068 0.248121 0.251318 0.252424 0.251618 0.248853 0.244059 0.237444 0.229062 0.219043 0.207544 0.194746 0.180853 0.166085 0.150679 0.134881 0.118948 0.10313 0.0876778 0.0728434 0.0588635 0.0459608 0.0343401 0.0241848 0.0156545 0.00888181 0.00397095 0.000995868 1.07966e-26 0 0.00104475 0.00415869 0.00929172 0.0163564 0.025239 0.0357972 0.0478637 0.0612485 0.0757419 0.091118 0.107138 0.123553 0.140105 0.15654 0.17261 0.188061 0.202654 0.216161 0.228371 0.239091 0.248152 0.255408 0.260743 0.26413 0.265319 0.264497 0.26162 0.256601 0.24967 0.240877 0.230359 0.218281 0.204834 0.19023 0.174704 0.158502 0.141886 0.125126 0.108485 0.0922284 0.0766213 0.0619133 0.0483392 0.0361146 0.0254326 0.0164607 0.00933838 0.00417467 0.00104685 1.13484e-26 0 0.00107898 0.00429473 0.0095953 0.0168901 0.0260613 0.036962 0.0494192 0.0632369 0.0781988 0.0940717 0.110609 0.127555 0.144643 0.161612 0.178205 0.194161 0.209233 0.223186 0.235801 0.246881 0.256248 0.263754 0.269276 0.27279 0.27403 0.273206 0.27027 0.26511 0.257975 0.248913 0.238065 0.2256 0.211716 0.196633 0.180591 0.163849 0.146674 0.129348 0.112144 0.0953371 0.0792007 0.0639942 0.0499606 0.0373231 0.0262814 0.0170085 0.00964818 0.00431271 0.00108134 1.17215e-26 0 0.001096 0.00436141 0.00974213 0.0171449 0.0264492 0.0375055 0.050138 0.0641479 0.0793165 0.0954083 0.112174 0.129356 0.146685 0.163898 0.180735 0.196934 0.212244 0.226428 0.239263 0.25055 0.260108 0.267783 0.273452 0.277082 0.278419 0.277624 0.274701 0.269502 0.262293 0.25312 0.242124 0.229477 0.215378 0.200052 0.183744 0.166717 0.149246 0.131616 0.114109 0.0970025 0.0805789 0.065102 0.05082 0.0379603 0.0267262 0.0172937 0.00980825 0.00438347 0.00109888 1.19098e-26 0 0.001096 0.00436137 0.00974197 0.0171444 0.0264482 0.0375035 0.0501347 0.064143 0.0793096 0.0953991 0.112163 0.129343 0.14667 0.163881 0.180718 0.196917 0.212227 0.226413 0.239251 0.25054 0.2601 0.267778 0.273449 0.277081 0.278419 0.277624 0.274702 0.269505 0.262298 0.253126 0.242132 0.229486 0.215388 0.200062 0.183755 0.166728 0.149256 0.131625 0.114116 0.0970083 0.0805833 0.0651051 0.050822 0.0379615 0.0267269 0.017294 0.00980836 0.0043835 0.00109888 1.19105e-26 0 0.00107848 0.00429072 0.00958204 0.0168595 0.0260038 0.036867 0.0492763 0.0630365 0.0779332 0.0937357 0.110201 0.127077 0.1441 0.161013 0.177565 0.193497 0.208563 0.222532 0.235185 0.246323 0.25577 0.263374 0.269008 0.272636 0.274028 0.273309 0.27053 0.265484 0.258457 0.249484 0.238703 0.226282 0.212419 0.197333 0.181268 0.164484 0.147253 0.129859 0.112581 0.0956967 0.0794853 0.0642091 0.0501139 0.037425 0.0263431 0.0170413 0.00966241 0.00431701 0.00108188 1.17236e-26 0 0.00104401 0.00415286 0.00927245 0.016312 0.0251553 0.0356588 0.0476553 0.060956 0.075354 0.0906272 0.106541 0.122853 0.139311 0.155666 0.171676 0.187091 0.201677 0.215207 0.227473 0.23828 0.247457 0.254856 0.260354 0.263908 0.265316 0.26464 0.26198 0.25712 0.250338 0.241669 0.231246 0.21923 0.205812 0.191206 0.175647 0.159388 0.142693 0.125838 0.109093 0.0927295 0.0770176 0.0622123 0.0485524 0.0362561 0.0255182 0.0165062 0.00935809 0.00418062 0.0010476 1.1352e-26 0 0.00099307 0.0039494 0.00881616 0.0155061 0.0239079 0.0338847 0.0452773 0.0579066 0.0715766 0.0860769 0.101186 0.116675 0.132305 0.147841 0.163055 0.177711 0.191585 0.204465 0.216151 0.226458 0.235224 0.242305 0.247584 0.251013 0.25242 0.251818 0.249348 0.244772 0.238362 0.23015 0.22026 0.208846 0.196089 0.182192 0.16738 0.151894 0.135988 0.119925 0.103964 0.0883653 0.0733872 0.0592738 0.0462532 0.0345342 0.0243023 0.0157168 0.00890883 0.00397911 0.000996897 1.08016e-26 0 0.000926453 0.00368353 0.00822035 0.0144546 0.0222814 0.0315727 0.04218 0.0539365 0.0666603 0.0801564 0.0942197 0.108638 0.123192 0.137662 0.151839 0.165503 0.178447 0.190474 0.201398 0.211046 0.219265 0.225921 0.230902 0.234154 0.235544 0.23503 0.232793 0.228577 0.222645 0.215022 0.205824 0.195193 0.183298 0.170329 0.156497 0.142027 0.127159 0.112138 0.0972108 0.08262 0.0686092 0.0554078 0.0432299 0.0322712 0.0227052 0.0146807 0.00831957 0.00371499 0.000930493 1.00809e-26 0 0.000845208 0.00335942 0.00749442 0.0131739 0.0203013 0.0287592 0.0384121 0.0491083 0.0606828 0.0729592 0.0857522 0.0988703 0.112115 0.125291 0.138204 0.150661 0.162471 0.173456 0.183446 0.192285 0.199831 0.20596 0.210569 0.213599 0.214953 0.214542 0.212577 0.208793 0.203434 0.196524 0.188165 0.178486 0.167642 0.155805 0.14317 0.129943 0.116344 0.102601 0.0889395 0.0755841 0.0627591 0.0506755 0.0395302 0.0295028 0.0207522 0.0134142 0.00759959 0.00339243 0.000849433 9.20147e-27 0 0.000750612 0.00298217 0.00664979 0.0116843 0.0179989 0.0254886 0.034033 0.0434981 0.0537384 0.0645988 0.0759171 0.0875254 0.0992509 0.110921 0.122367 0.133418 0.143908 0.153679 0.16258 0.170472 0.177229 0.182739 0.186907 0.189673 0.190972 0.190678 0.189017 0.18573 0.181034 0.174948 0.167562 0.158989 0.149367 0.138849 0.127608 0.115832 0.103715 0.0914633 0.0792808 0.0673689 0.0559292 0.0451514 0.0352123 0.0262726 0.018474 0.0119373 0.00676026 0.00301652 0.000754996 8.17698e-27 0 0.000644154 0.00255771 0.00569976 0.0100093 0.0154105 0.0218124 0.0291119 0.0371944 0.0459365 0.0552072 0.0648695 0.0747824 0.084801 0.0947794 0.104576 0.114047 0.123051 0.131454 0.139128 0.145952 0.151816 0.156624 0.16029 0.162754 0.16398 0.163815 0.162488 0.159752 0.155797 0.150634 0.144339 0.13701 0.128761 0.119728 0.110059 0.0999162 0.0894709 0.0789016 0.0683873 0.0581038 0.0482272 0.0389229 0.0303446 0.0226317 0.0159067 0.0102733 0.00581482 0.00259319 0.00064867 7.0236e-27 0 0.000527509 0.00209271 0.0046593 0.00817527 0.0125768 0.0177887 0.0237262 0.0302966 0.0374002 0.0449323 0.0527838 0.0608424 0.0689936 0.0771213 0.085113 0.0928533 0.10023 0.107134 0.11346 0.11911 0.123993 0.128026 0.131137 0.133267 0.1344 0.134377 0.133406 0.131271 0.128121 0.123966 0.118864 0.112895 0.106151 0.0987442 0.0907981 0.0824477 0.0738364 0.0651138 0.0564307 0.0479352 0.0397748 0.0320881 0.0250037 0.0186374 0.0130907 0.00844847 0.00477817 0.00212911 0.000532132 5.75947e-27 0 0.000402513 0.0015945 0.0035448 0.00621106 0.00954251 0.0134807 0.0179609 0.0229134 0.0282642 0.0339364 0.0398504 0.0459252 0.052078 0.0582248 0.0642839 0.070171 0.0758034 0.0810998 0.0859811 0.0903713 0.0941989 0.0973977 0.0999086 0.101681 0.10269 0.102841 0.102222 0.100737 0.0984439 0.0953645 0.0915387 0.0870239 0.0818922 0.0762286 0.0701296 0.0637016 0.057058 0.0503173 0.0435999 0.0370235 0.0307052 0.0247549 0.0192739 0.0143529 0.0100705 0.00649154 0.00366668 0.00163162 0.000407219 4.4045e-27 0 0.000271136 0.00107093 0.00237382 0.00414766 0.0063555 0.0089565 0.011907 0.0151613 0.0186725 0.0223927 0.0262735 0.030266 0.0343209 0.0383879 0.0424172 0.0463576 0.0501571 0.0537635 0.0571243 0.0601876 0.0629025 0.0652205 0.0670959 0.0684879 0.0693656 0.0696852 0.0694407 0.0686286 0.0672323 0.0652805 0.0627929 0.0598059 0.0563675 0.0525361 0.0483796 0.0439738 0.0394006 0.0347457 0.0300972 0.0255408 0.0211617 0.0170391 0.0132457 0.00984566 0.0068936 0.00443341 0.00249788 0.00110854 0.0002759 2.98003e-27 0 0.000135448 0.000530224 0.00116483 0.00201764 0.00306608 0.00428754 0.00566007 0.00716294 0.00877684 0.010484 0.0122678 0.0141127 0.0160035 0.0179245 0.0198593 0.02179 0.0236965 0.0255566 0.0273454 0.0290356 0.0305981 0.0320022 0.0332167 0.034211 0.0349561 0.0354225 0.0355899 0.035445 0.0349799 0.0341881 0.0330802 0.0316695 0.0299792 0.0280402 0.0258908 0.0235752 0.0211424 0.0186445 0.0161355 0.0136683 0.0112946 0.0090622 0.00701403 0.0051868 0.00361024 0.00230654 0.00129019 0.000568145 0.000140246 1.50848e-27 0 -2.39609e-06 -1.89426e-05 -6.26748e-05 -0.000144473 -0.000272162 -0.000449817 -0.000677314 -0.000950165 -0.00125965 -0.00159321 -0.00193516 -0.00226759 -0.00257138 -0.00282746 -0.00301794 -0.00312727 -0.0031433 -0.00305817 -0.0028688 -0.00257728 -0.00219089 -0.00172182 -0.00118658 -0.000605158 -4.06795e-09 0.000605165 0.0011866 0.00172186 0.00219094 0.00257732 0.00286884 0.0030582 0.00314332 0.00312726 0.00301793 0.00282746 0.00257139 0.00226759 0.00193517 0.00159321 0.00125965 0.000950166 0.000677313 0.000449816 0.000272162 0.000144473 6.26748e-05 1.89426e-05 2.39609e-06 1.30495e-29 0 -0.000140246 -0.000568145 -0.00129019 -0.00230654 -0.00361024 -0.0051868 -0.00701403 -0.0090622 -0.0112946 -0.0136683 -0.0161355 -0.0186445 -0.0211424 -0.0235752 -0.0258908 -0.0280403 -0.0299792 -0.0316695 -0.0330801 -0.034188 -0.0349799 -0.035445 -0.0355898 -0.0354225 -0.0349561 -0.034211 -0.0332167 -0.0320021 -0.0305981 -0.0290356 -0.0273453 -0.0255566 -0.0236965 -0.02179 -0.0198593 -0.0179245 -0.0160035 -0.0141127 -0.0122678 -0.010484 -0.00877684 -0.00716294 -0.00566007 -0.00428754 -0.00306608 -0.00201764 -0.00116483 -0.000530224 -0.000135448 -1.48269e-27 0 -0.0002759 -0.00110854 -0.00249788 -0.00443341 -0.0068936 -0.00984566 -0.0132457 -0.0170391 -0.0211617 -0.0255408 -0.0300972 -0.0347457 -0.0394006 -0.0439738 -0.0483796 -0.0525361 -0.0563675 -0.0598059 -0.0627928 -0.0652805 -0.0672322 -0.0686286 -0.0694407 -0.0696852 -0.0693656 -0.0684879 -0.0670959 -0.0652204 -0.0629025 -0.0601876 -0.0571243 -0.0537634 -0.0501571 -0.0463576 -0.0424172 -0.0383879 -0.0343209 -0.030266 -0.0262734 -0.0223927 -0.0186725 -0.0151613 -0.011907 -0.0089565 -0.0063555 -0.00414766 -0.00237382 -0.00107093 -0.000271136 -2.95514e-27 0 -0.000407219 -0.00163162 -0.00366668 -0.00649154 -0.0100705 -0.0143529 -0.0192739 -0.0247549 -0.0307052 -0.0370235 -0.0435999 -0.0503173 -0.0570581 -0.0637017 -0.0701297 -0.0762286 -0.0818923 -0.087024 -0.0915387 -0.0953645 -0.0984438 -0.100737 -0.102221 -0.102841 -0.10269 -0.101681 -0.0999085 -0.0973976 -0.0941989 -0.0903713 -0.0859811 -0.0810998 -0.0758034 -0.0701709 -0.0642839 -0.0582248 -0.052078 -0.0459252 -0.0398504 -0.0339364 -0.0282642 -0.0229134 -0.0179609 -0.0134807 -0.00954251 -0.00621106 -0.0035448 -0.0015945 -0.000402513 -4.38108e-27 0 -0.000532132 -0.00212911 -0.00477817 -0.00844847 -0.0130907 -0.0186374 -0.0250037 -0.0320881 -0.0397748 -0.0479352 -0.0564307 -0.0651138 -0.0738364 -0.0824477 -0.0907981 -0.0987443 -0.106151 -0.112895 -0.118864 -0.123966 -0.128121 -0.131271 -0.133406 -0.134377 -0.1344 -0.133267 -0.131137 -0.128026 -0.123993 -0.11911 -0.11346 -0.107134 -0.10023 -0.0928533 -0.085113 -0.0771213 -0.0689936 -0.0608424 -0.0527838 -0.0449323 -0.0374002 -0.0302966 -0.0237262 -0.0177887 -0.0125768 -0.00817527 -0.0046593 -0.00209271 -0.000527509 -5.738e-27 0 -0.00064867 -0.00259319 -0.00581482 -0.0102733 -0.0159067 -0.0226317 -0.0303446 -0.0389229 -0.0482272 -0.0581038 -0.0683873 -0.0789016 -0.089471 -0.0999162 -0.110059 -0.119728 -0.128761 -0.13701 -0.144339 -0.150634 -0.155797 -0.159752 -0.162488 -0.163815 -0.16398 -0.162754 -0.16029 -0.156624 -0.151816 -0.145952 -0.139128 -0.131454 -0.123051 -0.114047 -0.104576 -0.0947794 -0.084801 -0.0747824 -0.0648695 -0.0552072 -0.0459365 -0.0371944 -0.0291119 -0.0218124 -0.0154105 -0.0100093 -0.00569976 -0.00255771 -0.000644154 -7.00448e-27 0 -0.000754996 -0.00301652 -0.00676026 -0.0119373 -0.018474 -0.0262726 -0.0352123 -0.0451514 -0.0559292 -0.0673689 -0.0792808 -0.0914633 -0.103715 -0.115832 -0.127608 -0.138849 -0.149367 -0.158989 -0.167562 -0.174948 -0.181034 -0.18573 -0.189017 -0.190678 -0.190972 -0.189673 -0.186907 -0.182739 -0.177229 -0.170472 -0.16258 -0.153679 -0.143908 -0.133418 -0.122367 -0.110921 -0.0992509 -0.0875254 -0.0759171 -0.0645988 -0.0537384 -0.0434981 -0.034033 -0.0254886 -0.0179989 -0.0116843 -0.00664979 -0.00298217 -0.000750612 -8.16051e-27 0 -0.000849433 -0.00339243 -0.00759959 -0.0134142 -0.0207522 -0.0295028 -0.0395302 -0.0506755 -0.0627591 -0.0755841 -0.0889395 -0.102601 -0.116344 -0.129943 -0.14317 -0.155805 -0.167642 -0.178486 -0.188165 -0.196524 -0.203434 -0.208793 -0.212577 -0.214542 -0.214953 -0.213599 -0.210569 -0.20596 -0.199831 -0.192285 -0.183446 -0.173456 -0.162471 -0.150661 -0.138204 -0.125291 -0.112115 -0.0988703 -0.0857522 -0.0729592 -0.0606828 -0.0491083 -0.0384121 -0.0287592 -0.0203013 -0.0131739 -0.00749442 -0.00335942 -0.000845208 -9.18781e-27 0 -0.000930493 -0.00371499 -0.00831957 -0.0146807 -0.0227052 -0.0322712 -0.0432299 -0.0554078 -0.0686092 -0.08262 -0.0972108 -0.112138 -0.127159 -0.142027 -0.156497 -0.170329 -0.183298 -0.195193 -0.205824 -0.215022 -0.222645 -0.228577 -0.232793 -0.23503 -0.235544 -0.234154 -0.230902 -0.225921 -0.219265 -0.211046 -0.201398 -0.190474 -0.178447 -0.165503 -0.151839 -0.137662 -0.123192 -0.108638 -0.0942197 -0.0801564 -0.0666603 -0.0539365 -0.04218 -0.0315727 -0.0222814 -0.0144546 -0.00822035 -0.00368353 -0.000926453 -1.00702e-26 0 -0.000996897 -0.00397911 -0.00890883 -0.0157168 -0.0243023 -0.0345342 -0.0462532 -0.0592738 -0.0733872 -0.0883653 -0.103964 -0.119925 -0.135988 -0.151894 -0.16738 -0.182192 -0.196089 -0.208846 -0.22026 -0.23015 -0.238362 -0.244772 -0.249348 -0.251818 -0.25242 -0.251013 -0.247584 -0.242305 -0.235224 -0.226458 -0.216151 -0.204465 -0.191585 -0.177711 -0.163055 -0.147841 -0.132305 -0.116675 -0.101186 -0.0860768 -0.0715766 -0.0579066 -0.0452773 -0.0338847 -0.0239079 -0.0155061 -0.00881616 -0.0039494 -0.00099307 -1.07936e-26 0 -0.0010476 -0.00418062 -0.00935809 -0.0165062 -0.0255182 -0.0362561 -0.0485524 -0.0622123 -0.0770176 -0.0927295 -0.109093 -0.125838 -0.142693 -0.159388 -0.175647 -0.191206 -0.205812 -0.21923 -0.231246 -0.241669 -0.250338 -0.25712 -0.26198 -0.26464 -0.265316 -0.263908 -0.260354 -0.254856 -0.247457 -0.23828 -0.227473 -0.215207 -0.201677 -0.187091 -0.171676 -0.155666 -0.139311 -0.122853 -0.106541 -0.0906272 -0.075354 -0.060956 -0.0476553 -0.0356588 -0.0251553 -0.016312 -0.00927245 -0.00415286 -0.00104401 -1.13467e-26 0 -0.00108188 -0.00431701 -0.00966241 -0.0170413 -0.0263431 -0.037425 -0.0501139 -0.0642091 -0.0794853 -0.0956967 -0.112581 -0.129859 -0.147253 -0.164484 -0.181268 -0.197333 -0.212419 -0.226282 -0.238703 -0.249484 -0.258457 -0.265484 -0.27053 -0.273309 -0.274028 -0.272636 -0.269008 -0.263374 -0.25577 -0.246323 -0.235185 -0.222532 -0.208563 -0.193497 -0.177565 -0.161013 -0.1441 -0.127077 -0.110201 -0.0937357 -0.0779331 -0.0630365 -0.0492763 -0.036867 -0.0260038 -0.0168595 -0.00958204 -0.00429072 -0.00107848 -1.17206e-26 0 -0.00109888 -0.0043835 -0.00980836 -0.017294 -0.0267269 -0.0379615 -0.050822 -0.0651051 -0.0805833 -0.0970083 -0.114116 -0.131625 -0.149256 -0.166728 -0.183755 -0.200062 -0.215388 -0.229486 -0.242132 -0.253126 -0.262298 -0.269505 -0.274702 -0.277624 -0.278419 -0.277081 -0.273449 -0.267778 -0.2601 -0.25054 -0.239251 -0.226413 -0.212228 -0.196917 -0.180718 -0.163881 -0.14667 -0.129343 -0.112163 -0.0953991 -0.0793096 -0.064143 -0.0501347 -0.0375035 -0.0264482 -0.0171444 -0.00974197 -0.00436137 -0.001096 -1.19096e-26 0 -0.00109888 -0.00438347 -0.00980825 -0.0172937 -0.0267262 -0.0379603 -0.05082 -0.065102 -0.0805789 -0.0970025 -0.114109 -0.131616 -0.149246 -0.166717 -0.183744 -0.200052 -0.215378 -0.229477 -0.242124 -0.25312 -0.262293 -0.269502 -0.274701 -0.277624 -0.278419 -0.277082 -0.273452 -0.267783 -0.260108 -0.25055 -0.239263 -0.226428 -0.212244 -0.196934 -0.180735 -0.163898 -0.146685 -0.129356 -0.112174 -0.0954083 -0.0793165 -0.0641479 -0.050138 -0.0375055 -0.0264492 -0.0171449 -0.00974213 -0.00436141 -0.001096 -1.19105e-26 0 -0.00108134 -0.00431271 -0.00964818 -0.0170085 -0.0262814 -0.0373231 -0.0499606 -0.0639942 -0.0792007 -0.0953371 -0.112144 -0.129348 -0.146674 -0.163849 -0.180591 -0.196633 -0.211716 -0.2256 -0.238065 -0.248913 -0.257975 -0.26511 -0.27027 -0.273206 -0.27403 -0.27279 -0.269276 -0.263754 -0.256248 -0.246881 -0.235801 -0.223186 -0.209233 -0.194161 -0.178205 -0.161612 -0.144643 -0.127555 -0.110609 -0.0940717 -0.0781988 -0.0632369 -0.0494192 -0.036962 -0.0260613 -0.0168901 -0.0095953 -0.00429473 -0.00107898 -1.17234e-26 0 -0.00104685 -