<?xml version="1.0"?>
<VTKFile type="PolyData">
	<PolyData>
		<Piece NumberOfPoints="2601" NumberOfPolys="2500">
			<Points>
				<DataArray type="Float32" NumberOfComponents="3" format="ascii">
 0 0 0 0.02 0 0 0.04 0 0 0.06 0 0 0.08 0 0 0.1 0 0 0.12 0 0 0.14 0 0 0.16 0 0 0.18 0 0 0.2 0 0 0.22 0 0 0.24 0 0 0.26 0 0 0.28 0 0 0.3 0 0 0.32 0 0 0.34 0 0 0.36 0 0 0.38 0 0 0.4 0 0 0.42 0 0 0.44 0 0 0.46 0 0 0.48 0 0 0.5 0 0 0.52 0 0 0.54 0 0 0.56 0 0 0.58 0 0 0.6 0 0 0.62 0 0 0.64 0 0 0.66 0 0 0.68 0 0 0.7 0 0 0.72 0 0 0.74 0 0 0.76 0 0 0.78 0 0 0.8 0 0 0.82 0 0 0.84 0 0 0.86 0 0 0.88 0 0 0.9 0 0 0.92 0 0 0.94 0 0 0.96 0 0 0.98 0 0 1 0 0 0 0.02 0 0.02 0.02 0 0.04 0.02 0 0.06 0.02 0 0.08 0.02 0 0.1 0.02 0 0.12 0.02 0 0.14 0.02 0 0.16 0.02 0 0.18 0.02 0 0.2 0.02 0 0.22 0.02 0 0.24 0.02 0 0.26 0.02 0 0.28 0.02 0 0.3 0.02 0 0.32 0.02 0 0.34 0.02 0 0.36 0.02 0 0.38 0.02 0 0.4 0.02 0 0.42 0.02 0 0.44 0.02 0 0.46 0.02 0 0.48 0.02 0 0.5 0.02 0 0.52 0.02 0 0.54 0.02 0 0.56 0.02 0 0.58 0.02 0 0.6 0.02 0 0.62 0.02 0 0.64 0.02 0 0.66 0.02 0 0.68 0.02 0 0.7 0.02 0 0.72 0.02 0 0.74 0.02 0 0.76 0.02 0 0.78 0.02 0 0.8 0.02 0 0.82 0.02 0 0.84 0.02 0 0.86 0.02 0 0.88 0.02 0 0.9 0.02 0 0.92 0.02 0 0.94 0.02 0 0.96 0.02 0 0.98 0.02 0 1 0.02 0 0 0.04 0 0.02 0.04 0 0.04 0.04 0 0.06 0.04 0 0.08 0.04 0 0.1 0.04 0 0.12 0.04 0 0.14 0.04 0 0.16 0.04 0 0.18 0.04 0 0.2 0.04 0 0.22 0.04 0 0.24 0.04 0 0.26 0.04 0 0.28 0.04 0 0.3 0.04 0 0.32 0.04 0 0.34 0.04 0 0.36 0.04 0 0.38 0.04 0 0.4 0.04 0 0.42 0.04 0 0.44 0.04 0 0.46 0.04 0 0.48 0.04 0 0.5 0.04 0 0.52 0.04 0 0.54 0.04 0 0.56 0.04 0 0.58 0.04 0 0.6 0.04 0 0.62 0.04 0 0.64 0.04 0 0.66 0.04 0 0.68 0.04 0 0.7 0.04 0 0.72 0.04 0 0.74 0.04 0 0.76 0.04 0 0.78 0.04 0 0.8 0.04 0 0.82 0.04 0 0.84 0.04 0 0.86 0.04 0 0.88 0.04 0 0.9 0.04 0 0.92 0.04 0 0.94 0.04 0 0.96 0.04 0 0.98 0.04 0 1 0.04 0 0 0.06 0 0.02 0.06 0 0.04 0.06 0 0.06 0.06 0 0.08 0.06 0 0.1 0.06 0 0.12 0.06 0 0.14 0.06 0 0.16 0.06 0 0.18 0.06 0 0.2 0.06 0 0.22 0.06 0 0.24 0.06 0 0.26 0.06 0 0.28 0.06 0 0.3 0.06 0 0.32 0.06 0 0.34 0.06 0 0.36 0.06 0 0.38 0.06 0 0.4 0.06 0 0.42 0.06 0 0.44 0.06 0 0.46 0.06 0 0.48 0.06 0 0.5 0.06 0 0.52 0.06 0 0.54 0.06 0 0.56 0.06 0 0.58 0.06 0 0.6 0.06 0 0.62 0.06 0 0.64 0.06 0 0.66 0.06 0 0.68 0.06 0 0.7 0.06 0 0.72 0.06 0 0.74 0.06 0 0.76 0.06 0 0.78 0.06 0 0.8 0.06 0 0.82 0.06 0 0.84 0.06 0 0.86 0.06 0 0.88 0.06 0 0.9 0.06 0 0.92 0.06 0 0.94 0.06 0 0.96 0.06 0 0.98 0.06 0 1 0.06 0 0 0.08 0 0.02 0.08 0 0.04 0.08 0 0.06 0.08 0 0.08 0.08 0 0.1 0.08 0 0.12 0.08 0 0.14 0.08 0 0.16 0.08 0 0.18 0.08 0 0.2 0.08 0 0.22 0.08 0 0.24 0.08 0 0.26 0.08 0 0.28 0.08 0 0.3 0.08 0 0.32 0.08 0 0.34 0.08 0 0.36 0.08 0 0.38 0.08 0 0.4 0.08 0 0.42 0.08 0 0.44 0.08 0 0.46 0.08 0 0.48 0.08 0 0.5 0.08 0 0.52 0.08 0 0.54 0.08 0 0.56 0.08 0 0.58 0.08 0 0.6 0.08 0 0.62 0.08 0 0.64 0.08 0 0.66 0.08 0 0.68 0.08 0 0.7 0.08 0 0.72 0.08 0 0.74 0.08 0 0.76 0.08 0 0.78 0.08 0 0.8 0.08 0 0.82 0.08 0 0.84 0.08 0 0.86 0.08 0 0.88 0.08 0 0.9 0.08 0 0.92 0.08 0 0.94 0.08 0 0.96 0.08 0 0.98 0.08 0 1 0.08 0 0 0.1 0 0.02 0.1 0 0.04 0.1 0 0.06 0.1 0 0.08 0.1 0 0.1 0.1 0 0.12 0.1 0 0.14 0.1 0 0.16 0.1 0 0.18 0.1 0 0.2 0.1 0 0.22 0.1 0 0.24 0.1 0 0.26 0.1 0 0.28 0.1 0 0.3 0.1 0 0.32 0.1 0 0.34 0.1 0 0.36 0.1 0 0.38 0.1 0 0.4 0.1 0 0.42 0.1 0 0.44 0.1 0 0.46 0.1 0 0.48 0.1 0 0.5 0.1 0 0.52 0.1 0 0.54 0.1 0 0.56 0.1 0 0.58 0.1 0 0.6 0.1 0 0.62 0.1 0 0.64 0.1 0 0.66 0.1 0 0.68 0.1 0 0.7 0.1 0 0.72 0.1 0 0.74 0.1 0 0.76 0.1 0 0.78 0.1 0 0.8 0.1 0 0.82 0.1 0 0.84 0.1 0 0.86 0.1 0 0.88 0.1 0 0.9 0.1 0 0.92 0.1 0 0.94 0.1 0 0.96 0.1 0 0.98 0.1 0 1 0.1 0 0 0.12 0 0.02 0.12 0 0.04 0.12 0 0.06 0.12 0 0.08 0.12 0 0.1 0.12 0 0.12 0.12 0 0.14 0.12 0 0.16 0.12 0 0.18 0.12 0 0.2 0.12 0 0.22 0.12 0 0.24 0.12 0 0.26 0.12 0 0.28 0.12 0 0.3 0.12 0 0.32 0.12 0 0.34 0.12 0 0.36 0.12 0 0.38 0.12 0 0.4 0.12 0 0.42 0.12 0 0.44 0.12 0 0.46 0.12 0 0.48 0.12 0 0.5 0.12 0 0.52 0.12 0 0.54 0.12 0 0.56 0.12 0 0.58 0.12 0 0.6 0.12 0 0.62 0.12 0 0.64 0.12 0 0.66 0.12 0 0.68 0.12 0 0.7 0.12 0 0.72 0.12 0 0.74 0.12 0 0.76 0.12 0 0.78 0.12 0 0.8 0.12 0 0.82 0.12 0 0.84 0.12 0 0.86 0.12 0 0.88 0.12 0 0.9 0.12 0 0.92 0.12 0 0.94 0.12 0 0.96 0.12 0 0.98 0.12 0 1 0.12 0 0 0.14 0 0.02 0.14 0 0.04 0.14 0 0.06 0.14 0 0.08 0.14 0 0.1 0.14 0 0.12 0.14 0 0.14 0.14 0 0.16 0.14 0 0.18 0.14 0 0.2 0.14 0 0.22 0.14 0 0.24 0.14 0 0.26 0.14 0 0.28 0.14 0 0.3 0.14 0 0.32 0.14 0 0.34 0.14 0 0.36 0.14 0 0.38 0.14 0 0.4 0.14 0 0.42 0.14 0 0.44 0.14 0 0.46 0.14 0 0.48 0.14 0 0.5 0.14 0 0.52 0.14 0 0.54 0.14 0 0.56 0.14 0 0.58 0.14 0 0.6 0.14 0 0.62 0.14 0 0.64 0.14 0 0.66 0.14 0 0.68 0.14 0 0.7 0.14 0 0.72 0.14 0 0.74 0.14 0 0.76 0.14 0 0.78 0.14 0 0.8 0.14 0 0.82 0.14 0 0.84 0.14 0 0.86 0.14 0 0.88 0.14 0 0.9 0.14 0 0.92 0.14 0 0.94 0.14 0 0.96 0.14 0 0.98 0.14 0 1 0.14 0 0 0.16 0 0.02 0.16 0 0.04 0.16 0 0.06 0.16 0 0.08 0.16 0 0.1 0.16 0 0.12 0.16 0 0.14 0.16 0 0.16 0.16 0 0.18 0.16 0 0.2 0.16 0 0.22 0.16 0 0.24 0.16 0 0.26 0.16 0 0.28 0.16 0 0.3 0.16 0 0.32 0.16 0 0.34 0.16 0 0.36 0.16 0 0.38 0.16 0 0.4 0.16 0 0.42 0.16 0 0.44 0.16 0 0.46 0.16 0 0.48 0.16 0 0.5 0.16 0 0.52 0.16 0 0.54 0.16 0 0.56 0.16 0 0.58 0.16 0 0.6 0.16 0 0.62 0.16 0 0.64 0.16 0 0.66 0.16 0 0.68 0.16 0 0.7 0.16 0 0.72 0.16 0 0.74 0.16 0 0.76 0.16 0 0.78 0.16 0 0.8 0.16 0 0.82 0.16 0 0.84 0.16 0 0.86 0.16 0 0.88 0.16 0 0.9 0.16 0 0.92 0.16 0 0.94 0.16 0 0.96 0.16 0 0.98 0.16 0 1 0.16 0 0 0.18 0 0.02 0.18 0 0.04 0.18 0 0.06 0.18 0 0.08 0.18 0 0.1 0.18 0 0.12 0.18 0 0.14 0.18 0 0.16 0.18 0 0.18 0.18 0 0.2 0.18 0 0.22 0.18 0 0.24 0.18 0 0.26 0.18 0 0.28 0.18 0 0.3 0.18 0 0.32 0.18 0 0.34 0.18 0 0.36 0.18 0 0.38 0.18 0 0.4 0.18 0 0.42 0.18 0 0.44 0.18 0 0.46 0.18 0 0.48 0.18 0 0.5 0.18 0 0.52 0.18 0 0.54 0.18 0 0.56 0.18 0 0.58 0.18 0 0.6 0.18 0 0.62 0.18 0 0.64 0.18 0 0.66 0.18 0 0.68 0.18 0 0.7 0.18 0 0.72 0.18 0 0.74 0.18 0 0.76 0.18 0 0.78 0.18 0 0.8 0.18 0 0.82 0.18 0 0.84 0.18 0 0.86 0.18 0 0.88 0.18 0 0.9 0.18 0 0.92 0.18 0 0.94 0.18 0 0.96 0.18 0 0.98 0.18 0 1 0.18 0 0 0.2 0 0.02 0.2 0 0.04 0.2 0 0.06 0.2 0 0.08 0.2 0 0.1 0.2 0 0.12 0.2 0 0.14 0.2 0 0.16 0.2 0 0.18 0.2 0 0.2 0.2 0 0.22 0.2 0 0.24 0.2 0 0.26 0.2 0 0.28 0.2 0 0.3 0.2 0 0.32 0.2 0 0.34 0.2 0 0.36 0.2 0 0.38 0.2 0 0.4 0.2 0 0.42 0.2 0 0.44 0.2 0 0.46 0.2 0 0.48 0.2 0 0.5 0.2 0 0.52 0.2 0 0.54 0.2 0 0.56 0.2 0 0.58 0.2 0 0.6 0.2 0 0.62 0.2 0 0.64 0.2 0 0.66 0.2 0 0.68 0.2 0 0.7 0.2 0 0.72 0.2 0 0.74 0.2 0 0.76 0.2 0 0.78 0.2 0 0.8 0.2 0 0.82 0.2 0 0.84 0.2 0 0.86 0.2 0 0.88 0.2 0 0.9 0.2 0 0.92 0.2 0 0.94 0.2 0 0.96 0.2 0 0.98 0.2 0 1 0.2 0 0 0.22 0 0.02 0.22 0 0.04 0.22 0 0.06 0.22 0 0.08 0.22 0 0.1 0.22 0 0.12 0.22 0 0.14 0.22 0 0.16 0.22 0 0.18 0.22 0 0.2 0.22 0 0.22 0.22 0 0.24 0.22 0 0.26 0.22 0 0.28 0.22 0 0.3 0.22 0 0.32 0.22 0 0.34 0.22 0 0.36 0.22 0 0.38 0.22 0 0.4 0.22 0 0.42 0.22 0 0.44 0.22 0 0.46 0.22 0 0.48 0.22 0 0.5 0.22 0 0.52 0.22 0 0.54 0.22 0 0.56 0.22 0 0.58 0.22 0 0.6 0.22 0 0.62 0.22 0 0.64 0.22 0 0.66 0.22 0 0.68 0.22 0 0.7 0.22 0 0.72 0.22 0 0.74 0.22 0 0.76 0.22 0 0.78 0.22 0 0.8 0.22 0 0.82 0.22 0 0.84 0.22 0 0.86 0.22 0 0.88 0.22 0 0.9 0.22 0 0.92 0.22 0 0.94 0.22 0 0.96 0.22 0 0.98 0.22 0 1 0.22 0 0 0.24 0 0.02 0.24 0 0.04 0.24 0 0.06 0.24 0 0.08 0.24 0 0.1 0.24 0 0.12 0.24 0 0.14 0.24 0 0.16 0.24 0 0.18 0.24 0 0.2 0.24 0 0.22 0.24 0 0.24 0.24 0 0.26 0.24 0 0.28 0.24 0 0.3 0.24 0 0.32 0.24 0 0.34 0.24 0 0.36 0.24 0 0.38 0.24 0 0.4 0.24 0 0.42 0.24 0 0.44 0.24 0 0.46 0.24 0 0.48 0.24 0 0.5 0.24 0 0.52 0.24 0 0.54 0.24 0 0.56 0.24 0 0.58 0.24 0 0.6 0.24 0 0.62 0.24 0 0.64 0.24 0 0.66 0.24 0 0.68 0.24 0 0.7 0.24 0 0.72 0.24 0 0.74 0.24 0 0.76 0.24 0 0.78 0.24 0 0.8 0.24 0 0.82 0.24 0 0.84 0.24 0 0.86 0.24 0 0.88 0.24 0 0.9 0.24 0 0.92 0.24 0 0.94 0.24 0 0.96 0.24 0 0.98 0.24 0 1 0.24 0 0 0.26 0 0.02 0.26 0 0.04 0.26 0 0.06 0.26 0 0.08 0.26 0 0.1 0.26 0 0.12 0.26 0 0.14 0.26 0 0.16 0.26 0 0.18 0.26 0 0.2 0.26 0 0.22 0.26 0 0.24 0.26 0 0.26 0.26 0 0.28 0.26 0 0.3 0.26 0 0.32 0.26 0 0.34 0.26 0 0.36 0.26 0 0.38 0.26 0 0.4 0.26 0 0.42 0.26 0 0.44 0.26 0 0.46 0.26 0 0.48 0.26 0 0.5 0.26 0 0.52 0.26 0 0.54 0.26 0 0.56 0.26 0 0.58 0.26 0 0.6 0.26 0 0.62 0.26 0 0.64 0.26 0 0.66 0.26 0 0.68 0.26 0 0.7 0.26 0 0.72 0.26 0 0.74 0.26 0 0.76 0.26 0 0.78 0.26 0 0.8 0.26 0 0.82 0.26 0 0.84 0.26 0 0.86 0.26 0 0.88 0.26 0 0.9 0.26 0 0.92 0.26 0 0.94 0.26 0 0.96 0.26 0 0.98 0.26 0 1 0.26 0 0 0.28 0 0.02 0.28 0 0.04 0.28 0 0.06 0.28 0 0.08 0.28 0 0.1 0.28 0 0.12 0.28 0 0.14 0.28 0 0.16 0.28 0 0.18 0.28 0 0.2 0.28 0 0.22 0.28 0 0.24 0.28 0 0.26 0.28 0 0.28 0.28 0 0.3 0.28 0 0.32 0.28 0 0.34 0.28 0 0.36 0.28 0 0.38 0.28 0 0.4 0.28 0 0.42 0.28 0 0.44 0.28 0 0.46 0.28 0 0.48 0.28 0 0.5 0.28 0 0.52 0.28 0 0.54 0.28 0 0.56 0.28 0 0.58 0.28 0 0.6 0.28 0 0.62 0.28 0 0.64 0.28 0 0.66 0.28 0 0.68 0.28 0 0.7 0.28 0 0.72 0.28 0 0.74 0.28 0 0.76 0.28 0 0.78 0.28 0 0.8 0.28 0 0.82 0.28 0 0.84 0.28 0 0.86 0.28 0 0.88 0.28 0 0.9 0.28 0 0.92 0.28 0 0.94 0.28 0 0.96 0.28 0 0.98 0.28 0 1 0.28 0 0 0.3 0 0.02 0.3 0 0.04 0.3 0 0.06 0.3 0 0.08 0.3 0 0.1 0.3 0 0.12 0.3 0 0.14 0.3 0 0.16 0.3 0 0.18 0.3 0 0.2 0.3 0 0.22 0.3 0 0.24 0.3 0 0.26 0.3 0 0.28 0.3 0 0.3 0.3 0 0.32 0.3 0 0.34 0.3 0 0.36 0.3 0 0.38 0.3 0 0.4 0.3 0 0.42 0.3 0 0.44 0.3 0 0.46 0.3 0 0.48 0.3 0 0.5 0.3 0 0.52 0.3 0 0.54 0.3 0 0.56 0.3 0 0.58 0.3 0 0.6 0.3 0 0.62 0.3 0 0.64 0.3 0 0.66 0.3 0 0.68 0.3 0 0.7 0.3 0 0.72 0.3 0 0.74 0.3 0 0.76 0.3 0 0.78 0.3 0 0.8 0.3 0 0.82 0.3 0 0.84 0.3 0 0.86 0.3 0 0.88 0.3 0 0.9 0.3 0 0.92 0.3 0 0.94 0.3 0 0.96 0.3 0 0.98 0.3 0 1 0.3 0 0 0.32 0 0.02 0.32 0 0.04 0.32 0 0.06 0.32 0 0.08 0.32 0 0.1 0.32 0 0.12 0.32 0 0.14 0.32 0 0.16 0.32 0 0.18 0.32 0 0.2 0.32 0 0.22 0.32 0 0.24 0.32 0 0.26 0.32 0 0.28 0.32 0 0.3 0.32 0 0.32 0.32 0 0.34 0.32 0 0.36 0.32 0 0.38 0.32 0 0.4 0.32 0 0.42 0.32 0 0.44 0.32 0 0.46 0.32 0 0.48 0.32 0 0.5 0.32 0 0.52 0.32 0 0.54 0.32 0 0.56 0.32 0 0.58 0.32 0 0.6 0.32 0 0.62 0.32 0 0.64 0.32 0 0.66 0.32 0 0.68 0.32 0 0.7 0.32 0 0.72 0.32 0 0.74 0.32 0 0.76 0.32 0 0.78 0.32 0 0.8 0.32 0 0.82 0.32 0 0.84 0.32 0 0.86 0.32 0 0.88 0.32 0 0.9 0.32 0 0.92 0.32 0 0.94 0.
[...]
			<PointData Scalars="VitesseX">
				<DataArray Name="VitesseX" type="Float32" format="ascii">
 0 0 0 0 0 0 0 0 0 0 0 0 0 0 0 0 0 0 0 0 0 0 0 0 0 0 0 0 0 0 0 0 0 0 0 0 0 0 0 0 0 0 0 0 0 0 0 0 0 0 0 0 0.000487881 0.00194346 0.00434425 0.00765153 0.0118131 0.0167631 0.0224235 0.028705 0.0355086 0.0427273 0.0502475 0.0579509 0.0657152 0.0734192 0.0809429 0.0881671 0.0949781 0.101269 0.10694 0.111902 0.116077 0.119399 0.121815 0.123302 0.123788 0.123314 0.121873 0.119465 0.116161 0.112 0.107049 0.101385 0.0950974 0.0882858 0.0810575 0.0735267 0.0658122 0.0580367 0.0503218 0.0427888 0.0355576 0.0287423 0.0224504 0.0167813 0.0118245 0.00765791 0.00434733 0.00194481 0.000488068 5.2949e-27 0 0.000967537 0.00385275 0.00861092 0.0151629 0.0234043 0.0332042 0.0444075 0.0568379 0.0702999 0.0845825 0.0994624 0.114707 0.130074 0.145327 0.160232 0.174552 0.188065 0.200557 0.211834 0.221716 0.230049 0.236699 0.241559 0.244611 0.245616 0.24478 0.242017 0.237299 0.230812 0.222614 0.212833 0.201623 0.18916 0.175643 0.161284 0.146314 0.130969 0.115498 0.100141 0.0851425 0.0707439 0.0571742 0.0446487 0.0333657 0.0235034 0.0152168 0.00863554 0.00386181 0.000968751 1.05054e-26 0 0.00143148 0.0056983 0.0127344 0.0224193 0.0345979 0.0490756 0.065623 0.0839796 0.103858 0.124947 0.146919 0.169432 0.192128 0.214663 0.236695 0.257875 0.277874 0.296379 0.313101 0.327776 0.340172 0.350091 0.357374 0.362023 0.363554 0.36245 0.358454 0.351537 0.342011 0.329939 0.315509 0.298946 0.280513 0.260502 0.239231 0.217041 0.194286 0.171337 0.148553 0.126295 0.104927 0.0847891 0.0662032 0.0494639 0.0348359 0.0225486 0.0127931 0.0057196 0.00143432 1.5549e-26 0 0.00187242 0.00745115 0.0166498 0.0293067 0.0452178 0.0641275 0.085736 0.109703 0.135654 0.163185 0.19187 0.221264 0.250901 0.280336 0.309129 0.336823 0.362991 0.387224 0.409145 0.428409 0.444711 0.457789 0.46743 0.473678 0.475741 0.474475 0.469356 0.460399 0.448031 0.432315 0.413493 0.39186 0.367757 0.341567 0.313709 0.28463 0.254798 0.224706 0.194821 0.16562 0.137584 0.111164 0.0867829 0.0648281 0.0456468 0.0295395 0.0167554 0.00748913 0.00187748 2.03465e-26 0 0.00228343 0.00908384 0.0202957 0.0357168 0.0550968 0.0781232 0.10443 0.133603 0.165188 0.198695 0.233607 0.269388 0.305467 0.341313 0.376393 0.410154 0.442074 0.471661 0.498452 0.522028 0.542014 0.558089 0.569988 0.577805 0.580407 0.579078 0.572965 0.562164 0.547198 0.528126 0.505241 0.478899 0.449517 0.417561 0.383546 0.348018 0.311555 0.274764 0.238215 0.202496 0.168201 0.135884 0.106064 0.079216 0.0557657 0.0360793 0.0204598 0.00914248 0.00229123 2.48225e-26 0 0.00265808 0.0105708 0.0236147 0.0415487 0.0640796 0.0908423 0.121411 0.155304 0.191995 0.230918 0.271474 0.313045 0.354967 0.396632 0.437427 0.476709 0.513876 0.548356 0.579611 0.607153 0.630544 0.649406 0.663427 0.672746 0.675902 0.674597 0.667642 0.655223 0.637944 0.615859 0.589303 0.55869 0.524502 0.487285 0.447639 0.406206 0.36366 0.320721 0.278051 0.236343 0.196295 0.158559 0.123741 0.0924009 0.0650331 0.0420649 0.0238479 0.0106536 0.00266907 2.89069e-26 0 0.0029905 0.0118889 0.0265548 0.0467108 0.0720248 0.102085 0.136411 0.174463 0.215652 0.259344 0.304872 0.351545 0.398619 0.44542 0.491267 0.535439 0.577262 0.616096 0.651338 0.682437 0.708899 0.730294 0.746267 0.756991 0.760722 0.759511 0.751889 0.738102 0.718833 0.694124 0.664349 0.62997 0.591528 0.549638 0.504978 0.458275 0.410293 0.361852 0.313702 0.266627 0.221424 0.178831 0.139537 0.104175 0.0733026 0.0474018 0.0268663 0.0119986 0.00300504 3.25357e-26 0 0.0032755 0.0130175 0.0290698 0.051122 0.0788076 0.111673 0.149193 0.190779 0.235786 0.283527 0.333275 0.38428 0.435733 0.486907 0.537062 0.585413 0.631229 0.673809 0.712497 0.746688 0.775837 0.799471 0.817193 0.829199 0.833528 0.832464 0.824371 0.809487 0.788581 0.761682 0.729191 0.691611 0.649533 0.603633 0.554655 0.503401 0.450717 0.397508 0.344603 0.29287 0.24319 0.19638 0.153202 0.114352 0.0804439 0.0520058 0.0294673 0.0131563 0.00329385 3.56522e-26 0 0.00350862 0.0139391 0.0311204 0.054713 0.0843211 0.119457 0.159558 0.203994 0.252079 0.303082 0.356231 0.410731 0.465722 0.520433 0.574085 0.62584 0.67492 0.720581 0.762119 0.798886 0.830297 0.85584 0.875081 0.888222 0.893171 0.892293 0.883942 0.868246 0.846084 0.81746 0.7828 0.742635 0.697599 0.648415 0.595884 0.540871 0.48429 0.427123 0.370266 0.314655 0.261248 0.210928 0.16452 0.122771 0.0863441 0.0558042 0.0316099 0.0141083 0.00353095 3.82076e-26 0 0.00368623 0.0146392 0.0326744 0.0574275 0.0884787 0.125313 0.16734 0.213898 0.264273 0.3177 0.373378 0.43048 0.488111 0.54547 0.60175 0.656079 0.707645 0.755669 0.799417 0.838205 0.871417 0.898507 0.919015 0.933122 0.938712 0.938045 0.92966 0.913446 0.890427 0.860574 0.824325 0.782233 0.734963 0.683273 0.62801 0.57009 0.510482 0.450229 0.390284 0.331638 0.275314 0.222246 0.173311 0.129299 0.0909098 0.058737 0.0332602 0.0148398 0.00371261 4.01622e-26 0 0.00380635 0.0151131 0.0337267 0.0592657 0.0912932 0.129275 0.1726 0.220588 0.272502 0.327558 0.384936 0.443787 0.503196 0.562341 0.620401 0.676478 0.729738 0.779379 0.82464 0.864814 0.899257 0.927401 0.948759 0.963508 0.96948 0.968994 0.960804 0.944372 0.92091 0.89034 0.853107 0.809777 0.76103 0.707653 0.650523 0.590594 0.528875 0.466457 0.404338 0.34355 0.285162 0.230154 0.179436 0.133832 0.0940688 0.0607578 0.0343922 0.0153391 0.00383597 4.14854e-26 0 0.00386393 0.0153294 0.034184 0.0600275 0.0924082 0.130781 0.174524 0.222954 0.275332 0.330875 0.388763 0.448155 0.508144 0.567903 0.626626 0.683417 0.737446 0.787909 0.834046 0.875142 0.910544 0.939669 0.962011 0.977629 0.984804 0.984712 0.977263 0.961079 0.937759 0.90713 0.869628 0.825823 0.776404 0.722173 0.664031 0.602958 0.539998 0.476275 0.412828 0.350718 0.291053 0.234843 0.183028 0.136456 0.0958673 0.0618867 0.035011 0.0156054 0.00389999 4.21568e-26 0 0.00386384 0.0153281 0.0341781 0.06001 0.0923685 0.130705 0.174397 0.222759 0.275056 0.330507 0.388301 0.447603 0.507515 0.567214 0.625906 0.682696 0.736755 0.787281 0.833504 0.874706 0.910221 0.939456 0.961894 0.977585 0.984799 0.984715 0.977291 0.961153 0.937893 0.907333 0.869903 0.826162 0.776796 0.7226 0.664471 0.60339 0.540402 0.476633 0.413132 0.350962 0.291237 0.234973 0.183113 0.136506 0.0958933 0.0618981 0.0350148 0.0156062 0.00390005 4.21658e-26 0 0.00379999 0.0150634 0.0335625 0.0588883 0.0905842 0.128106 0.170843 0.218126 0.269239 0.323429 0.379913 0.437887 0.496496 0.554932 0.612444 0.66817 0.721307 0.771077 0.816732 0.857566 0.892923 0.922211 0.944908 0.960935 0.969105 0.969455 0.96359 0.948485 0.926391 0.896963 0.86061 0.817875 0.769432 0.716073 0.658699 0.598293 0.535909 0.472679 0.409677 0.347961 0.288661 0.232802 0.181329 0.135093 0.0948337 0.0611648 0.0345691 0.0153926 0.00384269 4.15124e-26 0 0.00367699 0.0145667 0.0324337 0.0568724 0.0874325 0.123583 0.164732 0.210236 0.259411 0.311539 0.365878 0.421667 0.478102 0.534406 0.58988 0.643702 0.695109 0.743355 0.787721 0.827522 0.862117 0.890922 0.913417 0.929412 0.938202 0.938722 0.93356 0.919218 0.898139 0.869922 0.834948 0.793735 0.746928 0.695294 0.639703 0.581116 0.520561 0.459146 0.397931 0.337949 0.28031 0.226018 0.175999 0.131083 0.0919884 0.0593087 0.0335076 0.0149143 0.00372192 4.02069e-26 0 0.00349584 0.0138387 0.0307876 0.0539458 0.0828754 0.117067 0.155956 0.198937 0.245367 0.294578 0.345881 0.398571 0.451914 0.505173 0.557716 0.608776 0.657641 0.703611 0.746007 0.784177 0.817504 0.845419 0.867411 0.883167 0.892533 0.893304 0.889361 0.876234 0.856729 0.830344 0.797428 0.758462 0.714056 0.664942 0.611954 0.556021 0.498136 0.439371 0.380767 0.323319 0.268107 0.216105 0.16821 0.12522 0.0878242 0.0565886 0.0319494 0.0142106 0.00354373 3.82696e-26 0 0.00325937 0.0128909 0.02865 0.0501543 0.0769845 0.10866 0.144654 0.184407 0.227329 0.272814 0.320239 0.368968 0.418348 0.467699 0.516465 0.563948 0.609501 0.652482 0.692261 0.728229 0.759803 0.786436 0.807634 0.822958 0.832822 0.833873 0.831281 0.819623 0.802043 0.777942 0.747626 0.711537 0.670237 0.624412 0.574851 0.522432 0.468105 0.412885 0.357784 0.303743 0.251797 0.202876 0.157832 0.117425 0.0823011 0.0529901 0.0298934 0.0132846 0.0033099 3.57308e-26 0 0.00297128 0.0117379 0.0260545 0.0455576 0.0698527 0.0984947 0.131004 0.166875 0.205583 0.246593 0.289358 0.333326 0.377937 0.422579 0.466783 0.509934 0.551459 0.590784 0.627342 0.660574 0.689938 0.71492 0.735043 0.749882 0.759666 0.761838 0.759914 0.750408 0.73496 0.713555 0.686342 0.653711 0.616172 0.574353 0.528984 0.480885 0.430944 0.38011 0.329347 0.279531 0.231637 0.186538 0.145031 0.107821 0.0755066 0.04857 0.027372 0.012151 0.00302412 3.26302e-26 0 0.00263607 0.0103978 0.0230416 0.0402279 0.0615921 0.0867317 0.115221 0.146618 0.180472 0.216328 0.253727 0.29221 0.331314 0.370534 0.409459 0.44759 0.484435 0.519499 0.552283 0.582288 0.609022 0.632009 0.650798 0.664976 0.674546 0.677979 0.676681 0.669592 0.656549 0.63821 0.614552 0.585906 0.552722 0.51556 0.475084 0.43204 0.387245 0.341566 0.295906 0.251067 0.207948 0.167352 0.130009 0.0965614 0.067548 0.0433981 0.0244252 0.0108276 0.00269088 2.90163e-26 0 0.00225898 0.0088915 0.0196587 0.034249 0.0523327 0.073556 0.0975533 0.123955 0.152391 0.182496 0.213909 0.246269 0.279219 0.31238 0.345397 0.377903 0.409492 0.439756 0.468274 0.494614 0.51834 0.53902 0.556235 0.569589 0.578871 0.583517 0.582992 0.578425 0.568055 0.553104 0.533396 0.509199 0.480893 0.448968 0.414005 0.376672 0.337699 0.297864 0.257993 0.218802 0.181104 0.145621 0.113004 0.0838234 0.0585512 0.0375562 0.0210995 0.00933538 0.00231544 2.49455e-26 0 0.0018459 0.00724246 0.0159589 0.0277148 0.0422201 0.0591749 0.0782799 0.099243 0.121783 0.145631 0.170529 0.196227 0.222477 0.249031 0.275608 0.301971 0.327811 0.352813 0.37664 0.398935 0.419324 0.437423 0.452849 0.465229 0.474219 0.479804 0.480483 0.478238 0.470912 0.459582 0.444157 0.424802 0.401823 0.375629 0.346714 0.315656 0.283092 0.249699 0.216204 0.183247 0.151531 0.121688 0.0942849 0.0698086 0.0486584 0.0311367 0.0174474 0.00769789 0.00190371 2.04815e-26 0 0.00140333 0.00547652 0.0120004 0.0207282 0.0314136 0.0438149 0.0577038 0.0728713 0.0891297 0.106313 0.124271 0.142871 0.161981 0.181471 0.201198 0.220991 0.240676 0.260036 0.278823 0.296758 0.313532 0.328817 0.342267 0.353538 0.362296 0.368259 0.371076 0.370401 0.366707 0.359117 0.348241 0.334046 0.31676 0.296701 0.274275 0.249959 0.224286 0.197832 0.171203 0.144965 0.119696 0.0959334 0.0741474 0.0547386 0.0380259 0.0242408 0.0135266 0.00594095 0.00146218 1.56944e-26 0 0.000938196 0.00362137 0.00784534 0.013399 0.0200832 0.0277177 0.036149 0.0452549 0.054945 0.0651595 0.0758634 0.08704 0.0986816 0.110778 0.123308 0.136226 0.149457 0.162889 0.176359 0.189685 0.202626 0.214906 0.226226 0.236269 0.244716 0.251213 0.255558 0.257435 0.256663 0.253368 0.247155 0.238358 0.227039 0.213428 0.197829 0.180615 0.16221 0.143078 0.123705 0.10456 0.0861033 0.0687628 0.0529099 0.0388514 0.0268216 0.0169774 0.00939886 0.00409229 0.000997807 1.06592e-26 0 0.000457822 0.00170624 0.00355964 0.00584405 0.00841009 0.0111417 0.0139626 0.0168396 0.019782 0.0228384 0.0260896 0.0296397 0.0336042 0.0380972 0.043219 0.0490437 0.0556092 0.0629089 0.0708848 0.0794252 0.0883655 0.0974904 0.106545 0.115257 0.123319 0.130373 0.136172 0.140466 0.143077 0.143727 0.142503 0.139253 0.134071 0.127117 0.118578 0.108716 0.0978423 0.0863022 0.0744578 0.0626715 0.0512822 0.0406056 0.0309076 0.0223978 0.0152223 0.00946122 0.0051294 0.00218106 0.000517903 5.45497e-27 0 -3.00309e-05 -0.000237412 -0.000785517 -0.00181068 -0.00341094 -0.00563724 -0.00848785 -0.0119062 -0.0157826 -0.0199594 -0.0242395 -0.0283976 -0.0321944 -0.0353913 -0.0377653 -0.0391229 -0.0393133 -0.0382385 -0.0358614 -0.0322096 -0.027375 -0.0215103 -0.0148218 -0.00755859 -1.15851e-07 0.00755867 0.014822 0.0215107 0.0273756 0.0322111 0.0358632 0.0382395 0.0393141 0.0391246 0.0377677 0.0353932 0.0321951 0.0283976 0.0242393 0.0199593 0.0157826 0.0119062 0.00848784 0.00563724 0.00341094 0.00181069 0.000785518 0.000237413 3.00309e-05 1.63552e-28 0 -0.000517903 -0.00218106 -0.0051294 -0.00946121 -0.0152223 -0.0223978 -0.0309076 -0.0406056 -0.0512823 -0.0626717 -0.0744582 -0.0863025 -0.0978424 -0.108716 -0.118578 -0.127118 -0.134072 -0.139252 -0.142502 -0.143726 -0.143076 -0.140466 -0.136171 -0.130373 -0.123319 -0.115256 -0.106545 -0.09749 -0.0883646 -0.0794234 -0.0708832 -0.0629071 -0.0556064 -0.0490398 -0.0432148 -0.0380942 -0.0336029 -0.0296395 -0.0260898 -0.0228385 -0.0197821 -0.0168396 -0.0139626 -0.0111417 -0.00841009 -0.00584405 -0.00355964 -0.00170624 -0.000457822 -5.13171e-27 0 -0.000997807 -0.00409229 -0.00939886 -0.0169774 -0.0268216 -0.0388514 -0.0529099 -0.0687628 -0.0861034 -0.104561 -0.123705 -0.143079 -0.162211 -0.180615 -0.19783 -0.213429 -0.22704 -0.238357 -0.247154 -0.253367 -0.256663 -0.257435 -0.255558 -0.251213 -0.244716 -0.236268 -0.226225 -0.214905 -0.202624 -0.189683 -0.176357 -0.162885 -0.149452 -0.136221 -0.123304 -0.110776 -0.0986805 -0.08704 -0.0758635 -0.0651596 -0.0549451 -0.0452549 -0.036149 -0.0277177 -0.0200832 -0.013399 -0.00784534 -0.00362137 -0.000938196 -1.03473e-26 0 -0.00146218 -0.00594095 -0.0135266 -0.0242408 -0.0380259 -0.0547386 -0.0741474 -0.0959334 -0.119697 -0.144965 -0.171204 -0.197832 -0.224287 -0.24996 -0.274277 -0.296702 -0.31676 -0.334046 -0.34824 -0.359117 -0.366707 -0.3704 -0.371076 -0.368259 -0.362296 -0.353538 -0.342267 -0.328816 -0.313531 -0.296756 -0.27882 -0.260032 -0.24067 -0.220986 -0.201194 -0.181469 -0.161981 -0.142871 -0.124272 -0.106313 -0.0891298 -0.0728713 -0.0577038 -0.0438149 -0.0314136 -0.0207282 -0.0120004 -0.00547652 -0.00140333 -1.54009e-26 0 -0.00190371 -0.00769789 -0.0174474 -0.0311367 -0.0486584 -0.0698086 -0.0942849 -0.121689 -0.151531 -0.183247 -0.216205 -0.2497 -0.283092 -0.315657 -0.346715 -0.37563 -0.401824 -0.424802 -0.444156 -0.459582 -0.470912 -0.478238 -0.480483 -0.479804 -0.474219 -0.465229 -0.452848 -0.437422 -0.419323 -0.398933 -0.376637 -0.352809 -0.327807 -0.301968 -0.275607 -0.24903 -0.222477 -0.196227 -0.170529 -0.145631 -0.121783 -0.099243 -0.0782799 -0.0591749 -0.0422201 -0.0277148 -0.0159589 -0.00724246 -0.0018459 -2.02124e-26 0 -0.00231544 -0.00933538 -0.0210995 -0.0375562 -0.0585512 -0.0838234 -0.113004 -0.145621 -0.181105 -0.218802 -0.257993 -0.297864 -0.337699 -0.376671 -0.414005 -0.448969 -0.480894 -0.509199 -0.533396 -0.553104 -0.568055 -0.578425 -0.582992 -0.583517 -0.578871 -0.569589 -0.556234 -0.53902 -0.51834 -0.494613 -0.468272 -0.439754 -0.409491 -0.377902 -0.345397 -0.31238 -0.279219 -0.246269 -0.213909 -0.182496 -0.152391 -0.123955 -0.0975533 -0.073556 -0.0523327 -0.034249 -0.0196587 -0.0088915 -0.00225898 -2.47058e-26 0 -0.00269088 -0.0108276 -0.0244252 -0.0433981 -0.067548 -0.0965614 -0.130009 -0.167352 -0.207949 -0.251068 -0.295907 -0.341566 -0.387244 -0.432039 -0.475083 -0.515561 -0.552723 -0.585907 -0.614552 -0.63821 -0.656549 -0.669592 -0.676681 -0.677979 -0.674546 -0.664976 -0.650797 -0.632009 -0.609022 -0.582288 -0.552283 -0.519499 -0.484436 -0.447591 -0.409459 -0.370534 -0.331314 -0.29221 -0.253727 -0.216328 -0.180472 -0.146618 -0.115221 -0.0867317 -0.0615921 -0.0402279 -0.0230416 -0.0103978 -0.00263607 -2.88098e-26 0 -0.00302412 -0.012151 -0.027372 -0.04857 -0.0755066 -0.107821 -0.145031 -0.186539 -0.231638 -0.279532 -0.329348 -0.38011 -0.430943 -0.480884 -0.528983 -0.574353 -0.616173 -0.653712 -0.686343 -0.713555 -0.73496 -0.750408 -0.759914 -0.761838 -0.759666 -0.749882 -0.735043 -0.71492 -0.689938 -0.660575 -0.627343 -0.590785 -0.55146 -0.509935 -0.466784 -0.422579 -0.377937 -0.333326 -0.289358 -0.246593 -0.205583 -0.166875 -0.131004 -0.0984947 -0.0698527 -0.0455576 -0.0260545 -0.0117379 -0.00297128 -3.24591e-26 0 -0.0033099 -0.0132846 -0.0298934 -0.0529901 -0.0823011 -0.117425 -0.157832 -0.202876 -0.251797 -0.303744 -0.357786 -0.412886 -0.468104 -0.52243 -0.574849 -0.624412 -0.670238 -0.711538 -0.747627 -0.777942 -0.802043 -0.819623 -0.831281 -0.833873 -0.832822 -0.822958 -0.807634 -0.786437 -0.759804 -0.72823 -0.692262 -0.652483 -0.609502 -0.563949 -0.516465 -0.467699 -0.418348 -0.368968 -0.320238 -0.272814 -0.227329 -0.184407 -0.144654 -0.10866 -0.0769845 -0.0501543 -0.02865 -0.0128909 -0.00325937 -3.55957e-26 0 -0.00354373 -0.0142106 -0.0319494 -0.0565886 -0.0878242 -0.12522 -0.16821 -0.216106 -0.268108 -0.32332 -0.380768 -0.439371 -0.498136 -0.556018 -0.611952 -0.664941 -0.714057 -0.758463 -0.797429 -0.830345 -0.856729 -0.876234 -0.889361 -0.893304 -0.892533 -0.883167 -0.867411 -0.845419 -0.817504 -0.784177 -0.746008 -0.703612 -0.657641 -0.608776 -0.557716 -0.505173 -0.451913 -0.398571 -0.34588 -0.294578 -0.245367 -0.198937 -0.155956 -0.117067 -0.0828754 -0.0539458 -0.0307876 -0.0138387 -0.00349584 -3.81697e-26 0 -0.00372192 -0.0149143 -0.0335076 -0.0593087 -0.0919884 -0.131083 -0.175999 -0.226018 -0.28031 -0.337949 -0.397932 -0.459147 -0.520561 -0.581114 -0.6397 -0.695292 -0.746928 -0.793735 -0.834949 -0.869922 -0.89814 -0.919218 -0.93356 -0.938722 -0.938202 -0.929412 -0.913417 -0.890922 -0.862117 -0.827521 -0.787721 -0.743355 -0.695109 -0.643703 -0.58988 -0.534406 -0.478102 -0.421666 -0.365878 -0.311539 -0.259411 -0.210236 -0.164732 -0.123583 -0.0874325 -0.0568724 -0.0324337 -0.0145667 -0.00367699 -4.01401e-26 0 -0.00384269 -0.0153926 -0.0345691 -0.0611648 -0.0948337 -0.135093 -0.181329 -0.232802 -0.288662 -0.347962 -0.409678 -0.47268 -0.535909 -0.598292 -0.658696 -0.716071 -0.76943 -0.817875 -0.860611 -0.896964 -0.926391 -0.948485 -0.96359 -0.969455 -0.969105 -0.960935 -0.944908 -0.922211 -0.892924 -0.857566 -0.816732 -0.771077 -0.721307 -0.66817 -0.612444 -0.554932 -0.496496 -0.437887 -0.379913 -0.323429 -0.269239 -0.218126 -0.170843 -0.128106 -0.0905842 -0.0588883 -0.0335625 -0.0150634 -0.00379999 -4.14754e-26 0 -0.00390005 -0.0156062 -0.0350148 -0.0618981 -0.0958933 -0.136506 -0.183113 -0.234973 -0.291237 -0.350962 -0.413133 -0.476635 -0.540403 -0.60339 -0.664469 -0.722597 -0.776794 -0.826162 -0.869903 -0.907333 -0.937894 -0.961153 -0.977291 -0.984715 -0.984799 -0.977585 -0.961894 -0.939456 -0.910221 -0.874706 -0.833504 -0.787281 -0.736755 -0.682696 -0.625905 -0.567214 -0.507515 -0.447603 -0.388301 -0.330507 -0.275056 -0.222759 -0.174397 -0.130705 -0.0923685 -0.06001 -0.0341781 -0.0153281 -0.00386384 -4.21542e-26 0 -0.00389999 -0.0156054 -0.035011 -0.0618867 -0.0958673 -0.136456 -0.183028 -0.234843 -0.291053 -0.350718 -0.412828 -0.476276 -0.54 -0.602959 -0.66403 -0.722171 -0.776402 -0.825822 -0.869628 -0.90713 -0.93776 -0.961079 -0.977263 -0.984712 -0.984804 -0.977629 -0.962011 -0.939669 -0.910545 -0.875142 -0.834046 -0.787909 -0.737446 -0.683417 -0.626626 -0.567902 -0.508144 -0.448155 -0.388763 -0.330874 -0.275332 -0.222955 -0.174524 -0.130781 -0.0924082 -0.0600275 -0.034184 -0.0153294 -0.00386393 -4.21658e-26 0 -0.00383597 -0.0153391 -0.0343922 -0.0607578 -0.0940688 -0.133833 -0.179436 -0.230155 -0.285163 -0.343549 -0.404337 -0.466457 -0.528876 -0.590596 -0.650524 -0.707653 -0.761029 -0.809776 -0.853107 -0.89034 -0.92091 -0.944372 -0.960804 -0.968994 -0.96948 -0.963508 -0.948759 -0.927401 -0.899258 -0.864814 -0.82464 -0.779379 -0.729738 -0.676478 -0.620401 -0.562341 -0.503195 -0.443786 -0.384935 -0.327558 -0.272502 -0.220588 -0.1726 -0.129275 -0.0912932 -0.0592657 -0.0337267 -0.0151131 -0.00380635 -4.15098e-26 0 -0.00371261 -0.0148398 -0.0332602 -0.058737 -0.0909098 -0.129299 -0.173311 -0.222247 -0.275314 -0.331637 -0.390281 -0.450227 -0.510483 -0.570093 -0.628012 -0.683274 -0.734963 -0.782233 -0.824324 -0.860573 -0.890427 -0.913446 -0.92966 -0.938045 -0.938712 -0.933122 -0.919015 -0.898507 -0.871417 -0.838205 -0.799416 -0.755669 -0.707645 -0.656079 -0.60175 -0.54547 -0.488111 -0.43048 -0.373378 -0.3177 -0.264273 -0.213898 -0.16734 -0.125313 -0.0884787 -0.0574275 -0.0326744 -0.0146392 -0.00368623 -4.01967e-26 0 -0.00353095 -0.0141083 -0.0316099 -0.0558042 -0.0863441 -0.122771 -0.16452 -0.21093 -0.261249 -0.314653 -0.370262 -0.42712 -0.484291 -0.540875 -0.595887 -0.648417 -0.6976 -0.742635 -0.782799 -0.817459 -0.846083 -0.868246 -0.883942 -0.892293 -0.893171 -0.888222 