<?xml version="1.0"?>
<VTKFile type="PolyData">
	<PolyData>
		<Piece NumberOfPoints="2601" NumberOfPolys="2500">
			<Points>
				<DataArray type="Float32" NumberOfComponents="3" format="ascii">
 0 0 0 0.02 0 0 0.04 0 0 0.06 0 0 0.08 0 0 0.1 0 0 0.12 0 0 0.14 0 0 0.16 0 0 0.18 0 0 0.2 0 0 0.22 0 0 0.24 0 0 0.26 0 0 0.28 0 0 0.3 0 0 0.32 0 0 0.34 0 0 0.36 0 0 0.38 0 0 0.4 0 0 0.42 0 0 0.44 0 0 0.46 0 0 0.48 0 0 0.5 0 0 0.52 0 0 0.54 0 0 0.56 0 0 0.58 0 0 0.6 0 0 0.62 0 0 0.64 0 0 0.66 0 0 0.68 0 0 0.7 0 0 0.72 0 0 0.74 0 0 0.76 0 0 0.78 0 0 0.8 0 0 0.82 0 0 0.84 0 0 0.86 0 0 0.88 0 0 0.9 0 0 0.92 0 0 0.94 0 0 0.96 0 0 0.98 0 0 1 0 0 0 0.02 0 0.02 0.02 0 0.04 0.02 0 0.06 0.02 0 0.08 0.02 0 0.1 0.02 0 0.12 0.02 0 0.14 0.02 0 0.16 0.02 0 0.18 0.02 0 0.2 0.02 0 0.22 0.02 0 0.24 0.02 0 0.26 0.02 0 0.28 0.02 0 0.3 0.02 0 0.32 0.02 0 0.34 0.02 0 0.36 0.02 0 0.38 0.02 0 0.4 0.02 0 0.42 0.02 0 0.44 0.02 0 0.46 0.02 0 0.48 0.02 0 0.5 0.02 0 0.52 0.02 0 0.54 0.02 0 0.56 0.02 0 0.58 0.02 0 0.6 0.02 0 0.62 0.02 0 0.64 0.02 0 0.66 0.02 0 0.68 0.02 0 0.7 0.02 0 0.72 0.02 0 0.74 0.02 0 0.76 0.02 0 0.78 0.02 0 0.8 0.02 0 0.82 0.02 0 0.84 0.02 0 0.86 0.02 0 0.88 0.02 0 0.9 0.02 0 0.92 0.02 0 0.94 0.02 0 0.96 0.02 0 0.98 0.02 0 1 0.02 0 0 0.04 0 0.02 0.04 0 0.04 0.04 0 0.06 0.04 0 0.08 0.04 0 0.1 0.04 0 0.12 0.04 0 0.14 0.04 0 0.16 0.04 0 0.18 0.04 0 0.2 0.04 0 0.22 0.04 0 0.24 0.04 0 0.26 0.04 0 0.28 0.04 0 0.3 0.04 0 0.32 0.04 0 0.34 0.04 0 0.36 0.04 0 0.38 0.04 0 0.4 0.04 0 0.42 0.04 0 0.44 0.04 0 0.46 0.04 0 0.48 0.04 0 0.5 0.04 0 0.52 0.04 0 0.54 0.04 0 0.56 0.04 0 0.58 0.04 0 0.6 0.04 0 0.62 0.04 0 0.64 0.04 0 0.66 0.04 0 0.68 0.04 0 0.7 0.04 0 0.72 0.04 0 0.74 0.04 0 0.76 0.04 0 0.78 0.04 0 0.8 0.04 0 0.82 0.04 0 0.84 0.04 0 0.86 0.04 0 0.88 0.04 0 0.9 0.04 0 0.92 0.04 0 0.94 0.04 0 0.96 0.04 0 0.98 0.04 0 1 0.04 0 0 0.06 0 0.02 0.06 0 0.04 0.06 0 0.06 0.06 0 0.08 0.06 0 0.1 0.06 0 0.12 0.06 0 0.14 0.06 0 0.16 0.06 0 0.18 0.06 0 0.2 0.06 0 0.22 0.06 0 0.24 0.06 0 0.26 0.06 0 0.28 0.06 0 0.3 0.06 0 0.32 0.06 0 0.34 0.06 0 0.36 0.06 0 0.38 0.06 0 0.4 0.06 0 0.42 0.06 0 0.44 0.06 0 0.46 0.06 0 0.48 0.06 0 0.5 0.06 0 0.52 0.06 0 0.54 0.06 0 0.56 0.06 0 0.58 0.06 0 0.6 0.06 0 0.62 0.06 0 0.64 0.06 0 0.66 0.06 0 0.68 0.06 0 0.7 0.06 0 0.72 0.06 0 0.74 0.06 0 0.76 0.06 0 0.78 0.06 0 0.8 0.06 0 0.82 0.06 0 0.84 0.06 0 0.86 0.06 0 0.88 0.06 0 0.9 0.06 0 0.92 0.06 0 0.94 0.06 0 0.96 0.06 0 0.98 0.06 0 1 0.06 0 0 0.08 0 0.02 0.08 0 0.04 0.08 0 0.06 0.08 0 0.08 0.08 0 0.1 0.08 0 0.12 0.08 0 0.14 0.08 0 0.16 0.08 0 0.18 0.08 0 0.2 0.08 0 0.22 0.08 0 0.24 0.08 0 0.26 0.08 0 0.28 0.08 0 0.3 0.08 0 0.32 0.08 0 0.34 0.08 0 0.36 0.08 0 0.38 0.08 0 0.4 0.08 0 0.42 0.08 0 0.44 0.08 0 0.46 0.08 0 0.48 0.08 0 0.5 0.08 0 0.52 0.08 0 0.54 0.08 0 0.56 0.08 0 0.58 0.08 0 0.6 0.08 0 0.62 0.08 0 0.64 0.08 0 0.66 0.08 0 0.68 0.08 0 0.7 0.08 0 0.72 0.08 0 0.74 0.08 0 0.76 0.08 0 0.78 0.08 0 0.8 0.08 0 0.82 0.08 0 0.84 0.08 0 0.86 0.08 0 0.88 0.08 0 0.9 0.08 0 0.92 0.08 0 0.94 0.08 0 0.96 0.08 0 0.98 0.08 0 1 0.08 0 0 0.1 0 0.02 0.1 0 0.04 0.1 0 0.06 0.1 0 0.08 0.1 0 0.1 0.1 0 0.12 0.1 0 0.14 0.1 0 0.16 0.1 0 0.18 0.1 0 0.2 0.1 0 0.22 0.1 0 0.24 0.1 0 0.26 0.1 0 0.28 0.1 0 0.3 0.1 0 0.32 0.1 0 0.34 0.1 0 0.36 0.1 0 0.38 0.1 0 0.4 0.1 0 0.42 0.1 0 0.44 0.1 0 0.46 0.1 0 0.48 0.1 0 0.5 0.1 0 0.52 0.1 0 0.54 0.1 0 0.56 0.1 0 0.58 0.1 0 0.6 0.1 0 0.62 0.1 0 0.64 0.1 0 0.66 0.1 0 0.68 0.1 0 0.7 0.1 0 0.72 0.1 0 0.74 0.1 0 0.76 0.1 0 0.78 0.1 0 0.8 0.1 0 0.82 0.1 0 0.84 0.1 0 0.86 0.1 0 0.88 0.1 0 0.9 0.1 0 0.92 0.1 0 0.94 0.1 0 0.96 0.1 0 0.98 0.1 0 1 0.1 0 0 0.12 0 0.02 0.12 0 0.04 0.12 0 0.06 0.12 0 0.08 0.12 0 0.1 0.12 0 0.12 0.12 0 0.14 0.12 0 0.16 0.12 0 0.18 0.12 0 0.2 0.12 0 0.22 0.12 0 0.24 0.12 0 0.26 0.12 0 0.28 0.12 0 0.3 0.12 0 0.32 0.12 0 0.34 0.12 0 0.36 0.12 0 0.38 0.12 0 0.4 0.12 0 0.42 0.12 0 0.44 0.12 0 0.46 0.12 0 0.48 0.12 0 0.5 0.12 0 0.52 0.12 0 0.54 0.12 0 0.56 0.12 0 0.58 0.12 0 0.6 0.12 0 0.62 0.12 0 0.64 0.12 0 0.66 0.12 0 0.68 0.12 0 0.7 0.12 0 0.72 0.12 0 0.74 0.12 0 0.76 0.12 0 0.78 0.12 0 0.8 0.12 0 0.82 0.12 0 0.84 0.12 0 0.86 0.12 0 0.88 0.12 0 0.9 0.12 0 0.92 0.12 0 0.94 0.12 0 0.96 0.12 0 0.98 0.12 0 1 0.12 0 0 0.14 0 0.02 0.14 0 0.04 0.14 0 0.06 0.14 0 0.08 0.14 0 0.1 0.14 0 0.12 0.14 0 0.14 0.14 0 0.16 0.14 0 0.18 0.14 0 0.2 0.14 0 0.22 0.14 0 0.24 0.14 0 0.26 0.14 0 0.28 0.14 0 0.3 0.14 0 0.32 0.14 0 0.34 0.14 0 0.36 0.14 0 0.38 0.14 0 0.4 0.14 0 0.42 0.14 0 0.44 0.14 0 0.46 0.14 0 0.48 0.14 0 0.5 0.14 0 0.52 0.14 0 0.54 0.14 0 0.56 0.14 0 0.58 0.14 0 0.6 0.14 0 0.62 0.14 0 0.64 0.14 0 0.66 0.14 0 0.68 0.14 0 0.7 0.14 0 0.72 0.14 0 0.74 0.14 0 0.76 0.14 0 0.78 0.14 0 0.8 0.14 0 0.82 0.14 0 0.84 0.14 0 0.86 0.14 0 0.88 0.14 0 0.9 0.14 0 0.92 0.14 0 0.94 0.14 0 0.96 0.14 0 0.98 0.14 0 1 0.14 0 0 0.16 0 0.02 0.16 0 0.04 0.16 0 0.06 0.16 0 0.08 0.16 0 0.1 0.16 0 0.12 0.16 0 0.14 0.16 0 0.16 0.16 0 0.18 0.16 0 0.2 0.16 0 0.22 0.16 0 0.24 0.16 0 0.26 0.16 0 0.28 0.16 0 0.3 0.16 0 0.32 0.16 0 0.34 0.16 0 0.36 0.16 0 0.38 0.16 0 0.4 0.16 0 0.42 0.16 0 0.44 0.16 0 0.46 0.16 0 0.48 0.16 0 0.5 0.16 0 0.52 0.16 0 0.54 0.16 0 0.56 0.16 0 0.58 0.16 0 0.6 0.16 0 0.62 0.16 0 0.64 0.16 0 0.66 0.16 0 0.68 0.16 0 0.7 0.16 0 0.72 0.16 0 0.74 0.16 0 0.76 0.16 0 0.78 0.16 0 0.8 0.16 0 0.82 0.16 0 0.84 0.16 0 0.86 0.16 0 0.88 0.16 0 0.9 0.16 0 0.92 0.16 0 0.94 0.16 0 0.96 0.16 0 0.98 0.16 0 1 0.16 0 0 0.18 0 0.02 0.18 0 0.04 0.18 0 0.06 0.18 0 0.08 0.18 0 0.1 0.18 0 0.12 0.18 0 0.14 0.18 0 0.16 0.18 0 0.18 0.18 0 0.2 0.18 0 0.22 0.18 0 0.24 0.18 0 0.26 0.18 0 0.28 0.18 0 0.3 0.18 0 0.32 0.18 0 0.34 0.18 0 0.36 0.18 0 0.38 0.18 0 0.4 0.18 0 0.42 0.18 0 0.44 0.18 0 0.46 0.18 0 0.48 0.18 0 0.5 0.18 0 0.52 0.18 0 0.54 0.18 0 0.56 0.18 0 0.58 0.18 0 0.6 0.18 0 0.62 0.18 0 0.64 0.18 0 0.66 0.18 0 0.68 0.18 0 0.7 0.18 0 0.72 0.18 0 0.74 0.18 0 0.76 0.18 0 0.78 0.18 0 0.8 0.18 0 0.82 0.18 0 0.84 0.18 0 0.86 0.18 0 0.88 0.18 0 0.9 0.18 0 0.92 0.18 0 0.94 0.18 0 0.96 0.18 0 0.98 0.18 0 1 0.18 0 0 0.2 0 0.02 0.2 0 0.04 0.2 0 0.06 0.2 0 0.08 0.2 0 0.1 0.2 0 0.12 0.2 0 0.14 0.2 0 0.16 0.2 0 0.18 0.2 0 0.2 0.2 0 0.22 0.2 0 0.24 0.2 0 0.26 0.2 0 0.28 0.2 0 0.3 0.2 0 0.32 0.2 0 0.34 0.2 0 0.36 0.2 0 0.38 0.2 0 0.4 0.2 0 0.42 0.2 0 0.44 0.2 0 0.46 0.2 0 0.48 0.2 0 0.5 0.2 0 0.52 0.2 0 0.54 0.2 0 0.56 0.2 0 0.58 0.2 0 0.6 0.2 0 0.62 0.2 0 0.64 0.2 0 0.66 0.2 0 0.68 0.2 0 0.7 0.2 0 0.72 0.2 0 0.74 0.2 0 0.76 0.2 0 0.78 0.2 0 0.8 0.2 0 0.82 0.2 0 0.84 0.2 0 0.86 0.2 0 0.88 0.2 0 0.9 0.2 0 0.92 0.2 0 0.94 0.2 0 0.96 0.2 0 0.98 0.2 0 1 0.2 0 0 0.22 0 0.02 0.22 0 0.04 0.22 0 0.06 0.22 0 0.08 0.22 0 0.1 0.22 0 0.12 0.22 0 0.14 0.22 0 0.16 0.22 0 0.18 0.22 0 0.2 0.22 0 0.22 0.22 0 0.24 0.22 0 0.26 0.22 0 0.28 0.22 0 0.3 0.22 0 0.32 0.22 0 0.34 0.22 0 0.36 0.22 0 0.38 0.22 0 0.4 0.22 0 0.42 0.22 0 0.44 0.22 0 0.46 0.22 0 0.48 0.22 0 0.5 0.22 0 0.52 0.22 0 0.54 0.22 0 0.56 0.22 0 0.58 0.22 0 0.6 0.22 0 0.62 0.22 0 0.64 0.22 0 0.66 0.22 0 0.68 0.22 0 0.7 0.22 0 0.72 0.22 0 0.74 0.22 0 0.76 0.22 0 0.78 0.22 0 0.8 0.22 0 0.82 0.22 0 0.84 0.22 0 0.86 0.22 0 0.88 0.22 0 0.9 0.22 0 0.92 0.22 0 0.94 0.22 0 0.96 0.22 0 0.98 0.22 0 1 0.22 0 0 0.24 0 0.02 0.24 0 0.04 0.24 0 0.06 0.24 0 0.08 0.24 0 0.1 0.24 0 0.12 0.24 0 0.14 0.24 0 0.16 0.24 0 0.18 0.24 0 0.2 0.24 0 0.22 0.24 0 0.24 0.24 0 0.26 0.24 0 0.28 0.24 0 0.3 0.24 0 0.32 0.24 0 0.34 0.24 0 0.36 0.24 0 0.38 0.24 0 0.4 0.24 0 0.42 0.24 0 0.44 0.24 0 0.46 0.24 0 0.48 0.24 0 0.5 0.24 0 0.52 0.24 0 0.54 0.24 0 0.56 0.24 0 0.58 0.24 0 0.6 0.24 0 0.62 0.24 0 0.64 0.24 0 0.66 0.24 0 0.68 0.24 0 0.7 0.24 0 0.72 0.24 0 0.74 0.24 0 0.76 0.24 0 0.78 0.24 0 0.8 0.24 0 0.82 0.24 0 0.84 0.24 0 0.86 0.24 0 0.88 0.24 0 0.9 0.24 0 0.92 0.24 0 0.94 0.24 0 0.96 0.24 0 0.98 0.24 0 1 0.24 0 0 0.26 0 0.02 0.26 0 0.04 0.26 0 0.06 0.26 0 0.08 0.26 0 0.1 0.26 0 0.12 0.26 0 0.14 0.26 0 0.16 0.26 0 0.18 0.26 0 0.2 0.26 0 0.22 0.26 0 0.24 0.26 0 0.26 0.26 0 0.28 0.26 0 0.3 0.26 0 0.32 0.26 0 0.34 0.26 0 0.36 0.26 0 0.38 0.26 0 0.4 0.26 0 0.42 0.26 0 0.44 0.26 0 0.46 0.26 0 0.48 0.26 0 0.5 0.26 0 0.52 0.26 0 0.54 0.26 0 0.56 0.26 0 0.58 0.26 0 0.6 0.26 0 0.62 0.26 0 0.64 0.26 0 0.66 0.26 0 0.68 0.26 0 0.7 0.26 0 0.72 0.26 0 0.74 0.26 0 0.76 0.26 0 0.78 0.26 0 0.8 0.26 0 0.82 0.26 0 0.84 0.26 0 0.86 0.26 0 0.88 0.26 0 0.9 0.26 0 0.92 0.26 0 0.94 0.26 0 0.96 0.26 0 0.98 0.26 0 1 0.26 0 0 0.28 0 0.02 0.28 0 0.04 0.28 0 0.06 0.28 0 0.08 0.28 0 0.1 0.28 0 0.12 0.28 0 0.14 0.28 0 0.16 0.28 0 0.18 0.28 0 0.2 0.28 0 0.22 0.28 0 0.24 0.28 0 0.26 0.28 0 0.28 0.28 0 0.3 0.28 0 0.32 0.28 0 0.34 0.28 0 0.36 0.28 0 0.38 0.28 0 0.4 0.28 0 0.42 0.28 0 0.44 0.28 0 0.46 0.28 0 0.48 0.28 0 0.5 0.28 0 0.52 0.28 0 0.54 0.28 0 0.56 0.28 0 0.58 0.28 0 0.6 0.28 0 0.62 0.28 0 0.64 0.28 0 0.66 0.28 0 0.68 0.28 0 0.7 0.28 0 0.72 0.28 0 0.74 0.28 0 0.76 0.28 0 0.78 0.28 0 0.8 0.28 0 0.82 0.28 0 0.84 0.28 0 0.86 0.28 0 0.88 0.28 0 0.9 0.28 0 0.92 0.28 0 0.94 0.28 0 0.96 0.28 0 0.98 0.28 0 1 0.28 0 0 0.3 0 0.02 0.3 0 0.04 0.3 0 0.06 0.3 0 0.08 0.3 0 0.1 0.3 0 0.12 0.3 0 0.14 0.3 0 0.16 0.3 0 0.18 0.3 0 0.2 0.3 0 0.22 0.3 0 0.24 0.3 0 0.26 0.3 0 0.28 0.3 0 0.3 0.3 0 0.32 0.3 0 0.34 0.3 0 0.36 0.3 0 0.38 0.3 0 0.4 0.3 0 0.42 0.3 0 0.44 0.3 0 0.46 0.3 0 0.48 0.3 0 0.5 0.3 0 0.52 0.3 0 0.54 0.3 0 0.56 0.3 0 0.58 0.3 0 0.6 0.3 0 0.62 0.3 0 0.64 0.3 0 0.66 0.3 0 0.68 0.3 0 0.7 0.3 0 0.72 0.3 0 0.74 0.3 0 0.76 0.3 0 0.78 0.3 0 0.8 0.3 0 0.82 0.3 0 0.84 0.3 0 0.86 0.3 0 0.88 0.3 0 0.9 0.3 0 0.92 0.3 0 0.94 0.3 0 0.96 0.3 0 0.98 0.3 0 1 0.3 0 0 0.32 0 0.02 0.32 0 0.04 0.32 0 0.06 0.32 0 0.08 0.32 0 0.1 0.32 0 0.12 0.32 0 0.14 0.32 0 0.16 0.32 0 0.18 0.32 0 0.2 0.32 0 0.22 0.32 0 0.24 0.32 0 0.26 0.32 0 0.28 0.32 0 0.3 0.32 0 0.32 0.32 0 0.34 0.32 0 0.36 0.32 0 0.38 0.32 0 0.4 0.32 0 0.42 0.32 0 0.44 0.32 0 0.46 0.32 0 0.48 0.32 0 0.5 0.32 0 0.52 0.32 0 0.54 0.32 0 0.56 0.32 0 0.58 0.32 0 0.6 0.32 0 0.62 0.32 0 0.64 0.32 0 0.66 0.32 0 0.68 0.32 0 0.7 0.32 0 0.72 0.32 0 0.74 0.32 0 0.76 0.32 0 0.78 0.32 0 0.8 0.32 0 0.82 0.32 0 0.84 0.32 0 0.86 0.32 0 0.88 0.32 0 0.9 0.32 0 0.92 0.32 0 0.94 0.
[...]
			<PointData Scalars="VitesseX">
				<DataArray Name="VitesseX" type="Float32" format="ascii">
 0 0 0 0 0 0 0 0 0 0 0 0 0 0 0 0 0 0 0 0 0 0 0 0 0 0 0 0 0 0 0 0 0 0 0 0 0 0 0 0 0 0 0 0 0 0 0 0 0 0 -0 0 -0.000413015 -0.00164571 -0.00367871 -0.00648008 -0.0100057 -0.0142001 -0.018997 -0.0243209 -0.0300877 -0.0362064 -0.0425805 -0.0491086 -0.055688 -0.0622158 -0.0685883 -0.0747049 -0.0804691 -0.0857898 -0.0905831 -0.0947735 -0.0982948 -0.101092 -0.103129 -0.104349 -0.104753 -0.104341 -0.103087 -0.101044 -0.0982349 -0.0947032 -0.090505 -0.0857066 -0.0803835 -0.0746198 -0.0685062 -0.0621388 -0.0556185 -0.049047 -0.0425272 -0.0361623 -0.0300526 -0.0242942 -0.0189777 -0.014187 -0.00999755 -0.0064755 -0.0036765 -0.00164475 -0.000412881 -4.48209e-27 0 -0.000819739 -0.00326752 -0.00730616 -0.0128735 -0.0198829 -0.0282246 -0.0377673 -0.0483604 -0.0598364 -0.0720132 -0.0846975 -0.0976853 -0.110771 -0.123751 -0.136415 -0.148563 -0.160002 -0.17055 -0.180041 -0.188324 -0.19527 -0.20077 -0.20477 -0.207122 -0.207849 -0.207002 -0.204441 -0.20034 -0.194723 -0.187681 -0.179325 -0.169787 -0.159217 -0.147782 -0.135661 -0.123044 -0.11013 -0.0971191 -0.0842114 -0.0716121 -0.0595184 -0.0481196 -0.0375946 -0.0281089 -0.0198119 -0.0128349 -0.00728854 -0.00326103 -0.000818871 -8.89408e-27 0 -0.00121366 -0.00483901 -0.0108224 -0.0190731 -0.0294638 -0.0418326 -0.055985 -0.0716977 -0.0887215 -0.106786 -0.125602 -0.144865 -0.164268 -0.183511 -0.202279 -0.220273 -0.237206 -0.25281 -0.266836 -0.279063 -0.2893 -0.297387 -0.303263 -0.306673 -0.307657 -0.306371 -0.302484 -0.296351 -0.287983 -0.277514 -0.265111 -0.250971 -0.235316 -0.218391 -0.200462 -0.181807 -0.162723 -0.1435 -0.124431 -0.10582 -0.0879558 -0.071118 -0.0555696 -0.0415545 -0.0292934 -0.0189806 -0.0107803 -0.00482376 -0.00121162 -1.31665e-26 0 -0.00158858 -0.00633557 -0.0141725 -0.0249824 -0.0385999 -0.0548136 -0.0733693 -0.0939737 -0.116299 -0.13999 -0.164666 -0.189924 -0.21536 -0.24058 -0.265169 -0.288733 -0.310894 -0.3313 -0.349626 -0.365583 -0.378921 -0.389434 -0.397058 -0.401438 -0.402602 -0.400877 -0.39567 -0.387564 -0.376543 -0.362786 -0.346512 -0.32798 -0.30748 -0.285335 -0.261888 -0.237504 -0.212569 -0.187459 -0.162553 -0.138247 -0.114917 -0.0929274 -0.0726197 -0.054312 -0.0382928 -0.0248158 -0.0140969 -0.00630838 -0.00158495 -1.72316e-26 0 -0.00193859 -0.00773359 -0.0173037 -0.0305083 -0.0471472 -0.0669632 -0.0896461 -0.114837 -0.142136 -0.171104 -0.201276 -0.232154 -0.263242 -0.29406 -0.324095 -0.352864 -0.379904 -0.404784 -0.427106 -0.446519 -0.462719 -0.475457 -0.484673 -0.489917 -0.491185 -0.48902 -0.482527 -0.472538 -0.459006 -0.442151 -0.422244 -0.399599 -0.374574 -0.347559 -0.318972 -0.289257 -0.258883 -0.228304 -0.197976 -0.168382 -0.139978 -0.113204 -0.0884764 -0.0661808 -0.0466683 -0.0302488 -0.0171862 -0.00769161 -0.00193301 -2.10251e-26 0 -0.00225819 -0.00901102 -0.0201665 -0.0355636 -0.0549708 -0.0780896 -0.104559 -0.13396 -0.165823 -0.199636 -0.234853 -0.270888 -0.30716 -0.343107 -0.378128 -0.411655 -0.443148 -0.4721 -0.498052 -0.520592 -0.53937 -0.554097 -0.564721 -0.570706 -0.57201 -0.569402 -0.561681 -0.549932 -0.53407 -0.514357 -0.491111 -0.4647 -0.435538 -0.404081 -0.370815 -0.336251 -0.300935 -0.265392 -0.230143 -0.195751 -0.162744 -0.131629 -0.10289 -0.0769738 -0.0542882 -0.0351941 -0.0199995 -0.00895179 -0.00225033 -2.44869e-26 0 -0.00254234 -0.0101477 -0.0227158 -0.0400685 -0.0619473 -0.0880174 -0.117872 -0.151039 -0.186987 -0.225137 -0.264869 -0.305516 -0.34642 -0.386948 -0.426415 -0.464178 -0.499626 -0.532187 -0.561342 -0.586631 -0.607661 -0.624111 -0.635936 -0.642523 -0.643804 -0.640747 -0.631882 -0.618519 -0.600547 -0.578262 -0.552025 -0.522252 -0.489411 -0.45401 -0.416597 -0.377744 -0.338062 -0.298136 -0.258546 -0.219922 -0.182855 -0.147912 -0.115634 -0.0865211 -0.0610325 -0.0395738 -0.0224928 -0.0100692 -0.00253194 -2.75619e-26 0 -0.00278656 -0.0111257 -0.0249114 -0.043952 -0.0679666 -0.0965899 -0.129376 -0.165806 -0.205295 -0.247204 -0.290848 -0.33549 -0.380404 -0.42489 -0.468193 -0.509603 -0.548446 -0.584094 -0.615977 -0.643592 -0.666512 -0.684389 -0.697193 -0.704223 -0.705435 -0.701921 -0.692017 -0.677216 -0.657386 -0.632855 -0.604023 -0.571347 -0.535339 -0.496557 -0.455596 -0.41308 -0.369677 -0.32602 -0.282737 -0.240514 -0.199995 -0.161796 -0.126506 -0.0946726 -0.0667953 -0.0433193 -0.0246269 -0.0110264 -0.00277343 -3.02014e-26 0 -0.002987 -0.0119297 -0.0267187 -0.0471527 -0.0729337 -0.103672 -0.138889 -0.178027 -0.220456 -0.265487 -0.31238 -0.360336 -0.408572 -0.456333 -0.502801 -0.547211 -0.588835 -0.626998 -0.66109 -0.690573 -0.714991 -0.733978 -0.747522 -0.754826 -0.755932 -0.751951 -0.741135 -0.725093 -0.703686 -0.677273 -0.646282 -0.611207 -0.572597 -0.531048 -0.487194 -0.441702 -0.395281 -0.348602 -0.302332 -0.257202 -0.213893 -0.173062 -0.135337 -0.1013 -0.0714857 -0.0463716 -0.0263683 -0.0118085 -0.00297102 -3.23633e-26 0 -0.00314052 -0.0125468 -0.028109 -0.0496201 -0.0767701 -0.109151 -0.146259 -0.187508 -0.232231 -0.279698 -0.329124 -0.379661 -0.43048 -0.48078 -0.529692 -0.576406 -0.620153 -0.660221 -0.695968 -0.726829 -0.75233 -0.772091 -0.786128 -0.793526 -0.794499 -0.790045 -0.778458 -0.761393 -0.738716 -0.710811 -0.678132 -0.641201 -0.600594 -0.556937 -0.510893 -0.463156 -0.414469 -0.365526 -0.317023 -0.269721 -0.224329 -0.181533 -0.141986 -0.106298 -0.07503 -0.0486827 -0.0276897 -0.0124032 -0.00312163 -3.40135e-26 0 -0.00324468 -0.0129673 -0.0290605 -0.0513152 -0.0794151 -0.11294 -0.151372 -0.1941 -0.240434 -0.289611 -0.340815 -0.393159 -0.445781 -0.497842 -0.548439 -0.596726 -0.641905 -0.683237 -0.720058 -0.751787 -0.777939 -0.798128 -0.812404 -0.819708 -0.820554 -0.815819 -0.803722 -0.785973 -0.762438 -0.733519 -0.699691 -0.661494 -0.619527 -0.574436 -0.526904 -0.477647 -0.427427 -0.376957 -0.326947 -0.278181 -0.231384 -0.187262 -0.146485 -0.109682 -0.0774302 -0.0502479 -0.0285844 -0.0128056 -0.00322348 -3.51255e-26 0 -0.00329851 -0.0131899 -0.0295748 -0.0522491 -0.080897 -0.115095 -0.154314 -0.197932 -0.24524 -0.295453 -0.34773 -0.401153 -0.45484 -0.507919 -0.55946 -0.608593 -0.654497 -0.696415 -0.73367 -0.765674 -0.791938 -0.812079 -0.826217 -0.833019 -0.833591 -0.82799 -0.815232 -0.796727 -0.772421 -0.742733 -0.70815 -0.669222 -0.626553 -0.580795 -0.532631 -0.482776 -0.431995 -0.380988 -0.330472 -0.281223 -0.233968 -0.189409 -0.148218 -0.111027 -0.0784182 -0.050917 -0.0289823 -0.0129921 -0.00327269 -3.56818e-26 0 -0.00329854 -0.0131904 -0.0295771 -0.052256 -0.0809129 -0.115125 -0.154366 -0.198011 -0.245351 -0.2956 -0.347914 -0.401371 -0.455085 -0.508182 -0.559729 -0.608855 -0.654738 -0.696625 -0.733841 -0.765802 -0.792024 -0.812128 -0.826237 -0.833022 -0.833589 -0.827964 -0.815164 -0.7966 -0.772228 -0.742471 -0.707823 -0.668841 -0.626134 -0.580356 -0.532192 -0.482356 -0.431611 -0.38065 -0.330189 -0.280998 -0.233799 -0.18929 -0.14814 -0.110981 -0.0783939 -0.0509062 -0.0289787 -0.0129913 -0.00327263 -3.56735e-26 0 -0.0032495 -0.0130057 -0.0291874 -0.0516072 -0.0799641 -0.113846 -0.152732 -0.196003 -0.24295 -0.292784 -0.344658 -0.397641 -0.45085 -0.503396 -0.554341 -0.602811 -0.647984 -0.689106 -0.725507 -0.756612 -0.781951 -0.801163 -0.814485 -0.82014 -0.820361 -0.814061 -0.801037 -0.782319 -0.757953 -0.728367 -0.694053 -0.655563 -0.613494 -0.568483 -0.521197 -0.472328 -0.422615 -0.372718 -0.323337 -0.275212 -0.229038 -0.185492 -0.145222 -0.108842 -0.0769207 -0.0499768 -0.0284665 -0.0127699 -0.00321892 -3.51008e-26 0 -0.0031472 -0.0126001 -0.0282861 -0.0500291 -0.0775415 -0.110427 -0.148182 -0.190205 -0.235804 -0.284211 -0.334596 -0.386046 -0.437701 -0.488686 -0.538086 -0.585047 -0.628769 -0.66852 -0.703653 -0.733615 -0.757958 -0.776339 -0.789034 -0.79415 -0.794237 -0.787512 -0.774558 -0.75606 -0.732145 -0.703237 -0.669822 -0.632437 -0.591661 -0.548107 -0.502417 -0.45525 -0.407312 -0.359223 -0.311657 -0.265311 -0.220848 -0.17891 -0.140118 -0.105059 -0.0742804 -0.048285 -0.0275172 -0.0123511 -0.00311501 -3.39729e-26 0 -0.00299617 -0.0120029 -0.0269617 -0.0477138 -0.0739923 -0.105423 -0.141527 -0.181728 -0.22536 -0.271683 -0.319892 -0.369103 -0.41849 -0.467194 -0.514334 -0.559086 -0.600679 -0.638412 -0.671666 -0.699919 -0.72275 -0.739846 -0.751546 -0.755738 -0.755604 -0.748497 -0.735784 -0.71776 -0.694639 -0.666838 -0.634827 -0.599122 -0.560275 -0.518867 -0.475501 -0.430792 -0.385403 -0.339901 -0.294923 -0.251113 -0.209085 -0.16944 -0.132756 -0.0995868 -0.0704496 -0.0458217 -0.0261298 -0.0117365 -0.00296187 -3.23078e-26 0 -0.00279808 -0.0112177 -0.0252164 -0.0446561 -0.0692949 -0.0987873 -0.132686 -0.17045 -0.211449 -0.25498 -0.300277 -0.346497 -0.392857 -0.438531 -0.482683 -0.52453 -0.563341 -0.598455 -0.629295 -0.655375 -0.676311 -0.691821 -0.702304 -0.705462 -0.705076 -0.697647 -0.685337 -0.668032 -0.646036 -0.619751 -0.589626 -0.556149 -0.519837 -0.481228 -0.440875 -0.399344 -0.357236 -0.31506 -0.273402 -0.232842 -0.193936 -0.15723 -0.123253 -0.0925129 -0.0654887 -0.0426257 -0.024326 -0.0109356 -0.00276188 -3.01319e-26 0 -0.00255602 -0.0102568 -0.0230778 -0.0409043 -0.0635237 -0.0906251 -0.121801 -0.156551 -0.194291 -0.234366 -0.276062 -0.318586 -0.361211 -0.403154 -0.443637 -0.481928 -0.517349 -0.549289 -0.577218 -0.600696 -0.619381 -0.633062 -0.641995 -0.644261 -0.643333 -0.635831 -0.624023 -0.607671 -0.587111 -0.562726 -0.53494 -0.504204 -0.47099 -0.435787 -0.399091 -0.361402 -0.323256 -0.285091 -0.247435 -0.210787 -0.17564 -0.142474 -0.111759 -0.0839481 -0.0594757 -0.0387473 -0.0221342 -0.00996097 -0.00251817 -2.748e-26 0 -0.00227383 -0.00913564 -0.0205797 -0.0365176 -0.0567699 -0.0810654 -0.109042 -0.140249 -0.174157 -0.210169 -0.247629 -0.285812 -0.324052 -0.361623 -0.397814 -0.431957 -0.463434 -0.491694 -0.516262 -0.536751 -0.552867 -0.564528 -0.571504 -0.573214 -0.571315 -0.564022 -0.552818 -0.537636 -0.518799 -0.49667 -0.471637 -0.444109 -0.414509 -0.383265 -0.350808 -0.317569 -0.284002 -0.250471 -0.21743 -0.185297 -0.154486 -0.125404 -0.0984534 -0.0740274 -0.0525052 -0.0342474 -0.0195888 -0.00882777 -0.00223456 -2.43941e-26 0 -0.00195595 -0.00787172 -0.0177616 -0.0315653 -0.0491402 -0.0702592 -0.0946109 -0.121803 -0.151367 -0.182771 -0.21543 -0.248694 -0.281969 -0.314595 -0.34594 -0.375407 -0.40245 -0.426582 -0.447392 -0.464553 -0.477822 -0.487233 -0.492151 -0.49318 -0.490342 -0.483316 -0.472849 -0.459036 -0.442185 -0.422628 -0.400718 -0.376816 -0.351286 -0.324491 -0.29679 -0.268539 -0.240087 -0.211744 -0.183862 -0.156773 -0.130806 -0.106289 -0.0835474 -0.0629071 -0.0446871 -0.0291968 -0.0167296 -0.00755374 -0.00191549 -2.09233e-26 0 -0.00160738 -0.00648506 -0.0146679 -0.0261256 -0.0407551 -0.0583774 -0.0787369 -0.101504 -0.126279 -0.152605 -0.179974 -0.20782 -0.235627 -0.262815 -0.288836 -0.313174 -0.33536 -0.354982 -0.371698 -0.385242 -0.395432 -0.40239 -0.405211 -0.405402 -0.401706 -0.394987 -0.385379 -0.373113 -0.358476 -0.34177 -0.323304 -0.303386 -0.282319 -0.260393 -0.237889 -0.21508 -0.192208 -0.16952 -0.14726 -0.125666 -0.104975 -0.0854299 -0.0672754 -0.0507622 -0.0361443 -0.0236749 -0.0136018 -0.00615881 -0.00156596 -1.71227e-26 0 -0.00123362 -0.00499751 -0.0113475 -0.0202844 -0.031747 -0.0456076 -0.0616704 -0.0796734 -0.0992924 -0.120149 -0.141819 -0.163838 -0.185759 -0.2071 -0.227403 -0.24624 -0.263224 -0.278024 -0.290371 -0.300069 -0.307061 -0.311129 -0.312338 -0.311032 -0.306893 -0.300426 -0.291786 -0.28122 -0.268991 -0.255368 -0.240612 -0.224975 -0.208692 -0.191979 -0.175035 -0.15803 -0.141123 -0.124466 -0.1082 -0.092464 -0.0773995 -0.0631561 -0.0498936 -0.0377841 -0.0270114 -0.0177687 -0.0102544 -0.00466483 -0.00119146 -1.30524e-26 0 -0.000840557 -0.00343257 -0.00785269 -0.014134 -0.0222583 -0.0321514 -0.0436808 -0.056656 -0.0708318 -0.0859152 -0.101571 -0.117439 -0.133151 -0.148329 -0.16261 -0.175658 -0.187176 -0.196918 -0.204692 -0.210397 -0.213942 -0.215221 -0.214603 -0.211832 -0.207302 -0.201119 -0.19354 -0.184801 -0.175138 -0.164781 -0.153944 -0.142817 -0.131569 -0.120328 -0.109206 -0.0982874 -0.0876334 -0.0772908 -0.0672977 -0.0576911 -0.0485131 -0.0398179 -0.0316759 -0.0241771 -0.0174321 -0.011571 -0.00674002 -0.00309526 -0.000797856 -8.77692e-27 0 -0.000434385 -0.00181489 -0.00423871 -0.00777126 -0.0124385 -0.0182212 -0.0250522 -0.032815 -0.041347 -0.0504439 -0.0598658 -0.0693535 -0.0786327 -0.0874279 -0.0954762 -0.102539 -0.108413 -0.112938 -0.116035 -0.117532 -0.117633 -0.11619 -0.113426 -0.10946 -0.104468 -0.0986236 -0.0921868 -0.0853764 -0.0784036 -0.0714496 -0.0646803 -0.0582239 -0.0521727 -0.0465812 -0.0414685 -0.036822 -0.0326032 -0.0287555 -0.0252127 -0.0219077 -0.0187814 -0.0157906 -0.0129144 -0.0101588 -0.00755919 -0.00518047 -0.00311439 -0.0014748 -0.000391353 -4.36386e-27 0 -2.15049e-05 -0.000170011 -0.000562511 -0.00129663 -0.00244257 -0.00403685 -0.0060783 -0.0085265 -0.0113029 -0.0142947 -0.0173609 -0.0203405 -0.023062 -0.0253544 -0.0270575 -0.0280325 -0.028171 -0.0274029 -0.0257013 -0.0230854 -0.0196214 -0.0154187 -0.0106248 -0.00541845 -7.36227e-08 0.00541852 0.010625 0.015419 0.0196219 0.0230857 0.0257013 0.0274028 0.0281709 0.0280324 0.0270575 0.0253544 0.023062 0.0203405 0.017361 0.0142948 0.011303 0.00852658 0.00607834 0.00403686 0.00244258 0.00129663 0.000562511 0.000170011 2.15049e-05 1.17119e-28 0 0.000391353 0.0014748 0.00311439 0.00518047 0.00755919 0.0101588 0.0129144 0.0157907 0.0187815 0.0219078 0.0252128 0.0287556 0.0326033 0.036822 0.0414685 0.0465812 0.0521727 0.0582239 0.0646803 0.0714499 0.0784039 0.0853766 0.0921869 0.0986237 0.104468 0.10946 0.113426 0.11619 0.117633 0.117533 0.116035 0.112938 0.108413 0.102539 0.0954761 0.0874278 0.0786327 0.0693535 0.0598659 0.050444 0.041347 0.0328151 0.0250522 0.0182213 0.0124385 0.00777126 0.00423871 0.00181489 0.000434385 4.59534e-27 0 0.000797856 0.00309526 0.00674002 0.011571 0.0174321 0.0241771 0.0316759 0.039818 0.0485132 0.0576911 0.0672978 0.0772909 0.0876335 0.0982875 0.109206 0.120328 0.131569 0.142817 0.153944 0.164781 0.175138 0.184801 0.19354 0.201119 0.207303 0.211833 0.214603 0.215222 0.213943 0.210398 0.204692 0.196917 0.187176 0.175658 0.16261 0.148329 0.133151 0.117439 0.101571 0.0859152 0.0708318 0.056656 0.0436809 0.0321514 0.0222583 0.014134 0.00785269 0.00343257 0.000840557 9.00027e-27 0 0.00119146 0.00466483 0.0102544 0.0177687 0.0270114 0.0377841 0.0498936 0.0631561 0.0773996 0.0924641 0.1082 0.124466 0.141123 0.15803 0.175035 0.191979 0.208693 0.224975 0.240612 0.255368 0.268992 0.28122 0.291786 0.300426 0.306893 0.311032 0.312338 0.31113 0.307062 0.30007 0.290372 0.278024 0.263224 0.24624 0.227403 0.2071 0.185759 0.163838 0.141819 0.120149 0.0992924 0.0796734 0.0616704 0.0456076 0.031747 0.0202844 0.0113475 0.00499751 0.00123362 1.32626e-26 0 0.00156596 0.00615881 0.0136018 0.0236749 0.0361443 0.0507623 0.0672754 0.08543 0.104975 0.125666 0.14726 0.16952 0.192209 0.215081 0.237889 0.260393 0.282319 0.303386 0.323304 0.34177 0.358476 0.373113 0.385379 0.394987 0.401706 0.405402 0.405212 0.402391 0.395432 0.385244 0.371698 0.354982 0.33536 0.313174 0.288836 0.262815 0.235627 0.20782 0.179974 0.152605 0.126279 0.101504 0.078737 0.0583774 0.0407551 0.0261256 0.0146679 0.00648506 0.00160738 1.73154e-26 0 0.00191549 0.00755374 0.0167296 0.0291968 0.0446871 0.0629071 0.0835474 0.106289 0.130806 0.156774 0.183862 0.211743 0.240086 0.268539 0.29679 0.324492 0.351286 0.376816 0.400718 0.422628 0.442185 0.459036 0.472849 0.483316 0.490342 0.493181 0.492152 0.487234 0.477823 0.464554 0.447393 0.426582 0.402449 0.375407 0.34594 0.314595 0.281969 0.248694 0.21543 0.182771 0.151367 0.121803 0.094611 0.0702593 0.0491402 0.0315653 0.0177616 0.00787172 0.00195595 2.10949e-26 0 0.00223456 0.00882777 0.0195888 0.0342474 0.0525052 0.0740274 0.0984534 0.125404 0.154486 0.185297 0.21743 0.25047 0.284001 0.317569 0.350808 0.383265 0.414509 0.444109 0.471637 0.49667 0.5188 0.537636 0.552818 0.564023 0.571315 0.573214 0.571504 0.564528 0.552868 0.536752 0.516262 0.491694 0.463434 0.431956 0.397813 0.361623 0.324052 0.285812 0.247629 0.210169 0.174157 0.140249 0.109042 0.0810654 0.0567699 0.0365176 0.0205797 0.00913564 0.00227383 2.4542e-26 0 0.00251817 0.00996097 0.0221342 0.0387473 0.0594757 0.0839481 0.111759 0.142474 0.17564 0.210788 0.247435 0.285091 0.323256 0.361402 0.399091 0.435787 0.470991 0.504204 0.53494 0.562726 0.587111 0.607672 0.624024 0.635831 0.643333 0.644261 0.641996 0.633063 0.619382 0.600697 0.577218 0.549289 0.517349 0.481928 0.443637 0.403154 0.361211 0.318586 0.276062 0.234366 0.194291 0.15655 0.121801 0.0906251 0.0635237 0.0409043 0.0230778 0.0102568 0.00255602 2.76025e-26 0 0.00276188 0.0109356 0.024326 0.0426257 0.0654887 0.0925129 0.123253 0.15723 0.193936 0.232842 0.273402 0.31506 0.357236 0.399344 0.440875 0.481228 0.519837 0.55615 0.589626 0.619751 0.646036 0.668033 0.685338 0.697647 0.705076 0.705462 0.702304 0.691821 0.676311 0.655375 0.629295 0.598455 0.563341 0.52453 0.482683 0.438531 0.392857 0.346497 0.300277 0.25498 0.211449 0.17045 0.132687 0.0987873 0.0692949 0.0446561 0.0252164 0.0112177 0.00279808 3.02287e-26 0 0.00296187 0.0117365 0.0261298 0.0458217 0.0704496 0.0995868 0.132756 0.16944 0.209085 0.251113 0.294923 0.339901 0.385403 0.430792 0.475501 0.518867 0.560275 0.599122 0.634827 0.666838 0.69464 0.71776 0.735784 0.748498 0.755604 0.755738 0.751546 0.739846 0.72275 0.699918 0.671665 0.638411 0.600679 0.559086 0.514334 0.467194 0.41849 0.369103 0.319892 0.271683 0.22536 0.181728 0.141527 0.105423 0.0739923 0.0477138 0.0269617 0.0120029 0.00299617 3.23793e-26 0 0.00311501 0.0123511 0.0275172 0.048285 0.0742804 0.105059 0.140118 0.17891 0.220848 0.265311 0.311656 0.359223 0.407312 0.45525 0.502417 0.548107 0.591661 0.632437 0.669822 0.703238 0.732145 0.75606 0.774558 0.787512 0.794237 0.79415 0.789034 0.776339 0.757957 0.733615 0.703653 0.66852 0.628769 0.585047 0.538086 0.488686 0.437701 0.386046 0.334595 0.284211 0.235804 0.190205 0.148182 0.110427 0.0775415 0.0500291 0.0282861 0.0126001 0.0031472 3.40208e-26 0 0.00321892 0.0127699 0.0284665 0.0499768 0.0769207 0.108842 0.145222 0.185492 0.229038 0.275212 0.323337 0.372718 0.422614 0.472328 0.521197 0.568483 0.613494 0.655563 0.694053 0.728367 0.757953 0.782319 0.801037 0.814061 0.820362 0.82014 0.814485 0.801162 0.78195 0.756611 0.725506 0.689106 0.647984 0.602811 0.554341 0.503396 0.45085 0.397641 0.344658 0.292784 0.24295 0.196003 0.152732 0.113846 0.0799641 0.0516072 0.0291874 0.0130057 0.0032495 3.51274e-26 0 0.00327263 0.0129913 0.0289787 0.0509062 0.0783939 0.110981 0.14814 0.18929 0.233799 0.280998 0.330189 0.38065 0.431611 0.482356 0.532192 0.580356 0.626134 0.668841 0.707823 0.742471 0.772228 0.7966 0.815164 0.827964 0.833589 0.833022 0.826237 0.812127 0.792023 0.765802 0.733841 0.696625 0.654738 0.608854 0.559729 0.508182 0.455085 0.401371 0.347914 0.2956 0.245351 0.198011 0.154366 0.115125 0.0809129 0.052256 0.0295771 0.0131904 0.00329854 3.56818e-26 0 0.00327269 0.0129921 0.0289823 0.050917 0.0784182 0.111027 0.148218 0.189409 0.233968 0.281223 0.330472 0.380988 0.431995 0.482776 0.532631 0.580795 0.626553 0.669222 0.70815 0.742733 0.772421 0.796727 0.815232 0.82799 0.833591 0.833019 0.826217 0.812079 0.791938 0.765674 0.73367 0.696415 0.654497 0.608593 0.55946 0.507919 0.45484 0.401153 0.34773 0.295453 0.245239 0.197932 0.154314 0.115095 0.080897 0.0522491 0.0295748 0.0131899 0.00329851 3.56753e-26 0 0.00322348 0.0128056 0.0285844 0.0502479 0.0774302 0.109682 0.146485 0.187262 0.231384 0.278181 0.326947 0.376957 0.427427 0.477646 0.526904 0.574436 0.619527 0.661494 0.699691 0.733519 0.762438 0.785973 0.803722 0.815819 0.820554 0.819708 0.812404 0.798128 0.777939 0.751787 0.720058 0.683237 0.641905 0.596726 0.548439 0.497842 0.445781 0.393159 0.340815 0.289611 0.240434 0.1941 0.151372 0.11294 0.0794151 0.0513152 0.0290605 0.0129673 0.00324468 3.5108e-26 0 0.00312163 0.0124032 0.0276897 0.0486827 0.07503 0.106298 0.141986 0.181533 0.224329 0.269721 0.317023 0.365526 0.414469 0.463155 0.510893 0.556937 0.600594 0.641201 0.678132 0.710811 0.738716 0.761393 0.778458 0.790045 0.794499 0.793525 0.786128 0.772091 0