<?xml version="1.0"?>
<VTKFile type="PolyData">
	<PolyData>
		<Piece NumberOfPoints="2601" NumberOfPolys="2500">
			<Points>
				<DataArray type="Float32" NumberOfComponents="3" format="ascii">
 0 0 0 0.02 0 0 0.04 0 0 0.06 0 0 0.08 0 0 0.1 0 0 0.12 0 0 0.14 0 0 0.16 0 0 0.18 0 0 0.2 0 0 0.22 0 0 0.24 0 0 0.26 0 0 0.28 0 0 0.3 0 0 0.32 0 0 0.34 0 0 0.36 0 0 0.38 0 0 0.4 0 0 0.42 0 0 0.44 0 0 0.46 0 0 0.48 0 0 0.5 0 0 0.52 0 0 0.54 0 0 0.56 0 0 0.58 0 0 0.6 0 0 0.62 0 0 0.64 0 0 0.66 0 0 0.68 0 0 0.7 0 0 0.72 0 0 0.74 0 0 0.76 0 0 0.78 0 0 0.8 0 0 0.82 0 0 0.84 0 0 0.86 0 0 0.88 0 0 0.9 0 0 0.92 0 0 0.94 0 0 0.96 0 0 0.98 0 0 1 0 0 0 0.02 0 0.02 0.02 0 0.04 0.02 0 0.06 0.02 0 0.08 0.02 0 0.1 0.02 0 0.12 0.02 0 0.14 0.02 0 0.16 0.02 0 0.18 0.02 0 0.2 0.02 0 0.22 0.02 0 0.24 0.02 0 0.26 0.02 0 0.28 0.02 0 0.3 0.02 0 0.32 0.02 0 0.34 0.02 0 0.36 0.02 0 0.38 0.02 0 0.4 0.02 0 0.42 0.02 0 0.44 0.02 0 0.46 0.02 0 0.48 0.02 0 0.5 0.02 0 0.52 0.02 0 0.54 0.02 0 0.56 0.02 0 0.58 0.02 0 0.6 0.02 0 0.62 0.02 0 0.64 0.02 0 0.66 0.02 0 0.68 0.02 0 0.7 0.02 0 0.72 0.02 0 0.74 0.02 0 0.76 0.02 0 0.78 0.02 0 0.8 0.02 0 0.82 0.02 0 0.84 0.02 0 0.86 0.02 0 0.88 0.02 0 0.9 0.02 0 0.92 0.02 0 0.94 0.02 0 0.96 0.02 0 0.98 0.02 0 1 0.02 0 0 0.04 0 0.02 0.04 0 0.04 0.04 0 0.06 0.04 0 0.08 0.04 0 0.1 0.04 0 0.12 0.04 0 0.14 0.04 0 0.16 0.04 0 0.18 0.04 0 0.2 0.04 0 0.22 0.04 0 0.24 0.04 0 0.26 0.04 0 0.28 0.04 0 0.3 0.04 0 0.32 0.04 0 0.34 0.04 0 0.36 0.04 0 0.38 0.04 0 0.4 0.04 0 0.42 0.04 0 0.44 0.04 0 0.46 0.04 0 0.48 0.04 0 0.5 0.04 0 0.52 0.04 0 0.54 0.04 0 0.56 0.04 0 0.58 0.04 0 0.6 0.04 0 0.62 0.04 0 0.64 0.04 0 0.66 0.04 0 0.68 0.04 0 0.7 0.04 0 0.72 0.04 0 0.74 0.04 0 0.76 0.04 0 0.78 0.04 0 0.8 0.04 0 0.82 0.04 0 0.84 0.04 0 0.86 0.04 0 0.88 0.04 0 0.9 0.04 0 0.92 0.04 0 0.94 0.04 0 0.96 0.04 0 0.98 0.04 0 1 0.04 0 0 0.06 0 0.02 0.06 0 0.04 0.06 0 0.06 0.06 0 0.08 0.06 0 0.1 0.06 0 0.12 0.06 0 0.14 0.06 0 0.16 0.06 0 0.18 0.06 0 0.2 0.06 0 0.22 0.06 0 0.24 0.06 0 0.26 0.06 0 0.28 0.06 0 0.3 0.06 0 0.32 0.06 0 0.34 0.06 0 0.36 0.06 0 0.38 0.06 0 0.4 0.06 0 0.42 0.06 0 0.44 0.06 0 0.46 0.06 0 0.48 0.06 0 0.5 0.06 0 0.52 0.06 0 0.54 0.06 0 0.56 0.06 0 0.58 0.06 0 0.6 0.06 0 0.62 0.06 0 0.64 0.06 0 0.66 0.06 0 0.68 0.06 0 0.7 0.06 0 0.72 0.06 0 0.74 0.06 0 0.76 0.06 0 0.78 0.06 0 0.8 0.06 0 0.82 0.06 0 0.84 0.06 0 0.86 0.06 0 0.88 0.06 0 0.9 0.06 0 0.92 0.06 0 0.94 0.06 0 0.96 0.06 0 0.98 0.06 0 1 0.06 0 0 0.08 0 0.02 0.08 0 0.04 0.08 0 0.06 0.08 0 0.08 0.08 0 0.1 0.08 0 0.12 0.08 0 0.14 0.08 0 0.16 0.08 0 0.18 0.08 0 0.2 0.08 0 0.22 0.08 0 0.24 0.08 0 0.26 0.08 0 0.28 0.08 0 0.3 0.08 0 0.32 0.08 0 0.34 0.08 0 0.36 0.08 0 0.38 0.08 0 0.4 0.08 0 0.42 0.08 0 0.44 0.08 0 0.46 0.08 0 0.48 0.08 0 0.5 0.08 0 0.52 0.08 0 0.54 0.08 0 0.56 0.08 0 0.58 0.08 0 0.6 0.08 0 0.62 0.08 0 0.64 0.08 0 0.66 0.08 0 0.68 0.08 0 0.7 0.08 0 0.72 0.08 0 0.74 0.08 0 0.76 0.08 0 0.78 0.08 0 0.8 0.08 0 0.82 0.08 0 0.84 0.08 0 0.86 0.08 0 0.88 0.08 0 0.9 0.08 0 0.92 0.08 0 0.94 0.08 0 0.96 0.08 0 0.98 0.08 0 1 0.08 0 0 0.1 0 0.02 0.1 0 0.04 0.1 0 0.06 0.1 0 0.08 0.1 0 0.1 0.1 0 0.12 0.1 0 0.14 0.1 0 0.16 0.1 0 0.18 0.1 0 0.2 0.1 0 0.22 0.1 0 0.24 0.1 0 0.26 0.1 0 0.28 0.1 0 0.3 0.1 0 0.32 0.1 0 0.34 0.1 0 0.36 0.1 0 0.38 0.1 0 0.4 0.1 0 0.42 0.1 0 0.44 0.1 0 0.46 0.1 0 0.48 0.1 0 0.5 0.1 0 0.52 0.1 0 0.54 0.1 0 0.56 0.1 0 0.58 0.1 0 0.6 0.1 0 0.62 0.1 0 0.64 0.1 0 0.66 0.1 0 0.68 0.1 0 0.7 0.1 0 0.72 0.1 0 0.74 0.1 0 0.76 0.1 0 0.78 0.1 0 0.8 0.1 0 0.82 0.1 0 0.84 0.1 0 0.86 0.1 0 0.88 0.1 0 0.9 0.1 0 0.92 0.1 0 0.94 0.1 0 0.96 0.1 0 0.98 0.1 0 1 0.1 0 0 0.12 0 0.02 0.12 0 0.04 0.12 0 0.06 0.12 0 0.08 0.12 0 0.1 0.12 0 0.12 0.12 0 0.14 0.12 0 0.16 0.12 0 0.18 0.12 0 0.2 0.12 0 0.22 0.12 0 0.24 0.12 0 0.26 0.12 0 0.28 0.12 0 0.3 0.12 0 0.32 0.12 0 0.34 0.12 0 0.36 0.12 0 0.38 0.12 0 0.4 0.12 0 0.42 0.12 0 0.44 0.12 0 0.46 0.12 0 0.48 0.12 0 0.5 0.12 0 0.52 0.12 0 0.54 0.12 0 0.56 0.12 0 0.58 0.12 0 0.6 0.12 0 0.62 0.12 0 0.64 0.12 0 0.66 0.12 0 0.68 0.12 0 0.7 0.12 0 0.72 0.12 0 0.74 0.12 0 0.76 0.12 0 0.78 0.12 0 0.8 0.12 0 0.82 0.12 0 0.84 0.12 0 0.86 0.12 0 0.88 0.12 0 0.9 0.12 0 0.92 0.12 0 0.94 0.12 0 0.96 0.12 0 0.98 0.12 0 1 0.12 0 0 0.14 0 0.02 0.14 0 0.04 0.14 0 0.06 0.14 0 0.08 0.14 0 0.1 0.14 0 0.12 0.14 0 0.14 0.14 0 0.16 0.14 0 0.18 0.14 0 0.2 0.14 0 0.22 0.14 0 0.24 0.14 0 0.26 0.14 0 0.28 0.14 0 0.3 0.14 0 0.32 0.14 0 0.34 0.14 0 0.36 0.14 0 0.38 0.14 0 0.4 0.14 0 0.42 0.14 0 0.44 0.14 0 0.46 0.14 0 0.48 0.14 0 0.5 0.14 0 0.52 0.14 0 0.54 0.14 0 0.56 0.14 0 0.58 0.14 0 0.6 0.14 0 0.62 0.14 0 0.64 0.14 0 0.66 0.14 0 0.68 0.14 0 0.7 0.14 0 0.72 0.14 0 0.74 0.14 0 0.76 0.14 0 0.78 0.14 0 0.8 0.14 0 0.82 0.14 0 0.84 0.14 0 0.86 0.14 0 0.88 0.14 0 0.9 0.14 0 0.92 0.14 0 0.94 0.14 0 0.96 0.14 0 0.98 0.14 0 1 0.14 0 0 0.16 0 0.02 0.16 0 0.04 0.16 0 0.06 0.16 0 0.08 0.16 0 0.1 0.16 0 0.12 0.16 0 0.14 0.16 0 0.16 0.16 0 0.18 0.16 0 0.2 0.16 0 0.22 0.16 0 0.24 0.16 0 0.26 0.16 0 0.28 0.16 0 0.3 0.16 0 0.32 0.16 0 0.34 0.16 0 0.36 0.16 0 0.38 0.16 0 0.4 0.16 0 0.42 0.16 0 0.44 0.16 0 0.46 0.16 0 0.48 0.16 0 0.5 0.16 0 0.52 0.16 0 0.54 0.16 0 0.56 0.16 0 0.58 0.16 0 0.6 0.16 0 0.62 0.16 0 0.64 0.16 0 0.66 0.16 0 0.68 0.16 0 0.7 0.16 0 0.72 0.16 0 0.74 0.16 0 0.76 0.16 0 0.78 0.16 0 0.8 0.16 0 0.82 0.16 0 0.84 0.16 0 0.86 0.16 0 0.88 0.16 0 0.9 0.16 0 0.92 0.16 0 0.94 0.16 0 0.96 0.16 0 0.98 0.16 0 1 0.16 0 0 0.18 0 0.02 0.18 0 0.04 0.18 0 0.06 0.18 0 0.08 0.18 0 0.1 0.18 0 0.12 0.18 0 0.14 0.18 0 0.16 0.18 0 0.18 0.18 0 0.2 0.18 0 0.22 0.18 0 0.24 0.18 0 0.26 0.18 0 0.28 0.18 0 0.3 0.18 0 0.32 0.18 0 0.34 0.18 0 0.36 0.18 0 0.38 0.18 0 0.4 0.18 0 0.42 0.18 0 0.44 0.18 0 0.46 0.18 0 0.48 0.18 0 0.5 0.18 0 0.52 0.18 0 0.54 0.18 0 0.56 0.18 0 0.58 0.18 0 0.6 0.18 0 0.62 0.18 0 0.64 0.18 0 0.66 0.18 0 0.68 0.18 0 0.7 0.18 0 0.72 0.18 0 0.74 0.18 0 0.76 0.18 0 0.78 0.18 0 0.8 0.18 0 0.82 0.18 0 0.84 0.18 0 0.86 0.18 0 0.88 0.18 0 0.9 0.18 0 0.92 0.18 0 0.94 0.18 0 0.96 0.18 0 0.98 0.18 0 1 0.18 0 0 0.2 0 0.02 0.2 0 0.04 0.2 0 0.06 0.2 0 0.08 0.2 0 0.1 0.2 0 0.12 0.2 0 0.14 0.2 0 0.16 0.2 0 0.18 0.2 0 0.2 0.2 0 0.22 0.2 0 0.24 0.2 0 0.26 0.2 0 0.28 0.2 0 0.3 0.2 0 0.32 0.2 0 0.34 0.2 0 0.36 0.2 0 0.38 0.2 0 0.4 0.2 0 0.42 0.2 0 0.44 0.2 0 0.46 0.2 0 0.48 0.2 0 0.5 0.2 0 0.52 0.2 0 0.54 0.2 0 0.56 0.2 0 0.58 0.2 0 0.6 0.2 0 0.62 0.2 0 0.64 0.2 0 0.66 0.2 0 0.68 0.2 0 0.7 0.2 0 0.72 0.2 0 0.74 0.2 0 0.76 0.2 0 0.78 0.2 0 0.8 0.2 0 0.82 0.2 0 0.84 0.2 0 0.86 0.2 0 0.88 0.2 0 0.9 0.2 0 0.92 0.2 0 0.94 0.2 0 0.96 0.2 0 0.98 0.2 0 1 0.2 0 0 0.22 0 0.02 0.22 0 0.04 0.22 0 0.06 0.22 0 0.08 0.22 0 0.1 0.22 0 0.12 0.22 0 0.14 0.22 0 0.16 0.22 0 0.18 0.22 0 0.2 0.22 0 0.22 0.22 0 0.24 0.22 0 0.26 0.22 0 0.28 0.22 0 0.3 0.22 0 0.32 0.22 0 0.34 0.22 0 0.36 0.22 0 0.38 0.22 0 0.4 0.22 0 0.42 0.22 0 0.44 0.22 0 0.46 0.22 0 0.48 0.22 0 0.5 0.22 0 0.52 0.22 0 0.54 0.22 0 0.56 0.22 0 0.58 0.22 0 0.6 0.22 0 0.62 0.22 0 0.64 0.22 0 0.66 0.22 0 0.68 0.22 0 0.7 0.22 0 0.72 0.22 0 0.74 0.22 0 0.76 0.22 0 0.78 0.22 0 0.8 0.22 0 0.82 0.22 0 0.84 0.22 0 0.86 0.22 0 0.88 0.22 0 0.9 0.22 0 0.92 0.22 0 0.94 0.22 0 0.96 0.22 0 0.98 0.22 0 1 0.22 0 0 0.24 0 0.02 0.24 0 0.04 0.24 0 0.06 0.24 0 0.08 0.24 0 0.1 0.24 0 0.12 0.24 0 0.14 0.24 0 0.16 0.24 0 0.18 0.24 0 0.2 0.24 0 0.22 0.24 0 0.24 0.24 0 0.26 0.24 0 0.28 0.24 0 0.3 0.24 0 0.32 0.24 0 0.34 0.24 0 0.36 0.24 0 0.38 0.24 0 0.4 0.24 0 0.42 0.24 0 0.44 0.24 0 0.46 0.24 0 0.48 0.24 0 0.5 0.24 0 0.52 0.24 0 0.54 0.24 0 0.56 0.24 0 0.58 0.24 0 0.6 0.24 0 0.62 0.24 0 0.64 0.24 0 0.66 0.24 0 0.68 0.24 0 0.7 0.24 0 0.72 0.24 0 0.74 0.24 0 0.76 0.24 0 0.78 0.24 0 0.8 0.24 0 0.82 0.24 0 0.84 0.24 0 0.86 0.24 0 0.88 0.24 0 0.9 0.24 0 0.92 0.24 0 0.94 0.24 0 0.96 0.24 0 0.98 0.24 0 1 0.24 0 0 0.26 0 0.02 0.26 0 0.04 0.26 0 0.06 0.26 0 0.08 0.26 0 0.1 0.26 0 0.12 0.26 0 0.14 0.26 0 0.16 0.26 0 0.18 0.26 0 0.2 0.26 0 0.22 0.26 0 0.24 0.26 0 0.26 0.26 0 0.28 0.26 0 0.3 0.26 0 0.32 0.26 0 0.34 0.26 0 0.36 0.26 0 0.38 0.26 0 0.4 0.26 0 0.42 0.26 0 0.44 0.26 0 0.46 0.26 0 0.48 0.26 0 0.5 0.26 0 0.52 0.26 0 0.54 0.26 0 0.56 0.26 0 0.58 0.26 0 0.6 0.26 0 0.62 0.26 0 0.64 0.26 0 0.66 0.26 0 0.68 0.26 0 0.7 0.26 0 0.72 0.26 0 0.74 0.26 0 0.76 0.26 0 0.78 0.26 0 0.8 0.26 0 0.82 0.26 0 0.84 0.26 0 0.86 0.26 0 0.88 0.26 0 0.9 0.26 0 0.92 0.26 0 0.94 0.26 0 0.96 0.26 0 0.98 0.26 0 1 0.26 0 0 0.28 0 0.02 0.28 0 0.04 0.28 0 0.06 0.28 0 0.08 0.28 0 0.1 0.28 0 0.12 0.28 0 0.14 0.28 0 0.16 0.28 0 0.18 0.28 0 0.2 0.28 0 0.22 0.28 0 0.24 0.28 0 0.26 0.28 0 0.28 0.28 0 0.3 0.28 0 0.32 0.28 0 0.34 0.28 0 0.36 0.28 0 0.38 0.28 0 0.4 0.28 0 0.42 0.28 0 0.44 0.28 0 0.46 0.28 0 0.48 0.28 0 0.5 0.28 0 0.52 0.28 0 0.54 0.28 0 0.56 0.28 0 0.58 0.28 0 0.6 0.28 0 0.62 0.28 0 0.64 0.28 0 0.66 0.28 0 0.68 0.28 0 0.7 0.28 0 0.72 0.28 0 0.74 0.28 0 0.76 0.28 0 0.78 0.28 0 0.8 0.28 0 0.82 0.28 0 0.84 0.28 0 0.86 0.28 0 0.88 0.28 0 0.9 0.28 0 0.92 0.28 0 0.94 0.28 0 0.96 0.28 0 0.98 0.28 0 1 0.28 0 0 0.3 0 0.02 0.3 0 0.04 0.3 0 0.06 0.3 0 0.08 0.3 0 0.1 0.3 0 0.12 0.3 0 0.14 0.3 0 0.16 0.3 0 0.18 0.3 0 0.2 0.3 0 0.22 0.3 0 0.24 0.3 0 0.26 0.3 0 0.28 0.3 0 0.3 0.3 0 0.32 0.3 0 0.34 0.3 0 0.36 0.3 0 0.38 0.3 0 0.4 0.3 0 0.42 0.3 0 0.44 0.3 0 0.46 0.3 0 0.48 0.3 0 0.5 0.3 0 0.52 0.3 0 0.54 0.3 0 0.56 0.3 0 0.58 0.3 0 0.6 0.3 0 0.62 0.3 0 0.64 0.3 0 0.66 0.3 0 0.68 0.3 0 0.7 0.3 0 0.72 0.3 0 0.74 0.3 0 0.76 0.3 0 0.78 0.3 0 0.8 0.3 0 0.82 0.3 0 0.84 0.3 0 0.86 0.3 0 0.88 0.3 0 0.9 0.3 0 0.92 0.3 0 0.94 0.3 0 0.96 0.3 0 0.98 0.3 0 1 0.3 0 0 0.32 0 0.02 0.32 0 0.04 0.32 0 0.06 0.32 0 0.08 0.32 0 0.1 0.32 0 0.12 0.32 0 0.14 0.32 0 0.16 0.32 0 0.18 0.32 0 0.2 0.32 0 0.22 0.32 0 0.24 0.32 0 0.26 0.32 0 0.28 0.32 0 0.3 0.32 0 0.32 0.32 0 0.34 0.32 0 0.36 0.32 0 0.38 0.32 0 0.4 0.32 0 0.42 0.32 0 0.44 0.32 0 0.46 0.32 0 0.48 0.32 0 0.5 0.32 0 0.52 0.32 0 0.54 0.32 0 0.56 0.32 0 0.58 0.32 0 0.6 0.32 0 0.62 0.32 0 0.64 0.32 0 0.66 0.32 0 0.68 0.32 0 0.7 0.32 0 0.72 0.32 0 0.74 0.32 0 0.76 0.32 0 0.78 0.32 0 0.8 0.32 0 0.82 0.32 0 0.84 0.32 0 0.86 0.32 0 0.88 0.32 0 0.9 0.32 0 0.92 0.32 0 0.94 0.
[...]
			<PointData Scalars="VitesseX">
				<DataArray Name="VitesseX" type="Float32" format="ascii">
 0 0 0 0 0 0 0 0 0 0 0 0 0 0 0 0 0 0 0 0 0 0 0 0 0 0 0 0 0 0 0 0 0 0 0 0 0 0 0 0 0 0 0 0 0 0 0 0 0 0 0 0 0.000320844 0.00127816 0.00285704 0.00503222 0.00776937 0.0110253 0.0147485 0.0188804 0.0233558 0.0281043 0.0330511 0.0381182 0.0432255 0.0482929 0.0532411 0.057992 0.0624706 0.0666065 0.0703344 0.0735956 0.0763386 0.07852 0.0801055 0.0810763 0.0813969 0.081081 0.0801308 0.0785485 0.0763747 0.073638 0.0703816 0.0666568 0.0625223 0.0580435 0.0532908 0.0483395 0.0432675 0.0381554 0.0330833 0.028131 0.0233771 0.0188966 0.0147602 0.0110332 0.00777431 0.00503498 0.00285837 0.00127874 0.000320925 3.4817e-27 0 0.000636398 0.00253463 0.00566509 0.00997663 0.0154008 0.0218517 0.0292272 0.0374113 0.0462751 0.0556794 0.0654767 0.0755134 0.0856304 0.0956707 0.105479 0.1149 0.123785 0.131996 0.139404 0.14589 0.151354 0.155708 0.158883 0.160853 0.161507 0.160924 0.159083 0.155967 0.151684 0.146279 0.139836 0.132457 0.124259 0.115371 0.105934 0.0960977 0.0860176 0.0758554 0.0657703 0.0559216 0.0464672 0.0375567 0.0293315 0.0219215 0.0154437 0.00999994 0.00567573 0.00253854 0.000636922 6.90808e-27 0 0.000941719 0.00374984 0.0083806 0.0147569 0.022777 0.0323134 0.0432153 0.0553109 0.0684102 0.082308 0.096787 0.111621 0.126575 0.141418 0.155923 0.16986 0.183012 0.195172 0.20615 0.215772 0.223887 0.230365 0.235102 0.238077 0.239066 0.238256 0.235576 0.23099 0.224682 0.216708 0.207192 0.196283 0.184154 0.170997 0.15702 0.142446 0.127508 0.112445 0.097494 0.0828913 0.0688726 0.055661 0.0434662 0.0324813 0.0228799 0.0148127 0.00840599 0.00375905 0.000942947 1.0225e-26 0 0.001232 0.00490469 0.0109608 0.0192977 0.0297817 0.0422458 0.0564925 0.0722973 0.0894125 0.107571 0.126489 0.145872 0.165413 0.184813 0.203778 0.222008 0.239217 0.255138 0.269521 0.282139 0.292793 0.301313 0.307562 0.311528 0.312848 0.31186 0.308407 0.302442 0.29423 0.283829 0.271402 0.257144 0.241279 0.22406 0.20576 0.186671 0.167098 0.14736 0.127765 0.108623 0.0902471 0.0729291 0.056945 0.0425486 0.0299672 0.0193982 0.0110064 0.0049211 0.00123419 1.33803e-26 0 0.00150269 0.00598103 0.0133651 0.0235275 0.0363047 0.0514924 0.0688495 0.0881029 0.108951 0.131069 0.154114 0.177727 0.201533 0.225174 0.248292 0.27052 0.291515 0.310949 0.328518 0.343946 0.356987 0.367434 0.375117 0.380043 0.381691 0.380573 0.376425 0.369196 0.359229 0.346583 0.331454 0.31408 0.294734 0.273724 0.251385 0.228074 0.204165 0.180051 0.156106 0.132713 0.110254 0.0890888 0.0695556 0.0519647 0.0365938 0.0236841 0.013436 0.00600637 0.00150606 1.63243e-26 0 0.00174952 0.006962 0.0155557 0.0273798 0.0422433 0.0599074 0.0800918 0.102479 0.126718 0.152434 0.179226 0.206683 0.234367 0.261864 0.288761 0.314634 0.339082 0.361725 0.38221 0.400215 0.415454 0.427683 0.436702 0.442538 0.444508 0.443309 0.438555 0.430198 0.418654 0.40398 0.386402 0.366194 0.343676 0.319207 0.293176 0.266003 0.238125 0.210001 0.18207 0.154779 0.128577 0.103885 0.0810991 0.0605809 0.0426553 0.0276029 0.0156565 0.00699775 0.00175427 1.90108e-26 0 0.00196863 0.00783221 0.0174982 0.0307941 0.0475039 0.0673585 0.0900421 0.115198 0.142434 0.171327 0.201431 0.232284 0.263396 0.294303 0.324548 0.353651 0.381165 0.406664 0.42975 0.450059 0.467271 0.481108 0.491343 0.498022 0.500309 0.499071 0.493815 0.484484 0.471567 0.455113 0.435376 0.412663 0.387333 0.35979 0.330475 0.29986 0.268441 0.236739 0.205248 0.174475 0.144928 0.117085 0.0913933 0.0682616 0.048056 0.0310926 0.0176328 0.0078796 0.00197491 2.13977e-26 0 0.00215658 0.00857805 0.019162 0.0337165 0.0520038 0.0737282 0.0985439 0.126061 0.15585 0.187451 0.220378 0.254126 0.288161 0.321982 0.355087 0.386957 0.417102 0.445056 0.470385 0.492691 0.51162 0.526866 0.538178 0.545615 0.548216 0.546977 0.541332 0.531197 0.517131 0.499175 0.477603 0.452753 0.425016 0.394834 0.362692 0.329111 0.294635 0.259842 0.225274 0.191488 0.159049 0.128481 0.100276 0.0748853 0.0527107 0.0340983 0.0193337 0.008638 0.0021645 2.34474e-26 0 0.00231042 0.00918784 0.0205209 0.0361011 0.0556721 0.0789162 0.105463 0.134895 0.166755 0.200551 0.235766 0.271864 0.308273 0.344461 0.379897 0.414026 0.446324 0.476296 0.503475 0.527437 0.547799 0.564232 0.576464 0.584563 0.587474 0.586266 0.580355 0.569597 0.554625 0.535468 0.512417 0.485831 0.456128 0.423783 0.389319 0.353293 0.316294 0.278945 0.241831 0.205552 0.170716 0.137891 0.107607 0.0803477 0.056546 0.0365724 0.0207324 0.00926098 0.00232006 2.51278e-26 0 0.00242775 0.00965204 0.0215537 0.0379104 0.0584511 0.0828408 0.11069 0.141562 0.174976 0.210421 0.247355 0.285217 0.323413 0.361387 0.398586 0.434429 0.46837 0.499889 0.528497 0.553747 0.575237 0.592617 0.605599 0.614247 0.617464 0.616313 0.610268 0.599078 0.583458 0.56342 0.539267 0.511373 0.480178 0.446182 0.409934 0.372025 0.333076 0.293747 0.254658 0.216442 0.179746 0.145168 0.113269 0.0845623 0.0595012 0.0384761 0.0218068 0.00973873 0.00243915 2.64127e-26 0 0.00250708 0.0099661 0.0222529 0.0391355 0.0603331 0.0854988 0.11423 0.146076 0.180542 0.217101 0.255197 0.294253 0.333658 0.372841 0.411234 0.44824 0.483296 0.515864 0.545442 0.571565 0.593817 0.611834 0.625314 0.634325 0.637724 0.636644 0.6306 0.619175 0.603174 0.582588 0.557728 0.528976 0.496786 0.461675 0.424211 0.385009 0.344714 0.304013 0.263551 0.223988 0.185994 0.150196 0.117175 0.0874627 0.0615297 0.0397791 0.02254 0.0100637 0.00251987 2.72819e-26 0 0.00254577 0.0101144 0.0225728 0.0396793 0.0611446 0.0866149 0.115681 0.147888 0.182739 0.219702 0.258222 0.297722 0.337589 0.377251 0.416143 0.453666 0.489254 0.522369 0.552502 0.579182 0.601986 0.620539 0.63453 0.64398 0.647901 0.646985 0.641209 0.629824 0.61379 0.593059 0.567941 0.538822 0.506161 0.470485 0.432376 0.392463 0.351409 0.309919 0.268661 0.228309 0.189555 0.153042 0.119367 0.0890735 0.0626427 0.0404842 0.0229307 0.0102339 0.00256136 2.77219e-26 0 0.00254574 0.010114 0.022571 0.0396741 0.061133 0.0865926 0.115644 0.147831 0.182658 0.219595 0.258087 0.29756 0.337406 0.377051 0.415935 0.453458 0.489057 0.52219 0.552349 0.57906 0.601896 0.620481 0.634499 0.643969 0.6479 0.646987 0.64122 0.629849 0.613833 0.593123 0.568024 0.538923 0.506277 0.47061 0.432504 0.392587 0.351525 0.310022 0.268748 0.228378 0.189608 0.153079 0.119391 0.0890879 0.0626502 0.0404875 0.0229318 0.0102341 0.00256138 2.77258e-26 0 0.00250432 0.00994451 0.0221815 0.0389713 0.0600242 0.0849891 0.113464 0.145001 0.179118 0.2153 0.253007 0.291683 0.330741 0.36962 0.407782 0.444644 0.479657 0.512295 0.542058 0.568483 0.591147 0.609675 0.623747 0.633333 0.637654 0.636992 0.631914 0.621073 0.605659 0.585561 0.561073 0.53257 0.500503 0.46539 0.42781 0.388392 0.3478 0.306739 0.265887 0.225914 0.187521 0.15135 0.117999 0.0880111 0.0618621 0.0399558 0.0226168 0.0100869 0.00252279 2.72936e-26 0 0.00242375 0.0096206 0.0214495 0.03767 0.0579981 0.082092 0.109562 0.139978 0.172875 0.20776 0.244117 0.281417 0.3191 0.356626 0.393487 0.429123 0.463008 0.494638 0.523529 0.549233 0.571336 0.589472 0.603326 0.612819 0.617369 0.616808 0.612098 0.601727 0.586932 0.567584 0.543963 0.516428 0.485414 0.451423 0.415017 0.376806 0.337439 0.297602 0.257958 0.219163 0.181899 0.146793 0.114428 0.0853316 0.0599663 0.0387227 0.0219137 0.00977095 0.00244319 2.6432e-26 0 0.00230489 0.00914433 0.0203768 0.0357687 0.0550459 0.0778812 0.103904 0.132707 0.163851 0.196875 0.231295 0.266615 0.302316 0.337888 0.372857 0.406701 0.438924 0.46905 0.496622 0.521211 0.542423 0.559902 0.57334 0.582611 0.587354 0.586974 0.58288 0.57325 0.559409 0.541197 0.518875 0.492779 0.463322 0.430983 0.3963 0.35986 0.322285 0.284238 0.246362 0.209287 0.173672 0.140121 0.109197 0.0814032 0.0571842 0.0369109 0.020879 0.0093052 0.00232561 2.51546e-26 0 0.0021496 0.00852315 0.0189801 0.0332972 0.051214 0.0724229 0.0965779 0.123302 0.15219 0.182817 0.214742 0.247512 0.280655 0.3137 0.34622 0.377733 0.407786 0.435937 0.461764 0.484865 0.504867 0.521434 0.53427 0.543195 0.548085 0.547915 0.544527 0.535812 0.523163 0.50639 0.485729 0.461492 0.434059 0.403881 0.371462 0.337357 0.302157 0.266486 0.230961 0.196176 0.162758 0.131279 0.102271 0.0762099 0.0535116 0.034523 0.0195177 0.00869349 0.00217147 2.34813e-26 0 0.00196032 0.00776676 0.0172814 0.0302944 0.0465628 0.0658032 0.0877 0.111911 0.138074 0.165808 0.194721 0.224409 0.254459 0.284448 0.313997 0.342679 0.370088 0.395826 0.419509 0.44077 0.459266 0.474681 0.486734 0.4952 0.500179 0.50026 0.497644 0.490008 0.478769 0.463715 0.445053 0.423062 0.398089 0.370545 0.340896 0.309656 0.277373 0.244628 0.211999 0.180039 0.149331 0.120407 0.0937613 0.0698337 0.0490066 0.0315967 0.0178512 0.00794548 0.00198318 2.14385e-26 0 0.00174 0.00688702 0.0153074 0.0268076 0.0411656 0.0581264 0.0774099 0.0987157 0.121727 0.146117 0.171547 0.197672 0.224143 0.250591 0.276697 0.302093 0.326425 0.349349 0.370525 0.389626 0.406342 0.420382 0.431487 0.43943 0.444299 0.444874 0.442893 0.436592 0.426932 0.413849 0.39749 0.378099 0.355981 0.331503 0.305086 0.277194 0.248326 0.21901 0.189777 0.161131 0.133602 0.107677 0.0838016 0.0623752 0.0437403 0.0281783 0.0159058 0.00707299 0.00176372 1.90581e-26 0 0.00149211 0.00589769 0.0130892 0.0228916 0.0351072 0.0495134 0.0658699 0.0839226 0.103408 0.124054 0.145586 0.167723 0.190183 0.212666 0.23491 0.256615 0.277489 0.297243 0.315588 0.332241 0.346931 0.359397 0.369403 0.376735 0.381379 0.382595 0.381173 0.376396 0.368471 0.35758 0.343794 0.327314 0.308401 0.287373 0.264598 0.240485 0.215475 0.190036 0.164646 0.13975 0.11582 0.0932889 0.0725496 0.0539525 0.037796 0.0243218 0.0137124 0.00608977 0.00151655 1.63775e-26 0 0.00122054 0.00481429 0.0106616 0.0186081 0.0284832 0.0401001 0.0532619 0.0677652 0.0834031 0.0999668 0.117247 0.135034 0.153115 0.171271 0.189293 0.206963 0.224051 0.240329 0.255563 0.269521 0.281971 0.292689 0.301461 0.308094 0.312482 0.314296 0.313541 0.310343 0.304308 0.295796 0.284811 0.271508 0.256101 0.238852 0.220072 0.200108 0.179339 0.158165 0.137002 0.116234 0.0962672 0.077471 0.0601828 0.0446984 0.0312674 0.020088 0.0113054 0.00501135 0.00124556 1.34387e-26 0 0.000929543 0.0036538 0.00806279 0.0140245 0.0213978 0.0300346 0.0397845 0.0504982 0.0620294 0.0742356 0.0869777 0.100119 0.113525 0.127055 0.140567 0.153919 0.166953 0.179503 0.191397 0.202454 0.212487 0.221308 0.228733 0.234586 0.238707 0.241039 0.241075 0.239466 0.235458 0.229472 0.221471 0.211562 0.199906 0.186706 0.17221 0.156701 0.140488 0.123901 0.107283 0.0909556 0.0752508 0.060473 0.0468964 0.0347591 0.0242576 0.0155438 0.00872293 0.00385475 0.000955013 1.02879e-26 0 0.000623708 0.00243447 0.0053337 0.00921299 0.0139627 0.0194755 0.0256501 0.0323938 0.0396234 0.0472654 0.0552543 0.0635304 0.0720362 0.0807134 0.0894989 0.0983193 0.107093 0.115724 0.1241 0.132095 0.139571 0.146378 0.152363 0.15737 0.16125 0.163856 0.165083 0.164766 0.163039 0.159652 0.154772 0.148421 0.1407 0.131755 0.121767 0.110948 0.0995352 0.0877833 0.0759574 0.0643129 0.0531033 0.0425632 0.0329004 0.0242915 0.0168773 0.0107607 0.00600565 0.00263819 0.0006495 6.97459e-27 0 0.000307843 0.0011755 0.00251746 0.00424979 0.006296 0.008591 0.0110842 0.0137411 0.0165435 0.0194886 0.0225857 0.0258535 0.0293147 0.0329918 0.0369013 0.0410492 0.0454265 0.0500062 0.0547407 0.0595607 0.0643752 0.0690801 0.0735516 0.0776578 0.0812627 0.0842077 0.0863903 0.0877183 0.0880674 0.0874394 0.0857699 0.0830764 0.079417 0.0748666 0.0695377 0.0635703 0.057126 0.0503812 0.0435205 0.0367267 0.0301742 0.0240242 0.0184155 0.0134606 0.0092429 0.00581445 0.00319645 0.00138088 0.000333831 3.5509e-27 0 -1.29841e-05 -0.000102648 -0.000339626 -0.000782874 -0.00147479 -0.00243744 -0.00367011 -0.00514844 -0.00682508 -0.00863196 -0.010484 -0.0122841 -0.0139287 -0.0153145 -0.0163444 -0.0169348 -0.0170199 -0.0165573 -0.0155304 -0.0139508 -0.0118583 -0.0093188 -0.00642162 -0.00327491 2.24011e-08 0.00327498 0.0064217 0.00931888 0.0118584 0.0139509 0.0155303 0.0165571 0.0170198 0.0169346 0.0163443 0.0153143 0.0139286 0.0122841 0.010484 0.00863197 0.00682508 0.00514844 0.00367013 0.00243746 0.0014748 0.000782875 0.000339627 0.000102648 1.29841e-05 7.07137e-29 0 -0.000333831 -0.00138088 -0.00319645 -0.00581445 -0.00924289 -0.0134606 -0.0184154 -0.0240242 -0.0301742 -0.0367267 -0.0435205 -0.0503812 -0.0571261 -0.0635705 -0.0695379 -0.0748667 -0.0794171 -0.0830765 -0.0857702 -0.0874396 -0.0880674 -0.0877182 -0.0863903 -0.0842077 -0.0812627 -0.0776577 -0.0735515 -0.06908 -0.0643751 -0.0595606 -0.0547407 -0.0500064 -0.0454267 -0.0410493 -0.0369014 -0.0329918 -0.0293147 -0.0258535 -0.0225857 -0.0194885 -0.0165435 -0.0137411 -0.0110842 -0.00859098 -0.00629599 -0.00424979 -0.00251746 -0.0011755 -0.000307843 -3.41114e-27 0 -0.0006495 -0.00263819 -0.00600565 -0.0107607 -0.0168773 -0.0242914 -0.0329003 -0.0425632 -0.0531034 -0.0643129 -0.0759573 -0.0877833 -0.0995352 -0.110948 -0.121767 -0.131756 -0.1407 -0.148421 -0.154773 -0.159652 -0.163039 -0.164766 -0.165083 -0.163856 -0.16125 -0.15737 -0.152363 -0.146378 -0.13957 -0.132095 -0.1241 -0.115724 -0.107093 -0.0983194 -0.089499 -0.0807135 -0.0720362 -0.0635303 -0.0552543 -0.0472654 -0.0396234 -0.0323938 -0.0256501 -0.0194755 -0.0139627 -0.00921299 -0.0053337 -0.00243447 -0.000623708 -6.83974e-27 0 -0.000955013 -0.00385475 -0.00872293 -0.0155438 -0.0242576 -0.0347591 -0.0468964 -0.060473 -0.0752508 -0.0909556 -0.107283 -0.123901 -0.140488 -0.156701 -0.17221 -0.186706 -0.199906 -0.211563 -0.221471 -0.229472 -0.235458 -0.239466 -0.241075 -0.241039 -0.238707 -0.234586 -0.228733 -0.221308 -0.212487 -0.202454 -0.191397 -0.179503 -0.166953 -0.153919 -0.140567 -0.127055 -0.113525 -0.100119 -0.0869777 -0.0742355 -0.0620294 -0.0504983 -0.0397845 -0.0300346 -0.0213978 -0.0140245 -0.00806279 -0.0036538 -0.000929543 -1.0161e-26 0 -0.00124556 -0.00501135 -0.0113054 -0.020088 -0.0312674 -0.0446984 -0.0601827 -0.077471 -0.0962672 -0.116234 -0.137002 -0.158165 -0.179339 -0.200108 -0.220072 -0.238853 -0.256101 -0.271508 -0.284811 -0.295796 -0.304309 -0.310343 -0.313541 -0.314296 -0.312482 -0.308094 -0.301461 -0.292689 -0.281971 -0.269521 -0.255563 -0.240329 -0.224051 -0.206963 -0.189294 -0.171271 -0.153115 -0.135034 -0.117247 -0.0999668 -0.0834031 -0.0677652 -0.0532619 -0.0401001 -0.0284832 -0.0186081 -0.0106616 -0.00481429 -0.00122054 -1.33223e-26 0 -0.00151655 -0.00608977 -0.0137124 -0.0243218 -0.0377959 -0.0539524 -0.0725496 -0.0932889 -0.115821 -0.13975 -0.164646 -0.190036 -0.215475 -0.240485 -0.264598 -0.287373 -0.308401 -0.327314 -0.343794 -0.35758 -0.368471 -0.376396 -0.381173 -0.382595 -0.381379 -0.376735 -0.369403 -0.359397 -0.346931 -0.332241 -0.315588 -0.297243 -0.277489 -0.256615 -0.23491 -0.212666 -0.190183 -0.167723 -0.145586 -0.124054 -0.103408 -0.0839226 -0.0658699 -0.0495135 -0.0351072 -0.0228916 -0.0130892 -0.00589769 -0.00149211 -1.62739e-26 0 -0.00176372 -0.00707299 -0.0159058 -0.0281783 -0.0437403 -0.0623752 -0.0838017 -0.107677 -0.133602 -0.161131 -0.189777 -0.21901 -0.248326 -0.277194 -0.305086 -0.331503 -0.355981 -0.378099 -0.39749 -0.413849 -0.426932 -0.436592 -0.442894 -0.444874 -0.444299 -0.43943 -0.431487 -0.420382 -0.406342 -0.389626 -0.370525 -0.349349 -0.326425 -0.302093 -0.276697 -0.250591 -0.224143 -0.197672 -0.171547 -0.146117 -0.121727 -0.0987157 -0.0774099 -0.0581264 -0.0411655 -0.0268076 -0.0153074 -0.00688702 -0.00174 -1.89688e-26 0 -0.00198318 -0.00794548 -0.0178512 -0.0315967 -0.0490066 -0.0698336 -0.0937613 -0.120407 -0.149331 -0.180039 -0.211999 -0.244628 -0.277373 -0.309656 -0.340896 -0.370545 -0.398089 -0.423062 -0.445053 -0.463715 -0.478769 -0.490008 -0.497644 -0.50026 -0.500179 -0.4952 -0.486734 -0.474681 -0.459266 -0.44077 -0.419509 -0.395825 -0.370088 -0.342679 -0.313997 -0.284448 -0.254459 -0.224409 -0.194721 -0.165808 -0.138074 -0.111911 -0.0877 -0.0658032 -0.0465628 -0.0302944 -0.0172814 -0.00776676 -0.00196032 -2.13645e-26 0 -0.00217147 -0.00869349 -0.0195177 -0.034523 -0.0535116 -0.0762099 -0.102271 -0.13128 -0.162758 -0.196176 -0.230961 -0.266486 -0.302157 -0.337357 -0.371462 -0.403881 -0.434059 -0.461491 -0.485729 -0.50639 -0.523163 -0.535812 -0.544527 -0.547915 -0.548085 -0.543195 -0.53427 -0.521434 -0.504867 -0.484865 -0.461764 -0.435937 -0.407786 -0.377733 -0.34622 -0.3137 -0.280655 -0.247512 -0.214742 -0.182817 -0.15219 -0.123302 -0.0965779 -0.0724229 -0.051214 -0.0332972 -0.0189801 -0.00852315 -0.0021496 -2.34229e-26 0 -0.00232561 -0.0093052 -0.020879 -0.0369109 -0.0571842 -0.0814032 -0.109196 -0.140121 -0.173672 -0.209287 -0.246362 -0.284238 -0.322285 -0.35986 -0.3963 -0.430983 -0.463322 -0.492779 -0.518875 -0.541197 -0.559409 -0.57325 -0.58288 -0.586974 -0.587354 -0.582611 -0.57334 -0.559902 -0.542423 -0.521211 -0.496622 -0.46905 -0.438924 -0.406701 -0.372857 -0.337888 -0.302316 -0.266615 -0.231295 -0.196875 -0.163851 -0.132707 -0.103904 -0.0778812 -0.0550459 -0.0357687 -0.0203768 -0.00914433 -0.00230489 -2.51114e-26 0 -0.00244319 -0.00977095 -0.0219137 -0.0387227 -0.0599663 -0.0853316 -0.114428 -0.146793 -0.181899 -0.219163 -0.257958 -0.297602 -0.337439 -0.376806 -0.415017 -0.451423 -0.485414 -0.516428 -0.543963 -0.567584 -0.586932 -0.601727 -0.612098 -0.616808 -0.617369 -0.612819 -0.603326 -0.589472 -0.571336 -0.549233 -0.523529 -0.494638 -0.463008 -0.429123 -0.393487 -0.356626 -0.3191 -0.281417 -0.244117 -0.20776 -0.172875 -0.139978 -0.109562 -0.082092 -0.0579981 -0.03767 -0.0214495 -0.0096206 -0.00242375 -2.64031e-26 0 -0.00252279 -0.0100869 -0.0226168 -0.0399558 -0.0618621 -0.0880111 -0.117999 -0.15135 -0.187521 -0.225914 -0.265887 -0.306739 -0.3478 -0.388392 -0.42781 -0.46539 -0.500503 -0.53257 -0.561073 -0.585561 -0.605659 -0.621073 -0.631914 -0.636992 -0.637654 -0.633333 -0.623747 -0.609675 -0.591147 -0.568483 -0.542058 -0.512295 -0.479657 -0.444644 -0.407782 -0.36962 -0.330741 -0.291683 -0.253007 -0.2153 -0.179118 -0.145001 -0.113464 -0.0849891 -0.0600242 -0.0389713 -0.0221815 -0.00994451 -0.00250432 -2.72776e-26 0 -0.00256138 -0.0102341 -0.0229318 -0.0404875 -0.0626502 -0.0890879 -0.119391 -0.153079 -0.189608 -0.228378 -0.268748 -0.310022 -0.351525 -0.392587 -0.432504 -0.47061 -0.506277 -0.538923 -0.568024 -0.593123 -0.613833 -0.629849 -0.64122 -0.646987 -0.6479 -0.643969 -0.634499 -0.620481 -0.601896 -0.57906 -0.552349 -0.52219 -0.489057 -0.453458 -0.415935 -0.377051 -0.337406 -0.29756 -0.258087 -0.219595 -0.182658 -0.147831 -0.115644 -0.0865926 -0.061133 -0.0396741 -0.022571 -0.010114 -0.00254574 -2.77208e-26 0 -0.00256136 -0.0102339 -0.0229307 -0.0404842 -0.0626427 -0.0890735 -0.119367 -0.153042 -0.189555 -0.228309 -0.268662 -0.30992 -0.351409 -0.392463 -0.432376 -0.470485 -0.506161 -0.538822 -0.567941 -0.593059 -0.61379 -0.629824 -0.641209 -0.646985 -0.647901 -0.64398 -0.63453 -0.620539 -0.601986 -0.579182 -0.552502 -0.522369 -0.489254 -0.453666 -0.416143 -0.37725 -0.337589 -0.297721 -0.258222 -0.219702 -0.182739 -0.147888 -0.115681 -0.0866149 -0.0611446 -0.0396793 -0.0225728 -0.0101144 -0.00254577 -2.77258e-26 0 -0.00251987 -0.0100637 -0.02254 -0.0397791 -0.0615297 -0.0874627 -0.117175 -0.150196 -0.185994 -0.223987 -0.263551 -0.304013 -0.344714 -0.385009 -0.424211 -0.461675 -0.496786 -0.528976 -0.557727 -0.582588 -0.603174 -0.619175 -0.6306 -0.636644 -0.637724 -0.634326 -0.625314 -0.611834 -0.593817 -0.571565 -0.545442 -0.515864 -0.483296 -0.44824 -0.411234 -0.372841 -0.333658 -0.294253 -0.255197 -0.217101 -0.180542 -0.146076 -0.11423 -0.0854988 -0.0603331 -0.0391355 -0.0222529 -0.0099661 -0.00250708 -2.72925e-26 0 -0.00243915 -0.00973873 -0.0218068 -0.0384761 -0.0595012 -0.0845623 -0.113269 -0.145168 -0.179746 -0.216442 -0.254658 -0.293747 -0.333076 -0.372025 -0.409934 -0.446182 -0.480178 -0.511373 -0.539266 -0.56342 -0.583458 -0.599078 -0.610268 -0.616313 -0.617464 -0.614248 -0.605599 -0.592617 -0.575237 -0.553747 -0.528497 -0.499889 -0.46837 -0.434429 -0.398586 -0.361387 -0.323413 -0.285217 -0.247355 -0.210421 -0.174976 -0.141562 -0.11069 -0.0828408 -0.0584511 -0.0379104 -0.0215537 -0.00965204 -0.00242775 -2.64276e-26 0 -0.00232006 -0.00926098 -0.0207324 -0.0365724 -0.056546 -0.0803477 -0.107606 -0.137891