<?xml version="1.0"?>
<VTKFile type="PolyData">
	<PolyData>
		<Piece NumberOfPoints="2601" NumberOfPolys="2500">
			<Points>
				<DataArray type="Float32" NumberOfComponents="3" format="ascii">
 0 0 0 0.02 0 0 0.04 0 0 0.06 0 0 0.08 0 0 0.1 0 0 0.12 0 0 0.14 0 0 0.16 0 0 0.18 0 0 0.2 0 0 0.22 0 0 0.24 0 0 0.26 0 0 0.28 0 0 0.3 0 0 0.32 0 0 0.34 0 0 0.36 0 0 0.38 0 0 0.4 0 0 0.42 0 0 0.44 0 0 0.46 0 0 0.48 0 0 0.5 0 0 0.52 0 0 0.54 0 0 0.56 0 0 0.58 0 0 0.6 0 0 0.62 0 0 0.64 0 0 0.66 0 0 0.68 0 0 0.7 0 0 0.72 0 0 0.74 0 0 0.76 0 0 0.78 0 0 0.8 0 0 0.82 0 0 0.84 0 0 0.86 0 0 0.88 0 0 0.9 0 0 0.92 0 0 0.94 0 0 0.96 0 0 0.98 0 0 1 0 0 0 0.02 0 0.02 0.02 0 0.04 0.02 0 0.06 0.02 0 0.08 0.02 0 0.1 0.02 0 0.12 0.02 0 0.14 0.02 0 0.16 0.02 0 0.18 0.02 0 0.2 0.02 0 0.22 0.02 0 0.24 0.02 0 0.26 0.02 0 0.28 0.02 0 0.3 0.02 0 0.32 0.02 0 0.34 0.02 0 0.36 0.02 0 0.38 0.02 0 0.4 0.02 0 0.42 0.02 0 0.44 0.02 0 0.46 0.02 0 0.48 0.02 0 0.5 0.02 0 0.52 0.02 0 0.54 0.02 0 0.56 0.02 0 0.58 0.02 0 0.6 0.02 0 0.62 0.02 0 0.64 0.02 0 0.66 0.02 0 0.68 0.02 0 0.7 0.02 0 0.72 0.02 0 0.74 0.02 0 0.76 0.02 0 0.78 0.02 0 0.8 0.02 0 0.82 0.02 0 0.84 0.02 0 0.86 0.02 0 0.88 0.02 0 0.9 0.02 0 0.92 0.02 0 0.94 0.02 0 0.96 0.02 0 0.98 0.02 0 1 0.02 0 0 0.04 0 0.02 0.04 0 0.04 0.04 0 0.06 0.04 0 0.08 0.04 0 0.1 0.04 0 0.12 0.04 0 0.14 0.04 0 0.16 0.04 0 0.18 0.04 0 0.2 0.04 0 0.22 0.04 0 0.24 0.04 0 0.26 0.04 0 0.28 0.04 0 0.3 0.04 0 0.32 0.04 0 0.34 0.04 0 0.36 0.04 0 0.38 0.04 0 0.4 0.04 0 0.42 0.04 0 0.44 0.04 0 0.46 0.04 0 0.48 0.04 0 0.5 0.04 0 0.52 0.04 0 0.54 0.04 0 0.56 0.04 0 0.58 0.04 0 0.6 0.04 0 0.62 0.04 0 0.64 0.04 0 0.66 0.04 0 0.68 0.04 0 0.7 0.04 0 0.72 0.04 0 0.74 0.04 0 0.76 0.04 0 0.78 0.04 0 0.8 0.04 0 0.82 0.04 0 0.84 0.04 0 0.86 0.04 0 0.88 0.04 0 0.9 0.04 0 0.92 0.04 0 0.94 0.04 0 0.96 0.04 0 0.98 0.04 0 1 0.04 0 0 0.06 0 0.02 0.06 0 0.04 0.06 0 0.06 0.06 0 0.08 0.06 0 0.1 0.06 0 0.12 0.06 0 0.14 0.06 0 0.16 0.06 0 0.18 0.06 0 0.2 0.06 0 0.22 0.06 0 0.24 0.06 0 0.26 0.06 0 0.28 0.06 0 0.3 0.06 0 0.32 0.06 0 0.34 0.06 0 0.36 0.06 0 0.38 0.06 0 0.4 0.06 0 0.42 0.06 0 0.44 0.06 0 0.46 0.06 0 0.48 0.06 0 0.5 0.06 0 0.52 0.06 0 0.54 0.06 0 0.56 0.06 0 0.58 0.06 0 0.6 0.06 0 0.62 0.06 0 0.64 0.06 0 0.66 0.06 0 0.68 0.06 0 0.7 0.06 0 0.72 0.06 0 0.74 0.06 0 0.76 0.06 0 0.78 0.06 0 0.8 0.06 0 0.82 0.06 0 0.84 0.06 0 0.86 0.06 0 0.88 0.06 0 0.9 0.06 0 0.92 0.06 0 0.94 0.06 0 0.96 0.06 0 0.98 0.06 0 1 0.06 0 0 0.08 0 0.02 0.08 0 0.04 0.08 0 0.06 0.08 0 0.08 0.08 0 0.1 0.08 0 0.12 0.08 0 0.14 0.08 0 0.16 0.08 0 0.18 0.08 0 0.2 0.08 0 0.22 0.08 0 0.24 0.08 0 0.26 0.08 0 0.28 0.08 0 0.3 0.08 0 0.32 0.08 0 0.34 0.08 0 0.36 0.08 0 0.38 0.08 0 0.4 0.08 0 0.42 0.08 0 0.44 0.08 0 0.46 0.08 0 0.48 0.08 0 0.5 0.08 0 0.52 0.08 0 0.54 0.08 0 0.56 0.08 0 0.58 0.08 0 0.6 0.08 0 0.62 0.08 0 0.64 0.08 0 0.66 0.08 0 0.68 0.08 0 0.7 0.08 0 0.72 0.08 0 0.74 0.08 0 0.76 0.08 0 0.78 0.08 0 0.8 0.08 0 0.82 0.08 0 0.84 0.08 0 0.86 0.08 0 0.88 0.08 0 0.9 0.08 0 0.92 0.08 0 0.94 0.08 0 0.96 0.08 0 0.98 0.08 0 1 0.08 0 0 0.1 0 0.02 0.1 0 0.04 0.1 0 0.06 0.1 0 0.08 0.1 0 0.1 0.1 0 0.12 0.1 0 0.14 0.1 0 0.16 0.1 0 0.18 0.1 0 0.2 0.1 0 0.22 0.1 0 0.24 0.1 0 0.26 0.1 0 0.28 0.1 0 0.3 0.1 0 0.32 0.1 0 0.34 0.1 0 0.36 0.1 0 0.38 0.1 0 0.4 0.1 0 0.42 0.1 0 0.44 0.1 0 0.46 0.1 0 0.48 0.1 0 0.5 0.1 0 0.52 0.1 0 0.54 0.1 0 0.56 0.1 0 0.58 0.1 0 0.6 0.1 0 0.62 0.1 0 0.64 0.1 0 0.66 0.1 0 0.68 0.1 0 0.7 0.1 0 0.72 0.1 0 0.74 0.1 0 0.76 0.1 0 0.78 0.1 0 0.8 0.1 0 0.82 0.1 0 0.84 0.1 0 0.86 0.1 0 0.88 0.1 0 0.9 0.1 0 0.92 0.1 0 0.94 0.1 0 0.96 0.1 0 0.98 0.1 0 1 0.1 0 0 0.12 0 0.02 0.12 0 0.04 0.12 0 0.06 0.12 0 0.08 0.12 0 0.1 0.12 0 0.12 0.12 0 0.14 0.12 0 0.16 0.12 0 0.18 0.12 0 0.2 0.12 0 0.22 0.12 0 0.24 0.12 0 0.26 0.12 0 0.28 0.12 0 0.3 0.12 0 0.32 0.12 0 0.34 0.12 0 0.36 0.12 0 0.38 0.12 0 0.4 0.12 0 0.42 0.12 0 0.44 0.12 0 0.46 0.12 0 0.48 0.12 0 0.5 0.12 0 0.52 0.12 0 0.54 0.12 0 0.56 0.12 0 0.58 0.12 0 0.6 0.12 0 0.62 0.12 0 0.64 0.12 0 0.66 0.12 0 0.68 0.12 0 0.7 0.12 0 0.72 0.12 0 0.74 0.12 0 0.76 0.12 0 0.78 0.12 0 0.8 0.12 0 0.82 0.12 0 0.84 0.12 0 0.86 0.12 0 0.88 0.12 0 0.9 0.12 0 0.92 0.12 0 0.94 0.12 0 0.96 0.12 0 0.98 0.12 0 1 0.12 0 0 0.14 0 0.02 0.14 0 0.04 0.14 0 0.06 0.14 0 0.08 0.14 0 0.1 0.14 0 0.12 0.14 0 0.14 0.14 0 0.16 0.14 0 0.18 0.14 0 0.2 0.14 0 0.22 0.14 0 0.24 0.14 0 0.26 0.14 0 0.28 0.14 0 0.3 0.14 0 0.32 0.14 0 0.34 0.14 0 0.36 0.14 0 0.38 0.14 0 0.4 0.14 0 0.42 0.14 0 0.44 0.14 0 0.46 0.14 0 0.48 0.14 0 0.5 0.14 0 0.52 0.14 0 0.54 0.14 0 0.56 0.14 0 0.58 0.14 0 0.6 0.14 0 0.62 0.14 0 0.64 0.14 0 0.66 0.14 0 0.68 0.14 0 0.7 0.14 0 0.72 0.14 0 0.74 0.14 0 0.76 0.14 0 0.78 0.14 0 0.8 0.14 0 0.82 0.14 0 0.84 0.14 0 0.86 0.14 0 0.88 0.14 0 0.9 0.14 0 0.92 0.14 0 0.94 0.14 0 0.96 0.14 0 0.98 0.14 0 1 0.14 0 0 0.16 0 0.02 0.16 0 0.04 0.16 0 0.06 0.16 0 0.08 0.16 0 0.1 0.16 0 0.12 0.16 0 0.14 0.16 0 0.16 0.16 0 0.18 0.16 0 0.2 0.16 0 0.22 0.16 0 0.24 0.16 0 0.26 0.16 0 0.28 0.16 0 0.3 0.16 0 0.32 0.16 0 0.34 0.16 0 0.36 0.16 0 0.38 0.16 0 0.4 0.16 0 0.42 0.16 0 0.44 0.16 0 0.46 0.16 0 0.48 0.16 0 0.5 0.16 0 0.52 0.16 0 0.54 0.16 0 0.56 0.16 0 0.58 0.16 0 0.6 0.16 0 0.62 0.16 0 0.64 0.16 0 0.66 0.16 0 0.68 0.16 0 0.7 0.16 0 0.72 0.16 0 0.74 0.16 0 0.76 0.16 0 0.78 0.16 0 0.8 0.16 0 0.82 0.16 0 0.84 0.16 0 0.86 0.16 0 0.88 0.16 0 0.9 0.16 0 0.92 0.16 0 0.94 0.16 0 0.96 0.16 0 0.98 0.16 0 1 0.16 0 0 0.18 0 0.02 0.18 0 0.04 0.18 0 0.06 0.18 0 0.08 0.18 0 0.1 0.18 0 0.12 0.18 0 0.14 0.18 0 0.16 0.18 0 0.18 0.18 0 0.2 0.18 0 0.22 0.18 0 0.24 0.18 0 0.26 0.18 0 0.28 0.18 0 0.3 0.18 0 0.32 0.18 0 0.34 0.18 0 0.36 0.18 0 0.38 0.18 0 0.4 0.18 0 0.42 0.18 0 0.44 0.18 0 0.46 0.18 0 0.48 0.18 0 0.5 0.18 0 0.52 0.18 0 0.54 0.18 0 0.56 0.18 0 0.58 0.18 0 0.6 0.18 0 0.62 0.18 0 0.64 0.18 0 0.66 0.18 0 0.68 0.18 0 0.7 0.18 0 0.72 0.18 0 0.74 0.18 0 0.76 0.18 0 0.78 0.18 0 0.8 0.18 0 0.82 0.18 0 0.84 0.18 0 0.86 0.18 0 0.88 0.18 0 0.9 0.18 0 0.92 0.18 0 0.94 0.18 0 0.96 0.18 0 0.98 0.18 0 1 0.18 0 0 0.2 0 0.02 0.2 0 0.04 0.2 0 0.06 0.2 0 0.08 0.2 0 0.1 0.2 0 0.12 0.2 0 0.14 0.2 0 0.16 0.2 0 0.18 0.2 0 0.2 0.2 0 0.22 0.2 0 0.24 0.2 0 0.26 0.2 0 0.28 0.2 0 0.3 0.2 0 0.32 0.2 0 0.34 0.2 0 0.36 0.2 0 0.38 0.2 0 0.4 0.2 0 0.42 0.2 0 0.44 0.2 0 0.46 0.2 0 0.48 0.2 0 0.5 0.2 0 0.52 0.2 0 0.54 0.2 0 0.56 0.2 0 0.58 0.2 0 0.6 0.2 0 0.62 0.2 0 0.64 0.2 0 0.66 0.2 0 0.68 0.2 0 0.7 0.2 0 0.72 0.2 0 0.74 0.2 0 0.76 0.2 0 0.78 0.2 0 0.8 0.2 0 0.82 0.2 0 0.84 0.2 0 0.86 0.2 0 0.88 0.2 0 0.9 0.2 0 0.92 0.2 0 0.94 0.2 0 0.96 0.2 0 0.98 0.2 0 1 0.2 0 0 0.22 0 0.02 0.22 0 0.04 0.22 0 0.06 0.22 0 0.08 0.22 0 0.1 0.22 0 0.12 0.22 0 0.14 0.22 0 0.16 0.22 0 0.18 0.22 0 0.2 0.22 0 0.22 0.22 0 0.24 0.22 0 0.26 0.22 0 0.28 0.22 0 0.3 0.22 0 0.32 0.22 0 0.34 0.22 0 0.36 0.22 0 0.38 0.22 0 0.4 0.22 0 0.42 0.22 0 0.44 0.22 0 0.46 0.22 0 0.48 0.22 0 0.5 0.22 0 0.52 0.22 0 0.54 0.22 0 0.56 0.22 0 0.58 0.22 0 0.6 0.22 0 0.62 0.22 0 0.64 0.22 0 0.66 0.22 0 0.68 0.22 0 0.7 0.22 0 0.72 0.22 0 0.74 0.22 0 0.76 0.22 0 0.78 0.22 0 0.8 0.22 0 0.82 0.22 0 0.84 0.22 0 0.86 0.22 0 0.88 0.22 0 0.9 0.22 0 0.92 0.22 0 0.94 0.22 0 0.96 0.22 0 0.98 0.22 0 1 0.22 0 0 0.24 0 0.02 0.24 0 0.04 0.24 0 0.06 0.24 0 0.08 0.24 0 0.1 0.24 0 0.12 0.24 0 0.14 0.24 0 0.16 0.24 0 0.18 0.24 0 0.2 0.24 0 0.22 0.24 0 0.24 0.24 0 0.26 0.24 0 0.28 0.24 0 0.3 0.24 0 0.32 0.24 0 0.34 0.24 0 0.36 0.24 0 0.38 0.24 0 0.4 0.24 0 0.42 0.24 0 0.44 0.24 0 0.46 0.24 0 0.48 0.24 0 0.5 0.24 0 0.52 0.24 0 0.54 0.24 0 0.56 0.24 0 0.58 0.24 0 0.6 0.24 0 0.62 0.24 0 0.64 0.24 0 0.66 0.24 0 0.68 0.24 0 0.7 0.24 0 0.72 0.24 0 0.74 0.24 0 0.76 0.24 0 0.78 0.24 0 0.8 0.24 0 0.82 0.24 0 0.84 0.24 0 0.86 0.24 0 0.88 0.24 0 0.9 0.24 0 0.92 0.24 0 0.94 0.24 0 0.96 0.24 0 0.98 0.24 0 1 0.24 0 0 0.26 0 0.02 0.26 0 0.04 0.26 0 0.06 0.26 0 0.08 0.26 0 0.1 0.26 0 0.12 0.26 0 0.14 0.26 0 0.16 0.26 0 0.18 0.26 0 0.2 0.26 0 0.22 0.26 0 0.24 0.26 0 0.26 0.26 0 0.28 0.26 0 0.3 0.26 0 0.32 0.26 0 0.34 0.26 0 0.36 0.26 0 0.38 0.26 0 0.4 0.26 0 0.42 0.26 0 0.44 0.26 0 0.46 0.26 0 0.48 0.26 0 0.5 0.26 0 0.52 0.26 0 0.54 0.26 0 0.56 0.26 0 0.58 0.26 0 0.6 0.26 0 0.62 0.26 0 0.64 0.26 0 0.66 0.26 0 0.68 0.26 0 0.7 0.26 0 0.72 0.26 0 0.74 0.26 0 0.76 0.26 0 0.78 0.26 0 0.8 0.26 0 0.82 0.26 0 0.84 0.26 0 0.86 0.26 0 0.88 0.26 0 0.9 0.26 0 0.92 0.26 0 0.94 0.26 0 0.96 0.26 0 0.98 0.26 0 1 0.26 0 0 0.28 0 0.02 0.28 0 0.04 0.28 0 0.06 0.28 0 0.08 0.28 0 0.1 0.28 0 0.12 0.28 0 0.14 0.28 0 0.16 0.28 0 0.18 0.28 0 0.2 0.28 0 0.22 0.28 0 0.24 0.28 0 0.26 0.28 0 0.28 0.28 0 0.3 0.28 0 0.32 0.28 0 0.34 0.28 0 0.36 0.28 0 0.38 0.28 0 0.4 0.28 0 0.42 0.28 0 0.44 0.28 0 0.46 0.28 0 0.48 0.28 0 0.5 0.28 0 0.52 0.28 0 0.54 0.28 0 0.56 0.28 0 0.58 0.28 0 0.6 0.28 0 0.62 0.28 0 0.64 0.28 0 0.66 0.28 0 0.68 0.28 0 0.7 0.28 0 0.72 0.28 0 0.74 0.28 0 0.76 0.28 0 0.78 0.28 0 0.8 0.28 0 0.82 0.28 0 0.84 0.28 0 0.86 0.28 0 0.88 0.28 0 0.9 0.28 0 0.92 0.28 0 0.94 0.28 0 0.96 0.28 0 0.98 0.28 0 1 0.28 0 0 0.3 0 0.02 0.3 0 0.04 0.3 0 0.06 0.3 0 0.08 0.3 0 0.1 0.3 0 0.12 0.3 0 0.14 0.3 0 0.16 0.3 0 0.18 0.3 0 0.2 0.3 0 0.22 0.3 0 0.24 0.3 0 0.26 0.3 0 0.28 0.3 0 0.3 0.3 0 0.32 0.3 0 0.34 0.3 0 0.36 0.3 0 0.38 0.3 0 0.4 0.3 0 0.42 0.3 0 0.44 0.3 0 0.46 0.3 0 0.48 0.3 0 0.5 0.3 0 0.52 0.3 0 0.54 0.3 0 0.56 0.3 0 0.58 0.3 0 0.6 0.3 0 0.62 0.3 0 0.64 0.3 0 0.66 0.3 0 0.68 0.3 0 0.7 0.3 0 0.72 0.3 0 0.74 0.3 0 0.76 0.3 0 0.78 0.3 0 0.8 0.3 0 0.82 0.3 0 0.84 0.3 0 0.86 0.3 0 0.88 0.3 0 0.9 0.3 0 0.92 0.3 0 0.94 0.3 0 0.96 0.3 0 0.98 0.3 0 1 0.3 0 0 0.32 0 0.02 0.32 0 0.04 0.32 0 0.06 0.32 0 0.08 0.32 0 0.1 0.32 0 0.12 0.32 0 0.14 0.32 0 0.16 0.32 0 0.18 0.32 0 0.2 0.32 0 0.22 0.32 0 0.24 0.32 0 0.26 0.32 0 0.28 0.32 0 0.3 0.32 0 0.32 0.32 0 0.34 0.32 0 0.36 0.32 0 0.38 0.32 0 0.4 0.32 0 0.42 0.32 0 0.44 0.32 0 0.46 0.32 0 0.48 0.32 0 0.5 0.32 0 0.52 0.32 0 0.54 0.32 0 0.56 0.32 0 0.58 0.32 0 0.6 0.32 0 0.62 0.32 0 0.64 0.32 0 0.66 0.32 0 0.68 0.32 0 0.7 0.32 0 0.72 0.32 0 0.74 0.32 0 0.76 0.32 0 0.78 0.32 0 0.8 0.32 0 0.82 0.32 0 0.84 0.32 0 0.86 0.32 0 0.88 0.32 0 0.9 0.32 0 0.92 0.32 0 0.94 0.
[...]
			<PointData Scalars="VitesseX">
				<DataArray Name="VitesseX" type="Float32" format="ascii">
 0 0 0 0 0 0 0 0 0 0 0 0 0 0 0 0 0 0 0 0 0 0 0 0 0 0 0 0 0 0 0 0 0 0 0 0 0 0 0 0 0 0 0 0 0 0 0 0 0 0 0 0 0.000456373 0.00181797 0.00406372 0.00715748 0.0110504 0.0156809 0.0209759 0.026852 0.0332166 0.0399695 0.0470043 0.0542105 0.0614737 0.0686804 0.0757184 0.082476 0.0888471 0.0947312 0.100036 0.104677 0.108582 0.111688 0.113947 0.115336 0.115791 0.115346 0.113998 0.111746 0.108655 0.104763 0.100131 0.0948328 0.0889515 0.0825799 0.0758187 0.0687745 0.0615586 0.0542856 0.0470693 0.0400233 0.0332595 0.0268847 0.0209995 0.0156969 0.0110603 0.00716307 0.00406642 0.00181915 0.000456537 4.95285e-27 0 0.000905084 0.00360419 0.00805543 0.014185 0.0218953 0.031064 0.041546 0.0531761 0.0657716 0.079135 0.0930571 0.10732 0.121698 0.135968 0.149912 0.163309 0.175948 0.187633 0.198179 0.20742 0.21521 0.221425 0.225966 0.228811 0.229749 0.228958 0.226367 0.22195 0.215878 0.208206 0.199053 0.188565 0.176907 0.164263 0.150833 0.136832 0.122481 0.108012 0.0936508 0.0796249 0.0661601 0.0534703 0.0417569 0.0312053 0.0219821 0.0142322 0.00807697 0.00361211 0.000906146 9.82676e-27 0 0.00133912 0.00533096 0.0119136 0.020975 0.0323701 0.0459169 0.061401 0.0785784 0.0971799 0.116915 0.137476 0.158543 0.17978 0.200866 0.22148 0.241294 0.260002 0.277309 0.292946 0.306666 0.318251 0.327518 0.334316 0.338643 0.340071 0.339015 0.335264 0.328783 0.319861 0.308559 0.295053 0.279556 0.262311 0.243593 0.223699 0.202947 0.181668 0.16021 0.138906 0.118095 0.0981155 0.0792868 0.0619086 0.0462567 0.0325783 0.0210881 0.011965 0.0053496 0.00134161 1.45447e-26 0 0.00175167 0.00697118 0.0155776 0.0274207 0.0423096 0.0600058 0.0802285 0.102659 0.126947 0.152715 0.179561 0.207072 0.234808 0.262353 0.289295 0.315205 0.339683 0.362347 0.382844 0.400851 0.416082 0.428293 0.437287 0.443095 0.445014 0.443787 0.438977 0.430577 0.418987 0.404268 0.386649 0.366404 0.343854 0.319356 0.293303 0.266111 0.238218 0.210083 0.182143 0.154845 0.128636 0.103938 0.0811444 0.0606187 0.042685 0.0276243 0.01567 0.0070044 0.00175609 1.90324e-26 0 0.00213624 0.00849913 0.0189898 0.0334206 0.0515577 0.073109 0.0977321 0.12504 0.154605 0.18597 0.218651 0.252143 0.285913 0.319462 0.352289 0.383877 0.413737 0.441407 0.466455 0.488488 0.507156 0.522159 0.533252 0.540507 0.542924 0.541614 0.535864 0.525725 0.511692 0.493823 0.472395 0.44774 0.420249 0.390358 0.358548 0.325329 0.291239 0.256846 0.222682 0.189296 0.157241 0.127035 0.0991614 0.0740651 0.0521429 0.0337377 0.0191334 0.00855044 0.00214307 2.32195e-26 0 0.00248682 0.00989092 0.0220966 0.0388805 0.0599687 0.0850202 0.113636 0.145367 0.179718 0.216158 0.254128 0.293046 0.332291 0.371291 0.40947 0.446226 0.480995 0.513239 0.542458 0.568193 0.590035 0.607632 0.620694 0.629335 0.632257 0.630943 0.624392 0.612721 0.59651 0.57581 0.550938 0.522281 0.490292 0.45548 0.418405 0.379668 0.339897 0.299762 0.259883 0.220905 0.18348 0.148214 0.115675 0.0863838 0.0608029 0.039332 0.0223006 0.00996331 0.00249643 2.70403e-26 0 0.00279791 0.0111248 0.0248492 0.0437144 0.0674104 0.0955519 0.12769 0.163321 0.201889 0.242802 0.285434 0.329135 0.37321 0.417023 0.459935 0.501268 0.540394 0.576709 0.609651 0.638705 0.663407 0.683358 0.698228 0.708163 0.711605 0.710353 0.703161 0.69019 0.672099 0.64893 0.621036 0.588848 0.552875 0.513692 0.471931 0.42827 0.383423 0.338153 0.293159 0.249174 0.206939 0.167142 0.130426 0.0973804 0.0685282 0.0443189 0.0251217 0.0112207 0.00281062 3.04348e-26 0 0.00306464 0.0121815 0.0272045 0.0478465 0.0737656 0.104538 0.139673 0.178618 0.22077 0.265482 0.312073 0.35984 0.408023 0.455936 0.502885 0.548133 0.590994 0.630813 0.666972 0.698908 0.726111 0.74814 0.764626 0.775739 0.779717 0.778578 0.770924 0.756903 0.737262 0.712027 0.681579 0.646388 0.60701 0.564075 0.518277 0.470367 0.421131 0.371412 0.321985 0.273656 0.227247 0.183518 0.14318 0.106881 0.0751971 0.0486197 0.0275522 0.0123029 0.00308069 3.33501e-26 0 0.00328285 0.0130445 0.0291254 0.0512118 0.0789344 0.111838 0.149396 0.191018 0.236061 0.283838 0.333625 0.384674 0.436179 0.487413 0.53764 0.586078 0.631996 0.674693 0.713513 0.747848 0.777153 0.800949 0.818836 0.830989 0.835519 0.834531 0.826609 0.811804 0.790965 0.764099 0.731607 0.693989 0.651838 0.60583 0.556712 0.505293 0.452423 0.399014 0.345904 0.293963 0.244083 0.197085 0.153736 0.114737 0.0807041 0.0521664 0.0295536 0.0131926 0.00330238 3.57405e-26 0 0.00344913 0.0137005 0.0305819 0.0537574 0.0828354 0.117336 0.156704 0.200324 0.247522 0.297581 0.349748 0.403246 0.457234 0.510956 0.563652 0.614503 0.662748 0.707655 0.748535 0.784751 0.815725 0.84095 0.859999 0.873034 0.878132 0.87732 0.869337 0.854022 0.832358 0.804322 0.770328 0.730897 0.686648 0.638295 0.586626 0.532495 0.476803 0.420521 0.364537 0.309774 0.25718 0.207627 0.161928 0.120822 0.0849622 0.054903 0.0310944 0.0138759 0.00347221 3.75687e-26 0 0.00356158 0.0141444 0.0315682 0.0554813 0.0854768 0.121056 0.161648 0.206614 0.255262 0.306857 0.360627 0.415772 0.471435 0.526838 0.581205 0.633696 0.683526 0.729941 0.77223 0.809731 0.841843 0.868038 0.887866 0.901487 0.906921 0.906267 0.898434 0.882888 0.860786 0.832059 0.797128 0.756525 0.710889 0.660956 0.607543 0.55154 0.493885 0.435592 0.377589 0.320839 0.266331 0.214977 0.167624 0.125041 0.087904 0.0567863 0.0321503 0.0143421 0.00358749 3.88062e-26 0 0.00361567 0.0143483 0.0320011 0.0562052 0.0865402 0.122497 0.163495 0.208893 0.257996 0.310068 0.364338 0.420012 0.476238 0.532234 0.587239 0.64041 0.690967 0.738154 0.781258 0.819611 0.852602 0.879687 0.900401 0.9148 0.921291 0.920975 0.913778 0.898431 0.876428 0.847617 0.812412 0.77135 0.725077 0.674343 0.619989 0.562927 0.504126 0.44463 0.385406 0.32744 0.271758 0.2193 0.170939 0.127465 0.0895677 0.0578323 0.0327248 0.0145899 0.00364722 3.94338e-26 0 0.00361559 0.0143473 0.0319962 0.0561908 0.0865076 0.122435 0.163391 0.208733 0.257769 0.309766 0.363958 0.419558 0.475722 0.531669 0.586648 0.639819 0.690401 0.73764 0.780816 0.819255 0.852339 0.879515 0.900306 0.914764 0.921287 0.920978 0.913802 0.898494 0.876541 0.847786 0.81264 0.771631 0.7254 0.674694 0.62035 0.563281 0.504457 0.444924 0.385655 0.327639 0.271909 0.219406 0.171009 0.127505 0.0895891 0.0578417 0.0327279 0.0145905 0.00364726 3.94417e-26 0 0.00355602 0.0141009 0.0314244 0.0551507 0.0848555 0.120032 0.160108 0.204455 0.252402 0.303238 0.356225 0.410603 0.465565 0.520348 0.574239 0.626425 0.676151 0.722684 0.765323 0.803408 0.836327 0.863529 0.884534 0.899278 0.906634 0.90672 0.900916 0.886533 0.865627 0.837897 0.803732 0.763647 0.718273 0.668351 0.614721 0.558297 0.500056 0.44105 0.382271 0.324706 0.269398 0.217297 0.169283 0.126145 0.0885739 0.0571427 0.0323052 0.0143889 0.00359337 3.88298e-26 0 0.00344104 0.013637 0.0303713 0.0532716 0.0819199 0.115822 0.154423 0.19712 0.243268 0.292191 0.343188 0.395538 0.448482 0.501284 0.553279 0.603692 0.651802 0.696908 0.738335 0.775443 0.807633 0.834364 0.855157 0.869851 0.877742 0.877981 0.872809 0.859131 0.83916 0.812549 0.779663 0.740992 0.697142 0.648829 0.596867 0.542147 0.485624 0.428324 0.371226 0.315292 0.261549 0.210924 0.164279 0.122383 0.0859054 0.055403 0.0313109 0.0139412 0.00348036 3.76078e-26 0 0.00327166 0.0129567 0.0288341 0.0505402 0.077669 0.109746 0.146244 0.186593 0.230188 0.276398 0.32457 0.374038 0.424103 0.47407 0.523333 0.571168 0.616904 0.65988 0.699458 0.735029 0.766018 0.791898 0.812197 0.82665 0.835031 0.835508 0.831426 0.81887 0.80035 0.775434 0.744458 0.707878 0.666268 0.62031 0.570786 0.518554 0.46454 0.40973 0.355089 0.301539 0.25008 0.201611 0.156963 0.116878 0.0819985 0.0528524 0.0298506 0.0132821 0.00331357 3.57947e-26 0 0.00305053 0.0120706 0.026837 0.0469995 0.0721699 0.101901 0.1357 0.173041 0.213369 0.256108 0.300668 0.346445 0.392816 0.439139 0.484878 0.529374 0.572014 0.612191 0.649315 0.682816 0.71215 0.736812 0.756347 0.770374 0.779181 0.779925 0.777056 0.765862 0.749122 0.726326 0.697769 0.66387 0.625161 0.58228 0.535962 0.487025 0.436347 0.384865 0.333514 0.283164 0.234773 0.189198 0.147229 0.109569 0.0768213 0.0494805 0.0279249 0.0124152 0.00309475 3.34189e-26 0 0.00278109 0.0109926 0.0244113 0.042705 0.0655091 0.0924097 0.122958 0.156679 0.193077 0.231643 0.271859 0.313195 0.355116 0.397046 0.438526 0.478974 0.517847 0.554602 0.588707 0.619637 0.646889 0.669989 0.688499 0.702032 0.710827 0.712429 0.710341 0.701031 0.686298 0.666009 0.640344 0.609673 0.574477 0.535343 0.492951 0.448061 0.401494 0.354125 0.306843 0.260459 0.21587 0.173881 0.13523 0.100569 0.0704557 0.0453407 0.0255641 0.0113541 0.00282733 3.05175e-26 0 0.00246756 0.00973948 0.021595 0.0377244 0.0577914 0.0814222 0.108218 0.137764 0.169632 0.20339 0.238598 0.274816 0.311598 0.34846 0.38501 0.420766 0.455262 0.488028 0.518595 0.546497 0.571276 0.592493 0.609736 0.62263 0.631211 0.633949 0.632458 0.625368 0.612878 0.595446 0.573097 0.546148 0.515023 0.480247 0.442435 0.40228 0.360534 0.317999 0.2755 0.233782 0.193671 0.155904 0.121157 0.0900222 0.0630024 0.0404982 0.0228057 0.0101156 0.00251553 2.7136e-26 0 0.00211484 0.00833077 0.0184323 0.0321359 0.0491383 0.0691113 0.0917129 0.116594 0.143404 0.171793 0.201411 0.231912 0.262947 0.294147 0.325176 0.355672 0.38525 0.413523 0.440092 0.464556 0.486508 0.505552 0.521305 0.533411 0.541711 0.545544 0.544788 0.540021 0.530027 0.515754 0.497093 0.474303 0.447742 0.417865 0.385216 0.350408 0.314117 0.277057 0.239982 0.203558 0.168527 0.135551 0.105231 0.0780947 0.0545793 0.0350297 0.019693 0.00871922 0.00216426 2.33271e-26 0 0.00172847 0.00678851 0.0149729 0.0260273 0.0396859 0.0556708 0.0737021 0.0935035 0.114806 0.13735 0.160883 0.18516 0.209935 0.234959 0.259967 0.284717 0.308915 0.332261 0.354436 0.375107 0.393926 0.410541 0.424606 0.435784 0.443768 0.448571 0.448744 0.446328 0.439055 0.428195 0.413537 0.395274 0.373697 0.349185 0.322198 0.293267 0.262977 0.231951 0.20085 0.170264 0.140836 0.113143 0.0877061 0.0649751 0.0453193 0.0290215 0.0162754 0.00718706 0.00177906 1.91506e-26 0 0.00131449 0.00513686 0.0112712 0.0194949 0.029583 0.0413123 0.0544694 0.0688553 0.0842886 0.100605 0.117653 0.135296 0.153397 0.171819 0.190417 0.209018 0.227459 0.245523 0.262977 0.279559 0.294986 0.308956 0.321159 0.331286 0.33904 0.344199 0.346328 0.345407 0.341509 0.334147 0.323743 0.310307 0.294057 0.275289 0.254377 0.231758 0.207922 0.183392 0.158723 0.134427 0.111036 0.0890352 0.0688578 0.0508708 0.0353689 0.0225685 0.0126067 0.00554327 0.00136599 1.46719e-26 0 0.00087941 0.0034017 0.00738543 0.0126413 0.0189887 0.026262 0.0343176 0.0430377 0.0523317 0.0621342 0.0724013 0.0831042 0.0942212 0.10573 0.117596 0.129767 0.142165 0.154675 0.167149 0.179412 0.191242 0.202391 0.21259 0.221558 0.229012 0.23464 0.238285 0.239586 0.238578 0.23514 0.229122 0.220739 0.210075 0.197342 0.182821 0.166852 0.14982 0.132146 0.114268 0.0966134 0.0795974 0.0636086 0.0489842 0.0360044 0.024885 0.0157725 0.00874481 0.00381377 0.000931575 9.96137e-27 0 0.000430071 0.00161037 0.0033771 0.00557565 0.00807211 0.0107609 0.0135707 0.0164668 0.0194517 0.0225612 0.0258594 0.0294299 0.0333665 0.0377619 0.0426973 0.0482308 0.0543892 0.0611595 0.0684848 0.0762615 0.0843409 0.0925289 0.100604 0.108319 0.115407 0.121551 0.126539 0.130152 0.132241 0.132538 0.131188 0.127981 0.123071 0.11657 0.108658 0.0995706 0.089588 0.0790192 0.0681885 0.0574199 0.0470176 0.0372643 0.0283989 0.0206107 0.0140331 0.00874081 0.00475068 0.00202586 0.000482643 5.0929e-27 0 -2.62759e-05 -0.000207727 -0.000687298 -0.00158429 -0.00298447 -0.00493244 -0.00742669 -0.0104178 -0.0138098 -0.0174647 -0.0212103 -0.0248497 -0.0281735 -0.0309727 -0.0330516 -0.0342409 -0.0344084 -0.0334686 -0.031389 -0.0281934 -0.0239623 -0.0188292 -0.0129745 -0.00661662 -1.90165e-07 0.0066165 0.0129744 0.018829 0.0239621 0.0281932 0.0313888 0.0334685 0.0344082 0.0342407 0.0330515 0.0309725 0.0281734 0.0248496 0.0212104 0.0174649 0.0138099 0.0104179 0.00742679 0.00493245 0.00298447 0.00158429 0.000687299 0.000207727 2.62759e-05 1.43103e-28 0 -0.000482643 -0.00202586 -0.00475068 -0.00874081 -0.0140331 -0.0206107 -0.0283988 -0.0372641 -0.0470174 -0.0574198 -0.0681885 -0.0790193 -0.0895883 -0.0995709 -0.108658 -0.116571 -0.123071 -0.127981 -0.131188 -0.132538 -0.132241 -0.130152 -0.126539 -0.121552 -0.115407 -0.108319 -0.100604 -0.0925291 -0.0843411 -0.0762617 -0.068485 -0.0611597 -0.0543894 -0.0482308 -0.0426971 -0.0377619 -0.0333665 -0.0294299 -0.0258593 -0.0225611 -0.0194515 -0.0164667 -0.0135706 -0.0107609 -0.00807211 -0.00557564 -0.00337709 -0.00161037 -0.000430071 -4.81006e-27 0 -0.000931575 -0.00381377 -0.0087448 -0.0157725 -0.024885 -0.0360044 -0.048984 -0.0636084 -0.0795973 -0.0966133 -0.114268 -0.132146 -0.14982 -0.166852 -0.182822 -0.197343 -0.210075 -0.220739 -0.229122 -0.235141 -0.238579 -0.239586 -0.238285 -0.23464 -0.229012 -0.221558 -0.21259 -0.202391 -0.191242 -0.179412 -0.167149 -0.154675 -0.142165 -0.129767 -0.117595 -0.105729 -0.094221 -0.0831041 -0.0724012 -0.0621341 -0.0523316 -0.0430376 -0.0343175 -0.0262619 -0.0189887 -0.0126413 -0.00738543 -0.0034017 -0.00087941 -9.68847e-27 0 -0.00136599 -0.00554327 -0.0126067 -0.0225685 -0.0353688 -0.0508708 -0.0688577 -0.0890351 -0.111035 -0.134427 -0.158723 -0.183392 -0.207922 -0.231758 -0.254377 -0.27529 -0.294058 -0.310308 -0.323743 -0.334147 -0.341509 -0.345408 -0.346328 -0.344199 -0.33904 -0.331286 -0.321159 -0.308956 -0.294986 -0.279559 -0.262977 -0.245523 -0.227459 -0.209018 -0.190416 -0.171819 -0.153396 -0.135296 -0.117653 -0.100604 -0.0842885 -0.0688552 -0.0544693 -0.0413123 -0.029583 -0.0194949 -0.0112712 -0.00513686 -0.00131449 -1.44151e-26 0 -0.00177906 -0.00718706 -0.0162754 -0.0290215 -0.0453193 -0.0649751 -0.0877061 -0.113143 -0.140836 -0.170264 -0.20085 -0.231951 -0.262977 -0.293267 -0.322198 -0.349185 -0.373698 -0.395276 -0.41354 -0.428197 -0.439056 -0.446328 -0.448744 -0.448572 -0.443768 -0.435784 -0.424606 -0.410542 -0.393926 -0.375107 -0.354436 -0.332261 -0.308915 -0.284717 -0.259967 -0.234959 -0.209935 -0.18516 -0.160883 -0.13735 -0.114806 -0.0935034 -0.073702 -0.0556708 -0.0396859 -0.0260273 -0.0149729 -0.00678851 -0.00172847 -1.89152e-26 0 -0.00216426 -0.00871922 -0.019693 -0.0350297 -0.0545793 -0.0780947 -0.105231 -0.135551 -0.168527 -0.203558 -0.239982 -0.277057 -0.314117 -0.350409 -0.385216 -0.417867 -0.447745 -0.474309 -0.497101 -0.515759 -0.530028 -0.540021 -0.544788 -0.545544 -0.541711 -0.533411 -0.521305 -0.505553 -0.486508 -0.464556 -0.440092 -0.413523 -0.38525 -0.355672 -0.325176 -0.294147 -0.262947 -0.231912 -0.201411 -0.171792 -0.143404 -0.116594 -0.0917127 -0.0691112 -0.0491383 -0.0321359 -0.0184323 -0.00833077 -0.00211484 -2.31174e-26 0 -0.00251553 -0.0101156 -0.0228057 -0.0404982 -0.0630024 -0.0900222 -0.121157 -0.155904 -0.193671 -0.233782 -0.2755 -0.317999 -0.360534 -0.40228 -0.442436 -0.480249 -0.515029 -0.546158 -0.573106 -0.59545 -0.612877 -0.625364 -0.632456 -0.633948 -0.631211 -0.62263 -0.609736 -0.592493 -0.571276 -0.546497 -0.518595 -0.488028 -0.455262 -0.420767 -0.38501 -0.34846 -0.311598 -0.274816 -0.238598 -0.20339 -0.169632 -0.137764 -0.108218 -0.0814221 -0.0577914 -0.0377244 -0.021595 -0.00973948 -0.00246756 -2.69553e-26 0 -0.00282733 -0.0113541 -0.0255641 -0.0453407 -0.0704557 -0.100569 -0.13523 -0.173881 -0.21587 -0.260459 -0.306843 -0.354125 -0.401494 -0.448061 -0.492952 -0.535347 -0.574485 -0.609682 -0.640348 -0.666005 -0.686289 -0.701021 -0.710337 -0.712426 -0.710826 -0.702031 -0.688499 -0.669989 -0.646889 -0.619637 -0.588707 -0.554602 -0.517847 -0.478974 -0.438526 -0.397046 -0.355116 -0.313195 -0.271859 -0.231643 -0.193077 -0.156679 -0.122958 -0.0924096 -0.0655091 -0.042705 -0.0244113 -0.0109926 -0.00278109 -3.03678e-26 0 -0.00309475 -0.0124152 -0.0279249 -0.0494805 -0.0768212 -0.109569 -0.147229 -0.189198 -0.234773 -0.283164 -0.333513 -0.384865 -0.436346 -0.487025 -0.535964 -0.582284 -0.625168 -0.663873 -0.69776 -0.726309 -0.749108 -0.765851 -0.77705 -0.779923 -0.77918 -0.770372 -0.756345 -0.73681 -0.712148 -0.682815 -0.649315 -0.612191 -0.572014 -0.529374 -0.484878 -0.439139 -0.392816 -0.346445 -0.300668 -0.256108 -0.213369 -0.173041 -0.1357 -0.101901 -0.0721699 -0.0469995 -0.026837 -0.0120706 -0.00305053 -3.33007e-26 0 -0.00331357 -0.0132821 -0.0298506 -0.0528524 -0.0819984 -0.116878 -0.156963 -0.201611 -0.25008 -0.301539 -0.355088 -0.409729 -0.464539 -0.518555 -0.570787 -0.620313 -0.666272 -0.707876 -0.744444 -0.77542 -0.800349 -0.818876 -0.831429 -0.835508 -0.83503 -0.826647 -0.812193 -0.791893 -0.766014 -0.735027 -0.699457 -0.659879 -0.616903 -0.571168 -0.523333 -0.47407 -0.424103 -0.374038 -0.32457 -0.276398 -0.230188 -0.186593 -0.146244 -0.109746 -0.077669 -0.0505402 -0.0288341 -0.0129567 -0.00327166 -3.57073e-26 0 -0.00348036 -0.0139412 -0.0313109 -0.0554029 -0.0859054 -0.122383 -0.164279 -0.210924 -0.261549 -0.315292 -0.371226 -0.428323 -0.485624 -0.542147 -0.596867 -0.648831 -0.697144 -0.740991 -0.779658 -0.812544 -0.839163 -0.859138 -0.872813 -0.877982 -0.877742 -0.869849 -0.855153 -0.834359 -0.807628 -0.775439 -0.738333 -0.696907 -0.651801 -0.603691 -0.553279 -0.501284 -0.448482 -0.395538 -0.343188 -0.292191 -0.243268 -0.197119 -0.154423 -0.115821 -0.0819199 -0.0532716 -0.0303713 -0.013637 -0.00344104 -3.75494e-26 0 -0.00359337 -0.0143889 -0.0323052 -0.0571427 -0.0885739 -0.126145 -0.169283 -0.217297 -0.269398 -0.324705 -0.382271 -0.441049 -0.500056 -0.558297 -0.614721 -0.668352 -0.718273 -0.763647 -0.803733 -0.837898 -0.865627 -0.886533 -0.900917 -0.90672 -0.906635 -0.899278 -0.884533 -0.863527 -0.836323 -0.803404 -0.76532 -0.722682 -0.67615 -0.626425 -0.574239 -0.520349 -0.465565 -0.410603 -0.356225 -0.303238 -0.252402 -0.204455 -0.160107 -0.120032 -0.0848555 -0.0551507 -0.0314244 -0.0141009 -0.00355602 -3.87974e-26 0 -0.00364726 -0.0145905 -0.0327279 -0.0578416 -0.0895891 -0.127505 -0.171009 -0.219406 -0.271909 -0.327639 -0.385655 -0.444924 -0.504457 -0.563281 -0.62035 -0.674694 -0.7254 -0.771631 -0.812641 -0.847788 -0.876543 -0.898495 -0.913802 -0.920977 -0.921288 -0.914766 -0.900308 -0.879515 -0.852337 -0.819252 -0.780813 -0.737638 -0.6904 -0.639819 -0.586648 -0.531669 -0.475722 -0.419558 -0.363958 -0.309766 -0.257769 -0.208733 -0.163391 -0.122435 -0.0865076 -0.0561908 -0.0319962 -0.0143473 -0.00361559 -3.94316e-26 0 -0.00364722 -0.0145899 -0.0327248 -0.0578323 -0.0895677 -0.127464 -0.170939 -0.2193 -0.271758 -0.32744 -0.385406 -0.44463 -0.504126 -0.562927 -0.619989 -0.674343 -0.725077 -0.771351 -0.812414 -0.847619 -0.876431 -0.898433 -0.913779 -0.920975 -0.921292 -0.914801 -0.900403 -0.879689 -0.852602 -0.81961 -0.781257 -0.738153 -0.690966 -0.64041 -0.587239 -0.532234 -0.476238 -0.420012 -0.364338 -0.310068 -0.257996 -0.208893 -0.163495 -0.122497 -0.0865402 -0.0562052 -0.0320011 -0.0143483 -0.00361567 -3.94417e-26 0 -0.00358749 -0.0143421 -0.0321503 -0.0567863 -0.087904 -0.125041 -0.167624 -0.214977 -0.266331 -0.320838 -0.377589 -0.435592 -0.493885 -0.55154 -0.607543 -0.660956 -0.710889 -0.756526 -0.797129 -0.832061 -0.860788 -0.882891 -0.898436 -0.906267 -0.906921 -0.901487 -0.887866 -0.868039 -0.841844 -0.80973 -0.772229 -0.72994 -0.683525 -0.633696 -0.581205 -0.526838 -0.471435 -0.415772 -0.360627 -0.306857 -0.255262 -0.206613 -0.161648 -0.121056 -0.0854768 -0.0554813 -0.0315682 -0.0141444 -0.00356158 -3.88275e-26 0 -0.00347221 -0.0138759 -0.0310944 -0.054903 -0.0849622 -0.120822 -0.161928 -0.207627 -0.25718 -0.309774 -0.364537 -0.420521 -0.476803 -0.532495 -0.586626 -0.638295 -0.686648 -0.730897 -0.770328 -0.804323 -0.832359 -0.854023 -0.869338 -0.877321 -0.878132 -0.873035 -0.86 -0.840951 -0.815726 -0.784752 -0.748536 -0.707655 -0.662748 -0.614503 -0.563652 -0.510956 -0.457234 -0.403246 -0.349748 -0.297581 -0.247522 -0.200324 -0.156704 -0.117336 -0.0828354 -0.0537574 -0.0305819 -0.0137005 -0.00344913 -3.75989e-26 0 -0.00330238 -0.0131926 -0.0295536 -0.0521664 -0.0807041 -0.114737 -0.153736 -0.197085 -0.244083 -0.293963 -0.345904 -0.399014 -0.452423 -0.505293 -0.556712 -0.60583 -0.651838 -0.693989 -0.731607 -0.764099 -0.790965 -0.811804 -0.82661 -0