<?xml version="1.0"?>
<VTKFile type="PolyData">
	<PolyData>
		<Piece NumberOfPoints="2601" NumberOfPolys="2500">
			<Points>
				<DataArray type="Float32" NumberOfComponents="3" format="ascii">
 0 0 0 0.02 0 0 0.04 0 0 0.06 0 0 0.08 0 0 0.1 0 0 0.12 0 0 0.14 0 0 0.16 0 0 0.18 0 0 0.2 0 0 0.22 0 0 0.24 0 0 0.26 0 0 0.28 0 0 0.3 0 0 0.32 0 0 0.34 0 0 0.36 0 0 0.38 0 0 0.4 0 0 0.42 0 0 0.44 0 0 0.46 0 0 0.48 0 0 0.5 0 0 0.52 0 0 0.54 0 0 0.56 0 0 0.58 0 0 0.6 0 0 0.62 0 0 0.64 0 0 0.66 0 0 0.68 0 0 0.7 0 0 0.72 0 0 0.74 0 0 0.76 0 0 0.78 0 0 0.8 0 0 0.82 0 0 0.84 0 0 0.86 0 0 0.88 0 0 0.9 0 0 0.92 0 0 0.94 0 0 0.96 0 0 0.98 0 0 1 0 0 0 0.02 0 0.02 0.02 0 0.04 0.02 0 0.06 0.02 0 0.08 0.02 0 0.1 0.02 0 0.12 0.02 0 0.14 0.02 0 0.16 0.02 0 0.18 0.02 0 0.2 0.02 0 0.22 0.02 0 0.24 0.02 0 0.26 0.02 0 0.28 0.02 0 0.3 0.02 0 0.32 0.02 0 0.34 0.02 0 0.36 0.02 0 0.38 0.02 0 0.4 0.02 0 0.42 0.02 0 0.44 0.02 0 0.46 0.02 0 0.48 0.02 0 0.5 0.02 0 0.52 0.02 0 0.54 0.02 0 0.56 0.02 0 0.58 0.02 0 0.6 0.02 0 0.62 0.02 0 0.64 0.02 0 0.66 0.02 0 0.68 0.02 0 0.7 0.02 0 0.72 0.02 0 0.74 0.02 0 0.76 0.02 0 0.78 0.02 0 0.8 0.02 0 0.82 0.02 0 0.84 0.02 0 0.86 0.02 0 0.88 0.02 0 0.9 0.02 0 0.92 0.02 0 0.94 0.02 0 0.96 0.02 0 0.98 0.02 0 1 0.02 0 0 0.04 0 0.02 0.04 0 0.04 0.04 0 0.06 0.04 0 0.08 0.04 0 0.1 0.04 0 0.12 0.04 0 0.14 0.04 0 0.16 0.04 0 0.18 0.04 0 0.2 0.04 0 0.22 0.04 0 0.24 0.04 0 0.26 0.04 0 0.28 0.04 0 0.3 0.04 0 0.32 0.04 0 0.34 0.04 0 0.36 0.04 0 0.38 0.04 0 0.4 0.04 0 0.42 0.04 0 0.44 0.04 0 0.46 0.04 0 0.48 0.04 0 0.5 0.04 0 0.52 0.04 0 0.54 0.04 0 0.56 0.04 0 0.58 0.04 0 0.6 0.04 0 0.62 0.04 0 0.64 0.04 0 0.66 0.04 0 0.68 0.04 0 0.7 0.04 0 0.72 0.04 0 0.74 0.04 0 0.76 0.04 0 0.78 0.04 0 0.8 0.04 0 0.82 0.04 0 0.84 0.04 0 0.86 0.04 0 0.88 0.04 0 0.9 0.04 0 0.92 0.04 0 0.94 0.04 0 0.96 0.04 0 0.98 0.04 0 1 0.04 0 0 0.06 0 0.02 0.06 0 0.04 0.06 0 0.06 0.06 0 0.08 0.06 0 0.1 0.06 0 0.12 0.06 0 0.14 0.06 0 0.16 0.06 0 0.18 0.06 0 0.2 0.06 0 0.22 0.06 0 0.24 0.06 0 0.26 0.06 0 0.28 0.06 0 0.3 0.06 0 0.32 0.06 0 0.34 0.06 0 0.36 0.06 0 0.38 0.06 0 0.4 0.06 0 0.42 0.06 0 0.44 0.06 0 0.46 0.06 0 0.48 0.06 0 0.5 0.06 0 0.52 0.06 0 0.54 0.06 0 0.56 0.06 0 0.58 0.06 0 0.6 0.06 0 0.62 0.06 0 0.64 0.06 0 0.66 0.06 0 0.68 0.06 0 0.7 0.06 0 0.72 0.06 0 0.74 0.06 0 0.76 0.06 0 0.78 0.06 0 0.8 0.06 0 0.82 0.06 0 0.84 0.06 0 0.86 0.06 0 0.88 0.06 0 0.9 0.06 0 0.92 0.06 0 0.94 0.06 0 0.96 0.06 0 0.98 0.06 0 1 0.06 0 0 0.08 0 0.02 0.08 0 0.04 0.08 0 0.06 0.08 0 0.08 0.08 0 0.1 0.08 0 0.12 0.08 0 0.14 0.08 0 0.16 0.08 0 0.18 0.08 0 0.2 0.08 0 0.22 0.08 0 0.24 0.08 0 0.26 0.08 0 0.28 0.08 0 0.3 0.08 0 0.32 0.08 0 0.34 0.08 0 0.36 0.08 0 0.38 0.08 0 0.4 0.08 0 0.42 0.08 0 0.44 0.08 0 0.46 0.08 0 0.48 0.08 0 0.5 0.08 0 0.52 0.08 0 0.54 0.08 0 0.56 0.08 0 0.58 0.08 0 0.6 0.08 0 0.62 0.08 0 0.64 0.08 0 0.66 0.08 0 0.68 0.08 0 0.7 0.08 0 0.72 0.08 0 0.74 0.08 0 0.76 0.08 0 0.78 0.08 0 0.8 0.08 0 0.82 0.08 0 0.84 0.08 0 0.86 0.08 0 0.88 0.08 0 0.9 0.08 0 0.92 0.08 0 0.94 0.08 0 0.96 0.08 0 0.98 0.08 0 1 0.08 0 0 0.1 0 0.02 0.1 0 0.04 0.1 0 0.06 0.1 0 0.08 0.1 0 0.1 0.1 0 0.12 0.1 0 0.14 0.1 0 0.16 0.1 0 0.18 0.1 0 0.2 0.1 0 0.22 0.1 0 0.24 0.1 0 0.26 0.1 0 0.28 0.1 0 0.3 0.1 0 0.32 0.1 0 0.34 0.1 0 0.36 0.1 0 0.38 0.1 0 0.4 0.1 0 0.42 0.1 0 0.44 0.1 0 0.46 0.1 0 0.48 0.1 0 0.5 0.1 0 0.52 0.1 0 0.54 0.1 0 0.56 0.1 0 0.58 0.1 0 0.6 0.1 0 0.62 0.1 0 0.64 0.1 0 0.66 0.1 0 0.68 0.1 0 0.7 0.1 0 0.72 0.1 0 0.74 0.1 0 0.76 0.1 0 0.78 0.1 0 0.8 0.1 0 0.82 0.1 0 0.84 0.1 0 0.86 0.1 0 0.88 0.1 0 0.9 0.1 0 0.92 0.1 0 0.94 0.1 0 0.96 0.1 0 0.98 0.1 0 1 0.1 0 0 0.12 0 0.02 0.12 0 0.04 0.12 0 0.06 0.12 0 0.08 0.12 0 0.1 0.12 0 0.12 0.12 0 0.14 0.12 0 0.16 0.12 0 0.18 0.12 0 0.2 0.12 0 0.22 0.12 0 0.24 0.12 0 0.26 0.12 0 0.28 0.12 0 0.3 0.12 0 0.32 0.12 0 0.34 0.12 0 0.36 0.12 0 0.38 0.12 0 0.4 0.12 0 0.42 0.12 0 0.44 0.12 0 0.46 0.12 0 0.48 0.12 0 0.5 0.12 0 0.52 0.12 0 0.54 0.12 0 0.56 0.12 0 0.58 0.12 0 0.6 0.12 0 0.62 0.12 0 0.64 0.12 0 0.66 0.12 0 0.68 0.12 0 0.7 0.12 0 0.72 0.12 0 0.74 0.12 0 0.76 0.12 0 0.78 0.12 0 0.8 0.12 0 0.82 0.12 0 0.84 0.12 0 0.86 0.12 0 0.88 0.12 0 0.9 0.12 0 0.92 0.12 0 0.94 0.12 0 0.96 0.12 0 0.98 0.12 0 1 0.12 0 0 0.14 0 0.02 0.14 0 0.04 0.14 0 0.06 0.14 0 0.08 0.14 0 0.1 0.14 0 0.12 0.14 0 0.14 0.14 0 0.16 0.14 0 0.18 0.14 0 0.2 0.14 0 0.22 0.14 0 0.24 0.14 0 0.26 0.14 0 0.28 0.14 0 0.3 0.14 0 0.32 0.14 0 0.34 0.14 0 0.36 0.14 0 0.38 0.14 0 0.4 0.14 0 0.42 0.14 0 0.44 0.14 0 0.46 0.14 0 0.48 0.14 0 0.5 0.14 0 0.52 0.14 0 0.54 0.14 0 0.56 0.14 0 0.58 0.14 0 0.6 0.14 0 0.62 0.14 0 0.64 0.14 0 0.66 0.14 0 0.68 0.14 0 0.7 0.14 0 0.72 0.14 0 0.74 0.14 0 0.76 0.14 0 0.78 0.14 0 0.8 0.14 0 0.82 0.14 0 0.84 0.14 0 0.86 0.14 0 0.88 0.14 0 0.9 0.14 0 0.92 0.14 0 0.94 0.14 0 0.96 0.14 0 0.98 0.14 0 1 0.14 0 0 0.16 0 0.02 0.16 0 0.04 0.16 0 0.06 0.16 0 0.08 0.16 0 0.1 0.16 0 0.12 0.16 0 0.14 0.16 0 0.16 0.16 0 0.18 0.16 0 0.2 0.16 0 0.22 0.16 0 0.24 0.16 0 0.26 0.16 0 0.28 0.16 0 0.3 0.16 0 0.32 0.16 0 0.34 0.16 0 0.36 0.16 0 0.38 0.16 0 0.4 0.16 0 0.42 0.16 0 0.44 0.16 0 0.46 0.16 0 0.48 0.16 0 0.5 0.16 0 0.52 0.16 0 0.54 0.16 0 0.56 0.16 0 0.58 0.16 0 0.6 0.16 0 0.62 0.16 0 0.64 0.16 0 0.66 0.16 0 0.68 0.16 0 0.7 0.16 0 0.72 0.16 0 0.74 0.16 0 0.76 0.16 0 0.78 0.16 0 0.8 0.16 0 0.82 0.16 0 0.84 0.16 0 0.86 0.16 0 0.88 0.16 0 0.9 0.16 0 0.92 0.16 0 0.94 0.16 0 0.96 0.16 0 0.98 0.16 0 1 0.16 0 0 0.18 0 0.02 0.18 0 0.04 0.18 0 0.06 0.18 0 0.08 0.18 0 0.1 0.18 0 0.12 0.18 0 0.14 0.18 0 0.16 0.18 0 0.18 0.18 0 0.2 0.18 0 0.22 0.18 0 0.24 0.18 0 0.26 0.18 0 0.28 0.18 0 0.3 0.18 0 0.32 0.18 0 0.34 0.18 0 0.36 0.18 0 0.38 0.18 0 0.4 0.18 0 0.42 0.18 0 0.44 0.18 0 0.46 0.18 0 0.48 0.18 0 0.5 0.18 0 0.52 0.18 0 0.54 0.18 0 0.56 0.18 0 0.58 0.18 0 0.6 0.18 0 0.62 0.18 0 0.64 0.18 0 0.66 0.18 0 0.68 0.18 0 0.7 0.18 0 0.72 0.18 0 0.74 0.18 0 0.76 0.18 0 0.78 0.18 0 0.8 0.18 0 0.82 0.18 0 0.84 0.18 0 0.86 0.18 0 0.88 0.18 0 0.9 0.18 0 0.92 0.18 0 0.94 0.18 0 0.96 0.18 0 0.98 0.18 0 1 0.18 0 0 0.2 0 0.02 0.2 0 0.04 0.2 0 0.06 0.2 0 0.08 0.2 0 0.1 0.2 0 0.12 0.2 0 0.14 0.2 0 0.16 0.2 0 0.18 0.2 0 0.2 0.2 0 0.22 0.2 0 0.24 0.2 0 0.26 0.2 0 0.28 0.2 0 0.3 0.2 0 0.32 0.2 0 0.34 0.2 0 0.36 0.2 0 0.38 0.2 0 0.4 0.2 0 0.42 0.2 0 0.44 0.2 0 0.46 0.2 0 0.48 0.2 0 0.5 0.2 0 0.52 0.2 0 0.54 0.2 0 0.56 0.2 0 0.58 0.2 0 0.6 0.2 0 0.62 0.2 0 0.64 0.2 0 0.66 0.2 0 0.68 0.2 0 0.7 0.2 0 0.72 0.2 0 0.74 0.2 0 0.76 0.2 0 0.78 0.2 0 0.8 0.2 0 0.82 0.2 0 0.84 0.2 0 0.86 0.2 0 0.88 0.2 0 0.9 0.2 0 0.92 0.2 0 0.94 0.2 0 0.96 0.2 0 0.98 0.2 0 1 0.2 0 0 0.22 0 0.02 0.22 0 0.04 0.22 0 0.06 0.22 0 0.08 0.22 0 0.1 0.22 0 0.12 0.22 0 0.14 0.22 0 0.16 0.22 0 0.18 0.22 0 0.2 0.22 0 0.22 0.22 0 0.24 0.22 0 0.26 0.22 0 0.28 0.22 0 0.3 0.22 0 0.32 0.22 0 0.34 0.22 0 0.36 0.22 0 0.38 0.22 0 0.4 0.22 0 0.42 0.22 0 0.44 0.22 0 0.46 0.22 0 0.48 0.22 0 0.5 0.22 0 0.52 0.22 0 0.54 0.22 0 0.56 0.22 0 0.58 0.22 0 0.6 0.22 0 0.62 0.22 0 0.64 0.22 0 0.66 0.22 0 0.68 0.22 0 0.7 0.22 0 0.72 0.22 0 0.74 0.22 0 0.76 0.22 0 0.78 0.22 0 0.8 0.22 0 0.82 0.22 0 0.84 0.22 0 0.86 0.22 0 0.88 0.22 0 0.9 0.22 0 0.92 0.22 0 0.94 0.22 0 0.96 0.22 0 0.98 0.22 0 1 0.22 0 0 0.24 0 0.02 0.24 0 0.04 0.24 0 0.06 0.24 0 0.08 0.24 0 0.1 0.24 0 0.12 0.24 0 0.14 0.24 0 0.16 0.24 0 0.18 0.24 0 0.2 0.24 0 0.22 0.24 0 0.24 0.24 0 0.26 0.24 0 0.28 0.24 0 0.3 0.24 0 0.32 0.24 0 0.34 0.24 0 0.36 0.24 0 0.38 0.24 0 0.4 0.24 0 0.42 0.24 0 0.44 0.24 0 0.46 0.24 0 0.48 0.24 0 0.5 0.24 0 0.52 0.24 0 0.54 0.24 0 0.56 0.24 0 0.58 0.24 0 0.6 0.24 0 0.62 0.24 0 0.64 0.24 0 0.66 0.24 0 0.68 0.24 0 0.7 0.24 0 0.72 0.24 0 0.74 0.24 0 0.76 0.24 0 0.78 0.24 0 0.8 0.24 0 0.82 0.24 0 0.84 0.24 0 0.86 0.24 0 0.88 0.24 0 0.9 0.24 0 0.92 0.24 0 0.94 0.24 0 0.96 0.24 0 0.98 0.24 0 1 0.24 0 0 0.26 0 0.02 0.26 0 0.04 0.26 0 0.06 0.26 0 0.08 0.26 0 0.1 0.26 0 0.12 0.26 0 0.14 0.26 0 0.16 0.26 0 0.18 0.26 0 0.2 0.26 0 0.22 0.26 0 0.24 0.26 0 0.26 0.26 0 0.28 0.26 0 0.3 0.26 0 0.32 0.26 0 0.34 0.26 0 0.36 0.26 0 0.38 0.26 0 0.4 0.26 0 0.42 0.26 0 0.44 0.26 0 0.46 0.26 0 0.48 0.26 0 0.5 0.26 0 0.52 0.26 0 0.54 0.26 0 0.56 0.26 0 0.58 0.26 0 0.6 0.26 0 0.62 0.26 0 0.64 0.26 0 0.66 0.26 0 0.68 0.26 0 0.7 0.26 0 0.72 0.26 0 0.74 0.26 0 0.76 0.26 0 0.78 0.26 0 0.8 0.26 0 0.82 0.26 0 0.84 0.26 0 0.86 0.26 0 0.88 0.26 0 0.9 0.26 0 0.92 0.26 0 0.94 0.26 0 0.96 0.26 0 0.98 0.26 0 1 0.26 0 0 0.28 0 0.02 0.28 0 0.04 0.28 0 0.06 0.28 0 0.08 0.28 0 0.1 0.28 0 0.12 0.28 0 0.14 0.28 0 0.16 0.28 0 0.18 0.28 0 0.2 0.28 0 0.22 0.28 0 0.24 0.28 0 0.26 0.28 0 0.28 0.28 0 0.3 0.28 0 0.32 0.28 0 0.34 0.28 0 0.36 0.28 0 0.38 0.28 0 0.4 0.28 0 0.42 0.28 0 0.44 0.28 0 0.46 0.28 0 0.48 0.28 0 0.5 0.28 0 0.52 0.28 0 0.54 0.28 0 0.56 0.28 0 0.58 0.28 0 0.6 0.28 0 0.62 0.28 0 0.64 0.28 0 0.66 0.28 0 0.68 0.28 0 0.7 0.28 0 0.72 0.28 0 0.74 0.28 0 0.76 0.28 0 0.78 0.28 0 0.8 0.28 0 0.82 0.28 0 0.84 0.28 0 0.86 0.28 0 0.88 0.28 0 0.9 0.28 0 0.92 0.28 0 0.94 0.28 0 0.96 0.28 0 0.98 0.28 0 1 0.28 0 0 0.3 0 0.02 0.3 0 0.04 0.3 0 0.06 0.3 0 0.08 0.3 0 0.1 0.3 0 0.12 0.3 0 0.14 0.3 0 0.16 0.3 0 0.18 0.3 0 0.2 0.3 0 0.22 0.3 0 0.24 0.3 0 0.26 0.3 0 0.28 0.3 0 0.3 0.3 0 0.32 0.3 0 0.34 0.3 0 0.36 0.3 0 0.38 0.3 0 0.4 0.3 0 0.42 0.3 0 0.44 0.3 0 0.46 0.3 0 0.48 0.3 0 0.5 0.3 0 0.52 0.3 0 0.54 0.3 0 0.56 0.3 0 0.58 0.3 0 0.6 0.3 0 0.62 0.3 0 0.64 0.3 0 0.66 0.3 0 0.68 0.3 0 0.7 0.3 0 0.72 0.3 0 0.74 0.3 0 0.76 0.3 0 0.78 0.3 0 0.8 0.3 0 0.82 0.3 0 0.84 0.3 0 0.86 0.3 0 0.88 0.3 0 0.9 0.3 0 0.92 0.3 0 0.94 0.3 0 0.96 0.3 0 0.98 0.3 0 1 0.3 0 0 0.32 0 0.02 0.32 0 0.04 0.32 0 0.06 0.32 0 0.08 0.32 0 0.1 0.32 0 0.12 0.32 0 0.14 0.32 0 0.16 0.32 0 0.18 0.32 0 0.2 0.32 0 0.22 0.32 0 0.24 0.32 0 0.26 0.32 0 0.28 0.32 0 0.3 0.32 0 0.32 0.32 0 0.34 0.32 0 0.36 0.32 0 0.38 0.32 0 0.4 0.32 0 0.42 0.32 0 0.44 0.32 0 0.46 0.32 0 0.48 0.32 0 0.5 0.32 0 0.52 0.32 0 0.54 0.32 0 0.56 0.32 0 0.58 0.32 0 0.6 0.32 0 0.62 0.32 0 0.64 0.32 0 0.66 0.32 0 0.68 0.32 0 0.7 0.32 0 0.72 0.32 0 0.74 0.32 0 0.76 0.32 0 0.78 0.32 0 0.8 0.32 0 0.82 0.32 0 0.84 0.32 0 0.86 0.32 0 0.88 0.32 0 0.9 0.32 0 0.92 0.32 0 0.94 0.
[...]
			<PointData Scalars="VitesseX">
				<DataArray Name="VitesseX" type="Float32" format="ascii">
 0 0 0 0 0 0 0 0 0 0 0 0 0 0 0 0 0 0 0 0 0 0 0 0 0 0 0 0 0 0 0 0 0 0 0 0 0 0 0 0 0 0 0 0 0 0 0 0 0 0 0 0 0.000264723 0.00105461 0.00235734 0.00415211 0.00641061 0.00909716 0.0121694 0.0155788 0.0192718 0.02319 0.0272719 0.031453 0.0356673 0.0398486 0.0439315 0.0478514 0.0515465 0.0549586 0.058034 0.0607241 0.0629866 0.0647857 0.0660929 0.0668919 0.0671566 0.066895 0.0661102 0.0648051 0.0630112 0.0607531 0.0580662 0.0549929 0.0515817 0.0478864 0.0439654 0.0398804 0.035696 0.0314784 0.0272938 0.0232082 0.0192862 0.0155898 0.0121773 0.00910254 0.00641397 0.00415399 0.00235824 0.00105501 0.000264778 2.8726e-27 0 0.000525115 0.00209155 0.00467482 0.00823298 0.0127096 0.0180338 0.0241215 0.0308767 0.0381931 0.0459557 0.0540426 0.062327 0.0706775 0.0789642 0.0870585 0.0948324 0.102164 0.108937 0.115046 0.120395 0.124899 0.128486 0.131099 0.132715 0.133253 0.132763 0.131236 0.128662 0.125123 0.12066 0.115341 0.109251 0.102486 0.0951535 0.0873686 0.0792549 0.070941 0.0625597 0.0542425 0.0461206 0.0383239 0.0309757 0.0241925 0.0180814 0.0127388 0.00824885 0.00468207 0.00209421 0.000525472 5.69961e-27 0 0.000777092 0.00309462 0.00691641 0.0121794 0.0187998 0.0266725 0.035673 0.0456595 0.056475 0.06795 0.0799046 0.0921519 0.104498 0.116751 0.128724 0.140226 0.151077 0.161107 0.17016 0.178091 0.184776 0.190108 0.194003 0.196434 0.197244 0.196554 0.194326 0.190534 0.185317 0.178728 0.170869 0.161864 0.151854 0.140999 0.129471 0.117452 0.105133 0.0927129 0.0803859 0.068347 0.0567898 0.0458978 0.0358437 0.0267867 0.0188698 0.0122174 0.00693369 0.00310089 0.000777928 8.4364e-27 0 0.00101669 0.00404806 0.00904678 0.0159291 0.0245851 0.0348769 0.0466418 0.0596943 0.0738295 0.0888263 0.10445 0.120458 0.136595 0.152614 0.16827 0.183316 0.197515 0.210647 0.222505 0.232902 0.241674 0.248681 0.253811 0.257043 0.258122 0.257266 0.254389 0.24945 0.242652 0.234052 0.223785 0.212012 0.198919 0.184713 0.169619 0.153879 0.137742 0.121471 0.105319 0.089543 0.0743976 0.0601243 0.0469498 0.035083 0.0247113 0.0159975 0.00907782 0.00405923 0.00101817 1.10399e-26 0 0.00124013 0.00493687 0.0110324 0.0194231 0.0299744 0.042518 0.0568551 0.0727598 0.089983 0.108256 0.127293 0.146799 0.166464 0.185988 0.205076 0.223424 0.240747 0.256775 0.271257 0.283964 0.294696 0.303281 0.30958 0.313583 0.314925 0.313939 0.310476 0.30448 0.296222 0.28576 0.273256 0.258907 0.242938 0.225605 0.207181 0.187962 0.168255 0.148381 0.128649 0.109374 0.0908697 0.0734309 0.0573357 0.0428395 0.0301712 0.0195297 0.0110807 0.00495412 0.00124242 1.34691e-26 0 0.00144392 0.00574711 0.012842 0.0226064 0.034883 0.0494753 0.0661519 0.0846504 0.104681 0.125932 0.148072 0.170759 0.193633 0.216347 0.238559 0.259917 0.28009 0.298764 0.315646 0.330471 0.343004 0.353045 0.36043 0.365161 0.366758 0.365678 0.361699 0.354758 0.345183 0.333035 0.3185 0.301806 0.283218 0.26303 0.241565 0.219165 0.19619 0.173018 0.150008 0.127528 0.105946 0.0856078 0.0668375 0.0499337 0.0351634 0.0227581 0.0129106 0.00577144 0.00144715 1.56858e-26 0 0.00162484 0.00646606 0.0144472 0.0254288 0.0392333 0.0556392 0.0743859 0.0951785 0.117692 0.141576 0.16646 0.191961 0.217674 0.243212 0.268192 0.29222 0.314924 0.335951 0.354973 0.37169 0.385838 0.397189 0.405558 0.410959 0.412804 0.411663 0.407251 0.399487 0.388762 0.375131 0.358803 0.340035 0.319123 0.2964 0.272227 0.246995 0.221108 0.194993 0.169059 0.143718 0.11939 0.096463 0.0753055 0.0562538 0.0396091 0.025632 0.0145388 0.0064983 0.00162911 1.76552e-26 0 0.00178006 0.00708244 0.0158227 0.027846 0.0429571 0.0609126 0.0814272 0.104178 0.12881 0.154941 0.182168 0.210071 0.238208 0.26616 0.293509 0.319824 0.3447 0.36775 0.388616 0.406969 0.422519 0.435014 0.444252 0.450253 0.452337 0.451168 0.446412 0.437963 0.426271 0.411383 0.39353 0.37299 0.350087 0.325186 0.298685 0.271013 0.242614 0.213961 0.185501 0.15769 0.130988 0.105825 0.082606 0.0617001 0.0434382 0.0281058 0.0159396 0.00712324 0.00178545 1.93465e-26 0 0.00190714 0.00758661 0.0169469 0.0298199 0.0459956 0.0652125 0.0871649 0.111508 0.137861 0.165817 0.194947 0.224802 0.254911 0.284828 0.314108 0.342292 0.368946 0.393658 0.416044 0.435752 0.452469 0.465925 0.475899 0.48242 0.484735 0.483564 0.478563 0.469578 0.457116 0.44122 0.422131 0.400149 0.37562 0.348934 0.320521 0.290839 0.26037 0.229621 0.199074 0.169221 0.140557 0.113546 0.0886237 0.0661867 0.0465903 0.0301407 0.0170908 0.00763639 0.0019137 2.0733e-26 0 0.00200409 0.00797067 0.0178021 0.0313195 0.048301 0.0684711 0.0915086 0.117051 0.144701 0.174032 0.204595 0.235921 0.267519 0.298921 0.329665 0.35927 0.387281 0.413266 0.436824 0.457583 0.475214 0.489432 0.500001 0.50695 0.509487 0.50834 0.503196 0.493831 0.480812 0.464169 0.444156 0.421084 0.395319 0.36727 0.337389 0.306161 0.274094 0.241726 0.209565 0.17813 0.147947 0.119505 0.0932637 0.0696426 0.0490156 0.0317045 0.0179743 0.00802967 0.00201185 2.1793e-26 0 0.00206963 0.00823046 0.0183808 0.0323348 0.0498621 0.070678 0.0944504 0.120805 0.149334 0.179595 0.211128 0.243451 0.276056 0.308464 0.3402 0.370767 0.399698 0.426546 0.450897 0.472367 0.490614 0.505343 0.516307 0.523538 0.526209 0.525104 0.519925 0.510341 0.496984 0.479869 0.459256 0.435466 0.408873 0.379903 0.349024 0.316737 0.283571 0.250085 0.216807 0.184277 0.15304 0.123607 0.0964527 0.0720134 0.0506759 0.0327725 0.0185762 0.00829686 0.00207834 2.25099e-26 0 0.00210179 0.00835456 0.0186502 0.0327956 0.0505543 0.0716356 0.0957022 0.122376 0.151245 0.181866 0.213774 0.246489 0.2795 0.312325 0.34449 0.375496 0.404873 0.432172 0.456972 0.478884 0.497561 0.512698 0.524042 0.531596 0.53462 0.533628 0.528608 0.519025 0.505605 0.488342 0.467494 0.443386 0.416397 0.38696 0.355555 0.322694 0.288919 0.254802 0.220889 0.187731 0.15589 0.125888 0.098213 0.0733104 0.0515747 0.0333438 0.0188939 0.00843589 0.0021124 2.28725e-26 0 0.00210177 0.00835434 0.0186492 0.0327927 0.0505476 0.0716229 0.0956809 0.122344 0.151199 0.181805 0.213698 0.246397 0.279396 0.312212 0.344372 0.375379 0.404761 0.432071 0.456885 0.478815 0.497511 0.512666 0.524025 0.53159 0.53462 0.533629 0.528615 0.51904 0.50563 0.488378 0.467542 0.443444 0.416463 0.387032 0.355627 0.322764 0.288984 0.25486 0.220938 0.18777 0.155919 0.125909 0.0982267 0.0733185 0.051579 0.0333457 0.0188946 0.00843603 0.00211241 2.28752e-26 0 0.00206776 0.00821573 0.0183321 0.0322227 0.0496513 0.0703301 0.093927 0.120072 0.148361 0.178365 0.209633 0.241696 0.274065 0.306267 0.337847 0.368318 0.397223 0.424122 0.448603 0.470282 0.488814 0.503893 0.515264 0.522894 0.526176 0.52538 0.520841 0.51166 0.498701 0.481917 0.461557 0.437934 0.411422 0.382449 0.351488 0.319052 0.285682 0.251949 0.218403 0.185593 0.154083 0.124394 0.0970151 0.0723875 0.0509025 0.032893 0.0186285 0.00831268 0.00208033 2.25178e-26 0 0.00200137 0.00794925 0.0177311 0.0311558 0.0479926 0.0679612 0.0907405 0.115973 0.143271 0.172221 0.202392 0.233337 0.264586 0.295686 0.326202 0.355668 0.383645 0.40971 0.433464 0.454535 0.472588 0.487323 0.498488 0.506022 0.509443 0.508731 0.50447 0.495668 0.483208 0.467031 0.447376 0.424544 0.398897 0.370847 0.340855 0.30942 0.277066 0.24435 0.211811 0.179981 0.149411 0.12061 0.0940516 0.0701658 0.049332 0.0318723 0.018047 0.00805161 0.0020146 2.18061e-26 0 0.00190338 0.00755697 0.0168487 0.0295936 0.0455691 0.0645076 0.0861031 0.110017 0.135884 0.163315 0.191903 0.221231 0.250858 0.280358 0.309324 0.337318 0.363925 0.388747 0.411405 0.431546 0.448846 0.463018 0.473817 0.48115 0.48468 0.484118 0.480318 0.472109 0.460413 0.445155 0.426557 0.404903 0.380535 0.353847 0.325281 0.295313 0.264449 0.233223 0.202156 0.171761 0.142567 0.115063 0.0897048 0.0669045 0.0470243 0.030371 0.0171906 0.00766649 0.00191748 2.07512e-26 0 0.00177531 0.00704504 0.0156988 0.0275604 0.0424191 0.0600235 0.0800882 0.102299 0.126318 0.151786 0.178332 0.20557 0.2331 0.260528 0.287481 0.313558 0.338376 0.361566 0.382777 0.401678 0.417965 0.431365 0.441644 0.448676 0.452276 0.451893 0.448628 0.441157 0.430424 0.416336 0.399096 0.378965 0.356263 0.331358 0.304664 0.27663 0.247735 0.218483 0.189369 0.160878 0.13351 0.107728 0.0839627 0.0626009 0.0439829 0.0283948 0.0160648 0.00716101 0.0017902 1.93696e-26 0 0.00161918 0.00642146 0.0142996 0.0250885 0.0385923 0.0545797 0.0727905 0.0929398 0.114723 0.137818 0.161892 0.186601 0.211592 0.236508 0.261019 0.284764 0.307402 0.328598 0.348033 0.365405 0.380434 0.392865 0.402477 0.409116 0.412743 0.412569 0.409901 0.403304 0.393716 0.381031 0.365428 0.347144 0.326467 0.303735 0.27933 0.253667 0.22719 0.200363 0.173651 0.147503 0.122384 0.0987221 0.0769158 0.057323 0.0402556 0.0259749 0.0146874 0.00654315 0.00163475 1.7683e-26 0 0.00143743 0.00569603 0.0126729 0.0222166 0.0341488 0.048262 0.064325 0.0820871 0.101282 0.12163 0.142843 0.164625 0.186673 0.208677 0.230354 0.251392 0.271492 0.290364 0.307723 0.323302 0.336847 0.348127 0.356938 0.363104 0.366699 0.366772 0.364749 0.359149 0.35087 0.339798 0.326086 0.30994 0.291617 0.271416 0.249681 0.226788 0.203136 0.179149 0.155251 0.131849 0.109364 0.0881864 0.0686756 0.0511541 0.0359014 0.0231497 0.0130803 0.00582265 0.00145359 1.5718e-26 0 0.00123293 0.0048801 0.0108445 0.01899 0.0291587 0.04117 0.0548253 0.0699122 0.0862069 0.103477 0.121485 0.139987 0.158736 0.177475 0.195971 0.213967 0.231214 0.247466 0.262483 0.276032 0.287893 0.297859 0.305745 0.311389 0.314796 0.315332 0.313808 0.309415 0.302563 0.293289 0.281692 0.267944 0.252263 0.234911 0.216185 0.196415 0.175955 0.155178 0.13446 0.114162 0.0946564 0.0762878 0.0593722 0.0441916 0.030989 0.0199636 0.0112687 0.00501089 0.00124958 1.35052e-26 0 0.00100888 0.00398649 0.00884298 0.0154594 0.0237005 0.0334153 0.0444411 0.056607 0.069736 0.083647 0.0981562 0.113077 0.128222 0.143394 0.158413 0.173081 0.187203 0.200583 0.213027 0.224343 0.234344 0.242853 0.249706 0.254756 0.257947 0.258939 0.257975 0.254857 0.249557 0.242238 0.232946 0.221817 0.209029 0.194796 0.179371 0.16303 0.146076 0.128826 0.111605 0.0947213 0.0784933 0.0632142 0.0491524 0.0365456 0.0255959 0.0164669 0.0092813 0.00412067 0.00102592 1.10796e-26 0 0.000768803 0.00302922 0.00669996 0.0116806 0.0178604 0.0251202 0.033336 0.0423812 0.0521286 0.0624515 0.0732235 0.0843188 0.0956113 0.106972 0.118271 0.129378 0.140153 0.150454 0.160135 0.169048 0.177044 0.183977 0.189706 0.194099 0.197057 0.198462 0.198145 0.196328 0.192689 0.18745 0.180617 0.172287 0.162594 0.151705 0.139819 0.127159 0.113971 0.100511 0.0870484 0.0738347 0.0611298 0.049172 0.0381777 0.0283366 0.0198073 0.0127149 0.00714939 0.00316603 0.000786146 8.47919e-27 0 0.000516476 0.00202334 0.00444916 0.00771293 0.0117302 0.0164155 0.0216851 0.0274591 0.0336624 0.0402246 0.04708 0.0541655 0.0614193 0.068779 0.0761778 0.0835449 0.0908033 0.0978662 0.104639 0.111019 0.116896 0.122157 0.126687 0.130373 0.133108 0.134803 0.135325 0.134706 0.132867 0.129787 0.125529 0.120134 0.113691 0.106316 0.0981526 0.0893674 0.0801444 0.0706796 0.0611765 0.0518316 0.0428401 0.0343827 0.0266211 0.0196942 0.0137145 0.00876665 0.00490662 0.00216205 0.000534037 5.74488e-27 0 0.000255873 0.000984707 0.0021261 0.00361928 0.00540719 0.00743925 0.00967358 0.0120783 0.0146316 0.0173213 0.0201432 0.0230987 0.0261919 0.0294268 0.0328028 0.0363131 0.0399407 0.0436568 0.0474195 0.0511727 0.0548493 0.0583691 0.0616436 0.0645793 0.0670811 0.0690402 0.0703887 0.0710653 0.0709818 0.0701681 0.0685497 0.0661805 0.0630906 0.0593446 0.0550294 0.0502511 0.0451312 0.0398013 0.0343987 0.029059 0.0239127 0.0190798 0.0146652 0.0107547 0.00741353 0.00468453 0.00258836 0.00112454 0.000273565 2.9197e-27 0 -8.83837e-06 -6.98728e-05 -0.000231186 -0.000532909 -0.00100391 -0.0016592 -0.00249831 -0.00350468 -0.00464608 -0.00587621 -0.00713718 -0.00836291 -0.0094829 -0.0104267 -0.0111283 -0.0115307 -0.0115891 -0.0112744 -0.0105756 -0.0095004 -0.00807567 -0.00634639 -0.00437341 -0.0022304 1.32528e-08 0.00223045 0.00437351 0.00634652 0.0080758 0.00950051 0.0105757 0.0112745 0.0115891 0.0115306 0.0111282 0.0104265 0.00948276 0.00836285 0.0071372 0.00587622 0.00464608 0.00350467 0.0024983 0.0016592 0.00100391 0.000532909 0.000231186 6.98728e-05 8.83837e-06 4.81352e-29 0 -0.000273565 -0.00112454 -0.00258836 -0.00468453 -0.00741353 -0.0107547 -0.0146652 -0.0190798 -0.0239127 -0.029059 -0.0343986 -0.0398013 -0.0451313 -0.0502513 -0.0550295 -0.0593447 -0.0630906 -0.0661805 -0.0685497 -0.070168 -0.0709817 -0.0710651 -0.0703886 -0.0690402 -0.0670811 -0.0645792 -0.0616435 -0.0583689 -0.0548492 -0.0511726 -0.0474194 -0.0436568 -0.0399407 -0.0363131 -0.0328029 -0.0294269 -0.0261921 -0.0230988 -0.0201432 -0.0173213 -0.0146316 -0.0120783 -0.00967359 -0.00743925 -0.00540718 -0.00361928 -0.0021261 -0.000984707 -0.000255873 -2.82456e-27 0 -0.000534037 -0.00216205 -0.00490662 -0.00876664 -0.0137145 -0.0196942 -0.0266212 -0.0343827 -0.0428401 -0.0518316 -0.0611765 -0.0706796 -0.0801446 -0.0893678 -0.0981528 -0.106316 -0.113691 -0.120134 -0.125529 -0.129787 -0.132867 -0.134706 -0.135325 -0.134803 -0.133108 -0.130373 -0.126687 -0.122157 -0.116896 -0.111019 -0.104639 -0.0978661 -0.0908033 -0.0835449 -0.0761779 -0.0687791 -0.0614195 -0.0541655 -0.04708 -0.0402246 -0.0336624 -0.0274591 -0.0216851 -0.0164155 -0.0117302 -0.00771293 -0.00444916 -0.00202334 -0.000516476 -5.65309e-27 0 -0.000786146 -0.00316603 -0.00714939 -0.0127149 -0.0198073 -0.0283366 -0.0381777 -0.049172 -0.0611298 -0.0738347 -0.0870484 -0.100511 -0.113971 -0.127159 -0.139819 -0.151705 -0.162594 -0.172287 -0.180617 -0.18745 -0.192689 -0.196328 -0.198145 -0.198462 -0.197057 -0.194099 -0.189705 -0.183977 -0.177044 -0.169048 -0.160135 -0.150454 -0.140153 -0.129378 -0.118271 -0.106972 -0.0956114 -0.0843188 -0.0732235 -0.0624514 -0.0521286 -0.0423812 -0.033336 -0.0251202 -0.0178604 -0.0116806 -0.00669996 -0.00302922 -0.000768803 -8.39279e-27 0 -0.00102592 -0.00412067 -0.0092813 -0.0164669 -0.0255959 -0.0365456 -0.0491524 -0.0632142 -0.0784933 -0.0947213 -0.111605 -0.128826 -0.146077 -0.163031 -0.179371 -0.194797 -0.209029 -0.221817 -0.232946 -0.242238 -0.249557 -0.254857 -0.257975 -0.258939 -0.257947 -0.254756 -0.249706 -0.242853 -0.234344 -0.224343 -0.213027 -0.200583 -0.187203 -0.173081 -0.158413 -0.143394 -0.128222 -0.113077 -0.0981562 -0.083647 -0.069736 -0.056607 -0.0444411 -0.0334153 -0.0237005 -0.0154594 -0.00884298 -0.00398649 -0.00100888 -1.10004e-26 0 -0.00124958 -0.00501089 -0.0112687 -0.0199635 -0.030989 -0.0441916 -0.0593722 -0.0762878 -0.0946564 -0.114162 -0.13446 -0.155178 -0.175956 -0.196416 -0.216185 -0.234911 -0.252264 -0.267944 -0.281692 -0.293289 -0.302563 -0.309415 -0.313808 -0.315332 -0.314796 -0.311389 -0.305745 -0.297859 -0.287893 -0.276032 -0.262483 -0.247466 -0.231214 -0.213968 -0.195971 -0.177475 -0.158736 -0.139987 -0.121485 -0.103477 -0.0862069 -0.0699122 -0.0548253 -0.04117 -0.0291587 -0.01899 -0.0108445 -0.0048801 -0.00123293 -1.34347e-26 0 -0.00145359 -0.00582265 -0.0130803 -0.0231497 -0.0359014 -0.0511541 -0.0686756 -0.0881864 -0.109364 -0.131849 -0.155251 -0.179149 -0.203136 -0.226788 -0.249681 -0.271416 -0.291617 -0.30994 -0.326086 -0.339798 -0.35087 -0.359149 -0.364749 -0.366772 -0.366699 -0.363104 -0.356938 -0.348127 -0.336847 -0.323302 -0.307723 -0.290364 -0.271492 -0.251392 -0.230354 -0.208677 -0.186673 -0.164625 -0.142843 -0.12163 -0.101282 -0.0820871 -0.0643251 -0.048262 -0.0341488 -0.0222166 -0.0126729 -0.00569603 -0.00143743 -1.56572e-26 0 -0.00163475 -0.00654315 -0.0146874 -0.0259749 -0.0402556 -0.0573229 -0.0769158 -0.0987221 -0.122384 -0.147503 -0.173651 -0.200363 -0.22719 -0.253667 -0.27933 -0.303735 -0.326467 -0.347144 -0.365428 -0.381031 -0.393716 -0.403304 -0.409901 -0.412569 -0.412744 -0.409116 -0.402477 -0.392865 -0.380434 -0.365405 -0.348033 -0.328598 -0.307402 -0.284764 -0.261019 -0.236508 -0.211592 -0.186601 -0.161892 -0.137818 -0.114723 -0.0929398 -0.0727905 -0.0545797 -0.0385923 -0.0250885 -0.0142996 -0.00642146 -0.00161918 -1.76327e-26 0 -0.0017902 -0.00716101 -0.0160648 -0.0283948 -0.0439829 -0.0626009 -0.0839626 -0.107728 -0.13351 -0.160878 -0.189369 -0.218483 -0.247735 -0.27663 -0.304664 -0.331358 -0.356263 -0.378965 -0.399096 -0.416336 -0.430424 -0.441157 -0.448628 -0.451893 -0.452276 -0.448676 -0.441644 -0.431365 -0.417965 -0.401678 -0.382777 -0.361566 -0.338376 -0.313558 -0.287481 -0.260528 -0.2331 -0.20557 -0.178332 -0.151786 -0.126318 -0.102299 -0.0800882 -0.0600235 -0.0424191 -0.0275604 -0.0156988 -0.00704504 -0.00177531 -1.93298e-26 0 -0.00191748 -0.00766649 -0.0171905 -0.0303709 -0.0470243 -0.0669044 -0.0897048 -0.115063 -0.142567 -0.171761 -0.202156 -0.233223 -0.264449 -0.295313 -0.325281 -0.353847 -0.380535 -0.404903 -0.426557 -0.445155 -0.460413 -0.472109 -0.480318 -0.484118 -0.48468 -0.48115 -0.473817 -0.463018 -0.448846 -0.431546 -0.411405 -0.388747 -0.363925 -0.337318 -0.309324 -0.280358 -0.250858 -0.22123 -0.191903 -0.163315 -0.135884 -0.110017 -0.0861031 -0.0645076 -0.0455691 -0.0295936 -0.0168487 -0.00755697 -0.00190338 -2.07218e-26 0 -0.0020146 -0.00805161 -0.018047 -0.0318723 -0.049332 -0.0701658 -0.0940516 -0.12061 -0.149411 -0.179981 -0.211811 -0.24435 -0.277066 -0.30942 -0.340855 -0.370847 -0.398897 -0.424544 -0.447376 -0.467031 -0.483208 -0.495668 -0.50447 -0.508731 -0.509443 -0.506022 -0.498488 -0.487323 -0.472588 -0.454535 -0.433464 -0.40971 -0.383645 -0.355668 -0.326202 -0.295686 -0.264586 -0.233337 -0.202392 -0.172221 -0.143271 -0.115973 -0.0907405 -0.0679612 -0.0479926 -0.0311558 -0.0177311 -0.00794925 -0.00200137 -2.17865e-26 0 -0.00208033 -0.00831268 -0.0186285 -0.032893 -0.0509025 -0.0723875 -0.097015 -0.124394 -0.154083 -0.185593 -0.218403 -0.251949 -0.285682 -0.319052 -0.351488 -0.382449 -0.411422 -0.437934 -0.461557 -0.481917 -0.498701 -0.51166 -0.520841 -0.52538 -0.526176 -0.522894 -0.515264 -0.503893 -0.488814 -0.470282 -0.448603 -0.424122 -0.397223 -0.368318 -0.337847 -0.306267 -0.274065 -0.241696 -0.209633 -0.178365 -0.148361 -0.120072 -0.093927 -0.0703301 -0.0496513 -0.0322227 -0.0183321 -0.00821573 -0.00206776 -2.25069e-26 0 -0.00211241 -0.00843603 -0.0188946 -0.0333457 -0.051579 -0.0733185 -0.0982267 -0.125909 -0.15592 -0.18777 -0.220938 -0.25486 -0.288984 -0.322764 -0.355627 -0.387032 -0.416463 -0.443444 -0.467542 -0.488378 -0.50563 -0.51904 -0.528615 -0.533629 -0.53462 -0.53159 -0.524025 -0.512666 -0.497511 -0.478816 -0.456886 -0.432071 -0.404761 -0.375379 -0.344372 -0.312212 -0.279396 -0.246397 -0.213698 -0.181805 -0.151199 -0.122344 -0.0956809 -0.0716229 -0.0505476 -0.0327927 -0.0186492 -0.00835434 -0.00210177 -2.28718e-26 0 -0.0021124 -0.00843589 -0.0188939 -0.0333438 -0.0515747 -0.0733104 -0.098213 -0.125888 -0.15589 -0.187731 -0.220889 -0.254802 -0.288919 -0.322694 -0.355555 -0.38696 -0.416397 -0.443386 -0.467494 -0.488342 -0.505605 -0.519024 -0.528608 -0.533628 -0.53462 -0.531596 -0.524042 -0.512698 -0.497561 -0.478884 -0.456972 -0.432172 -0.404873 -0.375496 -0.34449 -0.312325 -0.2795 -0.246489 -0.213774 -0.181866 -0.151245 -0.122376 -0.0957022 -0.0716356 -0.0505543 -0.0327956 -0.0186502 -0.00835456 -0.00210179 -2.28752e-26 0 -0.00207834 -0.00829686 -0.0185762 -0.0327725 -0.0506759 -0.0720134 -0.0964526 -0.123607 -0.15304 -0.184277 -0.216807 -0.250085 -0.283572 -0.316737 -0.349024 -0.379903 -0.408873 -0.435466 -0.459256 -0.479869 -0.496984 -0.510341 -0.519925 -0.525104 -0.526209 -0.523538 -0.516307 -0.505343 -0.490615 -0.472368 -0.450898 -0.426547 -0.399698 -0.370767 -0.3402 -0.308464 -0.276056 -0.243451 -0.211128 -0.179595 -0.149334 -0.120805 -0.0944504 -0.070678 -0.0498621 -0.0323348 -0.0183808 -0.00823046 -0.00206963 -2.25171e-26 0 -0.00201185 -0.00802967 -0.0179743 -0.0317045 -0.0490156 -0.0696426 -0.0932637 -0.119505 -0.147947 -0.17813 -0.209565 -0.241726 -0.274095 -0.306161 -0.337389 -0.36727 -0.395319 -0.421084 -0.444156 -0.464169 -0.480812 -0.493831 -0.503196 -0.50834 -0.509487 -0.50695 -0.500001 -0.489432 -0.475215 -0.457584 -0.436825 -0.413267 -0.387281 -0.35927 -0.329665 -0.298921 -0.267519 -0.235921 -0.204595 -0.174032 -0.144701 -0.117051 -0.0915086 -0.0684711 -0.048301 -0.03