<?xml version="1.0"?>
<VTKFile type="PolyData">
	<PolyData>
		<Piece NumberOfPoints="2601" NumberOfPolys="2500">
			<Points>
				<DataArray type="Float32" NumberOfComponents="3" format="ascii">
 0 0 0 0.02 0 0 0.04 0 0 0.06 0 0 0.08 0 0 0.1 0 0 0.12 0 0 0.14 0 0 0.16 0 0 0.18 0 0 0.2 0 0 0.22 0 0 0.24 0 0 0.26 0 0 0.28 0 0 0.3 0 0 0.32 0 0 0.34 0 0 0.36 0 0 0.38 0 0 0.4 0 0 0.42 0 0 0.44 0 0 0.46 0 0 0.48 0 0 0.5 0 0 0.52 0 0 0.54 0 0 0.56 0 0 0.58 0 0 0.6 0 0 0.62 0 0 0.64 0 0 0.66 0 0 0.68 0 0 0.7 0 0 0.72 0 0 0.74 0 0 0.76 0 0 0.78 0 0 0.8 0 0 0.82 0 0 0.84 0 0 0.86 0 0 0.88 0 0 0.9 0 0 0.92 0 0 0.94 0 0 0.96 0 0 0.98 0 0 1 0 0 0 0.02 0 0.02 0.02 0 0.04 0.02 0 0.06 0.02 0 0.08 0.02 0 0.1 0.02 0 0.12 0.02 0 0.14 0.02 0 0.16 0.02 0 0.18 0.02 0 0.2 0.02 0 0.22 0.02 0 0.24 0.02 0 0.26 0.02 0 0.28 0.02 0 0.3 0.02 0 0.32 0.02 0 0.34 0.02 0 0.36 0.02 0 0.38 0.02 0 0.4 0.02 0 0.42 0.02 0 0.44 0.02 0 0.46 0.02 0 0.48 0.02 0 0.5 0.02 0 0.52 0.02 0 0.54 0.02 0 0.56 0.02 0 0.58 0.02 0 0.6 0.02 0 0.62 0.02 0 0.64 0.02 0 0.66 0.02 0 0.68 0.02 0 0.7 0.02 0 0.72 0.02 0 0.74 0.02 0 0.76 0.02 0 0.78 0.02 0 0.8 0.02 0 0.82 0.02 0 0.84 0.02 0 0.86 0.02 0 0.88 0.02 0 0.9 0.02 0 0.92 0.02 0 0.94 0.02 0 0.96 0.02 0 0.98 0.02 0 1 0.02 0 0 0.04 0 0.02 0.04 0 0.04 0.04 0 0.06 0.04 0 0.08 0.04 0 0.1 0.04 0 0.12 0.04 0 0.14 0.04 0 0.16 0.04 0 0.18 0.04 0 0.2 0.04 0 0.22 0.04 0 0.24 0.04 0 0.26 0.04 0 0.28 0.04 0 0.3 0.04 0 0.32 0.04 0 0.34 0.04 0 0.36 0.04 0 0.38 0.04 0 0.4 0.04 0 0.42 0.04 0 0.44 0.04 0 0.46 0.04 0 0.48 0.04 0 0.5 0.04 0 0.52 0.04 0 0.54 0.04 0 0.56 0.04 0 0.58 0.04 0 0.6 0.04 0 0.62 0.04 0 0.64 0.04 0 0.66 0.04 0 0.68 0.04 0 0.7 0.04 0 0.72 0.04 0 0.74 0.04 0 0.76 0.04 0 0.78 0.04 0 0.8 0.04 0 0.82 0.04 0 0.84 0.04 0 0.86 0.04 0 0.88 0.04 0 0.9 0.04 0 0.92 0.04 0 0.94 0.04 0 0.96 0.04 0 0.98 0.04 0 1 0.04 0 0 0.06 0 0.02 0.06 0 0.04 0.06 0 0.06 0.06 0 0.08 0.06 0 0.1 0.06 0 0.12 0.06 0 0.14 0.06 0 0.16 0.06 0 0.18 0.06 0 0.2 0.06 0 0.22 0.06 0 0.24 0.06 0 0.26 0.06 0 0.28 0.06 0 0.3 0.06 0 0.32 0.06 0 0.34 0.06 0 0.36 0.06 0 0.38 0.06 0 0.4 0.06 0 0.42 0.06 0 0.44 0.06 0 0.46 0.06 0 0.48 0.06 0 0.5 0.06 0 0.52 0.06 0 0.54 0.06 0 0.56 0.06 0 0.58 0.06 0 0.6 0.06 0 0.62 0.06 0 0.64 0.06 0 0.66 0.06 0 0.68 0.06 0 0.7 0.06 0 0.72 0.06 0 0.74 0.06 0 0.76 0.06 0 0.78 0.06 0 0.8 0.06 0 0.82 0.06 0 0.84 0.06 0 0.86 0.06 0 0.88 0.06 0 0.9 0.06 0 0.92 0.06 0 0.94 0.06 0 0.96 0.06 0 0.98 0.06 0 1 0.06 0 0 0.08 0 0.02 0.08 0 0.04 0.08 0 0.06 0.08 0 0.08 0.08 0 0.1 0.08 0 0.12 0.08 0 0.14 0.08 0 0.16 0.08 0 0.18 0.08 0 0.2 0.08 0 0.22 0.08 0 0.24 0.08 0 0.26 0.08 0 0.28 0.08 0 0.3 0.08 0 0.32 0.08 0 0.34 0.08 0 0.36 0.08 0 0.38 0.08 0 0.4 0.08 0 0.42 0.08 0 0.44 0.08 0 0.46 0.08 0 0.48 0.08 0 0.5 0.08 0 0.52 0.08 0 0.54 0.08 0 0.56 0.08 0 0.58 0.08 0 0.6 0.08 0 0.62 0.08 0 0.64 0.08 0 0.66 0.08 0 0.68 0.08 0 0.7 0.08 0 0.72 0.08 0 0.74 0.08 0 0.76 0.08 0 0.78 0.08 0 0.8 0.08 0 0.82 0.08 0 0.84 0.08 0 0.86 0.08 0 0.88 0.08 0 0.9 0.08 0 0.92 0.08 0 0.94 0.08 0 0.96 0.08 0 0.98 0.08 0 1 0.08 0 0 0.1 0 0.02 0.1 0 0.04 0.1 0 0.06 0.1 0 0.08 0.1 0 0.1 0.1 0 0.12 0.1 0 0.14 0.1 0 0.16 0.1 0 0.18 0.1 0 0.2 0.1 0 0.22 0.1 0 0.24 0.1 0 0.26 0.1 0 0.28 0.1 0 0.3 0.1 0 0.32 0.1 0 0.34 0.1 0 0.36 0.1 0 0.38 0.1 0 0.4 0.1 0 0.42 0.1 0 0.44 0.1 0 0.46 0.1 0 0.48 0.1 0 0.5 0.1 0 0.52 0.1 0 0.54 0.1 0 0.56 0.1 0 0.58 0.1 0 0.6 0.1 0 0.62 0.1 0 0.64 0.1 0 0.66 0.1 0 0.68 0.1 0 0.7 0.1 0 0.72 0.1 0 0.74 0.1 0 0.76 0.1 0 0.78 0.1 0 0.8 0.1 0 0.82 0.1 0 0.84 0.1 0 0.86 0.1 0 0.88 0.1 0 0.9 0.1 0 0.92 0.1 0 0.94 0.1 0 0.96 0.1 0 0.98 0.1 0 1 0.1 0 0 0.12 0 0.02 0.12 0 0.04 0.12 0 0.06 0.12 0 0.08 0.12 0 0.1 0.12 0 0.12 0.12 0 0.14 0.12 0 0.16 0.12 0 0.18 0.12 0 0.2 0.12 0 0.22 0.12 0 0.24 0.12 0 0.26 0.12 0 0.28 0.12 0 0.3 0.12 0 0.32 0.12 0 0.34 0.12 0 0.36 0.12 0 0.38 0.12 0 0.4 0.12 0 0.42 0.12 0 0.44 0.12 0 0.46 0.12 0 0.48 0.12 0 0.5 0.12 0 0.52 0.12 0 0.54 0.12 0 0.56 0.12 0 0.58 0.12 0 0.6 0.12 0 0.62 0.12 0 0.64 0.12 0 0.66 0.12 0 0.68 0.12 0 0.7 0.12 0 0.72 0.12 0 0.74 0.12 0 0.76 0.12 0 0.78 0.12 0 0.8 0.12 0 0.82 0.12 0 0.84 0.12 0 0.86 0.12 0 0.88 0.12 0 0.9 0.12 0 0.92 0.12 0 0.94 0.12 0 0.96 0.12 0 0.98 0.12 0 1 0.12 0 0 0.14 0 0.02 0.14 0 0.04 0.14 0 0.06 0.14 0 0.08 0.14 0 0.1 0.14 0 0.12 0.14 0 0.14 0.14 0 0.16 0.14 0 0.18 0.14 0 0.2 0.14 0 0.22 0.14 0 0.24 0.14 0 0.26 0.14 0 0.28 0.14 0 0.3 0.14 0 0.32 0.14 0 0.34 0.14 0 0.36 0.14 0 0.38 0.14 0 0.4 0.14 0 0.42 0.14 0 0.44 0.14 0 0.46 0.14 0 0.48 0.14 0 0.5 0.14 0 0.52 0.14 0 0.54 0.14 0 0.56 0.14 0 0.58 0.14 0 0.6 0.14 0 0.62 0.14 0 0.64 0.14 0 0.66 0.14 0 0.68 0.14 0 0.7 0.14 0 0.72 0.14 0 0.74 0.14 0 0.76 0.14 0 0.78 0.14 0 0.8 0.14 0 0.82 0.14 0 0.84 0.14 0 0.86 0.14 0 0.88 0.14 0 0.9 0.14 0 0.92 0.14 0 0.94 0.14 0 0.96 0.14 0 0.98 0.14 0 1 0.14 0 0 0.16 0 0.02 0.16 0 0.04 0.16 0 0.06 0.16 0 0.08 0.16 0 0.1 0.16 0 0.12 0.16 0 0.14 0.16 0 0.16 0.16 0 0.18 0.16 0 0.2 0.16 0 0.22 0.16 0 0.24 0.16 0 0.26 0.16 0 0.28 0.16 0 0.3 0.16 0 0.32 0.16 0 0.34 0.16 0 0.36 0.16 0 0.38 0.16 0 0.4 0.16 0 0.42 0.16 0 0.44 0.16 0 0.46 0.16 0 0.48 0.16 0 0.5 0.16 0 0.52 0.16 0 0.54 0.16 0 0.56 0.16 0 0.58 0.16 0 0.6 0.16 0 0.62 0.16 0 0.64 0.16 0 0.66 0.16 0 0.68 0.16 0 0.7 0.16 0 0.72 0.16 0 0.74 0.16 0 0.76 0.16 0 0.78 0.16 0 0.8 0.16 0 0.82 0.16 0 0.84 0.16 0 0.86 0.16 0 0.88 0.16 0 0.9 0.16 0 0.92 0.16 0 0.94 0.16 0 0.96 0.16 0 0.98 0.16 0 1 0.16 0 0 0.18 0 0.02 0.18 0 0.04 0.18 0 0.06 0.18 0 0.08 0.18 0 0.1 0.18 0 0.12 0.18 0 0.14 0.18 0 0.16 0.18 0 0.18 0.18 0 0.2 0.18 0 0.22 0.18 0 0.24 0.18 0 0.26 0.18 0 0.28 0.18 0 0.3 0.18 0 0.32 0.18 0 0.34 0.18 0 0.36 0.18 0 0.38 0.18 0 0.4 0.18 0 0.42 0.18 0 0.44 0.18 0 0.46 0.18 0 0.48 0.18 0 0.5 0.18 0 0.52 0.18 0 0.54 0.18 0 0.56 0.18 0 0.58 0.18 0 0.6 0.18 0 0.62 0.18 0 0.64 0.18 0 0.66 0.18 0 0.68 0.18 0 0.7 0.18 0 0.72 0.18 0 0.74 0.18 0 0.76 0.18 0 0.78 0.18 0 0.8 0.18 0 0.82 0.18 0 0.84 0.18 0 0.86 0.18 0 0.88 0.18 0 0.9 0.18 0 0.92 0.18 0 0.94 0.18 0 0.96 0.18 0 0.98 0.18 0 1 0.18 0 0 0.2 0 0.02 0.2 0 0.04 0.2 0 0.06 0.2 0 0.08 0.2 0 0.1 0.2 0 0.12 0.2 0 0.14 0.2 0 0.16 0.2 0 0.18 0.2 0 0.2 0.2 0 0.22 0.2 0 0.24 0.2 0 0.26 0.2 0 0.28 0.2 0 0.3 0.2 0 0.32 0.2 0 0.34 0.2 0 0.36 0.2 0 0.38 0.2 0 0.4 0.2 0 0.42 0.2 0 0.44 0.2 0 0.46 0.2 0 0.48 0.2 0 0.5 0.2 0 0.52 0.2 0 0.54 0.2 0 0.56 0.2 0 0.58 0.2 0 0.6 0.2 0 0.62 0.2 0 0.64 0.2 0 0.66 0.2 0 0.68 0.2 0 0.7 0.2 0 0.72 0.2 0 0.74 0.2 0 0.76 0.2 0 0.78 0.2 0 0.8 0.2 0 0.82 0.2 0 0.84 0.2 0 0.86 0.2 0 0.88 0.2 0 0.9 0.2 0 0.92 0.2 0 0.94 0.2 0 0.96 0.2 0 0.98 0.2 0 1 0.2 0 0 0.22 0 0.02 0.22 0 0.04 0.22 0 0.06 0.22 0 0.08 0.22 0 0.1 0.22 0 0.12 0.22 0 0.14 0.22 0 0.16 0.22 0 0.18 0.22 0 0.2 0.22 0 0.22 0.22 0 0.24 0.22 0 0.26 0.22 0 0.28 0.22 0 0.3 0.22 0 0.32 0.22 0 0.34 0.22 0 0.36 0.22 0 0.38 0.22 0 0.4 0.22 0 0.42 0.22 0 0.44 0.22 0 0.46 0.22 0 0.48 0.22 0 0.5 0.22 0 0.52 0.22 0 0.54 0.22 0 0.56 0.22 0 0.58 0.22 0 0.6 0.22 0 0.62 0.22 0 0.64 0.22 0 0.66 0.22 0 0.68 0.22 0 0.7 0.22 0 0.72 0.22 0 0.74 0.22 0 0.76 0.22 0 0.78 0.22 0 0.8 0.22 0 0.82 0.22 0 0.84 0.22 0 0.86 0.22 0 0.88 0.22 0 0.9 0.22 0 0.92 0.22 0 0.94 0.22 0 0.96 0.22 0 0.98 0.22 0 1 0.22 0 0 0.24 0 0.02 0.24 0 0.04 0.24 0 0.06 0.24 0 0.08 0.24 0 0.1 0.24 0 0.12 0.24 0 0.14 0.24 0 0.16 0.24 0 0.18 0.24 0 0.2 0.24 0 0.22 0.24 0 0.24 0.24 0 0.26 0.24 0 0.28 0.24 0 0.3 0.24 0 0.32 0.24 0 0.34 0.24 0 0.36 0.24 0 0.38 0.24 0 0.4 0.24 0 0.42 0.24 0 0.44 0.24 0 0.46 0.24 0 0.48 0.24 0 0.5 0.24 0 0.52 0.24 0 0.54 0.24 0 0.56 0.24 0 0.58 0.24 0 0.6 0.24 0 0.62 0.24 0 0.64 0.24 0 0.66 0.24 0 0.68 0.24 0 0.7 0.24 0 0.72 0.24 0 0.74 0.24 0 0.76 0.24 0 0.78 0.24 0 0.8 0.24 0 0.82 0.24 0 0.84 0.24 0 0.86 0.24 0 0.88 0.24 0 0.9 0.24 0 0.92 0.24 0 0.94 0.24 0 0.96 0.24 0 0.98 0.24 0 1 0.24 0 0 0.26 0 0.02 0.26 0 0.04 0.26 0 0.06 0.26 0 0.08 0.26 0 0.1 0.26 0 0.12 0.26 0 0.14 0.26 0 0.16 0.26 0 0.18 0.26 0 0.2 0.26 0 0.22 0.26 0 0.24 0.26 0 0.26 0.26 0 0.28 0.26 0 0.3 0.26 0 0.32 0.26 0 0.34 0.26 0 0.36 0.26 0 0.38 0.26 0 0.4 0.26 0 0.42 0.26 0 0.44 0.26 0 0.46 0.26 0 0.48 0.26 0 0.5 0.26 0 0.52 0.26 0 0.54 0.26 0 0.56 0.26 0 0.58 0.26 0 0.6 0.26 0 0.62 0.26 0 0.64 0.26 0 0.66 0.26 0 0.68 0.26 0 0.7 0.26 0 0.72 0.26 0 0.74 0.26 0 0.76 0.26 0 0.78 0.26 0 0.8 0.26 0 0.82 0.26 0 0.84 0.26 0 0.86 0.26 0 0.88 0.26 0 0.9 0.26 0 0.92 0.26 0 0.94 0.26 0 0.96 0.26 0 0.98 0.26 0 1 0.26 0 0 0.28 0 0.02 0.28 0 0.04 0.28 0 0.06 0.28 0 0.08 0.28 0 0.1 0.28 0 0.12 0.28 0 0.14 0.28 0 0.16 0.28 0 0.18 0.28 0 0.2 0.28 0 0.22 0.28 0 0.24 0.28 0 0.26 0.28 0 0.28 0.28 0 0.3 0.28 0 0.32 0.28 0 0.34 0.28 0 0.36 0.28 0 0.38 0.28 0 0.4 0.28 0 0.42 0.28 0 0.44 0.28 0 0.46 0.28 0 0.48 0.28 0 0.5 0.28 0 0.52 0.28 0 0.54 0.28 0 0.56 0.28 0 0.58 0.28 0 0.6 0.28 0 0.62 0.28 0 0.64 0.28 0 0.66 0.28 0 0.68 0.28 0 0.7 0.28 0 0.72 0.28 0 0.74 0.28 0 0.76 0.28 0 0.78 0.28 0 0.8 0.28 0 0.82 0.28 0 0.84 0.28 0 0.86 0.28 0 0.88 0.28 0 0.9 0.28 0 0.92 0.28 0 0.94 0.28 0 0.96 0.28 0 0.98 0.28 0 1 0.28 0 0 0.3 0 0.02 0.3 0 0.04 0.3 0 0.06 0.3 0 0.08 0.3 0 0.1 0.3 0 0.12 0.3 0 0.14 0.3 0 0.16 0.3 0 0.18 0.3 0 0.2 0.3 0 0.22 0.3 0 0.24 0.3 0 0.26 0.3 0 0.28 0.3 0 0.3 0.3 0 0.32 0.3 0 0.34 0.3 0 0.36 0.3 0 0.38 0.3 0 0.4 0.3 0 0.42 0.3 0 0.44 0.3 0 0.46 0.3 0 0.48 0.3 0 0.5 0.3 0 0.52 0.3 0 0.54 0.3 0 0.56 0.3 0 0.58 0.3 0 0.6 0.3 0 0.62 0.3 0 0.64 0.3 0 0.66 0.3 0 0.68 0.3 0 0.7 0.3 0 0.72 0.3 0 0.74 0.3 0 0.76 0.3 0 0.78 0.3 0 0.8 0.3 0 0.82 0.3 0 0.84 0.3 0 0.86 0.3 0 0.88 0.3 0 0.9 0.3 0 0.92 0.3 0 0.94 0.3 0 0.96 0.3 0 0.98 0.3 0 1 0.3 0 0 0.32 0 0.02 0.32 0 0.04 0.32 0 0.06 0.32 0 0.08 0.32 0 0.1 0.32 0 0.12 0.32 0 0.14 0.32 0 0.16 0.32 0 0.18 0.32 0 0.2 0.32 0 0.22 0.32 0 0.24 0.32 0 0.26 0.32 0 0.28 0.32 0 0.3 0.32 0 0.32 0.32 0 0.34 0.32 0 0.36 0.32 0 0.38 0.32 0 0.4 0.32 0 0.42 0.32 0 0.44 0.32 0 0.46 0.32 0 0.48 0.32 0 0.5 0.32 0 0.52 0.32 0 0.54 0.32 0 0.56 0.32 0 0.58 0.32 0 0.6 0.32 0 0.62 0.32 0 0.64 0.32 0 0.66 0.32 0 0.68 0.32 0 0.7 0.32 0 0.72 0.32 0 0.74 0.32 0 0.76 0.32 0 0.78 0.32 0 0.8 0.32 0 0.82 0.32 0 0.84 0.32 0 0.86 0.32 0 0.88 0.32 0 0.9 0.32 0 0.92 0.32 0 0.94 0.
[...]
			<PointData Scalars="VitesseX">
				<DataArray Name="VitesseX" type="Float32" format="ascii">
 0 0 0 0 0 0 0 0 0 0 0 0 0 0 0 0 0 0 0 0 0 0 0 0 0 0 0 0 0 0 0 0 0 0 0 0 0 0 0 0 0 0 0 0 0 0 0 0 0 0 -0 0 -0.000100207 -0.000399256 -0.000892435 -0.00157197 -0.00242716 -0.00344451 -0.00460799 -0.00589923 -0.00729788 -0.00878188 -0.0103278 -0.0119113 -0.0135072 -0.0150907 -0.0166365 -0.0181204 -0.0195189 -0.0208099 -0.0219732 -0.0229903 -0.0238452 -0.0245245 -0.0250179 -0.0253161 -0.025416 -0.0253157 -0.0250154 -0.0245217 -0.0238417 -0.0229861 -0.0219685 -0.020805 -0.0195138 -0.0181153 -0.0166316 -0.0150861 -0.0135031 -0.0119076 -0.0103247 -0.00877927 -0.00729581 -0.00589765 -0.00460685 -0.00344374 -0.00242668 -0.0015717 -0.000892305 -0.000399199 -0.000100199 -1.08726e-27 0 -0.000198846 -0.000792336 -0.00177119 -0.00312007 -0.00481776 -0.00683754 -0.00914757 -0.0117114 -0.0144886 -0.0174353 -0.0205049 -0.0236489 -0.0268175 -0.0299609 -0.0330294 -0.0359744 -0.0387494 -0.0413106 -0.0436176 -0.0456339 -0.0473279 -0.0486728 -0.0496498 -0.0502369 -0.050431 -0.0502302 -0.04963 -0.0486475 -0.0472957 -0.045596 -0.0435754 -0.0412656 -0.0387031 -0.0359283 -0.0329849 -0.0299193 -0.0267797 -0.0236155 -0.0204763 -0.0174117 -0.0144699 -0.0116972 -0.0091374 -0.00683073 -0.00481358 -0.0031178 -0.00177016 -0.000791954 -0.000198795 -2.1574e-27 0 -0.000294356 -0.00117299 -0.00262225 -0.0046195 -0.00713339 -0.0101244 -0.0135454 -0.0173424 -0.0214555 -0.0258196 -0.0303658 -0.0350218 -0.0397141 -0.0443689 -0.0489123 -0.0532723 -0.0573801 -0.0611708 -0.0645844 -0.0675672 -0.0700721 -0.0720597 -0.0735038 -0.0743677 -0.0746506 -0.074351 -0.0734568 -0.0719987 -0.0699944 -0.0674758 -0.0644827 -0.0610624 -0.0572687 -0.0531614 -0.0488052 -0.0442685 -0.0396231 -0.0349414 -0.0302968 -0.0257627 -0.0214104 -0.0173083 -0.0135209 -0.010108 -0.00712336 -0.00461405 -0.00261978 -0.00117209 -0.000294237 -3.19356e-27 0 -0.000385233 -0.00153523 -0.00343222 -0.00604668 -0.00933767 -0.0132535 -0.0177325 -0.0227039 -0.0280893 -0.0338035 -0.039756 -0.0458519 -0.0519951 -0.0580889 -0.0640363 -0.0697431 -0.0751189 -0.0800789 -0.0845445 -0.0884454 -0.0917201 -0.0943172 -0.0962043 -0.0973283 -0.0976927 -0.0972976 -0.0961201 -0.0942071 -0.09158 -0.0882805 -0.084361 -0.0798832 -0.0749178 -0.0695429 -0.063843 -0.0579077 -0.0518308 -0.0457068 -0.0396315 -0.0337008 -0.0280079 -0.0226423 -0.0176883 -0.013224 -0.0093196 -0.00603688 -0.00342777 -0.00153363 -0.00038502 -4.17938e-27 0 -0.000470043 -0.00187333 -0.00418832 -0.00737911 -0.0113958 -0.0161755 -0.0216427 -0.0277114 -0.0342855 -0.041261 -0.0485273 -0.0559684 -0.0634668 -0.0709046 -0.078163 -0.0851269 -0.0916861 -0.0977368 -0.103183 -0.107939 -0.111931 -0.115094 -0.117393 -0.118757 -0.119194 -0.118708 -0.117262 -0.114922 -0.111712 -0.107682 -0.102897 -0.0974313 -0.0913721 -0.0848144 -0.0778612 -0.0706217 -0.0632103 -0.0557419 -0.048333 -0.0411007 -0.0341585 -0.0276153 -0.0215739 -0.0161294 -0.0113677 -0.00736385 -0.00418142 -0.00187086 -0.000469715 -5.09929e-27 0 -0.000547449 -0.00218198 -0.00487864 -0.00859578 -0.0132754 -0.0188442 -0.0252145 -0.0322858 -0.0399463 -0.0480745 -0.0565415 -0.0652118 -0.0739484 -0.0826138 -0.0910696 -0.0991813 -0.10682 -0.113866 -0.120206 -0.125742 -0.130385 -0.134064 -0.136736 -0.138315 -0.138815 -0.138244 -0.13655 -0.133818 -0.130073 -0.125375 -0.119798 -0.11343 -0.106372 -0.0987352 -0.0906389 -0.0822102 -0.0735821 -0.0648885 -0.0562642 -0.0478458 -0.0397651 -0.0321487 -0.0251164 -0.0187786 -0.0132353 -0.00857406 -0.00486883 -0.00217849 -0.000546988 -5.93878e-27 0 -0.000616231 -0.00245629 -0.00549228 -0.0096775 -0.0149468 -0.0212177 -0.0283916 -0.0363551 -0.0449824 -0.0541365 -0.0636722 -0.0734363 -0.0832745 -0.0930321 -0.102553 -0.111685 -0.120283 -0.128212 -0.135346 -0.141572 -0.146792 -0.150925 -0.153927 -0.155694 -0.156247 -0.155597 -0.153679 -0.150596 -0.146373 -0.141079 -0.134797 -0.127627 -0.119682 -0.111086 -0.101975 -0.0924903 -0.0827829 -0.0730023 -0.0633001 -0.0538297 -0.0447393 -0.0361712 -0.0282599 -0.0211297 -0.014893 -0.00964843 -0.00547918 -0.00245167 -0.000615621 -6.68457e-27 0 -0.000675305 -0.00269194 -0.00601957 -0.0106072 -0.0163836 -0.0232585 -0.0311237 -0.0398551 -0.0493144 -0.0593515 -0.0698068 -0.0805122 -0.0912981 -0.101995 -0.112431 -0.12244 -0.131862 -0.140549 -0.148363 -0.15518 -0.160894 -0.165414 -0.168695 -0.170619 -0.171214 -0.170494 -0.16838 -0.164991 -0.160356 -0.154547 -0.147659 -0.139798 -0.13109 -0.121672 -0.111689 -0.1013 -0.0906674 -0.0799554 -0.0693296 -0.058958 -0.0490027 -0.0396193 -0.030955 -0.0231458 -0.0163148 -0.01057 -0.00600285 -0.0026861 -0.000674534 -7.32489e-27 0 -0.000723739 -0.00288522 -0.00645219 -0.0113702 -0.0175632 -0.0249343 -0.0333678 -0.0427305 -0.052874 -0.0636372 -0.0748487 -0.0863279 -0.0978927 -0.109361 -0.120549 -0.131277 -0.141375 -0.150682 -0.159052 -0.166351 -0.172466 -0.177301 -0.180808 -0.182856 -0.183482 -0.182699 -0.18042 -0.176777 -0.1718 -0.165568 -0.158179 -0.149752 -0.140419 -0.130325 -0.11963 -0.1085 -0.0971113 -0.0856381 -0.0742577 -0.06315 -0.0524881 -0.0424386 -0.033159 -0.0247949 -0.0174781 -0.0113243 -0.0064316 -0.00287809 -0.0007228 -7.84963e-27 0 -0.000760769 -0.00303308 -0.00678332 -0.0119546 -0.0184669 -0.0262188 -0.0350885 -0.044936 -0.055605 -0.066926 -0.0787183 -0.0907917 -0.102954 -0.115015 -0.126778 -0.138057 -0.148671 -0.158452 -0.167244 -0.17491 -0.181328 -0.186399 -0.190074 -0.192211 -0.192855 -0.192019 -0.189609 -0.185768 -0.180526 -0.173966 -0.166194 -0.157332 -0.147519 -0.136911 -0.125672 -0.113978 -0.102013 -0.0899609 -0.0780068 -0.0663394 -0.0551405 -0.0445848 -0.0348374 -0.0260512 -0.0183647 -0.0118995 -0.00675867 -0.00302463 -0.00075966 -8.25048e-27 0 -0.000785812 -0.00313318 -0.00700773 -0.012351 -0.0190806 -0.0270917 -0.0362588 -0.0464368 -0.0574644 -0.0691659 -0.0813546 -0.0938331 -0.106403 -0.118866 -0.131021 -0.142672 -0.153635 -0.163735 -0.172811 -0.18072 -0.187339 -0.192564 -0.196347 -0.198537 -0.199188 -0.198318 -0.19582 -0.191847 -0.186427 -0.179647 -0.171615 -0.16246 -0.152324 -0.141367 -0.129761 -0.117685 -0.105331 -0.0928866 -0.0805442 -0.0684979 -0.0569355 -0.046037 -0.0359729 -0.0269011 -0.0189643 -0.0122884 -0.0069798 -0.00312368 -0.000784567 -8.52112e-27 0 -0.000798513 -0.00318426 -0.00712291 -0.0125555 -0.0193988 -0.0275466 -0.0368709 -0.0472245 -0.058443 -0.0703473 -0.0827469 -0.0954404 -0.108226 -0.1209 -0.133258 -0.145101 -0.15624 -0.166498 -0.17571 -0.183733 -0.19044 -0.195726 -0.199547 -0.201741 -0.202379 -0.201456 -0.198885 -0.194818 -0.189284 -0.182374 -0.174198 -0.164885 -0.154583 -0.143452 -0.131667 -0.119409 -0.106871 -0.0942452 -0.081724 -0.0695043 -0.0577756 -0.0467201 -0.0365104 -0.0273062 -0.0192524 -0.0124769 -0.00708797 -0.0031726 -0.000796993 -8.65727e-27 0 -0.000798514 -0.00318427 -0.00712296 -0.0125556 -0.0193991 -0.0275471 -0.0368717 -0.0472258 -0.0584448 -0.0703496 -0.0827498 -0.0954438 -0.108229 -0.120904 -0.133262 -0.145105 -0.156244 -0.166501 -0.175713 -0.183735 -0.190441 -0.195727 -0.199548 -0.201741 -0.202379 -0.201455 -0.198884 -0.194816 -0.189281 -0.18237 -0.174193 -0.164879 -0.154577 -0.143445 -0.13166 -0.119402 -0.106865 -0.0942398 -0.0817195 -0.0695007 -0.0577728 -0.0467182 -0.0365091 -0.0273054 -0.019252 -0.0124767 -0.0070879 -0.00317258 -0.000796992 -8.65678e-27 0 -0.0007861 -0.00313545 -0.00701525 -0.0123683 -0.0191132 -0.0271457 -0.0363399 -0.0465505 -0.0576151 -0.0693564 -0.0815858 -0.0941037 -0.10671 -0.119203 -0.13138 -0.143044 -0.154008 -0.164097 -0.17315 -0.181024 -0.187596 -0.192764 -0.196486 -0.198596 -0.199187 -0.19824 -0.195681 -0.191648 -0.186176 -0.179354 -0.17129 -0.162115 -0.15197 -0.141016 -0.129422 -0.117369 -0.105043 -0.0926332 -0.080328 -0.06832 -0.0567948 -0.0459309 -0.0358973 -0.0268508 -0.0189339 -0.0122722 -0.00697279 -0.00312156 -0.000784298 -8.51967e-27 0 -0.000761166 -0.00303622 -0.00679373 -0.0119786 -0.0185121 -0.0262936 -0.0352011 -0.0450939 -0.0558143 -0.0671906 -0.0790396 -0.0911678 -0.103381 -0.115483 -0.127277 -0.138573 -0.149189 -0.158955 -0.167715 -0.175331 -0.181684 -0.186676 -0.190267 -0.192293 -0.192855 -0.191907 -0.189407 -0.185479 -0.180162 -0.17354 -0.165721 -0.156829 -0.147004 -0.136399 -0.125179 -0.113517 -0.101594 -0.0895914 -0.0776917 -0.0660801 -0.0549356 -0.0444302 -0.0347272 -0.0259781 -0.0183204 -0.011876 -0.00674848 -0.00302155 -0.00075927 -8.24809e-27 0 -0.000724283 -0.00288953 -0.00646647 -0.0114032 -0.0176252 -0.0250369 -0.0335222 -0.0429471 -0.0531611 -0.0640003 -0.0752896 -0.086844 -0.0984776 -0.110004 -0.121234 -0.131986 -0.142086 -0.151373 -0.159698 -0.166929 -0.172955 -0.177682 -0.181072 -0.18297 -0.183481 -0.182544 -0.180141 -0.176379 -0.171297 -0.164979 -0.157526 -0.149058 -0.139706 -0.129618 -0.118948 -0.107862 -0.0965318 -0.0851272 -0.073822 -0.0627914 -0.0522046 -0.0422249 -0.0330067 -0.0246938 -0.0174169 -0.0112918 -0.0064175 -0.00287383 -0.000722261 -7.84635e-27 0 -0.000675988 -0.00269735 -0.00603749 -0.0106485 -0.0164615 -0.0233872 -0.0313175 -0.0401269 -0.0496747 -0.0598072 -0.0703601 -0.0811599 -0.0920323 -0.102802 -0.113291 -0.12333 -0.132755 -0.141416 -0.149174 -0.155906 -0.161508 -0.165893 -0.169027 -0.170764 -0.171213 -0.170301 -0.168029 -0.164489 -0.159722 -0.153805 -0.146835 -0.138923 -0.130192 -0.12078 -0.11083 -0.100495 -0.0899365 -0.079311 -0.06878 -0.0585057 -0.0486452 -0.0393497 -0.0307628 -0.0230182 -0.0162376 -0.010529 -0.00598507 -0.00268073 -0.000673853 -7.3208e-27 0 -0.000617042 -0.00246271 -0.00551355 -0.00972654 -0.0150392 -0.0213705 -0.0286216 -0.0366778 -0.0454101 -0.0546774 -0.064329 -0.0742053 -0.0841462 -0.0939898 -0.103574 -0.112742 -0.121344 -0.129242 -0.13631 -0.142435 -0.147523 -0.151495 -0.154322 -0.155868 -0.156246 -0.155369 -0.153262 -0.149999 -0.145619 -0.140195 -0.133817 -0.126584 -0.118612 -0.110023 -0.10095 -0.0915317 -0.081912 -0.0722345 -0.0626452 -0.0532907 -0.0443132 -0.0358499 -0.0280309 -0.0209777 -0.014801 -0.00959958 -0.00545798 -0.00244527 -0.00061481 -6.67974e-27 0 -0.000548375 -0.00218931 -0.00490292 -0.00865178 -0.0133809 -0.0190186 -0.0254772 -0.0326543 -0.0404347 -0.0486921 -0.0572915 -0.06609 -0.0749438 -0.0837076 -0.092236 -0.100389 -0.108033 -0.115043 -0.121309 -0.126729 -0.131221 -0.134716 -0.137188 -0.138518 -0.138814 -0.137985 -0.136075 -0.133136 -0.129211 -0.124364 -0.118676 -0.112237 -0.105148 -0.0975192 -0.0894667 -0.0811129 -0.0725851 -0.0640094 -0.0555144 -0.0472286 -0.0392772 -0.0317808 -0.0248541 -0.0186044 -0.0131299 -0.00851811 -0.00484456 -0.00217116 -0.000546059 -5.93331e-27 0 -0.00047107 -0.00188146 -0.00421524 -0.00744118 -0.0115128 -0.0163688 -0.0219338 -0.0281197 -0.0348268 -0.0419455 -0.0493586 -0.0569419 -0.0645703 -0.0721173 -0.0794564 -0.086466 -0.0930306 -0.099043 -0.104406 -0.109036 -0.112859 -0.11582 -0.117895 -0.118987 -0.119193 -0.118424 -0.116736 -0.114167 -0.110756 -0.106562 -0.101653 -0.0961075 -0.0900134 -0.0834642 -0.0765595 -0.0694031 -0.0621028 -0.0547655 -0.0475 -0.0404151 -0.0336165 -0.0272065 -0.0212825 -0.0159359 -0.0112506 -0.00730169 -0.00415445 -0.00186271 -0.000468683 -5.09329e-27 0 -0.000386345 -0.00154403 -0.00346134 -0.00611383 -0.0094642 -0.0134626 -0.0180474 -0.0231458 -0.028675 -0.0345442 -0.0406555 -0.0469054 -0.0531894 -0.0594015 -0.0654365 -0.0711929 -0.0765749 -0.0814938 -0.0858699 -0.0896337 -0.0927275 -0.0951054 -0.0967495 -0.0975828 -0.097692 -0.0969945 -0.0955528 -0.093391 -0.0905462 -0.087068 -0.0830141 -0.0784496 -0.073446 -0.0680801 -0.0624325 -0.056587 -0.0506305 -0.0446485 -0.0387286 -0.0329576 -0.0274204 -0.0221992 -0.0173725 -0.0130142 -0.00919266 -0.00596949 -0.00339854 -0.00152479 -0.000383902 -4.17296e-27 0 -0.000295535 -0.00118232 -0.00265313 -0.00469069 -0.00726753 -0.0103461 -0.0138793 -0.0178108 -0.0220764 -0.0266049 -0.0313195 -0.0361388 -0.0409805 -0.0457609 -0.0503974 -0.0548104 -0.058925 -0.0626725 -0.0659916 -0.0688294 -0.0711428 -0.0728983 -0.0740835 -0.0746441 -0.07465 -0.0740344 -0.0728579 -0.0711353 -0.0688997 -0.0661909 -0.0630548 -0.059542 -0.0557075 -0.0516094 -0.0473084 -0.0428669 -0.038349 -0.033818 -0.0293383 -0.0249737 -0.0207866 -0.0168378 -0.0131855 -0.00988528 -0.00698858 -0.0045425 -0.00258873 -0.00116271 -0.000293049 -3.18684e-27 0 -0.000200074 -0.000802051 -0.00180334 -0.00319419 -0.00495741 -0.00706836 -0.00949514 -0.012199 -0.015135 -0.0182528 -0.0214978 -0.024812 -0.0281362 -0.0314107 -0.0345763 -0.0375767 -0.0403592 -0.0428759 -0.0450849 -0.0469508 -0.0484457 -0.0495506 -0.0502512 -0.0505371 -0.0504267 -0.0499072 -0.0490095 -0.0477511 -0.0461578 -0.0442596 -0.0420894 -0.0396829 -0.0370775 -0.0343119 -0.0314256 -0.0284589 -0.0254521 -0.0224448 -0.0194774 -0.0165893 -0.0138197 -0.0112068 -0.00878782 -0.00659855 -0.00467309 -0.00304321 -0.0017378 -0.000782174 -0.000197557 -2.1505e-27 0 -0.000101466 -0.000409215 -0.00092539 -0.00164794 -0.00257028 -0.00368106 -0.00496418 -0.00639892 -0.00796031 -0.0096197 -0.0113454 -0.0131035 -0.0148591 -0.016577 -0.0182227 -0.0197638 -0.0211703 -0.0224162 -0.0234794 -0.0243428 -0.0249942 -0.0254276 -0.0256362 -0.0256316 -0.0254119 -0.0249907 -0.0243836 -0.023607 -0.0226793 -0.02162 -0.0204488 -0.0191858 -0.0178502 -0.0164607 -0.0150353 -0.0135909 -0.0121435 -0.0107087 -0.00930157 -0.00793699 -0.00662987 -0.00539531 -0.00424873 -0.00320589 -0.00228275 -0.00149529 -0.000859152 -0.000389178 -9.89307e-05 -1.0803e-27 0 -1.26592e-06 -1.00078e-05 -3.31123e-05 -7.63275e-05 -0.000143789 -0.000237648 -0.000357841 -0.000501998 -0.000665508 -0.000841743 -0.00102242 -0.00119806 -0.00135858 -0.0014939 -0.00159455 -0.00165234 -0.00166084 -0.00161588 -0.00151584 -0.00136182 -0.00115766 -0.000909813 -0.000626993 -0.00031977 -6.28727e-09 0.000319763 0.000626982 0.000909798 0.00115765 0.0013618 0.00151583 0.00161587 0.00166083 0.00165233 0.00159454 0.00149389 0.00135858 0.00119806 0.00102242 0.000841742 0.000665506 0.000501996 0.000357841 0.000237649 0.000143789 7.63277e-05 3.31123e-05 1.00078e-05 1.26592e-06 6.89439e-30 0 9.89307e-05 0.000389178 0.000859152 0.00149529 0.00228275 0.00320589 0.00424873 0.00539531 0.00662987 0.00793699 0.00930157 0.0107087 0.0121435 0.0135909 0.0150353 0.0164607 0.0178501 0.0191857 0.0204488 0.0216199 0.0226793 0.023607 0.0243836 0.0249907 0.0254119 0.0256316 0.0256362 0.0254276 0.0249941 0.0243428 0.0234794 0.0224162 0.0211703 0.0197638 0.0182227 0.016577 0.0148591 0.0131035 0.0113454 0.0096197 0.00796031 0.00639891 0.00496418 0.00368106 0.00257028 0.00164794 0.00092539 0.000409215 0.000101466 1.09392e-27 0 0.000197557 0.000782174 0.0017378 0.00304321 0.00467309 0.00659855 0.00878782 0.0112068 0.0138197 0.0165893 0.0194774 0.0224448 0.025452 0.0284589 0.0314256 0.0343118 0.0370774 0.0396829 0.0420894 0.0442595 0.0461578 0.047751 0.0490095 0.0499072 0.0504267 0.0505371 0.0502512 0.0495506 0.0484457 0.0469508 0.0450849 0.0428759 0.0403592 0.0375767 0.0345763 0.0314107 0.0281362 0.024812 0.0214978 0.0182528 0.015135 0.012199 0.00949514 0.00706836 0.00495741 0.00319419 0.00180334 0.000802051 0.000200074 2.16365e-27 0 0.000293049 0.00116271 0.00258873 0.0045425 0.00698858 0.00988528 0.0131855 0.0168378 0.0207866 0.0249737 0.0293383 0.033818 0.038349 0.0428669 0.0473083 0.0516094 0.0557075 0.059542 0.0630548 0.0661909 0.0688997 0.0711353 0.0728579 0.0740344 0.07465 0.0746441 0.0740835 0.0728983 0.0711428 0.0688294 0.0659915 0.0626725 0.058925 0.0548104 0.0503974 0.0457609 0.0409805 0.0361388 0.0313195 0.0266049 0.0220764 0.0178108 0.0138793 0.0103461 0.00726753 0.00469069 0.00265313 0.00118232 0.000295535 3.19922e-27 0 0.000383902 0.00152479 0.00339854 0.00596949 0.00919266 0.0130142 0.0173725 0.0221992 0.0274204 0.0329576 0.0387286 0.0446485 0.0506305 0.056587 0.0624325 0.0680801 0.073446 0.0784496 0.083014 0.087068 0.0905462 0.0933909 0.0955528 0.0969944 0.097692 0.0975828 0.0967494 0.0951054 0.0927275 0.0896337 0.0858699 0.0814938 0.0765749 0.0711929 0.0654365 0.0594015 0.0531894 0.0469054 0.0406555 0.0345442 0.028675 0.0231457 0.0180474 0.0134626 0.0094642 0.00611384 0.00346134 0.00154403 0.000386345 4.1843e-27 0 0.000468683 0.00186271 0.00415445 0.00730169 0.0112506 0.0159359 0.0212825 0.0272065 0.0336165 0.0404151 0.0475 0.0547655 0.0621028 0.0694031 0.0765595 0.0834642 0.0900134 0.0961075 0.101652 0.106562 0.110756 0.114167 0.116736 0.118424 0.119193 0.118987 0.117895 0.11582 0.112859 0.109036 0.104406 0.099043 0.0930306 0.086466 0.0794564 0.0721173 0.0645703 0.0569419 0.0493586 0.0419455 0.0348268 0.0281197 0.0219338 0.0163688 0.0115128 0.00744118 0.00421524 0.00188146 0.00047107 5.1034e-27 0 0.000546059 0.00217116 0.00484456 0.00851811 0.0131299 0.0186044 0.0248541 0.0317808 0.0392772 0.0472286 0.0555144 0.0640094 0.0725851 0.0811129 0.0894666 0.0975192 0.105148 0.112237 0.118676 0.124364 0.129211 0.133136 0.136075 0.137985 0.138814 0.138518 0.137188 0.134716 0.131221 0.126729 0.121309 0.115043 0.108033 0.100389 0.092236 0.0837076 0.0749438 0.06609 0.0572915 0.0486921 0.0404347 0.0326543 0.0254772 0.0190186 0.0133809 0.00865178 0.00490292 0.00218931 0.000548375 5.94202e-27 0 0.00061481 0.00244527 0.00545798 0.00959958 0.014801 0.0209777 0.0280309 0.0358499 0.0443132 0.0532907 0.0626452 0.0722345 0.081912 0.0915317 0.10095 0.110023 0.118612 0.126584 0.133817 0.140195 0.145619 0.149999 0.153262 0.155369 0.156246 0.155868 0.154322 0.151495 0.147523 0.142435 0.13631 0.129242 0.121344 0.112742 0.103574 0.0939898 0.0841462 0.0742053 0.064329 0.0546774 0.0454101 0.0366778 0.0286216 0.0213705 0.0150392 0.00972654 0.00551355 0.00246271 0.000617042 6.68696e-27 0 0.000673853 0.00268073 0.00598507 0.010529 0.0162376 0.0230182 0.0307628 0.0393497 0.0486452 0.0585057 0.06878 0.079311 0.0899365 0.100495 0.11083 0.12078 0.130192 0.138923 0.146835 0.153805 0.159722 0.164489 0.168029 0.170301 0.171213 0.170764 0.169027 0.165893 0.161508 0.155906 0.149174 0.141416 0.132755 0.12333 0.113291 0.102802 0.0920323 0.0811599 0.0703601 0.0598072 0.0496747 0.0401269 0.0313175 0.0233872 0.0164615 0.0106485 0.00603749 0.00269735 0.000675988 7.3265e-27 0 0.000722261 0.00287383 0.0064175 0.0112918 0.0174169 0.0246938 0.0330067 0.0422249 0.0522046 0.0627914 0.073822 0.0851272 0.0965318 0.107862 0.118948 0.129618 0.139706 0.149058 0.157526 0.164979 0.171297 0.176379 0.180141 0.182544 0.183481 0.18297 0.181072 0.177682 0.172955 0.166929 0.159698 0.151373 0.142086 0.131986 0.121234 0.110004 0.0984776 0.086844 0.0752895 0.0640003 0.0531611 0.0429471 0.0335222 0.0250369 0.0176252 0.0114032 0.00646647 0.00288953 0.000724283 7.85056e-27 0 0.00075927 0.00302155 0.00674848 0.011876 0.0183204 0.0259781 0.0347272 0.0444302 0.0549355 0.0660801 0.0776917 0.0895914 0.101594 0.113517 0.125179 0.136399 0.147004 0.156829 0.165721 0.17354 0.180162 0.185479 0.189407 0.191907 0.192855 0.192293 0.190267 0.186676 0.181684 0.175331 0.167715 0.158955 0.149189 0.138573 0.127277 0.115483 0.103381 0.0911678 0.0790396 0.0671906 0.0558143 0.0450939 0.0352011 0.0262936 0.0185121 0.0119786 0.00679373 0.00303622 0.000761166 8.25091e-27 0 0.000784298 0.00312156 0.00697279 0.0122722 0.0189339 0.0268508 0.0358973 0.0459309 0.0567948 0.06832 0.080328 0.0926332 0.105043 0.117369 0.129422 0.141016 0.15197 0.162115 0.17129 0.179354 0.186176 0.191648 0.195681 0.19824 0.199187 0.198596 0.196486 0.192764 0.187596 0.181024 0.17315 0.164097 0.154008 0.143044 0.13138 0.119203 0.10671 0.0941037 0.0815858 0.0693564 0.0576151 0.0465505 0.0363399 0.0271457 0.0191132 0.0123683 0.00701525 0.00313545 0.0007861 8.52123e-27 0 0.000796992 0.00317258 0.0070879 0.0124767 0.019252 0.0273054 0.0365091 0.0467182 0.0577728 0.0695007 0.0817195 0.0942398 0.106865 0.119402 0.13166 0.143445 0.154577 0.164879 0.174193 0.18237 0.189281 0.194816 0.198884 0.201455 0.202379 0.201741 0.199548 0.195727 0.190441 0.183735 0.175713 0.166501 0.156244 0.145105 0.133262 0.120904 0.108229 0.0954438 0.0827498 0.0703496 0.0584448 0.0472258 0.0368717 0.0275471 0.0193991 0.0125556 0.00712296 0.00318427 0.000798514 8.65727e-27 0 0.000796993 0.0031726 0.00708797 0.0124769 0.0192524 0.0273062 0.0365104 0.0467201 0.0577756 0.0695043 0.081724 0.0942452 0.106871 0.119409 0.131667 0.143452 0.154583 0