<?xml version="1.0"?>
<VTKFile type="PolyData">
	<PolyData>
		<Piece NumberOfPoints="2601" NumberOfPolys="2500">
			<Points>
				<DataArray type="Float32" NumberOfComponents="3" format="ascii">
 0 0 0 0.02 0 0 0.04 0 0 0.06 0 0 0.08 0 0 0.1 0 0 0.12 0 0 0.14 0 0 0.16 0 0 0.18 0 0 0.2 0 0 0.22 0 0 0.24 0 0 0.26 0 0 0.28 0 0 0.3 0 0 0.32 0 0 0.34 0 0 0.36 0 0 0.38 0 0 0.4 0 0 0.42 0 0 0.44 0 0 0.46 0 0 0.48 0 0 0.5 0 0 0.52 0 0 0.54 0 0 0.56 0 0 0.58 0 0 0.6 0 0 0.62 0 0 0.64 0 0 0.66 0 0 0.68 0 0 0.7 0 0 0.72 0 0 0.74 0 0 0.76 0 0 0.78 0 0 0.8 0 0 0.82 0 0 0.84 0 0 0.86 0 0 0.88 0 0 0.9 0 0 0.92 0 0 0.94 0 0 0.96 0 0 0.98 0 0 1 0 0 0 0.02 0 0.02 0.02 0 0.04 0.02 0 0.06 0.02 0 0.08 0.02 0 0.1 0.02 0 0.12 0.02 0 0.14 0.02 0 0.16 0.02 0 0.18 0.02 0 0.2 0.02 0 0.22 0.02 0 0.24 0.02 0 0.26 0.02 0 0.28 0.02 0 0.3 0.02 0 0.32 0.02 0 0.34 0.02 0 0.36 0.02 0 0.38 0.02 0 0.4 0.02 0 0.42 0.02 0 0.44 0.02 0 0.46 0.02 0 0.48 0.02 0 0.5 0.02 0 0.52 0.02 0 0.54 0.02 0 0.56 0.02 0 0.58 0.02 0 0.6 0.02 0 0.62 0.02 0 0.64 0.02 0 0.66 0.02 0 0.68 0.02 0 0.7 0.02 0 0.72 0.02 0 0.74 0.02 0 0.76 0.02 0 0.78 0.02 0 0.8 0.02 0 0.82 0.02 0 0.84 0.02 0 0.86 0.02 0 0.88 0.02 0 0.9 0.02 0 0.92 0.02 0 0.94 0.02 0 0.96 0.02 0 0.98 0.02 0 1 0.02 0 0 0.04 0 0.02 0.04 0 0.04 0.04 0 0.06 0.04 0 0.08 0.04 0 0.1 0.04 0 0.12 0.04 0 0.14 0.04 0 0.16 0.04 0 0.18 0.04 0 0.2 0.04 0 0.22 0.04 0 0.24 0.04 0 0.26 0.04 0 0.28 0.04 0 0.3 0.04 0 0.32 0.04 0 0.34 0.04 0 0.36 0.04 0 0.38 0.04 0 0.4 0.04 0 0.42 0.04 0 0.44 0.04 0 0.46 0.04 0 0.48 0.04 0 0.5 0.04 0 0.52 0.04 0 0.54 0.04 0 0.56 0.04 0 0.58 0.04 0 0.6 0.04 0 0.62 0.04 0 0.64 0.04 0 0.66 0.04 0 0.68 0.04 0 0.7 0.04 0 0.72 0.04 0 0.74 0.04 0 0.76 0.04 0 0.78 0.04 0 0.8 0.04 0 0.82 0.04 0 0.84 0.04 0 0.86 0.04 0 0.88 0.04 0 0.9 0.04 0 0.92 0.04 0 0.94 0.04 0 0.96 0.04 0 0.98 0.04 0 1 0.04 0 0 0.06 0 0.02 0.06 0 0.04 0.06 0 0.06 0.06 0 0.08 0.06 0 0.1 0.06 0 0.12 0.06 0 0.14 0.06 0 0.16 0.06 0 0.18 0.06 0 0.2 0.06 0 0.22 0.06 0 0.24 0.06 0 0.26 0.06 0 0.28 0.06 0 0.3 0.06 0 0.32 0.06 0 0.34 0.06 0 0.36 0.06 0 0.38 0.06 0 0.4 0.06 0 0.42 0.06 0 0.44 0.06 0 0.46 0.06 0 0.48 0.06 0 0.5 0.06 0 0.52 0.06 0 0.54 0.06 0 0.56 0.06 0 0.58 0.06 0 0.6 0.06 0 0.62 0.06 0 0.64 0.06 0 0.66 0.06 0 0.68 0.06 0 0.7 0.06 0 0.72 0.06 0 0.74 0.06 0 0.76 0.06 0 0.78 0.06 0 0.8 0.06 0 0.82 0.06 0 0.84 0.06 0 0.86 0.06 0 0.88 0.06 0 0.9 0.06 0 0.92 0.06 0 0.94 0.06 0 0.96 0.06 0 0.98 0.06 0 1 0.06 0 0 0.08 0 0.02 0.08 0 0.04 0.08 0 0.06 0.08 0 0.08 0.08 0 0.1 0.08 0 0.12 0.08 0 0.14 0.08 0 0.16 0.08 0 0.18 0.08 0 0.2 0.08 0 0.22 0.08 0 0.24 0.08 0 0.26 0.08 0 0.28 0.08 0 0.3 0.08 0 0.32 0.08 0 0.34 0.08 0 0.36 0.08 0 0.38 0.08 0 0.4 0.08 0 0.42 0.08 0 0.44 0.08 0 0.46 0.08 0 0.48 0.08 0 0.5 0.08 0 0.52 0.08 0 0.54 0.08 0 0.56 0.08 0 0.58 0.08 0 0.6 0.08 0 0.62 0.08 0 0.64 0.08 0 0.66 0.08 0 0.68 0.08 0 0.7 0.08 0 0.72 0.08 0 0.74 0.08 0 0.76 0.08 0 0.78 0.08 0 0.8 0.08 0 0.82 0.08 0 0.84 0.08 0 0.86 0.08 0 0.88 0.08 0 0.9 0.08 0 0.92 0.08 0 0.94 0.08 0 0.96 0.08 0 0.98 0.08 0 1 0.08 0 0 0.1 0 0.02 0.1 0 0.04 0.1 0 0.06 0.1 0 0.08 0.1 0 0.1 0.1 0 0.12 0.1 0 0.14 0.1 0 0.16 0.1 0 0.18 0.1 0 0.2 0.1 0 0.22 0.1 0 0.24 0.1 0 0.26 0.1 0 0.28 0.1 0 0.3 0.1 0 0.32 0.1 0 0.34 0.1 0 0.36 0.1 0 0.38 0.1 0 0.4 0.1 0 0.42 0.1 0 0.44 0.1 0 0.46 0.1 0 0.48 0.1 0 0.5 0.1 0 0.52 0.1 0 0.54 0.1 0 0.56 0.1 0 0.58 0.1 0 0.6 0.1 0 0.62 0.1 0 0.64 0.1 0 0.66 0.1 0 0.68 0.1 0 0.7 0.1 0 0.72 0.1 0 0.74 0.1 0 0.76 0.1 0 0.78 0.1 0 0.8 0.1 0 0.82 0.1 0 0.84 0.1 0 0.86 0.1 0 0.88 0.1 0 0.9 0.1 0 0.92 0.1 0 0.94 0.1 0 0.96 0.1 0 0.98 0.1 0 1 0.1 0 0 0.12 0 0.02 0.12 0 0.04 0.12 0 0.06 0.12 0 0.08 0.12 0 0.1 0.12 0 0.12 0.12 0 0.14 0.12 0 0.16 0.12 0 0.18 0.12 0 0.2 0.12 0 0.22 0.12 0 0.24 0.12 0 0.26 0.12 0 0.28 0.12 0 0.3 0.12 0 0.32 0.12 0 0.34 0.12 0 0.36 0.12 0 0.38 0.12 0 0.4 0.12 0 0.42 0.12 0 0.44 0.12 0 0.46 0.12 0 0.48 0.12 0 0.5 0.12 0 0.52 0.12 0 0.54 0.12 0 0.56 0.12 0 0.58 0.12 0 0.6 0.12 0 0.62 0.12 0 0.64 0.12 0 0.66 0.12 0 0.68 0.12 0 0.7 0.12 0 0.72 0.12 0 0.74 0.12 0 0.76 0.12 0 0.78 0.12 0 0.8 0.12 0 0.82 0.12 0 0.84 0.12 0 0.86 0.12 0 0.88 0.12 0 0.9 0.12 0 0.92 0.12 0 0.94 0.12 0 0.96 0.12 0 0.98 0.12 0 1 0.12 0 0 0.14 0 0.02 0.14 0 0.04 0.14 0 0.06 0.14 0 0.08 0.14 0 0.1 0.14 0 0.12 0.14 0 0.14 0.14 0 0.16 0.14 0 0.18 0.14 0 0.2 0.14 0 0.22 0.14 0 0.24 0.14 0 0.26 0.14 0 0.28 0.14 0 0.3 0.14 0 0.32 0.14 0 0.34 0.14 0 0.36 0.14 0 0.38 0.14 0 0.4 0.14 0 0.42 0.14 0 0.44 0.14 0 0.46 0.14 0 0.48 0.14 0 0.5 0.14 0 0.52 0.14 0 0.54 0.14 0 0.56 0.14 0 0.58 0.14 0 0.6 0.14 0 0.62 0.14 0 0.64 0.14 0 0.66 0.14 0 0.68 0.14 0 0.7 0.14 0 0.72 0.14 0 0.74 0.14 0 0.76 0.14 0 0.78 0.14 0 0.8 0.14 0 0.82 0.14 0 0.84 0.14 0 0.86 0.14 0 0.88 0.14 0 0.9 0.14 0 0.92 0.14 0 0.94 0.14 0 0.96 0.14 0 0.98 0.14 0 1 0.14 0 0 0.16 0 0.02 0.16 0 0.04 0.16 0 0.06 0.16 0 0.08 0.16 0 0.1 0.16 0 0.12 0.16 0 0.14 0.16 0 0.16 0.16 0 0.18 0.16 0 0.2 0.16 0 0.22 0.16 0 0.24 0.16 0 0.26 0.16 0 0.28 0.16 0 0.3 0.16 0 0.32 0.16 0 0.34 0.16 0 0.36 0.16 0 0.38 0.16 0 0.4 0.16 0 0.42 0.16 0 0.44 0.16 0 0.46 0.16 0 0.48 0.16 0 0.5 0.16 0 0.52 0.16 0 0.54 0.16 0 0.56 0.16 0 0.58 0.16 0 0.6 0.16 0 0.62 0.16 0 0.64 0.16 0 0.66 0.16 0 0.68 0.16 0 0.7 0.16 0 0.72 0.16 0 0.74 0.16 0 0.76 0.16 0 0.78 0.16 0 0.8 0.16 0 0.82 0.16 0 0.84 0.16 0 0.86 0.16 0 0.88 0.16 0 0.9 0.16 0 0.92 0.16 0 0.94 0.16 0 0.96 0.16 0 0.98 0.16 0 1 0.16 0 0 0.18 0 0.02 0.18 0 0.04 0.18 0 0.06 0.18 0 0.08 0.18 0 0.1 0.18 0 0.12 0.18 0 0.14 0.18 0 0.16 0.18 0 0.18 0.18 0 0.2 0.18 0 0.22 0.18 0 0.24 0.18 0 0.26 0.18 0 0.28 0.18 0 0.3 0.18 0 0.32 0.18 0 0.34 0.18 0 0.36 0.18 0 0.38 0.18 0 0.4 0.18 0 0.42 0.18 0 0.44 0.18 0 0.46 0.18 0 0.48 0.18 0 0.5 0.18 0 0.52 0.18 0 0.54 0.18 0 0.56 0.18 0 0.58 0.18 0 0.6 0.18 0 0.62 0.18 0 0.64 0.18 0 0.66 0.18 0 0.68 0.18 0 0.7 0.18 0 0.72 0.18 0 0.74 0.18 0 0.76 0.18 0 0.78 0.18 0 0.8 0.18 0 0.82 0.18 0 0.84 0.18 0 0.86 0.18 0 0.88 0.18 0 0.9 0.18 0 0.92 0.18 0 0.94 0.18 0 0.96 0.18 0 0.98 0.18 0 1 0.18 0 0 0.2 0 0.02 0.2 0 0.04 0.2 0 0.06 0.2 0 0.08 0.2 0 0.1 0.2 0 0.12 0.2 0 0.14 0.2 0 0.16 0.2 0 0.18 0.2 0 0.2 0.2 0 0.22 0.2 0 0.24 0.2 0 0.26 0.2 0 0.28 0.2 0 0.3 0.2 0 0.32 0.2 0 0.34 0.2 0 0.36 0.2 0 0.38 0.2 0 0.4 0.2 0 0.42 0.2 0 0.44 0.2 0 0.46 0.2 0 0.48 0.2 0 0.5 0.2 0 0.52 0.2 0 0.54 0.2 0 0.56 0.2 0 0.58 0.2 0 0.6 0.2 0 0.62 0.2 0 0.64 0.2 0 0.66 0.2 0 0.68 0.2 0 0.7 0.2 0 0.72 0.2 0 0.74 0.2 0 0.76 0.2 0 0.78 0.2 0 0.8 0.2 0 0.82 0.2 0 0.84 0.2 0 0.86 0.2 0 0.88 0.2 0 0.9 0.2 0 0.92 0.2 0 0.94 0.2 0 0.96 0.2 0 0.98 0.2 0 1 0.2 0 0 0.22 0 0.02 0.22 0 0.04 0.22 0 0.06 0.22 0 0.08 0.22 0 0.1 0.22 0 0.12 0.22 0 0.14 0.22 0 0.16 0.22 0 0.18 0.22 0 0.2 0.22 0 0.22 0.22 0 0.24 0.22 0 0.26 0.22 0 0.28 0.22 0 0.3 0.22 0 0.32 0.22 0 0.34 0.22 0 0.36 0.22 0 0.38 0.22 0 0.4 0.22 0 0.42 0.22 0 0.44 0.22 0 0.46 0.22 0 0.48 0.22 0 0.5 0.22 0 0.52 0.22 0 0.54 0.22 0 0.56 0.22 0 0.58 0.22 0 0.6 0.22 0 0.62 0.22 0 0.64 0.22 0 0.66 0.22 0 0.68 0.22 0 0.7 0.22 0 0.72 0.22 0 0.74 0.22 0 0.76 0.22 0 0.78 0.22 0 0.8 0.22 0 0.82 0.22 0 0.84 0.22 0 0.86 0.22 0 0.88 0.22 0 0.9 0.22 0 0.92 0.22 0 0.94 0.22 0 0.96 0.22 0 0.98 0.22 0 1 0.22 0 0 0.24 0 0.02 0.24 0 0.04 0.24 0 0.06 0.24 0 0.08 0.24 0 0.1 0.24 0 0.12 0.24 0 0.14 0.24 0 0.16 0.24 0 0.18 0.24 0 0.2 0.24 0 0.22 0.24 0 0.24 0.24 0 0.26 0.24 0 0.28 0.24 0 0.3 0.24 0 0.32 0.24 0 0.34 0.24 0 0.36 0.24 0 0.38 0.24 0 0.4 0.24 0 0.42 0.24 0 0.44 0.24 0 0.46 0.24 0 0.48 0.24 0 0.5 0.24 0 0.52 0.24 0 0.54 0.24 0 0.56 0.24 0 0.58 0.24 0 0.6 0.24 0 0.62 0.24 0 0.64 0.24 0 0.66 0.24 0 0.68 0.24 0 0.7 0.24 0 0.72 0.24 0 0.74 0.24 0 0.76 0.24 0 0.78 0.24 0 0.8 0.24 0 0.82 0.24 0 0.84 0.24 0 0.86 0.24 0 0.88 0.24 0 0.9 0.24 0 0.92 0.24 0 0.94 0.24 0 0.96 0.24 0 0.98 0.24 0 1 0.24 0 0 0.26 0 0.02 0.26 0 0.04 0.26 0 0.06 0.26 0 0.08 0.26 0 0.1 0.26 0 0.12 0.26 0 0.14 0.26 0 0.16 0.26 0 0.18 0.26 0 0.2 0.26 0 0.22 0.26 0 0.24 0.26 0 0.26 0.26 0 0.28 0.26 0 0.3 0.26 0 0.32 0.26 0 0.34 0.26 0 0.36 0.26 0 0.38 0.26 0 0.4 0.26 0 0.42 0.26 0 0.44 0.26 0 0.46 0.26 0 0.48 0.26 0 0.5 0.26 0 0.52 0.26 0 0.54 0.26 0 0.56 0.26 0 0.58 0.26 0 0.6 0.26 0 0.62 0.26 0 0.64 0.26 0 0.66 0.26 0 0.68 0.26 0 0.7 0.26 0 0.72 0.26 0 0.74 0.26 0 0.76 0.26 0 0.78 0.26 0 0.8 0.26 0 0.82 0.26 0 0.84 0.26 0 0.86 0.26 0 0.88 0.26 0 0.9 0.26 0 0.92 0.26 0 0.94 0.26 0 0.96 0.26 0 0.98 0.26 0 1 0.26 0 0 0.28 0 0.02 0.28 0 0.04 0.28 0 0.06 0.28 0 0.08 0.28 0 0.1 0.28 0 0.12 0.28 0 0.14 0.28 0 0.16 0.28 0 0.18 0.28 0 0.2 0.28 0 0.22 0.28 0 0.24 0.28 0 0.26 0.28 0 0.28 0.28 0 0.3 0.28 0 0.32 0.28 0 0.34 0.28 0 0.36 0.28 0 0.38 0.28 0 0.4 0.28 0 0.42 0.28 0 0.44 0.28 0 0.46 0.28 0 0.48 0.28 0 0.5 0.28 0 0.52 0.28 0 0.54 0.28 0 0.56 0.28 0 0.58 0.28 0 0.6 0.28 0 0.62 0.28 0 0.64 0.28 0 0.66 0.28 0 0.68 0.28 0 0.7 0.28 0 0.72 0.28 0 0.74 0.28 0 0.76 0.28 0 0.78 0.28 0 0.8 0.28 0 0.82 0.28 0 0.84 0.28 0 0.86 0.28 0 0.88 0.28 0 0.9 0.28 0 0.92 0.28 0 0.94 0.28 0 0.96 0.28 0 0.98 0.28 0 1 0.28 0 0 0.3 0 0.02 0.3 0 0.04 0.3 0 0.06 0.3 0 0.08 0.3 0 0.1 0.3 0 0.12 0.3 0 0.14 0.3 0 0.16 0.3 0 0.18 0.3 0 0.2 0.3 0 0.22 0.3 0 0.24 0.3 0 0.26 0.3 0 0.28 0.3 0 0.3 0.3 0 0.32 0.3 0 0.34 0.3 0 0.36 0.3 0 0.38 0.3 0 0.4 0.3 0 0.42 0.3 0 0.44 0.3 0 0.46 0.3 0 0.48 0.3 0 0.5 0.3 0 0.52 0.3 0 0.54 0.3 0 0.56 0.3 0 0.58 0.3 0 0.6 0.3 0 0.62 0.3 0 0.64 0.3 0 0.66 0.3 0 0.68 0.3 0 0.7 0.3 0 0.72 0.3 0 0.74 0.3 0 0.76 0.3 0 0.78 0.3 0 0.8 0.3 0 0.82 0.3 0 0.84 0.3 0 0.86 0.3 0 0.88 0.3 0 0.9 0.3 0 0.92 0.3 0 0.94 0.3 0 0.96 0.3 0 0.98 0.3 0 1 0.3 0 0 0.32 0 0.02 0.32 0 0.04 0.32 0 0.06 0.32 0 0.08 0.32 0 0.1 0.32 0 0.12 0.32 0 0.14 0.32 0 0.16 0.32 0 0.18 0.32 0 0.2 0.32 0 0.22 0.32 0 0.24 0.32 0 0.26 0.32 0 0.28 0.32 0 0.3 0.32 0 0.32 0.32 0 0.34 0.32 0 0.36 0.32 0 0.38 0.32 0 0.4 0.32 0 0.42 0.32 0 0.44 0.32 0 0.46 0.32 0 0.48 0.32 0 0.5 0.32 0 0.52 0.32 0 0.54 0.32 0 0.56 0.32 0 0.58 0.32 0 0.6 0.32 0 0.62 0.32 0 0.64 0.32 0 0.66 0.32 0 0.68 0.32 0 0.7 0.32 0 0.72 0.32 0 0.74 0.32 0 0.76 0.32 0 0.78 0.32 0 0.8 0.32 0 0.82 0.32 0 0.84 0.32 0 0.86 0.32 0 0.88 0.32 0 0.9 0.32 0 0.92 0.32 0 0.94 0.
[...]
			<PointData Scalars="VitesseX">
				<DataArray Name="VitesseX" type="Float32" format="ascii">
 0 0 0 0 0 0 0 0 0 0 0 0 0 0 0 0 0 0 0 0 0 0 0 0 0 0 0 0 0 0 0 0 0 0 0 0 0 0 0 0 0 0 0 0 0 0 0 0 0 0 -0 0 -0.000492918 -0.00196414 -0.00439054 -0.00773403 -0.011942 -0.0169482 -0.0226736 -0.029028 -0.0359111 -0.0432143 -0.0508221 -0.0586136 -0.0664663 -0.0742572 -0.0818627 -0.0891626 -0.0960416 -0.102391 -0.108111 -0.113111 -0.117313 -0.120649 -0.123083 -0.124533 -0.125018 -0.124523 -0.123022 -0.120582 -0.117227 -0.113011 -0.107999 -0.102272 -0.0959187 -0.0890401 -0.0817444 -0.0741462 -0.066366 -0.0585248 -0.0507453 -0.0431507 -0.0358606 -0.0289896 -0.0226459 -0.0169294 -0.0119303 -0.00772748 -0.00438738 -0.00196276 -0.000492727 -5.34946e-27 0 -0.000978378 -0.0039002 -0.00872141 -0.0153681 -0.0237371 -0.0336974 -0.0450925 -0.0577423 -0.0714467 -0.0859879 -0.101135 -0.116643 -0.132268 -0.147764 -0.162882 -0.177382 -0.191033 -0.203618 -0.214939 -0.224815 -0.233094 -0.239643 -0.244415 -0.247182 -0.248054 -0.247017 -0.243941 -0.239031 -0.232315 -0.223899 -0.213918 -0.20253 -0.189914 -0.176268 -0.161807 -0.146755 -0.131353 -0.115835 -0.100441 -0.0854155 -0.0709928 -0.0573986 -0.0448461 -0.0335324 -0.0236359 -0.0153131 -0.00869628 -0.00389096 -0.000977141 -1.06154e-26 0 -0.00144858 -0.00577647 -0.0129204 -0.0227727 -0.0351821 -0.0499551 -0.0668601 -0.0856297 -0.105966 -0.127545 -0.150022 -0.173029 -0.196202 -0.21918 -0.241588 -0.263066 -0.283273 -0.301886 -0.31861 -0.333181 -0.34537 -0.354988 -0.361992 -0.365965 -0.367157 -0.36555 -0.360871 -0.353514 -0.343495 -0.330974 -0.316153 -0.299266 -0.280579 -0.260384 -0.238997 -0.216751 -0.193999 -0.171083 -0.148352 -0.126167 -0.104874 -0.0848028 -0.0662676 -0.0495586 -0.0349391 -0.0226408 -0.0128604 -0.00575474 -0.00144568 -1.57148e-26 0 -0.00189613 -0.00756359 -0.0169219 -0.0298329 -0.0460998 -0.0654705 -0.0876415 -0.112262 -0.13894 -0.167249 -0.196735 -0.226908 -0.257293 -0.287414 -0.316774 -0.344901 -0.371344 -0.39568 -0.417522 -0.436526 -0.452394 -0.46488 -0.473963 -0.479009 -0.480442 -0.478239 -0.471962 -0.462221 -0.449011 -0.432545 -0.413089 -0.390951 -0.366481 -0.340059 -0.312098 -0.283029 -0.253314 -0.223394 -0.19372 -0.164763 -0.136969 -0.11077 -0.0865725 -0.0647553 -0.0456618 -0.0295954 -0.0168142 -0.00752485 -0.00189097 -2.05671e-26 0 -0.00231399 -0.00923336 -0.020663 -0.0364373 -0.0563181 -0.0799989 -0.107109 -0.13722 -0.16985 -0.204475 -0.240537 -0.277433 -0.314578 -0.351389 -0.387255 -0.421595 -0.453856 -0.483521 -0.510116 -0.533221 -0.552476 -0.567585 -0.578553 -0.58453 -0.586121 -0.5833 -0.575461 -0.563437 -0.547197 -0.527008 -0.503196 -0.47614 -0.446265 -0.414037 -0.379955 -0.344543 -0.308363 -0.271945 -0.235831 -0.200593 -0.166772 -0.13489 -0.105441 -0.0788832 -0.0556353 -0.0360674 -0.0204956 -0.00917355 -0.00230604 -2.50951e-26 0 -0.00269558 -0.0107595 -0.0240847 -0.0424817 -0.0656758 -0.0933112 -0.124956 -0.160109 -0.198207 -0.238636 -0.280739 -0.323807 -0.367154 -0.4101 -0.451923 -0.491943 -0.529512 -0.564025 -0.594932 -0.621742 -0.64404 -0.661485 -0.67411 -0.680864 -0.682527 -0.679072 -0.669737 -0.655566 -0.636507 -0.612876 -0.585056 -0.553491 -0.518676 -0.481153 -0.4415 -0.400325 -0.35828 -0.315971 -0.27402 -0.233094 -0.193815 -0.156785 -0.122576 -0.0917199 -0.0647026 -0.041955 -0.0238468 -0.0106751 -0.00268438 -2.92271e-26 0 -0.00303488 -0.0121178 -0.0271329 -0.0478709 -0.0740255 -0.105198 -0.140901 -0.180569 -0.223566 -0.269193 -0.316708 -0.365301 -0.414196 -0.462622 -0.509761 -0.554839 -0.597123 -0.63593 -0.670638 -0.7007 -0.725649 -0.745104 -0.759131 -0.766498 -0.768146 -0.764049 -0.753309 -0.737161 -0.715538 -0.6888 -0.657383 -0.621788 -0.582575 -0.540352 -0.495767 -0.449499 -0.402278 -0.354778 -0.307688 -0.261754 -0.21767 -0.176109 -0.137708 -0.103064 -0.0727212 -0.0471658 -0.0268151 -0.0120059 -0.00302007 -3.28973e-26 0 -0.00332656 -0.013287 -0.0297595 -0.0525198 -0.0812354 -0.115471 -0.154692 -0.198278 -0.245526 -0.295667 -0.347878 -0.401263 -0.454964 -0.508133 -0.559861 -0.609296 -0.655628 -0.698107 -0.73605 -0.768858 -0.796022 -0.817134 -0.832282 -0.840091 -0.841636 -0.836898 -0.824868 -0.806945 -0.783051 -0.75359 -0.719042 -0.679962 -0.636962 -0.590708 -0.541905 -0.491294 -0.439668 -0.387757 -0.336306 -0.286123 -0.237965 -0.192558 -0.150599 -0.112736 -0.0795652 -0.0516179 -0.029354 -0.0131454 -0.00330786 -3.60475e-26 0 -0.00356603 -0.0142485 -0.0319232 -0.0563552 -0.0871919 -0.123968 -0.166113 -0.212957 -0.263743 -0.31764 -0.373758 -0.431127 -0.488819 -0.545918 -0.601439 -0.654461 -0.704113 -0.749584 -0.790143 -0.825149 -0.854062 -0.876449 -0.89242 -0.900492 -0.901849 -0.896479 -0.883295 -0.863827 -0.837993 -0.806234 -0.769072 -0.727103 -0.680986 -0.631431 -0.579192 -0.525055 -0.469866 -0.414393 -0.359425 -0.30582 -0.254379 -0.205876 -0.161047 -0.120586 -0.0851271 -0.0552416 -0.0314238 -0.0140758 -0.00354326 -3.86275e-26 0 -0.0037495 -0.0149873 -0.0335898 -0.0593164 -0.0918009 -0.130557 -0.174984 -0.224374 -0.277929 -0.334766 -0.393942 -0.454424 -0.515229 -0.575384 -0.633843 -0.689629 -0.741818 -0.789557 -0.832074 -0.868697 -0.898863 -0.922125 -0.93861 -0.946762 -0.947848 -0.941867 -0.927681 -0.90692 -0.879506 -0.845911 -0.806691 -0.762476 -0.71396 -0.661888 -0.607047 -0.550256 -0.492398 -0.434268 -0.376683 -0.320535 -0.266657 -0.215852 -0.168888 -0.126489 -0.0893198 -0.0579801 -0.0329921 -0.0147826 -0.0037226 -4.05962e-26 0 -0.00387411 -0.0154916 -0.034733 -0.0613568 -0.0949899 -0.135132 -0.181163 -0.23235 -0.28786 -0.346776 -0.408112 -0.470789 -0.53378 -0.59607 -0.656566 -0.714248 -0.768156 -0.817402 -0.861188 -0.898823 -0.929728 -0.95345 -0.970134 -0.97818 -0.978916 -0.972558 -0.957718 -0.93609 -0.907603 -0.872754 -0.832124 -0.786372 -0.736215 -0.682427 -0.625818 -0.567231 -0.507572 -0.447653 -0.38831 -0.330455 -0.27494 -0.222588 -0.174188 -0.130482 -0.0921579 -0.0598344 -0.0340541 -0.015261 -0.00384389 -4.19224e-26 0 -0.00393883 -0.0157607 -0.0353582 -0.062497 -0.0968054 -0.137779 -0.184786 -0.237078 -0.293798 -0.354003 -0.416675 -0.480701 -0.545016 -0.608575 -0.670245 -0.728977 -0.78378 -0.833741 -0.878045 -0.915987 -0.946987 -0.970591 -0.986965 -0.994499 -0.994571 -0.987271 -0.971415 -0.94875 -0.919225 -0.883359 -0.841751 -0.79507 -0.744044 -0.689449 -0.632095 -0.57282 -0.512529 -0.452025 -0.392135 -0.333767 -0.277767 -0.224953 -0.176113 -0.131991 -0.0932769 -0.0606002 -0.0345144 -0.0154789 -0.00390201 -4.25848e-26 0 -0.00393889 -0.0157616 -0.0353622 -0.0625087 -0.0968321 -0.13783 -0.184873 -0.237211 -0.293987 -0.354253 -0.416987 -0.48107 -0.545434 -0.609024 -0.670707 -0.729429 -0.784199 -0.834109 -0.878347 -0.916216 -0.947143 -0.970682 -0.987004 -0.994508 -0.994572 -0.98724 -0.971318 -0.94856 -0.918925 -0.882943 -0.841225 -0.794451 -0.743357 -0.688725 -0.631367 -0.57212 -0.511886 -0.451459 -0.39166 -0.333389 -0.277482 -0.224752 -0.175982 -0.131912 -0.0932359 -0.0605821 -0.0345083 -0.0154776 -0.00390192 -4.2573e-26 0 -0.00388104 -0.0155462 -0.0349128 -0.0617691 -0.0957629 -0.136404 -0.183071 -0.235018 -0.291388 -0.351228 -0.413511 -0.477113 -0.540948 -0.603961 -0.665001 -0.72301 -0.776989 -0.826027 -0.869312 -0.906154 -0.93599 -0.958396 -0.973562 -0.979936 -0.978916 -0.970922 -0.954521 -0.931465 -0.901736 -0.86587 -0.82448 -0.77824 -0.727872 -0.674138 -0.617828 -0.559749 -0.50077 -0.441652 -0.383186 -0.326233 -0.271598 -0.220064 -0.172385 -0.129283 -0.0914302 -0.0594473 -0.0338857 -0.01521 -0.00383742 -4.18872e-26 0 -0.00375911 -0.0150633 -0.0338412 -0.0598956 -0.0928916 -0.132359 -0.177696 -0.228178 -0.282969 -0.341139 -0.40168 -0.463491 -0.525506 -0.586686 -0.645907 -0.702132 -0.754389 -0.80179 -0.843554 -0.879015 -0.907638 -0.929024 -0.943369 -0.94919 -0.947849 -0.939484 -0.923008 -0.900134 -0.870866 -0.835741 -0.795364 -0.750396 -0.701539 -0.649526 -0.595114 -0.539073 -0.482227 -0.425296 -0.369027 -0.314233 -0.261676 -0.212096 -0.166212 -0.124713 -0.0882461 -0.0574106 -0.0327454 -0.0147082 -0.00371319 -4.05385e-26 0 -0.00357921 -0.0143528 -0.0322682 -0.0571503 -0.0886894 -0.126443 -0.169838 -0.218182 -0.270667 -0.326396 -0.384391 -0.443584 -0.50294 -0.561445 -0.618011 -0.671635 -0.721375 -0.76638 -0.805902 -0.839309 -0.866102 -0.885914 -0.898948 -0.903821 -0.901851 -0.893185 -0.876837 -0.854452 -0.826059 -0.792189 -0.753432 -0.710425 -0.663839 -0.614367 -0.562721 -0.50962 -0.455827 -0.402008 -0.348856 -0.29712 -0.247502 -0.200689 -0.157351 -0.118132 -0.0836435 -0.0544546 -0.0310827 -0.013973 -0.00353025 -3.85484e-26 0 -0.00334311 -0.0134179 -0.0301926 -0.0535181 -0.0831157 -0.118578 -0.159371 -0.20484 -0.254224 -0.306667 -0.361236 -0.416912 -0.472703 -0.527636 -0.580676 -0.630862 -0.677304 -0.719194 -0.755831 -0.786629 -0.81113 -0.829009 -0.84047 -0.844266 -0.841637 -0.832745 -0.816728 -0.79513 -0.768012 -0.735893 -0.699338 -0.658951 -0.61536 -0.56921 -0.521155 -0.471848 -0.421982 -0.372154 -0.322991 -0.275161 -0.229298 -0.186022 -0.145941 -0.109644 -0.0776948 -0.0506256 -0.0289238 -0.0130157 -0.00329144 -3.59486e-26 0 -0.00305453 -0.0122732 -0.0276471 -0.0490564 -0.0762587 -0.108888 -0.146458 -0.188365 -0.233899 -0.282262 -0.332578 -0.383893 -0.43527 -0.485791 -0.534485 -0.580453 -0.622863 -0.660968 -0.694123 -0.721796 -0.74358 -0.759197 -0.768848 -0.771452 -0.768147 -0.759103 -0.743616 -0.723094 -0.697634 -0.667733 -0.633926 -0.596776 -0.55686 -0.514762 -0.471066 -0.426351 -0.381221 -0.336202 -0.291835 -0.248702 -0.207351 -0.168326 -0.132161 -0.0993806 -0.0704934 -0.0459836 -0.0263025 -0.0118513 -0.0030005 -3.27807e-26 0 -0.00271802 -0.010937 -0.024672 -0.0438356 -0.0682265 -0.097527 -0.131304 -0.169014 -0.210013 -0.253566 -0.298871 -0.345048 -0.391231 -0.436567 -0.480165 -0.521199 -0.558909 -0.592617 -0.621745 -0.645825 -0.664509 -0.677569 -0.6852 -0.686517 -0.682528 -0.673412 -0.658646 -0.63947 -0.616023 -0.588774 -0.558221 -0.524876 -0.489256 -0.451874 -0.413237 -0.373839 -0.334185 -0.294715 -0.255879 -0.218157 -0.182005 -0.147878 -0.116227 -0.0875041 -0.0621523 -0.0406016 -0.0232599 -0.010498 -0.00266197 -2.90949e-26 0 -0.00233887 -0.00943014 -0.0213142 -0.0379383 -0.0591461 -0.0846734 -0.114148 -0.147095 -0.182941 -0.221033 -0.260645 -0.300988 -0.341277 -0.380738 -0.418569 -0.454031 -0.486444 -0.515213 -0.539833 -0.55991 -0.575157 -0.585406 -0.590839 -0.590793 -0.586122 -0.577015 -0.563148 -0.545569 -0.524458 -0.500254 -0.473408 -0.444376 -0.413606 -0.381534 -0.348578 -0.315137 -0.281611 -0.248346 -0.215688 -0.184008 -0.153659 -0.124999 -0.0983902 -0.0742011 -0.0528027 -0.034564 -0.0198437 -0.00897677 -0.00228113 -2.49501e-26 0 -0.00192305 -0.00777654 -0.0176266 -0.0314575 -0.0491607 -0.0705302 -0.0952611 -0.122952 -0.153113 -0.185174 -0.218503 -0.252408 -0.286197 -0.319184 -0.350669 -0.380007 -0.406612 -0.429975 -0.449678 -0.465401 -0.476931 -0.484158 -0.487253 -0.485783 -0.480443 -0.471431 -0.458623 -0.442865 -0.424378 -0.403563 -0.38082 -0.356541 -0.331099 -0.304845 -0.278102 -0.251169 -0.224327 -0.197824 -0.171893 -0.14679 -0.122759 -0.10005 -0.0789313 -0.0596808 -0.0425917 -0.0279658 -0.0161074 -0.00731145 -0.00186396 -2.04119e-26 0 -0.00147713 -0.00600227 -0.0136676 -0.0244954 -0.0384279 -0.0553208 -0.0749407 -0.0969669 -0.120997 -0.146555 -0.17311 -0.200073 -0.226859 -0.252874 -0.277533 -0.300294 -0.320669 -0.338248 -0.3527 -0.36379 -0.371379 -0.375421 -0.376077 -0.373144 -0.367158 -0.358326 -0.346716 -0.332975 -0.317358 -0.300223 -0.281913 -0.262753 -0.243034 -0.223016 -0.202921 -0.18294 -0.163235 -0.143945 -0.125187 -0.107093 -0.0897911 -0.073425 -0.0581568 -0.044172 -0.0316799 -0.0209108 -0.0121099 -0.00552808 -0.00141699 -1.55524e-26 0 -0.00100811 -0.00413533 -0.00949947 -0.017162 -0.0271172 -0.0392851 -0.0535078 -0.0695494 -0.0871005 -0.105787 -0.125181 -0.14481 -0.164197 -0.182856 -0.200318 -0.21615 -0.229975 -0.24148 -0.250433 -0.256684 -0.26017 -0.260914 -0.259074 -0.254654 -0.248054 -0.239492 -0.229195 -0.217634 -0.205087 -0.191863 -0.178248 -0.164491 -0.1508 -0.137337 -0.12422 -0.111528 -0.0992997 -0.087561 -0.0763048 -0.0655403 -0.0552766 -0.0455426 -0.0363941 -0.027919 -0.0202393 -0.0135099 -0.00791403 -0.00365462 -0.000947228 -1.04485e-26 0 -0.000523398 -0.00220515 -0.00518811 -0.00957291 -0.015407 -0.0226763 -0.0313005 -0.0411322 -0.0519592 -0.0635118 -0.0754746 -0.0874903 -0.0992024 -0.110235 -0.120242 -0.128907 -0.135963 -0.141204 -0.144495 -0.145777 -0.145065 -0.142449 -0.138104 -0.132191 -0.125019 -0.116816 -0.107918 -0.098665 -0.0893373 -0.0801955 -0.0714612 -0.063307 -0.0558521 -0.0491601 -0.043241 -0.0380595 -0.0335301 -0.0295614 -0.0260197 -0.0227899 -0.0197599 -0.0168432 -0.0139866 -0.0111781 -0.00845011 -0.00587984 -0.00358572 -0.00172046 -0.000462063 -5.18106e-27 0 -3.06373e-05 -0.000242295 -0.00080195 -0.00184924 -0.00348484 -0.00576141 -0.00867761 -0.0121758 -0.0161434 -0.0204184 -0.0247989 -0.0290494 -0.032933 -0.0361923 -0.0386095 -0.039982 -0.0401584 -0.0390412 -0.0365955 -0.0328521 -0.0279072 -0.0219184 -0.0150984 -0.00769598 -4.72855e-12 0.00769598 0.0150983 0.0219183 0.0279072 0.032852 0.0365955 0.0390412 0.0401584 0.039982 0.0386095 0.0361923 0.032933 0.0290494 0.0247989 0.0204184 0.0161434 0.0121758 0.00867761 0.00576141 0.00348484 0.00184924 0.00080195 0.000242295 3.06373e-05 1.66819e-28 0 0.000462063 0.00172046 0.00358572 0.00587984 0.00845011 0.0111781 0.0139866 0.0168432 0.0197599 0.0227899 0.0260197 0.0295614 0.0335301 0.0380595 0.043241 0.0491601 0.0558521 0.063307 0.0714612 0.0801955 0.0893372 0.098665 0.107918 0.116816 0.125019 0.132191 0.138104 0.142449 0.145065 0.145776 0.144495 0.141204 0.135963 0.128907 0.120242 0.110235 0.0992024 0.0874903 0.0754746 0.0635118 0.0519592 0.0411322 0.0313005 0.0226763 0.015407 0.00957291 0.00518811 0.00220515 0.000523398 5.51078e-27 0 0.000947228 0.00365462 0.00791403 0.0135099 0.0202393 0.027919 0.0363941 0.0455426 0.0552766 0.0655403 0.0763048 0.087561 0.0992997 0.111528 0.12422 0.137337 0.1508 0.164491 0.178248 0.191863 0.205087 0.217634 0.229195 0.239492 0.248054 0.254654 0.259074 0.260913 0.260169 0.256683 0.250433 0.24148 0.229975 0.21615 0.200318 0.182856 0.164197 0.14481 0.125181 0.105787 0.0871005 0.0695494 0.0535078 0.0392851 0.0271172 0.017162 0.00949947 0.00413533 0.00100811 1.07667e-26 0 0.00141699 0.00552808 0.0121099 0.0209108 0.0316799 0.044172 0.0581568 0.073425 0.0897911 0.107093 0.125187 0.143945 0.163235 0.18294 0.202921 0.223016 0.243034 0.262753 0.281913 0.300223 0.317358 0.332975 0.346716 0.358326 0.367158 0.373144 0.376076 0.37542 0.371378 0.36379 0.3527 0.338247 0.320669 0.300294 0.277534 0.252874 0.226859 0.200073 0.17311 0.146555 0.120997 0.0969669 0.0749407 0.0553208 0.0384279 0.0244954 0.0136676 0.00600227 0.00147713 1.58518e-26 0 0.00186396 0.00731145 0.0161074 0.0279658 0.0425917 0.0596808 0.0789313 0.10005 0.122759 0.14679 0.171893 0.197824 0.224327 0.251169 0.278102 0.304845 0.331099 0.356541 0.38082 0.403563 0.424378 0.442865 0.458623 0.471431 0.480443 0.485783 0.487252 0.484157 0.476929 0.4654 0.449677 0.429974 0.406612 0.380007 0.350669 0.319184 0.286198 0.252408 0.218503 0.185174 0.153113 0.122952 0.0952611 0.0705302 0.0491607 0.0314575 0.0176266 0.00777654 0.00192305 2.06863e-26 0 0.00228113 0.00897677 0.0198437 0.034564 0.0528027 0.0742011 0.0983902 0.124999 0.153659 0.184008 0.215688 0.248346 0.281611 0.315137 0.348578 0.381534 0.413606 0.444376 0.473408 0.500254 0.524458 0.545569 0.563148 0.577015 0.586122 0.590793 0.590839 0.585406 0.575156 0.559909 0.539833 0.515212 0.486445 0.454032 0.41857 0.380739 0.341278 0.300988 0.260645 0.221033 0.182941 0.147095 0.114148 0.0846734 0.0591461 0.0379383 0.0213142 0.00943014 0.00233887 2.51945e-26 0 0.00266197 0.010498 0.0232599 0.0406016 0.0621523 0.0875041 0.116227 0.147878 0.182005 0.218157 0.255879 0.294715 0.334185 0.373839 0.413237 0.451874 0.489256 0.524876 0.558221 0.588774 0.616023 0.63947 0.658646 0.673412 0.682528 0.686517 0.6852 0.677569 0.664509 0.645825 0.621745 0.592617 0.558909 0.5212 0.480166 0.436568 0.391231 0.345048 0.298871 0.253566 0.210013 0.169014 0.131304 0.097527 0.0682265 0.0438356 0.024672 0.010937 0.00271802 2.93055e-26 0 0.0030005 0.0118513 0.0263025 0.0459836 0.0704934 0.0993806 0.132161 0.168326 0.207351 0.248702 0.291835 0.336202 0.381221 0.426351 0.471066 0.514762 0.55686 0.596776 0.633926 0.667733 0.697634 0.723094 0.743616 0.759103 0.768147 0.771452 0.768848 0.759197 0.74358 0.721796 0.694123 0.660968 0.622864 0.580454 0.534486 0.485792 0.43527 0.383893 0.332578 0.282262 0.233899 0.188365 0.146458 0.108888 0.0762587 0.0490564 0.0276471 0.0122732 0.00305453 3.29552e-26 0 0.00329144 0.0130157 0.0289238 0.0506256 0.0776948 0.109644 0.145941 0.186022 0.229298 0.275161 0.322991 0.372154 0.421982 0.471848 0.521155 0.56921 0.61536 0.658951 0.699338 0.735893 0.768012 0.795129 0.816727 0.832745 0.841637 0.844266 0.84047 0.829009 0.81113 0.786629 0.755831 0.719194 0.677304 0.630863 0.580676 0.527637 0.472703 0.416912 0.361236 0.306667 0.254224 0.20484 0.159371 0.118578 0.0831157 0.0535181 0.0301926 0.0134179 0.00334311 3.60864e-26 0 0.00353025 0.013973 0.0310827 0.0544546 0.0836435 0.118132 0.157351 0.200689 0.247502 0.29712 0.348856 0.402008 0.455827 0.50962 0.562721 0.614367 0.663839 0.710425 0.753432 0.792189 0.826059 0.854451 0.876837 0.893185 0.901851 0.903821 0.898948 0.885914 0.866102 0.839309 0.805902 0.76638 0.721375 0.671635 0.618012 0.561445 0.50294 0.443584 0.384391 0.326396 0.270667 0.218182 0.169838 0.126443 0.0886894 0.0571503 0.0322682 0.0143528 0.00357921 3.86503e-26 0 0.00371319 0.0147082 0.0327454 0.0574106 0.0882461 0.124713 0.166212 0.212096 0.261676 0.314233 0.369027 0.425296 0.482227 0.539073 0.595114 0.649526 0.701539 0.750396 0.795364 0.835741 0.870865 0.900133 0.923008 0.939484 0.947849 0.94919 0.943369 0.929024 0.907638 0.879015 0.843554 0.80179 0.754389 0.702132 0.645907 0.586686 0.525506 0.463491 0.40168 0.341139 0.282969 0.228178 0.177696 0.132359 0.0928916 0.0598956 0.0338412 0.0150633 0.00375911 4.06067e-26 0 0.00383742 0.01521 0.0338857 0.0594473 0.0914302 0.129283 0.172385 0.220064 0.271598 0.326233 0.383186 0.441652 0.50077 0.559749 0.617828 0.674138 0.727872 0.77824 0.82448 0.86587 0.901735 0.931465 0.954521 0.970922 0.978916 0.979936 0.973562 0.958396 0.93599 0.906154 0.869312 0.826027 0.776989 0.72301 0.665001 0.603961 0.540949 0.477113 0.413511 0.351228 0.291388 0.235018 0.183071 0.136404 0.0957629 0.0617691 0.0349128 0.0155462 0.00388104 4.1925e-26 0 0.00390192 0.0154776 0.0345083 0.0605821 0.0932359 0.131912 0.175982 0.224752 0.277482 0.333389 0.39166 0.451459 0.511886 0.57212 0.631367 0.688725 0.743357 0.794451 0.841225 0.882943 0.918925 0.94856 0.971318 0.98724 0.994572 0.994508 0.987004 0.970682 0.947143 0.916216 0.878347 0.834109 0.784199 0.729429 0.670707 0.609025 0.545434 0.48107 0.416987 0.354253 0.293987 0.237211 0.184873 0.13783 0.0968321 0.0625087 0.0353622 0.0157616 0.00393889 4.25848e-26 0 0.00390201 0.0154789 0.0345144 0.0606002 0.0932769 0.131991 0.176113 0.224953 0.277767 0.333767 0.392135 0.452025 0.512529 0.57282 0.632095 0.689449 0.744044 0.79507 0.841751 0.883359 0.919225 0.94875 0.971415 0.987271 0.994571 0.994499 0.986965 0.970591 0.946987 0.915987 0.878045 0.833741 0.78378 0.728977 0.670246 0.608575 0.545016 0.480701 0.416675 0.354003 0.293798 0.237078 0.184786 0.137779 0.0968054 0.062497 0.0353582 0.0157607 0.00393883 4.25756e-26 0 0.00384389 0.015261 0.0340541 0.0598344 0.0921579 0.130482 0.174188 0.222588 0.27494 0.330455 0.38831 0.447653 0.507572 0.567231 0.625818 0.682427 0.736215 0.786372 0.832124 0.872755 0.907605 0.93609 0.957717 0.972558 0.978916 0.97818 0.970134 0.95345 0.929728 0.898823 0.861188 0.817402 0.768156 0.714249 0.656566 0.596071 0.533781 0.470789 0.408112 0.346776 0.28786 0.23235 0.181163 0.135132 0.0949899 0.0613568 0.034733 0.0154916 0.00387411 4.18975e-26 0 0.0037226 0.0147826 0.0329921 0.0579801 0.0893198 0.126489 0.168888 0.215852 0.266657 0.320535 0.376683 0.434268 0.492398 0.550256 0.607047 0.661888 0.71396 0.762476 0.806691 0.845912 0.879507 0.906919 0.927681 0.941867 0.947848 0.946762 0.93861 0.922125 0.898863 0.868697 0.832074 0.789557 0.741819 0.68