<?xml version="1.0"?>
<VTKFile type="PolyData">
	<PolyData>
		<Piece NumberOfPoints="1206" NumberOfPolys="1000">
			<Points>
				<DataArray type="Float32" NumberOfComponents="3" format="ascii">
 0 0 0 0.02 0 0 0.04 0 0 0.06 0 0 0.08 0 0 0.1 0 0 0 0.005 0 0.02 0.005 0 0.04 0.005 0 0.06 0.005 0 0.08 0.005 0 0.1 0.005 0 0 0.01 0 0.02 0.01 0 0.04 0.01 0 0.06 0.01 0 0.08 0.01 0 0.1 0.01 0 0 0.015 0 0.02 0.015 0 0.04 0.015 0 0.06 0.015 0 0.08 0.015 0 0.1 0.015 0 0 0.02 0 0.02 0.02 0 0.04 0.02 0 0.06 0.02 0 0.08 0.02 0 0.1 0.02 0 0 0.025 0 0.02 0.025 0 0.04 0.025 0 0.06 0.025 0 0.08 0.025 0 0.1 0.025 0 0 0.03 0 0.02 0.03 0 0.04 0.03 0 0.06 0.03 0 0.08 0.03 0 0.1 0.03 0 0 0.035 0 0.02 0.035 0 0.04 0.035 0 0.06 0.035 0 0.08 0.035 0 0.1 0.035 0 0 0.04 0 0.02 0.04 0 0.04 0.04 0 0.06 0.04 0 0.08 0.04 0 0.1 0.04 0 0 0.045 0 0.02 0.045 0 0.04 0.045 0 0.06 0.045 0 0.08 0.045 0 0.1 0.045 0 0 0.05 0 0.02 0.05 0 0.04 0.05 0 0.06 0.05 0 0.08 0.05 0 0.1 0.05 0 0 0.055 0 0.02 0.055 0 0.04 0.055 0 0.06 0.055 0 0.08 0.055 0 0.1 0.055 0 0 0.06 0 0.02 0.06 0 0.04 0.06 0 0.06 0.06 0 0.08 0.06 0 0.1 0.06 0 0 0.065 0 0.02 0.065 0 0.04 0.065 0 0.06 0.065 0 0.08 0.065 0 0.1 0.065 0 0 0.07 0 0.02 0.07 0 0.04 0.07 0 0.06 0.07 0 0.08 0.07 0 0.1 0.07 0 0 0.075 0 0.02 0.075 0 0.04 0.075 0 0.06 0.075 0 0.08 0.075 0 0.1 0.075 0 0 0.08 0 0.02 0.08 0 0.04 0.08 0 0.06 0.08 0 0.08 0.08 0 0.1 0.08 0 0 0.085 0 0.02 0.085 0 0.04 0.085 0 0.06 0.085 0 0.08 0.085 0 0.1 0.085 0 0 0.09 0 0.02 0.09 0 0.04 0.09 0 0.06 0.09 0 0.08 0.09 0 0.1 0.09 0 0 0.095 0 0.02 0.095 0 0.04 0.095 0 0.06 0.095 0 0.08 0.095 0 0.1 0.095 0 0 0.1 0 0.02 0.1 0 0.04 0.1 0 0.06 0.1 0 0.08 0.1 0 0.1 0.1 0 0 0.105 0 0.02 0.105 0 0.04 0.105 0 0.06 0.105 0 0.08 0.105 0 0.1 0.105 0 0 0.11 0 0.02 0.11 0 0.04 0.11 0 0.06 0.11 0 0.08 0.11 0 0.1 0.11 0 0 0.115 0 0.02 0.115 0 0.04 0.115 0 0.06 0.115 0 0.08 0.115 0 0.1 0.115 0 0 0.12 0 0.02 0.12 0 0.04 0.12 0 0.06 0.12 0 0.08 0.12 0 0.1 0.12 0 0 0.125 0 0.02 0.125 0 0.04 0.125 0 0.06 0.125 0 0.08 0.125 0 0.1 0.125 0 0 0.13 0 0.02 0.13 0 0.04 0.13 0 0.06 0.13 0 0.08 0.13 0 0.1 0.13 0 0 0.135 0 0.02 0.135 0 0.04 0.135 0 0.06 0.135 0 0.08 0.135 0 0.1 0.135 0 0 0.14 0 0.02 0.14 0 0.04 0.14 0 0.06 0.14 0 0.08 0.14 0 0.1 0.14 0 0 0.145 0 0.02 0.145 0 0.04 0.145 0 0.06 0.145 0 0.08 0.145 0 0.1 0.145 0 0 0.15 0 0.02 0.15 0 0.04 0.15 0 0.06 0.15 0 0.08 0.15 0 0.1 0.15 0 0 0.155 0 0.02 0.155 0 0.04 0.155 0 0.06 0.155 0 0.08 0.155 0 0.1 0.155 0 0 0.16 0 0.02 0.16 0 0.04 0.16 0 0.06 0.16 0 0.08 0.16 0 0.1 0.16 0 0 0.165 0 0.02 0.165 0 0.04 0.165 0 0.06 0.165 0 0.08 0.165 0 0.1 0.165 0 0 0.17 0 0.02 0.17 0 0.04 0.17 0 0.06 0.17 0 0.08 0.17 0 0.1 0.17 0 0 0.175 0 0.02 0.175 0 0.04 0.175 0 0.06 0.175 0 0.08 0.175 0 0.1 0.175 0 0 0.18 0 0.02 0.18 0 0.04 0.18 0 0.06 0.18 0 0.08 0.18 0 0.1 0.18 0 0 0.185 0 0.02 0.185 0 0.04 0.185 0 0.06 0.185 0 0.08 0.185 0 0.1 0.185 0 0 0.19 0 0.02 0.19 0 0.04 0.19 0 0.06 0.19 0 0.08 0.19 0 0.1 0.19 0 0 0.195 0 0.02 0.195 0 0.04 0.195 0 0.06 0.195 0 0.08 0.195 0 0.1 0.195 0 0 0.2 0 0.02 0.2 0 0.04 0.2 0 0.06 0.2 0 0.08 0.2 0 0.1 0.2 0 0 0.205 0 0.02 0.205 0 0.04 0.205 0 0.06 0.205 0 0.08 0.205 0 0.1 0.205 0 0 0.21 0 0.02 0.21 0 0.04 0.21 0 0.06 0.21 0 0.08 0.21 0 0.1 0.21 0 0 0.215 0 0.02 0.215 0 0.04 0.215 0 0.06 0.215 0 0.08 0.215 0 0.1 0.215 0 0 0.22 0 0.02 0.22 0 0.04 0.22 0 0.06 0.22 0 0.08 0.22 0 0.1 0.22 0 0 0.225 0 0.02 0.225 0 0.04 0.225 0 0.06 0.225 0 0.08 0.225 0 0.1 0.225 0 0 0.23 0 0.02 0.23 0 0.04 0.23 0 0.06 0.23 0 0.08 0.23 0 0.1 0.23 0 0 0.235 0 0.02 0.235 0 0.04 0.235 0 0.06 0.235 0 0.08 0.235 0 0.1 0.235 0 0 0.24 0 0.02 0.24 0 0.04 0.24 0 0.06 0.24 0 0.08 0.24 0 0.1 0.24 0 0 0.245 0 0.02 0.245 0 0.04 0.245 0 0.06 0.245 0 0.08 0.245 0 0.1 0.245 0 0 0.25 0 0.02 0.25 0 0.04 0.25 0 0.06 0.25 0 0.08 0.25 0 0.1 0.25 0 0 0.255 0 0.02 0.255 0 0.04 0.255 0 0.06 0.255 0 0.08 0.255 0 0.1 0.255 0 0 0.26 0 0.02 0.26 0 0.04 0.26 0 0.06 0.26 0 0.08 0.26 0 0.1 0.26 0 0 0.265 0 0.02 0.265 0 0.04 0.265 0 0.06 0.265 0 0.08 0.265 0 0.1 0.265 0 0 0.27 0 0.02 0.27 0 0.04 0.27 0 0.06 0.27 0 0.08 0.27 0 0.1 0.27 0 0 0.275 0 0.02 0.275 0 0.04 0.275 0 0.06 0.275 0 0.08 0.275 0 0.1 0.275 0 0 0.28 0 0.02 0.28 0 0.04 0.28 0 0.06 0.28 0 0.08 0.28 0 0.1 0.28 0 0 0.285 0 0.02 0.285 0 0.04 0.285 0 0.06 0.285 0 0.08 0.285 0 0.1 0.285 0 0 0.29 0 0.02 0.29 0 0.04 0.29 0 0.06 0.29 0 0.08 0.29 0 0.1 0.29 0 0 0.295 0 0.02 0.295 0 0.04 0.295 0 0.06 0.295 0 0.08 0.295 0 0.1 0.295 0 0 0.3 0 0.02 0.3 0 0.04 0.3 0 0.06 0.3 0 0.08 0.3 0 0.1 0.3 0 0 0.305 0 0.02 0.305 0 0.04 0.305 0 0.06 0.305 0 0.08 0.305 0 0.1 0.305 0 0 0.31 0 0.02 0.31 0 0.04 0.31 0 0.06 0.31 0 0.08 0.31 0 0.1 0.31 0 0 0.315 0 0.02 0.315 0 0.04 0.315 0 0.06 0.315 0 0.08 0.315 0 0.1 0.315 0 0 0.32 0 0.02 0.32 0 0.04 0.32 0 0.06 0.32 0 0.08 0.32 0 0.1 0.32 0 0 0.325 0 0.02 0.325 0 0.04 0.325 0 0.06 0.325 0 0.08 0.325 0 0.1 0.325 0 0 0.33 0 0.02 0.33 0 0.04 0.33 0 0.06 0.33 0 0.08 0.33 0 0.1 0.33 0 0 0.335 0 0.02 0.335 0 0.04 0.335 0 0.06 0.335 0 0.08 0.335 0 0.1 0.335 0 0 0.34 0 0.02 0.34 0 0.04 0.34 0 0.06 0.34 0 0.08 0.34 0 0.1 0.34 0 0 0.345 0 0.02 0.345 0 0.04 0.345 0 0.06 0.345 0 0.08 0.345 0 0.1 0.345 0 0 0.35 0 0.02 0.35 0 0.04 0.35 0 0.06 0.35 0 0.08 0.35 0 0.1 0.35 0 0 0.355 0 0.02 0.355 0 0.04 0.355 0 0.06 0.355 0 0.08 0.355 0 0.1 0.355 0 0 0.36 0 0.02 0.36 0 0.04 0.36 0 0.06 0.36 0 0.08 0.36 0 0.1 0.36 0 0 0.365 0 0.02 0.365 0 0.04 0.365 0 0.06 0.365 0 0.08 0.365 0 0.1 0.365 0 0 0.37 0 0.02 0.37 0 0.04 0.37 0 0.06 0.37 0 0.08 0.37 0 0.1 0.37 0 0 0.375 0 0.02 0.375 0 0.04 0.375 0 0.06 0.375 0 0.08 0.375 0 0.1 0.375 0 0 0.38 0 0.02 0.38 0 0.04 0.38 0 0.06 0.38 0 0.08 0.38 0 0.1 0.38 0 0 0.385 0 0.02 0.385 0 0.04 0.385 0 0.06 0.385 0 0.08 0.385 0 0.1 0.385 0 0 0.39 0 0.02 0.39 0 0.04 0.39 0 0.06 0.39 0 0.08 0.39 0 0.1 0.39 0 0 0.395 0 0.02 0.395 0 0.04 0.395 0 0.06 0.395 0 0.08 0.395 0 0.1 0.395 0 0 0.4 0 0.02 0.4 0 0.04 0.4 0 0.06 0.4 0 0.08 0.4 0 0.1 0.4 0 0 0.405 0 0.02 0.405 0 0.04 0.405 0 0.06 0.405 0 0.08 0.405 0 0.1 0.405 0 0 0.41 0 0.02 0.41 0 0.04 0.41 0 0.06 0.41 0 0.08 0.41 0 0.1 0.41 0 0 0.415 0 0.02 0.415 0 0.04 0.415 0 0.06 0.415 0 0.08 0.415 0 0.1 0.415 0 0 0.42 0 0.02 0.42 0 0.04 0.42 0 0.06 0.42 0 0.08 0.42 0 0.1 0.42 0 0 0.425 0 0.02 0.425 0 0.04 0.425 0 0.06 0.425 0 0.08 0.425 0 0.1 0.425 0 0 0.43 0 0.02 0.43 0 0.04 0.43 0 0.06 0.43 0 0.08 0.43 0 0.1 0.43 0 0 0.435 0 0.02 0.435 0 0.04 0.435 0 0.06 0.435 0 0.08 0.435 0 0.1 0.435 0 0 0.44 0 0.02 0.44 0 0.04 0.44 0 0.06 0.44 0 0.08 0.44 0 0.1 0.44 0 0 0.445 0 0.02 0.445 0 0.04 0.445 0 0.06 0.445 0 0.08 0.445 0 0.1 0.445 0 0 0.45 0 0.02 0.45 0 0.04 0.45 0 0.06 0.45 0 0.08 0.45 0 0.1 0.45 0 0 0.455 0 0.02 0.455 0 0.04 0.455 0 0.06 0.455 0 0.08 0.455 0 0.1 0.455 0 0 0.46 0 0.02 0.46 0 0.04 0.46 0 0.06 0.46 0 0.08 0.46 0 0.1 0.46 0 0 0.465 0 0.02 0.465 0 0.04 0.465 0 0.06 0.465 0 0.08 0.465 0 0.1 0.465 0 0 0.47 0 0.02 0.47 0 0.04 0.47 0 0.06 0.47 0 0.08 0.47 0 0.1 0.47 0 0 0.475 0 0.02 0.475 0 0.04 0.475 0 0.06 0.475 0 0.08 0.475 0 0.1 0.475 0 0 0.48 0 0.02 0.48 0 0.04 0.48 0 0.06 0.48 0 0.08 0.48 0 0.1 0.48 0 0 0.485 0 0.02 0.485 0 0.04 0.485 0 0.06 0.485 0 0.08 0.485 0 0.1 0.485 0 0 0.49 0 0.02 0.49 0 0.04 0.49 0 0.06 0.49 0 0.08 0.49 0 0.1 0.49 0 0 0.495 0 0.02 0.495 0 0.04 0.495 0 0.06 0.495 0 0.08 0.495 0 0.1 0.495 0 0 0.5 0 0.02 0.5 0 0.04 0.5 0 0.06 0.5 0 0.08 0.5 0 0.1 0.5 0 0 0.505 0 0.02 0.505 0 0.04 0.505 0 0.06 0.505 0 0.08 0.505 0 0.1 0.505 0 0 0.51 0 0.02 0.51 0 0.04 0.51 0 0.06 0.51 0 0.08 0.51 0 0.1 0.51 0 0 0.515 0 0.02 0.515 0 0.04 0.515 0 0.06 0.515 0 0.08 0.515 0 0.1 0.515 0 0 0.52 0 0.02 0.52 0 0.04 0.52 0 0.06 0.52 0 0.08 0.52 0 0.1 0.52 0 0 0.525 0 0.02 0.525 0 0.04 0.525 0 0.06 0.525 0 0.08 0.525 0 0.1 0.525 0 0 0.53 0 0.02 0.53 0 0.04 0.53 0 0.06 0.53 0 0.08 0.53 0 0.1 0.53 0 0 0.535 0 0.02 0.535 0 0.04 0.535 0 0.06 0.535 0 0.08 0.535 0 0.1 0.535 0 0 0.54 0 0.02 0.54 0 0.04 0.54 0 0.06 0.54 0 0.08 0.54 0 0.1 0.54 0 0 0.545 0 0.02 0.545 0 0.04 0.545 0 0.06 0.545 0 0.08 0.545 0 0.1 0.545 0 0 0.55 0 0.02 0.55 0 0.04 0.55 0 0.06 0.55 0 0.08 0.55 0 0.1 0.55 0 0 0.555 0 0.02 0.555 0 0.04 0.555 0 0.06 0.555 0 0.08 0.555 0 0.1 0.555 0 0 0.56 0 0.02 0.56 0 0.04 0.56 0 0.06 0.56 0 0.08 0.56 0 0.1 0.56 0 0 0.565 0 0.02 0.565 0 0.04 0.565 0 0.06 0.565 0 0.08 0.565 0 0.1 0.565 0 0 0.57 0 0.02 0.57 0 0.04 0.57 0 0.06 0.57 0 0.08 0.57 0 0.1 0.57 0 0 0.575 0 0.02 0.575 0 0.04 0.575 0 0.06 0.575 0 0.08 0.575 0 0.1 0.575 0 0 0.58 0 0.02 0.58 0 0.04 0.58 0 0.06 0.58 0 0.08 0.58 0 0.1 0.58 0 0 0.585 0 0.02 0.585 0 0.04 0.585 0 0.06 0.585 0 0.08 0.585 0 0.1 0.585 0 0 0.59 0 0.02 0.59 0 0.04 0.59 0 0.06 0.59 0 0.08 0.59 0 0.1 0.59 0 0 0.595 0 0.02 0.595 0 0.04 0.595 0 0.06 0.595 0 0.08 0.595 0 0.1 0.595 0 0 0.6 0 0.02 0.6 0 0.04 0.6 0 0.06 0.6 0 0.08 0.6 0 0.1 0.6 0 0 0.605 0 0.02 0.605 0 0.04 0.605 0 0.06 0.605 0 0.08 0.605 0 0.1 0.605 0 0 0.61 0 0.02 0.61 0 0.04 0.61 0 0.06 0.61 0 0.08 0.61 0 0.1 0.61 0 0 0.615 0 0.02 0.615 0 0.04 0.615 0 0.06 0.615 0 0.08 0.615 0 0.1 0.615 0 0 0.62 0 0.02 0.62 0 0.04 0.62 0 0.06 0.62 0 0.08 0.62 0 0.1 0.62 0 0 0.625 0 0.02 0.625 0 0.04 0.625 0 0.06 0.625 0 0.08 0.625 0 0.1 0.625 0 0 0.63 0 0.02 0.63 0 0.04 0.63 0 0.06 0.63 0 0.08 0.63 0 0.1 0.63 0 0 0.635 0 0.02 0.635 0 0.04 0.635 0 0.06 0.635 0 0.08 0.635 0 0.1 0.635 0 0 0.64 0 0.02 0.64 0 0.04 0.64 0 0.06 0.64 0 0.08 0.64 0 0.1 0.64 0 0 0.645 0 0.02 0.645 0 0.04 0.645 0 0.06 0.645 0 0.08 0.645 0 0.1 0.645 0 0 0.65 0 0.02 0.65 0 0.04 0.65 0 0.06 0.65 0 0.08 0.65 0 0.1 0.65 0 0 0.655 0 0.02 0.655 0 0.04 0.655 0 0.06 0.655 0 0.08 0.655 0 0.1 0.655 0 0 0.66 0 0.02 0.66 0 0.04 0.66 0 0.06 0.66 0 0.08 0.66 0 0.1 0.66 0 0 0.665 0 0.02 0.665 0 0.04 0.665 0 0.06 0.665 0 0.08 0.665 0 0.1 0.665 0 0 0.67 0 0.02 0.67 0 0.04 0.67 0 0.06 0.67 0 0.08 0.67 0 0.1 0.67 0 0 0.675 0 0.02 0.675 0 0.04 0.675 0 0.06 0.675 0 0.08 0.675 0 0.1 0.675 0 0 0.68 0 0.02 0.68 0 0.04 0.68 0 0.06 0.68 0 0.08 0.68 0 0.1 0.68 0 0 0.685 0 0.02 0.685 0 0.04 0.685 0 0.06 0.685 0 0.08 0.685 0 0.1 0.685 0 0 0.69 0 0.02 0.69 0 0.04 0.69 0 0.06 0.69 0 0.08 0.69 0 0.1 
[...]
			<CellData Scalars="Density">
				<DataArray Name="Density" type="Float32" format="ascii">
 1 1 1 1 1 1 1 1 1 1 1 1 1 1 1 1 1 1 1 1 1 1 1 1 1 1 1 1 1 1 1 1 1 1 1 1 1 1 1 1 1 1 1 1 1 1 1 1 1 1 1 1 1 1 1 1 1 1 1 1 1 1 1 1 1 1 1 1 1 1 1 1 1 1 1 1 1 1 1 1 1 1 1 1 1 1 1 1 1 1 1 1 1 1 1 1 1 1 1 1 1 1 1 1 1 1 1 1 1 1 1 1 1 1 1 1 1 1 1 1 1 1 1 1 1 1 1 1 1 1 1 1 1 1 1 1 1 1 1 1 1 1 1 1 1 1 1 1 1 1 1 1 1 1 1 1 1 1 1 1 1 1 1 1 1 1 1 1 1 1 1 1 1 1 1 0.999999 0.999999 0.999999 0.999999 0.999999 0.999998 0.999998 0.999998 0.999998 0.999998 0.999995 0.999995 0.999995 0.999995 0.999995 0.999987 0.999987 0.999987 0.999987 0.999987 0.999967 0.999967 0.999967 0.999967 0.999967 0.999916 0.999916 0.999916 0.999916 0.999916 0.999791 0.999791 0.999791 0.999791 0.999791 0.999523 0.999523 0.999523 0.999523 0.999523 0.998996 0.998996 0.998996 0.998996 0.998996 0.998057 0.998057 0.998057 0.998057 0.998057 0.996517 0.996517 0.996517 0.996517 0.996517 0.994178 0.994178 0.994178 0.994178 0.994178 0.990863 0.990863 0.990863 0.990863 0.990863 0.98644 0.98644 0.98644 0.98644 0.98644 0.980841 0.980841 0.980841 0.980841 0.980841 0.974064 0.974064 0.974064 0.974064 0.974064 0.966166 0.966166 0.966166 0.966166 0.966166 0.957245 0.957245 0.957245 0.957245 0.957245 0.947426 0.947426 0.947426 0.947426 0.947426 0.936842 0.936842 0.936842 0.936842 0.936842 0.925623 0.925623 0.925623 0.925623 0.925623 0.913892 0.913892 0.913892 0.913892 0.913892 0.901756 0.901756 0.901756 0.901756 0.901756 0.889311 0.889311 0.889311 0.889311 0.889311 0.876637 0.876637 0.876637 0.876637 0.876637 0.863802 0.863802 0.863802 0.863802 0.863802 0.850862 0.850862 0.850862 0.850862 0.850862 0.837867 0.837867 0.837867 0.837867 0.837867 0.824853 0.824853 0.824853 0.824853 0.824853 0.811855 0.811855 0.811855 0.811855 0.811855 0.798899 0.798899 0.798899 0.798899 0.798899 0.786008 0.786008 0.786008 0.786008 0.786008 0.7732 0.7732 0.7732 0.7732 0.7732 0.760492 0.760492 0.760492 0.760492 0.760492 0.747897 0.747897 0.747897 0.747897 0.747897 0.735425 0.735425 0.735425 0.735425 0.735425 0.723088 0.723088 0.723088 0.723088 0.723088 0.710892 0.710892 0.710892 0.710892 0.710892 0.698846 0.698846 0.698846 0.698846 0.698846 0.686955 0.686955 0.686955 0.686955 0.686955 0.675226 0.675226 0.675226 0.675226 0.675226 0.663665 0.663665 0.663665 0.663665 0.663665 0.652275 0.652275 0.652275 0.652275 0.652275 0.641063 0.641063 0.641063 0.641063 0.641063 0.630033 0.630033 0.630033 0.630033 0.630033 0.619189 0.619189 0.619189 0.619189 0.619189 0.608538 0.608538 0.608538 0.608538 0.608538 0.598084 0.598084 0.598084 0.598084 0.598084 0.587832 0.587832 0.587832 0.587832 0.587832 0.57779 0.57779 0.57779 0.57779 0.57779 0.567964 0.567964 0.567964 0.567964 0.567964 0.558361 0.558361 0.558361 0.558361 0.558361 0.548989 0.548989 0.548989 0.548989 0.548989 0.539858 0.539858 0.539858 0.539858 0.539858 0.530978 0.530978 0.530978 0.530978 0.530978 0.52236 0.52236 0.52236 0.52236 0.52236 0.514017 0.514017 0.514017 0.514017 0.514017 0.505961 0.505961 0.505961 0.505961 0.505961 0.498207 0.498207 0.498207 0.498207 0.498207 0.490772 0.490772 0.490772 0.490772 0.490772 0.483671 0.483671 0.483671 0.483671 0.483671 0.476922 0.476922 0.476922 0.476922 0.476922 0.470543 0.470543 0.470543 0.470543 0.470543 0.464551 0.464551 0.464551 0.464551 0.464551 0.458962 0.458962 0.458962 0.458962 0.458962 0.453791 0.453791 0.453791 0.453791 0.453791 0.449049 0.449049 0.449049 0.449049 0.449049 0.444744 0.444744 0.444744 0.444744 0.444744 0.44088 0.44088 0.44088 0.44088 0.44088 0.437454 0.437454 0.437454 0.437454 0.437454 0.434456 0.434456 0.434456 0.434456 0.434456 0.431871 0.431871 0.431871 0.431871 0.431871 0.429675 0.429675 0.429675 0.429675 0.429675 0.427839 0.427839 0.427839 0.427839 0.427839 0.426328 0.426328 0.426328 0.426328 0.426328 0.425103 0.425103 0.425103 0.425103 0.425103 0.424124 0.424124 0.424124 0.424124 0.424124 0.42335 0.42335 0.42335 0.42335 0.42335 0.42274 0.42274 0.42274 0.42274 0.42274 0.422257 0.422257 0.422257 0.422257 0.422257 0.421866 0.421866 0.421866 0.421866 0.421866 0.421535 0.421535 0.421535 0.421535 0.421535 0.421236 0.421236 0.421236 0.421236 0.421236 0.420942 0.420942 0.420942 0.420942 0.420942 0.420629 0.420629 0.420629 0.420629 0.420629 0.420267 0.420267 0.420267 0.420267 0.420267 0.419839 0.419839 0.419839 0.419839 0.419839 0.419316 0.419316 0.419316 0.419316 0.419316 0.418673 0.418673 0.418673 0.418673 0.418673 0.417892 0.417892 0.417892 0.417892 0.417892 0.416959 0.416959 0.416959 0.416959 0.416959 0.415874 0.415874 0.415874 0.415874 0.415874 0.414648 0.414648 0.414648 0.414648 0.414648 0.413314 0.413314 0.413314 0.413314 0.413314 0.411918 0.411918 0.411918 0.411918 0.411918 0.410526 0.410526 0.410526 0.410526 0.410526 0.409212 0.409212 0.409212 0.409212 0.409212 0.408055 0.408055 0.408055 0.408055 0.408055 0.407129 0.407129 0.407129 0.407129 0.407129 0.406495 0.406495 0.406495 0.406495 0.406495 0.379597 0.379597 0.379597 0.379597 0.379597 0.307109 0.307109 0.307109 0.307109 0.307109 0.262901 0.262901 0.262901 0.262901 0.262901 0.26272 0.26272 0.26272 0.26272 0.26272 0.263111 0.263111 0.263111 0.263111 0.263111 0.263569 0.263569 0.263569 0.263569 0.263569 0.264063 0.264063 0.264063 0.264063 0.264063 0.264563 0.264563 0.264563 0.264563 0.264563 0.265045 0.265045 0.265045 0.265045 0.265045 0.265489 0.265489 0.265489 0.265489 0.265489 0.265885 0.265885 0.265885 0.265885 0.265885 0.266226 0.266226 0.266226 0.266226 0.266226 0.266512 0.266512 0.266512 0.266512 0.266512 0.266746 0.266746 0.266746 0.266746 0.266746 0.266933 0.266933 0.266933 0.266933 0.266933 0.267081 0.267081 0.267081 0.267081 0.267081 0.267195 0.267195 0.267195 0.267195 0.267195 0.267282 0.267282 0.267282 0.267282 0.267282 0.267349 0.267349 0.267349 0.267349 0.267349 0.267399 0.267399 0.267399 0.267399 0.267399 0.267435 0.267435 0.267435 0.267435 0.267435 0.267462 0.267462 0.267462 0.267462 0.267462 0.267466 0.267466 0.267466 0.267466 0.267466 0.267465 0.267465 0.267465 0.267465 0.267465 0.267371 0.267371 0.267371 0.267371 0.267371 0.267284 0.267284 0.267284 0.267284 0.267284 0.26681 0.26681 0.26681 0.26681 0.26681 0.266265 0.266265 0.266265 0.266265 0.266265 0.26447 0.26447 0.26447 0.26447 0.26447 0.261781 0.261781 0.261781 0.261781 0.261781 0.255127 0.255127 0.255127 0.255127 0.255127 0.244362 0.244362 0.244362 0.244362 0.244362 0.222961 0.222961 0.222961 0.222961 0.222961 0.193469 0.193469 0.193469 0.193469 0.193469 0.155182 0.155182 0.155182 0.155182 0.155182 0.131313 0.131313 0.131313 0.131313 0.131313 0.12604 0.12604 0.12604 0.12604 0.12604 0.125161 0.125161 0.125161 0.125161 0.125161 0.125025 0.125025 0.125025 0.125025 0.125025 0.125004 0.125004 0.125004 0.125004 0.125004 0.125001 0.125001 0.125001 0.125001 0.125001 0.125 0.125 0.125 0.125 0.125 0.125 0.125 0.125 0.125 0.125 0.125 0.125 0.125 0.125 0.125 0.125 0.125 0.125 0.125 0.125 0.125 0.125 0.125 0.125 0.125 0.125 0.125 0.125 0.125 0.125 0.125 0.125 0.125 0.125 0.125 0.125 0.125 0.125 0.125 0.125 0.125 0.125 0.125 0.125 0.125 0.125 0.125 0.125 0.125 0.125 0.125 0.125 0.125 0.125 0.125 0.125 0.125 0.125 0.125 0.125 0.125 0.125 0.125 0.125 0.125 0.125 0.125 0.125 0.125 0.125 0.125 0.125 0.125 0.125 0.125 0.125 0.125 0.125 0.125 0.125 0.125 0.125 0.125 0.125 0.125 0.125 0.125 0.125 0.125 0.125 0.125 0.125 0.125 0.125 0.125 0.125 0.125 0.125 0.125 0.125 0.125 0.125 0.125 0.125 0.125 0.125 0.125 0.125 0.125 0.125 0.125 0.125 0.125 0.125 0.125 0.125 0.125 0.125 0.125 0.125
				</DataArray>
				<DataArray Name="Energy" type="Float32" format="ascii">
 2.5 2.5 2.5 2.5 2.5 2.5 2.5 2.5 2.5 2.5 2.5 2.5 2.5 2.5 2.5 2.5 2.5 2.5 2.5 2.5 2.5 2.5 2.5 2.5 2.5 2.5 2.5 2.5 2.5 2.5 2.5 2.5 2.5 2.5 2.5 2.5 2.5 2.5 2.5 2.5 2.5 2.5 2.5 2.5 2.5 2.5 2.5 2.5 2.5 2.5 2.5 2.5 2.5 2.5 2.5 2.5 2.5 2.5 2.5 2.5 2.5 2.5 2.5 2.5 2.5 2.5 2.5 2.5 2.5 2.5 2.5 2.5 2.5 2.5 2.5 2.5 2.5 2.5 2.5 2.5 2.5 2.5 2.5 2.5 2.5 2.5 2.5 2.5 2.5 2.5 2.5 2.5 2.5 2.5 2.5 2.5 2.5 2.5 2.5 2.5 2.5 2.5 2.5 2.5 2.5 2.5 2.5 2.5 2.5 2.5 2.5 2.5 2.5 2.5 2.5 2.5 2.5 2.5 2.5 2.5 2.5 2.5 2.5 2.5 2.5 2.5 2.5 2.5 2.5 2.5 2.5 2.5 2.5 2.5 2.5 2.5 2.5 2.5 2.5 2.5 2.5 2.5 2.5 2.5 2.5 2.5 2.5 2.5 2.5 2.5 2.5 2.5 2.5 2.5 2.5 2.5 2.5 2.5 2.5 2.5 2.5 2.5 2.5 2.5 2.5 2.5 2.5 2.5 2.5 2.5 2.5 2.5 2.5 2.5 2.5 2.5 2.5 2.5 2.5 2.5 2.5 2.5 2.5 2.5 2.5 2.5 2.5 2.5 2.5 2.5 2.49999 2.49999 2.49999 2.49999 2.49999 2.49997 2.49997 2.49997 2.49997 2.49997 2.49992 2.49992 2.49992 2.49992 2.49992 2.49979 2.49979 2.49979 2.49979 2.49979 2.49952 2.49952 2.49952 2.49952 2.49952 2.499 2.499 2.499 2.499 2.499 2.49806 2.49806 2.49806 2.49806 2.49806 2.49651 2.49651 2.49651 2.49651 2.49651 2.49417 2.49417 2.49417 2.49417 2.49417 2.49085 2.49085 2.49085 2.49085 2.49085 2.48641 2.48641 2.48641 2.48641 2.48641 2.48077 2.48077 2.48077 2.48077 2.48077 2.47393 2.47393 2.47393 2.47393 2.47393 2.46592 2.46592 2.46592 2.46592 2.46592 2.45684 2.45684 2.45684 2.45684 2.45684 2.44679 2.44679 2.44679 2.44679 2.44679 2.4359 2.4359 2.4359 2.4359 2.4359 2.42428 2.42428 2.42428 2.42428 2.42428 2.41204 2.41204 2.41204 2.41204 2.41204 2.39929 2.39929 2.39929 2.39929 2.39929 2.38612 2.38612 2.38612 2.38612 2.38612 2.3726 2.3726 2.3726 2.3726 2.3726 2.3588 2.3588 2.3588 2.3588 2.3588 2.34476 2.34476 2.34476 2.34476 2.34476 2.33054 2.33054 2.33054 2.33054 2.33054 2.31618 2.31618 2.31618 2.31618 2.31618 2.3017 2.3017 2.3017 2.3017 2.3017 2.28714 2.28714 2.28714 2.28714 2.28714 2.27252 2.27252 2.27252 2.27252 2.27252 2.25786 2.25786 2.25786 2.25786 2.25786 2.24317 2.24317 2.24317 2.24317 2.24317 2.22848 2.22848 2.22848 2.22848 2.22848 2.21379 2.21379 2.21379 2.21379 2.21379 2.19912 2.19912 2.19912 2.19912 2.19912 2.18447 2.18447 2.18447 2.18447 2.18447 2.16987 2.16987 2.16987 2.16987 2.16987 2.15531 2.15531 2.15531 2.15531 2.15531 2.14082 2.14082 2.14082 2.14082 2.14082 2.12638 2.12638 2.12638 2.12638 2.12638 2.11203 2.11203 2.11203 2.11203 2.11203 2.09775 2.09775 2.09775 2.09775 2.09775 2.08357 2.08357 2.08357 2.08357 2.08357 2.0695 2.0695 2.0695 2.0695 2.0695 2.05553 2.05553 2.05553 2.05553 2.05553 2.0417 2.0417 2.0417 2.0417 2.0417 2.02799 2.02799 2.02799 2.02799 2.02799 2.01444 2.01444 2.01444 2.01444 2.01444 2.00105 2.00105 2.00105 2.00105 2.00105 1.98784 1.98784 1.98784 1.98784 1.98784 1.97482 1.97482 1.97482 1.97482 1.97482 1.96202 1.96202 1.96202 1.96202 1.96202 1.94946 1.94946 1.94946 1.94946 1.94946 1.93716 1.93716 1.93716 1.93716 1.93716 1.92514 1.92514 1.92514 1.92514 1.92514 1.91343 1.91343 1.91343 1.91343 1.91343 1.90208 1.90208 1.90208 1.90208 1.90208 1.8911 1.8911 1.8911 1.8911 1.8911 1.88053 1.88053 1.88053 1.88053 1.88053 1.87042 1.87042 1.87042 1.87042 1.87042 1.8608 1.8608 1.8608 1.8608 1.8608 1.85171 1.85171 1.85171 1.85171 1.85171 1.84319 1.84319 1.84319 1.84319 1.84319 1.83528 1.83528 1.83528 1.83528 1.83528 1.82801 1.82801 1.82801 1.82801 1.82801 1.82141 1.82141 1.82141 1.82141 1.82141 1.81549 1.81549 1.81549 1.81549 1.81549 1.81028 1.81028 1.81028 1.81028 1.81028 1.80575 1.80575 1.80575 1.80575 1.80575 1.80191 1.80191 1.80191 1.80191 1.80191 1.79872 1.79872 1.79872 1.79872 1.79872 1.79615 1.79615 1.79615 1.79615 1.79615 1.79414 1.79414 1.79414 1.79414 1.79414 1.79265 1.79265 1.79265 1.79265 1.79265 1.79161 1.79161 1.79161 1.79161 1.79161 1.79097 1.79097 1.79097 1.79097 1.79097 1.79067 1.79067 1.79067 1.79067 1.79067 1.79066 1.79066 1.79066 1.79066 1.79066 1.7909 1.7909 1.7909 1.7909 1.7909 1.79138 1.79138 1.79138 1.79138 1.79138 1.79207 1.79207 1.79207 1.79207 1.79207 1.79298 1.79298 1.79298 1.79298 1.79298 1.79416 1.79416 1.79416 1.79416 1.79416 1.79563 1.79563 1.79563 1.79563 1.79563 1.79747 1.79747 1.79747 1.79747 1.79747 1.79976 1.79976 1.79976 1.79976 1.79976 1.80259 1.80259 1.80259 1.80259 1.80259 1.80603 1.80603 1.80603 1.80603 1.80603 1.81013 1.81013 1.81013 1.81013 1.81013 1.81492 1.81492 1.81492 1.81492 1.81492 1.82033 1.82033 1.82033 1.82033 1.82033 1.82625 1.82625 1.82625 1.82625 1.82625 1.83248 1.83248 1.83248 1.83248 1.83248 1.83872 1.83872 1.83872 1.83872 1.83872 1.84464 1.84464 1.84464 1.84464 1.84464 1.84989 1.84989 1.84989 1.84989 1.84989 1.85411 1.85411 1.85411 1.85411 1.85411 1.857 1.857 1.857 1.857 1.857 1.98858 1.98858 1.98858 1.98858 1.98858 2.45795 2.45795 2.45795 2.45795 2.45795 2.87126 2.87126 2.87126 2.87126 2.87126 2.87322 2.87322 2.87322 2.87322 2.87322 2.86893 2.86893 2.86893 2.86893 2.86893 2.86392 2.86392 2.86392 2.86392 2.86392 2.85853 2.85853 2.85853 2.85853 2.85853 2.8531 2.8531 2.8531 2.8531 2.8531 2.84788 2.84788 2.84788 2.84788 2.84788 2.84307 2.84307 2.84307 2.84307 2.84307 2.83879 2.83879 2.83879 2.83879 2.83879 2.8351 2.8351 2.8351 2.8351 2.8351 2.832 2.832 2.832 2.832 2.832 2.82946 2.82946 2.82946 2.82946 2.82946 2.82742 2.82742 2.82742 2.82742 2.82742 2.8258 2.8258 2.8258 2.8258 2.8258 2.82452 2.82452 2.82452 2.82452 2.82452 2.82354 2.82354 2.82354 2.82354 2.82354 2.82277 2.82277 2.82277 2.82277 2.82277 2.82217 2.82217 2.82217 2.82217 2.82217 2.82169 2.82169 2.82169 2.82169 2.82169 2.82131 2.82131 2.82131 2.82131 2.82131 2.82094 2.82094 2.82094 2.82094 2.82094 2.82062 2.82062 2.82062 2.82062 2.82062 2.81996 2.81996 2.81996 2.81996 2.81996 2.81938 2.81938 2.81938 2.81938 2.81938 2.8172 2.8172 2.8172 2.8172 2.8172 2.81474 2.81474 2.81474 2.81474 2.81474 2.80698 2.80698 2.80698 2.80698 2.80698 2.79527 2.79527 2.79527 2.79527 2.79527 2.76607 2.76607 2.76607 2.76607 2.76607 2.7165 2.7165 2.7165 2.7165 2.7165 2.61209 2.61209 2.61209 2.61209 2.61209 2.44738 2.44738 2.44738 2.44738 2.44738 2.20847 2.20847 2.20847 2.20847 2.20847 2.04227 2.04227 2.04227 2.04227 2.04227 2.00671 2.00671 2.00671 2.00671 2.00671 2.00103 2.00103 2.00103 2.00103 2.00103 2.00016 2.00016 2.00016 2.00016 2.00016 2.00002 2.00002 2.00002 2.00002 2.00002 2 2 2 2 2 2 2 2 2 2 2 2 2 2 2 2 2 2 2 2 2 2 2 2 2 2 2 2 2 2 2 2 2 2 2 2 2 2 2 2 2 2 2 2 2 2 2 2 2 2 2 2 2 2 2 2 2 2 2 2 2 2 2 2 2 2 2 2 2 2 2 2 2 2 2 2 2 2 2 2 2 2 2 2 2 2 2 2 2 2 2 2 2 2 2 2 2 2 2 2 2 2 2 2 2 2 2 2 2 2 2 2 2 2 2 2 2 2 2 2 2 2 2 2 2
				</DataArray>
				<DataArray Name="F1" type="Float32" format="ascii">
 1 1 1 1 1 1 1 1 1 1 1 1 1 1 1 1 1 1 1 1 1 1 1 1 1 1 1 1 1 1 1 1 1 1 1 1 1 1 1 1 1 1 1 1 1 1 1 1 1 1 1 1 1 1 1 1 1 1 1 1 1 1 1 1 1 1 1 1 1 1 1 1 1 1 1 1 1 1 1 1 1 1 1 1 1 1 1 1 1 1 1 1 1 1 1 1 1 1 1 1 1 1 1 1 1 1 1 1 1 1 1 1 1 1 1 1 1 1 1 1 1 1 1 1 1 1 1 1 1 1 1 1 1 1 1 1 1 1 1 1 1 1 1 1 1 1 1 1 1 1 1 1 1 1 1 1 1 1 1 1 1 1 1 1 1 1 1 1 1 1 1 1 1 1 1 1 1 1 1 1 1 1 1 1 1 1 1 1 1 1 1 1 1 1 1 1 1 1 1 1 1 1 1 1 1 1 1 1 1 1 1 1 1 1 1 1 1 1 1 1 1 1 1 1 1 1 1 1 1 1 1 1 1 1 1 1 1 1 1 1 1 1 1 1 1 1 1 1 1 1 1 1 1 1 1 1 1 1 1 1 1 1 1 1 1 1 1 1 1 1 1 1 1 1 1 1 1 1 1 1 1 1 1 1 1 1 1 1 1 1 1 1 1 1 1 1 1 1 1 1 1 1 1 1 1 1 1 1 1 1 1 1 1 1 1 1 1 1 1 1 1 1 1 1 1 1 1 1 1 1 1 1 1 1 1 1 1 1 1 1 1 1 1 1 1 1 1 1 1 1 1 1 1 1 1 1 1 1 1 1 1 1 1 1 1 1 1 1 1 1 1 1 1 1 1 1 1 1 1 1 1 1 1 1 1 1 1 1 1 1 1 1 1 1 1 1 1 1 1 1 1 1 1 1 1 1 1 1 1 1 1 1 1 1 1 1 1 1 1 1 1 1 1 1 1 1 1 1 1 1 1 1 1 1 1 1 1 1 1 1 1 1 1 1 1 1 1 1 1 1 1 1 1 1 1 1 1 1 1 1 1 1 1 1 1 1 1 1 1 1 1 1 1 1 1 1 1 1 1 1 1 1 1 1 1 1 1 1 1 1 1 1 1 1 1 1 1 1 1 1 1 1 1 1 1 1 1 1 1 1 1 1 1 1 1 1 1 1 1 1 1 1 1 1 1 1 1 1 1 1 1 1 1 1 1 1 1 1 1 1 1 1 1 1 1 1 1 1 1 1 1 1 1 1 1 1 1 1 1 1 1 1 1 1 1 1 1 1 1 1 1 1 1 1 1 1 1 1 1 1 1 1 1 1 1 1 1 1 1 1 1 1 1 1 1 1 1 1 1 1 1 1 1 1 1 1 1 1 1 1 1 1 1 1 1 1 1 1 1 1 1 1 1 1 1 1 1 1 1 1 1 1 1 1 1 1 1 1 1 1 1 1 1 1 1 1 1 1 1 1 1 1 1 1 1 1 1 1 1 1 1 1 1 1 1 1 1 1 1 1 1 1 1 1 1 0.815456 0.815456 0.815456 0.815456 0.815456 0.311982 0.311982 0.311982 0.311982 0.311982 0.00329234 0.00329234 0.00329234 0.00329234 0.00329234 1.04769e-14 1.04752e-14 1.04766e-14 1.04733e-14 1.04734e-14 0 0 0 0 0 0 0 0 0 0 0 0 0 0 0 0 0 0 0 0 0 0 0 0 0 0 0 0 0 0 0 0 0 0 0 0 0 0 0 0 0 0 0 0 0 0 0 0 0 0 0 0 0 0 0 0 0 0 0 0 0 0 0 0 0 0 0 0 0 0 0 0 0 0 0 0 0 0 0 0 0 0 0 0 0 0 0 0 0 0 0 0 0 0 0 0 0 0 0 0 0 0 0 0 0 0 0 0 0 0 0 0 0 0 0 0 0 0 0 0 0 0 0 0 0 0 0 0 0 0 0 0 0 0 0 0 0 0 0 0 0 0 0 0 0 0 0 0 0 0 0 0 0 0 0 0 0 0 0 0 0 0 0 0 0 0 0 0 0 0 0 0 0 0 0 0 0 0 0 0 0 0 0 0 0 0 0 0 0 0 0 0 0 0 0 0 0 0 0 0 0 0 0 0 0 0 0 0 0 0 0 0 0 0 0 0 0 0 0 0 0 0 0 0 0 0 0 0 0 0 0 0 0 0 0 0 0 0 0 0 0 0 0 0 0 0 0 0 0 0 0 0 0 0 0 0 0 0 0 0 0 0 0 0 0 0 0 0 0 0 0 0 0 0 0 0 0 0 0 0 0 0 0 0 0 0 0 0 0 0 0 0 0 0 0 0 0 0 0 0 0 0 0 0 0
				</DataArray>
				<DataArray Name="F2" type="Float32" format="ascii">
 0 0 0 0 0 0 0 0 0 0 0 0 0 0 0 0 0 0 0 0 0 0 0 0 0 0 0 0 0 0 0 0 0 0 0 0 0 0 0 0 0 0 0 0 0 0 0 0 0 0 0 0 0 0 0 0 0 0 0 0 0 0 0 0 0 0 0 0 0 0 0 0 0 0 0 0 0 0 0 0 0 0 0 0 0 0 0 0 0 0 0 0 0 0 0 0 0 0 0 0 0 0 0 0 0 0 0 0 0 0 0 0 0 0 0 0 0 0 0 0 0 0 0 0 0 0 0 0 0 0 0 0 0 0 0 0 0 0 0 0 0 0 0 0 0 0 0 0 0 0 0 0 0 0 0 0 0 0 0 0 0 0 0 0 0 0 0 0 0 0 0 0 0 0 0 0 0 0 0 0 0 0 0 0 0 0 0 0 0 0 0 0 0 0 0 0 0 0 0 0 0 0 0 0 0 0 0 0 0 0 0 0 0 0 0 0 0 0 0 0 0 0 0 0 0 0 0 0 0 0 0 0 0 0 0 0 0 0 0 0 0 0 0 0 0 0 0 0 0 0 0 0 0 0 0 0 0 0 0 0 0 0 0 0 0 0 0 0 0 0 0 0 0 0 0 0 0 0 0 0 0 0 0 0 0 0 0 0 0 0 0 0 0 0 0 0 0 0 0 0 0 0 0 0 0 0 0 0 0 0 0 0 0 0 0 0 0 0 0 0 0 0 0 0 0 0 0 0 0 0 0 0 0 0 0 0 0 0 0 0 0 0 0 0 0 0 0 0 0 0 0 0 0 0 0 0 0 0 0 0 0 0 0 0 0 0 0 0 0 0 0 0 0 0 0 0 0 0 0 0 0 0 0 0 0 0 0 0 0 0 0 0 0 0 0 0 0 0 0 0 0 0 0 0 0 0 0 0 0 0 0 0 0 0 0 0 0 0 0 0 0 0 0 0 0 0 0 0 0 0 0 0 0 0 0 0 0 0 0 0 0 0 0 0 0 0 0 0 0 0 0 0 0 0 0 0 0 0 0 0 0 0 0 0 0 0 0 0 0 0 0 0 0 0 0 0 0 0 0 0 0 0 0 0 0 0 0 0 0 0 0 0 0 0 0 0 0 0 0 0 0 0 0 0 0 0 0 0 0 0 0 0 0 0 0 0 0 0 0 0 0 0 0 0 0 0 0 0 0 0 0 0 0 0 0 0 0 0 0 0 0 0 0 0 0 0 0 0 0 0 0 0 0 0 0 0 0 0 0 0 0 0 0 0 0 0 0 0 0 0 0 0 0 0 0 0 0 0 0 0 0 0 0 0 0 0 0 0 0 0 0 0 0 0 0 0 0 0 0 0 0 0 0 0 0 0 0 0 0 0 0 0 0 0 0 0 0 0 0 0 0 0 0 0 0 0 0 0 0 0 0 0 0 0 0 0 0 0 0 0 0 0 0 0 0 0 0 0 0 0 0 0 0 0 0 0 0 0 0 0 0 0 0 0 0 0 0 0 0 0 0 0 0 0 0 0.184544 0.184544 0.184544 0.184544 0.184544 0.688018 0.688018 0.688018 0.688018 0.688018 0.996708 0.996708 0.996708 0.996708 0.996708 1 1 1 1 1 1 1 1 1 1 1 1 1 1 1 1 1 1 1 1 1 1 1 1 1 1 1 1 1 1 1 1 1 1 1 1 1 1 1 1 1 1 1 1 1 1 1 1 1 1 1 1 1 1 1 1 1 1 1 1 1 1 1 1 1 1 1 1 1 1 1 1 1 1 1 1 1 1 1 1 1 1 1 1 1 1 1 1 1 1 1 1 1 1 1 1 1 1 1 1 1 1 1 1 1 1 1 1 1 1 1 1 1 1 1 1 1 1 1 1 1 1 1 1 1 1 1 1 1 1 1 1 1 1 1 1 1 1 1 1 1 1 1 1 1 1 1 1 1 1 1 1 1 1 1 1 1 1 1 1 1 1 1 1 1 1 1 1 1 1 1 1 1 1 1 1 1 1 1 1 1 1 1 1 1 1 1 1 1 1 1 1 1 1 1 1 1 1 1 1 1 1 1 1 1 1 1 1 1 1 1 1 1 1 1 1 1 1 1 1 1 1 1 1 1 1 1 1 1 1 1 1 1 1 1 1 1 1 1 1 1 1 1 1 1 1 1 1 1 1 1 1 1 1 1 1 1 1 1 1 1 1 1 1 1 1 1 1 1 1 1 1 1 1 1 1 1 1 1 1 1 1 1 1 1 1 1 1 1 1 1 1 1 1 1 1 1 1 1 1 1 1 1 1 1 1 1 1 1 1
				</DataArray>
				<DataArray Name="F3" type="Float32" format="ascii">