<?xml version="1.0"?>
<VTKFile type="PolyData">
	<PolyData>
		<Piece NumberOfPoints="1206" NumberOfPolys="1000">
			<Points>
				<DataArray type="Float32" NumberOfComponents="3" format="ascii">
 0 0 0 0.02 0 0 0.04 0 0 0.06 0 0 0.08 0 0 0.1 0 0 0 0.005 0 0.02 0.005 0 0.04 0.005 0 0.06 0.005 0 0.08 0.005 0 0.1 0.005 0 0 0.01 0 0.02 0.01 0 0.04 0.01 0 0.06 0.01 0 0.08 0.01 0 0.1 0.01 0 0 0.015 0 0.02 0.015 0 0.04 0.015 0 0.06 0.015 0 0.08 0.015 0 0.1 0.015 0 0 0.02 0 0.02 0.02 0 0.04 0.02 0 0.06 0.02 0 0.08 0.02 0 0.1 0.02 0 0 0.025 0 0.02 0.025 0 0.04 0.025 0 0.06 0.025 0 0.08 0.025 0 0.1 0.025 0 0 0.03 0 0.02 0.03 0 0.04 0.03 0 0.06 0.03 0 0.08 0.03 0 0.1 0.03 0 0 0.035 0 0.02 0.035 0 0.04 0.035 0 0.06 0.035 0 0.08 0.035 0 0.1 0.035 0 0 0.04 0 0.02 0.04 0 0.04 0.04 0 0.06 0.04 0 0.08 0.04 0 0.1 0.04 0 0 0.045 0 0.02 0.045 0 0.04 0.045 0 0.06 0.045 0 0.08 0.045 0 0.1 0.045 0 0 0.05 0 0.02 0.05 0 0.04 0.05 0 0.06 0.05 0 0.08 0.05 0 0.1 0.05 0 0 0.055 0 0.02 0.055 0 0.04 0.055 0 0.06 0.055 0 0.08 0.055 0 0.1 0.055 0 0 0.06 0 0.02 0.06 0 0.04 0.06 0 0.06 0.06 0 0.08 0.06 0 0.1 0.06 0 0 0.065 0 0.02 0.065 0 0.04 0.065 0 0.06 0.065 0 0.08 0.065 0 0.1 0.065 0 0 0.07 0 0.02 0.07 0 0.04 0.07 0 0.06 0.07 0 0.08 0.07 0 0.1 0.07 0 0 0.075 0 0.02 0.075 0 0.04 0.075 0 0.06 0.075 0 0.08 0.075 0 0.1 0.075 0 0 0.08 0 0.02 0.08 0 0.04 0.08 0 0.06 0.08 0 0.08 0.08 0 0.1 0.08 0 0 0.085 0 0.02 0.085 0 0.04 0.085 0 0.06 0.085 0 0.08 0.085 0 0.1 0.085 0 0 0.09 0 0.02 0.09 0 0.04 0.09 0 0.06 0.09 0 0.08 0.09 0 0.1 0.09 0 0 0.095 0 0.02 0.095 0 0.04 0.095 0 0.06 0.095 0 0.08 0.095 0 0.1 0.095 0 0 0.1 0 0.02 0.1 0 0.04 0.1 0 0.06 0.1 0 0.08 0.1 0 0.1 0.1 0 0 0.105 0 0.02 0.105 0 0.04 0.105 0 0.06 0.105 0 0.08 0.105 0 0.1 0.105 0 0 0.11 0 0.02 0.11 0 0.04 0.11 0 0.06 0.11 0 0.08 0.11 0 0.1 0.11 0 0 0.115 0 0.02 0.115 0 0.04 0.115 0 0.06 0.115 0 0.08 0.115 0 0.1 0.115 0 0 0.12 0 0.02 0.12 0 0.04 0.12 0 0.06 0.12 0 0.08 0.12 0 0.1 0.12 0 0 0.125 0 0.02 0.125 0 0.04 0.125 0 0.06 0.125 0 0.08 0.125 0 0.1 0.125 0 0 0.13 0 0.02 0.13 0 0.04 0.13 0 0.06 0.13 0 0.08 0.13 0 0.1 0.13 0 0 0.135 0 0.02 0.135 0 0.04 0.135 0 0.06 0.135 0 0.08 0.135 0 0.1 0.135 0 0 0.14 0 0.02 0.14 0 0.04 0.14 0 0.06 0.14 0 0.08 0.14 0 0.1 0.14 0 0 0.145 0 0.02 0.145 0 0.04 0.145 0 0.06 0.145 0 0.08 0.145 0 0.1 0.145 0 0 0.15 0 0.02 0.15 0 0.04 0.15 0 0.06 0.15 0 0.08 0.15 0 0.1 0.15 0 0 0.155 0 0.02 0.155 0 0.04 0.155 0 0.06 0.155 0 0.08 0.155 0 0.1 0.155 0 0 0.16 0 0.02 0.16 0 0.04 0.16 0 0.06 0.16 0 0.08 0.16 0 0.1 0.16 0 0 0.165 0 0.02 0.165 0 0.04 0.165 0 0.06 0.165 0 0.08 0.165 0 0.1 0.165 0 0 0.17 0 0.02 0.17 0 0.04 0.17 0 0.06 0.17 0 0.08 0.17 0 0.1 0.17 0 0 0.175 0 0.02 0.175 0 0.04 0.175 0 0.06 0.175 0 0.08 0.175 0 0.1 0.175 0 0 0.18 0 0.02 0.18 0 0.04 0.18 0 0.06 0.18 0 0.08 0.18 0 0.1 0.18 0 0 0.185 0 0.02 0.185 0 0.04 0.185 0 0.06 0.185 0 0.08 0.185 0 0.1 0.185 0 0 0.19 0 0.02 0.19 0 0.04 0.19 0 0.06 0.19 0 0.08 0.19 0 0.1 0.19 0 0 0.195 0 0.02 0.195 0 0.04 0.195 0 0.06 0.195 0 0.08 0.195 0 0.1 0.195 0 0 0.2 0 0.02 0.2 0 0.04 0.2 0 0.06 0.2 0 0.08 0.2 0 0.1 0.2 0 0 0.205 0 0.02 0.205 0 0.04 0.205 0 0.06 0.205 0 0.08 0.205 0 0.1 0.205 0 0 0.21 0 0.02 0.21 0 0.04 0.21 0 0.06 0.21 0 0.08 0.21 0 0.1 0.21 0 0 0.215 0 0.02 0.215 0 0.04 0.215 0 0.06 0.215 0 0.08 0.215 0 0.1 0.215 0 0 0.22 0 0.02 0.22 0 0.04 0.22 0 0.06 0.22 0 0.08 0.22 0 0.1 0.22 0 0 0.225 0 0.02 0.225 0 0.04 0.225 0 0.06 0.225 0 0.08 0.225 0 0.1 0.225 0 0 0.23 0 0.02 0.23 0 0.04 0.23 0 0.06 0.23 0 0.08 0.23 0 0.1 0.23 0 0 0.235 0 0.02 0.235 0 0.04 0.235 0 0.06 0.235 0 0.08 0.235 0 0.1 0.235 0 0 0.24 0 0.02 0.24 0 0.04 0.24 0 0.06 0.24 0 0.08 0.24 0 0.1 0.24 0 0 0.245 0 0.02 0.245 0 0.04 0.245 0 0.06 0.245 0 0.08 0.245 0 0.1 0.245 0 0 0.25 0 0.02 0.25 0 0.04 0.25 0 0.06 0.25 0 0.08 0.25 0 0.1 0.25 0 0 0.255 0 0.02 0.255 0 0.04 0.255 0 0.06 0.255 0 0.08 0.255 0 0.1 0.255 0 0 0.26 0 0.02 0.26 0 0.04 0.26 0 0.06 0.26 0 0.08 0.26 0 0.1 0.26 0 0 0.265 0 0.02 0.265 0 0.04 0.265 0 0.06 0.265 0 0.08 0.265 0 0.1 0.265 0 0 0.27 0 0.02 0.27 0 0.04 0.27 0 0.06 0.27 0 0.08 0.27 0 0.1 0.27 0 0 0.275 0 0.02 0.275 0 0.04 0.275 0 0.06 0.275 0 0.08 0.275 0 0.1 0.275 0 0 0.28 0 0.02 0.28 0 0.04 0.28 0 0.06 0.28 0 0.08 0.28 0 0.1 0.28 0 0 0.285 0 0.02 0.285 0 0.04 0.285 0 0.06 0.285 0 0.08 0.285 0 0.1 0.285 0 0 0.29 0 0.02 0.29 0 0.04 0.29 0 0.06 0.29 0 0.08 0.29 0 0.1 0.29 0 0 0.295 0 0.02 0.295 0 0.04 0.295 0 0.06 0.295 0 0.08 0.295 0 0.1 0.295 0 0 0.3 0 0.02 0.3 0 0.04 0.3 0 0.06 0.3 0 0.08 0.3 0 0.1 0.3 0 0 0.305 0 0.02 0.305 0 0.04 0.305 0 0.06 0.305 0 0.08 0.305 0 0.1 0.305 0 0 0.31 0 0.02 0.31 0 0.04 0.31 0 0.06 0.31 0 0.08 0.31 0 0.1 0.31 0 0 0.315 0 0.02 0.315 0 0.04 0.315 0 0.06 0.315 0 0.08 0.315 0 0.1 0.315 0 0 0.32 0 0.02 0.32 0 0.04 0.32 0 0.06 0.32 0 0.08 0.32 0 0.1 0.32 0 0 0.325 0 0.02 0.325 0 0.04 0.325 0 0.06 0.325 0 0.08 0.325 0 0.1 0.325 0 0 0.33 0 0.02 0.33 0 0.04 0.33 0 0.06 0.33 0 0.08 0.33 0 0.1 0.33 0 0 0.335 0 0.02 0.335 0 0.04 0.335 0 0.06 0.335 0 0.08 0.335 0 0.1 0.335 0 0 0.34 0 0.02 0.34 0 0.04 0.34 0 0.06 0.34 0 0.08 0.34 0 0.1 0.34 0 0 0.345 0 0.02 0.345 0 0.04 0.345 0 0.06 0.345 0 0.08 0.345 0 0.1 0.345 0 0 0.35 0 0.02 0.35 0 0.04 0.35 0 0.06 0.35 0 0.08 0.35 0 0.1 0.35 0 0 0.355 0 0.02 0.355 0 0.04 0.355 0 0.06 0.355 0 0.08 0.355 0 0.1 0.355 0 0 0.36 0 0.02 0.36 0 0.04 0.36 0 0.06 0.36 0 0.08 0.36 0 0.1 0.36 0 0 0.365 0 0.02 0.365 0 0.04 0.365 0 0.06 0.365 0 0.08 0.365 0 0.1 0.365 0 0 0.37 0 0.02 0.37 0 0.04 0.37 0 0.06 0.37 0 0.08 0.37 0 0.1 0.37 0 0 0.375 0 0.02 0.375 0 0.04 0.375 0 0.06 0.375 0 0.08 0.375 0 0.1 0.375 0 0 0.38 0 0.02 0.38 0 0.04 0.38 0 0.06 0.38 0 0.08 0.38 0 0.1 0.38 0 0 0.385 0 0.02 0.385 0 0.04 0.385 0 0.06 0.385 0 0.08 0.385 0 0.1 0.385 0 0 0.39 0 0.02 0.39 0 0.04 0.39 0 0.06 0.39 0 0.08 0.39 0 0.1 0.39 0 0 0.395 0 0.02 0.395 0 0.04 0.395 0 0.06 0.395 0 0.08 0.395 0 0.1 0.395 0 0 0.4 0 0.02 0.4 0 0.04 0.4 0 0.06 0.4 0 0.08 0.4 0 0.1 0.4 0 0 0.405 0 0.02 0.405 0 0.04 0.405 0 0.06 0.405 0 0.08 0.405 0 0.1 0.405 0 0 0.41 0 0.02 0.41 0 0.04 0.41 0 0.06 0.41 0 0.08 0.41 0 0.1 0.41 0 0 0.415 0 0.02 0.415 0 0.04 0.415 0 0.06 0.415 0 0.08 0.415 0 0.1 0.415 0 0 0.42 0 0.02 0.42 0 0.04 0.42 0 0.06 0.42 0 0.08 0.42 0 0.1 0.42 0 0 0.425 0 0.02 0.425 0 0.04 0.425 0 0.06 0.425 0 0.08 0.425 0 0.1 0.425 0 0 0.43 0 0.02 0.43 0 0.04 0.43 0 0.06 0.43 0 0.08 0.43 0 0.1 0.43 0 0 0.435 0 0.02 0.435 0 0.04 0.435 0 0.06 0.435 0 0.08 0.435 0 0.1 0.435 0 0 0.44 0 0.02 0.44 0 0.04 0.44 0 0.06 0.44 0 0.08 0.44 0 0.1 0.44 0 0 0.445 0 0.02 0.445 0 0.04 0.445 0 0.06 0.445 0 0.08 0.445 0 0.1 0.445 0 0 0.45 0 0.02 0.45 0 0.04 0.45 0 0.06 0.45 0 0.08 0.45 0 0.1 0.45 0 0 0.455 0 0.02 0.455 0 0.04 0.455 0 0.06 0.455 0 0.08 0.455 0 0.1 0.455 0 0 0.46 0 0.02 0.46 0 0.04 0.46 0 0.06 0.46 0 0.08 0.46 0 0.1 0.46 0 0 0.465 0 0.02 0.465 0 0.04 0.465 0 0.06 0.465 0 0.08 0.465 0 0.1 0.465 0 0 0.47 0 0.02 0.47 0 0.04 0.47 0 0.06 0.47 0 0.08 0.47 0 0.1 0.47 0 0 0.475 0 0.02 0.475 0 0.04 0.475 0 0.06 0.475 0 0.08 0.475 0 0.1 0.475 0 0 0.48 0 0.02 0.48 0 0.04 0.48 0 0.06 0.48 0 0.08 0.48 0 0.1 0.48 0 0 0.485 0 0.02 0.485 0 0.04 0.485 0 0.06 0.485 0 0.08 0.485 0 0.1 0.485 0 0 0.49 0 0.02 0.49 0 0.04 0.49 0 0.06 0.49 0 0.08 0.49 0 0.1 0.49 0 0 0.495 0 0.02 0.495 0 0.04 0.495 0 0.06 0.495 0 0.08 0.495 0 0.1 0.495 0 0 0.5 0 0.02 0.5 0 0.04 0.5 0 0.06 0.5 0 0.08 0.5 0 0.1 0.5 0 0 0.505 0 0.02 0.505 0 0.04 0.505 0 0.06 0.505 0 0.08 0.505 0 0.1 0.505 0 0 0.51 0 0.02 0.51 0 0.04 0.51 0 0.06 0.51 0 0.08 0.51 0 0.1 0.51 0 0 0.515 0 0.02 0.515 0 0.04 0.515 0 0.06 0.515 0 0.08 0.515 0 0.1 0.515 0 0 0.52 0 0.02 0.52 0 0.04 0.52 0 0.06 0.52 0 0.08 0.52 0 0.1 0.52 0 0 0.525 0 0.02 0.525 0 0.04 0.525 0 0.06 0.525 0 0.08 0.525 0 0.1 0.525 0 0 0.53 0 0.02 0.53 0 0.04 0.53 0 0.06 0.53 0 0.08 0.53 0 0.1 0.53 0 0 0.535 0 0.02 0.535 0 0.04 0.535 0 0.06 0.535 0 0.08 0.535 0 0.1 0.535 0 0 0.54 0 0.02 0.54 0 0.04 0.54 0 0.06 0.54 0 0.08 0.54 0 0.1 0.54 0 0 0.545 0 0.02 0.545 0 0.04 0.545 0 0.06 0.545 0 0.08 0.545 0 0.1 0.545 0 0 0.55 0 0.02 0.55 0 0.04 0.55 0 0.06 0.55 0 0.08 0.55 0 0.1 0.55 0 0 0.555 0 0.02 0.555 0 0.04 0.555 0 0.06 0.555 0 0.08 0.555 0 0.1 0.555 0 0 0.56 0 0.02 0.56 0 0.04 0.56 0 0.06 0.56 0 0.08 0.56 0 0.1 0.56 0 0 0.565 0 0.02 0.565 0 0.04 0.565 0 0.06 0.565 0 0.08 0.565 0 0.1 0.565 0 0 0.57 0 0.02 0.57 0 0.04 0.57 0 0.06 0.57 0 0.08 0.57 0 0.1 0.57 0 0 0.575 0 0.02 0.575 0 0.04 0.575 0 0.06 0.575 0 0.08 0.575 0 0.1 0.575 0 0 0.58 0 0.02 0.58 0 0.04 0.58 0 0.06 0.58 0 0.08 0.58 0 0.1 0.58 0 0 0.585 0 0.02 0.585 0 0.04 0.585 0 0.06 0.585 0 0.08 0.585 0 0.1 0.585 0 0 0.59 0 0.02 0.59 0 0.04 0.59 0 0.06 0.59 0 0.08 0.59 0 0.1 0.59 0 0 0.595 0 0.02 0.595 0 0.04 0.595 0 0.06 0.595 0 0.08 0.595 0 0.1 0.595 0 0 0.6 0 0.02 0.6 0 0.04 0.6 0 0.06 0.6 0 0.08 0.6 0 0.1 0.6 0 0 0.605 0 0.02 0.605 0 0.04 0.605 0 0.06 0.605 0 0.08 0.605 0 0.1 0.605 0 0 0.61 0 0.02 0.61 0 0.04 0.61 0 0.06 0.61 0 0.08 0.61 0 0.1 0.61 0 0 0.615 0 0.02 0.615 0 0.04 0.615 0 0.06 0.615 0 0.08 0.615 0 0.1 0.615 0 0 0.62 0 0.02 0.62 0 0.04 0.62 0 0.06 0.62 0 0.08 0.62 0 0.1 0.62 0 0 0.625 0 0.02 0.625 0 0.04 0.625 0 0.06 0.625 0 0.08 0.625 0 0.1 0.625 0 0 0.63 0 0.02 0.63 0 0.04 0.63 0 0.06 0.63 0 0.08 0.63 0 0.1 0.63 0 0 0.635 0 0.02 0.635 0 0.04 0.635 0 0.06 0.635 0 0.08 0.635 0 0.1 0.635 0 0 0.64 0 0.02 0.64 0 0.04 0.64 0 0.06 0.64 0 0.08 0.64 0 0.1 0.64 0 0 0.645 0 0.02 0.645 0 0.04 0.645 0 0.06 0.645 0 0.08 0.645 0 0.1 0.645 0 0 0.65 0 0.02 0.65 0 0.04 0.65 0 0.06 0.65 0 0.08 0.65 0 0.1 0.65 0 0 0.655 0 0.02 0.655 0 0.04 0.655 0 0.06 0.655 0 0.08 0.655 0 0.1 0.655 0 0 0.66 0 0.02 0.66 0 0.04 0.66 0 0.06 0.66 0 0.08 0.66 0 0.1 0.66 0 0 0.665 0 0.02 0.665 0 0.04 0.665 0 0.06 0.665 0 0.08 0.665 0 0.1 0.665 0 0 0.67 0 0.02 0.67 0 0.04 0.67 0 0.06 0.67 0 0.08 0.67 0 0.1 0.67 0 0 0.675 0 0.02 0.675 0 0.04 0.675 0 0.06 0.675 0 0.08 0.675 0 0.1 0.675 0 0 0.68 0 0.02 0.68 0 0.04 0.68 0 0.06 0.68 0 0.08 0.68 0 0.1 0.68 0 0 0.685 0 0.02 0.685 0 0.04 0.685 0 0.06 0.685 0 0.08 0.685 0 0.1 0.685 0 0 0.69 0 0.02 0.69 0 0.04 0.69 0 0.06 0.69 0 0.08 0.69 0 0.1 
[...]
			<CellData Scalars="Density">
				<DataArray Name="Density" type="Float32" format="ascii">
 1 1 1 1 1 1 1 1 1 1 1 1 1 1 1 1 1 1 1 1 1 1 1 1 1 1 1 1 1 1 1 1 1 1 1 1 1 1 1 1 1 1 1 1 1 1 1 1 1 1 1 1 1 1 1 1 1 1 1 1 1 1 1 1 1 1 1 1 1 1 1 1 1 1 1 1 1 1 1 1 1 1 1 1 1 1 1 1 1 1 1 1 1 1 1 1 1 1 1 1 1 1 1 1 1 1 1 1 1 1 1 1 1 1 1 1 1 1 1 1 1 1 1 1 1 1 1 1 1 1 1 1 1 1 1 1 1 1 1 1 1 1 1 1 1 1 1 1 1 1 1 1 1 1 1 1 1 1 1 1 1 1 1 1 1 1 1 1 1 1 1 1 1 1 1 1 1 1 1 1 1 1 1 1 1 1 1 1 1 1 0.999999 0.999999 0.999999 0.999999 0.999999 0.999998 0.999998 0.999998 0.999998 0.999998 0.999994 0.999994 0.999994 0.999994 0.999994 0.999984 0.999984 0.999984 0.999984 0.999984 0.999959 0.999959 0.999959 0.999959 0.999959 0.999894 0.999894 0.999894 0.999894 0.999894 0.999737 0.999737 0.999737 0.999737 0.999737 0.999398 0.999398 0.999398 0.999398 0.999398 0.998738 0.998738 0.998738 0.998738 0.998738 0.997572 0.997572 0.997572 0.997572 0.997572 0.995683 0.995683 0.995683 0.995683 0.995683 0.992858 0.992858 0.992858 0.992858 0.992858 0.988913 0.988913 0.988913 0.988913 0.988913 0.983729 0.983729 0.983729 0.983729 0.983729 0.977266 0.977266 0.977266 0.977266 0.977266 0.969551 0.969551 0.969551 0.969551 0.969551 0.960675 0.960675 0.960675 0.960675 0.960675 0.950765 0.950765 0.950765 0.950765 0.950765 0.939967 0.939967 0.939967 0.939967 0.939967 0.928428 0.928428 0.928428 0.928428 0.928428 0.91629 0.91629 0.91629 0.91629 0.91629 0.903678 0.903678 0.903678 0.903678 0.903678 0.890704 0.890704 0.890704 0.890704 0.890704 0.877464 0.877464 0.877464 0.877464 0.877464 0.864034 0.864034 0.864034 0.864034 0.864034 0.850483 0.850483 0.850483 0.850483 0.850483 0.836865 0.836865 0.836865 0.836865 0.836865 0.823227 0.823227 0.823227 0.823227 0.823227 0.809604 0.809604 0.809604 0.809604 0.809604 0.796029 0.796029 0.796029 0.796029 0.796029 0.782527 0.782527 0.782527 0.782527 0.782527 0.769119 0.769119 0.769119 0.769119 0.769119 0.755824 0.755824 0.755824 0.755824 0.755824 0.742655 0.742655 0.742655 0.742655 0.742655 0.729626 0.729626 0.729626 0.729626 0.729626 0.716748 0.716748 0.716748 0.716748 0.716748 0.70403 0.70403 0.70403 0.70403 0.70403 0.69148 0.69148 0.69148 0.69148 0.69148 0.679105 0.679105 0.679105 0.679105 0.679105 0.666913 0.666913 0.666913 0.666913 0.666913 0.65491 0.65491 0.65491 0.65491 0.65491 0.643101 0.643101 0.643101 0.643101 0.643101 0.631492 0.631492 0.631492 0.631492 0.631492 0.620089 0.620089 0.620089 0.620089 0.620089 0.608898 0.608898 0.608898 0.608898 0.608898 0.597926 0.597926 0.597926 0.597926 0.597926 0.587179 0.587179 0.587179 0.587179 0.587179 0.576664 0.576664 0.576664 0.576664 0.576664 0.56639 0.56639 0.56639 0.56639 0.56639 0.556365 0.556365 0.556365 0.556365 0.556365 0.546599 0.546599 0.546599 0.546599 0.546599 0.537102 0.537102 0.537102 0.537102 0.537102 0.527888 0.527888 0.527888 0.527888 0.527888 0.518968 0.518968 0.518968 0.518968 0.518968 0.510358 0.510358 0.510358 0.510358 0.510358 0.502073 0.502073 0.502073 0.502073 0.502073 0.494131 0.494131 0.494131 0.494131 0.494131 0.48655 0.48655 0.48655 0.48655 0.48655 0.479348 0.479348 0.479348 0.479348 0.479348 0.472545 0.472545 0.472545 0.472545 0.472545 0.466161 0.466161 0.466161 0.466161 0.466161 0.460213 0.460213 0.460213 0.460213 0.460213 0.454718 0.454718 0.454718 0.454718 0.454718 0.44969 0.44969 0.44969 0.44969 0.44969 0.445136 0.445136 0.445136 0.445136 0.445136 0.441061 0.441061 0.441061 0.441061 0.441061 0.437461 0.437461 0.437461 0.437461 0.437461 0.434325 0.434325 0.434325 0.434325 0.434325 0.431635 0.431635 0.431635 0.431635 0.431635 0.429365 0.429365 0.429365 0.429365 0.429365 0.427479 0.427479 0.427479 0.427479 0.427479 0.425939 0.425939 0.425939 0.425939 0.425939 0.4247 0.4247 0.4247 0.4247 0.4247 0.423717 0.423717 0.423717 0.423717 0.423717 0.422943 0.422943 0.422943 0.422943 0.422943 0.422333 0.422333 0.422333 0.422333 0.422333 0.421844 0.421844 0.421844 0.421844 0.421844 0.421437 0.421437 0.421437 0.421437 0.421437 0.421076 0.421076 0.421076 0.421076 0.421076 0.420727 0.420727 0.420727 0.420727 0.420727 0.420357 0.420357 0.420357 0.420357 0.420357 0.419934 0.419934 0.419934 0.419934 0.419934 0.419429 0.419429 0.419429 0.419429 0.419429 0.418815 0.418815 0.418815 0.418815 0.418815 0.418062 0.418062 0.418062 0.418062 0.418062 0.417153 0.417153 0.417153 0.417153 0.417153 0.41608 0.41608 0.41608 0.41608 0.41608 0.41485 0.41485 0.41485 0.41485 0.41485 0.413491 0.413491 0.413491 0.413491 0.413491 0.412048 0.412048 0.412048 0.412048 0.412048 0.410589 0.410589 0.410589 0.410589 0.410589 0.409192 0.409192 0.409192 0.409192 0.409192 0.407946 0.407946 0.407946 0.407946 0.407946 0.406933 0.406933 0.406933 0.406933 0.406933 0.406223 0.406223 0.406223 0.406223 0.406223 0.385409 0.385409 0.385409 0.385409 0.385409 0.31372 0.31372 0.31372 0.31372 0.31372 0.263963 0.263963 0.263963 0.263963 0.263963 0.26257 0.26257 0.26257 0.26257 0.26257 0.26298 0.26298 0.26298 0.26298 0.26298 0.263463 0.263463 0.263463 0.263463 0.263463 0.263983 0.263983 0.263983 0.263983 0.263983 0.264508 0.264508 0.264508 0.264508 0.264508 0.265011 0.265011 0.265011 0.265011 0.265011 0.265472 0.265472 0.265472 0.265472 0.265472 0.265879 0.265879 0.265879 0.265879 0.265879 0.266227 0.266227 0.266227 0.266227 0.266227 0.266516 0.266516 0.266516 0.266516 0.266516 0.26675 0.26675 0.26675 0.26675 0.26675 0.266936 0.266936 0.266936 0.266936 0.266936 0.26708 0.26708 0.26708 0.26708 0.26708 0.267193 0.267193 0.267193 0.267193 0.267193 0.267276 0.267276 0.267276 0.267276 0.267276 0.267342 0.267342 0.267342 0.267342 0.267342 0.267386 0.267386 0.267386 0.267386 0.267386 0.267422 0.267422 0.267422 0.267422 0.267422 0.267421 0.267421 0.267421 0.267421 0.267421 0.267413 0.267413 0.267413 0.267413 0.267413 0.267282 0.267282 0.267282 0.267282 0.267282 0.267104 0.267104 0.267104 0.267104 0.267104 0.266473 0.266473 0.266473 0.266473 0.266473 0.265539 0.265539 0.265539 0.265539 0.265539 0.263024 0.263024 0.263024 0.263024 0.263024 0.258848 0.258848 0.258848 0.258848 0.258848 0.249493 0.249493 0.249493 0.249493 0.249493 0.234132 0.234132 0.234132 0.234132 0.234132 0.206679 0.206679 0.206679 0.206679 0.206679 0.172579 0.172579 0.172579 0.172579 0.172579 0.138053 0.138053 0.138053 0.138053 0.138053 0.127293 0.127293 0.127293 0.127293 0.127293 0.125361 0.125361 0.125361 0.125361 0.125361 0.125055 0.125055 0.125055 0.125055 0.125055 0.125008 0.125008 0.125008 0.125008 0.125008 0.125001 0.125001 0.125001 0.125001 0.125001 0.125 0.125 0.125 0.125 0.125 0.125 0.125 0.125 0.125 0.125 0.125 0.125 0.125 0.125 0.125 0.125 0.125 0.125 0.125 0.125 0.125 0.125 0.125 0.125 0.125 0.125 0.125 0.125 0.125 0.125 0.125 0.125 0.125 0.125 0.125 0.125 0.125 0.125 0.125 0.125 0.125 0.125 0.125 0.125 0.125 0.125 0.125 0.125 0.125 0.125 0.125 0.125 0.125 0.125 0.125 0.125 0.125 0.125 0.125 0.125 0.125 0.125 0.125 0.125 0.125 0.125 0.125 0.125 0.125 0.125 0.125 0.125 0.125 0.125 0.125 0.125 0.125 0.125 0.125 0.125 0.125 0.125 0.125 0.125 0.125 0.125 0.125 0.125 0.125 0.125 0.125 0.125 0.125 0.125 0.125 0.125 0.125 0.125 0.125 0.125 0.125 0.125 0.125 0.125 0.125 0.125 0.125 0.125 0.125 0.125 0.125 0.125 0.125 0.125 0.125 0.125 0.125 0.125 0.125 0.125 0.125 0.125 0.125 0.125 0.125 0.125 0.125 0.125 0.125 0.125 0.125 0.125 0.125 0.125 0.125 0.125 0.125 0.125 0.125 0.125
				</DataArray>
				<DataArray Name="Energy" type="Float32" format="ascii">
 2.5 2.5 2.5 2.5 2.5 2.5 2.5 2.5 2.5 2.5 2.5 2.5 2.5 2.5 2.5 2.5 2.5 2.5 2.5 2.5 2.5 2.5 2.5 2.5 2.5 2.5 2.5 2.5 2.5 2.5 2.5 2.5 2.5 2.5 2.5 2.5 2.5 2.5 2.5 2.5 2.5 2.5 2.5 2.5 2.5 2.5 2.5 2.5 2.5 2.5 2.5 2.5 2.5 2.5 2.5 2.5 2.5 2.5 2.5 2.5 2.5 2.5 2.5 2.5 2.5 2.5 2.5 2.5 2.5 2.5 2.5 2.5 2.5 2.5 2.5 2.5 2.5 2.5 2.5 2.5 2.5 2.5 2.5 2.5 2.5 2.5 2.5 2.5 2.5 2.5 2.5 2.5 2.5 2.5 2.5 2.5 2.5 2.5 2.5 2.5 2.5 2.5 2.5 2.5 2.5 2.5 2.5 2.5 2.5 2.5 2.5 2.5 2.5 2.5 2.5 2.5 2.5 2.5 2.5 2.5 2.5 2.5 2.5 2.5 2.5 2.5 2.5 2.5 2.5 2.5 2.5 2.5 2.5 2.5 2.5 2.5 2.5 2.5 2.5 2.5 2.5 2.5 2.5 2.5 2.5 2.5 2.5 2.5 2.5 2.5 2.5 2.5 2.5 2.5 2.5 2.5 2.5 2.5 2.5 2.5 2.5 2.5 2.5 2.5 2.5 2.5 2.5 2.5 2.5 2.5 2.5 2.5 2.5 2.5 2.5 2.5 2.5 2.5 2.5 2.5 2.5 2.5 2.5 2.5 2.5 2.5 2.5 2.5 2.5 2.5 2.5 2.5 2.5 2.5 2.5 2.5 2.5 2.5 2.5 2.5 2.49999 2.49999 2.49999 2.49999 2.49999 2.49998 2.49998 2.49998 2.49998 2.49998 2.49996 2.49996 2.49996 2.49996 2.49996 2.49989 2.49989 2.49989 2.49989 2.49989 2.49974 2.49974 2.49974 2.49974 2.49974 2.4994 2.4994 2.4994 2.4994 2.4994 2.49874 2.49874 2.49874 2.49874 2.49874 2.49757 2.49757 2.49757 2.49757 2.49757 2.49568 2.49568 2.49568 2.49568 2.49568 2.49285 2.49285 2.49285 2.49285 2.49285 2.48889 2.48889 2.48889 2.48889 2.48889 2.48368 2.48368 2.48368 2.48368 2.48368 2.47716 2.47716 2.47716 2.47716 2.47716 2.46936 2.46936 2.46936 2.46936 2.46936 2.46034 2.46034 2.46034 2.46034 2.46034 2.45022 2.45022 2.45022 2.45022 2.45022 2.43913 2.43913 2.43913 2.43913 2.43913 2.4272 2.4272 2.4272 2.4272 2.4272 2.41457 2.41457 2.41457 2.41457 2.41457 2.40134 2.40134 2.40134 2.40134 2.40134 2.38763 2.38763 2.38763 2.38763 2.38763 2.37352 2.37352 2.37352 2.37352 2.37352 2.35909 2.35909 2.35909 2.35909 2.35909 2.3444 2.3444 2.3444 2.3444 2.3444 2.3295 2.3295 2.3295 2.3295 2.3295 2.31444 2.31444 2.31444 2.31444 2.31444 2.29926 2.29926 2.29926 2.29926 2.29926 2.28398 2.28398 2.28398 2.28398 2.28398 2.26865 2.26865 2.26865 2.26865 2.26865 2.25326 2.25326 2.25326 2.25326 2.25326 2.23786 2.23786 2.23786 2.23786 2.23786 2.22245 2.22245 2.22245 2.22245 2.22245 2.20705 2.20705 2.20705 2.20705 2.20705 2.19168 2.19168 2.19168 2.19168 2.19168 2.17634 2.17634 2.17634 2.17634 2.17634 2.16105 2.16105 2.16105 2.16105 2.16105 2.14582 2.14582 2.14582 2.14582 2.14582 2.13066 2.13066 2.13066 2.13066 2.13066 2.11559 2.11559 2.11559 2.11559 2.11559 2.1006 2.1006 2.1006 2.1006 2.1006 2.08571 2.08571 2.08571 2.08571 2.08571 2.07094 2.07094 2.07094 2.07094 2.07094 2.0563 2.0563 2.0563 2.0563 2.0563 2.04179 2.04179 2.04179 2.04179 2.04179 2.02744 2.02744 2.02744 2.02744 2.02744 2.01325 2.01325 2.01325 2.01325 2.01325 1.99925 1.99925 1.99925 1.99925 1.99925 1.98545 1.98545 1.98545 1.98545 1.98545 1.97188 1.97188 1.97188 1.97188 1.97188 1.95855 1.95855 1.95855 1.95855 1.95855 1.9455 1.9455 1.9455 1.9455 1.9455 1.93274 1.93274 1.93274 1.93274 1.93274 1.92031 1.92031 1.92031 1.92031 1.92031 1.90825 1.90825 1.90825 1.90825 1.90825 1.89658 1.89658 1.89658 1.89658 1.89658 1.88536 1.88536 1.88536 1.88536 1.88536 1.87462 1.87462 1.87462 1.87462 1.87462 1.8644 1.8644 1.8644 1.8644 1.8644 1.85476 1.85476 1.85476 1.85476 1.85476 1.84573 1.84573 1.84573 1.84573 1.84573 1.83735 1.83735 1.83735 1.83735 1.83735 1.82967 1.82967 1.82967 1.82967 1.82967 1.82271 1.82271 1.82271 1.82271 1.82271 1.8165 1.8165 1.8165 1.8165 1.8165 1.81104 1.81104 1.81104 1.81104 1.81104 1.80634 1.80634 1.80634 1.80634 1.80634 1.80238 1.80238 1.80238 1.80238 1.80238 1.79912 1.79912 1.79912 1.79912 1.79912 1.79653 1.79653 1.79653 1.79653 1.79653 1.79456 1.79456 1.79456 1.79456 1.79456 1.79313 1.79313 1.79313 1.79313 1.79313 1.79218 1.79218 1.79218 1.79218 1.79218 1.79166 1.79166 1.79166 1.79166 1.79166 1.7915 1.7915 1.7915 1.7915 1.7915 1.79167 1.79167 1.79167 1.79167 1.79167 1.79212 1.79212 1.79212 1.79212 1.79212 1.79284 1.79284 1.79284 1.79284 1.79284 1.79385 1.79385 1.79385 1.79385 1.79385 1.79518 1.79518 1.79518 1.79518 1.79518 1.79687 1.79687 1.79687 1.79687 1.79687 1.79902 1.79902 1.79902 1.79902 1.79902 1.8017 1.8017 1.8017 1.8017 1.8017 1.80501 1.80501 1.80501 1.80501 1.80501 1.80902 1.80902 1.80902 1.80902 1.80902 1.81376 1.81376 1.81376 1.81376 1.81376 1.8192 1.8192 1.8192 1.8192 1.8192 1.82524 1.82524 1.82524 1.82524 1.82524 1.83168 1.83168 1.83168 1.83168 1.83168 1.83823 1.83823 1.83823 1.83823 1.83823 1.84454 1.84454 1.84454 1.84454 1.84454 1.85019 1.85019 1.85019 1.85019 1.85019 1.85481 1.85481 1.85481 1.85481 1.85481 1.85806 1.85806 1.85806 1.85806 1.85806 1.95842 1.95842 1.95842 1.95842 1.95842 2.40594 2.40594 2.40594 2.40594 2.40594 2.85945 2.85945 2.85945 2.85945 2.85945 2.87461 2.87461 2.87461 2.87461 2.87461 2.87011 2.87011 2.87011 2.87011 2.87011 2.86482 2.86482 2.86482 2.86482 2.86482 2.85915 2.85915 2.85915 2.85915 2.85915 2.85344 2.85344 2.85344 2.85344 2.85344 2.84798 2.84798 2.84798 2.84798 2.84798 2.84299 2.84299 2.84299 2.84299 2.84299 2.83859 2.83859 2.83859 2.83859 2.83859 2.83483 2.83483 2.83483 2.83483 2.83483 2.8317 2.8317 2.8317 2.8317 2.8317 2.82915 2.82915 2.82915 2.82915 2.82915 2.82713 2.82713 2.82713 2.82713 2.82713 2.82553 2.82553 2.82553 2.82553 2.82553 2.8243 2.8243 2.8243 2.8243 2.8243 2.82334 2.82334 2.82334 2.82334 2.82334 2.82261 2.82261 2.82261 2.82261 2.82261 2.82202 2.82202 2.82202 2.82202 2.82202 2.82156 2.82156 2.82156 2.82156 2.82156 2.82109 2.82109 2.82109 2.82109 2.82109 2.82068 2.82068 2.82068 2.82068 2.82068 2.81982 2.81982 2.81982 2.81982 2.81982 2.81882 2.81882 2.81882 2.81882 2.81882 2.81594 2.81594 2.81594 2.81594 2.81594 2.8118 2.8118 2.8118 2.8118 2.8118 2.80089 2.80089 2.80089 2.80089 2.80089 2.78262 2.78262 2.78262 2.78262 2.78262 2.74065 2.74065 2.74065 2.74065 2.74065 2.66774 2.66774 2.66774 2.66774 2.66774 2.52448 2.52448 2.52448 2.52448 2.52448 2.32032 2.32032 2.32032 2.32032 2.32032 2.08976 2.08976 2.08976 2.08976 2.08976 2.01493 2.01493 2.01493 2.01493 2.01493 2.00232 2.00232 2.00232 2.00232 2.00232 2.00035 2.00035 2.00035 2.00035 2.00035 2.00005 2.00005 2.00005 2.00005 2.00005 2.00001 2.00001 2.00001 2.00001 2.00001 2 2 2 2 2 2 2 2 2 2 2 2 2 2 2 2 2 2 2 2 2 2 2 2 2 2 2 2 2 2 2 2 2 2 2 2 2 2 2 2 2 2 2 2 2 2 2 2 2 2 2 2 2 2 2 2 2 2 2 2 2 2 2 2 2 2 2 2 2 2 2 2 2 2 2 2 2 2 2 2 2 2 2 2 2 2 2 2 2 2 2 2 2 2 2 2 2 2 2 2 2 2 2 2 2 2 2 2 2 2 2 2 2 2 2 2 2 2 2 2 2 2 2 2 2 2 2 2 2 2 2 2 2 2 2 2 2 2 2 2
				</DataArray>
				<DataArray Name="F1" type="Float32" format="ascii">
 1 1 1 1 1 1 1 1 1 1 1 1 1 1 1 1 1 1 1 1 1 1 1 1 1 1 1 1 1 1 1 1 1 1 1 1 1 1 1 1 1 1 1 1 1 1 1 1 1 1 1 1 1 1 1 1 1 1 1 1 1 1 1 1 1 1 1 1 1 1 1 1 1 1 1 1 1 1 1 1 1 1 1 1 1 1 1 1 1 1 1 1 1 1 1 1 1 1 1 1 1 1 1 1 1 1 1 1 1 1 1 1 1 1 1 1 1 1 1 1 1 1 1 1 1 1 1 1 1 1 1 1 1 1 1 1 1 1 1 1 1 1 1 1 1 1 1 1 1 1 1 1 1 1 1 1 1 1 1 1 1 1 1 1 1 1 1 1 1 1 1 1 1 1 1 1 1 1 1 1 1 1 1 1 1 1 1 1 1 1 1 1 1 1 1 1 1 1 1 1 1 1 1 1 1 1 1 1 1 1 1 1 1 1 1 1 1 1 1 1 1 1 1 1 1 1 1 1 1 1 1 1 1 1 1 1 1 1 1 1 1 1 1 1 1 1 1 1 1 1 1 1 1 1 1 1 1 1 1 1 1 1 1 1 1 1 1 1 1 1 1 1 1 1 1 1 1 1 1 1 1 1 1 1 1 1 1 1 1 1 1 1 1 1 1 1 1 1 1 1 1 1 1 1 1 1 1 1 1 1 1 1 1 1 1 1 1 1 1 1 1 1 1 1 1 1 1 1 1 1 1 1 1 1 1 1 1 1 1 1 1 1 1 1 1 1 1 1 1 1 1 1 1 1 1 1 1 1 1 1 1 1 1 1 1 1 1 1 1 1 1 1 1 1 1 1 1 1 1 1 1 1 1 1 1 1 1 1 1 1 1 1 1 1 1 1 1 1 1 1 1 1 1 1 1 1 1 1 1 1 1 1 1 1 1 1 1 1 1 1 1 1 1 1 1 1 1 1 1 1 1 1 1 1 1 1 1 1 1 1 1 1 1 1 1 1 1 1 1 1 1 1 1 1 1 1 1 1 1 1 1 1 1 1 1 1 1 1 1 1 1 1 1 1 1 1 1 1 1 1 1 1 1 1 1 1 1 1 1 1 1 1 1 1 1 1 1 1 1 1 1 1 1 1 1 1 1 1 1 1 1 1 1 1 1 1 1 1 1 1 1 1 1 1 1 1 1 1 1 1 1 1 1 1 1 1 1 1 1 1 1 1 1 1 1 1 1 1 1 1 1 1 1 1 1 1 1 1 1 1 1 1 1 1 1 1 1 1 1 1 1 1 1 1 1 1 1 1 1 1 1 1 1 1 1 1 1 1 1 1 1 1 1 1 1 1 1 1 1 1 1 1 1 1 1 1 1 1 1 1 1 1 1 1 1 1 1 1 1 1 1 1 1 1 1 1 1 1 1 1 1 1 1 1 1 1 1 1 1 1 1 1 1 1 1 1 1 1 1 1 1 1 1 1 1 1 1 1 1 1 1 1 1 1 1 0.857895 0.857895 0.857895 0.857895 0.857895 0.359572 0.359572 0.359572 0.359572 0.359572 0.0118255 0.0118255 0.0118255 0.0118255 0.0118255 1.23664e-15 1.24284e-15 1.23133e-15 1.23333e-15 1.22086e-15 0 0 0 0 0 0 0 0 0 0 0 0 0 0 0 0 0 0 0 0 0 0 0 0 0 0 0 0 0 0 0 0 0 0 0 0 0 0 0 0 0 0 0 0 0 0 0 0 0 0 0 0 0 0 0 0 0 0 0 0 0 0 0 0 0 0 0 0 0 0 0 0 0 0 0 0 0 0 0 0 0 0 0 0 0 0 0 0 0 0 0 0 0 0 0 0 0 0 0 0 0 0 0 0 0 0 0 0 0 0 0 0 0 0 0 0 0 0 0 0 0 0 0 0 0 0 0 0 0 0 0 0 0 0 0 0 0 0 0 0 0 0 0 0 0 0 0 0 0 0 0 0 0 0 0 0 0 0 0 0 0 0 0 0 0 0 0 0 0 0 0 0 0 0 0 0 0 0 0 0 0 0 0 0 0 0 0 0 0 0 0 0 0 0 0 0 0 0 0 0 0 0 0 0 0 0 0 0 0 0 0 0 0 0 0 0 0 0 0 0 0 0 0 0 0 0 0 0 0 0 0 0 0 0 0 0 0 0 0 0 0 0 0 0 0 0 0 0 0 0 0 0 0 0 0 0 0 0 0 0 0 0 0 0 0 0 0 0 0 0 0 0 0 0 0 0 0 0 0 0 0 0 0 0 0 0 0 0 0 0 0 0 0 0 0 0 0 0 0 0 0 0 0 0 0 0 0 0 0 0 0 0 0 0 0
				</DataArray>
				<DataArray Name="F2" type="Float32" format="ascii">
 0 0 0 0 0 0 0 0 0 0 0 0 0 0 0 0 0 0 0 0 0 0 0 0 0 0 0 0 0 0 0 0 0 0 0 0 0 0 0 0 0 0 0 0 0 0 0 0 0 0 0 0 0 0 0 0 0 0 0 0 0 0 0 0 0 0 0 0 0 0 0 0 0 0 0 0 0 0 0 0 0 0 0 0 0 0 0 0 0 0 0 0 0 0 0 0 0 0 0 0 0 0 0 0 0 0 0 0 0 0 0 0 0 0 0 0 0 0 0 0 0 0 0 0 0 0 0 0 0 0 0 0 0 0 0 0 0 0 0 0 0 0 0 0 0 0 0 0 0 0 0 0 0 0 0 0 0 0 0 0 0 0 0 0 0 0 0 0 0 0 0 0 0 0 0 0 0 0 0 0 0 0 0 0 0 0 0 0 0 0 0 0 0 0 0 0 0 0 0 0 0 0 0 0 0 0 0 0 0 0 0 0 0 0 0 0 0 0 0 0 0 0 0 0 0 0 0 0 0 0 0 0 0 0 0 0 0 0 0 0 0 0 0 0 0 0 0 0 0 0 0 0 0 0 0 0 0 0 0 0 0 0 0 0 0 0 0 0 0 0 0 0 0 0 0 0 0 0 0 0 0 0 0 0 0 0 0 0 0 0 0 0 0 0 0 0 0 0 0 0 0 0 0 0 0 0 0 0 0 0 0 0 0 0 0 0 0 0 0 0 0 0 0 0 0 0 0 0 0 0 0 0 0 0 0 0 0 0 0 0 0 0 0 0 0 0 0 0 0 0 0 0 0 0 0 0 0 0 0 0 0 0 0 0 0 0 0 0 0 0 0 0 0 0 0 0 0 0 0 0 0 0 0 0 0 0 0 0 0 0 0 0 0 0 0 0 0 0 0 0 0 0 0 0 0 0 0 0 0 0 0 0 0 0 0 0 0 0 0 0 0 0 0 0 0 0 0 0 0 0 0 0 0 0 0 0 0 0 0 0 0 0 0 0 0 0 0 0 0 0 0 0 0 0 0 0 0 0 0 0 0 0 0 0 0 0 0 0 0 0 0 0 0 0 0 0 0 0 0 0 0 0 0 0 0 0 0 0 0 0 0 0 0 0 0 0 0 0 0 0 0 0 0 0 0 0 0 0 0 0 0 0 0 0 0 0 0 0 0 0 0 0 0 0 0 0 0 0 0 0 0 0 0 0 0 0 0 0 0 0 0 0 0 0 0 0 0 0 0 0 0 0 0 0 0 0 0 0 0 0 0 0 0 0 0 0 0 0 0 0 0 0 0 0 0 0 0 0 0 0 0 0 0 0 0 0 0 0 0 0 0 0 0 0 0 0 0 0 0 0 0 0 0 0 0 0 0 0 0 0 0 0 0 0 0 0 0 0 0 0 0 0 0 0 0 0 0 0 0 0 0 0 0 0 0 0 0 0 0 0 0 0 0 0 0 0 0 0 0 0 0 0 0 0 0 0 0 0 0 0 0 0 0 0 0 0.142105 0.142105 0.142105 0.142105 0.142105 0.640428 0.640428 0.640428 0.640428 0.640428 0.988174 0.988174 0.988174 0.988174 0.988174 1 1 1 1 1 1 1 1 1 1 1 1 1 1 1 1 1 1 1 1 1 1 1 1 1 1 1 1 1 1 1 1 1 1 1 1 1 1 1 1 1 1 1 1 1 1 1 1 1 1 1 1 1 1 1 1 1 1 1 1 1 1 1 1 1 1 1 1 1 1 1 1 1 1 1 1 1 1 1 1 1 1 1 1 1 1 1 1 1 1 1 1 1 1 1 1 1 1 1 1 1 1 1 1 1 1 1 1 1 1 1 1 1 1 1 1 1 1 1 1 1 1 1 1 1 1 1 1 1 1 1 1 1 1 1 1 1 1 1 1 1 1 1 1 1 1 1 1 1 1 1 1 1 1 1 1 1 1 1 1 1 1 1 1 1 1 1 1 1 1 1 1 1 1 1 1 1 1 1 1 1 1 1 1 1 1 1 1 1 1 1 1 1 1 1 1 1 1 1 1 1 1 1 1 1 1 1 1 1 1 1 1 1 1 1 1 1 1 1 1 1 1 1 1 1 1 1 1 1 1 1 1 1 1 1 1 1 1 1 1 1 1 1 1 1 1 1 1 1 1 1 1 1 1 1 1 1 1 1 1 1 1 1 1 1 1 1 1 1 1 1 1 1 1 1 1 1 1 1 1 1 1 1 1 1 1 1 1 1 1 1 1 1 1 1 1 1 1 1 1 1 1 1 1 1 1 1 1 1 1 1 1 1 1 1 1 1 1 1 1
				</DataArray>
				<DataArray Name="F3" type="Float32" format="ascii">