<?xml version="1.0"?>
<VTKFile type="PolyData">
	<PolyData>
		<Piece NumberOfPoints="1206" NumberOfPolys="1000">
			<Points>
				<DataArray type="Float32" NumberOfComponents="3" format="ascii">
 0 0 0 0.02 0 0 0.04 0 0 0.06 0 0 0.08 0 0 0.1 0 0 0 0.005 0 0.02 0.005 0 0.04 0.005 0 0.06 0.005 0 0.08 0.005 0 0.1 0.005 0 0 0.01 0 0.02 0.01 0 0.04 0.01 0 0.06 0.01 0 0.08 0.01 0 0.1 0.01 0 0 0.015 0 0.02 0.015 0 0.04 0.015 0 0.06 0.015 0 0.08 0.015 0 0.1 0.015 0 0 0.02 0 0.02 0.02 0 0.04 0.02 0 0.06 0.02 0 0.08 0.02 0 0.1 0.02 0 0 0.025 0 0.02 0.025 0 0.04 0.025 0 0.06 0.025 0 0.08 0.025 0 0.1 0.025 0 0 0.03 0 0.02 0.03 0 0.04 0.03 0 0.06 0.03 0 0.08 0.03 0 0.1 0.03 0 0 0.035 0 0.02 0.035 0 0.04 0.035 0 0.06 0.035 0 0.08 0.035 0 0.1 0.035 0 0 0.04 0 0.02 0.04 0 0.04 0.04 0 0.06 0.04 0 0.08 0.04 0 0.1 0.04 0 0 0.045 0 0.02 0.045 0 0.04 0.045 0 0.06 0.045 0 0.08 0.045 0 0.1 0.045 0 0 0.05 0 0.02 0.05 0 0.04 0.05 0 0.06 0.05 0 0.08 0.05 0 0.1 0.05 0 0 0.055 0 0.02 0.055 0 0.04 0.055 0 0.06 0.055 0 0.08 0.055 0 0.1 0.055 0 0 0.06 0 0.02 0.06 0 0.04 0.06 0 0.06 0.06 0 0.08 0.06 0 0.1 0.06 0 0 0.065 0 0.02 0.065 0 0.04 0.065 0 0.06 0.065 0 0.08 0.065 0 0.1 0.065 0 0 0.07 0 0.02 0.07 0 0.04 0.07 0 0.06 0.07 0 0.08 0.07 0 0.1 0.07 0 0 0.075 0 0.02 0.075 0 0.04 0.075 0 0.06 0.075 0 0.08 0.075 0 0.1 0.075 0 0 0.08 0 0.02 0.08 0 0.04 0.08 0 0.06 0.08 0 0.08 0.08 0 0.1 0.08 0 0 0.085 0 0.02 0.085 0 0.04 0.085 0 0.06 0.085 0 0.08 0.085 0 0.1 0.085 0 0 0.09 0 0.02 0.09 0 0.04 0.09 0 0.06 0.09 0 0.08 0.09 0 0.1 0.09 0 0 0.095 0 0.02 0.095 0 0.04 0.095 0 0.06 0.095 0 0.08 0.095 0 0.1 0.095 0 0 0.1 0 0.02 0.1 0 0.04 0.1 0 0.06 0.1 0 0.08 0.1 0 0.1 0.1 0 0 0.105 0 0.02 0.105 0 0.04 0.105 0 0.06 0.105 0 0.08 0.105 0 0.1 0.105 0 0 0.11 0 0.02 0.11 0 0.04 0.11 0 0.06 0.11 0 0.08 0.11 0 0.1 0.11 0 0 0.115 0 0.02 0.115 0 0.04 0.115 0 0.06 0.115 0 0.08 0.115 0 0.1 0.115 0 0 0.12 0 0.02 0.12 0 0.04 0.12 0 0.06 0.12 0 0.08 0.12 0 0.1 0.12 0 0 0.125 0 0.02 0.125 0 0.04 0.125 0 0.06 0.125 0 0.08 0.125 0 0.1 0.125 0 0 0.13 0 0.02 0.13 0 0.04 0.13 0 0.06 0.13 0 0.08 0.13 0 0.1 0.13 0 0 0.135 0 0.02 0.135 0 0.04 0.135 0 0.06 0.135 0 0.08 0.135 0 0.1 0.135 0 0 0.14 0 0.02 0.14 0 0.04 0.14 0 0.06 0.14 0 0.08 0.14 0 0.1 0.14 0 0 0.145 0 0.02 0.145 0 0.04 0.145 0 0.06 0.145 0 0.08 0.145 0 0.1 0.145 0 0 0.15 0 0.02 0.15 0 0.04 0.15 0 0.06 0.15 0 0.08 0.15 0 0.1 0.15 0 0 0.155 0 0.02 0.155 0 0.04 0.155 0 0.06 0.155 0 0.08 0.155 0 0.1 0.155 0 0 0.16 0 0.02 0.16 0 0.04 0.16 0 0.06 0.16 0 0.08 0.16 0 0.1 0.16 0 0 0.165 0 0.02 0.165 0 0.04 0.165 0 0.06 0.165 0 0.08 0.165 0 0.1 0.165 0 0 0.17 0 0.02 0.17 0 0.04 0.17 0 0.06 0.17 0 0.08 0.17 0 0.1 0.17 0 0 0.175 0 0.02 0.175 0 0.04 0.175 0 0.06 0.175 0 0.08 0.175 0 0.1 0.175 0 0 0.18 0 0.02 0.18 0 0.04 0.18 0 0.06 0.18 0 0.08 0.18 0 0.1 0.18 0 0 0.185 0 0.02 0.185 0 0.04 0.185 0 0.06 0.185 0 0.08 0.185 0 0.1 0.185 0 0 0.19 0 0.02 0.19 0 0.04 0.19 0 0.06 0.19 0 0.08 0.19 0 0.1 0.19 0 0 0.195 0 0.02 0.195 0 0.04 0.195 0 0.06 0.195 0 0.08 0.195 0 0.1 0.195 0 0 0.2 0 0.02 0.2 0 0.04 0.2 0 0.06 0.2 0 0.08 0.2 0 0.1 0.2 0 0 0.205 0 0.02 0.205 0 0.04 0.205 0 0.06 0.205 0 0.08 0.205 0 0.1 0.205 0 0 0.21 0 0.02 0.21 0 0.04 0.21 0 0.06 0.21 0 0.08 0.21 0 0.1 0.21 0 0 0.215 0 0.02 0.215 0 0.04 0.215 0 0.06 0.215 0 0.08 0.215 0 0.1 0.215 0 0 0.22 0 0.02 0.22 0 0.04 0.22 0 0.06 0.22 0 0.08 0.22 0 0.1 0.22 0 0 0.225 0 0.02 0.225 0 0.04 0.225 0 0.06 0.225 0 0.08 0.225 0 0.1 0.225 0 0 0.23 0 0.02 0.23 0 0.04 0.23 0 0.06 0.23 0 0.08 0.23 0 0.1 0.23 0 0 0.235 0 0.02 0.235 0 0.04 0.235 0 0.06 0.235 0 0.08 0.235 0 0.1 0.235 0 0 0.24 0 0.02 0.24 0 0.04 0.24 0 0.06 0.24 0 0.08 0.24 0 0.1 0.24 0 0 0.245 0 0.02 0.245 0 0.04 0.245 0 0.06 0.245 0 0.08 0.245 0 0.1 0.245 0 0 0.25 0 0.02 0.25 0 0.04 0.25 0 0.06 0.25 0 0.08 0.25 0 0.1 0.25 0 0 0.255 0 0.02 0.255 0 0.04 0.255 0 0.06 0.255 0 0.08 0.255 0 0.1 0.255 0 0 0.26 0 0.02 0.26 0 0.04 0.26 0 0.06 0.26 0 0.08 0.26 0 0.1 0.26 0 0 0.265 0 0.02 0.265 0 0.04 0.265 0 0.06 0.265 0 0.08 0.265 0 0.1 0.265 0 0 0.27 0 0.02 0.27 0 0.04 0.27 0 0.06 0.27 0 0.08 0.27 0 0.1 0.27 0 0 0.275 0 0.02 0.275 0 0.04 0.275 0 0.06 0.275 0 0.08 0.275 0 0.1 0.275 0 0 0.28 0 0.02 0.28 0 0.04 0.28 0 0.06 0.28 0 0.08 0.28 0 0.1 0.28 0 0 0.285 0 0.02 0.285 0 0.04 0.285 0 0.06 0.285 0 0.08 0.285 0 0.1 0.285 0 0 0.29 0 0.02 0.29 0 0.04 0.29 0 0.06 0.29 0 0.08 0.29 0 0.1 0.29 0 0 0.295 0 0.02 0.295 0 0.04 0.295 0 0.06 0.295 0 0.08 0.295 0 0.1 0.295 0 0 0.3 0 0.02 0.3 0 0.04 0.3 0 0.06 0.3 0 0.08 0.3 0 0.1 0.3 0 0 0.305 0 0.02 0.305 0 0.04 0.305 0 0.06 0.305 0 0.08 0.305 0 0.1 0.305 0 0 0.31 0 0.02 0.31 0 0.04 0.31 0 0.06 0.31 0 0.08 0.31 0 0.1 0.31 0 0 0.315 0 0.02 0.315 0 0.04 0.315 0 0.06 0.315 0 0.08 0.315 0 0.1 0.315 0 0 0.32 0 0.02 0.32 0 0.04 0.32 0 0.06 0.32 0 0.08 0.32 0 0.1 0.32 0 0 0.325 0 0.02 0.325 0 0.04 0.325 0 0.06 0.325 0 0.08 0.325 0 0.1 0.325 0 0 0.33 0 0.02 0.33 0 0.04 0.33 0 0.06 0.33 0 0.08 0.33 0 0.1 0.33 0 0 0.335 0 0.02 0.335 0 0.04 0.335 0 0.06 0.335 0 0.08 0.335 0 0.1 0.335 0 0 0.34 0 0.02 0.34 0 0.04 0.34 0 0.06 0.34 0 0.08 0.34 0 0.1 0.34 0 0 0.345 0 0.02 0.345 0 0.04 0.345 0 0.06 0.345 0 0.08 0.345 0 0.1 0.345 0 0 0.35 0 0.02 0.35 0 0.04 0.35 0 0.06 0.35 0 0.08 0.35 0 0.1 0.35 0 0 0.355 0 0.02 0.355 0 0.04 0.355 0 0.06 0.355 0 0.08 0.355 0 0.1 0.355 0 0 0.36 0 0.02 0.36 0 0.04 0.36 0 0.06 0.36 0 0.08 0.36 0 0.1 0.36 0 0 0.365 0 0.02 0.365 0 0.04 0.365 0 0.06 0.365 0 0.08 0.365 0 0.1 0.365 0 0 0.37 0 0.02 0.37 0 0.04 0.37 0 0.06 0.37 0 0.08 0.37 0 0.1 0.37 0 0 0.375 0 0.02 0.375 0 0.04 0.375 0 0.06 0.375 0 0.08 0.375 0 0.1 0.375 0 0 0.38 0 0.02 0.38 0 0.04 0.38 0 0.06 0.38 0 0.08 0.38 0 0.1 0.38 0 0 0.385 0 0.02 0.385 0 0.04 0.385 0 0.06 0.385 0 0.08 0.385 0 0.1 0.385 0 0 0.39 0 0.02 0.39 0 0.04 0.39 0 0.06 0.39 0 0.08 0.39 0 0.1 0.39 0 0 0.395 0 0.02 0.395 0 0.04 0.395 0 0.06 0.395 0 0.08 0.395 0 0.1 0.395 0 0 0.4 0 0.02 0.4 0 0.04 0.4 0 0.06 0.4 0 0.08 0.4 0 0.1 0.4 0 0 0.405 0 0.02 0.405 0 0.04 0.405 0 0.06 0.405 0 0.08 0.405 0 0.1 0.405 0 0 0.41 0 0.02 0.41 0 0.04 0.41 0 0.06 0.41 0 0.08 0.41 0 0.1 0.41 0 0 0.415 0 0.02 0.415 0 0.04 0.415 0 0.06 0.415 0 0.08 0.415 0 0.1 0.415 0 0 0.42 0 0.02 0.42 0 0.04 0.42 0 0.06 0.42 0 0.08 0.42 0 0.1 0.42 0 0 0.425 0 0.02 0.425 0 0.04 0.425 0 0.06 0.425 0 0.08 0.425 0 0.1 0.425 0 0 0.43 0 0.02 0.43 0 0.04 0.43 0 0.06 0.43 0 0.08 0.43 0 0.1 0.43 0 0 0.435 0 0.02 0.435 0 0.04 0.435 0 0.06 0.435 0 0.08 0.435 0 0.1 0.435 0 0 0.44 0 0.02 0.44 0 0.04 0.44 0 0.06 0.44 0 0.08 0.44 0 0.1 0.44 0 0 0.445 0 0.02 0.445 0 0.04 0.445 0 0.06 0.445 0 0.08 0.445 0 0.1 0.445 0 0 0.45 0 0.02 0.45 0 0.04 0.45 0 0.06 0.45 0 0.08 0.45 0 0.1 0.45 0 0 0.455 0 0.02 0.455 0 0.04 0.455 0 0.06 0.455 0 0.08 0.455 0 0.1 0.455 0 0 0.46 0 0.02 0.46 0 0.04 0.46 0 0.06 0.46 0 0.08 0.46 0 0.1 0.46 0 0 0.465 0 0.02 0.465 0 0.04 0.465 0 0.06 0.465 0 0.08 0.465 0 0.1 0.465 0 0 0.47 0 0.02 0.47 0 0.04 0.47 0 0.06 0.47 0 0.08 0.47 0 0.1 0.47 0 0 0.475 0 0.02 0.475 0 0.04 0.475 0 0.06 0.475 0 0.08 0.475 0 0.1 0.475 0 0 0.48 0 0.02 0.48 0 0.04 0.48 0 0.06 0.48 0 0.08 0.48 0 0.1 0.48 0 0 0.485 0 0.02 0.485 0 0.04 0.485 0 0.06 0.485 0 0.08 0.485 0 0.1 0.485 0 0 0.49 0 0.02 0.49 0 0.04 0.49 0 0.06 0.49 0 0.08 0.49 0 0.1 0.49 0 0 0.495 0 0.02 0.495 0 0.04 0.495 0 0.06 0.495 0 0.08 0.495 0 0.1 0.495 0 0 0.5 0 0.02 0.5 0 0.04 0.5 0 0.06 0.5 0 0.08 0.5 0 0.1 0.5 0 0 0.505 0 0.02 0.505 0 0.04 0.505 0 0.06 0.505 0 0.08 0.505 0 0.1 0.505 0 0 0.51 0 0.02 0.51 0 0.04 0.51 0 0.06 0.51 0 0.08 0.51 0 0.1 0.51 0 0 0.515 0 0.02 0.515 0 0.04 0.515 0 0.06 0.515 0 0.08 0.515 0 0.1 0.515 0 0 0.52 0 0.02 0.52 0 0.04 0.52 0 0.06 0.52 0 0.08 0.52 0 0.1 0.52 0 0 0.525 0 0.02 0.525 0 0.04 0.525 0 0.06 0.525 0 0.08 0.525 0 0.1 0.525 0 0 0.53 0 0.02 0.53 0 0.04 0.53 0 0.06 0.53 0 0.08 0.53 0 0.1 0.53 0 0 0.535 0 0.02 0.535 0 0.04 0.535 0 0.06 0.535 0 0.08 0.535 0 0.1 0.535 0 0 0.54 0 0.02 0.54 0 0.04 0.54 0 0.06 0.54 0 0.08 0.54 0 0.1 0.54 0 0 0.545 0 0.02 0.545 0 0.04 0.545 0 0.06 0.545 0 0.08 0.545 0 0.1 0.545 0 0 0.55 0 0.02 0.55 0 0.04 0.55 0 0.06 0.55 0 0.08 0.55 0 0.1 0.55 0 0 0.555 0 0.02 0.555 0 0.04 0.555 0 0.06 0.555 0 0.08 0.555 0 0.1 0.555 0 0 0.56 0 0.02 0.56 0 0.04 0.56 0 0.06 0.56 0 0.08 0.56 0 0.1 0.56 0 0 0.565 0 0.02 0.565 0 0.04 0.565 0 0.06 0.565 0 0.08 0.565 0 0.1 0.565 0 0 0.57 0 0.02 0.57 0 0.04 0.57 0 0.06 0.57 0 0.08 0.57 0 0.1 0.57 0 0 0.575 0 0.02 0.575 0 0.04 0.575 0 0.06 0.575 0 0.08 0.575 0 0.1 0.575 0 0 0.58 0 0.02 0.58 0 0.04 0.58 0 0.06 0.58 0 0.08 0.58 0 0.1 0.58 0 0 0.585 0 0.02 0.585 0 0.04 0.585 0 0.06 0.585 0 0.08 0.585 0 0.1 0.585 0 0 0.59 0 0.02 0.59 0 0.04 0.59 0 0.06 0.59 0 0.08 0.59 0 0.1 0.59 0 0 0.595 0 0.02 0.595 0 0.04 0.595 0 0.06 0.595 0 0.08 0.595 0 0.1 0.595 0 0 0.6 0 0.02 0.6 0 0.04 0.6 0 0.06 0.6 0 0.08 0.6 0 0.1 0.6 0 0 0.605 0 0.02 0.605 0 0.04 0.605 0 0.06 0.605 0 0.08 0.605 0 0.1 0.605 0 0 0.61 0 0.02 0.61 0 0.04 0.61 0 0.06 0.61 0 0.08 0.61 0 0.1 0.61 0 0 0.615 0 0.02 0.615 0 0.04 0.615 0 0.06 0.615 0 0.08 0.615 0 0.1 0.615 0 0 0.62 0 0.02 0.62 0 0.04 0.62 0 0.06 0.62 0 0.08 0.62 0 0.1 0.62 0 0 0.625 0 0.02 0.625 0 0.04 0.625 0 0.06 0.625 0 0.08 0.625 0 0.1 0.625 0 0 0.63 0 0.02 0.63 0 0.04 0.63 0 0.06 0.63 0 0.08 0.63 0 0.1 0.63 0 0 0.635 0 0.02 0.635 0 0.04 0.635 0 0.06 0.635 0 0.08 0.635 0 0.1 0.635 0 0 0.64 0 0.02 0.64 0 0.04 0.64 0 0.06 0.64 0 0.08 0.64 0 0.1 0.64 0 0 0.645 0 0.02 0.645 0 0.04 0.645 0 0.06 0.645 0 0.08 0.645 0 0.1 0.645 0 0 0.65 0 0.02 0.65 0 0.04 0.65 0 0.06 0.65 0 0.08 0.65 0 0.1 0.65 0 0 0.655 0 0.02 0.655 0 0.04 0.655 0 0.06 0.655 0 0.08 0.655 0 0.1 0.655 0 0 0.66 0 0.02 0.66 0 0.04 0.66 0 0.06 0.66 0 0.08 0.66 0 0.1 0.66 0 0 0.665 0 0.02 0.665 0 0.04 0.665 0 0.06 0.665 0 0.08 0.665 0 0.1 0.665 0 0 0.67 0 0.02 0.67 0 0.04 0.67 0 0.06 0.67 0 0.08 0.67 0 0.1 0.67 0 0 0.675 0 0.02 0.675 0 0.04 0.675 0 0.06 0.675 0 0.08 0.675 0 0.1 0.675 0 0 0.68 0 0.02 0.68 0 0.04 0.68 0 0.06 0.68 0 0.08 0.68 0 0.1 0.68 0 0 0.685 0 0.02 0.685 0 0.04 0.685 0 0.06 0.685 0 0.08 0.685 0 0.1 0.685 0 0 0.69 0 0.02 0.69 0 0.04 0.69 0 0.06 0.69 0 0.08 0.69 0 0.1 
[...]
			<CellData Scalars="Density">
				<DataArray Name="Density" type="Float32" format="ascii">
 1 1 1 1 1 1 1 1 1 1 1 1 1 1 1 1 1 1 1 1 1 1 1 1 1 1 1 1 1 1 1 1 1 1 1 1 1 1 1 1 1 1 1 1 1 1 1 1 1 1 1 1 1 1 1 1 1 1 1 1 1 1 1 1 1 1 1 1 1 1 1 1 1 1 1 1 1 1 1 1 1 1 1 1 1 1 1 1 1 1 1 1 1 1 1 1 1 1 1 1 1 1 1 1 1 1 1 1 1 1 1 1 1 1 1 1 1 1 1 1 1 1 1 1 1 1 1 1 1 1 1 1 1 1 1 1 1 1 1 1 1 1 1 1 1 1 1 1 1 1 1 1 1 1 1 1 1 1 1 1 1 1 1 1 1 1 1 1 1 1 1 1 1 1 1 1 1 1 1 1 1 1 1 1 1 1 1 1 1 1 0.999999 0.999999 0.999999 0.999999 0.999999 0.999997 0.999997 0.999997 0.999997 0.999997 0.999992 0.999992 0.999992 0.999992 0.999992 0.999979 0.999978 0.999978 0.999978 0.999978 0.999944 0.999943 0.999942 0.999941 0.999941 0.999855 0.999851 0.999853 0.99985 0.999851 0.999643 0.999623 0.999644 0.999646 0.999651 0.999195 0.999126 0.9992 0.999225 0.999249 0.998362 0.998186 0.99837 0.998455 0.998534 0.99697 0.996601 0.996982 0.997196 0.997379 0.994862 0.994197 0.994889 0.995319 0.995631 0.991932 0.990891 0.991994 0.99266 0.993002 0.988122 0.986735 0.988272 0.989006 0.989185 0.983337 0.981796 0.983498 0.983767 0.983919 0.977457 0.976116 0.977316 0.976446 0.977181 0.970301 0.969493 0.969801 0.967558 0.969308 0.961706 0.96147 0.961137 0.957947 0.960626 0.951746 0.951946 0.951481 0.947905 0.951127 0.940731 0.941101 0.940971 0.937542 0.940818 0.928929 0.929135 0.929535 0.926757 0.929688 0.916542 0.916541 0.917428 0.915469 0.917715 0.903775 0.903678 0.904775 0.903582 0.904697 0.890755 0.890663 0.891624 0.891044 0.891004 0.877521 0.877427 0.878246 0.877883 0.877312 0.864101 0.863949 0.864697 0.864508 0.863704 0.850572 0.850355 0.850966 0.850952 0.850086 0.83697 0.836742 0.837087 0.837262 0.836524 0.823349 0.823091 0.823088 0.823519 0.822982 0.809795 0.809476 0.809138 0.809871 0.809448 0.796296 0.795967 0.79535 0.796341 0.795918 0.782835 0.782551 0.78173 0.782909 0.78243 0.769439 0.769219 0.768294 0.769577 0.769019 0.756136 0.755968 0.755038 0.756344 0.755714 0.742948 0.742815 0.741951 0.743218 0.74254 0.72989 0.729779 0.729024 0.73021 0.729511 0.716979 0.716881 0.716251 0.717331 0.716635 0.704217 0.704136 0.703629 0.7046 0.70392 0.691612 0.691565 0.691158 0.692029 0.691372 0.679191 0.679196 0.678855 0.67963 0.678999 0.666964 0.667035 0.666733 0.66741 0.666808 0.654931 0.655071 0.6548 0.655378 0.654805 0.643097 0.6433 0.643063 0.643541 0.642996 0.631468 0.631726 0.631527 0.631905 0.631388 0.62005 0.620349 0.620198 0.620477 0.619987 0.608848 0.609176 0.609076 0.609261 0.6088 0.597867 0.598212 0.598162 0.598264 0.597835 0.587107 0.587466 0.587449 0.587488 0.587101 0.576581 0.576952 0.576942 0.576939 0.576607 0.5663 0.566685 0.56666 0.566624 0.566359 0.55627 0.55667 0.556625 0.556561 0.55636 0.546503 0.546913 0.546853 0.546762 0.546614 0.537009 0.537422 0.537353 0.537239 0.537131 0.527802 0.528207 0.528136 0.528005 0.527925 0.518895 0.519282 0.519213 0.519073 0.519008 0.5103 0.51066 0.510598 0.510456 0.510398 0.502034 0.502358 0.502307 0.50217 0.502109 0.494111 0.494394 0.494354 0.494232 0.494159 0.486548 0.486786 0.486754 0.486662 0.48657 0.479355 0.479555 0.479511 0.47947 0.479362 0.472562 0.472728 0.472635 0.472667 0.472559 0.466189 0.466327 0.466164 0.466279 0.466179 0.460249 0.460366 0.460134 0.460329 0.460234 0.454754 0.45486 0.454565 0.454833 0.454739 0.449716 0.449821 0.449477 0.449802 0.449705 0.445144 0.445258 0.444877 0.445244 0.44514 0.441042 0.441175 0.440771 0.441164 0.441045 0.43741 0.43757 0.437152 0.437558 0.437409 0.43424 0.434433 0.434009 0.434421 0.434224 0.431516 0.431745 0.431321 0.431736 0.431494 0.429215 0.429481 0.429061 0.429474 0.429194 0.427305 0.427609 0.427196 0.427602 0.427293 0.425753 0.426095 0.425685 0.42608 0.425748 0.42453 0.424898 0.424488 0.424862 0.424522 0.423579 0.423947 0.423549 0.423888 0.423562 0.422837 0.423172 0.42281 0.423105 0.422813 0.422253 0.422528 0.422229 0.422473 0.422224 0.421783 0.421991 0.421765 0.421953 0.421752 0.421387 0.421532 0.421377 0.421511 0.421355 0.42103 0.421122 0.421027 0.421114 0.420998 0.420682 0.420733 0.420683 0.420732 0.420648 0.420312 0.420327 0.420307 0.420336 0.420275 0.419885 0.419874 0.419878 0.419893 0.419848 0.419379 0.419348 0.419358 0.41937 0.419335 0.418756 0.418721 0.418728 0.418737 0.418713 0.417988 0.41796 0.417962 0.417968 0.417952 0.417058 0.417041 0.417039 0.417043 0.417031 0.415964 0.415955 0.41595 0.415953 0.415941 0.414713 0.414708 0.414702 0.414706 0.414693 0.413328 0.413327 0.413321 0.413326 0.413311 0.411859 0.411859 0.411855 0.411861 0.411844 0.410372 0.410374 0.41037 0.410377 0.41036 0.408949 0.408951 0.408948 0.408955 0.408938 0.407677 0.40768 0.407675 0.407683 0.407666 0.406642 0.406643 0.406636 0.406644 0.406629 0.405915 0.405913 0.405904 0.405911 0.405898 0.384797 0.385261 0.385637 0.385797 0.385479 0.313387 0.313904 0.314336 0.314508 0.314147 0.263914 0.264017 0.264098 0.264136 0.264055 0.262548 0.262509 0.262463 0.26246 0.262473 0.262947 0.262907 0.262859 0.262859 0.262869 0.263418 0.263377 0.263326 0.26333 0.263336 0.263925 0.263883 0.26383 0.263838 0.263839 0.264436 0.264395 0.264339 0.26435 0.264347 0.264925 0.264885 0.264824 0.264842 0.264832 0.265374 0.265336 0.265267 0.265292 0.265275 0.26577 0.265734 0.265655 0.265691 0.265663 0.266108 0.266076 0.265983 0.266033 0.265991 0.266389 0.266359 0.26625 0.266317 0.266259 0.266618 0.266588 0.266461 0.266548 0.266469 0.266799 0.266768 0.266624 0.266732 0.266629 0.26694 0.266906 0.266742 0.266877 0.266744 0.267048 0.267012 0.266819 0.266993 0.26682 0.267131 0.267103 0.266865 0.2671 0.266859 0.267196 0.267184 0.266868 0.267198 0.266861 0.267234 0.267239 0.266832 0.267282 0.266831 0.267237 0.267245 0.266771 0.26733 0.266806 0.26721 0.267191 0.266722 0.267299 0.266799 0.267176 0.267049 0.266681 0.26713 0.2668 0.267132 0.266755 0.266604 0.26675 0.266799 0.267019 0.26621 0.266424 0.26604 0.266716 0.266695 0.265297 0.266002 0.264926 0.266429 0.265788 0.263843 0.265001 0.263303 0.265616 0.26361 0.261428 0.26242 0.260837 0.263532 0.258845 0.257405 0.256834 0.256763 0.25897 0.248783 0.249462 0.245775 0.248718 0.249073 0.231397 0.236454 0.229789 0.235794 0.231211 0.204157 0.212808 0.205439 0.213636 0.203584 0.172582 0.180331 0.176357 0.182936 0.172135 0.141816 0.143685 0.143186 0.146174 0.143061 0.128351 0.128526 0.128779 0.129057 0.128825 0.125556 0.125591 0.125625 0.125639 0.125628 0.125089 0.125093 0.125096 0.125097 0.125096 0.125014 0.125014 0.125014 0.125014 0.125014 0.125002 0.125002 0.125002 0.125002 0.125002 0.125 0.125 0.125 0.125 0.125 0.125 0.125 0.125 0.125 0.125 0.125 0.125 0.125 0.125 0.125 0.125 0.125 0.125 0.125 0.125 0.125 0.125 0.125 0.125 0.125 0.125 0.125 0.125 0.125 0.125 0.125 0.125 0.125 0.125 0.125 0.125 0.125 0.125 0.125 0.125 0.125 0.125 0.125 0.125 0.125 0.125 0.125 0.125 0.125 0.125 0.125 0.125 0.125 0.125 0.125 0.125 0.125 0.125 0.125 0.125 0.125 0.125 0.125 0.125 0.125 0.125 0.125 0.125 0.125 0.125 0.125 0.125 0.125 0.125 0.125 0.125 0.125 0.125 0.125 0.125 0.125 0.125 0.125 0.125 0.125 0.125 0.125 0.125 0.125 0.125 0.125 0.125 0.125 0.125 0.125 0.125 0.125 0.125 0.125 0.125 0.125 0.125 0.125 0.125 0.125 0.125 0.125 0.125 0.125 0.125 0.125 0.125 0.125 0.125 0.125 0.125 0.125 0.125 0.125 0.125 0.125 0.125 0.125 0.125 0.125 0.125 0.125 0.125 0.125 0.125 0.125 0.125 0.125 0.125 0.125 0.125 0.125 0.125 0.125 0.125
				</DataArray>
				<DataArray Name="Energy" type="Float32" format="ascii">
 2.5 2.5 2.5 2.5 2.5 2.5 2.5 2.5 2.5 2.5 2.5 2.5 2.5 2.5 2.5 2.5 2.5 2.5 2.5 2.5 2.5 2.5 2.5 2.5 2.5 2.5 2.5 2.5 2.5 2.5 2.5 2.5 2.5 2.5 2.5 2.5 2.5 2.5 2.5 2.5 2.5 2.5 2.5 2.5 2.5 2.5 2.5 2.5 2.5 2.5 2.5 2.5 2.5 2.5 2.5 2.5 2.5 2.5 2.5 2.5 2.5 2.5 2.5 2.5 2.5 2.5 2.5 2.5 2.5 2.5 2.5 2.5 2.5 2.5 2.5 2.5 2.5 2.5 2.5 2.5 2.5 2.5 2.5 2.5 2.5 2.5 2.5 2.5 2.5 2.5 2.5 2.5 2.5 2.5 2.5 2.5 2.5 2.5 2.5 2.5 2.5 2.5 2.5 2.5 2.5 2.5 2.5 2.5 2.5 2.5 2.5 2.5 2.5 2.5 2.5 2.5 2.5 2.5 2.5 2.5 2.5 2.5 2.5 2.5 2.5 2.5 2.5 2.5 2.5 2.5 2.5 2.5 2.5 2.5 2.5 2.5 2.5 2.5 2.5 2.5 2.5 2.5 2.5 2.5 2.5 2.5 2.5 2.5 2.5 2.5 2.5 2.5 2.5 2.5 2.5 2.5 2.5 2.5 2.5 2.5 2.5 2.5 2.5 2.5 2.5 2.5 2.5 2.5 2.5 2.5 2.5 2.5 2.5 2.5 2.5 2.5 2.5 2.5 2.5 2.5 2.5 2.5 2.5 2.5 2.5 2.5 2.5 2.5 2.5 2.5 2.5 2.5 2.5 2.5 2.5 2.5 2.5 2.5 2.5 2.5 2.49999 2.49999 2.49999 2.49999 2.49999 2.49998 2.49998 2.49998 2.49998 2.49998 2.49994 2.49994 2.49994 2.49994 2.49994 2.49986 2.49985 2.49985 2.49985 2.49985 2.49964 2.49962 2.49964 2.49965 2.49965 2.49919 2.49913 2.4992 2.49922 2.49925 2.49836 2.49819 2.49837 2.49845 2.49853 2.49697 2.4966 2.49698 2.4972 2.49738 2.49486 2.49419 2.49489 2.49532 2.49563 2.49193 2.49088 2.49199 2.49265 2.49299 2.48811 2.4867 2.48825 2.48899 2.48917 2.4833 2.48173 2.48346 2.48372 2.48387 2.47738 2.476 2.47723 2.47634 2.47708 2.47015 2.4693 2.46964 2.46734 2.46912 2.46144 2.46115 2.46086 2.45757 2.4603 2.45128 2.45143 2.45102 2.44731 2.45062 2.43998 2.4403 2.44025 2.43666 2.44005 2.4278 2.42793 2.42845 2.4255 2.42857 2.41492 2.41483 2.41588 2.41375 2.41612 2.40154 2.40135 2.40264 2.40129 2.40248 2.38779 2.3876 2.38876 2.38804 2.38798 2.37368 2.37351 2.37452 2.37403 2.37339 2.35926 2.35903 2.35997 2.35966 2.35875 2.34458 2.3443 2.34508 2.34497 2.34398 2.32968 2.32941 2.32988 2.33 2.32913 2.31463 2.31434 2.3144 2.31484 2.31417 2.29951 2.29917 2.29882 2.29964 2.29908 2.28431 2.28399 2.28328 2.28443 2.28385 2.26901 2.26877 2.26779 2.26919 2.26852 2.25364 2.2535 2.25236 2.25392 2.25313 2.23822 2.23817 2.23699 2.23861 2.23771 2.22279 2.2228 2.22167 2.22326 2.22229 2.20735 2.20741 2.20638 2.2079 2.20689 2.19194 2.19203 2.19113 2.19254 2.19151 2.17654 2.17667 2.1759 2.17719 2.17618 2.16118 2.16137 2.1607 2.16188 2.16089 2.14589 2.14616 2.14555 2.14663 2.14566 2.13069 2.13105 2.13047 2.13144 2.1305 2.11557 2.11604 2.11548 2.11633 2.11542 2.10055 2.10111 2.10058 2.10131 2.10043 2.08564 2.08628 2.08579 2.08639 2.08555 2.07084 2.07155 2.07111 2.07159 2.07078 2.05618 2.05694 2.05655 2.05691 2.05614 2.04166 2.04245 2.04212 2.04237 2.04165 2.02729 2.0281 2.02782 2.02798 2.02731 2.01309 2.01392 2.01364 2.01375 2.01315 1.99908 1.99993 1.99963 1.99969 1.99919 1.98528 1.98614 1.98582 1.98584 1.98543 1.9717 1.97258 1.97225 1.97221 1.97188 1.95838 1.95926 1.95892 1.95885 1.95857 1.94534 1.9462 1.94586 1.94576 1.94553 1.9326 1.93343 1.9331 1.93299 1.93278 1.92019 1.92098 1.92067 1.92055 1.92035 1.90816 1.90889 1.9086 1.90848 1.90828 1.89653 1.89719 1.89693 1.89683 1.89661 1.88533 1.88592 1.88568 1.88562 1.88537 1.8746 1.87513 1.87487 1.8749 1.87462 1.8644 1.86487 1.86455 1.86468 1.86441 1.85478 1.8552 1.85477 1.85503 1.85477 1.84576 1.84614 1.84561 1.84599 1.84575 1.83738 1.83774 1.83711 1.83762 1.83737 1.82969 1.83004 1.82933 1.82993 1.82968 1.8227 1.82306 1.8223 1.82296 1.8227 1.81645 1.81683 1.81603 1.81674 1.81646 1.81094 1.81136 1.81054 1.81128 1.81094 1.80618 1.80664 1.80583 1.80657 1.80616 1.80216 1.80268 1.80187 1.80261 1.80213 1.79886 1.79942 1.79863 1.79937 1.79883 1.79623 1.79685 1.79607 1.7968 1.79622 1.79423 1.79491 1.79414 1.79485 1.79423 1.79283 1.79354 1.79278 1.79345 1.79282 1.79194 1.79264 1.79191 1.79252 1.79192 1.79147 1.7921 1.79145 1.79198 1.79144 1.79136 1.79188 1.79134 1.79178 1.79132 1.79156 1.79195 1.79155 1.79189 1.79151 1.79203 1.79231 1.79203 1.79227 1.79198 1.79276 1.79294 1.79277 1.79293 1.79271 1.79378 1.79388 1.79379 1.79388 1.79372 1.79511 1.79514 1.79511 1.79516 1.79505 1.7968 1.79678 1.7968 1.79682 1.79674 1.79896 1.7989 1.79893 1.79894 1.79888 1.80165 1.80157 1.8016 1.8016 1.80157 1.80497 1.80489 1.80491 1.8049 1.80489 1.80899 1.80891 1.80892 1.8089 1.80891 1.81375 1.81368 1.81368 1.81365 1.81366 1.81923 1.81915 1.81915 1.81911 1.81913 1.82532 1.82523 1.82522 1.82518 1.8252 1.83181 1.83172 1.8317 1.83165 1.83167 1.83842 1.83832 1.8383 1.83825 1.83827 1.84479 1.84468 1.84465 1.8446 1.84461 1.8505 1.8504 1.85036 1.85031 1.85031 1.85517 1.85506 1.85503 1.85498 1.85497 1.85844 1.85835 1.85832 1.85827 1.85825 1.9604 1.95791 1.95592 1.95509 1.95662 2.40707 2.40291 2.3995 2.39817 2.40083 2.85823 2.85687 2.85585 2.85541 2.85618 2.87305 2.87322 2.87357 2.87356 2.87332 2.86864 2.8688 2.86918 2.86912 2.86892 2.86348 2.86362 2.86402 2.86391 2.86375 2.85794 2.85806 2.8585 2.85831 2.8582 2.85238 2.85247 2.85296 2.85268 2.85264 2.84708 2.84715 2.8477 2.8473 2.84733 2.84225 2.84229 2.84291 2.84238 2.84249 2.83802 2.83802 2.83873 2.83804 2.83825 2.83443 2.83438 2.83523 2.83435 2.83465 2.8315 2.83138 2.83238 2.83129 2.8317 2.82918 2.82897 2.83017 2.82882 2.82935 2.8274 2.82705 2.82854 2.82686 2.82753 2.82609 2.82556 2.8274 2.82533 2.82618 2.82517 2.82443 2.82666 2.82417 2.82519 2.82458 2.82361 2.82627 2.82335 2.8245 2.82426 2.82302 2.82607 2.82278 2.824 2.82411 2.82253 2.82601 2.82234 2.82366 2.82403 2.82197 2.82609 2.82189 2.82356 2.824 2.82122 2.82639 2.82118 2.82371 2.82406 2.82014 2.82683 2.81992 2.82403 2.82418 2.81841 2.82715 2.81778 2.82444 2.82405 2.81559 2.82704 2.81421 2.82454 2.82304 2.81117 2.82582 2.80887 2.82376 2.8195 2.80438 2.82201 2.8013 2.82067 2.8104 2.79336 2.81123 2.79 2.81198 2.78975 2.77511 2.78695 2.77144 2.79219 2.74438 2.73876 2.73654 2.73458 2.74764 2.66053 2.6762 2.65771 2.67234 2.66141 2.51657 2.55463 2.52556 2.55804 2.51497 2.32475 2.36626 2.34623 2.38043 2.32339 2.11593 2.12901 2.12544 2.14572 2.12462 2.02198 2.02316 2.02483 2.02677 2.02516 2.00357 2.0038 2.00402 2.00411 2.00403 2.00057 2.0006 2.00061 2.00062 2.00062 2.00009 2.00009 2.00009 2.00009 2.00009 2.00001 2.00001 2.00001 2.00001 2.00001 2 2 2 2 2 2 2 2 2 2 2 2 2 2 2 2 2 2 2 2 2 2 2 2 2 2 2 2 2 2 2 2 2 2 2 2 2 2 2 2 2 2 2 2 2 2 2 2 2 2 2 2 2 2 2 2 2 2 2 2 2 2 2 2 2 2 2 2 2 2 2 2 2 2 2 2 2 2 2 2 2 2 2 2 2 2 2 2 2 2 2 2 2 2 2 2 2 2 2 2 2 2 2 2 2 2 2 2 2 2 2 2 2 2 2 2 2 2 2 2 2 2 2 2 2 2 2 2 2 2 2 2 2 2 2 2 2 2 2 2
				</DataArray>
				<DataArray Name="F1" type="Float32" format="ascii">
 1 1 1 1 1 1 1 1 1 1 1 1 1 1 1 1 1 1 1 1 1 1 1 1 1 1 1 1 1 1 1 1 1 1 1 1 1 1 1 1 1 1 1 1 1 1 1 1 1 1 1 1 1 1 1 1 1 1 1 1 1 1 1 1 1 1 1 1 1 1 1 1 1 1 1 1 1 1 1 1 1 1 1 1 1 1 1 1 1 1 1 1 1 1 1 1 1 1 1 1 1 1 1 1 1 1 1 1 1 1 1 1 1 1 1 1 1 1 1 1 1 1 1 1 1 1 1 1 1 1 1 1 1 1 1 1 1 1 1 1 1 1 1 1 1 1 1 1 1 1 1 1 1 1 1 1 1 1 1 1 1 1 1 1 1 1 1 1 1 1 1 1 1 1 1 1 1 1 1 1 1 1 1 1 1 1 1 1 1 1 1 1 1 1 1 1 1 1 1 1 1 1 1 1 1 1 1 1 1 1 1 1 1 1 1 1 1 1 1 1 1 1 1 1 1 1 1 1 1 1 1 1 1 1 1 1 1 1 1 1 1 1 1 1 1 1 1 1 1 1 1 1 1 1 1 1 1 1 1 1 1 1 1 1 1 1 1 1 1 1 1 1 1 1 1 1 1 1 1 1 1 1 1 1 1 1 1 1 1 1 1 1 1 1 1 1 1 1 1 1 1 1 1 1 1 1 1 1 1 1 1 1 1 1 1 1 1 1 1 1 1 1 1 1 1 1 1 1 1 1 1 1 1 1 1 1 1 1 1 1 1 1 1 1 1 1 1 1 1 1 1 1 1 1 1 1 1 1 1 1 1 1 1 1 1 1 1 1 1 1 1 1 1 1 1 1 1 1 1 1 1 1 1 1 1 1 1 1 1 1 1 1 1 1 1 1 1 1 1 1 1 1 1 1 1 1 1 1 1 1 1 1 1 1 1 1 1 1 1 1 1 1 1 1 1 1 1 1 1 1 1 1 1 1 1 1 1 1 1 1 1 1 1 1 1 1 1 1 1 1 1 1 1 1 1 1 1 1 1 1 1 1 1 1 1 1 1 1 1 1 1 1 1 1 1 1 1 1 1 1 1 1 1 1 1 1 1 1 1 1 1 1 1 1 1 1 1 1 1 1 1 1 1 1 1 1 1 1 1 1 1 1 1 1 1 1 1 1 1 1 1 1 1 1 1 1 1 1 1 1 1 1 1 1 1 1 1 1 1 1 1 1 1 1 1 1 1 1 1 1 1 1 1 1 1 1 1 1 1 1 1 1 1 1 1 1 1 1 1 1 1 1 1 1 1 1 1 1 1 1 1 1 1 1 1 1 1 1 1 1 1 1 1 1 1 1 1 1 1 1 1 1 1 1 1 1 1 1 1 1 1 1 1 1 1 1 1 1 1 1 1 1 1 1 1 1 1 1 1 1 1 1 1 1 1 1 1 1 1 1 1 1 1 1 1 1 1 1 1 1 1 1 1 1 1 1 1 1 1 1 1 1 1 1 1 0.855536 0.858837 0.861565 0.862644 0.86048 0.358086 0.361882 0.365116 0.36632 0.363765 0.0116034 0.0125812 0.0134531 0.0137465 0.0130882 3.24603e-12 2.61499e-12 6.16432e-12 0 3.29375e-13 0 0 0 0 0 0 0 0 0 0 0 0 0 0 0 0 0 0 0 0 0 0 0 0 0 0 0 0 0 0 0 0 0 0 0 0 0 0 0 0 0 0 0 0 0 0 0 0 0 0 0 0 0 0 0 0 0 0 0 0 0 0 0 0 0 0 0 0 0 0 0 0 0 0 0 0 0 0 0 0 0 0 0 0 0 0 0 0 0 0 0 0 0 0 0 0 0 0 0 0 0 0 0 0 0 0 0 0 0 0 0 0 0 0 0 0 0 0 0 0 0 0 0 0 0 0 0 0 0 0 0 0 0 0 0 0 0 0 0 0 0 0 0 0 0 0 0 0 0 0 0 0 0 0 0 0 0 0 0 0 0 0 0 0 0 0 0 0 0 0 0 0 0 0 0 0 0 0 0 0 0 0 0 0 0 0 0 0 0 0 0 0 0 0 0 0 0 0 0 0 0 0 0 0 0 0 0 0 0 0 0 0 0 0 0 0 0 0 0 0 0 0 0 0 0 0 0 0 0 0 0 0 0 0 0 0 0 0 0 0 0 0 0 0 0 0 0 0 0 0 0 0 0 0 0 0 0 0 0 0 0 0 0 0 0 0 0 0 0 0 0 0 0 0 0 0 0 0 0 0 0 0 0 0 0 0 0 0 0 0 0 0 0 0 0 0 0 0 0 0 0 0 0 0 0 0 0 0 0 0 0 0 0 0 0
				</DataArray>
				<DataArray Name="F2" type="Float32" format="ascii">
 0 0 0 0 0 0 0 0 0 0 0 0 0 0 0 0 0 0 0 0 0 0 0 0 0 0 0 0 0 0 0 0 0 0 0 0 0 0 0 0 0 0 0 0 0 0 0 0 0 0 0 0 0 0 0 0 0 0 0 0 0 0 0 0 0 0 0 0 0 0 0 0 0 0 0 0 0 0 0 0 0 0 0 0 0 0 0 0 0 0 0 0 0 0 0 0 0 0 0 0 0 0 0 0 0 0 0 0 0 0 0 0 0 0 0 0 0 0 0 0 0 0 0 0 0 0 0 0 0 0 0 0 0 0 0 0 0 0 0 0 0 0 0 0 0 0 0 0 0 0 0 0 0 0 0 0 0 0 0 0 0 0 0 0 0 0 0 0 0 0 0 0 0 0 0 0 0 0 0 0 0 0 0 0 0 0 0 0 0 0 0 0 0 0 0 0 0 0 0 0 0 0 0 0 0 0 0 0 0 0 0 0 0 0 0 0 0 0 0 0 0 0 0 0 0 0 0 0 0 0 0 0 0 0 0 0 0 0 0 0 0 0 0 0 0 0 0 0 0 0 0 0 0 0 0 0 0 0 0 0 0 0 0 0 0 0 0 0 0 0 0 0 0 0 0 0 0 0 0 0 0 0 0 0 0 0 0 0 0 0 0 0 0 0 0 0 0 0 0 0 0 0 0 0 0 0 0 0 0 0 0 0 0 0 0 0 0 0 0 0 0 0 0 0 0 0 0 0 0 0 0 0 0 0 0 0 0 0 0 0 0 0 0 0 0 0 0 0 0 0 0 0 0 0 0 0 0 0 0 0 0 0 0 0 0 0 0 0 0 0 0 0 0 0 0 0 0 0 0 0 0 0 0 0 0 0 0 0 0 0 0 0 0 0 0 0 0 0 0 0 0 0 0 0 0 0 0 0 0 0 0 0 0 0 0 0 0 0 0 0 0 0 0 0 0 0 0 0 0 0 0 0 0 0 0 0 0 0 0 0 0 0 0 0 0 0 0 0 0 0 0 0 0 0 0 0 0 0 0 0 0 0 0 0 0 0 0 0 0 0 0 0 0 0 0 0 0 0 0 0 0 0 0 0 0 0 0 0 0 0 0 0 0 0 0 0 0 0 0 0 0 0 0 0 0 0 0 0 0 0 0 0 0 0 0 0 0 0 0 0 0 0 0 0 0 0 0 0 0 0 0 0 0 0 0 0 0 0 0 0 0 0 0 0 0 0 0 0 0 0 0 0 0 0 0 0 0 0 0 0 0 0 0 0 0 0 0 0 0 0 0 0 0 0 0 0 0 0 0 0 0 0 0 0 0 0 0 0 0 0 0 0 0 0 0 0 0 0 0 0 0 0 0 0 0 0 0 0 0 0 0 0 0 0 0 0 0 0 0 0 0 0 0 0 0 0 0 0 0 0 0 0 0 0 0 0 0 0 0 0 0 0 0 0 0 0 0 0 0 0 0 0 0 0 0 0 0 0 0 0 2.5144e-14 1.26273e-14 5.51482e-15 0 0 0.144464 0.141163 0.138435 0.137356 0.13952 0.641914 0.638118 0.634884 0.63368 0.636235 0.988397 0.987419 0.986547 0.986253 0.986912 1 1 1 1 1 1 1 1 1 1 1 1 1 1 1 1 1 1 1 1 1 1 1 1 1 1 1 1 1 1 1 1 1 1 1 1 1 1 1 1 1 1 1 1 1 1 1 1 1 1 1 1 1 1 1 1 1 1 1 1 1 1 1 1 1 1 1 1 1 1 1 1 1 1 1 1 1 1 1 1 1 1 1 1 1 1 1 1 1 1 1 1 1 1 1 1 1 1 1 1 1 1 1 1 1 1 1 1 1 1 1 1 1 1 1 1 1 1 1 1 1 1 1 1 1 1 1 1 1 1 1 1 1 1 1 1 1 1 1 1 1 1 1 1 1 1 1 1 1 1 1 1 1 1 1 1 1 1 1 1 1 1 1 1 1 1 1 1 1 1 1 1 1 1 1 1 1 1 1 1 1 1 1 1 1 1 1 1 1 1 1 1 1 1 1 1 1 1 1 1 1 1 1 1 1 1 1 1 1 1 1 1 1 1 1 1 1 1 1 1 1 1 1 1 1 1 1 1 1 1 1 1 1 1 1 1 1 1 1 1 1 1 1 1 1 1 1 1 1 1 1 1 1 1 1 1 1 1 1 1 1 1 1 1 1 1 1 1 1 1 1 1 1 1 1 1 1 1 1 1 1 1 1 1 1 1 1 1 1 1 1 1 1 1 1 1 1 1 1 1 1 1 1 1 1 1 1 1 1 1 1 1 1 1 1 1 1 1 1 1
				</DataArray>
				<DataArray Name="F3" type="Float32" format="ascii">