<?xml version="1.0"?>
<VTKFile type="PolyData">
	<PolyData>
		<Piece NumberOfPoints="1206" NumberOfPolys="1000">
			<Points>
				<DataArray type="Float32" NumberOfComponents="3" format="ascii">
 0 0 0 0.02 0 0 0.04 0 0 0.06 0 0 0.08 0 0 0.1 0 0 0 0.005 0 0.02 0.005 0 0.04 0.005 0 0.06 0.005 0 0.08 0.005 0 0.1 0.005 0 0 0.01 0 0.02 0.01 0 0.04 0.01 0 0.06 0.01 0 0.08 0.01 0 0.1 0.01 0 0 0.015 0 0.02 0.015 0 0.04 0.015 0 0.06 0.015 0 0.08 0.015 0 0.1 0.015 0 0 0.02 0 0.02 0.02 0 0.04 0.02 0 0.06 0.02 0 0.08 0.02 0 0.1 0.02 0 0 0.025 0 0.02 0.025 0 0.04 0.025 0 0.06 0.025 0 0.08 0.025 0 0.1 0.025 0 0 0.03 0 0.02 0.03 0 0.04 0.03 0 0.06 0.03 0 0.08 0.03 0 0.1 0.03 0 0 0.035 0 0.02 0.035 0 0.04 0.035 0 0.06 0.035 0 0.08 0.035 0 0.1 0.035 0 0 0.04 0 0.02 0.04 0 0.04 0.04 0 0.06 0.04 0 0.08 0.04 0 0.1 0.04 0 0 0.045 0 0.02 0.045 0 0.04 0.045 0 0.06 0.045 0 0.08 0.045 0 0.1 0.045 0 0 0.05 0 0.02 0.05 0 0.04 0.05 0 0.06 0.05 0 0.08 0.05 0 0.1 0.05 0 0 0.055 0 0.02 0.055 0 0.04 0.055 0 0.06 0.055 0 0.08 0.055 0 0.1 0.055 0 0 0.06 0 0.02 0.06 0 0.04 0.06 0 0.06 0.06 0 0.08 0.06 0 0.1 0.06 0 0 0.065 0 0.02 0.065 0 0.04 0.065 0 0.06 0.065 0 0.08 0.065 0 0.1 0.065 0 0 0.07 0 0.02 0.07 0 0.04 0.07 0 0.06 0.07 0 0.08 0.07 0 0.1 0.07 0 0 0.075 0 0.02 0.075 0 0.04 0.075 0 0.06 0.075 0 0.08 0.075 0 0.1 0.075 0 0 0.08 0 0.02 0.08 0 0.04 0.08 0 0.06 0.08 0 0.08 0.08 0 0.1 0.08 0 0 0.085 0 0.02 0.085 0 0.04 0.085 0 0.06 0.085 0 0.08 0.085 0 0.1 0.085 0 0 0.09 0 0.02 0.09 0 0.04 0.09 0 0.06 0.09 0 0.08 0.09 0 0.1 0.09 0 0 0.095 0 0.02 0.095 0 0.04 0.095 0 0.06 0.095 0 0.08 0.095 0 0.1 0.095 0 0 0.1 0 0.02 0.1 0 0.04 0.1 0 0.06 0.1 0 0.08 0.1 0 0.1 0.1 0 0 0.105 0 0.02 0.105 0 0.04 0.105 0 0.06 0.105 0 0.08 0.105 0 0.1 0.105 0 0 0.11 0 0.02 0.11 0 0.04 0.11 0 0.06 0.11 0 0.08 0.11 0 0.1 0.11 0 0 0.115 0 0.02 0.115 0 0.04 0.115 0 0.06 0.115 0 0.08 0.115 0 0.1 0.115 0 0 0.12 0 0.02 0.12 0 0.04 0.12 0 0.06 0.12 0 0.08 0.12 0 0.1 0.12 0 0 0.125 0 0.02 0.125 0 0.04 0.125 0 0.06 0.125 0 0.08 0.125 0 0.1 0.125 0 0 0.13 0 0.02 0.13 0 0.04 0.13 0 0.06 0.13 0 0.08 0.13 0 0.1 0.13 0 0 0.135 0 0.02 0.135 0 0.04 0.135 0 0.06 0.135 0 0.08 0.135 0 0.1 0.135 0 0 0.14 0 0.02 0.14 0 0.04 0.14 0 0.06 0.14 0 0.08 0.14 0 0.1 0.14 0 0 0.145 0 0.02 0.145 0 0.04 0.145 0 0.06 0.145 0 0.08 0.145 0 0.1 0.145 0 0 0.15 0 0.02 0.15 0 0.04 0.15 0 0.06 0.15 0 0.08 0.15 0 0.1 0.15 0 0 0.155 0 0.02 0.155 0 0.04 0.155 0 0.06 0.155 0 0.08 0.155 0 0.1 0.155 0 0 0.16 0 0.02 0.16 0 0.04 0.16 0 0.06 0.16 0 0.08 0.16 0 0.1 0.16 0 0 0.165 0 0.02 0.165 0 0.04 0.165 0 0.06 0.165 0 0.08 0.165 0 0.1 0.165 0 0 0.17 0 0.02 0.17 0 0.04 0.17 0 0.06 0.17 0 0.08 0.17 0 0.1 0.17 0 0 0.175 0 0.02 0.175 0 0.04 0.175 0 0.06 0.175 0 0.08 0.175 0 0.1 0.175 0 0 0.18 0 0.02 0.18 0 0.04 0.18 0 0.06 0.18 0 0.08 0.18 0 0.1 0.18 0 0 0.185 0 0.02 0.185 0 0.04 0.185 0 0.06 0.185 0 0.08 0.185 0 0.1 0.185 0 0 0.19 0 0.02 0.19 0 0.04 0.19 0 0.06 0.19 0 0.08 0.19 0 0.1 0.19 0 0 0.195 0 0.02 0.195 0 0.04 0.195 0 0.06 0.195 0 0.08 0.195 0 0.1 0.195 0 0 0.2 0 0.02 0.2 0 0.04 0.2 0 0.06 0.2 0 0.08 0.2 0 0.1 0.2 0 0 0.205 0 0.02 0.205 0 0.04 0.205 0 0.06 0.205 0 0.08 0.205 0 0.1 0.205 0 0 0.21 0 0.02 0.21 0 0.04 0.21 0 0.06 0.21 0 0.08 0.21 0 0.1 0.21 0 0 0.215 0 0.02 0.215 0 0.04 0.215 0 0.06 0.215 0 0.08 0.215 0 0.1 0.215 0 0 0.22 0 0.02 0.22 0 0.04 0.22 0 0.06 0.22 0 0.08 0.22 0 0.1 0.22 0 0 0.225 0 0.02 0.225 0 0.04 0.225 0 0.06 0.225 0 0.08 0.225 0 0.1 0.225 0 0 0.23 0 0.02 0.23 0 0.04 0.23 0 0.06 0.23 0 0.08 0.23 0 0.1 0.23 0 0 0.235 0 0.02 0.235 0 0.04 0.235 0 0.06 0.235 0 0.08 0.235 0 0.1 0.235 0 0 0.24 0 0.02 0.24 0 0.04 0.24 0 0.06 0.24 0 0.08 0.24 0 0.1 0.24 0 0 0.245 0 0.02 0.245 0 0.04 0.245 0 0.06 0.245 0 0.08 0.245 0 0.1 0.245 0 0 0.25 0 0.02 0.25 0 0.04 0.25 0 0.06 0.25 0 0.08 0.25 0 0.1 0.25 0 0 0.255 0 0.02 0.255 0 0.04 0.255 0 0.06 0.255 0 0.08 0.255 0 0.1 0.255 0 0 0.26 0 0.02 0.26 0 0.04 0.26 0 0.06 0.26 0 0.08 0.26 0 0.1 0.26 0 0 0.265 0 0.02 0.265 0 0.04 0.265 0 0.06 0.265 0 0.08 0.265 0 0.1 0.265 0 0 0.27 0 0.02 0.27 0 0.04 0.27 0 0.06 0.27 0 0.08 0.27 0 0.1 0.27 0 0 0.275 0 0.02 0.275 0 0.04 0.275 0 0.06 0.275 0 0.08 0.275 0 0.1 0.275 0 0 0.28 0 0.02 0.28 0 0.04 0.28 0 0.06 0.28 0 0.08 0.28 0 0.1 0.28 0 0 0.285 0 0.02 0.285 0 0.04 0.285 0 0.06 0.285 0 0.08 0.285 0 0.1 0.285 0 0 0.29 0 0.02 0.29 0 0.04 0.29 0 0.06 0.29 0 0.08 0.29 0 0.1 0.29 0 0 0.295 0 0.02 0.295 0 0.04 0.295 0 0.06 0.295 0 0.08 0.295 0 0.1 0.295 0 0 0.3 0 0.02 0.3 0 0.04 0.3 0 0.06 0.3 0 0.08 0.3 0 0.1 0.3 0 0 0.305 0 0.02 0.305 0 0.04 0.305 0 0.06 0.305 0 0.08 0.305 0 0.1 0.305 0 0 0.31 0 0.02 0.31 0 0.04 0.31 0 0.06 0.31 0 0.08 0.31 0 0.1 0.31 0 0 0.315 0 0.02 0.315 0 0.04 0.315 0 0.06 0.315 0 0.08 0.315 0 0.1 0.315 0 0 0.32 0 0.02 0.32 0 0.04 0.32 0 0.06 0.32 0 0.08 0.32 0 0.1 0.32 0 0 0.325 0 0.02 0.325 0 0.04 0.325 0 0.06 0.325 0 0.08 0.325 0 0.1 0.325 0 0 0.33 0 0.02 0.33 0 0.04 0.33 0 0.06 0.33 0 0.08 0.33 0 0.1 0.33 0 0 0.335 0 0.02 0.335 0 0.04 0.335 0 0.06 0.335 0 0.08 0.335 0 0.1 0.335 0 0 0.34 0 0.02 0.34 0 0.04 0.34 0 0.06 0.34 0 0.08 0.34 0 0.1 0.34 0 0 0.345 0 0.02 0.345 0 0.04 0.345 0 0.06 0.345 0 0.08 0.345 0 0.1 0.345 0 0 0.35 0 0.02 0.35 0 0.04 0.35 0 0.06 0.35 0 0.08 0.35 0 0.1 0.35 0 0 0.355 0 0.02 0.355 0 0.04 0.355 0 0.06 0.355 0 0.08 0.355 0 0.1 0.355 0 0 0.36 0 0.02 0.36 0 0.04 0.36 0 0.06 0.36 0 0.08 0.36 0 0.1 0.36 0 0 0.365 0 0.02 0.365 0 0.04 0.365 0 0.06 0.365 0 0.08 0.365 0 0.1 0.365 0 0 0.37 0 0.02 0.37 0 0.04 0.37 0 0.06 0.37 0 0.08 0.37 0 0.1 0.37 0 0 0.375 0 0.02 0.375 0 0.04 0.375 0 0.06 0.375 0 0.08 0.375 0 0.1 0.375 0 0 0.38 0 0.02 0.38 0 0.04 0.38 0 0.06 0.38 0 0.08 0.38 0 0.1 0.38 0 0 0.385 0 0.02 0.385 0 0.04 0.385 0 0.06 0.385 0 0.08 0.385 0 0.1 0.385 0 0 0.39 0 0.02 0.39 0 0.04 0.39 0 0.06 0.39 0 0.08 0.39 0 0.1 0.39 0 0 0.395 0 0.02 0.395 0 0.04 0.395 0 0.06 0.395 0 0.08 0.395 0 0.1 0.395 0 0 0.4 0 0.02 0.4 0 0.04 0.4 0 0.06 0.4 0 0.08 0.4 0 0.1 0.4 0 0 0.405 0 0.02 0.405 0 0.04 0.405 0 0.06 0.405 0 0.08 0.405 0 0.1 0.405 0 0 0.41 0 0.02 0.41 0 0.04 0.41 0 0.06 0.41 0 0.08 0.41 0 0.1 0.41 0 0 0.415 0 0.02 0.415 0 0.04 0.415 0 0.06 0.415 0 0.08 0.415 0 0.1 0.415 0 0 0.42 0 0.02 0.42 0 0.04 0.42 0 0.06 0.42 0 0.08 0.42 0 0.1 0.42 0 0 0.425 0 0.02 0.425 0 0.04 0.425 0 0.06 0.425 0 0.08 0.425 0 0.1 0.425 0 0 0.43 0 0.02 0.43 0 0.04 0.43 0 0.06 0.43 0 0.08 0.43 0 0.1 0.43 0 0 0.435 0 0.02 0.435 0 0.04 0.435 0 0.06 0.435 0 0.08 0.435 0 0.1 0.435 0 0 0.44 0 0.02 0.44 0 0.04 0.44 0 0.06 0.44 0 0.08 0.44 0 0.1 0.44 0 0 0.445 0 0.02 0.445 0 0.04 0.445 0 0.06 0.445 0 0.08 0.445 0 0.1 0.445 0 0 0.45 0 0.02 0.45 0 0.04 0.45 0 0.06 0.45 0 0.08 0.45 0 0.1 0.45 0 0 0.455 0 0.02 0.455 0 0.04 0.455 0 0.06 0.455 0 0.08 0.455 0 0.1 0.455 0 0 0.46 0 0.02 0.46 0 0.04 0.46 0 0.06 0.46 0 0.08 0.46 0 0.1 0.46 0 0 0.465 0 0.02 0.465 0 0.04 0.465 0 0.06 0.465 0 0.08 0.465 0 0.1 0.465 0 0 0.47 0 0.02 0.47 0 0.04 0.47 0 0.06 0.47 0 0.08 0.47 0 0.1 0.47 0 0 0.475 0 0.02 0.475 0 0.04 0.475 0 0.06 0.475 0 0.08 0.475 0 0.1 0.475 0 0 0.48 0 0.02 0.48 0 0.04 0.48 0 0.06 0.48 0 0.08 0.48 0 0.1 0.48 0 0 0.485 0 0.02 0.485 0 0.04 0.485 0 0.06 0.485 0 0.08 0.485 0 0.1 0.485 0 0 0.49 0 0.02 0.49 0 0.04 0.49 0 0.06 0.49 0 0.08 0.49 0 0.1 0.49 0 0 0.495 0 0.02 0.495 0 0.04 0.495 0 0.06 0.495 0 0.08 0.495 0 0.1 0.495 0 0 0.5 0 0.02 0.5 0 0.04 0.5 0 0.06 0.5 0 0.08 0.5 0 0.1 0.5 0 0 0.505 0 0.02 0.505 0 0.04 0.505 0 0.06 0.505 0 0.08 0.505 0 0.1 0.505 0 0 0.51 0 0.02 0.51 0 0.04 0.51 0 0.06 0.51 0 0.08 0.51 0 0.1 0.51 0 0 0.515 0 0.02 0.515 0 0.04 0.515 0 0.06 0.515 0 0.08 0.515 0 0.1 0.515 0 0 0.52 0 0.02 0.52 0 0.04 0.52 0 0.06 0.52 0 0.08 0.52 0 0.1 0.52 0 0 0.525 0 0.02 0.525 0 0.04 0.525 0 0.06 0.525 0 0.08 0.525 0 0.1 0.525 0 0 0.53 0 0.02 0.53 0 0.04 0.53 0 0.06 0.53 0 0.08 0.53 0 0.1 0.53 0 0 0.535 0 0.02 0.535 0 0.04 0.535 0 0.06 0.535 0 0.08 0.535 0 0.1 0.535 0 0 0.54 0 0.02 0.54 0 0.04 0.54 0 0.06 0.54 0 0.08 0.54 0 0.1 0.54 0 0 0.545 0 0.02 0.545 0 0.04 0.545 0 0.06 0.545 0 0.08 0.545 0 0.1 0.545 0 0 0.55 0 0.02 0.55 0 0.04 0.55 0 0.06 0.55 0 0.08 0.55 0 0.1 0.55 0 0 0.555 0 0.02 0.555 0 0.04 0.555 0 0.06 0.555 0 0.08 0.555 0 0.1 0.555 0 0 0.56 0 0.02 0.56 0 0.04 0.56 0 0.06 0.56 0 0.08 0.56 0 0.1 0.56 0 0 0.565 0 0.02 0.565 0 0.04 0.565 0 0.06 0.565 0 0.08 0.565 0 0.1 0.565 0 0 0.57 0 0.02 0.57 0 0.04 0.57 0 0.06 0.57 0 0.08 0.57 0 0.1 0.57 0 0 0.575 0 0.02 0.575 0 0.04 0.575 0 0.06 0.575 0 0.08 0.575 0 0.1 0.575 0 0 0.58 0 0.02 0.58 0 0.04 0.58 0 0.06 0.58 0 0.08 0.58 0 0.1 0.58 0 0 0.585 0 0.02 0.585 0 0.04 0.585 0 0.06 0.585 0 0.08 0.585 0 0.1 0.585 0 0 0.59 0 0.02 0.59 0 0.04 0.59 0 0.06 0.59 0 0.08 0.59 0 0.1 0.59 0 0 0.595 0 0.02 0.595 0 0.04 0.595 0 0.06 0.595 0 0.08 0.595 0 0.1 0.595 0 0 0.6 0 0.02 0.6 0 0.04 0.6 0 0.06 0.6 0 0.08 0.6 0 0.1 0.6 0 0 0.605 0 0.02 0.605 0 0.04 0.605 0 0.06 0.605 0 0.08 0.605 0 0.1 0.605 0 0 0.61 0 0.02 0.61 0 0.04 0.61 0 0.06 0.61 0 0.08 0.61 0 0.1 0.61 0 0 0.615 0 0.02 0.615 0 0.04 0.615 0 0.06 0.615 0 0.08 0.615 0 0.1 0.615 0 0 0.62 0 0.02 0.62 0 0.04 0.62 0 0.06 0.62 0 0.08 0.62 0 0.1 0.62 0 0 0.625 0 0.02 0.625 0 0.04 0.625 0 0.06 0.625 0 0.08 0.625 0 0.1 0.625 0 0 0.63 0 0.02 0.63 0 0.04 0.63 0 0.06 0.63 0 0.08 0.63 0 0.1 0.63 0 0 0.635 0 0.02 0.635 0 0.04 0.635 0 0.06 0.635 0 0.08 0.635 0 0.1 0.635 0 0 0.64 0 0.02 0.64 0 0.04 0.64 0 0.06 0.64 0 0.08 0.64 0 0.1 0.64 0 0 0.645 0 0.02 0.645 0 0.04 0.645 0 0.06 0.645 0 0.08 0.645 0 0.1 0.645 0 0 0.65 0 0.02 0.65 0 0.04 0.65 0 0.06 0.65 0 0.08 0.65 0 0.1 0.65 0 0 0.655 0 0.02 0.655 0 0.04 0.655 0 0.06 0.655 0 0.08 0.655 0 0.1 0.655 0 0 0.66 0 0.02 0.66 0 0.04 0.66 0 0.06 0.66 0 0.08 0.66 0 0.1 0.66 0 0 0.665 0 0.02 0.665 0 0.04 0.665 0 0.06 0.665 0 0.08 0.665 0 0.1 0.665 0 0 0.67 0 0.02 0.67 0 0.04 0.67 0 0.06 0.67 0 0.08 0.67 0 0.1 0.67 0 0 0.675 0 0.02 0.675 0 0.04 0.675 0 0.06 0.675 0 0.08 0.675 0 0.1 0.675 0 0 0.68 0 0.02 0.68 0 0.04 0.68 0 0.06 0.68 0 0.08 0.68 0 0.1 0.68 0 0 0.685 0 0.02 0.685 0 0.04 0.685 0 0.06 0.685 0 0.08 0.685 0 0.1 0.685 0 0 0.69 0 0.02 0.69 0 0.04 0.69 0 0.06 0.69 0 0.08 0.69 0 0.1 
[...]
			<PointData Scalars="VitesseX">
				<DataArray Name="VitesseX" type="Float32" format="ascii">
 0 7.89672e-15 -1.50119e-14 -1.42878e-14 -2.63995e-14 0 0 7.78662e-15 -1.36149e-14 -1.4085e-14 -2.91437e-14 0 0 4.64311e-15 -7.50196e-15 -1.74529e-14 -3.00543e-14 0 0 1.80539e-15 -2.67542e-15 -2.35127e-14 -2.78846e-14 0 0 3.33888e-15 -1.04548e-14 -1.95573e-14 -2.65527e-14 0 0 -1.26978e-15 -1.00871e-14 -2.40536e-14 -1.93318e-14 0 0 9.06578e-15 -2.82399e-14 -9.8827e-15 -3.09688e-14 0 0 7.26939e-15 -2.83379e-14 -1.7097e-14 -2.6357e-14 0 0 -1.10501e-14 -1.30373e-14 -3.60853e-14 -7.79462e-15 0 0 -1.88416e-15 -4.38594e-14 -6.33687e-15 -2.24292e-14 0 0 6.67325e-15 -6.37963e-14 4.7674e-15 -2.62599e-14 0 0 -9.49334e-16 -5.2625e-14 -1.89651e-14 -6.14754e-15 0 0 -3.48114e-16 -5.54126e-14 -1.89958e-14 -1.16744e-14 0 0 -3.71873e-15 -4.69987e-14 -2.75028e-14 -1.4171e-14 0 0 -2.0316e-14 -2.86622e-14 -4.79589e-14 5.51241e-15 0 0 -1.57891e-14 -4.99664e-14 -1.64297e-14 -1.51808e-14 0 0 -1.04355e-14 -5.09769e-14 -3.07523e-15 -3.29349e-14 0 0 -2.06599e-14 -1.07734e-14 -5.70025e-14 2.42789e-14 0 0 -8.23395e-15 -1.39632e-14 -6.77667e-14 5.1634e-14 0 0 1.69297e-14 -5.3068e-14 2.73522e-15 -1.01784e-14 0 0 1.34916e-14 -4.52856e-14 1.78111e-14 -3.11168e-14 0 0 1.16039e-14 -3.06738e-14 -3.66972e-15 -1.62129e-14 0 0 -9.13531e-15 9.79478e-15 -4.21377e-14 -8.63782e-16 0 0 -3.02813e-14 5.33701e-14 -1.02417e-13 4.42365e-14 0 0 2.19904e-14 -2.27706e-14 -4.96785e-14 2.6243e-14 0 0 2.75216e-14 -5.69754e-14 -1.71328e-15 -1.71285e-14 0 0 -7.26416e-14 7.18675e-14 -9.83993e-14 1.53541e-14 0 0 -9.49415e-14 9.68436e-14 -1.05383e-13 -1.50836e-15 0 0 -5.53765e-16 -6.32667e-14 4.899e-14 -8.31698e-14 0 0 1.49012e-14 -7.91748e-14 2.50639e-14 -4.349e-14 0 0 -5.44353e-14 3.48927e-14 -1.01042e-13 5.73543e-15 0 0 -4.04639e-14 -1.399e-14 -2.41712e-14 -1.03229e-13 0 0 -1.12078e-14 -4.95589e-14 1.10496e-14 -1.58863e-13 0 0 -1.94404e-14 -3.10268e-15 -4.5576e-14 -1.30044e-13 0 0 -3.9491e-14 5.96612e-14 -1.36654e-13 -5.37684e-14 0 0 -8.67011e-15 1.10669e-14 -1.04594e-13 -2.89559e-14 0 0 9.60309e-16 -3.42592e-14 -3.86534e-14 -3.45991e-14 0 0 -2.89629e-14 -1.03529e-15 -7.36966e-14 3.141e-14 0 0 1.18825e-14 -6.07999e-14 -2.85492e-14 1.99762e-14 0 0 2.23254e-14 -5.71942e-14 -3.66941e-14 1.18963e-14 0 0 -2.83478e-14 1.64011e-14 -7.23179e-14 1.1413e-15 0 0 -5.61865e-14 2.78527e-14 -1.52463e-14 -8.51253e-14 0 0 -4.44846e-14 2.3627e-14 -4.59705e-14 -5.28077e-14 0 0 -4.64419e-14 -2.64267e-15 3.18709e-15 -9.07235e-14 0 0 -1.25463e-13 3.61482e-14 6.33298e-14 -1.66595e-13 0 0 -6.97288e-14 -3.42458e-14 7.13718e-14 -1.42186e-13 0 0 7.27789e-15 -1.15579e-13 1.24819e-13 -1.72913e-13 0 0 -4.04415e-14 -1.28289e-14 6.01912e-14 -1.34472e-13 0 0 -9.78608e-14 8.38511e-14 -1.56317e-14 -4.81103e-14 0 0 -9.26429e-14 5.13966e-14 4.34997e-14 -6.20536e-14 0 0 -4.37005e-14 -4.5119e-14 1.48638e-13 -1.36221e-13 0 0 -1.73476e-13 9.1186e-14 3.25207e-14 -8.59269e-14 0 0 -2.24097e-13 1.75785e-13 -9.61577e-14 1.72609e-15 0 0 -1.60723e-13 1.83536e-13 -1.53609e-13 4.71675e-14 0 0 -8.40342e-14 4.92676e-14 1.78453e-14 -9.42346e-14 0 0 -5.42058e-14 -7.94585e-14 1.58819e-13 -2.53595e-13 0 0 -1.81672e-13 5.68644e-14 -7.81959e-15 -1.90068e-13 0 0 -7.90109e-14 -1.2232e-13 3.12217e-14 -1.24724e-13 0 0 -4.36355e-14 -1.57819e-13 -1.93543e-14 1.20668e-15 0 0 -9.57015e-14 -1.11492e-13 -3.27566e-14 -3.79519e-14 0 0 -7.60001e-14 -1.43583e-13 -4.80586e-14 -1.47044e-13 0 0 -9.33127e-14 2.60137e-15 -2.60084e-13 -1.22392e-13 0 0 4.61846e-14 -7.46139e-14 -2.4819e-13 -1.41613e-13 0 0 9.04415e-14 -8.5087e-14 -2.25304e-13 -1.6872e-13 0 0 8.71077e-14 -5.88084e-14 -1.38882e-13 -2.55661e-13 0 0 1.30221e-14 -2.95156e-14 -6.46979e-14 -2.77075e-13 0 0 -1.57589e-13 8.96143e-14 -1.30849e-13 -2.04452e-13 0 0 -1.96877e-13 5.11536e-14 -8.69427e-14 -2.07477e-13 0 0 -1.2771e-13 -8.84777e-14 6.61446e-14 -3.1836e-13 0 0 -9.24562e-14 -7.71628e-14 8.21637e-15 -3.30196e-13 0 0 -3.48302e-14 -2.87343e-14 -1.93569e-13 -2.25491e-13 0 0 -1.75725e-14 6.46796e-14 -4.15917e-13 -1.47864e-13 0 0 -7.55697e-14 4.11287e-14 -3.48113e-13 -2.42852e-13 0 0 -9.34907e-14 -1.01836e-13 -1.13216e-13 -4.93793e-13 0 0 -1.35455e-13 -2.76984e-13 1.69093e-13 -6.83229e-13 0 0 -1.91166e-13 -3.10228e-13 1.49689e-13 -5.63365e-13 0 0 -2.69018e-13 -2.57064e-13 -9.14149e-15 -2.87871e-13 0 0 -3.45755e-13 -1.4829e-13 -1.39303e-13 5.39155e-14 0 0 -3.83112e-13 -1.44606e-13 -6.84973e-14 6.33712e-14 0 0 -4.02582e-13 -2.11739e-13 1.39718e-13 -6.03467e-14 0 0 -4.35858e-13 -2.55316e-13 3.62344e-13 -3.26415e-13 0 0 -5.3797e-13 -2.20918e-13 3.96993e-13 -4.66363e-13 0 0 -6.48418e-13 -8.26036e-14 3.17848e-13 -4.69158e-13 0 0 -6.13276e-13 -6.23521e-14 1.9701e-13 -4.29302e-13 0 0 -4.94249e-13 -9.87804e-14 1.52162e-13 -4.01544e-13 0 0 -2.76541e-13 -2.49338e-13 5.13953e-14 -3.29298e-13 0 0 -9.28259e-14 -2.79116e-13 -1.24407e-13 -1.83905e-13 0 0 -7.15398e-14 -2.08957e-13 -3.8875e-13 -4.89637e-15 0 0 -8.885e-14 -1.49584e-13 -4.53164e-13 6.85263e-14 0 0 -5.31877e-14 -2.35679e-13 -3.61453e-13 1.35227e-14 0 0 6.16182e-14 -4.74743e-13 -1.34543e-13 -1.77643e-13 0 0 1.0599e-13 -6.11308e-13 1.12494e-13 -4.84675e-13 0 0 7.35684e-14 -5.90122e-13 1.57507e-13 -6.46855e-13 0 0 -3.75327e-14 -4.56345e-13 8.5077e-14 -7.37359e-13 0 0 -2.18477e-13 -2.49815e-13 -3.72659e-14 -8.50077e-13 0 0 -4.8144e-13 -7.75758e-15 -1.36956e-13 -9.42556e-13 0 0 -6.7611e-13 2.16731e-13 -2.3854e-13 -9.27592e-13 0 0 -6.477e-13 2.13119e-13 -3.0614e-13 -8.54152e-13 0 0 -4.86409e-13 8.77153e-14 -3.6446e-13 -7.0106e-13 0 0 -2.92974e-13 -5.74237e-14 -4.93441e-13 -4.4062e-13 0 0 -7.97741e-14 -2.09464e-13 -6.51515e-13 -1.45531e-13 0 0 1.27168e-13 -3.43392e-13 -7.20725e-13 4.68436e-14 0 0 1.26412e-13 -3.73274e-13 -7.18682e-13 1.29371e-13 0 0 8.3177e-14 -4.0696e-13 -6.76625e-13 1.1055e-13 0 0 2.83984e-14 -5.05084e-13 -5.81217e-13 6.58211e-14 0 0 -4.12889e-14 -5.80143e-13 -3.67993e-13 -2.82115e-14 0 0 -1.35788e-13 -5.37437e-13 -2.34159e-13 -1.16536e-13 0 0 -1.77163e-13 -4.88931e-13 -2.28019e-13 -1.66918e-13 0 0 -1.83623e-13 -4.40902e-13 -2.25597e-13 -2.40962e-13 0 0 -1.90458e-13 -3.46177e-13 -3.0552e-13 -1.74626e-13 0 0 -1.89054e-13 -2.43828e-13 -3.63243e-13 -5.69568e-14 0 0 -1.9093e-13 -1.96878e-13 -3.55032e-13 -5.03944e-14 0 0 -1.91552e-13 -1.73868e-13 -3.47632e-13 -5.5656e-14 0 0 -1.98489e-13 -1.69576e-13 -2.85801e-13 -8.44793e-14 0 0 -2.02535e-13 -1.96681e-13 -1.83002e-13 -1.02108e-13 0 0 -1.77255e-13 -2.20309e-13 -8.34041e-14 -9.70238e-14 0 0 -1.10223e-13 -2.36495e-13 -6.65261e-14 -1.02356e-13 0 0 -7.92868e-14 -2.0281e-13 -1.36081e-13 3.30924e-14 0 0 -5.32055e-14 -1.9939e-13 -1.41111e-13 1.09948e-13 0 0 -5.15571e-14 -2.30257e-13 -1.06795e-14 2.84778e-14 0 0 -5.08113e-14 -2.46413e-13 6.12241e-14 3.53792e-14 0 0 -4.59318e-14 -2.50809e-13 1.34159e-13 6.24472e-15 0 0 -8.03141e-14 -2.02026e-13 1.4454e-13 -3.5947e-14 0 0 -1.42476e-13 -1.14311e-13 1.14518e-13 -1.58546e-14 0 0 -1.67368e-13 -2.97286e-14 7.00569e-14 2.5496e-14 0 0 -1.60835e-13 2.46261e-14 1.41219e-14 4.88269e-14 0 0 -1.42038e-13 9.11355e-15 1.18075e-14 6.67534e-14 0 0 -1.20496e-13 1.34817e-14 2.83208e-15 5.67661e-14 0 0 -1.07864e-13 4.08121e-14 -2.99492e-14 4.11348e-14 0 0 -6.39276e-14 -2.93988e-14 3.07642e-14 -3.40426e-14 0 0 5.49514e-16 -1.43054e-13 6.03331e-14 -5.536e-14 0 0 -3.24368e-14 -8.32002e-14 -1.18256e-13 3.35174e-14 0 0 -5.5717e-14 -9.96751e-14 -1.4258e-13 6.62371e-14 0 0 -3.5957e-14 -2.20254e-13 -4.16193e-14 3.05704e-14 0 0 -3.85179e-14 -2.44109e-13 -4.55147e-14 7.47208e-14 0 0 -5.99272e-14 -2.13043e-13 -9.89843e-14 8.66919e-14 0 0 -7.44759e-14 -1.89392e-13 -1.40105e-13 5.51141e-14 0 0 -7.81736e-14 -2.21782e-13 -9.73665e-14 -3.20799e-14 0 0 -1.03294e-13 -1.92725e-13 -8.40129e-14 -2.11198e-13 0 0 -1.19557e-13 -1.3298e-13 -1.33641e-13 -2.22355e-13 0 0 -1.07451e-13 -1.43052e-13 -1.74221e-13 -1.53417e-13 0 0 -8.94826e-14 -1.38857e-13 -2.24334e-13 -1.34713e-13 0 0 -9.43383e-14 -1.38243e-13 -2.25089e-13 -1.8088e-13 0 0 -1.27816e-13 -1.09636e-13 -2.48663e-13 -1.92814e-13 0 0 -1.469e-13 -9.98277e-14 -2.6615e-13 -2.02804e-13 0 0 -1.269e-13 -1.49493e-13 -2.37689e-13 -2.21614e-13 0 0 -1.03298e-13 -2.11305e-13 -2.29593e-13 -2.28479e-13 0 0 -1.21611e-13 -2.17415e-13 -2.50569e-13 -2.38889e-13 0 0 -1.36285e-13 -2.23248e-13 -3.26006e-13 -1.89062e-13 0 0 -1.28695e-13 -2.40046e-13 -3.60683e-13 -1.99471e-13 0 0 -1.07311e-13 -2.38295e-13 -4.05175e-13 -3.63503e-13 0 0 -9.93515e-14 -2.11438e-13 -4.64669e-13 -4.40852e-13 0 0 -8.6892e-14 -2.2343e-13 -4.364e-13 -3.88013e-13 0 0 -6.78186e-14 -2.36204e-13 -3.68013e-13 -1.33385e-13 0 0 -9.64406e-14 -2.04471e-13 -3.13317e-13 3.28691e-13 0 0 -1.25969e-13 -2.75241e-13 -1.18869e-13 4.37858e-13 0 0 -1.89216e-13 -2.37003e-13 -1.39477e-13 3.773e-13 0 0 -2.40777e-13 -1.16538e-13 -3.24575e-13 2.81676e-13 0 0 -1.96671e-13 -1.64132e-13 -2.84057e-13 7.97349e-14 0 0 -1.281e-13 -1.77518e-13 -3.15572e-13 1.05529e-13 0 0 -1.54986e-13 -6.26323e-14 -3.90342e-13 1.15373e-13 0 0 -2.39505e-13 -3.85811e-15 -3.42063e-13 -1.4584e-14 0 0 -1.79469e-13 -1.78942e-13 -1.94649e-13 -8.62447e-14 0 0 -2.14845e-13 -1.97582e-13 -1.51983e-13 -1.023e-13 0 0 -2.16278e-13 -2.53744e-13 -8.63686e-14 -1.033e-13 0 0 -2.48203e-13 -2.69835e-13 -2.77138e-15 -2.07741e-13 0 0 -2.93447e-13 -1.89973e-13 -1.08291e-13 -1.35468e-13 0 0 -2.43692e-13 -2.18236e-13 -1.57278e-13 -5.30658e-14 0 0 -2.45101e-13 -2.06168e-13 -1.44235e-13 -2.99611e-14 0 0 -1.96761e-13 -2.48963e-13 -1.22112e-13 3.09165e-14 0 0 -1.78378e-13 -2.87379e-13 -6.37975e-14 4.71868e-14 0 0 -1.62594e-13 -3.12029e-13 3.68281e-15 1.38553e-14 0 0 -8.40888e-14 -3.23685e-13 -8.59822e-14 1.28517e-13 0 0 -1.00769e-13 -1.91504e-13 -2.72039e-13 2.75179e-13 0 0 -1.43955e-13 -1.29844e-13 -2.77582e-13 2.66029e-13 0 0 -1.08002e-13 -2.05701e-13 -1.30647e-13 1.56039e-13 0 0 -1.41315e-13 -1.25507e-13 -7.44496e-14 5.63826e-14 0 0 -1.80672e-13 9.71968e-15 -1.1501e-13 4.52418e-14 0 0 -1.07935e-13 -3.9774e-14 -1.14343e-14 -9.95266e-14 0 0 -8.3586e-15 -2.96667e-14 -1.3524e-13 -2.94865e-15 0 0 1.17333e-13 -1.22535e-13 -9.50443e-14 -1.17797e-14 0 0 1.38187e-13 -1.50399e-13 2.32532e-14 -1.54446e-13 0 0 1.27674e-13 -1.32743e-13 3.70712e-14 -1.16286e-13 0 0 1.36932e-13 -2.46628e-13 2.10579e-13 -1.28769e-13 0 0 1.00699e-13 -2.01219e-13 2.35923e-13 -1.42633e-13 0 0 2.42728e-14 -2.01326e-14 1.43507e-13 -1.35944e-13 0 0 -1.29911e-13 2.47512e-13 -4.217e-14 -8.39603e-14 0 0 3.38507e-14 -2.00593e-13 5.10357e-13 -4.64905e-13 0 0 1.48363e-14 -1.92162e-13 3.66012e-13 -2.66212e-13 0 0 -1.58059e-13 3.48611e-13 -4.64154e-13 4.12403e-13 0 0 3.91453e-14 1.00961e-13 -2.45248e-13 2.31828e-13 0 0 6.23283e-14 7.2623e-14 -1.08214e-13 7.19591e-14 0 0 1.42876e-13 -7.012e-14 1.04797e-13 -6.67693e-14 0 0 3.47242e-13 -4.138e-13 2.9071e-13 -9.65847e-14 0 0 1.5781e-13 -9.99941e-14 -2.24515e-13 2.55313e-13 0 0 6.31917e-14 1.02638e-15 -3.65892e-13 2.21361e-13 0 0 4.14402e-13 -5.3573e-13 1.41852e-13 -1.0604e-13 0 0 6.544e-13 -8.74349e-13 4.44449e-13 -2.59482e-13 0 0 3.60126e-13 -4.41057e-13 1.64603e-15 6.38093e-14 0 0 1.40988e-13 -1.62752e-13 -3.08993e-13 3.21477e-13 0 0 2.30634e-13 -3.33069e-13 -1.93971e-13 2.91325e-13 0
				</DataArray>
				<DataArray Name="VitesseY" type="Float32" format="ascii">