<?xml version="1.0"?>
<VTKFile type="PolyData">
	<PolyData>
		<Piece NumberOfPoints="1206" NumberOfPolys="1000">
			<Points>
				<DataArray type="Float32" NumberOfComponents="3" format="ascii">
 0 0 0 0.02 0 0 0.04 0 0 0.06 0 0 0.08 0 0 0.1 0 0 0 0.005 0 0.02 0.005 0 0.04 0.005 0 0.06 0.005 0 0.08 0.005 0 0.1 0.005 0 0 0.01 0 0.02 0.01 0 0.04 0.01 0 0.06 0.01 0 0.08 0.01 0 0.1 0.01 0 0 0.015 0 0.02 0.015 0 0.04 0.015 0 0.06 0.015 0 0.08 0.015 0 0.1 0.015 0 0 0.02 0 0.02 0.02 0 0.04 0.02 0 0.06 0.02 0 0.08 0.02 0 0.1 0.02 0 0 0.025 0 0.02 0.025 0 0.04 0.025 0 0.06 0.025 0 0.08 0.025 0 0.1 0.025 0 0 0.03 0 0.02 0.03 0 0.04 0.03 0 0.06 0.03 0 0.08 0.03 0 0.1 0.03 0 0 0.035 0 0.02 0.035 0 0.04 0.035 0 0.06 0.035 0 0.08 0.035 0 0.1 0.035 0 0 0.04 0 0.02 0.04 0 0.04 0.04 0 0.06 0.04 0 0.08 0.04 0 0.1 0.04 0 0 0.045 0 0.02 0.045 0 0.04 0.045 0 0.06 0.045 0 0.08 0.045 0 0.1 0.045 0 0 0.05 0 0.02 0.05 0 0.04 0.05 0 0.06 0.05 0 0.08 0.05 0 0.1 0.05 0 0 0.055 0 0.02 0.055 0 0.04 0.055 0 0.06 0.055 0 0.08 0.055 0 0.1 0.055 0 0 0.06 0 0.02 0.06 0 0.04 0.06 0 0.06 0.06 0 0.08 0.06 0 0.1 0.06 0 0 0.065 0 0.02 0.065 0 0.04 0.065 0 0.06 0.065 0 0.08 0.065 0 0.1 0.065 0 0 0.07 0 0.02 0.07 0 0.04 0.07 0 0.06 0.07 0 0.08 0.07 0 0.1 0.07 0 0 0.075 0 0.02 0.075 0 0.04 0.075 0 0.06 0.075 0 0.08 0.075 0 0.1 0.075 0 0 0.08 0 0.02 0.08 0 0.04 0.08 0 0.06 0.08 0 0.08 0.08 0 0.1 0.08 0 0 0.085 0 0.02 0.085 0 0.04 0.085 0 0.06 0.085 0 0.08 0.085 0 0.1 0.085 0 0 0.09 0 0.02 0.09 0 0.04 0.09 0 0.06 0.09 0 0.08 0.09 0 0.1 0.09 0 0 0.095 0 0.02 0.095 0 0.04 0.095 0 0.06 0.095 0 0.08 0.095 0 0.1 0.095 0 0 0.1 0 0.02 0.1 0 0.04 0.1 0 0.06 0.1 0 0.08 0.1 0 0.1 0.1 0 0 0.105 0 0.02 0.105 0 0.04 0.105 0 0.06 0.105 0 0.08 0.105 0 0.1 0.105 0 0 0.11 0 0.02 0.11 0 0.04 0.11 0 0.06 0.11 0 0.08 0.11 0 0.1 0.11 0 0 0.115 0 0.02 0.115 0 0.04 0.115 0 0.06 0.115 0 0.08 0.115 0 0.1 0.115 0 0 0.12 0 0.02 0.12 0 0.04 0.12 0 0.06 0.12 0 0.08 0.12 0 0.1 0.12 0 0 0.125 0 0.02 0.125 0 0.04 0.125 0 0.06 0.125 0 0.08 0.125 0 0.1 0.125 0 0 0.13 0 0.02 0.13 0 0.04 0.13 0 0.06 0.13 0 0.08 0.13 0 0.1 0.13 0 0 0.135 0 0.02 0.135 0 0.04 0.135 0 0.06 0.135 0 0.08 0.135 0 0.1 0.135 0 0 0.14 0 0.02 0.14 0 0.04 0.14 0 0.06 0.14 0 0.08 0.14 0 0.1 0.14 0 0 0.145 0 0.02 0.145 0 0.04 0.145 0 0.06 0.145 0 0.08 0.145 0 0.1 0.145 0 0 0.15 0 0.02 0.15 0 0.04 0.15 0 0.06 0.15 0 0.08 0.15 0 0.1 0.15 0 0 0.155 0 0.02 0.155 0 0.04 0.155 0 0.06 0.155 0 0.08 0.155 0 0.1 0.155 0 0 0.16 0 0.02 0.16 0 0.04 0.16 0 0.06 0.16 0 0.08 0.16 0 0.1 0.16 0 0 0.165 0 0.02 0.165 0 0.04 0.165 0 0.06 0.165 0 0.08 0.165 0 0.1 0.165 0 0 0.17 0 0.02 0.17 0 0.04 0.17 0 0.06 0.17 0 0.08 0.17 0 0.1 0.17 0 0 0.175 0 0.02 0.175 0 0.04 0.175 0 0.06 0.175 0 0.08 0.175 0 0.1 0.175 0 0 0.18 0 0.02 0.18 0 0.04 0.18 0 0.06 0.18 0 0.08 0.18 0 0.1 0.18 0 0 0.185 0 0.02 0.185 0 0.04 0.185 0 0.06 0.185 0 0.08 0.185 0 0.1 0.185 0 0 0.19 0 0.02 0.19 0 0.04 0.19 0 0.06 0.19 0 0.08 0.19 0 0.1 0.19 0 0 0.195 0 0.02 0.195 0 0.04 0.195 0 0.06 0.195 0 0.08 0.195 0 0.1 0.195 0 0 0.2 0 0.02 0.2 0 0.04 0.2 0 0.06 0.2 0 0.08 0.2 0 0.1 0.2 0 0 0.205 0 0.02 0.205 0 0.04 0.205 0 0.06 0.205 0 0.08 0.205 0 0.1 0.205 0 0 0.21 0 0.02 0.21 0 0.04 0.21 0 0.06 0.21 0 0.08 0.21 0 0.1 0.21 0 0 0.215 0 0.02 0.215 0 0.04 0.215 0 0.06 0.215 0 0.08 0.215 0 0.1 0.215 0 0 0.22 0 0.02 0.22 0 0.04 0.22 0 0.06 0.22 0 0.08 0.22 0 0.1 0.22 0 0 0.225 0 0.02 0.225 0 0.04 0.225 0 0.06 0.225 0 0.08 0.225 0 0.1 0.225 0 0 0.23 0 0.02 0.23 0 0.04 0.23 0 0.06 0.23 0 0.08 0.23 0 0.1 0.23 0 0 0.235 0 0.02 0.235 0 0.04 0.235 0 0.06 0.235 0 0.08 0.235 0 0.1 0.235 0 0 0.24 0 0.02 0.24 0 0.04 0.24 0 0.06 0.24 0 0.08 0.24 0 0.1 0.24 0 0 0.245 0 0.02 0.245 0 0.04 0.245 0 0.06 0.245 0 0.08 0.245 0 0.1 0.245 0 0 0.25 0 0.02 0.25 0 0.04 0.25 0 0.06 0.25 0 0.08 0.25 0 0.1 0.25 0 0 0.255 0 0.02 0.255 0 0.04 0.255 0 0.06 0.255 0 0.08 0.255 0 0.1 0.255 0 0 0.26 0 0.02 0.26 0 0.04 0.26 0 0.06 0.26 0 0.08 0.26 0 0.1 0.26 0 0 0.265 0 0.02 0.265 0 0.04 0.265 0 0.06 0.265 0 0.08 0.265 0 0.1 0.265 0 0 0.27 0 0.02 0.27 0 0.04 0.27 0 0.06 0.27 0 0.08 0.27 0 0.1 0.27 0 0 0.275 0 0.02 0.275 0 0.04 0.275 0 0.06 0.275 0 0.08 0.275 0 0.1 0.275 0 0 0.28 0 0.02 0.28 0 0.04 0.28 0 0.06 0.28 0 0.08 0.28 0 0.1 0.28 0 0 0.285 0 0.02 0.285 0 0.04 0.285 0 0.06 0.285 0 0.08 0.285 0 0.1 0.285 0 0 0.29 0 0.02 0.29 0 0.04 0.29 0 0.06 0.29 0 0.08 0.29 0 0.1 0.29 0 0 0.295 0 0.02 0.295 0 0.04 0.295 0 0.06 0.295 0 0.08 0.295 0 0.1 0.295 0 0 0.3 0 0.02 0.3 0 0.04 0.3 0 0.06 0.3 0 0.08 0.3 0 0.1 0.3 0 0 0.305 0 0.02 0.305 0 0.04 0.305 0 0.06 0.305 0 0.08 0.305 0 0.1 0.305 0 0 0.31 0 0.02 0.31 0 0.04 0.31 0 0.06 0.31 0 0.08 0.31 0 0.1 0.31 0 0 0.315 0 0.02 0.315 0 0.04 0.315 0 0.06 0.315 0 0.08 0.315 0 0.1 0.315 0 0 0.32 0 0.02 0.32 0 0.04 0.32 0 0.06 0.32 0 0.08 0.32 0 0.1 0.32 0 0 0.325 0 0.02 0.325 0 0.04 0.325 0 0.06 0.325 0 0.08 0.325 0 0.1 0.325 0 0 0.33 0 0.02 0.33 0 0.04 0.33 0 0.06 0.33 0 0.08 0.33 0 0.1 0.33 0 0 0.335 0 0.02 0.335 0 0.04 0.335 0 0.06 0.335 0 0.08 0.335 0 0.1 0.335 0 0 0.34 0 0.02 0.34 0 0.04 0.34 0 0.06 0.34 0 0.08 0.34 0 0.1 0.34 0 0 0.345 0 0.02 0.345 0 0.04 0.345 0 0.06 0.345 0 0.08 0.345 0 0.1 0.345 0 0 0.35 0 0.02 0.35 0 0.04 0.35 0 0.06 0.35 0 0.08 0.35 0 0.1 0.35 0 0 0.355 0 0.02 0.355 0 0.04 0.355 0 0.06 0.355 0 0.08 0.355 0 0.1 0.355 0 0 0.36 0 0.02 0.36 0 0.04 0.36 0 0.06 0.36 0 0.08 0.36 0 0.1 0.36 0 0 0.365 0 0.02 0.365 0 0.04 0.365 0 0.06 0.365 0 0.08 0.365 0 0.1 0.365 0 0 0.37 0 0.02 0.37 0 0.04 0.37 0 0.06 0.37 0 0.08 0.37 0 0.1 0.37 0 0 0.375 0 0.02 0.375 0 0.04 0.375 0 0.06 0.375 0 0.08 0.375 0 0.1 0.375 0 0 0.38 0 0.02 0.38 0 0.04 0.38 0 0.06 0.38 0 0.08 0.38 0 0.1 0.38 0 0 0.385 0 0.02 0.385 0 0.04 0.385 0 0.06 0.385 0 0.08 0.385 0 0.1 0.385 0 0 0.39 0 0.02 0.39 0 0.04 0.39 0 0.06 0.39 0 0.08 0.39 0 0.1 0.39 0 0 0.395 0 0.02 0.395 0 0.04 0.395 0 0.06 0.395 0 0.08 0.395 0 0.1 0.395 0 0 0.4 0 0.02 0.4 0 0.04 0.4 0 0.06 0.4 0 0.08 0.4 0 0.1 0.4 0 0 0.405 0 0.02 0.405 0 0.04 0.405 0 0.06 0.405 0 0.08 0.405 0 0.1 0.405 0 0 0.41 0 0.02 0.41 0 0.04 0.41 0 0.06 0.41 0 0.08 0.41 0 0.1 0.41 0 0 0.415 0 0.02 0.415 0 0.04 0.415 0 0.06 0.415 0 0.08 0.415 0 0.1 0.415 0 0 0.42 0 0.02 0.42 0 0.04 0.42 0 0.06 0.42 0 0.08 0.42 0 0.1 0.42 0 0 0.425 0 0.02 0.425 0 0.04 0.425 0 0.06 0.425 0 0.08 0.425 0 0.1 0.425 0 0 0.43 0 0.02 0.43 0 0.04 0.43 0 0.06 0.43 0 0.08 0.43 0 0.1 0.43 0 0 0.435 0 0.02 0.435 0 0.04 0.435 0 0.06 0.435 0 0.08 0.435 0 0.1 0.435 0 0 0.44 0 0.02 0.44 0 0.04 0.44 0 0.06 0.44 0 0.08 0.44 0 0.1 0.44 0 0 0.445 0 0.02 0.445 0 0.04 0.445 0 0.06 0.445 0 0.08 0.445 0 0.1 0.445 0 0 0.45 0 0.02 0.45 0 0.04 0.45 0 0.06 0.45 0 0.08 0.45 0 0.1 0.45 0 0 0.455 0 0.02 0.455 0 0.04 0.455 0 0.06 0.455 0 0.08 0.455 0 0.1 0.455 0 0 0.46 0 0.02 0.46 0 0.04 0.46 0 0.06 0.46 0 0.08 0.46 0 0.1 0.46 0 0 0.465 0 0.02 0.465 0 0.04 0.465 0 0.06 0.465 0 0.08 0.465 0 0.1 0.465 0 0 0.47 0 0.02 0.47 0 0.04 0.47 0 0.06 0.47 0 0.08 0.47 0 0.1 0.47 0 0 0.475 0 0.02 0.475 0 0.04 0.475 0 0.06 0.475 0 0.08 0.475 0 0.1 0.475 0 0 0.48 0 0.02 0.48 0 0.04 0.48 0 0.06 0.48 0 0.08 0.48 0 0.1 0.48 0 0 0.485 0 0.02 0.485 0 0.04 0.485 0 0.06 0.485 0 0.08 0.485 0 0.1 0.485 0 0 0.49 0 0.02 0.49 0 0.04 0.49 0 0.06 0.49 0 0.08 0.49 0 0.1 0.49 0 0 0.495 0 0.02 0.495 0 0.04 0.495 0 0.06 0.495 0 0.08 0.495 0 0.1 0.495 0 0 0.5 0 0.02 0.5 0 0.04 0.5 0 0.06 0.5 0 0.08 0.5 0 0.1 0.5 0 0 0.505 0 0.02 0.505 0 0.04 0.505 0 0.06 0.505 0 0.08 0.505 0 0.1 0.505 0 0 0.51 0 0.02 0.51 0 0.04 0.51 0 0.06 0.51 0 0.08 0.51 0 0.1 0.51 0 0 0.515 0 0.02 0.515 0 0.04 0.515 0 0.06 0.515 0 0.08 0.515 0 0.1 0.515 0 0 0.52 0 0.02 0.52 0 0.04 0.52 0 0.06 0.52 0 0.08 0.52 0 0.1 0.52 0 0 0.525 0 0.02 0.525 0 0.04 0.525 0 0.06 0.525 0 0.08 0.525 0 0.1 0.525 0 0 0.53 0 0.02 0.53 0 0.04 0.53 0 0.06 0.53 0 0.08 0.53 0 0.1 0.53 0 0 0.535 0 0.02 0.535 0 0.04 0.535 0 0.06 0.535 0 0.08 0.535 0 0.1 0.535 0 0 0.54 0 0.02 0.54 0 0.04 0.54 0 0.06 0.54 0 0.08 0.54 0 0.1 0.54 0 0 0.545 0 0.02 0.545 0 0.04 0.545 0 0.06 0.545 0 0.08 0.545 0 0.1 0.545 0 0 0.55 0 0.02 0.55 0 0.04 0.55 0 0.06 0.55 0 0.08 0.55 0 0.1 0.55 0 0 0.555 0 0.02 0.555 0 0.04 0.555 0 0.06 0.555 0 0.08 0.555 0 0.1 0.555 0 0 0.56 0 0.02 0.56 0 0.04 0.56 0 0.06 0.56 0 0.08 0.56 0 0.1 0.56 0 0 0.565 0 0.02 0.565 0 0.04 0.565 0 0.06 0.565 0 0.08 0.565 0 0.1 0.565 0 0 0.57 0 0.02 0.57 0 0.04 0.57 0 0.06 0.57 0 0.08 0.57 0 0.1 0.57 0 0 0.575 0 0.02 0.575 0 0.04 0.575 0 0.06 0.575 0 0.08 0.575 0 0.1 0.575 0 0 0.58 0 0.02 0.58 0 0.04 0.58 0 0.06 0.58 0 0.08 0.58 0 0.1 0.58 0 0 0.585 0 0.02 0.585 0 0.04 0.585 0 0.06 0.585 0 0.08 0.585 0 0.1 0.585 0 0 0.59 0 0.02 0.59 0 0.04 0.59 0 0.06 0.59 0 0.08 0.59 0 0.1 0.59 0 0 0.595 0 0.02 0.595 0 0.04 0.595 0 0.06 0.595 0 0.08 0.595 0 0.1 0.595 0 0 0.6 0 0.02 0.6 0 0.04 0.6 0 0.06 0.6 0 0.08 0.6 0 0.1 0.6 0 0 0.605 0 0.02 0.605 0 0.04 0.605 0 0.06 0.605 0 0.08 0.605 0 0.1 0.605 0 0 0.61 0 0.02 0.61 0 0.04 0.61 0 0.06 0.61 0 0.08 0.61 0 0.1 0.61 0 0 0.615 0 0.02 0.615 0 0.04 0.615 0 0.06 0.615 0 0.08 0.615 0 0.1 0.615 0 0 0.62 0 0.02 0.62 0 0.04 0.62 0 0.06 0.62 0 0.08 0.62 0 0.1 0.62 0 0 0.625 0 0.02 0.625 0 0.04 0.625 0 0.06 0.625 0 0.08 0.625 0 0.1 0.625 0 0 0.63 0 0.02 0.63 0 0.04 0.63 0 0.06 0.63 0 0.08 0.63 0 0.1 0.63 0 0 0.635 0 0.02 0.635 0 0.04 0.635 0 0.06 0.635 0 0.08 0.635 0 0.1 0.635 0 0 0.64 0 0.02 0.64 0 0.04 0.64 0 0.06 0.64 0 0.08 0.64 0 0.1 0.64 0 0 0.645 0 0.02 0.645 0 0.04 0.645 0 0.06 0.645 0 0.08 0.645 0 0.1 0.645 0 0 0.65 0 0.02 0.65 0 0.04 0.65 0 0.06 0.65 0 0.08 0.65 0 0.1 0.65 0 0 0.655 0 0.02 0.655 0 0.04 0.655 0 0.06 0.655 0 0.08 0.655 0 0.1 0.655 0 0 0.66 0 0.02 0.66 0 0.04 0.66 0 0.06 0.66 0 0.08 0.66 0 0.1 0.66 0 0 0.665 0 0.02 0.665 0 0.04 0.665 0 0.06 0.665 0 0.08 0.665 0 0.1 0.665 0 0 0.67 0 0.02 0.67 0 0.04 0.67 0 0.06 0.67 0 0.08 0.67 0 0.1 0.67 0 0 0.675 0 0.02 0.675 0 0.04 0.675 0 0.06 0.675 0 0.08 0.675 0 0.1 0.675 0 0 0.68 0 0.02 0.68 0 0.04 0.68 0 0.06 0.68 0 0.08 0.68 0 0.1 0.68 0 0 0.685 0 0.02 0.685 0 0.04 0.685 0 0.06 0.685 0 0.08 0.685 0 0.1 0.685 0 0 0.69 0 0.02 0.69 0 0.04 0.69 0 0.06 0.69 0 0.08 0.69 0 0.1 
[...]
			<PointData Scalars="VitesseX">
				<DataArray Name="VitesseX" type="Float32" format="ascii">
 0 6.89382e-15 -5.87012e-14 3.23963e-14 1.04876e-14 0 0 6.11261e-15 -5.37212e-14 2.13417e-14 1.82323e-14 0 0 -2.60195e-14 -1.33148e-15 -2.43456e-14 4.0116e-14 0 0 7.98781e-15 -2.95466e-14 -5.64318e-15 2.84642e-14 0 0 1.31149e-14 -2.58093e-14 -2.72794e-14 3.68491e-14 0 0 -5.17789e-14 3.18503e-14 -6.95943e-14 4.40654e-14 0 0 -2.93472e-14 -5.15568e-14 4.018e-14 -4.60038e-14 0 0 2.63453e-14 -1.27278e-13 1.16084e-13 -1.30155e-13 0 0 5.43299e-15 -8.11552e-14 3.48733e-14 -7.11715e-14 0 0 -6.22425e-14 2.68261e-14 -1.13235e-13 5.67747e-14 0 0 -1.08976e-14 -4.40492e-14 -9.20549e-14 7.07731e-14 0 0 -5.18908e-14 -2.32499e-14 -9.1101e-14 2.29224e-14 0 0 3.17793e-14 -1.3594e-13 3.01876e-14 -9.92367e-14 0 0 -2.68168e-14 -6.0787e-14 -1.02461e-14 -7.61359e-14 0 0 -1.02428e-13 5.3867e-15 -8.05525e-14 -1.41145e-14 0 0 4.876e-14 -2.33921e-13 9.22109e-14 -8.11564e-14 0 0 -1.25291e-13 1.42406e-14 -6.36474e-14 6.46314e-15 0 0 -7.13966e-14 -8.45173e-15 -7.393e-14 9.95864e-14 0 0 -5.53993e-14 4.02247e-16 -1.36145e-13 2.05399e-13 0 0 -1.01187e-13 3.20255e-14 -1.15725e-13 1.29272e-13 0 0 5.85875e-14 -2.19533e-13 1.39344e-13 -1.08286e-13 0 0 3.53396e-14 -1.97097e-13 9.50599e-14 -1.12736e-13 0 0 -9.11909e-14 2.12872e-14 -1.92286e-13 3.59479e-14 0 0 -1.56123e-13 1.29091e-13 -3.06604e-13 6.18523e-14 0 0 1.57412e-14 -1.77567e-13 3.3788e-14 -1.76869e-13 0 0 1.93961e-13 -4.40132e-13 2.7654e-13 -3.54302e-13 0 0 1.01468e-14 -1.11126e-13 -6.88571e-14 -1.26771e-13 0 0 -1.32848e-13 1.86044e-13 -3.87381e-13 1.25008e-13 0 0 -2.69643e-14 3.65316e-14 -2.37516e-13 3.43984e-14 0 0 1.04459e-13 -2.34843e-13 7.98741e-14 -1.77636e-13 0 0 3.66546e-15 -1.59275e-13 5.63998e-14 -1.45799e-13 0 0 1.49381e-14 -1.76065e-13 4.36675e-14 -1.41183e-13 0 0 2.29906e-14 -1.36186e-13 -3.05367e-14 -9.61962e-14 0 0 -2.03893e-13 2.07076e-13 -3.48996e-13 1.05986e-13 0 0 6.11179e-15 -1.58563e-13 -4.33849e-15 -1.09528e-13 0 0 9.19225e-14 -3.62048e-13 1.85817e-13 -1.79506e-13 0 0 1.00346e-13 -3.19171e-13 3.42549e-14 1.17292e-13 0 0 -1.3564e-13 1.36015e-13 -4.00368e-13 5.16491e-13 0 0 -1.3031e-13 1.29303e-13 -4.03162e-13 5.70965e-13 0 0 4.85516e-14 -2.16467e-13 -8.4315e-14 2.88145e-13 0 0 5.8656e-15 -1.99675e-13 2.20869e-14 -8.22117e-15 0 0 7.24074e-14 -2.94926e-13 1.73084e-13 -2.33106e-13 0 0 -1.5028e-13 4.39474e-14 -1.24823e-13 -1.01476e-13 0 0 -5.12796e-14 -1.11071e-13 2.51872e-14 -2.21745e-13 0 0 2.31755e-13 -5.25028e-13 3.41808e-13 -3.93835e-13 0 0 -5.522e-14 -5.42338e-14 -2.07017e-13 3.11474e-14 0 0 1.90472e-14 -2.77839e-14 -4.67571e-13 3.48289e-13 0 0 -1.90072e-14 2.32098e-15 -4.84817e-13 3.21126e-13 0 0 -1.61494e-13 1.61025e-14 -2.96408e-13 3.37933e-14 0 0 1.44187e-13 -5.67096e-13 2.75298e-13 -3.45543e-13 0 0 1.39242e-13 -6.92394e-13 4.16e-13 -3.9137e-13 0 0 1.99762e-13 -7.25852e-13 2.18663e-13 -1.56407e-14 0 0 -3.73038e-13 2.05355e-13 -6.59816e-13 6.23828e-13 0 0 -1.64513e-13 -1.39794e-14 -3.60882e-13 3.13555e-13 0 0 1.90032e-13 -6.94266e-13 2.82965e-13 -8.10486e-14 0 0 -3.22532e-13 -1.84586e-13 -1.10672e-13 1.96707e-13 0 0 1.35644e-13 -5.81308e-13 2.08507e-13 -1.59125e-13 0 0 2.89554e-14 -3.10865e-13 5.04106e-14 -2.15397e-13 0 0 9.51498e-14 -3.4846e-13 8.44329e-14 -2.01557e-13 0 0 3.36466e-13 -6.70665e-13 2.97234e-13 -1.84006e-13 0 0 -1.84614e-13 -7.72621e-14 -2.39555e-13 2.97796e-13 0 0 -2.70619e-13 4.42834e-14 -4.07374e-13 4.22252e-13 0 0 -2.24421e-13 -9.62211e-14 -1.42169e-13 1.47994e-13 0 0 1.12401e-13 -5.17009e-13 4.97871e-13 -4.9129e-13 0 0 8.17472e-14 -4.16142e-13 4.20972e-13 -4.64625e-13 0 0 -2.55746e-13 2.65136e-14 -1.70172e-13 6.66925e-14 0 0 -2.10225e-13 1.00126e-14 -3.21662e-13 2.40186e-13 0 0 -2.2604e-13 9.89792e-15 -2.767e-13 1.89506e-13 0 0 1.51435e-13 -4.38752e-13 2.3532e-13 -2.86941e-13 0 0 2.2306e-13 -4.9459e-13 4.16325e-14 -1.71583e-14 0 0 -4.87007e-13 3.37212e-13 -7.76467e-13 6.18645e-13 0 0 -5.58834e-14 -2.76315e-13 -8.71507e-14 6.79041e-14 0 0 1.35231e-13 -7.13578e-13 3.41831e-13 -5.74013e-14 0 0 1.16385e-13 -7.91002e-13 4.18054e-13 2.31824e-13 0 0 -1.66043e-13 -2.37723e-13 -2.0366e-13 8.53107e-13 0 0 -5.17564e-13 1.73485e-13 -7.80335e-13 1.34497e-12 0 0 1.18391e-13 -8.60021e-13 2.62642e-13 3.21051e-13 0 0 -1.04724e-13 -6.73559e-13 3.85412e-13 -2.92627e-13 0 0 -2.39672e-15 -6.688e-13 3.30556e-13 -5.01637e-13 0 0 -3.31496e-13 -5.67335e-14 -2.11107e-13 -2.93382e-13 0 0 -2.63744e-13 -3.31244e-13 -2.63619e-13 1.75592e-13 0 0 2.51284e-13 -9.59625e-13 -2.85777e-13 2.27808e-13 0 0 -6.17902e-13 4.25638e-13 -1.36875e-12 3.5289e-13 0 0 -2.2538e-13 -1.27397e-13 -5.62141e-13 -2.07965e-13 0 0 5.43785e-13 -1.45687e-12 7.74165e-13 -8.75414e-13 0 0 -3.77419e-13 -1.68086e-13 -2.30838e-13 -5.62591e-13 0 0 -7.00646e-13 6.5365e-13 -1.25058e-12 -1.80222e-13 0 0 1.80413e-14 -4.62017e-13 -2.97722e-13 -5.78158e-13 0 0 -1.05022e-14 -5.63918e-13 9.55482e-14 -9.91603e-13 0 0 2.48876e-13 -7.61937e-13 1.72714e-13 -8.87088e-13 0 0 -1.2103e-13 8.88847e-14 -6.3412e-13 -2.93874e-13 0 0 -4.44678e-13 7.39734e-13 -1.3299e-12 -3.74693e-14 0 0 1.55986e-13 -5.29524e-13 -1.06046e-13 -4.45859e-13 0 0 6.81585e-14 -6.44603e-13 3.06174e-13 -8.46965e-13 0 0 3.84138e-13 -8.99449e-13 5.07163e-14 -4.44094e-13 0 0 -7.47149e-13 6.82777e-13 -1.33156e-12 3.72074e-13 0 0 4.73914e-14 -1.7131e-13 -5.43226e-13 -7.88193e-14 0 0 3.90999e-13 -8.30577e-13 1.51064e-13 -3.19556e-13 0 0 -3.97331e-13 -2.18272e-13 3.86287e-13 -7.29683e-13 0 0 3.27016e-13 -8.38962e-13 4.30803e-13 -2.80794e-13 0 0 1.46166e-13 -5.92943e-13 2.39942e-15 1.08519e-13 0 0 -3.27437e-13 -6.108e-14 -5.99472e-13 3.55101e-13 0 0 -4.13134e-13 -6.14973e-14 -5.81943e-13 2.83275e-13 0 0 -2.39769e-13 -3.58861e-13 -3.42693e-13 1.29882e-13 0 0 -1.10424e-13 -3.27273e-13 -3.56424e-13 8.83448e-14 0 0 -4.85835e-13 3.43303e-13 -8.8265e-13 3.3246e-13 0 0 -2.33285e-13 -8.76659e-14 -4.48189e-13 1.14803e-13 0 0 2.2995e-13 -9.01295e-13 4.5651e-13 -5.67632e-13 0 0 3.04135e-13 -1.00357e-12 5.33423e-13 -6.36786e-13 0 0 -1.79954e-13 -4.50552e-14 -6.07962e-13 8.43789e-14 0 0 -7.30436e-13 9.09887e-13 -1.52362e-12 4.75425e-13 0 0 -1.73602e-13 -1.36377e-13 -4.71772e-13 -9.8054e-14 0 0 3.66726e-13 -1.05934e-12 6.06499e-13 -1.05297e-12 0 0 3.5013e-13 -9.6141e-13 5.15028e-13 -1.14648e-12 0 0 -2.82736e-13 1.29979e-13 -6.3114e-13 -3.60036e-13 0 0 -7.35409e-13 7.36121e-13 -1.13877e-12 -3.73686e-14 0 0 -2.40085e-13 -3.13376e-13 -9.81701e-14 -4.73687e-13 0 0 4.35091e-13 -1.21422e-12 7.42959e-13 -1.13533e-12 0 0 -1.23619e-13 -2.87039e-13 -2.46065e-13 -5.24439e-13 0 0 -1.64448e-13 -3.76511e-13 -4.37386e-13 8.69064e-14 0 0 -3.53876e-13 -1.99847e-13 -5.30026e-13 7.10116e-14 0 0 -5.76965e-13 -1.72633e-13 -4.05204e-13 2.36292e-14 0 0 4.20928e-13 -1.48619e-12 6.40283e-13 -6.86436e-13 0 0 -3.23882e-13 -6.90917e-14 -7.62938e-13 -1.46353e-13 0 0 -2.90263e-13 -2.10826e-13 -7.06837e-13 2.69383e-13 0 0 -3.09223e-13 -2.35723e-13 -4.5641e-13 -8.92357e-15 0 0 -5.81757e-13 -1.90354e-13 -3.00855e-13 -1.46782e-13 0 0 4.83372e-13 -1.6669e-12 8.62819e-13 -8.10053e-13 0 0 -2.07579e-13 -3.66889e-13 -4.20557e-13 -2.39425e-13 0 0 -2.77151e-13 -3.34555e-13 -5.53856e-13 1.97478e-13 0 0 -2.61827e-13 -3.76873e-13 -3.29711e-13 -9.85037e-14 0 0 -5.41473e-13 -3.3081e-13 -1.24598e-13 -2.70924e-13 0 0 3.72374e-13 -1.59681e-12 9.72693e-13 -1.02978e-12 0 0 -2.72229e-13 -2.83183e-13 -2.65882e-13 -5.8004e-13 0 0 -2.41054e-13 -3.16657e-13 -4.93873e-13 5.38783e-14 0 0 -2.46905e-13 -2.83158e-13 -5.04896e-13 3.39428e-14 0 0 -4.51445e-13 -2.37745e-13 -4.38496e-13 -4.00827e-15 0 0 4.39358e-13 -1.44349e-12 5.4492e-13 -6.2599e-13 0 0 -1.39626e-13 -1.78242e-13 -5.96722e-13 -3.87664e-13 0 0 -2.46518e-13 -8.48212e-14 -6.05187e-13 -2.11429e-13 0 0 -3.44655e-14 -6.0025e-13 -2.2019e-13 -2.63974e-13 0 0 -7.43415e-13 5.09367e-13 -1.41304e-12 2.21157e-13 0 0 3.626e-13 -9.8158e-13 5.10452e-14 -7.98757e-13 0 0 6.08825e-13 -1.54117e-12 5.32395e-13 -9.19924e-13 0 0 -8.53138e-13 4.81673e-13 -1.67329e-12 5.3844e-13 0 0 -3.19739e-13 -4.21903e-13 -1.08927e-12 5.37613e-13 0 0 -4.40907e-13 -4.43127e-13 -7.23605e-13 6.32354e-14 0 0 1.34687e-13 -1.08168e-12 1.62865e-13 -7.25448e-13 0 0 5.37052e-13 -1.61521e-12 4.26903e-13 -3.5001e-13 0 0 -8.7334e-13 5.3603e-13 -2.05953e-12 1.68908e-12 0 0 -2.75067e-13 -3.79557e-13 -1.33141e-12 1.55643e-12 0 0 -3.46204e-13 -5.77132e-13 -5.51313e-13 2.18377e-13 0 0 2.17429e-13 -1.13256e-12 1.80341e-13 -1.20251e-12 0 0 2.20168e-13 -1.1426e-12 1.60816e-13 -1.33561e-12 0 0 -4.13502e-13 -4.49134e-13 -6.14912e-13 -4.53414e-13 0 0 -4.57185e-13 -2.13118e-13 -6.97678e-13 -4.36446e-13 0 0 -5.2954e-13 -2.54441e-13 -2.80327e-13 -5.26025e-13 0 0 3.82894e-13 -1.44198e-12 6.37049e-13 -7.20358e-13 0 0 -9.89801e-14 -2.4877e-13 -9.53265e-13 2.04963e-13 0 0 -4.87293e-13 5.62624e-13 -2.28885e-12 1.22788e-12 0 0 -5.92455e-13 6.23793e-13 -2.1061e-12 6.71827e-13 0 0 1.01071e-14 -1.12616e-12 4.39337e-13 -9.55949e-13 0 0 6.70132e-13 -2.46178e-12 2.00472e-12 -2.27038e-12 0 0 -1.8901e-13 -6.35648e-13 -3.79302e-13 -1.05778e-12 0 0 -6.95062e-13 7.00604e-13 -2.39914e-12 7.00821e-13 0 0 -5.56136e-13 5.96159e-13 -2.07566e-12 2.72048e-13 0 0 9.71576e-14 -9.75533e-13 -2.11805e-13 -8.67252e-13 0 0 5.63511e-13 -1.9771e-12 9.1562e-13 -2.35171e-12 0 0 -4.03408e-13 -5.14488e-13 -1.809e-13 -2.54871e-12 0 0 -7.53146e-14 -1.07803e-12 3.51714e-13 -1.95235e-12 0 0 6.44365e-14 -1.1427e-12 3.064e-13 -1.3529e-12 0 0 -9.84518e-13 6.61952e-13 -1.78349e-12 -5.09236e-14 0 0 -4.9556e-14 -5.87933e-13 -1.11341e-12 -3.12286e-13 0 0 -1.53953e-13 -7.42895e-13 -4.35469e-13 -8.93821e-13 0 0 -1.60084e-13 -1.05109e-12 4.32335e-13 -1.08008e-12 0 0 7.66615e-14 -1.03721e-12 4.42957e-14 -8.27731e-13 0 0 -7.45238e-13 5.09438e-13 -1.94755e-12 1.79705e-13 0 0 7.31832e-14 -6.69346e-13 -1.11753e-12 -1.41449e-13 0 0 -8.95783e-14 -7.24829e-13 -4.47032e-13 -9.7199e-13 0 0 -2.04154e-14 -1.14234e-12 5.49873e-13 -1.40193e-12 0 0 2.15479e-13 -1.22202e-12 2.92207e-13 -9.60049e-13 0 0 -8.38937e-13 6.03337e-13 -2.06579e-12 3.41463e-13 0 0 -3.00349e-14 -5.69231e-13 -1.39657e-12 -8.35495e-15 0 0 -1.06259e-13 -7.84387e-13 -5.5898e-13 -7.60346e-13 0 0 -7.78714e-14 -1.0926e-12 2.27824e-13 -8.75388e-13 0 0 1.10344e-13 -1.06606e-12 -1.62249e-13 -5.0942e-13 0 0 -9.32577e-13 6.96164e-13 -2.24413e-12 6.10706e-13 0 0 8.45777e-15 -6.59544e-13 -1.24905e-12 1.86175e-13 0 0 -6.66241e-14 -8.05992e-13 -5.60351e-13 -5.30537e-13 0 0 1.45742e-13 -1.34592e-12 1.33481e-13 -7.87823e-13 0 0 4.86945e-13 -1.29717e-12 -8.3552e-13 -3.62694e-13 0 0 -1.24858e-12 1.32848e-12 -3.45931e-12 6.67277e-13 0 0 6.50421e-13 -1.75166e-12 1.94638e-13 -1.28743e-12 0 0 1.30636e-12 -2.99159e-12 1.83768e-12 -1.95651e-12 0 0 -7.25599e-13 2.73203e-14 -1.63086e-12 4.04447e-13 0 0 -7.97254e-13 4.27228e-13 -2.95261e-12 1.64047e-12 0 0 -1.27108e-12 7.40972e-13 -2.90992e-12 1.58426e-12 0 0 5.9349e-13 -2.32684e-12 8.90117e-13 -8.45393e-13 0 0 8.14178e-13 -2.70668e-12 1.39782e-12 -1.1658e-12 0 0 -9.80698e-13 3.19891e-13 -2.46878e-12 1.35683e-12 0 0 -7.42822e-13 3.73223e-13 -3.30944e-12 2.14512e-12 0
				</DataArray>
				<DataArray Name="VitesseY" type="Float32" format="ascii">