<?xml version="1.0"?>
<VTKFile type="PolyData">
	<PolyData>
		<Piece NumberOfPoints="1206" NumberOfPolys="1000">
			<Points>
				<DataArray type="Float32" NumberOfComponents="3" format="ascii">
 0 0 0 0.02 0 0 0.04 0 0 0.06 0 0 0.08 0 0 0.1 0 0 0 0.005 0 0.02 0.005 0 0.04 0.005 0 0.06 0.005 0 0.08 0.005 0 0.1 0.005 0 0 0.01 0 0.02 0.01 0 0.04 0.01 0 0.06 0.01 0 0.08 0.01 0 0.1 0.01 0 0 0.015 0 0.02 0.015 0 0.04 0.015 0 0.06 0.015 0 0.08 0.015 0 0.1 0.015 0 0 0.02 0 0.02 0.02 0 0.04 0.02 0 0.06 0.02 0 0.08 0.02 0 0.1 0.02 0 0 0.025 0 0.02 0.025 0 0.04 0.025 0 0.06 0.025 0 0.08 0.025 0 0.1 0.025 0 0 0.03 0 0.02 0.03 0 0.04 0.03 0 0.06 0.03 0 0.08 0.03 0 0.1 0.03 0 0 0.035 0 0.02 0.035 0 0.04 0.035 0 0.06 0.035 0 0.08 0.035 0 0.1 0.035 0 0 0.04 0 0.02 0.04 0 0.04 0.04 0 0.06 0.04 0 0.08 0.04 0 0.1 0.04 0 0 0.045 0 0.02 0.045 0 0.04 0.045 0 0.06 0.045 0 0.08 0.045 0 0.1 0.045 0 0 0.05 0 0.02 0.05 0 0.04 0.05 0 0.06 0.05 0 0.08 0.05 0 0.1 0.05 0 0 0.055 0 0.02 0.055 0 0.04 0.055 0 0.06 0.055 0 0.08 0.055 0 0.1 0.055 0 0 0.06 0 0.02 0.06 0 0.04 0.06 0 0.06 0.06 0 0.08 0.06 0 0.1 0.06 0 0 0.065 0 0.02 0.065 0 0.04 0.065 0 0.06 0.065 0 0.08 0.065 0 0.1 0.065 0 0 0.07 0 0.02 0.07 0 0.04 0.07 0 0.06 0.07 0 0.08 0.07 0 0.1 0.07 0 0 0.075 0 0.02 0.075 0 0.04 0.075 0 0.06 0.075 0 0.08 0.075 0 0.1 0.075 0 0 0.08 0 0.02 0.08 0 0.04 0.08 0 0.06 0.08 0 0.08 0.08 0 0.1 0.08 0 0 0.085 0 0.02 0.085 0 0.04 0.085 0 0.06 0.085 0 0.08 0.085 0 0.1 0.085 0 0 0.09 0 0.02 0.09 0 0.04 0.09 0 0.06 0.09 0 0.08 0.09 0 0.1 0.09 0 0 0.095 0 0.02 0.095 0 0.04 0.095 0 0.06 0.095 0 0.08 0.095 0 0.1 0.095 0 0 0.1 0 0.02 0.1 0 0.04 0.1 0 0.06 0.1 0 0.08 0.1 0 0.1 0.1 0 0 0.105 0 0.02 0.105 0 0.04 0.105 0 0.06 0.105 0 0.08 0.105 0 0.1 0.105 0 0 0.11 0 0.02 0.11 0 0.04 0.11 0 0.06 0.11 0 0.08 0.11 0 0.1 0.11 0 0 0.115 0 0.02 0.115 0 0.04 0.115 0 0.06 0.115 0 0.08 0.115 0 0.1 0.115 0 0 0.12 0 0.02 0.12 0 0.04 0.12 0 0.06 0.12 0 0.08 0.12 0 0.1 0.12 0 0 0.125 0 0.02 0.125 0 0.04 0.125 0 0.06 0.125 0 0.08 0.125 0 0.1 0.125 0 0 0.13 0 0.02 0.13 0 0.04 0.13 0 0.06 0.13 0 0.08 0.13 0 0.1 0.13 0 0 0.135 0 0.02 0.135 0 0.04 0.135 0 0.06 0.135 0 0.08 0.135 0 0.1 0.135 0 0 0.14 0 0.02 0.14 0 0.04 0.14 0 0.06 0.14 0 0.08 0.14 0 0.1 0.14 0 0 0.145 0 0.02 0.145 0 0.04 0.145 0 0.06 0.145 0 0.08 0.145 0 0.1 0.145 0 0 0.15 0 0.02 0.15 0 0.04 0.15 0 0.06 0.15 0 0.08 0.15 0 0.1 0.15 0 0 0.155 0 0.02 0.155 0 0.04 0.155 0 0.06 0.155 0 0.08 0.155 0 0.1 0.155 0 0 0.16 0 0.02 0.16 0 0.04 0.16 0 0.06 0.16 0 0.08 0.16 0 0.1 0.16 0 0 0.165 0 0.02 0.165 0 0.04 0.165 0 0.06 0.165 0 0.08 0.165 0 0.1 0.165 0 0 0.17 0 0.02 0.17 0 0.04 0.17 0 0.06 0.17 0 0.08 0.17 0 0.1 0.17 0 0 0.175 0 0.02 0.175 0 0.04 0.175 0 0.06 0.175 0 0.08 0.175 0 0.1 0.175 0 0 0.18 0 0.02 0.18 0 0.04 0.18 0 0.06 0.18 0 0.08 0.18 0 0.1 0.18 0 0 0.185 0 0.02 0.185 0 0.04 0.185 0 0.06 0.185 0 0.08 0.185 0 0.1 0.185 0 0 0.19 0 0.02 0.19 0 0.04 0.19 0 0.06 0.19 0 0.08 0.19 0 0.1 0.19 0 0 0.195 0 0.02 0.195 0 0.04 0.195 0 0.06 0.195 0 0.08 0.195 0 0.1 0.195 0 0 0.2 0 0.02 0.2 0 0.04 0.2 0 0.06 0.2 0 0.08 0.2 0 0.1 0.2 0 0 0.205 0 0.02 0.205 0 0.04 0.205 0 0.06 0.205 0 0.08 0.205 0 0.1 0.205 0 0 0.21 0 0.02 0.21 0 0.04 0.21 0 0.06 0.21 0 0.08 0.21 0 0.1 0.21 0 0 0.215 0 0.02 0.215 0 0.04 0.215 0 0.06 0.215 0 0.08 0.215 0 0.1 0.215 0 0 0.22 0 0.02 0.22 0 0.04 0.22 0 0.06 0.22 0 0.08 0.22 0 0.1 0.22 0 0 0.225 0 0.02 0.225 0 0.04 0.225 0 0.06 0.225 0 0.08 0.225 0 0.1 0.225 0 0 0.23 0 0.02 0.23 0 0.04 0.23 0 0.06 0.23 0 0.08 0.23 0 0.1 0.23 0 0 0.235 0 0.02 0.235 0 0.04 0.235 0 0.06 0.235 0 0.08 0.235 0 0.1 0.235 0 0 0.24 0 0.02 0.24 0 0.04 0.24 0 0.06 0.24 0 0.08 0.24 0 0.1 0.24 0 0 0.245 0 0.02 0.245 0 0.04 0.245 0 0.06 0.245 0 0.08 0.245 0 0.1 0.245 0 0 0.25 0 0.02 0.25 0 0.04 0.25 0 0.06 0.25 0 0.08 0.25 0 0.1 0.25 0 0 0.255 0 0.02 0.255 0 0.04 0.255 0 0.06 0.255 0 0.08 0.255 0 0.1 0.255 0 0 0.26 0 0.02 0.26 0 0.04 0.26 0 0.06 0.26 0 0.08 0.26 0 0.1 0.26 0 0 0.265 0 0.02 0.265 0 0.04 0.265 0 0.06 0.265 0 0.08 0.265 0 0.1 0.265 0 0 0.27 0 0.02 0.27 0 0.04 0.27 0 0.06 0.27 0 0.08 0.27 0 0.1 0.27 0 0 0.275 0 0.02 0.275 0 0.04 0.275 0 0.06 0.275 0 0.08 0.275 0 0.1 0.275 0 0 0.28 0 0.02 0.28 0 0.04 0.28 0 0.06 0.28 0 0.08 0.28 0 0.1 0.28 0 0 0.285 0 0.02 0.285 0 0.04 0.285 0 0.06 0.285 0 0.08 0.285 0 0.1 0.285 0 0 0.29 0 0.02 0.29 0 0.04 0.29 0 0.06 0.29 0 0.08 0.29 0 0.1 0.29 0 0 0.295 0 0.02 0.295 0 0.04 0.295 0 0.06 0.295 0 0.08 0.295 0 0.1 0.295 0 0 0.3 0 0.02 0.3 0 0.04 0.3 0 0.06 0.3 0 0.08 0.3 0 0.1 0.3 0 0 0.305 0 0.02 0.305 0 0.04 0.305 0 0.06 0.305 0 0.08 0.305 0 0.1 0.305 0 0 0.31 0 0.02 0.31 0 0.04 0.31 0 0.06 0.31 0 0.08 0.31 0 0.1 0.31 0 0 0.315 0 0.02 0.315 0 0.04 0.315 0 0.06 0.315 0 0.08 0.315 0 0.1 0.315 0 0 0.32 0 0.02 0.32 0 0.04 0.32 0 0.06 0.32 0 0.08 0.32 0 0.1 0.32 0 0 0.325 0 0.02 0.325 0 0.04 0.325 0 0.06 0.325 0 0.08 0.325 0 0.1 0.325 0 0 0.33 0 0.02 0.33 0 0.04 0.33 0 0.06 0.33 0 0.08 0.33 0 0.1 0.33 0 0 0.335 0 0.02 0.335 0 0.04 0.335 0 0.06 0.335 0 0.08 0.335 0 0.1 0.335 0 0 0.34 0 0.02 0.34 0 0.04 0.34 0 0.06 0.34 0 0.08 0.34 0 0.1 0.34 0 0 0.345 0 0.02 0.345 0 0.04 0.345 0 0.06 0.345 0 0.08 0.345 0 0.1 0.345 0 0 0.35 0 0.02 0.35 0 0.04 0.35 0 0.06 0.35 0 0.08 0.35 0 0.1 0.35 0 0 0.355 0 0.02 0.355 0 0.04 0.355 0 0.06 0.355 0 0.08 0.355 0 0.1 0.355 0 0 0.36 0 0.02 0.36 0 0.04 0.36 0 0.06 0.36 0 0.08 0.36 0 0.1 0.36 0 0 0.365 0 0.02 0.365 0 0.04 0.365 0 0.06 0.365 0 0.08 0.365 0 0.1 0.365 0 0 0.37 0 0.02 0.37 0 0.04 0.37 0 0.06 0.37 0 0.08 0.37 0 0.1 0.37 0 0 0.375 0 0.02 0.375 0 0.04 0.375 0 0.06 0.375 0 0.08 0.375 0 0.1 0.375 0 0 0.38 0 0.02 0.38 0 0.04 0.38 0 0.06 0.38 0 0.08 0.38 0 0.1 0.38 0 0 0.385 0 0.02 0.385 0 0.04 0.385 0 0.06 0.385 0 0.08 0.385 0 0.1 0.385 0 0 0.39 0 0.02 0.39 0 0.04 0.39 0 0.06 0.39 0 0.08 0.39 0 0.1 0.39 0 0 0.395 0 0.02 0.395 0 0.04 0.395 0 0.06 0.395 0 0.08 0.395 0 0.1 0.395 0 0 0.4 0 0.02 0.4 0 0.04 0.4 0 0.06 0.4 0 0.08 0.4 0 0.1 0.4 0 0 0.405 0 0.02 0.405 0 0.04 0.405 0 0.06 0.405 0 0.08 0.405 0 0.1 0.405 0 0 0.41 0 0.02 0.41 0 0.04 0.41 0 0.06 0.41 0 0.08 0.41 0 0.1 0.41 0 0 0.415 0 0.02 0.415 0 0.04 0.415 0 0.06 0.415 0 0.08 0.415 0 0.1 0.415 0 0 0.42 0 0.02 0.42 0 0.04 0.42 0 0.06 0.42 0 0.08 0.42 0 0.1 0.42 0 0 0.425 0 0.02 0.425 0 0.04 0.425 0 0.06 0.425 0 0.08 0.425 0 0.1 0.425 0 0 0.43 0 0.02 0.43 0 0.04 0.43 0 0.06 0.43 0 0.08 0.43 0 0.1 0.43 0 0 0.435 0 0.02 0.435 0 0.04 0.435 0 0.06 0.435 0 0.08 0.435 0 0.1 0.435 0 0 0.44 0 0.02 0.44 0 0.04 0.44 0 0.06 0.44 0 0.08 0.44 0 0.1 0.44 0 0 0.445 0 0.02 0.445 0 0.04 0.445 0 0.06 0.445 0 0.08 0.445 0 0.1 0.445 0 0 0.45 0 0.02 0.45 0 0.04 0.45 0 0.06 0.45 0 0.08 0.45 0 0.1 0.45 0 0 0.455 0 0.02 0.455 0 0.04 0.455 0 0.06 0.455 0 0.08 0.455 0 0.1 0.455 0 0 0.46 0 0.02 0.46 0 0.04 0.46 0 0.06 0.46 0 0.08 0.46 0 0.1 0.46 0 0 0.465 0 0.02 0.465 0 0.04 0.465 0 0.06 0.465 0 0.08 0.465 0 0.1 0.465 0 0 0.47 0 0.02 0.47 0 0.04 0.47 0 0.06 0.47 0 0.08 0.47 0 0.1 0.47 0 0 0.475 0 0.02 0.475 0 0.04 0.475 0 0.06 0.475 0 0.08 0.475 0 0.1 0.475 0 0 0.48 0 0.02 0.48 0 0.04 0.48 0 0.06 0.48 0 0.08 0.48 0 0.1 0.48 0 0 0.485 0 0.02 0.485 0 0.04 0.485 0 0.06 0.485 0 0.08 0.485 0 0.1 0.485 0 0 0.49 0 0.02 0.49 0 0.04 0.49 0 0.06 0.49 0 0.08 0.49 0 0.1 0.49 0 0 0.495 0 0.02 0.495 0 0.04 0.495 0 0.06 0.495 0 0.08 0.495 0 0.1 0.495 0 0 0.5 0 0.02 0.5 0 0.04 0.5 0 0.06 0.5 0 0.08 0.5 0 0.1 0.5 0 0 0.505 0 0.02 0.505 0 0.04 0.505 0 0.06 0.505 0 0.08 0.505 0 0.1 0.505 0 0 0.51 0 0.02 0.51 0 0.04 0.51 0 0.06 0.51 0 0.08 0.51 0 0.1 0.51 0 0 0.515 0 0.02 0.515 0 0.04 0.515 0 0.06 0.515 0 0.08 0.515 0 0.1 0.515 0 0 0.52 0 0.02 0.52 0 0.04 0.52 0 0.06 0.52 0 0.08 0.52 0 0.1 0.52 0 0 0.525 0 0.02 0.525 0 0.04 0.525 0 0.06 0.525 0 0.08 0.525 0 0.1 0.525 0 0 0.53 0 0.02 0.53 0 0.04 0.53 0 0.06 0.53 0 0.08 0.53 0 0.1 0.53 0 0 0.535 0 0.02 0.535 0 0.04 0.535 0 0.06 0.535 0 0.08 0.535 0 0.1 0.535 0 0 0.54 0 0.02 0.54 0 0.04 0.54 0 0.06 0.54 0 0.08 0.54 0 0.1 0.54 0 0 0.545 0 0.02 0.545 0 0.04 0.545 0 0.06 0.545 0 0.08 0.545 0 0.1 0.545 0 0 0.55 0 0.02 0.55 0 0.04 0.55 0 0.06 0.55 0 0.08 0.55 0 0.1 0.55 0 0 0.555 0 0.02 0.555 0 0.04 0.555 0 0.06 0.555 0 0.08 0.555 0 0.1 0.555 0 0 0.56 0 0.02 0.56 0 0.04 0.56 0 0.06 0.56 0 0.08 0.56 0 0.1 0.56 0 0 0.565 0 0.02 0.565 0 0.04 0.565 0 0.06 0.565 0 0.08 0.565 0 0.1 0.565 0 0 0.57 0 0.02 0.57 0 0.04 0.57 0 0.06 0.57 0 0.08 0.57 0 0.1 0.57 0 0 0.575 0 0.02 0.575 0 0.04 0.575 0 0.06 0.575 0 0.08 0.575 0 0.1 0.575 0 0 0.58 0 0.02 0.58 0 0.04 0.58 0 0.06 0.58 0 0.08 0.58 0 0.1 0.58 0 0 0.585 0 0.02 0.585 0 0.04 0.585 0 0.06 0.585 0 0.08 0.585 0 0.1 0.585 0 0 0.59 0 0.02 0.59 0 0.04 0.59 0 0.06 0.59 0 0.08 0.59 0 0.1 0.59 0 0 0.595 0 0.02 0.595 0 0.04 0.595 0 0.06 0.595 0 0.08 0.595 0 0.1 0.595 0 0 0.6 0 0.02 0.6 0 0.04 0.6 0 0.06 0.6 0 0.08 0.6 0 0.1 0.6 0 0 0.605 0 0.02 0.605 0 0.04 0.605 0 0.06 0.605 0 0.08 0.605 0 0.1 0.605 0 0 0.61 0 0.02 0.61 0 0.04 0.61 0 0.06 0.61 0 0.08 0.61 0 0.1 0.61 0 0 0.615 0 0.02 0.615 0 0.04 0.615 0 0.06 0.615 0 0.08 0.615 0 0.1 0.615 0 0 0.62 0 0.02 0.62 0 0.04 0.62 0 0.06 0.62 0 0.08 0.62 0 0.1 0.62 0 0 0.625 0 0.02 0.625 0 0.04 0.625 0 0.06 0.625 0 0.08 0.625 0 0.1 0.625 0 0 0.63 0 0.02 0.63 0 0.04 0.63 0 0.06 0.63 0 0.08 0.63 0 0.1 0.63 0 0 0.635 0 0.02 0.635 0 0.04 0.635 0 0.06 0.635 0 0.08 0.635 0 0.1 0.635 0 0 0.64 0 0.02 0.64 0 0.04 0.64 0 0.06 0.64 0 0.08 0.64 0 0.1 0.64 0 0 0.645 0 0.02 0.645 0 0.04 0.645 0 0.06 0.645 0 0.08 0.645 0 0.1 0.645 0 0 0.65 0 0.02 0.65 0 0.04 0.65 0 0.06 0.65 0 0.08 0.65 0 0.1 0.65 0 0 0.655 0 0.02 0.655 0 0.04 0.655 0 0.06 0.655 0 0.08 0.655 0 0.1 0.655 0 0 0.66 0 0.02 0.66 0 0.04 0.66 0 0.06 0.66 0 0.08 0.66 0 0.1 0.66 0 0 0.665 0 0.02 0.665 0 0.04 0.665 0 0.06 0.665 0 0.08 0.665 0 0.1 0.665 0 0 0.67 0 0.02 0.67 0 0.04 0.67 0 0.06 0.67 0 0.08 0.67 0 0.1 0.67 0 0 0.675 0 0.02 0.675 0 0.04 0.675 0 0.06 0.675 0 0.08 0.675 0 0.1 0.675 0 0 0.68 0 0.02 0.68 0 0.04 0.68 0 0.06 0.68 0 0.08 0.68 0 0.1 0.68 0 0 0.685 0 0.02 0.685 0 0.04 0.685 0 0.06 0.685 0 0.08 0.685 0 0.1 0.685 0 0 0.69 0 0.02 0.69 0 0.04 0.69 0 0.06 0.69 0 0.08 0.69 0 0.1 
[...]
			<PointData Scalars="VitesseX">
				<DataArray Name="VitesseX" type="Float32" format="ascii">
 0 4.20638e-14 6.61228e-15 1.68401e-14 3.03686e-14 0 0 3.11011e-14 2.09438e-14 8.79164e-15 2.72005e-14 0 0 2.75025e-14 2.2034e-14 2.07881e-14 3.1329e-15 0 0 1.09597e-14 4.58045e-14 1.04346e-14 -7.73057e-15 0 0 1.00041e-14 5.68801e-14 -2.70661e-15 -7.50083e-15 0 0 4.58809e-14 2.33693e-14 1.452e-14 -1.35725e-14 0 0 6.10305e-14 6.92608e-15 2.57396e-14 -1.90689e-14 0 0 5.24949e-14 1.50749e-14 2.68152e-14 -3.14553e-14 0 0 3.94417e-14 4.17677e-14 -6.96766e-15 -1.23861e-14 0 0 3.12537e-14 5.0718e-14 -2.95125e-14 2.01415e-14 0 0 1.35044e-14 7.06867e-14 -4.36905e-14 3.51016e-14 0 0 2.39667e-14 6.04835e-14 -1.48283e-14 7.60663e-15 0 0 1.1993e-14 7.74739e-14 -2.13803e-15 -5.53014e-15 0 0 3.54979e-14 4.3839e-14 3.75451e-14 -1.24741e-14 0 0 5.99079e-14 1.56762e-14 5.63597e-14 -5.84586e-15 0 0 2.42231e-14 6.16026e-14 1.74268e-14 1.05915e-14 0 0 3.50823e-14 3.65876e-14 4.40402e-14 -1.11858e-14 0 0 4.12252e-14 4.47505e-14 1.30573e-14 2.15447e-14 0 0 1.91104e-14 7.62469e-14 -3.08058e-14 7.38139e-14 0 0 1.44084e-14 6.91784e-14 -1.6267e-14 8.25875e-14 0 0 5.71231e-14 8.42598e-15 4.50323e-14 6.10267e-14 0 0 6.69209e-14 6.74848e-15 5.40567e-14 6.2263e-14 0 0 6.16695e-14 3.59954e-14 3.53643e-14 7.61394e-14 0 0 6.52024e-14 5.36421e-14 1.44586e-14 9.83145e-14 0 0 4.30728e-14 9.70158e-14 -8.15881e-15 1.0271e-13 0 0 4.67963e-14 7.84965e-14 4.92601e-14 5.69087e-14 0 0 7.45821e-14 7.15709e-14 5.04458e-14 4.58771e-14 0 0 8.92134e-14 1.12181e-13 -1.17753e-14 6.91379e-14 0 0 1.02323e-13 9.3211e-14 2.74267e-14 2.37295e-14 0 0 1.1203e-13 4.93754e-14 1.04776e-13 -4.72487e-14 0 0 8.72542e-14 6.3395e-14 1.25339e-13 -9.2131e-14 0 0 5.64719e-14 1.0504e-13 7.82478e-14 -7.04892e-14 0 0 3.84871e-14 1.35179e-13 -1.44157e-14 3.10073e-14 0 0 6.60275e-14 7.94793e-14 -1.88957e-14 7.83552e-14 0 0 7.16349e-14 4.16585e-14 7.7968e-15 8.14455e-14 0 0 8.80797e-14 -6.69986e-15 7.54794e-14 4.43146e-14 0 0 6.61805e-14 4.99161e-14 -5.20532e-15 1.14131e-13 0 0 4.67325e-14 9.32494e-14 -5.47097e-14 1.36167e-13 0 0 2.82338e-14 1.25169e-13 -9.60917e-14 1.40152e-13 0 0 4.48683e-14 1.10806e-13 -1.08712e-13 1.54764e-13 0 0 1.26714e-13 -1.10227e-14 2.80461e-14 6.45589e-14 0 0 1.53205e-13 1.70203e-14 3.71334e-15 6.83436e-14 0 0 2.55074e-13 -3.4406e-14 2.74784e-14 6.68041e-14 0 0 3.1467e-13 -7.25627e-14 8.24998e-14 1.83685e-14 0 0 2.63279e-13 -7.3579e-15 6.58809e-14 -8.58094e-15 0 0 2.08988e-13 6.49815e-14 -5.20163e-14 1.15143e-13 0 0 1.24175e-13 1.87935e-13 -1.89994e-13 2.51454e-13 0 0 1.39745e-13 1.22965e-13 -7.29951e-14 1.88559e-13 0 0 2.09916e-13 -2.77868e-14 6.42925e-14 1.70646e-13 0 0 2.7607e-13 -2.02143e-13 2.56799e-13 8.2512e-14 0 0 3.00406e-13 -3.33711e-13 4.2809e-13 -2.87682e-14 0 0 1.69331e-13 -1.2001e-13 1.92566e-13 1.31538e-13 0 0 1.98393e-13 -1.15601e-13 1.36815e-13 1.90335e-13 0 0 1.60128e-13 -6.71156e-14 9.81964e-14 2.01178e-13 0 0 5.02886e-14 1.0202e-13 -6.15398e-14 2.75587e-13 0 0 1.97349e-13 -1.40365e-13 1.15724e-13 1.96466e-13 0 0 1.3219e-13 -5.99573e-15 -5.41632e-14 2.58828e-13 0 0 1.05804e-13 5.37816e-14 -6.69213e-14 2.15257e-13 0 0 1.97997e-13 -1.05502e-13 1.44616e-13 8.54594e-14 0 0 1.02984e-13 1.5612e-14 9.11851e-14 8.20923e-14 0 0 6.87609e-14 1.02511e-13 1.97097e-14 1.08645e-13 0 0 1.10009e-13 1.65642e-13 -1.18148e-13 1.9934e-13 0 0 2.30255e-13 1.46325e-14 6.29144e-14 4.90788e-15 0 0 2.04464e-13 1.13038e-14 1.957e-13 -1.85017e-13 0 0 1.10228e-13 1.24134e-13 1.57267e-13 -1.89961e-13 0 0 1.14645e-13 1.31557e-13 8.5768e-14 -1.11139e-13 0 0 1.2078e-13 1.53978e-13 -1.5111e-14 2.76162e-15 0 0 1.88491e-13 5.23461e-14 8.07876e-14 -1.1428e-14 0 0 1.91785e-13 1.87089e-14 9.43386e-14 4.51991e-14 0 0 1.53268e-13 1.05989e-13 -2.11234e-14 1.50915e-13 0 0 3.13178e-13 -9.40466e-14 1.16254e-13 1.02592e-13 0 0 2.57043e-13 4.9463e-14 1.33557e-14 1.51617e-13 0 0 2.5259e-13 1.97039e-13 8.56636e-15 8.54018e-14 0 0 2.78352e-13 2.37613e-13 -3.74671e-14 1.87133e-13 0 0 3.22577e-13 8.57182e-14 8.97082e-14 2.39527e-13 0 0 2.84634e-13 6.7179e-14 1.9035e-13 2.20142e-13 0 0 4.10612e-14 4.051e-13 -1.09486e-13 4.51984e-13 0 0 3.73149e-13 -6.35645e-14 3.10615e-13 2.87382e-13 0 0 2.8131e-13 1.32607e-13 1.72234e-13 4.1689e-13 0 0 2.81812e-13 8.14772e-14 3.4933e-13 1.97117e-13 0 0 4.03446e-13 1.52427e-13 2.01015e-13 1.47027e-13 0 0 9.25654e-14 7.19304e-13 -3.07735e-13 4.51647e-13 0 0 2.32491e-13 1.69817e-13 6.04141e-13 -1.31566e-13 0 0 9.83352e-15 4.52587e-13 4.09994e-13 7.67415e-14 0 0 -1.50098e-13 1.09239e-12 -2.63043e-13 5.82316e-13 0 0 4.4361e-13 5.31547e-13 2.73095e-13 2.37579e-13 0 0 8.60043e-13 2.21162e-15 6.29963e-13 1.49403e-13 0 0 6.58721e-13 3.7013e-13 3.2351e-13 3.15283e-13 0 0 3.98027e-13 7.04984e-13 3.25753e-13 6.30754e-14 0 0 1.21519e-13 7.44e-13 7.49708e-13 -5.1846e-13 0 0 -1.06289e-13 7.67202e-13 7.33241e-13 -4.76612e-13 0 0 -1.19722e-13 8.00676e-13 4.80208e-13 -1.74038e-13 0 0 2.46276e-13 4.82141e-13 3.97371e-13 1.34851e-13 0 0 6.17656e-13 2.39856e-13 2.28745e-13 3.79334e-13 0 0 6.08042e-13 3.16037e-13 4.33607e-14 4.46721e-13 0 0 5.75063e-13 2.50403e-13 1.065e-13 2.73156e-13 0 0 4.29409e-13 9.17981e-14 4.26266e-13 -9.40054e-14 0 0 4.18556e-13 -4.37156e-15 5.07593e-13 -9.60132e-14 0 0 5.45999e-13 -1.61722e-13 4.35552e-13 1.18056e-13 0 0 5.75351e-13 -1.96901e-13 2.21731e-13 4.63847e-13 0 0 4.07742e-13 1.84377e-15 -2.82876e-13 9.21887e-13 0 0 1.08285e-13 2.21739e-13 -4.78798e-13 9.95234e-13 0 0 -2.0444e-13 3.28003e-13 -4.01407e-13 8.22877e-13 0 0 -2.69616e-13 2.86397e-13 -1.74291e-13 4.12032e-13 0 0 -3.00171e-14 3.80867e-14 5.7571e-16 2.23484e-13 0 0 3.06187e-13 -1.96528e-13 9.24614e-14 2.06785e-13 0 0 3.76555e-13 -2.61426e-13 1.80667e-13 2.01114e-13 0 0 3.12599e-13 -2.41115e-13 2.5445e-13 1.52116e-13 0 0 2.27881e-13 -2.60567e-13 4.11199e-13 8.66046e-14 0 0 1.78617e-13 -2.58037e-13 4.619e-13 1.0146e-13 0 0 1.30724e-13 -2.00466e-13 4.13593e-13 1.25767e-13 0 0 8.36538e-14 -1.26103e-13 3.65504e-13 1.74432e-13 0 0 2.08084e-14 -7.6692e-15 2.60401e-13 2.56317e-13 0 0 -2.31673e-15 1.92556e-14 2.74241e-13 2.61133e-13 0 0 -1.85794e-15 6.18457e-14 2.66509e-13 2.51612e-13 0 0 4.22331e-14 6.22772e-14 2.56321e-13 1.91228e-13 0 0 1.15294e-13 2.97981e-14 2.64051e-13 1.47066e-13 0 0 1.40707e-13 3.93398e-14 2.29737e-13 8.26126e-14 0 0 1.64786e-13 4.06869e-14 2.23621e-13 -3.33557e-14 0 0 1.6542e-13 7.95254e-14 1.33086e-13 -3.4189e-14 0 0 1.32257e-13 1.45343e-13 3.86958e-14 -9.72449e-14 0 0 1.20594e-13 1.2779e-13 8.26057e-14 -2.04519e-13 0 0 1.32616e-13 1.05087e-13 2.45781e-14 -1.36648e-13 0 0 1.05497e-13 1.1116e-13 1.22804e-14 -1.33987e-13 0 0 8.37519e-14 9.61743e-14 1.19257e-13 -1.16366e-13 0 0 9.80584e-14 1.11483e-13 1.23053e-13 -8.76827e-15 0 0 1.44551e-13 1.052e-13 1.08293e-13 -3.68604e-15 0 0 2.07384e-13 1.09323e-13 1.65766e-13 -2.64314e-14 0 0 2.13215e-13 1.37382e-13 2.59203e-13 -2.25988e-14 0 0 1.76438e-13 2.11005e-13 2.20045e-13 9.63175e-14 0 0 1.82581e-13 2.54127e-13 1.8811e-13 9.40131e-14 0 0 2.62848e-13 1.68467e-13 3.09713e-13 -8.19005e-14 0 0 2.74999e-13 1.52896e-13 3.40295e-13 -3.87581e-14 0 0 2.77836e-13 1.99754e-13 2.4183e-13 9.70201e-14 0 0 2.44934e-13 2.5379e-13 2.32507e-13 4.07756e-14 0 0 2.10262e-13 2.9118e-13 2.37003e-13 9.45572e-14 0 0 2.88762e-13 2.16143e-13 3.38509e-13 1.02572e-13 0 0 3.11896e-13 2.30001e-13 3.50523e-13 1.08023e-13 0 0 3.49697e-13 2.39621e-13 2.9893e-13 1.84493e-13 0 0 3.85425e-13 2.82842e-13 2.16843e-13 2.09341e-13 0 0 3.58873e-13 3.93587e-13 1.01838e-13 2.3831e-13 0 0 4.03339e-13 3.51371e-13 1.54196e-13 1.91597e-13 0 0 4.67635e-13 2.73643e-13 2.56595e-13 1.38113e-13 0 0 4.71141e-13 2.72731e-13 2.92177e-13 1.38019e-13 0 0 3.44517e-13 4.63898e-13 9.1178e-14 3.34665e-13 0 0 1.82305e-13 7.04682e-13 -1.73862e-13 5.39358e-13 0 0 4.32316e-13 2.85337e-13 1.56025e-13 3.53505e-13 0 0 6.25381e-13 -2.72685e-14 4.19148e-13 1.64002e-13 0 0 4.82659e-13 2.01748e-13 2.49966e-13 1.32938e-13 0 0 2.95959e-13 4.96098e-13 -2.31142e-14 2.69238e-13 0 0 1.85065e-13 7.14014e-13 -2.79496e-13 4.38247e-13 0 0 5.66283e-13 1.7077e-13 1.70339e-13 2.88546e-13 0 0 6.25345e-13 1.30751e-13 2.0818e-13 3.13554e-13 0 0 3.42968e-13 3.76959e-13 2.70643e-13 4.53385e-14 0 0 2.35271e-13 3.81961e-13 4.73473e-13 -2.7325e-13 0 0 3.63103e-13 3.69599e-13 2.3828e-13 2.5038e-14 0 0 6.64862e-13 -9.62326e-15 4.3574e-13 2.93915e-14 0 0 5.02285e-13 1.10543e-13 4.53585e-13 -9.94299e-14 0 0 2.18717e-13 3.4177e-13 5.53388e-13 -2.70595e-13 0 0 -1.79059e-13 8.07481e-13 2.71932e-13 -3.05787e-14 0 0 -1.03661e-13 6.55319e-13 3.71138e-13 3.85229e-14 0 0 3.9772e-13 -8.615e-14 9.64473e-13 -2.5988e-13 0 0 5.33104e-13 -1.97016e-13 8.32247e-13 -7.82713e-14 0 0 2.80087e-13 1.02163e-13 6.21478e-13 1.30034e-13 0 0 -1.99058e-13 6.72906e-13 3.09634e-13 3.06402e-13 0 0 -3.60479e-13 8.87699e-13 1.31608e-13 3.17208e-13 0 0 2.92546e-14 2.27334e-13 6.85965e-13 2.34323e-14 0 0 3.57375e-13 -2.19141e-13 9.08815e-13 5.39751e-14 0 0 3.1964e-13 -9.98651e-15 5.5795e-13 4.13287e-13 0 0 1.97602e-13 1.27489e-13 7.06625e-13 2.3372e-13 0 0 -1.12288e-13 4.63846e-13 5.94945e-13 2.03031e-13 0 0 -1.81735e-13 5.32999e-13 4.28618e-13 2.88066e-13 0 0 -4.78799e-14 3.20005e-13 4.98524e-13 2.85106e-13 0 0 1.77234e-13 6.9859e-14 4.80088e-13 3.83305e-13 0 0 2.48539e-13 3.86415e-14 3.28593e-13 4.74815e-13 0 0 7.26693e-14 2.25656e-13 1.58874e-13 6.01285e-13 0 0 -9.90387e-14 3.81249e-13 1.62108e-13 4.77196e-13 0 0 -1.62258e-13 4.46362e-13 1.76355e-13 3.0444e-13 0 0 2.07301e-13 -1.01477e-13 5.6673e-13 1.32896e-13 0 0 5.74531e-13 -4.98832e-13 7.68247e-13 1.85525e-14 0 0 2.41108e-13 6.62748e-14 3.41721e-13 5.32359e-14 0 0 -5.73924e-14 4.00358e-13 1.70763e-13 -1.18863e-14 0 0 6.37503e-14 2.32982e-13 2.83325e-13 -6.16144e-14 0 0 3.81881e-13 -7.89305e-14 4.54077e-13 -1.29968e-13 0 0 7.22044e-13 -4.4357e-13 6.94669e-13 -2.80106e-13 0 0 4.04453e-13 5.45853e-14 3.94593e-13 -2.43043e-13 0 0 1.38038e-13 4.65249e-13 1.75005e-13 -2.54282e-13 0 0 2.29043e-13 4.19556e-13 2.47129e-13 -3.55997e-13 0 0 3.11761e-13 4.06228e-13 2.44217e-13 -3.39496e-13 0 0 5.51503e-13 6.34951e-14 4.47069e-13 -3.1396e-13 0 0 4.19896e-13 4.23963e-13 -2.35077e-13 2.92991e-13 0 0 4.30204e-13 5.66212e-13 -5.16816e-13 4.74213e-13 0 0 6.49302e-13 1.10425e-13 2.46575e-13 -2.05793e-13 0 0 7.8246e-13 -2.57247e-13 7.58551e-13 -5.23497e-13 0 0 5.74256e-13 -9.8302e-15 2.58658e-13 1.9223e-14 0 0 1.17526e-13 7.41353e-13 -7.26378e-13 8.3107e-13 0 0 3.56599e-13 5.0856e-13 -4.84527e-13 7.01132e-13 0 0 8.43556e-13 -1.65593e-13 9.58728e-14 4.30523e-13 0 0 8.44302e-13 -1.61444e-13 -3.8069e-14 8.14721e-13 0 0 1.78618e-13 8.95496e-13 -7.86088e-13 1.29514e-12 0 0 -3.04226e-13 1.66302e-12 -1.27234e-12 1.45194e-12 0
				</DataArray>
				<DataArray Name="VitesseY" type="Float32" format="ascii">