<?xml version="1.0"?>
<VTKFile type="PolyData">
	<PolyData>
		<Piece NumberOfPoints="1206" NumberOfPolys="1000">
			<Points>
				<DataArray type="Float32" NumberOfComponents="3" format="ascii">
 0 0 0 0.02 0 0 0.04 0 0 0.06 0 0 0.08 0 0 0.1 0 0 0 0.005 0 0.02 0.005 0 0.04 0.005 0 0.06 0.005 0 0.08 0.005 0 0.1 0.005 0 0 0.01 0 0.02 0.01 0 0.04 0.01 0 0.06 0.01 0 0.08 0.01 0 0.1 0.01 0 0 0.015 0 0.02 0.015 0 0.04 0.015 0 0.06 0.015 0 0.08 0.015 0 0.1 0.015 0 0 0.02 0 0.02 0.02 0 0.04 0.02 0 0.06 0.02 0 0.08 0.02 0 0.1 0.02 0 0 0.025 0 0.02 0.025 0 0.04 0.025 0 0.06 0.025 0 0.08 0.025 0 0.1 0.025 0 0 0.03 0 0.02 0.03 0 0.04 0.03 0 0.06 0.03 0 0.08 0.03 0 0.1 0.03 0 0 0.035 0 0.02 0.035 0 0.04 0.035 0 0.06 0.035 0 0.08 0.035 0 0.1 0.035 0 0 0.04 0 0.02 0.04 0 0.04 0.04 0 0.06 0.04 0 0.08 0.04 0 0.1 0.04 0 0 0.045 0 0.02 0.045 0 0.04 0.045 0 0.06 0.045 0 0.08 0.045 0 0.1 0.045 0 0 0.05 0 0.02 0.05 0 0.04 0.05 0 0.06 0.05 0 0.08 0.05 0 0.1 0.05 0 0 0.055 0 0.02 0.055 0 0.04 0.055 0 0.06 0.055 0 0.08 0.055 0 0.1 0.055 0 0 0.06 0 0.02 0.06 0 0.04 0.06 0 0.06 0.06 0 0.08 0.06 0 0.1 0.06 0 0 0.065 0 0.02 0.065 0 0.04 0.065 0 0.06 0.065 0 0.08 0.065 0 0.1 0.065 0 0 0.07 0 0.02 0.07 0 0.04 0.07 0 0.06 0.07 0 0.08 0.07 0 0.1 0.07 0 0 0.075 0 0.02 0.075 0 0.04 0.075 0 0.06 0.075 0 0.08 0.075 0 0.1 0.075 0 0 0.08 0 0.02 0.08 0 0.04 0.08 0 0.06 0.08 0 0.08 0.08 0 0.1 0.08 0 0 0.085 0 0.02 0.085 0 0.04 0.085 0 0.06 0.085 0 0.08 0.085 0 0.1 0.085 0 0 0.09 0 0.02 0.09 0 0.04 0.09 0 0.06 0.09 0 0.08 0.09 0 0.1 0.09 0 0 0.095 0 0.02 0.095 0 0.04 0.095 0 0.06 0.095 0 0.08 0.095 0 0.1 0.095 0 0 0.1 0 0.02 0.1 0 0.04 0.1 0 0.06 0.1 0 0.08 0.1 0 0.1 0.1 0 0 0.105 0 0.02 0.105 0 0.04 0.105 0 0.06 0.105 0 0.08 0.105 0 0.1 0.105 0 0 0.11 0 0.02 0.11 0 0.04 0.11 0 0.06 0.11 0 0.08 0.11 0 0.1 0.11 0 0 0.115 0 0.02 0.115 0 0.04 0.115 0 0.06 0.115 0 0.08 0.115 0 0.1 0.115 0 0 0.12 0 0.02 0.12 0 0.04 0.12 0 0.06 0.12 0 0.08 0.12 0 0.1 0.12 0 0 0.125 0 0.02 0.125 0 0.04 0.125 0 0.06 0.125 0 0.08 0.125 0 0.1 0.125 0 0 0.13 0 0.02 0.13 0 0.04 0.13 0 0.06 0.13 0 0.08 0.13 0 0.1 0.13 0 0 0.135 0 0.02 0.135 0 0.04 0.135 0 0.06 0.135 0 0.08 0.135 0 0.1 0.135 0 0 0.14 0 0.02 0.14 0 0.04 0.14 0 0.06 0.14 0 0.08 0.14 0 0.1 0.14 0 0 0.145 0 0.02 0.145 0 0.04 0.145 0 0.06 0.145 0 0.08 0.145 0 0.1 0.145 0 0 0.15 0 0.02 0.15 0 0.04 0.15 0 0.06 0.15 0 0.08 0.15 0 0.1 0.15 0 0 0.155 0 0.02 0.155 0 0.04 0.155 0 0.06 0.155 0 0.08 0.155 0 0.1 0.155 0 0 0.16 0 0.02 0.16 0 0.04 0.16 0 0.06 0.16 0 0.08 0.16 0 0.1 0.16 0 0 0.165 0 0.02 0.165 0 0.04 0.165 0 0.06 0.165 0 0.08 0.165 0 0.1 0.165 0 0 0.17 0 0.02 0.17 0 0.04 0.17 0 0.06 0.17 0 0.08 0.17 0 0.1 0.17 0 0 0.175 0 0.02 0.175 0 0.04 0.175 0 0.06 0.175 0 0.08 0.175 0 0.1 0.175 0 0 0.18 0 0.02 0.18 0 0.04 0.18 0 0.06 0.18 0 0.08 0.18 0 0.1 0.18 0 0 0.185 0 0.02 0.185 0 0.04 0.185 0 0.06 0.185 0 0.08 0.185 0 0.1 0.185 0 0 0.19 0 0.02 0.19 0 0.04 0.19 0 0.06 0.19 0 0.08 0.19 0 0.1 0.19 0 0 0.195 0 0.02 0.195 0 0.04 0.195 0 0.06 0.195 0 0.08 0.195 0 0.1 0.195 0 0 0.2 0 0.02 0.2 0 0.04 0.2 0 0.06 0.2 0 0.08 0.2 0 0.1 0.2 0 0 0.205 0 0.02 0.205 0 0.04 0.205 0 0.06 0.205 0 0.08 0.205 0 0.1 0.205 0 0 0.21 0 0.02 0.21 0 0.04 0.21 0 0.06 0.21 0 0.08 0.21 0 0.1 0.21 0 0 0.215 0 0.02 0.215 0 0.04 0.215 0 0.06 0.215 0 0.08 0.215 0 0.1 0.215 0 0 0.22 0 0.02 0.22 0 0.04 0.22 0 0.06 0.22 0 0.08 0.22 0 0.1 0.22 0 0 0.225 0 0.02 0.225 0 0.04 0.225 0 0.06 0.225 0 0.08 0.225 0 0.1 0.225 0 0 0.23 0 0.02 0.23 0 0.04 0.23 0 0.06 0.23 0 0.08 0.23 0 0.1 0.23 0 0 0.235 0 0.02 0.235 0 0.04 0.235 0 0.06 0.235 0 0.08 0.235 0 0.1 0.235 0 0 0.24 0 0.02 0.24 0 0.04 0.24 0 0.06 0.24 0 0.08 0.24 0 0.1 0.24 0 0 0.245 0 0.02 0.245 0 0.04 0.245 0 0.06 0.245 0 0.08 0.245 0 0.1 0.245 0 0 0.25 0 0.02 0.25 0 0.04 0.25 0 0.06 0.25 0 0.08 0.25 0 0.1 0.25 0 0 0.255 0 0.02 0.255 0 0.04 0.255 0 0.06 0.255 0 0.08 0.255 0 0.1 0.255 0 0 0.26 0 0.02 0.26 0 0.04 0.26 0 0.06 0.26 0 0.08 0.26 0 0.1 0.26 0 0 0.265 0 0.02 0.265 0 0.04 0.265 0 0.06 0.265 0 0.08 0.265 0 0.1 0.265 0 0 0.27 0 0.02 0.27 0 0.04 0.27 0 0.06 0.27 0 0.08 0.27 0 0.1 0.27 0 0 0.275 0 0.02 0.275 0 0.04 0.275 0 0.06 0.275 0 0.08 0.275 0 0.1 0.275 0 0 0.28 0 0.02 0.28 0 0.04 0.28 0 0.06 0.28 0 0.08 0.28 0 0.1 0.28 0 0 0.285 0 0.02 0.285 0 0.04 0.285 0 0.06 0.285 0 0.08 0.285 0 0.1 0.285 0 0 0.29 0 0.02 0.29 0 0.04 0.29 0 0.06 0.29 0 0.08 0.29 0 0.1 0.29 0 0 0.295 0 0.02 0.295 0 0.04 0.295 0 0.06 0.295 0 0.08 0.295 0 0.1 0.295 0 0 0.3 0 0.02 0.3 0 0.04 0.3 0 0.06 0.3 0 0.08 0.3 0 0.1 0.3 0 0 0.305 0 0.02 0.305 0 0.04 0.305 0 0.06 0.305 0 0.08 0.305 0 0.1 0.305 0 0 0.31 0 0.02 0.31 0 0.04 0.31 0 0.06 0.31 0 0.08 0.31 0 0.1 0.31 0 0 0.315 0 0.02 0.315 0 0.04 0.315 0 0.06 0.315 0 0.08 0.315 0 0.1 0.315 0 0 0.32 0 0.02 0.32 0 0.04 0.32 0 0.06 0.32 0 0.08 0.32 0 0.1 0.32 0 0 0.325 0 0.02 0.325 0 0.04 0.325 0 0.06 0.325 0 0.08 0.325 0 0.1 0.325 0 0 0.33 0 0.02 0.33 0 0.04 0.33 0 0.06 0.33 0 0.08 0.33 0 0.1 0.33 0 0 0.335 0 0.02 0.335 0 0.04 0.335 0 0.06 0.335 0 0.08 0.335 0 0.1 0.335 0 0 0.34 0 0.02 0.34 0 0.04 0.34 0 0.06 0.34 0 0.08 0.34 0 0.1 0.34 0 0 0.345 0 0.02 0.345 0 0.04 0.345 0 0.06 0.345 0 0.08 0.345 0 0.1 0.345 0 0 0.35 0 0.02 0.35 0 0.04 0.35 0 0.06 0.35 0 0.08 0.35 0 0.1 0.35 0 0 0.355 0 0.02 0.355 0 0.04 0.355 0 0.06 0.355 0 0.08 0.355 0 0.1 0.355 0 0 0.36 0 0.02 0.36 0 0.04 0.36 0 0.06 0.36 0 0.08 0.36 0 0.1 0.36 0 0 0.365 0 0.02 0.365 0 0.04 0.365 0 0.06 0.365 0 0.08 0.365 0 0.1 0.365 0 0 0.37 0 0.02 0.37 0 0.04 0.37 0 0.06 0.37 0 0.08 0.37 0 0.1 0.37 0 0 0.375 0 0.02 0.375 0 0.04 0.375 0 0.06 0.375 0 0.08 0.375 0 0.1 0.375 0 0 0.38 0 0.02 0.38 0 0.04 0.38 0 0.06 0.38 0 0.08 0.38 0 0.1 0.38 0 0 0.385 0 0.02 0.385 0 0.04 0.385 0 0.06 0.385 0 0.08 0.385 0 0.1 0.385 0 0 0.39 0 0.02 0.39 0 0.04 0.39 0 0.06 0.39 0 0.08 0.39 0 0.1 0.39 0 0 0.395 0 0.02 0.395 0 0.04 0.395 0 0.06 0.395 0 0.08 0.395 0 0.1 0.395 0 0 0.4 0 0.02 0.4 0 0.04 0.4 0 0.06 0.4 0 0.08 0.4 0 0.1 0.4 0 0 0.405 0 0.02 0.405 0 0.04 0.405 0 0.06 0.405 0 0.08 0.405 0 0.1 0.405 0 0 0.41 0 0.02 0.41 0 0.04 0.41 0 0.06 0.41 0 0.08 0.41 0 0.1 0.41 0 0 0.415 0 0.02 0.415 0 0.04 0.415 0 0.06 0.415 0 0.08 0.415 0 0.1 0.415 0 0 0.42 0 0.02 0.42 0 0.04 0.42 0 0.06 0.42 0 0.08 0.42 0 0.1 0.42 0 0 0.425 0 0.02 0.425 0 0.04 0.425 0 0.06 0.425 0 0.08 0.425 0 0.1 0.425 0 0 0.43 0 0.02 0.43 0 0.04 0.43 0 0.06 0.43 0 0.08 0.43 0 0.1 0.43 0 0 0.435 0 0.02 0.435 0 0.04 0.435 0 0.06 0.435 0 0.08 0.435 0 0.1 0.435 0 0 0.44 0 0.02 0.44 0 0.04 0.44 0 0.06 0.44 0 0.08 0.44 0 0.1 0.44 0 0 0.445 0 0.02 0.445 0 0.04 0.445 0 0.06 0.445 0 0.08 0.445 0 0.1 0.445 0 0 0.45 0 0.02 0.45 0 0.04 0.45 0 0.06 0.45 0 0.08 0.45 0 0.1 0.45 0 0 0.455 0 0.02 0.455 0 0.04 0.455 0 0.06 0.455 0 0.08 0.455 0 0.1 0.455 0 0 0.46 0 0.02 0.46 0 0.04 0.46 0 0.06 0.46 0 0.08 0.46 0 0.1 0.46 0 0 0.465 0 0.02 0.465 0 0.04 0.465 0 0.06 0.465 0 0.08 0.465 0 0.1 0.465 0 0 0.47 0 0.02 0.47 0 0.04 0.47 0 0.06 0.47 0 0.08 0.47 0 0.1 0.47 0 0 0.475 0 0.02 0.475 0 0.04 0.475 0 0.06 0.475 0 0.08 0.475 0 0.1 0.475 0 0 0.48 0 0.02 0.48 0 0.04 0.48 0 0.06 0.48 0 0.08 0.48 0 0.1 0.48 0 0 0.485 0 0.02 0.485 0 0.04 0.485 0 0.06 0.485 0 0.08 0.485 0 0.1 0.485 0 0 0.49 0 0.02 0.49 0 0.04 0.49 0 0.06 0.49 0 0.08 0.49 0 0.1 0.49 0 0 0.495 0 0.02 0.495 0 0.04 0.495 0 0.06 0.495 0 0.08 0.495 0 0.1 0.495 0 0 0.5 0 0.02 0.5 0 0.04 0.5 0 0.06 0.5 0 0.08 0.5 0 0.1 0.5 0 0 0.505 0 0.02 0.505 0 0.04 0.505 0 0.06 0.505 0 0.08 0.505 0 0.1 0.505 0 0 0.51 0 0.02 0.51 0 0.04 0.51 0 0.06 0.51 0 0.08 0.51 0 0.1 0.51 0 0 0.515 0 0.02 0.515 0 0.04 0.515 0 0.06 0.515 0 0.08 0.515 0 0.1 0.515 0 0 0.52 0 0.02 0.52 0 0.04 0.52 0 0.06 0.52 0 0.08 0.52 0 0.1 0.52 0 0 0.525 0 0.02 0.525 0 0.04 0.525 0 0.06 0.525 0 0.08 0.525 0 0.1 0.525 0 0 0.53 0 0.02 0.53 0 0.04 0.53 0 0.06 0.53 0 0.08 0.53 0 0.1 0.53 0 0 0.535 0 0.02 0.535 0 0.04 0.535 0 0.06 0.535 0 0.08 0.535 0 0.1 0.535 0 0 0.54 0 0.02 0.54 0 0.04 0.54 0 0.06 0.54 0 0.08 0.54 0 0.1 0.54 0 0 0.545 0 0.02 0.545 0 0.04 0.545 0 0.06 0.545 0 0.08 0.545 0 0.1 0.545 0 0 0.55 0 0.02 0.55 0 0.04 0.55 0 0.06 0.55 0 0.08 0.55 0 0.1 0.55 0 0 0.555 0 0.02 0.555 0 0.04 0.555 0 0.06 0.555 0 0.08 0.555 0 0.1 0.555 0 0 0.56 0 0.02 0.56 0 0.04 0.56 0 0.06 0.56 0 0.08 0.56 0 0.1 0.56 0 0 0.565 0 0.02 0.565 0 0.04 0.565 0 0.06 0.565 0 0.08 0.565 0 0.1 0.565 0 0 0.57 0 0.02 0.57 0 0.04 0.57 0 0.06 0.57 0 0.08 0.57 0 0.1 0.57 0 0 0.575 0 0.02 0.575 0 0.04 0.575 0 0.06 0.575 0 0.08 0.575 0 0.1 0.575 0 0 0.58 0 0.02 0.58 0 0.04 0.58 0 0.06 0.58 0 0.08 0.58 0 0.1 0.58 0 0 0.585 0 0.02 0.585 0 0.04 0.585 0 0.06 0.585 0 0.08 0.585 0 0.1 0.585 0 0 0.59 0 0.02 0.59 0 0.04 0.59 0 0.06 0.59 0 0.08 0.59 0 0.1 0.59 0 0 0.595 0 0.02 0.595 0 0.04 0.595 0 0.06 0.595 0 0.08 0.595 0 0.1 0.595 0 0 0.6 0 0.02 0.6 0 0.04 0.6 0 0.06 0.6 0 0.08 0.6 0 0.1 0.6 0 0 0.605 0 0.02 0.605 0 0.04 0.605 0 0.06 0.605 0 0.08 0.605 0 0.1 0.605 0 0 0.61 0 0.02 0.61 0 0.04 0.61 0 0.06 0.61 0 0.08 0.61 0 0.1 0.61 0 0 0.615 0 0.02 0.615 0 0.04 0.615 0 0.06 0.615 0 0.08 0.615 0 0.1 0.615 0 0 0.62 0 0.02 0.62 0 0.04 0.62 0 0.06 0.62 0 0.08 0.62 0 0.1 0.62 0 0 0.625 0 0.02 0.625 0 0.04 0.625 0 0.06 0.625 0 0.08 0.625 0 0.1 0.625 0 0 0.63 0 0.02 0.63 0 0.04 0.63 0 0.06 0.63 0 0.08 0.63 0 0.1 0.63 0 0 0.635 0 0.02 0.635 0 0.04 0.635 0 0.06 0.635 0 0.08 0.635 0 0.1 0.635 0 0 0.64 0 0.02 0.64 0 0.04 0.64 0 0.06 0.64 0 0.08 0.64 0 0.1 0.64 0 0 0.645 0 0.02 0.645 0 0.04 0.645 0 0.06 0.645 0 0.08 0.645 0 0.1 0.645 0 0 0.65 0 0.02 0.65 0 0.04 0.65 0 0.06 0.65 0 0.08 0.65 0 0.1 0.65 0 0 0.655 0 0.02 0.655 0 0.04 0.655 0 0.06 0.655 0 0.08 0.655 0 0.1 0.655 0 0 0.66 0 0.02 0.66 0 0.04 0.66 0 0.06 0.66 0 0.08 0.66 0 0.1 0.66 0 0 0.665 0 0.02 0.665 0 0.04 0.665 0 0.06 0.665 0 0.08 0.665 0 0.1 0.665 0 0 0.67 0 0.02 0.67 0 0.04 0.67 0 0.06 0.67 0 0.08 0.67 0 0.1 0.67 0 0 0.675 0 0.02 0.675 0 0.04 0.675 0 0.06 0.675 0 0.08 0.675 0 0.1 0.675 0 0 0.68 0 0.02 0.68 0 0.04 0.68 0 0.06 0.68 0 0.08 0.68 0 0.1 0.68 0 0 0.685 0 0.02 0.685 0 0.04 0.685 0 0.06 0.685 0 0.08 0.685 0 0.1 0.685 0 0 0.69 0 0.02 0.69 0 0.04 0.69 0 0.06 0.69 0 0.08 0.69 0 0.1 
[...]
			<PointData Scalars="VitesseX">
				<DataArray Name="VitesseX" type="Float32" format="ascii">
 0 -7.08736e-15 -1.24735e-15 2.67526e-15 -5.25818e-15 0 0 -5.60259e-15 -3.38095e-15 3.9719e-15 -4.55003e-15 0 0 -3.83289e-15 -5.29493e-15 1.44835e-15 8.33251e-16 0 0 4.6405e-15 -1.75492e-14 8.4079e-15 -1.39581e-15 0 0 5.29778e-15 -1.16025e-14 -2.72602e-15 6.2008e-15 0 0 -2.84138e-15 1.25877e-14 -3.21873e-14 2.35377e-14 0 0 -5.32726e-15 2.18738e-14 -3.629e-14 1.91898e-14 0 0 5.79529e-15 4.26146e-15 -8.13165e-15 -9.21808e-15 0 0 8.62152e-15 3.49686e-15 -1.08472e-14 -1.02894e-14 0 0 -7.28583e-15 3.39924e-14 -4.24691e-14 5.72823e-15 0 0 -2.23468e-15 2.74533e-14 -3.61135e-14 2.97227e-16 0 0 -5.52739e-15 2.15999e-14 -2.94836e-14 1.16693e-15 0 0 -8.51957e-15 -2.82506e-15 9.18583e-15 -2.49194e-14 0 0 -1.47078e-14 -8.75297e-15 1.53282e-14 -2.81557e-14 0 0 -2.52029e-14 6.53513e-15 -1.53191e-14 1.55576e-15 0 0 -6.48029e-15 -2.96354e-14 1.35024e-14 -1.71902e-14 0 0 -6.3047e-15 -2.67406e-14 -1.48038e-14 1.14844e-14 0 0 -2.55086e-14 -4.24977e-16 -6.50638e-14 4.80732e-14 0 0 -2.44362e-14 -2.93977e-14 -3.5003e-14 3.73151e-14 0 0 -2.18721e-14 -4.5843e-14 -2.90222e-14 5.75094e-14 0 0 -4.82638e-14 -3.02456e-16 -8.96311e-14 9.5583e-14 0 0 -6.62322e-14 1.42498e-14 -7.48655e-14 6.08451e-14 0 0 -2.75244e-14 -5.9443e-14 4.0331e-14 -3.87019e-14 0 0 -7.06928e-15 -8.08504e-14 6.89824e-14 -5.66828e-14 0 0 -3.4533e-14 -3.95145e-14 6.87617e-14 -7.65327e-14 0 0 -3.35327e-14 -4.67237e-14 8.66954e-14 -9.82624e-14 0 0 -4.74473e-14 -1.31656e-14 2.36854e-14 -4.39338e-14 0 0 -4.65629e-14 1.31762e-14 -2.26723e-14 -4.00443e-16 0 0 -2.18766e-14 -2.71648e-14 1.49297e-14 -5.00465e-15 0 0 -2.45295e-14 -4.8234e-14 4.86319e-14 -1.40623e-14 0 0 -7.74888e-15 -8.45499e-14 7.88326e-14 -1.20676e-14 0 0 -8.61229e-15 -8.27295e-14 7.7338e-14 -3.32724e-14 0 0 -2.79178e-14 -3.57866e-14 -6.02716e-15 1.42142e-14 0 0 -5.99371e-14 -3.57843e-15 -5.04726e-14 7.18296e-14 0 0 -4.0727e-15 -9.94044e-14 5.58486e-14 9.13825e-15 0 0 9.19401e-15 -9.07667e-14 6.6625e-14 -1.94325e-14 0 0 -1.79217e-14 -3.01908e-14 1.55385e-14 -8.9922e-15 0 0 9.01766e-16 -4.42112e-14 -4.77016e-15 -3.16283e-15 0 0 4.66553e-15 -3.26302e-14 -4.374e-14 1.89061e-14 0 0 1.32324e-14 -1.48631e-14 -7.18783e-14 3.56325e-14 0 0 4.01798e-14 -1.54744e-14 -9.38429e-14 4.20757e-14 0 0 1.00795e-13 -7.83839e-14 -6.3293e-14 2.20566e-14 0 0 1.01272e-13 -7.9541e-14 -1.58033e-14 -4.94333e-14 0 0 6.2934e-14 2.102e-14 -8.78209e-14 -1.4719e-14 0 0 8.59464e-14 3.23761e-14 -1.27131e-13 5.18244e-14 0 0 8.8582e-14 1.40689e-14 -8.02953e-14 2.75251e-14 0 0 4.7169e-14 6.57815e-14 -5.46857e-14 -2.22135e-14 0 0 5.86019e-14 3.95972e-14 -3.82812e-14 -1.74639e-14 0 0 5.14797e-14 2.14668e-14 -4.44208e-14 2.11468e-15 0 0 -2.93388e-14 1.13132e-13 -1.10404e-13 4.56143e-14 0 0 -4.06591e-14 1.55472e-13 -2.09748e-13 1.51095e-13 0 0 4.1796e-14 -5.84611e-15 -6.77985e-14 8.10915e-14 0 0 5.26379e-14 -1.06114e-13 1.07568e-13 -4.1456e-14 0 0 4.91555e-14 -9.93124e-14 1.14878e-13 -3.17272e-14 0 0 -3.59708e-14 3.29504e-14 -4.72178e-14 1.17722e-13 0 0 -7.33194e-14 1.1965e-13 -2.18229e-13 2.67138e-13 0 0 1.21487e-14 1.13081e-14 -9.35025e-14 1.49599e-13 0 0 -3.51399e-15 7.4488e-14 -7.11971e-14 9.39424e-14 0 0 -4.1054e-14 1.5844e-13 -5.77455e-14 2.40499e-14 0 0 -3.00918e-14 2.0338e-13 -8.93566e-14 -3.13198e-14 0 0 3.96011e-14 1.34503e-13 -1.40959e-13 2.28573e-14 0 0 9.10614e-14 -9.60267e-15 4.52443e-15 -2.66181e-14 0 0 1.93297e-14 2.99616e-14 1.44218e-14 3.12017e-14 0 0 -1.05754e-14 2.98201e-14 1.20825e-14 4.40896e-14 0 0 -1.11746e-15 1.11903e-13 -1.78939e-13 5.8031e-14 0 0 1.06837e-13 4.84649e-14 -2.50636e-13 4.69875e-14 0 0 2.79715e-13 -1.48724e-13 -1.43905e-13 -2.10733e-14 0 0 2.19268e-13 2.72378e-14 -3.25744e-13 8.50686e-14 0 0 1.31174e-13 1.40793e-13 -3.03887e-13 8.65883e-14 0 0 1.12021e-13 2.32558e-14 -6.11287e-14 -8.55361e-14 0 0 1.45091e-14 5.28567e-14 -5.21543e-14 -8.80186e-14 0 0 -1.15226e-14 5.1867e-14 -7.09481e-14 -3.7961e-14 0 0 2.42416e-14 1.15675e-13 -2.20686e-13 7.45588e-14 0 0 8.25278e-14 2.54216e-13 -4.544e-13 1.28192e-13 0 0 1.29994e-13 2.22103e-13 -3.87489e-13 -5.5596e-14 0 0 1.17829e-13 1.94619e-13 -3.03736e-13 -1.92371e-13 0 0 1.27061e-13 6.65659e-14 -2.04843e-13 -1.30255e-13 0 0 1.67753e-13 -5.25611e-14 -2.29666e-13 9.40194e-14 0 0 1.17691e-13 9.72709e-16 -4.63678e-13 4.23759e-13 0 0 2.87298e-14 1.03241e-13 -5.7155e-13 4.48988e-13 0 0 -5.4139e-14 7.82378e-14 -5.12378e-13 3.56874e-13 0 0 -1.53175e-13 9.42183e-14 -3.89863e-13 2.01102e-13 0 0 -2.49455e-13 7.9073e-14 -2.2654e-13 3.46591e-14 0 0 -3.46595e-13 -8.08424e-14 5.75986e-14 -1.92819e-13 0 0 -3.06309e-13 -2.98469e-13 4.2256e-13 -4.6082e-13 0 0 -2.74934e-13 -3.33924e-13 3.78282e-13 -3.80063e-13 0 0 -2.19155e-13 -2.80534e-13 1.71424e-13 -1.50584e-13 0 0 -1.24182e-13 -2.47918e-13 -9.43126e-14 1.19644e-13 0 0 -1.40163e-13 -1.41435e-13 -4.59735e-13 3.98816e-13 0 0 -2.80114e-13 4.66102e-14 -6.94143e-13 4.52237e-13 0 0 -3.38739e-13 4.7241e-14 -6.61822e-13 3.7412e-13 0 0 -2.44961e-13 -1.82739e-13 -3.8773e-13 1.10969e-13 0 0 -2.90202e-14 -5.95075e-13 8.56121e-15 -1.93756e-13 0 0 5.0374e-14 -7.55192e-13 1.62374e-13 -2.87908e-13 0 0 1.5241e-14 -7.41173e-13 1.62555e-13 -2.82599e-13 0 0 -1.81833e-13 -5.77301e-13 1.10142e-13 -2.66985e-13 0 0 -6.21817e-13 -1.74415e-13 -1.18951e-14 -2.51479e-13 0 0 -1.00586e-12 1.50228e-13 -1.33423e-13 -2.42945e-13 0 0 -1.04822e-12 1.60079e-13 -1.88987e-13 -1.93693e-13 0 0 -1.00227e-12 9.15733e-14 -1.83599e-13 -1.27482e-13 0 0 -8.6225e-13 -6.23926e-14 -1.09659e-13 -1.21244e-13 0 0 -6.31893e-13 -2.87008e-13 3.1974e-15 -1.59335e-13 0 0 -3.44616e-13 -3.88592e-13 2.42838e-14 -2.09702e-13 0 0 -7.27941e-14 -5.08329e-13 6.97476e-14 -2.05406e-13 0 0 8.30064e-14 -5.97253e-13 5.81916e-14 -8.98372e-14 0 0 8.57951e-14 -5.60553e-13 -7.35274e-15 4.70424e-14 0 0 3.55248e-14 -4.5755e-13 -1.30058e-14 5.67949e-14 0 0 -6.1987e-14 -2.5998e-13 -5.588e-14 1.05858e-13 0 0 -1.00515e-13 -1.1641e-13 -6.33831e-14 1.46249e-13 0 0 -8.23601e-14 -6.8018e-14 -2.9141e-14 1.41012e-13 0 0 -2.95692e-14 -5.68649e-14 2.9491e-15 1.61341e-13 0 0 5.88793e-14 -7.2454e-14 2.97373e-14 2.11639e-13 0 0 1.65746e-13 -1.13558e-13 6.01407e-14 2.67959e-13 0 0 2.24336e-13 -1.10525e-13 5.74428e-14 2.99413e-13 0 0 2.19566e-13 -5.99998e-14 -1.33092e-14 3.70391e-13 0 0 2.00494e-13 -3.32467e-14 -4.17506e-15 4.0113e-13 0 0 1.60977e-13 -1.04873e-14 8.37208e-14 3.39445e-13 0 0 1.50349e-13 3.31585e-14 1.07312e-13 2.37647e-13 0 0 1.50659e-13 5.82901e-14 9.70576e-14 2.17201e-13 0 0 1.35346e-13 6.19122e-14 1.27847e-13 2.00565e-13 0 0 1.26565e-13 9.05681e-14 1.24255e-13 1.93784e-13 0 0 1.43462e-13 1.13604e-13 9.83455e-14 1.7593e-13 0 0 1.78162e-13 1.01457e-13 1.10306e-13 1.06833e-13 0 0 1.75885e-13 1.21657e-13 9.28612e-14 8.12522e-14 0 0 1.67177e-13 1.41338e-13 6.21948e-14 6.86429e-14 0 0 1.68429e-13 1.31117e-13 5.41708e-14 6.77582e-14 0 0 1.50326e-13 1.42952e-13 4.17243e-14 4.45349e-14 0 0 1.13997e-13 1.42931e-13 3.82359e-14 1.78972e-14 0 0 5.70697e-14 1.07486e-13 5.77089e-14 4.85826e-14 0 0 3.4538e-14 8.99324e-14 3.48123e-14 5.55263e-14 0 0 4.92283e-14 5.85044e-14 1.22172e-14 -2.34307e-15 0 0 2.92162e-14 8.54668e-14 -3.44355e-14 -4.42841e-14 0 0 2.6221e-14 7.81003e-14 -6.1765e-14 -3.12323e-14 0 0 5.40893e-14 5.95708e-14 -7.29332e-14 -6.08566e-14 0 0 4.21566e-14 1.03954e-13 -1.24775e-13 -1.28117e-13 0 0 3.93451e-14 8.42306e-14 -1.28978e-13 -1.38264e-13 0 0 2.90745e-14 6.06976e-14 -1.26967e-13 -1.1556e-13 0 0 2.94667e-14 1.33478e-14 -4.73675e-14 -1.32626e-13 0 0 2.80666e-14 -4.73386e-14 -3.11817e-14 -1.10831e-13 0 0 -1.83071e-14 -3.94059e-14 -7.21179e-14 -7.01419e-14 0 0 -5.88532e-14 -4.53704e-14 -7.51407e-14 -8.52747e-15 0 0 -7.57885e-14 -8.80754e-14 -5.29723e-15 -1.84449e-14 0 0 -7.74684e-14 -1.60166e-13 7.68387e-14 -3.57103e-14 0 0 -7.0005e-14 -1.94263e-13 4.84021e-14 1.60408e-14 0 0 -7.61443e-14 -1.4875e-13 -7.36811e-14 6.10471e-14 0 0 -9.83332e-14 -1.15817e-13 -1.34216e-13 7.05197e-14 0 0 -9.00144e-14 -1.32372e-13 -1.1173e-13 1.22887e-14 0 0 -5.32084e-14 -1.02353e-13 -2.10526e-13 -1.28122e-14 0 0 -4.89546e-14 -4.21925e-14 -2.52865e-13 -2.10722e-13 0 0 -5.05916e-14 -9.0113e-14 -9.27992e-14 -4.68324e-13 0 0 -3.21855e-14 -7.09436e-14 5.6538e-15 -1.3671e-13 0 0 -3.52275e-14 6.58644e-14 -1.26991e-14 4.00201e-13 0 0 -5.03904e-15 5.8455e-14 5.83337e-14 3.67493e-13 0 0 4.14722e-15 2.22387e-14 1.75066e-13 2.34414e-13 0 0 -3.16311e-14 8.52762e-14 1.80497e-13 2.084e-13 0 0 -4.58951e-14 1.31593e-13 1.41569e-13 1.71504e-13 0 0 -2.45162e-14 8.07865e-14 2.16985e-13 4.20928e-14 0 0 -3.25802e-14 9.3976e-14 2.09958e-13 6.35092e-14 0 0 -1.36202e-13 2.29194e-13 8.6405e-14 2.12399e-13 0 0 -1.38646e-13 1.8042e-13 1.54594e-13 1.58645e-13 0 0 -3.05083e-14 -3.00011e-14 3.54536e-13 3.59313e-14 0 0 -1.20848e-13 1.01042e-13 2.24652e-13 1.06304e-13 0 0 -1.59302e-13 1.39676e-13 1.8669e-13 1.35351e-13 0 0 -7.2261e-14 -5.29552e-15 2.90835e-13 9.38502e-14 0 0 -1.16392e-13 1.08114e-13 1.39862e-13 1.9687e-13 0 0 -7.58272e-14 9.81926e-14 7.06948e-14 3.85595e-13 0 0 -2.25216e-14 3.42209e-14 1.53677e-13 3.24809e-13 0 0 -9.83718e-14 1.28743e-13 1.87888e-13 1.4433e-13 0 0 1.11595e-14 9.56571e-15 2.66347e-13 1.47957e-13 0 0 2.88096e-14 1.12761e-13 1.06875e-13 2.80488e-13 0 0 3.4451e-14 1.68256e-13 1.72048e-13 1.40505e-13 0 0 9.83362e-14 1.33105e-13 2.30196e-13 1.25776e-13 0 0 5.3178e-14 2.58972e-13 7.55343e-14 2.62252e-13 0 0 1.20076e-13 1.71577e-13 3.06244e-13 6.9263e-14 0 0 1.434e-13 1.74085e-13 3.92238e-13 8.08266e-16 0 0 9.45022e-14 2.74594e-13 2.63433e-13 1.00275e-13 0 0 1.06792e-13 3.4533e-13 1.51972e-13 2.00708e-13 0 0 2.06876e-13 2.37694e-13 2.90671e-13 1.66044e-13 0 0 2.55391e-13 1.70893e-13 4.43523e-13 7.70886e-14 0 0 5.20374e-14 3.78093e-13 2.69232e-13 2.45128e-13 0 0 -1.00999e-13 5.33027e-13 1.3042e-13 4.37211e-13 0 0 -2.3336e-14 4.34261e-13 3.44841e-13 2.70651e-13 0 0 1.89273e-13 1.83594e-13 5.75812e-13 1.33806e-13 0 0 2.02643e-13 2.29761e-13 4.90135e-13 1.9959e-13 0 0 9.65176e-14 2.86687e-13 5.99546e-13 3.65338e-14 0 0 4.93833e-14 2.71331e-13 6.82898e-13 -3.12724e-14 0 0 2.44199e-14 2.76572e-13 5.92548e-13 1.23873e-13 0 0 9.62547e-14 1.44495e-13 5.80844e-13 2.06927e-13 0 0 1.64302e-13 6.70371e-14 5.94551e-13 1.58847e-13 0 0 4.13617e-15 3.36305e-13 3.59758e-13 3.22593e-13 0 0 -4.89599e-14 4.22352e-13 3.03095e-13 2.68693e-13 0 0 1.25868e-13 1.44224e-13 6.50947e-13 -1.91403e-13 0 0 1.16723e-13 3.1382e-13 3.02406e-13 2.71128e-14 0 0 3.64744e-14 5.82977e-13 -2.4603e-13 4.28328e-13 0 0 1.85113e-13 2.24969e-13 1.94295e-13 8.62016e-14 0 0 2.15387e-13 5.18082e-14 5.72263e-13 -2.53663e-13 0 0 7.27881e-14 1.79486e-13 5.42904e-13 -3.06885e-13 0 0 1.0627e-13 9.29792e-14 4.4818e-13 -1.30833e-13 0 0 1.73016e-13 1.20068e-13 6.31559e-14 2.73048e-13 0 0 2.10444e-13 2.50472e-13 -2.80577e-13 5.44062e-13 0 0 1.52976e-13 4.04795e-13 -4.7531e-13 6.73671e-13 0
				</DataArray>
				<DataArray Name="VitesseY" type="Float32" format="ascii">