<?xml version="1.0"?>
<VTKFile type="PolyData">
	<PolyData>
		<Piece NumberOfPoints="1206" NumberOfPolys="1000">
			<Points>
				<DataArray type="Float32" NumberOfComponents="3" format="ascii">
 0 0 0 0.02 0 0 0.04 0 0 0.06 0 0 0.08 0 0 0.1 0 0 0 0.005 0 0.02 0.005 0 0.04 0.005 0 0.06 0.005 0 0.08 0.005 0 0.1 0.005 0 0 0.01 0 0.02 0.01 0 0.04 0.01 0 0.06 0.01 0 0.08 0.01 0 0.1 0.01 0 0 0.015 0 0.02 0.015 0 0.04 0.015 0 0.06 0.015 0 0.08 0.015 0 0.1 0.015 0 0 0.02 0 0.02 0.02 0 0.04 0.02 0 0.06 0.02 0 0.08 0.02 0 0.1 0.02 0 0 0.025 0 0.02 0.025 0 0.04 0.025 0 0.06 0.025 0 0.08 0.025 0 0.1 0.025 0 0 0.03 0 0.02 0.03 0 0.04 0.03 0 0.06 0.03 0 0.08 0.03 0 0.1 0.03 0 0 0.035 0 0.02 0.035 0 0.04 0.035 0 0.06 0.035 0 0.08 0.035 0 0.1 0.035 0 0 0.04 0 0.02 0.04 0 0.04 0.04 0 0.06 0.04 0 0.08 0.04 0 0.1 0.04 0 0 0.045 0 0.02 0.045 0 0.04 0.045 0 0.06 0.045 0 0.08 0.045 0 0.1 0.045 0 0 0.05 0 0.02 0.05 0 0.04 0.05 0 0.06 0.05 0 0.08 0.05 0 0.1 0.05 0 0 0.055 0 0.02 0.055 0 0.04 0.055 0 0.06 0.055 0 0.08 0.055 0 0.1 0.055 0 0 0.06 0 0.02 0.06 0 0.04 0.06 0 0.06 0.06 0 0.08 0.06 0 0.1 0.06 0 0 0.065 0 0.02 0.065 0 0.04 0.065 0 0.06 0.065 0 0.08 0.065 0 0.1 0.065 0 0 0.07 0 0.02 0.07 0 0.04 0.07 0 0.06 0.07 0 0.08 0.07 0 0.1 0.07 0 0 0.075 0 0.02 0.075 0 0.04 0.075 0 0.06 0.075 0 0.08 0.075 0 0.1 0.075 0 0 0.08 0 0.02 0.08 0 0.04 0.08 0 0.06 0.08 0 0.08 0.08 0 0.1 0.08 0 0 0.085 0 0.02 0.085 0 0.04 0.085 0 0.06 0.085 0 0.08 0.085 0 0.1 0.085 0 0 0.09 0 0.02 0.09 0 0.04 0.09 0 0.06 0.09 0 0.08 0.09 0 0.1 0.09 0 0 0.095 0 0.02 0.095 0 0.04 0.095 0 0.06 0.095 0 0.08 0.095 0 0.1 0.095 0 0 0.1 0 0.02 0.1 0 0.04 0.1 0 0.06 0.1 0 0.08 0.1 0 0.1 0.1 0 0 0.105 0 0.02 0.105 0 0.04 0.105 0 0.06 0.105 0 0.08 0.105 0 0.1 0.105 0 0 0.11 0 0.02 0.11 0 0.04 0.11 0 0.06 0.11 0 0.08 0.11 0 0.1 0.11 0 0 0.115 0 0.02 0.115 0 0.04 0.115 0 0.06 0.115 0 0.08 0.115 0 0.1 0.115 0 0 0.12 0 0.02 0.12 0 0.04 0.12 0 0.06 0.12 0 0.08 0.12 0 0.1 0.12 0 0 0.125 0 0.02 0.125 0 0.04 0.125 0 0.06 0.125 0 0.08 0.125 0 0.1 0.125 0 0 0.13 0 0.02 0.13 0 0.04 0.13 0 0.06 0.13 0 0.08 0.13 0 0.1 0.13 0 0 0.135 0 0.02 0.135 0 0.04 0.135 0 0.06 0.135 0 0.08 0.135 0 0.1 0.135 0 0 0.14 0 0.02 0.14 0 0.04 0.14 0 0.06 0.14 0 0.08 0.14 0 0.1 0.14 0 0 0.145 0 0.02 0.145 0 0.04 0.145 0 0.06 0.145 0 0.08 0.145 0 0.1 0.145 0 0 0.15 0 0.02 0.15 0 0.04 0.15 0 0.06 0.15 0 0.08 0.15 0 0.1 0.15 0 0 0.155 0 0.02 0.155 0 0.04 0.155 0 0.06 0.155 0 0.08 0.155 0 0.1 0.155 0 0 0.16 0 0.02 0.16 0 0.04 0.16 0 0.06 0.16 0 0.08 0.16 0 0.1 0.16 0 0 0.165 0 0.02 0.165 0 0.04 0.165 0 0.06 0.165 0 0.08 0.165 0 0.1 0.165 0 0 0.17 0 0.02 0.17 0 0.04 0.17 0 0.06 0.17 0 0.08 0.17 0 0.1 0.17 0 0 0.175 0 0.02 0.175 0 0.04 0.175 0 0.06 0.175 0 0.08 0.175 0 0.1 0.175 0 0 0.18 0 0.02 0.18 0 0.04 0.18 0 0.06 0.18 0 0.08 0.18 0 0.1 0.18 0 0 0.185 0 0.02 0.185 0 0.04 0.185 0 0.06 0.185 0 0.08 0.185 0 0.1 0.185 0 0 0.19 0 0.02 0.19 0 0.04 0.19 0 0.06 0.19 0 0.08 0.19 0 0.1 0.19 0 0 0.195 0 0.02 0.195 0 0.04 0.195 0 0.06 0.195 0 0.08 0.195 0 0.1 0.195 0 0 0.2 0 0.02 0.2 0 0.04 0.2 0 0.06 0.2 0 0.08 0.2 0 0.1 0.2 0 0 0.205 0 0.02 0.205 0 0.04 0.205 0 0.06 0.205 0 0.08 0.205 0 0.1 0.205 0 0 0.21 0 0.02 0.21 0 0.04 0.21 0 0.06 0.21 0 0.08 0.21 0 0.1 0.21 0 0 0.215 0 0.02 0.215 0 0.04 0.215 0 0.06 0.215 0 0.08 0.215 0 0.1 0.215 0 0 0.22 0 0.02 0.22 0 0.04 0.22 0 0.06 0.22 0 0.08 0.22 0 0.1 0.22 0 0 0.225 0 0.02 0.225 0 0.04 0.225 0 0.06 0.225 0 0.08 0.225 0 0.1 0.225 0 0 0.23 0 0.02 0.23 0 0.04 0.23 0 0.06 0.23 0 0.08 0.23 0 0.1 0.23 0 0 0.235 0 0.02 0.235 0 0.04 0.235 0 0.06 0.235 0 0.08 0.235 0 0.1 0.235 0 0 0.24 0 0.02 0.24 0 0.04 0.24 0 0.06 0.24 0 0.08 0.24 0 0.1 0.24 0 0 0.245 0 0.02 0.245 0 0.04 0.245 0 0.06 0.245 0 0.08 0.245 0 0.1 0.245 0 0 0.25 0 0.02 0.25 0 0.04 0.25 0 0.06 0.25 0 0.08 0.25 0 0.1 0.25 0 0 0.255 0 0.02 0.255 0 0.04 0.255 0 0.06 0.255 0 0.08 0.255 0 0.1 0.255 0 0 0.26 0 0.02 0.26 0 0.04 0.26 0 0.06 0.26 0 0.08 0.26 0 0.1 0.26 0 0 0.265 0 0.02 0.265 0 0.04 0.265 0 0.06 0.265 0 0.08 0.265 0 0.1 0.265 0 0 0.27 0 0.02 0.27 0 0.04 0.27 0 0.06 0.27 0 0.08 0.27 0 0.1 0.27 0 0 0.275 0 0.02 0.275 0 0.04 0.275 0 0.06 0.275 0 0.08 0.275 0 0.1 0.275 0 0 0.28 0 0.02 0.28 0 0.04 0.28 0 0.06 0.28 0 0.08 0.28 0 0.1 0.28 0 0 0.285 0 0.02 0.285 0 0.04 0.285 0 0.06 0.285 0 0.08 0.285 0 0.1 0.285 0 0 0.29 0 0.02 0.29 0 0.04 0.29 0 0.06 0.29 0 0.08 0.29 0 0.1 0.29 0 0 0.295 0 0.02 0.295 0 0.04 0.295 0 0.06 0.295 0 0.08 0.295 0 0.1 0.295 0 0 0.3 0 0.02 0.3 0 0.04 0.3 0 0.06 0.3 0 0.08 0.3 0 0.1 0.3 0 0 0.305 0 0.02 0.305 0 0.04 0.305 0 0.06 0.305 0 0.08 0.305 0 0.1 0.305 0 0 0.31 0 0.02 0.31 0 0.04 0.31 0 0.06 0.31 0 0.08 0.31 0 0.1 0.31 0 0 0.315 0 0.02 0.315 0 0.04 0.315 0 0.06 0.315 0 0.08 0.315 0 0.1 0.315 0 0 0.32 0 0.02 0.32 0 0.04 0.32 0 0.06 0.32 0 0.08 0.32 0 0.1 0.32 0 0 0.325 0 0.02 0.325 0 0.04 0.325 0 0.06 0.325 0 0.08 0.325 0 0.1 0.325 0 0 0.33 0 0.02 0.33 0 0.04 0.33 0 0.06 0.33 0 0.08 0.33 0 0.1 0.33 0 0 0.335 0 0.02 0.335 0 0.04 0.335 0 0.06 0.335 0 0.08 0.335 0 0.1 0.335 0 0 0.34 0 0.02 0.34 0 0.04 0.34 0 0.06 0.34 0 0.08 0.34 0 0.1 0.34 0 0 0.345 0 0.02 0.345 0 0.04 0.345 0 0.06 0.345 0 0.08 0.345 0 0.1 0.345 0 0 0.35 0 0.02 0.35 0 0.04 0.35 0 0.06 0.35 0 0.08 0.35 0 0.1 0.35 0 0 0.355 0 0.02 0.355 0 0.04 0.355 0 0.06 0.355 0 0.08 0.355 0 0.1 0.355 0 0 0.36 0 0.02 0.36 0 0.04 0.36 0 0.06 0.36 0 0.08 0.36 0 0.1 0.36 0 0 0.365 0 0.02 0.365 0 0.04 0.365 0 0.06 0.365 0 0.08 0.365 0 0.1 0.365 0 0 0.37 0 0.02 0.37 0 0.04 0.37 0 0.06 0.37 0 0.08 0.37 0 0.1 0.37 0 0 0.375 0 0.02 0.375 0 0.04 0.375 0 0.06 0.375 0 0.08 0.375 0 0.1 0.375 0 0 0.38 0 0.02 0.38 0 0.04 0.38 0 0.06 0.38 0 0.08 0.38 0 0.1 0.38 0 0 0.385 0 0.02 0.385 0 0.04 0.385 0 0.06 0.385 0 0.08 0.385 0 0.1 0.385 0 0 0.39 0 0.02 0.39 0 0.04 0.39 0 0.06 0.39 0 0.08 0.39 0 0.1 0.39 0 0 0.395 0 0.02 0.395 0 0.04 0.395 0 0.06 0.395 0 0.08 0.395 0 0.1 0.395 0 0 0.4 0 0.02 0.4 0 0.04 0.4 0 0.06 0.4 0 0.08 0.4 0 0.1 0.4 0 0 0.405 0 0.02 0.405 0 0.04 0.405 0 0.06 0.405 0 0.08 0.405 0 0.1 0.405 0 0 0.41 0 0.02 0.41 0 0.04 0.41 0 0.06 0.41 0 0.08 0.41 0 0.1 0.41 0 0 0.415 0 0.02 0.415 0 0.04 0.415 0 0.06 0.415 0 0.08 0.415 0 0.1 0.415 0 0 0.42 0 0.02 0.42 0 0.04 0.42 0 0.06 0.42 0 0.08 0.42 0 0.1 0.42 0 0 0.425 0 0.02 0.425 0 0.04 0.425 0 0.06 0.425 0 0.08 0.425 0 0.1 0.425 0 0 0.43 0 0.02 0.43 0 0.04 0.43 0 0.06 0.43 0 0.08 0.43 0 0.1 0.43 0 0 0.435 0 0.02 0.435 0 0.04 0.435 0 0.06 0.435 0 0.08 0.435 0 0.1 0.435 0 0 0.44 0 0.02 0.44 0 0.04 0.44 0 0.06 0.44 0 0.08 0.44 0 0.1 0.44 0 0 0.445 0 0.02 0.445 0 0.04 0.445 0 0.06 0.445 0 0.08 0.445 0 0.1 0.445 0 0 0.45 0 0.02 0.45 0 0.04 0.45 0 0.06 0.45 0 0.08 0.45 0 0.1 0.45 0 0 0.455 0 0.02 0.455 0 0.04 0.455 0 0.06 0.455 0 0.08 0.455 0 0.1 0.455 0 0 0.46 0 0.02 0.46 0 0.04 0.46 0 0.06 0.46 0 0.08 0.46 0 0.1 0.46 0 0 0.465 0 0.02 0.465 0 0.04 0.465 0 0.06 0.465 0 0.08 0.465 0 0.1 0.465 0 0 0.47 0 0.02 0.47 0 0.04 0.47 0 0.06 0.47 0 0.08 0.47 0 0.1 0.47 0 0 0.475 0 0.02 0.475 0 0.04 0.475 0 0.06 0.475 0 0.08 0.475 0 0.1 0.475 0 0 0.48 0 0.02 0.48 0 0.04 0.48 0 0.06 0.48 0 0.08 0.48 0 0.1 0.48 0 0 0.485 0 0.02 0.485 0 0.04 0.485 0 0.06 0.485 0 0.08 0.485 0 0.1 0.485 0 0 0.49 0 0.02 0.49 0 0.04 0.49 0 0.06 0.49 0 0.08 0.49 0 0.1 0.49 0 0 0.495 0 0.02 0.495 0 0.04 0.495 0 0.06 0.495 0 0.08 0.495 0 0.1 0.495 0 0 0.5 0 0.02 0.5 0 0.04 0.5 0 0.06 0.5 0 0.08 0.5 0 0.1 0.5 0 0 0.505 0 0.02 0.505 0 0.04 0.505 0 0.06 0.505 0 0.08 0.505 0 0.1 0.505 0 0 0.51 0 0.02 0.51 0 0.04 0.51 0 0.06 0.51 0 0.08 0.51 0 0.1 0.51 0 0 0.515 0 0.02 0.515 0 0.04 0.515 0 0.06 0.515 0 0.08 0.515 0 0.1 0.515 0 0 0.52 0 0.02 0.52 0 0.04 0.52 0 0.06 0.52 0 0.08 0.52 0 0.1 0.52 0 0 0.525 0 0.02 0.525 0 0.04 0.525 0 0.06 0.525 0 0.08 0.525 0 0.1 0.525 0 0 0.53 0 0.02 0.53 0 0.04 0.53 0 0.06 0.53 0 0.08 0.53 0 0.1 0.53 0 0 0.535 0 0.02 0.535 0 0.04 0.535 0 0.06 0.535 0 0.08 0.535 0 0.1 0.535 0 0 0.54 0 0.02 0.54 0 0.04 0.54 0 0.06 0.54 0 0.08 0.54 0 0.1 0.54 0 0 0.545 0 0.02 0.545 0 0.04 0.545 0 0.06 0.545 0 0.08 0.545 0 0.1 0.545 0 0 0.55 0 0.02 0.55 0 0.04 0.55 0 0.06 0.55 0 0.08 0.55 0 0.1 0.55 0 0 0.555 0 0.02 0.555 0 0.04 0.555 0 0.06 0.555 0 0.08 0.555 0 0.1 0.555 0 0 0.56 0 0.02 0.56 0 0.04 0.56 0 0.06 0.56 0 0.08 0.56 0 0.1 0.56 0 0 0.565 0 0.02 0.565 0 0.04 0.565 0 0.06 0.565 0 0.08 0.565 0 0.1 0.565 0 0 0.57 0 0.02 0.57 0 0.04 0.57 0 0.06 0.57 0 0.08 0.57 0 0.1 0.57 0 0 0.575 0 0.02 0.575 0 0.04 0.575 0 0.06 0.575 0 0.08 0.575 0 0.1 0.575 0 0 0.58 0 0.02 0.58 0 0.04 0.58 0 0.06 0.58 0 0.08 0.58 0 0.1 0.58 0 0 0.585 0 0.02 0.585 0 0.04 0.585 0 0.06 0.585 0 0.08 0.585 0 0.1 0.585 0 0 0.59 0 0.02 0.59 0 0.04 0.59 0 0.06 0.59 0 0.08 0.59 0 0.1 0.59 0 0 0.595 0 0.02 0.595 0 0.04 0.595 0 0.06 0.595 0 0.08 0.595 0 0.1 0.595 0 0 0.6 0 0.02 0.6 0 0.04 0.6 0 0.06 0.6 0 0.08 0.6 0 0.1 0.6 0 0 0.605 0 0.02 0.605 0 0.04 0.605 0 0.06 0.605 0 0.08 0.605 0 0.1 0.605 0 0 0.61 0 0.02 0.61 0 0.04 0.61 0 0.06 0.61 0 0.08 0.61 0 0.1 0.61 0 0 0.615 0 0.02 0.615 0 0.04 0.615 0 0.06 0.615 0 0.08 0.615 0 0.1 0.615 0 0 0.62 0 0.02 0.62 0 0.04 0.62 0 0.06 0.62 0 0.08 0.62 0 0.1 0.62 0 0 0.625 0 0.02 0.625 0 0.04 0.625 0 0.06 0.625 0 0.08 0.625 0 0.1 0.625 0 0 0.63 0 0.02 0.63 0 0.04 0.63 0 0.06 0.63 0 0.08 0.63 0 0.1 0.63 0 0 0.635 0 0.02 0.635 0 0.04 0.635 0 0.06 0.635 0 0.08 0.635 0 0.1 0.635 0 0 0.64 0 0.02 0.64 0 0.04 0.64 0 0.06 0.64 0 0.08 0.64 0 0.1 0.64 0 0 0.645 0 0.02 0.645 0 0.04 0.645 0 0.06 0.645 0 0.08 0.645 0 0.1 0.645 0 0 0.65 0 0.02 0.65 0 0.04 0.65 0 0.06 0.65 0 0.08 0.65 0 0.1 0.65 0 0 0.655 0 0.02 0.655 0 0.04 0.655 0 0.06 0.655 0 0.08 0.655 0 0.1 0.655 0 0 0.66 0 0.02 0.66 0 0.04 0.66 0 0.06 0.66 0 0.08 0.66 0 0.1 0.66 0 0 0.665 0 0.02 0.665 0 0.04 0.665 0 0.06 0.665 0 0.08 0.665 0 0.1 0.665 0 0 0.67 0 0.02 0.67 0 0.04 0.67 0 0.06 0.67 0 0.08 0.67 0 0.1 0.67 0 0 0.675 0 0.02 0.675 0 0.04 0.675 0 0.06 0.675 0 0.08 0.675 0 0.1 0.675 0 0 0.68 0 0.02 0.68 0 0.04 0.68 0 0.06 0.68 0 0.08 0.68 0 0.1 0.68 0 0 0.685 0 0.02 0.685 0 0.04 0.685 0 0.06 0.685 0 0.08 0.685 0 0.1 0.685 0 0 0.69 0 0.02 0.69 0 0.04 0.69 0 0.06 0.69 0 0.08 0.69 0 0.1 
[...]
			<PointData Scalars="VitesseX">
				<DataArray Name="VitesseX" type="Float32" format="ascii">
 0 -1.57133e-14 2.41592e-15 9.79133e-15 1.77604e-14 0 0 -1.15229e-14 -1.83878e-15 1.27142e-14 1.4443e-14 0 0 -7.53344e-15 -4.25279e-15 1.2945e-14 1.23947e-14 0 0 -4.81498e-15 -5.30822e-15 1.35835e-14 1.1031e-14 0 0 -4.0094e-15 -2.28276e-15 7.43897e-15 1.58885e-14 0 0 -2.61016e-15 2.90877e-15 -4.49163e-16 1.93362e-14 0 0 -4.19241e-15 7.77286e-15 3.6351e-15 8.20186e-15 0 0 -1.41416e-15 3.61357e-15 1.84689e-14 -5.9868e-15 0 0 3.95788e-15 5.39407e-15 1.3862e-14 2.68501e-15 0 0 5.25387e-15 1.41894e-14 -8.39499e-15 3.1112e-14 0 0 -1.0152e-14 3.9446e-14 -2.20878e-14 2.91811e-14 0 0 -1.63214e-14 4.48033e-14 -4.346e-15 -7.58944e-15 0 0 -9.02723e-15 2.76125e-14 1.84773e-14 -3.08497e-14 0 0 -1.40466e-16 4.761e-17 3.78595e-14 -3.24098e-14 0 0 -9.92505e-15 -8.20611e-15 3.33849e-14 -1.79775e-14 0 0 -2.89952e-14 6.80189e-15 1.36922e-14 -1.55889e-14 0 0 -1.12777e-14 -2.4625e-14 3.52805e-14 -3.42961e-14 0 0 2.09193e-17 -4.34878e-14 3.92402e-14 -2.60709e-14 0 0 -2.85293e-14 1.91637e-15 -2.42336e-14 2.97765e-14 0 0 -3.63062e-14 -3.28023e-15 -1.41652e-14 1.9454e-14 0 0 -5.06744e-14 3.65073e-15 -1.31573e-14 2.25021e-15 0 0 -7.69925e-14 3.85699e-14 -7.76424e-14 4.69862e-14 0 0 -1.64061e-14 -7.61868e-14 2.19798e-14 -7.06028e-15 0 0 5.1317e-16 -1.06762e-13 5.81834e-14 -3.41909e-14 0 0 -4.89238e-14 -1.34695e-14 -3.86167e-14 2.54285e-14 0 0 -2.19054e-14 -4.27017e-14 1.36639e-14 -4.86542e-15 0 0 1.52479e-14 -1.02838e-13 8.81038e-14 -2.8398e-14 0 0 -2.28514e-14 -4.34639e-14 1.71976e-14 3.81745e-14 0 0 -6.41907e-14 3.16337e-14 -4.48541e-14 7.00195e-14 0 0 -3.86217e-14 -7.05698e-15 1.44068e-14 2.63346e-14 0 0 8.43867e-15 -7.44682e-14 7.32914e-14 2.48115e-15 0 0 4.08547e-15 -6.2068e-14 4.46686e-14 3.93798e-14 0 0 -1.71653e-14 -2.49438e-14 1.49571e-14 5.55244e-14 0 0 -7.18473e-15 -4.1177e-14 4.03467e-14 3.28809e-14 0 0 -1.13524e-14 -9.18814e-14 1.35176e-13 -1.83033e-14 0 0 -3.51312e-14 -6.46539e-14 7.93474e-14 6.21122e-14 0 0 -5.50787e-16 -7.93838e-14 4.76262e-14 8.00981e-14 0 0 -1.48242e-14 -8.59656e-15 -7.95062e-15 6.55604e-14 0 0 -3.07804e-14 5.78822e-14 -7.61957e-14 9.04505e-14 0 0 -7.42705e-15 2.00154e-14 -5.67959e-14 8.64414e-14 0 0 3.56005e-14 -4.87562e-14 -1.87137e-14 8.21979e-14 0 0 8.43803e-14 -1.11424e-13 7.08506e-14 -6.77168e-15 0 0 1.19522e-13 -7.93048e-14 3.34415e-16 1.66329e-14 0 0 1.03014e-13 -2.09168e-14 -7.04763e-14 4.27381e-14 0 0 7.12503e-14 1.64815e-14 -2.92787e-14 -2.21675e-14 0 0 9.8444e-14 5.29266e-14 -1.27541e-13 7.8681e-14 0 0 8.2149e-14 1.16007e-13 -2.44376e-13 1.80174e-13 0 0 9.5457e-14 4.35142e-14 -1.22202e-13 6.77311e-14 0 0 1.24859e-13 -7.10363e-14 5.52173e-14 -7.11299e-14 0 0 1.47378e-13 -1.20621e-13 7.2079e-14 -5.25007e-14 0 0 1.08262e-13 -6.98358e-14 -4.00881e-14 5.61235e-14 0 0 1.34906e-13 -1.08787e-13 5.46586e-15 4.00959e-14 0 0 1.99195e-13 -1.66154e-13 3.93657e-14 4.74344e-14 0 0 2.37459e-13 -2.29326e-13 1.3348e-13 1.98584e-15 0 0 1.62906e-13 -8.52291e-14 4.82168e-14 4.18077e-14 0 0 3.85754e-14 1.07756e-13 -5.07728e-14 7.80676e-14 0 0 1.33835e-13 -5.37392e-14 1.18503e-13 2.40651e-14 0 0 8.10318e-14 4.5962e-14 -3.82578e-14 1.55294e-13 0 0 1.20263e-13 2.58498e-14 -3.1021e-14 1.43751e-13 0 0 1.51933e-13 -3.76993e-14 1.2794e-13 3.71018e-14 0 0 2.54265e-14 1.50251e-13 5.58282e-14 1.47612e-14 0 0 7.78256e-14 9.9128e-14 6.82412e-14 -1.84971e-14 0 0 9.33648e-14 3.58853e-14 7.36207e-14 -1.94462e-14 0 0 4.31377e-14 5.08132e-14 5.56548e-14 2.0724e-14 0 0 -2.1466e-14 5.86887e-14 9.93608e-14 9.81719e-14 0 0 4.37062e-14 -2.76109e-14 1.07986e-13 1.65138e-13 0 0 1.94112e-13 -1.38416e-13 6.15775e-14 1.82454e-13 0 0 1.62349e-13 -7.0012e-14 -5.18385e-14 1.6839e-13 0 0 4.29523e-14 1.18958e-13 -1.995e-13 1.16185e-13 0 0 1.84047e-13 -3.36651e-15 -7.6076e-14 2.52696e-14 0 0 3.27898e-13 -1.35864e-13 4.74382e-14 1.10913e-14 0 0 2.84599e-13 -8.76333e-14 3.6867e-14 3.02129e-14 0 0 9.0692e-14 1.30468e-13 -1.64779e-13 1.67194e-13 0 0 -4.02451e-14 3.63454e-13 -4.44585e-13 3.38754e-13 0 0 2.17221e-13 1.18973e-13 -2.84949e-13 2.28461e-13 0 0 4.28266e-13 -6.59879e-14 -7.74646e-14 6.84255e-14 0 0 4.1242e-13 -3.5045e-14 -3.64915e-14 -7.1025e-14 0 0 3.12724e-13 1.74182e-13 -2.92338e-13 1.16713e-13 0 0 2.81414e-13 2.18246e-13 -5.73797e-13 3.70127e-13 0 0 3.8206e-13 7.99252e-15 -4.71799e-13 4.01098e-13 0 0 4.47298e-13 -3.37335e-13 -1.73235e-13 2.79035e-13 0 0 3.00572e-13 -2.67525e-13 -1.23761e-13 1.83005e-13 0 0 1.36515e-14 -4.19639e-15 -2.21167e-13 1.42544e-13 0 0 -2.25866e-13 1.45865e-14 -7.62297e-14 -7.29801e-15 0 0 -2.23262e-13 -6.25568e-14 1.29996e-13 -2.01926e-13 0 0 -2.08027e-13 -1.68867e-13 2.31838e-13 -1.37865e-13 0 0 -2.67894e-13 -1.07402e-13 5.4732e-14 8.97101e-14 0 0 -4.38981e-13 1.39232e-13 -3.48381e-13 4.46765e-13 0 0 -4.8559e-13 2.3327e-13 -5.78239e-13 6.27764e-13 0 0 -3.39027e-13 2.49777e-14 -4.70379e-13 5.59876e-13 0 0 2.22861e-14 -4.70482e-13 -1.78393e-13 4.18762e-13 0 0 2.59532e-13 -7.81905e-13 -5.33776e-14 3.83276e-13 0 0 2.35028e-13 -7.89023e-13 -3.25536e-14 3.60842e-13 0 0 3.82436e-14 -6.53355e-13 -1.13639e-14 2.91444e-13 0 0 -2.73548e-13 -4.49932e-13 2.56163e-14 1.49078e-13 0 0 -5.99908e-13 -2.29966e-13 1.13183e-13 -3.368e-14 0 0 -7.82215e-13 -9.69175e-14 2.70141e-13 -2.7599e-13 0 0 -8.24922e-13 -9.74483e-14 3.86143e-13 -4.83292e-13 0 0 -8.37991e-13 -8.30296e-14 4.00106e-13 -5.1112e-13 0 0 -7.7053e-13 2.52425e-15 3.13723e-13 -4.61298e-13 0 0 -5.56634e-13 -3.43195e-14 1.12114e-13 -2.89245e-13 0 0 -2.33824e-13 -8.22047e-14 -2.11823e-13 8.49405e-14 0 0 -7.196e-14 -6.86164e-14 -3.16997e-13 3.16411e-13 0 0 -4.77761e-14 -7.60759e-14 -2.57679e-13 3.09272e-13 0 0 -6.20034e-14 -7.27664e-14 -7.8104e-14 1.71348e-13 0 0 -5.35362e-14 -8.81437e-14 2.91886e-13 -9.14317e-14 0 0 1.95229e-14 -1.2224e-13 4.61407e-13 -2.10869e-13 0 0 1.15994e-13 -1.36774e-13 4.42075e-13 -1.72124e-13 0 0 1.55866e-13 -1.31102e-13 3.89338e-13 -1.42025e-14 0 0 1.85059e-13 -1.11002e-13 3.21611e-13 1.38513e-13 0 0 1.93501e-13 -2.63741e-14 2.17046e-13 2.7109e-13 0 0 1.79381e-13 1.46287e-13 1.55028e-14 4.46239e-13 0 0 1.7781e-13 2.42612e-13 -8.872e-14 5.30669e-13 0 0 1.6919e-13 2.73744e-13 -9.81581e-14 5.3163e-13 0 0 1.7955e-13 2.63962e-13 -6.55899e-14 4.91758e-13 0 0 2.21605e-13 2.12648e-13 3.14747e-14 3.44977e-13 0 0 2.61495e-13 2.04603e-13 6.98574e-14 2.42536e-13 0 0 2.82032e-13 2.11072e-13 7.59651e-14 1.88563e-13 0 0 2.99789e-13 1.98878e-13 1.19989e-13 9.35166e-14 0 0 2.85104e-13 2.13245e-13 1.33772e-13 8.69306e-14 0 0 2.63948e-13 2.22438e-13 1.28617e-13 7.11276e-14 0 0 2.32532e-13 2.33328e-13 1.40791e-13 6.29662e-14 0 0 1.82387e-13 2.63172e-13 1.42017e-13 7.16752e-14 0 0 1.50423e-13 2.70509e-13 1.53983e-13 2.75706e-14 0 0 1.03325e-13 2.57133e-13 1.78741e-13 -2.70636e-14 0 0 1.07604e-13 2.06345e-13 2.13601e-13 -2.57563e-14 0 0 1.12553e-13 1.55699e-13 1.65508e-13 3.78717e-14 0 0 9.6916e-14 1.48584e-13 1.49041e-13 -6.57588e-15 0 0 1.33967e-13 7.03976e-14 2.02454e-13 -9.18006e-14 0 0 1.26346e-13 8.54389e-14 1.64714e-13 -5.07015e-14 0 0 1.05921e-13 1.21248e-13 8.07626e-14 -3.95765e-14 0 0 1.43347e-13 6.78541e-14 1.06337e-13 -1.1719e-13 0 0 1.50575e-13 5.11034e-14 1.14215e-13 -1.53034e-13 0 0 1.34308e-13 7.36541e-14 6.15376e-14 -1.14396e-13 0 0 1.17075e-13 9.8966e-14 1.04246e-14 -9.96996e-14 0 0 9.94477e-14 9.22826e-14 1.3808e-14 -8.88565e-14 0 0 7.37066e-14 7.99214e-14 3.42003e-15 1.00892e-14 0 0 3.85017e-14 8.65267e-14 -1.58971e-14 7.54125e-14 0 0 -1.07343e-15 7.14219e-14 3.25982e-14 1.50822e-14 0 0 -3.12585e-14 -1.12373e-14 1.49953e-13 -2.75682e-14 0 0 -5.06682e-14 -5.53082e-14 1.24806e-13 1.58141e-14 0 0 -5.70393e-14 -8.29368e-14 1.13721e-13 -1.49704e-14 0 0 -4.46303e-14 -1.14562e-13 8.92263e-14 7.96757e-14 0 0 -2.75296e-14 -7.15836e-14 -7.77522e-14 1.93451e-13 0 0 -1.26117e-14 -9.12473e-14 -3.9847e-14 4.78416e-14 0 0 -3.01271e-14 -7.50367e-14 1.78848e-15 5.54382e-14 0 0 -1.92249e-14 8.13201e-15 -2.04826e-14 1.58514e-13 0 0 3.20759e-14 4.83149e-14 -6.93357e-14 3.28722e-13 0 0 6.36717e-14 2.66682e-14 9.22823e-15 2.77699e-13 0 0 5.6026e-14 6.82525e-15 2.26663e-13 2.0923e-13 0 0 -5.21229e-15 1.39585e-13 2.0968e-13 3.9698e-13 0 0 3.53101e-14 1.18333e-13 3.52448e-13 2.83443e-13 0 0 5.23967e-14 1.44583e-13 3.79067e-13 2.32861e-13 0 0 1.03753e-13 1.23912e-13 3.75929e-13 2.17078e-13 0 0 1.49028e-13 7.50751e-14 4.36474e-13 2.26425e-13 0 0 1.07009e-13 1.10036e-13 4.40146e-13 2.74747e-13 0 0 4.27721e-14 1.76252e-13 4.10573e-13 2.81174e-13 0 0 -5.52935e-14 3.27271e-13 3.21213e-13 1.98964e-13 0 0 1.69474e-14 2.44259e-13 3.78637e-13 1.18813e-13 0 0 8.08673e-14 1.63064e-13 4.31733e-13 9.58732e-14 0 0 1.05532e-13 1.18247e-13 5.01718e-13 1.80857e-14 0 0 8.96654e-14 1.53336e-13 4.70567e-13 8.40997e-14 0 0 7.00266e-14 2.30476e-13 4.05481e-13 1.60631e-13 0 0 1.49724e-13 1.54723e-13 4.29638e-13 2.33231e-13 0 0 8.76689e-14 3.00473e-13 2.15029e-13 4.20643e-13 0 0 1.24541e-13 2.81497e-13 2.4506e-13 3.40599e-13 0 0 2.24171e-13 1.57999e-13 3.85418e-13 2.70234e-13 0 0 1.66887e-13 3.19344e-13 2.11489e-13 3.6022e-13 0 0 1.42629e-13 3.92374e-13 2.50182e-13 1.74935e-13 0 0 2.42857e-13 3.30308e-13 2.65565e-13 1.55266e-13 0 0 2.47285e-13 4.06499e-13 1.89696e-13 2.34702e-13 0 0 1.95285e-13 4.68634e-13 3.037e-13 1.01583e-13 0 0 2.07384e-13 4.46415e-13 4.45135e-13 -3.35101e-14 0 0 3.0674e-13 2.78304e-13 6.19756e-13 -7.19268e-14 0 0 3.2219e-13 1.99444e-13 7.68719e-13 -1.97712e-13 0 0 2.98699e-13 3.45074e-13 6.56652e-13 -1.79972e-13 0 0 3.67118e-13 3.83452e-13 5.24217e-13 2.3172e-14 0 0 2.95496e-13 4.0029e-13 5.35944e-13 1.40145e-13 0 0 2.01581e-13 4.31113e-13 3.44334e-13 4.87147e-13 0 0 2.59018e-13 3.59725e-13 3.47953e-13 5.94528e-13 0 0 1.59208e-13 5.68943e-13 3.32587e-13 4.62186e-13 0 0 7.53071e-15 7.59288e-13 3.51287e-13 2.8633e-13 0 0 4.24173e-14 6.98716e-13 4.89703e-13 1.52829e-13 0 0 6.34032e-14 6.5769e-13 4.45973e-13 2.48339e-13 0 0 1.90574e-13 3.76091e-13 7.51156e-13 6.42174e-14 0 0 1.33328e-13 4.33025e-13 7.35233e-13 4.24666e-14 0 0 5.79189e-14 5.09895e-13 5.84225e-13 2.22113e-13 0 0 2.56946e-14 4.86611e-13 5.60369e-13 3.71966e-13 0 0 1.3413e-13 3.42371e-13 4.94153e-13 5.76376e-13 0 0 1.19358e-13 4.03809e-13 4.2644e-13 5.06905e-13 0 0 -1.08768e-13 7.04392e-13 3.41674e-13 2.79872e-13 0 0 7.64524e-14 4.35974e-13 4.37332e-13 2.1378e-13 0 0 5.51784e-14 4.56347e-13 3.85648e-13 1.31532e-13 0 0 3.30281e-14 3.52702e-13 6.80139e-13 -1.53565e-13 0 0 -4.56145e-14 3.43854e-13 7.98133e-13 -2.74028e-13 0 0 -1.26674e-13 4.85861e-13 6.07455e-13 -1.9303e-13 0 0 -6.94289e-14 4.91777e-13 5.32095e-13 -1.26301e-13 0 0 -8.98077e-14 5.90704e-13 3.72206e-13 1.27203e-14 0 0 -2.94038e-15 5.44164e-13 1.27193e-13 3.65741e-13 0 0 -2.37383e-13 9.17865e-13 -3.85289e-13 7.06295e-13 0 0 -4.84521e-13 1.26813e-12 -6.91911e-13 8.11365e-13 0
				</DataArray>
				<DataArray Name="VitesseY" type="Float32" format="ascii">