<?xml version="1.0"?>
<VTKFile type="PolyData">
	<PolyData>
		<Piece NumberOfPoints="1206" NumberOfPolys="1000">
			<Points>
				<DataArray type="Float32" NumberOfComponents="3" format="ascii">
 0 0 0 0.02 0 0 0.04 0 0 0.06 0 0 0.08 0 0 0.1 0 0 0 0.005 0 0.02 0.005 0 0.04 0.005 0 0.06 0.005 0 0.08 0.005 0 0.1 0.005 0 0 0.01 0 0.02 0.01 0 0.04 0.01 0 0.06 0.01 0 0.08 0.01 0 0.1 0.01 0 0 0.015 0 0.02 0.015 0 0.04 0.015 0 0.06 0.015 0 0.08 0.015 0 0.1 0.015 0 0 0.02 0 0.02 0.02 0 0.04 0.02 0 0.06 0.02 0 0.08 0.02 0 0.1 0.02 0 0 0.025 0 0.02 0.025 0 0.04 0.025 0 0.06 0.025 0 0.08 0.025 0 0.1 0.025 0 0 0.03 0 0.02 0.03 0 0.04 0.03 0 0.06 0.03 0 0.08 0.03 0 0.1 0.03 0 0 0.035 0 0.02 0.035 0 0.04 0.035 0 0.06 0.035 0 0.08 0.035 0 0.1 0.035 0 0 0.04 0 0.02 0.04 0 0.04 0.04 0 0.06 0.04 0 0.08 0.04 0 0.1 0.04 0 0 0.045 0 0.02 0.045 0 0.04 0.045 0 0.06 0.045 0 0.08 0.045 0 0.1 0.045 0 0 0.05 0 0.02 0.05 0 0.04 0.05 0 0.06 0.05 0 0.08 0.05 0 0.1 0.05 0 0 0.055 0 0.02 0.055 0 0.04 0.055 0 0.06 0.055 0 0.08 0.055 0 0.1 0.055 0 0 0.06 0 0.02 0.06 0 0.04 0.06 0 0.06 0.06 0 0.08 0.06 0 0.1 0.06 0 0 0.065 0 0.02 0.065 0 0.04 0.065 0 0.06 0.065 0 0.08 0.065 0 0.1 0.065 0 0 0.07 0 0.02 0.07 0 0.04 0.07 0 0.06 0.07 0 0.08 0.07 0 0.1 0.07 0 0 0.075 0 0.02 0.075 0 0.04 0.075 0 0.06 0.075 0 0.08 0.075 0 0.1 0.075 0 0 0.08 0 0.02 0.08 0 0.04 0.08 0 0.06 0.08 0 0.08 0.08 0 0.1 0.08 0 0 0.085 0 0.02 0.085 0 0.04 0.085 0 0.06 0.085 0 0.08 0.085 0 0.1 0.085 0 0 0.09 0 0.02 0.09 0 0.04 0.09 0 0.06 0.09 0 0.08 0.09 0 0.1 0.09 0 0 0.095 0 0.02 0.095 0 0.04 0.095 0 0.06 0.095 0 0.08 0.095 0 0.1 0.095 0 0 0.1 0 0.02 0.1 0 0.04 0.1 0 0.06 0.1 0 0.08 0.1 0 0.1 0.1 0 0 0.105 0 0.02 0.105 0 0.04 0.105 0 0.06 0.105 0 0.08 0.105 0 0.1 0.105 0 0 0.11 0 0.02 0.11 0 0.04 0.11 0 0.06 0.11 0 0.08 0.11 0 0.1 0.11 0 0 0.115 0 0.02 0.115 0 0.04 0.115 0 0.06 0.115 0 0.08 0.115 0 0.1 0.115 0 0 0.12 0 0.02 0.12 0 0.04 0.12 0 0.06 0.12 0 0.08 0.12 0 0.1 0.12 0 0 0.125 0 0.02 0.125 0 0.04 0.125 0 0.06 0.125 0 0.08 0.125 0 0.1 0.125 0 0 0.13 0 0.02 0.13 0 0.04 0.13 0 0.06 0.13 0 0.08 0.13 0 0.1 0.13 0 0 0.135 0 0.02 0.135 0 0.04 0.135 0 0.06 0.135 0 0.08 0.135 0 0.1 0.135 0 0 0.14 0 0.02 0.14 0 0.04 0.14 0 0.06 0.14 0 0.08 0.14 0 0.1 0.14 0 0 0.145 0 0.02 0.145 0 0.04 0.145 0 0.06 0.145 0 0.08 0.145 0 0.1 0.145 0 0 0.15 0 0.02 0.15 0 0.04 0.15 0 0.06 0.15 0 0.08 0.15 0 0.1 0.15 0 0 0.155 0 0.02 0.155 0 0.04 0.155 0 0.06 0.155 0 0.08 0.155 0 0.1 0.155 0 0 0.16 0 0.02 0.16 0 0.04 0.16 0 0.06 0.16 0 0.08 0.16 0 0.1 0.16 0 0 0.165 0 0.02 0.165 0 0.04 0.165 0 0.06 0.165 0 0.08 0.165 0 0.1 0.165 0 0 0.17 0 0.02 0.17 0 0.04 0.17 0 0.06 0.17 0 0.08 0.17 0 0.1 0.17 0 0 0.175 0 0.02 0.175 0 0.04 0.175 0 0.06 0.175 0 0.08 0.175 0 0.1 0.175 0 0 0.18 0 0.02 0.18 0 0.04 0.18 0 0.06 0.18 0 0.08 0.18 0 0.1 0.18 0 0 0.185 0 0.02 0.185 0 0.04 0.185 0 0.06 0.185 0 0.08 0.185 0 0.1 0.185 0 0 0.19 0 0.02 0.19 0 0.04 0.19 0 0.06 0.19 0 0.08 0.19 0 0.1 0.19 0 0 0.195 0 0.02 0.195 0 0.04 0.195 0 0.06 0.195 0 0.08 0.195 0 0.1 0.195 0 0 0.2 0 0.02 0.2 0 0.04 0.2 0 0.06 0.2 0 0.08 0.2 0 0.1 0.2 0 0 0.205 0 0.02 0.205 0 0.04 0.205 0 0.06 0.205 0 0.08 0.205 0 0.1 0.205 0 0 0.21 0 0.02 0.21 0 0.04 0.21 0 0.06 0.21 0 0.08 0.21 0 0.1 0.21 0 0 0.215 0 0.02 0.215 0 0.04 0.215 0 0.06 0.215 0 0.08 0.215 0 0.1 0.215 0 0 0.22 0 0.02 0.22 0 0.04 0.22 0 0.06 0.22 0 0.08 0.22 0 0.1 0.22 0 0 0.225 0 0.02 0.225 0 0.04 0.225 0 0.06 0.225 0 0.08 0.225 0 0.1 0.225 0 0 0.23 0 0.02 0.23 0 0.04 0.23 0 0.06 0.23 0 0.08 0.23 0 0.1 0.23 0 0 0.235 0 0.02 0.235 0 0.04 0.235 0 0.06 0.235 0 0.08 0.235 0 0.1 0.235 0 0 0.24 0 0.02 0.24 0 0.04 0.24 0 0.06 0.24 0 0.08 0.24 0 0.1 0.24 0 0 0.245 0 0.02 0.245 0 0.04 0.245 0 0.06 0.245 0 0.08 0.245 0 0.1 0.245 0 0 0.25 0 0.02 0.25 0 0.04 0.25 0 0.06 0.25 0 0.08 0.25 0 0.1 0.25 0 0 0.255 0 0.02 0.255 0 0.04 0.255 0 0.06 0.255 0 0.08 0.255 0 0.1 0.255 0 0 0.26 0 0.02 0.26 0 0.04 0.26 0 0.06 0.26 0 0.08 0.26 0 0.1 0.26 0 0 0.265 0 0.02 0.265 0 0.04 0.265 0 0.06 0.265 0 0.08 0.265 0 0.1 0.265 0 0 0.27 0 0.02 0.27 0 0.04 0.27 0 0.06 0.27 0 0.08 0.27 0 0.1 0.27 0 0 0.275 0 0.02 0.275 0 0.04 0.275 0 0.06 0.275 0 0.08 0.275 0 0.1 0.275 0 0 0.28 0 0.02 0.28 0 0.04 0.28 0 0.06 0.28 0 0.08 0.28 0 0.1 0.28 0 0 0.285 0 0.02 0.285 0 0.04 0.285 0 0.06 0.285 0 0.08 0.285 0 0.1 0.285 0 0 0.29 0 0.02 0.29 0 0.04 0.29 0 0.06 0.29 0 0.08 0.29 0 0.1 0.29 0 0 0.295 0 0.02 0.295 0 0.04 0.295 0 0.06 0.295 0 0.08 0.295 0 0.1 0.295 0 0 0.3 0 0.02 0.3 0 0.04 0.3 0 0.06 0.3 0 0.08 0.3 0 0.1 0.3 0 0 0.305 0 0.02 0.305 0 0.04 0.305 0 0.06 0.305 0 0.08 0.305 0 0.1 0.305 0 0 0.31 0 0.02 0.31 0 0.04 0.31 0 0.06 0.31 0 0.08 0.31 0 0.1 0.31 0 0 0.315 0 0.02 0.315 0 0.04 0.315 0 0.06 0.315 0 0.08 0.315 0 0.1 0.315 0 0 0.32 0 0.02 0.32 0 0.04 0.32 0 0.06 0.32 0 0.08 0.32 0 0.1 0.32 0 0 0.325 0 0.02 0.325 0 0.04 0.325 0 0.06 0.325 0 0.08 0.325 0 0.1 0.325 0 0 0.33 0 0.02 0.33 0 0.04 0.33 0 0.06 0.33 0 0.08 0.33 0 0.1 0.33 0 0 0.335 0 0.02 0.335 0 0.04 0.335 0 0.06 0.335 0 0.08 0.335 0 0.1 0.335 0 0 0.34 0 0.02 0.34 0 0.04 0.34 0 0.06 0.34 0 0.08 0.34 0 0.1 0.34 0 0 0.345 0 0.02 0.345 0 0.04 0.345 0 0.06 0.345 0 0.08 0.345 0 0.1 0.345 0 0 0.35 0 0.02 0.35 0 0.04 0.35 0 0.06 0.35 0 0.08 0.35 0 0.1 0.35 0 0 0.355 0 0.02 0.355 0 0.04 0.355 0 0.06 0.355 0 0.08 0.355 0 0.1 0.355 0 0 0.36 0 0.02 0.36 0 0.04 0.36 0 0.06 0.36 0 0.08 0.36 0 0.1 0.36 0 0 0.365 0 0.02 0.365 0 0.04 0.365 0 0.06 0.365 0 0.08 0.365 0 0.1 0.365 0 0 0.37 0 0.02 0.37 0 0.04 0.37 0 0.06 0.37 0 0.08 0.37 0 0.1 0.37 0 0 0.375 0 0.02 0.375 0 0.04 0.375 0 0.06 0.375 0 0.08 0.375 0 0.1 0.375 0 0 0.38 0 0.02 0.38 0 0.04 0.38 0 0.06 0.38 0 0.08 0.38 0 0.1 0.38 0 0 0.385 0 0.02 0.385 0 0.04 0.385 0 0.06 0.385 0 0.08 0.385 0 0.1 0.385 0 0 0.39 0 0.02 0.39 0 0.04 0.39 0 0.06 0.39 0 0.08 0.39 0 0.1 0.39 0 0 0.395 0 0.02 0.395 0 0.04 0.395 0 0.06 0.395 0 0.08 0.395 0 0.1 0.395 0 0 0.4 0 0.02 0.4 0 0.04 0.4 0 0.06 0.4 0 0.08 0.4 0 0.1 0.4 0 0 0.405 0 0.02 0.405 0 0.04 0.405 0 0.06 0.405 0 0.08 0.405 0 0.1 0.405 0 0 0.41 0 0.02 0.41 0 0.04 0.41 0 0.06 0.41 0 0.08 0.41 0 0.1 0.41 0 0 0.415 0 0.02 0.415 0 0.04 0.415 0 0.06 0.415 0 0.08 0.415 0 0.1 0.415 0 0 0.42 0 0.02 0.42 0 0.04 0.42 0 0.06 0.42 0 0.08 0.42 0 0.1 0.42 0 0 0.425 0 0.02 0.425 0 0.04 0.425 0 0.06 0.425 0 0.08 0.425 0 0.1 0.425 0 0 0.43 0 0.02 0.43 0 0.04 0.43 0 0.06 0.43 0 0.08 0.43 0 0.1 0.43 0 0 0.435 0 0.02 0.435 0 0.04 0.435 0 0.06 0.435 0 0.08 0.435 0 0.1 0.435 0 0 0.44 0 0.02 0.44 0 0.04 0.44 0 0.06 0.44 0 0.08 0.44 0 0.1 0.44 0 0 0.445 0 0.02 0.445 0 0.04 0.445 0 0.06 0.445 0 0.08 0.445 0 0.1 0.445 0 0 0.45 0 0.02 0.45 0 0.04 0.45 0 0.06 0.45 0 0.08 0.45 0 0.1 0.45 0 0 0.455 0 0.02 0.455 0 0.04 0.455 0 0.06 0.455 0 0.08 0.455 0 0.1 0.455 0 0 0.46 0 0.02 0.46 0 0.04 0.46 0 0.06 0.46 0 0.08 0.46 0 0.1 0.46 0 0 0.465 0 0.02 0.465 0 0.04 0.465 0 0.06 0.465 0 0.08 0.465 0 0.1 0.465 0 0 0.47 0 0.02 0.47 0 0.04 0.47 0 0.06 0.47 0 0.08 0.47 0 0.1 0.47 0 0 0.475 0 0.02 0.475 0 0.04 0.475 0 0.06 0.475 0 0.08 0.475 0 0.1 0.475 0 0 0.48 0 0.02 0.48 0 0.04 0.48 0 0.06 0.48 0 0.08 0.48 0 0.1 0.48 0 0 0.485 0 0.02 0.485 0 0.04 0.485 0 0.06 0.485 0 0.08 0.485 0 0.1 0.485 0 0 0.49 0 0.02 0.49 0 0.04 0.49 0 0.06 0.49 0 0.08 0.49 0 0.1 0.49 0 0 0.495 0 0.02 0.495 0 0.04 0.495 0 0.06 0.495 0 0.08 0.495 0 0.1 0.495 0 0 0.5 0 0.02 0.5 0 0.04 0.5 0 0.06 0.5 0 0.08 0.5 0 0.1 0.5 0 0 0.505 0 0.02 0.505 0 0.04 0.505 0 0.06 0.505 0 0.08 0.505 0 0.1 0.505 0 0 0.51 0 0.02 0.51 0 0.04 0.51 0 0.06 0.51 0 0.08 0.51 0 0.1 0.51 0 0 0.515 0 0.02 0.515 0 0.04 0.515 0 0.06 0.515 0 0.08 0.515 0 0.1 0.515 0 0 0.52 0 0.02 0.52 0 0.04 0.52 0 0.06 0.52 0 0.08 0.52 0 0.1 0.52 0 0 0.525 0 0.02 0.525 0 0.04 0.525 0 0.06 0.525 0 0.08 0.525 0 0.1 0.525 0 0 0.53 0 0.02 0.53 0 0.04 0.53 0 0.06 0.53 0 0.08 0.53 0 0.1 0.53 0 0 0.535 0 0.02 0.535 0 0.04 0.535 0 0.06 0.535 0 0.08 0.535 0 0.1 0.535 0 0 0.54 0 0.02 0.54 0 0.04 0.54 0 0.06 0.54 0 0.08 0.54 0 0.1 0.54 0 0 0.545 0 0.02 0.545 0 0.04 0.545 0 0.06 0.545 0 0.08 0.545 0 0.1 0.545 0 0 0.55 0 0.02 0.55 0 0.04 0.55 0 0.06 0.55 0 0.08 0.55 0 0.1 0.55 0 0 0.555 0 0.02 0.555 0 0.04 0.555 0 0.06 0.555 0 0.08 0.555 0 0.1 0.555 0 0 0.56 0 0.02 0.56 0 0.04 0.56 0 0.06 0.56 0 0.08 0.56 0 0.1 0.56 0 0 0.565 0 0.02 0.565 0 0.04 0.565 0 0.06 0.565 0 0.08 0.565 0 0.1 0.565 0 0 0.57 0 0.02 0.57 0 0.04 0.57 0 0.06 0.57 0 0.08 0.57 0 0.1 0.57 0 0 0.575 0 0.02 0.575 0 0.04 0.575 0 0.06 0.575 0 0.08 0.575 0 0.1 0.575 0 0 0.58 0 0.02 0.58 0 0.04 0.58 0 0.06 0.58 0 0.08 0.58 0 0.1 0.58 0 0 0.585 0 0.02 0.585 0 0.04 0.585 0 0.06 0.585 0 0.08 0.585 0 0.1 0.585 0 0 0.59 0 0.02 0.59 0 0.04 0.59 0 0.06 0.59 0 0.08 0.59 0 0.1 0.59 0 0 0.595 0 0.02 0.595 0 0.04 0.595 0 0.06 0.595 0 0.08 0.595 0 0.1 0.595 0 0 0.6 0 0.02 0.6 0 0.04 0.6 0 0.06 0.6 0 0.08 0.6 0 0.1 0.6 0 0 0.605 0 0.02 0.605 0 0.04 0.605 0 0.06 0.605 0 0.08 0.605 0 0.1 0.605 0 0 0.61 0 0.02 0.61 0 0.04 0.61 0 0.06 0.61 0 0.08 0.61 0 0.1 0.61 0 0 0.615 0 0.02 0.615 0 0.04 0.615 0 0.06 0.615 0 0.08 0.615 0 0.1 0.615 0 0 0.62 0 0.02 0.62 0 0.04 0.62 0 0.06 0.62 0 0.08 0.62 0 0.1 0.62 0 0 0.625 0 0.02 0.625 0 0.04 0.625 0 0.06 0.625 0 0.08 0.625 0 0.1 0.625 0 0 0.63 0 0.02 0.63 0 0.04 0.63 0 0.06 0.63 0 0.08 0.63 0 0.1 0.63 0 0 0.635 0 0.02 0.635 0 0.04 0.635 0 0.06 0.635 0 0.08 0.635 0 0.1 0.635 0 0 0.64 0 0.02 0.64 0 0.04 0.64 0 0.06 0.64 0 0.08 0.64 0 0.1 0.64 0 0 0.645 0 0.02 0.645 0 0.04 0.645 0 0.06 0.645 0 0.08 0.645 0 0.1 0.645 0 0 0.65 0 0.02 0.65 0 0.04 0.65 0 0.06 0.65 0 0.08 0.65 0 0.1 0.65 0 0 0.655 0 0.02 0.655 0 0.04 0.655 0 0.06 0.655 0 0.08 0.655 0 0.1 0.655 0 0 0.66 0 0.02 0.66 0 0.04 0.66 0 0.06 0.66 0 0.08 0.66 0 0.1 0.66 0 0 0.665 0 0.02 0.665 0 0.04 0.665 0 0.06 0.665 0 0.08 0.665 0 0.1 0.665 0 0 0.67 0 0.02 0.67 0 0.04 0.67 0 0.06 0.67 0 0.08 0.67 0 0.1 0.67 0 0 0.675 0 0.02 0.675 0 0.04 0.675 0 0.06 0.675 0 0.08 0.675 0 0.1 0.675 0 0 0.68 0 0.02 0.68 0 0.04 0.68 0 0.06 0.68 0 0.08 0.68 0 0.1 0.68 0 0 0.685 0 0.02 0.685 0 0.04 0.685 0 0.06 0.685 0 0.08 0.685 0 0.1 0.685 0 0 0.69 0 0.02 0.69 0 0.04 0.69 0 0.06 0.69 0 0.08 0.69 0 0.1 
[...]
			<PointData Scalars="VitesseX">
				<DataArray Name="VitesseX" type="Float32" format="ascii">
 0 8.66529e-15 -5.94543e-15 2.63473e-14 3.05763e-14 0 0 3.47073e-15 2.56407e-15 2.32518e-14 3.09915e-14 0 0 -1.90706e-15 9.38097e-15 2.46304e-14 3.19456e-14 0 0 -8.01361e-15 1.50623e-14 2.90944e-14 3.13289e-14 0 0 -1.13296e-14 2.01714e-14 3.19797e-14 3.0462e-14 0 0 -1.12692e-14 2.09869e-14 3.87317e-14 2.43192e-14 0 0 5.20252e-15 -4.06832e-15 6.94751e-14 -3.13983e-18 0 0 2.88529e-15 -2.68475e-15 6.36897e-14 1.0524e-14 0 0 -1.34327e-14 1.38367e-14 4.75412e-14 2.97271e-14 0 0 -1.60563e-14 1.64883e-14 4.56594e-14 3.15123e-14 0 0 -2.52387e-15 7.03389e-16 5.5836e-14 2.39132e-14 0 0 9.12591e-15 -1.47829e-14 5.59042e-14 2.5888e-14 0 0 9.95179e-15 -1.50939e-14 4.64066e-14 3.25979e-14 0 0 2.10899e-14 -2.02418e-14 5.07575e-14 2.52291e-14 0 0 1.86194e-14 -3.00893e-15 4.3875e-14 1.99173e-14 0 0 1.18602e-14 2.46865e-14 3.59842e-14 -7.04908e-15 0 0 2.41826e-14 1.50078e-14 4.79498e-14 -3.33302e-14 0 0 2.03312e-14 -3.76558e-16 5.87476e-14 -2.63143e-14 0 0 -7.08073e-16 2.90085e-14 1.37919e-14 1.97341e-14 0 0 -2.65574e-14 7.69711e-14 -1.68867e-14 2.05921e-14 0 0 1.33948e-14 1.55853e-14 4.89565e-14 -3.86021e-14 0 0 4.97496e-14 -4.28747e-14 8.4733e-14 -4.73694e-14 0 0 -1.83153e-14 6.11066e-14 -1.96043e-14 1.25825e-14 0 0 -6.20509e-14 1.3507e-13 -1.03919e-13 5.17375e-14 0 0 -1.07167e-14 2.26031e-14 1.04418e-14 -1.41273e-14 0 0 2.77682e-14 -6.05889e-14 6.4595e-14 -1.93353e-14 0 0 1.00142e-14 -2.86614e-14 -5.78214e-15 3.64234e-14 0 0 2.94564e-14 -4.6779e-14 5.29849e-15 2.54283e-14 0 0 1.78507e-14 5.71789e-16 -4.42425e-14 5.09266e-14 0 0 2.02205e-14 -5.25149e-15 -7.05032e-15 2.40373e-14 0 0 -1.24128e-14 2.25278e-14 3.79768e-14 4.7437e-15 0 0 -2.42541e-14 6.66898e-14 1.91404e-14 2.43253e-14 0 0 1.68917e-14 2.6212e-14 6.24849e-14 4.19804e-15 0 0 6.77205e-15 5.13948e-14 5.23069e-14 2.56969e-14 0 0 4.08475e-14 2.72908e-14 6.92615e-14 3.42047e-14 0 0 1.89929e-14 5.93409e-14 6.97497e-14 2.8659e-14 0 0 -1.16963e-14 1.04047e-13 2.08251e-14 1.0139e-13 0 0 -2.90973e-15 7.50152e-14 3.78256e-14 1.54822e-13 0 0 -2.0457e-14 7.50154e-14 5.65838e-14 1.52798e-13 0 0 -3.61852e-14 4.58319e-14 1.45652e-13 6.19583e-14 0 0 -9.25796e-14 8.75848e-14 1.36968e-13 3.36063e-14 0 0 -1.53089e-13 1.5808e-13 8.2735e-14 3.44871e-14 0 0 -1.3765e-13 1.52214e-13 7.46305e-14 2.69923e-14 0 0 -7.67992e-14 7.27264e-14 1.15135e-13 -5.86617e-15 0 0 -1.41514e-14 -3.48599e-14 1.9275e-13 -7.08541e-14 0 0 -5.05419e-14 2.3121e-14 1.13738e-13 -4.05971e-14 0 0 -1.05338e-13 9.877e-14 6.56794e-14 -5.6572e-14 0 0 -8.27233e-14 8.63454e-14 1.21671e-14 2.20104e-15 0 0 -2.64517e-14 3.78924e-14 1.83216e-14 1.63329e-14 0 0 7.85071e-14 -8.82207e-14 1.77017e-13 -8.36606e-14 0 0 1.69266e-13 -2.14842e-13 3.40317e-13 -1.577e-13 0 0 7.37408e-14 -7.411e-15 1.88871e-13 -1.00156e-13 0 0 -6.05605e-14 2.84823e-13 -9.39875e-14 5.1936e-14 0 0 -8.779e-14 3.34576e-13 -1.44435e-13 1.07605e-13 0 0 1.10737e-13 3.52437e-14 1.36784e-13 -4.43763e-14 0 0 2.52712e-13 -1.45302e-13 2.57967e-13 -8.76441e-14 0 0 7.66943e-14 8.82835e-14 4.98324e-14 4.89873e-14 0 0 9.49566e-14 -4.91949e-15 1.95519e-13 -5.83943e-14 0 0 8.99372e-14 1.4833e-14 1.9678e-13 -5.48475e-14 0 0 4.872e-14 9.61881e-14 1.35794e-13 4.5594e-14 0 0 1.41125e-13 -3.6444e-14 2.16318e-13 1.0011e-13 0 0 5.62611e-14 4.84565e-14 1.14449e-13 2.22246e-13 0 0 -2.69747e-14 9.21085e-14 1.36722e-13 2.12322e-13 0 0 2.20023e-14 6.02738e-14 2.19441e-13 1.4905e-13 0 0 6.58771e-14 4.04288e-14 3.06573e-13 5.19677e-14 0 0 -1.39058e-14 1.46194e-13 2.94072e-13 5.0091e-15 0 0 -1.17362e-13 2.59645e-13 2.04445e-13 3.68429e-14 0 0 -4.9783e-14 8.46278e-14 3.14973e-13 7.311e-14 0 0 2.46042e-14 -5.16382e-14 4.57037e-13 6.50908e-14 0 0 -4.02715e-14 9.35544e-14 2.52692e-13 2.18502e-13 0 0 -3.04335e-14 1.164e-13 1.67875e-13 2.62597e-13 0 0 -2.76709e-14 1.4019e-13 1.33722e-13 1.96891e-13 0 0 2.33342e-13 -1.83442e-13 3.79787e-13 -2.20763e-14 0 0 3.18393e-13 -2.33414e-13 4.98555e-13 -1.71111e-13 0 0 6.65869e-14 1.07129e-13 2.92006e-13 -2.46621e-14 0 0 -2.34912e-14 1.79954e-13 1.61513e-13 2.21307e-13 0 0 4.78318e-14 9.31553e-14 1.73362e-13 3.35802e-13 0 0 2.65617e-13 -2.50229e-13 6.85886e-13 -8.48074e-14 0 0 2.28308e-13 -1.19331e-13 7.40655e-13 -4.18408e-13 0 0 1.0217e-13 3.18545e-13 2.57253e-13 -2.47386e-13 0 0 3.23227e-13 1.0978e-13 1.6346e-13 -7.83115e-14 0 0 4.87318e-13 -9.10905e-14 3.51387e-14 1.59378e-13 0 0 2.98285e-13 1.53339e-13 -2.26777e-13 4.18761e-13 0 0 8.92013e-14 3.48154e-13 -3.99336e-13 5.84038e-13 0 0 9.61325e-14 1.86714e-13 -1.32608e-13 4.01282e-13 0 0 1.57073e-13 -2.31007e-13 4.39428e-13 8.25177e-14 0 0 1.3891e-13 -3.79005e-13 7.264e-13 -1.87379e-13 0 0 8.73543e-14 -3.98144e-13 7.04192e-13 -1.25037e-13 0 0 -1.4352e-13 -1.09376e-13 4.21542e-13 8.08787e-14 0 0 -4.55732e-13 4.93239e-13 -2.42529e-13 4.49831e-13 0 0 -4.36787e-13 5.86791e-13 -4.38924e-13 6.21903e-13 0 0 -8.03434e-14 3.01308e-13 -3.13734e-13 5.9145e-13 0 0 5.4709e-13 -3.41517e-13 2.56706e-15 4.76679e-13 0 0 7.31945e-13 -6.10839e-13 3.48438e-13 2.31316e-13 0 0 6.5031e-13 -5.51285e-13 4.37906e-13 1.68192e-14 0 0 4.28792e-13 -2.98478e-13 3.2038e-13 1.92002e-14 0 0 1.37198e-13 9.69357e-14 4.28946e-14 1.2888e-13 0 0 -2.04549e-13 4.53524e-13 -5.5786e-14 1.74574e-13 0 0 -3.57849e-13 6.77145e-13 -2.3396e-14 9.51542e-14 0 0 -3.4635e-13 7.56144e-13 7.31989e-15 2.3216e-14 0 0 -2.42803e-13 7.1601e-13 6.08396e-14 6.37689e-15 0 0 2.84435e-15 5.28807e-13 1.14031e-13 7.93017e-14 0 0 2.77275e-13 2.47499e-13 2.19626e-13 7.00053e-14 0 0 3.60247e-13 5.82584e-14 4.08396e-13 1.15621e-14 0 0 3.0521e-13 8.29591e-14 6.58947e-13 -8.93839e-14 0 0 9.18635e-14 2.96144e-13 6.46009e-13 -1.97783e-13 0 0 -1.02733e-13 5.7646e-13 5.22738e-13 -1.65457e-13 0 0 -1.25499e-13 6.49942e-13 3.94488e-13 -1.29628e-13 0 0 -5.84917e-14 6.63486e-13 2.36082e-13 -5.65638e-14 0 0 8.18455e-14 6.56701e-13 4.91233e-14 8.37195e-14 0 0 2.18024e-13 5.60956e-13 7.02504e-14 1.1018e-13 0 0 3.16425e-13 4.22039e-13 9.82696e-14 1.29866e-13 0 0 3.68656e-13 3.29386e-13 1.3092e-13 1.68704e-13 0 0 3.50838e-13 3.16247e-13 1.86676e-13 1.68882e-13 0 0 2.53484e-13 3.48937e-13 2.28306e-13 1.59673e-13 0 0 1.19111e-13 4.08518e-13 2.63539e-13 1.20561e-13 0 0 2.95899e-14 4.49265e-13 2.90665e-13 2.65208e-14 0 0 -1.62133e-14 4.91744e-13 2.80165e-13 -1.56891e-14 0 0 -1.99784e-15 4.82933e-13 2.41908e-13 4.06065e-14 0 0 7.56402e-14 4.20237e-13 2.38017e-13 3.07833e-14 0 0 1.26388e-13 3.34215e-13 2.64037e-13 2.80601e-15 0 0 1.60495e-13 2.51514e-13 2.61845e-13 8.56354e-14 0 0 1.55315e-13 2.33301e-13 2.68428e-13 1.28422e-13 0 0 1.15834e-13 2.42597e-13 2.63744e-13 1.26745e-13 0 0 1.17527e-13 2.23541e-13 2.28966e-13 1.79225e-13 0 0 1.176e-13 2.02689e-13 1.4914e-13 2.94301e-13 0 0 9.81827e-14 1.67369e-13 1.50546e-13 3.11375e-13 0 0 1.04137e-13 1.44065e-13 1.43434e-13 3.94288e-13 0 0 9.57025e-14 1.46978e-13 1.59176e-13 3.74811e-13 0 0 7.56918e-14 1.59056e-13 2.33302e-13 2.1883e-13 0 0 7.69415e-14 1.84956e-13 2.29155e-13 1.70897e-13 0 0 9.30987e-14 1.75515e-13 2.4251e-13 1.55073e-13 0 0 1.04067e-13 1.38339e-13 3.14161e-13 9.55827e-14 0 0 1.06103e-13 1.42949e-13 3.09055e-13 1.35276e-13 0 0 1.0882e-13 1.48546e-13 2.69685e-13 1.30417e-13 0 0 1.00922e-13 1.75186e-13 2.15427e-13 1.08543e-13 0 0 1.34778e-13 1.13942e-13 2.3424e-13 1.11084e-13 0 0 1.31944e-13 9.03913e-14 2.69998e-13 2.40573e-14 0 0 4.17e-14 1.99826e-13 1.79841e-13 2.54151e-14 0 0 3.80795e-14 1.62558e-13 1.86492e-13 2.262e-13 0 0 6.78411e-14 1.67477e-13 1.41316e-13 3.43696e-13 0 0 7.36314e-14 1.9288e-13 2.18601e-13 1.58806e-13 0 0 1.21663e-13 1.43603e-13 4.04762e-13 7.4792e-14 0 0 1.40717e-13 1.64711e-13 4.63081e-13 7.06555e-14 0 0 4.70882e-14 3.34389e-13 3.74829e-13 7.15727e-14 0 0 4.71335e-14 3.67239e-13 3.34416e-13 1.32792e-13 0 0 1.19874e-13 2.76593e-13 4.38528e-13 7.13496e-14 0 0 1.18427e-13 2.74475e-13 4.68956e-13 6.30774e-14 0 0 1.52678e-13 2.50014e-13 5.00621e-13 6.54367e-14 0 0 1.12606e-13 3.88457e-13 3.70615e-13 1.84263e-13 0 0 1.81387e-13 3.31929e-13 4.38731e-13 2.12246e-13 0 0 2.4712e-13 2.87259e-13 4.60811e-13 2.39331e-13 0 0 2.23076e-13 3.14548e-13 5.03235e-13 2.33088e-13 0 0 1.35437e-13 4.46823e-13 4.67996e-13 3.07822e-13 0 0 9.79077e-14 5.54205e-13 3.48466e-13 3.62271e-13 0 0 2.1135e-13 4.82677e-13 3.2273e-13 4.46458e-13 0 0 3.63409e-13 4.03203e-13 3.25484e-13 5.77878e-13 0 0 4.50393e-13 3.28135e-13 5.01613e-13 3.41062e-13 0 0 4.18149e-13 4.34951e-13 4.89338e-13 2.82222e-13 0 0 4.01313e-13 5.22282e-13 4.74112e-13 3.0663e-13 0 0 4.08053e-13 5.27199e-13 5.13991e-13 2.94512e-13 0 0 5.53735e-13 4.0596e-13 4.87098e-13 4.49665e-13 0 0 6.67012e-13 3.97674e-13 3.4753e-13 6.26437e-13 0 0 5.09798e-13 6.98617e-13 1.38534e-13 6.29279e-13 0 0 6.07027e-13 5.07542e-13 3.99581e-13 3.76332e-13 0 0 6.19317e-13 4.58919e-13 5.38483e-13 2.26825e-13 0 0 4.8721e-13 7.65837e-13 3.27682e-13 2.44318e-13 0 0 6.69142e-13 5.44234e-13 5.92536e-13 6.30258e-14 0 0 5.53615e-13 6.60096e-13 5.52153e-13 4.41702e-14 0 0 4.93605e-13 7.1983e-13 5.2532e-13 3.35231e-15 0 0 4.76837e-13 6.88794e-13 5.77583e-13 -7.66722e-15 0 0 4.26839e-13 7.53106e-13 4.57375e-13 1.53359e-13 0 0 5.81907e-13 5.89183e-13 5.89817e-13 9.28117e-14 0 0 4.68766e-13 9.33194e-13 1.82248e-13 3.59107e-13 0 0 5.11814e-13 7.56037e-13 4.1475e-13 1.82105e-13 0 0 7.02412e-13 3.26527e-13 8.38265e-13 -9.44911e-14 0 0 5.60659e-13 5.49789e-13 6.16823e-13 8.36614e-14 0 0 4.80726e-13 5.66265e-13 6.57909e-13 1.51057e-13 0 0 5.50859e-13 6.13396e-13 5.03293e-13 3.08084e-13 0 0 4.38048e-13 7.38328e-13 5.9432e-13 1.00475e-13 0 0 4.07872e-13 5.89683e-13 7.56379e-13 5.3965e-14 0 0 5.90084e-13 3.24697e-13 8.02545e-13 1.55886e-13 0 0 4.13873e-13 6.25077e-13 5.03339e-13 3.84677e-13 0 0 2.27944e-13 8.08174e-13 3.71652e-13 5.49544e-13 0 0 3.84609e-13 4.01552e-13 8.50996e-13 2.29908e-13 0 0 4.35572e-13 3.50589e-13 8.88082e-13 1.56642e-13 0 0 3.49623e-13 5.95582e-13 5.60202e-13 3.03031e-13 0 0 3.23342e-13 5.7614e-13 4.88516e-13 4.0377e-13 0 0 6.0132e-14 8.53571e-13 1.41466e-13 6.54765e-13 0 0 2.23266e-13 5.90939e-13 2.40289e-13 6.88703e-13 0 0 3.81205e-13 2.00551e-13 6.23117e-13 5.72563e-13 0 0 9.37901e-14 4.26013e-13 5.84566e-13 5.30397e-13 0 0 2.22471e-13 1.50393e-13 9.2449e-13 2.5757e-13 0 0 8.2666e-14 3.13543e-13 1.03361e-12 6.29832e-14 0 0 -4.58771e-14 5.47529e-13 7.78498e-13 2.97887e-13 0 0 -2.04886e-14 4.7477e-13 7.21408e-13 4.39323e-13 0 0 -4.20401e-14 5.11573e-13 7.06955e-13 2.83106e-13 0 0 -4.09755e-14 4.32657e-13 8.90426e-13 -1.81544e-14 0 0 -3.68204e-14 4.25314e-13 9.82381e-13 -1.80141e-13 0 0 2.18546e-14 4.80804e-13 9.62251e-13 -2.60849e-13 0 0 -3.3371e-15 4.62344e-13 1.17622e-12 -4.75112e-13 0
				</DataArray>
				<DataArray Name="VitesseY" type="Float32" format="ascii">