<?xml version="1.0"?>
<VTKFile type="PolyData">
	<PolyData>
		<Piece NumberOfPoints="1206" NumberOfPolys="1000">
			<Points>
				<DataArray type="Float32" NumberOfComponents="3" format="ascii">
 0 0 0 0.02 0 0 0.04 0 0 0.06 0 0 0.08 0 0 0.1 0 0 0 0.005 0 0.02 0.005 0 0.04 0.005 0 0.06 0.005 0 0.08 0.005 0 0.1 0.005 0 0 0.01 0 0.02 0.01 0 0.04 0.01 0 0.06 0.01 0 0.08 0.01 0 0.1 0.01 0 0 0.015 0 0.02 0.015 0 0.04 0.015 0 0.06 0.015 0 0.08 0.015 0 0.1 0.015 0 0 0.02 0 0.02 0.02 0 0.04 0.02 0 0.06 0.02 0 0.08 0.02 0 0.1 0.02 0 0 0.025 0 0.02 0.025 0 0.04 0.025 0 0.06 0.025 0 0.08 0.025 0 0.1 0.025 0 0 0.03 0 0.02 0.03 0 0.04 0.03 0 0.06 0.03 0 0.08 0.03 0 0.1 0.03 0 0 0.035 0 0.02 0.035 0 0.04 0.035 0 0.06 0.035 0 0.08 0.035 0 0.1 0.035 0 0 0.04 0 0.02 0.04 0 0.04 0.04 0 0.06 0.04 0 0.08 0.04 0 0.1 0.04 0 0 0.045 0 0.02 0.045 0 0.04 0.045 0 0.06 0.045 0 0.08 0.045 0 0.1 0.045 0 0 0.05 0 0.02 0.05 0 0.04 0.05 0 0.06 0.05 0 0.08 0.05 0 0.1 0.05 0 0 0.055 0 0.02 0.055 0 0.04 0.055 0 0.06 0.055 0 0.08 0.055 0 0.1 0.055 0 0 0.06 0 0.02 0.06 0 0.04 0.06 0 0.06 0.06 0 0.08 0.06 0 0.1 0.06 0 0 0.065 0 0.02 0.065 0 0.04 0.065 0 0.06 0.065 0 0.08 0.065 0 0.1 0.065 0 0 0.07 0 0.02 0.07 0 0.04 0.07 0 0.06 0.07 0 0.08 0.07 0 0.1 0.07 0 0 0.075 0 0.02 0.075 0 0.04 0.075 0 0.06 0.075 0 0.08 0.075 0 0.1 0.075 0 0 0.08 0 0.02 0.08 0 0.04 0.08 0 0.06 0.08 0 0.08 0.08 0 0.1 0.08 0 0 0.085 0 0.02 0.085 0 0.04 0.085 0 0.06 0.085 0 0.08 0.085 0 0.1 0.085 0 0 0.09 0 0.02 0.09 0 0.04 0.09 0 0.06 0.09 0 0.08 0.09 0 0.1 0.09 0 0 0.095 0 0.02 0.095 0 0.04 0.095 0 0.06 0.095 0 0.08 0.095 0 0.1 0.095 0 0 0.1 0 0.02 0.1 0 0.04 0.1 0 0.06 0.1 0 0.08 0.1 0 0.1 0.1 0 0 0.105 0 0.02 0.105 0 0.04 0.105 0 0.06 0.105 0 0.08 0.105 0 0.1 0.105 0 0 0.11 0 0.02 0.11 0 0.04 0.11 0 0.06 0.11 0 0.08 0.11 0 0.1 0.11 0 0 0.115 0 0.02 0.115 0 0.04 0.115 0 0.06 0.115 0 0.08 0.115 0 0.1 0.115 0 0 0.12 0 0.02 0.12 0 0.04 0.12 0 0.06 0.12 0 0.08 0.12 0 0.1 0.12 0 0 0.125 0 0.02 0.125 0 0.04 0.125 0 0.06 0.125 0 0.08 0.125 0 0.1 0.125 0 0 0.13 0 0.02 0.13 0 0.04 0.13 0 0.06 0.13 0 0.08 0.13 0 0.1 0.13 0 0 0.135 0 0.02 0.135 0 0.04 0.135 0 0.06 0.135 0 0.08 0.135 0 0.1 0.135 0 0 0.14 0 0.02 0.14 0 0.04 0.14 0 0.06 0.14 0 0.08 0.14 0 0.1 0.14 0 0 0.145 0 0.02 0.145 0 0.04 0.145 0 0.06 0.145 0 0.08 0.145 0 0.1 0.145 0 0 0.15 0 0.02 0.15 0 0.04 0.15 0 0.06 0.15 0 0.08 0.15 0 0.1 0.15 0 0 0.155 0 0.02 0.155 0 0.04 0.155 0 0.06 0.155 0 0.08 0.155 0 0.1 0.155 0 0 0.16 0 0.02 0.16 0 0.04 0.16 0 0.06 0.16 0 0.08 0.16 0 0.1 0.16 0 0 0.165 0 0.02 0.165 0 0.04 0.165 0 0.06 0.165 0 0.08 0.165 0 0.1 0.165 0 0 0.17 0 0.02 0.17 0 0.04 0.17 0 0.06 0.17 0 0.08 0.17 0 0.1 0.17 0 0 0.175 0 0.02 0.175 0 0.04 0.175 0 0.06 0.175 0 0.08 0.175 0 0.1 0.175 0 0 0.18 0 0.02 0.18 0 0.04 0.18 0 0.06 0.18 0 0.08 0.18 0 0.1 0.18 0 0 0.185 0 0.02 0.185 0 0.04 0.185 0 0.06 0.185 0 0.08 0.185 0 0.1 0.185 0 0 0.19 0 0.02 0.19 0 0.04 0.19 0 0.06 0.19 0 0.08 0.19 0 0.1 0.19 0 0 0.195 0 0.02 0.195 0 0.04 0.195 0 0.06 0.195 0 0.08 0.195 0 0.1 0.195 0 0 0.2 0 0.02 0.2 0 0.04 0.2 0 0.06 0.2 0 0.08 0.2 0 0.1 0.2 0 0 0.205 0 0.02 0.205 0 0.04 0.205 0 0.06 0.205 0 0.08 0.205 0 0.1 0.205 0 0 0.21 0 0.02 0.21 0 0.04 0.21 0 0.06 0.21 0 0.08 0.21 0 0.1 0.21 0 0 0.215 0 0.02 0.215 0 0.04 0.215 0 0.06 0.215 0 0.08 0.215 0 0.1 0.215 0 0 0.22 0 0.02 0.22 0 0.04 0.22 0 0.06 0.22 0 0.08 0.22 0 0.1 0.22 0 0 0.225 0 0.02 0.225 0 0.04 0.225 0 0.06 0.225 0 0.08 0.225 0 0.1 0.225 0 0 0.23 0 0.02 0.23 0 0.04 0.23 0 0.06 0.23 0 0.08 0.23 0 0.1 0.23 0 0 0.235 0 0.02 0.235 0 0.04 0.235 0 0.06 0.235 0 0.08 0.235 0 0.1 0.235 0 0 0.24 0 0.02 0.24 0 0.04 0.24 0 0.06 0.24 0 0.08 0.24 0 0.1 0.24 0 0 0.245 0 0.02 0.245 0 0.04 0.245 0 0.06 0.245 0 0.08 0.245 0 0.1 0.245 0 0 0.25 0 0.02 0.25 0 0.04 0.25 0 0.06 0.25 0 0.08 0.25 0 0.1 0.25 0 0 0.255 0 0.02 0.255 0 0.04 0.255 0 0.06 0.255 0 0.08 0.255 0 0.1 0.255 0 0 0.26 0 0.02 0.26 0 0.04 0.26 0 0.06 0.26 0 0.08 0.26 0 0.1 0.26 0 0 0.265 0 0.02 0.265 0 0.04 0.265 0 0.06 0.265 0 0.08 0.265 0 0.1 0.265 0 0 0.27 0 0.02 0.27 0 0.04 0.27 0 0.06 0.27 0 0.08 0.27 0 0.1 0.27 0 0 0.275 0 0.02 0.275 0 0.04 0.275 0 0.06 0.275 0 0.08 0.275 0 0.1 0.275 0 0 0.28 0 0.02 0.28 0 0.04 0.28 0 0.06 0.28 0 0.08 0.28 0 0.1 0.28 0 0 0.285 0 0.02 0.285 0 0.04 0.285 0 0.06 0.285 0 0.08 0.285 0 0.1 0.285 0 0 0.29 0 0.02 0.29 0 0.04 0.29 0 0.06 0.29 0 0.08 0.29 0 0.1 0.29 0 0 0.295 0 0.02 0.295 0 0.04 0.295 0 0.06 0.295 0 0.08 0.295 0 0.1 0.295 0 0 0.3 0 0.02 0.3 0 0.04 0.3 0 0.06 0.3 0 0.08 0.3 0 0.1 0.3 0 0 0.305 0 0.02 0.305 0 0.04 0.305 0 0.06 0.305 0 0.08 0.305 0 0.1 0.305 0 0 0.31 0 0.02 0.31 0 0.04 0.31 0 0.06 0.31 0 0.08 0.31 0 0.1 0.31 0 0 0.315 0 0.02 0.315 0 0.04 0.315 0 0.06 0.315 0 0.08 0.315 0 0.1 0.315 0 0 0.32 0 0.02 0.32 0 0.04 0.32 0 0.06 0.32 0 0.08 0.32 0 0.1 0.32 0 0 0.325 0 0.02 0.325 0 0.04 0.325 0 0.06 0.325 0 0.08 0.325 0 0.1 0.325 0 0 0.33 0 0.02 0.33 0 0.04 0.33 0 0.06 0.33 0 0.08 0.33 0 0.1 0.33 0 0 0.335 0 0.02 0.335 0 0.04 0.335 0 0.06 0.335 0 0.08 0.335 0 0.1 0.335 0 0 0.34 0 0.02 0.34 0 0.04 0.34 0 0.06 0.34 0 0.08 0.34 0 0.1 0.34 0 0 0.345 0 0.02 0.345 0 0.04 0.345 0 0.06 0.345 0 0.08 0.345 0 0.1 0.345 0 0 0.35 0 0.02 0.35 0 0.04 0.35 0 0.06 0.35 0 0.08 0.35 0 0.1 0.35 0 0 0.355 0 0.02 0.355 0 0.04 0.355 0 0.06 0.355 0 0.08 0.355 0 0.1 0.355 0 0 0.36 0 0.02 0.36 0 0.04 0.36 0 0.06 0.36 0 0.08 0.36 0 0.1 0.36 0 0 0.365 0 0.02 0.365 0 0.04 0.365 0 0.06 0.365 0 0.08 0.365 0 0.1 0.365 0 0 0.37 0 0.02 0.37 0 0.04 0.37 0 0.06 0.37 0 0.08 0.37 0 0.1 0.37 0 0 0.375 0 0.02 0.375 0 0.04 0.375 0 0.06 0.375 0 0.08 0.375 0 0.1 0.375 0 0 0.38 0 0.02 0.38 0 0.04 0.38 0 0.06 0.38 0 0.08 0.38 0 0.1 0.38 0 0 0.385 0 0.02 0.385 0 0.04 0.385 0 0.06 0.385 0 0.08 0.385 0 0.1 0.385 0 0 0.39 0 0.02 0.39 0 0.04 0.39 0 0.06 0.39 0 0.08 0.39 0 0.1 0.39 0 0 0.395 0 0.02 0.395 0 0.04 0.395 0 0.06 0.395 0 0.08 0.395 0 0.1 0.395 0 0 0.4 0 0.02 0.4 0 0.04 0.4 0 0.06 0.4 0 0.08 0.4 0 0.1 0.4 0 0 0.405 0 0.02 0.405 0 0.04 0.405 0 0.06 0.405 0 0.08 0.405 0 0.1 0.405 0 0 0.41 0 0.02 0.41 0 0.04 0.41 0 0.06 0.41 0 0.08 0.41 0 0.1 0.41 0 0 0.415 0 0.02 0.415 0 0.04 0.415 0 0.06 0.415 0 0.08 0.415 0 0.1 0.415 0 0 0.42 0 0.02 0.42 0 0.04 0.42 0 0.06 0.42 0 0.08 0.42 0 0.1 0.42 0 0 0.425 0 0.02 0.425 0 0.04 0.425 0 0.06 0.425 0 0.08 0.425 0 0.1 0.425 0 0 0.43 0 0.02 0.43 0 0.04 0.43 0 0.06 0.43 0 0.08 0.43 0 0.1 0.43 0 0 0.435 0 0.02 0.435 0 0.04 0.435 0 0.06 0.435 0 0.08 0.435 0 0.1 0.435 0 0 0.44 0 0.02 0.44 0 0.04 0.44 0 0.06 0.44 0 0.08 0.44 0 0.1 0.44 0 0 0.445 0 0.02 0.445 0 0.04 0.445 0 0.06 0.445 0 0.08 0.445 0 0.1 0.445 0 0 0.45 0 0.02 0.45 0 0.04 0.45 0 0.06 0.45 0 0.08 0.45 0 0.1 0.45 0 0 0.455 0 0.02 0.455 0 0.04 0.455 0 0.06 0.455 0 0.08 0.455 0 0.1 0.455 0 0 0.46 0 0.02 0.46 0 0.04 0.46 0 0.06 0.46 0 0.08 0.46 0 0.1 0.46 0 0 0.465 0 0.02 0.465 0 0.04 0.465 0 0.06 0.465 0 0.08 0.465 0 0.1 0.465 0 0 0.47 0 0.02 0.47 0 0.04 0.47 0 0.06 0.47 0 0.08 0.47 0 0.1 0.47 0 0 0.475 0 0.02 0.475 0 0.04 0.475 0 0.06 0.475 0 0.08 0.475 0 0.1 0.475 0 0 0.48 0 0.02 0.48 0 0.04 0.48 0 0.06 0.48 0 0.08 0.48 0 0.1 0.48 0 0 0.485 0 0.02 0.485 0 0.04 0.485 0 0.06 0.485 0 0.08 0.485 0 0.1 0.485 0 0 0.49 0 0.02 0.49 0 0.04 0.49 0 0.06 0.49 0 0.08 0.49 0 0.1 0.49 0 0 0.495 0 0.02 0.495 0 0.04 0.495 0 0.06 0.495 0 0.08 0.495 0 0.1 0.495 0 0 0.5 0 0.02 0.5 0 0.04 0.5 0 0.06 0.5 0 0.08 0.5 0 0.1 0.5 0 0 0.505 0 0.02 0.505 0 0.04 0.505 0 0.06 0.505 0 0.08 0.505 0 0.1 0.505 0 0 0.51 0 0.02 0.51 0 0.04 0.51 0 0.06 0.51 0 0.08 0.51 0 0.1 0.51 0 0 0.515 0 0.02 0.515 0 0.04 0.515 0 0.06 0.515 0 0.08 0.515 0 0.1 0.515 0 0 0.52 0 0.02 0.52 0 0.04 0.52 0 0.06 0.52 0 0.08 0.52 0 0.1 0.52 0 0 0.525 0 0.02 0.525 0 0.04 0.525 0 0.06 0.525 0 0.08 0.525 0 0.1 0.525 0 0 0.53 0 0.02 0.53 0 0.04 0.53 0 0.06 0.53 0 0.08 0.53 0 0.1 0.53 0 0 0.535 0 0.02 0.535 0 0.04 0.535 0 0.06 0.535 0 0.08 0.535 0 0.1 0.535 0 0 0.54 0 0.02 0.54 0 0.04 0.54 0 0.06 0.54 0 0.08 0.54 0 0.1 0.54 0 0 0.545 0 0.02 0.545 0 0.04 0.545 0 0.06 0.545 0 0.08 0.545 0 0.1 0.545 0 0 0.55 0 0.02 0.55 0 0.04 0.55 0 0.06 0.55 0 0.08 0.55 0 0.1 0.55 0 0 0.555 0 0.02 0.555 0 0.04 0.555 0 0.06 0.555 0 0.08 0.555 0 0.1 0.555 0 0 0.56 0 0.02 0.56 0 0.04 0.56 0 0.06 0.56 0 0.08 0.56 0 0.1 0.56 0 0 0.565 0 0.02 0.565 0 0.04 0.565 0 0.06 0.565 0 0.08 0.565 0 0.1 0.565 0 0 0.57 0 0.02 0.57 0 0.04 0.57 0 0.06 0.57 0 0.08 0.57 0 0.1 0.57 0 0 0.575 0 0.02 0.575 0 0.04 0.575 0 0.06 0.575 0 0.08 0.575 0 0.1 0.575 0 0 0.58 0 0.02 0.58 0 0.04 0.58 0 0.06 0.58 0 0.08 0.58 0 0.1 0.58 0 0 0.585 0 0.02 0.585 0 0.04 0.585 0 0.06 0.585 0 0.08 0.585 0 0.1 0.585 0 0 0.59 0 0.02 0.59 0 0.04 0.59 0 0.06 0.59 0 0.08 0.59 0 0.1 0.59 0 0 0.595 0 0.02 0.595 0 0.04 0.595 0 0.06 0.595 0 0.08 0.595 0 0.1 0.595 0 0 0.6 0 0.02 0.6 0 0.04 0.6 0 0.06 0.6 0 0.08 0.6 0 0.1 0.6 0 0 0.605 0 0.02 0.605 0 0.04 0.605 0 0.06 0.605 0 0.08 0.605 0 0.1 0.605 0 0 0.61 0 0.02 0.61 0 0.04 0.61 0 0.06 0.61 0 0.08 0.61 0 0.1 0.61 0 0 0.615 0 0.02 0.615 0 0.04 0.615 0 0.06 0.615 0 0.08 0.615 0 0.1 0.615 0 0 0.62 0 0.02 0.62 0 0.04 0.62 0 0.06 0.62 0 0.08 0.62 0 0.1 0.62 0 0 0.625 0 0.02 0.625 0 0.04 0.625 0 0.06 0.625 0 0.08 0.625 0 0.1 0.625 0 0 0.63 0 0.02 0.63 0 0.04 0.63 0 0.06 0.63 0 0.08 0.63 0 0.1 0.63 0 0 0.635 0 0.02 0.635 0 0.04 0.635 0 0.06 0.635 0 0.08 0.635 0 0.1 0.635 0 0 0.64 0 0.02 0.64 0 0.04 0.64 0 0.06 0.64 0 0.08 0.64 0 0.1 0.64 0 0 0.645 0 0.02 0.645 0 0.04 0.645 0 0.06 0.645 0 0.08 0.645 0 0.1 0.645 0 0 0.65 0 0.02 0.65 0 0.04 0.65 0 0.06 0.65 0 0.08 0.65 0 0.1 0.65 0 0 0.655 0 0.02 0.655 0 0.04 0.655 0 0.06 0.655 0 0.08 0.655 0 0.1 0.655 0 0 0.66 0 0.02 0.66 0 0.04 0.66 0 0.06 0.66 0 0.08 0.66 0 0.1 0.66 0 0 0.665 0 0.02 0.665 0 0.04 0.665 0 0.06 0.665 0 0.08 0.665 0 0.1 0.665 0 0 0.67 0 0.02 0.67 0 0.04 0.67 0 0.06 0.67 0 0.08 0.67 0 0.1 0.67 0 0 0.675 0 0.02 0.675 0 0.04 0.675 0 0.06 0.675 0 0.08 0.675 0 0.1 0.675 0 0 0.68 0 0.02 0.68 0 0.04 0.68 0 0.06 0.68 0 0.08 0.68 0 0.1 0.68 0 0 0.685 0 0.02 0.685 0 0.04 0.685 0 0.06 0.685 0 0.08 0.685 0 0.1 0.685 0 0 0.69 0 0.02 0.69 0 0.04 0.69 0 0.06 0.69 0 0.08 0.69 0 0.1 
[...]
			<PointData Scalars="VitesseX">
				<DataArray Name="VitesseX" type="Float32" format="ascii">
 0 -2.54527e-14 -2.32844e-14 -1.51997e-14 -1.69186e-14 0 0 -2.3457e-14 -2.47351e-14 -1.52582e-14 -1.53685e-14 0 0 -2.32139e-14 -2.11981e-14 -2.2528e-14 -6.99489e-15 0 0 -2.34904e-14 -1.88813e-14 -2.50147e-14 -4.56415e-15 0 0 -2.36798e-14 -2.1184e-14 -1.82335e-14 -9.33343e-15 0 0 -3.14506e-14 -8.98924e-15 -2.67548e-14 -6.50755e-15 0 0 -3.49656e-14 -5.26512e-15 -2.93734e-14 -3.86451e-15 0 0 -2.12791e-14 -2.74773e-14 -9.18891e-15 -1.69743e-14 0 0 -2.12817e-14 -2.12582e-14 -2.20203e-14 -1.35816e-14 0 0 -2.52751e-14 -1.7199e-14 -2.28691e-14 -1.05126e-14 0 0 -2.94721e-14 -7.44578e-15 -2.05325e-14 -1.13317e-14 0 0 -3.23131e-14 9.54286e-15 -3.08506e-14 -2.11423e-15 0 0 -8.64046e-16 -2.81614e-14 1.65999e-14 -3.04365e-14 0 0 -4.7143e-16 -1.25167e-14 8.64369e-15 -2.86943e-14 0 0 -2.84065e-14 3.65556e-14 -3.26801e-14 -3.56145e-15 0 0 -1.29752e-14 1.99432e-14 -2.53379e-14 -8.6847e-16 0 0 -1.15077e-14 2.50793e-14 -4.46778e-14 1.99543e-14 0 0 -1.06503e-14 8.90836e-15 -7.4772e-15 -1.08131e-14 0 0 6.96979e-15 -2.44686e-14 1.95075e-14 -2.23758e-14 0 0 -1.30339e-14 2.08469e-14 -4.65866e-14 1.9693e-14 0 0 -6.30418e-15 9.9146e-15 -5.52577e-15 -3.32984e-14 0 0 1.33046e-15 -1.69542e-14 2.32182e-14 -5.53739e-14 0 0 1.50828e-14 -5.60317e-14 4.03401e-14 -5.27854e-14 0 0 1.35214e-14 -4.58558e-14 1.24776e-14 -3.37291e-14 0 0 6.76965e-16 1.20844e-15 -5.43956e-14 1.28775e-15 0 0 2.10956e-14 -2.49877e-14 -2.3492e-14 -2.79994e-14 0 0 9.15227e-14 -1.34379e-13 8.08816e-14 -9.35518e-14 0 0 9.08941e-14 -1.07602e-13 4.59958e-14 -9.07192e-14 0 0 -1.007e-15 4.40552e-14 -9.0181e-14 -1.89396e-14 0 0 1.13582e-14 -1.79319e-14 2.23411e-15 -4.24847e-14 0 0 1.1912e-14 -5.45689e-14 5.44548e-14 -3.53865e-14 0 0 -1.49913e-14 -1.16824e-14 2.95602e-14 -2.67423e-14 0 0 -1.85837e-15 -8.39752e-15 2.52449e-14 -3.12587e-14 0 0 -1.96337e-14 3.67758e-14 -4.62151e-14 4.65944e-14 0 0 3.63343e-14 -4.04582e-14 2.58646e-14 2.11866e-14 0 0 2.85305e-14 -3.02214e-14 5.6638e-14 -2.25182e-14 0 0 -5.08948e-14 7.63198e-14 -2.00658e-14 -1.69827e-14 0 0 -2.74628e-14 2.71563e-14 2.24177e-14 -5.70546e-14 0 0 -2.26391e-14 8.10419e-15 4.06942e-14 -6.98341e-14 0 0 -2.21472e-14 -2.21977e-14 4.37393e-14 -5.42192e-14 0 0 1.07898e-14 -7.31418e-14 5.16494e-14 -2.5233e-14 0 0 4.19867e-14 -7.62921e-14 3.09964e-14 7.64071e-15 0 0 6.70551e-14 -9.68587e-14 2.40939e-14 4.10456e-14 0 0 1.77527e-15 -4.5146e-14 -1.30886e-14 5.66917e-14 0 0 -8.13087e-14 1.32572e-14 -4.28557e-14 3.56363e-14 0 0 -6.04834e-14 2.17248e-15 -1.02021e-13 6.59767e-14 0 0 -8.45781e-16 -1.83385e-14 -1.59053e-13 1.1018e-13 0 0 1.63224e-14 -4.18693e-14 -1.36613e-13 1.01277e-13 0 0 8.36232e-14 -1.10922e-13 -1.11121e-13 4.47984e-14 0 0 5.32683e-14 -7.65276e-14 -1.96274e-13 5.31706e-14 0 0 -4.98219e-14 -1.08513e-14 -2.55014e-13 9.29658e-14 0 0 -2.62437e-14 -1.21495e-13 -9.79292e-14 -1.56565e-14 0 0 8.11633e-14 -3.25461e-13 9.9921e-14 -1.11595e-13 0 0 1.20533e-13 -3.41778e-13 -3.25282e-14 4.25173e-14 0 0 6.20438e-14 -2.23199e-13 -2.45727e-13 1.37124e-13 0 0 9.26788e-15 -1.19866e-13 -2.98763e-13 4.06977e-14 0 0 -2.47529e-14 -1.88161e-14 -2.90458e-13 -4.76837e-14 0 0 4.3211e-14 -8.66108e-14 -1.93192e-13 -8.21942e-14 0 0 2.33072e-14 -1.08627e-13 -1.44142e-13 -2.95575e-14 0 0 -1.12562e-13 6.91481e-15 -1.85702e-13 3.97466e-14 0 0 -1.56877e-13 -5.91502e-15 -1.44282e-13 2.41191e-14 0 0 -1.46588e-13 -1.36737e-13 -1.81172e-14 -3.70849e-14 0 0 -1.70609e-13 -2.24103e-13 2.06353e-14 -2.0686e-15 0 0 -2.27025e-13 -2.2023e-13 -4.18246e-14 6.81945e-14 0 0 -2.34397e-13 -1.81249e-13 -1.24824e-13 7.01261e-14 0 0 -2.18475e-13 -1.75592e-13 -1.71614e-13 4.02773e-14 0 0 -1.56634e-13 -2.6798e-13 -1.34399e-13 -3.03569e-14 0 0 -6.1302e-14 -3.54951e-13 -1.71024e-13 -4.94225e-14 0 0 -7.13598e-14 -3.33028e-13 -2.57935e-13 1.30483e-14 0 0 -1.24365e-13 -2.64849e-13 -3.37507e-13 8.9014e-14 0 0 -1.975e-13 -2.75904e-13 -2.71975e-13 8.31498e-14 0 0 -2.46152e-13 -3.46551e-13 -1.61327e-13 6.88299e-14 0 0 -2.48796e-13 -4.44867e-13 -2.44685e-14 3.46904e-14 0 0 -2.34601e-13 -4.9198e-13 -5.38479e-14 5.55928e-14 0 0 -2.07477e-13 -4.36264e-13 -1.66993e-13 1.13843e-13 0 0 -2.12362e-13 -3.0446e-13 -4.05588e-13 1.72547e-13 0 0 -2.43029e-13 -1.22855e-13 -4.96614e-13 8.18511e-14 0 0 -2.68511e-13 -9.29391e-14 -4.69576e-13 -5.82592e-14 0 0 -2.32757e-13 -1.31716e-13 -3.63958e-13 -8.99677e-14 0 0 -1.52637e-13 -2.32582e-13 -1.61386e-13 -3.66766e-14 0 0 -4.31871e-14 -2.9874e-13 -1.1417e-13 5.41806e-14 0 0 2.16111e-14 -2.79993e-13 -1.66981e-13 1.99121e-13 0 0 4.9821e-14 -1.93788e-13 -3.36915e-13 3.86164e-13 0 0 8.54513e-14 -1.74125e-13 -4.40912e-13 4.2277e-13 0 0 1.6553e-13 -2.12265e-13 -4.58212e-13 4.08077e-13 0 0 3.0991e-13 -2.90614e-13 -4.55695e-13 3.6727e-13 0 0 3.07796e-13 -2.90123e-13 -4.32945e-13 3.00594e-13 0 0 2.64073e-13 -2.56114e-13 -4.1696e-13 2.01857e-13 0 0 1.71679e-13 -1.62966e-13 -3.93656e-13 4.99625e-14 0 0 4.20259e-14 -1.02255e-13 -3.18466e-13 -1.53083e-13 0 0 -5.77584e-14 -1.03963e-13 -2.07107e-13 -3.52278e-13 0 0 -1.04651e-13 -1.31574e-13 -8.78273e-14 -4.06039e-13 0 0 -1.45807e-13 -1.35821e-13 -9.28538e-14 -3.59635e-13 0 0 -1.73601e-13 -6.46766e-14 -1.90625e-13 -2.24324e-13 0 0 -1.91922e-13 5.85633e-14 -3.81808e-13 -3.28548e-14 0 0 -2.07294e-13 1.12308e-13 -4.64769e-13 2.38041e-14 0 0 -1.9851e-13 1.21494e-13 -5.20645e-13 4.82906e-14 0 0 -1.83857e-13 9.07102e-14 -5.27028e-13 8.04266e-14 0 0 -1.32108e-13 -2.47026e-14 -4.74712e-13 6.15367e-14 0 0 -8.37722e-15 -2.19545e-13 -4.28826e-13 6.19005e-14 0 0 2.02144e-13 -3.71265e-13 -4.67025e-13 1.51419e-13 0 0 4.73651e-13 -4.6432e-13 -5.80394e-13 2.72148e-13 0 0 5.53959e-13 -4.68143e-13 -6.1848e-13 2.88417e-13 0 0 5.34592e-13 -4.29206e-13 -5.94295e-13 2.273e-13 0 0 4.23728e-13 -3.62228e-13 -4.77757e-13 3.80976e-14 0 0 2.21623e-13 -2.83117e-13 -2.17924e-13 -2.78002e-13 0 0 4.541e-14 -1.8053e-13 -1.10011e-13 -4.43541e-13 0 0 -1.34954e-14 -1.11913e-13 -1.3584e-13 -4.56875e-13 0 0 -5.63879e-14 -1.05502e-13 -1.17241e-13 -4.72918e-13 0 0 -9.3265e-14 -9.53256e-14 -1.21145e-13 -4.69125e-13 0 0 -1.18192e-13 -5.95552e-14 -1.85526e-13 -4.44415e-13 0 0 -1.03528e-13 -6.95562e-14 -2.6301e-13 -3.91558e-13 0 0 -8.20197e-14 -8.86792e-14 -3.06471e-13 -3.36745e-13 0 0 -4.29225e-14 -1.39199e-13 -3.37212e-13 -2.75973e-13 0 0 -4.23139e-14 -1.79723e-13 -3.25226e-13 -2.59709e-13 0 0 -8.47044e-14 -1.55106e-13 -3.53066e-13 -2.2075e-13 0 0 -9.36759e-14 -2.00008e-13 -3.25682e-13 -1.71619e-13 0 0 -1.16044e-13 -2.74869e-13 -1.94123e-13 -2.38217e-13 0 0 -1.62003e-13 -2.71063e-13 -1.45517e-13 -3.27698e-13 0 0 -1.73257e-13 -2.77351e-13 -1.74202e-13 -2.96477e-13 0 0 -1.73863e-13 -2.8914e-13 -1.80898e-13 -3.04049e-13 0 0 -1.79183e-13 -2.7809e-13 -2.06174e-13 -3.18501e-13 0 0 -1.74831e-13 -2.51082e-13 -2.75891e-13 -2.95788e-13 0 0 -1.71088e-13 -2.35893e-13 -2.88214e-13 -3.06972e-13 0 0 -1.56979e-13 -2.75002e-13 -2.48277e-13 -3.07308e-13 0 0 -1.37571e-13 -3.12282e-13 -2.58476e-13 -2.3472e-13 0 0 -1.46687e-13 -2.75972e-13 -3.03203e-13 -1.31551e-13 0 0 -1.65458e-13 -2.64957e-13 -2.50366e-13 -1.37857e-13 0 0 -1.52054e-13 -2.79103e-13 -1.7022e-13 -1.64726e-13 0 0 -1.59056e-13 -2.23597e-13 -1.99647e-13 -1.61544e-13 0 0 -1.86855e-13 -1.71777e-13 -2.01944e-13 -1.26369e-13 0 0 -1.87328e-13 -1.59588e-13 -1.74173e-13 -1.10418e-13 0 0 -1.86398e-13 -1.52498e-13 -1.63428e-13 -1.31652e-13 0 0 -1.89881e-13 -1.62177e-13 -1.49565e-13 -1.36175e-13 0 0 -1.84147e-13 -1.74913e-13 -1.18877e-13 -1.66091e-13 0 0 -1.84269e-13 -1.68629e-13 -1.30462e-13 -1.75583e-13 0 0 -2.33581e-13 -1.13673e-13 -2.4444e-13 -8.18587e-14 0 0 -2.45068e-13 -1.25498e-13 -2.41794e-13 -8.51988e-14 0 0 -2.04058e-13 -2.1528e-13 -1.69971e-13 -1.48704e-13 0 0 -1.68052e-13 -2.97958e-13 -9.14378e-14 -2.18333e-13 0 0 -1.83407e-13 -2.58885e-13 -1.48823e-13 -1.61593e-13 0 0 -1.88856e-13 -2.37386e-13 -1.97695e-13 -5.83995e-14 0 0 -1.64784e-13 -2.67395e-13 -1.22329e-13 -1.24249e-13 0 0 -1.40696e-13 -2.93469e-13 -8.60633e-14 -2.36495e-13 0 0 -1.15184e-13 -2.93064e-13 -1.3249e-13 -2.01134e-13 0 0 -1.31748e-13 -2.27223e-13 -1.84758e-13 -1.65784e-13 0 0 -1.49452e-13 -1.96708e-13 -1.8212e-13 -1.15734e-13 0 0 -1.26032e-13 -2.21051e-13 -1.91484e-13 -5.10187e-14 0 0 -1.24933e-13 -2.34197e-13 -1.96647e-13 -5.77137e-14 0 0 -1.54732e-13 -2.71486e-13 -1.25249e-13 -5.83494e-14 0 0 -1.73499e-13 -2.83119e-13 -1.59133e-13 -7.41773e-14 0 0 -1.793e-13 -2.74387e-13 -2.77018e-13 -8.54293e-14 0 0 -1.7305e-13 -3.01108e-13 -3.02349e-13 -1.3816e-13 0 0 -1.65263e-13 -3.57608e-13 -2.95067e-13 -1.96135e-13 0 0 -1.80402e-13 -3.5208e-13 -3.33004e-13 -2.3578e-13 0 0 -2.05524e-13 -2.83475e-13 -4.64612e-13 -3.43875e-13 0 0 -1.80717e-13 -2.65074e-13 -4.9134e-13 -4.30267e-13 0 0 -1.79241e-13 -2.43827e-13 -4.61094e-13 -4.10188e-13 0 0 -2.13478e-13 -2.42758e-13 -4.26714e-13 -1.78168e-13 0 0 -2.03599e-13 -3.02952e-13 -3.54489e-13 1.42479e-13 0 0 -1.59884e-13 -4.0514e-13 -1.89694e-13 1.36723e-13 0 0 -1.59906e-13 -4.39114e-13 -2.62633e-14 7.53734e-14 0 0 -1.70998e-13 -3.92683e-13 -4.22654e-14 9.46918e-14 0 0 -2.01867e-13 -2.03971e-13 -1.52685e-13 3.88394e-14 0 0 -2.07442e-13 -7.48232e-14 -1.82088e-13 -2.05853e-13 0 0 -1.17374e-13 -1.2459e-13 -2.28529e-14 -5.38937e-13 0 0 -8.49957e-14 -1.09468e-13 -8.75192e-14 -4.67541e-13 0 0 -1.44371e-13 -2.40938e-14 -4.44768e-13 -2.40729e-13 0 0 -1.79743e-13 -1.38768e-13 -4.70636e-13 -1.50368e-13 0 0 -1.65856e-13 -3.41115e-13 -4.20948e-13 5.6585e-14 0 0 -1.40415e-13 -5.46024e-13 -2.50195e-13 -9.66316e-14 0 0 -2.20327e-13 -4.54171e-13 -3.48064e-13 -2.35229e-13 0 0 -2.62403e-13 -3.5327e-13 -5.42408e-13 -1.56059e-13 0 0 -1.80425e-13 -4.8449e-13 -4.55132e-13 -2.47859e-13 0 0 -2.35656e-13 -4.7726e-13 -3.60027e-13 -4.48236e-13 0 0 -2.51418e-13 -5.24831e-13 -3.19448e-13 -4.54599e-13 0 0 -2.19196e-13 -5.44318e-13 -4.21264e-13 -2.70552e-13 0 0 -2.48727e-13 -4.7818e-13 -5.4965e-13 -8.2906e-14 0 0 -2.75656e-13 -4.5358e-13 -5.8204e-13 -4.42309e-14 0 0 -2.55721e-13 -5.14096e-13 -4.89202e-13 -1.13018e-13 0 0 -2.52191e-13 -5.12606e-13 -4.38829e-13 -1.86162e-13 0 0 -2.66034e-13 -4.92815e-13 -3.35302e-13 -3.19639e-13 0 0 -3.16689e-13 -3.60469e-13 -4.63252e-13 -2.83279e-13 0 0 -3.44176e-13 -2.13853e-13 -7.20239e-13 -9.10554e-14 0 0 -2.57109e-13 -2.60073e-13 -6.91604e-13 -4.31556e-14 0 0 -9.64219e-14 -4.18812e-13 -5.50924e-13 -4.5269e-14 0 0 -6.39316e-14 -4.5084e-13 -5.13909e-13 -8.66796e-14 0 0 -1.74747e-13 -3.14888e-13 -5.19899e-13 -2.10262e-13 0 0 -8.66246e-14 -4.55384e-13 -3.26e-13 -3.26151e-13 0 0 -2.95271e-14 -5.52409e-13 -1.70298e-13 -3.95772e-13 0 0 -1.42252e-13 -3.98315e-13 -1.9745e-13 -4.30967e-13 0 0 -1.8702e-13 -3.4469e-13 -1.81507e-13 -4.64416e-13 0 0 -3.04777e-13 -1.69361e-13 -3.07186e-13 -3.17648e-13 0 0 -3.1075e-13 -1.33367e-13 -3.59039e-13 -1.29243e-13 0 0 -1.83782e-13 -3.39656e-13 -5.41661e-14 -2.97553e-13 0 0 -3.55921e-13 -8.987e-14 -2.07059e-13 -2.32471e-13 0 0 -6.29704e-13 3.27972e-13 -5.21001e-13 -1.30448e-13 0 0 -4.33411e-13 -2.81254e-14 -1.22053e-13 -2.76823e-13 0 0 -3.36899e-13 -2.52408e-13 -5.97706e-14 -4.9537e-14 0 0 -4.49001e-13 -8.37345e-14 -4.8091e-13 3.04554e-13 0 0 -3.7002e-13 -1.65147e-13 -5.76081e-13 4.19554e-13 0
				</DataArray>
				<DataArray Name="VitesseY" type="Float32" format="ascii">