<?xml version="1.0"?>
<VTKFile type="PolyData">
	<PolyData>
		<Piece NumberOfPoints="1206" NumberOfPolys="1000">
			<Points>
				<DataArray type="Float32" NumberOfComponents="3" format="ascii">
 0 0 0 0.02 0 0 0.04 0 0 0.06 0 0 0.08 0 0 0.1 0 0 0 0.005 0 0.02 0.005 0 0.04 0.005 0 0.06 0.005 0 0.08 0.005 0 0.1 0.005 0 0 0.01 0 0.02 0.01 0 0.04 0.01 0 0.06 0.01 0 0.08 0.01 0 0.1 0.01 0 0 0.015 0 0.02 0.015 0 0.04 0.015 0 0.06 0.015 0 0.08 0.015 0 0.1 0.015 0 0 0.02 0 0.02 0.02 0 0.04 0.02 0 0.06 0.02 0 0.08 0.02 0 0.1 0.02 0 0 0.025 0 0.02 0.025 0 0.04 0.025 0 0.06 0.025 0 0.08 0.025 0 0.1 0.025 0 0 0.03 0 0.02 0.03 0 0.04 0.03 0 0.06 0.03 0 0.08 0.03 0 0.1 0.03 0 0 0.035 0 0.02 0.035 0 0.04 0.035 0 0.06 0.035 0 0.08 0.035 0 0.1 0.035 0 0 0.04 0 0.02 0.04 0 0.04 0.04 0 0.06 0.04 0 0.08 0.04 0 0.1 0.04 0 0 0.045 0 0.02 0.045 0 0.04 0.045 0 0.06 0.045 0 0.08 0.045 0 0.1 0.045 0 0 0.05 0 0.02 0.05 0 0.04 0.05 0 0.06 0.05 0 0.08 0.05 0 0.1 0.05 0 0 0.055 0 0.02 0.055 0 0.04 0.055 0 0.06 0.055 0 0.08 0.055 0 0.1 0.055 0 0 0.06 0 0.02 0.06 0 0.04 0.06 0 0.06 0.06 0 0.08 0.06 0 0.1 0.06 0 0 0.065 0 0.02 0.065 0 0.04 0.065 0 0.06 0.065 0 0.08 0.065 0 0.1 0.065 0 0 0.07 0 0.02 0.07 0 0.04 0.07 0 0.06 0.07 0 0.08 0.07 0 0.1 0.07 0 0 0.075 0 0.02 0.075 0 0.04 0.075 0 0.06 0.075 0 0.08 0.075 0 0.1 0.075 0 0 0.08 0 0.02 0.08 0 0.04 0.08 0 0.06 0.08 0 0.08 0.08 0 0.1 0.08 0 0 0.085 0 0.02 0.085 0 0.04 0.085 0 0.06 0.085 0 0.08 0.085 0 0.1 0.085 0 0 0.09 0 0.02 0.09 0 0.04 0.09 0 0.06 0.09 0 0.08 0.09 0 0.1 0.09 0 0 0.095 0 0.02 0.095 0 0.04 0.095 0 0.06 0.095 0 0.08 0.095 0 0.1 0.095 0 0 0.1 0 0.02 0.1 0 0.04 0.1 0 0.06 0.1 0 0.08 0.1 0 0.1 0.1 0 0 0.105 0 0.02 0.105 0 0.04 0.105 0 0.06 0.105 0 0.08 0.105 0 0.1 0.105 0 0 0.11 0 0.02 0.11 0 0.04 0.11 0 0.06 0.11 0 0.08 0.11 0 0.1 0.11 0 0 0.115 0 0.02 0.115 0 0.04 0.115 0 0.06 0.115 0 0.08 0.115 0 0.1 0.115 0 0 0.12 0 0.02 0.12 0 0.04 0.12 0 0.06 0.12 0 0.08 0.12 0 0.1 0.12 0 0 0.125 0 0.02 0.125 0 0.04 0.125 0 0.06 0.125 0 0.08 0.125 0 0.1 0.125 0 0 0.13 0 0.02 0.13 0 0.04 0.13 0 0.06 0.13 0 0.08 0.13 0 0.1 0.13 0 0 0.135 0 0.02 0.135 0 0.04 0.135 0 0.06 0.135 0 0.08 0.135 0 0.1 0.135 0 0 0.14 0 0.02 0.14 0 0.04 0.14 0 0.06 0.14 0 0.08 0.14 0 0.1 0.14 0 0 0.145 0 0.02 0.145 0 0.04 0.145 0 0.06 0.145 0 0.08 0.145 0 0.1 0.145 0 0 0.15 0 0.02 0.15 0 0.04 0.15 0 0.06 0.15 0 0.08 0.15 0 0.1 0.15 0 0 0.155 0 0.02 0.155 0 0.04 0.155 0 0.06 0.155 0 0.08 0.155 0 0.1 0.155 0 0 0.16 0 0.02 0.16 0 0.04 0.16 0 0.06 0.16 0 0.08 0.16 0 0.1 0.16 0 0 0.165 0 0.02 0.165 0 0.04 0.165 0 0.06 0.165 0 0.08 0.165 0 0.1 0.165 0 0 0.17 0 0.02 0.17 0 0.04 0.17 0 0.06 0.17 0 0.08 0.17 0 0.1 0.17 0 0 0.175 0 0.02 0.175 0 0.04 0.175 0 0.06 0.175 0 0.08 0.175 0 0.1 0.175 0 0 0.18 0 0.02 0.18 0 0.04 0.18 0 0.06 0.18 0 0.08 0.18 0 0.1 0.18 0 0 0.185 0 0.02 0.185 0 0.04 0.185 0 0.06 0.185 0 0.08 0.185 0 0.1 0.185 0 0 0.19 0 0.02 0.19 0 0.04 0.19 0 0.06 0.19 0 0.08 0.19 0 0.1 0.19 0 0 0.195 0 0.02 0.195 0 0.04 0.195 0 0.06 0.195 0 0.08 0.195 0 0.1 0.195 0 0 0.2 0 0.02 0.2 0 0.04 0.2 0 0.06 0.2 0 0.08 0.2 0 0.1 0.2 0 0 0.205 0 0.02 0.205 0 0.04 0.205 0 0.06 0.205 0 0.08 0.205 0 0.1 0.205 0 0 0.21 0 0.02 0.21 0 0.04 0.21 0 0.06 0.21 0 0.08 0.21 0 0.1 0.21 0 0 0.215 0 0.02 0.215 0 0.04 0.215 0 0.06 0.215 0 0.08 0.215 0 0.1 0.215 0 0 0.22 0 0.02 0.22 0 0.04 0.22 0 0.06 0.22 0 0.08 0.22 0 0.1 0.22 0 0 0.225 0 0.02 0.225 0 0.04 0.225 0 0.06 0.225 0 0.08 0.225 0 0.1 0.225 0 0 0.23 0 0.02 0.23 0 0.04 0.23 0 0.06 0.23 0 0.08 0.23 0 0.1 0.23 0 0 0.235 0 0.02 0.235 0 0.04 0.235 0 0.06 0.235 0 0.08 0.235 0 0.1 0.235 0 0 0.24 0 0.02 0.24 0 0.04 0.24 0 0.06 0.24 0 0.08 0.24 0 0.1 0.24 0 0 0.245 0 0.02 0.245 0 0.04 0.245 0 0.06 0.245 0 0.08 0.245 0 0.1 0.245 0 0 0.25 0 0.02 0.25 0 0.04 0.25 0 0.06 0.25 0 0.08 0.25 0 0.1 0.25 0 0 0.255 0 0.02 0.255 0 0.04 0.255 0 0.06 0.255 0 0.08 0.255 0 0.1 0.255 0 0 0.26 0 0.02 0.26 0 0.04 0.26 0 0.06 0.26 0 0.08 0.26 0 0.1 0.26 0 0 0.265 0 0.02 0.265 0 0.04 0.265 0 0.06 0.265 0 0.08 0.265 0 0.1 0.265 0 0 0.27 0 0.02 0.27 0 0.04 0.27 0 0.06 0.27 0 0.08 0.27 0 0.1 0.27 0 0 0.275 0 0.02 0.275 0 0.04 0.275 0 0.06 0.275 0 0.08 0.275 0 0.1 0.275 0 0 0.28 0 0.02 0.28 0 0.04 0.28 0 0.06 0.28 0 0.08 0.28 0 0.1 0.28 0 0 0.285 0 0.02 0.285 0 0.04 0.285 0 0.06 0.285 0 0.08 0.285 0 0.1 0.285 0 0 0.29 0 0.02 0.29 0 0.04 0.29 0 0.06 0.29 0 0.08 0.29 0 0.1 0.29 0 0 0.295 0 0.02 0.295 0 0.04 0.295 0 0.06 0.295 0 0.08 0.295 0 0.1 0.295 0 0 0.3 0 0.02 0.3 0 0.04 0.3 0 0.06 0.3 0 0.08 0.3 0 0.1 0.3 0 0 0.305 0 0.02 0.305 0 0.04 0.305 0 0.06 0.305 0 0.08 0.305 0 0.1 0.305 0 0 0.31 0 0.02 0.31 0 0.04 0.31 0 0.06 0.31 0 0.08 0.31 0 0.1 0.31 0 0 0.315 0 0.02 0.315 0 0.04 0.315 0 0.06 0.315 0 0.08 0.315 0 0.1 0.315 0 0 0.32 0 0.02 0.32 0 0.04 0.32 0 0.06 0.32 0 0.08 0.32 0 0.1 0.32 0 0 0.325 0 0.02 0.325 0 0.04 0.325 0 0.06 0.325 0 0.08 0.325 0 0.1 0.325 0 0 0.33 0 0.02 0.33 0 0.04 0.33 0 0.06 0.33 0 0.08 0.33 0 0.1 0.33 0 0 0.335 0 0.02 0.335 0 0.04 0.335 0 0.06 0.335 0 0.08 0.335 0 0.1 0.335 0 0 0.34 0 0.02 0.34 0 0.04 0.34 0 0.06 0.34 0 0.08 0.34 0 0.1 0.34 0 0 0.345 0 0.02 0.345 0 0.04 0.345 0 0.06 0.345 0 0.08 0.345 0 0.1 0.345 0 0 0.35 0 0.02 0.35 0 0.04 0.35 0 0.06 0.35 0 0.08 0.35 0 0.1 0.35 0 0 0.355 0 0.02 0.355 0 0.04 0.355 0 0.06 0.355 0 0.08 0.355 0 0.1 0.355 0 0 0.36 0 0.02 0.36 0 0.04 0.36 0 0.06 0.36 0 0.08 0.36 0 0.1 0.36 0 0 0.365 0 0.02 0.365 0 0.04 0.365 0 0.06 0.365 0 0.08 0.365 0 0.1 0.365 0 0 0.37 0 0.02 0.37 0 0.04 0.37 0 0.06 0.37 0 0.08 0.37 0 0.1 0.37 0 0 0.375 0 0.02 0.375 0 0.04 0.375 0 0.06 0.375 0 0.08 0.375 0 0.1 0.375 0 0 0.38 0 0.02 0.38 0 0.04 0.38 0 0.06 0.38 0 0.08 0.38 0 0.1 0.38 0 0 0.385 0 0.02 0.385 0 0.04 0.385 0 0.06 0.385 0 0.08 0.385 0 0.1 0.385 0 0 0.39 0 0.02 0.39 0 0.04 0.39 0 0.06 0.39 0 0.08 0.39 0 0.1 0.39 0 0 0.395 0 0.02 0.395 0 0.04 0.395 0 0.06 0.395 0 0.08 0.395 0 0.1 0.395 0 0 0.4 0 0.02 0.4 0 0.04 0.4 0 0.06 0.4 0 0.08 0.4 0 0.1 0.4 0 0 0.405 0 0.02 0.405 0 0.04 0.405 0 0.06 0.405 0 0.08 0.405 0 0.1 0.405 0 0 0.41 0 0.02 0.41 0 0.04 0.41 0 0.06 0.41 0 0.08 0.41 0 0.1 0.41 0 0 0.415 0 0.02 0.415 0 0.04 0.415 0 0.06 0.415 0 0.08 0.415 0 0.1 0.415 0 0 0.42 0 0.02 0.42 0 0.04 0.42 0 0.06 0.42 0 0.08 0.42 0 0.1 0.42 0 0 0.425 0 0.02 0.425 0 0.04 0.425 0 0.06 0.425 0 0.08 0.425 0 0.1 0.425 0 0 0.43 0 0.02 0.43 0 0.04 0.43 0 0.06 0.43 0 0.08 0.43 0 0.1 0.43 0 0 0.435 0 0.02 0.435 0 0.04 0.435 0 0.06 0.435 0 0.08 0.435 0 0.1 0.435 0 0 0.44 0 0.02 0.44 0 0.04 0.44 0 0.06 0.44 0 0.08 0.44 0 0.1 0.44 0 0 0.445 0 0.02 0.445 0 0.04 0.445 0 0.06 0.445 0 0.08 0.445 0 0.1 0.445 0 0 0.45 0 0.02 0.45 0 0.04 0.45 0 0.06 0.45 0 0.08 0.45 0 0.1 0.45 0 0 0.455 0 0.02 0.455 0 0.04 0.455 0 0.06 0.455 0 0.08 0.455 0 0.1 0.455 0 0 0.46 0 0.02 0.46 0 0.04 0.46 0 0.06 0.46 0 0.08 0.46 0 0.1 0.46 0 0 0.465 0 0.02 0.465 0 0.04 0.465 0 0.06 0.465 0 0.08 0.465 0 0.1 0.465 0 0 0.47 0 0.02 0.47 0 0.04 0.47 0 0.06 0.47 0 0.08 0.47 0 0.1 0.47 0 0 0.475 0 0.02 0.475 0 0.04 0.475 0 0.06 0.475 0 0.08 0.475 0 0.1 0.475 0 0 0.48 0 0.02 0.48 0 0.04 0.48 0 0.06 0.48 0 0.08 0.48 0 0.1 0.48 0 0 0.485 0 0.02 0.485 0 0.04 0.485 0 0.06 0.485 0 0.08 0.485 0 0.1 0.485 0 0 0.49 0 0.02 0.49 0 0.04 0.49 0 0.06 0.49 0 0.08 0.49 0 0.1 0.49 0 0 0.495 0 0.02 0.495 0 0.04 0.495 0 0.06 0.495 0 0.08 0.495 0 0.1 0.495 0 0 0.5 0 0.02 0.5 0 0.04 0.5 0 0.06 0.5 0 0.08 0.5 0 0.1 0.5 0 0 0.505 0 0.02 0.505 0 0.04 0.505 0 0.06 0.505 0 0.08 0.505 0 0.1 0.505 0 0 0.51 0 0.02 0.51 0 0.04 0.51 0 0.06 0.51 0 0.08 0.51 0 0.1 0.51 0 0 0.515 0 0.02 0.515 0 0.04 0.515 0 0.06 0.515 0 0.08 0.515 0 0.1 0.515 0 0 0.52 0 0.02 0.52 0 0.04 0.52 0 0.06 0.52 0 0.08 0.52 0 0.1 0.52 0 0 0.525 0 0.02 0.525 0 0.04 0.525 0 0.06 0.525 0 0.08 0.525 0 0.1 0.525 0 0 0.53 0 0.02 0.53 0 0.04 0.53 0 0.06 0.53 0 0.08 0.53 0 0.1 0.53 0 0 0.535 0 0.02 0.535 0 0.04 0.535 0 0.06 0.535 0 0.08 0.535 0 0.1 0.535 0 0 0.54 0 0.02 0.54 0 0.04 0.54 0 0.06 0.54 0 0.08 0.54 0 0.1 0.54 0 0 0.545 0 0.02 0.545 0 0.04 0.545 0 0.06 0.545 0 0.08 0.545 0 0.1 0.545 0 0 0.55 0 0.02 0.55 0 0.04 0.55 0 0.06 0.55 0 0.08 0.55 0 0.1 0.55 0 0 0.555 0 0.02 0.555 0 0.04 0.555 0 0.06 0.555 0 0.08 0.555 0 0.1 0.555 0 0 0.56 0 0.02 0.56 0 0.04 0.56 0 0.06 0.56 0 0.08 0.56 0 0.1 0.56 0 0 0.565 0 0.02 0.565 0 0.04 0.565 0 0.06 0.565 0 0.08 0.565 0 0.1 0.565 0 0 0.57 0 0.02 0.57 0 0.04 0.57 0 0.06 0.57 0 0.08 0.57 0 0.1 0.57 0 0 0.575 0 0.02 0.575 0 0.04 0.575 0 0.06 0.575 0 0.08 0.575 0 0.1 0.575 0 0 0.58 0 0.02 0.58 0 0.04 0.58 0 0.06 0.58 0 0.08 0.58 0 0.1 0.58 0 0 0.585 0 0.02 0.585 0 0.04 0.585 0 0.06 0.585 0 0.08 0.585 0 0.1 0.585 0 0 0.59 0 0.02 0.59 0 0.04 0.59 0 0.06 0.59 0 0.08 0.59 0 0.1 0.59 0 0 0.595 0 0.02 0.595 0 0.04 0.595 0 0.06 0.595 0 0.08 0.595 0 0.1 0.595 0 0 0.6 0 0.02 0.6 0 0.04 0.6 0 0.06 0.6 0 0.08 0.6 0 0.1 0.6 0 0 0.605 0 0.02 0.605 0 0.04 0.605 0 0.06 0.605 0 0.08 0.605 0 0.1 0.605 0 0 0.61 0 0.02 0.61 0 0.04 0.61 0 0.06 0.61 0 0.08 0.61 0 0.1 0.61 0 0 0.615 0 0.02 0.615 0 0.04 0.615 0 0.06 0.615 0 0.08 0.615 0 0.1 0.615 0 0 0.62 0 0.02 0.62 0 0.04 0.62 0 0.06 0.62 0 0.08 0.62 0 0.1 0.62 0 0 0.625 0 0.02 0.625 0 0.04 0.625 0 0.06 0.625 0 0.08 0.625 0 0.1 0.625 0 0 0.63 0 0.02 0.63 0 0.04 0.63 0 0.06 0.63 0 0.08 0.63 0 0.1 0.63 0 0 0.635 0 0.02 0.635 0 0.04 0.635 0 0.06 0.635 0 0.08 0.635 0 0.1 0.635 0 0 0.64 0 0.02 0.64 0 0.04 0.64 0 0.06 0.64 0 0.08 0.64 0 0.1 0.64 0 0 0.645 0 0.02 0.645 0 0.04 0.645 0 0.06 0.645 0 0.08 0.645 0 0.1 0.645 0 0 0.65 0 0.02 0.65 0 0.04 0.65 0 0.06 0.65 0 0.08 0.65 0 0.1 0.65 0 0 0.655 0 0.02 0.655 0 0.04 0.655 0 0.06 0.655 0 0.08 0.655 0 0.1 0.655 0 0 0.66 0 0.02 0.66 0 0.04 0.66 0 0.06 0.66 0 0.08 0.66 0 0.1 0.66 0 0 0.665 0 0.02 0.665 0 0.04 0.665 0 0.06 0.665 0 0.08 0.665 0 0.1 0.665 0 0 0.67 0 0.02 0.67 0 0.04 0.67 0 0.06 0.67 0 0.08 0.67 0 0.1 0.67 0 0 0.675 0 0.02 0.675 0 0.04 0.675 0 0.06 0.675 0 0.08 0.675 0 0.1 0.675 0 0 0.68 0 0.02 0.68 0 0.04 0.68 0 0.06 0.68 0 0.08 0.68 0 0.1 0.68 0 0 0.685 0 0.02 0.685 0 0.04 0.685 0 0.06 0.685 0 0.08 0.685 0 0.1 0.685 0 0 0.69 0 0.02 0.69 0 0.04 0.69 0 0.06 0.69 0 0.08 0.69 0 0.1 
[...]
			<PointData Scalars="VitesseX">
				<DataArray Name="VitesseX" type="Float32" format="ascii">
 0 1.67015e-15 5.83329e-14 3.37782e-14 5.27081e-15 0 0 1.41424e-14 4.30912e-14 4.0914e-14 3.97965e-15 0 0 2.19962e-14 3.77473e-14 2.94237e-14 1.71506e-14 0 0 3.78767e-14 1.33517e-14 3.79944e-14 1.59187e-14 0 0 3.76199e-14 5.03375e-15 3.65267e-14 1.39514e-14 0 0 1.33498e-14 2.82929e-14 9.5959e-15 2.89514e-14 0 0 -1.13836e-15 4.28806e-14 -8.03454e-15 4.49277e-14 0 0 1.21491e-16 3.76592e-14 3.32676e-15 3.80347e-14 0 0 1.40689e-14 2.1461e-14 2.06564e-14 2.67206e-14 0 0 1.42739e-14 2.42274e-14 1.80508e-14 2.54197e-14 0 0 1.91642e-14 6.55205e-15 5.16603e-14 -3.2493e-15 0 0 1.22658e-14 1.17084e-14 4.87225e-14 -4.04243e-15 0 0 2.93479e-14 -1.08805e-14 6.90461e-14 -2.15639e-14 0 0 -2.15541e-15 4.70011e-14 1.53684e-14 1.13888e-14 0 0 -2.36195e-14 8.76187e-14 -2.52273e-14 4.40037e-14 0 0 1.9639e-14 3.27413e-14 2.24812e-14 2.50175e-14 0 0 3.00721e-14 1.56228e-14 4.30278e-14 3.58383e-14 0 0 3.94964e-14 5.40969e-15 6.56026e-14 4.2157e-14 0 0 2.21948e-14 6.37666e-14 8.32198e-15 8.75408e-14 0 0 5.34253e-14 5.47794e-14 1.1384e-14 8.72379e-14 0 0 5.51864e-14 6.98928e-14 9.70094e-15 6.98386e-14 0 0 1.91536e-14 1.08273e-13 3.61312e-15 4.58396e-14 0 0 5.92354e-14 4.61254e-14 7.91896e-14 -2.27598e-14 0 0 8.08257e-14 1.56825e-14 1.22217e-13 -6.66998e-14 0 0 4.72096e-14 6.66255e-14 8.31102e-14 -6.482e-14 0 0 8.74498e-15 1.40503e-13 1.40117e-14 -5.36058e-14 0 0 3.7451e-14 8.75552e-14 6.72122e-14 -9.40031e-14 0 0 1.35812e-14 1.13366e-13 3.0686e-14 -5.70071e-14 0 0 -6.06565e-15 1.58092e-13 -4.55133e-14 1.1663e-14 0 0 5.20049e-14 6.68787e-14 -7.41443e-16 8.948e-15 0 0 6.28911e-14 2.7898e-14 2.04299e-14 1.63821e-14 0 0 6.01095e-14 3.48812e-14 2.06728e-14 2.35387e-14 0 0 5.23936e-14 4.49105e-14 5.11045e-14 -3.51255e-15 0 0 4.782e-14 4.56046e-14 1.00779e-13 -3.0709e-14 0 0 4.31772e-14 5.87416e-14 1.06361e-13 -3.93643e-15 0 0 2.24143e-14 1.02041e-13 5.97421e-14 7.05917e-14 0 0 4.81082e-14 6.79777e-14 8.00084e-14 9.03161e-14 0 0 3.37178e-14 7.68504e-14 8.99838e-14 1.09491e-13 0 0 5.25665e-14 5.66759e-14 9.76862e-14 1.21761e-13 0 0 6.24048e-14 5.34482e-14 1.2897e-13 4.4567e-14 0 0 4.22138e-14 9.66656e-14 9.75721e-14 1.47444e-14 0 0 1.93354e-14 1.02694e-13 6.9773e-14 2.16636e-14 0 0 -5.13519e-14 1.1358e-13 1.29383e-13 -3.23076e-14 0 0 -1.31738e-13 1.97601e-13 4.62121e-14 6.36368e-14 0 0 -1.24094e-13 1.77266e-13 4.32411e-14 1.03712e-13 0 0 -4.0595e-14 4.50636e-15 2.49065e-13 -5.05656e-14 0 0 -1.54335e-14 -5.92016e-14 3.19669e-13 -8.82421e-14 0 0 -3.38863e-14 -1.5842e-14 2.69316e-13 -1.34683e-14 0 0 -9.24774e-14 1.2548e-13 1.22697e-13 7.31114e-14 0 0 -2.05654e-13 3.30795e-13 -7.41549e-14 1.5227e-13 0 0 -2.80738e-13 4.02012e-13 -1.27406e-13 1.68529e-13 0 0 -1.62279e-13 2.10209e-13 3.75557e-14 7.17898e-14 0 0 -9.50474e-14 1.64688e-13 4.08038e-14 9.16781e-14 0 0 -4.21207e-14 4.20453e-14 1.84242e-13 2.15399e-14 0 0 -1.18102e-13 8.83329e-14 2.68602e-13 -9.19375e-14 0 0 -2.66656e-13 3.29226e-13 1.23475e-13 -5.19812e-14 0 0 -1.22044e-13 1.58016e-13 2.23983e-13 -5.51126e-14 0 0 -4.66924e-14 1.2437e-13 1.61599e-13 5.0169e-14 0 0 -5.80101e-14 1.80719e-13 9.53839e-14 6.78135e-14 0 0 -4.2638e-14 1.79612e-13 1.11012e-13 4.97391e-15 0 0 -5.90729e-14 2.41519e-13 4.27346e-14 3.06401e-14 0 0 1.23914e-15 1.43879e-13 1.62016e-13 -6.21924e-14 0 0 3.35566e-14 1.24944e-13 1.91989e-13 -5.60902e-14 0 0 4.13595e-14 1.79504e-13 9.91016e-14 7.00865e-14 0 0 5.15463e-14 2.25996e-13 -2.84264e-14 2.14211e-13 0 0 8.79661e-14 1.53865e-13 6.2916e-15 2.42635e-13 0 0 9.15245e-14 5.51921e-14 2.12537e-13 1.06398e-13 0 0 1.71814e-14 2.13322e-13 1.14114e-13 1.77858e-13 0 0 -1.40941e-14 3.54721e-13 4.61041e-14 2.02374e-13 0 0 4.29449e-14 2.60641e-13 2.58642e-13 7.91354e-15 0 0 -8.61193e-14 3.22506e-13 2.36431e-13 2.66859e-14 0 0 -1.47975e-13 2.24453e-13 3.59798e-13 5.08617e-14 0 0 -2.50868e-13 3.60729e-13 2.47987e-13 2.16679e-13 0 0 -3.07261e-13 4.112e-13 2.43311e-13 2.55714e-13 0 0 -2.57121e-13 3.09852e-13 3.44638e-13 2.28917e-13 0 0 -1.15459e-13 2.00573e-13 3.51543e-13 1.75516e-13 0 0 -8.96947e-14 1.44001e-13 4.6369e-13 -7.27429e-14 0 0 -4.39999e-13 7.53524e-13 -9.04861e-14 2.52397e-13 0 0 -1.1287e-13 3.52997e-13 1.36526e-13 3.56331e-13 0 0 -2.54499e-13 3.44806e-13 3.44404e-13 2.85575e-13 0 0 -4.99211e-13 6.44943e-13 3.91185e-13 9.49269e-14 0 0 8.58348e-14 5.84987e-14 9.43492e-13 -3.32537e-13 0 0 3.31676e-13 1.33304e-13 7.18911e-13 -2.38428e-13 0 0 2.87795e-13 4.16538e-13 2.02919e-13 1.42035e-13 0 0 4.38107e-13 4.06127e-13 6.22517e-14 2.64235e-13 0 0 3.60341e-13 4.63301e-13 2.39611e-13 1.0668e-14 0 0 2.51596e-13 6.47048e-13 2.07233e-13 -1.82982e-13 0 0 3.01678e-13 5.41258e-13 4.23663e-13 -4.43841e-13 0 0 4.50082e-13 3.73158e-13 5.24801e-13 -4.03529e-13 0 0 4.24165e-13 4.73604e-13 4.18631e-13 -2.44833e-13 0 0 1.83504e-13 8.60882e-13 5.40854e-14 1.24015e-13 0 0 2.10583e-13 8.81046e-13 -2.34701e-13 5.28429e-13 0 0 3.87513e-13 7.39509e-13 -2.3405e-13 6.22728e-13 0 0 6.2173e-13 4.49759e-13 -1.17338e-14 4.80385e-13 0 0 8.87552e-13 -2.40163e-14 4.50584e-13 1.46755e-13 0 0 8.53195e-13 -1.48676e-13 7.07009e-13 -4.43529e-14 0 0 7.46803e-13 -9.79541e-14 6.8463e-13 -1.95903e-14 0 0 5.6674e-13 1.01387e-13 5.10846e-13 1.0377e-13 0 0 2.84752e-13 5.18735e-13 1.80845e-13 2.87014e-13 0 0 -1.22192e-13 1.06526e-12 -2.97461e-13 4.25261e-13 0 0 -3.01999e-13 1.25201e-12 -4.4019e-13 3.85813e-13 0 0 -2.09331e-13 1.10708e-12 -3.01131e-13 1.72276e-13 0 0 1.70887e-13 5.73682e-13 1.51456e-13 -1.94254e-13 0 0 5.86316e-13 -3.83184e-14 7.23287e-13 -4.52859e-13 0 0 7.04488e-13 -1.68707e-13 7.57331e-13 -4.01893e-13 0 0 6.7158e-13 -1.37866e-13 6.61886e-13 -2.2994e-13 0 0 4.38664e-13 -7.06741e-15 6.29989e-13 -1.7086e-13 0 0 5.09084e-14 1.99605e-13 6.07438e-13 -1.80864e-13 0 0 -1.65247e-13 3.46812e-13 5.74229e-13 -1.94548e-13 0 0 -2.07744e-13 3.61215e-13 5.50686e-13 -1.7506e-13 0 0 -1.95116e-13 3.34871e-13 5.08951e-13 -1.27984e-13 0 0 -1.3426e-13 3.16169e-13 4.04339e-13 -5.80104e-15 0 0 -1.71228e-14 2.88586e-13 2.95525e-13 1.32293e-13 0 0 5.76559e-14 3.11435e-13 1.42227e-13 2.64371e-13 0 0 7.9221e-14 3.42377e-13 9.96342e-14 2.62525e-13 0 0 1.17077e-13 2.99102e-13 1.33192e-13 2.46759e-13 0 0 1.39659e-13 2.33141e-13 1.83989e-13 2.8896e-13 0 0 1.20373e-13 1.83342e-13 2.85835e-13 2.85099e-13 0 0 7.23335e-14 1.63304e-13 3.63033e-13 2.81209e-13 0 0 3.08048e-14 1.53284e-13 3.65014e-13 3.1636e-13 0 0 3.57526e-14 1.06761e-13 3.8365e-13 3.56614e-13 0 0 1.86357e-14 1.37804e-13 3.7026e-13 3.35363e-13 0 0 2.79993e-14 1.8226e-13 3.23171e-13 2.8323e-13 0 0 7.47835e-14 1.33381e-13 3.37071e-13 1.95633e-13 0 0 1.24366e-13 1.32916e-13 2.70381e-13 2.10778e-13 0 0 1.12056e-13 1.69668e-13 2.45364e-13 1.77779e-13 0 0 1.13941e-13 1.61451e-13 3.20486e-13 -4.84183e-15 0 0 1.13121e-13 1.83599e-13 3.05215e-13 -8.15881e-14 0 0 7.98255e-14 2.64288e-13 1.75738e-13 -3.06212e-15 0 0 5.9992e-14 2.78749e-13 1.32628e-13 8.25912e-14 0 0 6.01654e-14 2.39882e-13 1.90385e-13 1.55438e-13 0 0 8.30892e-14 2.35692e-13 1.78616e-13 2.52353e-13 0 0 1.10551e-13 2.80386e-13 1.50756e-13 2.42446e-13 0 0 6.91032e-14 3.53895e-13 2.02564e-13 2.31593e-13 0 0 5.27882e-14 5.22948e-13 1.23957e-13 2.73976e-13 0 0 1.71383e-13 4.3553e-13 2.82541e-13 1.35147e-13 0 0 2.25558e-13 4.54002e-13 2.69039e-13 1.98012e-13 0 0 1.90511e-13 6.4614e-13 8.43259e-14 3.35481e-13 0 0 2.8968e-13 4.76723e-13 3.63994e-13 1.52906e-13 0 0 3.57904e-13 3.72037e-13 4.97843e-13 4.30041e-14 0 0 3.38137e-13 4.02698e-13 4.73227e-13 4.88592e-14 0 0 3.30351e-13 4.15421e-13 4.49486e-13 8.95001e-14 0 0 2.08368e-13 5.98544e-13 2.59189e-13 2.08445e-13 0 0 2.1266e-13 6.32112e-13 1.62905e-13 3.0122e-13 0 0 4.34898e-13 2.90204e-13 4.57461e-13 1.15314e-13 0 0 4.70022e-13 2.36407e-13 5.1778e-13 1.36199e-14 0 0 3.54906e-13 4.39827e-13 3.50824e-13 6.22828e-14 0 0 2.18106e-13 6.35296e-13 1.40205e-13 2.44726e-13 0 0 2.09446e-13 6.25797e-13 9.21825e-14 3.72065e-13 0 0 3.68343e-13 3.77579e-13 2.99984e-13 2.34573e-13 0 0 3.61754e-13 3.69631e-13 3.20593e-13 2.00242e-13 0 0 1.84888e-13 6.26071e-13 1.21827e-13 2.73719e-13 0 0 1.77561e-13 6.97532e-13 4.10838e-14 2.75075e-13 0 0 3.69672e-13 4.85594e-13 2.22501e-13 2.2591e-13 0 0 5.1308e-13 3.96403e-13 2.77261e-13 2.60646e-13 0 0 4.30343e-13 5.50829e-13 2.86156e-13 2.21774e-13 0 0 1.52095e-13 8.91087e-13 2.11504e-13 2.21073e-13 0 0 2.11377e-13 8.65589e-13 2.46479e-13 3.22063e-13 0 0 4.17675e-13 6.87801e-13 4.02436e-13 3.39876e-13 0 0 6.57211e-13 4.693e-13 5.33421e-13 3.55665e-13 0 0 7.23888e-13 4.85422e-13 5.22326e-13 2.69193e-13 0 0 3.48297e-13 1.01534e-12 2.58125e-13 1.35776e-13 0 0 2.37182e-13 1.00199e-12 4.68579e-13 9.9516e-15 0 0 5.11155e-13 5.61043e-13 8.89221e-13 -2.22527e-13 0 0 6.37968e-13 5.85839e-13 6.20056e-13 6.80796e-14 0 0 6.12058e-13 6.40885e-13 4.86088e-13 3.53134e-13 0 0 5.18341e-13 6.44127e-13 6.67425e-13 1.31657e-13 0 0 2.64305e-13 8.73267e-13 6.2133e-13 3.89953e-14 0 0 3.5877e-13 6.02897e-13 8.65514e-13 -9.44293e-14 0 0 4.75244e-13 6.2667e-13 6.41154e-13 9.64955e-14 0 0 5.43929e-13 6.08285e-13 5.82392e-13 1.97577e-13 0 0 6.61225e-13 3.18006e-13 8.58874e-13 1.28436e-13 0 0 3.53847e-13 7.71206e-13 3.92191e-13 3.94395e-13 0 0 3.0345e-13 7.24842e-13 5.7e-13 2.0581e-13 0 0 3.39738e-13 5.67412e-13 8.1964e-13 6.78461e-14 0 0 2.14534e-13 8.1452e-13 4.86121e-13 3.05023e-13 0 0 3.65194e-13 6.83373e-13 5.65405e-13 2.02553e-13 0 0 4.46992e-13 5.92191e-13 6.31556e-13 5.49759e-14 0 0 4.22682e-13 5.18876e-13 7.1223e-13 -4.59996e-14 0 0 2.97671e-13 6.38923e-13 4.95505e-13 1.07761e-13 0 0 4.17554e-13 4.98416e-13 6.06342e-13 -1.16409e-14 0 0 5.13628e-13 4.74359e-13 5.65482e-13 6.6036e-14 0 0 5.13145e-13 4.89312e-13 4.75201e-13 1.96371e-13 0 0 5.94029e-13 3.12144e-13 6.79957e-13 -4.4929e-14 0 0 3.51276e-13 7.59875e-13 1.14967e-13 2.93876e-13 0 0 4.67581e-13 5.79003e-13 1.41084e-13 4.51885e-13 0 0 5.52696e-13 3.68922e-13 3.01953e-13 3.32587e-13 0 0 3.21013e-13 6.7516e-13 3.90476e-14 3.96781e-13 0 0 4.27412e-13 6.22888e-13 3.99923e-14 4.22449e-13 0 0 2.24215e-13 9.79303e-13 -2.36441e-13 5.1446e-13 0 0 3.25761e-13 6.55717e-13 1.7886e-13 2.9435e-13 0 0 8.06489e-13 -6.73752e-14 7.56302e-13 1.30989e-13 0 0 4.07264e-13 6.33074e-13 -4.80128e-14 7.01457e-13 0 0 3.17536e-13 8.94378e-13 -5.13142e-13 1.07319e-12 0 0 6.306e-13 4.37663e-13 -1.113e-13 8.05172e-13 0 0 7.77431e-13 4.54549e-14 5.71678e-13 3.28697e-13 0 0 5.6654e-13 3.21528e-13 5.8034e-13 2.25285e-13 0 0 9.46639e-15 1.18853e-12 -2.65986e-13 7.5116e-13 0 0 2.06854e-13 8.31934e-13 -4.33518e-14 7.49939e-13 0 0 8.77231e-13 -2.70951e-13 9.56091e-13 1.97275e-13 0 0 1.19497e-12 -7.69387e-13 1.33907e-12 6.00705e-14 0
				</DataArray>
				<DataArray Name="VitesseY" type="Float32" format="ascii">