<?xml version="1.0"?>
<VTKFile type="PolyData">
	<PolyData>
		<Piece NumberOfPoints="1206" NumberOfPolys="1000">
			<Points>
				<DataArray type="Float32" NumberOfComponents="3" format="ascii">
 0 0 0 0.005 0 0 0.01 0 0 0.015 0 0 0.02 0 0 0.025 0 0 0.03 0 0 0.035 0 0 0.04 0 0 0.045 0 0 0.05 0 0 0.055 0 0 0.06 0 0 0.065 0 0 0.07 0 0 0.075 0 0 0.08 0 0 0.085 0 0 0.09 0 0 0.095 0 0 0.1 0 0 0.105 0 0 0.11 0 0 0.115 0 0 0.12 0 0 0.125 0 0 0.13 0 0 0.135 0 0 0.14 0 0 0.145 0 0 0.15 0 0 0.155 0 0 0.16 0 0 0.165 0 0 0.17 0 0 0.175 0 0 0.18 0 0 0.185 0 0 0.19 0 0 0.195 0 0 0.2 0 0 0.205 0 0 0.21 0 0 0.215 0 0 0.22 0 0 0.225 0 0 0.23 0 0 0.235 0 0 0.24 0 0 0.245 0 0 0.25 0 0 0.255 0 0 0.26 0 0 0.265 0 0 0.27 0 0 0.275 0 0 0.28 0 0 0.285 0 0 0.29 0 0 0.295 0 0 0.3 0 0 0.305 0 0 0.31 0 0 0.315 0 0 0.32 0 0 0.325 0 0 0.33 0 0 0.335 0 0 0.34 0 0 0.345 0 0 0.35 0 0 0.355 0 0 0.36 0 0 0.365 0 0 0.37 0 0 0.375 0 0 0.38 0 0 0.385 0 0 0.39 0 0 0.395 0 0 0.4 0 0 0.405 0 0 0.41 0 0 0.415 0 0 0.42 0 0 0.425 0 0 0.43 0 0 0.435 0 0 0.44 0 0 0.445 0 0 0.45 0 0 0.455 0 0 0.46 0 0 0.465 0 0 0.47 0 0 0.475 0 0 0.48 0 0 0.485 0 0 0.49 0 0 0.495 0 0 0.5 0 0 0.505 0 0 0.51 0 0 0.515 0 0 0.52 0 0 0.525 0 0 0.53 0 0 0.535 0 0 0.54 0 0 0.545 0 0 0.55 0 0 0.555 0 0 0.56 0 0 0.565 0 0 0.57 0 0 0.575 0 0 0.58 0 0 0.585 0 0 0.59 0 0 0.595 0 0 0.6 0 0 0.605 0 0 0.61 0 0 0.615 0 0 0.62 0 0 0.625 0 0 0.63 0 0 0.635 0 0 0.64 0 0 0.645 0 0 0.65 0 0 0.655 0 0 0.66 0 0 0.665 0 0 0.67 0 0 0.675 0 0 0.68 0 0 0.685 0 0 0.69 0 0 0.695 0 0 0.7 0 0 0.705 0 0 0.71 0 0 0.715 0 0 0.72 0 0 0.725 0 0 0.73 0 0 0.735 0 0 0.74 0 0 0.745 0 0 0.75 0 0 0.755 0 0 0.76 0 0 0.765 0 0 0.77 0 0 0.775 0 0 0.78 0 0 0.785 0 0 0.79 0 0 0.795 0 0 0.8 0 0 0.805 0 0 0.81 0 0 0.815 0 0 0.82 0 0 0.825 0 0 0.83 0 0 0.835 0 0 0.84 0 0 0.845 0 0 0.85 0 0 0.855 0 0 0.86 0 0 0.865 0 0 0.87 0 0 0.875 0 0 0.88 0 0 0.885 0 0 0.89 0 0 0.895 0 0 0.9 0 0 0.905 0 0 0.91 0 0 0.915 0 0 0.92 0 0 0.925 0 0 0.93 0 0 0.935 0 0 0.94 0 0 0.945 0 0 0.95 0 0 0.955 0 0 0.96 0 0 0.965 0 0 0.97 0 0 0.975 0 0 0.98 0 0 0.985 0 0 0.99 0 0 0.995 0 0 1 0 0 0 0.02 0 0.005 0.02 0 0.01 0.02 0 0.015 0.02 0 0.02 0.02 0 0.025 0.02 0 0.03 0.02 0 0.035 0.02 0 0.04 0.02 0 0.045 0.02 0 0.05 0.02 0 0.055 0.02 0 0.06 0.02 0 0.065 0.02 0 0.07 0.02 0 0.075 0.02 0 0.08 0.02 0 0.085 0.02 0 0.09 0.02 0 0.095 0.02 0 0.1 0.02 0 0.105 0.02 0 0.11 0.02 0 0.115 0.02 0 0.12 0.02 0 0.125 0.02 0 0.13 0.02 0 0.135 0.02 0 0.14 0.02 0 0.145 0.02 0 0.15 0.02 0 0.155 0.02 0 0.16 0.02 0 0.165 0.02 0 0.17 0.02 0 0.175 0.02 0 0.18 0.02 0 0.185 0.02 0 0.19 0.02 0 0.195 0.02 0 0.2 0.02 0 0.205 0.02 0 0.21 0.02 0 0.215 0.02 0 0.22 0.02 0 0.225 0.02 0 0.23 0.02 0 0.235 0.02 0 0.24 0.02 0 0.245 0.02 0 0.25 0.02 0 0.255 0.02 0 0.26 0.02 0 0.265 0.02 0 0.27 0.02 0 0.275 0.02 0 0.28 0.02 0 0.285 0.02 0 0.29 0.02 0 0.295 0.02 0 0.3 0.02 0 0.305 0.02 0 0.31 0.02 0 0.315 0.02 0 0.32 0.02 0 0.325 0.02 0 0.33 0.02 0 0.335 0.02 0 0.34 0.02 0 0.345 0.02 0 0.35 0.02 0 0.355 0.02 0 0.36 0.02 0 0.365 0.02 0 0.37 0.02 0 0.375 0.02 0 0.38 0.02 0 0.385 0.02 0 0.39 0.02 0 0.395 0.02 0 0.4 0.02 0 0.405 0.02 0 0.41 0.02 0 0.415 0.02 0 0.42 0.02 0 0.425 0.02 0 0.43 0.02 0 0.435 0.02 0 0.44 0.02 0 0.445 0.02 0 0.45 0.02 0 0.455 0.02 0 0.46 0.02 0 0.465 0.02 0 0.47 0.02 0 0.475 0.02 0 0.48 0.02 0 0.485 0.02 0 0.49 0.02 0 0.495 0.02 0 0.5 0.02 0 0.505 0.02 0 0.51 0.02 0 0.515 0.02 0 0.52 0.02 0 0.525 0.02 0 0.53 0.02 0 0.535 0.02 0 0.54 0.02 0 0.545 0.02 0 0.55 0.02 0 0.555 0.02 0 0.56 0.02 0 0.565 0.02 0 0.57 0.02 0 0.575 0.02 0 0.58 0.02 0 0.585 0.02 0 0.59 0.02 0 0.595 0.02 0 0.6 0.02 0 0.605 0.02 0 0.61 0.02 0 0.615 0.02 0 0.62 0.02 0 0.625 0.02 0 0.63 0.02 0 0.635 0.02 0 0.64 0.02 0 0.645 0.02 0 0.65 0.02 0 0.655 0.02 0 0.66 0.02 0 0.665 0.02 0 0.67 0.02 0 0.675 0.02 0 0.68 0.02 0 0.685 0.02 0 0.69 0.02 0 0.695 0.02 0 0.7 0.02 0 0.705 0.02 0 0.71 0.02 0 0.715 0.02 0 0.72 0.02 0 0.725 0.02 0 0.73 0.02 0 0.735 0.02 0 0.74 0.02 0 0.745 0.02 0 0.75 0.02 0 0.755 0.02 0 0.76 0.02 0 0.765 0.02 0 0.77 0.02 0 0.775 0.02 0 0.78 0.02 0 0.785 0.02 0 0.79 0.02 0 0.795 0.02 0 0.8 0.02 0 0.805 0.02 0 0.81 0.02 0 0.815 0.02 0 0.82 0.02 0 0.825 0.02 0 0.83 0.02 0 0.835 0.02 0 0.84 0.02 0 0.845 0.02 0 0.85 0.02 0 0.855 0.02 0 0.86 0.02 0 0.865 0.02 0 0.87 0.02 0 0.875 0.02 0 0.88 0.02 0 0.885 0.02 0 0.89 0.02 0 0.895 0.02 0 0.9 0.02 0 0.905 0.02 0 0.91 0.02 0 0.915 0.02 0 0.92 0.02 0 0.925 0.02 0 0.93 0.02 0 0.935 0.02 0 0.94 0.02 0 0.945 0.02 0 0.95 0.02 0 0.955 0.02 0 0.96 0.02 0 0.965 0.02 0 0.97 0.02 0 0.975 0.02 0 0.98 0.02 0 0.985 0.02 0 0.99 0.02 0 0.995 0.02 0 1 0.02 0 0 0.04 0 0.005 0.04 0 0.01 0.04 0 0.015 0.04 0 0.02 0.04 0 0.025 0.04 0 0.03 0.04 0 0.035 0.04 0 0.04 0.04 0 0.045 0.04 0 0.05 0.04 0 0.055 0.04 0 0.06 0.04 0 0.065 0.04 0 0.07 0.04 0 0.075 0.04 0 0.08 0.04 0 0.085 0.04 0 0.09 0.04 0 0.095 0.04 0 0.1 0.04 0 0.105 0.04 0 0.11 0.04 0 0.115 0.04 0 0.12 0.04 0 0.125 0.04 0 0.13 0.04 0 0.135 0.04 0 0.14 0.04 0 0.145 0.04 0 0.15 0.04 0 0.155 0.04 0 0.16 0.04 0 0.165 0.04 0 0.17 0.04 0 0.175 0.04 0 0.18 0.04 0 0.185 0.04 0 0.19 0.04 0 0.195 0.04 0 0.2 0.04 0 0.205 0.04 0 0.21 0.04 0 0.215 0.04 0 0.22 0.04 0 0.225 0.04 0 0.23 0.04 0 0.235 0.04 0 0.24 0.04 0 0.245 0.04 0 0.25 0.04 0 0.255 0.04 0 0.26 0.04 0 0.265 0.04 0 0.27 0.04 0 0.275 0.04 0 0.28 0.04 0 0.285 0.04 0 0.29 0.04 0 0.295 0.04 0 0.3 0.04 0 0.305 0.04 0 0.31 0.04 0 0.315 0.04 0 0.32 0.04 0 0.325 0.04 0 0.33 0.04 0 0.335 0.04 0 0.34 0.04 0 0.345 0.04 0 0.35 0.04 0 0.355 0.04 0 0.36 0.04 0 0.365 0.04 0 0.37 0.04 0 0.375 0.04 0 0.38 0.04 0 0.385 0.04 0 0.39 0.04 0 0.395 0.04 0 0.4 0.04 0 0.405 0.04 0 0.41 0.04 0 0.415 0.04 0 0.42 0.04 0 0.425 0.04 0 0.43 0.04 0 0.435 0.04 0 0.44 0.04 0 0.445 0.04 0 0.45 0.04 0 0.455 0.04 0 0.46 0.04 0 0.465 0.04 0 0.47 0.04 0 0.475 0.04 0 0.48 0.04 0 0.485 0.04 0 0.49 0.04 0 0.495 0.04 0 0.5 0.04 0 0.505 0.04 0 0.51 0.04 0 0.515 0.04 0 0.52 0.04 0 0.525 0.04 0 0.53 0.04 0 0.535 0.04 0 0.54 0.04 0 0.545 0.04 0 0.55 0.04 0 0.555 0.04 0 0.56 0.04 0 0.565 0.04 0 0.57 0.04 0 0.575 0.04 0 0.58 0.04 0 0.585 0.04 0 0.59 0.04 0 0.595 0.04 0 0.6 0.04 0 0.605 0.04 0 0.61 0.04 0 0.615 0.04 0 0.62 0.04 0 0.625 0.04 0 0.63 0.04 0 0.635 0.04 0 0.64 0.04 0 0.645 0.04 0 0.65 0.04 0 0.655 0.04 0 0.66 0.04 0 0.665 0.04 0 0.67 0.04 0 0.675 0.04 0 0.68 0.04 0 0.685 0.04 0 0.69 0.04 0 0.695 0.04 0 0.7 0.04 0 0.705 0.04 0 0.71 0.04 0 0.715 0.04 0 0.72 0.04 0 0.725 0.04 0 0.73 0.04 0 0.735 0.04 0 0.74 0.04 0 0.745 0.04 0 0.75 0.04 0 0.755 0.04 0 0.76 0.04 0 0.765 0.04 0 0.77 0.04 0 0.775 0.04 0 0.78 0.04 0 0.785 0.04 0 0.79 0.04 0 0.795 0.04 0 0.8 0.04 0 0.805 0.04 0 0.81 0.04 0 0.815 0.04 0 0.82 0.04 0 0.825 0.04 0 0.83 0.04 0 0.835 0.04 0 0.84 0.04 0 0.845 0.04 0 0.85 0.04 0 0.855 0.04 0 0.86 0.04 0 0.865 0.04 0 0.87 0.04 0 0.875 0.04 0 0.88 0.04 0 0.885 0.04 0 0.89 0.04 0 0.895 0.04 0 0.9 0.04 0 0.905 0.04 0 0.91 0.04 0 0.915 0.04 0 0.92 0.04 0 0.925 0.04 0 0.93 0.04 0 0.935 0.04 0 0.94 0.04 0 0.945 0.04 0 0.95 0.04 0 0.955 0.04 0 0.96 0.04 0 0.965 0.04 0 0.97 0.04 0 0.975 0.04 0 0.98 0.04 0 0.985 0.04 0 0.99 0.04 0 0.995 0.04 0 1 0.04 0 0 0.06 0 0.005 0.06 0 0.01 0.06 0 0.015 0.06 0 0.02 0.06 0 0.025 0.06 0 0.03 0.06 0 0.035 0.06 0 0.04 0.06 0 0.045 0.06 0 0.05 0.06 0 0.055 0.06 0 0.06 0.06 0 0.065 0.06 0 0.07 0.06 0 0.075 0.06 0 0.08 0.06 0 0.085 0.06 0 0.09 0.06 0 0.095 0.06 0 0.1 0.06 0 0.105 0.06 0 0.11 0.06 0 0.115 0.06 0 0.12 0.06 0 0.125 0.06 0 0.13 0.06 0 0.135 0.06 0 0.14 0.06 0 0.145 0.06 0 0.15 0.06 0 0.155 0.06 0 0.16 0.06 0 0.165 0.06 0 0.17 0.06 0 0.175 0.06 0 0.18 0.06 0 0.185 0.06 0 0.19 0.06 0 0.195 0.06 0 0.2 0.06 0 0.205 0.06 0 0.21 0.06 0 0.215 0.06 0 0.22 0.06 0 0.225 0.06 0 0.23 0.06 0 0.235 0.06 0 0.24 0.06 0 0.245 0.06 0 0.25 0.06 0 0.255 0.06 0 0.26 0.06 0 0.265 0.06 0 0.27 0.06 0 0.275 0.06 0 0.28 0.06 0 0.285 0.06 0 0.29 0.06 0 0.295 0.06 0 0.3 0.06 0 0.305 0.06 0 0.31 0.06 0 0.315 0.06 0 0.32 0.06 0 0.325 0.06 0 0.33 0.06 0 0.335 0.06 0 0.34 0.06 0 0.345 0.06 0 0.35 0.06 0 0.355 0.06 0 0.36 0.06 0 0.365 0.06 0 0.37 0.06 0 0.375 0.06 0 0.38 0.06 0 0.385 0.06 0 0.39 0.06 0 0.395 0.06 0 0.4 0.06 0 0.405 0.06 0 0.41 0.06 0 0.415 0.06 0 0.42 0.06 0 0.425 0.06 0 0.43 0.06 0 0.435 0.06 0 0.44 0.06 0 0.445 0.06 0 0.45 0.06 0 0.455 0.06 0 0.46 0.06 0 0.465 0.06 0 0.47 0.06 0 0.475 0.06 0 0.48 0.06 0 0.485 0.06 0 0.49 0.06 0 0.495 0.06 0 0.5 0.06 0 0.505 0.06 0 0.51 0.06 0 0.515 0.06 0 0.52 0.06 0 0.525 0.06 0 0.53 0.06 0 0.535 0.06 0 0.54 0.06 0 0.545 0.06 0 0.55 0.06 0 0.555 0.06 0 0.56 0.06 0 0.565 0.06 0 0.57 0.06 0 0.575 0.06 0 0.58 0.06 0 0.585 0.06 0 0.59 0.06 0 0.595 0.06 0 0.6 0.06 0 0.605 0.06 0 0.61 0.06 0 0.615 0.06 0 0.62 0.06 0 0.625 0.06 0 0.63 0.06 0 0.635 0.06 0 0.64 0.06 0 0.645 0.06 0 0.65 0.06 0 0.655 0.06 0 0.66 0.06 0 0.665 0.06 0 0.67 0.06 0 0.675 0.06 0 0.68 0.06 0 0.685 0.06 0 0.69 0.06 0 0.695 0.06 0 0.7 0.06 0 0.705 0.06 0 0.71 0.06 0 0.715 0.06 0 0.72 0.06 0 0.725 0.06 0 0.73 0.06 0 0.735 0.06 0 0.74 0.06 0 0.745 0.06 0 0.75 0.06 0 0.755 0.06 0 0.76 0.06 0 0.765 0.06 0 0.77 0.06 0 0.775 0.06 0 0.78 0.06 0 0.785 0.06 0 0.79 0.06 0 0.795 0.06 0 0.8 0.06 0 0.805 0.06 0 0.81 0.06 0 0.815 0.06 0 0.82 0.06 0 0.825 0.06 0 0.83 0.06 0 0.835 0.06 0 0.84 0.06 0 0.845 0.06 0 0.85 0.06 0 0.855 0.06 0 0.86 0.06 0 0.865 0.06 0 0.87 0.06 0 0.875 0.06 0 0.88 0.06 0 0.885 0.06 0 0.89 0.06 0 0.895 0.06 0 0.9 0.06 0 0.905 0.06 0 0.91 0.06 0 0.915 0.06 0 0.92 0.06 0 0.925 0.06 0 0.93 0.06 0 0.935 0.06 0 0.94 0.06 0 0.945 0.06 0 0.95 0.06 0 0.955 0.06 0 0.96 0.06 0 0.965 0.06 0 0.97 0.06 0 0.975 0.06 0 0.98 0.06 0 0.985 0.06 0 0.99 0.06 0 0.995 0.06 0 1 0.06 0 0 0.08 0 0.005 0.08 0 0.01 0.08 0 0.015 0.08 0 0.02 0.08 0 0.025 0.08 0 0.03 0.08 0 0.035 0.08 0 0.04 0.08 0 0.045 0.08 0 0.05 0.08 0 0.055 0.08 0 0.06 0.08 0 0.065 0.08 0 0.07 0.08 0 0.075 0.08 0 0.08 0.08 0 0.085 0.08 0 0.09 0.08 0 0.095 0.08 0 0.1 0.08 0 0.105 0.08 0 0.11 0.08 0 0.115 0.08 0 0.12 0.08 0 0.125 0.08 0 0.13 0.08 0 0.135 0.08 0 0.14 0.08 0 0.145 0.08 0 0.15 0.08 0 0.155 0.08 0 0.16 0.08 0 0.165 0.08 0
[...]
			<CellData Scalars="Density">
				<DataArray Name="Density" type="Float32" format="ascii">
 1 1 1 1 1 1 1 1 1 1 1 1 1 1 1 1 1 1 1 1 1 1 1 1 1 1 1 1 1 1 1 1 1 1 1 1 1 1 1 1 1 0.999999 0.999997 0.999992 0.99998 0.999947 0.999865 0.999671 0.999266 0.998504 0.997195 0.995129 0.992102 0.987945 0.982545 0.97586 0.967908 0.95876 0.948522 0.937321 0.92529 0.912562 0.899259 0.885491 0.871357 0.856951 0.842351 0.827631 0.812854 0.798065 0.783309 0.768611 0.754021 0.739533 0.725206 0.711007 0.697012 0.683166 0.669545 0.656101 0.642891 0.629881 0.617119 0.604572 0.592282 0.580248 0.56845 0.556957 0.545732 0.534812 0.524202 0.513957 0.504067 0.494577 0.485521 0.476963 0.468945 0.461508 0.454691 0.448566 0.443212 0.438633 0.434764 0.431585 0.429116 0.427283 0.425937 0.424972 0.424306 0.423842 0.42351 0.423294 0.423164 0.423058 0.422948 0.422822 0.422667 0.422474 0.422251 0.422001 0.421723 0.421396 0.420958 0.420289 0.419175 0.417273 0.414074 0.408894 0.400907 0.389256 0.373234 0.35257 0.327602 0.304006 0.289237 0.279415 0.273409 0.26999 0.268187 0.267321 0.266953 0.26683 0.266813 0.266833 0.266859 0.266882 0.2669 0.266911 0.266916 0.266921 0.266919 0.266919 0.266905 0.266896 0.266823 0.266782 0.266291 0.265843 0.262792 0.258028 0.240575 0.211031 0.157137 0.130666 0.12589 0.125136 0.125021 0.125003 0.125 0.125 0.125 0.125 0.125 0.125 0.125 0.125 0.125 0.125 0.125 0.125 0.125 0.125 0.125 0.125 0.125 0.125 0.125 0.125 0.125 0.125 0.125 0.125 0.125 0.125 0.125 0.125 0.125 0.125 0.125 0.125 1 1 1 1 1 1 1 1 1 1 1 1 1 1 1 1 1 1 1 1 1 1 1 1 1 1 1 1 1 1 1 1 1 1 1 1 1 1 1 1 1 0.999999 0.999997 0.999992 0.99998 0.999947 0.999865 0.999671 0.999266 0.998504 0.997195 0.995129 0.992102 0.987945 0.982545 0.97586 0.967908 0.95876 0.948522 0.937321 0.92529 0.912562 0.899259 0.885491 0.871357 0.856951 0.842351 0.827631 0.812854 0.798065 0.783309 0.768611 0.754021 0.739533 0.725206 0.711007 0.697012 0.683166 0.669545 0.656101 0.642891 0.629881 0.617119 0.604572 0.592282 0.580248 0.56845 0.556957 0.545732 0.534812 0.524202 0.513957 0.504067 0.494577 0.485521 0.476963 0.468945 0.461508 0.454691 0.448566 0.443212 0.438633 0.434764 0.431585 0.429116 0.427283 0.425937 0.424972 0.424306 0.423842 0.42351 0.423294 0.423164 0.423058 0.422948 0.422822 0.422667 0.422474 0.422251 0.422001 0.421723 0.421396 0.420958 0.420289 0.419175 0.417273 0.414074 0.408894 0.400907 0.389256 0.373234 0.35257 0.327602 0.304006 0.289237 0.279415 0.273409 0.26999 0.268187 0.267321 0.266953 0.26683 0.266813 0.266833 0.266859 0.266882 0.2669 0.266911 0.266916 0.266921 0.266919 0.266919 0.266905 0.266896 0.266823 0.266782 0.266291 0.265843 0.262792 0.258028 0.240575 0.211031 0.157137 0.130666 0.12589 0.125136 0.125021 0.125003 0.125 0.125 0.125 0.125 0.125 0.125 0.125 0.125 0.125 0.125 0.125 0.125 0.125 0.125 0.125 0.125 0.125 0.125 0.125 0.125 0.125 0.125 0.125 0.125 0.125 0.125 0.125 0.125 0.125 0.125 0.125 0.125 1 1 1 1 1 1 1 1 1 1 1 1 1 1 1 1 1 1 1 1 1 1 1 1 1 1 1 1 1 1 1 1 1 1 1 1 1 1 1 1 1 0.999999 0.999997 0.999992 0.99998 0.999947 0.999865 0.999671 0.999266 0.998504 0.997195 0.995129 0.992102 0.987945 0.982545 0.97586 0.967908 0.95876 0.948522 0.937321 0.92529 0.912562 0.899259 0.885491 0.871357 0.856951 0.842351 0.827631 0.812854 0.798065 0.783309 0.768611 0.754021 0.739533 0.725206 0.711007 0.697012 0.683166 0.669545 0.656101 0.642891 0.629881 0.617119 0.604572 0.592282 0.580248 0.56845 0.556957 0.545732 0.534812 0.524202 0.513957 0.504067 0.494577 0.485521 0.476963 0.468945 0.461508 0.454691 0.448566 0.443212 0.438633 0.434764 0.431585 0.429116 0.427283 0.425937 0.424972 0.424306 0.423842 0.42351 0.423294 0.423164 0.423058 0.422948 0.422822 0.422667 0.422474 0.422251 0.422001 0.421723 0.421396 0.420958 0.420289 0.419175 0.417273 0.414074 0.408894 0.400907 0.389256 0.373234 0.35257 0.327602 0.304006 0.289237 0.279415 0.273409 0.26999 0.268187 0.267321 0.266953 0.26683 0.266813 0.266833 0.266859 0.266882 0.2669 0.266911 0.266916 0.266921 0.266919 0.266919 0.266905 0.266896 0.266823 0.266782 0.266291 0.265843 0.262792 0.258028 0.240575 0.211031 0.157137 0.130666 0.12589 0.125136 0.125021 0.125003 0.125 0.125 0.125 0.125 0.125 0.125 0.125 0.125 0.125 0.125 0.125 0.125 0.125 0.125 0.125 0.125 0.125 0.125 0.125 0.125 0.125 0.125 0.125 0.125 0.125 0.125 0.125 0.125 0.125 0.125 0.125 0.125 1 1 1 1 1 1 1 1 1 1 1 1 1 1 1 1 1 1 1 1 1 1 1 1 1 1 1 1 1 1 1 1 1 1 1 1 1 1 1 1 1 0.999999 0.999997 0.999992 0.99998 0.999947 0.999865 0.999671 0.999266 0.998504 0.997195 0.995129 0.992102 0.987945 0.982545 0.97586 0.967908 0.95876 0.948522 0.937321 0.92529 0.912562 0.899259 0.885491 0.871357 0.856951 0.842351 0.827631 0.812854 0.798065 0.783309 0.768611 0.754021 0.739533 0.725206 0.711007 0.697012 0.683166 0.669545 0.656101 0.642891 0.629881 0.617119 0.604572 0.592282 0.580248 0.56845 0.556957 0.545732 0.534812 0.524202 0.513957 0.504067 0.494577 0.485521 0.476963 0.468945 0.461508 0.454691 0.448566 0.443212 0.438633 0.434764 0.431585 0.429116 0.427283 0.425937 0.424972 0.424306 0.423842 0.42351 0.423294 0.423164 0.423058 0.422948 0.422822 0.422667 0.422474 0.422251 0.422001 0.421723 0.421396 0.420958 0.420289 0.419175 0.417273 0.414074 0.408894 0.400907 0.389256 0.373234 0.35257 0.327602 0.304006 0.289237 0.279415 0.273409 0.26999 0.268187 0.267321 0.266953 0.26683 0.266813 0.266833 0.266859 0.266882 0.2669 0.266911 0.266916 0.266921 0.266919 0.266919 0.266905 0.266896 0.266823 0.266782 0.266291 0.265843 0.262792 0.258028 0.240575 0.211031 0.157137 0.130666 0.12589 0.125136 0.125021 0.125003 0.125 0.125 0.125 0.125 0.125 0.125 0.125 0.125 0.125 0.125 0.125 0.125 0.125 0.125 0.125 0.125 0.125 0.125 0.125 0.125 0.125 0.125 0.125 0.125 0.125 0.125 0.125 0.125 0.125 0.125 0.125 0.125 1 1 1 1 1 1 1 1 1 1 1 1 1 1 1 1 1 1 1 1 1 1 1 1 1 1 1 1 1 1 1 1 1 1 1 1 1 1 1 1 1 0.999999 0.999997 0.999992 0.99998 0.999947 0.999865 0.999671 0.999266 0.998504 0.997195 0.995129 0.992102 0.987945 0.982545 0.97586 0.967908 0.95876 0.948522 0.937321 0.92529 0.912562 0.899259 0.885491 0.871357 0.856951 0.842351 0.827631 0.812854 0.798065 0.783309 0.768611 0.754021 0.739533 0.725206 0.711007 0.697012 0.683166 0.669545 0.656101 0.642891 0.629881 0.617119 0.604572 0.592282 0.580248 0.56845 0.556957 0.545732 0.534812 0.524202 0.513957 0.504067 0.494577 0.485521 0.476963 0.468945 0.461508 0.454691 0.448566 0.443212 0.438633 0.434764 0.431585 0.429116 0.427283 0.425937 0.424972 0.424306 0.423842 0.42351 0.423294 0.423164 0.423058 0.422948 0.422822 0.422667 0.422474 0.422251 0.422001 0.421723 0.421396 0.420958 0.420289 0.419175 0.417273 0.414074 0.408894 0.400907 0.389256 0.373234 0.35257 0.327602 0.304006 0.289237 0.279415 0.273409 0.26999 0.268187 0.267321 0.266953 0.26683 0.266813 0.266833 0.266859 0.266882 0.2669 0.266911 0.266916 0.266921 0.266919 0.266919 0.266905 0.266896 0.266823 0.266782 0.266291 0.265843 0.262792 0.258028 0.240575 0.211031 0.157137 0.130666 0.12589 0.125136 0.125021 0.125003 0.125 0.125 0.125 0.125 0.125 0.125 0.125 0.125 0.125 0.125 0.125 0.125 0.125 0.125 0.125 0.125 0.125 0.125 0.125 0.125 0.125 0.125 0.125 0.125 0.125 0.125 0.125 0.125 0.125 0.125 0.125 0.125
				</DataArray>
				<DataArray Name="Energy" type="Float32" format="ascii">
 2.5 2.5 2.5 2.5 2.5 2.5 2.5 2.5 2.5 2.5 2.5 2.5 2.5 2.5 2.5 2.5 2.5 2.5 2.5 2.5 2.5 2.5 2.5 2.5 2.5 2.5 2.5 2.5 2.5 2.5 2.5 2.5 2.5 2.5 2.5 2.5 2.5 2.5 2.5 2.5 2.5 2.5 2.5 2.49999 2.49998 2.49995 2.49986 2.49967 2.49927 2.4985 2.49719 2.49513 2.49209 2.48792 2.48249 2.47574 2.46769 2.45839 2.44792 2.4364 2.42394 2.41066 2.39667 2.38206 2.36694 2.35137 2.33545 2.31922 2.30275 2.2861 2.26931 2.25241 2.23545 2.2184 2.20137 2.18429 2.16725 2.1502 2.13324 2.11629 2.09943 2.08266 2.06595 2.04943 2.03294 2.01665 2.00054 1.98458 1.96881 1.95335 1.93814 1.92323 1.90869 1.89464 1.8811 1.86812 1.8558 1.84432 1.83384 1.82439 1.81589 1.8085 1.8025 1.79784 1.79413 1.79125 1.78928 1.78808 1.7874 1.78715 1.78728 1.78755 1.78776 1.78806 1.78848 1.78905 1.78976 1.79062 1.79159 1.79267 1.79386 1.79526 1.79715 1.80003 1.80484 1.8131 1.82713 1.8503 1.88718 1.94369 2.02709 2.14573 2.30793 2.48676 2.61564 2.70773 2.76726 2.8023 2.82112 2.83026 2.83413 2.83542 2.83559 2.83535 2.83501 2.83471 2.83447 2.83428 2.83412 2.83399 2.83386 2.83377 2.83364 2.83358 2.83326 2.83307 2.83096 2.82901 2.81589 2.7947 2.71425 2.55344 2.22212 2.03771 2.00573 2.00087 2.00013 2.00002 2 2 2 2 2 2 2 2 2 2 2 2 2 2 2 2 2 2 2 2 2 2 2 2 2 2 2 2 2 2 2 2 2.5 2.5 2.5 2.5 2.5 2.5 2.5 2.5 2.5 2.5 2.5 2.5 2.5 2.5 2.5 2.5 2.5 2.5 2.5 2.5 2.5 2.5 2.5 2.5 2.5 2.5 2.5 2.5 2.5 2.5 2.5 2.5 2.5 2.5 2.5 2.5 2.5 2.5 2.5 2.5 2.5 2.5 2.5 2.49999 2.49998 2.49995 2.49986 2.49967 2.49927 2.4985 2.49719 2.49513 2.49209 2.48792 2.48249 2.47574 2.46769 2.45839 2.44792 2.4364 2.42394 2.41066 2.39667 2.38206 2.36694 2.35137 2.33545 2.31922 2.30275 2.2861 2.26931 2.25241 2.23545 2.2184 2.20137 2.18429 2.16725 2.1502 2.13324 2.11629 2.09943 2.08266 2.06595 2.04943 2.03294 2.01665 2.00054 1.98458 1.96881 1.95335 1.93814 1.92323 1.90869 1.89464 1.8811 1.86812 1.8558 1.84432 1.83384 1.82439 1.81589 1.8085 1.8025 1.79784 1.79413 1.79125 1.78928 1.78808 1.7874 1.78715 1.78728 1.78755 1.78776 1.78806 1.78848 1.78905 1.78976 1.79062 1.79159 1.79267 1.79386 1.79526 1.79715 1.80003 1.80484 1.8131 1.82713 1.8503 1.88718 1.94369 2.02709 2.14573 2.30793 2.48676 2.61564 2.70773 2.76726 2.8023 2.82112 2.83026 2.83413 2.83542 2.83559 2.83535 2.83501 2.83471 2.83447 2.83428 2.83412 2.83399 2.83386 2.83377 2.83364 2.83358 2.83326 2.83307 2.83096 2.82901 2.81589 2.7947 2.71425 2.55344 2.22212 2.03771 2.00573 2.00087 2.00013 2.00002 2 2 2 2 2 2 2 2 2 2 2 2 2 2 2 2 2 2 2 2 2 2 2 2 2 2 2 2 2 2 2 2 2.5 2.5 2.5 2.5 2.5 2.5 2.5 2.5 2.5 2.5 2.5 2.5 2.5 2.5 2.5 2.5 2.5 2.5 2.5 2.5 2.5 2.5 2.5 2.5 2.5 2.5 2.5 2.5 2.5 2.5 2.5 2.5 2.5 2.5 2.5 2.5 2.5 2.5 2.5 2.5 2.5 2.5 2.5 2.49999 2.49998 2.49995 2.49986 2.49967 2.49927 2.4985 2.49719 2.49513 2.49209 2.48792 2.48249 2.47574 2.46769 2.45839 2.44792 2.4364 2.42394 2.41066 2.39667 2.38206 2.36694 2.35137 2.33545 2.31922 2.30275 2.2861 2.26931 2.25241 2.23545 2.2184 2.20137 2.18429 2.16725 2.1502 2.13324 2.11629 2.09943 2.08266 2.06595 2.04943 2.03294 2.01665 2.00054 1.98458 1.96881 1.95335 1.93814 1.92323 1.90869 1.89464 1.8811 1.86812 1.8558 1.84432 1.83384 1.82439 1.81589 1.8085 1.8025 1.79784 1.79413 1.79125 1.78928 1.78808 1.7874 1.78715 1.78728 1.78755 1.78776 1.78806 1.78848 1.78905 1.78976 1.79062 1.79159 1.79267 1.79386 1.79526 1.79715 1.80003 1.80484 1.8131 1.82713 1.8503 1.88718 1.94369 2.02709 2.14573 2.30793 2.48676 2.61564 2.70773 2.76726 2.8023 2.82112 2.83026 2.83413 2.83542 2.83559 2.83535 2.83501 2.83471 2.83447 2.83428 2.83412 2.83399 2.83386 2.83377 2.83364 2.83358 2.83326 2.83307 2.83096 2.82901 2.81589 2.7947 2.71425 2.55344 2.22212 2.03771 2.00573 2.00087 2.00013 2.00002 2 2 2 2 2 2 2 2 2 2 2 2 2 2 2 2 2 2 2 2 2 2 2 2 2 2 2 2 2 2 2 2 2.5 2.5 2.5 2.5 2.5 2.5 2.5 2.5 2.5 2.5 2.5 2.5 2.5 2.5 2.5 2.5 2.5 2.5 2.5 2.5 2.5 2.5 2.5 2.5 2.5 2.5 2.5 2.5 2.5 2.5 2.5 2.5 2.5 2.5 2.5 2.5 2.5 2.5 2.5 2.5 2.5 2.5 2.5 2.49999 2.49998 2.49995 2.49986 2.49967 2.49927 2.4985 2.49719 2.49513 2.49209 2.48792 2.48249 2.47574 2.46769 2.45839 2.44792 2.4364 2.42394 2.41066 2.39667 2.38206 2.36694 2.35137 2.33545 2.31922 2.30275 2.2861 2.26931 2.25241 2.23545 2.2184 2.20137 2.18429 2.16725 2.1502 2.13324 2.11629 2.09943 2.08266 2.06595 2.04943 2.03294 2.01665 2.00054 1.98458 1.96881 1.95335 1.93814 1.92323 1.90869 1.89464 1.8811 1.86812 1.8558 1.84432 1.83384 1.82439 1.81589 1.8085 1.8025 1.79784 1.79413 1.79125 1.78928 1.78808 1.7874 1.78715 1.78728 1.78755 1.78776 1.78806 1.78848 1.78905 1.78976 1.79062 1.79159 1.79267 1.79386 1.79526 1.79715 1.80003 1.80484 1.8131 1.82713 1.8503 1.88718 1.94369 2.02709 2.14573 2.30793 2.48676 2.61564 2.70773 2.76726 2.8023 2.82112 2.83026 2.83413 2.83542 2.83559 2.83535 2.83501 2.83471 2.83447 2.83428 2.83412 2.83399 2.83386 2.83377 2.83364 2.83358 2.83326 2.83307 2.83096 2.82901 2.81589 2.7947 2.71425 2.55344 2.22212 2.03771 2.00573 2.00087 2.00013 2.00002 2 2 2 2 2 2 2 2 2 2 2 2 2 2 2 2 2 2 2 2 2 2 2 2 2 2 2 2 2 2 2 2 2.5 2.5 2.5 2.5 2.5 2.5 2.5 2.5 2.5 2.5 2.5 2.5 2.5 2.5 2.5 2.5 2.5 2.5 2.5 2.5 2.5 2.5 2.5 2.5 2.5 2.5 2.5 2.5 2.5 2.5 2.5 2.5 2.5 2.5 2.5 2.5 2.5 2.5 2.5 2.5 2.5 2.5 2.5 2.49999 2.49998 2.49995 2.49986 2.49967 2.49927 2.4985 2.49719 2.49513 2.49209 2.48792 2.48249 2.47574 2.46769 2.45839 2.44792 2.4364 2.42394 2.41066 2.39667 2.38206 2.36694 2.35137 2.33545 2.31922 2.30275 2.2861 2.26931 2.25241 2.23545 2.2184 2.20137 2.18429 2.16725 2.1502 2.13324 2.11629 2.09943 2.08266 2.06595 2.04943 2.03294 2.01665 2.00054 1.98458 1.96881 1.95335 1.93814 1.92323 1.90869 1.89464 1.8811 1.86812 1.8558 1.84432 1.83384 1.82439 1.81589 1.8085 1.8025 1.79784 1.79413 1.79125 1.78928 1.78808 1.7874 1.78715 1.78728 1.78755 1.78776 1.78806 1.78848 1.78905 1.78976 1.79062 1.79159 1.79267 1.79386 1.79526 1.79715 1.80003 1.80484 1.8131 1.82713 1.8503 1.88718 1.94369 2.02709 2.14573 2.30793 2.48676 2.61564 2.70773 2.76726 2.8023 2.82112 2.83026 2.83413 2.83542 2.83559 2.83535 2.83501 2.83471 2.83447 2.83428 2.83412 2.83399 2.83386 2.83377 2.83364 2.83358 2.83326 2.83307 2.83096 2.82901 2.81589 2.7947 2.71425 2.55344 2.22212 2.03771 2.00573 2.00087 2.00013 2.00002 2 2 2 2 2 2 2 2 2 2 2 2 2 2 2 2 2 2 2 2 2 2 2 2 2 2 2 2 2 2 2 2
				</DataArray>
				<DataArray Name="F1" type="Float32" format="ascii">
 1 1 1 1 1 1 1 1 1 1 1 1 1 1 1 1 1 1 1 1 1 1 1 1 1 1 1 1 1 1 1 1 1 1 1 1 1 1 1 1 1 1 1 1 1 1 1 1 1 1 1 1 1 1 1 1 1 1 1 1 1 1 1 1 1 1 1 1 1 1 1 1 1 1 1 1 1 1 1 1 1 1 1 1 1 1 1 1 1 1 1 1 1 1 1 1 1 1 1 1 1 1 1 1 1 1 1 1 1 1 1 1 1 1 1 0.999999 0.999996 0.999986 0.999957 0.99988 0.99968 0.999199 0.998102 0.995746 0.990977 0.98187 0.965469 0.937634 0.893151 0.826307 0.732056 0.607731 0.455035 0.303361 0.191223 0.114686 0.0656246 0.0359026 0.0188148 0.00946008 0.00457009 0.00212384 0.000950467 0.00040997 0.000170559 6.8477e-05 2.65417e-05 9.93349e-06 3.58969e-06 1.25218e-06 4.21361e-07 1.3663e-07 4.26175e-08 1.27534e-08 3.64641e-09 9.89831e-10 2.52439e-10 5.95334e-11 1.2581e-11 2.28053e-12 3.17216e-13 2.91308e-14 8.98893e-16 0 0 0 0 0 0 0 0 0 0 0 0 0 0 0 0 0 0 0 0 0 0 0 0 0 0 0 0 0 0 0 0 0 0 0 0 0 1 1 1 1 1 1 1 1 1 1 1 1 1 1 1 1 1 1 1 1 1 1 1 1 1 1 1 1 1 1 1 1 1 1 1 1 1 1 1 1 1 1 1 1 1 1 1 1 1 1 1 1 1 1 1 1 1 1 1 1 1 1 1 1 1 1 1 1 1 1 1 1 1 1 1 1 1 1 1 1 1 1 1 1 1 1 1 1 1 1 1 1 1 1 1 1 1 1 1 1 1 1 1 1 1 1 1 1 1 1 1 1 1 1 1 0.999999 0.999996 0.999986 0.999957 0.99988 0.99968 0.999199 0.998102 0.995746 0.990977 0.98187 0.965469 0.937634 0.893151 0.826307 0.732056 0.607731 0.455035 0.303361 0.191223 0.114686 0.0656246 0.0359026 0.0188148 0.00946008 0.00457009 0.00212384 0.000950467 0.00040997 0.000170559 6.8477e-05 2.65417e-05 9.93349e-06 3.58969e-06 1.25218e-06 4.21361e-07 1.3663e-07 4.26175e-08 1.27534e-08 3.64641e-09 9.89831e-10 2.52439e-10 5.95334e-11 1.2581e-11 2.28053e-12 3.17216e-13 2.91308e-14 8.98893e-16 0 0 0 0 0 0 0 0 0 0 0 0 0 0 0 0 0 0 0 0 0 0 0 0 0 0 0 0 0 0 0 0 0 0 0 0 0 1 1 1 1 1 1 1 1 1 1 1 1 1 1 1 1 1 1 1 1 1 1 1 1 1 1 1 1 1 1 1 1 1 1 1 1 1 1 1 1 1 1 1 1 1 1 1 1 1 1 1 1 1 1 1 1 1 1 1 1 1 1 1 1 1 1 1 1 1 1 1 1 1 1 1 1 1 1 1 1 1 1 1 1 1 1 1 1 1 1 1 1 1 1 1 1 1 1 1 1 1 1 1 1 1 1 1 1 1 1 1 1 1 1 1 0.999999 0.999996 0.999986 0.999957 0.99988 0.99968 0.999199 0.998102 0.995746 0.990977 0.98187 0.965469 0.937634 0.893151 0.826307 0.732056 0.607731 0.455035 0.303361 0.191223 0.114686 0.0656246 0.0359026 0.0188148 0.00946008 0.00457009 0.00212384 0.000950467 0.00040997 0.000170559 6.8477e-05 2.65417e-05 9.93349e-06 3.58969e-06 1.25218e-06 4.21361e-07 1.3663e-07 4.26175e-08 1.27534e-08 3.64641e-09 9.89831e-10 2.52439e-10 5.95334e-11 1.2581e-11 2.28053e-12 3.17216e-13 2.91308e-14 8.98893e-16 0 0 0 0 0 0 0 0 0 0 0 0 0 0 0 0 0 0 0 0 0 0 0 0 0 0 0 0 0 0 0 0 0 0 0 0 0 1 1 1 1 1 1 1 1 1 1 1 1 1 1 1 1 1 1 1 1 1 1 1 1 1 1 1 1 1 1 1 1 1 1 1 1 1 1 1 1 1 1 1 1 1 1 1 1 1 1 1 1 1 1 1 1 1 1 1 1 1 1 1 1 1 1 1 1 1 1 1 1 1 1 1 1 1 1 1 1 1 1 1 1 1 1 1 1 1 1 1 1 1 1 1 1 1 1 1 1 1 1 1 1 1 1 1 1 1 1 1 1 1 1 1 0.999999 0.999996 0.999986 0.999957 0.99988 0.99968 0.999199 0.998102 0.995746 0.990977 0.98187 0.965469 0.937634 0.893151 0.826307 0.732056 0.607731 0.455035 0.303361 0.191223 0.114686 0.0656246 0.0359026 0.0188148 0.00946008 0.00457009 0.00212384 0.000950467 0.00040997 0.000170559 6.8477e-05 2.65417e-05 9.93349e-06 3.58969e-06 1.25218e-06 4.21361e-07 1.3663e-07 4.26175e-08 1.27534e-08 3.64641e-09 9.89831e-10 2.52439e-10 5.95334e-11 1.2581e-11 2.28053e-12 3.17216e-13 2.91308e-14 8.98893e-16 0 0 0 0 0 0 0 0 0 0 0 0 0 0 0 0 0 0 0 0 0 0 0 0 0 0 0 0 0 0 0 0 0 0 0 0 0 1 1 1 1 1 1 1 1 1 1 1 1 1 1 1 1 1 1 1 1 1 1 1 1 1 1 1 1 1 1 1 1 1 1 1 1 1 1 1 1 1 1 1 1 1 1 1 1 1 1 1 1 1 1 1 1 1 1 1 1 1 1 1 1 1 1 1 1 1 1 1 1 1 1 1 1 1 1 1 1 1 1 1 1 1 1 1 1 1 1 1 1 1 1 1 1 1 1 1 1 1 1 1 1 1 1 1 1 1 1 1 1 1 1 1 0.999999 0.999996 0.999986 0.999957 0.99988 0.99968 0.999199 0.998102 0.995746 0.990977 0.98187 0.965469 0.937634 0.893151 0.826307 0.732056 0.607731 0.455035 0.303361 0.191223 0.114686 0.0656246 0.0359026 0.0188148 0.00946008 0.00457009 0.00212384 0.000950467 0.00040997 0.000170559 6.8477e-05 2.65417e-05 9.93349e-06 3.58969e-06 1.25218e-06 4.21361e-07 1.3663e-07 4.26175e-08 1.27534e-08 3.64641e-09 9.89831e-10 2.52439e-10 5.95334e-11 1.2581e-11 2.28053e-12 3.17216e-13 2.91308e-14 8.98893e-16 0 0 0 0 0 0 0 0 0 0 0 0 0 0 0 0 0 0 0 0 0 0 0 0 0 0 0 0 0 0 0 0 0 0 0 0 0
				</DataArray>
				<DataArray Name="F2" type="Float32" format="ascii">