<?xml version="1.0"?>
<VTKFile type="PolyData">
	<PolyData>
		<Piece NumberOfPoints="1206" NumberOfPolys="1000">
			<Points>
				<DataArray type="Float32" NumberOfComponents="3" format="ascii">
 0 0 0 0.005 0 0 0.01 0 0 0.015 0 0 0.02 0 0 0.025 0 0 0.03 0 0 0.035 0 0 0.04 0 0 0.045 0 0 0.05 0 0 0.055 0 0 0.06 0 0 0.065 0 0 0.07 0 0 0.075 0 0 0.08 0 0 0.085 0 0 0.09 0 0 0.095 0 0 0.1 0 0 0.105 0 0 0.11 0 0 0.115 0 0 0.12 0 0 0.125 0 0 0.13 0 0 0.135 0 0 0.14 0 0 0.145 0 0 0.15 0 0 0.155 0 0 0.16 0 0 0.165 0 0 0.17 0 0 0.175 0 0 0.18 0 0 0.185 0 0 0.19 0 0 0.195 0 0 0.2 0 0 0.205 0 0 0.21 0 0 0.215 0 0 0.22 0 0 0.225 0 0 0.23 0 0 0.235 0 0 0.24 0 0 0.245 0 0 0.25 0 0 0.255 0 0 0.26 0 0 0.265 0 0 0.27 0 0 0.275 0 0 0.28 0 0 0.285 0 0 0.29 0 0 0.295 0 0 0.3 0 0 0.305 0 0 0.31 0 0 0.315 0 0 0.32 0 0 0.325 0 0 0.33 0 0 0.335 0 0 0.34 0 0 0.345 0 0 0.35 0 0 0.355 0 0 0.36 0 0 0.365 0 0 0.37 0 0 0.375 0 0 0.38 0 0 0.385 0 0 0.39 0 0 0.395 0 0 0.4 0 0 0.405 0 0 0.41 0 0 0.415 0 0 0.42 0 0 0.425 0 0 0.43 0 0 0.435 0 0 0.44 0 0 0.445 0 0 0.45 0 0 0.455 0 0 0.46 0 0 0.465 0 0 0.47 0 0 0.475 0 0 0.48 0 0 0.485 0 0 0.49 0 0 0.495 0 0 0.5 0 0 0.505 0 0 0.51 0 0 0.515 0 0 0.52 0 0 0.525 0 0 0.53 0 0 0.535 0 0 0.54 0 0 0.545 0 0 0.55 0 0 0.555 0 0 0.56 0 0 0.565 0 0 0.57 0 0 0.575 0 0 0.58 0 0 0.585 0 0 0.59 0 0 0.595 0 0 0.6 0 0 0.605 0 0 0.61 0 0 0.615 0 0 0.62 0 0 0.625 0 0 0.63 0 0 0.635 0 0 0.64 0 0 0.645 0 0 0.65 0 0 0.655 0 0 0.66 0 0 0.665 0 0 0.67 0 0 0.675 0 0 0.68 0 0 0.685 0 0 0.69 0 0 0.695 0 0 0.7 0 0 0.705 0 0 0.71 0 0 0.715 0 0 0.72 0 0 0.725 0 0 0.73 0 0 0.735 0 0 0.74 0 0 0.745 0 0 0.75 0 0 0.755 0 0 0.76 0 0 0.765 0 0 0.77 0 0 0.775 0 0 0.78 0 0 0.785 0 0 0.79 0 0 0.795 0 0 0.8 0 0 0.805 0 0 0.81 0 0 0.815 0 0 0.82 0 0 0.825 0 0 0.83 0 0 0.835 0 0 0.84 0 0 0.845 0 0 0.85 0 0 0.855 0 0 0.86 0 0 0.865 0 0 0.87 0 0 0.875 0 0 0.88 0 0 0.885 0 0 0.89 0 0 0.895 0 0 0.9 0 0 0.905 0 0 0.91 0 0 0.915 0 0 0.92 0 0 0.925 0 0 0.93 0 0 0.935 0 0 0.94 0 0 0.945 0 0 0.95 0 0 0.955 0 0 0.96 0 0 0.965 0 0 0.97 0 0 0.975 0 0 0.98 0 0 0.985 0 0 0.99 0 0 0.995 0 0 1 0 0 0 0.02 0 0.005 0.02 0 0.01 0.02 0 0.015 0.02 0 0.02 0.02 0 0.025 0.02 0 0.03 0.02 0 0.035 0.02 0 0.04 0.02 0 0.045 0.02 0 0.05 0.02 0 0.055 0.02 0 0.06 0.02 0 0.065 0.02 0 0.07 0.02 0 0.075 0.02 0 0.08 0.02 0 0.085 0.02 0 0.09 0.02 0 0.095 0.02 0 0.1 0.02 0 0.105 0.02 0 0.11 0.02 0 0.115 0.02 0 0.12 0.02 0 0.125 0.02 0 0.13 0.02 0 0.135 0.02 0 0.14 0.02 0 0.145 0.02 0 0.15 0.02 0 0.155 0.02 0 0.16 0.02 0 0.165 0.02 0 0.17 0.02 0 0.175 0.02 0 0.18 0.02 0 0.185 0.02 0 0.19 0.02 0 0.195 0.02 0 0.2 0.02 0 0.205 0.02 0 0.21 0.02 0 0.215 0.02 0 0.22 0.02 0 0.225 0.02 0 0.23 0.02 0 0.235 0.02 0 0.24 0.02 0 0.245 0.02 0 0.25 0.02 0 0.255 0.02 0 0.26 0.02 0 0.265 0.02 0 0.27 0.02 0 0.275 0.02 0 0.28 0.02 0 0.285 0.02 0 0.29 0.02 0 0.295 0.02 0 0.3 0.02 0 0.305 0.02 0 0.31 0.02 0 0.315 0.02 0 0.32 0.02 0 0.325 0.02 0 0.33 0.02 0 0.335 0.02 0 0.34 0.02 0 0.345 0.02 0 0.35 0.02 0 0.355 0.02 0 0.36 0.02 0 0.365 0.02 0 0.37 0.02 0 0.375 0.02 0 0.38 0.02 0 0.385 0.02 0 0.39 0.02 0 0.395 0.02 0 0.4 0.02 0 0.405 0.02 0 0.41 0.02 0 0.415 0.02 0 0.42 0.02 0 0.425 0.02 0 0.43 0.02 0 0.435 0.02 0 0.44 0.02 0 0.445 0.02 0 0.45 0.02 0 0.455 0.02 0 0.46 0.02 0 0.465 0.02 0 0.47 0.02 0 0.475 0.02 0 0.48 0.02 0 0.485 0.02 0 0.49 0.02 0 0.495 0.02 0 0.5 0.02 0 0.505 0.02 0 0.51 0.02 0 0.515 0.02 0 0.52 0.02 0 0.525 0.02 0 0.53 0.02 0 0.535 0.02 0 0.54 0.02 0 0.545 0.02 0 0.55 0.02 0 0.555 0.02 0 0.56 0.02 0 0.565 0.02 0 0.57 0.02 0 0.575 0.02 0 0.58 0.02 0 0.585 0.02 0 0.59 0.02 0 0.595 0.02 0 0.6 0.02 0 0.605 0.02 0 0.61 0.02 0 0.615 0.02 0 0.62 0.02 0 0.625 0.02 0 0.63 0.02 0 0.635 0.02 0 0.64 0.02 0 0.645 0.02 0 0.65 0.02 0 0.655 0.02 0 0.66 0.02 0 0.665 0.02 0 0.67 0.02 0 0.675 0.02 0 0.68 0.02 0 0.685 0.02 0 0.69 0.02 0 0.695 0.02 0 0.7 0.02 0 0.705 0.02 0 0.71 0.02 0 0.715 0.02 0 0.72 0.02 0 0.725 0.02 0 0.73 0.02 0 0.735 0.02 0 0.74 0.02 0 0.745 0.02 0 0.75 0.02 0 0.755 0.02 0 0.76 0.02 0 0.765 0.02 0 0.77 0.02 0 0.775 0.02 0 0.78 0.02 0 0.785 0.02 0 0.79 0.02 0 0.795 0.02 0 0.8 0.02 0 0.805 0.02 0 0.81 0.02 0 0.815 0.02 0 0.82 0.02 0 0.825 0.02 0 0.83 0.02 0 0.835 0.02 0 0.84 0.02 0 0.845 0.02 0 0.85 0.02 0 0.855 0.02 0 0.86 0.02 0 0.865 0.02 0 0.87 0.02 0 0.875 0.02 0 0.88 0.02 0 0.885 0.02 0 0.89 0.02 0 0.895 0.02 0 0.9 0.02 0 0.905 0.02 0 0.91 0.02 0 0.915 0.02 0 0.92 0.02 0 0.925 0.02 0 0.93 0.02 0 0.935 0.02 0 0.94 0.02 0 0.945 0.02 0 0.95 0.02 0 0.955 0.02 0 0.96 0.02 0 0.965 0.02 0 0.97 0.02 0 0.975 0.02 0 0.98 0.02 0 0.985 0.02 0 0.99 0.02 0 0.995 0.02 0 1 0.02 0 0 0.04 0 0.005 0.04 0 0.01 0.04 0 0.015 0.04 0 0.02 0.04 0 0.025 0.04 0 0.03 0.04 0 0.035 0.04 0 0.04 0.04 0 0.045 0.04 0 0.05 0.04 0 0.055 0.04 0 0.06 0.04 0 0.065 0.04 0 0.07 0.04 0 0.075 0.04 0 0.08 0.04 0 0.085 0.04 0 0.09 0.04 0 0.095 0.04 0 0.1 0.04 0 0.105 0.04 0 0.11 0.04 0 0.115 0.04 0 0.12 0.04 0 0.125 0.04 0 0.13 0.04 0 0.135 0.04 0 0.14 0.04 0 0.145 0.04 0 0.15 0.04 0 0.155 0.04 0 0.16 0.04 0 0.165 0.04 0 0.17 0.04 0 0.175 0.04 0 0.18 0.04 0 0.185 0.04 0 0.19 0.04 0 0.195 0.04 0 0.2 0.04 0 0.205 0.04 0 0.21 0.04 0 0.215 0.04 0 0.22 0.04 0 0.225 0.04 0 0.23 0.04 0 0.235 0.04 0 0.24 0.04 0 0.245 0.04 0 0.25 0.04 0 0.255 0.04 0 0.26 0.04 0 0.265 0.04 0 0.27 0.04 0 0.275 0.04 0 0.28 0.04 0 0.285 0.04 0 0.29 0.04 0 0.295 0.04 0 0.3 0.04 0 0.305 0.04 0 0.31 0.04 0 0.315 0.04 0 0.32 0.04 0 0.325 0.04 0 0.33 0.04 0 0.335 0.04 0 0.34 0.04 0 0.345 0.04 0 0.35 0.04 0 0.355 0.04 0 0.36 0.04 0 0.365 0.04 0 0.37 0.04 0 0.375 0.04 0 0.38 0.04 0 0.385 0.04 0 0.39 0.04 0 0.395 0.04 0 0.4 0.04 0 0.405 0.04 0 0.41 0.04 0 0.415 0.04 0 0.42 0.04 0 0.425 0.04 0 0.43 0.04 0 0.435 0.04 0 0.44 0.04 0 0.445 0.04 0 0.45 0.04 0 0.455 0.04 0 0.46 0.04 0 0.465 0.04 0 0.47 0.04 0 0.475 0.04 0 0.48 0.04 0 0.485 0.04 0 0.49 0.04 0 0.495 0.04 0 0.5 0.04 0 0.505 0.04 0 0.51 0.04 0 0.515 0.04 0 0.52 0.04 0 0.525 0.04 0 0.53 0.04 0 0.535 0.04 0 0.54 0.04 0 0.545 0.04 0 0.55 0.04 0 0.555 0.04 0 0.56 0.04 0 0.565 0.04 0 0.57 0.04 0 0.575 0.04 0 0.58 0.04 0 0.585 0.04 0 0.59 0.04 0 0.595 0.04 0 0.6 0.04 0 0.605 0.04 0 0.61 0.04 0 0.615 0.04 0 0.62 0.04 0 0.625 0.04 0 0.63 0.04 0 0.635 0.04 0 0.64 0.04 0 0.645 0.04 0 0.65 0.04 0 0.655 0.04 0 0.66 0.04 0 0.665 0.04 0 0.67 0.04 0 0.675 0.04 0 0.68 0.04 0 0.685 0.04 0 0.69 0.04 0 0.695 0.04 0 0.7 0.04 0 0.705 0.04 0 0.71 0.04 0 0.715 0.04 0 0.72 0.04 0 0.725 0.04 0 0.73 0.04 0 0.735 0.04 0 0.74 0.04 0 0.745 0.04 0 0.75 0.04 0 0.755 0.04 0 0.76 0.04 0 0.765 0.04 0 0.77 0.04 0 0.775 0.04 0 0.78 0.04 0 0.785 0.04 0 0.79 0.04 0 0.795 0.04 0 0.8 0.04 0 0.805 0.04 0 0.81 0.04 0 0.815 0.04 0 0.82 0.04 0 0.825 0.04 0 0.83 0.04 0 0.835 0.04 0 0.84 0.04 0 0.845 0.04 0 0.85 0.04 0 0.855 0.04 0 0.86 0.04 0 0.865 0.04 0 0.87 0.04 0 0.875 0.04 0 0.88 0.04 0 0.885 0.04 0 0.89 0.04 0 0.895 0.04 0 0.9 0.04 0 0.905 0.04 0 0.91 0.04 0 0.915 0.04 0 0.92 0.04 0 0.925 0.04 0 0.93 0.04 0 0.935 0.04 0 0.94 0.04 0 0.945 0.04 0 0.95 0.04 0 0.955 0.04 0 0.96 0.04 0 0.965 0.04 0 0.97 0.04 0 0.975 0.04 0 0.98 0.04 0 0.985 0.04 0 0.99 0.04 0 0.995 0.04 0 1 0.04 0 0 0.06 0 0.005 0.06 0 0.01 0.06 0 0.015 0.06 0 0.02 0.06 0 0.025 0.06 0 0.03 0.06 0 0.035 0.06 0 0.04 0.06 0 0.045 0.06 0 0.05 0.06 0 0.055 0.06 0 0.06 0.06 0 0.065 0.06 0 0.07 0.06 0 0.075 0.06 0 0.08 0.06 0 0.085 0.06 0 0.09 0.06 0 0.095 0.06 0 0.1 0.06 0 0.105 0.06 0 0.11 0.06 0 0.115 0.06 0 0.12 0.06 0 0.125 0.06 0 0.13 0.06 0 0.135 0.06 0 0.14 0.06 0 0.145 0.06 0 0.15 0.06 0 0.155 0.06 0 0.16 0.06 0 0.165 0.06 0 0.17 0.06 0 0.175 0.06 0 0.18 0.06 0 0.185 0.06 0 0.19 0.06 0 0.195 0.06 0 0.2 0.06 0 0.205 0.06 0 0.21 0.06 0 0.215 0.06 0 0.22 0.06 0 0.225 0.06 0 0.23 0.06 0 0.235 0.06 0 0.24 0.06 0 0.245 0.06 0 0.25 0.06 0 0.255 0.06 0 0.26 0.06 0 0.265 0.06 0 0.27 0.06 0 0.275 0.06 0 0.28 0.06 0 0.285 0.06 0 0.29 0.06 0 0.295 0.06 0 0.3 0.06 0 0.305 0.06 0 0.31 0.06 0 0.315 0.06 0 0.32 0.06 0 0.325 0.06 0 0.33 0.06 0 0.335 0.06 0 0.34 0.06 0 0.345 0.06 0 0.35 0.06 0 0.355 0.06 0 0.36 0.06 0 0.365 0.06 0 0.37 0.06 0 0.375 0.06 0 0.38 0.06 0 0.385 0.06 0 0.39 0.06 0 0.395 0.06 0 0.4 0.06 0 0.405 0.06 0 0.41 0.06 0 0.415 0.06 0 0.42 0.06 0 0.425 0.06 0 0.43 0.06 0 0.435 0.06 0 0.44 0.06 0 0.445 0.06 0 0.45 0.06 0 0.455 0.06 0 0.46 0.06 0 0.465 0.06 0 0.47 0.06 0 0.475 0.06 0 0.48 0.06 0 0.485 0.06 0 0.49 0.06 0 0.495 0.06 0 0.5 0.06 0 0.505 0.06 0 0.51 0.06 0 0.515 0.06 0 0.52 0.06 0 0.525 0.06 0 0.53 0.06 0 0.535 0.06 0 0.54 0.06 0 0.545 0.06 0 0.55 0.06 0 0.555 0.06 0 0.56 0.06 0 0.565 0.06 0 0.57 0.06 0 0.575 0.06 0 0.58 0.06 0 0.585 0.06 0 0.59 0.06 0 0.595 0.06 0 0.6 0.06 0 0.605 0.06 0 0.61 0.06 0 0.615 0.06 0 0.62 0.06 0 0.625 0.06 0 0.63 0.06 0 0.635 0.06 0 0.64 0.06 0 0.645 0.06 0 0.65 0.06 0 0.655 0.06 0 0.66 0.06 0 0.665 0.06 0 0.67 0.06 0 0.675 0.06 0 0.68 0.06 0 0.685 0.06 0 0.69 0.06 0 0.695 0.06 0 0.7 0.06 0 0.705 0.06 0 0.71 0.06 0 0.715 0.06 0 0.72 0.06 0 0.725 0.06 0 0.73 0.06 0 0.735 0.06 0 0.74 0.06 0 0.745 0.06 0 0.75 0.06 0 0.755 0.06 0 0.76 0.06 0 0.765 0.06 0 0.77 0.06 0 0.775 0.06 0 0.78 0.06 0 0.785 0.06 0 0.79 0.06 0 0.795 0.06 0 0.8 0.06 0 0.805 0.06 0 0.81 0.06 0 0.815 0.06 0 0.82 0.06 0 0.825 0.06 0 0.83 0.06 0 0.835 0.06 0 0.84 0.06 0 0.845 0.06 0 0.85 0.06 0 0.855 0.06 0 0.86 0.06 0 0.865 0.06 0 0.87 0.06 0 0.875 0.06 0 0.88 0.06 0 0.885 0.06 0 0.89 0.06 0 0.895 0.06 0 0.9 0.06 0 0.905 0.06 0 0.91 0.06 0 0.915 0.06 0 0.92 0.06 0 0.925 0.06 0 0.93 0.06 0 0.935 0.06 0 0.94 0.06 0 0.945 0.06 0 0.95 0.06 0 0.955 0.06 0 0.96 0.06 0 0.965 0.06 0 0.97 0.06 0 0.975 0.06 0 0.98 0.06 0 0.985 0.06 0 0.99 0.06 0 0.995 0.06 0 1 0.06 0 0 0.08 0 0.005 0.08 0 0.01 0.08 0 0.015 0.08 0 0.02 0.08 0 0.025 0.08 0 0.03 0.08 0 0.035 0.08 0 0.04 0.08 0 0.045 0.08 0 0.05 0.08 0 0.055 0.08 0 0.06 0.08 0 0.065 0.08 0 0.07 0.08 0 0.075 0.08 0 0.08 0.08 0 0.085 0.08 0 0.09 0.08 0 0.095 0.08 0 0.1 0.08 0 0.105 0.08 0 0.11 0.08 0 0.115 0.08 0 0.12 0.08 0 0.125 0.08 0 0.13 0.08 0 0.135 0.08 0 0.14 0.08 0 0.145 0.08 0 0.15 0.08 0 0.155 0.08 0 0.16 0.08 0 0.165 0.08 0
[...]
			<CellData Scalars="Density">
				<DataArray Name="Density" type="Float32" format="ascii">
 1 1 1 1 1 1 1 1 1 1 1 1 1 1 1 1 1 1 1 1 1 1 1 1 1 1 1 1 1 1 1 1 1 1 1 0.999999 0.999998 0.999995 0.999988 0.99997 0.999922 0.999811 0.999573 0.999115 0.998304 0.996982 0.994975 0.992121 0.988286 0.983383 0.977377 0.970282 0.962151 0.953068 0.943134 0.932457 0.921146 0.909303 0.897022 0.884386 0.871472 0.85835 0.84508 0.831717 0.818307 0.804888 0.791488 0.778135 0.764858 0.751663 0.738586 0.72561 0.712787 0.700083 0.687549 0.675153 0.662937 0.650878 0.638998 0.627301 0.61578 0.604463 0.593325 0.5824 0.571676 0.561175 0.550883 0.540837 0.531034 0.521488 0.512219 0.503255 0.494617 0.486323 0.478418 0.470945 0.463946 0.457454 0.451518 0.446177 0.441459 0.437391 0.433999 0.43123 0.428966 0.427172 0.425909 0.425113 0.424516 0.423973 0.423561 0.423355 0.423299 0.423272 0.423226 0.423134 0.422964 0.422746 0.422604 0.422519 0.422445 0.42236 0.422229 0.422008 0.421662 0.421167 0.420501 0.419604 0.41831 0.416277 0.412945 0.407535 0.399134 0.386846 0.370022 0.348538 0.323696 0.302749 0.288017 0.27838 0.272528 0.269249 0.267578 0.26683 0.266561 0.266508 0.266526 0.266597 0.266704 0.266786 0.266838 0.266873 0.266899 0.266919 0.266935 0.266944 0.266952 0.266952 0.266954 0.266942 0.266936 0.266867 0.266828 0.266353 0.265918 0.262957 0.258316 0.241344 0.21229 0.158659 0.130994 0.125943 0.125144 0.125022 0.125003 0.125001 0.125 0.125 0.125 0.125 0.125 0.125 0.125 0.125 0.125 0.125 0.125 0.125 0.125 0.125 0.125 0.125 0.125 0.125 0.125 0.125 0.125 0.125 0.125 0.125 1 1 1 1 1 1 1 1 1 1 1 1 1 1 1 1 1 1 1 1 1 1 1 1 1 1 1 1 1 1 1 1 1 1 1 0.999999 0.999998 0.999995 0.999988 0.99997 0.999922 0.999811 0.999573 0.999115 0.998304 0.996982 0.994975 0.992121 0.988286 0.983383 0.977377 0.970282 0.962151 0.953068 0.943134 0.932457 0.921146 0.909303 0.897022 0.884386 0.871472 0.85835 0.84508 0.831717 0.818307 0.804888 0.791488 0.778135 0.764858 0.751663 0.738586 0.72561 0.712787 0.700083 0.687549 0.675153 0.662937 0.650878 0.638998 0.627301 0.61578 0.604463 0.593325 0.5824 0.571676 0.561175 0.550883 0.540837 0.531034 0.521488 0.512219 0.503255 0.494617 0.486323 0.478418 0.470945 0.463946 0.457454 0.451518 0.446177 0.441459 0.437391 0.433999 0.43123 0.428966 0.427172 0.425909 0.425113 0.424516 0.423973 0.423561 0.423355 0.423299 0.423272 0.423226 0.423134 0.422964 0.422746 0.422604 0.422519 0.422445 0.42236 0.422229 0.422008 0.421662 0.421167 0.420501 0.419604 0.41831 0.416277 0.412945 0.407535 0.399134 0.386846 0.370022 0.348538 0.323696 0.302749 0.288017 0.27838 0.272528 0.269249 0.267578 0.26683 0.266561 0.266508 0.266526 0.266597 0.266704 0.266786 0.266838 0.266873 0.266899 0.266919 0.266935 0.266944 0.266952 0.266952 0.266954 0.266942 0.266936 0.266867 0.266828 0.266353 0.265918 0.262957 0.258316 0.241344 0.21229 0.158659 0.130994 0.125943 0.125144 0.125022 0.125003 0.125001 0.125 0.125 0.125 0.125 0.125 0.125 0.125 0.125 0.125 0.125 0.125 0.125 0.125 0.125 0.125 0.125 0.125 0.125 0.125 0.125 0.125 0.125 0.125 0.125 1 1 1 1 1 1 1 1 1 1 1 1 1 1 1 1 1 1 1 1 1 1 1 1 1 1 1 1 1 1 1 1 1 1 1 0.999999 0.999998 0.999995 0.999988 0.99997 0.999922 0.999811 0.999573 0.999115 0.998304 0.996982 0.994975 0.992121 0.988286 0.983383 0.977377 0.970282 0.962151 0.953068 0.943134 0.932457 0.921146 0.909303 0.897022 0.884386 0.871472 0.85835 0.84508 0.831717 0.818307 0.804888 0.791488 0.778135 0.764858 0.751663 0.738586 0.72561 0.712787 0.700083 0.687549 0.675153 0.662937 0.650878 0.638998 0.627301 0.61578 0.604463 0.593325 0.5824 0.571676 0.561175 0.550883 0.540837 0.531034 0.521488 0.512219 0.503255 0.494617 0.486323 0.478418 0.470945 0.463946 0.457454 0.451518 0.446177 0.441459 0.437391 0.433999 0.43123 0.428966 0.427172 0.425909 0.425113 0.424516 0.423973 0.423561 0.423355 0.423299 0.423272 0.423226 0.423134 0.422964 0.422746 0.422604 0.422519 0.422445 0.42236 0.422229 0.422008 0.421662 0.421167 0.420501 0.419604 0.41831 0.416277 0.412945 0.407535 0.399134 0.386846 0.370022 0.348538 0.323696 0.302749 0.288017 0.27838 0.272528 0.269249 0.267578 0.26683 0.266561 0.266508 0.266526 0.266597 0.266704 0.266786 0.266838 0.266873 0.266899 0.266919 0.266935 0.266944 0.266952 0.266952 0.266954 0.266942 0.266936 0.266867 0.266828 0.266353 0.265918 0.262957 0.258316 0.241344 0.21229 0.158659 0.130994 0.125943 0.125144 0.125022 0.125003 0.125001 0.125 0.125 0.125 0.125 0.125 0.125 0.125 0.125 0.125 0.125 0.125 0.125 0.125 0.125 0.125 0.125 0.125 0.125 0.125 0.125 0.125 0.125 0.125 0.125 1 1 1 1 1 1 1 1 1 1 1 1 1 1 1 1 1 1 1 1 1 1 1 1 1 1 1 1 1 1 1 1 1 1 1 0.999999 0.999998 0.999995 0.999988 0.99997 0.999922 0.999811 0.999573 0.999115 0.998304 0.996982 0.994975 0.992121 0.988286 0.983383 0.977377 0.970282 0.962151 0.953068 0.943134 0.932457 0.921146 0.909303 0.897022 0.884386 0.871472 0.85835 0.84508 0.831717 0.818307 0.804888 0.791488 0.778135 0.764858 0.751663 0.738586 0.72561 0.712787 0.700083 0.687549 0.675153 0.662937 0.650878 0.638998 0.627301 0.61578 0.604463 0.593325 0.5824 0.571676 0.561175 0.550883 0.540837 0.531034 0.521488 0.512219 0.503255 0.494617 0.486323 0.478418 0.470945 0.463946 0.457454 0.451518 0.446177 0.441459 0.437391 0.433999 0.43123 0.428966 0.427172 0.425909 0.425113 0.424516 0.423973 0.423561 0.423355 0.423299 0.423272 0.423226 0.423134 0.422964 0.422746 0.422604 0.422519 0.422445 0.42236 0.422229 0.422008 0.421662 0.421167 0.420501 0.419604 0.41831 0.416277 0.412945 0.407535 0.399134 0.386846 0.370022 0.348538 0.323696 0.302749 0.288017 0.27838 0.272528 0.269249 0.267578 0.26683 0.266561 0.266508 0.266526 0.266597 0.266704 0.266786 0.266838 0.266873 0.266899 0.266919 0.266935 0.266944 0.266952 0.266952 0.266954 0.266942 0.266936 0.266867 0.266828 0.266353 0.265918 0.262957 0.258316 0.241344 0.21229 0.158659 0.130994 0.125943 0.125144 0.125022 0.125003 0.125001 0.125 0.125 0.125 0.125 0.125 0.125 0.125 0.125 0.125 0.125 0.125 0.125 0.125 0.125 0.125 0.125 0.125 0.125 0.125 0.125 0.125 0.125 0.125 0.125 1 1 1 1 1 1 1 1 1 1 1 1 1 1 1 1 1 1 1 1 1 1 1 1 1 1 1 1 1 1 1 1 1 1 1 0.999999 0.999998 0.999995 0.999988 0.99997 0.999922 0.999811 0.999573 0.999115 0.998304 0.996982 0.994975 0.992121 0.988286 0.983383 0.977377 0.970282 0.962151 0.953068 0.943134 0.932457 0.921146 0.909303 0.897022 0.884386 0.871472 0.85835 0.84508 0.831717 0.818307 0.804888 0.791488 0.778135 0.764858 0.751663 0.738586 0.72561 0.712787 0.700083 0.687549 0.675153 0.662937 0.650878 0.638998 0.627301 0.61578 0.604463 0.593325 0.5824 0.571676 0.561175 0.550883 0.540837 0.531034 0.521488 0.512219 0.503255 0.494617 0.486323 0.478418 0.470945 0.463946 0.457454 0.451518 0.446177 0.441459 0.437391 0.433999 0.43123 0.428966 0.427172 0.425909 0.425113 0.424516 0.423973 0.423561 0.423355 0.423299 0.423272 0.423226 0.423134 0.422964 0.422746 0.422604 0.422519 0.422445 0.42236 0.422229 0.422008 0.421662 0.421167 0.420501 0.419604 0.41831 0.416277 0.412945 0.407535 0.399134 0.386846 0.370022 0.348538 0.323696 0.302749 0.288017 0.27838 0.272528 0.269249 0.267578 0.26683 0.266561 0.266508 0.266526 0.266597 0.266704 0.266786 0.266838 0.266873 0.266899 0.266919 0.266935 0.266944 0.266952 0.266952 0.266954 0.266942 0.266936 0.266867 0.266828 0.266353 0.265918 0.262957 0.258316 0.241344 0.21229 0.158659 0.130994 0.125943 0.125144 0.125022 0.125003 0.125001 0.125 0.125 0.125 0.125 0.125 0.125 0.125 0.125 0.125 0.125 0.125 0.125 0.125 0.125 0.125 0.125 0.125 0.125 0.125 0.125 0.125 0.125 0.125 0.125
				</DataArray>
				<DataArray Name="Energy" type="Float32" format="ascii">
 2.5 2.5 2.5 2.5 2.5 2.5 2.5 2.5 2.5 2.5 2.5 2.5 2.5 2.5 2.5 2.5 2.5 2.5 2.5 2.5 2.5 2.5 2.5 2.5 2.5 2.5 2.5 2.5 2.5 2.5 2.5 2.5 2.5 2.5 2.5 2.5 2.5 2.5 2.49999 2.49997 2.49992 2.49981 2.49957 2.49912 2.4983 2.49698 2.49497 2.49211 2.48826 2.48333 2.47727 2.47009 2.46183 2.45256 2.44237 2.43135 2.41959 2.4072 2.39425 2.38082 2.36699 2.35281 2.33834 2.32363 2.30872 2.29366 2.27848 2.26321 2.24787 2.23247 2.21705 2.2016 2.18617 2.17071 2.15531 2.13991 2.12457 2.10927 2.09404 2.07887 2.06378 2.04877 2.03386 2.01909 2.00439 1.98987 1.9755 1.96129 1.94728 1.93351 1.92001 1.90679 1.89392 1.88148 1.86952 1.85808 1.84725 1.83717 1.82791 1.81954 1.81217 1.80578 1.80028 1.79577 1.7925 1.7903 1.78845 1.78671 1.78565 1.78566 1.78614 1.78634 1.78623 1.78618 1.78632 1.78678 1.78762 1.78867 1.78937 1.78982 1.79022 1.79066 1.79129 1.7923 1.79384 1.79602 1.79893 1.80284 1.80848 1.81737 1.83208 1.85644 1.89554 1.95577 2.04469 2.17072 2.3373 2.49901 2.62681 2.71774 2.77609 2.8099 2.82744 2.83538 2.83826 2.83887 2.83872 2.83802 2.83692 2.83611 2.83562 2.83529 2.83504 2.83483 2.83465 2.83449 2.83434 2.83421 2.8341 2.83395 2.83386 2.83351 2.8333 2.83124 2.82936 2.81664 2.79605 2.71805 2.56071 2.23275 2.03998 2.00608 2.00093 2.00014 2.00002 2 2 2 2 2 2 2 2 2 2 2 2 2 2 2 2 2 2 2 2 2 2 2 2 2 2.5 2.5 2.5 2.5 2.5 2.5 2.5 2.5 2.5 2.5 2.5 2.5 2.5 2.5 2.5 2.5 2.5 2.5 2.5 2.5 2.5 2.5 2.5 2.5 2.5 2.5 2.5 2.5 2.5 2.5 2.5 2.5 2.5 2.5 2.5 2.5 2.5 2.5 2.49999 2.49997 2.49992 2.49981 2.49957 2.49912 2.4983 2.49698 2.49497 2.49211 2.48826 2.48333 2.47727 2.47009 2.46183 2.45256 2.44237 2.43135 2.41959 2.4072 2.39425 2.38082 2.36699 2.35281 2.33834 2.32363 2.30872 2.29366 2.27848 2.26321 2.24787 2.23247 2.21705 2.2016 2.18617 2.17071 2.15531 2.13991 2.12457 2.10927 2.09404 2.07887 2.06378 2.04877 2.03386 2.01909 2.00439 1.98987 1.9755 1.96129 1.94728 1.93351 1.92001 1.90679 1.89392 1.88148 1.86952 1.85808 1.84725 1.83717 1.82791 1.81954 1.81217 1.80578 1.80028 1.79577 1.7925 1.7903 1.78845 1.78671 1.78565 1.78566 1.78614 1.78634 1.78623 1.78618 1.78632 1.78678 1.78762 1.78867 1.78937 1.78982 1.79022 1.79066 1.79129 1.7923 1.79384 1.79602 1.79893 1.80284 1.80848 1.81737 1.83208 1.85644 1.89554 1.95577 2.04469 2.17072 2.3373 2.49901 2.62681 2.71774 2.77609 2.8099 2.82744 2.83538 2.83826 2.83887 2.83872 2.83802 2.83692 2.83611 2.83562 2.83529 2.83504 2.83483 2.83465 2.83449 2.83434 2.83421 2.8341 2.83395 2.83386 2.83351 2.8333 2.83124 2.82936 2.81664 2.79605 2.71805 2.56071 2.23275 2.03998 2.00608 2.00093 2.00014 2.00002 2 2 2 2 2 2 2 2 2 2 2 2 2 2 2 2 2 2 2 2 2 2 2 2 2 2.5 2.5 2.5 2.5 2.5 2.5 2.5 2.5 2.5 2.5 2.5 2.5 2.5 2.5 2.5 2.5 2.5 2.5 2.5 2.5 2.5 2.5 2.5 2.5 2.5 2.5 2.5 2.5 2.5 2.5 2.5 2.5 2.5 2.5 2.5 2.5 2.5 2.5 2.49999 2.49997 2.49992 2.49981 2.49957 2.49912 2.4983 2.49698 2.49497 2.49211 2.48826 2.48333 2.47727 2.47009 2.46183 2.45256 2.44237 2.43135 2.41959 2.4072 2.39425 2.38082 2.36699 2.35281 2.33834 2.32363 2.30872 2.29366 2.27848 2.26321 2.24787 2.23247 2.21705 2.2016 2.18617 2.17071 2.15531 2.13991 2.12457 2.10927 2.09404 2.07887 2.06378 2.04877 2.03386 2.01909 2.00439 1.98987 1.9755 1.96129 1.94728 1.93351 1.92001 1.90679 1.89392 1.88148 1.86952 1.85808 1.84725 1.83717 1.82791 1.81954 1.81217 1.80578 1.80028 1.79577 1.7925 1.7903 1.78845 1.78671 1.78565 1.78566 1.78614 1.78634 1.78623 1.78618 1.78632 1.78678 1.78762 1.78867 1.78937 1.78982 1.79022 1.79066 1.79129 1.7923 1.79384 1.79602 1.79893 1.80284 1.80848 1.81737 1.83208 1.85644 1.89554 1.95577 2.04469 2.17072 2.3373 2.49901 2.62681 2.71774 2.77609 2.8099 2.82744 2.83538 2.83826 2.83887 2.83872 2.83802 2.83692 2.83611 2.83562 2.83529 2.83504 2.83483 2.83465 2.83449 2.83434 2.83421 2.8341 2.83395 2.83386 2.83351 2.8333 2.83124 2.82936 2.81664 2.79605 2.71805 2.56071 2.23275 2.03998 2.00608 2.00093 2.00014 2.00002 2 2 2 2 2 2 2 2 2 2 2 2 2 2 2 2 2 2 2 2 2 2 2 2 2 2.5 2.5 2.5 2.5 2.5 2.5 2.5 2.5 2.5 2.5 2.5 2.5 2.5 2.5 2.5 2.5 2.5 2.5 2.5 2.5 2.5 2.5 2.5 2.5 2.5 2.5 2.5 2.5 2.5 2.5 2.5 2.5 2.5 2.5 2.5 2.5 2.5 2.5 2.49999 2.49997 2.49992 2.49981 2.49957 2.49912 2.4983 2.49698 2.49497 2.49211 2.48826 2.48333 2.47727 2.47009 2.46183 2.45256 2.44237 2.43135 2.41959 2.4072 2.39425 2.38082 2.36699 2.35281 2.33834 2.32363 2.30872 2.29366 2.27848 2.26321 2.24787 2.23247 2.21705 2.2016 2.18617 2.17071 2.15531 2.13991 2.12457 2.10927 2.09404 2.07887 2.06378 2.04877 2.03386 2.01909 2.00439 1.98987 1.9755 1.96129 1.94728 1.93351 1.92001 1.90679 1.89392 1.88148 1.86952 1.85808 1.84725 1.83717 1.82791 1.81954 1.81217 1.80578 1.80028 1.79577 1.7925 1.7903 1.78845 1.78671 1.78565 1.78566 1.78614 1.78634 1.78623 1.78618 1.78632 1.78678 1.78762 1.78867 1.78937 1.78982 1.79022 1.79066 1.79129 1.7923 1.79384 1.79602 1.79893 1.80284 1.80848 1.81737 1.83208 1.85644 1.89554 1.95577 2.04469 2.17072 2.3373 2.49901 2.62681 2.71774 2.77609 2.8099 2.82744 2.83538 2.83826 2.83887 2.83872 2.83802 2.83692 2.83611 2.83562 2.83529 2.83504 2.83483 2.83465 2.83449 2.83434 2.83421 2.8341 2.83395 2.83386 2.83351 2.8333 2.83124 2.82936 2.81664 2.79605 2.71805 2.56071 2.23275 2.03998 2.00608 2.00093 2.00014 2.00002 2 2 2 2 2 2 2 2 2 2 2 2 2 2 2 2 2 2 2 2 2 2 2 2 2 2.5 2.5 2.5 2.5 2.5 2.5 2.5 2.5 2.5 2.5 2.5 2.5 2.5 2.5 2.5 2.5 2.5 2.5 2.5 2.5 2.5 2.5 2.5 2.5 2.5 2.5 2.5 2.5 2.5 2.5 2.5 2.5 2.5 2.5 2.5 2.5 2.5 2.5 2.49999 2.49997 2.49992 2.49981 2.49957 2.49912 2.4983 2.49698 2.49497 2.49211 2.48826 2.48333 2.47727 2.47009 2.46183 2.45256 2.44237 2.43135 2.41959 2.4072 2.39425 2.38082 2.36699 2.35281 2.33834 2.32363 2.30872 2.29366 2.27848 2.26321 2.24787 2.23247 2.21705 2.2016 2.18617 2.17071 2.15531 2.13991 2.12457 2.10927 2.09404 2.07887 2.06378 2.04877 2.03386 2.01909 2.00439 1.98987 1.9755 1.96129 1.94728 1.93351 1.92001 1.90679 1.89392 1.88148 1.86952 1.85808 1.84725 1.83717 1.82791 1.81954 1.81217 1.80578 1.80028 1.79577 1.7925 1.7903 1.78845 1.78671 1.78565 1.78566 1.78614 1.78634 1.78623 1.78618 1.78632 1.78678 1.78762 1.78867 1.78937 1.78982 1.79022 1.79066 1.79129 1.7923 1.79384 1.79602 1.79893 1.80284 1.80848 1.81737 1.83208 1.85644 1.89554 1.95577 2.04469 2.17072 2.3373 2.49901 2.62681 2.71774 2.77609 2.8099 2.82744 2.83538 2.83826 2.83887 2.83872 2.83802 2.83692 2.83611 2.83562 2.83529 2.83504 2.83483 2.83465 2.83449 2.83434 2.83421 2.8341 2.83395 2.83386 2.83351 2.8333 2.83124 2.82936 2.81664 2.79605 2.71805 2.56071 2.23275 2.03998 2.00608 2.00093 2.00014 2.00002 2 2 2 2 2 2 2 2 2 2 2 2 2 2 2 2 2 2 2 2 2 2 2 2 2
				</DataArray>
				<DataArray Name="F1" type="Float32" format="ascii">
 1 1 1 1 1 1 1 1 1 1 1 1 1 1 1 1 1 1 1 1 1 1 1 1 1 1 1 1 1 1 1 1 1 1 1 1 1 1 1 1 1 1 1 1 1 1 1 1 1 1 1 1 1 1 1 1 1 1 1 1 1 1 1 1 1 1 1 1 1 1 1 1 1 1 1 1 1 1 1 1 1 1 1 1 1 1 1 1 1 1 1 1 1 1 1 1 1 1 1 1 1 1 1 1 1 1 1 1 1 1 1 1 1 1 1 1 1 1 1 1 1 1 1 1 1 1 1 1 1 1 1 1 1 1 1 1 1 1 1 1 1 1 1 1 1 1 1 1 1 1 1 1 1 1 1 1 1 1 1 1 1 1 1 1 1 1 1 1 1 1 1 1 1 1 1 1 1 1 1 1 1 1 1 1 1 1 1 1 1 1 1 1 1 1 1 1 1 1 1 1 1 1 1 1 1 1 1 1 1 1 1 1 1 1 1 1 1 1 1 1 1 1 1 1 1 1 1 1 1 1 1 1 1 1 1 1 1 1 1 1 1 1 1 1 1 1 1 1 1 1 1 1 1 1 1 1 1 1 1 1 1 1 1 1 1 1 1 1 1 1 1 1 1 1 1 1 1 1 1 1 1 1 1 1 1 1 1 1 1 1 1 1 1 1 1 1 1 1 1 1 1 1 1 1 1 1 1 1 1 1 1 1 1 1 1 1 1 1 1 1 1 1 1 1 1 1 1 1 1 1 1 1 1 1 1 1 1 1 1 1 1 1 1 1 1 1 1 1 1 1 1 1 1 1 1 1 1 1 1 1 1 1 1 1 1 1 1 1 1 1 1 1 1 1 1 1 1 1 1 1 1 1 1 1 1 1 1 1 1 1 1 1 1 1 1 1 1 1 1 1 1 1 1 1 1 1 1 1 1 1 1 1 1 1 1 1 1 1 1 1 1 1 1 1 1 1 1 1 1 1 1 1 1 1 1 1 1 1 1 1 1 1 1 1 1 1 1 1 1 1 1 1 1 1 1 1 1 1 1 1 1 1 1 1 1 1 1 1 1 1 1 1 1 1 1 1 1 1 1 1 1 1 1 1 1 1 1 1 1 1 1 1 1 1 1 1 1 1 1 1 1 1 1 1 1 1 1 1 1 1 1 1 1 1 1 1 1 1 1 1 1 1 1 1 1 1 1 1 1 1 1 1 1 1 1 1 1 1 1 1 1 1 1 1 1 1 1 1 1 1 1 1 1 1 1 1 1 1 1 1 1 1 1 1 1 1 1 1 1 1 1 1 1 1 1 1 1 1 1 1 1 1 1 1 1 1 1 1 1 1 1 1 1 1 1 1 1 1 1 1 1 1 1 1 1 1 1 1 1 1 1 1 1 1 1 1 1 1 1 1 1 1 1 1 1 1 1 1 1 1 1 1 1 1 1 1 1 1 1 1 1 1 1 1 1 1 1 1 1 1 1 1 1 1 1 1 1 1 1 1 1 1 1 1 1 1 1 1 1 1 1 1 1 1 1 1 1 1 1 1 1 1 1 1 1 1 1 1 1 1 1 1 1 1 1 1 1 1 1 1 1 1 1 1 1 1 1 1 1 1 1 1 1 1 1 1 1 1 1 1 1 1 1 1 1 1 1 1 1 1 1 1 1 1 1 1 1 1 1 1 1 1 1 1 1 1 1 1 1 1 1 1 1 1 1 1 1 1 1 1 1 1 1 1 1 1 1 1 1 1 1 1 1 1 1 1 1 1 1 1 1 1 1 1 1 1 1 1 1 1 1 1 1 1 1 1 1 1 1 1 1 1 1 1 1 1 1 1 1 1 1 1 1 1 1 1 1 1 1 1 1 1 1 1 1 1 1 1 1 1 1 1 1 1 1 1 1 1 1 1 1 1 1 1 1 1 1 1 1 1 1 1 1 1 1 1 1 1 1 1 1 1 1 1 1 1 1 1 1 1 1 1 1 1 1 1 1 1 1 1 1 1 1 1 1 1 1 1 1 1 1 1 1 1 1 1 1 1 1 1 1 1 1 1 1 1 1 1 1 1 1 1 1 1 1 1 1 1 1 1 1 1 1 1 1 1 1 1 1 1 1 1 1 1 1 1 1 1 1 1 1 1 1 1 1 1 1 1 1 1 1 1 1 1 1 1 1 1 1 1 1 1 1 1 1 1 1 1 1 1 1 1 1 1 1 1 1 1 1 1 1 1 1 1 1 1 1 1 1 1 1 1 1 1 1 1 1 1 1 1
				</DataArray>
				<DataArray Name="F2" type="Float32" format="ascii">
 0 0 0 0 0 0 0 0 0 0 0 0 0 0 0 0 0 0 0 0 0 0 0 0 0 0 0 0 0 0 0 0 0 0 0 0 0 0 0 0 0 0 0 0 0 0 0 0 0 0 0 0 0 0 0 0 0 0 0 0 0 0 0 0 0 0 0 0 0 0 0 0 0 0 0 0 0 0 0 0 0 0 0 0 0 0 0 0 0 0 0 0 0 0 0 0 0 0 0 0 0 0 0 0 0 0 0 0 0 0 0 0 0 0 0 0 0 0 0 0 0 0 0 0 0 0 0 0 0 0 0 0 0 0 0 0 0 0 0 0 0 0 0 0 0 0 0 0 0 0 0 0 0 0 0 0 0 0 0 0 0 0 0 0 0 0 0 0 0 0 0 0 0 0 0 0 0 0 0 0 0 0 0 0 0 0 0 0 0 0 0 0 0 0 0 0 0 0 0 0 0 0 0 0 0 0 0 0 0 0 0 0 0 0 0 0 0 0 0 0 0 0 0 0 0 0 0 0 0 0 0 0 0 0 0 0 0 0 0 0 0 0 0 0 0 0 0 0 0 0 0 0 0 0 0 0 0 0 0 0 0 0 0 0 0 0 0 0 0 0 0 0 0 0 0 0 0 0 0 0 0 0 0 0 0 0 0 0 0 0 0 0 0 0 0 0 0 0 0 0 0 0 0 0 0 0 0 0 0 0 0 0 0 0 0 0 0 0 0 0 0 0 0 0 0 0 0 0 0 0 0 0 0 0 0 0 0 0 0 0 0 0 0 0 0 0 0 0 0 0 0 0 0 0 0 0 0 0 0 0 0 0 0 0 0 0 0 0 0 0 0 0 0 0 0 0 0 0 0 0 0 0 0 0 0 0 0 0 0 0 0 0 0 0 0 0 0 0 0 0 0 0 0 0 0 0 0 0 0 0 0 0 0 0 0 0 0 0 0 0 0 0 0 0 0 0 0 0 0 0 0 0 0 0 0 0 0 0 0 0 0 0 0 0 0 0 0 0 0 0 0 0 0 0 0 0 0 0 0 0 0 0 0 0 0 0 0 0 0 0 0 0 0 0 0 0 0 0 0 0 0 0 0 0 0 0 0 0 0 0 0 0 0 0 0 0 0 0 0 0 0 0 0 0 0 0 0 0 0 0 0 0 0 0 0 0 0 0 0 0 0 0 0 0 0 0 0 0 0 0 0 0 0 0 0 0 0 0 0 0 0 0 0 0 0 0 0 0 0 0 0 0 0 0 0 0 0 0 0 0 0 0 0 0 0 0 0 0 0 0 0 0 0 0 0 0 0 0 0 0 0 0 0 0 0 0 0 0 0 0 0 0 0 0 0 0 0 0 0 0 0 0 0 0 0 0 0 0 0 0 0 0 0 0 0 0 0 0 0 0 0 0 0 0 0 0 0 0 0 0 0 0 0 0 0 0 0 0 0 0 0 0 0 0 0 0 0 0 0 0 0 0 0 0 0 0 0 0 0 0 0 0 0 0 0 0 0 0 0 0 0 0 0 0 0 0 0 0 0 0 0 0 0 0 0 0 0 0 0 0 0 0 0 0 0 0 0 0 0 0 0 0 0 0 0 0 0 0 0 0 0 0 0 0 0 0 0 0 0 0 0 0 0 0 0 0 0 0 0 0 0 0 0 0 0 0 0 0 0 0 0 0 0 0 0 0 0 0 0 0 0 0 0 0 0 0 0 0 0 0 0 0 0 0 0 0 0 0 0 0 0 0 0 0 0 0 0 0 0 0 0 0 0 0 0 0 0 0 0 0 0 0 0 0 0 0 0 0 0 0 0 0 0 0 0 0 0 0 0 0 0 0 0 0 0 0 0 0 0 0 0 0 0 0 0 0 0 0 0 0 0 0 0 0 0 0 0 0 0 0 0 0 0 0 0 0 0 0 0 0 0 0 0 0 0 0 0 0 0 0 0 0 0 0 0 0 0 0 0 0 0 0 0 0 0 0 0 0 0 0 0 0 0 0 0 0 0 0 0 0 0 0 0 0 0 0 0 0 0 0 0 0 0 0 0 0 0 0 0 0 0 0 0 0 0 0 0 0 0 0 0 0 0 0 0 0 0 0 0 0 0 0 0 0 0 0 0 0 0 0 0 0 0 0 0 0 0 0 0 0 0 0 0 0 0 0 0 0 0 0 0 0 0 0 0 0 0 0 0 0 0 0 0 0 0 0 0 0 0 0 0 0 0 0 0 0 0 0 0 0 0 0 0 0 0 0 0 0 0 0
				</DataArray>
				<DataArray Name="F3" type="Float32" format="ascii">