<?xml version="1.0"?>
<VTKFile type="PolyData">
	<PolyData>
		<Piece NumberOfPoints="1206" NumberOfPolys="1000">
			<Points>
				<DataArray type="Float32" NumberOfComponents="3" format="ascii">
 0 0 0 0.005 0 0 0.01 0 0 0.015 0 0 0.02 0 0 0.025 0 0 0.03 0 0 0.035 0 0 0.04 0 0 0.045 0 0 0.05 0 0 0.055 0 0 0.06 0 0 0.065 0 0 0.07 0 0 0.075 0 0 0.08 0 0 0.085 0 0 0.09 0 0 0.095 0 0 0.1 0 0 0.105 0 0 0.11 0 0 0.115 0 0 0.12 0 0 0.125 0 0 0.13 0 0 0.135 0 0 0.14 0 0 0.145 0 0 0.15 0 0 0.155 0 0 0.16 0 0 0.165 0 0 0.17 0 0 0.175 0 0 0.18 0 0 0.185 0 0 0.19 0 0 0.195 0 0 0.2 0 0 0.205 0 0 0.21 0 0 0.215 0 0 0.22 0 0 0.225 0 0 0.23 0 0 0.235 0 0 0.24 0 0 0.245 0 0 0.25 0 0 0.255 0 0 0.26 0 0 0.265 0 0 0.27 0 0 0.275 0 0 0.28 0 0 0.285 0 0 0.29 0 0 0.295 0 0 0.3 0 0 0.305 0 0 0.31 0 0 0.315 0 0 0.32 0 0 0.325 0 0 0.33 0 0 0.335 0 0 0.34 0 0 0.345 0 0 0.35 0 0 0.355 0 0 0.36 0 0 0.365 0 0 0.37 0 0 0.375 0 0 0.38 0 0 0.385 0 0 0.39 0 0 0.395 0 0 0.4 0 0 0.405 0 0 0.41 0 0 0.415 0 0 0.42 0 0 0.425 0 0 0.43 0 0 0.435 0 0 0.44 0 0 0.445 0 0 0.45 0 0 0.455 0 0 0.46 0 0 0.465 0 0 0.47 0 0 0.475 0 0 0.48 0 0 0.485 0 0 0.49 0 0 0.495 0 0 0.5 0 0 0.505 0 0 0.51 0 0 0.515 0 0 0.52 0 0 0.525 0 0 0.53 0 0 0.535 0 0 0.54 0 0 0.545 0 0 0.55 0 0 0.555 0 0 0.56 0 0 0.565 0 0 0.57 0 0 0.575 0 0 0.58 0 0 0.585 0 0 0.59 0 0 0.595 0 0 0.6 0 0 0.605 0 0 0.61 0 0 0.615 0 0 0.62 0 0 0.625 0 0 0.63 0 0 0.635 0 0 0.64 0 0 0.645 0 0 0.65 0 0 0.655 0 0 0.66 0 0 0.665 0 0 0.67 0 0 0.675 0 0 0.68 0 0 0.685 0 0 0.69 0 0 0.695 0 0 0.7 0 0 0.705 0 0 0.71 0 0 0.715 0 0 0.72 0 0 0.725 0 0 0.73 0 0 0.735 0 0 0.74 0 0 0.745 0 0 0.75 0 0 0.755 0 0 0.76 0 0 0.765 0 0 0.77 0 0 0.775 0 0 0.78 0 0 0.785 0 0 0.79 0 0 0.795 0 0 0.8 0 0 0.805 0 0 0.81 0 0 0.815 0 0 0.82 0 0 0.825 0 0 0.83 0 0 0.835 0 0 0.84 0 0 0.845 0 0 0.85 0 0 0.855 0 0 0.86 0 0 0.865 0 0 0.87 0 0 0.875 0 0 0.88 0 0 0.885 0 0 0.89 0 0 0.895 0 0 0.9 0 0 0.905 0 0 0.91 0 0 0.915 0 0 0.92 0 0 0.925 0 0 0.93 0 0 0.935 0 0 0.94 0 0 0.945 0 0 0.95 0 0 0.955 0 0 0.96 0 0 0.965 0 0 0.97 0 0 0.975 0 0 0.98 0 0 0.985 0 0 0.99 0 0 0.995 0 0 1 0 0 0 0.02 0 0.005 0.02 0 0.01 0.02 0 0.015 0.02 0 0.02 0.02 0 0.025 0.02 0 0.03 0.02 0 0.035 0.02 0 0.04 0.02 0 0.045 0.02 0 0.05 0.02 0 0.055 0.02 0 0.06 0.02 0 0.065 0.02 0 0.07 0.02 0 0.075 0.02 0 0.08 0.02 0 0.085 0.02 0 0.09 0.02 0 0.095 0.02 0 0.1 0.02 0 0.105 0.02 0 0.11 0.02 0 0.115 0.02 0 0.12 0.02 0 0.125 0.02 0 0.13 0.02 0 0.135 0.02 0 0.14 0.02 0 0.145 0.02 0 0.15 0.02 0 0.155 0.02 0 0.16 0.02 0 0.165 0.02 0 0.17 0.02 0 0.175 0.02 0 0.18 0.02 0 0.185 0.02 0 0.19 0.02 0 0.195 0.02 0 0.2 0.02 0 0.205 0.02 0 0.21 0.02 0 0.215 0.02 0 0.22 0.02 0 0.225 0.02 0 0.23 0.02 0 0.235 0.02 0 0.24 0.02 0 0.245 0.02 0 0.25 0.02 0 0.255 0.02 0 0.26 0.02 0 0.265 0.02 0 0.27 0.02 0 0.275 0.02 0 0.28 0.02 0 0.285 0.02 0 0.29 0.02 0 0.295 0.02 0 0.3 0.02 0 0.305 0.02 0 0.31 0.02 0 0.315 0.02 0 0.32 0.02 0 0.325 0.02 0 0.33 0.02 0 0.335 0.02 0 0.34 0.02 0 0.345 0.02 0 0.35 0.02 0 0.355 0.02 0 0.36 0.02 0 0.365 0.02 0 0.37 0.02 0 0.375 0.02 0 0.38 0.02 0 0.385 0.02 0 0.39 0.02 0 0.395 0.02 0 0.4 0.02 0 0.405 0.02 0 0.41 0.02 0 0.415 0.02 0 0.42 0.02 0 0.425 0.02 0 0.43 0.02 0 0.435 0.02 0 0.44 0.02 0 0.445 0.02 0 0.45 0.02 0 0.455 0.02 0 0.46 0.02 0 0.465 0.02 0 0.47 0.02 0 0.475 0.02 0 0.48 0.02 0 0.485 0.02 0 0.49 0.02 0 0.495 0.02 0 0.5 0.02 0 0.505 0.02 0 0.51 0.02 0 0.515 0.02 0 0.52 0.02 0 0.525 0.02 0 0.53 0.02 0 0.535 0.02 0 0.54 0.02 0 0.545 0.02 0 0.55 0.02 0 0.555 0.02 0 0.56 0.02 0 0.565 0.02 0 0.57 0.02 0 0.575 0.02 0 0.58 0.02 0 0.585 0.02 0 0.59 0.02 0 0.595 0.02 0 0.6 0.02 0 0.605 0.02 0 0.61 0.02 0 0.615 0.02 0 0.62 0.02 0 0.625 0.02 0 0.63 0.02 0 0.635 0.02 0 0.64 0.02 0 0.645 0.02 0 0.65 0.02 0 0.655 0.02 0 0.66 0.02 0 0.665 0.02 0 0.67 0.02 0 0.675 0.02 0 0.68 0.02 0 0.685 0.02 0 0.69 0.02 0 0.695 0.02 0 0.7 0.02 0 0.705 0.02 0 0.71 0.02 0 0.715 0.02 0 0.72 0.02 0 0.725 0.02 0 0.73 0.02 0 0.735 0.02 0 0.74 0.02 0 0.745 0.02 0 0.75 0.02 0 0.755 0.02 0 0.76 0.02 0 0.765 0.02 0 0.77 0.02 0 0.775 0.02 0 0.78 0.02 0 0.785 0.02 0 0.79 0.02 0 0.795 0.02 0 0.8 0.02 0 0.805 0.02 0 0.81 0.02 0 0.815 0.02 0 0.82 0.02 0 0.825 0.02 0 0.83 0.02 0 0.835 0.02 0 0.84 0.02 0 0.845 0.02 0 0.85 0.02 0 0.855 0.02 0 0.86 0.02 0 0.865 0.02 0 0.87 0.02 0 0.875 0.02 0 0.88 0.02 0 0.885 0.02 0 0.89 0.02 0 0.895 0.02 0 0.9 0.02 0 0.905 0.02 0 0.91 0.02 0 0.915 0.02 0 0.92 0.02 0 0.925 0.02 0 0.93 0.02 0 0.935 0.02 0 0.94 0.02 0 0.945 0.02 0 0.95 0.02 0 0.955 0.02 0 0.96 0.02 0 0.965 0.02 0 0.97 0.02 0 0.975 0.02 0 0.98 0.02 0 0.985 0.02 0 0.99 0.02 0 0.995 0.02 0 1 0.02 0 0 0.04 0 0.005 0.04 0 0.01 0.04 0 0.015 0.04 0 0.02 0.04 0 0.025 0.04 0 0.03 0.04 0 0.035 0.04 0 0.04 0.04 0 0.045 0.04 0 0.05 0.04 0 0.055 0.04 0 0.06 0.04 0 0.065 0.04 0 0.07 0.04 0 0.075 0.04 0 0.08 0.04 0 0.085 0.04 0 0.09 0.04 0 0.095 0.04 0 0.1 0.04 0 0.105 0.04 0 0.11 0.04 0 0.115 0.04 0 0.12 0.04 0 0.125 0.04 0 0.13 0.04 0 0.135 0.04 0 0.14 0.04 0 0.145 0.04 0 0.15 0.04 0 0.155 0.04 0 0.16 0.04 0 0.165 0.04 0 0.17 0.04 0 0.175 0.04 0 0.18 0.04 0 0.185 0.04 0 0.19 0.04 0 0.195 0.04 0 0.2 0.04 0 0.205 0.04 0 0.21 0.04 0 0.215 0.04 0 0.22 0.04 0 0.225 0.04 0 0.23 0.04 0 0.235 0.04 0 0.24 0.04 0 0.245 0.04 0 0.25 0.04 0 0.255 0.04 0 0.26 0.04 0 0.265 0.04 0 0.27 0.04 0 0.275 0.04 0 0.28 0.04 0 0.285 0.04 0 0.29 0.04 0 0.295 0.04 0 0.3 0.04 0 0.305 0.04 0 0.31 0.04 0 0.315 0.04 0 0.32 0.04 0 0.325 0.04 0 0.33 0.04 0 0.335 0.04 0 0.34 0.04 0 0.345 0.04 0 0.35 0.04 0 0.355 0.04 0 0.36 0.04 0 0.365 0.04 0 0.37 0.04 0 0.375 0.04 0 0.38 0.04 0 0.385 0.04 0 0.39 0.04 0 0.395 0.04 0 0.4 0.04 0 0.405 0.04 0 0.41 0.04 0 0.415 0.04 0 0.42 0.04 0 0.425 0.04 0 0.43 0.04 0 0.435 0.04 0 0.44 0.04 0 0.445 0.04 0 0.45 0.04 0 0.455 0.04 0 0.46 0.04 0 0.465 0.04 0 0.47 0.04 0 0.475 0.04 0 0.48 0.04 0 0.485 0.04 0 0.49 0.04 0 0.495 0.04 0 0.5 0.04 0 0.505 0.04 0 0.51 0.04 0 0.515 0.04 0 0.52 0.04 0 0.525 0.04 0 0.53 0.04 0 0.535 0.04 0 0.54 0.04 0 0.545 0.04 0 0.55 0.04 0 0.555 0.04 0 0.56 0.04 0 0.565 0.04 0 0.57 0.04 0 0.575 0.04 0 0.58 0.04 0 0.585 0.04 0 0.59 0.04 0 0.595 0.04 0 0.6 0.04 0 0.605 0.04 0 0.61 0.04 0 0.615 0.04 0 0.62 0.04 0 0.625 0.04 0 0.63 0.04 0 0.635 0.04 0 0.64 0.04 0 0.645 0.04 0 0.65 0.04 0 0.655 0.04 0 0.66 0.04 0 0.665 0.04 0 0.67 0.04 0 0.675 0.04 0 0.68 0.04 0 0.685 0.04 0 0.69 0.04 0 0.695 0.04 0 0.7 0.04 0 0.705 0.04 0 0.71 0.04 0 0.715 0.04 0 0.72 0.04 0 0.725 0.04 0 0.73 0.04 0 0.735 0.04 0 0.74 0.04 0 0.745 0.04 0 0.75 0.04 0 0.755 0.04 0 0.76 0.04 0 0.765 0.04 0 0.77 0.04 0 0.775 0.04 0 0.78 0.04 0 0.785 0.04 0 0.79 0.04 0 0.795 0.04 0 0.8 0.04 0 0.805 0.04 0 0.81 0.04 0 0.815 0.04 0 0.82 0.04 0 0.825 0.04 0 0.83 0.04 0 0.835 0.04 0 0.84 0.04 0 0.845 0.04 0 0.85 0.04 0 0.855 0.04 0 0.86 0.04 0 0.865 0.04 0 0.87 0.04 0 0.875 0.04 0 0.88 0.04 0 0.885 0.04 0 0.89 0.04 0 0.895 0.04 0 0.9 0.04 0 0.905 0.04 0 0.91 0.04 0 0.915 0.04 0 0.92 0.04 0 0.925 0.04 0 0.93 0.04 0 0.935 0.04 0 0.94 0.04 0 0.945 0.04 0 0.95 0.04 0 0.955 0.04 0 0.96 0.04 0 0.965 0.04 0 0.97 0.04 0 0.975 0.04 0 0.98 0.04 0 0.985 0.04 0 0.99 0.04 0 0.995 0.04 0 1 0.04 0 0 0.06 0 0.005 0.06 0 0.01 0.06 0 0.015 0.06 0 0.02 0.06 0 0.025 0.06 0 0.03 0.06 0 0.035 0.06 0 0.04 0.06 0 0.045 0.06 0 0.05 0.06 0 0.055 0.06 0 0.06 0.06 0 0.065 0.06 0 0.07 0.06 0 0.075 0.06 0 0.08 0.06 0 0.085 0.06 0 0.09 0.06 0 0.095 0.06 0 0.1 0.06 0 0.105 0.06 0 0.11 0.06 0 0.115 0.06 0 0.12 0.06 0 0.125 0.06 0 0.13 0.06 0 0.135 0.06 0 0.14 0.06 0 0.145 0.06 0 0.15 0.06 0 0.155 0.06 0 0.16 0.06 0 0.165 0.06 0 0.17 0.06 0 0.175 0.06 0 0.18 0.06 0 0.185 0.06 0 0.19 0.06 0 0.195 0.06 0 0.2 0.06 0 0.205 0.06 0 0.21 0.06 0 0.215 0.06 0 0.22 0.06 0 0.225 0.06 0 0.23 0.06 0 0.235 0.06 0 0.24 0.06 0 0.245 0.06 0 0.25 0.06 0 0.255 0.06 0 0.26 0.06 0 0.265 0.06 0 0.27 0.06 0 0.275 0.06 0 0.28 0.06 0 0.285 0.06 0 0.29 0.06 0 0.295 0.06 0 0.3 0.06 0 0.305 0.06 0 0.31 0.06 0 0.315 0.06 0 0.32 0.06 0 0.325 0.06 0 0.33 0.06 0 0.335 0.06 0 0.34 0.06 0 0.345 0.06 0 0.35 0.06 0 0.355 0.06 0 0.36 0.06 0 0.365 0.06 0 0.37 0.06 0 0.375 0.06 0 0.38 0.06 0 0.385 0.06 0 0.39 0.06 0 0.395 0.06 0 0.4 0.06 0 0.405 0.06 0 0.41 0.06 0 0.415 0.06 0 0.42 0.06 0 0.425 0.06 0 0.43 0.06 0 0.435 0.06 0 0.44 0.06 0 0.445 0.06 0 0.45 0.06 0 0.455 0.06 0 0.46 0.06 0 0.465 0.06 0 0.47 0.06 0 0.475 0.06 0 0.48 0.06 0 0.485 0.06 0 0.49 0.06 0 0.495 0.06 0 0.5 0.06 0 0.505 0.06 0 0.51 0.06 0 0.515 0.06 0 0.52 0.06 0 0.525 0.06 0 0.53 0.06 0 0.535 0.06 0 0.54 0.06 0 0.545 0.06 0 0.55 0.06 0 0.555 0.06 0 0.56 0.06 0 0.565 0.06 0 0.57 0.06 0 0.575 0.06 0 0.58 0.06 0 0.585 0.06 0 0.59 0.06 0 0.595 0.06 0 0.6 0.06 0 0.605 0.06 0 0.61 0.06 0 0.615 0.06 0 0.62 0.06 0 0.625 0.06 0 0.63 0.06 0 0.635 0.06 0 0.64 0.06 0 0.645 0.06 0 0.65 0.06 0 0.655 0.06 0 0.66 0.06 0 0.665 0.06 0 0.67 0.06 0 0.675 0.06 0 0.68 0.06 0 0.685 0.06 0 0.69 0.06 0 0.695 0.06 0 0.7 0.06 0 0.705 0.06 0 0.71 0.06 0 0.715 0.06 0 0.72 0.06 0 0.725 0.06 0 0.73 0.06 0 0.735 0.06 0 0.74 0.06 0 0.745 0.06 0 0.75 0.06 0 0.755 0.06 0 0.76 0.06 0 0.765 0.06 0 0.77 0.06 0 0.775 0.06 0 0.78 0.06 0 0.785 0.06 0 0.79 0.06 0 0.795 0.06 0 0.8 0.06 0 0.805 0.06 0 0.81 0.06 0 0.815 0.06 0 0.82 0.06 0 0.825 0.06 0 0.83 0.06 0 0.835 0.06 0 0.84 0.06 0 0.845 0.06 0 0.85 0.06 0 0.855 0.06 0 0.86 0.06 0 0.865 0.06 0 0.87 0.06 0 0.875 0.06 0 0.88 0.06 0 0.885 0.06 0 0.89 0.06 0 0.895 0.06 0 0.9 0.06 0 0.905 0.06 0 0.91 0.06 0 0.915 0.06 0 0.92 0.06 0 0.925 0.06 0 0.93 0.06 0 0.935 0.06 0 0.94 0.06 0 0.945 0.06 0 0.95 0.06 0 0.955 0.06 0 0.96 0.06 0 0.965 0.06 0 0.97 0.06 0 0.975 0.06 0 0.98 0.06 0 0.985 0.06 0 0.99 0.06 0 0.995 0.06 0 1 0.06 0 0 0.08 0 0.005 0.08 0 0.01 0.08 0 0.015 0.08 0 0.02 0.08 0 0.025 0.08 0 0.03 0.08 0 0.035 0.08 0 0.04 0.08 0 0.045 0.08 0 0.05 0.08 0 0.055 0.08 0 0.06 0.08 0 0.065 0.08 0 0.07 0.08 0 0.075 0.08 0 0.08 0.08 0 0.085 0.08 0 0.09 0.08 0 0.095 0.08 0 0.1 0.08 0 0.105 0.08 0 0.11 0.08 0 0.115 0.08 0 0.12 0.08 0 0.125 0.08 0 0.13 0.08 0 0.135 0.08 0 0.14 0.08 0 0.145 0.08 0 0.15 0.08 0 0.155 0.08 0 0.16 0.08 0 0.165 0.08 0
[...]
			<CellData Scalars="Density">
				<DataArray Name="Density" type="Float32" format="ascii">
 1 1 1 1 1 1 1 1 1 1 1 1 1 1 1 1 1 1 1 1 1 1 1 1 1 1 1 1 1 1 1 1 1 1 1 1 1 1 1 1 1 0.999999 0.999998 0.999995 0.999987 0.999967 0.999916 0.99979 0.999511 0.998957 0.997957 0.996304 0.993779 0.990179 0.985351 0.979207 0.97173 0.962969 0.953025 0.942027 0.930122 0.91746 0.904182 0.890421 0.876289 0.861883 0.847278 0.832544 0.817729 0.802886 0.788057 0.773275 0.758567 0.743959 0.72947 0.71512 0.700923 0.686893 0.67304 0.659377 0.645911 0.632652 0.619608 0.606787 0.594197 0.581847 0.569746 0.557905 0.546337 0.535055 0.524077 0.513423 0.503118 0.493194 0.483686 0.47464 0.46611 0.458158 0.450856 0.44428 0.438509 0.433614 0.429651 0.426641 0.424454 0.423603 0.423164 0.423037 0.423102 0.423239 0.423387 0.423422 0.423376 0.423198 0.422964 0.422757 0.422605 0.422516 0.422471 0.422365 0.42205 0.421531 0.421006 0.420506 0.420116 0.419866 0.419519 0.418751 0.416388 0.408507 0.383764 0.350504 0.318733 0.287025 0.260414 0.265132 0.266055 0.266284 0.266334 0.266366 0.266391 0.266397 0.266396 0.266384 0.266341 0.266292 0.266285 0.266291 0.266322 0.266373 0.26642 0.266451 0.266456 0.266457 0.266445 0.266421 0.266342 0.265823 0.264768 0.257588 0.237304 0.184446 0.136009 0.126667 0.125254 0.125039 0.125006 0.125001 0.125 0.125 0.125 0.125 0.125 0.125 0.125 0.125 0.125 0.125 0.125 0.125 0.125 0.125 0.125 0.125 0.125 0.125 0.125 0.125 0.125 0.125 0.125 0.125 0.125 0.125 0.125 0.125 0.125 0.125 0.125 0.125 1 1 1 1 1 1 1 1 1 1 1 1 1 1 1 1 1 1 1 1 1 1 1 1 1 1 1 1 1 1 1 1 1 1 1 1 1 1 1 1 1 0.999999 0.999998 0.999995 0.999987 0.999967 0.999916 0.99979 0.999511 0.998957 0.997957 0.996304 0.993779 0.990179 0.985351 0.979207 0.97173 0.962969 0.953025 0.942027 0.930122 0.91746 0.904182 0.890421 0.876289 0.861883 0.847278 0.832544 0.817729 0.802886 0.788057 0.773275 0.758567 0.743959 0.72947 0.71512 0.700923 0.686893 0.67304 0.659377 0.645911 0.632652 0.619608 0.606787 0.594197 0.581847 0.569746 0.557905 0.546337 0.535055 0.524077 0.513423 0.503118 0.493194 0.483686 0.47464 0.46611 0.458158 0.450856 0.44428 0.438509 0.433614 0.429651 0.426641 0.424454 0.423603 0.423164 0.423037 0.423102 0.423239 0.423387 0.423422 0.423376 0.423198 0.422964 0.422757 0.422605 0.422516 0.422471 0.422365 0.42205 0.421531 0.421006 0.420506 0.420116 0.419866 0.419519 0.418751 0.416388 0.408507 0.383764 0.350504 0.318733 0.287025 0.260414 0.265132 0.266055 0.266284 0.266334 0.266366 0.266391 0.266397 0.266396 0.266384 0.266341 0.266292 0.266285 0.266291 0.266322 0.266373 0.26642 0.266451 0.266456 0.266457 0.266445 0.266421 0.266342 0.265823 0.264768 0.257588 0.237304 0.184446 0.136009 0.126667 0.125254 0.125039 0.125006 0.125001 0.125 0.125 0.125 0.125 0.125 0.125 0.125 0.125 0.125 0.125 0.125 0.125 0.125 0.125 0.125 0.125 0.125 0.125 0.125 0.125 0.125 0.125 0.125 0.125 0.125 0.125 0.125 0.125 0.125 0.125 0.125 0.125 1 1 1 1 1 1 1 1 1 1 1 1 1 1 1 1 1 1 1 1 1 1 1 1 1 1 1 1 1 1 1 1 1 1 1 1 1 1 1 1 1 0.999999 0.999998 0.999995 0.999987 0.999967 0.999916 0.99979 0.999511 0.998957 0.997957 0.996304 0.993779 0.990179 0.985351 0.979207 0.97173 0.962969 0.953025 0.942027 0.930122 0.91746 0.904182 0.890421 0.876289 0.861883 0.847278 0.832544 0.817729 0.802886 0.788057 0.773275 0.758567 0.743959 0.72947 0.71512 0.700923 0.686893 0.67304 0.659377 0.645911 0.632652 0.619608 0.606787 0.594197 0.581847 0.569746 0.557905 0.546337 0.535055 0.524077 0.513423 0.503118 0.493194 0.483686 0.47464 0.46611 0.458158 0.450856 0.44428 0.438509 0.433614 0.429651 0.426641 0.424454 0.423603 0.423164 0.423037 0.423102 0.423239 0.423387 0.423422 0.423376 0.423198 0.422964 0.422757 0.422605 0.422516 0.422471 0.422365 0.42205 0.421531 0.421006 0.420506 0.420116 0.419866 0.419519 0.418751 0.416388 0.408507 0.383764 0.350504 0.318733 0.287025 0.260414 0.265132 0.266055 0.266284 0.266334 0.266366 0.266391 0.266397 0.266396 0.266384 0.266341 0.266292 0.266285 0.266291 0.266322 0.266373 0.26642 0.266451 0.266456 0.266457 0.266445 0.266421 0.266342 0.265823 0.264768 0.257588 0.237304 0.184446 0.136009 0.126667 0.125254 0.125039 0.125006 0.125001 0.125 0.125 0.125 0.125 0.125 0.125 0.125 0.125 0.125 0.125 0.125 0.125 0.125 0.125 0.125 0.125 0.125 0.125 0.125 0.125 0.125 0.125 0.125 0.125 0.125 0.125 0.125 0.125 0.125 0.125 0.125 0.125 1 1 1 1 1 1 1 1 1 1 1 1 1 1 1 1 1 1 1 1 1 1 1 1 1 1 1 1 1 1 1 1 1 1 1 1 1 1 1 1 1 0.999999 0.999998 0.999995 0.999987 0.999967 0.999916 0.99979 0.999511 0.998957 0.997957 0.996304 0.993779 0.990179 0.985351 0.979207 0.97173 0.962969 0.953025 0.942027 0.930122 0.91746 0.904182 0.890421 0.876289 0.861883 0.847278 0.832544 0.817729 0.802886 0.788057 0.773275 0.758567 0.743959 0.72947 0.71512 0.700923 0.686893 0.67304 0.659377 0.645911 0.632652 0.619608 0.606787 0.594197 0.581847 0.569746 0.557905 0.546337 0.535055 0.524077 0.513423 0.503118 0.493194 0.483686 0.47464 0.46611 0.458158 0.450856 0.44428 0.438509 0.433614 0.429651 0.426641 0.424454 0.423603 0.423164 0.423037 0.423102 0.423239 0.423387 0.423422 0.423376 0.423198 0.422964 0.422757 0.422605 0.422516 0.422471 0.422365 0.42205 0.421531 0.421006 0.420506 0.420116 0.419866 0.419519 0.418751 0.416388 0.408507 0.383764 0.350504 0.318733 0.287025 0.260414 0.265132 0.266055 0.266284 0.266334 0.266366 0.266391 0.266397 0.266396 0.266384 0.266341 0.266292 0.266285 0.266291 0.266322 0.266373 0.26642 0.266451 0.266456 0.266457 0.266445 0.266421 0.266342 0.265823 0.264768 0.257588 0.237304 0.184446 0.136009 0.126667 0.125254 0.125039 0.125006 0.125001 0.125 0.125 0.125 0.125 0.125 0.125 0.125 0.125 0.125 0.125 0.125 0.125 0.125 0.125 0.125 0.125 0.125 0.125 0.125 0.125 0.125 0.125 0.125 0.125 0.125 0.125 0.125 0.125 0.125 0.125 0.125 0.125 1 1 1 1 1 1 1 1 1 1 1 1 1 1 1 1 1 1 1 1 1 1 1 1 1 1 1 1 1 1 1 1 1 1 1 1 1 1 1 1 1 0.999999 0.999998 0.999995 0.999987 0.999967 0.999916 0.99979 0.999511 0.998957 0.997957 0.996304 0.993779 0.990179 0.985351 0.979207 0.97173 0.962969 0.953025 0.942027 0.930122 0.91746 0.904182 0.890421 0.876289 0.861883 0.847278 0.832544 0.817729 0.802886 0.788057 0.773275 0.758567 0.743959 0.72947 0.71512 0.700923 0.686893 0.67304 0.659377 0.645911 0.632652 0.619608 0.606787 0.594197 0.581847 0.569746 0.557905 0.546337 0.535055 0.524077 0.513423 0.503118 0.493194 0.483686 0.47464 0.46611 0.458158 0.450856 0.44428 0.438509 0.433614 0.429651 0.426641 0.424454 0.423603 0.423164 0.423037 0.423102 0.423239 0.423387 0.423422 0.423376 0.423198 0.422964 0.422757 0.422605 0.422516 0.422471 0.422365 0.42205 0.421531 0.421006 0.420506 0.420116 0.419866 0.419519 0.418751 0.416388 0.408507 0.383764 0.350504 0.318733 0.287025 0.260414 0.265132 0.266055 0.266284 0.266334 0.266366 0.266391 0.266397 0.266396 0.266384 0.266341 0.266292 0.266285 0.266291 0.266322 0.266373 0.26642 0.266451 0.266456 0.266457 0.266445 0.266421 0.266342 0.265823 0.264768 0.257588 0.237304 0.184446 0.136009 0.126667 0.125254 0.125039 0.125006 0.125001 0.125 0.125 0.125 0.125 0.125 0.125 0.125 0.125 0.125 0.125 0.125 0.125 0.125 0.125 0.125 0.125 0.125 0.125 0.125 0.125 0.125 0.125 0.125 0.125 0.125 0.125 0.125 0.125 0.125 0.125 0.125 0.125
				</DataArray>
				<DataArray Name="Energy" type="Float32" format="ascii">
 2.5 2.5 2.5 2.5 2.5 2.5 2.5 2.5 2.5 2.5 2.5 2.5 2.5 2.5 2.5 2.5 2.5 2.5 2.5 2.5 2.5 2.5 2.5 2.5 2.5 2.5 2.5 2.5 2.5 2.5 2.5 2.5 2.5 2.5 2.5 2.5 2.5 2.5 2.5 2.5 2.5 2.5 2.5 2.5 2.49999 2.49997 2.49992 2.49979 2.49951 2.49896 2.49796 2.4963 2.49377 2.49016 2.48531 2.47912 2.47156 2.46267 2.45253 2.44124 2.42895 2.41577 2.40185 2.3873 2.37222 2.3567 2.34082 2.32464 2.30822 2.29159 2.27479 2.25786 2.24082 2.22371 2.20655 2.18935 2.17213 2.15492 2.13773 2.12056 2.10344 2.08638 2.06939 2.05249 2.03569 2.01901 2.00247 1.98608 1.96987 1.95387 1.93812 1.92265 1.9075 1.89275 1.87846 1.86471 1.85162 1.83929 1.82787 1.81752 1.80839 1.80063 1.79437 1.78967 1.78729 1.78491 1.78497 1.78552 1.78582 1.78624 1.78651 1.78714 1.78788 1.7888 1.78981 1.79064 1.79111 1.79129 1.79136 1.79174 1.79312 1.79545 1.79787 1.80019 1.80205 1.80322 1.80482 1.80831 1.81867 1.85321 1.97176 2.16033 2.37892 2.6312 2.89829 2.86717 2.84662 2.84379 2.84328 2.84299 2.84273 2.8427 2.84278 2.84297 2.84349 2.84411 2.8443 2.84432 2.84406 2.84359 2.84314 2.84283 2.84272 2.84266 2.84263 2.84264 2.84243 2.84031 2.83573 2.80442 2.70288 2.40283 2.07226 2.01077 2.00163 2.00025 2.00004 2.00001 2 2 2 2 2 2 2 2 2 2 2 2 2 2 2 2 2 2 2 2 2 2 2 2 2 2 2 2 2 2 2 2 2.5 2.5 2.5 2.5 2.5 2.5 2.5 2.5 2.5 2.5 2.5 2.5 2.5 2.5 2.5 2.5 2.5 2.5 2.5 2.5 2.5 2.5 2.5 2.5 2.5 2.5 2.5 2.5 2.5 2.5 2.5 2.5 2.5 2.5 2.5 2.5 2.5 2.5 2.5 2.5 2.5 2.5 2.5 2.5 2.49999 2.49997 2.49992 2.49979 2.49951 2.49896 2.49796 2.4963 2.49377 2.49016 2.48531 2.47912 2.47156 2.46267 2.45253 2.44124 2.42895 2.41577 2.40185 2.3873 2.37222 2.3567 2.34082 2.32464 2.30822 2.29159 2.27479 2.25786 2.24082 2.22371 2.20655 2.18935 2.17213 2.15492 2.13773 2.12056 2.10344 2.08638 2.06939 2.05249 2.03569 2.01901 2.00247 1.98608 1.96987 1.95387 1.93812 1.92265 1.9075 1.89275 1.87846 1.86471 1.85162 1.83929 1.82787 1.81752 1.80839 1.80063 1.79437 1.78967 1.78729 1.78491 1.78497 1.78552 1.78582 1.78624 1.78651 1.78714 1.78788 1.7888 1.78981 1.79064 1.79111 1.79129 1.79136 1.79174 1.79312 1.79545 1.79787 1.80019 1.80205 1.80322 1.80482 1.80831 1.81867 1.85321 1.97176 2.16033 2.37892 2.6312 2.89829 2.86717 2.84662 2.84379 2.84328 2.84299 2.84273 2.8427 2.84278 2.84297 2.84349 2.84411 2.8443 2.84432 2.84406 2.84359 2.84314 2.84283 2.84272 2.84266 2.84263 2.84264 2.84243 2.84031 2.83573 2.80442 2.70288 2.40283 2.07226 2.01077 2.00163 2.00025 2.00004 2.00001 2 2 2 2 2 2 2 2 2 2 2 2 2 2 2 2 2 2 2 2 2 2 2 2 2 2 2 2 2 2 2 2 2.5 2.5 2.5 2.5 2.5 2.5 2.5 2.5 2.5 2.5 2.5 2.5 2.5 2.5 2.5 2.5 2.5 2.5 2.5 2.5 2.5 2.5 2.5 2.5 2.5 2.5 2.5 2.5 2.5 2.5 2.5 2.5 2.5 2.5 2.5 2.5 2.5 2.5 2.5 2.5 2.5 2.5 2.5 2.5 2.49999 2.49997 2.49992 2.49979 2.49951 2.49896 2.49796 2.4963 2.49377 2.49016 2.48531 2.47912 2.47156 2.46267 2.45253 2.44124 2.42895 2.41577 2.40185 2.3873 2.37222 2.3567 2.34082 2.32464 2.30822 2.29159 2.27479 2.25786 2.24082 2.22371 2.20655 2.18935 2.17213 2.15492 2.13773 2.12056 2.10344 2.08638 2.06939 2.05249 2.03569 2.01901 2.00247 1.98608 1.96987 1.95387 1.93812 1.92265 1.9075 1.89275 1.87846 1.86471 1.85162 1.83929 1.82787 1.81752 1.80839 1.80063 1.79437 1.78967 1.78729 1.78491 1.78497 1.78552 1.78582 1.78624 1.78651 1.78714 1.78788 1.7888 1.78981 1.79064 1.79111 1.79129 1.79136 1.79174 1.79312 1.79545 1.79787 1.80019 1.80205 1.80322 1.80482 1.80831 1.81867 1.85321 1.97176 2.16033 2.37892 2.6312 2.89829 2.86717 2.84662 2.84379 2.84328 2.84299 2.84273 2.8427 2.84278 2.84297 2.84349 2.84411 2.8443 2.84432 2.84406 2.84359 2.84314 2.84283 2.84272 2.84266 2.84263 2.84264 2.84243 2.84031 2.83573 2.80442 2.70288 2.40283 2.07226 2.01077 2.00163 2.00025 2.00004 2.00001 2 2 2 2 2 2 2 2 2 2 2 2 2 2 2 2 2 2 2 2 2 2 2 2 2 2 2 2 2 2 2 2 2.5 2.5 2.5 2.5 2.5 2.5 2.5 2.5 2.5 2.5 2.5 2.5 2.5 2.5 2.5 2.5 2.5 2.5 2.5 2.5 2.5 2.5 2.5 2.5 2.5 2.5 2.5 2.5 2.5 2.5 2.5 2.5 2.5 2.5 2.5 2.5 2.5 2.5 2.5 2.5 2.5 2.5 2.5 2.5 2.49999 2.49997 2.49992 2.49979 2.49951 2.49896 2.49796 2.4963 2.49377 2.49016 2.48531 2.47912 2.47156 2.46267 2.45253 2.44124 2.42895 2.41577 2.40185 2.3873 2.37222 2.3567 2.34082 2.32464 2.30822 2.29159 2.27479 2.25786 2.24082 2.22371 2.20655 2.18935 2.17213 2.15492 2.13773 2.12056 2.10344 2.08638 2.06939 2.05249 2.03569 2.01901 2.00247 1.98608 1.96987 1.95387 1.93812 1.92265 1.9075 1.89275 1.87846 1.86471 1.85162 1.83929 1.82787 1.81752 1.80839 1.80063 1.79437 1.78967 1.78729 1.78491 1.78497 1.78552 1.78582 1.78624 1.78651 1.78714 1.78788 1.7888 1.78981 1.79064 1.79111 1.79129 1.79136 1.79174 1.79312 1.79545 1.79787 1.80019 1.80205 1.80322 1.80482 1.80831 1.81867 1.85321 1.97176 2.16033 2.37892 2.6312 2.89829 2.86717 2.84662 2.84379 2.84328 2.84299 2.84273 2.8427 2.84278 2.84297 2.84349 2.84411 2.8443 2.84432 2.84406 2.84359 2.84314 2.84283 2.84272 2.84266 2.84263 2.84264 2.84243 2.84031 2.83573 2.80442 2.70288 2.40283 2.07226 2.01077 2.00163 2.00025 2.00004 2.00001 2 2 2 2 2 2 2 2 2 2 2 2 2 2 2 2 2 2 2 2 2 2 2 2 2 2 2 2 2 2 2 2 2.5 2.5 2.5 2.5 2.5 2.5 2.5 2.5 2.5 2.5 2.5 2.5 2.5 2.5 2.5 2.5 2.5 2.5 2.5 2.5 2.5 2.5 2.5 2.5 2.5 2.5 2.5 2.5 2.5 2.5 2.5 2.5 2.5 2.5 2.5 2.5 2.5 2.5 2.5 2.5 2.5 2.5 2.5 2.5 2.49999 2.49997 2.49992 2.49979 2.49951 2.49896 2.49796 2.4963 2.49377 2.49016 2.48531 2.47912 2.47156 2.46267 2.45253 2.44124 2.42895 2.41577 2.40185 2.3873 2.37222 2.3567 2.34082 2.32464 2.30822 2.29159 2.27479 2.25786 2.24082 2.22371 2.20655 2.18935 2.17213 2.15492 2.13773 2.12056 2.10344 2.08638 2.06939 2.05249 2.03569 2.01901 2.00247 1.98608 1.96987 1.95387 1.93812 1.92265 1.9075 1.89275 1.87846 1.86471 1.85162 1.83929 1.82787 1.81752 1.80839 1.80063 1.79437 1.78967 1.78729 1.78491 1.78497 1.78552 1.78582 1.78624 1.78651 1.78714 1.78788 1.7888 1.78981 1.79064 1.79111 1.79129 1.79136 1.79174 1.79312 1.79545 1.79787 1.80019 1.80205 1.80322 1.80482 1.80831 1.81867 1.85321 1.97176 2.16033 2.37892 2.6312 2.89829 2.86717 2.84662 2.84379 2.84328 2.84299 2.84273 2.8427 2.84278 2.84297 2.84349 2.84411 2.8443 2.84432 2.84406 2.84359 2.84314 2.84283 2.84272 2.84266 2.84263 2.84264 2.84243 2.84031 2.83573 2.80442 2.70288 2.40283 2.07226 2.01077 2.00163 2.00025 2.00004 2.00001 2 2 2 2 2 2 2 2 2 2 2 2 2 2 2 2 2 2 2 2 2 2 2 2 2 2 2 2 2 2 2 2
				</DataArray>
				<DataArray Name="F1" type="Float32" format="ascii">
 1 1 1 1 1 1 1 1 1 1 1 1 1 1 1 1 1 1 1 1 1 1 1 1 1 1 1 1 1 1 1 1 1 1 1 1 1 1 1 1 1 1 1 1 1 1 1 1 1 1 1 1 1 1 1 1 1 1 1 1 1 1 1 1 1 1 1 1 1 1 1 1 1 1 1 1 1 1 1 1 1 1 1 1 1 1 1 1 1 1 1 1 1 1 1 1 1 1 1 1 1 1 1 1 1 1 1 1 1 1 1 1 1 1 1 1 1 1 1 1 0.999999 0.999998 0.999991 0.999967 0.99988 0.999569 0.998504 0.994927 0.983139 0.94484 0.825389 0.629392 0.428577 0.231934 0.0573016 0.00339045 0.000189371 1.0727e-05 6.10394e-07 3.46721e-08 1.96658e-09 1.11432e-10 6.30404e-12 3.54691e-13 1.91532e-14 1.25387e-15 0 0 0 0 0 0 0 0 0 0 0 0 0 0 0 0 0 0 0 0 0 0 0 0 0 0 0 0 0 0 0 0 0 0 0 0 0 0 0 0 0 0 0 0 0 0 0 0 0 0 0 0 0 0 1 1 1 1 1 1 1 1 1 1 1 1 1 1 1 1 1 1 1 1 1 1 1 1 1 1 1 1 1 1 1 1 1 1 1 1 1 1 1 1 1 1 1 1 1 1 1 1 1 1 1 1 1 1 1 1 1 1 1 1 1 1 1 1 1 1 1 1 1 1 1 1 1 1 1 1 1 1 1 1 1 1 1 1 1 1 1 1 1 1 1 1 1 1 1 1 1 1 1 1 1 1 1 1 1 1 1 1 1 1 1 1 1 1 1 1 1 1 1 1 0.999999 0.999998 0.999991 0.999967 0.99988 0.999569 0.998504 0.994927 0.983139 0.94484 0.825389 0.629392 0.428577 0.231934 0.0573016 0.00339045 0.000189371 1.0727e-05 6.10394e-07 3.46721e-08 1.96658e-09 1.11432e-10 6.30404e-12 3.54691e-13 1.91532e-14 1.25387e-15 0 0 0 0 0 0 0 0 0 0 0 0 0 0 0 0 0 0 0 0 0 0 0 0 0 0 0 0 0 0 0 0 0 0 0 0 0 0 0 0 0 0 0 0 0 0 0 0 0 0 0 0 0 0 1 1 1 1 1 1 1 1 1 1 1 1 1 1 1 1 1 1 1 1 1 1 1 1 1 1 1 1 1 1 1 1 1 1 1 1 1 1 1 1 1 1 1 1 1 1 1 1 1 1 1 1 1 1 1 1 1 1 1 1 1 1 1 1 1 1 1 1 1 1 1 1 1 1 1 1 1 1 1 1 1 1 1 1 1 1 1 1 1 1 1 1 1 1 1 1 1 1 1 1 1 1 1 1 1 1 1 1 1 1 1 1 1 1 1 1 1 1 1 1 0.999999 0.999998 0.999991 0.999967 0.99988 0.999569 0.998504 0.994927 0.983139 0.94484 0.825389 0.629392 0.428577 0.231934 0.0573016 0.00339045 0.000189371 1.0727e-05 6.10394e-07 3.46721e-08 1.96658e-09 1.11432e-10 6.30404e-12 3.54691e-13 1.91532e-14 1.25387e-15 0 0 0 0 0 0 0 0 0 0 0 0 0 0 0 0 0 0 0 0 0 0 0 0 0 0 0 0 0 0 0 0 0 0 0 0 0 0 0 0 0 0 0 0 0 0 0 0 0 0 0 0 0 0 1 1 1 1 1 1 1 1 1 1 1 1 1 1 1 1 1 1 1 1 1 1 1 1 1 1 1 1 1 1 1 1 1 1 1 1 1 1 1 1 1 1 1 1 1 1 1 1 1 1 1 1 1 1 1 1 1 1 1 1 1 1 1 1 1 1 1 1 1 1 1 1 1 1 1 1 1 1 1 1 1 1 1 1 1 1 1 1 1 1 1 1 1 1 1 1 1 1 1 1 1 1 1 1 1 1 1 1 1 1 1 1 1 1 1 1 1 1 1 1 0.999999 0.999998 0.999991 0.999967 0.99988 0.999569 0.998504 0.994927 0.983139 0.94484 0.825389 0.629392 0.428577 0.231934 0.0573016 0.00339045 0.000189371 1.0727e-05 6.10394e-07 3.46721e-08 1.96658e-09 1.11432e-10 6.30404e-12 3.54691e-13 1.91532e-14 1.25387e-15 0 0 0 0 0 0 0 0 0 0 0 0 0 0 0 0 0 0 0 0 0 0 0 0 0 0 0 0 0 0 0 0 0 0 0 0 0 0 0 0 0 0 0 0 0 0 0 0 0 0 0 0 0 0 1 1 1 1 1 1 1 1 1 1 1 1 1 1 1 1 1 1 1 1 1 1 1 1 1 1 1 1 1 1 1 1 1 1 1 1 1 1 1 1 1 1 1 1 1 1 1 1 1 1 1 1 1 1 1 1 1 1 1 1 1 1 1 1 1 1 1 1 1 1 1 1 1 1 1 1 1 1 1 1 1 1 1 1 1 1 1 1 1 1 1 1 1 1 1 1 1 1 1 1 1 1 1 1 1 1 1 1 1 1 1 1 1 1 1 1 1 1 1 1 0.999999 0.999998 0.999991 0.999967 0.99988 0.999569 0.998504 0.994927 0.983139 0.94484 0.825389 0.629392 0.428577 0.231934 0.0573016 0.00339045 0.000189371 1.0727e-05 6.10394e-07 3.46721e-08 1.96658e-09 1.11432e-10 6.30404e-12 3.54691e-13 1.91532e-14 1.25387e-15 0 0 0 0 0 0 0 0 0 0 0 0 0 0 0 0 0 0 0 0 0 0 0 0 0 0 0 0 0 0 0 0 0 0 0 0 0 0 0 0 0 0 0 0 0 0 0 0 0 0 0 0 0 0
				</DataArray>
				<DataArray Name="F2" type="Float32" format="ascii">
 0 0 0 0 0 0 0 0 0 0 0 0 0 0 0 0 0 0 0 0 0 0 0 0 0 0 0 0 0 0 0 0 0 0 0 0 0 0 0 0 0 0 0 0 0 0 0 0 0 0 0 0 0 0 0 0 0 0 0 0 0 0 0 0 0 0 0 0 0 0 0 0 0 0 0 0 0 0 0 0 0 0 0 0 0 0 0 0 0 0 0 0 0 0 0 0 0 0 0 0 0 0 0 0 0 0 0 3.02071e-16 1.01077e-15 3.07863e-15 1.52102e-14 1.12115e-13 7.98944e-13 5.29657e-12 3.27489e-11 1.89549e-10 1.03045e-09 5.27859e-09 2.55604e-08 1.17359e-07 5.12501e-07 2.13528e-06 8.51558e-06 3.26197e-05 0.000120467 0.000430607 0.00149595 0.00507257 0.0168606 0.0551604 0.174611 0.370608 0.571423 0.768066 0.942698 0.99661 0.999811 0.999989 0.999999 1 1 1 1 1 1 1 1 1 1 1 1 1 1 1 1 1 1 1 1 1 1 1 1 1 1 1 1 1 1 1 1 1 1 1 1 1 1 1 1 1 1 1 1 1 1 1 1 1 1 1 1 1 1 1 1 1 1 1 1 1 0 0 0 0 0 0 0 0 0 0 0 0 0 0 0 0 0 0 0 0 0 0 0 0 0 0 0 0 0 0 0 0 0 0 0 0 0 0 0 0 0 0 0 0 0 0 0 0 0 0 0 0 0 0 0 0 0 0 0 0 0 0 0 0 0 0 0 0 0 0 0 0 0 0 0 0 0 0 0 0 0 0 0 0 0 0 0 0 0 0 0 0 0 0 0 0 0 0 0 0 0 0 0 0 0 0 0 3.02071e-16 1.01077e-15 3.07863e-15 1.52102e-14 1.12115e-13 7.98944e-13 5.29657e-12 3.27489e-11 1.89549e-10 1.03045e-09 5.27859e-09 2.55604e-08 1.17359e-07 5.12501e-07 2.13528e-06 8.51558e-06 3.26197e-05 0.000120467 0.000430607 0.00149595 0.00507257 0.0168606 0.0551604 0.174611 0.370608 0.571423 0.768066 0.942698 0.99661 0.999811 0.999989 0.999999 1 1 1 1 1 1 1 1 1 1 1 1 1 1 1 1 1 1 1 1 1 1 1 1 1 1 1 1 1 1 1 1 1 1 1 1 1 1 1 1 1 1 1 1 1 1 1 1 1 1 1 1 1 1 1 1 1 1 1 1 1 0 0 0 0 0 0 0 0 0 0 0 0 0 0 0 0 0 0 0 0 0 0 0 0 0 0 0 0 0 0 0 0 0 0 0 0 0 0 0 0 0 0 0 0 0 0 0 0 0 0 0 0 0 0 0 0 0 0 0 0 0 0 0 0 0 0 0 0 0 0 0 0 0 0 0 0 0 0 0 0 0 0 0 0 0 0 0 0 0 0 0 0 0 0 0 0 0 0 0 0 0 0 0 0 0 0 0 3.02071e-16 1.01077e-15 3.07863e-15 1.52102e-14 1.12115e-13 7.98944e-13 5.29657e-12 3.27489e-11 1.89549e-10 1.03045e-09 5.27859e-09 2.55604e-08 1.17359e-07 5.12501e-07 2.13528e-06 8.51558e-06 3.26197e-05 0.000120467 0.000430607 0.00149595 0.00507257 0.0168606 0.0551604 0.174611 0.370608 0.571423 0.768066 0.942698 0.99661 0.999811 0.999989 0.999999 1 1 1 1 1 1 1 1 1 1 1 1 1 1 1 1 1 1 1 1 1 1 1 1 1 1 1 1 1 1 1 1 1 1 1 1 1 1 1 1 1 1 1 1 1 1 1 1 1 1 1 1 1 1 1 1 1 1 1 1 1 0 0 0 0 0 0 0 0 0 0 0 0 0 0 0 0 0 0 0 0 0 0 0 0 0 0 0 0 0 0 0 0 0 0 0 0 0 0 0 0 0 0 0 0 0 0 0 0 0 0 0 0 0 0 0 0 0 0 0 0 0 0 0 0 0 0 0 0 0 0 0 0 0 0 0 0 0 0 0 0 0 0 0 0 0 0 0 0 0 0 0 0 0 0 0 0 0 0 0 0 0 0 0 0 0 0 0 3.02071e-16 1.01077e-15 3.07863e-15 1.52102e-14 1.12115e-13 7.98944e-13 5.29657e-12 3.27489e-11 1.89549e-10 1.03045e-09 5.27859e-09 2.55604e-08 1.17359e-07 5.12501e-07 2.13528e-06 8.51558e-06 3.26197e-05 0.000120467 0.000430607 0.00149595 0.00507257 0.0168606 0.0551604 0.174611 0.370608 0.571423 0.768066 0.942698 0.99661 0.999811 0.999989 0.999999 1 1 1 1 1 1 1 1 1 1 1 1 1 1 1 1 1 1 1 1 1 1 1 1 1 1 1 1 1 1 1 1 1 1 1 1 1 1 1 1 1 1 1 1 1 1 1 1 1 1 1 1 1 1 1 1 1 1 1 1 1 0 0 0 0 0 0 0 0 0 0 0 0 0 0 0 0 0 0 0 0 0 0 0 0 0 0 0 0 0 0 0 0 0 0 0 0 0 0 0 0 0 0 0 0 0 0 0 0 0 0 0 0 0 0 0 0 0 0 0 0 0 0 0 0 0 0 0 0 0 0 0 0 0 0 0 0 0 0 0 0 0 0 0 0 0 0 0 0 0 0 0 0 0 0 0 0 0 0 0 0 0 0 0 0 0 0 0 3.02071e-16 1.01077e-15 3.07863e-15 1.52102e-14 1.12115e-13 7.98944e-13 5.29657e-12 3.27489e-11 1.89549e-10 1.03045e-09 5.27859e-09 2.55604e-08 1.17359e-07 5.12501e-07 2.13528e-06 8.51558e-06 3.26197e-05 0.000120467 0.000430607 0.00149595 0.00507257 0.0168606 0.0551604 0.174611 0.370608 0.571423 0.768066 0.942698 0.99661 0.999811 0.999989 0.999999 1 1 1 1 1 1 1 1 1 1 1 1 1 1 1 1 1 1 1 1 1 1 1 1 1 1 1 1 1 1 1 1 1 1 1 1 1 1 1 1 1 1 1 1 1 1 1 1 1 1 1 1 1 1 1 1 1 1 1 1 1
				</DataArray>