<?xml version="1.0"?>
<VTKFile type="PolyData">
	<PolyData>
		<Piece NumberOfPoints="1206" NumberOfPolys="1000">
			<Points>
				<DataArray type="Float32" NumberOfComponents="3" format="ascii">
 0 0 0 0.005 0 0 0.01 0 0 0.015 0 0 0.02 0 0 0.025 0 0 0.03 0 0 0.035 0 0 0.04 0 0 0.045 0 0 0.05 0 0 0.055 0 0 0.06 0 0 0.065 0 0 0.07 0 0 0.075 0 0 0.08 0 0 0.085 0 0 0.09 0 0 0.095 0 0 0.1 0 0 0.105 0 0 0.11 0 0 0.115 0 0 0.12 0 0 0.125 0 0 0.13 0 0 0.135 0 0 0.14 0 0 0.145 0 0 0.15 0 0 0.155 0 0 0.16 0 0 0.165 0 0 0.17 0 0 0.175 0 0 0.18 0 0 0.185 0 0 0.19 0 0 0.195 0 0 0.2 0 0 0.205 0 0 0.21 0 0 0.215 0 0 0.22 0 0 0.225 0 0 0.23 0 0 0.235 0 0 0.24 0 0 0.245 0 0 0.25 0 0 0.255 0 0 0.26 0 0 0.265 0 0 0.27 0 0 0.275 0 0 0.28 0 0 0.285 0 0 0.29 0 0 0.295 0 0 0.3 0 0 0.305 0 0 0.31 0 0 0.315 0 0 0.32 0 0 0.325 0 0 0.33 0 0 0.335 0 0 0.34 0 0 0.345 0 0 0.35 0 0 0.355 0 0 0.36 0 0 0.365 0 0 0.37 0 0 0.375 0 0 0.38 0 0 0.385 0 0 0.39 0 0 0.395 0 0 0.4 0 0 0.405 0 0 0.41 0 0 0.415 0 0 0.42 0 0 0.425 0 0 0.43 0 0 0.435 0 0 0.44 0 0 0.445 0 0 0.45 0 0 0.455 0 0 0.46 0 0 0.465 0 0 0.47 0 0 0.475 0 0 0.48 0 0 0.485 0 0 0.49 0 0 0.495 0 0 0.5 0 0 0.505 0 0 0.51 0 0 0.515 0 0 0.52 0 0 0.525 0 0 0.53 0 0 0.535 0 0 0.54 0 0 0.545 0 0 0.55 0 0 0.555 0 0 0.56 0 0 0.565 0 0 0.57 0 0 0.575 0 0 0.58 0 0 0.585 0 0 0.59 0 0 0.595 0 0 0.6 0 0 0.605 0 0 0.61 0 0 0.615 0 0 0.62 0 0 0.625 0 0 0.63 0 0 0.635 0 0 0.64 0 0 0.645 0 0 0.65 0 0 0.655 0 0 0.66 0 0 0.665 0 0 0.67 0 0 0.675 0 0 0.68 0 0 0.685 0 0 0.69 0 0 0.695 0 0 0.7 0 0 0.705 0 0 0.71 0 0 0.715 0 0 0.72 0 0 0.725 0 0 0.73 0 0 0.735 0 0 0.74 0 0 0.745 0 0 0.75 0 0 0.755 0 0 0.76 0 0 0.765 0 0 0.77 0 0 0.775 0 0 0.78 0 0 0.785 0 0 0.79 0 0 0.795 0 0 0.8 0 0 0.805 0 0 0.81 0 0 0.815 0 0 0.82 0 0 0.825 0 0 0.83 0 0 0.835 0 0 0.84 0 0 0.845 0 0 0.85 0 0 0.855 0 0 0.86 0 0 0.865 0 0 0.87 0 0 0.875 0 0 0.88 0 0 0.885 0 0 0.89 0 0 0.895 0 0 0.9 0 0 0.905 0 0 0.91 0 0 0.915 0 0 0.92 0 0 0.925 0 0 0.93 0 0 0.935 0 0 0.94 0 0 0.945 0 0 0.95 0 0 0.955 0 0 0.96 0 0 0.965 0 0 0.97 0 0 0.975 0 0 0.98 0 0 0.985 0 0 0.99 0 0 0.995 0 0 1 0 0 0 0.02 0 0.005 0.02 0 0.01 0.02 0 0.015 0.02 0 0.02 0.02 0 0.025 0.02 0 0.03 0.02 0 0.035 0.02 0 0.04 0.02 0 0.045 0.02 0 0.05 0.02 0 0.055 0.02 0 0.06 0.02 0 0.065 0.02 0 0.07 0.02 0 0.075 0.02 0 0.08 0.02 0 0.085 0.02 0 0.09 0.02 0 0.095 0.02 0 0.1 0.02 0 0.105 0.02 0 0.11 0.02 0 0.115 0.02 0 0.12 0.02 0 0.125 0.02 0 0.13 0.02 0 0.135 0.02 0 0.14 0.02 0 0.145 0.02 0 0.15 0.02 0 0.155 0.02 0 0.16 0.02 0 0.165 0.02 0 0.17 0.02 0 0.175 0.02 0 0.18 0.02 0 0.185 0.02 0 0.19 0.02 0 0.195 0.02 0 0.2 0.02 0 0.205 0.02 0 0.21 0.02 0 0.215 0.02 0 0.22 0.02 0 0.225 0.02 0 0.23 0.02 0 0.235 0.02 0 0.24 0.02 0 0.245 0.02 0 0.25 0.02 0 0.255 0.02 0 0.26 0.02 0 0.265 0.02 0 0.27 0.02 0 0.275 0.02 0 0.28 0.02 0 0.285 0.02 0 0.29 0.02 0 0.295 0.02 0 0.3 0.02 0 0.305 0.02 0 0.31 0.02 0 0.315 0.02 0 0.32 0.02 0 0.325 0.02 0 0.33 0.02 0 0.335 0.02 0 0.34 0.02 0 0.345 0.02 0 0.35 0.02 0 0.355 0.02 0 0.36 0.02 0 0.365 0.02 0 0.37 0.02 0 0.375 0.02 0 0.38 0.02 0 0.385 0.02 0 0.39 0.02 0 0.395 0.02 0 0.4 0.02 0 0.405 0.02 0 0.41 0.02 0 0.415 0.02 0 0.42 0.02 0 0.425 0.02 0 0.43 0.02 0 0.435 0.02 0 0.44 0.02 0 0.445 0.02 0 0.45 0.02 0 0.455 0.02 0 0.46 0.02 0 0.465 0.02 0 0.47 0.02 0 0.475 0.02 0 0.48 0.02 0 0.485 0.02 0 0.49 0.02 0 0.495 0.02 0 0.5 0.02 0 0.505 0.02 0 0.51 0.02 0 0.515 0.02 0 0.52 0.02 0 0.525 0.02 0 0.53 0.02 0 0.535 0.02 0 0.54 0.02 0 0.545 0.02 0 0.55 0.02 0 0.555 0.02 0 0.56 0.02 0 0.565 0.02 0 0.57 0.02 0 0.575 0.02 0 0.58 0.02 0 0.585 0.02 0 0.59 0.02 0 0.595 0.02 0 0.6 0.02 0 0.605 0.02 0 0.61 0.02 0 0.615 0.02 0 0.62 0.02 0 0.625 0.02 0 0.63 0.02 0 0.635 0.02 0 0.64 0.02 0 0.645 0.02 0 0.65 0.02 0 0.655 0.02 0 0.66 0.02 0 0.665 0.02 0 0.67 0.02 0 0.675 0.02 0 0.68 0.02 0 0.685 0.02 0 0.69 0.02 0 0.695 0.02 0 0.7 0.02 0 0.705 0.02 0 0.71 0.02 0 0.715 0.02 0 0.72 0.02 0 0.725 0.02 0 0.73 0.02 0 0.735 0.02 0 0.74 0.02 0 0.745 0.02 0 0.75 0.02 0 0.755 0.02 0 0.76 0.02 0 0.765 0.02 0 0.77 0.02 0 0.775 0.02 0 0.78 0.02 0 0.785 0.02 0 0.79 0.02 0 0.795 0.02 0 0.8 0.02 0 0.805 0.02 0 0.81 0.02 0 0.815 0.02 0 0.82 0.02 0 0.825 0.02 0 0.83 0.02 0 0.835 0.02 0 0.84 0.02 0 0.845 0.02 0 0.85 0.02 0 0.855 0.02 0 0.86 0.02 0 0.865 0.02 0 0.87 0.02 0 0.875 0.02 0 0.88 0.02 0 0.885 0.02 0 0.89 0.02 0 0.895 0.02 0 0.9 0.02 0 0.905 0.02 0 0.91 0.02 0 0.915 0.02 0 0.92 0.02 0 0.925 0.02 0 0.93 0.02 0 0.935 0.02 0 0.94 0.02 0 0.945 0.02 0 0.95 0.02 0 0.955 0.02 0 0.96 0.02 0 0.965 0.02 0 0.97 0.02 0 0.975 0.02 0 0.98 0.02 0 0.985 0.02 0 0.99 0.02 0 0.995 0.02 0 1 0.02 0 0 0.04 0 0.005 0.04 0 0.01 0.04 0 0.015 0.04 0 0.02 0.04 0 0.025 0.04 0 0.03 0.04 0 0.035 0.04 0 0.04 0.04 0 0.045 0.04 0 0.05 0.04 0 0.055 0.04 0 0.06 0.04 0 0.065 0.04 0 0.07 0.04 0 0.075 0.04 0 0.08 0.04 0 0.085 0.04 0 0.09 0.04 0 0.095 0.04 0 0.1 0.04 0 0.105 0.04 0 0.11 0.04 0 0.115 0.04 0 0.12 0.04 0 0.125 0.04 0 0.13 0.04 0 0.135 0.04 0 0.14 0.04 0 0.145 0.04 0 0.15 0.04 0 0.155 0.04 0 0.16 0.04 0 0.165 0.04 0 0.17 0.04 0 0.175 0.04 0 0.18 0.04 0 0.185 0.04 0 0.19 0.04 0 0.195 0.04 0 0.2 0.04 0 0.205 0.04 0 0.21 0.04 0 0.215 0.04 0 0.22 0.04 0 0.225 0.04 0 0.23 0.04 0 0.235 0.04 0 0.24 0.04 0 0.245 0.04 0 0.25 0.04 0 0.255 0.04 0 0.26 0.04 0 0.265 0.04 0 0.27 0.04 0 0.275 0.04 0 0.28 0.04 0 0.285 0.04 0 0.29 0.04 0 0.295 0.04 0 0.3 0.04 0 0.305 0.04 0 0.31 0.04 0 0.315 0.04 0 0.32 0.04 0 0.325 0.04 0 0.33 0.04 0 0.335 0.04 0 0.34 0.04 0 0.345 0.04 0 0.35 0.04 0 0.355 0.04 0 0.36 0.04 0 0.365 0.04 0 0.37 0.04 0 0.375 0.04 0 0.38 0.04 0 0.385 0.04 0 0.39 0.04 0 0.395 0.04 0 0.4 0.04 0 0.405 0.04 0 0.41 0.04 0 0.415 0.04 0 0.42 0.04 0 0.425 0.04 0 0.43 0.04 0 0.435 0.04 0 0.44 0.04 0 0.445 0.04 0 0.45 0.04 0 0.455 0.04 0 0.46 0.04 0 0.465 0.04 0 0.47 0.04 0 0.475 0.04 0 0.48 0.04 0 0.485 0.04 0 0.49 0.04 0 0.495 0.04 0 0.5 0.04 0 0.505 0.04 0 0.51 0.04 0 0.515 0.04 0 0.52 0.04 0 0.525 0.04 0 0.53 0.04 0 0.535 0.04 0 0.54 0.04 0 0.545 0.04 0 0.55 0.04 0 0.555 0.04 0 0.56 0.04 0 0.565 0.04 0 0.57 0.04 0 0.575 0.04 0 0.58 0.04 0 0.585 0.04 0 0.59 0.04 0 0.595 0.04 0 0.6 0.04 0 0.605 0.04 0 0.61 0.04 0 0.615 0.04 0 0.62 0.04 0 0.625 0.04 0 0.63 0.04 0 0.635 0.04 0 0.64 0.04 0 0.645 0.04 0 0.65 0.04 0 0.655 0.04 0 0.66 0.04 0 0.665 0.04 0 0.67 0.04 0 0.675 0.04 0 0.68 0.04 0 0.685 0.04 0 0.69 0.04 0 0.695 0.04 0 0.7 0.04 0 0.705 0.04 0 0.71 0.04 0 0.715 0.04 0 0.72 0.04 0 0.725 0.04 0 0.73 0.04 0 0.735 0.04 0 0.74 0.04 0 0.745 0.04 0 0.75 0.04 0 0.755 0.04 0 0.76 0.04 0 0.765 0.04 0 0.77 0.04 0 0.775 0.04 0 0.78 0.04 0 0.785 0.04 0 0.79 0.04 0 0.795 0.04 0 0.8 0.04 0 0.805 0.04 0 0.81 0.04 0 0.815 0.04 0 0.82 0.04 0 0.825 0.04 0 0.83 0.04 0 0.835 0.04 0 0.84 0.04 0 0.845 0.04 0 0.85 0.04 0 0.855 0.04 0 0.86 0.04 0 0.865 0.04 0 0.87 0.04 0 0.875 0.04 0 0.88 0.04 0 0.885 0.04 0 0.89 0.04 0 0.895 0.04 0 0.9 0.04 0 0.905 0.04 0 0.91 0.04 0 0.915 0.04 0 0.92 0.04 0 0.925 0.04 0 0.93 0.04 0 0.935 0.04 0 0.94 0.04 0 0.945 0.04 0 0.95 0.04 0 0.955 0.04 0 0.96 0.04 0 0.965 0.04 0 0.97 0.04 0 0.975 0.04 0 0.98 0.04 0 0.985 0.04 0 0.99 0.04 0 0.995 0.04 0 1 0.04 0 0 0.06 0 0.005 0.06 0 0.01 0.06 0 0.015 0.06 0 0.02 0.06 0 0.025 0.06 0 0.03 0.06 0 0.035 0.06 0 0.04 0.06 0 0.045 0.06 0 0.05 0.06 0 0.055 0.06 0 0.06 0.06 0 0.065 0.06 0 0.07 0.06 0 0.075 0.06 0 0.08 0.06 0 0.085 0.06 0 0.09 0.06 0 0.095 0.06 0 0.1 0.06 0 0.105 0.06 0 0.11 0.06 0 0.115 0.06 0 0.12 0.06 0 0.125 0.06 0 0.13 0.06 0 0.135 0.06 0 0.14 0.06 0 0.145 0.06 0 0.15 0.06 0 0.155 0.06 0 0.16 0.06 0 0.165 0.06 0 0.17 0.06 0 0.175 0.06 0 0.18 0.06 0 0.185 0.06 0 0.19 0.06 0 0.195 0.06 0 0.2 0.06 0 0.205 0.06 0 0.21 0.06 0 0.215 0.06 0 0.22 0.06 0 0.225 0.06 0 0.23 0.06 0 0.235 0.06 0 0.24 0.06 0 0.245 0.06 0 0.25 0.06 0 0.255 0.06 0 0.26 0.06 0 0.265 0.06 0 0.27 0.06 0 0.275 0.06 0 0.28 0.06 0 0.285 0.06 0 0.29 0.06 0 0.295 0.06 0 0.3 0.06 0 0.305 0.06 0 0.31 0.06 0 0.315 0.06 0 0.32 0.06 0 0.325 0.06 0 0.33 0.06 0 0.335 0.06 0 0.34 0.06 0 0.345 0.06 0 0.35 0.06 0 0.355 0.06 0 0.36 0.06 0 0.365 0.06 0 0.37 0.06 0 0.375 0.06 0 0.38 0.06 0 0.385 0.06 0 0.39 0.06 0 0.395 0.06 0 0.4 0.06 0 0.405 0.06 0 0.41 0.06 0 0.415 0.06 0 0.42 0.06 0 0.425 0.06 0 0.43 0.06 0 0.435 0.06 0 0.44 0.06 0 0.445 0.06 0 0.45 0.06 0 0.455 0.06 0 0.46 0.06 0 0.465 0.06 0 0.47 0.06 0 0.475 0.06 0 0.48 0.06 0 0.485 0.06 0 0.49 0.06 0 0.495 0.06 0 0.5 0.06 0 0.505 0.06 0 0.51 0.06 0 0.515 0.06 0 0.52 0.06 0 0.525 0.06 0 0.53 0.06 0 0.535 0.06 0 0.54 0.06 0 0.545 0.06 0 0.55 0.06 0 0.555 0.06 0 0.56 0.06 0 0.565 0.06 0 0.57 0.06 0 0.575 0.06 0 0.58 0.06 0 0.585 0.06 0 0.59 0.06 0 0.595 0.06 0 0.6 0.06 0 0.605 0.06 0 0.61 0.06 0 0.615 0.06 0 0.62 0.06 0 0.625 0.06 0 0.63 0.06 0 0.635 0.06 0 0.64 0.06 0 0.645 0.06 0 0.65 0.06 0 0.655 0.06 0 0.66 0.06 0 0.665 0.06 0 0.67 0.06 0 0.675 0.06 0 0.68 0.06 0 0.685 0.06 0 0.69 0.06 0 0.695 0.06 0 0.7 0.06 0 0.705 0.06 0 0.71 0.06 0 0.715 0.06 0 0.72 0.06 0 0.725 0.06 0 0.73 0.06 0 0.735 0.06 0 0.74 0.06 0 0.745 0.06 0 0.75 0.06 0 0.755 0.06 0 0.76 0.06 0 0.765 0.06 0 0.77 0.06 0 0.775 0.06 0 0.78 0.06 0 0.785 0.06 0 0.79 0.06 0 0.795 0.06 0 0.8 0.06 0 0.805 0.06 0 0.81 0.06 0 0.815 0.06 0 0.82 0.06 0 0.825 0.06 0 0.83 0.06 0 0.835 0.06 0 0.84 0.06 0 0.845 0.06 0 0.85 0.06 0 0.855 0.06 0 0.86 0.06 0 0.865 0.06 0 0.87 0.06 0 0.875 0.06 0 0.88 0.06 0 0.885 0.06 0 0.89 0.06 0 0.895 0.06 0 0.9 0.06 0 0.905 0.06 0 0.91 0.06 0 0.915 0.06 0 0.92 0.06 0 0.925 0.06 0 0.93 0.06 0 0.935 0.06 0 0.94 0.06 0 0.945 0.06 0 0.95 0.06 0 0.955 0.06 0 0.96 0.06 0 0.965 0.06 0 0.97 0.06 0 0.975 0.06 0 0.98 0.06 0 0.985 0.06 0 0.99 0.06 0 0.995 0.06 0 1 0.06 0 0 0.08 0 0.005 0.08 0 0.01 0.08 0 0.015 0.08 0 0.02 0.08 0 0.025 0.08 0 0.03 0.08 0 0.035 0.08 0 0.04 0.08 0 0.045 0.08 0 0.05 0.08 0 0.055 0.08 0 0.06 0.08 0 0.065 0.08 0 0.07 0.08 0 0.075 0.08 0 0.08 0.08 0 0.085 0.08 0 0.09 0.08 0 0.095 0.08 0 0.1 0.08 0 0.105 0.08 0 0.11 0.08 0 0.115 0.08 0 0.12 0.08 0 0.125 0.08 0 0.13 0.08 0 0.135 0.08 0 0.14 0.08 0 0.145 0.08 0 0.15 0.08 0 0.155 0.08 0 0.16 0.08 0 0.165 0.08 0
[...]
			<CellData Scalars="Density">
				<DataArray Name="Density" type="Float32" format="ascii">
 1 1 1 1 1 1 1 1 1 1 1 1 1 1 1 1 1 1 1 1 1 1 1 1 1 1 1 1 1 1 1 1 1 1 1 1 1 1 1 1 1 1 1 1 0.999999 0.999998 0.999994 0.999984 0.999959 0.999893 0.999731 0.999374 0.998669 0.997412 0.995359 0.992268 0.987929 0.982198 0.975014 0.966395 0.956429 0.945247 0.933013 0.919891 0.906052 0.891643 0.876803 0.861643 0.846252 0.830715 0.815082 0.799422 0.783777 0.768187 0.752683 0.737296 0.722047 0.706958 0.692046 0.677326 0.662811 0.648514 0.634446 0.620616 0.607035 0.593714 0.580663 0.567894 0.55542 0.543256 0.531422 0.519938 0.50883 0.498132 0.487883 0.47813 0.46893 0.460353 0.452476 0.445387 0.439171 0.433909 0.429657 0.426444 0.424162 0.423329 0.422898 0.422897 0.423016 0.423161 0.423191 0.423131 0.422936 0.422753 0.422635 0.422571 0.422522 0.422421 0.42214 0.421611 0.421042 0.4205 0.420068 0.419806 0.41954 0.418957 0.417061 0.410539 0.389 0.35408 0.321747 0.289195 0.261124 0.264592 0.265962 0.26624 0.266315 0.266358 0.266394 0.266415 0.266415 0.266406 0.266369 0.26631 0.266294 0.2663 0.266329 0.266376 0.266416 0.266439 0.266434 0.266439 0.266346 0.266309 0.264972 0.262843 0.247201 0.213998 0.150251 0.128836 0.125582 0.125089 0.125013 0.125002 0.125 0.125 0.125 0.125 0.125 0.125 0.125 0.125 0.125 0.125 0.125 0.125 0.125 0.125 0.125 0.125 0.125 0.125 0.125 0.125 0.125 0.125 0.125 0.125 0.125 0.125 0.125 0.125 0.125 0.125 0.125 0.125 0.125 0.125 0.125 0.125 1 1 1 1 1 1 1 1 1 1 1 1 1 1 1 1 1 1 1 1 1 1 1 1 1 1 1 1 1 1 1 1 1 1 1 1 1 1 1 1 1 1 1 1 0.999999 0.999998 0.999994 0.999984 0.999959 0.999893 0.999731 0.999374 0.998669 0.997412 0.995359 0.992268 0.987929 0.982198 0.975014 0.966395 0.956429 0.945247 0.933013 0.919891 0.906052 0.891643 0.876803 0.861643 0.846252 0.830715 0.815082 0.799422 0.783777 0.768187 0.752683 0.737296 0.722047 0.706958 0.692046 0.677326 0.662811 0.648514 0.634446 0.620616 0.607035 0.593714 0.580663 0.567894 0.55542 0.543256 0.531422 0.519938 0.50883 0.498132 0.487883 0.47813 0.46893 0.460353 0.452476 0.445387 0.439171 0.433909 0.429657 0.426444 0.424162 0.423329 0.422898 0.422897 0.423016 0.423161 0.423191 0.423131 0.422936 0.422753 0.422635 0.422571 0.422522 0.422421 0.42214 0.421611 0.421042 0.4205 0.420068 0.419806 0.41954 0.418957 0.417061 0.410539 0.389 0.35408 0.321747 0.289195 0.261124 0.264592 0.265962 0.26624 0.266315 0.266358 0.266394 0.266415 0.266415 0.266406 0.266369 0.26631 0.266294 0.2663 0.266329 0.266376 0.266416 0.266439 0.266434 0.266439 0.266346 0.266309 0.264972 0.262843 0.247201 0.213998 0.150251 0.128836 0.125582 0.125089 0.125013 0.125002 0.125 0.125 0.125 0.125 0.125 0.125 0.125 0.125 0.125 0.125 0.125 0.125 0.125 0.125 0.125 0.125 0.125 0.125 0.125 0.125 0.125 0.125 0.125 0.125 0.125 0.125 0.125 0.125 0.125 0.125 0.125 0.125 0.125 0.125 0.125 0.125 1 1 1 1 1 1 1 1 1 1 1 1 1 1 1 1 1 1 1 1 1 1 1 1 1 1 1 1 1 1 1 1 1 1 1 1 1 1 1 1 1 1 1 1 0.999999 0.999998 0.999994 0.999984 0.999959 0.999893 0.999731 0.999374 0.998669 0.997412 0.995359 0.992268 0.987929 0.982198 0.975014 0.966395 0.956429 0.945247 0.933013 0.919891 0.906052 0.891643 0.876803 0.861643 0.846252 0.830715 0.815082 0.799422 0.783777 0.768187 0.752683 0.737296 0.722047 0.706958 0.692046 0.677326 0.662811 0.648514 0.634446 0.620616 0.607035 0.593714 0.580663 0.567894 0.55542 0.543256 0.531422 0.519938 0.50883 0.498132 0.487883 0.47813 0.46893 0.460353 0.452476 0.445387 0.439171 0.433909 0.429657 0.426444 0.424162 0.423329 0.422898 0.422897 0.423016 0.423161 0.423191 0.423131 0.422936 0.422753 0.422635 0.422571 0.422522 0.422421 0.42214 0.421611 0.421042 0.4205 0.420068 0.419806 0.41954 0.418957 0.417061 0.410539 0.389 0.35408 0.321747 0.289195 0.261124 0.264592 0.265962 0.26624 0.266315 0.266358 0.266394 0.266415 0.266415 0.266406 0.266369 0.26631 0.266294 0.2663 0.266329 0.266376 0.266416 0.266439 0.266434 0.266439 0.266346 0.266309 0.264972 0.262843 0.247201 0.213998 0.150251 0.128836 0.125582 0.125089 0.125013 0.125002 0.125 0.125 0.125 0.125 0.125 0.125 0.125 0.125 0.125 0.125 0.125 0.125 0.125 0.125 0.125 0.125 0.125 0.125 0.125 0.125 0.125 0.125 0.125 0.125 0.125 0.125 0.125 0.125 0.125 0.125 0.125 0.125 0.125 0.125 0.125 0.125 1 1 1 1 1 1 1 1 1 1 1 1 1 1 1 1 1 1 1 1 1 1 1 1 1 1 1 1 1 1 1 1 1 1 1 1 1 1 1 1 1 1 1 1 0.999999 0.999998 0.999994 0.999984 0.999959 0.999893 0.999731 0.999374 0.998669 0.997412 0.995359 0.992268 0.987929 0.982198 0.975014 0.966395 0.956429 0.945247 0.933013 0.919891 0.906052 0.891643 0.876803 0.861643 0.846252 0.830715 0.815082 0.799422 0.783777 0.768187 0.752683 0.737296 0.722047 0.706958 0.692046 0.677326 0.662811 0.648514 0.634446 0.620616 0.607035 0.593714 0.580663 0.567894 0.55542 0.543256 0.531422 0.519938 0.50883 0.498132 0.487883 0.47813 0.46893 0.460353 0.452476 0.445387 0.439171 0.433909 0.429657 0.426444 0.424162 0.423329 0.422898 0.422897 0.423016 0.423161 0.423191 0.423131 0.422936 0.422753 0.422635 0.422571 0.422522 0.422421 0.42214 0.421611 0.421042 0.4205 0.420068 0.419806 0.41954 0.418957 0.417061 0.410539 0.389 0.35408 0.321747 0.289195 0.261124 0.264592 0.265962 0.26624 0.266315 0.266358 0.266394 0.266415 0.266415 0.266406 0.266369 0.26631 0.266294 0.2663 0.266329 0.266376 0.266416 0.266439 0.266434 0.266439 0.266346 0.266309 0.264972 0.262843 0.247201 0.213998 0.150251 0.128836 0.125582 0.125089 0.125013 0.125002 0.125 0.125 0.125 0.125 0.125 0.125 0.125 0.125 0.125 0.125 0.125 0.125 0.125 0.125 0.125 0.125 0.125 0.125 0.125 0.125 0.125 0.125 0.125 0.125 0.125 0.125 0.125 0.125 0.125 0.125 0.125 0.125 0.125 0.125 0.125 0.125 1 1 1 1 1 1 1 1 1 1 1 1 1 1 1 1 1 1 1 1 1 1 1 1 1 1 1 1 1 1 1 1 1 1 1 1 1 1 1 1 1 1 1 1 0.999999 0.999998 0.999994 0.999984 0.999959 0.999893 0.999731 0.999374 0.998669 0.997412 0.995359 0.992268 0.987929 0.982198 0.975014 0.966395 0.956429 0.945247 0.933013 0.919891 0.906052 0.891643 0.876803 0.861643 0.846252 0.830715 0.815082 0.799422 0.783777 0.768187 0.752683 0.737296 0.722047 0.706958 0.692046 0.677326 0.662811 0.648514 0.634446 0.620616 0.607035 0.593714 0.580663 0.567894 0.55542 0.543256 0.531422 0.519938 0.50883 0.498132 0.487883 0.47813 0.46893 0.460353 0.452476 0.445387 0.439171 0.433909 0.429657 0.426444 0.424162 0.423329 0.422898 0.422897 0.423016 0.423161 0.423191 0.423131 0.422936 0.422753 0.422635 0.422571 0.422522 0.422421 0.42214 0.421611 0.421042 0.4205 0.420068 0.419806 0.41954 0.418957 0.417061 0.410539 0.389 0.35408 0.321747 0.289195 0.261124 0.264592 0.265962 0.26624 0.266315 0.266358 0.266394 0.266415 0.266415 0.266406 0.266369 0.26631 0.266294 0.2663 0.266329 0.266376 0.266416 0.266439 0.266434 0.266439 0.266346 0.266309 0.264972 0.262843 0.247201 0.213998 0.150251 0.128836 0.125582 0.125089 0.125013 0.125002 0.125 0.125 0.125 0.125 0.125 0.125 0.125 0.125 0.125 0.125 0.125 0.125 0.125 0.125 0.125 0.125 0.125 0.125 0.125 0.125 0.125 0.125 0.125 0.125 0.125 0.125 0.125 0.125 0.125 0.125 0.125 0.125 0.125 0.125 0.125 0.125
				</DataArray>
				<DataArray Name="Energy" type="Float32" format="ascii">
 2.5 2.5 2.5 2.5 2.5 2.5 2.5 2.5 2.5 2.5 2.5 2.5 2.5 2.5 2.5 2.5 2.5 2.5 2.5 2.5 2.5 2.5 2.5 2.5 2.5 2.5 2.5 2.5 2.5 2.5 2.5 2.5 2.5 2.5 2.5 2.5 2.5 2.5 2.5 2.5 2.5 2.5 2.5 2.5 2.5 2.5 2.49999 2.49998 2.49996 2.49989 2.49973 2.49937 2.49867 2.49741 2.49536 2.49226 2.4879 2.48214 2.47489 2.46616 2.45601 2.44456 2.43195 2.41833 2.40384 2.38862 2.3728 2.35649 2.33975 2.32268 2.30534 2.28777 2.27001 2.2521 2.23409 2.21599 2.19783 2.17965 2.16146 2.14327 2.12512 2.10701 2.08896 2.07099 2.05311 2.03535 2.01773 2.00026 1.98298 1.96591 1.94909 1.93255 1.91636 1.90058 1.88527 1.87053 1.85648 1.84324 1.83098 1.81985 1.81004 1.80171 1.79501 1.79001 1.78767 1.78537 1.78556 1.78567 1.786 1.78646 1.78743 1.78847 1.78971 1.79067 1.79115 1.79133 1.79138 1.79167 1.7928 1.79512 1.79764 1.80004 1.80205 1.80328 1.80453 1.80724 1.81554 1.84403 1.94518 2.13795 2.35637 2.61172 2.89103 2.87214 2.8479 2.84435 2.84358 2.84319 2.84286 2.84271 2.84282 2.84299 2.84346 2.84417 2.84444 2.84443 2.84414 2.84364 2.84314 2.84283 2.84264 2.84257 2.84219 2.84218 2.83658 2.82732 2.75563 2.57091 2.17786 2.02512 2.00374 2.00057 2.00009 2.00001 2 2 2 2 2 2 2 2 2 2 2 2 2 2 2 2 2 2 2 2 2 2 2 2 2 2 2 2 2 2 2 2 2 2 2 2 2.5 2.5 2.5 2.5 2.5 2.5 2.5 2.5 2.5 2.5 2.5 2.5 2.5 2.5 2.5 2.5 2.5 2.5 2.5 2.5 2.5 2.5 2.5 2.5 2.5 2.5 2.5 2.5 2.5 2.5 2.5 2.5 2.5 2.5 2.5 2.5 2.5 2.5 2.5 2.5 2.5 2.5 2.5 2.5 2.5 2.5 2.49999 2.49998 2.49996 2.49989 2.49973 2.49937 2.49867 2.49741 2.49536 2.49226 2.4879 2.48214 2.47489 2.46616 2.45601 2.44456 2.43195 2.41833 2.40384 2.38862 2.3728 2.35649 2.33975 2.32268 2.30534 2.28777 2.27001 2.2521 2.23409 2.21599 2.19783 2.17965 2.16146 2.14327 2.12512 2.10701 2.08896 2.07099 2.05311 2.03535 2.01773 2.00026 1.98298 1.96591 1.94909 1.93255 1.91636 1.90058 1.88527 1.87053 1.85648 1.84324 1.83098 1.81985 1.81004 1.80171 1.79501 1.79001 1.78767 1.78537 1.78556 1.78567 1.786 1.78646 1.78743 1.78847 1.78971 1.79067 1.79115 1.79133 1.79138 1.79167 1.7928 1.79512 1.79764 1.80004 1.80205 1.80328 1.80453 1.80724 1.81554 1.84403 1.94518 2.13795 2.35637 2.61172 2.89103 2.87214 2.8479 2.84435 2.84358 2.84319 2.84286 2.84271 2.84282 2.84299 2.84346 2.84417 2.84444 2.84443 2.84414 2.84364 2.84314 2.84283 2.84264 2.84257 2.84219 2.84218 2.83658 2.82732 2.75563 2.57091 2.17786 2.02512 2.00374 2.00057 2.00009 2.00001 2 2 2 2 2 2 2 2 2 2 2 2 2 2 2 2 2 2 2 2 2 2 2 2 2 2 2 2 2 2 2 2 2 2 2 2 2.5 2.5 2.5 2.5 2.5 2.5 2.5 2.5 2.5 2.5 2.5 2.5 2.5 2.5 2.5 2.5 2.5 2.5 2.5 2.5 2.5 2.5 2.5 2.5 2.5 2.5 2.5 2.5 2.5 2.5 2.5 2.5 2.5 2.5 2.5 2.5 2.5 2.5 2.5 2.5 2.5 2.5 2.5 2.5 2.5 2.5 2.49999 2.49998 2.49996 2.49989 2.49973 2.49937 2.49867 2.49741 2.49536 2.49226 2.4879 2.48214 2.47489 2.46616 2.45601 2.44456 2.43195 2.41833 2.40384 2.38862 2.3728 2.35649 2.33975 2.32268 2.30534 2.28777 2.27001 2.2521 2.23409 2.21599 2.19783 2.17965 2.16146 2.14327 2.12512 2.10701 2.08896 2.07099 2.05311 2.03535 2.01773 2.00026 1.98298 1.96591 1.94909 1.93255 1.91636 1.90058 1.88527 1.87053 1.85648 1.84324 1.83098 1.81985 1.81004 1.80171 1.79501 1.79001 1.78767 1.78537 1.78556 1.78567 1.786 1.78646 1.78743 1.78847 1.78971 1.79067 1.79115 1.79133 1.79138 1.79167 1.7928 1.79512 1.79764 1.80004 1.80205 1.80328 1.80453 1.80724 1.81554 1.84403 1.94518 2.13795 2.35637 2.61172 2.89103 2.87214 2.8479 2.84435 2.84358 2.84319 2.84286 2.84271 2.84282 2.84299 2.84346 2.84417 2.84444 2.84443 2.84414 2.84364 2.84314 2.84283 2.84264 2.84257 2.84219 2.84218 2.83658 2.82732 2.75563 2.57091 2.17786 2.02512 2.00374 2.00057 2.00009 2.00001 2 2 2 2 2 2 2 2 2 2 2 2 2 2 2 2 2 2 2 2 2 2 2 2 2 2 2 2 2 2 2 2 2 2 2 2 2.5 2.5 2.5 2.5 2.5 2.5 2.5 2.5 2.5 2.5 2.5 2.5 2.5 2.5 2.5 2.5 2.5 2.5 2.5 2.5 2.5 2.5 2.5 2.5 2.5 2.5 2.5 2.5 2.5 2.5 2.5 2.5 2.5 2.5 2.5 2.5 2.5 2.5 2.5 2.5 2.5 2.5 2.5 2.5 2.5 2.5 2.49999 2.49998 2.49996 2.49989 2.49973 2.49937 2.49867 2.49741 2.49536 2.49226 2.4879 2.48214 2.47489 2.46616 2.45601 2.44456 2.43195 2.41833 2.40384 2.38862 2.3728 2.35649 2.33975 2.32268 2.30534 2.28777 2.27001 2.2521 2.23409 2.21599 2.19783 2.17965 2.16146 2.14327 2.12512 2.10701 2.08896 2.07099 2.05311 2.03535 2.01773 2.00026 1.98298 1.96591 1.94909 1.93255 1.91636 1.90058 1.88527 1.87053 1.85648 1.84324 1.83098 1.81985 1.81004 1.80171 1.79501 1.79001 1.78767 1.78537 1.78556 1.78567 1.786 1.78646 1.78743 1.78847 1.78971 1.79067 1.79115 1.79133 1.79138 1.79167 1.7928 1.79512 1.79764 1.80004 1.80205 1.80328 1.80453 1.80724 1.81554 1.84403 1.94518 2.13795 2.35637 2.61172 2.89103 2.87214 2.8479 2.84435 2.84358 2.84319 2.84286 2.84271 2.84282 2.84299 2.84346 2.84417 2.84444 2.84443 2.84414 2.84364 2.84314 2.84283 2.84264 2.84257 2.84219 2.84218 2.83658 2.82732 2.75563 2.57091 2.17786 2.02512 2.00374 2.00057 2.00009 2.00001 2 2 2 2 2 2 2 2 2 2 2 2 2 2 2 2 2 2 2 2 2 2 2 2 2 2 2 2 2 2 2 2 2 2 2 2 2.5 2.5 2.5 2.5 2.5 2.5 2.5 2.5 2.5 2.5 2.5 2.5 2.5 2.5 2.5 2.5 2.5 2.5 2.5 2.5 2.5 2.5 2.5 2.5 2.5 2.5 2.5 2.5 2.5 2.5 2.5 2.5 2.5 2.5 2.5 2.5 2.5 2.5 2.5 2.5 2.5 2.5 2.5 2.5 2.5 2.5 2.49999 2.49998 2.49996 2.49989 2.49973 2.49937 2.49867 2.49741 2.49536 2.49226 2.4879 2.48214 2.47489 2.46616 2.45601 2.44456 2.43195 2.41833 2.40384 2.38862 2.3728 2.35649 2.33975 2.32268 2.30534 2.28777 2.27001 2.2521 2.23409 2.21599 2.19783 2.17965 2.16146 2.14327 2.12512 2.10701 2.08896 2.07099 2.05311 2.03535 2.01773 2.00026 1.98298 1.96591 1.94909 1.93255 1.91636 1.90058 1.88527 1.87053 1.85648 1.84324 1.83098 1.81985 1.81004 1.80171 1.79501 1.79001 1.78767 1.78537 1.78556 1.78567 1.786 1.78646 1.78743 1.78847 1.78971 1.79067 1.79115 1.79133 1.79138 1.79167 1.7928 1.79512 1.79764 1.80004 1.80205 1.80328 1.80453 1.80724 1.81554 1.84403 1.94518 2.13795 2.35637 2.61172 2.89103 2.87214 2.8479 2.84435 2.84358 2.84319 2.84286 2.84271 2.84282 2.84299 2.84346 2.84417 2.84444 2.84443 2.84414 2.84364 2.84314 2.84283 2.84264 2.84257 2.84219 2.84218 2.83658 2.82732 2.75563 2.57091 2.17786 2.02512 2.00374 2.00057 2.00009 2.00001 2 2 2 2 2 2 2 2 2 2 2 2 2 2 2 2 2 2 2 2 2 2 2 2 2 2 2 2 2 2 2 2 2 2 2 2
				</DataArray>
				<DataArray Name="F1" type="Float32" format="ascii">
 1 1 1 1 1 1 1 1 1 1 1 1 1 1 1 1 1 1 1 1 1 1 1 1 1 1 1 1 1 1 1 1 1 1 1 1 1 1 1 1 1 1 1 1 1 1 1 1 1 1 1 1 1 1 1 1 1 1 1 1 1 1 1 1 1 1 1 1 1 1 1 1 1 1 1 1 1 1 1 1 1 1 1 1 1 1 1 1 1 1 1 1 1 1 1 1 1 1 1 1 1 1 1 1 1 1 1 1 1 1 1 1 1 1 1 1 1 1 1 0.999998 0.999994 0.999975 0.999907 0.999659 0.998795 0.995856 0.986083 0.954135 0.851312 0.655365 0.449742 0.247483 0.065155 0.00396609 0.000222222 1.25348e-05 7.1107e-07 4.02993e-08 2.28078e-09 1.28947e-10 7.27947e-12 4.08417e-13 2.18655e-14 1.51602e-15 0 0 0 0 0 0 0 0 0 0 0 0 0 0 0 0 0 0 0 0 0 0 0 0 0 0 0 0 0 0 0 0 0 0 0 0 0 0 0 0 0 0 0 0 0 0 0 0 0 0 0 0 0 0 0 0 1 1 1 1 1 1 1 1 1 1 1 1 1 1 1 1 1 1 1 1 1 1 1 1 1 1 1 1 1 1 1 1 1 1 1 1 1 1 1 1 1 1 1 1 1 1 1 1 1 1 1 1 1 1 1 1 1 1 1 1 1 1 1 1 1 1 1 1 1 1 1 1 1 1 1 1 1 1 1 1 1 1 1 1 1 1 1 1 1 1 1 1 1 1 1 1 1 1 1 1 1 1 1 1 1 1 1 1 1 1 1 1 1 1 1 1 1 1 1 0.999998 0.999994 0.999975 0.999907 0.999659 0.998795 0.995856 0.986083 0.954135 0.851312 0.655365 0.449742 0.247483 0.065155 0.00396609 0.000222222 1.25348e-05 7.1107e-07 4.02993e-08 2.28078e-09 1.28947e-10 7.27947e-12 4.08417e-13 2.18655e-14 1.51602e-15 0 0 0 0 0 0 0 0 0 0 0 0 0 0 0 0 0 0 0 0 0 0 0 0 0 0 0 0 0 0 0 0 0 0 0 0 0 0 0 0 0 0 0 0 0 0 0 0 0 0 0 0 0 0 0 0 1 1 1 1 1 1 1 1 1 1 1 1 1 1 1 1 1 1 1 1 1 1 1 1 1 1 1 1 1 1 1 1 1 1 1 1 1 1 1 1 1 1 1 1 1 1 1 1 1 1 1 1 1 1 1 1 1 1 1 1 1 1 1 1 1 1 1 1 1 1 1 1 1 1 1 1 1 1 1 1 1 1 1 1 1 1 1 1 1 1 1 1 1 1 1 1 1 1 1 1 1 1 1 1 1 1 1 1 1 1 1 1 1 1 1 1 1 1 1 0.999998 0.999994 0.999975 0.999907 0.999659 0.998795 0.995856 0.986083 0.954135 0.851312 0.655365 0.449742 0.247483 0.065155 0.00396609 0.000222222 1.25348e-05 7.1107e-07 4.02993e-08 2.28078e-09 1.28947e-10 7.27947e-12 4.08417e-13 2.18655e-14 1.51602e-15 0 0 0 0 0 0 0 0 0 0 0 0 0 0 0 0 0 0 0 0 0 0 0 0 0 0 0 0 0 0 0 0 0 0 0 0 0 0 0 0 0 0 0 0 0 0 0 0 0 0 0 0 0 0 0 0 1 1 1 1 1 1 1 1 1 1 1 1 1 1 1 1 1 1 1 1 1 1 1 1 1 1 1 1 1 1 1 1 1 1 1 1 1 1 1 1 1 1 1 1 1 1 1 1 1 1 1 1 1 1 1 1 1 1 1 1 1 1 1 1 1 1 1 1 1 1 1 1 1 1 1 1 1 1 1 1 1 1 1 1 1 1 1 1 1 1 1 1 1 1 1 1 1 1 1 1 1 1 1 1 1 1 1 1 1 1 1 1 1 1 1 1 1 1 1 0.999998 0.999994 0.999975 0.999907 0.999659 0.998795 0.995856 0.986083 0.954135 0.851312 0.655365 0.449742 0.247483 0.065155 0.00396609 0.000222222 1.25348e-05 7.1107e-07 4.02993e-08 2.28078e-09 1.28947e-10 7.27947e-12 4.08417e-13 2.18655e-14 1.51602e-15 0 0 0 0 0 0 0 0 0 0 0 0 0 0 0 0 0 0 0 0 0 0 0 0 0 0 0 0 0 0 0 0 0 0 0 0 0 0 0 0 0 0 0 0 0 0 0 0 0 0 0 0 0 0 0 0 1 1 1 1 1 1 1 1 1 1 1 1 1 1 1 1 1 1 1 1 1 1 1 1 1 1 1 1 1 1 1 1 1 1 1 1 1 1 1 1 1 1 1 1 1 1 1 1 1 1 1 1 1 1 1 1 1 1 1 1 1 1 1 1 1 1 1 1 1 1 1 1 1 1 1 1 1 1 1 1 1 1 1 1 1 1 1 1 1 1 1 1 1 1 1 1 1 1 1 1 1 1 1 1 1 1 1 1 1 1 1 1 1 1 1 1 1 1 1 0.999998 0.999994 0.999975 0.999907 0.999659 0.998795 0.995856 0.986083 0.954135 0.851312 0.655365 0.449742 0.247483 0.065155 0.00396609 0.000222222 1.25348e-05 7.1107e-07 4.02993e-08 2.28078e-09 1.28947e-10 7.27947e-12 4.08417e-13 2.18655e-14 1.51602e-15 0 0 0 0 0 0 0 0 0 0 0 0 0 0 0 0 0 0 0 0 0 0 0 0 0 0 0 0 0 0 0 0 0 0 0 0 0 0 0 0 0 0 0 0 0 0 0 0 0 0 0 0 0 0 0 0
				</DataArray>
				<DataArray Name="F2" type="Float32" format="ascii">
 0 0 0 0 0 0 0 0 0 0 0 0 0 0 0 0 0 0 0 0 0 0 0 0 0 0 0 0 0 0 0 0 0 0 0 0 0 0 0 0 0 0 0 0 0 0 0 0 0 0 0 0 0 0 0 0 0 0 0 0 0 0 0 0 0 0 0 0 0 0 0 0 0 0 0 0 0 0 0 0 0 0 0 0 0 0 0 0 0 0 0 0 0 0 0 0 0 0 0 0 0 0 0 0 0 0 4.62133e-16 1.4054e-15 5.60307e-15 4.00526e-14 3.13559e-13 2.28236e-12 1.53732e-11 9.61822e-11 5.61175e-10 3.06456e-09 1.57195e-08 7.60022e-08 3.47549e-07 1.5083e-06 6.2338e-06 2.46256e-05 9.33466e-05 0.000340961 0.0012054 0.00414386 0.0139174 0.0458654 0.148688 0.344635 0.550258 0.752517 0.934845 0.996034 0.999778 0.999987 0.999999 1 1 1 1 1 1 1 1 1 1 1 1 1 1 1 1 1 1 1 1 1 1 1 1 1 1 1 1 1 1 1 1 1 1 1 1 1 1 1 1 1 1 1 1 1 1 1 1 1 1 1 1 1 1 1 1 1 1 1 1 1 1 1 0 0 0 0 0 0 0 0 0 0 0 0 0 0 0 0 0 0 0 0 0 0 0 0 0 0 0 0 0 0 0 0 0 0 0 0 0 0 0 0 0 0 0 0 0 0 0 0 0 0 0 0 0 0 0 0 0 0 0 0 0 0 0 0 0 0 0 0 0 0 0 0 0 0 0 0 0 0 0 0 0 0 0 0 0 0 0 0 0 0 0 0 0 0 0 0 0 0 0 0 0 0 0 0 0 0 4.62133e-16 1.4054e-15 5.60307e-15 4.00526e-14 3.13559e-13 2.28236e-12 1.53732e-11 9.61822e-11 5.61175e-10 3.06456e-09 1.57195e-08 7.60022e-08 3.47549e-07 1.5083e-06 6.2338e-06 2.46256e-05 9.33466e-05 0.000340961 0.0012054 0.00414386 0.0139174 0.0458654 0.148688 0.344635 0.550258 0.752517 0.934845 0.996034 0.999778 0.999987 0.999999 1 1 1 1 1 1 1 1 1 1 1 1 1 1 1 1 1 1 1 1 1 1 1 1 1 1 1 1 1 1 1 1 1 1 1 1 1 1 1 1 1 1 1 1 1 1 1 1 1 1 1 1 1 1 1 1 1 1 1 1 1 1 1 0 0 0 0 0 0 0 0 0 0 0 0 0 0 0 0 0 0 0 0 0 0 0 0 0 0 0 0 0 0 0 0 0 0 0 0 0 0 0 0 0 0 0 0 0 0 0 0 0 0 0 0 0 0 0 0 0 0 0 0 0 0 0 0 0 0 0 0 0 0 0 0 0 0 0 0 0 0 0 0 0 0 0 0 0 0 0 0 0 0 0 0 0 0 0 0 0 0 0 0 0 0 0 0 0 0 4.62133e-16 1.4054e-15 5.60307e-15 4.00526e-14 3.13559e-13 2.28236e-12 1.53732e-11 9.61822e-11 5.61175e-10 3.06456e-09 1.57195e-08 7.60022e-08 3.47549e-07 1.5083e-06 6.2338e-06 2.46256e-05 9.33466e-05 0.000340961 0.0012054 0.00414386 0.0139174 0.0458654 0.148688 0.344635 0.550258 0.752517 0.934845 0.996034 0.999778 0.999987 0.999999 1 1 1 1 1 1 1 1 1 1 1 1 1 1 1 1 1 1 1 1 1 1 1 1 1 1 1 1 1 1 1 1 1 1 1 1 1 1 1 1 1 1 1 1 1 1 1 1 1 1 1 1 1 1 1 1 1 1 1 1 1 1 1 0 0 0 0 0 0 0 0 0 0 0 0 0 0 0 0 0 0 0 0 0 0 0 0 0 0 0 0 0 0 0 0 0 0 0 0 0 0 0 0 0 0 0 0 0 0 0 0 0 0 0 0 0 0 0 0 0 0 0 0 0 0 0 0 0 0 0 0 0 0 0 0 0 0 0 0 0 0 0 0 0 0 0 0 0 0 0 0 0 0 0 0 0 0 0 0 0 0 0 0 0 0 0 0 0 0 4.62133e-16 1.4054e-15 5.60307e-15 4.00526e-14 3.13559e-13 2.28236e-12 1.53732e-11 9.61822e-11 5.61175e-10 3.06456e-09 1.57195e-08 7.60022e-08 3.47549e-07 1.5083e-06 6.2338e-06 2.46256e-05 9.33466e-05 0.000340961 0.0012054 0.00414386 0.0139174 0.0458654 0.148688 0.344635 0.550258 0.752517 0.934845 0.996034 0.999778 0.999987 0.999999 1 1 1 1 1 1 1 1 1 1 1 1 1 1 1 1 1 1 1 1 1 1 1 1 1 1 1 1 1 1 1 1 1 1 1 1 1 1 1 1 1 1 1 1 1 1 1 1 1 1 1 1 1 1 1 1 1 1 1 1 1 1 1 0 0 0 0 0 0 0 0 0 0 0 0 0 0 0 0 0 0 0 0 0 0 0 0 0 0 0 0 0 0 0 0 0 0 0 0 0 0 0 0 0 0 0 0 0 0 0 0 0 0 0 0 0 0 0 0 0 0 0 0 0 0 0 0 0 0 0 0 0 0 0 0 0 0 0 0 0 0 0 0 0 0 0 0 0 0 0 0 0 0 0 0 0 0 0 0 0 0 0 0 0 0 0 0 0 0 4.62133e-16 1.4054e-15 5.60307e-15 4.00526e-14 3.13559e-13 2.28236e-12 1.53732e-11 9.61822e-11 5.61175e-10 3.06456e-09 1.57195e-08 7.60022e-08 3.47549e-07 1.5083e-06 6.2338e-06 2.46256e-05 9.33466e-05 0.000340961 0.0012054 0.00414386 0.0139174 0.0458654 0.148688 0.344635 0.550258 0.752517 0.934845 0.996034 0.999778 0.999987 0.999999 1 1 1 1 1 1 1 1 1 1 1 1 1 1 1 1 1 1 1 1 1 1 1 1 1 1 1 1 1 1 1 1 1 1 1 1 1 1 1 1 1 1 1 1 1 1 1 1 1 1 1 1 1 1 1 1 1 1 1 1 1 1 1
				</DataArray>
				<DataArray Name="F3" type="Float32" format="ascii">