<?xml version="1.0"?>
<VTKFile type="PolyData">
	<PolyData>
		<Piece NumberOfPoints="1206" NumberOfPolys="1000">
			<Points>
				<DataArray type="Float32" NumberOfComponents="3" format="ascii">
 0 0 0 0.02 0 0 0.04 0 0 0.06 0 0 0.08 0 0 0.1 0 0 0 0.005 0 0.02 0.005 0 0.04 0.005 0 0.06 0.005 0 0.08 0.005 0 0.1 0.005 0 0 0.01 0 0.02 0.01 0 0.04 0.01 0 0.06 0.01 0 0.08 0.01 0 0.1 0.01 0 0 0.015 0 0.02 0.015 0 0.04 0.015 0 0.06 0.015 0 0.08 0.015 0 0.1 0.015 0 0 0.02 0 0.02 0.02 0 0.04 0.02 0 0.06 0.02 0 0.08 0.02 0 0.1 0.02 0 0 0.025 0 0.02 0.025 0 0.04 0.025 0 0.06 0.025 0 0.08 0.025 0 0.1 0.025 0 0 0.03 0 0.02 0.03 0 0.04 0.03 0 0.06 0.03 0 0.08 0.03 0 0.1 0.03 0 0 0.035 0 0.02 0.035 0 0.04 0.035 0 0.06 0.035 0 0.08 0.035 0 0.1 0.035 0 0 0.04 0 0.02 0.04 0 0.04 0.04 0 0.06 0.04 0 0.08 0.04 0 0.1 0.04 0 0 0.045 0 0.02 0.045 0 0.04 0.045 0 0.06 0.045 0 0.08 0.045 0 0.1 0.045 0 0 0.05 0 0.02 0.05 0 0.04 0.05 0 0.06 0.05 0 0.08 0.05 0 0.1 0.05 0 0 0.055 0 0.02 0.055 0 0.04 0.055 0 0.06 0.055 0 0.08 0.055 0 0.1 0.055 0 0 0.06 0 0.02 0.06 0 0.04 0.06 0 0.06 0.06 0 0.08 0.06 0 0.1 0.06 0 0 0.065 0 0.02 0.065 0 0.04 0.065 0 0.06 0.065 0 0.08 0.065 0 0.1 0.065 0 0 0.07 0 0.02 0.07 0 0.04 0.07 0 0.06 0.07 0 0.08 0.07 0 0.1 0.07 0 0 0.075 0 0.02 0.075 0 0.04 0.075 0 0.06 0.075 0 0.08 0.075 0 0.1 0.075 0 0 0.08 0 0.02 0.08 0 0.04 0.08 0 0.06 0.08 0 0.08 0.08 0 0.1 0.08 0 0 0.085 0 0.02 0.085 0 0.04 0.085 0 0.06 0.085 0 0.08 0.085 0 0.1 0.085 0 0 0.09 0 0.02 0.09 0 0.04 0.09 0 0.06 0.09 0 0.08 0.09 0 0.1 0.09 0 0 0.095 0 0.02 0.095 0 0.04 0.095 0 0.06 0.095 0 0.08 0.095 0 0.1 0.095 0 0 0.1 0 0.02 0.1 0 0.04 0.1 0 0.06 0.1 0 0.08 0.1 0 0.1 0.1 0 0 0.105 0 0.02 0.105 0 0.04 0.105 0 0.06 0.105 0 0.08 0.105 0 0.1 0.105 0 0 0.11 0 0.02 0.11 0 0.04 0.11 0 0.06 0.11 0 0.08 0.11 0 0.1 0.11 0 0 0.115 0 0.02 0.115 0 0.04 0.115 0 0.06 0.115 0 0.08 0.115 0 0.1 0.115 0 0 0.12 0 0.02 0.12 0 0.04 0.12 0 0.06 0.12 0 0.08 0.12 0 0.1 0.12 0 0 0.125 0 0.02 0.125 0 0.04 0.125 0 0.06 0.125 0 0.08 0.125 0 0.1 0.125 0 0 0.13 0 0.02 0.13 0 0.04 0.13 0 0.06 0.13 0 0.08 0.13 0 0.1 0.13 0 0 0.135 0 0.02 0.135 0 0.04 0.135 0 0.06 0.135 0 0.08 0.135 0 0.1 0.135 0 0 0.14 0 0.02 0.14 0 0.04 0.14 0 0.06 0.14 0 0.08 0.14 0 0.1 0.14 0 0 0.145 0 0.02 0.145 0 0.04 0.145 0 0.06 0.145 0 0.08 0.145 0 0.1 0.145 0 0 0.15 0 0.02 0.15 0 0.04 0.15 0 0.06 0.15 0 0.08 0.15 0 0.1 0.15 0 0 0.155 0 0.02 0.155 0 0.04 0.155 0 0.06 0.155 0 0.08 0.155 0 0.1 0.155 0 0 0.16 0 0.02 0.16 0 0.04 0.16 0 0.06 0.16 0 0.08 0.16 0 0.1 0.16 0 0 0.165 0 0.02 0.165 0 0.04 0.165 0 0.06 0.165 0 0.08 0.165 0 0.1 0.165 0 0 0.17 0 0.02 0.17 0 0.04 0.17 0 0.06 0.17 0 0.08 0.17 0 0.1 0.17 0 0 0.175 0 0.02 0.175 0 0.04 0.175 0 0.06 0.175 0 0.08 0.175 0 0.1 0.175 0 0 0.18 0 0.02 0.18 0 0.04 0.18 0 0.06 0.18 0 0.08 0.18 0 0.1 0.18 0 0 0.185 0 0.02 0.185 0 0.04 0.185 0 0.06 0.185 0 0.08 0.185 0 0.1 0.185 0 0 0.19 0 0.02 0.19 0 0.04 0.19 0 0.06 0.19 0 0.08 0.19 0 0.1 0.19 0 0 0.195 0 0.02 0.195 0 0.04 0.195 0 0.06 0.195 0 0.08 0.195 0 0.1 0.195 0 0 0.2 0 0.02 0.2 0 0.04 0.2 0 0.06 0.2 0 0.08 0.2 0 0.1 0.2 0 0 0.205 0 0.02 0.205 0 0.04 0.205 0 0.06 0.205 0 0.08 0.205 0 0.1 0.205 0 0 0.21 0 0.02 0.21 0 0.04 0.21 0 0.06 0.21 0 0.08 0.21 0 0.1 0.21 0 0 0.215 0 0.02 0.215 0 0.04 0.215 0 0.06 0.215 0 0.08 0.215 0 0.1 0.215 0 0 0.22 0 0.02 0.22 0 0.04 0.22 0 0.06 0.22 0 0.08 0.22 0 0.1 0.22 0 0 0.225 0 0.02 0.225 0 0.04 0.225 0 0.06 0.225 0 0.08 0.225 0 0.1 0.225 0 0 0.23 0 0.02 0.23 0 0.04 0.23 0 0.06 0.23 0 0.08 0.23 0 0.1 0.23 0 0 0.235 0 0.02 0.235 0 0.04 0.235 0 0.06 0.235 0 0.08 0.235 0 0.1 0.235 0 0 0.24 0 0.02 0.24 0 0.04 0.24 0 0.06 0.24 0 0.08 0.24 0 0.1 0.24 0 0 0.245 0 0.02 0.245 0 0.04 0.245 0 0.06 0.245 0 0.08 0.245 0 0.1 0.245 0 0 0.25 0 0.02 0.25 0 0.04 0.25 0 0.06 0.25 0 0.08 0.25 0 0.1 0.25 0 0 0.255 0 0.02 0.255 0 0.04 0.255 0 0.06 0.255 0 0.08 0.255 0 0.1 0.255 0 0 0.26 0 0.02 0.26 0 0.04 0.26 0 0.06 0.26 0 0.08 0.26 0 0.1 0.26 0 0 0.265 0 0.02 0.265 0 0.04 0.265 0 0.06 0.265 0 0.08 0.265 0 0.1 0.265 0 0 0.27 0 0.02 0.27 0 0.04 0.27 0 0.06 0.27 0 0.08 0.27 0 0.1 0.27 0 0 0.275 0 0.02 0.275 0 0.04 0.275 0 0.06 0.275 0 0.08 0.275 0 0.1 0.275 0 0 0.28 0 0.02 0.28 0 0.04 0.28 0 0.06 0.28 0 0.08 0.28 0 0.1 0.28 0 0 0.285 0 0.02 0.285 0 0.04 0.285 0 0.06 0.285 0 0.08 0.285 0 0.1 0.285 0 0 0.29 0 0.02 0.29 0 0.04 0.29 0 0.06 0.29 0 0.08 0.29 0 0.1 0.29 0 0 0.295 0 0.02 0.295 0 0.04 0.295 0 0.06 0.295 0 0.08 0.295 0 0.1 0.295 0 0 0.3 0 0.02 0.3 0 0.04 0.3 0 0.06 0.3 0 0.08 0.3 0 0.1 0.3 0 0 0.305 0 0.02 0.305 0 0.04 0.305 0 0.06 0.305 0 0.08 0.305 0 0.1 0.305 0 0 0.31 0 0.02 0.31 0 0.04 0.31 0 0.06 0.31 0 0.08 0.31 0 0.1 0.31 0 0 0.315 0 0.02 0.315 0 0.04 0.315 0 0.06 0.315 0 0.08 0.315 0 0.1 0.315 0 0 0.32 0 0.02 0.32 0 0.04 0.32 0 0.06 0.32 0 0.08 0.32 0 0.1 0.32 0 0 0.325 0 0.02 0.325 0 0.04 0.325 0 0.06 0.325 0 0.08 0.325 0 0.1 0.325 0 0 0.33 0 0.02 0.33 0 0.04 0.33 0 0.06 0.33 0 0.08 0.33 0 0.1 0.33 0 0 0.335 0 0.02 0.335 0 0.04 0.335 0 0.06 0.335 0 0.08 0.335 0 0.1 0.335 0 0 0.34 0 0.02 0.34 0 0.04 0.34 0 0.06 0.34 0 0.08 0.34 0 0.1 0.34 0 0 0.345 0 0.02 0.345 0 0.04 0.345 0 0.06 0.345 0 0.08 0.345 0 0.1 0.345 0 0 0.35 0 0.02 0.35 0 0.04 0.35 0 0.06 0.35 0 0.08 0.35 0 0.1 0.35 0 0 0.355 0 0.02 0.355 0 0.04 0.355 0 0.06 0.355 0 0.08 0.355 0 0.1 0.355 0 0 0.36 0 0.02 0.36 0 0.04 0.36 0 0.06 0.36 0 0.08 0.36 0 0.1 0.36 0 0 0.365 0 0.02 0.365 0 0.04 0.365 0 0.06 0.365 0 0.08 0.365 0 0.1 0.365 0 0 0.37 0 0.02 0.37 0 0.04 0.37 0 0.06 0.37 0 0.08 0.37 0 0.1 0.37 0 0 0.375 0 0.02 0.375 0 0.04 0.375 0 0.06 0.375 0 0.08 0.375 0 0.1 0.375 0 0 0.38 0 0.02 0.38 0 0.04 0.38 0 0.06 0.38 0 0.08 0.38 0 0.1 0.38 0 0 0.385 0 0.02 0.385 0 0.04 0.385 0 0.06 0.385 0 0.08 0.385 0 0.1 0.385 0 0 0.39 0 0.02 0.39 0 0.04 0.39 0 0.06 0.39 0 0.08 0.39 0 0.1 0.39 0 0 0.395 0 0.02 0.395 0 0.04 0.395 0 0.06 0.395 0 0.08 0.395 0 0.1 0.395 0 0 0.4 0 0.02 0.4 0 0.04 0.4 0 0.06 0.4 0 0.08 0.4 0 0.1 0.4 0 0 0.405 0 0.02 0.405 0 0.04 0.405 0 0.06 0.405 0 0.08 0.405 0 0.1 0.405 0 0 0.41 0 0.02 0.41 0 0.04 0.41 0 0.06 0.41 0 0.08 0.41 0 0.1 0.41 0 0 0.415 0 0.02 0.415 0 0.04 0.415 0 0.06 0.415 0 0.08 0.415 0 0.1 0.415 0 0 0.42 0 0.02 0.42 0 0.04 0.42 0 0.06 0.42 0 0.08 0.42 0 0.1 0.42 0 0 0.425 0 0.02 0.425 0 0.04 0.425 0 0.06 0.425 0 0.08 0.425 0 0.1 0.425 0 0 0.43 0 0.02 0.43 0 0.04 0.43 0 0.06 0.43 0 0.08 0.43 0 0.1 0.43 0 0 0.435 0 0.02 0.435 0 0.04 0.435 0 0.06 0.435 0 0.08 0.435 0 0.1 0.435 0 0 0.44 0 0.02 0.44 0 0.04 0.44 0 0.06 0.44 0 0.08 0.44 0 0.1 0.44 0 0 0.445 0 0.02 0.445 0 0.04 0.445 0 0.06 0.445 0 0.08 0.445 0 0.1 0.445 0 0 0.45 0 0.02 0.45 0 0.04 0.45 0 0.06 0.45 0 0.08 0.45 0 0.1 0.45 0 0 0.455 0 0.02 0.455 0 0.04 0.455 0 0.06 0.455 0 0.08 0.455 0 0.1 0.455 0 0 0.46 0 0.02 0.46 0 0.04 0.46 0 0.06 0.46 0 0.08 0.46 0 0.1 0.46 0 0 0.465 0 0.02 0.465 0 0.04 0.465 0 0.06 0.465 0 0.08 0.465 0 0.1 0.465 0 0 0.47 0 0.02 0.47 0 0.04 0.47 0 0.06 0.47 0 0.08 0.47 0 0.1 0.47 0 0 0.475 0 0.02 0.475 0 0.04 0.475 0 0.06 0.475 0 0.08 0.475 0 0.1 0.475 0 0 0.48 0 0.02 0.48 0 0.04 0.48 0 0.06 0.48 0 0.08 0.48 0 0.1 0.48 0 0 0.485 0 0.02 0.485 0 0.04 0.485 0 0.06 0.485 0 0.08 0.485 0 0.1 0.485 0 0 0.49 0 0.02 0.49 0 0.04 0.49 0 0.06 0.49 0 0.08 0.49 0 0.1 0.49 0 0 0.495 0 0.02 0.495 0 0.04 0.495 0 0.06 0.495 0 0.08 0.495 0 0.1 0.495 0 0 0.5 0 0.02 0.5 0 0.04 0.5 0 0.06 0.5 0 0.08 0.5 0 0.1 0.5 0 0 0.505 0 0.02 0.505 0 0.04 0.505 0 0.06 0.505 0 0.08 0.505 0 0.1 0.505 0 0 0.51 0 0.02 0.51 0 0.04 0.51 0 0.06 0.51 0 0.08 0.51 0 0.1 0.51 0 0 0.515 0 0.02 0.515 0 0.04 0.515 0 0.06 0.515 0 0.08 0.515 0 0.1 0.515 0 0 0.52 0 0.02 0.52 0 0.04 0.52 0 0.06 0.52 0 0.08 0.52 0 0.1 0.52 0 0 0.525 0 0.02 0.525 0 0.04 0.525 0 0.06 0.525 0 0.08 0.525 0 0.1 0.525 0 0 0.53 0 0.02 0.53 0 0.04 0.53 0 0.06 0.53 0 0.08 0.53 0 0.1 0.53 0 0 0.535 0 0.02 0.535 0 0.04 0.535 0 0.06 0.535 0 0.08 0.535 0 0.1 0.535 0 0 0.54 0 0.02 0.54 0 0.04 0.54 0 0.06 0.54 0 0.08 0.54 0 0.1 0.54 0 0 0.545 0 0.02 0.545 0 0.04 0.545 0 0.06 0.545 0 0.08 0.545 0 0.1 0.545 0 0 0.55 0 0.02 0.55 0 0.04 0.55 0 0.06 0.55 0 0.08 0.55 0 0.1 0.55 0 0 0.555 0 0.02 0.555 0 0.04 0.555 0 0.06 0.555 0 0.08 0.555 0 0.1 0.555 0 0 0.56 0 0.02 0.56 0 0.04 0.56 0 0.06 0.56 0 0.08 0.56 0 0.1 0.56 0 0 0.565 0 0.02 0.565 0 0.04 0.565 0 0.06 0.565 0 0.08 0.565 0 0.1 0.565 0 0 0.57 0 0.02 0.57 0 0.04 0.57 0 0.06 0.57 0 0.08 0.57 0 0.1 0.57 0 0 0.575 0 0.02 0.575 0 0.04 0.575 0 0.06 0.575 0 0.08 0.575 0 0.1 0.575 0 0 0.58 0 0.02 0.58 0 0.04 0.58 0 0.06 0.58 0 0.08 0.58 0 0.1 0.58 0 0 0.585 0 0.02 0.585 0 0.04 0.585 0 0.06 0.585 0 0.08 0.585 0 0.1 0.585 0 0 0.59 0 0.02 0.59 0 0.04 0.59 0 0.06 0.59 0 0.08 0.59 0 0.1 0.59 0 0 0.595 0 0.02 0.595 0 0.04 0.595 0 0.06 0.595 0 0.08 0.595 0 0.1 0.595 0 0 0.6 0 0.02 0.6 0 0.04 0.6 0 0.06 0.6 0 0.08 0.6 0 0.1 0.6 0 0 0.605 0 0.02 0.605 0 0.04 0.605 0 0.06 0.605 0 0.08 0.605 0 0.1 0.605 0 0 0.61 0 0.02 0.61 0 0.04 0.61 0 0.06 0.61 0 0.08 0.61 0 0.1 0.61 0 0 0.615 0 0.02 0.615 0 0.04 0.615 0 0.06 0.615 0 0.08 0.615 0 0.1 0.615 0 0 0.62 0 0.02 0.62 0 0.04 0.62 0 0.06 0.62 0 0.08 0.62 0 0.1 0.62 0 0 0.625 0 0.02 0.625 0 0.04 0.625 0 0.06 0.625 0 0.08 0.625 0 0.1 0.625 0 0 0.63 0 0.02 0.63 0 0.04 0.63 0 0.06 0.63 0 0.08 0.63 0 0.1 0.63 0 0 0.635 0 0.02 0.635 0 0.04 0.635 0 0.06 0.635 0 0.08 0.635 0 0.1 0.635 0 0 0.64 0 0.02 0.64 0 0.04 0.64 0 0.06 0.64 0 0.08 0.64 0 0.1 0.64 0 0 0.645 0 0.02 0.645 0 0.04 0.645 0 0.06 0.645 0 0.08 0.645 0 0.1 0.645 0 0 0.65 0 0.02 0.65 0 0.04 0.65 0 0.06 0.65 0 0.08 0.65 0 0.1 0.65 0 0 0.655 0 0.02 0.655 0 0.04 0.655 0 0.06 0.655 0 0.08 0.655 0 0.1 0.655 0 0 0.66 0 0.02 0.66 0 0.04 0.66 0 0.06 0.66 0 0.08 0.66 0 0.1 0.66 0 0 0.665 0 0.02 0.665 0 0.04 0.665 0 0.06 0.665 0 0.08 0.665 0 0.1 0.665 0 0 0.67 0 0.02 0.67 0 0.04 0.67 0 0.06 0.67 0 0.08 0.67 0 0.1 0.67 0 0 0.675 0 0.02 0.675 0 0.04 0.675 0 0.06 0.675 0 0.08 0.675 0 0.1 0.675 0 0 0.68 0 0.02 0.68 0 0.04 0.68 0 0.06 0.68 0 0.08 0.68 0 0.1 0.68 0 0 0.685 0 0.02 0.685 0 0.04 0.685 0 0.06 0.685 0 0.08 0.685 0 0.1 0.685 0 0 0.69 0 0.02 0.69 0 0.04 0.69 0 0.06 0.69 0 0.08 0.69 0 0.1 
[...]
			<CellData Scalars="Density">
				<DataArray Name="Density" type="Float32" format="ascii">
 1 1 1 1 1 1 1 1 1 1 1 1 1 1 1 1 1 1 1 1 1 1 1 1 1 1 1 1 1 1 1 1 1 1 1 1 1 1 1 1 1 1 1 1 1 1 1 1 1 1 1 1 1 1 1 1 1 1 1 1 1 1 1 1 1 1 1 1 1 1 1 1 1 1 1 1 1 1 1 1 1 1 1 1 1 1 1 1 1 1 1 1 1 1 1 1 1 1 1 1 1 1 1 1 1 1 1 1 1 1 1 1 1 1 1 1 1 1 1 1 1 1 1 1 1 1 1 1 1 1 1 1 1 1 1 1 1 1 1 1 1 1 1 1 1 1 1 1 1 1 1 1 1 1 1 1 1 1 1 1 1 1 1 1 1 1 1 1 1 1 1 1 1 1 1 1 1 1 1 1 0.999999 0.999999 0.999999 0.999999 0.999999 0.999997 0.999997 0.999997 0.999997 0.999997 0.999991 0.999991 0.999991 0.999991 0.999991 0.999978 0.999978 0.999978 0.999978 0.999978 0.999944 0.999944 0.999944 0.999944 0.999944 0.99986 0.99986 0.99986 0.99986 0.99986 0.999676 0.999676 0.999676 0.999676 0.999676 0.999309 0.999309 0.999309 0.999309 0.999309 0.998639 0.998639 0.998639 0.998639 0.998639 0.997514 0.997514 0.997514 0.997514 0.997514 0.99576 0.99576 0.99576 0.99576 0.99576 0.993204 0.993204 0.993204 0.993204 0.993204 0.989694 0.989694 0.989694 0.989694 0.989694 0.985121 0.985121 0.985121 0.985121 0.985121 0.979427 0.979427 0.979427 0.979427 0.979427 0.972608 0.972608 0.972608 0.972608 0.972608 0.964704 0.964704 0.964704 0.964704 0.964704 0.955797 0.955797 0.955797 0.955797 0.955797 0.945986 0.945986 0.945986 0.945986 0.945986 0.935386 0.935386 0.935386 0.935386 0.935386 0.924113 0.924113 0.924113 0.924113 0.924113 0.912273 0.912273 0.912273 0.912273 0.912273 0.89998 0.89998 0.89998 0.89998 0.89998 0.88731 0.88731 0.88731 0.88731 0.88731 0.874365 0.874365 0.874365 0.874365 0.874365 0.861197 0.861197 0.861197 0.861197 0.861197 0.847881 0.847881 0.847881 0.847881 0.847881 0.834464 0.834464 0.834464 0.834464 0.834464 0.820982 0.820982 0.820982 0.820982 0.820982 0.807496 0.807496 0.807496 0.807496 0.807496 0.794001 0.794001 0.794001 0.794001 0.794001 0.780569 0.780569 0.780569 0.780569 0.780569 0.767175 0.767175 0.767175 0.767175 0.767175 0.753882 0.753882 0.753882 0.753882 0.753882 0.74067 0.74067 0.74067 0.74067 0.74067 0.727582 0.727582 0.727582 0.727582 0.727582 0.714605 0.714605 0.714605 0.714605 0.714605 0.701779 0.701779 0.701779 0.701779 0.701779 0.689065 0.689065 0.689065 0.689065 0.689065 0.676542 0.676542 0.676542 0.676542 0.676542 0.66414 0.66414 0.66414 0.66414 0.66414 0.651903 0.651903 0.651903 0.651903 0.651903 0.639886 0.639886 0.639886 0.639886 0.639886 0.627964 0.627964 0.627964 0.627964 0.627964 0.616265 0.616265 0.616265 0.616265 0.616265 0.604785 0.604785 0.604785 0.604785 0.604785 0.593438 0.593438 0.593438 0.593438 0.593438 0.582268 0.582268 0.582268 0.582268 0.582268 0.571392 0.571392 0.571392 0.571392 0.571392 0.5607 0.5607 0.5607 0.5607 0.5607 0.550139 0.550139 0.550139 0.550139 0.550139 0.539853 0.539853 0.539853 0.539853 0.539853 0.529902 0.529902 0.529902 0.529902 0.529902 0.520156 0.520156 0.520156 0.520156 0.520156 0.510581 0.510581 0.510581 0.510581 0.510581 0.501339 0.501339 0.501339 0.501339 0.501339 0.492552 0.492552 0.492552 0.492552 0.492552 0.484103 0.484103 0.484103 0.484103 0.484103 0.475924 0.475924 0.475924 0.475924 0.475924 0.468158 0.468158 0.468158 0.468158 0.468158 0.460958 0.460958 0.460958 0.460958 0.460958 0.454403 0.454403 0.454403 0.454403 0.454403 0.448529 0.448529 0.448529 0.448529 0.448529 0.44317 0.44317 0.44317 0.44317 0.44317 0.438181 0.438181 0.438181 0.438181 0.438181 0.434177 0.434177 0.434177 0.434177 0.434177 0.431494 0.431494 0.431494 0.431494 0.431494 0.429157 0.429157 0.429157 0.429157 0.429157 0.426932 0.426932 0.426932 0.426932 0.426932 0.425514 0.425514 0.425514 0.425514 0.425514 0.42473 0.42473 0.42473 0.42473 0.42473 0.424212 0.424212 0.424212 0.424212 0.424212 0.424018 0.424018 0.424018 0.424018 0.424018 0.423933 0.423933 0.423933 0.423933 0.423933 0.423603 0.423603 0.423603 0.423603 0.423603 0.423313 0.423313 0.423313 0.423313 0.423313 0.423272 0.423272 0.423272 0.423272 0.423272 0.423412 0.423412 0.423412 0.423412 0.423412 0.423669 0.423669 0.423669 0.423669 0.423669 0.423687 0.423687 0.423687 0.423687 0.423687 0.423288 0.423288 0.423288 0.423288 0.423288 0.422849 0.422849 0.422849 0.422849 0.422849 0.422808 0.422808 0.422808 0.422808 0.422808 0.423053 0.423053 0.423053 0.423053 0.423053 0.423267 0.423267 0.423267 0.423267 0.423267 0.42312 0.42312 0.42312 0.42312 0.42312 0.422215 0.422215 0.422215 0.422215 0.422215 0.421676 0.421676 0.421676 0.421676 0.421676 0.421691 0.421691 0.421691 0.421691 0.421691 0.422138 0.422138 0.422138 0.422138 0.422138 0.42227 0.42227 0.42227 0.42227 0.42227 0.421432 0.421432 0.421432 0.421432 0.421432 0.418955 0.418955 0.418955 0.418955 0.418955 0.417793 0.417793 0.417793 0.417793 0.417793 0.41795 0.41795 0.41795 0.41795 0.41795 0.420504 0.420504 0.420504 0.420504 0.420504 0.42246 0.42246 0.42246 0.42246 0.42246 0.4221 0.4221 0.4221 0.4221 0.4221 0.394133 0.394133 0.394133 0.394133 0.394133 0.345535 0.345535 0.345535 0.345535 0.345535 0.301085 0.301085 0.301085 0.301085 0.301085 0.274108 0.274108 0.274108 0.274108 0.274108 0.264256 0.264256 0.264256 0.264256 0.264256 0.263327 0.263327 0.263327 0.263327 0.263327 0.263506 0.263506 0.263506 0.263506 0.263506 0.264226 0.264226 0.264226 0.264226 0.264226 0.264919 0.264919 0.264919 0.264919 0.264919 0.265337 0.265337 0.265337 0.265337 0.265337 0.265495 0.265495 0.265495 0.265495 0.265495 0.265504 0.265504 0.265504 0.265504 0.265504 0.265546 0.265546 0.265546 0.265546 0.265546 0.265795 0.265795 0.265795 0.265795 0.265795 0.266114 0.266114 0.266114 0.266114 0.266114 0.266301 0.266301 0.266301 0.266301 0.266301 0.266352 0.266352 0.266352 0.266352 0.266352 0.266356 0.266356 0.266356 0.266356 0.266356 0.266272 0.266272 0.266272 0.266272 0.266272 0.266055 0.266055 0.266055 0.266055 0.266055 0.265903 0.265903 0.265903 0.265903 0.265903 0.265846 0.265846 0.265846 0.265846 0.265846 0.265842 0.265842 0.265842 0.265842 0.265842 0.265885 0.265885 0.265885 0.265885 0.265885 0.26597 0.26597 0.26597 0.26597 0.26597 0.266027 0.266027 0.266027 0.266027 0.266027 0.266061 0.266061 0.266061 0.266061 0.266061 0.266087 0.266087 0.266087 0.266087 0.266087 0.266111 0.266111 0.266111 0.266111 0.266111 0.266126 0.266126 0.266126 0.266126 0.266126 0.266197 0.266197 0.266197 0.266197 0.266197 0.265946 0.265946 0.265946 0.265946 0.265946 0.264614 0.264614 0.264614 0.264614 0.264614 0.247106 0.247106 0.247106 0.247106 0.247106 0.205014 0.205014 0.205014 0.205014 0.205014 0.143699 0.143699 0.143699 0.143699 0.143699 0.127919 0.127919 0.127919 0.127919 0.127919 0.125441 0.125441 0.125441 0.125441 0.125441 0.125067 0.125067 0.125067 0.125067 0.125067 0.12501 0.12501 0.12501 0.12501 0.12501 0.125002 0.125002 0.125002 0.125002 0.125002 0.125 0.125 0.125 0.125 0.125 0.125 0.125 0.125 0.125 0.125 0.125 0.125 0.125 0.125 0.125 0.125 0.125 0.125 0.125 0.125 0.125 0.125 0.125 0.125 0.125 0.125 0.125 0.125 0.125 0.125 0.125 0.125 0.125 0.125 0.125 0.125 0.125 0.125 0.125 0.125 0.125 0.125 0.125 0.125 0.125 0.125 0.125 0.125 0.125 0.125 0.125 0.125 0.125 0.125 0.125 0.125 0.125 0.125 0.125 0.125 0.125 0.125 0.125 0.125 0.125 0.125 0.125 0.125 0.125 0.125 0.125 0.125 0.125 0.125 0.125 0.125 0.125 0.125 0.125 0.125 0.125 0.125 0.125 0.125 0.125 0.125 0.125 0.125 0.125 0.125 0.125 0.125 0.125 0.125 0.125 0.125 0.125 0.125 0.125 0.125 0.125 0.125 0.125 0.125 0.125 0.125 0.125 0.125 0.125 0.125 0.125 0.125 0.125 0.125 0.125 0.125 0.125 0.125 0.125 0.125 0.125 0.125 0.125 0.125 0.125
				</DataArray>
				<DataArray Name="Energy" type="Float32" format="ascii">
 2.5 2.5 2.5 2.5 2.5 2.5 2.5 2.5 2.5 2.5 2.5 2.5 2.5 2.5 2.5 2.5 2.5 2.5 2.5 2.5 2.5 2.5 2.5 2.5 2.5 2.5 2.5 2.5 2.5 2.5 2.5 2.5 2.5 2.5 2.5 2.5 2.5 2.5 2.5 2.5 2.5 2.5 2.5 2.5 2.5 2.5 2.5 2.5 2.5 2.5 2.5 2.5 2.5 2.5 2.5 2.5 2.5 2.5 2.5 2.5 2.5 2.5 2.5 2.5 2.5 2.5 2.5 2.5 2.5 2.5 2.5 2.5 2.5 2.5 2.5 2.5 2.5 2.5 2.5 2.5 2.5 2.5 2.5 2.5 2.5 2.5 2.5 2.5 2.5 2.5 2.5 2.5 2.5 2.5 2.5 2.5 2.5 2.5 2.5 2.5 2.5 2.5 2.5 2.5 2.5 2.5 2.5 2.5 2.5 2.5 2.5 2.5 2.5 2.5 2.5 2.5 2.5 2.5 2.5 2.5 2.5 2.5 2.5 2.5 2.5 2.5 2.5 2.5 2.5 2.5 2.5 2.5 2.5 2.5 2.5 2.5 2.5 2.5 2.5 2.5 2.5 2.5 2.5 2.5 2.5 2.5 2.5 2.5 2.5 2.5 2.5 2.5 2.5 2.5 2.5 2.5 2.5 2.5 2.5 2.5 2.5 2.5 2.5 2.5 2.5 2.5 2.5 2.5 2.5 2.5 2.5 2.5 2.5 2.5 2.5 2.5 2.5 2.5 2.5 2.5 2.5 2.5 2.5 2.5 2.5 2.5 2.5 2.5 2.5 2.5 2.49999 2.49999 2.49999 2.49999 2.49999 2.49998 2.49998 2.49998 2.49998 2.49998 2.49994 2.49994 2.49994 2.49994 2.49994 2.49986 2.49986 2.49986 2.49986 2.49986 2.49968 2.49968 2.49968 2.49968 2.49968 2.49931 2.49931 2.49931 2.49931 2.49931 2.49864 2.49864 2.49864 2.49864 2.49864 2.49751 2.49751 2.49751 2.49751 2.49751 2.49576 2.49576 2.49576 2.49576 2.49576 2.4932 2.4932 2.4932 2.4932 2.4932 2.48967 2.48967 2.48967 2.48967 2.48967 2.48508 2.48508 2.48508 2.48508 2.48508 2.47934 2.47934 2.47934 2.47934 2.47934 2.47245 2.47245 2.47245 2.47245 2.47245 2.46443 2.46443 2.46443 2.46443 2.46443 2.45535 2.45535 2.45535 2.45535 2.45535 2.4453 2.4453 2.4453 2.4453 2.4453 2.43437 2.43437 2.43437 2.43437 2.43437 2.42268 2.42268 2.42268 2.42268 2.42268 2.41031 2.41031 2.41031 2.41031 2.41031 2.39737 2.39737 2.39737 2.39737 2.39737 2.38393 2.38393 2.38393 2.38393 2.38393 2.37009 2.37009 2.37009 2.37009 2.37009 2.35588 2.35588 2.35588 2.35588 2.35588 2.34139 2.34139 2.34139 2.34139 2.34139 2.32665 2.32665 2.32665 2.32665 2.32665 2.3117 2.3117 2.3117 2.3117 2.3117 2.29661 2.29661 2.29661 2.29661 2.29661 2.28135 2.28135 2.28135 2.28135 2.28135 2.26602 2.26602 2.26602 2.26602 2.26602 2.25058 2.25058 2.25058 2.25058 2.25058 2.23509 2.23509 2.23509 2.23509 2.23509 2.21955 2.21955 2.21955 2.21955 2.21955 2.20397 2.20397 2.20397 2.20397 2.20397 2.18841 2.18841 2.18841 2.18841 2.18841 2.17276 2.17276 2.17276 2.17276 2.17276 2.15728 2.15728 2.15728 2.15728 2.15728 2.14159 2.14159 2.14159 2.14159 2.14159 2.12615 2.12615 2.12615 2.12615 2.12615 2.11064 2.11064 2.11064 2.11064 2.11064 2.09511 2.09511 2.09511 2.09511 2.09511 2.07981 2.07981 2.07981 2.07981 2.07981 2.0645 2.0645 2.0645 2.0645 2.0645 2.0491 2.0491 2.0491 2.0491 2.0491 2.03402 2.03402 2.03402 2.03402 2.03402 2.01907 2.01907 2.01907 2.01907 2.01907 2.00395 2.00395 2.00395 2.00395 2.00395 1.98902 1.98902 1.98902 1.98902 1.98902 1.97456 1.97456 1.97456 1.97456 1.97456 1.9601 1.9601 1.9601 1.9601 1.9601 1.94548 1.94548 1.94548 1.94548 1.94548 1.93127 1.93127 1.93127 1.93127 1.93127 1.91769 1.91769 1.91769 1.91769 1.91769 1.90428 1.90428 1.90428 1.90428 1.90428 1.89071 1.89071 1.89071 1.89071 1.89071 1.87761 1.87761 1.87761 1.87761 1.87761 1.86547 1.86547 1.86547 1.86547 1.86547 1.85401 1.85401 1.85401 1.85401 1.85401 1.84297 1.84297 1.84297 1.84297 1.84297 1.83231 1.83231 1.83231 1.83231 1.83231 1.82222 1.82222 1.82222 1.82222 1.82222 1.81377 1.81377 1.81377 1.81377 1.81377 1.8078 1.8078 1.8078 1.8078 1.8078 1.80197 1.80197 1.80197 1.80197 1.80197 1.79507 1.79507 1.79507 1.79507 1.79507 1.79065 1.79065 1.79065 1.79065 1.79065 1.78948 1.78948 1.78948 1.78948 1.78948 1.78814 1.78814 1.78814 1.78814 1.78814 1.78648 1.78648 1.78648 1.78648 1.78648 1.7856 1.7856 1.7856 1.7856 1.7856 1.78476 1.78476 1.78476 1.78476 1.78476 1.78433 1.78433 1.78433 1.78433 1.78433 1.78544 1.78544 1.78544 1.78544 1.78544 1.78677 1.78677 1.78677 1.78677 1.78677 1.78722 1.78722 1.78722 1.78722 1.78722 1.78698 1.78698 1.78698 1.78698 1.78698 1.78614 1.78614 1.78614 1.78614 1.78614 1.78628 1.78628 1.78628 1.78628 1.78628 1.78822 1.78822 1.78822 1.78822 1.78822 1.79027 1.79027 1.79027 1.79027 1.79027 1.79063 1.79063 1.79063 1.79063 1.79063 1.78976 1.78976 1.78976 1.78976 1.78976 1.789 1.789 1.789 1.789 1.789 1.78973 1.78973 1.78973 1.78973 1.78973 1.79363 1.79363 1.79363 1.79363 1.79363 1.79594 1.79594 1.79594 1.79594 1.79594 1.79592 1.79592 1.79592 1.79592 1.79592 1.79408 1.79408 1.79408 1.79408 1.79408 1.7936 1.7936 1.7936 1.7936 1.7936 1.79727 1.79727 1.79727 1.79727 1.79727 1.80801 1.80801 1.80801 1.80801 1.80801 1.81315 1.81315 1.81315 1.81315 1.81315 1.81256 1.81256 1.81256 1.81256 1.81256 1.80162 1.80162 1.80162 1.80162 1.80162 1.79328 1.79328 1.79328 1.79328 1.79328 1.79476 1.79476 1.79476 1.79476 1.79476 1.92199 1.92199 1.92199 1.92199 1.92199 2.19213 2.19213 2.19213 2.19213 2.19213 2.51555 2.51555 2.51555 2.51555 2.51555 2.76292 2.76292 2.76292 2.76292 2.76292 2.86578 2.86578 2.86578 2.86578 2.86578 2.87583 2.87583 2.87583 2.87583 2.87583 2.87389 2.87389 2.87389 2.87389 2.87389 2.86612 2.86612 2.86612 2.86612 2.86612 2.85875 2.85875 2.85875 2.85875 2.85875 2.8544 2.8544 2.8544 2.8544 2.8544 2.85291 2.85291 2.85291 2.85291 2.85291 2.853 2.853 2.853 2.853 2.853 2.85274 2.85274 2.85274 2.85274 2.85274 2.85024 2.85024 2.85024 2.85024 2.85024 2.84693 2.84693 2.84693 2.84693 2.84693 2.84497 2.84497 2.84497 2.84497 2.84497 2.84437 2.84437 2.84437 2.84437 2.84437 2.84421 2.84421 2.84421 2.84421 2.84421 2.84501 2.84501 2.84501 2.84501 2.84501 2.84712 2.84712 2.84712 2.84712 2.84712 2.84855 2.84855 2.84855 2.84855 2.84855 2.84895 2.84895 2.84895 2.84895 2.84895 2.84882 2.84882 2.84882 2.84882 2.84882 2.84819 2.84819 2.84819 2.84819 2.84819 2.84723 2.84723 2.84723 2.84723 2.84723 2.84669 2.84669 2.84669 2.84669 2.84669 2.84656 2.84656 2.84656 2.84656 2.84656 2.84654 2.84654 2.84654 2.84654 2.84654 2.84664 2.84664 2.84664 2.84664 2.84664 2.84677 2.84677 2.84677 2.84677 2.84677 2.84711 2.84711 2.84711 2.84711 2.84711 2.84606 2.84606 2.84606 2.84606 2.84606 2.84091 2.84091 2.84091 2.84091 2.84091 2.75541 2.75541 2.75541 2.75541 2.75541 2.5304 2.5304 2.5304 2.5304 2.5304 2.13034 2.13034 2.13034 2.13034 2.13034 2.01875 2.01875 2.01875 2.01875 2.01875 2.00283 2.00283 2.00283 2.00283 2.00283 2.00043 2.00043 2.00043 2.00043 2.00043 2.00006 2.00006 2.00006 2.00006 2.00006 2.00001 2.00001 2.00001 2.00001 2.00001 2 2 2 2 2 2 2 2 2 2 2 2 2 2 2 2 2 2 2 2 2 2 2 2 2 2 2 2 2 2 2 2 2 2 2 2 2 2 2 2 2 2 2 2 2 2 2 2 2 2 2 2 2 2 2 2 2 2 2 2 2 2 2 2 2 2 2 2 2 2 2 2 2 2 2 2 2 2 2 2 2 2 2 2 2 2 2 2 2 2 2 2 2 2 2 2 2 2 2 2 2 2 2 2 2 2 2 2 2 2 2 2 2 2 2 2 2 2 2 2 2 2 2 2 2
				</DataArray>
				<DataArray Name="F1" type="Float32" format="ascii">
 1 1 1 1 1 1 1 1 1 1 1 1 1 1 1 1 1 1 1 1 1 1 1 1 1 1 1 1 1 1 1 1 1 1 1 1 1 1 1 1 1 1 1 1 1 1 1 1 1 1 1 1 1 1 1 1 1 1 1 1 1 1 1 1 1 1 1 1 1 1 1 1 1 1 1 1 1 1 1 1 1 1 1 1 1 1 1 1 1 1 1 1 1 1 1 1 1 1 1 1 1 1 1 1 1 1 1 1 1 1 1 1 1 1 1 1 1 1 1 1 1 1 1 1 1 1 1 1 1 1 1 1 1 1 1 1 1 1 1 1 1 1 1 1 1 1 1 1 1 1 1 1 1 1 1 1 1 1 1 1 1 1 1 1 1 1 1 1 1 1 1 1 1 1 1 1 1 1 1 1 1 1 1 1 1 1 1 1 1 1 1 1 1 1 1 1 1 1 1 1 1 1 1 1 1 1 1 1 1 1 1 1 1 1 1 1 1 1 1 1 1 1 1 1 1 1 1 1 1 1 1 1 1 1 1 1 1 1 1 1 1 1 1 1 1 1 1 1 1 1 1 1 1 1 1 1 1 1 1 1 1 1 1 1 1 1 1 1 1 1 1 1 1 1 1 1 1 1 1 1 1 1 1 1 1 1 1 1 1 1 1 1 1 1 1 1 1 1 1 1 1 1 1 1 1 1 1 1 1 1 1 1 1 1 1 1 1 1 1 1 1 1 1 1 1 1 1 1 1 1 1 1 1 1 1 1 1 1 1 1 1 1 1 1 1 1 1 1 1 1 1 1 1 1 1 1 1 1 1 1 1 1 1 1 1 1 1 1 1 1 1 1 1 1 1 1 1 1 1 1 1 1 1 1 1 1 1 1 1 1 1 1 1 1 1 1 1 1 1 1 1 1 1 1 1 1 1 1 1 1 1 1 1 1 1 1 1 1 1 1 1 1 1 1 1 1 1 1 1 1 1 1 1 1 1 1 1 1 1 1 1 1 1 1 1 1 1 1 1 1 1 1 1 1 1 1 1 1 1 1 1 1 1 1 1 1 1 1 1 1 1 1 1 1 1 1 1 1 1 1 1 1 1 1 1 1 1 1 1 1 1 1 1 1 1 1 1 1 1 1 1 1 1 1 1 1 1 1 1 1 1 1 1 1 1 1 1 1 1 1 1 1 1 1 1 1 1 1 1 1 1 1 1 1 1 1 1 1 1 1 1 1 1 1 1 1 1 1 1 1 1 1 1 1 1 1 1 1 1 1 1 1 1 1 1 1 1 1 1 1 1 1 1 1 1 1 1 1 1 1 1 1 1 1 1 1 1 1 1 1 1 1 1 1 1 1 1 1 1 1 1 1 1 1 1 1 1 1 1 1 1 1 1 1 1 1 1 1 1 1 1 1 1 1 1 1 1 1 1 1 1 1 1 1 1 1 1 1 1 1 1 1 1 1 1 1 1 1 1 1 1 1 1 1 1 1 1 1 1 1 1 1 1 1 1 1 1 1 1 1 1 1 1 1 1 1 1 1 1 1 1 1 1 1 1 1 1 1 1 1 1 1 1 1 1 1 1 1 1 1 1 1 1 1 1 1 1 1 1 1 1 1 1 1 1 1 1 1 1 1 1 1 1 1 1 1 1 1 1 1 1 1 1 1 1 1 1 1 1 1 1 1 1 1 1 1 1 1 1 1 1 1 1 1 1 1 1 1 1 1 1 1 1 1 1 1 1 1 1 1 1 1 1 1 1 1 1 1 1 1 1 1 1 1 1 1 1 1 1 1 1 1 1 1 1 1 1 1 1 1 1 1 1 1 1 1 1 1 1 1 1 1 1 1 1 1 1 1 1 1 1 1 1 1 1 1 1 1 1 1 1 1 1 1 1 1 1 1 1 1 1 1 1 1 1 1 1 1 1 1 1 1 1 1 1 1 1 1 1 1 1 1 1 1 1 1 1 1 1 1 1 1 1 1 1 1 1 1 1 1 1 1 1 1 1 1 1 1 1 1 1 1 1 1 1 1 1 1 1 1 1 1 1 1 1 1 1 1 1 1 1 1 1 1 1 1 1 1 1 1 1 1 1 1 1 1 1 1 1 1 1 1 1 1 1 1 1 1 1 1 1 1 1 1 1 1 1 1 1 1 1 1 1 1 1 1 1 1 1 1 1 1 1 1 1 1 1 1 1 1 1 1 1 1 1 1 1 1 1 1 1 1 1 1 1 1 1 1 1 1 1 1 1 1 1 1 1 1 1 1
				</DataArray>
				<DataArray Name="F2" type="Float32" format="ascii">
 0 0 0 0 0 0 0 0 0 0 0 0 0 0 0 0 0 0 0 0 0 0 0 0 0 0 0 0 0 0 0 0 0 0 0 0 0 0 0 0 0 0 0 0 0 0 0 0 0 0 0 0 0 0 0 0 0 0 0 0 0 0 0 0 0 0 0 0 0 0 0 0 0 0 0 0 0 0 0 0 0 0 0 0 0 0 0 0 0 0 0 0 0 0 0 0 0 0 0 0 0 0 0 0 0 0 0 0 0 0 0 0 0 0 0 0 0 0 0 0 0 0 0 0 0 0 0 0 0 0 0 0 0 0 0 0 0 0 0 0 0 0 0 0 0 0 0 0 0 0 0 0 0 0 0 0 0 0 0 0 0 0 0 0 0 0 0 0 0 0 0 0 0 0 0 0 0 0 0 0 0 0 0 0 0 0 0 0 0 0 0 0 0 0 0 0 0 0 0 0 0 0 0 0 0 0 0 0 0 0 0 0 0 0 0 0 0 0 0 0 0 0 0 0 0 0 0 0 0 0 0 0 0 0 0 0 0 0 0 0 0 0 0 0 0 0 0 0 0 0 0 0 0 0 0 0 0 0 0 0 0 0 0 0 0 0 0 0 0 0 0 0 0 0 0 0 0 0 0 0 0 0 0 0 0 0 0 0 0 0 0 0 0 0 0 0 0 0 0 0 0 0 0 0 0 0 0 0 0 0 0 0 0 0 0 0 0 0 0 0 0 0 0 0 0 0 0 0 0 0 0 0 0 0 0 0 0 0 0 0 0 0 0 0 0 0 0 0 0 0 0 0 0 0 0 0 0 0 0 0 0 0 0 0 0 0 0 0 0 0 0 0 0 0 0 0 0 0 0 0 0 0 0 0 0 0 0 0 0 0 0 0 0 0 0 0 0 0 0 0 0 0 0 0 0 0 0 0 0 0 0 0 0 0 0 0 0 0 0 0 0 0 0 0 0 0 0 0 0 0 0 0 0 0 0 0 0 0 0 0 0 0 0 0 0 0 0 0 0 0 0 0 0 0 0 0 0 0 0 0 0 0 0 0 0 0 0 0 0 0 0 0 0 0 0 0 0 0 0 0 0 0 0 0 0 0 0 0 0 0 0 0 0 0 0 0 0 0 0 0 0 0 0 0 0 0 0 0 0 0 0 0 0 0 0 0 0 0 0 0 0 0 0 0 0 0 0 0 0 0 0 0 0 0 0 0 0 0 0 0 0 0 0 0 0 0 0 0 0 0 0 0 0 0 0 0 0 0 0 0 0 0 0 0 0 0 0 0 0 0 0 0 0 0 0 0 0 0 0 0 0 0 0 0 0 0 0 0 0 0 0 0 0 0 0 0 0 0 0 0 0 0 0 0 0 0 0 0 0 0 0 0 0 0 0 0 0 0 0 0 0 0 0 0 0 0 0 0 0 0 0 0 0 0 0 0 0 0 0 0 0 0 0 0 0 0 0 0 0 0 0 0 0 0 0 0 0 0 0 0 0 0 0 0 0 0 0 0 0 0 0 0 0 0 0 0 0 0 0 0 0 0 0 0 0 0 0 0 0 0 0 0 0 0 0 0 0 0 0 0 0 0 0 0 0 0 0 0 0 0 0 0 0 0 0 0 0 0 0 0 0 0 0 0 0 0 0 0 0 0 0 0 0 0 0 0 0 0 0 0 0 0 0 0 0 0 0 0 0 0 0 0 0 0 0 0 0 0 0 0 0 0 0 0 0 0 0 0 0 0 0 0 0 0 0 0 0 0 0 0 0 0 0 0 0 0 0 0 0 0 0 0 0 0 0 0 0 0 0 0 0 0 0 0 0 0 0 0 0 0 0 0 0 0 0 0 0 0 0 0 0 0 0 0 0 0 0 0 0 0 0 0 0 0 0 0 0 0 0 0 0 0 0 0 0 0 0 0 0 0 0 0 0 0 0 0 0 0 0 0 0 0 0 0 0 0 0 0 0 0 0 0 0 0 0 0 0 0 0 0 0 0 0 0 0 0 0 0 0 0 0 0 0 0 0 0 0 0 0 0 0 0 0 0 0 0 0 0 0 0 0 0 0 0 0 0 0 0 0 0 0 0 0 0 0 0 0 0 0 0 0 0 0 0 0 0 0 0 0 0 0 0 0 0 0 0 0 0 0 0 0 0 0 0 0 0 0 0 0 0 0 0 0 0 0 0 0 0 0 0 0 0 0 0 0 0 0 0 0 0 0 0 0 0 0 0 0 0 0 0 0 0 0 0 0 0 0 0 0 0
				</DataArray>
				<DataArray Name="F3" type="Float32" format="ascii">