<?xml version="1.0"?>
<VTKFile type="PolyData">
	<PolyData>
		<Piece NumberOfPoints="1206" NumberOfPolys="1000">
			<Points>
				<DataArray type="Float32" NumberOfComponents="3" format="ascii">
 0 0 0 0.02 0 0 0.04 0 0 0.06 0 0 0.08 0 0 0.1 0 0 0 0.005 0 0.02 0.005 0 0.04 0.005 0 0.06 0.005 0 0.08 0.005 0 0.1 0.005 0 0 0.01 0 0.02 0.01 0 0.04 0.01 0 0.06 0.01 0 0.08 0.01 0 0.1 0.01 0 0 0.015 0 0.02 0.015 0 0.04 0.015 0 0.06 0.015 0 0.08 0.015 0 0.1 0.015 0 0 0.02 0 0.02 0.02 0 0.04 0.02 0 0.06 0.02 0 0.08 0.02 0 0.1 0.02 0 0 0.025 0 0.02 0.025 0 0.04 0.025 0 0.06 0.025 0 0.08 0.025 0 0.1 0.025 0 0 0.03 0 0.02 0.03 0 0.04 0.03 0 0.06 0.03 0 0.08 0.03 0 0.1 0.03 0 0 0.035 0 0.02 0.035 0 0.04 0.035 0 0.06 0.035 0 0.08 0.035 0 0.1 0.035 0 0 0.04 0 0.02 0.04 0 0.04 0.04 0 0.06 0.04 0 0.08 0.04 0 0.1 0.04 0 0 0.045 0 0.02 0.045 0 0.04 0.045 0 0.06 0.045 0 0.08 0.045 0 0.1 0.045 0 0 0.05 0 0.02 0.05 0 0.04 0.05 0 0.06 0.05 0 0.08 0.05 0 0.1 0.05 0 0 0.055 0 0.02 0.055 0 0.04 0.055 0 0.06 0.055 0 0.08 0.055 0 0.1 0.055 0 0 0.06 0 0.02 0.06 0 0.04 0.06 0 0.06 0.06 0 0.08 0.06 0 0.1 0.06 0 0 0.065 0 0.02 0.065 0 0.04 0.065 0 0.06 0.065 0 0.08 0.065 0 0.1 0.065 0 0 0.07 0 0.02 0.07 0 0.04 0.07 0 0.06 0.07 0 0.08 0.07 0 0.1 0.07 0 0 0.075 0 0.02 0.075 0 0.04 0.075 0 0.06 0.075 0 0.08 0.075 0 0.1 0.075 0 0 0.08 0 0.02 0.08 0 0.04 0.08 0 0.06 0.08 0 0.08 0.08 0 0.1 0.08 0 0 0.085 0 0.02 0.085 0 0.04 0.085 0 0.06 0.085 0 0.08 0.085 0 0.1 0.085 0 0 0.09 0 0.02 0.09 0 0.04 0.09 0 0.06 0.09 0 0.08 0.09 0 0.1 0.09 0 0 0.095 0 0.02 0.095 0 0.04 0.095 0 0.06 0.095 0 0.08 0.095 0 0.1 0.095 0 0 0.1 0 0.02 0.1 0 0.04 0.1 0 0.06 0.1 0 0.08 0.1 0 0.1 0.1 0 0 0.105 0 0.02 0.105 0 0.04 0.105 0 0.06 0.105 0 0.08 0.105 0 0.1 0.105 0 0 0.11 0 0.02 0.11 0 0.04 0.11 0 0.06 0.11 0 0.08 0.11 0 0.1 0.11 0 0 0.115 0 0.02 0.115 0 0.04 0.115 0 0.06 0.115 0 0.08 0.115 0 0.1 0.115 0 0 0.12 0 0.02 0.12 0 0.04 0.12 0 0.06 0.12 0 0.08 0.12 0 0.1 0.12 0 0 0.125 0 0.02 0.125 0 0.04 0.125 0 0.06 0.125 0 0.08 0.125 0 0.1 0.125 0 0 0.13 0 0.02 0.13 0 0.04 0.13 0 0.06 0.13 0 0.08 0.13 0 0.1 0.13 0 0 0.135 0 0.02 0.135 0 0.04 0.135 0 0.06 0.135 0 0.08 0.135 0 0.1 0.135 0 0 0.14 0 0.02 0.14 0 0.04 0.14 0 0.06 0.14 0 0.08 0.14 0 0.1 0.14 0 0 0.145 0 0.02 0.145 0 0.04 0.145 0 0.06 0.145 0 0.08 0.145 0 0.1 0.145 0 0 0.15 0 0.02 0.15 0 0.04 0.15 0 0.06 0.15 0 0.08 0.15 0 0.1 0.15 0 0 0.155 0 0.02 0.155 0 0.04 0.155 0 0.06 0.155 0 0.08 0.155 0 0.1 0.155 0 0 0.16 0 0.02 0.16 0 0.04 0.16 0 0.06 0.16 0 0.08 0.16 0 0.1 0.16 0 0 0.165 0 0.02 0.165 0 0.04 0.165 0 0.06 0.165 0 0.08 0.165 0 0.1 0.165 0 0 0.17 0 0.02 0.17 0 0.04 0.17 0 0.06 0.17 0 0.08 0.17 0 0.1 0.17 0 0 0.175 0 0.02 0.175 0 0.04 0.175 0 0.06 0.175 0 0.08 0.175 0 0.1 0.175 0 0 0.18 0 0.02 0.18 0 0.04 0.18 0 0.06 0.18 0 0.08 0.18 0 0.1 0.18 0 0 0.185 0 0.02 0.185 0 0.04 0.185 0 0.06 0.185 0 0.08 0.185 0 0.1 0.185 0 0 0.19 0 0.02 0.19 0 0.04 0.19 0 0.06 0.19 0 0.08 0.19 0 0.1 0.19 0 0 0.195 0 0.02 0.195 0 0.04 0.195 0 0.06 0.195 0 0.08 0.195 0 0.1 0.195 0 0 0.2 0 0.02 0.2 0 0.04 0.2 0 0.06 0.2 0 0.08 0.2 0 0.1 0.2 0 0 0.205 0 0.02 0.205 0 0.04 0.205 0 0.06 0.205 0 0.08 0.205 0 0.1 0.205 0 0 0.21 0 0.02 0.21 0 0.04 0.21 0 0.06 0.21 0 0.08 0.21 0 0.1 0.21 0 0 0.215 0 0.02 0.215 0 0.04 0.215 0 0.06 0.215 0 0.08 0.215 0 0.1 0.215 0 0 0.22 0 0.02 0.22 0 0.04 0.22 0 0.06 0.22 0 0.08 0.22 0 0.1 0.22 0 0 0.225 0 0.02 0.225 0 0.04 0.225 0 0.06 0.225 0 0.08 0.225 0 0.1 0.225 0 0 0.23 0 0.02 0.23 0 0.04 0.23 0 0.06 0.23 0 0.08 0.23 0 0.1 0.23 0 0 0.235 0 0.02 0.235 0 0.04 0.235 0 0.06 0.235 0 0.08 0.235 0 0.1 0.235 0 0 0.24 0 0.02 0.24 0 0.04 0.24 0 0.06 0.24 0 0.08 0.24 0 0.1 0.24 0 0 0.245 0 0.02 0.245 0 0.04 0.245 0 0.06 0.245 0 0.08 0.245 0 0.1 0.245 0 0 0.25 0 0.02 0.25 0 0.04 0.25 0 0.06 0.25 0 0.08 0.25 0 0.1 0.25 0 0 0.255 0 0.02 0.255 0 0.04 0.255 0 0.06 0.255 0 0.08 0.255 0 0.1 0.255 0 0 0.26 0 0.02 0.26 0 0.04 0.26 0 0.06 0.26 0 0.08 0.26 0 0.1 0.26 0 0 0.265 0 0.02 0.265 0 0.04 0.265 0 0.06 0.265 0 0.08 0.265 0 0.1 0.265 0 0 0.27 0 0.02 0.27 0 0.04 0.27 0 0.06 0.27 0 0.08 0.27 0 0.1 0.27 0 0 0.275 0 0.02 0.275 0 0.04 0.275 0 0.06 0.275 0 0.08 0.275 0 0.1 0.275 0 0 0.28 0 0.02 0.28 0 0.04 0.28 0 0.06 0.28 0 0.08 0.28 0 0.1 0.28 0 0 0.285 0 0.02 0.285 0 0.04 0.285 0 0.06 0.285 0 0.08 0.285 0 0.1 0.285 0 0 0.29 0 0.02 0.29 0 0.04 0.29 0 0.06 0.29 0 0.08 0.29 0 0.1 0.29 0 0 0.295 0 0.02 0.295 0 0.04 0.295 0 0.06 0.295 0 0.08 0.295 0 0.1 0.295 0 0 0.3 0 0.02 0.3 0 0.04 0.3 0 0.06 0.3 0 0.08 0.3 0 0.1 0.3 0 0 0.305 0 0.02 0.305 0 0.04 0.305 0 0.06 0.305 0 0.08 0.305 0 0.1 0.305 0 0 0.31 0 0.02 0.31 0 0.04 0.31 0 0.06 0.31 0 0.08 0.31 0 0.1 0.31 0 0 0.315 0 0.02 0.315 0 0.04 0.315 0 0.06 0.315 0 0.08 0.315 0 0.1 0.315 0 0 0.32 0 0.02 0.32 0 0.04 0.32 0 0.06 0.32 0 0.08 0.32 0 0.1 0.32 0 0 0.325 0 0.02 0.325 0 0.04 0.325 0 0.06 0.325 0 0.08 0.325 0 0.1 0.325 0 0 0.33 0 0.02 0.33 0 0.04 0.33 0 0.06 0.33 0 0.08 0.33 0 0.1 0.33 0 0 0.335 0 0.02 0.335 0 0.04 0.335 0 0.06 0.335 0 0.08 0.335 0 0.1 0.335 0 0 0.34 0 0.02 0.34 0 0.04 0.34 0 0.06 0.34 0 0.08 0.34 0 0.1 0.34 0 0 0.345 0 0.02 0.345 0 0.04 0.345 0 0.06 0.345 0 0.08 0.345 0 0.1 0.345 0 0 0.35 0 0.02 0.35 0 0.04 0.35 0 0.06 0.35 0 0.08 0.35 0 0.1 0.35 0 0 0.355 0 0.02 0.355 0 0.04 0.355 0 0.06 0.355 0 0.08 0.355 0 0.1 0.355 0 0 0.36 0 0.02 0.36 0 0.04 0.36 0 0.06 0.36 0 0.08 0.36 0 0.1 0.36 0 0 0.365 0 0.02 0.365 0 0.04 0.365 0 0.06 0.365 0 0.08 0.365 0 0.1 0.365 0 0 0.37 0 0.02 0.37 0 0.04 0.37 0 0.06 0.37 0 0.08 0.37 0 0.1 0.37 0 0 0.375 0 0.02 0.375 0 0.04 0.375 0 0.06 0.375 0 0.08 0.375 0 0.1 0.375 0 0 0.38 0 0.02 0.38 0 0.04 0.38 0 0.06 0.38 0 0.08 0.38 0 0.1 0.38 0 0 0.385 0 0.02 0.385 0 0.04 0.385 0 0.06 0.385 0 0.08 0.385 0 0.1 0.385 0 0 0.39 0 0.02 0.39 0 0.04 0.39 0 0.06 0.39 0 0.08 0.39 0 0.1 0.39 0 0 0.395 0 0.02 0.395 0 0.04 0.395 0 0.06 0.395 0 0.08 0.395 0 0.1 0.395 0 0 0.4 0 0.02 0.4 0 0.04 0.4 0 0.06 0.4 0 0.08 0.4 0 0.1 0.4 0 0 0.405 0 0.02 0.405 0 0.04 0.405 0 0.06 0.405 0 0.08 0.405 0 0.1 0.405 0 0 0.41 0 0.02 0.41 0 0.04 0.41 0 0.06 0.41 0 0.08 0.41 0 0.1 0.41 0 0 0.415 0 0.02 0.415 0 0.04 0.415 0 0.06 0.415 0 0.08 0.415 0 0.1 0.415 0 0 0.42 0 0.02 0.42 0 0.04 0.42 0 0.06 0.42 0 0.08 0.42 0 0.1 0.42 0 0 0.425 0 0.02 0.425 0 0.04 0.425 0 0.06 0.425 0 0.08 0.425 0 0.1 0.425 0 0 0.43 0 0.02 0.43 0 0.04 0.43 0 0.06 0.43 0 0.08 0.43 0 0.1 0.43 0 0 0.435 0 0.02 0.435 0 0.04 0.435 0 0.06 0.435 0 0.08 0.435 0 0.1 0.435 0 0 0.44 0 0.02 0.44 0 0.04 0.44 0 0.06 0.44 0 0.08 0.44 0 0.1 0.44 0 0 0.445 0 0.02 0.445 0 0.04 0.445 0 0.06 0.445 0 0.08 0.445 0 0.1 0.445 0 0 0.45 0 0.02 0.45 0 0.04 0.45 0 0.06 0.45 0 0.08 0.45 0 0.1 0.45 0 0 0.455 0 0.02 0.455 0 0.04 0.455 0 0.06 0.455 0 0.08 0.455 0 0.1 0.455 0 0 0.46 0 0.02 0.46 0 0.04 0.46 0 0.06 0.46 0 0.08 0.46 0 0.1 0.46 0 0 0.465 0 0.02 0.465 0 0.04 0.465 0 0.06 0.465 0 0.08 0.465 0 0.1 0.465 0 0 0.47 0 0.02 0.47 0 0.04 0.47 0 0.06 0.47 0 0.08 0.47 0 0.1 0.47 0 0 0.475 0 0.02 0.475 0 0.04 0.475 0 0.06 0.475 0 0.08 0.475 0 0.1 0.475 0 0 0.48 0 0.02 0.48 0 0.04 0.48 0 0.06 0.48 0 0.08 0.48 0 0.1 0.48 0 0 0.485 0 0.02 0.485 0 0.04 0.485 0 0.06 0.485 0 0.08 0.485 0 0.1 0.485 0 0 0.49 0 0.02 0.49 0 0.04 0.49 0 0.06 0.49 0 0.08 0.49 0 0.1 0.49 0 0 0.495 0 0.02 0.495 0 0.04 0.495 0 0.06 0.495 0 0.08 0.495 0 0.1 0.495 0 0 0.5 0 0.02 0.5 0 0.04 0.5 0 0.06 0.5 0 0.08 0.5 0 0.1 0.5 0 0 0.505 0 0.02 0.505 0 0.04 0.505 0 0.06 0.505 0 0.08 0.505 0 0.1 0.505 0 0 0.51 0 0.02 0.51 0 0.04 0.51 0 0.06 0.51 0 0.08 0.51 0 0.1 0.51 0 0 0.515 0 0.02 0.515 0 0.04 0.515 0 0.06 0.515 0 0.08 0.515 0 0.1 0.515 0 0 0.52 0 0.02 0.52 0 0.04 0.52 0 0.06 0.52 0 0.08 0.52 0 0.1 0.52 0 0 0.525 0 0.02 0.525 0 0.04 0.525 0 0.06 0.525 0 0.08 0.525 0 0.1 0.525 0 0 0.53 0 0.02 0.53 0 0.04 0.53 0 0.06 0.53 0 0.08 0.53 0 0.1 0.53 0 0 0.535 0 0.02 0.535 0 0.04 0.535 0 0.06 0.535 0 0.08 0.535 0 0.1 0.535 0 0 0.54 0 0.02 0.54 0 0.04 0.54 0 0.06 0.54 0 0.08 0.54 0 0.1 0.54 0 0 0.545 0 0.02 0.545 0 0.04 0.545 0 0.06 0.545 0 0.08 0.545 0 0.1 0.545 0 0 0.55 0 0.02 0.55 0 0.04 0.55 0 0.06 0.55 0 0.08 0.55 0 0.1 0.55 0 0 0.555 0 0.02 0.555 0 0.04 0.555 0 0.06 0.555 0 0.08 0.555 0 0.1 0.555 0 0 0.56 0 0.02 0.56 0 0.04 0.56 0 0.06 0.56 0 0.08 0.56 0 0.1 0.56 0 0 0.565 0 0.02 0.565 0 0.04 0.565 0 0.06 0.565 0 0.08 0.565 0 0.1 0.565 0 0 0.57 0 0.02 0.57 0 0.04 0.57 0 0.06 0.57 0 0.08 0.57 0 0.1 0.57 0 0 0.575 0 0.02 0.575 0 0.04 0.575 0 0.06 0.575 0 0.08 0.575 0 0.1 0.575 0 0 0.58 0 0.02 0.58 0 0.04 0.58 0 0.06 0.58 0 0.08 0.58 0 0.1 0.58 0 0 0.585 0 0.02 0.585 0 0.04 0.585 0 0.06 0.585 0 0.08 0.585 0 0.1 0.585 0 0 0.59 0 0.02 0.59 0 0.04 0.59 0 0.06 0.59 0 0.08 0.59 0 0.1 0.59 0 0 0.595 0 0.02 0.595 0 0.04 0.595 0 0.06 0.595 0 0.08 0.595 0 0.1 0.595 0 0 0.6 0 0.02 0.6 0 0.04 0.6 0 0.06 0.6 0 0.08 0.6 0 0.1 0.6 0 0 0.605 0 0.02 0.605 0 0.04 0.605 0 0.06 0.605 0 0.08 0.605 0 0.1 0.605 0 0 0.61 0 0.02 0.61 0 0.04 0.61 0 0.06 0.61 0 0.08 0.61 0 0.1 0.61 0 0 0.615 0 0.02 0.615 0 0.04 0.615 0 0.06 0.615 0 0.08 0.615 0 0.1 0.615 0 0 0.62 0 0.02 0.62 0 0.04 0.62 0 0.06 0.62 0 0.08 0.62 0 0.1 0.62 0 0 0.625 0 0.02 0.625 0 0.04 0.625 0 0.06 0.625 0 0.08 0.625 0 0.1 0.625 0 0 0.63 0 0.02 0.63 0 0.04 0.63 0 0.06 0.63 0 0.08 0.63 0 0.1 0.63 0 0 0.635 0 0.02 0.635 0 0.04 0.635 0 0.06 0.635 0 0.08 0.635 0 0.1 0.635 0 0 0.64 0 0.02 0.64 0 0.04 0.64 0 0.06 0.64 0 0.08 0.64 0 0.1 0.64 0 0 0.645 0 0.02 0.645 0 0.04 0.645 0 0.06 0.645 0 0.08 0.645 0 0.1 0.645 0 0 0.65 0 0.02 0.65 0 0.04 0.65 0 0.06 0.65 0 0.08 0.65 0 0.1 0.65 0 0 0.655 0 0.02 0.655 0 0.04 0.655 0 0.06 0.655 0 0.08 0.655 0 0.1 0.655 0 0 0.66 0 0.02 0.66 0 0.04 0.66 0 0.06 0.66 0 0.08 0.66 0 0.1 0.66 0 0 0.665 0 0.02 0.665 0 0.04 0.665 0 0.06 0.665 0 0.08 0.665 0 0.1 0.665 0 0 0.67 0 0.02 0.67 0 0.04 0.67 0 0.06 0.67 0 0.08 0.67 0 0.1 0.67 0 0 0.675 0 0.02 0.675 0 0.04 0.675 0 0.06 0.675 0 0.08 0.675 0 0.1 0.675 0 0 0.68 0 0.02 0.68 0 0.04 0.68 0 0.06 0.68 0 0.08 0.68 0 0.1 0.68 0 0 0.685 0 0.02 0.685 0 0.04 0.685 0 0.06 0.685 0 0.08 0.685 0 0.1 0.685 0 0 0.69 0 0.02 0.69 0 0.04 0.69 0 0.06 0.69 0 0.08 0.69 0 0.1 
[...]
			<CellData Scalars="Density">
				<DataArray Name="Density" type="Float32" format="ascii">
 1 1 1 1 1 1 1 1 1 1 1 1 1 1 1 1 1 1 1 1 1 1 1 1 1 1 1 1 1 1 1 1 1 1 1 1 1 1 1 1 1 1 1 1 1 1 1 1 1 1 1 1 1 1 1 1 1 1 1 1 1 1 1 1 1 1 1 1 1 1 1 1 1 1 1 1 1 1 1 1 1 1 1 1 1 1 1 1 1 1 1 1 1 1 1 1 1 1 1 1 1 1 1 1 1 1 1 1 1 1 1 1 1 1 1 1 1 1 1 1 1 1 1 1 1 1 1 1 1 1 1 1 1 1 1 1 1 1 1 1 1 1 1 1 1 1 1 1 1 1 1 1 1 1 1 1 1 1 1 1 1 1 1 1 1 1 1 1 1 1 1 1 1 1 1 1 1 1 1 1 0.999999 0.999999 0.999999 0.999999 0.999999 0.999998 0.999998 0.999998 0.999998 0.999998 0.999995 0.999995 0.999995 0.999995 0.999995 0.999987 0.999987 0.999987 0.999987 0.999987 0.999966 0.999966 0.999966 0.999966 0.999966 0.999915 0.999915 0.999915 0.999915 0.999915 0.999798 0.999798 0.999798 0.999798 0.999798 0.999558 0.999558 0.999558 0.999558 0.999558 0.999105 0.999105 0.999105 0.999105 0.999105 0.998322 0.998322 0.998322 0.998322 0.998322 0.997068 0.997068 0.997068 0.997068 0.997068 0.995191 0.995191 0.995191 0.995191 0.995191 0.992549 0.992549 0.992549 0.992549 0.992549 0.989022 0.989022 0.989022 0.989022 0.989022 0.984523 0.984523 0.984523 0.984523 0.984523 0.97901 0.97901 0.97901 0.97901 0.97901 0.972476 0.972476 0.972476 0.972476 0.972476 0.964951 0.964951 0.964951 0.964951 0.964951 0.95649 0.95649 0.95649 0.95649 0.95649 0.947169 0.947169 0.947169 0.947169 0.947169 0.93707 0.93707 0.93707 0.93707 0.93707 0.926283 0.926283 0.926283 0.926283 0.926283 0.914895 0.914895 0.914895 0.914895 0.914895 0.902989 0.902989 0.902989 0.902989 0.902989 0.890642 0.890642 0.890642 0.890642 0.890642 0.877922 0.877922 0.877922 0.877922 0.877922 0.864887 0.864887 0.864887 0.864887 0.864887 0.851599 0.851599 0.851599 0.851599 0.851599 0.838108 0.838108 0.838108 0.838108 0.838108 0.82447 0.82447 0.82447 0.82447 0.82447 0.810706 0.810706 0.810706 0.810706 0.810706 0.79688 0.79688 0.79688 0.79688 0.79688 0.78302 0.78302 0.78302 0.78302 0.78302 0.769099 0.769099 0.769099 0.769099 0.769099 0.755317 0.755317 0.755317 0.755317 0.755317 0.741382 0.741382 0.741382 0.741382 0.741382 0.727796 0.727796 0.727796 0.727796 0.727796 0.713938 0.713938 0.713938 0.713938 0.713938 0.700599 0.700599 0.700599 0.700599 0.700599 0.686933 0.686933 0.686933 0.686933 0.686933 0.673849 0.673849 0.673849 0.673849 0.673849 0.660491 0.660491 0.660491 0.660491 0.660491 0.647635 0.647635 0.647635 0.647635 0.647635 0.634684 0.634684 0.634684 0.634684 0.634684 0.622029 0.622029 0.622029 0.622029 0.622029 0.609479 0.609479 0.609479 0.609479 0.609479 0.59696 0.59696 0.59696 0.59696 0.59696 0.584651 0.584651 0.584651 0.584651 0.584651 0.572192 0.572192 0.572192 0.572192 0.572192 0.559929 0.559929 0.559929 0.559929 0.559929 0.547527 0.547527 0.547527 0.547527 0.547527 0.535229 0.535229 0.535229 0.535229 0.535229 0.522941 0.522941 0.522941 0.522941 0.522941 0.510859 0.510859 0.510859 0.510859 0.510859 0.498882 0.498882 0.498882 0.498882 0.498882 0.486461 0.486461 0.486461 0.486461 0.486461 0.476345 0.476345 0.476345 0.476345 0.476345 0.465354 0.465354 0.465354 0.465354 0.465354 0.452885 0.452885 0.452885 0.452885 0.452885 0.444283 0.444283 0.444283 0.444283 0.444283 0.438664 0.438664 0.438664 0.438664 0.438664 0.42713 0.42713 0.42713 0.42713 0.42713 0.421364 0.421364 0.421363 0.421364 0.421364 0.420835 0.420835 0.420835 0.420835 0.420835 0.419813 0.419813 0.419813 0.419813 0.419813 0.414546 0.414546 0.414546 0.414546 0.414546 0.413492 0.413492 0.413492 0.413492 0.413492 0.414302 0.414302 0.414302 0.414302 0.414302 0.416298 0.416298 0.416298 0.416298 0.416298 0.419199 0.419199 0.419199 0.419199 0.419199 0.420242 0.420242 0.420242 0.420242 0.420242 0.421385 0.421385 0.421385 0.421385 0.421385 0.424378 0.424378 0.424378 0.424378 0.424378 0.42577 0.42577 0.42577 0.42577 0.42577 0.425321 0.425321 0.425321 0.425321 0.425321 0.4242 0.4242 0.4242 0.4242 0.4242 0.424127 0.424127 0.424127 0.424127 0.424127 0.424599 0.424599 0.424599 0.424599 0.424599 0.424751 0.424751 0.424751 0.424751 0.424751 0.424452 0.424452 0.424452 0.424452 0.424452 0.424253 0.424253 0.424253 0.424253 0.424253 0.424298 0.424298 0.424298 0.424298 0.424298 0.424231 0.424231 0.424231 0.424231 0.424231 0.424017 0.424017 0.424017 0.424017 0.424017 0.423959 0.423959 0.423959 0.423959 0.423959 0.423973 0.423973 0.423973 0.423973 0.423973 0.424074 0.424074 0.424074 0.424074 0.424074 0.424182 0.424182 0.424182 0.424182 0.424182 0.424188 0.424188 0.424188 0.424188 0.424188 0.424131 0.424131 0.424131 0.424131 0.424131 0.423925 0.423925 0.423925 0.423925 0.423925 0.42372 0.42372 0.42372 0.42372 0.42372 0.423622 0.423622 0.423622 0.423622 0.423622 0.423541 0.423541 0.423541 0.423541 0.423541 0.423348 0.423348 0.423348 0.423348 0.423348 0.422666 0.422666 0.422666 0.422666 0.422666 0.420515 0.420515 0.420515 0.420515 0.420515 0.414557 0.414557 0.414557 0.414557 0.414557 0.39858 0.39858 0.39858 0.39858 0.39858 0.34845 0.34845 0.34845 0.34845 0.34845 0.250718 0.250718 0.250718 0.250718 0.250718 0.264929 0.264929 0.264929 0.264929 0.264929 0.26523 0.26523 0.26523 0.26523 0.26523 0.265424 0.265424 0.265424 0.265424 0.265424 0.265442 0.265442 0.265442 0.265442 0.265442 0.265502 0.265502 0.265502 0.265502 0.265502 0.265611 0.265611 0.265611 0.265611 0.265611 0.265732 0.265732 0.265732 0.265732 0.265732 0.265756 0.265756 0.265756 0.265756 0.265756 0.26574 0.26574 0.26574 0.26574 0.26574 0.265681 0.265681 0.265681 0.265681 0.265681 0.265577 0.265577 0.265577 0.265577 0.265577 0.265513 0.265513 0.265513 0.265513 0.265513 0.265494 0.265494 0.265494 0.265494 0.265494 0.265537 0.265537 0.265537 0.265537 0.265537 0.265714 0.265714 0.265714 0.265714 0.265714 0.265979 0.265979 0.265979 0.265979 0.265979 0.266095 0.266095 0.266095 0.266095 0.266095 0.266188 0.266188 0.266188 0.266188 0.266188 0.266238 0.266238 0.266238 0.266238 0.266238 0.266234 0.266234 0.266234 0.266234 0.266234 0.266193 0.266193 0.266193 0.266193 0.266193 0.266127 0.266127 0.266127 0.266127 0.266127 0.266062 0.266062 0.266062 0.266062 0.266062 0.266014 0.266014 0.266014 0.266014 0.266014 0.265984 0.265984 0.265984 0.265984 0.265984 0.265944 0.265944 0.265944 0.265944 0.265944 0.265947 0.265947 0.265947 0.265947 0.265947 0.265255 0.265255 0.265255 0.265255 0.265255 0.264193 0.264193 0.264193 0.264193 0.264193 0.255132 0.255132 0.255132 0.255132 0.255132 0.232792 0.232792 0.232792 0.232792 0.232792 0.171337 0.171337 0.171337 0.171337 0.171337 0.132048 0.132048 0.132048 0.132048 0.132048 0.126061 0.126061 0.126061 0.126061 0.126061 0.125161 0.125161 0.125161 0.125161 0.125161 0.125024 0.125024 0.125024 0.125024 0.125024 0.125004 0.125004 0.125004 0.125004 0.125004 0.125001 0.125001 0.125001 0.125001 0.125001 0.125 0.125 0.125 0.125 0.125 0.125 0.125 0.125 0.125 0.125 0.125 0.125 0.125 0.125 0.125 0.125 0.125 0.125 0.125 0.125 0.125 0.125 0.125 0.125 0.125 0.125 0.125 0.125 0.125 0.125 0.125 0.125 0.125 0.125 0.125 0.125 0.125 0.125 0.125 0.125 0.125 0.125 0.125 0.125 0.125 0.125 0.125 0.125 0.125 0.125 0.125 0.125 0.125 0.125 0.125 0.125 0.125 0.125 0.125 0.125 0.125 0.125 0.125 0.125 0.125 0.125 0.125 0.125 0.125 0.125 0.125 0.125 0.125 0.125 0.125 0.125 0.125 0.125 0.125 0.125 0.125 0.125 0.125 0.125 0.125 0.125 0.125 0.125 0.125 0.125 0.125 0.125 0.125 0.125 0.125 0.125 0.125 0.125 0.125 0.125 0.125 0.125 0.125 0.125 0.125 0.125 0.125 0.125 0.125 0.125 0.125 0.125 0.125 0.125 0.125 0.125 0.125 0.125 0.125 0.125 0.125 0.125 0.125 0.125 0.125
				</DataArray>
				<DataArray Name="Energy" type="Float32" format="ascii">
 2.5 2.5 2.5 2.5 2.5 2.5 2.5 2.5 2.5 2.5 2.5 2.5 2.5 2.5 2.5 2.5 2.5 2.5 2.5 2.5 2.5 2.5 2.5 2.5 2.5 2.5 2.5 2.5 2.5 2.5 2.5 2.5 2.5 2.5 2.5 2.5 2.5 2.5 2.5 2.5 2.5 2.5 2.5 2.5 2.5 2.5 2.5 2.5 2.5 2.5 2.5 2.5 2.5 2.5 2.5 2.5 2.5 2.5 2.5 2.5 2.5 2.5 2.5 2.5 2.5 2.5 2.5 2.5 2.5 2.5 2.5 2.5 2.5 2.5 2.5 2.5 2.5 2.5 2.5 2.5 2.5 2.5 2.5 2.5 2.5 2.5 2.5 2.5 2.5 2.5 2.5 2.5 2.5 2.5 2.5 2.5 2.5 2.5 2.5 2.5 2.5 2.5 2.5 2.5 2.5 2.5 2.5 2.5 2.5 2.5 2.5 2.5 2.5 2.5 2.5 2.5 2.5 2.5 2.5 2.5 2.5 2.5 2.5 2.5 2.5 2.5 2.5 2.5 2.5 2.5 2.5 2.5 2.5 2.5 2.5 2.5 2.5 2.5 2.5 2.5 2.5 2.5 2.5 2.5 2.5 2.5 2.5 2.5 2.5 2.5 2.5 2.5 2.5 2.5 2.5 2.5 2.5 2.5 2.5 2.5 2.5 2.5 2.5 2.5 2.5 2.5 2.5 2.5 2.5 2.5 2.5 2.5 2.5 2.5 2.5 2.5 2.5 2.5 2.5 2.5 2.5 2.5 2.5 2.5 2.5 2.5 2.5 2.5 2.5 2.5 2.49999 2.49999 2.49999 2.49999 2.49999 2.49999 2.49999 2.49999 2.49999 2.49999 2.49997 2.49997 2.49997 2.49997 2.49997 2.49992 2.49992 2.49992 2.49992 2.49992 2.4998 2.4998 2.4998 2.4998 2.4998 2.49956 2.49956 2.49956 2.49956 2.49956 2.4991 2.4991 2.4991 2.4991 2.4991 2.49832 2.49832 2.49832 2.49832 2.49832 2.49707 2.49707 2.49707 2.49707 2.49707 2.49519 2.49519 2.49519 2.49519 2.49519 2.49254 2.49254 2.49254 2.49254 2.49254 2.489 2.489 2.489 2.489 2.489 2.48448 2.48448 2.48448 2.48448 2.48448 2.47892 2.47892 2.47892 2.47892 2.47892 2.47231 2.47231 2.47231 2.47231 2.47231 2.46468 2.46468 2.46468 2.46468 2.46468 2.45605 2.45605 2.45605 2.45605 2.45605 2.4465 2.4465 2.4465 2.4465 2.4465 2.4361 2.4361 2.4361 2.4361 2.4361 2.42492 2.42492 2.42492 2.42492 2.42492 2.41303 2.41303 2.41303 2.41303 2.41303 2.40052 2.40052 2.40052 2.40052 2.40052 2.38743 2.38743 2.38743 2.38743 2.38743 2.37385 2.37385 2.37385 2.37385 2.37385 2.3598 2.3598 2.3598 2.3598 2.3598 2.34536 2.34536 2.34536 2.34536 2.34536 2.33056 2.33056 2.33056 2.33056 2.33056 2.31545 2.31545 2.31545 2.31545 2.31545 2.30005 2.30005 2.30005 2.30005 2.30005 2.28437 2.28437 2.28437 2.28437 2.28437 2.26858 2.26858 2.26858 2.26858 2.26858 2.25245 2.25245 2.25245 2.25245 2.25245 2.23642 2.23642 2.23642 2.23642 2.23642 2.21993 2.21993 2.21993 2.21993 2.21993 2.20376 2.20376 2.20376 2.20376 2.20376 2.18701 2.18701 2.18701 2.18701 2.18701 2.17075 2.17075 2.17075 2.17075 2.17075 2.15387 2.15387 2.15387 2.15387 2.15387 2.13751 2.13751 2.13751 2.13751 2.13751 2.12065 2.12065 2.12065 2.12065 2.12065 2.10415 2.10415 2.10415 2.10415 2.10415 2.08746 2.08746 2.08746 2.08746 2.08746 2.07078 2.07078 2.07078 2.07078 2.07078 2.05423 2.05423 2.05423 2.05423 2.05423 2.03731 2.03731 2.03731 2.03731 2.03731 2.02066 2.02066 2.02066 2.02066 2.02066 2.00345 2.00345 2.00345 2.00345 2.00345 1.98632 1.98632 1.98632 1.98632 1.98632 1.96886 1.96886 1.96886 1.96886 1.96886 1.95104 1.95104 1.95104 1.95104 1.95104 1.93351 1.93351 1.93351 1.93351 1.93351 1.91528 1.91528 1.91528 1.91528 1.91528 1.89765 1.89765 1.89765 1.89765 1.89765 1.8809 1.8809 1.8809 1.8809 1.8809 1.8621 1.8621 1.8621 1.8621 1.8621 1.84066 1.84066 1.84066 1.84066 1.84066 1.8389 1.8389 1.8389 1.8389 1.8389 1.81831 1.81831 1.81831 1.81831 1.81831 1.79323 1.79323 1.79323 1.79323 1.79323 1.79463 1.79463 1.79463 1.79463 1.79463 1.7967 1.7967 1.7967 1.7967 1.7967 1.77491 1.77491 1.77491 1.77491 1.77491 1.76189 1.76189 1.76189 1.76189 1.76189 1.77009 1.77009 1.77009 1.77009 1.77009 1.77361 1.77361 1.77361 1.77361 1.77361 1.77023 1.77023 1.77023 1.77023 1.77023 1.76528 1.76528 1.76528 1.76528 1.76528 1.76397 1.76397 1.76397 1.76397 1.76397 1.77328 1.77328 1.77328 1.77328 1.77328 1.78388 1.78388 1.78388 1.78388 1.78388 1.77974 1.77974 1.77974 1.77974 1.77974 1.77707 1.77707 1.77707 1.77707 1.77707 1.78109 1.78109 1.78109 1.78109 1.78109 1.78675 1.78675 1.78675 1.78675 1.78675 1.78719 1.78719 1.78719 1.78719 1.78719 1.78543 1.78543 1.78543 1.78543 1.78543 1.78488 1.78488 1.78488 1.78488 1.78488 1.78635 1.78635 1.78635 1.78635 1.78635 1.78707 1.78707 1.78707 1.78707 1.78707 1.78652 1.78652 1.78652 1.78652 1.78652 1.78587 1.78587 1.78587 1.78587 1.78587 1.78651 1.78651 1.78651 1.78651 1.78651 1.78702 1.78702 1.78702 1.78702 1.78702 1.78766 1.78766 1.78766 1.78766 1.78766 1.78822 1.78822 1.78822 1.78822 1.78822 1.78887 1.78887 1.78887 1.78887 1.78887 1.78948 1.78948 1.78948 1.78948 1.78948 1.78975 1.78975 1.78975 1.78975 1.78975 1.79026 1.79026 1.79026 1.79026 1.79026 1.7903 1.7903 1.7903 1.7903 1.7903 1.79046 1.79046 1.79046 1.79046 1.79046 1.79088 1.79088 1.79088 1.79088 1.79088 1.79202 1.79202 1.79202 1.79202 1.79202 1.79543 1.79543 1.79543 1.79543 1.79543 1.80506 1.80506 1.80506 1.80506 1.80506 1.8318 1.8318 1.8318 1.8318 1.8318 1.91002 1.91002 1.91002 1.91002 1.91002 2.15662 2.15662 2.15662 2.15662 2.15662 2.97029 2.97029 2.97029 2.97029 2.97029 2.89665 2.89665 2.89665 2.89665 2.89665 2.86251 2.86251 2.86251 2.86251 2.86251 2.85723 2.85723 2.85723 2.85723 2.85723 2.85708 2.85708 2.85708 2.85708 2.85708 2.85734 2.85734 2.85734 2.85734 2.85734 2.85735 2.85735 2.85735 2.85735 2.85735 2.85754 2.85754 2.85754 2.85754 2.85754 2.85773 2.85773 2.85773 2.85773 2.85773 2.85787 2.85787 2.85787 2.85787 2.85787 2.85832 2.85832 2.85832 2.85832 2.85832 2.85901 2.85901 2.85901 2.85901 2.85901 2.8587 2.8587 2.8587 2.8587 2.8587 2.8578 2.8578 2.8578 2.8578 2.8578 2.85716 2.85716 2.85716 2.85716 2.85716 2.85529 2.85529 2.85529 2.85529 2.85529 2.85263 2.85263 2.85263 2.85263 2.85263 2.85219 2.85219 2.85219 2.85219 2.85219 2.85287 2.85287 2.85287 2.85287 2.85287 2.85346 2.85346 2.85346 2.85346 2.85346 2.85365 2.85365 2.85365 2.85365 2.85365 2.854 2.854 2.854 2.854 2.854 2.85451 2.85451 2.85451 2.85451 2.85451 2.85467 2.85467 2.85467 2.85467 2.85467 2.85485 2.85485 2.85485 2.85485 2.85485 2.8551 2.8551 2.8551 2.8551 2.8551 2.85519 2.85519 2.85519 2.85519 2.85519 2.85497 2.85497 2.85497 2.85497 2.85497 2.85166 2.85166 2.85166 2.85166 2.85166 2.84655 2.84655 2.84655 2.84655 2.84655 2.80642 2.80642 2.80642 2.80642 2.80642 2.69147 2.69147 2.69147 2.69147 2.69147 2.32018 2.32018 2.32018 2.32018 2.32018 2.047 2.047 2.047 2.047 2.047 2.00684 2.00684 2.00684 2.00684 2.00684 2.00103 2.00103 2.00103 2.00103 2.00103 2.00016 2.00016 2.00016 2.00016 2.00016 2.00002 2.00002 2.00002 2.00002 2.00002 2 2 2 2 2 2 2 2 2 2 2 2 2 2 2 2 2 2 2 2 2 2 2 2 2 2 2 2 2 2 2 2 2 2 2 2 2 2 2 2 2 2 2 2 2 2 2 2 2 2 2 2 2 2 2 2 2 2 2 2 2 2 2 2 2 2 2 2 2 2 2 2 2 2 2 2 2 2 2 2 2 2 2 2 2 2 2 2 2 2 2 2 2 2 2 2 2 2 2 2 2 2 2 2 2 2 2 2 2 2 2 2 2 2 2 2 2 2 2 2 2 2 2 2 2 2 2 2 2 2
				</DataArray>
				<DataArray Name="F1" type="Float32" format="ascii">
 1 1 1 1 1 1 1 1 1 1 1 1 1 1 1 1 1 1 1 1 1 1 1 1 1 1 1 1 1 1 1 1 1 1 1 1 1 1 1 1 1 1 1 1 1 1 1 1 1 1 1 1 1 1 1 1 1 1 1 1 1 1 1 1 1 1 1 1 1 1 1 1 1 1 1 1 1 1 1 1 1 1 1 1 1 1 1 1 1 1 1 1 1 1 1 1 1 1 1 1 1 1 1 1 1 1 1 1 1 1 1 1 1 1 1 1 1 1 1 1 1 1 1 1 1 1 1 1 1 1 1 1 1 1 1 1 1 1 1 1 1 1 1 1 1 1 1 1 1 1 1 1 1 1 1 1 1 1 1 1 1 1 1 1 1 1 1 1 1 1 1 1 1 1 1 1 1 1 1 1 1 1 1 1 1 1 1 1 1 1 1 1 1 1 1 1 1 1 1 1 1 1 1 1 1 1 1 1 1 1 1 1 1 1 1 1 1 1 1 1 1 1 1 1 1 1 1 1 1 1 1 1 1 1 1 1 1 1 1 1 1 1 1 1 1 1 1 1 1 1 1 1 1 1 1 1 1 1 1 1 1 1 1 1 1 1 1 1 1 1 1 1 1 1 1 1 1 1 1 1 1 1 1 1 1 1 1 1 1 1 1 1 1 1 1 1 1 1 1 1 1 1 1 1 1 1 1 1 1 1 1 1 1 1 1 1 1 1 1 1 1 1 1 1 1 1 1 1 1 1 1 1 1 1 1 1 1 1 1 1 1 1 1 1 1 1 1 1 1 1 1 1 1 1 1 1 1 1 1 1 1 1 1 1 1 1 1 1 1 1 1 1 1 1 1 1 1 1 1 1 1 1 1 1 1 1 1 1 1 1 1 1 1 1 1 1 1 1 1 1 1 1 1 1 1 1 1 1 1 1 1 1 1 1 1 1 1 1 1 1 1 1 1 1 1 1 1 1 1 1 1 1 1 1 1 1 1 1 1 1 1 1 1 1 1 1 1 1 1 1 1 1 1 1 1 1 1 1 1 1 1 1 1 1 1 1 1 1 1 1 1 1 1 1 1 1 1 1 1 1 1 1 1 1 1 1 1 1 1 1 1 1 1 1 1 1 1 1 1 1 1 1 1 1 1 1 1 1 1 1 1 1 1 1 1 1 1 1 1 1 1 1 1 1 1 1 1 1 1 1 1 1 1 1 1 1 1 1 1 1 1 1 1 1 1 1 1 1 1 1 1 1 1 1 1 1 1 1 1 1 1 1 1 1 1 1 1 1 1 1 1 1 1 1 1 1 1 1 1 1 1 1 1 1 1 1 1 1 1 1 1 1 1 1 1 1 1 1 1 1 1 1 1 1 1 1 1 1 1 1 1 1 1 1 1 1 1 1 1 1 0.999999 0.999999 0.999999 0.999999 0.999999 0.999998 0.999998 0.999998 0.999998 0.999998 0.999991 0.999991 0.999991 0.999991 0.999991 0.999969 0.999969 0.999969 0.999969 0.999969 0.999894 0.999894 0.999894 0.999894 0.999894 0.999651 0.999651 0.999651 0.999651 0.999651 0.998889 0.998889 0.998889 0.998889 0.998889 0.99656 0.99656 0.99656 0.99656 0.99656 0.989599 0.989599 0.989599 0.989599 0.989599 0.969162 0.969162 0.969162 0.969162 0.969162 0.909912 0.909912 0.909912 0.909912 0.909912 0.740275 0.740275 0.740275 0.740275 0.740275 0.288786 0.288786 0.288786 0.288786 0.288786 0.0194245 0.0194245 0.0194245 0.0194245 0.0194245 0.00115515 0.00115515 0.00115515 0.00115515 0.00115515 6.87979e-05 6.87979e-05 6.87979e-05 6.87979e-05 6.87979e-05 4.14933e-06 4.14933e-06 4.14933e-06 4.14933e-06 4.14933e-06 2.50853e-07 2.50853e-07 2.50853e-07 2.50853e-07 2.50853e-07 1.51711e-08 1.51711e-08 1.51711e-08 1.51711e-08 1.51711e-08 9.16865e-10 9.16865e-10 9.16865e-10 9.16865e-10 9.16865e-10 5.52785e-11 5.52785e-11 5.52785e-11 5.52785e-11 5.52785e-11 3.32111e-12 3.32111e-12 3.32111e-12 3.32111e-12 3.32111e-12 1.97101e-13 1.97101e-13 1.97101e-13 1.97101e-13 1.97101e-13 1.0283e-14 1.0283e-14 1.0283e-14 1.0283e-14 1.0283e-14 0 0 0 0 0 0 0 0 0 0 0 0 0 0 0 0 0 0 0 0 0 0 0 0 0 0 0 0 0 0 0 0 0 0 0 0 0 0 0 0 0 0 0 0 0 0 0 0 0 0 0 0 0 0 0 0 0 0 0 0 0 0 0 0 0 0 0 0 0 0 0 0 0 0 0 0 0 0 0 0 0 0 0 0 0 0 0 0 0 0 0 0 0 0 0 0 0 0 0 0 0 0 0 0 0 0 0 0 0 0 0 0 0 0 0 0 0 0 0 0 0 0 0 0 0 0 0 0 0 0 0 0 0 0 0 0 0 0 0 0 0 0 0 0 0 0 0 0 0 0 0 0 0 0 0 0 0 0 0 0 0 0 0 0 0 0 0 0 0 0 0 0 0 0 0 0 0 0 0 0 0 0 0 0 0 0 0 0 0 0 0 0 0 0 0 0 0 0 0 0 0 0 0 0 0 0 0 0 0 0 0 0 0 0 0 0 0 0 0 0 0 0 0 0 0 0 0 0 0 0 0 0 0 0 0 0 0 0 0 0 0 0 0 0 0 0 0 0 0 0 0 0 0 0 0 0 0 0 0 0
				</DataArray>
				<DataArray Name="F2" type="Float32" format="ascii">