<?xml version="1.0"?>
<VTKFile type="PolyData">
	<PolyData>
		<Piece NumberOfPoints="1206" NumberOfPolys="1000">
			<Points>
				<DataArray type="Float32" NumberOfComponents="3" format="ascii">
 0 0 0 0.005 0 0 0.01 0 0 0.015 0 0 0.02 0 0 0.025 0 0 0.03 0 0 0.035 0 0 0.04 0 0 0.045 0 0 0.05 0 0 0.055 0 0 0.06 0 0 0.065 0 0 0.07 0 0 0.075 0 0 0.08 0 0 0.085 0 0 0.09 0 0 0.095 0 0 0.1 0 0 0.105 0 0 0.11 0 0 0.115 0 0 0.12 0 0 0.125 0 0 0.13 0 0 0.135 0 0 0.14 0 0 0.145 0 0 0.15 0 0 0.155 0 0 0.16 0 0 0.165 0 0 0.17 0 0 0.175 0 0 0.18 0 0 0.185 0 0 0.19 0 0 0.195 0 0 0.2 0 0 0.205 0 0 0.21 0 0 0.215 0 0 0.22 0 0 0.225 0 0 0.23 0 0 0.235 0 0 0.24 0 0 0.245 0 0 0.25 0 0 0.255 0 0 0.26 0 0 0.265 0 0 0.27 0 0 0.275 0 0 0.28 0 0 0.285 0 0 0.29 0 0 0.295 0 0 0.3 0 0 0.305 0 0 0.31 0 0 0.315 0 0 0.32 0 0 0.325 0 0 0.33 0 0 0.335 0 0 0.34 0 0 0.345 0 0 0.35 0 0 0.355 0 0 0.36 0 0 0.365 0 0 0.37 0 0 0.375 0 0 0.38 0 0 0.385 0 0 0.39 0 0 0.395 0 0 0.4 0 0 0.405 0 0 0.41 0 0 0.415 0 0 0.42 0 0 0.425 0 0 0.43 0 0 0.435 0 0 0.44 0 0 0.445 0 0 0.45 0 0 0.455 0 0 0.46 0 0 0.465 0 0 0.47 0 0 0.475 0 0 0.48 0 0 0.485 0 0 0.49 0 0 0.495 0 0 0.5 0 0 0.505 0 0 0.51 0 0 0.515 0 0 0.52 0 0 0.525 0 0 0.53 0 0 0.535 0 0 0.54 0 0 0.545 0 0 0.55 0 0 0.555 0 0 0.56 0 0 0.565 0 0 0.57 0 0 0.575 0 0 0.58 0 0 0.585 0 0 0.59 0 0 0.595 0 0 0.6 0 0 0.605 0 0 0.61 0 0 0.615 0 0 0.62 0 0 0.625 0 0 0.63 0 0 0.635 0 0 0.64 0 0 0.645 0 0 0.65 0 0 0.655 0 0 0.66 0 0 0.665 0 0 0.67 0 0 0.675 0 0 0.68 0 0 0.685 0 0 0.69 0 0 0.695 0 0 0.7 0 0 0.705 0 0 0.71 0 0 0.715 0 0 0.72 0 0 0.725 0 0 0.73 0 0 0.735 0 0 0.74 0 0 0.745 0 0 0.75 0 0 0.755 0 0 0.76 0 0 0.765 0 0 0.77 0 0 0.775 0 0 0.78 0 0 0.785 0 0 0.79 0 0 0.795 0 0 0.8 0 0 0.805 0 0 0.81 0 0 0.815 0 0 0.82 0 0 0.825 0 0 0.83 0 0 0.835 0 0 0.84 0 0 0.845 0 0 0.85 0 0 0.855 0 0 0.86 0 0 0.865 0 0 0.87 0 0 0.875 0 0 0.88 0 0 0.885 0 0 0.89 0 0 0.895 0 0 0.9 0 0 0.905 0 0 0.91 0 0 0.915 0 0 0.92 0 0 0.925 0 0 0.93 0 0 0.935 0 0 0.94 0 0 0.945 0 0 0.95 0 0 0.955 0 0 0.96 0 0 0.965 0 0 0.97 0 0 0.975 0 0 0.98 0 0 0.985 0 0 0.99 0 0 0.995 0 0 1 0 0 0 0.02 0 0.005 0.02 0 0.01 0.02 0 0.015 0.02 0 0.02 0.02 0 0.025 0.02 0 0.03 0.02 0 0.035 0.02 0 0.04 0.02 0 0.045 0.02 0 0.05 0.02 0 0.055 0.02 0 0.06 0.02 0 0.065 0.02 0 0.07 0.02 0 0.075 0.02 0 0.08 0.02 0 0.085 0.02 0 0.09 0.02 0 0.095 0.02 0 0.1 0.02 0 0.105 0.02 0 0.11 0.02 0 0.115 0.02 0 0.12 0.02 0 0.125 0.02 0 0.13 0.02 0 0.135 0.02 0 0.14 0.02 0 0.145 0.02 0 0.15 0.02 0 0.155 0.02 0 0.16 0.02 0 0.165 0.02 0 0.17 0.02 0 0.175 0.02 0 0.18 0.02 0 0.185 0.02 0 0.19 0.02 0 0.195 0.02 0 0.2 0.02 0 0.205 0.02 0 0.21 0.02 0 0.215 0.02 0 0.22 0.02 0 0.225 0.02 0 0.23 0.02 0 0.235 0.02 0 0.24 0.02 0 0.245 0.02 0 0.25 0.02 0 0.255 0.02 0 0.26 0.02 0 0.265 0.02 0 0.27 0.02 0 0.275 0.02 0 0.28 0.02 0 0.285 0.02 0 0.29 0.02 0 0.295 0.02 0 0.3 0.02 0 0.305 0.02 0 0.31 0.02 0 0.315 0.02 0 0.32 0.02 0 0.325 0.02 0 0.33 0.02 0 0.335 0.02 0 0.34 0.02 0 0.345 0.02 0 0.35 0.02 0 0.355 0.02 0 0.36 0.02 0 0.365 0.02 0 0.37 0.02 0 0.375 0.02 0 0.38 0.02 0 0.385 0.02 0 0.39 0.02 0 0.395 0.02 0 0.4 0.02 0 0.405 0.02 0 0.41 0.02 0 0.415 0.02 0 0.42 0.02 0 0.425 0.02 0 0.43 0.02 0 0.435 0.02 0 0.44 0.02 0 0.445 0.02 0 0.45 0.02 0 0.455 0.02 0 0.46 0.02 0 0.465 0.02 0 0.47 0.02 0 0.475 0.02 0 0.48 0.02 0 0.485 0.02 0 0.49 0.02 0 0.495 0.02 0 0.5 0.02 0 0.505 0.02 0 0.51 0.02 0 0.515 0.02 0 0.52 0.02 0 0.525 0.02 0 0.53 0.02 0 0.535 0.02 0 0.54 0.02 0 0.545 0.02 0 0.55 0.02 0 0.555 0.02 0 0.56 0.02 0 0.565 0.02 0 0.57 0.02 0 0.575 0.02 0 0.58 0.02 0 0.585 0.02 0 0.59 0.02 0 0.595 0.02 0 0.6 0.02 0 0.605 0.02 0 0.61 0.02 0 0.615 0.02 0 0.62 0.02 0 0.625 0.02 0 0.63 0.02 0 0.635 0.02 0 0.64 0.02 0 0.645 0.02 0 0.65 0.02 0 0.655 0.02 0 0.66 0.02 0 0.665 0.02 0 0.67 0.02 0 0.675 0.02 0 0.68 0.02 0 0.685 0.02 0 0.69 0.02 0 0.695 0.02 0 0.7 0.02 0 0.705 0.02 0 0.71 0.02 0 0.715 0.02 0 0.72 0.02 0 0.725 0.02 0 0.73 0.02 0 0.735 0.02 0 0.74 0.02 0 0.745 0.02 0 0.75 0.02 0 0.755 0.02 0 0.76 0.02 0 0.765 0.02 0 0.77 0.02 0 0.775 0.02 0 0.78 0.02 0 0.785 0.02 0 0.79 0.02 0 0.795 0.02 0 0.8 0.02 0 0.805 0.02 0 0.81 0.02 0 0.815 0.02 0 0.82 0.02 0 0.825 0.02 0 0.83 0.02 0 0.835 0.02 0 0.84 0.02 0 0.845 0.02 0 0.85 0.02 0 0.855 0.02 0 0.86 0.02 0 0.865 0.02 0 0.87 0.02 0 0.875 0.02 0 0.88 0.02 0 0.885 0.02 0 0.89 0.02 0 0.895 0.02 0 0.9 0.02 0 0.905 0.02 0 0.91 0.02 0 0.915 0.02 0 0.92 0.02 0 0.925 0.02 0 0.93 0.02 0 0.935 0.02 0 0.94 0.02 0 0.945 0.02 0 0.95 0.02 0 0.955 0.02 0 0.96 0.02 0 0.965 0.02 0 0.97 0.02 0 0.975 0.02 0 0.98 0.02 0 0.985 0.02 0 0.99 0.02 0 0.995 0.02 0 1 0.02 0 0 0.04 0 0.005 0.04 0 0.01 0.04 0 0.015 0.04 0 0.02 0.04 0 0.025 0.04 0 0.03 0.04 0 0.035 0.04 0 0.04 0.04 0 0.045 0.04 0 0.05 0.04 0 0.055 0.04 0 0.06 0.04 0 0.065 0.04 0 0.07 0.04 0 0.075 0.04 0 0.08 0.04 0 0.085 0.04 0 0.09 0.04 0 0.095 0.04 0 0.1 0.04 0 0.105 0.04 0 0.11 0.04 0 0.115 0.04 0 0.12 0.04 0 0.125 0.04 0 0.13 0.04 0 0.135 0.04 0 0.14 0.04 0 0.145 0.04 0 0.15 0.04 0 0.155 0.04 0 0.16 0.04 0 0.165 0.04 0 0.17 0.04 0 0.175 0.04 0 0.18 0.04 0 0.185 0.04 0 0.19 0.04 0 0.195 0.04 0 0.2 0.04 0 0.205 0.04 0 0.21 0.04 0 0.215 0.04 0 0.22 0.04 0 0.225 0.04 0 0.23 0.04 0 0.235 0.04 0 0.24 0.04 0 0.245 0.04 0 0.25 0.04 0 0.255 0.04 0 0.26 0.04 0 0.265 0.04 0 0.27 0.04 0 0.275 0.04 0 0.28 0.04 0 0.285 0.04 0 0.29 0.04 0 0.295 0.04 0 0.3 0.04 0 0.305 0.04 0 0.31 0.04 0 0.315 0.04 0 0.32 0.04 0 0.325 0.04 0 0.33 0.04 0 0.335 0.04 0 0.34 0.04 0 0.345 0.04 0 0.35 0.04 0 0.355 0.04 0 0.36 0.04 0 0.365 0.04 0 0.37 0.04 0 0.375 0.04 0 0.38 0.04 0 0.385 0.04 0 0.39 0.04 0 0.395 0.04 0 0.4 0.04 0 0.405 0.04 0 0.41 0.04 0 0.415 0.04 0 0.42 0.04 0 0.425 0.04 0 0.43 0.04 0 0.435 0.04 0 0.44 0.04 0 0.445 0.04 0 0.45 0.04 0 0.455 0.04 0 0.46 0.04 0 0.465 0.04 0 0.47 0.04 0 0.475 0.04 0 0.48 0.04 0 0.485 0.04 0 0.49 0.04 0 0.495 0.04 0 0.5 0.04 0 0.505 0.04 0 0.51 0.04 0 0.515 0.04 0 0.52 0.04 0 0.525 0.04 0 0.53 0.04 0 0.535 0.04 0 0.54 0.04 0 0.545 0.04 0 0.55 0.04 0 0.555 0.04 0 0.56 0.04 0 0.565 0.04 0 0.57 0.04 0 0.575 0.04 0 0.58 0.04 0 0.585 0.04 0 0.59 0.04 0 0.595 0.04 0 0.6 0.04 0 0.605 0.04 0 0.61 0.04 0 0.615 0.04 0 0.62 0.04 0 0.625 0.04 0 0.63 0.04 0 0.635 0.04 0 0.64 0.04 0 0.645 0.04 0 0.65 0.04 0 0.655 0.04 0 0.66 0.04 0 0.665 0.04 0 0.67 0.04 0 0.675 0.04 0 0.68 0.04 0 0.685 0.04 0 0.69 0.04 0 0.695 0.04 0 0.7 0.04 0 0.705 0.04 0 0.71 0.04 0 0.715 0.04 0 0.72 0.04 0 0.725 0.04 0 0.73 0.04 0 0.735 0.04 0 0.74 0.04 0 0.745 0.04 0 0.75 0.04 0 0.755 0.04 0 0.76 0.04 0 0.765 0.04 0 0.77 0.04 0 0.775 0.04 0 0.78 0.04 0 0.785 0.04 0 0.79 0.04 0 0.795 0.04 0 0.8 0.04 0 0.805 0.04 0 0.81 0.04 0 0.815 0.04 0 0.82 0.04 0 0.825 0.04 0 0.83 0.04 0 0.835 0.04 0 0.84 0.04 0 0.845 0.04 0 0.85 0.04 0 0.855 0.04 0 0.86 0.04 0 0.865 0.04 0 0.87 0.04 0 0.875 0.04 0 0.88 0.04 0 0.885 0.04 0 0.89 0.04 0 0.895 0.04 0 0.9 0.04 0 0.905 0.04 0 0.91 0.04 0 0.915 0.04 0 0.92 0.04 0 0.925 0.04 0 0.93 0.04 0 0.935 0.04 0 0.94 0.04 0 0.945 0.04 0 0.95 0.04 0 0.955 0.04 0 0.96 0.04 0 0.965 0.04 0 0.97 0.04 0 0.975 0.04 0 0.98 0.04 0 0.985 0.04 0 0.99 0.04 0 0.995 0.04 0 1 0.04 0 0 0.06 0 0.005 0.06 0 0.01 0.06 0 0.015 0.06 0 0.02 0.06 0 0.025 0.06 0 0.03 0.06 0 0.035 0.06 0 0.04 0.06 0 0.045 0.06 0 0.05 0.06 0 0.055 0.06 0 0.06 0.06 0 0.065 0.06 0 0.07 0.06 0 0.075 0.06 0 0.08 0.06 0 0.085 0.06 0 0.09 0.06 0 0.095 0.06 0 0.1 0.06 0 0.105 0.06 0 0.11 0.06 0 0.115 0.06 0 0.12 0.06 0 0.125 0.06 0 0.13 0.06 0 0.135 0.06 0 0.14 0.06 0 0.145 0.06 0 0.15 0.06 0 0.155 0.06 0 0.16 0.06 0 0.165 0.06 0 0.17 0.06 0 0.175 0.06 0 0.18 0.06 0 0.185 0.06 0 0.19 0.06 0 0.195 0.06 0 0.2 0.06 0 0.205 0.06 0 0.21 0.06 0 0.215 0.06 0 0.22 0.06 0 0.225 0.06 0 0.23 0.06 0 0.235 0.06 0 0.24 0.06 0 0.245 0.06 0 0.25 0.06 0 0.255 0.06 0 0.26 0.06 0 0.265 0.06 0 0.27 0.06 0 0.275 0.06 0 0.28 0.06 0 0.285 0.06 0 0.29 0.06 0 0.295 0.06 0 0.3 0.06 0 0.305 0.06 0 0.31 0.06 0 0.315 0.06 0 0.32 0.06 0 0.325 0.06 0 0.33 0.06 0 0.335 0.06 0 0.34 0.06 0 0.345 0.06 0 0.35 0.06 0 0.355 0.06 0 0.36 0.06 0 0.365 0.06 0 0.37 0.06 0 0.375 0.06 0 0.38 0.06 0 0.385 0.06 0 0.39 0.06 0 0.395 0.06 0 0.4 0.06 0 0.405 0.06 0 0.41 0.06 0 0.415 0.06 0 0.42 0.06 0 0.425 0.06 0 0.43 0.06 0 0.435 0.06 0 0.44 0.06 0 0.445 0.06 0 0.45 0.06 0 0.455 0.06 0 0.46 0.06 0 0.465 0.06 0 0.47 0.06 0 0.475 0.06 0 0.48 0.06 0 0.485 0.06 0 0.49 0.06 0 0.495 0.06 0 0.5 0.06 0 0.505 0.06 0 0.51 0.06 0 0.515 0.06 0 0.52 0.06 0 0.525 0.06 0 0.53 0.06 0 0.535 0.06 0 0.54 0.06 0 0.545 0.06 0 0.55 0.06 0 0.555 0.06 0 0.56 0.06 0 0.565 0.06 0 0.57 0.06 0 0.575 0.06 0 0.58 0.06 0 0.585 0.06 0 0.59 0.06 0 0.595 0.06 0 0.6 0.06 0 0.605 0.06 0 0.61 0.06 0 0.615 0.06 0 0.62 0.06 0 0.625 0.06 0 0.63 0.06 0 0.635 0.06 0 0.64 0.06 0 0.645 0.06 0 0.65 0.06 0 0.655 0.06 0 0.66 0.06 0 0.665 0.06 0 0.67 0.06 0 0.675 0.06 0 0.68 0.06 0 0.685 0.06 0 0.69 0.06 0 0.695 0.06 0 0.7 0.06 0 0.705 0.06 0 0.71 0.06 0 0.715 0.06 0 0.72 0.06 0 0.725 0.06 0 0.73 0.06 0 0.735 0.06 0 0.74 0.06 0 0.745 0.06 0 0.75 0.06 0 0.755 0.06 0 0.76 0.06 0 0.765 0.06 0 0.77 0.06 0 0.775 0.06 0 0.78 0.06 0 0.785 0.06 0 0.79 0.06 0 0.795 0.06 0 0.8 0.06 0 0.805 0.06 0 0.81 0.06 0 0.815 0.06 0 0.82 0.06 0 0.825 0.06 0 0.83 0.06 0 0.835 0.06 0 0.84 0.06 0 0.845 0.06 0 0.85 0.06 0 0.855 0.06 0 0.86 0.06 0 0.865 0.06 0 0.87 0.06 0 0.875 0.06 0 0.88 0.06 0 0.885 0.06 0 0.89 0.06 0 0.895 0.06 0 0.9 0.06 0 0.905 0.06 0 0.91 0.06 0 0.915 0.06 0 0.92 0.06 0 0.925 0.06 0 0.93 0.06 0 0.935 0.06 0 0.94 0.06 0 0.945 0.06 0 0.95 0.06 0 0.955 0.06 0 0.96 0.06 0 0.965 0.06 0 0.97 0.06 0 0.975 0.06 0 0.98 0.06 0 0.985 0.06 0 0.99 0.06 0 0.995 0.06 0 1 0.06 0 0 0.08 0 0.005 0.08 0 0.01 0.08 0 0.015 0.08 0 0.02 0.08 0 0.025 0.08 0 0.03 0.08 0 0.035 0.08 0 0.04 0.08 0 0.045 0.08 0 0.05 0.08 0 0.055 0.08 0 0.06 0.08 0 0.065 0.08 0 0.07 0.08 0 0.075 0.08 0 0.08 0.08 0 0.085 0.08 0 0.09 0.08 0 0.095 0.08 0 0.1 0.08 0 0.105 0.08 0 0.11 0.08 0 0.115 0.08 0 0.12 0.08 0 0.125 0.08 0 0.13 0.08 0 0.135 0.08 0 0.14 0.08 0 0.145 0.08 0 0.15 0.08 0 0.155 0.08 0 0.16 0.08 0 0.165 0.08 0
[...]
			<CellData Scalars="Density">
				<DataArray Name="Density" type="Float32" format="ascii">
 1 1 1 1 1 1 1 1 1 1 1 1 1 1 1 1 1 1 1 1 1 1 1 1 1 1 1 1 1 1 1 1 1 1 1 1 0.999999 0.999997 0.999992 0.999978 0.999944 0.99986 0.999677 0.99931 0.998642 0.997518 0.995765 0.993211 0.989704 0.985134 0.979441 0.972624 0.964722 0.955817 0.946008 0.935408 0.924135 0.912295 0.900002 0.887333 0.874386 0.861218 0.8479 0.834483 0.821001 0.807513 0.794018 0.780584 0.76719 0.753895 0.740684 0.727593 0.714616 0.701789 0.689074 0.67655 0.664147 0.65191 0.639891 0.627969 0.616269 0.604788 0.59344 0.58227 0.571393 0.5607 0.550139 0.539853 0.5299 0.520153 0.510579 0.501336 0.492548 0.484099 0.47592 0.468156 0.460958 0.454403 0.448528 0.443173 0.438189 0.434186 0.431502 0.429169 0.426942 0.425526 0.424752 0.42423 0.424023 0.423938 0.423617 0.423332 0.423289 0.423424 0.423682 0.423701 0.423324 0.422883 0.422842 0.423073 0.42328 0.423133 0.422216 0.421674 0.421685 0.422118 0.422249 0.421405 0.418927 0.417771 0.417935 0.420489 0.422452 0.42207 0.39403 0.345426 0.301038 0.274115 0.264291 0.263365 0.26353 0.264209 0.26488 0.265281 0.265431 0.265479 0.265585 0.265808 0.26606 0.266226 0.266281 0.26627 0.266137 0.265989 0.265915 0.265908 0.26593 0.26598 0.266022 0.266028 0.266045 0.266045 0.26606 0.266056 0.266123 0.265929 0.264568 0.247447 0.204958 0.143572 0.127899 0.125438 0.125066 0.12501 0.125002 0.125 0.125 0.125 0.125 0.125 0.125 0.125 0.125 0.125 0.125 0.125 0.125 0.125 0.125 0.125 0.125 0.125 0.125 0.125 0.125 0.125 0.125 0.125 0.125 0.125 1 1 1 1 1 1 1 1 1 1 1 1 1 1 1 1 1 1 1 1 1 1 1 1 1 1 1 1 1 1 1 1 1 1 1 1 0.999999 0.999997 0.999992 0.999978 0.999944 0.99986 0.999677 0.99931 0.998642 0.997518 0.995765 0.993211 0.989704 0.985134 0.979441 0.972624 0.964722 0.955817 0.946008 0.935408 0.924135 0.912295 0.900002 0.887333 0.874386 0.861218 0.8479 0.834483 0.821001 0.807513 0.794018 0.780584 0.76719 0.753895 0.740684 0.727593 0.714616 0.701789 0.689074 0.67655 0.664147 0.65191 0.639891 0.627969 0.616269 0.604788 0.59344 0.58227 0.571393 0.5607 0.550139 0.539853 0.5299 0.520153 0.510579 0.501336 0.492548 0.484099 0.47592 0.468156 0.460958 0.454403 0.448528 0.443173 0.438189 0.434186 0.431502 0.429169 0.426942 0.425526 0.424752 0.42423 0.424023 0.423938 0.423617 0.423332 0.423289 0.423424 0.423682 0.423701 0.423324 0.422883 0.422842 0.423073 0.42328 0.423133 0.422216 0.421674 0.421685 0.422118 0.422249 0.421405 0.418927 0.417771 0.417935 0.420489 0.422452 0.42207 0.39403 0.345426 0.301038 0.274115 0.264291 0.263365 0.26353 0.264209 0.26488 0.265281 0.265431 0.265479 0.265585 0.265808 0.26606 0.266226 0.266281 0.26627 0.266137 0.265989 0.265915 0.265908 0.26593 0.26598 0.266022 0.266028 0.266045 0.266045 0.26606 0.266056 0.266123 0.265929 0.264568 0.247447 0.204958 0.143572 0.127899 0.125438 0.125066 0.12501 0.125002 0.125 0.125 0.125 0.125 0.125 0.125 0.125 0.125 0.125 0.125 0.125 0.125 0.125 0.125 0.125 0.125 0.125 0.125 0.125 0.125 0.125 0.125 0.125 0.125 0.125 1 1 1 1 1 1 1 1 1 1 1 1 1 1 1 1 1 1 1 1 1 1 1 1 1 1 1 1 1 1 1 1 1 1 1 1 0.999999 0.999997 0.999992 0.999978 0.999944 0.99986 0.999677 0.99931 0.998642 0.997518 0.995765 0.993211 0.989704 0.985134 0.979441 0.972624 0.964722 0.955817 0.946008 0.935408 0.924135 0.912295 0.900002 0.887333 0.874386 0.861218 0.8479 0.834483 0.821001 0.807513 0.794018 0.780584 0.76719 0.753895 0.740684 0.727593 0.714616 0.701789 0.689074 0.67655 0.664147 0.65191 0.639891 0.627969 0.616269 0.604788 0.59344 0.58227 0.571393 0.5607 0.550139 0.539853 0.5299 0.520153 0.510579 0.501336 0.492548 0.484099 0.47592 0.468156 0.460958 0.454403 0.448528 0.443173 0.438189 0.434186 0.431502 0.429169 0.426942 0.425526 0.424752 0.42423 0.424023 0.423938 0.423617 0.423332 0.423289 0.423424 0.423682 0.423701 0.423324 0.422883 0.422842 0.423073 0.42328 0.423133 0.422216 0.421674 0.421685 0.422118 0.422249 0.421405 0.418927 0.417771 0.417935 0.420489 0.422452 0.42207 0.39403 0.345426 0.301038 0.274115 0.264291 0.263365 0.26353 0.264209 0.26488 0.265281 0.265431 0.265479 0.265585 0.265808 0.26606 0.266226 0.266281 0.26627 0.266137 0.265989 0.265915 0.265908 0.26593 0.26598 0.266022 0.266028 0.266045 0.266045 0.26606 0.266056 0.266123 0.265929 0.264568 0.247447 0.204958 0.143572 0.127899 0.125438 0.125066 0.12501 0.125002 0.125 0.125 0.125 0.125 0.125 0.125 0.125 0.125 0.125 0.125 0.125 0.125 0.125 0.125 0.125 0.125 0.125 0.125 0.125 0.125 0.125 0.125 0.125 0.125 0.125 1 1 1 1 1 1 1 1 1 1 1 1 1 1 1 1 1 1 1 1 1 1 1 1 1 1 1 1 1 1 1 1 1 1 1 1 0.999999 0.999997 0.999992 0.999978 0.999944 0.99986 0.999677 0.99931 0.998642 0.997518 0.995765 0.993211 0.989704 0.985134 0.979441 0.972624 0.964722 0.955817 0.946008 0.935408 0.924135 0.912295 0.900002 0.887333 0.874386 0.861218 0.8479 0.834483 0.821001 0.807513 0.794018 0.780584 0.76719 0.753895 0.740684 0.727593 0.714616 0.701789 0.689074 0.67655 0.664147 0.65191 0.639891 0.627969 0.616269 0.604788 0.59344 0.58227 0.571393 0.5607 0.550139 0.539853 0.5299 0.520153 0.510579 0.501336 0.492548 0.484099 0.47592 0.468156 0.460958 0.454403 0.448528 0.443173 0.438189 0.434186 0.431502 0.429169 0.426942 0.425526 0.424752 0.42423 0.424023 0.423938 0.423617 0.423332 0.423289 0.423424 0.423682 0.423701 0.423324 0.422883 0.422842 0.423073 0.42328 0.423133 0.422216 0.421674 0.421685 0.422118 0.422249 0.421405 0.418927 0.417771 0.417935 0.420489 0.422452 0.42207 0.39403 0.345426 0.301038 0.274115 0.264291 0.263365 0.26353 0.264209 0.26488 0.265281 0.265431 0.265479 0.265585 0.265808 0.26606 0.266226 0.266281 0.26627 0.266137 0.265989 0.265915 0.265908 0.26593 0.26598 0.266022 0.266028 0.266045 0.266045 0.26606 0.266056 0.266123 0.265929 0.264568 0.247447 0.204958 0.143572 0.127899 0.125438 0.125066 0.12501 0.125002 0.125 0.125 0.125 0.125 0.125 0.125 0.125 0.125 0.125 0.125 0.125 0.125 0.125 0.125 0.125 0.125 0.125 0.125 0.125 0.125 0.125 0.125 0.125 0.125 0.125 1 1 1 1 1 1 1 1 1 1 1 1 1 1 1 1 1 1 1 1 1 1 1 1 1 1 1 1 1 1 1 1 1 1 1 1 0.999999 0.999997 0.999992 0.999978 0.999944 0.99986 0.999677 0.99931 0.998642 0.997518 0.995765 0.993211 0.989704 0.985134 0.979441 0.972624 0.964722 0.955817 0.946008 0.935408 0.924135 0.912295 0.900002 0.887333 0.874386 0.861218 0.8479 0.834483 0.821001 0.807513 0.794018 0.780584 0.76719 0.753895 0.740684 0.727593 0.714616 0.701789 0.689074 0.67655 0.664147 0.65191 0.639891 0.627969 0.616269 0.604788 0.59344 0.58227 0.571393 0.5607 0.550139 0.539853 0.5299 0.520153 0.510579 0.501336 0.492548 0.484099 0.47592 0.468156 0.460958 0.454403 0.448528 0.443173 0.438189 0.434186 0.431502 0.429169 0.426942 0.425526 0.424752 0.42423 0.424023 0.423938 0.423617 0.423332 0.423289 0.423424 0.423682 0.423701 0.423324 0.422883 0.422842 0.423073 0.42328 0.423133 0.422216 0.421674 0.421685 0.422118 0.422249 0.421405 0.418927 0.417771 0.417935 0.420489 0.422452 0.42207 0.39403 0.345426 0.301038 0.274115 0.264291 0.263365 0.26353 0.264209 0.26488 0.265281 0.265431 0.265479 0.265585 0.265808 0.26606 0.266226 0.266281 0.26627 0.266137 0.265989 0.265915 0.265908 0.26593 0.26598 0.266022 0.266028 0.266045 0.266045 0.26606 0.266056 0.266123 0.265929 0.264568 0.247447 0.204958 0.143572 0.127899 0.125438 0.125066 0.12501 0.125002 0.125 0.125 0.125 0.125 0.125 0.125 0.125 0.125 0.125 0.125 0.125 0.125 0.125 0.125 0.125 0.125 0.125 0.125 0.125 0.125 0.125 0.125 0.125 0.125 0.125
				</DataArray>
				<DataArray Name="Energy" type="Float32" format="ascii">
 2.5 2.5 2.5 2.5 2.5 2.5 2.5 2.5 2.5 2.5 2.5 2.5 2.5 2.5 2.5 2.5 2.5 2.5 2.5 2.5 2.5 2.5 2.5 2.5 2.5 2.5 2.5 2.5 2.5 2.5 2.5 2.5 2.5 2.5 2.5 2.5 2.5 2.5 2.49999 2.49998 2.49994 2.49986 2.49968 2.49931 2.49864 2.49752 2.49576 2.4932 2.48968 2.48509 2.47936 2.47247 2.46445 2.45537 2.44532 2.4344 2.4227 2.41033 2.3974 2.38396 2.37011 2.35591 2.34141 2.32667 2.31172 2.29663 2.28137 2.26604 2.2506 2.23511 2.21957 2.20398 2.18843 2.17277 2.15729 2.1416 2.12616 2.11065 2.09512 2.07981 2.0645 2.04911 2.03402 2.01908 2.00395 1.98902 1.97456 1.96009 1.94548 1.93127 1.91769 1.90427 1.89071 1.87761 1.86547 1.85401 1.84296 1.83231 1.82223 1.81379 1.8078 1.80198 1.79509 1.79068 1.78952 1.78818 1.78647 1.78561 1.78482 1.78438 1.78545 1.78676 1.78722 1.78701 1.78619 1.78636 1.78825 1.79031 1.79066 1.78983 1.78906 1.78975 1.79364 1.79593 1.79589 1.79407 1.79357 1.79724 1.80797 1.81308 1.81247 1.80154 1.7932 1.7948 1.92244 2.1928 2.51598 2.76296 2.86557 2.8756 2.87383 2.86649 2.85934 2.85517 2.85373 2.85338 2.85241 2.85015 2.84755 2.84579 2.84517 2.8452 2.8465 2.84793 2.84855 2.84851 2.84819 2.84762 2.8472 2.84708 2.84703 2.84704 2.8471 2.84716 2.84773 2.84688 2.84044 2.75679 2.53046 2.12945 2.01862 2.00281 2.00042 2.00006 2.00001 2 2 2 2 2 2 2 2 2 2 2 2 2 2 2 2 2 2 2 2 2 2 2 2 2 2.5 2.5 2.5 2.5 2.5 2.5 2.5 2.5 2.5 2.5 2.5 2.5 2.5 2.5 2.5 2.5 2.5 2.5 2.5 2.5 2.5 2.5 2.5 2.5 2.5 2.5 2.5 2.5 2.5 2.5 2.5 2.5 2.5 2.5 2.5 2.5 2.5 2.5 2.49999 2.49998 2.49994 2.49986 2.49968 2.49931 2.49864 2.49752 2.49576 2.4932 2.48968 2.48509 2.47936 2.47247 2.46445 2.45537 2.44532 2.4344 2.4227 2.41033 2.3974 2.38396 2.37011 2.35591 2.34141 2.32667 2.31172 2.29663 2.28137 2.26604 2.2506 2.23511 2.21957 2.20398 2.18843 2.17277 2.15729 2.1416 2.12616 2.11065 2.09512 2.07981 2.0645 2.04911 2.03402 2.01908 2.00395 1.98902 1.97456 1.96009 1.94548 1.93127 1.91769 1.90427 1.89071 1.87761 1.86547 1.85401 1.84296 1.83231 1.82223 1.81379 1.8078 1.80198 1.79509 1.79068 1.78952 1.78818 1.78647 1.78561 1.78482 1.78438 1.78545 1.78676 1.78722 1.78701 1.78619 1.78636 1.78825 1.79031 1.79066 1.78983 1.78906 1.78975 1.79364 1.79593 1.79589 1.79407 1.79357 1.79724 1.80797 1.81308 1.81247 1.80154 1.7932 1.7948 1.92244 2.1928 2.51598 2.76296 2.86557 2.8756 2.87383 2.86649 2.85934 2.85517 2.85373 2.85338 2.85241 2.85015 2.84755 2.84579 2.84517 2.8452 2.8465 2.84793 2.84855 2.84851 2.84819 2.84762 2.8472 2.84708 2.84703 2.84704 2.8471 2.84716 2.84773 2.84688 2.84044 2.75679 2.53046 2.12945 2.01862 2.00281 2.00042 2.00006 2.00001 2 2 2 2 2 2 2 2 2 2 2 2 2 2 2 2 2 2 2 2 2 2 2 2 2 2.5 2.5 2.5 2.5 2.5 2.5 2.5 2.5 2.5 2.5 2.5 2.5 2.5 2.5 2.5 2.5 2.5 2.5 2.5 2.5 2.5 2.5 2.5 2.5 2.5 2.5 2.5 2.5 2.5 2.5 2.5 2.5 2.5 2.5 2.5 2.5 2.5 2.5 2.49999 2.49998 2.49994 2.49986 2.49968 2.49931 2.49864 2.49752 2.49576 2.4932 2.48968 2.48509 2.47936 2.47247 2.46445 2.45537 2.44532 2.4344 2.4227 2.41033 2.3974 2.38396 2.37011 2.35591 2.34141 2.32667 2.31172 2.29663 2.28137 2.26604 2.2506 2.23511 2.21957 2.20398 2.18843 2.17277 2.15729 2.1416 2.12616 2.11065 2.09512 2.07981 2.0645 2.04911 2.03402 2.01908 2.00395 1.98902 1.97456 1.96009 1.94548 1.93127 1.91769 1.90427 1.89071 1.87761 1.86547 1.85401 1.84296 1.83231 1.82223 1.81379 1.8078 1.80198 1.79509 1.79068 1.78952 1.78818 1.78647 1.78561 1.78482 1.78438 1.78545 1.78676 1.78722 1.78701 1.78619 1.78636 1.78825 1.79031 1.79066 1.78983 1.78906 1.78975 1.79364 1.79593 1.79589 1.79407 1.79357 1.79724 1.80797 1.81308 1.81247 1.80154 1.7932 1.7948 1.92244 2.1928 2.51598 2.76296 2.86557 2.8756 2.87383 2.86649 2.85934 2.85517 2.85373 2.85338 2.85241 2.85015 2.84755 2.84579 2.84517 2.8452 2.8465 2.84793 2.84855 2.84851 2.84819 2.84762 2.8472 2.84708 2.84703 2.84704 2.8471 2.84716 2.84773 2.84688 2.84044 2.75679 2.53046 2.12945 2.01862 2.00281 2.00042 2.00006 2.00001 2 2 2 2 2 2 2 2 2 2 2 2 2 2 2 2 2 2 2 2 2 2 2 2 2 2.5 2.5 2.5 2.5 2.5 2.5 2.5 2.5 2.5 2.5 2.5 2.5 2.5 2.5 2.5 2.5 2.5 2.5 2.5 2.5 2.5 2.5 2.5 2.5 2.5 2.5 2.5 2.5 2.5 2.5 2.5 2.5 2.5 2.5 2.5 2.5 2.5 2.5 2.49999 2.49998 2.49994 2.49986 2.49968 2.49931 2.49864 2.49752 2.49576 2.4932 2.48968 2.48509 2.47936 2.47247 2.46445 2.45537 2.44532 2.4344 2.4227 2.41033 2.3974 2.38396 2.37011 2.35591 2.34141 2.32667 2.31172 2.29663 2.28137 2.26604 2.2506 2.23511 2.21957 2.20398 2.18843 2.17277 2.15729 2.1416 2.12616 2.11065 2.09512 2.07981 2.0645 2.04911 2.03402 2.01908 2.00395 1.98902 1.97456 1.96009 1.94548 1.93127 1.91769 1.90427 1.89071 1.87761 1.86547 1.85401 1.84296 1.83231 1.82223 1.81379 1.8078 1.80198 1.79509 1.79068 1.78952 1.78818 1.78647 1.78561 1.78482 1.78438 1.78545 1.78676 1.78722 1.78701 1.78619 1.78636 1.78825 1.79031 1.79066 1.78983 1.78906 1.78975 1.79364 1.79593 1.79589 1.79407 1.79357 1.79724 1.80797 1.81308 1.81247 1.80154 1.7932 1.7948 1.92244 2.1928 2.51598 2.76296 2.86557 2.8756 2.87383 2.86649 2.85934 2.85517 2.85373 2.85338 2.85241 2.85015 2.84755 2.84579 2.84517 2.8452 2.8465 2.84793 2.84855 2.84851 2.84819 2.84762 2.8472 2.84708 2.84703 2.84704 2.8471 2.84716 2.84773 2.84688 2.84044 2.75679 2.53046 2.12945 2.01862 2.00281 2.00042 2.00006 2.00001 2 2 2 2 2 2 2 2 2 2 2 2 2 2 2 2 2 2 2 2 2 2 2 2 2 2.5 2.5 2.5 2.5 2.5 2.5 2.5 2.5 2.5 2.5 2.5 2.5 2.5 2.5 2.5 2.5 2.5 2.5 2.5 2.5 2.5 2.5 2.5 2.5 2.5 2.5 2.5 2.5 2.5 2.5 2.5 2.5 2.5 2.5 2.5 2.5 2.5 2.5 2.49999 2.49998 2.49994 2.49986 2.49968 2.49931 2.49864 2.49752 2.49576 2.4932 2.48968 2.48509 2.47936 2.47247 2.46445 2.45537 2.44532 2.4344 2.4227 2.41033 2.3974 2.38396 2.37011 2.35591 2.34141 2.32667 2.31172 2.29663 2.28137 2.26604 2.2506 2.23511 2.21957 2.20398 2.18843 2.17277 2.15729 2.1416 2.12616 2.11065 2.09512 2.07981 2.0645 2.04911 2.03402 2.01908 2.00395 1.98902 1.97456 1.96009 1.94548 1.93127 1.91769 1.90427 1.89071 1.87761 1.86547 1.85401 1.84296 1.83231 1.82223 1.81379 1.8078 1.80198 1.79509 1.79068 1.78952 1.78818 1.78647 1.78561 1.78482 1.78438 1.78545 1.78676 1.78722 1.78701 1.78619 1.78636 1.78825 1.79031 1.79066 1.78983 1.78906 1.78975 1.79364 1.79593 1.79589 1.79407 1.79357 1.79724 1.80797 1.81308 1.81247 1.80154 1.7932 1.7948 1.92244 2.1928 2.51598 2.76296 2.86557 2.8756 2.87383 2.86649 2.85934 2.85517 2.85373 2.85338 2.85241 2.85015 2.84755 2.84579 2.84517 2.8452 2.8465 2.84793 2.84855 2.84851 2.84819 2.84762 2.8472 2.84708 2.84703 2.84704 2.8471 2.84716 2.84773 2.84688 2.84044 2.75679 2.53046 2.12945 2.01862 2.00281 2.00042 2.00006 2.00001 2 2 2 2 2 2 2 2 2 2 2 2 2 2 2 2 2 2 2 2 2 2 2 2 2
				</DataArray>
				<DataArray Name="F1" type="Float32" format="ascii">
 1 1 1 1 1 1 1 1 1 1 1 1 1 1 1 1 1 1 1 1 1 1 1 1 1 1 1 1 1 1 1 1 1 1 1 1 1 1 1 1 1 1 1 1 1 1 1 1 1 1 1 1 1 1 1 1 1 1 1 1 1 1 1 1 1 1 1 1 1 1 1 1 1 1 1 1 1 1 1 1 1 1 1 1 1 1 1 1 1 1 1 1 1 1 1 1 1 1 1 1 1 1 1 1 1 1 1 1 1 1 1 1 1 1 1 1 1 1 1 1 1 1 1 1 1 1 1 1 1 1 1 1 1 1 1 1 1 1 1 1 1 1 1 1 1 1 1 1 1 1 1 1 1 1 1 1 1 1 1 1 1 1 1 1 1 1 1 1 1 1 1 1 1 1 1 1 1 1 1 1 1 1 1 1 1 1 1 1 1 1 1 1 1 1 1 1 1 1 1 1 1 1 1 1 1 1 1 1 1 1 1 1 1 1 1 1 1 1 1 1 1 1 1 1 1 1 1 1 1 1 1 1 1 1 1 1 1 1 1 1 1 1 1 1 1 1 1 1 1 1 1 1 1 1 1 1 1 1 1 1 1 1 1 1 1 1 1 1 1 1 1 1 1 1 1 1 1 1 1 1 1 1 1 1 1 1 1 1 1 1 1 1 1 1 1 1 1 1 1 1 1 1 1 1 1 1 1 1 1 1 1 1 1 1 1 1 1 1 1 1 1 1 1 1 1 1 1 1 1 1 1 1 1 1 1 1 1 1 1 1 1 1 1 1 1 1 1 1 1 1 1 1 1 1 1 1 1 1 1 1 1 1 1 1 1 1 1 1 1 1 1 1 1 1 1 1 1 1 1 1 1 1 1 1 1 1 1 1 1 1 1 1 1 1 1 1 1 1 1 1 1 1 1 1 1 1 1 1 1 1 1 1 1 1 1 1 1 1 1 1 1 1 1 1 1 1 1 1 1 1 1 1 1 1 1 1 1 1 1 1 1 1 1 1 1 1 1 1 1 1 1 1 1 1 1 1 1 1 1 1 1 1 1 1 1 1 1 1 1 1 1 1 1 1 1 1 1 1 1 1 1 1 1 1 1 1 1 1 1 1 1 1 1 1 1 1 1 1 1 1 1 1 1 1 1 1 1 1 1 1 1 1 1 1 1 1 1 1 1 1 1 1 1 1 1 1 1 1 1 1 1 1 1 1 1 1 1 1 1 1 1 1 1 1 1 1 1 1 1 1 1 1 1 1 1 1 1 1 1 1 1 1 1 1 1 1 1 1 1 1 1 1 1 1 1 1 1 1 1 1 1 1 1 1 1 1 1 1 1 1 1 1 1 1 1 1 1 1 1 1 1 1 1 1 1 1 1 1 1 1 1 1 1 1 1 1 1 1 1 1 1 1 1 1 1 1 1 1 1 1 1 1 1 1 1 1 1 1 1 1 1 1 1 1 1 1 1 1 1 1 1 1 1 1 1 1 1 1 1 1 1 1 1 1 1 1 1 1 1 1 1 1 1 1 1 1 1 1 1 1 1 1 1 1 1 1 1 1 1 1 1 1 1 1 1 1 1 1 1 1 1 1 1 1 1 1 1 1 1 1 1 1 1 1 1 1 1 1 1 1 1 1 1 1 1 1 1 1 1 1 1 1 1 1 1 1 1 1 1 1 1 1 1 1 1 1 1 1 1 1 1 1 1 1 1 1 1 1 1 1 1 1 1 1 1 1 1 1 1 1 1 1 1 1 1 1 1 1 1 1 1 1 1 1 1 1 1 1 1 1 1 1 1 1 1 1 1 1 1 1 1 1 1 1 1 1 1 1 1 1 1 1 1 1 1 1 1 1 1 1 1 1 1 1 1 1 1 1 1 1 1 1 1 1 1 1 1 1 1 1 1 1 1 1 1 1 1 1 1 1 1 1 1 1 1 1 1 1 1 1 1 1 1 1 1 1 1 1 1 1 1 1 1 1 1 1 1 1 1 1 1 1 1 1 1 1 1 1 1 1 1 1 1 1 1 1 1 1 1 1 1 1 1 1 1 1 1 1 1 1 1 1 1 1 1 1 1 1 1 1 1 1 1 1 1 1 1 1 1 1 1 1 1 1 1 1 1 1 1 1 1 1 1 1 1 1 1 1 1 1 1 1 1 1 1 1 1 1 1 1 1 1 1 1 1 1 1 1 1 1 1 1 1 1 1 1 1 1 1 1 1 1 1 1 1 1 1 1 1 1 1 1 1 1 1 1 1 1 1 1
				</DataArray>
				<DataArray Name="F2" type="Float32" format="ascii">
 0 0 0 0 0 0 0 0 0 0 0 0 0 0 0 0 0 0 0 0 0 0 0 0 0 0 0 0 0 0 0 0 0 0 0 0 0 0 0 0 0 0 0 0 0 0 0 0 0 0 0 0 0 0 0 0 0 0 0 0 0 0 0 0 0 0 0 0 0 0 0 0 0 0 0 0 0 0 0 0 0 0 0 0 0 0 0 0 0 0 0 0 0 0 0 0 0 0 0 0 0 0 0 0 0 0 0 0 0 0 0 0 0 0 0 0 0 0 0 0 0 0 0 0 0 0 0 0 0 0 0 0 0 0 0 0 0 0 0 0 0 0 0 0 0 0 0 0 0 0 0 0 0 0 0 0 0 0 0 0 0 0 0 0 0 0 0 0 0 0 0 0 0 0 0 0 0 0 0 0 0 0 0 0 0 0 0 0 0 0 0 0 0 0 0 0 0 0 0 0 0 0 0 0 0 0 0 0 0 0 0 0 0 0 0 0 0 0 0 0 0 0 0 0 0 0 0 0 0 0 0 0 0 0 0 0 0 0 0 0 0 0 0 0 0 0 0 0 0 0 0 0 0 0 0 0 0 0 0 0 0 0 0 0 0 0 0 0 0 0 0 0 0 0 0 0 0 0 0 0 0 0 0 0 0 0 0 0 0 0 0 0 0 0 0 0 0 0 0 0 0 0 0 0 0 0 0 0 0 0 0 0 0 0 0 0 0 0 0 0 0 0 0 0 0 0 0 0 0 0 0 0 0 0 0 0 0 0 0 0 0 0 0 0 0 0 0 0 0 0 0 0 0 0 0 0 0 0 0 0 0 0 0 0 0 0 0 0 0 0 0 0 0 0 0 0 0 0 0 0 0 0 0 0 0 0 0 0 0 0 0 0 0 0 0 0 0 0 0 0 0 0 0 0 0 0 0 0 0 0 0 0 0 0 0 0 0 0 0 0 0 0 0 0 0 0 0 0 0 0 0 0 0 0 0 0 0 0 0 0 0 0 0 0 0 0 0 0 0 0 0 0 0 0 0 0 0 0 0 0 0 0 0 0 0 0 0 0 0 0 0 0 0 0 0 0 0 0 0 0 0 0 0 0 0 0 0 0 0 0 0 0 0 0 0 0 0 0 0 0 0 0 0 0 0 0 0 0 0 0 0 0 0 0 0 0 0 0 0 0 0 0 0 0 0 0 0 0 0 0 0 0 0 0 0 0 0 0 0 0 0 0 0 0 0 0 0 0 0 0 0 0 0 0 0 0 0 0 0 0 0 0 0 0 0 0 0 0 0 0 0 0 0 0 0 0 0 0 0 0 0 0 0 0 0 0 0 0 0 0 0 0 0 0 0 0 0 0 0 0 0 0 0 0 0 0 0 0 0 0 0 0 0 0 0 0 0 0 0 0 0 0 0 0 0 0 0 0 0 0 0 0 0 0 0 0 0 0 0 0 0 0 0 0 0 0 0 0 0 0 0 0 0 0 0 0 0 0 0 0 0 0 0 0 0 0 0 0 0 0 0 0 0 0 0 0 0 0 0 0 0 0 0 0 0 0 0 0 0 0 0 0 0 0 0 0 0 0 0 0 0 0 0 0 0 0 0 0 0 0 0 0 0 0 0 0 0 0 0 0 0 0 0 0 0 0 0 0 0 0 0 0 0 0 0 0 0 0 0 0 0 0 0 0 0 0 0 0 0 0 0 0 0 0 0 0 0 0 0 0 0 0 0 0 0 0 0 0 0 0 0 0 0 0 0 0 0 0 0 0 0 0 0 0 0 0 0 0 0 0 0 0 0 0 0 0 0 0 0 0 0 0 0 0 0 0 0 0 0 0 0 0 0 0 0 0 0 0 0 0 0 0 0 0 0 0 0 0 0 0 0 0 0 0 0 0 0 0 0 0 0 0 0 0 0 0 0 0 0 0 0 0 0 0 0 0 0 0 0 0 0 0 0 0 0 0 0 0 0 0 0 0 0 0 0 0 0 0 0 0 0 0 0 0 0 0 0 0 0 0 0 0 0 0 0 0 0 0 0 0 0 0 0 0 0 0 0 0 0 0 0 0 0 0 0 0 0 0 0 0 0 0 0 0 0 0 0 0 0 0 0 0 0 0 0 0 0 0 0 0 0 0 0 0 0 0 0 0 0 0 0 0 0 0 0 0 0 0 0 0 0 0 0 0 0 0 0 0 0 0 0 0 0 0 0 0 0 0 0 0 0 0 0 0 0 0 0 0 0 0 0 0 0 0 0 0 0 0 0 0
				</DataArray>
				<DataArray Name="F3" type="Float32" format="ascii">