<?xml version="1.0"?>
<VTKFile type="PolyData">
	<PolyData>
		<Piece NumberOfPoints="1206" NumberOfPolys="1000">
			<Points>
				<DataArray type="Float32" NumberOfComponents="3" format="ascii">
 0 0 0 0.02 0 0 0.04 0 0 0.06 0 0 0.08 0 0 0.1 0 0 0 0.005 0 0.02 0.005 0 0.04 0.005 0 0.06 0.005 0 0.08 0.005 0 0.1 0.005 0 0 0.01 0 0.02 0.01 0 0.04 0.01 0 0.06 0.01 0 0.08 0.01 0 0.1 0.01 0 0 0.015 0 0.02 0.015 0 0.04 0.015 0 0.06 0.015 0 0.08 0.015 0 0.1 0.015 0 0 0.02 0 0.02 0.02 0 0.04 0.02 0 0.06 0.02 0 0.08 0.02 0 0.1 0.02 0 0 0.025 0 0.02 0.025 0 0.04 0.025 0 0.06 0.025 0 0.08 0.025 0 0.1 0.025 0 0 0.03 0 0.02 0.03 0 0.04 0.03 0 0.06 0.03 0 0.08 0.03 0 0.1 0.03 0 0 0.035 0 0.02 0.035 0 0.04 0.035 0 0.06 0.035 0 0.08 0.035 0 0.1 0.035 0 0 0.04 0 0.02 0.04 0 0.04 0.04 0 0.06 0.04 0 0.08 0.04 0 0.1 0.04 0 0 0.045 0 0.02 0.045 0 0.04 0.045 0 0.06 0.045 0 0.08 0.045 0 0.1 0.045 0 0 0.05 0 0.02 0.05 0 0.04 0.05 0 0.06 0.05 0 0.08 0.05 0 0.1 0.05 0 0 0.055 0 0.02 0.055 0 0.04 0.055 0 0.06 0.055 0 0.08 0.055 0 0.1 0.055 0 0 0.06 0 0.02 0.06 0 0.04 0.06 0 0.06 0.06 0 0.08 0.06 0 0.1 0.06 0 0 0.065 0 0.02 0.065 0 0.04 0.065 0 0.06 0.065 0 0.08 0.065 0 0.1 0.065 0 0 0.07 0 0.02 0.07 0 0.04 0.07 0 0.06 0.07 0 0.08 0.07 0 0.1 0.07 0 0 0.075 0 0.02 0.075 0 0.04 0.075 0 0.06 0.075 0 0.08 0.075 0 0.1 0.075 0 0 0.08 0 0.02 0.08 0 0.04 0.08 0 0.06 0.08 0 0.08 0.08 0 0.1 0.08 0 0 0.085 0 0.02 0.085 0 0.04 0.085 0 0.06 0.085 0 0.08 0.085 0 0.1 0.085 0 0 0.09 0 0.02 0.09 0 0.04 0.09 0 0.06 0.09 0 0.08 0.09 0 0.1 0.09 0 0 0.095 0 0.02 0.095 0 0.04 0.095 0 0.06 0.095 0 0.08 0.095 0 0.1 0.095 0 0 0.1 0 0.02 0.1 0 0.04 0.1 0 0.06 0.1 0 0.08 0.1 0 0.1 0.1 0 0 0.105 0 0.02 0.105 0 0.04 0.105 0 0.06 0.105 0 0.08 0.105 0 0.1 0.105 0 0 0.11 0 0.02 0.11 0 0.04 0.11 0 0.06 0.11 0 0.08 0.11 0 0.1 0.11 0 0 0.115 0 0.02 0.115 0 0.04 0.115 0 0.06 0.115 0 0.08 0.115 0 0.1 0.115 0 0 0.12 0 0.02 0.12 0 0.04 0.12 0 0.06 0.12 0 0.08 0.12 0 0.1 0.12 0 0 0.125 0 0.02 0.125 0 0.04 0.125 0 0.06 0.125 0 0.08 0.125 0 0.1 0.125 0 0 0.13 0 0.02 0.13 0 0.04 0.13 0 0.06 0.13 0 0.08 0.13 0 0.1 0.13 0 0 0.135 0 0.02 0.135 0 0.04 0.135 0 0.06 0.135 0 0.08 0.135 0 0.1 0.135 0 0 0.14 0 0.02 0.14 0 0.04 0.14 0 0.06 0.14 0 0.08 0.14 0 0.1 0.14 0 0 0.145 0 0.02 0.145 0 0.04 0.145 0 0.06 0.145 0 0.08 0.145 0 0.1 0.145 0 0 0.15 0 0.02 0.15 0 0.04 0.15 0 0.06 0.15 0 0.08 0.15 0 0.1 0.15 0 0 0.155 0 0.02 0.155 0 0.04 0.155 0 0.06 0.155 0 0.08 0.155 0 0.1 0.155 0 0 0.16 0 0.02 0.16 0 0.04 0.16 0 0.06 0.16 0 0.08 0.16 0 0.1 0.16 0 0 0.165 0 0.02 0.165 0 0.04 0.165 0 0.06 0.165 0 0.08 0.165 0 0.1 0.165 0 0 0.17 0 0.02 0.17 0 0.04 0.17 0 0.06 0.17 0 0.08 0.17 0 0.1 0.17 0 0 0.175 0 0.02 0.175 0 0.04 0.175 0 0.06 0.175 0 0.08 0.175 0 0.1 0.175 0 0 0.18 0 0.02 0.18 0 0.04 0.18 0 0.06 0.18 0 0.08 0.18 0 0.1 0.18 0 0 0.185 0 0.02 0.185 0 0.04 0.185 0 0.06 0.185 0 0.08 0.185 0 0.1 0.185 0 0 0.19 0 0.02 0.19 0 0.04 0.19 0 0.06 0.19 0 0.08 0.19 0 0.1 0.19 0 0 0.195 0 0.02 0.195 0 0.04 0.195 0 0.06 0.195 0 0.08 0.195 0 0.1 0.195 0 0 0.2 0 0.02 0.2 0 0.04 0.2 0 0.06 0.2 0 0.08 0.2 0 0.1 0.2 0 0 0.205 0 0.02 0.205 0 0.04 0.205 0 0.06 0.205 0 0.08 0.205 0 0.1 0.205 0 0 0.21 0 0.02 0.21 0 0.04 0.21 0 0.06 0.21 0 0.08 0.21 0 0.1 0.21 0 0 0.215 0 0.02 0.215 0 0.04 0.215 0 0.06 0.215 0 0.08 0.215 0 0.1 0.215 0 0 0.22 0 0.02 0.22 0 0.04 0.22 0 0.06 0.22 0 0.08 0.22 0 0.1 0.22 0 0 0.225 0 0.02 0.225 0 0.04 0.225 0 0.06 0.225 0 0.08 0.225 0 0.1 0.225 0 0 0.23 0 0.02 0.23 0 0.04 0.23 0 0.06 0.23 0 0.08 0.23 0 0.1 0.23 0 0 0.235 0 0.02 0.235 0 0.04 0.235 0 0.06 0.235 0 0.08 0.235 0 0.1 0.235 0 0 0.24 0 0.02 0.24 0 0.04 0.24 0 0.06 0.24 0 0.08 0.24 0 0.1 0.24 0 0 0.245 0 0.02 0.245 0 0.04 0.245 0 0.06 0.245 0 0.08 0.245 0 0.1 0.245 0 0 0.25 0 0.02 0.25 0 0.04 0.25 0 0.06 0.25 0 0.08 0.25 0 0.1 0.25 0 0 0.255 0 0.02 0.255 0 0.04 0.255 0 0.06 0.255 0 0.08 0.255 0 0.1 0.255 0 0 0.26 0 0.02 0.26 0 0.04 0.26 0 0.06 0.26 0 0.08 0.26 0 0.1 0.26 0 0 0.265 0 0.02 0.265 0 0.04 0.265 0 0.06 0.265 0 0.08 0.265 0 0.1 0.265 0 0 0.27 0 0.02 0.27 0 0.04 0.27 0 0.06 0.27 0 0.08 0.27 0 0.1 0.27 0 0 0.275001 0 0.02 0.275001 0 0.04 0.275001 0 0.06 0.275001 0 0.08 0.275001 0 0.1 0.275001 0 0 0.280003 0 0.02 0.280003 0 0.04 0.280003 0 0.06 0.280003 0 0.08 0.280003 0 0.1 0.280003 0 0 0.285008 0 0.02 0.285008 0 0.04 0.285008 0 0.06 0.285008 0 0.08 0.285008 0 0.1 0.285008 0 0 0.290022 0 0.02 0.290022 0 0.04 0.290022 0 0.06 0.290022 0 0.08 0.290022 0 0.1 0.290022 0 0 0.295051 0 0.02 0.295051 0 0.04 0.295051 0 0.06 0.295051 0 0.08 0.295051 0 0.1 0.295051 0 0 0.30011 0 0.02 0.30011 0 0.04 0.30011 0 0.06 0.30011 0 0.08 0.30011 0 0.1 0.30011 0 0 0.305216 0 0.02 0.305216 0 0.04 0.305216 0 0.06 0.305216 0 0.08 0.305216 0 0.1 0.305216 0 0 0.310388 0 0.02 0.310388 0 0.04 0.310388 0 0.06 0.310388 0 0.08 0.310388 0 0.1 0.310388 0 0 0.315642 0 0.02 0.315642 0 0.04 0.315642 0 0.06 0.315642 0 0.08 0.315642 0 0.1 0.315642 0 0 0.320995 0 0.02 0.320995 0 0.04 0.320995 0 0.06 0.320995 0 0.08 0.320995 0 0.1 0.320995 0 0 0.326459 0 0.02 0.326459 0 0.04 0.326459 0 0.06 0.326459 0 0.08 0.326459 0 0.1 0.326459 0 0 0.332042 0 0.02 0.332042 0 0.04 0.332042 0 0.06 0.332042 0 0.08 0.332042 0 0.1 0.332042 0 0 0.337756 0 0.02 0.337756 0 0.04 0.337756 0 0.06 0.337756 0 0.08 0.337756 0 0.1 0.337756 0 0 0.343608 0 0.02 0.343608 0 0.04 0.343608 0 0.06 0.343608 0 0.08 0.343608 0 0.1 0.343608 0 0 0.349607 0 0.02 0.349607 0 0.04 0.349607 0 0.06 0.349607 0 0.08 0.349607 0 0.1 0.349607 0 0 0.355764 0 0.02 0.355764 0 0.04 0.355764 0 0.06 0.355764 0 0.08 0.355764 0 0.1 0.355764 0 0 0.362088 0 0.02 0.362088 0 0.04 0.362088 0 0.06 0.362088 0 0.08 0.362088 0 0.1 0.362088 0 0 0.368591 0 0.02 0.368591 0 0.04 0.368591 0 0.06 0.368591 0 0.08 0.368591 0 0.1 0.368591 0 0 0.375284 0 0.02 0.375284 0 0.04 0.375284 0 0.06 0.375284 0 0.08 0.375284 0 0.1 0.375284 0 0 0.38218 0 0.02 0.38218 0 0.04 0.38218 0 0.06 0.38218 0 0.08 0.38218 0 0.1 0.38218 0 0 0.389294 0 0.02 0.389294 0 0.04 0.389294 0 0.06 0.389294 0 0.08 0.389294 0 0.1 0.389294 0 0 0.396641 0 0.02 0.396641 0 0.04 0.396641 0 0.06 0.396641 0 0.08 0.396641 0 0.1 0.396641 0 0 0.40424 0 0.02 0.40424 0 0.04 0.40424 0 0.06 0.40424 0 0.08 0.40424 0 0.1 0.40424 0 0 0.41211 0 0.02 0.41211 0 0.04 0.41211 0 0.06 0.41211 0 0.08 0.41211 0 0.1 0.41211 0 0 0.420273 0 0.02 0.420273 0 0.04 0.420273 0 0.06 0.420273 0 0.08 0.420273 0 0.1 0.420273 0 0 0.428753 0 0.02 0.428753 0 0.04 0.428753 0 0.06 0.428753 0 0.08 0.428753 0 0.1 0.428753 0 0 0.437578 0 0.02 0.437578 0 0.04 0.437578 0 0.06 0.437578 0 0.08 0.437578 0 0.1 0.437578 0 0 0.446779 0 0.02 0.446779 0 0.04 0.446779 0 0.06 0.446779 0 0.08 0.446779 0 0.1 0.446779 0 0 0.45639 0 0.02 0.45639 0 0.04 0.45639 0 0.06 0.45639 0 0.08 0.45639 0 0.1 0.45639 0 0 0.466448 0 0.02 0.466448 0 0.04 0.466448 0 0.06 0.466448 0 0.08 0.466448 0 0.1 0.466448 0 0 0.476993 0 0.02 0.476993 0 0.04 0.476993 0 0.06 0.476993 0 0.08 0.476993 0 0.1 0.476993 0 0 0.488062 0 0.02 0.488062 0 0.04 0.488062 0 0.06 0.488062 0 0.08 0.488062 0 0.1 0.488062 0 0 0.49967 0 0.02 0.49967 0 0.04 0.49967 0 0.06 0.49967 0 0.08 0.49967 0 0.1 0.49967 0 0 0.511768 0 0.02 0.511768 0 0.04 0.511768 0 0.06 0.511768 0 0.08 0.511768 0 0.1 0.511768 0 0 0.524109 0 0.02 0.524109 0 0.04 0.524109 0 0.06 0.524109 0 0.08 0.524109 0 0.1 0.524109 0 0 0.536366 0 0.02 0.536366 0 0.04 0.536366 0 0.06 0.536366 0 0.08 0.536366 0 0.1 0.536366 0 0 0.548503 0 0.02 0.548503 0 0.04 0.548503 0 0.06 0.548503 0 0.08 0.548503 0 0.1 0.548503 0 0 0.560516 0 0.02 0.560516 0 0.04 0.560516 0 0.06 0.560516 0 0.08 0.560516 0 0.1 0.560516 0 0 0.572436 0 0.02 0.572436 0 0.04 0.572436 0 0.06 0.572436 0 0.08 0.572436 0 0.1 0.572436 0 0 0.584298 0 0.02 0.584298 0 0.04 0.584298 0 0.06 0.584298 0 0.08 0.584298 0 0.1 0.584298 0 0 0.596129 0 0.02 0.596129 0 0.04 0.596129 0 0.06 0.596129 0 0.08 0.596129 0 0.1 0.596129 0 0 0.607946 0 0.02 0.607946 0 0.04 0.607946 0 0.06 0.607946 0 0.08 0.607946 0 0.1 0.607946 0 0 0.619757 0 0.02 0.619757 0 0.04 0.619757 0 0.06 0.619757 0 0.08 0.619757 0 0.1 0.619757 0 0 0.631566 0 0.02 0.631566 0 0.04 0.631566 0 0.06 0.631566 0 0.08 0.631566 0 0.1 0.631566 0 0 0.643376 0 0.02 0.643376 0 0.04 0.643376 0 0.06 0.643376 0 0.08 0.643376 0 0.1 0.643376 0 0 0.655186 0 0.02 0.655186 0 0.04 0.655186 0 0.06 0.655186 0 0.08 0.655186 0 0.1 0.655186 0 0 0.657466 0 0.02 0.657466 0 0.04 0.657466 0 0.06 0.657466 0 0.08 0.657466 0 0.1 0.657466 0 0 0.659746 0 0.02 0.659746 0 0.04 0.659746 0 0.06 0.659746 0 0.08 0.659746 0 0.1 0.659746 0 0 0.662026 0 0.02 0.662026 0 0.04 0.662026 0 0.06 0.662026 0 0.08 0.662026 0 0.1 0.662026 0 0 0.664306 0 0.02 0.664306 0 0.04 0.664306 0 0.06 0.664306 0 0.08 0.664306 0 0.1 0.664306 0 0 0.666586 0 0.02 0.666586 0 0.04 0.666586 0 0.06 0.666586 0 0.08 0.666586 0 0.1 0.666586 0 0 0.668866 0 0.02 0.668866 0 0.04 0.668866 0 0.06 0.668866 0 0.08 0.668866 0 0.1 0.668866 0 0 0.671141 0 0.02 0.671141 0 0.04 0.671141 0 0.06 0.671141 0 0.08 0.671141 0 0.1 0.671141 0 0 0.673416 0 0.02 0.673416 0 0.04 0.673416 0 0.06 0.673416 0 0.08 0.673416 0 0.1 0.673416 0 0 0.675697 0 0.02 0.675697 0 0.04 0.675697 0 0.06 0.675697 0 0.08 0.675697 0 0.1 0.675697 0 0 0.677976 0 0.02 0.677976 0 0.04 0.677976 0 0.06 0.677976 0 0.08 0.677976 0 0.1 0.677976 0 0 0.680255 0 0.02 0.680255 0 0.04 0.680255 0 0.06 0.680255 0 0.08 0.680255 0 0.1 0.680255 0 0 0.682533 0 0.02 0.682533 0 0.04 0.682533 0 0.06 0.682533 0 0.08 0.682533 0 0.1 0.682533 0 0 0.684812 0 0.02 0.684812 0 0.04 0.684812 0 0.06 0.684812 0 0.08 0.684812 0 0.1 0.684812 0 0 0.687091 0 0.02 0.687091 0 0.04 0.687091 0 0.06 0.687091 0 0.08 0.687091 0 0.1 0.687091 0 0 0.689369 0 0.02 0.689369 0 0.04 0.689369 0 0.06 0.689369 0 0.08 0.689369 0 0.1 0.689369 0 0 0.691648 0 0.02 0.691648 0 0.04 0.691648 0 0.06 0.691648 0 0.08 0.691648 0 0.1 0.691648 0 0 0.693927 0 0.02 0.693927 0 0.04 0.693927 0 0.06 0.693927 0 0.08 0.693927 0 0.1 0.693927 0 0 0.696206 0 0.02 0.696206 0 0.04 0.696206 0 0.06 0.696206 0 0.08 0.696206 0 0.1 0.696206 0 0 0.698486 0 0.02 0.698486 0 0.04 0.698486 0 0.06 0.698486 0 0.08 0.698486 0 0.1 
[...]
			<PointData Scalars="VitesseX">
				<DataArray Name="VitesseX" type="Float32" format="ascii">
 0 -3.22497e-15 5.95791e-15 9.05256e-16 7.25507e-15 0 0 -2.33064e-15 5.82087e-15 4.21008e-16 7.29556e-15 0 0 -2.44213e-16 4.4437e-15 1.38037e-15 6.08633e-15 0 0 2.28662e-15 2.28861e-15 3.62866e-15 7.12804e-15 0 0 2.18658e-15 3.45268e-15 4.60846e-15 9.3739e-15 0 0 1.84512e-15 4.75253e-15 6.05853e-15 9.60981e-15 0 0 3.42328e-15 4.91788e-15 6.5139e-15 9.67045e-15 0 0 2.96359e-15 6.13988e-15 6.04842e-15 8.43421e-15 0 0 2.13394e-15 5.06925e-15 5.8814e-15 8.25056e-15 0 0 2.51075e-15 2.86537e-15 4.87646e-15 9.24821e-15 0 0 2.38148e-15 3.06482e-15 2.40952e-15 1.12403e-14 0 0 1.28689e-15 5.23577e-15 -1.58482e-15 1.2676e-14 0 0 2.9666e-15 3.2274e-15 -1.71898e-15 8.28095e-15 0 0 6.34302e-15 -3.16562e-15 1.95724e-15 6.19485e-16 0 0 4.13283e-15 -7.33081e-16 -2.00807e-15 -1.90339e-15 0 0 1.5273e-15 3.87436e-15 -6.16362e-15 -1.83274e-15 0 0 1.35266e-16 2.5416e-15 -3.09218e-15 -3.66004e-15 0 0 -2.66584e-15 2.01519e-15 8.76386e-16 -7.1967e-15 0 0 -4.77981e-15 2.82734e-15 3.04228e-15 -7.85101e-15 0 0 -4.53099e-15 2.24847e-15 4.05156e-15 -3.18941e-15 0 0 -3.18318e-15 1.26447e-16 -1.16738e-15 1.37892e-14 0 0 -5.70099e-15 5.1343e-15 -1.22859e-14 3.01403e-14 0 0 -3.01126e-15 4.2348e-15 -5.87914e-15 1.65839e-14 0 0 -1.79285e-15 3.05023e-15 -1.1802e-16 5.93572e-16 0 0 -1.01008e-15 -6.51846e-16 3.06739e-15 -3.63112e-15 0 0 -7.61519e-17 -4.01792e-15 9.20404e-15 -3.62806e-15 0 0 -3.231e-16 -4.50573e-15 4.09607e-15 4.2786e-15 0 0 -7.60139e-16 -4.25462e-15 -1.94355e-15 4.97467e-15 0 0 4.89246e-15 -8.85515e-15 9.44976e-17 1.35979e-15 0 0 9.13557e-15 -1.1555e-14 3.72733e-15 8.00904e-16 0 0 -9.90623e-16 9.52461e-15 -1.00047e-14 5.37528e-15 0 0 -2.80578e-15 1.11633e-14 -6.9251e-15 6.42411e-15 0 0 2.90268e-15 -4.41727e-15 7.10091e-15 -3.0402e-15 0 0 -4.80986e-16 2.00762e-15 -1.79228e-15 -6.25666e-15 0 0 1.15905e-15 3.71995e-15 -3.74034e-15 -7.76991e-15 0 0 9.22693e-15 9.92094e-16 -9.29951e-15 -7.65683e-15 0 0 1.25649e-14 1.50627e-15 -1.36419e-14 -1.01927e-14 0 0 1.21981e-14 -4.83599e-15 -5.59792e-15 -1.11739e-14 0 0 6.61914e-15 5.56949e-17 -1.59602e-14 3.96303e-15 0 0 1.36388e-15 5.37161e-15 -1.44537e-14 7.30073e-16 0 0 -8.27762e-16 -3.07386e-15 1.22318e-14 -1.24373e-14 0 0 4.23742e-16 -1.56433e-15 1.49614e-14 8.38482e-15 0 0 7.73814e-15 -1.26274e-15 -2.00689e-15 2.50127e-14 0 0 1.5513e-14 -4.03136e-15 -1.03779e-14 2.18506e-14 0 0 6.18346e-15 -3.07556e-15 -4.11667e-15 1.60998e-14 0 0 -1.14877e-14 1.32951e-15 5.838e-15 2.86406e-15 0 0 -2.68122e-14 1.73151e-14 -1.55035e-14 7.99297e-16 0 0 -3.51518e-14 3.01541e-14 -3.755e-14 -3.77027e-15 0 0 -3.2301e-14 1.40807e-14 -3.39515e-14 -7.05357e-15 0 0 -3.86451e-14 -1.97189e-14 -2.00708e-14 -5.00539e-15 0 0 -2.68744e-14 -4.77732e-14 -3.1832e-15 -3.54121e-14 0 0 -4.00424e-15 -4.93106e-14 -2.35902e-14 -3.88483e-14 0 0 -2.75767e-14 -2.57431e-14 -5.39718e-14 -1.93028e-14 0 0 -3.30008e-14 -1.14805e-14 -3.63729e-14 -5.08319e-14 0 0 3.72295e-15 -9.65082e-15 -8.57014e-15 -6.46893e-14 0 0 2.02509e-14 -1.2689e-14 -7.69308e-15 -4.63383e-14 0 0 1.06172e-14 -2.88103e-14 -9.24085e-15 -1.80786e-14 0 0 -1.71901e-14 -1.89838e-14 -1.37951e-14 1.66231e-14 0 0 -1.9958e-14 5.48161e-15 -1.66064e-14 2.7739e-15 0 0 -9.16929e-16 3.24437e-14 -3.78921e-14 -7.82778e-15 0 0 -3.79845e-15 3.53573e-14 -5.364e-14 -1.03965e-15 0 0 -5.99568e-15 8.2723e-15 -2.04328e-14 -1.46623e-14 0 0 -6.5744e-15 1.93256e-14 2.16217e-15 -3.2381e-15 0 0 -1.18832e-14 1.99327e-14 -5.44861e-15 2.1958e-14 0 0 -8.02071e-15 -4.6586e-17 -1.64743e-14 -8.78985e-15 0 0 -2.13008e-14 1.26082e-14 -1.65628e-14 -3.3931e-14 0 0 -4.87073e-14 2.56409e-14 -9.91146e-15 1.75566e-14 0 0 -3.251e-14 5.97508e-15 9.50601e-15 4.9887e-14 0 0 6.55453e-15 -1.03363e-14 1.79736e-14 1.21665e-14 0 0 -2.85875e-14 2.95629e-14 -2.68628e-14 1.32143e-14 0 0 -5.46943e-14 5.7134e-14 -4.66409e-14 3.01517e-14 0 0 -2.04835e-14 -6.27323e-15 1.00823e-15 9.13822e-15 0 0 -3.25298e-15 -4.59824e-14 3.99768e-14 -6.19242e-15 0 0 4.33527e-15 -2.72963e-16 8.15104e-15 -1.6987e-14 0 0 -5.30762e-15 3.94109e-14 -1.82924e-14 -4.18366e-15 0 0 -3.18078e-14 2.79977e-14 2.29081e-14 -1.56684e-14 0 0 -4.43783e-14 2.38167e-14 2.28243e-14 -2.26691e-14 0 0 -3.2745e-15 1.07504e-14 -3.28024e-15 -1.20748e-14 0 0 1.28752e-14 -6.59808e-15 6.9877e-15 2.27684e-16 0 0 -5.7744e-15 -3.43139e-15 6.93491e-15 3.71696e-14 0 0 -2.62423e-15 -2.29764e-14 4.22561e-14 9.60301e-15 0 0 -6.25927e-15 -1.29446e-14 3.9128e-14 -1.02396e-14 0 0 -6.98243e-15 -1.48893e-14 -1.34961e-14 3.83625e-14 0 0 4.67836e-15 -3.27454e-14 -1.21648e-14 2.18771e-14 0 0 -5.30029e-16 -2.5245e-14 9.71792e-17 -5.43841e-15 0 0 -2.32613e-14 -1.96274e-14 -4.40017e-14 -1.96018e-14 0 0 -6.27975e-14 -4.91807e-14 -1.15916e-13 -4.70657e-14 0 0 -9.76726e-14 -1.00153e-13 -1.33577e-13 -7.0122e-14 0 0 6.38464e-14 5.80868e-14 7.5511e-14 3.38876e-14 0 0 6.41607e-13 1.02451e-12 1.01251e-12 6.14411e-13 0 0 1.48333e-12 2.39128e-12 2.37972e-12 1.4666e-12 0 0 2.04563e-12 3.24569e-12 3.25266e-12 2.01374e-12 0 0 1.92481e-12 3.13036e-12 3.09362e-12 1.91798e-12 0 0 1.00067e-12 1.62608e-12 1.6174e-12 9.96829e-13 0 0 -5.70763e-13 -9.43805e-13 -9.27945e-13 -5.7866e-13 0 0 -2.31225e-12 -3.73902e-12 -3.74478e-12 -2.3107e-12 0 0 -3.69397e-12 -5.98307e-12 -5.97893e-12 -3.69896e-12 0 0 -4.51333e-12 -7.31434e-12 -7.31252e-12 -4.51806e-12 0 0 -4.8018e-12 -7.75619e-12 -7.74067e-12 -4.8012e-12 0 0 -4.17075e-12 -6.73626e-12 -6.71113e-12 -4.17045e-12 0 0 -3.47057e-12 -5.63385e-12 -5.62837e-12 -3.48679e-12 0 0 -3.5251e-12 -5.85106e-12 -5.83543e-12 -3.63407e-12 0 0 -3.26223e-12 -5.32756e-12 -5.38399e-12 -3.35213e-12 0 0 -2.67796e-12 -4.35938e-12 -4.43221e-12 -2.78728e-12 0 0 -1.91133e-12 -3.14275e-12 -3.26464e-12 -1.99759e-12 0 0 -8.03607e-13 -1.30464e-12 -1.44097e-12 -8.90726e-13 0 0 -1.51734e-12 -2.50279e-12 -2.58652e-12 -1.64205e-12 0 0 -9.36782e-12 -1.52488e-11 -1.52657e-11 -9.49279e-12 0 0 -2.14204e-11 -3.46849e-11 -3.47373e-11 -2.14931e-11 0 0 -3.23389e-11 -5.22795e-11 -5.23329e-11 -3.2379e-11 0 0 -3.68526e-11 -5.96238e-11 -5.96088e-11 -3.68946e-11 0 0 -3.5025e-11 -5.66386e-11 -5.66954e-11 -3.50504e-11 0 0 -3.04895e-11 -4.9304e-11 -4.93443e-11 -3.04855e-11 0 0 -2.54966e-11 -4.12672e-11 -4.12608e-11 -2.54957e-11 0 0 -2.09339e-11 -3.39264e-11 -3.38804e-11 -2.09508e-11 0 0 -1.71023e-11 -2.77731e-11 -2.76781e-11 -1.71804e-11 0 0 -1.40603e-11 -2.28487e-11 -2.27776e-11 -1.41801e-11 0 0 -1.16615e-11 -1.8941e-11 -1.88868e-11 -1.17215e-11 0 0 -9.65756e-12 -1.56605e-11 -1.56099e-11 -9.66706e-12 0 0 -7.94107e-12 -1.29134e-11 -1.2855e-11 -7.94188e-12 0 0 -6.5659e-12 -1.07149e-11 -1.06915e-11 -6.62013e-12 0 0 -5.53276e-12 -9.0359e-12 -9.05404e-12 -5.58159e-12 0 0 -4.77215e-12 -7.78523e-12 -7.81347e-12 -4.79151e-12 0 0 -4.18648e-12 -6.79373e-12 -6.88387e-12 -4.23535e-12 0 0 -3.64878e-12 -5.87181e-12 -6.02006e-12 -3.69073e-12 0 0 -3.17276e-12 -5.10953e-12 -5.19891e-12 -3.21554e-12 0 0 -2.80294e-12 -4.59949e-12 -4.63286e-12 -2.84288e-12 0 0 -2.56685e-12 -4.21029e-12 -4.26214e-12 -2.62599e-12 0 0 -2.46121e-12 -3.95963e-12 -4.07535e-12 -2.4707e-12 0 0 -2.44077e-12 -3.93116e-12 -4.00061e-12 -2.42844e-12 0 0 -2.43188e-12 -3.90946e-12 -3.96268e-12 -2.50456e-12 0 0 -2.41952e-12 -3.86826e-12 -3.87125e-12 -2.49301e-12 0 0 -2.56607e-12 -4.02695e-12 -4.12242e-12 -2.53081e-12 0 0 -2.68246e-12 -4.22561e-12 -4.41818e-12 -2.62662e-12 0 0 -2.77401e-12 -4.46877e-12 -4.54581e-12 -2.76983e-12 0 0 -2.97538e-12 -4.8275e-12 -4.89329e-12 -2.99114e-12 0 0 -3.28276e-12 -5.30667e-12 -5.43673e-12 -3.30881e-12 0 0 -3.63935e-12 -5.87557e-12 -6.0471e-12 -3.60468e-12 0 0 -3.81328e-12 -6.15411e-12 -6.29092e-12 -3.79518e-12 0 0 -3.88028e-12 -6.30555e-12 -6.38352e-12 -3.86383e-12 0 0 -4.01926e-12 -6.55843e-12 -6.63308e-12 -3.96792e-12 0 0 -4.14825e-12 -6.77105e-12 -6.84883e-12 -4.06507e-12 0 0 -4.23712e-12 -6.92537e-12 -6.9562e-12 -4.17876e-12 0 0 -4.32039e-12 -7.04894e-12 -7.06765e-12 -4.28272e-12 0 0 -4.35735e-12 -7.04302e-12 -7.13084e-12 -4.33688e-12 0 0 -4.35588e-12 -6.94057e-12 -7.064e-12 -4.41454e-12 0 0 -4.32377e-12 -6.84929e-12 -7.00606e-12 -4.35197e-12 0 0 -4.14274e-12 -6.56875e-12 -6.77069e-12 -4.13011e-12 0 0 -3.82628e-12 -6.15046e-12 -6.2475e-12 -3.78307e-12 0 0 -3.43872e-12 -5.62114e-12 -5.53945e-12 -3.44391e-12 0 0 -2.9704e-12 -4.8537e-12 -4.76298e-12 -2.95962e-12 0 0 -2.35671e-12 -3.82171e-12 -3.84526e-12 -2.27614e-12 0 0 -1.74416e-12 -2.84854e-12 -2.87199e-12 -1.72818e-12 0 0 -1.44969e-12 -2.29091e-12 -2.35457e-12 -1.51461e-12 0 0 -8.4316e-13 -1.3193e-12 -1.42384e-12 -9.23553e-13 0 0 -1.59718e-13 -3.00055e-13 -3.04473e-13 -1.97795e-13 0 0 2.76456e-13 4.04796e-13 4.34072e-13 3.3773e-13 0 0 6.23487e-13 1.05209e-12 1.08804e-12 6.21813e-13 0 0 7.22338e-13 1.23457e-12 1.26392e-12 5.95104e-13 0 0 7.08999e-13 1.12555e-12 1.11349e-12 6.23169e-13 0 0 5.16725e-13 8.07064e-13 7.92901e-13 4.90249e-13 0 0 2.9766e-13 4.65376e-13 4.16089e-13 2.76801e-13 0 0 1.28817e-13 2.04549e-13 1.60367e-13 1.12177e-13 0 0 4.01669e-14 5.00603e-14 1.85883e-14 2.14181e-15 0 0 8.41712e-16 -2.61623e-14 -5.411e-14 -2.16601e-16 0 0 -1.95388e-14 -4.86285e-14 -9.51103e-14 1.7372e-15 0 0 -2.44918e-14 -5.85334e-14 -1.02878e-13 -4.60408e-14 0 0 -2.57215e-14 -8.17943e-14 -9.71656e-14 -3.74728e-14 0 0 -2.59268e-14 -8.59648e-14 -7.24404e-14 -6.7859e-14 0 0 -3.29714e-14 -8.86026e-14 -3.63303e-14 -1.20551e-13 0 0 -3.88246e-14 -1.01066e-13 -4.61389e-14 -9.15352e-14 0 0 -5.26633e-14 -8.35887e-14 -5.394e-14 -7.60593e-14 0 0 -5.89423e-14 -5.56003e-14 -6.88259e-14 -9.85814e-14 0 0 -4.37181e-14 -7.09402e-14 -7.15187e-14 -6.65814e-14 0 0 -5.46793e-14 -6.80342e-14 -5.96635e-14 -6.05665e-14 0 0 -5.39107e-14 -8.94794e-14 -1.9974e-14 -9.01862e-14 0 0 -5.10462e-14 -7.30082e-14 -3.37756e-14 -8.69952e-14 0 0 -5.45716e-14 -3.02734e-14 -1.05075e-13 -4.66322e-14 0 0 -4.51352e-14 -6.30278e-14 -1.00051e-13 -7.43074e-15 0 0 -5.35634e-14 -9.42467e-14 -3.3096e-15 -5.54907e-14 0 0 -6.1819e-14 -1.00298e-13 1.80316e-14 -6.45829e-14 0 0 -7.17782e-14 -6.77228e-14 -2.15147e-14 -5.01106e-14 0 0 -5.61856e-14 -6.42685e-14 7.6717e-15 -1.01372e-13 0 0 -5.79383e-14 -5.05246e-14 -8.4332e-15 -9.73574e-14 0 0 -5.30092e-14 -2.59824e-14 -5.87579e-14 -3.97959e-14 0 0 -2.60644e-14 -2.93848e-14 -8.01522e-14 4.38688e-16 0 0 -1.05089e-14 -6.52472e-14 -4.01253e-14 6.18107e-15 0 0 -2.26511e-14 -7.61805e-14 -2.61148e-15 -3.16435e-14 0 0 -8.53026e-14 -1.58224e-14 3.19953e-16 -7.57252e-14 0 0 -1.19243e-13 3.07619e-14 -4.52104e-14 -4.97339e-14 0 0 -6.56045e-14 -1.75276e-16 -5.87738e-14 6.40348e-16 0 0 -2.46389e-14 -5.03154e-14 -1.63353e-14 -7.85411e-15 0 0 -4.5102e-14 -4.79121e-14 -3.92796e-14 -1.15557e-14 0 0 -3.80446e-14 -4.45978e-14 -1.67375e-14 -2.57387e-14 0 0 -1.3776e-15 -7.37793e-14 6.40472e-14 -7.62825e-14 0 0 -3.76051e-14 -3.72522e-14 5.62635e-14 -4.85834e-14 0 0 -5.61543e-14 8.82152e-16 2.20919e-14 -3.03266e-15 0 0 -1.0816e-14 -1.87055e-14 6.6939e-14 -5.54337e-14 0 0 -2.21081e-14 3.31163e-14 5.17223e-14 -4.84814e-14 0 0 2.32191e-15 3.66735e-14 3.5702e-14 -2.33667e-14 0 0 4.86254e-14 -1.14738e-14 7.48699e-14 -5.34222e-14 0
				</DataArray>
				<DataArray Name="VitesseY" type="Float32" format="ascii">