<?xml version="1.0"?>
<VTKFile type="PolyData">
	<PolyData>
		<Piece NumberOfPoints="1206" NumberOfPolys="1000">
			<Points>
				<DataArray type="Float32" NumberOfComponents="3" format="ascii">
 0 0 0 0.02 0 0 0.04 0 0 0.06 0 0 0.08 0 0 0.1 0 0 0 0.005 0 0.02 0.005 0 0.04 0.005 0 0.06 0.005 0 0.08 0.005 0 0.1 0.005 0 0 0.01 0 0.02 0.01 0 0.04 0.01 0 0.06 0.01 0 0.08 0.01 0 0.1 0.01 0 0 0.015 0 0.02 0.015 0 0.04 0.015 0 0.06 0.015 0 0.08 0.015 0 0.1 0.015 0 0 0.02 0 0.02 0.02 0 0.04 0.02 0 0.06 0.02 0 0.08 0.02 0 0.1 0.02 0 0 0.025 0 0.02 0.025 0 0.04 0.025 0 0.06 0.025 0 0.08 0.025 0 0.1 0.025 0 0 0.03 0 0.02 0.03 0 0.04 0.03 0 0.06 0.03 0 0.08 0.03 0 0.1 0.03 0 0 0.035 0 0.02 0.035 0 0.04 0.035 0 0.06 0.035 0 0.08 0.035 0 0.1 0.035 0 0 0.04 0 0.02 0.04 0 0.04 0.04 0 0.06 0.04 0 0.08 0.04 0 0.1 0.04 0 0 0.045 0 0.02 0.045 0 0.04 0.045 0 0.06 0.045 0 0.08 0.045 0 0.1 0.045 0 0 0.05 0 0.02 0.05 0 0.04 0.05 0 0.06 0.05 0 0.08 0.05 0 0.1 0.05 0 0 0.055 0 0.02 0.055 0 0.04 0.055 0 0.06 0.055 0 0.08 0.055 0 0.1 0.055 0 0 0.06 0 0.02 0.06 0 0.04 0.06 0 0.06 0.06 0 0.08 0.06 0 0.1 0.06 0 0 0.065 0 0.02 0.065 0 0.04 0.065 0 0.06 0.065 0 0.08 0.065 0 0.1 0.065 0 0 0.07 0 0.02 0.07 0 0.04 0.07 0 0.06 0.07 0 0.08 0.07 0 0.1 0.07 0 0 0.075 0 0.02 0.075 0 0.04 0.075 0 0.06 0.075 0 0.08 0.075 0 0.1 0.075 0 0 0.08 0 0.02 0.08 0 0.04 0.08 0 0.06 0.08 0 0.08 0.08 0 0.1 0.08 0 0 0.085 0 0.02 0.085 0 0.04 0.085 0 0.06 0.085 0 0.08 0.085 0 0.1 0.085 0 0 0.09 0 0.02 0.09 0 0.04 0.09 0 0.06 0.09 0 0.08 0.09 0 0.1 0.09 0 0 0.095 0 0.02 0.095 0 0.04 0.095 0 0.06 0.095 0 0.08 0.095 0 0.1 0.095 0 0 0.1 0 0.02 0.1 0 0.04 0.1 0 0.06 0.1 0 0.08 0.1 0 0.1 0.1 0 0 0.105 0 0.02 0.105 0 0.04 0.105 0 0.06 0.105 0 0.08 0.105 0 0.1 0.105 0 0 0.11 0 0.02 0.11 0 0.04 0.11 0 0.06 0.11 0 0.08 0.11 0 0.1 0.11 0 0 0.115 0 0.02 0.115 0 0.04 0.115 0 0.06 0.115 0 0.08 0.115 0 0.1 0.115 0 0 0.12 0 0.02 0.12 0 0.04 0.12 0 0.06 0.12 0 0.08 0.12 0 0.1 0.12 0 0 0.125 0 0.02 0.125 0 0.04 0.125 0 0.06 0.125 0 0.08 0.125 0 0.1 0.125 0 0 0.13 0 0.02 0.13 0 0.04 0.13 0 0.06 0.13 0 0.08 0.13 0 0.1 0.13 0 0 0.135 0 0.02 0.135 0 0.04 0.135 0 0.06 0.135 0 0.08 0.135 0 0.1 0.135 0 0 0.14 0 0.02 0.14 0 0.04 0.14 0 0.06 0.14 0 0.08 0.14 0 0.1 0.14 0 0 0.145 0 0.02 0.145 0 0.04 0.145 0 0.06 0.145 0 0.08 0.145 0 0.1 0.145 0 0 0.15 0 0.02 0.15 0 0.04 0.15 0 0.06 0.15 0 0.08 0.15 0 0.1 0.15 0 0 0.155 0 0.02 0.155 0 0.04 0.155 0 0.06 0.155 0 0.08 0.155 0 0.1 0.155 0 0 0.16 0 0.02 0.16 0 0.04 0.16 0 0.06 0.16 0 0.08 0.16 0 0.1 0.16 0 0 0.165 0 0.02 0.165 0 0.04 0.165 0 0.06 0.165 0 0.08 0.165 0 0.1 0.165 0 0 0.17 0 0.02 0.17 0 0.04 0.17 0 0.06 0.17 0 0.08 0.17 0 0.1 0.17 0 0 0.175 0 0.02 0.175 0 0.04 0.175 0 0.06 0.175 0 0.08 0.175 0 0.1 0.175 0 0 0.18 0 0.02 0.18 0 0.04 0.18 0 0.06 0.18 0 0.08 0.18 0 0.1 0.18 0 0 0.185 0 0.02 0.185 0 0.04 0.185 0 0.06 0.185 0 0.08 0.185 0 0.1 0.185 0 0 0.19 0 0.02 0.19 0 0.04 0.19 0 0.06 0.19 0 0.08 0.19 0 0.1 0.19 0 0 0.195 0 0.02 0.195 0 0.04 0.195 0 0.06 0.195 0 0.08 0.195 0 0.1 0.195 0 0 0.2 0 0.02 0.2 0 0.04 0.2 0 0.06 0.2 0 0.08 0.2 0 0.1 0.2 0 0 0.205 0 0.02 0.205 0 0.04 0.205 0 0.06 0.205 0 0.08 0.205 0 0.1 0.205 0 0 0.21 0 0.02 0.21 0 0.04 0.21 0 0.06 0.21 0 0.08 0.21 0 0.1 0.21 0 0 0.215 0 0.02 0.215 0 0.04 0.215 0 0.06 0.215 0 0.08 0.215 0 0.1 0.215 0 0 0.22 0 0.02 0.22 0 0.04 0.22 0 0.06 0.22 0 0.08 0.22 0 0.1 0.22 0 0 0.225 0 0.02 0.225 0 0.04 0.225 0 0.06 0.225 0 0.08 0.225 0 0.1 0.225 0 0 0.23 0 0.02 0.23 0 0.04 0.23 0 0.06 0.23 0 0.08 0.23 0 0.1 0.23 0 0 0.235 0 0.02 0.235 0 0.04 0.235 0 0.06 0.235 0 0.08 0.235 0 0.1 0.235 0 0 0.24 0 0.02 0.24 0 0.04 0.24 0 0.06 0.24 0 0.08 0.24 0 0.1 0.24 0 0 0.245 0 0.02 0.245 0 0.04 0.245 0 0.06 0.245 0 0.08 0.245 0 0.1 0.245 0 0 0.25 0 0.02 0.25 0 0.04 0.25 0 0.06 0.25 0 0.08 0.25 0 0.1 0.25 0 0 0.255 0 0.02 0.255 0 0.04 0.255 0 0.06 0.255 0 0.08 0.255 0 0.1 0.255 0 0 0.26 0 0.02 0.26 0 0.04 0.26 0 0.06 0.26 0 0.08 0.26 0 0.1 0.26 0 0 0.265 0 0.02 0.265 0 0.04 0.265 0 0.06 0.265 0 0.08 0.265 0 0.1 0.265 0 0 0.27 0 0.02 0.27 0 0.04 0.27 0 0.06 0.27 0 0.08 0.27 0 0.1 0.27 0 0 0.275 0 0.02 0.275 0 0.04 0.275 0 0.06 0.275 0 0.08 0.275 0 0.1 0.275 0 0 0.28 0 0.02 0.28 0 0.04 0.28 0 0.06 0.28 0 0.08 0.28 0 0.1 0.28 0 0 0.285 0 0.02 0.285 0 0.04 0.285 0 0.06 0.285 0 0.08 0.285 0 0.1 0.285 0 0 0.290002 0 0.02 0.290002 0 0.04 0.290002 0 0.06 0.290002 0 0.08 0.290002 0 0.1 0.290002 0 0 0.295005 0 0.02 0.295005 0 0.04 0.295005 0 0.06 0.295005 0 0.08 0.295005 0 0.1 0.295005 0 0 0.300013 0 0.02 0.300013 0 0.04 0.300013 0 0.06 0.300013 0 0.08 0.300013 0 0.1 0.300013 0 0 0.305034 0 0.02 0.305034 0 0.04 0.305034 0 0.06 0.305034 0 0.08 0.305034 0 0.1 0.305034 0 0 0.310078 0 0.02 0.310078 0 0.04 0.310078 0 0.06 0.310078 0 0.08 0.310078 0 0.1 0.310078 0 0 0.315163 0 0.02 0.315163 0 0.04 0.315163 0 0.06 0.315163 0 0.08 0.315163 0 0.1 0.315163 0 0 0.320308 0 0.02 0.320308 0 0.04 0.320308 0 0.06 0.320308 0 0.08 0.320308 0 0.1 0.320308 0 0 0.325535 0 0.02 0.325535 0 0.04 0.325535 0 0.06 0.325535 0 0.08 0.325535 0 0.1 0.325535 0 0 0.33086 0 0.02 0.33086 0 0.04 0.33086 0 0.06 0.33086 0 0.08 0.33086 0 0.1 0.33086 0 0 0.336299 0 0.02 0.336299 0 0.04 0.336299 0 0.06 0.336299 0 0.08 0.336299 0 0.1 0.336299 0 0 0.341863 0 0.02 0.341863 0 0.04 0.341863 0 0.06 0.341863 0 0.08 0.341863 0 0.1 0.341863 0 0 0.347564 0 0.02 0.347564 0 0.04 0.347564 0 0.06 0.347564 0 0.08 0.347564 0 0.1 0.347564 0 0 0.353412 0 0.02 0.353412 0 0.04 0.353412 0 0.06 0.353412 0 0.08 0.353412 0 0.1 0.353412 0 0 0.359417 0 0.02 0.359417 0 0.04 0.359417 0 0.06 0.359417 0 0.08 0.359417 0 0.1 0.359417 0 0 0.365589 0 0.02 0.365589 0 0.04 0.365589 0 0.06 0.365589 0 0.08 0.365589 0 0.1 0.365589 0 0 0.371941 0 0.02 0.371941 0 0.04 0.371941 0 0.06 0.371941 0 0.08 0.371941 0 0.1 0.371941 0 0 0.378485 0 0.02 0.378485 0 0.04 0.378485 0 0.06 0.378485 0 0.08 0.378485 0 0.1 0.378485 0 0 0.385236 0 0.02 0.385236 0 0.04 0.385236 0 0.06 0.385236 0 0.08 0.385236 0 0.1 0.385236 0 0 0.392208 0 0.02 0.392208 0 0.04 0.392208 0 0.06 0.392208 0 0.08 0.392208 0 0.1 0.392208 0 0 0.399418 0 0.02 0.399418 0 0.04 0.399418 0 0.06 0.399418 0 0.08 0.399418 0 0.1 0.399418 0 0 0.406885 0 0.02 0.406885 0 0.04 0.406885 0 0.06 0.406885 0 0.08 0.406885 0 0.1 0.406885 0 0 0.41463 0 0.02 0.41463 0 0.04 0.41463 0 0.06 0.41463 0 0.08 0.41463 0 0.1 0.41463 0 0 0.422678 0 0.02 0.422678 0 0.04 0.422678 0 0.06 0.422678 0 0.08 0.422678 0 0.1 0.422678 0 0 0.431053 0 0.02 0.431053 0 0.04 0.431053 0 0.06 0.431053 0 0.08 0.431053 0 0.1 0.431053 0 0 0.439788 0 0.02 0.439788 0 0.04 0.439788 0 0.06 0.439788 0 0.08 0.439788 0 0.1 0.439788 0 0 0.448915 0 0.02 0.448915 0 0.04 0.448915 0 0.06 0.448915 0 0.08 0.448915 0 0.1 0.448915 0 0 0.458472 0 0.02 0.458472 0 0.04 0.458472 0 0.06 0.458472 0 0.08 0.458472 0 0.1 0.458472 0 0 0.468501 0 0.02 0.468501 0 0.04 0.468501 0 0.06 0.468501 0 0.08 0.468501 0 0.1 0.468501 0 0 0.479046 0 0.02 0.479046 0 0.04 0.479046 0 0.06 0.479046 0 0.08 0.479046 0 0.1 0.479046 0 0 0.490147 0 0.02 0.490147 0 0.04 0.490147 0 0.06 0.490147 0 0.08 0.490147 0 0.1 0.490147 0 0 0.50182 0 0.02 0.50182 0 0.04 0.50182 0 0.06 0.50182 0 0.08 0.50182 0 0.1 0.50182 0 0 0.513992 0 0.02 0.513992 0 0.04 0.513992 0 0.06 0.513992 0 0.08 0.513992 0 0.1 0.513992 0 0 0.526349 0 0.02 0.526349 0 0.04 0.526349 0 0.06 0.526349 0 0.08 0.526349 0 0.1 0.526349 0 0 0.538594 0 0.02 0.538594 0 0.04 0.538594 0 0.06 0.538594 0 0.08 0.538594 0 0.1 0.538594 0 0 0.550706 0 0.02 0.550706 0 0.04 0.550706 0 0.06 0.550706 0 0.08 0.550706 0 0.1 0.550706 0 0 0.562694 0 0.02 0.562694 0 0.04 0.562694 0 0.06 0.562694 0 0.08 0.562694 0 0.1 0.562694 0 0 0.574595 0 0.02 0.574595 0 0.04 0.574595 0 0.06 0.574595 0 0.08 0.574595 0 0.1 0.574595 0 0 0.586445 0 0.02 0.586445 0 0.04 0.586445 0 0.06 0.586445 0 0.08 0.586445 0 0.1 0.586445 0 0 0.59827 0 0.02 0.59827 0 0.04 0.59827 0 0.06 0.59827 0 0.08 0.59827 0 0.1 0.59827 0 0 0.610085 0 0.02 0.610085 0 0.04 0.610085 0 0.06 0.610085 0 0.08 0.610085 0 0.1 0.610085 0 0 0.621896 0 0.02 0.621896 0 0.04 0.621896 0 0.06 0.621896 0 0.08 0.621896 0 0.1 0.621896 0 0 0.633705 0 0.02 0.633705 0 0.04 0.633705 0 0.06 0.633705 0 0.08 0.633705 0 0.1 0.633705 0 0 0.645516 0 0.02 0.645516 0 0.04 0.645516 0 0.06 0.645516 0 0.08 0.645516 0 0.1 0.645516 0 0 0.647797 0 0.02 0.647797 0 0.04 0.647797 0 0.06 0.647797 0 0.08 0.647797 0 0.1 0.647797 0 0 0.650078 0 0.02 0.650078 0 0.04 0.650078 0 0.06 0.650078 0 0.08 0.650078 0 0.1 0.650078 0 0 0.652359 0 0.02 0.652359 0 0.04 0.652359 0 0.06 0.652359 0 0.08 0.652359 0 0.1 0.652359 0 0 0.654639 0 0.02 0.654639 0 0.04 0.654639 0 0.06 0.654639 0 0.08 0.654639 0 0.1 0.654639 0 0 0.656919 0 0.02 0.656919 0 0.04 0.656919 0 0.06 0.656919 0 0.08 0.656919 0 0.1 0.656919 0 0 0.659198 0 0.02 0.659198 0 0.04 0.659198 0 0.06 0.659198 0 0.08 0.659198 0 0.1 0.659198 0 0 0.661472 0 0.02 0.661472 0 0.04 0.661472 0 0.06 0.661472 0 0.08 0.661472 0 0.1 0.661472 0 0 0.663746 0 0.02 0.663746 0 0.04 0.663746 0 0.06 0.663746 0 0.08 0.663746 0 0.1 0.663746 0 0 0.666025 0 0.02 0.666025 0 0.04 0.666025 0 0.06 0.666025 0 0.08 0.666025 0 0.1 0.666025 0 0 0.668304 0 0.02 0.668304 0 0.04 0.668304 0 0.06 0.668304 0 0.08 0.668304 0 0.1 0.668304 0 0 0.670583 0 0.02 0.670583 0 0.04 0.670583 0 0.06 0.670583 0 0.08 0.670583 0 0.1 0.670583 0 0 0.672864 0 0.02 0.672864 0 0.04 0.672864 0 0.06 0.672864 0 0.08 0.672864 0 0.1 0.672864 0 0 0.675145 0 0.02 0.675145 0 0.04 0.675145 0 0.06 0.675145 0 0.08 0.675145 0 0.1 0.675145 0 0 0.677426 0 0.02 0.677426 0 0.04 0.677426 0 0.06 0.677426 0 0.08 0.677426 0 0.1 0.677426 0 0 0.679706 0 0.02 0.679706 0 0.04 0.679706 0 0.06 0.679706 0 0.08 0.679706 0 0.1 0.679706 0 0 0.681986 0 0.02 0.681986 0 0.04 0.681986 0 0.06 0.681986 0 0.08 0.681986 0 0.1 0.681986 0 0 0.684265 0 0.02 0.684265 0 0.04 0.684265 0 0.06 0.684265 0 0.08 0.684265 0 0.1 0.684265 0 0 0.686544 0 0.02 0.686544 0 0.04 0.686544 0 0.06 0.686544 0 0.08 0.686544 0 0.1 0.686544 0 0 0.688822 0 0.02 0.688822 0 0.04 0.688822 0 0.06 0.688822 0 0.08 0.688822 0 0.1 0.688822 0 0 0.691101 0 0.02 0.691101 0 0.04 0.6
[...]
			<PointData Scalars="VitesseX">
				<DataArray Name="VitesseX" type="Float32" format="ascii">
 0 0 0 0 0 0 0 1.23505e-16 5.86341e-15 -3.06873e-15 8.57231e-15 0 0 -2.46488e-16 4.95206e-15 -1.88006e-15 8.0016e-15 0 0 -1.46083e-16 3.84217e-15 2.35755e-16 6.48327e-15 0 0 1.19601e-15 1.96785e-15 2.14981e-15 5.00035e-15 0 0 1.15256e-15 3.56762e-15 9.30909e-16 6.92419e-15 0 0 4.94173e-17 5.8539e-15 1.59687e-15 1.02405e-14 0 0 1.59921e-15 6.18716e-15 2.70086e-15 1.3106e-14 0 0 3.77936e-15 5.69098e-15 3.69621e-15 1.26911e-14 0 0 5.37364e-15 4.17502e-15 5.41494e-15 1.11893e-14 0 0 6.627e-15 2.70856e-15 6.76155e-15 1.10723e-14 0 0 5.17579e-15 3.30721e-15 5.70157e-15 1.08958e-14 0 0 3.45132e-15 4.05977e-15 5.3406e-15 8.20905e-15 0 0 4.32364e-15 1.68391e-15 8.28132e-15 5.00456e-15 0 0 4.84449e-15 4.65597e-16 8.20789e-15 2.83281e-15 0 0 4.88916e-15 6.61628e-18 2.51119e-15 2.22173e-15 0 0 4.70497e-15 4.97997e-17 -3.34935e-15 3.42549e-15 0 0 1.83357e-15 5.19744e-15 -6.13341e-15 9.78759e-16 0 0 -1.44316e-15 8.16123e-15 -5.7666e-15 -1.8089e-15 0 0 -2.97061e-15 6.20382e-15 1.34515e-15 -9.30479e-15 0 0 -3.86858e-17 1.07981e-15 7.17014e-15 -1.82454e-14 0 0 -1.53995e-15 4.37375e-15 2.85698e-15 -1.30032e-14 0 0 -2.26676e-15 2.06228e-15 5.60813e-15 -2.17762e-15 0 0 -2.52327e-15 -5.69348e-16 5.46325e-15 1.10971e-14 0 0 -8.06022e-15 1.06373e-14 -6.34114e-15 1.81549e-14 0 0 -8.98838e-16 2.91622e-15 6.12098e-16 5.86324e-15 0 0 2.23975e-15 -1.84583e-15 8.09539e-15 -3.66956e-15 0 0 -3.15948e-15 1.02267e-14 -7.29659e-15 3.0203e-15 0 0 1.48571e-15 8.83662e-15 -1.88582e-14 5.9526e-15 0 0 2.12771e-15 5.28318e-15 -1.20545e-14 3.70752e-15 0 0 -2.3499e-15 4.73574e-15 -7.40579e-15 1.2925e-14 0 0 4.58346e-17 2.38718e-16 -3.33868e-15 1.06709e-14 0 0 2.68297e-15 -4.06992e-15 3.09394e-15 9.26429e-15 0 0 -8.01568e-16 5.20807e-16 1.61843e-15 1.53396e-14 0 0 -6.16319e-17 4.19537e-15 -5.46527e-15 9.03459e-15 0 0 9.2106e-15 -1.025e-14 -3.40175e-15 3.43969e-15 0 0 6.88715e-15 -1.04834e-14 2.02833e-15 -3.41559e-15 0 0 1.99205e-15 1.55406e-15 -4.79343e-15 -7.94018e-15 0 0 6.17019e-15 6.17033e-15 -1.49168e-14 -1.02674e-14 0 0 1.2974e-14 2.31284e-15 -2.08834e-14 -5.20977e-15 0 0 1.79412e-14 -4.8056e-15 -1.90498e-14 -1.01732e-14 0 0 1.35413e-14 -4.23877e-15 -1.41052e-14 -1.55844e-14 0 0 2.09462e-15 9.65818e-15 -2.02563e-14 -4.2123e-15 0 0 1.97162e-15 9.76526e-15 -1.0036e-14 3.20309e-15 0 0 8.55158e-15 1.39338e-14 -1.1497e-14 1.88158e-14 0 0 8.72373e-15 1.91926e-14 -2.16603e-14 3.30385e-14 0 0 5.53217e-15 1.0964e-14 -3.51624e-15 1.80163e-14 0 0 -4.96032e-15 7.48405e-15 -9.25091e-15 1.21099e-14 0 0 -1.22449e-14 3.55108e-15 -1.20407e-14 5.07263e-15 0 0 -5.28117e-15 6.08631e-16 -5.38827e-15 -3.06023e-14 0 0 -1.78235e-14 -1.06014e-14 -5.36488e-15 -2.44855e-14 0 0 -3.95257e-14 -3.37107e-14 1.87246e-14 -2.90886e-14 0 0 -3.87567e-14 -3.72008e-14 7.65617e-15 -4.16452e-14 0 0 -3.94504e-14 -2.61239e-14 -2.15019e-14 -1.24288e-14 0 0 -4.15817e-14 -2.98676e-14 -2.48454e-14 -9.19545e-15 0 0 -2.85262e-14 -3.94407e-14 -1.43792e-14 -3.13018e-14 0 0 -5.07326e-15 -3.4176e-14 9.19539e-15 -5.7241e-14 0 0 1.74747e-15 -1.69444e-14 -9.91108e-15 -5.46747e-14 0 0 -3.20982e-14 2.31974e-16 -5.22573e-14 -1.41466e-15 0 0 -5.09013e-14 4.1601e-15 -4.3986e-14 1.82368e-14 0 0 -1.22885e-14 -5.42442e-15 -1.60798e-14 -1.20797e-14 0 0 1.46399e-14 8.89669e-15 -1.67083e-14 -3.62418e-14 0 0 -9.28491e-15 2.50762e-14 -3.55451e-14 -3.61768e-14 0 0 -2.89769e-14 2.76764e-14 -3.48726e-14 -2.99764e-14 0 0 -1.29236e-14 3.76907e-15 -9.73824e-17 -1.17092e-15 0 0 1.03034e-14 -2.13326e-14 8.58615e-15 2.43821e-14 0 0 8.10326e-15 -4.82278e-15 -1.07585e-14 -8.11744e-15 0 0 -2.36028e-14 1.38915e-14 -1.86355e-14 -1.87101e-14 0 0 -4.50593e-14 -3.75594e-15 2.09857e-14 1.6554e-15 0 0 -3.41934e-14 1.2428e-14 6.41805e-15 2.07205e-14 0 0 3.93744e-15 2.06501e-14 -4.33815e-14 2.39013e-14 0 0 2.89092e-14 9.12218e-17 -2.97312e-14 -7.1669e-15 0 0 5.17105e-15 -4.88538e-15 -2.01628e-14 -1.97349e-14 0 0 -3.36888e-14 -3.44131e-14 2.66979e-14 -1.6102e-14 0 0 -1.88863e-14 -1.3654e-14 2.91943e-14 -2.70134e-14 0 0 6.18725e-15 3.22098e-14 -1.38927e-14 -7.39964e-15 0 0 -8.43366e-15 3.26327e-14 -1.46541e-14 1.47899e-14 0 0 -2.71934e-14 2.71727e-14 -1.78004e-14 1.5291e-14 0 0 -2.13901e-15 -6.52661e-15 1.23058e-14 -8.96178e-15 0 0 4.98021e-15 -1.12113e-14 2.15363e-14 2.22771e-14 0 0 -5.49392e-15 -1.84081e-14 2.93614e-14 2.88994e-14 0 0 -1.0011e-14 -1.58035e-14 1.42336e-14 -1.23437e-14 0 0 4.89072e-15 -1.37866e-14 -3.04374e-14 3.2909e-14 0 0 5.91542e-15 -3.89733e-15 -3.28406e-14 3.7726e-14 0 0 -6.63639e-15 3.09862e-15 -2.3465e-14 9.93028e-16 0 0 -5.00476e-15 -2.41504e-14 -1.66419e-14 -1.09817e-14 0 0 -2.08319e-14 -2.03674e-14 -6.4643e-14 -4.65174e-14 0 0 -3.77081e-14 -6.84711e-14 -1.41799e-13 -7.21885e-14 0 0 -6.41043e-14 -1.61299e-13 -1.58257e-13 -1.00227e-13 0 0 7.82146e-14 1.28598e-13 1.70901e-13 8.36454e-14 0 0 8.67144e-13 1.38841e-12 1.391e-12 8.81193e-13 0 0 1.95614e-12 3.12035e-12 3.11067e-12 1.93824e-12 0 0 2.62509e-12 4.26608e-12 4.26269e-12 2.61099e-12 0 0 2.56542e-12 4.15227e-12 4.15622e-12 2.55948e-12 0 0 1.51637e-12 2.42954e-12 2.44775e-12 1.51753e-12 0 0 -2.81099e-13 -4.54238e-13 -4.75964e-13 -2.74416e-13 0 0 -2.18225e-12 -3.53106e-12 -3.54893e-12 -2.19544e-12 0 0 -3.6949e-12 -5.99859e-12 -5.99123e-12 -3.70621e-12 0 0 -4.73527e-12 -7.65812e-12 -7.67224e-12 -4.72634e-12 0 0 -4.69749e-12 -7.58291e-12 -7.59581e-12 -4.69311e-12 0 0 -4.37558e-12 -7.0516e-12 -7.07111e-12 -4.36796e-12 0 0 -5.86216e-12 -9.3541e-12 -9.37172e-12 -5.81805e-12 0 0 -5.40981e-12 -8.64104e-12 -8.61438e-12 -5.30628e-12 0 0 -4.47309e-12 -7.20881e-12 -7.18488e-12 -4.42873e-12 0 0 -3.33271e-12 -5.44944e-12 -5.41018e-12 -3.33519e-12 0 0 -1.93109e-12 -3.11094e-12 -3.09138e-12 -1.92914e-12 0 0 -2.48245e-12 -3.98777e-12 -3.98154e-12 -2.51643e-12 0 0 -1.03665e-11 -1.67718e-11 -1.6785e-11 -1.04395e-11 0 0 -2.25793e-11 -3.65146e-11 -3.65907e-11 -2.26527e-11 0 0 -3.3665e-11 -5.44632e-11 -5.45415e-11 -3.37303e-11 0 0 -3.8412e-11 -6.2185e-11 -6.22327e-11 -3.8523e-11 0 0 -3.67277e-11 -5.94813e-11 -5.94861e-11 -3.68788e-11 0 0 -3.2142e-11 -5.20625e-11 -5.20575e-11 -3.22441e-11 0 0 -2.70231e-11 -4.37585e-11 -4.37803e-11 -2.70665e-11 0 0 -2.23512e-11 -3.61389e-11 -3.61714e-11 -2.23469e-11 0 0 -1.83776e-11 -2.96749e-11 -2.96828e-11 -1.83873e-11 0 0 -1.51645e-11 -2.44646e-11 -2.45101e-11 -1.51579e-11 0 0 -1.26238e-11 -2.03749e-11 -2.04239e-11 -1.25483e-11 0 0 -1.06107e-11 -1.71406e-11 -1.72537e-11 -1.05791e-11 0 0 -9.01891e-12 -1.46092e-11 -1.46967e-11 -8.96259e-12 0 0 -7.80941e-12 -1.26975e-11 -1.26593e-11 -7.76495e-12 0 0 -6.88676e-12 -1.12425e-11 -1.12253e-11 -6.90232e-12 0 0 -6.13856e-12 -1.00511e-11 -1.00357e-11 -6.13153e-12 0 0 -5.42109e-12 -8.89035e-12 -8.88119e-12 -5.45191e-12 0 0 -4.73869e-12 -7.7407e-12 -7.80616e-12 -4.79115e-12 0 0 -4.20002e-12 -6.84196e-12 -6.88241e-12 -4.23488e-12 0 0 -3.79417e-12 -6.25978e-12 -6.20567e-12 -3.89486e-12 0 0 -3.55346e-12 -5.83869e-12 -5.81597e-12 -3.72014e-12 0 0 -3.44638e-12 -5.60255e-12 -5.59725e-12 -3.5812e-12 0 0 -3.33589e-12 -5.44141e-12 -5.39167e-12 -3.46794e-12 0 0 -3.09523e-12 -5.0736e-12 -4.97537e-12 -3.22487e-12 0 0 -2.82433e-12 -4.58831e-12 -4.56456e-12 -2.98406e-12 0 0 -2.7638e-12 -4.4735e-12 -4.48021e-12 -2.90776e-12 0 0 -2.74403e-12 -4.48839e-12 -4.4851e-12 -2.84561e-12 0 0 -2.77481e-12 -4.48335e-12 -4.50761e-12 -2.84933e-12 0 0 -2.87895e-12 -4.58119e-12 -4.60319e-12 -2.88803e-12 0 0 -2.82301e-12 -4.50937e-12 -4.53404e-12 -2.81242e-12 0 0 -2.73321e-12 -4.34721e-12 -4.36578e-12 -2.76457e-12 0 0 -2.64534e-12 -4.17666e-12 -4.21504e-12 -2.69473e-12 0 0 -2.45613e-12 -3.96611e-12 -3.91291e-12 -2.57088e-12 0 0 -2.2647e-12 -3.72405e-12 -3.58971e-12 -2.42537e-12 0 0 -2.06193e-12 -3.42316e-12 -3.23297e-12 -2.20838e-12 0 0 -1.80772e-12 -2.96457e-12 -2.76349e-12 -1.91609e-12 0 0 -1.49225e-12 -2.32502e-12 -2.23596e-12 -1.49558e-12 0 0 -1.06405e-12 -1.62237e-12 -1.60635e-12 -1.00207e-12 0 0 -5.08615e-13 -7.56821e-13 -7.70834e-13 -4.57985e-13 0 0 1.32491e-13 2.08008e-13 1.91924e-13 6.98022e-14 0 0 8.18173e-13 1.27869e-12 1.31835e-12 7.35414e-13 0 0 1.33522e-12 2.19035e-12 2.20555e-12 1.32191e-12 0 0 1.70021e-12 2.82834e-12 2.84683e-12 1.77196e-12 0 0 2.08886e-12 3.42436e-12 3.50645e-12 2.14176e-12 0 0 2.45692e-12 3.98013e-12 4.01266e-12 2.4599e-12 0 0 2.53952e-12 4.11603e-12 4.08869e-12 2.5809e-12 0 0 2.4806e-12 4.02647e-12 3.93787e-12 2.51302e-12 0 0 2.20885e-12 3.59317e-12 3.5091e-12 2.19979e-12 0 0 1.7238e-12 2.76541e-12 2.78503e-12 1.72008e-12 0 0 1.1579e-12 1.88431e-12 1.88131e-12 1.19586e-12 0 0 6.49127e-13 1.09846e-12 1.06969e-12 6.65276e-13 0 0 3.04418e-13 5.21465e-13 4.7737e-13 2.64321e-13 0 0 1.13441e-13 1.98069e-13 1.39524e-13 6.69277e-14 0 0 2.85432e-14 4.32383e-15 2.60457e-14 9.07788e-16 0 0 -1.65307e-14 -4.1791e-14 -5.4487e-14 -5.15867e-14 0 0 -3.10045e-14 -4.6452e-14 -1.17003e-13 -4.36108e-14 0 0 -3.59369e-14 -5.51247e-14 -1.22146e-13 -2.26184e-14 0 0 -3.38301e-14 -6.96135e-14 -9.64538e-14 -5.51662e-14 0 0 -2.08103e-14 -8.20672e-14 -9.51719e-14 -5.59646e-14 0 0 -1.33119e-14 -8.2765e-14 -9.27108e-14 -6.38538e-14 0 0 -7.56495e-15 -1.07522e-13 -5.02244e-14 -6.50057e-14 0 0 -2.66911e-14 -9.19258e-14 -4.62731e-14 -6.36968e-14 0 0 -3.43316e-14 -5.76961e-14 -7.06568e-14 -8.76596e-14 0 0 -2.6914e-14 -6.05277e-14 -6.48279e-14 -7.85749e-14 0 0 -4.33881e-14 -4.87262e-14 -6.41448e-14 -6.38209e-14 0 0 -4.18245e-14 -5.2297e-14 -7.28241e-14 -3.8516e-14 0 0 -2.29927e-14 -7.64368e-14 -5.55505e-14 -1.90859e-14 0 0 -4.04626e-15 -9.12476e-14 -1.7379e-14 -6.57721e-14 0 0 -2.62113e-14 -5.48947e-14 -2.90544e-14 -6.0817e-14 0 0 -6.1025e-14 -2.70718e-15 -6.65534e-14 -1.76937e-15 0 0 -5.59762e-14 -1.04647e-14 -5.47084e-14 -2.4901e-14 0 0 -3.90759e-14 -3.79563e-14 -2.54348e-14 -3.0866e-14 0 0 -3.96925e-14 -1.78935e-14 -4.95016e-14 4.15164e-15 0 0 -4.29029e-14 4.33988e-15 -4.55888e-14 1.23459e-14 0 0 -6.32206e-14 -7.73362e-15 1.76675e-14 -2.84183e-14 0 0 -9.24096e-14 3.7991e-15 2.96477e-14 -3.46348e-14 0 0 -5.71152e-14 -2.89425e-14 8.51868e-15 -3.51797e-14 0 0 1.06654e-14 -1.02877e-13 -1.67022e-14 -3.59363e-14 0 0 5.2323e-15 -1.16407e-13 -4.29063e-15 -2.78523e-14 0 0 -5.3889e-14 -5.99192e-14 2.69751e-14 -7.69818e-14 0 0 -9.69422e-14 5.74942e-15 9.17815e-16 -4.51768e-14 0 0 -1.16427e-13 6.51967e-14 -8.52415e-14 2.67743e-14 0 0 -8.49261e-14 3.13331e-14 -8.44244e-14 1.59119e-14 0 0 -5.0284e-14 -3.56222e-14 -2.61169e-14 -1.11175e-14 0 0 -4.70902e-14 -9.73011e-15 -2.50164e-14 -3.65807e-14 0 0 -1.62872e-14 -1.54193e-14 8.64822e-15 -5.08034e-14 0 0 -1.33088e-15 -2.14313e-14 1.01715e-14 -9.67802e-15 0 0 1.56471e-14 -4.98914e-14 2.41486e-14 2.60605e-15 0 0 4.07132e-14 -1.02172e-13 6.24828e-14 2.1026e-14 0 0 2.03208e-14 -6.6661e-14 3.05023e-14 6.13793e-14 0 0 8.52138e-15 -2.17923e-15 -1.89213e-14 4.83167e-14 0 0 1.37037e-14 1.91975e-14 -2.49596e-14 4.77992e-14 0 0 -4.99872e-15 1.43409e-14 2.17862e-14 5.8003e-14 0 0 0 0 0 0 0
				</DataArray>
				<DataArray Name="VitesseY" type="Float32" format="ascii">