<?xml version="1.0"?>
<VTKFile type="PolyData">
	<PolyData>
		<Piece NumberOfPoints="1206" NumberOfPolys="1000">
			<Points>
				<DataArray type="Float32" NumberOfComponents="3" format="ascii">
 0 0 0 0.02 0 0 0.04 0 0 0.06 0 0 0.08 0 0 0.1 0 0 0 0.005 0 0.02 0.005 0 0.04 0.005 0 0.06 0.005 0 0.08 0.005 0 0.1 0.005 0 0 0.01 0 0.02 0.01 0 0.04 0.01 0 0.06 0.01 0 0.08 0.01 0 0.1 0.01 0 0 0.015 0 0.02 0.015 0 0.04 0.015 0 0.06 0.015 0 0.08 0.015 0 0.1 0.015 0 0 0.02 0 0.02 0.02 0 0.04 0.02 0 0.06 0.02 0 0.08 0.02 0 0.1 0.02 0 0 0.025 0 0.02 0.025 0 0.04 0.025 0 0.06 0.025 0 0.08 0.025 0 0.1 0.025 0 0 0.03 0 0.02 0.03 0 0.04 0.03 0 0.06 0.03 0 0.08 0.03 0 0.1 0.03 0 0 0.035 0 0.02 0.035 0 0.04 0.035 0 0.06 0.035 0 0.08 0.035 0 0.1 0.035 0 0 0.04 0 0.02 0.04 0 0.04 0.04 0 0.06 0.04 0 0.08 0.04 0 0.1 0.04 0 0 0.045 0 0.02 0.045 0 0.04 0.045 0 0.06 0.045 0 0.08 0.045 0 0.1 0.045 0 0 0.05 0 0.02 0.05 0 0.04 0.05 0 0.06 0.05 0 0.08 0.05 0 0.1 0.05 0 0 0.055 0 0.02 0.055 0 0.04 0.055 0 0.06 0.055 0 0.08 0.055 0 0.1 0.055 0 0 0.06 0 0.02 0.06 0 0.04 0.06 0 0.06 0.06 0 0.08 0.06 0 0.1 0.06 0 0 0.065 0 0.02 0.065 0 0.04 0.065 0 0.06 0.065 0 0.08 0.065 0 0.1 0.065 0 0 0.07 0 0.02 0.07 0 0.04 0.07 0 0.06 0.07 0 0.08 0.07 0 0.1 0.07 0 0 0.075 0 0.02 0.075 0 0.04 0.075 0 0.06 0.075 0 0.08 0.075 0 0.1 0.075 0 0 0.08 0 0.02 0.08 0 0.04 0.08 0 0.06 0.08 0 0.08 0.08 0 0.1 0.08 0 0 0.085 0 0.02 0.085 0 0.04 0.085 0 0.06 0.085 0 0.08 0.085 0 0.1 0.085 0 0 0.09 0 0.02 0.09 0 0.04 0.09 0 0.06 0.09 0 0.08 0.09 0 0.1 0.09 0 0 0.095 0 0.02 0.095 0 0.04 0.095 0 0.06 0.095 0 0.08 0.095 0 0.1 0.095 0 0 0.1 0 0.02 0.1 0 0.04 0.1 0 0.06 0.1 0 0.08 0.1 0 0.1 0.1 0 0 0.105 0 0.02 0.105 0 0.04 0.105 0 0.06 0.105 0 0.08 0.105 0 0.1 0.105 0 0 0.11 0 0.02 0.11 0 0.04 0.11 0 0.06 0.11 0 0.08 0.11 0 0.1 0.11 0 0 0.115 0 0.02 0.115 0 0.04 0.115 0 0.06 0.115 0 0.08 0.115 0 0.1 0.115 0 0 0.12 0 0.02 0.12 0 0.04 0.12 0 0.06 0.12 0 0.08 0.12 0 0.1 0.12 0 0 0.125 0 0.02 0.125 0 0.04 0.125 0 0.06 0.125 0 0.08 0.125 0 0.1 0.125 0 0 0.13 0 0.02 0.13 0 0.04 0.13 0 0.06 0.13 0 0.08 0.13 0 0.1 0.13 0 0 0.135 0 0.02 0.135 0 0.04 0.135 0 0.06 0.135 0 0.08 0.135 0 0.1 0.135 0 0 0.14 0 0.02 0.14 0 0.04 0.14 0 0.06 0.14 0 0.08 0.14 0 0.1 0.14 0 0 0.145 0 0.02 0.145 0 0.04 0.145 0 0.06 0.145 0 0.08 0.145 0 0.1 0.145 0 0 0.15 0 0.02 0.15 0 0.04 0.15 0 0.06 0.15 0 0.08 0.15 0 0.1 0.15 0 0 0.155 0 0.02 0.155 0 0.04 0.155 0 0.06 0.155 0 0.08 0.155 0 0.1 0.155 0 0 0.16 0 0.02 0.16 0 0.04 0.16 0 0.06 0.16 0 0.08 0.16 0 0.1 0.16 0 0 0.165 0 0.02 0.165 0 0.04 0.165 0 0.06 0.165 0 0.08 0.165 0 0.1 0.165 0 0 0.17 0 0.02 0.17 0 0.04 0.17 0 0.06 0.17 0 0.08 0.17 0 0.1 0.17 0 0 0.175 0 0.02 0.175 0 0.04 0.175 0 0.06 0.175 0 0.08 0.175 0 0.1 0.175 0 0 0.18 0 0.02 0.18 0 0.04 0.18 0 0.06 0.18 0 0.08 0.18 0 0.1 0.18 0 0 0.185 0 0.02 0.185 0 0.04 0.185 0 0.06 0.185 0 0.08 0.185 0 0.1 0.185 0 0 0.19 0 0.02 0.19 0 0.04 0.19 0 0.06 0.19 0 0.08 0.19 0 0.1 0.19 0 0 0.195 0 0.02 0.195 0 0.04 0.195 0 0.06 0.195 0 0.08 0.195 0 0.1 0.195 0 0 0.2 0 0.02 0.2 0 0.04 0.2 0 0.06 0.2 0 0.08 0.2 0 0.1 0.2 0 0 0.205 0 0.02 0.205 0 0.04 0.205 0 0.06 0.205 0 0.08 0.205 0 0.1 0.205 0 0 0.21 0 0.02 0.21 0 0.04 0.21 0 0.06 0.21 0 0.08 0.21 0 0.1 0.21 0 0 0.215 0 0.02 0.215 0 0.04 0.215 0 0.06 0.215 0 0.08 0.215 0 0.1 0.215 0 0 0.22 0 0.02 0.22 0 0.04 0.22 0 0.06 0.22 0 0.08 0.22 0 0.1 0.22 0 0 0.225 0 0.02 0.225 0 0.04 0.225 0 0.06 0.225 0 0.08 0.225 0 0.1 0.225 0 0 0.23 0 0.02 0.23 0 0.04 0.23 0 0.06 0.23 0 0.08 0.23 0 0.1 0.23 0 0 0.235 0 0.02 0.235 0 0.04 0.235 0 0.06 0.235 0 0.08 0.235 0 0.1 0.235 0 0 0.24 0 0.02 0.24 0 0.04 0.24 0 0.06 0.24 0 0.08 0.24 0 0.1 0.24 0 0 0.245 0 0.02 0.245 0 0.04 0.245 0 0.06 0.245 0 0.08 0.245 0 0.1 0.245 0 0 0.250001 0 0.02 0.250001 0 0.04 0.250001 0 0.06 0.250001 0 0.08 0.250001 0 0.1 0.250001 0 0 0.255003 0 0.02 0.255003 0 0.04 0.255003 0 0.06 0.255003 0 0.08 0.255003 0 0.1 0.255003 0 0 0.260009 0 0.02 0.260009 0 0.04 0.260009 0 0.06 0.260009 0 0.08 0.260009 0 0.1 0.260009 0 0 0.265021 0 0.02 0.265021 0 0.04 0.265021 0 0.06 0.265021 0 0.08 0.265021 0 0.1 0.265021 0 0 0.270049 0 0.02 0.270049 0 0.04 0.270049 0 0.06 0.270049 0 0.08 0.270049 0 0.1 0.270049 0 0 0.275103 0 0.02 0.275103 0 0.04 0.275103 0 0.06 0.275103 0 0.08 0.275103 0 0.1 0.275103 0 0 0.280197 0 0.02 0.280197 0 0.04 0.280197 0 0.06 0.280197 0 0.08 0.280197 0 0.1 0.280197 0 0 0.285348 0 0.02 0.285348 0 0.04 0.285348 0 0.06 0.285348 0 0.08 0.285348 0 0.1 0.285348 0 0 0.290571 0 0.02 0.290571 0 0.04 0.290571 0 0.06 0.290571 0 0.08 0.290571 0 0.1 0.290571 0 0 0.295879 0 0.02 0.295879 0 0.04 0.295879 0 0.06 0.295879 0 0.08 0.295879 0 0.1 0.295879 0 0 0.301281 0 0.02 0.301281 0 0.04 0.301281 0 0.06 0.301281 0 0.08 0.301281 0 0.1 0.301281 0 0 0.306787 0 0.02 0.306787 0 0.04 0.306787 0 0.06 0.306787 0 0.08 0.306787 0 0.1 0.306787 0 0 0.312404 0 0.02 0.312404 0 0.04 0.312404 0 0.06 0.312404 0 0.08 0.312404 0 0.1 0.312404 0 0 0.318138 0 0.02 0.318138 0 0.04 0.318138 0 0.06 0.318138 0 0.08 0.318138 0 0.1 0.318138 0 0 0.323997 0 0.02 0.323997 0 0.04 0.323997 0 0.06 0.323997 0 0.08 0.323997 0 0.1 0.323997 0 0 0.329989 0 0.02 0.329989 0 0.04 0.329989 0 0.06 0.329989 0 0.08 0.329989 0 0.1 0.329989 0 0 0.336119 0 0.02 0.336119 0 0.04 0.336119 0 0.06 0.336119 0 0.08 0.336119 0 0.1 0.336119 0 0 0.342397 0 0.02 0.342397 0 0.04 0.342397 0 0.06 0.342397 0 0.08 0.342397 0 0.1 0.342397 0 0 0.34883 0 0.02 0.34883 0 0.04 0.34883 0 0.06 0.34883 0 0.08 0.34883 0 0.1 0.34883 0 0 0.355429 0 0.02 0.355429 0 0.04 0.355429 0 0.06 0.355429 0 0.08 0.355429 0 0.1 0.355429 0 0 0.362202 0 0.02 0.362202 0 0.04 0.362202 0 0.06 0.362202 0 0.08 0.362202 0 0.1 0.362202 0 0 0.369161 0 0.02 0.369161 0 0.04 0.369161 0 0.06 0.369161 0 0.08 0.369161 0 0.1 0.369161 0 0 0.376317 0 0.02 0.376317 0 0.04 0.376317 0 0.06 0.376317 0 0.08 0.376317 0 0.1 0.376317 0 0 0.383683 0 0.02 0.383683 0 0.04 0.383683 0 0.06 0.383683 0 0.08 0.383683 0 0.1 0.383683 0 0 0.391274 0 0.02 0.391274 0 0.04 0.391274 0 0.06 0.391274 0 0.08 0.391274 0 0.1 0.391274 0 0 0.399105 0 0.02 0.399105 0 0.04 0.399105 0 0.06 0.399105 0 0.08 0.399105 0 0.1 0.399105 0 0 0.407192 0 0.02 0.407192 0 0.04 0.407192 0 0.06 0.407192 0 0.08 0.407192 0 0.1 0.407192 0 0 0.415556 0 0.02 0.415556 0 0.04 0.415556 0 0.06 0.415556 0 0.08 0.415556 0 0.1 0.415556 0 0 0.424217 0 0.02 0.424217 0 0.04 0.424217 0 0.06 0.424217 0 0.08 0.424217 0 0.1 0.424217 0 0 0.433198 0 0.02 0.433198 0 0.04 0.433198 0 0.06 0.433198 0 0.08 0.433198 0 0.1 0.433198 0 0 0.442525 0 0.02 0.442525 0 0.04 0.442525 0 0.06 0.442525 0 0.08 0.442525 0 0.1 0.442525 0 0 0.452228 0 0.02 0.452228 0 0.04 0.452228 0 0.06 0.452228 0 0.08 0.452228 0 0.1 0.452228 0 0 0.462335 0 0.02 0.462335 0 0.04 0.462335 0 0.06 0.462335 0 0.08 0.462335 0 0.1 0.462335 0 0 0.47288 0 0.02 0.47288 0 0.04 0.47288 0 0.06 0.47288 0 0.08 0.47288 0 0.1 0.47288 0 0 0.483893 0 0.02 0.483893 0 0.04 0.483893 0 0.06 0.483893 0 0.08 0.483893 0 0.1 0.483893 0 0 0.495391 0 0.02 0.495391 0 0.04 0.495391 0 0.06 0.495391 0 0.08 0.495391 0 0.1 0.495391 0 0 0.507352 0 0.02 0.507352 0 0.04 0.507352 0 0.06 0.507352 0 0.08 0.507352 0 0.1 0.507352 0 0 0.519629 0 0.02 0.519629 0 0.04 0.519629 0 0.06 0.519629 0 0.08 0.519629 0 0.1 0.519629 0 0 0.531905 0 0.02 0.531905 0 0.04 0.531905 0 0.06 0.531905 0 0.08 0.531905 0 0.1 0.531905 0 0 0.544078 0 0.02 0.544078 0 0.04 0.544078 0 0.06 0.544078 0 0.08 0.544078 0 0.1 0.544078 0 0 0.556138 0 0.02 0.556138 0 0.04 0.556138 0 0.06 0.556138 0 0.08 0.556138 0 0.1 0.556138 0 0 0.568098 0 0.02 0.568098 0 0.04 0.568098 0 0.06 0.568098 0 0.08 0.568098 0 0.1 0.568098 0 0 0.579987 0 0.02 0.579987 0 0.04 0.579987 0 0.06 0.579987 0 0.08 0.579987 0 0.1 0.579987 0 0 0.591833 0 0.02 0.591833 0 0.04 0.591833 0 0.06 0.591833 0 0.08 0.591833 0 0.1 0.591833 0 0 0.603657 0 0.02 0.603657 0 0.04 0.603657 0 0.06 0.603657 0 0.08 0.603657 0 0.1 0.603657 0 0 0.615471 0 0.02 0.615471 0 0.04 0.615471 0 0.06 0.615471 0 0.08 0.615471 0 0.1 0.615471 0 0 0.627281 0 0.02 0.627281 0 0.04 0.627281 0 0.06 0.627281 0 0.08 0.627281 0 0.1 0.627281 0 0 0.63909 0 0.02 0.63909 0 0.04 0.63909 0 0.06 0.63909 0 0.08 0.63909 0 0.1 0.63909 0 0 0.650898 0 0.02 0.650898 0 0.04 0.650898 0 0.06 0.650898 0 0.08 0.650898 0 0.1 0.650898 0 0 0.662707 0 0.02 0.662707 0 0.04 0.662707 0 0.06 0.662707 0 0.08 0.662707 0 0.1 0.662707 0 0 0.674516 0 0.02 0.674516 0 0.04 0.674516 0 0.06 0.674516 0 0.08 0.674516 0 0.1 0.674516 0 0 0.676796 0 0.02 0.676796 0 0.04 0.676796 0 0.06 0.676796 0 0.08 0.676796 0 0.1 0.676796 0 0 0.679076 0 0.02 0.679076 0 0.04 0.679076 0 0.06 0.679076 0 0.08 0.679076 0 0.1 0.679076 0 0 0.681356 0 0.02 0.681356 0 0.04 0.681356 0 0.06 0.681356 0 0.08 0.681356 0 0.1 0.681356 0 0 0.683636 0 0.02 0.683636 0 0.04 0.683636 0 0.06 0.683636 0 0.08 0.683636 0 0.1 0.683636 0 0 0.685915 0 0.02 0.685915 0 0.04 0.685915 0 0.06 0.685915 0 0.08 0.685915 0 0.1 0.685915 0 0 0.688193 0 0.02 0.688193 0 0.04 0.688193 0 0.06 0.688193 0 0.08 0.688193 0 0.1 0.688193 0 0 0.690467 0 0.02 0.690467 0 0.04 0.690467 0 0.06 0.690467 0 0.08 0.690467 0 0.1 0.690467 0 0 0.692742 0 0.02 0.692742 0 0.04 0.692742 0 0.06 0.692742 0 0.08 0.692742 0 0.1 0.692742 0 0 0.695023 0 0.02 0.695023 0 0.04 0.695023 0 0.06 0.695023 0 0.08 0.695023 0 0.1 0.695023 0 0 0.697302 0 0.02 0.697302 0 0.04 0.697302 0 0.06 0.697302 0 0.08 0.697302 0 0.1 0.697302 0 0 0.699582 0 0.02 0.699582 0 0.04 0.699582 0 0.06 0.699582 0 0.08 0.699582 0 0.1 0.699582 0 0 0.701861 0 0.02 0.701861 0 0.04 0.701861 0 0.06 0.701861 0 0.08 0.701861 0 0.1 0.701861 0 0 0.704141 0 0.02 0.704141 0 0.04 0.704141 0 0.06 0.704141 0 0.08 0.704141 0 0.1 0.704141 0 0 0.70642 0 0.02 0.70642 0 0.04 0.70642 0 0.06 0.70642 0 0.08 0.70642 0 0.1 0.70642 0 0 0.7087 0 0.02 0.7087 0 0.04 0.7087 0 0.06 0.7087 0 0.08 0.7087 0 0.1 0.7087 0 0 0.71098 0 0.02 0.71098 0 0.04 0.71098 0 0.06 0.71098 0 0.08 0.71098 0 0.1 0.71098 0 0 0.71326 0 0.02 0.71326 0 0.04 0.71326 0 0.06 0.71326 0 0.08 0.71326 0 0.1 0.71326 0 0 0.715539 0 0.02 0.715539 0 0.04 0.715539 0 0.06 0.715539 0 0.08 0.715539 0 
[...]
			<PointData Scalars="VitesseX">
				<DataArray Name="VitesseX" type="Float32" format="ascii">
 0 2.76376e-15 6.28411e-15 9.29305e-15 1.02659e-14 0 0 3.18536e-15 5.46152e-15 8.5807e-15 9.75811e-15 0 0 1.40794e-15 6.20413e-15 6.18632e-15 9.51335e-15 0 0 3.50783e-16 6.57743e-15 3.59957e-15 1.00069e-14 0 0 1.45813e-15 4.54881e-15 2.87839e-15 9.21721e-15 0 0 3.72388e-16 3.97524e-15 5.25281e-16 8.49627e-15 0 0 -1.0969e-16 1.91418e-15 -1.18352e-15 8.48428e-15 0 0 1.29293e-15 -1.26784e-15 1.06622e-16 6.40472e-15 0 0 7.06432e-16 -2.84582e-16 -1.66837e-15 4.50592e-15 0 0 -2.67656e-15 2.69707e-15 -5.16444e-15 3.31467e-15 0 0 -4.73423e-15 6.00723e-15 -9.00878e-15 2.21433e-15 0 0 -3.14706e-15 3.27101e-15 -5.20794e-15 -1.1099e-15 0 0 -7.38818e-16 -1.58009e-15 1.32443e-17 2.2793e-15 0 0 -2.0524e-15 3.25802e-15 -6.92356e-15 1.24562e-14 0 0 -2.64296e-15 6.17208e-15 -9.58802e-15 1.41504e-14 0 0 -4.46463e-15 4.7865e-15 -2.3357e-15 8.47789e-15 0 0 -4.31954e-15 8.24713e-16 2.56599e-15 5.82511e-15 0 0 2.12154e-15 -6.60227e-15 2.46895e-15 7.00484e-15 0 0 2.70543e-15 -5.45486e-15 3.71403e-16 3.63784e-15 0 0 2.91839e-16 -1.22718e-15 2.24008e-16 -2.59952e-15 0 0 -3.93587e-15 1.43773e-15 2.77777e-15 -8.16046e-15 0 0 -2.27586e-15 -3.58999e-15 7.66175e-15 -8.81311e-15 0 0 -2.48814e-15 -1.30016e-15 3.8058e-16 -3.64224e-15 0 0 -1.32597e-15 -1.03369e-15 -3.75288e-15 -4.33072e-16 0 0 7.97883e-15 -1.34394e-14 3.53244e-16 8.80635e-15 0 0 8.36976e-16 -3.57706e-15 -3.77316e-15 1.35065e-14 0 0 -2.06475e-15 2.2055e-16 1.26601e-15 2.05421e-15 0 0 3.29398e-15 -3.25858e-15 6.0193e-15 -1.03598e-14 0 0 -2.86943e-15 4.44377e-15 -1.37186e-15 -1.24272e-14 0 0 -2.84399e-15 7.81097e-16 -2.1798e-15 -1.31426e-14 0 0 3.86587e-15 -6.70551e-15 5.67436e-15 -1.39708e-14 0 0 2.92538e-15 -2.89751e-15 -1.48748e-16 -4.24383e-15 0 0 -1.80954e-16 5.31611e-15 -1.14333e-14 9.72575e-15 0 0 8.68117e-15 -7.73676e-15 -1.6504e-15 8.21504e-15 0 0 2.06024e-15 -7.05031e-15 -3.47317e-16 1.06118e-14 0 0 -1.68979e-15 2.41202e-15 -3.82194e-15 6.99701e-15 0 0 6.27721e-15 5.91104e-15 1.27123e-15 -1.00833e-16 0 0 -1.20599e-14 2.11341e-14 1.37976e-14 8.43189e-15 0 0 -1.24393e-14 -3.45904e-15 2.04566e-14 1.1401e-14 0 0 7.75448e-16 -1.57859e-14 -7.19664e-16 1.10895e-14 0 0 -1.29146e-14 1.32507e-14 -2.17563e-14 1.36752e-14 0 0 -2.02363e-14 7.0758e-16 -1.3532e-14 -2.67001e-15 0 0 -2.07947e-14 -1.46658e-14 5.33329e-15 -3.82885e-14 0 0 -2.85337e-14 -1.30417e-14 8.36557e-15 -5.16514e-14 0 0 -2.16508e-14 -2.18602e-14 -3.90827e-16 -4.46339e-14 0 0 -2.76866e-14 -3.79328e-14 -7.93738e-15 -3.10417e-14 0 0 -2.061e-14 -5.50687e-14 -9.27336e-15 -3.08554e-14 0 0 1.38212e-16 -5.87678e-14 -1.61262e-14 -3.85213e-14 0 0 7.18156e-15 -4.94964e-14 -2.64617e-14 -2.16517e-14 0 0 1.15936e-14 -2.01441e-14 -3.4529e-14 -1.95884e-14 0 0 5.70752e-15 2.14622e-14 -4.29405e-14 -9.03477e-15 0 0 9.10075e-15 2.89403e-14 -5.04212e-14 2.1282e-16 0 0 1.96308e-14 -1.78675e-14 -2.84258e-14 -5.16442e-15 0 0 1.53921e-14 -3.32529e-14 -5.7885e-15 2.17677e-14 0 0 2.30129e-14 -1.05408e-14 -1.75309e-14 4.24715e-14 0 0 2.57943e-14 2.00698e-14 -2.72805e-14 1.07807e-14 0 0 3.61762e-15 4.92777e-14 -3.6354e-14 -1.33269e-14 0 0 8.31193e-15 1.33326e-14 -1.85135e-14 -1.21711e-14 0 0 2.51088e-14 -1.87156e-14 2.64741e-14 3.21533e-16 0 0 3.17541e-14 -3.22414e-14 6.46621e-14 1.20497e-14 0 0 1.9285e-14 -3.72997e-14 3.86405e-14 2.37958e-14 0 0 9.57654e-15 -8.09894e-15 -8.3608e-15 2.04883e-14 0 0 2.21627e-14 -8.16767e-15 1.70563e-14 -1.49325e-15 0 0 -1.12938e-15 -1.61252e-14 4.92217e-14 1.39894e-14 0 0 -2.28955e-14 -3.61358e-15 2.98479e-14 2.75472e-14 0 0 2.00827e-14 -5.81609e-15 -4.66076e-15 2.4503e-14 0 0 3.46083e-14 -6.31545e-15 1.9527e-16 3.94233e-16 0 0 1.25645e-14 2.00873e-15 1.12945e-14 -1.59073e-14 0 0 -1.15516e-14 4.57603e-15 -6.16119e-15 3.60865e-15 0 0 -3.06585e-15 -4.44637e-14 3.11958e-14 1.08517e-14 0 0 2.11515e-14 -3.64095e-14 5.31524e-14 6.99336e-15 0 0 6.12654e-15 3.46372e-14 1.98962e-14 -2.5898e-15 0 0 7.86195e-16 2.6473e-14 1.75761e-14 4.33949e-15 0 0 -2.38775e-14 9.3183e-15 -4.76591e-15 4.34073e-14 0 0 -1.47593e-14 9.54221e-15 -7.58695e-15 3.28359e-14 0 0 3.48589e-14 -1.58573e-14 1.26032e-14 5.7388e-15 0 0 2.65529e-14 -2.92362e-14 2.26385e-14 3.38192e-15 0 0 7.93912e-16 -2.65607e-14 4.7969e-14 -5.25886e-15 0 0 -1.32577e-14 1.63386e-14 -6.38711e-15 2.67776e-15 0 0 -7.6279e-15 3.2379e-14 -1.32404e-14 -1.64762e-14 0 0 7.66228e-15 9.49277e-15 -7.07498e-16 -8.74774e-15 0 0 3.12586e-15 -5.89094e-15 -4.89026e-15 1.81356e-14 0 0 -2.66042e-14 1.27384e-14 2.5989e-14 -2.3438e-14 0 0 -2.24822e-14 -3.41603e-14 3.76224e-14 -4.0784e-14 0 0 -2.57911e-14 -7.87274e-14 -2.17081e-14 -4.57393e-14 0 0 -6.90175e-14 -6.37232e-14 -8.8934e-14 -3.66395e-14 0 0 -2.23499e-14 -1.39198e-14 1.98569e-14 4.13711e-14 0 0 2.94146e-13 4.93305e-13 5.47958e-13 3.39188e-13 0 0 8.19512e-13 1.35306e-12 1.39009e-12 8.41901e-13 0 0 1.18042e-12 1.92594e-12 1.90868e-12 1.19157e-12 0 0 1.082e-12 1.73507e-12 1.72438e-12 1.06845e-12 0 0 3.79441e-13 6.0379e-13 6.02009e-13 3.63387e-13 0 0 -8.21243e-13 -1.30678e-12 -1.33116e-12 -8.34935e-13 0 0 -2.18724e-12 -3.52455e-12 -3.52527e-12 -2.20128e-12 0 0 -3.31909e-12 -5.35849e-12 -5.35935e-12 -3.31889e-12 0 0 -3.91767e-12 -6.33524e-12 -6.33056e-12 -3.9153e-12 0 0 -3.9035e-12 -6.33977e-12 -6.31618e-12 -3.92536e-12 0 0 -3.44262e-12 -5.55848e-12 -5.55763e-12 -3.44484e-12 0 0 -2.74898e-12 -4.43864e-12 -4.45077e-12 -2.75062e-12 0 0 -1.59089e-12 -2.60228e-12 -2.63935e-12 -1.63687e-12 0 0 -5.4401e-13 -8.80553e-13 -9.6651e-13 -5.78677e-13 0 0 1.29459e-12 2.18914e-12 2.15374e-12 1.34875e-12 0 0 1.77741e-12 2.90969e-12 2.95221e-12 1.81751e-12 0 0 2.56383e-12 4.18286e-12 4.24059e-12 2.58252e-12 0 0 3.53611e-12 5.72409e-12 5.81204e-12 3.50561e-12 0 0 4.7976e-12 7.76246e-12 7.84091e-12 4.80767e-12 0 0 4.12514e-12 6.62552e-12 6.66135e-12 4.16542e-12 0 0 -3.84337e-12 -6.26347e-12 -6.24467e-12 -3.8287e-12 0 0 -1.59447e-11 -2.58671e-11 -2.58543e-11 -1.59545e-11 0 0 -2.68274e-11 -4.34776e-11 -4.34699e-11 -2.68606e-11 0 0 -3.13706e-11 -5.0814e-11 -5.0811e-11 -3.13173e-11 0 0 -2.95605e-11 -4.78366e-11 -4.78653e-11 -2.94755e-11 0 0 -2.5009e-11 -4.05084e-11 -4.04787e-11 -2.49745e-11 0 0 -1.99917e-11 -3.24189e-11 -3.23464e-11 -1.99755e-11 0 0 -1.54083e-11 -2.49271e-11 -2.49287e-11 -1.53723e-11 0 0 -1.15174e-11 -1.86136e-11 -1.86356e-11 -1.14553e-11 0 0 -8.38784e-12 -1.35318e-11 -1.35251e-11 -8.37912e-12 0 0 -5.88982e-12 -9.4749e-12 -9.47388e-12 -5.9014e-12 0 0 -3.90296e-12 -6.25261e-12 -6.28056e-12 -3.85154e-12 0 0 -2.30853e-12 -3.68695e-12 -3.70172e-12 -2.23959e-12 0 0 -1.02878e-12 -1.62244e-12 -1.65005e-12 -1.00948e-12 0 0 -3.49242e-14 -2.99294e-14 -3.35818e-14 -2.24092e-14 0 0 7.49868e-13 1.24391e-12 1.27745e-12 8.05319e-13 0 0 1.3737e-12 2.25475e-12 2.30082e-12 1.38111e-12 0 0 1.84777e-12 3.02735e-12 3.06322e-12 1.7948e-12 0 0 2.19471e-12 3.58003e-12 3.60345e-12 2.21759e-12 0 0 2.45759e-12 3.98414e-12 3.99986e-12 2.47273e-12 0 0 2.62495e-12 4.24511e-12 4.2548e-12 2.62272e-12 0 0 2.68068e-12 4.34976e-12 4.34953e-12 2.6871e-12 0 0 2.61665e-12 4.30839e-12 4.27238e-12 2.64314e-12 0 0 2.56167e-12 4.18279e-12 4.15773e-12 2.58174e-12 0 0 2.50462e-12 3.99064e-12 3.9907e-12 2.53456e-12 0 0 2.26502e-12 3.55382e-12 3.5946e-12 2.26988e-12 0 0 1.97753e-12 3.07154e-12 3.1429e-12 1.927e-12 0 0 1.65347e-12 2.6233e-12 2.62893e-12 1.62863e-12 0 0 1.2746e-12 1.9887e-12 2.00749e-12 1.29077e-12 0 0 8.07798e-13 1.20889e-12 1.23541e-12 8.47917e-13 0 0 2.14622e-13 3.29677e-13 3.0743e-13 2.07433e-13 0 0 -3.82619e-13 -6.13544e-13 -6.29163e-13 -4.11003e-13 0 0 -9.78418e-13 -1.56651e-12 -1.55767e-12 -9.81616e-13 0 0 -1.52553e-12 -2.49273e-12 -2.46773e-12 -1.52768e-12 0 0 -1.97124e-12 -3.14553e-12 -3.17235e-12 -1.99941e-12 0 0 -2.34483e-12 -3.7268e-12 -3.73645e-12 -2.32785e-12 0 0 -2.8003e-12 -4.48995e-12 -4.50393e-12 -2.75451e-12 0 0 -3.28056e-12 -5.26137e-12 -5.36186e-12 -3.24776e-12 0 0 -3.71752e-12 -6.07246e-12 -6.10865e-12 -3.75014e-12 0 0 -4.18481e-12 -6.91227e-12 -6.81471e-12 -4.28308e-12 0 0 -4.63375e-12 -7.70591e-12 -7.54292e-12 -4.74979e-12 0 0 -5.11891e-12 -8.39196e-12 -8.33569e-12 -5.13941e-12 0 0 -5.65029e-12 -9.07366e-12 -9.10541e-12 -5.65938e-12 0 0 -6.12608e-12 -9.86633e-12 -9.76841e-12 -6.21063e-12 0 0 -6.438e-12 -1.04998e-11 -1.02509e-11 -6.54368e-12 0 0 -6.70638e-12 -1.08679e-11 -1.068e-11 -6.71006e-12 0 0 -6.92473e-12 -1.11313e-11 -1.10855e-11 -6.84519e-12 0 0 -7.01714e-12 -1.13492e-11 -1.1277e-11 -7.02543e-12 0 0 -7.03764e-12 -1.1466e-11 -1.13048e-11 -7.20612e-12 0 0 -7.0004e-12 -1.14375e-11 -1.12071e-11 -7.18026e-12 0 0 -6.71847e-12 -1.08999e-11 -1.07272e-11 -6.84173e-12 0 0 -6.5765e-12 -1.04533e-11 -1.04645e-11 -6.5774e-12 0 0 -6.00379e-12 -9.46173e-12 -9.54072e-12 -5.80015e-12 0 0 -5.41403e-12 -8.57667e-12 -8.56463e-12 -5.30155e-12 0 0 -4.6651e-12 -7.42928e-12 -7.44883e-12 -4.66974e-12 0 0 -3.87681e-12 -6.2571e-12 -6.18504e-12 -3.83924e-12 0 0 -2.91715e-12 -4.70075e-12 -4.54203e-12 -2.87018e-12 0 0 -2.03518e-12 -3.2573e-12 -3.21581e-12 -2.06904e-12 0 0 -1.23308e-12 -1.91917e-12 -1.95242e-12 -1.2228e-12 0 0 -6.36112e-13 -9.61808e-13 -1.05267e-12 -5.79558e-13 0 0 -2.53691e-13 -3.51695e-13 -4.59154e-13 -1.91007e-13 0 0 -9.84338e-14 -1.07941e-13 -1.05308e-13 -5.44051e-14 0 0 -3.42835e-14 -4.99524e-14 -2.30258e-14 -2.95713e-14 0 0 -3.22891e-14 -3.22319e-14 -6.97349e-14 3.92642e-14 0 0 -4.41956e-14 -4.1408e-14 -9.12829e-14 2.0931e-14 0 0 -3.9007e-14 -6.56463e-14 -7.65887e-14 -4.35658e-14 0 0 -4.72826e-14 -7.08692e-14 -6.67824e-14 -8.76125e-14 0 0 -5.60888e-14 -5.07085e-14 -1.02672e-13 -9.63865e-14 0 0 -5.56024e-14 -7.32248e-14 -1.06546e-13 -5.60218e-14 0 0 -5.60286e-14 -9.375e-14 -8.32846e-14 -5.39423e-14 0 0 -4.99882e-14 -1.02343e-13 -7.24622e-14 -7.37624e-14 0 0 -5.28563e-14 -9.10301e-14 -1.08452e-13 -3.35563e-14 0 0 -5.74459e-14 -6.86114e-14 -1.32003e-13 -3.83352e-14 0 0 -4.89524e-14 -8.15858e-14 -1.14176e-13 -3.34336e-14 0 0 -3.0937e-14 -1.01766e-13 -1.14219e-13 -9.89241e-15 0 0 -5.13536e-14 -7.06868e-14 -1.06057e-13 -3.33478e-14 0 0 -7.18109e-14 -4.30578e-14 -1.07399e-13 -1.89293e-14 0 0 -5.05118e-14 -6.41474e-14 -1.19985e-13 7.43208e-16 0 0 -5.76353e-14 -3.99474e-14 -1.17995e-13 2.00856e-14 0 0 -4.76686e-14 -4.2023e-14 -1.27169e-13 6.86346e-14 0 0 -3.13244e-14 -5.47396e-14 -1.05515e-13 3.57252e-14 0 0 -2.3351e-14 -6.48793e-14 -5.40653e-14 6.91671e-15 0 0 1.29501e-15 -1.03755e-13 -1.26992e-14 2.20106e-14 0 0 -5.69046e-15 -9.34154e-14 1.06738e-14 2.45488e-14 0 0 -3.06833e-14 -5.20851e-14 4.89172e-15 4.04672e-14 0 0 -2.29142e-14 -5.25715e-14 3.95315e-14 4.1308e-14 0 0 -2.33692e-14 -2.31491e-14 5.03954e-14 2.53873e-14 0 0 -3.12628e-14 1.38497e-14 -2.79958e-14 5.13492e-14 0 0 -2.6756e-14 -2.97005e-14 -2.73302e-14 4.35406e-14 0 0 -5.49359e-14 -6.94779e-15 -3.05621e-14 -1.79808e-14 0 0 -5.75502e-14 3.7417e-14 -9.9008e-14 1.45478e-15 0 0 -2.5477e-14 4.72452e-15 -7.19803e-14 1.55882e-14 0 0 -9.19186e-15 -6.7985e-15 -3.50353e-14 1.08352e-14 0 0 -9.29614e-15 1.40903e-14 -5.05413e-14 1.61582e-14 0
				</DataArray>
				<DataArray Name="VitesseY" type="Float32" format="ascii">