<?xml version="1.0"?>
<VTKFile type="PolyData">
	<PolyData>
		<Piece NumberOfPoints="1206" NumberOfPolys="1000">
			<Points>
				<DataArray type="Float32" NumberOfComponents="3" format="ascii">
 0 0 0 0.02 0 0 0.04 0 0 0.06 0 0 0.08 0 0 0.1 0 0 0 0.005 0 0.02 0.005 0 0.04 0.005 0 0.06 0.005 0 0.08 0.005 0 0.1 0.005 0 0 0.01 0 0.02 0.01 0 0.04 0.01 0 0.06 0.01 0 0.08 0.01 0 0.1 0.01 0 0 0.015 0 0.02 0.015 0 0.04 0.015 0 0.06 0.015 0 0.08 0.015 0 0.1 0.015 0 0 0.02 0 0.02 0.02 0 0.04 0.02 0 0.06 0.02 0 0.08 0.02 0 0.1 0.02 0 0 0.025 0 0.02 0.025 0 0.04 0.025 0 0.06 0.025 0 0.08 0.025 0 0.1 0.025 0 0 0.03 0 0.02 0.03 0 0.04 0.03 0 0.06 0.03 0 0.08 0.03 0 0.1 0.03 0 0 0.035 0 0.02 0.035 0 0.04 0.035 0 0.06 0.035 0 0.08 0.035 0 0.1 0.035 0 0 0.04 0 0.02 0.04 0 0.04 0.04 0 0.06 0.04 0 0.08 0.04 0 0.1 0.04 0 0 0.045 0 0.02 0.045 0 0.04 0.045 0 0.06 0.045 0 0.08 0.045 0 0.1 0.045 0 0 0.05 0 0.02 0.05 0 0.04 0.05 0 0.06 0.05 0 0.08 0.05 0 0.1 0.05 0 0 0.055 0 0.02 0.055 0 0.04 0.055 0 0.06 0.055 0 0.08 0.055 0 0.1 0.055 0 0 0.06 0 0.02 0.06 0 0.04 0.06 0 0.06 0.06 0 0.08 0.06 0 0.1 0.06 0 0 0.065 0 0.02 0.065 0 0.04 0.065 0 0.06 0.065 0 0.08 0.065 0 0.1 0.065 0 0 0.07 0 0.02 0.07 0 0.04 0.07 0 0.06 0.07 0 0.08 0.07 0 0.1 0.07 0 0 0.075 0 0.02 0.075 0 0.04 0.075 0 0.06 0.075 0 0.08 0.075 0 0.1 0.075 0 0 0.08 0 0.02 0.08 0 0.04 0.08 0 0.06 0.08 0 0.08 0.08 0 0.1 0.08 0 0 0.085 0 0.02 0.085 0 0.04 0.085 0 0.06 0.085 0 0.08 0.085 0 0.1 0.085 0 0 0.09 0 0.02 0.09 0 0.04 0.09 0 0.06 0.09 0 0.08 0.09 0 0.1 0.09 0 0 0.095 0 0.02 0.095 0 0.04 0.095 0 0.06 0.095 0 0.08 0.095 0 0.1 0.095 0 0 0.1 0 0.02 0.1 0 0.04 0.1 0 0.06 0.1 0 0.08 0.1 0 0.1 0.1 0 0 0.105 0 0.02 0.105 0 0.04 0.105 0 0.06 0.105 0 0.08 0.105 0 0.1 0.105 0 0 0.11 0 0.02 0.11 0 0.04 0.11 0 0.06 0.11 0 0.08 0.11 0 0.1 0.11 0 0 0.115 0 0.02 0.115 0 0.04 0.115 0 0.06 0.115 0 0.08 0.115 0 0.1 0.115 0 0 0.12 0 0.02 0.12 0 0.04 0.12 0 0.06 0.12 0 0.08 0.12 0 0.1 0.12 0 0 0.125 0 0.02 0.125 0 0.04 0.125 0 0.06 0.125 0 0.08 0.125 0 0.1 0.125 0 0 0.13 0 0.02 0.13 0 0.04 0.13 0 0.06 0.13 0 0.08 0.13 0 0.1 0.13 0 0 0.135 0 0.02 0.135 0 0.04 0.135 0 0.06 0.135 0 0.08 0.135 0 0.1 0.135 0 0 0.14 0 0.02 0.14 0 0.04 0.14 0 0.06 0.14 0 0.08 0.14 0 0.1 0.14 0 0 0.145 0 0.02 0.145 0 0.04 0.145 0 0.06 0.145 0 0.08 0.145 0 0.1 0.145 0 0 0.15 0 0.02 0.15 0 0.04 0.15 0 0.06 0.15 0 0.08 0.15 0 0.1 0.15 0 0 0.155 0 0.02 0.155 0 0.04 0.155 0 0.06 0.155 0 0.08 0.155 0 0.1 0.155 0 0 0.16 0 0.02 0.16 0 0.04 0.16 0 0.06 0.16 0 0.08 0.16 0 0.1 0.16 0 0 0.165 0 0.02 0.165 0 0.04 0.165 0 0.06 0.165 0 0.08 0.165 0 0.1 0.165 0 0 0.17 0 0.02 0.17 0 0.04 0.17 0 0.06 0.17 0 0.08 0.17 0 0.1 0.17 0 0 0.175 0 0.02 0.175 0 0.04 0.175 0 0.06 0.175 0 0.08 0.175 0 0.1 0.175 0 0 0.18 0 0.02 0.18 0 0.04 0.18 0 0.06 0.18 0 0.08 0.18 0 0.1 0.18 0 0 0.185 0 0.02 0.185 0 0.04 0.185 0 0.06 0.185 0 0.08 0.185 0 0.1 0.185 0 0 0.19 0 0.02 0.19 0 0.04 0.19 0 0.06 0.19 0 0.08 0.19 0 0.1 0.19 0 0 0.195 0 0.02 0.195 0 0.04 0.195 0 0.06 0.195 0 0.08 0.195 0 0.1 0.195 0 0 0.2 0 0.02 0.2 0 0.04 0.2 0 0.06 0.2 0 0.08 0.2 0 0.1 0.2 0 0 0.205 0 0.02 0.205 0 0.04 0.205 0 0.06 0.205 0 0.08 0.205 0 0.1 0.205 0 0 0.21 0 0.02 0.21 0 0.04 0.21 0 0.06 0.21 0 0.08 0.21 0 0.1 0.21 0 0 0.215 0 0.02 0.215 0 0.04 0.215 0 0.06 0.215 0 0.08 0.215 0 0.1 0.215 0 0 0.22 0 0.02 0.22 0 0.04 0.22 0 0.06 0.22 0 0.08 0.22 0 0.1 0.22 0 0 0.225 0 0.02 0.225 0 0.04 0.225 0 0.06 0.225 0 0.08 0.225 0 0.1 0.225 0 0 0.23 0 0.02 0.23 0 0.04 0.23 0 0.06 0.23 0 0.08 0.23 0 0.1 0.23 0 0 0.235 0 0.02 0.235 0 0.04 0.235 0 0.06 0.235 0 0.08 0.235 0 0.1 0.235 0 0 0.24 0 0.02 0.24 0 0.04 0.24 0 0.06 0.24 0 0.08 0.24 0 0.1 0.24 0 0 0.245 0 0.02 0.245 0 0.04 0.245 0 0.06 0.245 0 0.08 0.245 0 0.1 0.245 0 0 0.25 0 0.02 0.25 0 0.04 0.25 0 0.06 0.25 0 0.08 0.25 0 0.1 0.25 0 0 0.255 0 0.02 0.255 0 0.04 0.255 0 0.06 0.255 0 0.08 0.255 0 0.1 0.255 0 0 0.26 0 0.02 0.26 0 0.04 0.26 0 0.06 0.26 0 0.08 0.26 0 0.1 0.26 0 0 0.265 0 0.02 0.265 0 0.04 0.265 0 0.06 0.265 0 0.08 0.265 0 0.1 0.265 0 0 0.27 0 0.02 0.27 0 0.04 0.27 0 0.06 0.27 0 0.08 0.27 0 0.1 0.27 0 0 0.275 0 0.02 0.275 0 0.04 0.275 0 0.06 0.275 0 0.08 0.275 0 0.1 0.275 0 0 0.28 0 0.02 0.28 0 0.04 0.28 0 0.06 0.28 0 0.08 0.28 0 0.1 0.28 0 0 0.285 0 0.02 0.285 0 0.04 0.285 0 0.06 0.285 0 0.08 0.285 0 0.1 0.285 0 0 0.29 0 0.02 0.29 0 0.04 0.29 0 0.06 0.29 0 0.08 0.29 0 0.1 0.29 0 0 0.295 0 0.02 0.295 0 0.04 0.295 0 0.06 0.295 0 0.08 0.295 0 0.1 0.295 0 0 0.3 0 0.02 0.3 0 0.04 0.3 0 0.06 0.3 0 0.08 0.3 0 0.1 0.3 0 0 0.305 0 0.02 0.305 0 0.04 0.305 0 0.06 0.305 0 0.08 0.305 0 0.1 0.305 0 0 0.31 0 0.02 0.31 0 0.04 0.31 0 0.06 0.31 0 0.08 0.31 0 0.1 0.31 0 0 0.315 0 0.02 0.315 0 0.04 0.315 0 0.06 0.315 0 0.08 0.315 0 0.1 0.315 0 0 0.32 0 0.02 0.32 0 0.04 0.32 0 0.06 0.32 0 0.08 0.32 0 0.1 0.32 0 0 0.325 0 0.02 0.325 0 0.04 0.325 0 0.06 0.325 0 0.08 0.325 0 0.1 0.325 0 0 0.33 0 0.02 0.33 0 0.04 0.33 0 0.06 0.33 0 0.08 0.33 0 0.1 0.33 0 0 0.335 0 0.02 0.335 0 0.04 0.335 0 0.06 0.335 0 0.08 0.335 0 0.1 0.335 0 0 0.34 0 0.02 0.34 0 0.04 0.34 0 0.06 0.34 0 0.08 0.34 0 0.1 0.34 0 0 0.345 0 0.02 0.345 0 0.04 0.345 0 0.06 0.345 0 0.08 0.345 0 0.1 0.345 0 0 0.35 0 0.02 0.35 0 0.04 0.35 0 0.06 0.35 0 0.08 0.35 0 0.1 0.35 0 0 0.355 0 0.02 0.355 0 0.04 0.355 0 0.06 0.355 0 0.08 0.355 0 0.1 0.355 0 0 0.36 0 0.02 0.36 0 0.04 0.36 0 0.06 0.36 0 0.08 0.36 0 0.1 0.36 0 0 0.365 0 0.02 0.365 0 0.04 0.365 0 0.06 0.365 0 0.08 0.365 0 0.1 0.365 0 0 0.37 0 0.02 0.37 0 0.04 0.37 0 0.06 0.37 0 0.08 0.37 0 0.1 0.37 0 0 0.375 0 0.02 0.375 0 0.04 0.375 0 0.06 0.375 0 0.08 0.375 0 0.1 0.375 0 0 0.380001 0 0.02 0.380001 0 0.04 0.380001 0 0.06 0.380001 0 0.08 0.380001 0 0.1 0.380001 0 0 0.385005 0 0.02 0.385005 0 0.04 0.385005 0 0.06 0.385005 0 0.08 0.385005 0 0.1 0.385005 0 0 0.390019 0 0.02 0.390019 0 0.04 0.390019 0 0.06 0.390019 0 0.08 0.390019 0 0.1 0.390019 0 0 0.395058 0 0.02 0.395058 0 0.04 0.395058 0 0.06 0.395058 0 0.08 0.395058 0 0.1 0.395058 0 0 0.400153 0 0.02 0.400153 0 0.04 0.400153 0 0.06 0.400153 0 0.08 0.400153 0 0.1 0.400153 0 0 0.405349 0 0.02 0.405349 0 0.04 0.405349 0 0.06 0.405349 0 0.08 0.405349 0 0.1 0.405349 0 0 0.410697 0 0.02 0.410697 0 0.04 0.410697 0 0.06 0.410697 0 0.08 0.410697 0 0.1 0.410697 0 0 0.416245 0 0.02 0.416245 0 0.04 0.416245 0 0.06 0.416245 0 0.08 0.416245 0 0.1 0.416245 0 0 0.422036 0 0.02 0.422036 0 0.04 0.422036 0 0.06 0.422036 0 0.08 0.422036 0 0.1 0.422036 0 0 0.428109 0 0.02 0.428109 0 0.04 0.428109 0 0.06 0.428109 0 0.08 0.428109 0 0.1 0.428109 0 0 0.434505 0 0.02 0.434505 0 0.04 0.434505 0 0.06 0.434505 0 0.08 0.434505 0 0.1 0.434505 0 0 0.441268 0 0.02 0.441268 0 0.04 0.441268 0 0.06 0.441268 0 0.08 0.441268 0 0.1 0.441268 0 0 0.448452 0 0.02 0.448452 0 0.04 0.448452 0 0.06 0.448452 0 0.08 0.448452 0 0.1 0.448452 0 0 0.45612 0 0.02 0.45612 0 0.04 0.45612 0 0.06 0.45612 0 0.08 0.45612 0 0.1 0.45612 0 0 0.46435 0 0.02 0.46435 0 0.04 0.46435 0 0.06 0.46435 0 0.08 0.46435 0 0.1 0.46435 0 0 0.473236 0 0.02 0.473236 0 0.04 0.473236 0 0.06 0.473236 0 0.08 0.473236 0 0.1 0.473236 0 0 0.482891 0 0.02 0.482891 0 0.04 0.482891 0 0.06 0.482891 0 0.08 0.482891 0 0.1 0.482891 0 0 0.493444 0 0.02 0.493444 0 0.04 0.493444 0 0.06 0.493444 0 0.08 0.493444 0 0.1 0.493444 0 0 0.50499 0 0.02 0.50499 0 0.04 0.50499 0 0.06 0.50499 0 0.08 0.50499 0 0.1 0.50499 0 0 0.517386 0 0.02 0.517386 0 0.04 0.517386 0 0.06 0.517386 0 0.08 0.517386 0 0.1 0.517386 0 0 0.529869 0 0.02 0.529869 0 0.04 0.529869 0 0.06 0.529869 0 0.08 0.529869 0 0.1 0.529869 0 0 0.542087 0 0.02 0.542087 0 0.04 0.542087 0 0.06 0.542087 0 0.08 0.542087 0 0.1 0.542087 0 0 0.554091 0 0.02 0.554091 0 0.04 0.554091 0 0.06 0.554091 0 0.08 0.554091 0 0.1 0.554091 0 0 0.565982 0 0.02 0.565982 0 0.04 0.565982 0 0.06 0.565982 0 0.08 0.565982 0 0.1 0.565982 0 0 0.577829 0 0.02 0.577829 0 0.04 0.577829 0 0.06 0.577829 0 0.08 0.577829 0 0.1 0.577829 0 0 0.580113 0 0.02 0.580113 0 0.04 0.580113 0 0.06 0.580113 0 0.08 0.580113 0 0.1 0.580113 0 0 0.582398 0 0.02 0.582398 0 0.04 0.582398 0 0.06 0.582398 0 0.08 0.582398 0 0.1 0.582398 0 0 0.584682 0 0.02 0.584682 0 0.04 0.584682 0 0.06 0.584682 0 0.08 0.584682 0 0.1 0.584682 0 0 0.586967 0 0.02 0.586967 0 0.04 0.586967 0 0.06 0.586967 0 0.08 0.586967 0 0.1 0.586967 0 0 0.589251 0 0.02 0.589251 0 0.04 0.589251 0 0.06 0.589251 0 0.08 0.589251 0 0.1 0.589251 0 0 0.591533 0 0.02 0.591533 0 0.04 0.591533 0 0.06 0.591533 0 0.08 0.591533 0 0.1 0.591533 0 0 0.593812 0 0.02 0.593812 0 0.04 0.593812 0 0.06 0.593812 0 0.08 0.593812 0 0.1 0.593812 0 0 0.59609 0 0.02 0.59609 0 0.04 0.59609 0 0.06 0.59609 0 0.08 0.59609 0 0.1 0.59609 0 0 0.598373 0 0.02 0.598373 0 0.04 0.598373 0 0.06 0.598373 0 0.08 0.598373 0 0.1 0.598373 0 0 0.600656 0 0.02 0.600656 0 0.04 0.600656 0 0.06 0.600656 0 0.08 0.600656 0 0.1 0.600656 0 0 0.602939 0 0.02 0.602939 0 0.04 0.602939 0 0.06 0.602939 0 0.08 0.602939 0 0.1 0.602939 0 0 0.605222 0 0.02 0.605222 0 0.04 0.605222 0 0.06 0.605222 0 0.08 0.605222 0 0.1 0.605222 0 0 0.607506 0 0.02 0.607506 0 0.04 0.607506 0 0.06 0.607506 0 0.08 0.607506 0 0.1 0.607506 0 0 0.609791 0 0.02 0.609791 0 0.04 0.609791 0 0.06 0.609791 0 0.08 0.609791 0 0.1 0.609791 0 0 0.612076 0 0.02 0.612076 0 0.04 0.612076 0 0.06 0.612076 0 0.08 0.612076 0 0.1 0.612076 0 0 0.614363 0 0.02 0.614363 0 0.04 0.614363 0 0.06 0.614363 0 0.08 0.614363 0 0.1 0.614363 0 0 0.61665 0 0.02 0.61665 0 0.04 0.61665 0 0.06 0.61665 0 0.08 0.61665 0 0.1 0.61665 0 0 0.618938 0 0.02 0.618938 0 0.04 0.618938 0 0.06 0.618938 0 0.08 0.618938 0 0.1 0.618938 0 0 0.621226 0 0.02 0.621226 0 0.04 0.621226 0 0.06 0.621226 0 0.08 0.621226 0 0.1 0.621226 0 0 0.623511 0 0.02 0.623511 0 0.04 0.623511 0 0.06 0.623511 0 0.08 0.623511 0 0.1 0.623511 0 0 0.625802 0 0.02 0.625802 0 0.04 0.625802 0 0.06 0.625802 0 0.08 0.625802 0 0.1 0.625802 0 0 0.6281 0 0.02 0.6281 0 0.04 0.6281 0 0.06 0.6281 0 0.08 0.6281 0 0.1 0.6281 0 0 0.630453 0 0.02 0.630453 0 0.04 0.630453 0 0.06 0.630453 0 0.08 0.630453 0 0.1 0.630453 0 0 0.632904 0 0.02 0.632904 0 0.04 0.632904 0 0.06 0.632904 0 0.08 0.632
[...]
			<PointData Scalars="VitesseX">
				<DataArray Name="VitesseX" type="Float32" format="ascii">
 0 -1.57269e-15 4.13737e-16 3.54657e-15 8.00296e-15 0 0 -2.03347e-15 1.29798e-15 3.13382e-15 8.42051e-15 0 0 -1.28635e-15 1.24127e-15 3.76744e-15 8.23435e-15 0 0 -6.82868e-17 5.86291e-16 4.90035e-15 7.98863e-15 0 0 4.45844e-16 1.45891e-15 4.34341e-15 8.23167e-15 0 0 9.60711e-16 1.23458e-15 6.00278e-15 6.33029e-15 0 0 4.70528e-16 1.27424e-15 6.8092e-15 3.74945e-15 0 0 -3.54713e-16 1.74893e-15 3.87515e-15 4.59608e-15 0 0 6.03208e-16 2.39688e-15 -9.26808e-16 7.38051e-15 0 0 5.6582e-16 5.20584e-15 -4.66644e-15 8.18358e-15 0 0 -8.96608e-17 7.28368e-15 -7.51611e-15 1.07121e-14 0 0 3.89327e-16 4.71061e-15 -2.49944e-15 6.63406e-15 0 0 -1.71106e-15 5.36744e-15 2.5113e-15 -1.59877e-15 0 0 -4.3034e-15 6.77771e-15 3.78886e-15 -3.63697e-15 0 0 -2.56104e-15 4.40968e-15 4.06099e-15 5.10766e-17 0 0 8.45607e-16 3.41438e-15 2.37945e-15 4.88373e-15 0 0 6.11625e-16 4.39634e-15 -1.81136e-15 8.87844e-15 0 0 1.15962e-16 4.7051e-15 -4.25793e-15 9.85274e-15 0 0 1.25231e-16 2.87658e-15 1.59508e-15 7.67125e-15 0 0 8.92119e-17 1.55109e-15 4.28009e-15 7.69808e-15 0 0 3.64331e-15 9.2705e-17 5.90363e-15 3.86774e-15 0 0 4.54437e-15 -1.46361e-15 1.05139e-14 -1.38727e-15 0 0 8.77811e-16 2.20658e-15 5.94624e-15 9.95545e-16 0 0 6.9125e-16 2.36883e-15 4.28046e-15 2.44954e-15 0 0 -3.61821e-15 5.20597e-15 5.48738e-15 3.08715e-15 0 0 -6.39414e-15 8.71993e-15 -1.42933e-15 7.66154e-15 0 0 2.40319e-16 -2.4233e-15 3.04103e-15 1.02557e-14 0 0 1.32146e-15 -2.72686e-15 -3.6072e-16 2.11118e-14 0 0 -1.10642e-15 2.10203e-15 4.18152e-16 1.70166e-14 0 0 -2.25679e-15 3.61054e-15 4.69156e-15 2.21714e-15 0 0 -1.4558e-15 2.20114e-15 7.29874e-15 -7.25862e-15 0 0 1.28226e-15 -1.06859e-15 8.54567e-15 -4.50919e-15 0 0 3.53742e-15 6.20575e-15 -9.03871e-15 9.75457e-15 0 0 1.69454e-15 8.33846e-15 -6.97985e-15 1.6841e-15 0 0 7.54392e-16 3.08354e-15 6.43583e-15 -9.6485e-15 0 0 1.67669e-15 2.8287e-15 6.33661e-15 -9.77376e-15 0 0 2.92599e-15 2.7657e-15 1.25466e-14 -2.21819e-14 0 0 2.39648e-15 5.58622e-15 1.43922e-14 -2.54304e-14 0 0 3.12213e-15 5.68328e-15 8.33019e-16 -3.93839e-15 0 0 3.13982e-15 8.32245e-16 -3.53978e-15 8.68068e-15 0 0 -6.01688e-16 9.25416e-16 1.99087e-15 1.38605e-14 0 0 7.53138e-15 -1.90232e-15 2.52088e-15 1.86998e-14 0 0 1.20008e-14 -3.14885e-15 5.47191e-15 3.59158e-15 0 0 1.06015e-14 3.0449e-15 2.14488e-15 -9.72129e-15 0 0 7.09871e-15 1.4935e-14 -1.48733e-14 2.69384e-15 0 0 3.33505e-15 1.01935e-14 -5.76403e-15 5.27353e-15 0 0 2.82554e-15 4.55132e-15 1.18527e-14 -5.19505e-15 0 0 9.52595e-15 -2.64736e-15 1.88519e-14 -7.20564e-15 0 0 9.20649e-15 -7.38595e-15 1.62649e-14 -7.21896e-16 0 0 1.24137e-15 2.86987e-15 3.95555e-15 1.18731e-14 0 0 -2.67673e-15 9.17216e-15 -1.83465e-15 2.43934e-14 0 0 -3.3581e-15 -3.23731e-15 2.13845e-14 1.07097e-14 0 0 -6.71496e-15 -9.86508e-15 3.98143e-14 -4.30362e-15 0 0 -1.04473e-14 7.82766e-15 2.16882e-14 -8.12133e-16 0 0 -5.41733e-15 7.06504e-15 1.87402e-14 -1.68586e-14 0 0 -6.21101e-15 5.2148e-15 1.67533e-14 -2.65682e-14 0 0 -1.04908e-14 1.78401e-14 -2.23166e-15 -8.99622e-15 0 0 -7.88137e-15 1.38415e-14 1.82238e-15 7.7088e-16 0 0 9.66669e-15 -1.79249e-14 3.60182e-14 -1.34105e-14 0 0 1.90168e-15 -1.22588e-14 4.25445e-14 -1.00576e-14 0 0 -5.30922e-15 1.60168e-14 1.60864e-14 1.4823e-14 0 0 7.74204e-15 1.73353e-14 5.61555e-15 2.26088e-14 0 0 1.17766e-14 2.27854e-15 3.75806e-14 3.78476e-15 0 0 1.99462e-14 9.35087e-16 3.95439e-14 -3.25217e-15 0 0 2.37835e-14 1.6787e-14 1.99144e-14 3.59778e-15 0 0 1.88211e-14 1.95853e-14 3.40289e-14 9.27093e-15 0 0 1.71218e-14 1.26883e-14 3.561e-14 1.80649e-14 0 0 1.06178e-14 1.5493e-16 3.63166e-14 1.51303e-14 0 0 -1.38438e-14 -1.55911e-14 3.08566e-14 5.10136e-15 0 0 -2.60351e-15 -3.77769e-14 2.02648e-14 -3.46076e-14 0 0 2.91864e-14 -4.12986e-14 1.69083e-14 -5.29156e-14 0 0 2.88504e-15 -1.9192e-14 1.17387e-14 -1.67603e-14 0 0 -2.40193e-14 -2.22363e-14 1.54342e-15 2.32663e-14 0 0 -4.34424e-14 -2.86169e-14 -2.06639e-14 3.62246e-14 0 0 -1.99627e-14 -2.7803e-14 -1.91599e-14 8.80409e-15 0 0 1.92896e-14 -3.30702e-14 -4.8064e-15 3.3248e-15 0 0 -7.83456e-15 -3.3239e-14 -2.1856e-15 1.08961e-14 0 0 -4.04319e-14 -1.07465e-14 4.95167e-15 -9.79645e-15 0 0 -1.07278e-14 8.36107e-15 -7.59401e-16 -2.38069e-14 0 0 5.76477e-15 -2.16728e-14 -1.62059e-15 7.20433e-15 0 0 -2.54386e-14 -3.04083e-14 -7.59827e-15 3.98955e-14 0 0 -3.61597e-14 8.79487e-15 -2.85799e-14 1.94128e-14 0 0 -2.271e-14 -9.75451e-15 -1.5262e-14 3.75279e-14 0 0 -1.91766e-14 -1.08505e-14 -3.6994e-15 3.5488e-14 0 0 -2.23118e-14 1.41755e-14 -1.50613e-14 9.09896e-16 0 0 6.55825e-15 -1.67458e-14 -2.43351e-15 -1.45358e-14 0 0 1.81221e-14 -1.99808e-14 -1.36811e-14 -6.95375e-15 0 0 -4.77478e-15 -1.76174e-14 -2.61132e-14 2.1716e-14 0 0 -1.51468e-14 -2.75365e-14 9.87593e-15 -8.50467e-15 0 0 -8.44452e-15 -1.56198e-14 -8.99892e-15 -1.49684e-14 0 0 5.07064e-15 -3.6734e-14 -2.52995e-14 6.12512e-16 0 0 5.11785e-15 -2.77779e-14 -2.48388e-15 -1.95335e-14 0 0 -1.68673e-14 -3.94071e-15 -3.32539e-14 -1.3685e-14 0 0 -8.53581e-14 -1.29246e-13 -1.42482e-13 -7.77348e-14 0 0 -3.99987e-13 -6.415e-13 -6.31206e-13 -3.92427e-13 0 0 -6.95927e-13 -1.09859e-12 -1.11405e-12 -6.8424e-13 0 0 7.01306e-13 1.13737e-12 1.1486e-12 6.78529e-13 0 0 5.70534e-12 9.22934e-12 9.24286e-12 5.68327e-12 0 0 1.24582e-11 2.01675e-11 2.01566e-11 1.24659e-11 0 0 1.56705e-11 2.53544e-11 2.535e-11 1.56838e-11 0 0 1.64602e-11 2.66052e-11 2.66088e-11 1.6449e-11 0 0 2.17573e-11 3.51966e-11 3.52452e-11 2.17188e-11 0 0 2.14504e-11 3.47326e-11 3.47202e-11 2.14873e-11 0 0 2.16596e-11 3.50695e-11 3.50476e-11 2.16547e-11 0 0 2.22184e-11 3.59456e-11 3.59328e-11 2.2203e-11 0 0 2.32247e-11 3.75712e-11 3.75664e-11 2.3252e-11 0 0 2.23872e-11 3.62532e-11 3.6253e-11 2.24415e-11 0 0 1.44139e-11 2.33692e-11 2.33482e-11 1.44585e-11 0 0 2.39824e-12 3.90628e-12 3.91074e-12 2.39171e-12 0 0 -8.29003e-12 -1.33785e-11 -1.33509e-11 -8.27459e-12 0 0 -1.24231e-11 -2.00907e-11 -2.0142e-11 -1.23697e-11 0 0 -1.00401e-11 -1.62705e-11 -1.63232e-11 -1.00369e-11 0 0 -4.86529e-12 -7.86289e-12 -7.91477e-12 -4.87492e-12 0 0 7.34108e-13 1.27457e-12 1.12944e-12 8.19183e-13 0 0 5.91773e-12 9.68373e-12 9.52431e-12 6.00041e-12 0 0 1.04639e-11 1.6957e-11 1.68756e-11 1.05252e-11 0 0 1.43269e-11 2.31634e-11 2.30877e-11 1.43796e-11 0 0 1.74016e-11 2.81038e-11 2.80102e-11 1.73904e-11 0 0 1.95223e-11 3.15232e-11 3.15079e-11 1.94855e-11 0 0 2.10612e-11 3.40112e-11 3.40368e-11 2.1011e-11 0 0 2.20231e-11 3.55794e-11 3.56173e-11 2.19146e-11 0 0 2.24942e-11 3.64009e-11 3.6367e-11 2.24018e-11 0 0 2.20929e-11 3.57708e-11 3.57061e-11 2.20419e-11 0 0 2.08878e-11 3.37655e-11 3.37453e-11 2.08601e-11 0 0 2.02011e-11 3.2635e-11 3.25866e-11 2.01504e-11 0 0 1.79197e-11 2.90246e-11 2.89061e-11 1.78517e-11 0 0 1.56442e-11 2.53551e-11 2.52394e-11 1.56642e-11 0 0 1.28698e-11 2.0816e-11 2.07675e-11 1.28568e-11 0 0 9.85561e-12 1.59562e-11 1.58783e-11 9.82494e-12 0 0 6.63946e-12 1.07511e-11 1.0728e-11 6.62946e-12 0 0 3.92436e-12 6.32965e-12 6.37012e-12 3.91119e-12 0 0 1.86037e-12 3.01158e-12 2.9906e-12 1.86363e-12 0 0 6.33812e-13 1.03521e-12 1.01787e-12 6.62187e-13 0 0 9.07829e-14 1.48567e-13 1.43793e-13 1.39862e-13 0 0 -5.49945e-14 -7.13179e-14 -1.10416e-13 -3.20243e-14 0 0 -6.78021e-14 -6.46742e-14 -1.0632e-13 -4.84562e-14 0 0 -5.01253e-14 -4.21177e-14 -5.83858e-14 -2.57676e-14 0 0 -3.08714e-14 -3.44974e-14 -1.74765e-14 3.81066e-15 0 0 -1.80185e-14 -2.38629e-14 1.10911e-14 -7.40785e-15 0 0 -1.80677e-14 -1.99351e-14 1.81874e-14 -2.75255e-14 0 0 -2.69012e-14 -6.92376e-15 2.25578e-14 -3.02903e-14 0 0 -2.25844e-14 -1.49072e-14 3.57624e-14 -3.52936e-14 0 0 -1.52887e-14 -4.16982e-14 6.48877e-14 -3.70262e-14 0 0 -1.04621e-14 -4.61679e-14 8.01137e-14 -6.4823e-14 0 0 -1.63595e-14 -1.66699e-14 3.72268e-14 -2.4272e-14 0 0 -3.86116e-14 2.84125e-14 -8.59312e-15 1.85989e-14 0 0 -1.92211e-14 2.05627e-15 1.58152e-14 -1.90152e-14 0 0 3.04113e-15 -1.82067e-14 4.71248e-14 -3.38571e-14 0 0 9.2603e-15 3.17109e-15 1.75771e-14 -2.3804e-15 0 0 1.80356e-14 7.23901e-15 -1.03215e-14 4.19424e-14 0 0 -4.51999e-15 2.24618e-14 1.55911e-14 3.78102e-14 0 0 -1.60672e-14 2.52901e-14 6.49954e-14 2.28712e-14 0 0 -1.67947e-14 8.62468e-15 8.93673e-14 4.06614e-14 0 0 -9.55172e-15 -9.38002e-15 1.29918e-13 1.846e-14 0 0 1.63825e-14 2.24209e-15 1.47036e-13 -9.62744e-15 0 0 2.91055e-14 1.63925e-14 9.81613e-14 2.33117e-14 0 0 3.44742e-15 4.648e-14 1.56819e-14 9.88743e-14 0 0 -7.28391e-15 5.57835e-14 -1.16008e-14 1.13564e-13 0 0 1.26357e-14 1.30957e-14 1.94123e-14 1.25347e-13 0 0 8.09803e-16 2.27821e-14 2.59672e-14 1.09197e-13 0 0 -1.98684e-14 3.17717e-14 7.19612e-14 1.40874e-14 0 0 9.05537e-15 3.2661e-15 1.32234e-13 -9.19143e-14 0 0 7.84409e-15 4.31544e-14 7.57465e-14 -1.00481e-13 0 0 2.75135e-14 1.44632e-14 6.6885e-14 -6.55421e-14 0 0 7.11303e-14 -5.30242e-14 1.2183e-13 -8.0752e-14 0 0 1.4226e-14 -9.05899e-15 1.2779e-13 -5.88292e-14 0 0 -7.93895e-15 2.6947e-14 1.05936e-13 -3.66662e-14 0 0 -3.95859e-15 5.67579e-14 5.40595e-14 1.26562e-14 0 0 4.18474e-14 -2.19416e-14 1.01527e-13 3.133e-15 0 0 6.83577e-14 -3.54826e-14 5.59616e-14 7.00213e-14 0 0 4.49011e-14 6.05117e-14 -3.82852e-14 1.58841e-13 0 0 5.47281e-14 4.53501e-14 1.18516e-14 1.15795e-13 0 0 3.53203e-14 -2.72329e-15 9.37395e-14 9.12047e-14 0 0 1.27397e-14 1.10512e-14 9.67385e-14 7.15115e-14 0 0 2.16741e-14 1.88465e-14 8.16928e-14 8.08745e-14 0 0 1.08228e-16 3.15248e-14 8.2317e-14 5.08341e-14 0 0 -5.67594e-15 2.5527e-14 7.19839e-14 -6.23099e-15 0 0 3.11328e-14 -3.55694e-14 1.15667e-13 -2.31231e-14 0 0 3.55754e-14 -1.71152e-14 1.49789e-13 -6.71502e-14 0 0 2.70658e-14 4.25739e-14 9.76892e-14 -1.06786e-13 0 0 4.11463e-14 5.21301e-14 1.25572e-14 -2.81984e-14 0 0 1.16808e-14 6.33105e-14 1.3546e-14 3.56741e-14 0 0 -2.07384e-14 6.65132e-14 4.6346e-14 2.69332e-14 0 0 -2.0586e-14 4.05129e-14 5.02193e-14 2.284e-14 0 0 -3.83003e-14 3.68715e-14 4.81065e-14 4.15518e-14 0 0 -2.57314e-14 4.66666e-14 3.38047e-15 7.84418e-14 0 0 -3.202e-14 3.22103e-14 2.48738e-14 7.00742e-14 0 0 -1.69042e-14 -7.39007e-15 4.07274e-14 1.13877e-13 0 0 2.41049e-14 -6.76184e-14 2.95297e-14 1.51238e-13 0 0 -1.65386e-14 -2.16301e-14 2.76972e-14 7.87525e-14 0 0 -3.37677e-14 4.41282e-14 2.6386e-14 -5.91486e-15 0 0 -2.48345e-14 4.41985e-14 5.66078e-14 -3.12799e-14 0 0 -1.28098e-14 6.60674e-14 2.98388e-14 -7.44568e-15 0 0 3.73196e-14 1.31138e-14 4.59969e-14 -1.03634e-14 0 0 7.23196e-15 6.12844e-15 4.54651e-14 1.72819e-15 0 0 -1.25539e-14 1.90386e-14 7.07934e-15 4.66784e-14 0 0 2.85661e-14 -5.13483e-15 1.70209e-15 5.31456e-14 0 0 6.14061e-14 -7.20922e-15 1.96083e-14 4.7233e-14 0 0 4.41073e-14 1.43599e-14 9.75164e-15 9.24369e-14 0 0 2.8604e-14 2.28883e-14 4.65712e-15 1.10455e-13 0 0 4.3943e-14 1.16723e-14 2.74491e-14 8.25849e-14 0
				</DataArray>
				<DataArray Name="VitesseY" type="Float32" format="ascii">