<?xml version="1.0"?>
<VTKFile type="PolyData">
	<PolyData>
		<Piece NumberOfPoints="1206" NumberOfPolys="1000">
			<Points>
				<DataArray type="Float32" NumberOfComponents="3" format="ascii">
 0 0 0 0.02 0 0 0.04 0 0 0.06 0 0 0.08 0 0 0.1 0 0 0 0.005 0 0.02 0.005 0 0.04 0.005 0 0.06 0.005 0 0.08 0.005 0 0.1 0.005 0 0 0.01 0 0.02 0.01 0 0.04 0.01 0 0.06 0.01 0 0.08 0.01 0 0.1 0.01 0 0 0.015 0 0.02 0.015 0 0.04 0.015 0 0.06 0.015 0 0.08 0.015 0 0.1 0.015 0 0 0.02 0 0.02 0.02 0 0.04 0.02 0 0.06 0.02 0 0.08 0.02 0 0.1 0.02 0 0 0.025 0 0.02 0.025 0 0.04 0.025 0 0.06 0.025 0 0.08 0.025 0 0.1 0.025 0 0 0.03 0 0.02 0.03 0 0.04 0.03 0 0.06 0.03 0 0.08 0.03 0 0.1 0.03 0 0 0.035 0 0.02 0.035 0 0.04 0.035 0 0.06 0.035 0 0.08 0.035 0 0.1 0.035 0 0 0.04 0 0.02 0.04 0 0.04 0.04 0 0.06 0.04 0 0.08 0.04 0 0.1 0.04 0 0 0.045 0 0.02 0.045 0 0.04 0.045 0 0.06 0.045 0 0.08 0.045 0 0.1 0.045 0 0 0.05 0 0.02 0.05 0 0.04 0.05 0 0.06 0.05 0 0.08 0.05 0 0.1 0.05 0 0 0.055 0 0.02 0.055 0 0.04 0.055 0 0.06 0.055 0 0.08 0.055 0 0.1 0.055 0 0 0.06 0 0.02 0.06 0 0.04 0.06 0 0.06 0.06 0 0.08 0.06 0 0.1 0.06 0 0 0.065 0 0.02 0.065 0 0.04 0.065 0 0.06 0.065 0 0.08 0.065 0 0.1 0.065 0 0 0.07 0 0.02 0.07 0 0.04 0.07 0 0.06 0.07 0 0.08 0.07 0 0.1 0.07 0 0 0.075 0 0.02 0.075 0 0.04 0.075 0 0.06 0.075 0 0.08 0.075 0 0.1 0.075 0 0 0.08 0 0.02 0.08 0 0.04 0.08 0 0.06 0.08 0 0.08 0.08 0 0.1 0.08 0 0 0.085 0 0.02 0.085 0 0.04 0.085 0 0.06 0.085 0 0.08 0.085 0 0.1 0.085 0 0 0.09 0 0.02 0.09 0 0.04 0.09 0 0.06 0.09 0 0.08 0.09 0 0.1 0.09 0 0 0.095 0 0.02 0.095 0 0.04 0.095 0 0.06 0.095 0 0.08 0.095 0 0.1 0.095 0 0 0.1 0 0.02 0.1 0 0.04 0.1 0 0.06 0.1 0 0.08 0.1 0 0.1 0.1 0 0 0.105 0 0.02 0.105 0 0.04 0.105 0 0.06 0.105 0 0.08 0.105 0 0.1 0.105 0 0 0.11 0 0.02 0.11 0 0.04 0.11 0 0.06 0.11 0 0.08 0.11 0 0.1 0.11 0 0 0.115 0 0.02 0.115 0 0.04 0.115 0 0.06 0.115 0 0.08 0.115 0 0.1 0.115 0 0 0.12 0 0.02 0.12 0 0.04 0.12 0 0.06 0.12 0 0.08 0.12 0 0.1 0.12 0 0 0.125 0 0.02 0.125 0 0.04 0.125 0 0.06 0.125 0 0.08 0.125 0 0.1 0.125 0 0 0.13 0 0.02 0.13 0 0.04 0.13 0 0.06 0.13 0 0.08 0.13 0 0.1 0.13 0 0 0.135 0 0.02 0.135 0 0.04 0.135 0 0.06 0.135 0 0.08 0.135 0 0.1 0.135 0 0 0.14 0 0.02 0.14 0 0.04 0.14 0 0.06 0.14 0 0.08 0.14 0 0.1 0.14 0 0 0.145 0 0.02 0.145 0 0.04 0.145 0 0.06 0.145 0 0.08 0.145 0 0.1 0.145 0 0 0.15 0 0.02 0.15 0 0.04 0.15 0 0.06 0.15 0 0.08 0.15 0 0.1 0.15 0 0 0.155 0 0.02 0.155 0 0.04 0.155 0 0.06 0.155 0 0.08 0.155 0 0.1 0.155 0 0 0.16 0 0.02 0.16 0 0.04 0.16 0 0.06 0.16 0 0.08 0.16 0 0.1 0.16 0 0 0.165 0 0.02 0.165 0 0.04 0.165 0 0.06 0.165 0 0.08 0.165 0 0.1 0.165 0 0 0.17 0 0.02 0.17 0 0.04 0.17 0 0.06 0.17 0 0.08 0.17 0 0.1 0.17 0 0 0.175 0 0.02 0.175 0 0.04 0.175 0 0.06 0.175 0 0.08 0.175 0 0.1 0.175 0 0 0.18 0 0.02 0.18 0 0.04 0.18 0 0.06 0.18 0 0.08 0.18 0 0.1 0.18 0 0 0.185 0 0.02 0.185 0 0.04 0.185 0 0.06 0.185 0 0.08 0.185 0 0.1 0.185 0 0 0.19 0 0.02 0.19 0 0.04 0.19 0 0.06 0.19 0 0.08 0.19 0 0.1 0.19 0 0 0.195 0 0.02 0.195 0 0.04 0.195 0 0.06 0.195 0 0.08 0.195 0 0.1 0.195 0 0 0.2 0 0.02 0.2 0 0.04 0.2 0 0.06 0.2 0 0.08 0.2 0 0.1 0.2 0 0 0.205 0 0.02 0.205 0 0.04 0.205 0 0.06 0.205 0 0.08 0.205 0 0.1 0.205 0 0 0.21 0 0.02 0.21 0 0.04 0.21 0 0.06 0.21 0 0.08 0.21 0 0.1 0.21 0 0 0.215 0 0.02 0.215 0 0.04 0.215 0 0.06 0.215 0 0.08 0.215 0 0.1 0.215 0 0 0.22 0 0.02 0.22 0 0.04 0.22 0 0.06 0.22 0 0.08 0.22 0 0.1 0.22 0 0 0.225 0 0.02 0.225 0 0.04 0.225 0 0.06 0.225 0 0.08 0.225 0 0.1 0.225 0 0 0.23 0 0.02 0.23 0 0.04 0.23 0 0.06 0.23 0 0.08 0.23 0 0.1 0.23 0 0 0.235 0 0.02 0.235 0 0.04 0.235 0 0.06 0.235 0 0.08 0.235 0 0.1 0.235 0 0 0.24 0 0.02 0.24 0 0.04 0.24 0 0.06 0.24 0 0.08 0.24 0 0.1 0.24 0 0 0.245 0 0.02 0.245 0 0.04 0.245 0 0.06 0.245 0 0.08 0.245 0 0.1 0.245 0 0 0.25 0 0.02 0.25 0 0.04 0.25 0 0.06 0.25 0 0.08 0.25 0 0.1 0.25 0 0 0.255 0 0.02 0.255 0 0.04 0.255 0 0.06 0.255 0 0.08 0.255 0 0.1 0.255 0 0 0.26 0 0.02 0.26 0 0.04 0.26 0 0.06 0.26 0 0.08 0.26 0 0.1 0.26 0 0 0.265 0 0.02 0.265 0 0.04 0.265 0 0.06 0.265 0 0.08 0.265 0 0.1 0.265 0 0 0.27 0 0.02 0.27 0 0.04 0.27 0 0.06 0.27 0 0.08 0.27 0 0.1 0.27 0 0 0.275 0 0.02 0.275 0 0.04 0.275 0 0.06 0.275 0 0.08 0.275 0 0.1 0.275 0 0 0.28 0 0.02 0.28 0 0.04 0.28 0 0.06 0.28 0 0.08 0.28 0 0.1 0.28 0 0 0.285 0 0.02 0.285 0 0.04 0.285 0 0.06 0.285 0 0.08 0.285 0 0.1 0.285 0 0 0.29 0 0.02 0.29 0 0.04 0.29 0 0.06 0.29 0 0.08 0.29 0 0.1 0.29 0 0 0.295 0 0.02 0.295 0 0.04 0.295 0 0.06 0.295 0 0.08 0.295 0 0.1 0.295 0 0 0.3 0 0.02 0.3 0 0.04 0.3 0 0.06 0.3 0 0.08 0.3 0 0.1 0.3 0 0 0.305 0 0.02 0.305 0 0.04 0.305 0 0.06 0.305 0 0.08 0.305 0 0.1 0.305 0 0 0.31 0 0.02 0.31 0 0.04 0.31 0 0.06 0.31 0 0.08 0.31 0 0.1 0.31 0 0 0.315 0 0.02 0.315 0 0.04 0.315 0 0.06 0.315 0 0.08 0.315 0 0.1 0.315 0 0 0.32 0 0.02 0.32 0 0.04 0.32 0 0.06 0.32 0 0.08 0.32 0 0.1 0.32 0 0 0.325 0 0.02 0.325 0 0.04 0.325 0 0.06 0.325 0 0.08 0.325 0 0.1 0.325 0 0 0.33 0 0.02 0.33 0 0.04 0.33 0 0.06 0.33 0 0.08 0.33 0 0.1 0.33 0 0 0.335 0 0.02 0.335 0 0.04 0.335 0 0.06 0.335 0 0.08 0.335 0 0.1 0.335 0 0 0.340001 0 0.02 0.340001 0 0.04 0.340001 0 0.06 0.340001 0 0.08 0.340001 0 0.1 0.340001 0 0 0.345004 0 0.02 0.345004 0 0.04 0.345004 0 0.06 0.345004 0 0.08 0.345004 0 0.1 0.345004 0 0 0.350012 0 0.02 0.350012 0 0.04 0.350012 0 0.06 0.350012 0 0.08 0.350012 0 0.1 0.350012 0 0 0.355035 0 0.02 0.355035 0 0.04 0.355035 0 0.06 0.355035 0 0.08 0.355035 0 0.1 0.355035 0 0 0.360088 0 0.02 0.360088 0 0.04 0.360088 0 0.06 0.360088 0 0.08 0.360088 0 0.1 0.360088 0 0 0.365198 0 0.02 0.365198 0 0.04 0.365198 0 0.06 0.365198 0 0.08 0.365198 0 0.1 0.365198 0 0 0.370394 0 0.02 0.370394 0 0.04 0.370394 0 0.06 0.370394 0 0.08 0.370394 0 0.1 0.370394 0 0 0.37571 0 0.02 0.37571 0 0.04 0.37571 0 0.06 0.37571 0 0.08 0.37571 0 0.1 0.37571 0 0 0.381173 0 0.02 0.381173 0 0.04 0.381173 0 0.06 0.381173 0 0.08 0.381173 0 0.1 0.381173 0 0 0.386806 0 0.02 0.386806 0 0.04 0.386806 0 0.06 0.386806 0 0.08 0.386806 0 0.1 0.386806 0 0 0.392629 0 0.02 0.392629 0 0.04 0.392629 0 0.06 0.392629 0 0.08 0.392629 0 0.1 0.392629 0 0 0.398662 0 0.02 0.398662 0 0.04 0.398662 0 0.06 0.398662 0 0.08 0.398662 0 0.1 0.398662 0 0 0.404927 0 0.02 0.404927 0 0.04 0.404927 0 0.06 0.404927 0 0.08 0.404927 0 0.1 0.404927 0 0 0.411446 0 0.02 0.411446 0 0.04 0.411446 0 0.06 0.411446 0 0.08 0.411446 0 0.1 0.411446 0 0 0.418243 0 0.02 0.418243 0 0.04 0.418243 0 0.06 0.418243 0 0.08 0.418243 0 0.1 0.418243 0 0 0.425349 0 0.02 0.425349 0 0.04 0.425349 0 0.06 0.425349 0 0.08 0.425349 0 0.1 0.425349 0 0 0.432795 0 0.02 0.432795 0 0.04 0.432795 0 0.06 0.432795 0 0.08 0.432795 0 0.1 0.432795 0 0 0.440621 0 0.02 0.440621 0 0.04 0.440621 0 0.06 0.440621 0 0.08 0.440621 0 0.1 0.440621 0 0 0.44887 0 0.02 0.44887 0 0.04 0.44887 0 0.06 0.44887 0 0.08 0.44887 0 0.1 0.44887 0 0 0.457595 0 0.02 0.457595 0 0.04 0.457595 0 0.06 0.457595 0 0.08 0.457595 0 0.1 0.457595 0 0 0.466857 0 0.02 0.466857 0 0.04 0.466857 0 0.06 0.466857 0 0.08 0.466857 0 0.1 0.466857 0 0 0.476724 0 0.02 0.476724 0 0.04 0.476724 0 0.06 0.476724 0 0.08 0.476724 0 0.1 0.476724 0 0 0.487271 0 0.02 0.487271 0 0.04 0.487271 0 0.06 0.487271 0 0.08 0.487271 0 0.1 0.487271 0 0 0.498562 0 0.02 0.498562 0 0.04 0.498562 0 0.06 0.498562 0 0.08 0.498562 0 0.1 0.498562 0 0 0.510581 0 0.02 0.510581 0 0.04 0.510581 0 0.06 0.510581 0 0.08 0.510581 0 0.1 0.510581 0 0 0.523021 0 0.02 0.523021 0 0.04 0.523021 0 0.06 0.523021 0 0.08 0.523021 0 0.1 0.523021 0 0 0.535347 0 0.02 0.535347 0 0.04 0.535347 0 0.06 0.535347 0 0.08 0.535347 0 0.1 0.535347 0 0 0.547493 0 0.02 0.547493 0 0.04 0.547493 0 0.06 0.547493 0 0.08 0.547493 0 0.1 0.547493 0 0 0.559478 0 0.02 0.559478 0 0.04 0.559478 0 0.06 0.559478 0 0.08 0.559478 0 0.1 0.559478 0 0 0.571365 0 0.02 0.571365 0 0.04 0.571365 0 0.06 0.571365 0 0.08 0.571365 0 0.1 0.571365 0 0 0.583208 0 0.02 0.583208 0 0.04 0.583208 0 0.06 0.583208 0 0.08 0.583208 0 0.1 0.583208 0 0 0.595033 0 0.02 0.595033 0 0.04 0.595033 0 0.06 0.595033 0 0.08 0.595033 0 0.1 0.595033 0 0 0.606853 0 0.02 0.606853 0 0.04 0.606853 0 0.06 0.606853 0 0.08 0.606853 0 0.1 0.606853 0 0 0.609134 0 0.02 0.609134 0 0.04 0.609134 0 0.06 0.609134 0 0.08 0.609134 0 0.1 0.609134 0 0 0.611415 0 0.02 0.611415 0 0.04 0.611415 0 0.06 0.611415 0 0.08 0.611415 0 0.1 0.611415 0 0 0.613696 0 0.02 0.613696 0 0.04 0.613696 0 0.06 0.613696 0 0.08 0.613696 0 0.1 0.613696 0 0 0.615976 0 0.02 0.615976 0 0.04 0.615976 0 0.06 0.615976 0 0.08 0.615976 0 0.1 0.615976 0 0 0.618256 0 0.02 0.618256 0 0.04 0.618256 0 0.06 0.618256 0 0.08 0.618256 0 0.1 0.618256 0 0 0.620535 0 0.02 0.620535 0 0.04 0.620535 0 0.06 0.620535 0 0.08 0.620535 0 0.1 0.620535 0 0 0.622809 0 0.02 0.622809 0 0.04 0.622809 0 0.06 0.622809 0 0.08 0.622809 0 0.1 0.622809 0 0 0.625083 0 0.02 0.625083 0 0.04 0.625083 0 0.06 0.625083 0 0.08 0.625083 0 0.1 0.625083 0 0 0.627362 0 0.02 0.627362 0 0.04 0.627362 0 0.06 0.627362 0 0.08 0.627362 0 0.1 0.627362 0 0 0.629642 0 0.02 0.629642 0 0.04 0.629642 0 0.06 0.629642 0 0.08 0.629642 0 0.1 0.629642 0 0 0.631924 0 0.02 0.631924 0 0.04 0.631924 0 0.06 0.631924 0 0.08 0.631924 0 0.1 0.631924 0 0 0.634207 0 0.02 0.634207 0 0.04 0.634207 0 0.06 0.634207 0 0.08 0.634207 0 0.1 0.634207 0 0 0.63649 0 0.02 0.63649 0 0.04 0.63649 0 0.06 0.63649 0 0.08 0.63649 0 0.1 0.63649 0 0 0.638772 0 0.02 0.638772 0 0.04 0.638772 0 0.06 0.638772 0 0.08 0.638772 0 0.1 0.638772 0 0 0.641053 0 0.02 0.641053 0 0.04 0.641053 0 0.06 0.641053 0 0.08 0.641053 0 0.1 0.641053 0 0 0.643334 0 0.02 0.643334 0 0.04 0.643334 0 0.06 0.643334 0 0.08 0.643334 0 0.1 0.643334 0 0 0.645615 0 0.02 0.645615 0 0.04 0.645615 0 0.06 0.645615 0 0.08 0.645615 0 0.1 0.645615 0 0 0.647894 0 0.02 0.647894 0 0.04 0.647894 0 0.06 0.647894 0 0.08 0.647894 0 0.1 0.647894 0 0 0.650173 0 0.02 0.650173 0 0.04 0.650173 0 0.06 0.650173 0 0.08 0.650173 0 0.1 0.650173 0 0 0.652452 0 0.02 0.652452 0 0.04 0.652452 0 0.06 0.652452 0 0.08 0.652452 0 0.1 0.652452 0 0 0.654732 0 0.02 0.654732 0 0.04 0.654732 0 0.06 0.654732 0 0.08 0.654732 0 0.1 0.654732 0 0 0.657014 0 0.02 0.657014 0 0.04 0.657014 0 0.06 0.657014 0 0.
[...]
			<PointData Scalars="VitesseX">
				<DataArray Name="VitesseX" type="Float32" format="ascii">
 0 0 0 0 0 0 0 2.9561e-15 2.97951e-15 1.45073e-15 1.12034e-14 0 0 3.13427e-15 3.04076e-15 8.15838e-16 1.05368e-14 0 0 3.26257e-15 3.5882e-15 -1.3313e-15 1.06414e-14 0 0 3.82585e-15 3.05741e-15 -3.51408e-15 1.32222e-14 0 0 2.97388e-15 3.16968e-15 -3.29476e-15 1.26568e-14 0 0 1.6535e-15 4.41704e-15 -3.67731e-15 1.1586e-14 0 0 3.24119e-16 4.37644e-15 -3.57543e-15 1.17844e-14 0 0 1.68144e-16 1.71378e-15 4.57279e-16 8.81404e-15 0 0 -2.4613e-16 -1.52305e-16 3.65748e-15 6.12386e-15 0 0 7.61515e-16 -1.85908e-15 5.9121e-15 4.43515e-15 0 0 2.21096e-15 -1.16473e-15 4.20639e-15 6.05736e-15 0 0 3.00667e-15 2.35124e-16 3.57449e-15 4.65763e-15 0 0 1.84859e-15 3.80252e-15 9.85616e-16 5.96089e-15 0 0 3.40598e-15 4.19192e-15 -4.30933e-15 1.30559e-14 0 0 7.15447e-15 1.28072e-16 -5.25085e-15 1.50614e-14 0 0 6.65367e-15 -1.12116e-15 -1.46321e-15 1.00137e-14 0 0 1.84795e-15 2.90668e-15 6.02869e-15 1.24244e-15 0 0 -1.63869e-15 5.98136e-15 8.84603e-15 -1.51363e-16 0 0 -2.4061e-16 4.75197e-15 7.28725e-15 4.00113e-15 0 0 9.26706e-16 4.1746e-15 4.50557e-15 8.15107e-15 0 0 -7.30137e-16 9.33393e-15 -2.63842e-15 1.62931e-14 0 0 2.64815e-15 8.85712e-15 -4.4806e-15 2.20766e-14 0 0 5.91374e-15 4.92267e-15 -1.974e-15 1.72441e-14 0 0 9.30339e-15 -7.02087e-16 9.47599e-15 -8.85196e-16 0 0 7.52037e-15 2.27695e-15 1.20447e-14 -1.18775e-14 0 0 -5.71174e-15 1.56673e-14 -6.97483e-16 -7.74193e-15 0 0 1.39177e-15 8.27386e-15 3.27049e-15 -1.02217e-14 0 0 1.74989e-14 -4.50069e-15 9.42511e-15 -1.61191e-14 0 0 1.37855e-14 -3.30505e-16 4.91699e-15 -1.15858e-14 0 0 4.74072e-15 1.32485e-14 -7.33032e-15 -2.10315e-15 0 0 3.67016e-15 1.17845e-14 -1.03644e-14 6.13335e-15 0 0 1.72922e-15 3.01066e-16 3.11718e-15 1.33016e-14 0 0 -4.73057e-16 -7.33196e-15 8.33371e-15 2.40378e-14 0 0 -1.95394e-15 -6.11512e-15 5.15782e-15 2.51773e-14 0 0 8.58388e-18 2.5214e-16 2.46551e-15 1.09155e-14 0 0 9.44186e-16 2.51285e-15 3.23593e-15 1.45645e-15 0 0 -1.95251e-15 6.76684e-16 6.98591e-16 5.97299e-15 0 0 1.30496e-15 -7.14002e-15 -1.1547e-15 8.99864e-15 0 0 -1.19467e-15 -5.07252e-15 -2.89682e-15 7.84238e-15 0 0 -8.404e-15 1.56344e-15 -6.51518e-15 9.75474e-15 0 0 -1.04477e-14 -4.17345e-15 -7.19194e-16 1.0873e-14 0 0 -6.35544e-15 -8.31374e-15 8.86674e-15 2.28783e-15 0 0 -4.13664e-15 -7.25111e-15 1.38645e-14 4.74362e-15 0 0 -4.32091e-15 -8.44624e-15 1.40445e-14 2.14648e-14 0 0 -8.9505e-15 2.96068e-15 4.10921e-15 2.74484e-14 0 0 -1.24438e-14 7.95259e-15 -5.09826e-15 2.21702e-14 0 0 -1.20802e-14 1.50184e-14 -9.23368e-15 1.27755e-14 0 0 -1.00023e-14 2.70759e-14 -1.60381e-14 7.49058e-15 0 0 8.58375e-15 8.04964e-15 -4.68521e-15 -8.94936e-15 0 0 2.50381e-14 -1.61815e-14 1.04853e-14 -1.75465e-14 0 0 1.65907e-14 -6.21736e-15 -7.70614e-15 -4.5117e-15 0 0 9.60051e-15 9.87751e-15 -1.66896e-14 -2.98655e-15 0 0 1.77003e-14 7.36198e-15 -9.44469e-16 -1.21324e-14 0 0 2.07925e-14 1.76452e-15 1.10131e-15 -3.64434e-15 0 0 2.33803e-14 -1.09915e-15 1.64416e-14 -8.50822e-15 0 0 3.02803e-14 2.59038e-15 2.87669e-14 -1.4226e-14 0 0 2.43175e-14 1.63059e-14 9.07415e-15 1.40644e-14 0 0 1.05974e-14 2.43587e-14 -9.05034e-15 3.6583e-14 0 0 9.27351e-16 6.18027e-15 -1.62161e-14 3.29085e-14 0 0 -2.32029e-15 -5.62409e-15 -1.65529e-14 2.57896e-14 0 0 -2.08849e-14 -1.53765e-14 3.75819e-15 9.78622e-15 0 0 -3.56164e-14 -1.95071e-14 -1.34341e-14 -2.24009e-15 0 0 -2.56173e-14 -1.39753e-14 -4.65233e-14 -1.73153e-14 0 0 -2.56841e-15 -1.64211e-14 -4.38349e-14 -3.10396e-14 0 0 4.81406e-15 -2.13368e-14 -4.33743e-14 -3.03041e-15 0 0 -3.72208e-14 -1.6006e-14 -3.86698e-14 2.33876e-14 0 0 -6.55408e-14 -1.72634e-14 -1.65367e-14 1.23731e-14 0 0 -3.86599e-14 -2.32879e-14 4.50016e-15 -2.30875e-14 0 0 -1.56336e-14 2.14005e-14 -4.73622e-14 -6.91937e-15 0 0 -1.61733e-14 3.42235e-14 -8.03083e-14 2.63173e-14 0 0 -1.05021e-15 -2.00996e-14 -3.27708e-14 1.42707e-14 0 0 2.37945e-14 -3.46427e-14 1.5256e-14 -1.78742e-14 0 0 -8.30769e-15 5.38522e-15 6.69819e-15 -1.86187e-14 0 0 -4.57278e-14 2.61736e-14 -2.48485e-14 -2.21151e-14 0 0 -2.05506e-14 -2.01993e-14 -3.30009e-15 -2.72733e-14 0 0 1.10451e-14 -2.10227e-14 -1.7279e-14 -2.15373e-14 0 0 2.33825e-14 -2.10517e-15 -9.49984e-15 -4.90972e-14 0 0 1.85189e-16 -1.35561e-14 -1.51508e-14 -1.99685e-15 0 0 3.96879e-16 -1.66452e-14 -4.09963e-14 5.1748e-15 0 0 5.74308e-15 -1.17103e-14 -2.57085e-14 -3.62885e-14 0 0 -2.14249e-14 9.53244e-16 1.37878e-14 -4.15301e-14 0 0 9.63425e-15 -2.64392e-15 2.2018e-15 -2.95116e-14 0 0 2.28863e-14 -2.60121e-14 5.26669e-16 -2.28233e-14 0 0 -2.48495e-15 -1.56463e-14 1.30787e-14 -3.48773e-14 0 0 -2.44795e-14 3.8324e-15 -2.50772e-14 4.34168e-15 0 0 -3.5645e-14 -1.53566e-14 -1.57688e-14 1.65034e-14 0 0 -3.9007e-14 -2.38619e-14 2.9473e-14 -1.34158e-14 0 0 -2.54953e-14 -4.58258e-16 -8.92256e-15 2.02332e-15 0 0 4.61565e-16 -1.83884e-14 -5.31979e-14 -1.07525e-14 0 0 -7.63089e-14 -9.12916e-14 -8.15568e-14 -7.94613e-14 0 0 -1.94702e-13 -2.62799e-13 -2.56973e-13 -1.48512e-13 0 0 -2.38244e-13 -4.00736e-13 -4.02103e-13 -2.34321e-13 0 0 5.98785e-13 9.63372e-13 9.60573e-13 5.78401e-13 0 0 2.72819e-12 4.40933e-12 4.40829e-12 2.75266e-12 0 0 5.46941e-12 8.82342e-12 8.83632e-12 5.47428e-12 0 0 7.55579e-12 1.22044e-11 1.22455e-11 7.5446e-12 0 0 7.44642e-12 1.2055e-11 1.2075e-11 7.45397e-12 0 0 5.238e-12 8.49119e-12 8.49448e-12 5.24024e-12 0 0 3.09928e-12 5.01963e-12 5.01805e-12 3.10028e-12 0 0 2.65999e-12 4.27912e-12 4.27315e-12 2.65003e-12 0 0 3.88036e-12 6.26174e-12 6.27928e-12 3.84122e-12 0 0 3.99783e-12 6.46049e-12 6.45067e-12 3.97971e-12 0 0 4.55179e-12 7.34853e-12 7.31945e-12 4.57094e-12 0 0 5.37562e-12 8.65735e-12 8.6253e-12 5.3438e-12 0 0 6.56324e-12 1.05689e-11 1.05492e-11 6.50717e-12 0 0 5.8143e-12 9.3964e-12 9.38269e-12 5.80512e-12 0 0 -2.1781e-12 -3.53281e-12 -3.56406e-12 -2.17223e-12 0 0 -1.43827e-11 -2.32662e-11 -2.33624e-11 -1.43694e-11 0 0 -2.53902e-11 -4.10738e-11 -4.11403e-11 -2.5397e-11 0 0 -2.99255e-11 -4.8495e-11 -4.84572e-11 -2.99883e-11 0 0 -2.80628e-11 -4.54234e-11 -4.53385e-11 -2.81091e-11 0 0 -2.34465e-11 -3.79251e-11 -3.77966e-11 -2.34849e-11 0 0 -1.83047e-11 -2.96501e-11 -2.95337e-11 -1.82989e-11 0 0 -1.35504e-11 -2.19122e-11 -2.18209e-11 -1.35511e-11 0 0 -9.46759e-12 -1.52442e-11 -1.51811e-11 -9.49751e-12 0 0 -6.04625e-12 -9.72548e-12 -9.68312e-12 -6.07877e-12 0 0 -3.23046e-12 -5.19242e-12 -5.12679e-12 -3.18357e-12 0 0 -8.5087e-13 -1.38219e-12 -1.25708e-12 -7.84215e-13 0 0 1.22288e-12 1.88369e-12 2.07953e-12 1.23101e-12 0 0 2.98141e-12 4.73886e-12 4.88883e-12 3.06047e-12 0 0 4.54305e-12 7.31975e-12 7.42511e-12 4.62873e-12 0 0 6.08654e-12 9.81988e-12 9.87974e-12 6.16778e-12 0 0 7.54125e-12 1.21696e-11 1.22066e-11 7.59681e-12 0 0 8.84066e-12 1.43693e-11 1.43229e-11 8.98313e-12 0 0 1.00649e-11 1.64605e-11 1.62399e-11 1.02868e-11 0 0 1.13004e-11 1.84142e-11 1.82187e-11 1.15251e-11 0 0 1.25288e-11 2.03612e-11 2.02873e-11 1.27181e-11 0 0 1.37558e-11 2.22779e-11 2.22607e-11 1.38683e-11 0 0 1.49952e-11 2.41571e-11 2.42315e-11 1.50388e-11 0 0 1.59558e-11 2.57063e-11 2.58119e-11 1.59595e-11 0 0 1.70263e-11 2.74741e-11 2.75219e-11 1.70394e-11 0 0 1.78167e-11 2.8827e-11 2.88179e-11 1.78855e-11 0 0 1.78323e-11 2.89222e-11 2.88717e-11 1.79356e-11 0 0 1.83053e-11 2.96363e-11 2.96206e-11 1.82978e-11 0 0 1.7293e-11 2.79892e-11 2.7986e-11 1.724e-11 0 0 1.60599e-11 2.60675e-11 2.59165e-11 1.6034e-11 0 0 1.50572e-11 2.43338e-11 2.42618e-11 1.50354e-11 0 0 1.25077e-11 2.01243e-11 2.01845e-11 1.24917e-11 0 0 1.00533e-11 1.62494e-11 1.61865e-11 9.99557e-12 0 0 7.22867e-12 1.16902e-11 1.15847e-11 7.20623e-12 0 0 4.68917e-12 7.57052e-12 7.48453e-12 4.71249e-12 0 0 2.60151e-12 4.22778e-12 4.15465e-12 2.64458e-12 0 0 1.22411e-12 1.98055e-12 1.92998e-12 1.26078e-12 0 0 4.82262e-13 7.5324e-13 7.47449e-13 4.72085e-13 0 0 1.56173e-13 2.25931e-13 2.44741e-13 1.32055e-13 0 0 3.08083e-14 7.1245e-14 1.94799e-14 5.44608e-14 0 0 -9.1494e-16 1.00689e-14 -4.37949e-14 2.18444e-14 0 0 -7.21683e-15 -3.02594e-14 -2.43859e-14 -8.3353e-15 0 0 -1.35706e-14 -1.72881e-14 -2.29974e-14 -1.31931e-14 0 0 -6.19301e-15 -5.4477e-15 -3.3517e-14 -2.04887e-14 0 0 -5.24032e-15 -4.54451e-16 -5.68418e-14 -5.75185e-15 0 0 1.8622e-16 -1.11209e-14 -3.83663e-14 -1.77883e-14 0 0 -4.95549e-15 -9.51398e-15 -2.17874e-14 -1.41412e-14 0 0 -8.68047e-15 -6.05618e-16 -3.83119e-14 -9.18166e-16 0 0 -3.35833e-15 -1.16345e-14 -3.22032e-14 -7.73578e-15 0 0 1.6401e-14 -4.85384e-14 2.68625e-15 -1.681e-14 0 0 1.37426e-14 -5.65283e-14 5.06645e-14 -4.86689e-14 0 0 -1.08818e-15 -3.21439e-14 4.0713e-14 -3.07181e-14 0 0 -7.2152e-15 -1.55013e-14 2.11235e-14 1.006e-14 0 0 -1.93872e-14 2.16757e-14 -1.3221e-14 6.68931e-14 0 0 -2.8259e-14 2.90367e-14 -3.7231e-14 1.15764e-13 0 0 -2.34442e-14 7.04582e-15 -2.37938e-14 1.32481e-13 0 0 2.34333e-14 -3.98825e-14 -1.69093e-15 1.40079e-13 0 0 2.61367e-14 -3.53401e-14 2.33758e-14 1.22436e-13 0 0 -1.59907e-14 1.56101e-14 1.29191e-14 1.61974e-13 0 0 -1.39346e-14 3.9748e-14 4.74066e-15 1.30668e-13 0 0 3.38932e-15 4.05622e-14 -4.65562e-15 3.71079e-14 0 0 -3.54702e-14 5.38644e-14 -3.13703e-14 2.70358e-14 0 0 -4.74859e-14 2.8755e-14 -4.21794e-14 3.63973e-14 0 0 -4.51858e-14 -2.06538e-14 4.27717e-15 -1.71701e-14 0 0 -5.75217e-14 -1.22586e-15 3.20498e-14 -7.11117e-14 0 0 -7.66545e-14 8.18585e-14 -3.67532e-14 -4.64816e-14 0 0 -6.9969e-14 1.08082e-13 -7.32724e-14 -1.45572e-14 0 0 -2.37406e-14 8.06459e-14 -4.73832e-14 -4.56045e-14 0 0 6.05841e-15 2.59803e-14 4.64025e-15 -3.58114e-14 0 0 -4.26602e-15 -7.56424e-15 4.16187e-14 4.33483e-14 0 0 -5.91348e-15 1.94025e-14 1.24062e-14 8.24163e-14 0 0 -1.5994e-14 7.93287e-14 -3.87015e-14 7.86322e-14 0 0 -1.84691e-15 5.97381e-14 3.2348e-14 1.67751e-14 0 0 2.92327e-14 1.51183e-15 1.20074e-13 -5.82644e-14 0 0 1.06082e-14 4.33567e-14 9.94012e-14 -9.4675e-14 0 0 3.60964e-14 3.54485e-14 7.77767e-14 -1.16086e-13 0 0 3.26099e-14 5.80955e-14 -3.69834e-14 -5.46887e-15 0 0 4.96231e-14 9.17893e-14 -1.00328e-13 6.41606e-14 0 0 7.2653e-14 1.05643e-13 -8.08124e-14 4.81721e-14 0 0 6.82676e-14 9.30831e-14 -6.45775e-14 6.45674e-14 0 0 6.58828e-14 5.59516e-14 2.47911e-14 -1.37725e-14 0 0 4.87789e-14 7.4814e-14 4.53882e-14 -3.86196e-14 0 0 5.647e-14 7.87631e-14 1.06021e-14 -1.37668e-14 0 0 3.25456e-14 6.30976e-14 1.94751e-14 -2.22359e-14 0 0 1.73353e-14 4.60634e-14 1.00829e-14 2.37858e-14 0 0 3.73372e-14 3.93603e-15 1.9664e-14 4.23486e-14 0 0 6.16333e-15 5.3139e-15 3.23922e-14 1.93205e-14 0 0 -6.99385e-15 1.14168e-14 2.48962e-14 1.49341e-14 0 0 -5.25594e-15 1.35427e-14 3.23381e-14 -2.05394e-15 0 0 -3.78835e-14 9.0288e-14 -4.08982e-14 1.68935e-14 0 0 -4.92509e-14 1.11064e-13 -5.60609e-14 4.66058e-15 0 0 -2.19026e-14 4.54789e-14 3.98792e-14 -7.77565e-14 0 0 5.35616e-15 2.28065e-14 7.9055e-14 -1.38588e-13 0 0 0 0 0 0 0
				</DataArray>
				<DataArray Name="VitesseY" type="Float32" format="ascii">