<?xml version="1.0"?>
<VTKFile type="PolyData">
	<PolyData>
		<Piece NumberOfPoints="1206" NumberOfPolys="1000">
			<Points>
				<DataArray type="Float32" NumberOfComponents="3" format="ascii">
 0 0 0 0.02 0 0 0.04 0 0 0.06 0 0 0.08 0 0 0.1 0 0 0 0.005 0 0.02 0.005 0 0.04 0.005 0 0.06 0.005 0 0.08 0.005 0 0.1 0.005 0 0 0.01 0 0.02 0.01 0 0.04 0.01 0 0.06 0.01 0 0.08 0.01 0 0.1 0.01 0 0 0.015 0 0.02 0.015 0 0.04 0.015 0 0.06 0.015 0 0.08 0.015 0 0.1 0.015 0 0 0.02 0 0.02 0.02 0 0.04 0.02 0 0.06 0.02 0 0.08 0.02 0 0.1 0.02 0 0 0.025 0 0.02 0.025 0 0.04 0.025 0 0.06 0.025 0 0.08 0.025 0 0.1 0.025 0 0 0.03 0 0.02 0.03 0 0.04 0.03 0 0.06 0.03 0 0.08 0.03 0 0.1 0.03 0 0 0.035 0 0.02 0.035 0 0.04 0.035 0 0.06 0.035 0 0.08 0.035 0 0.1 0.035 0 0 0.04 0 0.02 0.04 0 0.04 0.04 0 0.06 0.04 0 0.08 0.04 0 0.1 0.04 0 0 0.045 0 0.02 0.045 0 0.04 0.045 0 0.06 0.045 0 0.08 0.045 0 0.1 0.045 0 0 0.05 0 0.02 0.05 0 0.04 0.05 0 0.06 0.05 0 0.08 0.05 0 0.1 0.05 0 0 0.055 0 0.02 0.055 0 0.04 0.055 0 0.06 0.055 0 0.08 0.055 0 0.1 0.055 0 0 0.06 0 0.02 0.06 0 0.04 0.06 0 0.06 0.06 0 0.08 0.06 0 0.1 0.06 0 0 0.065 0 0.02 0.065 0 0.04 0.065 0 0.06 0.065 0 0.08 0.065 0 0.1 0.065 0 0 0.07 0 0.02 0.07 0 0.04 0.07 0 0.06 0.07 0 0.08 0.07 0 0.1 0.07 0 0 0.075 0 0.02 0.075 0 0.04 0.075 0 0.06 0.075 0 0.08 0.075 0 0.1 0.075 0 0 0.08 0 0.02 0.08 0 0.04 0.08 0 0.06 0.08 0 0.08 0.08 0 0.1 0.08 0 0 0.085 0 0.02 0.085 0 0.04 0.085 0 0.06 0.085 0 0.08 0.085 0 0.1 0.085 0 0 0.09 0 0.02 0.09 0 0.04 0.09 0 0.06 0.09 0 0.08 0.09 0 0.1 0.09 0 0 0.095 0 0.02 0.095 0 0.04 0.095 0 0.06 0.095 0 0.08 0.095 0 0.1 0.095 0 0 0.1 0 0.02 0.1 0 0.04 0.1 0 0.06 0.1 0 0.08 0.1 0 0.1 0.1 0 0 0.105 0 0.02 0.105 0 0.04 0.105 0 0.06 0.105 0 0.08 0.105 0 0.1 0.105 0 0 0.11 0 0.02 0.11 0 0.04 0.11 0 0.06 0.11 0 0.08 0.11 0 0.1 0.11 0 0 0.115 0 0.02 0.115 0 0.04 0.115 0 0.06 0.115 0 0.08 0.115 0 0.1 0.115 0 0 0.12 0 0.02 0.12 0 0.04 0.12 0 0.06 0.12 0 0.08 0.12 0 0.1 0.12 0 0 0.125 0 0.02 0.125 0 0.04 0.125 0 0.06 0.125 0 0.08 0.125 0 0.1 0.125 0 0 0.13 0 0.02 0.13 0 0.04 0.13 0 0.06 0.13 0 0.08 0.13 0 0.1 0.13 0 0 0.135 0 0.02 0.135 0 0.04 0.135 0 0.06 0.135 0 0.08 0.135 0 0.1 0.135 0 0 0.14 0 0.02 0.14 0 0.04 0.14 0 0.06 0.14 0 0.08 0.14 0 0.1 0.14 0 0 0.145 0 0.02 0.145 0 0.04 0.145 0 0.06 0.145 0 0.08 0.145 0 0.1 0.145 0 0 0.15 0 0.02 0.15 0 0.04 0.15 0 0.06 0.15 0 0.08 0.15 0 0.1 0.15 0 0 0.155 0 0.02 0.155 0 0.04 0.155 0 0.06 0.155 0 0.08 0.155 0 0.1 0.155 0 0 0.16 0 0.02 0.16 0 0.04 0.16 0 0.06 0.16 0 0.08 0.16 0 0.1 0.16 0 0 0.165 0 0.02 0.165 0 0.04 0.165 0 0.06 0.165 0 0.08 0.165 0 0.1 0.165 0 0 0.17 0 0.02 0.17 0 0.04 0.17 0 0.06 0.17 0 0.08 0.17 0 0.1 0.17 0 0 0.175 0 0.02 0.175 0 0.04 0.175 0 0.06 0.175 0 0.08 0.175 0 0.1 0.175 0 0 0.18 0 0.02 0.18 0 0.04 0.18 0 0.06 0.18 0 0.08 0.18 0 0.1 0.18 0 0 0.185 0 0.02 0.185 0 0.04 0.185 0 0.06 0.185 0 0.08 0.185 0 0.1 0.185 0 0 0.19 0 0.02 0.19 0 0.04 0.19 0 0.06 0.19 0 0.08 0.19 0 0.1 0.19 0 0 0.195 0 0.02 0.195 0 0.04 0.195 0 0.06 0.195 0 0.08 0.195 0 0.1 0.195 0 0 0.2 0 0.02 0.2 0 0.04 0.2 0 0.06 0.2 0 0.08 0.2 0 0.1 0.2 0 0 0.205 0 0.02 0.205 0 0.04 0.205 0 0.06 0.205 0 0.08 0.205 0 0.1 0.205 0 0 0.21 0 0.02 0.21 0 0.04 0.21 0 0.06 0.21 0 0.08 0.21 0 0.1 0.21 0 0 0.215 0 0.02 0.215 0 0.04 0.215 0 0.06 0.215 0 0.08 0.215 0 0.1 0.215 0 0 0.22 0 0.02 0.22 0 0.04 0.22 0 0.06 0.22 0 0.08 0.22 0 0.1 0.22 0 0 0.225 0 0.02 0.225 0 0.04 0.225 0 0.06 0.225 0 0.08 0.225 0 0.1 0.225 0 0 0.23 0 0.02 0.23 0 0.04 0.23 0 0.06 0.23 0 0.08 0.23 0 0.1 0.23 0 0 0.235 0 0.02 0.235 0 0.04 0.235 0 0.06 0.235 0 0.08 0.235 0 0.1 0.235 0 0 0.24 0 0.02 0.24 0 0.04 0.24 0 0.06 0.24 0 0.08 0.24 0 0.1 0.24 0 0 0.245 0 0.02 0.245 0 0.04 0.245 0 0.06 0.245 0 0.08 0.245 0 0.1 0.245 0 0 0.25 0 0.02 0.25 0 0.04 0.25 0 0.06 0.25 0 0.08 0.25 0 0.1 0.25 0 0 0.255 0 0.02 0.255 0 0.04 0.255 0 0.06 0.255 0 0.08 0.255 0 0.1 0.255 0 0 0.26 0 0.02 0.26 0 0.04 0.26 0 0.06 0.26 0 0.08 0.26 0 0.1 0.26 0 0 0.265 0 0.02 0.265 0 0.04 0.265 0 0.06 0.265 0 0.08 0.265 0 0.1 0.265 0 0 0.27 0 0.02 0.27 0 0.04 0.27 0 0.06 0.27 0 0.08 0.27 0 0.1 0.27 0 0 0.275 0 0.02 0.275 0 0.04 0.275 0 0.06 0.275 0 0.08 0.275 0 0.1 0.275 0 0 0.28 0 0.02 0.28 0 0.04 0.28 0 0.06 0.28 0 0.08 0.28 0 0.1 0.28 0 0 0.285 0 0.02 0.285 0 0.04 0.285 0 0.06 0.285 0 0.08 0.285 0 0.1 0.285 0 0 0.29 0 0.02 0.29 0 0.04 0.29 0 0.06 0.29 0 0.08 0.29 0 0.1 0.29 0 0 0.295 0 0.02 0.295 0 0.04 0.295 0 0.06 0.295 0 0.08 0.295 0 0.1 0.295 0 0 0.3 0 0.02 0.3 0 0.04 0.3 0 0.06 0.3 0 0.08 0.3 0 0.1 0.3 0 0 0.305 0 0.02 0.305 0 0.04 0.305 0 0.06 0.305 0 0.08 0.305 0 0.1 0.305 0 0 0.31 0 0.02 0.31 0 0.04 0.31 0 0.06 0.31 0 0.08 0.31 0 0.1 0.31 0 0 0.315 0 0.02 0.315 0 0.04 0.315 0 0.06 0.315 0 0.08 0.315 0 0.1 0.315 0 0 0.32 0 0.02 0.32 0 0.04 0.32 0 0.06 0.32 0 0.08 0.32 0 0.1 0.32 0 0 0.325 0 0.02 0.325 0 0.04 0.325 0 0.06 0.325 0 0.08 0.325 0 0.1 0.325 0 0 0.33 0 0.02 0.33 0 0.04 0.33 0 0.06 0.33 0 0.08 0.33 0 0.1 0.33 0 0 0.335 0 0.02 0.335 0 0.04 0.335 0 0.06 0.335 0 0.08 0.335 0 0.1 0.335 0 0 0.34 0 0.02 0.34 0 0.04 0.34 0 0.06 0.34 0 0.08 0.34 0 0.1 0.34 0 0 0.345 0 0.02 0.345 0 0.04 0.345 0 0.06 0.345 0 0.08 0.345 0 0.1 0.345 0 0 0.35 0 0.02 0.35 0 0.04 0.35 0 0.06 0.35 0 0.08 0.35 0 0.1 0.35 0 0 0.355 0 0.02 0.355 0 0.04 0.355 0 0.06 0.355 0 0.08 0.355 0 0.1 0.355 0 0 0.36 0 0.02 0.36 0 0.04 0.36 0 0.06 0.36 0 0.08 0.36 0 0.1 0.36 0 0 0.365 0 0.02 0.365 0 0.04 0.365 0 0.06 0.365 0 0.08 0.365 0 0.1 0.365 0 0 0.37 0 0.02 0.37 0 0.04 0.37 0 0.06 0.37 0 0.08 0.37 0 0.1 0.37 0 0 0.375 0 0.02 0.375 0 0.04 0.375 0 0.06 0.375 0 0.08 0.375 0 0.1 0.375 0 0 0.38 0 0.02 0.38 0 0.04 0.38 0 0.06 0.38 0 0.08 0.38 0 0.1 0.38 0 0 0.385 0 0.02 0.385 0 0.04 0.385 0 0.06 0.385 0 0.08 0.385 0 0.1 0.385 0 0 0.39 0 0.02 0.39 0 0.04 0.39 0 0.06 0.39 0 0.08 0.39 0 0.1 0.39 0 0 0.395 0 0.02 0.395 0 0.04 0.395 0 0.06 0.395 0 0.08 0.395 0 0.1 0.395 0 0 0.4 0 0.02 0.4 0 0.04 0.4 0 0.06 0.4 0 0.08 0.4 0 0.1 0.4 0 0 0.405 0 0.02 0.405 0 0.04 0.405 0 0.06 0.405 0 0.08 0.405 0 0.1 0.405 0 0 0.41 0 0.02 0.41 0 0.04 0.41 0 0.06 0.41 0 0.08 0.41 0 0.1 0.41 0 0 0.415 0 0.02 0.415 0 0.04 0.415 0 0.06 0.415 0 0.08 0.415 0 0.1 0.415 0 0 0.42 0 0.02 0.42 0 0.04 0.42 0 0.06 0.42 0 0.08 0.42 0 0.1 0.42 0 0 0.425 0 0.02 0.425 0 0.04 0.425 0 0.06 0.425 0 0.08 0.425 0 0.1 0.425 0 0 0.43 0 0.02 0.43 0 0.04 0.43 0 0.06 0.43 0 0.08 0.43 0 0.1 0.43 0 0 0.435 0 0.02 0.435 0 0.04 0.435 0 0.06 0.435 0 0.08 0.435 0 0.1 0.435 0 0 0.44 0 0.02 0.44 0 0.04 0.44 0 0.06 0.44 0 0.08 0.44 0 0.1 0.44 0 0 0.445 0 0.02 0.445 0 0.04 0.445 0 0.06 0.445 0 0.08 0.445 0 0.1 0.445 0 0 0.45 0 0.02 0.45 0 0.04 0.45 0 0.06 0.45 0 0.08 0.45 0 0.1 0.45 0 0 0.455 0 0.02 0.455 0 0.04 0.455 0 0.06 0.455 0 0.08 0.455 0 0.1 0.455 0 0 0.46 0 0.02 0.46 0 0.04 0.46 0 0.06 0.46 0 0.08 0.46 0 0.1 0.46 0 0 0.465 0 0.02 0.465 0 0.04 0.465 0 0.06 0.465 0 0.08 0.465 0 0.1 0.465 0 0 0.47 0 0.02 0.47 0 0.04 0.47 0 0.06 0.47 0 0.08 0.47 0 0.1 0.47 0 0 0.475 0 0.02 0.475 0 0.04 0.475 0 0.06 0.475 0 0.08 0.475 0 0.1 0.475 0 0 0.48 0 0.02 0.48 0 0.04 0.48 0 0.06 0.48 0 0.08 0.48 0 0.1 0.48 0 0 0.485 0 0.02 0.485 0 0.04 0.485 0 0.06 0.485 0 0.08 0.485 0 0.1 0.485 0 0 0.49 0 0.02 0.49 0 0.04 0.49 0 0.06 0.49 0 0.08 0.49 0 0.1 0.49 0 0 0.495 0 0.02 0.495 0 0.04 0.495 0 0.06 0.495 0 0.08 0.495 0 0.1 0.495 0 0 0.5 0 0.02 0.5 0 0.04 0.5 0 0.06 0.5 0 0.08 0.5 0 0.1 0.5 0 0 0.505 0 0.02 0.505 0 0.04 0.505 0 0.06 0.505 0 0.08 0.505 0 0.1 0.505 0 0 0.51 0 0.02 0.51 0 0.04 0.51 0 0.06 0.51 0 0.08 0.51 0 0.1 0.51 0 0 0.515 0 0.02 0.515 0 0.04 0.515 0 0.06 0.515 0 0.08 0.515 0 0.1 0.515 0 0 0.52 0 0.02 0.52 0 0.04 0.52 0 0.06 0.52 0 0.08 0.52 0 0.1 0.52 0 0 0.525 0 0.02 0.525 0 0.04 0.525 0 0.06 0.525 0 0.08 0.525 0 0.1 0.525 0 0 0.53 0 0.02 0.53 0 0.04 0.53 0 0.06 0.53 0 0.08 0.53 0 0.1 0.53 0 0 0.535 0 0.02 0.535 0 0.04 0.535 0 0.06 0.535 0 0.08 0.535 0 0.1 0.535 0 0 0.54 0 0.02 0.54 0 0.04 0.54 0 0.06 0.54 0 0.08 0.54 0 0.1 0.54 0 0 0.545 0 0.02 0.545 0 0.04 0.545 0 0.06 0.545 0 0.08 0.545 0 0.1 0.545 0 0 0.55 0 0.02 0.55 0 0.04 0.55 0 0.06 0.55 0 0.08 0.55 0 0.1 0.55 0 0 0.555 0 0.02 0.555 0 0.04 0.555 0 0.06 0.555 0 0.08 0.555 0 0.1 0.555 0 0 0.56 0 0.02 0.56 0 0.04 0.56 0 0.06 0.56 0 0.08 0.56 0 0.1 0.56 0 0 0.565 0 0.02 0.565 0 0.04 0.565 0 0.06 0.565 0 0.08 0.565 0 0.1 0.565 0 0 0.57 0 0.02 0.57 0 0.04 0.57 0 0.06 0.57 0 0.08 0.57 0 0.1 0.57 0 0 0.575 0 0.02 0.575 0 0.04 0.575 0 0.06 0.575 0 0.08 0.575 0 0.1 0.575 0 0 0.58 0 0.02 0.58 0 0.04 0.58 0 0.06 0.58 0 0.08 0.58 0 0.1 0.58 0 0 0.585 0 0.02 0.585 0 0.04 0.585 0 0.06 0.585 0 0.08 0.585 0 0.1 0.585 0 0 0.59 0 0.02 0.59 0 0.04 0.59 0 0.06 0.59 0 0.08 0.59 0 0.1 0.59 0 0 0.595 0 0.02 0.595 0 0.04 0.595 0 0.06 0.595 0 0.08 0.595 0 0.1 0.595 0 0 0.6 0 0.02 0.6 0 0.04 0.6 0 0.06 0.6 0 0.08 0.6 0 0.1 0.6 0 0 0.605 0 0.02 0.605 0 0.04 0.605 0 0.06 0.605 0 0.08 0.605 0 0.1 0.605 0 0 0.61 0 0.02 0.61 0 0.04 0.61 0 0.06 0.61 0 0.08 0.61 0 0.1 0.61 0 0 0.615 0 0.02 0.615 0 0.04 0.615 0 0.06 0.615 0 0.08 0.615 0 0.1 0.615 0 0 0.62 0 0.02 0.62 0 0.04 0.62 0 0.06 0.62 0 0.08 0.62 0 0.1 0.62 0 0 0.625 0 0.02 0.625 0 0.04 0.625 0 0.06 0.625 0 0.08 0.625 0 0.1 0.625 0 0 0.63 0 0.02 0.63 0 0.04 0.63 0 0.06 0.63 0 0.08 0.63 0 0.1 0.63 0 0 0.635 0 0.02 0.635 0 0.04 0.635 0 0.06 0.635 0 0.08 0.635 0 0.1 0.635 0 0 0.64 0 0.02 0.64 0 0.04 0.64 0 0.06 0.64 0 0.08 0.64 0 0.1 0.64 0 0 0.645 0 0.02 0.645 0 0.04 0.645 0 0.06 0.645 0 0.08 0.645 0 0.1 0.645 0 0 0.65 0 0.02 0.65 0 0.04 0.65 0 0.06 0.65 0 0.08 0.65 0 0.1 0.65 0 0 0.655 0 0.02 0.655 0 0.04 0.655 0 0.06 0.655 0 0.08 0.655 0 0.1 0.655 0 0 0.66 0 0.02 0.66 0 0.04 0.66 0 0.06 0.66 0 0.08 0.66 0 0.1 0.66 0 0 0.665 0 0.02 0.665 0 0.04 0.665 0 0.06 0.665 0 0.08 0.665 0 0.1 0.665 0 0 0.67 0 0.02 0.67 0 0.04 0.67 0 0.06 0.67 0 0.08 0.67 0 0.1 0.67 0 0 0.675 0 0.02 0.675 0 0.04 0.675 0 0.06 0.675 0 0.08 0.675 0 0.1 0.675 0 0 0.68 0 0.02 0.68 0 0.04 0.68 0 0.06 0.68 0 0.08 0.68 0 0.1 0.68 0 0 0.685 0 0.02 0.685 0 0.04 0.685 0 0.06 0.685 0 0.08 0.685 0 0.1 0.685 0 0 0.69 0 0.02 0.69 0 0.04 0.69 0 0.06 0.69 0 0.08 0.69 0 0.1 
[...]
			<PointData Scalars="VitesseX">
				<DataArray Name="VitesseX" type="Float32" format="ascii">
 0 -5.21618e-15 -3.29603e-14 1.51696e-15 2.62446e-14 0 0 -1.524e-14 -2.05608e-14 9.80024e-16 2.0349e-14 0 0 -1.46673e-14 -2.39947e-14 1.44667e-14 6.22353e-15 0 0 -3.17692e-14 -2.90522e-15 -8.22304e-15 2.38224e-14 0 0 -5.17722e-14 1.29982e-14 -1.17675e-14 2.37116e-14 0 0 -3.32904e-14 -2.22944e-14 2.29848e-14 -6.83473e-15 0 0 -2.5901e-16 -5.59824e-14 1.40103e-14 2.61103e-15 0 0 -5.1319e-15 -4.06504e-14 -4.07148e-14 3.95801e-14 0 0 -2.68096e-14 -3.63463e-14 -4.11129e-14 2.5668e-14 0 0 -4.68397e-14 -3.34611e-14 -3.90709e-14 3.26779e-14 0 0 -9.07177e-14 3.3763e-14 -9.41005e-14 7.66876e-14 0 0 -5.02558e-14 -3.9253e-14 1.44084e-14 1.21831e-15 0 0 -7.17042e-14 -2.37232e-14 3.43214e-14 -4.2867e-14 0 0 -6.51523e-14 -3.80187e-15 6.08042e-15 -6.3874e-14 0 0 -3.54041e-14 3.99598e-16 -4.39918e-14 -1.84009e-14 0 0 -7.89656e-14 7.04088e-14 -1.18988e-13 4.95536e-14 0 0 -2.17786e-14 -4.75057e-14 -1.00323e-14 6.01324e-15 0 0 -7.85641e-14 3.11402e-14 -1.05588e-13 7.66709e-14 0 0 -1.28999e-13 1.12771e-13 -1.73831e-13 8.33974e-14 0 0 -6.18699e-14 1.5968e-14 -9.80445e-14 3.9673e-14 0 0 -2.65563e-14 -3.11712e-14 -1.33842e-13 1.06919e-13 0 0 -2.24685e-14 -6.12672e-14 -1.45028e-13 1.3221e-13 0 0 -8.47688e-14 -5.44396e-14 -3.69421e-14 2.24541e-14 0 0 -9.88485e-14 -5.25379e-14 6.08451e-14 -1.10138e-13 0 0 -3.07183e-14 -3.45947e-14 -3.06176e-14 -7.07159e-14 0 0 3.29158e-15 -8.33983e-15 -1.00209e-13 -4.25531e-14 0 0 -3.34816e-14 -9.81365e-15 -2.31565e-14 -1.77966e-13 0 0 -1.24214e-13 3.54249e-14 -5.53466e-14 -1.99316e-13 0 0 -9.85035e-14 -1.8137e-14 -9.91045e-14 -1.27258e-13 0 0 -6.22904e-14 -4.2922e-14 -1.09006e-13 -1.17857e-13 0 0 -2.52609e-14 -8.81462e-14 -2.76917e-15 -1.9474e-13 0 0 -1.78122e-14 -8.5826e-14 7.74727e-15 -1.24822e-13 0 0 -1.03844e-13 9.48355e-15 -5.62557e-14 -1.75486e-14 0 0 -1.247e-13 -3.71249e-14 3.86497e-14 -5.2469e-14 0 0 -1.1181e-13 -3.06166e-14 -4.1355e-14 7.21775e-14 0 0 -3.22424e-14 -8.70033e-14 -3.17142e-14 1.2899e-13 0 0 -1.04485e-13 1.04003e-14 -2.14143e-14 1.19744e-13 0 0 -1.69888e-13 6.6887e-14 4.34729e-14 4.04483e-14 0 0 -1.58042e-13 7.44395e-14 3.49783e-14 4.72167e-14 0 0 -7.72374e-14 5.63269e-15 -1.67033e-14 1.16995e-13 0 0 -2.13466e-14 -1.27942e-13 4.55132e-14 3.99011e-14 0 0 -9.29197e-14 -1.0899e-13 3.15581e-14 -1.81206e-14 0 0 -1.22271e-13 -8.00697e-14 9.09578e-15 -6.83998e-14 0 0 -4.87087e-14 -1.04188e-13 -3.63255e-14 -4.92252e-14 0 0 -8.61614e-15 -7.34546e-14 -9.56658e-14 -2.79737e-14 0 0 -2.67711e-14 -1.02276e-13 8.44728e-14 -2.67713e-13 0 0 -2.69654e-13 9.18586e-14 4.80933e-14 -3.30865e-13 0 0 -3.11327e-13 4.85442e-14 6.63321e-14 -3.00471e-13 0 0 -1.49288e-13 -1.6704e-13 1.14298e-13 -2.42971e-13 0 0 -8.64567e-14 -1.86496e-13 -4.77741e-14 -2.93341e-14 0 0 5.17663e-14 -3.42877e-13 3.4317e-14 -3.18385e-14 0 0 -2.24639e-13 -3.59536e-15 -7.69471e-14 -1.0731e-13 0 0 -3.17409e-13 -1.06449e-14 2.10604e-13 -5.05514e-13 0 0 -3.44817e-13 7.68693e-14 6.76358e-14 -4.05276e-13 0 0 -1.86163e-13 1.19873e-13 -2.85763e-13 -2.35275e-14 0 0 1.11362e-13 -2.06528e-13 -5.36096e-14 -1.41744e-13 0 0 -2.63425e-13 9.61235e-14 -1.37649e-13 -1.41688e-13 0 0 -2.24819e-13 -2.1694e-13 3.95209e-13 -5.77292e-13 0 0 -1.93758e-13 -2.04715e-13 3.72309e-13 -5.81029e-13 0 0 -2.69573e-13 8.84225e-14 -1.54922e-13 -1.02888e-13 0 0 -8.47446e-14 -1.00417e-13 -1.57672e-13 1.8929e-14 0 0 -2.36815e-13 1.00743e-13 -3.27757e-13 1.32501e-13 0 0 -1.00244e-13 -9.55169e-14 -8.52137e-14 -3.34903e-14 0 0 -4.60926e-14 -9.3371e-14 -1.16793e-13 -1.17021e-14 0 0 -1.30945e-13 5.48863e-14 -2.53621e-13 7.1171e-14 0 0 -6.44275e-14 -9.39908e-14 -7.95105e-14 -4.19969e-14 0 0 -1.66552e-13 -3.99055e-15 -2.03833e-13 6.41442e-14 0 0 -6.40104e-14 -9.80888e-14 -2.16426e-13 7.61121e-14 0 0 -3.99313e-14 -1.0187e-13 -2.26347e-13 4.65834e-14 0 0 -2.37128e-13 6.95683e-14 -1.22246e-13 -9.38229e-14 0 0 -1.7524e-13 -2.36445e-13 4.97129e-13 -5.41142e-13 0 0 -3.34428e-13 -1.21571e-14 2.4445e-13 -2.28407e-13 0 0 -1.43421e-13 3.19961e-15 -6.85953e-14 2.48484e-13 0 0 -9.43096e-14 -9.09743e-15 -1.61779e-13 4.27175e-13 0 0 -4.23124e-13 1.91719e-13 -9.71823e-14 2.81021e-13 0 0 -4.29715e-13 7.49463e-14 1.66306e-13 -2.91196e-14 0 0 -3.53956e-13 1.33561e-13 -2.03999e-13 2.05051e-13 0 0 -6.03663e-14 -2.08492e-13 -1.33625e-13 1.13749e-13 0 0 -3.37251e-13 -6.06763e-14 -1.26471e-13 -8.07027e-14 0 0 -4.46635e-13 -1.91719e-13 5.42893e-14 -2.79325e-13 0 0 -3.13458e-13 -2.58639e-13 -1.02668e-13 -1.40072e-13 0 0 -5.3384e-13 1.29868e-13 -4.62844e-13 4.81844e-14 0 0 -3.18865e-13 -2.30996e-13 2.22221e-14 -4.2868e-13 0 0 -2.37574e-13 -3.73902e-14 -4.5818e-13 -2.03127e-13 0 0 -1.73287e-13 1.59604e-13 -8.99294e-13 7.46972e-14 0 0 -1.49113e-13 -2.46767e-13 -1.32613e-13 -4.7643e-13 0 0 -5.53215e-13 -1.29071e-13 3.54578e-14 -5.8455e-13 0 0 -3.44162e-13 -2.24591e-13 -3.08559e-13 -1.49703e-13 0 0 2.00053e-13 -6.94329e-13 -3.31616e-13 1.27788e-13 0 0 -6.97446e-14 -1.92864e-13 -5.432e-13 -7.67013e-14 0 0 -3.7897e-13 2.55797e-14 -2.05516e-13 -6.12897e-13 0 0 -4.69056e-13 -1.48054e-13 2.29686e-14 -6.48211e-13 0 0 -9.02996e-14 -2.00035e-13 -4.91123e-13 2.85395e-14 0 0 4.17863e-13 -8.48281e-13 -5.77974e-13 5.88603e-13 0 0 -3.53946e-13 -8.7667e-14 -4.318e-13 1.95533e-13 0 0 -3.85422e-13 -2.01225e-13 6.64863e-13 -9.87504e-13 0 0 7.46057e-14 -4.97027e-13 4.65426e-13 -8.14471e-13 0 0 -8.53632e-13 9.96486e-13 -4.552e-13 -4.76772e-13 0 0 3.7864e-14 -1.2253e-13 3.89909e-13 -9.17598e-13 0 0 3.68456e-13 -4.18967e-13 3.07169e-13 -7.32786e-13 0 0 2.07992e-13 -2.53218e-13 -2.64329e-13 -8.7524e-14 0 0 -1.69858e-14 -9.48666e-14 -7.46137e-13 3.4641e-13 0 0 -2.08803e-13 -1.23293e-13 -7.42335e-13 3.63225e-13 0 0 -3.5697e-13 -1.76957e-13 -6.21852e-13 2.52134e-13 0 0 -4.35769e-13 -2.55731e-13 -4.29319e-13 5.06265e-14 0 0 -4.12264e-13 -4.58976e-13 -6.45942e-14 -3.07988e-13 0 0 -3.27233e-13 -5.97533e-13 6.30047e-14 -4.08328e-13 0 0 -1.75382e-13 -5.10098e-13 -1.34504e-13 -2.39007e-13 0 0 -1.80753e-13 -2.83564e-13 -3.32485e-13 -1.04174e-13 0 0 -2.7664e-13 -8.32284e-14 -3.26532e-13 -1.7604e-13 0 0 -3.44441e-13 -6.6789e-15 -2.388e-13 -3.29136e-13 0 0 -1.33132e-13 -1.17964e-13 -2.87854e-13 -2.62227e-13 0 0 6.97646e-14 -2.096e-13 -4.4519e-13 -9.28586e-14 0 0 -6.67831e-15 -2.1499e-13 -3.87137e-13 -9.91919e-14 0 0 -2.83406e-13 -2.04595e-13 -1.32914e-13 -2.73888e-13 0 0 -3.60018e-13 -3.62995e-13 1.16034e-13 -4.12395e-13 0 0 -6.80247e-14 -5.40009e-13 -4.72909e-14 -2.71306e-13 0 0 -8.77474e-14 -2.04331e-13 -5.25393e-13 -1.09072e-13 0 0 -2.02287e-13 -1.56226e-13 -2.69149e-13 -4.49074e-13 0 0 -3.38899e-13 -1.74276e-13 -7.82489e-14 -4.79877e-13 0 0 -3.63853e-13 -2.06162e-13 -1.47615e-13 -2.23451e-13 0 0 -1.13125e-13 -3.79993e-13 -2.10636e-13 -1.62292e-13 0 0 -2.22344e-13 -7.91595e-14 -6.34143e-13 5.39099e-14 0 0 -3.35903e-13 -1.603e-13 -3.63731e-13 -1.43745e-13 0 0 -5.07026e-13 -1.20294e-13 -2.6245e-13 -1.0882e-13 0 0 -6.19664e-13 -1.66657e-13 -5.36376e-14 -1.07382e-13 0 0 -2.51437e-13 -4.0976e-13 9.0491e-15 -1.24296e-13 0 0 -1.71454e-13 -1.62665e-13 -5.08434e-13 3.82192e-14 0 0 -3.34999e-13 -2.52011e-13 -1.53143e-13 -4.46435e-13 0 0 -5.16831e-13 -2.10906e-13 -8.05447e-14 -4.54827e-13 0 0 -6.55673e-13 -1.79998e-13 -4.86384e-14 -2.76847e-13 0 0 -3.24704e-13 -3.79678e-13 -3.34958e-14 -2.13109e-13 0 0 -1.6681e-13 -2.59347e-13 -4.24294e-13 7.22213e-14 0 0 -3.38297e-13 -2.32077e-13 -2.68016e-13 -1.91538e-13 0 0 -5.09253e-13 -8.71637e-14 -3.30389e-13 -2.73551e-13 0 0 -5.51278e-13 -1.34789e-13 -1.51972e-13 -2.51048e-13 0 0 -2.29708e-13 -2.86245e-13 -1.26669e-13 -2.30015e-13 0 0 -1.62212e-13 9.8359e-15 -7.45862e-13 1.86863e-14 0 0 -3.71621e-13 -1.15115e-13 -5.14208e-13 -3.06097e-13 0 0 -3.55764e-13 -5.44225e-13 -2.89319e-13 -1.89665e-13 0 0 -2.98364e-13 -6.44885e-13 -3.43075e-13 1.39724e-13 0 0 -2.41729e-13 -5.09442e-13 -7.97405e-14 -3.34574e-13 0 0 -1.50014e-13 -5.75415e-14 -6.6275e-13 -2.74302e-13 0 0 -7.10058e-14 -7.58638e-14 -6.82557e-13 -3.61724e-13 0 0 -4.20276e-13 -1.94302e-13 -1.15349e-13 -6.50523e-13 0 0 -6.9856e-13 1.46626e-14 -4.52745e-13 6.86943e-15 0 0 -2.72194e-13 -5.23082e-13 -1.3589e-13 1.55232e-13 0 0 -1.50904e-13 -4.94948e-13 -2.82956e-13 2.95134e-13 0 0 -2.99428e-13 -2.03965e-13 -5.98886e-13 5.35408e-13 0 0 -6.47348e-13 -9.64453e-14 -5.68688e-13 6.66917e-13 0 0 -7.3188e-13 -5.3723e-14 -8.85971e-13 1.13136e-12 0 0 -2.55178e-13 -7.25332e-13 -1.6931e-13 5.15244e-13 0 0 -3.28467e-13 -4.67555e-13 -5.6553e-14 -1.18342e-13 0 0 -3.572e-13 -2.44383e-13 -2.18636e-13 -3.09067e-13 0 0 -4.6856e-13 -2.32541e-13 -2.39046e-13 -2.45582e-13 0 0 -7.61659e-13 -2.06018e-13 -2.12326e-13 -9.83484e-14 0 0 -3.86291e-13 -5.71728e-13 -2.69931e-13 -1.50132e-13 0 0 1.43386e-14 -5.9224e-13 -8.60398e-13 -7.9087e-14 0 0 -2.7261e-13 -2.37129e-13 -9.72777e-13 -4.3638e-13 0 0 -9.6209e-13 4.53211e-13 -9.1551e-13 -5.87775e-13 0 0 -8.73511e-13 1.52465e-13 -4.31675e-13 -3.56536e-13 0 0 5.08429e-14 -7.34309e-13 -2.61429e-13 -4.14942e-14 0 0 4.02536e-13 -9.41052e-13 -5.61735e-13 -7.77752e-14 0 0 -1.88436e-13 -4.95965e-13 -6.04183e-13 -9.15232e-13 0 0 -9.30619e-13 1.93092e-13 -9.09784e-13 -1.37687e-12 0 0 -8.7048e-13 5.29228e-14 -1.08364e-12 -9.52444e-13 0 0 -2.46137e-13 -3.96252e-13 -1.04084e-12 -5.75573e-13 0 0 -1.94802e-13 -3.34047e-13 -7.83213e-13 -6.56173e-13 0 0 -3.28605e-13 -5.48277e-13 6.51245e-15 -1.21193e-12 0 0 -1.80301e-13 -7.54491e-13 -5.11792e-14 -1.08575e-12 0 0 -3.45914e-13 -4.57318e-13 -6.62179e-13 -7.40003e-13 0 0 -6.61185e-13 -5.65297e-14 -7.22168e-13 -1.26531e-12 0 0 -6.93215e-13 1.78447e-13 -9.17167e-13 -1.23401e-12 0 0 -2.12576e-13 -5.02052e-13 -5.8185e-13 -8.2081e-13 0 0 1.14627e-13 -1.04788e-12 -2.90054e-13 -3.54196e-13 0 0 -3.11251e-13 -6.4359e-13 -4.55572e-13 -2.86743e-13 0 0 -6.67028e-13 -1.86347e-13 -4.91009e-13 -1.04837e-12 0 0 -6.35844e-13 1.24426e-13 -9.47651e-13 -1.20616e-12 0 0 -1.29738e-13 -5.90662e-13 -6.42346e-13 -8.96802e-13 0 0 1.45156e-13 -1.13198e-12 -2.96292e-13 -3.90351e-13 0 0 -2.87713e-13 -6.92609e-13 -5.19791e-13 -1.8223e-13 0 0 -5.97973e-13 -3.56938e-13 -3.45283e-13 -9.6221e-13 0 0 -6.15311e-13 -9.96866e-14 -5.76274e-13 -1.2107e-12 0 0 -2.06156e-13 -6.07897e-13 -5.39937e-13 -7.86884e-13 0 0 5.58902e-14 -9.92485e-13 -4.47492e-13 -2.58667e-13 0 0 -3.42487e-13 -5.76265e-13 -6.83914e-13 -8.82575e-15 0 0 -5.64318e-13 -4.00069e-13 -4.68368e-13 -7.53713e-13 0 0 -5.06951e-13 -2.01283e-13 -9.05924e-13 -1.03043e-12 0 0 -1.81018e-13 -5.73247e-13 -9.39599e-13 -8.93216e-13 0 0 1.85291e-13 -1.07028e-12 -7.61493e-13 -2.52345e-13 0 0 -5.24297e-13 -3.29364e-13 -6.6508e-13 -2.24857e-13 0 0 -7.61063e-13 -4.41411e-13 6.74508e-13 -1.81995e-12 0 0 -3.38228e-13 -5.79852e-13 9.41994e-15 -1.36446e-12 0 0 2.26964e-14 -5.06958e-13 -1.28493e-12 -1.35998e-13 0 0 -4.23919e-13 -3.76774e-13 -1.11445e-12 -3.41283e-13 0 0 -1.30402e-12 4.17794e-13 -1.18938e-12 -4.7909e-13 0 0 -6.18642e-13 -2.35563e-13 -7.7513e-13 -4.54825e-13 0 0 9.42724e-15 -6.10047e-13 -1.14231e-12 2.76046e-13 0 0 2.40326e-14 -9.21879e-13 -7.86367e-13 2.51752e-13 0 0 -5.77305e-13 -7.21952e-13 -3.71187e-13 -2.27709e-13 0 0 -1.25089e-12 1.80992e-13 -1.08659e-12 3.37824e-14 0
				</DataArray>
				<DataArray Name="VitesseY" type="Float32" format="ascii">