<?xml version="1.0"?>
<VTKFile type="PolyData">
	<PolyData>
		<Piece NumberOfPoints="1206" NumberOfPolys="1000">
			<Points>
				<DataArray type="Float32" NumberOfComponents="3" format="ascii">
 0 0 0 0.02 0 0 0.04 0 0 0.06 0 0 0.08 0 0 0.1 0 0 0 0.005 0 0.02 0.005 0 0.04 0.005 0 0.06 0.005 0 0.08 0.005 0 0.1 0.005 0 0 0.01 0 0.02 0.01 0 0.04 0.01 0 0.06 0.01 0 0.08 0.01 0 0.1 0.01 0 0 0.015 0 0.02 0.015 0 0.04 0.015 0 0.06 0.015 0 0.08 0.015 0 0.1 0.015 0 0 0.02 0 0.02 0.02 0 0.04 0.02 0 0.06 0.02 0 0.08 0.02 0 0.1 0.02 0 0 0.025 0 0.02 0.025 0 0.04 0.025 0 0.06 0.025 0 0.08 0.025 0 0.1 0.025 0 0 0.03 0 0.02 0.03 0 0.04 0.03 0 0.06 0.03 0 0.08 0.03 0 0.1 0.03 0 0 0.035 0 0.02 0.035 0 0.04 0.035 0 0.06 0.035 0 0.08 0.035 0 0.1 0.035 0 0 0.04 0 0.02 0.04 0 0.04 0.04 0 0.06 0.04 0 0.08 0.04 0 0.1 0.04 0 0 0.045 0 0.02 0.045 0 0.04 0.045 0 0.06 0.045 0 0.08 0.045 0 0.1 0.045 0 0 0.05 0 0.02 0.05 0 0.04 0.05 0 0.06 0.05 0 0.08 0.05 0 0.1 0.05 0 0 0.055 0 0.02 0.055 0 0.04 0.055 0 0.06 0.055 0 0.08 0.055 0 0.1 0.055 0 0 0.06 0 0.02 0.06 0 0.04 0.06 0 0.06 0.06 0 0.08 0.06 0 0.1 0.06 0 0 0.065 0 0.02 0.065 0 0.04 0.065 0 0.06 0.065 0 0.08 0.065 0 0.1 0.065 0 0 0.07 0 0.02 0.07 0 0.04 0.07 0 0.06 0.07 0 0.08 0.07 0 0.1 0.07 0 0 0.075 0 0.02 0.075 0 0.04 0.075 0 0.06 0.075 0 0.08 0.075 0 0.1 0.075 0 0 0.08 0 0.02 0.08 0 0.04 0.08 0 0.06 0.08 0 0.08 0.08 0 0.1 0.08 0 0 0.085 0 0.02 0.085 0 0.04 0.085 0 0.06 0.085 0 0.08 0.085 0 0.1 0.085 0 0 0.09 0 0.02 0.09 0 0.04 0.09 0 0.06 0.09 0 0.08 0.09 0 0.1 0.09 0 0 0.095 0 0.02 0.095 0 0.04 0.095 0 0.06 0.095 0 0.08 0.095 0 0.1 0.095 0 0 0.1 0 0.02 0.1 0 0.04 0.1 0 0.06 0.1 0 0.08 0.1 0 0.1 0.1 0 0 0.105 0 0.02 0.105 0 0.04 0.105 0 0.06 0.105 0 0.08 0.105 0 0.1 0.105 0 0 0.11 0 0.02 0.11 0 0.04 0.11 0 0.06 0.11 0 0.08 0.11 0 0.1 0.11 0 0 0.115 0 0.02 0.115 0 0.04 0.115 0 0.06 0.115 0 0.08 0.115 0 0.1 0.115 0 0 0.12 0 0.02 0.12 0 0.04 0.12 0 0.06 0.12 0 0.08 0.12 0 0.1 0.12 0 0 0.125 0 0.02 0.125 0 0.04 0.125 0 0.06 0.125 0 0.08 0.125 0 0.1 0.125 0 0 0.13 0 0.02 0.13 0 0.04 0.13 0 0.06 0.13 0 0.08 0.13 0 0.1 0.13 0 0 0.135 0 0.02 0.135 0 0.04 0.135 0 0.06 0.135 0 0.08 0.135 0 0.1 0.135 0 0 0.14 0 0.02 0.14 0 0.04 0.14 0 0.06 0.14 0 0.08 0.14 0 0.1 0.14 0 0 0.145 0 0.02 0.145 0 0.04 0.145 0 0.06 0.145 0 0.08 0.145 0 0.1 0.145 0 0 0.15 0 0.02 0.15 0 0.04 0.15 0 0.06 0.15 0 0.08 0.15 0 0.1 0.15 0 0 0.155 0 0.02 0.155 0 0.04 0.155 0 0.06 0.155 0 0.08 0.155 0 0.1 0.155 0 0 0.16 0 0.02 0.16 0 0.04 0.16 0 0.06 0.16 0 0.08 0.16 0 0.1 0.16 0 0 0.165 0 0.02 0.165 0 0.04 0.165 0 0.06 0.165 0 0.08 0.165 0 0.1 0.165 0 0 0.17 0 0.02 0.17 0 0.04 0.17 0 0.06 0.17 0 0.08 0.17 0 0.1 0.17 0 0 0.175 0 0.02 0.175 0 0.04 0.175 0 0.06 0.175 0 0.08 0.175 0 0.1 0.175 0 0 0.18 0 0.02 0.18 0 0.04 0.18 0 0.06 0.18 0 0.08 0.18 0 0.1 0.18 0 0 0.185 0 0.02 0.185 0 0.04 0.185 0 0.06 0.185 0 0.08 0.185 0 0.1 0.185 0 0 0.19 0 0.02 0.19 0 0.04 0.19 0 0.06 0.19 0 0.08 0.19 0 0.1 0.19 0 0 0.195 0 0.02 0.195 0 0.04 0.195 0 0.06 0.195 0 0.08 0.195 0 0.1 0.195 0 0 0.2 0 0.02 0.2 0 0.04 0.2 0 0.06 0.2 0 0.08 0.2 0 0.1 0.2 0 0 0.205 0 0.02 0.205 0 0.04 0.205 0 0.06 0.205 0 0.08 0.205 0 0.1 0.205 0 0 0.21 0 0.02 0.21 0 0.04 0.21 0 0.06 0.21 0 0.08 0.21 0 0.1 0.21 0 0 0.215 0 0.02 0.215 0 0.04 0.215 0 0.06 0.215 0 0.08 0.215 0 0.1 0.215 0 0 0.22 0 0.02 0.22 0 0.04 0.22 0 0.06 0.22 0 0.08 0.22 0 0.1 0.22 0 0 0.225 0 0.02 0.225 0 0.04 0.225 0 0.06 0.225 0 0.08 0.225 0 0.1 0.225 0 0 0.23 0 0.02 0.23 0 0.04 0.23 0 0.06 0.23 0 0.08 0.23 0 0.1 0.23 0 0 0.235 0 0.02 0.235 0 0.04 0.235 0 0.06 0.235 0 0.08 0.235 0 0.1 0.235 0 0 0.24 0 0.02 0.24 0 0.04 0.24 0 0.06 0.24 0 0.08 0.24 0 0.1 0.24 0 0 0.245 0 0.02 0.245 0 0.04 0.245 0 0.06 0.245 0 0.08 0.245 0 0.1 0.245 0 0 0.25 0 0.02 0.25 0 0.04 0.25 0 0.06 0.25 0 0.08 0.25 0 0.1 0.25 0 0 0.255 0 0.02 0.255 0 0.04 0.255 0 0.06 0.255 0 0.08 0.255 0 0.1 0.255 0 0 0.26 0 0.02 0.26 0 0.04 0.26 0 0.06 0.26 0 0.08 0.26 0 0.1 0.26 0 0 0.265 0 0.02 0.265 0 0.04 0.265 0 0.06 0.265 0 0.08 0.265 0 0.1 0.265 0 0 0.27 0 0.02 0.27 0 0.04 0.27 0 0.06 0.27 0 0.08 0.27 0 0.1 0.27 0 0 0.275 0 0.02 0.275 0 0.04 0.275 0 0.06 0.275 0 0.08 0.275 0 0.1 0.275 0 0 0.28 0 0.02 0.28 0 0.04 0.28 0 0.06 0.28 0 0.08 0.28 0 0.1 0.28 0 0 0.285 0 0.02 0.285 0 0.04 0.285 0 0.06 0.285 0 0.08 0.285 0 0.1 0.285 0 0 0.29 0 0.02 0.29 0 0.04 0.29 0 0.06 0.29 0 0.08 0.29 0 0.1 0.29 0 0 0.295 0 0.02 0.295 0 0.04 0.295 0 0.06 0.295 0 0.08 0.295 0 0.1 0.295 0 0 0.3 0 0.02 0.3 0 0.04 0.3 0 0.06 0.3 0 0.08 0.3 0 0.1 0.3 0 0 0.305 0 0.02 0.305 0 0.04 0.305 0 0.06 0.305 0 0.08 0.305 0 0.1 0.305 0 0 0.31 0 0.02 0.31 0 0.04 0.31 0 0.06 0.31 0 0.08 0.31 0 0.1 0.31 0 0 0.315 0 0.02 0.315 0 0.04 0.315 0 0.06 0.315 0 0.08 0.315 0 0.1 0.315 0 0 0.32 0 0.02 0.32 0 0.04 0.32 0 0.06 0.32 0 0.08 0.32 0 0.1 0.32 0 0 0.325 0 0.02 0.325 0 0.04 0.325 0 0.06 0.325 0 0.08 0.325 0 0.1 0.325 0 0 0.33 0 0.02 0.33 0 0.04 0.33 0 0.06 0.33 0 0.08 0.33 0 0.1 0.33 0 0 0.335 0 0.02 0.335 0 0.04 0.335 0 0.06 0.335 0 0.08 0.335 0 0.1 0.335 0 0 0.34 0 0.02 0.34 0 0.04 0.34 0 0.06 0.34 0 0.08 0.34 0 0.1 0.34 0 0 0.345 0 0.02 0.345 0 0.04 0.345 0 0.06 0.345 0 0.08 0.345 0 0.1 0.345 0 0 0.35 0 0.02 0.35 0 0.04 0.35 0 0.06 0.35 0 0.08 0.35 0 0.1 0.35 0 0 0.355 0 0.02 0.355 0 0.04 0.355 0 0.06 0.355 0 0.08 0.355 0 0.1 0.355 0 0 0.36 0 0.02 0.36 0 0.04 0.36 0 0.06 0.36 0 0.08 0.36 0 0.1 0.36 0 0 0.365 0 0.02 0.365 0 0.04 0.365 0 0.06 0.365 0 0.08 0.365 0 0.1 0.365 0 0 0.37 0 0.02 0.37 0 0.04 0.37 0 0.06 0.37 0 0.08 0.37 0 0.1 0.37 0 0 0.375 0 0.02 0.375 0 0.04 0.375 0 0.06 0.375 0 0.08 0.375 0 0.1 0.375 0 0 0.38 0 0.02 0.38 0 0.04 0.38 0 0.06 0.38 0 0.08 0.38 0 0.1 0.38 0 0 0.385 0 0.02 0.385 0 0.04 0.385 0 0.06 0.385 0 0.08 0.385 0 0.1 0.385 0 0 0.39 0 0.02 0.39 0 0.04 0.39 0 0.06 0.39 0 0.08 0.39 0 0.1 0.39 0 0 0.395 0 0.02 0.395 0 0.04 0.395 0 0.06 0.395 0 0.08 0.395 0 0.1 0.395 0 0 0.4 0 0.02 0.4 0 0.04 0.4 0 0.06 0.4 0 0.08 0.4 0 0.1 0.4 0 0 0.405 0 0.02 0.405 0 0.04 0.405 0 0.06 0.405 0 0.08 0.405 0 0.1 0.405 0 0 0.41 0 0.02 0.41 0 0.04 0.41 0 0.06 0.41 0 0.08 0.41 0 0.1 0.41 0 0 0.415 0 0.02 0.415 0 0.04 0.415 0 0.06 0.415 0 0.08 0.415 0 0.1 0.415 0 0 0.42 0 0.02 0.42 0 0.04 0.42 0 0.06 0.42 0 0.08 0.42 0 0.1 0.42 0 0 0.425 0 0.02 0.425 0 0.04 0.425 0 0.06 0.425 0 0.08 0.425 0 0.1 0.425 0 0 0.43 0 0.02 0.43 0 0.04 0.43 0 0.06 0.43 0 0.08 0.43 0 0.1 0.43 0 0 0.435 0 0.02 0.435 0 0.04 0.435 0 0.06 0.435 0 0.08 0.435 0 0.1 0.435 0 0 0.44 0 0.02 0.44 0 0.04 0.44 0 0.06 0.44 0 0.08 0.44 0 0.1 0.44 0 0 0.445 0 0.02 0.445 0 0.04 0.445 0 0.06 0.445 0 0.08 0.445 0 0.1 0.445 0 0 0.45 0 0.02 0.45 0 0.04 0.45 0 0.06 0.45 0 0.08 0.45 0 0.1 0.45 0 0 0.455 0 0.02 0.455 0 0.04 0.455 0 0.06 0.455 0 0.08 0.455 0 0.1 0.455 0 0 0.46 0 0.02 0.46 0 0.04 0.46 0 0.06 0.46 0 0.08 0.46 0 0.1 0.46 0 0 0.465 0 0.02 0.465 0 0.04 0.465 0 0.06 0.465 0 0.08 0.465 0 0.1 0.465 0 0 0.47 0 0.02 0.47 0 0.04 0.47 0 0.06 0.47 0 0.08 0.47 0 0.1 0.47 0 0 0.475 0 0.02 0.475 0 0.04 0.475 0 0.06 0.475 0 0.08 0.475 0 0.1 0.475 0 0 0.48 0 0.02 0.48 0 0.04 0.48 0 0.06 0.48 0 0.08 0.48 0 0.1 0.48 0 0 0.485 0 0.02 0.485 0 0.04 0.485 0 0.06 0.485 0 0.08 0.485 0 0.1 0.485 0 0 0.49 0 0.02 0.49 0 0.04 0.49 0 0.06 0.49 0 0.08 0.49 0 0.1 0.49 0 0 0.495 0 0.02 0.495 0 0.04 0.495 0 0.06 0.495 0 0.08 0.495 0 0.1 0.495 0 0 0.5 0 0.02 0.5 0 0.04 0.5 0 0.06 0.5 0 0.08 0.5 0 0.1 0.5 0 0 0.505 0 0.02 0.505 0 0.04 0.505 0 0.06 0.505 0 0.08 0.505 0 0.1 0.505 0 0 0.51 0 0.02 0.51 0 0.04 0.51 0 0.06 0.51 0 0.08 0.51 0 0.1 0.51 0 0 0.515 0 0.02 0.515 0 0.04 0.515 0 0.06 0.515 0 0.08 0.515 0 0.1 0.515 0 0 0.52 0 0.02 0.52 0 0.04 0.52 0 0.06 0.52 0 0.08 0.52 0 0.1 0.52 0 0 0.525 0 0.02 0.525 0 0.04 0.525 0 0.06 0.525 0 0.08 0.525 0 0.1 0.525 0 0 0.53 0 0.02 0.53 0 0.04 0.53 0 0.06 0.53 0 0.08 0.53 0 0.1 0.53 0 0 0.535 0 0.02 0.535 0 0.04 0.535 0 0.06 0.535 0 0.08 0.535 0 0.1 0.535 0 0 0.54 0 0.02 0.54 0 0.04 0.54 0 0.06 0.54 0 0.08 0.54 0 0.1 0.54 0 0 0.545 0 0.02 0.545 0 0.04 0.545 0 0.06 0.545 0 0.08 0.545 0 0.1 0.545 0 0 0.55 0 0.02 0.55 0 0.04 0.55 0 0.06 0.55 0 0.08 0.55 0 0.1 0.55 0 0 0.555 0 0.02 0.555 0 0.04 0.555 0 0.06 0.555 0 0.08 0.555 0 0.1 0.555 0 0 0.56 0 0.02 0.56 0 0.04 0.56 0 0.06 0.56 0 0.08 0.56 0 0.1 0.56 0 0 0.565 0 0.02 0.565 0 0.04 0.565 0 0.06 0.565 0 0.08 0.565 0 0.1 0.565 0 0 0.57 0 0.02 0.57 0 0.04 0.57 0 0.06 0.57 0 0.08 0.57 0 0.1 0.57 0 0 0.575 0 0.02 0.575 0 0.04 0.575 0 0.06 0.575 0 0.08 0.575 0 0.1 0.575 0 0 0.58 0 0.02 0.58 0 0.04 0.58 0 0.06 0.58 0 0.08 0.58 0 0.1 0.58 0 0 0.585 0 0.02 0.585 0 0.04 0.585 0 0.06 0.585 0 0.08 0.585 0 0.1 0.585 0 0 0.59 0 0.02 0.59 0 0.04 0.59 0 0.06 0.59 0 0.08 0.59 0 0.1 0.59 0 0 0.595 0 0.02 0.595 0 0.04 0.595 0 0.06 0.595 0 0.08 0.595 0 0.1 0.595 0 0 0.6 0 0.02 0.6 0 0.04 0.6 0 0.06 0.6 0 0.08 0.6 0 0.1 0.6 0 0 0.605 0 0.02 0.605 0 0.04 0.605 0 0.06 0.605 0 0.08 0.605 0 0.1 0.605 0 0 0.61 0 0.02 0.61 0 0.04 0.61 0 0.06 0.61 0 0.08 0.61 0 0.1 0.61 0 0 0.615 0 0.02 0.615 0 0.04 0.615 0 0.06 0.615 0 0.08 0.615 0 0.1 0.615 0 0 0.62 0 0.02 0.62 0 0.04 0.62 0 0.06 0.62 0 0.08 0.62 0 0.1 0.62 0 0 0.625 0 0.02 0.625 0 0.04 0.625 0 0.06 0.625 0 0.08 0.625 0 0.1 0.625 0 0 0.63 0 0.02 0.63 0 0.04 0.63 0 0.06 0.63 0 0.08 0.63 0 0.1 0.63 0 0 0.635 0 0.02 0.635 0 0.04 0.635 0 0.06 0.635 0 0.08 0.635 0 0.1 0.635 0 0 0.64 0 0.02 0.64 0 0.04 0.64 0 0.06 0.64 0 0.08 0.64 0 0.1 0.64 0 0 0.645 0 0.02 0.645 0 0.04 0.645 0 0.06 0.645 0 0.08 0.645 0 0.1 0.645 0 0 0.65 0 0.02 0.65 0 0.04 0.65 0 0.06 0.65 0 0.08 0.65 0 0.1 0.65 0 0 0.655 0 0.02 0.655 0 0.04 0.655 0 0.06 0.655 0 0.08 0.655 0 0.1 0.655 0 0 0.66 0 0.02 0.66 0 0.04 0.66 0 0.06 0.66 0 0.08 0.66 0 0.1 0.66 0 0 0.665 0 0.02 0.665 0 0.04 0.665 0 0.06 0.665 0 0.08 0.665 0 0.1 0.665 0 0 0.67 0 0.02 0.67 0 0.04 0.67 0 0.06 0.67 0 0.08 0.67 0 0.1 0.67 0 0 0.675 0 0.02 0.675 0 0.04 0.675 0 0.06 0.675 0 0.08 0.675 0 0.1 0.675 0 0 0.68 0 0.02 0.68 0 0.04 0.68 0 0.06 0.68 0 0.08 0.68 0 0.1 0.68 0 0 0.685 0 0.02 0.685 0 0.04 0.685 0 0.06 0.685 0 0.08 0.685 0 0.1 0.685 0 0 0.69 0 0.02 0.69 0 0.04 0.69 0 0.06 0.69 0 0.08 0.69 0 0.1 
[...]
			<PointData Scalars="VitesseX">
				<DataArray Name="VitesseX" type="Float32" format="ascii">
 0 -7.55307e-15 -3.74141e-15 7.59343e-15 3.52087e-15 0 0 -5.10042e-15 -7.62091e-15 1.24477e-14 7.26565e-16 0 0 -5.51341e-15 -5.50147e-15 7.3692e-15 6.36373e-15 0 0 3.93605e-15 -1.96876e-14 1.66078e-14 4.2115e-15 0 0 5.45089e-15 -1.61831e-14 7.50643e-15 1.25e-14 0 0 -1.96314e-15 7.94336e-15 -2.43245e-14 3.18328e-14 0 0 -2.27137e-15 1.58544e-14 -3.20231e-14 3.10693e-14 0 0 3.22027e-16 5.83947e-16 -4.30015e-15 1.0701e-14 0 0 -1.31478e-15 4.57808e-16 -9.50064e-15 1.75368e-14 0 0 6.26474e-15 5.08717e-15 -2.54277e-14 2.06633e-14 0 0 1.9116e-14 -2.2433e-14 2.0147e-14 -2.63522e-14 0 0 -1.34622e-14 1.45606e-14 -6.12407e-16 -2.91113e-14 0 0 -2.14933e-14 2.37721e-14 -9.77947e-15 -3.37266e-14 0 0 -2.60962e-15 -9.15606e-15 1.41379e-14 -4.53064e-14 0 0 -3.22756e-14 2.7159e-14 -2.58359e-14 -1.54047e-14 0 0 -1.66536e-14 -1.52246e-14 1.07017e-14 -2.08231e-14 0 0 -1.78021e-14 -1.56301e-14 -1.53468e-14 1.93819e-14 0 0 -3.80475e-14 2.22331e-14 -6.85704e-14 3.88017e-14 0 0 -2.71544e-14 -8.40878e-15 -3.82557e-14 2.25759e-14 0 0 -3.08519e-14 -1.94691e-14 -1.69175e-14 2.09577e-14 0 0 -2.44322e-14 -2.63247e-14 -3.09539e-14 4.81336e-14 0 0 -5.97384e-14 2.73428e-14 -7.49948e-14 6.83461e-14 0 0 -3.8138e-14 -1.70573e-14 1.32981e-14 -2.99125e-14 0 0 5.78383e-15 -8.25455e-14 8.68095e-14 -9.28076e-14 0 0 -1.33231e-14 -4.97032e-14 7.29874e-14 -9.59887e-14 0 0 -1.81177e-14 -3.07006e-14 3.31782e-14 -5.5915e-14 0 0 5.43947e-15 -2.36046e-14 -2.16028e-14 -7.29521e-15 0 0 -1.85559e-14 7.91251e-15 -5.3176e-14 9.26856e-15 0 0 -1.85834e-15 -6.84274e-14 7.85159e-15 6.02353e-15 0 0 -6.74407e-15 -8.75377e-14 2.31822e-14 1.33527e-14 0 0 -5.41929e-14 -1.72237e-14 -2.44103e-14 6.00934e-15 0 0 -3.2926e-14 -5.99163e-14 5.28344e-15 -1.20635e-14 0 0 -6.01165e-14 -2.31083e-14 -5.51899e-14 4.53856e-14 0 0 -3.22079e-14 -7.81518e-14 -1.87424e-14 5.10431e-14 0 0 -1.06907e-14 -1.43656e-13 5.30909e-14 3.32489e-14 0 0 -4.94312e-14 -8.70573e-14 1.30997e-14 5.41028e-14 0 0 -4.02155e-14 -8.69388e-14 1.99135e-14 4.67808e-14 0 0 -3.81505e-14 -5.28172e-14 1.16784e-15 2.76699e-14 0 0 -7.8678e-15 -5.52794e-14 1.36653e-14 -1.90497e-14 0 0 -1.00941e-14 -6.52819e-15 -5.7574e-14 3.49433e-15 0 0 4.86541e-14 -8.40157e-14 4.40029e-14 -9.54406e-14 0 0 9.17033e-14 -1.42827e-13 1.25444e-13 -1.59768e-13 0 0 1.67807e-14 -1.60242e-14 -3.79396e-14 -3.18251e-14 0 0 -2.80873e-15 2.34226e-14 -1.19459e-13 2.99922e-14 0 0 -8.49332e-15 4.53942e-14 -1.73824e-13 5.94242e-14 0 0 6.50434e-14 -5.01857e-14 -1.32195e-13 5.11323e-14 0 0 1.10391e-13 -8.03666e-14 -1.03651e-13 1.92988e-14 0 0 4.04846e-14 1.97475e-14 -1.11802e-13 -2.05748e-14 0 0 5.37195e-14 -6.19329e-15 -8.15944e-14 -7.57667e-15 0 0 -6.14878e-15 8.57904e-14 -1.6785e-13 7.74795e-14 0 0 -5.50606e-14 1.43584e-13 -2.07257e-13 8.4694e-14 0 0 3.19525e-14 4.67645e-18 -7.93019e-14 -1.10927e-15 0 0 1.22471e-13 -1.41967e-13 6.73791e-14 -9.28401e-14 0 0 1.32598e-13 -1.34884e-13 8.26776e-14 -7.3236e-14 0 0 3.75329e-14 1.26904e-14 -6.62537e-14 1.05439e-13 0 0 -7.56667e-14 1.99568e-13 -2.83744e-13 2.95172e-13 0 0 -2.74008e-15 1.24023e-13 -1.95554e-13 1.94914e-13 0 0 9.99279e-14 -1.39746e-14 -7.77207e-15 3.90212e-14 0 0 4.60639e-14 1.19554e-13 -7.05605e-14 4.38881e-14 0 0 6.11415e-15 2.63994e-13 -2.01347e-13 5.93458e-14 0 0 3.39274e-14 2.05278e-13 -1.73714e-13 -8.50133e-15 0 0 1.13612e-13 9.89284e-15 -5.14842e-15 -5.67774e-14 0 0 4.10652e-14 6.85143e-14 -7.03453e-14 6.16413e-14 0 0 3.88792e-14 5.20713e-14 -6.65856e-14 3.11414e-14 0 0 7.32238e-14 5.34993e-14 -1.18709e-13 -1.18197e-15 0 0 1.55622e-13 3.56502e-14 -2.19719e-13 1.30161e-14 0 0 3.23416e-13 -2.00258e-13 -6.05245e-14 -1.24449e-13 0 0 1.35045e-13 7.80856e-14 -2.65403e-13 -5.84298e-14 0 0 1.04712e-13 2.71447e-13 -4.35345e-13 3.70764e-14 0 0 1.62411e-13 9.26709e-14 -1.93138e-13 -1.16256e-13 0 0 -4.7125e-14 1.37327e-13 -1.00284e-13 -1.65099e-13 0 0 -2.50023e-14 5.46142e-14 -6.97111e-14 -1.00889e-13 0 0 5.63872e-14 7.3435e-14 -1.97394e-13 1.75794e-14 0 0 9.46739e-14 2.02794e-13 -4.12568e-13 7.44069e-15 0 0 9.39024e-14 1.92738e-13 -3.57142e-13 -1.51535e-13 0 0 8.23616e-14 1.45476e-13 -2.71132e-13 -1.83563e-13 0 0 9.35494e-14 8.30924e-14 -2.91927e-13 -4.48346e-14 0 0 1.22275e-13 2.17779e-14 -3.03077e-13 1.25435e-13 0 0 8.5408e-14 3.57213e-14 -3.96819e-13 2.85798e-13 0 0 -5.21952e-15 1.10248e-13 -4.72194e-13 2.94249e-13 0 0 -8.13367e-14 1.07424e-13 -4.49347e-13 2.49004e-13 0 0 -1.44022e-13 5.63264e-14 -3.14519e-13 1.08214e-13 0 0 -1.9388e-13 -2.17763e-14 -1.08829e-13 -1.05843e-13 0 0 -2.62387e-13 -1.3205e-13 6.87874e-14 -2.52157e-13 0 0 -2.75583e-13 -2.0633e-13 1.15897e-13 -2.39528e-13 0 0 -2.5795e-13 -2.0306e-13 4.45378e-14 -1.61915e-13 0 0 -2.39629e-13 -1.73359e-13 -1.09874e-13 -5.6264e-15 0 0 -2.53935e-13 -1.04887e-13 -3.3169e-13 2.37376e-13 0 0 -3.00445e-13 -3.26191e-14 -4.42627e-13 3.06208e-13 0 0 -3.21798e-13 -3.43834e-14 -4.28176e-13 2.68445e-13 0 0 -3.14304e-13 -7.2402e-14 -3.59807e-13 1.66283e-13 0 0 -2.66049e-13 -1.64037e-13 -2.53415e-13 1.99997e-14 0 0 -2.2137e-13 -2.67383e-13 -1.82531e-13 -7.45154e-14 0 0 -2.19977e-13 -3.03788e-13 -1.33986e-13 -1.20296e-13 0 0 -2.55238e-13 -3.11318e-13 -8.32479e-14 -1.39714e-13 0 0 -3.53857e-13 -2.99425e-13 -2.87412e-14 -1.36393e-13 0 0 -5.1079e-13 -2.54025e-13 -1.5514e-14 -1.40573e-13 0 0 -6.49566e-13 -1.82551e-13 -2.12683e-14 -1.54217e-13 0 0 -7.07301e-13 -1.2489e-13 -2.17835e-14 -1.54966e-13 0 0 -7.0886e-13 -1.26881e-13 -7.64284e-15 -1.66226e-13 0 0 -6.74477e-13 -1.48035e-13 9.88284e-15 -1.75213e-13 0 0 -5.93467e-13 -1.90257e-13 1.4758e-14 -1.7382e-13 0 0 -4.81299e-13 -2.34078e-13 8.80596e-15 -1.52871e-13 0 0 -3.66642e-13 -2.56291e-13 -1.46487e-14 -8.34951e-14 0 0 -2.78449e-13 -2.6754e-13 -4.46431e-14 1.81745e-14 0 0 -2.20458e-13 -2.59939e-13 -7.58177e-14 8.87403e-14 0 0 -1.69286e-13 -2.33428e-13 -9.06228e-14 1.42045e-13 0 0 -1.08728e-13 -2.20084e-13 -7.1996e-14 1.59959e-13 0 0 -3.25103e-14 -2.21129e-13 -3.74835e-14 1.5757e-13 0 0 6.35961e-14 -2.51428e-13 2.25615e-15 1.60308e-13 0 0 1.27661e-13 -2.43099e-13 -1.48852e-14 2.13424e-13 0 0 1.43987e-13 -2.04794e-13 -3.84423e-14 3.22687e-13 0 0 1.56091e-13 -1.76779e-13 2.1709e-14 3.0475e-13 0 0 1.67786e-13 -1.2791e-13 1.94606e-14 3.30118e-13 0 0 1.5945e-13 -3.89508e-14 1.16315e-14 3.30345e-13 0 0 1.54968e-13 2.13732e-14 2.46968e-14 2.93927e-13 0 0 1.71327e-13 2.49863e-14 3.20481e-14 2.80951e-13 0 0 1.9382e-13 2.03407e-14 3.48486e-14 2.77097e-13 0 0 2.41552e-13 7.72712e-15 7.1632e-14 2.269e-13 0 0 3.17296e-13 -5.07949e-14 1.63885e-13 1.31789e-13 0 0 3.49788e-13 -8.41849e-14 1.83318e-13 9.99602e-14 0 0 3.54281e-13 -8.80385e-14 1.71738e-13 1.10993e-13 0 0 3.55094e-13 -8.45861e-14 1.38734e-13 1.42446e-13 0 0 3.46019e-13 -6.58053e-14 7.76216e-14 1.95911e-13 0 0 3.10343e-13 -1.03955e-14 -1.01843e-14 2.38117e-13 0 0 2.53824e-13 3.47802e-14 -3.65153e-14 2.29978e-13 0 0 1.88913e-13 4.32167e-14 -2.0559e-14 1.79571e-13 0 0 1.05976e-13 3.18064e-14 6.29239e-14 8.3107e-14 0 0 8.20995e-14 -3.92262e-14 2.2449e-13 -6.45441e-14 0 0 5.21907e-14 -3.40243e-14 2.06255e-13 -1.30278e-13 0 0 9.59346e-15 2.92617e-14 1.18513e-13 -1.51265e-13 0 0 1.92251e-14 3.31499e-14 4.44335e-14 -7.56134e-14 0 0 4.58843e-14 1.28457e-14 -1.57455e-14 -6.0521e-14 0 0 6.57896e-14 -1.33608e-14 -1.45942e-14 -1.34824e-13 0 0 5.15621e-14 1.10119e-14 -7.59473e-14 -1.6533e-13 0 0 1.78259e-14 2.79005e-14 -1.30658e-13 -1.30909e-13 0 0 1.5203e-14 -7.19836e-15 -9.33131e-14 -1.64127e-13 0 0 1.33571e-14 -6.08876e-14 -2.58161e-14 -2.22715e-13 0 0 -1.23263e-14 -5.81737e-14 -2.51859e-14 -1.74963e-13 0 0 -4.72521e-14 -6.33604e-14 -1.86488e-14 -1.95711e-13 0 0 -8.64154e-14 -6.73508e-14 -1.36311e-14 -1.81824e-13 0 0 -1.37559e-13 -7.2795e-14 -3.61817e-14 -5.79053e-14 0 0 -1.48941e-13 -1.03258e-13 -1.65969e-14 -3.88794e-14 0 0 -1.24639e-13 -1.49194e-13 1.03358e-14 -7.15901e-14 0 0 -1.29634e-13 -1.76238e-13 -7.42746e-15 -1.97479e-14 0 0 -1.2805e-13 -2.12735e-13 -8.38209e-15 -4.77362e-14 0 0 -1.00449e-13 -2.14596e-13 -2.42039e-14 -1.28153e-13 0 0 -6.5935e-14 -1.86685e-13 -7.46098e-14 -1.1856e-13 0 0 -4.96188e-14 -1.14594e-13 -1.819e-13 -1.9972e-13 0 0 -5.42501e-14 -5.14692e-14 -1.74288e-13 -2.89775e-13 0 0 1.85028e-15 -9.20621e-14 -8.10848e-14 -1.33993e-13 0 0 4.97458e-14 -7.80056e-14 1.50025e-14 1.62566e-13 0 0 4.50551e-14 -2.06301e-14 7.62438e-14 2.13143e-13 0 0 5.41183e-14 1.3815e-14 1.61195e-13 1.7619e-13 0 0 2.90594e-14 5.80691e-14 2.04492e-13 4.2323e-14 0 0 -2.98116e-14 1.99274e-13 5.86446e-14 6.47746e-14 0 0 -1.76206e-14 1.81528e-13 6.12159e-14 9.89077e-14 0 0 7.82836e-14 -3.71628e-14 3.53646e-13 -9.07872e-14 0 0 6.7481e-14 -5.09033e-14 3.63721e-13 -5.47567e-14 0 0 -6.52776e-14 1.45156e-13 4.28392e-14 2.10345e-13 0 0 -1.84297e-14 1.45538e-14 1.56811e-13 1.89234e-13 0 0 -8.83153e-14 1.15047e-13 1.30054e-13 1.81261e-13 0 0 -1.4534e-13 1.90028e-13 1.09659e-13 2.06748e-13 0 0 -1.56135e-14 -1.78077e-14 3.18406e-13 1.49797e-13 0 0 -8.33569e-14 1.30372e-13 1.14481e-13 3.06357e-13 0 0 -1.05791e-13 2.31524e-13 1.18936e-14 3.17745e-13 0 0 8.30738e-15 1.44057e-13 1.15282e-13 1.90347e-13 0 0 5.8963e-14 6.43771e-14 2.12123e-13 1.35117e-13 0 0 7.81779e-14 -1.23405e-14 3.9952e-13 -5.18898e-15 0 0 2.36867e-14 7.01922e-14 3.82543e-13 4.11454e-15 0 0 -5.42672e-14 2.48826e-13 2.37155e-13 1.56791e-13 0 0 -4.51053e-14 2.54571e-13 3.1e-13 1.22502e-13 0 0 -5.94963e-14 2.81077e-13 3.27801e-13 1.73084e-13 0 0 7.60859e-14 9.67686e-14 4.57858e-13 2.92286e-13 0 0 1.0334e-13 9.90997e-14 3.79809e-13 4.72261e-13 0 0 3.0259e-14 2.26243e-13 3.50988e-13 3.88659e-13 0 0 5.02649e-14 2.52879e-13 3.85779e-13 2.58486e-13 0 0 1.06496e-13 2.74164e-13 3.27232e-13 2.95387e-13 0 0 1.24058e-13 2.39614e-13 3.95136e-13 1.78607e-13 0 0 -6.88198e-14 4.61257e-13 2.18227e-13 1.22824e-13 0 0 -6.62219e-14 3.73091e-13 4.34655e-13 -1.56981e-13 0 0 8.2893e-14 3.24584e-13 4.88447e-13 -1.87272e-13 0 0 9.89797e-14 4.29727e-13 3.0836e-13 6.40597e-15 0 0 3.68091e-14 4.82148e-13 4.00973e-13 -1.21491e-13 0 0 9.04254e-14 5.60486e-13 2.82165e-13 -8.75191e-14 0 0 6.07963e-14 6.38429e-13 3.50369e-15 2.13479e-13 0 0 2.05277e-13 2.33847e-13 4.01489e-13 2.72293e-14 0 0 3.16502e-13 -3.53483e-14 6.48098e-13 -6.91003e-14 0 0 9.00417e-14 2.27886e-13 3.49249e-13 1.69363e-13 0 0 -4.43638e-14 3.51518e-13 4.56187e-13 -7.23515e-14 0 0 -8.43242e-14 4.59867e-13 5.81315e-13 -4.00346e-13 0 0 2.28607e-14 4.75059e-13 3.28621e-13 -2.45905e-13 0 0 1.36188e-13 3.90607e-13 1.19021e-13 2.39009e-14 0 0 1.29365e-13 1.9078e-13 5.28372e-13 -2.63156e-13 0 0 1.86799e-13 -3.66447e-14 7.68293e-13 -2.80744e-13 0 0 2.95241e-13 -1.12996e-13 6.74896e-13 -1.04809e-13 0 0 9.40309e-14 5.48899e-14 5.25287e-13 -5.81625e-14 0 0 6.42834e-14 -1.58827e-14 3.60561e-13 1.68826e-13 0 0 1.77678e-13 8.31792e-14 -2.91974e-14 3.62351e-13 0 0 2.45862e-13 2.34023e-13 -4.30641e-13 5.42019e-13 0 0 3.83516e-13 9.60318e-14 -4.53372e-13 5.99604e-13 0
				</DataArray>
				<DataArray Name="VitesseY" type="Float32" format="ascii">