<?xml version="1.0"?>
<VTKFile type="PolyData">
	<PolyData>
		<Piece NumberOfPoints="1206" NumberOfPolys="1000">
			<Points>
				<DataArray type="Float32" NumberOfComponents="3" format="ascii">
 0 0 0 0.02 0 0 0.04 0 0 0.06 0 0 0.08 0 0 0.1 0 0 0 0.005 0 0.02 0.005 0 0.04 0.005 0 0.06 0.005 0 0.08 0.005 0 0.1 0.005 0 0 0.01 0 0.02 0.01 0 0.04 0.01 0 0.06 0.01 0 0.08 0.01 0 0.1 0.01 0 0 0.015 0 0.02 0.015 0 0.04 0.015 0 0.06 0.015 0 0.08 0.015 0 0.1 0.015 0 0 0.02 0 0.02 0.02 0 0.04 0.02 0 0.06 0.02 0 0.08 0.02 0 0.1 0.02 0 0 0.025 0 0.02 0.025 0 0.04 0.025 0 0.06 0.025 0 0.08 0.025 0 0.1 0.025 0 0 0.03 0 0.02 0.03 0 0.04 0.03 0 0.06 0.03 0 0.08 0.03 0 0.1 0.03 0 0 0.035 0 0.02 0.035 0 0.04 0.035 0 0.06 0.035 0 0.08 0.035 0 0.1 0.035 0 0 0.04 0 0.02 0.04 0 0.04 0.04 0 0.06 0.04 0 0.08 0.04 0 0.1 0.04 0 0 0.045 0 0.02 0.045 0 0.04 0.045 0 0.06 0.045 0 0.08 0.045 0 0.1 0.045 0 0 0.05 0 0.02 0.05 0 0.04 0.05 0 0.06 0.05 0 0.08 0.05 0 0.1 0.05 0 0 0.055 0 0.02 0.055 0 0.04 0.055 0 0.06 0.055 0 0.08 0.055 0 0.1 0.055 0 0 0.06 0 0.02 0.06 0 0.04 0.06 0 0.06 0.06 0 0.08 0.06 0 0.1 0.06 0 0 0.065 0 0.02 0.065 0 0.04 0.065 0 0.06 0.065 0 0.08 0.065 0 0.1 0.065 0 0 0.07 0 0.02 0.07 0 0.04 0.07 0 0.06 0.07 0 0.08 0.07 0 0.1 0.07 0 0 0.075 0 0.02 0.075 0 0.04 0.075 0 0.06 0.075 0 0.08 0.075 0 0.1 0.075 0 0 0.08 0 0.02 0.08 0 0.04 0.08 0 0.06 0.08 0 0.08 0.08 0 0.1 0.08 0 0 0.085 0 0.02 0.085 0 0.04 0.085 0 0.06 0.085 0 0.08 0.085 0 0.1 0.085 0 0 0.09 0 0.02 0.09 0 0.04 0.09 0 0.06 0.09 0 0.08 0.09 0 0.1 0.09 0 0 0.095 0 0.02 0.095 0 0.04 0.095 0 0.06 0.095 0 0.08 0.095 0 0.1 0.095 0 0 0.1 0 0.02 0.1 0 0.04 0.1 0 0.06 0.1 0 0.08 0.1 0 0.1 0.1 0 0 0.105 0 0.02 0.105 0 0.04 0.105 0 0.06 0.105 0 0.08 0.105 0 0.1 0.105 0 0 0.11 0 0.02 0.11 0 0.04 0.11 0 0.06 0.11 0 0.08 0.11 0 0.1 0.11 0 0 0.115 0 0.02 0.115 0 0.04 0.115 0 0.06 0.115 0 0.08 0.115 0 0.1 0.115 0 0 0.12 0 0.02 0.12 0 0.04 0.12 0 0.06 0.12 0 0.08 0.12 0 0.1 0.12 0 0 0.125 0 0.02 0.125 0 0.04 0.125 0 0.06 0.125 0 0.08 0.125 0 0.1 0.125 0 0 0.13 0 0.02 0.13 0 0.04 0.13 0 0.06 0.13 0 0.08 0.13 0 0.1 0.13 0 0 0.135 0 0.02 0.135 0 0.04 0.135 0 0.06 0.135 0 0.08 0.135 0 0.1 0.135 0 0 0.14 0 0.02 0.14 0 0.04 0.14 0 0.06 0.14 0 0.08 0.14 0 0.1 0.14 0 0 0.145 0 0.02 0.145 0 0.04 0.145 0 0.06 0.145 0 0.08 0.145 0 0.1 0.145 0 0 0.15 0 0.02 0.15 0 0.04 0.15 0 0.06 0.15 0 0.08 0.15 0 0.1 0.15 0 0 0.155 0 0.02 0.155 0 0.04 0.155 0 0.06 0.155 0 0.08 0.155 0 0.1 0.155 0 0 0.16 0 0.02 0.16 0 0.04 0.16 0 0.06 0.16 0 0.08 0.16 0 0.1 0.16 0 0 0.165 0 0.02 0.165 0 0.04 0.165 0 0.06 0.165 0 0.08 0.165 0 0.1 0.165 0 0 0.17 0 0.02 0.17 0 0.04 0.17 0 0.06 0.17 0 0.08 0.17 0 0.1 0.17 0 0 0.175 0 0.02 0.175 0 0.04 0.175 0 0.06 0.175 0 0.08 0.175 0 0.1 0.175 0 0 0.18 0 0.02 0.18 0 0.04 0.18 0 0.06 0.18 0 0.08 0.18 0 0.1 0.18 0 0 0.185 0 0.02 0.185 0 0.04 0.185 0 0.06 0.185 0 0.08 0.185 0 0.1 0.185 0 0 0.19 0 0.02 0.19 0 0.04 0.19 0 0.06 0.19 0 0.08 0.19 0 0.1 0.19 0 0 0.195 0 0.02 0.195 0 0.04 0.195 0 0.06 0.195 0 0.08 0.195 0 0.1 0.195 0 0 0.2 0 0.02 0.2 0 0.04 0.2 0 0.06 0.2 0 0.08 0.2 0 0.1 0.2 0 0 0.205 0 0.02 0.205 0 0.04 0.205 0 0.06 0.205 0 0.08 0.205 0 0.1 0.205 0 0 0.21 0 0.02 0.21 0 0.04 0.21 0 0.06 0.21 0 0.08 0.21 0 0.1 0.21 0 0 0.215 0 0.02 0.215 0 0.04 0.215 0 0.06 0.215 0 0.08 0.215 0 0.1 0.215 0 0 0.22 0 0.02 0.22 0 0.04 0.22 0 0.06 0.22 0 0.08 0.22 0 0.1 0.22 0 0 0.225 0 0.02 0.225 0 0.04 0.225 0 0.06 0.225 0 0.08 0.225 0 0.1 0.225 0 0 0.23 0 0.02 0.23 0 0.04 0.23 0 0.06 0.23 0 0.08 0.23 0 0.1 0.23 0 0 0.235 0 0.02 0.235 0 0.04 0.235 0 0.06 0.235 0 0.08 0.235 0 0.1 0.235 0 0 0.24 0 0.02 0.24 0 0.04 0.24 0 0.06 0.24 0 0.08 0.24 0 0.1 0.24 0 0 0.245 0 0.02 0.245 0 0.04 0.245 0 0.06 0.245 0 0.08 0.245 0 0.1 0.245 0 0 0.25 0 0.02 0.25 0 0.04 0.25 0 0.06 0.25 0 0.08 0.25 0 0.1 0.25 0 0 0.255 0 0.02 0.255 0 0.04 0.255 0 0.06 0.255 0 0.08 0.255 0 0.1 0.255 0 0 0.26 0 0.02 0.26 0 0.04 0.26 0 0.06 0.26 0 0.08 0.26 0 0.1 0.26 0 0 0.265 0 0.02 0.265 0 0.04 0.265 0 0.06 0.265 0 0.08 0.265 0 0.1 0.265 0 0 0.27 0 0.02 0.27 0 0.04 0.27 0 0.06 0.27 0 0.08 0.27 0 0.1 0.27 0 0 0.275 0 0.02 0.275 0 0.04 0.275 0 0.06 0.275 0 0.08 0.275 0 0.1 0.275 0 0 0.28 0 0.02 0.28 0 0.04 0.28 0 0.06 0.28 0 0.08 0.28 0 0.1 0.28 0 0 0.285 0 0.02 0.285 0 0.04 0.285 0 0.06 0.285 0 0.08 0.285 0 0.1 0.285 0 0 0.29 0 0.02 0.29 0 0.04 0.29 0 0.06 0.29 0 0.08 0.29 0 0.1 0.29 0 0 0.295 0 0.02 0.295 0 0.04 0.295 0 0.06 0.295 0 0.08 0.295 0 0.1 0.295 0 0 0.3 0 0.02 0.3 0 0.04 0.3 0 0.06 0.3 0 0.08 0.3 0 0.1 0.3 0 0 0.305 0 0.02 0.305 0 0.04 0.305 0 0.06 0.305 0 0.08 0.305 0 0.1 0.305 0 0 0.31 0 0.02 0.31 0 0.04 0.31 0 0.06 0.31 0 0.08 0.31 0 0.1 0.31 0 0 0.315 0 0.02 0.315 0 0.04 0.315 0 0.06 0.315 0 0.08 0.315 0 0.1 0.315 0 0 0.32 0 0.02 0.32 0 0.04 0.32 0 0.06 0.32 0 0.08 0.32 0 0.1 0.32 0 0 0.325 0 0.02 0.325 0 0.04 0.325 0 0.06 0.325 0 0.08 0.325 0 0.1 0.325 0 0 0.33 0 0.02 0.33 0 0.04 0.33 0 0.06 0.33 0 0.08 0.33 0 0.1 0.33 0 0 0.335 0 0.02 0.335 0 0.04 0.335 0 0.06 0.335 0 0.08 0.335 0 0.1 0.335 0 0 0.34 0 0.02 0.34 0 0.04 0.34 0 0.06 0.34 0 0.08 0.34 0 0.1 0.34 0 0 0.345 0 0.02 0.345 0 0.04 0.345 0 0.06 0.345 0 0.08 0.345 0 0.1 0.345 0 0 0.35 0 0.02 0.35 0 0.04 0.35 0 0.06 0.35 0 0.08 0.35 0 0.1 0.35 0 0 0.355 0 0.02 0.355 0 0.04 0.355 0 0.06 0.355 0 0.08 0.355 0 0.1 0.355 0 0 0.36 0 0.02 0.36 0 0.04 0.36 0 0.06 0.36 0 0.08 0.36 0 0.1 0.36 0 0 0.365 0 0.02 0.365 0 0.04 0.365 0 0.06 0.365 0 0.08 0.365 0 0.1 0.365 0 0 0.37 0 0.02 0.37 0 0.04 0.37 0 0.06 0.37 0 0.08 0.37 0 0.1 0.37 0 0 0.375 0 0.02 0.375 0 0.04 0.375 0 0.06 0.375 0 0.08 0.375 0 0.1 0.375 0 0 0.38 0 0.02 0.38 0 0.04 0.38 0 0.06 0.38 0 0.08 0.38 0 0.1 0.38 0 0 0.385 0 0.02 0.385 0 0.04 0.385 0 0.06 0.385 0 0.08 0.385 0 0.1 0.385 0 0 0.39 0 0.02 0.39 0 0.04 0.39 0 0.06 0.39 0 0.08 0.39 0 0.1 0.39 0 0 0.395 0 0.02 0.395 0 0.04 0.395 0 0.06 0.395 0 0.08 0.395 0 0.1 0.395 0 0 0.4 0 0.02 0.4 0 0.04 0.4 0 0.06 0.4 0 0.08 0.4 0 0.1 0.4 0 0 0.405 0 0.02 0.405 0 0.04 0.405 0 0.06 0.405 0 0.08 0.405 0 0.1 0.405 0 0 0.41 0 0.02 0.41 0 0.04 0.41 0 0.06 0.41 0 0.08 0.41 0 0.1 0.41 0 0 0.415 0 0.02 0.415 0 0.04 0.415 0 0.06 0.415 0 0.08 0.415 0 0.1 0.415 0 0 0.42 0 0.02 0.42 0 0.04 0.42 0 0.06 0.42 0 0.08 0.42 0 0.1 0.42 0 0 0.425 0 0.02 0.425 0 0.04 0.425 0 0.06 0.425 0 0.08 0.425 0 0.1 0.425 0 0 0.43 0 0.02 0.43 0 0.04 0.43 0 0.06 0.43 0 0.08 0.43 0 0.1 0.43 0 0 0.435 0 0.02 0.435 0 0.04 0.435 0 0.06 0.435 0 0.08 0.435 0 0.1 0.435 0 0 0.44 0 0.02 0.44 0 0.04 0.44 0 0.06 0.44 0 0.08 0.44 0 0.1 0.44 0 0 0.445 0 0.02 0.445 0 0.04 0.445 0 0.06 0.445 0 0.08 0.445 0 0.1 0.445 0 0 0.45 0 0.02 0.45 0 0.04 0.45 0 0.06 0.45 0 0.08 0.45 0 0.1 0.45 0 0 0.455 0 0.02 0.455 0 0.04 0.455 0 0.06 0.455 0 0.08 0.455 0 0.1 0.455 0 0 0.46 0 0.02 0.46 0 0.04 0.46 0 0.06 0.46 0 0.08 0.46 0 0.1 0.46 0 0 0.465 0 0.02 0.465 0 0.04 0.465 0 0.06 0.465 0 0.08 0.465 0 0.1 0.465 0 0 0.47 0 0.02 0.47 0 0.04 0.47 0 0.06 0.47 0 0.08 0.47 0 0.1 0.47 0 0 0.475 0 0.02 0.475 0 0.04 0.475 0 0.06 0.475 0 0.08 0.475 0 0.1 0.475 0 0 0.48 0 0.02 0.48 0 0.04 0.48 0 0.06 0.48 0 0.08 0.48 0 0.1 0.48 0 0 0.485 0 0.02 0.485 0 0.04 0.485 0 0.06 0.485 0 0.08 0.485 0 0.1 0.485 0 0 0.49 0 0.02 0.49 0 0.04 0.49 0 0.06 0.49 0 0.08 0.49 0 0.1 0.49 0 0 0.495 0 0.02 0.495 0 0.04 0.495 0 0.06 0.495 0 0.08 0.495 0 0.1 0.495 0 0 0.5 0 0.02 0.5 0 0.04 0.5 0 0.06 0.5 0 0.08 0.5 0 0.1 0.5 0 0 0.505 0 0.02 0.505 0 0.04 0.505 0 0.06 0.505 0 0.08 0.505 0 0.1 0.505 0 0 0.51 0 0.02 0.51 0 0.04 0.51 0 0.06 0.51 0 0.08 0.51 0 0.1 0.51 0 0 0.515 0 0.02 0.515 0 0.04 0.515 0 0.06 0.515 0 0.08 0.515 0 0.1 0.515 0 0 0.52 0 0.02 0.52 0 0.04 0.52 0 0.06 0.52 0 0.08 0.52 0 0.1 0.52 0 0 0.525 0 0.02 0.525 0 0.04 0.525 0 0.06 0.525 0 0.08 0.525 0 0.1 0.525 0 0 0.53 0 0.02 0.53 0 0.04 0.53 0 0.06 0.53 0 0.08 0.53 0 0.1 0.53 0 0 0.535 0 0.02 0.535 0 0.04 0.535 0 0.06 0.535 0 0.08 0.535 0 0.1 0.535 0 0 0.54 0 0.02 0.54 0 0.04 0.54 0 0.06 0.54 0 0.08 0.54 0 0.1 0.54 0 0 0.545 0 0.02 0.545 0 0.04 0.545 0 0.06 0.545 0 0.08 0.545 0 0.1 0.545 0 0 0.55 0 0.02 0.55 0 0.04 0.55 0 0.06 0.55 0 0.08 0.55 0 0.1 0.55 0 0 0.555 0 0.02 0.555 0 0.04 0.555 0 0.06 0.555 0 0.08 0.555 0 0.1 0.555 0 0 0.56 0 0.02 0.56 0 0.04 0.56 0 0.06 0.56 0 0.08 0.56 0 0.1 0.56 0 0 0.565 0 0.02 0.565 0 0.04 0.565 0 0.06 0.565 0 0.08 0.565 0 0.1 0.565 0 0 0.57 0 0.02 0.57 0 0.04 0.57 0 0.06 0.57 0 0.08 0.57 0 0.1 0.57 0 0 0.575 0 0.02 0.575 0 0.04 0.575 0 0.06 0.575 0 0.08 0.575 0 0.1 0.575 0 0 0.58 0 0.02 0.58 0 0.04 0.58 0 0.06 0.58 0 0.08 0.58 0 0.1 0.58 0 0 0.585 0 0.02 0.585 0 0.04 0.585 0 0.06 0.585 0 0.08 0.585 0 0.1 0.585 0 0 0.59 0 0.02 0.59 0 0.04 0.59 0 0.06 0.59 0 0.08 0.59 0 0.1 0.59 0 0 0.595 0 0.02 0.595 0 0.04 0.595 0 0.06 0.595 0 0.08 0.595 0 0.1 0.595 0 0 0.6 0 0.02 0.6 0 0.04 0.6 0 0.06 0.6 0 0.08 0.6 0 0.1 0.6 0 0 0.605 0 0.02 0.605 0 0.04 0.605 0 0.06 0.605 0 0.08 0.605 0 0.1 0.605 0 0 0.61 0 0.02 0.61 0 0.04 0.61 0 0.06 0.61 0 0.08 0.61 0 0.1 0.61 0 0 0.615 0 0.02 0.615 0 0.04 0.615 0 0.06 0.615 0 0.08 0.615 0 0.1 0.615 0 0 0.62 0 0.02 0.62 0 0.04 0.62 0 0.06 0.62 0 0.08 0.62 0 0.1 0.62 0 0 0.625 0 0.02 0.625 0 0.04 0.625 0 0.06 0.625 0 0.08 0.625 0 0.1 0.625 0 0 0.63 0 0.02 0.63 0 0.04 0.63 0 0.06 0.63 0 0.08 0.63 0 0.1 0.63 0 0 0.635 0 0.02 0.635 0 0.04 0.635 0 0.06 0.635 0 0.08 0.635 0 0.1 0.635 0 0 0.64 0 0.02 0.64 0 0.04 0.64 0 0.06 0.64 0 0.08 0.64 0 0.1 0.64 0 0 0.645 0 0.02 0.645 0 0.04 0.645 0 0.06 0.645 0 0.08 0.645 0 0.1 0.645 0 0 0.65 0 0.02 0.65 0 0.04 0.65 0 0.06 0.65 0 0.08 0.65 0 0.1 0.65 0 0 0.655 0 0.02 0.655 0 0.04 0.655 0 0.06 0.655 0 0.08 0.655 0 0.1 0.655 0 0 0.66 0 0.02 0.66 0 0.04 0.66 0 0.06 0.66 0 0.08 0.66 0 0.1 0.66 0 0 0.665 0 0.02 0.665 0 0.04 0.665 0 0.06 0.665 0 0.08 0.665 0 0.1 0.665 0 0 0.67 0 0.02 0.67 0 0.04 0.67 0 0.06 0.67 0 0.08 0.67 0 0.1 0.67 0 0 0.675 0 0.02 0.675 0 0.04 0.675 0 0.06 0.675 0 0.08 0.675 0 0.1 0.675 0 0 0.68 0 0.02 0.68 0 0.04 0.68 0 0.06 0.68 0 0.08 0.68 0 0.1 0.68 0 0 0.685 0 0.02 0.685 0 0.04 0.685 0 0.06 0.685 0 0.08 0.685 0 0.1 0.685 0 0 0.69 0 0.02 0.69 0 0.04 0.69 0 0.06 0.69 0 0.08 0.69 0 0.1 
[...]
			<PointData Scalars="VitesseX">
				<DataArray Name="VitesseX" type="Float32" format="ascii">
 0 -3.37055e-14 2.03117e-14 -1.07126e-14 -5.60359e-15 0 0 -2.68818e-14 8.6675e-15 7.47539e-16 -1.31787e-14 0 0 -1.91715e-14 -1.57186e-15 6.86421e-15 -1.89365e-14 0 0 -7.02793e-15 -1.53365e-14 4.38482e-15 -1.11191e-14 0 0 8.36651e-15 -4.29084e-14 2.04657e-14 -4.2521e-15 0 0 -3.19812e-15 -3.4326e-14 2.04171e-14 1.15226e-14 0 0 -4.07002e-14 2.20516e-14 -1.1827e-14 3.54492e-14 0 0 -5.74794e-14 4.5392e-14 -7.02501e-15 2.86161e-14 0 0 -3.79004e-14 2.29525e-14 2.34864e-14 1.001e-14 0 0 5.47079e-15 -3.02313e-14 7.41377e-14 -1.47574e-14 0 0 4.0139e-14 -7.2632e-14 1.10779e-13 -3.02266e-14 0 0 9.76393e-15 -1.04123e-14 3.80735e-14 1.27844e-14 0 0 -2.35767e-15 1.96038e-14 2.9562e-15 2.75806e-14 0 0 8.79344e-15 -7.91618e-15 2.86633e-14 1.26736e-15 0 0 2.29779e-14 -4.14977e-14 4.0177e-14 -5.3125e-15 0 0 2.77024e-14 -3.53942e-14 8.89425e-15 6.88508e-15 0 0 -4.29995e-15 1.5835e-14 -3.93618e-14 7.49617e-15 0 0 4.12254e-14 -5.99177e-14 2.84531e-14 -2.54444e-14 0 0 7.72924e-14 -1.06137e-13 7.02094e-14 -2.95672e-14 0 0 1.37711e-14 -2.33877e-14 3.7935e-14 -3.29911e-14 0 0 -5.21239e-14 5.91413e-14 6.07195e-15 -5.09788e-14 0 0 -5.23495e-14 7.00022e-14 -2.08954e-14 -4.12782e-14 0 0 1.25571e-14 -3.76256e-14 4.10864e-14 -4.51123e-14 0 0 1.01284e-14 -4.58587e-14 1.80417e-14 5.27481e-15 0 0 -7.02754e-14 3.26185e-14 -3.65112e-14 3.8288e-14 0 0 -1.04868e-13 3.86845e-14 -2.36164e-14 2.78283e-14 0 0 -4.7255e-14 -2.61463e-14 -9.51336e-15 5.20638e-14 0 0 3.20906e-14 -1.3313e-13 7.50552e-14 2.83037e-14 0 0 -2.18989e-14 -4.99104e-14 1.80249e-14 5.46609e-14 0 0 -9.41027e-14 7.37573e-14 -8.30033e-14 9.9512e-14 0 0 -9.3613e-14 7.72113e-14 -5.89241e-14 8.17913e-14 0 0 -4.67778e-14 1.99852e-14 -8.24686e-15 7.8982e-14 0 0 7.06242e-15 -4.94379e-14 4.04113e-14 7.36745e-14 0 0 4.6158e-15 -5.20501e-14 7.9961e-14 3.24388e-14 0 0 -3.26675e-14 -1.44193e-14 1.22036e-13 -3.7211e-14 0 0 -9.60337e-14 9.00636e-14 6.99669e-14 -6.9216e-14 0 0 -4.04458e-14 3.41066e-14 9.37554e-14 -8.46752e-14 0 0 4.47922e-14 -1.1454e-13 2.22726e-13 -1.48016e-13 0 0 4.78209e-14 -1.30185e-13 2.38159e-13 -1.71059e-13 0 0 -3.93106e-14 3.67922e-15 1.39951e-13 -1.3262e-13 0 0 -1.36474e-13 1.72871e-13 -5.37223e-14 2.39349e-15 0 0 -1.14982e-13 1.72669e-13 -1.37465e-13 1.10336e-13 0 0 -9.90518e-14 1.05087e-13 -4.22826e-14 7.48128e-14 0 0 -2.0787e-13 1.67638e-13 2.16118e-15 3.84929e-14 0 0 -2.48185e-13 1.7363e-13 2.21951e-14 2.54e-14 0 0 -1.68701e-13 7.43812e-14 4.75985e-14 4.08557e-16 0 0 1.53986e-14 -1.47403e-13 1.81854e-13 -8.39485e-14 0 0 7.05937e-14 -1.64298e-13 2.00257e-13 -1.54575e-13 0 0 -7.24041e-14 7.99096e-14 6.06487e-14 -1.90124e-13 0 0 -2.76613e-13 3.97541e-13 -1.23172e-13 -1.90509e-13 0 0 -4.03199e-13 6.52074e-13 -3.32831e-13 -1.01312e-13 0 0 -8.11419e-14 3.05815e-13 -1.76001e-13 -1.13789e-13 0 0 1.81292e-13 2.66908e-15 3.22751e-14 -2.8207e-13 0 0 1.72821e-13 -1.40184e-14 1.51373e-13 -4.48787e-13 0 0 -7.58696e-14 1.96721e-13 5.88903e-14 -3.99953e-13 0 0 -2.82969e-13 3.35042e-13 -6.06026e-14 -2.70997e-13 0 0 -9.64037e-14 1.05798e-13 8.55657e-15 -2.52651e-13 0 0 -6.29986e-14 2.23259e-13 -2.7603e-13 -6.75068e-14 0 0 -4.0449e-14 2.17381e-13 -3.17957e-13 -1.71746e-14 0 0 -6.96819e-14 1.33063e-13 -1.12695e-13 -1.7337e-13 0 0 -1.7644e-13 1.21072e-13 7.49714e-14 -3.61841e-13 0 0 2.9049e-14 -2.19611e-13 3.52986e-13 -5.19395e-13 0 0 -5.80727e-14 2.05053e-14 -5.26548e-14 -2.32374e-13 0 0 -2.05736e-13 3.24967e-13 -4.01549e-13 -2.00465e-14 0 0 -4.21074e-14 9.4703e-14 -2.10604e-13 -6.2299e-14 0 0 9.37642e-15 -8.18724e-14 2.74773e-14 -1.20913e-13 0 0 4.79727e-14 -2.22995e-13 3.20728e-13 -2.57209e-13 0 0 -1.04324e-13 6.78259e-14 1.5766e-13 -1.82197e-13 0 0 -2.10367e-13 3.22715e-13 -9.4672e-14 -2.31587e-14 0 0 -2.92278e-14 1.02588e-13 1.50741e-14 4.82679e-16 0 0 -2.4079e-14 1.43393e-13 -6.40952e-14 2.60267e-14 0 0 -1.87438e-14 1.52565e-13 1.5693e-14 -1.76171e-13 0 0 -1.30503e-13 2.8916e-13 2.56819e-14 -3.7005e-13 0 0 -1.2667e-13 3.18254e-13 -5.22203e-14 -3.34761e-13 0 0 5.11113e-14 1.12643e-13 2.31032e-14 -2.45229e-13 0 0 1.55877e-13 -2.29915e-14 1.16973e-13 -2.30051e-13 0 0 6.68612e-14 1.40075e-13 1.07461e-14 -2.02896e-13 0 0 -1.6925e-13 5.60856e-13 -3.60327e-13 1.68467e-14 0 0 6.40756e-15 3.29164e-13 -1.11906e-13 -5.44066e-15 0 0 1.04196e-13 1.19287e-13 1.48705e-13 -4.09136e-14 0 0 1.49938e-13 8.00177e-14 -1.25711e-14 1.82793e-13 0 0 2.43808e-13 -1.4943e-13 1.84335e-13 1.90618e-14 0 0 -1.07167e-14 -1.16414e-13 4.96729e-13 -3.21603e-13 0 0 -1.21193e-13 -8.10346e-14 4.02483e-13 -4.02017e-14 0 0 -9.52086e-14 4.07627e-14 -2.25263e-14 4.59765e-13 0 0 -3.71071e-14 -5.18462e-14 -2.21625e-14 4.02455e-13 0 0 4.09545e-13 -5.92113e-13 2.08654e-13 1.87486e-13 0 0 9.32179e-14 -3.27554e-13 -4.75564e-14 3.00192e-13 0 0 -7.99754e-13 3.36891e-13 -2.39683e-13 2.92806e-13 0 0 -4.00428e-13 -3.77639e-14 -8.36378e-14 4.95567e-13 0 0 2.07035e-13 -6.23441e-13 1.53466e-13 6.55558e-13 0 0 2.20488e-13 -6.0509e-13 2.45551e-13 4.33768e-13 0 0 -1.36106e-13 -1.89577e-13 2.18743e-13 1.05397e-13 0 0 -9.08939e-13 6.00133e-13 8.14121e-14 -1.72268e-13 0 0 -8.70402e-13 5.70597e-13 -5.34323e-14 -1.1513e-13 0 0 -2.25179e-13 -3.76752e-14 1.31361e-13 -1.07232e-13 0 0 3.85742e-13 -3.84459e-13 2.23171e-13 -3.18313e-14 0 0 4.26033e-13 -3.61798e-13 6.51153e-14 1.47162e-13 0 0 1.57787e-13 -1.62235e-13 -1.63056e-13 2.51084e-13 0 0 -3.32589e-13 1.69314e-13 -1.51308e-13 1.59989e-13 0 0 -4.96312e-13 2.40901e-13 -7.77534e-14 -3.99409e-14 0 0 -4.17208e-13 2.07102e-13 -6.35441e-14 -1.11942e-13 0 0 -1.81458e-13 2.28078e-13 -1.9012e-13 -6.17461e-14 0 0 -6.46286e-14 3.53782e-13 -5.20421e-13 4.8747e-14 0 0 -5.17099e-14 5.0532e-13 -6.71408e-13 2.84388e-14 0 0 -7.63772e-14 5.03373e-13 -6.49932e-13 -6.38667e-14 0 0 -6.73629e-14 3.62765e-13 -4.99861e-13 -2.17793e-13 0 0 -2.41006e-14 -5.56722e-14 -1.27809e-13 -4.37954e-13 0 0 -3.40273e-14 -2.34442e-13 -8.56057e-14 -4.45827e-13 0 0 -1.11068e-13 -2.39726e-13 -1.77324e-13 -3.84726e-13 0 0 -1.72641e-13 -3.49003e-13 -1.17171e-13 -3.40103e-13 0 0 -2.11605e-13 -4.02036e-13 -9.74855e-14 -2.27429e-13 0 0 -2.58853e-13 -3.7329e-13 -1.24733e-13 -1.069e-13 0 0 -2.71874e-13 -2.77986e-13 -1.97913e-13 2.27715e-15 0 0 -2.40146e-13 -2.25371e-13 -2.2594e-13 5.67194e-14 0 0 -1.11291e-13 -3.42282e-13 -3.27876e-14 -3.32993e-14 0 0 -8.68905e-14 -3.11029e-13 -6.47145e-16 6.53828e-15 0 0 -2.33535e-13 7.32957e-15 -2.1224e-13 1.22232e-13 0 0 -1.7601e-13 -1.12118e-14 -1.22465e-13 -1.4701e-14 0 0 -2.77292e-14 -1.08791e-13 -4.3652e-14 -6.03398e-14 0 0 3.42605e-14 -1.15212e-13 -6.98397e-14 -2.96674e-14 0 0 -8.99215e-14 6.85684e-14 -1.59312e-13 -6.14863e-14 0 0 -2.67338e-13 3.23199e-13 -3.26734e-13 6.42799e-15 0 0 -3.74187e-15 -4.38888e-14 8.12288e-15 -1.61269e-13 0 0 1.6976e-13 -2.11991e-13 2.21692e-14 -9.75282e-14 0 0 1.38027e-13 -2.0791e-13 2.85573e-14 -1.06531e-13 0 0 -6.82952e-14 3.67501e-14 -1.43939e-13 -2.40972e-14 0 0 -2.69824e-13 3.73197e-13 -5.44205e-13 2.54637e-13 0 0 -3.78569e-14 -3.95466e-15 -1.81593e-13 9.15861e-14 0 0 1.64449e-13 -2.8122e-13 8.76671e-15 5.67318e-14 0 0 1.67787e-13 -2.7002e-13 -6.26406e-14 5.92278e-14 0 0 -8.15777e-14 5.68802e-14 -2.90341e-13 1.02393e-13 0 0 -3.00788e-13 3.46192e-13 -4.67266e-13 1.17708e-13 0 0 -4.22828e-14 -5.40611e-14 -1.32394e-13 -7.41276e-14 0 0 6.85018e-14 -1.89931e-13 -1.66465e-13 3.07244e-14 0 0 6.55704e-15 -2.76842e-13 -2.90843e-14 -6.55284e-14 0 0 -1.68907e-13 -1.76896e-13 -4.86635e-14 -1.18856e-13 0 0 -3.2137e-13 1.12808e-13 -4.00209e-13 4.95686e-14 0 0 -1.05761e-13 -2.25006e-13 -4.46434e-14 -2.06058e-13 0 0 -2.0041e-13 -9.83538e-14 -1.09393e-13 -1.10306e-13 0 0 -3.37186e-13 3.41365e-14 -9.54555e-14 -5.94713e-14 0 0 -1.62264e-13 -3.58124e-13 4.35015e-13 -2.65737e-13 0 0 -4.78718e-13 1.33708e-13 -1.07629e-13 2.98443e-13 0 0 -7.1722e-13 4.09244e-13 -2.2618e-13 3.69057e-13 0 0 -1.8321e-13 -4.10535e-13 6.90836e-13 -2.47822e-13 0 0 1.43545e-13 -5.72025e-13 6.21265e-13 -1.29409e-13 0 0 -1.41307e-13 2.56215e-14 1.43259e-13 4.46632e-14 0 0 -5.48906e-13 6.73957e-13 -2.46506e-13 1.682e-13 0 0 -4.98018e-13 5.91734e-13 -2.06901e-13 3.54247e-13 0 0 1.40393e-13 -6.35566e-13 1.07394e-12 -2.67268e-13 0 0 1.5681e-14 -5.90925e-13 1.13779e-12 -4.13295e-13 0 0 -4.12954e-13 1.15465e-13 2.32862e-13 1.81965e-13 0 0 -4.31602e-13 2.45482e-13 -2.03914e-13 5.8022e-13 0 0 -3.73023e-13 1.19027e-13 -2.73517e-13 6.05311e-13 0 0 7.50535e-14 -4.94911e-13 7.99811e-14 3.29781e-13 0 0 1.95766e-13 -5.87272e-13 1.66496e-13 2.6402e-14 0 0 -3.17753e-13 6.82987e-14 -1.80004e-13 -2.4069e-15 0 0 -7.33916e-13 5.2643e-13 -4.88733e-13 7.7853e-14 0 0 -3.57292e-13 -1.07421e-13 -1.83176e-14 -3.62976e-13 0 0 3.56878e-13 -1.16059e-12 6.52649e-13 -8.68168e-13 0 0 4.06466e-13 -1.38646e-12 6.2435e-13 -9.14525e-13 0 0 -6.40541e-13 1.28123e-13 -8.26152e-13 -9.47747e-14 0 0 -1.33951e-12 1.14976e-12 -1.61669e-12 5.12521e-13 0 0 -4.52334e-13 -9.21345e-14 -4.61052e-13 1.82717e-13 0 0 5.11423e-13 -1.40959e-12 7.27174e-13 -2.63487e-13 0 0 2.86184e-13 -1.20703e-12 7.14399e-13 -1.9305e-13 0 0 -4.64543e-13 -8.96154e-14 -4.00836e-13 3.50363e-13 0 0 -6.12726e-13 3.03684e-13 -1.29182e-12 8.87345e-13 0 0 -2.65583e-13 -1.57935e-13 -1.16899e-12 8.68015e-13 0 0 -4.21089e-13 -8.39414e-15 -1.11892e-12 8.01397e-13 0 0 -3.98596e-13 -2.7713e-13 -5.6198e-13 5.75702e-13 0 0 -6.16127e-14 -7.71165e-13 6.26299e-14 6.4924e-14 0 0 -2.17358e-13 -4.44311e-13 -3.15007e-13 2.02056e-14 0 0 -3.74109e-13 -3.74686e-13 -2.79025e-13 -2.6079e-13 0 0 -6.36862e-13 7.08774e-14 -6.08328e-13 -2.28183e-13 0 0 -4.83032e-13 -5.70601e-14 -4.8924e-13 -3.01317e-13 0 0 1.13088e-13 -9.67697e-13 4.44881e-13 -9.05609e-13 0 0 -1.21803e-14 -7.96232e-13 2.50562e-13 -6.54128e-13 0 0 -4.64906e-13 -1.86537e-13 -2.48173e-13 -2.38332e-13 0 0 -8.54147e-13 4.67352e-13 -8.19735e-13 -2.41063e-15 0 0 -7.01125e-13 3.42631e-13 -7.97221e-13 -3.93604e-15 0 0 6.34004e-15 -7.17681e-13 1.18534e-13 -5.15784e-13 0 0 -1.24649e-14 -7.5809e-13 7.77113e-14 -5.45642e-13 0 0 -4.43661e-13 -2.72851e-13 -2.84752e-13 -4.66742e-13 0 0 -7.58363e-13 1.63336e-13 -4.66388e-13 -5.08396e-13 0 0 -4.96219e-13 -1.97195e-13 -4.69591e-14 -7.19473e-13 0 0 7.71958e-14 -9.31487e-13 4.91662e-13 -9.85052e-13 0 0 -5.11481e-14 -6.52363e-13 -7.18845e-14 -4.85866e-13 0 0 -7.30817e-13 -5.5446e-14 -2.52247e-13 -3.48793e-13 0 0 -1.3368e-12 5.03576e-13 -2.52263e-13 -5.23127e-13 0 0 -6.97225e-13 -3.23857e-13 1.96048e-13 -6.53301e-13 0 0 -7.33966e-14 -1.04622e-12 5.56393e-13 -6.31834e-13 0 0 -1.01571e-12 3.89386e-13 -5.39204e-13 -1.00542e-13 0 0 -1.51245e-12 9.06938e-13 -5.56445e-13 -2.97248e-13 0 0 -4.87526e-13 -5.69883e-13 9.08027e-13 -1.18261e-12 0 0 4.35136e-13 -1.55414e-12 1.53821e-12 -1.53105e-12 0 0 3.17133e-14 -7.4448e-13 8.26271e-13 -1.31948e-12 0 0 -1.34064e-12 1.24267e-12 -6.83366e-13 -7.03782e-13 0 0 -1.36747e-12 1.22736e-12 -7.09764e-13 -7.83642e-13 0 0 9.18317e-14 -8.51793e-13 8.03045e-13 -1.50582e-12 0 0 7.96256e-13 -1.83523e-12 1.46979e-12 -1.68304e-12 0
				</DataArray>
				<DataArray Name="VitesseY" type="Float32" format="ascii">