<?xml version="1.0"?>
<VTKFile type="PolyData">
	<PolyData>
		<Piece NumberOfPoints="1206" NumberOfPolys="1000">
			<Points>
				<DataArray type="Float32" NumberOfComponents="3" format="ascii">
 0 0 0 0.02 0 0 0.04 0 0 0.06 0 0 0.08 0 0 0.1 0 0 0 0.005 0 0.02 0.005 0 0.04 0.005 0 0.06 0.005 0 0.08 0.005 0 0.1 0.005 0 0 0.01 0 0.02 0.01 0 0.04 0.01 0 0.06 0.01 0 0.08 0.01 0 0.1 0.01 0 0 0.015 0 0.02 0.015 0 0.04 0.015 0 0.06 0.015 0 0.08 0.015 0 0.1 0.015 0 0 0.02 0 0.02 0.02 0 0.04 0.02 0 0.06 0.02 0 0.08 0.02 0 0.1 0.02 0 0 0.025 0 0.02 0.025 0 0.04 0.025 0 0.06 0.025 0 0.08 0.025 0 0.1 0.025 0 0 0.03 0 0.02 0.03 0 0.04 0.03 0 0.06 0.03 0 0.08 0.03 0 0.1 0.03 0 0 0.035 0 0.02 0.035 0 0.04 0.035 0 0.06 0.035 0 0.08 0.035 0 0.1 0.035 0 0 0.04 0 0.02 0.04 0 0.04 0.04 0 0.06 0.04 0 0.08 0.04 0 0.1 0.04 0 0 0.045 0 0.02 0.045 0 0.04 0.045 0 0.06 0.045 0 0.08 0.045 0 0.1 0.045 0 0 0.05 0 0.02 0.05 0 0.04 0.05 0 0.06 0.05 0 0.08 0.05 0 0.1 0.05 0 0 0.055 0 0.02 0.055 0 0.04 0.055 0 0.06 0.055 0 0.08 0.055 0 0.1 0.055 0 0 0.06 0 0.02 0.06 0 0.04 0.06 0 0.06 0.06 0 0.08 0.06 0 0.1 0.06 0 0 0.065 0 0.02 0.065 0 0.04 0.065 0 0.06 0.065 0 0.08 0.065 0 0.1 0.065 0 0 0.07 0 0.02 0.07 0 0.04 0.07 0 0.06 0.07 0 0.08 0.07 0 0.1 0.07 0 0 0.075 0 0.02 0.075 0 0.04 0.075 0 0.06 0.075 0 0.08 0.075 0 0.1 0.075 0 0 0.08 0 0.02 0.08 0 0.04 0.08 0 0.06 0.08 0 0.08 0.08 0 0.1 0.08 0 0 0.085 0 0.02 0.085 0 0.04 0.085 0 0.06 0.085 0 0.08 0.085 0 0.1 0.085 0 0 0.09 0 0.02 0.09 0 0.04 0.09 0 0.06 0.09 0 0.08 0.09 0 0.1 0.09 0 0 0.095 0 0.02 0.095 0 0.04 0.095 0 0.06 0.095 0 0.08 0.095 0 0.1 0.095 0 0 0.1 0 0.02 0.1 0 0.04 0.1 0 0.06 0.1 0 0.08 0.1 0 0.1 0.1 0 0 0.105 0 0.02 0.105 0 0.04 0.105 0 0.06 0.105 0 0.08 0.105 0 0.1 0.105 0 0 0.11 0 0.02 0.11 0 0.04 0.11 0 0.06 0.11 0 0.08 0.11 0 0.1 0.11 0 0 0.115 0 0.02 0.115 0 0.04 0.115 0 0.06 0.115 0 0.08 0.115 0 0.1 0.115 0 0 0.12 0 0.02 0.12 0 0.04 0.12 0 0.06 0.12 0 0.08 0.12 0 0.1 0.12 0 0 0.125 0 0.02 0.125 0 0.04 0.125 0 0.06 0.125 0 0.08 0.125 0 0.1 0.125 0 0 0.13 0 0.02 0.13 0 0.04 0.13 0 0.06 0.13 0 0.08 0.13 0 0.1 0.13 0 0 0.135 0 0.02 0.135 0 0.04 0.135 0 0.06 0.135 0 0.08 0.135 0 0.1 0.135 0 0 0.14 0 0.02 0.14 0 0.04 0.14 0 0.06 0.14 0 0.08 0.14 0 0.1 0.14 0 0 0.145 0 0.02 0.145 0 0.04 0.145 0 0.06 0.145 0 0.08 0.145 0 0.1 0.145 0 0 0.15 0 0.02 0.15 0 0.04 0.15 0 0.06 0.15 0 0.08 0.15 0 0.1 0.15 0 0 0.155 0 0.02 0.155 0 0.04 0.155 0 0.06 0.155 0 0.08 0.155 0 0.1 0.155 0 0 0.16 0 0.02 0.16 0 0.04 0.16 0 0.06 0.16 0 0.08 0.16 0 0.1 0.16 0 0 0.165 0 0.02 0.165 0 0.04 0.165 0 0.06 0.165 0 0.08 0.165 0 0.1 0.165 0 0 0.17 0 0.02 0.17 0 0.04 0.17 0 0.06 0.17 0 0.08 0.17 0 0.1 0.17 0 0 0.175 0 0.02 0.175 0 0.04 0.175 0 0.06 0.175 0 0.08 0.175 0 0.1 0.175 0 0 0.18 0 0.02 0.18 0 0.04 0.18 0 0.06 0.18 0 0.08 0.18 0 0.1 0.18 0 0 0.185 0 0.02 0.185 0 0.04 0.185 0 0.06 0.185 0 0.08 0.185 0 0.1 0.185 0 0 0.19 0 0.02 0.19 0 0.04 0.19 0 0.06 0.19 0 0.08 0.19 0 0.1 0.19 0 0 0.195 0 0.02 0.195 0 0.04 0.195 0 0.06 0.195 0 0.08 0.195 0 0.1 0.195 0 0 0.2 0 0.02 0.2 0 0.04 0.2 0 0.06 0.2 0 0.08 0.2 0 0.1 0.2 0 0 0.205 0 0.02 0.205 0 0.04 0.205 0 0.06 0.205 0 0.08 0.205 0 0.1 0.205 0 0 0.21 0 0.02 0.21 0 0.04 0.21 0 0.06 0.21 0 0.08 0.21 0 0.1 0.21 0 0 0.215 0 0.02 0.215 0 0.04 0.215 0 0.06 0.215 0 0.08 0.215 0 0.1 0.215 0 0 0.22 0 0.02 0.22 0 0.04 0.22 0 0.06 0.22 0 0.08 0.22 0 0.1 0.22 0 0 0.225 0 0.02 0.225 0 0.04 0.225 0 0.06 0.225 0 0.08 0.225 0 0.1 0.225 0 0 0.23 0 0.02 0.23 0 0.04 0.23 0 0.06 0.23 0 0.08 0.23 0 0.1 0.23 0 0 0.235 0 0.02 0.235 0 0.04 0.235 0 0.06 0.235 0 0.08 0.235 0 0.1 0.235 0 0 0.24 0 0.02 0.24 0 0.04 0.24 0 0.06 0.24 0 0.08 0.24 0 0.1 0.24 0 0 0.245 0 0.02 0.245 0 0.04 0.245 0 0.06 0.245 0 0.08 0.245 0 0.1 0.245 0 0 0.25 0 0.02 0.25 0 0.04 0.25 0 0.06 0.25 0 0.08 0.25 0 0.1 0.25 0 0 0.255 0 0.02 0.255 0 0.04 0.255 0 0.06 0.255 0 0.08 0.255 0 0.1 0.255 0 0 0.26 0 0.02 0.26 0 0.04 0.26 0 0.06 0.26 0 0.08 0.26 0 0.1 0.26 0 0 0.265 0 0.02 0.265 0 0.04 0.265 0 0.06 0.265 0 0.08 0.265 0 0.1 0.265 0 0 0.27 0 0.02 0.27 0 0.04 0.27 0 0.06 0.27 0 0.08 0.27 0 0.1 0.27 0 0 0.275 0 0.02 0.275 0 0.04 0.275 0 0.06 0.275 0 0.08 0.275 0 0.1 0.275 0 0 0.28 0 0.02 0.28 0 0.04 0.28 0 0.06 0.28 0 0.08 0.28 0 0.1 0.28 0 0 0.285 0 0.02 0.285 0 0.04 0.285 0 0.06 0.285 0 0.08 0.285 0 0.1 0.285 0 0 0.29 0 0.02 0.29 0 0.04 0.29 0 0.06 0.29 0 0.08 0.29 0 0.1 0.29 0 0 0.295 0 0.02 0.295 0 0.04 0.295 0 0.06 0.295 0 0.08 0.295 0 0.1 0.295 0 0 0.3 0 0.02 0.3 0 0.04 0.3 0 0.06 0.3 0 0.08 0.3 0 0.1 0.3 0 0 0.305 0 0.02 0.305 0 0.04 0.305 0 0.06 0.305 0 0.08 0.305 0 0.1 0.305 0 0 0.31 0 0.02 0.31 0 0.04 0.31 0 0.06 0.31 0 0.08 0.31 0 0.1 0.31 0 0 0.315 0 0.02 0.315 0 0.04 0.315 0 0.06 0.315 0 0.08 0.315 0 0.1 0.315 0 0 0.32 0 0.02 0.32 0 0.04 0.32 0 0.06 0.32 0 0.08 0.32 0 0.1 0.32 0 0 0.325 0 0.02 0.325 0 0.04 0.325 0 0.06 0.325 0 0.08 0.325 0 0.1 0.325 0 0 0.33 0 0.02 0.33 0 0.04 0.33 0 0.06 0.33 0 0.08 0.33 0 0.1 0.33 0 0 0.335 0 0.02 0.335 0 0.04 0.335 0 0.06 0.335 0 0.08 0.335 0 0.1 0.335 0 0 0.34 0 0.02 0.34 0 0.04 0.34 0 0.06 0.34 0 0.08 0.34 0 0.1 0.34 0 0 0.345 0 0.02 0.345 0 0.04 0.345 0 0.06 0.345 0 0.08 0.345 0 0.1 0.345 0 0 0.35 0 0.02 0.35 0 0.04 0.35 0 0.06 0.35 0 0.08 0.35 0 0.1 0.35 0 0 0.355 0 0.02 0.355 0 0.04 0.355 0 0.06 0.355 0 0.08 0.355 0 0.1 0.355 0 0 0.36 0 0.02 0.36 0 0.04 0.36 0 0.06 0.36 0 0.08 0.36 0 0.1 0.36 0 0 0.365 0 0.02 0.365 0 0.04 0.365 0 0.06 0.365 0 0.08 0.365 0 0.1 0.365 0 0 0.37 0 0.02 0.37 0 0.04 0.37 0 0.06 0.37 0 0.08 0.37 0 0.1 0.37 0 0 0.375 0 0.02 0.375 0 0.04 0.375 0 0.06 0.375 0 0.08 0.375 0 0.1 0.375 0 0 0.38 0 0.02 0.38 0 0.04 0.38 0 0.06 0.38 0 0.08 0.38 0 0.1 0.38 0 0 0.385 0 0.02 0.385 0 0.04 0.385 0 0.06 0.385 0 0.08 0.385 0 0.1 0.385 0 0 0.39 0 0.02 0.39 0 0.04 0.39 0 0.06 0.39 0 0.08 0.39 0 0.1 0.39 0 0 0.395 0 0.02 0.395 0 0.04 0.395 0 0.06 0.395 0 0.08 0.395 0 0.1 0.395 0 0 0.4 0 0.02 0.4 0 0.04 0.4 0 0.06 0.4 0 0.08 0.4 0 0.1 0.4 0 0 0.405 0 0.02 0.405 0 0.04 0.405 0 0.06 0.405 0 0.08 0.405 0 0.1 0.405 0 0 0.41 0 0.02 0.41 0 0.04 0.41 0 0.06 0.41 0 0.08 0.41 0 0.1 0.41 0 0 0.415 0 0.02 0.415 0 0.04 0.415 0 0.06 0.415 0 0.08 0.415 0 0.1 0.415 0 0 0.42 0 0.02 0.42 0 0.04 0.42 0 0.06 0.42 0 0.08 0.42 0 0.1 0.42 0 0 0.425 0 0.02 0.425 0 0.04 0.425 0 0.06 0.425 0 0.08 0.425 0 0.1 0.425 0 0 0.43 0 0.02 0.43 0 0.04 0.43 0 0.06 0.43 0 0.08 0.43 0 0.1 0.43 0 0 0.435 0 0.02 0.435 0 0.04 0.435 0 0.06 0.435 0 0.08 0.435 0 0.1 0.435 0 0 0.44 0 0.02 0.44 0 0.04 0.44 0 0.06 0.44 0 0.08 0.44 0 0.1 0.44 0 0 0.445 0 0.02 0.445 0 0.04 0.445 0 0.06 0.445 0 0.08 0.445 0 0.1 0.445 0 0 0.45 0 0.02 0.45 0 0.04 0.45 0 0.06 0.45 0 0.08 0.45 0 0.1 0.45 0 0 0.455 0 0.02 0.455 0 0.04 0.455 0 0.06 0.455 0 0.08 0.455 0 0.1 0.455 0 0 0.46 0 0.02 0.46 0 0.04 0.46 0 0.06 0.46 0 0.08 0.46 0 0.1 0.46 0 0 0.465 0 0.02 0.465 0 0.04 0.465 0 0.06 0.465 0 0.08 0.465 0 0.1 0.465 0 0 0.47 0 0.02 0.47 0 0.04 0.47 0 0.06 0.47 0 0.08 0.47 0 0.1 0.47 0 0 0.475 0 0.02 0.475 0 0.04 0.475 0 0.06 0.475 0 0.08 0.475 0 0.1 0.475 0 0 0.48 0 0.02 0.48 0 0.04 0.48 0 0.06 0.48 0 0.08 0.48 0 0.1 0.48 0 0 0.485 0 0.02 0.485 0 0.04 0.485 0 0.06 0.485 0 0.08 0.485 0 0.1 0.485 0 0 0.49 0 0.02 0.49 0 0.04 0.49 0 0.06 0.49 0 0.08 0.49 0 0.1 0.49 0 0 0.495 0 0.02 0.495 0 0.04 0.495 0 0.06 0.495 0 0.08 0.495 0 0.1 0.495 0 0 0.5 0 0.02 0.5 0 0.04 0.5 0 0.06 0.5 0 0.08 0.5 0 0.1 0.5 0 0 0.505 0 0.02 0.505 0 0.04 0.505 0 0.06 0.505 0 0.08 0.505 0 0.1 0.505 0 0 0.51 0 0.02 0.51 0 0.04 0.51 0 0.06 0.51 0 0.08 0.51 0 0.1 0.51 0 0 0.515 0 0.02 0.515 0 0.04 0.515 0 0.06 0.515 0 0.08 0.515 0 0.1 0.515 0 0 0.52 0 0.02 0.52 0 0.04 0.52 0 0.06 0.52 0 0.08 0.52 0 0.1 0.52 0 0 0.525 0 0.02 0.525 0 0.04 0.525 0 0.06 0.525 0 0.08 0.525 0 0.1 0.525 0 0 0.53 0 0.02 0.53 0 0.04 0.53 0 0.06 0.53 0 0.08 0.53 0 0.1 0.53 0 0 0.535 0 0.02 0.535 0 0.04 0.535 0 0.06 0.535 0 0.08 0.535 0 0.1 0.535 0 0 0.54 0 0.02 0.54 0 0.04 0.54 0 0.06 0.54 0 0.08 0.54 0 0.1 0.54 0 0 0.545 0 0.02 0.545 0 0.04 0.545 0 0.06 0.545 0 0.08 0.545 0 0.1 0.545 0 0 0.55 0 0.02 0.55 0 0.04 0.55 0 0.06 0.55 0 0.08 0.55 0 0.1 0.55 0 0 0.555 0 0.02 0.555 0 0.04 0.555 0 0.06 0.555 0 0.08 0.555 0 0.1 0.555 0 0 0.56 0 0.02 0.56 0 0.04 0.56 0 0.06 0.56 0 0.08 0.56 0 0.1 0.56 0 0 0.565 0 0.02 0.565 0 0.04 0.565 0 0.06 0.565 0 0.08 0.565 0 0.1 0.565 0 0 0.57 0 0.02 0.57 0 0.04 0.57 0 0.06 0.57 0 0.08 0.57 0 0.1 0.57 0 0 0.575 0 0.02 0.575 0 0.04 0.575 0 0.06 0.575 0 0.08 0.575 0 0.1 0.575 0 0 0.58 0 0.02 0.58 0 0.04 0.58 0 0.06 0.58 0 0.08 0.58 0 0.1 0.58 0 0 0.585 0 0.02 0.585 0 0.04 0.585 0 0.06 0.585 0 0.08 0.585 0 0.1 0.585 0 0 0.59 0 0.02 0.59 0 0.04 0.59 0 0.06 0.59 0 0.08 0.59 0 0.1 0.59 0 0 0.595 0 0.02 0.595 0 0.04 0.595 0 0.06 0.595 0 0.08 0.595 0 0.1 0.595 0 0 0.6 0 0.02 0.6 0 0.04 0.6 0 0.06 0.6 0 0.08 0.6 0 0.1 0.6 0 0 0.605 0 0.02 0.605 0 0.04 0.605 0 0.06 0.605 0 0.08 0.605 0 0.1 0.605 0 0 0.61 0 0.02 0.61 0 0.04 0.61 0 0.06 0.61 0 0.08 0.61 0 0.1 0.61 0 0 0.615 0 0.02 0.615 0 0.04 0.615 0 0.06 0.615 0 0.08 0.615 0 0.1 0.615 0 0 0.62 0 0.02 0.62 0 0.04 0.62 0 0.06 0.62 0 0.08 0.62 0 0.1 0.62 0 0 0.625 0 0.02 0.625 0 0.04 0.625 0 0.06 0.625 0 0.08 0.625 0 0.1 0.625 0 0 0.63 0 0.02 0.63 0 0.04 0.63 0 0.06 0.63 0 0.08 0.63 0 0.1 0.63 0 0 0.635 0 0.02 0.635 0 0.04 0.635 0 0.06 0.635 0 0.08 0.635 0 0.1 0.635 0 0 0.64 0 0.02 0.64 0 0.04 0.64 0 0.06 0.64 0 0.08 0.64 0 0.1 0.64 0 0 0.645 0 0.02 0.645 0 0.04 0.645 0 0.06 0.645 0 0.08 0.645 0 0.1 0.645 0 0 0.65 0 0.02 0.65 0 0.04 0.65 0 0.06 0.65 0 0.08 0.65 0 0.1 0.65 0 0 0.655 0 0.02 0.655 0 0.04 0.655 0 0.06 0.655 0 0.08 0.655 0 0.1 0.655 0 0 0.66 0 0.02 0.66 0 0.04 0.66 0 0.06 0.66 0 0.08 0.66 0 0.1 0.66 0 0 0.665 0 0.02 0.665 0 0.04 0.665 0 0.06 0.665 0 0.08 0.665 0 0.1 0.665 0 0 0.67 0 0.02 0.67 0 0.04 0.67 0 0.06 0.67 0 0.08 0.67 0 0.1 0.67 0 0 0.675 0 0.02 0.675 0 0.04 0.675 0 0.06 0.675 0 0.08 0.675 0 0.1 0.675 0 0 0.68 0 0.02 0.68 0 0.04 0.68 0 0.06 0.68 0 0.08 0.68 0 0.1 0.68 0 0 0.685 0 0.02 0.685 0 0.04 0.685 0 0.06 0.685 0 0.08 0.685 0 0.1 0.685 0 0 0.69 0 0.02 0.69 0 0.04 0.69 0 0.06 0.69 0 0.08 0.69 0 0.1 
[...]
			<PointData Scalars="VitesseX">
				<DataArray Name="VitesseX" type="Float32" format="ascii">
 0 1.11188e-14 -1.51584e-14 -2.15017e-14 -2.40331e-14 0 0 6.27791e-15 -1.12146e-14 -2.43618e-14 -2.44875e-14 0 0 2.25229e-15 -1.4292e-14 -1.94819e-14 -3.19575e-14 0 0 -5.48028e-15 -1.11174e-14 -2.59807e-14 -2.69841e-14 0 0 -8.57467e-15 -1.47263e-14 -2.23125e-14 -3.26901e-14 0 0 -3.91669e-15 -2.71671e-14 -1.3756e-14 -3.74859e-14 0 0 -7.17419e-15 -2.6636e-14 -2.10201e-14 -2.56795e-14 0 0 -6.10486e-16 -4.50165e-14 1.16744e-15 -4.10688e-14 0 0 -8.35823e-15 -3.51114e-14 -1.28778e-14 -2.63996e-14 0 0 -7.41177e-15 -3.76418e-14 -2.84814e-14 1.01818e-15 0 0 -4.93712e-15 -4.24996e-14 -3.12187e-14 1.01357e-14 0 0 -1.64515e-14 -2.12351e-14 -4.85371e-14 1.98764e-14 0 0 -3.8336e-15 -4.86015e-14 -1.37581e-14 4.57412e-15 0 0 -4.89536e-16 -6.11406e-14 3.02456e-15 5.47094e-15 0 0 -1.35122e-14 -4.95455e-14 -1.20335e-14 2.81833e-14 0 0 -7.78153e-15 -6.85618e-14 1.39427e-14 3.72784e-16 0 0 2.67008e-14 -9.47797e-14 2.96571e-14 -2.43894e-14 0 0 1.58644e-14 -3.46967e-14 -5.28618e-14 3.31584e-14 0 0 -1.80746e-14 3.55929e-14 -9.74046e-14 3.82342e-14 0 0 -1.33194e-15 1.1813e-15 -1.31815e-14 -4.72866e-14 0 0 3.1067e-14 -5.16923e-14 4.27542e-14 -8.31049e-14 0 0 2.99469e-14 -4.02127e-14 4.66301e-15 -5.20705e-14 0 0 -1.87968e-14 3.16338e-14 -9.18225e-14 2.30661e-14 0 0 -5.66701e-14 6.20652e-14 -1.21993e-13 5.8143e-14 0 0 -4.67365e-14 6.7758e-15 -5.37188e-14 1.51816e-14 0 0 -3.328e-15 -7.93513e-14 9.85751e-15 -1.89648e-14 0 0 -1.98179e-14 -4.81047e-14 -1.74525e-14 -2.32867e-14 0 0 -5.74098e-14 1.45747e-14 -4.50156e-14 -4.75521e-14 0 0 -8.21802e-15 -4.72607e-14 -5.49116e-15 -3.59333e-14 0 0 2.1788e-15 -4.9063e-14 -4.22185e-14 1.51931e-14 0 0 -1.76929e-14 -1.87185e-15 -8.56444e-14 -3.54328e-15 0 0 -1.17571e-14 -7.33734e-15 -4.31373e-14 -7.08849e-14 0 0 -1.69575e-14 -6.114e-15 -2.27342e-14 -9.98622e-14 0 0 -3.16307e-15 -9.32227e-15 -2.82468e-14 -1.0147e-13 0 0 -2.44322e-14 4.06418e-14 -8.99286e-14 -6.91318e-14 0 0 -2.25149e-14 1.24079e-14 -5.44367e-14 -8.78784e-14 0 0 1.11654e-14 -6.16994e-14 -3.83518e-15 -8.61532e-14 0 0 -2.14879e-14 -2.78568e-14 -4.62786e-14 -3.36005e-14 0 0 -2.93861e-14 -3.27823e-14 -5.54934e-14 2.01543e-14 0 0 -7.33805e-16 -6.16493e-14 -5.91343e-14 4.17929e-14 0 0 -7.24626e-14 5.75065e-14 -1.6415e-13 1.01132e-13 0 0 -9.11631e-14 7.59121e-14 -1.23527e-13 5.66881e-14 0 0 -4.18345e-14 -1.98204e-15 -3.28168e-15 -6.50064e-14 0 0 -3.91078e-14 -3.38256e-14 5.49014e-15 -7.84808e-14 0 0 -3.8049e-14 -8.43705e-14 8.01514e-14 -1.31582e-13 0 0 -3.59807e-14 -8.47566e-14 8.45506e-14 -1.31527e-13 0 0 -8.24787e-14 -2.08971e-14 4.39086e-14 -1.01892e-13 0 0 -1.43088e-13 6.02915e-14 4.01804e-14 -9.0217e-14 0 0 -7.59612e-14 -3.65263e-14 1.15211e-13 -1.02165e-13 0 0 5.58233e-16 -2.07214e-13 2.1423e-13 -1.18931e-13 0 0 -2.11064e-14 -2.0067e-13 1.70995e-13 -8.91802e-14 0 0 -2.32079e-14 -8.23182e-14 1.7814e-14 -4.23892e-14 0 0 -1.03673e-13 7.79306e-14 -1.26675e-13 -1.38631e-14 0 0 -1.06136e-13 2.79388e-14 -6.97525e-14 -9.65801e-14 0 0 -7.5098e-14 -8.64334e-14 2.2251e-14 -1.91431e-13 0 0 -7.64168e-14 -1.6102e-13 1.27319e-13 -2.7191e-13 0 0 -5.41337e-14 -2.18603e-13 1.72642e-13 -2.44511e-13 0 0 -9.22604e-14 -1.89804e-13 3.87351e-14 -1.08198e-13 0 0 -5.51704e-14 -2.54523e-13 -1.85349e-14 -1.41504e-13 0 0 -1.62943e-15 -3.05413e-13 -2.79935e-14 -1.93731e-13 0 0 -6.96269e-14 -1.81677e-13 -1.52505e-13 -1.34245e-13 0 0 -7.26854e-14 -1.39788e-13 -1.77924e-13 -1.45359e-13 0 0 6.84795e-17 -2.08051e-13 -8.02221e-14 -1.88709e-13 0 0 -6.8174e-14 -1.40125e-13 -9.27439e-14 -1.65763e-13 0 0 -1.43627e-13 -1.70912e-13 1.90511e-14 -2.45824e-13 0 0 -2.20153e-13 -1.70608e-13 4.01767e-14 -2.4314e-13 0 0 -2.88563e-13 -8.68312e-14 -8.55942e-14 -1.38428e-13 0 0 -2.49647e-13 -1.20495e-13 -5.58217e-14 -1.57647e-13 0 0 -1.50683e-13 -2.37744e-13 1.0546e-14 -1.99381e-13 0 0 -4.43319e-14 -2.99398e-13 -3.27199e-14 -2.07316e-13 0 0 -1.92512e-14 -2.95255e-13 -8.11811e-14 -2.49027e-13 0 0 -6.54836e-14 -2.58594e-13 -1.31753e-13 -2.68235e-13 0 0 -1.33997e-13 -2.59869e-13 -1.32675e-13 -2.35373e-13 0 0 -1.74593e-13 -2.71304e-13 -1.67172e-13 -1.91902e-13 0 0 -2.10386e-13 -2.94411e-13 -1.6137e-13 -2.1111e-13 0 0 -2.28953e-13 -3.28092e-13 -8.80451e-14 -2.80199e-13 0 0 -2.43524e-13 -3.75305e-13 1.46303e-14 -3.3201e-13 0 0 -2.95199e-13 -3.71228e-13 5.53449e-14 -2.71319e-13 0 0 -3.685e-13 -3.28713e-13 7.77725e-14 -1.32235e-13 0 0 -3.74837e-13 -3.24145e-13 1.28943e-13 -1.07504e-13 0 0 -3.54493e-13 -3.4547e-13 2.39799e-13 -1.55157e-13 0 0 -3.32702e-13 -3.62026e-13 2.67118e-13 -2.43243e-13 0 0 -3.05025e-13 -3.62275e-13 2.40632e-13 -2.64997e-13 0 0 -2.7345e-13 -3.54026e-13 1.74169e-13 -2.60213e-13 0 0 -2.33687e-13 -3.40139e-13 8.60556e-14 -2.33938e-13 0 0 -1.83277e-13 -3.43924e-13 -3.28632e-15 -1.81989e-13 0 0 -1.29242e-13 -3.24159e-13 -8.94086e-14 -1.27828e-13 0 0 -9.8957e-14 -2.75423e-13 -1.73619e-13 -1.19916e-13 0 0 -7.95944e-14 -2.3597e-13 -2.50515e-13 -1.22675e-13 0 0 -6.94696e-14 -2.2814e-13 -2.77433e-13 -1.32549e-13 0 0 -6.27313e-14 -2.33928e-13 -2.64169e-13 -1.59552e-13 0 0 -5.20819e-14 -2.63273e-13 -2.22167e-13 -2.15852e-13 0 0 -3.09907e-14 -3.31093e-13 -1.31381e-13 -2.86622e-13 0 0 -6.38433e-15 -3.83172e-13 -6.08464e-14 -3.54759e-13 0 0 3.6872e-15 -3.93587e-13 -6.2685e-14 -4.40779e-13 0 0 -7.52084e-15 -3.75798e-13 -1.08918e-13 -4.58704e-13 0 0 -4.57246e-14 -3.1326e-13 -2.02285e-13 -4.42175e-13 0 0 -5.51405e-14 -2.19909e-13 -3.208e-13 -4.10574e-13 0 0 -4.36344e-14 -1.80557e-13 -4.32389e-13 -3.8177e-13 0 0 -7.26938e-15 -1.83063e-13 -5.05233e-13 -3.72484e-13 0 0 5.17604e-14 -1.94338e-13 -5.66827e-13 -3.56837e-13 0 0 1.23253e-13 -2.15725e-13 -6.05016e-13 -3.16669e-13 0 0 2.02735e-13 -2.60919e-13 -6.06021e-13 -2.79705e-13 0 0 2.44286e-13 -3.23658e-13 -5.98851e-13 -2.42331e-13 0 0 2.45793e-13 -3.69761e-13 -5.85545e-13 -2.0738e-13 0 0 2.20638e-13 -3.92435e-13 -5.64782e-13 -1.95131e-13 0 0 1.60875e-13 -4.15842e-13 -5.30601e-13 -1.83718e-13 0 0 8.6125e-14 -4.13341e-13 -4.73729e-13 -1.78424e-13 0 0 7.06165e-15 -3.90461e-13 -4.57059e-13 -1.75877e-13 0 0 -4.65436e-14 -3.80054e-13 -4.22441e-13 -1.92825e-13 0 0 -1.02361e-13 -3.5419e-13 -3.60086e-13 -2.54078e-13 0 0 -1.72423e-13 -3.12302e-13 -3.41528e-13 -2.40974e-13 0 0 -2.39464e-13 -2.81921e-13 -3.40406e-13 -2.03073e-13 0 0 -2.80838e-13 -2.68683e-13 -2.97779e-13 -2.49582e-13 0 0 -2.75412e-13 -3.04187e-13 -2.11112e-13 -2.81798e-13 0 0 -2.53245e-13 -3.47178e-13 -1.29133e-13 -2.89411e-13 0 0 -2.56565e-13 -3.4581e-13 -1.20523e-13 -2.53358e-13 0 0 -2.66061e-13 -2.78598e-13 -1.98006e-13 -1.67546e-13 0 0 -2.63842e-13 -2.24459e-13 -2.16313e-13 -1.66494e-13 0 0 -2.5915e-13 -2.27466e-13 -1.74803e-13 -1.63309e-13 0 0 -2.72399e-13 -1.94417e-13 -2.00883e-13 -1.08769e-13 0 0 -2.98811e-13 -1.41223e-13 -2.5376e-13 -2.98294e-14 0 0 -3.24252e-13 -1.41512e-13 -1.92246e-13 -5.86706e-14 0 0 -3.52483e-13 -1.35089e-13 -9.99e-14 -8.66746e-14 0 0 -3.89145e-13 -1.18214e-13 -9.13764e-14 -5.035e-14 0 0 -4.12621e-13 -9.58711e-14 -8.10176e-14 -4.15332e-14 0 0 -4.10838e-13 -8.60381e-14 -5.5657e-14 -4.83795e-14 0 0 -4.0348e-13 -7.3738e-14 -4.29895e-14 -5.08952e-14 0 0 -3.92734e-13 -4.65845e-14 -5.65232e-14 -4.58709e-14 0 0 -3.79921e-13 -4.61924e-14 -8.80679e-14 -3.97786e-14 0 0 -3.59147e-13 -5.97766e-14 -9.90181e-14 -2.67976e-14 0 0 -3.22093e-13 -9.93901e-14 -1.06414e-13 -1.23014e-14 0 0 -2.66799e-13 -1.66898e-13 -1.2403e-13 2.81559e-15 0 0 -2.36567e-13 -2.43087e-13 -8.49494e-14 -3.46501e-14 0 0 -2.3297e-13 -2.81426e-13 -7.20988e-14 -4.50034e-14 0 0 -2.15287e-13 -3.16629e-13 -8.15744e-14 -4.21093e-14 0 0 -1.89655e-13 -3.36397e-13 -8.31086e-14 -6.52439e-14 0 0 -1.73956e-13 -2.8133e-13 -1.92644e-13 -9.8707e-15 0 0 -1.65974e-13 -2.68262e-13 -2.39129e-13 -1.74267e-14 0 0 -1.69652e-13 -2.70595e-13 -1.83285e-13 -9.39631e-14 0 0 -1.78206e-13 -2.3811e-13 -1.5034e-13 -1.39495e-13 0 0 -1.50814e-13 -2.42788e-13 -1.70122e-13 -1.24424e-13 0 0 -1.44077e-13 -2.50481e-13 -1.50501e-13 -1.44387e-13 0 0 -1.41366e-13 -2.46089e-13 -1.43778e-13 -1.57882e-13 0 0 -1.03688e-13 -2.6284e-13 -1.79779e-13 -1.75597e-13 0 0 -1.19315e-13 -2.25546e-13 -2.30689e-13 -1.60226e-13 0 0 -1.49332e-13 -1.72796e-13 -3.42666e-13 -6.29641e-14 0 0 -1.35008e-13 -2.21623e-13 -3.32158e-13 -7.41205e-14 0 0 -1.10202e-13 -3.12961e-13 -2.98203e-13 -9.02637e-14 0 0 -1.11647e-13 -3.14546e-13 -3.36373e-13 -6.99164e-14 0 0 -1.2117e-13 -3.10182e-13 -3.64747e-13 -1.57371e-13 0 0 -1.3209e-13 -3.08359e-13 -4.03095e-13 -3.03314e-13 0 0 -1.40817e-13 -3.03573e-13 -4.5135e-13 -3.31835e-13 0 0 -1.39742e-13 -3.06637e-13 -4.40549e-13 -3.89615e-13 0 0 -1.40056e-13 -3.10427e-13 -3.84303e-13 -3.81088e-13 0 0 -1.66211e-13 -3.08863e-13 -2.83847e-13 -2.61921e-13 0 0 -1.98006e-13 -3.53306e-13 -1.1833e-13 -5.96442e-14 0 0 -1.81531e-13 -4.84683e-13 8.77599e-15 1.00772e-13 0 0 -2.23861e-13 -4.61319e-13 -5.89677e-14 2.44086e-13 0 0 -2.99181e-13 -2.47519e-13 -1.98819e-13 3.17563e-14 0 0 -1.80868e-13 -2.47764e-13 -1.42023e-13 -2.71711e-13 0 0 -9.56467e-14 -2.4174e-13 -1.51332e-13 -1.93605e-13 0 0 -2.51297e-13 -2.82086e-14 -3.56509e-13 -7.9174e-14 0 0 -3.10772e-13 -3.80934e-14 -3.4599e-13 -1.53597e-13 0 0 -2.50579e-13 -1.75059e-13 -2.79414e-13 -2.29059e-13 0 0 -2.45464e-13 -2.13813e-13 -2.87835e-13 -1.53989e-13 0 0 -2.56632e-13 -2.31152e-13 -2.99665e-13 -4.86336e-14 0 0 -2.20835e-13 -3.36278e-13 -1.35603e-13 -2.22492e-13 0 0 -2.53599e-13 -2.61398e-13 -2.60936e-13 -1.43555e-13 0 0 -2.1664e-13 -2.75627e-13 -2.64411e-13 -1.60497e-13 0 0 -1.51514e-13 -3.52892e-13 -1.72082e-13 -2.289e-13 0 0 -1.24476e-13 -3.05293e-13 -2.58512e-13 -1.23015e-13 0 0 -1.04914e-13 -2.59468e-13 -3.10978e-13 -1.5824e-13 0 0 -1.39071e-13 -2.03789e-13 -2.82859e-13 -3.07419e-13 0 0 -1.53819e-13 -2.0599e-13 -1.39345e-13 -4.2826e-13 0 0 -1.26863e-13 -2.20242e-13 -1.57503e-13 -3.18568e-13 0 0 -9.44639e-14 -1.89831e-13 -2.32215e-13 -1.86772e-13 0 0 -9.53118e-14 -1.30217e-13 -2.27567e-13 -1.99299e-13 0 0 -4.28777e-14 -1.62676e-13 -1.55016e-13 -2.66475e-13 0 0 1.78867e-14 -2.15699e-13 -1.29568e-13 -2.41023e-13 0 0 -3.95868e-14 -1.01934e-13 -2.90729e-13 -9.4404e-14 0 0 -1.81719e-14 -1.13569e-13 -2.85015e-13 -8.79675e-14 0 0 7.90661e-14 -3.14267e-13 -1.08125e-13 -1.15898e-13 0 0 5.40038e-14 -3.2191e-13 -1.22874e-13 -4.37115e-14 0 0 2.00967e-14 -2.32234e-13 -2.07271e-13 -7.99764e-14 0 0 9.18246e-14 -3.00374e-13 -1.24092e-13 -2.34107e-13 0 0 -1.77011e-14 -8.346e-14 -2.42113e-13 -2.952e-13 0 0 -1.56651e-13 9.38399e-14 -3.14843e-13 -2.73378e-13 0 0 -6.16471e-14 -1.16897e-13 -1.06006e-13 -2.5185e-13 0 0 -6.71886e-14 -9.98779e-14 -1.42525e-13 -1.05281e-13 0 0 -2.16013e-13 1.35951e-13 -2.98785e-13 -1.03146e-13 0 0 -1.59679e-13 -9.10147e-14 9.52479e-15 -4.0462e-13 0 0 -9.0914e-14 -4.02929e-13 2.49426e-13 -3.82508e-13 0 0 -2.50011e-13 -2.42209e-13 3.59025e-14 -9.62664e-14 0 0 -3.09532e-13 -1.3209e-13 -1.80845e-13 2.15239e-13 0 0 -2.59241e-13 -3.10517e-14 -4.63603e-13 4.88198e-13 0 0 -9.37663e-14 -1.98424e-13 -3.38128e-13 3.26123e-13 0 0 -2.41974e-14 -5.64467e-13 1.37308e-13 1.52786e-14 0 0 -1.04589e-13 -4.3557e-13 -4.86611e-14 1.83434e-13 0 0 -1.59075e-13 -1.75704e-13 -1.19329e-13 4.03305e-14 0 0 -2.32424e-13 -1.12397e-13 1.90859e-13 -3.90379e-13 0
				</DataArray>
				<DataArray Name="VitesseY" type="Float32" format="ascii">