<?xml version="1.0"?>
<VTKFile type="PolyData">
	<PolyData>
		<Piece NumberOfPoints="1206" NumberOfPolys="1000">
			<Points>
				<DataArray type="Float32" NumberOfComponents="3" format="ascii">
 0 0 0 0.02 0 0 0.04 0 0 0.06 0 0 0.08 0 0 0.1 0 0 0 0.005 0 0.02 0.005 0 0.04 0.005 0 0.06 0.005 0 0.08 0.005 0 0.1 0.005 0 0 0.01 0 0.02 0.01 0 0.04 0.01 0 0.06 0.01 0 0.08 0.01 0 0.1 0.01 0 0 0.015 0 0.02 0.015 0 0.04 0.015 0 0.06 0.015 0 0.08 0.015 0 0.1 0.015 0 0 0.02 0 0.02 0.02 0 0.04 0.02 0 0.06 0.02 0 0.08 0.02 0 0.1 0.02 0 0 0.025 0 0.02 0.025 0 0.04 0.025 0 0.06 0.025 0 0.08 0.025 0 0.1 0.025 0 0 0.03 0 0.02 0.03 0 0.04 0.03 0 0.06 0.03 0 0.08 0.03 0 0.1 0.03 0 0 0.035 0 0.02 0.035 0 0.04 0.035 0 0.06 0.035 0 0.08 0.035 0 0.1 0.035 0 0 0.04 0 0.02 0.04 0 0.04 0.04 0 0.06 0.04 0 0.08 0.04 0 0.1 0.04 0 0 0.045 0 0.02 0.045 0 0.04 0.045 0 0.06 0.045 0 0.08 0.045 0 0.1 0.045 0 0 0.05 0 0.02 0.05 0 0.04 0.05 0 0.06 0.05 0 0.08 0.05 0 0.1 0.05 0 0 0.055 0 0.02 0.055 0 0.04 0.055 0 0.06 0.055 0 0.08 0.055 0 0.1 0.055 0 0 0.06 0 0.02 0.06 0 0.04 0.06 0 0.06 0.06 0 0.08 0.06 0 0.1 0.06 0 0 0.065 0 0.02 0.065 0 0.04 0.065 0 0.06 0.065 0 0.08 0.065 0 0.1 0.065 0 0 0.07 0 0.02 0.07 0 0.04 0.07 0 0.06 0.07 0 0.08 0.07 0 0.1 0.07 0 0 0.075 0 0.02 0.075 0 0.04 0.075 0 0.06 0.075 0 0.08 0.075 0 0.1 0.075 0 0 0.08 0 0.02 0.08 0 0.04 0.08 0 0.06 0.08 0 0.08 0.08 0 0.1 0.08 0 0 0.085 0 0.02 0.085 0 0.04 0.085 0 0.06 0.085 0 0.08 0.085 0 0.1 0.085 0 0 0.09 0 0.02 0.09 0 0.04 0.09 0 0.06 0.09 0 0.08 0.09 0 0.1 0.09 0 0 0.095 0 0.02 0.095 0 0.04 0.095 0 0.06 0.095 0 0.08 0.095 0 0.1 0.095 0 0 0.1 0 0.02 0.1 0 0.04 0.1 0 0.06 0.1 0 0.08 0.1 0 0.1 0.1 0 0 0.105 0 0.02 0.105 0 0.04 0.105 0 0.06 0.105 0 0.08 0.105 0 0.1 0.105 0 0 0.11 0 0.02 0.11 0 0.04 0.11 0 0.06 0.11 0 0.08 0.11 0 0.1 0.11 0 0 0.115 0 0.02 0.115 0 0.04 0.115 0 0.06 0.115 0 0.08 0.115 0 0.1 0.115 0 0 0.12 0 0.02 0.12 0 0.04 0.12 0 0.06 0.12 0 0.08 0.12 0 0.1 0.12 0 0 0.125 0 0.02 0.125 0 0.04 0.125 0 0.06 0.125 0 0.08 0.125 0 0.1 0.125 0 0 0.13 0 0.02 0.13 0 0.04 0.13 0 0.06 0.13 0 0.08 0.13 0 0.1 0.13 0 0 0.135 0 0.02 0.135 0 0.04 0.135 0 0.06 0.135 0 0.08 0.135 0 0.1 0.135 0 0 0.14 0 0.02 0.14 0 0.04 0.14 0 0.06 0.14 0 0.08 0.14 0 0.1 0.14 0 0 0.145 0 0.02 0.145 0 0.04 0.145 0 0.06 0.145 0 0.08 0.145 0 0.1 0.145 0 0 0.15 0 0.02 0.15 0 0.04 0.15 0 0.06 0.15 0 0.08 0.15 0 0.1 0.15 0 0 0.155 0 0.02 0.155 0 0.04 0.155 0 0.06 0.155 0 0.08 0.155 0 0.1 0.155 0 0 0.16 0 0.02 0.16 0 0.04 0.16 0 0.06 0.16 0 0.08 0.16 0 0.1 0.16 0 0 0.165 0 0.02 0.165 0 0.04 0.165 0 0.06 0.165 0 0.08 0.165 0 0.1 0.165 0 0 0.17 0 0.02 0.17 0 0.04 0.17 0 0.06 0.17 0 0.08 0.17 0 0.1 0.17 0 0 0.175 0 0.02 0.175 0 0.04 0.175 0 0.06 0.175 0 0.08 0.175 0 0.1 0.175 0 0 0.18 0 0.02 0.18 0 0.04 0.18 0 0.06 0.18 0 0.08 0.18 0 0.1 0.18 0 0 0.185 0 0.02 0.185 0 0.04 0.185 0 0.06 0.185 0 0.08 0.185 0 0.1 0.185 0 0 0.19 0 0.02 0.19 0 0.04 0.19 0 0.06 0.19 0 0.08 0.19 0 0.1 0.19 0 0 0.195 0 0.02 0.195 0 0.04 0.195 0 0.06 0.195 0 0.08 0.195 0 0.1 0.195 0 0 0.2 0 0.02 0.2 0 0.04 0.2 0 0.06 0.2 0 0.08 0.2 0 0.1 0.2 0 0 0.205 0 0.02 0.205 0 0.04 0.205 0 0.06 0.205 0 0.08 0.205 0 0.1 0.205 0 0 0.21 0 0.02 0.21 0 0.04 0.21 0 0.06 0.21 0 0.08 0.21 0 0.1 0.21 0 0 0.215 0 0.02 0.215 0 0.04 0.215 0 0.06 0.215 0 0.08 0.215 0 0.1 0.215 0 0 0.22 0 0.02 0.22 0 0.04 0.22 0 0.06 0.22 0 0.08 0.22 0 0.1 0.22 0 0 0.225 0 0.02 0.225 0 0.04 0.225 0 0.06 0.225 0 0.08 0.225 0 0.1 0.225 0 0 0.23 0 0.02 0.23 0 0.04 0.23 0 0.06 0.23 0 0.08 0.23 0 0.1 0.23 0 0 0.235 0 0.02 0.235 0 0.04 0.235 0 0.06 0.235 0 0.08 0.235 0 0.1 0.235 0 0 0.24 0 0.02 0.24 0 0.04 0.24 0 0.06 0.24 0 0.08 0.24 0 0.1 0.24 0 0 0.245 0 0.02 0.245 0 0.04 0.245 0 0.06 0.245 0 0.08 0.245 0 0.1 0.245 0 0 0.25 0 0.02 0.25 0 0.04 0.25 0 0.06 0.25 0 0.08 0.25 0 0.1 0.25 0 0 0.255 0 0.02 0.255 0 0.04 0.255 0 0.06 0.255 0 0.08 0.255 0 0.1 0.255 0 0 0.26 0 0.02 0.26 0 0.04 0.26 0 0.06 0.26 0 0.08 0.26 0 0.1 0.26 0 0 0.265 0 0.02 0.265 0 0.04 0.265 0 0.06 0.265 0 0.08 0.265 0 0.1 0.265 0 0 0.27 0 0.02 0.27 0 0.04 0.27 0 0.06 0.27 0 0.08 0.27 0 0.1 0.27 0 0 0.275 0 0.02 0.275 0 0.04 0.275 0 0.06 0.275 0 0.08 0.275 0 0.1 0.275 0 0 0.28 0 0.02 0.28 0 0.04 0.28 0 0.06 0.28 0 0.08 0.28 0 0.1 0.28 0 0 0.285 0 0.02 0.285 0 0.04 0.285 0 0.06 0.285 0 0.08 0.285 0 0.1 0.285 0 0 0.29 0 0.02 0.29 0 0.04 0.29 0 0.06 0.29 0 0.08 0.29 0 0.1 0.29 0 0 0.295 0 0.02 0.295 0 0.04 0.295 0 0.06 0.295 0 0.08 0.295 0 0.1 0.295 0 0 0.3 0 0.02 0.3 0 0.04 0.3 0 0.06 0.3 0 0.08 0.3 0 0.1 0.3 0 0 0.305 0 0.02 0.305 0 0.04 0.305 0 0.06 0.305 0 0.08 0.305 0 0.1 0.305 0 0 0.31 0 0.02 0.31 0 0.04 0.31 0 0.06 0.31 0 0.08 0.31 0 0.1 0.31 0 0 0.315 0 0.02 0.315 0 0.04 0.315 0 0.06 0.315 0 0.08 0.315 0 0.1 0.315 0 0 0.32 0 0.02 0.32 0 0.04 0.32 0 0.06 0.32 0 0.08 0.32 0 0.1 0.32 0 0 0.325 0 0.02 0.325 0 0.04 0.325 0 0.06 0.325 0 0.08 0.325 0 0.1 0.325 0 0 0.33 0 0.02 0.33 0 0.04 0.33 0 0.06 0.33 0 0.08 0.33 0 0.1 0.33 0 0 0.335 0 0.02 0.335 0 0.04 0.335 0 0.06 0.335 0 0.08 0.335 0 0.1 0.335 0 0 0.34 0 0.02 0.34 0 0.04 0.34 0 0.06 0.34 0 0.08 0.34 0 0.1 0.34 0 0 0.345 0 0.02 0.345 0 0.04 0.345 0 0.06 0.345 0 0.08 0.345 0 0.1 0.345 0 0 0.35 0 0.02 0.35 0 0.04 0.35 0 0.06 0.35 0 0.08 0.35 0 0.1 0.35 0 0 0.355 0 0.02 0.355 0 0.04 0.355 0 0.06 0.355 0 0.08 0.355 0 0.1 0.355 0 0 0.36 0 0.02 0.36 0 0.04 0.36 0 0.06 0.36 0 0.08 0.36 0 0.1 0.36 0 0 0.365 0 0.02 0.365 0 0.04 0.365 0 0.06 0.365 0 0.08 0.365 0 0.1 0.365 0 0 0.37 0 0.02 0.37 0 0.04 0.37 0 0.06 0.37 0 0.08 0.37 0 0.1 0.37 0 0 0.375 0 0.02 0.375 0 0.04 0.375 0 0.06 0.375 0 0.08 0.375 0 0.1 0.375 0 0 0.38 0 0.02 0.38 0 0.04 0.38 0 0.06 0.38 0 0.08 0.38 0 0.1 0.38 0 0 0.385 0 0.02 0.385 0 0.04 0.385 0 0.06 0.385 0 0.08 0.385 0 0.1 0.385 0 0 0.39 0 0.02 0.39 0 0.04 0.39 0 0.06 0.39 0 0.08 0.39 0 0.1 0.39 0 0 0.395 0 0.02 0.395 0 0.04 0.395 0 0.06 0.395 0 0.08 0.395 0 0.1 0.395 0 0 0.4 0 0.02 0.4 0 0.04 0.4 0 0.06 0.4 0 0.08 0.4 0 0.1 0.4 0 0 0.405 0 0.02 0.405 0 0.04 0.405 0 0.06 0.405 0 0.08 0.405 0 0.1 0.405 0 0 0.41 0 0.02 0.41 0 0.04 0.41 0 0.06 0.41 0 0.08 0.41 0 0.1 0.41 0 0 0.415 0 0.02 0.415 0 0.04 0.415 0 0.06 0.415 0 0.08 0.415 0 0.1 0.415 0 0 0.42 0 0.02 0.42 0 0.04 0.42 0 0.06 0.42 0 0.08 0.42 0 0.1 0.42 0 0 0.425 0 0.02 0.425 0 0.04 0.425 0 0.06 0.425 0 0.08 0.425 0 0.1 0.425 0 0 0.43 0 0.02 0.43 0 0.04 0.43 0 0.06 0.43 0 0.08 0.43 0 0.1 0.43 0 0 0.435 0 0.02 0.435 0 0.04 0.435 0 0.06 0.435 0 0.08 0.435 0 0.1 0.435 0 0 0.44 0 0.02 0.44 0 0.04 0.44 0 0.06 0.44 0 0.08 0.44 0 0.1 0.44 0 0 0.445 0 0.02 0.445 0 0.04 0.445 0 0.06 0.445 0 0.08 0.445 0 0.1 0.445 0 0 0.45 0 0.02 0.45 0 0.04 0.45 0 0.06 0.45 0 0.08 0.45 0 0.1 0.45 0 0 0.455 0 0.02 0.455 0 0.04 0.455 0 0.06 0.455 0 0.08 0.455 0 0.1 0.455 0 0 0.46 0 0.02 0.46 0 0.04 0.46 0 0.06 0.46 0 0.08 0.46 0 0.1 0.46 0 0 0.465 0 0.02 0.465 0 0.04 0.465 0 0.06 0.465 0 0.08 0.465 0 0.1 0.465 0 0 0.47 0 0.02 0.47 0 0.04 0.47 0 0.06 0.47 0 0.08 0.47 0 0.1 0.47 0 0 0.475 0 0.02 0.475 0 0.04 0.475 0 0.06 0.475 0 0.08 0.475 0 0.1 0.475 0 0 0.48 0 0.02 0.48 0 0.04 0.48 0 0.06 0.48 0 0.08 0.48 0 0.1 0.48 0 0 0.485 0 0.02 0.485 0 0.04 0.485 0 0.06 0.485 0 0.08 0.485 0 0.1 0.485 0 0 0.49 0 0.02 0.49 0 0.04 0.49 0 0.06 0.49 0 0.08 0.49 0 0.1 0.49 0 0 0.495 0 0.02 0.495 0 0.04 0.495 0 0.06 0.495 0 0.08 0.495 0 0.1 0.495 0 0 0.5 0 0.02 0.5 0 0.04 0.5 0 0.06 0.5 0 0.08 0.5 0 0.1 0.5 0 0 0.505 0 0.02 0.505 0 0.04 0.505 0 0.06 0.505 0 0.08 0.505 0 0.1 0.505 0 0 0.51 0 0.02 0.51 0 0.04 0.51 0 0.06 0.51 0 0.08 0.51 0 0.1 0.51 0 0 0.515 0 0.02 0.515 0 0.04 0.515 0 0.06 0.515 0 0.08 0.515 0 0.1 0.515 0 0 0.52 0 0.02 0.52 0 0.04 0.52 0 0.06 0.52 0 0.08 0.52 0 0.1 0.52 0 0 0.525 0 0.02 0.525 0 0.04 0.525 0 0.06 0.525 0 0.08 0.525 0 0.1 0.525 0 0 0.53 0 0.02 0.53 0 0.04 0.53 0 0.06 0.53 0 0.08 0.53 0 0.1 0.53 0 0 0.535 0 0.02 0.535 0 0.04 0.535 0 0.06 0.535 0 0.08 0.535 0 0.1 0.535 0 0 0.54 0 0.02 0.54 0 0.04 0.54 0 0.06 0.54 0 0.08 0.54 0 0.1 0.54 0 0 0.545 0 0.02 0.545 0 0.04 0.545 0 0.06 0.545 0 0.08 0.545 0 0.1 0.545 0 0 0.55 0 0.02 0.55 0 0.04 0.55 0 0.06 0.55 0 0.08 0.55 0 0.1 0.55 0 0 0.555 0 0.02 0.555 0 0.04 0.555 0 0.06 0.555 0 0.08 0.555 0 0.1 0.555 0 0 0.56 0 0.02 0.56 0 0.04 0.56 0 0.06 0.56 0 0.08 0.56 0 0.1 0.56 0 0 0.565 0 0.02 0.565 0 0.04 0.565 0 0.06 0.565 0 0.08 0.565 0 0.1 0.565 0 0 0.57 0 0.02 0.57 0 0.04 0.57 0 0.06 0.57 0 0.08 0.57 0 0.1 0.57 0 0 0.575 0 0.02 0.575 0 0.04 0.575 0 0.06 0.575 0 0.08 0.575 0 0.1 0.575 0 0 0.58 0 0.02 0.58 0 0.04 0.58 0 0.06 0.58 0 0.08 0.58 0 0.1 0.58 0 0 0.585 0 0.02 0.585 0 0.04 0.585 0 0.06 0.585 0 0.08 0.585 0 0.1 0.585 0 0 0.59 0 0.02 0.59 0 0.04 0.59 0 0.06 0.59 0 0.08 0.59 0 0.1 0.59 0 0 0.595 0 0.02 0.595 0 0.04 0.595 0 0.06 0.595 0 0.08 0.595 0 0.1 0.595 0 0 0.6 0 0.02 0.6 0 0.04 0.6 0 0.06 0.6 0 0.08 0.6 0 0.1 0.6 0 0 0.605 0 0.02 0.605 0 0.04 0.605 0 0.06 0.605 0 0.08 0.605 0 0.1 0.605 0 0 0.61 0 0.02 0.61 0 0.04 0.61 0 0.06 0.61 0 0.08 0.61 0 0.1 0.61 0 0 0.615 0 0.02 0.615 0 0.04 0.615 0 0.06 0.615 0 0.08 0.615 0 0.1 0.615 0 0 0.62 0 0.02 0.62 0 0.04 0.62 0 0.06 0.62 0 0.08 0.62 0 0.1 0.62 0 0 0.625 0 0.02 0.625 0 0.04 0.625 0 0.06 0.625 0 0.08 0.625 0 0.1 0.625 0 0 0.63 0 0.02 0.63 0 0.04 0.63 0 0.06 0.63 0 0.08 0.63 0 0.1 0.63 0 0 0.635 0 0.02 0.635 0 0.04 0.635 0 0.06 0.635 0 0.08 0.635 0 0.1 0.635 0 0 0.64 0 0.02 0.64 0 0.04 0.64 0 0.06 0.64 0 0.08 0.64 0 0.1 0.64 0 0 0.645 0 0.02 0.645 0 0.04 0.645 0 0.06 0.645 0 0.08 0.645 0 0.1 0.645 0 0 0.65 0 0.02 0.65 0 0.04 0.65 0 0.06 0.65 0 0.08 0.65 0 0.1 0.65 0 0 0.655 0 0.02 0.655 0 0.04 0.655 0 0.06 0.655 0 0.08 0.655 0 0.1 0.655 0 0 0.66 0 0.02 0.66 0 0.04 0.66 0 0.06 0.66 0 0.08 0.66 0 0.1 0.66 0 0 0.665 0 0.02 0.665 0 0.04 0.665 0 0.06 0.665 0 0.08 0.665 0 0.1 0.665 0 0 0.67 0 0.02 0.67 0 0.04 0.67 0 0.06 0.67 0 0.08 0.67 0 0.1 0.67 0 0 0.675 0 0.02 0.675 0 0.04 0.675 0 0.06 0.675 0 0.08 0.675 0 0.1 0.675 0 0 0.68 0 0.02 0.68 0 0.04 0.68 0 0.06 0.68 0 0.08 0.68 0 0.1 0.68 0 0 0.685 0 0.02 0.685 0 0.04 0.685 0 0.06 0.685 0 0.08 0.685 0 0.1 0.685 0 0 0.69 0 0.02 0.69 0 0.04 0.69 0 0.06 0.69 0 0.08 0.69 0 0.1 
[...]
			<PointData Scalars="VitesseX">
				<DataArray Name="VitesseX" type="Float32" format="ascii">
 0 -9.74169e-15 -1.52791e-14 -3.22631e-14 -2.94988e-14 0 0 -1.25586e-14 -1.15884e-14 -3.49956e-14 -2.63947e-14 0 0 -1.16682e-14 -1.74233e-14 -2.62122e-14 -2.97812e-14 0 0 -1.31638e-14 -2.04155e-14 -2.24331e-14 -3.02696e-14 0 0 -1.40048e-14 -2.31118e-14 -2.39448e-14 -2.15648e-14 0 0 -1.28163e-14 -2.89408e-14 -1.90942e-14 -2.14968e-14 0 0 -2.07831e-14 -1.9701e-14 -2.46725e-14 -2.11589e-14 0 0 -1.7342e-14 -2.62777e-14 -1.90741e-14 -1.66638e-14 0 0 -1.18841e-14 -3.33167e-14 -1.64007e-14 -5.99426e-16 0 0 -7.23187e-15 -3.87501e-14 -1.21405e-14 1.34732e-14 0 0 -5.90417e-15 -4.49783e-14 -9.48442e-16 1.23907e-14 0 0 -2.20497e-14 -2.44931e-14 -1.39984e-14 1.76921e-14 0 0 -2.69038e-14 -1.40145e-14 -2.72129e-14 2.56531e-14 0 0 -1.62006e-14 -3.28437e-14 -1.45563e-14 9.62748e-15 0 0 -1.26361e-14 -4.18561e-14 -9.17291e-15 -2.51928e-15 0 0 1.73799e-14 -6.97313e-14 1.49492e-14 -2.80635e-14 0 0 4.70804e-14 -8.88538e-14 4.00584e-14 -5.66033e-14 0 0 -2.5928e-16 -1.06684e-14 -1.1468e-14 -3.07833e-14 0 0 -4.26634e-14 4.09049e-14 -4.25114e-14 -4.24894e-15 0 0 -1.81641e-14 4.65742e-15 -1.54229e-14 -1.65102e-14 0 0 1.13406e-14 -4.28559e-14 4.51795e-14 -7.87665e-14 0 0 -1.25786e-14 -1.6503e-14 2.04984e-14 -7.42765e-14 0 0 -3.96562e-14 2.52524e-14 -3.4078e-14 -4.19823e-14 0 0 -5.31915e-14 5.54286e-14 -7.0902e-14 -2.81701e-14 0 0 -4.41358e-14 3.99366e-14 -5.76084e-14 -3.57068e-14 0 0 -3.17522e-14 1.19238e-14 -3.28517e-14 -4.49924e-14 0 0 2.77581e-14 -7.31602e-14 6.70668e-15 -3.60574e-14 0 0 6.06042e-14 -1.1542e-13 1.11032e-14 -5.24977e-15 0 0 -5.27817e-15 1.1791e-15 -9.14277e-14 5.05666e-14 0 0 -2.16382e-15 3.13706e-14 -1.11199e-13 4.94516e-14 0 0 1.26239e-14 1.9026e-14 -9.3183e-14 1.30268e-14 0 0 -9.8814e-15 4.73705e-14 -7.69532e-14 -5.15234e-14 0 0 -4.12678e-15 3.95462e-14 -4.74292e-14 -1.02723e-13 0 0 1.99259e-14 -2.74143e-14 1.59776e-14 -1.27774e-13 0 0 4.38054e-15 -1.10715e-14 -2.19379e-14 -8.28342e-14 0 0 -1.55708e-16 -8.60032e-15 -4.88089e-14 -3.26158e-14 0 0 2.4248e-14 -5.23154e-14 -2.26997e-14 1.08311e-14 0 0 -6.3328e-16 -9.05188e-15 -9.60019e-14 9.70222e-14 0 0 9.99443e-15 -3.29343e-14 -6.45443e-14 7.37594e-14 0 0 -1.55127e-14 -2.77166e-15 -6.74305e-14 8.02683e-14 0 0 -9.33078e-14 1.02914e-13 -1.38239e-13 9.78865e-14 0 0 -6.00136e-14 2.6975e-14 -6.59229e-14 3.14379e-14 0 0 -5.04849e-14 -2.88618e-14 -6.14732e-15 1.23468e-14 0 0 -1.04807e-13 3.34051e-14 -3.20264e-14 1.99973e-14 0 0 -4.25582e-14 -2.09091e-14 -1.74737e-14 1.61933e-14 0 0 5.28245e-14 -1.70791e-13 1.45207e-13 -8.06253e-14 0 0 -1.81695e-14 -1.00858e-13 1.32864e-13 -9.13193e-14 0 0 -9.84461e-14 -9.68471e-16 9.27398e-16 -1.0834e-14 0 0 -1.4084e-14 -1.82639e-13 1.51538e-13 -9.46673e-14 0 0 3.81071e-14 -1.84703e-13 1.37158e-13 -9.75943e-14 0 0 3.72022e-14 -8.50832e-14 -2.10317e-14 -2.35612e-14 0 0 2.44437e-14 -1.15467e-13 -2.56463e-14 -5.53079e-14 0 0 4.86879e-14 -1.89823e-13 -1.02435e-15 -1.133e-13 0 0 4.48046e-14 -2.35785e-13 4.34624e-14 -1.62032e-13 0 0 -8.3292e-14 -1.19253e-13 -2.70803e-14 -8.52184e-14 0 0 -1.70476e-13 -3.42593e-14 -1.94223e-13 6.97284e-14 0 0 -7.57694e-14 -2.01813e-13 -1.35877e-13 3.40196e-15 0 0 3.8824e-15 -2.80703e-13 -4.348e-14 -1.60854e-13 0 0 -5.04483e-14 -2.01685e-13 -6.89118e-14 -1.96582e-13 0 0 -1.21556e-13 -1.10721e-13 -1.63139e-13 -1.2311e-13 0 0 -1.365e-13 -5.23934e-14 -2.69649e-13 -1.2567e-14 0 0 -9.56498e-14 -2.00878e-13 -9.49673e-14 -6.67888e-14 0 0 -1.88095e-13 -2.33627e-13 6.0875e-14 -1.3417e-13 0 0 -2.85944e-13 -2.2312e-13 8.88247e-14 -1.65864e-13 0 0 -2.97703e-13 -2.88471e-13 1.12244e-13 -1.59874e-13 0 0 -3.35823e-13 -2.50744e-13 4.00329e-14 -1.05852e-13 0 0 -3.3665e-13 -2.03955e-13 -8.33874e-15 -1.39511e-13 0 0 -2.62732e-13 -2.27774e-13 -3.2128e-14 -1.76012e-13 0 0 -1.86743e-13 -2.22963e-13 -1.20189e-13 -1.39532e-13 0 0 -1.39924e-13 -2.3229e-13 -1.7963e-13 -1.03218e-13 0 0 -1.54115e-13 -2.94391e-13 -1.20517e-13 -1.22897e-13 0 0 -1.63991e-13 -3.88475e-13 -1.80576e-14 -1.87663e-13 0 0 -1.62045e-13 -4.60291e-13 1.45156e-15 -1.70857e-13 0 0 -1.85746e-13 -4.22461e-13 -8.78252e-14 -6.01841e-14 0 0 -2.4813e-13 -3.17511e-13 -2.63462e-13 6.92475e-14 0 0 -2.96999e-13 -2.62796e-13 -3.36789e-13 7.76457e-14 0 0 -2.92914e-13 -2.78319e-13 -2.92358e-13 1.43626e-14 0 0 -2.63474e-13 -3.43281e-13 -1.50613e-13 -7.63128e-14 0 0 -2.48083e-13 -3.8636e-13 -2.99012e-14 -7.90809e-14 0 0 -2.27862e-13 -3.99148e-13 -2.98078e-15 -1.80159e-14 0 0 -1.9601e-13 -4.08595e-13 1.58027e-14 4.38732e-14 0 0 -1.50895e-13 -4.18004e-13 5.32183e-14 4.85417e-14 0 0 -9.14593e-14 -4.17932e-13 4.80677e-14 2.94434e-14 0 0 -3.1628e-14 -4.06268e-13 1.98676e-14 7.04243e-15 0 0 4.91165e-15 -3.78464e-13 -3.74344e-14 -1.74614e-14 0 0 1.70401e-14 -3.46572e-13 -1.08303e-13 -4.4519e-14 0 0 1.43269e-14 -3.14238e-13 -1.73941e-13 -7.26526e-14 0 0 -3.32396e-15 -2.75443e-13 -2.11195e-13 -8.70952e-14 0 0 -3.34912e-14 -2.29751e-13 -2.36681e-13 -9.86979e-14 0 0 -7.01701e-14 -1.68296e-13 -2.71641e-13 -1.16026e-13 0 0 -9.75906e-14 -1.29252e-13 -2.96188e-13 -1.1787e-13 0 0 -1.02143e-13 -1.25253e-13 -2.95392e-13 -1.108e-13 0 0 -9.78293e-14 -1.27462e-13 -2.84822e-13 -1.15072e-13 0 0 -7.88841e-14 -1.51253e-13 -2.50269e-13 -1.5021e-13 0 0 -4.12161e-14 -2.14879e-13 -1.96578e-13 -2.03767e-13 0 0 6.92398e-15 -2.67529e-13 -1.91493e-13 -2.67846e-13 0 0 3.626e-14 -2.84616e-13 -2.0537e-13 -2.7688e-13 0 0 5.82005e-14 -2.86013e-13 -2.48365e-13 -2.64895e-13 0 0 7.97116e-14 -2.64735e-13 -3.23293e-13 -2.31523e-13 0 0 1.03988e-13 -2.58193e-13 -4.03343e-13 -2.12208e-13 0 0 1.34041e-13 -2.70575e-13 -4.24124e-13 -2.30787e-13 0 0 1.66668e-13 -2.95349e-13 -4.2916e-13 -2.85112e-13 0 0 1.98195e-13 -3.11599e-13 -4.28565e-13 -3.30753e-13 0 0 2.42425e-13 -3.2329e-13 -4.26681e-13 -3.55212e-13 0 0 2.8843e-13 -3.39934e-13 -4.30732e-13 -3.56336e-13 0 0 2.94041e-13 -3.59261e-13 -4.35068e-13 -3.5928e-13 0 0 2.87018e-13 -3.73634e-13 -4.28783e-13 -3.79895e-13 0 0 2.64146e-13 -3.68809e-13 -4.20814e-13 -3.92217e-13 0 0 2.19277e-13 -3.50588e-13 -4.30139e-13 -3.73262e-13 0 0 1.5231e-13 -3.17137e-13 -4.44708e-13 -3.37137e-13 0 0 6.74247e-14 -2.77309e-13 -4.43899e-13 -3.02457e-13 0 0 -1.32674e-14 -2.21091e-13 -4.58447e-13 -2.7194e-13 0 0 -6.78964e-14 -2.13493e-13 -4.40514e-13 -2.78653e-13 0 0 -1.34967e-13 -2.13165e-13 -4.01448e-13 -3.09591e-13 0 0 -1.95047e-13 -2.13088e-13 -3.35031e-13 -3.84204e-13 0 0 -2.13074e-13 -2.44742e-13 -2.36496e-13 -4.26896e-13 0 0 -2.24004e-13 -2.52693e-13 -2.45897e-13 -3.81717e-13 0 0 -2.15129e-13 -3.05489e-13 -2.34948e-13 -3.21402e-13 0 0 -2.07684e-13 -3.17626e-13 -2.48881e-13 -2.7999e-13 0 0 -2.32605e-13 -2.75596e-13 -3.25192e-13 -1.96483e-13 0 0 -2.61128e-13 -2.59046e-13 -3.39052e-13 -1.39783e-13 0 0 -2.6805e-13 -2.53569e-13 -2.98163e-13 -1.62689e-13 0 0 -2.8514e-13 -2.46433e-13 -2.63342e-13 -1.68375e-13 0 0 -3.06335e-13 -2.24669e-13 -2.51408e-13 -1.54583e-13 0 0 -3.29453e-13 -1.97466e-13 -2.51773e-13 -1.52972e-13 0 0 -3.72331e-13 -1.60425e-13 -2.57062e-13 -1.53245e-13 0 0 -3.97369e-13 -1.34076e-13 -2.25949e-13 -1.80804e-13 0 0 -3.93895e-13 -1.32834e-13 -1.8516e-13 -1.90566e-13 0 0 -3.80449e-13 -1.41282e-13 -1.36483e-13 -1.99754e-13 0 0 -3.65947e-13 -1.52939e-13 -8.53333e-14 -2.24107e-13 0 0 -3.56995e-13 -1.69439e-13 -4.58399e-14 -2.37283e-13 0 0 -3.43466e-13 -1.95233e-13 -1.61834e-14 -2.37702e-13 0 0 -3.25025e-13 -2.23461e-13 -1.28263e-14 -2.2465e-13 0 0 -3.02598e-13 -2.54276e-13 -1.5462e-14 -2.02091e-13 0 0 -2.78685e-13 -2.77309e-13 -2.54423e-14 -2.11607e-13 0 0 -2.68661e-13 -2.96151e-13 -2.87172e-14 -2.09885e-13 0 0 -2.52895e-13 -3.37297e-13 -1.41955e-14 -2.22464e-13 0 0 -2.39425e-13 -3.5136e-13 -2.19917e-14 -1.91911e-13 0 0 -2.49008e-13 -3.27942e-13 -5.41384e-14 -1.13276e-13 0 0 -2.63083e-13 -2.66971e-13 -1.22097e-13 -7.18441e-14 0 0 -2.4963e-13 -2.37052e-13 -2.00573e-13 -4.31266e-14 0 0 -1.92212e-13 -2.55121e-13 -2.20622e-13 -9.0094e-14 0 0 -1.75594e-13 -2.50343e-13 -2.59753e-13 -7.06413e-14 0 0 -1.56531e-13 -2.56741e-13 -2.32354e-13 -9.11392e-14 0 0 -1.42281e-13 -2.79958e-13 -1.24702e-13 -2.01028e-13 0 0 -1.44014e-13 -2.275e-13 -1.55324e-13 -2.08052e-13 0 0 -1.32987e-13 -1.88969e-13 -2.227e-13 -2.267e-13 0 0 -1.61703e-13 -1.64746e-13 -3.25364e-13 -1.27555e-13 0 0 -1.74516e-13 -1.84654e-13 -3.58083e-13 -3.54966e-14 0 0 -1.44278e-13 -2.7465e-13 -3.4113e-13 2.8208e-14 0 0 -1.45218e-13 -3.11121e-13 -3.94351e-13 7.51562e-14 0 0 -1.6353e-13 -3.33885e-13 -3.41265e-13 -1.27641e-13 0 0 -1.70788e-13 -3.81638e-13 -2.55882e-13 -3.7012e-13 0 0 -1.9176e-13 -3.65724e-13 -3.13035e-13 -4.7087e-13 0 0 -2.14817e-13 -3.24888e-13 -3.79164e-13 -4.83417e-13 0 0 -2.13135e-13 -3.26352e-13 -3.5948e-13 -4.52923e-13 0 0 -2.06101e-13 -3.08887e-13 -3.22662e-13 -3.86547e-13 0 0 -2.08686e-13 -3.45224e-13 -2.53881e-13 -9.66583e-14 0 0 -2.02974e-13 -4.02935e-13 -1.07655e-13 -5.86856e-16 0 0 -2.00788e-13 -3.6076e-13 -1.06852e-13 -1.24283e-14 0 0 -2.13837e-13 -2.86848e-13 -1.82789e-13 2.54164e-14 0 0 -1.39738e-13 -2.77456e-13 -1.88706e-13 -3.30193e-15 0 0 -6.94061e-14 -2.55887e-13 -1.90929e-13 -8.38845e-14 0 0 -1.57258e-13 -1.92599e-13 -2.26241e-13 -2.03235e-13 0 0 -2.5656e-13 -2.12603e-13 -1.02862e-13 -4.03501e-13 0 0 -2.23057e-13 -2.07049e-13 -2.20338e-13 -2.89792e-13 0 0 -1.89164e-13 -1.53536e-13 -5.05596e-13 -3.97613e-14 0 0 -1.82935e-13 -3.21244e-13 -3.39945e-13 -1.41112e-13 0 0 -2.11716e-13 -3.30535e-13 -2.79883e-13 -2.82698e-13 0 0 -1.60874e-13 -3.16771e-13 -3.64954e-13 -3.5924e-13 0 0 -1.82321e-13 -2.39724e-13 -5.26223e-13 -2.74473e-13 0 0 -2.08128e-13 -2.24415e-13 -5.3166e-13 -2.47687e-13 0 0 -1.58542e-13 -3.36657e-13 -4.21828e-13 -2.66257e-13 0 0 -1.76212e-13 -3.1463e-13 -3.85988e-13 -3.45901e-13 0 0 -1.6436e-13 -2.59825e-13 -5.18337e-13 -2.0616e-13 0 0 -7.95827e-14 -3.86085e-13 -3.70643e-13 -2.68923e-13 0 0 -1.1913e-13 -3.60553e-13 -3.86583e-13 -2.07033e-13 0 0 -9.40021e-14 -3.67858e-13 -4.72965e-13 -9.41609e-14 0 0 6.18154e-15 -4.93156e-13 -3.60941e-13 -1.88544e-13 0 0 -9.54694e-14 -3.58411e-13 -4.28323e-13 -1.07983e-13 0 0 -1.69375e-13 -2.74967e-13 -4.31772e-13 -1.15491e-13 0 0 -1.4435e-13 -2.95782e-13 -4.24438e-13 -9.48352e-14 0 0 -1.3185e-13 -3.0043e-13 -3.80176e-13 -1.84107e-13 0 0 -1.23656e-13 -3.2108e-13 -2.66922e-13 -3.55753e-13 0 0 -1.11412e-13 -3.14054e-13 -2.56861e-13 -3.15087e-13 0 0 -7.50114e-14 -3.62417e-13 -1.64584e-13 -3.22705e-13 0 0 -1.07042e-13 -3.2924e-13 -2.00551e-13 -2.7308e-13 0 0 -1.42374e-13 -2.33707e-13 -3.07409e-13 -1.89426e-13 0 0 -1.52153e-13 -2.06245e-13 -3.05496e-13 -1.11859e-13 0 0 -8.39779e-14 -3.35608e-13 -2.10575e-13 -8.4581e-14 0 0 -1.80236e-13 -2.22068e-13 -2.96062e-13 -3.02998e-14 0 0 -1.55595e-13 -2.3933e-13 -3.18052e-13 -1.28973e-14 0 0 -2.13622e-15 -4.42386e-13 -5.73695e-14 -2.74495e-13 0 0 -1.38835e-13 -3.55871e-13 2.8575e-14 -3.74293e-13 0 0 -2.71699e-13 -2.03157e-13 -1.88094e-13 -7.62893e-14 0 0 -4.13175e-13 -9.33165e-14 -3.93523e-13 2.66598e-13 0 0 -4.27052e-13 -2.22421e-13 -3.45223e-13 3.18746e-13 0 0 -1.25022e-13 -6.25869e-13 8.6189e-14 -7.88153e-14 0 0 -2.22779e-13 -3.65985e-13 -6.43459e-14 -1.57838e-13 0 0 -5.03261e-13 8.04419e-14 -3.51637e-13 -1.45046e-13 0 0 -4.04643e-13 -1.05081e-13 -7.21363e-15 -4.46335e-13 0
				</DataArray>
				<DataArray Name="VitesseY" type="Float32" format="ascii">