<?xml version="1.0"?>
<VTKFile type="PolyData">
	<PolyData>
		<Piece NumberOfPoints="1206" NumberOfPolys="1000">
			<Points>
				<DataArray type="Float32" NumberOfComponents="3" format="ascii">
 0 0 0 0.02 0 0 0.04 0 0 0.06 0 0 0.08 0 0 0.1 0 0 0 0.005 0 0.02 0.005 0 0.04 0.005 0 0.06 0.005 0 0.08 0.005 0 0.1 0.005 0 0 0.01 0 0.02 0.01 0 0.04 0.01 0 0.06 0.01 0 0.08 0.01 0 0.1 0.01 0 0 0.015 0 0.02 0.015 0 0.04 0.015 0 0.06 0.015 0 0.08 0.015 0 0.1 0.015 0 0 0.02 0 0.02 0.02 0 0.04 0.02 0 0.06 0.02 0 0.08 0.02 0 0.1 0.02 0 0 0.025 0 0.02 0.025 0 0.04 0.025 0 0.06 0.025 0 0.08 0.025 0 0.1 0.025 0 0 0.03 0 0.02 0.03 0 0.04 0.03 0 0.06 0.03 0 0.08 0.03 0 0.1 0.03 0 0 0.035 0 0.02 0.035 0 0.04 0.035 0 0.06 0.035 0 0.08 0.035 0 0.1 0.035 0 0 0.04 0 0.02 0.04 0 0.04 0.04 0 0.06 0.04 0 0.08 0.04 0 0.1 0.04 0 0 0.045 0 0.02 0.045 0 0.04 0.045 0 0.06 0.045 0 0.08 0.045 0 0.1 0.045 0 0 0.05 0 0.02 0.05 0 0.04 0.05 0 0.06 0.05 0 0.08 0.05 0 0.1 0.05 0 0 0.055 0 0.02 0.055 0 0.04 0.055 0 0.06 0.055 0 0.08 0.055 0 0.1 0.055 0 0 0.06 0 0.02 0.06 0 0.04 0.06 0 0.06 0.06 0 0.08 0.06 0 0.1 0.06 0 0 0.065 0 0.02 0.065 0 0.04 0.065 0 0.06 0.065 0 0.08 0.065 0 0.1 0.065 0 0 0.07 0 0.02 0.07 0 0.04 0.07 0 0.06 0.07 0 0.08 0.07 0 0.1 0.07 0 0 0.075 0 0.02 0.075 0 0.04 0.075 0 0.06 0.075 0 0.08 0.075 0 0.1 0.075 0 0 0.08 0 0.02 0.08 0 0.04 0.08 0 0.06 0.08 0 0.08 0.08 0 0.1 0.08 0 0 0.085 0 0.02 0.085 0 0.04 0.085 0 0.06 0.085 0 0.08 0.085 0 0.1 0.085 0 0 0.09 0 0.02 0.09 0 0.04 0.09 0 0.06 0.09 0 0.08 0.09 0 0.1 0.09 0 0 0.095 0 0.02 0.095 0 0.04 0.095 0 0.06 0.095 0 0.08 0.095 0 0.1 0.095 0 0 0.1 0 0.02 0.1 0 0.04 0.1 0 0.06 0.1 0 0.08 0.1 0 0.1 0.1 0 0 0.105 0 0.02 0.105 0 0.04 0.105 0 0.06 0.105 0 0.08 0.105 0 0.1 0.105 0 0 0.11 0 0.02 0.11 0 0.04 0.11 0 0.06 0.11 0 0.08 0.11 0 0.1 0.11 0 0 0.115 0 0.02 0.115 0 0.04 0.115 0 0.06 0.115 0 0.08 0.115 0 0.1 0.115 0 0 0.12 0 0.02 0.12 0 0.04 0.12 0 0.06 0.12 0 0.08 0.12 0 0.1 0.12 0 0 0.125 0 0.02 0.125 0 0.04 0.125 0 0.06 0.125 0 0.08 0.125 0 0.1 0.125 0 0 0.13 0 0.02 0.13 0 0.04 0.13 0 0.06 0.13 0 0.08 0.13 0 0.1 0.13 0 0 0.135 0 0.02 0.135 0 0.04 0.135 0 0.06 0.135 0 0.08 0.135 0 0.1 0.135 0 0 0.14 0 0.02 0.14 0 0.04 0.14 0 0.06 0.14 0 0.08 0.14 0 0.1 0.14 0 0 0.145 0 0.02 0.145 0 0.04 0.145 0 0.06 0.145 0 0.08 0.145 0 0.1 0.145 0 0 0.15 0 0.02 0.15 0 0.04 0.15 0 0.06 0.15 0 0.08 0.15 0 0.1 0.15 0 0 0.155 0 0.02 0.155 0 0.04 0.155 0 0.06 0.155 0 0.08 0.155 0 0.1 0.155 0 0 0.16 0 0.02 0.16 0 0.04 0.16 0 0.06 0.16 0 0.08 0.16 0 0.1 0.16 0 0 0.165 0 0.02 0.165 0 0.04 0.165 0 0.06 0.165 0 0.08 0.165 0 0.1 0.165 0 0 0.17 0 0.02 0.17 0 0.04 0.17 0 0.06 0.17 0 0.08 0.17 0 0.1 0.17 0 0 0.175 0 0.02 0.175 0 0.04 0.175 0 0.06 0.175 0 0.08 0.175 0 0.1 0.175 0 0 0.18 0 0.02 0.18 0 0.04 0.18 0 0.06 0.18 0 0.08 0.18 0 0.1 0.18 0 0 0.185 0 0.02 0.185 0 0.04 0.185 0 0.06 0.185 0 0.08 0.185 0 0.1 0.185 0 0 0.19 0 0.02 0.19 0 0.04 0.19 0 0.06 0.19 0 0.08 0.19 0 0.1 0.19 0 0 0.195 0 0.02 0.195 0 0.04 0.195 0 0.06 0.195 0 0.08 0.195 0 0.1 0.195 0 0 0.2 0 0.02 0.2 0 0.04 0.2 0 0.06 0.2 0 0.08 0.2 0 0.1 0.2 0 0 0.205 0 0.02 0.205 0 0.04 0.205 0 0.06 0.205 0 0.08 0.205 0 0.1 0.205 0 0 0.21 0 0.02 0.21 0 0.04 0.21 0 0.06 0.21 0 0.08 0.21 0 0.1 0.21 0 0 0.215 0 0.02 0.215 0 0.04 0.215 0 0.06 0.215 0 0.08 0.215 0 0.1 0.215 0 0 0.22 0 0.02 0.22 0 0.04 0.22 0 0.06 0.22 0 0.08 0.22 0 0.1 0.22 0 0 0.225 0 0.02 0.225 0 0.04 0.225 0 0.06 0.225 0 0.08 0.225 0 0.1 0.225 0 0 0.23 0 0.02 0.23 0 0.04 0.23 0 0.06 0.23 0 0.08 0.23 0 0.1 0.23 0 0 0.235 0 0.02 0.235 0 0.04 0.235 0 0.06 0.235 0 0.08 0.235 0 0.1 0.235 0 0 0.24 0 0.02 0.24 0 0.04 0.24 0 0.06 0.24 0 0.08 0.24 0 0.1 0.24 0 0 0.245 0 0.02 0.245 0 0.04 0.245 0 0.06 0.245 0 0.08 0.245 0 0.1 0.245 0 0 0.25 0 0.02 0.25 0 0.04 0.25 0 0.06 0.25 0 0.08 0.25 0 0.1 0.25 0 0 0.255 0 0.02 0.255 0 0.04 0.255 0 0.06 0.255 0 0.08 0.255 0 0.1 0.255 0 0 0.26 0 0.02 0.26 0 0.04 0.26 0 0.06 0.26 0 0.08 0.26 0 0.1 0.26 0 0 0.265 0 0.02 0.265 0 0.04 0.265 0 0.06 0.265 0 0.08 0.265 0 0.1 0.265 0 0 0.27 0 0.02 0.27 0 0.04 0.27 0 0.06 0.27 0 0.08 0.27 0 0.1 0.27 0 0 0.275 0 0.02 0.275 0 0.04 0.275 0 0.06 0.275 0 0.08 0.275 0 0.1 0.275 0 0 0.28 0 0.02 0.28 0 0.04 0.28 0 0.06 0.28 0 0.08 0.28 0 0.1 0.28 0 0 0.285 0 0.02 0.285 0 0.04 0.285 0 0.06 0.285 0 0.08 0.285 0 0.1 0.285 0 0 0.29 0 0.02 0.29 0 0.04 0.29 0 0.06 0.29 0 0.08 0.29 0 0.1 0.29 0 0 0.295 0 0.02 0.295 0 0.04 0.295 0 0.06 0.295 0 0.08 0.295 0 0.1 0.295 0 0 0.3 0 0.02 0.3 0 0.04 0.3 0 0.06 0.3 0 0.08 0.3 0 0.1 0.3 0 0 0.305 0 0.02 0.305 0 0.04 0.305 0 0.06 0.305 0 0.08 0.305 0 0.1 0.305 0 0 0.31 0 0.02 0.31 0 0.04 0.31 0 0.06 0.31 0 0.08 0.31 0 0.1 0.31 0 0 0.315 0 0.02 0.315 0 0.04 0.315 0 0.06 0.315 0 0.08 0.315 0 0.1 0.315 0 0 0.32 0 0.02 0.32 0 0.04 0.32 0 0.06 0.32 0 0.08 0.32 0 0.1 0.32 0 0 0.325 0 0.02 0.325 0 0.04 0.325 0 0.06 0.325 0 0.08 0.325 0 0.1 0.325 0 0 0.33 0 0.02 0.33 0 0.04 0.33 0 0.06 0.33 0 0.08 0.33 0 0.1 0.33 0 0 0.335 0 0.02 0.335 0 0.04 0.335 0 0.06 0.335 0 0.08 0.335 0 0.1 0.335 0 0 0.34 0 0.02 0.34 0 0.04 0.34 0 0.06 0.34 0 0.08 0.34 0 0.1 0.34 0 0 0.345 0 0.02 0.345 0 0.04 0.345 0 0.06 0.345 0 0.08 0.345 0 0.1 0.345 0 0 0.35 0 0.02 0.35 0 0.04 0.35 0 0.06 0.35 0 0.08 0.35 0 0.1 0.35 0 0 0.355 0 0.02 0.355 0 0.04 0.355 0 0.06 0.355 0 0.08 0.355 0 0.1 0.355 0 0 0.36 0 0.02 0.36 0 0.04 0.36 0 0.06 0.36 0 0.08 0.36 0 0.1 0.36 0 0 0.365 0 0.02 0.365 0 0.04 0.365 0 0.06 0.365 0 0.08 0.365 0 0.1 0.365 0 0 0.37 0 0.02 0.37 0 0.04 0.37 0 0.06 0.37 0 0.08 0.37 0 0.1 0.37 0 0 0.375 0 0.02 0.375 0 0.04 0.375 0 0.06 0.375 0 0.08 0.375 0 0.1 0.375 0 0 0.38 0 0.02 0.38 0 0.04 0.38 0 0.06 0.38 0 0.08 0.38 0 0.1 0.38 0 0 0.385 0 0.02 0.385 0 0.04 0.385 0 0.06 0.385 0 0.08 0.385 0 0.1 0.385 0 0 0.39 0 0.02 0.39 0 0.04 0.39 0 0.06 0.39 0 0.08 0.39 0 0.1 0.39 0 0 0.395 0 0.02 0.395 0 0.04 0.395 0 0.06 0.395 0 0.08 0.395 0 0.1 0.395 0 0 0.4 0 0.02 0.4 0 0.04 0.4 0 0.06 0.4 0 0.08 0.4 0 0.1 0.4 0 0 0.405 0 0.02 0.405 0 0.04 0.405 0 0.06 0.405 0 0.08 0.405 0 0.1 0.405 0 0 0.41 0 0.02 0.41 0 0.04 0.41 0 0.06 0.41 0 0.08 0.41 0 0.1 0.41 0 0 0.415 0 0.02 0.415 0 0.04 0.415 0 0.06 0.415 0 0.08 0.415 0 0.1 0.415 0 0 0.42 0 0.02 0.42 0 0.04 0.42 0 0.06 0.42 0 0.08 0.42 0 0.1 0.42 0 0 0.425 0 0.02 0.425 0 0.04 0.425 0 0.06 0.425 0 0.08 0.425 0 0.1 0.425 0 0 0.43 0 0.02 0.43 0 0.04 0.43 0 0.06 0.43 0 0.08 0.43 0 0.1 0.43 0 0 0.435 0 0.02 0.435 0 0.04 0.435 0 0.06 0.435 0 0.08 0.435 0 0.1 0.435 0 0 0.44 0 0.02 0.44 0 0.04 0.44 0 0.06 0.44 0 0.08 0.44 0 0.1 0.44 0 0 0.445 0 0.02 0.445 0 0.04 0.445 0 0.06 0.445 0 0.08 0.445 0 0.1 0.445 0 0 0.45 0 0.02 0.45 0 0.04 0.45 0 0.06 0.45 0 0.08 0.45 0 0.1 0.45 0 0 0.455 0 0.02 0.455 0 0.04 0.455 0 0.06 0.455 0 0.08 0.455 0 0.1 0.455 0 0 0.46 0 0.02 0.46 0 0.04 0.46 0 0.06 0.46 0 0.08 0.46 0 0.1 0.46 0 0 0.465 0 0.02 0.465 0 0.04 0.465 0 0.06 0.465 0 0.08 0.465 0 0.1 0.465 0 0 0.47 0 0.02 0.47 0 0.04 0.47 0 0.06 0.47 0 0.08 0.47 0 0.1 0.47 0 0 0.475 0 0.02 0.475 0 0.04 0.475 0 0.06 0.475 0 0.08 0.475 0 0.1 0.475 0 0 0.48 0 0.02 0.48 0 0.04 0.48 0 0.06 0.48 0 0.08 0.48 0 0.1 0.48 0 0 0.485 0 0.02 0.485 0 0.04 0.485 0 0.06 0.485 0 0.08 0.485 0 0.1 0.485 0 0 0.49 0 0.02 0.49 0 0.04 0.49 0 0.06 0.49 0 0.08 0.49 0 0.1 0.49 0 0 0.495 0 0.02 0.495 0 0.04 0.495 0 0.06 0.495 0 0.08 0.495 0 0.1 0.495 0 0 0.5 0 0.02 0.5 0 0.04 0.5 0 0.06 0.5 0 0.08 0.5 0 0.1 0.5 0 0 0.505 0 0.02 0.505 0 0.04 0.505 0 0.06 0.505 0 0.08 0.505 0 0.1 0.505 0 0 0.51 0 0.02 0.51 0 0.04 0.51 0 0.06 0.51 0 0.08 0.51 0 0.1 0.51 0 0 0.515 0 0.02 0.515 0 0.04 0.515 0 0.06 0.515 0 0.08 0.515 0 0.1 0.515 0 0 0.52 0 0.02 0.52 0 0.04 0.52 0 0.06 0.52 0 0.08 0.52 0 0.1 0.52 0 0 0.525 0 0.02 0.525 0 0.04 0.525 0 0.06 0.525 0 0.08 0.525 0 0.1 0.525 0 0 0.53 0 0.02 0.53 0 0.04 0.53 0 0.06 0.53 0 0.08 0.53 0 0.1 0.53 0 0 0.535 0 0.02 0.535 0 0.04 0.535 0 0.06 0.535 0 0.08 0.535 0 0.1 0.535 0 0 0.54 0 0.02 0.54 0 0.04 0.54 0 0.06 0.54 0 0.08 0.54 0 0.1 0.54 0 0 0.545 0 0.02 0.545 0 0.04 0.545 0 0.06 0.545 0 0.08 0.545 0 0.1 0.545 0 0 0.55 0 0.02 0.55 0 0.04 0.55 0 0.06 0.55 0 0.08 0.55 0 0.1 0.55 0 0 0.555 0 0.02 0.555 0 0.04 0.555 0 0.06 0.555 0 0.08 0.555 0 0.1 0.555 0 0 0.56 0 0.02 0.56 0 0.04 0.56 0 0.06 0.56 0 0.08 0.56 0 0.1 0.56 0 0 0.565 0 0.02 0.565 0 0.04 0.565 0 0.06 0.565 0 0.08 0.565 0 0.1 0.565 0 0 0.57 0 0.02 0.57 0 0.04 0.57 0 0.06 0.57 0 0.08 0.57 0 0.1 0.57 0 0 0.575 0 0.02 0.575 0 0.04 0.575 0 0.06 0.575 0 0.08 0.575 0 0.1 0.575 0 0 0.58 0 0.02 0.58 0 0.04 0.58 0 0.06 0.58 0 0.08 0.58 0 0.1 0.58 0 0 0.585 0 0.02 0.585 0 0.04 0.585 0 0.06 0.585 0 0.08 0.585 0 0.1 0.585 0 0 0.59 0 0.02 0.59 0 0.04 0.59 0 0.06 0.59 0 0.08 0.59 0 0.1 0.59 0 0 0.595 0 0.02 0.595 0 0.04 0.595 0 0.06 0.595 0 0.08 0.595 0 0.1 0.595 0 0 0.6 0 0.02 0.6 0 0.04 0.6 0 0.06 0.6 0 0.08 0.6 0 0.1 0.6 0 0 0.605 0 0.02 0.605 0 0.04 0.605 0 0.06 0.605 0 0.08 0.605 0 0.1 0.605 0 0 0.61 0 0.02 0.61 0 0.04 0.61 0 0.06 0.61 0 0.08 0.61 0 0.1 0.61 0 0 0.615 0 0.02 0.615 0 0.04 0.615 0 0.06 0.615 0 0.08 0.615 0 0.1 0.615 0 0 0.62 0 0.02 0.62 0 0.04 0.62 0 0.06 0.62 0 0.08 0.62 0 0.1 0.62 0 0 0.625 0 0.02 0.625 0 0.04 0.625 0 0.06 0.625 0 0.08 0.625 0 0.1 0.625 0 0 0.63 0 0.02 0.63 0 0.04 0.63 0 0.06 0.63 0 0.08 0.63 0 0.1 0.63 0 0 0.635 0 0.02 0.635 0 0.04 0.635 0 0.06 0.635 0 0.08 0.635 0 0.1 0.635 0 0 0.64 0 0.02 0.64 0 0.04 0.64 0 0.06 0.64 0 0.08 0.64 0 0.1 0.64 0 0 0.645 0 0.02 0.645 0 0.04 0.645 0 0.06 0.645 0 0.08 0.645 0 0.1 0.645 0 0 0.65 0 0.02 0.65 0 0.04 0.65 0 0.06 0.65 0 0.08 0.65 0 0.1 0.65 0 0 0.655 0 0.02 0.655 0 0.04 0.655 0 0.06 0.655 0 0.08 0.655 0 0.1 0.655 0 0 0.66 0 0.02 0.66 0 0.04 0.66 0 0.06 0.66 0 0.08 0.66 0 0.1 0.66 0 0 0.665 0 0.02 0.665 0 0.04 0.665 0 0.06 0.665 0 0.08 0.665 0 0.1 0.665 0 0 0.67 0 0.02 0.67 0 0.04 0.67 0 0.06 0.67 0 0.08 0.67 0 0.1 0.67 0 0 0.675 0 0.02 0.675 0 0.04 0.675 0 0.06 0.675 0 0.08 0.675 0 0.1 0.675 0 0 0.68 0 0.02 0.68 0 0.04 0.68 0 0.06 0.68 0 0.08 0.68 0 0.1 0.68 0 0 0.685 0 0.02 0.685 0 0.04 0.685 0 0.06 0.685 0 0.08 0.685 0 0.1 0.685 0 0 0.69 0 0.02 0.69 0 0.04 0.69 0 0.06 0.69 0 0.08 0.69 0 0.1 
[...]
			<PointData Scalars="VitesseX">
				<DataArray Name="VitesseX" type="Float32" format="ascii">
 0 3.14865e-14 -2.26828e-14 1.57991e-14 -1.48727e-14 0 0 2.81038e-14 -1.1495e-14 3.13533e-15 -1.07668e-15 0 0 2.18816e-14 7.96384e-15 -8.77868e-15 1.26929e-14 0 0 2.37094e-14 1.32068e-14 5.04523e-15 2.45538e-15 0 0 5.81065e-15 4.23015e-14 3.65645e-15 -5.4993e-15 0 0 -4.09722e-15 6.18178e-14 -5.12141e-16 -6.81294e-15 0 0 4.85272e-14 -2.24476e-15 5.28873e-14 -3.27197e-14 0 0 7.00447e-14 -2.47581e-14 7.07807e-14 -4.00666e-14 0 0 5.73023e-14 -1.05161e-15 4.25491e-14 -1.84887e-14 0 0 2.34186e-14 5.17185e-14 -1.45457e-14 1.68444e-14 0 0 2.68707e-15 7.96047e-14 -5.68495e-14 5.03324e-14 0 0 3.93092e-14 2.4255e-14 -1.66019e-14 3.08784e-14 0 0 8.13039e-14 -3.13418e-14 4.11369e-14 -6.40148e-15 0 0 6.68547e-14 1.03031e-15 1.8073e-14 6.63823e-15 0 0 3.91109e-14 4.47273e-14 -9.66739e-15 1.84984e-14 0 0 7.26765e-14 -8.38522e-15 5.62977e-14 -3.00979e-14 0 0 4.5489e-14 3.9471e-14 9.31936e-15 -5.86011e-15 0 0 8.93759e-15 7.28952e-14 7.10892e-16 -5.84583e-16 0 0 1.21964e-14 7.10014e-14 -1.18704e-15 1.45371e-14 0 0 1.73752e-14 7.24106e-14 -1.80972e-14 3.2848e-14 0 0 6.32824e-14 -1.86006e-14 7.3976e-14 -3.01047e-14 0 0 8.3728e-14 -4.80424e-14 8.7231e-14 -2.62746e-14 0 0 1.63822e-14 6.25831e-14 -1.74004e-14 4.42547e-14 0 0 -3.09459e-14 1.50671e-13 -9.47805e-14 9.43817e-14 0 0 5.32799e-14 1.16978e-14 6.52483e-14 1.62721e-14 0 0 1.47909e-13 -1.32236e-13 2.13613e-13 -4.82494e-14 0 0 7.40047e-14 3.21642e-14 3.80479e-14 8.0773e-14 0 0 -3.60754e-14 2.12941e-13 -1.06396e-13 1.61753e-13 0 0 4.40284e-14 5.81409e-14 5.09537e-14 8.73196e-14 0 0 1.39433e-13 -9.7154e-14 1.94453e-13 1.65918e-14 0 0 1.06851e-13 -2.83518e-14 1.34208e-13 2.54674e-14 0 0 5.12366e-14 5.98102e-14 5.89329e-14 9.56697e-15 0 0 3.29306e-14 1.03504e-13 1.56288e-14 -3.01643e-15 0 0 4.82295e-14 1.25339e-13 -5.84531e-14 6.21188e-14 0 0 1.00244e-13 1.90224e-14 2.47149e-14 4.01555e-14 0 0 1.22802e-13 -4.01879e-14 4.89658e-14 8.24427e-14 0 0 1.37983e-13 -3.96286e-14 5.52307e-15 1.07908e-13 0 0 6.92752e-14 3.98695e-14 -4.69621e-14 1.32399e-13 0 0 2.42254e-14 1.04951e-13 -1.09726e-13 2.09682e-13 0 0 8.10162e-14 4.58343e-14 -5.37542e-14 1.78109e-13 0 0 1.1663e-13 -1.73759e-14 6.80789e-14 7.49602e-14 0 0 7.00703e-14 7.31151e-14 6.98297e-15 7.80378e-14 0 0 6.80306e-14 1.46424e-13 -9.4159e-14 1.29023e-13 0 0 2.42375e-13 -5.5254e-14 8.62604e-14 1.1681e-14 0 0 3.58667e-13 -1.53264e-13 1.83898e-13 -7.70329e-14 0 0 2.85251e-13 3.95272e-14 -4.79663e-14 8.01139e-14 0 0 1.33465e-13 2.68275e-13 -2.75678e-13 2.52883e-13 0 0 1.27397e-13 2.40069e-13 -2.32742e-13 2.49562e-13 0 0 2.44259e-13 5.52779e-14 -8.50737e-14 1.98542e-13 0 0 4.42807e-13 -2.63405e-13 1.84517e-13 7.61385e-14 0 0 5.827e-13 -5.58444e-13 4.73867e-13 -7.74599e-14 0 0 3.11655e-13 -2.33259e-13 2.03553e-13 3.96216e-14 0 0 -3.92256e-14 2.86717e-13 -3.0974e-13 3.12046e-13 0 0 8.62614e-14 1.5108e-13 -2.73552e-13 3.61106e-13 0 0 3.76834e-13 -2.059e-13 -1.0618e-14 2.48048e-13 0 0 4.54003e-13 -2.25717e-13 -1.16076e-14 1.9329e-13 0 0 3.45517e-13 -2.23029e-15 -1.74436e-13 1.53274e-13 0 0 2.31167e-13 1.1555e-13 -2.08121e-13 1.01964e-13 0 0 2.36595e-13 5.95057e-15 -4.15417e-14 -2.83058e-14 0 0 3.09804e-13 -1.34489e-13 1.2796e-13 -1.64301e-13 0 0 2.96612e-13 -8.28683e-14 4.80693e-14 -7.92416e-14 0 0 1.29909e-13 1.52821e-13 -1.61318e-13 6.97484e-14 0 0 1.4758e-13 6.14792e-14 1.34328e-14 -5.92795e-14 0 0 2.25251e-13 -1.23239e-13 2.99878e-13 -2.78525e-13 0 0 8.83032e-14 6.7154e-14 1.44975e-13 -1.80363e-13 0 0 3.61393e-14 1.66716e-13 2.00541e-14 -8.81964e-14 0 0 4.84953e-14 2.04262e-13 -8.15678e-14 -6.78465e-15 0 0 1.7698e-13 1.05356e-13 -8.07074e-14 2.30496e-14 0 0 3.29121e-13 -1.45016e-13 2.0345e-13 -1.8564e-13 0 0 2.32236e-13 1.34989e-14 6.53261e-14 -1.50658e-13 0 0 1.57706e-13 2.10453e-13 -1.66214e-13 3.31067e-14 0 0 2.87578e-13 3.85022e-14 -4.53177e-14 9.92155e-14 0 0 5.11372e-13 -2.32661e-13 1.17203e-13 1.348e-13 0 0 5.6088e-13 -2.35787e-13 1.77717e-13 1.04358e-13 0 0 4.39055e-13 6.41034e-14 -1.64011e-14 1.79525e-13 0 0 3.31049e-13 2.93329e-13 -2.0799e-13 3.14567e-13 0 0 4.05853e-13 1.96203e-14 2.15556e-13 5.40162e-14 0 0 6.25445e-13 -3.37371e-13 5.89639e-13 -1.60569e-13 0 0 6.18826e-13 -1.30244e-13 2.09639e-13 1.6447e-13 0 0 3.55628e-13 2.47478e-13 -5.38973e-16 3.11175e-13 0 0 2.76545e-13 2.2793e-13 3.51751e-13 8.11389e-15 0 0 3.5982e-13 2.91213e-13 1.63005e-13 1.03002e-13 0 0 3.58051e-13 5.61148e-13 -4.53943e-13 6.82009e-13 0 0 4.69478e-13 1.51927e-13 1.08116e-13 4.65796e-13 0 0 4.05317e-13 -4.20214e-13 1.19961e-12 -2.85156e-13 0 0 -2.1041e-13 2.95712e-13 7.57583e-13 -9.63335e-14 0 0 -3.11167e-13 9.98183e-13 -9.73618e-14 5.19577e-13 0 0 2.19091e-13 4.07753e-13 2.33366e-13 4.76868e-13 0 0 4.66288e-13 -1.1952e-13 8.5661e-13 9.54253e-15 0 0 5.36078e-13 -1.97379e-13 1.08643e-12 -2.41281e-13 0 0 2.98302e-13 1.59113e-13 6.2183e-13 -1.0296e-13 0 0 -3.33235e-13 9.12082e-13 9.67566e-14 -6.78181e-14 0 0 -3.84908e-13 9.53901e-13 -6.20129e-14 6.8975e-15 0 0 -1.97882e-13 6.92063e-13 1.43439e-15 1.35687e-13 0 0 3.27229e-13 5.24583e-14 3.32881e-13 1.30826e-13 0 0 6.52489e-13 -4.63493e-13 5.85297e-13 1.61943e-13 0 0 6.34735e-13 -5.28642e-13 5.73951e-13 2.55121e-13 0 0 3.78283e-13 -3.52309e-13 4.26381e-13 3.5224e-13 0 0 -5.10926e-14 8.02075e-14 1.24027e-13 4.48586e-13 0 0 -2.12772e-13 3.23914e-13 -3.06894e-13 5.807e-13 0 0 -1.68585e-13 3.31335e-13 -4.98753e-13 7.14863e-13 0 0 4.93974e-14 2.19056e-13 -4.94084e-13 7.12316e-13 0 0 2.90543e-13 -3.43816e-14 -4.06728e-13 6.79457e-13 0 0 3.74556e-13 -2.59211e-13 -2.08529e-13 5.91938e-13 0 0 3.64735e-13 -3.39261e-13 5.72544e-14 4.351e-13 0 0 2.75171e-13 -3.32329e-13 1.90012e-13 3.04887e-13 0 0 1.40459e-13 -2.5364e-13 2.31859e-13 2.32706e-13 0 0 5.05729e-14 -1.25439e-13 2.54329e-13 1.70365e-13 0 0 1.0275e-14 -4.45714e-14 2.63866e-13 1.01952e-13 0 0 6.98205e-15 6.82793e-16 2.55881e-13 -5.71028e-15 0 0 2.56331e-14 2.85338e-14 2.25632e-13 -8.77053e-14 0 0 7.03121e-14 4.37868e-14 1.79373e-13 -1.37487e-13 0 0 9.38961e-14 5.02019e-14 1.17082e-13 -1.46867e-13 0 0 9.20587e-14 5.41321e-14 6.25246e-14 -1.53159e-13 0 0 7.87571e-14 4.16857e-14 2.09609e-14 -1.22568e-13 0 0 4.90996e-14 6.98616e-14 -7.2815e-14 -1.02411e-14 0 0 4.93346e-14 1.13637e-13 -1.76483e-13 2.51389e-14 0 0 5.99961e-14 1.0301e-13 -1.97909e-13 1.70628e-14 0 0 3.57447e-14 1.00527e-13 -1.86321e-13 2.78102e-14 0 0 4.61804e-14 1.65113e-14 -3.12386e-14 -3.30113e-14 0 0 8.93144e-14 -6.70208e-14 1.12883e-13 -8.11603e-14 0 0 7.78376e-14 -3.91039e-15 6.91169e-14 -9.06734e-15 0 0 9.30392e-14 -4.27397e-15 9.65293e-14 -4.06208e-15 0 0 1.06404e-13 4.32478e-14 1.03823e-13 8.36198e-15 0 0 9.83958e-14 1.01838e-13 1.64886e-13 -1.20533e-14 0 0 1.29056e-13 1.27405e-13 1.21605e-13 3.7416e-14 0 0 2.61183e-13 4.20484e-14 1.27507e-13 8.45462e-14 0 0 4.27615e-13 -2.06366e-13 3.89561e-13 -5.94259e-14 0 0 2.58339e-13 9.97826e-14 4.80223e-14 1.56268e-13 0 0 1.61236e-13 2.60739e-13 -5.53063e-14 1.61183e-13 0 0 1.98322e-13 1.82071e-13 5.0147e-14 2.04447e-14 0 0 2.60925e-13 4.44999e-14 1.45036e-13 -3.75454e-14 0 0 3.90544e-13 -1.84464e-13 3.41491e-13 -1.06527e-13 0 0 1.99728e-13 8.19751e-14 6.901e-14 1.25805e-13 0 0 1.58878e-13 9.96182e-14 9.01076e-14 1.30714e-13 0 0 1.26383e-13 1.86841e-13 3.29589e-15 1.97113e-13 0 0 1.50578e-13 1.37808e-13 9.71363e-14 1.73556e-13 0 0 4.01386e-13 -2.65583e-13 6.11201e-13 -1.58954e-13 0 0 1.38857e-13 1.69356e-13 2.4783e-13 1.33422e-13 0 0 6.23333e-14 2.99545e-13 1.54259e-13 2.59391e-13 0 0 1.7041e-13 1.8683e-13 2.6272e-13 2.70235e-13 0 0 4.05666e-14 4.59186e-13 -4.11643e-15 4.55901e-13 0 0 4.80152e-13 -1.4223e-13 5.40661e-13 6.80476e-14 0 0 6.18798e-13 -2.64348e-13 6.16704e-13 3.3593e-14 0 0 1.69466e-13 4.27872e-13 4.42785e-16 4.43601e-13 0 0 1.4348e-13 4.05893e-13 1.09608e-13 3.1942e-13 0 0 1.754e-13 3.92738e-13 8.96066e-14 2.43098e-13 0 0 4.74663e-13 -1.61384e-13 6.76315e-13 -1.65587e-13 0 0 5.9328e-13 -3.35876e-13 8.43563e-13 -2.79432e-13 0 0 2.30131e-14 7.6696e-13 -3.62216e-13 4.67921e-13 0 0 3.23691e-13 4.56227e-13 -6.62038e-14 1.82645e-13 0 0 5.75438e-13 1.32774e-13 2.08361e-13 1.68984e-14 0 0 5.18679e-13 1.00317e-13 2.28451e-13 1.10769e-13 0 0 4.26405e-13 8.78118e-14 2.89042e-13 1.14417e-14 0 0 8.94408e-14 4.52686e-13 -1.34367e-14 7.6643e-14 0 0 1.17566e-14 3.92746e-13 6.81478e-14 3.89705e-14 0 0 2.12557e-13 1.85016e-14 3.42443e-13 -7.1946e-14 0 0 6.2419e-13 -6.64948e-13 8.05179e-13 -1.00642e-13 0 0 2.74596e-13 -2.22836e-13 3.87724e-13 2.96095e-13 0 0 -1.64143e-13 3.94327e-13 5.143e-14 2.65487e-13 0 0 -3.21264e-13 5.83236e-13 -4.0518e-14 3.90857e-13 0 0 1.92095e-13 -3.53087e-13 6.43872e-13 3.8657e-13 0 0 5.59091e-13 -1.10586e-12 1.2792e-12 8.75075e-15 0 0 -1.13004e-13 -1.02415e-13 2.71402e-13 4.61465e-13 0 0 -4.14724e-13 4.9311e-13 -5.54822e-13 9.28015e-13 0 0 -1.52991e-13 1.49475e-13 -2.48088e-13 8.37874e-13 0 0 1.1841e-13 -3.51623e-13 4.84075e-13 5.29712e-13 0 0 6.89394e-14 -4.40714e-13 8.84844e-13 1.43269e-13 0 0 -2.27879e-13 -3.41153e-14 6.43372e-13 7.53031e-14 0 0 2.89096e-14 -2.18798e-13 6.87177e-13 -1.26099e-13 0 0 1.83491e-13 -2.70788e-13 4.50871e-13 6.33245e-14 0 0 -6.62748e-14 6.31335e-14 -3.43095e-14 4.45928e-13 0 0 1.83095e-13 -5.11788e-13 6.18503e-13 3.93684e-14 0 0 4.91287e-15 -2.78794e-13 4.49592e-13 2.14658e-13 0 0 5.76191e-14 -3.25671e-13 4.191e-13 1.97343e-13 0 0 1.76394e-13 -5.22684e-13 6.30228e-13 -1.3194e-13 0 0 -2.38394e-13 1.68615e-13 -1.26433e-14 1.03408e-13 0 0 -3.05379e-14 -8.91816e-14 1.96029e-13 -8.00164e-14 0 0 -1.41753e-14 -1.15527e-13 2.75492e-13 -2.57001e-13 0 0 1.90117e-13 -4.1878e-13 4.61339e-13 -4.01417e-13 0 0 3.2112e-13 -5.28108e-13 4.05763e-13 -2.08666e-13 0 0 -2.28833e-13 4.02798e-13 -4.38333e-13 3.67262e-13 0 0 -1.33658e-13 3.22606e-13 -3.11866e-13 2.91591e-13 0 0 -3.93066e-15 1.51176e-13 -2.08915e-13 2.32152e-13 0 0 1.65497e-13 -1.36088e-13 -2.81768e-14 2.13349e-13 0 0 1.03925e-13 -1.30082e-13 1.26755e-14 2.19608e-13 0 0 -4.83719e-13 5.55408e-13 -2.23136e-13 1.30022e-13 0 0 -1.54099e-13 3.86803e-14 4.93137e-13 -4.65634e-13 0 0 2.25475e-13 -7.72122e-14 2.10733e-13 -1.35186e-13 0 0 5.38289e-13 -2.97293e-13 1.29612e-13 6.94789e-14 0 0 4.27658e-13 -2.16127e-13 1.06251e-13 8.85831e-14 0 0 -2.34907e-13 7.91348e-13 -7.56664e-13 5.69357e-13 0 0 4.18496e-13 -2.78748e-13 3.16795e-13 -9.3677e-15 0 0 1.0469e-12 -1.14337e-12 9.64847e-13 -1.72351e-13 0 0 3.77806e-13 -4.58743e-14 -2.11373e-13 5.36535e-13 0 0 -3.28055e-13 7.80858e-13 -7.08627e-13 6.37216e-13 0 0 -2.03522e-13 5.93752e-13 -5.73141e-13 6.1856e-13 0 0 9.93483e-13 -1.18043e-12 1.01166e-12 -1.9744e-13 0 0 1.10996e-12 -1.19431e-12 1.06165e-12 -2.12847e-13 0 0 -1.87044e-13 9.76985e-13 -8.25131e-13 6.85447e-13 0 0 -7.33046e-13 1.74217e-12 -1.26129e-12 6.89247e-13 0
				</DataArray>
				<DataArray Name="VitesseY" type="Float32" format="ascii">