<?xml version="1.0"?>
<VTKFile type="PolyData">
	<PolyData>
		<Piece NumberOfPoints="1206" NumberOfPolys="1000">
			<Points>
				<DataArray type="Float32" NumberOfComponents="3" format="ascii">
 0 0 0 0.02 0 0 0.04 0 0 0.06 0 0 0.08 0 0 0.1 0 0 0 0.005 0 0.02 0.005 0 0.04 0.005 0 0.06 0.005 0 0.08 0.005 0 0.1 0.005 0 0 0.01 0 0.02 0.01 0 0.04 0.01 0 0.06 0.01 0 0.08 0.01 0 0.1 0.01 0 0 0.015 0 0.02 0.015 0 0.04 0.015 0 0.06 0.015 0 0.08 0.015 0 0.1 0.015 0 0 0.02 0 0.02 0.02 0 0.04 0.02 0 0.06 0.02 0 0.08 0.02 0 0.1 0.02 0 0 0.025 0 0.02 0.025 0 0.04 0.025 0 0.06 0.025 0 0.08 0.025 0 0.1 0.025 0 0 0.03 0 0.02 0.03 0 0.04 0.03 0 0.06 0.03 0 0.08 0.03 0 0.1 0.03 0 0 0.035 0 0.02 0.035 0 0.04 0.035 0 0.06 0.035 0 0.08 0.035 0 0.1 0.035 0 0 0.04 0 0.02 0.04 0 0.04 0.04 0 0.06 0.04 0 0.08 0.04 0 0.1 0.04 0 0 0.045 0 0.02 0.045 0 0.04 0.045 0 0.06 0.045 0 0.08 0.045 0 0.1 0.045 0 0 0.05 0 0.02 0.05 0 0.04 0.05 0 0.06 0.05 0 0.08 0.05 0 0.1 0.05 0 0 0.055 0 0.02 0.055 0 0.04 0.055 0 0.06 0.055 0 0.08 0.055 0 0.1 0.055 0 0 0.06 0 0.02 0.06 0 0.04 0.06 0 0.06 0.06 0 0.08 0.06 0 0.1 0.06 0 0 0.065 0 0.02 0.065 0 0.04 0.065 0 0.06 0.065 0 0.08 0.065 0 0.1 0.065 0 0 0.07 0 0.02 0.07 0 0.04 0.07 0 0.06 0.07 0 0.08 0.07 0 0.1 0.07 0 0 0.075 0 0.02 0.075 0 0.04 0.075 0 0.06 0.075 0 0.08 0.075 0 0.1 0.075 0 0 0.08 0 0.02 0.08 0 0.04 0.08 0 0.06 0.08 0 0.08 0.08 0 0.1 0.08 0 0 0.085 0 0.02 0.085 0 0.04 0.085 0 0.06 0.085 0 0.08 0.085 0 0.1 0.085 0 0 0.09 0 0.02 0.09 0 0.04 0.09 0 0.06 0.09 0 0.08 0.09 0 0.1 0.09 0 0 0.095 0 0.02 0.095 0 0.04 0.095 0 0.06 0.095 0 0.08 0.095 0 0.1 0.095 0 0 0.1 0 0.02 0.1 0 0.04 0.1 0 0.06 0.1 0 0.08 0.1 0 0.1 0.1 0 0 0.105 0 0.02 0.105 0 0.04 0.105 0 0.06 0.105 0 0.08 0.105 0 0.1 0.105 0 0 0.11 0 0.02 0.11 0 0.04 0.11 0 0.06 0.11 0 0.08 0.11 0 0.1 0.11 0 0 0.115 0 0.02 0.115 0 0.04 0.115 0 0.06 0.115 0 0.08 0.115 0 0.1 0.115 0 0 0.12 0 0.02 0.12 0 0.04 0.12 0 0.06 0.12 0 0.08 0.12 0 0.1 0.12 0 0 0.125 0 0.02 0.125 0 0.04 0.125 0 0.06 0.125 0 0.08 0.125 0 0.1 0.125 0 0 0.13 0 0.02 0.13 0 0.04 0.13 0 0.06 0.13 0 0.08 0.13 0 0.1 0.13 0 0 0.135 0 0.02 0.135 0 0.04 0.135 0 0.06 0.135 0 0.08 0.135 0 0.1 0.135 0 0 0.14 0 0.02 0.14 0 0.04 0.14 0 0.06 0.14 0 0.08 0.14 0 0.1 0.14 0 0 0.145 0 0.02 0.145 0 0.04 0.145 0 0.06 0.145 0 0.08 0.145 0 0.1 0.145 0 0 0.15 0 0.02 0.15 0 0.04 0.15 0 0.06 0.15 0 0.08 0.15 0 0.1 0.15 0 0 0.155 0 0.02 0.155 0 0.04 0.155 0 0.06 0.155 0 0.08 0.155 0 0.1 0.155 0 0 0.16 0 0.02 0.16 0 0.04 0.16 0 0.06 0.16 0 0.08 0.16 0 0.1 0.16 0 0 0.165 0 0.02 0.165 0 0.04 0.165 0 0.06 0.165 0 0.08 0.165 0 0.1 0.165 0 0 0.17 0 0.02 0.17 0 0.04 0.17 0 0.06 0.17 0 0.08 0.17 0 0.1 0.17 0 0 0.175 0 0.02 0.175 0 0.04 0.175 0 0.06 0.175 0 0.08 0.175 0 0.1 0.175 0 0 0.18 0 0.02 0.18 0 0.04 0.18 0 0.06 0.18 0 0.08 0.18 0 0.1 0.18 0 0 0.185 0 0.02 0.185 0 0.04 0.185 0 0.06 0.185 0 0.08 0.185 0 0.1 0.185 0 0 0.19 0 0.02 0.19 0 0.04 0.19 0 0.06 0.19 0 0.08 0.19 0 0.1 0.19 0 0 0.195 0 0.02 0.195 0 0.04 0.195 0 0.06 0.195 0 0.08 0.195 0 0.1 0.195 0 0 0.2 0 0.02 0.2 0 0.04 0.2 0 0.06 0.2 0 0.08 0.2 0 0.1 0.2 0 0 0.205 0 0.02 0.205 0 0.04 0.205 0 0.06 0.205 0 0.08 0.205 0 0.1 0.205 0 0 0.21 0 0.02 0.21 0 0.04 0.21 0 0.06 0.21 0 0.08 0.21 0 0.1 0.21 0 0 0.215 0 0.02 0.215 0 0.04 0.215 0 0.06 0.215 0 0.08 0.215 0 0.1 0.215 0 0 0.22 0 0.02 0.22 0 0.04 0.22 0 0.06 0.22 0 0.08 0.22 0 0.1 0.22 0 0 0.225 0 0.02 0.225 0 0.04 0.225 0 0.06 0.225 0 0.08 0.225 0 0.1 0.225 0 0 0.23 0 0.02 0.23 0 0.04 0.23 0 0.06 0.23 0 0.08 0.23 0 0.1 0.23 0 0 0.235 0 0.02 0.235 0 0.04 0.235 0 0.06 0.235 0 0.08 0.235 0 0.1 0.235 0 0 0.24 0 0.02 0.24 0 0.04 0.24 0 0.06 0.24 0 0.08 0.24 0 0.1 0.24 0 0 0.245 0 0.02 0.245 0 0.04 0.245 0 0.06 0.245 0 0.08 0.245 0 0.1 0.245 0 0 0.25 0 0.02 0.25 0 0.04 0.25 0 0.06 0.25 0 0.08 0.25 0 0.1 0.25 0 0 0.255 0 0.02 0.255 0 0.04 0.255 0 0.06 0.255 0 0.08 0.255 0 0.1 0.255 0 0 0.26 0 0.02 0.26 0 0.04 0.26 0 0.06 0.26 0 0.08 0.26 0 0.1 0.26 0 0 0.265 0 0.02 0.265 0 0.04 0.265 0 0.06 0.265 0 0.08 0.265 0 0.1 0.265 0 0 0.27 0 0.02 0.27 0 0.04 0.27 0 0.06 0.27 0 0.08 0.27 0 0.1 0.27 0 0 0.275 0 0.02 0.275 0 0.04 0.275 0 0.06 0.275 0 0.08 0.275 0 0.1 0.275 0 0 0.28 0 0.02 0.28 0 0.04 0.28 0 0.06 0.28 0 0.08 0.28 0 0.1 0.28 0 0 0.285 0 0.02 0.285 0 0.04 0.285 0 0.06 0.285 0 0.08 0.285 0 0.1 0.285 0 0 0.29 0 0.02 0.29 0 0.04 0.29 0 0.06 0.29 0 0.08 0.29 0 0.1 0.29 0 0 0.295 0 0.02 0.295 0 0.04 0.295 0 0.06 0.295 0 0.08 0.295 0 0.1 0.295 0 0 0.3 0 0.02 0.3 0 0.04 0.3 0 0.06 0.3 0 0.08 0.3 0 0.1 0.3 0 0 0.305 0 0.02 0.305 0 0.04 0.305 0 0.06 0.305 0 0.08 0.305 0 0.1 0.305 0 0 0.31 0 0.02 0.31 0 0.04 0.31 0 0.06 0.31 0 0.08 0.31 0 0.1 0.31 0 0 0.315 0 0.02 0.315 0 0.04 0.315 0 0.06 0.315 0 0.08 0.315 0 0.1 0.315 0 0 0.32 0 0.02 0.32 0 0.04 0.32 0 0.06 0.32 0 0.08 0.32 0 0.1 0.32 0 0 0.325 0 0.02 0.325 0 0.04 0.325 0 0.06 0.325 0 0.08 0.325 0 0.1 0.325 0 0 0.33 0 0.02 0.33 0 0.04 0.33 0 0.06 0.33 0 0.08 0.33 0 0.1 0.33 0 0 0.335 0 0.02 0.335 0 0.04 0.335 0 0.06 0.335 0 0.08 0.335 0 0.1 0.335 0 0 0.34 0 0.02 0.34 0 0.04 0.34 0 0.06 0.34 0 0.08 0.34 0 0.1 0.34 0 0 0.345 0 0.02 0.345 0 0.04 0.345 0 0.06 0.345 0 0.08 0.345 0 0.1 0.345 0 0 0.35 0 0.02 0.35 0 0.04 0.35 0 0.06 0.35 0 0.08 0.35 0 0.1 0.35 0 0 0.355 0 0.02 0.355 0 0.04 0.355 0 0.06 0.355 0 0.08 0.355 0 0.1 0.355 0 0 0.36 0 0.02 0.36 0 0.04 0.36 0 0.06 0.36 0 0.08 0.36 0 0.1 0.36 0 0 0.365 0 0.02 0.365 0 0.04 0.365 0 0.06 0.365 0 0.08 0.365 0 0.1 0.365 0 0 0.37 0 0.02 0.37 0 0.04 0.37 0 0.06 0.37 0 0.08 0.37 0 0.1 0.37 0 0 0.375 0 0.02 0.375 0 0.04 0.375 0 0.06 0.375 0 0.08 0.375 0 0.1 0.375 0 0 0.38 0 0.02 0.38 0 0.04 0.38 0 0.06 0.38 0 0.08 0.38 0 0.1 0.38 0 0 0.385 0 0.02 0.385 0 0.04 0.385 0 0.06 0.385 0 0.08 0.385 0 0.1 0.385 0 0 0.39 0 0.02 0.39 0 0.04 0.39 0 0.06 0.39 0 0.08 0.39 0 0.1 0.39 0 0 0.395 0 0.02 0.395 0 0.04 0.395 0 0.06 0.395 0 0.08 0.395 0 0.1 0.395 0 0 0.4 0 0.02 0.4 0 0.04 0.4 0 0.06 0.4 0 0.08 0.4 0 0.1 0.4 0 0 0.405 0 0.02 0.405 0 0.04 0.405 0 0.06 0.405 0 0.08 0.405 0 0.1 0.405 0 0 0.41 0 0.02 0.41 0 0.04 0.41 0 0.06 0.41 0 0.08 0.41 0 0.1 0.41 0 0 0.415 0 0.02 0.415 0 0.04 0.415 0 0.06 0.415 0 0.08 0.415 0 0.1 0.415 0 0 0.42 0 0.02 0.42 0 0.04 0.42 0 0.06 0.42 0 0.08 0.42 0 0.1 0.42 0 0 0.425 0 0.02 0.425 0 0.04 0.425 0 0.06 0.425 0 0.08 0.425 0 0.1 0.425 0 0 0.43 0 0.02 0.43 0 0.04 0.43 0 0.06 0.43 0 0.08 0.43 0 0.1 0.43 0 0 0.435 0 0.02 0.435 0 0.04 0.435 0 0.06 0.435 0 0.08 0.435 0 0.1 0.435 0 0 0.44 0 0.02 0.44 0 0.04 0.44 0 0.06 0.44 0 0.08 0.44 0 0.1 0.44 0 0 0.445 0 0.02 0.445 0 0.04 0.445 0 0.06 0.445 0 0.08 0.445 0 0.1 0.445 0 0 0.45 0 0.02 0.45 0 0.04 0.45 0 0.06 0.45 0 0.08 0.45 0 0.1 0.45 0 0 0.455 0 0.02 0.455 0 0.04 0.455 0 0.06 0.455 0 0.08 0.455 0 0.1 0.455 0 0 0.46 0 0.02 0.46 0 0.04 0.46 0 0.06 0.46 0 0.08 0.46 0 0.1 0.46 0 0 0.465 0 0.02 0.465 0 0.04 0.465 0 0.06 0.465 0 0.08 0.465 0 0.1 0.465 0 0 0.47 0 0.02 0.47 0 0.04 0.47 0 0.06 0.47 0 0.08 0.47 0 0.1 0.47 0 0 0.475 0 0.02 0.475 0 0.04 0.475 0 0.06 0.475 0 0.08 0.475 0 0.1 0.475 0 0 0.48 0 0.02 0.48 0 0.04 0.48 0 0.06 0.48 0 0.08 0.48 0 0.1 0.48 0 0 0.485 0 0.02 0.485 0 0.04 0.485 0 0.06 0.485 0 0.08 0.485 0 0.1 0.485 0 0 0.49 0 0.02 0.49 0 0.04 0.49 0 0.06 0.49 0 0.08 0.49 0 0.1 0.49 0 0 0.495 0 0.02 0.495 0 0.04 0.495 0 0.06 0.495 0 0.08 0.495 0 0.1 0.495 0 0 0.5 0 0.02 0.5 0 0.04 0.5 0 0.06 0.5 0 0.08 0.5 0 0.1 0.5 0 0 0.505 0 0.02 0.505 0 0.04 0.505 0 0.06 0.505 0 0.08 0.505 0 0.1 0.505 0 0 0.51 0 0.02 0.51 0 0.04 0.51 0 0.06 0.51 0 0.08 0.51 0 0.1 0.51 0 0 0.515 0 0.02 0.515 0 0.04 0.515 0 0.06 0.515 0 0.08 0.515 0 0.1 0.515 0 0 0.52 0 0.02 0.52 0 0.04 0.52 0 0.06 0.52 0 0.08 0.52 0 0.1 0.52 0 0 0.525 0 0.02 0.525 0 0.04 0.525 0 0.06 0.525 0 0.08 0.525 0 0.1 0.525 0 0 0.53 0 0.02 0.53 0 0.04 0.53 0 0.06 0.53 0 0.08 0.53 0 0.1 0.53 0 0 0.535 0 0.02 0.535 0 0.04 0.535 0 0.06 0.535 0 0.08 0.535 0 0.1 0.535 0 0 0.54 0 0.02 0.54 0 0.04 0.54 0 0.06 0.54 0 0.08 0.54 0 0.1 0.54 0 0 0.545 0 0.02 0.545 0 0.04 0.545 0 0.06 0.545 0 0.08 0.545 0 0.1 0.545 0 0 0.55 0 0.02 0.55 0 0.04 0.55 0 0.06 0.55 0 0.08 0.55 0 0.1 0.55 0 0 0.555 0 0.02 0.555 0 0.04 0.555 0 0.06 0.555 0 0.08 0.555 0 0.1 0.555 0 0 0.56 0 0.02 0.56 0 0.04 0.56 0 0.06 0.56 0 0.08 0.56 0 0.1 0.56 0 0 0.565 0 0.02 0.565 0 0.04 0.565 0 0.06 0.565 0 0.08 0.565 0 0.1 0.565 0 0 0.57 0 0.02 0.57 0 0.04 0.57 0 0.06 0.57 0 0.08 0.57 0 0.1 0.57 0 0 0.575 0 0.02 0.575 0 0.04 0.575 0 0.06 0.575 0 0.08 0.575 0 0.1 0.575 0 0 0.58 0 0.02 0.58 0 0.04 0.58 0 0.06 0.58 0 0.08 0.58 0 0.1 0.58 0 0 0.585 0 0.02 0.585 0 0.04 0.585 0 0.06 0.585 0 0.08 0.585 0 0.1 0.585 0 0 0.59 0 0.02 0.59 0 0.04 0.59 0 0.06 0.59 0 0.08 0.59 0 0.1 0.59 0 0 0.595 0 0.02 0.595 0 0.04 0.595 0 0.06 0.595 0 0.08 0.595 0 0.1 0.595 0 0 0.6 0 0.02 0.6 0 0.04 0.6 0 0.06 0.6 0 0.08 0.6 0 0.1 0.6 0 0 0.605 0 0.02 0.605 0 0.04 0.605 0 0.06 0.605 0 0.08 0.605 0 0.1 0.605 0 0 0.61 0 0.02 0.61 0 0.04 0.61 0 0.06 0.61 0 0.08 0.61 0 0.1 0.61 0 0 0.615 0 0.02 0.615 0 0.04 0.615 0 0.06 0.615 0 0.08 0.615 0 0.1 0.615 0 0 0.62 0 0.02 0.62 0 0.04 0.62 0 0.06 0.62 0 0.08 0.62 0 0.1 0.62 0 0 0.625 0 0.02 0.625 0 0.04 0.625 0 0.06 0.625 0 0.08 0.625 0 0.1 0.625 0 0 0.63 0 0.02 0.63 0 0.04 0.63 0 0.06 0.63 0 0.08 0.63 0 0.1 0.63 0 0 0.635 0 0.02 0.635 0 0.04 0.635 0 0.06 0.635 0 0.08 0.635 0 0.1 0.635 0 0 0.64 0 0.02 0.64 0 0.04 0.64 0 0.06 0.64 0 0.08 0.64 0 0.1 0.64 0 0 0.645 0 0.02 0.645 0 0.04 0.645 0 0.06 0.645 0 0.08 0.645 0 0.1 0.645 0 0 0.65 0 0.02 0.65 0 0.04 0.65 0 0.06 0.65 0 0.08 0.65 0 0.1 0.65 0 0 0.655 0 0.02 0.655 0 0.04 0.655 0 0.06 0.655 0 0.08 0.655 0 0.1 0.655 0 0 0.66 0 0.02 0.66 0 0.04 0.66 0 0.06 0.66 0 0.08 0.66 0 0.1 0.66 0 0 0.665 0 0.02 0.665 0 0.04 0.665 0 0.06 0.665 0 0.08 0.665 0 0.1 0.665 0 0 0.67 0 0.02 0.67 0 0.04 0.67 0 0.06 0.67 0 0.08 0.67 0 0.1 0.67 0 0 0.675 0 0.02 0.675 0 0.04 0.675 0 0.06 0.675 0 0.08 0.675 0 0.1 0.675 0 0 0.68 0 0.02 0.68 0 0.04 0.68 0 0.06 0.68 0 0.08 0.68 0 0.1 0.68 0 0 0.685 0 0.02 0.685 0 0.04 0.685 0 0.06 0.685 0 0.08 0.685 0 0.1 0.685 0 0 0.69 0 0.02 0.69 0 0.04 0.69 0 0.06 0.69 0 0.08 0.69 0 0.1 
[...]
			<PointData Scalars="VitesseX">
				<DataArray Name="VitesseX" type="Float32" format="ascii">
 0 -1.42743e-15 -8.76768e-15 5.99972e-15 -8.52876e-15 0 0 -1.25549e-16 -1.05077e-14 6.90038e-15 -7.8371e-15 0 0 -1.13863e-15 -4.18854e-15 -3.61271e-15 9.74599e-16 0 0 5.13132e-15 -8.63643e-15 -9.43676e-16 -3.73823e-15 0 0 7.49937e-15 -9.51168e-15 -4.80719e-15 -3.82256e-15 0 0 -5.64981e-15 1.53829e-14 -3.99144e-14 1.66837e-14 0 0 -9.22947e-15 1.52157e-14 -4.02427e-14 1.02336e-14 0 0 1.39669e-15 -1.07628e-14 -1.33037e-14 -1.16078e-14 0 0 1.08961e-15 -1.13536e-14 -1.48344e-14 -1.38854e-14 0 0 -9.73356e-15 5.14944e-15 -3.66063e-14 -7.27789e-15 0 0 -7.58342e-15 -6.69869e-15 -2.38558e-14 -2.81168e-14 0 0 -4.03743e-15 -2.08113e-14 -6.68376e-15 -4.57047e-14 0 0 -3.04314e-15 -2.98789e-14 6.1437e-15 -5.21649e-14 0 0 -1.20621e-14 -1.53094e-14 -1.43235e-15 -5.02783e-14 0 0 -9.59802e-15 -1.03987e-14 -6.16187e-15 -4.48672e-14 0 0 -1.36019e-15 -2.89124e-14 1.30071e-14 -5.0001e-14 0 0 -3.17894e-14 8.64509e-15 -3.17505e-14 -8.15386e-15 0 0 -4.85943e-14 3.1033e-14 -7.93042e-14 6.01526e-14 0 0 -1.30521e-15 -4.4961e-14 -2.83089e-14 4.59991e-14 0 0 8.41323e-15 -6.87581e-14 -1.79142e-14 3.37943e-14 0 0 -3.2891e-14 -1.00347e-14 -6.33807e-14 4.52387e-14 0 0 -3.54285e-14 -7.94494e-15 -4.46177e-14 1.64659e-14 0 0 -3.35929e-15 -4.75808e-14 -7.37559e-15 -4.5219e-15 0 0 -2.88071e-15 -2.3368e-14 -2.61603e-14 -1.2648e-14 0 0 1.81771e-14 -5.2933e-14 2.72673e-14 -7.94554e-14 0 0 4.07771e-14 -1.1403e-13 1.16181e-13 -1.51383e-13 0 0 -5.64352e-14 1.05798e-14 3.81338e-15 -6.17113e-14 0 0 -1.0353e-13 7.22575e-14 -9.63472e-14 4.34847e-14 0 0 -3.09264e-14 -6.41033e-14 1.52252e-14 -8.32108e-15 0 0 -3.77845e-14 -7.88348e-14 3.66941e-14 -1.64285e-14 0 0 -7.02484e-14 -3.06407e-14 -2.1312e-14 1.04068e-14 0 0 -3.84664e-14 -9.32673e-14 4.22824e-14 -5.07937e-14 0 0 -2.78243e-14 -1.19845e-13 3.96322e-14 -3.06711e-14 0 0 -6.79455e-14 -4.75165e-14 -5.00222e-14 3.57299e-14 0 0 -8.14019e-14 -1.42976e-14 -7.15429e-14 5.45177e-14 0 0 -5.89231e-14 -3.47451e-14 -2.85649e-14 3.18998e-14 0 0 -2.56883e-14 -5.68424e-14 -3.71632e-16 1.69887e-14 0 0 1.56703e-14 -1.02973e-13 5.92805e-14 -5.35804e-14 0 0 -1.75209e-14 -4.29213e-14 3.1886e-14 -1.14707e-13 0 0 -5.49796e-14 2.67475e-14 -3.85672e-14 -1.07267e-13 0 0 3.79519e-14 -1.06323e-13 8.1612e-14 -1.9923e-13 0 0 6.82031e-14 -1.27038e-13 6.70805e-14 -1.71003e-13 0 0 2.64686e-14 -5.35947e-14 -2.66009e-14 -8.54472e-14 0 0 1.12192e-14 -5.07516e-14 -2.05673e-14 -7.97144e-14 0 0 -2.26912e-14 8.67074e-15 -6.49082e-14 -3.68014e-14 0 0 -5.02103e-14 8.65129e-14 -1.5554e-13 2.89951e-14 0 0 -2.16686e-14 3.59768e-14 -1.10715e-13 1.12729e-15 0 0 3.43945e-14 -4.73591e-14 -3.91877e-14 -2.86876e-14 0 0 -4.41033e-14 7.17901e-14 -1.60227e-13 4.17082e-14 0 0 -1.3011e-13 1.67988e-13 -2.16743e-13 5.67353e-14 0 0 -1.32922e-13 1.40555e-13 -1.27649e-13 -4.09065e-15 0 0 -1.06514e-13 1.10328e-13 -4.86398e-14 -4.66117e-14 0 0 -6.21526e-14 2.77717e-14 3.80448e-14 -5.91981e-14 0 0 -1.00535e-13 4.19453e-14 -2.41361e-14 2.08754e-14 0 0 -7.97957e-14 1.90712e-14 -4.90709e-14 3.94636e-14 0 0 -2.00639e-14 -1.27244e-14 -5.10259e-14 2.61612e-14 0 0 -7.4592e-15 4.59805e-14 -1.29347e-13 8.22788e-14 0 0 -2.00032e-14 8.62996e-14 -1.17724e-13 4.87761e-15 0 0 -7.7419e-14 1.27559e-13 -1.26437e-13 -1.00074e-13 0 0 -3.75278e-14 4.82713e-14 -1.02102e-13 -7.50626e-14 0 0 8.82136e-14 -9.29484e-14 -3.6671e-14 -2.92129e-15 0 0 3.40067e-14 -1.04338e-14 -1.08954e-13 -1.38282e-14 0 0 -1.30883e-14 1.02775e-13 -2.26135e-13 -5.64038e-14 0 0 9.83046e-14 3.08682e-14 -2.91972e-13 -3.17499e-14 0 0 1.4625e-13 1.38502e-14 -3.85255e-13 4.05514e-15 0 0 2.18412e-13 -8.22838e-14 -2.65314e-13 -1.0571e-13 0 0 2.18341e-13 -4.52823e-14 -1.97583e-13 -1.86422e-13 0 0 1.4342e-13 6.87915e-14 -2.66137e-13 -1.12168e-13 0 0 5.36262e-14 -8.14923e-16 -1.60428e-13 -1.23781e-13 0 0 -1.16882e-13 6.2689e-14 -1.66647e-13 -1.15615e-13 0 0 -1.71516e-13 1.83664e-13 -2.97429e-13 -5.69384e-14 0 0 -7.41301e-14 1.5086e-13 -3.10703e-13 -1.30385e-13 0 0 2.32776e-14 2.7999e-14 -2.10644e-13 -2.74978e-13 0 0 6.19026e-14 -8.07436e-14 -9.38556e-14 -4.39912e-13 0 0 3.03886e-16 -6.41169e-14 -6.16153e-14 -5.03074e-13 0 0 -9.27687e-14 1.32884e-14 -1.19392e-13 -3.86193e-13 0 0 -1.82165e-13 1.02696e-13 -2.6538e-13 -1.88446e-13 0 0 -2.09741e-13 7.66795e-14 -2.84869e-13 -1.05083e-14 0 0 -2.02817e-13 -4.66257e-14 -2.01193e-13 6.46017e-14 0 0 -2.43205e-13 -6.26237e-14 -1.46058e-13 3.98735e-14 0 0 -3.75221e-13 2.62939e-14 -1.58978e-13 2.20315e-14 0 0 -5.06209e-13 1.03855e-13 -1.65022e-13 -5.64585e-15 0 0 -4.75312e-13 5.12777e-14 -1.05074e-13 -7.98378e-14 0 0 -3.91041e-13 -8.41231e-14 5.01809e-14 -2.56676e-13 0 0 -2.91615e-13 -2.51131e-13 1.07727e-13 -3.23752e-13 0 0 -2.2465e-13 -3.03637e-13 7.02886e-14 -2.89816e-13 0 0 -1.84782e-13 -2.96579e-13 -2.02525e-14 -1.98402e-13 0 0 -1.70123e-13 -2.74247e-13 -1.54063e-13 -6.08754e-14 0 0 -1.55153e-13 -2.38481e-13 -3.11056e-13 8.07419e-14 0 0 -1.45899e-13 -2.47873e-13 -3.15807e-13 8.19255e-14 0 0 -1.5517e-13 -2.59702e-13 -2.91232e-13 3.45224e-14 0 0 -1.96804e-13 -2.49494e-13 -2.47604e-13 -8.0292e-14 0 0 -2.58593e-13 -2.26359e-13 -1.8631e-13 -2.40764e-13 0 0 -3.08748e-13 -1.96221e-13 -1.91604e-13 -3.68822e-13 0 0 -3.22468e-13 -1.63129e-13 -2.22749e-13 -4.0219e-13 0 0 -3.11092e-13 -1.42794e-13 -2.62186e-13 -3.91368e-13 0 0 -3.01485e-13 -1.36965e-13 -3.02878e-13 -3.42726e-13 0 0 -3.19702e-13 -1.38725e-13 -3.40157e-13 -2.64404e-13 0 0 -3.84151e-13 -1.30744e-13 -3.7455e-13 -1.85854e-13 0 0 -4.53558e-13 -1.24003e-13 -3.93255e-13 -1.09722e-13 0 0 -4.76398e-13 -1.39104e-13 -3.83121e-13 -7.67227e-14 0 0 -4.78348e-13 -1.75718e-13 -3.45366e-13 -6.38007e-14 0 0 -4.67246e-13 -2.25987e-13 -2.8827e-13 -6.26662e-14 0 0 -4.2698e-13 -2.86445e-13 -2.30637e-13 -6.98745e-14 0 0 -3.51046e-13 -3.43912e-13 -1.90892e-13 -8.12649e-14 0 0 -2.69576e-13 -3.72272e-13 -1.71648e-13 -7.7654e-14 0 0 -2.35341e-13 -3.74045e-13 -1.75467e-13 -4.18384e-14 0 0 -2.23407e-13 -3.62183e-13 -2.11705e-13 4.23576e-14 0 0 -2.11653e-13 -3.32283e-13 -2.41632e-13 1.19708e-13 0 0 -1.92566e-13 -3.22473e-13 -2.03285e-13 1.12563e-13 0 0 -1.53718e-13 -3.17755e-13 -1.22977e-13 4.82178e-14 0 0 -1.13481e-13 -2.689e-13 -1.34985e-13 5.1342e-14 0 0 -6.83349e-14 -2.58979e-13 -1.30063e-13 1.09632e-13 0 0 -2.91313e-14 -2.84882e-13 -3.15503e-14 9.87061e-14 0 0 -1.04443e-14 -2.55756e-13 -7.86296e-15 9.50834e-14 0 0 -3.08585e-15 -1.80859e-13 -5.2031e-14 1.51695e-13 0 0 -9.11692e-16 -1.20686e-13 -3.40928e-14 1.79481e-13 0 0 1.0099e-14 -1.1387e-13 4.92713e-15 1.58989e-13 0 0 2.35289e-14 -1.11904e-13 1.2124e-14 1.72054e-13 0 0 4.61416e-14 -1.36279e-13 8.57038e-14 1.21211e-13 0 0 7.14112e-14 -1.61694e-13 1.57962e-13 8.89242e-14 0 0 7.4942e-14 -1.43525e-13 1.42058e-13 1.07967e-13 0 0 7.1578e-14 -1.25569e-13 1.17358e-13 1.33721e-13 0 0 6.88468e-14 -1.06994e-13 8.51886e-14 1.66402e-13 0 0 6.93607e-14 -8.17911e-14 2.88972e-14 2.23704e-13 0 0 6.71747e-14 -3.73298e-14 -7.44147e-14 3.04235e-13 0 0 5.51611e-14 3.70666e-14 -1.85922e-13 3.23816e-13 0 0 3.54245e-14 5.03195e-14 -2.00548e-13 2.97957e-13 0 0 1.80686e-14 2.4731e-14 -1.76434e-13 2.24056e-13 0 0 2.5245e-15 -7.57347e-15 -1.40365e-13 1.46197e-13 0 0 1.96155e-15 -5.01783e-14 -8.66406e-14 6.75466e-14 0 0 1.43524e-14 -1.40519e-13 3.17545e-15 -2.75201e-14 0 0 1.00125e-15 -1.6723e-13 2.04846e-14 -6.65119e-14 0 0 -3.22555e-14 -1.0596e-13 -7.35263e-14 -3.08196e-14 0 0 -5.00304e-14 -6.84028e-14 -1.28572e-13 -3.82166e-14 0 0 -3.54232e-14 -7.79542e-14 -1.64035e-13 -5.7057e-14 0 0 -3.8223e-14 -5.2463e-14 -2.67648e-13 -1.6756e-14 0 0 -5.59607e-14 -6.59717e-14 -2.59136e-13 1.52811e-14 0 0 -4.29408e-14 -1.09257e-13 -2.34394e-13 -1.84426e-14 0 0 -4.89304e-14 -1.14918e-13 -2.20586e-13 -1.1279e-13 0 0 -6.09329e-14 -1.26076e-13 -1.81597e-13 -1.77951e-13 0 0 -7.29792e-14 -1.58341e-13 -1.27386e-13 -1.25086e-13 0 0 -1.06637e-13 -1.70343e-13 -3.67401e-14 -1.928e-13 0 0 -1.39687e-13 -1.59355e-13 -4.40205e-14 -2.09714e-13 0 0 -1.46863e-13 -1.68368e-13 -7.7334e-14 -1.44197e-13 0 0 -1.33707e-13 -2.06071e-13 -7.74928e-14 -1.27602e-13 0 0 -1.38222e-13 -1.83285e-13 -1.49105e-13 -1.03615e-13 0 0 -1.51892e-13 -1.39115e-13 -2.37789e-13 -1.43078e-13 0 0 -1.15504e-13 -1.87866e-13 -2.66589e-13 -1.90551e-13 0 0 -8.13796e-14 -1.71813e-13 -3.72857e-13 -2.25978e-13 0 0 -9.74024e-14 -1.10946e-13 -4.0822e-13 -3.20682e-13 0 0 -8.54306e-14 -1.18484e-13 -3.03252e-13 -3.17549e-13 0 0 -2.72153e-14 -1.87102e-13 -8.471e-14 -6.86085e-14 0 0 -3.04641e-14 -2.07625e-13 -9.96624e-15 1.85727e-13 0 0 -1.09544e-13 -9.00935e-14 -7.29514e-14 2.81222e-13 0 0 -6.85906e-14 -1.58995e-13 1.92561e-14 1.98831e-13 0 0 -1.33081e-14 -1.64608e-13 -1.36345e-14 7.10175e-14 0 0 -2.63042e-14 -8.8252e-14 -2.08536e-13 2.44909e-13 0 0 -3.28194e-16 -2.13834e-13 -9.55536e-15 9.49979e-14 0 0 -5.37428e-14 -2.23243e-13 2.1251e-13 -1.55475e-13 0 0 -1.67453e-13 -1.23568e-15 -4.48641e-14 5.38893e-14 0 0 -2.26192e-13 1.24527e-13 -2.24547e-13 1.60747e-13 0 0 -1.88077e-13 1.62393e-15 -1.34076e-13 1.7557e-13 0 0 -9.46289e-14 -1.58906e-13 3.59617e-14 8.96735e-14 0 0 -7.99381e-14 -1.56518e-13 6.16091e-14 3.41623e-14 0 0 -9.26998e-14 -8.07166e-14 -2.95233e-14 1.01406e-13 0 0 -1.02506e-13 -8.17001e-14 1.79888e-14 1.36452e-13 0 0 -1.5348e-13 -2.18339e-14 3.04748e-14 1.38136e-13 0 0 -1.43969e-13 -4.13842e-14 1.62837e-13 7.44358e-15 0 0 -1.63241e-13 -5.69088e-14 2.4808e-13 4.71154e-15 0 0 -1.56951e-13 -3.30833e-14 2.04734e-13 6.87748e-14 0 0 -1.12838e-13 -2.96891e-14 1.10416e-13 2.24399e-13 0 0 -1.32815e-13 2.36315e-14 5.34001e-14 3.22398e-13 0 0 -1.10014e-13 -8.81534e-16 2.13771e-13 1.41942e-13 0 0 -6.42194e-14 -7.74134e-15 3.23584e-13 1.06275e-14 0 0 -1.13529e-13 1.8389e-13 1.54996e-13 5.15734e-14 0 0 -9.23093e-14 2.17131e-13 1.46055e-13 1.56542e-14 0 0 -2.62458e-14 1.57595e-13 2.43873e-13 -3.2646e-14 0 0 -1.07072e-13 3.15062e-13 1.62445e-13 -2.7947e-15 0 0 -9.15553e-14 2.77875e-13 2.82571e-13 -8.19667e-14 0 0 7.50407e-14 1.22368e-13 3.59704e-13 -1.23891e-13 0 0 -2.63615e-14 3.35044e-13 1.25925e-13 -4.51497e-14 0 0 -1.39586e-13 5.50289e-13 -5.3994e-14 -2.84855e-14 0 0 8.73879e-14 2.55667e-13 1.7613e-13 -1.55613e-13 0 0 2.03255e-13 1.87543e-14 2.8982e-13 -1.31624e-13 0 0 2.69404e-14 2.56142e-13 -8.11497e-14 1.51509e-13 0 0 1.93034e-14 2.51272e-13 -1.57896e-14 9.34347e-14 0 0 1.21628e-13 9.12647e-14 2.19694e-13 -1.17703e-13 0 0 9.84516e-14 1.81428e-13 1.87008e-13 -2.25373e-13 0 0 -3.76659e-14 4.22968e-13 3.18244e-14 -1.55359e-13 0 0 -8.96838e-15 2.76204e-13 2.22329e-13 -2.20094e-13 0 0 1.11581e-13 1.27758e-13 3.43151e-13 -3.7251e-13 0 0 2.97753e-14 3.47889e-13 6.97323e-15 -1.29691e-13 0 0 1.49983e-13 8.88349e-14 2.95975e-13 -2.47539e-13 0 0 2.62238e-13 -2.68693e-13 6.4931e-13 -3.78132e-13 0 0 2.77281e-14 -6.38227e-14 3.86326e-13 -1.28659e-13 0 0 -5.85935e-14 7.02418e-14 1.12068e-13 8.23235e-14 0 0 3.00636e-13 -4.05254e-13 3.74183e-13 -2.7158e-14 0 0 2.83022e-13 -4.03782e-13 2.66869e-13 1.4597e-13 0 0 2.47312e-13 -3.97445e-13 4.89271e-14 5.50633e-13 0 0 4.77667e-13 -6.98431e-13 1.77229e-13 6.12777e-13 0
				</DataArray>
				<DataArray Name="VitesseY" type="Float32" format="ascii">