<?xml version="1.0"?>
<VTKFile type="PolyData">
	<PolyData>
		<Piece NumberOfPoints="1206" NumberOfPolys="1000">
			<Points>
				<DataArray type="Float32" NumberOfComponents="3" format="ascii">
 0 0 0 0.02 0 0 0.04 0 0 0.06 0 0 0.08 0 0 0.1 0 0 0 0.005 0 0.02 0.005 0 0.04 0.005 0 0.06 0.005 0 0.08 0.005 0 0.1 0.005 0 0 0.01 0 0.02 0.01 0 0.04 0.01 0 0.06 0.01 0 0.08 0.01 0 0.1 0.01 0 0 0.015 0 0.02 0.015 0 0.04 0.015 0 0.06 0.015 0 0.08 0.015 0 0.1 0.015 0 0 0.02 0 0.02 0.02 0 0.04 0.02 0 0.06 0.02 0 0.08 0.02 0 0.1 0.02 0 0 0.025 0 0.02 0.025 0 0.04 0.025 0 0.06 0.025 0 0.08 0.025 0 0.1 0.025 0 0 0.03 0 0.02 0.03 0 0.04 0.03 0 0.06 0.03 0 0.08 0.03 0 0.1 0.03 0 0 0.035 0 0.02 0.035 0 0.04 0.035 0 0.06 0.035 0 0.08 0.035 0 0.1 0.035 0 0 0.04 0 0.02 0.04 0 0.04 0.04 0 0.06 0.04 0 0.08 0.04 0 0.1 0.04 0 0 0.045 0 0.02 0.045 0 0.04 0.045 0 0.06 0.045 0 0.08 0.045 0 0.1 0.045 0 0 0.05 0 0.02 0.05 0 0.04 0.05 0 0.06 0.05 0 0.08 0.05 0 0.1 0.05 0 0 0.055 0 0.02 0.055 0 0.04 0.055 0 0.06 0.055 0 0.08 0.055 0 0.1 0.055 0 0 0.06 0 0.02 0.06 0 0.04 0.06 0 0.06 0.06 0 0.08 0.06 0 0.1 0.06 0 0 0.065 0 0.02 0.065 0 0.04 0.065 0 0.06 0.065 0 0.08 0.065 0 0.1 0.065 0 0 0.07 0 0.02 0.07 0 0.04 0.07 0 0.06 0.07 0 0.08 0.07 0 0.1 0.07 0 0 0.075 0 0.02 0.075 0 0.04 0.075 0 0.06 0.075 0 0.08 0.075 0 0.1 0.075 0 0 0.08 0 0.02 0.08 0 0.04 0.08 0 0.06 0.08 0 0.08 0.08 0 0.1 0.08 0 0 0.085 0 0.02 0.085 0 0.04 0.085 0 0.06 0.085 0 0.08 0.085 0 0.1 0.085 0 0 0.09 0 0.02 0.09 0 0.04 0.09 0 0.06 0.09 0 0.08 0.09 0 0.1 0.09 0 0 0.095 0 0.02 0.095 0 0.04 0.095 0 0.06 0.095 0 0.08 0.095 0 0.1 0.095 0 0 0.1 0 0.02 0.1 0 0.04 0.1 0 0.06 0.1 0 0.08 0.1 0 0.1 0.1 0 0 0.105 0 0.02 0.105 0 0.04 0.105 0 0.06 0.105 0 0.08 0.105 0 0.1 0.105 0 0 0.11 0 0.02 0.11 0 0.04 0.11 0 0.06 0.11 0 0.08 0.11 0 0.1 0.11 0 0 0.115 0 0.02 0.115 0 0.04 0.115 0 0.06 0.115 0 0.08 0.115 0 0.1 0.115 0 0 0.12 0 0.02 0.12 0 0.04 0.12 0 0.06 0.12 0 0.08 0.12 0 0.1 0.12 0 0 0.125 0 0.02 0.125 0 0.04 0.125 0 0.06 0.125 0 0.08 0.125 0 0.1 0.125 0 0 0.13 0 0.02 0.13 0 0.04 0.13 0 0.06 0.13 0 0.08 0.13 0 0.1 0.13 0 0 0.135 0 0.02 0.135 0 0.04 0.135 0 0.06 0.135 0 0.08 0.135 0 0.1 0.135 0 0 0.14 0 0.02 0.14 0 0.04 0.14 0 0.06 0.14 0 0.08 0.14 0 0.1 0.14 0 0 0.145 0 0.02 0.145 0 0.04 0.145 0 0.06 0.145 0 0.08 0.145 0 0.1 0.145 0 0 0.15 0 0.02 0.15 0 0.04 0.15 0 0.06 0.15 0 0.08 0.15 0 0.1 0.15 0 0 0.155 0 0.02 0.155 0 0.04 0.155 0 0.06 0.155 0 0.08 0.155 0 0.1 0.155 0 0 0.16 0 0.02 0.16 0 0.04 0.16 0 0.06 0.16 0 0.08 0.16 0 0.1 0.16 0 0 0.165 0 0.02 0.165 0 0.04 0.165 0 0.06 0.165 0 0.08 0.165 0 0.1 0.165 0 0 0.17 0 0.02 0.17 0 0.04 0.17 0 0.06 0.17 0 0.08 0.17 0 0.1 0.17 0 0 0.175 0 0.02 0.175 0 0.04 0.175 0 0.06 0.175 0 0.08 0.175 0 0.1 0.175 0 0 0.18 0 0.02 0.18 0 0.04 0.18 0 0.06 0.18 0 0.08 0.18 0 0.1 0.18 0 0 0.185 0 0.02 0.185 0 0.04 0.185 0 0.06 0.185 0 0.08 0.185 0 0.1 0.185 0 0 0.19 0 0.02 0.19 0 0.04 0.19 0 0.06 0.19 0 0.08 0.19 0 0.1 0.19 0 0 0.195 0 0.02 0.195 0 0.04 0.195 0 0.06 0.195 0 0.08 0.195 0 0.1 0.195 0 0 0.2 0 0.02 0.2 0 0.04 0.2 0 0.06 0.2 0 0.08 0.2 0 0.1 0.2 0 0 0.205 0 0.02 0.205 0 0.04 0.205 0 0.06 0.205 0 0.08 0.205 0 0.1 0.205 0 0 0.21 0 0.02 0.21 0 0.04 0.21 0 0.06 0.21 0 0.08 0.21 0 0.1 0.21 0 0 0.215 0 0.02 0.215 0 0.04 0.215 0 0.06 0.215 0 0.08 0.215 0 0.1 0.215 0 0 0.22 0 0.02 0.22 0 0.04 0.22 0 0.06 0.22 0 0.08 0.22 0 0.1 0.22 0 0 0.225 0 0.02 0.225 0 0.04 0.225 0 0.06 0.225 0 0.08 0.225 0 0.1 0.225 0 0 0.23 0 0.02 0.23 0 0.04 0.23 0 0.06 0.23 0 0.08 0.23 0 0.1 0.23 0 0 0.235 0 0.02 0.235 0 0.04 0.235 0 0.06 0.235 0 0.08 0.235 0 0.1 0.235 0 0 0.24 0 0.02 0.24 0 0.04 0.24 0 0.06 0.24 0 0.08 0.24 0 0.1 0.24 0 0 0.245 0 0.02 0.245 0 0.04 0.245 0 0.06 0.245 0 0.08 0.245 0 0.1 0.245 0 0 0.25 0 0.02 0.25 0 0.04 0.25 0 0.06 0.25 0 0.08 0.25 0 0.1 0.25 0 0 0.255 0 0.02 0.255 0 0.04 0.255 0 0.06 0.255 0 0.08 0.255 0 0.1 0.255 0 0 0.26 0 0.02 0.26 0 0.04 0.26 0 0.06 0.26 0 0.08 0.26 0 0.1 0.26 0 0 0.265 0 0.02 0.265 0 0.04 0.265 0 0.06 0.265 0 0.08 0.265 0 0.1 0.265 0 0 0.27 0 0.02 0.27 0 0.04 0.27 0 0.06 0.27 0 0.08 0.27 0 0.1 0.27 0 0 0.275 0 0.02 0.275 0 0.04 0.275 0 0.06 0.275 0 0.08 0.275 0 0.1 0.275 0 0 0.28 0 0.02 0.28 0 0.04 0.28 0 0.06 0.28 0 0.08 0.28 0 0.1 0.28 0 0 0.285 0 0.02 0.285 0 0.04 0.285 0 0.06 0.285 0 0.08 0.285 0 0.1 0.285 0 0 0.29 0 0.02 0.29 0 0.04 0.29 0 0.06 0.29 0 0.08 0.29 0 0.1 0.29 0 0 0.295 0 0.02 0.295 0 0.04 0.295 0 0.06 0.295 0 0.08 0.295 0 0.1 0.295 0 0 0.3 0 0.02 0.3 0 0.04 0.3 0 0.06 0.3 0 0.08 0.3 0 0.1 0.3 0 0 0.305 0 0.02 0.305 0 0.04 0.305 0 0.06 0.305 0 0.08 0.305 0 0.1 0.305 0 0 0.31 0 0.02 0.31 0 0.04 0.31 0 0.06 0.31 0 0.08 0.31 0 0.1 0.31 0 0 0.315 0 0.02 0.315 0 0.04 0.315 0 0.06 0.315 0 0.08 0.315 0 0.1 0.315 0 0 0.32 0 0.02 0.32 0 0.04 0.32 0 0.06 0.32 0 0.08 0.32 0 0.1 0.32 0 0 0.325 0 0.02 0.325 0 0.04 0.325 0 0.06 0.325 0 0.08 0.325 0 0.1 0.325 0 0 0.33 0 0.02 0.33 0 0.04 0.33 0 0.06 0.33 0 0.08 0.33 0 0.1 0.33 0 0 0.335 0 0.02 0.335 0 0.04 0.335 0 0.06 0.335 0 0.08 0.335 0 0.1 0.335 0 0 0.34 0 0.02 0.34 0 0.04 0.34 0 0.06 0.34 0 0.08 0.34 0 0.1 0.34 0 0 0.345 0 0.02 0.345 0 0.04 0.345 0 0.06 0.345 0 0.08 0.345 0 0.1 0.345 0 0 0.35 0 0.02 0.35 0 0.04 0.35 0 0.06 0.35 0 0.08 0.35 0 0.1 0.35 0 0 0.355 0 0.02 0.355 0 0.04 0.355 0 0.06 0.355 0 0.08 0.355 0 0.1 0.355 0 0 0.36 0 0.02 0.36 0 0.04 0.36 0 0.06 0.36 0 0.08 0.36 0 0.1 0.36 0 0 0.365 0 0.02 0.365 0 0.04 0.365 0 0.06 0.365 0 0.08 0.365 0 0.1 0.365 0 0 0.37 0 0.02 0.37 0 0.04 0.37 0 0.06 0.37 0 0.08 0.37 0 0.1 0.37 0 0 0.375 0 0.02 0.375 0 0.04 0.375 0 0.06 0.375 0 0.08 0.375 0 0.1 0.375 0 0 0.38 0 0.02 0.38 0 0.04 0.38 0 0.06 0.38 0 0.08 0.38 0 0.1 0.38 0 0 0.385 0 0.02 0.385 0 0.04 0.385 0 0.06 0.385 0 0.08 0.385 0 0.1 0.385 0 0 0.39 0 0.02 0.39 0 0.04 0.39 0 0.06 0.39 0 0.08 0.39 0 0.1 0.39 0 0 0.395 0 0.02 0.395 0 0.04 0.395 0 0.06 0.395 0 0.08 0.395 0 0.1 0.395 0 0 0.4 0 0.02 0.4 0 0.04 0.4 0 0.06 0.4 0 0.08 0.4 0 0.1 0.4 0 0 0.405 0 0.02 0.405 0 0.04 0.405 0 0.06 0.405 0 0.08 0.405 0 0.1 0.405 0 0 0.41 0 0.02 0.41 0 0.04 0.41 0 0.06 0.41 0 0.08 0.41 0 0.1 0.41 0 0 0.415 0 0.02 0.415 0 0.04 0.415 0 0.06 0.415 0 0.08 0.415 0 0.1 0.415 0 0 0.42 0 0.02 0.42 0 0.04 0.42 0 0.06 0.42 0 0.08 0.42 0 0.1 0.42 0 0 0.425 0 0.02 0.425 0 0.04 0.425 0 0.06 0.425 0 0.08 0.425 0 0.1 0.425 0 0 0.43 0 0.02 0.43 0 0.04 0.43 0 0.06 0.43 0 0.08 0.43 0 0.1 0.43 0 0 0.435 0 0.02 0.435 0 0.04 0.435 0 0.06 0.435 0 0.08 0.435 0 0.1 0.435 0 0 0.44 0 0.02 0.44 0 0.04 0.44 0 0.06 0.44 0 0.08 0.44 0 0.1 0.44 0 0 0.445 0 0.02 0.445 0 0.04 0.445 0 0.06 0.445 0 0.08 0.445 0 0.1 0.445 0 0 0.45 0 0.02 0.45 0 0.04 0.45 0 0.06 0.45 0 0.08 0.45 0 0.1 0.45 0 0 0.455 0 0.02 0.455 0 0.04 0.455 0 0.06 0.455 0 0.08 0.455 0 0.1 0.455 0 0 0.46 0 0.02 0.46 0 0.04 0.46 0 0.06 0.46 0 0.08 0.46 0 0.1 0.46 0 0 0.465 0 0.02 0.465 0 0.04 0.465 0 0.06 0.465 0 0.08 0.465 0 0.1 0.465 0 0 0.47 0 0.02 0.47 0 0.04 0.47 0 0.06 0.47 0 0.08 0.47 0 0.1 0.47 0 0 0.475 0 0.02 0.475 0 0.04 0.475 0 0.06 0.475 0 0.08 0.475 0 0.1 0.475 0 0 0.48 0 0.02 0.48 0 0.04 0.48 0 0.06 0.48 0 0.08 0.48 0 0.1 0.48 0 0 0.485 0 0.02 0.485 0 0.04 0.485 0 0.06 0.485 0 0.08 0.485 0 0.1 0.485 0 0 0.49 0 0.02 0.49 0 0.04 0.49 0 0.06 0.49 0 0.08 0.49 0 0.1 0.49 0 0 0.495 0 0.02 0.495 0 0.04 0.495 0 0.06 0.495 0 0.08 0.495 0 0.1 0.495 0 0 0.5 0 0.02 0.5 0 0.04 0.5 0 0.06 0.5 0 0.08 0.5 0 0.1 0.5 0 0 0.505 0 0.02 0.505 0 0.04 0.505 0 0.06 0.505 0 0.08 0.505 0 0.1 0.505 0 0 0.51 0 0.02 0.51 0 0.04 0.51 0 0.06 0.51 0 0.08 0.51 0 0.1 0.51 0 0 0.515 0 0.02 0.515 0 0.04 0.515 0 0.06 0.515 0 0.08 0.515 0 0.1 0.515 0 0 0.52 0 0.02 0.52 0 0.04 0.52 0 0.06 0.52 0 0.08 0.52 0 0.1 0.52 0 0 0.525 0 0.02 0.525 0 0.04 0.525 0 0.06 0.525 0 0.08 0.525 0 0.1 0.525 0 0 0.53 0 0.02 0.53 0 0.04 0.53 0 0.06 0.53 0 0.08 0.53 0 0.1 0.53 0 0 0.535 0 0.02 0.535 0 0.04 0.535 0 0.06 0.535 0 0.08 0.535 0 0.1 0.535 0 0 0.54 0 0.02 0.54 0 0.04 0.54 0 0.06 0.54 0 0.08 0.54 0 0.1 0.54 0 0 0.545 0 0.02 0.545 0 0.04 0.545 0 0.06 0.545 0 0.08 0.545 0 0.1 0.545 0 0 0.55 0 0.02 0.55 0 0.04 0.55 0 0.06 0.55 0 0.08 0.55 0 0.1 0.55 0 0 0.555 0 0.02 0.555 0 0.04 0.555 0 0.06 0.555 0 0.08 0.555 0 0.1 0.555 0 0 0.56 0 0.02 0.56 0 0.04 0.56 0 0.06 0.56 0 0.08 0.56 0 0.1 0.56 0 0 0.565 0 0.02 0.565 0 0.04 0.565 0 0.06 0.565 0 0.08 0.565 0 0.1 0.565 0 0 0.57 0 0.02 0.57 0 0.04 0.57 0 0.06 0.57 0 0.08 0.57 0 0.1 0.57 0 0 0.575 0 0.02 0.575 0 0.04 0.575 0 0.06 0.575 0 0.08 0.575 0 0.1 0.575 0 0 0.58 0 0.02 0.58 0 0.04 0.58 0 0.06 0.58 0 0.08 0.58 0 0.1 0.58 0 0 0.585 0 0.02 0.585 0 0.04 0.585 0 0.06 0.585 0 0.08 0.585 0 0.1 0.585 0 0 0.59 0 0.02 0.59 0 0.04 0.59 0 0.06 0.59 0 0.08 0.59 0 0.1 0.59 0 0 0.595 0 0.02 0.595 0 0.04 0.595 0 0.06 0.595 0 0.08 0.595 0 0.1 0.595 0 0 0.6 0 0.02 0.6 0 0.04 0.6 0 0.06 0.6 0 0.08 0.6 0 0.1 0.6 0 0 0.605 0 0.02 0.605 0 0.04 0.605 0 0.06 0.605 0 0.08 0.605 0 0.1 0.605 0 0 0.61 0 0.02 0.61 0 0.04 0.61 0 0.06 0.61 0 0.08 0.61 0 0.1 0.61 0 0 0.615 0 0.02 0.615 0 0.04 0.615 0 0.06 0.615 0 0.08 0.615 0 0.1 0.615 0 0 0.62 0 0.02 0.62 0 0.04 0.62 0 0.06 0.62 0 0.08 0.62 0 0.1 0.62 0 0 0.625 0 0.02 0.625 0 0.04 0.625 0 0.06 0.625 0 0.08 0.625 0 0.1 0.625 0 0 0.63 0 0.02 0.63 0 0.04 0.63 0 0.06 0.63 0 0.08 0.63 0 0.1 0.63 0 0 0.635 0 0.02 0.635 0 0.04 0.635 0 0.06 0.635 0 0.08 0.635 0 0.1 0.635 0 0 0.64 0 0.02 0.64 0 0.04 0.64 0 0.06 0.64 0 0.08 0.64 0 0.1 0.64 0 0 0.645 0 0.02 0.645 0 0.04 0.645 0 0.06 0.645 0 0.08 0.645 0 0.1 0.645 0 0 0.65 0 0.02 0.65 0 0.04 0.65 0 0.06 0.65 0 0.08 0.65 0 0.1 0.65 0 0 0.655 0 0.02 0.655 0 0.04 0.655 0 0.06 0.655 0 0.08 0.655 0 0.1 0.655 0 0 0.66 0 0.02 0.66 0 0.04 0.66 0 0.06 0.66 0 0.08 0.66 0 0.1 0.66 0 0 0.665 0 0.02 0.665 0 0.04 0.665 0 0.06 0.665 0 0.08 0.665 0 0.1 0.665 0 0 0.67 0 0.02 0.67 0 0.04 0.67 0 0.06 0.67 0 0.08 0.67 0 0.1 0.67 0 0 0.675 0 0.02 0.675 0 0.04 0.675 0 0.06 0.675 0 0.08 0.675 0 0.1 0.675 0 0 0.68 0 0.02 0.68 0 0.04 0.68 0 0.06 0.68 0 0.08 0.68 0 0.1 0.68 0 0 0.685 0 0.02 0.685 0 0.04 0.685 0 0.06 0.685 0 0.08 0.685 0 0.1 0.685 0 0 0.69 0 0.02 0.69 0 0.04 0.69 0 0.06 0.69 0 0.08 0.69 0 0.1 
[...]
			<PointData Scalars="VitesseX">
				<DataArray Name="VitesseX" type="Float32" format="ascii">
 0 -2.19235e-14 -3.01923e-14 -2.01864e-14 -9.99513e-15 0 0 -2.18333e-14 -3.0902e-14 -1.92666e-14 -1.01179e-14 0 0 -2.16127e-14 -3.20455e-14 -1.94765e-14 -7.95285e-15 0 0 -1.80948e-14 -3.81332e-14 -1.6002e-14 -7.94764e-15 0 0 -1.83434e-14 -3.56184e-14 -2.28772e-14 -2.12316e-15 0 0 -2.02271e-14 -3.00038e-14 -3.00983e-14 2.15593e-15 0 0 -2.26016e-14 -2.44736e-14 -3.33538e-14 3.65998e-15 0 0 -1.55413e-14 -3.29628e-14 -2.47136e-14 2.26437e-15 0 0 -1.05821e-14 -3.66593e-14 -1.8177e-14 -5.75456e-16 0 0 -1.41065e-14 -2.43338e-14 -2.53861e-14 3.11449e-15 0 0 -4.97645e-15 -2.89829e-14 -1.84804e-14 -6.38581e-15 0 0 -1.02931e-14 -1.10123e-14 -3.2119e-14 -4.26535e-15 0 0 -9.49858e-15 -5.16257e-15 -2.57574e-14 -9.22177e-15 0 0 1.50504e-15 -1.51617e-14 -4.42723e-15 -2.45404e-14 0 0 -1.18202e-15 -7.63369e-15 6.91658e-16 -3.3259e-14 0 0 2.57756e-15 -8.78329e-15 5.47105e-16 -2.95088e-14 0 0 9.85489e-15 -1.76181e-14 -6.44528e-15 -1.43744e-14 0 0 1.04848e-15 -7.47665e-15 -2.02065e-14 -9.4262e-15 0 0 -7.55605e-15 -5.51047e-15 -2.53332e-14 -5.72136e-15 0 0 -2.05471e-14 2.92894e-15 -4.30658e-14 1.22954e-14 0 0 -2.83865e-14 7.68426e-15 -5.58745e-14 2.8015e-14 0 0 2.08806e-15 -4.24213e-14 -1.18761e-14 5.92052e-15 0 0 8.82835e-15 -6.34336e-14 2.98232e-14 -3.89229e-14 0 0 -3.30929e-14 -1.19025e-14 6.68749e-15 -5.10383e-14 0 0 -3.83041e-14 8.72667e-15 -2.56066e-14 -4.0093e-14 0 0 -4.37935e-15 -3.02883e-14 -3.37934e-15 -5.64559e-14 0 0 -7.12223e-15 -1.63552e-14 -1.71402e-14 -4.50851e-14 0 0 -2.51005e-14 1.79041e-14 -4.86928e-14 -1.92804e-14 0 0 -6.92582e-16 -1.62858e-14 -2.71689e-14 -1.72803e-14 0 0 3.26926e-14 -4.99149e-14 -2.27546e-14 1.96091e-15 0 0 1.36825e-14 -2.0002e-14 -5.66969e-14 2.60264e-14 0 0 -1.27831e-14 5.06685e-15 -5.86382e-14 8.19759e-15 0 0 1.07153e-14 -3.42834e-14 -1.07168e-14 -3.64804e-14 0 0 2.155e-14 -5.04013e-14 2.74366e-15 -3.54004e-14 0 0 -1.80961e-14 6.31844e-15 -4.88205e-14 1.19654e-14 0 0 -2.21517e-14 9.9495e-15 -5.86918e-14 2.74069e-14 0 0 -3.04585e-15 -3.24889e-14 -2.07409e-14 9.91816e-15 0 0 2.6845e-14 -8.54777e-14 2.22953e-14 -3.09271e-14 0 0 -1.84738e-15 -3.3665e-14 -4.44267e-14 -3.31898e-14 0 0 -2.86102e-14 -5.95227e-15 -7.03857e-14 -3.89196e-14 0 0 3.58312e-15 -6.80482e-14 -1.46866e-14 -5.9804e-14 0 0 -9.33592e-15 -6.91101e-14 -3.08097e-14 -2.3752e-14 0 0 -5.929e-14 -3.05676e-14 -7.99667e-14 4.72126e-14 0 0 -1.09583e-13 2.30964e-16 -1.02985e-13 1.06356e-13 0 0 -7.7957e-14 -8.28109e-14 -7.93489e-15 7.81072e-14 0 0 -1.69103e-14 -1.53204e-13 2.132e-14 6.51337e-14 0 0 1.85212e-14 -2.1411e-13 5.66398e-14 2.17178e-14 0 0 -3.0405e-16 -1.87855e-13 5.07182e-14 -1.56878e-14 0 0 -8.92301e-15 -8.53455e-14 -8.25776e-14 3.88401e-14 0 0 -1.98296e-14 -3.213e-14 -1.57987e-13 8.28439e-14 0 0 1.35588e-14 -7.89667e-14 -1.40511e-13 9.87871e-14 0 0 3.88978e-14 -1.19556e-13 -1.12316e-13 1.1506e-13 0 0 2.41279e-14 -1.36835e-13 -8.53132e-14 1.08012e-13 0 0 6.74618e-14 -2.14785e-13 -6.73951e-14 8.94253e-14 0 0 8.44346e-14 -1.94383e-13 -1.59183e-13 8.17516e-14 0 0 2.39819e-17 -2.27703e-14 -2.80418e-13 2.40155e-14 0 0 -4.45912e-14 5.1814e-14 -2.83249e-13 -3.05374e-14 0 0 -3.25031e-14 -7.71752e-16 -2.13568e-13 -1.63018e-14 0 0 -3.49491e-14 -5.35498e-14 -1.5129e-13 8.33739e-15 0 0 -5.67882e-14 -9.41649e-14 -1.05308e-13 1.20695e-14 0 0 -1.00984e-13 -1.16972e-13 -7.31992e-14 1.08498e-14 0 0 -1.04396e-13 -1.62557e-13 -5.20518e-14 3.60834e-14 0 0 -1.40642e-13 -1.54625e-13 -8.74716e-14 1.06973e-13 0 0 -1.86959e-13 -1.28592e-13 -1.52416e-13 1.79623e-13 0 0 -2.10553e-13 -1.26099e-13 -1.83053e-13 1.88531e-13 0 0 -1.99845e-13 -1.51899e-13 -1.7949e-13 1.50865e-13 0 0 -1.44449e-13 -2.2691e-13 -1.58294e-13 1.21712e-13 0 0 -9.81916e-14 -2.95441e-13 -1.56856e-13 1.15815e-13 0 0 -9.61603e-14 -3.22968e-13 -1.77602e-13 1.33833e-13 0 0 -1.25021e-13 -3.39291e-13 -1.76862e-13 1.51486e-13 0 0 -1.62176e-13 -3.62473e-13 -1.49997e-13 1.44164e-13 0 0 -1.87412e-13 -3.94905e-13 -1.18455e-13 1.25695e-13 0 0 -2.02392e-13 -4.13688e-13 -1.12069e-13 1.16583e-13 0 0 -2.1111e-13 -4.08379e-13 -1.36949e-13 1.06268e-13 0 0 -2.13929e-13 -3.80896e-13 -1.87691e-13 9.78772e-14 0 0 -2.03696e-13 -3.44423e-13 -2.51441e-13 9.48356e-14 0 0 -1.73132e-13 -3.22846e-13 -2.95635e-13 7.77895e-14 0 0 -1.23528e-13 -3.23058e-13 -3.06542e-13 5.82827e-14 0 0 -6.40023e-14 -3.35977e-13 -2.98635e-13 5.87873e-14 0 0 -7.8802e-15 -3.4711e-13 -2.91268e-13 9.13853e-14 0 0 3.37358e-14 -3.45384e-13 -2.90681e-13 1.48119e-13 0 0 5.915e-14 -3.28167e-13 -2.9686e-13 2.02716e-13 0 0 7.19336e-14 -2.98482e-13 -3.09408e-13 2.38728e-13 0 0 7.49059e-14 -2.60608e-13 -3.27882e-13 2.60403e-13 0 0 7.15986e-14 -2.24528e-13 -3.41166e-13 2.68858e-13 0 0 6.50036e-14 -1.93036e-13 -3.40908e-13 2.5184e-13 0 0 5.84586e-14 -1.69223e-13 -3.27381e-13 2.10677e-13 0 0 4.99826e-14 -1.53521e-13 -3.02207e-13 1.49857e-13 0 0 3.89022e-14 -1.40866e-13 -2.75823e-13 8.33992e-14 0 0 2.8973e-14 -1.33225e-13 -2.48517e-13 1.72719e-14 0 0 2.175e-14 -1.28719e-13 -2.25012e-13 -3.86485e-14 0 0 1.86729e-14 -1.25987e-13 -2.10254e-13 -7.11707e-14 0 0 1.69271e-14 -1.2097e-13 -2.06892e-13 -8.50851e-14 0 0 1.58471e-14 -1.17685e-13 -2.12026e-13 -8.30791e-14 0 0 1.53988e-14 -1.17259e-13 -2.18757e-13 -7.62286e-14 0 0 1.55516e-14 -1.16388e-13 -2.30855e-13 -6.14699e-14 0 0 1.74368e-14 -1.17551e-13 -2.49477e-13 -3.29093e-14 0 0 2.50896e-14 -1.25488e-13 -2.6573e-13 -7.72744e-15 0 0 4.22617e-14 -1.44807e-13 -2.67532e-13 -5.55574e-15 0 0 6.60266e-14 -1.69159e-13 -2.63279e-13 -2.02435e-14 0 0 9.0549e-14 -1.90502e-13 -2.63984e-13 -3.7621e-14 0 0 1.11281e-13 -2.09627e-13 -2.63336e-13 -5.97867e-14 0 0 1.25541e-13 -2.24726e-13 -2.57767e-13 -9.33668e-14 0 0 1.3316e-13 -2.33351e-13 -2.48982e-13 -1.38639e-13 0 0 1.34788e-13 -2.36481e-13 -2.38944e-13 -1.88877e-13 0 0 1.30328e-13 -2.35351e-13 -2.28604e-13 -2.41097e-13 0 0 1.18407e-13 -2.28401e-13 -2.20735e-13 -2.90742e-13 0 0 1.01319e-13 -2.15709e-13 -2.1773e-13 -3.34883e-13 0 0 8.28425e-14 -1.97696e-13 -2.25368e-13 -3.73848e-13 0 0 6.22769e-14 -1.7698e-13 -2.39444e-13 -4.11779e-13 0 0 4.09634e-14 -1.64017e-13 -2.45566e-13 -4.47792e-13 0 0 2.28531e-14 -1.64644e-13 -2.47131e-13 -4.71722e-13 0 0 5.90131e-15 -1.72229e-13 -2.52453e-13 -4.82196e-13 0 0 -1.3972e-14 -1.79852e-13 -2.60089e-13 -4.82334e-13 0 0 -3.47836e-14 -1.87373e-13 -2.65907e-13 -4.74999e-13 0 0 -5.0595e-14 -1.95599e-13 -2.87085e-13 -4.37462e-13 0 0 -6.6731e-14 -2.07933e-13 -2.98057e-13 -4.00397e-13 0 0 -8.52976e-14 -2.19867e-13 -2.958e-13 -3.8304e-13 0 0 -1.02623e-13 -2.35357e-13 -3.00177e-13 -3.57012e-13 0 0 -1.20077e-13 -2.50376e-13 -2.98493e-13 -3.5058e-13 0 0 -1.37449e-13 -2.40161e-13 -3.32751e-13 -3.28571e-13 0 0 -1.47719e-13 -2.46228e-13 -3.45956e-13 -3.01604e-13 0 0 -1.53888e-13 -2.5571e-13 -3.45459e-13 -2.8204e-13 0 0 -1.60792e-13 -2.48857e-13 -3.72076e-13 -2.35913e-13 0 0 -1.58335e-13 -2.5576e-13 -3.87963e-13 -1.94515e-13 0 0 -1.56659e-13 -2.60546e-13 -3.77952e-13 -2.02821e-13 0 0 -1.63231e-13 -2.57561e-13 -3.35645e-13 -2.40207e-13 0 0 -1.66092e-13 -2.55283e-13 -3.07512e-13 -2.30519e-13 0 0 -1.70775e-13 -2.46471e-13 -3.06987e-13 -1.90374e-13 0 0 -1.69573e-13 -2.53922e-13 -2.79272e-13 -1.97561e-13 0 0 -1.69228e-13 -2.59292e-13 -2.47195e-13 -2.10825e-13 0 0 -1.63992e-13 -2.68835e-13 -2.28392e-13 -2.02269e-13 0 0 -1.5415e-13 -2.65688e-13 -2.39739e-13 -1.72916e-13 0 0 -1.67415e-13 -2.24314e-13 -2.70455e-13 -1.15763e-13 0 0 -1.68471e-13 -2.28608e-13 -2.50114e-13 -1.04503e-13 0 0 -1.54125e-13 -2.55383e-13 -2.26338e-13 -1.04733e-13 0 0 -1.51306e-13 -2.56296e-13 -2.26932e-13 -9.75935e-14 0 0 -1.46439e-13 -2.75538e-13 -1.94148e-13 -1.38972e-13 0 0 -1.41648e-13 -2.94845e-13 -1.46022e-13 -1.84642e-13 0 0 -1.42013e-13 -2.79416e-13 -1.55856e-13 -1.708e-13 0 0 -1.42483e-13 -2.58375e-13 -1.88891e-13 -1.53073e-13 0 0 -1.35634e-13 -2.43492e-13 -2.1906e-13 -1.30599e-13 0 0 -1.22311e-13 -2.4772e-13 -2.30075e-13 -9.03248e-14 0 0 -1.20421e-13 -2.5063e-13 -2.15504e-13 -1.00424e-13 0 0 -1.21074e-13 -2.42911e-13 -2.25326e-13 -1.10856e-13 0 0 -1.20661e-13 -2.2975e-13 -2.5785e-13 -1.03397e-13 0 0 -1.32224e-13 -2.10945e-13 -2.61144e-13 -1.05298e-13 0 0 -1.41457e-13 -2.36832e-13 -1.97825e-13 -1.2078e-13 0 0 -1.47945e-13 -2.66843e-13 -1.64595e-13 -1.47165e-13 0 0 -1.54759e-13 -2.59446e-13 -2.05182e-13 -1.18599e-13 0 0 -1.52876e-13 -2.73585e-13 -2.32924e-13 -1.06555e-13 0 0 -1.53117e-13 -2.93473e-13 -2.3962e-13 -1.48055e-13 0 0 -1.57915e-13 -3.07979e-13 -2.45686e-13 -2.00995e-13 0 0 -1.65202e-13 -2.94925e-13 -3.05981e-13 -2.20943e-13 0 0 -1.70858e-13 -2.84281e-13 -3.50716e-13 -2.22906e-13 0 0 -1.79398e-13 -2.79647e-13 -3.63574e-13 -2.45106e-13 0 0 -1.90919e-13 -2.61148e-13 -3.54645e-13 -3.17526e-13 0 0 -1.82711e-13 -2.71277e-13 -3.20894e-13 -3.43336e-13 0 0 -1.89027e-13 -2.55821e-13 -3.25153e-13 -2.69207e-13 0 0 -1.94298e-13 -2.30454e-13 -3.32505e-13 -1.75929e-13 0 0 -1.64004e-13 -2.41286e-13 -3.17253e-13 -1.43575e-13 0 0 -1.45587e-13 -2.10585e-13 -3.25738e-13 -1.65827e-13 0 0 -1.46744e-13 -1.52268e-13 -3.86049e-13 -8.2615e-14 0 0 -1.39618e-13 -1.5446e-13 -3.76467e-13 -3.27109e-14 0 0 -1.09493e-13 -2.36607e-13 -2.56385e-13 -7.75325e-14 0 0 -1.06367e-13 -2.66695e-13 -1.92214e-13 -1.34611e-13 0 0 -1.50857e-13 -1.86318e-13 -2.87729e-13 -5.71537e-14 0 0 -1.71163e-13 -1.66879e-13 -3.59976e-13 -8.29394e-15 0 0 -1.5411e-13 -2.20509e-13 -3.86829e-13 -8.13458e-14 0 0 -1.49933e-13 -2.82648e-13 -4.38628e-13 -1.1798e-13 0 0 -1.76566e-13 -3.66623e-13 -4.4426e-13 -2.56406e-13 0 0 -1.90169e-13 -4.7854e-13 -3.7815e-13 -5.38423e-13 0 0 -2.67789e-13 -4.59597e-13 -4.34354e-13 -6.29124e-13 0 0 -2.98961e-13 -4.61641e-13 -5.06632e-13 -5.60803e-13 0 0 -2.86365e-13 -4.9187e-13 -5.66305e-13 -4.97996e-13 0 0 -3.36093e-13 -4.52769e-13 -6.29861e-13 -4.93572e-13 0 0 -3.12913e-13 -5.45565e-13 -5.36487e-13 -5.89378e-13 0 0 -2.96681e-13 -6.47254e-13 -4.37369e-13 -5.78778e-13 0 0 -3.25432e-13 -6.38576e-13 -4.3979e-13 -5.727e-13 0 0 -3.47099e-13 -5.67753e-13 -5.42045e-13 -4.99786e-13 0 0 -3.34687e-13 -5.37905e-13 -6.13732e-13 -4.07335e-13 0 0 -3.82731e-13 -4.82511e-13 -6.23406e-13 -4.45319e-13 0 0 -3.78101e-13 -5.02626e-13 -5.83358e-13 -4.68545e-13 0 0 -3.7094e-13 -4.98083e-13 -6.04889e-13 -3.98677e-13 0 0 -3.53356e-13 -4.88485e-13 -6.02322e-13 -3.76708e-13 0 0 -3.14649e-13 -4.80011e-13 -6.14983e-13 -3.57452e-13 0 0 -3.64381e-13 -4.07417e-13 -6.34123e-13 -3.21521e-13 0 0 -3.85487e-13 -3.92856e-13 -5.95815e-13 -3.34473e-13 0 0 -3.29053e-13 -4.55708e-13 -4.97128e-13 -4.0853e-13 0 0 -2.97353e-13 -4.84832e-13 -4.45134e-13 -3.86999e-13 0 0 -3.43904e-13 -4.34932e-13 -4.78589e-13 -3.06058e-13 0 0 -3.52054e-13 -4.30908e-13 -5.15563e-13 -2.48596e-13 0 0 -3.21098e-13 -4.72742e-13 -4.87134e-13 -2.52077e-13 0 0 -3.45389e-13 -4.54524e-13 -4.14591e-13 -3.45382e-13 0 0 -4.20848e-13 -3.63463e-13 -4.18804e-13 -3.65095e-13 0 0 -4.75186e-13 -3.05816e-13 -3.93637e-13 -3.80622e-13 0 0 -4.01977e-13 -4.52915e-13 -1.75892e-13 -4.99421e-13 0 0 -3.13002e-13 -6.1792e-13 5.15447e-14 -6.78243e-13 0 0 -4.15038e-13 -5.11372e-13 -9.3924e-14 -5.82236e-13 0 0 -5.75432e-13 -2.93252e-13 -3.61845e-13 -3.69851e-13 0 0 -6.32056e-13 -1.83102e-13 -4.54353e-13 -3.28269e-13 0
				</DataArray>
				<DataArray Name="VitesseY" type="Float32" format="ascii">