<?xml version="1.0"?>
<VTKFile type="PolyData">
	<PolyData>
		<Piece NumberOfPoints="1206" NumberOfPolys="1000">
			<Points>
				<DataArray type="Float32" NumberOfComponents="3" format="ascii">
 0 0 0 0.02 0 0 0.04 0 0 0.06 0 0 0.08 0 0 0.1 0 0 0 0.005 0 0.02 0.005 0 0.04 0.005 0 0.06 0.005 0 0.08 0.005 0 0.1 0.005 0 0 0.01 0 0.02 0.01 0 0.04 0.01 0 0.06 0.01 0 0.08 0.01 0 0.1 0.01 0 0 0.015 0 0.02 0.015 0 0.04 0.015 0 0.06 0.015 0 0.08 0.015 0 0.1 0.015 0 0 0.02 0 0.02 0.02 0 0.04 0.02 0 0.06 0.02 0 0.08 0.02 0 0.1 0.02 0 0 0.025 0 0.02 0.025 0 0.04 0.025 0 0.06 0.025 0 0.08 0.025 0 0.1 0.025 0 0 0.03 0 0.02 0.03 0 0.04 0.03 0 0.06 0.03 0 0.08 0.03 0 0.1 0.03 0 0 0.035 0 0.02 0.035 0 0.04 0.035 0 0.06 0.035 0 0.08 0.035 0 0.1 0.035 0 0 0.04 0 0.02 0.04 0 0.04 0.04 0 0.06 0.04 0 0.08 0.04 0 0.1 0.04 0 0 0.045 0 0.02 0.045 0 0.04 0.045 0 0.06 0.045 0 0.08 0.045 0 0.1 0.045 0 0 0.05 0 0.02 0.05 0 0.04 0.05 0 0.06 0.05 0 0.08 0.05 0 0.1 0.05 0 0 0.055 0 0.02 0.055 0 0.04 0.055 0 0.06 0.055 0 0.08 0.055 0 0.1 0.055 0 0 0.06 0 0.02 0.06 0 0.04 0.06 0 0.06 0.06 0 0.08 0.06 0 0.1 0.06 0 0 0.065 0 0.02 0.065 0 0.04 0.065 0 0.06 0.065 0 0.08 0.065 0 0.1 0.065 0 0 0.07 0 0.02 0.07 0 0.04 0.07 0 0.06 0.07 0 0.08 0.07 0 0.1 0.07 0 0 0.075 0 0.02 0.075 0 0.04 0.075 0 0.06 0.075 0 0.08 0.075 0 0.1 0.075 0 0 0.08 0 0.02 0.08 0 0.04 0.08 0 0.06 0.08 0 0.08 0.08 0 0.1 0.08 0 0 0.085 0 0.02 0.085 0 0.04 0.085 0 0.06 0.085 0 0.08 0.085 0 0.1 0.085 0 0 0.09 0 0.02 0.09 0 0.04 0.09 0 0.06 0.09 0 0.08 0.09 0 0.1 0.09 0 0 0.095 0 0.02 0.095 0 0.04 0.095 0 0.06 0.095 0 0.08 0.095 0 0.1 0.095 0 0 0.1 0 0.02 0.1 0 0.04 0.1 0 0.06 0.1 0 0.08 0.1 0 0.1 0.1 0 0 0.105 0 0.02 0.105 0 0.04 0.105 0 0.06 0.105 0 0.08 0.105 0 0.1 0.105 0 0 0.11 0 0.02 0.11 0 0.04 0.11 0 0.06 0.11 0 0.08 0.11 0 0.1 0.11 0 0 0.115 0 0.02 0.115 0 0.04 0.115 0 0.06 0.115 0 0.08 0.115 0 0.1 0.115 0 0 0.12 0 0.02 0.12 0 0.04 0.12 0 0.06 0.12 0 0.08 0.12 0 0.1 0.12 0 0 0.125 0 0.02 0.125 0 0.04 0.125 0 0.06 0.125 0 0.08 0.125 0 0.1 0.125 0 0 0.13 0 0.02 0.13 0 0.04 0.13 0 0.06 0.13 0 0.08 0.13 0 0.1 0.13 0 0 0.135 0 0.02 0.135 0 0.04 0.135 0 0.06 0.135 0 0.08 0.135 0 0.1 0.135 0 0 0.14 0 0.02 0.14 0 0.04 0.14 0 0.06 0.14 0 0.08 0.14 0 0.1 0.14 0 0 0.145 0 0.02 0.145 0 0.04 0.145 0 0.06 0.145 0 0.08 0.145 0 0.1 0.145 0 0 0.15 0 0.02 0.15 0 0.04 0.15 0 0.06 0.15 0 0.08 0.15 0 0.1 0.15 0 0 0.155 0 0.02 0.155 0 0.04 0.155 0 0.06 0.155 0 0.08 0.155 0 0.1 0.155 0 0 0.16 0 0.02 0.16 0 0.04 0.16 0 0.06 0.16 0 0.08 0.16 0 0.1 0.16 0 0 0.165 0 0.02 0.165 0 0.04 0.165 0 0.06 0.165 0 0.08 0.165 0 0.1 0.165 0 0 0.17 0 0.02 0.17 0 0.04 0.17 0 0.06 0.17 0 0.08 0.17 0 0.1 0.17 0 0 0.175 0 0.02 0.175 0 0.04 0.175 0 0.06 0.175 0 0.08 0.175 0 0.1 0.175 0 0 0.18 0 0.02 0.18 0 0.04 0.18 0 0.06 0.18 0 0.08 0.18 0 0.1 0.18 0 0 0.185 0 0.02 0.185 0 0.04 0.185 0 0.06 0.185 0 0.08 0.185 0 0.1 0.185 0 0 0.19 0 0.02 0.19 0 0.04 0.19 0 0.06 0.19 0 0.08 0.19 0 0.1 0.19 0 0 0.195 0 0.02 0.195 0 0.04 0.195 0 0.06 0.195 0 0.08 0.195 0 0.1 0.195 0 0 0.2 0 0.02 0.2 0 0.04 0.2 0 0.06 0.2 0 0.08 0.2 0 0.1 0.2 0 0 0.205 0 0.02 0.205 0 0.04 0.205 0 0.06 0.205 0 0.08 0.205 0 0.1 0.205 0 0 0.21 0 0.02 0.21 0 0.04 0.21 0 0.06 0.21 0 0.08 0.21 0 0.1 0.21 0 0 0.215 0 0.02 0.215 0 0.04 0.215 0 0.06 0.215 0 0.08 0.215 0 0.1 0.215 0 0 0.22 0 0.02 0.22 0 0.04 0.22 0 0.06 0.22 0 0.08 0.22 0 0.1 0.22 0 0 0.225 0 0.02 0.225 0 0.04 0.225 0 0.06 0.225 0 0.08 0.225 0 0.1 0.225 0 0 0.23 0 0.02 0.23 0 0.04 0.23 0 0.06 0.23 0 0.08 0.23 0 0.1 0.23 0 0 0.235 0 0.02 0.235 0 0.04 0.235 0 0.06 0.235 0 0.08 0.235 0 0.1 0.235 0 0 0.24 0 0.02 0.24 0 0.04 0.24 0 0.06 0.24 0 0.08 0.24 0 0.1 0.24 0 0 0.245 0 0.02 0.245 0 0.04 0.245 0 0.06 0.245 0 0.08 0.245 0 0.1 0.245 0 0 0.25 0 0.02 0.25 0 0.04 0.25 0 0.06 0.25 0 0.08 0.25 0 0.1 0.25 0 0 0.255 0 0.02 0.255 0 0.04 0.255 0 0.06 0.255 0 0.08 0.255 0 0.1 0.255 0 0 0.26 0 0.02 0.26 0 0.04 0.26 0 0.06 0.26 0 0.08 0.26 0 0.1 0.26 0 0 0.265 0 0.02 0.265 0 0.04 0.265 0 0.06 0.265 0 0.08 0.265 0 0.1 0.265 0 0 0.27 0 0.02 0.27 0 0.04 0.27 0 0.06 0.27 0 0.08 0.27 0 0.1 0.27 0 0 0.275 0 0.02 0.275 0 0.04 0.275 0 0.06 0.275 0 0.08 0.275 0 0.1 0.275 0 0 0.28 0 0.02 0.28 0 0.04 0.28 0 0.06 0.28 0 0.08 0.28 0 0.1 0.28 0 0 0.285 0 0.02 0.285 0 0.04 0.285 0 0.06 0.285 0 0.08 0.285 0 0.1 0.285 0 0 0.29 0 0.02 0.29 0 0.04 0.29 0 0.06 0.29 0 0.08 0.29 0 0.1 0.29 0 0 0.295 0 0.02 0.295 0 0.04 0.295 0 0.06 0.295 0 0.08 0.295 0 0.1 0.295 0 0 0.3 0 0.02 0.3 0 0.04 0.3 0 0.06 0.3 0 0.08 0.3 0 0.1 0.3 0 0 0.305 0 0.02 0.305 0 0.04 0.305 0 0.06 0.305 0 0.08 0.305 0 0.1 0.305 0 0 0.31 0 0.02 0.31 0 0.04 0.31 0 0.06 0.31 0 0.08 0.31 0 0.1 0.31 0 0 0.315 0 0.02 0.315 0 0.04 0.315 0 0.06 0.315 0 0.08 0.315 0 0.1 0.315 0 0 0.32 0 0.02 0.32 0 0.04 0.32 0 0.06 0.32 0 0.08 0.32 0 0.1 0.32 0 0 0.325 0 0.02 0.325 0 0.04 0.325 0 0.06 0.325 0 0.08 0.325 0 0.1 0.325 0 0 0.33 0 0.02 0.33 0 0.04 0.33 0 0.06 0.33 0 0.08 0.33 0 0.1 0.33 0 0 0.335 0 0.02 0.335 0 0.04 0.335 0 0.06 0.335 0 0.08 0.335 0 0.1 0.335 0 0 0.34 0 0.02 0.34 0 0.04 0.34 0 0.06 0.34 0 0.08 0.34 0 0.1 0.34 0 0 0.345 0 0.02 0.345 0 0.04 0.345 0 0.06 0.345 0 0.08 0.345 0 0.1 0.345 0 0 0.35 0 0.02 0.35 0 0.04 0.35 0 0.06 0.35 0 0.08 0.35 0 0.1 0.35 0 0 0.355 0 0.02 0.355 0 0.04 0.355 0 0.06 0.355 0 0.08 0.355 0 0.1 0.355 0 0 0.36 0 0.02 0.36 0 0.04 0.36 0 0.06 0.36 0 0.08 0.36 0 0.1 0.36 0 0 0.365 0 0.02 0.365 0 0.04 0.365 0 0.06 0.365 0 0.08 0.365 0 0.1 0.365 0 0 0.37 0 0.02 0.37 0 0.04 0.37 0 0.06 0.37 0 0.08 0.37 0 0.1 0.37 0 0 0.375 0 0.02 0.375 0 0.04 0.375 0 0.06 0.375 0 0.08 0.375 0 0.1 0.375 0 0 0.38 0 0.02 0.38 0 0.04 0.38 0 0.06 0.38 0 0.08 0.38 0 0.1 0.38 0 0 0.385 0 0.02 0.385 0 0.04 0.385 0 0.06 0.385 0 0.08 0.385 0 0.1 0.385 0 0 0.39 0 0.02 0.39 0 0.04 0.39 0 0.06 0.39 0 0.08 0.39 0 0.1 0.39 0 0 0.395 0 0.02 0.395 0 0.04 0.395 0 0.06 0.395 0 0.08 0.395 0 0.1 0.395 0 0 0.4 0 0.02 0.4 0 0.04 0.4 0 0.06 0.4 0 0.08 0.4 0 0.1 0.4 0 0 0.405 0 0.02 0.405 0 0.04 0.405 0 0.06 0.405 0 0.08 0.405 0 0.1 0.405 0 0 0.41 0 0.02 0.41 0 0.04 0.41 0 0.06 0.41 0 0.08 0.41 0 0.1 0.41 0 0 0.415 0 0.02 0.415 0 0.04 0.415 0 0.06 0.415 0 0.08 0.415 0 0.1 0.415 0 0 0.42 0 0.02 0.42 0 0.04 0.42 0 0.06 0.42 0 0.08 0.42 0 0.1 0.42 0 0 0.425 0 0.02 0.425 0 0.04 0.425 0 0.06 0.425 0 0.08 0.425 0 0.1 0.425 0 0 0.43 0 0.02 0.43 0 0.04 0.43 0 0.06 0.43 0 0.08 0.43 0 0.1 0.43 0 0 0.435 0 0.02 0.435 0 0.04 0.435 0 0.06 0.435 0 0.08 0.435 0 0.1 0.435 0 0 0.44 0 0.02 0.44 0 0.04 0.44 0 0.06 0.44 0 0.08 0.44 0 0.1 0.44 0 0 0.445 0 0.02 0.445 0 0.04 0.445 0 0.06 0.445 0 0.08 0.445 0 0.1 0.445 0 0 0.45 0 0.02 0.45 0 0.04 0.45 0 0.06 0.45 0 0.08 0.45 0 0.1 0.45 0 0 0.455 0 0.02 0.455 0 0.04 0.455 0 0.06 0.455 0 0.08 0.455 0 0.1 0.455 0 0 0.46 0 0.02 0.46 0 0.04 0.46 0 0.06 0.46 0 0.08 0.46 0 0.1 0.46 0 0 0.465 0 0.02 0.465 0 0.04 0.465 0 0.06 0.465 0 0.08 0.465 0 0.1 0.465 0 0 0.47 0 0.02 0.47 0 0.04 0.47 0 0.06 0.47 0 0.08 0.47 0 0.1 0.47 0 0 0.475 0 0.02 0.475 0 0.04 0.475 0 0.06 0.475 0 0.08 0.475 0 0.1 0.475 0 0 0.48 0 0.02 0.48 0 0.04 0.48 0 0.06 0.48 0 0.08 0.48 0 0.1 0.48 0 0 0.485 0 0.02 0.485 0 0.04 0.485 0 0.06 0.485 0 0.08 0.485 0 0.1 0.485 0 0 0.49 0 0.02 0.49 0 0.04 0.49 0 0.06 0.49 0 0.08 0.49 0 0.1 0.49 0 0 0.495 0 0.02 0.495 0 0.04 0.495 0 0.06 0.495 0 0.08 0.495 0 0.1 0.495 0 0 0.5 0 0.02 0.5 0 0.04 0.5 0 0.06 0.5 0 0.08 0.5 0 0.1 0.5 0 0 0.505 0 0.02 0.505 0 0.04 0.505 0 0.06 0.505 0 0.08 0.505 0 0.1 0.505 0 0 0.51 0 0.02 0.51 0 0.04 0.51 0 0.06 0.51 0 0.08 0.51 0 0.1 0.51 0 0 0.515 0 0.02 0.515 0 0.04 0.515 0 0.06 0.515 0 0.08 0.515 0 0.1 0.515 0 0 0.52 0 0.02 0.52 0 0.04 0.52 0 0.06 0.52 0 0.08 0.52 0 0.1 0.52 0 0 0.525 0 0.02 0.525 0 0.04 0.525 0 0.06 0.525 0 0.08 0.525 0 0.1 0.525 0 0 0.53 0 0.02 0.53 0 0.04 0.53 0 0.06 0.53 0 0.08 0.53 0 0.1 0.53 0 0 0.535 0 0.02 0.535 0 0.04 0.535 0 0.06 0.535 0 0.08 0.535 0 0.1 0.535 0 0 0.54 0 0.02 0.54 0 0.04 0.54 0 0.06 0.54 0 0.08 0.54 0 0.1 0.54 0 0 0.545 0 0.02 0.545 0 0.04 0.545 0 0.06 0.545 0 0.08 0.545 0 0.1 0.545 0 0 0.55 0 0.02 0.55 0 0.04 0.55 0 0.06 0.55 0 0.08 0.55 0 0.1 0.55 0 0 0.555 0 0.02 0.555 0 0.04 0.555 0 0.06 0.555 0 0.08 0.555 0 0.1 0.555 0 0 0.56 0 0.02 0.56 0 0.04 0.56 0 0.06 0.56 0 0.08 0.56 0 0.1 0.56 0 0 0.565 0 0.02 0.565 0 0.04 0.565 0 0.06 0.565 0 0.08 0.565 0 0.1 0.565 0 0 0.57 0 0.02 0.57 0 0.04 0.57 0 0.06 0.57 0 0.08 0.57 0 0.1 0.57 0 0 0.575 0 0.02 0.575 0 0.04 0.575 0 0.06 0.575 0 0.08 0.575 0 0.1 0.575 0 0 0.58 0 0.02 0.58 0 0.04 0.58 0 0.06 0.58 0 0.08 0.58 0 0.1 0.58 0 0 0.585 0 0.02 0.585 0 0.04 0.585 0 0.06 0.585 0 0.08 0.585 0 0.1 0.585 0 0 0.59 0 0.02 0.59 0 0.04 0.59 0 0.06 0.59 0 0.08 0.59 0 0.1 0.59 0 0 0.595 0 0.02 0.595 0 0.04 0.595 0 0.06 0.595 0 0.08 0.595 0 0.1 0.595 0 0 0.6 0 0.02 0.6 0 0.04 0.6 0 0.06 0.6 0 0.08 0.6 0 0.1 0.6 0 0 0.605 0 0.02 0.605 0 0.04 0.605 0 0.06 0.605 0 0.08 0.605 0 0.1 0.605 0 0 0.61 0 0.02 0.61 0 0.04 0.61 0 0.06 0.61 0 0.08 0.61 0 0.1 0.61 0 0 0.615 0 0.02 0.615 0 0.04 0.615 0 0.06 0.615 0 0.08 0.615 0 0.1 0.615 0 0 0.62 0 0.02 0.62 0 0.04 0.62 0 0.06 0.62 0 0.08 0.62 0 0.1 0.62 0 0 0.625 0 0.02 0.625 0 0.04 0.625 0 0.06 0.625 0 0.08 0.625 0 0.1 0.625 0 0 0.63 0 0.02 0.63 0 0.04 0.63 0 0.06 0.63 0 0.08 0.63 0 0.1 0.63 0 0 0.635 0 0.02 0.635 0 0.04 0.635 0 0.06 0.635 0 0.08 0.635 0 0.1 0.635 0 0 0.64 0 0.02 0.64 0 0.04 0.64 0 0.06 0.64 0 0.08 0.64 0 0.1 0.64 0 0 0.645 0 0.02 0.645 0 0.04 0.645 0 0.06 0.645 0 0.08 0.645 0 0.1 0.645 0 0 0.65 0 0.02 0.65 0 0.04 0.65 0 0.06 0.65 0 0.08 0.65 0 0.1 0.65 0 0 0.655 0 0.02 0.655 0 0.04 0.655 0 0.06 0.655 0 0.08 0.655 0 0.1 0.655 0 0 0.66 0 0.02 0.66 0 0.04 0.66 0 0.06 0.66 0 0.08 0.66 0 0.1 0.66 0 0 0.665 0 0.02 0.665 0 0.04 0.665 0 0.06 0.665 0 0.08 0.665 0 0.1 0.665 0 0 0.67 0 0.02 0.67 0 0.04 0.67 0 0.06 0.67 0 0.08 0.67 0 0.1 0.67 0 0 0.675 0 0.02 0.675 0 0.04 0.675 0 0.06 0.675 0 0.08 0.675 0 0.1 0.675 0 0 0.68 0 0.02 0.68 0 0.04 0.68 0 0.06 0.68 0 0.08 0.68 0 0.1 0.68 0 0 0.685 0 0.02 0.685 0 0.04 0.685 0 0.06 0.685 0 0.08 0.685 0 0.1 0.685 0 0 0.69 0 0.02 0.69 0 0.04 0.69 0 0.06 0.69 0 0.08 0.69 0 0.1 
[...]
			<PointData Scalars="VitesseX">
				<DataArray Name="VitesseX" type="Float32" format="ascii">
 0 4.05339e-14 7.68428e-15 1.61076e-14 2.6388e-14 0 0 3.02818e-14 2.10115e-14 9.45809e-15 2.32378e-14 0 0 2.65653e-14 2.15598e-14 2.47039e-14 -3.04824e-15 0 0 9.95306e-15 4.53678e-14 1.60982e-14 -1.29399e-14 0 0 7.68471e-15 5.81931e-14 -1.62726e-16 -5.14553e-15 0 0 4.22538e-14 2.36801e-14 1.37052e-14 -3.5106e-15 0 0 5.96409e-14 3.95413e-15 2.64046e-14 -9.92228e-15 0 0 5.95514e-14 5.73301e-15 2.73589e-14 -1.80285e-14 0 0 4.58646e-14 3.59728e-14 -1.33713e-14 9.85178e-15 0 0 2.8383e-14 5.84797e-14 -4.4249e-14 4.04506e-14 0 0 8.28847e-15 8.45592e-14 -5.87177e-14 4.66751e-14 0 0 2.81751e-14 5.63708e-14 -9.9615e-16 -6.21454e-15 0 0 1.79285e-14 6.89593e-14 1.52787e-14 -2.2674e-14 0 0 2.19794e-14 6.81234e-14 1.69934e-14 -8.6231e-15 0 0 4.42745e-14 3.99354e-14 3.11053e-14 9.59687e-15 0 0 1.06678e-14 7.62055e-14 1.155e-14 1.15896e-14 0 0 9.23031e-15 6.15896e-14 4.46667e-14 -2.29476e-14 0 0 4.69511e-15 7.18828e-14 1.67604e-14 2.26263e-14 0 0 2.29406e-14 3.22842e-14 4.32912e-14 3.04769e-14 0 0 4.95437e-14 -1.11817e-14 7.28785e-14 3.55383e-14 0 0 3.82676e-14 2.56908e-14 3.65016e-14 7.55073e-14 0 0 2.84507e-14 6.73942e-14 1.84235e-14 7.59027e-14 0 0 5.61485e-14 5.46483e-14 3.40706e-14 7.39356e-14 0 0 7.73088e-14 3.95893e-14 5.80854e-14 7.28967e-14 0 0 5.47382e-14 9.99997e-14 3.79441e-14 5.96934e-14 0 0 6.3825e-14 9.64048e-14 6.69465e-14 2.48332e-14 0 0 8.19347e-14 8.45595e-14 7.22153e-14 2.26682e-14 0 0 8.58553e-14 1.25626e-13 1.12817e-14 5.19001e-14 0 0 1.1791e-13 8.45315e-14 6.74466e-14 -2.83588e-14 0 0 1.1068e-13 6.19712e-14 9.59588e-14 -6.61791e-14 0 0 9.12535e-14 5.67949e-14 9.60378e-14 -5.36929e-14 0 0 9.96349e-14 5.96859e-14 7.55552e-14 -4.09518e-14 0 0 7.73778e-14 1.16535e-13 -8.43307e-15 1.41073e-14 0 0 1.08535e-13 4.71877e-14 3.6411e-14 1.62141e-14 0 0 9.67763e-14 4.48316e-14 3.35564e-14 5.30494e-14 0 0 9.93382e-14 1.52091e-14 7.90952e-14 4.5992e-14 0 0 8.07024e-14 4.89898e-14 1.35403e-14 1.43049e-13 0 0 5.22158e-14 9.77429e-14 -4.97414e-14 2.15375e-13 0 0 5.21837e-14 9.65048e-14 -5.23431e-14 2.07232e-13 0 0 6.13475e-14 1.00535e-13 -6.07575e-14 2.0131e-13 0 0 1.29635e-13 2.99652e-15 8.17792e-14 7.4987e-14 0 0 1.89256e-13 -1.20622e-14 8.07676e-14 6.83486e-14 0 0 2.46533e-13 -1.74482e-14 7.91862e-14 8.3913e-14 0 0 2.2786e-13 3.87124e-14 8.85304e-14 3.82396e-14 0 0 1.82579e-13 9.75676e-14 7.76479e-14 -7.08006e-16 0 0 1.49786e-13 1.43248e-13 2.97802e-14 1.56917e-14 0 0 2.32022e-14 3.37497e-13 -1.71322e-13 1.69666e-13 0 0 9.11765e-14 1.94716e-13 -4.51531e-14 1.59249e-13 0 0 2.27272e-13 -5.91353e-14 1.16629e-13 1.37301e-13 0 0 2.62838e-13 -1.97431e-13 2.41464e-13 9.10788e-14 0 0 2.88334e-13 -3.07052e-13 3.76489e-13 2.64106e-15 0 0 1.77251e-13 -8.74096e-14 1.21959e-13 1.59469e-13 0 0 2.11065e-13 -7.68307e-14 8.27578e-14 1.6352e-13 0 0 1.77669e-13 -2.81425e-14 1.4953e-14 1.91307e-13 0 0 1.14921e-13 6.79596e-14 -7.82175e-14 1.74515e-13 0 0 2.10925e-13 -7.33848e-14 6.66698e-14 2.50219e-14 0 0 1.26277e-13 8.90134e-14 -6.38766e-14 1.09727e-13 0 0 1.65714e-13 1.37189e-14 1.29953e-13 -7.18552e-14 0 0 1.62432e-13 -2.37161e-15 1.53368e-13 -6.26667e-14 0 0 9.40594e-14 9.21821e-14 7.21693e-14 1.70302e-14 0 0 1.68119e-13 -4.4213e-15 2.1988e-13 -1.09876e-13 0 0 1.25735e-13 1.41518e-13 2.62947e-14 2.75707e-14 0 0 2.11604e-13 -1.90865e-15 2.04577e-13 -9.57129e-14 0 0 2.3584e-13 -6.46973e-14 3.07574e-13 -1.88531e-13 0 0 1.34222e-13 6.69444e-14 1.6589e-13 -7.88152e-14 0 0 9.52338e-14 1.19488e-13 9.74348e-14 -2.96186e-14 0 0 8.06965e-14 2.09204e-13 -6.60059e-14 9.77841e-14 0 0 1.75044e-13 4.05242e-14 1.09365e-13 1.1929e-15 0 0 1.77991e-13 -1.21699e-14 2.0588e-13 -5.80905e-14 0 0 1.43775e-13 7.05373e-14 9.30983e-14 8.13483e-14 0 0 3.10058e-13 -1.38772e-13 2.36575e-13 5.33184e-14 0 0 2.25817e-13 8.07921e-14 7.87095e-15 2.26374e-13 0 0 2.8308e-13 9.82542e-14 8.40126e-14 1.83431e-13 0 0 2.43738e-13 1.80967e-13 2.86674e-14 2.24028e-13 0 0 2.75553e-13 1.05275e-13 6.8946e-14 2.30014e-13 0 0 2.94259e-13 -4.37174e-14 2.97701e-13 1.45333e-13 0 0 -3.16808e-14 3.6454e-13 -3.5824e-14 4.47709e-13 0 0 2.62576e-13 2.4395e-15 2.92383e-13 3.48759e-13 0 0 1.83202e-13 2.37392e-13 1.33017e-13 4.18134e-13 0 0 2.43363e-13 1.53867e-13 2.93813e-13 1.67707e-13 0 0 3.27207e-13 2.09941e-13 2.06559e-13 1.04636e-13 0 0 -7.56428e-14 8.44376e-13 -2.13459e-13 2.98956e-13 0 0 1.77513e-13 1.75545e-13 7.98952e-13 -3.85386e-13 0 0 4.93742e-14 3.64806e-13 6.44223e-13 -1.70594e-13 0 0 -1.61964e-13 1.12814e-12 -2.1663e-13 5.00822e-13 0 0 4.22085e-13 5.54129e-13 2.33718e-13 2.63823e-13 0 0 7.79749e-13 4.39502e-14 6.29758e-13 9.30581e-14 0 0 5.73732e-13 4.85785e-13 3.04572e-13 1.99808e-13 0 0 3.84889e-13 6.51041e-13 4.03667e-13 -5.19409e-14 0 0 1.77264e-13 6.61452e-13 6.72176e-13 -3.55117e-13 0 0 -1.84466e-14 7.69803e-13 6.32166e-13 -3.24952e-13 0 0 8.04443e-14 6.51015e-13 5.36767e-13 -1.29728e-13 0 0 2.48996e-13 5.20265e-13 4.14813e-13 4.03006e-14 0 0 3.60639e-13 4.54947e-13 2.83915e-13 1.35342e-13 0 0 4.27646e-13 3.87364e-13 2.01402e-13 1.7109e-13 0 0 4.81654e-13 2.85195e-13 1.8007e-13 1.90169e-13 0 0 5.33079e-13 1.62861e-13 2.00363e-13 2.2165e-13 0 0 5.49112e-13 6.67825e-14 2.08728e-13 2.9172e-13 0 0 5.03749e-13 2.31503e-14 1.77465e-13 3.92249e-13 0 0 3.96545e-13 2.81265e-14 1.29306e-13 4.77606e-13 0 0 2.51476e-13 6.47939e-14 8.73494e-14 5.13178e-13 0 0 1.21853e-13 9.32748e-14 7.29323e-14 4.89264e-13 0 0 5.17566e-14 8.82119e-14 7.82354e-14 4.35231e-13 0 0 5.39113e-14 4.41504e-14 9.04476e-14 3.89258e-13 0 0 1.10979e-13 -2.68948e-14 1.12041e-13 3.54334e-13 0 0 1.91557e-13 -1.12004e-13 1.48275e-13 3.27861e-13 0 0 2.60425e-13 -1.91872e-13 1.91077e-13 3.16497e-13 0 0 2.93955e-13 -2.52089e-13 2.45569e-13 3.05837e-13 0 0 2.89744e-13 -2.86239e-13 3.07324e-13 2.89854e-13 0 0 2.5204e-13 -2.82902e-13 3.52693e-13 2.8309e-13 0 0 1.91473e-13 -2.38069e-13 3.82104e-13 2.51317e-13 0 0 1.26204e-13 -1.74705e-13 3.78907e-13 2.0877e-13 0 0 7.95276e-14 -1.03379e-13 3.29133e-13 2.12696e-13 0 0 5.51601e-14 -5.04389e-14 3.10694e-13 1.95821e-13 0 0 5.41653e-14 -5.54161e-15 2.53073e-13 2.12475e-13 0 0 6.2013e-14 3.78536e-14 2.06312e-13 1.96076e-13 0 0 6.06934e-14 7.6775e-14 1.78488e-13 1.53712e-13 0 0 6.59319e-14 1.11584e-13 1.00543e-13 1.749e-13 0 0 8.17006e-14 8.84365e-14 9.84916e-14 1.64512e-13 0 0 8.2428e-14 7.9232e-14 1.27578e-13 8.11974e-14 0 0 8.40882e-14 7.81412e-14 1.23763e-13 2.37086e-14 0 0 9.70429e-14 5.76443e-14 9.46445e-14 5.0613e-14 0 0 1.03273e-13 4.80805e-14 1.0414e-13 -6.29093e-15 0 0 1.19869e-13 -1.08967e-14 2.37674e-13 -1.45427e-13 0 0 9.78916e-14 4.74209e-14 2.20725e-13 -1.23967e-13 0 0 1.15224e-13 9.79012e-14 1.61841e-13 -2.86963e-14 0 0 1.41989e-13 8.64063e-14 2.0468e-13 -7.95208e-14 0 0 1.20522e-13 1.86023e-13 1.1553e-13 -6.98007e-14 0 0 1.4295e-13 1.68842e-13 1.82339e-13 -3.41802e-14 0 0 1.15275e-13 2.73284e-13 7.22549e-14 1.46723e-13 0 0 1.14029e-13 3.42082e-13 -2.02083e-15 2.27605e-13 0 0 2.26219e-13 1.7067e-13 2.44842e-13 1.12628e-14 0 0 2.64754e-13 1.49417e-13 2.91582e-13 -5.91564e-16 0 0 3.04329e-13 1.28352e-13 3.3533e-13 -3.26137e-15 0 0 2.35783e-13 2.40015e-13 3.25327e-13 -3.02197e-14 0 0 1.48582e-13 4.16413e-13 1.37461e-13 2.21824e-13 0 0 2.56778e-13 2.96286e-13 2.43531e-13 2.6189e-13 0 0 2.97274e-13 2.84338e-13 3.20307e-13 1.84441e-13 0 0 2.78978e-13 3.73791e-13 2.51303e-13 2.17523e-13 0 0 3.21118e-13 3.40662e-13 2.76975e-13 2.11199e-13 0 0 3.35845e-13 3.771e-13 2.36074e-13 2.17936e-13 0 0 4.01743e-13 3.19721e-13 3.48982e-13 1.05632e-13 0 0 4.45432e-13 3.21444e-13 3.67444e-13 9.00904e-14 0 0 4.24525e-13 4.16226e-13 2.7432e-13 1.42381e-13 0 0 3.31897e-13 5.5598e-13 1.65975e-13 1.67604e-13 0 0 2.25413e-13 6.92033e-13 -2.83051e-14 2.68184e-13 0 0 4.73825e-13 2.80456e-13 2.48453e-13 1.63156e-13 0 0 5.89433e-13 7.24711e-14 4.13328e-13 1.03649e-13 0 0 5.35296e-13 1.23989e-13 3.60769e-13 1.4027e-13 0 0 3.34082e-13 4.2368e-13 1.04586e-13 2.71154e-13 0 0 1.83561e-13 7.36013e-13 -1.56908e-13 3.77684e-13 0 0 6.1728e-13 1.88959e-13 2.9042e-13 1.71236e-13 0 0 6.58555e-13 4.40648e-14 5.40486e-13 -1.44158e-14 0 0 4.6475e-13 2.30009e-13 4.69961e-13 -1.24126e-13 0 0 3.24949e-13 4.27787e-13 2.90495e-13 -1.76245e-13 0 0 3.14111e-13 4.87011e-13 1.69312e-13 -6.76277e-14 0 0 4.51097e-13 1.86976e-13 5.0852e-13 -1.86476e-13 0 0 4.80206e-13 2.73619e-14 7.20918e-13 -1.39869e-13 0 0 2.15321e-13 3.7362e-13 3.8198e-13 3.31021e-13 0 0 -2.79152e-13 1.00864e-12 -9.49034e-14 6.80311e-13 0 0 -1.31228e-13 6.66241e-13 3.66105e-13 4.25575e-13 0 0 4.32754e-13 -2.80144e-13 1.38466e-12 -1.54891e-13 0 0 6.68376e-13 -6.07956e-13 1.55699e-12 -1.40161e-13 0 0 3.49791e-13 -5.12743e-14 7.5116e-13 5.00298e-13 0 0 -2.03455e-13 6.80476e-13 -8.17237e-14 1.06505e-12 0 0 -3.35546e-13 6.93782e-13 -2.94814e-15 8.27575e-13 0 0 1.21116e-13 5.61147e-14 6.27768e-13 3.09867e-13 0 0 3.41549e-13 -1.74343e-13 7.75062e-13 2.18746e-13 0 0 2.98448e-13 -9.02762e-14 6.51577e-13 3.19722e-13 0 0 1.98397e-13 -1.66283e-14 7.88003e-13 9.86636e-14 0 0 3.71761e-14 1.62884e-13 7.01548e-13 1.35597e-13 0 0 -6.54493e-14 3.3073e-13 3.72522e-13 5.31472e-13 0 0 -9.69947e-14 3.04056e-13 3.13158e-13 6.32201e-13 0 0 2.17653e-13 -1.58747e-13 5.27755e-13 6.60316e-13 0 0 3.68357e-13 -2.45231e-13 4.46698e-13 7.06146e-13 0 0 9.73468e-14 8.40786e-14 1.97927e-13 7.4036e-13 0 0 -1.39781e-13 2.88527e-13 1.2052e-13 7.18147e-13 0 0 -2.21168e-13 3.52822e-13 1.54631e-13 5.85149e-13 0 0 1.19852e-13 -3.32373e-14 4.22469e-13 3.5143e-13 0 0 4.11018e-13 -2.79378e-13 4.93194e-13 2.46777e-13 0 0 1.2855e-13 1.81908e-13 1.89721e-13 2.00212e-13 0 0 -1.51198e-13 6.23482e-13 6.0223e-16 4.45019e-14 0 0 -3.05497e-13 8.53703e-13 -1.9975e-13 2.02279e-13 0 0 2.86518e-14 2.66293e-13 3.27718e-13 -5.25204e-15 0 0 3.44894e-13 -9.56641e-14 4.44523e-13 1.44733e-13 0 0 2.58423e-13 1.37775e-13 8.95629e-14 5.83291e-13 0 0 2.14685e-13 1.42071e-13 2.60142e-13 3.70032e-13 0 0 1.92881e-13 3.3235e-13 7.25476e-14 2.42026e-13 0 0 4.47802e-13 -3.82372e-14 5.95317e-13 -2.77953e-13 0 0 5.32443e-13 -1.99985e-13 8.78543e-13 -3.68381e-13 0 0 3.52752e-13 3.90765e-13 -5.06253e-14 4.7373e-13 0 0 4.22315e-13 5.84326e-13 -5.8182e-13 9.19018e-13 0 0 6.89932e-13 1.59163e-13 -7.13673e-14 4.48967e-13 0 0 7.53762e-13 -1.66768e-13 4.68777e-13 3.67607e-14 0 0 4.31278e-13 2.16443e-13 5.13351e-14 4.06785e-13 0 0 7.9389e-14 8.43964e-13 -8.46982e-13 1.13023e-12 0 0 4.91078e-13 4.23825e-13 -8.3268e-13 1.36177e-12 0 0 1.06915e-12 -4.01339e-13 -1.30095e-13 1.05701e-12 0 0 9.10144e-13 -2.57219e-13 -1.37397e-14 9.28761e-13 0 0 1.31447e-13 9.33814e-13 -7.98593e-13 1.2506e-12 0 0 -4.24081e-13 1.79048e-12 -1.41372e-12 1.53129e-12 0
				</DataArray>
				<DataArray Name="VitesseY" type="Float32" format="ascii">