<?xml version="1.0"?>
<VTKFile type="PolyData">
	<PolyData>
		<Piece NumberOfPoints="1206" NumberOfPolys="1000">
			<Points>
				<DataArray type="Float32" NumberOfComponents="3" format="ascii">
 0 0 0 0.02 0 0 0.04 0 0 0.06 0 0 0.08 0 0 0.1 0 0 0 0.005 0 0.02 0.005 0 0.04 0.005 0 0.06 0.005 0 0.08 0.005 0 0.1 0.005 0 0 0.01 0 0.02 0.01 0 0.04 0.01 0 0.06 0.01 0 0.08 0.01 0 0.1 0.01 0 0 0.015 0 0.02 0.015 0 0.04 0.015 0 0.06 0.015 0 0.08 0.015 0 0.1 0.015 0 0 0.02 0 0.02 0.02 0 0.04 0.02 0 0.06 0.02 0 0.08 0.02 0 0.1 0.02 0 0 0.025 0 0.02 0.025 0 0.04 0.025 0 0.06 0.025 0 0.08 0.025 0 0.1 0.025 0 0 0.03 0 0.02 0.03 0 0.04 0.03 0 0.06 0.03 0 0.08 0.03 0 0.1 0.03 0 0 0.035 0 0.02 0.035 0 0.04 0.035 0 0.06 0.035 0 0.08 0.035 0 0.1 0.035 0 0 0.04 0 0.02 0.04 0 0.04 0.04 0 0.06 0.04 0 0.08 0.04 0 0.1 0.04 0 0 0.045 0 0.02 0.045 0 0.04 0.045 0 0.06 0.045 0 0.08 0.045 0 0.1 0.045 0 0 0.05 0 0.02 0.05 0 0.04 0.05 0 0.06 0.05 0 0.08 0.05 0 0.1 0.05 0 0 0.055 0 0.02 0.055 0 0.04 0.055 0 0.06 0.055 0 0.08 0.055 0 0.1 0.055 0 0 0.06 0 0.02 0.06 0 0.04 0.06 0 0.06 0.06 0 0.08 0.06 0 0.1 0.06 0 0 0.065 0 0.02 0.065 0 0.04 0.065 0 0.06 0.065 0 0.08 0.065 0 0.1 0.065 0 0 0.07 0 0.02 0.07 0 0.04 0.07 0 0.06 0.07 0 0.08 0.07 0 0.1 0.07 0 0 0.075 0 0.02 0.075 0 0.04 0.075 0 0.06 0.075 0 0.08 0.075 0 0.1 0.075 0 0 0.08 0 0.02 0.08 0 0.04 0.08 0 0.06 0.08 0 0.08 0.08 0 0.1 0.08 0 0 0.085 0 0.02 0.085 0 0.04 0.085 0 0.06 0.085 0 0.08 0.085 0 0.1 0.085 0 0 0.09 0 0.02 0.09 0 0.04 0.09 0 0.06 0.09 0 0.08 0.09 0 0.1 0.09 0 0 0.095 0 0.02 0.095 0 0.04 0.095 0 0.06 0.095 0 0.08 0.095 0 0.1 0.095 0 0 0.1 0 0.02 0.1 0 0.04 0.1 0 0.06 0.1 0 0.08 0.1 0 0.1 0.1 0 0 0.105 0 0.02 0.105 0 0.04 0.105 0 0.06 0.105 0 0.08 0.105 0 0.1 0.105 0 0 0.11 0 0.02 0.11 0 0.04 0.11 0 0.06 0.11 0 0.08 0.11 0 0.1 0.11 0 0 0.115 0 0.02 0.115 0 0.04 0.115 0 0.06 0.115 0 0.08 0.115 0 0.1 0.115 0 0 0.12 0 0.02 0.12 0 0.04 0.12 0 0.06 0.12 0 0.08 0.12 0 0.1 0.12 0 0 0.125 0 0.02 0.125 0 0.04 0.125 0 0.06 0.125 0 0.08 0.125 0 0.1 0.125 0 0 0.13 0 0.02 0.13 0 0.04 0.13 0 0.06 0.13 0 0.08 0.13 0 0.1 0.13 0 0 0.135 0 0.02 0.135 0 0.04 0.135 0 0.06 0.135 0 0.08 0.135 0 0.1 0.135 0 0 0.14 0 0.02 0.14 0 0.04 0.14 0 0.06 0.14 0 0.08 0.14 0 0.1 0.14 0 0 0.145 0 0.02 0.145 0 0.04 0.145 0 0.06 0.145 0 0.08 0.145 0 0.1 0.145 0 0 0.15 0 0.02 0.15 0 0.04 0.15 0 0.06 0.15 0 0.08 0.15 0 0.1 0.15 0 0 0.155 0 0.02 0.155 0 0.04 0.155 0 0.06 0.155 0 0.08 0.155 0 0.1 0.155 0 0 0.16 0 0.02 0.16 0 0.04 0.16 0 0.06 0.16 0 0.08 0.16 0 0.1 0.16 0 0 0.165 0 0.02 0.165 0 0.04 0.165 0 0.06 0.165 0 0.08 0.165 0 0.1 0.165 0 0 0.17 0 0.02 0.17 0 0.04 0.17 0 0.06 0.17 0 0.08 0.17 0 0.1 0.17 0 0 0.175 0 0.02 0.175 0 0.04 0.175 0 0.06 0.175 0 0.08 0.175 0 0.1 0.175 0 0 0.18 0 0.02 0.18 0 0.04 0.18 0 0.06 0.18 0 0.08 0.18 0 0.1 0.18 0 0 0.185 0 0.02 0.185 0 0.04 0.185 0 0.06 0.185 0 0.08 0.185 0 0.1 0.185 0 0 0.19 0 0.02 0.19 0 0.04 0.19 0 0.06 0.19 0 0.08 0.19 0 0.1 0.19 0 0 0.195 0 0.02 0.195 0 0.04 0.195 0 0.06 0.195 0 0.08 0.195 0 0.1 0.195 0 0 0.2 0 0.02 0.2 0 0.04 0.2 0 0.06 0.2 0 0.08 0.2 0 0.1 0.2 0 0 0.205 0 0.02 0.205 0 0.04 0.205 0 0.06 0.205 0 0.08 0.205 0 0.1 0.205 0 0 0.21 0 0.02 0.21 0 0.04 0.21 0 0.06 0.21 0 0.08 0.21 0 0.1 0.21 0 0 0.215 0 0.02 0.215 0 0.04 0.215 0 0.06 0.215 0 0.08 0.215 0 0.1 0.215 0 0 0.22 0 0.02 0.22 0 0.04 0.22 0 0.06 0.22 0 0.08 0.22 0 0.1 0.22 0 0 0.225 0 0.02 0.225 0 0.04 0.225 0 0.06 0.225 0 0.08 0.225 0 0.1 0.225 0 0 0.23 0 0.02 0.23 0 0.04 0.23 0 0.06 0.23 0 0.08 0.23 0 0.1 0.23 0 0 0.235 0 0.02 0.235 0 0.04 0.235 0 0.06 0.235 0 0.08 0.235 0 0.1 0.235 0 0 0.24 0 0.02 0.24 0 0.04 0.24 0 0.06 0.24 0 0.08 0.24 0 0.1 0.24 0 0 0.245 0 0.02 0.245 0 0.04 0.245 0 0.06 0.245 0 0.08 0.245 0 0.1 0.245 0 0 0.25 0 0.02 0.25 0 0.04 0.25 0 0.06 0.25 0 0.08 0.25 0 0.1 0.25 0 0 0.255 0 0.02 0.255 0 0.04 0.255 0 0.06 0.255 0 0.08 0.255 0 0.1 0.255 0 0 0.26 0 0.02 0.26 0 0.04 0.26 0 0.06 0.26 0 0.08 0.26 0 0.1 0.26 0 0 0.265 0 0.02 0.265 0 0.04 0.265 0 0.06 0.265 0 0.08 0.265 0 0.1 0.265 0 0 0.27 0 0.02 0.27 0 0.04 0.27 0 0.06 0.27 0 0.08 0.27 0 0.1 0.27 0 0 0.275 0 0.02 0.275 0 0.04 0.275 0 0.06 0.275 0 0.08 0.275 0 0.1 0.275 0 0 0.28 0 0.02 0.28 0 0.04 0.28 0 0.06 0.28 0 0.08 0.28 0 0.1 0.28 0 0 0.285 0 0.02 0.285 0 0.04 0.285 0 0.06 0.285 0 0.08 0.285 0 0.1 0.285 0 0 0.29 0 0.02 0.29 0 0.04 0.29 0 0.06 0.29 0 0.08 0.29 0 0.1 0.29 0 0 0.295 0 0.02 0.295 0 0.04 0.295 0 0.06 0.295 0 0.08 0.295 0 0.1 0.295 0 0 0.3 0 0.02 0.3 0 0.04 0.3 0 0.06 0.3 0 0.08 0.3 0 0.1 0.3 0 0 0.305 0 0.02 0.305 0 0.04 0.305 0 0.06 0.305 0 0.08 0.305 0 0.1 0.305 0 0 0.31 0 0.02 0.31 0 0.04 0.31 0 0.06 0.31 0 0.08 0.31 0 0.1 0.31 0 0 0.315 0 0.02 0.315 0 0.04 0.315 0 0.06 0.315 0 0.08 0.315 0 0.1 0.315 0 0 0.32 0 0.02 0.32 0 0.04 0.32 0 0.06 0.32 0 0.08 0.32 0 0.1 0.32 0 0 0.325 0 0.02 0.325 0 0.04 0.325 0 0.06 0.325 0 0.08 0.325 0 0.1 0.325 0 0 0.33 0 0.02 0.33 0 0.04 0.33 0 0.06 0.33 0 0.08 0.33 0 0.1 0.33 0 0 0.335 0 0.02 0.335 0 0.04 0.335 0 0.06 0.335 0 0.08 0.335 0 0.1 0.335 0 0 0.34 0 0.02 0.34 0 0.04 0.34 0 0.06 0.34 0 0.08 0.34 0 0.1 0.34 0 0 0.345 0 0.02 0.345 0 0.04 0.345 0 0.06 0.345 0 0.08 0.345 0 0.1 0.345 0 0 0.35 0 0.02 0.35 0 0.04 0.35 0 0.06 0.35 0 0.08 0.35 0 0.1 0.35 0 0 0.355 0 0.02 0.355 0 0.04 0.355 0 0.06 0.355 0 0.08 0.355 0 0.1 0.355 0 0 0.36 0 0.02 0.36 0 0.04 0.36 0 0.06 0.36 0 0.08 0.36 0 0.1 0.36 0 0 0.365 0 0.02 0.365 0 0.04 0.365 0 0.06 0.365 0 0.08 0.365 0 0.1 0.365 0 0 0.37 0 0.02 0.37 0 0.04 0.37 0 0.06 0.37 0 0.08 0.37 0 0.1 0.37 0 0 0.375 0 0.02 0.375 0 0.04 0.375 0 0.06 0.375 0 0.08 0.375 0 0.1 0.375 0 0 0.38 0 0.02 0.38 0 0.04 0.38 0 0.06 0.38 0 0.08 0.38 0 0.1 0.38 0 0 0.385 0 0.02 0.385 0 0.04 0.385 0 0.06 0.385 0 0.08 0.385 0 0.1 0.385 0 0 0.39 0 0.02 0.39 0 0.04 0.39 0 0.06 0.39 0 0.08 0.39 0 0.1 0.39 0 0 0.395 0 0.02 0.395 0 0.04 0.395 0 0.06 0.395 0 0.08 0.395 0 0.1 0.395 0 0 0.4 0 0.02 0.4 0 0.04 0.4 0 0.06 0.4 0 0.08 0.4 0 0.1 0.4 0 0 0.405 0 0.02 0.405 0 0.04 0.405 0 0.06 0.405 0 0.08 0.405 0 0.1 0.405 0 0 0.41 0 0.02 0.41 0 0.04 0.41 0 0.06 0.41 0 0.08 0.41 0 0.1 0.41 0 0 0.415 0 0.02 0.415 0 0.04 0.415 0 0.06 0.415 0 0.08 0.415 0 0.1 0.415 0 0 0.42 0 0.02 0.42 0 0.04 0.42 0 0.06 0.42 0 0.08 0.42 0 0.1 0.42 0 0 0.425 0 0.02 0.425 0 0.04 0.425 0 0.06 0.425 0 0.08 0.425 0 0.1 0.425 0 0 0.43 0 0.02 0.43 0 0.04 0.43 0 0.06 0.43 0 0.08 0.43 0 0.1 0.43 0 0 0.435 0 0.02 0.435 0 0.04 0.435 0 0.06 0.435 0 0.08 0.435 0 0.1 0.435 0 0 0.44 0 0.02 0.44 0 0.04 0.44 0 0.06 0.44 0 0.08 0.44 0 0.1 0.44 0 0 0.445 0 0.02 0.445 0 0.04 0.445 0 0.06 0.445 0 0.08 0.445 0 0.1 0.445 0 0 0.45 0 0.02 0.45 0 0.04 0.45 0 0.06 0.45 0 0.08 0.45 0 0.1 0.45 0 0 0.455 0 0.02 0.455 0 0.04 0.455 0 0.06 0.455 0 0.08 0.455 0 0.1 0.455 0 0 0.46 0 0.02 0.46 0 0.04 0.46 0 0.06 0.46 0 0.08 0.46 0 0.1 0.46 0 0 0.465 0 0.02 0.465 0 0.04 0.465 0 0.06 0.465 0 0.08 0.465 0 0.1 0.465 0 0 0.47 0 0.02 0.47 0 0.04 0.47 0 0.06 0.47 0 0.08 0.47 0 0.1 0.47 0 0 0.475 0 0.02 0.475 0 0.04 0.475 0 0.06 0.475 0 0.08 0.475 0 0.1 0.475 0 0 0.48 0 0.02 0.48 0 0.04 0.48 0 0.06 0.48 0 0.08 0.48 0 0.1 0.48 0 0 0.485 0 0.02 0.485 0 0.04 0.485 0 0.06 0.485 0 0.08 0.485 0 0.1 0.485 0 0 0.49 0 0.02 0.49 0 0.04 0.49 0 0.06 0.49 0 0.08 0.49 0 0.1 0.49 0 0 0.495 0 0.02 0.495 0 0.04 0.495 0 0.06 0.495 0 0.08 0.495 0 0.1 0.495 0 0 0.5 0 0.02 0.5 0 0.04 0.5 0 0.06 0.5 0 0.08 0.5 0 0.1 0.5 0 0 0.505 0 0.02 0.505 0 0.04 0.505 0 0.06 0.505 0 0.08 0.505 0 0.1 0.505 0 0 0.51 0 0.02 0.51 0 0.04 0.51 0 0.06 0.51 0 0.08 0.51 0 0.1 0.51 0 0 0.515 0 0.02 0.515 0 0.04 0.515 0 0.06 0.515 0 0.08 0.515 0 0.1 0.515 0 0 0.52 0 0.02 0.52 0 0.04 0.52 0 0.06 0.52 0 0.08 0.52 0 0.1 0.52 0 0 0.525 0 0.02 0.525 0 0.04 0.525 0 0.06 0.525 0 0.08 0.525 0 0.1 0.525 0 0 0.53 0 0.02 0.53 0 0.04 0.53 0 0.06 0.53 0 0.08 0.53 0 0.1 0.53 0 0 0.535 0 0.02 0.535 0 0.04 0.535 0 0.06 0.535 0 0.08 0.535 0 0.1 0.535 0 0 0.54 0 0.02 0.54 0 0.04 0.54 0 0.06 0.54 0 0.08 0.54 0 0.1 0.54 0 0 0.545 0 0.02 0.545 0 0.04 0.545 0 0.06 0.545 0 0.08 0.545 0 0.1 0.545 0 0 0.55 0 0.02 0.55 0 0.04 0.55 0 0.06 0.55 0 0.08 0.55 0 0.1 0.55 0 0 0.555 0 0.02 0.555 0 0.04 0.555 0 0.06 0.555 0 0.08 0.555 0 0.1 0.555 0 0 0.56 0 0.02 0.56 0 0.04 0.56 0 0.06 0.56 0 0.08 0.56 0 0.1 0.56 0 0 0.565 0 0.02 0.565 0 0.04 0.565 0 0.06 0.565 0 0.08 0.565 0 0.1 0.565 0 0 0.57 0 0.02 0.57 0 0.04 0.57 0 0.06 0.57 0 0.08 0.57 0 0.1 0.57 0 0 0.575 0 0.02 0.575 0 0.04 0.575 0 0.06 0.575 0 0.08 0.575 0 0.1 0.575 0 0 0.58 0 0.02 0.58 0 0.04 0.58 0 0.06 0.58 0 0.08 0.58 0 0.1 0.58 0 0 0.585 0 0.02 0.585 0 0.04 0.585 0 0.06 0.585 0 0.08 0.585 0 0.1 0.585 0 0 0.59 0 0.02 0.59 0 0.04 0.59 0 0.06 0.59 0 0.08 0.59 0 0.1 0.59 0 0 0.595 0 0.02 0.595 0 0.04 0.595 0 0.06 0.595 0 0.08 0.595 0 0.1 0.595 0 0 0.6 0 0.02 0.6 0 0.04 0.6 0 0.06 0.6 0 0.08 0.6 0 0.1 0.6 0 0 0.605 0 0.02 0.605 0 0.04 0.605 0 0.06 0.605 0 0.08 0.605 0 0.1 0.605 0 0 0.61 0 0.02 0.61 0 0.04 0.61 0 0.06 0.61 0 0.08 0.61 0 0.1 0.61 0 0 0.615 0 0.02 0.615 0 0.04 0.615 0 0.06 0.615 0 0.08 0.615 0 0.1 0.615 0 0 0.62 0 0.02 0.62 0 0.04 0.62 0 0.06 0.62 0 0.08 0.62 0 0.1 0.62 0 0 0.625 0 0.02 0.625 0 0.04 0.625 0 0.06 0.625 0 0.08 0.625 0 0.1 0.625 0 0 0.63 0 0.02 0.63 0 0.04 0.63 0 0.06 0.63 0 0.08 0.63 0 0.1 0.63 0 0 0.635 0 0.02 0.635 0 0.04 0.635 0 0.06 0.635 0 0.08 0.635 0 0.1 0.635 0 0 0.64 0 0.02 0.64 0 0.04 0.64 0 0.06 0.64 0 0.08 0.64 0 0.1 0.64 0 0 0.645 0 0.02 0.645 0 0.04 0.645 0 0.06 0.645 0 0.08 0.645 0 0.1 0.645 0 0 0.65 0 0.02 0.65 0 0.04 0.65 0 0.06 0.65 0 0.08 0.65 0 0.1 0.65 0 0 0.655 0 0.02 0.655 0 0.04 0.655 0 0.06 0.655 0 0.08 0.655 0 0.1 0.655 0 0 0.66 0 0.02 0.66 0 0.04 0.66 0 0.06 0.66 0 0.08 0.66 0 0.1 0.66 0 0 0.665 0 0.02 0.665 0 0.04 0.665 0 0.06 0.665 0 0.08 0.665 0 0.1 0.665 0 0 0.67 0 0.02 0.67 0 0.04 0.67 0 0.06 0.67 0 0.08 0.67 0 0.1 0.67 0 0 0.675 0 0.02 0.675 0 0.04 0.675 0 0.06 0.675 0 0.08 0.675 0 0.1 0.675 0 0 0.68 0 0.02 0.68 0 0.04 0.68 0 0.06 0.68 0 0.08 0.68 0 0.1 0.68 0 0 0.685 0 0.02 0.685 0 0.04 0.685 0 0.06 0.685 0 0.08 0.685 0 0.1 0.685 0 0 0.69 0 0.02 0.69 0 0.04 0.69 0 0.06 0.69 0 0.08 0.69 0 0.1 
[...]
			<PointData Scalars="VitesseX">
				<DataArray Name="VitesseX" type="Float32" format="ascii">
 0 -8.0608e-15 -1.26479e-14 -1.97818e-14 -2.61089e-14 0 0 -8.60901e-15 -1.30859e-14 -2.02217e-14 -2.65231e-14 0 0 -9.71661e-15 -1.55689e-14 -2.039e-14 -2.69762e-14 0 0 -1.36136e-14 -1.44833e-14 -2.64571e-14 -2.53198e-14 0 0 -1.62345e-14 -1.58751e-14 -3.01034e-14 -2.85416e-14 0 0 -1.26456e-14 -2.95872e-14 -2.18984e-14 -3.52349e-14 0 0 -1.53373e-14 -3.67339e-14 -1.8403e-14 -3.57761e-14 0 0 -1.94733e-14 -3.9418e-14 -1.8063e-14 -3.38102e-14 0 0 -2.06759e-14 -3.68136e-14 -2.88672e-14 -2.41575e-14 0 0 -2.81642e-14 -2.30854e-14 -5.03043e-14 -9.74971e-15 0 0 -2.59182e-14 -3.0021e-14 -4.37603e-14 -1.21939e-14 0 0 -1.26935e-14 -5.10029e-14 -2.11005e-14 -2.40611e-14 0 0 -1.18097e-14 -4.61585e-14 -2.78276e-14 -1.46993e-14 0 0 -1.82374e-14 -2.13221e-14 -5.80264e-14 9.0212e-15 0 0 -1.95223e-14 2.13394e-15 -8.31437e-14 1.81536e-14 0 0 -8.47792e-15 -7.17685e-15 -6.3098e-14 -3.90156e-15 0 0 -1.66051e-15 -1.70619e-14 -3.76512e-14 -2.06635e-14 0 0 3.68526e-15 -1.30879e-14 -3.78399e-14 -1.19428e-14 0 0 1.57365e-14 -1.83358e-14 -2.92334e-14 -1.80929e-14 0 0 3.44078e-14 -3.82551e-14 -7.57464e-15 -3.57848e-14 0 0 2.68581e-14 -3.26417e-14 -3.7252e-15 -4.34239e-14 0 0 -2.10228e-14 2.45947e-14 -4.83861e-14 -2.87785e-14 0 0 -2.39293e-14 2.14507e-14 -7.45826e-14 7.01693e-15 0 0 6.86809e-15 -2.8409e-14 -5.82997e-14 1.27532e-14 0 0 -1.05635e-15 -3.54445e-14 -3.74141e-14 -2.12012e-14 0 0 -2.5488e-14 -2.08137e-14 -3.50724e-14 -4.07769e-14 0 0 -1.80188e-14 -4.80605e-14 -2.8005e-14 -4.42835e-14 0 0 -2.21471e-14 -5.9023e-14 -3.43047e-14 -4.10062e-14 0 0 -4.29873e-14 -2.80803e-14 -6.5797e-14 -4.33333e-14 0 0 -4.73337e-14 -1.86283e-14 -6.03263e-14 -9.02745e-14 0 0 -4.01059e-14 -3.42125e-14 -4.29163e-14 -1.14081e-13 0 0 -3.58306e-14 -3.72992e-14 -4.76244e-14 -9.7275e-14 0 0 -4.60474e-14 -8.12045e-15 -7.5248e-14 -7.72996e-14 0 0 -3.68483e-14 8.90381e-15 -1.04607e-13 -6.13693e-14 0 0 2.25596e-15 -2.71925e-14 -7.56441e-14 -8.37502e-14 0 0 1.25247e-14 -6.76428e-14 -1.82666e-14 -1.09327e-13 0 0 -1.01075e-14 -5.14378e-14 -1.75458e-14 -9.63e-14 0 0 -5.08406e-14 1.83276e-14 -8.50128e-14 -3.86768e-14 0 0 -2.66776e-14 -1.36689e-14 -5.29853e-14 -5.022e-14 0 0 -2.01107e-14 -3.16205e-14 -3.93223e-14 -4.13708e-14 0 0 -5.94791e-14 1.6712e-14 -8.35984e-14 -7.74592e-15 0 0 -4.90914e-14 -6.30878e-15 -5.74297e-14 -4.88207e-14 0 0 -7.09252e-15 -7.80107e-14 7.2436e-15 -1.31876e-13 0 0 3.55284e-14 -1.53622e-13 7.32475e-14 -1.95716e-13 0 0 -1.79531e-14 -8.55782e-14 -6.31617e-15 -1.31163e-13 0 0 -7.54693e-14 -1.13345e-14 -9.69525e-14 -5.56066e-14 0 0 -1.24889e-13 2.22237e-14 -1.40591e-13 -1.01019e-16 0 0 -1.48635e-13 2.33979e-15 -1.09441e-13 2.10762e-14 0 0 -9.08274e-14 -1.07095e-13 1.81363e-15 -1.42898e-14 0 0 -5.36908e-14 -1.76759e-13 5.763e-14 -4.56251e-14 0 0 -8.71013e-14 -1.44978e-13 4.29074e-14 -7.21445e-14 0 0 -4.82803e-14 -1.64826e-13 5.7344e-14 -1.2724e-13 0 0 -3.19167e-14 -1.31874e-13 -3.80187e-15 -1.0882e-13 0 0 -9.25075e-14 -5.69048e-14 -4.98873e-14 -1.11858e-13 0 0 -9.98954e-14 -8.93358e-14 1.12405e-14 -1.58472e-13 0 0 -5.96936e-14 -1.50007e-13 4.95543e-14 -1.41658e-13 0 0 -8.09766e-15 -2.38549e-13 8.81691e-14 -1.07841e-13 0 0 -2.61764e-14 -2.60539e-13 9.71698e-14 -1.17206e-13 0 0 -5.31684e-14 -1.95965e-13 -7.39538e-15 -1.38721e-13 0 0 -6.33579e-14 -1.58093e-13 -7.9047e-14 -1.86988e-13 0 0 -6.77178e-14 -1.5501e-13 -1.05831e-13 -1.73357e-13 0 0 -6.29357e-14 -1.64313e-13 -9.6096e-14 -1.27962e-13 0 0 -8.10343e-14 -1.89375e-13 -9.59217e-15 -1.71776e-13 0 0 -1.27788e-13 -1.93716e-13 9.60246e-15 -1.90727e-13 0 0 -1.6175e-13 -2.29734e-13 3.73581e-14 -2.04635e-13 0 0 -2.1131e-13 -2.16986e-13 6.86681e-15 -1.61253e-13 0 0 -2.87859e-13 -1.58197e-13 -3.93465e-14 -1.25894e-13 0 0 -3.0016e-13 -1.52121e-13 -3.44512e-14 -1.45127e-13 0 0 -2.69267e-13 -1.46673e-13 -7.85041e-14 -1.38442e-13 0 0 -2.36583e-13 -1.49587e-13 -1.19297e-13 -1.39963e-13 0 0 -2.12928e-13 -1.82563e-13 -1.03428e-13 -1.91117e-13 0 0 -1.98352e-13 -2.28679e-13 -6.90545e-14 -2.39507e-13 0 0 -1.83474e-13 -2.76413e-13 -5.59948e-14 -2.40432e-13 0 0 -1.78213e-13 -3.028e-13 -7.433e-14 -2.16291e-13 0 0 -1.92236e-13 -3.08968e-13 -9.36514e-14 -1.95283e-13 0 0 -2.30047e-13 -3.03115e-13 -8.62037e-14 -1.8991e-13 0 0 -2.8234e-13 -2.90725e-13 -4.65354e-14 -1.95533e-13 0 0 -3.31857e-13 -2.7465e-13 4.30875e-15 -1.90145e-13 0 0 -3.65011e-13 -2.57618e-13 4.73852e-14 -1.71502e-13 0 0 -3.74302e-13 -2.48766e-13 9.04783e-14 -1.60165e-13 0 0 -3.49556e-13 -2.68881e-13 1.46641e-13 -1.79187e-13 0 0 -2.93464e-13 -3.17205e-13 2.01267e-13 -2.18274e-13 0 0 -2.33884e-13 -3.53591e-13 2.17279e-13 -2.50478e-13 0 0 -1.86232e-13 -3.58487e-13 1.85107e-13 -2.62345e-13 0 0 -1.53195e-13 -3.35565e-13 1.21418e-13 -2.61231e-13 0 0 -1.32365e-13 -2.90382e-13 2.98594e-14 -2.44736e-13 0 0 -1.17543e-13 -2.41343e-13 -7.01008e-14 -2.17361e-13 0 0 -1.06054e-13 -1.99911e-13 -1.5843e-13 -1.91855e-13 0 0 -9.43393e-14 -1.7304e-13 -2.24118e-13 -1.77114e-13 0 0 -8.04033e-14 -1.65474e-13 -2.55609e-13 -1.79073e-13 0 0 -6.40362e-14 -1.72634e-13 -2.59124e-13 -2.01036e-13 0 0 -4.06746e-14 -1.94832e-13 -2.44389e-13 -2.41575e-13 0 0 -1.2053e-14 -2.26354e-13 -2.23073e-13 -2.88367e-13 0 0 1.27346e-14 -2.50605e-13 -2.12981e-13 -3.31753e-13 0 0 3.27724e-14 -2.66418e-13 -2.17204e-13 -3.65707e-13 0 0 4.8681e-14 -2.72621e-13 -2.38803e-13 -3.87722e-13 0 0 6.06089e-14 -2.63953e-13 -2.83197e-13 -3.94198e-13 0 0 7.16592e-14 -2.48619e-13 -3.38071e-13 -3.88285e-13 0 0 8.20743e-14 -2.34136e-13 -3.88935e-13 -3.83641e-13 0 0 9.38276e-14 -2.23451e-13 -4.37885e-13 -3.72215e-13 0 0 1.12679e-13 -2.24749e-13 -4.8089e-13 -3.52204e-13 0 0 1.39498e-13 -2.42447e-13 -5.07597e-13 -3.35245e-13 0 0 1.677e-13 -2.69783e-13 -5.21765e-13 -3.18813e-13 0 0 1.88078e-13 -2.96982e-13 -5.32851e-13 -2.93626e-13 0 0 1.94502e-13 -3.17659e-13 -5.42949e-13 -2.61729e-13 0 0 1.84158e-13 -3.31275e-13 -5.44737e-13 -2.36688e-13 0 0 1.58126e-13 -3.38194e-13 -5.36892e-13 -2.21647e-13 0 0 1.2017e-13 -3.37767e-13 -5.242e-13 -2.1541e-13 0 0 7.26461e-14 -3.33448e-13 -5.08407e-13 -2.10788e-13 0 0 1.8854e-14 -3.30077e-13 -4.85816e-13 -2.07243e-13 0 0 -3.80356e-14 -3.24442e-13 -4.59704e-13 -2.09978e-13 0 0 -9.67254e-14 -3.12161e-13 -4.3713e-13 -2.16871e-13 0 0 -1.54004e-13 -2.97058e-13 -4.10322e-13 -2.31873e-13 0 0 -2.06453e-13 -2.83355e-13 -3.71324e-13 -2.56444e-13 0 0 -2.53334e-13 -2.67371e-13 -3.32444e-13 -2.73371e-13 0 0 -2.79116e-13 -2.63345e-13 -3.06787e-13 -2.45021e-13 0 0 -2.81521e-13 -2.64184e-13 -2.80608e-13 -2.41801e-13 0 0 -2.91667e-13 -2.47199e-13 -2.56074e-13 -2.55936e-13 0 0 -3.08078e-13 -2.29153e-13 -2.2871e-13 -2.41989e-13 0 0 -3.16148e-13 -1.98042e-13 -2.17348e-13 -2.37245e-13 0 0 -3.10359e-13 -1.77448e-13 -2.14318e-13 -2.13521e-13 0 0 -3.05564e-13 -1.88395e-13 -1.86184e-13 -1.66287e-13 0 0 -2.96411e-13 -1.97815e-13 -1.48973e-13 -1.51151e-13 0 0 -2.8237e-13 -1.94287e-13 -1.30047e-13 -1.34659e-13 0 0 -2.72576e-13 -1.81688e-13 -1.35523e-13 -8.77324e-14 0 0 -2.577e-13 -1.8722e-13 -8.87553e-14 -1.05221e-13 0 0 -2.46513e-13 -1.86684e-13 -5.83935e-14 -1.36109e-13 0 0 -2.31183e-13 -1.75531e-13 -8.15543e-14 -8.98534e-14 0 0 -2.18833e-13 -1.75144e-13 -8.78482e-14 -5.72106e-14 0 0 -2.12134e-13 -1.70909e-13 -9.99709e-14 -3.63699e-14 0 0 -2.08459e-13 -1.68867e-13 -1.07109e-13 3.84437e-15 0 0 -2.01656e-13 -1.73113e-13 -1.06511e-13 -1.61301e-14 0 0 -1.93693e-13 -1.55825e-13 -1.32058e-13 -3.1628e-14 0 0 -2.00042e-13 -1.3832e-13 -1.48733e-13 -5.26794e-14 0 0 -2.0499e-13 -1.3583e-13 -1.55312e-13 -1.00427e-13 0 0 -1.93087e-13 -1.49141e-13 -1.59387e-13 -8.56743e-14 0 0 -1.78079e-13 -1.91189e-13 -1.13415e-13 -9.79003e-14 0 0 -1.75138e-13 -1.92648e-13 -1.34419e-13 -1.06288e-13 0 0 -1.81393e-13 -1.74466e-13 -1.65005e-13 -9.98428e-14 0 0 -1.81039e-13 -1.78064e-13 -1.60887e-13 -1.26978e-13 0 0 -1.69643e-13 -1.74425e-13 -2.04465e-13 -1.2595e-13 0 0 -1.48128e-13 -1.9066e-13 -2.0302e-13 -1.46382e-13 0 0 -1.40542e-13 -2.13293e-13 -1.83501e-13 -1.58716e-13 0 0 -1.42518e-13 -2.16749e-13 -2.05902e-13 -1.61439e-13 0 0 -1.3498e-13 -2.23721e-13 -2.21657e-13 -1.64174e-13 0 0 -1.38585e-13 -2.36213e-13 -2.37027e-13 -1.37402e-13 0 0 -1.50934e-13 -2.3404e-13 -2.62489e-13 -1.43372e-13 0 0 -1.55148e-13 -2.36954e-13 -2.87382e-13 -1.68172e-13 0 0 -1.58476e-13 -2.81874e-13 -2.77364e-13 -1.86256e-13 0 0 -1.5717e-13 -3.36448e-13 -2.59878e-13 -2.11613e-13 0 0 -1.6396e-13 -3.29805e-13 -3.20705e-13 -2.47296e-13 0 0 -1.73947e-13 -2.97031e-13 -3.98841e-13 -3.04008e-13 0 0 -1.6589e-13 -3.0831e-13 -4.16168e-13 -3.45569e-13 0 0 -1.54398e-13 -3.20441e-13 -4.3476e-13 -3.08869e-13 0 0 -1.54538e-13 -3.13971e-13 -4.44329e-13 -2.47019e-13 0 0 -1.69836e-13 -3.10236e-13 -3.74676e-13 -2.48862e-13 0 0 -1.87953e-13 -2.97677e-13 -3.36651e-13 -1.94999e-13 0 0 -1.98891e-13 -3.1449e-13 -2.90195e-13 -1.47658e-13 0 0 -1.83935e-13 -3.85907e-13 -1.60651e-13 -2.41506e-13 0 0 -1.73071e-13 -4.3305e-13 -5.25821e-14 -2.93941e-13 0 0 -1.64105e-13 -4.18234e-13 -6.42853e-14 -2.41598e-13 0 0 -1.26523e-13 -3.98184e-13 -1.4603e-13 -2.39967e-13 0 0 -1.75027e-13 -3.40714e-13 -2.54059e-13 -2.74507e-13 0 0 -2.59369e-13 -3.50768e-13 -2.58378e-13 -2.84385e-13 0 0 -2.38899e-13 -4.64396e-13 -2.37282e-13 -2.25316e-13 0 0 -2.47677e-13 -4.70914e-13 -3.38242e-13 -1.87667e-13 0 0 -2.85033e-13 -4.65381e-13 -3.80921e-13 -2.11828e-13 0 0 -3.39518e-13 -4.66802e-13 -3.6206e-13 -2.78209e-13 0 0 -3.91999e-13 -4.45952e-13 -3.61107e-13 -3.2105e-13 0 0 -3.57612e-13 -4.9146e-13 -3.74752e-13 -2.77827e-13 0 0 -3.96192e-13 -4.50981e-13 -4.46311e-13 -1.84679e-13 0 0 -4.25837e-13 -4.08589e-13 -5.44763e-13 -1.10446e-13 0 0 -3.97206e-13 -4.50649e-13 -5.05342e-13 -1.2074e-13 0 0 -3.52935e-13 -5.3307e-13 -4.12986e-13 -1.42164e-13 0 0 -3.37455e-13 -5.74558e-13 -3.51212e-13 -1.71755e-13 0 0 -3.78088e-13 -5.2582e-13 -3.20926e-13 -2.48812e-13 0 0 -3.96034e-13 -4.80343e-13 -3.90659e-13 -2.45427e-13 0 0 -4.19821e-13 -4.37035e-13 -4.16009e-13 -2.35229e-13 0 0 -3.95295e-13 -4.6666e-13 -3.34387e-13 -2.77259e-13 0 0 -3.30695e-13 -5.57105e-13 -2.12732e-13 -3.73763e-13 0 0 -3.49568e-13 -5.1026e-13 -2.1041e-13 -4.13098e-13 0 0 -3.17819e-13 -4.96447e-13 -2.85477e-13 -2.44062e-13 0 0 -3.44356e-13 -3.68837e-13 -4.76175e-13 -4.95986e-14 0 0 -3.51875e-13 -3.44544e-13 -4.10349e-13 -1.62829e-13 0 0 -2.8127e-13 -4.32729e-13 -2.83731e-13 -2.52816e-13 0 0 -2.35156e-13 -4.22932e-13 -3.39422e-13 -2.12007e-13 0 0 -2.23886e-13 -3.94384e-13 -3.38825e-13 -2.71532e-13 0 0 -1.89312e-13 -4.04386e-13 -3.13244e-13 -3.04517e-13 0 0 -1.81224e-13 -3.79022e-13 -3.30578e-13 -2.59497e-13 0 0 -2.15075e-13 -2.98572e-13 -3.89314e-13 -2.5459e-13 0 0 -2.00025e-13 -2.52935e-13 -4.27499e-13 -2.94989e-13 0 0 -2.00953e-13 -2.8008e-13 -2.91365e-13 -4.17638e-13 0 0 -2.66691e-13 -2.78066e-13 -1.64242e-13 -5.17116e-13 0 0 -2.02263e-13 -4.09513e-13 -3.61023e-14 -5.44095e-13 0 0 -1.20336e-13 -4.92997e-13 -2.65553e-14 -5.07537e-13 0 0 -1.42575e-13 -4.55782e-13 -1.98022e-13 -3.24692e-13 0 0 -2.5212e-13 -2.89701e-13 -4.4942e-13 -9.45823e-14 0 0 -2.80871e-13 -3.39841e-13 -3.05294e-13 -2.63315e-13 0 0 -1.98817e-13 -5.35029e-13 -3.74658e-14 -4.68504e-13 0 0 -3.64859e-13 -2.42128e-13 -3.1576e-13 -3.01135e-13 0 0 -4.95022e-13 -7.56463e-14 -4.53254e-13 -2.42364e-13 0
				</DataArray>
				<DataArray Name="VitesseY" type="Float32" format="ascii">