<?xml version="1.0"?>
<VTKFile type="PolyData">
	<PolyData>
		<Piece NumberOfPoints="1206" NumberOfPolys="1000">
			<Points>
				<DataArray type="Float32" NumberOfComponents="3" format="ascii">
 0 0 0 0.02 0 0 0.04 0 0 0.06 0 0 0.08 0 0 0.1 0 0 0 0.005 0 0.02 0.005 0 0.04 0.005 0 0.06 0.005 0 0.08 0.005 0 0.1 0.005 0 0 0.01 0 0.02 0.01 0 0.04 0.01 0 0.06 0.01 0 0.08 0.01 0 0.1 0.01 0 0 0.015 0 0.02 0.015 0 0.04 0.015 0 0.06 0.015 0 0.08 0.015 0 0.1 0.015 0 0 0.02 0 0.02 0.02 0 0.04 0.02 0 0.06 0.02 0 0.08 0.02 0 0.1 0.02 0 0 0.025 0 0.02 0.025 0 0.04 0.025 0 0.06 0.025 0 0.08 0.025 0 0.1 0.025 0 0 0.03 0 0.02 0.03 0 0.04 0.03 0 0.06 0.03 0 0.08 0.03 0 0.1 0.03 0 0 0.035 0 0.02 0.035 0 0.04 0.035 0 0.06 0.035 0 0.08 0.035 0 0.1 0.035 0 0 0.04 0 0.02 0.04 0 0.04 0.04 0 0.06 0.04 0 0.08 0.04 0 0.1 0.04 0 0 0.045 0 0.02 0.045 0 0.04 0.045 0 0.06 0.045 0 0.08 0.045 0 0.1 0.045 0 0 0.05 0 0.02 0.05 0 0.04 0.05 0 0.06 0.05 0 0.08 0.05 0 0.1 0.05 0 0 0.055 0 0.02 0.055 0 0.04 0.055 0 0.06 0.055 0 0.08 0.055 0 0.1 0.055 0 0 0.06 0 0.02 0.06 0 0.04 0.06 0 0.06 0.06 0 0.08 0.06 0 0.1 0.06 0 0 0.065 0 0.02 0.065 0 0.04 0.065 0 0.06 0.065 0 0.08 0.065 0 0.1 0.065 0 0 0.07 0 0.02 0.07 0 0.04 0.07 0 0.06 0.07 0 0.08 0.07 0 0.1 0.07 0 0 0.075 0 0.02 0.075 0 0.04 0.075 0 0.06 0.075 0 0.08 0.075 0 0.1 0.075 0 0 0.08 0 0.02 0.08 0 0.04 0.08 0 0.06 0.08 0 0.08 0.08 0 0.1 0.08 0 0 0.085 0 0.02 0.085 0 0.04 0.085 0 0.06 0.085 0 0.08 0.085 0 0.1 0.085 0 0 0.09 0 0.02 0.09 0 0.04 0.09 0 0.06 0.09 0 0.08 0.09 0 0.1 0.09 0 0 0.095 0 0.02 0.095 0 0.04 0.095 0 0.06 0.095 0 0.08 0.095 0 0.1 0.095 0 0 0.1 0 0.02 0.1 0 0.04 0.1 0 0.06 0.1 0 0.08 0.1 0 0.1 0.1 0 0 0.105 0 0.02 0.105 0 0.04 0.105 0 0.06 0.105 0 0.08 0.105 0 0.1 0.105 0 0 0.11 0 0.02 0.11 0 0.04 0.11 0 0.06 0.11 0 0.08 0.11 0 0.1 0.11 0 0 0.115 0 0.02 0.115 0 0.04 0.115 0 0.06 0.115 0 0.08 0.115 0 0.1 0.115 0 0 0.12 0 0.02 0.12 0 0.04 0.12 0 0.06 0.12 0 0.08 0.12 0 0.1 0.12 0 0 0.125 0 0.02 0.125 0 0.04 0.125 0 0.06 0.125 0 0.08 0.125 0 0.1 0.125 0 0 0.13 0 0.02 0.13 0 0.04 0.13 0 0.06 0.13 0 0.08 0.13 0 0.1 0.13 0 0 0.135 0 0.02 0.135 0 0.04 0.135 0 0.06 0.135 0 0.08 0.135 0 0.1 0.135 0 0 0.14 0 0.02 0.14 0 0.04 0.14 0 0.06 0.14 0 0.08 0.14 0 0.1 0.14 0 0 0.145 0 0.02 0.145 0 0.04 0.145 0 0.06 0.145 0 0.08 0.145 0 0.1 0.145 0 0 0.15 0 0.02 0.15 0 0.04 0.15 0 0.06 0.15 0 0.08 0.15 0 0.1 0.15 0 0 0.155 0 0.02 0.155 0 0.04 0.155 0 0.06 0.155 0 0.08 0.155 0 0.1 0.155 0 0 0.16 0 0.02 0.16 0 0.04 0.16 0 0.06 0.16 0 0.08 0.16 0 0.1 0.16 0 0 0.165 0 0.02 0.165 0 0.04 0.165 0 0.06 0.165 0 0.08 0.165 0 0.1 0.165 0 0 0.17 0 0.02 0.17 0 0.04 0.17 0 0.06 0.17 0 0.08 0.17 0 0.1 0.17 0 0 0.175 0 0.02 0.175 0 0.04 0.175 0 0.06 0.175 0 0.08 0.175 0 0.1 0.175 0 0 0.18 0 0.02 0.18 0 0.04 0.18 0 0.06 0.18 0 0.08 0.18 0 0.1 0.18 0 0 0.185 0 0.02 0.185 0 0.04 0.185 0 0.06 0.185 0 0.08 0.185 0 0.1 0.185 0 0 0.19 0 0.02 0.19 0 0.04 0.19 0 0.06 0.19 0 0.08 0.19 0 0.1 0.19 0 0 0.195 0 0.02 0.195 0 0.04 0.195 0 0.06 0.195 0 0.08 0.195 0 0.1 0.195 0 0 0.2 0 0.02 0.2 0 0.04 0.2 0 0.06 0.2 0 0.08 0.2 0 0.1 0.2 0 0 0.205 0 0.02 0.205 0 0.04 0.205 0 0.06 0.205 0 0.08 0.205 0 0.1 0.205 0 0 0.21 0 0.02 0.21 0 0.04 0.21 0 0.06 0.21 0 0.08 0.21 0 0.1 0.21 0 0 0.215 0 0.02 0.215 0 0.04 0.215 0 0.06 0.215 0 0.08 0.215 0 0.1 0.215 0 0 0.22 0 0.02 0.22 0 0.04 0.22 0 0.06 0.22 0 0.08 0.22 0 0.1 0.22 0 0 0.225 0 0.02 0.225 0 0.04 0.225 0 0.06 0.225 0 0.08 0.225 0 0.1 0.225 0 0 0.23 0 0.02 0.23 0 0.04 0.23 0 0.06 0.23 0 0.08 0.23 0 0.1 0.23 0 0 0.235 0 0.02 0.235 0 0.04 0.235 0 0.06 0.235 0 0.08 0.235 0 0.1 0.235 0 0 0.24 0 0.02 0.24 0 0.04 0.24 0 0.06 0.24 0 0.08 0.24 0 0.1 0.24 0 0 0.245 0 0.02 0.245 0 0.04 0.245 0 0.06 0.245 0 0.08 0.245 0 0.1 0.245 0 0 0.25 0 0.02 0.25 0 0.04 0.25 0 0.06 0.25 0 0.08 0.25 0 0.1 0.25 0 0 0.255 0 0.02 0.255 0 0.04 0.255 0 0.06 0.255 0 0.08 0.255 0 0.1 0.255 0 0 0.26 0 0.02 0.26 0 0.04 0.26 0 0.06 0.26 0 0.08 0.26 0 0.1 0.26 0 0 0.265 0 0.02 0.265 0 0.04 0.265 0 0.06 0.265 0 0.08 0.265 0 0.1 0.265 0 0 0.27 0 0.02 0.27 0 0.04 0.27 0 0.06 0.27 0 0.08 0.27 0 0.1 0.27 0 0 0.275 0 0.02 0.275 0 0.04 0.275 0 0.06 0.275 0 0.08 0.275 0 0.1 0.275 0 0 0.28 0 0.02 0.28 0 0.04 0.28 0 0.06 0.28 0 0.08 0.28 0 0.1 0.28 0 0 0.285 0 0.02 0.285 0 0.04 0.285 0 0.06 0.285 0 0.08 0.285 0 0.1 0.285 0 0 0.29 0 0.02 0.29 0 0.04 0.29 0 0.06 0.29 0 0.08 0.29 0 0.1 0.29 0 0 0.295 0 0.02 0.295 0 0.04 0.295 0 0.06 0.295 0 0.08 0.295 0 0.1 0.295 0 0 0.3 0 0.02 0.3 0 0.04 0.3 0 0.06 0.3 0 0.08 0.3 0 0.1 0.3 0 0 0.305 0 0.02 0.305 0 0.04 0.305 0 0.06 0.305 0 0.08 0.305 0 0.1 0.305 0 0 0.31 0 0.02 0.31 0 0.04 0.31 0 0.06 0.31 0 0.08 0.31 0 0.1 0.31 0 0 0.315 0 0.02 0.315 0 0.04 0.315 0 0.06 0.315 0 0.08 0.315 0 0.1 0.315 0 0 0.32 0 0.02 0.32 0 0.04 0.32 0 0.06 0.32 0 0.08 0.32 0 0.1 0.32 0 0 0.325 0 0.02 0.325 0 0.04 0.325 0 0.06 0.325 0 0.08 0.325 0 0.1 0.325 0 0 0.33 0 0.02 0.33 0 0.04 0.33 0 0.06 0.33 0 0.08 0.33 0 0.1 0.33 0 0 0.335 0 0.02 0.335 0 0.04 0.335 0 0.06 0.335 0 0.08 0.335 0 0.1 0.335 0 0 0.34 0 0.02 0.34 0 0.04 0.34 0 0.06 0.34 0 0.08 0.34 0 0.1 0.34 0 0 0.345 0 0.02 0.345 0 0.04 0.345 0 0.06 0.345 0 0.08 0.345 0 0.1 0.345 0 0 0.35 0 0.02 0.35 0 0.04 0.35 0 0.06 0.35 0 0.08 0.35 0 0.1 0.35 0 0 0.355 0 0.02 0.355 0 0.04 0.355 0 0.06 0.355 0 0.08 0.355 0 0.1 0.355 0 0 0.36 0 0.02 0.36 0 0.04 0.36 0 0.06 0.36 0 0.08 0.36 0 0.1 0.36 0 0 0.365 0 0.02 0.365 0 0.04 0.365 0 0.06 0.365 0 0.08 0.365 0 0.1 0.365 0 0 0.37 0 0.02 0.37 0 0.04 0.37 0 0.06 0.37 0 0.08 0.37 0 0.1 0.37 0 0 0.375 0 0.02 0.375 0 0.04 0.375 0 0.06 0.375 0 0.08 0.375 0 0.1 0.375 0 0 0.38 0 0.02 0.38 0 0.04 0.38 0 0.06 0.38 0 0.08 0.38 0 0.1 0.38 0 0 0.385 0 0.02 0.385 0 0.04 0.385 0 0.06 0.385 0 0.08 0.385 0 0.1 0.385 0 0 0.39 0 0.02 0.39 0 0.04 0.39 0 0.06 0.39 0 0.08 0.39 0 0.1 0.39 0 0 0.395 0 0.02 0.395 0 0.04 0.395 0 0.06 0.395 0 0.08 0.395 0 0.1 0.395 0 0 0.4 0 0.02 0.4 0 0.04 0.4 0 0.06 0.4 0 0.08 0.4 0 0.1 0.4 0 0 0.405 0 0.02 0.405 0 0.04 0.405 0 0.06 0.405 0 0.08 0.405 0 0.1 0.405 0 0 0.41 0 0.02 0.41 0 0.04 0.41 0 0.06 0.41 0 0.08 0.41 0 0.1 0.41 0 0 0.415 0 0.02 0.415 0 0.04 0.415 0 0.06 0.415 0 0.08 0.415 0 0.1 0.415 0 0 0.42 0 0.02 0.42 0 0.04 0.42 0 0.06 0.42 0 0.08 0.42 0 0.1 0.42 0 0 0.425 0 0.02 0.425 0 0.04 0.425 0 0.06 0.425 0 0.08 0.425 0 0.1 0.425 0 0 0.43 0 0.02 0.43 0 0.04 0.43 0 0.06 0.43 0 0.08 0.43 0 0.1 0.43 0 0 0.435 0 0.02 0.435 0 0.04 0.435 0 0.06 0.435 0 0.08 0.435 0 0.1 0.435 0 0 0.44 0 0.02 0.44 0 0.04 0.44 0 0.06 0.44 0 0.08 0.44 0 0.1 0.44 0 0 0.445 0 0.02 0.445 0 0.04 0.445 0 0.06 0.445 0 0.08 0.445 0 0.1 0.445 0 0 0.45 0 0.02 0.45 0 0.04 0.45 0 0.06 0.45 0 0.08 0.45 0 0.1 0.45 0 0 0.455 0 0.02 0.455 0 0.04 0.455 0 0.06 0.455 0 0.08 0.455 0 0.1 0.455 0 0 0.46 0 0.02 0.46 0 0.04 0.46 0 0.06 0.46 0 0.08 0.46 0 0.1 0.46 0 0 0.465 0 0.02 0.465 0 0.04 0.465 0 0.06 0.465 0 0.08 0.465 0 0.1 0.465 0 0 0.47 0 0.02 0.47 0 0.04 0.47 0 0.06 0.47 0 0.08 0.47 0 0.1 0.47 0 0 0.475 0 0.02 0.475 0 0.04 0.475 0 0.06 0.475 0 0.08 0.475 0 0.1 0.475 0 0 0.48 0 0.02 0.48 0 0.04 0.48 0 0.06 0.48 0 0.08 0.48 0 0.1 0.48 0 0 0.485 0 0.02 0.485 0 0.04 0.485 0 0.06 0.485 0 0.08 0.485 0 0.1 0.485 0 0 0.49 0 0.02 0.49 0 0.04 0.49 0 0.06 0.49 0 0.08 0.49 0 0.1 0.49 0 0 0.495 0 0.02 0.495 0 0.04 0.495 0 0.06 0.495 0 0.08 0.495 0 0.1 0.495 0 0 0.5 0 0.02 0.5 0 0.04 0.5 0 0.06 0.5 0 0.08 0.5 0 0.1 0.5 0 0 0.505 0 0.02 0.505 0 0.04 0.505 0 0.06 0.505 0 0.08 0.505 0 0.1 0.505 0 0 0.51 0 0.02 0.51 0 0.04 0.51 0 0.06 0.51 0 0.08 0.51 0 0.1 0.51 0 0 0.515 0 0.02 0.515 0 0.04 0.515 0 0.06 0.515 0 0.08 0.515 0 0.1 0.515 0 0 0.52 0 0.02 0.52 0 0.04 0.52 0 0.06 0.52 0 0.08 0.52 0 0.1 0.52 0 0 0.525 0 0.02 0.525 0 0.04 0.525 0 0.06 0.525 0 0.08 0.525 0 0.1 0.525 0 0 0.53 0 0.02 0.53 0 0.04 0.53 0 0.06 0.53 0 0.08 0.53 0 0.1 0.53 0 0 0.535 0 0.02 0.535 0 0.04 0.535 0 0.06 0.535 0 0.08 0.535 0 0.1 0.535 0 0 0.54 0 0.02 0.54 0 0.04 0.54 0 0.06 0.54 0 0.08 0.54 0 0.1 0.54 0 0 0.545 0 0.02 0.545 0 0.04 0.545 0 0.06 0.545 0 0.08 0.545 0 0.1 0.545 0 0 0.55 0 0.02 0.55 0 0.04 0.55 0 0.06 0.55 0 0.08 0.55 0 0.1 0.55 0 0 0.555 0 0.02 0.555 0 0.04 0.555 0 0.06 0.555 0 0.08 0.555 0 0.1 0.555 0 0 0.56 0 0.02 0.56 0 0.04 0.56 0 0.06 0.56 0 0.08 0.56 0 0.1 0.56 0 0 0.565 0 0.02 0.565 0 0.04 0.565 0 0.06 0.565 0 0.08 0.565 0 0.1 0.565 0 0 0.57 0 0.02 0.57 0 0.04 0.57 0 0.06 0.57 0 0.08 0.57 0 0.1 0.57 0 0 0.575 0 0.02 0.575 0 0.04 0.575 0 0.06 0.575 0 0.08 0.575 0 0.1 0.575 0 0 0.58 0 0.02 0.58 0 0.04 0.58 0 0.06 0.58 0 0.08 0.58 0 0.1 0.58 0 0 0.585 0 0.02 0.585 0 0.04 0.585 0 0.06 0.585 0 0.08 0.585 0 0.1 0.585 0 0 0.59 0 0.02 0.59 0 0.04 0.59 0 0.06 0.59 0 0.08 0.59 0 0.1 0.59 0 0 0.595 0 0.02 0.595 0 0.04 0.595 0 0.06 0.595 0 0.08 0.595 0 0.1 0.595 0 0 0.6 0 0.02 0.6 0 0.04 0.6 0 0.06 0.6 0 0.08 0.6 0 0.1 0.6 0 0 0.605 0 0.02 0.605 0 0.04 0.605 0 0.06 0.605 0 0.08 0.605 0 0.1 0.605 0 0 0.61 0 0.02 0.61 0 0.04 0.61 0 0.06 0.61 0 0.08 0.61 0 0.1 0.61 0 0 0.615 0 0.02 0.615 0 0.04 0.615 0 0.06 0.615 0 0.08 0.615 0 0.1 0.615 0 0 0.62 0 0.02 0.62 0 0.04 0.62 0 0.06 0.62 0 0.08 0.62 0 0.1 0.62 0 0 0.625 0 0.02 0.625 0 0.04 0.625 0 0.06 0.625 0 0.08 0.625 0 0.1 0.625 0 0 0.63 0 0.02 0.63 0 0.04 0.63 0 0.06 0.63 0 0.08 0.63 0 0.1 0.63 0 0 0.635 0 0.02 0.635 0 0.04 0.635 0 0.06 0.635 0 0.08 0.635 0 0.1 0.635 0 0 0.64 0 0.02 0.64 0 0.04 0.64 0 0.06 0.64 0 0.08 0.64 0 0.1 0.64 0 0 0.645 0 0.02 0.645 0 0.04 0.645 0 0.06 0.645 0 0.08 0.645 0 0.1 0.645 0 0 0.65 0 0.02 0.65 0 0.04 0.65 0 0.06 0.65 0 0.08 0.65 0 0.1 0.65 0 0 0.655 0 0.02 0.655 0 0.04 0.655 0 0.06 0.655 0 0.08 0.655 0 0.1 0.655 0 0 0.66 0 0.02 0.66 0 0.04 0.66 0 0.06 0.66 0 0.08 0.66 0 0.1 0.66 0 0 0.665 0 0.02 0.665 0 0.04 0.665 0 0.06 0.665 0 0.08 0.665 0 0.1 0.665 0 0 0.67 0 0.02 0.67 0 0.04 0.67 0 0.06 0.67 0 0.08 0.67 0 0.1 0.67 0 0 0.675 0 0.02 0.675 0 0.04 0.675 0 0.06 0.675 0 0.08 0.675 0 0.1 0.675 0 0 0.68 0 0.02 0.68 0 0.04 0.68 0 0.06 0.68 0 0.08 0.68 0 0.1 0.68 0 0 0.685 0 0.02 0.685 0 0.04 0.685 0 0.06 0.685 0 0.08 0.685 0 0.1 0.685 0 0 0.69 0 0.02 0.69 0 0.04 0.69 0 0.06 0.69 0 0.08 0.69 0 0.1 
[...]
			<PointData Scalars="VitesseX">
				<DataArray Name="VitesseX" type="Float32" format="ascii">
 0 -7.03498e-15 -3.35621e-14 2.51125e-15 2.41713e-14 0 0 -1.74513e-14 -2.00341e-14 -5.55627e-16 2.03218e-14 0 0 -1.46398e-14 -2.66734e-14 1.58274e-14 4.34256e-15 0 0 -3.42593e-14 -3.88163e-15 -3.01684e-15 1.69339e-14 0 0 -5.54969e-14 1.35226e-14 -6.51439e-15 1.43273e-14 0 0 -3.05258e-14 -2.4092e-14 2.80188e-14 -1.6253e-14 0 0 -5.09483e-15 -4.20995e-14 8.05246e-15 -1.19347e-15 0 0 -1.77487e-14 -2.27752e-14 -4.80698e-14 4.19944e-14 0 0 -3.1042e-14 -3.48667e-14 -3.9218e-14 2.98669e-14 0 0 -3.96199e-14 -4.50135e-14 -2.37732e-14 1.63529e-14 0 0 -8.56034e-14 2.642e-14 -7.84737e-14 5.18911e-14 0 0 -4.80157e-14 -4.47708e-14 2.66619e-14 -1.61711e-14 0 0 -8.40969e-14 -7.43427e-15 2.40739e-14 -4.58422e-14 0 0 -7.10097e-14 6.09834e-15 -6.1386e-15 -5.78136e-14 0 0 -2.98986e-14 7.98988e-16 -4.80326e-14 -1.94283e-14 0 0 -8.32794e-14 9.15981e-14 -1.43367e-13 6.64416e-14 0 0 -1.24369e-14 -4.88025e-14 -9.31993e-15 7.52247e-15 0 0 -7.83431e-14 2.97781e-14 -8.99511e-14 5.85062e-14 0 0 -1.19193e-13 8.81373e-14 -1.47568e-13 7.88505e-14 0 0 -4.79123e-14 -2.79597e-14 -5.61553e-14 2.87121e-14 0 0 -4.73571e-14 -2.18996e-14 -1.27512e-13 1.19244e-13 0 0 -4.46939e-14 -3.02876e-14 -1.51699e-13 1.60183e-13 0 0 -8.77808e-14 -4.50842e-14 -4.24271e-14 4.8977e-14 0 0 -8.91217e-14 -7.07253e-14 6.80765e-14 -9.08191e-14 0 0 -2.8593e-14 -3.85074e-14 -1.59732e-14 -7.22046e-14 0 0 -6.42251e-15 2.36774e-14 -1.32347e-13 -1.60779e-14 0 0 -2.69396e-14 -1.88408e-14 -4.54548e-14 -1.24548e-13 0 0 -1.08668e-13 3.39883e-15 -5.10122e-14 -1.54287e-13 0 0 -1.13232e-13 4.66381e-15 -1.13784e-13 -1.05694e-13 0 0 -7.36687e-14 -2.51848e-14 -1.06342e-13 -1.13706e-13 0 0 -1.6437e-14 -8.86675e-14 -1.04746e-14 -1.68134e-13 0 0 -2.81043e-14 -4.37295e-14 -4.63423e-14 -9.49528e-14 0 0 -1.2481e-13 6.26045e-14 -1.07255e-13 -1.16729e-14 0 0 -1.14958e-13 -2.59071e-14 4.25116e-14 -7.71416e-14 0 0 -9.13712e-14 -2.03815e-14 -2.7629e-14 5.11924e-14 0 0 -3.05969e-14 -5.0683e-14 -5.0834e-14 1.41982e-13 0 0 -1.17463e-13 3.69955e-14 -3.62694e-15 9.06009e-14 0 0 -1.63983e-13 5.02071e-14 1.01235e-13 -1.2808e-14 0 0 -1.58622e-13 7.93989e-14 4.00989e-14 3.69741e-14 0 0 -9.38067e-14 3.0478e-14 -1.90392e-14 1.15794e-13 0 0 -3.64904e-14 -9.56709e-14 2.5318e-14 8.15063e-14 0 0 -1.00972e-13 -6.3476e-14 -2.68704e-14 2.98809e-14 0 0 -5.92386e-14 -1.33779e-13 9.13394e-15 -5.78184e-14 0 0 -7.49986e-15 -1.4877e-13 -3.1416e-14 -2.59957e-14 0 0 -4.50823e-14 -2.42231e-14 -1.24974e-13 -3.94316e-15 0 0 -4.7254e-14 -6.34068e-14 5.55351e-14 -2.40691e-13 0 0 -2.72217e-13 1.14773e-13 5.36721e-14 -3.443e-13 0 0 -2.9944e-13 5.5246e-14 8.32878e-14 -3.20962e-13 0 0 -1.38556e-13 -1.8531e-13 1.31346e-13 -2.29371e-13 0 0 -1.02246e-13 -1.97066e-13 -4.14717e-14 6.595e-15 0 0 3.57409e-14 -3.25578e-13 -8.85833e-15 3.80541e-14 0 0 -2.27925e-13 -4.72283e-15 -6.46547e-14 -1.09495e-13 0 0 -2.99652e-13 -5.78711e-14 2.69112e-13 -5.22137e-13 0 0 -3.68983e-13 1.02236e-13 3.59655e-14 -3.4819e-13 0 0 -2.24948e-13 1.90735e-13 -3.62601e-13 4.08055e-14 0 0 1.11381e-13 -1.71128e-13 -1.19249e-13 -9.00821e-14 0 0 -3.00422e-13 2.01579e-13 -2.512e-13 -8.35876e-14 0 0 -2.66039e-13 -1.2466e-13 3.46749e-13 -5.66617e-13 0 0 -2.45181e-13 -1.26489e-13 3.32213e-13 -5.5311e-13 0 0 -3.23346e-13 2.04554e-13 -2.64375e-13 -2.15042e-14 0 0 -7.49263e-14 -7.39436e-14 -1.48583e-13 3.01218e-14 0 0 -1.6095e-13 -1.87781e-15 -2.02773e-13 7.92608e-14 0 0 -1.22886e-13 -2.86687e-14 -1.5745e-13 3.61489e-14 0 0 -1.18992e-13 6.09471e-14 -2.5269e-13 9.25025e-14 0 0 -1.04476e-13 3.64387e-14 -2.16414e-13 8.33869e-14 0 0 -8.52218e-14 -5.62178e-14 -8.41244e-14 -1.1056e-14 0 0 -1.62964e-13 1.73754e-14 -1.58966e-13 -4.02266e-15 0 0 -1.6784e-14 -1.19776e-13 -1.60664e-13 8.13156e-15 0 0 -5.74744e-14 -5.25326e-14 -2.83476e-13 1.22052e-13 0 0 -2.70301e-13 1.20126e-13 -1.59781e-13 -5.54441e-14 0 0 -1.44886e-13 -2.59071e-13 5.2374e-13 -5.664e-13 0 0 -3.04672e-13 -1.58808e-14 2.30846e-13 -1.73482e-13 0 0 -1.38742e-13 2.11924e-14 -9.23169e-14 3.19246e-13 0 0 -7.0392e-14 -1.29491e-14 -1.538e-13 4.26026e-13 0 0 -3.7371e-13 1.65679e-13 -4.95168e-14 1.64748e-13 0 0 -3.90076e-13 5.81241e-14 2.04841e-13 -1.48958e-13 0 0 -3.47724e-13 1.79258e-13 -2.48755e-13 2.00235e-13 0 0 -5.26657e-14 -1.90894e-13 -1.40635e-13 1.62575e-13 0 0 -3.56613e-13 3.90072e-16 -1.99685e-13 4.17676e-14 0 0 -4.26611e-13 -1.86016e-13 6.80856e-14 -2.92417e-13 0 0 -3.22685e-13 -2.30215e-13 -2.58929e-14 -2.2807e-13 0 0 -5.6192e-13 2.07431e-13 -4.07561e-13 -2.68825e-14 0 0 -2.43347e-13 -3.28208e-13 1.86199e-13 -5.45008e-13 0 0 -1.91896e-13 -1.12491e-13 -3.64012e-13 -2.58632e-13 0 0 -2.2416e-13 2.39703e-13 -9.38616e-13 6.08851e-14 0 0 -1.33413e-13 -2.26235e-13 -2.18794e-13 -4.29809e-13 0 0 -4.84855e-13 -2.21038e-13 4.40612e-14 -5.4591e-13 0 0 -3.78542e-13 -2.05495e-13 -3.3011e-13 -1.20473e-13 0 0 1.58735e-13 -6.47719e-13 -4.09448e-13 1.76028e-13 0 0 -9.00784e-14 -2.18527e-13 -5.38691e-13 -5.37529e-14 0 0 -3.54328e-13 -6.43839e-14 -1.3441e-13 -6.23828e-13 0 0 -4.39978e-13 -2.11153e-13 7.02776e-14 -6.72425e-13 0 0 -1.17863e-13 -1.87597e-13 -4.87162e-13 1.25635e-14 0 0 4.15361e-13 -8.33104e-13 -6.12624e-13 5.96227e-13 0 0 -4.23479e-13 -1.01919e-14 -4.53794e-13 1.9477e-13 0 0 -3.38258e-13 -2.63633e-13 6.83623e-13 -9.87275e-13 0 0 2.56542e-14 -4.63611e-13 5.24558e-13 -8.98808e-13 0 0 -8.25509e-13 9.34759e-13 -3.42279e-13 -5.57376e-13 0 0 1.63947e-13 -1.7714e-13 1.97789e-13 -7.54273e-13 0 0 2.25044e-13 -2.29258e-13 3.49447e-14 -5.21037e-13 0 0 6.04746e-14 -1.28901e-13 -3.04379e-13 -1.7403e-13 0 0 -7.78172e-14 -1.43964e-13 -4.7646e-13 2.40801e-14 0 0 -1.97181e-13 -1.88158e-13 -5.17749e-13 8.54879e-14 0 0 -2.90224e-13 -2.32634e-13 -4.8821e-13 4.36175e-14 0 0 -3.47257e-13 -2.75877e-13 -4.35718e-13 -4.03256e-14 0 0 -3.68728e-13 -3.36081e-13 -3.65353e-13 -1.41037e-13 0 0 -3.27686e-13 -3.72464e-13 -3.73771e-13 -1.54723e-13 0 0 -2.23868e-13 -3.34973e-13 -4.80829e-13 -3.51726e-14 0 0 -2.15711e-13 -2.06214e-13 -4.7408e-13 -7.01646e-14 0 0 -2.46811e-13 -2.04071e-13 -1.89992e-13 -3.2144e-13 0 0 -2.56116e-13 -1.83263e-13 -3.37678e-14 -4.72983e-13 0 0 -1.40034e-13 -9.53187e-14 -3.023e-13 -2.82556e-13 0 0 2.2225e-15 -1.20557e-13 -4.77042e-13 -1.26858e-13 0 0 -6.84305e-14 -1.55821e-13 -4.03075e-13 -1.08176e-13 0 0 -2.88121e-13 -2.30495e-13 -7.16876e-14 -3.13437e-13 0 0 -3.3098e-13 -3.52217e-13 1.02357e-13 -4.54134e-13 0 0 -9.07686e-14 -4.4586e-13 -1.01305e-13 -3.30852e-13 0 0 -1.27807e-13 -1.31802e-13 -5.22788e-13 -1.85401e-13 0 0 -2.1007e-13 -1.6967e-13 -2.10501e-13 -4.9679e-13 0 0 -3.63692e-13 -1.7379e-13 -2.84766e-14 -5.16086e-13 0 0 -3.90518e-13 -2.15767e-13 -5.8131e-14 -3.23038e-13 0 0 -1.29707e-13 -4.59215e-13 5.0351e-15 -3.49667e-13 0 0 -2.997e-13 -8.66508e-14 -4.82691e-13 -5.68478e-14 0 0 -3.74833e-13 -2.19481e-13 -1.78281e-13 -2.7926e-13 0 0 -5.42746e-13 -1.68132e-13 -1.01439e-13 -2.71045e-13 0 0 -6.52952e-13 -1.48717e-13 -1.15521e-13 -4.87022e-14 0 0 -2.84427e-13 -3.96935e-13 -2.82537e-14 -7.165e-14 0 0 -2.66531e-13 -7.82598e-14 -5.41744e-13 8.65394e-14 0 0 -3.75393e-13 -1.85683e-13 -2.42474e-13 -3.38934e-13 0 0 -5.64597e-13 -1.4751e-13 -8.62804e-14 -4.3597e-13 0 0 -7.0405e-13 -1.15156e-13 -9.25156e-14 -1.74558e-13 0 0 -3.15786e-13 -4.01411e-13 2.87453e-14 -2.43528e-13 0 0 -2.43905e-13 -1.83143e-13 -3.8412e-13 -7.7047e-14 0 0 -3.60514e-13 -2.44868e-13 -1.50106e-13 -3.8514e-13 0 0 -4.91768e-13 -1.56739e-13 -9.49349e-14 -4.96582e-13 0 0 -5.53397e-13 -1.19736e-13 -7.72858e-14 -3.80916e-13 0 0 -1.90042e-13 -3.13223e-13 -5.82903e-14 -4.49759e-13 0 0 -1.94861e-13 4.40769e-14 -6.71752e-13 -2.11945e-13 0 0 -4.48308e-13 -4.56573e-14 -4.77463e-13 -4.01493e-13 0 0 -3.93888e-13 -4.55296e-13 -3.11484e-13 -2.34328e-13 0 0 -2.96716e-13 -5.74742e-13 -3.50137e-13 3.07093e-14 0 0 -1.96804e-13 -5.6061e-13 -1.85635e-14 -4.47106e-13 0 0 -1.90094e-13 -5.91638e-14 -6.25644e-13 -3.56818e-13 0 0 -1.68294e-13 3.80864e-14 -7.43463e-13 -4.14398e-13 0 0 -3.81102e-13 -2.17266e-13 -1.29386e-13 -5.8435e-13 0 0 -6.56967e-13 -5.57975e-14 -4.30377e-13 1.77409e-13 0 0 -2.97953e-13 -4.8553e-13 -2.29698e-13 3.70036e-13 0 0 -2.56181e-13 -3.82855e-13 -4.04837e-13 4.85184e-13 0 0 -3.61672e-13 -1.46271e-13 -6.21609e-13 4.90944e-13 0 0 -5.87325e-13 -1.71602e-13 -4.17708e-13 3.68721e-13 0 0 -7.24166e-13 -6.77119e-14 -7.68308e-13 8.80853e-13 0 0 -2.41693e-13 -7.0238e-13 -2.3899e-13 5.57736e-13 0 0 -3.79084e-13 -3.93847e-13 -1.64728e-13 1.26457e-14 0 0 -4.26783e-13 -1.73003e-13 -1.88624e-13 -3.16506e-13 0 0 -4.69263e-13 -2.58678e-13 -8.30724e-14 -2.90927e-13 0 0 -7.47875e-13 -2.3563e-13 -1.40388e-13 -4.19532e-14 0 0 -3.72479e-13 -5.54528e-13 -2.92321e-13 -3.17818e-15 0 0 -1.62932e-13 -3.57377e-13 -1.0563e-12 1.47402e-13 0 0 -3.31385e-13 -2.07005e-13 -1.09137e-12 -2.53965e-13 0 0 -8.28202e-13 1.23878e-13 -6.86439e-13 -6.2411e-13 0 0 -8.43209e-13 -5.89268e-15 -3.24944e-13 -3.97345e-13 0 0 -2.81313e-14 -6.73034e-13 -3.31838e-13 9.5295e-15 0 0 2.46908e-13 -7.94357e-13 -6.87442e-13 1.67364e-13 0 0 -2.39441e-13 -4.53927e-13 -6.47998e-13 -6.59306e-13 0 0 -8.66213e-13 1.09894e-13 -7.80488e-13 -1.3469e-12 0 0 -7.98549e-13 1.28193e-15 -1.00186e-12 -1.00007e-12 0 0 -1.81901e-13 -3.84477e-13 -1.16629e-12 -3.77638e-13 0 0 -1.08263e-13 -3.95288e-13 -9.81917e-13 -2.1058e-13 0 0 -2.55297e-13 -6.52155e-13 -1.63113e-13 -8.32712e-13 0 0 -2.13757e-13 -7.15014e-13 -3.01346e-13 -8.73418e-13 0 0 -3.47514e-13 -5.51034e-13 -6.35354e-13 -7.95984e-13 0 0 -5.17181e-13 -3.62048e-13 -4.47261e-13 -1.39357e-12 0 0 -6.68183e-13 1.47671e-13 -9.10022e-13 -1.27334e-12 0 0 -2.8006e-13 -3.51027e-13 -7.31866e-13 -8.38563e-13 0 0 7.78477e-14 -9.55967e-13 -3.58385e-13 -4.28454e-13 0 0 -3.35907e-13 -5.91519e-13 -4.23853e-13 -4.16533e-13 0 0 -6.05144e-13 -2.97154e-13 -3.29397e-13 -1.15853e-12 0 0 -6.76121e-13 1.5102e-13 -8.90561e-13 -1.19292e-12 0 0 -2.60394e-13 -3.26747e-13 -7.81445e-13 -7.69797e-13 0 0 1.0467e-13 -9.21708e-13 -4.64699e-13 -2.60235e-13 0 0 -3.08621e-13 -5.60097e-13 -5.58317e-13 -2.30454e-13 0 0 -6.19155e-13 -2.69922e-13 -3.35225e-13 -1.0797e-12 0 0 -7.67145e-13 1.89741e-13 -8.54852e-13 -1.02492e-12 0 0 -3.44027e-13 -3.02244e-13 -8.38e-13 -5.36429e-13 0 0 4.39237e-14 -8.81981e-13 -5.31492e-13 -1.57585e-13 0 0 -3.40048e-13 -5.31151e-13 -5.7473e-13 -1.42015e-13 0 0 -5.84215e-13 -3.24503e-13 -3.86809e-13 -9.0896e-13 0 0 -5.9674e-13 -3.22456e-14 -1.02301e-12 -9.02814e-13 0 0 -2.22294e-13 -4.95936e-13 -1.09786e-12 -6.2752e-13 0 0 1.00612e-13 -9.46391e-13 -9.11179e-13 -1.6605e-13 0 0 -5.64138e-13 -3.33544e-13 -6.82188e-13 -1.30463e-13 0 0 -7.114e-13 -6.42273e-13 8.19711e-13 -1.64293e-12 0 0 -4.18355e-13 -5.60342e-13 4.15397e-14 -1.26019e-12 0 0 -5.02511e-14 -4.78143e-13 -1.26007e-12 -1.13859e-13 0 0 -3.34427e-13 -5.45206e-13 -8.98256e-13 -4.19575e-13 0 0 -1.34445e-12 4.50072e-13 -1.19473e-12 -3.67332e-13 0 0 -7.3146e-13 -1.22473e-13 -8.38107e-13 -4.11617e-13 0 0 -2.18375e-14 -5.62525e-13 -1.12338e-12 1.64798e-13 0 0 5.06748e-14 -6.96121e-13 -1.16955e-12 3.60975e-13 0 0 -6.14611e-13 -4.55459e-13 -7.6727e-13 -8.68285e-14 0 0 -1.43418e-12 3.66906e-13 -1.16651e-12 3.00441e-14 0
				</DataArray>
				<DataArray Name="VitesseY" type="Float32" format="ascii">