<?xml version="1.0"?>
<VTKFile type="PolyData">
	<PolyData>
		<Piece NumberOfPoints="1206" NumberOfPolys="1000">
			<Points>
				<DataArray type="Float32" NumberOfComponents="3" format="ascii">
 0 0 0 0.02 0 0 0.04 0 0 0.06 0 0 0.08 0 0 0.1 0 0 0 0.005 0 0.02 0.005 0 0.04 0.005 0 0.06 0.005 0 0.08 0.005 0 0.1 0.005 0 0 0.01 0 0.02 0.01 0 0.04 0.01 0 0.06 0.01 0 0.08 0.01 0 0.1 0.01 0 0 0.015 0 0.02 0.015 0 0.04 0.015 0 0.06 0.015 0 0.08 0.015 0 0.1 0.015 0 0 0.02 0 0.02 0.02 0 0.04 0.02 0 0.06 0.02 0 0.08 0.02 0 0.1 0.02 0 0 0.025 0 0.02 0.025 0 0.04 0.025 0 0.06 0.025 0 0.08 0.025 0 0.1 0.025 0 0 0.03 0 0.02 0.03 0 0.04 0.03 0 0.06 0.03 0 0.08 0.03 0 0.1 0.03 0 0 0.035 0 0.02 0.035 0 0.04 0.035 0 0.06 0.035 0 0.08 0.035 0 0.1 0.035 0 0 0.04 0 0.02 0.04 0 0.04 0.04 0 0.06 0.04 0 0.08 0.04 0 0.1 0.04 0 0 0.045 0 0.02 0.045 0 0.04 0.045 0 0.06 0.045 0 0.08 0.045 0 0.1 0.045 0 0 0.05 0 0.02 0.05 0 0.04 0.05 0 0.06 0.05 0 0.08 0.05 0 0.1 0.05 0 0 0.055 0 0.02 0.055 0 0.04 0.055 0 0.06 0.055 0 0.08 0.055 0 0.1 0.055 0 0 0.06 0 0.02 0.06 0 0.04 0.06 0 0.06 0.06 0 0.08 0.06 0 0.1 0.06 0 0 0.065 0 0.02 0.065 0 0.04 0.065 0 0.06 0.065 0 0.08 0.065 0 0.1 0.065 0 0 0.07 0 0.02 0.07 0 0.04 0.07 0 0.06 0.07 0 0.08 0.07 0 0.1 0.07 0 0 0.075 0 0.02 0.075 0 0.04 0.075 0 0.06 0.075 0 0.08 0.075 0 0.1 0.075 0 0 0.08 0 0.02 0.08 0 0.04 0.08 0 0.06 0.08 0 0.08 0.08 0 0.1 0.08 0 0 0.085 0 0.02 0.085 0 0.04 0.085 0 0.06 0.085 0 0.08 0.085 0 0.1 0.085 0 0 0.09 0 0.02 0.09 0 0.04 0.09 0 0.06 0.09 0 0.08 0.09 0 0.1 0.09 0 0 0.095 0 0.02 0.095 0 0.04 0.095 0 0.06 0.095 0 0.08 0.095 0 0.1 0.095 0 0 0.1 0 0.02 0.1 0 0.04 0.1 0 0.06 0.1 0 0.08 0.1 0 0.1 0.1 0 0 0.105 0 0.02 0.105 0 0.04 0.105 0 0.06 0.105 0 0.08 0.105 0 0.1 0.105 0 0 0.11 0 0.02 0.11 0 0.04 0.11 0 0.06 0.11 0 0.08 0.11 0 0.1 0.11 0 0 0.115 0 0.02 0.115 0 0.04 0.115 0 0.06 0.115 0 0.08 0.115 0 0.1 0.115 0 0 0.12 0 0.02 0.12 0 0.04 0.12 0 0.06 0.12 0 0.08 0.12 0 0.1 0.12 0 0 0.125 0 0.02 0.125 0 0.04 0.125 0 0.06 0.125 0 0.08 0.125 0 0.1 0.125 0 0 0.13 0 0.02 0.13 0 0.04 0.13 0 0.06 0.13 0 0.08 0.13 0 0.1 0.13 0 0 0.135 0 0.02 0.135 0 0.04 0.135 0 0.06 0.135 0 0.08 0.135 0 0.1 0.135 0 0 0.14 0 0.02 0.14 0 0.04 0.14 0 0.06 0.14 0 0.08 0.14 0 0.1 0.14 0 0 0.145 0 0.02 0.145 0 0.04 0.145 0 0.06 0.145 0 0.08 0.145 0 0.1 0.145 0 0 0.15 0 0.02 0.15 0 0.04 0.15 0 0.06 0.15 0 0.08 0.15 0 0.1 0.15 0 0 0.155 0 0.02 0.155 0 0.04 0.155 0 0.06 0.155 0 0.08 0.155 0 0.1 0.155 0 0 0.16 0 0.02 0.16 0 0.04 0.16 0 0.06 0.16 0 0.08 0.16 0 0.1 0.16 0 0 0.165 0 0.02 0.165 0 0.04 0.165 0 0.06 0.165 0 0.08 0.165 0 0.1 0.165 0 0 0.17 0 0.02 0.17 0 0.04 0.17 0 0.06 0.17 0 0.08 0.17 0 0.1 0.17 0 0 0.175 0 0.02 0.175 0 0.04 0.175 0 0.06 0.175 0 0.08 0.175 0 0.1 0.175 0 0 0.18 0 0.02 0.18 0 0.04 0.18 0 0.06 0.18 0 0.08 0.18 0 0.1 0.18 0 0 0.185 0 0.02 0.185 0 0.04 0.185 0 0.06 0.185 0 0.08 0.185 0 0.1 0.185 0 0 0.19 0 0.02 0.19 0 0.04 0.19 0 0.06 0.19 0 0.08 0.19 0 0.1 0.19 0 0 0.195 0 0.02 0.195 0 0.04 0.195 0 0.06 0.195 0 0.08 0.195 0 0.1 0.195 0 0 0.2 0 0.02 0.2 0 0.04 0.2 0 0.06 0.2 0 0.08 0.2 0 0.1 0.2 0 0 0.205 0 0.02 0.205 0 0.04 0.205 0 0.06 0.205 0 0.08 0.205 0 0.1 0.205 0 0 0.21 0 0.02 0.21 0 0.04 0.21 0 0.06 0.21 0 0.08 0.21 0 0.1 0.21 0 0 0.215 0 0.02 0.215 0 0.04 0.215 0 0.06 0.215 0 0.08 0.215 0 0.1 0.215 0 0 0.22 0 0.02 0.22 0 0.04 0.22 0 0.06 0.22 0 0.08 0.22 0 0.1 0.22 0 0 0.225 0 0.02 0.225 0 0.04 0.225 0 0.06 0.225 0 0.08 0.225 0 0.1 0.225 0 0 0.23 0 0.02 0.23 0 0.04 0.23 0 0.06 0.23 0 0.08 0.23 0 0.1 0.23 0 0 0.235 0 0.02 0.235 0 0.04 0.235 0 0.06 0.235 0 0.08 0.235 0 0.1 0.235 0 0 0.24 0 0.02 0.24 0 0.04 0.24 0 0.06 0.24 0 0.08 0.24 0 0.1 0.24 0 0 0.245 0 0.02 0.245 0 0.04 0.245 0 0.06 0.245 0 0.08 0.245 0 0.1 0.245 0 0 0.25 0 0.02 0.25 0 0.04 0.25 0 0.06 0.25 0 0.08 0.25 0 0.1 0.25 0 0 0.255 0 0.02 0.255 0 0.04 0.255 0 0.06 0.255 0 0.08 0.255 0 0.1 0.255 0 0 0.26 0 0.02 0.26 0 0.04 0.26 0 0.06 0.26 0 0.08 0.26 0 0.1 0.26 0 0 0.265 0 0.02 0.265 0 0.04 0.265 0 0.06 0.265 0 0.08 0.265 0 0.1 0.265 0 0 0.27 0 0.02 0.27 0 0.04 0.27 0 0.06 0.27 0 0.08 0.27 0 0.1 0.27 0 0 0.275 0 0.02 0.275 0 0.04 0.275 0 0.06 0.275 0 0.08 0.275 0 0.1 0.275 0 0 0.28 0 0.02 0.28 0 0.04 0.28 0 0.06 0.28 0 0.08 0.28 0 0.1 0.28 0 0 0.285 0 0.02 0.285 0 0.04 0.285 0 0.06 0.285 0 0.08 0.285 0 0.1 0.285 0 0 0.29 0 0.02 0.29 0 0.04 0.29 0 0.06 0.29 0 0.08 0.29 0 0.1 0.29 0 0 0.295 0 0.02 0.295 0 0.04 0.295 0 0.06 0.295 0 0.08 0.295 0 0.1 0.295 0 0 0.3 0 0.02 0.3 0 0.04 0.3 0 0.06 0.3 0 0.08 0.3 0 0.1 0.3 0 0 0.305 0 0.02 0.305 0 0.04 0.305 0 0.06 0.305 0 0.08 0.305 0 0.1 0.305 0 0 0.31 0 0.02 0.31 0 0.04 0.31 0 0.06 0.31 0 0.08 0.31 0 0.1 0.31 0 0 0.315 0 0.02 0.315 0 0.04 0.315 0 0.06 0.315 0 0.08 0.315 0 0.1 0.315 0 0 0.32 0 0.02 0.32 0 0.04 0.32 0 0.06 0.32 0 0.08 0.32 0 0.1 0.32 0 0 0.325 0 0.02 0.325 0 0.04 0.325 0 0.06 0.325 0 0.08 0.325 0 0.1 0.325 0 0 0.33 0 0.02 0.33 0 0.04 0.33 0 0.06 0.33 0 0.08 0.33 0 0.1 0.33 0 0 0.335 0 0.02 0.335 0 0.04 0.335 0 0.06 0.335 0 0.08 0.335 0 0.1 0.335 0 0 0.34 0 0.02 0.34 0 0.04 0.34 0 0.06 0.34 0 0.08 0.34 0 0.1 0.34 0 0 0.345 0 0.02 0.345 0 0.04 0.345 0 0.06 0.345 0 0.08 0.345 0 0.1 0.345 0 0 0.35 0 0.02 0.35 0 0.04 0.35 0 0.06 0.35 0 0.08 0.35 0 0.1 0.35 0 0 0.355 0 0.02 0.355 0 0.04 0.355 0 0.06 0.355 0 0.08 0.355 0 0.1 0.355 0 0 0.36 0 0.02 0.36 0 0.04 0.36 0 0.06 0.36 0 0.08 0.36 0 0.1 0.36 0 0 0.365 0 0.02 0.365 0 0.04 0.365 0 0.06 0.365 0 0.08 0.365 0 0.1 0.365 0 0 0.37 0 0.02 0.37 0 0.04 0.37 0 0.06 0.37 0 0.08 0.37 0 0.1 0.37 0 0 0.375 0 0.02 0.375 0 0.04 0.375 0 0.06 0.375 0 0.08 0.375 0 0.1 0.375 0 0 0.38 0 0.02 0.38 0 0.04 0.38 0 0.06 0.38 0 0.08 0.38 0 0.1 0.38 0 0 0.385 0 0.02 0.385 0 0.04 0.385 0 0.06 0.385 0 0.08 0.385 0 0.1 0.385 0 0 0.39 0 0.02 0.39 0 0.04 0.39 0 0.06 0.39 0 0.08 0.39 0 0.1 0.39 0 0 0.395 0 0.02 0.395 0 0.04 0.395 0 0.06 0.395 0 0.08 0.395 0 0.1 0.395 0 0 0.4 0 0.02 0.4 0 0.04 0.4 0 0.06 0.4 0 0.08 0.4 0 0.1 0.4 0 0 0.405 0 0.02 0.405 0 0.04 0.405 0 0.06 0.405 0 0.08 0.405 0 0.1 0.405 0 0 0.41 0 0.02 0.41 0 0.04 0.41 0 0.06 0.41 0 0.08 0.41 0 0.1 0.41 0 0 0.415 0 0.02 0.415 0 0.04 0.415 0 0.06 0.415 0 0.08 0.415 0 0.1 0.415 0 0 0.42 0 0.02 0.42 0 0.04 0.42 0 0.06 0.42 0 0.08 0.42 0 0.1 0.42 0 0 0.425 0 0.02 0.425 0 0.04 0.425 0 0.06 0.425 0 0.08 0.425 0 0.1 0.425 0 0 0.43 0 0.02 0.43 0 0.04 0.43 0 0.06 0.43 0 0.08 0.43 0 0.1 0.43 0 0 0.435 0 0.02 0.435 0 0.04 0.435 0 0.06 0.435 0 0.08 0.435 0 0.1 0.435 0 0 0.44 0 0.02 0.44 0 0.04 0.44 0 0.06 0.44 0 0.08 0.44 0 0.1 0.44 0 0 0.445 0 0.02 0.445 0 0.04 0.445 0 0.06 0.445 0 0.08 0.445 0 0.1 0.445 0 0 0.45 0 0.02 0.45 0 0.04 0.45 0 0.06 0.45 0 0.08 0.45 0 0.1 0.45 0 0 0.455 0 0.02 0.455 0 0.04 0.455 0 0.06 0.455 0 0.08 0.455 0 0.1 0.455 0 0 0.46 0 0.02 0.46 0 0.04 0.46 0 0.06 0.46 0 0.08 0.46 0 0.1 0.46 0 0 0.465 0 0.02 0.465 0 0.04 0.465 0 0.06 0.465 0 0.08 0.465 0 0.1 0.465 0 0 0.47 0 0.02 0.47 0 0.04 0.47 0 0.06 0.47 0 0.08 0.47 0 0.1 0.47 0 0 0.475 0 0.02 0.475 0 0.04 0.475 0 0.06 0.475 0 0.08 0.475 0 0.1 0.475 0 0 0.48 0 0.02 0.48 0 0.04 0.48 0 0.06 0.48 0 0.08 0.48 0 0.1 0.48 0 0 0.485 0 0.02 0.485 0 0.04 0.485 0 0.06 0.485 0 0.08 0.485 0 0.1 0.485 0 0 0.49 0 0.02 0.49 0 0.04 0.49 0 0.06 0.49 0 0.08 0.49 0 0.1 0.49 0 0 0.495 0 0.02 0.495 0 0.04 0.495 0 0.06 0.495 0 0.08 0.495 0 0.1 0.495 0 0 0.5 0 0.02 0.5 0 0.04 0.5 0 0.06 0.5 0 0.08 0.5 0 0.1 0.5 0 0 0.505 0 0.02 0.505 0 0.04 0.505 0 0.06 0.505 0 0.08 0.505 0 0.1 0.505 0 0 0.51 0 0.02 0.51 0 0.04 0.51 0 0.06 0.51 0 0.08 0.51 0 0.1 0.51 0 0 0.515 0 0.02 0.515 0 0.04 0.515 0 0.06 0.515 0 0.08 0.515 0 0.1 0.515 0 0 0.52 0 0.02 0.52 0 0.04 0.52 0 0.06 0.52 0 0.08 0.52 0 0.1 0.52 0 0 0.525 0 0.02 0.525 0 0.04 0.525 0 0.06 0.525 0 0.08 0.525 0 0.1 0.525 0 0 0.53 0 0.02 0.53 0 0.04 0.53 0 0.06 0.53 0 0.08 0.53 0 0.1 0.53 0 0 0.535 0 0.02 0.535 0 0.04 0.535 0 0.06 0.535 0 0.08 0.535 0 0.1 0.535 0 0 0.54 0 0.02 0.54 0 0.04 0.54 0 0.06 0.54 0 0.08 0.54 0 0.1 0.54 0 0 0.545 0 0.02 0.545 0 0.04 0.545 0 0.06 0.545 0 0.08 0.545 0 0.1 0.545 0 0 0.55 0 0.02 0.55 0 0.04 0.55 0 0.06 0.55 0 0.08 0.55 0 0.1 0.55 0 0 0.555 0 0.02 0.555 0 0.04 0.555 0 0.06 0.555 0 0.08 0.555 0 0.1 0.555 0 0 0.56 0 0.02 0.56 0 0.04 0.56 0 0.06 0.56 0 0.08 0.56 0 0.1 0.56 0 0 0.565 0 0.02 0.565 0 0.04 0.565 0 0.06 0.565 0 0.08 0.565 0 0.1 0.565 0 0 0.57 0 0.02 0.57 0 0.04 0.57 0 0.06 0.57 0 0.08 0.57 0 0.1 0.57 0 0 0.575 0 0.02 0.575 0 0.04 0.575 0 0.06 0.575 0 0.08 0.575 0 0.1 0.575 0 0 0.58 0 0.02 0.58 0 0.04 0.58 0 0.06 0.58 0 0.08 0.58 0 0.1 0.58 0 0 0.585 0 0.02 0.585 0 0.04 0.585 0 0.06 0.585 0 0.08 0.585 0 0.1 0.585 0 0 0.59 0 0.02 0.59 0 0.04 0.59 0 0.06 0.59 0 0.08 0.59 0 0.1 0.59 0 0 0.595 0 0.02 0.595 0 0.04 0.595 0 0.06 0.595 0 0.08 0.595 0 0.1 0.595 0 0 0.6 0 0.02 0.6 0 0.04 0.6 0 0.06 0.6 0 0.08 0.6 0 0.1 0.6 0 0 0.605 0 0.02 0.605 0 0.04 0.605 0 0.06 0.605 0 0.08 0.605 0 0.1 0.605 0 0 0.61 0 0.02 0.61 0 0.04 0.61 0 0.06 0.61 0 0.08 0.61 0 0.1 0.61 0 0 0.615 0 0.02 0.615 0 0.04 0.615 0 0.06 0.615 0 0.08 0.615 0 0.1 0.615 0 0 0.62 0 0.02 0.62 0 0.04 0.62 0 0.06 0.62 0 0.08 0.62 0 0.1 0.62 0 0 0.625 0 0.02 0.625 0 0.04 0.625 0 0.06 0.625 0 0.08 0.625 0 0.1 0.625 0 0 0.63 0 0.02 0.63 0 0.04 0.63 0 0.06 0.63 0 0.08 0.63 0 0.1 0.63 0 0 0.635 0 0.02 0.635 0 0.04 0.635 0 0.06 0.635 0 0.08 0.635 0 0.1 0.635 0 0 0.64 0 0.02 0.64 0 0.04 0.64 0 0.06 0.64 0 0.08 0.64 0 0.1 0.64 0 0 0.645 0 0.02 0.645 0 0.04 0.645 0 0.06 0.645 0 0.08 0.645 0 0.1 0.645 0 0 0.65 0 0.02 0.65 0 0.04 0.65 0 0.06 0.65 0 0.08 0.65 0 0.1 0.65 0 0 0.655 0 0.02 0.655 0 0.04 0.655 0 0.06 0.655 0 0.08 0.655 0 0.1 0.655 0 0 0.66 0 0.02 0.66 0 0.04 0.66 0 0.06 0.66 0 0.08 0.66 0 0.1 0.66 0 0 0.665 0 0.02 0.665 0 0.04 0.665 0 0.06 0.665 0 0.08 0.665 0 0.1 0.665 0 0 0.67 0 0.02 0.67 0 0.04 0.67 0 0.06 0.67 0 0.08 0.67 0 0.1 0.67 0 0 0.675 0 0.02 0.675 0 0.04 0.675 0 0.06 0.675 0 0.08 0.675 0 0.1 0.675 0 0 0.68 0 0.02 0.68 0 0.04 0.68 0 0.06 0.68 0 0.08 0.68 0 0.1 0.68 0 0 0.685 0 0.02 0.685 0 0.04 0.685 0 0.06 0.685 0 0.08 0.685 0 0.1 0.685 0 0 0.69 0 0.02 0.69 0 0.04 0.69 0 0.06 0.69 0 0.08 0.69 0 0.1 
[...]
			<PointData Scalars="VitesseX">
				<DataArray Name="VitesseX" type="Float32" format="ascii">
 0 -5.60198e-15 -9.83984e-16 1.04957e-14 -6.37118e-15 0 0 -4.0599e-15 -3.33145e-15 1.22159e-14 -6.00039e-15 0 0 -5.64502e-15 1.5091e-15 2.69301e-15 3.30837e-15 0 0 4.13072e-15 -9.33038e-15 6.64101e-15 3.70643e-15 0 0 1.42808e-14 -1.48865e-14 5.60828e-15 6.20779e-15 0 0 6.64962e-15 1.33017e-14 -2.8494e-14 2.46833e-14 0 0 3.54756e-15 2.481e-14 -3.92291e-14 2.73125e-14 0 0 1.08384e-14 1.14149e-15 2.17718e-15 -7.77101e-15 0 0 6.92541e-15 2.89908e-15 3.68399e-15 -1.42491e-14 0 0 5.70336e-15 1.17013e-14 -2.1024e-14 -2.86947e-15 0 0 1.48585e-14 -9.42566e-15 1.08298e-14 -3.98626e-14 0 0 -2.70958e-15 6.96271e-15 -2.25839e-16 -4.07526e-14 0 0 -1.31122e-14 1.70323e-14 -2.96142e-14 -1.34292e-14 0 0 -1.31468e-15 2.9499e-15 -2.37303e-14 -2.16176e-14 0 0 -6.00425e-15 6.93956e-16 -2.08161e-14 -2.94987e-14 0 0 -6.80939e-16 -3.96862e-14 1.54891e-14 -4.41159e-14 0 0 -7.65886e-15 -4.43616e-14 3.6907e-16 -1.9102e-14 0 0 -1.52191e-14 -2.63325e-14 -2.92149e-14 8.67833e-15 0 0 -3.23774e-14 -1.33264e-14 -3.02249e-14 1.64123e-14 0 0 -4.39634e-14 -1.91524e-14 -1.98446e-14 1.93786e-14 0 0 -4.62913e-14 -1.57332e-14 -4.77235e-14 3.91759e-14 0 0 -8.51522e-14 3.73324e-14 -9.09472e-14 4.58087e-14 0 0 -2.5199e-14 -5.5655e-14 2.26196e-14 -3.91211e-14 0 0 5.82492e-15 -9.1169e-14 7.07844e-14 -8.03228e-14 0 0 -3.32041e-14 -1.89048e-14 5.84308e-16 -3.76238e-14 0 0 -2.09233e-14 -3.91884e-14 2.73532e-16 -1.05624e-14 0 0 -4.11806e-15 -7.18486e-14 3.26317e-14 -1.32543e-14 0 0 -1.68446e-14 -3.98271e-14 1.21518e-14 -1.70161e-14 0 0 -4.9415e-16 -7.44625e-14 5.0226e-14 -5.11736e-14 0 0 7.57377e-15 -9.10317e-14 3.96882e-14 -3.05233e-14 0 0 -3.27377e-14 -1.82133e-14 -6.13559e-14 2.78517e-14 0 0 -1.37618e-14 -6.20628e-14 -8.10203e-15 -1.36668e-14 0 0 -3.82044e-14 -3.9871e-14 -2.13672e-14 -8.26032e-16 0 0 -6.28838e-14 -4.46627e-14 -2.09262e-14 -3.46554e-15 0 0 -4.6013e-14 -1.08785e-13 2.69227e-14 -2.43465e-14 0 0 -5.67466e-14 -5.59504e-14 -2.63211e-14 -2.58362e-14 0 0 -5.59666e-14 -1.98389e-14 -6.10187e-14 -2.26525e-14 0 0 -3.0264e-14 -5.391e-14 -4.59373e-14 2.36279e-14 0 0 4.30776e-15 -9.15398e-14 -3.02134e-14 4.14715e-14 0 0 2.31146e-14 -8.83058e-14 -4.38376e-14 4.31342e-14 0 0 1.8095e-14 -5.53396e-14 -4.35829e-14 6.37137e-15 0 0 4.04507e-14 -7.90786e-14 2.09338e-14 -5.96383e-14 0 0 3.07903e-14 -5.53764e-14 2.44703e-15 -4.18895e-14 0 0 -5.03754e-15 2.45408e-14 -1.09331e-13 5.8038e-14 0 0 -4.07991e-15 5.5583e-14 -1.59099e-13 1.24775e-13 0 0 6.12296e-14 -6.57372e-14 -6.25054e-15 6.17102e-14 0 0 2.74124e-14 -7.18405e-14 9.94573e-14 -2.22721e-14 0 0 -4.83173e-14 7.08922e-14 -3.48993e-14 4.54682e-14 0 0 3.92415e-14 2.37847e-14 -6.99812e-14 7.00687e-14 0 0 3.73408e-14 7.41914e-14 -1.33546e-13 8.66303e-14 0 0 -3.69531e-14 2.20698e-13 -3.13574e-13 2.06744e-13 0 0 1.92511e-14 8.97801e-14 -1.33146e-13 6.19132e-14 0 0 2.62779e-15 6.39387e-14 1.53598e-14 -1.08586e-13 0 0 5.83765e-14 2.99246e-14 2.71838e-14 -1.15292e-13 0 0 7.28255e-14 5.15474e-14 -6.3931e-14 -5.43984e-14 0 0 -2.94205e-14 1.8988e-13 -1.58496e-13 -4.03957e-14 0 0 1.10405e-13 2.44126e-14 4.29314e-14 -1.79776e-13 0 0 1.23931e-13 2.346e-14 3.11583e-14 -1.3778e-13 0 0 -1.90757e-14 1.6235e-13 -2.88615e-14 -1.23832e-13 0 0 -5.95004e-14 2.43513e-13 -1.12657e-13 -9.01718e-14 0 0 6.09325e-14 1.04441e-13 -7.7439e-14 -4.88849e-14 0 0 2.00087e-13 -6.68519e-14 4.03114e-14 -4.6047e-14 0 0 -5.58162e-15 2.18212e-13 -1.95365e-13 1.21774e-13 0 0 -1.48953e-13 3.61061e-13 -2.96393e-13 1.33193e-13 0 0 -7.11049e-15 1.79884e-13 -2.24688e-13 4.15064e-14 0 0 1.57495e-13 1.87779e-14 -1.86118e-13 -1.88273e-14 0 0 2.99017e-13 -1.20829e-13 -9.05666e-14 -1.36577e-13 0 0 1.6421e-13 1.37647e-13 -3.36845e-13 -1.37163e-14 0 0 1.1905e-13 2.0205e-13 -3.47856e-13 4.32649e-14 0 0 1.2959e-13 1.36723e-14 -5.40102e-14 -1.3382e-13 0 0 -5.36822e-14 6.07746e-14 1.28287e-15 -1.66562e-13 0 0 -5.45701e-14 1.51647e-14 4.66045e-14 -1.5036e-13 0 0 -4.48286e-14 1.27048e-13 -1.2545e-13 -5.85296e-14 0 0 -5.30353e-14 2.67503e-13 -3.08943e-13 -2.50638e-14 0 0 1.95045e-15 2.13502e-13 -2.87458e-13 -1.08084e-13 0 0 4.30121e-14 1.33692e-13 -2.7012e-13 -7.73283e-14 0 0 1.23147e-13 -3.15159e-15 -2.1298e-13 3.52322e-15 0 0 1.21868e-13 -4.79174e-14 -2.14473e-13 8.77767e-14 0 0 2.52992e-14 2.48643e-14 -2.77529e-13 1.41739e-13 0 0 -6.99356e-14 9.68968e-14 -3.05176e-13 1.2643e-13 0 0 -1.5109e-13 1.4241e-13 -2.96227e-13 6.78693e-14 0 0 -2.14129e-13 1.35829e-13 -2.50431e-13 1.81575e-15 0 0 -2.50077e-13 7.92231e-14 -1.79154e-13 -6.88838e-14 0 0 -2.61117e-13 6.70882e-17 -9.54895e-14 -1.45454e-13 0 0 -2.54724e-13 -7.16724e-14 -4.51083e-14 -1.7402e-13 0 0 -2.42071e-13 -1.18322e-13 -4.6474e-14 -1.51624e-13 0 0 -2.3664e-13 -1.33465e-13 -8.83393e-14 -1.00159e-13 0 0 -2.43883e-13 -1.25612e-13 -1.47523e-13 -4.54389e-14 0 0 -2.63722e-13 -1.11023e-13 -1.99191e-13 -5.18479e-15 0 0 -2.98009e-13 -9.46486e-14 -2.35378e-13 1.6022e-14 0 0 -3.26923e-13 -1.06163e-13 -2.37245e-13 1.2103e-14 0 0 -3.34479e-13 -1.59665e-13 -1.97973e-13 -1.65635e-14 0 0 -3.30157e-13 -2.24938e-13 -1.49341e-13 -5.23539e-14 0 0 -3.33057e-13 -2.68922e-13 -1.28224e-13 -6.60109e-14 0 0 -3.573e-13 -2.82531e-13 -1.2901e-13 -6.28563e-14 0 0 -4.00393e-13 -2.78348e-13 -1.23842e-13 -6.9734e-14 0 0 -4.51557e-13 -2.60865e-13 -1.19302e-13 -7.51688e-14 0 0 -4.99758e-13 -2.32085e-13 -1.23355e-13 -7.29136e-14 0 0 -5.32908e-13 -2.10043e-13 -1.15379e-13 -8.41686e-14 0 0 -5.37791e-13 -2.066e-13 -9.53961e-14 -1.04569e-13 0 0 -5.12268e-13 -2.20837e-13 -6.84098e-14 -1.22814e-13 0 0 -4.63771e-13 -2.45348e-13 -4.21585e-14 -1.30549e-13 0 0 -4.00744e-13 -2.68645e-13 -3.23411e-14 -1.10439e-13 0 0 -3.33605e-13 -2.79446e-13 -3.93898e-14 -7.06883e-14 0 0 -2.65221e-13 -2.81348e-13 -4.74607e-14 -2.9593e-14 0 0 -1.92413e-13 -2.81736e-13 -4.97309e-14 9.63609e-15 0 0 -1.1616e-13 -2.82131e-13 -4.91651e-14 5.44763e-14 0 0 -4.27135e-14 -2.76786e-13 -4.96046e-14 1.09909e-13 0 0 1.9623e-14 -2.60408e-13 -5.3397e-14 1.66826e-13 0 0 6.96995e-14 -2.39657e-13 -4.9039e-14 2.1722e-13 0 0 1.10105e-13 -2.17053e-13 -3.8338e-14 2.61619e-13 0 0 1.39803e-13 -1.96317e-13 -2.62321e-14 3.01399e-13 0 0 1.64893e-13 -1.9382e-13 5.18849e-15 3.2303e-13 0 0 1.86301e-13 -1.99307e-13 4.58607e-14 3.28669e-13 0 0 1.84578e-13 -1.52222e-13 2.96719e-14 3.58257e-13 0 0 1.71816e-13 -1.02403e-13 3.81164e-14 3.25617e-13 0 0 1.75449e-13 -9.66911e-14 9.99645e-14 2.47914e-13 0 0 1.89597e-13 -9.95101e-14 1.20071e-13 2.36305e-13 0 0 1.77642e-13 -7.37593e-14 1.41714e-13 1.86978e-13 0 0 1.775e-13 -5.90581e-14 1.74664e-13 1.11436e-13 0 0 1.84144e-13 -2.77463e-14 1.38966e-13 1.04367e-13 0 0 1.6421e-13 4.15703e-14 6.57885e-14 1.36093e-13 0 0 1.54374e-13 6.80192e-14 4.60719e-14 1.15799e-13 0 0 1.54812e-13 6.79924e-14 5.53113e-14 8.10038e-14 0 0 1.52688e-13 5.18937e-14 8.54187e-14 3.84782e-14 0 0 1.26736e-13 5.98856e-14 1.00409e-13 -1.80214e-15 0 0 9.69251e-14 8.017e-14 6.40452e-14 6.99199e-14 0 0 7.97248e-14 1.06094e-13 -2.06539e-15 1.03148e-13 0 0 8.57735e-14 8.37899e-14 5.10651e-15 4.44223e-14 0 0 8.17769e-14 6.12054e-14 7.59975e-15 2.26226e-14 0 0 4.55858e-14 6.66805e-14 1.28754e-14 -1.12035e-14 0 0 4.18965e-14 5.28625e-14 -1.97309e-14 3.73207e-14 0 0 5.38171e-14 1.86989e-14 -3.72639e-14 3.44371e-14 0 0 2.59463e-14 2.0868e-15 2.07873e-14 -1.01257e-13 0 0 1.13161e-14 4.2234e-14 -5.74884e-14 -1.37369e-13 0 0 1.11552e-14 5.13102e-14 -1.22528e-13 -8.0301e-14 0 0 -9.51234e-15 3.91189e-14 -1.1353e-13 -5.15696e-14 0 0 -1.12536e-14 -9.38435e-15 -3.87427e-14 -1.06113e-13 0 0 -3.47982e-14 -5.15605e-14 8.60852e-15 -7.95731e-14 0 0 -7.06051e-14 -5.15454e-14 -2.52121e-14 -3.38361e-14 0 0 -9.02548e-14 -2.19645e-14 -8.54275e-14 -4.65974e-14 0 0 -8.4836e-14 -4.84813e-14 -9.35398e-14 -1.38566e-14 0 0 -8.00895e-14 -7.49578e-14 -9.40691e-14 -1.84457e-14 0 0 -9.42645e-14 -6.66888e-14 -1.17885e-13 -2.50687e-14 0 0 -9.93469e-14 -8.55398e-14 -1.1819e-13 -2.00786e-14 0 0 -1.22141e-13 -8.25435e-14 -1.07672e-13 -4.81842e-14 0 0 -1.00334e-13 -1.19079e-13 -9.18167e-14 -6.6415e-14 0 0 -7.9928e-14 -1.02232e-13 -1.70911e-13 -8.71202e-14 0 0 -8.70552e-14 -5.35912e-14 -2.34095e-13 -1.48719e-13 0 0 -5.68231e-14 -8.86256e-14 -1.75638e-13 -2.15692e-13 0 0 -4.52686e-14 -2.31885e-14 -2.08023e-13 1.33704e-14 0 0 -2.47619e-14 4.2842e-14 -1.57228e-13 2.80713e-13 0 0 -1.29459e-14 7.34415e-15 2.69048e-14 2.62109e-13 0 0 -1.06909e-14 -3.34394e-14 1.71198e-13 1.78865e-13 0 0 3.90904e-14 -6.27647e-14 2.63272e-13 2.66435e-15 0 0 2.81993e-14 -2.10486e-14 2.18336e-13 -1.32353e-13 0 0 1.94017e-15 3.25911e-15 1.93984e-13 -5.62335e-14 0 0 -7.78704e-15 5.70257e-14 1.34416e-13 3.93406e-14 0 0 -3.10711e-14 1.04722e-13 9.46742e-14 6.8683e-14 0 0 -3.47393e-14 7.46134e-14 1.51802e-13 8.49873e-14 0 0 -2.33767e-14 9.64487e-15 2.21594e-13 1.11841e-13 0 0 -4.65245e-14 4.21039e-14 2.31451e-13 7.095e-14 0 0 -1.4446e-13 2.38921e-13 9.97454e-14 1.13262e-13 0 0 -9.84603e-14 1.99506e-13 1.12863e-13 2.19941e-13 0 0 2.98432e-14 4.71057e-14 2.35299e-13 2.34832e-13 0 0 3.93812e-15 1.80243e-13 1.28216e-13 2.73193e-13 0 0 3.87675e-14 2.14038e-13 1.12306e-13 2.50639e-13 0 0 6.37337e-14 1.79518e-13 2.07354e-13 1.90383e-13 0 0 7.44072e-14 1.59056e-13 3.54967e-13 7.69436e-15 0 0 8.77116e-14 2.27855e-13 3.06062e-13 4.36739e-15 0 0 1.30302e-13 1.99938e-13 2.57777e-13 2.11664e-13 0 0 1.39409e-13 1.78053e-13 2.44194e-13 3.44589e-13 0 0 1.22492e-13 2.39874e-13 1.75309e-13 3.87666e-13 0 0 1.77671e-13 1.8231e-13 2.62002e-13 2.61722e-13 0 0 1.41581e-13 2.42463e-13 2.47018e-13 2.28769e-13 0 0 2.30437e-13 1.15871e-13 3.68731e-13 1.93116e-13 0 0 2.20419e-13 1.70257e-13 2.59784e-13 3.61325e-13 0 0 6.68635e-14 3.90723e-13 1.66754e-13 3.98901e-13 0 0 1.06243e-15 4.4483e-13 2.91832e-13 1.81013e-13 0 0 1.21678e-13 3.39235e-13 3.43445e-13 1.76199e-13 0 0 3.47657e-13 1.33883e-13 4.33942e-13 1.34737e-13 0 0 1.00248e-13 4.71089e-13 1.43415e-13 2.04093e-13 0 0 -1.39146e-13 7.22585e-13 6.95111e-14 9.77018e-14 0 0 3.15378e-13 1.01207e-13 6.55625e-13 -3.69505e-13 0 0 1.38115e-13 3.80477e-13 2.12001e-13 6.93275e-15 0 0 -8.40255e-14 6.73899e-13 -1.344e-13 3.32207e-13 0 0 1.58607e-13 2.88674e-13 2.43232e-13 1.16071e-13 0 0 1.91156e-13 2.64484e-13 1.71042e-13 1.9987e-13 0 0 4.35247e-13 1.04022e-14 4.705e-13 -2.12468e-13 0 0 2.1139e-13 4.06441e-13 1.57484e-13 -1.29886e-13 0 0 9.822e-14 4.52078e-13 4.26415e-14 2.09792e-13 0 0 3.70615e-13 6.99982e-14 3.55367e-13 9.29947e-14 0 0 1.37891e-13 4.18872e-13 7.19202e-14 1.51354e-13 0 0 4.89239e-14 4.43614e-13 1.27527e-13 1.74548e-14 0 0 1.50943e-13 4.90778e-13 -4.7772e-14 4.00143e-14 0 0 1.77242e-13 6.05893e-13 -3.24374e-13 2.95808e-13 0 0 2.83e-14 7.43716e-13 -4.03627e-13 4.29516e-13 0 0 -3.53619e-14 6.08714e-13 -1.62551e-13 2.79932e-13 0 0 2.65972e-13 1.63404e-13 3.93989e-14 2.42209e-13 0 0 4.1914e-13 1.77746e-13 -2.84809e-13 5.70094e-13 0 0 4.76693e-13 1.89149e-13 -3.93729e-13 7.21412e-13 0
				</DataArray>
				<DataArray Name="VitesseY" type="Float32" format="ascii">