<?xml version="1.0"?>
<VTKFile type="PolyData">
	<PolyData>
		<Piece NumberOfPoints="1206" NumberOfPolys="1000">
			<Points>
				<DataArray type="Float32" NumberOfComponents="3" format="ascii">
 0 0 0 0.02 0 0 0.04 0 0 0.06 0 0 0.08 0 0 0.1 0 0 0 0.005 0 0.02 0.005 0 0.04 0.005 0 0.06 0.005 0 0.08 0.005 0 0.1 0.005 0 0 0.01 0 0.02 0.01 0 0.04 0.01 0 0.06 0.01 0 0.08 0.01 0 0.1 0.01 0 0 0.015 0 0.02 0.015 0 0.04 0.015 0 0.06 0.015 0 0.08 0.015 0 0.1 0.015 0 0 0.02 0 0.02 0.02 0 0.04 0.02 0 0.06 0.02 0 0.08 0.02 0 0.1 0.02 0 0 0.025 0 0.02 0.025 0 0.04 0.025 0 0.06 0.025 0 0.08 0.025 0 0.1 0.025 0 0 0.03 0 0.02 0.03 0 0.04 0.03 0 0.06 0.03 0 0.08 0.03 0 0.1 0.03 0 0 0.035 0 0.02 0.035 0 0.04 0.035 0 0.06 0.035 0 0.08 0.035 0 0.1 0.035 0 0 0.04 0 0.02 0.04 0 0.04 0.04 0 0.06 0.04 0 0.08 0.04 0 0.1 0.04 0 0 0.045 0 0.02 0.045 0 0.04 0.045 0 0.06 0.045 0 0.08 0.045 0 0.1 0.045 0 0 0.05 0 0.02 0.05 0 0.04 0.05 0 0.06 0.05 0 0.08 0.05 0 0.1 0.05 0 0 0.055 0 0.02 0.055 0 0.04 0.055 0 0.06 0.055 0 0.08 0.055 0 0.1 0.055 0 0 0.06 0 0.02 0.06 0 0.04 0.06 0 0.06 0.06 0 0.08 0.06 0 0.1 0.06 0 0 0.065 0 0.02 0.065 0 0.04 0.065 0 0.06 0.065 0 0.08 0.065 0 0.1 0.065 0 0 0.07 0 0.02 0.07 0 0.04 0.07 0 0.06 0.07 0 0.08 0.07 0 0.1 0.07 0 0 0.075 0 0.02 0.075 0 0.04 0.075 0 0.06 0.075 0 0.08 0.075 0 0.1 0.075 0 0 0.08 0 0.02 0.08 0 0.04 0.08 0 0.06 0.08 0 0.08 0.08 0 0.1 0.08 0 0 0.085 0 0.02 0.085 0 0.04 0.085 0 0.06 0.085 0 0.08 0.085 0 0.1 0.085 0 0 0.09 0 0.02 0.09 0 0.04 0.09 0 0.06 0.09 0 0.08 0.09 0 0.1 0.09 0 0 0.095 0 0.02 0.095 0 0.04 0.095 0 0.06 0.095 0 0.08 0.095 0 0.1 0.095 0 0 0.1 0 0.02 0.1 0 0.04 0.1 0 0.06 0.1 0 0.08 0.1 0 0.1 0.1 0 0 0.105 0 0.02 0.105 0 0.04 0.105 0 0.06 0.105 0 0.08 0.105 0 0.1 0.105 0 0 0.11 0 0.02 0.11 0 0.04 0.11 0 0.06 0.11 0 0.08 0.11 0 0.1 0.11 0 0 0.115 0 0.02 0.115 0 0.04 0.115 0 0.06 0.115 0 0.08 0.115 0 0.1 0.115 0 0 0.12 0 0.02 0.12 0 0.04 0.12 0 0.06 0.12 0 0.08 0.12 0 0.1 0.12 0 0 0.125 0 0.02 0.125 0 0.04 0.125 0 0.06 0.125 0 0.08 0.125 0 0.1 0.125 0 0 0.13 0 0.02 0.13 0 0.04 0.13 0 0.06 0.13 0 0.08 0.13 0 0.1 0.13 0 0 0.135 0 0.02 0.135 0 0.04 0.135 0 0.06 0.135 0 0.08 0.135 0 0.1 0.135 0 0 0.14 0 0.02 0.14 0 0.04 0.14 0 0.06 0.14 0 0.08 0.14 0 0.1 0.14 0 0 0.145 0 0.02 0.145 0 0.04 0.145 0 0.06 0.145 0 0.08 0.145 0 0.1 0.145 0 0 0.15 0 0.02 0.15 0 0.04 0.15 0 0.06 0.15 0 0.08 0.15 0 0.1 0.15 0 0 0.155 0 0.02 0.155 0 0.04 0.155 0 0.06 0.155 0 0.08 0.155 0 0.1 0.155 0 0 0.16 0 0.02 0.16 0 0.04 0.16 0 0.06 0.16 0 0.08 0.16 0 0.1 0.16 0 0 0.165 0 0.02 0.165 0 0.04 0.165 0 0.06 0.165 0 0.08 0.165 0 0.1 0.165 0 0 0.17 0 0.02 0.17 0 0.04 0.17 0 0.06 0.17 0 0.08 0.17 0 0.1 0.17 0 0 0.175 0 0.02 0.175 0 0.04 0.175 0 0.06 0.175 0 0.08 0.175 0 0.1 0.175 0 0 0.18 0 0.02 0.18 0 0.04 0.18 0 0.06 0.18 0 0.08 0.18 0 0.1 0.18 0 0 0.185 0 0.02 0.185 0 0.04 0.185 0 0.06 0.185 0 0.08 0.185 0 0.1 0.185 0 0 0.19 0 0.02 0.19 0 0.04 0.19 0 0.06 0.19 0 0.08 0.19 0 0.1 0.19 0 0 0.195 0 0.02 0.195 0 0.04 0.195 0 0.06 0.195 0 0.08 0.195 0 0.1 0.195 0 0 0.2 0 0.02 0.2 0 0.04 0.2 0 0.06 0.2 0 0.08 0.2 0 0.1 0.2 0 0 0.205 0 0.02 0.205 0 0.04 0.205 0 0.06 0.205 0 0.08 0.205 0 0.1 0.205 0 0 0.21 0 0.02 0.21 0 0.04 0.21 0 0.06 0.21 0 0.08 0.21 0 0.1 0.21 0 0 0.215 0 0.02 0.215 0 0.04 0.215 0 0.06 0.215 0 0.08 0.215 0 0.1 0.215 0 0 0.22 0 0.02 0.22 0 0.04 0.22 0 0.06 0.22 0 0.08 0.22 0 0.1 0.22 0 0 0.225 0 0.02 0.225 0 0.04 0.225 0 0.06 0.225 0 0.08 0.225 0 0.1 0.225 0 0 0.23 0 0.02 0.23 0 0.04 0.23 0 0.06 0.23 0 0.08 0.23 0 0.1 0.23 0 0 0.235 0 0.02 0.235 0 0.04 0.235 0 0.06 0.235 0 0.08 0.235 0 0.1 0.235 0 0 0.24 0 0.02 0.24 0 0.04 0.24 0 0.06 0.24 0 0.08 0.24 0 0.1 0.24 0 0 0.245 0 0.02 0.245 0 0.04 0.245 0 0.06 0.245 0 0.08 0.245 0 0.1 0.245 0 0 0.25 0 0.02 0.25 0 0.04 0.25 0 0.06 0.25 0 0.08 0.25 0 0.1 0.25 0 0 0.255 0 0.02 0.255 0 0.04 0.255 0 0.06 0.255 0 0.08 0.255 0 0.1 0.255 0 0 0.26 0 0.02 0.26 0 0.04 0.26 0 0.06 0.26 0 0.08 0.26 0 0.1 0.26 0 0 0.265 0 0.02 0.265 0 0.04 0.265 0 0.06 0.265 0 0.08 0.265 0 0.1 0.265 0 0 0.27 0 0.02 0.27 0 0.04 0.27 0 0.06 0.27 0 0.08 0.27 0 0.1 0.27 0 0 0.275 0 0.02 0.275 0 0.04 0.275 0 0.06 0.275 0 0.08 0.275 0 0.1 0.275 0 0 0.28 0 0.02 0.28 0 0.04 0.28 0 0.06 0.28 0 0.08 0.28 0 0.1 0.28 0 0 0.285 0 0.02 0.285 0 0.04 0.285 0 0.06 0.285 0 0.08 0.285 0 0.1 0.285 0 0 0.29 0 0.02 0.29 0 0.04 0.29 0 0.06 0.29 0 0.08 0.29 0 0.1 0.29 0 0 0.295 0 0.02 0.295 0 0.04 0.295 0 0.06 0.295 0 0.08 0.295 0 0.1 0.295 0 0 0.3 0 0.02 0.3 0 0.04 0.3 0 0.06 0.3 0 0.08 0.3 0 0.1 0.3 0 0 0.305 0 0.02 0.305 0 0.04 0.305 0 0.06 0.305 0 0.08 0.305 0 0.1 0.305 0 0 0.31 0 0.02 0.31 0 0.04 0.31 0 0.06 0.31 0 0.08 0.31 0 0.1 0.31 0 0 0.315 0 0.02 0.315 0 0.04 0.315 0 0.06 0.315 0 0.08 0.315 0 0.1 0.315 0 0 0.32 0 0.02 0.32 0 0.04 0.32 0 0.06 0.32 0 0.08 0.32 0 0.1 0.32 0 0 0.325 0 0.02 0.325 0 0.04 0.325 0 0.06 0.325 0 0.08 0.325 0 0.1 0.325 0 0 0.33 0 0.02 0.33 0 0.04 0.33 0 0.06 0.33 0 0.08 0.33 0 0.1 0.33 0 0 0.335 0 0.02 0.335 0 0.04 0.335 0 0.06 0.335 0 0.08 0.335 0 0.1 0.335 0 0 0.34 0 0.02 0.34 0 0.04 0.34 0 0.06 0.34 0 0.08 0.34 0 0.1 0.34 0 0 0.345 0 0.02 0.345 0 0.04 0.345 0 0.06 0.345 0 0.08 0.345 0 0.1 0.345 0 0 0.35 0 0.02 0.35 0 0.04 0.35 0 0.06 0.35 0 0.08 0.35 0 0.1 0.35 0 0 0.355 0 0.02 0.355 0 0.04 0.355 0 0.06 0.355 0 0.08 0.355 0 0.1 0.355 0 0 0.36 0 0.02 0.36 0 0.04 0.36 0 0.06 0.36 0 0.08 0.36 0 0.1 0.36 0 0 0.365 0 0.02 0.365 0 0.04 0.365 0 0.06 0.365 0 0.08 0.365 0 0.1 0.365 0 0 0.37 0 0.02 0.37 0 0.04 0.37 0 0.06 0.37 0 0.08 0.37 0 0.1 0.37 0 0 0.375 0 0.02 0.375 0 0.04 0.375 0 0.06 0.375 0 0.08 0.375 0 0.1 0.375 0 0 0.38 0 0.02 0.38 0 0.04 0.38 0 0.06 0.38 0 0.08 0.38 0 0.1 0.38 0 0 0.385 0 0.02 0.385 0 0.04 0.385 0 0.06 0.385 0 0.08 0.385 0 0.1 0.385 0 0 0.39 0 0.02 0.39 0 0.04 0.39 0 0.06 0.39 0 0.08 0.39 0 0.1 0.39 0 0 0.395 0 0.02 0.395 0 0.04 0.395 0 0.06 0.395 0 0.08 0.395 0 0.1 0.395 0 0 0.4 0 0.02 0.4 0 0.04 0.4 0 0.06 0.4 0 0.08 0.4 0 0.1 0.4 0 0 0.405 0 0.02 0.405 0 0.04 0.405 0 0.06 0.405 0 0.08 0.405 0 0.1 0.405 0 0 0.41 0 0.02 0.41 0 0.04 0.41 0 0.06 0.41 0 0.08 0.41 0 0.1 0.41 0 0 0.415 0 0.02 0.415 0 0.04 0.415 0 0.06 0.415 0 0.08 0.415 0 0.1 0.415 0 0 0.42 0 0.02 0.42 0 0.04 0.42 0 0.06 0.42 0 0.08 0.42 0 0.1 0.42 0 0 0.425 0 0.02 0.425 0 0.04 0.425 0 0.06 0.425 0 0.08 0.425 0 0.1 0.425 0 0 0.43 0 0.02 0.43 0 0.04 0.43 0 0.06 0.43 0 0.08 0.43 0 0.1 0.43 0 0 0.435 0 0.02 0.435 0 0.04 0.435 0 0.06 0.435 0 0.08 0.435 0 0.1 0.435 0 0 0.44 0 0.02 0.44 0 0.04 0.44 0 0.06 0.44 0 0.08 0.44 0 0.1 0.44 0 0 0.445 0 0.02 0.445 0 0.04 0.445 0 0.06 0.445 0 0.08 0.445 0 0.1 0.445 0 0 0.45 0 0.02 0.45 0 0.04 0.45 0 0.06 0.45 0 0.08 0.45 0 0.1 0.45 0 0 0.455 0 0.02 0.455 0 0.04 0.455 0 0.06 0.455 0 0.08 0.455 0 0.1 0.455 0 0 0.46 0 0.02 0.46 0 0.04 0.46 0 0.06 0.46 0 0.08 0.46 0 0.1 0.46 0 0 0.465 0 0.02 0.465 0 0.04 0.465 0 0.06 0.465 0 0.08 0.465 0 0.1 0.465 0 0 0.47 0 0.02 0.47 0 0.04 0.47 0 0.06 0.47 0 0.08 0.47 0 0.1 0.47 0 0 0.475 0 0.02 0.475 0 0.04 0.475 0 0.06 0.475 0 0.08 0.475 0 0.1 0.475 0 0 0.48 0 0.02 0.48 0 0.04 0.48 0 0.06 0.48 0 0.08 0.48 0 0.1 0.48 0 0 0.485 0 0.02 0.485 0 0.04 0.485 0 0.06 0.485 0 0.08 0.485 0 0.1 0.485 0 0 0.49 0 0.02 0.49 0 0.04 0.49 0 0.06 0.49 0 0.08 0.49 0 0.1 0.49 0 0 0.495 0 0.02 0.495 0 0.04 0.495 0 0.06 0.495 0 0.08 0.495 0 0.1 0.495 0 0 0.5 0 0.02 0.5 0 0.04 0.5 0 0.06 0.5 0 0.08 0.5 0 0.1 0.5 0 0 0.505 0 0.02 0.505 0 0.04 0.505 0 0.06 0.505 0 0.08 0.505 0 0.1 0.505 0 0 0.51 0 0.02 0.51 0 0.04 0.51 0 0.06 0.51 0 0.08 0.51 0 0.1 0.51 0 0 0.515 0 0.02 0.515 0 0.04 0.515 0 0.06 0.515 0 0.08 0.515 0 0.1 0.515 0 0 0.52 0 0.02 0.52 0 0.04 0.52 0 0.06 0.52 0 0.08 0.52 0 0.1 0.52 0 0 0.525 0 0.02 0.525 0 0.04 0.525 0 0.06 0.525 0 0.08 0.525 0 0.1 0.525 0 0 0.53 0 0.02 0.53 0 0.04 0.53 0 0.06 0.53 0 0.08 0.53 0 0.1 0.53 0 0 0.535 0 0.02 0.535 0 0.04 0.535 0 0.06 0.535 0 0.08 0.535 0 0.1 0.535 0 0 0.54 0 0.02 0.54 0 0.04 0.54 0 0.06 0.54 0 0.08 0.54 0 0.1 0.54 0 0 0.545 0 0.02 0.545 0 0.04 0.545 0 0.06 0.545 0 0.08 0.545 0 0.1 0.545 0 0 0.55 0 0.02 0.55 0 0.04 0.55 0 0.06 0.55 0 0.08 0.55 0 0.1 0.55 0 0 0.555 0 0.02 0.555 0 0.04 0.555 0 0.06 0.555 0 0.08 0.555 0 0.1 0.555 0 0 0.56 0 0.02 0.56 0 0.04 0.56 0 0.06 0.56 0 0.08 0.56 0 0.1 0.56 0 0 0.565 0 0.02 0.565 0 0.04 0.565 0 0.06 0.565 0 0.08 0.565 0 0.1 0.565 0 0 0.57 0 0.02 0.57 0 0.04 0.57 0 0.06 0.57 0 0.08 0.57 0 0.1 0.57 0 0 0.575 0 0.02 0.575 0 0.04 0.575 0 0.06 0.575 0 0.08 0.575 0 0.1 0.575 0 0 0.58 0 0.02 0.58 0 0.04 0.58 0 0.06 0.58 0 0.08 0.58 0 0.1 0.58 0 0 0.585 0 0.02 0.585 0 0.04 0.585 0 0.06 0.585 0 0.08 0.585 0 0.1 0.585 0 0 0.59 0 0.02 0.59 0 0.04 0.59 0 0.06 0.59 0 0.08 0.59 0 0.1 0.59 0 0 0.595 0 0.02 0.595 0 0.04 0.595 0 0.06 0.595 0 0.08 0.595 0 0.1 0.595 0 0 0.6 0 0.02 0.6 0 0.04 0.6 0 0.06 0.6 0 0.08 0.6 0 0.1 0.6 0 0 0.605 0 0.02 0.605 0 0.04 0.605 0 0.06 0.605 0 0.08 0.605 0 0.1 0.605 0 0 0.61 0 0.02 0.61 0 0.04 0.61 0 0.06 0.61 0 0.08 0.61 0 0.1 0.61 0 0 0.615 0 0.02 0.615 0 0.04 0.615 0 0.06 0.615 0 0.08 0.615 0 0.1 0.615 0 0 0.62 0 0.02 0.62 0 0.04 0.62 0 0.06 0.62 0 0.08 0.62 0 0.1 0.62 0 0 0.625 0 0.02 0.625 0 0.04 0.625 0 0.06 0.625 0 0.08 0.625 0 0.1 0.625 0 0 0.63 0 0.02 0.63 0 0.04 0.63 0 0.06 0.63 0 0.08 0.63 0 0.1 0.63 0 0 0.635 0 0.02 0.635 0 0.04 0.635 0 0.06 0.635 0 0.08 0.635 0 0.1 0.635 0 0 0.64 0 0.02 0.64 0 0.04 0.64 0 0.06 0.64 0 0.08 0.64 0 0.1 0.64 0 0 0.645 0 0.02 0.645 0 0.04 0.645 0 0.06 0.645 0 0.08 0.645 0 0.1 0.645 0 0 0.65 0 0.02 0.65 0 0.04 0.65 0 0.06 0.65 0 0.08 0.65 0 0.1 0.65 0 0 0.655 0 0.02 0.655 0 0.04 0.655 0 0.06 0.655 0 0.08 0.655 0 0.1 0.655 0 0 0.66 0 0.02 0.66 0 0.04 0.66 0 0.06 0.66 0 0.08 0.66 0 0.1 0.66 0 0 0.665 0 0.02 0.665 0 0.04 0.665 0 0.06 0.665 0 0.08 0.665 0 0.1 0.665 0 0 0.67 0 0.02 0.67 0 0.04 0.67 0 0.06 0.67 0 0.08 0.67 0 0.1 0.67 0 0 0.675 0 0.02 0.675 0 0.04 0.675 0 0.06 0.675 0 0.08 0.675 0 0.1 0.675 0 0 0.68 0 0.02 0.68 0 0.04 0.68 0 0.06 0.68 0 0.08 0.68 0 0.1 0.68 0 0 0.685 0 0.02 0.685 0 0.04 0.685 0 0.06 0.685 0 0.08 0.685 0 0.1 0.685 0 0 0.69 0 0.02 0.69 0 0.04 0.69 0 0.06 0.69 0 0.08 0.69 0 0.1 
[...]
			<PointData Scalars="VitesseX">
				<DataArray Name="VitesseX" type="Float32" format="ascii">
 0 7.40125e-15 -1.85115e-14 -2.2565e-14 -1.00064e-14 0 0 3.89543e-15 -1.38905e-14 -2.36728e-14 -1.04901e-14 0 0 -7.78232e-16 -7.82566e-15 -2.21282e-14 -1.30542e-14 0 0 2.41549e-15 -1.24531e-14 -1.02237e-14 -2.1794e-14 0 0 3.50837e-15 -1.15595e-14 -6.29329e-15 -2.48949e-14 0 0 -8.1254e-15 9.32199e-15 -2.62449e-14 -1.26741e-14 0 0 -4.54597e-15 4.77382e-15 -2.19971e-14 -1.90073e-14 0 0 5.15261e-15 -1.28952e-14 -5.4521e-15 -3.3513e-14 0 0 -2.85671e-15 -7.05617e-15 -1.29025e-14 -3.11507e-14 0 0 -6.94802e-15 -1.18806e-14 -1.04465e-14 -3.50194e-14 0 0 -1.3727e-14 -1.53721e-14 -9.32009e-15 -3.93903e-14 0 0 -2.01448e-14 -1.45498e-14 -1.91513e-14 -3.12871e-14 0 0 -1.51695e-14 -2.68647e-14 -2.08756e-14 -2.72063e-14 0 0 -7.97341e-15 -4.66032e-14 -3.96003e-15 -3.9797e-14 0 0 -7.24052e-15 -6.52186e-14 1.45196e-14 -4.47292e-14 0 0 -2.18657e-14 -4.49559e-14 -1.73649e-14 -1.30549e-14 0 0 -2.87295e-14 -2.78805e-14 -4.08429e-14 3.11694e-15 0 0 -2.7791e-14 -2.9805e-14 -3.35332e-14 -9.08142e-15 0 0 -3.04157e-14 -2.69717e-14 -2.47085e-14 -1.99315e-14 0 0 -3.48442e-14 -1.68171e-14 -3.10632e-14 -1.90022e-14 0 0 -2.53276e-14 -1.18264e-14 -4.92904e-14 -1.45776e-14 0 0 5.52688e-15 -5.07902e-14 -1.49819e-14 -3.92033e-14 0 0 -2.25956e-15 -3.70268e-14 -2.38836e-14 -3.70074e-14 0 0 -3.91156e-14 2.32491e-14 -7.46288e-14 -1.61134e-14 0 0 -1.57346e-14 -1.03997e-14 -4.72365e-14 -3.18377e-14 0 0 3.98129e-14 -9.38682e-14 2.08704e-14 -6.52181e-14 0 0 6.42495e-15 -5.57755e-14 -1.48327e-14 -3.95877e-14 0 0 -1.64919e-14 -3.74995e-14 -3.81843e-14 -1.9875e-14 0 0 -2.61756e-14 -3.56307e-14 -4.36415e-14 -1.01307e-14 0 0 -5.65887e-14 7.03316e-15 -8.51803e-14 1.15323e-14 0 0 -4.25134e-14 -2.66247e-14 -5.60906e-14 -3.72242e-15 0 0 -2.01913e-14 -7.94804e-14 -1.82141e-15 -5.16962e-14 0 0 -1.50141e-14 -9.29909e-14 1.94191e-15 -7.99358e-14 0 0 -3.67028e-14 -6.13402e-14 -3.53612e-14 -5.43049e-14 0 0 -5.48639e-14 -4.22374e-14 -3.86537e-14 -4.71227e-14 0 0 -4.52324e-14 -3.84957e-14 -5.5834e-14 -2.38033e-14 0 0 -2.55245e-14 -3.47564e-14 -8.50426e-14 1.06689e-15 0 0 -1.21552e-14 -4.14121e-14 -6.63361e-14 -2.70907e-14 0 0 -2.08244e-14 -3.05111e-14 -5.3112e-14 -5.2722e-14 0 0 -2.33612e-14 -3.18237e-14 -5.37646e-14 -5.74385e-14 0 0 6.39049e-15 -5.88509e-14 -4.01808e-14 -7.12586e-14 0 0 8.58852e-15 -3.85892e-14 -4.8536e-14 -8.07388e-14 0 0 -2.33797e-14 2.63333e-14 -1.10147e-13 -2.86918e-14 0 0 -5.63173e-14 7.8935e-14 -1.73118e-13 3.91924e-14 0 0 -2.89031e-14 2.09956e-14 -9.52313e-14 -1.73305e-14 0 0 -1.47623e-14 -3.75818e-15 -3.62272e-14 -1.02034e-13 0 0 5.28535e-15 4.00943e-15 -5.88055e-14 -1.22144e-13 0 0 3.99788e-14 -2.52592e-14 -5.77498e-14 -1.40838e-13 0 0 -2.49959e-14 4.64299e-14 -9.99641e-14 -1.45165e-13 0 0 -6.39388e-14 7.79024e-14 -1.29752e-13 -1.16008e-13 0 0 -8.46761e-14 3.34168e-14 -8.16392e-14 -1.21606e-13 0 0 -1.7112e-13 1.10986e-13 -1.32031e-13 -7.09993e-14 0 0 -1.69071e-13 7.87131e-14 -1.04181e-13 -3.84542e-14 0 0 -1.63415e-13 1.61411e-14 -3.37719e-14 -4.40367e-14 0 0 -1.59111e-13 -6.01466e-15 -3.58033e-14 -3.64945e-14 0 0 -1.01069e-13 -7.07404e-14 -2.72083e-14 -4.93426e-14 0 0 -1.51032e-13 2.18178e-14 -1.18803e-13 -1.43457e-14 0 0 -1.81277e-13 7.14424e-14 -1.48622e-13 -3.80897e-14 0 0 -9.64549e-14 1.97721e-15 -1.33844e-13 -6.09577e-14 0 0 -6.89566e-14 -2.34037e-14 -1.37305e-13 -3.78174e-14 0 0 -9.22005e-14 -2.69024e-14 -1.19727e-13 -1.61266e-14 0 0 -1.03714e-13 4.01465e-15 -1.29723e-13 -4.19136e-14 0 0 -4.8111e-14 1.04836e-14 -1.75086e-13 -1.11717e-13 0 0 6.71226e-14 -7.60976e-14 -1.80063e-13 -1.65909e-13 0 0 6.71969e-14 -5.18089e-14 -1.71862e-13 -2.22163e-13 0 0 5.58532e-14 1.12535e-14 -1.63489e-13 -2.71412e-13 0 0 4.09483e-14 1.02698e-13 -2.37498e-13 -2.19818e-13 0 0 6.06981e-14 5.94866e-14 -1.99078e-13 -1.96935e-13 0 0 8.07836e-14 -8.3772e-14 -1.82933e-14 -2.68599e-13 0 0 -3.32288e-14 2.91402e-14 -9.86245e-14 -1.96363e-13 0 0 -7.62942e-14 1.44369e-13 -2.60091e-13 -1.01698e-13 0 0 -7.94853e-14 1.96e-13 -3.67882e-13 -7.00621e-14 0 0 -7.64983e-14 1.47231e-13 -2.94336e-13 -1.7265e-13 0 0 -6.87662e-14 3.10768e-14 -8.88167e-14 -3.7969e-13 0 0 -1.2374e-13 3.25192e-14 -3.91848e-14 -4.39094e-13 0 0 -1.79286e-13 6.61198e-14 -8.1204e-14 -3.64531e-13 0 0 -2.04776e-13 6.43069e-14 -1.20649e-13 -2.40748e-13 0 0 -2.05624e-13 2.47764e-14 -1.17832e-13 -1.38573e-13 0 0 -2.10091e-13 -1.22427e-14 -9.04359e-14 -8.7976e-14 0 0 -2.52906e-13 -4.06994e-15 -8.20061e-14 -7.05355e-14 0 0 -3.25185e-13 3.96259e-14 -8.97374e-14 -8.61389e-14 0 0 -3.81386e-13 6.65277e-14 -9.59704e-14 -1.11478e-13 0 0 -3.87075e-13 3.48654e-14 -8.51799e-14 -1.32278e-13 0 0 -3.50743e-13 -3.44029e-14 -7.02462e-14 -1.54542e-13 0 0 -2.99076e-13 -1.0193e-13 -7.34947e-14 -1.63475e-13 0 0 -2.50544e-13 -1.51932e-13 -9.03774e-14 -1.59272e-13 0 0 -2.15584e-13 -1.75835e-13 -1.20659e-13 -1.54892e-13 0 0 -1.9511e-13 -1.78083e-13 -1.62648e-13 -1.52944e-13 0 0 -1.82972e-13 -1.78514e-13 -2.01495e-13 -1.55206e-13 0 0 -1.77696e-13 -1.85246e-13 -2.29281e-13 -1.61635e-13 0 0 -1.85591e-13 -1.87263e-13 -2.4954e-13 -1.77874e-13 0 0 -2.09301e-13 -1.79976e-13 -2.57953e-13 -2.17448e-13 0 0 -2.41035e-13 -1.67868e-13 -2.54498e-13 -2.78694e-13 0 0 -2.7278e-13 -1.51787e-13 -2.57284e-13 -3.32835e-13 0 0 -2.98707e-13 -1.36439e-13 -2.78701e-13 -3.52338e-13 0 0 -3.1623e-13 -1.28346e-13 -3.09614e-13 -3.40571e-13 0 0 -3.28195e-13 -1.28338e-13 -3.37209e-13 -3.11312e-13 0 0 -3.39213e-13 -1.32252e-13 -3.64463e-13 -2.6608e-13 0 0 -3.49632e-13 -1.40097e-13 -3.89033e-13 -2.15469e-13 0 0 -3.57859e-13 -1.54994e-13 -3.97835e-13 -1.79453e-13 0 0 -3.62663e-13 -1.79661e-13 -3.87243e-13 -1.54664e-13 0 0 -3.6083e-13 -2.13095e-13 -3.63778e-13 -1.31626e-13 0 0 -3.52501e-13 -2.49822e-13 -3.32373e-13 -1.16137e-13 0 0 -3.38699e-13 -2.83389e-13 -3.05568e-13 -9.27525e-14 0 0 -3.17619e-13 -3.10449e-13 -2.87616e-13 -5.56219e-14 0 0 -2.89702e-13 -3.28367e-13 -2.72649e-13 -1.91871e-14 0 0 -2.58244e-13 -3.33041e-13 -2.63703e-13 1.28846e-14 0 0 -2.23407e-13 -3.28037e-13 -2.59321e-13 4.24362e-14 0 0 -1.87678e-13 -3.16393e-13 -2.57722e-13 7.48006e-14 0 0 -1.573e-13 -2.98458e-13 -2.53358e-13 1.06105e-13 0 0 -1.30976e-13 -2.81165e-13 -2.3617e-13 1.24914e-13 0 0 -1.05408e-13 -2.6961e-13 -2.06678e-13 1.32979e-13 0 0 -8.11275e-14 -2.64411e-13 -1.69478e-13 1.37807e-13 0 0 -6.27325e-14 -2.60374e-13 -1.23449e-13 1.35825e-13 0 0 -5.08134e-14 -2.62051e-13 -5.08069e-14 1.01435e-13 0 0 -5.13165e-14 -2.42288e-13 5.40917e-15 7.36513e-14 0 0 -4.6735e-14 -2.24813e-13 3.20412e-14 9.90114e-14 0 0 -2.63616e-14 -2.2197e-13 5.42992e-14 1.29796e-13 0 0 -1.01657e-14 -1.96444e-13 7.0159e-14 1.15536e-13 0 0 -2.65467e-15 -1.68016e-13 8.72932e-14 8.43636e-14 0 0 2.38334e-15 -1.30874e-13 7.12935e-14 8.62243e-14 0 0 6.45126e-15 -9.43935e-14 4.22332e-14 1.08002e-13 0 0 8.25689e-15 -6.70245e-14 2.19512e-14 1.32325e-13 0 0 1.53161e-17 -3.25025e-14 -3.47385e-15 1.33334e-13 0 0 -1.4562e-14 -6.77697e-15 -1.0259e-14 1.2854e-13 0 0 -1.87954e-14 -3.33267e-15 1.43129e-14 9.36078e-14 0 0 -1.12312e-14 -4.9829e-15 1.57047e-14 6.29333e-14 0 0 -4.92477e-15 -1.35472e-14 1.32589e-14 4.62883e-14 0 0 -7.82918e-15 -2.4174e-14 2.33784e-14 -4.59036e-15 0 0 -1.35649e-14 -3.07224e-14 1.22501e-14 -4.63911e-14 0 0 -1.74494e-14 -3.2126e-14 -2.44273e-14 -4.0592e-14 0 0 -1.55445e-14 -6.40324e-14 -2.2278e-14 -2.90689e-14 0 0 -1.94963e-14 -1.05999e-13 2.55299e-14 -9.07184e-14 0 0 -4.1058e-14 -9.79214e-14 2.59125e-15 -1.05725e-13 0 0 -4.88502e-14 -1.1201e-13 -1.50278e-14 -7.87161e-14 0 0 -4.55327e-14 -1.27241e-13 -1.15025e-14 -1.46528e-13 0 0 -5.55915e-14 -1.2398e-13 -3.76829e-14 -1.7552e-13 0 0 -5.45574e-14 -1.49924e-13 -7.30368e-14 -1.15252e-13 0 0 -5.85486e-14 -1.4188e-13 -1.41687e-13 -6.02323e-14 0 0 -8.14086e-14 -1.17503e-13 -1.5499e-13 -8.69788e-14 0 0 -1.00735e-13 -1.08434e-13 -1.58531e-13 -1.13263e-13 0 0 -9.75667e-14 -1.27212e-13 -1.66388e-13 -7.58229e-14 0 0 -9.05661e-14 -1.77622e-13 -1.02821e-13 -1.34925e-13 0 0 -1.05393e-13 -1.79453e-13 -1.24206e-13 -1.37351e-13 0 0 -1.14017e-13 -1.94387e-13 -1.54315e-13 -1.0735e-13 0 0 -1.13894e-13 -2.35334e-13 -1.41944e-13 -1.57551e-13 0 0 -1.18806e-13 -2.45644e-13 -1.72391e-13 -1.67341e-13 0 0 -1.31316e-13 -2.2119e-13 -2.45308e-13 -1.7295e-13 0 0 -1.32698e-13 -1.80372e-13 -3.48588e-13 -2.14134e-13 0 0 -1.15032e-13 -1.9302e-13 -3.65073e-13 -3.13339e-13 0 0 -8.91961e-14 -2.52936e-13 -2.99549e-13 -4.00633e-13 0 0 -8.5932e-14 -2.50747e-13 -2.72537e-13 -3.49996e-13 0 0 -8.64825e-14 -2.2021e-13 -2.47768e-13 -1.93544e-13 0 0 -9.66594e-14 -2.16827e-13 -2.21305e-13 1.30828e-14 0 0 -1.26257e-13 -2.19292e-13 -1.84379e-13 1.41393e-13 0 0 -1.40717e-13 -2.24168e-13 -1.77009e-13 1.29169e-13 0 0 -1.88089e-13 -1.33969e-13 -3.1012e-13 1.29404e-13 0 0 -2.16579e-13 -8.17694e-14 -3.19748e-13 1.81372e-14 0 0 -1.78282e-13 -1.997e-13 -1.14955e-13 -1.53267e-13 0 0 -1.64713e-13 -2.71848e-13 -5.25526e-14 -1.04188e-13 0 0 -2.24165e-13 -1.99206e-13 -1.73921e-13 6.61142e-14 0 0 -3.11166e-13 -1.10816e-13 -2.14013e-13 7.75043e-14 0 0 -3.18198e-13 -1.45986e-13 -1.63816e-13 3.81031e-14 0 0 -2.89094e-13 -2.05072e-13 -1.68266e-13 1.30954e-13 0 0 -2.83731e-13 -2.46059e-13 -9.82796e-14 1.07712e-13 0 0 -2.53464e-13 -3.63949e-13 8.73734e-14 -1.17118e-15 0 0 -2.76297e-13 -3.39972e-13 6.16607e-14 5.70448e-15 0 0 -3.12715e-13 -2.37347e-13 -5.43039e-14 4.51593e-14 0 0 -3.77391e-13 -8.98975e-14 -1.79162e-13 9.82172e-14 0 0 -3.19333e-13 -1.57226e-13 -1.40858e-13 7.92113e-14 0 0 -1.87849e-13 -3.88568e-13 1.08433e-13 -7.6741e-14 0 0 -1.46803e-13 -4.52696e-13 2.58102e-13 -1.95584e-13 0 0 -1.39574e-13 -4.15098e-13 2.24788e-13 -1.42838e-13 0 0 -2.52974e-13 -1.5987e-13 -3.70136e-14 5.62045e-14 0 0 -3.16083e-13 -4.28651e-14 -1.23426e-13 1.27993e-13 0 0 -2.8807e-13 -6.06684e-14 -5.81763e-14 9.59613e-14 0 0 -2.34572e-13 -6.61575e-14 -8.96083e-14 1.63317e-13 0 0 -1.47045e-13 -1.85527e-13 1.2883e-14 1.82939e-13 0 0 -1.927e-13 -8.04455e-14 -6.63707e-14 2.72129e-13 0 0 -1.77515e-13 2.81436e-14 -2.44754e-13 4.02208e-13 0 0 -5.27018e-14 -1.14455e-13 -1.1842e-13 3.13771e-13 0 0 -6.94472e-14 -1.33813e-13 -1.01394e-14 1.504e-13 0 0 1.19593e-14 -3.02458e-13 2.16591e-13 -7.48526e-14 0 0 4.98536e-15 -2.6125e-13 1.1547e-13 2.4285e-14 0 0 -2.90688e-14 -1.06713e-13 -1.23671e-13 2.03924e-13 0 0 4.82618e-14 -1.85559e-13 2.18128e-14 3.10767e-14 0 0 7.41121e-14 -2.13434e-13 9.9248e-14 -7.40809e-14 0 0 4.76598e-14 -1.54403e-13 2.5897e-14 8.79272e-15 0 0 -2.18934e-14 -6.93379e-14 -3.51364e-14 6.7095e-14 0 0 -4.31697e-14 -4.35273e-14 2.80343e-14 -3.63825e-14 0 0 -6.98345e-15 -9.88785e-14 1.68879e-13 -2.03404e-13 0 0 1.75369e-14 -5.00442e-14 -3.66573e-14 -2.70802e-14 0 0 5.80875e-14 3.89038e-14 -3.40177e-13 2.39997e-13 0 0 2.5461e-14 9.99576e-14 -4.71697e-13 3.39317e-13 0 0 9.47068e-14 -4.52203e-14 -2.98329e-13 2.13793e-13 0 0 3.30056e-13 -3.97854e-13 6.1405e-14 -1.74457e-14 0 0 2.32762e-13 -2.11561e-13 -1.5568e-13 9.65412e-14 0 0 1.03843e-13 5.18949e-14 -5.51444e-13 3.55182e-13 0 0 2.04252e-13 -5.88355e-14 -5.57781e-13 3.76643e-13 0 0 3.43326e-13 -2.54503e-13 -3.92405e-13 2.7777e-13 0 0 4.11335e-13 -3.40085e-13 -3.54615e-13 2.92577e-13 0
				</DataArray>
				<DataArray Name="VitesseY" type="Float32" format="ascii">