<?xml version="1.0"?>
<VTKFile type="PolyData">
	<PolyData>
		<Piece NumberOfPoints="1206" NumberOfPolys="1000">
			<Points>
				<DataArray type="Float32" NumberOfComponents="3" format="ascii">
 0 0 0 0.02 0 0 0.04 0 0 0.06 0 0 0.08 0 0 0.1 0 0 0 0.005 0 0.02 0.005 0 0.04 0.005 0 0.06 0.005 0 0.08 0.005 0 0.1 0.005 0 0 0.01 0 0.02 0.01 0 0.04 0.01 0 0.06 0.01 0 0.08 0.01 0 0.1 0.01 0 0 0.015 0 0.02 0.015 0 0.04 0.015 0 0.06 0.015 0 0.08 0.015 0 0.1 0.015 0 0 0.02 0 0.02 0.02 0 0.04 0.02 0 0.06 0.02 0 0.08 0.02 0 0.1 0.02 0 0 0.025 0 0.02 0.025 0 0.04 0.025 0 0.06 0.025 0 0.08 0.025 0 0.1 0.025 0 0 0.03 0 0.02 0.03 0 0.04 0.03 0 0.06 0.03 0 0.08 0.03 0 0.1 0.03 0 0 0.035 0 0.02 0.035 0 0.04 0.035 0 0.06 0.035 0 0.08 0.035 0 0.1 0.035 0 0 0.04 0 0.02 0.04 0 0.04 0.04 0 0.06 0.04 0 0.08 0.04 0 0.1 0.04 0 0 0.045 0 0.02 0.045 0 0.04 0.045 0 0.06 0.045 0 0.08 0.045 0 0.1 0.045 0 0 0.05 0 0.02 0.05 0 0.04 0.05 0 0.06 0.05 0 0.08 0.05 0 0.1 0.05 0 0 0.055 0 0.02 0.055 0 0.04 0.055 0 0.06 0.055 0 0.08 0.055 0 0.1 0.055 0 0 0.06 0 0.02 0.06 0 0.04 0.06 0 0.06 0.06 0 0.08 0.06 0 0.1 0.06 0 0 0.065 0 0.02 0.065 0 0.04 0.065 0 0.06 0.065 0 0.08 0.065 0 0.1 0.065 0 0 0.07 0 0.02 0.07 0 0.04 0.07 0 0.06 0.07 0 0.08 0.07 0 0.1 0.07 0 0 0.075 0 0.02 0.075 0 0.04 0.075 0 0.06 0.075 0 0.08 0.075 0 0.1 0.075 0 0 0.08 0 0.02 0.08 0 0.04 0.08 0 0.06 0.08 0 0.08 0.08 0 0.1 0.08 0 0 0.085 0 0.02 0.085 0 0.04 0.085 0 0.06 0.085 0 0.08 0.085 0 0.1 0.085 0 0 0.09 0 0.02 0.09 0 0.04 0.09 0 0.06 0.09 0 0.08 0.09 0 0.1 0.09 0 0 0.095 0 0.02 0.095 0 0.04 0.095 0 0.06 0.095 0 0.08 0.095 0 0.1 0.095 0 0 0.1 0 0.02 0.1 0 0.04 0.1 0 0.06 0.1 0 0.08 0.1 0 0.1 0.1 0 0 0.105 0 0.02 0.105 0 0.04 0.105 0 0.06 0.105 0 0.08 0.105 0 0.1 0.105 0 0 0.11 0 0.02 0.11 0 0.04 0.11 0 0.06 0.11 0 0.08 0.11 0 0.1 0.11 0 0 0.115 0 0.02 0.115 0 0.04 0.115 0 0.06 0.115 0 0.08 0.115 0 0.1 0.115 0 0 0.12 0 0.02 0.12 0 0.04 0.12 0 0.06 0.12 0 0.08 0.12 0 0.1 0.12 0 0 0.125 0 0.02 0.125 0 0.04 0.125 0 0.06 0.125 0 0.08 0.125 0 0.1 0.125 0 0 0.13 0 0.02 0.13 0 0.04 0.13 0 0.06 0.13 0 0.08 0.13 0 0.1 0.13 0 0 0.135 0 0.02 0.135 0 0.04 0.135 0 0.06 0.135 0 0.08 0.135 0 0.1 0.135 0 0 0.14 0 0.02 0.14 0 0.04 0.14 0 0.06 0.14 0 0.08 0.14 0 0.1 0.14 0 0 0.145 0 0.02 0.145 0 0.04 0.145 0 0.06 0.145 0 0.08 0.145 0 0.1 0.145 0 0 0.15 0 0.02 0.15 0 0.04 0.15 0 0.06 0.15 0 0.08 0.15 0 0.1 0.15 0 0 0.155 0 0.02 0.155 0 0.04 0.155 0 0.06 0.155 0 0.08 0.155 0 0.1 0.155 0 0 0.16 0 0.02 0.16 0 0.04 0.16 0 0.06 0.16 0 0.08 0.16 0 0.1 0.16 0 0 0.165 0 0.02 0.165 0 0.04 0.165 0 0.06 0.165 0 0.08 0.165 0 0.1 0.165 0 0 0.17 0 0.02 0.17 0 0.04 0.17 0 0.06 0.17 0 0.08 0.17 0 0.1 0.17 0 0 0.175 0 0.02 0.175 0 0.04 0.175 0 0.06 0.175 0 0.08 0.175 0 0.1 0.175 0 0 0.18 0 0.02 0.18 0 0.04 0.18 0 0.06 0.18 0 0.08 0.18 0 0.1 0.18 0 0 0.185 0 0.02 0.185 0 0.04 0.185 0 0.06 0.185 0 0.08 0.185 0 0.1 0.185 0 0 0.19 0 0.02 0.19 0 0.04 0.19 0 0.06 0.19 0 0.08 0.19 0 0.1 0.19 0 0 0.195 0 0.02 0.195 0 0.04 0.195 0 0.06 0.195 0 0.08 0.195 0 0.1 0.195 0 0 0.2 0 0.02 0.2 0 0.04 0.2 0 0.06 0.2 0 0.08 0.2 0 0.1 0.2 0 0 0.205 0 0.02 0.205 0 0.04 0.205 0 0.06 0.205 0 0.08 0.205 0 0.1 0.205 0 0 0.21 0 0.02 0.21 0 0.04 0.21 0 0.06 0.21 0 0.08 0.21 0 0.1 0.21 0 0 0.215 0 0.02 0.215 0 0.04 0.215 0 0.06 0.215 0 0.08 0.215 0 0.1 0.215 0 0 0.22 0 0.02 0.22 0 0.04 0.22 0 0.06 0.22 0 0.08 0.22 0 0.1 0.22 0 0 0.225 0 0.02 0.225 0 0.04 0.225 0 0.06 0.225 0 0.08 0.225 0 0.1 0.225 0 0 0.23 0 0.02 0.23 0 0.04 0.23 0 0.06 0.23 0 0.08 0.23 0 0.1 0.23 0 0 0.235 0 0.02 0.235 0 0.04 0.235 0 0.06 0.235 0 0.08 0.235 0 0.1 0.235 0 0 0.24 0 0.02 0.24 0 0.04 0.24 0 0.06 0.24 0 0.08 0.24 0 0.1 0.24 0 0 0.245 0 0.02 0.245 0 0.04 0.245 0 0.06 0.245 0 0.08 0.245 0 0.1 0.245 0 0 0.25 0 0.02 0.25 0 0.04 0.25 0 0.06 0.25 0 0.08 0.25 0 0.1 0.25 0 0 0.255 0 0.02 0.255 0 0.04 0.255 0 0.06 0.255 0 0.08 0.255 0 0.1 0.255 0 0 0.26 0 0.02 0.26 0 0.04 0.26 0 0.06 0.26 0 0.08 0.26 0 0.1 0.26 0 0 0.265 0 0.02 0.265 0 0.04 0.265 0 0.06 0.265 0 0.08 0.265 0 0.1 0.265 0 0 0.27 0 0.02 0.27 0 0.04 0.27 0 0.06 0.27 0 0.08 0.27 0 0.1 0.27 0 0 0.275 0 0.02 0.275 0 0.04 0.275 0 0.06 0.275 0 0.08 0.275 0 0.1 0.275 0 0 0.28 0 0.02 0.28 0 0.04 0.28 0 0.06 0.28 0 0.08 0.28 0 0.1 0.28 0 0 0.285 0 0.02 0.285 0 0.04 0.285 0 0.06 0.285 0 0.08 0.285 0 0.1 0.285 0 0 0.29 0 0.02 0.29 0 0.04 0.29 0 0.06 0.29 0 0.08 0.29 0 0.1 0.29 0 0 0.295 0 0.02 0.295 0 0.04 0.295 0 0.06 0.295 0 0.08 0.295 0 0.1 0.295 0 0 0.3 0 0.02 0.3 0 0.04 0.3 0 0.06 0.3 0 0.08 0.3 0 0.1 0.3 0 0 0.305 0 0.02 0.305 0 0.04 0.305 0 0.06 0.305 0 0.08 0.305 0 0.1 0.305 0 0 0.31 0 0.02 0.31 0 0.04 0.31 0 0.06 0.31 0 0.08 0.31 0 0.1 0.31 0 0 0.315 0 0.02 0.315 0 0.04 0.315 0 0.06 0.315 0 0.08 0.315 0 0.1 0.315 0 0 0.32 0 0.02 0.32 0 0.04 0.32 0 0.06 0.32 0 0.08 0.32 0 0.1 0.32 0 0 0.325 0 0.02 0.325 0 0.04 0.325 0 0.06 0.325 0 0.08 0.325 0 0.1 0.325 0 0 0.33 0 0.02 0.33 0 0.04 0.33 0 0.06 0.33 0 0.08 0.33 0 0.1 0.33 0 0 0.335 0 0.02 0.335 0 0.04 0.335 0 0.06 0.335 0 0.08 0.335 0 0.1 0.335 0 0 0.34 0 0.02 0.34 0 0.04 0.34 0 0.06 0.34 0 0.08 0.34 0 0.1 0.34 0 0 0.345 0 0.02 0.345 0 0.04 0.345 0 0.06 0.345 0 0.08 0.345 0 0.1 0.345 0 0 0.35 0 0.02 0.35 0 0.04 0.35 0 0.06 0.35 0 0.08 0.35 0 0.1 0.35 0 0 0.355 0 0.02 0.355 0 0.04 0.355 0 0.06 0.355 0 0.08 0.355 0 0.1 0.355 0 0 0.36 0 0.02 0.36 0 0.04 0.36 0 0.06 0.36 0 0.08 0.36 0 0.1 0.36 0 0 0.365 0 0.02 0.365 0 0.04 0.365 0 0.06 0.365 0 0.08 0.365 0 0.1 0.365 0 0 0.37 0 0.02 0.37 0 0.04 0.37 0 0.06 0.37 0 0.08 0.37 0 0.1 0.37 0 0 0.375 0 0.02 0.375 0 0.04 0.375 0 0.06 0.375 0 0.08 0.375 0 0.1 0.375 0 0 0.38 0 0.02 0.38 0 0.04 0.38 0 0.06 0.38 0 0.08 0.38 0 0.1 0.38 0 0 0.385 0 0.02 0.385 0 0.04 0.385 0 0.06 0.385 0 0.08 0.385 0 0.1 0.385 0 0 0.39 0 0.02 0.39 0 0.04 0.39 0 0.06 0.39 0 0.08 0.39 0 0.1 0.39 0 0 0.395 0 0.02 0.395 0 0.04 0.395 0 0.06 0.395 0 0.08 0.395 0 0.1 0.395 0 0 0.4 0 0.02 0.4 0 0.04 0.4 0 0.06 0.4 0 0.08 0.4 0 0.1 0.4 0 0 0.405 0 0.02 0.405 0 0.04 0.405 0 0.06 0.405 0 0.08 0.405 0 0.1 0.405 0 0 0.41 0 0.02 0.41 0 0.04 0.41 0 0.06 0.41 0 0.08 0.41 0 0.1 0.41 0 0 0.415 0 0.02 0.415 0 0.04 0.415 0 0.06 0.415 0 0.08 0.415 0 0.1 0.415 0 0 0.42 0 0.02 0.42 0 0.04 0.42 0 0.06 0.42 0 0.08 0.42 0 0.1 0.42 0 0 0.425 0 0.02 0.425 0 0.04 0.425 0 0.06 0.425 0 0.08 0.425 0 0.1 0.425 0 0 0.43 0 0.02 0.43 0 0.04 0.43 0 0.06 0.43 0 0.08 0.43 0 0.1 0.43 0 0 0.435 0 0.02 0.435 0 0.04 0.435 0 0.06 0.435 0 0.08 0.435 0 0.1 0.435 0 0 0.44 0 0.02 0.44 0 0.04 0.44 0 0.06 0.44 0 0.08 0.44 0 0.1 0.44 0 0 0.445 0 0.02 0.445 0 0.04 0.445 0 0.06 0.445 0 0.08 0.445 0 0.1 0.445 0 0 0.45 0 0.02 0.45 0 0.04 0.45 0 0.06 0.45 0 0.08 0.45 0 0.1 0.45 0 0 0.455 0 0.02 0.455 0 0.04 0.455 0 0.06 0.455 0 0.08 0.455 0 0.1 0.455 0 0 0.46 0 0.02 0.46 0 0.04 0.46 0 0.06 0.46 0 0.08 0.46 0 0.1 0.46 0 0 0.465 0 0.02 0.465 0 0.04 0.465 0 0.06 0.465 0 0.08 0.465 0 0.1 0.465 0 0 0.47 0 0.02 0.47 0 0.04 0.47 0 0.06 0.47 0 0.08 0.47 0 0.1 0.47 0 0 0.475 0 0.02 0.475 0 0.04 0.475 0 0.06 0.475 0 0.08 0.475 0 0.1 0.475 0 0 0.48 0 0.02 0.48 0 0.04 0.48 0 0.06 0.48 0 0.08 0.48 0 0.1 0.48 0 0 0.485 0 0.02 0.485 0 0.04 0.485 0 0.06 0.485 0 0.08 0.485 0 0.1 0.485 0 0 0.49 0 0.02 0.49 0 0.04 0.49 0 0.06 0.49 0 0.08 0.49 0 0.1 0.49 0 0 0.495 0 0.02 0.495 0 0.04 0.495 0 0.06 0.495 0 0.08 0.495 0 0.1 0.495 0 0 0.5 0 0.02 0.5 0 0.04 0.5 0 0.06 0.5 0 0.08 0.5 0 0.1 0.5 0 0 0.505 0 0.02 0.505 0 0.04 0.505 0 0.06 0.505 0 0.08 0.505 0 0.1 0.505 0 0 0.51 0 0.02 0.51 0 0.04 0.51 0 0.06 0.51 0 0.08 0.51 0 0.1 0.51 0 0 0.515 0 0.02 0.515 0 0.04 0.515 0 0.06 0.515 0 0.08 0.515 0 0.1 0.515 0 0 0.52 0 0.02 0.52 0 0.04 0.52 0 0.06 0.52 0 0.08 0.52 0 0.1 0.52 0 0 0.525 0 0.02 0.525 0 0.04 0.525 0 0.06 0.525 0 0.08 0.525 0 0.1 0.525 0 0 0.53 0 0.02 0.53 0 0.04 0.53 0 0.06 0.53 0 0.08 0.53 0 0.1 0.53 0 0 0.535 0 0.02 0.535 0 0.04 0.535 0 0.06 0.535 0 0.08 0.535 0 0.1 0.535 0 0 0.54 0 0.02 0.54 0 0.04 0.54 0 0.06 0.54 0 0.08 0.54 0 0.1 0.54 0 0 0.545 0 0.02 0.545 0 0.04 0.545 0 0.06 0.545 0 0.08 0.545 0 0.1 0.545 0 0 0.55 0 0.02 0.55 0 0.04 0.55 0 0.06 0.55 0 0.08 0.55 0 0.1 0.55 0 0 0.555 0 0.02 0.555 0 0.04 0.555 0 0.06 0.555 0 0.08 0.555 0 0.1 0.555 0 0 0.56 0 0.02 0.56 0 0.04 0.56 0 0.06 0.56 0 0.08 0.56 0 0.1 0.56 0 0 0.565 0 0.02 0.565 0 0.04 0.565 0 0.06 0.565 0 0.08 0.565 0 0.1 0.565 0 0 0.57 0 0.02 0.57 0 0.04 0.57 0 0.06 0.57 0 0.08 0.57 0 0.1 0.57 0 0 0.575 0 0.02 0.575 0 0.04 0.575 0 0.06 0.575 0 0.08 0.575 0 0.1 0.575 0 0 0.58 0 0.02 0.58 0 0.04 0.58 0 0.06 0.58 0 0.08 0.58 0 0.1 0.58 0 0 0.585 0 0.02 0.585 0 0.04 0.585 0 0.06 0.585 0 0.08 0.585 0 0.1 0.585 0 0 0.59 0 0.02 0.59 0 0.04 0.59 0 0.06 0.59 0 0.08 0.59 0 0.1 0.59 0 0 0.595 0 0.02 0.595 0 0.04 0.595 0 0.06 0.595 0 0.08 0.595 0 0.1 0.595 0 0 0.6 0 0.02 0.6 0 0.04 0.6 0 0.06 0.6 0 0.08 0.6 0 0.1 0.6 0 0 0.605 0 0.02 0.605 0 0.04 0.605 0 0.06 0.605 0 0.08 0.605 0 0.1 0.605 0 0 0.61 0 0.02 0.61 0 0.04 0.61 0 0.06 0.61 0 0.08 0.61 0 0.1 0.61 0 0 0.615 0 0.02 0.615 0 0.04 0.615 0 0.06 0.615 0 0.08 0.615 0 0.1 0.615 0 0 0.62 0 0.02 0.62 0 0.04 0.62 0 0.06 0.62 0 0.08 0.62 0 0.1 0.62 0 0 0.625 0 0.02 0.625 0 0.04 0.625 0 0.06 0.625 0 0.08 0.625 0 0.1 0.625 0 0 0.63 0 0.02 0.63 0 0.04 0.63 0 0.06 0.63 0 0.08 0.63 0 0.1 0.63 0 0 0.635 0 0.02 0.635 0 0.04 0.635 0 0.06 0.635 0 0.08 0.635 0 0.1 0.635 0 0 0.64 0 0.02 0.64 0 0.04 0.64 0 0.06 0.64 0 0.08 0.64 0 0.1 0.64 0 0 0.645 0 0.02 0.645 0 0.04 0.645 0 0.06 0.645 0 0.08 0.645 0 0.1 0.645 0 0 0.65 0 0.02 0.65 0 0.04 0.65 0 0.06 0.65 0 0.08 0.65 0 0.1 0.65 0 0 0.655 0 0.02 0.655 0 0.04 0.655 0 0.06 0.655 0 0.08 0.655 0 0.1 0.655 0 0 0.66 0 0.02 0.66 0 0.04 0.66 0 0.06 0.66 0 0.08 0.66 0 0.1 0.66 0 0 0.665 0 0.02 0.665 0 0.04 0.665 0 0.06 0.665 0 0.08 0.665 0 0.1 0.665 0 0 0.67 0 0.02 0.67 0 0.04 0.67 0 0.06 0.67 0 0.08 0.67 0 0.1 0.67 0 0 0.675 0 0.02 0.675 0 0.04 0.675 0 0.06 0.675 0 0.08 0.675 0 0.1 0.675 0 0 0.68 0 0.02 0.68 0 0.04 0.68 0 0.06 0.68 0 0.08 0.68 0 0.1 0.68 0 0 0.685 0 0.02 0.685 0 0.04 0.685 0 0.06 0.685 0 0.08 0.685 0 0.1 0.685 0 0 0.69 0 0.02 0.69 0 0.04 0.69 0 0.06 0.69 0 0.08 0.69 0 0.1 
[...]
			<PointData Scalars="VitesseX">
				<DataArray Name="VitesseX" type="Float32" format="ascii">
 0 -3.42789e-14 1.75609e-14 -7.75168e-15 -5.42893e-15 0 0 -2.66291e-14 4.75348e-15 5.17274e-15 -1.443e-14 0 0 -1.81226e-14 -2.71278e-15 5.7683e-15 -1.70874e-14 0 0 -2.84415e-15 -1.76832e-14 1.43984e-15 -8.21033e-15 0 0 1.33554e-14 -4.61488e-14 1.89629e-14 -2.76018e-15 0 0 -2.04042e-15 -3.17024e-14 1.50215e-14 1.34466e-14 0 0 -4.0735e-14 2.52464e-14 -1.47164e-14 3.39084e-14 0 0 -5.50924e-14 4.65306e-14 -7.55455e-15 2.61514e-14 0 0 -3.88158e-14 2.86012e-14 2.08592e-14 7.77582e-15 0 0 3.55202e-15 -2.23425e-14 6.9571e-14 -1.61947e-14 0 0 4.25026e-14 -6.82137e-14 1.10515e-13 -3.5714e-14 0 0 9.43255e-15 -3.02482e-15 3.81847e-14 8.72657e-15 0 0 -2.38413e-15 2.4698e-14 6.20345e-15 2.47486e-14 0 0 9.15769e-15 -8.50782e-16 2.72098e-14 1.53935e-15 0 0 2.48699e-14 -3.627e-14 3.76257e-14 6.29088e-15 0 0 2.83728e-14 -3.78644e-14 2.36607e-14 3.776e-15 0 0 6.09105e-16 1.35462e-14 -3.86737e-14 2.23568e-14 0 0 6.16867e-14 -6.98756e-14 1.72012e-14 1.11811e-14 0 0 9.82381e-14 -1.22722e-13 8.09037e-14 -2.75498e-14 0 0 1.99045e-14 -2.09193e-14 5.14097e-14 -4.94859e-14 0 0 -6.87723e-14 9.87747e-14 -1.10387e-14 -5.14835e-14 0 0 -5.78059e-14 9.6617e-14 -4.00425e-14 -3.40986e-14 0 0 2.74022e-14 -3.8497e-14 3.90278e-14 -4.14075e-14 0 0 1.42506e-14 -4.14739e-14 2.3661e-14 -1.06072e-14 0 0 -6.87962e-14 3.68594e-14 -2.96882e-14 1.93975e-14 0 0 -1.05409e-13 5.1297e-14 -4.22168e-14 4.73248e-14 0 0 -8.82368e-14 4.38563e-14 -5.89309e-14 7.93619e-14 0 0 2.59659e-15 -9.29093e-14 7.1265e-14 1.97075e-14 0 0 -9.65555e-15 -7.28512e-14 5.91625e-14 3.70492e-14 0 0 -9.33466e-14 7.25767e-14 -6.4162e-14 9.25878e-14 0 0 -1.12902e-13 9.35915e-14 -5.38621e-14 7.26052e-14 0 0 -5.6284e-14 2.81608e-14 -8.10003e-15 7.54725e-14 0 0 1.9897e-14 -3.94624e-14 3.36427e-14 6.62429e-14 0 0 1.83012e-14 -3.55276e-14 7.70973e-14 2.5353e-14 0 0 -6.20176e-14 9.20159e-14 -1.4274e-14 7.32655e-14 0 0 -1.37698e-13 2.2455e-13 -1.24709e-13 1.03572e-13 0 0 -3.16763e-14 5.75642e-14 4.0842e-14 -2.77508e-14 0 0 5.52445e-14 -9.33486e-14 1.9221e-13 -1.39821e-13 0 0 7.38223e-14 -1.31536e-13 2.19301e-13 -1.59606e-13 0 0 -9.32578e-15 -2.01913e-14 1.49959e-13 -1.47916e-13 0 0 -1.26349e-13 1.67929e-13 -2.9003e-14 -3.67744e-14 0 0 -1.04823e-13 1.78419e-13 -1.3335e-13 9.80744e-14 0 0 -7.86506e-14 1.11976e-13 -4.81889e-14 3.54696e-14 0 0 -1.48324e-13 1.19157e-13 2.83613e-14 -4.44884e-14 0 0 -2.07085e-13 1.1061e-13 6.62887e-14 -6.73257e-14 0 0 -1.37423e-13 1.17273e-14 1.12784e-13 -9.96185e-14 0 0 3.43454e-14 -1.52867e-13 1.88053e-13 -1.32692e-13 0 0 1.0559e-13 -1.87717e-13 2.09694e-13 -1.74777e-13 0 0 -1.03857e-14 9.4165e-15 8.63154e-14 -1.82482e-13 0 0 -2.74985e-13 3.96362e-13 -1.4414e-13 -1.42229e-13 0 0 -3.98442e-13 6.15684e-13 -3.08598e-13 -6.23401e-14 0 0 -7.57725e-14 2.76377e-13 -1.73973e-13 -4.09325e-14 0 0 1.53278e-13 1.91887e-14 -2.79345e-14 -1.42863e-13 0 0 1.43398e-13 -5.19719e-14 1.61942e-13 -3.72291e-13 0 0 -1.07483e-13 1.3964e-13 1.12026e-13 -3.79936e-13 0 0 -2.78736e-13 2.92652e-13 -8.14836e-14 -2.08655e-13 0 0 -3.76964e-14 -4.59282e-16 4.89108e-14 -2.46284e-13 0 0 -2.46595e-14 1.345e-13 -1.96599e-13 -9.17834e-14 0 0 -3.92651e-14 2.12257e-13 -3.15742e-13 3.73844e-15 0 0 -1.08859e-13 1.72385e-13 -1.69821e-13 -9.35969e-14 0 0 -1.70694e-13 1.17242e-13 -6.54471e-14 -1.39092e-13 0 0 5.74022e-15 -1.80254e-13 1.62965e-13 -2.67832e-13 0 0 -5.55887e-14 2.37387e-14 -1.37772e-13 -1.12164e-13 0 0 -1.35887e-13 2.37675e-13 -4.31784e-13 1.1358e-13 0 0 -3.1967e-14 6.81359e-14 -2.73797e-13 1.15432e-13 0 0 2.13504e-14 -6.15977e-14 -8.39677e-14 4.5935e-14 0 0 3.92686e-14 -1.1978e-13 6.34953e-14 -3.10359e-14 0 0 -1.58273e-13 1.84588e-13 -6.60878e-14 -1.73207e-14 0 0 -2.17493e-13 3.40153e-13 -1.29096e-13 -4.54009e-14 0 0 -6.16982e-15 1.0403e-13 1.90262e-14 -7.29914e-14 0 0 1.54629e-14 1.09438e-13 -4.3474e-15 -3.86121e-15 0 0 6.16408e-14 6.28467e-14 1.21261e-13 -1.9922e-13 0 0 -1.48075e-13 3.87035e-13 -5.75872e-14 -3.03397e-13 0 0 -1.45511e-13 4.52324e-13 -1.63117e-13 -2.76404e-13 0 0 1.03426e-13 1.37209e-13 1.52186e-14 -2.6559e-13 0 0 2.02547e-13 -1.63902e-14 1.15433e-13 -2.35301e-13 0 0 1.30377e-13 8.08729e-14 5.67304e-14 -2.37018e-13 0 0 -1.33308e-13 5.04924e-13 -2.67983e-13 -5.60546e-14 0 0 6.61776e-14 2.49006e-13 3.96719e-15 -8.4848e-14 0 0 1.06021e-13 1.43692e-13 1.11452e-13 -2.83013e-14 0 0 9.48539e-14 1.7928e-13 -1.01278e-13 2.19984e-13 0 0 3.22873e-13 -2.43078e-13 2.01623e-13 1.004e-13 0 0 1.10909e-14 -1.28909e-13 3.77854e-13 -1.1705e-13 0 0 -8.8798e-14 -5.97186e-14 2.75239e-13 7.63995e-14 0 0 -2.59698e-14 -1.13482e-14 -3.73597e-14 4.77575e-13 0 0 -4.58939e-14 -3.61677e-14 -3.70409e-14 3.84031e-13 0 0 3.35653e-13 -5.00688e-13 2.16104e-13 1.4944e-13 0 0 4.53228e-14 -2.82301e-13 2.81207e-15 2.80142e-13 0 0 -7.5711e-13 3.43722e-13 -2.72095e-13 3.53809e-13 0 0 -3.64293e-13 -3.10854e-14 -1.08267e-13 5.54604e-13 0 0 2.18817e-13 -6.23548e-13 1.71474e-13 6.70901e-13 0 0 1.69966e-13 -5.25544e-13 1.89302e-13 4.81218e-13 0 0 -2.55356e-13 -1.03917e-13 2.25354e-13 1.50089e-13 0 0 -8.12276e-13 4.40016e-13 9.65118e-14 -1.04475e-13 0 0 -7.51952e-13 4.72902e-13 5.60155e-14 -1.72009e-13 0 0 -1.71825e-13 -3.38226e-14 2.45164e-13 -1.84602e-13 0 0 1.07435e-13 -1.3165e-13 1.49962e-13 -7.20954e-14 0 0 1.61063e-13 -1.79315e-13 6.14941e-14 2.82003e-14 0 0 8.079e-14 -1.7683e-13 9.38888e-15 8.94464e-14 0 0 -7.77027e-14 -7.38139e-14 -3.61591e-14 7.68028e-14 0 0 -2.27218e-13 8.37297e-14 -1.07351e-13 2.92948e-14 0 0 -2.95883e-13 2.27301e-13 -2.17279e-13 1.05032e-15 0 0 -2.80806e-13 3.27685e-13 -3.34066e-13 -2.65403e-14 0 0 -2.25397e-13 3.78933e-13 -4.10289e-13 -8.59307e-14 0 0 -1.63336e-13 3.67956e-13 -4.13049e-13 -1.81555e-13 0 0 -1.11789e-13 2.93812e-13 -3.52808e-13 -2.9061e-13 0 0 -7.2451e-14 1.65925e-13 -2.80942e-13 -3.60569e-13 0 0 -6.4682e-14 3.17359e-14 -2.46463e-13 -3.69604e-13 0 0 -7.80578e-14 -7.33513e-14 -2.59257e-13 -3.38493e-13 0 0 -1.06489e-13 -1.75496e-13 -2.41419e-13 -3.55394e-13 0 0 -1.50653e-13 -2.84509e-13 -1.79341e-13 -3.50167e-13 0 0 -1.77796e-13 -3.40163e-13 -1.7217e-13 -2.66955e-13 0 0 -2.01462e-13 -3.44496e-13 -1.77892e-13 -1.95725e-13 0 0 -2.30607e-13 -3.20427e-13 -1.51154e-13 -1.65011e-13 0 0 -2.40022e-13 -2.64102e-13 -1.47219e-13 -1.25651e-13 0 0 -1.48294e-13 -3.03221e-13 -8.15334e-14 -4.98497e-14 0 0 -1.15156e-13 -2.06627e-13 -1.76508e-13 1.01638e-13 0 0 -2.46017e-13 1.06152e-13 -4.35249e-13 2.17742e-13 0 0 -2.07193e-13 1.25542e-13 -3.51336e-13 9.40268e-14 0 0 -2.70927e-14 -6.23992e-14 -1.21533e-13 -4.85284e-14 0 0 3.60559e-14 -1.53247e-13 5.47529e-14 -1.81845e-13 0 0 -1.57518e-13 1.84595e-13 -2.3826e-13 -4.04781e-14 0 0 -2.79115e-13 4.48235e-13 -5.30058e-13 1.3201e-13 0 0 4.38717e-14 -2.2599e-14 -7.80108e-14 -1.4626e-13 0 0 1.67238e-13 -1.77804e-13 3.01169e-14 -1.49359e-13 0 0 1.05012e-13 -1.06238e-13 -1.90182e-14 -1.26329e-13 0 0 -7.10248e-14 7.75984e-14 -1.34672e-13 -9.35279e-14 0 0 -3.14237e-13 4.23835e-13 -4.8278e-13 1.63138e-13 0 0 -7.99018e-14 1.02597e-13 -2.68956e-13 1.12109e-13 0 0 1.62917e-13 -2.38106e-13 -6.36607e-14 1.05596e-13 0 0 2.01235e-13 -3.55237e-13 1.17947e-13 -2.42227e-14 0 0 -7.32292e-14 -2.45711e-14 -6.84285e-14 -7.92473e-15 0 0 -2.94978e-13 3.38527e-13 -4.4985e-13 1.62652e-13 0 0 -4.38877e-14 -1.47181e-14 -1.99596e-13 -4.18935e-14 0 0 9.21655e-14 -2.17352e-13 -1.63936e-13 -8.37598e-15 0 0 8.89203e-14 -3.84844e-13 2.77662e-15 -3.67068e-14 0 0 -1.05436e-13 -2.32272e-13 -4.9133e-14 -9.05893e-14 0 0 -2.99567e-13 1.21716e-13 -4.45706e-13 7.04522e-14 0 0 -1.54464e-13 -1.58303e-13 -8.6186e-14 -1.75429e-13 0 0 -1.72202e-13 -1.25122e-13 -8.53129e-14 -1.21567e-13 0 0 -2.20573e-13 -5.76391e-14 -1.41301e-13 9.0875e-15 0 0 -1.04818e-13 -3.54576e-13 2.39825e-13 -7.10551e-14 0 0 -4.56908e-13 1.22523e-13 -1.5116e-13 3.31926e-13 0 0 -6.18577e-13 2.79071e-13 -1.45015e-13 3.44094e-13 0 0 -5.61152e-14 -5.40255e-13 6.78973e-13 -1.33252e-13 0 0 2.24388e-13 -6.28802e-13 6.07175e-13 -5.72894e-14 0 0 -1.18564e-13 5.60673e-14 1.17296e-13 1.90411e-14 0 0 -5.74514e-13 7.31011e-13 -2.76364e-13 1.16783e-13 0 0 -4.63787e-13 6.11746e-13 -1.79845e-13 2.62399e-13 0 0 1.30032e-13 -4.91131e-13 1.00138e-12 -3.08274e-13 0 0 3.64634e-14 -5.25521e-13 1.05376e-12 -4.00306e-13 0 0 -4.11654e-13 1.69183e-13 2.28093e-13 7.79041e-14 0 0 -4.73136e-13 3.65284e-13 -2.67223e-13 5.3079e-13 0 0 -3.2228e-13 1.51258e-13 -3.51194e-13 6.31902e-13 0 0 -1.4209e-14 -3.16005e-13 -9.51416e-14 4.55922e-13 0 0 3.31968e-14 -3.55376e-13 -8.45174e-14 3.67434e-13 0 0 -2.9491e-13 4.94418e-14 -2.45513e-13 2.69606e-13 0 0 -6.34043e-13 3.93004e-13 -4.43018e-13 2.75992e-13 0 0 -3.01406e-13 -2.32129e-13 1.07973e-13 -2.28239e-13 0 0 4.45395e-13 -1.30001e-12 8.44655e-13 -8.1232e-13 0 0 4.03617e-13 -1.30734e-12 6.06786e-13 -7.30909e-13 0 0 -6.56668e-13 2.26617e-13 -8.62259e-13 4.80758e-15 0 0 -1.24395e-12 1.05461e-12 -1.46903e-12 3.96672e-13 0 0 -4.98317e-13 -9.15869e-15 -4.38327e-13 1.12686e-13 0 0 3.40135e-13 -1.18667e-12 5.74813e-13 -1.57998e-13 0 0 2.03839e-13 -1.16627e-12 6.26765e-13 6.1844e-14 0 0 -4.41736e-13 -1.55387e-13 -4.28072e-13 6.86358e-13 0 0 -6.06722e-13 2.74435e-13 -1.25646e-12 1.08128e-12 0 0 -3.17729e-13 -8.58242e-14 -1.15192e-12 9.85483e-13 0 0 -3.73543e-13 -2.61601e-14 -1.12809e-12 9.28294e-13 0 0 -4.14335e-13 -1.96585e-13 -6.42801e-13 6.14115e-13 0 0 -8.26392e-15 -9.17219e-13 2.25461e-13 -4.48215e-14 0 0 -9.75797e-14 -5.84788e-13 -2.36486e-13 -7.22029e-14 0 0 -4.06082e-13 -1.40621e-13 -4.84854e-13 -3.74222e-13 0 0 -6.90639e-13 1.83568e-13 -6.97643e-13 -4.08039e-13 0 0 -4.82017e-13 -1.14523e-13 -5.21592e-13 -3.76872e-13 0 0 1.81513e-13 -1.08694e-12 3.59834e-13 -8.35995e-13 0 0 3.30643e-14 -6.94914e-13 -2.3287e-13 -4.10295e-13 0 0 -3.96086e-13 -4.75965e-14 -7.53823e-13 -1.14736e-14 0 0 -7.54156e-13 3.95674e-13 -8.44075e-13 8.35761e-14 0 0 -5.45737e-13 7.14327e-14 -5.96602e-13 1.321e-13 0 0 1.60453e-13 -1.08169e-12 3.37361e-13 -3.58053e-13 0 0 1.80297e-13 -1.168e-12 4.17458e-13 -5.96031e-13 0 0 -4.11949e-13 -3.51554e-13 -1.48456e-13 -5.16838e-13 0 0 -7.65201e-13 2.93362e-13 -7.58506e-13 -2.25869e-13 0 0 -4.33361e-13 -1.03682e-13 -3.40173e-13 -4.10185e-13 0 0 1.31131e-13 -9.16994e-13 5.67216e-13 -1.01505e-12 0 0 -1.17533e-14 -7.56529e-13 3.06443e-13 -6.41952e-13 0 0 -7.16807e-13 -1.15539e-13 -3.78438e-14 -2.23445e-13 0 0 -1.25509e-12 5.71918e-13 -5.5518e-13 2.77921e-14 0 0 -6.82099e-13 -2.07001e-13 3.90375e-14 -3.76544e-13 0 0 -4.9466e-14 -1.08534e-12 8.89347e-13 -9.93836e-13 0 0 -9.5194e-13 3.81935e-13 -4.43393e-13 -2.60511e-13 0 0 -1.37961e-12 8.51515e-13 -6.26848e-13 -1.90994e-13 0 0 -4.65157e-13 -5.4557e-13 8.28819e-13 -1.09763e-12 0 0 4.2704e-13 -1.49277e-12 1.46527e-12 -1.42167e-12 0 0 8.73712e-14 -8.12027e-13 8.98791e-13 -1.27275e-12 0 0 -1.31108e-12 1.12761e-12 -5.21391e-13 -7.78875e-13 0 0 -1.34013e-12 1.13552e-12 -5.62795e-13 -9.1102e-13 0 0 1.65454e-13 -9.16426e-13 8.84401e-13 -1.56867e-12 0 0 9.37436e-13 -1.93104e-12 1.54812e-12 -1.72442e-12 0
				</DataArray>
				<DataArray Name="VitesseY" type="Float32" format="ascii">