<?xml version="1.0"?>
<VTKFile type="PolyData">
	<PolyData>
		<Piece NumberOfPoints="1206" NumberOfPolys="1000">
			<Points>
				<DataArray type="Float32" NumberOfComponents="3" format="ascii">
 0 0 0 0.02 0 0 0.04 0 0 0.06 0 0 0.08 0 0 0.1 0 0 0 0.005 0 0.02 0.005 0 0.04 0.005 0 0.06 0.005 0 0.08 0.005 0 0.1 0.005 0 0 0.01 0 0.02 0.01 0 0.04 0.01 0 0.06 0.01 0 0.08 0.01 0 0.1 0.01 0 0 0.015 0 0.02 0.015 0 0.04 0.015 0 0.06 0.015 0 0.08 0.015 0 0.1 0.015 0 0 0.02 0 0.02 0.02 0 0.04 0.02 0 0.06 0.02 0 0.08 0.02 0 0.1 0.02 0 0 0.025 0 0.02 0.025 0 0.04 0.025 0 0.06 0.025 0 0.08 0.025 0 0.1 0.025 0 0 0.03 0 0.02 0.03 0 0.04 0.03 0 0.06 0.03 0 0.08 0.03 0 0.1 0.03 0 0 0.035 0 0.02 0.035 0 0.04 0.035 0 0.06 0.035 0 0.08 0.035 0 0.1 0.035 0 0 0.04 0 0.02 0.04 0 0.04 0.04 0 0.06 0.04 0 0.08 0.04 0 0.1 0.04 0 0 0.045 0 0.02 0.045 0 0.04 0.045 0 0.06 0.045 0 0.08 0.045 0 0.1 0.045 0 0 0.05 0 0.02 0.05 0 0.04 0.05 0 0.06 0.05 0 0.08 0.05 0 0.1 0.05 0 0 0.055 0 0.02 0.055 0 0.04 0.055 0 0.06 0.055 0 0.08 0.055 0 0.1 0.055 0 0 0.06 0 0.02 0.06 0 0.04 0.06 0 0.06 0.06 0 0.08 0.06 0 0.1 0.06 0 0 0.065 0 0.02 0.065 0 0.04 0.065 0 0.06 0.065 0 0.08 0.065 0 0.1 0.065 0 0 0.07 0 0.02 0.07 0 0.04 0.07 0 0.06 0.07 0 0.08 0.07 0 0.1 0.07 0 0 0.075 0 0.02 0.075 0 0.04 0.075 0 0.06 0.075 0 0.08 0.075 0 0.1 0.075 0 0 0.08 0 0.02 0.08 0 0.04 0.08 0 0.06 0.08 0 0.08 0.08 0 0.1 0.08 0 0 0.085 0 0.02 0.085 0 0.04 0.085 0 0.06 0.085 0 0.08 0.085 0 0.1 0.085 0 0 0.09 0 0.02 0.09 0 0.04 0.09 0 0.06 0.09 0 0.08 0.09 0 0.1 0.09 0 0 0.095 0 0.02 0.095 0 0.04 0.095 0 0.06 0.095 0 0.08 0.095 0 0.1 0.095 0 0 0.1 0 0.02 0.1 0 0.04 0.1 0 0.06 0.1 0 0.08 0.1 0 0.1 0.1 0 0 0.105 0 0.02 0.105 0 0.04 0.105 0 0.06 0.105 0 0.08 0.105 0 0.1 0.105 0 0 0.11 0 0.02 0.11 0 0.04 0.11 0 0.06 0.11 0 0.08 0.11 0 0.1 0.11 0 0 0.115 0 0.02 0.115 0 0.04 0.115 0 0.06 0.115 0 0.08 0.115 0 0.1 0.115 0 0 0.12 0 0.02 0.12 0 0.04 0.12 0 0.06 0.12 0 0.08 0.12 0 0.1 0.12 0 0 0.125 0 0.02 0.125 0 0.04 0.125 0 0.06 0.125 0 0.08 0.125 0 0.1 0.125 0 0 0.13 0 0.02 0.13 0 0.04 0.13 0 0.06 0.13 0 0.08 0.13 0 0.1 0.13 0 0 0.135 0 0.02 0.135 0 0.04 0.135 0 0.06 0.135 0 0.08 0.135 0 0.1 0.135 0 0 0.14 0 0.02 0.14 0 0.04 0.14 0 0.06 0.14 0 0.08 0.14 0 0.1 0.14 0 0 0.145 0 0.02 0.145 0 0.04 0.145 0 0.06 0.145 0 0.08 0.145 0 0.1 0.145 0 0 0.15 0 0.02 0.15 0 0.04 0.15 0 0.06 0.15 0 0.08 0.15 0 0.1 0.15 0 0 0.155 0 0.02 0.155 0 0.04 0.155 0 0.06 0.155 0 0.08 0.155 0 0.1 0.155 0 0 0.16 0 0.02 0.16 0 0.04 0.16 0 0.06 0.16 0 0.08 0.16 0 0.1 0.16 0 0 0.165 0 0.02 0.165 0 0.04 0.165 0 0.06 0.165 0 0.08 0.165 0 0.1 0.165 0 0 0.17 0 0.02 0.17 0 0.04 0.17 0 0.06 0.17 0 0.08 0.17 0 0.1 0.17 0 0 0.175 0 0.02 0.175 0 0.04 0.175 0 0.06 0.175 0 0.08 0.175 0 0.1 0.175 0 0 0.18 0 0.02 0.18 0 0.04 0.18 0 0.06 0.18 0 0.08 0.18 0 0.1 0.18 0 0 0.185 0 0.02 0.185 0 0.04 0.185 0 0.06 0.185 0 0.08 0.185 0 0.1 0.185 0 0 0.19 0 0.02 0.19 0 0.04 0.19 0 0.06 0.19 0 0.08 0.19 0 0.1 0.19 0 0 0.195 0 0.02 0.195 0 0.04 0.195 0 0.06 0.195 0 0.08 0.195 0 0.1 0.195 0 0 0.2 0 0.02 0.2 0 0.04 0.2 0 0.06 0.2 0 0.08 0.2 0 0.1 0.2 0 0 0.205 0 0.02 0.205 0 0.04 0.205 0 0.06 0.205 0 0.08 0.205 0 0.1 0.205 0 0 0.21 0 0.02 0.21 0 0.04 0.21 0 0.06 0.21 0 0.08 0.21 0 0.1 0.21 0 0 0.215 0 0.02 0.215 0 0.04 0.215 0 0.06 0.215 0 0.08 0.215 0 0.1 0.215 0 0 0.22 0 0.02 0.22 0 0.04 0.22 0 0.06 0.22 0 0.08 0.22 0 0.1 0.22 0 0 0.225 0 0.02 0.225 0 0.04 0.225 0 0.06 0.225 0 0.08 0.225 0 0.1 0.225 0 0 0.23 0 0.02 0.23 0 0.04 0.23 0 0.06 0.23 0 0.08 0.23 0 0.1 0.23 0 0 0.235 0 0.02 0.235 0 0.04 0.235 0 0.06 0.235 0 0.08 0.235 0 0.1 0.235 0 0 0.24 0 0.02 0.24 0 0.04 0.24 0 0.06 0.24 0 0.08 0.24 0 0.1 0.24 0 0 0.245 0 0.02 0.245 0 0.04 0.245 0 0.06 0.245 0 0.08 0.245 0 0.1 0.245 0 0 0.25 0 0.02 0.25 0 0.04 0.25 0 0.06 0.25 0 0.08 0.25 0 0.1 0.25 0 0 0.255 0 0.02 0.255 0 0.04 0.255 0 0.06 0.255 0 0.08 0.255 0 0.1 0.255 0 0 0.26 0 0.02 0.26 0 0.04 0.26 0 0.06 0.26 0 0.08 0.26 0 0.1 0.26 0 0 0.265 0 0.02 0.265 0 0.04 0.265 0 0.06 0.265 0 0.08 0.265 0 0.1 0.265 0 0 0.27 0 0.02 0.27 0 0.04 0.27 0 0.06 0.27 0 0.08 0.27 0 0.1 0.27 0 0 0.275 0 0.02 0.275 0 0.04 0.275 0 0.06 0.275 0 0.08 0.275 0 0.1 0.275 0 0 0.28 0 0.02 0.28 0 0.04 0.28 0 0.06 0.28 0 0.08 0.28 0 0.1 0.28 0 0 0.285 0 0.02 0.285 0 0.04 0.285 0 0.06 0.285 0 0.08 0.285 0 0.1 0.285 0 0 0.29 0 0.02 0.29 0 0.04 0.29 0 0.06 0.29 0 0.08 0.29 0 0.1 0.29 0 0 0.295 0 0.02 0.295 0 0.04 0.295 0 0.06 0.295 0 0.08 0.295 0 0.1 0.295 0 0 0.3 0 0.02 0.3 0 0.04 0.3 0 0.06 0.3 0 0.08 0.3 0 0.1 0.3 0 0 0.305 0 0.02 0.305 0 0.04 0.305 0 0.06 0.305 0 0.08 0.305 0 0.1 0.305 0 0 0.31 0 0.02 0.31 0 0.04 0.31 0 0.06 0.31 0 0.08 0.31 0 0.1 0.31 0 0 0.315 0 0.02 0.315 0 0.04 0.315 0 0.06 0.315 0 0.08 0.315 0 0.1 0.315 0 0 0.32 0 0.02 0.32 0 0.04 0.32 0 0.06 0.32 0 0.08 0.32 0 0.1 0.32 0 0 0.325 0 0.02 0.325 0 0.04 0.325 0 0.06 0.325 0 0.08 0.325 0 0.1 0.325 0 0 0.33 0 0.02 0.33 0 0.04 0.33 0 0.06 0.33 0 0.08 0.33 0 0.1 0.33 0 0 0.335 0 0.02 0.335 0 0.04 0.335 0 0.06 0.335 0 0.08 0.335 0 0.1 0.335 0 0 0.34 0 0.02 0.34 0 0.04 0.34 0 0.06 0.34 0 0.08 0.34 0 0.1 0.34 0 0 0.345 0 0.02 0.345 0 0.04 0.345 0 0.06 0.345 0 0.08 0.345 0 0.1 0.345 0 0 0.35 0 0.02 0.35 0 0.04 0.35 0 0.06 0.35 0 0.08 0.35 0 0.1 0.35 0 0 0.355 0 0.02 0.355 0 0.04 0.355 0 0.06 0.355 0 0.08 0.355 0 0.1 0.355 0 0 0.36 0 0.02 0.36 0 0.04 0.36 0 0.06 0.36 0 0.08 0.36 0 0.1 0.36 0 0 0.365 0 0.02 0.365 0 0.04 0.365 0 0.06 0.365 0 0.08 0.365 0 0.1 0.365 0 0 0.37 0 0.02 0.37 0 0.04 0.37 0 0.06 0.37 0 0.08 0.37 0 0.1 0.37 0 0 0.375 0 0.02 0.375 0 0.04 0.375 0 0.06 0.375 0 0.08 0.375 0 0.1 0.375 0 0 0.38 0 0.02 0.38 0 0.04 0.38 0 0.06 0.38 0 0.08 0.38 0 0.1 0.38 0 0 0.385 0 0.02 0.385 0 0.04 0.385 0 0.06 0.385 0 0.08 0.385 0 0.1 0.385 0 0 0.39 0 0.02 0.39 0 0.04 0.39 0 0.06 0.39 0 0.08 0.39 0 0.1 0.39 0 0 0.395 0 0.02 0.395 0 0.04 0.395 0 0.06 0.395 0 0.08 0.395 0 0.1 0.395 0 0 0.4 0 0.02 0.4 0 0.04 0.4 0 0.06 0.4 0 0.08 0.4 0 0.1 0.4 0 0 0.405 0 0.02 0.405 0 0.04 0.405 0 0.06 0.405 0 0.08 0.405 0 0.1 0.405 0 0 0.41 0 0.02 0.41 0 0.04 0.41 0 0.06 0.41 0 0.08 0.41 0 0.1 0.41 0 0 0.415 0 0.02 0.415 0 0.04 0.415 0 0.06 0.415 0 0.08 0.415 0 0.1 0.415 0 0 0.42 0 0.02 0.42 0 0.04 0.42 0 0.06 0.42 0 0.08 0.42 0 0.1 0.42 0 0 0.425 0 0.02 0.425 0 0.04 0.425 0 0.06 0.425 0 0.08 0.425 0 0.1 0.425 0 0 0.43 0 0.02 0.43 0 0.04 0.43 0 0.06 0.43 0 0.08 0.43 0 0.1 0.43 0 0 0.435 0 0.02 0.435 0 0.04 0.435 0 0.06 0.435 0 0.08 0.435 0 0.1 0.435 0 0 0.44 0 0.02 0.44 0 0.04 0.44 0 0.06 0.44 0 0.08 0.44 0 0.1 0.44 0 0 0.445 0 0.02 0.445 0 0.04 0.445 0 0.06 0.445 0 0.08 0.445 0 0.1 0.445 0 0 0.45 0 0.02 0.45 0 0.04 0.45 0 0.06 0.45 0 0.08 0.45 0 0.1 0.45 0 0 0.455 0 0.02 0.455 0 0.04 0.455 0 0.06 0.455 0 0.08 0.455 0 0.1 0.455 0 0 0.46 0 0.02 0.46 0 0.04 0.46 0 0.06 0.46 0 0.08 0.46 0 0.1 0.46 0 0 0.465 0 0.02 0.465 0 0.04 0.465 0 0.06 0.465 0 0.08 0.465 0 0.1 0.465 0 0 0.47 0 0.02 0.47 0 0.04 0.47 0 0.06 0.47 0 0.08 0.47 0 0.1 0.47 0 0 0.475 0 0.02 0.475 0 0.04 0.475 0 0.06 0.475 0 0.08 0.475 0 0.1 0.475 0 0 0.48 0 0.02 0.48 0 0.04 0.48 0 0.06 0.48 0 0.08 0.48 0 0.1 0.48 0 0 0.485 0 0.02 0.485 0 0.04 0.485 0 0.06 0.485 0 0.08 0.485 0 0.1 0.485 0 0 0.49 0 0.02 0.49 0 0.04 0.49 0 0.06 0.49 0 0.08 0.49 0 0.1 0.49 0 0 0.495 0 0.02 0.495 0 0.04 0.495 0 0.06 0.495 0 0.08 0.495 0 0.1 0.495 0 0 0.5 0 0.02 0.5 0 0.04 0.5 0 0.06 0.5 0 0.08 0.5 0 0.1 0.5 0 0 0.505 0 0.02 0.505 0 0.04 0.505 0 0.06 0.505 0 0.08 0.505 0 0.1 0.505 0 0 0.51 0 0.02 0.51 0 0.04 0.51 0 0.06 0.51 0 0.08 0.51 0 0.1 0.51 0 0 0.515 0 0.02 0.515 0 0.04 0.515 0 0.06 0.515 0 0.08 0.515 0 0.1 0.515 0 0 0.52 0 0.02 0.52 0 0.04 0.52 0 0.06 0.52 0 0.08 0.52 0 0.1 0.52 0 0 0.525 0 0.02 0.525 0 0.04 0.525 0 0.06 0.525 0 0.08 0.525 0 0.1 0.525 0 0 0.53 0 0.02 0.53 0 0.04 0.53 0 0.06 0.53 0 0.08 0.53 0 0.1 0.53 0 0 0.535 0 0.02 0.535 0 0.04 0.535 0 0.06 0.535 0 0.08 0.535 0 0.1 0.535 0 0 0.54 0 0.02 0.54 0 0.04 0.54 0 0.06 0.54 0 0.08 0.54 0 0.1 0.54 0 0 0.545 0 0.02 0.545 0 0.04 0.545 0 0.06 0.545 0 0.08 0.545 0 0.1 0.545 0 0 0.55 0 0.02 0.55 0 0.04 0.55 0 0.06 0.55 0 0.08 0.55 0 0.1 0.55 0 0 0.555 0 0.02 0.555 0 0.04 0.555 0 0.06 0.555 0 0.08 0.555 0 0.1 0.555 0 0 0.56 0 0.02 0.56 0 0.04 0.56 0 0.06 0.56 0 0.08 0.56 0 0.1 0.56 0 0 0.565 0 0.02 0.565 0 0.04 0.565 0 0.06 0.565 0 0.08 0.565 0 0.1 0.565 0 0 0.57 0 0.02 0.57 0 0.04 0.57 0 0.06 0.57 0 0.08 0.57 0 0.1 0.57 0 0 0.575 0 0.02 0.575 0 0.04 0.575 0 0.06 0.575 0 0.08 0.575 0 0.1 0.575 0 0 0.58 0 0.02 0.58 0 0.04 0.58 0 0.06 0.58 0 0.08 0.58 0 0.1 0.58 0 0 0.585 0 0.02 0.585 0 0.04 0.585 0 0.06 0.585 0 0.08 0.585 0 0.1 0.585 0 0 0.59 0 0.02 0.59 0 0.04 0.59 0 0.06 0.59 0 0.08 0.59 0 0.1 0.59 0 0 0.595 0 0.02 0.595 0 0.04 0.595 0 0.06 0.595 0 0.08 0.595 0 0.1 0.595 0 0 0.6 0 0.02 0.6 0 0.04 0.6 0 0.06 0.6 0 0.08 0.6 0 0.1 0.6 0 0 0.605 0 0.02 0.605 0 0.04 0.605 0 0.06 0.605 0 0.08 0.605 0 0.1 0.605 0 0 0.61 0 0.02 0.61 0 0.04 0.61 0 0.06 0.61 0 0.08 0.61 0 0.1 0.61 0 0 0.615 0 0.02 0.615 0 0.04 0.615 0 0.06 0.615 0 0.08 0.615 0 0.1 0.615 0 0 0.62 0 0.02 0.62 0 0.04 0.62 0 0.06 0.62 0 0.08 0.62 0 0.1 0.62 0 0 0.625 0 0.02 0.625 0 0.04 0.625 0 0.06 0.625 0 0.08 0.625 0 0.1 0.625 0 0 0.63 0 0.02 0.63 0 0.04 0.63 0 0.06 0.63 0 0.08 0.63 0 0.1 0.63 0 0 0.635 0 0.02 0.635 0 0.04 0.635 0 0.06 0.635 0 0.08 0.635 0 0.1 0.635 0 0 0.64 0 0.02 0.64 0 0.04 0.64 0 0.06 0.64 0 0.08 0.64 0 0.1 0.64 0 0 0.645 0 0.02 0.645 0 0.04 0.645 0 0.06 0.645 0 0.08 0.645 0 0.1 0.645 0 0 0.65 0 0.02 0.65 0 0.04 0.65 0 0.06 0.65 0 0.08 0.65 0 0.1 0.65 0 0 0.655 0 0.02 0.655 0 0.04 0.655 0 0.06 0.655 0 0.08 0.655 0 0.1 0.655 0 0 0.66 0 0.02 0.66 0 0.04 0.66 0 0.06 0.66 0 0.08 0.66 0 0.1 0.66 0 0 0.665 0 0.02 0.665 0 0.04 0.665 0 0.06 0.665 0 0.08 0.665 0 0.1 0.665 0 0 0.67 0 0.02 0.67 0 0.04 0.67 0 0.06 0.67 0 0.08 0.67 0 0.1 0.67 0 0 0.675 0 0.02 0.675 0 0.04 0.675 0 0.06 0.675 0 0.08 0.675 0 0.1 0.675 0 0 0.68 0 0.02 0.68 0 0.04 0.68 0 0.06 0.68 0 0.08 0.68 0 0.1 0.68 0 0 0.685 0 0.02 0.685 0 0.04 0.685 0 0.06 0.685 0 0.08 0.685 0 0.1 0.685 0 0 0.69 0 0.02 0.69 0 0.04 0.69 0 0.06 0.69 0 0.08 0.69 0 0.1 
[...]
			<PointData Scalars="VitesseX">
				<DataArray Name="VitesseX" type="Float32" format="ascii">
 0 1.59731e-14 2.12841e-14 3.69863e-14 1.745e-14 0 0 1.06924e-14 2.68007e-14 3.31312e-14 2.02673e-14 0 0 3.34925e-15 3.24356e-14 3.0859e-14 2.24333e-14 0 0 7.28588e-15 2.07502e-14 4.71494e-14 1.32968e-14 0 0 2.24395e-15 2.58968e-14 4.60872e-14 1.48483e-14 0 0 -1.4771e-14 5.02635e-14 2.69608e-14 2.69749e-14 0 0 -5.06921e-15 3.13502e-14 4.94935e-14 1.33476e-14 0 0 6.19956e-15 7.8545e-15 7.0091e-14 1.58218e-15 0 0 -3.7997e-15 1.42075e-14 5.60054e-14 1.19596e-14 0 0 -3.50477e-15 6.60311e-15 4.83428e-14 2.21467e-14 0 0 -9.73022e-15 1.2845e-14 3.22141e-14 3.09232e-14 0 0 -1.31675e-14 1.78845e-14 2.9338e-14 2.42266e-14 0 0 2.60564e-14 -3.5153e-14 7.11697e-14 5.11114e-15 0 0 2.3224e-14 -1.54426e-14 3.13886e-14 4.81144e-14 0 0 1.24863e-14 1.41473e-14 1.06154e-14 6.44075e-14 0 0 3.52583e-14 -1.08133e-14 6.10416e-14 2.45894e-14 0 0 2.10066e-14 2.68805e-14 4.20877e-14 3.00054e-14 0 0 1.7126e-14 3.95554e-14 5.10977e-14 2.16671e-14 0 0 1.70601e-14 4.75701e-14 4.87076e-14 3.06697e-14 0 0 2.27567e-14 5.27309e-14 3.94536e-14 3.98971e-14 0 0 5.15762e-14 7.86237e-15 9.23322e-14 -4.01991e-15 0 0 5.35749e-14 -3.75852e-15 1.05643e-13 -2.51913e-14 0 0 2.0585e-14 4.71006e-14 4.49248e-14 3.26044e-15 0 0 -5.74173e-15 9.47523e-14 -2.70797e-14 4.7042e-14 0 0 3.58657e-14 1.88945e-14 2.50174e-14 2.4314e-14 0 0 6.27592e-14 -5.38043e-14 1.00626e-13 -2.59131e-14 0 0 1.89275e-14 -1.51583e-14 8.19149e-14 -2.23969e-14 0 0 -3.90033e-15 1.55889e-14 5.93746e-14 3.5518e-15 0 0 -1.47736e-14 3.89583e-14 4.53954e-14 2.34213e-14 0 0 -1.58496e-14 4.91639e-14 3.44405e-14 3.85434e-14 0 0 -2.30463e-14 6.6278e-14 2.071e-14 5.16968e-14 0 0 5.84412e-15 1.5457e-14 1.0121e-13 -1.78795e-14 0 0 8.75639e-15 3.46167e-14 8.97752e-14 -3.46398e-14 0 0 -5.271e-14 1.59379e-13 -2.24231e-14 3.75054e-14 0 0 -2.18802e-15 9.53331e-14 7.58499e-14 -1.66669e-14 0 0 5.84803e-14 3.76222e-14 1.46765e-13 -6.92827e-14 0 0 6.2432e-14 6.30258e-14 1.11286e-13 -3.40512e-14 0 0 2.16271e-14 1.23184e-13 4.01792e-14 4.09291e-14 0 0 -9.57902e-15 1.22298e-13 5.48059e-14 4.06227e-14 0 0 2.88512e-16 4.85089e-14 1.48453e-13 -2.90856e-15 0 0 -4.96996e-14 8.47275e-14 1.19213e-13 4.71717e-14 0 0 -8.28842e-14 1.01011e-13 1.0094e-13 6.57519e-14 0 0 -8.5901e-14 9.72071e-14 7.29701e-14 7.56893e-14 0 0 -6.5204e-14 6.76978e-14 6.75544e-14 7.20251e-14 0 0 -2.48636e-14 -2.57129e-14 1.57437e-13 6.82154e-15 0 0 -5.58274e-14 2.54495e-14 8.80029e-14 5.3284e-14 0 0 -7.84322e-14 8.14793e-14 3.37987e-14 7.48866e-14 0 0 -7.14755e-14 3.51531e-14 1.36981e-13 -1.25592e-14 0 0 -9.99569e-14 7.92618e-14 1.22588e-13 -1.90848e-14 0 0 -9.90812e-14 1.11497e-13 8.15425e-14 1.03952e-15 0 0 -5.30587e-14 6.05972e-14 1.62538e-13 -6.00189e-14 0 0 -1.16546e-13 1.72935e-13 1.15938e-13 -4.64439e-14 0 0 -2.09122e-13 3.31435e-13 -3.32217e-14 7.215e-14 0 0 -1.00279e-13 1.91711e-13 9.69456e-14 4.78178e-14 0 0 1.36055e-14 2.96856e-14 2.49512e-13 1.44749e-14 0 0 -2.41037e-14 1.01297e-13 1.80381e-13 6.58667e-14 0 0 -4.78997e-14 1.60922e-13 1.45923e-13 5.71043e-14 0 0 -3.02106e-14 1.59818e-13 1.58991e-13 3.97918e-14 0 0 2.78363e-14 1.15423e-13 1.78852e-13 4.88541e-14 0 0 1.68904e-14 1.43938e-13 1.4874e-13 5.85444e-14 0 0 1.49451e-14 1.54917e-13 1.06159e-13 9.04393e-14 0 0 3.59139e-14 9.43571e-14 1.35763e-13 1.23994e-13 0 0 -4.81908e-14 1.30799e-13 1.82716e-13 1.13316e-13 0 0 -6.23258e-14 5.36791e-14 3.62162e-13 -8.49068e-15 0 0 -1.34208e-13 1.19115e-13 3.59445e-13 -2.39942e-14 0 0 -1.24479e-13 1.85136e-13 2.31982e-13 6.75252e-14 0 0 -1.92433e-14 1.27474e-13 1.97239e-13 9.45659e-14 0 0 -3.84866e-14 1.84593e-13 1.26688e-13 1.26074e-13 0 0 -1.62785e-14 3.50661e-14 3.40848e-13 3.30177e-15 0 0 -1.63057e-13 1.44537e-13 2.63219e-13 1.20592e-13 0 0 -3.65041e-13 3.95465e-13 4.8323e-14 3.24932e-13 0 0 -2.98366e-13 2.75066e-13 2.49874e-13 2.08954e-13 0 0 -1.05247e-13 1.48313e-14 4.68642e-13 7.53801e-14 0 0 8.56838e-15 -1.2434e-13 4.9918e-13 1.2564e-14 0 0 -2.07098e-13 2.58242e-13 1.99396e-13 4.05895e-14 0 0 -3.4907e-13 4.58356e-13 1.96302e-13 -6.24656e-14 0 0 -8.79964e-14 3.4958e-14 5.20594e-13 -1.35565e-13 0 0 4.70117e-14 -1.29008e-13 5.29225e-13 1.02117e-14 0 0 -1.11152e-13 1.31967e-13 4.3445e-13 -3.445e-15 0 0 -2.34254e-13 4.7465e-13 1.39176e-13 9.95751e-14 0 0 9.12283e-14 2.41979e-13 2.10238e-13 2.28759e-14 0 0 2.98689e-13 1.97263e-14 3.60728e-13 -1.0241e-13 0 0 1.93389e-13 2.15045e-13 6.97292e-14 1.6632e-13 0 0 1.54098e-13 3.6152e-13 -2.02062e-13 4.50392e-13 0 0 3.37363e-13 7.38724e-14 6.2324e-14 3.34413e-13 0 0 4.11242e-13 -1.96886e-13 4.60912e-13 3.69448e-14 0 0 2.15296e-13 -9.69803e-14 5.4941e-13 -1.25579e-13 0 0 -2.31766e-14 1.80102e-13 3.81934e-13 -9.54487e-14 0 0 -8.30016e-14 3.47031e-13 1.83126e-13 2.91832e-14 0 0 3.30482e-14 3.54126e-13 4.66428e-14 1.58647e-13 0 0 2.1207e-13 2.81866e-13 -2.13886e-14 2.55625e-13 0 0 3.69753e-13 2.00248e-13 -4.00663e-14 3.18895e-13 0 0 4.71676e-13 1.44282e-13 -3.81269e-14 3.64635e-13 0 0 5.08382e-13 1.32699e-13 -2.3999e-14 3.88616e-13 0 0 4.87523e-13 1.66806e-13 1.35106e-14 3.66455e-13 0 0 4.37102e-13 2.24383e-13 7.28443e-14 2.99264e-13 0 0 3.80397e-13 2.86797e-13 1.33538e-13 2.22489e-13 0 0 3.28034e-13 3.40395e-13 1.8268e-13 1.66649e-13 0 0 2.83257e-13 3.83291e-13 2.15188e-13 1.41417e-13 0 0 2.42794e-13 4.20644e-13 2.38227e-13 1.36445e-13 0 0 2.02545e-13 4.56219e-13 2.64481e-13 1.26869e-13 0 0 1.62323e-13 4.93951e-13 2.92425e-13 1.01865e-13 0 0 1.286e-13 5.28654e-13 3.26559e-13 5.03326e-14 0 0 1.08958e-13 5.50719e-13 3.71935e-13 -3.18091e-14 0 0 1.03371e-13 5.61363e-13 4.09849e-13 -1.11884e-13 0 0 1.09172e-13 5.60089e-13 4.31228e-13 -1.66568e-13 0 0 1.20144e-13 5.46863e-13 4.4119e-13 -1.92203e-13 0 0 1.25458e-13 5.34899e-13 4.36096e-13 -1.86721e-13 0 0 1.1689e-13 5.3271e-13 4.17014e-13 -1.54161e-13 0 0 8.94325e-14 5.41892e-13 3.88987e-13 -1.05666e-13 0 0 4.70691e-14 5.60949e-13 3.55949e-13 -5.87658e-14 0 0 9.37618e-15 5.74502e-13 3.21716e-13 -1.49191e-14 0 0 -9.39675e-15 5.80322e-13 2.8441e-13 7.37324e-15 0 0 -9.74758e-15 5.62029e-13 2.47096e-13 4.66815e-14 0 0 5.11044e-16 5.1812e-13 2.50441e-13 7.21756e-14 0 0 1.46904e-14 4.70192e-13 2.74525e-13 7.12055e-14 0 0 2.29918e-14 4.46187e-13 2.28524e-13 1.47741e-13 0 0 3.62968e-14 4.14332e-13 2.28468e-13 1.61399e-13 0 0 6.39178e-14 3.5327e-13 2.85156e-13 1.07989e-13 0 0 8.43378e-14 3.12808e-13 2.73858e-13 1.37514e-13 0 0 9.17147e-14 2.90412e-13 2.63384e-13 1.51543e-13 0 0 9.95949e-14 2.51273e-13 2.89698e-13 1.41301e-13 0 0 1.1184e-13 1.94682e-13 3.121e-13 1.56189e-13 0 0 1.12948e-13 1.77402e-13 2.62997e-13 2.19685e-13 0 0 1.08283e-13 1.71806e-13 2.42975e-13 2.21527e-13 0 0 1.08159e-13 1.48068e-13 3.02446e-13 1.24593e-13 0 0 1.14486e-13 1.30046e-13 3.4821e-13 7.22737e-14 0 0 1.22857e-13 1.20773e-13 3.31647e-13 1.01025e-13 0 0 1.15103e-13 1.40314e-13 2.77187e-13 1.56119e-13 0 0 9.96389e-14 1.72635e-13 2.51262e-13 1.52869e-13 0 0 9.80967e-14 1.75757e-13 2.69908e-13 9.76219e-14 0 0 1.00995e-13 1.83661e-13 2.86817e-13 6.1646e-14 0 0 1.0203e-13 1.94854e-13 2.73931e-13 1.01334e-13 0 0 9.07252e-14 2.12126e-13 2.58572e-13 1.27105e-13 0 0 9.24931e-14 2.15019e-13 2.96519e-13 7.30268e-14 0 0 1.06355e-13 2.24057e-13 3.32935e-13 5.32313e-15 0 0 1.27284e-13 2.85313e-13 2.43111e-13 4.59382e-14 0 0 1.31191e-13 3.28359e-13 1.62914e-13 1.23866e-13 0 0 1.31512e-13 3.1127e-13 2.44084e-13 8.88981e-14 0 0 1.49746e-13 2.8987e-13 3.50653e-13 7.37102e-14 0 0 1.47659e-13 3.26755e-13 3.387e-13 1.16144e-13 0 0 1.54411e-13 3.53669e-13 3.28413e-13 8.55026e-14 0 0 2.10866e-13 2.85418e-13 4.04226e-13 2.22201e-14 0 0 2.01532e-13 3.35966e-13 3.10112e-13 8.37143e-14 0 0 1.82239e-13 3.77925e-13 2.43972e-13 1.34043e-13 0 0 2.35677e-13 2.64312e-13 4.27776e-13 2.60301e-15 0 0 1.11448e-13 4.30602e-13 3.12452e-13 4.69447e-14 0 0 9.1966e-14 4.35944e-13 3.1479e-13 1.09684e-13 0 0 1.39275e-13 3.52583e-13 4.38945e-13 9.37215e-14 0 0 1.28562e-13 4.02894e-13 4.15042e-13 1.28278e-13 0 0 2.4598e-13 2.81578e-13 5.12446e-13 1.21501e-13 0 0 2.01851e-13 4.31955e-13 3.15266e-13 3.27976e-13 0 0 1.73647e-13 5.33351e-13 2.10432e-13 4.54073e-13 0 0 1.87805e-13 5.21804e-13 2.67042e-13 4.36622e-13 0 0 2.23264e-13 4.89853e-13 3.71029e-13 3.46431e-13 0 0 2.7731e-13 5.13178e-13 3.98429e-13 2.85599e-13 0 0 3.29197e-13 6.07048e-13 3.28428e-13 2.98955e-13 0 0 5.04422e-13 5.04443e-13 4.46072e-13 2.00838e-13 0 0 5.84598e-13 4.42059e-13 5.93805e-13 1.47602e-13 0 0 5.85804e-13 4.51673e-13 7.73688e-13 -4.78385e-14 0 0 4.60814e-13 7.56455e-13 5.63835e-13 -2.46155e-14 0 0 4.02722e-13 9.88332e-13 2.7337e-13 2.69682e-13 0 0 4.61978e-13 9.90559e-13 2.41676e-13 4.11486e-13 0 0 5.63309e-13 8.71551e-13 3.9931e-13 2.68514e-13 0 0 7.45002e-13 6.32572e-13 5.90328e-13 8.5255e-14 0 0 8.16257e-13 5.62054e-13 6.5577e-13 4.58966e-14 0 0 6.38128e-13 8.0515e-13 5.47702e-13 6.80178e-14 0 0 4.4506e-13 1.0836e-12 3.68938e-13 1.2198e-13 0 0 2.63359e-13 1.35972e-12 1.55355e-13 2.42872e-13 0 0 4.21872e-13 1.16261e-12 2.95468e-13 1.59113e-13 0 0 6.60902e-13 8.5504e-13 4.61389e-13 4.81971e-14 0 0 5.92716e-13 9.55104e-13 3.19035e-13 1.29745e-13 0 0 6.67214e-13 7.56059e-13 5.85698e-13 -1.85503e-14 0 0 5.05862e-13 9.39193e-13 5.47657e-13 1.34186e-14 0 0 4.10672e-13 1.07133e-12 5.1e-13 -3.04976e-15 0 0 3.73818e-13 1.04102e-12 6.58792e-13 -1.39566e-13 0 0 3.89142e-13 1.02454e-12 6.65173e-13 -1.6672e-14 0 0 6.17569e-13 7.23779e-13 8.50828e-13 -7.64197e-15 0 0 3.65236e-13 1.07482e-12 5.03473e-13 2.47824e-13 0 0 4.13615e-13 9.67635e-13 5.57218e-13 2.83849e-13 0 0 6.34844e-13 5.67359e-13 9.20411e-13 4.8466e-14 0 0 4.79215e-13 7.42284e-13 6.7879e-13 2.34837e-13 0 0 5.7998e-13 5.6276e-13 7.80769e-13 1.99199e-13 0 0 4.97066e-13 7.45627e-13 5.48622e-13 3.01773e-13 0 0 3.99038e-13 9.14436e-13 3.54319e-13 4.0494e-13 0 0 4.57505e-13 7.14266e-13 6.17765e-13 2.21047e-13 0 0 4.11255e-13 6.73211e-13 6.7966e-13 1.83018e-13 0 0 4.14803e-13 6.05155e-13 7.43635e-13 1.86194e-13 0 0 1.90198e-13 9.39853e-13 4.42656e-13 4.05313e-13 0 0 2.13322e-13 9.70533e-13 4.05168e-13 4.54246e-13 0 0 3.68816e-13 6.67779e-13 7.7666e-13 2.03134e-13 0 0 1.40262e-13 9.20979e-13 5.91403e-13 3.00931e-13 0 0 2.53845e-13 7.81742e-13 6.54073e-13 2.76311e-13 0 0 3.02452e-13 6.30734e-13 7.40281e-13 1.93214e-13 0 0 2.82868e-13 4.48463e-13 9.0288e-13 1.1597e-13 0 0 4.58084e-13 6.36936e-14 1.30419e-12 -1.40159e-13 0 0 1.51414e-13 6.45874e-13 6.84782e-13 1.71476e-13 0 0 1.10691e-13 8.52505e-13 4.02985e-13 3.32134e-13 0 0 1.6134e-13 7.94866e-13 5.06381e-13 2.40697e-13 0 0 3.25609e-13 4.94703e-13 8.76804e-13 -2.08709e-14 0 0 6.87756e-13 -7.74495e-14 1.44491e-12 -3.74839e-13 0
				</DataArray>
				<DataArray Name="VitesseY" type="Float32" format="ascii">