<?xml version="1.0"?>
<VTKFile type="PolyData">
	<PolyData>
		<Piece NumberOfPoints="961" NumberOfPolys="900">
			<Points>
				<DataArray type="Float32" NumberOfComponents="3" format="ascii">
 0 0 0 0.04 0 0 0.08 0 0 0.12 0 0 0.16 0 0 0.2 0 0 0.24 0 0 0.28 0 0 0.32 0 0 0.36 0 0 0.4 0 0 0.44 0 0 0.48 0 0 0.52 0 0 0.56 0 0 0.6 0 0 0.64 0 0 0.68 0 0 0.72 0 0 0.76 0 0 0.8 0 0 0.84 0 0 0.88 0 0 0.92 0 0 0.96 0 0 1 0 0 1.04 0 0 1.08 0 0 1.12 0 0 1.16 0 0 1.2 0 0 0 0.04 0 0.04 0.04 0 0.08 0.04 0 0.12 0.04 0 0.16 0.04 0 0.2 0.04 0 0.24 0.04 0 0.28 0.04 0 0.32 0.04 0 0.36 0.04 0 0.4 0.04 0 0.44 0.04 0 0.48 0.04 0 0.52 0.04 0 0.56 0.04 0 0.6 0.04 0 0.64 0.04 0 0.68 0.04 0 0.72 0.04 0 0.76 0.04 0 0.8 0.04 0 0.84 0.04 0 0.88 0.04 0 0.92 0.04 0 0.96 0.04 0 1 0.04 0 1.04 0.04 0 1.08 0.04 0 1.12 0.04 0 1.16 0.04 0 1.2 0.04 0 0 0.08 0 0.04 0.08 0 0.08 0.08 0 0.12 0.08 0 0.16 0.08 0 0.2 0.08 0 0.24 0.08 0 0.28 0.08 0 0.32 0.08 0 0.36 0.08 0 0.4 0.08 0 0.44 0.08 0 0.48 0.08 0 0.52 0.08 0 0.56 0.08 0 0.6 0.08 0 0.64 0.08 0 0.68 0.08 0 0.72 0.08 0 0.76 0.08 0 0.8 0.08 0 0.84 0.08 0 0.88 0.08 0 0.92 0.08 0 0.96 0.08 0 1 0.08 0 1.04 0.08 0 1.08 0.08 0 1.12 0.08 0 1.16 0.08 0 1.2 0.08 0 0 0.12 0 0.04 0.12 0 0.08 0.12 0 0.12 0.12 0 0.16 0.12 0 0.2 0.12 0 0.24 0.12 0 0.28 0.12 0 0.32 0.12 0 0.36 0.12 0 0.4 0.12 0 0.44 0.12 0 0.48 0.12 0 0.52 0.12 0 0.56 0.12 0 0.6 0.12 0 0.64 0.12 0 0.68 0.12 0 0.72 0.12 0 0.76 0.12 0 0.8 0.12 0 0.84 0.12 0 0.88 0.12 0 0.92 0.12 0 0.96 0.12 0 1 0.12 0 1.04 0.12 0 1.08 0.12 0 1.12 0.12 0 1.16 0.12 0 1.2 0.12 0 0 0.16 0 0.04 0.16 0 0.08 0.16 0 0.12 0.16 0 0.16 0.16 0 0.2 0.16 0 0.24 0.16 0 0.28 0.16 0 0.32 0.16 0 0.36 0.16 0 0.4 0.16 0 0.44 0.16 0 0.48 0.16 0 0.52 0.16 0 0.56 0.16 0 0.6 0.16 0 0.64 0.16 0 0.68 0.16 0 0.72 0.16 0 0.76 0.16 0 0.8 0.16 0 0.84 0.16 0 0.88 0.16 0 0.92 0.16 0 0.96 0.16 0 1 0.16 0 1.04 0.16 0 1.08 0.16 0 1.12 0.16 0 1.16 0.16 0 1.2 0.16 0 0 0.2 0 0.04 0.2 0 0.08 0.2 0 0.12 0.2 0 0.16 0.2 0 0.2 0.2 0 0.24 0.2 0 0.28 0.2 0 0.32 0.2 0 0.36 0.2 0 0.4 0.2 0 0.44 0.2 0 0.48 0.2 0 0.52 0.2 0 0.56 0.2 0 0.6 0.2 0 0.64 0.2 0 0.68 0.2 0 0.72 0.2 0 0.76 0.2 0 0.8 0.2 0 0.84 0.2 0 0.88 0.2 0 0.92 0.2 0 0.96 0.2 0 1 0.2 0 1.04 0.2 0 1.08 0.2 0 1.12 0.2 0 1.16 0.2 0 1.2 0.2 0 0 0.24 0 0.04 0.24 0 0.08 0.24 0 0.12 0.24 0 0.16 0.24 0 0.2 0.24 0 0.24 0.24 0 0.28 0.24 0 0.32 0.24 0 0.36 0.24 0 0.4 0.24 0 0.44 0.24 0 0.48 0.24 0 0.52 0.24 0 0.56 0.24 0 0.6 0.24 0 0.64 0.24 0 0.68 0.24 0 0.72 0.24 0 0.76 0.24 0 0.8 0.24 0 0.84 0.24 0 0.88 0.24 0 0.92 0.24 0 0.96 0.24 0 1 0.24 0 1.04 0.24 0 1.08 0.24 0 1.12 0.24 0 1.16 0.24 0 1.2 0.24 0 0 0.28 0 0.04 0.28 0 0.08 0.28 0 0.12 0.28 0 0.16 0.28 0 0.2 0.28 0 0.24 0.28 0 0.28 0.28 0 0.32 0.28 0 0.36 0.28 0 0.4 0.28 0 0.44 0.28 0 0.48 0.28 0 0.52 0.28 0 0.56 0.28 0 0.6 0.28 0 0.64 0.28 0 0.68 0.28 0 0.72 0.28 0 0.76 0.28 0 0.8 0.28 0 0.84 0.28 0 0.88 0.28 0 0.92 0.28 0 0.96 0.28 0 1 0.28 0 1.04 0.28 0 1.08 0.28 0 1.12 0.28 0 1.16 0.28 0 1.2 0.28 0 0 0.32 0 0.04 0.32 0 0.08 0.32 0 0.12 0.32 0 0.16 0.32 0 0.2 0.32 0 0.24 0.32 0 0.28 0.32 0 0.32 0.32 0 0.36 0.32 0 0.4 0.32 0 0.44 0.32 0 0.48 0.32 0 0.52 0.32 0 0.56 0.32 0 0.6 0.32 0 0.64 0.32 0 0.68 0.32 0 0.72 0.32 0 0.76 0.32 0 0.8 0.32 0 0.84 0.32 0 0.88 0.32 0 0.92 0.32 0 0.96 0.32 0 1 0.32 0 1.04 0.32 0 1.08 0.32 0 1.12 0.32 0 1.16 0.32 0 1.2 0.32 0 0 0.36 0 0.04 0.36 0 0.08 0.36 0 0.12 0.36 0 0.16 0.36 0 0.2 0.36 0 0.24 0.36 0 0.28 0.36 0 0.32 0.36 0 0.36 0.36 0 0.4 0.36 0 0.44 0.36 0 0.48 0.36 0 0.52 0.36 0 0.56 0.36 0 0.6 0.36 0 0.64 0.36 0 0.68 0.36 0 0.72 0.36 0 0.76 0.36 0 0.8 0.36 0 0.84 0.36 0 0.88 0.36 0 0.92 0.36 0 0.96 0.36 0 1 0.36 0 1.04 0.36 0 1.08 0.36 0 1.12 0.36 0 1.16 0.36 0 1.2 0.36 0 0 0.4 0 0.04 0.4 0 0.08 0.4 0 0.12 0.4 0 0.16 0.4 0 0.2 0.4 0 0.24 0.4 0 0.28 0.4 0 0.32 0.4 0 0.36 0.4 0 0.4 0.4 0 0.44 0.4 0 0.48 0.4 0 0.52 0.4 0 0.56 0.4 0 0.6 0.4 0 0.64 0.4 0 0.68 0.4 0 0.72 0.4 0 0.76 0.4 0 0.8 0.4 0 0.84 0.4 0 0.88 0.4 0 0.92 0.4 0 0.96 0.4 0 1 0.4 0 1.04 0.4 0 1.08 0.4 0 1.12 0.4 0 1.16 0.4 0 1.2 0.4 0 0 0.44 0 0.04 0.44 0 0.08 0.44 0 0.12 0.44 0 0.16 0.44 0 0.2 0.44 0 0.24 0.44 0 0.28 0.44 0 0.32 0.44 0 0.36 0.44 0 0.4 0.44 0 0.44 0.44 0 0.48 0.44 0 0.52 0.44 0 0.56 0.44 0 0.6 0.44 0 0.64 0.44 0 0.68 0.44 0 0.72 0.44 0 0.76 0.44 0 0.8 0.44 0 0.84 0.44 0 0.88 0.44 0 0.92 0.44 0 0.96 0.44 0 1 0.44 0 1.04 0.44 0 1.08 0.44 0 1.12 0.44 0 1.16 0.44 0 1.2 0.44 0 0 0.48 0 0.04 0.48 0 0.08 0.48 0 0.12 0.48 0 0.16 0.48 0 0.2 0.48 0 0.24 0.48 0 0.28 0.48 0 0.32 0.48 0 0.36 0.48 0 0.4 0.48 0 0.44 0.48 0 0.48 0.48 0 0.52 0.48 0 0.56 0.48 0 0.6 0.48 0 0.64 0.48 0 0.68 0.48 0 0.72 0.48 0 0.76 0.48 0 0.8 0.48 0 0.84 0.48 0 0.88 0.48 0 0.92 0.48 0 0.96 0.48 0 1 0.48 0 1.04 0.48 0 1.08 0.48 0 1.12 0.48 0 1.16 0.48 0 1.2 0.48 0 0 0.52 0 0.04 0.52 0 0.08 0.52 0 0.12 0.52 0 0.16 0.52 0 0.2 0.52 0 0.24 0.52 0 0.28 0.52 0 0.32 0.52 0 0.36 0.52 0 0.4 0.52 0 0.44 0.52 0 0.48 0.52 0 0.52 0.52 0 0.56 0.52 0 0.6 0.52 0 0.64 0.52 0 0.68 0.52 0 0.72 0.52 0 0.76 0.52 0 0.8 0.52 0 0.84 0.52 0 0.88 0.52 0 0.92 0.52 0 0.96 0.52 0 1 0.52 0 1.04 0.52 0 1.08 0.52 0 1.12 0.52 0 1.16 0.52 0 1.2 0.52 0 0 0.56 0 0.04 0.56 0 0.08 0.56 0 0.12 0.56 0 0.16 0.56 0 0.2 0.56 0 0.24 0.56 0 0.28 0.56 0 0.32 0.56 0 0.36 0.56 0 0.4 0.56 0 0.44 0.56 0 0.48 0.56 0 0.52 0.56 0 0.56 0.56 0 0.6 0.56 0 0.64 0.56 0 0.68 0.56 0 0.72 0.56 0 0.76 0.56 0 0.8 0.56 0 0.84 0.56 0 0.88 0.56 0 0.92 0.56 0 0.96 0.56 0 1 0.56 0 1.04 0.56 0 1.08 0.56 0 1.12 0.56 0 1.16 0.56 0 1.2 0.56 0 0 0.6 0 0.04 0.6 0 0.08 0.6 0 0.12 0.6 0 0.16 0.6 0 0.2 0.6 0 0.24 0.6 0 0.28 0.6 0 0.32 0.6 0 0.36 0.6 0 0.4 0.6 0 0.44 0.6 0 0.48 0.6 0 0.52 0.6 0 0.56 0.6 0 0.6 0.6 0 0.64 0.6 0 0.68 0.6 0 0.72 0.6 0 0.76 0.6 0 0.8 0.6 0 0.84 0.6 0 0.88 0.6 0 0.92 0.6 0 0.96 0.6 0 1 0.6 0 1.04 0.6 0 1.08 0.6 0 1.12 0.6 0 1.16 0.6 0 1.2 0.6 0 0 0.64 0 0.04 0.64 0 0.08 0.64 0 0.12 0.64 0 0.16 0.64 0 0.2 0.64 0 0.24 0.64 0 0.28 0.64 0 0.32 0.64 0 0.36 0.64 0 0.4 0.64 0 0.44 0.64 0 0.48 0.64 0 0.52 0.64 0 0.56 0.64 0 0.6 0.64 0 0.64 0.64 0 0.68 0.64 0 0.72 0.64 0 0.76 0.64 0 0.8 0.64 0 0.84 0.64 0 0.88 0.64 0 0.92 0.64 0 0.96 0.64 0 1 0.64 0 1.04 0.64 0 1.08 0.64 0 1.12 0.64 0 1.16 0.64 0 1.2 0.64 0 0 0.68 0 0.04 0.68 0 0.08 0.68 0 0.12 0.68 0 0.16 0.68 0 0.2 0.68 0 0.24 0.68 0 0.28 0.68 0 0.32 0.68 0 0.36 0.68 0 0.4 0.68 0 0.44 0.68 0 0.48 0.68 0 0.52 0.68 0 0.56 0.68 0 0.6 0.68 0 0.64 0.68 0 0.68 0.68 0 0.72 0.68 0 0.76 0.68 0 0.8 0.68 0 0.84 0.68 0 0.88 0.68 0 0.92 0.68 0 0.96 0.68 0 1 0.68 0 1.04 0.68 0 1.08 0.68 0 1.12 0.68 0 1.16 0.68 0 1.2 0.68 0 0 0.72 0 0.04 0.72 0 0.08 0.72 0 0.12 0.72 0 0.16 0.72 0 0.2 0.72 0 0.24 0.72 0 0.28 0.72 0 0.32 0.72 0 0.36 0.72 0 0.4 0.72 0 0.44 0.72 0 0.48 0.72 0 0.52 0.72 0 0.56 0.72 0 0.6 0.72 0 0.64 0.72 0 0.68 0.72 0 0.72 0.72 0 0.76 0.72 0 0.8 0.72 0 0.84 0.72 0 0.88 0.72 0 0.92 0.72 0 0.96 0.72 0 1 0.72 0 1.04 0.72 0 1.08 0.72 0 1.12 0.72 0 1.16 0.72 0 1.2 0.72 0 0 0.76 0 0.04 0.76 0 0.08 0.76 0 0.12 0.76 0 0.16 0.76 0 0.2 0.76 0 0.24 0.76 0 0.28 0.76 0 0.32 0.76 0 0.36 0.76 0 0.4 0.76 0 0.44 0.76 0 0.48 0.76 0 0.52 0.76 0 0.56 0.76 0 0.6 0.76 0 0.64 0.76 0 0.68 0.76 0 0.72 0.76 0 0.76 0.76 0 0.8 0.76 0 0.84 0.76 0 0.88 0.76 0 0.92 0.76 0 0.96 0.76 0 1 0.76 0 1.04 0.76 0 1.08 0.76 0 1.12 0.76 0 1.16 0.76 0 1.2 0.76 0 0 0.8 0 0.04 0.8 0 0.08 0.8 0 0.12 0.8 0 0.16 0.8 0 0.2 0.8 0 0.24 0.8 0 0.28 0.8 0 0.32 0.8 0 0.36 0.8 0 0.4 0.8 0 0.44 0.8 0 0.48 0.8 0 0.52 0.8 0 0.56 0.8 0 0.6 0.8 0 0.64 0.8 0 0.68 0.8 0 0.72 0.8 0 0.76 0.8 0 0.8 0.8 0 0.84 0.8 0 0.88 0.8 0 0.92 0.8 0 0.96 0.8 0 1 0.8 0 1.04 0.8 0 1.08 0.8 0 1.12 0.8 0 1.16 0.8 0 1.2 0.8 0 0 0.84 0 0.04 0.84 0 0.08 0.84 0 0.12 0.84 0 0.16 0.84 0 0.2 0.84 0 0.24 0.84 0 0.28 0.84 0 0.32 0.84 0 0.36 0.84 0 0.4 0.84 0 0.44 0.84 0 0.48 0.84 0 0.52 0.84 0 0.56 0.84 0 0.6 0.84 0 0.64 0.84 0 0.68 0.84 0 0.72 0.84 0 0.76 0.84 0 0.8 0.84 0 0.84 0.84 0 0.88 0.84 0 0.92 0.84 0 0.96 0.84 0 1 0.84 0 1.04 0.84 0 1.08 0.84 0 1.12 0.84 0 1.16 0.84 0 1.2 0.84 0 0 0.88 0 0.04 0.88 0 0.08 0.88 0 0.12 0.88 0 0.16 0.88 0 0.2 0.88 0 0.24 0.88 0 0.28 0.88 0 0.32 0.88 0 0.36 0.88 0 0.4 0.88 0 0.44 0.88 0 0.48 0.88 0 0.52 0.88 0 0.56 0.88 0 0.6 0.88 0 0.64 0.88 0 0.68 0.88 0 0.72 0.88 0 0.76 0.88 0 0.8 0.88 0 0.84 0.88 0 0.88 0.88 0 0.92 0.88 0 0.96 0.88 0 1 0.88 0 1.04 0.88 0 1.08 0.88 0 1.12 0.88 0 1.16 0.88 0 1.2 0.88 0 0 0.92 0 0.04 0.92 0 0.08 0.92 0 0.12 0.92 0 0.16 0.92 0 0.2 0.92 0 0.24 0.92 0 0.28 0.92 0 0.32 0.92 0 0.36 0.92 0 0.4 0.92 0 0.44 0.92 0 0.48 0.92 0 0.52 0.92 0 0.56 0.92 0 0.6 0.92 0 0.64 0.92 0 0.68 0.92 0 0.72 0.92 0 0.76 0.92 0 0.8 0.92 0 0.84 0.92 0 0.88 0.92 0 0.92 0.92 0 0.96 0.92 0 1 0.92 0 1.04 0.92 0 1.08 0.92 0 1.12 0.92 0 1.16 0.92 0 1.2 0.92 0 0 0.96 0 0.04 0.96 0 0.08 0.96 0 0.12 0.96 0 0.16 0.96 0 0.2 0.96 0 0.24 0.96 0 0.28 0.96 0 0.32 0.96 0 0.36 0.96 0 0.4 0.96 0 0.44 0.96 0 0.48 0.96 0 0.52 0.96 0 0.56 0.96 0 0.6 0.96 0 0.64 0.96 0 0.68 0.96 0 0.72 0.96 0 0.76 0.96 0 0.8 0.96 0 0.84 0.96 0 0.88 0.96 0 0.92 0.96 0 0.96 0.96 0 1 0.96 0 1.04 0.96 0 1.08 0.96 0 1.12 0.96 0 1.16 0.96 0 1.2 0.96 0 0 1 0 0.04 1 0 0.08 1 0 0.12 1 0 0.16 1 0 0.2 1 0 0.24 1 0 0.28 1 0 0.32 1 0 0.36 1 0 0.4 1 0 0.44 1 0 0.48 1 0 0.52 1 0 0.56 1 0 0.6 1 0 0.64 1 0 0.68 1 0 0.72 1 0 0.76 1 0 0.8 1 0 0.84 1 0 0.88 1 0 0.92 1 0 0.96 1 0 1 1 0 1.04 1 0 1.08 1 0 1.12 1 0 1.16 1 0 1.2 1 0 0 1.04 0 0.04 1.04 0 0.08 1.04 0 0.12 1.04 0 0.16 1.04 0 0.2 1.04 0 0.24 1.04 0 0.28 1.04 0 0.32 1.04 0 0.36 1.04 0 0.4 1.04 0 0.44 1.04 0 0.48 1.04 0 0.52 1.04 0 0.56 1.04 0 0.6 1.04 0 0.64 1.04 0 0.68 1.04 0 0.72 1.04 0 0.76 1.04 0 0.8 1.04 0 0.84 1.04 0 0.88 1.04 0 0.92 1.04 0 0.96 1.04 0 1 1.04 0 1.04 1.04 0 1.08 1.04 0 1.12 1.04 0 1.16 1.04 0 1.2 1.04 0 0 1.08 0 0.04 1.08 0 0.08 1.08 0 0.12 1.08 0 0.16 1.08 0 0.2 1.08 0 0.24 1.08 0 0.28 1.08 0 0.32 1.08 0 0.36 1.08 0 0.4 1.08 0 0.44 1.08 0 0.48 1.08 0 0.52 1.08 0 0.56 1.08 0 0.6 1.08 0 0.64 1.08 0 0.68 1.08 0 0.72 1.08 0 0.76 1.08 0 0.8 1.08 0 0.84 1.08 0 0.88 1.08 0 0.92 1.08 0 0.96 1.08 0 1 1.08 0 1.04 1.08 0 1.08 1.08 0 1.12 1.08 0 1.16 1.08 0 1.2 1.08 0 0 1.12 0 
[...]
			<CellData Scalars="Density">
				<DataArray Name="Density" type="Float32" format="ascii">
 0.00367764 0.00385862 0.00429098 0.00507098 0.00621747 0.00770325 0.00953307 0.0117017 0.0142276 0.0171381 0.0204833 0.0243263 0.0287589 0.0338958 0.0398897 0.0469437 0.0553406 0.065459 0.0778158 0.0931453 0.112605 0.138108 0.173309 0.227352 0.340715 0.591684 1.07561 1.95474 3.45166 5.14952 0.00385734 0.004009 0.00437455 0.00507921 0.0061714 0.00765417 0.009533 0.0118335 0.0145683 0.017764 0.0214651 0.0257328 0.0306499 0.0363286 0.0429315 0.0506596 0.0597994 0.0707351 0.0839991 0.100341 0.120874 0.147428 0.184042 0.239599 0.353876 0.607888 1.09223 1.97279 3.49321 5.19445 0.00428889 0.00437459 0.00461361 0.00515069 0.00605943 0.00733281 0.00901761 0.0111205 0.0136637 0.016669 0.0201727 0.0242253 0.0289106 0.0343526 0.0406894 0.048137 0.0569709 0.0675776 0.0804747 0.0963946 0.116445 0.142571 0.178507 0.232628 0.342772 0.593673 1.08338 1.97063 3.52944 5.35535 0.00506839 0.00508136 0.00515394 0.00554632 0.00629094 0.00741464 0.00895645 0.0109279 0.0133669 0.0163102 0.019805 0.0239232 0.0287554 0.0344081 0.0411103 0.04903 0.0584406 0.0696847 0.0832165 0.0996596 0.120002 0.146079 0.181115 0.23251 0.335391 0.571912 1.04126 1.92205 3.50371 5.34608 0.00621344 0.00617528 0.00606674 0.0062964 0.00696143 0.00802516 0.00952255 0.0115047 0.0140239 0.0171352 0.0209138 0.025443 0.0308405 0.0372589 0.0448068 0.0537305 0.0643086 0.0768746 0.0918782 0.109916 0.132018 0.160066 0.197368 0.250855 0.349348 0.583551 1.05248 1.9179 3.51121 5.4124 0.00769689 0.00765839 0.00734446 0.00742562 0.00803156 0.0090591 0.0105898 0.0126526 0.0153291 0.0186849 0.0228126 0.0278059 0.0337883 0.0408931 0.0493105 0.0592483 0.0709912 0.0849009 0.101441 0.121207 0.145099 0.174806 0.213639 0.267902 0.362901 0.587756 1.04919 1.90239 3.49978 5.49501 0.00952392 0.00953782 0.00903115 0.00897099 0.00953455 0.0105962 0.0122206 0.0144502 0.0173819 0.0210892 0.025678 0.031251 0.0379385 0.045897 0.0553008 0.066396 0.0794771 0.0949282 0.113268 0.135121 0.16136 0.193533 0.235225 0.292504 0.385192 0.596116 1.06206 1.91691 3.5288 5.67137 0.0116886 0.0118366 0.0111335 0.0109444 0.0115201 0.012664 0.0144573 0.0169338 0.0202099 0.0243656 0.029514 0.035759 0.0432491 0.0521305 0.0626153 0.0749314 0.0894386 0.106514 0.12675 0.150858 0.179736 0.214694 0.259033 0.318903 0.410189 0.602195 1.06561 1.93083 3.57228 5.90914 0.0142096 0.0145676 0.0136735 0.0133811 0.0140398 0.0153419 0.0173909 0.0202148 0.0239532 0.028679 0.0345242 0.0415837 0.0500161 0.0599907 0.071707 0.0854542 0.101565 0.120541 0.142941 0.169568 0.201533 0.240137 0.288012 0.351413 0.444 0.617065 1.06142 1.94697 3.62056 6.20891 0.0171149 0.0177589 0.0166729 0.0163185 0.0171456 0.0186946 0.021093 0.0243628 0.0286757 0.0340928 0.0407504 0.0487545 0.0582541 0.0694396 0.0825395 0.0978407 0.115765 0.136763 0.161629 0.191133 0.22644 0.269232 0.321793 0.389209 0.484574 0.646552 1.04688 1.95441 3.67405 6.537 0.0204547 0.0214557 0.0201703 0.0198047 0.0209161 0.0228105 0.0256718 0.029497 0.0344994 0.0407368 0.0483447 0.057417 0.0681388 0.0806735 0.0953113 0.112353 0.132256 0.155604 0.183062 0.215818 0.25511 0.302441 0.360768 0.434402 0.534299 0.692169 1.03878 1.94067 3.72644 6.86004 0.0242921 0.02572 0.0242157 0.023914 0.0254354 0.0277948 0.0312264 0.0357283 0.0415433 0.0487116 0.0574031 0.0676844 0.0797448 0.0938013 0.110108 0.129084 0.151181 0.177062 0.207644 0.243814 0.287453 0.340483 0.405236 0.486528 0.594225 0.754384 1.06166 1.90141 3.7659 7.16329 0.0287181 0.0306329 0.0288943 0.0287366 0.0308224 0.0337628 0.0379026 0.0431921 0.0499566 0.058197 0.0680873 0.0797299 0.0932974 0.109014 0.127227 0.148295 0.172881 0.20164 0.235532 0.276046 0.324521 0.383555 0.456854 0.547986 0.665919 0.834181 1.12754 1.86265 3.79921 7.38226 0.0338467 0.0363066 0.0343297 0.0343803 0.0372303 0.0408542 0.0458361 0.0520582 0.0598968 0.0693514 0.0806077 0.0937371 0.108994 0.126586 0.146884 0.170398 0.197673 0.229732 0.267568 0.312499 0.367184 0.433502 0.515443 0.619685 0.75324 0.935282 1.23193 1.86612 3.81127 7.47269 0.039831 0.0429024 0.0406596 0.0410759 0.0447722 0.0492631 0.0552332 0.0625158 0.0716037 0.0824244 0.0952088 0.11004 0.127158 0.146871 0.169566 0.195775 0.226319 0.262002 0.3044 0.355094 0.415998 0.491676 0.585291 0.703168 0.858145 1.06471 1.37581 1.96765 3.7847 7.42274 0.046873 0.0506212 0.0480986 0.0489882 0.0536916 0.0591955 0.0663182 0.0748375 0.0853287 0.0977182 0.112238 0.128974 0.148237 0.170327 0.195779 0.225177 0.259318 0.299576 0.347098 0.404441 0.474195 0.559233 0.667901 0.805247 0.984319 1.22851 1.57697 2.16556 3.73287 7.13746 0.0552543 0.0597481 0.0569207 0.0583903 0.0642645 0.0709372 0.0794011 0.0893282 0.101456 0.115624 0.132129 0.151069 0.172778 0.197648 0.226246 0.259384 0.297974 0.343298 0.397527 0.462548 0.54268 0.641976 0.766339 0.929307 1.14317 1.43008 1.83986 2.45573 3.6759 6.54168 0.0653547 0.0706668 0.0675123 0.0696233 0.0768249 0.0848428 0.0948535 0.106427 0.120415 0.136654 0.155464 0.176941 0.201523 0.229646 0.262025 0.299523 0.343401 0.395265 0.457059 0.532479 0.624863 0.741414 0.890068 1.08149 1.34231 1.69099 2.17641 2.83246 3.62667 5.66875 0.0776893 0.0839101 0.0803885 0.0831408 0.0918203 0.101382 0.113194 0.126663 0.142849 0.161502 0.182975 0.2075 0.235451 0.267469 0.304346 0.347267 0.397535 0.45736 0.529311 0.616774 0.726457 0.86398 1.04357 1.27908 1.59457 2.02829 2.60364 3.24589 3.62655 4.54631 0.0929932 0.100224 0.0962834 0.0995647 0.109846 0.121141 0.135045 0.150784 0.1695 0.191026 0.215723 0.243763 0.275894 0.312527 0.355025 0.404374 0.46292 0.532542 0.617442 0.72172 0.851981 1.0199 1.23858 1.53126 1.92491 2.45781 3.07763 3.55654 3.47514 3.21039 0.112423 0.120724 0.1163 0.119886 0.131934 0.145024 0.16129 0.179636 0.201487 0.226399 0.254969 0.287424 0.324475 0.367045 0.416299 0.474182 0.542527 0.625599 0.72608 0.852998 1.01288 1.2194 1.49395 1.86002 2.35713 2.96202 3.47536 3.62342 2.98749 2.04942 0.137894 0.147239 0.142389 0.145933 0.159968 0.174714 0.193445 0.214641 0.23999 0.269234 0.302394 0.340286 0.383616 0.433435 0.491559 0.560121 0.641947 0.741624 0.864973 1.01887 1.2202 1.481 1.82744 2.29129 2.87997 3.44601 3.61143 3.22912 2.09039 1.37244 0.173064 0.183816 0.17828 0.180944 0.197245 0.21356 0.235111 0.258973 0.287955 0.32157 0.360823 0.405098 0.456644 0.515571 0.58528 0.66767 0.767834 0.890229 1.04397 1.2397 1.49315 1.82809 2.27626 2.84352 3.3803 3.64987 3.38183 2.34957 1.39692 1.11226 0.2271 0.239361 0.232376 0.232323 0.250747 0.267815 0.292441 0.318766 0.351404 0.389123 0.434109 0.486628 0.547664 0.619328 0.70325 0.80532 0.928298 1.08442 1.2789 1.53084 1.86122 2.29475 2.83239 3.38405 3.66058 3.45137 2.47605 1.49237 1.12764 1.03546 0.340503 0.353676 0.342549 0.335256 0.349275 0.362852 0.385141 0.410168 0.443873 0.48469 0.534059 0.594037 0.665962 0.753216 0.857454 0.98493 1.14234 1.34158 1.59802 1.92451 2.35526 2.8852 3.3952 3.63386 3.49129 2.55365 1.58377 1.15252 1.04323 1.00674 0.591319 0.60751 0.593266 0.571632 0.58337 0.587722 0.596081 0.602195 0.617064 0.646504 0.692364 0.753917 0.833952 0.935345 1.06533 1.22715 1.43201 1.69083 2.02644 2.45928 2.96557 3.42794 3.66231 3.45699 2.58003 1.58621 1.16303 1.05027 1.00888 1.00051 1.07497 1.09153 1.08264 1.04068 1.05205 1.04898 1.06205 1.06537 1.06153 1.04682 1.03895 1.06144 1.12709 1.23091 1.3769 1.57596 1.83711 2.18075 2.60297 3.07128 3.48991 3.62027 3.3718 2.47425 1.56615 1.1705 1.0517 1.01001 1.00071 1.00001 1.95392 1.97193 1.96964 1.9212 1.91715 1.9022 1.91648 1.93089 1.94689 1.95443 1.94029 1.90208 1.86261 1.86457 1.96795 2.16853 2.45334 2.83076 3.25072 3.55826 3.60391 3.23852 2.32869 1.51416 1.14933 1.04957 1.01018 1.00079 1.00001 1 3.45003 3.49164 3.52752 3.50241 3.50966 3.49926 3.52831 3.57208 3.62032 3.67393 3.72622 3.76614 3.79872 3.81155 3.78489 3.73428 3.67683 3.62731 3.61665 3.49955 2.96619 2.11359 1.38555 1.12669 1.04409 1.00879 1.00071 1.00001 1 1 5.14726 5.19226 5.35291 5.34416 5.41023 5.4942 5.67016 5.90943 6.20637 6.53686 6.86311 7.15897 7.38242 7.47879 7.41544 7.13246 6.55618 5.66399 4.52947 3.22857 2.03398 1.37369 1.1144 1.03499 1.00675 1.00052 1.00001 1 1 1
				</DataArray>
				<DataArray Name="Energy" type="Float32" format="ascii">
 822.113 782.989 704.222 595.955 486.172 392.42 317.183 258.448 212.636 176.598 147.846 124.576 105.482 89.6137 76.2751 64.9465 55.2389 46.8627 39.6042 33.3123 27.8771 23.2123 19.2501 15.9898 13.6264 11.3618 8.75633 6.40158 4.60863 3.42998 783.255 752.892 689.795 594.21 488.923 394.336 316.579 255.08 207.234 170.012 140.762 117.501 98.7431 83.4071 70.6972 60.03 50.9832 43.2416 36.5658 30.7892 25.7933 21.5003 17.8744 14.8859 12.7291 10.7493 8.40409 6.21032 4.50722 3.3563 704.571 689.788 654.239 585.777 498.151 411.543 334.713 271.478 221 181.216 149.833 124.846 104.711 88.2713 74.655 63.2505 53.5929 45.3464 38.2651 32.1668 26.9177 22.4277 18.6249 15.4749 13.1727 11.1137 8.63321 6.31852 4.53385 3.36724 596.264 593.961 585.406 544.272 479.674 407.027 337.092 276.263 225.917 185.22 152.605 126.46 105.342 88.0926 73.8721 62.0799 52.2336 43.9618 36.973 31.0455 26.0087 21.7434 18.1324 15.1364 12.9405 11.0822 8.72288 6.40899 4.58371 3.37319 486.491 488.613 497.553 479.256 433.542 376.217 316.964 262.468 215.375 176.334 144.561 118.903 98.1796 81.4348 67.8367 56.7058 47.5297 39.9145 33.5496 28.2046 23.7044 19.9266 16.7445 14.0958 12.1026 10.6378 8.65463 6.47893 4.64881 3.40416 392.746 394.121 410.889 406.426 375.917 333.181 285.145 238.678 197.069 161.745 132.56 108.848 89.6769 74.193 61.6599 51.4517 43.0821 36.1748 30.4261 25.6123 21.5597 18.1577 15.3069 12.9365 11.132 9.94343 8.38698 6.46181 4.68465 3.41635 317.489 316.413 334.217 336.544 316.565 284.973 247.109 209.033 173.839 143.347 117.806 96.8899 79.9047 66.1617 55.0261 45.9631 38.5357 32.4078 27.3114 23.0448 19.45 16.4286 13.9066 11.8109 10.16 9.12793 8.03519 6.41305 4.70045 3.41659 258.738 255.013 271.159 275.849 262.114 238.461 208.937 178.432 149.557 124.124 102.546 84.7201 70.148 58.2963 48.6552 40.7781 34.3021 28.9411 24.4677 20.7133 17.5371 14.8508 12.5948 10.7205 9.21319 8.23851 7.52963 6.27556 4.68646 3.40583 212.906 207.245 220.845 225.675 215.134 196.901 173.748 149.53 126.248 105.504 87.7222 72.9103 60.7095 50.7216 42.5424 35.8243 30.267 25.6461 21.7697 18.5008 15.7269 13.3672 11.3658 9.69738 8.33424 7.37696 6.89162 6.05014 4.64442 3.39043 176.839 170.062 181.174 185.127 176.222 161.669 143.318 124.134 105.525 88.8203 74.3774 62.255 52.1894 43.8844 37.0313 31.3577 26.6337 22.6742 19.336 16.5033 14.0848 12.0192 10.2495 8.7563 7.52548 6.60272 6.16046 5.7101 4.56554 3.36543 148.052 140.824 149.852 152.608 144.546 132.564 117.845 102.603 87.7781 74.4102 62.7708 52.9301 44.6972 37.8467 32.1465 27.388 23.3927 20.0215 17.1533 14.708 12.6075 10.8001 9.24471 7.9151 6.80225 5.93104 5.43962 5.24804 4.43903 3.33025 124.751 117.562 124.894 126.509 118.938 108.895 96.9573 84.7998 72.9813 62.3015 52.9494 44.9867 38.2709 32.6393 27.9087 23.9275 20.5554 17.6858 15.2295 13.1149 11.2902 9.71205 8.34186 7.16153 6.15853 5.34916 4.81104 4.69585 4.24851 3.27763 105.632 98.7987 104.77 105.41 98.2382 89.7436 79.9873 70.2329 60.7856 52.243 44.7239 38.2828 32.8065 28.175 24.253 20.9197 18.0754 15.6342 13.5269 11.7041 10.1164 8.7363 7.53391 6.48746 5.58504 4.83955 4.29261 4.12901 3.96662 3.19572 89.7426 83.4578 88.3299 88.1631 81.4968 74.2638 66.2454 58.3839 50.7964 43.9412 37.8818 32.6572 28.1834 24.368 21.1083 18.3171 15.9118 13.8337 12.0265 10.4491 9.0704 7.86254 6.80386 5.88003 5.07284 4.39003 3.85789 3.60544 3.59851 3.06758 76.387 70.7448 74.7095 73.934 67.8891 61.719 55.0955 48.726 42.6075 37.081 32.1798 27.9308 24.2639 21.1135 18.3991 16.0546 14.0211 12.2472 10.6954 9.33284 8.13038 7.07489 6.14373 5.32549 4.60845 3.98802 3.47997 3.16861 3.18799 2.87393 65.0443 60.0761 63.301 62.1322 56.7473 51.4965 46.0156 40.8332 35.8722 31.3979 27.4162 23.9464 20.9329 18.3236 16.0579 14.0858 12.3605 10.8476 9.51204 8.33286 7.28767 6.36025 5.54281 4.81886 4.18066 3.62463 3.15016 2.80809 2.76345 2.60649 55.3239 51.027 53.6399 52.2779 47.5619 43.1152 38.5729 34.3406 30.3037 26.6624 23.4145 20.5713 18.0859 15.9201 14.0248 12.3631 10.8991 9.60425 8.45681 7.43447 6.52452 5.71371 4.99139 4.35237 3.78522 3.28398 2.85071 2.49635 2.35369 2.26074 46.9366 43.2831 45.3904 43.9994 39.9397 36.1979 32.433 28.9667 25.6689 22.6958 20.036 17.6973 15.6422 13.8398 12.2521 10.8499 9.60564 8.49862 7.50966 6.6256 5.83167 5.12189 4.4877 3.91969 3.41765 2.96695 2.57378 2.22273 1.98301 1.84516 39.6679 36.6047 38.3061 37.0058 33.5701 30.443 27.327 24.4831 21.7832 19.3479 17.1638 15.2362 13.5321 12.0302 10.6981 9.51482 8.45756 7.50977 6.65916 5.89235 5.20319 4.58042 4.02324 3.52289 3.07435 2.67066 2.31603 1.97173 1.66732 1.38675 33.3665 30.8251 32.2041 31.0745 28.2219 25.6253 23.0561 20.722 18.508 16.5093 14.7128 13.1197 11.706 10.4512 9.33373 8.33324 7.43568 6.62505 5.89315 5.22991 4.62874 4.08643 3.59555 3.15319 2.75514 2.39349 2.06234 1.72049 1.37137 0.889684 27.9224 25.8258 26.9512 26.0341 23.7196 21.5698 19.4583 17.5432 15.7306 14.0883 12.609 11.2924 10.118 9.07102 8.13147 7.28792 6.52375 5.83211 5.20224 4.6302 4.10796 3.63265 3.20416 2.81133 2.4568 2.129 1.80399 1.44653 1.01934 0.404939 23.2494 21.5291 22.4571 21.7657 19.9395 18.1664 16.4347 14.8552 13.3686 12.0209 10.8006 9.71183 8.73675 7.86264 7.0742 6.36116 5.71318 5.12086 4.58094 4.08435 3.6339 3.21799 2.83818 2.49438 2.17683 1.86144 1.52333 1.1079 0.548079 0.0818302 19.2798 17.8994 18.6501 18.1517 16.7554 15.314 13.9117 12.5983 11.367 10.2495 9.24452 8.34117 7.53324 6.80331 6.14282 5.54134 4.99165 4.48654 4.02295 3.59512 3.20182 2.84083 2.50661 2.19963 1.89635 1.5751 1.19417 0.654064 0.132726 0.00465548 16.0133 14.9073 15.4966 15.1532 14.1056 12.9422 11.8146 10.7227 9.69891 8.75712 7.91426 7.16129 6.48721 5.87954 5.3238 4.81869 4.35072 3.92035 3.52186 3.15268 2.80965 2.49338 2.19943 1.90743 1.60122 1.23671 0.73165 0.188237 0.00939864 9.25119e-05 13.6445 12.7469 13.1912 12.9551 12.1112 11.1371 10.1629 9.21446 8.33494 7.52663 6.80174 6.15773 5.58487 5.07401 4.607 4.17935 3.78497 3.41672 3.07495 2.75388 2.45769 2.17631 1.89676 1.59805 1.25332 0.770913 0.229659 0.0153672 0.000202057 2.99031e-06 11.3705 10.7588 11.1241 11.0911 10.6434 9.94689 9.13045 8.23949 7.37686 6.60325 5.93108 5.34815 4.83903 4.39006 3.9892 3.62241 3.2836 2.96692 2.6702 2.39226 2.12855 1.86025 1.57679 1.2363 0.771028 0.241972 0.0189105 0.000317794 3.52757e-06 2.5024e-06 8.75909 8.40747 8.63729 8.72669 8.65699 8.38824 8.03577 7.53002 6.89149 6.16015 5.43938 4.8101 4.29263 3.85679 3.48054 3.14991 2.84873 2.57404 2.31519 2.06206 1.80505 1.52426 1.19311 0.733025 0.227777 0.0194166 0.000365631 3.95636e-06 2.50423e-06 2.50001e-06 6.40142 6.21038 6.31899 6.40953 6.47917 6.46169 6.4126 6.27486 6.04968 5.71013 5.24767 4.69455 4.12844 3.60515 3.16835 2.80816 2.49558 2.22214 1.97086 1.71997 1.44209 1.10925 0.652572 0.190519 0.0152153 0.000316176 3.98245e-06 2.50507e-06 2.50001e-06 2.5e-06 4.60758 4.50634 4.53316 4.58297 4.64821 4.6837 4.69937 4.68547 4.64397 4.56494 4.43865 4.24773 3.96558 3.59867 3.18786 2.76253 2.3529 1.98171 1.66758 1.37411 1.01545 0.548089 0.131803 0.00934903 0.000203418 3.52145e-06 2.5042e-06 2.50001e-06 2.5e-06 2.5e-06 3.42912 3.3554 3.36655 3.3724 3.40364 3.41535 3.4158 3.40484 3.3907 3.36517 3.32885 3.27809 3.19586 3.06687 2.87432 2.60651 2.26027 1.84472 1.38417 0.891056 0.403924 0.0819088 0.00470364 9.22294e-05 2.98835e-06 2.50243e-06 2.50001e-06 2.5e-06 2.5e-06 2.5e-06
				</DataArray>
				<DataArray Name="F1" type="Float32" format="ascii">
 1 1 1 1 1 1 1 1 1 1 1 1 1 1 1 1 1 1 1 1 1 1 1 1 1 1 1 1 1 1 1 1 1 1 1 1 1 1 1 1 1 1 1 1 1 1 1 1 1 1 1 1 1 1 1 1 1 1 1 1 1 1 1 1 1 1 1 1 1 1 1 1 1 1 1 1 1 1 1 1 1 1 1 1 1 1 1 1 1 1 1 1 1 1 1 1 1 1 1 1 1 1 1 1 1 1 1 1 1 1 1 1 1 1 1 1 1 1 1 1 1 1 1 1 1 1 1 1 1 1 1 1 1 1 1 1 1 1 1 1 1 1 1 1 1 1 1 1 1 1 1 1 1 1 1 1 1 1 1 1 1 1 1 1 1 1 1 1 1 1 1 1 1 1 1 1 1 1 1 1 1 1 1 1 1 1 1 1 1 1 1 1 1 1 1 1 1 1 1 1 1 1 1 1 1 1 1 1 1 1 1 1 1 1 1 1 1 1 1 1 1 1 1 1 1 1 1 1 1 1 1 1 1 1 1 1 1 1 1 1 1 1 1 1 1 1 1 1 1 1 1 1 1 1 1 1 1 1 1 1 1 1 1 1 1 1 1 1 1 1 1 1 1 1 1 1 1 1 1 1 1 1 1 1 1 1 1 1 1 1 1 1 1 1 1 1 1 1 1 1 1 1 1 1 1 1 1 1 1 1 1 1 1 1 1 1 1 1 1 1 1 1 1 1 1 1 1 1 1 1 1 1 1 1 1 1 1 1 1 1 1 1 1 1 1 1 1 1 1 1 1 1 1 1 1 1 1 1 1 1 1 1 1 1 1 1 1 1 1 1 1 1 1 1 1 1 1 1 1 1 1 1 1 1 1 1 1 1 1 1 1 1 1 1 1 1 1 1 1 1 1 1 1 1 1 1 1 1 1 1 1 1 1 1 1 1 1 1 1 1 1 1 1 1 1 1 1 1 1 1 1 1 1 1 1 1 1 1 1 1 1 1 1 1 1 1 1 1 1 1 1 1 1 1 1 1 1 1 1 1 1 1 1 1 1 1 1 1 1 1 1 1 1 1 1 1 1 1 1 1 1 1 1 1 1 1 1 1 1 1 1 1 1 1 1 1 1 1 1 1 1 1 1 1 1 1 1 1 1 1 1 1 1 1 1 1 1 1 1 1 1 1 1 1 1 1 1 1 1 1 1 1 1 1 1 1 1 1 1 1 1 1 1 1 1 1 1 1 1 1 1 1 1 1 1 1 1 1 1 1 1 1 1 1 1 1 1 1 1 1 1 1 1 1 1 1 1 1 1 1 1 1 1 1 1 1 1 1 1 1 1 1 1 1 1 1 1 1 1 1 1 1 1 1 1 1 1 1 1 1 1 1 1 1 1 1 1 1 1 1 1 1 1 1 1 1 1 1 1 1 1 1 1 1 1 1 1 1 1 1 1 1 1 1 1 1 1 1 1 1 1 1 1 1 1 1 1 1 1 1 1 1 1 1 1 1 1 1 1 1 1 1 1 1 1 1 1 1 1 1 1 1 1 1 1 1 1 1 1 1 1 1 1 1 1 1 1 1 1 1 1 1 1 1 1 1 1 1 1 1 1 1 1 1 1 1 1 1 1 1 1 1 1 1 1 1 1 1 1 1 1 1 1 1 1 1 1 1 1 1 1 1 1 1 1 1 1 1 1 1 1 1 1 1 1 1 1 1 1 1 1 1 1 1 1 1 1 1 1 1 1 1 1 1 1 1 1 1 1 1 1 1 1 1 1 1 1 1 1 1 1 1 1 1 1 1 1 1 1 1 1 1 1 1 1 1 1 1 1 1 1 1 1 1 1 1 1 1 1 1 1 1 1 1 1 1 1 1 1 1 1 1 1 1 1 1 1 1 1 1 1 1 1 1 1 1 1 1 1 1 1 1 1 1 1 1 1 1 1 1 1 1 1 1 1 1 1 1 1 1 1 1 1 1 1 1 1 1 1 1 1 1 1 1 1 1 1 1 1 1 1 1 1 1 1 1 1 1 1 1
				</DataArray>
				<DataArray Name="F2" type="Float32" format="ascii">
 0 0 0 0 0 0 0 0 0 0 0 0 0 0 0 0 0 0 0 0 0 0 0 0 0 0 0 0 0 0 0 0 0 0 0 0 0 0 0 0 0 0 0 0 0 0 0 0 0 0 0 0 0 0 0 0 0 0 0 0 0 0 0 0 0 0 0 0 0 0 0 0 0 0 0 0 0 0 0 0 0 0 0 0 0 0 0 0 0 0 0 0 0 0 0 0 0 0 0 0 0 0 0 0 0 0 0 0 0 0 0 0 0 0 0 0 0 0 0 0 0 0 0 0 0 0 0 0 0 0 0 0 0 0 0 0 0 0 0 0 0 0 0 0 0 0 0 0 0 0 0 0 0 0 0 0 0 0 0 0 0 0 0 0 0 0 0 0 0 0 0 0 0 0 0 0 0 0 0 0 0 0 0 0 0 0 0 0 0 0 0 0 0 0 0 0 0 0 0 0 0 0 0 0 0 0 0 0 0 0 0 0 0 0 0 0 0 0 0 0 0 0 0 0 0 0 0 0 0 0 0 0 0 0 0 0 0 0 0 0 0 0 0 0 0 0 0 0 0 0 0 0 0 0 0 0 0 0 0 0 0 0 0 0 0 0 0 0 0 0 0 0 0 0 0 0 0 0 0 0 0 0 0 0 0 0 0 0 0 0 0 0 0 0 0 0 0 0 0 0 0 0 0 0 0 0 0 0 0 0 0 0 0 0 0 0 0 0 0 0 0 0 0 0 0 0 0 0 0 0 0 0 0 0 0 0 0 0 0 0 0 0 0 0 0 0 0 0 0 0 0 0 0 0 0 0 0 0 0 0 0 0 0 0 0 0 0 0 0 0 0 0 0 0 0 0 0 0 0 0 0 0 0 0 0 0 0 0 0 0 0 0 0 0 0 0 0 0 0 0 0 0 0 0 0 0 0 0 0 0 0 0 0 0 0 0 0 0 0 0 0 0 0 0 0 0 0 0 0 0 0 0 0 0 0 0 0 0 0 0 0 0 0 0 0 0 0 0 0 0 0 0 0 0 0 0 0 0 0 0 0 0 0 0 0 0 0 0 0 0 0 0 0 0 0 0 0 0 0 0 0 0 0 0 0 0 0 0 0 0 0 0 0 0 0 0 0 0 0 0 0 0 0 0 0 0 0 0 0 0 0 0 0 0 0 0 0 0 0 0 0 0 0 0 0 0 0 0 0 0 0 0 0 0 0 0 0 0 0 0 0 0 0 0 0 0 0 0 0 0 0 0 0 0 0 0 0 0 0 0 0 0 0 0 0 0 0 0 0 0 0 0 0 0 0 0 0 0 0 0 0 0 0 0 0 0 0 0 0 0 0 0 0 0 0 0 0 0 0 0 0 0 0 0 0 0 0 0 0 0 0 0 0 0 0 0 0 0 0 0 0 0 0 0 0 0 0 0 0 0 0 0 0 0 0 0 0 0 0 0 0 0 0 0 0 0 0 0 0 0 0 0 0 0 0 0 0 0 0 0 0 0 0 0 0 0 0 0 0 0 0 0 0 0 0 0 0 0 0 0 0 0 0 0 0 0 0 0 0 0 0 0 0 0 0 0 0 0 0 0 0 0 0 0 0 0 0 0 0 0 0 0 0 0 0 0 0 0 0 0 0 0 0 0 0 0 0 0 0 0 0 0 0 0 0 0 0 0 0 0 0 0 0 0 0 0 0 0 0 0 0 0 0 0 0 0 0 0 0 0 0 0 0 0 0 0 0 0 0 0 0 0 0 0 0 0 0 0 0 0 0 0 0 0 0 0 0 0 0 0 0 0 0 0 0 0 0 0 0 0 0 0 0 0 0 0 0 0 0 0 0 0 0 0 0 0 0 0 0 0 0 0 0 0 0 0 0 0 0 0 0 0 0 0 0 0 0 0 0 0 0 0 0 0 0 0 0 0 0 0 0 0 0 0 0 0 0 0 0 0 0 0 0 0 0 0 0 0 0 0 0 0 0 0 0 0 0 0 0 0 0 0 0 0 0 0 0 0 0 0 0 0 0 0 0 0 0 0 0 0
				</DataArray>
				<DataArray Name="F3" type="Float32" format="ascii">