<?xml version="1.0"?>
<VTKFile type="PolyData">
	<PolyData>
		<Piece NumberOfPoints="961" NumberOfPolys="900">
			<Points>
				<DataArray type="Float32" NumberOfComponents="3" format="ascii">
 0 0 0 0.04 0 0 0.08 0 0 0.12 0 0 0.16 0 0 0.2 0 0 0.24 0 0 0.28 0 0 0.32 0 0 0.36 0 0 0.4 0 0 0.44 0 0 0.48 0 0 0.52 0 0 0.56 0 0 0.6 0 0 0.64 0 0 0.68 0 0 0.72 0 0 0.76 0 0 0.8 0 0 0.84 0 0 0.88 0 0 0.92 0 0 0.96 0 0 1 0 0 1.04 0 0 1.08 0 0 1.12 0 0 1.16 0 0 1.2 0 0 0 0.04 0 0.04 0.04 0 0.08 0.04 0 0.12 0.04 0 0.16 0.04 0 0.2 0.04 0 0.24 0.04 0 0.28 0.04 0 0.32 0.04 0 0.36 0.04 0 0.4 0.04 0 0.44 0.04 0 0.48 0.04 0 0.52 0.04 0 0.56 0.04 0 0.6 0.04 0 0.64 0.04 0 0.68 0.04 0 0.72 0.04 0 0.76 0.04 0 0.8 0.04 0 0.84 0.04 0 0.88 0.04 0 0.92 0.04 0 0.96 0.04 0 1 0.04 0 1.04 0.04 0 1.08 0.04 0 1.12 0.04 0 1.16 0.04 0 1.2 0.04 0 0 0.08 0 0.04 0.08 0 0.08 0.08 0 0.12 0.08 0 0.16 0.08 0 0.2 0.08 0 0.24 0.08 0 0.28 0.08 0 0.32 0.08 0 0.36 0.08 0 0.4 0.08 0 0.44 0.08 0 0.48 0.08 0 0.52 0.08 0 0.56 0.08 0 0.6 0.08 0 0.64 0.08 0 0.68 0.08 0 0.72 0.08 0 0.76 0.08 0 0.8 0.08 0 0.84 0.08 0 0.88 0.08 0 0.92 0.08 0 0.96 0.08 0 1 0.08 0 1.04 0.08 0 1.08 0.08 0 1.12 0.08 0 1.16 0.08 0 1.2 0.08 0 0 0.12 0 0.04 0.12 0 0.08 0.12 0 0.12 0.12 0 0.16 0.12 0 0.2 0.12 0 0.24 0.12 0 0.28 0.12 0 0.32 0.12 0 0.36 0.12 0 0.4 0.12 0 0.44 0.12 0 0.48 0.12 0 0.52 0.12 0 0.56 0.12 0 0.6 0.12 0 0.64 0.12 0 0.68 0.12 0 0.72 0.12 0 0.76 0.12 0 0.8 0.12 0 0.84 0.12 0 0.88 0.12 0 0.92 0.12 0 0.96 0.12 0 1 0.12 0 1.04 0.12 0 1.08 0.12 0 1.12 0.12 0 1.16 0.12 0 1.2 0.12 0 0 0.16 0 0.04 0.16 0 0.08 0.16 0 0.12 0.16 0 0.16 0.16 0 0.2 0.16 0 0.24 0.16 0 0.28 0.16 0 0.32 0.16 0 0.36 0.16 0 0.4 0.16 0 0.44 0.16 0 0.48 0.16 0 0.52 0.16 0 0.56 0.16 0 0.6 0.16 0 0.64 0.16 0 0.68 0.16 0 0.72 0.16 0 0.76 0.16 0 0.8 0.16 0 0.84 0.16 0 0.88 0.16 0 0.92 0.16 0 0.96 0.16 0 1 0.16 0 1.04 0.16 0 1.08 0.16 0 1.12 0.16 0 1.16 0.16 0 1.2 0.16 0 0 0.2 0 0.04 0.2 0 0.08 0.2 0 0.12 0.2 0 0.16 0.2 0 0.2 0.2 0 0.24 0.2 0 0.28 0.2 0 0.32 0.2 0 0.36 0.2 0 0.4 0.2 0 0.44 0.2 0 0.48 0.2 0 0.52 0.2 0 0.56 0.2 0 0.6 0.2 0 0.64 0.2 0 0.68 0.2 0 0.72 0.2 0 0.76 0.2 0 0.8 0.2 0 0.84 0.2 0 0.88 0.2 0 0.92 0.2 0 0.96 0.2 0 1 0.2 0 1.04 0.2 0 1.08 0.2 0 1.12 0.2 0 1.16 0.2 0 1.2 0.2 0 0 0.24 0 0.04 0.24 0 0.08 0.24 0 0.12 0.24 0 0.16 0.24 0 0.2 0.24 0 0.24 0.24 0 0.28 0.24 0 0.32 0.24 0 0.36 0.24 0 0.4 0.24 0 0.44 0.24 0 0.48 0.24 0 0.52 0.24 0 0.56 0.24 0 0.6 0.24 0 0.64 0.24 0 0.68 0.24 0 0.72 0.24 0 0.76 0.24 0 0.8 0.24 0 0.84 0.24 0 0.88 0.24 0 0.92 0.24 0 0.96 0.24 0 1 0.24 0 1.04 0.24 0 1.08 0.24 0 1.12 0.24 0 1.16 0.24 0 1.2 0.24 0 0 0.28 0 0.04 0.28 0 0.08 0.28 0 0.12 0.28 0 0.16 0.28 0 0.2 0.28 0 0.24 0.28 0 0.28 0.28 0 0.32 0.28 0 0.36 0.28 0 0.4 0.28 0 0.44 0.28 0 0.48 0.28 0 0.52 0.28 0 0.56 0.28 0 0.6 0.28 0 0.64 0.28 0 0.68 0.28 0 0.72 0.28 0 0.76 0.28 0 0.8 0.28 0 0.84 0.28 0 0.88 0.28 0 0.92 0.28 0 0.96 0.28 0 1 0.28 0 1.04 0.28 0 1.08 0.28 0 1.12 0.28 0 1.16 0.28 0 1.2 0.28 0 0 0.32 0 0.04 0.32 0 0.08 0.32 0 0.12 0.32 0 0.16 0.32 0 0.2 0.32 0 0.24 0.32 0 0.28 0.32 0 0.32 0.32 0 0.36 0.32 0 0.4 0.32 0 0.44 0.32 0 0.48 0.32 0 0.52 0.32 0 0.56 0.32 0 0.6 0.32 0 0.64 0.32 0 0.68 0.32 0 0.72 0.32 0 0.76 0.32 0 0.8 0.32 0 0.84 0.32 0 0.88 0.32 0 0.92 0.32 0 0.96 0.32 0 1 0.32 0 1.04 0.32 0 1.08 0.32 0 1.12 0.32 0 1.16 0.32 0 1.2 0.32 0 0 0.36 0 0.04 0.36 0 0.08 0.36 0 0.12 0.36 0 0.16 0.36 0 0.2 0.36 0 0.24 0.36 0 0.28 0.36 0 0.32 0.36 0 0.36 0.36 0 0.4 0.36 0 0.44 0.36 0 0.48 0.36 0 0.52 0.36 0 0.56 0.36 0 0.6 0.36 0 0.64 0.36 0 0.68 0.36 0 0.72 0.36 0 0.76 0.36 0 0.8 0.36 0 0.84 0.36 0 0.88 0.36 0 0.92 0.36 0 0.96 0.36 0 1 0.36 0 1.04 0.36 0 1.08 0.36 0 1.12 0.36 0 1.16 0.36 0 1.2 0.36 0 0 0.4 0 0.04 0.4 0 0.08 0.4 0 0.12 0.4 0 0.16 0.4 0 0.2 0.4 0 0.24 0.4 0 0.28 0.4 0 0.32 0.4 0 0.36 0.4 0 0.4 0.4 0 0.44 0.4 0 0.48 0.4 0 0.52 0.4 0 0.56 0.4 0 0.6 0.4 0 0.64 0.4 0 0.68 0.4 0 0.72 0.4 0 0.76 0.4 0 0.8 0.4 0 0.84 0.4 0 0.88 0.4 0 0.92 0.4 0 0.96 0.4 0 1 0.4 0 1.04 0.4 0 1.08 0.4 0 1.12 0.4 0 1.16 0.4 0 1.2 0.4 0 0 0.44 0 0.04 0.44 0 0.08 0.44 0 0.12 0.44 0 0.16 0.44 0 0.2 0.44 0 0.24 0.44 0 0.28 0.44 0 0.32 0.44 0 0.36 0.44 0 0.4 0.44 0 0.44 0.44 0 0.48 0.44 0 0.52 0.44 0 0.56 0.44 0 0.6 0.44 0 0.64 0.44 0 0.68 0.44 0 0.72 0.44 0 0.76 0.44 0 0.8 0.44 0 0.84 0.44 0 0.88 0.44 0 0.92 0.44 0 0.96 0.44 0 1 0.44 0 1.04 0.44 0 1.08 0.44 0 1.12 0.44 0 1.16 0.44 0 1.2 0.44 0 0 0.48 0 0.04 0.48 0 0.08 0.48 0 0.12 0.48 0 0.16 0.48 0 0.2 0.48 0 0.24 0.48 0 0.28 0.48 0 0.32 0.48 0 0.36 0.48 0 0.4 0.48 0 0.44 0.48 0 0.48 0.48 0 0.52 0.48 0 0.56 0.48 0 0.6 0.48 0 0.64 0.48 0 0.68 0.48 0 0.72 0.48 0 0.76 0.48 0 0.8 0.48 0 0.84 0.48 0 0.88 0.48 0 0.92 0.48 0 0.96 0.48 0 1 0.48 0 1.04 0.48 0 1.08 0.48 0 1.12 0.48 0 1.16 0.48 0 1.2 0.48 0 0 0.52 0 0.04 0.52 0 0.08 0.52 0 0.12 0.52 0 0.16 0.52 0 0.2 0.52 0 0.24 0.52 0 0.28 0.52 0 0.32 0.52 0 0.36 0.52 0 0.4 0.52 0 0.44 0.52 0 0.48 0.52 0 0.52 0.52 0 0.56 0.52 0 0.6 0.52 0 0.64 0.52 0 0.68 0.52 0 0.72 0.52 0 0.76 0.52 0 0.8 0.52 0 0.84 0.52 0 0.88 0.52 0 0.92 0.52 0 0.96 0.52 0 1 0.52 0 1.04 0.52 0 1.08 0.52 0 1.12 0.52 0 1.16 0.52 0 1.2 0.52 0 0 0.56 0 0.04 0.56 0 0.08 0.56 0 0.12 0.56 0 0.16 0.56 0 0.2 0.56 0 0.24 0.56 0 0.28 0.56 0 0.32 0.56 0 0.36 0.56 0 0.4 0.56 0 0.44 0.56 0 0.48 0.56 0 0.52 0.56 0 0.56 0.56 0 0.6 0.56 0 0.64 0.56 0 0.68 0.56 0 0.72 0.56 0 0.76 0.56 0 0.8 0.56 0 0.84 0.56 0 0.88 0.56 0 0.92 0.56 0 0.96 0.56 0 1 0.56 0 1.04 0.56 0 1.08 0.56 0 1.12 0.56 0 1.16 0.56 0 1.2 0.56 0 0 0.6 0 0.04 0.6 0 0.08 0.6 0 0.12 0.6 0 0.16 0.6 0 0.2 0.6 0 0.24 0.6 0 0.28 0.6 0 0.32 0.6 0 0.36 0.6 0 0.4 0.6 0 0.44 0.6 0 0.48 0.6 0 0.52 0.6 0 0.56 0.6 0 0.6 0.6 0 0.64 0.6 0 0.68 0.6 0 0.72 0.6 0 0.76 0.6 0 0.8 0.6 0 0.84 0.6 0 0.88 0.6 0 0.92 0.6 0 0.96 0.6 0 1 0.6 0 1.04 0.6 0 1.08 0.6 0 1.12 0.6 0 1.16 0.6 0 1.2 0.6 0 0 0.64 0 0.04 0.64 0 0.08 0.64 0 0.12 0.64 0 0.16 0.64 0 0.2 0.64 0 0.24 0.64 0 0.28 0.64 0 0.32 0.64 0 0.36 0.64 0 0.4 0.64 0 0.44 0.64 0 0.48 0.64 0 0.52 0.64 0 0.56 0.64 0 0.6 0.64 0 0.64 0.64 0 0.68 0.64 0 0.72 0.64 0 0.76 0.64 0 0.8 0.64 0 0.84 0.64 0 0.88 0.64 0 0.92 0.64 0 0.96 0.64 0 1 0.64 0 1.04 0.64 0 1.08 0.64 0 1.12 0.64 0 1.16 0.64 0 1.2 0.64 0 0 0.68 0 0.04 0.68 0 0.08 0.68 0 0.12 0.68 0 0.16 0.68 0 0.2 0.68 0 0.24 0.68 0 0.28 0.68 0 0.32 0.68 0 0.36 0.68 0 0.4 0.68 0 0.44 0.68 0 0.48 0.68 0 0.52 0.68 0 0.56 0.68 0 0.6 0.68 0 0.64 0.68 0 0.68 0.68 0 0.72 0.68 0 0.76 0.68 0 0.8 0.68 0 0.84 0.68 0 0.88 0.68 0 0.92 0.68 0 0.96 0.68 0 1 0.68 0 1.04 0.68 0 1.08 0.68 0 1.12 0.68 0 1.16 0.68 0 1.2 0.68 0 0 0.72 0 0.04 0.72 0 0.08 0.72 0 0.12 0.72 0 0.16 0.72 0 0.2 0.72 0 0.24 0.72 0 0.28 0.72 0 0.32 0.72 0 0.36 0.72 0 0.4 0.72 0 0.44 0.72 0 0.48 0.72 0 0.52 0.72 0 0.56 0.72 0 0.6 0.72 0 0.64 0.72 0 0.68 0.72 0 0.72 0.72 0 0.76 0.72 0 0.8 0.72 0 0.84 0.72 0 0.88 0.72 0 0.92 0.72 0 0.96 0.72 0 1 0.72 0 1.04 0.72 0 1.08 0.72 0 1.12 0.72 0 1.16 0.72 0 1.2 0.72 0 0 0.76 0 0.04 0.76 0 0.08 0.76 0 0.12 0.76 0 0.16 0.76 0 0.2 0.76 0 0.24 0.76 0 0.28 0.76 0 0.32 0.76 0 0.36 0.76 0 0.4 0.76 0 0.44 0.76 0 0.48 0.76 0 0.52 0.76 0 0.56 0.76 0 0.6 0.76 0 0.64 0.76 0 0.68 0.76 0 0.72 0.76 0 0.76 0.76 0 0.8 0.76 0 0.84 0.76 0 0.88 0.76 0 0.92 0.76 0 0.96 0.76 0 1 0.76 0 1.04 0.76 0 1.08 0.76 0 1.12 0.76 0 1.16 0.76 0 1.2 0.76 0 0 0.8 0 0.04 0.8 0 0.08 0.8 0 0.12 0.8 0 0.16 0.8 0 0.2 0.8 0 0.24 0.8 0 0.28 0.8 0 0.32 0.8 0 0.36 0.8 0 0.4 0.8 0 0.44 0.8 0 0.48 0.8 0 0.52 0.8 0 0.56 0.8 0 0.6 0.8 0 0.64 0.8 0 0.68 0.8 0 0.72 0.8 0 0.76 0.8 0 0.8 0.8 0 0.84 0.8 0 0.88 0.8 0 0.92 0.8 0 0.96 0.8 0 1 0.8 0 1.04 0.8 0 1.08 0.8 0 1.12 0.8 0 1.16 0.8 0 1.2 0.8 0 0 0.84 0 0.04 0.84 0 0.08 0.84 0 0.12 0.84 0 0.16 0.84 0 0.2 0.84 0 0.24 0.84 0 0.28 0.84 0 0.32 0.84 0 0.36 0.84 0 0.4 0.84 0 0.44 0.84 0 0.48 0.84 0 0.52 0.84 0 0.56 0.84 0 0.6 0.84 0 0.64 0.84 0 0.68 0.84 0 0.72 0.84 0 0.76 0.84 0 0.8 0.84 0 0.84 0.84 0 0.88 0.84 0 0.92 0.84 0 0.96 0.84 0 1 0.84 0 1.04 0.84 0 1.08 0.84 0 1.12 0.84 0 1.16 0.84 0 1.2 0.84 0 0 0.88 0 0.04 0.88 0 0.08 0.88 0 0.12 0.88 0 0.16 0.88 0 0.2 0.88 0 0.24 0.88 0 0.28 0.88 0 0.32 0.88 0 0.36 0.88 0 0.4 0.88 0 0.44 0.88 0 0.48 0.88 0 0.52 0.88 0 0.56 0.88 0 0.6 0.88 0 0.64 0.88 0 0.68 0.88 0 0.72 0.88 0 0.76 0.88 0 0.8 0.88 0 0.84 0.88 0 0.88 0.88 0 0.92 0.88 0 0.96 0.88 0 1 0.88 0 1.04 0.88 0 1.08 0.88 0 1.12 0.88 0 1.16 0.88 0 1.2 0.88 0 0 0.92 0 0.04 0.92 0 0.08 0.92 0 0.12 0.92 0 0.16 0.92 0 0.2 0.92 0 0.24 0.92 0 0.28 0.92 0 0.32 0.92 0 0.36 0.92 0 0.4 0.92 0 0.44 0.92 0 0.48 0.92 0 0.52 0.92 0 0.56 0.92 0 0.6 0.92 0 0.64 0.92 0 0.68 0.92 0 0.72 0.92 0 0.76 0.92 0 0.8 0.92 0 0.84 0.92 0 0.88 0.92 0 0.92 0.92 0 0.96 0.92 0 1 0.92 0 1.04 0.92 0 1.08 0.92 0 1.12 0.92 0 1.16 0.92 0 1.2 0.92 0 0 0.96 0 0.04 0.96 0 0.08 0.96 0 0.12 0.96 0 0.16 0.96 0 0.2 0.96 0 0.24 0.96 0 0.28 0.96 0 0.32 0.96 0 0.36 0.96 0 0.4 0.96 0 0.44 0.96 0 0.48 0.96 0 0.52 0.96 0 0.56 0.96 0 0.6 0.96 0 0.64 0.96 0 0.68 0.96 0 0.72 0.96 0 0.76 0.96 0 0.8 0.96 0 0.84 0.96 0 0.88 0.96 0 0.92 0.96 0 0.96 0.96 0 1 0.96 0 1.04 0.96 0 1.08 0.96 0 1.12 0.96 0 1.16 0.96 0 1.2 0.96 0 0 1 0 0.04 1 0 0.08 1 0 0.12 1 0 0.16 1 0 0.2 1 0 0.24 1 0 0.28 1 0 0.32 1 0 0.36 1 0 0.4 1 0 0.44 1 0 0.48 1 0 0.52 1 0 0.56 1 0 0.6 1 0 0.64 1 0 0.68 1 0 0.72 1 0 0.76 1 0 0.8 1 0 0.84 1 0 0.88 1 0 0.92 1 0 0.96 1 0 1 1 0 1.04 1 0 1.08 1 0 1.12 1 0 1.16 1 0 1.2 1 0 0 1.04 0 0.04 1.04 0 0.08 1.04 0 0.12 1.04 0 0.16 1.04 0 0.2 1.04 0 0.24 1.04 0 0.28 1.04 0 0.32 1.04 0 0.36 1.04 0 0.4 1.04 0 0.44 1.04 0 0.48 1.04 0 0.52 1.04 0 0.56 1.04 0 0.6 1.04 0 0.64 1.04 0 0.68 1.04 0 0.72 1.04 0 0.76 1.04 0 0.8 1.04 0 0.84 1.04 0 0.88 1.04 0 0.92 1.04 0 0.96 1.04 0 1 1.04 0 1.04 1.04 0 1.08 1.04 0 1.12 1.04 0 1.16 1.04 0 1.2 1.04 0 0 1.08 0 0.04 1.08 0 0.08 1.08 0 0.12 1.08 0 0.16 1.08 0 0.2 1.08 0 0.24 1.08 0 0.28 1.08 0 0.32 1.08 0 0.36 1.08 0 0.4 1.08 0 0.44 1.08 0 0.48 1.08 0 0.52 1.08 0 0.56 1.08 0 0.6 1.08 0 0.64 1.08 0 0.68 1.08 0 0.72 1.08 0 0.76 1.08 0 0.8 1.08 0 0.84 1.08 0 0.88 1.08 0 0.92 1.08 0 0.96 1.08 0 1 1.08 0 1.04 1.08 0 1.08 1.08 0 1.12 1.08 0 1.16 1.08 0 1.2 1.08 0 0 1.12 0 
[...]
			<CellData Scalars="Density">
				<DataArray Name="Density" type="Float32" format="ascii">
 0.00436595 0.00468663 0.00546496 0.00686667 0.00898142 0.0118661 0.0156143 0.0202792 0.0258743 0.0322949 0.0394832 0.0477158 0.0578835 0.0710751 0.0885337 0.111452 0.141923 0.182336 0.235062 0.30283 0.388456 0.494506 0.62302 0.774994 0.949781 1.14404 1.35063 1.55642 1.74014 1.86254 0.0046874 0.00489986 0.00548399 0.00666755 0.00856639 0.0113536 0.0150881 0.0198766 0.0256887 0.0324822 0.0402996 0.0493277 0.060183 0.0739672 0.0925281 0.11707 0.149685 0.192824 0.249139 0.321414 0.412239 0.523863 0.657934 0.815052 0.99416 1.19159 1.39997 1.60503 1.78193 1.884 0.00546955 0.00548846 0.00575451 0.00654877 0.00801024 0.0102693 0.013594 0.0180037 0.0235618 0.0301977 0.0379064 0.0468368 0.057444 0.0703994 0.0874099 0.110214 0.14052 0.180642 0.233371 0.301774 0.388748 0.497127 0.629253 0.786442 0.968389 1.17166 1.38886 1.60497 1.79679 1.92017 0.00687783 0.00668005 0.00655656 0.00700521 0.00803223 0.0098781 0.0126721 0.0166889 0.0218664 0.028226 0.0358103 0.0446821 0.0551068 0.0678097 0.0843324 0.106585 0.136277 0.175608 0.227515 0.295272 0.382138 0.491166 0.625013 0.785675 0.972633 1.1812 1.40195 1.62007 1.81386 1.92875 0.00899896 0.00858905 0.00802737 0.00804462 0.0086533 0.00996029 0.0123196 0.0158219 0.0206973 0.0269273 0.0345406 0.0435813 0.0542346 0.0671938 0.0837252 0.105665 0.135503 0.175035 0.227384 0.295691 0.383426 0.493459 0.628344 0.789861 0.977694 1.18762 1.41096 1.63288 1.82853 1.94404 0.0118905 0.0113832 0.0103 0.00990323 0.00997313 0.0106888 0.0123189 0.015302 0.0197113 0.0257426 0.0333876 0.0427103 0.0537786 0.0670893 0.0834343 0.104824 0.134116 0.173026 0.22445 0.291767 0.378569 0.487874 0.622593 0.784817 0.974392 1.18814 1.4178 1.64875 1.85663 1.98411 0.0156447 0.0151251 0.0136329 0.0127081 0.0123417 0.0123334 0.0132034 0.0152638 0.0189748 0.0244796 0.0319191 0.0412422 0.0526353 0.0662136 0.0826912 0.10363 0.132094 0.170593 0.221518 0.288458 0.375272 0.485585 0.621944 0.786508 0.980407 1.20135 1.44163 1.68536 1.9063 2.03369 0.0203147 0.0199187 0.0180449 0.0167232 0.0158506 0.0153273 0.015285 0.0164435 0.0191271 0.0238809 0.0307475 0.0399206 0.0514356 0.0652176 0.0817365 0.102177 0.129267 0.166628 0.21613 0.281787 0.36726 0.476564 0.613687 0.781224 0.980049 1.20977 1.46398 1.7264 1.96805 2.11024 0.0259103 0.0257343 0.0235988 0.0218987 0.0207228 0.0197366 0.0190069 0.0191358 0.0206068 0.0242402 0.0303829 0.0392007 0.0508282 0.0648411 0.0815382 0.101885 0.127582 0.163858 0.21238 0.276816 0.361886 0.471158 0.609109 0.780345 0.986777 1.22829 1.49897 1.78353 2.04699 2.19583 0.0323274 0.0325252 0.0302298 0.0282536 0.0269438 0.0257619 0.0245109 0.0238909 0.0242503 0.0263126 0.0312953 0.0395353 0.0509692 0.0652156 0.0822896 0.102485 0.127514 0.161988 0.20958 0.272474 0.356091 0.465559 0.604762 0.778695 0.992267 1.24681 1.53649 1.84597 2.13726 2.30313 0.0395085 0.0403374 0.0379348 0.0358248 0.034549 0.0333936 0.0319383 0.0307497 0.0303803 0.0313023 0.0343374 0.0412855 0.0524682 0.0671618 0.084559 0.105014 0.129687 0.161929 0.208238 0.270197 0.35263 0.461301 0.602416 0.780573 1.00113 1.26898 1.58032 1.91761 2.23939 2.42228 0.0477313 0.0493614 0.0468524 0.0446866 0.0435806 0.0427032 0.0412433 0.0398992 0.0391869 0.0395166 0.0412685 0.0459631 0.0554357 0.0704788 0.0890279 0.109838 0.134391 0.164803 0.208834 0.269916 0.351664 0.459797 0.601246 0.783444 1.01231 1.29313 1.6257 1.99311 2.34899 2.56131 0.057896 0.0602089 0.0574492 0.0551044 0.0542169 0.0537601 0.0526157 0.0513927 0.0507787 0.0509352 0.0524308 0.0554342 0.0626361 0.075537 0.0951714 0.117585 0.14247 0.172034 0.213265 0.272446 0.352765 0.460988 0.60344 0.788039 1.02464 1.3202 1.67461 2.07555 2.46818 2.7177 0.0710883 0.0739911 0.0704018 0.0677934 0.0671613 0.0670533 0.0661792 0.0651509 0.0647616 0.0651298 0.0670797 0.0704256 0.0755149 0.0862655 0.103958 0.1272 0.154435 0.183966 0.221583 0.278623 0.357462 0.464387 0.60826 0.795795 1.03785 1.34747 1.72579 2.16288 2.5981 2.89311 0.088543 0.0925475 0.0874085 0.0843043 0.0836933 0.0833721 0.0826404 0.0816789 0.0814451 0.0821705 0.0844305 0.0889079 0.0950768 0.103922 0.119211 0.141365 0.1691 0.200881 0.236772 0.289779 0.366894 0.472071 0.615419 0.806152 1.0542 1.37515 1.77904 2.25714 2.74364 3.0885 0.111457 0.117083 0.110207 0.10654 0.105622 0.104727 0.103557 0.102128 0.101788 0.102335 0.104848 0.109654 0.117404 0.127066 0.141264 0.16217 0.188878 0.221214 0.258768 0.307548 0.381102 0.483951 0.627117 0.818661 1.07273 1.40503 1.83105 2.35313 2.90288 3.30746 0.141923 0.149692 0.1405 0.136215 0.13545 0.13398 0.131934 0.129125 0.127484 0.12737 0.129487 0.134186 0.142259 0.154228 0.16892 0.188733 0.215779 0.246904 0.283947 0.330684 0.402293 0.501863 0.643093 0.83518 1.09289 1.43609 1.88377 2.45275 3.07547 3.55343 0.182319 0.19282 0.180605 0.175526 0.174968 0.172894 0.170469 0.166452 0.163681 0.161829 0.161759 0.164569 0.171775 0.183715 0.200664 0.221036 0.246784 0.278315 0.314117 0.357112 0.424379 0.524815 0.666564 0.859522 1.11952 1.47095 1.9394 2.55549 3.25894 3.83136 0.235019 0.249113 0.233303 0.227419 0.2273 0.224237 0.22138 0.216022 0.212169 0.209392 0.208049 0.208634 0.213062 0.221361 0.236495 0.258517 0.283763 0.313971 0.34825 0.387574 0.446048 0.541024 0.685127 0.883594 1.15113 1.50985 1.99661 2.65858 3.45333 4.14499 0.302751 0.321358 0.301671 0.29513 0.295627 0.291551 0.288222 0.281655 0.276583 0.272306 0.269998 0.269629 0.272248 0.278436 0.289516 0.307379 0.33055 0.35704 0.387603 0.424846 0.473835 0.557322 0.694717 0.902595 1.18327 1.55635 2.06598 2.76999 3.6594 4.49083 0.388328 0.412135 0.388608 0.381925 0.383261 0.378308 0.375026 0.367064 0.361619 0.355845 0.352531 0.351355 0.352439 0.357347 0.366655 0.380954 0.402087 0.424215 0.445819 0.474356 0.512394 0.580316 0.703035 0.90385 1.19638 1.59762 2.14044 2.88924 3.88369 4.87823 0.494324 0.523702 0.496949 0.490911 0.493267 0.487554 0.485285 0.476276 0.470953 0.465247 0.461106 0.459746 0.460585 0.464131 0.471946 0.483743 0.501688 0.524705 0.540894 0.55768 0.579991 0.623104 0.71623 0.894757 1.1935 1.61751 2.20517 3.01787 4.14462 5.31603 0.622776 0.657703 0.629027 0.624703 0.628083 0.622206 0.621654 0.613255 0.608802 0.604613 0.60197 0.601077 0.603402 0.607872 0.615115 0.627045 0.642997 0.666241 0.685454 0.69474 0.702716 0.715863 0.764244 0.901984 1.16611 1.60587 2.23608 3.13396 4.42539 5.80048 0.77469 0.814757 0.786169 0.785335 0.789565 0.784366 0.786221 0.780849 0.779821 0.778577 0.780459 0.782934 0.787901 0.795951 0.805603 0.818458 0.83506 0.859553 0.883763 0.902279 0.904452 0.894343 0.902244 0.96258 1.16863 1.56065 2.2276 3.21061 4.67985 6.3473 0.949419 0.993815 0.968065 0.972251 0.977347 0.973883 0.980014 0.979804 0.986305 0.991714 1.00112 1.01226 1.02413 1.03807 1.05424 1.07268 1.09262 1.11957 1.15107 1.18324 1.19625 1.19363 1.16632 1.16874 1.24704 1.56535 2.18466 3.22028 4.85414 6.89583 1.14362 1.19119 1.17128 1.18079 1.18727 1.18773 1.20081 1.20951 1.22819 1.2464 1.26849 1.29318 1.32026 1.34714 1.37477 1.40505 1.43592 1.47058 1.50953 1.55637 1.59716 1.61743 1.60466 1.56041 1.56471 1.68861 2.18877 3.2197 5.0304 7.36223 1.35018 1.39954 1.38841 1.40147 1.41052 1.41755 1.4412 1.46355 1.49864 1.53657 1.58005 1.62533 1.67489 1.72635 1.77902 1.83098 1.88362 1.9393 1.99646 2.06595 2.14035 2.20524 2.23605 2.22781 2.18517 2.18879 2.41757 3.23488 5.06852 7.60497 1.5559 1.60454 1.60447 1.61959 1.63233 1.64848 1.68496 1.72615 1.78293 1.84595 1.91756 1.99263 2.07546 2.16364 2.25736 2.35335 2.45296 2.55561 2.6587 2.77009 2.88921 3.01772 3.13405 3.21018 3.22043 3.21971 3.23473 3.56231 5.23425 7.86514 1.73956 1.78139 1.7962 1.81331 1.82793 1.85652 1.90601 1.96781 2.04605 2.13708 2.23968 2.34829 2.46753 2.59864 2.74356 2.90241 3.07604 3.25953 3.45311 3.66003 3.88459 4.14488 4.42553 4.68044 4.8545 5.03061 5.06867 5.23462 5.62373 8.14242 1.8619 1.88347 1.91949 1.92828 1.94341 1.98386 2.03332 2.11014 2.19509 2.30264 2.42234 2.56007 2.71701 2.89345 3.08754 3.30608 3.55532 3.83296 4.1432 4.49277 4.88079 5.31413 5.80259 6.35112 6.89193 7.36444 7.60787 7.86227 8.13876 6.53763
				</DataArray>
				<DataArray Name="Energy" type="Float32" format="ascii">
 862.516 803.301 688.438 546.994 417.4 314.387 237.179 180.067 137.707 105.977 82.0153 63.8852 50.1582 39.713 31.6342 25.2581 20.2088 16.2007 13.0173 10.5046 8.53418 6.99624 5.79819 4.86365 4.13179 3.55547 3.09957 2.7404 2.46582 2.29027 803.157 768.108 685.482 563.255 436.857 328.664 245.117 183.682 138.688 105.579 81.067 62.7416 48.9376 38.4367 30.4074 24.1065 19.1464 15.246 12.1891 9.8062 7.95689 6.52688 5.42243 4.56779 3.90329 3.38376 2.97679 2.6593 2.41566 2.24237 687.85 684.93 652.95 572.241 467.159 362.158 272.24 202.624 151.593 114.563 87.4562 67.3886 52.4017 41.0626 32.4733 25.8355 20.5956 16.4474 13.169 10.5903 8.57093 6.99704 5.77295 4.81989 4.076 3.49371 3.03818 2.68327 2.41385 2.24231 546.118 562.176 571.57 534.562 464.271 376.599 290.777 218.925 164.018 123.728 94.2432 72.4021 56.0021 43.5876 34.2204 27.0596 21.4573 17.0414 13.5684 10.8505 8.73448 7.09434 5.82688 4.84883 4.09241 3.50541 3.04854 2.69454 2.4303 2.25117 416.581 435.706 466.145 463.565 430.373 371.798 299.53 230.364 173.942 131.224 99.636 76.1952 58.6051 45.3326 35.322 27.7313 21.8988 17.3324 13.769 10.9928 8.83967 7.17374 5.88873 4.89846 4.13363 3.5406 3.07951 2.72222 2.4531 2.2692 313.756 327.794 361.09 375.65 371.34 345.865 297.994 239.119 183.728 138.942 105.131 79.9944 61.1694 47.0802 36.4668 28.5198 22.5048 17.8191 14.1629 11.3103 9.09427 7.37423 6.04381 5.0163 4.22151 3.60557 3.12594 2.75288 2.47139 2.28186 236.719 244.512 271.452 290.009 298.949 297.636 278.093 239.254 191.987 147.824 112.298 85.2628 65.0068 49.745 38.2917 29.7258 23.3346 18.427 14.6041 11.6314 9.32432 7.54086 6.16358 5.10066 4.27908 3.64218 3.14677 2.76248 2.47515 2.27692 179.752 183.282 202.148 218.441 229.948 238.704 238.917 222.738 191.389 153.378 118.59 90.6614 69.2426 52.9108 40.5907 31.3447 24.4841 19.3095 15.2783 12.1517 9.72107 7.83536 6.37839 5.25172 4.37953 3.70365 3.17937 2.77399 2.47186 2.26804 137.487 138.423 151.309 163.75 173.71 183.464 191.652 191.292 178.717 152.78 122.311 94.9057 72.9655 55.8974 42.8259 32.9628 25.589 20.14 15.9252 12.643 10.0969 8.11378 6.57489 5.38528 4.46427 3.75011 3.19755 2.77438 2.46325 2.25311 105.823 105.396 114.387 123.587 131.104 138.819 147.615 153.292 152.725 142.172 121.264 96.9219 75.6732 58.4311 44.983 34.6302 26.8113 21.0405 16.6506 13.2095 10.5269 8.43934 6.81192 5.54723 4.56848 3.81096 3.2259 2.78019 2.45565 2.24028 81.9077 80.9404 87.3492 94.1575 99.5757 105.078 112.21 118.573 122.284 121.24 112.303 95.5352 76.2658 59.8248 46.4687 35.9753 27.9109 21.8457 17.3067 13.7527 10.9574 8.76488 7.05379 5.71737 4.67775 3.87376 3.25581 2.78776 2.45102 2.22993 63.8112 62.6571 67.3169 72.3465 76.1613 79.9686 85.241 90.6816 94.9301 96.9369 95.5739 87.8699 74.9194 59.8762 47.1494 36.8702 28.7696 22.5416 17.8916 14.266 11.3887 9.10717 7.30902 5.90123 4.80221 3.94843 3.29384 2.8014 2.44974 2.224 50.1103 48.8806 52.3545 55.9698 58.5821 61.158 65.0037 69.2817 73.0024 75.7102 76.2885 74.9205 68.3085 58.5041 47.0365 37.0794 29.2503 23.0576 18.3444 14.6988 11.775 9.4368 7.57013 6.09178 4.93451 4.03286 3.33938 2.82098 2.45285 2.22218 39.6832 38.4 41.0337 43.5667 45.3175 47.076 49.7422 52.9376 55.9384 58.4746 59.8648 59.8881 58.5125 53.0113 45.5834 36.8938 29.2248 23.2833 18.5966 15.0048 12.0984 9.73415 7.8262 6.29171 5.07702 4.1282 3.3955 2.84778 2.46077 2.22341 31.6148 30.3837 32.4558 34.2077 35.315 36.4698 38.2935 40.6014 42.853 45.0259 46.508 47.1851 47.0617 45.5954 41.2072 35.4832 28.9302 23.1128 18.635 15.1395 12.3201 9.98074 8.05712 6.48951 5.22872 4.23241 3.46117 2.88144 2.47254 2.22438 25.2455 24.0913 25.8252 27.0522 27.7255 28.5206 29.7309 31.3538 32.9791 34.6571 36.0043 36.8983 37.1118 36.9102 35.491 32.0305 27.6118 22.7094 18.3817 15.0632 12.3879 10.1365 8.24995 6.67208 5.38248 4.34645 3.53461 2.9202 2.48772 2.22664 20.2009 19.1373 20.5896 21.4547 21.8969 22.5049 23.3326 24.4856 25.6021 26.8303 27.9296 28.7884 29.2707 29.2423 28.9459 27.6169 24.9155 21.5136 17.8625 14.7107 12.2731 10.1711 8.36879 6.82248 5.52562 4.4629 3.61477 2.9652 2.50674 2.23167 16.1954 15.2406 16.4435 17.0404 17.332 17.825 18.431 19.308 20.146 21.0528 21.8602 22.553 23.0715 23.2948 23.1228 22.7171 21.5176 19.3329 16.776 14.0874 11.8806 10.0431 8.39637 6.92553 5.6493 4.57623 3.70039 3.01549 2.52733 2.23694 13.0138 12.1859 13.1664 13.5686 13.768 14.1659 14.6093 15.2811 15.9304 16.6557 17.315 17.901 18.3547 18.6048 18.6432 18.3918 17.8685 16.7771 14.9965 13.0665 11.1964 9.6275 8.23746 6.92833 5.72897 4.67346 3.78398 3.06772 2.54809 2.24082 10.5023 9.8044 10.5886 10.8509 10.993 11.3135 11.6334 12.1538 12.648 13.2137 13.756 14.2711 14.7056 15.0106 15.1451 15.0665 14.7129 14.0853 13.0651 11.6563 10.2403 8.97971 7.85526 6.78538 5.72957 4.73962 3.862 3.12245 2.57077 2.24671 8.53259 7.95574 8.5697 8.73451 8.83871 9.0964 9.32636 9.72221 10.0998 10.53 10.9606 11.3908 11.7784 12.1031 12.3236 12.3925 12.277 11.8804 11.1954 10.2411 9.07798 8.09472 7.24695 6.43521 5.59115 4.73379 3.91151 3.17258 2.59546 2.25272 6.99511 6.52608 6.99616 7.09434 7.17304 7.3753 7.54211 7.83609 8.11591 8.44012 8.76691 9.11026 9.43742 9.73652 9.98385 10.138 10.1718 10.0431 9.62827 8.98017 8.09313 7.12522 6.41904 5.87224 5.28353 4.61575 3.90347 3.2098 2.62199 2.25641 5.7973 5.42182 5.7722 5.82672 5.88809 6.04421 6.16438 6.37846 6.57622 6.81257 7.05355 7.31081 7.57207 7.82638 8.05899 8.25087 8.36932 8.39716 8.23807 7.85232 7.24669 6.41835 5.64557 5.14096 4.77566 4.34156 3.79627 3.20615 2.63863 2.25877 4.8629 4.56728 4.81925 4.84861 4.89798 5.01627 5.10103 5.25172 5.38545 5.54777 5.71771 5.90077 6.09254 6.29303 6.48963 6.67251 6.82261 6.92601 6.92796 6.78413 6.43696 5.87181 5.14062 4.51155 4.14429 3.89689 3.56368 3.12759 2.62074 2.25552 4.1311 3.90284 4.07542 4.09211 4.13321 4.22124 4.27895 4.3795 4.46419 4.56793 4.67818 4.80229 4.93363 5.0775 5.22936 5.383 5.52535 5.64972 5.72873 5.72871 5.58989 5.28282 4.77534 4.14415 3.6269 3.36408 3.19552 2.93477 2.53527 2.22903 3.55482 3.38332 3.49319 3.50508 3.54027 3.60528 3.64169 3.70326 3.75026 3.81052 3.87316 3.94834 4.03275 4.12739 4.23191 4.34619 4.46258 4.57621 4.6732 4.73933 4.7334 4.61552 4.34027 3.89578 3.36295 2.94179 2.74812 2.63146 2.38757 2.16595 3.09898 2.97636 3.03772 3.04817 3.07917 3.12565 3.14622 3.17859 3.19738 3.22589 3.25518 3.29307 3.33927 3.39535 3.46089 3.53414 3.61434 3.70017 3.78368 3.86189 3.91161 3.90351 3.79608 3.56337 3.19519 2.74791 2.40878 2.26596 2.15285 2.05018 2.73983 2.65886 2.68289 2.69417 2.72188 2.75239 2.76187 2.77324 2.77413 2.78005 2.78699 2.80083 2.82066 2.84743 2.88118 2.92024 2.96494 3.01496 3.06738 3.12223 3.17239 3.20967 3.20591 3.12731 2.93438 2.63085 2.26605 1.9925 1.89412 1.88858 2.46531 2.4152 2.4135 2.42988 2.45279 2.47086 2.47458 2.47105 2.46309 2.45541 2.45011 2.44958 2.45264 2.46011 2.47247 2.48808 2.50622 2.52651 2.54813 2.57049 2.59501 2.62216 2.63849 2.6202 2.53504 2.38714 2.15265 1.89395 1.73516 1.66404 2.28978 2.24189 2.24194 2.25078 2.26891 2.28122 2.2764 2.26736 2.25328 2.23991 2.22879 2.22407 2.22204 2.22249 2.22465 2.22725 2.23064 2.23617 2.24172 2.24604 2.25214 2.25743 2.25832 2.25457 2.22965 2.16547 2.04948 1.88857 1.66383 1.3259
				</DataArray>
				<DataArray Name="F1" type="Float32" format="ascii">
 1 1 1 1 1 1 1 1 1 1 1 1 1 1 1 1 1 1 1 1 1 1 1 1 1 1 1 1 1 1 1 1 1 1 1 1 1 1 1 1 1 1 1 1 1 1 1 1 1 1 1 1 1 1 1 1 1 1 1 1 1 1 1 1 1 1 1 1 1 1 1 1 1 1 1 1 1 1 1 1 1 1 1 1 1 1 1 1 1 1 1 1 1 1 1 1 1 1 1 1 1 1 1 1 1 1 1 1 1 1 1 1 1 1 1 1 1 1 1 1 1 1 1 1 1 1 1 1 1 1 1 1 1 1 1 1 1 1 1 1 1 1 1 1 1 1 1 1 1 1 1 1 1 1 1 1 1 1 1 1 1 1 1 1 1 1 1 1 1 1 1 1 1 1 1 1 1 1 1 1 1 1 1 1 1 1 1 1 1 1 1 1 1 1 1 1 1 1 1 1 1 1 1 1 1 1 1 1 1 1 1 1 1 1 1 1 1 1 1 1 1 1 1 1 1 1 1 1 1 1 1 1 1 1 1 1 1 1 1 1 1 1 1 1 1 1 1 1 1 1 1 1 1 1 1 1 1 1 1 1 1 1 1 1 1 1 1 1 1 1 1 1 1 1 1 1 1 1 1 1 1 1 1 1 1 1 1 1 1 1 1 1 1 1 1 1 1 1 1 1 1 1 1 1 1 1 1 1 1 1 1 1 1 1 1 1 1 1 1 1 1 1 1 1 1 1 1 1 1 1 1 1 1 1 1 1 1 1 1 1 1 1 1 1 1 1 1 1 1 1 1 1 1 1 1 1 1 1 1 1 1 1 1 1 1 1 1 1 1 1 1 1 1 1 1 1 1 1 1 1 1 1 1 1 1 1 1 1 1 1 1 1 1 1 1 1 1 1 1 1 1 1 1 1 1 1 1 1 1 1 1 1 1 1 1 1 1 1 1 1 1 1 1 1 1 1 1 1 1 1 1 1 1 1 1 1 1 1 1 1 1 1 1 1 1 1 1 1 1 1 1 1 1 1 1 1 1 1 1 1 1 1 1 1 1 1 1 1 1 1 1 1 1 1 1 1 1 1 1 1 1 1 1 1 1 1 1 1 1 1 1 1 1 1 1 1 1 1 1 1 1 1 1 1 1 1 1 1 1 1 1 1 1 1 1 1 1 1 1 1 1 1 1 1 1 1 1 1 1 1 1 1 1 1 1 1 1 1 1 1 1 1 1 1 1 1 1 1 1 1 1 1 1 1 1 1 1 1 1 1 1 1 1 1 1 1 1 1 1 1 1 1 1 1 1 1 1 1 1 1 1 1 1 1 1 1 1 1 1 1 1 1 1 1 1 1 1 1 1 1 1 1 1 1 1 1 1 1 1 1 1 1 1 1 1 1 1 1 1 1 1 1 1 1 1 1 1 1 1 1 1 1 1 1 1 1 1 1 1 1 1 1 1 1 1 1 1 1 1 1 1 1 1 1 1 1 1 1 1 1 1 1 1 1 1 1 1 1 1 1 1 1 1 1 1 1 1 1 1 1 1 1 1 1 1 1 1 1 1 1 1 1 1 1 1 1 1 1 1 1 1 1 1 1 1 1 1 1 1 1 1 1 1 1 1 1 1 1 1 1 1 1 1 1 1 1 1 1 1 1 1 1 1 1 1 1 1 1 1 1 1 1 1 1 1 1 1 1 1 1 1 1 1 1 1 1 1 1 1 1 1 1 1 1 1 1 1 1 1 1 1 1 1 1 1 1 1 1 1 1 1 1 1 1 1 1 1 1 1 1 1 1 1 1 1 1 1 1 1 1 1 1 1 1 1 1 1 1 1 1 1 1 1 1 1 1 1 1 1 1 1 1 1 1 1 1 1 1 1 1 1 1 1 1 1 1 1 1 1 1 1 1 1 1 1 1 1 1 1 1 1 1 1 1 1 1 1 1 1 1 1 1 1 1 1 1 1 1 1 1 1 1 1 1 1 1 1 1 1 1 1 1 1 1 1 1 1 1 1 1 1 1 1 1 1 1 1 1 1 1
				</DataArray>
				<DataArray Name="F2" type="Float32" format="ascii">
 0 0 0 0 0 0 0 0 0 0 0 0 0 0 0 0 0 0 0 0 0 0 0 0 0 0 0 0 0 0 0 0 0 0 0 0 0 0 0 0 0 0 0 0 0 0 0 0 0 0 0 0 0 0 0 0 0 0 0 0 0 0 0 0 0 0 0 0 0 0 0 0 0 0 0 0 0 0 0 0 0 0 0 0 0 0 0 0 0 0 0 0 0 0 0 0 0 0 0 0 0 0 0 0 0 0 0 0 0 0 0 0 0 0 0 0 0 0 0 0 0 0 0 0 0 0 0 0 0 0 0 0 0 0 0 0 0 0 0 0 0 0 0 0 0 0 0 0 0 0 0 0 0 0 0 0 0 0 0 0 0 0 0 0 0 0 0 0 0 0 0 0 0 0 0 0 0 0 0 0 0 0 0 0 0 0 0 0 0 0 0 0 0 0 0 0 0 0 0 0 0 0 0 0 0 0 0 0 0 0 0 0 0 0 0 0 0 0 0 0 0 0 0 0 0 0 0 0 0 0 0 0 0 0 0 0 0 0 0 0 0 0 0 0 0 0 0 0 0 0 0 0 0 0 0 0 0 0 0 0 0 0 0 0 0 0 0 0 0 0 0 0 0 0 0 0 0 0 0 0 0 0 0 0 0 0 0 0 0 0 0 0 0 0 0 0 0 0 0 0 0 0 0 0 0 0 0 0 0 0 0 0 0 0 0 0 0 0 0 0 0 0 0 0 0 0 0 0 0 0 0 0 0 0 0 0 0 0 0 0 0 0 0 0 0 0 0 0 0 0 0 0 0 0 0 0 0 0 0 0 0 0 0 0 0 0 0 0 0 0 0 0 0 0 0 0 0 0 0 0 0 0 0 0 0 0 0 0 0 0 0 0 0 0 0 0 0 0 0 0 0 0 0 0 0 0 0 0 0 0 0 0 0 0 0 0 0 0 0 0 0 0 0 0 0 0 0 0 0 0 0 0 0 0 0 0 0 0 0 0 0 0 0 0 0 0 0 0 0 0 0 0 0 0 0 0 0 0 0 0 0 0 0 0 0 0 0 0 0 0 0 0 0 0 0 0 0 0 0 0 0 0 0 0 0 0 0 0 0 0 0 0 0 0 0 0 0 0 0 0 0 0 0 0 0 0 0 0 0 0 0 0 0 0 0 0 0 0 0 0 0 0 0 0 0 0 0 0 0 0 0 0 0 0 0 0 0 0 0 0 0 0 0 0 0 0 0 0 0 0 0 0 0 0 0 0 0 0 0 0 0 0 0 0 0 0 0 0 0 0 0 0 0 0 0 0 0 0 0 0 0 0 0 0 0 0 0 0 0 0 0 0 0 0 0 0 0 0 0 0 0 0 0 0 0 0 0 0 0 0 0 0 0 0 0 0 0 0 0 0 0 0 0 0 0 0 0 0 0 0 0 0 0 0 0 0 0 0 0 0 0 0 0 0 0 0 0 0 0 0 0 0 0 0 0 0 0 0 0 0 0 0 0 0 0 0 0 0 0 0 0 0 0 0 0 0 0 0 0 0 0 0 0 0 0 0 0 0 0 0 0 0 0 0 0 0 0 0 0 0 0 0 0 0 0 0 0 0 0 0 0 0 0 0 0 0 0 0 0 0 0 0 0 0 0 0 0 0 0 0 0 0 0 0 0 0 0 0 0 0 0 0 0 0 0 0 0 0 0 0 0 0 0 0 0 0 0 0 0 0 0 0 0 0 0 0 0 0 0 0 0 0 0 0 0 0 0 0 0 0 0 0 0 0 0 0 0 0 0 0 0 0 0 0 0 0 0 0 0 0 0 0 0 0 0 0 0 0 0 0 0 0 0 0 0 0 0 0 0 0 0 0 0 0 0 0 0 0 0 0 0 0 0 0 0 0 0 0 0 0 0 0 0 0 0 0 0 0 0 0 0 0 0 0 0 0 0 0 0 0 0 0 0 0 0 0 0 0 0 0 0 0 0 0 0 0 0 0 0 0 0 0 0 0 0 0 0 0 0 0 0 0 0 0 0 0 0 0 0 0
				</DataArray>
				<DataArray Name="F3" type="Float32" format="ascii">