<?xml version="1.0"?>
<VTKFile type="PolyData">
	<PolyData>
		<Piece NumberOfPoints="961" NumberOfPolys="900">
			<Points>
				<DataArray type="Float32" NumberOfComponents="3" format="ascii">
 0 0 0 0.04 0 0 0.08 0 0 0.12 0 0 0.16 0 0 0.2 0 0 0.24 0 0 0.28 0 0 0.32 0 0 0.36 0 0 0.4 0 0 0.44 0 0 0.48 0 0 0.52 0 0 0.56 0 0 0.6 0 0 0.64 0 0 0.68 0 0 0.72 0 0 0.76 0 0 0.8 0 0 0.84 0 0 0.88 0 0 0.92 0 0 0.96 0 0 1 0 0 1.04 0 0 1.08 0 0 1.12 0 0 1.16 0 0 1.2 0 0 0 0.04 0 0.04 0.04 0 0.08 0.04 0 0.12 0.04 0 0.16 0.04 0 0.2 0.04 0 0.24 0.04 0 0.28 0.04 0 0.32 0.04 0 0.36 0.04 0 0.4 0.04 0 0.44 0.04 0 0.48 0.04 0 0.52 0.04 0 0.56 0.04 0 0.6 0.04 0 0.64 0.04 0 0.68 0.04 0 0.72 0.04 0 0.76 0.04 0 0.8 0.04 0 0.84 0.04 0 0.88 0.04 0 0.92 0.04 0 0.96 0.04 0 1 0.04 0 1.04 0.04 0 1.08 0.04 0 1.12 0.04 0 1.16 0.04 0 1.2 0.04 0 0 0.08 0 0.04 0.08 0 0.08 0.08 0 0.12 0.08 0 0.16 0.08 0 0.2 0.08 0 0.24 0.08 0 0.28 0.08 0 0.32 0.08 0 0.36 0.08 0 0.4 0.08 0 0.44 0.08 0 0.48 0.08 0 0.52 0.08 0 0.56 0.08 0 0.6 0.08 0 0.64 0.08 0 0.68 0.08 0 0.72 0.08 0 0.76 0.08 0 0.8 0.08 0 0.84 0.08 0 0.88 0.08 0 0.92 0.08 0 0.96 0.08 0 1 0.08 0 1.04 0.08 0 1.08 0.08 0 1.12 0.08 0 1.16 0.08 0 1.2 0.08 0 0 0.12 0 0.04 0.12 0 0.08 0.12 0 0.12 0.12 0 0.16 0.12 0 0.2 0.12 0 0.24 0.12 0 0.28 0.12 0 0.32 0.12 0 0.36 0.12 0 0.4 0.12 0 0.44 0.12 0 0.48 0.12 0 0.52 0.12 0 0.56 0.12 0 0.6 0.12 0 0.64 0.12 0 0.68 0.12 0 0.72 0.12 0 0.76 0.12 0 0.8 0.12 0 0.84 0.12 0 0.88 0.12 0 0.92 0.12 0 0.96 0.12 0 1 0.12 0 1.04 0.12 0 1.08 0.12 0 1.12 0.12 0 1.16 0.12 0 1.2 0.12 0 0 0.16 0 0.04 0.16 0 0.08 0.16 0 0.12 0.16 0 0.16 0.16 0 0.2 0.16 0 0.24 0.16 0 0.28 0.16 0 0.32 0.16 0 0.36 0.16 0 0.4 0.16 0 0.44 0.16 0 0.48 0.16 0 0.52 0.16 0 0.56 0.16 0 0.6 0.16 0 0.64 0.16 0 0.68 0.16 0 0.72 0.16 0 0.76 0.16 0 0.8 0.16 0 0.84 0.16 0 0.88 0.16 0 0.92 0.16 0 0.96 0.16 0 1 0.16 0 1.04 0.16 0 1.08 0.16 0 1.12 0.16 0 1.16 0.16 0 1.2 0.16 0 0 0.2 0 0.04 0.2 0 0.08 0.2 0 0.12 0.2 0 0.16 0.2 0 0.2 0.2 0 0.24 0.2 0 0.28 0.2 0 0.32 0.2 0 0.36 0.2 0 0.4 0.2 0 0.44 0.2 0 0.48 0.2 0 0.52 0.2 0 0.56 0.2 0 0.6 0.2 0 0.64 0.2 0 0.68 0.2 0 0.72 0.2 0 0.76 0.2 0 0.8 0.2 0 0.84 0.2 0 0.88 0.2 0 0.92 0.2 0 0.96 0.2 0 1 0.2 0 1.04 0.2 0 1.08 0.2 0 1.12 0.2 0 1.16 0.2 0 1.2 0.2 0 0 0.24 0 0.04 0.24 0 0.08 0.24 0 0.12 0.24 0 0.16 0.24 0 0.2 0.24 0 0.24 0.24 0 0.28 0.24 0 0.32 0.24 0 0.36 0.24 0 0.4 0.24 0 0.44 0.24 0 0.48 0.24 0 0.52 0.24 0 0.56 0.24 0 0.6 0.24 0 0.64 0.24 0 0.68 0.24 0 0.72 0.24 0 0.76 0.24 0 0.8 0.24 0 0.84 0.24 0 0.88 0.24 0 0.92 0.24 0 0.96 0.24 0 1 0.24 0 1.04 0.24 0 1.08 0.24 0 1.12 0.24 0 1.16 0.24 0 1.2 0.24 0 0 0.28 0 0.04 0.28 0 0.08 0.28 0 0.12 0.28 0 0.16 0.28 0 0.2 0.28 0 0.24 0.28 0 0.28 0.28 0 0.32 0.28 0 0.36 0.28 0 0.4 0.28 0 0.44 0.28 0 0.48 0.28 0 0.52 0.28 0 0.56 0.28 0 0.6 0.28 0 0.64 0.28 0 0.68 0.28 0 0.72 0.28 0 0.76 0.28 0 0.8 0.28 0 0.84 0.28 0 0.88 0.28 0 0.92 0.28 0 0.96 0.28 0 1 0.28 0 1.04 0.28 0 1.08 0.28 0 1.12 0.28 0 1.16 0.28 0 1.2 0.28 0 0 0.32 0 0.04 0.32 0 0.08 0.32 0 0.12 0.32 0 0.16 0.32 0 0.2 0.32 0 0.24 0.32 0 0.28 0.32 0 0.32 0.32 0 0.36 0.32 0 0.4 0.32 0 0.44 0.32 0 0.48 0.32 0 0.52 0.32 0 0.56 0.32 0 0.6 0.32 0 0.64 0.32 0 0.68 0.32 0 0.72 0.32 0 0.76 0.32 0 0.8 0.32 0 0.84 0.32 0 0.88 0.32 0 0.92 0.32 0 0.96 0.32 0 1 0.32 0 1.04 0.32 0 1.08 0.32 0 1.12 0.32 0 1.16 0.32 0 1.2 0.32 0 0 0.36 0 0.04 0.36 0 0.08 0.36 0 0.12 0.36 0 0.16 0.36 0 0.2 0.36 0 0.24 0.36 0 0.28 0.36 0 0.32 0.36 0 0.36 0.36 0 0.4 0.36 0 0.44 0.36 0 0.48 0.36 0 0.52 0.36 0 0.56 0.36 0 0.6 0.36 0 0.64 0.36 0 0.68 0.36 0 0.72 0.36 0 0.76 0.36 0 0.8 0.36 0 0.84 0.36 0 0.88 0.36 0 0.92 0.36 0 0.96 0.36 0 1 0.36 0 1.04 0.36 0 1.08 0.36 0 1.12 0.36 0 1.16 0.36 0 1.2 0.36 0 0 0.4 0 0.04 0.4 0 0.08 0.4 0 0.12 0.4 0 0.16 0.4 0 0.2 0.4 0 0.24 0.4 0 0.28 0.4 0 0.32 0.4 0 0.36 0.4 0 0.4 0.4 0 0.44 0.4 0 0.48 0.4 0 0.52 0.4 0 0.56 0.4 0 0.6 0.4 0 0.64 0.4 0 0.68 0.4 0 0.72 0.4 0 0.76 0.4 0 0.8 0.4 0 0.84 0.4 0 0.88 0.4 0 0.92 0.4 0 0.96 0.4 0 1 0.4 0 1.04 0.4 0 1.08 0.4 0 1.12 0.4 0 1.16 0.4 0 1.2 0.4 0 0 0.44 0 0.04 0.44 0 0.08 0.44 0 0.12 0.44 0 0.16 0.44 0 0.2 0.44 0 0.24 0.44 0 0.28 0.44 0 0.32 0.44 0 0.36 0.44 0 0.4 0.44 0 0.44 0.44 0 0.48 0.44 0 0.52 0.44 0 0.56 0.44 0 0.6 0.44 0 0.64 0.44 0 0.68 0.44 0 0.72 0.44 0 0.76 0.44 0 0.8 0.44 0 0.84 0.44 0 0.88 0.44 0 0.92 0.44 0 0.96 0.44 0 1 0.44 0 1.04 0.44 0 1.08 0.44 0 1.12 0.44 0 1.16 0.44 0 1.2 0.44 0 0 0.48 0 0.04 0.48 0 0.08 0.48 0 0.12 0.48 0 0.16 0.48 0 0.2 0.48 0 0.24 0.48 0 0.28 0.48 0 0.32 0.48 0 0.36 0.48 0 0.4 0.48 0 0.44 0.48 0 0.48 0.48 0 0.52 0.48 0 0.56 0.48 0 0.6 0.48 0 0.64 0.48 0 0.68 0.48 0 0.72 0.48 0 0.76 0.48 0 0.8 0.48 0 0.84 0.48 0 0.88 0.48 0 0.92 0.48 0 0.96 0.48 0 1 0.48 0 1.04 0.48 0 1.08 0.48 0 1.12 0.48 0 1.16 0.48 0 1.2 0.48 0 0 0.52 0 0.04 0.52 0 0.08 0.52 0 0.12 0.52 0 0.16 0.52 0 0.2 0.52 0 0.24 0.52 0 0.28 0.52 0 0.32 0.52 0 0.36 0.52 0 0.4 0.52 0 0.44 0.52 0 0.48 0.52 0 0.52 0.52 0 0.56 0.52 0 0.6 0.52 0 0.64 0.52 0 0.68 0.52 0 0.72 0.52 0 0.76 0.52 0 0.8 0.52 0 0.84 0.52 0 0.88 0.52 0 0.92 0.52 0 0.96 0.52 0 1 0.52 0 1.04 0.52 0 1.08 0.52 0 1.12 0.52 0 1.16 0.52 0 1.2 0.52 0 0 0.56 0 0.04 0.56 0 0.08 0.56 0 0.12 0.56 0 0.16 0.56 0 0.2 0.56 0 0.24 0.56 0 0.28 0.56 0 0.32 0.56 0 0.36 0.56 0 0.4 0.56 0 0.44 0.56 0 0.48 0.56 0 0.52 0.56 0 0.56 0.56 0 0.6 0.56 0 0.64 0.56 0 0.68 0.56 0 0.72 0.56 0 0.76 0.56 0 0.8 0.56 0 0.84 0.56 0 0.88 0.56 0 0.92 0.56 0 0.96 0.56 0 1 0.56 0 1.04 0.56 0 1.08 0.56 0 1.12 0.56 0 1.16 0.56 0 1.2 0.56 0 0 0.6 0 0.04 0.6 0 0.08 0.6 0 0.12 0.6 0 0.16 0.6 0 0.2 0.6 0 0.24 0.6 0 0.28 0.6 0 0.32 0.6 0 0.36 0.6 0 0.4 0.6 0 0.44 0.6 0 0.48 0.6 0 0.52 0.6 0 0.56 0.6 0 0.6 0.6 0 0.64 0.6 0 0.68 0.6 0 0.72 0.6 0 0.76 0.6 0 0.8 0.6 0 0.84 0.6 0 0.88 0.6 0 0.92 0.6 0 0.96 0.6 0 1 0.6 0 1.04 0.6 0 1.08 0.6 0 1.12 0.6 0 1.16 0.6 0 1.2 0.6 0 0 0.64 0 0.04 0.64 0 0.08 0.64 0 0.12 0.64 0 0.16 0.64 0 0.2 0.64 0 0.24 0.64 0 0.28 0.64 0 0.32 0.64 0 0.36 0.64 0 0.4 0.64 0 0.44 0.64 0 0.48 0.64 0 0.52 0.64 0 0.56 0.64 0 0.6 0.64 0 0.64 0.64 0 0.68 0.64 0 0.72 0.64 0 0.76 0.64 0 0.8 0.64 0 0.84 0.64 0 0.88 0.64 0 0.92 0.64 0 0.96 0.64 0 1 0.64 0 1.04 0.64 0 1.08 0.64 0 1.12 0.64 0 1.16 0.64 0 1.2 0.64 0 0 0.68 0 0.04 0.68 0 0.08 0.68 0 0.12 0.68 0 0.16 0.68 0 0.2 0.68 0 0.24 0.68 0 0.28 0.68 0 0.32 0.68 0 0.36 0.68 0 0.4 0.68 0 0.44 0.68 0 0.48 0.68 0 0.52 0.68 0 0.56 0.68 0 0.6 0.68 0 0.64 0.68 0 0.68 0.68 0 0.72 0.68 0 0.76 0.68 0 0.8 0.68 0 0.84 0.68 0 0.88 0.68 0 0.92 0.68 0 0.96 0.68 0 1 0.68 0 1.04 0.68 0 1.08 0.68 0 1.12 0.68 0 1.16 0.68 0 1.2 0.68 0 0 0.72 0 0.04 0.72 0 0.08 0.72 0 0.12 0.72 0 0.16 0.72 0 0.2 0.72 0 0.24 0.72 0 0.28 0.72 0 0.32 0.72 0 0.36 0.72 0 0.4 0.72 0 0.44 0.72 0 0.48 0.72 0 0.52 0.72 0 0.56 0.72 0 0.6 0.72 0 0.64 0.72 0 0.68 0.72 0 0.72 0.72 0 0.76 0.72 0 0.8 0.72 0 0.84 0.72 0 0.88 0.72 0 0.92 0.72 0 0.96 0.72 0 1 0.72 0 1.04 0.72 0 1.08 0.72 0 1.12 0.72 0 1.16 0.72 0 1.2 0.72 0 0 0.76 0 0.04 0.76 0 0.08 0.76 0 0.12 0.76 0 0.16 0.76 0 0.2 0.76 0 0.24 0.76 0 0.28 0.76 0 0.32 0.76 0 0.36 0.76 0 0.4 0.76 0 0.44 0.76 0 0.48 0.76 0 0.52 0.76 0 0.56 0.76 0 0.6 0.76 0 0.64 0.76 0 0.68 0.76 0 0.72 0.76 0 0.76 0.76 0 0.8 0.76 0 0.84 0.76 0 0.88 0.76 0 0.92 0.76 0 0.96 0.76 0 1 0.76 0 1.04 0.76 0 1.08 0.76 0 1.12 0.76 0 1.16 0.76 0 1.2 0.76 0 0 0.8 0 0.04 0.8 0 0.08 0.8 0 0.12 0.8 0 0.16 0.8 0 0.2 0.8 0 0.24 0.8 0 0.28 0.8 0 0.32 0.8 0 0.36 0.8 0 0.4 0.8 0 0.44 0.8 0 0.48 0.8 0 0.52 0.8 0 0.56 0.8 0 0.6 0.8 0 0.64 0.8 0 0.68 0.8 0 0.72 0.8 0 0.76 0.8 0 0.8 0.8 0 0.84 0.8 0 0.88 0.8 0 0.92 0.8 0 0.96 0.8 0 1 0.8 0 1.04 0.8 0 1.08 0.8 0 1.12 0.8 0 1.16 0.8 0 1.2 0.8 0 0 0.84 0 0.04 0.84 0 0.08 0.84 0 0.12 0.84 0 0.16 0.84 0 0.2 0.84 0 0.24 0.84 0 0.28 0.84 0 0.32 0.84 0 0.36 0.84 0 0.4 0.84 0 0.44 0.84 0 0.48 0.84 0 0.52 0.84 0 0.56 0.84 0 0.6 0.84 0 0.64 0.84 0 0.68 0.84 0 0.72 0.84 0 0.76 0.84 0 0.8 0.84 0 0.84 0.84 0 0.88 0.84 0 0.92 0.84 0 0.96 0.84 0 1 0.84 0 1.04 0.84 0 1.08 0.84 0 1.12 0.84 0 1.16 0.84 0 1.2 0.84 0 0 0.88 0 0.04 0.88 0 0.08 0.88 0 0.12 0.88 0 0.16 0.88 0 0.2 0.88 0 0.24 0.88 0 0.28 0.88 0 0.32 0.88 0 0.36 0.88 0 0.4 0.88 0 0.44 0.88 0 0.48 0.88 0 0.52 0.88 0 0.56 0.88 0 0.6 0.88 0 0.64 0.88 0 0.68 0.88 0 0.72 0.88 0 0.76 0.88 0 0.8 0.88 0 0.84 0.88 0 0.88 0.88 0 0.92 0.88 0 0.96 0.88 0 1 0.88 0 1.04 0.88 0 1.08 0.88 0 1.12 0.88 0 1.16 0.88 0 1.2 0.88 0 0 0.92 0 0.04 0.92 0 0.08 0.92 0 0.12 0.92 0 0.16 0.92 0 0.2 0.92 0 0.24 0.92 0 0.28 0.92 0 0.32 0.92 0 0.36 0.92 0 0.4 0.92 0 0.44 0.92 0 0.48 0.92 0 0.52 0.92 0 0.56 0.92 0 0.6 0.92 0 0.64 0.92 0 0.68 0.92 0 0.72 0.92 0 0.76 0.92 0 0.8 0.92 0 0.84 0.92 0 0.88 0.92 0 0.92 0.92 0 0.96 0.92 0 1 0.92 0 1.04 0.92 0 1.08 0.92 0 1.12 0.92 0 1.16 0.92 0 1.2 0.92 0 0 0.96 0 0.04 0.96 0 0.08 0.96 0 0.12 0.96 0 0.16 0.96 0 0.2 0.96 0 0.24 0.96 0 0.28 0.96 0 0.32 0.96 0 0.36 0.96 0 0.4 0.96 0 0.44 0.96 0 0.48 0.96 0 0.52 0.96 0 0.56 0.96 0 0.6 0.96 0 0.64 0.96 0 0.68 0.96 0 0.72 0.96 0 0.76 0.96 0 0.8 0.96 0 0.84 0.96 0 0.88 0.96 0 0.92 0.96 0 0.96 0.96 0 1 0.96 0 1.04 0.96 0 1.08 0.96 0 1.12 0.96 0 1.16 0.96 0 1.2 0.96 0 0 1 0 0.04 1 0 0.08 1 0 0.12 1 0 0.16 1 0 0.2 1 0 0.24 1 0 0.28 1 0 0.32 1 0 0.36 1 0 0.4 1 0 0.44 1 0 0.48 1 0 0.52 1 0 0.56 1 0 0.6 1 0 0.64 1 0 0.68 1 0 0.72 1 0 0.76 1 0 0.8 1 0 0.84 1 0 0.88 1 0 0.92 1 0 0.96 1 0 1 1 0 1.04 1 0 1.08 1 0 1.12 1 0 1.16 1 0 1.2 1 0 0 1.04 0 0.04 1.04 0 0.08 1.04 0 0.12 1.04 0 0.16 1.04 0 0.2 1.04 0 0.24 1.04 0 0.28 1.04 0 0.32 1.04 0 0.36 1.04 0 0.4 1.04 0 0.44 1.04 0 0.48 1.04 0 0.52 1.04 0 0.56 1.04 0 0.6 1.04 0 0.64 1.04 0 0.68 1.04 0 0.72 1.04 0 0.76 1.04 0 0.8 1.04 0 0.84 1.04 0 0.88 1.04 0 0.92 1.04 0 0.96 1.04 0 1 1.04 0 1.04 1.04 0 1.08 1.04 0 1.12 1.04 0 1.16 1.04 0 1.2 1.04 0 0 1.08 0 0.04 1.08 0 0.08 1.08 0 0.12 1.08 0 0.16 1.08 0 0.2 1.08 0 0.24 1.08 0 0.28 1.08 0 0.32 1.08 0 0.36 1.08 0 0.4 1.08 0 0.44 1.08 0 0.48 1.08 0 0.52 1.08 0 0.56 1.08 0 0.6 1.08 0 0.64 1.08 0 0.68 1.08 0 0.72 1.08 0 0.76 1.08 0 0.8 1.08 0 0.84 1.08 0 0.88 1.08 0 0.92 1.08 0 0.96 1.08 0 1 1.08 0 1.04 1.08 0 1.08 1.08 0 1.12 1.08 0 1.16 1.08 0 1.2 1.08 0 0 1.12 0 
[...]
			<CellData Scalars="Density">
				<DataArray Name="Density" type="Float32" format="ascii">
 0.0045972 0.00496233 0.00584864 0.00743505 0.00983178 0.0131353 0.0174941 0.0230328 0.0298817 0.0380152 0.0471384 0.0569977 0.0680092 0.0818659 0.100604 0.124874 0.157107 0.199383 0.253952 0.323033 0.408887 0.513484 0.638233 0.783542 0.94827 1.12889 1.31858 1.50494 1.66917 1.77824 0.00496368 0.00519391 0.00584936 0.00717538 0.0093047 0.0124585 0.0167515 0.0223975 0.0294704 0.0379663 0.0477066 0.0585482 0.0709066 0.0858565 0.105861 0.132104 0.16691 0.212406 0.270892 0.344688 0.43577 0.545696 0.675582 0.825595 0.994222 1.17744 1.368 1.55263 1.70949 1.79995 0.00585482 0.0058545 0.0061539 0.00704779 0.00868965 0.0112461 0.0150453 0.0201972 0.026883 0.0350443 0.0445171 0.0552484 0.0675066 0.0817848 0.0999595 0.123975 0.156116 0.198332 0.252992 0.322798 0.410351 0.517647 0.646334 0.797037 0.968941 1.15815 1.35769 1.55323 1.72439 1.834 0.00744892 0.00718955 0.00705608 0.007576 0.00874413 0.0108477 0.0140884 0.018794 0.0249502 0.032628 0.0418091 0.0525111 0.0647481 0.0790763 0.0966775 0.120178 0.151562 0.1932 0.247236 0.316577 0.404175 0.51244 0.643443 0.798043 0.974753 1.16836 1.37061 1.5676 1.74019 1.84252 0.00985343 0.00932934 0.00870873 0.00875709 0.00946407 0.0109654 0.0136923 0.0178171 0.0236096 0.0310476 0.040201 0.0510422 0.0637063 0.0785822 0.0963896 0.119914 0.151 0.193052 0.247581 0.317675 0.406234 0.515399 0.647211 0.802461 0.979988 1.17512 1.37985 1.58019 1.7538 1.85693 0.0131644 0.0124918 0.0112786 0.0108736 0.0109776 0.0117772 0.0136582 0.0171179 0.0222749 0.0294093 0.0384898 0.04963 0.0628537 0.0782246 0.0963289 0.119256 0.149305 0.190474 0.244048 0.31305 0.400634 0.509206 0.641014 0.797287 0.976964 1.17603 1.38662 1.59559 1.77998 1.89444 0.01753 0.0167933 0.0150864 0.0141226 0.0137145 0.0136733 0.014604 0.0169348 0.0212358 0.0275979 0.0362775 0.0472537 0.0607361 0.0767147 0.0955007 0.118202 0.147342 0.187569 0.240988 0.309748 0.397566 0.507389 0.640841 0.799502 0.983886 1.19038 1.41065 1.63117 1.82664 1.94094 0.0230739 0.0224454 0.0202407 0.0188288 0.0178436 0.0171428 0.0169563 0.0181223 0.0210538 0.0264541 0.0343355 0.0449506 0.0583508 0.074566 0.093829 0.116477 0.144867 0.183025 0.235155 0.302616 0.389105 0.498289 0.63317 0.794951 0.984221 1.1998 1.43413 1.67137 1.88567 2.01233 0.0299283 0.0295242 0.0269259 0.0249849 0.0236311 0.0223 0.0212663 0.0210611 0.022522 0.026369 0.0332815 0.0431884 0.0563897 0.0729821 0.0927446 0.115722 0.143595 0.17963 0.230223 0.29694 0.383212 0.492388 0.62866 0.795144 0.992203 1.21872 1.46905 1.72643 1.96052 2.09152 0.0380633 0.0380216 0.0350861 0.0326573 0.0310617 0.0294268 0.0276263 0.026462 0.0263743 0.0283496 0.0335078 0.0424171 0.0551014 0.0719157 0.0919851 0.115632 0.143424 0.177829 0.226298 0.291664 0.376864 0.486618 0.624161 0.793721 0.998945 1.23861 1.50644 1.78686 2.0455 2.1899 0.0471795 0.0477583 0.0445551 0.0418285 0.0402103 0.038496 0.0362924 0.0343303 0.0332765 0.0335114 0.0362809 0.0433782 0.0553534 0.0720505 0.0926935 0.117026 0.144816 0.178568 0.224146 0.288385 0.372325 0.481654 0.621905 0.795939 1.00822 1.26216 1.55087 1.85686 2.14272 2.29873 0.0570228 0.0585915 0.0552733 0.0525229 0.0510442 0.0496226 0.0472504 0.0449245 0.0431711 0.0423974 0.0433614 0.047476 0.0571766 0.0735168 0.0951787 0.120045 0.148646 0.181923 0.224012 0.286332 0.369973 0.478749 0.619694 0.799176 1.01991 1.2864 1.59701 1.93111 2.24885 2.4252 0.0680203 0.0709338 0.0675163 0.0647537 0.0636845 0.0628354 0.0607085 0.0583097 0.0563438 0.0550665 0.0553152 0.0571752 0.0634985 0.0768437 0.0988526 0.125909 0.155569 0.188723 0.22904 0.287438 0.370351 0.479342 0.62092 0.803177 1.03361 1.31444 1.64568 2.01047 2.36256 2.56809 0.0818702 0.0858763 0.0817817 0.0790538 0.0785403 0.0781795 0.0766717 0.0745228 0.0729102 0.0718373 0.0719865 0.0734674 0.0768258 0.0865537 0.10485 0.133296 0.165816 0.199821 0.239273 0.291947 0.372287 0.481083 0.624626 0.809785 1.04665 1.34352 1.69763 2.09629 2.48564 2.7318 0.100611 0.105881 0.0999447 0.0966411 0.0963388 0.0962357 0.0954368 0.0937604 0.0926541 0.0918699 0.0925775 0.0950769 0.0987466 0.104808 0.119125 0.144105 0.178233 0.216511 0.255904 0.304088 0.379854 0.487147 0.630576 0.819513 1.06242 1.37212 1.75155 2.18847 2.62168 2.9152 0.124875 0.132114 0.123958 0.120128 0.11985 0.119166 0.118124 0.116351 0.115606 0.115499 0.116887 0.119901 0.125746 0.133163 0.144037 0.164616 0.196447 0.235911 0.279474 0.32565 0.392505 0.497151 0.639802 0.83024 1.08004 1.40132 1.80589 2.2857 2.77333 3.1192 0.157103 0.166908 0.156092 0.151504 0.150939 0.149195 0.147215 0.14472 0.143472 0.143253 0.144622 0.148458 0.155348 0.16562 0.178052 0.19632 0.224784 0.262923 0.30814 0.356892 0.41576 0.513265 0.654341 0.844927 1.09984 1.43296 1.8601 2.38513 2.93803 3.34557 0.199367 0.212389 0.198289 0.193124 0.192972 0.190312 0.187426 0.182903 0.179453 0.177623 0.17836 0.181705 0.188486 0.199592 0.216287 0.235731 0.262738 0.300615 0.344097 0.394543 0.45274 0.539354 0.675255 0.864512 1.12211 1.46614 1.91463 2.48821 3.11785 3.60384 0.25391 0.270856 0.252915 0.247127 0.247493 0.243845 0.240794 0.23502 0.230023 0.226106 0.223929 0.223781 0.228792 0.239023 0.255634 0.27917 0.307876 0.343903 0.389703 0.43983 0.496636 0.574928 0.705853 0.890345 1.15027 1.50308 1.97274 2.59367 3.30948 3.89763 0.322956 0.344626 0.322696 0.316428 0.31757 0.312819 0.309502 0.302447 0.296705 0.291459 0.288206 0.286058 0.287183 0.291757 0.303844 0.325385 0.356621 0.394392 0.43979 0.492168 0.549378 0.618846 0.740308 0.926758 1.18769 1.5459 2.0347 2.70257 3.51121 4.22126 0.408765 0.435666 0.410216 0.403977 0.406083 0.400381 0.397301 0.388886 0.382963 0.376586 0.372175 0.369747 0.369998 0.372087 0.379744 0.392368 0.415377 0.452523 0.496547 0.549606 0.6082 0.674777 0.779687 0.958092 1.22573 1.59834 2.10918 2.81763 3.72481 4.58208 0.513312 0.545541 0.517473 0.512192 0.515207 0.508901 0.507084 0.497994 0.492151 0.486348 0.481354 0.478644 0.47905 0.480602 0.486913 0.497202 0.513175 0.53916 0.574801 0.619008 0.674799 0.741605 0.833833 0.989947 1.25644 1.64809 2.19355 2.9489 3.96672 4.99517 0.638005 0.675366 0.646126 0.643151 0.646952 0.64065 0.640543 0.632815 0.628269 0.624042 0.621518 0.619463 0.620981 0.62435 0.630125 0.639624 0.654471 0.674965 0.705927 0.740499 0.779556 0.833621 0.90739 1.04264 1.28055 1.67926 2.26112 3.08381 4.24141 5.44899 0.78326 0.825314 0.796785 0.797721 0.802164 0.796844 0.799153 0.794705 0.794662 0.793492 0.79578 0.798712 0.802846 0.809852 0.819317 0.82984 0.844861 0.864464 0.890327 0.926344 0.958112 0.989585 1.04244 1.13474 1.33361 1.69817 2.306 3.21169 4.53745 5.96449 0.947939 0.993898 0.968656 0.974406 0.979716 0.976517 0.983415 0.983912 0.991971 0.998516 1.00801 1.02012 1.03306 1.0462 1.06233 1.08026 1.09925 1.12187 1.15045 1.18781 1.2257 1.25659 1.28048 1.33395 1.44702 1.75711 2.33848 3.28964 4.77731 6.53213 1.12851 1.17706 1.1578 1.16791 1.17477 1.17567 1.18994 1.19926 1.21845 1.2385 1.2616 1.28664 1.31481 1.34348 1.37158 1.40163 1.433 1.46615 1.50268 1.54581 1.59833 1.64833 1.67876 1.69843 1.75653 1.92018 2.40412 3.36872 5.00669 7.066 1.31818 1.3676 1.35733 1.37017 1.37939 1.3863 1.41059 1.43372 1.46847 1.50642 1.55069 1.59663 1.64537 1.69788 1.75205 1.8057 1.85958 1.91474 1.97259 2.03451 2.10892 2.19324 2.26079 2.3057 2.33867 2.4038 2.70848 3.53176 5.22282 7.50529 1.50447 1.55214 1.55277 1.56715 1.57968 1.59518 1.63097 1.67105 1.72575 1.78666 1.85708 1.93099 2.01036 2.0966 2.18946 2.2858 2.38548 2.4883 2.59349 2.70271 2.81779 2.94889 3.08411 3.21179 3.29004 3.36894 3.53192 3.76421 5.47619 8.17213 1.66863 1.70899 1.72388 1.73973 1.75322 1.7797 1.82654 1.88553 1.95966 2.04507 2.14312 2.24822 2.36175 2.48543 2.62158 2.77274 2.93915 3.11881 3.30902 3.51177 3.72581 3.96686 4.24165 4.53823 4.77779 5.00698 5.22309 5.47634 6.16167 9.42791 1.77765 1.79946 1.83337 1.84208 1.85636 1.89418 1.94059 2.01212 2.09076 2.18947 2.29891 2.42403 2.56751 2.73227 2.91443 3.11763 3.34706 3.60562 3.89599 4.22294 4.5844 4.99333 5.45067 5.96804 6.52916 7.06756 7.50818 8.1705 9.4252 8.15914
				</DataArray>
				<DataArray Name="Energy" type="Float32" format="ascii">
 877.072 812.462 689.122 541.49 409.096 305.277 228.296 171.809 130.246 99.2797 75.8626 58.0643 44.6682 34.7821 27.5056 21.9071 17.5819 14.1916 11.5163 9.40052 7.73065 6.41521 5.37934 4.56205 3.91469 3.39945 2.98817 2.66147 2.40991 2.24832 812.24 776.166 688.602 561.229 431.692 321.92 238.003 176.776 132.178 99.405 75.1177 57.0153 43.5951 33.6385 26.3455 20.8021 16.5632 13.281 10.7263 8.73532 7.18184 5.96942 5.02273 4.28157 3.69836 3.23702 2.87189 2.58438 2.36161 2.20163 688.4 688.008 654.509 570.302 462.394 355.712 265.008 195.344 144.647 107.938 81.1025 61.3889 46.9248 36.1875 28.2906 22.3802 17.8749 14.3642 11.6081 9.44142 7.73767 6.39698 5.3424 4.51152 3.8557 3.33703 2.92783 2.60609 2.35977 2.20154 540.493 560.13 569.641 530.547 458.027 368.707 282.059 210.241 155.8 116.098 87.2192 66.0608 50.3011 38.5677 29.8893 23.4756 18.627 14.8842 11.9556 9.66447 7.87516 6.47783 5.38734 4.53623 3.8706 3.34815 2.93782 2.61697 2.37563 2.21045 408.207 430.558 461.389 457.344 422.951 363.367 290.117 220.703 164.687 122.651 92.0139 69.4925 52.7332 40.2457 30.9399 24.099 18.984 15.1104 12.1031 9.76651 7.95031 6.53549 5.43401 4.57555 3.90503 3.37916 2.96618 2.64313 2.39734 2.22805 304.606 321.07 354.693 367.823 362.966 337.809 289.512 229.971 174.44 130.257 97.3602 73.2075 55.3483 42.0806 32.2053 24.9562 19.588 15.5783 12.4739 10.0603 8.18371 6.71877 5.57582 4.68389 3.98632 3.43944 3.00896 2.67147 2.41398 2.24001 227.823 237.418 264.284 281.38 289.634 289.196 270.177 231.295 183.642 139.608 104.795 78.6408 59.318 44.8931 34.1498 26.23 20.4005 16.1254 12.8689 10.342 8.38299 6.86323 5.67939 4.75661 4.03577 3.47068 3.02611 2.67874 2.4164 2.23471 171.495 176.395 194.926 209.848 220.376 229.62 231.001 215.933 184.717 146.567 112.008 84.6147 63.961 48.3771 36.689 27.9963 21.6212 16.9751 13.5017 10.8182 8.73861 7.12432 5.86953 4.88954 4.12353 3.52414 3.05445 2.6877 2.41211 2.2252 130.039 131.93 144.409 155.597 164.521 174.233 183.376 184.652 173.184 147.697 117.189 89.8432 68.3135 51.8893 39.3424 29.8819 22.9068 17.828 14.1183 11.2769 9.08178 7.3731 6.0429 5.00693 4.19674 3.5623 3.06768 2.6852 2.40246 2.20949 99.1391 99.239 107.793 115.992 122.571 130.172 139.455 146.521 147.665 138.361 117.805 93.4451 72.1479 55.2511 42.0635 31.9528 24.3829 18.8307 14.8367 11.8173 9.47968 7.66891 6.25433 5.1488 4.28741 3.61424 3.09001 2.68761 2.39321 2.19539 75.7654 75.004 81.0141 87.1538 91.974 97.3321 104.74 112.017 117.191 117.796 110.044 93.5835 74.2088 57.6762 44.354 33.9019 25.8588 19.8743 15.5526 12.3665 9.89207 7.9694 6.47434 5.30076 4.38227 3.66811 3.1144 2.69209 2.38722 2.18354 57.996 56.9386 61.3282 66.0162 69.4708 73.1938 78.6373 84.6534 89.8866 93.4747 93.6246 87.1171 74.2713 58.8918 45.9833 35.5118 27.2441 20.9336 16.2681 12.9069 10.3221 8.29395 6.70761 5.46735 4.49258 3.73193 3.14669 2.70272 2.38499 2.17576 44.6224 43.5431 46.8839 50.2761 52.7138 55.3445 59.3191 64.005 68.3621 72.1969 74.2412 74.2762 68.7349 58.7803 46.8312 36.5934 28.3955 21.904 16.9959 13.432 10.7438 8.62638 6.95635 5.64206 4.61311 3.80639 3.18506 2.71806 2.38628 2.17218 34.7533 33.6053 36.1616 38.5489 40.2304 42.0829 44.891 48.4022 51.9288 55.301 57.7258 58.9118 58.7971 54.043 46.4912 37.3317 29.0995 22.687 17.6562 13.8945 11.1243 8.94281 7.21064 5.83119 4.74351 3.89262 3.2341 2.74098 2.3919 2.17276 27.4881 26.3253 28.2744 29.8783 30.9314 32.2065 34.1516 36.6975 39.3642 42.102 44.3954 46.0237 46.8606 46.5056 42.5828 36.8102 29.683 23.1739 18.1933 14.3161 11.4663 9.24254 7.45656 6.02736 4.88656 3.98806 3.29196 2.7695 2.40035 2.17345 21.8961 20.7897 22.3709 23.4704 24.093 24.9584 26.2355 27.9992 29.8928 31.9746 33.9317 35.5411 36.6274 37.3531 36.8245 33.7015 29.1489 23.5749 18.4972 14.652 11.7194 9.49101 7.6842 6.21827 5.03712 4.09371 3.35905 2.80428 2.41293 2.17504 17.5751 16.5558 17.8697 18.6254 18.9819 19.5915 20.4012 21.6213 22.9161 24.3959 25.875 27.2609 28.4136 29.1178 29.7002 29.1571 26.685 23.0694 18.7211 14.8192 11.8858 9.66316 7.87265 6.39488 5.18736 4.2076 3.43347 2.84417 2.42913 2.17855 14.1874 13.2767 14.3608 14.8837 15.109 15.5829 16.1289 16.9752 17.8328 18.8375 19.8839 20.9429 21.9151 22.6982 23.1843 23.5833 23.0724 21.1293 18.2566 14.8674 11.9404 9.74437 7.99709 6.53866 5.32522 4.32259 3.51386 2.88973 2.44813 2.18298 11.5135 10.7239 11.6057 11.9557 12.1018 12.4768 12.8724 13.5036 14.1229 14.8405 15.5576 16.2751 17.0022 17.6619 18.2006 18.5051 18.7264 18.2577 16.6916 14.4479 11.8373 9.68535 8.03311 6.62587 5.43796 4.43189 3.59871 2.93928 2.46739 2.18677 9.39864 8.73399 9.43989 9.66489 9.76605 10.0628 10.3438 10.8198 11.2808 11.8208 12.3689 12.9109 13.4372 13.8989 14.3207 14.6548 14.8208 14.8648 14.4452 13.1767 11.4294 9.48188 7.92972 6.63901 5.50801 4.52166 3.67999 2.99145 2.48844 2.1927 7.72931 7.18098 7.7365 7.8753 7.94947 8.18555 8.38475 8.73971 9.08412 9.48189 9.89463 10.3239 10.7464 11.1276 11.4703 11.7237 11.8881 11.9407 11.8382 11.4286 10.3813 9.0528 7.66666 6.51149 5.497 4.57448 3.7496 3.0428 2.51036 2.19871 6.41423 5.96881 6.39608 6.47783 6.53479 6.71968 6.8642 7.1251 7.37489 7.66952 7.9707 8.29629 8.62725 8.94318 9.24492 9.49438 9.66481 9.74462 9.68591 9.48157 9.05242 8.18383 7.20461 6.23117 5.35919 4.55419 3.78944 3.09063 2.5354 2.20406 5.37854 5.02224 5.34167 5.3872 5.43339 5.57618 5.67991 5.86975 6.04386 6.25501 6.47403 6.70894 6.9585 7.2108 7.45714 7.6847 7.87416 7.99766 8.03329 7.92861 7.66605 7.20485 6.48978 5.77514 5.0815 4.41859 3.75898 3.11725 2.55923 2.20897 4.56135 4.28112 4.51089 4.53601 4.57505 4.68383 4.75672 4.88969 5.00706 5.14918 5.3009 5.46682 5.6425 5.83221 6.02806 6.21784 6.39558 6.53888 6.62539 6.63801 6.51145 6.23089 5.77422 5.1837 4.64989 4.15853 3.63436 3.09926 2.56971 2.21177 3.91406 3.69795 3.85516 3.87032 3.90468 3.98609 4.03547 4.12336 4.1968 4.28702 4.38241 4.49298 4.61224 4.74288 4.88679 5.03799 5.18689 5.32516 5.4385 5.50768 5.49636 5.35873 5.08092 4.64981 4.15406 3.76487 3.40602 2.99669 2.53153 2.20237 3.39885 3.23661 3.33654 3.34777 3.37881 3.43917 3.47024 3.52343 3.56223 3.61407 3.66739 3.73207 3.80661 3.89218 3.98717 4.09395 4.20742 4.32286 4.43176 4.52136 4.57455 4.55418 4.41802 4.15825 3.76408 3.35671 3.06547 2.79869 2.43481 2.16677 2.98761 2.87149 2.92744 2.93748 2.96581 3.00856 3.02586 3.0537 3.06728 3.08988 3.11385 3.14604 3.18459 3.2337 3.29199 3.35864 3.43265 3.51373 3.59835 3.67967 3.74959 3.78928 3.75866 3.63399 3.40556 3.0651 2.74509 2.52507 2.28008 2.09837 2.66094 2.58394 2.60573 2.61663 2.6428 2.67085 2.67827 2.68692 2.68491 2.68733 2.69147 2.70241 2.71783 2.74032 2.76964 2.80436 2.84395 2.88926 2.93885 2.99119 3.04262 3.09052 3.11714 3.09919 2.99646 2.79824 2.52511 2.2562 2.06847 2.01412 2.40943 2.36116 2.35946 2.37526 2.39703 2.41337 2.41594 2.41137 2.40233 2.39285 2.38641 2.3849 2.38602 2.39098 2.40031 2.41325 2.42878 2.44747 2.46738 2.48814 2.50991 2.53553 2.5591 2.56924 2.53134 2.43447 2.27987 2.06828 1.94517 1.86693 2.24784 2.20117 2.20119 2.21006 2.22777 2.23938 2.23419 2.22449 2.20963 2.19502 2.18248 2.17583 2.17206 2.17192 2.17376 2.17555 2.17747 2.1823 2.18764 2.19202 2.19814 2.20504 2.20852 2.21086 2.20297 2.16635 2.09766 2.01411 1.8669 1.59494
				</DataArray>
				<DataArray Name="F1" type="Float32" format="ascii">
 1 1 1 1 1 1 1 1 1 1 1 1 1 1 1 1 1 1 1 1 1 1 1 1 1 1 1 1 1 1 1 1 1 1 1 1 1 1 1 1 1 1 1 1 1 1 1 1 1 1 1 1 1 1 1 1 1 1 1 1 1 1 1 1 1 1 1 1 1 1 1 1 1 1 1 1 1 1 1 1 1 1 1 1 1 1 1 1 1 1 1 1 1 1 1 1 1 1 1 1 1 1 1 1 1 1 1 1 1 1 1 1 1 1 1 1 1 1 1 1 1 1 1 1 1 1 1 1 1 1 1 1 1 1 1 1 1 1 1 1 1 1 1 1 1 1 1 1 1 1 1 1 1 1 1 1 1 1 1 1 1 1 1 1 1 1 1 1 1 1 1 1 1 1 1 1 1 1 1 1 1 1 1 1 1 1 1 1 1 1 1 1 1 1 1 1 1 1 1 1 1 1 1 1 1 1 1 1 1 1 1 1 1 1 1 1 1 1 1 1 1 1 1 1 1 1 1 1 1 1 1 1 1 1 1 1 1 1 1 1 1 1 1 1 1 1 1 1 1 1 1 1 1 1 1 1 1 1 1 1 1 1 1 1 1 1 1 1 1 1 1 1 1 1 1 1 1 1 1 1 1 1 1 1 1 1 1 1 1 1 1 1 1 1 1 1 1 1 1 1 1 1 1 1 1 1 1 1 1 1 1 1 1 1 1 1 1 1 1 1 1 1 1 1 1 1 1 1 1 1 1 1 1 1 1 1 1 1 1 1 1 1 1 1 1 1 1 1 1 1 1 1 1 1 1 1 1 1 1 1 1 1 1 1 1 1 1 1 1 1 1 1 1 1 1 1 1 1 1 1 1 1 1 1 1 1 1 1 1 1 1 1 1 1 1 1 1 1 1 1 1 1 1 1 1 1 1 1 1 1 1 1 1 1 1 1 1 1 1 1 1 1 1 1 1 1 1 1 1 1 1 1 1 1 1 1 1 1 1 1 1 1 1 1 1 1 1 1 1 1 1 1 1 1 1 1 1 1 1 1 1 1 1 1 1 1 1 1 1 1 1 1 1 1 1 1 1 1 1 1 1 1 1 1 1 1 1 1 1 1 1 1 1 1 1 1 1 1 1 1 1 1 1 1 1 1 1 1 1 1 1 1 1 1 1 1 1 1 1 1 1 1 1 1 1 1 1 1 1 1 1 1 1 1 1 1 1 1 1 1 1 1 1 1 1 1 1 1 1 1 1 1 1 1 1 1 1 1 1 1 1 1 1 1 1 1 1 1 1 1 1 1 1 1 1 1 1 1 1 1 1 1 1 1 1 1 1 1 1 1 1 1 1 1 1 1 1 1 1 1 1 1 1 1 1 1 1 1 1 1 1 1 1 1 1 1 1 1 1 1 1 1 1 1 1 1 1 1 1 1 1 1 1 1 1 1 1 1 1 1 1 1 1 1 1 1 1 1 1 1 1 1 1 1 1 1 1 1 1 1 1 1 1 1 1 1 1 1 1 1 1 1 1 1 1 1 1 1 1 1 1 1 1 1 1 1 1 1 1 1 1 1 1 1 1 1 1 1 1 1 1 1 1 1 1 1 1 1 1 1 1 1 1 1 1 1 1 1 1 1 1 1 1 1 1 1 1 1 1 1 1 1 1 1 1 1 1 1 1 1 1 1 1 1 1 1 1 1 1 1 1 1 1 1 1 1 1 1 1 1 1 1 1 1 1 1 1 1 1 1 1 1 1 1 1 1 1 1 1 1 1 1 1 1 1 1 1 1 1 1 1 1 1 1 1 1 1 1 1 1 1 1 1 1 1 1 1 1 1 1 1 1 1 1 1 1 1 1 1 1 1 1 1 1 1 1 1 1 1 1 1 1 1 1 1 1 1 1 1 1 1 1 1 1 1 1 1 1 1 1 1 1 1 1 1 1 1 1 1 1 1 1 1 1 1 1 1 1 1 1 1 1 1 1 1 1 1 1 1 1 1 1 1 1 1 1 1 1 1 1 1 1 1 1 1 1 1 1 1 1
				</DataArray>
				<DataArray Name="F2" type="Float32" format="ascii">
 0 0 0 0 0 0 0 0 0 0 0 0 0 0 0 0 0 0 0 0 0 0 0 0 0 0 0 0 0 0 0 0 0 0 0 0 0 0 0 0 0 0 0 0 0 0 0 0 0 0 0 0 0 0 0 0 0 0 0 0 0 0 0 0 0 0 0 0 0 0 0 0 0 0 0 0 0 0 0 0 0 0 0 0 0 0 0 0 0 0 0 0 0 0 0 0 0 0 0 0 0 0 0 0 0 0 0 0 0 0 0 0 0 0 0 0 0 0 0 0 0 0 0 0 0 0 0 0 0 0 0 0 0 0 0 0 0 0 0 0 0 0 0 0 0 0 0 0 0 0 0 0 0 0 0 0 0 0 0 0 0 0 0 0 0 0 0 0 0 0 0 0 0 0 0 0 0 0 0 0 0 0 0 0 0 0 0 0 0 0 0 0 0 0 0 0 0 0 0 0 0 0 0 0 0 0 0 0 0 0 0 0 0 0 0 0 0 0 0 0 0 0 0 0 0 0 0 0 0 0 0 0 0 0 0 0 0 0 0 0 0 0 0 0 0 0 0 0 0 0 0 0 0 0 0 0 0 0 0 0 0 0 0 0 0 0 0 0 0 0 0 0 0 0 0 0 0 0 0 0 0 0 0 0 0 0 0 0 0 0 0 0 0 0 0 0 0 0 0 0 0 0 0 0 0 0 0 0 0 0 0 0 0 0 0 0 0 0 0 0 0 0 0 0 0 0 0 0 0 0 0 0 0 0 0 0 0 0 0 0 0 0 0 0 0 0 0 0 0 0 0 0 0 0 0 0 0 0 0 0 0 0 0 0 0 0 0 0 0 0 0 0 0 0 0 0 0 0 0 0 0 0 0 0 0 0 0 0 0 0 0 0 0 0 0 0 0 0 0 0 0 0 0 0 0 0 0 0 0 0 0 0 0 0 0 0 0 0 0 0 0 0 0 0 0 0 0 0 0 0 0 0 0 0 0 0 0 0 0 0 0 0 0 0 0 0 0 0 0 0 0 0 0 0 0 0 0 0 0 0 0 0 0 0 0 0 0 0 0 0 0 0 0 0 0 0 0 0 0 0 0 0 0 0 0 0 0 0 0 0 0 0 0 0 0 0 0 0 0 0 0 0 0 0 0 0 0 0 0 0 0 0 0 0 0 0 0 0 0 0 0 0 0 0 0 0 0 0 0 0 0 0 0 0 0 0 0 0 0 0 0 0 0 0 0 0 0 0 0 0 0 0 0 0 0 0 0 0 0 0 0 0 0 0 0 0 0 0 0 0 0 0 0 0 0 0 0 0 0 0 0 0 0 0 0 0 0 0 0 0 0 0 0 0 0 0 0 0 0 0 0 0 0 0 0 0 0 0 0 0 0 0 0 0 0 0 0 0 0 0 0 0 0 0 0 0 0 0 0 0 0 0 0 0 0 0 0 0 0 0 0 0 0 0 0 0 0 0 0 0 0 0 0 0 0 0 0 0 0 0 0 0 0 0 0 0 0 0 0 0 0 0 0 0 0 0 0 0 0 0 0 0 0 0 0 0 0 0 0 0 0 0 0 0 0 0 0 0 0 0 0 0 0 0 0 0 0 0 0 0 0 0 0 0 0 0 0 0 0 0 0 0 0 0 0 0 0 0 0 0 0 0 0 0 0 0 0 0 0 0 0 0 0 0 0 0 0 0 0 0 0 0 0 0 0 0 0 0 0 0 0 0 0 0 0 0 0 0 0 0 0 0 0 0 0 0 0 0 0 0 0 0 0 0 0 0 0 0 0 0 0 0 0 0 0 0 0 0 0 0 0 0 0 0 0 0 0 0 0 0 0 0 0 0 0 0 0 0 0 0 0 0 0 0 0 0 0 0 0 0 0 0 0 0 0 0 0 0 0 0 0 0 0 0 0 0 0 0 0 0 0 0 0 0 0 0 0 0 0 0 0 0 0 0 0 0 0 0 0 0 0 0 0 0 0 0 0 0 0 0 0 0 0 0 0 0 0 0 0 0 0 0 0 0 0 0 0 0 0 0
				</DataArray>
				<DataArray Name="F3" type="Float32" format="ascii">