<?xml version="1.0"?>
<VTKFile type="PolyData">
	<PolyData>
		<Piece NumberOfPoints="961" NumberOfPolys="900">
			<Points>
				<DataArray type="Float32" NumberOfComponents="3" format="ascii">
 0 0 0 0.04 0 0 0.08 0 0 0.12 0 0 0.16 0 0 0.2 0 0 0.24 0 0 0.28 0 0 0.32 0 0 0.36 0 0 0.4 0 0 0.44 0 0 0.48 0 0 0.52 0 0 0.56 0 0 0.6 0 0 0.64 0 0 0.68 0 0 0.72 0 0 0.76 0 0 0.8 0 0 0.84 0 0 0.88 0 0 0.92 0 0 0.96 0 0 1 0 0 1.04 0 0 1.08 0 0 1.12 0 0 1.16 0 0 1.2 0 0 0 0.04 0 0.04 0.04 0 0.08 0.04 0 0.12 0.04 0 0.16 0.04 0 0.2 0.04 0 0.24 0.04 0 0.28 0.04 0 0.32 0.04 0 0.36 0.04 0 0.4 0.04 0 0.44 0.04 0 0.48 0.04 0 0.52 0.04 0 0.56 0.04 0 0.6 0.04 0 0.64 0.04 0 0.68 0.04 0 0.72 0.04 0 0.76 0.04 0 0.8 0.04 0 0.84 0.04 0 0.88 0.04 0 0.92 0.04 0 0.96 0.04 0 1 0.04 0 1.04 0.04 0 1.08 0.04 0 1.12 0.04 0 1.16 0.04 0 1.2 0.04 0 0 0.08 0 0.04 0.08 0 0.08 0.08 0 0.12 0.08 0 0.16 0.08 0 0.2 0.08 0 0.24 0.08 0 0.28 0.08 0 0.32 0.08 0 0.36 0.08 0 0.4 0.08 0 0.44 0.08 0 0.48 0.08 0 0.52 0.08 0 0.56 0.08 0 0.6 0.08 0 0.64 0.08 0 0.68 0.08 0 0.72 0.08 0 0.76 0.08 0 0.8 0.08 0 0.84 0.08 0 0.88 0.08 0 0.92 0.08 0 0.96 0.08 0 1 0.08 0 1.04 0.08 0 1.08 0.08 0 1.12 0.08 0 1.16 0.08 0 1.2 0.08 0 0 0.12 0 0.04 0.12 0 0.08 0.12 0 0.12 0.12 0 0.16 0.12 0 0.2 0.12 0 0.24 0.12 0 0.28 0.12 0 0.32 0.12 0 0.36 0.12 0 0.4 0.12 0 0.44 0.12 0 0.48 0.12 0 0.52 0.12 0 0.56 0.12 0 0.6 0.12 0 0.64 0.12 0 0.68 0.12 0 0.72 0.12 0 0.76 0.12 0 0.8 0.12 0 0.84 0.12 0 0.88 0.12 0 0.92 0.12 0 0.96 0.12 0 1 0.12 0 1.04 0.12 0 1.08 0.12 0 1.12 0.12 0 1.16 0.12 0 1.2 0.12 0 0 0.16 0 0.04 0.16 0 0.08 0.16 0 0.12 0.16 0 0.16 0.16 0 0.2 0.16 0 0.24 0.16 0 0.28 0.16 0 0.32 0.16 0 0.36 0.16 0 0.4 0.16 0 0.44 0.16 0 0.48 0.16 0 0.52 0.16 0 0.56 0.16 0 0.6 0.16 0 0.64 0.16 0 0.68 0.16 0 0.72 0.16 0 0.76 0.16 0 0.8 0.16 0 0.84 0.16 0 0.88 0.16 0 0.92 0.16 0 0.96 0.16 0 1 0.16 0 1.04 0.16 0 1.08 0.16 0 1.12 0.16 0 1.16 0.16 0 1.2 0.16 0 0 0.2 0 0.04 0.2 0 0.08 0.2 0 0.12 0.2 0 0.16 0.2 0 0.2 0.2 0 0.24 0.2 0 0.28 0.2 0 0.32 0.2 0 0.36 0.2 0 0.4 0.2 0 0.44 0.2 0 0.48 0.2 0 0.52 0.2 0 0.56 0.2 0 0.6 0.2 0 0.64 0.2 0 0.68 0.2 0 0.72 0.2 0 0.76 0.2 0 0.8 0.2 0 0.84 0.2 0 0.88 0.2 0 0.92 0.2 0 0.96 0.2 0 1 0.2 0 1.04 0.2 0 1.08 0.2 0 1.12 0.2 0 1.16 0.2 0 1.2 0.2 0 0 0.24 0 0.04 0.24 0 0.08 0.24 0 0.12 0.24 0 0.16 0.24 0 0.2 0.24 0 0.24 0.24 0 0.28 0.24 0 0.32 0.24 0 0.36 0.24 0 0.4 0.24 0 0.44 0.24 0 0.48 0.24 0 0.52 0.24 0 0.56 0.24 0 0.6 0.24 0 0.64 0.24 0 0.68 0.24 0 0.72 0.24 0 0.76 0.24 0 0.8 0.24 0 0.84 0.24 0 0.88 0.24 0 0.92 0.24 0 0.96 0.24 0 1 0.24 0 1.04 0.24 0 1.08 0.24 0 1.12 0.24 0 1.16 0.24 0 1.2 0.24 0 0 0.28 0 0.04 0.28 0 0.08 0.28 0 0.12 0.28 0 0.16 0.28 0 0.2 0.28 0 0.24 0.28 0 0.28 0.28 0 0.32 0.28 0 0.36 0.28 0 0.4 0.28 0 0.44 0.28 0 0.48 0.28 0 0.52 0.28 0 0.56 0.28 0 0.6 0.28 0 0.64 0.28 0 0.68 0.28 0 0.72 0.28 0 0.76 0.28 0 0.8 0.28 0 0.84 0.28 0 0.88 0.28 0 0.92 0.28 0 0.96 0.28 0 1 0.28 0 1.04 0.28 0 1.08 0.28 0 1.12 0.28 0 1.16 0.28 0 1.2 0.28 0 0 0.32 0 0.04 0.32 0 0.08 0.32 0 0.12 0.32 0 0.16 0.32 0 0.2 0.32 0 0.24 0.32 0 0.28 0.32 0 0.32 0.32 0 0.36 0.32 0 0.4 0.32 0 0.44 0.32 0 0.48 0.32 0 0.52 0.32 0 0.56 0.32 0 0.6 0.32 0 0.64 0.32 0 0.68 0.32 0 0.72 0.32 0 0.76 0.32 0 0.8 0.32 0 0.84 0.32 0 0.88 0.32 0 0.92 0.32 0 0.96 0.32 0 1 0.32 0 1.04 0.32 0 1.08 0.32 0 1.12 0.32 0 1.16 0.32 0 1.2 0.32 0 0 0.36 0 0.04 0.36 0 0.08 0.36 0 0.12 0.36 0 0.16 0.36 0 0.2 0.36 0 0.24 0.36 0 0.28 0.36 0 0.32 0.36 0 0.36 0.36 0 0.4 0.36 0 0.44 0.36 0 0.48 0.36 0 0.52 0.36 0 0.56 0.36 0 0.6 0.36 0 0.64 0.36 0 0.68 0.36 0 0.72 0.36 0 0.76 0.36 0 0.8 0.36 0 0.84 0.36 0 0.88 0.36 0 0.92 0.36 0 0.96 0.36 0 1 0.36 0 1.04 0.36 0 1.08 0.36 0 1.12 0.36 0 1.16 0.36 0 1.2 0.36 0 0 0.4 0 0.04 0.4 0 0.08 0.4 0 0.12 0.4 0 0.16 0.4 0 0.2 0.4 0 0.24 0.4 0 0.28 0.4 0 0.32 0.4 0 0.36 0.4 0 0.4 0.4 0 0.44 0.4 0 0.48 0.4 0 0.52 0.4 0 0.56 0.4 0 0.6 0.4 0 0.64 0.4 0 0.68 0.4 0 0.72 0.4 0 0.76 0.4 0 0.8 0.4 0 0.84 0.4 0 0.88 0.4 0 0.92 0.4 0 0.96 0.4 0 1 0.4 0 1.04 0.4 0 1.08 0.4 0 1.12 0.4 0 1.16 0.4 0 1.2 0.4 0 0 0.44 0 0.04 0.44 0 0.08 0.44 0 0.12 0.44 0 0.16 0.44 0 0.2 0.44 0 0.24 0.44 0 0.28 0.44 0 0.32 0.44 0 0.36 0.44 0 0.4 0.44 0 0.44 0.44 0 0.48 0.44 0 0.52 0.44 0 0.56 0.44 0 0.6 0.44 0 0.64 0.44 0 0.68 0.44 0 0.72 0.44 0 0.76 0.44 0 0.8 0.44 0 0.84 0.44 0 0.88 0.44 0 0.92 0.44 0 0.96 0.44 0 1 0.44 0 1.04 0.44 0 1.08 0.44 0 1.12 0.44 0 1.16 0.44 0 1.2 0.44 0 0 0.48 0 0.04 0.48 0 0.08 0.48 0 0.12 0.48 0 0.16 0.48 0 0.2 0.48 0 0.24 0.48 0 0.28 0.48 0 0.32 0.48 0 0.36 0.48 0 0.4 0.48 0 0.44 0.48 0 0.48 0.48 0 0.52 0.48 0 0.56 0.48 0 0.6 0.48 0 0.64 0.48 0 0.68 0.48 0 0.72 0.48 0 0.76 0.48 0 0.8 0.48 0 0.84 0.48 0 0.88 0.48 0 0.92 0.48 0 0.96 0.48 0 1 0.48 0 1.04 0.48 0 1.08 0.48 0 1.12 0.48 0 1.16 0.48 0 1.2 0.48 0 0 0.52 0 0.04 0.52 0 0.08 0.52 0 0.12 0.52 0 0.16 0.52 0 0.2 0.52 0 0.24 0.52 0 0.28 0.52 0 0.32 0.52 0 0.36 0.52 0 0.4 0.52 0 0.44 0.52 0 0.48 0.52 0 0.52 0.52 0 0.56 0.52 0 0.6 0.52 0 0.64 0.52 0 0.68 0.52 0 0.72 0.52 0 0.76 0.52 0 0.8 0.52 0 0.84 0.52 0 0.88 0.52 0 0.92 0.52 0 0.96 0.52 0 1 0.52 0 1.04 0.52 0 1.08 0.52 0 1.12 0.52 0 1.16 0.52 0 1.2 0.52 0 0 0.56 0 0.04 0.56 0 0.08 0.56 0 0.12 0.56 0 0.16 0.56 0 0.2 0.56 0 0.24 0.56 0 0.28 0.56 0 0.32 0.56 0 0.36 0.56 0 0.4 0.56 0 0.44 0.56 0 0.48 0.56 0 0.52 0.56 0 0.56 0.56 0 0.6 0.56 0 0.64 0.56 0 0.68 0.56 0 0.72 0.56 0 0.76 0.56 0 0.8 0.56 0 0.84 0.56 0 0.88 0.56 0 0.92 0.56 0 0.96 0.56 0 1 0.56 0 1.04 0.56 0 1.08 0.56 0 1.12 0.56 0 1.16 0.56 0 1.2 0.56 0 0 0.6 0 0.04 0.6 0 0.08 0.6 0 0.12 0.6 0 0.16 0.6 0 0.2 0.6 0 0.24 0.6 0 0.28 0.6 0 0.32 0.6 0 0.36 0.6 0 0.4 0.6 0 0.44 0.6 0 0.48 0.6 0 0.52 0.6 0 0.56 0.6 0 0.6 0.6 0 0.64 0.6 0 0.68 0.6 0 0.72 0.6 0 0.76 0.6 0 0.8 0.6 0 0.84 0.6 0 0.88 0.6 0 0.92 0.6 0 0.96 0.6 0 1 0.6 0 1.04 0.6 0 1.08 0.6 0 1.12 0.6 0 1.16 0.6 0 1.2 0.6 0 0 0.64 0 0.04 0.64 0 0.08 0.64 0 0.12 0.64 0 0.16 0.64 0 0.2 0.64 0 0.24 0.64 0 0.28 0.64 0 0.32 0.64 0 0.36 0.64 0 0.4 0.64 0 0.44 0.64 0 0.48 0.64 0 0.52 0.64 0 0.56 0.64 0 0.6 0.64 0 0.64 0.64 0 0.68 0.64 0 0.72 0.64 0 0.76 0.64 0 0.8 0.64 0 0.84 0.64 0 0.88 0.64 0 0.92 0.64 0 0.96 0.64 0 1 0.64 0 1.04 0.64 0 1.08 0.64 0 1.12 0.64 0 1.16 0.64 0 1.2 0.64 0 0 0.68 0 0.04 0.68 0 0.08 0.68 0 0.12 0.68 0 0.16 0.68 0 0.2 0.68 0 0.24 0.68 0 0.28 0.68 0 0.32 0.68 0 0.36 0.68 0 0.4 0.68 0 0.44 0.68 0 0.48 0.68 0 0.52 0.68 0 0.56 0.68 0 0.6 0.68 0 0.64 0.68 0 0.68 0.68 0 0.72 0.68 0 0.76 0.68 0 0.8 0.68 0 0.84 0.68 0 0.88 0.68 0 0.92 0.68 0 0.96 0.68 0 1 0.68 0 1.04 0.68 0 1.08 0.68 0 1.12 0.68 0 1.16 0.68 0 1.2 0.68 0 0 0.72 0 0.04 0.72 0 0.08 0.72 0 0.12 0.72 0 0.16 0.72 0 0.2 0.72 0 0.24 0.72 0 0.28 0.72 0 0.32 0.72 0 0.36 0.72 0 0.4 0.72 0 0.44 0.72 0 0.48 0.72 0 0.52 0.72 0 0.56 0.72 0 0.6 0.72 0 0.64 0.72 0 0.68 0.72 0 0.72 0.72 0 0.76 0.72 0 0.8 0.72 0 0.84 0.72 0 0.88 0.72 0 0.92 0.72 0 0.96 0.72 0 1 0.72 0 1.04 0.72 0 1.08 0.72 0 1.12 0.72 0 1.16 0.72 0 1.2 0.72 0 0 0.76 0 0.04 0.76 0 0.08 0.76 0 0.12 0.76 0 0.16 0.76 0 0.2 0.76 0 0.24 0.76 0 0.28 0.76 0 0.32 0.76 0 0.36 0.76 0 0.4 0.76 0 0.44 0.76 0 0.48 0.76 0 0.52 0.76 0 0.56 0.76 0 0.6 0.76 0 0.64 0.76 0 0.68 0.76 0 0.72 0.76 0 0.76 0.76 0 0.8 0.76 0 0.84 0.76 0 0.88 0.76 0 0.92 0.76 0 0.96 0.76 0 1 0.76 0 1.04 0.76 0 1.08 0.76 0 1.12 0.76 0 1.16 0.76 0 1.2 0.76 0 0 0.8 0 0.04 0.8 0 0.08 0.8 0 0.12 0.8 0 0.16 0.8 0 0.2 0.8 0 0.24 0.8 0 0.28 0.8 0 0.32 0.8 0 0.36 0.8 0 0.4 0.8 0 0.44 0.8 0 0.48 0.8 0 0.52 0.8 0 0.56 0.8 0 0.6 0.8 0 0.64 0.8 0 0.68 0.8 0 0.72 0.8 0 0.76 0.8 0 0.8 0.8 0 0.84 0.8 0 0.88 0.8 0 0.92 0.8 0 0.96 0.8 0 1 0.8 0 1.04 0.8 0 1.08 0.8 0 1.12 0.8 0 1.16 0.8 0 1.2 0.8 0 0 0.84 0 0.04 0.84 0 0.08 0.84 0 0.12 0.84 0 0.16 0.84 0 0.2 0.84 0 0.24 0.84 0 0.28 0.84 0 0.32 0.84 0 0.36 0.84 0 0.4 0.84 0 0.44 0.84 0 0.48 0.84 0 0.52 0.84 0 0.56 0.84 0 0.6 0.84 0 0.64 0.84 0 0.68 0.84 0 0.72 0.84 0 0.76 0.84 0 0.8 0.84 0 0.84 0.84 0 0.88 0.84 0 0.92 0.84 0 0.96 0.84 0 1 0.84 0 1.04 0.84 0 1.08 0.84 0 1.12 0.84 0 1.16 0.84 0 1.2 0.84 0 0 0.88 0 0.04 0.88 0 0.08 0.88 0 0.12 0.88 0 0.16 0.88 0 0.2 0.88 0 0.24 0.88 0 0.28 0.88 0 0.32 0.88 0 0.36 0.88 0 0.4 0.88 0 0.44 0.88 0 0.48 0.88 0 0.52 0.88 0 0.56 0.88 0 0.6 0.88 0 0.64 0.88 0 0.68 0.88 0 0.72 0.88 0 0.76 0.88 0 0.8 0.88 0 0.84 0.88 0 0.88 0.88 0 0.92 0.88 0 0.96 0.88 0 1 0.88 0 1.04 0.88 0 1.08 0.88 0 1.12 0.88 0 1.16 0.88 0 1.2 0.88 0 0 0.92 0 0.04 0.92 0 0.08 0.92 0 0.12 0.92 0 0.16 0.92 0 0.2 0.92 0 0.24 0.92 0 0.28 0.92 0 0.32 0.92 0 0.36 0.92 0 0.4 0.92 0 0.44 0.92 0 0.48 0.92 0 0.52 0.92 0 0.56 0.92 0 0.6 0.92 0 0.64 0.92 0 0.68 0.92 0 0.72 0.92 0 0.76 0.92 0 0.8 0.92 0 0.84 0.92 0 0.88 0.92 0 0.92 0.92 0 0.96 0.92 0 1 0.92 0 1.04 0.92 0 1.08 0.92 0 1.12 0.92 0 1.16 0.92 0 1.2 0.92 0 0 0.96 0 0.04 0.96 0 0.08 0.96 0 0.12 0.96 0 0.16 0.96 0 0.2 0.96 0 0.24 0.96 0 0.28 0.96 0 0.32 0.96 0 0.36 0.96 0 0.4 0.96 0 0.44 0.96 0 0.48 0.96 0 0.52 0.96 0 0.56 0.96 0 0.6 0.96 0 0.64 0.96 0 0.68 0.96 0 0.72 0.96 0 0.76 0.96 0 0.8 0.96 0 0.84 0.96 0 0.88 0.96 0 0.92 0.96 0 0.96 0.96 0 1 0.96 0 1.04 0.96 0 1.08 0.96 0 1.12 0.96 0 1.16 0.96 0 1.2 0.96 0 0 1 0 0.04 1 0 0.08 1 0 0.12 1 0 0.16 1 0 0.2 1 0 0.24 1 0 0.28 1 0 0.32 1 0 0.36 1 0 0.4 1 0 0.44 1 0 0.48 1 0 0.52 1 0 0.56 1 0 0.6 1 0 0.64 1 0 0.68 1 0 0.72 1 0 0.76 1 0 0.8 1 0 0.84 1 0 0.88 1 0 0.92 1 0 0.96 1 0 1 1 0 1.04 1 0 1.08 1 0 1.12 1 0 1.16 1 0 1.2 1 0 0 1.04 0 0.04 1.04 0 0.08 1.04 0 0.12 1.04 0 0.16 1.04 0 0.2 1.04 0 0.24 1.04 0 0.28 1.04 0 0.32 1.04 0 0.36 1.04 0 0.4 1.04 0 0.44 1.04 0 0.48 1.04 0 0.52 1.04 0 0.56 1.04 0 0.6 1.04 0 0.64 1.04 0 0.68 1.04 0 0.72 1.04 0 0.76 1.04 0 0.8 1.04 0 0.84 1.04 0 0.88 1.04 0 0.92 1.04 0 0.96 1.04 0 1 1.04 0 1.04 1.04 0 1.08 1.04 0 1.12 1.04 0 1.16 1.04 0 1.2 1.04 0 0 1.08 0 0.04 1.08 0 0.08 1.08 0 0.12 1.08 0 0.16 1.08 0 0.2 1.08 0 0.24 1.08 0 0.28 1.08 0 0.32 1.08 0 0.36 1.08 0 0.4 1.08 0 0.44 1.08 0 0.48 1.08 0 0.52 1.08 0 0.56 1.08 0 0.6 1.08 0 0.64 1.08 0 0.68 1.08 0 0.72 1.08 0 0.76 1.08 0 0.8 1.08 0 0.84 1.08 0 0.88 1.08 0 0.92 1.08 0 0.96 1.08 0 1 1.08 0 1.04 1.08 0 1.08 1.08 0 1.12 1.08 0 1.16 1.08 0 1.2 1.08 0 0 1.12 0 
[...]
			<CellData Scalars="Density">
				<DataArray Name="Density" type="Float32" format="ascii">
 0.00752839 0.00813742 0.00956839 0.011976 0.0153751 0.0198326 0.0254857 0.0325604 0.0414259 0.052672 0.0671944 0.0863546 0.112274 0.148264 0.199325 0.273374 0.383744 0.553783 0.82436 1.24418 1.82456 2.42822 2.50962 1.93863 1.16128 1.02526 1.00163 1 1 1 0.00813082 0.00879523 0.0102401 0.0127603 0.0164232 0.0213291 0.0276548 0.0356387 0.0456495 0.0582236 0.0742174 0.0948823 0.122206 0.159286 0.210947 0.285175 0.394406 0.559298 0.815903 1.22243 1.79204 2.36815 2.44447 1.90031 1.16137 1.02578 1.00167 1 1 1 0.00955315 0.0102394 0.0116197 0.0141516 0.0179387 0.0231159 0.0298947 0.0385675 0.0495245 0.0633638 0.0809407 0.103602 0.133357 0.173393 0.228742 0.307333 0.422906 0.598058 0.870352 1.29557 1.8746 2.43496 2.46185 1.80664 1.14739 1.02487 1.0016 1 1 1 0.0119459 0.0127612 0.0141679 0.0169741 0.0212756 0.0272435 0.0351424 0.0453217 0.0582603 0.0745674 0.0952441 0.121649 0.156068 0.20168 0.264004 0.351143 0.476858 0.667126 0.962109 1.41403 1.97415 2.42932 2.38171 1.65458 1.11249 1.01953 1.00131 1 1 1 0.015322 0.016412 0.0179616 0.0212965 0.0264735 0.0336677 0.0432202 0.055496 0.0710659 0.0906492 0.115283 0.146621 0.186994 0.240196 0.311732 0.411585 0.55542 0.772081 1.10504 1.60182 2.17167 2.50995 2.30506 1.48087 1.08066 1.01324 1.00075 1 1 1 0.0197529 0.0213035 0.0231364 0.0272722 0.0336924 0.0425212 0.0541511 0.0689831 0.0876059 0.110891 0.140048 0.176917 0.224451 0.286801 0.371616 0.489202 0.661297 0.918602 1.31421 1.86513 2.41828 2.58908 2.13663 1.2897 1.05559 1.00754 1.00026 1 1 1 0.0253766 0.0276032 0.0299051 0.0351713 0.0432455 0.0541758 0.068393 0.0862914 0.108617 0.13625 0.170824 0.214345 0.270495 0.344143 0.444524 0.585514 0.792546 1.10707 1.58521 2.17289 2.62886 2.59583 1.78993 1.16258 1.03271 1.0033 1.00004 1 1 1 0.0324167 0.0355558 0.0385465 0.0453319 0.0555062 0.0689649 0.0862902 0.107815 0.134384 0.167176 0.207942 0.259557 0.326123 0.41451 0.536228 0.70992 0.968944 1.36469 1.93218 2.51188 2.7622 2.36855 1.43511 1.089 1.01479 1.00096 1 1 1 1 0.0412496 0.0455296 0.0494785 0.0582235 0.0710414 0.0875662 0.108514 0.134365 0.166029 0.204878 0.253286 0.314547 0.394553 0.501152 0.650743 0.867702 1.19502 1.68819 2.29874 2.75357 2.7082 1.86481 1.19654 1.04374 1.00528 1.00013 1 1 1 1 0.0524556 0.0580771 0.0632835 0.0745209 0.0905662 0.110792 0.136161 0.167024 0.204848 0.251206 0.309075 0.382989 0.480265 0.613223 0.801986 1.07935 1.50837 2.0978 2.67259 2.87007 2.36491 1.42465 1.09077 1.0167 1.00121 1.00001 1 1 1 1 0.066933 0.0740238 0.0808471 0.0951571 0.115229 0.139937 0.170653 0.20789 0.253153 0.309042 0.379343 0.469966 0.59135 0.759863 1.00591 1.37102 1.9162 2.53523 2.88923 2.67121 1.74888 1.17423 1.04102 1.00497 1.00013 1 1 1 1 1 0.0860303 0.0946526 0.10346 0.12159 0.146515 0.176829 0.214278 0.259395 0.314612 0.382883 0.47011 0.584593 0.741455 0.962863 1.29007 1.783 2.39871 2.88098 2.90267 2.11638 1.31195 1.07287 1.01296 1.00082 1 1 1 1 1 1 0.111864 0.121893 0.133182 0.155893 0.186983 0.224296 0.27027 0.326086 0.394255 0.480291 0.591134 0.74055 0.94955 1.25171 1.69802 2.29439 2.8608 2.95503 2.39815 1.47439 1.11569 1.02739 1.00281 1.00004 1 1 1 1 1 1 0.147751 0.158862 0.173133 0.201536 0.239961 0.286854 0.344144 0.414469 0.501429 0.612759 0.761142 0.962554 1.2504 1.67277 2.24401 2.78867 3.0097 2.60067 1.68779 1.17367 1.04464 1.00638 1.00025 1 1 1 1 1 1 1 0.198664 0.210437 0.228365 0.263691 0.311756 0.37108 0.44429 0.536017 0.65089 0.801474 1.00468 1.29237 1.70034 2.23414 2.79679 3.03836 2.72814 1.81605 1.22506 1.06362 1.01159 1.00076 1 1 1 1 1 1 1 1 0.272524 0.284449 0.30685 0.3506 0.41112 0.489472 0.584941 0.709916 0.867557 1.08072 1.37088 1.77986 2.30008 2.80738 3.01059 2.75581 1.89286 1.28044 1.07773 1.01703 1.00157 1.00002 1 1 1 1 1 1 1 1 0.382658 0.393445 0.422156 0.476539 0.555101 0.660449 0.792695 0.968538 1.19387 1.50411 1.92028 2.39899 2.83354 3.0265 2.71652 1.91756 1.28952 1.08514 1.02176 1.00243 1.00005 1 1 1 1 1 1 1 1 1 0.552322 0.557983 0.596843 0.666013 0.771947 0.918126 1.10524 1.3648 1.69071 2.09326 2.52982 2.89462 2.96269 2.61585 1.80828 1.27389 1.08714 1.02321 1.00299 1.00009 1 1 1 1 1 1 1 1 1 1 0.822368 0.81411 0.868699 0.961053 1.1038 1.31417 1.5843 1.92997 2.30299 2.67809 2.89316 2.89463 2.39472 1.67492 1.23457 1.0767 1.02156 1.00301 1.0001 1 1 1 1 1 1 1 1 1 1 1 1.24152 1.21989 1.29314 1.41243 1.60048 1.86289 2.17494 2.50739 2.75312 2.85407 2.68611 2.09786 1.49393 1.16712 1.06353 1.01726 1.00242 1.00009 1 1 1 1 1 1 1 1 1 1 1 1 1.82155 1.78913 1.87154 1.97165 2.17308 2.41569 2.63227 2.75732 2.7263 2.35165 1.76639 1.30135 1.11774 1.04524 1.01148 1.00157 1.00005 1 1 1 1 1 1 1 1 1 1 1 1 1 2.42589 2.36579 2.43345 2.42694 2.5117 2.58845 2.60469 2.35888 1.87408 1.41657 1.17786 1.07396 1.02701 1.00643 1.00076 1.00002 1 1 1 1 1 1 1 1 1 1 1 1 1 1 2.50979 2.44386 2.46275 2.38181 2.30803 2.13055 1.79709 1.43349 1.1969 1.09161 1.03996 1.01322 1.00279 1.00025 1 1 1 1 1 1 1 1 1 1 1 1 1 1 1 1 1.94165 1.90232 1.81064 1.65495 1.4854 1.28969 1.16141 1.09072 1.04228 1.01724 1.00489 1.00084 1.00004 1 1 1 1 1 1 1 1 1 1 1 1 1 1 1 1 1 1.16231 1.16226 1.14811 1.11317 1.08095 1.05669 1.03157 1.01544 1.0052 1.00124 1.00012 1 1 1 1 1 1 1 1 1 1 1 1 1 1 1 1 1 1 1 1.02543 1.02595 1.02502 1.01953 1.01318 1.00795 1.00326 1.00096 1.00013 1.00001 1 1 1 1 1 1 1 1 1 1 1 1 1 1 1 1 1 1 1 1 1.00165 1.00168 1.00161 1.00132 1.00072 1.00026 1.00005 1 1 1 1 1 1 1 1 1 1 1 1 1 1 1 1 1 1 1 1 1 1 1 1 1 1 1 1 1 1 1 1 1 1 1 1 1 1 1 1 1 1 1 1 1 1 1 1 1 1 1 1 1 1 1 1 1 1 1 1 1 1 1 1 1 1 1 1 1 1 1 1 1 1 1 1 1 1 1 1 1 1 1 1 1 1 1 1 1 1 1 1 1 1 1 1 1 1 1 1 1 1 1 1 1 1 1 1 1 1 1 1 1
				</DataArray>
				<DataArray Name="Energy" type="Float32" format="ascii">
 1094.78 1011.25 860.339 687.7 535.999 415.914 324.102 254.191 200.39 158.31 124.89 98.0391 76.3423 58.8372 44.8003 33.704 25.1164 18.6341 13.8624 10.3585 7.72258 5.64953 3.68517 1.6724 0.151184 0.00155233 3.49511e-06 2.50001e-06 2.5e-06 2.5e-06 1012.08 933.525 801.681 643.4 500.04 385.271 297.48 231.231 181.017 142.471 112.404 88.6218 69.583 54.2267 41.8284 31.8733 24.0069 17.9406 13.3943 10.0591 7.53573 5.49451 3.54185 1.57078 0.139461 0.00146377 3.46318e-06 2.50001e-06 2.5e-06 2.5e-06 861.726 801.739 706.573 580.286 457.982 355.677 275.378 213.915 167.116 131.253 103.445 81.5915 64.2053 50.262 39.0302 30.0291 22.917 17.3828 13.1176 9.87705 7.36623 5.33436 3.35369 1.36339 0.104008 0.00106136 3.17648e-06 2.50001e-06 2.5e-06 2.5e-06 689.445 643.358 579.62 483.912 386.261 301.919 234.36 182.11 142.142 111.572 87.9644 69.5387 54.9678 43.3506 34.0447 26.5718 20.6007 15.8786 12.1873 9.34371 7.03769 5.09986 3.15647 1.14843 0.0710618 0.000585513 2.80754e-06 2.5e-06 2.5e-06 2.5e-06 537.867 500.387 457.406 385.886 310.592 244.467 190.75 148.909 116.725 92.0377 72.9416 58.0103 46.1905 36.7414 29.1519 23.0306 18.1058 14.1705 11.0368 8.56741 6.49149 4.64561 2.72566 0.78242 0.0312164 0.000163909 2.55367e-06 2.5e-06 2.5e-06 2.5e-06 417.602 385.743 355.368 301.6 244.299 193.793 152.461 120.052 94.9314 75.4841 60.317 48.3595 38.824 31.1496 24.9513 19.9105 15.8329 12.5261 9.86666 7.69778 5.8133 4.03946 2.11054 0.365931 0.00775171 2.12965e-05 2.50301e-06 2.5e-06 2.5e-06 2.5e-06 325.504 298.045 275.294 234.17 190.627 152.412 121.001 96.2418 76.8895 61.7531 49.8116 40.2973 32.6347 26.396 21.3143 17.15 13.752 10.9719 8.72047 6.78895 5.04715 3.28555 1.30817 0.101015 0.00104246 3.47149e-06 2.5001e-06 2.5e-06 2.5e-06 2.5e-06 255.32 231.786 214.033 182.088 148.883 120.064 96.2678 77.3886 62.494 50.7226 41.3212 33.7354 27.5597 22.4892 18.3076 14.8561 12.0147 9.65432 7.6953 5.92649 4.24786 2.41176 0.558534 0.0169207 7.32096e-05 2.5254e-06 2.5e-06 2.5e-06 2.5e-06 2.5e-06 201.256 181.492 167.283 142.217 116.78 94.9853 76.9382 62.5228 51.0312 41.8414 34.4205 28.356 23.3554 19.204 15.759 12.8719 10.4724 8.46468 6.69735 5.04238 3.34397 1.38594 0.125286 0.00157712 4.56746e-06 2.50052e-06 2.5e-06 2.5e-06 2.5e-06 2.5e-06 158.961 142.844 131.417 111.651 92.099 75.551 61.8022 50.75 41.8566 34.6562 28.769 23.9079 19.8533 16.445 13.5903 11.174 9.14305 7.38998 5.75405 4.13816 2.30941 0.499861 0.0149825 6.98976e-05 2.53156e-06 2.50001e-06 2.5e-06 2.5e-06 2.5e-06 2.5e-06 125.38 112.69 103.575 88.038 72.9897 60.3665 49.8536 41.3421 34.4301 28.776 24.0929 20.1746 16.8801 14.0802 11.6986 9.66621 7.93488 6.32695 4.76066 3.05614 1.11762 0.0806358 0.000877557 3.55785e-06 2.50037e-06 2.5e-06 2.5e-06 2.5e-06 2.5e-06 2.5e-06 98.406 88.845 81.6947 69.58 58.0343 48.3816 40.3192 33.7468 28.3565 23.9079 20.1841 17.0258 14.3391 12.0361 10.0423 8.32253 6.7811 5.25997 3.67526 1.77817 0.266588 0.00593491 2.19153e-05 2.5105e-06 2.5e-06 2.5e-06 2.5e-06 2.5e-06 2.5e-06 2.5e-06 76.6161 69.7561 64.2983 55.0096 46.2058 38.8348 32.6364 27.5637 23.3529 19.8417 16.8749 14.3386 12.1412 10.2276 8.57515 7.07672 5.63476 4.10008 2.34227 0.56542 0.022926 0.000165688 2.65134e-06 2.50007e-06 2.5e-06 2.5e-06 2.5e-06 2.5e-06 2.5e-06 2.5e-06 59.0353 54.3638 50.3336 43.3876 36.7613 31.1618 26.406 22.4858 19.2081 16.4427 14.078 12.028 10.2379 8.64755 7.22887 5.84429 4.41163 2.75084 0.914467 0.0652735 0.000788338 3.84471e-06 2.50107e-06 2.5e-06 2.5e-06 2.5e-06 2.5e-06 2.5e-06 2.5e-06 2.5e-06 44.9412 41.9328 39.093 34.071 29.1701 24.9559 21.3185 18.3102 15.7511 13.5885 11.6989 10.0365 8.56965 7.23164 5.92756 4.57121 3.00359 1.17981 0.126524 0.00239862 9.68001e-06 2.50764e-06 2.5e-06 2.5e-06 2.5e-06 2.5e-06 2.5e-06 2.5e-06 2.5e-06 2.5e-06 33.801 31.9481 30.0761 26.594 23.0416 19.9209 17.1518 14.8649 12.8751 11.1697 9.66693 8.32775 7.07384 5.84945 4.55601 3.08453 1.33527 0.184804 0.00477197 2.55571e-05 2.53072e-06 2.50002e-06 2.5e-06 2.5e-06 2.5e-06 2.5e-06 2.5e-06 2.5e-06 2.5e-06 2.5e-06 25.1805 24.0607 22.9514 20.6186 18.1162 15.8344 13.755 12.0131 10.4743 9.14045 7.93253 6.77848 5.62469 4.41934 2.99909 1.33492 0.205886 0.00666226 4.88667e-05 2.57597e-06 2.50008e-06 2.5e-06 2.5e-06 2.5e-06 2.5e-06 2.5e-06 2.5e-06 2.5e-06 2.5e-06 2.5e-06 18.6732 17.9767 17.4072 15.8893 14.1765 12.5285 10.9704 9.65787 8.46428 7.38748 6.33095 5.26823 4.10638 2.75339 1.1822 0.182939 0.00669334 6.00317e-05 2.61982e-06 2.5002e-06 2.5e-06 2.5e-06 2.5e-06 2.5e-06 2.5e-06 2.5e-06 2.5e-06 2.5e-06 2.5e-06 2.5e-06 13.8853 13.4167 13.1342 12.1968 11.0406 9.86971 8.72071 7.698 6.70145 5.75234 4.7633 3.66422 2.34411 0.909315 0.128685 0.00475794 4.82882e-05 2.62044e-06 2.50027e-06 2.5e-06 2.5e-06 2.5e-06 2.5e-06 2.5e-06 2.5e-06 2.5e-06 2.5e-06 2.5e-06 2.5e-06 2.5e-06 10.3714 10.072 9.88775 9.34799 8.57015 7.70043 6.79074 5.92236 5.04633 4.12799 3.06718 1.77135 0.573426 0.0644186 0.00239509 2.60078e-05 2.57568e-06 2.5002e-06 2.5e-06 2.5e-06 2.5e-06 2.5e-06 2.5e-06 2.5e-06 2.5e-06 2.5e-06 2.5e-06 2.5e-06 2.5e-06 2.5e-06 7.7297 7.5441 7.37428 7.04079 6.49359 5.81332 5.05351 4.24506 3.35238 2.30468 1.12125 0.264759 0.023311 0.000796687 9.60227e-06 2.53072e-06 2.50009e-06 2.5e-06 2.5e-06 2.5e-06 2.5e-06 2.5e-06 2.5e-06 2.5e-06 2.5e-06 2.5e-06 2.5e-06 2.5e-06 2.5e-06 2.5e-06 5.65474 5.49999 5.34028 5.10284 4.65062 4.0374 3.29001 2.41241 1.38858 0.499509 0.0813062 0.00595045 0.000166629 3.84325e-06 2.50772e-06 2.50002e-06 2.5e-06 2.5e-06 2.5e-06 2.5e-06 2.5e-06 2.5e-06 2.5e-06 2.5e-06 2.5e-06 2.5e-06 2.5e-06 2.5e-06 2.5e-06 2.5e-06 3.69022 3.54647 3.35928 3.15921 2.73026 2.1123 1.30951 0.558923 0.124702 0.014942 0.000883906 2.1531e-05 2.65387e-06 2.50106e-06 2.5e-06 2.5e-06 2.5e-06 2.5e-06 2.5e-06 2.5e-06 2.5e-06 2.5e-06 2.5e-06 2.5e-06 2.5e-06 2.5e-06 2.5e-06 2.5e-06 2.5e-06 2.5e-06 1.67818 1.5756 1.36975 1.15286 0.786333 0.36749 0.101074 0.0170445 0.00156998 6.85396e-05 3.63025e-06 2.51049e-06 2.50008e-06 2.5e-06 2.5e-06 2.5e-06 2.5e-06 2.5e-06 2.5e-06 2.5e-06 2.5e-06 2.5e-06 2.5e-06 2.5e-06 2.5e-06 2.5e-06 2.5e-06 2.5e-06 2.5e-06 2.5e-06 0.152879 0.140863 0.105041 0.071669 0.0314957 0.00784325 0.00104103 7.36167e-05 4.71172e-06 2.53054e-06 2.50041e-06 2.5e-06 2.5e-06 2.5e-06 2.5e-06 2.5e-06 2.5e-06 2.5e-06 2.5e-06 2.5e-06 2.5e-06 2.5e-06 2.5e-06 2.5e-06 2.5e-06 2.5e-06 2.5e-06 2.5e-06 2.5e-06 2.5e-06 0.00157963 0.0014879 0.00107872 0.000594533 0.000165302 2.19844e-05 3.54108e-06 2.52449e-06 2.50053e-06 2.50001e-06 2.5e-06 2.5e-06 2.5e-06 2.5e-06 2.5e-06 2.5e-06 2.5e-06 2.5e-06 2.5e-06 2.5e-06 2.5e-06 2.5e-06 2.5e-06 2.5e-06 2.5e-06 2.5e-06 2.5e-06 2.5e-06 2.5e-06 2.5e-06 3.52333e-06 3.48923e-06 3.1946e-06 2.81631e-06 2.55324e-06 2.50287e-06 2.5001e-06 2.5e-06 2.5e-06 2.5e-06 2.5e-06 2.5e-06 2.5e-06 2.5e-06 2.5e-06 2.5e-06 2.5e-06 2.5e-06 2.5e-06 2.5e-06 2.5e-06 2.5e-06 2.5e-06 2.5e-06 2.5e-06 2.5e-06 2.5e-06 2.5e-06 2.5e-06 2.5e-06 2.50001e-06 2.50001e-06 2.50001e-06 2.5e-06 2.5e-06 2.5e-06 2.5e-06 2.5e-06 2.5e-06 2.5e-06 2.5e-06 2.5e-06 2.5e-06 2.5e-06 2.5e-06 2.5e-06 2.5e-06 2.5e-06 2.5e-06 2.5e-06 2.5e-06 2.5e-06 2.5e-06 2.5e-06 2.5e-06 2.5e-06 2.5e-06 2.5e-06 2.5e-06 2.5e-06 2.5e-06 2.5e-06 2.5e-06 2.5e-06 2.5e-06 2.5e-06 2.5e-06 2.5e-06 2.5e-06 2.5e-06 2.5e-06 2.5e-06 2.5e-06 2.5e-06 2.5e-06 2.5e-06 2.5e-06 2.5e-06 2.5e-06 2.5e-06 2.5e-06 2.5e-06 2.5e-06 2.5e-06 2.5e-06 2.5e-06 2.5e-06 2.5e-06 2.5e-06 2.5e-06 2.5e-06 2.5e-06 2.5e-06 2.5e-06 2.5e-06 2.5e-06 2.5e-06 2.5e-06 2.5e-06 2.5e-06 2.5e-06 2.5e-06 2.5e-06 2.5e-06 2.5e-06 2.5e-06 2.5e-06 2.5e-06 2.5e-06 2.5e-06 2.5e-06 2.5e-06 2.5e-06 2.5e-06 2.5e-06 2.5e-06 2.5e-06 2.5e-06 2.5e-06 2.5e-06
				</DataArray>
				<DataArray Name="F1" type="Float32" format="ascii">
 1 1 1 1 1 1 1 1 1 1 1 1 1 1 1 1 1 1 1 1 1 1 1 1 1 1 1 1 1 1 1 1 1 1 1 1 1 1 1 1 1 1 1 1 1 1 1 1 1 1 1 1 1 1 1 1 1 1 1 1 1 1 1 1 1 1 1 1 1 1 1 1 1 1 1 1 1 1 1 1 1 1 1 1 1 1 1 1 1 1 1 1 1 1 1 1 1 1 1 1 1 1 1 1 1 1 1 1 1 1 1 1 1 1 1 1 1 1 1 1 1 1 1 1 1 1 1 1 1 1 1 1 1 1 1 1 1 1 1 1 1 1 1 1 1 1 1 1 1 1 1 1 1 1 1 1 1 1 1 1 1 1 1 1 1 1 1 1 1 1 1 1 1 1 1 1 1 1 1 1 1 1 1 1 1 1 1 1 1 1 1 1 1 1 1 1 1 1 1 1 1 1 1 1 1 1 1 1 1 1 1 1 1 1 1 1 1 1 1 1 1 1 1 1 1 1 1 1 1 1 1 1 1 1 1 1 1 1 1 1 1 1 1 1 1 1 1 1 1 1 1 1 1 1 1 1 1 1 1 1 1 1 1 1 1 1 1 1 1 1 1 1 1 1 1 1 1 1 1 1 1 1 1 1 1 1 1 1 1 1 1 1 1 1 1 1 1 1 1 1 1 1 1 1 1 1 1 1 1 1 1 1 1 1 1 1 1 1 1 1 1 1 1 1 1 1 1 1 1 1 1 1 1 1 1 1 1 1 1 1 1 1 1 1 1 1 1 1 1 1 1 1 1 1 1 1 1 1 1 1 1 1 1 1 1 1 1 1 1 1 1 1 1 1 1 1 1 1 1 1 1 1 1 1 1 1 1 1 1 1 1 1 1 1 1 1 1 1 1 1 1 1 1 1 1 1 1 1 1 1 1 1 1 1 1 1 1 1 1 1 1 1 1 1 1 1 1 1 1 1 1 1 1 1 1 1 1 1 1 1 1 1 1 1 1 1 1 1 1 1 1 1 1 1 1 1 1 1 1 1 1 1 1 1 1 1 1 1 1 1 1 1 1 1 1 1 1 1 1 1 1 1 1 1 1 1 1 1 1 1 1 1 1 1 1 1 1 1 1 1 1 1 1 1 1 1 1 1 1 1 1 1 1 1 1 1 1 1 1 1 1 1 1 1 1 1 1 1 1 1 1 1 1 1 1 1 1 1 1 1 1 1 1 1 1 1 1 1 1 1 1 1 1 1 1 1 1 1 1 1 1 1 1 1 1 1 1 1 1 1 1 1 1 1 1 1 1 1 1 1 1 1 1 1 1 1 1 1 1 1 1 1 1 1 1 1 1 1 1 1 1 1 1 1 1 1 1 1 1 1 1 1 1 1 1 1 1 1 1 1 1 1 1 1 1 1 1 1 1 1 1 1 1 1 1 1 1 1 1 1 1 1 1 1 1 1 1 1 1 1 1 1 1 1 1 1 1 1 1 1 1 1 1 1 1 1 1 1 1 1 1 1 1 1 1 1 1 1 1 1 1 1 1 1 1 1 1 1 1 1 1 1 1 1 1 1 1 1 1 1 1 1 1 1 1 1 1 1 1 1 1 1 1 1 1 1 1 1 1 1 1 1 1 1 1 1 1 1 1 1 1 1 1 1 1 1 1 1 1 1 1 1 1 1 1 1 1 1 1 1 1 1 1 1 1 1 1 1 1 1 1 1 1 1 1 1 1 1 1 1 1 1 1 1 1 1 1 1 1 1 1 1 1 1 1 1 1 1 1 1 1 1 1 1 1 1 1 1 1 1 1 1 1 1 1 1 1 1 1 1 1 1 1 1 1 1 1 1 1 1 1 1 1 1 1 1 1 1 1 1 1 1 1 1 1 1 1 1 1 1 1 1 1 1 1 1 1 1 1 1 1 1 1 1 1 1 1 1 1 1 1 1 1 1 1 1 1 1 1 1 1 1 1 1 1 1 1 1 1 1 1 1 1 1 1 1 1 1 1 1 1 1 1 1 1 1 1 1 1 1
				</DataArray>
				<DataArray Name="F2" type="Float32" format="ascii">
 0 0 0 0 0 0 0 0 0 0 0 0 0 0 0 0 0 0 0 0 0 0 0 0 0 0 0 0 0 0 0 0 0 0 0 0 0 0 0 0 0 0 0 0 0 0 0 0 0 0 0 0 0 0 0 0 0 0 0 0 0 0 0 0 0 0 0 0 0 0 0 0 0 0 0 0 0 0 0 0 0 0 0 0 0 0 0 0 0 0 0 0 0 0 0 0 0 0 0 0 0 0 0 0 0 0 0 0 0 0 0 0 0 0 0 0 0 0 0 0 0 0 0 0 0 0 0 0 0 0 0 0 0 0 0 0 0 0 0 0 0 0 0 0 0 0 0 0 0 0 0 0 0 0 0 0 0 0 0 0 0 0 0 0 0 0 0 0 0 0 0 0 0 0 0 0 0 0 0 0 0 0 0 0 0 0 0 0 0 0 0 0 0 0 0 0 0 0 0 0 0 0 0 0 0 0 0 0 0 0 0 0 0 0 0 0 0 0 0 0 0 0 0 0 0 0 0 0 0 0 0 0 0 0 0 0 0 0 0 0 0 0 0 0 0 0 0 0 0 0 0 0 0 0 0 0 0 0 0 0 0 0 0 0 0 0 0 0 0 0 0 0 0 0 0 0 0 0 0 0 0 0 0 0 0 0 0 0 0 0 0 0 0 0 0 0 0 0 0 0 0 0 0 0 0 0 0 0 0 0 0 0 0 0 0 0 0 0 0 0 0 0 0 0 0 0 0 0 0 0 0 0 0 0 0 0 0 0 0 0 0 0 0 0 0 0 0 0 0 0 0 0 0 0 0 0 0 0 0 0 0 0 0 0 0 0 0 0 0 0 0 0 0 0 0 0 0 0 0 0 0 0 0 0 0 0 0 0 0 0 0 0 0 0 0 0 0 0 0 0 0 0 0 0 0 0 0 0 0 0 0 0 0 0 0 0 0 0 0 0 0 0 0 0 0 0 0 0 0 0 0 0 0 0 0 0 0 0 0 0 0 0 0 0 0 0 0 0 0 0 0 0 0 0 0 0 0 0 0 0 0 0 0 0 0 0 0 0 0 0 0 0 0 0 0 0 0 0 0 0 0 0 0 0 0 0 0 0 0 0 0 0 0 0 0 0 0 0 0 0 0 0 0 0 0 0 0 0 0 0 0 0 0 0 0 0 0 0 0 0 0 0 0 0 0 0 0 0 0 0 0 0 0 0 0 0 0 0 0 0 0 0 0 0 0 0 0 0 0 0 0 0 0 0 0 0 0 0 0 0 0 0 0 0 0 0 0 0 0 0 0 0 0 0 0 0 0 0 0 0 0 0 0 0 0 0 0 0 0 0 0 0 0 0 0 0 0 0 0 0 0 0 0 0 0 0 0 0 0 0 0 0 0 0 0 0 0 0 0 0 0 0 0 0 0 0 0 0 0 0 0 0 0 0 0 0 0 0 0 0 0 0 0 0 0 0 0 0 0 0 0 0 0 0 0 0 0 0 0 0 0 0 0 0 0 0 0 0 0 0 0 0 0 0 0 0 0 0 0 0 0 0 0 0 0 0 0 0 0 0 0 0 0 0 0 0 0 0 0 0 0 0 0 0 0 0 0 0 0 0 0 0 0 0 0 0 0 0 0 0 0 0 0 0 0 0 0 0 0 0 0 0 0 0 0 0 0 0 0 0 0 0 0 0 0 0 0 0 0 0 0 0 0 0 0 0 0 0 0 0 0 0 0 0 0 0 0 0 0 0 0 0 0 0 0 0 0 0 0 0 0 0 0 0 0 0 0 0 0 0 0 0 0 0 0 0 0 0 0 0 0 0 0 0 0 0 0 0 0 0 0 0 0 0 0 0 0 0 0 0 0 0 0 0 0 0 0 0 0 0 0 0 0 0 0 0 0 0 0 0 0 0 0 0 0 0 0 0 0 0 0 0 0 0 0 0 0 0 0 0 0 0 0 0 0 0 0 0 0 0 0 0 0 0 0 0 0 0 0 0 0 0 0 0 0 0 0 0 0 0 0 0 0 0 0 0 0 0 0 0
				</DataArray>
				<DataArray Name="F3" type="Float32" format="ascii">
 0 0 0 0 0 0 0 0 0 0 0 0 0 0 0 0 0 0 0 0 0 0 0 0 0 0 0 0 0 0 0 0 0 0 0 0 0 0 0 0 0 0 0 0 0 0 0 0 0 0 0 0 0 0 0 0 0 0 0 0 0 0 0 0 0 0 0 0 0 0 0 0 0 0 0 0 0 0 0 0 0 0 0 0 0 0 0 0 0 0 0 0 0 0 0 0 0 0 0 0 0 0 0 0 0 0 0 0 0 0 0 0 0 0 0 0 0 0 0 0 0 0 0 0 0 0 0 0 0 0 0 0 0 0 0 0 0 0 0 0 0 0 0 0 0 0 0 0 0 0 0 0 0 0 0 0 0 0 0 0 0 0 0 0 0 0 0 0 0 0 0 0 0 0 0 0 0 0 0 0 0 0 0 0 0 0 0 0 0 0 0 0 0 0 0 0 0 0 0 0 0 0 0 0 0 0 0 0 0 0 0 0 0 0 0 0 0 0 0 0 0 0 0 0 0 0 0 0 0 0 0 0 0 0 0 0 0 0 0 0 0 0 0 0 0 0 0 0 0 0 0 0 0 0 0 0 0 0 0 0 0 0 0 0 0 0 0 0 0 0 0 0 0 0 0 0 0 0 0 0 0 0 0 0 0 0 0 0 0 0 0 0 0 0 0 0 0 0 0 0 0 0 0 0 0 0 0 0 0 0 0 0 0 0 0 0 0 0 0 0 0 0 0 0 0 0 0 0 0 0 0 0 0 0 0 0 0 0 0 0 0 0 0 0 0 0 0 0 0 0 0 0 0 0 0 0 0 0 0 0 0 0 0 0 0 0 0 0 0 0 0 0 0 0 0 0 0 0 0 0 0 0 0 0 0 0 0 0 0 0 0 0 0 0 0 0 0 0 0 0 0 0 0 0 0 0 0 0 0 0 0 0 0 0 0 0 0 0 0 0 0 0 0 0 0 0 0 0 0 0 0 0 0 0 0 0 0 0 0 0 0 0 0 0 0 0 0 0 0 0 0 0 0 0 0 0 0 0 0 0 0 0 0 0 0 0 0 0 0 0 0 0 0 0 0 0 0 0 0 0 0 0 0 0 0 0 0 0 0 0 0 0 0 0 0 0 0 0 0 0 0 0 0 0 0 0 0 0 0 0 0 0 0 0 0 0 0 0 0 0 0 0 0 0 0 0 0 0 0 0 0 0 0 0 0 0 0 0 0 0 0 0 0 0 0 0 0 0 0 0 0 0 0 0 0 0 0 0 0 0 0 0 0 0 0 0 0 0 0 0 0 0 0 0 0 0 0 0 0 0 0 0 0 0 0 0 0 0 0 0 0 0 0 0 0 0 0 0 0 0 0 0 0 0 0 0 0 0 0 0 0 0 0 0 0 0 0 0 0 0 0 0 0 0 0 0 0 0 0 0 0 0 0 0 0 0 0 0 0 0 0 0 0 0 0 0 0 0 0 0 0 0 0 0 0 0 0 0 0 0 0 0 0 0 0 0 0 0 0 0 0 0 0 0 0 0 0 0 0 0 0 0 0 0 0 0 0 0 0 0 0 0 0 0 0 0 0 0 0 0 0 0 0 0 0 0 0 0 0 0 0 0 0 0 0 0 0 0 0 0 0 0 0 0 0 0 0 0 0 0 0 0 0 0 0 0 0 0 0 0 0 0 0 0 0 0 0 0 0 0 0 0 0 0 0 0 0 0 0 0 0 0 0 0 0 0 0 0 0 0 0 0 0 0 0 0 0 0 0 0 0 0 0 0 0 0 0 0 0 0 0 0 0 0 0 0 0 0 0 0 0 0 0 0 0 0 0 0 0 0 0 0 0 0 0 0 0 0 0 0 0 0 0 0 0 0 0 0 0 0 0 0 0 0 0 0 0 0 0 0 0 0 0 0 0 0 0 0 0 0 0 0 0 0 0 0 0 0 0 0 0 0 0 0 0 0 0 0 0 0 0 0 0 0 0 0 0 0 0 0 0 0 0 0 0 0 0 0 0 0 0 0 0 0 0 0 0 0 0 0
				</DataArray>
				<DataArray Name="Pressure" type="Float32" format="ascii">