<?xml version="1.0"?>
<VTKFile type="PolyData">
	<PolyData>
		<Piece NumberOfPoints="961" NumberOfPolys="900">
			<Points>
				<DataArray type="Float32" NumberOfComponents="3" format="ascii">
 0 0 0 0.04 0 0 0.08 0 0 0.12 0 0 0.16 0 0 0.2 0 0 0.24 0 0 0.28 0 0 0.32 0 0 0.36 0 0 0.4 0 0 0.44 0 0 0.48 0 0 0.52 0 0 0.56 0 0 0.6 0 0 0.64 0 0 0.68 0 0 0.72 0 0 0.76 0 0 0.8 0 0 0.84 0 0 0.88 0 0 0.92 0 0 0.96 0 0 1 0 0 1.04 0 0 1.08 0 0 1.12 0 0 1.16 0 0 1.2 0 0 0 0.04 0 0.04 0.04 0 0.08 0.04 0 0.12 0.04 0 0.16 0.04 0 0.2 0.04 0 0.24 0.04 0 0.28 0.04 0 0.32 0.04 0 0.36 0.04 0 0.4 0.04 0 0.44 0.04 0 0.48 0.04 0 0.52 0.04 0 0.56 0.04 0 0.6 0.04 0 0.64 0.04 0 0.68 0.04 0 0.72 0.04 0 0.76 0.04 0 0.8 0.04 0 0.84 0.04 0 0.88 0.04 0 0.92 0.04 0 0.96 0.04 0 1 0.04 0 1.04 0.04 0 1.08 0.04 0 1.12 0.04 0 1.16 0.04 0 1.2 0.04 0 0 0.08 0 0.04 0.08 0 0.08 0.08 0 0.12 0.08 0 0.16 0.08 0 0.2 0.08 0 0.24 0.08 0 0.28 0.08 0 0.32 0.08 0 0.36 0.08 0 0.4 0.08 0 0.44 0.08 0 0.48 0.08 0 0.52 0.08 0 0.56 0.08 0 0.6 0.08 0 0.64 0.08 0 0.68 0.08 0 0.72 0.08 0 0.76 0.08 0 0.8 0.08 0 0.84 0.08 0 0.88 0.08 0 0.92 0.08 0 0.96 0.08 0 1 0.08 0 1.04 0.08 0 1.08 0.08 0 1.12 0.08 0 1.16 0.08 0 1.2 0.08 0 0 0.12 0 0.04 0.12 0 0.08 0.12 0 0.12 0.12 0 0.16 0.12 0 0.2 0.12 0 0.24 0.12 0 0.28 0.12 0 0.32 0.12 0 0.36 0.12 0 0.4 0.12 0 0.44 0.12 0 0.48 0.12 0 0.52 0.12 0 0.56 0.12 0 0.6 0.12 0 0.64 0.12 0 0.68 0.12 0 0.72 0.12 0 0.76 0.12 0 0.8 0.12 0 0.84 0.12 0 0.88 0.12 0 0.92 0.12 0 0.96 0.12 0 1 0.12 0 1.04 0.12 0 1.08 0.12 0 1.12 0.12 0 1.16 0.12 0 1.2 0.12 0 0 0.16 0 0.04 0.16 0 0.08 0.16 0 0.12 0.16 0 0.16 0.16 0 0.2 0.16 0 0.24 0.16 0 0.28 0.16 0 0.32 0.16 0 0.36 0.16 0 0.4 0.16 0 0.44 0.16 0 0.48 0.16 0 0.52 0.16 0 0.56 0.16 0 0.6 0.16 0 0.64 0.16 0 0.68 0.16 0 0.72 0.16 0 0.76 0.16 0 0.8 0.16 0 0.84 0.16 0 0.88 0.16 0 0.92 0.16 0 0.96 0.16 0 1 0.16 0 1.04 0.16 0 1.08 0.16 0 1.12 0.16 0 1.16 0.16 0 1.2 0.16 0 0 0.2 0 0.04 0.2 0 0.08 0.2 0 0.12 0.2 0 0.16 0.2 0 0.2 0.2 0 0.24 0.2 0 0.28 0.2 0 0.32 0.2 0 0.36 0.2 0 0.4 0.2 0 0.44 0.2 0 0.48 0.2 0 0.52 0.2 0 0.56 0.2 0 0.6 0.2 0 0.64 0.2 0 0.68 0.2 0 0.72 0.2 0 0.76 0.2 0 0.8 0.2 0 0.84 0.2 0 0.88 0.2 0 0.92 0.2 0 0.96 0.2 0 1 0.2 0 1.04 0.2 0 1.08 0.2 0 1.12 0.2 0 1.16 0.2 0 1.2 0.2 0 0 0.24 0 0.04 0.24 0 0.08 0.24 0 0.12 0.24 0 0.16 0.24 0 0.2 0.24 0 0.24 0.24 0 0.28 0.24 0 0.32 0.24 0 0.36 0.24 0 0.4 0.24 0 0.44 0.24 0 0.48 0.24 0 0.52 0.24 0 0.56 0.24 0 0.6 0.24 0 0.64 0.24 0 0.68 0.24 0 0.72 0.24 0 0.76 0.24 0 0.8 0.24 0 0.84 0.24 0 0.88 0.24 0 0.92 0.24 0 0.96 0.24 0 1 0.24 0 1.04 0.24 0 1.08 0.24 0 1.12 0.24 0 1.16 0.24 0 1.2 0.24 0 0 0.28 0 0.04 0.28 0 0.08 0.28 0 0.12 0.28 0 0.16 0.28 0 0.2 0.28 0 0.24 0.28 0 0.28 0.28 0 0.32 0.28 0 0.36 0.28 0 0.4 0.28 0 0.44 0.28 0 0.48 0.28 0 0.52 0.28 0 0.56 0.28 0 0.6 0.28 0 0.64 0.28 0 0.68 0.28 0 0.72 0.28 0 0.76 0.28 0 0.8 0.28 0 0.84 0.28 0 0.88 0.28 0 0.92 0.28 0 0.96 0.28 0 1 0.28 0 1.04 0.28 0 1.08 0.28 0 1.12 0.28 0 1.16 0.28 0 1.2 0.28 0 0 0.32 0 0.04 0.32 0 0.08 0.32 0 0.12 0.32 0 0.16 0.32 0 0.2 0.32 0 0.24 0.32 0 0.28 0.32 0 0.32 0.32 0 0.36 0.32 0 0.4 0.32 0 0.44 0.32 0 0.48 0.32 0 0.52 0.32 0 0.56 0.32 0 0.6 0.32 0 0.64 0.32 0 0.68 0.32 0 0.72 0.32 0 0.76 0.32 0 0.8 0.32 0 0.84 0.32 0 0.88 0.32 0 0.92 0.32 0 0.96 0.32 0 1 0.32 0 1.04 0.32 0 1.08 0.32 0 1.12 0.32 0 1.16 0.32 0 1.2 0.32 0 0 0.36 0 0.04 0.36 0 0.08 0.36 0 0.12 0.36 0 0.16 0.36 0 0.2 0.36 0 0.24 0.36 0 0.28 0.36 0 0.32 0.36 0 0.36 0.36 0 0.4 0.36 0 0.44 0.36 0 0.48 0.36 0 0.52 0.36 0 0.56 0.36 0 0.6 0.36 0 0.64 0.36 0 0.68 0.36 0 0.72 0.36 0 0.76 0.36 0 0.8 0.36 0 0.84 0.36 0 0.88 0.36 0 0.92 0.36 0 0.96 0.36 0 1 0.36 0 1.04 0.36 0 1.08 0.36 0 1.12 0.36 0 1.16 0.36 0 1.2 0.36 0 0 0.4 0 0.04 0.4 0 0.08 0.4 0 0.12 0.4 0 0.16 0.4 0 0.2 0.4 0 0.24 0.4 0 0.28 0.4 0 0.32 0.4 0 0.36 0.4 0 0.4 0.4 0 0.44 0.4 0 0.48 0.4 0 0.52 0.4 0 0.56 0.4 0 0.6 0.4 0 0.64 0.4 0 0.68 0.4 0 0.72 0.4 0 0.76 0.4 0 0.8 0.4 0 0.84 0.4 0 0.88 0.4 0 0.92 0.4 0 0.96 0.4 0 1 0.4 0 1.04 0.4 0 1.08 0.4 0 1.12 0.4 0 1.16 0.4 0 1.2 0.4 0 0 0.44 0 0.04 0.44 0 0.08 0.44 0 0.12 0.44 0 0.16 0.44 0 0.2 0.44 0 0.24 0.44 0 0.28 0.44 0 0.32 0.44 0 0.36 0.44 0 0.4 0.44 0 0.44 0.44 0 0.48 0.44 0 0.52 0.44 0 0.56 0.44 0 0.6 0.44 0 0.64 0.44 0 0.68 0.44 0 0.72 0.44 0 0.76 0.44 0 0.8 0.44 0 0.84 0.44 0 0.88 0.44 0 0.92 0.44 0 0.96 0.44 0 1 0.44 0 1.04 0.44 0 1.08 0.44 0 1.12 0.44 0 1.16 0.44 0 1.2 0.44 0 0 0.48 0 0.04 0.48 0 0.08 0.48 0 0.12 0.48 0 0.16 0.48 0 0.2 0.48 0 0.24 0.48 0 0.28 0.48 0 0.32 0.48 0 0.36 0.48 0 0.4 0.48 0 0.44 0.48 0 0.48 0.48 0 0.52 0.48 0 0.56 0.48 0 0.6 0.48 0 0.64 0.48 0 0.68 0.48 0 0.72 0.48 0 0.76 0.48 0 0.8 0.48 0 0.84 0.48 0 0.88 0.48 0 0.92 0.48 0 0.96 0.48 0 1 0.48 0 1.04 0.48 0 1.08 0.48 0 1.12 0.48 0 1.16 0.48 0 1.2 0.48 0 0 0.52 0 0.04 0.52 0 0.08 0.52 0 0.12 0.52 0 0.16 0.52 0 0.2 0.52 0 0.24 0.52 0 0.28 0.52 0 0.32 0.52 0 0.36 0.52 0 0.4 0.52 0 0.44 0.52 0 0.48 0.52 0 0.52 0.52 0 0.56 0.52 0 0.6 0.52 0 0.64 0.52 0 0.68 0.52 0 0.72 0.52 0 0.76 0.52 0 0.8 0.52 0 0.84 0.52 0 0.88 0.52 0 0.92 0.52 0 0.96 0.52 0 1 0.52 0 1.04 0.52 0 1.08 0.52 0 1.12 0.52 0 1.16 0.52 0 1.2 0.52 0 0 0.56 0 0.04 0.56 0 0.08 0.56 0 0.12 0.56 0 0.16 0.56 0 0.2 0.56 0 0.24 0.56 0 0.28 0.56 0 0.32 0.56 0 0.36 0.56 0 0.4 0.56 0 0.44 0.56 0 0.48 0.56 0 0.52 0.56 0 0.56 0.56 0 0.6 0.56 0 0.64 0.56 0 0.68 0.56 0 0.72 0.56 0 0.76 0.56 0 0.8 0.56 0 0.84 0.56 0 0.88 0.56 0 0.92 0.56 0 0.96 0.56 0 1 0.56 0 1.04 0.56 0 1.08 0.56 0 1.12 0.56 0 1.16 0.56 0 1.2 0.56 0 0 0.6 0 0.04 0.6 0 0.08 0.6 0 0.12 0.6 0 0.16 0.6 0 0.2 0.6 0 0.24 0.6 0 0.28 0.6 0 0.32 0.6 0 0.36 0.6 0 0.4 0.6 0 0.44 0.6 0 0.48 0.6 0 0.52 0.6 0 0.56 0.6 0 0.6 0.6 0 0.64 0.6 0 0.68 0.6 0 0.72 0.6 0 0.76 0.6 0 0.8 0.6 0 0.84 0.6 0 0.88 0.6 0 0.92 0.6 0 0.96 0.6 0 1 0.6 0 1.04 0.6 0 1.08 0.6 0 1.12 0.6 0 1.16 0.6 0 1.2 0.6 0 0 0.64 0 0.04 0.64 0 0.08 0.64 0 0.12 0.64 0 0.16 0.64 0 0.2 0.64 0 0.24 0.64 0 0.28 0.64 0 0.32 0.64 0 0.36 0.64 0 0.4 0.64 0 0.44 0.64 0 0.48 0.64 0 0.52 0.64 0 0.56 0.64 0 0.6 0.64 0 0.64 0.64 0 0.68 0.64 0 0.72 0.64 0 0.76 0.64 0 0.8 0.64 0 0.84 0.64 0 0.88 0.64 0 0.92 0.64 0 0.96 0.64 0 1 0.64 0 1.04 0.64 0 1.08 0.64 0 1.12 0.64 0 1.16 0.64 0 1.2 0.64 0 0 0.68 0 0.04 0.68 0 0.08 0.68 0 0.12 0.68 0 0.16 0.68 0 0.2 0.68 0 0.24 0.68 0 0.28 0.68 0 0.32 0.68 0 0.36 0.68 0 0.4 0.68 0 0.44 0.68 0 0.48 0.68 0 0.52 0.68 0 0.56 0.68 0 0.6 0.68 0 0.64 0.68 0 0.68 0.68 0 0.72 0.68 0 0.76 0.68 0 0.8 0.68 0 0.84 0.68 0 0.88 0.68 0 0.92 0.68 0 0.96 0.68 0 1 0.68 0 1.04 0.68 0 1.08 0.68 0 1.12 0.68 0 1.16 0.68 0 1.2 0.68 0 0 0.72 0 0.04 0.72 0 0.08 0.72 0 0.12 0.72 0 0.16 0.72 0 0.2 0.72 0 0.24 0.72 0 0.28 0.72 0 0.32 0.72 0 0.36 0.72 0 0.4 0.72 0 0.44 0.72 0 0.48 0.72 0 0.52 0.72 0 0.56 0.72 0 0.6 0.72 0 0.64 0.72 0 0.68 0.72 0 0.72 0.72 0 0.76 0.72 0 0.8 0.72 0 0.84 0.72 0 0.88 0.72 0 0.92 0.72 0 0.96 0.72 0 1 0.72 0 1.04 0.72 0 1.08 0.72 0 1.12 0.72 0 1.16 0.72 0 1.2 0.72 0 0 0.76 0 0.04 0.76 0 0.08 0.76 0 0.12 0.76 0 0.16 0.76 0 0.2 0.76 0 0.24 0.76 0 0.28 0.76 0 0.32 0.76 0 0.36 0.76 0 0.4 0.76 0 0.44 0.76 0 0.48 0.76 0 0.52 0.76 0 0.56 0.76 0 0.6 0.76 0 0.64 0.76 0 0.68 0.76 0 0.72 0.76 0 0.76 0.76 0 0.8 0.76 0 0.84 0.76 0 0.88 0.76 0 0.92 0.76 0 0.96 0.76 0 1 0.76 0 1.04 0.76 0 1.08 0.76 0 1.12 0.76 0 1.16 0.76 0 1.2 0.76 0 0 0.8 0 0.04 0.8 0 0.08 0.8 0 0.12 0.8 0 0.16 0.8 0 0.2 0.8 0 0.24 0.8 0 0.28 0.8 0 0.32 0.8 0 0.36 0.8 0 0.4 0.8 0 0.44 0.8 0 0.48 0.8 0 0.52 0.8 0 0.56 0.8 0 0.6 0.8 0 0.64 0.8 0 0.68 0.8 0 0.72 0.8 0 0.76 0.8 0 0.8 0.8 0 0.84 0.8 0 0.88 0.8 0 0.92 0.8 0 0.96 0.8 0 1 0.8 0 1.04 0.8 0 1.08 0.8 0 1.12 0.8 0 1.16 0.8 0 1.2 0.8 0 0 0.84 0 0.04 0.84 0 0.08 0.84 0 0.12 0.84 0 0.16 0.84 0 0.2 0.84 0 0.24 0.84 0 0.28 0.84 0 0.32 0.84 0 0.36 0.84 0 0.4 0.84 0 0.44 0.84 0 0.48 0.84 0 0.52 0.84 0 0.56 0.84 0 0.6 0.84 0 0.64 0.84 0 0.68 0.84 0 0.72 0.84 0 0.76 0.84 0 0.8 0.84 0 0.84 0.84 0 0.88 0.84 0 0.92 0.84 0 0.96 0.84 0 1 0.84 0 1.04 0.84 0 1.08 0.84 0 1.12 0.84 0 1.16 0.84 0 1.2 0.84 0 0 0.88 0 0.04 0.88 0 0.08 0.88 0 0.12 0.88 0 0.16 0.88 0 0.2 0.88 0 0.24 0.88 0 0.28 0.88 0 0.32 0.88 0 0.36 0.88 0 0.4 0.88 0 0.44 0.88 0 0.48 0.88 0 0.52 0.88 0 0.56 0.88 0 0.6 0.88 0 0.64 0.88 0 0.68 0.88 0 0.72 0.88 0 0.76 0.88 0 0.8 0.88 0 0.84 0.88 0 0.88 0.88 0 0.92 0.88 0 0.96 0.88 0 1 0.88 0 1.04 0.88 0 1.08 0.88 0 1.12 0.88 0 1.16 0.88 0 1.2 0.88 0 0 0.92 0 0.04 0.92 0 0.08 0.92 0 0.12 0.92 0 0.16 0.92 0 0.2 0.92 0 0.24 0.92 0 0.28 0.92 0 0.32 0.92 0 0.36 0.92 0 0.4 0.92 0 0.44 0.92 0 0.48 0.92 0 0.52 0.92 0 0.56 0.92 0 0.6 0.92 0 0.64 0.92 0 0.68 0.92 0 0.72 0.92 0 0.76 0.92 0 0.8 0.92 0 0.84 0.92 0 0.88 0.92 0 0.92 0.92 0 0.96 0.92 0 1 0.92 0 1.04 0.92 0 1.08 0.92 0 1.12 0.92 0 1.16 0.92 0 1.2 0.92 0 0 0.96 0 0.04 0.96 0 0.08 0.96 0 0.12 0.96 0 0.16 0.96 0 0.2 0.96 0 0.24 0.96 0 0.28 0.96 0 0.32 0.96 0 0.36 0.96 0 0.4 0.96 0 0.44 0.96 0 0.48 0.96 0 0.52 0.96 0 0.56 0.96 0 0.6 0.96 0 0.64 0.96 0 0.68 0.96 0 0.72 0.96 0 0.76 0.96 0 0.8 0.96 0 0.84 0.96 0 0.88 0.96 0 0.92 0.96 0 0.96 0.96 0 1 0.96 0 1.04 0.96 0 1.08 0.96 0 1.12 0.96 0 1.16 0.96 0 1.2 0.96 0 0 1 0 0.04 1 0 0.08 1 0 0.12 1 0 0.16 1 0 0.2 1 0 0.24 1 0 0.28 1 0 0.32 1 0 0.36 1 0 0.4 1 0 0.44 1 0 0.48 1 0 0.52 1 0 0.56 1 0 0.6 1 0 0.64 1 0 0.68 1 0 0.72 1 0 0.76 1 0 0.8 1 0 0.84 1 0 0.88 1 0 0.92 1 0 0.96 1 0 1 1 0 1.04 1 0 1.08 1 0 1.12 1 0 1.16 1 0 1.2 1 0 0 1.04 0 0.04 1.04 0 0.08 1.04 0 0.12 1.04 0 0.16 1.04 0 0.2 1.04 0 0.24 1.04 0 0.28 1.04 0 0.32 1.04 0 0.36 1.04 0 0.4 1.04 0 0.44 1.04 0 0.48 1.04 0 0.52 1.04 0 0.56 1.04 0 0.6 1.04 0 0.64 1.04 0 0.68 1.04 0 0.72 1.04 0 0.76 1.04 0 0.8 1.04 0 0.84 1.04 0 0.88 1.04 0 0.92 1.04 0 0.96 1.04 0 1 1.04 0 1.04 1.04 0 1.08 1.04 0 1.12 1.04 0 1.16 1.04 0 1.2 1.04 0 0 1.08 0 0.04 1.08 0 0.08 1.08 0 0.12 1.08 0 0.16 1.08 0 0.2 1.08 0 0.24 1.08 0 0.28 1.08 0 0.32 1.08 0 0.36 1.08 0 0.4 1.08 0 0.44 1.08 0 0.48 1.08 0 0.52 1.08 0 0.56 1.08 0 0.6 1.08 0 0.64 1.08 0 0.68 1.08 0 0.72 1.08 0 0.76 1.08 0 0.8 1.08 0 0.84 1.08 0 0.88 1.08 0 0.92 1.08 0 0.96 1.08 0 1 1.08 0 1.04 1.08 0 1.08 1.08 0 1.12 1.08 0 1.16 1.08 0 1.2 1.08 0 0 1.12 0 
[...]
			<CellData Scalars="Density">
				<DataArray Name="Density" type="Float32" format="ascii">
 0.00601504 0.00730063 0.0127946 0.0233679 0.0388654 0.0580368 0.0807305 0.106342 0.135308 0.16694 0.201766 0.240678 0.285232 0.338339 0.412109 0.505117 0.601422 0.709804 0.828836 0.95696 1.09012 1.22271 1.34642 1.42338 1.41177 1.25541 0.980764 0.735122 0.673932 0.652325 0.00739338 0.00705028 0.0090547 0.017125 0.0303413 0.0485092 0.069639 0.0940131 0.120002 0.148416 0.179405 0.215588 0.258504 0.31184 0.392358 0.483435 0.586959 0.705716 0.836124 0.97602 1.12019 1.26096 1.3869 1.47131 1.461 1.29416 1.01313 0.759391 0.69124 0.666159 0.0130408 0.00919808 0.0087319 0.011174 0.0187203 0.0322368 0.0500648 0.0689645 0.0908617 0.114581 0.142885 0.176795 0.217731 0.271245 0.347669 0.433042 0.534574 0.652693 0.784193 0.927035 1.07502 1.2201 1.35023 1.44309 1.44387 1.29634 1.03457 0.777432 0.70002 0.671319 0.0237906 0.0175289 0.0113358 0.0107743 0.0126678 0.0204469 0.0312827 0.0477997 0.0701242 0.0947191 0.123535 0.156727 0.195977 0.250494 0.320806 0.40548 0.507908 0.627555 0.761172 0.906264 1.05661 1.20275 1.33359 1.42775 1.43368 1.30948 1.06691 0.806782 0.711507 0.676234 0.0394144 0.0308184 0.0190004 0.0127809 0.0125854 0.0146817 0.0216674 0.0330634 0.0518222 0.0769227 0.106289 0.136351 0.171037 0.220514 0.285047 0.368333 0.47111 0.593161 0.731127 0.880515 1.03481 1.18405 1.31561 1.41222 1.42528 1.32457 1.10936 0.857537 0.734086 0.687766 0.0586751 0.0490611 0.032678 0.0206397 0.0147503 0.0146849 0.0171635 0.0248744 0.03794 0.0570481 0.0789807 0.104508 0.135992 0.178755 0.238589 0.317682 0.418309 0.539807 0.680459 0.834815 0.995302 1.15153 1.29 1.39328 1.42242 1.35039 1.16645 0.9347 0.779251 0.715067 0.0814423 0.070233 0.0503722 0.031447 0.0217054 0.0172124 0.0173233 0.0209991 0.0295203 0.0423176 0.057278 0.0756393 0.102594 0.141813 0.197088 0.271963 0.368191 0.48679 0.626708 0.783214 0.949028 1.11281 1.26039 1.37311 1.42046 1.3752 1.22809 1.02799 0.853724 0.763839 0.107122 0.0945926 0.0692235 0.0479223 0.0330525 0.0247591 0.0209413 0.0213633 0.025915 0.034024 0.0445374 0.0581484 0.0802067 0.115865 0.168367 0.239121 0.330682 0.444706 0.58113 0.736644 0.903926 1.07251 1.22791 1.35048 1.41648 1.39775 1.28997 1.1345 0.966134 0.845381 0.136137 0.120567 0.0910475 0.0701721 0.0516851 0.0377439 0.0293553 0.0258504 0.0266393 0.0314171 0.0387447 0.0502342 0.0698457 0.103417 0.153243 0.221156 0.308453 0.417117 0.547679 0.699224 0.865318 1.03505 1.19452 1.32585 1.40897 1.41507 1.35299 1.2484 1.11283 0.978965 0.167802 0.148933 0.11475 0.0947062 0.0766858 0.0566931 0.0420509 0.0338585 0.031365 0.0330199 0.03876 0.0500381 0.0701679 0.103344 0.152298 0.217701 0.30051 0.402655 0.526459 0.670976 0.832089 1.00007 1.16114 1.29788 1.39236 1.43009 1.41582 1.3691 1.29054 1.17354 0.202629 0.179882 0.143018 0.12346 0.105877 0.0784678 0.0569185 0.0443237 0.0386249 0.0387212 0.0445595 0.0573533 0.0806066 0.115693 0.163774 0.226314 0.304256 0.400393 0.516809 0.653899 0.807856 0.970702 1.13102 1.27188 1.37992 1.44768 1.48168 1.49966 1.51025 1.42157 0.241537 0.216011 0.176883 0.156511 0.135806 0.103848 0.0751817 0.0578542 0.0500699 0.0499501 0.0573885 0.0738225 0.100314 0.137119 0.184356 0.243737 0.317264 0.40702 0.515687 0.644059 0.789593 0.945553 1.1036 1.25091 1.38013 1.48345 1.5687 1.65382 1.77411 1.70008 0.286091 0.258905 0.217757 0.195672 0.170401 0.135269 0.102011 0.0798014 0.0695587 0.0701328 0.0806233 0.100326 0.129058 0.166015 0.211518 0.267479 0.33591 0.419656 0.521286 0.642133 0.781287 0.934371 1.09377 1.24946 1.39853 1.5365 1.67618 1.82468 2.0205 1.98007 0.339161 0.312171 0.271065 0.249948 0.21968 0.177861 0.141059 0.115185 0.103069 0.103198 0.115701 0.137063 0.166062 0.20118 0.243798 0.295521 0.35938 0.437073 0.531777 0.645526 0.778239 0.9264 1.0833 1.24583 1.41261 1.59803 1.79494 1.98799 2.21315 2.25186 0.412441 0.392317 0.347525 0.320201 0.284032 0.237522 0.196135 0.167584 0.152608 0.152026 0.163563 0.183994 0.211393 0.243583 0.282135 0.329575 0.387994 0.459943 0.547301 0.65295 0.776657 0.915856 1.06766 1.23414 1.42369 1.65893 1.89068 2.12313 2.36314 2.46531 0.505814 0.483582 0.432869 0.404793 0.367189 0.316439 0.270849 0.238144 0.220372 0.217283 0.225835 0.243284 0.266991 0.295227 0.329393 0.371907 0.425047 0.490401 0.57059 0.666715 0.778125 0.904141 1.04775 1.2176 1.42489 1.68868 1.9493 2.21708 2.48664 2.61235 0.602083 0.587085 0.534343 0.507177 0.469862 0.416922 0.366891 0.329502 0.307549 0.300002 0.30375 0.316665 0.335599 0.3588 0.388045 0.425079 0.47183 0.529547 0.599803 0.683344 0.78091 0.894535 1.03231 1.20317 1.42119 1.69235 1.97668 2.26204 2.55124 2.70267 0.710364 0.705779 0.652443 0.626843 0.591889 0.538327 0.485368 0.443386 0.416032 0.401901 0.399766 0.406505 0.41924 0.436883 0.459873 0.490796 0.529643 0.576471 0.634732 0.704925 0.789673 0.893502 1.02549 1.19603 1.41851 1.68565 1.97702 2.28443 2.58752 2.75852 0.829279 0.836104 0.783905 0.76045 0.729838 0.678942 0.625168 0.57969 0.546422 0.525513 0.515785 0.515016 0.520811 0.531415 0.54744 0.570664 0.600137 0.634722 0.680802 0.739416 0.813619 0.908569 1.03363 1.20202 1.41618 1.67579 1.96675 2.28748 2.6065 2.78859 0.957278 0.975901 0.926718 0.905586 0.879269 0.833351 0.781696 0.735188 0.697863 0.669974 0.652855 0.643143 0.641722 0.644908 0.652663 0.666798 0.683413 0.705033 0.73951 0.788261 0.854214 0.943512 1.06244 1.22062 1.42233 1.67165 1.96623 2.29862 2.6281 2.8121 1.09033 1.12001 1.07466 1.05599 1.03373 0.993956 0.947623 0.90262 0.863972 0.831026 0.806979 0.788674 0.780737 0.777429 0.776016 0.778015 0.780819 0.789573 0.813503 0.854179 0.915107 0.99964 1.11288 1.26204 1.45322 1.69496 1.98847 2.32314 2.65717 2.84191 1.22283 1.26075 1.21977 1.20221 1.18316 1.15048 1.11159 1.07143 1.03394 0.999044 0.969894 0.944826 0.933781 0.925597 0.915215 0.903775 0.894286 0.893147 0.908085 0.942954 0.999686 1.07853 1.18648 1.33007 1.51485 1.74789 2.03637 2.37062 2.70605 2.89043 1.34656 1.38671 1.35 1.33319 1.31495 1.28927 1.2595 1.22705 1.19372 1.16039 1.13022 1.10314 1.09343 1.08296 1.06733 1.0475 1.03195 1.02486 1.03293 1.06144 1.11245 1.18678 1.28894 1.42623 1.60562 1.8325 2.11502 2.44464 2.77593 2.95748 1.42404 1.47162 1.44322 1.42776 1.41201 1.39291 1.37271 1.34995 1.3254 1.29762 1.27125 1.2507 1.24951 1.24577 1.23401 1.21742 1.20265 1.19525 1.20135 1.21996 1.26115 1.32974 1.42661 1.55761 1.73092 1.95305 2.22912 2.54804 2.87373 3.05193 1.41274 1.46184 1.44432 1.43411 1.42562 1.4227 1.42068 1.41663 1.40886 1.39266 1.37965 1.38012 1.39885 1.41285 1.42338 1.42431 1.42045 1.41748 1.41516 1.42231 1.45333 1.51377 1.60463 1.73111 1.89904 2.11665 2.38793 2.69522 3.00536 3.16668 1.25697 1.29571 1.29804 1.31102 1.32606 1.35152 1.3761 1.39849 1.41545 1.43066 1.44785 1.4835 1.53654 1.59818 1.65914 1.68888 1.69273 1.68568 1.67472 1.67093 1.69587 1.74866 1.83101 1.9518 2.11634 2.33043 2.59974 2.89701 3.18546 3.31336 0.982899 1.01529 1.03664 1.0689 1.1112 1.16807 1.22943 1.29108 1.35391 1.41658 1.4821 1.56906 1.67657 1.79525 1.89061 1.94827 1.97627 1.97726 1.96742 1.96478 1.98807 2.037 2.11579 2.22763 2.38773 2.59823 2.86979 3.16913 3.4385 3.5202 0.735807 0.760185 0.778377 0.808033 0.858977 0.936295 1.02946 1.13573 1.24935 1.36999 1.50032 1.65415 1.82472 1.98819 2.12415 2.2181 2.26335 2.28431 2.28823 2.29876 2.32306 2.37029 2.44507 2.54876 2.69661 2.8982 3.16822 3.48028 3.76375 3.83644 0.67412 0.691488 0.700294 0.711922 0.734573 0.780003 0.854719 0.967255 1.1139 1.29156 1.51097 1.77468 2.02115 2.21373 2.36351 2.48658 2.55157 2.58768 2.60634 2.62839 2.65759 2.70646 2.7752 2.87445 3.00575 3.18825 3.43906 3.76358 4.13764 4.18508 0.65233 0.666206 0.671393 0.676397 0.687986 0.715534 0.764399 0.846073 0.979761 1.17456 1.42245 1.70063 1.98065 2.25192 2.46594 2.61322 2.70228 2.75919 2.7889 2.81119 2.84237 2.89183 2.95569 3.05152 3.16681 3.31319 3.52304 3.83629 4.18556 4.76842
				</DataArray>
				<DataArray Name="Energy" type="Float32" format="ascii">
 942.253 775.458 443.741 242.085 146.199 97.499 70.2462 53.1545 41.8136 33.836 27.9934 23.4862 19.8636 16.8026 13.8529 11.3508 9.57234 8.13468 6.95708 5.99714 5.21536 4.57892 4.05773 3.60844 3.171 2.70308 2.14715 1.68523 1.55856 1.50369 765.768 804.833 621.449 332.487 184.908 117.067 80.7609 60.1227 46.9295 38.0244 31.4238 26.1974 21.8901 18.1947 14.5174 11.8226 9.77286 8.15746 6.87218 5.85411 5.04847 4.41095 3.90051 3.47817 3.07264 2.63252 2.10802 1.66306 1.53436 1.47786 435.347 611.84 652.87 499.818 305.566 173.486 113.349 81.437 62.12 49.0887 39.4223 31.8747 25.9142 20.8668 16.3086 13.1463 10.6786 8.7722 7.28245 6.12422 5.22186 4.51728 3.96085 3.5105 3.08911 2.64796 2.1359 1.68332 1.53612 1.47415 237.814 324.758 492.769 532.004 438.322 279.61 178.896 118.394 80.0115 59.4151 45.4836 35.8674 28.7228 22.4874 17.6091 13.9617 11.1752 9.05896 7.4436 6.21138 5.26261 4.52715 3.95301 3.49296 3.0762 2.65662 2.17842 1.72954 1.55402 1.48303 144.156 182.072 301 434.502 455.893 378.33 262.444 169.488 108.773 72.9652 52.7729 41.133 32.7795 25.4618 19.7207 15.2916 11.9674 9.50629 7.68312 6.32839 5.31074 4.53639 3.93793 3.4658 3.0539 2.65451 2.21947 1.79573 1.58158 1.49822 96.4424 115.738 171.163 276.906 376.712 388.415 325.089 227.038 147.909 98.3694 70.962 53.5246 41.1593 31.2754 23.4816 17.6311 13.3971 10.3602 8.1809 6.60495 5.45031 4.59144 3.94116 3.43708 3.02084 2.63529 2.24257 1.86275 1.61579 1.51419 69.6305 80.0846 112.632 178.026 261.776 324.365 326.003 267.011 190.31 132.533 97.658 73.9986 54.4057 39.4091 28.3101 20.5257 15.1405 11.4125 8.80641 6.96367 5.64196 4.67688 3.95946 3.41341 2.98278 2.60363 2.24888 1.91944 1.6622 1.53595 52.7701 59.7499 81.1513 118.032 169.622 227.911 267.783 262.409 216.458 164.517 125.788 96.063 69.699 48.1297 33.1172 23.2792 16.7868 12.4226 9.42797 7.33507 5.84926 4.77819 3.99209 3.40213 2.95025 2.57363 2.2476 1.96533 1.72626 1.5776 41.5603 46.7147 61.9805 79.9777 109.007 148.715 191.326 217.019 209.868 178.401 144.286 111.297 79.9709 53.9862 36.3503 25.1333 17.9521 13.1938 9.93834 7.66301 6.04553 4.88161 4.03124 3.39898 2.9245 2.54887 2.2443 2.00208 1.80103 1.65498 33.664 37.8929 49.0211 59.4094 73.1935 98.9729 133.375 165.285 178.724 169.305 144.249 111.868 79.5619 53.9993 36.5851 25.5118 18.3984 13.6186 10.2891 7.92317 6.2222 4.98952 4.08428 3.41264 2.91264 2.53488 2.24819 2.03696 1.88043 1.76457 27.874 31.3424 39.3827 45.5119 52.9725 71.4251 98.2653 126.404 144.704 144.402 125.673 97.3194 69.3788 48.2701 34.0516 24.5651 18.1614 13.6818 10.459 8.10505 6.37542 5.10057 4.15459 3.44821 2.92272 2.53774 2.26531 2.07813 1.96894 1.88877 23.4026 26.1456 31.8592 35.9146 41.2983 53.8613 74.4487 96.5371 111.692 112.05 97.2796 75.7701 55.7309 40.7543 30.2759 22.8206 17.4474 13.4718 10.481 8.21762 6.50507 5.21454 4.24187 3.5101 2.96823 2.57399 2.30808 2.1401 2.06034 2.0039 19.8037 21.856 25.9101 28.7683 32.8992 41.3785 54.7077 70.0653 80.2685 79.645 69.3468 55.7272 43.3421 33.6955 26.4239 20.859 16.5251 13.122 10.4268 8.3013 6.64044 5.3554 4.36931 3.6181 3.0524 2.63836 2.37476 2.21061 2.12622 2.09497 16.7621 18.1751 20.8806 22.536 25.5587 31.4306 39.6187 48.3965 54.1866 54.0607 48.2781 40.7705 33.6945 27.8191 22.9775 18.9322 15.5297 12.6806 10.309 8.35193 6.76501 5.50258 4.51676 3.75239 3.16244 2.72702 2.45586 2.27683 2.16526 2.16332 13.842 14.5193 16.3149 17.6425 19.7903 23.5865 28.4438 33.2792 36.4959 36.6575 34.0956 30.3298 26.4452 22.992 19.8958 17.0594 14.47 12.1551 10.1169 8.35643 6.87342 5.65663 4.68017 3.9052 3.302 2.83234 2.53619 2.33306 2.18686 2.19726 11.3358 11.8194 13.1522 13.9854 15.3389 17.6996 20.6106 23.3759 25.222 25.5697 24.6107 22.874 20.8929 18.9584 17.0685 15.1698 13.2925 11.4843 9.7952 8.26547 6.92467 5.78073 4.83084 4.06196 3.43885 2.93698 2.60691 2.37428 2.20146 2.20036 9.56278 9.77149 10.6835 11.1914 11.999 13.4419 15.1944 16.8467 18.0049 18.4326 18.1942 17.4783 16.55 15.548 14.4764 13.2891 12.0171 10.6835 9.33871 8.0522 6.87098 5.82442 4.92515 4.16464 3.52823 3.01868 2.66175 2.39643 2.19845 2.17837 8.12933 8.15759 8.77634 9.07008 9.52734 10.3889 11.4465 12.4604 13.2285 13.6429 13.7053 13.4946 13.1351 12.6935 12.1548 11.48 10.6797 9.75483 8.73938 7.69551 6.68616 5.75648 4.92311 4.19427 3.5756 3.07573 2.69962 2.40668 2.18536 2.14413 6.95457 6.87347 7.28602 7.45121 7.69722 8.19963 8.82816 9.45187 9.96218 10.309 10.4775 10.4976 10.4379 10.3165 10.1179 9.79063 9.3357 8.737 8.00154 7.18456 6.35537 5.56148 4.82302 4.16123 3.58644 3.10625 2.71666 2.40077 2.16258 2.10164 5.99648 5.85606 6.12741 6.21697 6.33784 6.61726 6.9779 7.35006 7.67858 7.93703 8.11867 8.22942 8.31052 8.36117 8.3606 8.26625 8.04966 7.69295 7.1832 6.57048 5.91513 5.2683 4.64912 4.07596 3.55761 3.10326 2.71228 2.38351 2.13469 2.05563 5.2158 5.05067 5.2247 5.26674 5.31715 5.45821 5.65113 5.85862 6.05545 6.23057 6.38445 6.51369 6.64715 6.7735 6.87917 6.92668 6.87028 6.68463 6.35436 5.91504 5.42445 4.92539 4.42817 3.94557 3.48737 3.06528 2.68429 2.35473 2.10242 2.00997 4.58003 4.4131 4.51977 4.53026 4.54077 4.59666 4.68283 4.78411 4.88825 4.99501 5.10627 5.22084 5.35983 5.50811 5.66116 5.78248 5.82472 5.75674 5.5622 5.26926 4.92644 4.55523 4.16704 3.77256 3.37929 2.99735 2.63716 2.3182 2.06958 1.96635 4.05911 3.90254 3.96296 3.95543 3.94092 3.94451 3.96339 3.99583 4.03549 4.08801 4.15771 4.24567 4.37145 4.51886 4.68163 4.83126 4.92562 4.92405 4.82489 4.65122 4.42981 4.16775 3.87382 3.55963 3.23137 2.89775 2.56988 2.27283 2.03469 1.92498 3.61039 3.4803 3.51256 3.49497 3.468 3.43924 3.41605 3.40463 3.40162 3.41532 3.44996 3.51229 3.61945 3.75326 3.90579 4.06209 4.16506 4.19539 4.16281 4.07761 3.9466 3.77366 3.56093 3.31741 3.04957 2.76753 2.48064 2.21382 1.99562 1.8885 3.1731 3.07476 3.09122 3.07811 3.05585 3.02255 2.98472 2.95209 2.92614 2.91452 2.924 2.9696 3.05356 3.16366 3.30325 3.43942 3.52862 3.57667 3.58715 3.55817 3.48798 3.37972 3.23262 3.05127 2.83883 2.60667 2.36465 2.13592 1.94556 1.85109 2.70574 2.63516 2.65065 2.65896 2.65666 2.63699 2.60533 2.57522 2.55018 2.53618 2.53872 2.57485 2.63891 2.72732 2.83289 2.93721 3.0191 3.07627 3.1059 3.10289 3.06547 2.99816 2.89822 2.76872 2.60789 2.42224 2.22263 2.03259 1.876 1.80739 2.15037 2.11118 2.13901 2.1812 2.22188 2.24444 2.25053 2.24901 2.24544 2.24908 2.26596 2.30863 2.37527 2.45625 2.53625 2.6062 2.66138 2.6993 2.7162 2.71138 2.68343 2.63698 2.57047 2.48025 2.36518 2.22281 2.06148 1.90547 1.7813 1.7422 1.68616 1.66413 1.68471 1.73124 1.79758 1.86443 1.92094 1.96655 2.00296 2.03759 2.07867 2.14048 2.21081 2.27689 2.33334 2.37435 2.39658 2.40631 2.40048 2.38321 2.35434 2.3176 2.27251 2.21346 2.13544 2.03258 1.90547 1.77507 1.67182 1.65087 1.55864 1.5345 1.53637 1.55437 1.58201 1.6163 1.66303 1.72722 1.80183 1.88091 1.96932 2.06061 2.12642 2.16535 2.18674 2.20118 2.19829 2.18535 2.16238 2.1345 2.10227 2.0696 2.03416 1.99533 1.94478 1.87567 1.78094 1.6716 1.58402 1.53878 1.50358 1.47776 1.47418 1.48308 1.49834 1.5143 1.5362 1.57809 1.65571 1.76499 1.88911 2.0042 2.09508 2.1633 2.19741 2.20005 2.17813 2.14386 2.10166 2.0556 2.00946 1.96659 1.92454 1.88803 1.85066 1.80713 1.74233 1.6509 1.5389 1.56496
				</DataArray>
				<DataArray Name="F1" type="Float32" format="ascii">
 1 1 1 1 1 1 1 1 1 1 1 1 1 1 1 1 1 1 1 1 1 1 1 1 1 1 1 1 1 1 1 1 1 1 1 1 1 1 1 1 1 1 1 1 1 1 1 1 1 1 1 1 1 1 1 1 1 1 1 1 1 1 1 1 1 1 1 1 1 1 1 1 1 1 1 1 1 1 1 1 1 1 1 1 1 1 1 1 1 1 1 1 1 1 1 1 1 1 1 1 1 1 1 1 1 1 1 1 1 1 1 1 1 1 1 1 1 1 1 1 1 1 1 1 1 1 1 1 1 1 1 1 1 1 1 1 1 1 1 1 1 1 1 1 1 1 1 1 1 1 1 1 1 1 1 1 1 1 1 1 1 1 1 1 1 1 1 1 1 1 1 1 1 1 1 1 1 1 1 1 1 1 1 1 1 1 1 1 1 1 1 1 1 1 1 1 1 1 1 1 1 1 1 1 1 1 1 1 1 1 1 1 1 1 1 1 1 1 1 1 1 1 1 1 1 1 1 1 1 1 1 1 1 1 1 1 1 1 1 1 1 1 1 1 1 1 1 1 1 1 1 1 1 1 1 1 1 1 1 1 1 1 1 1 1 1 1 1 1 1 1 1 1 1 1 1 1 1 1 1 1 1 1 1 1 1 1 1 1 1 1 1 1 1 1 1 1 1 1 1 1 1 1 1 1 1 1 1 1 1 1 1 1 1 1 1 1 1 1 1 1 1 1 1 1 1 1 1 1 1 1 1 1 1 1 1 1 1 1 1 1 1 1 1 1 1 1 1 1 1 1 1 1 1 1 1 1 1 1 1 1 1 1 1 1 1 1 1 1 1 1 1 1 1 1 1 1 1 1 1 1 1 1 1 1 1 1 1 1 1 1 1 1 1 1 1 1 1 1 1 1 1 1 1 1 1 1 1 1 1 1 1 1 1 1 1 1 1 1 1 1 1 1 1 1 1 1 1 1 1 1 1 1 1 1 1 1 1 1 1 1 1 1 1 1 1 1 1 1 1 1 1 1 1 1 1 1 1 1 1 1 1 1 1 1 1 1 1 1 1 1 1 1 1 1 1 1 1 1 1 1 1 1 1 1 1 1 1 1 1 1 1 1 1 1 1 1 1 1 1 1 1 1 1 1 1 1 1 1 1 1 1 1 1 1 1 1 1 1 1 1 1 1 1 1 1 1 1 1 1 1 1 1 1 1 1 1 1 1 1 1 1 1 1 1 1 1 1 1 1 1 1 1 1 1 1 1 1 1 1 1 1 1 1 1 1 1 1 1 1 1 1 1 1 1 1 1 1 1 1 1 1 1 1 1 1 1 1 1 1 1 1 1 1 1 1 1 1 1 1 1 1 1 1 1 1 1 1 1 1 1 1 1 1 1 1 1 1 1 1 1 1 1 1 1 1 1 1 1 1 1 1 1 1 1 1 1 1 1 1 1 1 1 1 1 1 1 1 1 1 1 1 1 1 1 1 1 1 1 1 1 1 1 1 1 1 1 1 1 1 1 1 1 1 1 1 1 1 1 1 1 1 1 1 1 1 1 1 1 1 1 1 1 1 1 1 1 1 1 1 1 1 1 1 1 1 1 1 1 1 1 1 1 1 1 1 1 1 1 1 1 1 1 1 1 1 1 1 1 1 1 1 1 1 1 1 1 1 1 1 1 1 1 1 1 1 1 1 1 1 1 1 1 1 1 1 1 1 1 1 1 1 1 1 1 1 1 1 1 1 1 1 1 1 1 1 1 1 1 1 1 1 1 1 1 1 1 1 1 1 1 1 1 1 1 1 1 1 1 1 1 1 1 1 1 1 1 1 1 1 1 1 1 1 1 1 1 1 1 1 1 1 1 1 1 1 1 1 1 1 1 1 1 1 1 1 1 1 1 1 1 1 1 1 1 1 1 1 1 1 1 1 1 1 1 1 1 1 1 1 1 1 1 1 1 1 1 1 1 1 1 1 1 1 1 1 1 1 1 1 1 1 1 1 1 1 1 1 1 1 1 1 1 1 1 1 1 1 1 1
				</DataArray>
				<DataArray Name="F2" type="Float32" format="ascii">
 0 0 0 0 0 0 0 0 0 0 0 0 0 0 0 0 0 0 0 0 0 0 0 0 0 0 0 0 0 0 0 0 0 0 0 0 0 0 0 0 0 0 0 0 0 0 0 0 0 0 0 0 0 0 0 0 0 0 0 0 0 0 0 0 0 0 0 0 0 0 0 0 0 0 0 0 0 0 0 0 0 0 0 0 0 0 0 0 0 0 0 0 0 0 0 0 0 0 0 0 0 0 0 0 0 0 0 0 0 0 0 0 0 0 0 0 0 0 0 0 0 0 0 0 0 0 0 0 0 0 0 0 0 0 0 0 0 0 0 0 0 0 0 0 0 0 0 0 0 0 0 0 0 0 0 0 0 0 0 0 0 0 0 0 0 0 0 0 0 0 0 0 0 0 0 0 0 0 0 0 0 0 0 0 0 0 0 0 0 0 0 0 0 0 0 0 0 0 0 0 0 0 0 0 0 0 0 0 0 0 0 0 0 0 0 0 0 0 0 0 0 0 0 0 0 0 0 0 0 0 0 0 0 0 0 0 0 0 0 0 0 0 0 0 0 0 0 0 0 0 0 0 0 0 0 0 0 0 0 0 0 0 0 0 0 0 0 0 0 0 0 0 0 0 0 0 0 0 0 0 0 0 0 0 0 0 0 0 0 0 0 0 0 0 0 0 0 0 0 0 0 0 0 0 0 0 0 0 0 0 0 0 0 0 0 0 0 0 0 0 0 0 0 0 0 0 0 0 0 0 0 0 0 0 0 0 0 0 0 0 0 0 0 0 0 0 0 0 0 0 0 0 0 0 0 0 0 0 0 0 0 0 0 0 0 0 0 0 0 0 0 0 0 0 0 0 0 0 0 0 0 0 0 0 0 0 0 0 0 0 0 0 0 0 0 0 0 0 0 0 0 0 0 0 0 0 0 0 0 0 0 0 0 0 0 0 0 0 0 0 0 0 0 0 0 0 0 0 0 0 0 0 0 0 0 0 0 0 0 0 0 0 0 0 0 0 0 0 0 0 0 0 0 0 0 0 0 0 0 0 0 0 0 0 0 0 0 0 0 0 0 0 0 0 0 0 0 0 0 0 0 0 0 0 0 0 0 0 0 0 0 0 0 0 0 0 0 0 0 0 0 0 0 0 0 0 0 0 0 0 0 0 0 0 0 0 0 0 0 0 0 0 0 0 0 0 0 0 0 0 0 0 0 0 0 0 0 0 0 0 0 0 0 0 0 0 0 0 0 0 0 0 0 0 0 0 0 0 0 0 0 0 0 0 0 0 0 0 0 0 0 0 0 0 0 0 0 0 0 0 0 0 0 0 0 0 0 0 0 0 0 0 0 0 0 0 0 0 0 0 0 0 0 0 0 0 0 0 0 0 0 0 0 0 0 0 0 0 0 0 0 0 0 0 0 0 0 0 0 0 0 0 0 0 0 0 0 0 0 0 0 0 0 0 0 0 0 0 0 0 0 0 0 0 0 0 0 0 0 0 0 0 0 0 0 0 0 0 0 0 0 0 0 0 0 0 0 0 0 0 0 0 0 0 0 0 0 0 0 0 0 0 0 0 0 0 0 0 0 0 0 0 0 0 0 0 0 0 0 0 0 0 0 0 0 0 0 0 0 0 0 0 0 0 0 0 0 0 0 0 0 0 0 0 0 0 0 0 0 0 0 0 0 0 0 0 0 0 0 0 0 0 0 0 0 0 0 0 0 0 0 0 0 0 0 0 0 0 0 0 0 0 0 0 0 0 0 0 0 0 0 0 0 0 0 0 0 0 0 0 0 0 0 0 0 0 0 0 0 0 0 0 0 0 0 0 0 0 0 0 0 0 0 0 0 0 0 0 0 0 0 0 0 0 0 0 0 0 0 0 0 0 0 0 0 0 0 0 0 0 0 0 0 0 0 0 0 0 0 0 0 0 0 0 0 0 0 0 0 0 0 0 0 0 0 0 0 0 0 0 0 0 0 0 0 0 0 0 0 0 0 0 0 0 0 0 0 0 0 0 0 0 0 0 0 0 0 0 0 0
				</DataArray>
				<DataArray Name="F3" type="Float32" format="ascii">