<?xml version="1.0"?>
<VTKFile type="PolyData">
	<PolyData>
		<Piece NumberOfPoints="961" NumberOfPolys="900">
			<Points>
				<DataArray type="Float32" NumberOfComponents="3" format="ascii">
 0 0 0 0.04 0 0 0.08 0 0 0.12 0 0 0.16 0 0 0.2 0 0 0.24 0 0 0.28 0 0 0.32 0 0 0.36 0 0 0.4 0 0 0.44 0 0 0.48 0 0 0.52 0 0 0.56 0 0 0.6 0 0 0.64 0 0 0.68 0 0 0.72 0 0 0.76 0 0 0.8 0 0 0.84 0 0 0.88 0 0 0.92 0 0 0.96 0 0 1 0 0 1.04 0 0 1.08 0 0 1.12 0 0 1.16 0 0 1.2 0 0 0 0.04 0 0.04 0.04 0 0.08 0.04 0 0.12 0.04 0 0.16 0.04 0 0.2 0.04 0 0.24 0.04 0 0.28 0.04 0 0.32 0.04 0 0.36 0.04 0 0.4 0.04 0 0.44 0.04 0 0.48 0.04 0 0.52 0.04 0 0.56 0.04 0 0.6 0.04 0 0.64 0.04 0 0.68 0.04 0 0.72 0.04 0 0.76 0.04 0 0.8 0.04 0 0.84 0.04 0 0.88 0.04 0 0.92 0.04 0 0.96 0.04 0 1 0.04 0 1.04 0.04 0 1.08 0.04 0 1.12 0.04 0 1.16 0.04 0 1.2 0.04 0 0 0.08 0 0.04 0.08 0 0.08 0.08 0 0.12 0.08 0 0.16 0.08 0 0.2 0.08 0 0.24 0.08 0 0.28 0.08 0 0.32 0.08 0 0.36 0.08 0 0.4 0.08 0 0.44 0.08 0 0.48 0.08 0 0.52 0.08 0 0.56 0.08 0 0.6 0.08 0 0.64 0.08 0 0.68 0.08 0 0.72 0.08 0 0.76 0.08 0 0.8 0.08 0 0.84 0.08 0 0.88 0.08 0 0.92 0.08 0 0.96 0.08 0 1 0.08 0 1.04 0.08 0 1.08 0.08 0 1.12 0.08 0 1.16 0.08 0 1.2 0.08 0 0 0.12 0 0.04 0.12 0 0.08 0.12 0 0.12 0.12 0 0.16 0.12 0 0.2 0.12 0 0.24 0.12 0 0.28 0.12 0 0.32 0.12 0 0.36 0.12 0 0.4 0.12 0 0.44 0.12 0 0.48 0.12 0 0.52 0.12 0 0.56 0.12 0 0.6 0.12 0 0.64 0.12 0 0.68 0.12 0 0.72 0.12 0 0.76 0.12 0 0.8 0.12 0 0.84 0.12 0 0.88 0.12 0 0.92 0.12 0 0.96 0.12 0 1 0.12 0 1.04 0.12 0 1.08 0.12 0 1.12 0.12 0 1.16 0.12 0 1.2 0.12 0 0 0.16 0 0.04 0.16 0 0.08 0.16 0 0.12 0.16 0 0.16 0.16 0 0.2 0.16 0 0.24 0.16 0 0.28 0.16 0 0.32 0.16 0 0.36 0.16 0 0.4 0.16 0 0.44 0.16 0 0.48 0.16 0 0.52 0.16 0 0.56 0.16 0 0.6 0.16 0 0.64 0.16 0 0.68 0.16 0 0.72 0.16 0 0.76 0.16 0 0.8 0.16 0 0.84 0.16 0 0.88 0.16 0 0.92 0.16 0 0.96 0.16 0 1 0.16 0 1.04 0.16 0 1.08 0.16 0 1.12 0.16 0 1.16 0.16 0 1.2 0.16 0 0 0.2 0 0.04 0.2 0 0.08 0.2 0 0.12 0.2 0 0.16 0.2 0 0.2 0.2 0 0.24 0.2 0 0.28 0.2 0 0.32 0.2 0 0.36 0.2 0 0.4 0.2 0 0.44 0.2 0 0.48 0.2 0 0.52 0.2 0 0.56 0.2 0 0.6 0.2 0 0.64 0.2 0 0.68 0.2 0 0.72 0.2 0 0.76 0.2 0 0.8 0.2 0 0.84 0.2 0 0.88 0.2 0 0.92 0.2 0 0.96 0.2 0 1 0.2 0 1.04 0.2 0 1.08 0.2 0 1.12 0.2 0 1.16 0.2 0 1.2 0.2 0 0 0.24 0 0.04 0.24 0 0.08 0.24 0 0.12 0.24 0 0.16 0.24 0 0.2 0.24 0 0.24 0.24 0 0.28 0.24 0 0.32 0.24 0 0.36 0.24 0 0.4 0.24 0 0.44 0.24 0 0.48 0.24 0 0.52 0.24 0 0.56 0.24 0 0.6 0.24 0 0.64 0.24 0 0.68 0.24 0 0.72 0.24 0 0.76 0.24 0 0.8 0.24 0 0.84 0.24 0 0.88 0.24 0 0.92 0.24 0 0.96 0.24 0 1 0.24 0 1.04 0.24 0 1.08 0.24 0 1.12 0.24 0 1.16 0.24 0 1.2 0.24 0 0 0.28 0 0.04 0.28 0 0.08 0.28 0 0.12 0.28 0 0.16 0.28 0 0.2 0.28 0 0.24 0.28 0 0.28 0.28 0 0.32 0.28 0 0.36 0.28 0 0.4 0.28 0 0.44 0.28 0 0.48 0.28 0 0.52 0.28 0 0.56 0.28 0 0.6 0.28 0 0.64 0.28 0 0.68 0.28 0 0.72 0.28 0 0.76 0.28 0 0.8 0.28 0 0.84 0.28 0 0.88 0.28 0 0.92 0.28 0 0.96 0.28 0 1 0.28 0 1.04 0.28 0 1.08 0.28 0 1.12 0.28 0 1.16 0.28 0 1.2 0.28 0 0 0.32 0 0.04 0.32 0 0.08 0.32 0 0.12 0.32 0 0.16 0.32 0 0.2 0.32 0 0.24 0.32 0 0.28 0.32 0 0.32 0.32 0 0.36 0.32 0 0.4 0.32 0 0.44 0.32 0 0.48 0.32 0 0.52 0.32 0 0.56 0.32 0 0.6 0.32 0 0.64 0.32 0 0.68 0.32 0 0.72 0.32 0 0.76 0.32 0 0.8 0.32 0 0.84 0.32 0 0.88 0.32 0 0.92 0.32 0 0.96 0.32 0 1 0.32 0 1.04 0.32 0 1.08 0.32 0 1.12 0.32 0 1.16 0.32 0 1.2 0.32 0 0 0.36 0 0.04 0.36 0 0.08 0.36 0 0.12 0.36 0 0.16 0.36 0 0.2 0.36 0 0.24 0.36 0 0.28 0.36 0 0.32 0.36 0 0.36 0.36 0 0.4 0.36 0 0.44 0.36 0 0.48 0.36 0 0.52 0.36 0 0.56 0.36 0 0.6 0.36 0 0.64 0.36 0 0.68 0.36 0 0.72 0.36 0 0.76 0.36 0 0.8 0.36 0 0.84 0.36 0 0.88 0.36 0 0.92 0.36 0 0.96 0.36 0 1 0.36 0 1.04 0.36 0 1.08 0.36 0 1.12 0.36 0 1.16 0.36 0 1.2 0.36 0 0 0.4 0 0.04 0.4 0 0.08 0.4 0 0.12 0.4 0 0.16 0.4 0 0.2 0.4 0 0.24 0.4 0 0.28 0.4 0 0.32 0.4 0 0.36 0.4 0 0.4 0.4 0 0.44 0.4 0 0.48 0.4 0 0.52 0.4 0 0.56 0.4 0 0.6 0.4 0 0.64 0.4 0 0.68 0.4 0 0.72 0.4 0 0.76 0.4 0 0.8 0.4 0 0.84 0.4 0 0.88 0.4 0 0.92 0.4 0 0.96 0.4 0 1 0.4 0 1.04 0.4 0 1.08 0.4 0 1.12 0.4 0 1.16 0.4 0 1.2 0.4 0 0 0.44 0 0.04 0.44 0 0.08 0.44 0 0.12 0.44 0 0.16 0.44 0 0.2 0.44 0 0.24 0.44 0 0.28 0.44 0 0.32 0.44 0 0.36 0.44 0 0.4 0.44 0 0.44 0.44 0 0.48 0.44 0 0.52 0.44 0 0.56 0.44 0 0.6 0.44 0 0.64 0.44 0 0.68 0.44 0 0.72 0.44 0 0.76 0.44 0 0.8 0.44 0 0.84 0.44 0 0.88 0.44 0 0.92 0.44 0 0.96 0.44 0 1 0.44 0 1.04 0.44 0 1.08 0.44 0 1.12 0.44 0 1.16 0.44 0 1.2 0.44 0 0 0.48 0 0.04 0.48 0 0.08 0.48 0 0.12 0.48 0 0.16 0.48 0 0.2 0.48 0 0.24 0.48 0 0.28 0.48 0 0.32 0.48 0 0.36 0.48 0 0.4 0.48 0 0.44 0.48 0 0.48 0.48 0 0.52 0.48 0 0.56 0.48 0 0.6 0.48 0 0.64 0.48 0 0.68 0.48 0 0.72 0.48 0 0.76 0.48 0 0.8 0.48 0 0.84 0.48 0 0.88 0.48 0 0.92 0.48 0 0.96 0.48 0 1 0.48 0 1.04 0.48 0 1.08 0.48 0 1.12 0.48 0 1.16 0.48 0 1.2 0.48 0 0 0.52 0 0.04 0.52 0 0.08 0.52 0 0.12 0.52 0 0.16 0.52 0 0.2 0.52 0 0.24 0.52 0 0.28 0.52 0 0.32 0.52 0 0.36 0.52 0 0.4 0.52 0 0.44 0.52 0 0.48 0.52 0 0.52 0.52 0 0.56 0.52 0 0.6 0.52 0 0.64 0.52 0 0.68 0.52 0 0.72 0.52 0 0.76 0.52 0 0.8 0.52 0 0.84 0.52 0 0.88 0.52 0 0.92 0.52 0 0.96 0.52 0 1 0.52 0 1.04 0.52 0 1.08 0.52 0 1.12 0.52 0 1.16 0.52 0 1.2 0.52 0 0 0.56 0 0.04 0.56 0 0.08 0.56 0 0.12 0.56 0 0.16 0.56 0 0.2 0.56 0 0.24 0.56 0 0.28 0.56 0 0.32 0.56 0 0.36 0.56 0 0.4 0.56 0 0.44 0.56 0 0.48 0.56 0 0.52 0.56 0 0.56 0.56 0 0.6 0.56 0 0.64 0.56 0 0.68 0.56 0 0.72 0.56 0 0.76 0.56 0 0.8 0.56 0 0.84 0.56 0 0.88 0.56 0 0.92 0.56 0 0.96 0.56 0 1 0.56 0 1.04 0.56 0 1.08 0.56 0 1.12 0.56 0 1.16 0.56 0 1.2 0.56 0 0 0.6 0 0.04 0.6 0 0.08 0.6 0 0.12 0.6 0 0.16 0.6 0 0.2 0.6 0 0.24 0.6 0 0.28 0.6 0 0.32 0.6 0 0.36 0.6 0 0.4 0.6 0 0.44 0.6 0 0.48 0.6 0 0.52 0.6 0 0.56 0.6 0 0.6 0.6 0 0.64 0.6 0 0.68 0.6 0 0.72 0.6 0 0.76 0.6 0 0.8 0.6 0 0.84 0.6 0 0.88 0.6 0 0.92 0.6 0 0.96 0.6 0 1 0.6 0 1.04 0.6 0 1.08 0.6 0 1.12 0.6 0 1.16 0.6 0 1.2 0.6 0 0 0.64 0 0.04 0.64 0 0.08 0.64 0 0.12 0.64 0 0.16 0.64 0 0.2 0.64 0 0.24 0.64 0 0.28 0.64 0 0.32 0.64 0 0.36 0.64 0 0.4 0.64 0 0.44 0.64 0 0.48 0.64 0 0.52 0.64 0 0.56 0.64 0 0.6 0.64 0 0.64 0.64 0 0.68 0.64 0 0.72 0.64 0 0.76 0.64 0 0.8 0.64 0 0.84 0.64 0 0.88 0.64 0 0.92 0.64 0 0.96 0.64 0 1 0.64 0 1.04 0.64 0 1.08 0.64 0 1.12 0.64 0 1.16 0.64 0 1.2 0.64 0 0 0.68 0 0.04 0.68 0 0.08 0.68 0 0.12 0.68 0 0.16 0.68 0 0.2 0.68 0 0.24 0.68 0 0.28 0.68 0 0.32 0.68 0 0.36 0.68 0 0.4 0.68 0 0.44 0.68 0 0.48 0.68 0 0.52 0.68 0 0.56 0.68 0 0.6 0.68 0 0.64 0.68 0 0.68 0.68 0 0.72 0.68 0 0.76 0.68 0 0.8 0.68 0 0.84 0.68 0 0.88 0.68 0 0.92 0.68 0 0.96 0.68 0 1 0.68 0 1.04 0.68 0 1.08 0.68 0 1.12 0.68 0 1.16 0.68 0 1.2 0.68 0 0 0.72 0 0.04 0.72 0 0.08 0.72 0 0.12 0.72 0 0.16 0.72 0 0.2 0.72 0 0.24 0.72 0 0.28 0.72 0 0.32 0.72 0 0.36 0.72 0 0.4 0.72 0 0.44 0.72 0 0.48 0.72 0 0.52 0.72 0 0.56 0.72 0 0.6 0.72 0 0.64 0.72 0 0.68 0.72 0 0.72 0.72 0 0.76 0.72 0 0.8 0.72 0 0.84 0.72 0 0.88 0.72 0 0.92 0.72 0 0.96 0.72 0 1 0.72 0 1.04 0.72 0 1.08 0.72 0 1.12 0.72 0 1.16 0.72 0 1.2 0.72 0 0 0.76 0 0.04 0.76 0 0.08 0.76 0 0.12 0.76 0 0.16 0.76 0 0.2 0.76 0 0.24 0.76 0 0.28 0.76 0 0.32 0.76 0 0.36 0.76 0 0.4 0.76 0 0.44 0.76 0 0.48 0.76 0 0.52 0.76 0 0.56 0.76 0 0.6 0.76 0 0.64 0.76 0 0.68 0.76 0 0.72 0.76 0 0.76 0.76 0 0.8 0.76 0 0.84 0.76 0 0.88 0.76 0 0.92 0.76 0 0.96 0.76 0 1 0.76 0 1.04 0.76 0 1.08 0.76 0 1.12 0.76 0 1.16 0.76 0 1.2 0.76 0 0 0.8 0 0.04 0.8 0 0.08 0.8 0 0.12 0.8 0 0.16 0.8 0 0.2 0.8 0 0.24 0.8 0 0.28 0.8 0 0.32 0.8 0 0.36 0.8 0 0.4 0.8 0 0.44 0.8 0 0.48 0.8 0 0.52 0.8 0 0.56 0.8 0 0.6 0.8 0 0.64 0.8 0 0.68 0.8 0 0.72 0.8 0 0.76 0.8 0 0.8 0.8 0 0.84 0.8 0 0.88 0.8 0 0.92 0.8 0 0.96 0.8 0 1 0.8 0 1.04 0.8 0 1.08 0.8 0 1.12 0.8 0 1.16 0.8 0 1.2 0.8 0 0 0.84 0 0.04 0.84 0 0.08 0.84 0 0.12 0.84 0 0.16 0.84 0 0.2 0.84 0 0.24 0.84 0 0.28 0.84 0 0.32 0.84 0 0.36 0.84 0 0.4 0.84 0 0.44 0.84 0 0.48 0.84 0 0.52 0.84 0 0.56 0.84 0 0.6 0.84 0 0.64 0.84 0 0.68 0.84 0 0.72 0.84 0 0.76 0.84 0 0.8 0.84 0 0.84 0.84 0 0.88 0.84 0 0.92 0.84 0 0.96 0.84 0 1 0.84 0 1.04 0.84 0 1.08 0.84 0 1.12 0.84 0 1.16 0.84 0 1.2 0.84 0 0 0.88 0 0.04 0.88 0 0.08 0.88 0 0.12 0.88 0 0.16 0.88 0 0.2 0.88 0 0.24 0.88 0 0.28 0.88 0 0.32 0.88 0 0.36 0.88 0 0.4 0.88 0 0.44 0.88 0 0.48 0.88 0 0.52 0.88 0 0.56 0.88 0 0.6 0.88 0 0.64 0.88 0 0.68 0.88 0 0.72 0.88 0 0.76 0.88 0 0.8 0.88 0 0.84 0.88 0 0.88 0.88 0 0.92 0.88 0 0.96 0.88 0 1 0.88 0 1.04 0.88 0 1.08 0.88 0 1.12 0.88 0 1.16 0.88 0 1.2 0.88 0 0 0.92 0 0.04 0.92 0 0.08 0.92 0 0.12 0.92 0 0.16 0.92 0 0.2 0.92 0 0.24 0.92 0 0.28 0.92 0 0.32 0.92 0 0.36 0.92 0 0.4 0.92 0 0.44 0.92 0 0.48 0.92 0 0.52 0.92 0 0.56 0.92 0 0.6 0.92 0 0.64 0.92 0 0.68 0.92 0 0.72 0.92 0 0.76 0.92 0 0.8 0.92 0 0.84 0.92 0 0.88 0.92 0 0.92 0.92 0 0.96 0.92 0 1 0.92 0 1.04 0.92 0 1.08 0.92 0 1.12 0.92 0 1.16 0.92 0 1.2 0.92 0 0 0.96 0 0.04 0.96 0 0.08 0.96 0 0.12 0.96 0 0.16 0.96 0 0.2 0.96 0 0.24 0.96 0 0.28 0.96 0 0.32 0.96 0 0.36 0.96 0 0.4 0.96 0 0.44 0.96 0 0.48 0.96 0 0.52 0.96 0 0.56 0.96 0 0.6 0.96 0 0.64 0.96 0 0.68 0.96 0 0.72 0.96 0 0.76 0.96 0 0.8 0.96 0 0.84 0.96 0 0.88 0.96 0 0.92 0.96 0 0.96 0.96 0 1 0.96 0 1.04 0.96 0 1.08 0.96 0 1.12 0.96 0 1.16 0.96 0 1.2 0.96 0 0 1 0 0.04 1 0 0.08 1 0 0.12 1 0 0.16 1 0 0.2 1 0 0.24 1 0 0.28 1 0 0.32 1 0 0.36 1 0 0.4 1 0 0.44 1 0 0.48 1 0 0.52 1 0 0.56 1 0 0.6 1 0 0.64 1 0 0.68 1 0 0.72 1 0 0.76 1 0 0.8 1 0 0.84 1 0 0.88 1 0 0.92 1 0 0.96 1 0 1 1 0 1.04 1 0 1.08 1 0 1.12 1 0 1.16 1 0 1.2 1 0 0 1.04 0 0.04 1.04 0 0.08 1.04 0 0.12 1.04 0 0.16 1.04 0 0.2 1.04 0 0.24 1.04 0 0.28 1.04 0 0.32 1.04 0 0.36 1.04 0 0.4 1.04 0 0.44 1.04 0 0.48 1.04 0 0.52 1.04 0 0.56 1.04 0 0.6 1.04 0 0.64 1.04 0 0.68 1.04 0 0.72 1.04 0 0.76 1.04 0 0.8 1.04 0 0.84 1.04 0 0.88 1.04 0 0.92 1.04 0 0.96 1.04 0 1 1.04 0 1.04 1.04 0 1.08 1.04 0 1.12 1.04 0 1.16 1.04 0 1.2 1.04 0 0 1.08 0 0.04 1.08 0 0.08 1.08 0 0.12 1.08 0 0.16 1.08 0 0.2 1.08 0 0.24 1.08 0 0.28 1.08 0 0.32 1.08 0 0.36 1.08 0 0.4 1.08 0 0.44 1.08 0 0.48 1.08 0 0.52 1.08 0 0.56 1.08 0 0.6 1.08 0 0.64 1.08 0 0.68 1.08 0 0.72 1.08 0 0.76 1.08 0 0.8 1.08 0 0.84 1.08 0 0.88 1.08 0 0.92 1.08 0 0.96 1.08 0 1 1.08 0 1.04 1.08 0 1.08 1.08 0 1.12 1.08 0 1.16 1.08 0 1.2 1.08 0 0 1.12 0 
[...]
			<CellData Scalars="Density">
				<DataArray Name="Density" type="Float32" format="ascii">
 0.00613556 0.00695308 0.00913952 0.0130312 0.0189215 0.0271698 0.0381413 0.0522856 0.0704664 0.0940917 0.124816 0.165384 0.219038 0.288267 0.370339 0.447458 0.481423 0.464958 0.455942 0.489887 0.536925 0.602646 0.676692 0.754732 0.83433 0.913472 0.989296 1.05761 1.11257 1.14805 0.00696859 0.00709601 0.00839977 0.0112575 0.0160194 0.0232927 0.0335578 0.0472932 0.0653588 0.0893505 0.121491 0.164769 0.222999 0.299585 0.391705 0.479225 0.520518 0.509978 0.502887 0.53571 0.582026 0.647232 0.722101 0.800207 0.878442 0.954225 1.02542 1.08969 1.14039 1.17244 0.0091807 0.00842422 0.0085363 0.0101987 0.0134162 0.0188295 0.0272114 0.0391292 0.0552806 0.0768597 0.105777 0.144758 0.19744 0.26707 0.352115 0.436323 0.488064 0.490244 0.480109 0.5117 0.557888 0.621882 0.698094 0.779181 0.862605 0.944964 1.02304 1.09423 1.14973 1.18815 0.0131043 0.0113112 0.0102173 0.0109361 0.0131685 0.017446 0.0246837 0.0355156 0.0505307 0.0707746 0.0980516 0.135014 0.184869 0.250895 0.333044 0.418445 0.479956 0.497385 0.488689 0.517615 0.562355 0.623664 0.701317 0.783199 0.86701 0.950129 1.02862 1.0996 1.15469 1.1913 0.0190269 0.0161072 0.0134548 0.0131856 0.0143867 0.0174493 0.0237587 0.0339914 0.0485564 0.0682561 0.0950043 0.131401 0.180931 0.246312 0.327282 0.414749 0.484054 0.515117 0.514064 0.535173 0.57561 0.631387 0.707712 0.789198 0.872248 0.954517 1.03307 1.10449 1.15971 1.19616 0.0273027 0.0234141 0.0188836 0.0174737 0.0174643 0.0183688 0.0224085 0.0308191 0.0438614 0.0619941 0.0868929 0.121118 0.16798 0.230426 0.308739 0.395705 0.473356 0.518893 0.532072 0.541455 0.577577 0.629397 0.702625 0.785366 0.870934 0.956362 1.03842 1.11365 1.1728 1.21256 0.0382954 0.0337073 0.02727 0.024705 0.0237719 0.0224017 0.0230776 0.028197 0.0384797 0.0541726 0.0764667 0.107586 0.150735 0.209042 0.283832 0.370683 0.45679 0.521191 0.552364 0.560946 0.591316 0.639249 0.708374 0.79322 0.88121 0.970291 1.05609 1.13471 1.19695 1.23597 0.0524569 0.0474613 0.0391809 0.0355217 0.0339884 0.0307863 0.028192 0.0295262 0.0361622 0.0489495 0.0682467 0.0960695 0.13489 0.188204 0.257766 0.341639 0.431538 0.510164 0.56247 0.58417 0.603454 0.647645 0.71094 0.797106 0.889397 0.98326 1.07532 1.16056 1.22808 1.2699 0.0706549 0.0655413 0.0553185 0.0505169 0.0485285 0.043776 0.0384422 0.0361324 0.0388827 0.0478577 0.0640111 0.0879731 0.122477 0.169816 0.233053 0.311858 0.401545 0.492534 0.566267 0.606163 0.62655 0.665382 0.72281 0.80655 0.904901 1.00515 1.10315 1.19384 1.26662 1.30889 0.0942933 0.0895372 0.0768789 0.0707411 0.0681921 0.0618484 0.054085 0.0488783 0.047814 0.0526906 0.0642598 0.084474 0.113932 0.155785 0.211854 0.283814 0.371114 0.467447 0.557554 0.625094 0.659475 0.687115 0.741624 0.818009 0.919374 1.02686 1.13323 1.2316 1.31005 1.35522 0.12503 0.12167 0.105769 0.0980019 0.0948988 0.0866701 0.0763174 0.0681132 0.0639204 0.0642235 0.0710132 0.085204 0.109618 0.144943 0.194441 0.259375 0.340461 0.437113 0.541419 0.633423 0.690665 0.723409 0.769901 0.83856 0.938194 1.05353 1.16729 1.27379 1.35893 1.40542 0.165599 0.16493 0.144713 0.134952 0.131263 0.120827 0.107371 0.0958614 0.0877949 0.0843799 0.0851383 0.0930338 0.109621 0.13829 0.179629 0.237003 0.31185 0.405609 0.515311 0.629027 0.720456 0.770215 0.804731 0.869755 0.960221 1.08023 1.20402 1.31903 1.41192 1.46111 0.219237 0.22313 0.197361 0.184797 0.180757 0.167622 0.150454 0.134585 0.122207 0.113736 0.109501 0.109554 0.1179 0.136739 0.1701 0.218694 0.286453 0.374905 0.485573 0.61219 0.735692 0.819949 0.859733 0.912677 0.993509 1.11104 1.24549 1.37003 1.47018 1.52256 0.288469 0.299699 0.266966 0.250824 0.246124 0.23002 0.208698 0.187824 0.169434 0.155514 0.144715 0.138134 0.136641 0.144937 0.166375 0.205387 0.263836 0.345151 0.452192 0.585844 0.734816 0.862549 0.930457 0.969006 1.04179 1.14687 1.28684 1.42458 1.53513 1.59199 0.370535 0.391808 0.352066 0.332974 0.327103 0.308308 0.283491 0.257353 0.232601 0.211524 0.194108 0.17938 0.169901 0.166219 0.174495 0.199859 0.246977 0.317938 0.418712 0.552741 0.719191 0.886876 1.00488 1.05018 1.10554 1.19972 1.33606 1.48608 1.60985 1.6715 0.447702 0.47936 0.436402 0.418428 0.414678 0.395356 0.370394 0.341229 0.311407 0.283399 0.25895 0.236689 0.21841 0.205169 0.199834 0.208518 0.240064 0.297959 0.388306 0.517778 0.689318 0.888404 1.06912 1.15832 1.19182 1.27334 1.39377 1.55085 1.69237 1.76165 0.481623 0.520662 0.488261 0.48005 0.484154 0.473184 0.456595 0.431283 0.401176 0.370704 0.340041 0.31153 0.286137 0.263481 0.246829 0.239973 0.250544 0.288852 0.363808 0.481037 0.649255 0.868355 1.10089 1.2655 1.31944 1.37387 1.47819 1.62463 1.78036 1.86087 0.465024 0.510028 0.490488 0.497493 0.515284 0.518848 0.521204 0.510048 0.49222 0.467237 0.436724 0.405307 0.374536 0.344747 0.317802 0.29763 0.28908 0.304505 0.352919 0.450627 0.606414 0.828553 1.10168 1.3566 1.48152 1.50474 1.59245 1.71953 1.87802 1.97144 0.455925 0.502877 0.480159 0.488671 0.514183 0.53223 0.55249 0.562378 0.566225 0.557461 0.541051 0.515066 0.485197 0.451637 0.41848 0.387789 0.36349 0.353609 0.377586 0.439792 0.566721 0.778429 1.07484 1.3954 1.64472 1.70641 1.74903 1.85312 1.99311 2.09395 0.489864 0.535656 0.511694 0.517543 0.53527 0.54141 0.56068 0.584363 0.606247 0.624983 0.633338 0.628913 0.611985 0.585312 0.552351 0.517137 0.480557 0.450822 0.440498 0.477015 0.558854 0.724661 1.00297 1.39011 1.75543 1.94526 1.9695 2.04422 2.1432 2.23322 0.536888 0.581963 0.557858 0.562263 0.575593 0.577313 0.591126 0.603525 0.626323 0.659611 0.690654 0.720429 0.735665 0.734594 0.719276 0.688734 0.648413 0.606421 0.566122 0.560141 0.613426 0.725645 0.946959 1.31608 1.77677 2.16445 2.28467 2.29582 2.3539 2.40919 0.602605 0.647152 0.621813 0.623495 0.631284 0.629267 0.639061 0.64723 0.665252 0.687155 0.723075 0.770236 0.820002 0.862684 0.887083 0.888634 0.868083 0.828387 0.777232 0.724128 0.727361 0.804455 0.961242 1.25884 1.72959 2.25349 2.62731 2.686 2.67866 2.65912 0.676647 0.722013 0.698017 0.701168 0.707511 0.702593 0.708317 0.710507 0.722691 0.741503 0.76967 0.804492 0.85958 0.93052 1.00508 1.06913 1.10082 1.1014 1.07451 1.00403 0.947518 0.962556 1.07131 1.28184 1.67955 2.25569 2.86939 3.18069 3.14871 3.0575 0.754679 0.800127 0.779064 0.783126 0.788897 0.785008 0.79328 0.796614 0.80594 0.817884 0.838558 0.869441 0.912475 0.968847 1.05022 1.15834 1.26537 1.35655 1.39415 1.39029 1.31617 1.2581 1.28257 1.43657 1.73325 2.25543 2.94987 3.63915 3.84823 3.75348 0.834248 0.878366 0.862392 0.866776 0.872217 0.87038 0.88126 0.889488 0.904222 0.919175 0.938109 0.959917 0.993445 1.04157 1.10539 1.19188 1.31957 1.48179 1.64473 1.75569 1.77671 1.72869 1.67893 1.7332 1.9424 2.36449 3.02751 3.94121 4.68429 4.85722 0.913372 0.954144 0.944914 0.949745 0.954449 0.95624 0.969853 0.983359 1.00443 1.02655 1.05371 1.07973 1.11094 1.14693 1.19955 1.27312 1.37374 1.50506 1.7068 1.94558 2.1643 2.25311 2.25562 2.2548 2.36459 2.68697 3.29437 4.24027 5.49581 6.55004 0.989181 1.02524 1.02292 1.02835 1.03271 1.03843 1.05564 1.07536 1.10286 1.13255 1.16744 1.20382 1.24514 1.28702 1.33615 1.39343 1.478 1.59272 1.74935 1.96994 2.28509 2.62771 2.86975 2.95005 3.0274 3.2945 3.83876 4.82744 6.31206 8.63626 1.05749 1.08954 1.09406 1.0993 1.10411 1.11376 1.13454 1.16023 1.19364 1.23145 1.27346 1.31869 1.36989 1.42463 1.48602 1.55041 1.62457 1.71987 1.85311 2.04454 2.29654 2.68668 3.18126 3.63927 3.94136 4.24 4.8277 5.83989 7.81603 10.6971 1.11244 1.14025 1.14948 1.15448 1.15941 1.17247 1.19666 1.22786 1.26597 1.31011 1.35928 1.41152 1.46997 1.5356 1.60977 1.69209 1.78107 1.87869 1.99262 2.14363 2.35462 2.67838 3.14933 3.84962 4.68488 5.49639 6.3124 7.81663 9.45987 13.9897 1.14792 1.17231 1.18791 1.19114 1.19576 1.21235 1.23569 1.26954 1.30835 1.35509 1.40563 1.46087 1.5224 1.59216 1.67106 1.76155 1.86228 1.97216 2.0933 2.23391 2.40966 2.65808 3.05842 3.75537 4.8569 6.55198 8.6391 10.698 13.989 14.8963
				</DataArray>
				<DataArray Name="Energy" type="Float32" format="ascii">
 957.076 844.501 642.623 450.654 310.325 216.007 153.75 112.042 83.0372 62.1509 46.6929 35.0922 26.3031 19.652 14.6465 10.895 8.12777 6.08806 4.83979 4.14314 3.65589 3.30054 3.00938 2.76036 2.5457 2.36129 2.2039 2.0714 1.96159 1.88714 842.63 827.401 698.657 521.306 366.196 251.777 174.671 123.85 89.5012 65.3659 47.9526 35.1929 25.7909 18.8974 13.8778 10.2244 7.57457 5.6617 4.49528 3.84683 3.40223 3.08379 2.82995 2.61492 2.43076 2.27266 2.13738 2.02327 1.92651 1.8539 639.747 696.616 687.322 575.207 437.095 311.356 215.29 149.556 105.751 75.9023 54.9815 39.9728 29.064 21.1372 15.4092 11.2897 8.32324 6.21231 4.86102 4.10551 3.5945 3.22641 2.93709 2.69313 2.48545 2.30797 2.15625 2.02961 1.92259 1.85102 448.147 518.847 574.164 535.908 445.276 335.696 237.167 164.669 115.52 82.3219 59.2229 42.7897 30.9433 22.3832 16.231 11.8462 8.72035 6.51009 5.04585 4.20135 3.64406 3.2479 2.94981 2.70123 2.49113 2.31357 2.16308 2.03791 1.93239 1.85769 308.615 364.202 435.857 444.707 406.947 335.636 246.109 171.79 120.069 85.1679 60.9809 43.8345 31.5698 22.7876 16.5324 12.0986 8.94956 6.70422 5.17449 4.24941 3.66122 3.24939 2.952 2.70718 2.50041 2.32491 2.17592 2.05113 1.94469 1.86925 214.959 250.479 310.468 335.192 335.381 318.119 260.882 189.24 132.603 93.6041 66.491 47.3979 33.8682 24.2925 17.5455 12.8184 9.49777 7.14339 5.5027 4.43262 3.77643 3.32526 3.00522 2.7493 2.53314 2.34879 2.19148 2.0598 1.94869 1.87315 153.135 173.896 214.835 236.965 245.993 260.989 252.36 206.559 150.919 106.802 75.3854 53.2141 37.6235 26.6866 19.0803 13.821 10.1754 7.63863 5.85777 4.63396 3.88098 3.37855 3.02734 2.75997 2.53559 2.3466 2.18628 2.05227 1.9411 1.86381 111.68 123.414 149.36 164.647 171.803 189.445 206.605 196.516 160.322 118.015 84.1556 59.477 41.9093 29.606 21.0508 15.1522 11.1119 8.31536 6.34684 4.964 4.05292 3.47564 3.07621 2.78754 2.55048 2.35006 2.18102 2.04095 1.92628 1.8486 82.8178 89.2533 105.677 115.552 120.141 132.862 151.069 160.459 148.642 120.272 89.6536 64.6316 46.0511 32.6772 23.2539 16.7134 12.207 9.09314 6.91408 5.35421 4.27486 3.59221 3.12958 2.80561 2.5537 2.34326 2.16724 2.02301 1.90808 1.8292 62.0186 65.2298 75.8861 82.3596 85.2473 93.8277 106.978 118.19 120.38 109.068 88.7407 67.2212 49.2381 35.5588 25.5555 18.4444 13.4666 10.0167 7.58259 5.83617 4.58668 3.74616 3.20749 2.83353 2.56107 2.33926 2.15576 2.00655 1.88925 1.80965 46.6166 47.8834 54.9888 59.2557 61.0504 66.6634 75.5387 84.3218 89.783 88.7908 80.1501 66.1059 51.0147 37.9798 27.8384 20.3151 14.911 11.0863 8.36642 6.40828 4.97426 3.96729 3.31567 2.87612 2.57118 2.33709 2.14483 1.99121 1.87282 1.79139 35.0513 35.1627 39.9861 42.8124 43.8851 47.516 53.3211 59.6091 64.762 67.2974 66.1576 60.3061 50.555 39.6774 29.9725 22.2608 16.4793 12.2953 9.27893 7.0827 5.4588 4.2722 3.46237 2.94521 2.59072 2.33862 2.1386 1.97909 1.85819 1.77488 26.2835 25.7811 29.0765 30.957 31.6037 33.9437 37.6954 42.0045 46.1552 49.3141 51.0793 50.5884 46.7381 39.7906 31.6694 24.1997 18.1807 13.6251 10.3002 7.85944 6.03351 4.66251 3.68003 3.04725 2.6298 2.34706 2.13692 1.97123 1.84655 1.76085 19.6454 18.8978 21.1472 22.393 22.8108 24.3414 26.7344 29.6685 32.7534 35.6211 38.0423 39.7246 39.8208 37.306 32.1713 25.885 19.9715 15.1376 11.472 8.75333 6.7136 5.15087 3.9837 3.19152 2.69435 2.36442 2.13781 1.96605 1.83778 1.74911 14.6455 13.8809 15.4167 16.2383 16.5473 17.5751 19.1086 21.0889 23.3025 25.5972 27.8878 30.0169 31.7099 32.2014 30.6058 26.6826 21.6485 16.7946 12.8264 9.78753 7.50775 5.7433 4.38578 3.41077 2.79204 2.40151 2.14591 1.96395 1.83126 1.73829 10.8955 10.2274 11.2952 11.8521 12.1079 12.8351 13.8391 15.1753 16.7426 18.4744 20.3508 22.2944 24.2333 25.9164 26.6924 25.6636 22.5815 18.3868 14.3044 10.9728 8.41423 6.4318 4.89209 3.72597 2.93868 2.46463 2.16151 1.96353 1.82628 1.72915 8.12811 7.57633 8.32631 8.72422 8.95467 9.50767 10.1869 11.1246 12.2239 13.4848 14.933 16.4996 18.2041 19.9988 21.6618 22.5955 21.9344 19.4018 15.8459 12.3064 9.45658 7.23926 5.49292 4.13767 3.16859 2.56399 2.19802 1.96798 1.82253 1.72132 6.08761 5.66232 6.21373 6.51236 6.70724 7.14929 7.64558 8.32353 9.10326 10.0262 11.0988 12.3068 13.6409 15.1594 16.8068 18.4037 19.4245 18.9649 16.8626 13.7754 10.6228 8.1544 6.19792 4.66082 3.49774 2.71298 2.25951 1.98239 1.81974 1.71327 4.8392 4.49536 4.86108 5.04678 5.17577 5.50619 5.86181 6.35171 6.92016 7.58881 8.37435 9.28713 10.3108 11.488 12.8369 14.3216 15.8579 16.8744 16.5245 14.7185 12.035 9.19449 7.02459 5.27332 3.92694 2.95506 2.35847 2.0149 1.81925 1.70431 4.1427 3.84672 4.10521 4.20163 4.24977 4.43402 4.63516 4.96658 5.3577 5.83974 6.41263 7.08763 7.86502 8.76312 9.79396 10.9853 12.3149 13.7733 14.7392 14.4018 12.8117 10.4813 8.00972 5.99176 4.45131 3.2941 2.51774 2.07673 1.83026 1.69914 3.65553 3.40212 3.59417 3.64416 3.66109 3.7765 3.88151 4.05409 4.27579 4.58865 4.97649 5.4614 6.03603 6.7193 7.51273 8.4205 9.45945 10.6195 12.0448 12.8292 12.4894 11.0746 9.01459 6.88594 5.11509 3.75684 2.77197 2.17478 1.86074 1.70104 3.30024 3.08369 3.22604 3.24779 3.24914 3.32526 3.37867 3.4755 3.59254 3.74668 3.96766 4.27332 4.66338 5.15314 5.7449 6.43562 7.24216 8.15437 9.20584 10.4826 11.0859 10.7611 9.48281 7.69614 5.89304 4.34212 3.15229 2.34652 1.92765 1.71714 3.00911 2.82986 2.93679 2.94966 2.95171 3.00537 3.02719 3.07587 3.12995 3.2071 3.31555 3.46265 3.68 3.9839 4.38627 4.89324 5.49487 6.19925 7.03013 8.00775 9.01234 9.49201 9.16569 8.06145 6.55146 4.98454 3.65321 2.63187 2.04373 1.76581 2.7601 2.61484 2.69286 2.70119 2.70671 2.74904 2.75981 2.7867 2.80541 2.83312 2.87595 2.94511 3.04689 3.1912 3.41046 3.72603 4.13858 4.66147 5.27302 5.99096 6.88551 7.70183 8.06698 7.78299 6.84933 5.56179 4.18877 3.03174 2.25883 1.87369 2.54544 2.43067 2.4851 2.49095 2.50031 2.53249 2.53545 2.55021 2.55337 2.56057 2.57068 2.59074 2.62948 2.69371 2.79153 2.93856 3.16881 3.49804 3.92828 4.45207 5.11551 5.89683 6.55157 6.8485 6.58348 5.80256 4.67688 3.47852 2.57325 2.04972 2.36103 2.27255 2.30785 2.31323 2.32481 2.34855 2.34586 2.34971 2.34291 2.33879 2.33661 2.33828 2.34701 2.36402 2.40095 2.46451 2.56386 2.71269 2.95521 3.29422 3.75696 4.3432 4.98557 5.56127 5.80256 5.57565 4.8997 3.92482 2.98504 2.30621 2.20364 2.13718 2.15613 2.16284 2.17555 2.19127 2.18553 2.18058 2.16729 2.15493 2.14438 2.13861 2.1366 2.13754 2.14575 2.16145 2.19782 2.2591 2.35828 2.51752 2.77189 3.15306 3.65404 4.18906 4.67721 4.89991 4.71628 4.14446 3.44039 2.60591 2.07116 2.02306 2.02946 2.03765 2.05078 2.05955 2.05177 2.04028 2.02316 2.00616 1.99032 1.97918 1.97112 1.96547 1.96403 1.96382 1.96754 1.98185 2.01494 2.07643 2.17443 2.34671 2.63208 3.03178 3.47871 3.92478 4.14439 3.99655 3.57294 2.75016 1.96136 1.92628 1.9224 1.93216 1.94444 1.94806 1.94054 1.92572 1.90793 1.88902 1.87233 1.85826 1.84644 1.83745 1.83148 1.82668 1.82209 1.8193 1.81954 1.82976 1.86026 1.92802 2.04362 2.25848 2.57342 2.98518 3.44034 3.57281 3.24983 2.62861 1.8869 1.85365 1.85083 1.85747 1.86896 1.87259 1.86333 1.84798 1.82923 1.80933 1.79072 1.77514 1.76073 1.74852 1.73859 1.72965 1.72068 1.7128 1.7049 1.69853 1.70053 1.71781 1.76546 1.87308 2.05026 2.30607 2.60544 2.75014 2.62876 2.37655
				</DataArray>
				<DataArray Name="F1" type="Float32" format="ascii">
 1 1 1 1 1 1 1 1 1 1 1 1 1 1 1 1 1 1 1 1 1 1 1 1 1 1 1 1 1 1 1 1 1 1 1 1 1 1 1 1 1 1 1 1 1 1 1 1 1 1 1 1 1 1 1 1 1 1 1 1 1 1 1 1 1 1 1 1 1 1 1 1 1 1 1 1 1 1 1 1 1 1 1 1 1 1 1 1 1 1 1 1 1 1 1 1 1 1 1 1 1 1 1 1 1 1 1 1 1 1 1 1 1 1 1 1 1 1 1 1 1 1 1 1 1 1 1 1 1 1 1 1 1 1 1 1 1 1 1 1 1 1 1 1 1 1 1 1 1 1 1 1 1 1 1 1 1 1 1 1 1 1 1 1 1 1 1 1 1 1 1 1 1 1 1 1 1 1 1 1 1 1 1 1 1 1 1 1 1 1 1 1 1 1 1 1 1 1 1 1 1 1 1 1 1 1 1 1 1 1 1 1 1 1 1 1 1 1 1 1 1 1 1 1 1 1 1 1 1 1 1 1 1 1 1 1 1 1 1 1 1 1 1 1 1 1 1 1 1 1 1 1 1 1 1 1 1 1 1 1 1 1 1 1 1 1 1 1 1 1 1 1 1 1 1 1 1 1 1 1 1 1 1 1 1 1 1 1 1 1 1 1 1 1 1 1 1 1 1 1 1 1 1 1 1 1 1 1 1 1 1 1 1 1 1 1 1 1 1 1 1 1 1 1 1 1 1 1 1 1 1 1 1 1 1 1 1 1 1 1 1 1 1 1 1 1 1 1 1 1 1 1 1 1 1 1 1 1 1 1 1 1 1 1 1 1 1 1 1 1 1 1 1 1 1 1 1 1 1 1 1 1 1 1 1 1 1 1 1 1 1 1 1 1 1 1 1 1 1 1 1 1 1 1 1 1 1 1 1 1 1 1 1 1 1 1 1 1 1 1 1 1 1 1 1 1 1 1 1 1 1 1 1 1 1 1 1 1 1 1 1 1 1 1 1 1 1 1 1 1 1 1 1 1 1 1 1 1 1 1 1 1 1 1 1 1 1 1 1 1 1 1 1 1 1 1 1 1 1 1 1 1 1 1 1 1 1 1 1 1 1 1 1 1 1 1 1 1 1 1 1 1 1 1 1 1 1 1 1 1 1 1 1 1 1 1 1 1 1 1 1 1 1 1 1 1 1 1 1 1 1 1 1 1 1 1 1 1 1 1 1 1 1 1 1 1 1 1 1 1 1 1 1 1 1 1 1 1 1 1 1 1 1 1 1 1 1 1 1 1 1 1 1 1 1 1 1 1 1 1 1 1 1 1 1 1 1 1 1 1 1 1 1 1 1 1 1 1 1 1 1 1 1 1 1 1 1 1 1 1 1 1 1 1 1 1 1 1 1 1 1 1 1 1 1 1 1 1 1 1 1 1 1 1 1 1 1 1 1 1 1 1 1 1 1 1 1 1 1 1 1 1 1 1 1 1 1 1 1 1 1 1 1 1 1 1 1 1 1 1 1 1 1 1 1 1 1 1 1 1 1 1 1 1 1 1 1 1 1 1 1 1 1 1 1 1 1 1 1 1 1 1 1 1 1 1 1 1 1 1 1 1 1 1 1 1 1 1 1 1 1 1 1 1 1 1 1 1 1 1 1 1 1 1 1 1 1 1 1 1 1 1 1 1 1 1 1 1 1 1 1 1 1 1 1 1 1 1 1 1 1 1 1 1 1 1 1 1 1 1 1 1 1 1 1 1 1 1 1 1 1 1 1 1 1 1 1 1 1 1 1 1 1 1 1 1 1 1 1 1 1 1 1 1 1 1 1 1 1 1 1 1 1 1 1 1 1 1 1 1 1 1 1 1 1 1 1 1 1 1 1 1 1 1 1 1 1 1 1 1 1 1 1 1 1 1 1 1 1 1 1 1 1 1 1 1 1 1 1 1 1 1 1 1 1 1 1 1 1 1 1 1 1 1 1 1 1 1 1 1 1 1 1 1 1 1 1 1 1 1 1 1 1 1 1 1 1 1 1 1
				</DataArray>
				<DataArray Name="F2" type="Float32" format="ascii">
 0 0 0 0 0 0 0 0 0 0 0 0 0 0 0 0 0 0 0 0 0 0 0 0 0 0 0 0 0 0 0 0 0 0 0 0 0 0 0 0 0 0 0 0 0 0 0 0 0 0 0 0 0 0 0 0 0 0 0 0 0 0 0 0 0 0 0 0 0 0 0 0 0 0 0 0 0 0 0 0 0 0 0 0 0 0 0 0 0 0 0 0 0 0 0 0 0 0 0 0 0 0 0 0 0 0 0 0 0 0 0 0 0 0 0 0 0 0 0 0 0 0 0 0 0 0 0 0 0 0 0 0 0 0 0 0 0 0 0 0 0 0 0 0 0 0 0 0 0 0 0 0 0 0 0 0 0 0 0 0 0 0 0 0 0 0 0 0 0 0 0 0 0 0 0 0 0 0 0 0 0 0 0 0 0 0 0 0 0 0 0 0 0 0 0 0 0 0 0 0 0 0 0 0 0 0 0 0 0 0 0 0 0 0 0 0 0 0 0 0 0 0 0 0 0 0 0 0 0 0 0 0 0 0 0 0 0 0 0 0 0 0 0 0 0 0 0 0 0 0 0 0 0 0 0 0 0 0 0 0 0 0 0 0 0 0 0 0 0 0 0 0 0 0 0 0 0 0 0 0 0 0 0 0 0 0 0 0 0 0 0 0 0 0 0 0 0 0 0 0 0 0 0 0 0 0 0 0 0 0 0 0 0 0 0 0 0 0 0 0 0 0 0 0 0 0 0 0 0 0 0 0 0 0 0 0 0 0 0 0 0 0 0 0 0 0 0 0 0 0 0 0 0 0 0 0 0 0 0 0 0 0 0 0 0 0 0 0 0 0 0 0 0 0 0 0 0 0 0 0 0 0 0 0 0 0 0 0 0 0 0 0 0 0 0 0 0 0 0 0 0 0 0 0 0 0 0 0 0 0 0 0 0 0 0 0 0 0 0 0 0 0 0 0 0 0 0 0 0 0 0 0 0 0 0 0 0 0 0 0 0 0 0 0 0 0 0 0 0 0 0 0 0 0 0 0 0 0 0 0 0 0 0 0 0 0 0 0 0 0 0 0 0 0 0 0 0 0 0 0 0 0 0 0 0 0 0 0 0 0 0 0 0 0 0 0 0 0 0 0 0 0 0 0 0 0 0 0 0 0 0 0 0 0 0 0 0 0 0 0 0 0 0 0 0 0 0 0 0 0 0 0 0 0 0 0 0 0 0 0 0 0 0 0 0 0 0 0 0 0 0 0 0 0 0 0 0 0 0 0 0 0 0 0 0 0 0 0 0 0 0 0 0 0 0 0 0 0 0 0 0 0 0 0 0 0 0 0 0 0 0 0 0 0 0 0 0 0 0 0 0 0 0 0 0 0 0 0 0 0 0 0 0 0 0 0 0 0 0 0 0 0 0 0 0 0 0 0 0 0 0 0 0 0 0 0 0 0 0 0 0 0 0 0 0 0 0 0 0 0 0 0 0 0 0 0 0 0 0 0 0 0 0 0 0 0 0 0 0 0 0 0 0 0 0 0 0 0 0 0 0 0 0 0 0 0 0 0 0 0 0 0 0 0 0 0 0 0 0 0 0 0 0 0 0 0 0 0 0 0 0 0 0 0 0 0 0 0 0 0 0 0 0 0 0 0 0 0 0 0 0 0 0 0 0 0 0 0 0 0 0 0 0 0 0 0 0 0 0 0 0 0 0 0 0 0 0 0 0 0 0 0 0 0 0 0 0 0 0 0 0 0 0 0 0 0 0 0 0 0 0 0 0 0 0 0 0 0 0 0 0 0 0 0 0 0 0 0 0 0 0 0 0 0 0 0 0 0 0 0 0 0 0 0 0 0 0 0 0 0 0 0 0 0 0 0 0 0 0 0 0 0 0 0 0 0 0 0 0 0 0 0 0 0 0 0 0 0 0 0 0 0 0 0 0 0 0 0 0 0 0 0 0 0 0 0 0 0 0 0 0 0 0 0 0 0 0 0 0 0 0 0 0 0 0 0 0 0 0 0 0 0 0 0 0 0 0 0 0 0
				</DataArray>
				<DataArray Name="F3" type="Float32" format="ascii">