<?xml version="1.0"?>
<VTKFile type="PolyData">
	<PolyData>
		<Piece NumberOfPoints="961" NumberOfPolys="900">
			<Points>
				<DataArray type="Float32" NumberOfComponents="3" format="ascii">
 0 0 0 0.04 0 0 0.08 0 0 0.12 0 0 0.16 0 0 0.2 0 0 0.24 0 0 0.28 0 0 0.32 0 0 0.36 0 0 0.4 0 0 0.44 0 0 0.48 0 0 0.52 0 0 0.56 0 0 0.6 0 0 0.64 0 0 0.68 0 0 0.72 0 0 0.76 0 0 0.8 0 0 0.84 0 0 0.88 0 0 0.92 0 0 0.96 0 0 1 0 0 1.04 0 0 1.08 0 0 1.12 0 0 1.16 0 0 1.2 0 0 0 0.04 0 0.04 0.04 0 0.08 0.04 0 0.12 0.04 0 0.16 0.04 0 0.2 0.04 0 0.24 0.04 0 0.28 0.04 0 0.32 0.04 0 0.36 0.04 0 0.4 0.04 0 0.44 0.04 0 0.48 0.04 0 0.52 0.04 0 0.56 0.04 0 0.6 0.04 0 0.64 0.04 0 0.68 0.04 0 0.72 0.04 0 0.76 0.04 0 0.8 0.04 0 0.84 0.04 0 0.88 0.04 0 0.92 0.04 0 0.96 0.04 0 1 0.04 0 1.04 0.04 0 1.08 0.04 0 1.12 0.04 0 1.16 0.04 0 1.2 0.04 0 0 0.08 0 0.04 0.08 0 0.08 0.08 0 0.12 0.08 0 0.16 0.08 0 0.2 0.08 0 0.24 0.08 0 0.28 0.08 0 0.32 0.08 0 0.36 0.08 0 0.4 0.08 0 0.44 0.08 0 0.48 0.08 0 0.52 0.08 0 0.56 0.08 0 0.6 0.08 0 0.64 0.08 0 0.68 0.08 0 0.72 0.08 0 0.76 0.08 0 0.8 0.08 0 0.84 0.08 0 0.88 0.08 0 0.92 0.08 0 0.96 0.08 0 1 0.08 0 1.04 0.08 0 1.08 0.08 0 1.12 0.08 0 1.16 0.08 0 1.2 0.08 0 0 0.12 0 0.04 0.12 0 0.08 0.12 0 0.12 0.12 0 0.16 0.12 0 0.2 0.12 0 0.24 0.12 0 0.28 0.12 0 0.32 0.12 0 0.36 0.12 0 0.4 0.12 0 0.44 0.12 0 0.48 0.12 0 0.52 0.12 0 0.56 0.12 0 0.6 0.12 0 0.64 0.12 0 0.68 0.12 0 0.72 0.12 0 0.76 0.12 0 0.8 0.12 0 0.84 0.12 0 0.88 0.12 0 0.92 0.12 0 0.96 0.12 0 1 0.12 0 1.04 0.12 0 1.08 0.12 0 1.12 0.12 0 1.16 0.12 0 1.2 0.12 0 0 0.16 0 0.04 0.16 0 0.08 0.16 0 0.12 0.16 0 0.16 0.16 0 0.2 0.16 0 0.24 0.16 0 0.28 0.16 0 0.32 0.16 0 0.36 0.16 0 0.4 0.16 0 0.44 0.16 0 0.48 0.16 0 0.52 0.16 0 0.56 0.16 0 0.6 0.16 0 0.64 0.16 0 0.68 0.16 0 0.72 0.16 0 0.76 0.16 0 0.8 0.16 0 0.84 0.16 0 0.88 0.16 0 0.92 0.16 0 0.96 0.16 0 1 0.16 0 1.04 0.16 0 1.08 0.16 0 1.12 0.16 0 1.16 0.16 0 1.2 0.16 0 0 0.2 0 0.04 0.2 0 0.08 0.2 0 0.12 0.2 0 0.16 0.2 0 0.2 0.2 0 0.24 0.2 0 0.28 0.2 0 0.32 0.2 0 0.36 0.2 0 0.4 0.2 0 0.44 0.2 0 0.48 0.2 0 0.52 0.2 0 0.56 0.2 0 0.6 0.2 0 0.64 0.2 0 0.68 0.2 0 0.72 0.2 0 0.76 0.2 0 0.8 0.2 0 0.84 0.2 0 0.88 0.2 0 0.92 0.2 0 0.96 0.2 0 1 0.2 0 1.04 0.2 0 1.08 0.2 0 1.12 0.2 0 1.16 0.2 0 1.2 0.2 0 0 0.24 0 0.04 0.24 0 0.08 0.24 0 0.12 0.24 0 0.16 0.24 0 0.2 0.24 0 0.24 0.24 0 0.28 0.24 0 0.32 0.24 0 0.36 0.24 0 0.4 0.24 0 0.44 0.24 0 0.48 0.24 0 0.52 0.24 0 0.56 0.24 0 0.6 0.24 0 0.64 0.24 0 0.68 0.24 0 0.72 0.24 0 0.76 0.24 0 0.8 0.24 0 0.84 0.24 0 0.88 0.24 0 0.92 0.24 0 0.96 0.24 0 1 0.24 0 1.04 0.24 0 1.08 0.24 0 1.12 0.24 0 1.16 0.24 0 1.2 0.24 0 0 0.28 0 0.04 0.28 0 0.08 0.28 0 0.12 0.28 0 0.16 0.28 0 0.2 0.28 0 0.24 0.28 0 0.28 0.28 0 0.32 0.28 0 0.36 0.28 0 0.4 0.28 0 0.44 0.28 0 0.48 0.28 0 0.52 0.28 0 0.56 0.28 0 0.6 0.28 0 0.64 0.28 0 0.68 0.28 0 0.72 0.28 0 0.76 0.28 0 0.8 0.28 0 0.84 0.28 0 0.88 0.28 0 0.92 0.28 0 0.96 0.28 0 1 0.28 0 1.04 0.28 0 1.08 0.28 0 1.12 0.28 0 1.16 0.28 0 1.2 0.28 0 0 0.32 0 0.04 0.32 0 0.08 0.32 0 0.12 0.32 0 0.16 0.32 0 0.2 0.32 0 0.24 0.32 0 0.28 0.32 0 0.32 0.32 0 0.36 0.32 0 0.4 0.32 0 0.44 0.32 0 0.48 0.32 0 0.52 0.32 0 0.56 0.32 0 0.6 0.32 0 0.64 0.32 0 0.68 0.32 0 0.72 0.32 0 0.76 0.32 0 0.8 0.32 0 0.84 0.32 0 0.88 0.32 0 0.92 0.32 0 0.96 0.32 0 1 0.32 0 1.04 0.32 0 1.08 0.32 0 1.12 0.32 0 1.16 0.32 0 1.2 0.32 0 0 0.36 0 0.04 0.36 0 0.08 0.36 0 0.12 0.36 0 0.16 0.36 0 0.2 0.36 0 0.24 0.36 0 0.28 0.36 0 0.32 0.36 0 0.36 0.36 0 0.4 0.36 0 0.44 0.36 0 0.48 0.36 0 0.52 0.36 0 0.56 0.36 0 0.6 0.36 0 0.64 0.36 0 0.68 0.36 0 0.72 0.36 0 0.76 0.36 0 0.8 0.36 0 0.84 0.36 0 0.88 0.36 0 0.92 0.36 0 0.96 0.36 0 1 0.36 0 1.04 0.36 0 1.08 0.36 0 1.12 0.36 0 1.16 0.36 0 1.2 0.36 0 0 0.4 0 0.04 0.4 0 0.08 0.4 0 0.12 0.4 0 0.16 0.4 0 0.2 0.4 0 0.24 0.4 0 0.28 0.4 0 0.32 0.4 0 0.36 0.4 0 0.4 0.4 0 0.44 0.4 0 0.48 0.4 0 0.52 0.4 0 0.56 0.4 0 0.6 0.4 0 0.64 0.4 0 0.68 0.4 0 0.72 0.4 0 0.76 0.4 0 0.8 0.4 0 0.84 0.4 0 0.88 0.4 0 0.92 0.4 0 0.96 0.4 0 1 0.4 0 1.04 0.4 0 1.08 0.4 0 1.12 0.4 0 1.16 0.4 0 1.2 0.4 0 0 0.44 0 0.04 0.44 0 0.08 0.44 0 0.12 0.44 0 0.16 0.44 0 0.2 0.44 0 0.24 0.44 0 0.28 0.44 0 0.32 0.44 0 0.36 0.44 0 0.4 0.44 0 0.44 0.44 0 0.48 0.44 0 0.52 0.44 0 0.56 0.44 0 0.6 0.44 0 0.64 0.44 0 0.68 0.44 0 0.72 0.44 0 0.76 0.44 0 0.8 0.44 0 0.84 0.44 0 0.88 0.44 0 0.92 0.44 0 0.96 0.44 0 1 0.44 0 1.04 0.44 0 1.08 0.44 0 1.12 0.44 0 1.16 0.44 0 1.2 0.44 0 0 0.48 0 0.04 0.48 0 0.08 0.48 0 0.12 0.48 0 0.16 0.48 0 0.2 0.48 0 0.24 0.48 0 0.28 0.48 0 0.32 0.48 0 0.36 0.48 0 0.4 0.48 0 0.44 0.48 0 0.48 0.48 0 0.52 0.48 0 0.56 0.48 0 0.6 0.48 0 0.64 0.48 0 0.68 0.48 0 0.72 0.48 0 0.76 0.48 0 0.8 0.48 0 0.84 0.48 0 0.88 0.48 0 0.92 0.48 0 0.96 0.48 0 1 0.48 0 1.04 0.48 0 1.08 0.48 0 1.12 0.48 0 1.16 0.48 0 1.2 0.48 0 0 0.52 0 0.04 0.52 0 0.08 0.52 0 0.12 0.52 0 0.16 0.52 0 0.2 0.52 0 0.24 0.52 0 0.28 0.52 0 0.32 0.52 0 0.36 0.52 0 0.4 0.52 0 0.44 0.52 0 0.48 0.52 0 0.52 0.52 0 0.56 0.52 0 0.6 0.52 0 0.64 0.52 0 0.68 0.52 0 0.72 0.52 0 0.76 0.52 0 0.8 0.52 0 0.84 0.52 0 0.88 0.52 0 0.92 0.52 0 0.96 0.52 0 1 0.52 0 1.04 0.52 0 1.08 0.52 0 1.12 0.52 0 1.16 0.52 0 1.2 0.52 0 0 0.56 0 0.04 0.56 0 0.08 0.56 0 0.12 0.56 0 0.16 0.56 0 0.2 0.56 0 0.24 0.56 0 0.28 0.56 0 0.32 0.56 0 0.36 0.56 0 0.4 0.56 0 0.44 0.56 0 0.48 0.56 0 0.52 0.56 0 0.56 0.56 0 0.6 0.56 0 0.64 0.56 0 0.68 0.56 0 0.72 0.56 0 0.76 0.56 0 0.8 0.56 0 0.84 0.56 0 0.88 0.56 0 0.92 0.56 0 0.96 0.56 0 1 0.56 0 1.04 0.56 0 1.08 0.56 0 1.12 0.56 0 1.16 0.56 0 1.2 0.56 0 0 0.6 0 0.04 0.6 0 0.08 0.6 0 0.12 0.6 0 0.16 0.6 0 0.2 0.6 0 0.24 0.6 0 0.28 0.6 0 0.32 0.6 0 0.36 0.6 0 0.4 0.6 0 0.44 0.6 0 0.48 0.6 0 0.52 0.6 0 0.56 0.6 0 0.6 0.6 0 0.64 0.6 0 0.68 0.6 0 0.72 0.6 0 0.76 0.6 0 0.8 0.6 0 0.84 0.6 0 0.88 0.6 0 0.92 0.6 0 0.96 0.6 0 1 0.6 0 1.04 0.6 0 1.08 0.6 0 1.12 0.6 0 1.16 0.6 0 1.2 0.6 0 0 0.64 0 0.04 0.64 0 0.08 0.64 0 0.12 0.64 0 0.16 0.64 0 0.2 0.64 0 0.24 0.64 0 0.28 0.64 0 0.32 0.64 0 0.36 0.64 0 0.4 0.64 0 0.44 0.64 0 0.48 0.64 0 0.52 0.64 0 0.56 0.64 0 0.6 0.64 0 0.64 0.64 0 0.68 0.64 0 0.72 0.64 0 0.76 0.64 0 0.8 0.64 0 0.84 0.64 0 0.88 0.64 0 0.92 0.64 0 0.96 0.64 0 1 0.64 0 1.04 0.64 0 1.08 0.64 0 1.12 0.64 0 1.16 0.64 0 1.2 0.64 0 0 0.68 0 0.04 0.68 0 0.08 0.68 0 0.12 0.68 0 0.16 0.68 0 0.2 0.68 0 0.24 0.68 0 0.28 0.68 0 0.32 0.68 0 0.36 0.68 0 0.4 0.68 0 0.44 0.68 0 0.48 0.68 0 0.52 0.68 0 0.56 0.68 0 0.6 0.68 0 0.64 0.68 0 0.68 0.68 0 0.72 0.68 0 0.76 0.68 0 0.8 0.68 0 0.84 0.68 0 0.88 0.68 0 0.92 0.68 0 0.96 0.68 0 1 0.68 0 1.04 0.68 0 1.08 0.68 0 1.12 0.68 0 1.16 0.68 0 1.2 0.68 0 0 0.72 0 0.04 0.72 0 0.08 0.72 0 0.12 0.72 0 0.16 0.72 0 0.2 0.72 0 0.24 0.72 0 0.28 0.72 0 0.32 0.72 0 0.36 0.72 0 0.4 0.72 0 0.44 0.72 0 0.48 0.72 0 0.52 0.72 0 0.56 0.72 0 0.6 0.72 0 0.64 0.72 0 0.68 0.72 0 0.72 0.72 0 0.76 0.72 0 0.8 0.72 0 0.84 0.72 0 0.88 0.72 0 0.92 0.72 0 0.96 0.72 0 1 0.72 0 1.04 0.72 0 1.08 0.72 0 1.12 0.72 0 1.16 0.72 0 1.2 0.72 0 0 0.76 0 0.04 0.76 0 0.08 0.76 0 0.12 0.76 0 0.16 0.76 0 0.2 0.76 0 0.24 0.76 0 0.28 0.76 0 0.32 0.76 0 0.36 0.76 0 0.4 0.76 0 0.44 0.76 0 0.48 0.76 0 0.52 0.76 0 0.56 0.76 0 0.6 0.76 0 0.64 0.76 0 0.68 0.76 0 0.72 0.76 0 0.76 0.76 0 0.8 0.76 0 0.84 0.76 0 0.88 0.76 0 0.92 0.76 0 0.96 0.76 0 1 0.76 0 1.04 0.76 0 1.08 0.76 0 1.12 0.76 0 1.16 0.76 0 1.2 0.76 0 0 0.8 0 0.04 0.8 0 0.08 0.8 0 0.12 0.8 0 0.16 0.8 0 0.2 0.8 0 0.24 0.8 0 0.28 0.8 0 0.32 0.8 0 0.36 0.8 0 0.4 0.8 0 0.44 0.8 0 0.48 0.8 0 0.52 0.8 0 0.56 0.8 0 0.6 0.8 0 0.64 0.8 0 0.68 0.8 0 0.72 0.8 0 0.76 0.8 0 0.8 0.8 0 0.84 0.8 0 0.88 0.8 0 0.92 0.8 0 0.96 0.8 0 1 0.8 0 1.04 0.8 0 1.08 0.8 0 1.12 0.8 0 1.16 0.8 0 1.2 0.8 0 0 0.84 0 0.04 0.84 0 0.08 0.84 0 0.12 0.84 0 0.16 0.84 0 0.2 0.84 0 0.24 0.84 0 0.28 0.84 0 0.32 0.84 0 0.36 0.84 0 0.4 0.84 0 0.44 0.84 0 0.48 0.84 0 0.52 0.84 0 0.56 0.84 0 0.6 0.84 0 0.64 0.84 0 0.68 0.84 0 0.72 0.84 0 0.76 0.84 0 0.8 0.84 0 0.84 0.84 0 0.88 0.84 0 0.92 0.84 0 0.96 0.84 0 1 0.84 0 1.04 0.84 0 1.08 0.84 0 1.12 0.84 0 1.16 0.84 0 1.2 0.84 0 0 0.88 0 0.04 0.88 0 0.08 0.88 0 0.12 0.88 0 0.16 0.88 0 0.2 0.88 0 0.24 0.88 0 0.28 0.88 0 0.32 0.88 0 0.36 0.88 0 0.4 0.88 0 0.44 0.88 0 0.48 0.88 0 0.52 0.88 0 0.56 0.88 0 0.6 0.88 0 0.64 0.88 0 0.68 0.88 0 0.72 0.88 0 0.76 0.88 0 0.8 0.88 0 0.84 0.88 0 0.88 0.88 0 0.92 0.88 0 0.96 0.88 0 1 0.88 0 1.04 0.88 0 1.08 0.88 0 1.12 0.88 0 1.16 0.88 0 1.2 0.88 0 0 0.92 0 0.04 0.92 0 0.08 0.92 0 0.12 0.92 0 0.16 0.92 0 0.2 0.92 0 0.24 0.92 0 0.28 0.92 0 0.32 0.92 0 0.36 0.92 0 0.4 0.92 0 0.44 0.92 0 0.48 0.92 0 0.52 0.92 0 0.56 0.92 0 0.6 0.92 0 0.64 0.92 0 0.68 0.92 0 0.72 0.92 0 0.76 0.92 0 0.8 0.92 0 0.84 0.92 0 0.88 0.92 0 0.92 0.92 0 0.96 0.92 0 1 0.92 0 1.04 0.92 0 1.08 0.92 0 1.12 0.92 0 1.16 0.92 0 1.2 0.92 0 0 0.96 0 0.04 0.96 0 0.08 0.96 0 0.12 0.96 0 0.16 0.96 0 0.2 0.96 0 0.24 0.96 0 0.28 0.96 0 0.32 0.96 0 0.36 0.96 0 0.4 0.96 0 0.44 0.96 0 0.48 0.96 0 0.52 0.96 0 0.56 0.96 0 0.6 0.96 0 0.64 0.96 0 0.68 0.96 0 0.72 0.96 0 0.76 0.96 0 0.8 0.96 0 0.84 0.96 0 0.88 0.96 0 0.92 0.96 0 0.96 0.96 0 1 0.96 0 1.04 0.96 0 1.08 0.96 0 1.12 0.96 0 1.16 0.96 0 1.2 0.96 0 0 1 0 0.04 1 0 0.08 1 0 0.12 1 0 0.16 1 0 0.2 1 0 0.24 1 0 0.28 1 0 0.32 1 0 0.36 1 0 0.4 1 0 0.44 1 0 0.48 1 0 0.52 1 0 0.56 1 0 0.6 1 0 0.64 1 0 0.68 1 0 0.72 1 0 0.76 1 0 0.8 1 0 0.84 1 0 0.88 1 0 0.92 1 0 0.96 1 0 1 1 0 1.04 1 0 1.08 1 0 1.12 1 0 1.16 1 0 1.2 1 0 0 1.04 0 0.04 1.04 0 0.08 1.04 0 0.12 1.04 0 0.16 1.04 0 0.2 1.04 0 0.24 1.04 0 0.28 1.04 0 0.32 1.04 0 0.36 1.04 0 0.4 1.04 0 0.44 1.04 0 0.48 1.04 0 0.52 1.04 0 0.56 1.04 0 0.6 1.04 0 0.64 1.04 0 0.68 1.04 0 0.72 1.04 0 0.76 1.04 0 0.8 1.04 0 0.84 1.04 0 0.88 1.04 0 0.92 1.04 0 0.96 1.04 0 1 1.04 0 1.04 1.04 0 1.08 1.04 0 1.12 1.04 0 1.16 1.04 0 1.2 1.04 0 0 1.08 0 0.04 1.08 0 0.08 1.08 0 0.12 1.08 0 0.16 1.08 0 0.2 1.08 0 0.24 1.08 0 0.28 1.08 0 0.32 1.08 0 0.36 1.08 0 0.4 1.08 0 0.44 1.08 0 0.48 1.08 0 0.52 1.08 0 0.56 1.08 0 0.6 1.08 0 0.64 1.08 0 0.68 1.08 0 0.72 1.08 0 0.76 1.08 0 0.8 1.08 0 0.84 1.08 0 0.88 1.08 0 0.92 1.08 0 0.96 1.08 0 1 1.08 0 1.04 1.08 0 1.08 1.08 0 1.12 1.08 0 1.16 1.08 0 1.2 1.08 0 0 1.12 0 
[...]
			<CellData Scalars="Density">
				<DataArray Name="Density" type="Float32" format="ascii">
 0.00630841 0.00757985 0.0121781 0.0209601 0.0340492 0.050922 0.0714923 0.0956711 0.123856 0.155913 0.192606 0.235783 0.287067 0.349042 0.433536 0.540649 0.656791 0.788099 0.930388 1.07812 1.21734 1.28704 1.23501 1.02635 0.761008 0.704315 0.693393 0.706213 0.726131 0.738025 0.00765159 0.00732307 0.00920842 0.0158637 0.0266302 0.0420654 0.0612853 0.0842276 0.110225 0.139434 0.173251 0.214841 0.265843 0.329863 0.422059 0.531779 0.658241 0.802152 0.958591 1.11825 1.26845 1.34854 1.29108 1.07157 0.796524 0.728982 0.712848 0.721928 0.739607 0.750953 0.0123605 0.00932183 0.00893634 0.0110219 0.0171334 0.0284577 0.0435881 0.0617219 0.0835327 0.108857 0.139849 0.178285 0.226041 0.288671 0.375597 0.478454 0.602074 0.743842 0.90083 1.06381 1.21667 1.30727 1.2735 1.08053 0.813852 0.735664 0.716668 0.72363 0.741075 0.75371 0.0212737 0.0161271 0.0111181 0.0108001 0.0127488 0.019138 0.0290951 0.0454852 0.0672604 0.0928791 0.124115 0.161258 0.20797 0.271481 0.354975 0.456801 0.57999 0.722255 0.878802 1.04206 1.19618 1.29194 1.27779 1.11095 0.85228 0.751609 0.723933 0.723841 0.738391 0.751093 0.0344664 0.0269745 0.0173254 0.0128176 0.0127914 0.0153974 0.0221101 0.0344125 0.0541868 0.0812874 0.111073 0.144597 0.187725 0.248688 0.328714 0.43044 0.554651 0.699604 0.858947 1.02235 1.17643 1.28029 1.28369 1.14492 0.911498 0.780084 0.736502 0.727032 0.736865 0.748257 0.0514193 0.0424905 0.028744 0.0192368 0.0154385 0.0156469 0.0191539 0.0274264 0.0420832 0.0621963 0.0869782 0.11731 0.15723 0.212745 0.287831 0.386325 0.509169 0.654588 0.816533 0.983669 1.14109 1.25742 1.28338 1.18417 0.988197 0.824038 0.761775 0.740283 0.742356 0.750458 0.0720652 0.0617633 0.0438224 0.0291946 0.0221076 0.0191446 0.0195788 0.0242069 0.0336434 0.0474393 0.0647453 0.0903781 0.126742 0.178291 0.248881 0.342329 0.460861 0.60373 0.765912 0.936727 1.09997 1.22864 1.28196 1.22488 1.07311 0.895407 0.805458 0.764576 0.755619 0.758853 0.0963071 0.0847229 0.0619264 0.0455518 0.034375 0.0273562 0.0241637 0.024737 0.0301578 0.0389832 0.0521037 0.0724084 0.105384 0.153953 0.220241 0.308243 0.420627 0.557605 0.715928 0.886836 1.05422 1.19423 1.27199 1.25293 1.15142 0.995095 0.867225 0.803063 0.779783 0.774105 0.124549 0.110701 0.0836863 0.067275 0.0540564 0.0419027 0.0335029 0.0300925 0.0310775 0.0373223 0.0473738 0.065349 0.0956266 0.141099 0.203823 0.286084 0.390934 0.52 0.67188 0.83902 1.00733 1.15546 1.253 1.2722 1.22135 1.104 0.958968 0.867221 0.818592 0.797662 0.156639 0.139872 0.108984 0.0928619 0.0810379 0.0618594 0.0471992 0.0388372 0.0372725 0.0403176 0.050062 0.0679367 0.0975045 0.141054 0.200101 0.276105 0.372719 0.492735 0.635142 0.795 0.960391 1.11162 1.22612 1.28271 1.2711 1.2066 1.08529 0.959266 0.875327 0.836772 0.193348 0.17365 0.139943 0.124024 0.110724 0.086491 0.064415 0.0519061 0.0472681 0.0500345 0.0604257 0.080059 0.109734 0.15106 0.205419 0.275365 0.36361 0.473104 0.604701 0.753984 0.911237 1.06249 1.1888 1.26956 1.30728 1.29672 1.21292 1.08293 0.972677 0.905264 0.236529 0.2152 0.17835 0.16106 0.144096 0.116713 0.0899172 0.0721068 0.0651621 0.0679028 0.080071 0.1004 0.129547 0.16774 0.217726 0.280629 0.360502 0.459509 0.578679 0.71593 0.863992 1.01018 1.14208 1.2479 1.32542 1.3584 1.3319 1.24339 1.12128 1.01874 0.287813 0.266172 0.226064 0.207683 0.187103 0.156527 0.126132 0.104943 0.0952983 0.0974191 0.109705 0.129522 0.156458 0.190824 0.234866 0.290932 0.360976 0.449002 0.555883 0.679671 0.815764 0.955796 1.09235 1.21439 1.32083 1.41219 1.44599 1.41273 1.31779 1.20295 0.349754 0.330112 0.288537 0.271011 0.24791 0.21189 0.177543 0.153194 0.140719 0.140858 0.150848 0.167582 0.190809 0.219657 0.256641 0.303931 0.36474 0.440214 0.533591 0.644125 0.768349 0.901774 1.03639 1.16946 1.31099 1.44246 1.53656 1.58126 1.56775 1.47102 0.433856 0.421991 0.375455 0.354458 0.327777 0.286789 0.247909 0.219441 0.203098 0.199685 0.205164 0.217255 0.23463 0.256632 0.285047 0.322217 0.371356 0.435174 0.513991 0.610206 0.722949 0.848952 0.98312 1.13304 1.29552 1.46959 1.63377 1.76868 1.88042 1.81153 0.541199 0.531839 0.47832 0.456233 0.429408 0.385139 0.341189 0.307209 0.285215 0.275605 0.274736 0.280392 0.290303 0.303732 0.322308 0.348063 0.384163 0.433928 0.499069 0.581677 0.68213 0.800948 0.93972 1.0999 1.28296 1.51292 1.73897 1.96312 2.21239 2.19603 0.657276 0.658266 0.601877 0.579417 0.553577 0.507891 0.459597 0.419466 0.38993 0.372121 0.363039 0.359762 0.360931 0.363935 0.37137 0.384402 0.406794 0.441149 0.492367 0.560643 0.651289 0.762266 0.904258 1.07539 1.28508 1.56243 1.85411 2.16564 2.5165 2.62523 0.788492 0.802089 0.743605 0.721704 0.698547 0.653261 0.60239 0.556342 0.518927 0.49175 0.472471 0.458784 0.448292 0.440326 0.434312 0.434235 0.441263 0.460997 0.496052 0.553697 0.630233 0.737563 0.880068 1.06061 1.29526 1.61596 1.97181 2.35267 2.76976 3.03523 0.930652 0.95842 0.900547 0.878284 0.857935 0.815264 0.76458 0.714587 0.670663 0.634147 0.603552 0.578039 0.55497 0.533192 0.514062 0.498506 0.492706 0.495891 0.517811 0.558716 0.629035 0.731487 0.87037 1.05842 1.31303 1.65849 2.07241 2.51431 2.99936 3.36951 1.07828 1.11805 1.06354 1.04157 1.02149 0.98252 0.935547 0.885651 0.837815 0.794089 0.75311 0.71491 0.679217 0.643202 0.609969 0.581443 0.560206 0.553922 0.558895 0.593297 0.653711 0.747987 0.881872 1.07368 1.34179 1.69548 2.13665 2.62774 3.18081 3.61448 1.21767 1.26842 1.21654 1.19589 1.17585 1.14021 1.099 1.05332 1.00629 0.959506 0.910711 0.863069 0.815086 0.767906 0.721866 0.681844 0.650661 0.630154 0.629097 0.654467 0.708225 0.79654 0.928453 1.11504 1.37938 1.73116 2.17899 2.70576 3.29976 3.776 1.28756 1.3488 1.30753 1.29203 1.2802 1.2571 1.22812 1.19377 1.15484 1.11091 1.06213 1.00952 0.955039 0.90154 0.848026 0.800349 0.761851 0.737561 0.73157 0.747317 0.79814 0.884226 1.01141 1.19346 1.44646 1.78287 2.22279 2.77567 3.39882 3.89663 1.23613 1.29215 1.27452 1.27869 1.28432 1.28386 1.2822 1.27208 1.25294 1.22583 1.18874 1.14194 1.09191 1.03641 0.98273 0.939291 0.903604 0.879696 0.870836 0.881688 0.926198 1.01243 1.1338 1.30683 1.54848 1.8748 2.30404 2.85753 3.49843 4.01038 1.02799 1.07328 1.08208 1.11242 1.14635 1.18537 1.22584 1.25361 1.27265 1.28293 1.26973 1.24797 1.2142 1.1695 1.13297 1.09998 1.07476 1.05939 1.05624 1.07481 1.1136 1.19194 1.3082 1.47218 1.70182 2.01345 2.43384 2.97386 3.61675 4.1288 0.761744 0.797372 0.814851 0.853569 0.912992 0.989819 1.07462 1.15252 1.22214 1.27172 1.3077 1.32558 1.32084 1.31101 1.29542 1.28362 1.28676 1.29751 1.31255 1.33841 1.3777 1.44141 1.54902 1.70285 1.92042 2.21884 2.62486 3.15386 3.78277 4.27057 0.704472 0.729174 0.735923 0.751992 0.780584 0.824744 0.896432 0.996177 1.10498 1.20743 1.29723 1.35868 1.41246 1.44266 1.46941 1.51148 1.56018 1.6147 1.66306 1.69817 1.73425 1.78269 1.87032 2.01377 2.21895 2.50625 2.90187 3.41305 4.01547 4.47175 0.693426 0.712907 0.716736 0.724058 0.73671 0.762103 0.805925 0.867735 0.959634 1.08614 1.21357 1.33228 1.4464 1.53687 1.63458 1.74052 1.85594 1.96913 2.06759 2.13512 2.17879 2.228 2.30481 2.42856 2.6244 2.90196 3.29585 3.80456 4.36926 4.74734 0.706156 0.72189 0.723581 0.723845 0.727098 0.740421 0.764773 0.803291 0.86748 0.959754 1.08348 1.24378 1.41316 1.58143 1.76863 1.96282 2.16641 2.35613 2.51628 2.62937 2.70317 2.77479 2.86328 2.97702 3.15313 3.41558 3.80147 4.32351 4.89802 5.19637 0.726088 0.739572 0.741008 0.738349 0.736841 0.742406 0.755662 0.77982 0.818591 0.875547 0.972991 1.12151 1.3182 1.56808 1.88064 2.21278 2.51708 2.77081 2.99899 3.18268 3.3012 3.39636 3.49484 3.6176 3.78611 4.01959 4.37212 4.89543 5.54324 5.79478 0.738005 0.750925 0.753664 0.751043 0.748179 0.750509 0.758792 0.774054 0.797511 0.836799 0.90543 1.01877 1.20329 1.47139 1.81164 2.19662 2.62522 3.03641 3.37003 3.61204 3.77717 3.89963 4.00772 4.12597 4.27248 4.46652 4.74941 5.19334 5.79386 6.70545
				</DataArray>
				<DataArray Name="Energy" type="Float32" format="ascii">
 960.367 798.881 497.999 288.857 178.203 118.901 84.7511 63.2189 48.8514 38.7904 31.4192 25.712 21.1737 17.4563 14.0889 11.3079 9.28461 7.6956 6.44459 5.4546 4.66849 3.98931 3.34019 2.63159 2.00947 1.8173 1.71488 1.65369 1.61146 1.58011 791.424 827.39 655.075 382.522 226.12 143.959 98.3974 71.7059 54.7644 43.3126 34.8962 28.1821 22.8168 18.4377 14.4258 11.4659 9.23351 7.53204 6.22924 5.22818 4.46033 3.82349 3.21328 2.54913 1.96332 1.77565 1.67795 1.62011 1.58093 1.55056 490.643 647.162 679.589 544.813 354.916 211.317 138.713 97.6376 72.2137 55.3802 43.1335 33.8732 26.7579 20.985 16.1581 12.6794 10.0464 8.07489 6.58523 5.46118 4.60624 3.91237 3.27831 2.61319 2.0093 1.79399 1.68417 1.61835 1.57455 1.54371 284.628 376.235 540.172 563.763 469.777 317.069 206.929 132.58 89.4978 64.7507 48.5453 37.2991 28.9913 22.2079 17.0251 13.2024 10.3646 8.26007 6.6908 5.51752 4.62949 3.91899 3.29901 2.66882 2.06913 1.81874 1.69702 1.62416 1.57769 1.54597 176.05 223.258 350.941 467.398 474.983 389.791 273.06 174.997 110.967 73.9704 53.9652 41.561 31.9448 24.1493 18.2768 13.9283 10.7597 8.45723 6.78275 5.55307 4.63862 3.92332 3.31652 2.72489 2.15827 1.85831 1.71554 1.63142 1.58018 1.54906 117.754 142.525 209.248 315.287 389.035 385.82 314.238 219.12 142.95 96.3555 68.9693 50.979 38.0399 28.1121 20.7487 15.4248 11.6375 8.95972 7.06057 5.7016 4.70768 3.95581 3.34572 2.78258 2.25937 1.90529 1.73413 1.63364 1.57436 1.54267 84.0804 97.6406 137.969 206.313 272.959 314.489 306.454 248.795 178.086 126.53 92.3178 66.1121 47.0773 33.4133 23.8957 17.3019 12.7639 9.62928 7.44628 5.91616 4.81542 4.00268 3.37204 2.82613 2.34563 1.96108 1.75328 1.63142 1.56167 1.52769 62.799 71.2896 97.329 132.382 175.206 219.671 249.245 241.506 199.302 153.148 114.867 82.4278 56.5105 38.6259 26.9007 19.1237 13.898 10.3343 7.8825 6.17026 4.95569 4.07269 3.40789 2.86585 2.4161 2.03907 1.7821 1.63331 1.5495 1.50948 48.5795 54.5279 72.0812 89.4864 111.239 143.582 178.826 199.748 191.763 160.733 125.777 91.2833 62.2447 42.0505 28.9874 20.5184 14.8634 10.9916 8.3121 6.43717 5.11026 4.15793 3.44908 2.9021 2.47411 2.12016 1.83104 1.65099 1.54489 1.4927 38.6098 43.1766 55.3162 64.7618 74.2005 96.8812 127.184 153.714 160.958 147.628 119.351 87.5935 60.9649 41.9753 29.4477 21.159 15.4774 11.5047 8.69736 6.70511 5.28415 4.26417 3.5105 2.94977 2.5251 2.19174 1.90919 1.69006 1.55225 1.48509 31.2983 34.8153 43.1016 48.5795 54.1341 69.3602 92.7877 115.308 126.062 119.421 98.4818 74.3328 54.012 39.1136 28.5417 21.1057 15.7536 11.8619 9.02842 6.96681 5.47263 4.38644 3.59109 3.00334 2.57551 2.25604 1.98807 1.7529 1.58862 1.49876 25.6309 28.1344 33.8608 37.343 41.7052 51.2357 66.4521 82.7718 91.5457 87.6438 74.3259 59.0662 45.6409 35.0372 26.8075 20.5382 15.7537 12.0858 9.30528 7.22321 5.67701 4.53881 3.69727 3.0786 2.63759 2.31378 2.05657 1.83817 1.66218 1.54267 21.1195 22.7892 26.7545 29.0313 32.05 38.2092 47.2969 56.7616 62.4517 61.024 54.0317 45.6563 37.6108 30.6192 24.6436 19.6577 15.541 12.2063 9.54333 7.46974 5.89324 4.71104 3.82904 3.18025 2.71101 2.37649 2.12941 1.9259 1.75894 1.63112 17.4218 18.424 20.9952 22.2454 24.2254 28.2265 33.5582 38.796 42.1918 42.0436 39.1632 35.0733 30.6359 26.3971 22.3303 18.5776 15.1994 12.2476 9.76074 7.73442 6.1375 4.91506 3.99677 3.3089 2.80674 2.44685 2.19927 2.00658 1.87179 1.75721 14.0793 14.4292 16.1629 17.05 18.3289 20.8228 23.9858 27.0057 29.0893 29.505 28.5978 26.8553 24.6711 22.3511 19.8675 17.2694 14.6604 12.1844 9.93896 8.00774 6.4243 5.17378 4.214 3.494 2.94341 2.54021 2.28577 2.10545 2.00077 1.89503 11.2983 11.4661 12.6849 13.2194 13.9623 15.4725 17.3596 19.1894 20.5809 21.2016 21.1366 20.5786 19.681 18.5966 17.2801 15.7138 13.8942 11.95 10.0373 8.27063 6.74002 5.4855 4.49719 3.73163 3.14197 2.67623 2.40153 2.21949 2.11991 2.02486 9.27951 9.2348 10.051 10.3759 10.7812 11.6676 12.7996 13.9384 14.9028 15.5071 15.7825 15.7713 15.5666 15.2076 14.6685 13.8953 12.8279 11.4891 9.97746 8.45901 7.0608 5.84142 4.84113 4.03384 3.39906 2.87035 2.55021 2.34907 2.22377 2.14138 7.69366 7.53427 8.0789 8.26759 8.47102 8.9787 9.65133 10.3583 11.0174 11.525 11.8851 12.1058 12.219 12.2642 12.1826 11.9493 11.4848 10.7399 9.71898 8.53525 7.32195 6.20136 5.21767 4.38233 3.69152 3.11398 2.73382 2.4865 2.30766 2.22729 6.44454 6.23196 6.58873 6.69611 6.79178 7.07279 7.4604 7.8975 8.32827 8.71336 9.04337 9.32146 9.55572 9.7698 9.94895 10.0326 9.97641 9.71728 9.18937 8.39651 7.45304 6.48981 5.56326 4.72502 3.98898 3.3694 2.93078 2.61985 2.37737 2.27616 5.4557 5.23096 5.46419 5.52158 5.55891 5.70934 5.92509 6.17987 6.44685 6.71507 6.97729 7.23056 7.4795 7.74067 8.0162 8.27466 8.45887 8.53653 8.39389 7.99281 7.36274 6.60453 5.79071 4.9895 4.25079 3.60571 3.10716 2.72484 2.42086 2.28866 4.6703 4.46301 4.60906 4.63267 4.64255 4.71259 4.82087 4.96185 5.11621 5.28982 5.47992 5.68164 5.8983 6.14496 6.42956 6.74631 7.06357 7.32267 7.45046 7.36233 7.00636 6.46637 5.81753 5.11171 4.41633 3.77824 3.23791 2.78975 2.43169 2.27107 3.99147 3.82602 3.91488 3.92161 3.92623 3.95919 4.00619 4.07682 4.16206 4.26766 4.39135 4.54249 4.71382 4.91994 5.17743 5.48925 5.84467 6.20243 6.4882 6.60237 6.47244 6.12922 5.64068 5.06887 4.45676 3.85362 3.30176 2.81668 2.42255 2.23651 3.34281 3.21617 3.28116 3.30182 3.31923 3.34853 3.37461 3.41069 3.45197 3.51265 3.59398 3.6998 3.83044 3.99885 4.21551 4.49828 4.84227 5.21938 5.56552 5.79087 5.81589 5.64664 5.30498 4.8622 4.35787 3.8277 3.29807 2.80718 2.40041 2.19504 2.63473 2.55235 2.61636 2.67189 2.72763 2.78514 2.82836 2.86803 2.90422 2.95124 3.00505 3.08022 3.18114 3.30994 3.49503 3.73242 4.03367 4.38207 4.72545 4.9952 5.11358 5.06928 4.86423 4.54373 4.14718 3.70261 3.23018 2.76439 2.367 2.15192 2.0104 1.96443 2.01084 2.07114 2.16044 2.26168 2.34766 2.41788 2.47573 2.52611 2.57655 2.63857 2.71154 2.80724 2.94414 3.14325 3.40107 3.69364 3.99087 4.2514 4.42036 4.45454 4.35953 4.1501 3.85356 3.49816 3.09915 2.69038 2.32273 2.11069 1.81742 1.77585 1.79435 1.81916 1.85879 1.90594 1.96196 2.04028 2.12142 2.19246 2.25668 2.31442 2.37687 2.44716 2.54052 2.67549 2.86936 3.11336 3.37324 3.60867 3.78154 3.8553 3.82533 3.70608 3.50173 3.23294 2.91176 2.5721 2.256 2.07238 1.71483 1.67795 1.68427 1.69711 1.71562 1.73426 1.75344 1.78249 1.83173 1.90967 1.98858 2.05706 2.12971 2.1996 2.28651 2.40239 2.5515 2.73274 2.92797 3.10684 3.23705 3.30302 3.29822 3.22861 3.10191 2.91505 2.67085 2.40127 2.14695 2.01275 1.65353 1.61998 1.6183 1.62409 1.63133 1.63349 1.6313 1.63335 1.65124 1.6901 1.75316 1.83858 1.92611 2.00676 2.10556 2.21908 2.34889 2.48804 2.61979 2.72456 2.78903 2.8151 2.80782 2.76541 2.68903 2.57257 2.40153 2.19519 1.99904 1.90953 1.61131 1.58079 1.57446 1.57756 1.58004 1.57407 1.56141 1.54937 1.54493 1.5521 1.58863 1.66245 1.75909 1.87195 2.00087 2.11976 2.22359 2.30801 2.37735 2.42069 2.4321 2.42195 2.39871 2.36679 2.32292 2.25505 2.14656 1.99831 1.85535 1.77106 1.57996 1.55039 1.54363 1.54582 1.54892 1.54238 1.52736 1.50922 1.49274 1.48481 1.49851 1.54289 1.63117 1.7573 1.89532 2.02477 2.14072 2.22754 2.27583 2.28839 2.27086 2.23665 2.19453 2.15088 2.11076 2.07139 2.01248 1.90917 1.77106 1.77106
				</DataArray>
				<DataArray Name="F1" type="Float32" format="ascii">
 1 1 1 1 1 1 1 1 1 1 1 1 1 1 1 1 1 1 1 1 1 1 1 1 1 1 1 1 1 1 1 1 1 1 1 1 1 1 1 1 1 1 1 1 1 1 1 1 1 1 1 1 1 1 1 1 1 1 1 1 1 1 1 1 1 1 1 1 1 1 1 1 1 1 1 1 1 1 1 1 1 1 1 1 1 1 1 1 1 1 1 1 1 1 1 1 1 1 1 1 1 1 1 1 1 1 1 1 1 1 1 1 1 1 1 1 1 1 1 1 1 1 1 1 1 1 1 1 1 1 1 1 1 1 1 1 1 1 1 1 1 1 1 1 1 1 1 1 1 1 1 1 1 1 1 1 1 1 1 1 1 1 1 1 1 1 1 1 1 1 1 1 1 1 1 1 1 1 1 1 1 1 1 1 1 1 1 1 1 1 1 1 1 1 1 1 1 1 1 1 1 1 1 1 1 1 1 1 1 1 1 1 1 1 1 1 1 1 1 1 1 1 1 1 1 1 1 1 1 1 1 1 1 1 1 1 1 1 1 1 1 1 1 1 1 1 1 1 1 1 1 1 1 1 1 1 1 1 1 1 1 1 1 1 1 1 1 1 1 1 1 1 1 1 1 1 1 1 1 1 1 1 1 1 1 1 1 1 1 1 1 1 1 1 1 1 1 1 1 1 1 1 1 1 1 1 1 1 1 1 1 1 1 1 1 1 1 1 1 1 1 1 1 1 1 1 1 1 1 1 1 1 1 1 1 1 1 1 1 1 1 1 1 1 1 1 1 1 1 1 1 1 1 1 1 1 1 1 1 1 1 1 1 1 1 1 1 1 1 1 1 1 1 1 1 1 1 1 1 1 1 1 1 1 1 1 1 1 1 1 1 1 1 1 1 1 1 1 1 1 1 1 1 1 1 1 1 1 1 1 1 1 1 1 1 1 1 1 1 1 1 1 1 1 1 1 1 1 1 1 1 1 1 1 1 1 1 1 1 1 1 1 1 1 1 1 1 1 1 1 1 1 1 1 1 1 1 1 1 1 1 1 1 1 1 1 1 1 1 1 1 1 1 1 1 1 1 1 1 1 1 1 1 1 1 1 1 1 1 1 1 1 1 1 1 1 1 1 1 1 1 1 1 1 1 1 1 1 1 1 1 1 1 1 1 1 1 1 1 1 1 1 1 1 1 1 1 1 1 1 1 1 1 1 1 1 1 1 1 1 1 1 1 1 1 1 1 1 1 1 1 1 1 1 1 1 1 1 1 1 1 1 1 1 1 1 1 1 1 1 1 1 1 1 1 1 1 1 1 1 1 1 1 1 1 1 1 1 1 1 1 1 1 1 1 1 1 1 1 1 1 1 1 1 1 1 1 1 1 1 1 1 1 1 1 1 1 1 1 1 1 1 1 1 1 1 1 1 1 1 1 1 1 1 1 1 1 1 1 1 1 1 1 1 1 1 1 1 1 1 1 1 1 1 1 1 1 1 1 1 1 1 1 1 1 1 1 1 1 1 1 1 1 1 1 1 1 1 1 1 1 1 1 1 1 1 1 1 1 1 1 1 1 1 1 1 1 1 1 1 1 1 1 1 1 1 1 1 1 1 1 1 1 1 1 1 1 1 1 1 1 1 1 1 1 1 1 1 1 1 1 1 1 1 1 1 1 1 1 1 1 1 1 1 1 1 1 1 1 1 1 1 1 1 1 1 1 1 1 1 1 1 1 1 1 1 1 1 1 1 1 1 1 1 1 1 1 1 1 1 1 1 1 1 1 1 1 1 1 1 1 1 1 1 1 1 1 1 1 1 1 1 1 1 1 1 1 1 1 1 1 1 1 1 1 1 1 1 1 1 1 1 1 1 1 1 1 1 1 1 1 1 1 1 1 1 1 1 1 1 1 1 1 1 1 1 1 1 1 1 1 1 1 1 1 1 1 1 1 1 1 1 1 1 1 1 1 1 1 1 1 1 1 1 1 1 1 1 1 1 1 1 1 1 1 1 1 1 1 1 1 1 1 1 1 1 1 1 1 1
				</DataArray>
				<DataArray Name="F2" type="Float32" format="ascii">
 0 0 0 0 0 0 0 0 0 0 0 0 0 0 0 0 0 0 0 0 0 0 0 0 0 0 0 0 0 0 0 0 0 0 0 0 0 0 0 0 0 0 0 0 0 0 0 0 0 0 0 0 0 0 0 0 0 0 0 0 0 0 0 0 0 0 0 0 0 0 0 0 0 0 0 0 0 0 0 0 0 0 0 0 0 0 0 0 0 0 0 0 0 0 0 0 0 0 0 0 0 0 0 0 0 0 0 0 0 0 0 0 0 0 0 0 0 0 0 0 0 0 0 0 0 0 0 0 0 0 0 0 0 0 0 0 0 0 0 0 0 0 0 0 0 0 0 0 0 0 0 0 0 0 0 0 0 0 0 0 0 0 0 0 0 0 0 0 0 0 0 0 0 0 0 0 0 0 0 0 0 0 0 0 0 0 0 0 0 0 0 0 0 0 0 0 0 0 0 0 0 0 0 0 0 0 0 0 0 0 0 0 0 0 0 0 0 0 0 0 0 0 0 0 0 0 0 0 0 0 0 0 0 0 0 0 0 0 0 0 0 0 0 0 0 0 0 0 0 0 0 0 0 0 0 0 0 0 0 0 0 0 0 0 0 0 0 0 0 0 0 0 0 0 0 0 0 0 0 0 0 0 0 0 0 0 0 0 0 0 0 0 0 0 0 0 0 0 0 0 0 0 0 0 0 0 0 0 0 0 0 0 0 0 0 0 0 0 0 0 0 0 0 0 0 0 0 0 0 0 0 0 0 0 0 0 0 0 0 0 0 0 0 0 0 0 0 0 0 0 0 0 0 0 0 0 0 0 0 0 0 0 0 0 0 0 0 0 0 0 0 0 0 0 0 0 0 0 0 0 0 0 0 0 0 0 0 0 0 0 0 0 0 0 0 0 0 0 0 0 0 0 0 0 0 0 0 0 0 0 0 0 0 0 0 0 0 0 0 0 0 0 0 0 0 0 0 0 0 0 0 0 0 0 0 0 0 0 0 0 0 0 0 0 0 0 0 0 0 0 0 0 0 0 0 0 0 0 0 0 0 0 0 0 0 0 0 0 0 0 0 0 0 0 0 0 0 0 0 0 0 0 0 0 0 0 0 0 0 0 0 0 0 0 0 0 0 0 0 0 0 0 0 0 0 0 0 0 0 0 0 0 0 0 0 0 0 0 0 0 0 0 0 0 0 0 0 0 0 0 0 0 0 0 0 0 0 0 0 0 0 0 0 0 0 0 0 0 0 0 0 0 0 0 0 0 0 0 0 0 0 0 0 0 0 0 0 0 0 0 0 0 0 0 0 0 0 0 0 0 0 0 0 0 0 0 0 0 0 0 0 0 0 0 0 0 0 0 0 0 0 0 0 0 0 0 0 0 0 0 0 0 0 0 0 0 0 0 0 0 0 0 0 0 0 0 0 0 0 0 0 0 0 0 0 0 0 0 0 0 0 0 0 0 0 0 0 0 0 0 0 0 0 0 0 0 0 0 0 0 0 0 0 0 0 0 0 0 0 0 0 0 0 0 0 0 0 0 0 0 0 0 0 0 0 0 0 0 0 0 0 0 0 0 0 0 0 0 0 0 0 0 0 0 0 0 0 0 0 0 0 0 0 0 0 0 0 0 0 0 0 0 0 0 0 0 0 0 0 0 0 0 0 0 0 0 0 0 0 0 0 0 0 0 0 0 0 0 0 0 0 0 0 0 0 0 0 0 0 0 0 0 0 0 0 0 0 0 0 0 0 0 0 0 0 0 0 0 0 0 0 0 0 0 0 0 0 0 0 0 0 0 0 0 0 0 0 0 0 0 0 0 0 0 0 0 0 0 0 0 0 0 0 0 0 0 0 0 0 0 0 0 0 0 0 0 0 0 0 0 0 0 0 0 0 0 0 0 0 0 0 0 0 0 0 0 0 0 0 0 0 0 0 0 0 0 0 0 0 0 0 0 0 0 0 0 0 0 0 0 0 0 0 0 0 0 0 0 0 0 0 0 0 0 0 0 0 0 0 0 0 0 0 0 0 0 0 0 0 0
				</DataArray>
				<DataArray Name="F3" type="Float32" format="ascii">