<?xml version="1.0"?>
<VTKFile type="PolyData">
	<PolyData>
		<Piece NumberOfPoints="961" NumberOfPolys="900">
			<Points>
				<DataArray type="Float32" NumberOfComponents="3" format="ascii">
 0 0 0 0.04 0 0 0.08 0 0 0.12 0 0 0.16 0 0 0.2 0 0 0.24 0 0 0.28 0 0 0.32 0 0 0.36 0 0 0.4 0 0 0.44 0 0 0.48 0 0 0.52 0 0 0.56 0 0 0.6 0 0 0.64 0 0 0.68 0 0 0.72 0 0 0.76 0 0 0.8 0 0 0.84 0 0 0.88 0 0 0.92 0 0 0.96 0 0 1 0 0 1.04 0 0 1.08 0 0 1.12 0 0 1.16 0 0 1.2 0 0 0 0.04 0 0.04 0.04 0 0.08 0.04 0 0.12 0.04 0 0.16 0.04 0 0.2 0.04 0 0.24 0.04 0 0.28 0.04 0 0.32 0.04 0 0.36 0.04 0 0.4 0.04 0 0.44 0.04 0 0.48 0.04 0 0.52 0.04 0 0.56 0.04 0 0.6 0.04 0 0.64 0.04 0 0.68 0.04 0 0.72 0.04 0 0.76 0.04 0 0.8 0.04 0 0.84 0.04 0 0.88 0.04 0 0.92 0.04 0 0.96 0.04 0 1 0.04 0 1.04 0.04 0 1.08 0.04 0 1.12 0.04 0 1.16 0.04 0 1.2 0.04 0 0 0.08 0 0.04 0.08 0 0.08 0.08 0 0.12 0.08 0 0.16 0.08 0 0.2 0.08 0 0.24 0.08 0 0.28 0.08 0 0.32 0.08 0 0.36 0.08 0 0.4 0.08 0 0.44 0.08 0 0.48 0.08 0 0.52 0.08 0 0.56 0.08 0 0.6 0.08 0 0.64 0.08 0 0.68 0.08 0 0.72 0.08 0 0.76 0.08 0 0.8 0.08 0 0.84 0.08 0 0.88 0.08 0 0.92 0.08 0 0.96 0.08 0 1 0.08 0 1.04 0.08 0 1.08 0.08 0 1.12 0.08 0 1.16 0.08 0 1.2 0.08 0 0 0.12 0 0.04 0.12 0 0.08 0.12 0 0.12 0.12 0 0.16 0.12 0 0.2 0.12 0 0.24 0.12 0 0.28 0.12 0 0.32 0.12 0 0.36 0.12 0 0.4 0.12 0 0.44 0.12 0 0.48 0.12 0 0.52 0.12 0 0.56 0.12 0 0.6 0.12 0 0.64 0.12 0 0.68 0.12 0 0.72 0.12 0 0.76 0.12 0 0.8 0.12 0 0.84 0.12 0 0.88 0.12 0 0.92 0.12 0 0.96 0.12 0 1 0.12 0 1.04 0.12 0 1.08 0.12 0 1.12 0.12 0 1.16 0.12 0 1.2 0.12 0 0 0.16 0 0.04 0.16 0 0.08 0.16 0 0.12 0.16 0 0.16 0.16 0 0.2 0.16 0 0.24 0.16 0 0.28 0.16 0 0.32 0.16 0 0.36 0.16 0 0.4 0.16 0 0.44 0.16 0 0.48 0.16 0 0.52 0.16 0 0.56 0.16 0 0.6 0.16 0 0.64 0.16 0 0.68 0.16 0 0.72 0.16 0 0.76 0.16 0 0.8 0.16 0 0.84 0.16 0 0.88 0.16 0 0.92 0.16 0 0.96 0.16 0 1 0.16 0 1.04 0.16 0 1.08 0.16 0 1.12 0.16 0 1.16 0.16 0 1.2 0.16 0 0 0.2 0 0.04 0.2 0 0.08 0.2 0 0.12 0.2 0 0.16 0.2 0 0.2 0.2 0 0.24 0.2 0 0.28 0.2 0 0.32 0.2 0 0.36 0.2 0 0.4 0.2 0 0.44 0.2 0 0.48 0.2 0 0.52 0.2 0 0.56 0.2 0 0.6 0.2 0 0.64 0.2 0 0.68 0.2 0 0.72 0.2 0 0.76 0.2 0 0.8 0.2 0 0.84 0.2 0 0.88 0.2 0 0.92 0.2 0 0.96 0.2 0 1 0.2 0 1.04 0.2 0 1.08 0.2 0 1.12 0.2 0 1.16 0.2 0 1.2 0.2 0 0 0.24 0 0.04 0.24 0 0.08 0.24 0 0.12 0.24 0 0.16 0.24 0 0.2 0.24 0 0.24 0.24 0 0.28 0.24 0 0.32 0.24 0 0.36 0.24 0 0.4 0.24 0 0.44 0.24 0 0.48 0.24 0 0.52 0.24 0 0.56 0.24 0 0.6 0.24 0 0.64 0.24 0 0.68 0.24 0 0.72 0.24 0 0.76 0.24 0 0.8 0.24 0 0.84 0.24 0 0.88 0.24 0 0.92 0.24 0 0.96 0.24 0 1 0.24 0 1.04 0.24 0 1.08 0.24 0 1.12 0.24 0 1.16 0.24 0 1.2 0.24 0 0 0.28 0 0.04 0.28 0 0.08 0.28 0 0.12 0.28 0 0.16 0.28 0 0.2 0.28 0 0.24 0.28 0 0.28 0.28 0 0.32 0.28 0 0.36 0.28 0 0.4 0.28 0 0.44 0.28 0 0.48 0.28 0 0.52 0.28 0 0.56 0.28 0 0.6 0.28 0 0.64 0.28 0 0.68 0.28 0 0.72 0.28 0 0.76 0.28 0 0.8 0.28 0 0.84 0.28 0 0.88 0.28 0 0.92 0.28 0 0.96 0.28 0 1 0.28 0 1.04 0.28 0 1.08 0.28 0 1.12 0.28 0 1.16 0.28 0 1.2 0.28 0 0 0.32 0 0.04 0.32 0 0.08 0.32 0 0.12 0.32 0 0.16 0.32 0 0.2 0.32 0 0.24 0.32 0 0.28 0.32 0 0.32 0.32 0 0.36 0.32 0 0.4 0.32 0 0.44 0.32 0 0.48 0.32 0 0.52 0.32 0 0.56 0.32 0 0.6 0.32 0 0.64 0.32 0 0.68 0.32 0 0.72 0.32 0 0.76 0.32 0 0.8 0.32 0 0.84 0.32 0 0.88 0.32 0 0.92 0.32 0 0.96 0.32 0 1 0.32 0 1.04 0.32 0 1.08 0.32 0 1.12 0.32 0 1.16 0.32 0 1.2 0.32 0 0 0.36 0 0.04 0.36 0 0.08 0.36 0 0.12 0.36 0 0.16 0.36 0 0.2 0.36 0 0.24 0.36 0 0.28 0.36 0 0.32 0.36 0 0.36 0.36 0 0.4 0.36 0 0.44 0.36 0 0.48 0.36 0 0.52 0.36 0 0.56 0.36 0 0.6 0.36 0 0.64 0.36 0 0.68 0.36 0 0.72 0.36 0 0.76 0.36 0 0.8 0.36 0 0.84 0.36 0 0.88 0.36 0 0.92 0.36 0 0.96 0.36 0 1 0.36 0 1.04 0.36 0 1.08 0.36 0 1.12 0.36 0 1.16 0.36 0 1.2 0.36 0 0 0.4 0 0.04 0.4 0 0.08 0.4 0 0.12 0.4 0 0.16 0.4 0 0.2 0.4 0 0.24 0.4 0 0.28 0.4 0 0.32 0.4 0 0.36 0.4 0 0.4 0.4 0 0.44 0.4 0 0.48 0.4 0 0.52 0.4 0 0.56 0.4 0 0.6 0.4 0 0.64 0.4 0 0.68 0.4 0 0.72 0.4 0 0.76 0.4 0 0.8 0.4 0 0.84 0.4 0 0.88 0.4 0 0.92 0.4 0 0.96 0.4 0 1 0.4 0 1.04 0.4 0 1.08 0.4 0 1.12 0.4 0 1.16 0.4 0 1.2 0.4 0 0 0.44 0 0.04 0.44 0 0.08 0.44 0 0.12 0.44 0 0.16 0.44 0 0.2 0.44 0 0.24 0.44 0 0.28 0.44 0 0.32 0.44 0 0.36 0.44 0 0.4 0.44 0 0.44 0.44 0 0.48 0.44 0 0.52 0.44 0 0.56 0.44 0 0.6 0.44 0 0.64 0.44 0 0.68 0.44 0 0.72 0.44 0 0.76 0.44 0 0.8 0.44 0 0.84 0.44 0 0.88 0.44 0 0.92 0.44 0 0.96 0.44 0 1 0.44 0 1.04 0.44 0 1.08 0.44 0 1.12 0.44 0 1.16 0.44 0 1.2 0.44 0 0 0.48 0 0.04 0.48 0 0.08 0.48 0 0.12 0.48 0 0.16 0.48 0 0.2 0.48 0 0.24 0.48 0 0.28 0.48 0 0.32 0.48 0 0.36 0.48 0 0.4 0.48 0 0.44 0.48 0 0.48 0.48 0 0.52 0.48 0 0.56 0.48 0 0.6 0.48 0 0.64 0.48 0 0.68 0.48 0 0.72 0.48 0 0.76 0.48 0 0.8 0.48 0 0.84 0.48 0 0.88 0.48 0 0.92 0.48 0 0.96 0.48 0 1 0.48 0 1.04 0.48 0 1.08 0.48 0 1.12 0.48 0 1.16 0.48 0 1.2 0.48 0 0 0.52 0 0.04 0.52 0 0.08 0.52 0 0.12 0.52 0 0.16 0.52 0 0.2 0.52 0 0.24 0.52 0 0.28 0.52 0 0.32 0.52 0 0.36 0.52 0 0.4 0.52 0 0.44 0.52 0 0.48 0.52 0 0.52 0.52 0 0.56 0.52 0 0.6 0.52 0 0.64 0.52 0 0.68 0.52 0 0.72 0.52 0 0.76 0.52 0 0.8 0.52 0 0.84 0.52 0 0.88 0.52 0 0.92 0.52 0 0.96 0.52 0 1 0.52 0 1.04 0.52 0 1.08 0.52 0 1.12 0.52 0 1.16 0.52 0 1.2 0.52 0 0 0.56 0 0.04 0.56 0 0.08 0.56 0 0.12 0.56 0 0.16 0.56 0 0.2 0.56 0 0.24 0.56 0 0.28 0.56 0 0.32 0.56 0 0.36 0.56 0 0.4 0.56 0 0.44 0.56 0 0.48 0.56 0 0.52 0.56 0 0.56 0.56 0 0.6 0.56 0 0.64 0.56 0 0.68 0.56 0 0.72 0.56 0 0.76 0.56 0 0.8 0.56 0 0.84 0.56 0 0.88 0.56 0 0.92 0.56 0 0.96 0.56 0 1 0.56 0 1.04 0.56 0 1.08 0.56 0 1.12 0.56 0 1.16 0.56 0 1.2 0.56 0 0 0.6 0 0.04 0.6 0 0.08 0.6 0 0.12 0.6 0 0.16 0.6 0 0.2 0.6 0 0.24 0.6 0 0.28 0.6 0 0.32 0.6 0 0.36 0.6 0 0.4 0.6 0 0.44 0.6 0 0.48 0.6 0 0.52 0.6 0 0.56 0.6 0 0.6 0.6 0 0.64 0.6 0 0.68 0.6 0 0.72 0.6 0 0.76 0.6 0 0.8 0.6 0 0.84 0.6 0 0.88 0.6 0 0.92 0.6 0 0.96 0.6 0 1 0.6 0 1.04 0.6 0 1.08 0.6 0 1.12 0.6 0 1.16 0.6 0 1.2 0.6 0 0 0.64 0 0.04 0.64 0 0.08 0.64 0 0.12 0.64 0 0.16 0.64 0 0.2 0.64 0 0.24 0.64 0 0.28 0.64 0 0.32 0.64 0 0.36 0.64 0 0.4 0.64 0 0.44 0.64 0 0.48 0.64 0 0.52 0.64 0 0.56 0.64 0 0.6 0.64 0 0.64 0.64 0 0.68 0.64 0 0.72 0.64 0 0.76 0.64 0 0.8 0.64 0 0.84 0.64 0 0.88 0.64 0 0.92 0.64 0 0.96 0.64 0 1 0.64 0 1.04 0.64 0 1.08 0.64 0 1.12 0.64 0 1.16 0.64 0 1.2 0.64 0 0 0.68 0 0.04 0.68 0 0.08 0.68 0 0.12 0.68 0 0.16 0.68 0 0.2 0.68 0 0.24 0.68 0 0.28 0.68 0 0.32 0.68 0 0.36 0.68 0 0.4 0.68 0 0.44 0.68 0 0.48 0.68 0 0.52 0.68 0 0.56 0.68 0 0.6 0.68 0 0.64 0.68 0 0.68 0.68 0 0.72 0.68 0 0.76 0.68 0 0.8 0.68 0 0.84 0.68 0 0.88 0.68 0 0.92 0.68 0 0.96 0.68 0 1 0.68 0 1.04 0.68 0 1.08 0.68 0 1.12 0.68 0 1.16 0.68 0 1.2 0.68 0 0 0.72 0 0.04 0.72 0 0.08 0.72 0 0.12 0.72 0 0.16 0.72 0 0.2 0.72 0 0.24 0.72 0 0.28 0.72 0 0.32 0.72 0 0.36 0.72 0 0.4 0.72 0 0.44 0.72 0 0.48 0.72 0 0.52 0.72 0 0.56 0.72 0 0.6 0.72 0 0.64 0.72 0 0.68 0.72 0 0.72 0.72 0 0.76 0.72 0 0.8 0.72 0 0.84 0.72 0 0.88 0.72 0 0.92 0.72 0 0.96 0.72 0 1 0.72 0 1.04 0.72 0 1.08 0.72 0 1.12 0.72 0 1.16 0.72 0 1.2 0.72 0 0 0.76 0 0.04 0.76 0 0.08 0.76 0 0.12 0.76 0 0.16 0.76 0 0.2 0.76 0 0.24 0.76 0 0.28 0.76 0 0.32 0.76 0 0.36 0.76 0 0.4 0.76 0 0.44 0.76 0 0.48 0.76 0 0.52 0.76 0 0.56 0.76 0 0.6 0.76 0 0.64 0.76 0 0.68 0.76 0 0.72 0.76 0 0.76 0.76 0 0.8 0.76 0 0.84 0.76 0 0.88 0.76 0 0.92 0.76 0 0.96 0.76 0 1 0.76 0 1.04 0.76 0 1.08 0.76 0 1.12 0.76 0 1.16 0.76 0 1.2 0.76 0 0 0.8 0 0.04 0.8 0 0.08 0.8 0 0.12 0.8 0 0.16 0.8 0 0.2 0.8 0 0.24 0.8 0 0.28 0.8 0 0.32 0.8 0 0.36 0.8 0 0.4 0.8 0 0.44 0.8 0 0.48 0.8 0 0.52 0.8 0 0.56 0.8 0 0.6 0.8 0 0.64 0.8 0 0.68 0.8 0 0.72 0.8 0 0.76 0.8 0 0.8 0.8 0 0.84 0.8 0 0.88 0.8 0 0.92 0.8 0 0.96 0.8 0 1 0.8 0 1.04 0.8 0 1.08 0.8 0 1.12 0.8 0 1.16 0.8 0 1.2 0.8 0 0 0.84 0 0.04 0.84 0 0.08 0.84 0 0.12 0.84 0 0.16 0.84 0 0.2 0.84 0 0.24 0.84 0 0.28 0.84 0 0.32 0.84 0 0.36 0.84 0 0.4 0.84 0 0.44 0.84 0 0.48 0.84 0 0.52 0.84 0 0.56 0.84 0 0.6 0.84 0 0.64 0.84 0 0.68 0.84 0 0.72 0.84 0 0.76 0.84 0 0.8 0.84 0 0.84 0.84 0 0.88 0.84 0 0.92 0.84 0 0.96 0.84 0 1 0.84 0 1.04 0.84 0 1.08 0.84 0 1.12 0.84 0 1.16 0.84 0 1.2 0.84 0 0 0.88 0 0.04 0.88 0 0.08 0.88 0 0.12 0.88 0 0.16 0.88 0 0.2 0.88 0 0.24 0.88 0 0.28 0.88 0 0.32 0.88 0 0.36 0.88 0 0.4 0.88 0 0.44 0.88 0 0.48 0.88 0 0.52 0.88 0 0.56 0.88 0 0.6 0.88 0 0.64 0.88 0 0.68 0.88 0 0.72 0.88 0 0.76 0.88 0 0.8 0.88 0 0.84 0.88 0 0.88 0.88 0 0.92 0.88 0 0.96 0.88 0 1 0.88 0 1.04 0.88 0 1.08 0.88 0 1.12 0.88 0 1.16 0.88 0 1.2 0.88 0 0 0.92 0 0.04 0.92 0 0.08 0.92 0 0.12 0.92 0 0.16 0.92 0 0.2 0.92 0 0.24 0.92 0 0.28 0.92 0 0.32 0.92 0 0.36 0.92 0 0.4 0.92 0 0.44 0.92 0 0.48 0.92 0 0.52 0.92 0 0.56 0.92 0 0.6 0.92 0 0.64 0.92 0 0.68 0.92 0 0.72 0.92 0 0.76 0.92 0 0.8 0.92 0 0.84 0.92 0 0.88 0.92 0 0.92 0.92 0 0.96 0.92 0 1 0.92 0 1.04 0.92 0 1.08 0.92 0 1.12 0.92 0 1.16 0.92 0 1.2 0.92 0 0 0.96 0 0.04 0.96 0 0.08 0.96 0 0.12 0.96 0 0.16 0.96 0 0.2 0.96 0 0.24 0.96 0 0.28 0.96 0 0.32 0.96 0 0.36 0.96 0 0.4 0.96 0 0.44 0.96 0 0.48 0.96 0 0.52 0.96 0 0.56 0.96 0 0.6 0.96 0 0.64 0.96 0 0.68 0.96 0 0.72 0.96 0 0.76 0.96 0 0.8 0.96 0 0.84 0.96 0 0.88 0.96 0 0.92 0.96 0 0.96 0.96 0 1 0.96 0 1.04 0.96 0 1.08 0.96 0 1.12 0.96 0 1.16 0.96 0 1.2 0.96 0 0 1 0 0.04 1 0 0.08 1 0 0.12 1 0 0.16 1 0 0.2 1 0 0.24 1 0 0.28 1 0 0.32 1 0 0.36 1 0 0.4 1 0 0.44 1 0 0.48 1 0 0.52 1 0 0.56 1 0 0.6 1 0 0.64 1 0 0.68 1 0 0.72 1 0 0.76 1 0 0.8 1 0 0.84 1 0 0.88 1 0 0.92 1 0 0.96 1 0 1 1 0 1.04 1 0 1.08 1 0 1.12 1 0 1.16 1 0 1.2 1 0 0 1.04 0 0.04 1.04 0 0.08 1.04 0 0.12 1.04 0 0.16 1.04 0 0.2 1.04 0 0.24 1.04 0 0.28 1.04 0 0.32 1.04 0 0.36 1.04 0 0.4 1.04 0 0.44 1.04 0 0.48 1.04 0 0.52 1.04 0 0.56 1.04 0 0.6 1.04 0 0.64 1.04 0 0.68 1.04 0 0.72 1.04 0 0.76 1.04 0 0.8 1.04 0 0.84 1.04 0 0.88 1.04 0 0.92 1.04 0 0.96 1.04 0 1 1.04 0 1.04 1.04 0 1.08 1.04 0 1.12 1.04 0 1.16 1.04 0 1.2 1.04 0 0 1.08 0 0.04 1.08 0 0.08 1.08 0 0.12 1.08 0 0.16 1.08 0 0.2 1.08 0 0.24 1.08 0 0.28 1.08 0 0.32 1.08 0 0.36 1.08 0 0.4 1.08 0 0.44 1.08 0 0.48 1.08 0 0.52 1.08 0 0.56 1.08 0 0.6 1.08 0 0.64 1.08 0 0.68 1.08 0 0.72 1.08 0 0.76 1.08 0 0.8 1.08 0 0.84 1.08 0 0.88 1.08 0 0.92 1.08 0 0.96 1.08 0 1 1.08 0 1.04 1.08 0 1.08 1.08 0 1.12 1.08 0 1.16 1.08 0 1.2 1.08 0 0 1.12 0 
[...]
			<CellData Scalars="Density">
				<DataArray Name="Density" type="Float32" format="ascii">
 0.00337266 0.00352895 0.00390354 0.00458625 0.00559744 0.00691213 0.00852766 0.0104381 0.0126524 0.0151908 0.0180876 0.0213906 0.0251655 0.0294995 0.0345185 0.0404085 0.0474625 0.0561531 0.0673851 0.0833286 0.108915 0.15465 0.231492 0.361084 0.580196 0.941745 1.459 2.15935 3.01554 3.82235 0.00352794 0.00365508 0.00396671 0.00457471 0.00552652 0.0068247 0.00847714 0.010476 0.0128622 0.0156337 0.0188287 0.022485 0.0266653 0.0314563 0.0369787 0.0434058 0.0510194 0.0602861 0.0721996 0.0888846 0.115183 0.161387 0.23944 0.369062 0.585694 0.945836 1.47028 2.18665 3.06133 3.87326 0.00390206 0.00396689 0.00416173 0.00461185 0.00538892 0.00648272 0.00793228 0.00976286 0.0119545 0.0145422 0.0175378 0.0209816 0.0249266 0.0294491 0.0346781 0.0408036 0.0480946 0.0570394 0.0685203 0.0845026 0.109372 0.153489 0.229947 0.358928 0.57646 0.939109 1.46769 2.19514 3.10083 3.97436 0.00458488 0.00457689 0.00461495 0.00492942 0.00554054 0.00647866 0.00778008 0.00943805 0.0114929 0.013961 0.0168818 0.0202959 0.02427 0.0288997 0.0343026 0.0406481 0.0482203 0.0574847 0.0691553 0.0850561 0.10936 0.151919 0.224485 0.346536 0.552716 0.904089 1.43934 2.17949 3.10286 3.98064 0.00559566 0.00553103 0.00539581 0.00554533 0.00605867 0.00691245 0.00812594 0.00974664 0.0118026 0.0143403 0.0174055 0.021064 0.0254007 0.0305176 0.036544 0.0436706 0.0521573 0.0623666 0.075047 0.0918202 0.1166 0.158805 0.232209 0.357341 0.566194 0.910974 1.44426 2.1852 3.12252 4.03021 0.00690913 0.00683067 0.00649337 0.00648885 0.00691798 0.00770593 0.00890493 0.0105362 0.012666 0.0153365 0.0186227 0.0225915 0.0273406 0.0329762 0.0396257 0.0474513 0.0567248 0.0678277 0.081448 0.0989928 0.123971 0.16539 0.238221 0.360894 0.565335 0.904587 1.43512 2.18409 3.15084 4.10999 0.00852325 0.00848267 0.00794732 0.007794 0.00813678 0.00891048 0.0101404 0.0118572 0.0141325 0.0170278 0.0206225 0.0249991 0.0302529 0.0365026 0.0438705 0.0525397 0.0627776 0.0749625 0.0897739 0.108369 0.133513 0.172973 0.244728 0.368792 0.576463 0.915642 1.44878 2.20943 3.21742 4.24603 0.0104314 0.0104828 0.00977715 0.00945432 0.00976091 0.0105466 0.0118633 0.0137182 0.0162107 0.0194006 0.0233819 0.0282346 0.0340707 0.0410002 0.0491723 0.058737 0.0699681 0.0832306 0.0991824 0.118914 0.144629 0.182669 0.250249 0.373236 0.57956 0.915481 1.45134 2.23878 3.3068 4.43655 0.0126426 0.0128669 0.011967 0.0115081 0.0118181 0.0126785 0.0141419 0.0162158 0.0190133 0.0225966 0.0270711 0.032514 0.0390431 0.0467821 0.0558679 0.0664944 0.0788655 0.0933749 0.110681 0.131752 0.158556 0.195728 0.256509 0.374947 0.582632 0.92392 1.46786 2.2859 3.42264 4.67035 0.0151772 0.0156356 0.0145504 0.0139723 0.0143522 0.0153475 0.0170351 0.0194025 0.0225962 0.026671 0.0317385 0.0378824 0.045213 0.0538688 0.0640023 0.0757944 0.089537 0.105476 0.124295 0.146951 0.175077 0.212424 0.269025 0.375504 0.580566 0.923395 1.47496 2.33431 3.55829 4.94638 0.0180703 0.0188275 0.0175414 0.0168861 0.0174114 0.0186255 0.0206223 0.0233738 0.0270558 0.0317271 0.0374999 0.0444505 0.052707 0.0623859 0.0736831 0.0867885 0.101979 0.119654 0.14021 0.164641 0.194563 0.232868 0.287124 0.37912 0.57106 0.914573 1.47775 2.37658 3.70846 5.25549 0.0213693 0.0224817 0.0209796 0.0202928 0.0210612 0.0225872 0.024985 0.0282146 0.032486 0.0378493 0.0444364 0.0523085 0.0615914 0.0724308 0.0849885 0.0995388 0.116364 0.135839 0.158626 0.185243 0.217262 0.25739 0.311213 0.394722 0.56023 0.898677 1.47311 2.40728 3.86962 5.6026 0.0251395 0.0266596 0.024919 0.0242586 0.0253896 0.0273244 0.0302295 0.0340314 0.0389996 0.0451684 0.0526677 0.0615776 0.0720124 0.0841146 0.0981079 0.114203 0.132833 0.154385 0.179414 0.20891 0.243746 0.286203 0.341585 0.421135 0.559634 0.869712 1.45 2.41536 4.00658 5.97615 0.0294678 0.0314473 0.0294364 0.0288798 0.0304965 0.032948 0.0364581 0.0409451 0.0467099 0.0537958 0.062333 0.0723821 0.0840967 0.0976121 0.113152 0.131037 0.151587 0.175427 0.203171 0.235543 0.274218 0.320458 0.378074 0.457138 0.582437 0.840487 1.40922 2.40903 4.09745 6.37103 0.0344803 0.0369658 0.0346595 0.0342766 0.0365154 0.0395878 0.0438169 0.0490917 0.0557835 0.0639029 0.0735952 0.0849333 0.0980523 0.113138 0.130437 0.150244 0.173086 0.199412 0.230148 0.266205 0.308694 0.360165 0.422838 0.50352 0.623192 0.838762 1.35203 2.36895 4.14552 6.78289 0.0403624 0.0433868 0.0407788 0.0406161 0.0436365 0.0474065 0.0524747 0.0586544 0.066383 0.0756816 0.0866778 0.0994354 0.11415 0.130973 0.15024 0.172293 0.197582 0.226928 0.261 0.301125 0.348864 0.40574 0.476147 0.563853 0.683646 0.881505 1.30572 2.28893 4.16522 7.17983 0.0474074 0.0509932 0.0480625 0.0481824 0.0521197 0.0566769 0.0627086 0.0698698 0.0787683 0.0893976 0.101862 0.116249 0.132723 0.151553 0.173019 0.197609 0.225875 0.258456 0.296673 0.341446 0.395026 0.459548 0.537839 0.636802 0.765315 0.955291 1.31365 2.20311 4.1757 7.48339 0.0560883 0.0602521 0.0569996 0.0574421 0.0623276 0.067778 0.0748951 0.0831348 0.0932586 0.105369 0.119507 0.135724 0.154262 0.175302 0.199402 0.226842 0.258513 0.295195 0.337869 0.388619 0.448971 0.522427 0.612712 0.724461 0.871201 1.07244 1.41221 2.16411 4.1718 7.61967 0.0673127 0.0721606 0.0684733 0.0691101 0.0750055 0.081401 0.089707 0.0990966 0.110576 0.124162 0.140132 0.158476 0.179345 0.203056 0.230035 0.261056 0.29656 0.338094 0.386705 0.443953 0.513433 0.597177 0.701899 0.833042 1.00112 1.22955 1.57702 2.22368 4.12407 7.54747 0.0832557 0.0888466 0.0844538 0.0850117 0.0917845 0.0989484 0.10831 0.118839 0.131674 0.146831 0.164527 0.185191 0.208766 0.235568 0.266112 0.301056 0.341606 0.388433 0.444354 0.510523 0.590274 0.68871 0.810483 0.966154 1.16846 1.43699 1.82313 2.45632 4.04903 7.13559 0.108857 0.115152 0.109326 0.109326 0.116577 0.123934 0.133464 0.144563 0.158492 0.175006 0.19444 0.217183 0.243744 0.274069 0.308893 0.348788 0.395027 0.449302 0.512979 0.590606 0.684341 0.799978 0.946688 1.13251 1.37897 1.70652 2.16241 2.83276 3.91717 6.35169 0.15458 0.161348 0.153436 0.151882 0.158791 0.165375 0.172946 0.182617 0.195673 0.212375 0.232811 0.257241 0.286209 0.320498 0.35997 0.406235 0.45949 0.522606 0.597792 0.687862 0.800541 0.939682 1.11701 1.34737 1.65017 2.05566 2.59829 3.27264 3.81445 5.2258 0.231366 0.239324 0.229819 0.224395 0.232159 0.238202 0.244685 0.250207 0.256477 0.268977 0.287107 0.311141 0.341436 0.378261 0.422905 0.475822 0.538779 0.612504 0.70218 0.811064 0.945274 1.11722 1.33707 1.62375 2.00435 2.51199 3.11432 3.64871 3.65983 3.76935 0.360845 0.368809 0.358659 0.346332 0.357212 0.360804 0.368722 0.373169 0.374905 0.375447 0.379088 0.394687 0.421067 0.456933 0.504 0.56374 0.636456 0.725976 0.832585 0.966414 1.13368 1.34647 1.6247 1.9886 2.47247 3.04899 3.56277 3.75692 3.20986 2.37278 0.579851 0.585308 0.576018 0.552366 0.565936 0.565145 0.576302 0.57949 0.582521 0.580489 0.570983 0.560203 0.559611 0.582303 0.623029 0.684539 0.764764 0.870937 1.0033 1.16696 1.3791 1.65159 2.00529 2.467 3.03545 3.56122 3.7124 3.37917 2.2592 1.49074 0.94117 0.945253 0.938457 0.903564 0.910561 0.904262 0.915385 0.915302 0.923782 0.923155 0.914558 0.898539 0.869607 0.840572 0.838551 0.881569 0.956681 1.07139 1.22971 1.4394 1.70447 2.05536 2.51093 3.0565 3.54086 3.75502 3.43746 2.41247 1.44388 1.13749 1.45817 1.46943 1.46677 1.43851 1.4435 1.43461 1.44834 1.45113 1.46761 1.47468 1.47759 1.47274 1.45003 1.409 1.35218 1.30525 1.31431 1.41388 1.5751 1.8243 2.16399 2.60342 3.10458 3.57308 3.73082 3.42435 2.42533 1.49022 1.13344 1.04027 2.15827 2.18557 2.19401 2.1785 2.18417 2.18349 2.20884 2.23856 2.28558 2.33411 2.37621 2.40691 2.41578 2.40896 2.36867 2.28952 2.20262 2.16506 2.22535 2.45485 2.83061 3.2777 3.65676 3.73379 3.39069 2.39254 1.50884 1.14082 1.04236 1.00712 3.01422 3.06004 3.09934 3.1017 3.12119 3.15023 3.21688 3.30671 3.4221 3.55803 3.70863 3.86924 4.00647 4.09769 4.14582 4.1657 4.17566 4.17335 4.12373 4.0513 3.91406 3.80236 3.68647 3.19317 2.278 1.43608 1.13075 1.04325 1.00767 1.00045 3.82069 3.87173 3.97242 3.97917 4.02862 4.10943 4.24549 4.43681 4.66902 4.94597 5.25722 5.60062 5.97375 6.3722 6.78083 7.17489 7.49013 7.62015 7.53631 7.14928 6.34794 5.2075 3.78862 2.35999 1.48922 1.14047 1.0399 1.0071 1.00046 1
				</DataArray>
				<DataArray Name="Energy" type="Float32" format="ascii">
 794.139 758.474 685.787 583.761 478.372 387.435 314.052 256.647 211.759 176.438 148.244 125.433 106.721 91.1819 78.1362 67.0759 57.617 49.4721 42.4482 36.4705 31.3415 26.5439 21.5134 16.5157 12.1268 8.77614 6.40357 4.78683 3.68639 3.05109 758.698 731.642 674.025 584.506 483.78 391.772 315.488 255.218 207.953 171.099 142.124 119.073 100.488 85.303 72.7309 62.2002 53.2958 45.7125 39.2465 33.7669 29.1184 24.8186 20.3261 15.754 11.645 8.45606 6.18797 4.64949 3.60727 2.99186 686.053 673.993 642.549 579.675 496.219 412.482 337.049 273.993 223.709 183.989 152.609 127.645 107.551 91.1538 77.5907 66.237 56.6316 48.4561 41.477 35.5579 30.5589 26.0113 21.2942 16.4664 12.1267 8.75404 6.3557 4.72015 3.61968 2.99753 583.94 584.229 579.284 542.521 482.534 412.764 343.777 283.311 232.778 191.63 158.541 131.937 110.412 92.856 78.4003 66.3797 56.3009 47.8253 40.6836 34.73 29.8264 25.5265 21.1198 16.5642 12.321 8.90668 6.4554 4.77456 3.6501 3.00487 478.53 483.382 495.588 482.116 441.386 386.843 329.047 274.473 226.632 186.608 153.792 127.156 105.538 87.9464 73.57 61.7869 52.0922 44.0664 37.3932 31.8851 27.4057 23.7431 20.1053 16.2065 12.3164 9.01453 6.57001 4.85474 3.70002 3.03417 387.604 391.433 411.795 412.121 386.528 346.999 300.392 253.847 211.257 174.5 143.774 118.572 98.0507 81.3861 67.8417 56.7933 47.7445 40.2973 34.1429 29.0708 24.954 21.7116 18.7149 15.4739 12.078 9.01986 6.63893 4.91842 3.73761 3.05125 314.217 315.279 336.415 343.157 328.611 300.203 263.746 225.651 189.348 157.216 129.86 107.199 88.6465 73.552 61.2836 51.295 43.1288 36.4217 30.8849 26.3058 22.5512 19.6037 17.2255 14.6897 11.8437 9.04619 6.72633 4.98655 3.7688 3.0551 256.812 255.054 273.588 282.827 274.067 253.599 225.536 195.062 165.124 138.024 114.582 94.9497 78.7594 65.5185 54.7187 45.8932 38.6547 32.6966 27.7683 23.6819 20.3005 17.6103 15.579 13.645 11.365 8.93279 6.75436 5.03557 3.79034 3.05161 211.925 207.876 223.477 232.466 226.338 211.046 189.221 165.076 140.831 118.547 99.0164 82.5026 68.7759 57.4784 48.2081 40.5978 34.3182 29.1217 24.8062 21.2081 18.2054 15.7593 13.8838 12.4652 10.7762 8.76735 6.76714 5.08299 3.80978 3.04497 176.596 171.079 183.883 191.477 186.448 174.378 157.145 138.005 118.556 100.495 84.5049 70.8691 59.4439 49.9714 42.1429 35.6699 30.2985 25.8156 22.0638 18.9192 16.2733 14.0791 12.3439 11.1373 9.9887 8.44866 6.7099 5.11285 3.82965 3.03757 148.387 142.131 152.58 158.5 153.744 143.747 129.867 114.62 99.0653 84.5402 71.5852 60.4546 51.0597 43.2087 36.6705 31.2225 26.664 22.8355 19.597 16.8582 14.5383 12.5879 10.9929 9.81751 9.03326 7.98252 6.57765 5.12049 3.85323 3.03313 125.558 119.091 127.658 131.958 127.169 118.601 107.25 95.021 82.5745 70.9238 60.4776 51.4421 43.7587 37.2906 31.8568 27.2938 23.4443 20.1831 17.4071 15.0314 12.9989 11.272 9.82534 8.69791 7.98301 7.36724 6.34876 5.09498 3.8788 3.03056 106.831 100.509 107.585 110.465 105.585 98.1068 88.721 78.8435 68.8553 59.5066 51.092 43.7714 37.5016 32.182 27.6784 23.8615 20.6169 17.8454 15.4646 13.4148 11.6386 10.1113 8.81427 7.75514 7.00033 6.6008 5.99085 5.01032 3.8878 3.02766 91.2793 85.3271 91.195 92.9181 88.0072 81.4568 73.6368 65.6121 57.5617 50.0381 43.2504 37.3114 32.1909 27.8134 24.0761 20.8845 18.1462 15.7903 13.7513 11.9799 10.4363 9.09011 7.92702 6.95241 6.19918 5.77787 5.49116 4.84052 3.86146 3.0204 78.2234 72.7571 77.6329 78.4588 73.6269 67.9059 61.3614 54.8014 48.2861 42.2058 36.7121 31.8833 27.6913 24.0816 20.9755 18.3004 15.9893 13.9827 12.2343 10.7051 9.3606 8.18146 7.14673 6.25749 5.53523 5.04662 4.86935 4.55267 3.78886 3.00019 67.1546 62.2289 66.2784 66.432 61.8349 56.8465 51.3585 45.9623 40.6605 35.7245 31.2605 27.3183 23.8775 20.892 18.3036 16.0576 14.1007 12.3913 10.8893 9.56712 8.39852 7.36405 6.45222 5.65241 4.97655 4.4679 4.2251 4.12547 3.65324 2.95945 57.688 53.3263 56.672 56.347 52.1309 47.7856 43.1766 38.7059 34.3681 30.3399 26.696 23.4664 20.63 18.1556 15.9925 14.1022 12.4444 10.9834 9.69384 8.54931 7.53176 6.62624 5.81991 5.10841 4.4886 3.98541 3.66448 3.61297 3.42907 2.88205 49.536 45.7442 48.4956 47.8657 44.0982 40.3286 36.4567 32.7328 29.1564 25.8484 22.8592 20.2021 17.8577 15.7977 13.988 12.3924 10.9848 9.73686 8.62558 7.63613 6.74929 5.95618 5.24681 4.61343 4.05694 3.58211 3.23158 3.11032 3.10219 2.74855 42.5061 39.2794 41.5159 40.7195 37.4193 34.1667 30.9097 27.7937 24.8294 22.0846 19.6156 17.4202 15.475 13.7578 12.2377 10.8919 9.69328 8.62607 7.67057 6.81184 6.0412 5.34539 4.72146 4.16118 3.66088 3.225 2.87093 2.6689 2.71414 2.53937 36.5229 33.8006 35.5959 34.7626 31.9076 29.0887 26.3232 23.6983 21.223 18.9323 16.8684 15.0418 13.4206 11.9852 10.7074 9.5686 8.55023 7.63386 6.81203 6.06883 5.39663 4.78947 4.23932 3.74429 3.30008 2.90506 2.56642 2.32039 2.31424 2.25137 31.3844 29.1492 30.5936 29.8561 27.4262 24.9684 22.5642 20.3121 18.2143 16.282 14.5442 13.0048 11.6443 10.4382 9.36263 8.39912 7.53205 6.74916 6.03909 5.39689 4.81176 4.27985 3.7985 3.35969 2.9654 2.6107 2.29927 2.03668 1.92554 1.87888 26.5737 24.8425 26.0383 25.5491 23.759 21.7234 19.6141 17.6181 15.7653 14.0837 12.5914 11.2745 10.1147 9.09296 8.18028 7.36519 6.62576 5.95537 5.34589 4.78804 4.28088 3.81564 3.39205 3.00746 2.65642 2.33658 2.05504 1.7892 1.58567 1.44302 21.5303 20.3413 21.312 21.1346 20.1158 18.7226 17.2325 15.5844 13.8877 12.3473 10.9944 9.82676 8.81525 7.92951 7.14685 6.45014 5.82046 5.2446 4.7204 4.23931 3.79634 3.39223 3.02024 2.67956 2.37062 2.08492 1.82383 1.55532 1.29586 0.961862 16.5237 15.7624 16.4768 16.5729 16.2128 15.4786 14.6936 13.6482 12.467 11.1392 9.81878 8.69833 7.75587 6.95295 6.25866 5.65172 5.10688 4.6137 4.15927 3.74374 3.35986 3.00575 2.68146 2.37907 2.10465 1.84656 1.59154 1.30893 0.985028 0.477928 12.1299 11.6489 12.1317 12.3254 12.3197 12.0808 11.8456 11.3662 10.7767 9.98867 9.03372 7.98316 7.00052 6.19937 5.53523 4.97733 4.48744 4.05572 3.66168 3.29804 2.9649 2.65579 2.36918 2.10503 1.85724 1.60833 1.34046 1.00883 0.558801 0.113689 8.77667 8.45721 8.75579 8.90838 9.01593 9.02098 9.04708 8.93339 8.76717 8.44802 7.98152 7.36669 6.60079 5.77803 5.04621 4.46811 3.9858 3.58055 3.22471 2.90568 2.60878 2.33674 2.08324 1.84651 1.60738 1.35148 1.04071 0.592952 0.140588 0.00684707 6.40298 6.18763 6.35567 6.45541 6.57004 6.6388 6.72623 6.75435 6.76674 6.70921 6.57665 6.34732 5.99046 5.49152 4.8689 4.22509 3.66505 3.23132 2.86954 2.56736 2.29877 2.05513 1.82342 1.59159 1.34218 1.04015 0.613758 0.160672 0.00911407 0.000112106 4.78592 4.64871 4.71954 4.77398 4.85423 4.91782 4.9859 5.03497 5.08253 5.11245 5.11974 5.09354 5.00883 4.83997 4.55215 4.12447 3.61256 3.11039 2.66794 2.32 2.03609 1.78883 1.55596 1.30573 1.00984 0.592859 0.162356 0.0108448 0.000157231 2.97525e-06 3.68551 3.60648 3.61894 3.64939 3.6994 3.7368 3.76807 3.78951 3.80969 3.82927 3.8523 3.87826 3.88675 3.86022 3.78848 3.65237 3.42811 3.10156 2.71342 2.31261 1.92476 1.58555 1.29814 0.982072 0.558372 0.140057 0.00901638 0.000158877 3.09662e-06 2.50186e-06 3.05033 2.99109 2.99688 3.00418 3.03372 3.05038 3.0545 3.05074 3.0453 3.03732 3.03183 3.03089 3.02742 3.01913 3.00077 2.96009 2.88034 2.74761 2.54006 2.25028 1.87837 1.441 0.963085 0.477134 0.113581 0.00696697 0.00011173 2.97253e-06 2.50189e-06 2.5e-06
				</DataArray>
				<DataArray Name="F1" type="Float32" format="ascii">
 1 1 1 1 1 1 1 1 1 1 1 1 1 1 1 1 1 1 1 1 1 1 1 1 1 1 1 1 1 1 1 1 1 1 1 1 1 1 1 1 1 1 1 1 1 1 1 1 1 1 1 1 1 1 1 1 1 1 1 1 1 1 1 1 1 1 1 1 1 1 1 1 1 1 1 1 1 1 1 1 1 1 1 1 1 1 1 1 1 1 1 1 1 1 1 1 1 1 1 1 1 1 1 1 1 1 1 1 1 1 1 1 1 1 1 1 1 1 1 1 1 1 1 1 1 1 1 1 1 1 1 1 1 1 1 1 1 1 1 1 1 1 1 1 1 1 1 1 1 1 1 1 1 1 1 1 1 1 1 1 1 1 1 1 1 1 1 1 1 1 1 1 1 1 1 1 1 1 1 1 1 1 1 1 1 1 1 1 1 1 1 1 1 1 1 1 1 1 1 1 1 1 1 1 1 1 1 1 1 1 1 1 1 1 1 1 1 1 1 1 1 1 1 1 1 1 1 1 1 1 1 1 1 1 1 1 1 1 1 1 1 1 1 1 1 1 1 1 1 1 1 1 1 1 1 1 1 1 1 1 1 1 1 1 1 1 1 1 1 1 1 1 1 1 1 1 1 1 1 1 1 1 1 1 1 1 1 1 1 1 1 1 1 1 1 1 1 1 1 1 1 1 1 1 1 1 1 1 1 1 1 1 1 1 1 1 1 1 1 1 1 1 1 1 1 1 1 1 1 1 1 1 1 1 1 1 1 1 1 1 1 1 1 1 1 1 1 1 1 1 1 1 1 1 1 1 1 1 1 1 1 1 1 1 1 1 1 1 1 1 1 1 1 1 1 1 1 1 1 1 1 1 1 1 1 1 1 1 1 1 1 1 1 1 1 1 1 1 1 1 1 1 1 1 1 1 1 1 1 1 1 1 1 1 1 1 1 1 1 1 1 1 1 1 1 1 1 1 1 1 1 1 1 1 1 1 1 1 1 1 1 1 1 1 1 1 1 1 1 1 1 1 1 1 1 1 1 1 1 1 1 1 1 1 1 1 1 1 1 1 1 1 1 1 1 1 1 1 1 1 1 1 1 1 1 1 1 1 1 1 1 1 1 1 1 1 1 1 1 1 1 1 1 1 1 1 1 1 1 1 1 1 1 1 1 1 1 1 1 1 1 1 1 1 1 1 1 1 1 1 1 1 1 1 1 1 1 1 1 1 1 1 1 1 1 1 1 1 1 1 1 1 1 1 1 1 1 1 1 1 1 1 1 1 1 1 1 1 1 1 1 1 1 1 1 1 1 1 1 1 1 1 1 1 1 1 1 1 1 1 1 1 1 1 1 1 1 1 1 1 1 1 1 1 1 1 1 1 1 1 1 1 1 1 1 1 1 1 1 1 1 1 1 1 1 1 1 1 1 1 1 1 1 1 1 1 1 1 1 1 1 1 1 1 1 1 1 1 1 1 1 1 1 1 1 1 1 1 1 1 1 1 1 1 1 1 1 1 1 1 1 1 1 1 1 1 1 1 1 1 1 1 1 1 1 1 1 1 1 1 1 1 1 1 1 1 1 1 1 1 1 1 1 1 1 1 1 1 1 1 1 1 1 1 1 1 1 1 1 1 1 1 1 1 1 1 1 1 1 1 1 1 1 1 1 1 1 1 1 1 1 1 1 1 1 1 1 1 1 1 1 1 1 1 1 1 1 1 1 1 1 1 1 1 1 1 1 1 1 1 1 1 1 1 1 1 1 1 1 1 1 1 1 1 1 1 1 1 1 1 1 1 1 1 1 1 1 1 1 1 1 1 1 1 1 1 1 1 1 1 1 1 1 1 1 1 1 1 1 1 1 1 1 1 1 1 1 1 1 1 1 1 1 1 1 1 1 1 1 1 1 1 1 1 1 1 1 1 1 1 1 1 1 1 1 1 1 1 1 1 1 1 1 1 1 1 1 1 1 1 1 1 1 1 1 1 1 1 1 1 1 1 1 1 1 1 1 1 1 1 1 1 1 1 1 1 1 1 1 1
				</DataArray>
				<DataArray Name="F2" type="Float32" format="ascii">
 0 0 0 0 0 0 0 0 0 0 0 0 0 0 0 0 0 0 0 0 0 0 0 0 0 0 0 0 0 0 0 0 0 0 0 0 0 0 0 0 0 0 0 0 0 0 0 0 0 0 0 0 0 0 0 0 0 0 0 0 0 0 0 0 0 0 0 0 0 0 0 0 0 0 0 0 0 0 0 0 0 0 0 0 0 0 0 0 0 0 0 0 0 0 0 0 0 0 0 0 0 0 0 0 0 0 0 0 0 0 0 0 0 0 0 0 0 0 0 0 0 0 0 0 0 0 0 0 0 0 0 0 0 0 0 0 0 0 0 0 0 0 0 0 0 0 0 0 0 0 0 0 0 0 0 0 0 0 0 0 0 0 0 0 0 0 0 0 0 0 0 0 0 0 0 0 0 0 0 0 0 0 0 0 0 0 0 0 0 0 0 0 0 0 0 0 0 0 0 0 0 0 0 0 0 0 0 0 0 0 0 0 0 0 0 0 0 0 0 0 0 0 0 0 0 0 0 0 0 0 0 0 0 0 0 0 0 0 0 0 0 0 0 0 0 0 0 0 0 0 0 0 0 0 0 0 0 0 0 0 0 0 0 0 0 0 0 0 0 0 0 0 0 0 0 0 0 0 0 0 0 0 0 0 0 0 0 0 0 0 0 0 0 0 0 0 0 0 0 0 0 0 0 0 0 0 0 0 0 0 0 0 0 0 0 0 0 0 0 0 0 0 0 0 0 0 0 0 0 0 0 0 0 0 0 0 0 0 0 0 0 0 0 0 0 0 0 0 0 0 0 0 0 0 0 0 0 0 0 0 0 0 0 0 0 0 0 0 0 0 0 0 0 0 0 0 0 0 0 0 0 0 0 0 0 0 0 0 0 0 0 0 0 0 0 0 0 0 0 0 0 0 0 0 0 0 0 0 0 0 0 0 0 0 0 0 0 0 0 0 0 0 0 0 0 0 0 0 0 0 0 0 0 0 0 0 0 0 0 0 0 0 0 0 0 0 0 0 0 0 0 0 0 0 0 0 0 0 0 0 0 0 0 0 0 0 0 0 0 0 0 0 0 0 0 0 0 0 0 0 0 0 0 0 0 0 0 0 0 0 0 0 0 0 0 0 0 0 0 0 0 0 0 0 0 0 0 0 0 0 0 0 0 0 0 0 0 0 0 0 0 0 0 0 0 0 0 0 0 0 0 0 0 0 0 0 0 0 0 0 0 0 0 0 0 0 0 0 0 0 0 0 0 0 0 0 0 0 0 0 0 0 0 0 0 0 0 0 0 0 0 0 0 0 0 0 0 0 0 0 0 0 0 0 0 0 0 0 0 0 0 0 0 0 0 0 0 0 0 0 0 0 0 0 0 0 0 0 0 0 0 0 0 0 0 0 0 0 0 0 0 0 0 0 0 0 0 0 0 0 0 0 0 0 0 0 0 0 0 0 0 0 0 0 0 0 0 0 0 0 0 0 0 0 0 0 0 0 0 0 0 0 0 0 0 0 0 0 0 0 0 0 0 0 0 0 0 0 0 0 0 0 0 0 0 0 0 0 0 0 0 0 0 0 0 0 0 0 0 0 0 0 0 0 0 0 0 0 0 0 0 0 0 0 0 0 0 0 0 0 0 0 0 0 0 0 0 0 0 0 0 0 0 0 0 0 0 0 0 0 0 0 0 0 0 0 0 0 0 0 0 0 0 0 0 0 0 0 0 0 0 0 0 0 0 0 0 0 0 0 0 0 0 0 0 0 0 0 0 0 0 0 0 0 0 0 0 0 0 0 0 0 0 0 0 0 0 0 0 0 0 0 0 0 0 0 0 0 0 0 0 0 0 0 0 0 0 0 0 0 0 0 0 0 0 0 0 0 0 0 0 0 0 0 0 0 0 0 0 0 0 0 0 0 0 0 0 0 0 0 0 0 0 0 0 0 0 0 0 0 0 0 0 0 0 0 0 0 0 0 0 0 0 0 0 0 0 0 0 0 0 0 0 0 0 0 0 0 0 0 0 0 0 0 0 0 0 0 0 0
				</DataArray>
				<DataArray Name="F3" type="Float32" format="ascii">