<?xml version="1.0"?>
<VTKFile type="PolyData">
	<PolyData>
		<Piece NumberOfPoints="961" NumberOfPolys="900">
			<Points>
				<DataArray type="Float32" NumberOfComponents="3" format="ascii">
 0 0 0 0.04 0 0 0.08 0 0 0.12 0 0 0.16 0 0 0.2 0 0 0.24 0 0 0.28 0 0 0.32 0 0 0.36 0 0 0.4 0 0 0.44 0 0 0.48 0 0 0.52 0 0 0.56 0 0 0.6 0 0 0.64 0 0 0.68 0 0 0.72 0 0 0.76 0 0 0.8 0 0 0.84 0 0 0.88 0 0 0.92 0 0 0.96 0 0 1 0 0 1.04 0 0 1.08 0 0 1.12 0 0 1.16 0 0 1.2 0 0 0 0.04 0 0.04 0.04 0 0.08 0.04 0 0.12 0.04 0 0.16 0.04 0 0.2 0.04 0 0.24 0.04 0 0.28 0.04 0 0.32 0.04 0 0.36 0.04 0 0.4 0.04 0 0.44 0.04 0 0.48 0.04 0 0.52 0.04 0 0.56 0.04 0 0.6 0.04 0 0.64 0.04 0 0.68 0.04 0 0.72 0.04 0 0.76 0.04 0 0.8 0.04 0 0.84 0.04 0 0.88 0.04 0 0.92 0.04 0 0.96 0.04 0 1 0.04 0 1.04 0.04 0 1.08 0.04 0 1.12 0.04 0 1.16 0.04 0 1.2 0.04 0 0 0.08 0 0.04 0.08 0 0.08 0.08 0 0.12 0.08 0 0.16 0.08 0 0.2 0.08 0 0.24 0.08 0 0.28 0.08 0 0.32 0.08 0 0.36 0.08 0 0.4 0.08 0 0.44 0.08 0 0.48 0.08 0 0.52 0.08 0 0.56 0.08 0 0.6 0.08 0 0.64 0.08 0 0.68 0.08 0 0.72 0.08 0 0.76 0.08 0 0.8 0.08 0 0.84 0.08 0 0.88 0.08 0 0.92 0.08 0 0.96 0.08 0 1 0.08 0 1.04 0.08 0 1.08 0.08 0 1.12 0.08 0 1.16 0.08 0 1.2 0.08 0 0 0.12 0 0.04 0.12 0 0.08 0.12 0 0.12 0.12 0 0.16 0.12 0 0.2 0.12 0 0.24 0.12 0 0.28 0.12 0 0.32 0.12 0 0.36 0.12 0 0.4 0.12 0 0.44 0.12 0 0.48 0.12 0 0.52 0.12 0 0.56 0.12 0 0.6 0.12 0 0.64 0.12 0 0.68 0.12 0 0.72 0.12 0 0.76 0.12 0 0.8 0.12 0 0.84 0.12 0 0.88 0.12 0 0.92 0.12 0 0.96 0.12 0 1 0.12 0 1.04 0.12 0 1.08 0.12 0 1.12 0.12 0 1.16 0.12 0 1.2 0.12 0 0 0.16 0 0.04 0.16 0 0.08 0.16 0 0.12 0.16 0 0.16 0.16 0 0.2 0.16 0 0.24 0.16 0 0.28 0.16 0 0.32 0.16 0 0.36 0.16 0 0.4 0.16 0 0.44 0.16 0 0.48 0.16 0 0.52 0.16 0 0.56 0.16 0 0.6 0.16 0 0.64 0.16 0 0.68 0.16 0 0.72 0.16 0 0.76 0.16 0 0.8 0.16 0 0.84 0.16 0 0.88 0.16 0 0.92 0.16 0 0.96 0.16 0 1 0.16 0 1.04 0.16 0 1.08 0.16 0 1.12 0.16 0 1.16 0.16 0 1.2 0.16 0 0 0.2 0 0.04 0.2 0 0.08 0.2 0 0.12 0.2 0 0.16 0.2 0 0.2 0.2 0 0.24 0.2 0 0.28 0.2 0 0.32 0.2 0 0.36 0.2 0 0.4 0.2 0 0.44 0.2 0 0.48 0.2 0 0.52 0.2 0 0.56 0.2 0 0.6 0.2 0 0.64 0.2 0 0.68 0.2 0 0.72 0.2 0 0.76 0.2 0 0.8 0.2 0 0.84 0.2 0 0.88 0.2 0 0.92 0.2 0 0.96 0.2 0 1 0.2 0 1.04 0.2 0 1.08 0.2 0 1.12 0.2 0 1.16 0.2 0 1.2 0.2 0 0 0.24 0 0.04 0.24 0 0.08 0.24 0 0.12 0.24 0 0.16 0.24 0 0.2 0.24 0 0.24 0.24 0 0.28 0.24 0 0.32 0.24 0 0.36 0.24 0 0.4 0.24 0 0.44 0.24 0 0.48 0.24 0 0.52 0.24 0 0.56 0.24 0 0.6 0.24 0 0.64 0.24 0 0.68 0.24 0 0.72 0.24 0 0.76 0.24 0 0.8 0.24 0 0.84 0.24 0 0.88 0.24 0 0.92 0.24 0 0.96 0.24 0 1 0.24 0 1.04 0.24 0 1.08 0.24 0 1.12 0.24 0 1.16 0.24 0 1.2 0.24 0 0 0.28 0 0.04 0.28 0 0.08 0.28 0 0.12 0.28 0 0.16 0.28 0 0.2 0.28 0 0.24 0.28 0 0.28 0.28 0 0.32 0.28 0 0.36 0.28 0 0.4 0.28 0 0.44 0.28 0 0.48 0.28 0 0.52 0.28 0 0.56 0.28 0 0.6 0.28 0 0.64 0.28 0 0.68 0.28 0 0.72 0.28 0 0.76 0.28 0 0.8 0.28 0 0.84 0.28 0 0.88 0.28 0 0.92 0.28 0 0.96 0.28 0 1 0.28 0 1.04 0.28 0 1.08 0.28 0 1.12 0.28 0 1.16 0.28 0 1.2 0.28 0 0 0.32 0 0.04 0.32 0 0.08 0.32 0 0.12 0.32 0 0.16 0.32 0 0.2 0.32 0 0.24 0.32 0 0.28 0.32 0 0.32 0.32 0 0.36 0.32 0 0.4 0.32 0 0.44 0.32 0 0.48 0.32 0 0.52 0.32 0 0.56 0.32 0 0.6 0.32 0 0.64 0.32 0 0.68 0.32 0 0.72 0.32 0 0.76 0.32 0 0.8 0.32 0 0.84 0.32 0 0.88 0.32 0 0.92 0.32 0 0.96 0.32 0 1 0.32 0 1.04 0.32 0 1.08 0.32 0 1.12 0.32 0 1.16 0.32 0 1.2 0.32 0 0 0.36 0 0.04 0.36 0 0.08 0.36 0 0.12 0.36 0 0.16 0.36 0 0.2 0.36 0 0.24 0.36 0 0.28 0.36 0 0.32 0.36 0 0.36 0.36 0 0.4 0.36 0 0.44 0.36 0 0.48 0.36 0 0.52 0.36 0 0.56 0.36 0 0.6 0.36 0 0.64 0.36 0 0.68 0.36 0 0.72 0.36 0 0.76 0.36 0 0.8 0.36 0 0.84 0.36 0 0.88 0.36 0 0.92 0.36 0 0.96 0.36 0 1 0.36 0 1.04 0.36 0 1.08 0.36 0 1.12 0.36 0 1.16 0.36 0 1.2 0.36 0 0 0.4 0 0.04 0.4 0 0.08 0.4 0 0.12 0.4 0 0.16 0.4 0 0.2 0.4 0 0.24 0.4 0 0.28 0.4 0 0.32 0.4 0 0.36 0.4 0 0.4 0.4 0 0.44 0.4 0 0.48 0.4 0 0.52 0.4 0 0.56 0.4 0 0.6 0.4 0 0.64 0.4 0 0.68 0.4 0 0.72 0.4 0 0.76 0.4 0 0.8 0.4 0 0.84 0.4 0 0.88 0.4 0 0.92 0.4 0 0.96 0.4 0 1 0.4 0 1.04 0.4 0 1.08 0.4 0 1.12 0.4 0 1.16 0.4 0 1.2 0.4 0 0 0.44 0 0.04 0.44 0 0.08 0.44 0 0.12 0.44 0 0.16 0.44 0 0.2 0.44 0 0.24 0.44 0 0.28 0.44 0 0.32 0.44 0 0.36 0.44 0 0.4 0.44 0 0.44 0.44 0 0.48 0.44 0 0.52 0.44 0 0.56 0.44 0 0.6 0.44 0 0.64 0.44 0 0.68 0.44 0 0.72 0.44 0 0.76 0.44 0 0.8 0.44 0 0.84 0.44 0 0.88 0.44 0 0.92 0.44 0 0.96 0.44 0 1 0.44 0 1.04 0.44 0 1.08 0.44 0 1.12 0.44 0 1.16 0.44 0 1.2 0.44 0 0 0.48 0 0.04 0.48 0 0.08 0.48 0 0.12 0.48 0 0.16 0.48 0 0.2 0.48 0 0.24 0.48 0 0.28 0.48 0 0.32 0.48 0 0.36 0.48 0 0.4 0.48 0 0.44 0.48 0 0.48 0.48 0 0.52 0.48 0 0.56 0.48 0 0.6 0.48 0 0.64 0.48 0 0.68 0.48 0 0.72 0.48 0 0.76 0.48 0 0.8 0.48 0 0.84 0.48 0 0.88 0.48 0 0.92 0.48 0 0.96 0.48 0 1 0.48 0 1.04 0.48 0 1.08 0.48 0 1.12 0.48 0 1.16 0.48 0 1.2 0.48 0 0 0.52 0 0.04 0.52 0 0.08 0.52 0 0.12 0.52 0 0.16 0.52 0 0.2 0.52 0 0.24 0.52 0 0.28 0.52 0 0.32 0.52 0 0.36 0.52 0 0.4 0.52 0 0.44 0.52 0 0.48 0.52 0 0.52 0.52 0 0.56 0.52 0 0.6 0.52 0 0.64 0.52 0 0.68 0.52 0 0.72 0.52 0 0.76 0.52 0 0.8 0.52 0 0.84 0.52 0 0.88 0.52 0 0.92 0.52 0 0.96 0.52 0 1 0.52 0 1.04 0.52 0 1.08 0.52 0 1.12 0.52 0 1.16 0.52 0 1.2 0.52 0 0 0.56 0 0.04 0.56 0 0.08 0.56 0 0.12 0.56 0 0.16 0.56 0 0.2 0.56 0 0.24 0.56 0 0.28 0.56 0 0.32 0.56 0 0.36 0.56 0 0.4 0.56 0 0.44 0.56 0 0.48 0.56 0 0.52 0.56 0 0.56 0.56 0 0.6 0.56 0 0.64 0.56 0 0.68 0.56 0 0.72 0.56 0 0.76 0.56 0 0.8 0.56 0 0.84 0.56 0 0.88 0.56 0 0.92 0.56 0 0.96 0.56 0 1 0.56 0 1.04 0.56 0 1.08 0.56 0 1.12 0.56 0 1.16 0.56 0 1.2 0.56 0 0 0.6 0 0.04 0.6 0 0.08 0.6 0 0.12 0.6 0 0.16 0.6 0 0.2 0.6 0 0.24 0.6 0 0.28 0.6 0 0.32 0.6 0 0.36 0.6 0 0.4 0.6 0 0.44 0.6 0 0.48 0.6 0 0.52 0.6 0 0.56 0.6 0 0.6 0.6 0 0.64 0.6 0 0.68 0.6 0 0.72 0.6 0 0.76 0.6 0 0.8 0.6 0 0.84 0.6 0 0.88 0.6 0 0.92 0.6 0 0.96 0.6 0 1 0.6 0 1.04 0.6 0 1.08 0.6 0 1.12 0.6 0 1.16 0.6 0 1.2 0.6 0 0 0.64 0 0.04 0.64 0 0.08 0.64 0 0.12 0.64 0 0.16 0.64 0 0.2 0.64 0 0.24 0.64 0 0.28 0.64 0 0.32 0.64 0 0.36 0.64 0 0.4 0.64 0 0.44 0.64 0 0.48 0.64 0 0.52 0.64 0 0.56 0.64 0 0.6 0.64 0 0.64 0.64 0 0.68 0.64 0 0.72 0.64 0 0.76 0.64 0 0.8 0.64 0 0.84 0.64 0 0.88 0.64 0 0.92 0.64 0 0.96 0.64 0 1 0.64 0 1.04 0.64 0 1.08 0.64 0 1.12 0.64 0 1.16 0.64 0 1.2 0.64 0 0 0.68 0 0.04 0.68 0 0.08 0.68 0 0.12 0.68 0 0.16 0.68 0 0.2 0.68 0 0.24 0.68 0 0.28 0.68 0 0.32 0.68 0 0.36 0.68 0 0.4 0.68 0 0.44 0.68 0 0.48 0.68 0 0.52 0.68 0 0.56 0.68 0 0.6 0.68 0 0.64 0.68 0 0.68 0.68 0 0.72 0.68 0 0.76 0.68 0 0.8 0.68 0 0.84 0.68 0 0.88 0.68 0 0.92 0.68 0 0.96 0.68 0 1 0.68 0 1.04 0.68 0 1.08 0.68 0 1.12 0.68 0 1.16 0.68 0 1.2 0.68 0 0 0.72 0 0.04 0.72 0 0.08 0.72 0 0.12 0.72 0 0.16 0.72 0 0.2 0.72 0 0.24 0.72 0 0.28 0.72 0 0.32 0.72 0 0.36 0.72 0 0.4 0.72 0 0.44 0.72 0 0.48 0.72 0 0.52 0.72 0 0.56 0.72 0 0.6 0.72 0 0.64 0.72 0 0.68 0.72 0 0.72 0.72 0 0.76 0.72 0 0.8 0.72 0 0.84 0.72 0 0.88 0.72 0 0.92 0.72 0 0.96 0.72 0 1 0.72 0 1.04 0.72 0 1.08 0.72 0 1.12 0.72 0 1.16 0.72 0 1.2 0.72 0 0 0.76 0 0.04 0.76 0 0.08 0.76 0 0.12 0.76 0 0.16 0.76 0 0.2 0.76 0 0.24 0.76 0 0.28 0.76 0 0.32 0.76 0 0.36 0.76 0 0.4 0.76 0 0.44 0.76 0 0.48 0.76 0 0.52 0.76 0 0.56 0.76 0 0.6 0.76 0 0.64 0.76 0 0.68 0.76 0 0.72 0.76 0 0.76 0.76 0 0.8 0.76 0 0.84 0.76 0 0.88 0.76 0 0.92 0.76 0 0.96 0.76 0 1 0.76 0 1.04 0.76 0 1.08 0.76 0 1.12 0.76 0 1.16 0.76 0 1.2 0.76 0 0 0.8 0 0.04 0.8 0 0.08 0.8 0 0.12 0.8 0 0.16 0.8 0 0.2 0.8 0 0.24 0.8 0 0.28 0.8 0 0.32 0.8 0 0.36 0.8 0 0.4 0.8 0 0.44 0.8 0 0.48 0.8 0 0.52 0.8 0 0.56 0.8 0 0.6 0.8 0 0.64 0.8 0 0.68 0.8 0 0.72 0.8 0 0.76 0.8 0 0.8 0.8 0 0.84 0.8 0 0.88 0.8 0 0.92 0.8 0 0.96 0.8 0 1 0.8 0 1.04 0.8 0 1.08 0.8 0 1.12 0.8 0 1.16 0.8 0 1.2 0.8 0 0 0.84 0 0.04 0.84 0 0.08 0.84 0 0.12 0.84 0 0.16 0.84 0 0.2 0.84 0 0.24 0.84 0 0.28 0.84 0 0.32 0.84 0 0.36 0.84 0 0.4 0.84 0 0.44 0.84 0 0.48 0.84 0 0.52 0.84 0 0.56 0.84 0 0.6 0.84 0 0.64 0.84 0 0.68 0.84 0 0.72 0.84 0 0.76 0.84 0 0.8 0.84 0 0.84 0.84 0 0.88 0.84 0 0.92 0.84 0 0.96 0.84 0 1 0.84 0 1.04 0.84 0 1.08 0.84 0 1.12 0.84 0 1.16 0.84 0 1.2 0.84 0 0 0.88 0 0.04 0.88 0 0.08 0.88 0 0.12 0.88 0 0.16 0.88 0 0.2 0.88 0 0.24 0.88 0 0.28 0.88 0 0.32 0.88 0 0.36 0.88 0 0.4 0.88 0 0.44 0.88 0 0.48 0.88 0 0.52 0.88 0 0.56 0.88 0 0.6 0.88 0 0.64 0.88 0 0.68 0.88 0 0.72 0.88 0 0.76 0.88 0 0.8 0.88 0 0.84 0.88 0 0.88 0.88 0 0.92 0.88 0 0.96 0.88 0 1 0.88 0 1.04 0.88 0 1.08 0.88 0 1.12 0.88 0 1.16 0.88 0 1.2 0.88 0 0 0.92 0 0.04 0.92 0 0.08 0.92 0 0.12 0.92 0 0.16 0.92 0 0.2 0.92 0 0.24 0.92 0 0.28 0.92 0 0.32 0.92 0 0.36 0.92 0 0.4 0.92 0 0.44 0.92 0 0.48 0.92 0 0.52 0.92 0 0.56 0.92 0 0.6 0.92 0 0.64 0.92 0 0.68 0.92 0 0.72 0.92 0 0.76 0.92 0 0.8 0.92 0 0.84 0.92 0 0.88 0.92 0 0.92 0.92 0 0.96 0.92 0 1 0.92 0 1.04 0.92 0 1.08 0.92 0 1.12 0.92 0 1.16 0.92 0 1.2 0.92 0 0 0.96 0 0.04 0.96 0 0.08 0.96 0 0.12 0.96 0 0.16 0.96 0 0.2 0.96 0 0.24 0.96 0 0.28 0.96 0 0.32 0.96 0 0.36 0.96 0 0.4 0.96 0 0.44 0.96 0 0.48 0.96 0 0.52 0.96 0 0.56 0.96 0 0.6 0.96 0 0.64 0.96 0 0.68 0.96 0 0.72 0.96 0 0.76 0.96 0 0.8 0.96 0 0.84 0.96 0 0.88 0.96 0 0.92 0.96 0 0.96 0.96 0 1 0.96 0 1.04 0.96 0 1.08 0.96 0 1.12 0.96 0 1.16 0.96 0 1.2 0.96 0 0 1 0 0.04 1 0 0.08 1 0 0.12 1 0 0.16 1 0 0.2 1 0 0.24 1 0 0.28 1 0 0.32 1 0 0.36 1 0 0.4 1 0 0.44 1 0 0.48 1 0 0.52 1 0 0.56 1 0 0.6 1 0 0.64 1 0 0.68 1 0 0.72 1 0 0.76 1 0 0.8 1 0 0.84 1 0 0.88 1 0 0.92 1 0 0.96 1 0 1 1 0 1.04 1 0 1.08 1 0 1.12 1 0 1.16 1 0 1.2 1 0 0 1.04 0 0.04 1.04 0 0.08 1.04 0 0.12 1.04 0 0.16 1.04 0 0.2 1.04 0 0.24 1.04 0 0.28 1.04 0 0.32 1.04 0 0.36 1.04 0 0.4 1.04 0 0.44 1.04 0 0.48 1.04 0 0.52 1.04 0 0.56 1.04 0 0.6 1.04 0 0.64 1.04 0 0.68 1.04 0 0.72 1.04 0 0.76 1.04 0 0.8 1.04 0 0.84 1.04 0 0.88 1.04 0 0.92 1.04 0 0.96 1.04 0 1 1.04 0 1.04 1.04 0 1.08 1.04 0 1.12 1.04 0 1.16 1.04 0 1.2 1.04 0 0 1.08 0 0.04 1.08 0 0.08 1.08 0 0.12 1.08 0 0.16 1.08 0 0.2 1.08 0 0.24 1.08 0 0.28 1.08 0 0.32 1.08 0 0.36 1.08 0 0.4 1.08 0 0.44 1.08 0 0.48 1.08 0 0.52 1.08 0 0.56 1.08 0 0.6 1.08 0 0.64 1.08 0 0.68 1.08 0 0.72 1.08 0 0.76 1.08 0 0.8 1.08 0 0.84 1.08 0 0.88 1.08 0 0.92 1.08 0 0.96 1.08 0 1 1.08 0 1.04 1.08 0 1.08 1.08 0 1.12 1.08 0 1.16 1.08 0 1.2 1.08 0 0 1.12 0 
[...]
			<CellData Scalars="Density">
				<DataArray Name="Density" type="Float32" format="ascii">
 0.00498627 0.00543443 0.00652949 0.0084724 0.011409 0.0155046 0.02098 0.0280993 0.0372291 0.0487145 0.0627413 0.078797 0.0953244 0.111525 0.129521 0.15554 0.189216 0.233225 0.289589 0.359488 0.444086 0.544386 0.66076 0.792758 0.938763 1.09522 1.25597 1.40982 1.54298 1.63021 0.00543718 0.00568834 0.00647014 0.00805211 0.0106025 0.0144241 0.0197264 0.0268505 0.0361391 0.0481109 0.0630258 0.0803787 0.0987812 0.117522 0.138191 0.167086 0.204009 0.251537 0.312192 0.386633 0.476006 0.580954 0.70164 0.837531 0.986542 1.1445 1.30451 1.45508 1.58051 1.65293 0.00653917 0.00647699 0.00682043 0.0078883 0.00984325 0.0129258 0.0175734 0.02405 0.03277 0.0440484 0.0581221 0.0746061 0.0924156 0.110843 0.131033 0.156608 0.190258 0.233983 0.290868 0.361626 0.448218 0.551781 0.672457 0.81001 0.962878 1.12717 1.29585 1.45715 1.59505 1.68353 0.0084923 0.0080695 0.00789773 0.00854187 0.00996243 0.0125231 0.0165465 0.0224519 0.0304581 0.0410034 0.0542165 0.0699749 0.0877001 0.106945 0.127876 0.152417 0.185899 0.228892 0.285548 0.356264 0.443085 0.548022 0.671744 0.813318 0.970007 1.13726 1.30747 1.46973 1.60817 1.69162 0.0114392 0.0106319 0.00986495 0.00997645 0.0108518 0.012698 0.0161113 0.0214023 0.0289864 0.0390384 0.0518401 0.0674396 0.0857312 0.106076 0.128352 0.153907 0.187228 0.229867 0.287149 0.358874 0.446744 0.552412 0.676491 0.818507 0.976114 1.14503 1.31738 1.48131 1.62033 1.70428 0.0155449 0.0144644 0.0129608 0.0125498 0.012709 0.0136643 0.0160073 0.0204193 0.0271722 0.0367189 0.0490875 0.0646125 0.0831345 0.10447 0.128242 0.154038 0.18568 0.226914 0.282306 0.353078 0.440061 0.545338 0.66979 0.813242 0.973179 1.14561 1.32418 1.49572 1.64399 1.73708 0.0210288 0.0197766 0.0176163 0.0165793 0.0161308 0.0160215 0.0170869 0.0200117 0.0254874 0.0337743 0.0453048 0.0600694 0.0785376 0.100801 0.125722 0.15331 0.185237 0.226043 0.279652 0.35054 0.437974 0.544347 0.67044 0.816806 0.982125 1.16135 1.34748 1.5283 1.68522 1.77837 0.0281554 0.0269068 0.0240935 0.022484 0.0214224 0.0204406 0.0200319 0.0213244 0.0249651 0.0317969 0.0418349 0.0555802 0.0733251 0.0952423 0.121308 0.150675 0.182823 0.221977 0.273101 0.342465 0.42923 0.535739 0.664074 0.813346 0.983897 1.17299 1.37165 1.56657 1.73737 1.84115 0.0372931 0.0362007 0.0328133 0.0304849 0.0289995 0.0271898 0.0255091 0.0249671 0.0265249 0.0310746 0.0395597 0.0519798 0.0687647 0.0903184 0.116779 0.147585 0.18144 0.220327 0.269397 0.336406 0.423391 0.530375 0.660836 0.815972 0.993704 1.19294 1.40691 1.61859 1.80449 1.9105 0.0487864 0.0481805 0.0440946 0.0410252 0.039047 0.0367258 0.0337866 0.0317922 0.0310745 0.0330174 0.0388186 0.0495175 0.064908 0.0855982 0.112266 0.144604 0.180377 0.219589 0.26689 0.330731 0.417013 0.524647 0.656505 0.816061 1.00327 1.21406 1.44365 1.67415 1.8804 1.99525 0.0628165 0.0631035 0.0581694 0.0542396 0.0518451 0.0490748 0.0453001 0.0418153 0.0395456 0.0388119 0.0414613 0.0490021 0.0627578 0.0821749 0.108666 0.141382 0.179671 0.220501 0.266949 0.326765 0.410818 0.520009 0.654907 0.818536 1.01423 1.24007 1.48767 1.73892 1.96628 2.08778 0.0788643 0.080452 0.0746513 0.0700039 0.0674316 0.0645885 0.0600537 0.0555336 0.0519385 0.04948 0.0489748 0.0525004 0.0625564 0.0806417 0.106183 0.139674 0.179516 0.223059 0.269702 0.327325 0.407749 0.516758 0.654051 0.82349 1.02671 1.26639 1.53474 1.81057 2.0626 2.19424 0.0953643 0.0988303 0.0924548 0.0877097 0.0857193 0.0831096 0.0784898 0.0732593 0.0686827 0.0648461 0.0627096 0.0625519 0.0675411 0.0810567 0.10541 0.139536 0.180659 0.227902 0.276427 0.331632 0.407292 0.514477 0.653397 0.828293 1.04198 1.29433 1.58298 1.88606 2.1682 2.31288 0.111528 0.117545 0.110843 0.106928 0.10608 0.104396 0.100763 0.0951531 0.0902199 0.0855108 0.0820881 0.0805908 0.0810264 0.0887195 0.107093 0.13977 0.184855 0.234029 0.286298 0.340865 0.411417 0.516522 0.65692 0.834877 1.05776 1.32581 1.63491 1.96588 2.28111 2.44942 0.129508 0.138186 0.131031 0.127863 0.128319 0.128156 0.125721 0.121226 0.116743 0.112124 0.108545 0.106113 0.105309 0.107051 0.118734 0.143937 0.188175 0.243255 0.301616 0.357828 0.423104 0.521323 0.661353 0.84244 1.07272 1.35689 1.68937 2.0536 2.40404 2.60812 0.155529 0.167086 0.156589 0.152332 0.153855 0.153944 0.153195 0.150587 0.147465 0.144519 0.14127 0.139543 0.139417 0.139626 0.143871 0.161495 0.196384 0.253217 0.319536 0.381874 0.443919 0.531966 0.669782 0.854808 1.0904 1.38864 1.74651 2.14814 2.53874 2.78844 0.189197 0.203987 0.190209 0.185807 0.187185 0.185507 0.185054 0.182724 0.181235 0.180301 0.179399 0.179416 0.180469 0.184718 0.188006 0.196309 0.22124 0.269184 0.337786 0.414407 0.479952 0.555178 0.682639 0.867557 1.10912 1.4191 1.80339 2.24758 2.68663 2.98629 0.2332 0.251505 0.233935 0.228795 0.229776 0.226698 0.225873 0.221814 0.220139 0.219544 0.220176 0.222879 0.227594 0.233904 0.243002 0.252998 0.269056 0.305507 0.367069 0.445937 0.527701 0.597883 0.705416 0.885873 1.13276 1.45318 1.8609 2.35141 2.85149 3.20768 0.289546 0.312138 0.290803 0.285421 0.287042 0.2821 0.279458 0.272922 0.269202 0.266631 0.266644 0.269598 0.276051 0.286083 0.301357 0.319511 0.337461 0.366874 0.417472 0.49109 0.581832 0.663681 0.750452 0.912709 1.15764 1.48785 1.91766 2.45698 3.03302 3.46187 0.359417 0.386551 0.361538 0.356105 0.358752 0.352843 0.350291 0.342261 0.336147 0.330486 0.326584 0.327011 0.331216 0.340546 0.357613 0.38165 0.414062 0.446134 0.491162 0.558867 0.646364 0.742746 0.830985 0.960529 1.19478 1.5316 1.97937 2.56707 3.22748 3.74649 0.443979 0.475892 0.448106 0.442893 0.446594 0.439802 0.437693 0.428986 0.42312 0.416748 0.410541 0.407595 0.407132 0.410921 0.422888 0.443441 0.479846 0.527477 0.581574 0.646325 0.734879 0.835386 0.936194 1.04874 1.24919 1.58071 2.04511 2.67885 3.43143 4.06323 0.544238 0.580803 0.551643 0.547792 0.552224 0.545037 0.544063 0.535446 0.530066 0.524434 0.519601 0.516388 0.514494 0.516435 0.520891 0.53147 0.55552 0.59748 0.663603 0.74262 0.835456 0.945373 1.06346 1.17822 1.34529 1.65972 2.13026 2.80243 3.6498 4.42068 0.660569 0.701443 0.672293 0.67148 0.676269 0.669428 0.670128 0.663776 0.660425 0.656386 0.654839 0.653593 0.65293 0.65691 0.661274 0.6692 0.682451 0.705184 0.751034 0.830778 0.936097 1.06305 1.20239 1.34321 1.49547 1.77309 2.245 2.94048 3.89009 4.82308 0.792525 0.837289 0.809808 0.813032 0.818279 0.81287 0.816423 0.813115 0.815585 0.815527 0.818338 0.823503 0.82775 0.834604 0.842513 0.854766 0.867227 0.884949 0.912623 0.960571 1.04924 1.17818 1.34334 1.52495 1.70825 1.93889 2.3942 3.11842 4.17027 5.27598 0.938489 0.986261 0.962621 0.969647 0.97583 0.972896 0.981714 0.983539 0.9936 1.00302 1.01359 1.0268 1.04204 1.05736 1.07202 1.09054 1.10947 1.13251 1.15716 1.19421 1.24927 1.34531 1.49579 1.70831 1.95332 2.2001 2.60652 3.35482 4.5235 5.80327 1.09491 1.1442 1.12691 1.13688 1.14458 1.14529 1.16112 1.17254 1.19242 1.21411 1.24 1.26588 1.29457 1.32643 1.35656 1.38848 1.41856 1.45338 1.48822 1.5314 1.58058 1.65901 1.77294 1.93927 2.20051 2.54632 2.95578 3.64096 4.89604 6.41295 1.25561 1.30417 1.29548 1.30719 1.31694 1.32376 1.3473 1.37157 1.40637 1.44328 1.48765 1.53395 1.58254 1.63537 1.68947 1.74721 1.80293 1.86063 1.91708 1.97946 2.04594 2.13002 2.24523 2.39404 2.6068 2.95601 3.42027 4.19721 5.4737 7.15649 1.40944 1.45476 1.45671 1.46941 1.48085 1.49535 1.52807 1.56649 1.61786 1.67362 1.73965 1.81048 1.88534 1.96638 2.05388 2.14909 2.24792 2.35206 2.4567 2.56666 2.6792 2.80238 2.94103 3.11847 3.3552 3.64121 4.19742 4.57995 6.22157 8.51229 1.54248 1.58009 1.5945 1.60778 1.61989 1.64368 1.68481 1.73726 1.80402 1.8798 1.96642 2.06232 2.16757 2.28118 2.40315 2.53854 2.68804 2.85326 3.03291 3.22748 3.43211 3.64942 3.8905 4.17105 4.5241 4.89654 5.47424 6.22192 7.22071 11.5338 1.6297 1.65255 1.68299 1.69123 1.70375 1.73685 1.77802 1.84092 1.90973 1.99481 2.08807 2.19346 2.31225 2.44979 2.60736 2.78717 2.98687 3.20864 3.46134 3.74807 4.06495 4.41898 4.82443 5.27912 5.80149 6.41401 7.15929 8.51247 11.5327 11.1186
				</DataArray>
				<DataArray Name="Energy" type="Float32" format="ascii">
 899.951 825.65 687.033 529.068 392.657 288.395 212.658 158.096 118.523 89.2872 67.2901 50.535 37.7925 28.3522 21.6621 17.0998 13.7406 11.2194 9.2688 7.72622 6.49406 5.50635 4.71259 4.07316 3.55642 3.13744 2.7978 2.5239 2.31043 2.17163 825.247 788.806 692.974 556.779 422.082 310.066 225.991 165.505 121.978 90.3552 67.0601 49.6782 36.7309 27.2895 20.6199 16.1149 12.8366 10.41 8.56874 7.13339 6.00332 5.10703 4.3928 3.82159 3.3624 2.99186 2.69321 2.45384 2.26529 2.12756 686.027 692.261 657.448 567.499 454.87 345.378 253.656 184.365 134.522 98.7086 72.7401 53.7181 39.7703 29.6643 22.4961 17.5082 13.9378 11.2978 9.28935 7.71163 6.46074 5.46159 4.65888 4.01306 3.49331 3.07531 2.73983 2.47183 2.26329 2.12752 527.845 555.59 566.834 524.263 448.336 356.53 268.77 197.45 144.246 105.869 78.0465 57.6856 42.6926 31.8143 23.9843 18.4364 14.5558 11.7008 9.55533 7.87997 6.56089 5.51856 4.69114 4.03223 3.50594 3.08514 2.74873 2.48199 2.27782 2.13634 391.635 420.93 453.88 447.709 411.559 350.472 275.818 206.43 151.515 110.893 81.6033 60.2387 44.648 33.2444 24.9306 18.9938 14.8417 11.8333 9.62857 7.9269 6.59614 5.5481 4.71772 4.05764 3.53122 3.11038 2.77346 2.50537 2.29781 2.15305 287.658 309.218 344.447 355.775 350.17 325.458 276.432 216.02 160.968 118.029 86.4303 63.6298 47.1193 35.0574 26.302 19.9409 15.456 12.26 9.94303 8.17483 6.79082 5.70055 4.83599 4.14876 3.6002 3.16151 2.81037 2.52973 2.31198 2.1636 212.163 225.426 253.036 268.242 275.481 276.192 258.512 219.344 171.303 127.701 93.9496 69.0586 51.0079 37.8784 28.2516 21.2476 16.2787 12.7722 10.2596 8.39388 6.94294 5.80943 4.91408 4.203 3.63689 3.18366 2.82078 2.53268 2.31196 2.15769 157.786 165.153 184.029 197.175 206.242 215.79 219.13 205.236 174.065 135.931 101.753 75.3484 55.8437 41.4533 30.87 23.1283 17.5279 13.5738 10.7877 8.77396 7.22259 6.01182 5.06123 4.30541 3.70371 3.22444 2.84128 2.53715 2.30493 2.14718 118.332 121.758 134.343 144.123 151.446 160.868 171.146 174.052 163.321 138.343 108.07 81.3757 60.6743 45.2771 33.7896 25.2422 18.9662 14.5081 11.3732 9.16076 7.50378 6.20974 5.19545 4.39525 3.75693 3.24925 2.84716 2.53071 2.29354 2.13059 89.1684 90.2171 98.6108 105.816 110.872 118.012 127.647 135.953 138.352 130.166 110.215 86.3104 65.3964 49.1532 36.9025 27.6477 20.6846 15.6479 12.0989 9.62858 7.83353 6.44716 5.35943 4.5029 3.82523 3.28535 2.85968 2.52733 2.28203 2.11483 67.2142 66.9724 72.6843 78.0174 81.6023 86.4474 93.958 101.813 108.11 110.236 103.744 87.8879 68.9893 52.6387 39.9514 30.104 22.5741 16.9402 12.9325 10.1472 8.18136 6.69598 5.53624 4.61946 3.89551 3.32391 2.87413 2.52574 2.27306 2.10075 50.4834 49.6202 53.6788 57.67 60.2413 63.6444 69.0867 75.4067 81.439 86.3664 87.9321 82.8494 70.4715 55.417 42.636 32.5326 24.5614 18.4112 13.9006 10.7539 8.58034 6.97605 5.73036 4.75352 3.97952 3.37127 2.89676 2.53134 2.26836 2.09008 37.7564 36.6915 39.7456 42.6817 44.6419 47.1405 51.0273 55.8987 60.738 65.4604 69.0397 70.4818 66.4549 56.7699 44.7861 34.6452 26.462 19.9676 15.001 11.4426 9.00359 7.26936 5.93755 4.89574 4.07496 3.42615 2.92381 2.54061 2.26754 2.08278 28.3267 27.2636 29.6443 31.8027 33.2426 35.0726 37.8813 41.4802 45.3233 49.2128 52.6979 55.4471 56.7992 53.4487 45.9073 36.3931 28.1499 21.4814 16.1831 12.2285 9.48054 7.59095 6.17101 5.05653 4.1827 3.49425 2.9599 2.55567 2.2699 2.07952 21.6464 20.6036 22.4836 23.9792 24.9264 26.3081 28.2559 30.8832 33.8247 36.9341 39.9993 42.6793 44.8298 45.9362 43.0747 37.1915 29.6921 22.8001 17.4024 13.1167 10.0269 7.92902 6.41172 5.22986 4.30086 3.57141 3.00391 2.57634 2.27414 2.07835 17.0908 16.1062 17.5014 18.4316 18.9893 19.9472 21.2516 23.1342 25.2562 27.668 30.1397 32.558 34.6842 36.424 37.2129 34.788 30.1904 24.2736 18.4647 14.0492 10.6516 8.2951 6.66648 5.42107 4.43463 3.66007 3.05737 2.60272 2.28119 2.07939 13.7352 12.8316 13.9333 14.554 14.8401 15.459 16.2791 17.5286 18.9716 20.6934 22.5893 24.5793 26.4798 28.1737 29.7137 30.2068 28.1663 24.5468 19.7189 14.9258 11.3583 8.71431 6.92763 5.61301 4.57801 3.75796 3.11864 2.63435 2.29196 2.08168 11.2162 10.4072 11.2954 11.7005 11.8315 12.2621 12.7753 13.5744 14.5123 15.6553 16.9453 18.4188 19.9745 21.4958 22.8089 24.2881 24.5559 22.9315 19.9755 15.9451 12.0402 9.2063 7.20273 5.81003 4.73099 3.8666 3.18766 2.67097 2.30604 2.08366 9.26683 8.5672 9.28775 9.5555 9.62728 9.94521 10.2624 10.7889 11.377 12.1005 12.933 13.9067 15.0045 16.1898 17.4064 18.4773 19.727 19.9791 18.6735 16.1945 12.8631 9.72598 7.5209 6.00467 4.87793 3.97885 3.26289 2.71154 2.32198 2.08575 7.7249 7.1325 7.71045 7.88019 7.92603 8.17651 8.39556 8.7751 9.16302 9.63079 10.1491 10.7541 11.4442 12.2318 13.1187 14.0525 14.9277 15.95 16.1936 15.174 13.1173 10.3405 7.88905 6.20764 5.02417 4.09625 3.34473 2.7573 2.34033 2.09125 6.4931 6.00276 6.45981 6.56099 6.59539 6.79197 6.94409 7.22351 7.50533 7.83465 8.18292 8.58186 9.00549 9.48154 10.0302 10.6516 11.3603 12.042 12.8619 13.1162 12.3097 10.6104 8.31977 6.44252 5.15962 4.20149 3.4255 2.80513 2.35926 2.09722 5.5056 5.10662 5.46082 5.51853 5.5475 5.70116 5.81009 6.01233 6.211 6.44764 6.69599 6.97699 7.27145 7.59254 7.92973 8.29504 8.71768 9.20542 9.72686 10.3405 10.6104 9.95056 8.5591 6.72633 5.2976 4.30279 3.50644 2.8564 2.37909 2.10226 4.71195 4.39245 4.65823 4.69097 4.7172 4.83619 4.91439 5.06131 5.19601 5.36021 5.53659 5.73006 5.93785 6.17248 6.41243 6.66526 6.92853 7.20308 7.52321 7.88788 8.31946 8.55853 8.03328 6.90744 5.46632 4.38339 3.57614 2.9052 2.40164 2.10992 4.07258 3.82125 4.0125 4.03202 4.0572 4.14868 4.20294 4.30546 4.39523 4.50253 4.61977 4.7537 4.895 5.05688 5.23057 5.42111 5.61332 5.80871 6.00476 6.20755 6.44353 6.72694 6.90807 6.48371 5.57728 4.47086 3.62062 2.95227 2.42774 2.11795 3.55587 3.36207 3.49281 3.50565 3.53084 3.60006 3.63656 3.7034 3.75713 3.82497 3.89492 3.97981 4.07471 4.18188 4.29996 4.4354 4.57936 4.73079 4.87768 5.02328 5.15954 5.29717 5.46657 5.57706 5.23606 4.5091 3.66745 2.9889 2.45525 2.12399 3.13692 2.99153 3.0749 3.08483 3.10992 3.16121 3.18332 3.2238 3.24891 3.28524 3.32367 3.37063 3.42624 3.49439 3.57063 3.65989 3.75743 3.86665 3.97972 4.09611 4.20159 4.30225 4.38331 4.47116 4.50933 4.23339 3.67217 3.01931 2.45599 2.12577 2.79729 2.69286 2.73944 2.74851 2.7731 2.80983 2.82036 2.84079 2.84686 2.85923 2.87367 2.89594 2.92325 2.95971 3.00367 3.05782 3.11801 3.18709 3.2624 3.3444 3.42614 3.50644 3.57614 3.62044 3.66732 3.67212 3.43151 3.00013 2.48086 2.12634 2.52344 2.45352 2.47148 2.48174 2.50508 2.5291 2.53214 2.53653 2.53044 2.52683 2.52544 2.53119 2.5401 2.55523 2.57617 2.60332 2.63415 2.67073 2.71127 2.75672 2.80493 2.85618 2.90519 2.95217 2.98879 3.01908 3.00003 2.82005 2.44196 2.17975 2.30996 2.26489 2.26295 2.27748 2.29755 2.31135 2.31133 2.30425 2.29358 2.28155 2.27221 2.2685 2.26734 2.26912 2.27391 2.28169 2.29166 2.30569 2.32224 2.33979 2.35874 2.3791 2.40149 2.4273 2.45518 2.45578 2.48071 2.44182 2.34989 2.18558 2.17119 2.12714 2.1272 2.13598 2.15278 2.163 2.15718 2.1465 2.13069 2.11445 2.09982 2.09024 2.08261 2.07872 2.07864 2.07988 2.08043 2.08287 2.08677 2.09062 2.09661 2.10319 2.10951 2.11711 2.12456 2.12546 2.12567 2.17976 2.18575 1.99192
				</DataArray>
				<DataArray Name="F1" type="Float32" format="ascii">
 1 1 1 1 1 1 1 1 1 1 1 1 1 1 1 1 1 1 1 1 1 1 1 1 1 1 1 1 1 1 1 1 1 1 1 1 1 1 1 1 1 1 1 1 1 1 1 1 1 1 1 1 1 1 1 1 1 1 1 1 1 1 1 1 1 1 1 1 1 1 1 1 1 1 1 1 1 1 1 1 1 1 1 1 1 1 1 1 1 1 1 1 1 1 1 1 1 1 1 1 1 1 1 1 1 1 1 1 1 1 1 1 1 1 1 1 1 1 1 1 1 1 1 1 1 1 1 1 1 1 1 1 1 1 1 1 1 1 1 1 1 1 1 1 1 1 1 1 1 1 1 1 1 1 1 1 1 1 1 1 1 1 1 1 1 1 1 1 1 1 1 1 1 1 1 1 1 1 1 1 1 1 1 1 1 1 1 1 1 1 1 1 1 1 1 1 1 1 1 1 1 1 1 1 1 1 1 1 1 1 1 1 1 1 1 1 1 1 1 1 1 1 1 1 1 1 1 1 1 1 1 1 1 1 1 1 1 1 1 1 1 1 1 1 1 1 1 1 1 1 1 1 1 1 1 1 1 1 1 1 1 1 1 1 1 1 1 1 1 1 1 1 1 1 1 1 1 1 1 1 1 1 1 1 1 1 1 1 1 1 1 1 1 1 1 1 1 1 1 1 1 1 1 1 1 1 1 1 1 1 1 1 1 1 1 1 1 1 1 1 1 1 1 1 1 1 1 1 1 1 1 1 1 1 1 1 1 1 1 1 1 1 1 1 1 1 1 1 1 1 1 1 1 1 1 1 1 1 1 1 1 1 1 1 1 1 1 1 1 1 1 1 1 1 1 1 1 1 1 1 1 1 1 1 1 1 1 1 1 1 1 1 1 1 1 1 1 1 1 1 1 1 1 1 1 1 1 1 1 1 1 1 1 1 1 1 1 1 1 1 1 1 1 1 1 1 1 1 1 1 1 1 1 1 1 1 1 1 1 1 1 1 1 1 1 1 1 1 1 1 1 1 1 1 1 1 1 1 1 1 1 1 1 1 1 1 1 1 1 1 1 1 1 1 1 1 1 1 1 1 1 1 1 1 1 1 1 1 1 1 1 1 1 1 1 1 1 1 1 1 1 1 1 1 1 1 1 1 1 1 1 1 1 1 1 1 1 1 1 1 1 1 1 1 1 1 1 1 1 1 1 1 1 1 1 1 1 1 1 1 1 1 1 1 1 1 1 1 1 1 1 1 1 1 1 1 1 1 1 1 1 1 1 1 1 1 1 1 1 1 1 1 1 1 1 1 1 1 1 1 1 1 1 1 1 1 1 1 1 1 1 1 1 1 1 1 1 1 1 1 1 1 1 1 1 1 1 1 1 1 1 1 1 1 1 1 1 1 1 1 1 1 1 1 1 1 1 1 1 1 1 1 1 1 1 1 1 1 1 1 1 1 1 1 1 1 1 1 1 1 1 1 1 1 1 1 1 1 1 1 1 1 1 1 1 1 1 1 1 1 1 1 1 1 1 1 1 1 1 1 1 1 1 1 1 1 1 1 1 1 1 1 1 1 1 1 1 1 1 1 1 1 1 1 1 1 1 1 1 1 1 1 1 1 1 1 1 1 1 1 1 1 1 1 1 1 1 1 1 1 1 1 1 1 1 1 1 1 1 1 1 1 1 1 1 1 1 1 1 1 1 1 1 1 1 1 1 1 1 1 1 1 1 1 1 1 1 1 1 1 1 1 1 1 1 1 1 1 1 1 1 1 1 1 1 1 1 1 1 1 1 1 1 1 1 1 1 1 1 1 1 1 1 1 1 1 1 1 1 1 1 1 1 1 1 1 1 1 1 1 1 1 1 1 1 1 1 1 1 1 1 1 1 1 1 1 1 1 1 1 1 1 1 1 1 1 1 1 1 1 1 1 1 1 1 1 1 1 1 1 1 1 1 1 1 1 1 1 1 1 1 1 1 1 1 1 1 1 1 1 1 1 1 1 1 1 1 1 1 1 1 1 1 1 1 1 1 1 1 1
				</DataArray>
				<DataArray Name="F2" type="Float32" format="ascii">
 0 0 0 0 0 0 0 0 0 0 0 0 0 0 0 0 0 0 0 0 0 0 0 0 0 0 0 0 0 0 0 0 0 0 0 0 0 0 0 0 0 0 0 0 0 0 0 0 0 0 0 0 0 0 0 0 0 0 0 0 0 0 0 0 0 0 0 0 0 0 0 0 0 0 0 0 0 0 0 0 0 0 0 0 0 0 0 0 0 0 0 0 0 0 0 0 0 0 0 0 0 0 0 0 0 0 0 0 0 0 0 0 0 0 0 0 0 0 0 0 0 0 0 0 0 0 0 0 0 0 0 0 0 0 0 0 0 0 0 0 0 0 0 0 0 0 0 0 0 0 0 0 0 0 0 0 0 0 0 0 0 0 0 0 0 0 0 0 0 0 0 0 0 0 0 0 0 0 0 0 0 0 0 0 0 0 0 0 0 0 0 0 0 0 0 0 0 0 0 0 0 0 0 0 0 0 0 0 0 0 0 0 0 0 0 0 0 0 0 0 0 0 0 0 0 0 0 0 0 0 0 0 0 0 0 0 0 0 0 0 0 0 0 0 0 0 0 0 0 0 0 0 0 0 0 0 0 0 0 0 0 0 0 0 0 0 0 0 0 0 0 0 0 0 0 0 0 0 0 0 0 0 0 0 0 0 0 0 0 0 0 0 0 0 0 0 0 0 0 0 0 0 0 0 0 0 0 0 0 0 0 0 0 0 0 0 0 0 0 0 0 0 0 0 0 0 0 0 0 0 0 0 0 0 0 0 0 0 0 0 0 0 0 0 0 0 0 0 0 0 0 0 0 0 0 0 0 0 0 0 0 0 0 0 0 0 0 0 0 0 0 0 0 0 0 0 0 0 0 0 0 0 0 0 0 0 0 0 0 0 0 0 0 0 0 0 0 0 0 0 0 0 0 0 0 0 0 0 0 0 0 0 0 0 0 0 0 0 0 0 0 0 0 0 0 0 0 0 0 0 0 0 0 0 0 0 0 0 0 0 0 0 0 0 0 0 0 0 0 0 0 0 0 0 0 0 0 0 0 0 0 0 0 0 0 0 0 0 0 0 0 0 0 0 0 0 0 0 0 0 0 0 0 0 0 0 0 0 0 0 0 0 0 0 0 0 0 0 0 0 0 0 0 0 0 0 0 0 0 0 0 0 0 0 0 0 0 0 0 0 0 0 0 0 0 0 0 0 0 0 0 0 0 0 0 0 0 0 0 0 0 0 0 0 0 0 0 0 0 0 0 0 0 0 0 0 0 0 0 0 0 0 0 0 0 0 0 0 0 0 0 0 0 0 0 0 0 0 0 0 0 0 0 0 0 0 0 0 0 0 0 0 0 0 0 0 0 0 0 0 0 0 0 0 0 0 0 0 0 0 0 0 0 0 0 0 0 0 0 0 0 0 0 0 0 0 0 0 0 0 0 0 0 0 0 0 0 0 0 0 0 0 0 0 0 0 0 0 0 0 0 0 0 0 0 0 0 0 0 0 0 0 0 0 0 0 0 0 0 0 0 0 0 0 0 0 0 0 0 0 0 0 0 0 0 0 0 0 0 0 0 0 0 0 0 0 0 0 0 0 0 0 0 0 0 0 0 0 0 0 0 0 0 0 0 0 0 0 0 0 0 0 0 0 0 0 0 0 0 0 0 0 0 0 0 0 0 0 0 0 0 0 0 0 0 0 0 0 0 0 0 0 0 0 0 0 0 0 0 0 0 0 0 0 0 0 0 0 0 0 0 0 0 0 0 0 0 0 0 0 0 0 0 0 0 0 0 0 0 0 0 0 0 0 0 0 0 0 0 0 0 0 0 0 0 0 0 0 0 0 0 0 0 0 0 0 0 0 0 0 0 0 0 0 0 0 0 0 0 0 0 0 0 0 0 0 0 0 0 0 0 0 0 0 0 0 0 0 0 0 0 0 0 0 0 0 0 0 0 0 0 0 0 0 0 0 0 0 0 0 0 0 0 0 0 0 0 0 0 0 0 0 0 0 0 0 0 0 0 0 0 0 0 0 0 0 0 0 0 0
				</DataArray>
				<DataArray Name="F3" type="Float32" format="ascii">