<?xml version="1.0"?>
<VTKFile type="PolyData">
	<PolyData>
		<Piece NumberOfPoints="961" NumberOfPolys="900">
			<Points>
				<DataArray type="Float32" NumberOfComponents="3" format="ascii">
 0 0 0 0.04 0 0 0.08 0 0 0.12 0 0 0.16 0 0 0.2 0 0 0.24 0 0 0.28 0 0 0.32 0 0 0.36 0 0 0.4 0 0 0.44 0 0 0.48 0 0 0.52 0 0 0.56 0 0 0.6 0 0 0.64 0 0 0.68 0 0 0.72 0 0 0.76 0 0 0.8 0 0 0.84 0 0 0.88 0 0 0.92 0 0 0.96 0 0 1 0 0 1.04 0 0 1.08 0 0 1.12 0 0 1.16 0 0 1.2 0 0 0 0.04 0 0.04 0.04 0 0.08 0.04 0 0.12 0.04 0 0.16 0.04 0 0.2 0.04 0 0.24 0.04 0 0.28 0.04 0 0.32 0.04 0 0.36 0.04 0 0.4 0.04 0 0.44 0.04 0 0.48 0.04 0 0.52 0.04 0 0.56 0.04 0 0.6 0.04 0 0.64 0.04 0 0.68 0.04 0 0.72 0.04 0 0.76 0.04 0 0.8 0.04 0 0.84 0.04 0 0.88 0.04 0 0.92 0.04 0 0.96 0.04 0 1 0.04 0 1.04 0.04 0 1.08 0.04 0 1.12 0.04 0 1.16 0.04 0 1.2 0.04 0 0 0.08 0 0.04 0.08 0 0.08 0.08 0 0.12 0.08 0 0.16 0.08 0 0.2 0.08 0 0.24 0.08 0 0.28 0.08 0 0.32 0.08 0 0.36 0.08 0 0.4 0.08 0 0.44 0.08 0 0.48 0.08 0 0.52 0.08 0 0.56 0.08 0 0.6 0.08 0 0.64 0.08 0 0.68 0.08 0 0.72 0.08 0 0.76 0.08 0 0.8 0.08 0 0.84 0.08 0 0.88 0.08 0 0.92 0.08 0 0.96 0.08 0 1 0.08 0 1.04 0.08 0 1.08 0.08 0 1.12 0.08 0 1.16 0.08 0 1.2 0.08 0 0 0.12 0 0.04 0.12 0 0.08 0.12 0 0.12 0.12 0 0.16 0.12 0 0.2 0.12 0 0.24 0.12 0 0.28 0.12 0 0.32 0.12 0 0.36 0.12 0 0.4 0.12 0 0.44 0.12 0 0.48 0.12 0 0.52 0.12 0 0.56 0.12 0 0.6 0.12 0 0.64 0.12 0 0.68 0.12 0 0.72 0.12 0 0.76 0.12 0 0.8 0.12 0 0.84 0.12 0 0.88 0.12 0 0.92 0.12 0 0.96 0.12 0 1 0.12 0 1.04 0.12 0 1.08 0.12 0 1.12 0.12 0 1.16 0.12 0 1.2 0.12 0 0 0.16 0 0.04 0.16 0 0.08 0.16 0 0.12 0.16 0 0.16 0.16 0 0.2 0.16 0 0.24 0.16 0 0.28 0.16 0 0.32 0.16 0 0.36 0.16 0 0.4 0.16 0 0.44 0.16 0 0.48 0.16 0 0.52 0.16 0 0.56 0.16 0 0.6 0.16 0 0.64 0.16 0 0.68 0.16 0 0.72 0.16 0 0.76 0.16 0 0.8 0.16 0 0.84 0.16 0 0.88 0.16 0 0.92 0.16 0 0.96 0.16 0 1 0.16 0 1.04 0.16 0 1.08 0.16 0 1.12 0.16 0 1.16 0.16 0 1.2 0.16 0 0 0.2 0 0.04 0.2 0 0.08 0.2 0 0.12 0.2 0 0.16 0.2 0 0.2 0.2 0 0.24 0.2 0 0.28 0.2 0 0.32 0.2 0 0.36 0.2 0 0.4 0.2 0 0.44 0.2 0 0.48 0.2 0 0.52 0.2 0 0.56 0.2 0 0.6 0.2 0 0.64 0.2 0 0.68 0.2 0 0.72 0.2 0 0.76 0.2 0 0.8 0.2 0 0.84 0.2 0 0.88 0.2 0 0.92 0.2 0 0.96 0.2 0 1 0.2 0 1.04 0.2 0 1.08 0.2 0 1.12 0.2 0 1.16 0.2 0 1.2 0.2 0 0 0.24 0 0.04 0.24 0 0.08 0.24 0 0.12 0.24 0 0.16 0.24 0 0.2 0.24 0 0.24 0.24 0 0.28 0.24 0 0.32 0.24 0 0.36 0.24 0 0.4 0.24 0 0.44 0.24 0 0.48 0.24 0 0.52 0.24 0 0.56 0.24 0 0.6 0.24 0 0.64 0.24 0 0.68 0.24 0 0.72 0.24 0 0.76 0.24 0 0.8 0.24 0 0.84 0.24 0 0.88 0.24 0 0.92 0.24 0 0.96 0.24 0 1 0.24 0 1.04 0.24 0 1.08 0.24 0 1.12 0.24 0 1.16 0.24 0 1.2 0.24 0 0 0.28 0 0.04 0.28 0 0.08 0.28 0 0.12 0.28 0 0.16 0.28 0 0.2 0.28 0 0.24 0.28 0 0.28 0.28 0 0.32 0.28 0 0.36 0.28 0 0.4 0.28 0 0.44 0.28 0 0.48 0.28 0 0.52 0.28 0 0.56 0.28 0 0.6 0.28 0 0.64 0.28 0 0.68 0.28 0 0.72 0.28 0 0.76 0.28 0 0.8 0.28 0 0.84 0.28 0 0.88 0.28 0 0.92 0.28 0 0.96 0.28 0 1 0.28 0 1.04 0.28 0 1.08 0.28 0 1.12 0.28 0 1.16 0.28 0 1.2 0.28 0 0 0.32 0 0.04 0.32 0 0.08 0.32 0 0.12 0.32 0 0.16 0.32 0 0.2 0.32 0 0.24 0.32 0 0.28 0.32 0 0.32 0.32 0 0.36 0.32 0 0.4 0.32 0 0.44 0.32 0 0.48 0.32 0 0.52 0.32 0 0.56 0.32 0 0.6 0.32 0 0.64 0.32 0 0.68 0.32 0 0.72 0.32 0 0.76 0.32 0 0.8 0.32 0 0.84 0.32 0 0.88 0.32 0 0.92 0.32 0 0.96 0.32 0 1 0.32 0 1.04 0.32 0 1.08 0.32 0 1.12 0.32 0 1.16 0.32 0 1.2 0.32 0 0 0.36 0 0.04 0.36 0 0.08 0.36 0 0.12 0.36 0 0.16 0.36 0 0.2 0.36 0 0.24 0.36 0 0.28 0.36 0 0.32 0.36 0 0.36 0.36 0 0.4 0.36 0 0.44 0.36 0 0.48 0.36 0 0.52 0.36 0 0.56 0.36 0 0.6 0.36 0 0.64 0.36 0 0.68 0.36 0 0.72 0.36 0 0.76 0.36 0 0.8 0.36 0 0.84 0.36 0 0.88 0.36 0 0.92 0.36 0 0.96 0.36 0 1 0.36 0 1.04 0.36 0 1.08 0.36 0 1.12 0.36 0 1.16 0.36 0 1.2 0.36 0 0 0.4 0 0.04 0.4 0 0.08 0.4 0 0.12 0.4 0 0.16 0.4 0 0.2 0.4 0 0.24 0.4 0 0.28 0.4 0 0.32 0.4 0 0.36 0.4 0 0.4 0.4 0 0.44 0.4 0 0.48 0.4 0 0.52 0.4 0 0.56 0.4 0 0.6 0.4 0 0.64 0.4 0 0.68 0.4 0 0.72 0.4 0 0.76 0.4 0 0.8 0.4 0 0.84 0.4 0 0.88 0.4 0 0.92 0.4 0 0.96 0.4 0 1 0.4 0 1.04 0.4 0 1.08 0.4 0 1.12 0.4 0 1.16 0.4 0 1.2 0.4 0 0 0.44 0 0.04 0.44 0 0.08 0.44 0 0.12 0.44 0 0.16 0.44 0 0.2 0.44 0 0.24 0.44 0 0.28 0.44 0 0.32 0.44 0 0.36 0.44 0 0.4 0.44 0 0.44 0.44 0 0.48 0.44 0 0.52 0.44 0 0.56 0.44 0 0.6 0.44 0 0.64 0.44 0 0.68 0.44 0 0.72 0.44 0 0.76 0.44 0 0.8 0.44 0 0.84 0.44 0 0.88 0.44 0 0.92 0.44 0 0.96 0.44 0 1 0.44 0 1.04 0.44 0 1.08 0.44 0 1.12 0.44 0 1.16 0.44 0 1.2 0.44 0 0 0.48 0 0.04 0.48 0 0.08 0.48 0 0.12 0.48 0 0.16 0.48 0 0.2 0.48 0 0.24 0.48 0 0.28 0.48 0 0.32 0.48 0 0.36 0.48 0 0.4 0.48 0 0.44 0.48 0 0.48 0.48 0 0.52 0.48 0 0.56 0.48 0 0.6 0.48 0 0.64 0.48 0 0.68 0.48 0 0.72 0.48 0 0.76 0.48 0 0.8 0.48 0 0.84 0.48 0 0.88 0.48 0 0.92 0.48 0 0.96 0.48 0 1 0.48 0 1.04 0.48 0 1.08 0.48 0 1.12 0.48 0 1.16 0.48 0 1.2 0.48 0 0 0.52 0 0.04 0.52 0 0.08 0.52 0 0.12 0.52 0 0.16 0.52 0 0.2 0.52 0 0.24 0.52 0 0.28 0.52 0 0.32 0.52 0 0.36 0.52 0 0.4 0.52 0 0.44 0.52 0 0.48 0.52 0 0.52 0.52 0 0.56 0.52 0 0.6 0.52 0 0.64 0.52 0 0.68 0.52 0 0.72 0.52 0 0.76 0.52 0 0.8 0.52 0 0.84 0.52 0 0.88 0.52 0 0.92 0.52 0 0.96 0.52 0 1 0.52 0 1.04 0.52 0 1.08 0.52 0 1.12 0.52 0 1.16 0.52 0 1.2 0.52 0 0 0.56 0 0.04 0.56 0 0.08 0.56 0 0.12 0.56 0 0.16 0.56 0 0.2 0.56 0 0.24 0.56 0 0.28 0.56 0 0.32 0.56 0 0.36 0.56 0 0.4 0.56 0 0.44 0.56 0 0.48 0.56 0 0.52 0.56 0 0.56 0.56 0 0.6 0.56 0 0.64 0.56 0 0.68 0.56 0 0.72 0.56 0 0.76 0.56 0 0.8 0.56 0 0.84 0.56 0 0.88 0.56 0 0.92 0.56 0 0.96 0.56 0 1 0.56 0 1.04 0.56 0 1.08 0.56 0 1.12 0.56 0 1.16 0.56 0 1.2 0.56 0 0 0.6 0 0.04 0.6 0 0.08 0.6 0 0.12 0.6 0 0.16 0.6 0 0.2 0.6 0 0.24 0.6 0 0.28 0.6 0 0.32 0.6 0 0.36 0.6 0 0.4 0.6 0 0.44 0.6 0 0.48 0.6 0 0.52 0.6 0 0.56 0.6 0 0.6 0.6 0 0.64 0.6 0 0.68 0.6 0 0.72 0.6 0 0.76 0.6 0 0.8 0.6 0 0.84 0.6 0 0.88 0.6 0 0.92 0.6 0 0.96 0.6 0 1 0.6 0 1.04 0.6 0 1.08 0.6 0 1.12 0.6 0 1.16 0.6 0 1.2 0.6 0 0 0.64 0 0.04 0.64 0 0.08 0.64 0 0.12 0.64 0 0.16 0.64 0 0.2 0.64 0 0.24 0.64 0 0.28 0.64 0 0.32 0.64 0 0.36 0.64 0 0.4 0.64 0 0.44 0.64 0 0.48 0.64 0 0.52 0.64 0 0.56 0.64 0 0.6 0.64 0 0.64 0.64 0 0.68 0.64 0 0.72 0.64 0 0.76 0.64 0 0.8 0.64 0 0.84 0.64 0 0.88 0.64 0 0.92 0.64 0 0.96 0.64 0 1 0.64 0 1.04 0.64 0 1.08 0.64 0 1.12 0.64 0 1.16 0.64 0 1.2 0.64 0 0 0.68 0 0.04 0.68 0 0.08 0.68 0 0.12 0.68 0 0.16 0.68 0 0.2 0.68 0 0.24 0.68 0 0.28 0.68 0 0.32 0.68 0 0.36 0.68 0 0.4 0.68 0 0.44 0.68 0 0.48 0.68 0 0.52 0.68 0 0.56 0.68 0 0.6 0.68 0 0.64 0.68 0 0.68 0.68 0 0.72 0.68 0 0.76 0.68 0 0.8 0.68 0 0.84 0.68 0 0.88 0.68 0 0.92 0.68 0 0.96 0.68 0 1 0.68 0 1.04 0.68 0 1.08 0.68 0 1.12 0.68 0 1.16 0.68 0 1.2 0.68 0 0 0.72 0 0.04 0.72 0 0.08 0.72 0 0.12 0.72 0 0.16 0.72 0 0.2 0.72 0 0.24 0.72 0 0.28 0.72 0 0.32 0.72 0 0.36 0.72 0 0.4 0.72 0 0.44 0.72 0 0.48 0.72 0 0.52 0.72 0 0.56 0.72 0 0.6 0.72 0 0.64 0.72 0 0.68 0.72 0 0.72 0.72 0 0.76 0.72 0 0.8 0.72 0 0.84 0.72 0 0.88 0.72 0 0.92 0.72 0 0.96 0.72 0 1 0.72 0 1.04 0.72 0 1.08 0.72 0 1.12 0.72 0 1.16 0.72 0 1.2 0.72 0 0 0.76 0 0.04 0.76 0 0.08 0.76 0 0.12 0.76 0 0.16 0.76 0 0.2 0.76 0 0.24 0.76 0 0.28 0.76 0 0.32 0.76 0 0.36 0.76 0 0.4 0.76 0 0.44 0.76 0 0.48 0.76 0 0.52 0.76 0 0.56 0.76 0 0.6 0.76 0 0.64 0.76 0 0.68 0.76 0 0.72 0.76 0 0.76 0.76 0 0.8 0.76 0 0.84 0.76 0 0.88 0.76 0 0.92 0.76 0 0.96 0.76 0 1 0.76 0 1.04 0.76 0 1.08 0.76 0 1.12 0.76 0 1.16 0.76 0 1.2 0.76 0 0 0.8 0 0.04 0.8 0 0.08 0.8 0 0.12 0.8 0 0.16 0.8 0 0.2 0.8 0 0.24 0.8 0 0.28 0.8 0 0.32 0.8 0 0.36 0.8 0 0.4 0.8 0 0.44 0.8 0 0.48 0.8 0 0.52 0.8 0 0.56 0.8 0 0.6 0.8 0 0.64 0.8 0 0.68 0.8 0 0.72 0.8 0 0.76 0.8 0 0.8 0.8 0 0.84 0.8 0 0.88 0.8 0 0.92 0.8 0 0.96 0.8 0 1 0.8 0 1.04 0.8 0 1.08 0.8 0 1.12 0.8 0 1.16 0.8 0 1.2 0.8 0 0 0.84 0 0.04 0.84 0 0.08 0.84 0 0.12 0.84 0 0.16 0.84 0 0.2 0.84 0 0.24 0.84 0 0.28 0.84 0 0.32 0.84 0 0.36 0.84 0 0.4 0.84 0 0.44 0.84 0 0.48 0.84 0 0.52 0.84 0 0.56 0.84 0 0.6 0.84 0 0.64 0.84 0 0.68 0.84 0 0.72 0.84 0 0.76 0.84 0 0.8 0.84 0 0.84 0.84 0 0.88 0.84 0 0.92 0.84 0 0.96 0.84 0 1 0.84 0 1.04 0.84 0 1.08 0.84 0 1.12 0.84 0 1.16 0.84 0 1.2 0.84 0 0 0.88 0 0.04 0.88 0 0.08 0.88 0 0.12 0.88 0 0.16 0.88 0 0.2 0.88 0 0.24 0.88 0 0.28 0.88 0 0.32 0.88 0 0.36 0.88 0 0.4 0.88 0 0.44 0.88 0 0.48 0.88 0 0.52 0.88 0 0.56 0.88 0 0.6 0.88 0 0.64 0.88 0 0.68 0.88 0 0.72 0.88 0 0.76 0.88 0 0.8 0.88 0 0.84 0.88 0 0.88 0.88 0 0.92 0.88 0 0.96 0.88 0 1 0.88 0 1.04 0.88 0 1.08 0.88 0 1.12 0.88 0 1.16 0.88 0 1.2 0.88 0 0 0.92 0 0.04 0.92 0 0.08 0.92 0 0.12 0.92 0 0.16 0.92 0 0.2 0.92 0 0.24 0.92 0 0.28 0.92 0 0.32 0.92 0 0.36 0.92 0 0.4 0.92 0 0.44 0.92 0 0.48 0.92 0 0.52 0.92 0 0.56 0.92 0 0.6 0.92 0 0.64 0.92 0 0.68 0.92 0 0.72 0.92 0 0.76 0.92 0 0.8 0.92 0 0.84 0.92 0 0.88 0.92 0 0.92 0.92 0 0.96 0.92 0 1 0.92 0 1.04 0.92 0 1.08 0.92 0 1.12 0.92 0 1.16 0.92 0 1.2 0.92 0 0 0.96 0 0.04 0.96 0 0.08 0.96 0 0.12 0.96 0 0.16 0.96 0 0.2 0.96 0 0.24 0.96 0 0.28 0.96 0 0.32 0.96 0 0.36 0.96 0 0.4 0.96 0 0.44 0.96 0 0.48 0.96 0 0.52 0.96 0 0.56 0.96 0 0.6 0.96 0 0.64 0.96 0 0.68 0.96 0 0.72 0.96 0 0.76 0.96 0 0.8 0.96 0 0.84 0.96 0 0.88 0.96 0 0.92 0.96 0 0.96 0.96 0 1 0.96 0 1.04 0.96 0 1.08 0.96 0 1.12 0.96 0 1.16 0.96 0 1.2 0.96 0 0 1 0 0.04 1 0 0.08 1 0 0.12 1 0 0.16 1 0 0.2 1 0 0.24 1 0 0.28 1 0 0.32 1 0 0.36 1 0 0.4 1 0 0.44 1 0 0.48 1 0 0.52 1 0 0.56 1 0 0.6 1 0 0.64 1 0 0.68 1 0 0.72 1 0 0.76 1 0 0.8 1 0 0.84 1 0 0.88 1 0 0.92 1 0 0.96 1 0 1 1 0 1.04 1 0 1.08 1 0 1.12 1 0 1.16 1 0 1.2 1 0 0 1.04 0 0.04 1.04 0 0.08 1.04 0 0.12 1.04 0 0.16 1.04 0 0.2 1.04 0 0.24 1.04 0 0.28 1.04 0 0.32 1.04 0 0.36 1.04 0 0.4 1.04 0 0.44 1.04 0 0.48 1.04 0 0.52 1.04 0 0.56 1.04 0 0.6 1.04 0 0.64 1.04 0 0.68 1.04 0 0.72 1.04 0 0.76 1.04 0 0.8 1.04 0 0.84 1.04 0 0.88 1.04 0 0.92 1.04 0 0.96 1.04 0 1 1.04 0 1.04 1.04 0 1.08 1.04 0 1.12 1.04 0 1.16 1.04 0 1.2 1.04 0 0 1.08 0 0.04 1.08 0 0.08 1.08 0 0.12 1.08 0 0.16 1.08 0 0.2 1.08 0 0.24 1.08 0 0.28 1.08 0 0.32 1.08 0 0.36 1.08 0 0.4 1.08 0 0.44 1.08 0 0.48 1.08 0 0.52 1.08 0 0.56 1.08 0 0.6 1.08 0 0.64 1.08 0 0.68 1.08 0 0.72 1.08 0 0.76 1.08 0 0.8 1.08 0 0.84 1.08 0 0.88 1.08 0 0.92 1.08 0 0.96 1.08 0 1 1.08 0 1.04 1.08 0 1.08 1.08 0 1.12 1.08 0 1.16 1.08 0 1.2 1.08 0 0 1.12 0 
[...]
			<CellData Scalars="Density">
				<DataArray Name="Density" type="Float32" format="ascii">
 0.00342383 0.00360378 0.00404419 0.0048635 0.00610703 0.00777842 0.00990309 0.0125277 0.0157635 0.0197321 0.024622 0.0307232 0.0384391 0.0483825 0.061459 0.0788152 0.102318 0.134465 0.178265 0.237892 0.318148 0.423941 0.559905 0.729807 0.935448 1.17538 1.44301 1.72292 1.98411 2.16168 0.00360357 0.00373666 0.00408086 0.00479099 0.00593805 0.00758306 0.00975426 0.0124785 0.0158426 0.0199662 0.0250487 0.0313577 0.0392922 0.0494728 0.062874 0.0807088 0.104964 0.138407 0.184331 0.24702 0.331448 0.442512 0.584527 0.760719 0.972178 1.21708 1.48944 1.77313 2.03006 2.18337 0.00404521 0.00408293 0.00425477 0.0047371 0.00563356 0.00699 0.00892244 0.0114652 0.0146919 0.0186704 0.0235625 0.0296324 0.0373037 0.0471467 0.0600011 0.0770611 0.10013 0.131758 0.175238 0.234746 0.315132 0.421696 0.559581 0.7334 0.945882 1.19598 1.47645 1.77002 2.04448 2.23029 0.00486746 0.00479742 0.00474253 0.00502591 0.00566397 0.00677342 0.00841633 0.0106992 0.0136804 0.0174313 0.0221099 0.0279187 0.0352323 0.0446217 0.0570266 0.0736795 0.0962687 0.127326 0.170211 0.229221 0.309442 0.416334 0.555172 0.730703 0.94631 1.20157 1.48816 1.78618 2.06469 2.23875 0.00611374 0.0059502 0.00564522 0.00567198 0.00608988 0.00694154 0.00835413 0.0104146 0.013216 0.0168261 0.0214016 0.0271724 0.0344891 0.0439007 0.0563746 0.0731492 0.0958173 0.126825 0.169521 0.228199 0.30807 0.414853 0.554196 0.730946 0.948092 1.20536 1.49512 1.79867 2.08262 2.25737 0.00778712 0.00759982 0.00701017 0.00678905 0.00695158 0.00755825 0.00870971 0.0105474 0.0131742 0.0166983 0.0212179 0.026978 0.0343529 0.0438811 0.0563489 0.0729551 0.0954843 0.126169 0.168325 0.226282 0.30529 0.411194 0.549922 0.726786 0.945076 1.20478 1.49987 1.81464 2.11562 2.30736 0.00991399 0.00977308 0.0089488 0.00844096 0.00837115 0.0087212 0.0095686 0.0111304 0.0135207 0.0168635 0.0212836 0.0269733 0.0343069 0.0437948 0.0562408 0.0727613 0.0951089 0.125498 0.167218 0.224726 0.303438 0.409295 0.548519 0.726937 0.948821 1.21535 1.52173 1.85291 2.17267 2.36914 0.0125394 0.0125 0.0114926 0.0107273 0.0104385 0.0105645 0.0111455 0.012434 0.0145732 0.0177821 0.0220909 0.0277267 0.0349925 0.0444217 0.0567798 0.0731206 0.0950691 0.124899 0.165715 0.221827 0.298837 0.403066 0.540909 0.719344 0.944556 1.22001 1.54259 1.89633 2.24421 2.46767 0.0157755 0.0158653 0.0147193 0.0137058 0.0132402 0.0131962 0.0135405 0.0145842 0.0163381 0.0193525 0.0236077 0.029243 0.0365166 0.0459275 0.058223 0.0744593 0.0962488 0.125671 0.165918 0.221241 0.297144 0.400453 0.538597 0.718954 0.948828 1.23471 1.57588 1.95793 2.33572 2.57916 0.0197449 0.0199895 0.0186944 0.0174543 0.0168446 0.0167157 0.0168868 0.0177907 0.019362 0.0220667 0.0261293 0.0318622 0.0392353 0.0486847 0.0609947 0.0771604 0.0987909 0.127892 0.167528 0.221801 0.296501 0.398497 0.535906 0.717897 0.953035 1.24959 1.61018 2.0233 2.4389 2.71953 0.024635 0.0250746 0.023583 0.0221272 0.0214156 0.0212264 0.0213003 0.0220946 0.0236059 0.0261335 0.0300487 0.035665 0.0431062 0.0527287 0.0652275 0.0816615 0.10338 0.132321 0.171615 0.22513 0.298789 0.399966 0.537139 0.720293 0.960883 1.26965 1.65193 2.09915 2.55535 2.87243 0.0307367 0.0313829 0.029653 0.0279287 0.027178 0.0269818 0.0269744 0.0277177 0.0292286 0.0318374 0.035638 0.0411551 0.0484988 0.0579707 0.0705015 0.0869911 0.109076 0.138705 0.178152 0.231244 0.304164 0.404158 0.541021 0.725708 0.970517 1.29073 1.69557 2.17965 2.68428 3.04834 0.0384525 0.0393179 0.0373199 0.0352387 0.0344857 0.0343501 0.0342936 0.0349699 0.0364802 0.0391972 0.0430633 0.0484836 0.055897 0.0652134 0.0773598 0.0935635 0.115526 0.145342 0.18595 0.240075 0.312838 0.412254 0.548569 0.734377 0.983795 1.31446 1.74184 2.26631 2.82621 3.24202 0.0483944 0.0495002 0.0471602 0.0446233 0.0438945 0.0438693 0.0437679 0.0443795 0.0458644 0.0486087 0.052681 0.0579236 0.0651966 0.0746252 0.0862534 0.101547 0.122839 0.151965 0.192908 0.248074 0.322877 0.423734 0.560258 0.746741 0.999854 1.34053 1.78837 2.35615 2.9804 3.46165 0.0614664 0.0629011 0.0600088 0.0570257 0.0563574 0.0563333 0.0562062 0.0567194 0.0581586 0.060881 0.0651528 0.0704383 0.077294 0.0862376 0.0973118 0.111518 0.131551 0.159177 0.198883 0.253602 0.330613 0.433826 0.573568 0.763392 1.02017 1.36879 1.83686 2.44821 3.14516 3.70927 0.0788169 0.08073 0.0770605 0.0736699 0.0731208 0.0729216 0.0727176 0.0730529 0.0743759 0.0770071 0.0815537 0.0868615 0.0934551 0.10152 0.111515 0.124095 0.141269 0.167176 0.204807 0.257806 0.333059 0.438819 0.583567 0.778028 1.04233 1.40005 1.88613 2.54099 3.31833 3.98546 0.102312 0.104977 0.100116 0.0962466 0.0957743 0.0954237 0.0950473 0.0949942 0.0961285 0.0986485 0.103211 0.108964 0.115432 0.122719 0.131504 0.141314 0.155301 0.17773 0.210011 0.259804 0.332135 0.437809 0.584454 0.788347 1.06453 1.4357 1.94324 2.6383 3.50209 4.28996 0.134445 0.138411 0.131724 0.127294 0.126772 0.126076 0.125413 0.124804 0.125542 0.127734 0.132083 0.1386 0.145176 0.151858 0.159152 0.167087 0.177795 0.193952 0.221387 0.264249 0.327591 0.427026 0.574715 0.78582 1.07129 1.46265 1.99968 2.7371 3.6943 4.62883 0.178218 0.184311 0.175176 0.170158 0.169448 0.168206 0.167103 0.165618 0.165794 0.16737 0.171391 0.178006 0.185773 0.192804 0.198682 0.204713 0.210094 0.221378 0.243052 0.276926 0.330692 0.418224 0.5538 0.761061 1.06324 1.47918 2.05617 2.8462 3.91295 5.01326 0.237812 0.246965 0.234643 0.229122 0.228087 0.226131 0.224572 0.221705 0.221091 0.22166 0.224952 0.231004 0.239942 0.247948 0.253387 0.257987 0.259719 0.264268 0.276974 0.30535 0.350163 0.417732 0.534484 0.728128 1.03089 1.46349 2.07644 2.93949 4.14812 5.42867 0.318019 0.33134 0.314978 0.309279 0.307901 0.305078 0.303241 0.298636 0.2969 0.296389 0.298612 0.303896 0.31284 0.322567 0.330511 0.333049 0.331944 0.32769 0.330621 0.350202 0.386375 0.444633 0.538347 0.695374 0.974619 1.42072 2.07325 3.01824 4.39844 5.90198 0.423747 0.442335 0.421479 0.41609 0.414618 0.41089 0.40904 0.402796 0.400069 0.398329 0.399771 0.403931 0.412122 0.423542 0.433673 0.438409 0.437979 0.427099 0.418203 0.41773 0.444711 0.49495 0.573185 0.700148 0.931046 1.34348 2.02797 3.04798 4.59467 6.42487 0.559637 0.584276 0.559307 0.554846 0.55391 0.549531 0.548178 0.540686 0.53819 0.535625 0.53695 0.540785 0.548404 0.560255 0.572933 0.583744 0.584713 0.574367 0.554103 0.534302 0.538306 0.573321 0.641915 0.752197 0.934584 1.28213 1.93946 3.01797 4.72109 6.9398 0.729454 0.760381 0.733068 0.730303 0.730609 0.726368 0.72648 0.719075 0.718733 0.717619 0.720123 0.725543 0.734274 0.746717 0.762894 0.778411 0.787829 0.78593 0.761116 0.727938 0.695339 0.699814 0.75238 0.850775 1.01131 1.29107 1.84971 2.94093 4.82299 7.39316 0.935013 0.971754 0.945485 0.945853 0.947701 0.944616 0.948336 0.94399 0.948544 0.952802 0.960566 0.970407 0.983788 0.999866 1.0199 1.04213 1.06442 1.07125 1.0629 1.0312 0.974674 0.930838 0.934648 1.01161 1.16003 1.40742 1.8583 2.81779 4.82261 7.62417 1.17486 1.21657 1.1955 1.20107 1.20492 1.20432 1.21508 1.21949 1.23433 1.24949 1.26942 1.29058 1.31443 1.3407 1.36863 1.3999 1.43602 1.46219 1.47928 1.46371 1.42003 1.34322 1.28154 1.29142 1.40743 1.64354 2.06037 2.80868 4.74255 7.52665 1.44242 1.48886 1.47589 1.48759 1.49458 1.49925 1.52143 1.54233 1.57528 1.60993 1.6519 1.69571 1.74173 1.78871 1.83698 1.88636 1.94325 1.99954 2.05681 2.07615 2.07312 2.02759 1.93902 1.84943 1.85901 2.05924 2.43606 3.11994 4.57908 6.98159 1.72227 1.77249 1.76939 1.78557 1.79814 1.81411 1.85238 1.89619 1.9573 2.0228 2.09895 2.17977 2.26622 2.35637 2.44801 2.54111 2.63829 2.73685 2.84621 2.93911 3.01856 3.04768 3.01793 2.94011 2.81827 2.80985 3.11512 3.74212 4.37929 5.92594 1.98338 2.02937 2.04376 2.06405 2.08199 2.1154 2.17228 2.24425 2.33492 2.43836 2.5555 2.68414 2.82622 2.9807 3.14449 3.31769 3.50264 3.69522 3.91308 4.14863 4.3994 4.59518 4.72082 4.82403 4.8214 4.74256 4.57785 4.37887 4.03695 4.37822 2.16088 2.18267 2.22941 2.23814 2.25663 2.30708 2.36882 2.4678 2.57845 2.71888 2.87245 3.04675 3.24133 3.46243 3.70816 3.98344 4.29165 4.63101 5.01096 5.43123 5.90505 6.42152 6.94367 7.39744 7.61596 7.53271 6.98427 5.92075 4.37753 2.7405
				</DataArray>
				<DataArray Name="Energy" type="Float32" format="ascii">
 794.56 755.447 673.659 560.643 447.24 351.799 276.856 219.477 175.542 141.525 114.75 93.3883 76.0811 61.8617 50.0623 40.196 31.9857 25.2275 19.7545 15.4184 12.0543 9.48571 7.54529 6.08572 4.9857 4.15129 3.51336 3.02483 2.65986 2.43052 755.489 729.342 668.177 570.25 460.521 361.727 282.062 221.063 174.658 139.212 111.859 90.457 73.3975 59.5459 48.1373 38.6214 30.6896 24.1465 18.8439 14.6478 11.4076 8.95215 7.11317 5.74234 4.71857 3.94975 3.36933 2.93093 2.60311 2.37926 673.448 667.834 642.33 577.875 487.715 393.919 310.036 242.144 189.767 150.128 119.89 96.4944 78.0616 63.2325 51.0954 41.0434 32.6891 25.7869 20.1707 15.6994 12.2204 9.56623 7.56681 6.06797 4.94289 4.09394 3.45017 2.96221 2.602 2.38061 560.145 569.423 577.228 547.034 487.111 409.615 331.156 262.002 205.925 162.429 129.013 103.195 82.9316 66.7487 53.6338 42.8757 34.0074 26.7402 20.8581 16.1835 12.5473 9.77401 7.69043 6.13665 4.97844 4.11212 3.46249 2.97527 2.61993 2.38923 446.687 459.532 486.606 486.435 456.128 402.743 337.174 272.105 215.9 170.48 134.826 107.119 85.4851 68.4129 54.7676 43.6894 34.6039 27.1787 21.1856 16.4333 12.7404 9.92256 7.80279 6.22095 5.04292 4.16314 3.50385 3.00912 2.64627 2.40875 351.321 360.866 392.765 408.562 402.2 373.12 326.933 272.333 219.522 174.329 137.855 109.209 86.8043 69.2028 55.2351 44.0131 34.9289 27.5341 21.5527 16.7811 13.046 10.1765 8.00462 6.37483 5.15616 4.24529 3.56178 3.04737 2.66951 2.42397 276.483 281.417 309.076 330.156 336.377 326.543 300.79 261.489 217.171 175.307 139.725 110.925 88.1654 70.2538 56.0705 44.7194 35.563 28.1084 22.0537 17.1937 13.367 10.4147 8.1774 6.4992 5.24386 4.30312 3.59589 3.06507 2.67692 2.42064 219.2 220.619 241.483 261.262 271.449 271.794 261.168 237.166 204.534 169.067 136.887 109.747 87.8066 70.3035 56.3668 45.1744 36.1005 28.688 22.6396 17.7434 13.8452 10.804 8.47432 6.71294 5.38994 4.39603 3.64847 3.0873 2.67855 2.41505 175.346 174.349 189.367 205.461 215.456 219.119 216.778 204.397 185.186 157.824 130.365 105.931 85.5611 69.0276 55.7507 45.0086 36.2377 29.0126 23.0535 18.174 14.2427 11.1373 8.73373 6.90009 5.51385 4.46939 3.68433 3.098 2.6741 2.40354 141.384 138.995 149.887 162.172 170.22 174.098 175.029 168.931 157.75 140.34 119.712 98.7203 80.8858 66.0618 53.9652 44.0787 35.9195 29.0926 23.3612 18.581 14.6576 11.5048 9.0297 7.12161 5.66682 4.56404 3.73332 3.11496 2.67127 2.39494 114.648 111.712 119.743 128.874 134.708 137.737 139.579 136.843 130.327 119.698 105.116 89.4087 74.3375 61.3848 50.8307 42.1356 34.8589 28.6574 23.3459 18.7971 14.9682 11.8236 9.30547 7.3344 5.81744 4.65953 3.78373 3.13348 2.67129 2.38797 93.3135 90.3509 96.4019 103.12 107.064 109.16 110.874 109.751 105.956 98.7512 89.4564 77.6385 66.0955 55.5605 46.4825 39.1314 32.967 27.6447 22.9418 18.7762 15.1554 12.0837 9.5618 7.54941 5.97678 4.76579 3.84507 3.16042 2.6771 2.38499 76.0273 73.3221 78.0014 82.8931 85.4601 86.7996 88.1685 87.8428 85.606 80.932 74.3718 66.1182 57.0827 48.7397 41.5396 35.3418 30.2923 25.9423 22.0264 18.4222 15.1414 12.238 9.76803 7.74493 6.13401 4.8766 3.91337 3.19406 2.68835 2.38504 61.8229 59.4926 63.1933 66.7224 68.4063 69.2094 70.2762 70.3624 69.0823 66.1236 61.4382 55.591 48.7521 41.9669 36.0614 31.1663 27.0576 23.6092 20.5437 17.6295 14.846 12.241 9.90417 7.91362 6.28706 4.99491 3.99108 3.23642 2.70562 2.38899 50.0341 48.0998 51.0676 53.6178 54.763 55.2414 56.0958 56.4162 55.8079 54.0333 50.8933 46.5299 41.5656 36.0688 31.029 26.8703 23.5833 20.8886 18.5637 16.3658 14.1814 12 9.9147 8.03267 6.4247 5.11217 4.07504 3.28429 2.7253 2.39335 40.176 38.5951 41.0251 42.8674 43.6843 44.0197 44.7331 45.2041 45.0576 44.135 42.1829 39.1823 35.3848 31.1841 26.8865 23.138 20.2127 18.0116 16.2669 14.7032 13.1322 11.4656 9.73293 8.0493 6.52398 5.22172 4.16227 3.33726 2.74746 2.3986 31.9718 30.6715 32.6785 34.0025 34.6011 34.9357 35.5679 36.1169 36.2693 35.9637 34.8958 33.0108 30.3201 27.0817 23.6062 20.2181 17.4751 15.4358 13.896 12.7432 11.7118 10.5988 9.30723 7.9254 6.55648 5.31056 4.24991 3.39493 2.77276 2.4052 25.218 24.1349 25.781 26.7377 27.1789 27.5389 28.1118 28.6965 29.0315 29.1209 28.6844 27.6787 25.966 23.6289 20.8978 18.0184 15.4424 13.4077 11.936 10.8649 10.0601 9.38667 8.58921 7.59021 6.45922 5.34112 4.32046 3.45202 2.79889 2.41036 19.7481 18.8368 20.1671 20.8572 21.1862 21.5573 22.0577 22.6428 23.0671 23.3776 23.3621 22.9641 22.046 20.5555 18.579 16.283 13.9016 11.9368 10.4609 9.35856 8.56969 8.03171 7.57708 6.99095 6.20051 5.28555 4.35945 3.50695 2.82834 2.41357 15.4143 14.6436 15.6972 16.1832 16.4331 16.7856 17.1971 17.7452 18.1837 18.5888 18.8062 18.7895 18.4368 17.637 16.3723 14.7033 12.7448 10.8678 9.35756 8.26259 7.43342 6.8213 6.44182 6.15438 5.72786 5.07909 4.31416 3.5361 2.85498 2.41615 12.0517 11.4051 12.2191 12.5471 12.7398 13.0492 13.369 13.8465 14.2477 14.6621 14.9735 15.1625 15.1505 14.8498 14.1866 13.1377 11.7164 10.0606 8.5685 7.43309 6.58409 5.9432 5.48622 5.20454 5.02331 4.69929 4.16112 3.51996 2.87157 2.41709 9.48405 8.95068 9.56543 9.7739 9.92191 10.1785 10.416 10.805 11.1399 11.507 11.8257 12.088 12.2428 12.246 12.0025 11.4651 10.5977 9.38429 8.03205 6.82107 5.94266 5.28572 4.77996 4.42639 4.24129 4.12004 3.8641 3.41569 2.844 2.40768 7.54415 7.11223 7.56622 7.69031 7.80232 8.0057 8.17833 8.47533 8.73557 9.03036 9.30664 9.56404 9.77012 9.90797 9.9146 9.7356 9.30916 8.58881 7.57531 6.43953 5.48676 4.77971 4.2566 3.85853 3.58913 3.47316 3.4057 3.18514 2.75198 2.37927 6.0848 5.74163 6.06742 6.13643 6.22057 6.37534 6.49967 6.71338 6.90154 7.12195 7.33528 7.55014 7.74593 7.91531 8.0331 8.05073 7.92383 7.58933 6.9897 6.15355 5.20454 4.42568 3.85812 3.43688 3.12109 2.9261 2.86469 2.82357 2.58983 2.31517 4.98489 4.71797 4.94232 4.97811 5.04252 5.15619 5.24394 5.38954 5.51433 5.66677 5.81753 5.97687 6.13435 6.28755 6.42522 6.52371 6.55645 6.45897 6.19893 5.72696 5.02122 4.24113 3.58891 3.12074 2.77813 2.52933 2.39204 2.38105 2.32819 2.18889 4.15054 3.94917 4.09336 4.11172 4.16277 4.24502 4.30311 4.39551 4.46929 4.56386 4.65931 4.76536 4.87636 4.99469 5.11217 5.22143 5.31102 5.34082 5.28526 5.0788 4.698 4.11915 3.47227 2.92557 2.52936 2.24781 2.05491 1.96894 2.00932 1.98762 3.51266 3.36878 3.44963 3.46207 3.50348 3.5612 3.59553 3.64792 3.68388 3.7329 3.78331 3.84467 3.91281 3.99056 4.07467 4.16189 4.24966 4.32032 4.35938 4.3139 4.16114 3.86334 3.40496 2.86411 2.39153 2.05526 1.8167 1.66747 1.68071 1.70518 3.02418 2.93039 2.96174 2.97483 3.00882 3.04673 3.06445 3.08671 3.09771 3.11443 3.13257 3.16004 3.19369 3.23573 3.28361 3.33694 3.39438 3.45144 3.50645 3.5358 3.52001 3.4154 3.1845 2.82318 2.38019 1.96854 1.66763 1.46048 1.36499 1.33322 2.65928 2.60257 2.60159 2.61948 2.64596 2.66892 2.67633 2.67785 2.67402 2.67087 2.67026 2.67702 2.68834 2.70481 2.7249 2.74764 2.77215 2.79816 2.82837 2.85472 2.87115 2.84411 2.75169 2.58936 2.32773 2.00852 1.68021 1.36478 1.14396 0.930848 2.42997 2.37871 2.38018 2.38879 2.40844 2.4233 2.42014 2.41441 2.40379 2.39455 2.38669 2.38503 2.38496 2.38808 2.39366 2.39923 2.40398 2.40956 2.4145 2.4154 2.41645 2.40875 2.37867 2.31411 2.1894 1.98702 1.70487 1.3334 0.930387 0.450241
				</DataArray>
				<DataArray Name="F1" type="Float32" format="ascii">
 1 1 1 1 1 1 1 1 1 1 1 1 1 1 1 1 1 1 1 1 1 1 1 1 1 1 1 1 1 1 1 1 1 1 1 1 1 1 1 1 1 1 1 1 1 1 1 1 1 1 1 1 1 1 1 1 1 1 1 1 1 1 1 1 1 1 1 1 1 1 1 1 1 1 1 1 1 1 1 1 1 1 1 1 1 1 1 1 1 1 1 1 1 1 1 1 1 1 1 1 1 1 1 1 1 1 1 1 1 1 1 1 1 1 1 1 1 1 1 1 1 1 1 1 1 1 1 1 1 1 1 1 1 1 1 1 1 1 1 1 1 1 1 1 1 1 1 1 1 1 1 1 1 1 1 1 1 1 1 1 1 1 1 1 1 1 1 1 1 1 1 1 1 1 1 1 1 1 1 1 1 1 1 1 1 1 1 1 1 1 1 1 1 1 1 1 1 1 1 1 1 1 1 1 1 1 1 1 1 1 1 1 1 1 1 1 1 1 1 1 1 1 1 1 1 1 1 1 1 1 1 1 1 1 1 1 1 1 1 1 1 1 1 1 1 1 1 1 1 1 1 1 1 1 1 1 1 1 1 1 1 1 1 1 1 1 1 1 1 1 1 1 1 1 1 1 1 1 1 1 1 1 1 1 1 1 1 1 1 1 1 1 1 1 1 1 1 1 1 1 1 1 1 1 1 1 1 1 1 1 1 1 1 1 1 1 1 1 1 1 1 1 1 1 1 1 1 1 1 1 1 1 1 1 1 1 1 1 1 1 1 1 1 1 1 1 1 1 1 1 1 1 1 1 1 1 1 1 1 1 1 1 1 1 1 1 1 1 1 1 1 1 1 1 1 1 1 1 1 1 1 1 1 1 1 1 1 1 1 1 1 1 1 1 1 1 1 1 1 1 1 1 1 1 1 1 1 1 1 1 1 1 1 1 1 1 1 1 1 1 1 1 1 1 1 1 1 1 1 1 1 1 1 1 1 1 1 1 1 1 1 1 1 1 1 1 1 1 1 1 1 1 1 1 1 1 1 1 1 1 1 1 1 1 1 1 1 1 1 1 1 1 1 1 1 1 1 1 1 1 1 1 1 1 1 1 1 1 1 1 1 1 1 1 1 1 1 1 1 1 1 1 1 1 1 1 1 1 1 1 1 1 1 1 1 1 1 1 1 1 1 1 1 1 1 1 1 1 1 1 1 1 1 1 1 1 1 1 1 1 1 1 1 1 1 1 1 1 1 1 1 1 1 1 1 1 1 1 1 1 1 1 1 1 1 1 1 1 1 1 1 1 1 1 1 1 1 1 1 1 1 1 1 1 1 1 1 1 1 1 1 1 1 1 1 1 1 1 1 1 1 1 1 1 1 1 1 1 1 1 1 1 1 1 1 1 1 1 1 1 1 1 1 1 1 1 1 1 1 1 1 1 1 1 1 1 1 1 1 1 1 1 1 1 1 1 1 1 1 1 1 1 1 1 1 1 1 1 1 1 1 1 1 1 1 1 1 1 1 1 1 1 1 1 1 1 1 1 1 1 1 1 1 1 1 1 1 1 1 1 1 1 1 1 1 1 1 1 1 1 1 1 1 1 1 1 1 1 1 1 1 1 1 1 1 1 1 1 1 1 1 1 1 1 1 1 1 1 1 1 1 1 1 1 1 1 1 1 1 1 1 1 1 1 1 1 1 1 1 1 1 1 1 1 1 1 1 1 1 1 1 1 1 1 1 1 1 1 1 1 1 1 1 1 1 1 1 1 1 1 1 1 1 1 1 1 1 1 1 1 1 1 1 1 1 1 1 1 1 1 1 1 1 1 1 1 1 1 1 1 1 1 1 1 1 1 1 1 1 1 1 1 1 1 1 1 1 1 1 1 1 1 1 1 1 1 1 1 1 1 1 1 1 1 1 1 1 1 1 1 1 1 1 1 1 1 1 1 1 1 1 1 1 1 1 1 1 1 1 1 1 1 1 1 1 1 1 1 1 1 1 1 1 1 1 1 1 1 1 1 1 1 1 1 1 1 1 1 1 1
				</DataArray>
				<DataArray Name="F2" type="Float32" format="ascii">
 0 0 0 0 0 0 0 0 0 0 0 0 0 0 0 0 0 0 0 0 0 0 0 0 0 0 0 0 0 0 0 0 0 0 0 0 0 0 0 0 0 0 0 0 0 0 0 0 0 0 0 0 0 0 0 0 0 0 0 0 0 0 0 0 0 0 0 0 0 0 0 0 0 0 0 0 0 0 0 0 0 0 0 0 0 0 0 0 0 0 0 0 0 0 0 0 0 0 0 0 0 0 0 0 0 0 0 0 0 0 0 0 0 0 0 0 0 0 0 0 0 0 0 0 0 0 0 0 0 0 0 0 0 0 0 0 0 0 0 0 0 0 0 0 0 0 0 0 0 0 0 0 0 0 0 0 0 0 0 0 0 0 0 0 0 0 0 0 0 0 0 0 0 0 0 0 0 0 0 0 0 0 0 0 0 0 0 0 0 0 0 0 0 0 0 0 0 0 0 0 0 0 0 0 0 0 0 0 0 0 0 0 0 0 0 0 0 0 0 0 0 0 0 0 0 0 0 0 0 0 0 0 0 0 0 0 0 0 0 0 0 0 0 0 0 0 0 0 0 0 0 0 0 0 0 0 0 0 0 0 0 0 0 0 0 0 0 0 0 0 0 0 0 0 0 0 0 0 0 0 0 0 0 0 0 0 0 0 0 0 0 0 0 0 0 0 0 0 0 0 0 0 0 0 0 0 0 0 0 0 0 0 0 0 0 0 0 0 0 0 0 0 0 0 0 0 0 0 0 0 0 0 0 0 0 0 0 0 0 0 0 0 0 0 0 0 0 0 0 0 0 0 0 0 0 0 0 0 0 0 0 0 0 0 0 0 0 0 0 0 0 0 0 0 0 0 0 0 0 0 0 0 0 0 0 0 0 0 0 0 0 0 0 0 0 0 0 0 0 0 0 0 0 0 0 0 0 0 0 0 0 0 0 0 0 0 0 0 0 0 0 0 0 0 0 0 0 0 0 0 0 0 0 0 0 0 0 0 0 0 0 0 0 0 0 0 0 0 0 0 0 0 0 0 0 0 0 0 0 0 0 0 0 0 0 0 0 0 0 0 0 0 0 0 0 0 0 0 0 0 0 0 0 0 0 0 0 0 0 0 0 0 0 0 0 0 0 0 0 0 0 0 0 0 0 0 0 0 0 0 0 0 0 0 0 0 0 0 0 0 0 0 0 0 0 0 0 0 0 0 0 0 0 0 0 0 0 0 0 0 0 0 0 0 0 0 0 0 0 0 0 0 0 0 0 0 0 0 0 0 0 0 0 0 0 0 0 0 0 0 0 0 0 0 0 0 0 0 0 0 0 0 0 0 0 0 0 0 0 0 0 0 0 0 0 0 0 0 0 0 0 0 0 0 0 0 0 0 0 0 0 0 0 0 0 0 0 0 0 0 0 0 0 0 0 0 0 0 0 0 0 0 0 0 0 0 0 0 0 0 0 0 0 0 0 0 0 0 0 0 0 0 0 0 0 0 0 0 0 0 0 0 0 0 0 0 0 0 0 0 0 0 0 0 0 0 0 0 0 0 0 0 0 0 0 0 0 0 0 0 0 0 0 0 0 0 0 0 0 0 0 0 0 0 0 0 0 0 0 0 0 0 0 0 0 0 0 0 0 0 0 0 0 0 0 0 0 0 0 0 0 0 0 0 0 0 0 0 0 0 0 0 0 0 0 0 0 0 0 0 0 0 0 0 0 0 0 0 0 0 0 0 0 0 0 0 0 0 0 0 0 0 0 0 0 0 0 0 0 0 0 0 0 0 0 0 0 0 0 0 0 0 0 0 0 0 0 0 0 0 0 0 0 0 0 0 0 0 0 0 0 0 0 0 0 0 0 0 0 0 0 0 0 0 0 0 0 0 0 0 0 0 0 0 0 0 0 0 0 0 0 0 0 0 0 0 0 0 0 0 0 0 0 0 0 0 0 0 0 0 0 0 0 0 0 0 0 0 0 0 0 0 0 0 0 0 0 0 0 0 0 0 0 0 0 0 0 0 0 0 0 0 0 0 0 0 0 0 0 0
				</DataArray>
				<DataArray Name="F3" type="Float32" format="ascii">