<?xml version="1.0"?>
<VTKFile type="PolyData">
	<PolyData>
		<Piece NumberOfPoints="961" NumberOfPolys="900">
			<Points>
				<DataArray type="Float32" NumberOfComponents="3" format="ascii">
 0 0 0 0.04 0 0 0.08 0 0 0.12 0 0 0.16 0 0 0.2 0 0 0.24 0 0 0.28 0 0 0.32 0 0 0.36 0 0 0.4 0 0 0.44 0 0 0.48 0 0 0.52 0 0 0.56 0 0 0.6 0 0 0.64 0 0 0.68 0 0 0.72 0 0 0.76 0 0 0.8 0 0 0.84 0 0 0.88 0 0 0.92 0 0 0.96 0 0 1 0 0 1.04 0 0 1.08 0 0 1.12 0 0 1.16 0 0 1.2 0 0 0 0.04 0 0.04 0.04 0 0.08 0.04 0 0.12 0.04 0 0.16 0.04 0 0.2 0.04 0 0.24 0.04 0 0.28 0.04 0 0.32 0.04 0 0.36 0.04 0 0.4 0.04 0 0.44 0.04 0 0.48 0.04 0 0.52 0.04 0 0.56 0.04 0 0.6 0.04 0 0.64 0.04 0 0.68 0.04 0 0.72 0.04 0 0.76 0.04 0 0.8 0.04 0 0.84 0.04 0 0.88 0.04 0 0.92 0.04 0 0.96 0.04 0 1 0.04 0 1.04 0.04 0 1.08 0.04 0 1.12 0.04 0 1.16 0.04 0 1.2 0.04 0 0 0.08 0 0.04 0.08 0 0.08 0.08 0 0.12 0.08 0 0.16 0.08 0 0.2 0.08 0 0.24 0.08 0 0.28 0.08 0 0.32 0.08 0 0.36 0.08 0 0.4 0.08 0 0.44 0.08 0 0.48 0.08 0 0.52 0.08 0 0.56 0.08 0 0.6 0.08 0 0.64 0.08 0 0.68 0.08 0 0.72 0.08 0 0.76 0.08 0 0.8 0.08 0 0.84 0.08 0 0.88 0.08 0 0.92 0.08 0 0.96 0.08 0 1 0.08 0 1.04 0.08 0 1.08 0.08 0 1.12 0.08 0 1.16 0.08 0 1.2 0.08 0 0 0.12 0 0.04 0.12 0 0.08 0.12 0 0.12 0.12 0 0.16 0.12 0 0.2 0.12 0 0.24 0.12 0 0.28 0.12 0 0.32 0.12 0 0.36 0.12 0 0.4 0.12 0 0.44 0.12 0 0.48 0.12 0 0.52 0.12 0 0.56 0.12 0 0.6 0.12 0 0.64 0.12 0 0.68 0.12 0 0.72 0.12 0 0.76 0.12 0 0.8 0.12 0 0.84 0.12 0 0.88 0.12 0 0.92 0.12 0 0.96 0.12 0 1 0.12 0 1.04 0.12 0 1.08 0.12 0 1.12 0.12 0 1.16 0.12 0 1.2 0.12 0 0 0.16 0 0.04 0.16 0 0.08 0.16 0 0.12 0.16 0 0.16 0.16 0 0.2 0.16 0 0.24 0.16 0 0.28 0.16 0 0.32 0.16 0 0.36 0.16 0 0.4 0.16 0 0.44 0.16 0 0.48 0.16 0 0.52 0.16 0 0.56 0.16 0 0.6 0.16 0 0.64 0.16 0 0.68 0.16 0 0.72 0.16 0 0.76 0.16 0 0.8 0.16 0 0.84 0.16 0 0.88 0.16 0 0.92 0.16 0 0.96 0.16 0 1 0.16 0 1.04 0.16 0 1.08 0.16 0 1.12 0.16 0 1.16 0.16 0 1.2 0.16 0 0 0.2 0 0.04 0.2 0 0.08 0.2 0 0.12 0.2 0 0.16 0.2 0 0.2 0.2 0 0.24 0.2 0 0.28 0.2 0 0.32 0.2 0 0.36 0.2 0 0.4 0.2 0 0.44 0.2 0 0.48 0.2 0 0.52 0.2 0 0.56 0.2 0 0.6 0.2 0 0.64 0.2 0 0.68 0.2 0 0.72 0.2 0 0.76 0.2 0 0.8 0.2 0 0.84 0.2 0 0.88 0.2 0 0.92 0.2 0 0.96 0.2 0 1 0.2 0 1.04 0.2 0 1.08 0.2 0 1.12 0.2 0 1.16 0.2 0 1.2 0.2 0 0 0.24 0 0.04 0.24 0 0.08 0.24 0 0.12 0.24 0 0.16 0.24 0 0.2 0.24 0 0.24 0.24 0 0.28 0.24 0 0.32 0.24 0 0.36 0.24 0 0.4 0.24 0 0.44 0.24 0 0.48 0.24 0 0.52 0.24 0 0.56 0.24 0 0.6 0.24 0 0.64 0.24 0 0.68 0.24 0 0.72 0.24 0 0.76 0.24 0 0.8 0.24 0 0.84 0.24 0 0.88 0.24 0 0.92 0.24 0 0.96 0.24 0 1 0.24 0 1.04 0.24 0 1.08 0.24 0 1.12 0.24 0 1.16 0.24 0 1.2 0.24 0 0 0.28 0 0.04 0.28 0 0.08 0.28 0 0.12 0.28 0 0.16 0.28 0 0.2 0.28 0 0.24 0.28 0 0.28 0.28 0 0.32 0.28 0 0.36 0.28 0 0.4 0.28 0 0.44 0.28 0 0.48 0.28 0 0.52 0.28 0 0.56 0.28 0 0.6 0.28 0 0.64 0.28 0 0.68 0.28 0 0.72 0.28 0 0.76 0.28 0 0.8 0.28 0 0.84 0.28 0 0.88 0.28 0 0.92 0.28 0 0.96 0.28 0 1 0.28 0 1.04 0.28 0 1.08 0.28 0 1.12 0.28 0 1.16 0.28 0 1.2 0.28 0 0 0.32 0 0.04 0.32 0 0.08 0.32 0 0.12 0.32 0 0.16 0.32 0 0.2 0.32 0 0.24 0.32 0 0.28 0.32 0 0.32 0.32 0 0.36 0.32 0 0.4 0.32 0 0.44 0.32 0 0.48 0.32 0 0.52 0.32 0 0.56 0.32 0 0.6 0.32 0 0.64 0.32 0 0.68 0.32 0 0.72 0.32 0 0.76 0.32 0 0.8 0.32 0 0.84 0.32 0 0.88 0.32 0 0.92 0.32 0 0.96 0.32 0 1 0.32 0 1.04 0.32 0 1.08 0.32 0 1.12 0.32 0 1.16 0.32 0 1.2 0.32 0 0 0.36 0 0.04 0.36 0 0.08 0.36 0 0.12 0.36 0 0.16 0.36 0 0.2 0.36 0 0.24 0.36 0 0.28 0.36 0 0.32 0.36 0 0.36 0.36 0 0.4 0.36 0 0.44 0.36 0 0.48 0.36 0 0.52 0.36 0 0.56 0.36 0 0.6 0.36 0 0.64 0.36 0 0.68 0.36 0 0.72 0.36 0 0.76 0.36 0 0.8 0.36 0 0.84 0.36 0 0.88 0.36 0 0.92 0.36 0 0.96 0.36 0 1 0.36 0 1.04 0.36 0 1.08 0.36 0 1.12 0.36 0 1.16 0.36 0 1.2 0.36 0 0 0.4 0 0.04 0.4 0 0.08 0.4 0 0.12 0.4 0 0.16 0.4 0 0.2 0.4 0 0.24 0.4 0 0.28 0.4 0 0.32 0.4 0 0.36 0.4 0 0.4 0.4 0 0.44 0.4 0 0.48 0.4 0 0.52 0.4 0 0.56 0.4 0 0.6 0.4 0 0.64 0.4 0 0.68 0.4 0 0.72 0.4 0 0.76 0.4 0 0.8 0.4 0 0.84 0.4 0 0.88 0.4 0 0.92 0.4 0 0.96 0.4 0 1 0.4 0 1.04 0.4 0 1.08 0.4 0 1.12 0.4 0 1.16 0.4 0 1.2 0.4 0 0 0.44 0 0.04 0.44 0 0.08 0.44 0 0.12 0.44 0 0.16 0.44 0 0.2 0.44 0 0.24 0.44 0 0.28 0.44 0 0.32 0.44 0 0.36 0.44 0 0.4 0.44 0 0.44 0.44 0 0.48 0.44 0 0.52 0.44 0 0.56 0.44 0 0.6 0.44 0 0.64 0.44 0 0.68 0.44 0 0.72 0.44 0 0.76 0.44 0 0.8 0.44 0 0.84 0.44 0 0.88 0.44 0 0.92 0.44 0 0.96 0.44 0 1 0.44 0 1.04 0.44 0 1.08 0.44 0 1.12 0.44 0 1.16 0.44 0 1.2 0.44 0 0 0.48 0 0.04 0.48 0 0.08 0.48 0 0.12 0.48 0 0.16 0.48 0 0.2 0.48 0 0.24 0.48 0 0.28 0.48 0 0.32 0.48 0 0.36 0.48 0 0.4 0.48 0 0.44 0.48 0 0.48 0.48 0 0.52 0.48 0 0.56 0.48 0 0.6 0.48 0 0.64 0.48 0 0.68 0.48 0 0.72 0.48 0 0.76 0.48 0 0.8 0.48 0 0.84 0.48 0 0.88 0.48 0 0.92 0.48 0 0.96 0.48 0 1 0.48 0 1.04 0.48 0 1.08 0.48 0 1.12 0.48 0 1.16 0.48 0 1.2 0.48 0 0 0.52 0 0.04 0.52 0 0.08 0.52 0 0.12 0.52 0 0.16 0.52 0 0.2 0.52 0 0.24 0.52 0 0.28 0.52 0 0.32 0.52 0 0.36 0.52 0 0.4 0.52 0 0.44 0.52 0 0.48 0.52 0 0.52 0.52 0 0.56 0.52 0 0.6 0.52 0 0.64 0.52 0 0.68 0.52 0 0.72 0.52 0 0.76 0.52 0 0.8 0.52 0 0.84 0.52 0 0.88 0.52 0 0.92 0.52 0 0.96 0.52 0 1 0.52 0 1.04 0.52 0 1.08 0.52 0 1.12 0.52 0 1.16 0.52 0 1.2 0.52 0 0 0.56 0 0.04 0.56 0 0.08 0.56 0 0.12 0.56 0 0.16 0.56 0 0.2 0.56 0 0.24 0.56 0 0.28 0.56 0 0.32 0.56 0 0.36 0.56 0 0.4 0.56 0 0.44 0.56 0 0.48 0.56 0 0.52 0.56 0 0.56 0.56 0 0.6 0.56 0 0.64 0.56 0 0.68 0.56 0 0.72 0.56 0 0.76 0.56 0 0.8 0.56 0 0.84 0.56 0 0.88 0.56 0 0.92 0.56 0 0.96 0.56 0 1 0.56 0 1.04 0.56 0 1.08 0.56 0 1.12 0.56 0 1.16 0.56 0 1.2 0.56 0 0 0.6 0 0.04 0.6 0 0.08 0.6 0 0.12 0.6 0 0.16 0.6 0 0.2 0.6 0 0.24 0.6 0 0.28 0.6 0 0.32 0.6 0 0.36 0.6 0 0.4 0.6 0 0.44 0.6 0 0.48 0.6 0 0.52 0.6 0 0.56 0.6 0 0.6 0.6 0 0.64 0.6 0 0.68 0.6 0 0.72 0.6 0 0.76 0.6 0 0.8 0.6 0 0.84 0.6 0 0.88 0.6 0 0.92 0.6 0 0.96 0.6 0 1 0.6 0 1.04 0.6 0 1.08 0.6 0 1.12 0.6 0 1.16 0.6 0 1.2 0.6 0 0 0.64 0 0.04 0.64 0 0.08 0.64 0 0.12 0.64 0 0.16 0.64 0 0.2 0.64 0 0.24 0.64 0 0.28 0.64 0 0.32 0.64 0 0.36 0.64 0 0.4 0.64 0 0.44 0.64 0 0.48 0.64 0 0.52 0.64 0 0.56 0.64 0 0.6 0.64 0 0.64 0.64 0 0.68 0.64 0 0.72 0.64 0 0.76 0.64 0 0.8 0.64 0 0.84 0.64 0 0.88 0.64 0 0.92 0.64 0 0.96 0.64 0 1 0.64 0 1.04 0.64 0 1.08 0.64 0 1.12 0.64 0 1.16 0.64 0 1.2 0.64 0 0 0.68 0 0.04 0.68 0 0.08 0.68 0 0.12 0.68 0 0.16 0.68 0 0.2 0.68 0 0.24 0.68 0 0.28 0.68 0 0.32 0.68 0 0.36 0.68 0 0.4 0.68 0 0.44 0.68 0 0.48 0.68 0 0.52 0.68 0 0.56 0.68 0 0.6 0.68 0 0.64 0.68 0 0.68 0.68 0 0.72 0.68 0 0.76 0.68 0 0.8 0.68 0 0.84 0.68 0 0.88 0.68 0 0.92 0.68 0 0.96 0.68 0 1 0.68 0 1.04 0.68 0 1.08 0.68 0 1.12 0.68 0 1.16 0.68 0 1.2 0.68 0 0 0.72 0 0.04 0.72 0 0.08 0.72 0 0.12 0.72 0 0.16 0.72 0 0.2 0.72 0 0.24 0.72 0 0.28 0.72 0 0.32 0.72 0 0.36 0.72 0 0.4 0.72 0 0.44 0.72 0 0.48 0.72 0 0.52 0.72 0 0.56 0.72 0 0.6 0.72 0 0.64 0.72 0 0.68 0.72 0 0.72 0.72 0 0.76 0.72 0 0.8 0.72 0 0.84 0.72 0 0.88 0.72 0 0.92 0.72 0 0.96 0.72 0 1 0.72 0 1.04 0.72 0 1.08 0.72 0 1.12 0.72 0 1.16 0.72 0 1.2 0.72 0 0 0.76 0 0.04 0.76 0 0.08 0.76 0 0.12 0.76 0 0.16 0.76 0 0.2 0.76 0 0.24 0.76 0 0.28 0.76 0 0.32 0.76 0 0.36 0.76 0 0.4 0.76 0 0.44 0.76 0 0.48 0.76 0 0.52 0.76 0 0.56 0.76 0 0.6 0.76 0 0.64 0.76 0 0.68 0.76 0 0.72 0.76 0 0.76 0.76 0 0.8 0.76 0 0.84 0.76 0 0.88 0.76 0 0.92 0.76 0 0.96 0.76 0 1 0.76 0 1.04 0.76 0 1.08 0.76 0 1.12 0.76 0 1.16 0.76 0 1.2 0.76 0 0 0.8 0 0.04 0.8 0 0.08 0.8 0 0.12 0.8 0 0.16 0.8 0 0.2 0.8 0 0.24 0.8 0 0.28 0.8 0 0.32 0.8 0 0.36 0.8 0 0.4 0.8 0 0.44 0.8 0 0.48 0.8 0 0.52 0.8 0 0.56 0.8 0 0.6 0.8 0 0.64 0.8 0 0.68 0.8 0 0.72 0.8 0 0.76 0.8 0 0.8 0.8 0 0.84 0.8 0 0.88 0.8 0 0.92 0.8 0 0.96 0.8 0 1 0.8 0 1.04 0.8 0 1.08 0.8 0 1.12 0.8 0 1.16 0.8 0 1.2 0.8 0 0 0.84 0 0.04 0.84 0 0.08 0.84 0 0.12 0.84 0 0.16 0.84 0 0.2 0.84 0 0.24 0.84 0 0.28 0.84 0 0.32 0.84 0 0.36 0.84 0 0.4 0.84 0 0.44 0.84 0 0.48 0.84 0 0.52 0.84 0 0.56 0.84 0 0.6 0.84 0 0.64 0.84 0 0.68 0.84 0 0.72 0.84 0 0.76 0.84 0 0.8 0.84 0 0.84 0.84 0 0.88 0.84 0 0.92 0.84 0 0.96 0.84 0 1 0.84 0 1.04 0.84 0 1.08 0.84 0 1.12 0.84 0 1.16 0.84 0 1.2 0.84 0 0 0.88 0 0.04 0.88 0 0.08 0.88 0 0.12 0.88 0 0.16 0.88 0 0.2 0.88 0 0.24 0.88 0 0.28 0.88 0 0.32 0.88 0 0.36 0.88 0 0.4 0.88 0 0.44 0.88 0 0.48 0.88 0 0.52 0.88 0 0.56 0.88 0 0.6 0.88 0 0.64 0.88 0 0.68 0.88 0 0.72 0.88 0 0.76 0.88 0 0.8 0.88 0 0.84 0.88 0 0.88 0.88 0 0.92 0.88 0 0.96 0.88 0 1 0.88 0 1.04 0.88 0 1.08 0.88 0 1.12 0.88 0 1.16 0.88 0 1.2 0.88 0 0 0.92 0 0.04 0.92 0 0.08 0.92 0 0.12 0.92 0 0.16 0.92 0 0.2 0.92 0 0.24 0.92 0 0.28 0.92 0 0.32 0.92 0 0.36 0.92 0 0.4 0.92 0 0.44 0.92 0 0.48 0.92 0 0.52 0.92 0 0.56 0.92 0 0.6 0.92 0 0.64 0.92 0 0.68 0.92 0 0.72 0.92 0 0.76 0.92 0 0.8 0.92 0 0.84 0.92 0 0.88 0.92 0 0.92 0.92 0 0.96 0.92 0 1 0.92 0 1.04 0.92 0 1.08 0.92 0 1.12 0.92 0 1.16 0.92 0 1.2 0.92 0 0 0.96 0 0.04 0.96 0 0.08 0.96 0 0.12 0.96 0 0.16 0.96 0 0.2 0.96 0 0.24 0.96 0 0.28 0.96 0 0.32 0.96 0 0.36 0.96 0 0.4 0.96 0 0.44 0.96 0 0.48 0.96 0 0.52 0.96 0 0.56 0.96 0 0.6 0.96 0 0.64 0.96 0 0.68 0.96 0 0.72 0.96 0 0.76 0.96 0 0.8 0.96 0 0.84 0.96 0 0.88 0.96 0 0.92 0.96 0 0.96 0.96 0 1 0.96 0 1.04 0.96 0 1.08 0.96 0 1.12 0.96 0 1.16 0.96 0 1.2 0.96 0 0 1 0 0.04 1 0 0.08 1 0 0.12 1 0 0.16 1 0 0.2 1 0 0.24 1 0 0.28 1 0 0.32 1 0 0.36 1 0 0.4 1 0 0.44 1 0 0.48 1 0 0.52 1 0 0.56 1 0 0.6 1 0 0.64 1 0 0.68 1 0 0.72 1 0 0.76 1 0 0.8 1 0 0.84 1 0 0.88 1 0 0.92 1 0 0.96 1 0 1 1 0 1.04 1 0 1.08 1 0 1.12 1 0 1.16 1 0 1.2 1 0 0 1.04 0 0.04 1.04 0 0.08 1.04 0 0.12 1.04 0 0.16 1.04 0 0.2 1.04 0 0.24 1.04 0 0.28 1.04 0 0.32 1.04 0 0.36 1.04 0 0.4 1.04 0 0.44 1.04 0 0.48 1.04 0 0.52 1.04 0 0.56 1.04 0 0.6 1.04 0 0.64 1.04 0 0.68 1.04 0 0.72 1.04 0 0.76 1.04 0 0.8 1.04 0 0.84 1.04 0 0.88 1.04 0 0.92 1.04 0 0.96 1.04 0 1 1.04 0 1.04 1.04 0 1.08 1.04 0 1.12 1.04 0 1.16 1.04 0 1.2 1.04 0 0 1.08 0 0.04 1.08 0 0.08 1.08 0 0.12 1.08 0 0.16 1.08 0 0.2 1.08 0 0.24 1.08 0 0.28 1.08 0 0.32 1.08 0 0.36 1.08 0 0.4 1.08 0 0.44 1.08 0 0.48 1.08 0 0.52 1.08 0 0.56 1.08 0 0.6 1.08 0 0.64 1.08 0 0.68 1.08 0 0.72 1.08 0 0.76 1.08 0 0.8 1.08 0 0.84 1.08 0 0.88 1.08 0 0.92 1.08 0 0.96 1.08 0 1 1.08 0 1.04 1.08 0 1.08 1.08 0 1.12 1.08 0 1.16 1.08 0 1.2 1.08 0 0 1.12 0 
[...]
			<CellData Scalars="Density">
				<DataArray Name="Density" type="Float32" format="ascii">
 0.00726602 0.00782087 0.00913861 0.0113732 0.0145426 0.018706 0.02397 0.0305182 0.0386707 0.0489251 0.0620381 0.0791477 0.102 0.133323 0.177213 0.240001 0.331912 0.470348 0.686028 1.02709 1.53115 2.15399 2.57367 2.37996 1.5005 1.07284 1.00793 1.00008 1 1 0.00782255 0.00840449 0.00971683 0.0120364 0.0154312 0.0200042 0.0258951 0.0332922 0.0425141 0.0540219 0.0685392 0.0871099 0.111374 0.14389 0.188467 0.251531 0.343029 0.478577 0.68463 1.00859 1.50259 2.10546 2.50124 2.32698 1.48151 1.07437 1.00806 1.00008 1 1 0.00914169 0.0097193 0.0109491 0.0132538 0.016725 0.0215085 0.0277843 0.0357699 0.0457987 0.0583689 0.0742139 0.0944551 0.120783 0.155787 0.203565 0.270414 0.366877 0.510451 0.729563 1.07398 1.58722 2.20209 2.54684 2.2882 1.42073 1.07029 1.00756 1.00007 1 1 0.0113771 0.0120414 0.0132605 0.0157828 0.019677 0.0251243 0.0323936 0.0417291 0.0535444 0.0683455 0.0869834 0.11057 0.140967 0.180849 0.234369 0.308237 0.412739 0.566057 0.801366 1.1688 1.69005 2.25504 2.49042 2.1628 1.33053 1.05607 1.00588 1.00004 1 1 0.014547 0.0154377 0.0167394 0.0196919 0.0243274 0.0308222 0.0395454 0.0507835 0.064991 0.0827906 0.105011 0.133025 0.16864 0.215118 0.276875 0.361432 0.481893 0.657322 0.924045 1.33293 1.88267 2.41451 2.5137 1.99241 1.21601 1.03984 1.0035 1.00002 1 1 0.0187096 0.0200091 0.0215268 0.0251442 0.0308372 0.0387368 0.0492574 0.0627413 0.0796726 0.100757 0.127069 0.159987 0.201994 0.256174 0.32853 0.426752 0.566659 0.7726 1.08249 1.55345 2.13097 2.5729 2.51643 1.73638 1.13426 1.02518 1.0016 1 1 1 0.0239752 0.0258986 0.027808 0.0324196 0.039563 0.0492947 0.0620886 0.0782567 0.0984641 0.123378 0.154399 0.193182 0.24244 0.306579 0.391779 0.509847 0.678393 0.928778 1.31134 1.8591 2.43512 2.70531 2.36205 1.44877 1.08748 1.01324 1.00039 1 1 1 0.0305241 0.0332973 0.0357956 0.0417687 0.0508207 0.0627973 0.078345 0.0977115 0.121638 0.151111 0.187471 0.233136 0.29121 0.366957 0.468803 0.609995 0.81607 1.12229 1.59105 2.18739 2.68005 2.71834 1.98333 1.22122 1.04538 1.00473 1.00005 1 1 1 0.0386794 0.0425137 0.0458313 0.0535718 0.0650509 0.0798013 0.0986015 0.121797 0.150173 0.184847 0.227834 0.281506 0.350588 0.441541 0.564925 0.740437 0.998489 1.38956 1.95569 2.54991 2.83691 2.48824 1.53438 1.11037 1.02023 1.00099 1 1 1 1 0.0489339 0.0540239 0.0583937 0.0683768 0.0828021 0.100907 0.123656 0.151318 0.18506 0.226176 0.276968 0.341263 0.4238 0.534548 0.688088 0.907809 1.23621 1.73151 2.34842 2.81113 2.81282 1.97039 1.2341 1.05061 1.00596 1.00009 1 1 1 1 0.0620485 0.0685297 0.0742407 0.0869598 0.105002 0.127129 0.15461 0.187841 0.228039 0.277193 0.338162 0.415638 0.517429 0.654855 0.849673 1.13587 1.56393 2.15706 2.74685 2.91352 2.41715 1.45973 1.10232 1.01955 1.00099 1 1 1 1 1 0.0791594 0.0871065 0.0944766 0.110556 0.132891 0.160001 0.193326 0.233351 0.281911 0.341406 0.415894 0.511928 0.639407 0.817571 1.07064 1.44923 2.00762 2.61246 2.95752 2.72139 1.79176 1.1884 1.0427 1.00457 1.00006 1 1 1 1 1 0.102014 0.111372 0.120823 0.140931 0.168569 0.201818 0.242436 0.291413 0.350704 0.424302 0.517517 0.639913 0.806423 1.04104 1.38827 1.89279 2.51009 2.97017 2.9219 2.08636 1.30038 1.07463 1.01254 1.00045 1 1 1 1 1 1 0.13334 0.143882 0.155843 0.180888 0.214959 0.256113 0.306356 0.36688 0.441543 0.534419 0.655543 0.817794 1.04157 1.3635 1.83854 2.43851 2.92565 2.99953 2.33736 1.46359 1.11296 1.02498 1.00184 1.00001 1 1 1 1 1 1 0.177234 0.188481 0.203609 0.234439 0.276997 0.328315 0.39183 0.468769 0.564953 0.687975 0.849686 1.07193 1.38871 1.83892 2.40096 2.92988 3.05321 2.52825 1.60023 1.15022 1.04032 1.00458 1.00007 1 1 1 1 1 1 1 0.240025 0.251541 0.270492 0.308244 0.361472 0.427133 0.509432 0.61019 0.739978 0.907348 1.13524 1.44845 1.89187 2.43877 2.93051 3.03945 2.60161 1.68951 1.19879 1.0544 1.00815 1.00025 1 1 1 1 1 1 1 1 0.331944 0.343036 0.366921 0.412875 0.481697 0.566585 0.678866 0.815927 0.999166 1.23542 1.56498 2.00762 2.50937 2.92636 3.05218 2.60214 1.75112 1.21805 1.06328 1.01193 1.00056 1 1 1 1 1 1 1 1 1 0.470375 0.478625 0.510504 0.566159 0.657703 0.772532 0.928994 1.12275 1.39001 1.7322 2.15833 2.61297 2.97032 2.99992 2.52755 1.68957 1.21811 1.0687 1.01411 1.00087 1.00001 1 1 1 1 1 1 1 1 1 0.68605 0.684663 0.729624 0.801364 0.923811 1.08248 1.31131 1.59083 1.9554 2.3481 2.74806 2.95787 2.92238 2.33748 1.60045 1.19888 1.06326 1.01412 1.00104 1.00001 1 1 1 1 1 1 1 1 1 1 1.02714 1.00861 1.07407 1.16886 1.33313 1.55313 1.85998 2.18671 2.54913 2.81056 2.91511 2.72122 2.08671 1.46358 1.15014 1.05444 1.01194 1.00086 1.00001 1 1 1 1 1 1 1 1 1 1 1 1.53119 1.50264 1.58743 1.68981 1.88277 2.13017 2.43627 2.67986 2.83662 2.8123 2.41609 1.79151 1.30048 1.11303 1.04032 1.00814 1.00056 1.00001 1 1 1 1 1 1 1 1 1 1 1 1 2.15401 2.10556 2.20237 2.25469 2.4147 2.57215 2.70631 2.71837 2.48784 1.97062 1.45947 1.18813 1.07462 1.02496 1.00458 1.00025 1 1 1 1 1 1 1 1 1 1 1 1 1 1 2.57367 2.50112 2.5472 2.49014 2.51377 2.51602 2.36227 1.98291 1.53451 1.23415 1.10234 1.04267 1.01253 1.00184 1.00007 1 1 1 1 1 1 1 1 1 1 1 1 1 1 1 2.37988 2.32673 2.28829 2.16258 1.99264 1.73589 1.44898 1.22111 1.11034 1.05061 1.01955 1.00457 1.00045 1.00001 1 1 1 1 1 1 1 1 1 1 1 1 1 1 1 1 1.50046 1.48141 1.42071 1.33048 1.21606 1.13418 1.08752 1.04538 1.02022 1.00596 1.00099 1.00006 1 1 1 1 1 1 1 1 1 1 1 1 1 1 1 1 1 1 1.07283 1.07436 1.07027 1.05606 1.03985 1.02517 1.01324 1.00473 1.00099 1.00009 1 1 1 1 1 1 1 1 1 1 1 1 1 1 1 1 1 1 1 1 1.00793 1.00806 1.00756 1.00587 1.0035 1.0016 1.00039 1.00005 1 1 1 1 1 1 1 1 1 1 1 1 1 1 1 1 1 1 1 1 1 1 1.00008 1.00008 1.00007 1.00004 1.00002 1 1 1 1 1 1 1 1 1 1 1 1 1 1 1 1 1 1 1 1 1 1 1 1 1 1 1 1 1 1 1 1 1 1 1 1 1 1 1 1 1 1 1 1 1 1 1 1 1 1 1 1 1 1 1 1 1 1 1 1 1 1 1 1 1 1 1 1 1 1 1 1 1 1 1 1 1 1 1 1 1 1 1 1 1
				</DataArray>
				<DataArray Name="Energy" type="Float32" format="ascii">
 25.6028 23.7505 20.3331 16.3452 12.79 9.95159 7.77553 6.118 4.84092 3.84122 3.04619 2.40626 1.88724 1.46611 1.12602 0.854495 0.641553 0.478373 0.356474 0.267212 0.200747 0.149441 0.106798 0.0625407 0.0180471 0.000613168 4.50779e-06 2.50017e-06 2.5e-06 2.5e-06 23.7454 22.054 19.0721 15.3975 12.013 9.27172 7.16984 5.58502 4.3841 3.46203 2.74256 2.17291 1.7162 1.34668 1.04668 0.804145 0.610534 0.459165 0.343812 0.258403 0.195165 0.14544 0.10328 0.0596468 0.0166289 0.000571333 4.41577e-06 2.50016e-06 2.5e-06 2.5e-06 20.3262 19.0673 16.9273 13.9861 11.0875 8.62751 6.68625 5.20338 4.0752 3.21117 2.54043 2.01282 1.5921 1.2536 0.979965 0.759236 0.58315 0.44468 0.337253 0.255013 0.192206 0.142326 0.0995159 0.0552876 0.0134274 0.00041362 3.80834e-06 2.50011e-06 2.5e-06 2.5e-06 16.3395 15.391 13.9795 11.7479 9.42646 7.38816 5.73733 4.46179 3.48734 2.74328 2.16922 1.72102 1.36654 1.08258 0.854173 0.670035 0.522186 0.40416 0.311439 0.239604 0.18337 0.13671 0.0948112 0.0508804 0.0102705 0.000258096 3.15516e-06 2.50006e-06 2.5e-06 2.5e-06 12.7862 12.0079 11.0778 9.41989 7.62884 6.02573 4.70329 3.67059 2.87737 2.26998 1.80155 1.43609 1.14746 0.916622 0.7305 0.579886 0.458336 0.36028 0.282045 0.219999 0.169791 0.126791 0.0855017 0.0415016 0.00560931 9.86862e-05 2.65981e-06 2.50002e-06 2.5e-06 2.5e-06 9.94965 9.26953 8.62007 7.38203 6.02352 4.80017 3.78052 2.97614 2.35235 1.87046 1.49529 1.20056 0.966326 0.777901 0.6253 0.500665 0.399511 0.317359 0.250966 0.19784 0.153003 0.113446 0.0730199 0.0284021 0.0020042 2.12382e-05 2.51599e-06 2.5e-06 2.5e-06 2.5e-06 7.77399 7.16871 6.68075 5.73246 4.70071 3.77849 3.00581 2.39181 1.9102 1.53398 1.23771 1.00192 0.812879 0.6596 0.534471 0.431899 0.347792 0.278851 0.222644 0.176551 0.135697 0.0976311 0.0565522 0.0141975 0.000461414 4.47355e-06 2.50097e-06 2.5e-06 2.5e-06 2.5e-06 6.11675 5.5845 5.19947 4.45799 3.66768 2.97282 2.3898 1.92346 1.55371 1.26114 1.02787 0.839916 0.686957 0.56188 0.458767 0.373304 0.302858 0.244344 0.196381 0.155122 0.117381 0.0794943 0.0362819 0.00396209 6.06413e-05 2.60655e-06 2.50005e-06 2.5e-06 2.5e-06 2.5e-06 4.83999 4.38399 4.07265 3.48522 2.8752 2.34858 1.90689 1.55209 1.2678 1.04016 0.85618 0.706095 0.582598 0.480174 0.395131 0.324245 0.264835 0.215204 0.173646 0.135497 0.099166 0.0593356 0.0165173 0.000644306 6.25942e-06 2.50334e-06 2.5e-06 2.5e-06 2.5e-06 2.5e-06 3.84049 3.46216 3.20963 2.74249 2.26926 1.86787 1.5309 1.25896 1.03932 0.861471 0.715864 0.595532 0.495257 0.411401 0.340795 0.28141 0.231222 0.18858 0.151047 0.115189 0.078412 0.0348603 0.00386504 6.19577e-05 2.63272e-06 2.50011e-06 2.5e-06 2.5e-06 2.5e-06 2.5e-06 3.04576 2.74282 2.53962 2.16952 1.80221 1.49439 1.23583 1.02613 0.85513 0.715485 0.59984 0.503133 0.421476 0.352485 0.293973 0.243906 0.201402 0.164269 0.129323 0.0938885 0.0538434 0.0127412 0.000436925 4.89996e-06 2.50298e-06 2.5e-06 2.5e-06 2.5e-06 2.5e-06 2.5e-06 2.40593 2.17315 2.01224 1.72151 1.43726 1.20091 1.00144 0.839087 0.705453 0.595196 0.503041 0.425258 0.358671 0.301806 0.252908 0.210763 0.174329 0.140255 0.106418 0.0691259 0.0258547 0.0020196 2.63832e-05 2.55258e-06 2.50006e-06 2.5e-06 2.5e-06 2.5e-06 2.5e-06 2.5e-06 1.887 1.71628 1.59165 1.36669 1.14828 0.966959 0.812988 0.686932 0.582399 0.495231 0.421464 0.358719 0.304668 0.25748 0.216633 0.181185 0.14831 0.115892 0.080782 0.0387253 0.00576035 0.000134023 3.01601e-06 2.50085e-06 2.5e-06 2.5e-06 2.5e-06 2.5e-06 2.5e-06 2.5e-06 1.46591 1.3467 1.2532 1.08249 0.916889 0.778282 0.659794 0.561942 0.480228 0.411459 0.352697 0.301872 0.257556 0.218747 0.184453 0.15302 0.122014 0.0889034 0.0495122 0.0113621 0.000447095 5.69944e-06 2.50778e-06 2.50001e-06 2.5e-06 2.5e-06 2.5e-06 2.5e-06 2.5e-06 2.5e-06 1.12588 1.04669 0.97971 0.853931 0.730508 0.625301 0.53451 0.458883 0.39514 0.340873 0.294116 0.253113 0.216695 0.184471 0.154732 0.125367 0.094121 0.0568571 0.01702 0.00106481 1.48886e-05 2.54002e-06 2.50008e-06 2.5e-06 2.5e-06 2.5e-06 2.5e-06 2.5e-06 2.5e-06 2.5e-06 0.854392 0.8041 0.759083 0.66993 0.579784 0.500667 0.431675 0.373228 0.324116 0.281272 0.243904 0.210724 0.181183 0.15304 0.125367 0.0955005 0.0606132 0.0211692 0.00192332 3.38324e-05 2.63021e-06 2.50037e-06 2.5e-06 2.5e-06 2.5e-06 2.5e-06 2.5e-06 2.5e-06 2.5e-06 2.5e-06 0.641476 0.610481 0.583008 0.522115 0.458251 0.399433 0.347777 0.302779 0.264821 0.231084 0.201412 0.174329 0.148306 0.122009 0.0941319 0.0606182 0.0227544 0.00247581 5.6322e-05 2.80087e-06 2.50112e-06 2.5e-06 2.5e-06 2.5e-06 2.5e-06 2.5e-06 2.5e-06 2.5e-06 2.5e-06 2.5e-06 0.478318 0.45912 0.444601 0.404114 0.360291 0.317366 0.278887 0.244382 0.215212 0.188584 0.164296 0.140254 0.115905 0.0889102 0.0568592 0.0211696 0.00247794 6.72582e-05 2.94694e-06 2.50219e-06 2.50001e-06 2.5e-06 2.5e-06 2.5e-06 2.5e-06 2.5e-06 2.5e-06 2.5e-06 2.5e-06 2.5e-06 0.356441 0.34378 0.337201 0.311399 0.28198 0.250903 0.222644 0.196378 0.17364 0.151051 0.129328 0.106409 0.0807848 0.049521 0.0170304 0.00192457 5.62434e-05 2.94777e-06 2.50282e-06 2.50001e-06 2.5e-06 2.5e-06 2.5e-06 2.5e-06 2.5e-06 2.5e-06 2.5e-06 2.5e-06 2.5e-06 2.5e-06 0.267191 0.25838 0.254987 0.239592 0.220008 0.1978 0.176562 0.15509 0.135485 0.115174 0.0938854 0.0691214 0.0387254 0.011364 0.00106374 3.3887e-05 2.80137e-06 2.50218e-06 2.50001e-06 2.5e-06 2.5e-06 2.5e-06 2.5e-06 2.5e-06 2.5e-06 2.5e-06 2.5e-06 2.5e-06 2.5e-06 2.5e-06 0.200733 0.195148 0.192195 0.183353 0.169787 0.152966 0.135709 0.117365 0.0991634 0.0784113 0.0538315 0.025857 0.00575977 0.000447457 1.49082e-05 2.63003e-06 2.50112e-06 2.50001e-06 2.5e-06 2.5e-06 2.5e-06 2.5e-06 2.5e-06 2.5e-06 2.5e-06 2.5e-06 2.5e-06 2.5e-06 2.5e-06 2.5e-06 0.149431 0.145428 0.142319 0.136693 0.126793 0.113423 0.0976314 0.0794777 0.0593219 0.0348646 0.0127218 0.00201608 0.000134094 5.69385e-06 2.54005e-06 2.50037e-06 2.5e-06 2.5e-06 2.5e-06 2.5e-06 2.5e-06 2.5e-06 2.5e-06 2.5e-06 2.5e-06 2.5e-06 2.5e-06 2.5e-06 2.5e-06 2.5e-06 0.10679 0.10327 0.0995115 0.0947987 0.0855051 0.0730135 0.0565485 0.0362759 0.0165199 0.00386491 0.000436593 2.62891e-05 3.0151e-06 2.50779e-06 2.50008e-06 2.5e-06 2.5e-06 2.5e-06 2.5e-06 2.5e-06 2.5e-06 2.5e-06 2.5e-06 2.5e-06 2.5e-06 2.5e-06 2.5e-06 2.5e-06 2.5e-06 2.5e-06 0.0625353 0.059637 0.055284 0.050871 0.0414987 0.0283978 0.0141925 0.00396007 0.000644582 6.19171e-05 4.89857e-06 2.55257e-06 2.50085e-06 2.50001e-06 2.5e-06 2.5e-06 2.5e-06 2.5e-06 2.5e-06 2.5e-06 2.5e-06 2.5e-06 2.5e-06 2.5e-06 2.5e-06 2.5e-06 2.5e-06 2.5e-06 2.5e-06 2.5e-06 0.0180443 0.0166235 0.0134251 0.0102687 0.00560811 0.00200408 0.000461321 6.05564e-05 6.2601e-06 2.6329e-06 2.50298e-06 2.50006e-06 2.5e-06 2.5e-06 2.5e-06 2.5e-06 2.5e-06 2.5e-06 2.5e-06 2.5e-06 2.5e-06 2.5e-06 2.5e-06 2.5e-06 2.5e-06 2.5e-06 2.5e-06 2.5e-06 2.5e-06 2.5e-06 0.000613025 0.000571086 0.000413437 0.000258012 9.86494e-05 2.12298e-05 4.47335e-06 2.60651e-06 2.50333e-06 2.50011e-06 2.5e-06 2.5e-06 2.5e-06 2.5e-06 2.5e-06 2.5e-06 2.5e-06 2.5e-06 2.5e-06 2.5e-06 2.5e-06 2.5e-06 2.5e-06 2.5e-06 2.5e-06 2.5e-06 2.5e-06 2.5e-06 2.5e-06 2.5e-06 4.50693e-06 4.41454e-06 3.80729e-06 3.15467e-06 2.65969e-06 2.51599e-06 2.50097e-06 2.50005e-06 2.5e-06 2.5e-06 2.5e-06 2.5e-06 2.5e-06 2.5e-06 2.5e-06 2.5e-06 2.5e-06 2.5e-06 2.5e-06 2.5e-06 2.5e-06 2.5e-06 2.5e-06 2.5e-06 2.5e-06 2.5e-06 2.5e-06 2.5e-06 2.5e-06 2.5e-06 2.50017e-06 2.50016e-06 2.50011e-06 2.50006e-06 2.50002e-06 2.5e-06 2.5e-06 2.5e-06 2.5e-06 2.5e-06 2.5e-06 2.5e-06 2.5e-06 2.5e-06 2.5e-06 2.5e-06 2.5e-06 2.5e-06 2.5e-06 2.5e-06 2.5e-06 2.5e-06 2.5e-06 2.5e-06 2.5e-06 2.5e-06 2.5e-06 2.5e-06 2.5e-06 2.5e-06 2.5e-06 2.5e-06 2.5e-06 2.5e-06 2.5e-06 2.5e-06 2.5e-06 2.5e-06 2.5e-06 2.5e-06 2.5e-06 2.5e-06 2.5e-06 2.5e-06 2.5e-06 2.5e-06 2.5e-06 2.5e-06 2.5e-06 2.5e-06 2.5e-06 2.5e-06 2.5e-06 2.5e-06 2.5e-06 2.5e-06 2.5e-06 2.5e-06 2.5e-06 2.5e-06 2.5e-06 2.5e-06 2.5e-06 2.5e-06 2.5e-06 2.5e-06 2.5e-06 2.5e-06 2.5e-06 2.5e-06 2.5e-06 2.5e-06 2.5e-06 2.5e-06 2.5e-06 2.5e-06 2.5e-06 2.5e-06 2.5e-06 2.5e-06 2.5e-06 2.5e-06 2.5e-06 2.5e-06 2.5e-06 2.5e-06 2.5e-06 2.5e-06 2.5e-06 2.5e-06
				</DataArray>
				<DataArray Name="F1" type="Float32" format="ascii">
 1 1 1 1 1 1 1 1 1 1 1 1 1 1 1 1 1 1 1 1 1 1 1 1 1 1 1 1 1 1 1 1 1 1 1 1 1 1 1 1 1 1 1 1 1 1 1 1 1 1 1 1 1 1 1 1 1 1 1 1 1 1 1 1 1 1 1 1 1 1 1 1 1 1 1 1 1 1 1 1 1 1 1 1 1 1 1 1 1 1 1 1 1 1 1 1 1 1 1 1 1 1 1 1 1 1 1 1 1 1 1 1 1 1 1 1 1 1 1 1 1 1 1 1 1 1 1 1 1 1 1 1 1 1 1 1 1 1 1 1 1 1 1 1 1 1 1 1 1 1 1 1 1 1 1 1 1 1 1 1 1 1 1 1 1 1 1 1 1 1 1 1 1 1 1 1 1 1 1 1 1 1 1 1 1 1 1 1 1 1 1 1 1 1 1 1 1 1 1 1 1 1 1 1 1 1 1 1 1 1 1 1 1 1 1 1 1 1 1 1 1 1 1 1 1 1 1 1 1 1 1 1 1 1 1 1 1 1 1 1 1 1 1 1 1 1 1 1 1 1 1 1 1 1 1 1 1 1 1 1 1 1 1 1 1 1 1 1 1 1 1 1 1 1 1 1 1 1 1 1 1 1 1 1 1 1 1 1 1 1 1 1 1 1 1 1 1 1 1 1 1 1 1 1 1 1 1 1 1 1 1 1 1 1 1 1 1 1 1 1 1 1 1 1 1 1 1 1 1 1 1 1 1 1 1 1 1 1 1 1 1 1 1 1 1 1 1 1 1 1 1 1 1 1 1 1 1 1 1 1 1 1 1 1 1 1 1 1 1 1 1 1 1 1 1 1 1 1 1 1 1 1 1 1 1 1 1 1 1 1 1 1 1 1 1 1 1 1 1 1 1 1 1 1 1 1 1 1 1 1 1 1 1 1 1 1 1 1 1 1 1 1 1 1 1 1 1 1 1 1 1 1 1 1 1 1 1 1 1 1 1 1 1 1 1 1 1 1 1 1 1 1 1 1 1 1 1 1 1 1 1 1 1 1 1 1 1 1 1 1 1 1 1 1 1 1 1 1 1 1 1 1 1 1 1 1 1 1 1 1 1 1 1 1 1 1 1 1 1 1 1 1 1 1 1 1 1 1 1 1 1 1 1 1 1 1 1 1 1 1 1 1 1 1 1 1 1 1 1 1 1 1 1 1 1 1 1 1 1 1 1 1 1 1 1 1 1 1 1 1 1 1 1 1 1 1 1 1 1 1 1 1 1 1 1 1 1 1 1 1 1 1 1 1 1 1 1 1 1 1 1 1 1 1 1 1 1 1 1 1 1 1 1 1 1 1 1 1 1 1 1 1 1 1 1 1 1 1 1 1 1 1 1 1 1 1 1 1 1 1 1 1 1 1 1 1 1 1 1 1 1 1 1 1 1 1 1 1 1 1 1 1 1 1 1 1 1 1 1 1 1 1 1 1 1 1 1 1 1 1 1 1 1 1 1 1 1 1 1 1 1 1 1 1 1 1 1 1 1 1 1 1 1 1 1 1 1 1 1 1 1 1 1 1 1 1 1 1 1 1 1 1 1 1 1 1 1 1 1 1 1 1 1 1 1 1 1 1 1 1 1 1 1 1 1 1 1 1 1 1 1 1 1 1 1 1 1 1 1 1 1 1 1 1 1 1 1 1 1 1 1 1 1 1 1 1 1 1 1 1 1 1 1 1 1 1 1 1 1 1 1 1 1 1 1 1 1 1 1 1 1 1 1 1 1 1 1 1 1 1 1 1 1 1 1 1 1 1 1 1 1 1 1 1 1 1 1 1 1 1 1 1 1 1 1 1 1 1 1 1 1 1 1 1 1 1 1 1 1 1 1 1 1 1 1 1 1 1 1 1 1 1 1 1 1 1 1 1 1 1 1 1 1 1 1 1 1 1 1 1 1 1 1 1 1 1 1 1 1 1 1 1 1 1 1 1 1 1 1 1 1 1 1 1 1 1 1 1 1 1 1 1 1 1 1 1 1 1 1 1
				</DataArray>
				<DataArray Name="F2" type="Float32" format="ascii">
 0 0 0 0 0 0 0 0 0 0 0 0 0 0 0 0 0 0 0 0 0 0 0 0 0 0 0 0 0 0 0 0 0 0 0 0 0 0 0 0 0 0 0 0 0 0 0 0 0 0 0 0 0 0 0 0 0 0 0 0 0 0 0 0 0 0 0 0 0 0 0 0 0 0 0 0 0 0 0 0 0 0 0 0 0 0 0 0 0 0 0 0 0 0 0 0 0 0 0 0 0 0 0 0 0 0 0 0 0 0 0 0 0 0 0 0 0 0 0 0 0 0 0 0 0 0 0 0 0 0 0 0 0 0 0 0 0 0 0 0 0 0 0 0 0 0 0 0 0 0 0 0 0 0 0 0 0 0 0 0 0 0 0 0 0 0 0 0 0 0 0 0 0 0 0 0 0 0 0 0 0 0 0 0 0 0 0 0 0 0 0 0 0 0 0 0 0 0 0 0 0 0 0 0 0 0 0 0 0 0 0 0 0 0 0 0 0 0 0 0 0 0 0 0 0 0 0 0 0 0 0 0 0 0 0 0 0 0 0 0 0 0 0 0 0 0 0 0 0 0 0 0 0 0 0 0 0 0 0 0 0 0 0 0 0 0 0 0 0 0 0 0 0 0 0 0 0 0 0 0 0 0 0 0 0 0 0 0 0 0 0 0 0 0 0 0 0 0 0 0 0 0 0 0 0 0 0 0 0 0 0 0 0 0 0 0 0 0 0 0 0 0 0 0 0 0 0 0 0 0 0 0 0 0 0 0 0 0 0 0 0 0 0 0 0 0 0 0 0 0 0 0 0 0 0 0 0 0 0 0 0 0 0 0 0 0 0 0 0 0 0 0 0 0 0 0 0 0 0 0 0 0 0 0 0 0 0 0 0 0 0 0 0 0 0 0 0 0 0 0 0 0 0 0 0 0 0 0 0 0 0 0 0 0 0 0 0 0 0 0 0 0 0 0 0 0 0 0 0 0 0 0 0 0 0 0 0 0 0 0 0 0 0 0 0 0 0 0 0 0 0 0 0 0 0 0 0 0 0 0 0 0 0 0 0 0 0 0 0 0 0 0 0 0 0 0 0 0 0 0 0 0 0 0 0 0 0 0 0 0 0 0 0 0 0 0 0 0 0 0 0 0 0 0 0 0 0 0 0 0 0 0 0 0 0 0 0 0 0 0 0 0 0 0 0 0 0 0 0 0 0 0 0 0 0 0 0 0 0 0 0 0 0 0 0 0 0 0 0 0 0 0 0 0 0 0 0 0 0 0 0 0 0 0 0 0 0 0 0 0 0 0 0 0 0 0 0 0 0 0 0 0 0 0 0 0 0 0 0 0 0 0 0 0 0 0 0 0 0 0 0 0 0 0 0 0 0 0 0 0 0 0 0 0 0 0 0 0 0 0 0 0 0 0 0 0 0 0 0 0 0 0 0 0 0 0 0 0 0 0 0 0 0 0 0 0 0 0 0 0 0 0 0 0 0 0 0 0 0 0 0 0 0 0 0 0 0 0 0 0 0 0 0 0 0 0 0 0 0 0 0 0 0 0 0 0 0 0 0 0 0 0 0 0 0 0 0 0 0 0 0 0 0 0 0 0 0 0 0 0 0 0 0 0 0 0 0 0 0 0 0 0 0 0 0 0 0 0 0 0 0 0 0 0 0 0 0 0 0 0 0 0 0 0 0 0 0 0 0 0 0 0 0 0 0 0 0 0 0 0 0 0 0 0 0 0 0 0 0 0 0 0 0 0 0 0 0 0 0 0 0 0 0 0 0 0 0 0 0 0 0 0 0 0 0 0 0 0 0 0 0 0 0 0 0 0 0 0 0 0 0 0 0 0 0 0 0 0 0 0 0 0 0 0 0 0 0 0 0 0 0 0 0 0 0 0 0 0 0 0 0 0 0 0 0 0 0 0 0 0 0 0 0 0 0 0 0 0 0 0 0 0 0 0 0 0 0 0 0 0 0 0 0 0 0 0 0 0 0 0 0 0 0 0 0 0 0 0 0 0 0 0 0 0 0 0 0 0 0 0
				</DataArray>
				<DataArray Name="F3" type="Float32" format="ascii">
 0 0 0 0 0 0 0 0 0 0 0 0 0 0 0 0 0 0 0 0 0 0 0 0 0 0 0 0 0 0 0 0 0 0 0 0 0 0 0 0 0 0 0 0 0 0 0 0 0 0 0 0 0 0 0 0 0 0 0 0 0 0 0 0 0 0 0 0 0 0 0 0 0 0 0 0 0 0 0 0 0 0 0 0 0 0 0 0 0 0 0 0 0 0 0 0 0 0 0 0 0 0 0 0 0 0 0 0 0 0 0 0 0 0 0 0 0 0 0 0 0 0 0 0 0 0 0 0 0 0 0 0 0 0 0 0 0 0 0 0 0 0 0 0 0 0 0 0 0 0 0 0 0 0 0 0 0 0 0 0 0 0 0 0 0 0 0 0 0 0 0 0 0 0 0 0 0 0 0 0 0 0 0 0 0 0 0 0 0 0 0 0 0 0 0 0 0 0 0 0 0 0 0 0 0 0 0 0 0 0 0 0 0 0 0 0 0 0 0 0 0 0 0 0 0 0 0 0 0 0 0 0 0 0 0 0 0 0 0 0 0 0 0 0 0 0 0 0 0 0 0 0 0 0 0 0 0 0 0 0 0 0 0 0 0 0 0 0 0 0 0 0 0 0 0 0 0 0 0 0 0 0 0 0 0 0 0 0 0 0 0 0 0 0 0 0 0 0 0 0 0 0 0 0 0 0 0 0 0 0 0 0 0 0 0 0 0 0 0 0 0 0 0 0 0 0 0 0 0 0 0 0 0 0 0 0 0 0 0 0 0 0 0 0 0 0 0 0 0 0 0 0 0 0 0 0 0 0 0 0 0 0 0 0 0 0 0 0 0 0 0 0 0 0 0 0 0 0 0 0 0 0 0 0 0 0 0 0 0 0 0 0 0 0 0 0 0 0 0 0 0 0 0 0 0 0 0 0 0 0 0 0 0 0 0 0 0 0 0 0 0 0 0 0 0 0 0 0 0 0 0 0 0 0 0 0 0 0 0 0 0 0 0 0 0 0 0 0 0 0 0 0 0 0 0 0 0 0 0 0 0 0 0 0 0 0 0 0 0 0 0 0 0 0 0 0 0 0 0 0 0 0 0 0 0 0 0 0 0 0 0 0 0 0 0 0 0 0 0 0 0 0 0 0 0 0 0 0 0 0 0 0 0 0 0 0 0 0 0 0 0 0 0 0 0 0 0 0 0 0 0 0 0 0 0 0 0 0 0 0 0 0 0 0 0 0 0 0 0 0 0 0 0 0 0 0 0 0 0 0 0 0 0 0 0 0 0 0 0 0 0 0 0 0 0 0 0 0 0 0 0 0 0 0 0 0 0 0 0 0 0 0 0 0 0 0 0 0 0 0 0 0 0 0 0 0 0 0 0 0 0 0 0 0 0 0 0 0 0 0 0 0 0 0 0 0 0 0 0 0 0 0 0 0 0 0 0 0 0 0 0 0 0 0 0 0 0 0 0 0 0 0 0 0 0 0 0 0 0 0 0 0 0 0 0 0 0 0 0 0 0 0 0 0 0 0 0 0 0 0 0 0 0 0 0 0 0 0 0 0 0 0 0 0 0 0 0 0 0 0 0 0 0 0 0 0 0 0 0 0 0 0 0 0 0 0 0 0 0 0 0 0 0 0 0 0 0 0 0 0 0 0 0 0 0 0 0 0 0 0 0 0 0 0 0 0 0 0 0 0 0 0 0 0 0 0 0 0 0 0 0 0 0 0 0 0 0 0 0 0 0 0 0 0 0 0 0 0 0 0 0 0 0 0 0 0 0 0 0 0 0 0 0 0 0 0 0 0 0 0 0 0 0 0 0 0 0 0 0 0 0 0 0 0 0 0 0 0 0 0 0 0 0 0 0 0 0 0 0 0 0 0 0 0 0 0 0 0 0 0 0 0 0 0 0 0 0 0 0 0 0 0 0 0 0 0 0 0 0 0 0 0 0 0 0 0 0 0 0 0 0 0 0 0 0 0 0 0 0 0 0 0 0 0 0 0 0 0 0 0 0 0 0 0 0 0 0 0 0 0
				</DataArray>
				<DataArray Name="Pressure" type="Float32" format="ascii">