<?xml version="1.0"?>
<VTKFile type="PolyData">
	<PolyData>
		<Piece NumberOfPoints="961" NumberOfPolys="900">
			<Points>
				<DataArray type="Float32" NumberOfComponents="3" format="ascii">
 0 0 0 0.04 0 0 0.08 0 0 0.12 0 0 0.16 0 0 0.2 0 0 0.24 0 0 0.28 0 0 0.32 0 0 0.36 0 0 0.4 0 0 0.44 0 0 0.48 0 0 0.52 0 0 0.56 0 0 0.6 0 0 0.64 0 0 0.68 0 0 0.72 0 0 0.76 0 0 0.8 0 0 0.84 0 0 0.88 0 0 0.92 0 0 0.96 0 0 1 0 0 1.04 0 0 1.08 0 0 1.12 0 0 1.16 0 0 1.2 0 0 0 0.04 0 0.04 0.04 0 0.08 0.04 0 0.12 0.04 0 0.16 0.04 0 0.2 0.04 0 0.24 0.04 0 0.28 0.04 0 0.32 0.04 0 0.36 0.04 0 0.4 0.04 0 0.44 0.04 0 0.48 0.04 0 0.52 0.04 0 0.56 0.04 0 0.6 0.04 0 0.64 0.04 0 0.68 0.04 0 0.72 0.04 0 0.76 0.04 0 0.8 0.04 0 0.84 0.04 0 0.88 0.04 0 0.92 0.04 0 0.96 0.04 0 1 0.04 0 1.04 0.04 0 1.08 0.04 0 1.12 0.04 0 1.16 0.04 0 1.2 0.04 0 0 0.08 0 0.04 0.08 0 0.08 0.08 0 0.12 0.08 0 0.16 0.08 0 0.2 0.08 0 0.24 0.08 0 0.28 0.08 0 0.32 0.08 0 0.36 0.08 0 0.4 0.08 0 0.44 0.08 0 0.48 0.08 0 0.52 0.08 0 0.56 0.08 0 0.6 0.08 0 0.64 0.08 0 0.68 0.08 0 0.72 0.08 0 0.76 0.08 0 0.8 0.08 0 0.84 0.08 0 0.88 0.08 0 0.92 0.08 0 0.96 0.08 0 1 0.08 0 1.04 0.08 0 1.08 0.08 0 1.12 0.08 0 1.16 0.08 0 1.2 0.08 0 0 0.12 0 0.04 0.12 0 0.08 0.12 0 0.12 0.12 0 0.16 0.12 0 0.2 0.12 0 0.24 0.12 0 0.28 0.12 0 0.32 0.12 0 0.36 0.12 0 0.4 0.12 0 0.44 0.12 0 0.48 0.12 0 0.52 0.12 0 0.56 0.12 0 0.6 0.12 0 0.64 0.12 0 0.68 0.12 0 0.72 0.12 0 0.76 0.12 0 0.8 0.12 0 0.84 0.12 0 0.88 0.12 0 0.92 0.12 0 0.96 0.12 0 1 0.12 0 1.04 0.12 0 1.08 0.12 0 1.12 0.12 0 1.16 0.12 0 1.2 0.12 0 0 0.16 0 0.04 0.16 0 0.08 0.16 0 0.12 0.16 0 0.16 0.16 0 0.2 0.16 0 0.24 0.16 0 0.28 0.16 0 0.32 0.16 0 0.36 0.16 0 0.4 0.16 0 0.44 0.16 0 0.48 0.16 0 0.52 0.16 0 0.56 0.16 0 0.6 0.16 0 0.64 0.16 0 0.68 0.16 0 0.72 0.16 0 0.76 0.16 0 0.8 0.16 0 0.84 0.16 0 0.88 0.16 0 0.92 0.16 0 0.96 0.16 0 1 0.16 0 1.04 0.16 0 1.08 0.16 0 1.12 0.16 0 1.16 0.16 0 1.2 0.16 0 0 0.2 0 0.04 0.2 0 0.08 0.2 0 0.12 0.2 0 0.16 0.2 0 0.2 0.2 0 0.24 0.2 0 0.28 0.2 0 0.32 0.2 0 0.36 0.2 0 0.4 0.2 0 0.44 0.2 0 0.48 0.2 0 0.52 0.2 0 0.56 0.2 0 0.6 0.2 0 0.64 0.2 0 0.68 0.2 0 0.72 0.2 0 0.76 0.2 0 0.8 0.2 0 0.84 0.2 0 0.88 0.2 0 0.92 0.2 0 0.96 0.2 0 1 0.2 0 1.04 0.2 0 1.08 0.2 0 1.12 0.2 0 1.16 0.2 0 1.2 0.2 0 0 0.24 0 0.04 0.24 0 0.08 0.24 0 0.12 0.24 0 0.16 0.24 0 0.2 0.24 0 0.24 0.24 0 0.28 0.24 0 0.32 0.24 0 0.36 0.24 0 0.4 0.24 0 0.44 0.24 0 0.48 0.24 0 0.52 0.24 0 0.56 0.24 0 0.6 0.24 0 0.64 0.24 0 0.68 0.24 0 0.72 0.24 0 0.76 0.24 0 0.8 0.24 0 0.84 0.24 0 0.88 0.24 0 0.92 0.24 0 0.96 0.24 0 1 0.24 0 1.04 0.24 0 1.08 0.24 0 1.12 0.24 0 1.16 0.24 0 1.2 0.24 0 0 0.28 0 0.04 0.28 0 0.08 0.28 0 0.12 0.28 0 0.16 0.28 0 0.2 0.28 0 0.24 0.28 0 0.28 0.28 0 0.32 0.28 0 0.36 0.28 0 0.4 0.28 0 0.44 0.28 0 0.48 0.28 0 0.52 0.28 0 0.56 0.28 0 0.6 0.28 0 0.64 0.28 0 0.68 0.28 0 0.72 0.28 0 0.76 0.28 0 0.8 0.28 0 0.84 0.28 0 0.88 0.28 0 0.92 0.28 0 0.96 0.28 0 1 0.28 0 1.04 0.28 0 1.08 0.28 0 1.12 0.28 0 1.16 0.28 0 1.2 0.28 0 0 0.32 0 0.04 0.32 0 0.08 0.32 0 0.12 0.32 0 0.16 0.32 0 0.2 0.32 0 0.24 0.32 0 0.28 0.32 0 0.32 0.32 0 0.36 0.32 0 0.4 0.32 0 0.44 0.32 0 0.48 0.32 0 0.52 0.32 0 0.56 0.32 0 0.6 0.32 0 0.64 0.32 0 0.68 0.32 0 0.72 0.32 0 0.76 0.32 0 0.8 0.32 0 0.84 0.32 0 0.88 0.32 0 0.92 0.32 0 0.96 0.32 0 1 0.32 0 1.04 0.32 0 1.08 0.32 0 1.12 0.32 0 1.16 0.32 0 1.2 0.32 0 0 0.36 0 0.04 0.36 0 0.08 0.36 0 0.12 0.36 0 0.16 0.36 0 0.2 0.36 0 0.24 0.36 0 0.28 0.36 0 0.32 0.36 0 0.36 0.36 0 0.4 0.36 0 0.44 0.36 0 0.48 0.36 0 0.52 0.36 0 0.56 0.36 0 0.6 0.36 0 0.64 0.36 0 0.68 0.36 0 0.72 0.36 0 0.76 0.36 0 0.8 0.36 0 0.84 0.36 0 0.88 0.36 0 0.92 0.36 0 0.96 0.36 0 1 0.36 0 1.04 0.36 0 1.08 0.36 0 1.12 0.36 0 1.16 0.36 0 1.2 0.36 0 0 0.4 0 0.04 0.4 0 0.08 0.4 0 0.12 0.4 0 0.16 0.4 0 0.2 0.4 0 0.24 0.4 0 0.28 0.4 0 0.32 0.4 0 0.36 0.4 0 0.4 0.4 0 0.44 0.4 0 0.48 0.4 0 0.52 0.4 0 0.56 0.4 0 0.6 0.4 0 0.64 0.4 0 0.68 0.4 0 0.72 0.4 0 0.76 0.4 0 0.8 0.4 0 0.84 0.4 0 0.88 0.4 0 0.92 0.4 0 0.96 0.4 0 1 0.4 0 1.04 0.4 0 1.08 0.4 0 1.12 0.4 0 1.16 0.4 0 1.2 0.4 0 0 0.44 0 0.04 0.44 0 0.08 0.44 0 0.12 0.44 0 0.16 0.44 0 0.2 0.44 0 0.24 0.44 0 0.28 0.44 0 0.32 0.44 0 0.36 0.44 0 0.4 0.44 0 0.44 0.44 0 0.48 0.44 0 0.52 0.44 0 0.56 0.44 0 0.6 0.44 0 0.64 0.44 0 0.68 0.44 0 0.72 0.44 0 0.76 0.44 0 0.8 0.44 0 0.84 0.44 0 0.88 0.44 0 0.92 0.44 0 0.96 0.44 0 1 0.44 0 1.04 0.44 0 1.08 0.44 0 1.12 0.44 0 1.16 0.44 0 1.2 0.44 0 0 0.48 0 0.04 0.48 0 0.08 0.48 0 0.12 0.48 0 0.16 0.48 0 0.2 0.48 0 0.24 0.48 0 0.28 0.48 0 0.32 0.48 0 0.36 0.48 0 0.4 0.48 0 0.44 0.48 0 0.48 0.48 0 0.52 0.48 0 0.56 0.48 0 0.6 0.48 0 0.64 0.48 0 0.68 0.48 0 0.72 0.48 0 0.76 0.48 0 0.8 0.48 0 0.84 0.48 0 0.88 0.48 0 0.92 0.48 0 0.96 0.48 0 1 0.48 0 1.04 0.48 0 1.08 0.48 0 1.12 0.48 0 1.16 0.48 0 1.2 0.48 0 0 0.52 0 0.04 0.52 0 0.08 0.52 0 0.12 0.52 0 0.16 0.52 0 0.2 0.52 0 0.24 0.52 0 0.28 0.52 0 0.32 0.52 0 0.36 0.52 0 0.4 0.52 0 0.44 0.52 0 0.48 0.52 0 0.52 0.52 0 0.56 0.52 0 0.6 0.52 0 0.64 0.52 0 0.68 0.52 0 0.72 0.52 0 0.76 0.52 0 0.8 0.52 0 0.84 0.52 0 0.88 0.52 0 0.92 0.52 0 0.96 0.52 0 1 0.52 0 1.04 0.52 0 1.08 0.52 0 1.12 0.52 0 1.16 0.52 0 1.2 0.52 0 0 0.56 0 0.04 0.56 0 0.08 0.56 0 0.12 0.56 0 0.16 0.56 0 0.2 0.56 0 0.24 0.56 0 0.28 0.56 0 0.32 0.56 0 0.36 0.56 0 0.4 0.56 0 0.44 0.56 0 0.48 0.56 0 0.52 0.56 0 0.56 0.56 0 0.6 0.56 0 0.64 0.56 0 0.68 0.56 0 0.72 0.56 0 0.76 0.56 0 0.8 0.56 0 0.84 0.56 0 0.88 0.56 0 0.92 0.56 0 0.96 0.56 0 1 0.56 0 1.04 0.56 0 1.08 0.56 0 1.12 0.56 0 1.16 0.56 0 1.2 0.56 0 0 0.6 0 0.04 0.6 0 0.08 0.6 0 0.12 0.6 0 0.16 0.6 0 0.2 0.6 0 0.24 0.6 0 0.28 0.6 0 0.32 0.6 0 0.36 0.6 0 0.4 0.6 0 0.44 0.6 0 0.48 0.6 0 0.52 0.6 0 0.56 0.6 0 0.6 0.6 0 0.64 0.6 0 0.68 0.6 0 0.72 0.6 0 0.76 0.6 0 0.8 0.6 0 0.84 0.6 0 0.88 0.6 0 0.92 0.6 0 0.96 0.6 0 1 0.6 0 1.04 0.6 0 1.08 0.6 0 1.12 0.6 0 1.16 0.6 0 1.2 0.6 0 0 0.64 0 0.04 0.64 0 0.08 0.64 0 0.12 0.64 0 0.16 0.64 0 0.2 0.64 0 0.24 0.64 0 0.28 0.64 0 0.32 0.64 0 0.36 0.64 0 0.4 0.64 0 0.44 0.64 0 0.48 0.64 0 0.52 0.64 0 0.56 0.64 0 0.6 0.64 0 0.64 0.64 0 0.68 0.64 0 0.72 0.64 0 0.76 0.64 0 0.8 0.64 0 0.84 0.64 0 0.88 0.64 0 0.92 0.64 0 0.96 0.64 0 1 0.64 0 1.04 0.64 0 1.08 0.64 0 1.12 0.64 0 1.16 0.64 0 1.2 0.64 0 0 0.68 0 0.04 0.68 0 0.08 0.68 0 0.12 0.68 0 0.16 0.68 0 0.2 0.68 0 0.24 0.68 0 0.28 0.68 0 0.32 0.68 0 0.36 0.68 0 0.4 0.68 0 0.44 0.68 0 0.48 0.68 0 0.52 0.68 0 0.56 0.68 0 0.6 0.68 0 0.64 0.68 0 0.68 0.68 0 0.72 0.68 0 0.76 0.68 0 0.8 0.68 0 0.84 0.68 0 0.88 0.68 0 0.92 0.68 0 0.96 0.68 0 1 0.68 0 1.04 0.68 0 1.08 0.68 0 1.12 0.68 0 1.16 0.68 0 1.2 0.68 0 0 0.72 0 0.04 0.72 0 0.08 0.72 0 0.12 0.72 0 0.16 0.72 0 0.2 0.72 0 0.24 0.72 0 0.28 0.72 0 0.32 0.72 0 0.36 0.72 0 0.4 0.72 0 0.44 0.72 0 0.48 0.72 0 0.52 0.72 0 0.56 0.72 0 0.6 0.72 0 0.64 0.72 0 0.68 0.72 0 0.72 0.72 0 0.76 0.72 0 0.8 0.72 0 0.84 0.72 0 0.88 0.72 0 0.92 0.72 0 0.96 0.72 0 1 0.72 0 1.04 0.72 0 1.08 0.72 0 1.12 0.72 0 1.16 0.72 0 1.2 0.72 0 0 0.76 0 0.04 0.76 0 0.08 0.76 0 0.12 0.76 0 0.16 0.76 0 0.2 0.76 0 0.24 0.76 0 0.28 0.76 0 0.32 0.76 0 0.36 0.76 0 0.4 0.76 0 0.44 0.76 0 0.48 0.76 0 0.52 0.76 0 0.56 0.76 0 0.6 0.76 0 0.64 0.76 0 0.68 0.76 0 0.72 0.76 0 0.76 0.76 0 0.8 0.76 0 0.84 0.76 0 0.88 0.76 0 0.92 0.76 0 0.96 0.76 0 1 0.76 0 1.04 0.76 0 1.08 0.76 0 1.12 0.76 0 1.16 0.76 0 1.2 0.76 0 0 0.8 0 0.04 0.8 0 0.08 0.8 0 0.12 0.8 0 0.16 0.8 0 0.2 0.8 0 0.24 0.8 0 0.28 0.8 0 0.32 0.8 0 0.36 0.8 0 0.4 0.8 0 0.44 0.8 0 0.48 0.8 0 0.52 0.8 0 0.56 0.8 0 0.6 0.8 0 0.64 0.8 0 0.68 0.8 0 0.72 0.8 0 0.76 0.8 0 0.8 0.8 0 0.84 0.8 0 0.88 0.8 0 0.92 0.8 0 0.96 0.8 0 1 0.8 0 1.04 0.8 0 1.08 0.8 0 1.12 0.8 0 1.16 0.8 0 1.2 0.8 0 0 0.84 0 0.04 0.84 0 0.08 0.84 0 0.12 0.84 0 0.16 0.84 0 0.2 0.84 0 0.24 0.84 0 0.28 0.84 0 0.32 0.84 0 0.36 0.84 0 0.4 0.84 0 0.44 0.84 0 0.48 0.84 0 0.52 0.84 0 0.56 0.84 0 0.6 0.84 0 0.64 0.84 0 0.68 0.84 0 0.72 0.84 0 0.76 0.84 0 0.8 0.84 0 0.84 0.84 0 0.88 0.84 0 0.92 0.84 0 0.96 0.84 0 1 0.84 0 1.04 0.84 0 1.08 0.84 0 1.12 0.84 0 1.16 0.84 0 1.2 0.84 0 0 0.88 0 0.04 0.88 0 0.08 0.88 0 0.12 0.88 0 0.16 0.88 0 0.2 0.88 0 0.24 0.88 0 0.28 0.88 0 0.32 0.88 0 0.36 0.88 0 0.4 0.88 0 0.44 0.88 0 0.48 0.88 0 0.52 0.88 0 0.56 0.88 0 0.6 0.88 0 0.64 0.88 0 0.68 0.88 0 0.72 0.88 0 0.76 0.88 0 0.8 0.88 0 0.84 0.88 0 0.88 0.88 0 0.92 0.88 0 0.96 0.88 0 1 0.88 0 1.04 0.88 0 1.08 0.88 0 1.12 0.88 0 1.16 0.88 0 1.2 0.88 0 0 0.92 0 0.04 0.92 0 0.08 0.92 0 0.12 0.92 0 0.16 0.92 0 0.2 0.92 0 0.24 0.92 0 0.28 0.92 0 0.32 0.92 0 0.36 0.92 0 0.4 0.92 0 0.44 0.92 0 0.48 0.92 0 0.52 0.92 0 0.56 0.92 0 0.6 0.92 0 0.64 0.92 0 0.68 0.92 0 0.72 0.92 0 0.76 0.92 0 0.8 0.92 0 0.84 0.92 0 0.88 0.92 0 0.92 0.92 0 0.96 0.92 0 1 0.92 0 1.04 0.92 0 1.08 0.92 0 1.12 0.92 0 1.16 0.92 0 1.2 0.92 0 0 0.96 0 0.04 0.96 0 0.08 0.96 0 0.12 0.96 0 0.16 0.96 0 0.2 0.96 0 0.24 0.96 0 0.28 0.96 0 0.32 0.96 0 0.36 0.96 0 0.4 0.96 0 0.44 0.96 0 0.48 0.96 0 0.52 0.96 0 0.56 0.96 0 0.6 0.96 0 0.64 0.96 0 0.68 0.96 0 0.72 0.96 0 0.76 0.96 0 0.8 0.96 0 0.84 0.96 0 0.88 0.96 0 0.92 0.96 0 0.96 0.96 0 1 0.96 0 1.04 0.96 0 1.08 0.96 0 1.12 0.96 0 1.16 0.96 0 1.2 0.96 0 0 1 0 0.04 1 0 0.08 1 0 0.12 1 0 0.16 1 0 0.2 1 0 0.24 1 0 0.28 1 0 0.32 1 0 0.36 1 0 0.4 1 0 0.44 1 0 0.48 1 0 0.52 1 0 0.56 1 0 0.6 1 0 0.64 1 0 0.68 1 0 0.72 1 0 0.76 1 0 0.8 1 0 0.84 1 0 0.88 1 0 0.92 1 0 0.96 1 0 1 1 0 1.04 1 0 1.08 1 0 1.12 1 0 1.16 1 0 1.2 1 0 0 1.04 0 0.04 1.04 0 0.08 1.04 0 0.12 1.04 0 0.16 1.04 0 0.2 1.04 0 0.24 1.04 0 0.28 1.04 0 0.32 1.04 0 0.36 1.04 0 0.4 1.04 0 0.44 1.04 0 0.48 1.04 0 0.52 1.04 0 0.56 1.04 0 0.6 1.04 0 0.64 1.04 0 0.68 1.04 0 0.72 1.04 0 0.76 1.04 0 0.8 1.04 0 0.84 1.04 0 0.88 1.04 0 0.92 1.04 0 0.96 1.04 0 1 1.04 0 1.04 1.04 0 1.08 1.04 0 1.12 1.04 0 1.16 1.04 0 1.2 1.04 0 0 1.08 0 0.04 1.08 0 0.08 1.08 0 0.12 1.08 0 0.16 1.08 0 0.2 1.08 0 0.24 1.08 0 0.28 1.08 0 0.32 1.08 0 0.36 1.08 0 0.4 1.08 0 0.44 1.08 0 0.48 1.08 0 0.52 1.08 0 0.56 1.08 0 0.6 1.08 0 0.64 1.08 0 0.68 1.08 0 0.72 1.08 0 0.76 1.08 0 0.8 1.08 0 0.84 1.08 0 0.88 1.08 0 0.92 1.08 0 0.96 1.08 0 1 1.08 0 1.04 1.08 0 1.08 1.08 0 1.12 1.08 0 1.16 1.08 0 1.2 1.08 0 0 1.12 0 
[...]
			<CellData Scalars="Density">
				<DataArray Name="Density" type="Float32" format="ascii">
 0.00642983 0.00688107 0.00795423 0.00979232 0.0124068 0.0158244 0.0201104 0.0253683 0.0317923 0.0396796 0.0494802 0.0618513 0.0777613 0.0986748 0.126743 0.165246 0.219085 0.295681 0.406896 0.573158 0.828178 1.21766 1.76653 2.39145 2.67156 2.32493 1.38407 1.05507 1.00482 1.00002 0.00688246 0.00733337 0.00836502 0.010216 0.0129476 0.0166217 0.0213389 0.0272096 0.0344374 0.0432937 0.0542158 0.067801 0.0849689 0.107134 0.136292 0.175681 0.230117 0.307048 0.417892 0.580151 0.822768 1.19823 1.74351 2.3502 2.61023 2.28364 1.37361 1.05645 1.00491 1.00002 0.00795679 0.00836694 0.0092714 0.011021 0.0136964 0.0173893 0.0222289 0.0283498 0.0359562 0.0453465 0.0569552 0.0714252 0.089684 0.113143 0.143909 0.185121 0.241628 0.320853 0.43491 0.604435 0.862867 1.2593 1.82324 2.44507 2.64197 2.22252 1.31905 1.05308 1.0045 1.00002 0.00979561 0.0102197 0.0110258 0.0128257 0.0156919 0.0197188 0.0251144 0.0320325 0.0407455 0.0515609 0.0649836 0.0816585 0.102615 0.129258 0.163669 0.209119 0.270286 0.354797 0.474485 0.650093 0.919371 1.33182 1.88442 2.45153 2.58041 2.11664 1.2655 1.04679 1.00362 1.00001 0.0124104 0.0129521 0.0137066 0.0157026 0.0189954 0.0236553 0.0299823 0.0381621 0.0485132 0.0614107 0.0773489 0.097095 0.121636 0.152631 0.192196 0.243915 0.31319 0.407921 0.542603 0.739078 1.03239 1.47375 2.0363 2.54228 2.56229 1.92746 1.18091 1.0329 1.00239 1.00001 0.0158275 0.0166249 0.0174025 0.0197349 0.0236672 0.029198 0.0367007 0.0463769 0.0585729 0.073696 0.0923624 0.115351 0.143921 0.17967 0.225433 0.284623 0.363705 0.4719 0.624447 0.848513 1.18124 1.6728 2.24752 2.64559 2.51573 1.70732 1.12264 1.02216 1.0012 1 0.0201151 0.0213412 0.0222472 0.0251368 0.0300002 0.0367247 0.0457677 0.0572988 0.0717529 0.0895202 0.111363 0.13818 0.171367 0.212973 0.265779 0.334843 0.426469 0.552937 0.733854 0.998212 1.3944 1.94806 2.51768 2.7499 2.37854 1.44645 1.08055 1.01184 1.00031 1 0.0253733 0.0272129 0.0283701 0.0320674 0.0381946 0.0464193 0.0573536 0.0710984 0.0881318 0.108975 0.134364 0.165541 0.204029 0.252337 0.313988 0.394284 0.502631 0.651246 0.866722 1.18392 1.65583 2.24638 2.73267 2.76257 2.0302 1.23381 1.04751 1.00477 1.00004 1 0.0317989 0.0344362 0.0359816 0.0407768 0.0485674 0.0586651 0.0718573 0.0882497 0.108329 0.132663 0.162275 0.198372 0.24317 0.299334 0.371456 0.466467 0.595188 0.77675 1.04056 1.43433 1.99945 2.59095 2.88874 2.59622 1.61618 1.12032 1.02177 1.00117 1 1 0.0396861 0.043294 0.0453682 0.0515985 0.0614482 0.0738265 0.0897298 0.109165 0.132841 0.161305 0.195745 0.237897 0.290016 0.356091 0.441283 0.554475 0.710295 0.931662 1.2586 1.73993 2.35194 2.84429 2.87024 2.11177 1.27603 1.06047 1.00751 1.00013 1 1 0.0494862 0.0542057 0.056974 0.0649905 0.0773793 0.0924592 0.111587 0.134689 0.162516 0.195941 0.236282 0.285588 0.347144 0.425242 0.527703 0.666192 0.859267 1.13812 1.5564 2.13772 2.73173 2.99866 2.61171 1.60695 1.12339 1.02443 1.00156 1.00001 1 1 0.0618573 0.0677913 0.0714338 0.0816498 0.0970375 0.11541 0.138366 0.165822 0.198762 0.238141 0.285808 0.344372 0.417704 0.512464 0.637239 0.809545 1.05565 1.41011 1.93444 2.55863 2.9804 2.88934 1.99475 1.24966 1.0575 1.00715 1.00012 1 1 1 0.0777683 0.0849566 0.0897006 0.102577 0.121567 0.143822 0.171426 0.204259 0.243397 0.290383 0.3473 0.417918 0.507344 0.623889 0.782475 1.00208 1.32043 1.79006 2.40124 2.94208 3.05909 2.42615 1.45574 1.10045 1.01959 1.00105 1 1 1 1 0.098684 0.107121 0.113164 0.129246 0.152494 0.179593 0.212892 0.252381 0.299553 0.356228 0.425625 0.512563 0.624287 0.773191 0.977214 1.26873 1.69178 2.2745 2.87772 3.08562 2.70371 1.70072 1.16963 1.04117 1.00421 1.00005 1 1 1 1 0.126756 0.136288 0.143935 0.163692 0.192184 0.225207 0.265701 0.313936 0.371454 0.441461 0.527661 0.638042 0.782608 0.978167 1.25028 1.64525 2.20029 2.78352 3.12349 2.91302 1.98738 1.26626 1.06507 1.01018 1.00031 1 1 1 1 1 0.16526 0.175674 0.185158 0.209135 0.243893 0.284721 0.334555 0.394192 0.466336 0.554387 0.665808 0.809461 1.0031 1.26915 1.6455 2.16376 2.75503 3.13866 3.02491 2.16727 1.35399 1.09283 1.01967 1.00117 1.00001 1 1 1 1 1 0.21911 0.230117 0.241658 0.270385 0.313172 0.363652 0.426752 0.502319 0.595262 0.710302 0.858905 1.05537 1.31926 1.69141 2.20038 2.75558 3.11297 3.08606 2.28771 1.46095 1.11813 1.02934 1.0027 1.00003 1 1 1 1 1 1 0.295708 0.307069 0.320893 0.35484 0.408058 0.472096 0.552965 0.651729 0.776369 0.932269 1.13729 1.41142 1.78919 2.27404 2.7829 3.13843 3.08587 2.35243 1.4994 1.13491 1.03861 1.00465 1.00009 1 1 1 1 1 1 1 0.406931 0.417906 0.434982 0.474586 0.542347 0.624506 0.733923 0.866662 1.04089 1.25885 1.55653 1.93548 2.40155 2.87774 3.12266 3.02434 2.2877 1.49931 1.15004 1.04308 1.00616 1.00018 1 1 1 1 1 1 1 1 0.573202 0.580178 0.604469 0.650211 0.739364 0.848375 0.998455 1.18444 1.43409 1.74025 2.13858 2.55971 2.9424 3.08695 2.91283 2.16728 1.46094 1.13486 1.04309 1.00698 1.00025 1 1 1 1 1 1 1 1 1 0.828235 0.822796 0.863006 0.919212 1.03251 1.18153 1.39375 1.65637 1.99834 2.35135 2.73175 2.98095 3.05895 2.70451 1.98768 1.3541 1.11816 1.03862 1.00615 1.00025 1 1 1 1 1 1 1 1 1 1 1.21774 1.19824 1.25952 1.33158 1.47378 1.6727 1.94837 2.24693 2.59032 2.84375 2.99821 2.88915 2.42627 1.701 1.26638 1.09287 1.02933 1.00466 1.00018 1 1 1 1 1 1 1 1 1 1 1 1.76661 1.74348 1.82352 1.88423 2.03651 2.24706 2.51813 2.73312 2.88838 2.87002 2.61162 1.99473 1.45568 1.16967 1.06507 1.01968 1.0027 1.00009 1 1 1 1 1 1 1 1 1 1 1 1 2.39149 2.35009 2.44542 2.45133 2.54248 2.64486 2.75036 2.76243 2.596 2.11167 1.60675 1.24959 1.10041 1.04117 1.01019 1.00117 1.00003 1 1 1 1 1 1 1 1 1 1 1 1 1 2.6716 2.61008 2.64221 2.58014 2.56274 2.51542 2.37851 2.03038 1.61644 1.27609 1.12333 1.05748 1.01958 1.00421 1.00031 1.00001 1 1 1 1 1 1 1 1 1 1 1 1 1 1 2.32485 2.28347 2.22246 2.11657 1.92727 1.70694 1.44657 1.23363 1.12035 1.06049 1.02444 1.00714 1.00105 1.00005 1 1 1 1 1 1 1 1 1 1 1 1 1 1 1 1 1.38401 1.37353 1.31902 1.26542 1.181 1.12254 1.08058 1.0475 1.02176 1.00751 1.00156 1.00012 1 1 1 1 1 1 1 1 1 1 1 1 1 1 1 1 1 1 1.05506 1.05644 1.05307 1.04678 1.0329 1.02215 1.01184 1.00477 1.00117 1.00013 1.00001 1 1 1 1 1 1 1 1 1 1 1 1 1 1 1 1 1 1 1 1.00482 1.00491 1.00449 1.00362 1.00239 1.0012 1.00031 1.00004 1 1 1 1 1 1 1 1 1 1 1 1 1 1 1 1 1 1 1 1 1 1 1.00002 1.00002 1.00002 1.00001 1.00001 1 1 1 1 1 1 1 1 1 1 1 1 1 1 1 1 1 1 1 1 1 1 1 1 1
				</DataArray>
				<DataArray Name="Energy" type="Float32" format="ascii">
 24.3816 22.7528 19.689 15.999 12.6328 9.91054 7.80515 6.19507 4.95212 3.97803 3.20184 2.57465 2.06223 1.6409 1.29411 1.01017 0.78008 0.596301 0.452268 0.342001 0.259426 0.198107 0.151473 0.11429 0.0813479 0.0458525 0.0105554 0.000250754 3.01068e-06 2.50003e-06 22.7482 21.3095 18.6784 15.2941 12.0697 9.40474 7.33105 5.75475 4.55459 3.63108 2.90945 2.33715 1.87682 1.50202 1.19433 0.941055 0.733382 0.565327 0.432045 0.328538 0.24969 0.191087 0.146931 0.110933 0.0785081 0.0437195 0.00973736 0.000236083 2.9934e-06 2.50003e-06 19.6827 18.6743 16.8531 14.1796 11.4123 8.99319 7.04009 5.52724 4.36603 3.47193 2.77523 2.22531 1.78526 1.42939 1.13909 0.901415 0.707398 0.550278 0.424809 0.326211 0.249663 0.190871 0.145483 0.108814 0.0754703 0.0401657 0.00753182 0.00016799 2.82728e-06 2.50002e-06 15.9936 15.2885 14.1737 12.1862 9.96298 7.93227 6.23335 4.89273 3.85385 3.05338 2.4322 1.94593 1.56081 1.25207 1.00242 0.799335 0.634014 0.499725 0.391151 0.304295 0.236121 0.183265 0.141177 0.106007 0.0725508 0.0369673 0.00573795 0.000111748 2.67977e-06 2.50001e-06 12.6292 12.0655 11.4036 9.95666 8.23319 6.61479 5.22381 4.10988 3.23963 2.56764 2.04706 1.641 1.32074 1.06491 0.858355 0.690469 0.553331 0.441337 0.350448 0.277003 0.218172 0.171615 0.1332 0.100149 0.0669697 0.0309797 0.00347211 5.36119e-05 2.56127e-06 2.50001e-06 9.90853 9.40304 8.98617 7.92566 6.61201 5.36293 4.2708 3.38551 2.68682 2.14293 1.71841 1.38532 1.12124 0.909576 0.738203 0.598192 0.483434 0.389051 0.311972 0.249283 0.198311 0.157393 0.122463 0.091307 0.0584951 0.0222935 0.00145648 1.51939e-05 2.509e-06 2.5e-06 7.80344 7.33006 7.03451 6.22755 5.2204 4.26855 3.42933 2.74421 2.19798 1.76866 1.4301 1.16162 0.946862 0.773271 0.63175 0.515622 0.419811 0.34075 0.275776 0.22237 0.178626 0.142482 0.110486 0.0803247 0.0469567 0.0120821 0.000394012 4.15808e-06 2.50073e-06 2.5e-06 6.19377 5.75437 5.52302 4.88789 4.10621 3.38202 2.74212 2.2171 1.79454 1.45877 1.19093 0.976009 0.801911 0.659868 0.542949 0.446173 0.365818 0.298806 0.243434 0.19738 0.159554 0.126991 0.0971546 0.067038 0.0320557 0.00393031 6.45041e-05 2.61035e-06 2.50005e-06 2.5e-06 4.95121 4.55458 4.36317 3.85058 3.2365 2.68264 2.19432 1.79261 1.46648 1.20456 0.993141 0.821372 0.680577 0.564137 0.467543 0.38694 0.319401 0.262871 0.21562 0.175938 0.142801 0.11264 0.0837789 0.0522544 0.016511 0.000754342 7.5862e-06 2.50463e-06 2.5e-06 2.5e-06 3.97739 3.6313 3.47018 3.05149 2.56561 2.13936 1.76469 1.45576 1.20325 0.998334 0.831044 0.693471 0.579343 0.483962 0.403722 0.336313 0.279397 0.231151 0.190507 0.156106 0.125999 0.0975158 0.0683198 0.0338833 0.00476353 9.23228e-05 2.72362e-06 2.50018e-06 2.5e-06 2.5e-06 3.20154 2.90994 2.77444 2.43187 2.04674 1.71647 1.42728 1.18824 0.991407 0.830368 0.697452 0.586893 0.494061 0.415646 0.349153 0.29257 0.244568 0.203568 0.168527 0.138328 0.110222 0.0824414 0.05099 0.0155044 0.000701747 7.57152e-06 2.50659e-06 2.50001e-06 2.5e-06 2.5e-06 2.57447 2.33763 2.22496 1.94633 1.6418 1.38499 1.16029 0.974285 0.820026 0.692663 0.586597 0.497496 0.42184 0.357192 0.3018 0.254379 0.21358 0.178347 0.148111 0.120387 0.0933767 0.0643477 0.0292227 0.00347243 5.999e-05 2.64324e-06 2.50017e-06 2.5e-06 2.5e-06 2.5e-06 2.06211 1.87713 1.78506 1.56126 1.32176 1.12172 0.946629 0.801227 0.679844 0.578811 0.493761 0.421744 0.360022 0.306673 0.260579 0.220654 0.185947 0.155724 0.128904 0.102673 0.0755524 0.0429279 0.00975269 0.000332193 4.42992e-06 2.5031e-06 2.5e-06 2.5e-06 2.5e-06 2.5e-06 1.6408 1.50223 1.42912 1.2523 1.06568 0.910285 0.77362 0.659806 0.564063 0.483821 0.415578 0.35717 0.306707 0.262845 0.224264 0.190512 0.161126 0.134856 0.109705 0.0835008 0.0535795 0.0185402 0.00128595 1.6788e-05 2.53439e-06 2.50006e-06 2.5e-06 2.5e-06 2.5e-06 2.5e-06 1.29403 1.19443 1.13886 1.00232 0.858621 0.738556 0.632051 0.54308 0.46761 0.403857 0.349224 0.301977 0.260635 0.224373 0.192267 0.163724 0.138457 0.114236 0.0895782 0.0616447 0.027266 0.00337817 6.78831e-05 2.74888e-06 2.50051e-06 2.5e-06 2.5e-06 2.5e-06 2.5e-06 2.5e-06 1.0101 0.941091 0.901238 0.799231 0.69043 0.598298 0.515686 0.44614 0.386951 0.336332 0.292617 0.254492 0.220804 0.190584 0.163731 0.139731 0.116594 0.0932014 0.0668208 0.0339318 0.00610237 0.000192358 3.67675e-06 2.50331e-06 2.50001e-06 2.5e-06 2.5e-06 2.5e-06 2.5e-06 2.5e-06 0.780017 0.733384 0.707263 0.633929 0.553268 0.483335 0.419819 0.365696 0.319311 0.279377 0.244506 0.213626 0.185941 0.161161 0.138478 0.116595 0.0941903 0.0694308 0.0382522 0.00889154 0.000398831 6.12379e-06 2.51356e-06 2.50003e-06 2.5e-06 2.5e-06 2.5e-06 2.5e-06 2.5e-06 2.5e-06 0.596249 0.565307 0.550195 0.499664 0.441299 0.389076 0.34072 0.298782 0.262736 0.231113 0.203449 0.178375 0.155697 0.134852 0.114239 0.0932098 0.0694321 0.0396476 0.0104747 0.000615838 1.01757e-05 2.53505e-06 2.50011e-06 2.5e-06 2.5e-06 2.5e-06 2.5e-06 2.5e-06 2.5e-06 2.5e-06 0.45223 0.432015 0.424746 0.391118 0.350366 0.311922 0.275788 0.243417 0.215599 0.190474 0.168501 0.148117 0.128896 0.109717 0.0895875 0.066829 0.0382492 0.0104741 0.00073902 1.35924e-05 2.56103e-06 2.50024e-06 2.5e-06 2.5e-06 2.5e-06 2.5e-06 2.5e-06 2.5e-06 2.5e-06 2.5e-06 0.341972 0.32851 0.326168 0.304266 0.277009 0.249257 0.222372 0.197441 0.175938 0.156118 0.138334 0.120402 0.102672 0.0835053 0.0616519 0.0339376 0.00889107 0.00061485 1.36043e-05 2.57591e-06 2.50036e-06 2.5e-06 2.5e-06 2.5e-06 2.5e-06 2.5e-06 2.5e-06 2.5e-06 2.5e-06 2.5e-06 0.259405 0.249667 0.249644 0.236084 0.218167 0.198302 0.178567 0.159564 0.142773 0.125996 0.110216 0.0933816 0.0755579 0.0535856 0.0272785 0.00610371 0.000399142 1.0181e-05 2.56088e-06 2.50036e-06 2.5e-06 2.5e-06 2.5e-06 2.5e-06 2.5e-06 2.5e-06 2.5e-06 2.5e-06 2.5e-06 2.5e-06 0.198093 0.191064 0.19086 0.183237 0.171613 0.157375 0.142478 0.126989 0.112619 0.0975065 0.082435 0.0643521 0.0429374 0.0185447 0.00338165 0.000192666 6.11966e-06 2.53509e-06 2.50024e-06 2.5e-06 2.5e-06 2.5e-06 2.5e-06 2.5e-06 2.5e-06 2.5e-06 2.5e-06 2.5e-06 2.5e-06 2.5e-06 0.151463 0.146913 0.145476 0.141154 0.133204 0.122445 0.110483 0.097153 0.0837764 0.0683121 0.0509821 0.0292235 0.00975629 0.00128689 6.78387e-05 3.67895e-06 2.5136e-06 2.50011e-06 2.5e-06 2.5e-06 2.5e-06 2.5e-06 2.5e-06 2.5e-06 2.5e-06 2.5e-06 2.5e-06 2.5e-06 2.5e-06 2.5e-06 0.114283 0.110921 0.108807 0.105992 0.100146 0.0912937 0.0803187 0.0670281 0.052251 0.0338727 0.0154967 0.0034712 0.000331839 1.6801e-05 2.7495e-06 2.5033e-06 2.50003e-06 2.5e-06 2.5e-06 2.5e-06 2.5e-06 2.5e-06 2.5e-06 2.5e-06 2.5e-06 2.5e-06 2.5e-06 2.5e-06 2.5e-06 2.5e-06 0.081342 0.0784996 0.0754648 0.072544 0.0669668 0.0584866 0.0469526 0.0320544 0.0165159 0.00476235 0.00070079 5.99513e-05 4.43131e-06 2.53435e-06 2.50051e-06 2.50001e-06 2.5e-06 2.5e-06 2.5e-06 2.5e-06 2.5e-06 2.5e-06 2.5e-06 2.5e-06 2.5e-06 2.5e-06 2.5e-06 2.5e-06 2.5e-06 2.5e-06 0.0458466 0.0437118 0.0401586 0.036963 0.0309707 0.0222883 0.0120781 0.00392904 0.000754811 9.23469e-05 7.57154e-06 2.64289e-06 2.5031e-06 2.50006e-06 2.5e-06 2.5e-06 2.5e-06 2.5e-06 2.5e-06 2.5e-06 2.5e-06 2.5e-06 2.5e-06 2.5e-06 2.5e-06 2.5e-06 2.5e-06 2.5e-06 2.5e-06 2.5e-06 0.010552 0.0097343 0.00752831 0.00573717 0.00347123 0.00145593 0.000393886 6.4461e-05 7.59114e-06 2.72352e-06 2.50658e-06 2.50017e-06 2.5e-06 2.5e-06 2.5e-06 2.5e-06 2.5e-06 2.5e-06 2.5e-06 2.5e-06 2.5e-06 2.5e-06 2.5e-06 2.5e-06 2.5e-06 2.5e-06 2.5e-06 2.5e-06 2.5e-06 2.5e-06 0.000250605 0.000235954 0.000167858 0.000111699 5.35962e-05 1.51882e-05 4.15789e-06 2.61021e-06 2.50463e-06 2.50018e-06 2.50001e-06 2.5e-06 2.5e-06 2.5e-06 2.5e-06 2.5e-06 2.5e-06 2.5e-06 2.5e-06 2.5e-06 2.5e-06 2.5e-06 2.5e-06 2.5e-06 2.5e-06 2.5e-06 2.5e-06 2.5e-06 2.5e-06 2.5e-06 3.01018e-06 2.99295e-06 2.82688e-06 2.6796e-06 2.56124e-06 2.509e-06 2.50073e-06 2.50005e-06 2.5e-06 2.5e-06 2.5e-06 2.5e-06 2.5e-06 2.5e-06 2.5e-06 2.5e-06 2.5e-06 2.5e-06 2.5e-06 2.5e-06 2.5e-06 2.5e-06 2.5e-06 2.5e-06 2.5e-06 2.5e-06 2.5e-06 2.5e-06 2.5e-06 2.5e-06 2.50003e-06 2.50003e-06 2.50002e-06 2.50001e-06 2.50001e-06 2.5e-06 2.5e-06 2.5e-06 2.5e-06 2.5e-06 2.5e-06 2.5e-06 2.5e-06 2.5e-06 2.5e-06 2.5e-06 2.5e-06 2.5e-06 2.5e-06 2.5e-06 2.5e-06 2.5e-06 2.5e-06 2.5e-06 2.5e-06 2.5e-06 2.5e-06 2.5e-06 2.5e-06 2.5e-06
				</DataArray>
				<DataArray Name="F1" type="Float32" format="ascii">
 1 1 1 1 1 1 1 1 1 1 1 1 1 1 1 1 1 1 1 1 1 1 1 1 1 1 1 1 1 1 1 1 1 1 1 1 1 1 1 1 1 1 1 1 1 1 1 1 1 1 1 1 1 1 1 1 1 1 1 1 1 1 1 1 1 1 1 1 1 1 1 1 1 1 1 1 1 1 1 1 1 1 1 1 1 1 1 1 1 1 1 1 1 1 1 1 1 1 1 1 1 1 1 1 1 1 1 1 1 1 1 1 1 1 1 1 1 1 1 1 1 1 1 1 1 1 1 1 1 1 1 1 1 1 1 1 1 1 1 1 1 1 1 1 1 1 1 1 1 1 1 1 1 1 1 1 1 1 1 1 1 1 1 1 1 1 1 1 1 1 1 1 1 1 1 1 1 1 1 1 1 1 1 1 1 1 1 1 1 1 1 1 1 1 1 1 1 1 1 1 1 1 1 1 1 1 1 1 1 1 1 1 1 1 1 1 1 1 1 1 1 1 1 1 1 1 1 1 1 1 1 1 1 1 1 1 1 1 1 1 1 1 1 1 1 1 1 1 1 1 1 1 1 1 1 1 1 1 1 1 1 1 1 1 1 1 1 1 1 1 1 1 1 1 1 1 1 1 1 1 1 1 1 1 1 1 1 1 1 1 1 1 1 1 1 1 1 1 1 1 1 1 1 1 1 1 1 1 1 1 1 1 1 1 1 1 1 1 1 1 1 1 1 1 1 1 1 1 1 1 1 1 1 1 1 1 1 1 1 1 1 1 1 1 1 1 1 1 1 1 1 1 1 1 1 1 1 1 1 1 1 1 1 1 1 1 1 1 1 1 1 1 1 1 1 1 1 1 1 1 1 1 1 1 1 1 1 1 1 1 1 1 1 1 1 1 1 1 1 1 1 1 1 1 1 1 1 1 1 1 1 1 1 1 1 1 1 1 1 1 1 1 1 1 1 1 1 1 1 1 1 1 1 1 1 1 1 1 1 1 1 1 1 1 1 1 1 1 1 1 1 1 1 1 1 1 1 1 1 1 1 1 1 1 1 1 1 1 1 1 1 1 1 1 1 1 1 1 1 1 1 1 1 1 1 1 1 1 1 1 1 1 1 1 1 1 1 1 1 1 1 1 1 1 1 1 1 1 1 1 1 1 1 1 1 1 1 1 1 1 1 1 1 1 1 1 1 1 1 1 1 1 1 1 1 1 1 1 1 1 1 1 1 1 1 1 1 1 1 1 1 1 1 1 1 1 1 1 1 1 1 1 1 1 1 1 1 1 1 1 1 1 1 1 1 1 1 1 1 1 1 1 1 1 1 1 1 1 1 1 1 1 1 1 1 1 1 1 1 1 1 1 1 1 1 1 1 1 1 1 1 1 1 1 1 1 1 1 1 1 1 1 1 1 1 1 1 1 1 1 1 1 1 1 1 1 1 1 1 1 1 1 1 1 1 1 1 1 1 1 1 1 1 1 1 1 1 1 1 1 1 1 1 1 1 1 1 1 1 1 1 1 1 1 1 1 1 1 1 1 1 1 1 1 1 1 1 1 1 1 1 1 1 1 1 1 1 1 1 1 1 1 1 1 1 1 1 1 1 1 1 1 1 1 1 1 1 1 1 1 1 1 1 1 1 1 1 1 1 1 1 1 1 1 1 1 1 1 1 1 1 1 1 1 1 1 1 1 1 1 1 1 1 1 1 1 1 1 1 1 1 1 1 1 1 1 1 1 1 1 1 1 1 1 1 1 1 1 1 1 1 1 1 1 1 1 1 1 1 1 1 1 1 1 1 1 1 1 1 1 1 1 1 1 1 1 1 1 1 1 1 1 1 1 1 1 1 1 1 1 1 1 1 1 1 1 1 1 1 1 1 1 1 1 1 1 1 1 1 1 1 1 1 1 1 1 1 1 1 1 1 1 1 1 1 1 1 1 1 1 1 1 1 1 1 1 1 1 1 1 1 1 1 1 1 1 1 1 1 1 1 1 1 1 1 1 1 1 1 1 1 1 1 1 1 1 1 1 1 1
				</DataArray>
				<DataArray Name="F2" type="Float32" format="ascii">
 0 0 0 0 0 0 0 0 0 0 0 0 0 0 0 0 0 0 0 0 0 0 0 0 0 0 0 0 0 0 0 0 0 0 0 0 0 0 0 0 0 0 0 0 0 0 0 0 0 0 0 0 0 0 0 0 0 0 0 0 0 0 0 0 0 0 0 0 0 0 0 0 0 0 0 0 0 0 0 0 0 0 0 0 0 0 0 0 0 0 0 0 0 0 0 0 0 0 0 0 0 0 0 0 0 0 0 0 0 0 0 0 0 0 0 0 0 0 0 0 0 0 0 0 0 0 0 0 0 0 0 0 0 0 0 0 0 0 0 0 0 0 0 0 0 0 0 0 0 0 0 0 0 0 0 0 0 0 0 0 0 0 0 0 0 0 0 0 0 0 0 0 0 0 0 0 0 0 0 0 0 0 0 0 0 0 0 0 0 0 0 0 0 0 0 0 0 0 0 0 0 0 0 0 0 0 0 0 0 0 0 0 0 0 0 0 0 0 0 0 0 0 0 0 0 0 0 0 0 0 0 0 0 0 0 0 0 0 0 0 0 0 0 0 0 0 0 0 0 0 0 0 0 0 0 0 0 0 0 0 0 0 0 0 0 0 0 0 0 0 0 0 0 0 0 0 0 0 0 0 0 0 0 0 0 0 0 0 0 0 0 0 0 0 0 0 0 0 0 0 0 0 0 0 0 0 0 0 0 0 0 0 0 0 0 0 0 0 0 0 0 0 0 0 0 0 0 0 0 0 0 0 0 0 0 0 0 0 0 0 0 0 0 0 0 0 0 0 0 0 0 0 0 0 0 0 0 0 0 0 0 0 0 0 0 0 0 0 0 0 0 0 0 0 0 0 0 0 0 0 0 0 0 0 0 0 0 0 0 0 0 0 0 0 0 0 0 0 0 0 0 0 0 0 0 0 0 0 0 0 0 0 0 0 0 0 0 0 0 0 0 0 0 0 0 0 0 0 0 0 0 0 0 0 0 0 0 0 0 0 0 0 0 0 0 0 0 0 0 0 0 0 0 0 0 0 0 0 0 0 0 0 0 0 0 0 0 0 0 0 0 0 0 0 0 0 0 0 0 0 0 0 0 0 0 0 0 0 0 0 0 0 0 0 0 0 0 0 0 0 0 0 0 0 0 0 0 0 0 0 0 0 0 0 0 0 0 0 0 0 0 0 0 0 0 0 0 0 0 0 0 0 0 0 0 0 0 0 0 0 0 0 0 0 0 0 0 0 0 0 0 0 0 0 0 0 0 0 0 0 0 0 0 0 0 0 0 0 0 0 0 0 0 0 0 0 0 0 0 0 0 0 0 0 0 0 0 0 0 0 0 0 0 0 0 0 0 0 0 0 0 0 0 0 0 0 0 0 0 0 0 0 0 0 0 0 0 0 0 0 0 0 0 0 0 0 0 0 0 0 0 0 0 0 0 0 0 0 0 0 0 0 0 0 0 0 0 0 0 0 0 0 0 0 0 0 0 0 0 0 0 0 0 0 0 0 0 0 0 0 0 0 0 0 0 0 0 0 0 0 0 0 0 0 0 0 0 0 0 0 0 0 0 0 0 0 0 0 0 0 0 0 0 0 0 0 0 0 0 0 0 0 0 0 0 0 0 0 0 0 0 0 0 0 0 0 0 0 0 0 0 0 0 0 0 0 0 0 0 0 0 0 0 0 0 0 0 0 0 0 0 0 0 0 0 0 0 0 0 0 0 0 0 0 0 0 0 0 0 0 0 0 0 0 0 0 0 0 0 0 0 0 0 0 0 0 0 0 0 0 0 0 0 0 0 0 0 0 0 0 0 0 0 0 0 0 0 0 0 0 0 0 0 0 0 0 0 0 0 0 0 0 0 0 0 0 0 0 0 0 0 0 0 0 0 0 0 0 0 0 0 0 0 0 0 0 0 0 0 0 0 0 0 0 0 0 0 0 0 0 0 0 0 0 0 0 0 0 0 0 0 0 0 0 0 0 0 0 0 0 0 0 0 0 0 0 0 0 0 0 0 0 0 0 0 0 0 0 0 0
				</DataArray>
				<DataArray Name="F3" type="Float32" format="ascii">