<?xml version="1.0"?>
<VTKFile type="PolyData">
	<PolyData>
		<Piece NumberOfPoints="961" NumberOfPolys="900">
			<Points>
				<DataArray type="Float32" NumberOfComponents="3" format="ascii">
 0 0 0 0.04 0 0 0.08 0 0 0.12 0 0 0.16 0 0 0.2 0 0 0.24 0 0 0.28 0 0 0.32 0 0 0.36 0 0 0.4 0 0 0.44 0 0 0.48 0 0 0.52 0 0 0.56 0 0 0.6 0 0 0.64 0 0 0.68 0 0 0.72 0 0 0.76 0 0 0.8 0 0 0.84 0 0 0.88 0 0 0.92 0 0 0.96 0 0 1 0 0 1.04 0 0 1.08 0 0 1.12 0 0 1.16 0 0 1.2 0 0 0 0.04 0 0.04 0.04 0 0.08 0.04 0 0.12 0.04 0 0.16 0.04 0 0.2 0.04 0 0.24 0.04 0 0.28 0.04 0 0.32 0.04 0 0.36 0.04 0 0.4 0.04 0 0.44 0.04 0 0.48 0.04 0 0.52 0.04 0 0.56 0.04 0 0.6 0.04 0 0.64 0.04 0 0.68 0.04 0 0.72 0.04 0 0.76 0.04 0 0.8 0.04 0 0.84 0.04 0 0.88 0.04 0 0.92 0.04 0 0.96 0.04 0 1 0.04 0 1.04 0.04 0 1.08 0.04 0 1.12 0.04 0 1.16 0.04 0 1.2 0.04 0 0 0.08 0 0.04 0.08 0 0.08 0.08 0 0.12 0.08 0 0.16 0.08 0 0.2 0.08 0 0.24 0.08 0 0.28 0.08 0 0.32 0.08 0 0.36 0.08 0 0.4 0.08 0 0.44 0.08 0 0.48 0.08 0 0.52 0.08 0 0.56 0.08 0 0.6 0.08 0 0.64 0.08 0 0.68 0.08 0 0.72 0.08 0 0.76 0.08 0 0.8 0.08 0 0.84 0.08 0 0.88 0.08 0 0.92 0.08 0 0.96 0.08 0 1 0.08 0 1.04 0.08 0 1.08 0.08 0 1.12 0.08 0 1.16 0.08 0 1.2 0.08 0 0 0.12 0 0.04 0.12 0 0.08 0.12 0 0.12 0.12 0 0.16 0.12 0 0.2 0.12 0 0.24 0.12 0 0.28 0.12 0 0.32 0.12 0 0.36 0.12 0 0.4 0.12 0 0.44 0.12 0 0.48 0.12 0 0.52 0.12 0 0.56 0.12 0 0.6 0.12 0 0.64 0.12 0 0.68 0.12 0 0.72 0.12 0 0.76 0.12 0 0.8 0.12 0 0.84 0.12 0 0.88 0.12 0 0.92 0.12 0 0.96 0.12 0 1 0.12 0 1.04 0.12 0 1.08 0.12 0 1.12 0.12 0 1.16 0.12 0 1.2 0.12 0 0 0.16 0 0.04 0.16 0 0.08 0.16 0 0.12 0.16 0 0.16 0.16 0 0.2 0.16 0 0.24 0.16 0 0.28 0.16 0 0.32 0.16 0 0.36 0.16 0 0.4 0.16 0 0.44 0.16 0 0.48 0.16 0 0.52 0.16 0 0.56 0.16 0 0.6 0.16 0 0.64 0.16 0 0.68 0.16 0 0.72 0.16 0 0.76 0.16 0 0.8 0.16 0 0.84 0.16 0 0.88 0.16 0 0.92 0.16 0 0.96 0.16 0 1 0.16 0 1.04 0.16 0 1.08 0.16 0 1.12 0.16 0 1.16 0.16 0 1.2 0.16 0 0 0.2 0 0.04 0.2 0 0.08 0.2 0 0.12 0.2 0 0.16 0.2 0 0.2 0.2 0 0.24 0.2 0 0.28 0.2 0 0.32 0.2 0 0.36 0.2 0 0.4 0.2 0 0.44 0.2 0 0.48 0.2 0 0.52 0.2 0 0.56 0.2 0 0.6 0.2 0 0.64 0.2 0 0.68 0.2 0 0.72 0.2 0 0.76 0.2 0 0.8 0.2 0 0.84 0.2 0 0.88 0.2 0 0.92 0.2 0 0.96 0.2 0 1 0.2 0 1.04 0.2 0 1.08 0.2 0 1.12 0.2 0 1.16 0.2 0 1.2 0.2 0 0 0.24 0 0.04 0.24 0 0.08 0.24 0 0.12 0.24 0 0.16 0.24 0 0.2 0.24 0 0.24 0.24 0 0.28 0.24 0 0.32 0.24 0 0.36 0.24 0 0.4 0.24 0 0.44 0.24 0 0.48 0.24 0 0.52 0.24 0 0.56 0.24 0 0.6 0.24 0 0.64 0.24 0 0.68 0.24 0 0.72 0.24 0 0.76 0.24 0 0.8 0.24 0 0.84 0.24 0 0.88 0.24 0 0.92 0.24 0 0.96 0.24 0 1 0.24 0 1.04 0.24 0 1.08 0.24 0 1.12 0.24 0 1.16 0.24 0 1.2 0.24 0 0 0.28 0 0.04 0.28 0 0.08 0.28 0 0.12 0.28 0 0.16 0.28 0 0.2 0.28 0 0.24 0.28 0 0.28 0.28 0 0.32 0.28 0 0.36 0.28 0 0.4 0.28 0 0.44 0.28 0 0.48 0.28 0 0.52 0.28 0 0.56 0.28 0 0.6 0.28 0 0.64 0.28 0 0.68 0.28 0 0.72 0.28 0 0.76 0.28 0 0.8 0.28 0 0.84 0.28 0 0.88 0.28 0 0.92 0.28 0 0.96 0.28 0 1 0.28 0 1.04 0.28 0 1.08 0.28 0 1.12 0.28 0 1.16 0.28 0 1.2 0.28 0 0 0.32 0 0.04 0.32 0 0.08 0.32 0 0.12 0.32 0 0.16 0.32 0 0.2 0.32 0 0.24 0.32 0 0.28 0.32 0 0.32 0.32 0 0.36 0.32 0 0.4 0.32 0 0.44 0.32 0 0.48 0.32 0 0.52 0.32 0 0.56 0.32 0 0.6 0.32 0 0.64 0.32 0 0.68 0.32 0 0.72 0.32 0 0.76 0.32 0 0.8 0.32 0 0.84 0.32 0 0.88 0.32 0 0.92 0.32 0 0.96 0.32 0 1 0.32 0 1.04 0.32 0 1.08 0.32 0 1.12 0.32 0 1.16 0.32 0 1.2 0.32 0 0 0.36 0 0.04 0.36 0 0.08 0.36 0 0.12 0.36 0 0.16 0.36 0 0.2 0.36 0 0.24 0.36 0 0.28 0.36 0 0.32 0.36 0 0.36 0.36 0 0.4 0.36 0 0.44 0.36 0 0.48 0.36 0 0.52 0.36 0 0.56 0.36 0 0.6 0.36 0 0.64 0.36 0 0.68 0.36 0 0.72 0.36 0 0.76 0.36 0 0.8 0.36 0 0.84 0.36 0 0.88 0.36 0 0.92 0.36 0 0.96 0.36 0 1 0.36 0 1.04 0.36 0 1.08 0.36 0 1.12 0.36 0 1.16 0.36 0 1.2 0.36 0 0 0.4 0 0.04 0.4 0 0.08 0.4 0 0.12 0.4 0 0.16 0.4 0 0.2 0.4 0 0.24 0.4 0 0.28 0.4 0 0.32 0.4 0 0.36 0.4 0 0.4 0.4 0 0.44 0.4 0 0.48 0.4 0 0.52 0.4 0 0.56 0.4 0 0.6 0.4 0 0.64 0.4 0 0.68 0.4 0 0.72 0.4 0 0.76 0.4 0 0.8 0.4 0 0.84 0.4 0 0.88 0.4 0 0.92 0.4 0 0.96 0.4 0 1 0.4 0 1.04 0.4 0 1.08 0.4 0 1.12 0.4 0 1.16 0.4 0 1.2 0.4 0 0 0.44 0 0.04 0.44 0 0.08 0.44 0 0.12 0.44 0 0.16 0.44 0 0.2 0.44 0 0.24 0.44 0 0.28 0.44 0 0.32 0.44 0 0.36 0.44 0 0.4 0.44 0 0.44 0.44 0 0.48 0.44 0 0.52 0.44 0 0.56 0.44 0 0.6 0.44 0 0.64 0.44 0 0.68 0.44 0 0.72 0.44 0 0.76 0.44 0 0.8 0.44 0 0.84 0.44 0 0.88 0.44 0 0.92 0.44 0 0.96 0.44 0 1 0.44 0 1.04 0.44 0 1.08 0.44 0 1.12 0.44 0 1.16 0.44 0 1.2 0.44 0 0 0.48 0 0.04 0.48 0 0.08 0.48 0 0.12 0.48 0 0.16 0.48 0 0.2 0.48 0 0.24 0.48 0 0.28 0.48 0 0.32 0.48 0 0.36 0.48 0 0.4 0.48 0 0.44 0.48 0 0.48 0.48 0 0.52 0.48 0 0.56 0.48 0 0.6 0.48 0 0.64 0.48 0 0.68 0.48 0 0.72 0.48 0 0.76 0.48 0 0.8 0.48 0 0.84 0.48 0 0.88 0.48 0 0.92 0.48 0 0.96 0.48 0 1 0.48 0 1.04 0.48 0 1.08 0.48 0 1.12 0.48 0 1.16 0.48 0 1.2 0.48 0 0 0.52 0 0.04 0.52 0 0.08 0.52 0 0.12 0.52 0 0.16 0.52 0 0.2 0.52 0 0.24 0.52 0 0.28 0.52 0 0.32 0.52 0 0.36 0.52 0 0.4 0.52 0 0.44 0.52 0 0.48 0.52 0 0.52 0.52 0 0.56 0.52 0 0.6 0.52 0 0.64 0.52 0 0.68 0.52 0 0.72 0.52 0 0.76 0.52 0 0.8 0.52 0 0.84 0.52 0 0.88 0.52 0 0.92 0.52 0 0.96 0.52 0 1 0.52 0 1.04 0.52 0 1.08 0.52 0 1.12 0.52 0 1.16 0.52 0 1.2 0.52 0 0 0.56 0 0.04 0.56 0 0.08 0.56 0 0.12 0.56 0 0.16 0.56 0 0.2 0.56 0 0.24 0.56 0 0.28 0.56 0 0.32 0.56 0 0.36 0.56 0 0.4 0.56 0 0.44 0.56 0 0.48 0.56 0 0.52 0.56 0 0.56 0.56 0 0.6 0.56 0 0.64 0.56 0 0.68 0.56 0 0.72 0.56 0 0.76 0.56 0 0.8 0.56 0 0.84 0.56 0 0.88 0.56 0 0.92 0.56 0 0.96 0.56 0 1 0.56 0 1.04 0.56 0 1.08 0.56 0 1.12 0.56 0 1.16 0.56 0 1.2 0.56 0 0 0.6 0 0.04 0.6 0 0.08 0.6 0 0.12 0.6 0 0.16 0.6 0 0.2 0.6 0 0.24 0.6 0 0.28 0.6 0 0.32 0.6 0 0.36 0.6 0 0.4 0.6 0 0.44 0.6 0 0.48 0.6 0 0.52 0.6 0 0.56 0.6 0 0.6 0.6 0 0.64 0.6 0 0.68 0.6 0 0.72 0.6 0 0.76 0.6 0 0.8 0.6 0 0.84 0.6 0 0.88 0.6 0 0.92 0.6 0 0.96 0.6 0 1 0.6 0 1.04 0.6 0 1.08 0.6 0 1.12 0.6 0 1.16 0.6 0 1.2 0.6 0 0 0.64 0 0.04 0.64 0 0.08 0.64 0 0.12 0.64 0 0.16 0.64 0 0.2 0.64 0 0.24 0.64 0 0.28 0.64 0 0.32 0.64 0 0.36 0.64 0 0.4 0.64 0 0.44 0.64 0 0.48 0.64 0 0.52 0.64 0 0.56 0.64 0 0.6 0.64 0 0.64 0.64 0 0.68 0.64 0 0.72 0.64 0 0.76 0.64 0 0.8 0.64 0 0.84 0.64 0 0.88 0.64 0 0.92 0.64 0 0.96 0.64 0 1 0.64 0 1.04 0.64 0 1.08 0.64 0 1.12 0.64 0 1.16 0.64 0 1.2 0.64 0 0 0.68 0 0.04 0.68 0 0.08 0.68 0 0.12 0.68 0 0.16 0.68 0 0.2 0.68 0 0.24 0.68 0 0.28 0.68 0 0.32 0.68 0 0.36 0.68 0 0.4 0.68 0 0.44 0.68 0 0.48 0.68 0 0.52 0.68 0 0.56 0.68 0 0.6 0.68 0 0.64 0.68 0 0.68 0.68 0 0.72 0.68 0 0.76 0.68 0 0.8 0.68 0 0.84 0.68 0 0.88 0.68 0 0.92 0.68 0 0.96 0.68 0 1 0.68 0 1.04 0.68 0 1.08 0.68 0 1.12 0.68 0 1.16 0.68 0 1.2 0.68 0 0 0.72 0 0.04 0.72 0 0.08 0.72 0 0.12 0.72 0 0.16 0.72 0 0.2 0.72 0 0.24 0.72 0 0.28 0.72 0 0.32 0.72 0 0.36 0.72 0 0.4 0.72 0 0.44 0.72 0 0.48 0.72 0 0.52 0.72 0 0.56 0.72 0 0.6 0.72 0 0.64 0.72 0 0.68 0.72 0 0.72 0.72 0 0.76 0.72 0 0.8 0.72 0 0.84 0.72 0 0.88 0.72 0 0.92 0.72 0 0.96 0.72 0 1 0.72 0 1.04 0.72 0 1.08 0.72 0 1.12 0.72 0 1.16 0.72 0 1.2 0.72 0 0 0.76 0 0.04 0.76 0 0.08 0.76 0 0.12 0.76 0 0.16 0.76 0 0.2 0.76 0 0.24 0.76 0 0.28 0.76 0 0.32 0.76 0 0.36 0.76 0 0.4 0.76 0 0.44 0.76 0 0.48 0.76 0 0.52 0.76 0 0.56 0.76 0 0.6 0.76 0 0.64 0.76 0 0.68 0.76 0 0.72 0.76 0 0.76 0.76 0 0.8 0.76 0 0.84 0.76 0 0.88 0.76 0 0.92 0.76 0 0.96 0.76 0 1 0.76 0 1.04 0.76 0 1.08 0.76 0 1.12 0.76 0 1.16 0.76 0 1.2 0.76 0 0 0.8 0 0.04 0.8 0 0.08 0.8 0 0.12 0.8 0 0.16 0.8 0 0.2 0.8 0 0.24 0.8 0 0.28 0.8 0 0.32 0.8 0 0.36 0.8 0 0.4 0.8 0 0.44 0.8 0 0.48 0.8 0 0.52 0.8 0 0.56 0.8 0 0.6 0.8 0 0.64 0.8 0 0.68 0.8 0 0.72 0.8 0 0.76 0.8 0 0.8 0.8 0 0.84 0.8 0 0.88 0.8 0 0.92 0.8 0 0.96 0.8 0 1 0.8 0 1.04 0.8 0 1.08 0.8 0 1.12 0.8 0 1.16 0.8 0 1.2 0.8 0 0 0.84 0 0.04 0.84 0 0.08 0.84 0 0.12 0.84 0 0.16 0.84 0 0.2 0.84 0 0.24 0.84 0 0.28 0.84 0 0.32 0.84 0 0.36 0.84 0 0.4 0.84 0 0.44 0.84 0 0.48 0.84 0 0.52 0.84 0 0.56 0.84 0 0.6 0.84 0 0.64 0.84 0 0.68 0.84 0 0.72 0.84 0 0.76 0.84 0 0.8 0.84 0 0.84 0.84 0 0.88 0.84 0 0.92 0.84 0 0.96 0.84 0 1 0.84 0 1.04 0.84 0 1.08 0.84 0 1.12 0.84 0 1.16 0.84 0 1.2 0.84 0 0 0.88 0 0.04 0.88 0 0.08 0.88 0 0.12 0.88 0 0.16 0.88 0 0.2 0.88 0 0.24 0.88 0 0.28 0.88 0 0.32 0.88 0 0.36 0.88 0 0.4 0.88 0 0.44 0.88 0 0.48 0.88 0 0.52 0.88 0 0.56 0.88 0 0.6 0.88 0 0.64 0.88 0 0.68 0.88 0 0.72 0.88 0 0.76 0.88 0 0.8 0.88 0 0.84 0.88 0 0.88 0.88 0 0.92 0.88 0 0.96 0.88 0 1 0.88 0 1.04 0.88 0 1.08 0.88 0 1.12 0.88 0 1.16 0.88 0 1.2 0.88 0 0 0.92 0 0.04 0.92 0 0.08 0.92 0 0.12 0.92 0 0.16 0.92 0 0.2 0.92 0 0.24 0.92 0 0.28 0.92 0 0.32 0.92 0 0.36 0.92 0 0.4 0.92 0 0.44 0.92 0 0.48 0.92 0 0.52 0.92 0 0.56 0.92 0 0.6 0.92 0 0.64 0.92 0 0.68 0.92 0 0.72 0.92 0 0.76 0.92 0 0.8 0.92 0 0.84 0.92 0 0.88 0.92 0 0.92 0.92 0 0.96 0.92 0 1 0.92 0 1.04 0.92 0 1.08 0.92 0 1.12 0.92 0 1.16 0.92 0 1.2 0.92 0 0 0.96 0 0.04 0.96 0 0.08 0.96 0 0.12 0.96 0 0.16 0.96 0 0.2 0.96 0 0.24 0.96 0 0.28 0.96 0 0.32 0.96 0 0.36 0.96 0 0.4 0.96 0 0.44 0.96 0 0.48 0.96 0 0.52 0.96 0 0.56 0.96 0 0.6 0.96 0 0.64 0.96 0 0.68 0.96 0 0.72 0.96 0 0.76 0.96 0 0.8 0.96 0 0.84 0.96 0 0.88 0.96 0 0.92 0.96 0 0.96 0.96 0 1 0.96 0 1.04 0.96 0 1.08 0.96 0 1.12 0.96 0 1.16 0.96 0 1.2 0.96 0 0 1 0 0.04 1 0 0.08 1 0 0.12 1 0 0.16 1 0 0.2 1 0 0.24 1 0 0.28 1 0 0.32 1 0 0.36 1 0 0.4 1 0 0.44 1 0 0.48 1 0 0.52 1 0 0.56 1 0 0.6 1 0 0.64 1 0 0.68 1 0 0.72 1 0 0.76 1 0 0.8 1 0 0.84 1 0 0.88 1 0 0.92 1 0 0.96 1 0 1 1 0 1.04 1 0 1.08 1 0 1.12 1 0 1.16 1 0 1.2 1 0 0 1.04 0 0.04 1.04 0 0.08 1.04 0 0.12 1.04 0 0.16 1.04 0 0.2 1.04 0 0.24 1.04 0 0.28 1.04 0 0.32 1.04 0 0.36 1.04 0 0.4 1.04 0 0.44 1.04 0 0.48 1.04 0 0.52 1.04 0 0.56 1.04 0 0.6 1.04 0 0.64 1.04 0 0.68 1.04 0 0.72 1.04 0 0.76 1.04 0 0.8 1.04 0 0.84 1.04 0 0.88 1.04 0 0.92 1.04 0 0.96 1.04 0 1 1.04 0 1.04 1.04 0 1.08 1.04 0 1.12 1.04 0 1.16 1.04 0 1.2 1.04 0 0 1.08 0 0.04 1.08 0 0.08 1.08 0 0.12 1.08 0 0.16 1.08 0 0.2 1.08 0 0.24 1.08 0 0.28 1.08 0 0.32 1.08 0 0.36 1.08 0 0.4 1.08 0 0.44 1.08 0 0.48 1.08 0 0.52 1.08 0 0.56 1.08 0 0.6 1.08 0 0.64 1.08 0 0.68 1.08 0 0.72 1.08 0 0.76 1.08 0 0.8 1.08 0 0.84 1.08 0 0.88 1.08 0 0.92 1.08 0 0.96 1.08 0 1 1.08 0 1.04 1.08 0 1.08 1.08 0 1.12 1.08 0 1.16 1.08 0 1.2 1.08 0 0 1.12 0 
[...]
			<CellData Scalars="Density">
				<DataArray Name="Density" type="Float32" format="ascii">
 0.0053016 0.00582846 0.00713209 0.00943449 0.0129125 0.0177929 0.0243538 0.0329591 0.0441193 0.0585382 0.0770953 0.100308 0.126664 0.151711 0.172482 0.192637 0.225474 0.267548 0.322602 0.391052 0.47265 0.567265 0.674652 0.793829 0.922887 1.05861 1.1949 1.32301 1.43164 1.50254 0.00583296 0.00608769 0.00698349 0.00881091 0.0117746 0.0162549 0.0225392 0.0310516 0.0423425 0.0573262 0.0770076 0.101964 0.130937 0.159564 0.184545 0.208826 0.245837 0.291856 0.350624 0.423319 0.508867 0.607281 0.718139 0.84027 0.971355 1.10749 1.24196 1.36568 1.46746 1.52709 0.00714617 0.00699251 0.00734918 0.00856835 0.0108019 0.014373 0.0198114 0.0274889 0.0379563 0.0518651 0.070208 0.0935257 0.120675 0.148227 0.173244 0.197353 0.229973 0.272065 0.326718 0.396432 0.4799 0.577831 0.689667 0.814286 0.949543 1.09176 1.23484 1.36904 1.48111 1.55425 0.00946176 0.00883243 0.00857903 0.00932014 0.0109601 0.0139276 0.0186605 0.0256541 0.0353036 0.0483016 0.0653138 0.0870907 0.113247 0.141332 0.168212 0.194577 0.225709 0.267985 0.321956 0.39197 0.476184 0.575571 0.690279 0.818483 0.956794 1.101 1.2451 1.38 1.49213 1.56148 0.012953 0.0118102 0.0108261 0.0109745 0.011993 0.0141472 0.0182073 0.0245791 0.0337715 0.046235 0.0628345 0.0841727 0.110132 0.139054 0.168768 0.198225 0.229561 0.272377 0.325495 0.396083 0.481245 0.581148 0.695984 0.82436 0.963672 1.10912 1.25392 1.38993 1.5027 1.57224 0.0178462 0.0163035 0.0144105 0.0139541 0.0141571 0.0152093 0.0179725 0.0232841 0.0315162 0.0432692 0.0590431 0.0795622 0.104964 0.134599 0.166545 0.198126 0.230436 0.270573 0.321221 0.389592 0.474228 0.574019 0.689496 0.819372 0.960809 1.11022 1.26107 1.40349 1.5239 1.6006 0.0244176 0.0225991 0.0198562 0.0186904 0.0182236 0.0179845 0.0191379 0.0226237 0.0292656 0.0394609 0.0538929 0.0729607 0.0974708 0.127138 0.160826 0.196619 0.232256 0.270752 0.321771 0.387843 0.473094 0.573931 0.690887 0.824254 0.970775 1.12586 1.28365 1.43329 1.56117 1.63697 0.0330309 0.0311188 0.0275326 0.0256795 0.0245922 0.0232983 0.0226394 0.0240789 0.0284581 0.0366966 0.0491105 0.0664799 0.0891162 0.11773 0.152512 0.19069 0.229198 0.26942 0.318577 0.380752 0.464921 0.566614 0.685843 0.822101 0.974804 1.13886 1.30704 1.46809 1.60747 1.69229 0.0441996 0.0424163 0.0379977 0.0353206 0.0337753 0.0315193 0.0292755 0.028454 0.030266 0.0357599 0.0459887 0.0610632 0.0818249 0.109006 0.142936 0.183015 0.226664 0.270116 0.316927 0.377801 0.459411 0.562571 0.68478 0.82636 0.985519 1.16037 1.34194 1.5169 1.66691 1.75391 0.058633 0.057408 0.0519045 0.0483114 0.0462315 0.0432497 0.0394565 0.0366757 0.0357489 0.0380097 0.044825 0.057494 0.0759393 0.101169 0.134011 0.174913 0.221218 0.269217 0.318311 0.37759 0.454171 0.557541 0.681848 0.829191 0.996944 1.1818 1.37765 1.56911 1.7348 1.82852 0.0771898 0.0770999 0.0702449 0.065322 0.0628253 0.0589986 0.0538648 0.0490625 0.045955 0.04481 0.0476641 0.0561886 0.0719556 0.0947948 0.125816 0.166337 0.215837 0.269653 0.321676 0.377686 0.451794 0.553747 0.681203 0.833329 1.01104 1.20958 1.42018 1.62791 1.81051 1.90912 0.100401 0.102076 0.0935619 0.0871057 0.0841644 0.079504 0.0729156 0.0663973 0.0609973 0.057448 0.0561545 0.0597261 0.0704745 0.0905642 0.118893 0.158438 0.209026 0.267113 0.325605 0.38355 0.454868 0.552037 0.682304 0.838901 1.02389 1.23695 1.46579 1.69418 1.89431 2.00093 0.126755 0.13106 0.120706 0.113282 0.110126 0.104891 0.0974276 0.0890167 0.0817124 0.075861 0.07189 0.0704622 0.0749676 0.0889589 0.11485 0.152018 0.202816 0.265098 0.331129 0.393917 0.46035 0.552813 0.682694 0.846614 1.04066 1.26634 1.51409 1.76675 1.9894 2.10232 0.151763 0.159652 0.148248 0.141384 0.139006 0.134532 0.127153 0.117638 0.108873 0.101052 0.0946626 0.0905112 0.0889068 0.0951825 0.113413 0.147856 0.197564 0.262601 0.336019 0.407355 0.474365 0.561704 0.686778 0.855726 1.05912 1.29791 1.56528 1.84164 2.09311 2.21653 0.172479 0.184585 0.173238 0.168211 0.168676 0.166525 0.160766 0.15239 0.142839 0.133848 0.125672 0.118808 0.11472 0.113327 0.122832 0.147275 0.193209 0.260778 0.340005 0.421874 0.495785 0.576605 0.694074 0.86283 1.0771 1.33109 1.62051 1.92325 2.20678 2.34848 0.192617 0.208793 0.197252 0.194527 0.198278 0.198036 0.196397 0.19071 0.1828 0.174783 0.166194 0.158288 0.151862 0.147643 0.147197 0.161678 0.194747 0.256556 0.346349 0.439819 0.525924 0.6037 0.711812 0.875887 1.09691 1.36574 1.67755 2.01243 2.32977 2.50104 0.225448 0.245784 0.229918 0.225721 0.22952 0.23002 0.232263 0.229209 0.22624 0.221203 0.215504 0.208927 0.202611 0.197346 0.193037 0.19464 0.216532 0.261805 0.345296 0.453996 0.559704 0.642814 0.740466 0.893912 1.11473 1.39974 1.73607 2.10825 2.46381 2.67468 0.267509 0.29179 0.272015 0.267847 0.272243 0.27038 0.270745 0.269067 0.27008 0.2693 0.269429 0.266704 0.264891 0.262567 0.260726 0.256339 0.261704 0.29363 0.356913 0.463837 0.595921 0.700802 0.787992 0.925584 1.14019 1.43605 1.79696 2.20976 2.61238 2.86978 0.322557 0.350549 0.326647 0.321808 0.325416 0.321007 0.321483 0.318387 0.316909 0.317739 0.321381 0.325474 0.33145 0.335568 0.340112 0.346232 0.344836 0.356855 0.40007 0.486897 0.618237 0.763944 0.864139 0.976904 1.17539 1.47065 1.85801 2.31543 2.77606 3.08949 0.390989 0.42323 0.396354 0.391826 0.395977 0.389349 0.387593 0.380568 0.377476 0.377166 0.377495 0.383508 0.393777 0.406663 0.422259 0.439203 0.454548 0.464041 0.486885 0.55029 0.662534 0.815813 0.963709 1.06483 1.23177 1.51799 1.92268 2.42732 2.95594 3.33763 0.472556 0.508756 0.479799 0.476006 0.481107 0.47396 0.472812 0.464652 0.459128 0.453985 0.45147 0.454733 0.459734 0.474145 0.496487 0.524867 0.558967 0.594862 0.61864 0.662918 0.748379 0.885409 1.06036 1.20142 1.33104 1.58671 1.99158 2.54514 3.15014 3.61626 0.56714 0.607148 0.57771 0.575379 0.580984 0.573741 0.5737 0.566316 0.562167 0.557318 0.553494 0.55163 0.552369 0.561913 0.57597 0.603029 0.643029 0.700913 0.763022 0.81534 0.885451 1.00231 1.1714 1.35801 1.49817 1.69941 2.08593 2.67041 3.35989 3.92994 0.674496 0.717979 0.689515 0.690061 0.695782 0.689175 0.690578 0.685631 0.684334 0.681475 0.681143 0.682123 0.682168 0.68626 0.693991 0.712033 0.739566 0.788206 0.86263 0.964684 1.05984 1.17144 1.32902 1.53005 1.72621 1.90851 2.22742 2.81681 3.5955 4.2819 0.793636 0.840076 0.814099 0.818216 0.824102 0.81915 0.823831 0.821829 0.826228 0.828688 0.832992 0.838963 0.846412 0.855184 0.862551 0.875744 0.894002 0.925781 0.975394 1.06772 1.19958 1.35736 1.52896 1.74257 1.98572 2.20998 2.47297 3.03207 3.87859 4.70286 0.922676 0.971144 0.949346 0.956508 0.963251 0.960553 0.970561 0.974281 0.98534 0.996863 1.01046 1.02373 1.04076 1.05909 1.07692 1.09634 1.11439 1.14059 1.17545 1.23204 1.32879 1.50029 1.72785 1.98618 2.28676 2.58767 2.87563 3.35257 4.25409 5.2141 1.05836 1.10723 1.09152 1.10082 1.10884 1.10978 1.1257 1.13862 1.15978 1.18155 1.20937 1.23654 1.266 1.29817 1.33134 1.36593 1.3995 1.4357 1.4703 1.51849 1.58743 1.6992 1.90789 2.20992 2.5889 3.01456 3.43041 3.88605 4.76518 5.90586 1.19463 1.24166 1.23447 1.24467 1.25364 1.26065 1.28329 1.30702 1.34149 1.3773 1.42032 1.46579 1.51372 1.56534 1.62064 1.67757 1.73616 1.79712 1.85767 1.92237 1.99166 2.08603 2.22827 2.47326 2.87575 3.43062 4.02133 4.75071 5.58478 6.96743 1.32266 1.3654 1.36875 1.37962 1.38963 1.40315 1.43276 1.46816 1.51649 1.5684 1.628 1.69449 1.76641 1.8412 1.92359 2.01289 2.10894 2.21017 2.3151 2.4273 2.5452 2.67026 2.81717 3.03246 3.35333 3.88671 4.75126 5.56052 6.93821 8.90188 1.43124 1.46714 1.4807 1.49172 1.50229 1.52375 1.56075 1.6072 1.66646 1.73446 1.81012 1.89392 1.98944 2.09325 2.20625 2.32934 2.46536 2.61419 2.77641 2.95646 3.15042 3.35952 3.59597 3.87941 4.25458 4.76587 5.58558 6.93888 8.20671 13.021 1.5021 1.52678 1.55381 1.56115 1.57175 1.60038 1.63657 1.69201 1.75319 1.82823 1.90943 2.00036 2.10189 2.21674 2.3477 2.50003 2.67517 2.86999 3.08885 3.33946 3.61766 3.92809 4.28287 4.7056 5.21271 5.90695 6.97033 8.903 13.0205 13.2676
				</DataArray>
				<DataArray Name="Energy" type="Float32" format="ascii">
 917.12 834.211 681.674 515.082 376.222 272.727 198.989 146.678 109.158 81.6874 61.1369 45.556 33.7204 24.8489 18.4112 14.0195 11.2064 9.18129 7.68428 6.51886 5.58314 4.82174 4.1992 3.68841 3.26823 2.92231 2.63781 2.40571 2.22225 2.102 833.583 798.774 695.964 551.606 412.273 298.577 214.907 155.704 113.657 83.4005 61.2623 44.8824 32.7374 23.8097 17.4361 13.1361 10.4173 8.48549 7.07729 6.003 5.15173 4.46831 3.91475 3.46371 3.09451 2.79175 2.54366 2.34167 2.18027 2.06101 680.34 695.082 661.405 566.624 449.579 337.203 244.429 175.613 126.735 91.9689 67.0263 48.9189 35.6722 26.0339 19.1756 14.4696 11.3903 9.23603 7.66862 6.47656 5.52722 4.76055 4.1351 3.62278 3.20349 2.86123 2.58252 2.35666 2.17792 2.06068 513.61 550.27 565.927 521.118 442.282 348.028 259.002 188.026 135.936 98.7577 71.9781 52.4908 38.2229 27.8764 20.4887 15.3664 11.9222 9.57455 7.87723 6.60787 5.60484 4.80323 4.1593 3.6383 3.21447 2.86994 2.59067 2.36648 2.19135 2.0692 375.053 411.041 448.584 441.702 404.232 341.737 265.314 195.708 141.889 102.765 74.7636 54.4597 39.7094 28.9887 21.308 15.9056 12.1752 9.6927 7.91437 6.62332 5.61724 4.81649 4.174 3.65499 3.23375 2.89086 2.61167 2.38709 2.20963 2.08484 271.917 297.694 336.325 347.374 341.498 317.744 267.849 206.322 151.542 109.676 79.2794 57.557 41.9054 30.6569 22.6295 16.8678 12.8306 10.1117 8.1966 6.82962 5.77963 4.94376 4.27334 3.73216 3.29253 2.93521 2.64404 2.40793 2.22148 2.09387 198.467 214.34 243.882 258.59 265.077 267.677 251.244 211.456 162.863 119.801 86.9141 62.8905 45.6386 33.3239 24.473 18.1468 13.6751 10.5854 8.48851 7.00264 5.8983 5.02764 4.33175 3.77211 3.31868 2.94925 2.64948 2.40772 2.21978 2.08714 146.361 155.364 175.335 187.841 195.606 206.194 211.316 198.232 166.706 128.569 94.9228 69.1938 50.3418 36.7335 26.9664 19.9464 14.9019 11.3726 8.98488 7.31398 6.11698 5.18534 4.44581 3.85055 3.36993 2.97965 2.66287 2.40755 2.21045 2.07569 108.972 113.455 126.6 135.874 141.875 151.533 162.804 166.735 156.228 131.267 101.392 75.2122 55.1914 40.5215 29.7895 21.9976 16.3609 12.3345 9.55581 7.66724 6.34252 5.34115 4.54982 3.91778 3.40664 2.99489 2.66289 2.39819 2.1971 2.05863 81.5795 83.2799 91.9037 98.7411 102.778 109.725 119.824 128.638 131.311 123.006 103.475 80.2136 59.9848 44.3878 32.8375 24.3673 18.0746 13.5093 10.3027 8.12293 6.61542 5.52847 4.67534 3.99931 3.45626 3.01798 2.66794 2.39122 2.18381 2.042 61.0713 61.1929 66.995 71.975 74.7842 79.3406 86.9687 95.0209 101.473 103.514 97.1974 81.9577 63.8607 48.1222 35.9741 26.8448 20.0132 14.9152 11.2119 8.65332 6.93237 5.73048 4.81439 4.08734 3.50854 3.04448 2.67431 2.38459 2.17251 2.02664 45.5158 44.8425 48.8998 52.492 54.4716 57.6055 62.9427 69.2811 75.3094 80.2796 82.0139 77.4449 65.6333 51.4063 39.0502 29.4868 22.1351 16.5129 12.3008 9.33362 7.33165 5.96443 4.97169 4.19058 3.56916 3.07757 2.6879 2.38496 2.16451 2.01413 33.6956 32.7132 35.6594 38.2247 39.7135 41.9429 45.6686 50.4123 55.2716 60.0514 63.9273 65.6456 62.2802 53.1063 41.775 31.98 24.2758 18.2431 13.5753 10.1537 7.7972 6.23446 5.14136 4.30623 3.64279 3.11807 2.70647 2.39 2.16142 2.00451 24.8312 23.7928 26.0217 27.8786 28.9897 30.6782 33.3372 36.7752 40.5716 44.4469 48.1899 51.4386 53.1388 50.5866 43.4296 34.326 26.3647 20.0638 15.0116 11.1444 8.39343 6.57386 5.34188 4.4388 3.72874 3.16865 2.73247 2.39895 2.16152 1.99774 18.3981 17.4252 19.1684 20.4895 21.3016 22.645 24.485 26.9835 29.8278 32.8651 36.0279 39.0897 41.8196 43.4665 41.4377 35.8188 28.4222 21.8213 16.5338 12.2959 9.13097 6.98123 5.57236 4.58305 3.82617 3.2293 2.76596 2.41255 2.16321 1.99258 14.0119 13.1294 14.4627 15.3644 15.9067 16.8798 18.1503 19.961 22.0224 24.3799 26.8809 29.5049 32.0166 34.3692 35.8405 34.1697 29.6425 23.6472 18.0104 13.5621 10.0322 7.50688 5.85973 4.7554 3.93921 3.30124 2.80647 2.43155 2.16681 1.99038 11.2021 10.4134 11.3864 11.9235 12.1745 12.8286 13.6796 14.9103 16.3651 18.0842 20.0344 22.1602 24.2949 26.3938 28.4436 29.6664 28.2165 24.5463 19.7257 14.784 11.0687 8.1693 6.21712 4.95475 4.06332 3.38346 2.85478 2.45581 2.17359 1.99148 9.17875 8.48335 9.23397 9.57406 9.69026 10.1137 10.5911 11.3706 12.3416 13.5204 14.9234 16.5154 18.2508 20.0867 21.8273 23.6673 24.5605 23.2641 20.3291 16.3864 12.1079 8.99134 6.68515 5.20329 4.21135 3.47817 2.91169 2.4844 2.18278 1.99264 7.6828 7.0762 7.6672 7.87718 7.91351 8.19839 8.4899 8.98579 9.56181 10.3003 11.2129 12.3043 13.5882 15.025 16.5346 18.0209 19.734 20.337 19.2266 16.8308 13.4593 9.87569 7.30148 5.52103 4.38488 3.58115 2.97603 2.51663 2.19339 1.99288 6.51789 6.0024 6.47557 6.60811 6.62263 6.83076 7.00392 7.31517 7.66838 8.12247 8.65646 9.33586 10.1564 11.1488 12.2969 13.566 14.7943 16.3858 16.8328 15.9572 13.9181 11.0097 8.02554 5.95388 4.60216 3.7062 3.05031 2.55484 2.20801 1.9969 5.58241 5.15136 5.5264 5.60491 5.61663 5.78038 5.89902 6.11762 6.34382 6.61589 6.9328 7.3336 7.79452 8.39578 9.13678 10.0329 11.068 12.1022 13.4693 13.918 13.1984 11.4465 8.96456 6.50578 4.89809 3.85831 3.13349 2.59845 2.22417 2.00212 4.82115 4.46806 4.75986 4.80322 4.81597 4.94421 5.0282 5.18549 5.34193 5.52879 5.73015 5.96476 6.23456 6.57654 6.9785 7.50637 8.1711 8.99106 9.88238 11.0041 11.4485 10.8802 9.39506 7.27776 5.29693 4.05724 3.23834 2.64835 2.24197 2.00687 4.19867 3.91452 4.13451 4.15919 4.17348 4.27341 4.33194 4.44588 4.54979 4.67549 4.81485 4.97159 5.14069 5.34216 5.57277 5.86061 6.21509 6.68751 7.30035 8.02077 8.96391 9.39538 8.9448 7.69017 5.89262 4.34113 3.37046 2.70865 2.26483 2.01449 3.68791 3.46348 3.62227 3.63815 3.65452 3.73217 3.77183 3.85057 3.918 3.99864 4.08744 4.19085 4.30563 4.43813 4.58316 4.75576 4.95567 5.20384 5.5197 5.95975 6.50656 7.27936 7.68865 7.33207 6.27464 4.78677 3.55615 2.79659 2.30083 2.02756 3.26776 3.09426 3.20305 3.21425 3.23322 3.29238 3.31843 3.36931 3.40676 3.45606 3.50784 3.56934 3.6428 3.72828 3.82558 3.93869 4.06385 4.21216 4.38539 4.60243 4.89571 5.29933 5.89377 6.27564 5.99607 5.11763 3.8917 2.92106 2.35583 2.04406 2.92185 2.79146 2.86087 2.86981 2.89056 2.93472 2.94888 2.97916 2.99452 3.01762 3.04395 3.07719 3.11761 3.16848 3.22898 3.30119 3.38316 3.47761 3.58138 3.70681 3.85888 4.05714 4.34101 4.78807 5.11869 4.89334 4.16366 3.1762 2.43609 2.07355 2.63738 2.54335 2.58213 2.59033 2.61146 2.6435 2.64885 2.66241 2.6627 2.66753 2.67389 2.68773 2.70613 2.73204 2.76567 2.80651 2.85468 2.91126 2.97569 3.04968 3.13345 3.23857 3.37081 3.55629 3.8919 4.1637 3.98323 3.39483 2.64421 2.13588 2.40528 2.34137 2.3564 2.36617 2.38688 2.40734 2.40695 2.40704 2.39814 2.3906 2.38391 2.38514 2.38976 2.39807 2.41254 2.432 2.45572 2.48392 2.51641 2.55445 2.59804 2.64807 2.70853 2.79658 2.92112 3.17624 3.39484 3.29653 2.79828 2.30824 2.22183 2.17992 2.17765 2.191 2.20938 2.22096 2.21913 2.20972 2.19715 2.18343 2.17145 2.16463 2.1615 2.1608 2.16316 2.1673 2.17339 2.18249 2.19387 2.20762 2.22345 2.24205 2.26462 2.30031 2.35579 2.43602 2.64417 2.79822 2.7083 2.40746 2.10159 2.06064 2.06041 2.06888 2.08458 2.09328 2.0866 2.07502 2.0587 2.04166 2.02578 2.01435 2.00438 1.99695 1.99283 1.99085 1.99027 1.99172 1.99378 1.99638 2.00153 2.00769 2.01409 2.02675 2.0446 2.07333 2.13529 2.30828 2.40768 2.22212
				</DataArray>
				<DataArray Name="F1" type="Float32" format="ascii">
 1 1 1 1 1 1 1 1 1 1 1 1 1 1 1 1 1 1 1 1 1 1 1 1 1 1 1 1 1 1 1 1 1 1 1 1 1 1 1 1 1 1 1 1 1 1 1 1 1 1 1 1 1 1 1 1 1 1 1 1 1 1 1 1 1 1 1 1 1 1 1 1 1 1 1 1 1 1 1 1 1 1 1 1 1 1 1 1 1 1 1 1 1 1 1 1 1 1 1 1 1 1 1 1 1 1 1 1 1 1 1 1 1 1 1 1 1 1 1 1 1 1 1 1 1 1 1 1 1 1 1 1 1 1 1 1 1 1 1 1 1 1 1 1 1 1 1 1 1 1 1 1 1 1 1 1 1 1 1 1 1 1 1 1 1 1 1 1 1 1 1 1 1 1 1 1 1 1 1 1 1 1 1 1 1 1 1 1 1 1 1 1 1 1 1 1 1 1 1 1 1 1 1 1 1 1 1 1 1 1 1 1 1 1 1 1 1 1 1 1 1 1 1 1 1 1 1 1 1 1 1 1 1 1 1 1 1 1 1 1 1 1 1 1 1 1 1 1 1 1 1 1 1 1 1 1 1 1 1 1 1 1 1 1 1 1 1 1 1 1 1 1 1 1 1 1 1 1 1 1 1 1 1 1 1 1 1 1 1 1 1 1 1 1 1 1 1 1 1 1 1 1 1 1 1 1 1 1 1 1 1 1 1 1 1 1 1 1 1 1 1 1 1 1 1 1 1 1 1 1 1 1 1 1 1 1 1 1 1 1 1 1 1 1 1 1 1 1 1 1 1 1 1 1 1 1 1 1 1 1 1 1 1 1 1 1 1 1 1 1 1 1 1 1 1 1 1 1 1 1 1 1 1 1 1 1 1 1 1 1 1 1 1 1 1 1 1 1 1 1 1 1 1 1 1 1 1 1 1 1 1 1 1 1 1 1 1 1 1 1 1 1 1 1 1 1 1 1 1 1 1 1 1 1 1 1 1 1 1 1 1 1 1 1 1 1 1 1 1 1 1 1 1 1 1 1 1 1 1 1 1 1 1 1 1 1 1 1 1 1 1 1 1 1 1 1 1 1 1 1 1 1 1 1 1 1 1 1 1 1 1 1 1 1 1 1 1 1 1 1 1 1 1 1 1 1 1 1 1 1 1 1 1 1 1 1 1 1 1 1 1 1 1 1 1 1 1 1 1 1 1 1 1 1 1 1 1 1 1 1 1 1 1 1 1 1 1 1 1 1 1 1 1 1 1 1 1 1 1 1 1 1 1 1 1 1 1 1 1 1 1 1 1 1 1 1 1 1 1 1 1 1 1 1 1 1 1 1 1 1 1 1 1 1 1 1 1 1 1 1 1 1 1 1 1 1 1 1 1 1 1 1 1 1 1 1 1 1 1 1 1 1 1 1 1 1 1 1 1 1 1 1 1 1 1 1 1 1 1 1 1 1 1 1 1 1 1 1 1 1 1 1 1 1 1 1 1 1 1 1 1 1 1 1 1 1 1 1 1 1 1 1 1 1 1 1 1 1 1 1 1 1 1 1 1 1 1 1 1 1 1 1 1 1 1 1 1 1 1 1 1 1 1 1 1 1 1 1 1 1 1 1 1 1 1 1 1 1 1 1 1 1 1 1 1 1 1 1 1 1 1 1 1 1 1 1 1 1 1 1 1 1 1 1 1 1 1 1 1 1 1 1 1 1 1 1 1 1 1 1 1 1 1 1 1 1 1 1 1 1 1 1 1 1 1 1 1 1 1 1 1 1 1 1 1 1 1 1 1 1 1 1 1 1 1 1 1 1 1 1 1 1 1 1 1 1 1 1 1 1 1 1 1 1 1 1 1 1 1 1 1 1 1 1 1 1 1 1 1 1 1 1 1 1 1 1 1 1 1 1 1 1 1 1 1 1 1 1 1 1 1 1 1 1 1 1 1 1 1 1 1 1 1 1 1 1 1 1 1 1 1 1 1 1 1 1 1 1 1 1 1 1 1 1 1 1 1 1 1 1 1 1 1 1 1 1 1 1 1 1
				</DataArray>
				<DataArray Name="F2" type="Float32" format="ascii">
 0 0 0 0 0 0 0 0 0 0 0 0 0 0 0 0 0 0 0 0 0 0 0 0 0 0 0 0 0 0 0 0 0 0 0 0 0 0 0 0 0 0 0 0 0 0 0 0 0 0 0 0 0 0 0 0 0 0 0 0 0 0 0 0 0 0 0 0 0 0 0 0 0 0 0 0 0 0 0 0 0 0 0 0 0 0 0 0 0 0 0 0 0 0 0 0 0 0 0 0 0 0 0 0 0 0 0 0 0 0 0 0 0 0 0 0 0 0 0 0 0 0 0 0 0 0 0 0 0 0 0 0 0 0 0 0 0 0 0 0 0 0 0 0 0 0 0 0 0 0 0 0 0 0 0 0 0 0 0 0 0 0 0 0 0 0 0 0 0 0 0 0 0 0 0 0 0 0 0 0 0 0 0 0 0 0 0 0 0 0 0 0 0 0 0 0 0 0 0 0 0 0 0 0 0 0 0 0 0 0 0 0 0 0 0 0 0 0 0 0 0 0 0 0 0 0 0 0 0 0 0 0 0 0 0 0 0 0 0 0 0 0 0 0 0 0 0 0 0 0 0 0 0 0 0 0 0 0 0 0 0 0 0 0 0 0 0 0 0 0 0 0 0 0 0 0 0 0 0 0 0 0 0 0 0 0 0 0 0 0 0 0 0 0 0 0 0 0 0 0 0 0 0 0 0 0 0 0 0 0 0 0 0 0 0 0 0 0 0 0 0 0 0 0 0 0 0 0 0 0 0 0 0 0 0 0 0 0 0 0 0 0 0 0 0 0 0 0 0 0 0 0 0 0 0 0 0 0 0 0 0 0 0 0 0 0 0 0 0 0 0 0 0 0 0 0 0 0 0 0 0 0 0 0 0 0 0 0 0 0 0 0 0 0 0 0 0 0 0 0 0 0 0 0 0 0 0 0 0 0 0 0 0 0 0 0 0 0 0 0 0 0 0 0 0 0 0 0 0 0 0 0 0 0 0 0 0 0 0 0 0 0 0 0 0 0 0 0 0 0 0 0 0 0 0 0 0 0 0 0 0 0 0 0 0 0 0 0 0 0 0 0 0 0 0 0 0 0 0 0 0 0 0 0 0 0 0 0 0 0 0 0 0 0 0 0 0 0 0 0 0 0 0 0 0 0 0 0 0 0 0 0 0 0 0 0 0 0 0 0 0 0 0 0 0 0 0 0 0 0 0 0 0 0 0 0 0 0 0 0 0 0 0 0 0 0 0 0 0 0 0 0 0 0 0 0 0 0 0 0 0 0 0 0 0 0 0 0 0 0 0 0 0 0 0 0 0 0 0 0 0 0 0 0 0 0 0 0 0 0 0 0 0 0 0 0 0 0 0 0 0 0 0 0 0 0 0 0 0 0 0 0 0 0 0 0 0 0 0 0 0 0 0 0 0 0 0 0 0 0 0 0 0 0 0 0 0 0 0 0 0 0 0 0 0 0 0 0 0 0 0 0 0 0 0 0 0 0 0 0 0 0 0 0 0 0 0 0 0 0 0 0 0 0 0 0 0 0 0 0 0 0 0 0 0 0 0 0 0 0 0 0 0 0 0 0 0 0 0 0 0 0 0 0 0 0 0 0 0 0 0 0 0 0 0 0 0 0 0 0 0 0 0 0 0 0 0 0 0 0 0 0 0 0 0 0 0 0 0 0 0 0 0 0 0 0 0 0 0 0 0 0 0 0 0 0 0 0 0 0 0 0 0 0 0 0 0 0 0 0 0 0 0 0 0 0 0 0 0 0 0 0 0 0 0 0 0 0 0 0 0 0 0 0 0 0 0 0 0 0 0 0 0 0 0 0 0 0 0 0 0 0 0 0 0 0 0 0 0 0 0 0 0 0 0 0 0 0 0 0 0 0 0 0 0 0 0 0 0 0 0 0 0 0 0 0 0 0 0 0 0 0 0 0 0 0 0 0 0 0 0 0 0 0 0 0 0 0 0 0 0 0 0 0 0 0 0 0 0 0 0 0 0 0 0 0 0 0 0 0 0 0 0 0 0 0 0 0 0 0
				</DataArray>
				<DataArray Name="F3" type="Float32" format="ascii">