<?xml version="1.0"?>
<VTKFile type="PolyData">
	<PolyData>
		<Piece NumberOfPoints="961" NumberOfPolys="900">
			<Points>
				<DataArray type="Float32" NumberOfComponents="3" format="ascii">
 0 0 0 0.04 0 0 0.08 0 0 0.12 0 0 0.16 0 0 0.2 0 0 0.24 0 0 0.28 0 0 0.32 0 0 0.36 0 0 0.4 0 0 0.44 0 0 0.48 0 0 0.52 0 0 0.56 0 0 0.6 0 0 0.64 0 0 0.68 0 0 0.72 0 0 0.76 0 0 0.8 0 0 0.84 0 0 0.88 0 0 0.92 0 0 0.96 0 0 1 0 0 1.04 0 0 1.08 0 0 1.12 0 0 1.16 0 0 1.2 0 0 0 0.04 0 0.04 0.04 0 0.08 0.04 0 0.12 0.04 0 0.16 0.04 0 0.2 0.04 0 0.24 0.04 0 0.28 0.04 0 0.32 0.04 0 0.36 0.04 0 0.4 0.04 0 0.44 0.04 0 0.48 0.04 0 0.52 0.04 0 0.56 0.04 0 0.6 0.04 0 0.64 0.04 0 0.68 0.04 0 0.72 0.04 0 0.76 0.04 0 0.8 0.04 0 0.84 0.04 0 0.88 0.04 0 0.92 0.04 0 0.96 0.04 0 1 0.04 0 1.04 0.04 0 1.08 0.04 0 1.12 0.04 0 1.16 0.04 0 1.2 0.04 0 0 0.08 0 0.04 0.08 0 0.08 0.08 0 0.12 0.08 0 0.16 0.08 0 0.2 0.08 0 0.24 0.08 0 0.28 0.08 0 0.32 0.08 0 0.36 0.08 0 0.4 0.08 0 0.44 0.08 0 0.48 0.08 0 0.52 0.08 0 0.56 0.08 0 0.6 0.08 0 0.64 0.08 0 0.68 0.08 0 0.72 0.08 0 0.76 0.08 0 0.8 0.08 0 0.84 0.08 0 0.88 0.08 0 0.92 0.08 0 0.96 0.08 0 1 0.08 0 1.04 0.08 0 1.08 0.08 0 1.12 0.08 0 1.16 0.08 0 1.2 0.08 0 0 0.12 0 0.04 0.12 0 0.08 0.12 0 0.12 0.12 0 0.16 0.12 0 0.2 0.12 0 0.24 0.12 0 0.28 0.12 0 0.32 0.12 0 0.36 0.12 0 0.4 0.12 0 0.44 0.12 0 0.48 0.12 0 0.52 0.12 0 0.56 0.12 0 0.6 0.12 0 0.64 0.12 0 0.68 0.12 0 0.72 0.12 0 0.76 0.12 0 0.8 0.12 0 0.84 0.12 0 0.88 0.12 0 0.92 0.12 0 0.96 0.12 0 1 0.12 0 1.04 0.12 0 1.08 0.12 0 1.12 0.12 0 1.16 0.12 0 1.2 0.12 0 0 0.16 0 0.04 0.16 0 0.08 0.16 0 0.12 0.16 0 0.16 0.16 0 0.2 0.16 0 0.24 0.16 0 0.28 0.16 0 0.32 0.16 0 0.36 0.16 0 0.4 0.16 0 0.44 0.16 0 0.48 0.16 0 0.52 0.16 0 0.56 0.16 0 0.6 0.16 0 0.64 0.16 0 0.68 0.16 0 0.72 0.16 0 0.76 0.16 0 0.8 0.16 0 0.84 0.16 0 0.88 0.16 0 0.92 0.16 0 0.96 0.16 0 1 0.16 0 1.04 0.16 0 1.08 0.16 0 1.12 0.16 0 1.16 0.16 0 1.2 0.16 0 0 0.2 0 0.04 0.2 0 0.08 0.2 0 0.12 0.2 0 0.16 0.2 0 0.2 0.2 0 0.24 0.2 0 0.28 0.2 0 0.32 0.2 0 0.36 0.2 0 0.4 0.2 0 0.44 0.2 0 0.48 0.2 0 0.52 0.2 0 0.56 0.2 0 0.6 0.2 0 0.64 0.2 0 0.68 0.2 0 0.72 0.2 0 0.76 0.2 0 0.8 0.2 0 0.84 0.2 0 0.88 0.2 0 0.92 0.2 0 0.96 0.2 0 1 0.2 0 1.04 0.2 0 1.08 0.2 0 1.12 0.2 0 1.16 0.2 0 1.2 0.2 0 0 0.24 0 0.04 0.24 0 0.08 0.24 0 0.12 0.24 0 0.16 0.24 0 0.2 0.24 0 0.24 0.24 0 0.28 0.24 0 0.32 0.24 0 0.36 0.24 0 0.4 0.24 0 0.44 0.24 0 0.48 0.24 0 0.52 0.24 0 0.56 0.24 0 0.6 0.24 0 0.64 0.24 0 0.68 0.24 0 0.72 0.24 0 0.76 0.24 0 0.8 0.24 0 0.84 0.24 0 0.88 0.24 0 0.92 0.24 0 0.96 0.24 0 1 0.24 0 1.04 0.24 0 1.08 0.24 0 1.12 0.24 0 1.16 0.24 0 1.2 0.24 0 0 0.28 0 0.04 0.28 0 0.08 0.28 0 0.12 0.28 0 0.16 0.28 0 0.2 0.28 0 0.24 0.28 0 0.28 0.28 0 0.32 0.28 0 0.36 0.28 0 0.4 0.28 0 0.44 0.28 0 0.48 0.28 0 0.52 0.28 0 0.56 0.28 0 0.6 0.28 0 0.64 0.28 0 0.68 0.28 0 0.72 0.28 0 0.76 0.28 0 0.8 0.28 0 0.84 0.28 0 0.88 0.28 0 0.92 0.28 0 0.96 0.28 0 1 0.28 0 1.04 0.28 0 1.08 0.28 0 1.12 0.28 0 1.16 0.28 0 1.2 0.28 0 0 0.32 0 0.04 0.32 0 0.08 0.32 0 0.12 0.32 0 0.16 0.32 0 0.2 0.32 0 0.24 0.32 0 0.28 0.32 0 0.32 0.32 0 0.36 0.32 0 0.4 0.32 0 0.44 0.32 0 0.48 0.32 0 0.52 0.32 0 0.56 0.32 0 0.6 0.32 0 0.64 0.32 0 0.68 0.32 0 0.72 0.32 0 0.76 0.32 0 0.8 0.32 0 0.84 0.32 0 0.88 0.32 0 0.92 0.32 0 0.96 0.32 0 1 0.32 0 1.04 0.32 0 1.08 0.32 0 1.12 0.32 0 1.16 0.32 0 1.2 0.32 0 0 0.36 0 0.04 0.36 0 0.08 0.36 0 0.12 0.36 0 0.16 0.36 0 0.2 0.36 0 0.24 0.36 0 0.28 0.36 0 0.32 0.36 0 0.36 0.36 0 0.4 0.36 0 0.44 0.36 0 0.48 0.36 0 0.52 0.36 0 0.56 0.36 0 0.6 0.36 0 0.64 0.36 0 0.68 0.36 0 0.72 0.36 0 0.76 0.36 0 0.8 0.36 0 0.84 0.36 0 0.88 0.36 0 0.92 0.36 0 0.96 0.36 0 1 0.36 0 1.04 0.36 0 1.08 0.36 0 1.12 0.36 0 1.16 0.36 0 1.2 0.36 0 0 0.4 0 0.04 0.4 0 0.08 0.4 0 0.12 0.4 0 0.16 0.4 0 0.2 0.4 0 0.24 0.4 0 0.28 0.4 0 0.32 0.4 0 0.36 0.4 0 0.4 0.4 0 0.44 0.4 0 0.48 0.4 0 0.52 0.4 0 0.56 0.4 0 0.6 0.4 0 0.64 0.4 0 0.68 0.4 0 0.72 0.4 0 0.76 0.4 0 0.8 0.4 0 0.84 0.4 0 0.88 0.4 0 0.92 0.4 0 0.96 0.4 0 1 0.4 0 1.04 0.4 0 1.08 0.4 0 1.12 0.4 0 1.16 0.4 0 1.2 0.4 0 0 0.44 0 0.04 0.44 0 0.08 0.44 0 0.12 0.44 0 0.16 0.44 0 0.2 0.44 0 0.24 0.44 0 0.28 0.44 0 0.32 0.44 0 0.36 0.44 0 0.4 0.44 0 0.44 0.44 0 0.48 0.44 0 0.52 0.44 0 0.56 0.44 0 0.6 0.44 0 0.64 0.44 0 0.68 0.44 0 0.72 0.44 0 0.76 0.44 0 0.8 0.44 0 0.84 0.44 0 0.88 0.44 0 0.92 0.44 0 0.96 0.44 0 1 0.44 0 1.04 0.44 0 1.08 0.44 0 1.12 0.44 0 1.16 0.44 0 1.2 0.44 0 0 0.48 0 0.04 0.48 0 0.08 0.48 0 0.12 0.48 0 0.16 0.48 0 0.2 0.48 0 0.24 0.48 0 0.28 0.48 0 0.32 0.48 0 0.36 0.48 0 0.4 0.48 0 0.44 0.48 0 0.48 0.48 0 0.52 0.48 0 0.56 0.48 0 0.6 0.48 0 0.64 0.48 0 0.68 0.48 0 0.72 0.48 0 0.76 0.48 0 0.8 0.48 0 0.84 0.48 0 0.88 0.48 0 0.92 0.48 0 0.96 0.48 0 1 0.48 0 1.04 0.48 0 1.08 0.48 0 1.12 0.48 0 1.16 0.48 0 1.2 0.48 0 0 0.52 0 0.04 0.52 0 0.08 0.52 0 0.12 0.52 0 0.16 0.52 0 0.2 0.52 0 0.24 0.52 0 0.28 0.52 0 0.32 0.52 0 0.36 0.52 0 0.4 0.52 0 0.44 0.52 0 0.48 0.52 0 0.52 0.52 0 0.56 0.52 0 0.6 0.52 0 0.64 0.52 0 0.68 0.52 0 0.72 0.52 0 0.76 0.52 0 0.8 0.52 0 0.84 0.52 0 0.88 0.52 0 0.92 0.52 0 0.96 0.52 0 1 0.52 0 1.04 0.52 0 1.08 0.52 0 1.12 0.52 0 1.16 0.52 0 1.2 0.52 0 0 0.56 0 0.04 0.56 0 0.08 0.56 0 0.12 0.56 0 0.16 0.56 0 0.2 0.56 0 0.24 0.56 0 0.28 0.56 0 0.32 0.56 0 0.36 0.56 0 0.4 0.56 0 0.44 0.56 0 0.48 0.56 0 0.52 0.56 0 0.56 0.56 0 0.6 0.56 0 0.64 0.56 0 0.68 0.56 0 0.72 0.56 0 0.76 0.56 0 0.8 0.56 0 0.84 0.56 0 0.88 0.56 0 0.92 0.56 0 0.96 0.56 0 1 0.56 0 1.04 0.56 0 1.08 0.56 0 1.12 0.56 0 1.16 0.56 0 1.2 0.56 0 0 0.6 0 0.04 0.6 0 0.08 0.6 0 0.12 0.6 0 0.16 0.6 0 0.2 0.6 0 0.24 0.6 0 0.28 0.6 0 0.32 0.6 0 0.36 0.6 0 0.4 0.6 0 0.44 0.6 0 0.48 0.6 0 0.52 0.6 0 0.56 0.6 0 0.6 0.6 0 0.64 0.6 0 0.68 0.6 0 0.72 0.6 0 0.76 0.6 0 0.8 0.6 0 0.84 0.6 0 0.88 0.6 0 0.92 0.6 0 0.96 0.6 0 1 0.6 0 1.04 0.6 0 1.08 0.6 0 1.12 0.6 0 1.16 0.6 0 1.2 0.6 0 0 0.64 0 0.04 0.64 0 0.08 0.64 0 0.12 0.64 0 0.16 0.64 0 0.2 0.64 0 0.24 0.64 0 0.28 0.64 0 0.32 0.64 0 0.36 0.64 0 0.4 0.64 0 0.44 0.64 0 0.48 0.64 0 0.52 0.64 0 0.56 0.64 0 0.6 0.64 0 0.64 0.64 0 0.68 0.64 0 0.72 0.64 0 0.76 0.64 0 0.8 0.64 0 0.84 0.64 0 0.88 0.64 0 0.92 0.64 0 0.96 0.64 0 1 0.64 0 1.04 0.64 0 1.08 0.64 0 1.12 0.64 0 1.16 0.64 0 1.2 0.64 0 0 0.68 0 0.04 0.68 0 0.08 0.68 0 0.12 0.68 0 0.16 0.68 0 0.2 0.68 0 0.24 0.68 0 0.28 0.68 0 0.32 0.68 0 0.36 0.68 0 0.4 0.68 0 0.44 0.68 0 0.48 0.68 0 0.52 0.68 0 0.56 0.68 0 0.6 0.68 0 0.64 0.68 0 0.68 0.68 0 0.72 0.68 0 0.76 0.68 0 0.8 0.68 0 0.84 0.68 0 0.88 0.68 0 0.92 0.68 0 0.96 0.68 0 1 0.68 0 1.04 0.68 0 1.08 0.68 0 1.12 0.68 0 1.16 0.68 0 1.2 0.68 0 0 0.72 0 0.04 0.72 0 0.08 0.72 0 0.12 0.72 0 0.16 0.72 0 0.2 0.72 0 0.24 0.72 0 0.28 0.72 0 0.32 0.72 0 0.36 0.72 0 0.4 0.72 0 0.44 0.72 0 0.48 0.72 0 0.52 0.72 0 0.56 0.72 0 0.6 0.72 0 0.64 0.72 0 0.68 0.72 0 0.72 0.72 0 0.76 0.72 0 0.8 0.72 0 0.84 0.72 0 0.88 0.72 0 0.92 0.72 0 0.96 0.72 0 1 0.72 0 1.04 0.72 0 1.08 0.72 0 1.12 0.72 0 1.16 0.72 0 1.2 0.72 0 0 0.76 0 0.04 0.76 0 0.08 0.76 0 0.12 0.76 0 0.16 0.76 0 0.2 0.76 0 0.24 0.76 0 0.28 0.76 0 0.32 0.76 0 0.36 0.76 0 0.4 0.76 0 0.44 0.76 0 0.48 0.76 0 0.52 0.76 0 0.56 0.76 0 0.6 0.76 0 0.64 0.76 0 0.68 0.76 0 0.72 0.76 0 0.76 0.76 0 0.8 0.76 0 0.84 0.76 0 0.88 0.76 0 0.92 0.76 0 0.96 0.76 0 1 0.76 0 1.04 0.76 0 1.08 0.76 0 1.12 0.76 0 1.16 0.76 0 1.2 0.76 0 0 0.8 0 0.04 0.8 0 0.08 0.8 0 0.12 0.8 0 0.16 0.8 0 0.2 0.8 0 0.24 0.8 0 0.28 0.8 0 0.32 0.8 0 0.36 0.8 0 0.4 0.8 0 0.44 0.8 0 0.48 0.8 0 0.52 0.8 0 0.56 0.8 0 0.6 0.8 0 0.64 0.8 0 0.68 0.8 0 0.72 0.8 0 0.76 0.8 0 0.8 0.8 0 0.84 0.8 0 0.88 0.8 0 0.92 0.8 0 0.96 0.8 0 1 0.8 0 1.04 0.8 0 1.08 0.8 0 1.12 0.8 0 1.16 0.8 0 1.2 0.8 0 0 0.84 0 0.04 0.84 0 0.08 0.84 0 0.12 0.84 0 0.16 0.84 0 0.2 0.84 0 0.24 0.84 0 0.28 0.84 0 0.32 0.84 0 0.36 0.84 0 0.4 0.84 0 0.44 0.84 0 0.48 0.84 0 0.52 0.84 0 0.56 0.84 0 0.6 0.84 0 0.64 0.84 0 0.68 0.84 0 0.72 0.84 0 0.76 0.84 0 0.8 0.84 0 0.84 0.84 0 0.88 0.84 0 0.92 0.84 0 0.96 0.84 0 1 0.84 0 1.04 0.84 0 1.08 0.84 0 1.12 0.84 0 1.16 0.84 0 1.2 0.84 0 0 0.88 0 0.04 0.88 0 0.08 0.88 0 0.12 0.88 0 0.16 0.88 0 0.2 0.88 0 0.24 0.88 0 0.28 0.88 0 0.32 0.88 0 0.36 0.88 0 0.4 0.88 0 0.44 0.88 0 0.48 0.88 0 0.52 0.88 0 0.56 0.88 0 0.6 0.88 0 0.64 0.88 0 0.68 0.88 0 0.72 0.88 0 0.76 0.88 0 0.8 0.88 0 0.84 0.88 0 0.88 0.88 0 0.92 0.88 0 0.96 0.88 0 1 0.88 0 1.04 0.88 0 1.08 0.88 0 1.12 0.88 0 1.16 0.88 0 1.2 0.88 0 0 0.92 0 0.04 0.92 0 0.08 0.92 0 0.12 0.92 0 0.16 0.92 0 0.2 0.92 0 0.24 0.92 0 0.28 0.92 0 0.32 0.92 0 0.36 0.92 0 0.4 0.92 0 0.44 0.92 0 0.48 0.92 0 0.52 0.92 0 0.56 0.92 0 0.6 0.92 0 0.64 0.92 0 0.68 0.92 0 0.72 0.92 0 0.76 0.92 0 0.8 0.92 0 0.84 0.92 0 0.88 0.92 0 0.92 0.92 0 0.96 0.92 0 1 0.92 0 1.04 0.92 0 1.08 0.92 0 1.12 0.92 0 1.16 0.92 0 1.2 0.92 0 0 0.96 0 0.04 0.96 0 0.08 0.96 0 0.12 0.96 0 0.16 0.96 0 0.2 0.96 0 0.24 0.96 0 0.28 0.96 0 0.32 0.96 0 0.36 0.96 0 0.4 0.96 0 0.44 0.96 0 0.48 0.96 0 0.52 0.96 0 0.56 0.96 0 0.6 0.96 0 0.64 0.96 0 0.68 0.96 0 0.72 0.96 0 0.76 0.96 0 0.8 0.96 0 0.84 0.96 0 0.88 0.96 0 0.92 0.96 0 0.96 0.96 0 1 0.96 0 1.04 0.96 0 1.08 0.96 0 1.12 0.96 0 1.16 0.96 0 1.2 0.96 0 0 1 0 0.04 1 0 0.08 1 0 0.12 1 0 0.16 1 0 0.2 1 0 0.24 1 0 0.28 1 0 0.32 1 0 0.36 1 0 0.4 1 0 0.44 1 0 0.48 1 0 0.52 1 0 0.56 1 0 0.6 1 0 0.64 1 0 0.68 1 0 0.72 1 0 0.76 1 0 0.8 1 0 0.84 1 0 0.88 1 0 0.92 1 0 0.96 1 0 1 1 0 1.04 1 0 1.08 1 0 1.12 1 0 1.16 1 0 1.2 1 0 0 1.04 0 0.04 1.04 0 0.08 1.04 0 0.12 1.04 0 0.16 1.04 0 0.2 1.04 0 0.24 1.04 0 0.28 1.04 0 0.32 1.04 0 0.36 1.04 0 0.4 1.04 0 0.44 1.04 0 0.48 1.04 0 0.52 1.04 0 0.56 1.04 0 0.6 1.04 0 0.64 1.04 0 0.68 1.04 0 0.72 1.04 0 0.76 1.04 0 0.8 1.04 0 0.84 1.04 0 0.88 1.04 0 0.92 1.04 0 0.96 1.04 0 1 1.04 0 1.04 1.04 0 1.08 1.04 0 1.12 1.04 0 1.16 1.04 0 1.2 1.04 0 0 1.08 0 0.04 1.08 0 0.08 1.08 0 0.12 1.08 0 0.16 1.08 0 0.2 1.08 0 0.24 1.08 0 0.28 1.08 0 0.32 1.08 0 0.36 1.08 0 0.4 1.08 0 0.44 1.08 0 0.48 1.08 0 0.52 1.08 0 0.56 1.08 0 0.6 1.08 0 0.64 1.08 0 0.68 1.08 0 0.72 1.08 0 0.76 1.08 0 0.8 1.08 0 0.84 1.08 0 0.88 1.08 0 0.92 1.08 0 0.96 1.08 0 1 1.08 0 1.04 1.08 0 1.08 1.08 0 1.12 1.08 0 1.16 1.08 0 1.2 1.08 0 0 1.12 0 
[...]
			<CellData Scalars="Density">
				<DataArray Name="Density" type="Float32" format="ascii">
 0.00556179 0.00616367 0.00767867 0.010352 0.0143845 0.0200565 0.0276936 0.0377258 0.0507775 0.0677933 0.0901264 0.119342 0.15552 0.194309 0.225561 0.244781 0.26578 0.304085 0.352888 0.417663 0.494753 0.583128 0.681548 0.788979 0.903387 1.02145 1.13765 1.24576 1.33544 1.39398 0.00617026 0.00641302 0.00741209 0.00948276 0.0128612 0.0179967 0.0252429 0.0350761 0.0482248 0.0658498 0.0894536 0.120775 0.160358 0.20391 0.240882 0.266276 0.291951 0.33432 0.386332 0.45407 0.534497 0.625807 0.726853 0.836267 0.95163 1.06896 1.18231 1.28576 1.36949 1.41964 0.00769787 0.00742411 0.00776361 0.00911082 0.0115991 0.0156341 0.0218335 0.0306264 0.0426673 0.0588722 0.0806972 0.109617 0.146049 0.186779 0.223643 0.250754 0.274409 0.312496 0.361521 0.426113 0.50526 0.596508 0.699228 0.811666 0.93133 1.05495 1.17682 1.28998 1.38187 1.44373 0.0103877 0.00951028 0.00912273 0.00992341 0.0117505 0.0150813 0.02048 0.0284909 0.0396182 0.0547049 0.0748873 0.101853 0.136446 0.176374 0.215083 0.246747 0.272921 0.309802 0.359312 0.422642 0.502848 0.595694 0.700673 0.816062 0.938054 1.06309 1.18586 1.29925 1.39114 1.45008 0.014437 0.0129061 0.0116256 0.0117651 0.0128932 0.0153149 0.0199744 0.027363 0.038033 0.0526582 0.0724472 0.0986907 0.132448 0.172619 0.214364 0.250559 0.281411 0.317858 0.366955 0.428315 0.508989 0.602258 0.707144 0.822432 0.945203 1.07063 1.19367 1.30789 1.40034 1.45902 0.0201241 0.0180585 0.0156739 0.0151072 0.0153248 0.0164245 0.0195688 0.0257347 0.0353385 0.0490734 0.0678122 0.0930456 0.125667 0.165085 0.207699 0.248626 0.284788 0.31867 0.364387 0.423233 0.502146 0.595396 0.701025 0.81769 0.942589 1.07212 1.20048 1.32055 1.41934 1.48387 0.0277737 0.0253206 0.0218797 0.0205075 0.0199888 0.0195761 0.0207086 0.0247072 0.0323981 0.0442723 0.0612039 0.0842615 0.114752 0.152856 0.197197 0.243918 0.286059 0.323111 0.367539 0.425052 0.501603 0.59608 0.703556 0.823798 0.953115 1.0875 1.22197 1.34805 1.4529 1.51598 0.0378142 0.0351661 0.0306687 0.0285112 0.0273713 0.0257371 0.0247202 0.0262636 0.0313364 0.0409103 0.0554976 0.0762417 0.103934 0.13981 0.183668 0.232313 0.28084 0.32552 0.367939 0.423197 0.495699 0.590673 0.699798 0.823108 0.958856 1.10084 1.24427 1.37975 1.49467 1.56449 0.0508702 0.0483284 0.0427026 0.0396267 0.0380295 0.0353199 0.0323986 0.0313236 0.0334319 0.0398585 0.0517503 0.0695386 0.0945114 0.127369 0.16915 0.21946 0.274319 0.325366 0.371257 0.425053 0.493846 0.587565 0.700671 0.828635 0.970748 1.12337 1.27779 1.42406 1.54769 1.61913 0.0678901 0.0659629 0.0589014 0.0547019 0.0526438 0.0490219 0.0442498 0.0408721 0.0398403 0.0426302 0.0506551 0.0653443 0.0869083 0.116732 0.156052 0.205147 0.262427 0.322422 0.377827 0.429282 0.495935 0.584953 0.700605 0.834195 0.983275 1.14533 1.31237 1.47282 1.60826 1.68491 0.0902344 0.0895732 0.0807237 0.0748745 0.0724226 0.0677275 0.0611411 0.0554266 0.0517022 0.0506318 0.0541349 0.0639439 0.0819333 0.108168 0.144219 0.191387 0.250462 0.316536 0.380873 0.43721 0.501556 0.585145 0.700436 0.840416 0.999419 1.17274 1.35289 1.5267 1.67586 1.75621 0.119472 0.120905 0.109649 0.101824 0.0986627 0.0929301 0.0841574 0.0761359 0.0694398 0.0652749 0.0639001 0.0679359 0.0798835 0.101914 0.134039 0.178439 0.236376 0.307354 0.38366 0.449404 0.51096 0.59287 0.704133 0.848249 1.01533 1.20147 1.397 1.5861 1.7495 1.83744 0.155666 0.160499 0.146091 0.136416 0.132433 0.125516 0.114664 0.103801 0.0943397 0.0868002 0.0818486 0.0798446 0.0845977 0.0993801 0.127071 0.166995 0.223297 0.296832 0.380253 0.461337 0.529613 0.605667 0.709904 0.855999 1.03218 1.23149 1.44435 1.65388 1.83263 1.92633 0.194448 0.204034 0.18683 0.176375 0.172619 0.164931 0.15281 0.139599 0.127183 0.116575 0.108012 0.101833 0.0993137 0.105104 0.123937 0.159229 0.211489 0.284641 0.375341 0.471385 0.551994 0.622923 0.72586 0.869243 1.05338 1.26497 1.49434 1.72527 1.9261 2.02534 0.225634 0.240925 0.223679 0.215092 0.21437 0.207619 0.197068 0.183519 0.168972 0.155858 0.144047 0.133879 0.126913 0.123799 0.131757 0.155797 0.202286 0.272094 0.367727 0.475173 0.578348 0.656543 0.748402 0.882982 1.0721 1.29871 1.54855 1.80157 2.02893 2.13743 0.244745 0.266235 0.250783 0.246723 0.250583 0.248476 0.243784 0.232297 0.219113 0.205033 0.19112 0.178205 0.166807 0.158996 0.155732 0.167591 0.19927 0.261109 0.356341 0.477095 0.600668 0.698805 0.780788 0.911097 1.09677 1.33649 1.6064 1.88638 2.14177 2.26545 0.265731 0.291902 0.274411 0.272845 0.28134 0.284635 0.286093 0.280715 0.274163 0.262308 0.250167 0.236238 0.223188 0.21131 0.202199 0.199171 0.217199 0.259576 0.342453 0.473955 0.616024 0.746733 0.837749 0.947544 1.12265 1.37042 1.66414 1.97669 2.26671 2.4119 0.304032 0.334254 0.31246 0.30966 0.317735 0.318603 0.322952 0.325321 0.325376 0.322104 0.316454 0.307183 0.296757 0.284396 0.272113 0.26089 0.259389 0.287395 0.344577 0.455876 0.626504 0.789893 0.910038 1.00706 1.17042 1.41298 1.72869 2.07338 2.40292 2.58039 0.352831 0.386254 0.36145 0.359162 0.366877 0.364224 0.367288 0.367856 0.370984 0.377513 0.380823 0.383719 0.380176 0.374751 0.367703 0.356146 0.342052 0.344517 0.385986 0.465409 0.616101 0.818608 0.998228 1.10236 1.23129 1.46119 1.78989 2.17573 2.55153 2.7754 0.417602 0.453976 0.426041 0.422498 0.428203 0.423005 0.424839 0.422985 0.424656 0.429134 0.436961 0.449526 0.461045 0.471127 0.475112 0.476567 0.473484 0.455673 0.465165 0.522031 0.632231 0.825857 1.05953 1.22236 1.33577 1.54459 1.86586 2.2899 2.71332 2.99565 0.494677 0.53439 0.505176 0.502672 0.508852 0.5019 0.501352 0.495404 0.493512 0.495731 0.50139 0.510813 0.528907 0.551545 0.578122 0.600595 0.615343 0.626754 0.615787 0.632235 0.706395 0.860805 1.09644 1.35298 1.50215 1.65398 1.95631 2.40379 2.89004 3.23995 0.583029 0.625684 0.596411 0.595492 0.602116 0.595121 0.595814 0.590425 0.587193 0.584646 0.584936 0.592566 0.605285 0.622506 0.656365 0.69848 0.746749 0.790777 0.81768 0.825485 0.860945 0.968666 1.16532 1.4381 1.70092 1.85109 2.10365 2.5507 3.09793 3.51889 0.681429 0.726717 0.699119 0.700436 0.706992 0.700762 0.703228 0.699585 0.700354 0.700225 0.700075 0.704041 0.70981 0.725048 0.748317 0.780308 0.837733 0.910166 0.997896 1.06013 1.09666 1.16507 1.3072 1.55125 1.8712 2.13003 2.32859 2.73994 3.33232 3.84188 0.78884 0.836112 0.811549 0.815813 0.822201 0.817474 0.823475 0.822785 0.828423 0.833968 0.839774 0.848 0.856256 0.869317 0.882668 0.910418 0.948185 1.00677 1.10189 1.2232 1.35281 1.43714 1.55108 1.75587 2.06379 2.42717 2.7018 3.0534 3.63591 4.22294 0.903226 0.951434 0.931161 0.937831 0.944917 0.942287 0.95291 0.958483 0.970264 0.983394 0.999221 1.01473 1.03194 1.05346 1.07229 1.09622 1.12195 1.17026 1.23213 1.33542 1.50133 1.70158 1.87208 2.06396 2.34791 2.72941 3.15214 3.54552 4.09327 4.72669 1.02127 1.06874 1.05471 1.06281 1.07038 1.07176 1.08726 1.10081 1.1228 1.14485 1.17283 1.20099 1.23131 1.26499 1.29872 1.33649 1.37005 1.41284 1.46059 1.54489 1.65496 1.85136 2.12977 2.42749 2.72975 3.13487 3.65302 4.22685 4.79002 5.56407 1.13741 1.18207 1.17657 1.18554 1.19335 1.20019 1.22165 1.2442 1.27741 1.31195 1.35314 1.39703 1.44358 1.49466 1.54904 1.60634 1.6641 1.72882 1.78936 1.86603 1.95601 2.10365 2.32936 2.70259 3.15236 3.6539 4.25759 5.08497 5.82531 6.97091 1.24549 1.2855 1.28968 1.29892 1.30753 1.32025 1.34764 1.3797 1.42378 1.47236 1.52621 1.58638 1.65374 1.72458 1.80184 1.88705 1.97706 2.0738 2.17595 2.29055 2.40413 2.55079 2.74018 3.05384 3.54634 4.22751 5.08564 6.06375 7.5768 9.29969 1.33513 1.36922 1.38153 1.39083 1.39992 1.41913 1.45256 1.49426 1.54707 1.60834 1.67583 1.74901 1.83298 1.92628 2.02785 2.14135 2.26782 2.40355 2.5508 2.71362 2.89076 3.09774 3.33268 3.63684 4.09375 4.79078 5.82636 7.57786 9.11693 13.9168 1.39363 1.41937 1.44336 1.44979 1.45857 1.48366 1.51558 1.56419 1.61842 1.68461 1.75645 1.83686 1.92608 2.02557 2.13677 2.26506 2.41307 2.581 2.7751 2.99715 3.24072 3.51707 3.84273 4.22524 4.72556 5.56521 6.97392 9.30126 13.9164 14.5622
				</DataArray>
				<DataArray Name="Energy" type="Float32" format="ascii">
 930.42 839.71 674.098 499.84 359.594 257.697 186.451 136.658 101.296 75.5754 56.4188 41.9455 30.9811 22.7525 16.6872 12.3565 9.56221 7.81798 6.56492 5.64084 4.90497 4.30167 3.80104 3.38418 3.03617 2.74581 2.5039 2.3049 2.14519 2.03986 838.823 806.984 697.945 545.59 401.98 287.211 204.479 146.96 106.591 77.7668 56.8029 41.4108 30.0876 21.7854 15.7714 11.5612 8.87269 7.21878 6.04589 5.19398 4.52877 3.99047 3.54879 3.18359 2.88022 2.62794 2.41835 2.2459 2.10575 2.00159 672.419 696.83 666.551 567.481 445.799 330.264 236.362 168.132 120.387 86.791 62.8675 45.5999 33.0475 23.9348 17.381 12.7976 9.76672 7.86922 6.54517 5.58396 4.83778 4.23095 3.73082 3.31576 2.97124 2.68639 2.45095 2.25833 2.10286 2.00085 498.13 544.033 566.743 521.136 439.486 342.405 251.611 180.635 129.478 93.3901 67.6031 48.9488 35.3712 25.5433 18.511 13.6144 10.2916 8.17246 6.73181 5.68994 4.90053 4.26581 3.7504 3.32882 2.98085 2.69411 2.45876 2.26778 2.11534 2.00905 358.3 400.588 444.793 438.943 400.56 336.546 257.87 187.693 134.703 96.7811 69.8502 50.4665 36.4799 26.3917 19.1831 14.0966 10.5824 8.29548 6.77528 5.69282 4.90125 4.27039 3.75843 3.34012 2.99601 2.71149 2.477 2.28618 2.13211 2.02356 256.843 286.239 329.433 341.826 336.332 313.705 262.581 199.345 144.567 103.643 74.3451 53.5224 38.6 27.9523 20.3689 15.0033 11.2693 8.71803 7.04313 5.87614 5.03745 4.37726 3.84263 3.40605 3.04658 2.75018 2.50485 2.30384 2.14189 2.03128 185.922 203.858 235.873 251.279 257.687 262.489 247.868 206.982 157.394 114.496 82.2258 58.8691 42.2453 30.4421 22.0835 16.2244 12.0896 9.20863 7.32426 6.03884 5.13254 4.44322 3.88711 3.43558 3.06457 2.75813 2.5065 2.30131 2.13861 2.02372 136.345 146.59 167.904 180.514 187.642 199.326 206.878 194.363 162.074 123.607 90.3396 65.108 46.7512 33.6372 24.3982 17.8799 13.2435 10.0106 7.8002 6.33019 5.31168 4.56878 3.97619 3.49551 3.10354 2.77983 2.51401 2.29729 2.12758 2.01114 101.11 106.376 120.29 129.457 134.72 144.648 157.389 162.141 151.508 126.248 96.6507 71.0114 51.495 37.267 27.0613 19.7936 14.6356 10.9556 8.37621 6.67586 5.51131 4.69043 4.05717 3.54542 3.12799 2.78763 2.50916 2.28501 2.1127 1.99344 75.4677 77.6437 86.7572 93.4 96.8127 103.755 114.562 123.717 126.307 117.617 98.2031 75.6027 55.9723 40.9393 29.9463 22.0057 16.2511 12.0945 9.14998 7.12523 5.77518 4.84286 4.15514 3.60732 3.1627 2.80127 2.50848 2.27516 2.09771 1.97595 56.3595 56.7349 62.8609 67.617 69.879 74.4465 82.3134 90.4624 96.7419 98.2533 91.5125 76.8304 59.5791 44.5597 32.9587 24.3547 18.09 13.4625 10.0839 7.68727 6.09748 5.02035 4.26165 3.6732 3.2002 2.81706 2.50875 2.26524 2.0848 1.95981 41.9141 41.3732 45.6011 48.9587 50.4865 53.5978 58.9408 65.21 71.113 75.6802 76.8858 72.1959 61.0274 47.7194 36.0194 26.9214 20.0943 15.0113 11.2147 8.42118 6.50775 5.25164 4.39157 3.7537 3.24596 2.83981 2.51563 2.26071 2.07432 1.9464 30.9635 30.0673 33.0491 35.3781 36.495 38.6474 42.2882 46.8281 51.5743 56.051 59.645 61.0479 57.8468 49.2588 38.7917 29.5033 22.2334 16.7216 12.4906 9.30858 7.04735 5.54226 4.54199 3.84258 3.30009 2.86869 2.52716 2.26177 2.0683 1.93543 22.7411 21.7741 23.9346 25.5486 26.4007 27.9774 30.4754 33.6825 37.326 41.0069 44.623 47.7607 49.2904 47.0209 40.383 31.9725 24.456 18.5583 13.9436 10.378 7.73297 5.91046 4.74527 3.95413 3.36861 2.90735 2.54519 2.26676 2.06627 1.9267 16.6791 15.7649 17.3803 18.5124 19.1847 20.3912 22.1053 24.4182 27.1051 29.9759 33.0051 36.0617 38.8353 40.427 38.7755 33.5582 26.6748 20.4428 15.5544 11.6135 8.59413 6.42217 5.00653 4.08546 3.44544 2.95346 2.56994 2.27479 2.06542 1.91864 12.3501 11.5565 12.7954 13.6139 14.0998 15.0168 16.2323 17.8969 19.8219 22.027 24.3872 26.9535 29.5391 32.0173 33.5789 32.3416 28.1496 22.4342 17.1228 12.9698 9.60716 7.07532 5.3469 4.26808 3.54274 3.01194 2.60136 2.2882 2.06654 1.91283 9.55842 8.86993 9.76476 10.2922 10.5821 11.273 12.0975 13.2517 14.6468 16.2638 18.1097 20.1248 22.254 24.4869 26.6948 28.1713 27.1875 23.7381 19.0045 14.376 10.7707 7.90594 5.83544 4.50327 3.6589 3.07685 2.63821 2.30596 2.07115 1.91033 7.81579 7.21727 7.86789 8.17211 8.29326 8.72167 9.2131 10.0114 10.9631 12.1006 13.474 15.0228 16.7319 18.583 20.4459 22.4481 23.756 22.8735 19.9874 16.0869 11.966 8.88212 6.46967 4.83392 3.82713 3.16046 2.68527 2.32762 2.07718 1.90915 6.56364 6.0451 6.544 6.7316 6.7745 7.04512 7.32573 7.8028 8.38019 9.15124 10.0899 11.2211 12.498 13.9606 15.554 17.1333 19.0167 19.9907 19.1891 16.7655 13.5417 9.92354 7.28036 5.30851 4.04556 3.264 2.73681 2.35253 2.08372 1.90884 5.64005 5.19353 5.5831 5.69001 5.69215 5.87692 6.03986 6.33134 6.67642 7.12571 7.68943 8.4247 9.31034 10.3876 11.6122 12.9802 14.3888 16.0829 16.7675 16.0494 14.0477 11.2705 8.23564 5.93226 4.37405 3.42128 2.80681 2.38508 2.09329 1.91227 4.9044 4.5285 4.83711 4.9005 4.90068 5.03798 5.13301 5.31191 5.51224 5.7755 6.09824 6.50984 7.04577 7.73575 8.59492 9.615 10.7754 11.9685 13.5504 14.0459 13.3932 11.7397 9.31107 6.75335 4.85101 3.63396 2.89859 2.42062 2.10509 1.91606 4.3012 3.99029 4.2304 4.26572 4.26992 4.37748 4.44354 4.56877 4.69088 4.84301 5.02018 5.25141 5.54196 5.91176 6.42079 7.07595 7.90737 8.88229 9.93503 11.2696 11.7403 11.2299 9.77326 7.66828 5.50349 3.9725 3.0452 2.47486 2.12333 1.92043 3.80062 3.54863 3.73035 3.75025 3.75807 3.8426 3.88715 3.97623 4.05711 4.15498 4.2616 4.39155 4.54187 4.74459 5.00704 5.34632 5.83586 6.47088 7.28512 8.23052 9.30859 9.775 9.33704 8.09033 6.30259 4.47315 3.26946 2.55637 2.14886 1.92981 3.38377 3.18341 3.31536 3.32863 3.33976 3.40598 3.43527 3.49538 3.5455 3.60691 3.67264 3.75371 3.84288 3.9542 4.08497 4.2675 4.50534 4.83292 5.30953 5.93237 6.75469 7.67318 8.09172 7.75004 6.6825 5.15588 3.62698 2.70147 2.19374 1.94376 3.03577 2.88001 2.97088 2.98066 2.99563 3.04634 3.06421 3.10302 3.12778 3.16274 3.19986 3.24549 3.29963 3.36839 3.44518 3.54178 3.6586 3.82714 4.04733 4.37286 4.85073 5.50663 6.30199 6.68231 6.40391 5.50134 4.20285 2.93984 2.28377 1.96889 2.74542 2.62769 2.68604 2.69387 2.71122 2.74977 2.75763 2.77948 2.78732 2.80063 2.81674 2.83942 2.8684 2.90699 2.95304 3.01181 3.07634 3.15984 3.26374 3.42157 3.63485 3.97276 4.47395 5.15762 5.50189 5.27111 4.51358 3.4011 2.44615 2.03087 2.50351 2.41809 2.45067 2.45847 2.47676 2.50439 2.50587 2.5135 2.50907 2.50804 2.50836 2.51554 2.52654 2.54499 2.5699 2.60136 2.63808 2.68469 2.73612 2.80652 2.89829 3.04533 3.26988 3.62752 4.20343 4.51411 4.34045 3.70341 2.85334 2.15815 2.30453 2.24562 2.25808 2.26749 2.28593 2.30326 2.30061 2.29676 2.28503 2.27468 2.26425 2.26098 2.26169 2.26575 2.2748 2.28889 2.30575 2.32707 2.35249 2.38491 2.42019 2.47467 2.55625 2.70143 2.93999 3.40128 3.70346 3.61466 3.12746 2.42272 2.14484 2.10543 2.10263 2.11505 2.13184 2.14134 2.138 2.12683 2.11264 2.09753 2.08395 2.07439 2.06852 2.06561 2.06519 2.06706 2.07087 2.0766 2.08391 2.0928 2.1045 2.12352 2.14866 2.19322 2.28376 2.44616 2.8534 3.12744 3.00181 2.5488 2.03949 2.00124 2.0006 2.00874 2.0233 2.03071 2.02318 2.01048 1.99348 1.97559 1.95899 1.94658 1.93534 1.92597 1.9189 1.91342 1.9094 1.90842 1.90975 1.91173 1.9154 1.92117 1.92942 1.94296 1.96942 2.03069 2.15762 2.42278 2.54902 2.34125
				</DataArray>
				<DataArray Name="F1" type="Float32" format="ascii">
 1 1 1 1 1 1 1 1 1 1 1 1 1 1 1 1 1 1 1 1 1 1 1 1 1 1 1 1 1 1 1 1 1 1 1 1 1 1 1 1 1 1 1 1 1 1 1 1 1 1 1 1 1 1 1 1 1 1 1 1 1 1 1 1 1 1 1 1 1 1 1 1 1 1 1 1 1 1 1 1 1 1 1 1 1 1 1 1 1 1 1 1 1 1 1 1 1 1 1 1 1 1 1 1 1 1 1 1 1 1 1 1 1 1 1 1 1 1 1 1 1 1 1 1 1 1 1 1 1 1 1 1 1 1 1 1 1 1 1 1 1 1 1 1 1 1 1 1 1 1 1 1 1 1 1 1 1 1 1 1 1 1 1 1 1 1 1 1 1 1 1 1 1 1 1 1 1 1 1 1 1 1 1 1 1 1 1 1 1 1 1 1 1 1 1 1 1 1 1 1 1 1 1 1 1 1 1 1 1 1 1 1 1 1 1 1 1 1 1 1 1 1 1 1 1 1 1 1 1 1 1 1 1 1 1 1 1 1 1 1 1 1 1 1 1 1 1 1 1 1 1 1 1 1 1 1 1 1 1 1 1 1 1 1 1 1 1 1 1 1 1 1 1 1 1 1 1 1 1 1 1 1 1 1 1 1 1 1 1 1 1 1 1 1 1 1 1 1 1 1 1 1 1 1 1 1 1 1 1 1 1 1 1 1 1 1 1 1 1 1 1 1 1 1 1 1 1 1 1 1 1 1 1 1 1 1 1 1 1 1 1 1 1 1 1 1 1 1 1 1 1 1 1 1 1 1 1 1 1 1 1 1 1 1 1 1 1 1 1 1 1 1 1 1 1 1 1 1 1 1 1 1 1 1 1 1 1 1 1 1 1 1 1 1 1 1 1 1 1 1 1 1 1 1 1 1 1 1 1 1 1 1 1 1 1 1 1 1 1 1 1 1 1 1 1 1 1 1 1 1 1 1 1 1 1 1 1 1 1 1 1 1 1 1 1 1 1 1 1 1 1 1 1 1 1 1 1 1 1 1 1 1 1 1 1 1 1 1 1 1 1 1 1 1 1 1 1 1 1 1 1 1 1 1 1 1 1 1 1 1 1 1 1 1 1 1 1 1 1 1 1 1 1 1 1 1 1 1 1 1 1 1 1 1 1 1 1 1 1 1 1 1 1 1 1 1 1 1 1 1 1 1 1 1 1 1 1 1 1 1 1 1 1 1 1 1 1 1 1 1 1 1 1 1 1 1 1 1 1 1 1 1 1 1 1 1 1 1 1 1 1 1 1 1 1 1 1 1 1 1 1 1 1 1 1 1 1 1 1 1 1 1 1 1 1 1 1 1 1 1 1 1 1 1 1 1 1 1 1 1 1 1 1 1 1 1 1 1 1 1 1 1 1 1 1 1 1 1 1 1 1 1 1 1 1 1 1 1 1 1 1 1 1 1 1 1 1 1 1 1 1 1 1 1 1 1 1 1 1 1 1 1 1 1 1 1 1 1 1 1 1 1 1 1 1 1 1 1 1 1 1 1 1 1 1 1 1 1 1 1 1 1 1 1 1 1 1 1 1 1 1 1 1 1 1 1 1 1 1 1 1 1 1 1 1 1 1 1 1 1 1 1 1 1 1 1 1 1 1 1 1 1 1 1 1 1 1 1 1 1 1 1 1 1 1 1 1 1 1 1 1 1 1 1 1 1 1 1 1 1 1 1 1 1 1 1 1 1 1 1 1 1 1 1 1 1 1 1 1 1 1 1 1 1 1 1 1 1 1 1 1 1 1 1 1 1 1 1 1 1 1 1 1 1 1 1 1 1 1 1 1 1 1 1 1 1 1 1 1 1 1 1 1 1 1 1 1 1 1 1 1 1 1 1 1 1 1 1 1 1 1 1 1 1 1 1 1 1 1 1 1 1 1 1 1 1 1 1 1 1 1 1 1 1 1 1 1 1 1 1 1 1 1 1 1 1 1 1 1 1 1 1 1 1 1 1 1 1 1 1 1 1 1 1 1 1 1 1 1 1
				</DataArray>
				<DataArray Name="F2" type="Float32" format="ascii">
 0 0 0 0 0 0 0 0 0 0 0 0 0 0 0 0 0 0 0 0 0 0 0 0 0 0 0 0 0 0 0 0 0 0 0 0 0 0 0 0 0 0 0 0 0 0 0 0 0 0 0 0 0 0 0 0 0 0 0 0 0 0 0 0 0 0 0 0 0 0 0 0 0 0 0 0 0 0 0 0 0 0 0 0 0 0 0 0 0 0 0 0 0 0 0 0 0 0 0 0 0 0 0 0 0 0 0 0 0 0 0 0 0 0 0 0 0 0 0 0 0 0 0 0 0 0 0 0 0 0 0 0 0 0 0 0 0 0 0 0 0 0 0 0 0 0 0 0 0 0 0 0 0 0 0 0 0 0 0 0 0 0 0 0 0 0 0 0 0 0 0 0 0 0 0 0 0 0 0 0 0 0 0 0 0 0 0 0 0 0 0 0 0 0 0 0 0 0 0 0 0 0 0 0 0 0 0 0 0 0 0 0 0 0 0 0 0 0 0 0 0 0 0 0 0 0 0 0 0 0 0 0 0 0 0 0 0 0 0 0 0 0 0 0 0 0 0 0 0 0 0 0 0 0 0 0 0 0 0 0 0 0 0 0 0 0 0 0 0 0 0 0 0 0 0 0 0 0 0 0 0 0 0 0 0 0 0 0 0 0 0 0 0 0 0 0 0 0 0 0 0 0 0 0 0 0 0 0 0 0 0 0 0 0 0 0 0 0 0 0 0 0 0 0 0 0 0 0 0 0 0 0 0 0 0 0 0 0 0 0 0 0 0 0 0 0 0 0 0 0 0 0 0 0 0 0 0 0 0 0 0 0 0 0 0 0 0 0 0 0 0 0 0 0 0 0 0 0 0 0 0 0 0 0 0 0 0 0 0 0 0 0 0 0 0 0 0 0 0 0 0 0 0 0 0 0 0 0 0 0 0 0 0 0 0 0 0 0 0 0 0 0 0 0 0 0 0 0 0 0 0 0 0 0 0 0 0 0 0 0 0 0 0 0 0 0 0 0 0 0 0 0 0 0 0 0 0 0 0 0 0 0 0 0 0 0 0 0 0 0 0 0 0 0 0 0 0 0 0 0 0 0 0 0 0 0 0 0 0 0 0 0 0 0 0 0 0 0 0 0 0 0 0 0 0 0 0 0 0 0 0 0 0 0 0 0 0 0 0 0 0 0 0 0 0 0 0 0 0 0 0 0 0 0 0 0 0 0 0 0 0 0 0 0 0 0 0 0 0 0 0 0 0 0 0 0 0 0 0 0 0 0 0 0 0 0 0 0 0 0 0 0 0 0 0 0 0 0 0 0 0 0 0 0 0 0 0 0 0 0 0 0 0 0 0 0 0 0 0 0 0 0 0 0 0 0 0 0 0 0 0 0 0 0 0 0 0 0 0 0 0 0 0 0 0 0 0 0 0 0 0 0 0 0 0 0 0 0 0 0 0 0 0 0 0 0 0 0 0 0 0 0 0 0 0 0 0 0 0 0 0 0 0 0 0 0 0 0 0 0 0 0 0 0 0 0 0 0 0 0 0 0 0 0 0 0 0 0 0 0 0 0 0 0 0 0 0 0 0 0 0 0 0 0 0 0 0 0 0 0 0 0 0 0 0 0 0 0 0 0 0 0 0 0 0 0 0 0 0 0 0 0 0 0 0 0 0 0 0 0 0 0 0 0 0 0 0 0 0 0 0 0 0 0 0 0 0 0 0 0 0 0 0 0 0 0 0 0 0 0 0 0 0 0 0 0 0 0 0 0 0 0 0 0 0 0 0 0 0 0 0 0 0 0 0 0 0 0 0 0 0 0 0 0 0 0 0 0 0 0 0 0 0 0 0 0 0 0 0 0 0 0 0 0 0 0 0 0 0 0 0 0 0 0 0 0 0 0 0 0 0 0 0 0 0 0 0 0 0 0 0 0 0 0 0 0 0 0 0 0 0 0 0 0 0 0 0 0 0 0 0 0 0 0 0 0 0 0 0 0 0 0 0 0 0 0 0 0 0 0 0 0 0 0 0 0 0 0 0 0
				</DataArray>
				<DataArray Name="F3" type="Float32" format="ascii">