<?xml version="1.0"?>
<VTKFile type="PolyData">
	<PolyData>
		<Piece NumberOfPoints="961" NumberOfPolys="900">
			<Points>
				<DataArray type="Float32" NumberOfComponents="3" format="ascii">
 0 0 0 0.04 0 0 0.08 0 0 0.12 0 0 0.16 0 0 0.2 0 0 0.24 0 0 0.28 0 0 0.32 0 0 0.36 0 0 0.4 0 0 0.44 0 0 0.48 0 0 0.52 0 0 0.56 0 0 0.6 0 0 0.64 0 0 0.68 0 0 0.72 0 0 0.76 0 0 0.8 0 0 0.84 0 0 0.88 0 0 0.92 0 0 0.96 0 0 1 0 0 1.04 0 0 1.08 0 0 1.12 0 0 1.16 0 0 1.2 0 0 0 0.04 0 0.04 0.04 0 0.08 0.04 0 0.12 0.04 0 0.16 0.04 0 0.2 0.04 0 0.24 0.04 0 0.28 0.04 0 0.32 0.04 0 0.36 0.04 0 0.4 0.04 0 0.44 0.04 0 0.48 0.04 0 0.52 0.04 0 0.56 0.04 0 0.6 0.04 0 0.64 0.04 0 0.68 0.04 0 0.72 0.04 0 0.76 0.04 0 0.8 0.04 0 0.84 0.04 0 0.88 0.04 0 0.92 0.04 0 0.96 0.04 0 1 0.04 0 1.04 0.04 0 1.08 0.04 0 1.12 0.04 0 1.16 0.04 0 1.2 0.04 0 0 0.08 0 0.04 0.08 0 0.08 0.08 0 0.12 0.08 0 0.16 0.08 0 0.2 0.08 0 0.24 0.08 0 0.28 0.08 0 0.32 0.08 0 0.36 0.08 0 0.4 0.08 0 0.44 0.08 0 0.48 0.08 0 0.52 0.08 0 0.56 0.08 0 0.6 0.08 0 0.64 0.08 0 0.68 0.08 0 0.72 0.08 0 0.76 0.08 0 0.8 0.08 0 0.84 0.08 0 0.88 0.08 0 0.92 0.08 0 0.96 0.08 0 1 0.08 0 1.04 0.08 0 1.08 0.08 0 1.12 0.08 0 1.16 0.08 0 1.2 0.08 0 0 0.12 0 0.04 0.12 0 0.08 0.12 0 0.12 0.12 0 0.16 0.12 0 0.2 0.12 0 0.24 0.12 0 0.28 0.12 0 0.32 0.12 0 0.36 0.12 0 0.4 0.12 0 0.44 0.12 0 0.48 0.12 0 0.52 0.12 0 0.56 0.12 0 0.6 0.12 0 0.64 0.12 0 0.68 0.12 0 0.72 0.12 0 0.76 0.12 0 0.8 0.12 0 0.84 0.12 0 0.88 0.12 0 0.92 0.12 0 0.96 0.12 0 1 0.12 0 1.04 0.12 0 1.08 0.12 0 1.12 0.12 0 1.16 0.12 0 1.2 0.12 0 0 0.16 0 0.04 0.16 0 0.08 0.16 0 0.12 0.16 0 0.16 0.16 0 0.2 0.16 0 0.24 0.16 0 0.28 0.16 0 0.32 0.16 0 0.36 0.16 0 0.4 0.16 0 0.44 0.16 0 0.48 0.16 0 0.52 0.16 0 0.56 0.16 0 0.6 0.16 0 0.64 0.16 0 0.68 0.16 0 0.72 0.16 0 0.76 0.16 0 0.8 0.16 0 0.84 0.16 0 0.88 0.16 0 0.92 0.16 0 0.96 0.16 0 1 0.16 0 1.04 0.16 0 1.08 0.16 0 1.12 0.16 0 1.16 0.16 0 1.2 0.16 0 0 0.2 0 0.04 0.2 0 0.08 0.2 0 0.12 0.2 0 0.16 0.2 0 0.2 0.2 0 0.24 0.2 0 0.28 0.2 0 0.32 0.2 0 0.36 0.2 0 0.4 0.2 0 0.44 0.2 0 0.48 0.2 0 0.52 0.2 0 0.56 0.2 0 0.6 0.2 0 0.64 0.2 0 0.68 0.2 0 0.72 0.2 0 0.76 0.2 0 0.8 0.2 0 0.84 0.2 0 0.88 0.2 0 0.92 0.2 0 0.96 0.2 0 1 0.2 0 1.04 0.2 0 1.08 0.2 0 1.12 0.2 0 1.16 0.2 0 1.2 0.2 0 0 0.24 0 0.04 0.24 0 0.08 0.24 0 0.12 0.24 0 0.16 0.24 0 0.2 0.24 0 0.24 0.24 0 0.28 0.24 0 0.32 0.24 0 0.36 0.24 0 0.4 0.24 0 0.44 0.24 0 0.48 0.24 0 0.52 0.24 0 0.56 0.24 0 0.6 0.24 0 0.64 0.24 0 0.68 0.24 0 0.72 0.24 0 0.76 0.24 0 0.8 0.24 0 0.84 0.24 0 0.88 0.24 0 0.92 0.24 0 0.96 0.24 0 1 0.24 0 1.04 0.24 0 1.08 0.24 0 1.12 0.24 0 1.16 0.24 0 1.2 0.24 0 0 0.28 0 0.04 0.28 0 0.08 0.28 0 0.12 0.28 0 0.16 0.28 0 0.2 0.28 0 0.24 0.28 0 0.28 0.28 0 0.32 0.28 0 0.36 0.28 0 0.4 0.28 0 0.44 0.28 0 0.48 0.28 0 0.52 0.28 0 0.56 0.28 0 0.6 0.28 0 0.64 0.28 0 0.68 0.28 0 0.72 0.28 0 0.76 0.28 0 0.8 0.28 0 0.84 0.28 0 0.88 0.28 0 0.92 0.28 0 0.96 0.28 0 1 0.28 0 1.04 0.28 0 1.08 0.28 0 1.12 0.28 0 1.16 0.28 0 1.2 0.28 0 0 0.32 0 0.04 0.32 0 0.08 0.32 0 0.12 0.32 0 0.16 0.32 0 0.2 0.32 0 0.24 0.32 0 0.28 0.32 0 0.32 0.32 0 0.36 0.32 0 0.4 0.32 0 0.44 0.32 0 0.48 0.32 0 0.52 0.32 0 0.56 0.32 0 0.6 0.32 0 0.64 0.32 0 0.68 0.32 0 0.72 0.32 0 0.76 0.32 0 0.8 0.32 0 0.84 0.32 0 0.88 0.32 0 0.92 0.32 0 0.96 0.32 0 1 0.32 0 1.04 0.32 0 1.08 0.32 0 1.12 0.32 0 1.16 0.32 0 1.2 0.32 0 0 0.36 0 0.04 0.36 0 0.08 0.36 0 0.12 0.36 0 0.16 0.36 0 0.2 0.36 0 0.24 0.36 0 0.28 0.36 0 0.32 0.36 0 0.36 0.36 0 0.4 0.36 0 0.44 0.36 0 0.48 0.36 0 0.52 0.36 0 0.56 0.36 0 0.6 0.36 0 0.64 0.36 0 0.68 0.36 0 0.72 0.36 0 0.76 0.36 0 0.8 0.36 0 0.84 0.36 0 0.88 0.36 0 0.92 0.36 0 0.96 0.36 0 1 0.36 0 1.04 0.36 0 1.08 0.36 0 1.12 0.36 0 1.16 0.36 0 1.2 0.36 0 0 0.4 0 0.04 0.4 0 0.08 0.4 0 0.12 0.4 0 0.16 0.4 0 0.2 0.4 0 0.24 0.4 0 0.28 0.4 0 0.32 0.4 0 0.36 0.4 0 0.4 0.4 0 0.44 0.4 0 0.48 0.4 0 0.52 0.4 0 0.56 0.4 0 0.6 0.4 0 0.64 0.4 0 0.68 0.4 0 0.72 0.4 0 0.76 0.4 0 0.8 0.4 0 0.84 0.4 0 0.88 0.4 0 0.92 0.4 0 0.96 0.4 0 1 0.4 0 1.04 0.4 0 1.08 0.4 0 1.12 0.4 0 1.16 0.4 0 1.2 0.4 0 0 0.44 0 0.04 0.44 0 0.08 0.44 0 0.12 0.44 0 0.16 0.44 0 0.2 0.44 0 0.24 0.44 0 0.28 0.44 0 0.32 0.44 0 0.36 0.44 0 0.4 0.44 0 0.44 0.44 0 0.48 0.44 0 0.52 0.44 0 0.56 0.44 0 0.6 0.44 0 0.64 0.44 0 0.68 0.44 0 0.72 0.44 0 0.76 0.44 0 0.8 0.44 0 0.84 0.44 0 0.88 0.44 0 0.92 0.44 0 0.96 0.44 0 1 0.44 0 1.04 0.44 0 1.08 0.44 0 1.12 0.44 0 1.16 0.44 0 1.2 0.44 0 0 0.48 0 0.04 0.48 0 0.08 0.48 0 0.12 0.48 0 0.16 0.48 0 0.2 0.48 0 0.24 0.48 0 0.28 0.48 0 0.32 0.48 0 0.36 0.48 0 0.4 0.48 0 0.44 0.48 0 0.48 0.48 0 0.52 0.48 0 0.56 0.48 0 0.6 0.48 0 0.64 0.48 0 0.68 0.48 0 0.72 0.48 0 0.76 0.48 0 0.8 0.48 0 0.84 0.48 0 0.88 0.48 0 0.92 0.48 0 0.96 0.48 0 1 0.48 0 1.04 0.48 0 1.08 0.48 0 1.12 0.48 0 1.16 0.48 0 1.2 0.48 0 0 0.52 0 0.04 0.52 0 0.08 0.52 0 0.12 0.52 0 0.16 0.52 0 0.2 0.52 0 0.24 0.52 0 0.28 0.52 0 0.32 0.52 0 0.36 0.52 0 0.4 0.52 0 0.44 0.52 0 0.48 0.52 0 0.52 0.52 0 0.56 0.52 0 0.6 0.52 0 0.64 0.52 0 0.68 0.52 0 0.72 0.52 0 0.76 0.52 0 0.8 0.52 0 0.84 0.52 0 0.88 0.52 0 0.92 0.52 0 0.96 0.52 0 1 0.52 0 1.04 0.52 0 1.08 0.52 0 1.12 0.52 0 1.16 0.52 0 1.2 0.52 0 0 0.56 0 0.04 0.56 0 0.08 0.56 0 0.12 0.56 0 0.16 0.56 0 0.2 0.56 0 0.24 0.56 0 0.28 0.56 0 0.32 0.56 0 0.36 0.56 0 0.4 0.56 0 0.44 0.56 0 0.48 0.56 0 0.52 0.56 0 0.56 0.56 0 0.6 0.56 0 0.64 0.56 0 0.68 0.56 0 0.72 0.56 0 0.76 0.56 0 0.8 0.56 0 0.84 0.56 0 0.88 0.56 0 0.92 0.56 0 0.96 0.56 0 1 0.56 0 1.04 0.56 0 1.08 0.56 0 1.12 0.56 0 1.16 0.56 0 1.2 0.56 0 0 0.6 0 0.04 0.6 0 0.08 0.6 0 0.12 0.6 0 0.16 0.6 0 0.2 0.6 0 0.24 0.6 0 0.28 0.6 0 0.32 0.6 0 0.36 0.6 0 0.4 0.6 0 0.44 0.6 0 0.48 0.6 0 0.52 0.6 0 0.56 0.6 0 0.6 0.6 0 0.64 0.6 0 0.68 0.6 0 0.72 0.6 0 0.76 0.6 0 0.8 0.6 0 0.84 0.6 0 0.88 0.6 0 0.92 0.6 0 0.96 0.6 0 1 0.6 0 1.04 0.6 0 1.08 0.6 0 1.12 0.6 0 1.16 0.6 0 1.2 0.6 0 0 0.64 0 0.04 0.64 0 0.08 0.64 0 0.12 0.64 0 0.16 0.64 0 0.2 0.64 0 0.24 0.64 0 0.28 0.64 0 0.32 0.64 0 0.36 0.64 0 0.4 0.64 0 0.44 0.64 0 0.48 0.64 0 0.52 0.64 0 0.56 0.64 0 0.6 0.64 0 0.64 0.64 0 0.68 0.64 0 0.72 0.64 0 0.76 0.64 0 0.8 0.64 0 0.84 0.64 0 0.88 0.64 0 0.92 0.64 0 0.96 0.64 0 1 0.64 0 1.04 0.64 0 1.08 0.64 0 1.12 0.64 0 1.16 0.64 0 1.2 0.64 0 0 0.68 0 0.04 0.68 0 0.08 0.68 0 0.12 0.68 0 0.16 0.68 0 0.2 0.68 0 0.24 0.68 0 0.28 0.68 0 0.32 0.68 0 0.36 0.68 0 0.4 0.68 0 0.44 0.68 0 0.48 0.68 0 0.52 0.68 0 0.56 0.68 0 0.6 0.68 0 0.64 0.68 0 0.68 0.68 0 0.72 0.68 0 0.76 0.68 0 0.8 0.68 0 0.84 0.68 0 0.88 0.68 0 0.92 0.68 0 0.96 0.68 0 1 0.68 0 1.04 0.68 0 1.08 0.68 0 1.12 0.68 0 1.16 0.68 0 1.2 0.68 0 0 0.72 0 0.04 0.72 0 0.08 0.72 0 0.12 0.72 0 0.16 0.72 0 0.2 0.72 0 0.24 0.72 0 0.28 0.72 0 0.32 0.72 0 0.36 0.72 0 0.4 0.72 0 0.44 0.72 0 0.48 0.72 0 0.52 0.72 0 0.56 0.72 0 0.6 0.72 0 0.64 0.72 0 0.68 0.72 0 0.72 0.72 0 0.76 0.72 0 0.8 0.72 0 0.84 0.72 0 0.88 0.72 0 0.92 0.72 0 0.96 0.72 0 1 0.72 0 1.04 0.72 0 1.08 0.72 0 1.12 0.72 0 1.16 0.72 0 1.2 0.72 0 0 0.76 0 0.04 0.76 0 0.08 0.76 0 0.12 0.76 0 0.16 0.76 0 0.2 0.76 0 0.24 0.76 0 0.28 0.76 0 0.32 0.76 0 0.36 0.76 0 0.4 0.76 0 0.44 0.76 0 0.48 0.76 0 0.52 0.76 0 0.56 0.76 0 0.6 0.76 0 0.64 0.76 0 0.68 0.76 0 0.72 0.76 0 0.76 0.76 0 0.8 0.76 0 0.84 0.76 0 0.88 0.76 0 0.92 0.76 0 0.96 0.76 0 1 0.76 0 1.04 0.76 0 1.08 0.76 0 1.12 0.76 0 1.16 0.76 0 1.2 0.76 0 0 0.8 0 0.04 0.8 0 0.08 0.8 0 0.12 0.8 0 0.16 0.8 0 0.2 0.8 0 0.24 0.8 0 0.28 0.8 0 0.32 0.8 0 0.36 0.8 0 0.4 0.8 0 0.44 0.8 0 0.48 0.8 0 0.52 0.8 0 0.56 0.8 0 0.6 0.8 0 0.64 0.8 0 0.68 0.8 0 0.72 0.8 0 0.76 0.8 0 0.8 0.8 0 0.84 0.8 0 0.88 0.8 0 0.92 0.8 0 0.96 0.8 0 1 0.8 0 1.04 0.8 0 1.08 0.8 0 1.12 0.8 0 1.16 0.8 0 1.2 0.8 0 0 0.84 0 0.04 0.84 0 0.08 0.84 0 0.12 0.84 0 0.16 0.84 0 0.2 0.84 0 0.24 0.84 0 0.28 0.84 0 0.32 0.84 0 0.36 0.84 0 0.4 0.84 0 0.44 0.84 0 0.48 0.84 0 0.52 0.84 0 0.56 0.84 0 0.6 0.84 0 0.64 0.84 0 0.68 0.84 0 0.72 0.84 0 0.76 0.84 0 0.8 0.84 0 0.84 0.84 0 0.88 0.84 0 0.92 0.84 0 0.96 0.84 0 1 0.84 0 1.04 0.84 0 1.08 0.84 0 1.12 0.84 0 1.16 0.84 0 1.2 0.84 0 0 0.88 0 0.04 0.88 0 0.08 0.88 0 0.12 0.88 0 0.16 0.88 0 0.2 0.88 0 0.24 0.88 0 0.28 0.88 0 0.32 0.88 0 0.36 0.88 0 0.4 0.88 0 0.44 0.88 0 0.48 0.88 0 0.52 0.88 0 0.56 0.88 0 0.6 0.88 0 0.64 0.88 0 0.68 0.88 0 0.72 0.88 0 0.76 0.88 0 0.8 0.88 0 0.84 0.88 0 0.88 0.88 0 0.92 0.88 0 0.96 0.88 0 1 0.88 0 1.04 0.88 0 1.08 0.88 0 1.12 0.88 0 1.16 0.88 0 1.2 0.88 0 0 0.92 0 0.04 0.92 0 0.08 0.92 0 0.12 0.92 0 0.16 0.92 0 0.2 0.92 0 0.24 0.92 0 0.28 0.92 0 0.32 0.92 0 0.36 0.92 0 0.4 0.92 0 0.44 0.92 0 0.48 0.92 0 0.52 0.92 0 0.56 0.92 0 0.6 0.92 0 0.64 0.92 0 0.68 0.92 0 0.72 0.92 0 0.76 0.92 0 0.8 0.92 0 0.84 0.92 0 0.88 0.92 0 0.92 0.92 0 0.96 0.92 0 1 0.92 0 1.04 0.92 0 1.08 0.92 0 1.12 0.92 0 1.16 0.92 0 1.2 0.92 0 0 0.96 0 0.04 0.96 0 0.08 0.96 0 0.12 0.96 0 0.16 0.96 0 0.2 0.96 0 0.24 0.96 0 0.28 0.96 0 0.32 0.96 0 0.36 0.96 0 0.4 0.96 0 0.44 0.96 0 0.48 0.96 0 0.52 0.96 0 0.56 0.96 0 0.6 0.96 0 0.64 0.96 0 0.68 0.96 0 0.72 0.96 0 0.76 0.96 0 0.8 0.96 0 0.84 0.96 0 0.88 0.96 0 0.92 0.96 0 0.96 0.96 0 1 0.96 0 1.04 0.96 0 1.08 0.96 0 1.12 0.96 0 1.16 0.96 0 1.2 0.96 0 0 1 0 0.04 1 0 0.08 1 0 0.12 1 0 0.16 1 0 0.2 1 0 0.24 1 0 0.28 1 0 0.32 1 0 0.36 1 0 0.4 1 0 0.44 1 0 0.48 1 0 0.52 1 0 0.56 1 0 0.6 1 0 0.64 1 0 0.68 1 0 0.72 1 0 0.76 1 0 0.8 1 0 0.84 1 0 0.88 1 0 0.92 1 0 0.96 1 0 1 1 0 1.04 1 0 1.08 1 0 1.12 1 0 1.16 1 0 1.2 1 0 0 1.04 0 0.04 1.04 0 0.08 1.04 0 0.12 1.04 0 0.16 1.04 0 0.2 1.04 0 0.24 1.04 0 0.28 1.04 0 0.32 1.04 0 0.36 1.04 0 0.4 1.04 0 0.44 1.04 0 0.48 1.04 0 0.52 1.04 0 0.56 1.04 0 0.6 1.04 0 0.64 1.04 0 0.68 1.04 0 0.72 1.04 0 0.76 1.04 0 0.8 1.04 0 0.84 1.04 0 0.88 1.04 0 0.92 1.04 0 0.96 1.04 0 1 1.04 0 1.04 1.04 0 1.08 1.04 0 1.12 1.04 0 1.16 1.04 0 1.2 1.04 0 0 1.08 0 0.04 1.08 0 0.08 1.08 0 0.12 1.08 0 0.16 1.08 0 0.2 1.08 0 0.24 1.08 0 0.28 1.08 0 0.32 1.08 0 0.36 1.08 0 0.4 1.08 0 0.44 1.08 0 0.48 1.08 0 0.52 1.08 0 0.56 1.08 0 0.6 1.08 0 0.64 1.08 0 0.68 1.08 0 0.72 1.08 0 0.76 1.08 0 0.8 1.08 0 0.84 1.08 0 0.88 1.08 0 0.92 1.08 0 0.96 1.08 0 1 1.08 0 1.04 1.08 0 1.08 1.08 0 1.12 1.08 0 1.16 1.08 0 1.2 1.08 0 0 1.12 0 
[...]
			<CellData Scalars="Density">
				<DataArray Name="Density" type="Float32" format="ascii">
 0.00377422 0.00399835 0.00454542 0.00554947 0.00705779 0.00907115 0.0116127 0.0147037 0.018423 0.0228671 0.0283038 0.0350018 0.0435596 0.0546412 0.0691708 0.0885547 0.114655 0.149736 0.19693 0.260034 0.342967 0.449786 0.584129 0.748586 0.94393 1.16792 1.41347 1.66555 1.8969 2.05311 0.00399842 0.00415826 0.00457966 0.00544547 0.00683062 0.00881678 0.0114199 0.0146579 0.0185826 0.0232827 0.0289876 0.0359234 0.0447664 0.0561568 0.0711286 0.0912196 0.118525 0.155503 0.205407 0.272188 0.359839 0.472225 0.61259 0.782961 0.983506 1.21181 1.4612 1.71546 1.94174 2.07455 0.00454774 0.00458262 0.0047742 0.00534909 0.00641907 0.00804331 0.0103653 0.013399 0.0172059 0.0217771 0.0273091 0.0339964 0.0425498 0.0534521 0.0677078 0.0867376 0.112404 0.147191 0.194209 0.257295 0.340725 0.448907 0.585955 0.755068 0.957507 1.19124 1.44878 1.71345 1.95608 2.11677 0.00555588 0.00545401 0.00535589 0.00567391 0.00641725 0.00773794 0.00971103 0.0124548 0.0160211 0.0204202 0.025779 0.0322525 0.040514 0.051091 0.0650116 0.0835764 0.108704 0.14292 0.189368 0.251937 0.33506 0.443307 0.58107 0.752159 0.958528 1.1981 1.46112 1.72948 1.97577 2.12536 0.00706755 0.00684772 0.00643285 0.00642699 0.00687949 0.00784344 0.00951763 0.0119736 0.0153408 0.0196267 0.024964 0.0314596 0.0396703 0.0502357 0.0641302 0.0826142 0.107598 0.141678 0.18807 0.250683 0.334081 0.443032 0.581968 0.754517 0.962328 1.20351 1.4695 1.74262 1.99304 2.14248 0.00908517 0.00883787 0.00806761 0.0077574 0.00785408 0.00846326 0.00974952 0.0118921 0.0150297 0.0192369 0.024579 0.0311682 0.0394125 0.0500777 0.0639466 0.0823352 0.107075 0.140661 0.186375 0.248158 0.330639 0.438739 0.577176 0.749844 0.958711 1.20276 1.47492 1.75879 2.02441 2.18865 0.0116285 0.011445 0.010396 0.00973966 0.00953825 0.009762 0.01058 0.0123013 0.0150785 0.0190515 0.0243088 0.0308835 0.039087 0.049626 0.0634084 0.0815611 0.105917 0.139058 0.184287 0.245707 0.327945 0.436275 0.575807 0.750715 0.963528 1.2141 1.49706 1.7967 2.07886 2.24571 0.0147201 0.0146842 0.0134305 0.012486 0.012 0.0119128 0.0123195 0.0135408 0.015885 0.0196 0.0246646 0.0311869 0.0393502 0.0496851 0.0632485 0.0810557 0.104819 0.137122 0.181169 0.241181 0.321969 0.428787 0.567304 0.743393 0.960816 1.22092 1.51869 1.83933 2.14669 2.33579 0.0184386 0.0186088 0.017234 0.0160489 0.0153659 0.0150539 0.015104 0.0158975 0.0175442 0.0208565 0.0257793 0.0322688 0.0404869 0.0507395 0.0640755 0.08165 0.104974 0.136707 0.179958 0.238817 0.318559 0.424994 0.564098 0.742164 0.964909 1.2368 1.55365 1.9001 2.23495 2.43796 0.0228822 0.0233086 0.0218004 0.0204411 0.0196448 0.0192532 0.0190784 0.0196088 0.0208677 0.0233619 0.0278907 0.0344651 0.0428125 0.0530189 0.0661679 0.0834485 0.106256 0.137168 0.17957 0.237371 0.315694 0.420986 0.560376 0.741055 0.969403 1.25214 1.58904 1.9644 2.33379 2.56656 0.0283182 0.0290128 0.0273283 0.025792 0.0249726 0.0245873 0.0243238 0.0246675 0.0257744 0.027895 0.031661 0.0378078 0.0464521 0.0570404 0.0701978 0.0872666 0.109684 0.14003 0.181519 0.238344 0.315823 0.420379 0.55968 0.742626 0.977904 1.27324 1.63082 2.03872 2.44405 2.70896 0.035016 0.0359489 0.0340132 0.0322586 0.0314593 0.0311647 0.0308828 0.0311702 0.0322518 0.0344398 0.0377869 0.0434668 0.051727 0.0625708 0.0761198 0.0932666 0.115339 0.145124 0.185901 0.241818 0.318353 0.422193 0.56159 0.746388 0.9872 1.29574 1.67564 2.1179 2.56509 2.87311 0.043573 0.0447931 0.042565 0.0405188 0.0396653 0.0393992 0.0390668 0.0393139 0.0404468 0.0427702 0.0464135 0.0517121 0.0596239 0.0702932 0.083799 0.101348 0.123891 0.153751 0.194022 0.249081 0.324274 0.42731 0.566942 0.753786 0.999757 1.32009 1.72379 2.2045 2.69943 3.05259 0.0546537 0.0561852 0.0534639 0.0510919 0.0502293 0.0500556 0.0495971 0.0496241 0.0506911 0.0529465 0.0569655 0.0625118 0.0702599 0.0808669 0.0939705 0.110573 0.132826 0.162901 0.204333 0.259876 0.334452 0.436556 0.575376 0.763723 1.01478 1.34607 1.77191 2.29354 2.84607 3.25388 0.0691793 0.071153 0.067718 0.0650046 0.0641152 0.0639172 0.0633695 0.0631614 0.0639871 0.0660864 0.0700937 0.0760065 0.0837155 0.0939443 0.106995 0.122641 0.143579 0.172254 0.213173 0.270212 0.347124 0.449807 0.588603 0.777265 1.03215 1.3737 1.82118 2.38702 3.00687 3.48223 0.0885578 0.0912418 0.0867361 0.0835649 0.0825831 0.0822849 0.0815199 0.0809696 0.0815059 0.0833024 0.0871506 0.093118 0.101206 0.110488 0.122597 0.13795 0.156453 0.182757 0.221583 0.278107 0.356153 0.46266 0.605165 0.795739 1.05409 1.40409 1.8715 2.48268 3.17785 3.73989 0.114649 0.118542 0.112392 0.108678 0.107552 0.106997 0.105838 0.104738 0.104835 0.106085 0.109525 0.115173 0.123742 0.132688 0.14345 0.156437 0.172752 0.195456 0.230003 0.283561 0.36032 0.469708 0.616596 0.814126 1.07966 1.43754 1.92335 2.57843 3.35671 4.0239 0.149713 0.155504 0.147158 0.142874 0.141604 0.140592 0.13896 0.13701 0.136574 0.136976 0.139847 0.144942 0.153543 0.162753 0.172144 0.182651 0.195434 0.212156 0.240865 0.288531 0.360639 0.467479 0.619277 0.826495 1.10383 1.47628 1.98375 2.68037 3.54752 4.34186 0.196886 0.205384 0.19415 0.189287 0.187959 0.186255 0.184185 0.181058 0.179831 0.179388 0.181338 0.185736 0.193781 0.204184 0.212988 0.221441 0.22992 0.24087 0.259149 0.295181 0.359494 0.459706 0.610372 0.821701 1.11346 1.50779 2.04412 2.78379 3.74938 4.69917 0.259955 0.272127 0.257201 0.25181 0.250552 0.247984 0.245554 0.240999 0.238635 0.237221 0.238125 0.241622 0.248843 0.25967 0.270031 0.2781 0.283481 0.288641 0.295274 0.317486 0.365931 0.448664 0.588302 0.800717 1.10623 1.52562 2.10465 2.89992 3.98135 5.09615 0.342839 0.359725 0.340586 0.334866 0.333912 0.33038 0.327762 0.321765 0.318243 0.315576 0.315623 0.318129 0.324131 0.334188 0.346946 0.356067 0.360113 0.360664 0.359398 0.366017 0.394634 0.456532 0.572503 0.762604 1.0669 1.51225 2.12861 2.99846 4.22904 5.5297 0.449595 0.472043 0.448715 0.443037 0.442825 0.438399 0.435994 0.428631 0.424643 0.420749 0.420268 0.421965 0.427036 0.436392 0.449734 0.462378 0.469673 0.467696 0.459772 0.448674 0.456332 0.49724 0.579575 0.737177 1.01483 1.46176 2.12146 3.08094 4.48938 6.03573 0.583866 0.612334 0.585712 0.58073 0.581709 0.576808 0.575413 0.56704 0.56388 0.560026 0.559487 0.561541 0.566669 0.575214 0.588472 0.605145 0.616468 0.618921 0.610524 0.588199 0.572401 0.579421 0.636604 0.752515 0.974385 1.38564 2.0777 3.10357 4.673 6.56696 0.74825 0.782629 0.754769 0.751767 0.754181 0.749419 0.750263 0.742848 0.741881 0.740813 0.742241 0.746249 0.753698 0.763302 0.776982 0.795782 0.813698 0.826585 0.821967 0.800581 0.762406 0.737058 0.753238 0.834334 1.00012 1.33541 1.97927 3.06874 4.8074 7.08013 0.943516 0.983099 0.957137 0.958106 0.961946 0.958284 0.963262 0.96032 0.964566 0.969276 0.977666 0.986989 0.999787 1.01471 1.03206 1.05398 1.07959 1.10395 1.11324 1.10673 1.0666 1.01522 0.973947 0.99981 1.12562 1.37936 1.915 2.98503 4.90197 7.49431 1.16744 1.21134 1.1908 1.19765 1.20304 1.20222 1.21381 1.22054 1.23633 1.25195 1.27314 1.2956 1.32 1.346 1.37369 1.40389 1.43732 1.47602 1.50771 1.5258 1.5113 1.46236 1.38474 1.33645 1.37954 1.57532 1.99271 2.88012 4.87091 7.6168 1.41292 1.46067 1.44826 1.46065 1.46899 1.47432 1.49664 1.51849 1.55319 1.58853 1.63081 1.6757 1.72405 1.77195 1.82137 1.87171 1.92319 1.98357 2.04428 2.10452 2.12815 2.12135 2.0768 1.97887 1.91466 1.99169 2.32106 2.98753 4.78776 7.38997 1.66495 1.71487 1.71284 1.72894 1.74212 1.75845 1.79626 1.8393 1.89954 1.96381 2.03866 2.11781 2.20458 2.29369 2.38723 2.48259 2.57854 2.68054 2.78391 2.89993 2.99857 3.08084 3.10341 3.06814 2.98537 2.88089 2.98453 3.57069 4.69306 6.74308 1.89622 1.94109 1.95541 1.9752 1.99239 2.02408 2.07832 2.14675 2.23438 2.3332 2.44409 2.56466 2.69942 2.84669 3.00672 3.17686 3.35718 3.54837 3.74925 3.98181 4.22993 4.49003 4.67278 4.80839 4.90138 4.8707 4.78698 4.69266 4.58089 5.57354 2.05237 2.07391 2.11595 2.12481 2.1418 2.18842 2.24539 2.33581 2.43723 2.56593 2.7091 2.87166 3.05163 3.25432 3.48157 3.73813 4.02552 4.34383 4.69712 5.0985 5.53263 6.03318 6.57006 7.08434 7.48719 7.62111 7.39344 6.73856 5.57218 3.79505
				</DataArray>
				<DataArray Name="Energy" type="Float32" format="ascii">
 821.621 775.259 681.043 556.416 435.746 336.648 260.468 203.07 159.797 126.862 101.525 81.6939 65.9646 53.266 42.8788 34.3329 27.3265 21.6237 17.0509 13.4476 10.6487 8.49986 6.86113 5.61323 4.65996 3.92714 3.35981 2.92071 2.59003 2.38106 775.234 745.106 675.553 567.535 450.341 347.237 265.89 204.857 159.445 125.372 99.5351 79.592 63.9851 51.4662 41.2897 32.9497 26.1282 20.5899 16.1651 12.6968 10.0227 7.98664 6.44738 5.28547 4.40559 3.73551 3.22296 2.8312 2.53576 2.33088 680.686 675.101 647.619 576.635 480.059 381.138 294.357 225.622 173.923 135.575 106.849 84.9351 68.044 54.6394 43.8632 35.0965 27.9189 22.07 17.3651 13.6474 10.76 8.54699 6.86371 5.58537 4.61214 3.86784 3.29689 2.85988 2.53411 2.3314 555.754 566.561 575.922 543.817 479.823 397.681 315.644 244.877 189.012 146.746 114.973 90.8419 72.3737 57.8046 46.16 36.7381 29.0895 22.9042 17.9516 14.0471 11.0204 8.70705 6.95581 5.63501 4.63772 3.8823 3.30813 2.87218 2.55175 2.34015 435.054 449.227 478.925 479.095 448.679 393.139 324.548 257.104 200.203 155.354 121.094 94.9679 75.0623 59.5781 47.3307 37.5252 29.6346 23.2955 18.2424 14.2671 11.1878 8.83398 7.05167 5.708 4.69463 3.92798 3.34593 2.9039 2.57705 2.359 336.082 346.321 379.944 396.605 392.556 365.465 318.837 262.178 207.542 161.787 125.843 98.1664 77.0017 60.7951 48.1403 38.1304 30.145 23.7493 18.6476 14.6184 11.4813 9.07081 7.23631 5.84747 4.79756 4.00324 3.39962 2.93946 2.59851 2.37325 260.027 265.231 293.417 314.673 323.771 318.425 295.522 256.58 210.77 167.008 130.606 101.789 79.5765 62.5877 49.4474 39.1135 30.9219 24.3827 19.1563 15.0145 11.7773 9.28665 7.39249 5.95933 4.87503 4.05315 3.42825 2.95412 2.60449 2.36926 202.751 204.407 225.009 244.199 256.487 261.647 256.215 235.387 203.33 166.23 132.238 103.93 81.5067 64.1042 50.68 40.1581 31.8234 25.174 19.843 15.5935 12.2468 9.65006 7.66144 6.15047 5.00498 4.13508 3.47329 2.97213 2.60405 2.36239 159.572 159.136 173.554 188.606 199.809 207.168 210.349 203.183 186.687 159.471 130.111 103.742 82.0075 64.7442 51.3393 40.8272 32.4705 25.7929 20.4154 16.0931 12.662 9.97728 7.90461 6.31964 5.11418 4.19879 3.50351 2.9795 2.59851 2.34979 126.703 125.16 135.354 146.521 155.139 161.575 166.726 166.077 159.376 144.791 123.22 100.299 80.5396 64.1842 51.2489 41.042 32.8774 26.3028 20.9613 16.6164 13.1173 10.346 8.18757 6.52405 5.25054 4.2803 3.54471 2.99224 2.5939 2.33989 101.414 99.3913 106.713 114.851 120.99 125.742 130.46 132.179 130.053 123.184 110.578 94.157 76.7563 62.0053 50.0238 40.4485 32.7385 26.4638 21.297 17.023 13.5177 10.693 8.46205 6.72669 5.38954 4.365 3.58685 3.00649 2.59175 2.33243 81.6162 79.4935 84.8498 90.7747 94.9173 98.1206 101.735 103.919 103.75 100.317 94.2005 83.4501 71.1479 58.5217 47.6662 39.0348 31.9885 26.2034 21.3669 17.2783 13.8462 11.0161 8.73614 6.93759 5.53879 4.46142 3.63997 3.02827 2.59454 2.32903 65.9112 63.9171 67.991 72.3378 75.0415 76.9906 79.5692 81.5315 82.0397 80.5762 76.7833 71.1619 62.5362 53.4109 44.4796 36.7434 30.6035 25.4845 21.1052 17.3164 14.0442 11.2729 8.98515 7.14443 5.69243 4.5645 3.70119 3.05729 2.60296 2.32825 53.2295 51.4197 54.6043 57.7811 59.5711 60.7943 62.5986 64.1417 64.7934 64.2409 62.0472 58.5353 53.4195 46.7222 40.0252 33.8201 28.4196 24.1109 20.4004 17.0713 14.0702 11.4368 9.18996 7.33781 5.84966 4.67731 3.77214 3.0938 2.617 2.3306 42.8533 41.2574 43.8403 46.1451 47.3266 48.144 49.4585 50.7054 51.3776 51.3126 50.0756 47.7036 44.5038 40.0328 34.8765 30.0534 25.8069 22.1455 19.1369 16.4126 13.8435 11.4593 9.32596 7.50208 5.99988 4.7946 3.85055 3.13684 2.63452 2.33374 34.3153 32.9279 35.0814 36.7302 37.521 38.1361 39.122 40.1755 40.8529 41.0861 40.4935 39.0761 36.7831 33.8361 30.065 26.1307 22.6763 19.8149 17.3981 15.305 13.2647 11.2637 9.35052 7.61897 6.13502 4.91233 3.93588 3.18612 2.65475 2.33864 27.3145 26.1137 27.9101 29.0844 29.6319 30.1508 30.9249 31.8346 32.491 32.9075 32.7732 32.0204 30.6298 28.4428 25.8262 22.6827 19.6787 17.2325 15.3568 13.7818 12.3007 10.774 9.1836 7.64038 6.23209 5.01922 4.02242 3.23913 2.67731 2.34501 21.6156 20.5808 22.0647 22.9016 23.2938 23.7566 24.3865 25.1781 25.8065 26.3218 26.4882 26.227 25.5059 24.1288 22.1559 19.8228 17.237 14.9312 13.2353 12.0115 10.9893 9.94739 8.77791 7.51385 6.2564 5.10307 4.10824 3.29665 2.70199 2.35063 17.0456 16.1595 17.362 17.9506 18.2411 18.6527 19.1615 19.8457 20.4259 20.9722 21.311 21.3844 21.1202 20.4117 19.1513 17.4133 15.3619 13.2377 11.4711 10.2635 9.46298 8.81367 8.08654 7.17407 6.15363 5.12626 4.17371 3.35164 2.7264 2.35398 13.4442 12.6935 13.6455 14.0468 14.2663 14.6223 15.0177 15.5948 16.1007 16.6224 17.0295 17.2897 17.3257 17.0783 16.4204 15.3055 13.7832 12.0163 10.2634 8.94003 8.07117 7.50947 7.10335 6.58835 5.88362 5.05536 4.20225 3.40275 2.75586 2.35934 10.6465 10.0207 10.7588 11.0202 11.1871 11.4839 11.7797 12.2484 12.6661 13.1215 13.5218 13.8524 14.0506 14.0746 13.8483 13.2693 12.3053 10.9905 9.46132 8.07155 7.05898 6.40961 6.02591 5.75009 5.38883 4.8307 4.13889 3.4226 2.77994 2.36159 8.49839 7.98538 8.5462 8.70685 8.83339 9.0724 9.2879 9.65166 9.97981 10.3478 10.6958 11.0197 11.276 11.4411 11.4638 11.2646 10.7731 9.9467 8.81442 7.50887 6.40763 5.63035 5.13023 4.85622 4.68872 4.42296 3.9606 3.39051 2.78884 2.36065 6.86006 6.44653 6.86309 6.9556 7.05117 7.23723 7.39321 7.66195 7.90677 8.18782 8.4632 8.73894 8.98642 9.19192 9.3287 9.35164 9.18394 8.77803 8.08502 7.10014 6.02627 5.12964 4.52215 4.13743 3.93689 3.83737 3.64169 3.25965 2.74352 2.34879 5.61237 5.28483 5.58478 5.63475 5.70751 5.84777 5.95974 6.15016 6.32063 6.5244 6.72672 6.93844 7.1453 7.3378 7.50324 7.61957 7.6395 7.51372 7.17379 6.58787 5.74974 4.856 4.13829 3.65069 3.34932 3.21615 3.16007 2.99887 2.63383 2.31224 4.65919 4.40503 4.61155 4.63742 4.6942 4.79751 4.87536 5.00472 5.11453 5.25068 5.38971 5.5387 5.69286 5.84964 6.00073 6.13508 6.23209 6.2565 6.15277 5.88312 5.38598 4.68984 3.93595 3.34824 2.95678 2.72468 2.64302 2.61861 2.44612 2.23016 3.92642 3.73499 3.86726 3.88196 3.92756 4.00285 4.05301 4.13463 4.19856 4.28005 4.36488 4.46108 4.56421 4.67677 4.79465 4.91193 5.01904 5.10297 5.12599 5.05507 4.82929 4.42329 3.83586 3.21621 2.72466 2.40087 2.22338 2.18365 2.16535 2.08255 3.35914 3.22245 3.29636 3.30779 3.34557 3.39906 3.42777 3.47278 3.50324 3.5441 3.58643 3.63948 3.70105 3.77145 3.85028 3.93556 4.02204 4.10812 4.17355 4.20211 4.1387 3.96025 3.64069 3.15944 2.64202 2.22345 1.95454 1.82109 1.85271 1.85831 2.9201 2.83069 2.85942 2.87179 2.90361 2.93892 2.95348 2.97159 2.97932 2.9917 3.00562 3.02778 3.05705 3.0931 3.13652 3.18582 3.23867 3.29621 3.35123 3.40258 3.42254 3.3904 3.25913 2.9985 2.61793 2.18321 1.8214 1.59227 1.54109 1.55211 2.58947 2.53525 2.53372 2.55133 2.57673 2.59786 2.60381 2.60336 2.59854 2.59347 2.59069 2.59439 2.60294 2.61632 2.63438 2.65486 2.67672 2.70122 2.72637 2.75558 2.77951 2.78905 2.7433 2.6333 2.44569 2.16463 1.85236 1.54086 1.32505 1.19646 2.38053 2.33036 2.33099 2.33972 2.35871 2.37261 2.36877 2.36172 2.35001 2.33949 2.33124 2.32909 2.32807 2.32963 2.33413 2.33927 2.34382 2.34985 2.35491 2.35863 2.36098 2.36171 2.34826 2.31121 2.23074 2.08201 1.85785 1.55222 1.19606 0.735021
				</DataArray>
				<DataArray Name="F1" type="Float32" format="ascii">
 1 1 1 1 1 1 1 1 1 1 1 1 1 1 1 1 1 1 1 1 1 1 1 1 1 1 1 1 1 1 1 1 1 1 1 1 1 1 1 1 1 1 1 1 1 1 1 1 1 1 1 1 1 1 1 1 1 1 1 1 1 1 1 1 1 1 1 1 1 1 1 1 1 1 1 1 1 1 1 1 1 1 1 1 1 1 1 1 1 1 1 1 1 1 1 1 1 1 1 1 1 1 1 1 1 1 1 1 1 1 1 1 1 1 1 1 1 1 1 1 1 1 1 1 1 1 1 1 1 1 1 1 1 1 1 1 1 1 1 1 1 1 1 1 1 1 1 1 1 1 1 1 1 1 1 1 1 1 1 1 1 1 1 1 1 1 1 1 1 1 1 1 1 1 1 1 1 1 1 1 1 1 1 1 1 1 1 1 1 1 1 1 1 1 1 1 1 1 1 1 1 1 1 1 1 1 1 1 1 1 1 1 1 1 1 1 1 1 1 1 1 1 1 1 1 1 1 1 1 1 1 1 1 1 1 1 1 1 1 1 1 1 1 1 1 1 1 1 1 1 1 1 1 1 1 1 1 1 1 1 1 1 1 1 1 1 1 1 1 1 1 1 1 1 1 1 1 1 1 1 1 1 1 1 1 1 1 1 1 1 1 1 1 1 1 1 1 1 1 1 1 1 1 1 1 1 1 1 1 1 1 1 1 1 1 1 1 1 1 1 1 1 1 1 1 1 1 1 1 1 1 1 1 1 1 1 1 1 1 1 1 1 1 1 1 1 1 1 1 1 1 1 1 1 1 1 1 1 1 1 1 1 1 1 1 1 1 1 1 1 1 1 1 1 1 1 1 1 1 1 1 1 1 1 1 1 1 1 1 1 1 1 1 1 1 1 1 1 1 1 1 1 1 1 1 1 1 1 1 1 1 1 1 1 1 1 1 1 1 1 1 1 1 1 1 1 1 1 1 1 1 1 1 1 1 1 1 1 1 1 1 1 1 1 1 1 1 1 1 1 1 1 1 1 1 1 1 1 1 1 1 1 1 1 1 1 1 1 1 1 1 1 1 1 1 1 1 1 1 1 1 1 1 1 1 1 1 1 1 1 1 1 1 1 1 1 1 1 1 1 1 1 1 1 1 1 1 1 1 1 1 1 1 1 1 1 1 1 1 1 1 1 1 1 1 1 1 1 1 1 1 1 1 1 1 1 1 1 1 1 1 1 1 1 1 1 1 1 1 1 1 1 1 1 1 1 1 1 1 1 1 1 1 1 1 1 1 1 1 1 1 1 1 1 1 1 1 1 1 1 1 1 1 1 1 1 1 1 1 1 1 1 1 1 1 1 1 1 1 1 1 1 1 1 1 1 1 1 1 1 1 1 1 1 1 1 1 1 1 1 1 1 1 1 1 1 1 1 1 1 1 1 1 1 1 1 1 1 1 1 1 1 1 1 1 1 1 1 1 1 1 1 1 1 1 1 1 1 1 1 1 1 1 1 1 1 1 1 1 1 1 1 1 1 1 1 1 1 1 1 1 1 1 1 1 1 1 1 1 1 1 1 1 1 1 1 1 1 1 1 1 1 1 1 1 1 1 1 1 1 1 1 1 1 1 1 1 1 1 1 1 1 1 1 1 1 1 1 1 1 1 1 1 1 1 1 1 1 1 1 1 1 1 1 1 1 1 1 1 1 1 1 1 1 1 1 1 1 1 1 1 1 1 1 1 1 1 1 1 1 1 1 1 1 1 1 1 1 1 1 1 1 1 1 1 1 1 1 1 1 1 1 1 1 1 1 1 1 1 1 1 1 1 1 1 1 1 1 1 1 1 1 1 1 1 1 1 1 1 1 1 1 1 1 1 1 1 1 1 1 1 1 1 1 1 1 1 1 1 1 1 1 1 1 1 1 1 1 1 1 1 1 1 1 1 1 1 1 1 1 1 1 1 1 1 1 1 1 1 1 1 1 1 1 1 1 1 1 1 1 1 1 1 1 1 1 1 1 1 1 1 1 1 1 1 1 1 1 1 1
				</DataArray>
				<DataArray Name="F2" type="Float32" format="ascii">
 0 0 0 0 0 0 0 0 0 0 0 0 0 0 0 0 0 0 0 0 0 0 0 0 0 0 0 0 0 0 0 0 0 0 0 0 0 0 0 0 0 0 0 0 0 0 0 0 0 0 0 0 0 0 0 0 0 0 0 0 0 0 0 0 0 0 0 0 0 0 0 0 0 0 0 0 0 0 0 0 0 0 0 0 0 0 0 0 0 0 0 0 0 0 0 0 0 0 0 0 0 0 0 0 0 0 0 0 0 0 0 0 0 0 0 0 0 0 0 0 0 0 0 0 0 0 0 0 0 0 0 0 0 0 0 0 0 0 0 0 0 0 0 0 0 0 0 0 0 0 0 0 0 0 0 0 0 0 0 0 0 0 0 0 0 0 0 0 0 0 0 0 0 0 0 0 0 0 0 0 0 0 0 0 0 0 0 0 0 0 0 0 0 0 0 0 0 0 0 0 0 0 0 0 0 0 0 0 0 0 0 0 0 0 0 0 0 0 0 0 0 0 0 0 0 0 0 0 0 0 0 0 0 0 0 0 0 0 0 0 0 0 0 0 0 0 0 0 0 0 0 0 0 0 0 0 0 0 0 0 0 0 0 0 0 0 0 0 0 0 0 0 0 0 0 0 0 0 0 0 0 0 0 0 0 0 0 0 0 0 0 0 0 0 0 0 0 0 0 0 0 0 0 0 0 0 0 0 0 0 0 0 0 0 0 0 0 0 0 0 0 0 0 0 0 0 0 0 0 0 0 0 0 0 0 0 0 0 0 0 0 0 0 0 0 0 0 0 0 0 0 0 0 0 0 0 0 0 0 0 0 0 0 0 0 0 0 0 0 0 0 0 0 0 0 0 0 0 0 0 0 0 0 0 0 0 0 0 0 0 0 0 0 0 0 0 0 0 0 0 0 0 0 0 0 0 0 0 0 0 0 0 0 0 0 0 0 0 0 0 0 0 0 0 0 0 0 0 0 0 0 0 0 0 0 0 0 0 0 0 0 0 0 0 0 0 0 0 0 0 0 0 0 0 0 0 0 0 0 0 0 0 0 0 0 0 0 0 0 0 0 0 0 0 0 0 0 0 0 0 0 0 0 0 0 0 0 0 0 0 0 0 0 0 0 0 0 0 0 0 0 0 0 0 0 0 0 0 0 0 0 0 0 0 0 0 0 0 0 0 0 0 0 0 0 0 0 0 0 0 0 0 0 0 0 0 0 0 0 0 0 0 0 0 0 0 0 0 0 0 0 0 0 0 0 0 0 0 0 0 0 0 0 0 0 0 0 0 0 0 0 0 0 0 0 0 0 0 0 0 0 0 0 0 0 0 0 0 0 0 0 0 0 0 0 0 0 0 0 0 0 0 0 0 0 0 0 0 0 0 0 0 0 0 0 0 0 0 0 0 0 0 0 0 0 0 0 0 0 0 0 0 0 0 0 0 0 0 0 0 0 0 0 0 0 0 0 0 0 0 0 0 0 0 0 0 0 0 0 0 0 0 0 0 0 0 0 0 0 0 0 0 0 0 0 0 0 0 0 0 0 0 0 0 0 0 0 0 0 0 0 0 0 0 0 0 0 0 0 0 0 0 0 0 0 0 0 0 0 0 0 0 0 0 0 0 0 0 0 0 0 0 0 0 0 0 0 0 0 0 0 0 0 0 0 0 0 0 0 0 0 0 0 0 0 0 0 0 0 0 0 0 0 0 0 0 0 0 0 0 0 0 0 0 0 0 0 0 0 0 0 0 0 0 0 0 0 0 0 0 0 0 0 0 0 0 0 0 0 0 0 0 0 0 0 0 0 0 0 0 0 0 0 0 0 0 0 0 0 0 0 0 0 0 0 0 0 0 0 0 0 0 0 0 0 0 0 0 0 0 0 0 0 0 0 0 0 0 0 0 0 0 0 0 0 0 0 0 0 0 0 0 0 0 0 0 0 0 0 0 0 0 0 0 0 0 0 0 0 0 0 0 0 0 0 0 0 0 0 0 0 0 0 0 0 0 0 0 0 0 0 0 0 0 0 0 0 0 0 0
				</DataArray>
				<DataArray Name="F3" type="Float32" format="ascii">