<?xml version="1.0"?>
<VTKFile type="PolyData">
	<PolyData>
		<Piece NumberOfPoints="961" NumberOfPolys="900">
			<Points>
				<DataArray type="Float32" NumberOfComponents="3" format="ascii">
 0 0 0 0.04 0 0 0.08 0 0 0.12 0 0 0.16 0 0 0.2 0 0 0.24 0 0 0.28 0 0 0.32 0 0 0.36 0 0 0.4 0 0 0.44 0 0 0.48 0 0 0.52 0 0 0.56 0 0 0.6 0 0 0.64 0 0 0.68 0 0 0.72 0 0 0.76 0 0 0.8 0 0 0.84 0 0 0.88 0 0 0.92 0 0 0.96 0 0 1 0 0 1.04 0 0 1.08 0 0 1.12 0 0 1.16 0 0 1.2 0 0 0 0.04 0 0.04 0.04 0 0.08 0.04 0 0.12 0.04 0 0.16 0.04 0 0.2 0.04 0 0.24 0.04 0 0.28 0.04 0 0.32 0.04 0 0.36 0.04 0 0.4 0.04 0 0.44 0.04 0 0.48 0.04 0 0.52 0.04 0 0.56 0.04 0 0.6 0.04 0 0.64 0.04 0 0.68 0.04 0 0.72 0.04 0 0.76 0.04 0 0.8 0.04 0 0.84 0.04 0 0.88 0.04 0 0.92 0.04 0 0.96 0.04 0 1 0.04 0 1.04 0.04 0 1.08 0.04 0 1.12 0.04 0 1.16 0.04 0 1.2 0.04 0 0 0.08 0 0.04 0.08 0 0.08 0.08 0 0.12 0.08 0 0.16 0.08 0 0.2 0.08 0 0.24 0.08 0 0.28 0.08 0 0.32 0.08 0 0.36 0.08 0 0.4 0.08 0 0.44 0.08 0 0.48 0.08 0 0.52 0.08 0 0.56 0.08 0 0.6 0.08 0 0.64 0.08 0 0.68 0.08 0 0.72 0.08 0 0.76 0.08 0 0.8 0.08 0 0.84 0.08 0 0.88 0.08 0 0.92 0.08 0 0.96 0.08 0 1 0.08 0 1.04 0.08 0 1.08 0.08 0 1.12 0.08 0 1.16 0.08 0 1.2 0.08 0 0 0.12 0 0.04 0.12 0 0.08 0.12 0 0.12 0.12 0 0.16 0.12 0 0.2 0.12 0 0.24 0.12 0 0.28 0.12 0 0.32 0.12 0 0.36 0.12 0 0.4 0.12 0 0.44 0.12 0 0.48 0.12 0 0.52 0.12 0 0.56 0.12 0 0.6 0.12 0 0.64 0.12 0 0.68 0.12 0 0.72 0.12 0 0.76 0.12 0 0.8 0.12 0 0.84 0.12 0 0.88 0.12 0 0.92 0.12 0 0.96 0.12 0 1 0.12 0 1.04 0.12 0 1.08 0.12 0 1.12 0.12 0 1.16 0.12 0 1.2 0.12 0 0 0.16 0 0.04 0.16 0 0.08 0.16 0 0.12 0.16 0 0.16 0.16 0 0.2 0.16 0 0.24 0.16 0 0.28 0.16 0 0.32 0.16 0 0.36 0.16 0 0.4 0.16 0 0.44 0.16 0 0.48 0.16 0 0.52 0.16 0 0.56 0.16 0 0.6 0.16 0 0.64 0.16 0 0.68 0.16 0 0.72 0.16 0 0.76 0.16 0 0.8 0.16 0 0.84 0.16 0 0.88 0.16 0 0.92 0.16 0 0.96 0.16 0 1 0.16 0 1.04 0.16 0 1.08 0.16 0 1.12 0.16 0 1.16 0.16 0 1.2 0.16 0 0 0.2 0 0.04 0.2 0 0.08 0.2 0 0.12 0.2 0 0.16 0.2 0 0.2 0.2 0 0.24 0.2 0 0.28 0.2 0 0.32 0.2 0 0.36 0.2 0 0.4 0.2 0 0.44 0.2 0 0.48 0.2 0 0.52 0.2 0 0.56 0.2 0 0.6 0.2 0 0.64 0.2 0 0.68 0.2 0 0.72 0.2 0 0.76 0.2 0 0.8 0.2 0 0.84 0.2 0 0.88 0.2 0 0.92 0.2 0 0.96 0.2 0 1 0.2 0 1.04 0.2 0 1.08 0.2 0 1.12 0.2 0 1.16 0.2 0 1.2 0.2 0 0 0.24 0 0.04 0.24 0 0.08 0.24 0 0.12 0.24 0 0.16 0.24 0 0.2 0.24 0 0.24 0.24 0 0.28 0.24 0 0.32 0.24 0 0.36 0.24 0 0.4 0.24 0 0.44 0.24 0 0.48 0.24 0 0.52 0.24 0 0.56 0.24 0 0.6 0.24 0 0.64 0.24 0 0.68 0.24 0 0.72 0.24 0 0.76 0.24 0 0.8 0.24 0 0.84 0.24 0 0.88 0.24 0 0.92 0.24 0 0.96 0.24 0 1 0.24 0 1.04 0.24 0 1.08 0.24 0 1.12 0.24 0 1.16 0.24 0 1.2 0.24 0 0 0.28 0 0.04 0.28 0 0.08 0.28 0 0.12 0.28 0 0.16 0.28 0 0.2 0.28 0 0.24 0.28 0 0.28 0.28 0 0.32 0.28 0 0.36 0.28 0 0.4 0.28 0 0.44 0.28 0 0.48 0.28 0 0.52 0.28 0 0.56 0.28 0 0.6 0.28 0 0.64 0.28 0 0.68 0.28 0 0.72 0.28 0 0.76 0.28 0 0.8 0.28 0 0.84 0.28 0 0.88 0.28 0 0.92 0.28 0 0.96 0.28 0 1 0.28 0 1.04 0.28 0 1.08 0.28 0 1.12 0.28 0 1.16 0.28 0 1.2 0.28 0 0 0.32 0 0.04 0.32 0 0.08 0.32 0 0.12 0.32 0 0.16 0.32 0 0.2 0.32 0 0.24 0.32 0 0.28 0.32 0 0.32 0.32 0 0.36 0.32 0 0.4 0.32 0 0.44 0.32 0 0.48 0.32 0 0.52 0.32 0 0.56 0.32 0 0.6 0.32 0 0.64 0.32 0 0.68 0.32 0 0.72 0.32 0 0.76 0.32 0 0.8 0.32 0 0.84 0.32 0 0.88 0.32 0 0.92 0.32 0 0.96 0.32 0 1 0.32 0 1.04 0.32 0 1.08 0.32 0 1.12 0.32 0 1.16 0.32 0 1.2 0.32 0 0 0.36 0 0.04 0.36 0 0.08 0.36 0 0.12 0.36 0 0.16 0.36 0 0.2 0.36 0 0.24 0.36 0 0.28 0.36 0 0.32 0.36 0 0.36 0.36 0 0.4 0.36 0 0.44 0.36 0 0.48 0.36 0 0.52 0.36 0 0.56 0.36 0 0.6 0.36 0 0.64 0.36 0 0.68 0.36 0 0.72 0.36 0 0.76 0.36 0 0.8 0.36 0 0.84 0.36 0 0.88 0.36 0 0.92 0.36 0 0.96 0.36 0 1 0.36 0 1.04 0.36 0 1.08 0.36 0 1.12 0.36 0 1.16 0.36 0 1.2 0.36 0 0 0.4 0 0.04 0.4 0 0.08 0.4 0 0.12 0.4 0 0.16 0.4 0 0.2 0.4 0 0.24 0.4 0 0.28 0.4 0 0.32 0.4 0 0.36 0.4 0 0.4 0.4 0 0.44 0.4 0 0.48 0.4 0 0.52 0.4 0 0.56 0.4 0 0.6 0.4 0 0.64 0.4 0 0.68 0.4 0 0.72 0.4 0 0.76 0.4 0 0.8 0.4 0 0.84 0.4 0 0.88 0.4 0 0.92 0.4 0 0.96 0.4 0 1 0.4 0 1.04 0.4 0 1.08 0.4 0 1.12 0.4 0 1.16 0.4 0 1.2 0.4 0 0 0.44 0 0.04 0.44 0 0.08 0.44 0 0.12 0.44 0 0.16 0.44 0 0.2 0.44 0 0.24 0.44 0 0.28 0.44 0 0.32 0.44 0 0.36 0.44 0 0.4 0.44 0 0.44 0.44 0 0.48 0.44 0 0.52 0.44 0 0.56 0.44 0 0.6 0.44 0 0.64 0.44 0 0.68 0.44 0 0.72 0.44 0 0.76 0.44 0 0.8 0.44 0 0.84 0.44 0 0.88 0.44 0 0.92 0.44 0 0.96 0.44 0 1 0.44 0 1.04 0.44 0 1.08 0.44 0 1.12 0.44 0 1.16 0.44 0 1.2 0.44 0 0 0.48 0 0.04 0.48 0 0.08 0.48 0 0.12 0.48 0 0.16 0.48 0 0.2 0.48 0 0.24 0.48 0 0.28 0.48 0 0.32 0.48 0 0.36 0.48 0 0.4 0.48 0 0.44 0.48 0 0.48 0.48 0 0.52 0.48 0 0.56 0.48 0 0.6 0.48 0 0.64 0.48 0 0.68 0.48 0 0.72 0.48 0 0.76 0.48 0 0.8 0.48 0 0.84 0.48 0 0.88 0.48 0 0.92 0.48 0 0.96 0.48 0 1 0.48 0 1.04 0.48 0 1.08 0.48 0 1.12 0.48 0 1.16 0.48 0 1.2 0.48 0 0 0.52 0 0.04 0.52 0 0.08 0.52 0 0.12 0.52 0 0.16 0.52 0 0.2 0.52 0 0.24 0.52 0 0.28 0.52 0 0.32 0.52 0 0.36 0.52 0 0.4 0.52 0 0.44 0.52 0 0.48 0.52 0 0.52 0.52 0 0.56 0.52 0 0.6 0.52 0 0.64 0.52 0 0.68 0.52 0 0.72 0.52 0 0.76 0.52 0 0.8 0.52 0 0.84 0.52 0 0.88 0.52 0 0.92 0.52 0 0.96 0.52 0 1 0.52 0 1.04 0.52 0 1.08 0.52 0 1.12 0.52 0 1.16 0.52 0 1.2 0.52 0 0 0.56 0 0.04 0.56 0 0.08 0.56 0 0.12 0.56 0 0.16 0.56 0 0.2 0.56 0 0.24 0.56 0 0.28 0.56 0 0.32 0.56 0 0.36 0.56 0 0.4 0.56 0 0.44 0.56 0 0.48 0.56 0 0.52 0.56 0 0.56 0.56 0 0.6 0.56 0 0.64 0.56 0 0.68 0.56 0 0.72 0.56 0 0.76 0.56 0 0.8 0.56 0 0.84 0.56 0 0.88 0.56 0 0.92 0.56 0 0.96 0.56 0 1 0.56 0 1.04 0.56 0 1.08 0.56 0 1.12 0.56 0 1.16 0.56 0 1.2 0.56 0 0 0.6 0 0.04 0.6 0 0.08 0.6 0 0.12 0.6 0 0.16 0.6 0 0.2 0.6 0 0.24 0.6 0 0.28 0.6 0 0.32 0.6 0 0.36 0.6 0 0.4 0.6 0 0.44 0.6 0 0.48 0.6 0 0.52 0.6 0 0.56 0.6 0 0.6 0.6 0 0.64 0.6 0 0.68 0.6 0 0.72 0.6 0 0.76 0.6 0 0.8 0.6 0 0.84 0.6 0 0.88 0.6 0 0.92 0.6 0 0.96 0.6 0 1 0.6 0 1.04 0.6 0 1.08 0.6 0 1.12 0.6 0 1.16 0.6 0 1.2 0.6 0 0 0.64 0 0.04 0.64 0 0.08 0.64 0 0.12 0.64 0 0.16 0.64 0 0.2 0.64 0 0.24 0.64 0 0.28 0.64 0 0.32 0.64 0 0.36 0.64 0 0.4 0.64 0 0.44 0.64 0 0.48 0.64 0 0.52 0.64 0 0.56 0.64 0 0.6 0.64 0 0.64 0.64 0 0.68 0.64 0 0.72 0.64 0 0.76 0.64 0 0.8 0.64 0 0.84 0.64 0 0.88 0.64 0 0.92 0.64 0 0.96 0.64 0 1 0.64 0 1.04 0.64 0 1.08 0.64 0 1.12 0.64 0 1.16 0.64 0 1.2 0.64 0 0 0.68 0 0.04 0.68 0 0.08 0.68 0 0.12 0.68 0 0.16 0.68 0 0.2 0.68 0 0.24 0.68 0 0.28 0.68 0 0.32 0.68 0 0.36 0.68 0 0.4 0.68 0 0.44 0.68 0 0.48 0.68 0 0.52 0.68 0 0.56 0.68 0 0.6 0.68 0 0.64 0.68 0 0.68 0.68 0 0.72 0.68 0 0.76 0.68 0 0.8 0.68 0 0.84 0.68 0 0.88 0.68 0 0.92 0.68 0 0.96 0.68 0 1 0.68 0 1.04 0.68 0 1.08 0.68 0 1.12 0.68 0 1.16 0.68 0 1.2 0.68 0 0 0.72 0 0.04 0.72 0 0.08 0.72 0 0.12 0.72 0 0.16 0.72 0 0.2 0.72 0 0.24 0.72 0 0.28 0.72 0 0.32 0.72 0 0.36 0.72 0 0.4 0.72 0 0.44 0.72 0 0.48 0.72 0 0.52 0.72 0 0.56 0.72 0 0.6 0.72 0 0.64 0.72 0 0.68 0.72 0 0.72 0.72 0 0.76 0.72 0 0.8 0.72 0 0.84 0.72 0 0.88 0.72 0 0.92 0.72 0 0.96 0.72 0 1 0.72 0 1.04 0.72 0 1.08 0.72 0 1.12 0.72 0 1.16 0.72 0 1.2 0.72 0 0 0.76 0 0.04 0.76 0 0.08 0.76 0 0.12 0.76 0 0.16 0.76 0 0.2 0.76 0 0.24 0.76 0 0.28 0.76 0 0.32 0.76 0 0.36 0.76 0 0.4 0.76 0 0.44 0.76 0 0.48 0.76 0 0.52 0.76 0 0.56 0.76 0 0.6 0.76 0 0.64 0.76 0 0.68 0.76 0 0.72 0.76 0 0.76 0.76 0 0.8 0.76 0 0.84 0.76 0 0.88 0.76 0 0.92 0.76 0 0.96 0.76 0 1 0.76 0 1.04 0.76 0 1.08 0.76 0 1.12 0.76 0 1.16 0.76 0 1.2 0.76 0 0 0.8 0 0.04 0.8 0 0.08 0.8 0 0.12 0.8 0 0.16 0.8 0 0.2 0.8 0 0.24 0.8 0 0.28 0.8 0 0.32 0.8 0 0.36 0.8 0 0.4 0.8 0 0.44 0.8 0 0.48 0.8 0 0.52 0.8 0 0.56 0.8 0 0.6 0.8 0 0.64 0.8 0 0.68 0.8 0 0.72 0.8 0 0.76 0.8 0 0.8 0.8 0 0.84 0.8 0 0.88 0.8 0 0.92 0.8 0 0.96 0.8 0 1 0.8 0 1.04 0.8 0 1.08 0.8 0 1.12 0.8 0 1.16 0.8 0 1.2 0.8 0 0 0.84 0 0.04 0.84 0 0.08 0.84 0 0.12 0.84 0 0.16 0.84 0 0.2 0.84 0 0.24 0.84 0 0.28 0.84 0 0.32 0.84 0 0.36 0.84 0 0.4 0.84 0 0.44 0.84 0 0.48 0.84 0 0.52 0.84 0 0.56 0.84 0 0.6 0.84 0 0.64 0.84 0 0.68 0.84 0 0.72 0.84 0 0.76 0.84 0 0.8 0.84 0 0.84 0.84 0 0.88 0.84 0 0.92 0.84 0 0.96 0.84 0 1 0.84 0 1.04 0.84 0 1.08 0.84 0 1.12 0.84 0 1.16 0.84 0 1.2 0.84 0 0 0.88 0 0.04 0.88 0 0.08 0.88 0 0.12 0.88 0 0.16 0.88 0 0.2 0.88 0 0.24 0.88 0 0.28 0.88 0 0.32 0.88 0 0.36 0.88 0 0.4 0.88 0 0.44 0.88 0 0.48 0.88 0 0.52 0.88 0 0.56 0.88 0 0.6 0.88 0 0.64 0.88 0 0.68 0.88 0 0.72 0.88 0 0.76 0.88 0 0.8 0.88 0 0.84 0.88 0 0.88 0.88 0 0.92 0.88 0 0.96 0.88 0 1 0.88 0 1.04 0.88 0 1.08 0.88 0 1.12 0.88 0 1.16 0.88 0 1.2 0.88 0 0 0.92 0 0.04 0.92 0 0.08 0.92 0 0.12 0.92 0 0.16 0.92 0 0.2 0.92 0 0.24 0.92 0 0.28 0.92 0 0.32 0.92 0 0.36 0.92 0 0.4 0.92 0 0.44 0.92 0 0.48 0.92 0 0.52 0.92 0 0.56 0.92 0 0.6 0.92 0 0.64 0.92 0 0.68 0.92 0 0.72 0.92 0 0.76 0.92 0 0.8 0.92 0 0.84 0.92 0 0.88 0.92 0 0.92 0.92 0 0.96 0.92 0 1 0.92 0 1.04 0.92 0 1.08 0.92 0 1.12 0.92 0 1.16 0.92 0 1.2 0.92 0 0 0.96 0 0.04 0.96 0 0.08 0.96 0 0.12 0.96 0 0.16 0.96 0 0.2 0.96 0 0.24 0.96 0 0.28 0.96 0 0.32 0.96 0 0.36 0.96 0 0.4 0.96 0 0.44 0.96 0 0.48 0.96 0 0.52 0.96 0 0.56 0.96 0 0.6 0.96 0 0.64 0.96 0 0.68 0.96 0 0.72 0.96 0 0.76 0.96 0 0.8 0.96 0 0.84 0.96 0 0.88 0.96 0 0.92 0.96 0 0.96 0.96 0 1 0.96 0 1.04 0.96 0 1.08 0.96 0 1.12 0.96 0 1.16 0.96 0 1.2 0.96 0 0 1 0 0.04 1 0 0.08 1 0 0.12 1 0 0.16 1 0 0.2 1 0 0.24 1 0 0.28 1 0 0.32 1 0 0.36 1 0 0.4 1 0 0.44 1 0 0.48 1 0 0.52 1 0 0.56 1 0 0.6 1 0 0.64 1 0 0.68 1 0 0.72 1 0 0.76 1 0 0.8 1 0 0.84 1 0 0.88 1 0 0.92 1 0 0.96 1 0 1 1 0 1.04 1 0 1.08 1 0 1.12 1 0 1.16 1 0 1.2 1 0 0 1.04 0 0.04 1.04 0 0.08 1.04 0 0.12 1.04 0 0.16 1.04 0 0.2 1.04 0 0.24 1.04 0 0.28 1.04 0 0.32 1.04 0 0.36 1.04 0 0.4 1.04 0 0.44 1.04 0 0.48 1.04 0 0.52 1.04 0 0.56 1.04 0 0.6 1.04 0 0.64 1.04 0 0.68 1.04 0 0.72 1.04 0 0.76 1.04 0 0.8 1.04 0 0.84 1.04 0 0.88 1.04 0 0.92 1.04 0 0.96 1.04 0 1 1.04 0 1.04 1.04 0 1.08 1.04 0 1.12 1.04 0 1.16 1.04 0 1.2 1.04 0 0 1.08 0 0.04 1.08 0 0.08 1.08 0 0.12 1.08 0 0.16 1.08 0 0.2 1.08 0 0.24 1.08 0 0.28 1.08 0 0.32 1.08 0 0.36 1.08 0 0.4 1.08 0 0.44 1.08 0 0.48 1.08 0 0.52 1.08 0 0.56 1.08 0 0.6 1.08 0 0.64 1.08 0 0.68 1.08 0 0.72 1.08 0 0.76 1.08 0 0.8 1.08 0 0.84 1.08 0 0.88 1.08 0 0.92 1.08 0 0.96 1.08 0 1 1.08 0 1.04 1.08 0 1.08 1.08 0 1.12 1.08 0 1.16 1.08 0 1.2 1.08 0 0 1.12 0 
[...]
			<CellData Scalars="Density">
				<DataArray Name="Density" type="Float32" format="ascii">
 0.00659115 0.00706169 0.00818043 0.0100924 0.0128099 0.0163653 0.0208306 0.0263225 0.0330557 0.0413603 0.0517353 0.0649147 0.0819861 0.104611 0.135236 0.177607 0.237343 0.323136 0.449284 0.640627 0.937166 1.38221 1.97356 2.56023 2.59842 1.96992 1.16539 1.02537 1.00108 1 0.00706313 0.00753786 0.00862079 0.0105576 0.0134107 0.0172488 0.0221797 0.0283264 0.0359119 0.0452386 0.0567905 0.0712333 0.0895997 0.113482 0.145139 0.188279 0.248511 0.334523 0.459524 0.644507 0.926797 1.36355 1.95149 2.5146 2.54731 1.93409 1.16569 1.02591 1.00109 1 0.00818307 0.00862281 0.00958552 0.0114351 0.0142539 0.0181431 0.0232413 0.0296956 0.0377316 0.0476805 0.0600262 0.0754854 0.0951103 0.120492 0.154034 0.199314 0.261918 0.350572 0.479781 0.674247 0.974304 1.42738 2.02788 2.57709 2.55945 1.83717 1.14913 1.02436 1.00097 1 0.0100958 0.0105616 0.0114402 0.0133685 0.0164178 0.0206979 0.0264273 0.0337762 0.0430409 0.0545602 0.0688951 0.0867559 0.1093 0.138103 0.175561 0.225473 0.29333 0.388205 0.524365 0.728057 1.04367 1.51309 2.08721 2.55092 2.4834 1.72781 1.12984 1.02121 1.00072 1 0.0128136 0.0134155 0.0142649 0.0164293 0.0199595 0.0249444 0.031698 0.0404228 0.05146 0.0652196 0.0822564 0.10343 0.129858 0.163454 0.206654 0.263598 0.340503 0.446921 0.599612 0.825691 1.16728 1.66544 2.24005 2.59061 2.39344 1.56043 1.08962 1.01422 1.00042 1 0.0163685 0.0172522 0.0181572 0.0207147 0.0249571 0.0309071 0.0389473 0.0493002 0.0623386 0.0785098 0.0985063 0.123197 0.153992 0.192725 0.242622 0.307778 0.395783 0.518519 0.693897 0.955658 1.3486 1.89327 2.45287 2.64846 2.25589 1.37081 1.06623 1.0087 1.00015 1 0.0208354 0.0221821 0.0232605 0.0264505 0.0317166 0.038973 0.0486854 0.061042 0.0765154 0.0955361 0.118968 0.147829 0.183691 0.229006 0.286933 0.363466 0.465839 0.609549 0.816714 1.12299 1.58282 2.16436 2.65678 2.68479 1.98343 1.20634 1.04062 1.00385 1.00002 1 0.0263276 0.0283299 0.029717 0.0338119 0.0404564 0.0493457 0.0611021 0.0758463 0.0940977 0.116442 0.143708 0.177328 0.218982 0.27164 0.339445 0.42881 0.551023 0.722814 0.974285 1.35235 1.89665 2.48536 2.80873 2.55899 1.62192 1.1204 1.0212 1.00105 1 1 0.0330627 0.0359106 0.0377587 0.0430719 0.0515157 0.0624374 0.0766279 0.0942226 0.115757 0.141881 0.173751 0.212792 0.261499 0.323079 0.402856 0.509211 0.655139 0.864909 1.17059 1.63326 2.23226 2.75108 2.83513 2.18444 1.29688 1.06229 1.0079 1.00014 1 1 0.041367 0.0452386 0.0477034 0.0545968 0.0652562 0.0786462 0.0957618 0.116642 0.142062 0.172684 0.209835 0.25557 0.312435 0.385256 0.4803 0.60826 0.787859 1.04872 1.43625 1.99807 2.60233 2.92594 2.64587 1.67718 1.13984 1.02832 1.00194 1.00001 1 1 0.0517418 0.0567796 0.0600468 0.0688953 0.0822798 0.0985989 0.11919 0.144053 0.173992 0.210045 0.253758 0.307514 0.375229 0.461929 0.577318 0.735876 0.959548 1.2888 1.77852 2.39627 2.88398 2.92535 2.14743 1.29513 1.06422 1.00885 1.0002 1 1 1 0.0649216 0.0712234 0.0754973 0.0867456 0.103354 0.123244 0.147996 0.17759 0.213167 0.255792 0.307729 0.371936 0.453236 0.559517 0.701891 0.901837 1.19091 1.61608 2.20684 2.80576 3.00732 2.56003 1.56536 1.12452 1.02617 1.00174 1.00001 1 1 1 0.0819947 0.0895882 0.0951321 0.109263 0.12979 0.153893 0.183752 0.219231 0.261721 0.312833 0.375391 0.453482 0.553853 0.686333 0.869668 1.1272 1.50653 2.05953 2.66898 3.03674 2.85558 1.91989 1.22741 1.05248 1.0065 1.00011 1 1 1 1 0.104623 0.11347 0.12052 0.138094 0.163299 0.192638 0.22888 0.271663 0.323265 0.385329 0.462382 0.55959 0.686782 0.858549 1.09806 1.44694 1.94809 2.56477 3.04264 3.03152 2.21576 1.3558 1.08764 1.01652 1.00077 1 1 1 1 1 0.135253 0.145137 0.154066 0.175594 0.206668 0.242406 0.28684 0.339367 0.402801 0.480341 0.577166 0.702629 0.869971 1.0986 1.42342 1.89538 2.49324 2.99422 3.08996 2.46568 1.54466 1.13132 1.03082 1.00268 1.00003 1 1 1 1 1 0.177626 0.188275 0.199361 0.225485 0.263583 0.307924 0.363168 0.428855 0.509212 0.608369 0.735663 0.901672 1.12882 1.44726 1.89583 2.45699 2.99409 3.14121 2.65574 1.68568 1.17516 1.04777 1.00614 1.00013 1 1 1 1 1 1 0.237372 0.248512 0.26195 0.293433 0.340533 0.395775 0.466169 0.55058 0.655108 0.787604 0.959139 1.18993 1.50545 1.94681 2.49346 2.99447 3.12408 2.72211 1.78169 1.23016 1.06267 1.01044 1.00039 1 1 1 1 1 1 1 0.323168 0.334549 0.350619 0.388192 0.447058 0.518515 0.609426 0.72332 0.86457 1.04938 1.28829 1.61744 2.05973 2.56408 2.99397 3.14085 2.72168 1.849 1.25058 1.07193 1.01491 1.00083 1.00001 1 1 1 1 1 1 1 0.44932 0.459534 0.479871 0.524433 0.599542 0.6942 0.817009 0.974546 1.17124 1.43676 1.77885 2.20816 2.66973 3.04259 3.08905 2.65487 1.78162 1.25051 1.07787 1.01734 1.00124 1.00001 1 1 1 1 1 1 1 1 0.640673 0.644533 0.674307 0.728114 0.825954 0.955106 1.12298 1.35217 1.63289 1.99788 2.39676 2.80663 3.03705 3.03167 2.46721 1.68583 1.2302 1.07189 1.01734 1.00146 1.00002 1 1 1 1 1 1 1 1 1 0.937225 0.926819 0.974433 1.0435 1.1675 1.34891 1.58272 1.89749 2.23148 2.60148 2.88394 3.00792 2.85551 2.21632 1.54482 1.17517 1.0627 1.01491 1.00124 1.00002 1 1 1 1 1 1 1 1 1 1 1.38228 1.36359 1.42754 1.51302 1.66534 1.89319 2.16395 2.48626 2.75072 2.92544 2.92509 2.55977 1.91984 1.35593 1.13139 1.04779 1.01043 1.00084 1.00001 1 1 1 1 1 1 1 1 1 1 1 1.97363 1.95151 2.02803 2.08736 2.23978 2.45283 2.65643 2.80933 2.83425 2.64525 2.14754 1.56514 1.22734 1.08764 1.03081 1.00615 1.00039 1.00001 1 1 1 1 1 1 1 1 1 1 1 1 2.56025 2.51457 2.57722 2.55107 2.59042 2.64844 2.68491 2.55926 2.18499 1.67705 1.29511 1.12448 1.05245 1.01651 1.00268 1.00013 1 1 1 1 1 1 1 1 1 1 1 1 1 1 2.59843 2.54723 2.55938 2.48352 2.39307 2.25602 1.98266 1.62206 1.29701 1.13985 1.06421 1.02616 1.0065 1.00077 1.00003 1 1 1 1 1 1 1 1 1 1 1 1 1 1 1 1.96977 1.93404 1.83695 1.72793 1.56027 1.37076 1.20638 1.12035 1.0623 1.02832 1.00885 1.00174 1.00011 1 1 1 1 1 1 1 1 1 1 1 1 1 1 1 1 1 1.16535 1.16566 1.1491 1.12983 1.08963 1.06622 1.04062 1.0212 1.0079 1.00194 1.0002 1.00001 1 1 1 1 1 1 1 1 1 1 1 1 1 1 1 1 1 1 1.02537 1.02591 1.02435 1.0212 1.01422 1.0087 1.00385 1.00105 1.00014 1.00001 1 1 1 1 1 1 1 1 1 1 1 1 1 1 1 1 1 1 1 1 1.00108 1.00109 1.00097 1.00072 1.00042 1.00015 1.00002 1 1 1 1 1 1 1 1 1 1 1 1 1 1 1 1 1 1 1 1 1 1 1 1 1 1 1 1 1 1 1 1 1 1 1 1 1 1 1 1 1 1 1 1 1 1 1 1 1 1 1 1 1
				</DataArray>
				<DataArray Name="Energy" type="Float32" format="ascii">
 24.6243 22.9524 19.8197 16.0709 12.6672 9.92161 7.80204 6.18245 4.93262 3.9533 3.17314 2.54311 2.02893 1.60705 1.26095 0.97886 0.751573 0.571348 0.431359 0.32527 0.246487 0.187761 0.142584 0.106282 0.0704857 0.0326403 0.00305239 3.47921e-05 2.51827e-06 2.5e-06 22.9477 21.4612 18.7621 15.3202 12.0634 9.38226 7.30215 5.72356 4.52279 3.59923 2.87773 2.30566 1.84575 1.47166 1.16506 0.913463 0.708182 0.543177 0.413242 0.313126 0.237694 0.181799 0.138772 0.103235 0.0678075 0.0307217 0.00282502 3.31734e-05 2.51772e-06 2.5e-06 19.8133 18.7578 16.8748 14.1473 11.3523 8.92353 6.97153 5.46394 4.30881 3.42035 2.72856 2.18288 1.74654 1.39398 1.1068 0.872224 0.681431 0.527717 0.405754 0.310542 0.237008 0.180525 0.136468 0.100524 0.0644417 0.0268563 0.0021125 2.42459e-05 2.51183e-06 2.5e-06 16.0654 15.3144 14.1413 12.1033 9.85804 7.82375 6.13303 4.80471 3.77844 2.98925 2.37765 1.89916 1.52032 1.21662 0.971243 0.772005 0.610266 0.479345 0.373866 0.290108 0.224776 0.173916 0.132558 0.0975274 0.0614287 0.0235271 0.00157124 1.63972e-05 2.50605e-06 2.5e-06 12.6635 12.0589 11.3434 9.8517 8.11202 6.49447 5.11596 4.018 3.16333 2.50465 1.99501 1.5976 1.28415 1.03374 0.831545 0.667277 0.533158 0.423939 0.335446 0.264349 0.207691 0.1627 0.124801 0.0910588 0.0554029 0.0179912 0.000870166 8.0257e-06 2.50181e-06 2.5e-06 9.91958 9.38045 8.91639 7.81723 6.49172 5.24575 4.16726 3.29828 2.61523 2.0845 1.67059 1.3458 1.08808 0.881403 0.713933 0.577214 0.465296 0.373697 0.298955 0.238418 0.189312 0.149261 0.114409 0.0815595 0.045756 0.0103085 0.000290972 3.46941e-06 2.50028e-06 2.5e-06 7.80035 7.30115 6.96596 6.1274 5.11272 4.16504 3.33868 2.66819 2.13566 1.7178 1.38846 1.12719 0.918029 0.748981 0.611006 0.497794 0.404271 0.327355 0.264022 0.212135 0.169885 0.134019 0.101918 0.0695813 0.0326075 0.00373317 5.73103e-05 2.58514e-06 2.50003e-06 2.5e-06 6.18114 5.72316 5.45977 4.80006 4.01447 3.29486 2.66609 2.15332 1.74209 1.41573 1.15547 0.946528 0.776995 0.638688 0.524766 0.430516 0.352285 0.287362 0.233534 0.189054 0.152263 0.119317 0.0884281 0.0552645 0.0180053 0.000855874 8.17253e-06 2.50452e-06 2.5e-06 2.5e-06 4.9317 4.52278 4.30602 3.7754 3.16037 2.61112 2.13205 1.74019 1.4231 1.16872 0.963342 0.79644 0.659423 0.546067 0.451956 0.373407 0.307519 0.252531 0.206278 0.167867 0.134729 0.104047 0.0732827 0.0377505 0.00584384 0.00012196 2.81706e-06 2.5002e-06 2.5e-06 2.5e-06 3.95265 3.59943 3.41865 2.98759 2.50292 2.08112 1.714 1.41289 1.16748 0.968517 0.805994 0.672251 0.561138 0.468289 0.390145 0.324503 0.269156 0.222321 0.182685 0.149285 0.118466 0.0888668 0.0564392 0.0191914 0.0010439 1.08913e-05 2.5103e-06 2.50001e-06 2.5e-06 2.5e-06 3.17282 2.87818 2.72779 2.37745 1.99491 1.66887 1.3858 1.153 0.96175 0.805399 0.676312 0.568822 0.478467 0.402085 0.337341 0.282224 0.235353 0.195356 0.161015 0.130748 0.101585 0.0716164 0.035632 0.00521033 0.000108734 2.81276e-06 2.50031e-06 2.5e-06 2.5e-06 2.5e-06 2.5429 2.30609 2.18251 1.89962 1.5985 1.34564 1.12601 0.944974 0.795213 0.671536 0.568557 0.481891 0.408262 0.345254 0.29134 0.245167 0.205272 0.171056 0.141112 0.112748 0.0839045 0.0510014 0.0146432 0.000648304 7.21257e-06 2.50723e-06 2.50001e-06 2.5e-06 2.5e-06 2.5e-06 2.02879 1.84601 1.74629 1.52074 1.28519 1.08868 0.917945 0.776515 0.658845 0.560739 0.478248 0.408202 0.348204 0.296197 0.251287 0.212314 0.178419 0.148907 0.121334 0.0937587 0.0634547 0.0266299 0.00269696 4.3021e-05 2.60584e-06 2.50015e-06 2.5e-06 2.5e-06 2.5e-06 2.5e-06 1.60695 1.47182 1.39367 1.21675 1.0344 0.882034 0.749288 0.638666 0.546048 0.468192 0.402089 0.345261 0.296241 0.253519 0.215879 0.182977 0.154259 0.127618 0.101245 0.0725768 0.0376028 0.00680071 0.000193756 3.45189e-06 2.50179e-06 2.5e-06 2.5e-06 2.5e-06 2.5e-06 2.5e-06 1.26085 1.16513 1.10655 0.971092 0.831759 0.714227 0.611237 0.52488 0.452015 0.390255 0.337411 0.291522 0.251363 0.215943 0.184663 0.156796 0.131267 0.106062 0.0790556 0.0465941 0.0125167 0.00060513 7.82611e-06 2.51431e-06 2.50003e-06 2.5e-06 2.5e-06 2.5e-06 2.5e-06 2.5e-06 0.978785 0.913478 0.872051 0.771879 0.667206 0.577272 0.497799 0.430499 0.373457 0.324551 0.282293 0.245275 0.212504 0.183037 0.156805 0.132627 0.108692 0.0832212 0.0526546 0.0177761 0.00137878 2.15115e-05 2.56755e-06 2.50016e-06 2.5e-06 2.5e-06 2.5e-06 2.5e-06 2.5e-06 2.5e-06 0.751507 0.708166 0.68129 0.610171 0.533137 0.465202 0.404258 0.352097 0.307389 0.26908 0.235259 0.205253 0.178397 0.15424 0.131295 0.108682 0.0842763 0.0555995 0.0215666 0.00234586 4.791e-05 2.71304e-06 2.50067e-06 2.5e-06 2.5e-06 2.5e-06 2.5e-06 2.5e-06 2.5e-06 2.5e-06 0.571294 0.543149 0.527637 0.47925 0.423905 0.373661 0.327303 0.287343 0.25242 0.222291 0.195263 0.171092 0.14892 0.127603 0.106073 0.0832267 0.0555967 0.0229809 0.00293904 7.75958e-05 2.97703e-06 2.50195e-06 2.50001e-06 2.5e-06 2.5e-06 2.5e-06 2.5e-06 2.5e-06 2.5e-06 2.5e-06 0.431319 0.413207 0.405697 0.37382 0.335419 0.298952 0.264085 0.233569 0.206299 0.182677 0.161005 0.141127 0.121331 0.10126 0.0790666 0.0526545 0.0215614 0.00293819 9.14749e-05 3.19573e-06 2.50369e-06 2.50002e-06 2.5e-06 2.5e-06 2.5e-06 2.5e-06 2.5e-06 2.5e-06 2.5e-06 2.5e-06 0.325242 0.313099 0.310506 0.290069 0.264354 0.238332 0.212101 0.189057 0.167858 0.149282 0.130743 0.112761 0.0937543 0.0725817 0.0466167 0.0177834 0.00234657 7.74365e-05 3.19647e-06 2.50465e-06 2.50002e-06 2.5e-06 2.5e-06 2.5e-06 2.5e-06 2.5e-06 2.5e-06 2.5e-06 2.5e-06 2.5e-06 0.246465 0.237672 0.236987 0.224743 0.207703 0.189305 0.169862 0.152285 0.13471 0.118458 0.10158 0.0839083 0.0634573 0.0376086 0.0125263 0.0013786 4.79594e-05 2.97742e-06 2.50368e-06 2.50002e-06 2.5e-06 2.5e-06 2.5e-06 2.5e-06 2.5e-06 2.5e-06 2.5e-06 2.5e-06 2.5e-06 2.5e-06 0.187747 0.181779 0.180509 0.173899 0.162695 0.149241 0.133991 0.119318 0.104031 0.0888592 0.0716131 0.0510049 0.026637 0.00680162 0.000605957 2.15409e-05 2.71274e-06 2.50195e-06 2.50002e-06 2.5e-06 2.5e-06 2.5e-06 2.5e-06 2.5e-06 2.5e-06 2.5e-06 2.5e-06 2.5e-06 2.5e-06 2.5e-06 0.142574 0.138758 0.136457 0.132547 0.124793 0.114402 0.101902 0.0884287 0.0732759 0.0564258 0.0356269 0.0146385 0.00269742 0.000193972 7.81815e-06 2.56763e-06 2.50067e-06 2.50001e-06 2.5e-06 2.5e-06 2.5e-06 2.5e-06 2.5e-06 2.5e-06 2.5e-06 2.5e-06 2.5e-06 2.5e-06 2.5e-06 2.5e-06 0.106275 0.103226 0.100514 0.0975227 0.0910482 0.081559 0.0695721 0.0552584 0.0377588 0.0191826 0.00520767 0.000647934 4.29389e-05 3.45177e-06 2.51434e-06 2.50016e-06 2.5e-06 2.5e-06 2.5e-06 2.5e-06 2.5e-06 2.5e-06 2.5e-06 2.5e-06 2.5e-06 2.5e-06 2.5e-06 2.5e-06 2.5e-06 2.5e-06 0.0704798 0.0678002 0.0644328 0.0614261 0.0553929 0.0457529 0.0325939 0.0180036 0.00584797 0.00104398 0.000108585 7.20724e-06 2.60587e-06 2.50178e-06 2.50003e-06 2.5e-06 2.5e-06 2.5e-06 2.5e-06 2.5e-06 2.5e-06 2.5e-06 2.5e-06 2.5e-06 2.5e-06 2.5e-06 2.5e-06 2.5e-06 2.5e-06 2.5e-06 0.0326335 0.0307154 0.0268489 0.0235254 0.0179862 0.0103073 0.00373349 0.000855619 0.00012192 1.08899e-05 2.81283e-06 2.50722e-06 2.50015e-06 2.5e-06 2.5e-06 2.5e-06 2.5e-06 2.5e-06 2.5e-06 2.5e-06 2.5e-06 2.5e-06 2.5e-06 2.5e-06 2.5e-06 2.5e-06 2.5e-06 2.5e-06 2.5e-06 2.5e-06 0.00305096 0.00282369 0.00211131 0.00157094 0.000869907 0.00029093 5.73166e-05 8.17328e-06 2.81712e-06 2.51028e-06 2.50031e-06 2.50001e-06 2.5e-06 2.5e-06 2.5e-06 2.5e-06 2.5e-06 2.5e-06 2.5e-06 2.5e-06 2.5e-06 2.5e-06 2.5e-06 2.5e-06 2.5e-06 2.5e-06 2.5e-06 2.5e-06 2.5e-06 2.5e-06 3.4776e-05 3.31547e-05 2.42275e-05 1.63906e-05 8.02371e-06 3.46925e-06 2.58515e-06 2.50452e-06 2.5002e-06 2.50001e-06 2.5e-06 2.5e-06 2.5e-06 2.5e-06 2.5e-06 2.5e-06 2.5e-06 2.5e-06 2.5e-06 2.5e-06 2.5e-06 2.5e-06 2.5e-06 2.5e-06 2.5e-06 2.5e-06 2.5e-06 2.5e-06 2.5e-06 2.5e-06 2.51825e-06 2.51771e-06 2.51181e-06 2.50604e-06 2.50181e-06 2.50028e-06 2.50003e-06 2.5e-06 2.5e-06 2.5e-06 2.5e-06 2.5e-06 2.5e-06 2.5e-06 2.5e-06 2.5e-06 2.5e-06 2.5e-06 2.5e-06 2.5e-06 2.5e-06 2.5e-06 2.5e-06 2.5e-06 2.5e-06 2.5e-06 2.5e-06 2.5e-06 2.5e-06 2.5e-06 2.5e-06 2.5e-06 2.5e-06 2.5e-06 2.5e-06 2.5e-06 2.5e-06 2.5e-06 2.5e-06 2.5e-06 2.5e-06 2.5e-06 2.5e-06 2.5e-06 2.5e-06 2.5e-06 2.5e-06 2.5e-06 2.5e-06 2.5e-06 2.5e-06 2.5e-06 2.5e-06 2.5e-06 2.5e-06 2.5e-06 2.5e-06 2.5e-06 2.5e-06 2.5e-06
				</DataArray>
				<DataArray Name="F1" type="Float32" format="ascii">
 1 1 1 1 1 1 1 1 1 1 1 1 1 1 1 1 1 1 1 1 1 1 1 1 1 1 1 1 1 1 1 1 1 1 1 1 1 1 1 1 1 1 1 1 1 1 1 1 1 1 1 1 1 1 1 1 1 1 1 1 1 1 1 1 1 1 1 1 1 1 1 1 1 1 1 1 1 1 1 1 1 1 1 1 1 1 1 1 1 1 1 1 1 1 1 1 1 1 1 1 1 1 1 1 1 1 1 1 1 1 1 1 1 1 1 1 1 1 1 1 1 1 1 1 1 1 1 1 1 1 1 1 1 1 1 1 1 1 1 1 1 1 1 1 1 1 1 1 1 1 1 1 1 1 1 1 1 1 1 1 1 1 1 1 1 1 1 1 1 1 1 1 1 1 1 1 1 1 1 1 1 1 1 1 1 1 1 1 1 1 1 1 1 1 1 1 1 1 1 1 1 1 1 1 1 1 1 1 1 1 1 1 1 1 1 1 1 1 1 1 1 1 1 1 1 1 1 1 1 1 1 1 1 1 1 1 1 1 1 1 1 1 1 1 1 1 1 1 1 1 1 1 1 1 1 1 1 1 1 1 1 1 1 1 1 1 1 1 1 1 1 1 1 1 1 1 1 1 1 1 1 1 1 1 1 1 1 1 1 1 1 1 1 1 1 1 1 1 1 1 1 1 1 1 1 1 1 1 1 1 1 1 1 1 1 1 1 1 1 1 1 1 1 1 1 1 1 1 1 1 1 1 1 1 1 1 1 1 1 1 1 1 1 1 1 1 1 1 1 1 1 1 1 1 1 1 1 1 1 1 1 1 1 1 1 1 1 1 1 1 1 1 1 1 1 1 1 1 1 1 1 1 1 1 1 1 1 1 1 1 1 1 1 1 1 1 1 1 1 1 1 1 1 1 1 1 1 1 1 1 1 1 1 1 1 1 1 1 1 1 1 1 1 1 1 1 1 1 1 1 1 1 1 1 1 1 1 1 1 1 1 1 1 1 1 1 1 1 1 1 1 1 1 1 1 1 1 1 1 1 1 1 1 1 1 1 1 1 1 1 1 1 1 1 1 1 1 1 1 1 1 1 1 1 1 1 1 1 1 1 1 1 1 1 1 1 1 1 1 1 1 1 1 1 1 1 1 1 1 1 1 1 1 1 1 1 1 1 1 1 1 1 1 1 1 1 1 1 1 1 1 1 1 1 1 1 1 1 1 1 1 1 1 1 1 1 1 1 1 1 1 1 1 1 1 1 1 1 1 1 1 1 1 1 1 1 1 1 1 1 1 1 1 1 1 1 1 1 1 1 1 1 1 1 1 1 1 1 1 1 1 1 1 1 1 1 1 1 1 1 1 1 1 1 1 1 1 1 1 1 1 1 1 1 1 1 1 1 1 1 1 1 1 1 1 1 1 1 1 1 1 1 1 1 1 1 1 1 1 1 1 1 1 1 1 1 1 1 1 1 1 1 1 1 1 1 1 1 1 1 1 1 1 1 1 1 1 1 1 1 1 1 1 1 1 1 1 1 1 1 1 1 1 1 1 1 1 1 1 1 1 1 1 1 1 1 1 1 1 1 1 1 1 1 1 1 1 1 1 1 1 1 1 1 1 1 1 1 1 1 1 1 1 1 1 1 1 1 1 1 1 1 1 1 1 1 1 1 1 1 1 1 1 1 1 1 1 1 1 1 1 1 1 1 1 1 1 1 1 1 1 1 1 1 1 1 1 1 1 1 1 1 1 1 1 1 1 1 1 1 1 1 1 1 1 1 1 1 1 1 1 1 1 1 1 1 1 1 1 1 1 1 1 1 1 1 1 1 1 1 1 1 1 1 1 1 1 1 1 1 1 1 1 1 1 1 1 1 1 1 1 1 1 1 1 1 1 1 1 1 1 1 1 1 1 1 1 1 1 1 1 1 1 1 1 1 1 1 1 1 1 1 1 1 1 1 1 1 1 1 1 1 1 1 1 1 1 1 1 1 1 1 1 1 1 1 1 1 1 1 1 1 1 1 1 1 1 1 1 1
				</DataArray>
				<DataArray Name="F2" type="Float32" format="ascii">
 0 0 0 0 0 0 0 0 0 0 0 0 0 0 0 0 0 0 0 0 0 0 0 0 0 0 0 0 0 0 0 0 0 0 0 0 0 0 0 0 0 0 0 0 0 0 0 0 0 0 0 0 0 0 0 0 0 0 0 0 0 0 0 0 0 0 0 0 0 0 0 0 0 0 0 0 0 0 0 0 0 0 0 0 0 0 0 0 0 0 0 0 0 0 0 0 0 0 0 0 0 0 0 0 0 0 0 0 0 0 0 0 0 0 0 0 0 0 0 0 0 0 0 0 0 0 0 0 0 0 0 0 0 0 0 0 0 0 0 0 0 0 0 0 0 0 0 0 0 0 0 0 0 0 0 0 0 0 0 0 0 0 0 0 0 0 0 0 0 0 0 0 0 0 0 0 0 0 0 0 0 0 0 0 0 0 0 0 0 0 0 0 0 0 0 0 0 0 0 0 0 0 0 0 0 0 0 0 0 0 0 0 0 0 0 0 0 0 0 0 0 0 0 0 0 0 0 0 0 0 0 0 0 0 0 0 0 0 0 0 0 0 0 0 0 0 0 0 0 0 0 0 0 0 0 0 0 0 0 0 0 0 0 0 0 0 0 0 0 0 0 0 0 0 0 0 0 0 0 0 0 0 0 0 0 0 0 0 0 0 0 0 0 0 0 0 0 0 0 0 0 0 0 0 0 0 0 0 0 0 0 0 0 0 0 0 0 0 0 0 0 0 0 0 0 0 0 0 0 0 0 0 0 0 0 0 0 0 0 0 0 0 0 0 0 0 0 0 0 0 0 0 0 0 0 0 0 0 0 0 0 0 0 0 0 0 0 0 0 0 0 0 0 0 0 0 0 0 0 0 0 0 0 0 0 0 0 0 0 0 0 0 0 0 0 0 0 0 0 0 0 0 0 0 0 0 0 0 0 0 0 0 0 0 0 0 0 0 0 0 0 0 0 0 0 0 0 0 0 0 0 0 0 0 0 0 0 0 0 0 0 0 0 0 0 0 0 0 0 0 0 0 0 0 0 0 0 0 0 0 0 0 0 0 0 0 0 0 0 0 0 0 0 0 0 0 0 0 0 0 0 0 0 0 0 0 0 0 0 0 0 0 0 0 0 0 0 0 0 0 0 0 0 0 0 0 0 0 0 0 0 0 0 0 0 0 0 0 0 0 0 0 0 0 0 0 0 0 0 0 0 0 0 0 0 0 0 0 0 0 0 0 0 0 0 0 0 0 0 0 0 0 0 0 0 0 0 0 0 0 0 0 0 0 0 0 0 0 0 0 0 0 0 0 0 0 0 0 0 0 0 0 0 0 0 0 0 0 0 0 0 0 0 0 0 0 0 0 0 0 0 0 0 0 0 0 0 0 0 0 0 0 0 0 0 0 0 0 0 0 0 0 0 0 0 0 0 0 0 0 0 0 0 0 0 0 0 0 0 0 0 0 0 0 0 0 0 0 0 0 0 0 0 0 0 0 0 0 0 0 0 0 0 0 0 0 0 0 0 0 0 0 0 0 0 0 0 0 0 0 0 0 0 0 0 0 0 0 0 0 0 0 0 0 0 0 0 0 0 0 0 0 0 0 0 0 0 0 0 0 0 0 0 0 0 0 0 0 0 0 0 0 0 0 0 0 0 0 0 0 0 0 0 0 0 0 0 0 0 0 0 0 0 0 0 0 0 0 0 0 0 0 0 0 0 0 0 0 0 0 0 0 0 0 0 0 0 0 0 0 0 0 0 0 0 0 0 0 0 0 0 0 0 0 0 0 0 0 0 0 0 0 0 0 0 0 0 0 0 0 0 0 0 0 0 0 0 0 0 0 0 0 0 0 0 0 0 0 0 0 0 0 0 0 0 0 0 0 0 0 0 0 0 0 0 0 0 0 0 0 0 0 0 0 0 0 0 0 0 0 0 0 0 0 0 0 0 0 0 0 0 0 0 0 0 0 0 0 0 0 0 0 0 0 0 0 0 0 0 0 0 0 0 0 0 0 0 0 0 0 0 0 0 0 0 0 0 0 0 0
				</DataArray>
				<DataArray Name="F3" type="Float32" format="ascii">