<?xml version="1.0"?>
<VTKFile type="PolyData">
	<PolyData>
		<Piece NumberOfPoints="961" NumberOfPolys="900">
			<Points>
				<DataArray type="Float32" NumberOfComponents="3" format="ascii">
 0 0 0 0.04 0 0 0.08 0 0 0.12 0 0 0.16 0 0 0.2 0 0 0.24 0 0 0.28 0 0 0.32 0 0 0.36 0 0 0.4 0 0 0.44 0 0 0.48 0 0 0.52 0 0 0.56 0 0 0.6 0 0 0.64 0 0 0.68 0 0 0.72 0 0 0.76 0 0 0.8 0 0 0.84 0 0 0.88 0 0 0.92 0 0 0.96 0 0 1 0 0 1.04 0 0 1.08 0 0 1.12 0 0 1.16 0 0 1.2 0 0 0 0.04 0 0.04 0.04 0 0.08 0.04 0 0.12 0.04 0 0.16 0.04 0 0.2 0.04 0 0.24 0.04 0 0.28 0.04 0 0.32 0.04 0 0.36 0.04 0 0.4 0.04 0 0.44 0.04 0 0.48 0.04 0 0.52 0.04 0 0.56 0.04 0 0.6 0.04 0 0.64 0.04 0 0.68 0.04 0 0.72 0.04 0 0.76 0.04 0 0.8 0.04 0 0.84 0.04 0 0.88 0.04 0 0.92 0.04 0 0.96 0.04 0 1 0.04 0 1.04 0.04 0 1.08 0.04 0 1.12 0.04 0 1.16 0.04 0 1.2 0.04 0 0 0.08 0 0.04 0.08 0 0.08 0.08 0 0.12 0.08 0 0.16 0.08 0 0.2 0.08 0 0.24 0.08 0 0.28 0.08 0 0.32 0.08 0 0.36 0.08 0 0.4 0.08 0 0.44 0.08 0 0.48 0.08 0 0.52 0.08 0 0.56 0.08 0 0.6 0.08 0 0.64 0.08 0 0.68 0.08 0 0.72 0.08 0 0.76 0.08 0 0.8 0.08 0 0.84 0.08 0 0.88 0.08 0 0.92 0.08 0 0.96 0.08 0 1 0.08 0 1.04 0.08 0 1.08 0.08 0 1.12 0.08 0 1.16 0.08 0 1.2 0.08 0 0 0.12 0 0.04 0.12 0 0.08 0.12 0 0.12 0.12 0 0.16 0.12 0 0.2 0.12 0 0.24 0.12 0 0.28 0.12 0 0.32 0.12 0 0.36 0.12 0 0.4 0.12 0 0.44 0.12 0 0.48 0.12 0 0.52 0.12 0 0.56 0.12 0 0.6 0.12 0 0.64 0.12 0 0.68 0.12 0 0.72 0.12 0 0.76 0.12 0 0.8 0.12 0 0.84 0.12 0 0.88 0.12 0 0.92 0.12 0 0.96 0.12 0 1 0.12 0 1.04 0.12 0 1.08 0.12 0 1.12 0.12 0 1.16 0.12 0 1.2 0.12 0 0 0.16 0 0.04 0.16 0 0.08 0.16 0 0.12 0.16 0 0.16 0.16 0 0.2 0.16 0 0.24 0.16 0 0.28 0.16 0 0.32 0.16 0 0.36 0.16 0 0.4 0.16 0 0.44 0.16 0 0.48 0.16 0 0.52 0.16 0 0.56 0.16 0 0.6 0.16 0 0.64 0.16 0 0.68 0.16 0 0.72 0.16 0 0.76 0.16 0 0.8 0.16 0 0.84 0.16 0 0.88 0.16 0 0.92 0.16 0 0.96 0.16 0 1 0.16 0 1.04 0.16 0 1.08 0.16 0 1.12 0.16 0 1.16 0.16 0 1.2 0.16 0 0 0.2 0 0.04 0.2 0 0.08 0.2 0 0.12 0.2 0 0.16 0.2 0 0.2 0.2 0 0.24 0.2 0 0.28 0.2 0 0.32 0.2 0 0.36 0.2 0 0.4 0.2 0 0.44 0.2 0 0.48 0.2 0 0.52 0.2 0 0.56 0.2 0 0.6 0.2 0 0.64 0.2 0 0.68 0.2 0 0.72 0.2 0 0.76 0.2 0 0.8 0.2 0 0.84 0.2 0 0.88 0.2 0 0.92 0.2 0 0.96 0.2 0 1 0.2 0 1.04 0.2 0 1.08 0.2 0 1.12 0.2 0 1.16 0.2 0 1.2 0.2 0 0 0.24 0 0.04 0.24 0 0.08 0.24 0 0.12 0.24 0 0.16 0.24 0 0.2 0.24 0 0.24 0.24 0 0.28 0.24 0 0.32 0.24 0 0.36 0.24 0 0.4 0.24 0 0.44 0.24 0 0.48 0.24 0 0.52 0.24 0 0.56 0.24 0 0.6 0.24 0 0.64 0.24 0 0.68 0.24 0 0.72 0.24 0 0.76 0.24 0 0.8 0.24 0 0.84 0.24 0 0.88 0.24 0 0.92 0.24 0 0.96 0.24 0 1 0.24 0 1.04 0.24 0 1.08 0.24 0 1.12 0.24 0 1.16 0.24 0 1.2 0.24 0 0 0.28 0 0.04 0.28 0 0.08 0.28 0 0.12 0.28 0 0.16 0.28 0 0.2 0.28 0 0.24 0.28 0 0.28 0.28 0 0.32 0.28 0 0.36 0.28 0 0.4 0.28 0 0.44 0.28 0 0.48 0.28 0 0.52 0.28 0 0.56 0.28 0 0.6 0.28 0 0.64 0.28 0 0.68 0.28 0 0.72 0.28 0 0.76 0.28 0 0.8 0.28 0 0.84 0.28 0 0.88 0.28 0 0.92 0.28 0 0.96 0.28 0 1 0.28 0 1.04 0.28 0 1.08 0.28 0 1.12 0.28 0 1.16 0.28 0 1.2 0.28 0 0 0.32 0 0.04 0.32 0 0.08 0.32 0 0.12 0.32 0 0.16 0.32 0 0.2 0.32 0 0.24 0.32 0 0.28 0.32 0 0.32 0.32 0 0.36 0.32 0 0.4 0.32 0 0.44 0.32 0 0.48 0.32 0 0.52 0.32 0 0.56 0.32 0 0.6 0.32 0 0.64 0.32 0 0.68 0.32 0 0.72 0.32 0 0.76 0.32 0 0.8 0.32 0 0.84 0.32 0 0.88 0.32 0 0.92 0.32 0 0.96 0.32 0 1 0.32 0 1.04 0.32 0 1.08 0.32 0 1.12 0.32 0 1.16 0.32 0 1.2 0.32 0 0 0.36 0 0.04 0.36 0 0.08 0.36 0 0.12 0.36 0 0.16 0.36 0 0.2 0.36 0 0.24 0.36 0 0.28 0.36 0 0.32 0.36 0 0.36 0.36 0 0.4 0.36 0 0.44 0.36 0 0.48 0.36 0 0.52 0.36 0 0.56 0.36 0 0.6 0.36 0 0.64 0.36 0 0.68 0.36 0 0.72 0.36 0 0.76 0.36 0 0.8 0.36 0 0.84 0.36 0 0.88 0.36 0 0.92 0.36 0 0.96 0.36 0 1 0.36 0 1.04 0.36 0 1.08 0.36 0 1.12 0.36 0 1.16 0.36 0 1.2 0.36 0 0 0.4 0 0.04 0.4 0 0.08 0.4 0 0.12 0.4 0 0.16 0.4 0 0.2 0.4 0 0.24 0.4 0 0.28 0.4 0 0.32 0.4 0 0.36 0.4 0 0.4 0.4 0 0.44 0.4 0 0.48 0.4 0 0.52 0.4 0 0.56 0.4 0 0.6 0.4 0 0.64 0.4 0 0.68 0.4 0 0.72 0.4 0 0.76 0.4 0 0.8 0.4 0 0.84 0.4 0 0.88 0.4 0 0.92 0.4 0 0.96 0.4 0 1 0.4 0 1.04 0.4 0 1.08 0.4 0 1.12 0.4 0 1.16 0.4 0 1.2 0.4 0 0 0.44 0 0.04 0.44 0 0.08 0.44 0 0.12 0.44 0 0.16 0.44 0 0.2 0.44 0 0.24 0.44 0 0.28 0.44 0 0.32 0.44 0 0.36 0.44 0 0.4 0.44 0 0.44 0.44 0 0.48 0.44 0 0.52 0.44 0 0.56 0.44 0 0.6 0.44 0 0.64 0.44 0 0.68 0.44 0 0.72 0.44 0 0.76 0.44 0 0.8 0.44 0 0.84 0.44 0 0.88 0.44 0 0.92 0.44 0 0.96 0.44 0 1 0.44 0 1.04 0.44 0 1.08 0.44 0 1.12 0.44 0 1.16 0.44 0 1.2 0.44 0 0 0.48 0 0.04 0.48 0 0.08 0.48 0 0.12 0.48 0 0.16 0.48 0 0.2 0.48 0 0.24 0.48 0 0.28 0.48 0 0.32 0.48 0 0.36 0.48 0 0.4 0.48 0 0.44 0.48 0 0.48 0.48 0 0.52 0.48 0 0.56 0.48 0 0.6 0.48 0 0.64 0.48 0 0.68 0.48 0 0.72 0.48 0 0.76 0.48 0 0.8 0.48 0 0.84 0.48 0 0.88 0.48 0 0.92 0.48 0 0.96 0.48 0 1 0.48 0 1.04 0.48 0 1.08 0.48 0 1.12 0.48 0 1.16 0.48 0 1.2 0.48 0 0 0.52 0 0.04 0.52 0 0.08 0.52 0 0.12 0.52 0 0.16 0.52 0 0.2 0.52 0 0.24 0.52 0 0.28 0.52 0 0.32 0.52 0 0.36 0.52 0 0.4 0.52 0 0.44 0.52 0 0.48 0.52 0 0.52 0.52 0 0.56 0.52 0 0.6 0.52 0 0.64 0.52 0 0.68 0.52 0 0.72 0.52 0 0.76 0.52 0 0.8 0.52 0 0.84 0.52 0 0.88 0.52 0 0.92 0.52 0 0.96 0.52 0 1 0.52 0 1.04 0.52 0 1.08 0.52 0 1.12 0.52 0 1.16 0.52 0 1.2 0.52 0 0 0.56 0 0.04 0.56 0 0.08 0.56 0 0.12 0.56 0 0.16 0.56 0 0.2 0.56 0 0.24 0.56 0 0.28 0.56 0 0.32 0.56 0 0.36 0.56 0 0.4 0.56 0 0.44 0.56 0 0.48 0.56 0 0.52 0.56 0 0.56 0.56 0 0.6 0.56 0 0.64 0.56 0 0.68 0.56 0 0.72 0.56 0 0.76 0.56 0 0.8 0.56 0 0.84 0.56 0 0.88 0.56 0 0.92 0.56 0 0.96 0.56 0 1 0.56 0 1.04 0.56 0 1.08 0.56 0 1.12 0.56 0 1.16 0.56 0 1.2 0.56 0 0 0.6 0 0.04 0.6 0 0.08 0.6 0 0.12 0.6 0 0.16 0.6 0 0.2 0.6 0 0.24 0.6 0 0.28 0.6 0 0.32 0.6 0 0.36 0.6 0 0.4 0.6 0 0.44 0.6 0 0.48 0.6 0 0.52 0.6 0 0.56 0.6 0 0.6 0.6 0 0.64 0.6 0 0.68 0.6 0 0.72 0.6 0 0.76 0.6 0 0.8 0.6 0 0.84 0.6 0 0.88 0.6 0 0.92 0.6 0 0.96 0.6 0 1 0.6 0 1.04 0.6 0 1.08 0.6 0 1.12 0.6 0 1.16 0.6 0 1.2 0.6 0 0 0.64 0 0.04 0.64 0 0.08 0.64 0 0.12 0.64 0 0.16 0.64 0 0.2 0.64 0 0.24 0.64 0 0.28 0.64 0 0.32 0.64 0 0.36 0.64 0 0.4 0.64 0 0.44 0.64 0 0.48 0.64 0 0.52 0.64 0 0.56 0.64 0 0.6 0.64 0 0.64 0.64 0 0.68 0.64 0 0.72 0.64 0 0.76 0.64 0 0.8 0.64 0 0.84 0.64 0 0.88 0.64 0 0.92 0.64 0 0.96 0.64 0 1 0.64 0 1.04 0.64 0 1.08 0.64 0 1.12 0.64 0 1.16 0.64 0 1.2 0.64 0 0 0.68 0 0.04 0.68 0 0.08 0.68 0 0.12 0.68 0 0.16 0.68 0 0.2 0.68 0 0.24 0.68 0 0.28 0.68 0 0.32 0.68 0 0.36 0.68 0 0.4 0.68 0 0.44 0.68 0 0.48 0.68 0 0.52 0.68 0 0.56 0.68 0 0.6 0.68 0 0.64 0.68 0 0.68 0.68 0 0.72 0.68 0 0.76 0.68 0 0.8 0.68 0 0.84 0.68 0 0.88 0.68 0 0.92 0.68 0 0.96 0.68 0 1 0.68 0 1.04 0.68 0 1.08 0.68 0 1.12 0.68 0 1.16 0.68 0 1.2 0.68 0 0 0.72 0 0.04 0.72 0 0.08 0.72 0 0.12 0.72 0 0.16 0.72 0 0.2 0.72 0 0.24 0.72 0 0.28 0.72 0 0.32 0.72 0 0.36 0.72 0 0.4 0.72 0 0.44 0.72 0 0.48 0.72 0 0.52 0.72 0 0.56 0.72 0 0.6 0.72 0 0.64 0.72 0 0.68 0.72 0 0.72 0.72 0 0.76 0.72 0 0.8 0.72 0 0.84 0.72 0 0.88 0.72 0 0.92 0.72 0 0.96 0.72 0 1 0.72 0 1.04 0.72 0 1.08 0.72 0 1.12 0.72 0 1.16 0.72 0 1.2 0.72 0 0 0.76 0 0.04 0.76 0 0.08 0.76 0 0.12 0.76 0 0.16 0.76 0 0.2 0.76 0 0.24 0.76 0 0.28 0.76 0 0.32 0.76 0 0.36 0.76 0 0.4 0.76 0 0.44 0.76 0 0.48 0.76 0 0.52 0.76 0 0.56 0.76 0 0.6 0.76 0 0.64 0.76 0 0.68 0.76 0 0.72 0.76 0 0.76 0.76 0 0.8 0.76 0 0.84 0.76 0 0.88 0.76 0 0.92 0.76 0 0.96 0.76 0 1 0.76 0 1.04 0.76 0 1.08 0.76 0 1.12 0.76 0 1.16 0.76 0 1.2 0.76 0 0 0.8 0 0.04 0.8 0 0.08 0.8 0 0.12 0.8 0 0.16 0.8 0 0.2 0.8 0 0.24 0.8 0 0.28 0.8 0 0.32 0.8 0 0.36 0.8 0 0.4 0.8 0 0.44 0.8 0 0.48 0.8 0 0.52 0.8 0 0.56 0.8 0 0.6 0.8 0 0.64 0.8 0 0.68 0.8 0 0.72 0.8 0 0.76 0.8 0 0.8 0.8 0 0.84 0.8 0 0.88 0.8 0 0.92 0.8 0 0.96 0.8 0 1 0.8 0 1.04 0.8 0 1.08 0.8 0 1.12 0.8 0 1.16 0.8 0 1.2 0.8 0 0 0.84 0 0.04 0.84 0 0.08 0.84 0 0.12 0.84 0 0.16 0.84 0 0.2 0.84 0 0.24 0.84 0 0.28 0.84 0 0.32 0.84 0 0.36 0.84 0 0.4 0.84 0 0.44 0.84 0 0.48 0.84 0 0.52 0.84 0 0.56 0.84 0 0.6 0.84 0 0.64 0.84 0 0.68 0.84 0 0.72 0.84 0 0.76 0.84 0 0.8 0.84 0 0.84 0.84 0 0.88 0.84 0 0.92 0.84 0 0.96 0.84 0 1 0.84 0 1.04 0.84 0 1.08 0.84 0 1.12 0.84 0 1.16 0.84 0 1.2 0.84 0 0 0.88 0 0.04 0.88 0 0.08 0.88 0 0.12 0.88 0 0.16 0.88 0 0.2 0.88 0 0.24 0.88 0 0.28 0.88 0 0.32 0.88 0 0.36 0.88 0 0.4 0.88 0 0.44 0.88 0 0.48 0.88 0 0.52 0.88 0 0.56 0.88 0 0.6 0.88 0 0.64 0.88 0 0.68 0.88 0 0.72 0.88 0 0.76 0.88 0 0.8 0.88 0 0.84 0.88 0 0.88 0.88 0 0.92 0.88 0 0.96 0.88 0 1 0.88 0 1.04 0.88 0 1.08 0.88 0 1.12 0.88 0 1.16 0.88 0 1.2 0.88 0 0 0.92 0 0.04 0.92 0 0.08 0.92 0 0.12 0.92 0 0.16 0.92 0 0.2 0.92 0 0.24 0.92 0 0.28 0.92 0 0.32 0.92 0 0.36 0.92 0 0.4 0.92 0 0.44 0.92 0 0.48 0.92 0 0.52 0.92 0 0.56 0.92 0 0.6 0.92 0 0.64 0.92 0 0.68 0.92 0 0.72 0.92 0 0.76 0.92 0 0.8 0.92 0 0.84 0.92 0 0.88 0.92 0 0.92 0.92 0 0.96 0.92 0 1 0.92 0 1.04 0.92 0 1.08 0.92 0 1.12 0.92 0 1.16 0.92 0 1.2 0.92 0 0 0.96 0 0.04 0.96 0 0.08 0.96 0 0.12 0.96 0 0.16 0.96 0 0.2 0.96 0 0.24 0.96 0 0.28 0.96 0 0.32 0.96 0 0.36 0.96 0 0.4 0.96 0 0.44 0.96 0 0.48 0.96 0 0.52 0.96 0 0.56 0.96 0 0.6 0.96 0 0.64 0.96 0 0.68 0.96 0 0.72 0.96 0 0.76 0.96 0 0.8 0.96 0 0.84 0.96 0 0.88 0.96 0 0.92 0.96 0 0.96 0.96 0 1 0.96 0 1.04 0.96 0 1.08 0.96 0 1.12 0.96 0 1.16 0.96 0 1.2 0.96 0 0 1 0 0.04 1 0 0.08 1 0 0.12 1 0 0.16 1 0 0.2 1 0 0.24 1 0 0.28 1 0 0.32 1 0 0.36 1 0 0.4 1 0 0.44 1 0 0.48 1 0 0.52 1 0 0.56 1 0 0.6 1 0 0.64 1 0 0.68 1 0 0.72 1 0 0.76 1 0 0.8 1 0 0.84 1 0 0.88 1 0 0.92 1 0 0.96 1 0 1 1 0 1.04 1 0 1.08 1 0 1.12 1 0 1.16 1 0 1.2 1 0 0 1.04 0 0.04 1.04 0 0.08 1.04 0 0.12 1.04 0 0.16 1.04 0 0.2 1.04 0 0.24 1.04 0 0.28 1.04 0 0.32 1.04 0 0.36 1.04 0 0.4 1.04 0 0.44 1.04 0 0.48 1.04 0 0.52 1.04 0 0.56 1.04 0 0.6 1.04 0 0.64 1.04 0 0.68 1.04 0 0.72 1.04 0 0.76 1.04 0 0.8 1.04 0 0.84 1.04 0 0.88 1.04 0 0.92 1.04 0 0.96 1.04 0 1 1.04 0 1.04 1.04 0 1.08 1.04 0 1.12 1.04 0 1.16 1.04 0 1.2 1.04 0 0 1.08 0 0.04 1.08 0 0.08 1.08 0 0.12 1.08 0 0.16 1.08 0 0.2 1.08 0 0.24 1.08 0 0.28 1.08 0 0.32 1.08 0 0.36 1.08 0 0.4 1.08 0 0.44 1.08 0 0.48 1.08 0 0.52 1.08 0 0.56 1.08 0 0.6 1.08 0 0.64 1.08 0 0.68 1.08 0 0.72 1.08 0 0.76 1.08 0 0.8 1.08 0 0.84 1.08 0 0.88 1.08 0 0.92 1.08 0 0.96 1.08 0 1 1.08 0 1.04 1.08 0 1.08 1.08 0 1.12 1.08 0 1.16 1.08 0 1.2 1.08 0 0 1.12 0 
[...]
			<CellData Scalars="Density">
				<DataArray Name="Density" type="Float32" format="ascii">
 0.00640665 0.00765631 0.0118875 0.0199028 0.0319203 0.0476713 0.0671254 0.0903776 0.117849 0.149681 0.186931 0.231578 0.285496 0.351474 0.439028 0.551974 0.676834 0.817382 0.96717 1.11339 1.2014 1.16286 0.958543 0.735647 0.700076 0.697858 0.718583 0.745574 0.7661 0.778861 0.00771731 0.00741194 0.00925789 0.0152767 0.0250274 0.0392569 0.0574297 0.0795299 0.105208 0.134509 0.169636 0.213417 0.267921 0.336906 0.432526 0.550242 0.686875 0.840636 1.00367 1.16374 1.2645 1.22048 1.00952 0.775294 0.728823 0.720896 0.737219 0.76154 0.780759 0.792929 0.0120436 0.00936167 0.00900369 0.0109636 0.0165648 0.0269531 0.0410077 0.058635 0.0802493 0.106152 0.138016 0.178213 0.228698 0.294673 0.385483 0.495705 0.628526 0.779788 0.944895 1.10564 1.21477 1.19807 1.01956 0.785343 0.731905 0.722351 0.73704 0.761719 0.783296 0.796955 0.0201717 0.0154894 0.0110396 0.0108512 0.0129078 0.0187791 0.0285664 0.0447758 0.0659881 0.0919323 0.123634 0.162654 0.212375 0.278748 0.36696 0.47584 0.607094 0.757414 0.921881 1.08225 1.19681 1.20048 1.05308 0.819662 0.747619 0.73019 0.737862 0.75918 0.781054 0.794885 0.0322829 0.0253225 0.0167318 0.0129636 0.0131212 0.0159513 0.0226976 0.0353412 0.0555665 0.0827691 0.112157 0.148055 0.194913 0.259549 0.345422 0.454472 0.586725 0.739034 0.903495 1.06636 1.1864 1.20693 1.09418 0.877771 0.77565 0.743611 0.741129 0.758044 0.77933 0.793263 0.048108 0.0396298 0.0271743 0.0188584 0.0159631 0.016364 0.0202034 0.028819 0.0439787 0.0646161 0.090892 0.123034 0.166641 0.226919 0.308095 0.413728 0.54488 0.697803 0.863425 1.02711 1.15774 1.2052 1.12932 0.948452 0.814045 0.764916 0.752588 0.763836 0.783239 0.796504 0.0676321 0.0578527 0.0412078 0.0286432 0.0227071 0.0201894 0.0207004 0.0256292 0.0353967 0.0497562 0.0688445 0.0975812 0.137868 0.194112 0.270511 0.371187 0.497573 0.64822 0.816296 0.982441 1.12356 1.19787 1.16327 1.03217 0.875557 0.803392 0.777495 0.778226 0.793176 0.805422 0.0909476 0.0799778 0.0588015 0.0448266 0.0353012 0.0287511 0.0255873 0.0261818 0.0319376 0.0413348 0.0562919 0.0802054 0.117247 0.170115 0.24158 0.336147 0.456122 0.600579 0.763961 0.932528 1.08233 1.18034 1.18742 1.10678 0.964925 0.862558 0.815329 0.801153 0.809151 0.819128 0.118473 0.105644 0.0803776 0.0659928 0.0554419 0.0437995 0.0352621 0.0318771 0.0330646 0.0401883 0.0519078 0.0731596 0.107386 0.156683 0.223581 0.31096 0.422595 0.558721 0.715954 0.882578 1.0391 1.15489 1.19902 1.17058 1.07365 0.945537 0.869837 0.837888 0.833533 0.837201 0.150338 0.13491 0.106256 0.0919062 0.08255 0.0642798 0.0495275 0.0412031 0.0401421 0.0440594 0.0558151 0.0762548 0.10887 0.155234 0.217025 0.297084 0.398973 0.525233 0.672622 0.832951 0.990533 1.11689 1.19737 1.21877 1.16921 1.05512 0.954457 0.894222 0.866854 0.860712 0.187604 0.17 0.138091 0.123544 0.111824 0.0904263 0.0685241 0.0561012 0.051803 0.0557855 0.0677706 0.0888798 0.119693 0.162524 0.218522 0.291141 0.383537 0.497915 0.633924 0.785333 0.938319 1.0771 1.18281 1.24274 1.25024 1.18624 1.06982 0.970816 0.917374 0.895468 0.232259 0.213745 0.178263 0.162471 0.147582 0.122473 0.0971271 0.0799046 0.0729639 0.0762071 0.0888779 0.108888 0.137538 0.17586 0.226316 0.29075 0.373346 0.476075 0.598393 0.73736 0.884921 1.02585 1.1463 1.24823 1.31233 1.29657 1.20308 1.09029 1.00043 0.949554 0.286175 0.268209 0.228715 0.21211 0.194312 0.165965 0.137275 0.11678 0.107065 0.10872 0.119626 0.137503 0.162456 0.195482 0.238878 0.295228 0.366691 0.456856 0.566087 0.691883 0.829128 0.969146 1.10718 1.23577 1.3392 1.38767 1.3557 1.25161 1.12316 1.04066 0.352108 0.337101 0.294586 0.278346 0.258804 0.22609 0.193348 0.169489 0.156126 0.154973 0.16226 0.175673 0.195461 0.221508 0.256366 0.302544 0.36315 0.439529 0.534629 0.647869 0.776516 0.915619 1.05854 1.20468 1.35166 1.4616 1.4877 1.43475 1.31389 1.20196 0.439355 0.432467 0.385363 0.366516 0.344551 0.307103 0.269573 0.240761 0.222873 0.2165 0.218253 0.225822 0.23863 0.256364 0.28107 0.315383 0.362991 0.426248 0.506426 0.605924 0.724494 0.859127 1.00669 1.16969 1.33897 1.50149 1.60967 1.63413 1.56372 1.44702 0.552421 0.550241 0.495552 0.475338 0.453518 0.412615 0.370091 0.335119 0.310111 0.296533 0.290497 0.290535 0.294617 0.302336 0.315486 0.336706 0.369284 0.417566 0.482839 0.568197 0.675036 0.803602 0.955133 1.12628 1.31386 1.53001 1.70633 1.82469 1.87112 1.78682 0.677236 0.686832 0.628324 0.606597 0.585748 0.543701 0.496409 0.455012 0.421499 0.398394 0.382898 0.372624 0.366604 0.362417 0.362905 0.369401 0.386974 0.417639 0.467677 0.538121 0.633038 0.753533 0.903819 1.08285 1.28897 1.55342 1.80028 2.02664 2.23877 2.20762 0.817659 0.840516 0.779535 0.756929 0.738116 0.696611 0.646978 0.599481 0.557643 0.524266 0.497222 0.475218 0.456156 0.439484 0.425456 0.417618 0.417582 0.432272 0.464248 0.520626 0.600428 0.713806 0.861089 1.04739 1.27195 1.58069 1.90509 2.23805 2.61146 2.68982 0.967339 1.00348 0.944662 0.921442 0.902632 0.862321 0.815074 0.762775 0.714836 0.671735 0.632801 0.597763 0.565076 0.534178 0.506285 0.482206 0.467853 0.463903 0.479634 0.517424 0.587197 0.688226 0.830142 1.02219 1.27129 1.60976 2.00904 2.4399 2.93168 3.21588 1.11372 1.16365 1.1056 1.08192 1.06579 1.0262 0.981476 0.931464 0.881537 0.832266 0.784363 0.736575 0.691513 0.646974 0.6055 0.567714 0.5379 0.520434 0.517378 0.543016 0.59522 0.686888 0.82012 1.0118 1.2817 1.64664 2.10455 2.62968 3.21457 3.69639 1.20194 1.26473 1.21498 1.1968 1.18629 1.15726 1.123 1.08169 1.03829 0.990051 0.937662 0.884143 0.828795 0.775998 0.723444 0.67446 0.632493 0.6001 0.587033 0.595909 0.638731 0.717157 0.84433 1.02874 1.30311 1.69129 2.18545 2.78476 3.4754 4.08195 1.16381 1.22132 1.199 1.2011 1.20757 1.20555 1.19805 1.18031 1.15449 1.11669 1.07679 1.02518 0.968822 0.91526 0.858302 0.803086 0.753007 0.713507 0.688254 0.686534 0.718865 0.789857 0.909277 1.09194 1.3573 1.74485 2.25668 2.90285 3.67183 4.35277 0.96009 1.0111 1.02109 1.05447 1.0955 1.13034 1.16415 1.18797 1.19922 1.19755 1.18281 1.146 1.10699 1.05838 1.00643 0.954958 0.903686 0.861178 0.83087 0.820369 0.842659 0.911757 1.03126 1.20758 1.4672 1.83793 2.33995 3.00789 3.82717 4.55647 0.736083 0.775806 0.786024 0.820593 0.879026 0.949813 1.0335 1.10784 1.17122 1.21936 1.24299 1.24815 1.23573 1.20463 1.16955 1.12603 1.08243 1.04648 1.02145 1.01383 1.02826 1.08908 1.21007 1.38167 1.63051 1.98308 2.47549 3.13964 3.97346 4.72781 0.70019 0.728984 0.732093 0.747889 0.776045 0.814589 0.876379 0.965934 1.07451 1.17005 1.25076 1.31253 1.33942 1.35184 1.33906 1.31401 1.2893 1.27232 1.26955 1.27745 1.30585 1.35719 1.46694 1.63313 1.86986 2.20692 2.68005 3.33368 4.1556 4.8977 0.697884 0.72093 0.722381 0.730285 0.743755 0.76514 0.803782 0.863024 0.946041 1.05595 1.187 1.29698 1.388 1.46183 1.50154 1.53009 1.55383 1.58202 1.61407 1.64509 1.68471 1.7433 1.83285 1.98565 2.20757 2.52973 2.98651 3.6143 4.41596 5.12269 0.718532 0.737177 0.736977 0.737844 0.741149 0.75267 0.777672 0.815498 0.870005 0.954918 1.07034 1.20351 1.35615 1.48806 1.60972 1.7062 1.79963 1.90262 2.00798 2.11142 2.18902 2.25906 2.33971 2.46997 2.68136 2.98553 3.43515 4.05419 4.81456 5.43494 0.745531 0.761491 0.761631 0.759122 0.758003 0.763839 0.778252 0.801165 0.83786 0.894437 0.971104 1.09053 1.25201 1.43514 1.6343 1.82528 2.02809 2.24022 2.43806 2.62668 2.78602 2.90336 3.01377 3.14218 3.32853 3.61568 4.05112 4.68332 5.44921 5.96188 0.766073 0.780721 0.783215 0.780982 0.779248 0.783248 0.793149 0.809086 0.833363 0.866872 0.917467 1.00041 1.12338 1.31418 1.56385 1.87142 2.23914 2.61173 2.93163 3.21504 3.47557 3.66845 3.82425 3.97807 4.16146 4.41945 4.81601 5.44428 6.28139 6.71352 0.778856 0.792897 0.796902 0.794812 0.793145 0.796584 0.805351 0.819018 0.836978 0.860606 0.895471 0.949355 1.04074 1.20221 1.44702 1.78727 2.20862 2.69056 3.2167 3.69463 4.08361 4.35569 4.55268 4.72514 4.89997 5.11554 5.4373 5.95611 6.71027 7.80173
				</DataArray>
				<DataArray Name="Energy" type="Float32" format="ascii">
 966.318 808.296 521.192 310.943 194.172 129.812 92.1907 68.3736 52.4271 41.2615 33.0459 26.7083 21.7017 17.6552 14.1353 11.2176 9.10779 7.46663 6.19511 5.19661 4.3591 3.57955 2.76057 2.15771 1.95082 1.83093 1.75537 1.6999 1.6504 1.61469 801.932 835.08 666.384 405.539 246.136 157.535 107.363 77.5821 58.6378 45.8414 36.3842 28.9444 23.083 18.3869 14.3047 11.2261 8.94482 7.22651 5.93051 4.94985 4.15743 3.42253 2.6603 2.09434 1.89535 1.78342 1.71387 1.66373 1.61925 1.58476 514.434 659.039 688.533 560.683 374.469 228.357 150.537 105.103 76.7572 58.0091 44.6179 34.586 26.9592 20.9456 15.9958 12.4066 9.72347 7.74711 6.27328 5.16722 4.29517 3.52594 2.75415 2.15088 1.9235 1.79705 1.717 1.66078 1.61337 1.57843 306.812 399.947 556.836 572.144 475.579 329.364 215.745 137.486 93.2106 66.8427 49.7384 37.7535 28.9559 22.0391 16.7299 12.8572 10.0037 7.91246 6.37236 5.21946 4.3193 3.55885 2.82364 2.20549 1.94873 1.81017 1.72278 1.66389 1.6171 1.58121 191.991 243.269 370.738 473.516 471.603 385.758 271.213 174.218 110.539 74.1725 54.6113 41.4064 31.4157 23.5688 17.6776 13.386 10.2847 8.04566 6.42754 5.24597 4.33866 3.59368 2.90374 2.29626 1.99283 1.83137 1.73165 1.66746 1.62006 1.5858 128.633 156.058 226.483 327.994 385.46 375.951 304.948 212.921 139.768 94.7399 67.3436 49.6355 36.6103 26.8477 19.7174 14.6039 10.9936 8.45131 6.65147 5.36652 4.41094 3.65992 2.99394 2.40904 2.04721 1.85441 1.73698 1.66358 1.61322 1.58047 91.5007 106.573 149.813 215.158 271.114 305.159 295.871 240.203 172.803 123.219 88.6293 62.4913 44.1362 31.2643 22.3567 16.1902 11.9428 9.01451 6.97901 5.54782 4.50834 3.72354 3.06838 2.51446 2.10691 1.87565 1.73731 1.6518 1.59727 1.56557 67.9442 77.1491 104.803 137.328 174.411 213.42 240.605 232.915 192.304 147.37 108.582 75.8828 51.7889 35.5973 24.9228 17.7807 12.9459 9.63915 7.36674 5.777 4.64342 3.8054 3.15137 2.61749 2.19128 1.91144 1.74321 1.63926 1.57737 1.54526 52.1506 58.3934 76.6308 93.2042 110.781 140.341 173.456 192.68 183.901 152.488 117.059 83.2205 56.4717 38.541 26.8486 19.1141 13.8772 10.2725 7.77744 6.03429 4.80016 3.90271 3.22888 2.70542 2.28787 1.9647 1.75773 1.63255 1.55964 1.52323 41.0799 45.7039 57.9515 66.857 74.3711 95.2312 123.79 147.834 152.674 137.736 109.266 79.5305 55.6216 38.7924 27.562 19.9098 14.5778 10.8293 8.18378 6.31213 4.98064 4.02235 3.31579 2.79408 2.38349 2.04002 1.7965 1.64074 1.54707 1.50272 32.9265 36.3053 44.5912 49.7747 54.7701 67.691 89.0436 108.952 117.297 109.326 89.4759 68.206 50.3916 36.941 27.2112 20.1876 15.0501 11.2984 8.57793 6.61282 5.19662 4.17151 3.4261 2.88314 2.47321 2.13724 1.86168 1.66404 1.54683 1.48998 26.6301 28.8996 34.5757 37.7941 41.5387 49.8621 62.7816 76.1729 83.4426 79.5869 68.2113 55.4164 43.6936 33.9266 26.1258 20.0279 15.3067 11.6799 8.94538 6.91893 5.4316 4.34784 3.55225 2.98222 2.56648 2.23034 1.94197 1.71793 1.5695 1.48916 21.6513 23.059 26.957 28.992 31.5131 36.7589 44.3276 51.9912 56.6453 55.6946 50.4245 43.7149 36.7738 30.2987 24.5096 19.538 15.3722 11.9849 9.30224 7.24141 5.69811 4.55677 3.71466 3.107 2.66065 2.31445 2.04002 1.80399 1.61803 1.51173 17.6245 18.3766 20.9542 22.0719 23.6365 26.9468 31.3872 35.731 38.6664 38.8677 36.9938 33.9637 30.3201 26.4901 22.565 18.7811 15.2946 12.2281 9.65974 7.60109 6.00876 4.80919 3.91715 3.25784 2.77052 2.40719 2.1324 1.89641 1.70624 1.57741 14.1267 14.3086 16.0013 16.7513 17.7232 19.7811 22.4352 25.0104 26.9376 27.6121 27.2639 26.1668 24.5367 22.5853 20.2856 17.6956 14.9819 12.363 9.99194 7.97915 6.36053 5.10339 4.15082 3.44064 2.90253 2.50052 2.22187 1.99737 1.82224 1.68128 11.2104 11.2275 12.4121 12.8715 13.4151 14.6444 16.2393 17.8357 19.1712 19.9511 20.216 20.0644 19.5562 18.7974 17.7047 16.2337 14.3824 12.3159 10.2561 8.3677 6.75672 5.45534 4.44431 3.66635 3.07178 2.61251 2.31937 2.10104 1.95131 1.81674 9.10444 8.94715 9.7282 10.0133 10.3026 11.0185 11.9727 12.9797 13.9112 14.6072 15.0775 15.3254 15.3963 15.302 14.9892 14.3825 13.3745 11.9888 10.3618 8.7025 7.17732 5.86739 4.80162 3.95234 3.29626 2.76387 2.44292 2.22227 2.09248 1.96147 7.46583 7.22942 7.75116 7.91872 8.05714 8.46689 9.03277 9.65947 10.2949 10.8477 11.3199 11.6995 12.0003 12.246 12.3637 12.3146 11.9834 11.2856 10.2208 8.92163 7.56556 6.31027 5.21685 4.30981 3.5801 2.98071 2.60997 2.37229 2.23096 2.09748 6.19586 5.93366 6.27692 6.37689 6.43499 6.66128 6.99073 7.37887 7.79167 8.19828 8.5906 8.96115 9.31522 9.67059 10.001 10.2544 10.3606 10.2175 9.73434 8.89903 7.83994 6.73032 5.66734 4.72801 3.9303 3.2653 2.82577 2.54296 2.35306 2.21792 5.19859 4.9529 5.17042 5.22317 5.25091 5.37269 5.55539 5.78442 6.04261 6.32143 6.62063 6.92614 7.25164 7.60708 7.98631 8.3723 8.70485 8.92302 8.89724 8.56036 7.88802 7.01543 6.06811 5.15054 4.3206 3.60639 3.08426 2.7306 2.4578 2.30394 4.36132 4.16017 4.29806 4.32219 4.3422 4.41491 4.51312 4.64833 4.80519 4.98628 5.20205 5.43566 5.70409 6.01462 6.36551 6.76373 7.18234 7.5685 7.83842 7.88678 7.60431 7.04579 6.31111 5.48881 4.67357 3.94041 3.34092 2.89485 2.53914 2.34516 3.58226 3.42549 3.52892 3.56177 3.59695 3.66317 3.7269 3.80888 3.90617 4.02577 4.17537 4.35081 4.56028 4.81285 5.10689 5.46003 5.87144 6.31323 6.73118 7.01333 7.05151 6.78307 6.27689 5.62692 4.89513 4.18065 3.54436 3.01119 2.57775 2.34509 2.7635 2.66343 2.75735 2.82683 2.90684 2.9968 3.07104 3.15395 3.23145 3.3178 3.4283 3.55408 3.71629 3.91863 4.15252 4.44602 4.80313 5.21873 5.66989 6.06764 6.31202 6.29006 5.99885 5.51605 4.92375 4.28005 3.64539 3.06614 2.58421 2.31931 2.15831 2.09514 2.15198 2.20698 2.29808 2.41116 2.5165 2.61946 2.70738 2.79545 2.88445 2.98342 3.10789 3.25861 3.44175 3.66718 3.95257 4.30946 4.72871 5.15578 5.48981 5.62731 5.52566 5.20241 4.74825 4.2143 3.63725 3.06138 2.56499 2.28111 1.9509 1.89553 1.92381 1.94913 1.99324 2.04781 2.10767 2.19236 2.28929 2.38438 2.47405 2.56739 2.66123 2.77093 2.90323 3.07265 3.29721 3.58072 3.93051 4.32055 4.68119 4.89728 4.9232 4.75351 4.4291 4.00934 3.52183 3.00534 2.52776 2.23917 1.83087 1.78342 1.79714 1.81027 1.83143 1.85454 1.87576 1.91177 1.96539 2.04045 2.13785 2.23106 2.3148 2.40738 2.50087 2.61287 2.76449 2.9818 3.26893 3.60736 3.93844 4.18386 4.27582 4.21801 4.01456 3.70689 3.31918 2.88765 2.46722 2.20193 1.75522 1.71376 1.71697 1.72272 1.73153 1.73685 1.73714 1.7432 1.75799 1.79652 1.86189 1.94249 2.04025 2.1326 2.22216 2.31933 2.44239 2.60846 2.8246 3.08768 3.3424 3.54445 3.64522 3.63452 3.52606 3.32399 3.03747 2.69729 2.35537 2.14745 1.69976 1.66359 1.6607 1.66376 1.66728 1.66332 1.6515 1.63907 1.63261 1.64053 1.66395 1.71823 1.80413 1.8966 1.99772 2.10121 2.22249 2.37312 2.54178 2.72844 2.8964 3.0098 3.06588 3.06283 3.00291 2.8876 2.69806 2.44703 2.18682 2.04164 1.65026 1.6191 1.61327 1.61694 1.61988 1.61289 1.59694 1.57713 1.55957 1.54675 1.54658 1.56962 1.61803 1.70634 1.82251 1.9512 2.09222 2.23097 2.35295 2.45738 2.53917 2.57726 2.58208 2.56597 2.52905 2.46559 2.35421 2.18571 2.00402 1.89029 1.61455 1.58459 1.57835 1.58105 1.58563 1.58019 1.56523 1.54495 1.52325 1.50235 1.48955 1.48925 1.51162 1.57731 1.68168 1.8168 1.96114 2.09759 2.21811 2.30329 2.34548 2.3452 2.31873 2.28002 2.23942 2.20075 2.1471 2.04094 1.8901 1.87116
				</DataArray>
				<DataArray Name="F1" type="Float32" format="ascii">
 1 1 1 1 1 1 1 1 1 1 1 1 1 1 1 1 1 1 1 1 1 1 1 1 1 1 1 1 1 1 1 1 1 1 1 1 1 1 1 1 1 1 1 1 1 1 1 1 1 1 1 1 1 1 1 1 1 1 1 1 1 1 1 1 1 1 1 1 1 1 1 1 1 1 1 1 1 1 1 1 1 1 1 1 1 1 1 1 1 1 1 1 1 1 1 1 1 1 1 1 1 1 1 1 1 1 1 1 1 1 1 1 1 1 1 1 1 1 1 1 1 1 1 1 1 1 1 1 1 1 1 1 1 1 1 1 1 1 1 1 1 1 1 1 1 1 1 1 1 1 1 1 1 1 1 1 1 1 1 1 1 1 1 1 1 1 1 1 1 1 1 1 1 1 1 1 1 1 1 1 1 1 1 1 1 1 1 1 1 1 1 1 1 1 1 1 1 1 1 1 1 1 1 1 1 1 1 1 1 1 1 1 1 1 1 1 1 1 1 1 1 1 1 1 1 1 1 1 1 1 1 1 1 1 1 1 1 1 1 1 1 1 1 1 1 1 1 1 1 1 1 1 1 1 1 1 1 1 1 1 1 1 1 1 1 1 1 1 1 1 1 1 1 1 1 1 1 1 1 1 1 1 1 1 1 1 1 1 1 1 1 1 1 1 1 1 1 1 1 1 1 1 1 1 1 1 1 1 1 1 1 1 1 1 1 1 1 1 1 1 1 1 1 1 1 1 1 1 1 1 1 1 1 1 1 1 1 1 1 1 1 1 1 1 1 1 1 1 1 1 1 1 1 1 1 1 1 1 1 1 1 1 1 1 1 1 1 1 1 1 1 1 1 1 1 1 1 1 1 1 1 1 1 1 1 1 1 1 1 1 1 1 1 1 1 1 1 1 1 1 1 1 1 1 1 1 1 1 1 1 1 1 1 1 1 1 1 1 1 1 1 1 1 1 1 1 1 1 1 1 1 1 1 1 1 1 1 1 1 1 1 1 1 1 1 1 1 1 1 1 1 1 1 1 1 1 1 1 1 1 1 1 1 1 1 1 1 1 1 1 1 1 1 1 1 1 1 1 1 1 1 1 1 1 1 1 1 1 1 1 1 1 1 1 1 1 1 1 1 1 1 1 1 1 1 1 1 1 1 1 1 1 1 1 1 1 1 1 1 1 1 1 1 1 1 1 1 1 1 1 1 1 1 1 1 1 1 1 1 1 1 1 1 1 1 1 1 1 1 1 1 1 1 1 1 1 1 1 1 1 1 1 1 1 1 1 1 1 1 1 1 1 1 1 1 1 1 1 1 1 1 1 1 1 1 1 1 1 1 1 1 1 1 1 1 1 1 1 1 1 1 1 1 1 1 1 1 1 1 1 1 1 1 1 1 1 1 1 1 1 1 1 1 1 1 1 1 1 1 1 1 1 1 1 1 1 1 1 1 1 1 1 1 1 1 1 1 1 1 1 1 1 1 1 1 1 1 1 1 1 1 1 1 1 1 1 1 1 1 1 1 1 1 1 1 1 1 1 1 1 1 1 1 1 1 1 1 1 1 1 1 1 1 1 1 1 1 1 1 1 1 1 1 1 1 1 1 1 1 1 1 1 1 1 1 1 1 1 1 1 1 1 1 1 1 1 1 1 1 1 1 1 1 1 1 1 1 1 1 1 1 1 1 1 1 1 1 1 1 1 1 1 1 1 1 1 1 1 1 1 1 1 1 1 1 1 1 1 1 1 1 1 1 1 1 1 1 1 1 1 1 1 1 1 1 1 1 1 1 1 1 1 1 1 1 1 1 1 1 1 1 1 1 1 1 1 1 1 1 1 1 1 1 1 1 1 1 1 1 1 1 1 1 1 1 1 1 1 1 1 1 1 1 1 1 1 1 1 1 1 1 1 1 1 1 1 1 1 1 1 1 1 1 1 1 1 1 1 1 1 1 1 1 1 1 1 1 1 1 1 1 1 1 1 1 1 1 1 1 1 1 1 1 1 1 1 1 1 1 1 1 1 1 1 1 1 1 1 1 1
				</DataArray>
				<DataArray Name="F2" type="Float32" format="ascii">
 0 0 0 0 0 0 0 0 0 0 0 0 0 0 0 0 0 0 0 0 0 0 0 0 0 0 0 0 0 0 0 0 0 0 0 0 0 0 0 0 0 0 0 0 0 0 0 0 0 0 0 0 0 0 0 0 0 0 0 0 0 0 0 0 0 0 0 0 0 0 0 0 0 0 0 0 0 0 0 0 0 0 0 0 0 0 0 0 0 0 0 0 0 0 0 0 0 0 0 0 0 0 0 0 0 0 0 0 0 0 0 0 0 0 0 0 0 0 0 0 0 0 0 0 0 0 0 0 0 0 0 0 0 0 0 0 0 0 0 0 0 0 0 0 0 0 0 0 0 0 0 0 0 0 0 0 0 0 0 0 0 0 0 0 0 0 0 0 0 0 0 0 0 0 0 0 0 0 0 0 0 0 0 0 0 0 0 0 0 0 0 0 0 0 0 0 0 0 0 0 0 0 0 0 0 0 0 0 0 0 0 0 0 0 0 0 0 0 0 0 0 0 0 0 0 0 0 0 0 0 0 0 0 0 0 0 0 0 0 0 0 0 0 0 0 0 0 0 0 0 0 0 0 0 0 0 0 0 0 0 0 0 0 0 0 0 0 0 0 0 0 0 0 0 0 0 0 0 0 0 0 0 0 0 0 0 0 0 0 0 0 0 0 0 0 0 0 0 0 0 0 0 0 0 0 0 0 0 0 0 0 0 0 0 0 0 0 0 0 0 0 0 0 0 0 0 0 0 0 0 0 0 0 0 0 0 0 0 0 0 0 0 0 0 0 0 0 0 0 0 0 0 0 0 0 0 0 0 0 0 0 0 0 0 0 0 0 0 0 0 0 0 0 0 0 0 0 0 0 0 0 0 0 0 0 0 0 0 0 0 0 0 0 0 0 0 0 0 0 0 0 0 0 0 0 0 0 0 0 0 0 0 0 0 0 0 0 0 0 0 0 0 0 0 0 0 0 0 0 0 0 0 0 0 0 0 0 0 0 0 0 0 0 0 0 0 0 0 0 0 0 0 0 0 0 0 0 0 0 0 0 0 0 0 0 0 0 0 0 0 0 0 0 0 0 0 0 0 0 0 0 0 0 0 0 0 0 0 0 0 0 0 0 0 0 0 0 0 0 0 0 0 0 0 0 0 0 0 0 0 0 0 0 0 0 0 0 0 0 0 0 0 0 0 0 0 0 0 0 0 0 0 0 0 0 0 0 0 0 0 0 0 0 0 0 0 0 0 0 0 0 0 0 0 0 0 0 0 0 0 0 0 0 0 0 0 0 0 0 0 0 0 0 0 0 0 0 0 0 0 0 0 0 0 0 0 0 0 0 0 0 0 0 0 0 0 0 0 0 0 0 0 0 0 0 0 0 0 0 0 0 0 0 0 0 0 0 0 0 0 0 0 0 0 0 0 0 0 0 0 0 0 0 0 0 0 0 0 0 0 0 0 0 0 0 0 0 0 0 0 0 0 0 0 0 0 0 0 0 0 0 0 0 0 0 0 0 0 0 0 0 0 0 0 0 0 0 0 0 0 0 0 0 0 0 0 0 0 0 0 0 0 0 0 0 0 0 0 0 0 0 0 0 0 0 0 0 0 0 0 0 0 0 0 0 0 0 0 0 0 0 0 0 0 0 0 0 0 0 0 0 0 0 0 0 0 0 0 0 0 0 0 0 0 0 0 0 0 0 0 0 0 0 0 0 0 0 0 0 0 0 0 0 0 0 0 0 0 0 0 0 0 0 0 0 0 0 0 0 0 0 0 0 0 0 0 0 0 0 0 0 0 0 0 0 0 0 0 0 0 0 0 0 0 0 0 0 0 0 0 0 0 0 0 0 0 0 0 0 0 0 0 0 0 0 0 0 0 0 0 0 0 0 0 0 0 0 0 0 0 0 0 0 0 0 0 0 0 0 0 0 0 0 0 0 0 0 0 0 0 0 0 0 0 0 0 0 0 0 0 0 0 0 0 0 0 0 0 0 0 0 0 0 0 0 0 0 0 0 0 0 0 0 0 0 0 0 0 0 0
				</DataArray>
				<DataArray Name="F3" type="Float32" format="ascii">