<?xml version="1.0"?>
<VTKFile type="PolyData">
	<PolyData>
		<Piece NumberOfPoints="961" NumberOfPolys="900">
			<Points>
				<DataArray type="Float32" NumberOfComponents="3" format="ascii">
 0 0 0 0.04 0 0 0.08 0 0 0.12 0 0 0.16 0 0 0.2 0 0 0.24 0 0 0.28 0 0 0.32 0 0 0.36 0 0 0.4 0 0 0.44 0 0 0.48 0 0 0.52 0 0 0.56 0 0 0.6 0 0 0.64 0 0 0.68 0 0 0.72 0 0 0.76 0 0 0.8 0 0 0.84 0 0 0.88 0 0 0.92 0 0 0.96 0 0 1 0 0 1.04 0 0 1.08 0 0 1.12 0 0 1.16 0 0 1.2 0 0 0 0.04 0 0.04 0.04 0 0.08 0.04 0 0.12 0.04 0 0.16 0.04 0 0.2 0.04 0 0.24 0.04 0 0.28 0.04 0 0.32 0.04 0 0.36 0.04 0 0.4 0.04 0 0.44 0.04 0 0.48 0.04 0 0.52 0.04 0 0.56 0.04 0 0.6 0.04 0 0.64 0.04 0 0.68 0.04 0 0.72 0.04 0 0.76 0.04 0 0.8 0.04 0 0.84 0.04 0 0.88 0.04 0 0.92 0.04 0 0.96 0.04 0 1 0.04 0 1.04 0.04 0 1.08 0.04 0 1.12 0.04 0 1.16 0.04 0 1.2 0.04 0 0 0.08 0 0.04 0.08 0 0.08 0.08 0 0.12 0.08 0 0.16 0.08 0 0.2 0.08 0 0.24 0.08 0 0.28 0.08 0 0.32 0.08 0 0.36 0.08 0 0.4 0.08 0 0.44 0.08 0 0.48 0.08 0 0.52 0.08 0 0.56 0.08 0 0.6 0.08 0 0.64 0.08 0 0.68 0.08 0 0.72 0.08 0 0.76 0.08 0 0.8 0.08 0 0.84 0.08 0 0.88 0.08 0 0.92 0.08 0 0.96 0.08 0 1 0.08 0 1.04 0.08 0 1.08 0.08 0 1.12 0.08 0 1.16 0.08 0 1.2 0.08 0 0 0.12 0 0.04 0.12 0 0.08 0.12 0 0.12 0.12 0 0.16 0.12 0 0.2 0.12 0 0.24 0.12 0 0.28 0.12 0 0.32 0.12 0 0.36 0.12 0 0.4 0.12 0 0.44 0.12 0 0.48 0.12 0 0.52 0.12 0 0.56 0.12 0 0.6 0.12 0 0.64 0.12 0 0.68 0.12 0 0.72 0.12 0 0.76 0.12 0 0.8 0.12 0 0.84 0.12 0 0.88 0.12 0 0.92 0.12 0 0.96 0.12 0 1 0.12 0 1.04 0.12 0 1.08 0.12 0 1.12 0.12 0 1.16 0.12 0 1.2 0.12 0 0 0.16 0 0.04 0.16 0 0.08 0.16 0 0.12 0.16 0 0.16 0.16 0 0.2 0.16 0 0.24 0.16 0 0.28 0.16 0 0.32 0.16 0 0.36 0.16 0 0.4 0.16 0 0.44 0.16 0 0.48 0.16 0 0.52 0.16 0 0.56 0.16 0 0.6 0.16 0 0.64 0.16 0 0.68 0.16 0 0.72 0.16 0 0.76 0.16 0 0.8 0.16 0 0.84 0.16 0 0.88 0.16 0 0.92 0.16 0 0.96 0.16 0 1 0.16 0 1.04 0.16 0 1.08 0.16 0 1.12 0.16 0 1.16 0.16 0 1.2 0.16 0 0 0.2 0 0.04 0.2 0 0.08 0.2 0 0.12 0.2 0 0.16 0.2 0 0.2 0.2 0 0.24 0.2 0 0.28 0.2 0 0.32 0.2 0 0.36 0.2 0 0.4 0.2 0 0.44 0.2 0 0.48 0.2 0 0.52 0.2 0 0.56 0.2 0 0.6 0.2 0 0.64 0.2 0 0.68 0.2 0 0.72 0.2 0 0.76 0.2 0 0.8 0.2 0 0.84 0.2 0 0.88 0.2 0 0.92 0.2 0 0.96 0.2 0 1 0.2 0 1.04 0.2 0 1.08 0.2 0 1.12 0.2 0 1.16 0.2 0 1.2 0.2 0 0 0.24 0 0.04 0.24 0 0.08 0.24 0 0.12 0.24 0 0.16 0.24 0 0.2 0.24 0 0.24 0.24 0 0.28 0.24 0 0.32 0.24 0 0.36 0.24 0 0.4 0.24 0 0.44 0.24 0 0.48 0.24 0 0.52 0.24 0 0.56 0.24 0 0.6 0.24 0 0.64 0.24 0 0.68 0.24 0 0.72 0.24 0 0.76 0.24 0 0.8 0.24 0 0.84 0.24 0 0.88 0.24 0 0.92 0.24 0 0.96 0.24 0 1 0.24 0 1.04 0.24 0 1.08 0.24 0 1.12 0.24 0 1.16 0.24 0 1.2 0.24 0 0 0.28 0 0.04 0.28 0 0.08 0.28 0 0.12 0.28 0 0.16 0.28 0 0.2 0.28 0 0.24 0.28 0 0.28 0.28 0 0.32 0.28 0 0.36 0.28 0 0.4 0.28 0 0.44 0.28 0 0.48 0.28 0 0.52 0.28 0 0.56 0.28 0 0.6 0.28 0 0.64 0.28 0 0.68 0.28 0 0.72 0.28 0 0.76 0.28 0 0.8 0.28 0 0.84 0.28 0 0.88 0.28 0 0.92 0.28 0 0.96 0.28 0 1 0.28 0 1.04 0.28 0 1.08 0.28 0 1.12 0.28 0 1.16 0.28 0 1.2 0.28 0 0 0.32 0 0.04 0.32 0 0.08 0.32 0 0.12 0.32 0 0.16 0.32 0 0.2 0.32 0 0.24 0.32 0 0.28 0.32 0 0.32 0.32 0 0.36 0.32 0 0.4 0.32 0 0.44 0.32 0 0.48 0.32 0 0.52 0.32 0 0.56 0.32 0 0.6 0.32 0 0.64 0.32 0 0.68 0.32 0 0.72 0.32 0 0.76 0.32 0 0.8 0.32 0 0.84 0.32 0 0.88 0.32 0 0.92 0.32 0 0.96 0.32 0 1 0.32 0 1.04 0.32 0 1.08 0.32 0 1.12 0.32 0 1.16 0.32 0 1.2 0.32 0 0 0.36 0 0.04 0.36 0 0.08 0.36 0 0.12 0.36 0 0.16 0.36 0 0.2 0.36 0 0.24 0.36 0 0.28 0.36 0 0.32 0.36 0 0.36 0.36 0 0.4 0.36 0 0.44 0.36 0 0.48 0.36 0 0.52 0.36 0 0.56 0.36 0 0.6 0.36 0 0.64 0.36 0 0.68 0.36 0 0.72 0.36 0 0.76 0.36 0 0.8 0.36 0 0.84 0.36 0 0.88 0.36 0 0.92 0.36 0 0.96 0.36 0 1 0.36 0 1.04 0.36 0 1.08 0.36 0 1.12 0.36 0 1.16 0.36 0 1.2 0.36 0 0 0.4 0 0.04 0.4 0 0.08 0.4 0 0.12 0.4 0 0.16 0.4 0 0.2 0.4 0 0.24 0.4 0 0.28 0.4 0 0.32 0.4 0 0.36 0.4 0 0.4 0.4 0 0.44 0.4 0 0.48 0.4 0 0.52 0.4 0 0.56 0.4 0 0.6 0.4 0 0.64 0.4 0 0.68 0.4 0 0.72 0.4 0 0.76 0.4 0 0.8 0.4 0 0.84 0.4 0 0.88 0.4 0 0.92 0.4 0 0.96 0.4 0 1 0.4 0 1.04 0.4 0 1.08 0.4 0 1.12 0.4 0 1.16 0.4 0 1.2 0.4 0 0 0.44 0 0.04 0.44 0 0.08 0.44 0 0.12 0.44 0 0.16 0.44 0 0.2 0.44 0 0.24 0.44 0 0.28 0.44 0 0.32 0.44 0 0.36 0.44 0 0.4 0.44 0 0.44 0.44 0 0.48 0.44 0 0.52 0.44 0 0.56 0.44 0 0.6 0.44 0 0.64 0.44 0 0.68 0.44 0 0.72 0.44 0 0.76 0.44 0 0.8 0.44 0 0.84 0.44 0 0.88 0.44 0 0.92 0.44 0 0.96 0.44 0 1 0.44 0 1.04 0.44 0 1.08 0.44 0 1.12 0.44 0 1.16 0.44 0 1.2 0.44 0 0 0.48 0 0.04 0.48 0 0.08 0.48 0 0.12 0.48 0 0.16 0.48 0 0.2 0.48 0 0.24 0.48 0 0.28 0.48 0 0.32 0.48 0 0.36 0.48 0 0.4 0.48 0 0.44 0.48 0 0.48 0.48 0 0.52 0.48 0 0.56 0.48 0 0.6 0.48 0 0.64 0.48 0 0.68 0.48 0 0.72 0.48 0 0.76 0.48 0 0.8 0.48 0 0.84 0.48 0 0.88 0.48 0 0.92 0.48 0 0.96 0.48 0 1 0.48 0 1.04 0.48 0 1.08 0.48 0 1.12 0.48 0 1.16 0.48 0 1.2 0.48 0 0 0.52 0 0.04 0.52 0 0.08 0.52 0 0.12 0.52 0 0.16 0.52 0 0.2 0.52 0 0.24 0.52 0 0.28 0.52 0 0.32 0.52 0 0.36 0.52 0 0.4 0.52 0 0.44 0.52 0 0.48 0.52 0 0.52 0.52 0 0.56 0.52 0 0.6 0.52 0 0.64 0.52 0 0.68 0.52 0 0.72 0.52 0 0.76 0.52 0 0.8 0.52 0 0.84 0.52 0 0.88 0.52 0 0.92 0.52 0 0.96 0.52 0 1 0.52 0 1.04 0.52 0 1.08 0.52 0 1.12 0.52 0 1.16 0.52 0 1.2 0.52 0 0 0.56 0 0.04 0.56 0 0.08 0.56 0 0.12 0.56 0 0.16 0.56 0 0.2 0.56 0 0.24 0.56 0 0.28 0.56 0 0.32 0.56 0 0.36 0.56 0 0.4 0.56 0 0.44 0.56 0 0.48 0.56 0 0.52 0.56 0 0.56 0.56 0 0.6 0.56 0 0.64 0.56 0 0.68 0.56 0 0.72 0.56 0 0.76 0.56 0 0.8 0.56 0 0.84 0.56 0 0.88 0.56 0 0.92 0.56 0 0.96 0.56 0 1 0.56 0 1.04 0.56 0 1.08 0.56 0 1.12 0.56 0 1.16 0.56 0 1.2 0.56 0 0 0.6 0 0.04 0.6 0 0.08 0.6 0 0.12 0.6 0 0.16 0.6 0 0.2 0.6 0 0.24 0.6 0 0.28 0.6 0 0.32 0.6 0 0.36 0.6 0 0.4 0.6 0 0.44 0.6 0 0.48 0.6 0 0.52 0.6 0 0.56 0.6 0 0.6 0.6 0 0.64 0.6 0 0.68 0.6 0 0.72 0.6 0 0.76 0.6 0 0.8 0.6 0 0.84 0.6 0 0.88 0.6 0 0.92 0.6 0 0.96 0.6 0 1 0.6 0 1.04 0.6 0 1.08 0.6 0 1.12 0.6 0 1.16 0.6 0 1.2 0.6 0 0 0.64 0 0.04 0.64 0 0.08 0.64 0 0.12 0.64 0 0.16 0.64 0 0.2 0.64 0 0.24 0.64 0 0.28 0.64 0 0.32 0.64 0 0.36 0.64 0 0.4 0.64 0 0.44 0.64 0 0.48 0.64 0 0.52 0.64 0 0.56 0.64 0 0.6 0.64 0 0.64 0.64 0 0.68 0.64 0 0.72 0.64 0 0.76 0.64 0 0.8 0.64 0 0.84 0.64 0 0.88 0.64 0 0.92 0.64 0 0.96 0.64 0 1 0.64 0 1.04 0.64 0 1.08 0.64 0 1.12 0.64 0 1.16 0.64 0 1.2 0.64 0 0 0.68 0 0.04 0.68 0 0.08 0.68 0 0.12 0.68 0 0.16 0.68 0 0.2 0.68 0 0.24 0.68 0 0.28 0.68 0 0.32 0.68 0 0.36 0.68 0 0.4 0.68 0 0.44 0.68 0 0.48 0.68 0 0.52 0.68 0 0.56 0.68 0 0.6 0.68 0 0.64 0.68 0 0.68 0.68 0 0.72 0.68 0 0.76 0.68 0 0.8 0.68 0 0.84 0.68 0 0.88 0.68 0 0.92 0.68 0 0.96 0.68 0 1 0.68 0 1.04 0.68 0 1.08 0.68 0 1.12 0.68 0 1.16 0.68 0 1.2 0.68 0 0 0.72 0 0.04 0.72 0 0.08 0.72 0 0.12 0.72 0 0.16 0.72 0 0.2 0.72 0 0.24 0.72 0 0.28 0.72 0 0.32 0.72 0 0.36 0.72 0 0.4 0.72 0 0.44 0.72 0 0.48 0.72 0 0.52 0.72 0 0.56 0.72 0 0.6 0.72 0 0.64 0.72 0 0.68 0.72 0 0.72 0.72 0 0.76 0.72 0 0.8 0.72 0 0.84 0.72 0 0.88 0.72 0 0.92 0.72 0 0.96 0.72 0 1 0.72 0 1.04 0.72 0 1.08 0.72 0 1.12 0.72 0 1.16 0.72 0 1.2 0.72 0 0 0.76 0 0.04 0.76 0 0.08 0.76 0 0.12 0.76 0 0.16 0.76 0 0.2 0.76 0 0.24 0.76 0 0.28 0.76 0 0.32 0.76 0 0.36 0.76 0 0.4 0.76 0 0.44 0.76 0 0.48 0.76 0 0.52 0.76 0 0.56 0.76 0 0.6 0.76 0 0.64 0.76 0 0.68 0.76 0 0.72 0.76 0 0.76 0.76 0 0.8 0.76 0 0.84 0.76 0 0.88 0.76 0 0.92 0.76 0 0.96 0.76 0 1 0.76 0 1.04 0.76 0 1.08 0.76 0 1.12 0.76 0 1.16 0.76 0 1.2 0.76 0 0 0.8 0 0.04 0.8 0 0.08 0.8 0 0.12 0.8 0 0.16 0.8 0 0.2 0.8 0 0.24 0.8 0 0.28 0.8 0 0.32 0.8 0 0.36 0.8 0 0.4 0.8 0 0.44 0.8 0 0.48 0.8 0 0.52 0.8 0 0.56 0.8 0 0.6 0.8 0 0.64 0.8 0 0.68 0.8 0 0.72 0.8 0 0.76 0.8 0 0.8 0.8 0 0.84 0.8 0 0.88 0.8 0 0.92 0.8 0 0.96 0.8 0 1 0.8 0 1.04 0.8 0 1.08 0.8 0 1.12 0.8 0 1.16 0.8 0 1.2 0.8 0 0 0.84 0 0.04 0.84 0 0.08 0.84 0 0.12 0.84 0 0.16 0.84 0 0.2 0.84 0 0.24 0.84 0 0.28 0.84 0 0.32 0.84 0 0.36 0.84 0 0.4 0.84 0 0.44 0.84 0 0.48 0.84 0 0.52 0.84 0 0.56 0.84 0 0.6 0.84 0 0.64 0.84 0 0.68 0.84 0 0.72 0.84 0 0.76 0.84 0 0.8 0.84 0 0.84 0.84 0 0.88 0.84 0 0.92 0.84 0 0.96 0.84 0 1 0.84 0 1.04 0.84 0 1.08 0.84 0 1.12 0.84 0 1.16 0.84 0 1.2 0.84 0 0 0.88 0 0.04 0.88 0 0.08 0.88 0 0.12 0.88 0 0.16 0.88 0 0.2 0.88 0 0.24 0.88 0 0.28 0.88 0 0.32 0.88 0 0.36 0.88 0 0.4 0.88 0 0.44 0.88 0 0.48 0.88 0 0.52 0.88 0 0.56 0.88 0 0.6 0.88 0 0.64 0.88 0 0.68 0.88 0 0.72 0.88 0 0.76 0.88 0 0.8 0.88 0 0.84 0.88 0 0.88 0.88 0 0.92 0.88 0 0.96 0.88 0 1 0.88 0 1.04 0.88 0 1.08 0.88 0 1.12 0.88 0 1.16 0.88 0 1.2 0.88 0 0 0.92 0 0.04 0.92 0 0.08 0.92 0 0.12 0.92 0 0.16 0.92 0 0.2 0.92 0 0.24 0.92 0 0.28 0.92 0 0.32 0.92 0 0.36 0.92 0 0.4 0.92 0 0.44 0.92 0 0.48 0.92 0 0.52 0.92 0 0.56 0.92 0 0.6 0.92 0 0.64 0.92 0 0.68 0.92 0 0.72 0.92 0 0.76 0.92 0 0.8 0.92 0 0.84 0.92 0 0.88 0.92 0 0.92 0.92 0 0.96 0.92 0 1 0.92 0 1.04 0.92 0 1.08 0.92 0 1.12 0.92 0 1.16 0.92 0 1.2 0.92 0 0 0.96 0 0.04 0.96 0 0.08 0.96 0 0.12 0.96 0 0.16 0.96 0 0.2 0.96 0 0.24 0.96 0 0.28 0.96 0 0.32 0.96 0 0.36 0.96 0 0.4 0.96 0 0.44 0.96 0 0.48 0.96 0 0.52 0.96 0 0.56 0.96 0 0.6 0.96 0 0.64 0.96 0 0.68 0.96 0 0.72 0.96 0 0.76 0.96 0 0.8 0.96 0 0.84 0.96 0 0.88 0.96 0 0.92 0.96 0 0.96 0.96 0 1 0.96 0 1.04 0.96 0 1.08 0.96 0 1.12 0.96 0 1.16 0.96 0 1.2 0.96 0 0 1 0 0.04 1 0 0.08 1 0 0.12 1 0 0.16 1 0 0.2 1 0 0.24 1 0 0.28 1 0 0.32 1 0 0.36 1 0 0.4 1 0 0.44 1 0 0.48 1 0 0.52 1 0 0.56 1 0 0.6 1 0 0.64 1 0 0.68 1 0 0.72 1 0 0.76 1 0 0.8 1 0 0.84 1 0 0.88 1 0 0.92 1 0 0.96 1 0 1 1 0 1.04 1 0 1.08 1 0 1.12 1 0 1.16 1 0 1.2 1 0 0 1.04 0 0.04 1.04 0 0.08 1.04 0 0.12 1.04 0 0.16 1.04 0 0.2 1.04 0 0.24 1.04 0 0.28 1.04 0 0.32 1.04 0 0.36 1.04 0 0.4 1.04 0 0.44 1.04 0 0.48 1.04 0 0.52 1.04 0 0.56 1.04 0 0.6 1.04 0 0.64 1.04 0 0.68 1.04 0 0.72 1.04 0 0.76 1.04 0 0.8 1.04 0 0.84 1.04 0 0.88 1.04 0 0.92 1.04 0 0.96 1.04 0 1 1.04 0 1.04 1.04 0 1.08 1.04 0 1.12 1.04 0 1.16 1.04 0 1.2 1.04 0 0 1.08 0 0.04 1.08 0 0.08 1.08 0 0.12 1.08 0 0.16 1.08 0 0.2 1.08 0 0.24 1.08 0 0.28 1.08 0 0.32 1.08 0 0.36 1.08 0 0.4 1.08 0 0.44 1.08 0 0.48 1.08 0 0.52 1.08 0 0.56 1.08 0 0.6 1.08 0 0.64 1.08 0 0.68 1.08 0 0.72 1.08 0 0.76 1.08 0 0.8 1.08 0 0.84 1.08 0 0.88 1.08 0 0.92 1.08 0 0.96 1.08 0 1 1.08 0 1.04 1.08 0 1.08 1.08 0 1.12 1.08 0 1.16 1.08 0 1.2 1.08 0 0 1.12 0 
[...]
			<CellData Scalars="Density">
				<DataArray Name="Density" type="Float32" format="ascii">
 0.00440942 0.00465572 0.00523992 0.00627376 0.00776877 0.00970393 0.0120925 0.0149476 0.0183077 0.0222367 0.0268319 0.0322295 0.0386157 0.0462438 0.0554606 0.0667548 0.0808087 0.098551 0.12127 0.150757 0.189502 0.24107 0.310368 0.404371 0.532623 0.711832 0.983222 1.42358 2.83571 6.53418 0.00465371 0.00487262 0.00538699 0.00634864 0.00781389 0.00978189 0.0122913 0.0153599 0.0190421 0.0233914 0.0285045 0.0345051 0.0415709 0.0499512 0.0599979 0.0721785 0.0871925 0.105997 0.129931 0.160854 0.201364 0.254992 0.326695 0.423342 0.554346 0.731561 0.988756 1.41572 2.80298 6.51071 0.00523608 0.00538678 0.00575359 0.00653978 0.00780081 0.00958307 0.0119 0.0148025 0.0183288 0.0225432 0.0275292 0.0334151 0.0403795 0.048674 0.0586412 0.0707593 0.0856921 0.104362 0.12804 0.158539 0.19839 0.251168 0.321944 0.418176 0.550562 0.736037 1.01418 1.46201 2.84972 6.59104 0.00626773 0.00635005 0.00654424 0.00717813 0.0083336 0.0099929 0.0122447 0.0151212 0.0187034 0.0230619 0.0283111 0.0345987 0.0421259 0.0511513 0.0620234 0.0752082 0.0913319 0.111244 0.136123 0.167689 0.208256 0.261377 0.332103 0.427694 0.558166 0.739327 1.01251 1.45931 2.77806 6.48109 0.00775829 0.00781616 0.00780911 0.00834167 0.00946802 0.0111678 0.013531 0.0166312 0.0205605 0.0254323 0.0313775 0.0385686 0.0472169 0.0575928 0.070051 0.0850698 0.103289 0.125595 0.153184 0.187794 0.231765 0.288544 0.363207 0.463833 0.602045 0.791925 1.06921 1.51955 2.75708 6.40131 0.00968787 0.00978278 0.00959548 0.0100064 0.0111768 0.0129766 0.0155465 0.0189524 0.0233288 0.0287893 0.0354962 0.0436181 0.053397 0.0651 0.0791148 0.0959404 0.116256 0.14099 0.171414 0.209335 0.257234 0.31884 0.399065 0.506017 0.6513 0.850816 1.14116 1.59883 2.74807 6.28121 0.0120698 0.0122892 0.0119127 0.0122629 0.0135461 0.0155555 0.0184528 0.0223193 0.0273036 0.0335323 0.041173 0.0504223 0.0615142 0.0747747 0.0905833 0.10953 0.13231 0.160011 0.193907 0.236116 0.289033 0.35681 0.44489 0.561797 0.720511 0.938824 1.24987 1.72665 2.79576 6.15686 0.0149165 0.0153517 0.014812 0.0151398 0.0166496 0.0189665 0.0223281 0.0267975 0.0325453 0.0397044 0.0484459 0.0589754 0.0715694 0.0865402 0.104369 0.125635 0.151197 0.182156 0.220079 0.267024 0.326129 0.401296 0.499276 0.629372 0.805926 1.05207 1.39797 1.90213 2.8884 5.93258 0.0182672 0.0190252 0.018331 0.018715 0.0205768 0.0233397 0.0273073 0.032547 0.0392389 0.0475061 0.0575493 0.069558 0.0838512 0.100786 0.120865 0.14479 0.173485 0.208224 0.25074 0.303476 0.369664 0.454389 0.564401 0.711397 0.911501 1.19224 1.58811 2.12819 3.00112 5.56197 0.0221864 0.0233663 0.022535 0.0230633 0.0254348 0.0287906 0.0335214 0.0396816 0.0474946 0.057056 0.0685672 0.0822673 0.0984508 0.117572 0.140173 0.167066 0.199265 0.238315 0.286015 0.345375 0.420186 0.515947 0.641998 0.810493 1.04321 1.36911 1.82795 2.40934 3.10943 5.01563 0.0267722 0.0284711 0.0275115 0.0282992 0.03137 0.0354768 0.041145 0.0484027 0.0574978 0.0685497 0.0817399 0.0973103 0.115652 0.137196 0.162647 0.192878 0.229116 0.273037 0.326954 0.393902 0.478874 0.588192 0.732549 0.928121 1.19941 1.58199 2.11415 2.72061 3.19661 4.29734 0.0321587 0.0344641 0.0333865 0.0345754 0.038544 0.0435881 0.0503649 0.0589113 0.0694923 0.0821993 0.0972947 0.114995 0.135721 0.160046 0.188693 0.222755 0.263603 0.313231 0.374311 0.450718 0.547841 0.674297 0.843119 1.07376 1.39717 1.85378 2.44985 3.02725 3.22861 3.46058 0.038532 0.0415202 0.0403425 0.0420888 0.0471805 0.0533409 0.0614436 0.0714663 0.0837499 0.0983696 0.115572 0.135698 0.159172 0.186641 0.219016 0.257503 0.303779 0.360169 0.429874 0.517515 0.630032 0.777185 0.976272 1.25105 1.63708 2.17695 2.79245 3.22283 3.11027 2.56876 0.0461443 0.0498896 0.0486267 0.0511065 0.0575487 0.0650401 0.0746739 0.0864322 0.100661 0.117451 0.137111 0.159965 0.18662 0.217784 0.254486 0.298261 0.351009 0.415624 0.49599 0.597734 0.729862 0.904698 1.1437 1.47704 1.94732 2.55423 3.10854 3.29453 2.75746 1.79865 0.0553414 0.0599202 0.0585811 0.06197 0.0700019 0.0790499 0.0904978 0.10424 0.120735 0.140052 0.162529 0.188609 0.218934 0.254483 0.296424 0.346528 0.407301 0.482045 0.575965 0.695753 0.85313 1.06529 1.35549 1.76178 2.32869 2.95112 3.29861 3.151 2.13711 1.33689 0.0666107 0.0720785 0.0706814 0.0751443 0.085015 0.095879 0.109428 0.125533 0.144669 0.166931 0.192772 0.222654 0.257425 0.298166 0.34653 0.404557 0.475294 0.563141 0.674315 0.818309 1.00962 1.26975 1.63242 2.13509 2.75478 3.27835 3.32983 2.61089 1.51757 1.12945 0.0806354 0.0870641 0.0855893 0.091253 0.103225 0.116189 0.132243 0.151087 0.173367 0.199181 0.22901 0.263515 0.303707 0.350957 0.407188 0.475293 0.559005 0.663828 0.798222 0.973834 1.21188 1.53647 1.98819 2.59552 3.17345 3.38343 2.9757 1.88782 1.20588 1.05075 0.0983411 0.105832 0.104225 0.111144 0.125515 0.140924 0.159903 0.182096 0.208141 0.238177 0.27299 0.313161 0.360116 0.415562 0.482065 0.562978 0.663868 0.791537 0.957233 1.17818 1.47709 1.89532 2.45581 3.06642 3.42743 3.2356 2.23661 1.32801 1.08046 1.01577 0.121015 0.129721 0.127858 0.135992 0.153084 0.171326 0.193878 0.219977 0.250693 0.286008 0.326815 0.374292 0.429875 0.495984 0.5759 0.674433 0.798067 0.957725 1.16772 1.44921 1.83477 2.36608 2.97814 3.39729 3.38308 2.5129 1.52418 1.12348 1.02903 1.00313 0.150449 0.16058 0.158311 0.167513 0.187677 0.20922 0.235958 0.267037 0.303384 0.345368 0.394008 0.450568 0.51754 0.597854 0.695857 0.81796 0.974693 1.1773 1.44867 1.81655 2.31752 2.90376 3.38923 3.4602 2.78269 1.69868 1.16806 1.04619 1.00665 1.00024 0.189132 0.201015 0.198084 0.208032 0.231593 0.25714 0.288958 0.325898 0.369638 0.420003 0.478796 0.54791 0.629777 0.729881 0.853516 1.00954 1.21219 1.4789 1.8366 2.31496 2.89143 3.38843 3.46098 2.91616 1.83963 1.23614 1.06328 1.01139 1.00071 1 0.240625 0.254555 0.250777 0.261086 0.288363 0.318635 0.356673 0.40131 0.454118 0.516085 0.588122 0.674431 0.777228 0.904546 1.06418 1.26957 1.53633 1.89146 2.36706 2.91087 3.35807 3.49139 2.99546 1.97996 1.27719 1.07611 1.01708 1.00147 1.00001 1 0.309847 0.326155 0.321461 0.331729 0.362963 0.398988 0.444685 0.499114 0.564484 0.641586 0.732698 0.842771 0.97628 1.14447 1.35643 1.63011 1.99629 2.4584 2.97029 3.40426 3.47925 3.01242 1.98926 1.30217 1.08833 1.02165 1.00232 1.00004 1 1 0.403762 0.422694 0.417561 0.427239 0.463461 0.505762 0.561812 0.629103 0.71098 0.810467 0.927753 1.07418 1.25024 1.47715 1.7646 2.1301 2.5909 3.07188 3.40463 3.4378 2.91557 1.95299 1.31425 1.08981 1.02421 1.00303 1.00007 1 1 1 0.531919 0.553582 0.549789 0.557607 0.601667 0.650979 0.720179 0.806339 0.911527 1.04292 1.19948 1.39707 1.63696 1.94383 2.32661 2.76085 3.17402 3.40422 3.40865 2.75431 1.87343 1.27266 1.0867 1.02468 1.00329 1.0001 1 1 1 1 0.711017 0.730671 0.735104 0.738608 0.791349 0.850598 0.938516 1.05123 1.19256 1.3691 1.58148 1.85298 2.1782 2.55931 2.94247 3.26941 3.40945 3.22036 2.54536 1.68109 1.23132 1.0782 1.02147 1.00303 1.0001 1 1 1 1 1 0.982288 0.987754 1.01312 1.01157 1.06854 1.1406 1.24991 1.39782 1.58675 1.82884 2.11382 2.4514 2.78891 3.11809 3.31052 3.31548 2.99138 2.21632 1.51748 1.17671 1.06197 1.01703 1.00232 1.00007 1 1 1 1 1 1 1.42262 1.41472 1.46091 1.4583 1.5188 1.59837 1.72594 1.90287 2.12706 2.40897 2.71899 3.03363 3.22028 3.28087 3.16078 2.59474 1.8883 1.34314 1.11751 1.04634 1.01147 1.00146 1.00004 1 1 1 1 1 1 1 2.83514 2.80218 2.84881 2.77772 2.7561 2.74843 2.7958 2.88833 3.00124 3.11123 3.19266 3.22699 3.12469 2.74879 2.14191 1.52951 1.19426 1.08212 1.0293 1.00662 1.00071 1.00001 1 1 1 1 1 1 1 1 6.53267 6.50978 6.58957 6.48027 6.4004 6.28219 6.15667 5.93513 5.55701 5.01915 4.30239 3.4519 2.57621 1.79826 1.32921 1.13408 1.05071 1.01553 1.00313 1.00024 1 1 1 1 1 1 1 1 1 1
				</DataArray>
				<DataArray Name="Energy" type="Float32" format="ascii">
 883.986 836.523 743.361 621.02 501.572 401.668 322.397 260.932 213.151 175.623 145.694 121.463 101.565 85.0237 71.1261 59.349 49.3118 40.7345 33.4162 27.2027 21.9713 17.615 14.0367 11.1354 8.81542 6.99347 5.61236 4.63803 4.37073 3.59337 836.892 798.211 722.019 612.519 497.779 397.58 316.525 253.301 204.425 166.511 136.771 113.13 94.066 78.4689 65.5383 54.6896 45.5085 37.6859 31.005 25.3118 20.4971 16.4684 13.149 10.4552 8.30174 6.60121 5.3079 4.40964 4.19286 3.48994 743.911 722.056 675.88 594.735 498.553 405.951 326.89 262.937 212.424 172.844 141.688 116.907 96.9412 80.6417 67.1705 55.921 46.4479 38.4263 31.6166 25.8434 20.9726 16.896 13.5204 10.7608 8.53522 6.76949 5.41501 4.44742 4.12865 3.4435 621.636 612.365 594.357 541.79 466.762 389.22 317.821 257.38 208.212 168.972 137.783 112.905 92.913 76.7135 63.4787 52.5841 43.5563 36.0268 29.7217 24.4262 19.9745 16.2396 13.1238 10.542 8.4204 6.69403 5.35 4.39176 4.05352 3.40574 502.243 497.66 498.006 466.325 410.778 348.421 287.562 234.1 189.44 153.285 124.373 101.342 82.9532 68.2034 56.2867 46.5775 38.6052 32.0076 26.5146 21.9173 18.0574 14.8125 12.0957 9.82992 7.95683 6.41242 5.18736 4.28817 3.94107 3.35135 402.336 397.532 405.445 388.681 348.15 299.834 250.4 205.458 167.031 135.454 110.002 89.6608 73.4118 60.3928 49.8917 41.3527 34.3511 28.5646 23.7495 19.7206 16.3403 13.4966 11.1103 9.1113 7.44612 6.06103 4.9431 4.10564 3.74749 3.24865 323.002 316.58 326.53 317.359 287.231 250.256 211.007 174.542 142.774 116.367 94.8944 77.6381 63.7896 52.6584 43.652 36.3084 30.2715 25.2695 21.0984 17.6009 14.6603 12.1822 10.0962 8.34203 6.87384 5.64525 4.63385 3.86025 3.47573 3.07538 261.474 253.432 262.761 257.07 233.836 205.302 174.48 145.455 119.854 98.3593 80.7319 66.455 54.9192 45.5812 37.9826 31.7469 26.5944 22.3018 18.7055 15.6766 13.1222 10.9612 9.13945 7.59918 6.30404 5.21575 4.3027 3.5822 3.16508 2.83874 213.623 204.602 212.4 208.079 189.3 166.945 142.746 119.86 99.5081 82.2918 68.0606 56.4397 46.9702 39.2423 32.9001 27.6576 23.2918 19.632 16.5469 13.9334 11.7177 9.83462 8.23934 6.88668 5.74269 4.77839 3.9636 3.29212 2.84339 2.53433 176.018 166.691 172.903 168.966 153.261 135.458 116.401 98.4059 82.3235 68.6317 57.2249 47.8361 40.1143 33.7551 28.4881 24.0961 20.408 17.2922 14.6472 12.3938 10.4716 8.82909 7.43245 6.2404 5.23055 4.37043 3.64152 3.01232 2.52843 2.17054 146.018 136.93 141.779 137.838 124.409 110.053 94.9675 80.804 68.1111 57.249 48.1294 40.5581 34.2778 29.0534 24.6866 21.0107 17.8981 15.2461 12.9785 11.0324 9.36413 7.92868 6.70211 5.65024 4.7531 3.98465 3.33447 2.74295 2.22731 1.76425 121.728 113.265 117.004 112.984 101.401 89.7296 77.7174 66.5326 56.4964 47.8663 40.571 34.4614 29.3459 25.0523 21.4273 18.3488 15.7184 13.4598 11.5137 9.83283 8.38247 7.12987 6.05202 5.12405 4.327 3.63717 3.04381 2.47966 1.93735 1.32491 101.784 94.179 97.0306 92.9915 83.0173 73.483 63.8718 54.9935 47.0281 40.1516 34.2958 29.3542 25.1781 21.6403 18.6266 16.0437 13.8182 11.892 10.2205 8.76593 7.50405 6.40751 5.45894 4.63619 3.92551 3.30732 2.7487 2.1979 1.62234 0.858539 85.2051 78.5651 80.7189 76.7801 68.2553 60.4491 52.7215 45.6437 39.2905 33.7882 29.074 25.0628 21.6446 18.7225 16.2105 14.04 12.1542 10.5093 9.07248 7.81413 6.71521 5.75596 4.92238 4.19254 3.5572 2.99313 2.45439 1.89589 1.24317 0.409285 71.2778 65.6232 67.2381 63.5329 56.3239 49.9321 43.6974 38.0241 32.9351 28.5136 24.7025 21.4377 18.6318 16.2132 14.116 12.2883 10.6888 9.28291 8.0464 6.95659 6.00066 5.16022 4.42323 3.7758 3.20773 2.67519 2.14134 1.54701 0.767311 0.104546 59.4753 54.7647 55.9812 52.6297 46.6047 41.3783 36.3371 31.7755 27.68 24.1129 21.0226 18.3567 16.0487 14.0429 12.2902 10.7502 9.39185 8.19 7.12603 6.1816 5.34925 4.61313 3.9614 3.38625 2.86458 2.34964 1.79439 1.09751 0.294659 0.0116399 49.4165 45.5748 46.5027 43.5953 38.6264 34.3692 30.2894 26.6105 23.3061 20.4186 17.9045 15.7233 13.8215 12.1563 10.6902 9.39285 8.23999 7.21209 6.29682 5.47869 4.75295 4.10612 3.52979 3.01556 2.51645 1.99081 1.37267 0.562199 0.0500799 0.00066818 40.8202 37.7445 38.4751 36.0611 32.0257 28.577 25.2803 22.3105 19.6394 17.2975 15.2493 13.4613 11.893 10.51 9.28321 8.19003 7.21269 6.33435 5.54622 4.84146 4.20639 3.63884 3.13185 2.64693 2.15195 1.57893 0.81767 0.135721 0.00340712 1.59694e-05 33.4848 31.0554 31.6597 29.7504 26.5306 23.7597 21.1057 18.7094 16.5492 14.6496 12.9787 11.5133 10.2191 9.07128 8.04543 7.12439 6.29556 5.54775 4.87061 4.25761 3.70728 3.20965 2.73892 2.26191 1.72953 1.03174 0.26983 0.0117999 9.26242e-05 2.60975e-06 27.2563 25.354 25.8806 24.4507 21.9306 19.73 17.6068 15.6802 13.935 12.394 11.0331 9.83174 8.7649 7.81206 6.95528 6.17983 5.47751 4.83812 4.25879 3.72615 3.24506 2.79573 2.33936 1.84127 1.19674 0.409294 0.0298324 0.000383023 3.23699e-06 2.50077e-06 22.0122 20.5316 21.0032 19.9945 18.0683 16.3472 14.6661 13.1243 11.7188 10.4714 9.36281 8.38194 7.50275 6.71476 5.99836 5.34773 4.7529 4.20512 3.70496 3.24833 2.81346 2.37992 1.89768 1.30106 0.529984 0.0584912 0.00109357 5.89897e-06 2.50482e-06 2.5e-06 17.6452 16.4957 16.9207 16.2555 14.8217 13.5022 12.1853 10.9649 9.8363 8.83062 7.92982 7.12972 6.40688 5.75561 5.15846 4.60995 4.10505 3.63792 3.20629 2.79477 2.37517 1.92276 1.35399 0.610392 0.0844521 0.00218363 1.3441e-05 2.51814e-06 2.50002e-06 2.5e-06 14.0581 13.1693 13.5395 13.1361 12.1022 11.1148 10.0987 9.14029 8.2415 7.43236 6.70257 6.05241 5.45899 4.92196 4.42516 3.96091 3.53234 3.13147 2.73977 2.34183 1.901 1.35706 0.636956 0.101649 0.00328501 2.48319e-05 2.5446e-06 2.50006e-06 2.5e-06 2.5e-06 11.1501 10.4698 10.7749 10.5514 9.83499 9.11364 8.34344 7.59967 6.88587 6.24128 5.64963 5.12449 4.63725 4.19238 3.77441 3.38336 3.01559 2.64454 2.26167 1.83397 1.30115 0.607873 0.102873 0.00373621 3.45483e-05 2.57731e-06 2.50013e-06 2.5e-06 2.5e-06 2.5e-06 8.82501 8.31154 8.54506 8.4272 7.96068 7.4482 6.87451 6.30536 5.74355 5.23041 4.75385 4.32556 3.92489 3.5572 3.20631 2.86317 2.517 2.14669 1.73571 1.19293 0.53247 0.0844723 0.00326756 3.49707e-05 2.59233e-06 2.5002e-06 2.5e-06 2.5e-06 2.5e-06 2.5e-06 6.99954 6.60748 6.77604 6.69886 6.4148 6.0621 5.64583 5.2148 4.77869 4.37039 3.98481 3.63736 3.30629 2.99431 2.67496 2.34687 1.99774 1.57536 1.0325 0.408203 0.0574897 0.00220078 2.48555e-05 2.57699e-06 2.50021e-06 2.5e-06 2.5e-06 2.5e-06 2.5e-06 2.5e-06 5.61612 5.31182 5.41917 5.35335 5.189 4.94354 4.63421 4.30281 3.96273 3.64265 3.33358 3.04596 2.74922 2.4545 2.14462 1.79058 1.37333 0.81916 0.267249 0.0306822 0.00108684 1.32722e-05 2.54494e-06 2.50013e-06 2.5e-06 2.5e-06 2.5e-06 2.5e-06 2.5e-06 2.5e-06 4.64029 4.41197 4.44999 4.39374 4.28932 4.10605 3.86003 3.58258 3.29138 3.01334 2.7416 2.47927 2.19881 1.89214 1.54731 1.09652 0.56092 0.138525 0.0114611 0.000383209 5.97676e-06 2.51798e-06 2.50005e-06 2.5e-06 2.5e-06 2.5e-06 2.5e-06 2.5e-06 2.5e-06 2.5e-06 4.37209 4.19454 4.13048 4.05474 3.94216 3.74796 3.47539 3.16557 2.84288 2.5285 2.22766 1.93732 1.62515 1.24201 0.767975 0.295879 0.0486358 0.00346595 9.33541e-05 3.22146e-06 2.50481e-06 2.50002e-06 2.5e-06 2.5e-06 2.5e-06 2.5e-06 2.5e-06 2.5e-06 2.5e-06 2.5e-06 3.59306 3.48971 3.44342 3.40557 3.35157 3.2483 3.07516 2.83861 2.53458 2.17081 1.76363 1.32439 0.861372 0.408124 0.103735 0.0119637 0.000652066 1.57438e-05 2.61122e-06 2.50079e-06 2.5e-06 2.5e-06 2.5e-06 2.5e-06 2.5e-06 2.5e-06 2.5e-06 2.5e-06 2.5e-06 2.5e-06
				</DataArray>
				<DataArray Name="F1" type="Float32" format="ascii">
 1 1 1 1 1 1 1 1 1 1 1 1 1 1 1 1 1 1 1 1 1 1 1 1 1 1 1 1 1 1 1 1 1 1 1 1 1 1 1 1 1 1 1 1 1 1 1 1 1 1 1 1 1 1 1 1 1 1 1 1 1 1 1 1 1 1 1 1 1 1 1 1 1 1 1 1 1 1 1 1 1 1 1 1 1 1 1 1 1 1 1 1 1 1 1 1 1 1 1 1 1 1 1 1 1 1 1 1 1 1 1 1 1 1 1 1 1 1 1 1 1 1 1 1 1 1 1 1 1 1 1 1 1 1 1 1 1 1 1 1 1 1 1 1 1 1 1 1 1 1 1 1 1 1 1 1 1 1 1 1 1 1 1 1 1 1 1 1 1 1 1 1 1 1 1 1 1 1 1 1 1 1 1 1 1 1 1 1 1 1 1 1 1 1 1 1 1 1 1 1 1 1 1 1 1 1 1 1 1 1 1 1 1 1 1 1 1 1 1 1 1 1 1 1 1 1 1 1 1 1 1 1 1 1 1 1 1 1 1 1 1 1 1 1 1 1 1 1 1 1 1 1 1 1 1 1 1 1 1 1 1 1 1 1 1 1 1 1 1 1 1 1 1 1 1 1 1 1 1 1 1 1 1 1 1 1 1 1 1 1 1 1 1 1 1 1 1 1 1 1 1 1 1 1 1 1 1 1 1 1 1 1 1 1 1 1 1 1 1 1 1 1 1 1 1 1 1 1 1 1 1 1 1 1 1 1 1 1 1 1 1 1 1 1 1 1 1 1 1 1 1 1 1 1 1 1 1 1 1 1 1 1 1 1 1 1 1 1 1 1 1 1 1 1 1 1 1 1 1 1 1 1 1 1 1 1 1 1 1 1 1 1 1 1 1 1 1 1 1 1 1 1 1 1 1 1 1 1 1 1 1 1 1 1 1 1 1 1 1 1 1 1 1 1 1 1 1 1 1 1 1 1 1 1 1 1 1 1 1 1 1 1 1 1 1 1 1 1 1 1 1 1 1 1 1 1 1 1 1 1 1 1 1 1 1 1 1 1 1 1 1 1 1 1 1 1 1 1 1 1 1 1 1 1 1 1 1 1 1 1 1 1 1 1 1 1 1 1 1 1 1 1 1 1 1 1 1 1 1 1 1 1 1 1 1 1 1 1 1 1 1 1 1 1 1 1 1 1 1 1 1 1 1 1 1 1 1 1 1 1 1 1 1 1 1 1 1 1 1 1 1 1 1 1 1 1 1 1 1 1 1 1 1 1 1 1 1 1 1 1 1 1 1 1 1 1 1 1 1 1 1 1 1 1 1 1 1 1 1 1 1 1 1 1 1 1 1 1 1 1 1 1 1 1 1 1 1 1 1 1 1 1 1 1 1 1 1 1 1 1 1 1 1 1 1 1 1 1 1 1 1 1 1 1 1 1 1 1 1 1 1 1 1 1 1 1 1 1 1 1 1 1 1 1 1 1 1 1 1 1 1 1 1 1 1 1 1 1 1 1 1 1 1 1 1 1 1 1 1 1 1 1 1 1 1 1 1 1 1 1 1 1 1 1 1 1 1 1 1 1 1 1 1 1 1 1 1 1 1 1 1 1 1 1 1 1 1 1 1 1 1 1 1 1 1 1 1 1 1 1 1 1 1 1 1 1 1 1 1 1 1 1 1 1 1 1 1 1 1 1 1 1 1 1 1 1 1 1 1 1 1 1 1 1 1 1 1 1 1 1 1 1 1 1 1 1 1 1 1 1 1 1 1 1 1 1 1 1 1 1 1 1 1 1 1 1 1 1 1 1 1 1 1 1 1 1 1 1 1 1 1 1 1 1 1 1 1 1 1 1 1 1 1 1 1 1 1 1 1 1 1 1 1 1 1 1 1 1 1 1 1 1 1 1 1 1 1 1 1 1 1 1 1 1 1 1 1 1 1 1 1 1 1 1 1 1 1 1 1 1 1 1 1 1 1 1 1 1 1 1 1 1 1 1 1 1 1 1 1 1 1 1 1 1 1 1 1 1 1 1
				</DataArray>
				<DataArray Name="F2" type="Float32" format="ascii">
 0 0 0 0 0 0 0 0 0 0 0 0 0 0 0 0 0 0 0 0 0 0 0 0 0 0 0 0 0 0 0 0 0 0 0 0 0 0 0 0 0 0 0 0 0 0 0 0 0 0 0 0 0 0 0 0 0 0 0 0 0 0 0 0 0 0 0 0 0 0 0 0 0 0 0 0 0 0 0 0 0 0 0 0 0 0 0 0 0 0 0 0 0 0 0 0 0 0 0 0 0 0 0 0 0 0 0 0 0 0 0 0 0 0 0 0 0 0 0 0 0 0 0 0 0 0 0 0 0 0 0 0 0 0 0 0 0 0 0 0 0 0 0 0 0 0 0 0 0 0 0 0 0 0 0 0 0 0 0 0 0 0 0 0 0 0 0 0 0 0 0 0 0 0 0 0 0 0 0 0 0 0 0 0 0 0 0 0 0 0 0 0 0 0 0 0 0 0 0 0 0 0 0 0 0 0 0 0 0 0 0 0 0 0 0 0 0 0 0 0 0 0 0 0 0 0 0 0 0 0 0 0 0 0 0 0 0 0 0 0 0 0 0 0 0 0 0 0 0 0 0 0 0 0 0 0 0 0 0 0 0 0 0 0 0 0 0 0 0 0 0 0 0 0 0 0 0 0 0 0 0 0 0 0 0 0 0 0 0 0 0 0 0 0 0 0 0 0 0 0 0 0 0 0 0 0 0 0 0 0 0 0 0 0 0 0 0 0 0 0 0 0 0 0 0 0 0 0 0 0 0 0 0 0 0 0 0 0 0 0 0 0 0 0 0 0 0 0 0 0 0 0 0 0 0 0 0 0 0 0 0 0 0 0 0 0 0 0 0 0 0 0 0 0 0 0 0 0 0 0 0 0 0 0 0 0 0 0 0 0 0 0 0 0 0 0 0 0 0 0 0 0 0 0 0 0 0 0 0 0 0 0 0 0 0 0 0 0 0 0 0 0 0 0 0 0 0 0 0 0 0 0 0 0 0 0 0 0 0 0 0 0 0 0 0 0 0 0 0 0 0 0 0 0 0 0 0 0 0 0 0 0 0 0 0 0 0 0 0 0 0 0 0 0 0 0 0 0 0 0 0 0 0 0 0 0 0 0 0 0 0 0 0 0 0 0 0 0 0 0 0 0 0 0 0 0 0 0 0 0 0 0 0 0 0 0 0 0 0 0 0 0 0 0 0 0 0 0 0 0 0 0 0 0 0 0 0 0 0 0 0 0 0 0 0 0 0 0 0 0 0 0 0 0 0 0 0 0 0 0 0 0 0 0 0 0 0 0 0 0 0 0 0 0 0 0 0 0 0 0 0 0 0 0 0 0 0 0 0 0 0 0 0 0 0 0 0 0 0 0 0 0 0 0 0 0 0 0 0 0 0 0 0 0 0 0 0 0 0 0 0 0 0 0 0 0 0 0 0 0 0 0 0 0 0 0 0 0 0 0 0 0 0 0 0 0 0 0 0 0 0 0 0 0 0 0 0 0 0 0 0 0 0 0 0 0 0 0 0 0 0 0 0 0 0 0 0 0 0 0 0 0 0 0 0 0 0 0 0 0 0 0 0 0 0 0 0 0 0 0 0 0 0 0 0 0 0 0 0 0 0 0 0 0 0 0 0 0 0 0 0 0 0 0 0 0 0 0 0 0 0 0 0 0 0 0 0 0 0 0 0 0 0 0 0 0 0 0 0 0 0 0 0 0 0 0 0 0 0 0 0 0 0 0 0 0 0 0 0 0 0 0 0 0 0 0 0 0 0 0 0 0 0 0 0 0 0 0 0 0 0 0 0 0 0 0 0 0 0 0 0 0 0 0 0 0 0 0 0 0 0 0 0 0 0 0 0 0 0 0 0 0 0 0 0 0 0 0 0 0 0 0 0 0 0 0 0 0 0 0 0 0 0 0 0 0 0 0 0 0 0 0 0 0 0 0 0 0 0 0 0 0 0 0 0 0 0 0 0 0 0 0 0 0 0 0 0 0 0 0 0 0 0 0 0 0 0 0 0 0 0 0 0 0 0 0 0 0 0 0
				</DataArray>
				<DataArray Name="F3" type="Float32" format="ascii">