<?xml version="1.0"?>
<VTKFile type="PolyData">
	<PolyData>
		<Piece NumberOfPoints="961" NumberOfPolys="900">
			<Points>
				<DataArray type="Float32" NumberOfComponents="3" format="ascii">
 0 0 0 0.04 0 0 0.08 0 0 0.12 0 0 0.16 0 0 0.2 0 0 0.24 0 0 0.28 0 0 0.32 0 0 0.36 0 0 0.4 0 0 0.44 0 0 0.48 0 0 0.52 0 0 0.56 0 0 0.6 0 0 0.64 0 0 0.68 0 0 0.72 0 0 0.76 0 0 0.8 0 0 0.84 0 0 0.88 0 0 0.92 0 0 0.96 0 0 1 0 0 1.04 0 0 1.08 0 0 1.12 0 0 1.16 0 0 1.2 0 0 0 0.04 0 0.04 0.04 0 0.08 0.04 0 0.12 0.04 0 0.16 0.04 0 0.2 0.04 0 0.24 0.04 0 0.28 0.04 0 0.32 0.04 0 0.36 0.04 0 0.4 0.04 0 0.44 0.04 0 0.48 0.04 0 0.52 0.04 0 0.56 0.04 0 0.6 0.04 0 0.64 0.04 0 0.68 0.04 0 0.72 0.04 0 0.76 0.04 0 0.8 0.04 0 0.84 0.04 0 0.88 0.04 0 0.92 0.04 0 0.96 0.04 0 1 0.04 0 1.04 0.04 0 1.08 0.04 0 1.12 0.04 0 1.16 0.04 0 1.2 0.04 0 0 0.08 0 0.04 0.08 0 0.08 0.08 0 0.12 0.08 0 0.16 0.08 0 0.2 0.08 0 0.24 0.08 0 0.28 0.08 0 0.32 0.08 0 0.36 0.08 0 0.4 0.08 0 0.44 0.08 0 0.48 0.08 0 0.52 0.08 0 0.56 0.08 0 0.6 0.08 0 0.64 0.08 0 0.68 0.08 0 0.72 0.08 0 0.76 0.08 0 0.8 0.08 0 0.84 0.08 0 0.88 0.08 0 0.92 0.08 0 0.96 0.08 0 1 0.08 0 1.04 0.08 0 1.08 0.08 0 1.12 0.08 0 1.16 0.08 0 1.2 0.08 0 0 0.12 0 0.04 0.12 0 0.08 0.12 0 0.12 0.12 0 0.16 0.12 0 0.2 0.12 0 0.24 0.12 0 0.28 0.12 0 0.32 0.12 0 0.36 0.12 0 0.4 0.12 0 0.44 0.12 0 0.48 0.12 0 0.52 0.12 0 0.56 0.12 0 0.6 0.12 0 0.64 0.12 0 0.68 0.12 0 0.72 0.12 0 0.76 0.12 0 0.8 0.12 0 0.84 0.12 0 0.88 0.12 0 0.92 0.12 0 0.96 0.12 0 1 0.12 0 1.04 0.12 0 1.08 0.12 0 1.12 0.12 0 1.16 0.12 0 1.2 0.12 0 0 0.16 0 0.04 0.16 0 0.08 0.16 0 0.12 0.16 0 0.16 0.16 0 0.2 0.16 0 0.24 0.16 0 0.28 0.16 0 0.32 0.16 0 0.36 0.16 0 0.4 0.16 0 0.44 0.16 0 0.48 0.16 0 0.52 0.16 0 0.56 0.16 0 0.6 0.16 0 0.64 0.16 0 0.68 0.16 0 0.72 0.16 0 0.76 0.16 0 0.8 0.16 0 0.84 0.16 0 0.88 0.16 0 0.92 0.16 0 0.96 0.16 0 1 0.16 0 1.04 0.16 0 1.08 0.16 0 1.12 0.16 0 1.16 0.16 0 1.2 0.16 0 0 0.2 0 0.04 0.2 0 0.08 0.2 0 0.12 0.2 0 0.16 0.2 0 0.2 0.2 0 0.24 0.2 0 0.28 0.2 0 0.32 0.2 0 0.36 0.2 0 0.4 0.2 0 0.44 0.2 0 0.48 0.2 0 0.52 0.2 0 0.56 0.2 0 0.6 0.2 0 0.64 0.2 0 0.68 0.2 0 0.72 0.2 0 0.76 0.2 0 0.8 0.2 0 0.84 0.2 0 0.88 0.2 0 0.92 0.2 0 0.96 0.2 0 1 0.2 0 1.04 0.2 0 1.08 0.2 0 1.12 0.2 0 1.16 0.2 0 1.2 0.2 0 0 0.24 0 0.04 0.24 0 0.08 0.24 0 0.12 0.24 0 0.16 0.24 0 0.2 0.24 0 0.24 0.24 0 0.28 0.24 0 0.32 0.24 0 0.36 0.24 0 0.4 0.24 0 0.44 0.24 0 0.48 0.24 0 0.52 0.24 0 0.56 0.24 0 0.6 0.24 0 0.64 0.24 0 0.68 0.24 0 0.72 0.24 0 0.76 0.24 0 0.8 0.24 0 0.84 0.24 0 0.88 0.24 0 0.92 0.24 0 0.96 0.24 0 1 0.24 0 1.04 0.24 0 1.08 0.24 0 1.12 0.24 0 1.16 0.24 0 1.2 0.24 0 0 0.28 0 0.04 0.28 0 0.08 0.28 0 0.12 0.28 0 0.16 0.28 0 0.2 0.28 0 0.24 0.28 0 0.28 0.28 0 0.32 0.28 0 0.36 0.28 0 0.4 0.28 0 0.44 0.28 0 0.48 0.28 0 0.52 0.28 0 0.56 0.28 0 0.6 0.28 0 0.64 0.28 0 0.68 0.28 0 0.72 0.28 0 0.76 0.28 0 0.8 0.28 0 0.84 0.28 0 0.88 0.28 0 0.92 0.28 0 0.96 0.28 0 1 0.28 0 1.04 0.28 0 1.08 0.28 0 1.12 0.28 0 1.16 0.28 0 1.2 0.28 0 0 0.32 0 0.04 0.32 0 0.08 0.32 0 0.12 0.32 0 0.16 0.32 0 0.2 0.32 0 0.24 0.32 0 0.28 0.32 0 0.32 0.32 0 0.36 0.32 0 0.4 0.32 0 0.44 0.32 0 0.48 0.32 0 0.52 0.32 0 0.56 0.32 0 0.6 0.32 0 0.64 0.32 0 0.68 0.32 0 0.72 0.32 0 0.76 0.32 0 0.8 0.32 0 0.84 0.32 0 0.88 0.32 0 0.92 0.32 0 0.96 0.32 0 1 0.32 0 1.04 0.32 0 1.08 0.32 0 1.12 0.32 0 1.16 0.32 0 1.2 0.32 0 0 0.36 0 0.04 0.36 0 0.08 0.36 0 0.12 0.36 0 0.16 0.36 0 0.2 0.36 0 0.24 0.36 0 0.28 0.36 0 0.32 0.36 0 0.36 0.36 0 0.4 0.36 0 0.44 0.36 0 0.48 0.36 0 0.52 0.36 0 0.56 0.36 0 0.6 0.36 0 0.64 0.36 0 0.68 0.36 0 0.72 0.36 0 0.76 0.36 0 0.8 0.36 0 0.84 0.36 0 0.88 0.36 0 0.92 0.36 0 0.96 0.36 0 1 0.36 0 1.04 0.36 0 1.08 0.36 0 1.12 0.36 0 1.16 0.36 0 1.2 0.36 0 0 0.4 0 0.04 0.4 0 0.08 0.4 0 0.12 0.4 0 0.16 0.4 0 0.2 0.4 0 0.24 0.4 0 0.28 0.4 0 0.32 0.4 0 0.36 0.4 0 0.4 0.4 0 0.44 0.4 0 0.48 0.4 0 0.52 0.4 0 0.56 0.4 0 0.6 0.4 0 0.64 0.4 0 0.68 0.4 0 0.72 0.4 0 0.76 0.4 0 0.8 0.4 0 0.84 0.4 0 0.88 0.4 0 0.92 0.4 0 0.96 0.4 0 1 0.4 0 1.04 0.4 0 1.08 0.4 0 1.12 0.4 0 1.16 0.4 0 1.2 0.4 0 0 0.44 0 0.04 0.44 0 0.08 0.44 0 0.12 0.44 0 0.16 0.44 0 0.2 0.44 0 0.24 0.44 0 0.28 0.44 0 0.32 0.44 0 0.36 0.44 0 0.4 0.44 0 0.44 0.44 0 0.48 0.44 0 0.52 0.44 0 0.56 0.44 0 0.6 0.44 0 0.64 0.44 0 0.68 0.44 0 0.72 0.44 0 0.76 0.44 0 0.8 0.44 0 0.84 0.44 0 0.88 0.44 0 0.92 0.44 0 0.96 0.44 0 1 0.44 0 1.04 0.44 0 1.08 0.44 0 1.12 0.44 0 1.16 0.44 0 1.2 0.44 0 0 0.48 0 0.04 0.48 0 0.08 0.48 0 0.12 0.48 0 0.16 0.48 0 0.2 0.48 0 0.24 0.48 0 0.28 0.48 0 0.32 0.48 0 0.36 0.48 0 0.4 0.48 0 0.44 0.48 0 0.48 0.48 0 0.52 0.48 0 0.56 0.48 0 0.6 0.48 0 0.64 0.48 0 0.68 0.48 0 0.72 0.48 0 0.76 0.48 0 0.8 0.48 0 0.84 0.48 0 0.88 0.48 0 0.92 0.48 0 0.96 0.48 0 1 0.48 0 1.04 0.48 0 1.08 0.48 0 1.12 0.48 0 1.16 0.48 0 1.2 0.48 0 0 0.52 0 0.04 0.52 0 0.08 0.52 0 0.12 0.52 0 0.16 0.52 0 0.2 0.52 0 0.24 0.52 0 0.28 0.52 0 0.32 0.52 0 0.36 0.52 0 0.4 0.52 0 0.44 0.52 0 0.48 0.52 0 0.52 0.52 0 0.56 0.52 0 0.6 0.52 0 0.64 0.52 0 0.68 0.52 0 0.72 0.52 0 0.76 0.52 0 0.8 0.52 0 0.84 0.52 0 0.88 0.52 0 0.92 0.52 0 0.96 0.52 0 1 0.52 0 1.04 0.52 0 1.08 0.52 0 1.12 0.52 0 1.16 0.52 0 1.2 0.52 0 0 0.56 0 0.04 0.56 0 0.08 0.56 0 0.12 0.56 0 0.16 0.56 0 0.2 0.56 0 0.24 0.56 0 0.28 0.56 0 0.32 0.56 0 0.36 0.56 0 0.4 0.56 0 0.44 0.56 0 0.48 0.56 0 0.52 0.56 0 0.56 0.56 0 0.6 0.56 0 0.64 0.56 0 0.68 0.56 0 0.72 0.56 0 0.76 0.56 0 0.8 0.56 0 0.84 0.56 0 0.88 0.56 0 0.92 0.56 0 0.96 0.56 0 1 0.56 0 1.04 0.56 0 1.08 0.56 0 1.12 0.56 0 1.16 0.56 0 1.2 0.56 0 0 0.6 0 0.04 0.6 0 0.08 0.6 0 0.12 0.6 0 0.16 0.6 0 0.2 0.6 0 0.24 0.6 0 0.28 0.6 0 0.32 0.6 0 0.36 0.6 0 0.4 0.6 0 0.44 0.6 0 0.48 0.6 0 0.52 0.6 0 0.56 0.6 0 0.6 0.6 0 0.64 0.6 0 0.68 0.6 0 0.72 0.6 0 0.76 0.6 0 0.8 0.6 0 0.84 0.6 0 0.88 0.6 0 0.92 0.6 0 0.96 0.6 0 1 0.6 0 1.04 0.6 0 1.08 0.6 0 1.12 0.6 0 1.16 0.6 0 1.2 0.6 0 0 0.64 0 0.04 0.64 0 0.08 0.64 0 0.12 0.64 0 0.16 0.64 0 0.2 0.64 0 0.24 0.64 0 0.28 0.64 0 0.32 0.64 0 0.36 0.64 0 0.4 0.64 0 0.44 0.64 0 0.48 0.64 0 0.52 0.64 0 0.56 0.64 0 0.6 0.64 0 0.64 0.64 0 0.68 0.64 0 0.72 0.64 0 0.76 0.64 0 0.8 0.64 0 0.84 0.64 0 0.88 0.64 0 0.92 0.64 0 0.96 0.64 0 1 0.64 0 1.04 0.64 0 1.08 0.64 0 1.12 0.64 0 1.16 0.64 0 1.2 0.64 0 0 0.68 0 0.04 0.68 0 0.08 0.68 0 0.12 0.68 0 0.16 0.68 0 0.2 0.68 0 0.24 0.68 0 0.28 0.68 0 0.32 0.68 0 0.36 0.68 0 0.4 0.68 0 0.44 0.68 0 0.48 0.68 0 0.52 0.68 0 0.56 0.68 0 0.6 0.68 0 0.64 0.68 0 0.68 0.68 0 0.72 0.68 0 0.76 0.68 0 0.8 0.68 0 0.84 0.68 0 0.88 0.68 0 0.92 0.68 0 0.96 0.68 0 1 0.68 0 1.04 0.68 0 1.08 0.68 0 1.12 0.68 0 1.16 0.68 0 1.2 0.68 0 0 0.72 0 0.04 0.72 0 0.08 0.72 0 0.12 0.72 0 0.16 0.72 0 0.2 0.72 0 0.24 0.72 0 0.28 0.72 0 0.32 0.72 0 0.36 0.72 0 0.4 0.72 0 0.44 0.72 0 0.48 0.72 0 0.52 0.72 0 0.56 0.72 0 0.6 0.72 0 0.64 0.72 0 0.68 0.72 0 0.72 0.72 0 0.76 0.72 0 0.8 0.72 0 0.84 0.72 0 0.88 0.72 0 0.92 0.72 0 0.96 0.72 0 1 0.72 0 1.04 0.72 0 1.08 0.72 0 1.12 0.72 0 1.16 0.72 0 1.2 0.72 0 0 0.76 0 0.04 0.76 0 0.08 0.76 0 0.12 0.76 0 0.16 0.76 0 0.2 0.76 0 0.24 0.76 0 0.28 0.76 0 0.32 0.76 0 0.36 0.76 0 0.4 0.76 0 0.44 0.76 0 0.48 0.76 0 0.52 0.76 0 0.56 0.76 0 0.6 0.76 0 0.64 0.76 0 0.68 0.76 0 0.72 0.76 0 0.76 0.76 0 0.8 0.76 0 0.84 0.76 0 0.88 0.76 0 0.92 0.76 0 0.96 0.76 0 1 0.76 0 1.04 0.76 0 1.08 0.76 0 1.12 0.76 0 1.16 0.76 0 1.2 0.76 0 0 0.8 0 0.04 0.8 0 0.08 0.8 0 0.12 0.8 0 0.16 0.8 0 0.2 0.8 0 0.24 0.8 0 0.28 0.8 0 0.32 0.8 0 0.36 0.8 0 0.4 0.8 0 0.44 0.8 0 0.48 0.8 0 0.52 0.8 0 0.56 0.8 0 0.6 0.8 0 0.64 0.8 0 0.68 0.8 0 0.72 0.8 0 0.76 0.8 0 0.8 0.8 0 0.84 0.8 0 0.88 0.8 0 0.92 0.8 0 0.96 0.8 0 1 0.8 0 1.04 0.8 0 1.08 0.8 0 1.12 0.8 0 1.16 0.8 0 1.2 0.8 0 0 0.84 0 0.04 0.84 0 0.08 0.84 0 0.12 0.84 0 0.16 0.84 0 0.2 0.84 0 0.24 0.84 0 0.28 0.84 0 0.32 0.84 0 0.36 0.84 0 0.4 0.84 0 0.44 0.84 0 0.48 0.84 0 0.52 0.84 0 0.56 0.84 0 0.6 0.84 0 0.64 0.84 0 0.68 0.84 0 0.72 0.84 0 0.76 0.84 0 0.8 0.84 0 0.84 0.84 0 0.88 0.84 0 0.92 0.84 0 0.96 0.84 0 1 0.84 0 1.04 0.84 0 1.08 0.84 0 1.12 0.84 0 1.16 0.84 0 1.2 0.84 0 0 0.88 0 0.04 0.88 0 0.08 0.88 0 0.12 0.88 0 0.16 0.88 0 0.2 0.88 0 0.24 0.88 0 0.28 0.88 0 0.32 0.88 0 0.36 0.88 0 0.4 0.88 0 0.44 0.88 0 0.48 0.88 0 0.52 0.88 0 0.56 0.88 0 0.6 0.88 0 0.64 0.88 0 0.68 0.88 0 0.72 0.88 0 0.76 0.88 0 0.8 0.88 0 0.84 0.88 0 0.88 0.88 0 0.92 0.88 0 0.96 0.88 0 1 0.88 0 1.04 0.88 0 1.08 0.88 0 1.12 0.88 0 1.16 0.88 0 1.2 0.88 0 0 0.92 0 0.04 0.92 0 0.08 0.92 0 0.12 0.92 0 0.16 0.92 0 0.2 0.92 0 0.24 0.92 0 0.28 0.92 0 0.32 0.92 0 0.36 0.92 0 0.4 0.92 0 0.44 0.92 0 0.48 0.92 0 0.52 0.92 0 0.56 0.92 0 0.6 0.92 0 0.64 0.92 0 0.68 0.92 0 0.72 0.92 0 0.76 0.92 0 0.8 0.92 0 0.84 0.92 0 0.88 0.92 0 0.92 0.92 0 0.96 0.92 0 1 0.92 0 1.04 0.92 0 1.08 0.92 0 1.12 0.92 0 1.16 0.92 0 1.2 0.92 0 0 0.96 0 0.04 0.96 0 0.08 0.96 0 0.12 0.96 0 0.16 0.96 0 0.2 0.96 0 0.24 0.96 0 0.28 0.96 0 0.32 0.96 0 0.36 0.96 0 0.4 0.96 0 0.44 0.96 0 0.48 0.96 0 0.52 0.96 0 0.56 0.96 0 0.6 0.96 0 0.64 0.96 0 0.68 0.96 0 0.72 0.96 0 0.76 0.96 0 0.8 0.96 0 0.84 0.96 0 0.88 0.96 0 0.92 0.96 0 0.96 0.96 0 1 0.96 0 1.04 0.96 0 1.08 0.96 0 1.12 0.96 0 1.16 0.96 0 1.2 0.96 0 0 1 0 0.04 1 0 0.08 1 0 0.12 1 0 0.16 1 0 0.2 1 0 0.24 1 0 0.28 1 0 0.32 1 0 0.36 1 0 0.4 1 0 0.44 1 0 0.48 1 0 0.52 1 0 0.56 1 0 0.6 1 0 0.64 1 0 0.68 1 0 0.72 1 0 0.76 1 0 0.8 1 0 0.84 1 0 0.88 1 0 0.92 1 0 0.96 1 0 1 1 0 1.04 1 0 1.08 1 0 1.12 1 0 1.16 1 0 1.2 1 0 0 1.04 0 0.04 1.04 0 0.08 1.04 0 0.12 1.04 0 0.16 1.04 0 0.2 1.04 0 0.24 1.04 0 0.28 1.04 0 0.32 1.04 0 0.36 1.04 0 0.4 1.04 0 0.44 1.04 0 0.48 1.04 0 0.52 1.04 0 0.56 1.04 0 0.6 1.04 0 0.64 1.04 0 0.68 1.04 0 0.72 1.04 0 0.76 1.04 0 0.8 1.04 0 0.84 1.04 0 0.88 1.04 0 0.92 1.04 0 0.96 1.04 0 1 1.04 0 1.04 1.04 0 1.08 1.04 0 1.12 1.04 0 1.16 1.04 0 1.2 1.04 0 0 1.08 0 0.04 1.08 0 0.08 1.08 0 0.12 1.08 0 0.16 1.08 0 0.2 1.08 0 0.24 1.08 0 0.28 1.08 0 0.32 1.08 0 0.36 1.08 0 0.4 1.08 0 0.44 1.08 0 0.48 1.08 0 0.52 1.08 0 0.56 1.08 0 0.6 1.08 0 0.64 1.08 0 0.68 1.08 0 0.72 1.08 0 0.76 1.08 0 0.8 1.08 0 0.84 1.08 0 0.88 1.08 0 0.92 1.08 0 0.96 1.08 0 1 1.08 0 1.04 1.08 0 1.08 1.08 0 1.12 1.08 0 1.16 1.08 0 1.2 1.08 0 0 1.12 0 
[...]
			<CellData Scalars="Density">
				<DataArray Name="Density" type="Float32" format="ascii">
 0.00648265 0.00694017 0.00802816 0.00989031 0.0125383 0.0160007 0.0203449 0.0256788 0.0322028 0.0402249 0.0502104 0.0628412 0.0791226 0.100582 0.129464 0.169196 0.224906 0.304399 0.420269 0.59434 0.862359 1.26956 1.83488 2.45669 2.64743 2.22484 1.29288 1.04322 1.00307 1.00001 0.00694157 0.00740021 0.00844849 0.0103273 0.0130984 0.0168257 0.0216123 0.0275724 0.0349159 0.0439242 0.0550493 0.0689108 0.0864641 0.10918 0.139136 0.179713 0.235975 0.315765 0.431071 0.600509 0.855498 1.25073 1.81432 2.41716 2.58924 2.18664 1.28672 1.04429 1.00312 1.00001 0.00803075 0.00845044 0.00937375 0.0111557 0.0138775 0.017634 0.0225574 0.028786 0.0365313 0.0461017 0.0579472 0.0727344 0.0914292 0.1155 0.147151 0.189667 0.248124 0.330324 0.449095 0.626439 0.89759 1.312 1.8899 2.50033 2.61193 2.10843 1.24479 1.04155 1.00283 1.00001 0.00989363 0.0103311 0.0111606 0.013002 0.0159273 0.020036 0.0255396 0.0325967 0.0414875 0.0525305 0.0662477 0.0833055 0.104778 0.132115 0.167499 0.214338 0.277593 0.365284 0.49007 0.674565 0.958622 1.39087 1.95224 2.4999 2.55834 1.99401 1.20492 1.03647 1.00224 1 0.0125419 0.013103 0.013888 0.0159383 0.0193078 0.0240725 0.0305373 0.0388935 0.049466 0.0626419 0.0789343 0.0991338 0.124276 0.156086 0.196822 0.250199 0.322011 0.420484 0.560959 0.766662 1.07453 1.53466 2.10204 2.56559 2.5203 1.79807 1.13975 1.0252 1.00146 1 0.0160039 0.016829 0.0176474 0.0200523 0.0240845 0.0297507 0.0374272 0.0473219 0.0597899 0.0752516 0.0943481 0.117883 0.147182 0.18388 0.23097 0.291958 0.373815 0.486244 0.645691 0.881433 1.23298 1.74575 2.3211 2.65851 2.44319 1.58764 1.09978 1.01659 1.00066 1 0.0203497 0.0216146 0.0225761 0.0255621 0.0305556 0.0374515 0.046711 0.0585088 0.0732906 0.0914621 0.113818 0.141281 0.175328 0.218111 0.272587 0.344024 0.439296 0.5713 0.760782 1.03862 1.45526 2.02024 2.57248 2.73207 2.26134 1.34764 1.06547 1.00846 1.00014 1 0.0256837 0.0275757 0.0288068 0.0326318 0.0389263 0.0473656 0.0585651 0.0726341 0.0900605 0.111386 0.137386 0.169341 0.208847 0.258515 0.322097 0.405094 0.517687 0.672987 0.899344 1.23492 1.73138 2.32585 2.76659 2.7205 1.8839 1.18577 1.03671 1.00308 1.00002 1 0.0322095 0.0349147 0.0365572 0.041519 0.0495206 0.0598843 0.0733987 0.0901789 0.110727 0.135635 0.165973 0.203004 0.249062 0.306954 0.381547 0.480153 0.614642 0.80496 1.08243 1.49883 2.07871 2.65381 2.88366 2.47455 1.49115 1.09789 1.01593 1.00061 1 1 0.0402314 0.0439245 0.0461235 0.0525678 0.0626797 0.0753835 0.0916793 0.111581 0.135816 0.164977 0.200289 0.243582 0.297205 0.365399 0.453663 0.571217 0.734561 0.967473 1.31328 1.8215 2.43576 2.87813 2.82085 1.95489 1.21951 1.04777 1.00505 1.00005 1 1 0.0502166 0.0550391 0.0579664 0.0662521 0.078962 0.0944416 0.114039 0.137715 0.166213 0.200484 0.241894 0.292617 0.356111 0.436938 0.543515 0.688114 0.891131 1.18479 1.62716 2.22357 2.79458 2.98425 2.47815 1.48166 1.09995 1.01789 1.00084 1 1 1 0.0628474 0.0689014 0.0727443 0.0832968 0.0990716 0.117942 0.141464 0.169619 0.203392 0.243823 0.292836 0.353206 0.429033 0.527395 0.657607 0.838332 1.09816 1.47354 2.02547 2.64461 3.00314 2.79513 1.84494 1.19817 1.04531 1.00475 1.00005 1 1 1 0.0791301 0.0864522 0.0914472 0.104739 0.124208 0.147079 0.175388 0.209089 0.249284 0.297596 0.356276 0.429255 0.522085 0.64358 0.809819 1.04107 1.37882 1.87431 2.49443 2.9849 3.02683 2.25286 1.36008 1.08168 1.01393 1.00054 1 1 1 1 0.100592 0.109167 0.115524 0.132102 0.155945 0.183794 0.218 0.258546 0.307125 0.365497 0.43732 0.527461 0.643988 0.799965 1.01505 1.32393 1.77233 2.37021 2.94958 3.07333 2.55754 1.56485 1.1341 1.03125 1.00258 1.00002 1 1 1 1 0.129478 0.139132 0.147181 0.167523 0.196822 0.230757 0.272519 0.322086 0.381562 0.453852 0.543452 0.658409 0.810115 1.01584 1.30433 1.72313 2.29636 2.86301 3.12617 2.7817 1.82731 1.21041 1.05198 1.0068 1.00014 1 1 1 1 1 0.169212 0.179705 0.189709 0.214352 0.250186 0.292071 0.343704 0.405014 0.480006 0.57121 0.68773 0.838124 1.04246 1.32418 1.72352 2.25979 2.84234 3.15452 2.92617 1.99832 1.28229 1.07574 1.01382 1.0006 1 1 1 1 1 1 0.224933 0.235975 0.248158 0.277682 0.321992 0.373753 0.439601 0.517363 0.614636 0.734563 0.890729 1.09755 1.37779 1.77123 2.29686 2.84281 3.12857 2.98428 2.11858 1.3665 1.09551 1.02156 1.00153 1.00001 1 1 1 1 1 1 0.304429 0.315784 0.330373 0.365314 0.420665 0.486393 0.571296 0.673503 0.804503 0.968126 1.18409 1.47486 1.87408 2.36916 2.86262 3.15416 2.98399 2.19101 1.39901 1.10797 1.02904 1.00281 1.00004 1 1 1 1 1 1 1 0.420308 0.43108 0.449185 0.490136 0.560753 0.645777 0.760949 0.899483 1.08294 1.31375 1.62744 2.02648 2.49509 2.94941 3.12546 2.92554 2.11857 1.39892 1.11879 1.03278 1.00384 1.00008 1 1 1 1 1 1 1 1 0.594388 0.600526 0.626497 0.674638 0.767017 0.881112 1.03875 1.23515 1.49814 1.82147 2.22452 2.64558 2.98529 3.07465 2.78162 1.99828 1.36651 1.10793 1.03279 1.00437 1.00011 1 1 1 1 1 1 1 1 1 0.862422 0.855513 0.897761 0.958395 1.07476 1.2332 1.45481 1.73244 2.07769 2.43502 2.79466 3.00356 3.02675 2.55829 1.82765 1.28235 1.09554 1.02904 1.00384 1.00011 1 1 1 1 1 1 1 1 1 1 1.26964 1.25074 1.31224 1.39061 1.53477 1.74563 2.02024 2.32662 2.65317 2.87751 2.98389 2.7948 2.25306 1.56503 1.21052 1.07576 1.02155 1.00281 1.00008 1 1 1 1 1 1 1 1 1 1 1 1.83495 1.81429 1.89019 1.95205 2.10211 2.32065 2.57279 2.76716 2.88327 2.8206 2.47824 1.84484 1.36004 1.13412 1.05197 1.01383 1.00154 1.00004 1 1 1 1 1 1 1 1 1 1 1 1 2.45674 2.41705 2.50066 2.49974 2.56579 2.65787 2.73243 2.72021 2.4747 1.95465 1.4815 1.19809 1.08164 1.03125 1.0068 1.0006 1.00001 1 1 1 1 1 1 1 1 1 1 1 1 1 2.64747 2.58908 2.6121 2.55812 2.52037 2.44298 2.26121 1.88396 1.49147 1.21955 1.09991 1.04529 1.01393 1.00257 1.00014 1 1 1 1 1 1 1 1 1 1 1 1 1 1 1 2.22475 2.18651 2.10831 1.99405 1.79804 1.58735 1.34773 1.1856 1.09792 1.04777 1.01789 1.00474 1.00054 1.00002 1 1 1 1 1 1 1 1 1 1 1 1 1 1 1 1 1.29281 1.28665 1.24475 1.20486 1.13983 1.09971 1.06548 1.0367 1.01593 1.00505 1.00084 1.00005 1 1 1 1 1 1 1 1 1 1 1 1 1 1 1 1 1 1 1.04321 1.04428 1.04153 1.03646 1.02521 1.01658 1.00846 1.00308 1.00061 1.00006 1 1 1 1 1 1 1 1 1 1 1 1 1 1 1 1 1 1 1 1 1.00307 1.00312 1.00283 1.00224 1.00146 1.00066 1.00014 1.00002 1 1 1 1 1 1 1 1 1 1 1 1 1 1 1 1 1 1 1 1 1 1 1.00001 1.00001 1.00001 1 1 1 1 1 1 1 1 1 1 1 1 1 1 1 1 1 1 1 1 1 1 1 1 1 1 1
				</DataArray>
				<DataArray Name="Energy" type="Float32" format="ascii">
 24.4614 22.8186 19.7322 16.0228 12.6443 9.91435 7.80429 6.19108 4.94585 3.97004 3.19253 2.56439 2.05136 1.62982 1.28322 0.999858 0.770664 0.58802 0.445287 0.336388 0.255072 0.194627 0.148554 0.111669 0.0778511 0.0417093 0.00739745 0.000133377 2.67776e-06 2.50001e-06 22.8139 21.3596 18.7062 15.303 12.0679 9.39757 7.32172 5.74464 4.54425 3.62071 2.8991 2.32687 1.86666 1.49208 1.18473 0.931967 0.725044 0.557969 0.425787 0.323415 0.24568 0.187996 0.144342 0.10848 0.075058 0.0396527 0.00679642 0.000125815 2.67202e-06 2.50001e-06 19.7258 18.7021 16.8607 14.1693 11.3928 8.97046 7.01764 5.50647 4.34725 3.45499 2.75987 2.21134 1.77249 1.41769 1.12841 0.891776 0.698824 0.542801 0.418459 0.320979 0.245384 0.187369 0.142476 0.106129 0.0718375 0.0359462 0.00508649 8.86971e-05 2.61384e-06 2.50001e-06 16.0174 15.2973 14.1634 12.1592 9.92857 7.89656 6.20029 4.86366 3.82889 3.03215 2.41414 1.93045 1.54744 1.24037 0.992114 0.790238 0.626081 0.492866 0.385331 0.299543 0.232335 0.180207 0.138346 0.103383 0.0689635 0.0325629 0.00376246 5.84846e-05 2.56146e-06 2.5e-06 12.6406 12.0636 11.3841 9.92224 8.1933 6.57504 5.18809 4.0794 3.21428 2.5467 2.02975 1.62653 1.30852 1.05446 0.849409 0.682733 0.546704 0.435617 0.34554 0.272827 0.214647 0.168631 0.130369 0.0972792 0.0632865 0.0265032 0.00221816 2.76668e-05 2.5204e-06 2.5e-06 9.91233 9.39583 8.96341 7.88999 6.57224 5.32409 4.2364 3.35647 2.66296 2.12346 1.70249 1.37216 1.11026 0.900234 0.730168 0.591154 0.477342 0.383778 0.307498 0.24557 0.195247 0.154773 0.119897 0.088312 0.0545282 0.0180968 0.000885066 8.16225e-06 2.50297e-06 2.5e-06 7.80259 7.32073 7.01207 6.19454 5.18475 4.23414 3.39914 2.71885 2.17715 1.75166 1.4162 1.15009 0.937223 0.765144 0.624861 0.509706 0.414768 0.336404 0.272003 0.219081 0.17578 0.139715 0.107684 0.0768865 0.0424177 0.00863459 0.00021745 3.15039e-06 2.50024e-06 2.5e-06 6.18977 5.74424 5.50228 4.85888 4.07577 3.35302 2.71675 2.19581 1.77701 1.44439 1.17911 0.966168 0.793611 0.652784 0.53686 0.440861 0.361218 0.29482 0.240004 0.19448 0.157082 0.124462 0.0944139 0.0634001 0.027212 0.00247723 3.17052e-05 2.53952e-06 2.50002e-06 2.5e-06 4.94494 4.54424 4.34441 3.82571 3.21119 2.65881 2.17352 1.77508 1.45196 1.19255 0.983172 0.81302 0.673517 0.558117 0.46238 0.382466 0.315566 0.259501 0.212627 0.173353 0.140242 0.109914 0.0805374 0.0477062 0.0123853 0.000429092 4.61016e-06 2.50163e-06 2.5e-06 2.5e-06 3.96939 3.62092 3.45325 3.03033 2.54478 2.11994 1.74777 1.44143 1.19128 0.988369 0.822682 0.686386 0.573266 0.478723 0.399177 0.332298 0.275958 0.228117 0.187854 0.153813 0.123526 0.0947483 0.0646742 0.0288198 0.00303674 4.55832e-05 2.5827e-06 2.50006e-06 2.5e-06 2.5e-06 3.19222 2.89958 2.75909 2.41385 2.0295 1.7006 1.41341 1.17648 0.981481 0.822022 0.690379 0.580854 0.488849 0.411126 0.345239 0.289116 0.241557 0.200815 0.166086 0.135876 0.107497 0.0790745 0.046274 0.0113962 0.000392627 4.59222e-06 2.50237e-06 2.5e-06 2.5e-06 2.5e-06 2.5642 2.32733 2.21098 1.93088 1.62737 1.37191 1.14882 0.964508 0.811722 0.685616 0.580569 0.492299 0.417312 0.353212 0.298308 0.25129 0.21085 0.175881 0.145921 0.117918 0.0904551 0.0602165 0.0242187 0.00210107 2.86884e-05 2.55369e-06 2.50006e-06 2.5e-06 2.5e-06 2.5e-06 2.05123 1.86696 1.77226 1.54788 1.30955 1.11076 0.937041 0.793002 0.67283 0.57279 0.488579 0.417228 0.356075 0.303179 0.257485 0.217876 0.183478 0.153428 0.126504 0.0997981 0.0718566 0.0375352 0.00665731 0.000176807 3.25218e-06 2.50114e-06 2.5e-06 2.5e-06 2.5e-06 2.5e-06 1.62972 1.49227 1.41741 1.24055 1.0552 0.900907 0.76546 0.652731 0.558033 0.478588 0.411073 0.353193 0.303216 0.259737 0.221487 0.187993 0.158852 0.132509 0.107081 0.0800483 0.04866 0.0139267 0.000694861 8.474e-06 2.51331e-06 2.50002e-06 2.5e-06 2.5e-06 2.5e-06 2.5e-06 1.28313 1.18481 1.12818 0.991989 0.849665 0.730515 0.625156 0.537024 0.462465 0.399327 0.345315 0.298492 0.257564 0.221579 0.189757 0.161409 0.136136 0.111664 0.0863454 0.0569915 0.0220483 0.00202524 3.24323e-05 2.59448e-06 2.50019e-06 2.5e-06 2.5e-06 2.5e-06 2.5e-06 2.5e-06 0.999785 0.931992 0.891603 0.790123 0.68269 0.591239 0.509728 0.440812 0.382467 0.33233 0.289159 0.251388 0.218055 0.188051 0.16142 0.137433 0.114099 0.0901491 0.0625676 0.0284308 0.00396565 9.66268e-05 2.95571e-06 2.50119e-06 2.5e-06 2.5e-06 2.5e-06 2.5e-06 2.5e-06 2.5e-06 0.770601 0.725038 0.698691 0.62598 0.546641 0.477231 0.414773 0.361085 0.315454 0.275934 0.241482 0.210866 0.183474 0.158852 0.136169 0.114095 0.0911313 0.0652338 0.0327587 0.00599462 0.00020273 3.9426e-06 2.5052e-06 2.50001e-06 2.5e-06 2.5e-06 2.5e-06 2.5e-06 2.5e-06 2.5e-06 0.587968 0.557943 0.542723 0.492797 0.435603 0.383789 0.336371 0.294801 0.259359 0.228084 0.200707 0.175911 0.153425 0.132487 0.111672 0.0901556 0.0652333 0.0342189 0.00719539 0.000313265 5.60873e-06 2.51403e-06 2.50004e-06 2.5e-06 2.5e-06 2.5e-06 2.5e-06 2.5e-06 2.5e-06 2.5e-06 0.445249 0.425753 0.418402 0.385283 0.345473 0.307451 0.272034 0.240016 0.212628 0.187837 0.166069 0.145926 0.126503 0.10709 0.0863577 0.062574 0.0327547 0.00719474 0.000375858 6.98929e-06 2.52473e-06 2.50009e-06 2.5e-06 2.5e-06 2.5e-06 2.5e-06 2.5e-06 2.5e-06 2.5e-06 2.5e-06 0.33636 0.323385 0.320941 0.299505 0.272847 0.245519 0.219068 0.194517 0.173327 0.153811 0.135884 0.117932 0.0997981 0.0800517 0.0569991 0.0284353 0.00599444 0.000312697 6.99355e-06 2.53035e-06 2.50013e-06 2.5e-06 2.5e-06 2.5e-06 2.5e-06 2.5e-06 2.5e-06 2.5e-06 2.5e-06 2.5e-06 0.25505 0.245656 0.245369 0.232292 0.214654 0.195231 0.175734 0.157114 0.140218 0.123519 0.107492 0.0904575 0.0718626 0.0486661 0.0220619 0.00396614 0.000202928 5.61092e-06 2.52467e-06 2.50013e-06 2.5e-06 2.5e-06 2.5e-06 2.5e-06 2.5e-06 2.5e-06 2.5e-06 2.5e-06 2.5e-06 2.5e-06 0.194612 0.187973 0.187358 0.180179 0.168635 0.154752 0.139701 0.124464 0.109894 0.0947381 0.0790693 0.0602193 0.0375459 0.0139293 0.00202764 9.67983e-05 3.94053e-06 2.51405e-06 2.50009e-06 2.5e-06 2.5e-06 2.5e-06 2.5e-06 2.5e-06 2.5e-06 2.5e-06 2.5e-06 2.5e-06 2.5e-06 2.5e-06 0.148544 0.144325 0.142469 0.138324 0.130368 0.119879 0.107679 0.0944145 0.0805358 0.0646656 0.0462679 0.0242181 0.00665984 0.000695463 3.24024e-05 2.95641e-06 2.50521e-06 2.50004e-06 2.5e-06 2.5e-06 2.5e-06 2.5e-06 2.5e-06 2.5e-06 2.5e-06 2.5e-06 2.5e-06 2.5e-06 2.5e-06 2.5e-06 0.111662 0.108468 0.106122 0.103371 0.0972753 0.0883004 0.0768792 0.0633887 0.0477055 0.0288068 0.0113895 0.00209997 0.000176593 8.47584e-06 2.59468e-06 2.50119e-06 2.50001e-06 2.5e-06 2.5e-06 2.5e-06 2.5e-06 2.5e-06 2.5e-06 2.5e-06 2.5e-06 2.5e-06 2.5e-06 2.5e-06 2.5e-06 2.5e-06 0.0778452 0.0750497 0.0718309 0.068958 0.063282 0.0545215 0.0424129 0.0272089 0.0123927 0.00303643 0.00039211 2.86606e-05 3.25237e-06 2.51329e-06 2.50019e-06 2.5e-06 2.5e-06 2.5e-06 2.5e-06 2.5e-06 2.5e-06 2.5e-06 2.5e-06 2.5e-06 2.5e-06 2.5e-06 2.5e-06 2.5e-06 2.5e-06 2.5e-06 0.041703 0.0396456 0.0359385 0.0325603 0.0264977 0.0180926 0.00863117 0.00247567 0.000429346 4.55929e-05 4.59209e-06 2.55356e-06 2.50113e-06 2.50002e-06 2.5e-06 2.5e-06 2.5e-06 2.5e-06 2.5e-06 2.5e-06 2.5e-06 2.5e-06 2.5e-06 2.5e-06 2.5e-06 2.5e-06 2.5e-06 2.5e-06 2.5e-06 2.5e-06 0.00739436 0.00679394 0.00508359 0.00376181 0.00221783 0.000884766 0.00021738 3.16828e-05 4.61151e-06 2.58264e-06 2.50237e-06 2.50006e-06 2.5e-06 2.5e-06 2.5e-06 2.5e-06 2.5e-06 2.5e-06 2.5e-06 2.5e-06 2.5e-06 2.5e-06 2.5e-06 2.5e-06 2.5e-06 2.5e-06 2.5e-06 2.5e-06 2.5e-06 2.5e-06 0.00013329 0.000125738 8.86226e-05 5.84557e-05 2.76582e-05 8.16027e-06 3.15039e-06 2.53947e-06 2.50163e-06 2.50006e-06 2.5e-06 2.5e-06 2.5e-06 2.5e-06 2.5e-06 2.5e-06 2.5e-06 2.5e-06 2.5e-06 2.5e-06 2.5e-06 2.5e-06 2.5e-06 2.5e-06 2.5e-06 2.5e-06 2.5e-06 2.5e-06 2.5e-06 2.5e-06 2.67759e-06 2.67185e-06 2.61369e-06 2.5614e-06 2.52039e-06 2.50297e-06 2.50024e-06 2.50002e-06 2.5e-06 2.5e-06 2.5e-06 2.5e-06 2.5e-06 2.5e-06 2.5e-06 2.5e-06 2.5e-06 2.5e-06 2.5e-06 2.5e-06 2.5e-06 2.5e-06 2.5e-06 2.5e-06 2.5e-06 2.5e-06 2.5e-06 2.5e-06 2.5e-06 2.5e-06 2.50001e-06 2.50001e-06 2.50001e-06 2.5e-06 2.5e-06 2.5e-06 2.5e-06 2.5e-06 2.5e-06 2.5e-06 2.5e-06 2.5e-06 2.5e-06 2.5e-06 2.5e-06 2.5e-06 2.5e-06 2.5e-06 2.5e-06 2.5e-06 2.5e-06 2.5e-06 2.5e-06 2.5e-06 2.5e-06 2.5e-06 2.5e-06 2.5e-06 2.5e-06 2.5e-06
				</DataArray>
				<DataArray Name="F1" type="Float32" format="ascii">
 1 1 1 1 1 1 1 1 1 1 1 1 1 1 1 1 1 1 1 1 1 1 1 1 1 1 1 1 1 1 1 1 1 1 1 1 1 1 1 1 1 1 1 1 1 1 1 1 1 1 1 1 1 1 1 1 1 1 1 1 1 1 1 1 1 1 1 1 1 1 1 1 1 1 1 1 1 1 1 1 1 1 1 1 1 1 1 1 1 1 1 1 1 1 1 1 1 1 1 1 1 1 1 1 1 1 1 1 1 1 1 1 1 1 1 1 1 1 1 1 1 1 1 1 1 1 1 1 1 1 1 1 1 1 1 1 1 1 1 1 1 1 1 1 1 1 1 1 1 1 1 1 1 1 1 1 1 1 1 1 1 1 1 1 1 1 1 1 1 1 1 1 1 1 1 1 1 1 1 1 1 1 1 1 1 1 1 1 1 1 1 1 1 1 1 1 1 1 1 1 1 1 1 1 1 1 1 1 1 1 1 1 1 1 1 1 1 1 1 1 1 1 1 1 1 1 1 1 1 1 1 1 1 1 1 1 1 1 1 1 1 1 1 1 1 1 1 1 1 1 1 1 1 1 1 1 1 1 1 1 1 1 1 1 1 1 1 1 1 1 1 1 1 1 1 1 1 1 1 1 1 1 1 1 1 1 1 1 1 1 1 1 1 1 1 1 1 1 1 1 1 1 1 1 1 1 1 1 1 1 1 1 1 1 1 1 1 1 1 1 1 1 1 1 1 1 1 1 1 1 1 1 1 1 1 1 1 1 1 1 1 1 1 1 1 1 1 1 1 1 1 1 1 1 1 1 1 1 1 1 1 1 1 1 1 1 1 1 1 1 1 1 1 1 1 1 1 1 1 1 1 1 1 1 1 1 1 1 1 1 1 1 1 1 1 1 1 1 1 1 1 1 1 1 1 1 1 1 1 1 1 1 1 1 1 1 1 1 1 1 1 1 1 1 1 1 1 1 1 1 1 1 1 1 1 1 1 1 1 1 1 1 1 1 1 1 1 1 1 1 1 1 1 1 1 1 1 1 1 1 1 1 1 1 1 1 1 1 1 1 1 1 1 1 1 1 1 1 1 1 1 1 1 1 1 1 1 1 1 1 1 1 1 1 1 1 1 1 1 1 1 1 1 1 1 1 1 1 1 1 1 1 1 1 1 1 1 1 1 1 1 1 1 1 1 1 1 1 1 1 1 1 1 1 1 1 1 1 1 1 1 1 1 1 1 1 1 1 1 1 1 1 1 1 1 1 1 1 1 1 1 1 1 1 1 1 1 1 1 1 1 1 1 1 1 1 1 1 1 1 1 1 1 1 1 1 1 1 1 1 1 1 1 1 1 1 1 1 1 1 1 1 1 1 1 1 1 1 1 1 1 1 1 1 1 1 1 1 1 1 1 1 1 1 1 1 1 1 1 1 1 1 1 1 1 1 1 1 1 1 1 1 1 1 1 1 1 1 1 1 1 1 1 1 1 1 1 1 1 1 1 1 1 1 1 1 1 1 1 1 1 1 1 1 1 1 1 1 1 1 1 1 1 1 1 1 1 1 1 1 1 1 1 1 1 1 1 1 1 1 1 1 1 1 1 1 1 1 1 1 1 1 1 1 1 1 1 1 1 1 1 1 1 1 1 1 1 1 1 1 1 1 1 1 1 1 1 1 1 1 1 1 1 1 1 1 1 1 1 1 1 1 1 1 1 1 1 1 1 1 1 1 1 1 1 1 1 1 1 1 1 1 1 1 1 1 1 1 1 1 1 1 1 1 1 1 1 1 1 1 1 1 1 1 1 1 1 1 1 1 1 1 1 1 1 1 1 1 1 1 1 1 1 1 1 1 1 1 1 1 1 1 1 1 1 1 1 1 1 1 1 1 1 1 1 1 1 1 1 1 1 1 1 1 1 1 1 1 1 1 1 1 1 1 1 1 1 1 1 1 1 1 1 1 1 1 1 1 1 1 1 1 1 1 1 1 1 1 1 1 1 1 1 1 1 1 1 1 1 1 1 1 1 1 1 1 1 1 1 1
				</DataArray>
				<DataArray Name="F2" type="Float32" format="ascii">
 0 0 0 0 0 0 0 0 0 0 0 0 0 0 0 0 0 0 0 0 0 0 0 0 0 0 0 0 0 0 0 0 0 0 0 0 0 0 0 0 0 0 0 0 0 0 0 0 0 0 0 0 0 0 0 0 0 0 0 0 0 0 0 0 0 0 0 0 0 0 0 0 0 0 0 0 0 0 0 0 0 0 0 0 0 0 0 0 0 0 0 0 0 0 0 0 0 0 0 0 0 0 0 0 0 0 0 0 0 0 0 0 0 0 0 0 0 0 0 0 0 0 0 0 0 0 0 0 0 0 0 0 0 0 0 0 0 0 0 0 0 0 0 0 0 0 0 0 0 0 0 0 0 0 0 0 0 0 0 0 0 0 0 0 0 0 0 0 0 0 0 0 0 0 0 0 0 0 0 0 0 0 0 0 0 0 0 0 0 0 0 0 0 0 0 0 0 0 0 0 0 0 0 0 0 0 0 0 0 0 0 0 0 0 0 0 0 0 0 0 0 0 0 0 0 0 0 0 0 0 0 0 0 0 0 0 0 0 0 0 0 0 0 0 0 0 0 0 0 0 0 0 0 0 0 0 0 0 0 0 0 0 0 0 0 0 0 0 0 0 0 0 0 0 0 0 0 0 0 0 0 0 0 0 0 0 0 0 0 0 0 0 0 0 0 0 0 0 0 0 0 0 0 0 0 0 0 0 0 0 0 0 0 0 0 0 0 0 0 0 0 0 0 0 0 0 0 0 0 0 0 0 0 0 0 0 0 0 0 0 0 0 0 0 0 0 0 0 0 0 0 0 0 0 0 0 0 0 0 0 0 0 0 0 0 0 0 0 0 0 0 0 0 0 0 0 0 0 0 0 0 0 0 0 0 0 0 0 0 0 0 0 0 0 0 0 0 0 0 0 0 0 0 0 0 0 0 0 0 0 0 0 0 0 0 0 0 0 0 0 0 0 0 0 0 0 0 0 0 0 0 0 0 0 0 0 0 0 0 0 0 0 0 0 0 0 0 0 0 0 0 0 0 0 0 0 0 0 0 0 0 0 0 0 0 0 0 0 0 0 0 0 0 0 0 0 0 0 0 0 0 0 0 0 0 0 0 0 0 0 0 0 0 0 0 0 0 0 0 0 0 0 0 0 0 0 0 0 0 0 0 0 0 0 0 0 0 0 0 0 0 0 0 0 0 0 0 0 0 0 0 0 0 0 0 0 0 0 0 0 0 0 0 0 0 0 0 0 0 0 0 0 0 0 0 0 0 0 0 0 0 0 0 0 0 0 0 0 0 0 0 0 0 0 0 0 0 0 0 0 0 0 0 0 0 0 0 0 0 0 0 0 0 0 0 0 0 0 0 0 0 0 0 0 0 0 0 0 0 0 0 0 0 0 0 0 0 0 0 0 0 0 0 0 0 0 0 0 0 0 0 0 0 0 0 0 0 0 0 0 0 0 0 0 0 0 0 0 0 0 0 0 0 0 0 0 0 0 0 0 0 0 0 0 0 0 0 0 0 0 0 0 0 0 0 0 0 0 0 0 0 0 0 0 0 0 0 0 0 0 0 0 0 0 0 0 0 0 0 0 0 0 0 0 0 0 0 0 0 0 0 0 0 0 0 0 0 0 0 0 0 0 0 0 0 0 0 0 0 0 0 0 0 0 0 0 0 0 0 0 0 0 0 0 0 0 0 0 0 0 0 0 0 0 0 0 0 0 0 0 0 0 0 0 0 0 0 0 0 0 0 0 0 0 0 0 0 0 0 0 0 0 0 0 0 0 0 0 0 0 0 0 0 0 0 0 0 0 0 0 0 0 0 0 0 0 0 0 0 0 0 0 0 0 0 0 0 0 0 0 0 0 0 0 0 0 0 0 0 0 0 0 0 0 0 0 0 0 0 0 0 0 0 0 0 0 0 0 0 0 0 0 0 0 0 0 0 0 0 0 0 0 0 0 0 0 0 0 0 0 0 0 0 0 0 0 0 0 0 0 0 0 0 0 0 0 0 0 0 0 0 0 0 0 0 0 0 0 0 0
				</DataArray>
				<DataArray Name="F3" type="Float32" format="ascii">