<?xml version="1.0"?>
<VTKFile type="PolyData">
	<PolyData>
		<Piece NumberOfPoints="961" NumberOfPolys="900">
			<Points>
				<DataArray type="Float32" NumberOfComponents="3" format="ascii">
 0 0 0 0.04 0 0 0.08 0 0 0.12 0 0 0.16 0 0 0.2 0 0 0.24 0 0 0.28 0 0 0.32 0 0 0.36 0 0 0.4 0 0 0.44 0 0 0.48 0 0 0.52 0 0 0.56 0 0 0.6 0 0 0.64 0 0 0.68 0 0 0.72 0 0 0.76 0 0 0.8 0 0 0.84 0 0 0.88 0 0 0.92 0 0 0.96 0 0 1 0 0 1.04 0 0 1.08 0 0 1.12 0 0 1.16 0 0 1.2 0 0 0 0.04 0 0.04 0.04 0 0.08 0.04 0 0.12 0.04 0 0.16 0.04 0 0.2 0.04 0 0.24 0.04 0 0.28 0.04 0 0.32 0.04 0 0.36 0.04 0 0.4 0.04 0 0.44 0.04 0 0.48 0.04 0 0.52 0.04 0 0.56 0.04 0 0.6 0.04 0 0.64 0.04 0 0.68 0.04 0 0.72 0.04 0 0.76 0.04 0 0.8 0.04 0 0.84 0.04 0 0.88 0.04 0 0.92 0.04 0 0.96 0.04 0 1 0.04 0 1.04 0.04 0 1.08 0.04 0 1.12 0.04 0 1.16 0.04 0 1.2 0.04 0 0 0.08 0 0.04 0.08 0 0.08 0.08 0 0.12 0.08 0 0.16 0.08 0 0.2 0.08 0 0.24 0.08 0 0.28 0.08 0 0.32 0.08 0 0.36 0.08 0 0.4 0.08 0 0.44 0.08 0 0.48 0.08 0 0.52 0.08 0 0.56 0.08 0 0.6 0.08 0 0.64 0.08 0 0.68 0.08 0 0.72 0.08 0 0.76 0.08 0 0.8 0.08 0 0.84 0.08 0 0.88 0.08 0 0.92 0.08 0 0.96 0.08 0 1 0.08 0 1.04 0.08 0 1.08 0.08 0 1.12 0.08 0 1.16 0.08 0 1.2 0.08 0 0 0.12 0 0.04 0.12 0 0.08 0.12 0 0.12 0.12 0 0.16 0.12 0 0.2 0.12 0 0.24 0.12 0 0.28 0.12 0 0.32 0.12 0 0.36 0.12 0 0.4 0.12 0 0.44 0.12 0 0.48 0.12 0 0.52 0.12 0 0.56 0.12 0 0.6 0.12 0 0.64 0.12 0 0.68 0.12 0 0.72 0.12 0 0.76 0.12 0 0.8 0.12 0 0.84 0.12 0 0.88 0.12 0 0.92 0.12 0 0.96 0.12 0 1 0.12 0 1.04 0.12 0 1.08 0.12 0 1.12 0.12 0 1.16 0.12 0 1.2 0.12 0 0 0.16 0 0.04 0.16 0 0.08 0.16 0 0.12 0.16 0 0.16 0.16 0 0.2 0.16 0 0.24 0.16 0 0.28 0.16 0 0.32 0.16 0 0.36 0.16 0 0.4 0.16 0 0.44 0.16 0 0.48 0.16 0 0.52 0.16 0 0.56 0.16 0 0.6 0.16 0 0.64 0.16 0 0.68 0.16 0 0.72 0.16 0 0.76 0.16 0 0.8 0.16 0 0.84 0.16 0 0.88 0.16 0 0.92 0.16 0 0.96 0.16 0 1 0.16 0 1.04 0.16 0 1.08 0.16 0 1.12 0.16 0 1.16 0.16 0 1.2 0.16 0 0 0.2 0 0.04 0.2 0 0.08 0.2 0 0.12 0.2 0 0.16 0.2 0 0.2 0.2 0 0.24 0.2 0 0.28 0.2 0 0.32 0.2 0 0.36 0.2 0 0.4 0.2 0 0.44 0.2 0 0.48 0.2 0 0.52 0.2 0 0.56 0.2 0 0.6 0.2 0 0.64 0.2 0 0.68 0.2 0 0.72 0.2 0 0.76 0.2 0 0.8 0.2 0 0.84 0.2 0 0.88 0.2 0 0.92 0.2 0 0.96 0.2 0 1 0.2 0 1.04 0.2 0 1.08 0.2 0 1.12 0.2 0 1.16 0.2 0 1.2 0.2 0 0 0.24 0 0.04 0.24 0 0.08 0.24 0 0.12 0.24 0 0.16 0.24 0 0.2 0.24 0 0.24 0.24 0 0.28 0.24 0 0.32 0.24 0 0.36 0.24 0 0.4 0.24 0 0.44 0.24 0 0.48 0.24 0 0.52 0.24 0 0.56 0.24 0 0.6 0.24 0 0.64 0.24 0 0.68 0.24 0 0.72 0.24 0 0.76 0.24 0 0.8 0.24 0 0.84 0.24 0 0.88 0.24 0 0.92 0.24 0 0.96 0.24 0 1 0.24 0 1.04 0.24 0 1.08 0.24 0 1.12 0.24 0 1.16 0.24 0 1.2 0.24 0 0 0.28 0 0.04 0.28 0 0.08 0.28 0 0.12 0.28 0 0.16 0.28 0 0.2 0.28 0 0.24 0.28 0 0.28 0.28 0 0.32 0.28 0 0.36 0.28 0 0.4 0.28 0 0.44 0.28 0 0.48 0.28 0 0.52 0.28 0 0.56 0.28 0 0.6 0.28 0 0.64 0.28 0 0.68 0.28 0 0.72 0.28 0 0.76 0.28 0 0.8 0.28 0 0.84 0.28 0 0.88 0.28 0 0.92 0.28 0 0.96 0.28 0 1 0.28 0 1.04 0.28 0 1.08 0.28 0 1.12 0.28 0 1.16 0.28 0 1.2 0.28 0 0 0.32 0 0.04 0.32 0 0.08 0.32 0 0.12 0.32 0 0.16 0.32 0 0.2 0.32 0 0.24 0.32 0 0.28 0.32 0 0.32 0.32 0 0.36 0.32 0 0.4 0.32 0 0.44 0.32 0 0.48 0.32 0 0.52 0.32 0 0.56 0.32 0 0.6 0.32 0 0.64 0.32 0 0.68 0.32 0 0.72 0.32 0 0.76 0.32 0 0.8 0.32 0 0.84 0.32 0 0.88 0.32 0 0.92 0.32 0 0.96 0.32 0 1 0.32 0 1.04 0.32 0 1.08 0.32 0 1.12 0.32 0 1.16 0.32 0 1.2 0.32 0 0 0.36 0 0.04 0.36 0 0.08 0.36 0 0.12 0.36 0 0.16 0.36 0 0.2 0.36 0 0.24 0.36 0 0.28 0.36 0 0.32 0.36 0 0.36 0.36 0 0.4 0.36 0 0.44 0.36 0 0.48 0.36 0 0.52 0.36 0 0.56 0.36 0 0.6 0.36 0 0.64 0.36 0 0.68 0.36 0 0.72 0.36 0 0.76 0.36 0 0.8 0.36 0 0.84 0.36 0 0.88 0.36 0 0.92 0.36 0 0.96 0.36 0 1 0.36 0 1.04 0.36 0 1.08 0.36 0 1.12 0.36 0 1.16 0.36 0 1.2 0.36 0 0 0.4 0 0.04 0.4 0 0.08 0.4 0 0.12 0.4 0 0.16 0.4 0 0.2 0.4 0 0.24 0.4 0 0.28 0.4 0 0.32 0.4 0 0.36 0.4 0 0.4 0.4 0 0.44 0.4 0 0.48 0.4 0 0.52 0.4 0 0.56 0.4 0 0.6 0.4 0 0.64 0.4 0 0.68 0.4 0 0.72 0.4 0 0.76 0.4 0 0.8 0.4 0 0.84 0.4 0 0.88 0.4 0 0.92 0.4 0 0.96 0.4 0 1 0.4 0 1.04 0.4 0 1.08 0.4 0 1.12 0.4 0 1.16 0.4 0 1.2 0.4 0 0 0.44 0 0.04 0.44 0 0.08 0.44 0 0.12 0.44 0 0.16 0.44 0 0.2 0.44 0 0.24 0.44 0 0.28 0.44 0 0.32 0.44 0 0.36 0.44 0 0.4 0.44 0 0.44 0.44 0 0.48 0.44 0 0.52 0.44 0 0.56 0.44 0 0.6 0.44 0 0.64 0.44 0 0.68 0.44 0 0.72 0.44 0 0.76 0.44 0 0.8 0.44 0 0.84 0.44 0 0.88 0.44 0 0.92 0.44 0 0.96 0.44 0 1 0.44 0 1.04 0.44 0 1.08 0.44 0 1.12 0.44 0 1.16 0.44 0 1.2 0.44 0 0 0.48 0 0.04 0.48 0 0.08 0.48 0 0.12 0.48 0 0.16 0.48 0 0.2 0.48 0 0.24 0.48 0 0.28 0.48 0 0.32 0.48 0 0.36 0.48 0 0.4 0.48 0 0.44 0.48 0 0.48 0.48 0 0.52 0.48 0 0.56 0.48 0 0.6 0.48 0 0.64 0.48 0 0.68 0.48 0 0.72 0.48 0 0.76 0.48 0 0.8 0.48 0 0.84 0.48 0 0.88 0.48 0 0.92 0.48 0 0.96 0.48 0 1 0.48 0 1.04 0.48 0 1.08 0.48 0 1.12 0.48 0 1.16 0.48 0 1.2 0.48 0 0 0.52 0 0.04 0.52 0 0.08 0.52 0 0.12 0.52 0 0.16 0.52 0 0.2 0.52 0 0.24 0.52 0 0.28 0.52 0 0.32 0.52 0 0.36 0.52 0 0.4 0.52 0 0.44 0.52 0 0.48 0.52 0 0.52 0.52 0 0.56 0.52 0 0.6 0.52 0 0.64 0.52 0 0.68 0.52 0 0.72 0.52 0 0.76 0.52 0 0.8 0.52 0 0.84 0.52 0 0.88 0.52 0 0.92 0.52 0 0.96 0.52 0 1 0.52 0 1.04 0.52 0 1.08 0.52 0 1.12 0.52 0 1.16 0.52 0 1.2 0.52 0 0 0.56 0 0.04 0.56 0 0.08 0.56 0 0.12 0.56 0 0.16 0.56 0 0.2 0.56 0 0.24 0.56 0 0.28 0.56 0 0.32 0.56 0 0.36 0.56 0 0.4 0.56 0 0.44 0.56 0 0.48 0.56 0 0.52 0.56 0 0.56 0.56 0 0.6 0.56 0 0.64 0.56 0 0.68 0.56 0 0.72 0.56 0 0.76 0.56 0 0.8 0.56 0 0.84 0.56 0 0.88 0.56 0 0.92 0.56 0 0.96 0.56 0 1 0.56 0 1.04 0.56 0 1.08 0.56 0 1.12 0.56 0 1.16 0.56 0 1.2 0.56 0 0 0.6 0 0.04 0.6 0 0.08 0.6 0 0.12 0.6 0 0.16 0.6 0 0.2 0.6 0 0.24 0.6 0 0.28 0.6 0 0.32 0.6 0 0.36 0.6 0 0.4 0.6 0 0.44 0.6 0 0.48 0.6 0 0.52 0.6 0 0.56 0.6 0 0.6 0.6 0 0.64 0.6 0 0.68 0.6 0 0.72 0.6 0 0.76 0.6 0 0.8 0.6 0 0.84 0.6 0 0.88 0.6 0 0.92 0.6 0 0.96 0.6 0 1 0.6 0 1.04 0.6 0 1.08 0.6 0 1.12 0.6 0 1.16 0.6 0 1.2 0.6 0 0 0.64 0 0.04 0.64 0 0.08 0.64 0 0.12 0.64 0 0.16 0.64 0 0.2 0.64 0 0.24 0.64 0 0.28 0.64 0 0.32 0.64 0 0.36 0.64 0 0.4 0.64 0 0.44 0.64 0 0.48 0.64 0 0.52 0.64 0 0.56 0.64 0 0.6 0.64 0 0.64 0.64 0 0.68 0.64 0 0.72 0.64 0 0.76 0.64 0 0.8 0.64 0 0.84 0.64 0 0.88 0.64 0 0.92 0.64 0 0.96 0.64 0 1 0.64 0 1.04 0.64 0 1.08 0.64 0 1.12 0.64 0 1.16 0.64 0 1.2 0.64 0 0 0.68 0 0.04 0.68 0 0.08 0.68 0 0.12 0.68 0 0.16 0.68 0 0.2 0.68 0 0.24 0.68 0 0.28 0.68 0 0.32 0.68 0 0.36 0.68 0 0.4 0.68 0 0.44 0.68 0 0.48 0.68 0 0.52 0.68 0 0.56 0.68 0 0.6 0.68 0 0.64 0.68 0 0.68 0.68 0 0.72 0.68 0 0.76 0.68 0 0.8 0.68 0 0.84 0.68 0 0.88 0.68 0 0.92 0.68 0 0.96 0.68 0 1 0.68 0 1.04 0.68 0 1.08 0.68 0 1.12 0.68 0 1.16 0.68 0 1.2 0.68 0 0 0.72 0 0.04 0.72 0 0.08 0.72 0 0.12 0.72 0 0.16 0.72 0 0.2 0.72 0 0.24 0.72 0 0.28 0.72 0 0.32 0.72 0 0.36 0.72 0 0.4 0.72 0 0.44 0.72 0 0.48 0.72 0 0.52 0.72 0 0.56 0.72 0 0.6 0.72 0 0.64 0.72 0 0.68 0.72 0 0.72 0.72 0 0.76 0.72 0 0.8 0.72 0 0.84 0.72 0 0.88 0.72 0 0.92 0.72 0 0.96 0.72 0 1 0.72 0 1.04 0.72 0 1.08 0.72 0 1.12 0.72 0 1.16 0.72 0 1.2 0.72 0 0 0.76 0 0.04 0.76 0 0.08 0.76 0 0.12 0.76 0 0.16 0.76 0 0.2 0.76 0 0.24 0.76 0 0.28 0.76 0 0.32 0.76 0 0.36 0.76 0 0.4 0.76 0 0.44 0.76 0 0.48 0.76 0 0.52 0.76 0 0.56 0.76 0 0.6 0.76 0 0.64 0.76 0 0.68 0.76 0 0.72 0.76 0 0.76 0.76 0 0.8 0.76 0 0.84 0.76 0 0.88 0.76 0 0.92 0.76 0 0.96 0.76 0 1 0.76 0 1.04 0.76 0 1.08 0.76 0 1.12 0.76 0 1.16 0.76 0 1.2 0.76 0 0 0.8 0 0.04 0.8 0 0.08 0.8 0 0.12 0.8 0 0.16 0.8 0 0.2 0.8 0 0.24 0.8 0 0.28 0.8 0 0.32 0.8 0 0.36 0.8 0 0.4 0.8 0 0.44 0.8 0 0.48 0.8 0 0.52 0.8 0 0.56 0.8 0 0.6 0.8 0 0.64 0.8 0 0.68 0.8 0 0.72 0.8 0 0.76 0.8 0 0.8 0.8 0 0.84 0.8 0 0.88 0.8 0 0.92 0.8 0 0.96 0.8 0 1 0.8 0 1.04 0.8 0 1.08 0.8 0 1.12 0.8 0 1.16 0.8 0 1.2 0.8 0 0 0.84 0 0.04 0.84 0 0.08 0.84 0 0.12 0.84 0 0.16 0.84 0 0.2 0.84 0 0.24 0.84 0 0.28 0.84 0 0.32 0.84 0 0.36 0.84 0 0.4 0.84 0 0.44 0.84 0 0.48 0.84 0 0.52 0.84 0 0.56 0.84 0 0.6 0.84 0 0.64 0.84 0 0.68 0.84 0 0.72 0.84 0 0.76 0.84 0 0.8 0.84 0 0.84 0.84 0 0.88 0.84 0 0.92 0.84 0 0.96 0.84 0 1 0.84 0 1.04 0.84 0 1.08 0.84 0 1.12 0.84 0 1.16 0.84 0 1.2 0.84 0 0 0.88 0 0.04 0.88 0 0.08 0.88 0 0.12 0.88 0 0.16 0.88 0 0.2 0.88 0 0.24 0.88 0 0.28 0.88 0 0.32 0.88 0 0.36 0.88 0 0.4 0.88 0 0.44 0.88 0 0.48 0.88 0 0.52 0.88 0 0.56 0.88 0 0.6 0.88 0 0.64 0.88 0 0.68 0.88 0 0.72 0.88 0 0.76 0.88 0 0.8 0.88 0 0.84 0.88 0 0.88 0.88 0 0.92 0.88 0 0.96 0.88 0 1 0.88 0 1.04 0.88 0 1.08 0.88 0 1.12 0.88 0 1.16 0.88 0 1.2 0.88 0 0 0.92 0 0.04 0.92 0 0.08 0.92 0 0.12 0.92 0 0.16 0.92 0 0.2 0.92 0 0.24 0.92 0 0.28 0.92 0 0.32 0.92 0 0.36 0.92 0 0.4 0.92 0 0.44 0.92 0 0.48 0.92 0 0.52 0.92 0 0.56 0.92 0 0.6 0.92 0 0.64 0.92 0 0.68 0.92 0 0.72 0.92 0 0.76 0.92 0 0.8 0.92 0 0.84 0.92 0 0.88 0.92 0 0.92 0.92 0 0.96 0.92 0 1 0.92 0 1.04 0.92 0 1.08 0.92 0 1.12 0.92 0 1.16 0.92 0 1.2 0.92 0 0 0.96 0 0.04 0.96 0 0.08 0.96 0 0.12 0.96 0 0.16 0.96 0 0.2 0.96 0 0.24 0.96 0 0.28 0.96 0 0.32 0.96 0 0.36 0.96 0 0.4 0.96 0 0.44 0.96 0 0.48 0.96 0 0.52 0.96 0 0.56 0.96 0 0.6 0.96 0 0.64 0.96 0 0.68 0.96 0 0.72 0.96 0 0.76 0.96 0 0.8 0.96 0 0.84 0.96 0 0.88 0.96 0 0.92 0.96 0 0.96 0.96 0 1 0.96 0 1.04 0.96 0 1.08 0.96 0 1.12 0.96 0 1.16 0.96 0 1.2 0.96 0 0 1 0 0.04 1 0 0.08 1 0 0.12 1 0 0.16 1 0 0.2 1 0 0.24 1 0 0.28 1 0 0.32 1 0 0.36 1 0 0.4 1 0 0.44 1 0 0.48 1 0 0.52 1 0 0.56 1 0 0.6 1 0 0.64 1 0 0.68 1 0 0.72 1 0 0.76 1 0 0.8 1 0 0.84 1 0 0.88 1 0 0.92 1 0 0.96 1 0 1 1 0 1.04 1 0 1.08 1 0 1.12 1 0 1.16 1 0 1.2 1 0 0 1.04 0 0.04 1.04 0 0.08 1.04 0 0.12 1.04 0 0.16 1.04 0 0.2 1.04 0 0.24 1.04 0 0.28 1.04 0 0.32 1.04 0 0.36 1.04 0 0.4 1.04 0 0.44 1.04 0 0.48 1.04 0 0.52 1.04 0 0.56 1.04 0 0.6 1.04 0 0.64 1.04 0 0.68 1.04 0 0.72 1.04 0 0.76 1.04 0 0.8 1.04 0 0.84 1.04 0 0.88 1.04 0 0.92 1.04 0 0.96 1.04 0 1 1.04 0 1.04 1.04 0 1.08 1.04 0 1.12 1.04 0 1.16 1.04 0 1.2 1.04 0 0 1.08 0 0.04 1.08 0 0.08 1.08 0 0.12 1.08 0 0.16 1.08 0 0.2 1.08 0 0.24 1.08 0 0.28 1.08 0 0.32 1.08 0 0.36 1.08 0 0.4 1.08 0 0.44 1.08 0 0.48 1.08 0 0.52 1.08 0 0.56 1.08 0 0.6 1.08 0 0.64 1.08 0 0.68 1.08 0 0.72 1.08 0 0.76 1.08 0 0.8 1.08 0 0.84 1.08 0 0.88 1.08 0 0.92 1.08 0 0.96 1.08 0 1 1.08 0 1.04 1.08 0 1.08 1.08 0 1.12 1.08 0 1.16 1.08 0 1.2 1.08 0 0 1.12 0 
[...]
			<CellData Scalars="Density">
				<DataArray Name="Density" type="Float32" format="ascii">
 0.00359557 0.00376977 0.00418622 0.00493961 0.00604905 0.0074882 0.0092588 0.0113572 0.013797 0.0166047 0.0198253 0.0235172 0.0277617 0.0326657 0.0383665 0.0450487 0.0529698 0.0624853 0.0740994 0.0885804 0.1072 0.132275 0.169201 0.238852 0.387215 0.672556 1.18194 2.08325 3.35313 4.79117 0.00376856 0.0039134 0.00426407 0.00494181 0.00599585 0.00742746 0.00924563 0.0114614 0.0141012 0.0171797 0.0207401 0.0248364 0.0295475 0.0349699 0.0412554 0.0485866 0.0572222 0.0675153 0.0799689 0.0953434 0.114851 0.14108 0.179408 0.250134 0.400286 0.687393 1.19458 2.10015 3.39872 4.84448 0.0041843 0.00426414 0.00449059 0.00500372 0.00587547 0.00709979 0.00871714 0.010747 0.0131914 0.0160798 0.0194412 0.0233225 0.0277933 0.0329658 0.0389779 0.046013 0.0543328 0.0642923 0.0763767 0.0913257 0.110403 0.13603 0.173153 0.24096 0.387685 0.674139 1.18689 2.09619 3.43461 4.98667 0.00493734 0.00494406 0.00500683 0.00537656 0.00608408 0.00715389 0.00863164 0.0105129 0.0128449 0.0156549 0.0189874 0.022904 0.0274945 0.0328611 0.0391615 0.0466157 0.0554441 0.065957 0.078589 0.0939888 0.113324 0.138724 0.174516 0.238598 0.376279 0.646987 1.14648 2.05657 3.42826 4.98431 0.00604569 0.00599975 0.00588281 0.00608925 0.00670977 0.0077157 0.00913 0.0110107 0.0133978 0.0163459 0.0199219 0.0242038 0.0292971 0.0353368 0.0424684 0.0508483 0.0607528 0.072481 0.0864754 0.103403 0.124462 0.151656 0.189249 0.251681 0.387303 0.658877 1.15829 2.04871 3.44381 5.04271 0.00748261 0.00743258 0.00711058 0.00716483 0.00772178 0.00867884 0.0101154 0.0120546 0.0145753 0.0177359 0.0216248 0.0263264 0.0319613 0.0386487 0.0465523 0.0558778 0.0668682 0.0798426 0.0952179 0.113594 0.136122 0.16474 0.203347 0.264907 0.394434 0.661076 1.15105 2.0271 3.45408 5.12623 0.00925129 0.00924851 0.00873315 0.00864554 0.00914173 0.0101217 0.0116322 0.0137149 0.016459 0.0199347 0.0242411 0.0294751 0.0357554 0.0432317 0.0520561 0.0624524 0.0746843 0.0890893 0.106134 0.126344 0.150851 0.181834 0.223014 0.284597 0.404923 0.670148 1.16284 2.03365 3.50947 5.28812 0.0113458 0.0114663 0.0107595 0.0105295 0.0110256 0.0120659 0.0137217 0.0160188 0.0190706 0.0229502 0.0277663 0.0336151 0.0406357 0.048961 0.0587864 0.0703117 0.0838619 0.0997701 0.118559 0.140845 0.167519 0.200526 0.243738 0.305227 0.416295 0.672502 1.16776 2.04087 3.58514 5.5092 0.0137814 0.0141016 0.0132021 0.012859 0.0134137 0.0145882 0.016468 0.0190756 0.0225447 0.0269443 0.0324 0.0390004 0.0468929 0.0562321 0.0671987 0.0800513 0.0950828 0.11274 0.133517 0.158106 0.187541 0.223362 0.269321 0.332751 0.436787 0.671696 1.17255 2.06075 3.67072 5.7911 0.0165841 0.0171765 0.0160848 0.015664 0.0163567 0.0177465 0.0199396 0.0229486 0.0269417 0.0319753 0.0381815 0.0456571 0.0545409 0.0650056 0.0772581 0.0915508 0.108267 0.127785 0.150825 0.178053 0.210509 0.249735 0.298933 0.364862 0.465532 0.671418 1.16406 2.0751 3.74415 6.12303 0.0197998 0.020733 0.0194402 0.0189882 0.0199251 0.0216242 0.0242369 0.0277516 0.0323781 0.0381685 0.0452558 0.0537256 0.0637469 0.0754672 0.0891483 0.105057 0.123595 0.145287 0.170695 0.200872 0.236927 0.280159 0.333617 0.403371 0.503981 0.685888 1.14154 2.08049 3.80235 6.48286 0.0234865 0.0248261 0.0233149 0.0228965 0.0241976 0.0263174 0.0294535 0.0335878 0.0389634 0.0456172 0.0537118 0.0633077 0.0745773 0.0877143 0.102945 0.120643 0.141211 0.16521 0.193482 0.226755 0.266705 0.315 0.373782 0.448457 0.5526 0.723122 1.11681 2.06176 3.85 6.83749 0.0277248 0.0295333 0.0277794 0.0274776 0.0292808 0.0319387 0.0357229 0.0405836 0.0468385 0.0544871 0.063699 0.074563 0.0872365 0.101917 0.118917 0.138544 0.161392 0.188029 0.219281 0.256455 0.300724 0.354275 0.420405 0.502351 0.611594 0.779945 1.11629 2.01061 3.88094 7.16451 0.0326215 0.0349515 0.0329454 0.0328362 0.0353094 0.0386128 0.0431754 0.0488932 0.0561441 0.0649222 0.0754049 0.0876542 0.101898 0.118317 0.13724 0.159119 0.184421 0.214042 0.248865 0.289971 0.339713 0.399668 0.473305 0.566292 0.685889 0.85762 1.16757 1.95915 3.90536 7.41206 0.0383134 0.0412306 0.038951 0.0391293 0.0424355 0.0465074 0.0519918 0.0586921 0.0671 0.0771464 0.0890503 0.10288 0.11885 0.137227 0.158355 0.18269 0.210964 0.24385 0.282734 0.328959 0.384139 0.45212 0.535637 0.639934 0.776239 0.961633 1.2662 1.94072 3.91232 7.52844 0.0449848 0.0485537 0.0459783 0.0465765 0.0508107 0.0558271 0.0623779 0.0702204 0.079929 0.0914314 0.104944 0.120537 0.138486 0.159049 0.182692 0.209926 0.241434 0.27841 0.321844 0.373873 0.436761 0.512794 0.608926 0.729391 0.884611 1.09601 1.41518 2.0232 3.88047 7.47742 0.0528919 0.0571777 0.0542872 0.0553972 0.06071 0.0668151 0.0746096 0.0837544 0.0949742 0.108124 0.12347 0.141096 0.161292 0.184391 0.210892 0.241485 0.276978 0.318435 0.367752 0.426462 0.498206 0.586337 0.695428 0.836865 1.01986 1.26503 1.62125 2.22155 3.82028 7.16979 0.0623912 0.0674557 0.0642331 0.0659 0.0724338 0.079785 0.0890156 0.0996802 0.112616 0.127673 0.145142 0.165084 0.187911 0.213953 0.24386 0.278356 0.318515 0.365717 0.42159 0.489229 0.571348 0.673941 0.803156 0.967507 1.18816 1.48226 1.89485 2.52501 3.75129 6.56297 0.0739854 0.0798908 0.0762986 0.0785192 0.0864209 0.0951602 0.10606 0.118466 0.133422 0.150698 0.170613 0.193333 0.219183 0.248764 0.282651 0.32197 0.367746 0.42184 0.486461 0.564292 0.660872 0.780743 0.93495 1.13484 1.39934 1.76015 2.25691 2.9143 3.69298 5.65123 0.0884434 0.0952408 0.0912248 0.0939017 0.103339 0.113531 0.126276 0.140765 0.158024 0.177941 0.200779 0.226709 0.25631 0.289982 0.32889 0.37376 0.426772 0.489232 0.564819 0.656789 0.770309 0.915169 1.10031 1.34634 1.67343 2.1156 2.70671 3.33948 3.64022 4.42475 0.107037 0.11472 0.110273 0.113216 0.124384 0.136053 0.150782 0.167432 0.187482 0.210427 0.236804 0.266667 0.300686 0.339595 0.384438 0.436737 0.498081 0.572017 0.660524 0.771306 0.908826 1.0844 1.31481 1.61924 2.03183 2.57952 3.18533 3.62701 3.4793 3.07375 0.132086 0.140919 0.135868 0.138592 0.151565 0.164665 0.181758 0.200469 0.223264 0.249695 0.280079 0.314885 0.354293 0.399621 0.452042 0.51356 0.586285 0.6741 0.781522 0.914201 1.08512 1.3047 1.59296 1.97838 2.49462 3.1033 3.55212 3.63093 2.85461 1.92443 0.169003 0.179232 0.172971 0.174384 0.189153 0.203286 0.222922 0.243671 0.269273 0.2988 0.333605 0.373686 0.420263 0.473273 0.535727 0.608756 0.696791 0.803305 0.935255 1.10144 1.31365 1.5934 1.96179 2.4538 3.03165 3.55052 3.66103 3.1132 1.94691 1.30766 0.238686 0.249986 0.240794 0.238488 0.251621 0.26485 0.284542 0.305124 0.332712 0.364786 0.403171 0.448502 0.502292 0.565934 0.639971 0.72946 0.836073 0.969895 1.1345 1.34677 1.62073 1.9798 2.44985 3.02348 3.53377 3.65876 3.22304 2.11813 1.3194 1.09392 0.386971 0.400051 0.387416 0.376116 0.387228 0.394397 0.404895 0.416313 0.436677 0.465578 0.503751 0.55245 0.611595 0.686022 0.775644 0.885349 1.01958 1.18735 1.4018 1.67299 2.02974 2.49595 3.0396 3.50765 3.68648 3.30476 2.26111 1.38787 1.09921 1.02685 0.672128 0.68694 0.673636 0.646636 0.658628 0.660961 0.670052 0.672479 0.671661 0.671338 0.685911 0.722812 0.779664 0.857635 0.961762 1.0944 1.26707 1.48198 1.75849 2.1203 2.58133 3.09749 3.55892 3.68039 3.3062 2.27384 1.41422 1.11731 1.03251 1.00432 1.18127 1.19385 1.18608 1.14584 1.15777 1.15077 1.16271 1.16752 1.17256 1.16404 1.14158 1.11662 1.11601 1.16682 1.26744 1.41392 1.61955 1.89908 2.25469 2.70294 3.18887 3.55921 3.63584 3.23378 2.23542 1.43189 1.11831 1.03524 1.00542 1.00022 2.08237 2.09928 2.09517 2.05578 2.0479 2.02688 2.03329 2.04085 2.06065 2.07521 2.07993 2.06197 2.01069 1.95806 1.94146 2.02549 2.21888 2.52411 2.91881 3.34159 3.61549 3.64462 3.09226 2.14765 1.38083 1.11454 1.03602 1.00576 1.00028 1 3.35147 3.39711 3.43273 3.42686 3.44217 3.45338 3.50889 3.58487 3.67041 3.74407 3.80211 3.85042 3.88069 3.90535 3.91294 3.88152 3.82046 3.75215 3.68683 3.6641 3.45995 2.87175 1.93364 1.31539 1.10249 1.03215 1.0054 1.00028 1 1 4.78908 4.84246 4.98434 4.98249 5.04071 5.12548 5.28712 5.50943 5.78904 6.12265 6.48551 6.83404 7.16314 7.41684 7.52285 7.47232 7.18241 6.55973 5.6344 4.44374 3.05932 1.92243 1.3133 1.09208 1.02685 1.00435 1.00022 1 1 1
				</DataArray>
				<DataArray Name="Energy" type="Float32" format="ascii">
 814.726 776.536 699.398 592.791 484.161 391.158 316.399 258.018 212.442 176.59 147.982 124.831 105.833 90.0492 76.782 65.5155 55.8609 47.5301 40.3085 34.0463 28.6306 23.9796 20.0635 17.0509 14.3201 11.2102 8.27006 5.98911 4.33575 3.33476 776.79 747.324 685.706 591.743 487.636 393.697 316.35 255.146 207.455 170.324 141.143 117.934 99.2203 83.9167 71.2372 60.5982 51.5765 43.8585 37.2046 31.4494 26.473 22.2226 18.6443 15.8839 13.4762 10.6808 7.96504 5.81522 4.24464 3.26643 699.725 685.693 651.261 584.284 497.741 411.918 335.422 272.228 221.781 182.005 150.619 125.64 105.508 89.071 75.4615 64.0561 54.3989 46.1483 39.0571 32.9477 27.6957 23.2101 19.4261 16.4844 13.9883 11.0485 8.18261 5.90909 4.26595 3.27562 593.064 591.48 583.914 543.971 480.624 408.704 338.944 278.2 227.798 186.968 154.214 127.926 106.694 89.3816 75.0914 63.2127 53.2842 44.9359 37.8802 31.9003 26.8304 22.5373 18.9258 16.1322 13.8567 11.1265 8.31333 5.99917 4.31576 3.28229 484.439 487.3 497.139 480.2 435.783 379.164 320.288 265.735 218.412 179.092 147.026 121.096 100.119 83.1197 69.3099 58.0052 48.6787 40.9371 34.4731 29.0597 24.5143 20.6933 17.4894 14.966 13.102 10.8896 8.34974 6.0819 4.38014 3.31219 391.443 393.46 411.245 408.094 378.857 336.938 289.241 242.71 200.811 165.088 135.481 111.366 91.8367 76.0409 63.2397 52.8133 44.2586 37.1971 31.3221 26.412 22.2997 18.8569 15.978 13.7009 12.0966 10.3894 8.21894 6.10642 4.42414 3.32622 316.675 316.22 334.83 338.365 319.882 289.065 251.514 213.392 177.867 146.923 120.893 99.5166 82.1205 68.0295 56.6018 47.2999 39.6774 33.3909 28.1655 23.7944 20.1333 17.083 14.532 12.4699 10.9998 9.78961 8.04283 6.12156 4.45652 3.32701 258.271 255.055 271.885 277.773 265.366 242.485 213.289 182.746 153.555 127.668 105.595 87.3005 72.3139 60.1091 50.176 42.0605 35.391 29.8735 25.2726 21.4137 18.1572 15.4279 13.1461 11.2743 9.90128 9.0116 7.72634 6.07212 4.46752 3.31793 212.684 207.439 221.609 227.538 218.16 200.632 177.765 153.523 129.951 108.791 90.5495 75.301 62.7137 52.3976 43.947 37.0081 31.2723 26.5068 22.5129 19.1478 16.296 13.8838 11.8589 10.183 8.88765 8.12492 7.30334 5.972 4.46089 3.30611 176.808 170.356 181.947 186.862 178.969 165.002 146.884 127.672 108.81 91.7403 76.8937 64.3869 53.9802 45.3855 38.2922 32.4228 27.5405 23.4526 20.0094 17.0904 14.6008 12.4786 10.6776 9.17619 7.97451 7.21053 6.73209 5.78485 4.42928 3.29128 148.172 141.191 150.627 154.206 147.004 135.477 120.924 105.649 90.6048 76.9276 64.9466 54.7807 46.2585 39.1617 33.2567 28.3308 24.1989 20.7168 17.7577 15.2368 13.073 11.2136 9.61996 8.27571 7.17358 6.39179 6.04531 5.5009 4.36918 3.27408 124.993 117.984 125.68 127.968 121.127 111.408 99.5804 87.3796 75.373 64.4361 54.8011 46.5692 39.6137 33.7773 28.8758 24.7538 21.2665 18.3021 15.7679 13.5886 11.7089 10.084 8.67607 7.47257 6.47154 5.70638 5.32887 5.09834 4.2649 3.24512 105.973 99.2674 105.562 106.759 100.176 91.9013 82.2011 72.3991 62.7914 54.0363 46.2866 39.6258 33.9537 29.1542 25.0914 21.6416 18.7006 16.1796 14.006 12.1272 10.4921 9.07104 7.83392 6.75965 5.84916 5.12469 4.67738 4.58121 4.09818 3.1993 90.1703 83.9609 89.1253 89.4503 83.1822 76.1122 68.1141 60.1986 52.4749 45.4453 39.1986 33.796 29.163 25.2108 21.8354 18.9477 16.4622 14.3167 12.4533 10.8284 9.4086 8.16494 7.07582 6.12586 5.30262 4.62512 4.14586 4.02829 3.84277 3.1223 76.8879 71.2795 75.5133 75.1533 69.3637 63.3005 56.6738 50.2506 44.0155 38.3454 33.2923 28.8991 25.103 21.8407 19.0314 16.607 14.5064 12.6762 11.0766 9.67321 8.43565 7.34863 6.38998 5.54772 4.81271 4.18768 3.70774 3.50316 3.49102 2.99534 65.6087 60.6401 64.1047 63.2655 58.0483 52.8605 47.3552 42.1192 37.0598 32.4668 28.3615 24.7744 21.6555 18.9544 16.6103 14.5718 12.7905 11.2298 9.85383 8.63948 7.56386 6.60949 5.76746 5.0222 4.36538 3.79858 3.33447 3.05948 3.08955 2.80233 55.9425 51.6169 54.4445 53.3291 48.7125 44.2937 39.7171 35.4328 31.3118 27.5723 24.2232 21.284 18.7121 16.4705 14.5101 12.7926 11.2816 9.94637 8.76437 7.71198 6.77539 5.94099 5.19694 4.53915 3.95444 3.44285 3.00775 2.69567 2.66866 2.5337 47.6015 43.8973 46.1911 44.9741 40.9639 37.222 33.4183 29.902 26.5326 23.4767 20.7335 18.3151 16.1888 14.3233 12.6811 11.2319 9.94775 8.8063 7.78766 6.87761 6.06063 5.33024 4.67683 4.09235 3.57438 3.11383 2.71326 2.38687 2.26218 2.18468 40.3706 37.2414 39.0972 37.9133 34.4947 31.3405 28.183 25.2899 22.529 20.0237 17.7703 15.7762 14.0121 12.4579 11.0793 9.85639 8.76501 7.78756 6.91149 6.12208 5.41251 4.77184 4.19743 3.68227 3.22024 2.80683 2.44495 2.11782 1.89321 1.76554 34.0996 31.484 32.9846 31.9295 29.0778 26.4258 23.8072 21.4237 19.1559 17.0981 15.243 13.5948 12.1302 10.8311 9.67463 8.63977 7.71323 6.87665 6.12257 5.43975 4.82077 4.26274 3.75624 3.30164 2.89177 2.51949 2.19216 1.87015 1.58227 1.2998 28.6756 26.5049 27.7291 26.8562 24.53 22.3105 20.1424 18.1647 16.3003 14.6045 13.0758 11.712 10.4947 9.40984 8.43724 7.56429 6.77497 6.06109 5.41154 4.82234 4.28417 3.79494 3.35293 2.9499 2.58529 2.25488 1.94574 1.62335 1.28991 0.803827 24.0171 22.2516 23.24 22.5602 20.7068 18.8664 17.0898 15.433 13.8867 12.48 11.2142 10.0853 9.07169 8.16561 7.34813 6.61034 5.94052 5.32907 4.7722 4.26098 3.79596 3.36873 2.97857 2.62491 2.30127 1.99567 1.68931 1.34372 0.921214 0.332588 20.0945 18.6704 19.4529 18.9468 17.5015 15.9858 14.5376 13.1496 11.8607 10.6787 9.6194 8.67621 7.83379 7.07494 6.38961 5.76608 5.19741 4.67561 4.19688 3.75626 3.35057 2.98024 2.63561 2.32234 2.03031 1.73458 1.41411 0.998495 0.444992 0.0545739 17.0762 15.9071 16.5083 16.151 14.977 13.7074 12.4741 11.2771 10.1842 9.17717 8.27519 7.47235 6.76055 6.12537 5.54623 5.02197 4.53746 4.09257 3.68098 3.30157 2.94892 2.62344 2.32375 2.04034 1.75741 1.44553 1.0647 0.528747 0.0849251 0.00240867 14.3342 13.4906 14.0038 13.8696 13.1102 12.1019 11.0031 9.90309 8.8884 7.97511 7.17295 6.4708 5.84896 5.30395 4.81134 4.36476 3.95479 3.57301 3.22055 2.89075 2.58508 2.29969 2.02988 1.75556 1.46136 1.0964 0.586202 0.11724 0.00428629 3.59999e-05 11.2163 10.6877 11.0562 11.1334 10.8941 10.3922 9.79167 9.01254 8.1248 7.2108 6.39112 5.70568 5.12403 4.62519 4.18786 3.79595 3.44306 3.11343 2.80592 2.52015 2.2541 1.99633 1.73517 1.44811 1.09724 0.604647 0.134465 0.00647808 6.77786e-05 2.64864e-06 8.27144 7.96695 8.18506 8.3158 8.35134 8.21974 8.04321 7.72662 7.30311 6.73186 6.04467 5.32788 4.67745 4.14535 3.70867 3.33374 3.00652 2.71397 2.4436 2.19238 1.94426 1.68957 1.40962 1.06612 0.585465 0.136301 0.00712171 9.08219e-05 2.75302e-06 2.5006e-06 5.98861 5.81492 5.9091 5.99926 6.08184 6.10616 6.12106 6.07144 5.97148 5.78479 5.50034 5.09673 4.58045 4.02822 3.50352 3.05925 2.6944 2.38641 2.11707 1.87052 1.62126 1.34691 0.995697 0.529005 0.116743 0.00639612 9.19857e-05 2.79611e-06 2.50087e-06 2.5e-06 4.33466 4.2437 4.26514 4.31492 4.37943 4.42317 4.45551 4.46651 4.46059 4.42871 4.36856 4.26429 4.09697 3.84246 3.49089 3.08852 2.66779 2.26104 1.89332 1.58307 1.28605 0.921967 0.444778 0.0842425 0.00435277 6.77494e-05 2.752e-06 2.50089e-06 2.5e-06 2.5e-06 3.33392 3.26556 3.27493 3.28153 3.3117 3.32525 3.32628 3.31696 3.30641 3.29101 3.27271 3.24552 3.19925 3.1213 2.99588 2.80268 2.53262 2.18409 1.76415 1.30084 0.802671 0.331701 0.05489 0.00237151 3.57991e-05 2.6502e-06 2.50059e-06 2.5e-06 2.5e-06 2.5e-06
				</DataArray>
				<DataArray Name="F1" type="Float32" format="ascii">
 1 1 1 1 1 1 1 1 1 1 1 1 1 1 1 1 1 1 1 1 1 1 1 1 1 1 1 1 1 1 1 1 1 1 1 1 1 1 1 1 1 1 1 1 1 1 1 1 1 1 1 1 1 1 1 1 1 1 1 1 1 1 1 1 1 1 1 1 1 1 1 1 1 1 1 1 1 1 1 1 1 1 1 1 1 1 1 1 1 1 1 1 1 1 1 1 1 1 1 1 1 1 1 1 1 1 1 1 1 1 1 1 1 1 1 1 1 1 1 1 1 1 1 1 1 1 1 1 1 1 1 1 1 1 1 1 1 1 1 1 1 1 1 1 1 1 1 1 1 1 1 1 1 1 1 1 1 1 1 1 1 1 1 1 1 1 1 1 1 1 1 1 1 1 1 1 1 1 1 1 1 1 1 1 1 1 1 1 1 1 1 1 1 1 1 1 1 1 1 1 1 1 1 1 1 1 1 1 1 1 1 1 1 1 1 1 1 1 1 1 1 1 1 1 1 1 1 1 1 1 1 1 1 1 1 1 1 1 1 1 1 1 1 1 1 1 1 1 1 1 1 1 1 1 1 1 1 1 1 1 1 1 1 1 1 1 1 1 1 1 1 1 1 1 1 1 1 1 1 1 1 1 1 1 1 1 1 1 1 1 1 1 1 1 1 1 1 1 1 1 1 1 1 1 1 1 1 1 1 1 1 1 1 1 1 1 1 1 1 1 1 1 1 1 1 1 1 1 1 1 1 1 1 1 1 1 1 1 1 1 1 1 1 1 1 1 1 1 1 1 1 1 1 1 1 1 1 1 1 1 1 1 1 1 1 1 1 1 1 1 1 1 1 1 1 1 1 1 1 1 1 1 1 1 1 1 1 1 1 1 1 1 1 1 1 1 1 1 1 1 1 1 1 1 1 1 1 1 1 1 1 1 1 1 1 1 1 1 1 1 1 1 1 1 1 1 1 1 1 1 1 1 1 1 1 1 1 1 1 1 1 1 1 1 1 1 1 1 1 1 1 1 1 1 1 1 1 1 1 1 1 1 1 1 1 1 1 1 1 1 1 1 1 1 1 1 1 1 1 1 1 1 1 1 1 1 1 1 1 1 1 1 1 1 1 1 1 1 1 1 1 1 1 1 1 1 1 1 1 1 1 1 1 1 1 1 1 1 1 1 1 1 1 1 1 1 1 1 1 1 1 1 1 1 1 1 1 1 1 1 1 1 1 1 1 1 1 1 1 1 1 1 1 1 1 1 1 1 1 1 1 1 1 1 1 1 1 1 1 1 1 1 1 1 1 1 1 1 1 1 1 1 1 1 1 1 1 1 1 1 1 1 1 1 1 1 1 1 1 1 1 1 1 1 1 1 1 1 1 1 1 1 1 1 1 1 1 1 1 1 1 1 1 1 1 1 1 1 1 1 1 1 1 1 1 1 1 1 1 1 1 1 1 1 1 1 1 1 1 1 1 1 1 1 1 1 1 1 1 1 1 1 1 1 1 1 1 1 1 1 1 1 1 1 1 1 1 1 1 1 1 1 1 1 1 1 1 1 1 1 1 1 1 1 1 1 1 1 1 1 1 1 1 1 1 1 1 1 1 1 1 1 1 1 1 1 1 1 1 1 1 1 1 1 1 1 1 1 1 1 1 1 1 1 1 1 1 1 1 1 1 1 1 1 1 1 1 1 1 1 1 1 1 1 1 1 1 1 1 1 1 1 1 1 1 1 1 1 1 1 1 1 1 1 1 1 1 1 1 1 1 1 1 1 1 1 1 1 1 1 1 1 1 1 1 1 1 1 1 1 1 1 1 1 1 1 1 1 1 1 1 1 1 1 1 1 1 1 1 1 1 1 1 1 1 1 1 1 1 1 1 1 1 1 1 1 1 1 1 1 1 1 1 1 1 1 1 1 1 1 1 1 1 1 1 1 1 1 1 1 1 1 1 1 1 1 1 1 1 1 1 1 1 1 1 1 1 1 1 1 1 1 1 1 1 1 1 1 1 1 1 1 1 1 1 1 1 1 1 1
				</DataArray>
				<DataArray Name="F2" type="Float32" format="ascii">
 0 0 0 0 0 0 0 0 0 0 0 0 0 0 0 0 0 0 0 0 0 0 0 0 0 0 0 0 0 0 0 0 0 0 0 0 0 0 0 0 0 0 0 0 0 0 0 0 0 0 0 0 0 0 0 0 0 0 0 0 0 0 0 0 0 0 0 0 0 0 0 0 0 0 0 0 0 0 0 0 0 0 0 0 0 0 0 0 0 0 0 0 0 0 0 0 0 0 0 0 0 0 0 0 0 0 0 0 0 0 0 0 0 0 0 0 0 0 0 0 0 0 0 0 0 0 0 0 0 0 0 0 0 0 0 0 0 0 0 0 0 0 0 0 0 0 0 0 0 0 0 0 0 0 0 0 0 0 0 0 0 0 0 0 0 0 0 0 0 0 0 0 0 0 0 0 0 0 0 0 0 0 0 0 0 0 0 0 0 0 0 0 0 0 0 0 0 0 0 0 0 0 0 0 0 0 0 0 0 0 0 0 0 0 0 0 0 0 0 0 0 0 0 0 0 0 0 0 0 0 0 0 0 0 0 0 0 0 0 0 0 0 0 0 0 0 0 0 0 0 0 0 0 0 0 0 0 0 0 0 0 0 0 0 0 0 0 0 0 0 0 0 0 0 0 0 0 0 0 0 0 0 0 0 0 0 0 0 0 0 0 0 0 0 0 0 0 0 0 0 0 0 0 0 0 0 0 0 0 0 0 0 0 0 0 0 0 0 0 0 0 0 0 0 0 0 0 0 0 0 0 0 0 0 0 0 0 0 0 0 0 0 0 0 0 0 0 0 0 0 0 0 0 0 0 0 0 0 0 0 0 0 0 0 0 0 0 0 0 0 0 0 0 0 0 0 0 0 0 0 0 0 0 0 0 0 0 0 0 0 0 0 0 0 0 0 0 0 0 0 0 0 0 0 0 0 0 0 0 0 0 0 0 0 0 0 0 0 0 0 0 0 0 0 0 0 0 0 0 0 0 0 0 0 0 0 0 0 0 0 0 0 0 0 0 0 0 0 0 0 0 0 0 0 0 0 0 0 0 0 0 0 0 0 0 0 0 0 0 0 0 0 0 0 0 0 0 0 0 0 0 0 0 0 0 0 0 0 0 0 0 0 0 0 0 0 0 0 0 0 0 0 0 0 0 0 0 0 0 0 0 0 0 0 0 0 0 0 0 0 0 0 0 0 0 0 0 0 0 0 0 0 0 0 0 0 0 0 0 0 0 0 0 0 0 0 0 0 0 0 0 0 0 0 0 0 0 0 0 0 0 0 0 0 0 0 0 0 0 0 0 0 0 0 0 0 0 0 0 0 0 0 0 0 0 0 0 0 0 0 0 0 0 0 0 0 0 0 0 0 0 0 0 0 0 0 0 0 0 0 0 0 0 0 0 0 0 0 0 0 0 0 0 0 0 0 0 0 0 0 0 0 0 0 0 0 0 0 0 0 0 0 0 0 0 0 0 0 0 0 0 0 0 0 0 0 0 0 0 0 0 0 0 0 0 0 0 0 0 0 0 0 0 0 0 0 0 0 0 0 0 0 0 0 0 0 0 0 0 0 0 0 0 0 0 0 0 0 0 0 0 0 0 0 0 0 0 0 0 0 0 0 0 0 0 0 0 0 0 0 0 0 0 0 0 0 0 0 0 0 0 0 0 0 0 0 0 0 0 0 0 0 0 0 0 0 0 0 0 0 0 0 0 0 0 0 0 0 0 0 0 0 0 0 0 0 0 0 0 0 0 0 0 0 0 0 0 0 0 0 0 0 0 0 0 0 0 0 0 0 0 0 0 0 0 0 0 0 0 0 0 0 0 0 0 0 0 0 0 0 0 0 0 0 0 0 0 0 0 0 0 0 0 0 0 0 0 0 0 0 0 0 0 0 0 0 0 0 0 0 0 0 0 0 0 0 0 0 0 0 0 0 0 0 0 0 0 0 0 0 0 0 0 0 0 0 0 0 0 0 0 0 0 0 0 0 0 0 0 0 0 0 0 0 0 0 0 0 0 0 0 0 0 0 0 0 0 0 0 0
				</DataArray>
				<DataArray Name="F3" type="Float32" format="ascii">