<?xml version="1.0"?>
<VTKFile type="PolyData">
	<PolyData>
		<Piece NumberOfPoints="961" NumberOfPolys="900">
			<Points>
				<DataArray type="Float32" NumberOfComponents="3" format="ascii">
 0 0 0 0.04 0 0 0.08 0 0 0.12 0 0 0.16 0 0 0.2 0 0 0.24 0 0 0.28 0 0 0.32 0 0 0.36 0 0 0.4 0 0 0.44 0 0 0.48 0 0 0.52 0 0 0.56 0 0 0.6 0 0 0.64 0 0 0.68 0 0 0.72 0 0 0.76 0 0 0.8 0 0 0.84 0 0 0.88 0 0 0.92 0 0 0.96 0 0 1 0 0 1.04 0 0 1.08 0 0 1.12 0 0 1.16 0 0 1.2 0 0 0 0.04 0 0.04 0.04 0 0.08 0.04 0 0.12 0.04 0 0.16 0.04 0 0.2 0.04 0 0.24 0.04 0 0.28 0.04 0 0.32 0.04 0 0.36 0.04 0 0.4 0.04 0 0.44 0.04 0 0.48 0.04 0 0.52 0.04 0 0.56 0.04 0 0.6 0.04 0 0.64 0.04 0 0.68 0.04 0 0.72 0.04 0 0.76 0.04 0 0.8 0.04 0 0.84 0.04 0 0.88 0.04 0 0.92 0.04 0 0.96 0.04 0 1 0.04 0 1.04 0.04 0 1.08 0.04 0 1.12 0.04 0 1.16 0.04 0 1.2 0.04 0 0 0.08 0 0.04 0.08 0 0.08 0.08 0 0.12 0.08 0 0.16 0.08 0 0.2 0.08 0 0.24 0.08 0 0.28 0.08 0 0.32 0.08 0 0.36 0.08 0 0.4 0.08 0 0.44 0.08 0 0.48 0.08 0 0.52 0.08 0 0.56 0.08 0 0.6 0.08 0 0.64 0.08 0 0.68 0.08 0 0.72 0.08 0 0.76 0.08 0 0.8 0.08 0 0.84 0.08 0 0.88 0.08 0 0.92 0.08 0 0.96 0.08 0 1 0.08 0 1.04 0.08 0 1.08 0.08 0 1.12 0.08 0 1.16 0.08 0 1.2 0.08 0 0 0.12 0 0.04 0.12 0 0.08 0.12 0 0.12 0.12 0 0.16 0.12 0 0.2 0.12 0 0.24 0.12 0 0.28 0.12 0 0.32 0.12 0 0.36 0.12 0 0.4 0.12 0 0.44 0.12 0 0.48 0.12 0 0.52 0.12 0 0.56 0.12 0 0.6 0.12 0 0.64 0.12 0 0.68 0.12 0 0.72 0.12 0 0.76 0.12 0 0.8 0.12 0 0.84 0.12 0 0.88 0.12 0 0.92 0.12 0 0.96 0.12 0 1 0.12 0 1.04 0.12 0 1.08 0.12 0 1.12 0.12 0 1.16 0.12 0 1.2 0.12 0 0 0.16 0 0.04 0.16 0 0.08 0.16 0 0.12 0.16 0 0.16 0.16 0 0.2 0.16 0 0.24 0.16 0 0.28 0.16 0 0.32 0.16 0 0.36 0.16 0 0.4 0.16 0 0.44 0.16 0 0.48 0.16 0 0.52 0.16 0 0.56 0.16 0 0.6 0.16 0 0.64 0.16 0 0.68 0.16 0 0.72 0.16 0 0.76 0.16 0 0.8 0.16 0 0.84 0.16 0 0.88 0.16 0 0.92 0.16 0 0.96 0.16 0 1 0.16 0 1.04 0.16 0 1.08 0.16 0 1.12 0.16 0 1.16 0.16 0 1.2 0.16 0 0 0.2 0 0.04 0.2 0 0.08 0.2 0 0.12 0.2 0 0.16 0.2 0 0.2 0.2 0 0.24 0.2 0 0.28 0.2 0 0.32 0.2 0 0.36 0.2 0 0.4 0.2 0 0.44 0.2 0 0.48 0.2 0 0.52 0.2 0 0.56 0.2 0 0.6 0.2 0 0.64 0.2 0 0.68 0.2 0 0.72 0.2 0 0.76 0.2 0 0.8 0.2 0 0.84 0.2 0 0.88 0.2 0 0.92 0.2 0 0.96 0.2 0 1 0.2 0 1.04 0.2 0 1.08 0.2 0 1.12 0.2 0 1.16 0.2 0 1.2 0.2 0 0 0.24 0 0.04 0.24 0 0.08 0.24 0 0.12 0.24 0 0.16 0.24 0 0.2 0.24 0 0.24 0.24 0 0.28 0.24 0 0.32 0.24 0 0.36 0.24 0 0.4 0.24 0 0.44 0.24 0 0.48 0.24 0 0.52 0.24 0 0.56 0.24 0 0.6 0.24 0 0.64 0.24 0 0.68 0.24 0 0.72 0.24 0 0.76 0.24 0 0.8 0.24 0 0.84 0.24 0 0.88 0.24 0 0.92 0.24 0 0.96 0.24 0 1 0.24 0 1.04 0.24 0 1.08 0.24 0 1.12 0.24 0 1.16 0.24 0 1.2 0.24 0 0 0.28 0 0.04 0.28 0 0.08 0.28 0 0.12 0.28 0 0.16 0.28 0 0.2 0.28 0 0.24 0.28 0 0.28 0.28 0 0.32 0.28 0 0.36 0.28 0 0.4 0.28 0 0.44 0.28 0 0.48 0.28 0 0.52 0.28 0 0.56 0.28 0 0.6 0.28 0 0.64 0.28 0 0.68 0.28 0 0.72 0.28 0 0.76 0.28 0 0.8 0.28 0 0.84 0.28 0 0.88 0.28 0 0.92 0.28 0 0.96 0.28 0 1 0.28 0 1.04 0.28 0 1.08 0.28 0 1.12 0.28 0 1.16 0.28 0 1.2 0.28 0 0 0.32 0 0.04 0.32 0 0.08 0.32 0 0.12 0.32 0 0.16 0.32 0 0.2 0.32 0 0.24 0.32 0 0.28 0.32 0 0.32 0.32 0 0.36 0.32 0 0.4 0.32 0 0.44 0.32 0 0.48 0.32 0 0.52 0.32 0 0.56 0.32 0 0.6 0.32 0 0.64 0.32 0 0.68 0.32 0 0.72 0.32 0 0.76 0.32 0 0.8 0.32 0 0.84 0.32 0 0.88 0.32 0 0.92 0.32 0 0.96 0.32 0 1 0.32 0 1.04 0.32 0 1.08 0.32 0 1.12 0.32 0 1.16 0.32 0 1.2 0.32 0 0 0.36 0 0.04 0.36 0 0.08 0.36 0 0.12 0.36 0 0.16 0.36 0 0.2 0.36 0 0.24 0.36 0 0.28 0.36 0 0.32 0.36 0 0.36 0.36 0 0.4 0.36 0 0.44 0.36 0 0.48 0.36 0 0.52 0.36 0 0.56 0.36 0 0.6 0.36 0 0.64 0.36 0 0.68 0.36 0 0.72 0.36 0 0.76 0.36 0 0.8 0.36 0 0.84 0.36 0 0.88 0.36 0 0.92 0.36 0 0.96 0.36 0 1 0.36 0 1.04 0.36 0 1.08 0.36 0 1.12 0.36 0 1.16 0.36 0 1.2 0.36 0 0 0.4 0 0.04 0.4 0 0.08 0.4 0 0.12 0.4 0 0.16 0.4 0 0.2 0.4 0 0.24 0.4 0 0.28 0.4 0 0.32 0.4 0 0.36 0.4 0 0.4 0.4 0 0.44 0.4 0 0.48 0.4 0 0.52 0.4 0 0.56 0.4 0 0.6 0.4 0 0.64 0.4 0 0.68 0.4 0 0.72 0.4 0 0.76 0.4 0 0.8 0.4 0 0.84 0.4 0 0.88 0.4 0 0.92 0.4 0 0.96 0.4 0 1 0.4 0 1.04 0.4 0 1.08 0.4 0 1.12 0.4 0 1.16 0.4 0 1.2 0.4 0 0 0.44 0 0.04 0.44 0 0.08 0.44 0 0.12 0.44 0 0.16 0.44 0 0.2 0.44 0 0.24 0.44 0 0.28 0.44 0 0.32 0.44 0 0.36 0.44 0 0.4 0.44 0 0.44 0.44 0 0.48 0.44 0 0.52 0.44 0 0.56 0.44 0 0.6 0.44 0 0.64 0.44 0 0.68 0.44 0 0.72 0.44 0 0.76 0.44 0 0.8 0.44 0 0.84 0.44 0 0.88 0.44 0 0.92 0.44 0 0.96 0.44 0 1 0.44 0 1.04 0.44 0 1.08 0.44 0 1.12 0.44 0 1.16 0.44 0 1.2 0.44 0 0 0.48 0 0.04 0.48 0 0.08 0.48 0 0.12 0.48 0 0.16 0.48 0 0.2 0.48 0 0.24 0.48 0 0.28 0.48 0 0.32 0.48 0 0.36 0.48 0 0.4 0.48 0 0.44 0.48 0 0.48 0.48 0 0.52 0.48 0 0.56 0.48 0 0.6 0.48 0 0.64 0.48 0 0.68 0.48 0 0.72 0.48 0 0.76 0.48 0 0.8 0.48 0 0.84 0.48 0 0.88 0.48 0 0.92 0.48 0 0.96 0.48 0 1 0.48 0 1.04 0.48 0 1.08 0.48 0 1.12 0.48 0 1.16 0.48 0 1.2 0.48 0 0 0.52 0 0.04 0.52 0 0.08 0.52 0 0.12 0.52 0 0.16 0.52 0 0.2 0.52 0 0.24 0.52 0 0.28 0.52 0 0.32 0.52 0 0.36 0.52 0 0.4 0.52 0 0.44 0.52 0 0.48 0.52 0 0.52 0.52 0 0.56 0.52 0 0.6 0.52 0 0.64 0.52 0 0.68 0.52 0 0.72 0.52 0 0.76 0.52 0 0.8 0.52 0 0.84 0.52 0 0.88 0.52 0 0.92 0.52 0 0.96 0.52 0 1 0.52 0 1.04 0.52 0 1.08 0.52 0 1.12 0.52 0 1.16 0.52 0 1.2 0.52 0 0 0.56 0 0.04 0.56 0 0.08 0.56 0 0.12 0.56 0 0.16 0.56 0 0.2 0.56 0 0.24 0.56 0 0.28 0.56 0 0.32 0.56 0 0.36 0.56 0 0.4 0.56 0 0.44 0.56 0 0.48 0.56 0 0.52 0.56 0 0.56 0.56 0 0.6 0.56 0 0.64 0.56 0 0.68 0.56 0 0.72 0.56 0 0.76 0.56 0 0.8 0.56 0 0.84 0.56 0 0.88 0.56 0 0.92 0.56 0 0.96 0.56 0 1 0.56 0 1.04 0.56 0 1.08 0.56 0 1.12 0.56 0 1.16 0.56 0 1.2 0.56 0 0 0.6 0 0.04 0.6 0 0.08 0.6 0 0.12 0.6 0 0.16 0.6 0 0.2 0.6 0 0.24 0.6 0 0.28 0.6 0 0.32 0.6 0 0.36 0.6 0 0.4 0.6 0 0.44 0.6 0 0.48 0.6 0 0.52 0.6 0 0.56 0.6 0 0.6 0.6 0 0.64 0.6 0 0.68 0.6 0 0.72 0.6 0 0.76 0.6 0 0.8 0.6 0 0.84 0.6 0 0.88 0.6 0 0.92 0.6 0 0.96 0.6 0 1 0.6 0 1.04 0.6 0 1.08 0.6 0 1.12 0.6 0 1.16 0.6 0 1.2 0.6 0 0 0.64 0 0.04 0.64 0 0.08 0.64 0 0.12 0.64 0 0.16 0.64 0 0.2 0.64 0 0.24 0.64 0 0.28 0.64 0 0.32 0.64 0 0.36 0.64 0 0.4 0.64 0 0.44 0.64 0 0.48 0.64 0 0.52 0.64 0 0.56 0.64 0 0.6 0.64 0 0.64 0.64 0 0.68 0.64 0 0.72 0.64 0 0.76 0.64 0 0.8 0.64 0 0.84 0.64 0 0.88 0.64 0 0.92 0.64 0 0.96 0.64 0 1 0.64 0 1.04 0.64 0 1.08 0.64 0 1.12 0.64 0 1.16 0.64 0 1.2 0.64 0 0 0.68 0 0.04 0.68 0 0.08 0.68 0 0.12 0.68 0 0.16 0.68 0 0.2 0.68 0 0.24 0.68 0 0.28 0.68 0 0.32 0.68 0 0.36 0.68 0 0.4 0.68 0 0.44 0.68 0 0.48 0.68 0 0.52 0.68 0 0.56 0.68 0 0.6 0.68 0 0.64 0.68 0 0.68 0.68 0 0.72 0.68 0 0.76 0.68 0 0.8 0.68 0 0.84 0.68 0 0.88 0.68 0 0.92 0.68 0 0.96 0.68 0 1 0.68 0 1.04 0.68 0 1.08 0.68 0 1.12 0.68 0 1.16 0.68 0 1.2 0.68 0 0 0.72 0 0.04 0.72 0 0.08 0.72 0 0.12 0.72 0 0.16 0.72 0 0.2 0.72 0 0.24 0.72 0 0.28 0.72 0 0.32 0.72 0 0.36 0.72 0 0.4 0.72 0 0.44 0.72 0 0.48 0.72 0 0.52 0.72 0 0.56 0.72 0 0.6 0.72 0 0.64 0.72 0 0.68 0.72 0 0.72 0.72 0 0.76 0.72 0 0.8 0.72 0 0.84 0.72 0 0.88 0.72 0 0.92 0.72 0 0.96 0.72 0 1 0.72 0 1.04 0.72 0 1.08 0.72 0 1.12 0.72 0 1.16 0.72 0 1.2 0.72 0 0 0.76 0 0.04 0.76 0 0.08 0.76 0 0.12 0.76 0 0.16 0.76 0 0.2 0.76 0 0.24 0.76 0 0.28 0.76 0 0.32 0.76 0 0.36 0.76 0 0.4 0.76 0 0.44 0.76 0 0.48 0.76 0 0.52 0.76 0 0.56 0.76 0 0.6 0.76 0 0.64 0.76 0 0.68 0.76 0 0.72 0.76 0 0.76 0.76 0 0.8 0.76 0 0.84 0.76 0 0.88 0.76 0 0.92 0.76 0 0.96 0.76 0 1 0.76 0 1.04 0.76 0 1.08 0.76 0 1.12 0.76 0 1.16 0.76 0 1.2 0.76 0 0 0.8 0 0.04 0.8 0 0.08 0.8 0 0.12 0.8 0 0.16 0.8 0 0.2 0.8 0 0.24 0.8 0 0.28 0.8 0 0.32 0.8 0 0.36 0.8 0 0.4 0.8 0 0.44 0.8 0 0.48 0.8 0 0.52 0.8 0 0.56 0.8 0 0.6 0.8 0 0.64 0.8 0 0.68 0.8 0 0.72 0.8 0 0.76 0.8 0 0.8 0.8 0 0.84 0.8 0 0.88 0.8 0 0.92 0.8 0 0.96 0.8 0 1 0.8 0 1.04 0.8 0 1.08 0.8 0 1.12 0.8 0 1.16 0.8 0 1.2 0.8 0 0 0.84 0 0.04 0.84 0 0.08 0.84 0 0.12 0.84 0 0.16 0.84 0 0.2 0.84 0 0.24 0.84 0 0.28 0.84 0 0.32 0.84 0 0.36 0.84 0 0.4 0.84 0 0.44 0.84 0 0.48 0.84 0 0.52 0.84 0 0.56 0.84 0 0.6 0.84 0 0.64 0.84 0 0.68 0.84 0 0.72 0.84 0 0.76 0.84 0 0.8 0.84 0 0.84 0.84 0 0.88 0.84 0 0.92 0.84 0 0.96 0.84 0 1 0.84 0 1.04 0.84 0 1.08 0.84 0 1.12 0.84 0 1.16 0.84 0 1.2 0.84 0 0 0.88 0 0.04 0.88 0 0.08 0.88 0 0.12 0.88 0 0.16 0.88 0 0.2 0.88 0 0.24 0.88 0 0.28 0.88 0 0.32 0.88 0 0.36 0.88 0 0.4 0.88 0 0.44 0.88 0 0.48 0.88 0 0.52 0.88 0 0.56 0.88 0 0.6 0.88 0 0.64 0.88 0 0.68 0.88 0 0.72 0.88 0 0.76 0.88 0 0.8 0.88 0 0.84 0.88 0 0.88 0.88 0 0.92 0.88 0 0.96 0.88 0 1 0.88 0 1.04 0.88 0 1.08 0.88 0 1.12 0.88 0 1.16 0.88 0 1.2 0.88 0 0 0.92 0 0.04 0.92 0 0.08 0.92 0 0.12 0.92 0 0.16 0.92 0 0.2 0.92 0 0.24 0.92 0 0.28 0.92 0 0.32 0.92 0 0.36 0.92 0 0.4 0.92 0 0.44 0.92 0 0.48 0.92 0 0.52 0.92 0 0.56 0.92 0 0.6 0.92 0 0.64 0.92 0 0.68 0.92 0 0.72 0.92 0 0.76 0.92 0 0.8 0.92 0 0.84 0.92 0 0.88 0.92 0 0.92 0.92 0 0.96 0.92 0 1 0.92 0 1.04 0.92 0 1.08 0.92 0 1.12 0.92 0 1.16 0.92 0 1.2 0.92 0 0 0.96 0 0.04 0.96 0 0.08 0.96 0 0.12 0.96 0 0.16 0.96 0 0.2 0.96 0 0.24 0.96 0 0.28 0.96 0 0.32 0.96 0 0.36 0.96 0 0.4 0.96 0 0.44 0.96 0 0.48 0.96 0 0.52 0.96 0 0.56 0.96 0 0.6 0.96 0 0.64 0.96 0 0.68 0.96 0 0.72 0.96 0 0.76 0.96 0 0.8 0.96 0 0.84 0.96 0 0.88 0.96 0 0.92 0.96 0 0.96 0.96 0 1 0.96 0 1.04 0.96 0 1.08 0.96 0 1.12 0.96 0 1.16 0.96 0 1.2 0.96 0 0 1 0 0.04 1 0 0.08 1 0 0.12 1 0 0.16 1 0 0.2 1 0 0.24 1 0 0.28 1 0 0.32 1 0 0.36 1 0 0.4 1 0 0.44 1 0 0.48 1 0 0.52 1 0 0.56 1 0 0.6 1 0 0.64 1 0 0.68 1 0 0.72 1 0 0.76 1 0 0.8 1 0 0.84 1 0 0.88 1 0 0.92 1 0 0.96 1 0 1 1 0 1.04 1 0 1.08 1 0 1.12 1 0 1.16 1 0 1.2 1 0 0 1.04 0 0.04 1.04 0 0.08 1.04 0 0.12 1.04 0 0.16 1.04 0 0.2 1.04 0 0.24 1.04 0 0.28 1.04 0 0.32 1.04 0 0.36 1.04 0 0.4 1.04 0 0.44 1.04 0 0.48 1.04 0 0.52 1.04 0 0.56 1.04 0 0.6 1.04 0 0.64 1.04 0 0.68 1.04 0 0.72 1.04 0 0.76 1.04 0 0.8 1.04 0 0.84 1.04 0 0.88 1.04 0 0.92 1.04 0 0.96 1.04 0 1 1.04 0 1.04 1.04 0 1.08 1.04 0 1.12 1.04 0 1.16 1.04 0 1.2 1.04 0 0 1.08 0 0.04 1.08 0 0.08 1.08 0 0.12 1.08 0 0.16 1.08 0 0.2 1.08 0 0.24 1.08 0 0.28 1.08 0 0.32 1.08 0 0.36 1.08 0 0.4 1.08 0 0.44 1.08 0 0.48 1.08 0 0.52 1.08 0 0.56 1.08 0 0.6 1.08 0 0.64 1.08 0 0.68 1.08 0 0.72 1.08 0 0.76 1.08 0 0.8 1.08 0 0.84 1.08 0 0.88 1.08 0 0.92 1.08 0 0.96 1.08 0 1 1.08 0 1.04 1.08 0 1.08 1.08 0 1.12 1.08 0 1.16 1.08 0 1.2 1.08 0 0 1.12 0 
[...]
			<CellData Scalars="Density">
				<DataArray Name="Density" type="Float32" format="ascii">
 0.00351736 0.0036852 0.00408675 0.00481505 0.00588964 0.00728466 0.00900006 0.0110317 0.013391 0.0161024 0.0192064 0.0227575 0.0268296 0.0315196 0.0369556 0.0433117 0.0508273 0.0598571 0.070939 0.0849532 0.10346 0.130121 0.176894 0.270773 0.446125 0.757404 1.30172 2.14573 3.25041 4.43974 0.00368406 0.00382255 0.00415928 0.0048121 0.00582992 0.00721398 0.00897356 0.0111116 0.0136613 0.0166299 0.0200598 0.0239968 0.0285143 0.0337053 0.0396993 0.0466768 0.0548708 0.0646239 0.0764578 0.0912273 0.110673 0.138521 0.186343 0.281368 0.458396 0.768138 1.30883 2.16765 3.29601 4.49581 0.00408496 0.00415942 0.00437434 0.00486493 0.00570258 0.00688048 0.00843671 0.0103964 0.0127491 0.01553 0.0187586 0.0224812 0.0267577 0.031683 0.0374024 0.0440706 0.0519366 0.0613408 0.0727969 0.0871653 0.106057 0.132951 0.178456 0.270392 0.445425 0.757225 1.30007 2.1697 3.33182 4.62353 0.00481312 0.00481415 0.0048682 0.00521734 0.00589056 0.00691104 0.00832787 0.0101272 0.0123597 0.0150459 0.01823 0.0219638 0.0263299 0.0314296 0.0373748 0.0443987 0.0527111 0.0626063 0.0745417 0.0893021 0.108298 0.134621 0.178255 0.265126 0.429683 0.728026 1.25973 2.14507 3.32714 4.62654 0.0058868 0.00583417 0.00570966 0.00589565 0.00647576 0.00742844 0.00876753 0.0105544 0.0128207 0.0156193 0.019009 0.0230645 0.027882 0.0335765 0.0403112 0.0482019 0.0575064 0.0685428 0.0817756 0.0979675 0.118479 0.146111 0.189565 0.274617 0.440297 0.741972 1.26493 2.14486 3.34181 4.68484 0.00728002 0.00721922 0.00689151 0.00692167 0.00743437 0.00832758 0.00967819 0.0115042 0.0138824 0.0168641 0.0205336 0.0249685 0.0302808 0.0365871 0.0440224 0.0527846 0.0630887 0.0752359 0.0896621 0.10713 0.128955 0.157619 0.200837 0.282834 0.446133 0.741309 1.25555 2.13068 3.35678 4.77033 0.00899344 0.00897767 0.0084523 0.00834211 0.00877898 0.00968407 0.0110914 0.01304 0.0156127 0.0188766 0.0229241 0.0278466 0.0337543 0.0407847 0.0490807 0.0588364 0.0702965 0.0837541 0.09965 0.118733 0.142471 0.173158 0.216952 0.293757 0.454088 0.75015 1.26618 2.14116 3.41843 4.92452 0.011022 0.011117 0.0104098 0.0101438 0.0105692 0.0115152 0.0130464 0.0151808 0.0180279 0.0216552 0.0261671 0.0316531 0.0382434 0.0460597 0.0552808 0.0660861 0.0787675 0.0936197 0.111104 0.131875 0.157257 0.189533 0.233701 0.305975 0.457596 0.753559 1.2691 2.15011 3.50931 5.1333 0.0133774 0.0136634 0.0127606 0.0123743 0.0128365 0.0138949 0.0156219 0.0180329 0.0212564 0.0253577 0.0304564 0.0366359 0.0440333 0.0527913 0.0630721 0.0751103 0.0891598 0.105628 0.12496 0.14776 0.175345 0.209932 0.255864 0.325245 0.46216 0.754102 1.27659 2.16907 3.62702 5.39677 0.0160842 0.0166287 0.0155359 0.0150559 0.0156305 0.0168748 0.0188823 0.0216548 0.025356 0.0300389 0.0358313 0.0428226 0.0511418 0.060948 0.0724271 0.0858042 0.101421 0.119608 0.141016 0.16623 0.196237 0.233196 0.281247 0.34959 0.470262 0.745941 1.27615 2.18394 3.74825 5.70782 0.0191838 0.0200547 0.018759 0.018232 0.0190132 0.0205342 0.0229215 0.0261547 0.0304371 0.0358188 0.0424283 0.0503462 0.0597261 0.0707027 0.0835121 0.0983926 0.115694 0.135894 0.159473 0.187377 0.220633 0.260651 0.311534 0.381388 0.492746 0.736577 1.26517 2.19841 3.84921 6.05566 0.0227301 0.0239889 0.0224754 0.0219577 0.0230597 0.0249613 0.0278278 0.0316286 0.0366021 0.0427853 0.0503322 0.0593008 0.0698473 0.0821459 0.0963977 0.112939 0.132124 0.154443 0.180652 0.211384 0.248116 0.292382 0.346817 0.418702 0.526669 0.732514 1.23376 2.19898 3.91675 6.43396 0.0267965 0.028503 0.026746 0.0263147 0.0278675 0.0302605 0.0337253 0.0381957 0.0439832 0.0510913 0.0596814 0.0698337 0.0816906 0.0954275 0.111324 0.12965 0.150935 0.175679 0.204592 0.238839 0.279462 0.32839 0.388682 0.465048 0.573151 0.757861 1.1985 2.17342 3.96238 6.81082 0.0314797 0.0336902 0.0316653 0.0314062 0.0335519 0.0365536 0.0407329 0.0459965 0.0527088 0.0608689 0.0706436 0.08209 0.095409 0.110763 0.128441 0.148847 0.172385 0.199846 0.232008 0.269787 0.315249 0.369787 0.436387 0.520411 0.632694 0.809124 1.17758 2.11175 3.98531 7.15921 0.0369076 0.0396786 0.0373783 0.0373462 0.0402783 0.0439802 0.0490197 0.055192 0.0629779 0.0723199 0.0834185 0.096336 0.111262 0.128428 0.148143 0.170801 0.197051 0.227472 0.263272 0.305623 0.355893 0.417398 0.492591 0.586001 0.708782 0.886609 1.21206 2.04642 4.00378 7.44042 0.0432537 0.0466483 0.0440392 0.0443618 0.0481655 0.0527357 0.0587647 0.0659978 0.0749916 0.0856864 0.0982799 0.112835 0.129593 0.148779 0.1708 0.196106 0.225286 0.259386 0.299259 0.346732 0.403745 0.472199 0.557994 0.664692 0.801712 0.992198 1.30972 2.01681 4.00625 7.56712 0.0507571 0.0548326 0.0518952 0.0526675 0.0574648 0.0630371 0.0702237 0.0786615 0.0890532 0.10128 0.115569 0.132009 0.150834 0.172349 0.196983 0.225327 0.258097 0.296193 0.341259 0.394598 0.459262 0.538098 0.634835 0.758893 0.918209 1.13086 1.45999 2.08699 3.9677 7.50525 0.0597722 0.0645725 0.0612869 0.062554 0.0684972 0.0751794 0.0836803 0.09353 0.105504 0.119497 0.135746 0.154314 0.175563 0.199744 0.227469 0.259329 0.296248 0.339441 0.390237 0.451316 0.524887 0.615881 0.729427 0.872104 1.06142 1.31322 1.67365 2.28592 3.90365 7.19359 0.0708367 0.0763902 0.0727264 0.0744781 0.081723 0.0896089 0.0995734 0.111009 0.124864 0.140887 0.159388 0.180497 0.204491 0.231905 0.263158 0.29936 0.341219 0.390449 0.448838 0.518603 0.604465 0.709835 0.844024 1.01537 1.23955 1.54432 1.9694 2.60547 3.82088 6.55486 0.0848314 0.0911392 0.0870746 0.0892241 0.0979081 0.107072 0.11867 0.131789 0.147672 0.16613 0.187281 0.211337 0.238701 0.269812 0.305545 0.346597 0.39485 0.451272 0.519142 0.600916 0.700898 0.826889 0.986032 1.19453 1.4703 1.83822 2.35161 3.01928 3.72921 5.55066 0.103318 0.110564 0.105944 0.108203 0.11841 0.128892 0.142412 0.157181 0.17527 0.196153 0.220535 0.248046 0.279422 0.315146 0.356166 0.403698 0.459156 0.525408 0.604052 0.701578 0.821481 0.972318 1.16845 1.4238 1.76665 2.22666 2.82163 3.45074 3.67759 4.27601 0.129974 0.138404 0.132829 0.134524 0.14604 0.157559 0.173094 0.189474 0.209852 0.233141 0.260593 0.292279 0.328328 0.369814 0.417341 0.472867 0.538065 0.616112 0.710601 0.826018 0.973242 1.15924 1.40197 1.7225 2.15414 2.72205 3.29793 3.67303 3.4422 2.88587 0.176766 0.186238 0.178338 0.17817 0.189511 0.200803 0.216885 0.233636 0.255815 0.281142 0.311513 0.346798 0.388517 0.436348 0.49273 0.557752 0.63592 0.729435 0.844236 0.986924 1.16705 1.40244 1.70925 2.11774 2.65088 3.24906 3.6444 3.61757 2.68771 1.76999 0.270613 0.281224 0.270228 0.265021 0.274578 0.282804 0.293733 0.305892 0.325221 0.349501 0.381236 0.418732 0.465015 0.520085 0.586214 0.664857 0.758233 0.874201 1.01511 1.1951 1.42488 1.72222 2.11609 2.63589 3.21361 3.62653 3.65688 2.90696 1.79068 1.25291 0.445836 0.458096 0.445086 0.429456 0.440167 0.446045 0.454028 0.457597 0.462085 0.470242 0.49255 0.526626 0.57311 0.632736 0.708098 0.802586 0.917874 1.06054 1.24186 1.46964 1.76561 2.15578 2.65667 3.20182 3.63763 3.68805 3.02698 1.90443 1.23774 1.07481 0.756921 0.767611 0.756629 0.72758 0.74164 0.741066 0.750046 0.753472 0.754039 0.745803 0.736532 0.732368 0.757636 0.809332 0.886521 0.9913 1.13305 1.31283 1.54358 1.84231 2.22556 2.71897 3.25105 3.64359 3.67052 3.05586 1.96778 1.29607 1.0808 1.01875 1.30108 1.30816 1.29928 1.25911 1.26439 1.25523 1.266 1.26889 1.27651 1.27605 1.2651 1.23346 1.1983 1.17715 1.21294 1.30837 1.45908 1.67689 1.96746 2.35098 2.82481 3.30673 3.62502 3.66865 3.00815 1.99543 1.29444 1.08581 1.02261 1.0025 2.1446 2.16656 2.16848 2.14408 2.14381 2.13026 2.14072 2.15002 2.16895 2.18401 2.19788 2.19882 2.17383 2.11122 2.04713 2.01823 2.08486 2.28579 2.60876 3.01743 3.44196 3.68155 3.62183 2.92618 1.89813 1.2882 1.08811 1.02323 1.00292 1.00007 3.24897 3.29461 3.33018 3.32588 3.34035 3.35614 3.41783 3.50906 3.62661 3.74811 3.84907 3.91676 3.96225 3.98515 4.00451 4.00695 3.96727 3.90459 3.82005 3.74342 3.66325 3.43692 2.6856 1.77624 1.24717 1.07972 1.02239 1.00295 1.00008 1 4.43776 4.4939 4.62128 4.62477 4.68296 4.7696 4.92368 5.13349 5.39504 5.70742 6.05797 6.43132 6.80873 7.16239 7.43644 7.56245 7.51626 7.19092 6.53929 5.56759 4.26684 2.87705 1.7837 1.24723 1.07466 1.01898 1.00249 1.00007 1 1
				</DataArray>
				<DataArray Name="Energy" type="Float32" format="ascii">
 807.594 770.291 694.71 589.695 482.184 389.896 315.61 257.567 212.226 176.556 148.09 125.055 106.154 90.4514 77.256 66.0545 56.456 48.1756 41.0003 34.7801 29.4011 24.8305 21.1598 17.8421 14.1665 10.5732 7.65373 5.5566 4.08943 3.23687 770.534 741.917 681.704 589.288 486.341 393.053 316.074 255.188 207.642 170.604 141.493 118.337 99.6648 84.4016 71.7511 61.1437 52.1499 44.4613 37.8399 32.1212 27.2066 23.0386 19.68 16.7358 13.4404 10.1309 7.38628 5.40021 4.00382 3.17266 695.015 681.688 648.313 582.77 497.28 412.191 336.049 272.885 222.486 182.729 151.341 126.367 106.247 89.8144 76.2222 64.8214 55.167 46.9163 39.8288 33.7327 28.5057 24.072 20.4795 17.4174 13.9692 10.4825 7.5833 5.4862 4.02027 3.18091 589.937 589.029 582.383 543.57 481.413 410.23 340.674 280.022 229.566 188.616 155.742 129.334 107.99 90.593 76.2539 64.3046 54.305 45.8936 38.7866 32.7757 27.6845 23.4095 19.9852 17.1689 13.9925 10.6369 7.71545 5.57019 4.06253 3.18813 482.419 485.986 496.665 480.994 437.834 381.913 323.408 268.83 221.305 181.729 149.389 123.207 101.999 84.7754 70.7482 59.2759 49.8126 41.9646 35.418 29.9439 25.3485 21.5123 18.4207 16.0628 13.5143 10.5806 7.80268 5.65898 4.12142 3.21868 390.143 392.775 411.522 409.611 381.604 340.501 293.161 246.591 204.433 168.338 138.334 113.836 93.9585 77.8623 64.7983 54.1568 45.4216 38.2132 32.2259 27.2435 23.0789 19.6074 16.8061 14.7346 12.7382 10.2905 7.7809 5.70863 4.16389 3.23459 315.845 315.921 335.44 340.086 322.994 292.98 255.765 217.626 181.807 150.438 123.941 102.119 84.3239 69.8882 58.1739 48.6338 40.818 34.3744 29.0251 24.5782 20.8747 17.7851 15.251 13.3405 11.849 9.93949 7.74121 5.75512 4.20027 3.23689 257.791 255.069 272.524 279.575 268.449 246.359 217.517 186.972 157.497 131.181 108.631 89.8774 74.4812 61.9253 51.6995 43.3448 36.4807 30.8054 26.0766 22.1226 18.8121 16.0484 13.7568 11.9905 10.7838 9.40657 7.58649 5.75943 4.22388 3.22954 212.441 207.606 222.295 229.287 221.038 204.242 181.694 157.46 133.631 112.075 93.3865 77.7071 64.7348 54.0898 45.365 38.2027 32.2852 27.3733 23.2609 19.8009 16.8866 14.4436 12.4006 10.7679 9.65565 8.74746 7.35754 5.73833 4.24208 3.21961 176.753 170.618 182.655 188.494 181.592 168.24 150.388 131.177 112.091 94.6728 79.4322 66.5434 55.7945 46.9071 39.5696 33.5008 28.4563 24.2375 20.6874 17.6814 15.1235 12.9619 11.1436 9.65421 8.56617 7.9248 6.99819 5.65845 4.24677 3.20792 148.263 141.527 151.336 155.722 149.359 138.323 123.965 108.68 93.4405 79.4668 67.1507 56.6601 47.8462 40.4994 34.3851 29.2876 25.0154 21.4196 18.3675 15.7699 13.5437 11.6391 10.0241 8.68085 7.63543 7.03979 6.513 5.51412 4.23112 3.19777 125.204 118.375 126.398 129.369 123.232 113.874 102.179 89.9548 77.7797 66.5948 56.6815 48.1796 40.9816 34.9364 29.8599 25.5932 21.9873 18.9259 16.3117 14.0665 12.1312 10.4611 9.02363 7.81199 6.8351 6.18802 5.88639 5.27788 4.18555 3.18468 106.284 99.7032 106.294 108.051 102.052 94.0201 84.403 74.5662 64.8135 55.8529 47.8758 40.994 35.1231 30.1521 25.9447 22.3748 19.3345 16.7317 14.4901 12.5543 10.8713 9.41008 8.14096 7.0517 6.15079 5.48496 5.1992 4.92674 4.09868 3.16205 90.5645 84.4391 89.8647 90.6596 84.8384 77.9334 69.9735 62.0166 54.1693 46.9696 40.5379 34.9559 30.1611 26.0688 22.5748 19.5879 17.0198 14.8054 12.8844 11.2111 9.74961 8.47009 7.35043 6.37771 5.55166 4.90485 4.54003 4.44445 3.94739 3.12064 77.3556 71.788 76.2711 76.3146 70.8032 64.8608 58.2479 51.7775 45.4367 39.6263 34.4229 29.8841 25.9567 22.5801 19.6735 17.1671 14.9978 13.1097 11.4612 10.0164 8.74322 7.62488 6.6393 5.7748 5.02727 4.41343 3.99474 3.9074 3.71023 3.04395 66.1426 61.181 64.8677 64.3575 59.3204 54.2061 48.6918 43.4073 38.2581 33.5483 29.3208 25.6153 22.3894 19.5949 17.1705 15.064 13.2252 11.6158 10.1983 8.94844 7.84181 6.86024 5.99382 5.22736 4.55536 3.98577 3.55563 3.38801 3.37264 2.91748 56.534 52.187 55.2108 54.3504 49.8479 45.4587 40.8604 36.5254 32.3279 28.4913 25.0419 22.0063 19.3467 17.0282 15.0014 13.2271 11.6679 10.2914 9.07396 7.9912 7.02764 6.16956 5.40438 4.72747 4.12749 3.60616 3.18391 2.94035 2.97696 2.72366 48.2445 44.4975 46.9577 45.9325 41.9928 38.2401 34.4039 30.837 27.4018 24.2645 21.4384 18.9406 16.7422 14.8122 13.1147 11.6177 10.2926 9.11627 8.06717 7.13091 6.29066 5.53915 4.86689 4.26545 3.73254 3.26288 2.8619 2.5757 2.56146 2.4504 41.0607 37.8749 39.868 38.8203 35.4407 32.2462 29.0444 26.0961 23.2796 20.704 18.3817 16.3215 14.4972 12.8897 11.4638 10.2009 9.07425 8.06702 7.16469 6.35242 5.62266 4.96351 4.37263 3.84193 3.36632 2.94447 2.57671 2.27337 2.15826 2.09589 34.8326 32.1546 33.769 32.8056 29.9631 27.2584 24.5928 22.1341 19.8108 17.6918 15.7775 14.0742 12.5586 11.2149 10.0182 8.94883 7.99235 7.12966 6.35315 5.65039 5.01359 4.4389 3.91784 3.44953 3.02855 2.64691 2.31362 2.01007 1.79723 1.67162 29.4461 27.2383 28.5393 27.7111 25.3651 23.0906 20.8853 18.8209 16.8915 15.1286 13.5481 12.1347 10.8746 9.75139 8.745 7.84234 7.02736 6.29081 5.6212 5.01448 4.46098 3.95722 3.50246 3.08767 2.71301 2.37285 2.06983 1.76855 1.49414 1.20099 24.8693 23.0687 24.1036 23.4344 21.527 19.6175 17.7928 16.0541 14.4473 12.964 11.641 10.4631 9.41071 8.47191 7.62454 6.86121 6.16923 5.53842 4.96412 4.43751 3.95869 3.51834 3.11775 2.75349 2.42106 2.11623 1.82687 1.5205 1.19828 0.707027 21.192 19.7076 20.5081 20.0079 18.4343 16.8149 15.2574 13.7606 12.4029 11.145 10.024 9.02498 8.14089 7.35014 6.6393 5.9921 5.40437 4.86533 4.37168 3.9178 3.49998 3.1187 2.76562 2.4424 2.15019 1.86591 1.57735 1.24033 0.810103 0.255435 17.8621 16.7547 17.4378 17.1857 16.0738 14.7416 13.3454 11.9937 10.7695 9.65504 8.68059 7.81213 7.05255 6.3774 5.77423 5.22754 4.72564 4.26578 3.84067 3.44956 3.0869 2.75157 2.44417 2.15869 1.8868 1.60587 1.29499 0.873526 0.340079 0.0330346 14.1764 13.4509 13.9808 14.0023 13.5209 12.7425 11.852 10.7855 9.65678 8.56626 7.63497 6.83501 6.15062 5.55256 5.02556 4.55546 4.12743 3.73079 3.36677 3.02743 2.7125 2.41987 2.14962 1.88711 1.61909 1.31912 0.928731 0.398322 0.0477844 0.0010614 10.5767 10.1353 10.4876 10.6417 10.5839 10.2927 9.9412 9.40731 8.74739 7.92465 7.03886 6.18776 5.48447 4.90549 4.41313 3.9842 3.60698 3.26226 2.94387 2.64784 2.37126 2.11695 1.86465 1.60739 1.31639 0.941571 0.434252 0.0651558 0.00181533 1.25943e-05 7.65422 7.3872 7.58465 7.7169 7.80369 7.78135 7.7415 7.58664 7.35731 6.99779 6.51202 5.88515 5.19914 4.54025 3.99519 3.55456 3.18317 2.8623 2.5754 2.31439 2.06873 1.82776 1.57468 1.29673 0.926652 0.434733 0.0688099 0.00232428 2.03102e-05 2.54278e-06 5.55575 5.39955 5.48579 5.56984 5.65863 5.70817 5.75453 5.75875 5.73785 5.65825 5.5135 5.27619 4.92573 4.44457 3.90773 3.38728 2.93915 2.57553 2.27258 2.00966 1.76692 1.52151 1.24035 0.874944 0.399166 0.0644833 0.00233915 2.30036e-05 2.55946e-06 2.50012e-06 4.08845 4.00296 4.01951 4.06174 4.12076 4.16298 4.19935 4.22288 4.24188 4.24628 4.23033 4.18496 4.09743 3.94649 3.71 3.3716 2.97602 2.56057 2.15852 1.79667 1.4921 1.19765 0.811174 0.337953 0.0483929 0.0018123 2.0127e-05 2.55993e-06 2.50014e-06 2.5e-06 3.23605 3.17181 3.18022 3.18737 3.21819 3.23364 3.23619 3.22859 3.21993 3.20766 3.19643 3.18507 3.16188 3.11951 3.04458 2.91804 2.72221 2.44959 2.09534 1.67151 1.20013 0.704991 0.256383 0.0325751 0.00106069 1.27226e-05 2.54265e-06 2.50012e-06 2.5e-06 2.5e-06
				</DataArray>
				<DataArray Name="F1" type="Float32" format="ascii">
 1 1 1 1 1 1 1 1 1 1 1 1 1 1 1 1 1 1 1 1 1 1 1 1 1 1 1 1 1 1 1 1 1 1 1 1 1 1 1 1 1 1 1 1 1 1 1 1 1 1 1 1 1 1 1 1 1 1 1 1 1 1 1 1 1 1 1 1 1 1 1 1 1 1 1 1 1 1 1 1 1 1 1 1 1 1 1 1 1 1 1 1 1 1 1 1 1 1 1 1 1 1 1 1 1 1 1 1 1 1 1 1 1 1 1 1 1 1 1 1 1 1 1 1 1 1 1 1 1 1 1 1 1 1 1 1 1 1 1 1 1 1 1 1 1 1 1 1 1 1 1 1 1 1 1 1 1 1 1 1 1 1 1 1 1 1 1 1 1 1 1 1 1 1 1 1 1 1 1 1 1 1 1 1 1 1 1 1 1 1 1 1 1 1 1 1 1 1 1 1 1 1 1 1 1 1 1 1 1 1 1 1 1 1 1 1 1 1 1 1 1 1 1 1 1 1 1 1 1 1 1 1 1 1 1 1 1 1 1 1 1 1 1 1 1 1 1 1 1 1 1 1 1 1 1 1 1 1 1 1 1 1 1 1 1 1 1 1 1 1 1 1 1 1 1 1 1 1 1 1 1 1 1 1 1 1 1 1 1 1 1 1 1 1 1 1 1 1 1 1 1 1 1 1 1 1 1 1 1 1 1 1 1 1 1 1 1 1 1 1 1 1 1 1 1 1 1 1 1 1 1 1 1 1 1 1 1 1 1 1 1 1 1 1 1 1 1 1 1 1 1 1 1 1 1 1 1 1 1 1 1 1 1 1 1 1 1 1 1 1 1 1 1 1 1 1 1 1 1 1 1 1 1 1 1 1 1 1 1 1 1 1 1 1 1 1 1 1 1 1 1 1 1 1 1 1 1 1 1 1 1 1 1 1 1 1 1 1 1 1 1 1 1 1 1 1 1 1 1 1 1 1 1 1 1 1 1 1 1 1 1 1 1 1 1 1 1 1 1 1 1 1 1 1 1 1 1 1 1 1 1 1 1 1 1 1 1 1 1 1 1 1 1 1 1 1 1 1 1 1 1 1 1 1 1 1 1 1 1 1 1 1 1 1 1 1 1 1 1 1 1 1 1 1 1 1 1 1 1 1 1 1 1 1 1 1 1 1 1 1 1 1 1 1 1 1 1 1 1 1 1 1 1 1 1 1 1 1 1 1 1 1 1 1 1 1 1 1 1 1 1 1 1 1 1 1 1 1 1 1 1 1 1 1 1 1 1 1 1 1 1 1 1 1 1 1 1 1 1 1 1 1 1 1 1 1 1 1 1 1 1 1 1 1 1 1 1 1 1 1 1 1 1 1 1 1 1 1 1 1 1 1 1 1 1 1 1 1 1 1 1 1 1 1 1 1 1 1 1 1 1 1 1 1 1 1 1 1 1 1 1 1 1 1 1 1 1 1 1 1 1 1 1 1 1 1 1 1 1 1 1 1 1 1 1 1 1 1 1 1 1 1 1 1 1 1 1 1 1 1 1 1 1 1 1 1 1 1 1 1 1 1 1 1 1 1 1 1 1 1 1 1 1 1 1 1 1 1 1 1 1 1 1 1 1 1 1 1 1 1 1 1 1 1 1 1 1 1 1 1 1 1 1 1 1 1 1 1 1 1 1 1 1 1 1 1 1 1 1 1 1 1 1 1 1 1 1 1 1 1 1 1 1 1 1 1 1 1 1 1 1 1 1 1 1 1 1 1 1 1 1 1 1 1 1 1 1 1 1 1 1 1 1 1 1 1 1 1 1 1 1 1 1 1 1 1 1 1 1 1 1 1 1 1 1 1 1 1 1 1 1 1 1 1 1 1 1 1 1 1 1 1 1 1 1 1 1 1 1 1 1 1 1 1 1 1 1 1 1 1 1 1 1 1 1 1 1 1 1 1 1 1 1 1 1 1 1 1 1 1 1 1 1 1 1 1 1 1 1 1 1 1 1 1 1 1 1 1 1 1 1 1 1 1 1 1 1 1 1 1
				</DataArray>
				<DataArray Name="F2" type="Float32" format="ascii">
 0 0 0 0 0 0 0 0 0 0 0 0 0 0 0 0 0 0 0 0 0 0 0 0 0 0 0 0 0 0 0 0 0 0 0 0 0 0 0 0 0 0 0 0 0 0 0 0 0 0 0 0 0 0 0 0 0 0 0 0 0 0 0 0 0 0 0 0 0 0 0 0 0 0 0 0 0 0 0 0 0 0 0 0 0 0 0 0 0 0 0 0 0 0 0 0 0 0 0 0 0 0 0 0 0 0 0 0 0 0 0 0 0 0 0 0 0 0 0 0 0 0 0 0 0 0 0 0 0 0 0 0 0 0 0 0 0 0 0 0 0 0 0 0 0 0 0 0 0 0 0 0 0 0 0 0 0 0 0 0 0 0 0 0 0 0 0 0 0 0 0 0 0 0 0 0 0 0 0 0 0 0 0 0 0 0 0 0 0 0 0 0 0 0 0 0 0 0 0 0 0 0 0 0 0 0 0 0 0 0 0 0 0 0 0 0 0 0 0 0 0 0 0 0 0 0 0 0 0 0 0 0 0 0 0 0 0 0 0 0 0 0 0 0 0 0 0 0 0 0 0 0 0 0 0 0 0 0 0 0 0 0 0 0 0 0 0 0 0 0 0 0 0 0 0 0 0 0 0 0 0 0 0 0 0 0 0 0 0 0 0 0 0 0 0 0 0 0 0 0 0 0 0 0 0 0 0 0 0 0 0 0 0 0 0 0 0 0 0 0 0 0 0 0 0 0 0 0 0 0 0 0 0 0 0 0 0 0 0 0 0 0 0 0 0 0 0 0 0 0 0 0 0 0 0 0 0 0 0 0 0 0 0 0 0 0 0 0 0 0 0 0 0 0 0 0 0 0 0 0 0 0 0 0 0 0 0 0 0 0 0 0 0 0 0 0 0 0 0 0 0 0 0 0 0 0 0 0 0 0 0 0 0 0 0 0 0 0 0 0 0 0 0 0 0 0 0 0 0 0 0 0 0 0 0 0 0 0 0 0 0 0 0 0 0 0 0 0 0 0 0 0 0 0 0 0 0 0 0 0 0 0 0 0 0 0 0 0 0 0 0 0 0 0 0 0 0 0 0 0 0 0 0 0 0 0 0 0 0 0 0 0 0 0 0 0 0 0 0 0 0 0 0 0 0 0 0 0 0 0 0 0 0 0 0 0 0 0 0 0 0 0 0 0 0 0 0 0 0 0 0 0 0 0 0 0 0 0 0 0 0 0 0 0 0 0 0 0 0 0 0 0 0 0 0 0 0 0 0 0 0 0 0 0 0 0 0 0 0 0 0 0 0 0 0 0 0 0 0 0 0 0 0 0 0 0 0 0 0 0 0 0 0 0 0 0 0 0 0 0 0 0 0 0 0 0 0 0 0 0 0 0 0 0 0 0 0 0 0 0 0 0 0 0 0 0 0 0 0 0 0 0 0 0 0 0 0 0 0 0 0 0 0 0 0 0 0 0 0 0 0 0 0 0 0 0 0 0 0 0 0 0 0 0 0 0 0 0 0 0 0 0 0 0 0 0 0 0 0 0 0 0 0 0 0 0 0 0 0 0 0 0 0 0 0 0 0 0 0 0 0 0 0 0 0 0 0 0 0 0 0 0 0 0 0 0 0 0 0 0 0 0 0 0 0 0 0 0 0 0 0 0 0 0 0 0 0 0 0 0 0 0 0 0 0 0 0 0 0 0 0 0 0 0 0 0 0 0 0 0 0 0 0 0 0 0 0 0 0 0 0 0 0 0 0 0 0 0 0 0 0 0 0 0 0 0 0 0 0 0 0 0 0 0 0 0 0 0 0 0 0 0 0 0 0 0 0 0 0 0 0 0 0 0 0 0 0 0 0 0 0 0 0 0 0 0 0 0 0 0 0 0 0 0 0 0 0 0 0 0 0 0 0 0 0 0 0 0 0 0 0 0 0 0 0 0 0 0 0 0 0 0 0 0 0 0 0 0 0 0 0 0 0 0 0 0 0 0 0 0 0 0 0 0 0 0 0 0 0 0 0 0 0 0 0 0 0 0 0 0
				</DataArray>
				<DataArray Name="F3" type="Float32" format="ascii">