<?xml version="1.0"?>
<VTKFile type="PolyData">
	<PolyData>
		<Piece NumberOfPoints="961" NumberOfPolys="900">
			<Points>
				<DataArray type="Float32" NumberOfComponents="3" format="ascii">
 0 0 0 0.04 0 0 0.08 0 0 0.12 0 0 0.16 0 0 0.2 0 0 0.24 0 0 0.28 0 0 0.32 0 0 0.36 0 0 0.4 0 0 0.44 0 0 0.48 0 0 0.52 0 0 0.56 0 0 0.6 0 0 0.64 0 0 0.68 0 0 0.72 0 0 0.76 0 0 0.8 0 0 0.84 0 0 0.88 0 0 0.92 0 0 0.96 0 0 1 0 0 1.04 0 0 1.08 0 0 1.12 0 0 1.16 0 0 1.2 0 0 0 0.04 0 0.04 0.04 0 0.08 0.04 0 0.12 0.04 0 0.16 0.04 0 0.2 0.04 0 0.24 0.04 0 0.28 0.04 0 0.32 0.04 0 0.36 0.04 0 0.4 0.04 0 0.44 0.04 0 0.48 0.04 0 0.52 0.04 0 0.56 0.04 0 0.6 0.04 0 0.64 0.04 0 0.68 0.04 0 0.72 0.04 0 0.76 0.04 0 0.8 0.04 0 0.84 0.04 0 0.88 0.04 0 0.92 0.04 0 0.96 0.04 0 1 0.04 0 1.04 0.04 0 1.08 0.04 0 1.12 0.04 0 1.16 0.04 0 1.2 0.04 0 0 0.08 0 0.04 0.08 0 0.08 0.08 0 0.12 0.08 0 0.16 0.08 0 0.2 0.08 0 0.24 0.08 0 0.28 0.08 0 0.32 0.08 0 0.36 0.08 0 0.4 0.08 0 0.44 0.08 0 0.48 0.08 0 0.52 0.08 0 0.56 0.08 0 0.6 0.08 0 0.64 0.08 0 0.68 0.08 0 0.72 0.08 0 0.76 0.08 0 0.8 0.08 0 0.84 0.08 0 0.88 0.08 0 0.92 0.08 0 0.96 0.08 0 1 0.08 0 1.04 0.08 0 1.08 0.08 0 1.12 0.08 0 1.16 0.08 0 1.2 0.08 0 0 0.12 0 0.04 0.12 0 0.08 0.12 0 0.12 0.12 0 0.16 0.12 0 0.2 0.12 0 0.24 0.12 0 0.28 0.12 0 0.32 0.12 0 0.36 0.12 0 0.4 0.12 0 0.44 0.12 0 0.48 0.12 0 0.52 0.12 0 0.56 0.12 0 0.6 0.12 0 0.64 0.12 0 0.68 0.12 0 0.72 0.12 0 0.76 0.12 0 0.8 0.12 0 0.84 0.12 0 0.88 0.12 0 0.92 0.12 0 0.96 0.12 0 1 0.12 0 1.04 0.12 0 1.08 0.12 0 1.12 0.12 0 1.16 0.12 0 1.2 0.12 0 0 0.16 0 0.04 0.16 0 0.08 0.16 0 0.12 0.16 0 0.16 0.16 0 0.2 0.16 0 0.24 0.16 0 0.28 0.16 0 0.32 0.16 0 0.36 0.16 0 0.4 0.16 0 0.44 0.16 0 0.48 0.16 0 0.52 0.16 0 0.56 0.16 0 0.6 0.16 0 0.64 0.16 0 0.68 0.16 0 0.72 0.16 0 0.76 0.16 0 0.8 0.16 0 0.84 0.16 0 0.88 0.16 0 0.92 0.16 0 0.96 0.16 0 1 0.16 0 1.04 0.16 0 1.08 0.16 0 1.12 0.16 0 1.16 0.16 0 1.2 0.16 0 0 0.2 0 0.04 0.2 0 0.08 0.2 0 0.12 0.2 0 0.16 0.2 0 0.2 0.2 0 0.24 0.2 0 0.28 0.2 0 0.32 0.2 0 0.36 0.2 0 0.4 0.2 0 0.44 0.2 0 0.48 0.2 0 0.52 0.2 0 0.56 0.2 0 0.6 0.2 0 0.64 0.2 0 0.68 0.2 0 0.72 0.2 0 0.76 0.2 0 0.8 0.2 0 0.84 0.2 0 0.88 0.2 0 0.92 0.2 0 0.96 0.2 0 1 0.2 0 1.04 0.2 0 1.08 0.2 0 1.12 0.2 0 1.16 0.2 0 1.2 0.2 0 0 0.24 0 0.04 0.24 0 0.08 0.24 0 0.12 0.24 0 0.16 0.24 0 0.2 0.24 0 0.24 0.24 0 0.28 0.24 0 0.32 0.24 0 0.36 0.24 0 0.4 0.24 0 0.44 0.24 0 0.48 0.24 0 0.52 0.24 0 0.56 0.24 0 0.6 0.24 0 0.64 0.24 0 0.68 0.24 0 0.72 0.24 0 0.76 0.24 0 0.8 0.24 0 0.84 0.24 0 0.88 0.24 0 0.92 0.24 0 0.96 0.24 0 1 0.24 0 1.04 0.24 0 1.08 0.24 0 1.12 0.24 0 1.16 0.24 0 1.2 0.24 0 0 0.28 0 0.04 0.28 0 0.08 0.28 0 0.12 0.28 0 0.16 0.28 0 0.2 0.28 0 0.24 0.28 0 0.28 0.28 0 0.32 0.28 0 0.36 0.28 0 0.4 0.28 0 0.44 0.28 0 0.48 0.28 0 0.52 0.28 0 0.56 0.28 0 0.6 0.28 0 0.64 0.28 0 0.68 0.28 0 0.72 0.28 0 0.76 0.28 0 0.8 0.28 0 0.84 0.28 0 0.88 0.28 0 0.92 0.28 0 0.96 0.28 0 1 0.28 0 1.04 0.28 0 1.08 0.28 0 1.12 0.28 0 1.16 0.28 0 1.2 0.28 0 0 0.32 0 0.04 0.32 0 0.08 0.32 0 0.12 0.32 0 0.16 0.32 0 0.2 0.32 0 0.24 0.32 0 0.28 0.32 0 0.32 0.32 0 0.36 0.32 0 0.4 0.32 0 0.44 0.32 0 0.48 0.32 0 0.52 0.32 0 0.56 0.32 0 0.6 0.32 0 0.64 0.32 0 0.68 0.32 0 0.72 0.32 0 0.76 0.32 0 0.8 0.32 0 0.84 0.32 0 0.88 0.32 0 0.92 0.32 0 0.96 0.32 0 1 0.32 0 1.04 0.32 0 1.08 0.32 0 1.12 0.32 0 1.16 0.32 0 1.2 0.32 0 0 0.36 0 0.04 0.36 0 0.08 0.36 0 0.12 0.36 0 0.16 0.36 0 0.2 0.36 0 0.24 0.36 0 0.28 0.36 0 0.32 0.36 0 0.36 0.36 0 0.4 0.36 0 0.44 0.36 0 0.48 0.36 0 0.52 0.36 0 0.56 0.36 0 0.6 0.36 0 0.64 0.36 0 0.68 0.36 0 0.72 0.36 0 0.76 0.36 0 0.8 0.36 0 0.84 0.36 0 0.88 0.36 0 0.92 0.36 0 0.96 0.36 0 1 0.36 0 1.04 0.36 0 1.08 0.36 0 1.12 0.36 0 1.16 0.36 0 1.2 0.36 0 0 0.4 0 0.04 0.4 0 0.08 0.4 0 0.12 0.4 0 0.16 0.4 0 0.2 0.4 0 0.24 0.4 0 0.28 0.4 0 0.32 0.4 0 0.36 0.4 0 0.4 0.4 0 0.44 0.4 0 0.48 0.4 0 0.52 0.4 0 0.56 0.4 0 0.6 0.4 0 0.64 0.4 0 0.68 0.4 0 0.72 0.4 0 0.76 0.4 0 0.8 0.4 0 0.84 0.4 0 0.88 0.4 0 0.92 0.4 0 0.96 0.4 0 1 0.4 0 1.04 0.4 0 1.08 0.4 0 1.12 0.4 0 1.16 0.4 0 1.2 0.4 0 0 0.44 0 0.04 0.44 0 0.08 0.44 0 0.12 0.44 0 0.16 0.44 0 0.2 0.44 0 0.24 0.44 0 0.28 0.44 0 0.32 0.44 0 0.36 0.44 0 0.4 0.44 0 0.44 0.44 0 0.48 0.44 0 0.52 0.44 0 0.56 0.44 0 0.6 0.44 0 0.64 0.44 0 0.68 0.44 0 0.72 0.44 0 0.76 0.44 0 0.8 0.44 0 0.84 0.44 0 0.88 0.44 0 0.92 0.44 0 0.96 0.44 0 1 0.44 0 1.04 0.44 0 1.08 0.44 0 1.12 0.44 0 1.16 0.44 0 1.2 0.44 0 0 0.48 0 0.04 0.48 0 0.08 0.48 0 0.12 0.48 0 0.16 0.48 0 0.2 0.48 0 0.24 0.48 0 0.28 0.48 0 0.32 0.48 0 0.36 0.48 0 0.4 0.48 0 0.44 0.48 0 0.48 0.48 0 0.52 0.48 0 0.56 0.48 0 0.6 0.48 0 0.64 0.48 0 0.68 0.48 0 0.72 0.48 0 0.76 0.48 0 0.8 0.48 0 0.84 0.48 0 0.88 0.48 0 0.92 0.48 0 0.96 0.48 0 1 0.48 0 1.04 0.48 0 1.08 0.48 0 1.12 0.48 0 1.16 0.48 0 1.2 0.48 0 0 0.52 0 0.04 0.52 0 0.08 0.52 0 0.12 0.52 0 0.16 0.52 0 0.2 0.52 0 0.24 0.52 0 0.28 0.52 0 0.32 0.52 0 0.36 0.52 0 0.4 0.52 0 0.44 0.52 0 0.48 0.52 0 0.52 0.52 0 0.56 0.52 0 0.6 0.52 0 0.64 0.52 0 0.68 0.52 0 0.72 0.52 0 0.76 0.52 0 0.8 0.52 0 0.84 0.52 0 0.88 0.52 0 0.92 0.52 0 0.96 0.52 0 1 0.52 0 1.04 0.52 0 1.08 0.52 0 1.12 0.52 0 1.16 0.52 0 1.2 0.52 0 0 0.56 0 0.04 0.56 0 0.08 0.56 0 0.12 0.56 0 0.16 0.56 0 0.2 0.56 0 0.24 0.56 0 0.28 0.56 0 0.32 0.56 0 0.36 0.56 0 0.4 0.56 0 0.44 0.56 0 0.48 0.56 0 0.52 0.56 0 0.56 0.56 0 0.6 0.56 0 0.64 0.56 0 0.68 0.56 0 0.72 0.56 0 0.76 0.56 0 0.8 0.56 0 0.84 0.56 0 0.88 0.56 0 0.92 0.56 0 0.96 0.56 0 1 0.56 0 1.04 0.56 0 1.08 0.56 0 1.12 0.56 0 1.16 0.56 0 1.2 0.56 0 0 0.6 0 0.04 0.6 0 0.08 0.6 0 0.12 0.6 0 0.16 0.6 0 0.2 0.6 0 0.24 0.6 0 0.28 0.6 0 0.32 0.6 0 0.36 0.6 0 0.4 0.6 0 0.44 0.6 0 0.48 0.6 0 0.52 0.6 0 0.56 0.6 0 0.6 0.6 0 0.64 0.6 0 0.68 0.6 0 0.72 0.6 0 0.76 0.6 0 0.8 0.6 0 0.84 0.6 0 0.88 0.6 0 0.92 0.6 0 0.96 0.6 0 1 0.6 0 1.04 0.6 0 1.08 0.6 0 1.12 0.6 0 1.16 0.6 0 1.2 0.6 0 0 0.64 0 0.04 0.64 0 0.08 0.64 0 0.12 0.64 0 0.16 0.64 0 0.2 0.64 0 0.24 0.64 0 0.28 0.64 0 0.32 0.64 0 0.36 0.64 0 0.4 0.64 0 0.44 0.64 0 0.48 0.64 0 0.52 0.64 0 0.56 0.64 0 0.6 0.64 0 0.64 0.64 0 0.68 0.64 0 0.72 0.64 0 0.76 0.64 0 0.8 0.64 0 0.84 0.64 0 0.88 0.64 0 0.92 0.64 0 0.96 0.64 0 1 0.64 0 1.04 0.64 0 1.08 0.64 0 1.12 0.64 0 1.16 0.64 0 1.2 0.64 0 0 0.68 0 0.04 0.68 0 0.08 0.68 0 0.12 0.68 0 0.16 0.68 0 0.2 0.68 0 0.24 0.68 0 0.28 0.68 0 0.32 0.68 0 0.36 0.68 0 0.4 0.68 0 0.44 0.68 0 0.48 0.68 0 0.52 0.68 0 0.56 0.68 0 0.6 0.68 0 0.64 0.68 0 0.68 0.68 0 0.72 0.68 0 0.76 0.68 0 0.8 0.68 0 0.84 0.68 0 0.88 0.68 0 0.92 0.68 0 0.96 0.68 0 1 0.68 0 1.04 0.68 0 1.08 0.68 0 1.12 0.68 0 1.16 0.68 0 1.2 0.68 0 0 0.72 0 0.04 0.72 0 0.08 0.72 0 0.12 0.72 0 0.16 0.72 0 0.2 0.72 0 0.24 0.72 0 0.28 0.72 0 0.32 0.72 0 0.36 0.72 0 0.4 0.72 0 0.44 0.72 0 0.48 0.72 0 0.52 0.72 0 0.56 0.72 0 0.6 0.72 0 0.64 0.72 0 0.68 0.72 0 0.72 0.72 0 0.76 0.72 0 0.8 0.72 0 0.84 0.72 0 0.88 0.72 0 0.92 0.72 0 0.96 0.72 0 1 0.72 0 1.04 0.72 0 1.08 0.72 0 1.12 0.72 0 1.16 0.72 0 1.2 0.72 0 0 0.76 0 0.04 0.76 0 0.08 0.76 0 0.12 0.76 0 0.16 0.76 0 0.2 0.76 0 0.24 0.76 0 0.28 0.76 0 0.32 0.76 0 0.36 0.76 0 0.4 0.76 0 0.44 0.76 0 0.48 0.76 0 0.52 0.76 0 0.56 0.76 0 0.6 0.76 0 0.64 0.76 0 0.68 0.76 0 0.72 0.76 0 0.76 0.76 0 0.8 0.76 0 0.84 0.76 0 0.88 0.76 0 0.92 0.76 0 0.96 0.76 0 1 0.76 0 1.04 0.76 0 1.08 0.76 0 1.12 0.76 0 1.16 0.76 0 1.2 0.76 0 0 0.8 0 0.04 0.8 0 0.08 0.8 0 0.12 0.8 0 0.16 0.8 0 0.2 0.8 0 0.24 0.8 0 0.28 0.8 0 0.32 0.8 0 0.36 0.8 0 0.4 0.8 0 0.44 0.8 0 0.48 0.8 0 0.52 0.8 0 0.56 0.8 0 0.6 0.8 0 0.64 0.8 0 0.68 0.8 0 0.72 0.8 0 0.76 0.8 0 0.8 0.8 0 0.84 0.8 0 0.88 0.8 0 0.92 0.8 0 0.96 0.8 0 1 0.8 0 1.04 0.8 0 1.08 0.8 0 1.12 0.8 0 1.16 0.8 0 1.2 0.8 0 0 0.84 0 0.04 0.84 0 0.08 0.84 0 0.12 0.84 0 0.16 0.84 0 0.2 0.84 0 0.24 0.84 0 0.28 0.84 0 0.32 0.84 0 0.36 0.84 0 0.4 0.84 0 0.44 0.84 0 0.48 0.84 0 0.52 0.84 0 0.56 0.84 0 0.6 0.84 0 0.64 0.84 0 0.68 0.84 0 0.72 0.84 0 0.76 0.84 0 0.8 0.84 0 0.84 0.84 0 0.88 0.84 0 0.92 0.84 0 0.96 0.84 0 1 0.84 0 1.04 0.84 0 1.08 0.84 0 1.12 0.84 0 1.16 0.84 0 1.2 0.84 0 0 0.88 0 0.04 0.88 0 0.08 0.88 0 0.12 0.88 0 0.16 0.88 0 0.2 0.88 0 0.24 0.88 0 0.28 0.88 0 0.32 0.88 0 0.36 0.88 0 0.4 0.88 0 0.44 0.88 0 0.48 0.88 0 0.52 0.88 0 0.56 0.88 0 0.6 0.88 0 0.64 0.88 0 0.68 0.88 0 0.72 0.88 0 0.76 0.88 0 0.8 0.88 0 0.84 0.88 0 0.88 0.88 0 0.92 0.88 0 0.96 0.88 0 1 0.88 0 1.04 0.88 0 1.08 0.88 0 1.12 0.88 0 1.16 0.88 0 1.2 0.88 0 0 0.92 0 0.04 0.92 0 0.08 0.92 0 0.12 0.92 0 0.16 0.92 0 0.2 0.92 0 0.24 0.92 0 0.28 0.92 0 0.32 0.92 0 0.36 0.92 0 0.4 0.92 0 0.44 0.92 0 0.48 0.92 0 0.52 0.92 0 0.56 0.92 0 0.6 0.92 0 0.64 0.92 0 0.68 0.92 0 0.72 0.92 0 0.76 0.92 0 0.8 0.92 0 0.84 0.92 0 0.88 0.92 0 0.92 0.92 0 0.96 0.92 0 1 0.92 0 1.04 0.92 0 1.08 0.92 0 1.12 0.92 0 1.16 0.92 0 1.2 0.92 0 0 0.96 0 0.04 0.96 0 0.08 0.96 0 0.12 0.96 0 0.16 0.96 0 0.2 0.96 0 0.24 0.96 0 0.28 0.96 0 0.32 0.96 0 0.36 0.96 0 0.4 0.96 0 0.44 0.96 0 0.48 0.96 0 0.52 0.96 0 0.56 0.96 0 0.6 0.96 0 0.64 0.96 0 0.68 0.96 0 0.72 0.96 0 0.76 0.96 0 0.8 0.96 0 0.84 0.96 0 0.88 0.96 0 0.92 0.96 0 0.96 0.96 0 1 0.96 0 1.04 0.96 0 1.08 0.96 0 1.12 0.96 0 1.16 0.96 0 1.2 0.96 0 0 1 0 0.04 1 0 0.08 1 0 0.12 1 0 0.16 1 0 0.2 1 0 0.24 1 0 0.28 1 0 0.32 1 0 0.36 1 0 0.4 1 0 0.44 1 0 0.48 1 0 0.52 1 0 0.56 1 0 0.6 1 0 0.64 1 0 0.68 1 0 0.72 1 0 0.76 1 0 0.8 1 0 0.84 1 0 0.88 1 0 0.92 1 0 0.96 1 0 1 1 0 1.04 1 0 1.08 1 0 1.12 1 0 1.16 1 0 1.2 1 0 0 1.04 0 0.04 1.04 0 0.08 1.04 0 0.12 1.04 0 0.16 1.04 0 0.2 1.04 0 0.24 1.04 0 0.28 1.04 0 0.32 1.04 0 0.36 1.04 0 0.4 1.04 0 0.44 1.04 0 0.48 1.04 0 0.52 1.04 0 0.56 1.04 0 0.6 1.04 0 0.64 1.04 0 0.68 1.04 0 0.72 1.04 0 0.76 1.04 0 0.8 1.04 0 0.84 1.04 0 0.88 1.04 0 0.92 1.04 0 0.96 1.04 0 1 1.04 0 1.04 1.04 0 1.08 1.04 0 1.12 1.04 0 1.16 1.04 0 1.2 1.04 0 0 1.08 0 0.04 1.08 0 0.08 1.08 0 0.12 1.08 0 0.16 1.08 0 0.2 1.08 0 0.24 1.08 0 0.28 1.08 0 0.32 1.08 0 0.36 1.08 0 0.4 1.08 0 0.44 1.08 0 0.48 1.08 0 0.52 1.08 0 0.56 1.08 0 0.6 1.08 0 0.64 1.08 0 0.68 1.08 0 0.72 1.08 0 0.76 1.08 0 0.8 1.08 0 0.84 1.08 0 0.88 1.08 0 0.92 1.08 0 0.96 1.08 0 1 1.08 0 1.04 1.08 0 1.08 1.08 0 1.12 1.08 0 1.16 1.08 0 1.2 1.08 0 0 1.12 0 
[...]
			<CellData Scalars="Density">
				<DataArray Name="Density" type="Float32" format="ascii">
 0.0379031 0.0473036 0.0740185 0.124828 0.223471 0.43663 0.854887 1.40865 1.60129 1.18486 1.03247 1.00296 1.00001 1 1 1 1 1 1 1 1 1 1 1 1 1 1 1 1 1 0.047319 0.0630552 0.101094 0.169344 0.299038 0.574238 1.02349 1.50329 1.5064 1.12798 1.02387 1.00184 1.00001 1 1 1 1 1 1 1 1 1 1 1 1 1 1 1 1 1 0.0740161 0.101085 0.163282 0.274445 0.499462 0.933724 1.49579 1.76158 1.42742 1.11386 1.01929 1.00114 1 1 1 1 1 1 1 1 1 1 1 1 1 1 1 1 1 1 0.12484 0.169317 0.274617 0.485 0.893562 1.46928 1.87116 1.68249 1.2247 1.05327 1.00722 1.00018 1 1 1 1 1 1 1 1 1 1 1 1 1 1 1 1 1 1 0.223512 0.299032 0.499509 0.892828 1.45024 1.89814 1.83355 1.33719 1.09203 1.01855 1.00129 1.00001 1 1 1 1 1 1 1 1 1 1 1 1 1 1 1 1 1 1 0.436674 0.574426 0.934155 1.46918 1.89835 1.87951 1.41522 1.12301 1.03147 1.00353 1.00006 1 1 1 1 1 1 1 1 1 1 1 1 1 1 1 1 1 1 1 0.855077 1.0236 1.49646 1.87028 1.83412 1.41522 1.13641 1.04071 1.00598 1.0002 1 1 1 1 1 1 1 1 1 1 1 1 1 1 1 1 1 1 1 1 1.40869 1.50379 1.7621 1.68257 1.33709 1.12304 1.04072 1.00713 1.00036 1 1 1 1 1 1 1 1 1 1 1 1 1 1 1 1 1 1 1 1 1 1.60144 1.50624 1.42668 1.22477 1.09201 1.03147 1.00599 1.00036 1 1 1 1 1 1 1 1 1 1 1 1 1 1 1 1 1 1 1 1 1 1 1.18471 1.12791 1.11377 1.05319 1.01855 1.00353 1.0002 1 1 1 1 1 1 1 1 1 1 1 1 1 1 1 1 1 1 1 1 1 1 1 1.03243 1.02388 1.01927 1.0072 1.00129 1.00006 1 1 1 1 1 1 1 1 1 1 1 1 1 1 1 1 1 1 1 1 1 1 1 1 1.00295 1.00184 1.00114 1.00018 1.00001 1 1 1 1 1 1 1 1 1 1 1 1 1 1 1 1 1 1 1 1 1 1 1 1 1 1.00001 1.00001 1 1 1 1 1 1 1 1 1 1 1 1 1 1 1 1 1 1 1 1 1 1 1 1 1 1 1 1 1 1 1 1 1 1 1 1 1 1 1 1 1 1 1 1 1 1 1 1 1 1 1 1 1 1 1 1 1 1 1 1 1 1 1 1 1 1 1 1 1 1 1 1 1 1 1 1 1 1 1 1 1 1 1 1 1 1 1 1 1 1 1 1 1 1 1 1 1 1 1 1 1 1 1 1 1 1 1 1 1 1 1 1 1 1 1 1 1 1 1 1 1 1 1 1 1 1 1 1 1 1 1 1 1 1 1 1 1 1 1 1 1 1 1 1 1 1 1 1 1 1 1 1 1 1 1 1 1 1 1 1 1 1 1 1 1 1 1 1 1 1 1 1 1 1 1 1 1 1 1 1 1 1 1 1 1 1 1 1 1 1 1 1 1 1 1 1 1 1 1 1 1 1 1 1 1 1 1 1 1 1 1 1 1 1 1 1 1 1 1 1 1 1 1 1 1 1 1 1 1 1 1 1 1 1 1 1 1 1 1 1 1 1 1 1 1 1 1 1 1 1 1 1 1 1 1 1 1 1 1 1 1 1 1 1 1 1 1 1 1 1 1 1 1 1 1 1 1 1 1 1 1 1 1 1 1 1 1 1 1 1 1 1 1 1 1 1 1 1 1 1 1 1 1 1 1 1 1 1 1 1 1 1 1 1 1 1 1 1 1 1 1 1 1 1 1 1 1 1 1 1 1 1 1 1 1 1 1 1 1 1 1 1 1 1 1 1 1 1 1 1 1 1 1 1 1 1 1 1 1 1 1 1 1 1 1 1 1 1 1 1 1 1 1 1 1 1 1 1 1 1 1 1 1 1 1 1 1 1 1 1 1 1 1 1 1 1 1 1 1 1 1 1 1 1 1 1 1 1 1 1 1 1 1 1 1 1 1 1 1 1 1 1 1 1 1 1 1 1 1 1 1 1 1 1 1 1 1 1 1 1 1 1 1 1 1 1 1 1 1 1 1 1 1 1 1 1 1 1 1 1 1 1 1 1 1 1 1 1 1 1 1 1 1 1 1 1 1 1 1 1 1 1 1 1 1 1 1 1 1 1 1 1 1 1 1 1 1 1 1 1 1 1 1 1 1 1 1 1 1 1 1 1 1 1 1 1 1 1 1 1 1 1 1 1 1 1 1 1 1 1 1 1 1 1 1 1 1 1
				</DataArray>
				<DataArray Name="Energy" type="Float32" format="ascii">
 49.5029 39.4145 25.5214 15.5806 9.31136 5.57903 3.33104 1.82981 0.763028 0.0923972 0.0014019 4.07517e-06 2.50002e-06 2.5e-06 2.5e-06 2.5e-06 2.5e-06 2.5e-06 2.5e-06 2.5e-06 2.5e-06 2.5e-06 2.5e-06 2.5e-06 2.5e-06 2.5e-06 2.5e-06 2.5e-06 2.5e-06 2.5e-06 39.4026 29.2751 18.4583 11.4717 7.17216 4.49388 2.68023 1.45092 0.53921 0.0494153 0.000583887 2.99975e-06 2.50001e-06 2.5e-06 2.5e-06 2.5e-06 2.5e-06 2.5e-06 2.5e-06 2.5e-06 2.5e-06 2.5e-06 2.5e-06 2.5e-06 2.5e-06 2.5e-06 2.5e-06 2.5e-06 2.5e-06 2.5e-06 25.5231 18.4587 11.771 7.47174 4.84642 3.11265 1.84411 0.889867 0.211912 0.00898853 5.17228e-05 2.52046e-06 2.5e-06 2.5e-06 2.5e-06 2.5e-06 2.5e-06 2.5e-06 2.5e-06 2.5e-06 2.5e-06 2.5e-06 2.5e-06 2.5e-06 2.5e-06 2.5e-06 2.5e-06 2.5e-06 2.5e-06 2.5e-06 15.582 11.4756 7.47413 4.94232 3.30393 2.08783 1.14627 0.403268 0.0396461 0.000609961 3.61449e-06 2.50045e-06 2.5e-06 2.5e-06 2.5e-06 2.5e-06 2.5e-06 2.5e-06 2.5e-06 2.5e-06 2.5e-06 2.5e-06 2.5e-06 2.5e-06 2.5e-06 2.5e-06 2.5e-06 2.5e-06 2.5e-06 2.5e-06 9.31088 7.17198 4.84638 3.30213 2.16413 1.27416 0.544675 0.0899996 0.0027215 1.50977e-05 2.51241e-06 2.50001e-06 2.5e-06 2.5e-06 2.5e-06 2.5e-06 2.5e-06 2.5e-06 2.5e-06 2.5e-06 2.5e-06 2.5e-06 2.5e-06 2.5e-06 2.5e-06 2.5e-06 2.5e-06 2.5e-06 2.5e-06 2.5e-06 5.57803 4.49421 3.11269 2.0878 1.27412 0.594224 0.129151 0.00620036 5.70936e-05 2.59119e-06 2.50008e-06 2.5e-06 2.5e-06 2.5e-06 2.5e-06 2.5e-06 2.5e-06 2.5e-06 2.5e-06 2.5e-06 2.5e-06 2.5e-06 2.5e-06 2.5e-06 2.5e-06 2.5e-06 2.5e-06 2.5e-06 2.5e-06 2.5e-06 3.33028 2.68012 1.84347 1.14648 0.544612 0.129157 0.00813072 0.000112604 2.79024e-06 2.50049e-06 2.5e-06 2.5e-06 2.5e-06 2.5e-06 2.5e-06 2.5e-06 2.5e-06 2.5e-06 2.5e-06 2.5e-06 2.5e-06 2.5e-06 2.5e-06 2.5e-06 2.5e-06 2.5e-06 2.5e-06 2.5e-06 2.5e-06 2.5e-06 1.82932 1.45041 0.889548 0.403153 0.0900035 0.00620391 0.000112608 2.92699e-06 2.50122e-06 2.5e-06 2.5e-06 2.5e-06 2.5e-06 2.5e-06 2.5e-06 2.5e-06 2.5e-06 2.5e-06 2.5e-06 2.5e-06 2.5e-06 2.5e-06 2.5e-06 2.5e-06 2.5e-06 2.5e-06 2.5e-06 2.5e-06 2.5e-06 2.5e-06 0.762866 0.539116 0.21163 0.0396419 0.00272196 5.70731e-05 2.79022e-06 2.50122e-06 2.5e-06 2.5e-06 2.5e-06 2.5e-06 2.5e-06 2.5e-06 2.5e-06 2.5e-06 2.5e-06 2.5e-06 2.5e-06 2.5e-06 2.5e-06 2.5e-06 2.5e-06 2.5e-06 2.5e-06 2.5e-06 2.5e-06 2.5e-06 2.5e-06 2.5e-06 0.0923634 0.0493084 0.00895538 0.000608499 1.50728e-05 2.5911e-06 2.50049e-06 2.5e-06 2.5e-06 2.5e-06 2.5e-06 2.5e-06 2.5e-06 2.5e-06 2.5e-06 2.5e-06 2.5e-06 2.5e-06 2.5e-06 2.5e-06 2.5e-06 2.5e-06 2.5e-06 2.5e-06 2.5e-06 2.5e-06 2.5e-06 2.5e-06 2.5e-06 2.5e-06 0.00140098 0.000582049 5.14137e-05 3.60772e-06 2.51237e-06 2.50008e-06 2.5e-06 2.5e-06 2.5e-06 2.5e-06 2.5e-06 2.5e-06 2.5e-06 2.5e-06 2.5e-06 2.5e-06 2.5e-06 2.5e-06 2.5e-06 2.5e-06 2.5e-06 2.5e-06 2.5e-06 2.5e-06 2.5e-06 2.5e-06 2.5e-06 2.5e-06 2.5e-06 2.5e-06 4.07337e-06 2.99751e-06 2.52032e-06 2.50045e-06 2.50001e-06 2.5e-06 2.5e-06 2.5e-06 2.5e-06 2.5e-06 2.5e-06 2.5e-06 2.5e-06 2.5e-06 2.5e-06 2.5e-06 2.5e-06 2.5e-06 2.5e-06 2.5e-06 2.5e-06 2.5e-06 2.5e-06 2.5e-06 2.5e-06 2.5e-06 2.5e-06 2.5e-06 2.5e-06 2.5e-06 2.50002e-06 2.50001e-06 2.5e-06 2.5e-06 2.5e-06 2.5e-06 2.5e-06 2.5e-06 2.5e-06 2.5e-06 2.5e-06 2.5e-06 2.5e-06 2.5e-06 2.5e-06 2.5e-06 2.5e-06 2.5e-06 2.5e-06 2.5e-06 2.5e-06 2.5e-06 2.5e-06 2.5e-06 2.5e-06 2.5e-06 2.5e-06 2.5e-06 2.5e-06 2.5e-06 2.5e-06 2.5e-06 2.5e-06 2.5e-06 2.5e-06 2.5e-06 2.5e-06 2.5e-06 2.5e-06 2.5e-06 2.5e-06 2.5e-06 2.5e-06 2.5e-06 2.5e-06 2.5e-06 2.5e-06 2.5e-06 2.5e-06 2.5e-06 2.5e-06 2.5e-06 2.5e-06 2.5e-06 2.5e-06 2.5e-06 2.5e-06 2.5e-06 2.5e-06 2.5e-06 2.5e-06 2.5e-06 2.5e-06 2.5e-06 2.5e-06 2.5e-06 2.5e-06 2.5e-06 2.5e-06 2.5e-06 2.5e-06 2.5e-06 2.5e-06 2.5e-06 2.5e-06 2.5e-06 2.5e-06 2.5e-06 2.5e-06 2.5e-06 2.5e-06 2.5e-06 2.5e-06 2.5e-06 2.5e-06 2.5e-06 2.5e-06 2.5e-06 2.5e-06 2.5e-06 2.5e-06 2.5e-06 2.5e-06 2.5e-06 2.5e-06 2.5e-06 2.5e-06 2.5e-06 2.5e-06 2.5e-06 2.5e-06 2.5e-06 2.5e-06 2.5e-06 2.5e-06 2.5e-06 2.5e-06 2.5e-06 2.5e-06 2.5e-06 2.5e-06 2.5e-06 2.5e-06 2.5e-06 2.5e-06 2.5e-06 2.5e-06 2.5e-06 2.5e-06 2.5e-06 2.5e-06 2.5e-06 2.5e-06 2.5e-06 2.5e-06 2.5e-06 2.5e-06 2.5e-06 2.5e-06 2.5e-06 2.5e-06 2.5e-06 2.5e-06 2.5e-06 2.5e-06 2.5e-06 2.5e-06 2.5e-06 2.5e-06 2.5e-06 2.5e-06 2.5e-06 2.5e-06 2.5e-06 2.5e-06 2.5e-06 2.5e-06 2.5e-06 2.5e-06 2.5e-06 2.5e-06 2.5e-06 2.5e-06 2.5e-06 2.5e-06 2.5e-06 2.5e-06 2.5e-06 2.5e-06 2.5e-06 2.5e-06 2.5e-06 2.5e-06 2.5e-06 2.5e-06 2.5e-06 2.5e-06 2.5e-06 2.5e-06 2.5e-06 2.5e-06 2.5e-06 2.5e-06 2.5e-06 2.5e-06 2.5e-06 2.5e-06 2.5e-06 2.5e-06 2.5e-06 2.5e-06 2.5e-06 2.5e-06 2.5e-06 2.5e-06 2.5e-06 2.5e-06 2.5e-06 2.5e-06 2.5e-06 2.5e-06 2.5e-06 2.5e-06 2.5e-06 2.5e-06 2.5e-06 2.5e-06 2.5e-06 2.5e-06 2.5e-06 2.5e-06 2.5e-06 2.5e-06 2.5e-06 2.5e-06 2.5e-06 2.5e-06 2.5e-06 2.5e-06 2.5e-06 2.5e-06 2.5e-06 2.5e-06 2.5e-06 2.5e-06 2.5e-06 2.5e-06 2.5e-06 2.5e-06 2.5e-06 2.5e-06 2.5e-06 2.5e-06 2.5e-06 2.5e-06 2.5e-06 2.5e-06 2.5e-06 2.5e-06 2.5e-06 2.5e-06 2.5e-06 2.5e-06 2.5e-06 2.5e-06 2.5e-06 2.5e-06 2.5e-06 2.5e-06 2.5e-06 2.5e-06 2.5e-06 2.5e-06 2.5e-06 2.5e-06 2.5e-06 2.5e-06 2.5e-06 2.5e-06 2.5e-06 2.5e-06 2.5e-06 2.5e-06 2.5e-06 2.5e-06 2.5e-06 2.5e-06 2.5e-06 2.5e-06 2.5e-06 2.5e-06 2.5e-06 2.5e-06 2.5e-06 2.5e-06 2.5e-06 2.5e-06 2.5e-06 2.5e-06 2.5e-06 2.5e-06 2.5e-06 2.5e-06 2.5e-06 2.5e-06 2.5e-06 2.5e-06 2.5e-06 2.5e-06 2.5e-06 2.5e-06 2.5e-06 2.5e-06 2.5e-06 2.5e-06 2.5e-06 2.5e-06 2.5e-06 2.5e-06 2.5e-06 2.5e-06 2.5e-06 2.5e-06 2.5e-06 2.5e-06 2.5e-06 2.5e-06 2.5e-06 2.5e-06 2.5e-06 2.5e-06 2.5e-06 2.5e-06 2.5e-06 2.5e-06 2.5e-06 2.5e-06 2.5e-06 2.5e-06 2.5e-06 2.5e-06 2.5e-06 2.5e-06 2.5e-06 2.5e-06 2.5e-06 2.5e-06 2.5e-06 2.5e-06 2.5e-06 2.5e-06 2.5e-06 2.5e-06 2.5e-06 2.5e-06 2.5e-06 2.5e-06 2.5e-06 2.5e-06 2.5e-06 2.5e-06 2.5e-06 2.5e-06 2.5e-06 2.5e-06 2.5e-06 2.5e-06 2.5e-06 2.5e-06 2.5e-06 2.5e-06 2.5e-06 2.5e-06 2.5e-06 2.5e-06 2.5e-06 2.5e-06 2.5e-06 2.5e-06 2.5e-06 2.5e-06 2.5e-06 2.5e-06 2.5e-06 2.5e-06 2.5e-06 2.5e-06 2.5e-06 2.5e-06 2.5e-06 2.5e-06 2.5e-06 2.5e-06 2.5e-06 2.5e-06 2.5e-06 2.5e-06 2.5e-06 2.5e-06 2.5e-06 2.5e-06 2.5e-06 2.5e-06 2.5e-06 2.5e-06 2.5e-06 2.5e-06 2.5e-06 2.5e-06 2.5e-06 2.5e-06 2.5e-06 2.5e-06 2.5e-06 2.5e-06 2.5e-06 2.5e-06 2.5e-06 2.5e-06 2.5e-06 2.5e-06 2.5e-06 2.5e-06 2.5e-06 2.5e-06 2.5e-06 2.5e-06 2.5e-06 2.5e-06 2.5e-06 2.5e-06 2.5e-06 2.5e-06 2.5e-06 2.5e-06 2.5e-06 2.5e-06 2.5e-06 2.5e-06 2.5e-06 2.5e-06 2.5e-06 2.5e-06 2.5e-06 2.5e-06 2.5e-06 2.5e-06 2.5e-06 2.5e-06 2.5e-06 2.5e-06 2.5e-06 2.5e-06 2.5e-06 2.5e-06 2.5e-06 2.5e-06 2.5e-06 2.5e-06 2.5e-06 2.5e-06 2.5e-06 2.5e-06 2.5e-06 2.5e-06 2.5e-06 2.5e-06 2.5e-06 2.5e-06 2.5e-06 2.5e-06 2.5e-06 2.5e-06 2.5e-06 2.5e-06 2.5e-06 2.5e-06 2.5e-06 2.5e-06 2.5e-06 2.5e-06 2.5e-06 2.5e-06 2.5e-06 2.5e-06 2.5e-06 2.5e-06 2.5e-06 2.5e-06 2.5e-06 2.5e-06 2.5e-06 2.5e-06 2.5e-06 2.5e-06 2.5e-06 2.5e-06 2.5e-06 2.5e-06 2.5e-06 2.5e-06 2.5e-06 2.5e-06 2.5e-06 2.5e-06 2.5e-06 2.5e-06 2.5e-06 2.5e-06 2.5e-06 2.5e-06 2.5e-06 2.5e-06 2.5e-06 2.5e-06 2.5e-06 2.5e-06 2.5e-06 2.5e-06 2.5e-06 2.5e-06 2.5e-06 2.5e-06 2.5e-06 2.5e-06 2.5e-06 2.5e-06 2.5e-06 2.5e-06 2.5e-06 2.5e-06 2.5e-06 2.5e-06 2.5e-06 2.5e-06 2.5e-06 2.5e-06 2.5e-06 2.5e-06 2.5e-06 2.5e-06 2.5e-06 2.5e-06 2.5e-06 2.5e-06 2.5e-06 2.5e-06 2.5e-06 2.5e-06 2.5e-06 2.5e-06 2.5e-06 2.5e-06 2.5e-06 2.5e-06 2.5e-06 2.5e-06 2.5e-06 2.5e-06 2.5e-06 2.5e-06 2.5e-06 2.5e-06 2.5e-06 2.5e-06 2.5e-06 2.5e-06 2.5e-06 2.5e-06 2.5e-06
				</DataArray>
				<DataArray Name="F1" type="Float32" format="ascii">
 1 1 1 1 1 1 1 1 1 1 1 1 1 1 1 1 1 1 1 1 1 1 1 1 1 1 1 1 1 1 1 1 1 1 1 1 1 1 1 1 1 1 1 1 1 1 1 1 1 1 1 1 1 1 1 1 1 1 1 1 1 1 1 1 1 1 1 1 1 1 1 1 1 1 1 1 1 1 1 1 1 1 1 1 1 1 1 1 1 1 1 1 1 1 1 1 1 1 1 1 1 1 1 1 1 1 1 1 1 1 1 1 1 1 1 1 1 1 1 1 1 1 1 1 1 1 1 1 1 1 1 1 1 1 1 1 1 1 1 1 1 1 1 1 1 1 1 1 1 1 1 1 1 1 1 1 1 1 1 1 1 1 1 1 1 1 1 1 1 1 1 1 1 1 1 1 1 1 1 1 1 1 1 1 1 1 1 1 1 1 1 1 1 1 1 1 1 1 1 1 1 1 1 1 1 1 1 1 1 1 1 1 1 1 1 1 1 1 1 1 1 1 1 1 1 1 1 1 1 1 1 1 1 1 1 1 1 1 1 1 1 1 1 1 1 1 1 1 1 1 1 1 1 1 1 1 1 1 1 1 1 1 1 1 1 1 1 1 1 1 1 1 1 1 1 1 1 1 1 1 1 1 1 1 1 1 1 1 1 1 1 1 1 1 1 1 1 1 1 1 1 1 1 1 1 1 1 1 1 1 1 1 1 1 1 1 1 1 1 1 1 1 1 1 1 1 1 1 1 1 1 1 1 1 1 1 1 1 1 1 1 1 1 1 1 1 1 1 1 1 1 1 1 1 1 1 1 1 1 1 1 1 1 1 1 1 1 1 1 1 1 1 1 1 1 1 1 1 1 1 1 1 1 1 1 1 1 1 1 1 1 1 1 1 1 1 1 1 1 1 1 1 1 1 1 1 1 1 1 1 1 1 1 1 1 1 1 1 1 1 1 1 1 1 1 1 1 1 1 1 1 1 1 1 1 1 1 1 1 1 1 1 1 1 1 1 1 1 1 1 1 1 1 1 1 1 1 1 1 1 1 1 1 1 1 1 1 1 1 1 1 1 1 1 1 1 1 1 1 1 1 1 1 1 1 1 1 1 1 1 1 1 1 1 1 1 1 1 1 1 1 1 1 1 1 1 1 1 1 1 1 1 1 1 1 1 1 1 1 1 1 1 1 1 1 1 1 1 1 1 1 1 1 1 1 1 1 1 1 1 1 1 1 1 1 1 1 1 1 1 1 1 1 1 1 1 1 1 1 1 1 1 1 1 1 1 1 1 1 1 1 1 1 1 1 1 1 1 1 1 1 1 1 1 1 1 1 1 1 1 1 1 1 1 1 1 1 1 1 1 1 1 1 1 1 1 1 1 1 1 1 1 1 1 1 1 1 1 1 1 1 1 1 1 1 1 1 1 1 1 1 1 1 1 1 1 1 1 1 1 1 1 1 1 1 1 1 1 1 1 1 1 1 1 1 1 1 1 1 1 1 1 1 1 1 1 1 1 1 1 1 1 1 1 1 1 1 1 1 1 1 1 1 1 1 1 1 1 1 1 1 1 1 1 1 1 1 1 1 1 1 1 1 1 1 1 1 1 1 1 1 1 1 1 1 1 1 1 1 1 1 1 1 1 1 1 1 1 1 1 1 1 1 1 1 1 1 1 1 1 1 1 1 1 1 1 1 1 1 1 1 1 1 1 1 1 1 1 1 1 1 1 1 1 1 1 1 1 1 1 1 1 1 1 1 1 1 1 1 1 1 1 1 1 1 1 1 1 1 1 1 1 1 1 1 1 1 1 1 1 1 1 1 1 1 1 1 1 1 1 1 1 1 1 1 1 1 1 1 1 1 1 1 1 1 1 1 1 1 1 1 1 1 1 1 1 1 1 1 1 1 1 1 1 1 1 1 1 1 1 1 1 1 1 1 1 1 1 1 1 1 1 1 1 1 1 1 1 1 1 1 1 1 1 1 1 1 1 1 1 1 1 1 1 1 1 1 1 1 1 1 1 1 1 1 1 1 1 1 1
				</DataArray>
				<DataArray Name="F2" type="Float32" format="ascii">
 0 0 0 0 0 0 0 0 0 0 0 0 0 0 0 0 0 0 0 0 0 0 0 0 0 0 0 0 0 0 0 0 0 0 0 0 0 0 0 0 0 0 0 0 0 0 0 0 0 0 0 0 0 0 0 0 0 0 0 0 0 0 0 0 0 0 0 0 0 0 0 0 0 0 0 0 0 0 0 0 0 0 0 0 0 0 0 0 0 0 0 0 0 0 0 0 0 0 0 0 0 0 0 0 0 0 0 0 0 0 0 0 0 0 0 0 0 0 0 0 0 0 0 0 0 0 0 0 0 0 0 0 0 0 0 0 0 0 0 0 0 0 0 0 0 0 0 0 0 0 0 0 0 0 0 0 0 0 0 0 0 0 0 0 0 0 0 0 0 0 0 0 0 0 0 0 0 0 0 0 0 0 0 0 0 0 0 0 0 0 0 0 0 0 0 0 0 0 0 0 0 0 0 0 0 0 0 0 0 0 0 0 0 0 0 0 0 0 0 0 0 0 0 0 0 0 0 0 0 0 0 0 0 0 0 0 0 0 0 0 0 0 0 0 0 0 0 0 0 0 0 0 0 0 0 0 0 0 0 0 0 0 0 0 0 0 0 0 0 0 0 0 0 0 0 0 0 0 0 0 0 0 0 0 0 0 0 0 0 0 0 0 0 0 0 0 0 0 0 0 0 0 0 0 0 0 0 0 0 0 0 0 0 0 0 0 0 0 0 0 0 0 0 0 0 0 0 0 0 0 0 0 0 0 0 0 0 0 0 0 0 0 0 0 0 0 0 0 0 0 0 0 0 0 0 0 0 0 0 0 0 0 0 0 0 0 0 0 0 0 0 0 0 0 0 0 0 0 0 0 0 0 0 0 0 0 0 0 0 0 0 0 0 0 0 0 0 0 0 0 0 0 0 0 0 0 0 0 0 0 0 0 0 0 0 0 0 0 0 0 0 0 0 0 0 0 0 0 0 0 0 0 0 0 0 0 0 0 0 0 0 0 0 0 0 0 0 0 0 0 0 0 0 0 0 0 0 0 0 0 0 0 0 0 0 0 0 0 0 0 0 0 0 0 0 0 0 0 0 0 0 0 0 0 0 0 0 0 0 0 0 0 0 0 0 0 0 0 0 0 0 0 0 0 0 0 0 0 0 0 0 0 0 0 0 0 0 0 0 0 0 0 0 0 0 0 0 0 0 0 0 0 0 0 0 0 0 0 0 0 0 0 0 0 0 0 0 0 0 0 0 0 0 0 0 0 0 0 0 0 0 0 0 0 0 0 0 0 0 0 0 0 0 0 0 0 0 0 0 0 0 0 0 0 0 0 0 0 0 0 0 0 0 0 0 0 0 0 0 0 0 0 0 0 0 0 0 0 0 0 0 0 0 0 0 0 0 0 0 0 0 0 0 0 0 0 0 0 0 0 0 0 0 0 0 0 0 0 0 0 0 0 0 0 0 0 0 0 0 0 0 0 0 0 0 0 0 0 0 0 0 0 0 0 0 0 0 0 0 0 0 0 0 0 0 0 0 0 0 0 0 0 0 0 0 0 0 0 0 0 0 0 0 0 0 0 0 0 0 0 0 0 0 0 0 0 0 0 0 0 0 0 0 0 0 0 0 0 0 0 0 0 0 0 0 0 0 0 0 0 0 0 0 0 0 0 0 0 0 0 0 0 0 0 0 0 0 0 0 0 0 0 0 0 0 0 0 0 0 0 0 0 0 0 0 0 0 0 0 0 0 0 0 0 0 0 0 0 0 0 0 0 0 0 0 0 0 0 0 0 0 0 0 0 0 0 0 0 0 0 0 0 0 0 0 0 0 0 0 0 0 0 0 0 0 0 0 0 0 0 0 0 0 0 0 0 0 0 0 0 0 0 0 0 0 0 0 0 0 0 0 0 0 0 0 0 0 0 0 0 0 0 0 0 0 0 0 0 0 0 0 0 0 0 0 0 0 0 0 0 0 0 0 0 0 0 0 0 0 0 0 0 0 0 0 0 0 0 0 0 0 0 0 0 0 0 0 0 0 0
				</DataArray>
				<DataArray Name="F3" type="Float32" format="ascii">
 0 0 0 0 0 0 0 0 0 0 0 0 0 0 0 0 0 0 0 0 0 0 0 0 0 0 0 0 0 0 0 0 0 0 0 0 0 0 0 0 0 0 0 0 0 0 0 0 0 0 0 0 0 0 0 0 0 0 0 0 0 0 0 0 0 0 0 0 0 0 0 0 0 0 0 0 0 0 0 0 0 0 0 0 0 0 0 0 0 0 0 0 0 0 0 0 0 0 0 0 0 0 0 0 0 0 0 0 0 0 0 0 0 0 0 0 0 0 0 0 0 0 0 0 0 0 0 0 0 0 0 0 0 0 0 0 0 0 0 0 0 0 0 0 0 0 0 0 0 0 0 0 0 0 0 0 0 0 0 0 0 0 0 0 0 0 0 0 0 0 0 0 0 0 0 0 0 0 0 0 0 0 0 0 0 0 0 0 0 0 0 0 0 0 0 0 0 0 0 0 0 0 0 0 0 0 0 0 0 0 0 0 0 0 0 0 0 0 0 0 0 0 0 0 0 0 0 0 0 0 0 0 0 0 0 0 0 0 0 0 0 0 0 0 0 0 0 0 0 0 0 0 0 0 0 0 0 0 0 0 0 0 0 0 0 0 0 0 0 0 0 0 0 0 0 0 0 0 0 0 0 0 0 0 0 0 0 0 0 0 0 0 0 0 0 0 0 0 0 0 0 0 0 0 0 0 0 0 0 0 0 0 0 0 0 0 0 0 0 0 0 0 0 0 0 0 0 0 0 0 0 0 0 0 0 0 0 0 0 0 0 0 0 0 0 0 0 0 0 0 0 0 0 0 0 0 0 0 0 0 0 0 0 0 0 0 0 0 0 0 0 0 0 0 0 0 0 0 0 0 0 0 0 0 0 0 0 0 0 0 0 0 0 0 0 0 0 0 0 0 0 0 0 0 0 0 0 0 0 0 0 0 0 0 0 0 0 0 0 0 0 0 0 0 0 0 0 0 0 0 0 0 0 0 0 0 0 0 0 0 0 0 0 0 0 0 0 0 0 0 0 0 0 0 0 0 0 0 0 0 0 0 0 0 0 0 0 0 0 0 0 0 0 0 0 0 0 0 0 0 0 0 0 0 0 0 0 0 0 0 0 0 0 0 0 0 0 0 0 0 0 0 0 0 0 0 0 0 0 0 0 0 0 0 0 0 0 0 0 0 0 0 0 0 0 0 0 0 0 0 0 0 0 0 0 0 0 0 0 0 0 0 0 0 0 0 0 0 0 0 0 0 0 0 0 0 0 0 0 0 0 0 0 0 0 0 0 0 0 0 0 0 0 0 0 0 0 0 0 0 0 0 0 0 0 0 0 0 0 0 0 0 0 0 0 0 0 0 0 0 0 0 0 0 0 0 0 0 0 0 0 0 0 0 0 0 0 0 0 0 0 0 0 0 0 0 0 0 0 0 0 0 0 0 0 0 0 0 0 0 0 0 0 0 0 0 0 0 0 0 0 0 0 0 0 0 0 0 0 0 0 0 0 0 0 0 0 0 0 0 0 0 0 0 0 0 0 0 0 0 0 0 0 0 0 0 0 0 0 0 0 0 0 0 0 0 0 0 0 0 0 0 0 0 0 0 0 0 0 0 0 0 0 0 0 0 0 0 0 0 0 0 0 0 0 0 0 0 0 0 0 0 0 0 0 0 0 0 0 0 0 0 0 0 0 0 0 0 0 0 0 0 0 0 0 0 0 0 0 0 0 0 0 0 0 0 0 0 0 0 0 0 0 0 0 0 0 0 0 0 0 0 0 0 0 0 0 0 0 0 0 0 0 0 0 0 0 0 0 0 0 0 0 0 0 0 0 0 0 0 0 0 0 0 0 0 0 0 0 0 0 0 0 0 0 0 0 0 0 0 0 0 0 0 0 0 0 0 0 0 0 0 0 0 0 0 0 0 0 0 0 0 0 0 0 0 0 0 0 0 0 0 0 0 0 0 0 0 0 0 0 0 0 0 0 0 0 0 0 0 0 0 0 0 0 0 0 0 0 0 0 0 0 0 0 0 0 0 0 0
				</DataArray>
				<DataArray Name="Pressure" type="Float32" format="ascii">