<?xml version="1.0"?>
<VTKFile type="PolyData">
	<PolyData>
		<Piece NumberOfPoints="961" NumberOfPolys="900">
			<Points>
				<DataArray type="Float32" NumberOfComponents="3" format="ascii">
 0 0 0 0.04 0 0 0.08 0 0 0.12 0 0 0.16 0 0 0.2 0 0 0.24 0 0 0.28 0 0 0.32 0 0 0.36 0 0 0.4 0 0 0.44 0 0 0.48 0 0 0.52 0 0 0.56 0 0 0.6 0 0 0.64 0 0 0.68 0 0 0.72 0 0 0.76 0 0 0.8 0 0 0.84 0 0 0.88 0 0 0.92 0 0 0.96 0 0 1 0 0 1.04 0 0 1.08 0 0 1.12 0 0 1.16 0 0 1.2 0 0 0 0.04 0 0.04 0.04 0 0.08 0.04 0 0.12 0.04 0 0.16 0.04 0 0.2 0.04 0 0.24 0.04 0 0.28 0.04 0 0.32 0.04 0 0.36 0.04 0 0.4 0.04 0 0.44 0.04 0 0.48 0.04 0 0.52 0.04 0 0.56 0.04 0 0.6 0.04 0 0.64 0.04 0 0.68 0.04 0 0.72 0.04 0 0.76 0.04 0 0.8 0.04 0 0.84 0.04 0 0.88 0.04 0 0.92 0.04 0 0.96 0.04 0 1 0.04 0 1.04 0.04 0 1.08 0.04 0 1.12 0.04 0 1.16 0.04 0 1.2 0.04 0 0 0.08 0 0.04 0.08 0 0.08 0.08 0 0.12 0.08 0 0.16 0.08 0 0.2 0.08 0 0.24 0.08 0 0.28 0.08 0 0.32 0.08 0 0.36 0.08 0 0.4 0.08 0 0.44 0.08 0 0.48 0.08 0 0.52 0.08 0 0.56 0.08 0 0.6 0.08 0 0.64 0.08 0 0.68 0.08 0 0.72 0.08 0 0.76 0.08 0 0.8 0.08 0 0.84 0.08 0 0.88 0.08 0 0.92 0.08 0 0.96 0.08 0 1 0.08 0 1.04 0.08 0 1.08 0.08 0 1.12 0.08 0 1.16 0.08 0 1.2 0.08 0 0 0.12 0 0.04 0.12 0 0.08 0.12 0 0.12 0.12 0 0.16 0.12 0 0.2 0.12 0 0.24 0.12 0 0.28 0.12 0 0.32 0.12 0 0.36 0.12 0 0.4 0.12 0 0.44 0.12 0 0.48 0.12 0 0.52 0.12 0 0.56 0.12 0 0.6 0.12 0 0.64 0.12 0 0.68 0.12 0 0.72 0.12 0 0.76 0.12 0 0.8 0.12 0 0.84 0.12 0 0.88 0.12 0 0.92 0.12 0 0.96 0.12 0 1 0.12 0 1.04 0.12 0 1.08 0.12 0 1.12 0.12 0 1.16 0.12 0 1.2 0.12 0 0 0.16 0 0.04 0.16 0 0.08 0.16 0 0.12 0.16 0 0.16 0.16 0 0.2 0.16 0 0.24 0.16 0 0.28 0.16 0 0.32 0.16 0 0.36 0.16 0 0.4 0.16 0 0.44 0.16 0 0.48 0.16 0 0.52 0.16 0 0.56 0.16 0 0.6 0.16 0 0.64 0.16 0 0.68 0.16 0 0.72 0.16 0 0.76 0.16 0 0.8 0.16 0 0.84 0.16 0 0.88 0.16 0 0.92 0.16 0 0.96 0.16 0 1 0.16 0 1.04 0.16 0 1.08 0.16 0 1.12 0.16 0 1.16 0.16 0 1.2 0.16 0 0 0.2 0 0.04 0.2 0 0.08 0.2 0 0.12 0.2 0 0.16 0.2 0 0.2 0.2 0 0.24 0.2 0 0.28 0.2 0 0.32 0.2 0 0.36 0.2 0 0.4 0.2 0 0.44 0.2 0 0.48 0.2 0 0.52 0.2 0 0.56 0.2 0 0.6 0.2 0 0.64 0.2 0 0.68 0.2 0 0.72 0.2 0 0.76 0.2 0 0.8 0.2 0 0.84 0.2 0 0.88 0.2 0 0.92 0.2 0 0.96 0.2 0 1 0.2 0 1.04 0.2 0 1.08 0.2 0 1.12 0.2 0 1.16 0.2 0 1.2 0.2 0 0 0.24 0 0.04 0.24 0 0.08 0.24 0 0.12 0.24 0 0.16 0.24 0 0.2 0.24 0 0.24 0.24 0 0.28 0.24 0 0.32 0.24 0 0.36 0.24 0 0.4 0.24 0 0.44 0.24 0 0.48 0.24 0 0.52 0.24 0 0.56 0.24 0 0.6 0.24 0 0.64 0.24 0 0.68 0.24 0 0.72 0.24 0 0.76 0.24 0 0.8 0.24 0 0.84 0.24 0 0.88 0.24 0 0.92 0.24 0 0.96 0.24 0 1 0.24 0 1.04 0.24 0 1.08 0.24 0 1.12 0.24 0 1.16 0.24 0 1.2 0.24 0 0 0.28 0 0.04 0.28 0 0.08 0.28 0 0.12 0.28 0 0.16 0.28 0 0.2 0.28 0 0.24 0.28 0 0.28 0.28 0 0.32 0.28 0 0.36 0.28 0 0.4 0.28 0 0.44 0.28 0 0.48 0.28 0 0.52 0.28 0 0.56 0.28 0 0.6 0.28 0 0.64 0.28 0 0.68 0.28 0 0.72 0.28 0 0.76 0.28 0 0.8 0.28 0 0.84 0.28 0 0.88 0.28 0 0.92 0.28 0 0.96 0.28 0 1 0.28 0 1.04 0.28 0 1.08 0.28 0 1.12 0.28 0 1.16 0.28 0 1.2 0.28 0 0 0.32 0 0.04 0.32 0 0.08 0.32 0 0.12 0.32 0 0.16 0.32 0 0.2 0.32 0 0.24 0.32 0 0.28 0.32 0 0.32 0.32 0 0.36 0.32 0 0.4 0.32 0 0.44 0.32 0 0.48 0.32 0 0.52 0.32 0 0.56 0.32 0 0.6 0.32 0 0.64 0.32 0 0.68 0.32 0 0.72 0.32 0 0.76 0.32 0 0.8 0.32 0 0.84 0.32 0 0.88 0.32 0 0.92 0.32 0 0.96 0.32 0 1 0.32 0 1.04 0.32 0 1.08 0.32 0 1.12 0.32 0 1.16 0.32 0 1.2 0.32 0 0 0.36 0 0.04 0.36 0 0.08 0.36 0 0.12 0.36 0 0.16 0.36 0 0.2 0.36 0 0.24 0.36 0 0.28 0.36 0 0.32 0.36 0 0.36 0.36 0 0.4 0.36 0 0.44 0.36 0 0.48 0.36 0 0.52 0.36 0 0.56 0.36 0 0.6 0.36 0 0.64 0.36 0 0.68 0.36 0 0.72 0.36 0 0.76 0.36 0 0.8 0.36 0 0.84 0.36 0 0.88 0.36 0 0.92 0.36 0 0.96 0.36 0 1 0.36 0 1.04 0.36 0 1.08 0.36 0 1.12 0.36 0 1.16 0.36 0 1.2 0.36 0 0 0.4 0 0.04 0.4 0 0.08 0.4 0 0.12 0.4 0 0.16 0.4 0 0.2 0.4 0 0.24 0.4 0 0.28 0.4 0 0.32 0.4 0 0.36 0.4 0 0.4 0.4 0 0.44 0.4 0 0.48 0.4 0 0.52 0.4 0 0.56 0.4 0 0.6 0.4 0 0.64 0.4 0 0.68 0.4 0 0.72 0.4 0 0.76 0.4 0 0.8 0.4 0 0.84 0.4 0 0.88 0.4 0 0.92 0.4 0 0.96 0.4 0 1 0.4 0 1.04 0.4 0 1.08 0.4 0 1.12 0.4 0 1.16 0.4 0 1.2 0.4 0 0 0.44 0 0.04 0.44 0 0.08 0.44 0 0.12 0.44 0 0.16 0.44 0 0.2 0.44 0 0.24 0.44 0 0.28 0.44 0 0.32 0.44 0 0.36 0.44 0 0.4 0.44 0 0.44 0.44 0 0.48 0.44 0 0.52 0.44 0 0.56 0.44 0 0.6 0.44 0 0.64 0.44 0 0.68 0.44 0 0.72 0.44 0 0.76 0.44 0 0.8 0.44 0 0.84 0.44 0 0.88 0.44 0 0.92 0.44 0 0.96 0.44 0 1 0.44 0 1.04 0.44 0 1.08 0.44 0 1.12 0.44 0 1.16 0.44 0 1.2 0.44 0 0 0.48 0 0.04 0.48 0 0.08 0.48 0 0.12 0.48 0 0.16 0.48 0 0.2 0.48 0 0.24 0.48 0 0.28 0.48 0 0.32 0.48 0 0.36 0.48 0 0.4 0.48 0 0.44 0.48 0 0.48 0.48 0 0.52 0.48 0 0.56 0.48 0 0.6 0.48 0 0.64 0.48 0 0.68 0.48 0 0.72 0.48 0 0.76 0.48 0 0.8 0.48 0 0.84 0.48 0 0.88 0.48 0 0.92 0.48 0 0.96 0.48 0 1 0.48 0 1.04 0.48 0 1.08 0.48 0 1.12 0.48 0 1.16 0.48 0 1.2 0.48 0 0 0.52 0 0.04 0.52 0 0.08 0.52 0 0.12 0.52 0 0.16 0.52 0 0.2 0.52 0 0.24 0.52 0 0.28 0.52 0 0.32 0.52 0 0.36 0.52 0 0.4 0.52 0 0.44 0.52 0 0.48 0.52 0 0.52 0.52 0 0.56 0.52 0 0.6 0.52 0 0.64 0.52 0 0.68 0.52 0 0.72 0.52 0 0.76 0.52 0 0.8 0.52 0 0.84 0.52 0 0.88 0.52 0 0.92 0.52 0 0.96 0.52 0 1 0.52 0 1.04 0.52 0 1.08 0.52 0 1.12 0.52 0 1.16 0.52 0 1.2 0.52 0 0 0.56 0 0.04 0.56 0 0.08 0.56 0 0.12 0.56 0 0.16 0.56 0 0.2 0.56 0 0.24 0.56 0 0.28 0.56 0 0.32 0.56 0 0.36 0.56 0 0.4 0.56 0 0.44 0.56 0 0.48 0.56 0 0.52 0.56 0 0.56 0.56 0 0.6 0.56 0 0.64 0.56 0 0.68 0.56 0 0.72 0.56 0 0.76 0.56 0 0.8 0.56 0 0.84 0.56 0 0.88 0.56 0 0.92 0.56 0 0.96 0.56 0 1 0.56 0 1.04 0.56 0 1.08 0.56 0 1.12 0.56 0 1.16 0.56 0 1.2 0.56 0 0 0.6 0 0.04 0.6 0 0.08 0.6 0 0.12 0.6 0 0.16 0.6 0 0.2 0.6 0 0.24 0.6 0 0.28 0.6 0 0.32 0.6 0 0.36 0.6 0 0.4 0.6 0 0.44 0.6 0 0.48 0.6 0 0.52 0.6 0 0.56 0.6 0 0.6 0.6 0 0.64 0.6 0 0.68 0.6 0 0.72 0.6 0 0.76 0.6 0 0.8 0.6 0 0.84 0.6 0 0.88 0.6 0 0.92 0.6 0 0.96 0.6 0 1 0.6 0 1.04 0.6 0 1.08 0.6 0 1.12 0.6 0 1.16 0.6 0 1.2 0.6 0 0 0.64 0 0.04 0.64 0 0.08 0.64 0 0.12 0.64 0 0.16 0.64 0 0.2 0.64 0 0.24 0.64 0 0.28 0.64 0 0.32 0.64 0 0.36 0.64 0 0.4 0.64 0 0.44 0.64 0 0.48 0.64 0 0.52 0.64 0 0.56 0.64 0 0.6 0.64 0 0.64 0.64 0 0.68 0.64 0 0.72 0.64 0 0.76 0.64 0 0.8 0.64 0 0.84 0.64 0 0.88 0.64 0 0.92 0.64 0 0.96 0.64 0 1 0.64 0 1.04 0.64 0 1.08 0.64 0 1.12 0.64 0 1.16 0.64 0 1.2 0.64 0 0 0.68 0 0.04 0.68 0 0.08 0.68 0 0.12 0.68 0 0.16 0.68 0 0.2 0.68 0 0.24 0.68 0 0.28 0.68 0 0.32 0.68 0 0.36 0.68 0 0.4 0.68 0 0.44 0.68 0 0.48 0.68 0 0.52 0.68 0 0.56 0.68 0 0.6 0.68 0 0.64 0.68 0 0.68 0.68 0 0.72 0.68 0 0.76 0.68 0 0.8 0.68 0 0.84 0.68 0 0.88 0.68 0 0.92 0.68 0 0.96 0.68 0 1 0.68 0 1.04 0.68 0 1.08 0.68 0 1.12 0.68 0 1.16 0.68 0 1.2 0.68 0 0 0.72 0 0.04 0.72 0 0.08 0.72 0 0.12 0.72 0 0.16 0.72 0 0.2 0.72 0 0.24 0.72 0 0.28 0.72 0 0.32 0.72 0 0.36 0.72 0 0.4 0.72 0 0.44 0.72 0 0.48 0.72 0 0.52 0.72 0 0.56 0.72 0 0.6 0.72 0 0.64 0.72 0 0.68 0.72 0 0.72 0.72 0 0.76 0.72 0 0.8 0.72 0 0.84 0.72 0 0.88 0.72 0 0.92 0.72 0 0.96 0.72 0 1 0.72 0 1.04 0.72 0 1.08 0.72 0 1.12 0.72 0 1.16 0.72 0 1.2 0.72 0 0 0.76 0 0.04 0.76 0 0.08 0.76 0 0.12 0.76 0 0.16 0.76 0 0.2 0.76 0 0.24 0.76 0 0.28 0.76 0 0.32 0.76 0 0.36 0.76 0 0.4 0.76 0 0.44 0.76 0 0.48 0.76 0 0.52 0.76 0 0.56 0.76 0 0.6 0.76 0 0.64 0.76 0 0.68 0.76 0 0.72 0.76 0 0.76 0.76 0 0.8 0.76 0 0.84 0.76 0 0.88 0.76 0 0.92 0.76 0 0.96 0.76 0 1 0.76 0 1.04 0.76 0 1.08 0.76 0 1.12 0.76 0 1.16 0.76 0 1.2 0.76 0 0 0.8 0 0.04 0.8 0 0.08 0.8 0 0.12 0.8 0 0.16 0.8 0 0.2 0.8 0 0.24 0.8 0 0.28 0.8 0 0.32 0.8 0 0.36 0.8 0 0.4 0.8 0 0.44 0.8 0 0.48 0.8 0 0.52 0.8 0 0.56 0.8 0 0.6 0.8 0 0.64 0.8 0 0.68 0.8 0 0.72 0.8 0 0.76 0.8 0 0.8 0.8 0 0.84 0.8 0 0.88 0.8 0 0.92 0.8 0 0.96 0.8 0 1 0.8 0 1.04 0.8 0 1.08 0.8 0 1.12 0.8 0 1.16 0.8 0 1.2 0.8 0 0 0.84 0 0.04 0.84 0 0.08 0.84 0 0.12 0.84 0 0.16 0.84 0 0.2 0.84 0 0.24 0.84 0 0.28 0.84 0 0.32 0.84 0 0.36 0.84 0 0.4 0.84 0 0.44 0.84 0 0.48 0.84 0 0.52 0.84 0 0.56 0.84 0 0.6 0.84 0 0.64 0.84 0 0.68 0.84 0 0.72 0.84 0 0.76 0.84 0 0.8 0.84 0 0.84 0.84 0 0.88 0.84 0 0.92 0.84 0 0.96 0.84 0 1 0.84 0 1.04 0.84 0 1.08 0.84 0 1.12 0.84 0 1.16 0.84 0 1.2 0.84 0 0 0.88 0 0.04 0.88 0 0.08 0.88 0 0.12 0.88 0 0.16 0.88 0 0.2 0.88 0 0.24 0.88 0 0.28 0.88 0 0.32 0.88 0 0.36 0.88 0 0.4 0.88 0 0.44 0.88 0 0.48 0.88 0 0.52 0.88 0 0.56 0.88 0 0.6 0.88 0 0.64 0.88 0 0.68 0.88 0 0.72 0.88 0 0.76 0.88 0 0.8 0.88 0 0.84 0.88 0 0.88 0.88 0 0.92 0.88 0 0.96 0.88 0 1 0.88 0 1.04 0.88 0 1.08 0.88 0 1.12 0.88 0 1.16 0.88 0 1.2 0.88 0 0 0.92 0 0.04 0.92 0 0.08 0.92 0 0.12 0.92 0 0.16 0.92 0 0.2 0.92 0 0.24 0.92 0 0.28 0.92 0 0.32 0.92 0 0.36 0.92 0 0.4 0.92 0 0.44 0.92 0 0.48 0.92 0 0.52 0.92 0 0.56 0.92 0 0.6 0.92 0 0.64 0.92 0 0.68 0.92 0 0.72 0.92 0 0.76 0.92 0 0.8 0.92 0 0.84 0.92 0 0.88 0.92 0 0.92 0.92 0 0.96 0.92 0 1 0.92 0 1.04 0.92 0 1.08 0.92 0 1.12 0.92 0 1.16 0.92 0 1.2 0.92 0 0 0.96 0 0.04 0.96 0 0.08 0.96 0 0.12 0.96 0 0.16 0.96 0 0.2 0.96 0 0.24 0.96 0 0.28 0.96 0 0.32 0.96 0 0.36 0.96 0 0.4 0.96 0 0.44 0.96 0 0.48 0.96 0 0.52 0.96 0 0.56 0.96 0 0.6 0.96 0 0.64 0.96 0 0.68 0.96 0 0.72 0.96 0 0.76 0.96 0 0.8 0.96 0 0.84 0.96 0 0.88 0.96 0 0.92 0.96 0 0.96 0.96 0 1 0.96 0 1.04 0.96 0 1.08 0.96 0 1.12 0.96 0 1.16 0.96 0 1.2 0.96 0 0 1 0 0.04 1 0 0.08 1 0 0.12 1 0 0.16 1 0 0.2 1 0 0.24 1 0 0.28 1 0 0.32 1 0 0.36 1 0 0.4 1 0 0.44 1 0 0.48 1 0 0.52 1 0 0.56 1 0 0.6 1 0 0.64 1 0 0.68 1 0 0.72 1 0 0.76 1 0 0.8 1 0 0.84 1 0 0.88 1 0 0.92 1 0 0.96 1 0 1 1 0 1.04 1 0 1.08 1 0 1.12 1 0 1.16 1 0 1.2 1 0 0 1.04 0 0.04 1.04 0 0.08 1.04 0 0.12 1.04 0 0.16 1.04 0 0.2 1.04 0 0.24 1.04 0 0.28 1.04 0 0.32 1.04 0 0.36 1.04 0 0.4 1.04 0 0.44 1.04 0 0.48 1.04 0 0.52 1.04 0 0.56 1.04 0 0.6 1.04 0 0.64 1.04 0 0.68 1.04 0 0.72 1.04 0 0.76 1.04 0 0.8 1.04 0 0.84 1.04 0 0.88 1.04 0 0.92 1.04 0 0.96 1.04 0 1 1.04 0 1.04 1.04 0 1.08 1.04 0 1.12 1.04 0 1.16 1.04 0 1.2 1.04 0 0 1.08 0 0.04 1.08 0 0.08 1.08 0 0.12 1.08 0 0.16 1.08 0 0.2 1.08 0 0.24 1.08 0 0.28 1.08 0 0.32 1.08 0 0.36 1.08 0 0.4 1.08 0 0.44 1.08 0 0.48 1.08 0 0.52 1.08 0 0.56 1.08 0 0.6 1.08 0 0.64 1.08 0 0.68 1.08 0 0.72 1.08 0 0.76 1.08 0 0.8 1.08 0 0.84 1.08 0 0.88 1.08 0 0.92 1.08 0 0.96 1.08 0 1 1.08 0 1.04 1.08 0 1.08 1.08 0 1.12 1.08 0 1.16 1.08 0 1.2 1.08 0 0 1.12 0 
[...]
			<CellData Scalars="Density">
				<DataArray Name="Density" type="Float32" format="ascii">
 0.00518821 0.00551257 0.00627894 0.00761148 0.00951751 0.0119856 0.0150487 0.0187433 0.0231508 0.0283931 0.0346582 0.0422136 0.0514332 0.0628412 0.0771915 0.0955676 0.119498 0.151195 0.193851 0.252101 0.332615 0.445486 0.607299 0.844948 1.19675 1.69381 2.30246 2.81604 2.68605 2.15377 0.00550959 0.00581582 0.00651569 0.00779635 0.00971179 0.0122771 0.0155482 0.0195796 0.0244573 0.0302978 0.0372845 0.0456606 0.055777 0.0681627 0.0835282 0.102955 0.127996 0.160902 0.204867 0.264519 0.346602 0.460911 0.62201 0.851994 1.19168 1.68803 2.29961 2.78745 2.64513 2.12233 0.00627278 0.00651513 0.00706185 0.00817208 0.00991385 0.0123133 0.0154664 0.0194137 0.024257 0.0301194 0.03717 0.0456619 0.0559985 0.0686581 0.0843737 0.104173 0.129573 0.162737 0.206812 0.266371 0.348341 0.463742 0.629372 0.872265 1.23358 1.74976 2.38038 2.85281 2.6491 2.02813 0.0076006 0.00779755 0.00817788 0.00917908 0.0108888 0.0133174 0.016554 0.0207098 0.0259052 0.0322816 0.0400589 0.0495371 0.0610684 0.0751903 0.0926225 0.114383 0.141926 0.177274 0.223421 0.284932 0.36844 0.483957 0.648199 0.892866 1.26438 1.79072 2.39468 2.81411 2.58247 1.9098 0.00949859 0.00971167 0.00992582 0.0108982 0.0127123 0.0153371 0.0189446 0.0236298 0.0295711 0.0369522 0.0459965 0.0570222 0.0704273 0.0867691 0.106799 0.13161 0.162671 0.202155 0.253225 0.320463 0.411298 0.536621 0.713164 0.967564 1.34533 1.87855 2.46155 2.7906 2.50184 1.7706 0.0119568 0.0122722 0.0123294 0.0133335 0.0153489 0.0183013 0.0224034 0.0277663 0.0345884 0.0430661 0.0534706 0.0661087 0.0814494 0.100048 0.12278 0.15075 0.185685 0.229755 0.286537 0.360779 0.460239 0.597063 0.789699 1.06868 1.47666 2.02365 2.58061 2.77641 2.37666 1.57708 0.0150084 0.0155368 0.0154789 0.0165763 0.0189628 0.0224154 0.0272284 0.0335012 0.0414632 0.0513094 0.0633343 0.0779012 0.0954783 0.116757 0.142623 0.17441 0.213887 0.263748 0.327498 0.411253 0.522845 0.676464 0.894348 1.20783 1.66259 2.23478 2.74864 2.80153 2.18891 1.3672 0.0186892 0.0195564 0.0194205 0.0207293 0.0236494 0.0277793 0.0335096 0.040914 0.0502353 0.0616921 0.0755766 0.0923075 0.112422 0.136665 0.16612 0.202234 0.247113 0.303687 0.376319 0.471283 0.599059 0.774482 1.02436 1.38484 1.89783 2.48343 2.87864 2.7592 1.90118 1.20422 0.0230816 0.02442 0.0242512 0.0259103 0.0295843 0.0345922 0.041454 0.0502336 0.0611766 0.0744861 0.0905342 0.109717 0.13272 0.160344 0.193875 0.234925 0.286073 0.350541 0.43359 0.543443 0.691295 0.898919 1.19403 1.62136 2.19845 2.76762 2.9734 2.57047 1.562 1.11874 0.0283086 0.0302476 0.0300975 0.0322708 0.0369398 0.0430522 0.0512749 0.0616425 0.0744682 0.0899137 0.108374 0.130377 0.156602 0.188116 0.226297 0.27318 0.331572 0.4058 0.501278 0.628691 0.802142 1.04639 1.39702 1.9012 2.50337 2.95922 2.96685 2.15134 1.26738 1.06121 0.0345586 0.0372207 0.0371341 0.0400326 0.045974 0.0534248 0.0632763 0.0755091 0.0904536 0.108357 0.129605 0.154771 0.184757 0.22069 0.264335 0.318024 0.385209 0.471069 0.583019 0.733414 0.941509 1.23876 1.66524 2.25406 2.84166 3.08123 2.71721 1.68487 1.13389 1.02742 0.0420951 0.0455819 0.0456152 0.0494939 0.0569764 0.0660531 0.0778001 0.0921993 0.109629 0.13028 0.154751 0.183632 0.217955 0.259181 0.309312 0.371331 0.44931 0.549773 0.681802 0.862005 1.11273 1.47294 1.98818 2.60438 3.06415 3.05992 2.19604 1.29388 1.06434 1.01014 0.0512929 0.0556822 0.055939 0.0610116 0.070379 0.0813653 0.0953808 0.112291 0.132587 0.156515 0.184666 0.217935 0.257485 0.305037 0.363178 0.435477 0.527313 0.646829 0.805932 1.0274 1.3377 1.78479 2.3918 2.97257 3.15821 2.7026 1.64865 1.13578 1.02801 1.00272 0.0626718 0.0680456 0.0685788 0.0751262 0.0867112 0.0999806 0.116634 0.136535 0.160228 0.18799 0.220622 0.259094 0.305046 0.360548 0.4287 0.51437 0.623938 0.769125 0.964657 1.23951 1.63172 2.18148 2.79948 3.19414 3.04142 2.07539 1.25442 1.05976 1.00916 1.00039 0.0769872 0.0833781 0.0842738 0.0925411 0.106742 0.122693 0.142539 0.165998 0.193737 0.226194 0.264243 0.309259 0.363067 0.428737 0.510037 0.613283 0.747276 0.927025 1.17429 1.52267 2.01593 2.6445 3.14582 3.20215 2.47736 1.48318 1.10953 1.02241 1.00196 1.00002 0.0953184 0.102762 0.104037 0.114279 0.131531 0.1507 0.174309 0.202131 0.234895 0.273079 0.317974 0.37126 0.43545 0.514188 0.613151 0.740422 0.90847 1.13742 1.45303 1.90911 2.50151 3.08071 3.29052 2.82969 1.76471 1.17254 1.04381 1.00579 1.00017 1 0.119193 0.12775 0.12939 0.14179 0.162582 0.185554 0.213852 0.247004 0.285924 0.331582 0.385164 0.449297 0.527187 0.624148 0.746976 0.908423 1.12453 1.42205 1.83755 2.40852 3.00993 3.28934 3.03959 2.0308 1.28418 1.07103 1.01262 1.00079 1 1 0.150824 0.16058 0.162497 0.177084 0.202022 0.229698 0.26357 0.303646 0.350487 0.405512 0.471061 0.549719 0.646685 0.768624 0.927512 1.13653 1.42073 1.81832 2.35982 2.93641 3.30889 3.1992 2.29431 1.39686 1.09619 1.0229 1.00218 1.00002 1 1 0.193396 0.204455 0.206477 0.223191 0.253028 0.286328 0.327566 0.376126 0.433748 0.501427 0.582943 0.682059 0.806468 0.964811 1.17371 1.45507 1.83964 2.35203 2.92926 3.31717 3.25263 2.42829 1.4954 1.13126 1.0346 1.00437 1.00012 1 1 1 0.251554 0.263997 0.265942 0.284604 0.320335 0.360598 0.410914 0.471405 0.543146 0.628773 0.733335 0.861819 1.02667 1.24037 1.52247 1.90594 2.4125 2.94784 3.29349 3.29682 2.50967 1.59978 1.15748 1.04441 1.00702 1.00032 1 1 1 1 0.33195 0.345935 0.347784 0.367998 0.410908 0.460113 0.522664 0.598335 0.69168 0.801717 0.941712 1.11348 1.33693 1.62853 2.02065 2.50292 2.99323 3.32076 3.26319 2.52954 1.60655 1.17199 1.053 1.00955 1.0006 1 1 1 1 1 0.444694 0.460076 0.46298 0.483447 0.536331 0.596542 0.676789 0.774302 0.898336 1.04676 1.2371 1.47438 1.78855 2.18009 2.64185 3.09276 3.30179 3.18355 2.42631 1.58279 1.17964 1.05473 1.01101 1.00087 1.00001 1 1 1 1 1 0.60632 0.620989 0.628367 0.647465 0.712711 0.789317 0.89359 1.02422 1.19336 1.39683 1.6658 1.98647 2.38917 2.80327 3.14985 3.2612 3.05031 2.27382 1.51756 1.15371 1.05227 1.01119 1.00097 1.00001 1 1 1 1 1 1 0.843729 0.850764 0.870911 0.892105 0.966717 1.06827 1.20777 1.38424 1.62166 1.90055 2.25471 2.60619 2.96638 3.18026 3.22423 2.81376 2.06161 1.38507 1.13019 1.04529 1.00945 1.00087 1.00001 1 1 1 1 1 1 1 1.19522 1.19014 1.23183 1.26318 1.34428 1.47622 1.6617 1.89804 2.19686 2.5029 2.8375 3.06376 3.1776 3.02253 2.5064 1.74494 1.28285 1.09904 1.03408 1.00705 1.00061 1.00001 1 1 1 1 1 1 1 1 1.69186 1.6861 1.74755 1.78922 1.87638 2.0237 2.23347 2.48413 2.76427 2.96091 3.08504 3.04011 2.72136 2.05774 1.4826 1.17891 1.06905 1.02303 1.00436 1.00032 1 1 1 1 1 1 1 1 1 1 2.30055 2.2975 2.37806 2.39382 2.45922 2.58115 2.7473 2.88103 2.97352 2.9626 2.73172 2.18804 1.65243 1.26245 1.10458 1.04455 1.01259 1.00219 1.00012 1 1 1 1 1 1 1 1 1 1 1 2.81492 2.78686 2.85061 2.81475 2.78831 2.77794 2.79974 2.75881 2.57649 2.14383 1.68561 1.30005 1.13133 1.06134 1.02233 1.00582 1.00078 1.00003 1 1 1 1 1 1 1 1 1 1 1 1 2.68627 2.64591 2.64886 2.58335 2.50217 2.37794 2.19214 1.90001 1.56225 1.27292 1.13107 1.06596 1.0279 1.00917 1.00194 1.00017 1 1 1 1 1 1 1 1 1 1 1 1 1 1 2.15618 2.12495 2.03074 1.91193 1.77278 1.5788 1.36775 1.20626 1.11724 1.06224 1.02735 1.0101 1.00273 1.0004 1.00002 1 1 1 1 1 1 1 1 1 1 1 1 1 1 1
				</DataArray>
				<DataArray Name="Energy" type="Float32" format="ascii">
 943.385 886.972 778.898 642.719 514.154 408.409 325.443 261.461 211.884 172.981 141.954 116.829 96.2058 79.09 64.7684 52.7287 42.6018 34.1248 27.0904 21.3233 16.6615 12.9553 10.0651 7.8507 6.16342 4.85362 3.79729 2.90338 1.95807 0.906099 887.451 839.458 749.223 626.11 502.669 397.769 314.105 249.576 199.958 161.592 131.533 107.647 88.3812 72.6256 59.582 48.6834 39.5259 31.8269 25.3882 20.0658 15.7373 12.2841 9.57762 7.48365 5.8863 4.66367 3.67546 2.81313 1.88453 0.850797 779.657 749.275 691.248 597.419 492.497 396.504 315.914 251.777 201.7 162.696 132.072 107.752 88.1903 72.2723 59.1819 48.3206 39.26 31.6902 25.3846 20.1729 15.9129 12.4789 9.75115 7.61406 5.95764 4.66423 3.63202 2.75185 1.80322 0.75284 643.635 626.007 596.983 531.829 448.41 366.807 295.049 236.031 188.872 151.718 122.465 99.3256 80.8579 65.9812 53.8942 43.9982 35.8499 29.1053 23.5142 18.8878 15.0772 11.9571 9.42511 7.41502 5.84968 4.6129 3.5843 2.69161 1.72636 0.663396 515.177 502.683 491.881 448.034 384.153 318.426 257.96 206.927 165.502 132.646 106.764 86.3661 70.1997 57.2758 46.85 38.3618 31.4009 25.6569 20.8968 16.9477 13.6784 10.9913 8.7975 7.01897 5.59824 4.45995 3.48304 2.59668 1.61801 0.547398 409.405 397.917 395.998 366.352 318.193 266.968 218.188 176.183 141.582 113.885 91.9428 74.5868 60.8043 49.7752 40.8689 33.6113 27.6488 22.72 18.6277 15.2218 12.3924 10.0521 8.12863 6.55745 5.28006 4.22759 3.3068 2.42911 1.44928 0.394979 326.32 314.362 315.657 294.655 257.695 218.078 179.626 146.115 118.216 95.701 77.7261 63.4182 51.9814 42.7823 35.31 29.1894 24.138 19.9443 16.4505 13.5386 11.1078 9.089 7.41726 6.03421 4.89664 3.92999 3.06657 2.18748 1.17756 0.211269 262.222 249.875 251.709 235.799 206.741 176.089 146.092 119.777 97.6907 79.7277 65.2642 53.6501 44.288 36.6899 30.4736 25.3402 21.0756 17.5135 14.5267 12.0244 9.9273 8.1727 6.71252 5.49401 4.48302 3.59455 2.77545 1.89197 0.839353 0.0768241 212.518 200.268 201.76 188.81 165.437 141.561 118.234 97.7114 80.3748 66.1712 54.6387 45.2881 37.6776 31.4394 26.2873 21.9958 18.4016 15.3777 12.8272 10.679 8.86715 7.34847 6.06866 4.99542 4.08809 3.25551 2.44289 1.51988 0.458746 0.0184413 173.492 161.865 162.812 151.761 132.675 113.936 95.766 79.78 66.2003 54.9919 45.8082 38.2937 32.1114 26.9939 22.7237 19.1355 16.1027 13.5328 11.3469 9.49592 7.92186 6.5951 5.46816 4.51761 3.67984 2.88747 2.05935 1.04707 0.150124 0.00277638 142.361 131.758 132.197 122.545 106.821 92.0111 77.8055 65.3275 54.6752 45.8239 38.5037 32.4533 27.4278 23.2222 19.6791 16.6737 14.1128 11.9249 10.0532 8.45848 7.09426 5.93379 4.94129 4.09228 3.29769 2.51217 1.62586 0.556637 0.0287397 0.000219738 117.154 107.828 107.864 99.4134 86.4324 74.66 63.492 53.7127 45.3303 38.3137 32.4629 27.5785 23.4799 20.0175 17.0717 14.5498 12.3827 10.5181 8.90692 7.52866 6.34075 5.3169 4.43738 3.6514 2.88973 2.08165 1.07304 0.165481 0.00338452 1.11854e-05 96.4668 88.5293 88.2851 80.9297 70.2503 60.8595 52.0431 44.3375 37.7119 32.1323 27.4375 23.4836 20.1326 17.2739 14.8202 12.7016 10.8649 9.27445 7.89201 6.69905 5.66226 4.76585 3.9778 3.22623 2.45826 1.56937 0.505118 0.0251381 0.000192887 2.66333e-06 79.3008 72.7505 72.3528 66.0371 57.3122 49.811 42.8195 36.7247 31.4644 27.0084 23.2312 20.0215 17.2768 14.9132 12.8648 11.0831 9.52533 8.16507 6.97581 5.94281 5.03323 4.24274 3.50719 2.77611 1.96142 0.927339 0.115095 0.00203057 7.10314e-06 2.50209e-06 64.9386 59.688 59.2529 53.9389 46.8734 40.8913 35.3334 30.4919 26.3007 22.7323 19.6836 17.0733 14.8211 12.8664 11.1567 9.65598 8.33531 7.17391 6.14799 5.2492 4.45289 3.7356 3.02631 2.26637 1.32973 0.32351 0.0117284 7.00414e-05 2.55306e-06 2.50002e-06 52.8643 48.7738 48.3824 44.038 38.3827 33.6248 29.2028 25.3514 22.0036 19.1386 16.6756 14.5505 12.7006 11.0826 9.65685 8.39377 7.27256 6.28269 5.39429 4.61295 3.91057 3.22787 2.51565 1.65723 0.603797 0.0439497 0.000527866 3.31517e-06 2.50049e-06 2.5e-06 42.708 39.6016 39.3148 35.8828 31.4198 27.6604 24.1461 21.0816 18.405 16.1042 14.1111 12.3816 10.8634 9.52318 8.33348 7.27438 6.32298 5.47136 4.71224 4.02921 3.36867 2.68397 1.89701 0.883583 0.118996 0.0024666 1.01519e-05 2.50675e-06 2.5e-06 2.5e-06 34.2064 31.8889 31.7368 29.1335 25.6711 22.7296 19.9501 17.516 15.3799 13.5314 11.9236 10.514 9.27136 8.16237 7.17076 6.27777 5.47296 4.74242 4.08545 3.45352 2.80465 2.07102 1.10748 0.219706 0.00721936 4.77205e-05 2.55172e-06 2.50003e-06 2.5e-06 2.5e-06 27.1512 25.4383 25.423 23.5372 20.9101 18.6344 16.4569 14.5303 12.8304 11.3491 10.0538 8.90894 7.88945 6.97504 6.14748 5.39209 4.70891 4.08686 3.48128 2.86553 2.16471 1.26015 0.324412 0.0165596 0.0001588 2.74929e-06 2.50027e-06 2.5e-06 2.5e-06 2.5e-06 21.367 20.1044 20.2041 18.9048 16.9571 15.2283 13.5409 12.0275 10.6812 9.49572 8.45662 7.5291 6.69799 5.93951 5.24736 4.6137 4.02668 3.45318 2.8598 2.20118 1.34076 0.406841 0.0279366 0.000371783 3.35627e-06 2.50133e-06 2.5e-06 2.5e-06 2.5e-06 2.5e-06 16.6919 15.7659 15.9369 15.0908 13.6847 12.3955 11.1109 9.92589 8.87092 7.92405 7.09446 6.3407 5.66305 5.03252 4.45292 3.9098 3.3669 2.80718 2.16567 1.33921 0.432927 0.0359684 0.000625213 4.46601e-06 2.5039e-06 2.5e-06 2.5e-06 2.5e-06 2.5e-06 2.5e-06 12.9753 12.3041 12.4963 11.9672 10.9972 10.0541 9.09209 8.17362 7.34764 6.59637 5.93376 5.31952 4.76539 4.24284 3.73781 3.22895 2.68692 2.06717 1.26184 0.40399 0.0368582 0.000736867 5.4903e-06 2.50741e-06 2.50001e-06 2.5e-06 2.5e-06 2.5e-06 2.5e-06 2.5e-06 10.0777 9.59086 9.76325 9.43239 8.80098 8.1298 7.417 6.71194 6.06853 5.46699 4.94092 4.43898 3.97603 3.50456 3.02646 2.5047 1.90111 1.10615 0.328078 0.0276074 0.000621975 5.5439e-06 2.5091e-06 2.50001e-06 2.5e-06 2.5e-06 2.5e-06 2.5e-06 2.5e-06 2.5e-06 7.85817 7.49196 7.62206 7.42035 7.02102 6.55857 6.03566 5.49411 4.99681 4.51877 4.09062 3.65116 3.2269 2.77042 2.276 1.65421 0.88421 0.218016 0.0164488 0.00037429 4.44751e-06 2.50734e-06 2.50001e-06 2.5e-06 2.5e-06 2.5e-06 2.5e-06 2.5e-06 2.5e-06 2.5e-06 6.1677 5.89106 5.96229 5.85345 5.59919 5.28055 4.89661 4.48416 4.08608 3.68098 3.29834 2.88785 2.46621 1.9567 1.33353 0.602712 0.1179 0.00728907 0.000158212 3.35131e-06 2.50394e-06 2.50001e-06 2.5e-06 2.5e-06 2.5e-06 2.5e-06 2.5e-06 2.5e-06 2.5e-06 2.5e-06 4.85627 4.66643 4.66667 4.61544 4.4602 4.22868 3.92916 3.59579 3.25492 2.88687 2.51517 2.07732 1.57234 0.925762 0.321754 0.0449776 0.00244013 4.69528e-05 2.75242e-06 2.50133e-06 2.5e-06 2.5e-06 2.5e-06 2.5e-06 2.5e-06 2.5e-06 2.5e-06 2.5e-06 2.5e-06 2.5e-06 3.79879 3.67715 3.63327 3.58578 3.48318 3.30794 3.06624 2.77559 2.44432 2.05871 1.62885 1.07282 0.506497 0.117317 0.0114636 0.00052849 1.04097e-05 2.5511e-06 2.50027e-06 2.5e-06 2.5e-06 2.5e-06 2.5e-06 2.5e-06 2.5e-06 2.5e-06 2.5e-06 2.5e-06 2.5e-06 2.5e-06 2.90425 2.81424 2.75284 2.69276 2.5974 2.42954 2.1883 1.89226 1.52046 1.0457 0.558309 0.167245 0.0248221 0.00206875 7.12958e-05 3.29392e-06 2.50678e-06 2.50003e-06 2.5e-06 2.5e-06 2.5e-06 2.5e-06 2.5e-06 2.5e-06 2.5e-06 2.5e-06 2.5e-06 2.5e-06 2.5e-06 2.5e-06 1.95929 1.8859 1.80441 1.7275 1.61948 1.45012 1.17863 0.840309 0.460679 0.151729 0.0286675 0.00343138 0.000195632 7.08837e-06 2.55331e-06 2.50049e-06 2.5e-06 2.5e-06 2.5e-06 2.5e-06 2.5e-06 2.5e-06 2.5e-06 2.5e-06 2.5e-06 2.5e-06 2.5e-06 2.5e-06 2.5e-06 2.5e-06 0.9078 0.852516 0.754643 0.664667 0.549483 0.395828 0.212132 0.0772693 0.018425 0.00281503 0.000223524 1.12016e-05 2.66151e-06 2.50216e-06 2.50002e-06 2.5e-06 2.5e-06 2.5e-06 2.5e-06 2.5e-06 2.5e-06 2.5e-06 2.5e-06 2.5e-06 2.5e-06 2.5e-06 2.5e-06 2.5e-06 2.5e-06 2.5e-06
				</DataArray>
				<DataArray Name="F1" type="Float32" format="ascii">
 1 1 1 1 1 1 1 1 1 1 1 1 1 1 1 1 1 1 1 1 1 1 1 1 1 1 1 1 1 1 1 1 1 1 1 1 1 1 1 1 1 1 1 1 1 1 1 1 1 1 1 1 1 1 1 1 1 1 1 1 1 1 1 1 1 1 1 1 1 1 1 1 1 1 1 1 1 1 1 1 1 1 1 1 1 1 1 1 1 1 1 1 1 1 1 1 1 1 1 1 1 1 1 1 1 1 1 1 1 1 1 1 1 1 1 1 1 1 1 1 1 1 1 1 1 1 1 1 1 1 1 1 1 1 1 1 1 1 1 1 1 1 1 1 1 1 1 1 1 1 1 1 1 1 1 1 1 1 1 1 1 1 1 1 1 1 1 1 1 1 1 1 1 1 1 1 1 1 1 1 1 1 1 1 1 1 1 1 1 1 1 1 1 1 1 1 1 1 1 1 1 1 1 1 1 1 1 1 1 1 1 1 1 1 1 1 1 1 1 1 1 1 1 1 1 1 1 1 1 1 1 1 1 1 1 1 1 1 1 1 1 1 1 1 1 1 1 1 1 1 1 1 1 1 1 1 1 1 1 1 1 1 1 1 1 1 1 1 1 1 1 1 1 1 1 1 1 1 1 1 1 1 1 1 1 1 1 1 1 1 1 1 1 1 1 1 1 1 1 1 1 1 1 1 1 1 1 1 1 1 1 1 1 1 1 1 1 1 1 1 1 1 1 1 1 1 1 1 1 1 1 1 1 1 1 1 1 1 1 1 1 1 1 1 1 1 1 1 1 1 1 1 1 1 1 1 1 1 1 1 1 1 1 1 1 1 1 1 1 1 1 1 1 1 1 1 1 1 1 1 1 1 1 1 1 1 1 1 1 1 1 1 1 1 1 1 1 1 1 1 1 1 1 1 1 1 1 1 1 1 1 1 1 1 1 1 1 1 1 1 1 1 1 1 1 1 1 1 1 1 1 1 1 1 1 1 1 1 1 1 1 1 1 1 1 1 1 1 1 1 1 1 1 1 1 1 1 1 1 1 1 1 1 1 1 1 1 1 1 1 1 1 1 1 1 1 1 1 1 1 1 1 1 1 1 1 1 1 1 1 1 1 1 1 1 1 1 1 1 1 1 1 1 1 1 1 1 1 1 1 1 1 1 1 1 1 1 1 1 1 1 1 1 1 1 1 1 1 1 1 1 1 1 1 1 1 1 1 1 1 1 1 1 1 1 1 1 1 1 1 1 1 1 1 1 1 1 1 1 1 1 1 1 1 1 1 1 1 1 1 1 1 1 1 1 1 1 1 1 1 1 1 1 1 1 1 1 1 1 1 1 1 1 1 1 1 1 1 1 1 1 1 1 1 1 1 1 1 1 1 1 1 1 1 1 1 1 1 1 1 1 1 1 1 1 1 1 1 1 1 1 1 1 1 1 1 1 1 1 1 1 1 1 1 1 1 1 1 1 1 1 1 1 1 1 1 1 1 1 1 1 1 1 1 1 1 1 1 1 1 1 1 1 1 1 1 1 1 1 1 1 1 1 1 1 1 1 1 1 1 1 1 1 1 1 1 1 1 1 1 1 1 1 1 1 1 1 1 1 1 1 1 1 1 1 1 1 1 1 1 1 1 1 1 1 1 1 1 1 1 1 1 1 1 1 1 1 1 1 1 1 1 1 1 1 1 1 1 1 1 1 1 1 1 1 1 1 1 1 1 1 1 1 1 1 1 1 1 1 1 1 1 1 1 1 1 1 1 1 1 1 1 1 1 1 1 1 1 1 1 1 1 1 1 1 1 1 1 1 1 1 1 1 1 1 1 1 1 1 1 1 1 1 1 1 1 1 1 1 1 1 1 1 1 1 1 1 1 1 1 1 1 1 1 1 1 1 1 1 1 1 1 1 1 1 1 1 1 1 1 1 1 1 1 1 1 1 1 1 1 1 1 1 1 1 1 1 1 1 1 1 1 1 1 1 1 1 1 1 1 1 1 1 1 1 1 1 1 1 1 1 1 1 1 1 1 1 1 1 1
				</DataArray>
				<DataArray Name="F2" type="Float32" format="ascii">
 0 0 0 0 0 0 0 0 0 0 0 0 0 0 0 0 0 0 0 0 0 0 0 0 0 0 0 0 0 0 0 0 0 0 0 0 0 0 0 0 0 0 0 0 0 0 0 0 0 0 0 0 0 0 0 0 0 0 0 0 0 0 0 0 0 0 0 0 0 0 0 0 0 0 0 0 0 0 0 0 0 0 0 0 0 0 0 0 0 0 0 0 0 0 0 0 0 0 0 0 0 0 0 0 0 0 0 0 0 0 0 0 0 0 0 0 0 0 0 0 0 0 0 0 0 0 0 0 0 0 0 0 0 0 0 0 0 0 0 0 0 0 0 0 0 0 0 0 0 0 0 0 0 0 0 0 0 0 0 0 0 0 0 0 0 0 0 0 0 0 0 0 0 0 0 0 0 0 0 0 0 0 0 0 0 0 0 0 0 0 0 0 0 0 0 0 0 0 0 0 0 0 0 0 0 0 0 0 0 0 0 0 0 0 0 0 0 0 0 0 0 0 0 0 0 0 0 0 0 0 0 0 0 0 0 0 0 0 0 0 0 0 0 0 0 0 0 0 0 0 0 0 0 0 0 0 0 0 0 0 0 0 0 0 0 0 0 0 0 0 0 0 0 0 0 0 0 0 0 0 0 0 0 0 0 0 0 0 0 0 0 0 0 0 0 0 0 0 0 0 0 0 0 0 0 0 0 0 0 0 0 0 0 0 0 0 0 0 0 0 0 0 0 0 0 0 0 0 0 0 0 0 0 0 0 0 0 0 0 0 0 0 0 0 0 0 0 0 0 0 0 0 0 0 0 0 0 0 0 0 0 0 0 0 0 0 0 0 0 0 0 0 0 0 0 0 0 0 0 0 0 0 0 0 0 0 0 0 0 0 0 0 0 0 0 0 0 0 0 0 0 0 0 0 0 0 0 0 0 0 0 0 0 0 0 0 0 0 0 0 0 0 0 0 0 0 0 0 0 0 0 0 0 0 0 0 0 0 0 0 0 0 0 0 0 0 0 0 0 0 0 0 0 0 0 0 0 0 0 0 0 0 0 0 0 0 0 0 0 0 0 0 0 0 0 0 0 0 0 0 0 0 0 0 0 0 0 0 0 0 0 0 0 0 0 0 0 0 0 0 0 0 0 0 0 0 0 0 0 0 0 0 0 0 0 0 0 0 0 0 0 0 0 0 0 0 0 0 0 0 0 0 0 0 0 0 0 0 0 0 0 0 0 0 0 0 0 0 0 0 0 0 0 0 0 0 0 0 0 0 0 0 0 0 0 0 0 0 0 0 0 0 0 0 0 0 0 0 0 0 0 0 0 0 0 0 0 0 0 0 0 0 0 0 0 0 0 0 0 0 0 0 0 0 0 0 0 0 0 0 0 0 0 0 0 0 0 0 0 0 0 0 0 0 0 0 0 0 0 0 0 0 0 0 0 0 0 0 0 0 0 0 0 0 0 0 0 0 0 0 0 0 0 0 0 0 0 0 0 0 0 0 0 0 0 0 0 0 0 0 0 0 0 0 0 0 0 0 0 0 0 0 0 0 0 0 0 0 0 0 0 0 0 0 0 0 0 0 0 0 0 0 0 0 0 0 0 0 0 0 0 0 0 0 0 0 0 0 0 0 0 0 0 0 0 0 0 0 0 0 0 0 0 0 0 0 0 0 0 0 0 0 0 0 0 0 0 0 0 0 0 0 0 0 0 0 0 0 0 0 0 0 0 0 0 0 0 0 0 0 0 0 0 0 0 0 0 0 0 0 0 0 0 0 0 0 0 0 0 0 0 0 0 0 0 0 0 0 0 0 0 0 0 0 0 0 0 0 0 0 0 0 0 0 0 0 0 0 0 0 0 0 0 0 0 0 0 0 0 0 0 0 0 0 0 0 0 0 0 0 0 0 0 0 0 0 0 0 0 0 0 0 0 0 0 0 0 0 0 0 0 0 0 0 0 0 0 0 0 0 0 0 0 0 0 0 0 0 0 0 0 0 0 0 0 0 0 0 0 0 0 0 0 0 0 0 0 0 0 0
				</DataArray>
				<DataArray Name="F3" type="Float32" format="ascii">