<?xml version="1.0"?>
<VTKFile type="PolyData">
	<PolyData>
		<Piece NumberOfPoints="961" NumberOfPolys="900">
			<Points>
				<DataArray type="Float32" NumberOfComponents="3" format="ascii">
 0 0 0 0.04 0 0 0.08 0 0 0.12 0 0 0.16 0 0 0.2 0 0 0.24 0 0 0.28 0 0 0.32 0 0 0.36 0 0 0.4 0 0 0.44 0 0 0.48 0 0 0.52 0 0 0.56 0 0 0.6 0 0 0.64 0 0 0.68 0 0 0.72 0 0 0.76 0 0 0.8 0 0 0.84 0 0 0.88 0 0 0.92 0 0 0.96 0 0 1 0 0 1.04 0 0 1.08 0 0 1.12 0 0 1.16 0 0 1.2 0 0 0 0.04 0 0.04 0.04 0 0.08 0.04 0 0.12 0.04 0 0.16 0.04 0 0.2 0.04 0 0.24 0.04 0 0.28 0.04 0 0.32 0.04 0 0.36 0.04 0 0.4 0.04 0 0.44 0.04 0 0.48 0.04 0 0.52 0.04 0 0.56 0.04 0 0.6 0.04 0 0.64 0.04 0 0.68 0.04 0 0.72 0.04 0 0.76 0.04 0 0.8 0.04 0 0.84 0.04 0 0.88 0.04 0 0.92 0.04 0 0.96 0.04 0 1 0.04 0 1.04 0.04 0 1.08 0.04 0 1.12 0.04 0 1.16 0.04 0 1.2 0.04 0 0 0.08 0 0.04 0.08 0 0.08 0.08 0 0.12 0.08 0 0.16 0.08 0 0.2 0.08 0 0.24 0.08 0 0.28 0.08 0 0.32 0.08 0 0.36 0.08 0 0.4 0.08 0 0.44 0.08 0 0.48 0.08 0 0.52 0.08 0 0.56 0.08 0 0.6 0.08 0 0.64 0.08 0 0.68 0.08 0 0.72 0.08 0 0.76 0.08 0 0.8 0.08 0 0.84 0.08 0 0.88 0.08 0 0.92 0.08 0 0.96 0.08 0 1 0.08 0 1.04 0.08 0 1.08 0.08 0 1.12 0.08 0 1.16 0.08 0 1.2 0.08 0 0 0.12 0 0.04 0.12 0 0.08 0.12 0 0.12 0.12 0 0.16 0.12 0 0.2 0.12 0 0.24 0.12 0 0.28 0.12 0 0.32 0.12 0 0.36 0.12 0 0.4 0.12 0 0.44 0.12 0 0.48 0.12 0 0.52 0.12 0 0.56 0.12 0 0.6 0.12 0 0.64 0.12 0 0.68 0.12 0 0.72 0.12 0 0.76 0.12 0 0.8 0.12 0 0.84 0.12 0 0.88 0.12 0 0.92 0.12 0 0.96 0.12 0 1 0.12 0 1.04 0.12 0 1.08 0.12 0 1.12 0.12 0 1.16 0.12 0 1.2 0.12 0 0 0.16 0 0.04 0.16 0 0.08 0.16 0 0.12 0.16 0 0.16 0.16 0 0.2 0.16 0 0.24 0.16 0 0.28 0.16 0 0.32 0.16 0 0.36 0.16 0 0.4 0.16 0 0.44 0.16 0 0.48 0.16 0 0.52 0.16 0 0.56 0.16 0 0.6 0.16 0 0.64 0.16 0 0.68 0.16 0 0.72 0.16 0 0.76 0.16 0 0.8 0.16 0 0.84 0.16 0 0.88 0.16 0 0.92 0.16 0 0.96 0.16 0 1 0.16 0 1.04 0.16 0 1.08 0.16 0 1.12 0.16 0 1.16 0.16 0 1.2 0.16 0 0 0.2 0 0.04 0.2 0 0.08 0.2 0 0.12 0.2 0 0.16 0.2 0 0.2 0.2 0 0.24 0.2 0 0.28 0.2 0 0.32 0.2 0 0.36 0.2 0 0.4 0.2 0 0.44 0.2 0 0.48 0.2 0 0.52 0.2 0 0.56 0.2 0 0.6 0.2 0 0.64 0.2 0 0.68 0.2 0 0.72 0.2 0 0.76 0.2 0 0.8 0.2 0 0.84 0.2 0 0.88 0.2 0 0.92 0.2 0 0.96 0.2 0 1 0.2 0 1.04 0.2 0 1.08 0.2 0 1.12 0.2 0 1.16 0.2 0 1.2 0.2 0 0 0.24 0 0.04 0.24 0 0.08 0.24 0 0.12 0.24 0 0.16 0.24 0 0.2 0.24 0 0.24 0.24 0 0.28 0.24 0 0.32 0.24 0 0.36 0.24 0 0.4 0.24 0 0.44 0.24 0 0.48 0.24 0 0.52 0.24 0 0.56 0.24 0 0.6 0.24 0 0.64 0.24 0 0.68 0.24 0 0.72 0.24 0 0.76 0.24 0 0.8 0.24 0 0.84 0.24 0 0.88 0.24 0 0.92 0.24 0 0.96 0.24 0 1 0.24 0 1.04 0.24 0 1.08 0.24 0 1.12 0.24 0 1.16 0.24 0 1.2 0.24 0 0 0.28 0 0.04 0.28 0 0.08 0.28 0 0.12 0.28 0 0.16 0.28 0 0.2 0.28 0 0.24 0.28 0 0.28 0.28 0 0.32 0.28 0 0.36 0.28 0 0.4 0.28 0 0.44 0.28 0 0.48 0.28 0 0.52 0.28 0 0.56 0.28 0 0.6 0.28 0 0.64 0.28 0 0.68 0.28 0 0.72 0.28 0 0.76 0.28 0 0.8 0.28 0 0.84 0.28 0 0.88 0.28 0 0.92 0.28 0 0.96 0.28 0 1 0.28 0 1.04 0.28 0 1.08 0.28 0 1.12 0.28 0 1.16 0.28 0 1.2 0.28 0 0 0.32 0 0.04 0.32 0 0.08 0.32 0 0.12 0.32 0 0.16 0.32 0 0.2 0.32 0 0.24 0.32 0 0.28 0.32 0 0.32 0.32 0 0.36 0.32 0 0.4 0.32 0 0.44 0.32 0 0.48 0.32 0 0.52 0.32 0 0.56 0.32 0 0.6 0.32 0 0.64 0.32 0 0.68 0.32 0 0.72 0.32 0 0.76 0.32 0 0.8 0.32 0 0.84 0.32 0 0.88 0.32 0 0.92 0.32 0 0.96 0.32 0 1 0.32 0 1.04 0.32 0 1.08 0.32 0 1.12 0.32 0 1.16 0.32 0 1.2 0.32 0 0 0.36 0 0.04 0.36 0 0.08 0.36 0 0.12 0.36 0 0.16 0.36 0 0.2 0.36 0 0.24 0.36 0 0.28 0.36 0 0.32 0.36 0 0.36 0.36 0 0.4 0.36 0 0.44 0.36 0 0.48 0.36 0 0.52 0.36 0 0.56 0.36 0 0.6 0.36 0 0.64 0.36 0 0.68 0.36 0 0.72 0.36 0 0.76 0.36 0 0.8 0.36 0 0.84 0.36 0 0.88 0.36 0 0.92 0.36 0 0.96 0.36 0 1 0.36 0 1.04 0.36 0 1.08 0.36 0 1.12 0.36 0 1.16 0.36 0 1.2 0.36 0 0 0.4 0 0.04 0.4 0 0.08 0.4 0 0.12 0.4 0 0.16 0.4 0 0.2 0.4 0 0.24 0.4 0 0.28 0.4 0 0.32 0.4 0 0.36 0.4 0 0.4 0.4 0 0.44 0.4 0 0.48 0.4 0 0.52 0.4 0 0.56 0.4 0 0.6 0.4 0 0.64 0.4 0 0.68 0.4 0 0.72 0.4 0 0.76 0.4 0 0.8 0.4 0 0.84 0.4 0 0.88 0.4 0 0.92 0.4 0 0.96 0.4 0 1 0.4 0 1.04 0.4 0 1.08 0.4 0 1.12 0.4 0 1.16 0.4 0 1.2 0.4 0 0 0.44 0 0.04 0.44 0 0.08 0.44 0 0.12 0.44 0 0.16 0.44 0 0.2 0.44 0 0.24 0.44 0 0.28 0.44 0 0.32 0.44 0 0.36 0.44 0 0.4 0.44 0 0.44 0.44 0 0.48 0.44 0 0.52 0.44 0 0.56 0.44 0 0.6 0.44 0 0.64 0.44 0 0.68 0.44 0 0.72 0.44 0 0.76 0.44 0 0.8 0.44 0 0.84 0.44 0 0.88 0.44 0 0.92 0.44 0 0.96 0.44 0 1 0.44 0 1.04 0.44 0 1.08 0.44 0 1.12 0.44 0 1.16 0.44 0 1.2 0.44 0 0 0.48 0 0.04 0.48 0 0.08 0.48 0 0.12 0.48 0 0.16 0.48 0 0.2 0.48 0 0.24 0.48 0 0.28 0.48 0 0.32 0.48 0 0.36 0.48 0 0.4 0.48 0 0.44 0.48 0 0.48 0.48 0 0.52 0.48 0 0.56 0.48 0 0.6 0.48 0 0.64 0.48 0 0.68 0.48 0 0.72 0.48 0 0.76 0.48 0 0.8 0.48 0 0.84 0.48 0 0.88 0.48 0 0.92 0.48 0 0.96 0.48 0 1 0.48 0 1.04 0.48 0 1.08 0.48 0 1.12 0.48 0 1.16 0.48 0 1.2 0.48 0 0 0.52 0 0.04 0.52 0 0.08 0.52 0 0.12 0.52 0 0.16 0.52 0 0.2 0.52 0 0.24 0.52 0 0.28 0.52 0 0.32 0.52 0 0.36 0.52 0 0.4 0.52 0 0.44 0.52 0 0.48 0.52 0 0.52 0.52 0 0.56 0.52 0 0.6 0.52 0 0.64 0.52 0 0.68 0.52 0 0.72 0.52 0 0.76 0.52 0 0.8 0.52 0 0.84 0.52 0 0.88 0.52 0 0.92 0.52 0 0.96 0.52 0 1 0.52 0 1.04 0.52 0 1.08 0.52 0 1.12 0.52 0 1.16 0.52 0 1.2 0.52 0 0 0.56 0 0.04 0.56 0 0.08 0.56 0 0.12 0.56 0 0.16 0.56 0 0.2 0.56 0 0.24 0.56 0 0.28 0.56 0 0.32 0.56 0 0.36 0.56 0 0.4 0.56 0 0.44 0.56 0 0.48 0.56 0 0.52 0.56 0 0.56 0.56 0 0.6 0.56 0 0.64 0.56 0 0.68 0.56 0 0.72 0.56 0 0.76 0.56 0 0.8 0.56 0 0.84 0.56 0 0.88 0.56 0 0.92 0.56 0 0.96 0.56 0 1 0.56 0 1.04 0.56 0 1.08 0.56 0 1.12 0.56 0 1.16 0.56 0 1.2 0.56 0 0 0.6 0 0.04 0.6 0 0.08 0.6 0 0.12 0.6 0 0.16 0.6 0 0.2 0.6 0 0.24 0.6 0 0.28 0.6 0 0.32 0.6 0 0.36 0.6 0 0.4 0.6 0 0.44 0.6 0 0.48 0.6 0 0.52 0.6 0 0.56 0.6 0 0.6 0.6 0 0.64 0.6 0 0.68 0.6 0 0.72 0.6 0 0.76 0.6 0 0.8 0.6 0 0.84 0.6 0 0.88 0.6 0 0.92 0.6 0 0.96 0.6 0 1 0.6 0 1.04 0.6 0 1.08 0.6 0 1.12 0.6 0 1.16 0.6 0 1.2 0.6 0 0 0.64 0 0.04 0.64 0 0.08 0.64 0 0.12 0.64 0 0.16 0.64 0 0.2 0.64 0 0.24 0.64 0 0.28 0.64 0 0.32 0.64 0 0.36 0.64 0 0.4 0.64 0 0.44 0.64 0 0.48 0.64 0 0.52 0.64 0 0.56 0.64 0 0.6 0.64 0 0.64 0.64 0 0.68 0.64 0 0.72 0.64 0 0.76 0.64 0 0.8 0.64 0 0.84 0.64 0 0.88 0.64 0 0.92 0.64 0 0.96 0.64 0 1 0.64 0 1.04 0.64 0 1.08 0.64 0 1.12 0.64 0 1.16 0.64 0 1.2 0.64 0 0 0.68 0 0.04 0.68 0 0.08 0.68 0 0.12 0.68 0 0.16 0.68 0 0.2 0.68 0 0.24 0.68 0 0.28 0.68 0 0.32 0.68 0 0.36 0.68 0 0.4 0.68 0 0.44 0.68 0 0.48 0.68 0 0.52 0.68 0 0.56 0.68 0 0.6 0.68 0 0.64 0.68 0 0.68 0.68 0 0.72 0.68 0 0.76 0.68 0 0.8 0.68 0 0.84 0.68 0 0.88 0.68 0 0.92 0.68 0 0.96 0.68 0 1 0.68 0 1.04 0.68 0 1.08 0.68 0 1.12 0.68 0 1.16 0.68 0 1.2 0.68 0 0 0.72 0 0.04 0.72 0 0.08 0.72 0 0.12 0.72 0 0.16 0.72 0 0.2 0.72 0 0.24 0.72 0 0.28 0.72 0 0.32 0.72 0 0.36 0.72 0 0.4 0.72 0 0.44 0.72 0 0.48 0.72 0 0.52 0.72 0 0.56 0.72 0 0.6 0.72 0 0.64 0.72 0 0.68 0.72 0 0.72 0.72 0 0.76 0.72 0 0.8 0.72 0 0.84 0.72 0 0.88 0.72 0 0.92 0.72 0 0.96 0.72 0 1 0.72 0 1.04 0.72 0 1.08 0.72 0 1.12 0.72 0 1.16 0.72 0 1.2 0.72 0 0 0.76 0 0.04 0.76 0 0.08 0.76 0 0.12 0.76 0 0.16 0.76 0 0.2 0.76 0 0.24 0.76 0 0.28 0.76 0 0.32 0.76 0 0.36 0.76 0 0.4 0.76 0 0.44 0.76 0 0.48 0.76 0 0.52 0.76 0 0.56 0.76 0 0.6 0.76 0 0.64 0.76 0 0.68 0.76 0 0.72 0.76 0 0.76 0.76 0 0.8 0.76 0 0.84 0.76 0 0.88 0.76 0 0.92 0.76 0 0.96 0.76 0 1 0.76 0 1.04 0.76 0 1.08 0.76 0 1.12 0.76 0 1.16 0.76 0 1.2 0.76 0 0 0.8 0 0.04 0.8 0 0.08 0.8 0 0.12 0.8 0 0.16 0.8 0 0.2 0.8 0 0.24 0.8 0 0.28 0.8 0 0.32 0.8 0 0.36 0.8 0 0.4 0.8 0 0.44 0.8 0 0.48 0.8 0 0.52 0.8 0 0.56 0.8 0 0.6 0.8 0 0.64 0.8 0 0.68 0.8 0 0.72 0.8 0 0.76 0.8 0 0.8 0.8 0 0.84 0.8 0 0.88 0.8 0 0.92 0.8 0 0.96 0.8 0 1 0.8 0 1.04 0.8 0 1.08 0.8 0 1.12 0.8 0 1.16 0.8 0 1.2 0.8 0 0 0.84 0 0.04 0.84 0 0.08 0.84 0 0.12 0.84 0 0.16 0.84 0 0.2 0.84 0 0.24 0.84 0 0.28 0.84 0 0.32 0.84 0 0.36 0.84 0 0.4 0.84 0 0.44 0.84 0 0.48 0.84 0 0.52 0.84 0 0.56 0.84 0 0.6 0.84 0 0.64 0.84 0 0.68 0.84 0 0.72 0.84 0 0.76 0.84 0 0.8 0.84 0 0.84 0.84 0 0.88 0.84 0 0.92 0.84 0 0.96 0.84 0 1 0.84 0 1.04 0.84 0 1.08 0.84 0 1.12 0.84 0 1.16 0.84 0 1.2 0.84 0 0 0.88 0 0.04 0.88 0 0.08 0.88 0 0.12 0.88 0 0.16 0.88 0 0.2 0.88 0 0.24 0.88 0 0.28 0.88 0 0.32 0.88 0 0.36 0.88 0 0.4 0.88 0 0.44 0.88 0 0.48 0.88 0 0.52 0.88 0 0.56 0.88 0 0.6 0.88 0 0.64 0.88 0 0.68 0.88 0 0.72 0.88 0 0.76 0.88 0 0.8 0.88 0 0.84 0.88 0 0.88 0.88 0 0.92 0.88 0 0.96 0.88 0 1 0.88 0 1.04 0.88 0 1.08 0.88 0 1.12 0.88 0 1.16 0.88 0 1.2 0.88 0 0 0.92 0 0.04 0.92 0 0.08 0.92 0 0.12 0.92 0 0.16 0.92 0 0.2 0.92 0 0.24 0.92 0 0.28 0.92 0 0.32 0.92 0 0.36 0.92 0 0.4 0.92 0 0.44 0.92 0 0.48 0.92 0 0.52 0.92 0 0.56 0.92 0 0.6 0.92 0 0.64 0.92 0 0.68 0.92 0 0.72 0.92 0 0.76 0.92 0 0.8 0.92 0 0.84 0.92 0 0.88 0.92 0 0.92 0.92 0 0.96 0.92 0 1 0.92 0 1.04 0.92 0 1.08 0.92 0 1.12 0.92 0 1.16 0.92 0 1.2 0.92 0 0 0.96 0 0.04 0.96 0 0.08 0.96 0 0.12 0.96 0 0.16 0.96 0 0.2 0.96 0 0.24 0.96 0 0.28 0.96 0 0.32 0.96 0 0.36 0.96 0 0.4 0.96 0 0.44 0.96 0 0.48 0.96 0 0.52 0.96 0 0.56 0.96 0 0.6 0.96 0 0.64 0.96 0 0.68 0.96 0 0.72 0.96 0 0.76 0.96 0 0.8 0.96 0 0.84 0.96 0 0.88 0.96 0 0.92 0.96 0 0.96 0.96 0 1 0.96 0 1.04 0.96 0 1.08 0.96 0 1.12 0.96 0 1.16 0.96 0 1.2 0.96 0 0 1 0 0.04 1 0 0.08 1 0 0.12 1 0 0.16 1 0 0.2 1 0 0.24 1 0 0.28 1 0 0.32 1 0 0.36 1 0 0.4 1 0 0.44 1 0 0.48 1 0 0.52 1 0 0.56 1 0 0.6 1 0 0.64 1 0 0.68 1 0 0.72 1 0 0.76 1 0 0.8 1 0 0.84 1 0 0.88 1 0 0.92 1 0 0.96 1 0 1 1 0 1.04 1 0 1.08 1 0 1.12 1 0 1.16 1 0 1.2 1 0 0 1.04 0 0.04 1.04 0 0.08 1.04 0 0.12 1.04 0 0.16 1.04 0 0.2 1.04 0 0.24 1.04 0 0.28 1.04 0 0.32 1.04 0 0.36 1.04 0 0.4 1.04 0 0.44 1.04 0 0.48 1.04 0 0.52 1.04 0 0.56 1.04 0 0.6 1.04 0 0.64 1.04 0 0.68 1.04 0 0.72 1.04 0 0.76 1.04 0 0.8 1.04 0 0.84 1.04 0 0.88 1.04 0 0.92 1.04 0 0.96 1.04 0 1 1.04 0 1.04 1.04 0 1.08 1.04 0 1.12 1.04 0 1.16 1.04 0 1.2 1.04 0 0 1.08 0 0.04 1.08 0 0.08 1.08 0 0.12 1.08 0 0.16 1.08 0 0.2 1.08 0 0.24 1.08 0 0.28 1.08 0 0.32 1.08 0 0.36 1.08 0 0.4 1.08 0 0.44 1.08 0 0.48 1.08 0 0.52 1.08 0 0.56 1.08 0 0.6 1.08 0 0.64 1.08 0 0.68 1.08 0 0.72 1.08 0 0.76 1.08 0 0.8 1.08 0 0.84 1.08 0 0.88 1.08 0 0.92 1.08 0 0.96 1.08 0 1 1.08 0 1.04 1.08 0 1.08 1.08 0 1.12 1.08 0 1.16 1.08 0 1.2 1.08 0 0 1.12 0 
[...]
			<CellData Scalars="Density">
				<DataArray Name="Density" type="Float32" format="ascii">
 0.00569327 0.0069723 0.013402 0.0257183 0.0433055 0.0642589 0.0883492 0.11453 0.143403 0.173976 0.206771 0.241848 0.280781 0.326627 0.387772 0.470065 0.547896 0.634058 0.72953 0.833843 0.944914 1.0599 1.17509 1.2857 1.38924 1.47361 1.49503 1.42014 1.26602 1.06845 0.00708614 0.00674177 0.00893692 0.0182948 0.0339305 0.0544054 0.0768504 0.101994 0.12744 0.154814 0.183388 0.215083 0.25148 0.296987 0.363681 0.441352 0.524188 0.617845 0.722421 0.836957 0.958073 1.08249 1.20543 1.32186 1.42757 1.50838 1.53227 1.45982 1.30424 1.1059 0.0137167 0.00911491 0.00852316 0.011355 0.0204139 0.0361123 0.0564268 0.0757738 0.0975656 0.119704 0.145316 0.175011 0.210283 0.255364 0.321056 0.39202 0.473954 0.568239 0.674449 0.792114 0.917106 1.04669 1.1753 1.29665 1.40526 1.48713 1.51845 1.45888 1.32388 1.14265 0.0262508 0.0188366 0.011593 0.010852 0.012986 0.0222294 0.0344611 0.051195 0.073315 0.0967167 0.122736 0.152629 0.185718 0.230699 0.289484 0.358462 0.441257 0.537762 0.647191 0.768322 0.8972 1.03041 1.1625 1.287 1.39629 1.47719 1.51016 1.46081 1.35434 1.19891 0.043983 0.0345433 0.0207939 0.0131501 0.0126849 0.014835 0.0224733 0.0332646 0.0512753 0.0737634 0.101352 0.128968 0.157789 0.196253 0.246907 0.312948 0.395299 0.493619 0.60683 0.73289 0.868134 1.00791 1.14644 1.27645 1.38934 1.47206 1.50897 1.47784 1.40538 1.28126 0.0650286 0.0550874 0.036701 0.0225301 0.0149431 0.0146855 0.0164535 0.0237661 0.0354068 0.0531889 0.0734269 0.0946112 0.119883 0.151617 0.196743 0.258526 0.338141 0.435489 0.55001 0.679708 0.821413 0.969919 1.11909 1.25998 1.38362 1.47806 1.52796 1.52355 1.4942 1.39824 0.0891862 0.0775492 0.0568128 0.0347088 0.0225704 0.0164865 0.01645 0.0189339 0.0267356 0.0384325 0.052422 0.0668074 0.0855174 0.113289 0.154291 0.211917 0.287951 0.383149 0.497314 0.628965 0.774646 0.929167 1.08693 1.23843 1.37555 1.48748 1.56586 1.59918 1.61905 1.54497 0.115419 0.102651 0.0760629 0.051363 0.0333165 0.0237054 0.0189426 0.01909 0.0227197 0.0302897 0.0397432 0.0500216 0.0638604 0.0875794 0.12551 0.18029 0.253483 0.346274 0.458685 0.591028 0.741012 0.9041 1.07403 1.24254 1.39994 1.53598 1.64357 1.71358 1.77742 1.71725 0.144332 0.128064 0.0977769 0.0734219 0.051202 0.0352083 0.0265188 0.0226278 0.0232335 0.0272891 0.0334867 0.0416101 0.0536623 0.0754203 0.11205 0.165817 0.237582 0.328176 0.438869 0.570429 0.722408 0.892075 1.07278 1.25848 1.43829 1.60208 1.7395 1.8429 1.94844 1.89567 0.174927 0.155389 0.119906 0.0967352 0.0736107 0.0528157 0.0381032 0.0300855 0.0272221 0.0283011 0.0326645 0.0396961 0.0524613 0.0751204 0.112815 0.167418 0.23906 0.328434 0.437579 0.568077 0.720705 0.894476 1.08607 1.28819 1.49007 1.68051 1.84405 1.97263 2.10284 2.04663 0.20772 0.183915 0.145452 0.122668 0.100967 0.0728915 0.0519837 0.0394781 0.0333436 0.0326211 0.0353144 0.0432328 0.0590149 0.0867309 0.128516 0.185451 0.257455 0.345739 0.45318 0.582627 0.734998 0.911465 1.10911 1.32232 1.5436 1.7559 1.93781 2.07779 2.20511 2.15229 0.242781 0.215549 0.175105 0.152411 0.128413 0.093891 0.066294 0.0497118 0.0414362 0.0396072 0.0432049 0.0544383 0.0762396 0.110471 0.156921 0.216307 0.288835 0.376158 0.481965 0.609601 0.761326 0.93752 1.13681 1.3562 1.59 1.81763 2.00733 2.14574 2.25304 2.21831 0.281709 0.251953 0.210312 0.18542 0.157179 0.119155 0.0849385 0.0635101 0.0534391 0.0523769 0.0589939 0.076278 0.10488 0.145011 0.195118 0.255731 0.328679 0.415212 0.519255 0.644929 0.794203 0.967082 1.16357 1.38215 1.61427 1.84315 2.02128 2.15181 2.25917 2.25161 0.327459 0.297352 0.25521 0.230111 0.195404 0.150735 0.112553 0.0870311 0.0751167 0.0750349 0.0868117 0.110479 0.145109 0.188611 0.240569 0.301843 0.374848 0.460942 0.56323 0.686329 0.829287 0.993269 1.17693 1.38216 1.60017 1.81712 1.98091 2.11474 2.22802 2.24487 0.388134 0.363667 0.320842 0.288824 0.24589 0.195707 0.153395 0.124706 0.111656 0.112618 0.128447 0.156806 0.194943 0.24035 0.292707 0.35495 0.427752 0.513023 0.613788 0.729201 0.861336 1.01135 1.18211 1.36704 1.56424 1.75751 1.91496 2.06157 2.19102 2.21873 0.470822 0.441574 0.391807 0.357711 0.3118 0.257339 0.210867 0.179368 0.165229 0.167127 0.18505 0.215901 0.25537 0.301407 0.354798 0.417839 0.489869 0.573916 0.668684 0.774028 0.894906 1.02845 1.17584 1.33999 1.51098 1.68758 1.84756 2.00542 2.158 2.18955 0.548646 0.524392 0.473693 0.440433 0.394015 0.336783 0.286696 0.252381 0.236854 0.23864 0.257005 0.288261 0.328208 0.374449 0.42777 0.490076 0.561204 0.639171 0.72584 0.822735 0.92733 1.04328 1.16921 1.31016 1.46182 1.62343 1.7906 1.96068 2.1296 2.1609 0.634745 0.617988 0.567957 0.536912 0.492232 0.433998 0.381734 0.344966 0.327352 0.327877 0.345172 0.375699 0.414873 0.460879 0.513207 0.574264 0.639611 0.710302 0.788227 0.872476 0.961384 1.05656 1.16435 1.28296 1.42389 1.57904 1.75562 1.94029 2.10917 2.14025 0.730118 0.722497 0.674139 0.646325 0.605402 0.548439 0.495756 0.457299 0.437766 0.436823 0.452405 0.481388 0.518894 0.563187 0.614093 0.668923 0.725857 0.789117 0.855189 0.922898 0.9951 1.07055 1.16099 1.27 1.40168 1.55827 1.73979 1.93176 2.0994 2.13384 0.834296 0.836941 0.791761 0.767474 0.731471 0.678105 0.627347 0.589527 0.569161 0.567087 0.581656 0.608839 0.644427 0.686 0.729166 0.774684 0.822857 0.871805 0.923932 0.974907 1.0297 1.09181 1.17202 1.27563 1.40149 1.5574 1.74012 1.93903 2.10395 2.14476 0.945277 0.957994 0.91674 0.896388 0.866786 0.819847 0.773063 0.739503 0.721046 0.719563 0.733844 0.760332 0.79338 0.828679 0.86097 0.894274 0.928068 0.961364 0.994134 1.0276 1.07046 1.12713 1.20097 1.30007 1.42741 1.58258 1.76695 1.96264 2.1278 2.1706 1.06013 1.08232 1.04631 1.02964 1.00669 0.968478 0.927674 0.902668 0.890723 0.89331 0.910264 0.936444 0.966018 0.992344 1.01177 1.02869 1.04206 1.05593 1.07165 1.09252 1.12557 1.1764 1.24968 1.34745 1.47362 1.6288 1.81088 2.0027 2.16959 2.21542 1.17521 1.20519 1.17493 1.16184 1.14537 1.11786 1.08561 1.07276 1.07153 1.08498 1.108 1.136 1.16301 1.17659 1.1807 1.17582 1.17032 1.16366 1.15827 1.17209 1.20165 1.24887 1.32079 1.41894 1.54545 1.69963 1.87833 2.06495 2.2286 2.2786 1.28577 1.32163 1.29632 1.28647 1.27565 1.25899 1.23736 1.24151 1.25748 1.28733 1.32149 1.35513 1.38212 1.38251 1.36742 1.3385 1.30807 1.2836 1.271 1.27333 1.29968 1.34721 1.41865 1.5173 1.64337 1.79497 1.96951 2.14902 2.30569 2.35393 1.3893 1.42737 1.405 1.39587 1.38876 1.38291 1.37476 1.39921 1.43762 1.48953 1.54315 1.58987 1.6139 1.59907 1.56421 1.51233 1.46226 1.42141 1.40204 1.40204 1.42667 1.47292 1.54477 1.64331 1.76819 1.91833 2.08983 2.26085 2.40911 2.43709 1.47371 1.50829 1.48699 1.47699 1.47181 1.47776 1.48705 1.53565 1.60178 1.68029 1.75571 1.81777 1.84372 1.81789 1.7574 1.68619 1.62305 1.58003 1.55776 1.55744 1.58239 1.62847 1.6991 1.79441 1.91833 2.0689 2.2407 2.40545 2.54432 2.54422 1.49579 1.5328 1.51879 1.51042 1.5092 1.52816 1.56594 1.64373 1.73976 1.84434 1.93811 2.00758 2.02047 1.98063 1.91526 1.8492 1.79001 1.75566 1.73995 1.74039 1.7669 1.81074 1.87848 1.96932 2.08997 2.24022 2.4168 2.59005 2.71249 2.69884 1.42131 1.46092 1.45989 1.46172 1.47875 1.52443 1.60003 1.71433 1.84369 1.97332 2.07852 2.14658 2.15245 2.1155 2.06085 2.00575 1.96074 1.94028 1.93202 1.93929 1.9626 2.00252 2.06489 2.14928 2.26187 2.40612 2.59031 2.77458 2.92536 2.9196 1.2684 1.30668 1.32624 1.35664 1.40765 1.49639 1.62105 1.77926 1.95015 2.10425 2.20621 2.25362 2.25942 2.2286 2.19118 2.15823 2.1297 2.1092 2.09955 2.10413 2.12796 2.16974 2.22868 2.30595 2.41003 2.54556 2.71352 2.92712 3.1336 3.13084 1.07181 1.10934 1.14603 1.20226 1.28451 1.40141 1.54786 1.71964 1.89772 2.0483 2.15346 2.21916 2.25221 2.2453 2.21919 2.1898 2.16101 2.14046 2.13386 2.14478 2.17119 2.21546 2.27802 2.354 2.43757 2.54504 2.70031 2.91997 3.13193 3.50894
				</DataArray>
				<DataArray Name="Energy" type="Float32" format="ascii">
 921.762 751.54 392.372 203.513 121.554 81.4506 59.4359 45.6299 36.487 29.9991 25.2295 21.554 18.5846 16.0053 13.5179 11.1949 9.64617 8.37147 7.30404 6.40733 5.65464 5.02485 4.49795 4.05503 3.68203 3.36197 3.06367 2.75412 2.42388 2.05427 739.504 779.932 582.248 288.773 152.771 96.8586 67.6249 51.3678 40.8315 33.7223 28.4003 24.2494 20.7496 17.6011 14.412 11.9054 10.0634 8.56943 7.35427 6.36626 5.55981 4.90222 4.36537 3.92488 3.56149 3.25242 2.97487 2.68856 2.37788 2.02499 383.358 570.97 620.697 454.24 260.53 142.969 93.4793 68.4973 53.6887 43.4573 35.896 29.7697 24.8071 20.457 16.2992 13.3865 11.1027 9.28868 7.84593 6.69745 5.77689 5.04067 4.4487 3.97021 3.58047 3.25247 2.96668 2.68049 2.37783 2.03945 199.412 280.391 445.029 491.142 394.555 239.668 149.922 102.91 70.8358 54.0731 42.4318 34.1607 28.0846 22.6387 18.0574 14.6194 11.9012 9.78405 8.14268 6.86805 5.8685 5.08174 4.45794 3.95965 3.55674 3.22274 2.93741 2.66241 2.38443 2.08113 119.673 150.091 255.7 389.721 421.54 345.213 236.415 155.722 102.497 70.6066 51.5438 40.4368 33.09 26.6188 21.1957 16.7402 13.2698 10.6357 8.65368 7.16144 6.02736 5.15517 4.47802 3.94638 3.52264 3.17691 2.88951 2.62733 2.37809 2.12763 80.4899 95.6457 140.694 236.405 342.806 363.294 312.427 222.534 146.991 98.5466 71.1314 55.2965 43.6074 34.5415 26.6441 20.3053 15.5418 12.0608 9.5324 7.68848 6.32942 5.31289 4.54374 3.95242 3.49105 3.12438 2.82824 2.57779 2.35808 2.16682 58.8752 67.0194 92.8267 148.884 235.301 311.897 322.498 273.615 196.794 136.093 99.9773 78.537 61.34 46.3911 34.1016 24.8514 18.3205 13.7767 10.595 8.33702 6.70926 5.51813 4.63605 3.97116 3.46374 3.07386 2.77239 2.53122 2.3385 2.20081 45.2789 51.0341 68.2452 102.539 155.539 222.933 273.626 275.71 229.912 173.295 132.331 105.12 82.5845 60.2695 42.1274 29.3697 20.9388 15.3622 11.5835 8.95942 7.09695 5.75059 4.76243 4.02506 3.47125 3.05393 2.73923 2.4973 2.32422 2.23472 36.2533 40.6358 53.5636 70.7448 102.6 147.871 198.295 230.874 226.021 192.826 157.23 127.067 98.6058 70.3516 47.4893 32.1826 22.5438 16.3815 12.2699 9.42523 7.40603 5.9467 4.87605 4.08193 3.48912 3.04559 2.71472 2.47013 2.3083 2.26305 29.8367 33.5964 43.3876 54.0509 70.7601 99.2058 137.287 174.428 193.318 186.017 162.146 133.448 101.442 71.032 47.5019 32.1647 22.6499 16.5846 12.5138 9.6576 7.59655 6.09011 4.97485 4.14143 3.51545 3.04529 2.69645 2.44965 2.28432 2.27638 25.1143 28.3205 35.8598 42.4576 51.7281 71.6558 100.815 133.233 157.873 162.379 149.985 123.296 90.593 61.9728 42.083 29.377 21.3198 16.0072 12.3157 9.64196 7.65311 6.1634 5.03811 4.18359 3.53368 3.03854 2.67548 2.42444 2.24956 2.26994 21.4712 24.1968 29.7548 34.2068 40.6118 55.7142 79.141 105.77 127.609 133.702 123.36 98.1993 70.639 49.0839 34.8353 25.5389 19.3177 14.9782 11.8119 9.42341 7.58168 6.15571 5.05201 4.19887 3.53623 3.02005 2.64813 2.38968 2.20598 2.24581 18.5224 20.7114 24.8025 28.1304 33.2183 43.8751 61.7631 83.0359 99.0115 101.627 90.5616 70.5925 51.6858 37.7867 28.4062 21.928 17.2849 13.8279 11.168 9.07581 7.40428 6.07125 5.0159 4.18064 3.51478 2.98072 2.60562 2.34282 2.15753 2.20743 15.9635 17.5791 20.4696 22.6966 26.7363 34.7473 46.6923 60.6522 70.62 71.123 61.9452 49.0379 37.7703 29.3875 23.3916 18.8958 15.4193 12.6734 10.4558 8.64896 7.15295 5.9294 4.93126 4.11571 3.4538 2.9171 2.55252 2.29165 2.11069 2.1515 13.504 14.413 16.3101 18.0986 21.2846 26.7894 34.3075 42.3952 47.6581 47.5606 42.1169 34.8743 28.4157 23.4119 19.5123 16.3329 13.7136 11.5376 9.71232 8.16113 6.84264 5.73114 4.79826 4.01527 3.36933 2.86129 2.50716 2.2461 2.0691 2.09101 11.1766 11.899 13.3938 14.6502 16.8027 20.4015 24.9796 29.5307 32.2975 32.2256 29.4263 25.5923 21.967 18.9225 16.3412 14.0763 12.1102 10.4157 8.92652 7.6173 6.47842 5.48241 4.61981 3.88709 3.27824 2.80651 2.4608 2.20099 2.03004 2.03166 9.63284 10.0596 11.1087 11.9236 13.3135 15.606 18.401 21.0311 22.6142 22.6923 21.3626 19.3525 17.3105 15.4349 13.7141 12.1069 10.6686 9.34709 8.13647 7.04493 6.05439 5.17388 4.39295 3.72783 3.17715 2.74532 2.41457 2.15811 1.99089 1.97386 8.36277 8.56763 9.29349 9.79978 10.6654 12.1031 13.8285 15.4185 16.4265 16.6133 16.0349 14.9998 13.8395 12.6781 11.5322 10.4097 9.34597 8.31946 7.34437 6.43394 5.59132 4.82678 4.14714 3.56081 3.07648 2.68312 2.36959 2.12061 1.95218 1.91989 7.29873 7.3539 7.84988 8.15382 8.67419 9.56057 10.6288 11.62 12.3011 12.537 12.3366 11.8263 11.1748 10.4563 9.70848 8.9209 8.13217 7.34479 6.56117 5.80717 5.10819 4.4669 3.89844 3.39927 2.97549 2.61829 2.32012 2.08105 1.91384 1.87143 6.40442 6.36685 6.70079 6.87614 7.1757 7.7074 8.35941 8.98343 9.44721 9.67531 9.65807 9.43455 9.08292 8.65259 8.1606 7.61573 7.04297 6.42963 5.81036 5.20336 4.63731 4.11805 3.65321 3.2413 2.87328 2.5495 2.26925 2.04089 1.87714 1.82775 5.65347 5.56115 5.7799 5.87446 6.03727 6.34209 6.72402 7.11257 7.42097 7.6092 7.66494 7.59099 7.41154 7.15833 6.84499 6.47589 6.0571 5.59252 5.10894 4.63445 4.19522 3.79254 3.41723 3.07299 2.75677 2.46875 2.21243 1.99876 1.84214 1.78751 5.02474 4.90385 5.04333 5.08614 5.16207 5.32139 5.5278 5.76072 5.95667 6.09877 6.17167 6.16276 6.07676 5.93262 5.7343 5.48372 5.17314 4.82645 4.47081 4.12068 3.79052 3.48014 3.18503 2.90303 2.63448 2.38246 2.15104 1.95437 1.80825 1.75065 4.49849 4.36712 4.45103 4.46133 4.48279 4.54945 4.64247 4.76904 4.88262 4.98059 5.04337 5.05631 5.01887 4.93359 4.79791 4.62046 4.39642 4.14893 3.89686 3.65486 3.41898 3.1849 2.95493 2.72779 2.50324 2.28616 2.08196 1.90564 1.7724 1.71779 4.05599 3.92667 3.97227 3.96227 3.94975 3.95623 3.97543 4.0294 4.08617 4.14511 4.18674 4.20111 4.18125 4.11693 4.01688 3.88711 3.72708 3.56308 3.40047 3.24068 3.07365 2.90403 2.72833 2.54794 2.36193 2.1771 2.00067 1.84722 1.73058 1.68516 3.6832 3.56318 3.5823 3.55872 3.52497 3.49358 3.46654 3.4741 3.49185 3.51778 3.53561 3.53771 3.51583 3.45429 3.37014 3.27976 3.17871 3.07592 2.97502 2.87383 2.75681 2.63511 2.50397 2.36255 2.20996 2.05447 1.90452 1.77509 1.67852 1.64598 3.36321 3.25396 3.25407 3.22431 3.17859 3.12614 3.0758 3.05585 3.04743 3.04684 3.03982 3.02104 2.98178 2.91781 2.86144 2.80543 2.74484 2.68374 2.61764 2.54933 2.4687 2.38274 2.28661 2.17738 2.05484 1.92519 1.79787 1.68892 1.61183 1.59769 3.06537 2.97659 2.96833 2.93883 2.89085 2.82958 2.77384 2.74062 2.71607 2.69761 2.67642 2.64875 2.60539 2.55231 2.50697 2.46126 2.4138 2.3691 2.31975 2.26899 2.21222 2.15083 2.08197 2.0003 1.9045 1.79782 1.68883 1.59482 1.53111 1.53188 2.75604 2.69043 2.68228 2.66392 2.6287 2.57909 2.53256 2.49848 2.47115 2.45045 2.4251 2.39022 2.34302 2.29176 2.24548 2.20078 2.15782 2.12022 2.08078 2.04063 1.99848 1.95397 1.90518 1.84655 1.7747 1.68876 1.59479 1.50782 1.44685 1.45272 2.42672 2.38062 2.38048 2.38672 2.38009 2.35977 2.34002 2.32545 2.30925 2.28503 2.25008 2.20617 2.15745 2.11069 2.06894 2.02993 1.99078 1.95204 1.91372 1.87696 1.84193 1.80812 1.77211 1.7301 1.67805 1.61162 1.53067 1.44618 1.3902 1.363 2.05807 2.02862 2.04295 2.08428 2.13034 2.16892 2.20252 2.23603 2.26395 2.27693 2.27036 2.2461 2.20756 2.15148 2.09086 2.03146 1.97374 1.91976 1.87144 1.82762 1.7872 1.75056 1.71741 1.68484 1.64577 1.59761 1.53194 1.45283 1.36321 1.39959
				</DataArray>
				<DataArray Name="F1" type="Float32" format="ascii">
 1 1 1 1 1 1 1 1 1 1 1 1 1 1 1 1 1 1 1 1 1 1 1 1 1 1 1 1 1 1 1 1 1 1 1 1 1 1 1 1 1 1 1 1 1 1 1 1 1 1 1 1 1 1 1 1 1 1 1 1 1 1 1 1 1 1 1 1 1 1 1 1 1 1 1 1 1 1 1 1 1 1 1 1 1 1 1 1 1 1 1 1 1 1 1 1 1 1 1 1 1 1 1 1 1 1 1 1 1 1 1 1 1 1 1 1 1 1 1 1 1 1 1 1 1 1 1 1 1 1 1 1 1 1 1 1 1 1 1 1 1 1 1 1 1 1 1 1 1 1 1 1 1 1 1 1 1 1 1 1 1 1 1 1 1 1 1 1 1 1 1 1 1 1 1 1 1 1 1 1 1 1 1 1 1 1 1 1 1 1 1 1 1 1 1 1 1 1 1 1 1 1 1 1 1 1 1 1 1 1 1 1 1 1 1 1 1 1 1 1 1 1 1 1 1 1 1 1 1 1 1 1 1 1 1 1 1 1 1 1 1 1 1 1 1 1 1 1 1 1 1 1 1 1 1 1 1 1 1 1 1 1 1 1 1 1 1 1 1 1 1 1 1 1 1 1 1 1 1 1 1 1 1 1 1 1 1 1 1 1 1 1 1 1 1 1 1 1 1 1 1 1 1 1 1 1 1 1 1 1 1 1 1 1 1 1 1 1 1 1 1 1 1 1 1 1 1 1 1 1 1 1 1 1 1 1 1 1 1 1 1 1 1 1 1 1 1 1 1 1 1 1 1 1 1 1 1 1 1 1 1 1 1 1 1 1 1 1 1 1 1 1 1 1 1 1 1 1 1 1 1 1 1 1 1 1 1 1 1 1 1 1 1 1 1 1 1 1 1 1 1 1 1 1 1 1 1 1 1 1 1 1 1 1 1 1 1 1 1 1 1 1 1 1 1 1 1 1 1 1 1 1 1 1 1 1 1 1 1 1 1 1 1 1 1 1 1 1 1 1 1 1 1 1 1 1 1 1 1 1 1 1 1 1 1 1 1 1 1 1 1 1 1 1 1 1 1 1 1 1 1 1 1 1 1 1 1 1 1 1 1 1 1 1 1 1 1 1 1 1 1 1 1 1 1 1 1 1 1 1 1 1 1 1 1 1 1 1 1 1 1 1 1 1 1 1 1 1 1 1 1 1 1 1 1 1 1 1 1 1 1 1 1 1 1 1 1 1 1 1 1 1 1 1 1 1 1 1 1 1 1 1 1 1 1 1 1 1 1 1 1 1 1 1 1 1 1 1 1 1 1 1 1 1 1 1 1 1 1 1 1 1 1 1 1 1 1 1 1 1 1 1 1 1 1 1 1 1 1 1 1 1 1 1 1 1 1 1 1 1 1 1 1 1 1 1 1 1 1 1 1 1 1 1 1 1 1 1 1 1 1 1 1 1 1 1 1 1 1 1 1 1 1 1 1 1 1 1 1 1 1 1 1 1 1 1 1 1 1 1 1 1 1 1 1 1 1 1 1 1 1 1 1 1 1 1 1 1 1 1 1 1 1 1 1 1 1 1 1 1 1 1 1 1 1 1 1 1 1 1 1 1 1 1 1 1 1 1 1 1 1 1 1 1 1 1 1 1 1 1 1 1 1 1 1 1 1 1 1 1 1 1 1 1 1 1 1 1 1 1 1 1 1 1 1 1 1 1 1 1 1 1 1 1 1 1 1 1 1 1 1 1 1 1 1 1 1 1 1 1 1 1 1 1 1 1 1 1 1 1 1 1 1 1 1 1 1 1 1 1 1 1 1 1 1 1 1 1 1 1 1 1 1 1 1 1 1 1 1 1 1 1 1 1 1 1 1 1 1 1 1 1 1 1 1 1 1 1 1 1 1 1 1 1 1 1 1 1 1 1 1 1 1 1 1 1 1 1 1 1 1 1 1 1 1 1 1 1 1 1 1 1 1 1 1 1 1 1 1 1 1 1 1 1 1 1 1 1 1 1 1 1 1 1 1 1 1 1 1 1
				</DataArray>
				<DataArray Name="F2" type="Float32" format="ascii">
 0 0 0 0 0 0 0 0 0 0 0 0 0 0 0 0 0 0 0 0 0 0 0 0 0 0 0 0 0 0 0 0 0 0 0 0 0 0 0 0 0 0 0 0 0 0 0 0 0 0 0 0 0 0 0 0 0 0 0 0 0 0 0 0 0 0 0 0 0 0 0 0 0 0 0 0 0 0 0 0 0 0 0 0 0 0 0 0 0 0 0 0 0 0 0 0 0 0 0 0 0 0 0 0 0 0 0 0 0 0 0 0 0 0 0 0 0 0 0 0 0 0 0 0 0 0 0 0 0 0 0 0 0 0 0 0 0 0 0 0 0 0 0 0 0 0 0 0 0 0 0 0 0 0 0 0 0 0 0 0 0 0 0 0 0 0 0 0 0 0 0 0 0 0 0 0 0 0 0 0 0 0 0 0 0 0 0 0 0 0 0 0 0 0 0 0 0 0 0 0 0 0 0 0 0 0 0 0 0 0 0 0 0 0 0 0 0 0 0 0 0 0 0 0 0 0 0 0 0 0 0 0 0 0 0 0 0 0 0 0 0 0 0 0 0 0 0 0 0 0 0 0 0 0 0 0 0 0 0 0 0 0 0 0 0 0 0 0 0 0 0 0 0 0 0 0 0 0 0 0 0 0 0 0 0 0 0 0 0 0 0 0 0 0 0 0 0 0 0 0 0 0 0 0 0 0 0 0 0 0 0 0 0 0 0 0 0 0 0 0 0 0 0 0 0 0 0 0 0 0 0 0 0 0 0 0 0 0 0 0 0 0 0 0 0 0 0 0 0 0 0 0 0 0 0 0 0 0 0 0 0 0 0 0 0 0 0 0 0 0 0 0 0 0 0 0 0 0 0 0 0 0 0 0 0 0 0 0 0 0 0 0 0 0 0 0 0 0 0 0 0 0 0 0 0 0 0 0 0 0 0 0 0 0 0 0 0 0 0 0 0 0 0 0 0 0 0 0 0 0 0 0 0 0 0 0 0 0 0 0 0 0 0 0 0 0 0 0 0 0 0 0 0 0 0 0 0 0 0 0 0 0 0 0 0 0 0 0 0 0 0 0 0 0 0 0 0 0 0 0 0 0 0 0 0 0 0 0 0 0 0 0 0 0 0 0 0 0 0 0 0 0 0 0 0 0 0 0 0 0 0 0 0 0 0 0 0 0 0 0 0 0 0 0 0 0 0 0 0 0 0 0 0 0 0 0 0 0 0 0 0 0 0 0 0 0 0 0 0 0 0 0 0 0 0 0 0 0 0 0 0 0 0 0 0 0 0 0 0 0 0 0 0 0 0 0 0 0 0 0 0 0 0 0 0 0 0 0 0 0 0 0 0 0 0 0 0 0 0 0 0 0 0 0 0 0 0 0 0 0 0 0 0 0 0 0 0 0 0 0 0 0 0 0 0 0 0 0 0 0 0 0 0 0 0 0 0 0 0 0 0 0 0 0 0 0 0 0 0 0 0 0 0 0 0 0 0 0 0 0 0 0 0 0 0 0 0 0 0 0 0 0 0 0 0 0 0 0 0 0 0 0 0 0 0 0 0 0 0 0 0 0 0 0 0 0 0 0 0 0 0 0 0 0 0 0 0 0 0 0 0 0 0 0 0 0 0 0 0 0 0 0 0 0 0 0 0 0 0 0 0 0 0 0 0 0 0 0 0 0 0 0 0 0 0 0 0 0 0 0 0 0 0 0 0 0 0 0 0 0 0 0 0 0 0 0 0 0 0 0 0 0 0 0 0 0 0 0 0 0 0 0 0 0 0 0 0 0 0 0 0 0 0 0 0 0 0 0 0 0 0 0 0 0 0 0 0 0 0 0 0 0 0 0 0 0 0 0 0 0 0 0 0 0 0 0 0 0 0 0 0 0 0 0 0 0 0 0 0 0 0 0 0 0 0 0 0 0 0 0 0 0 0 0 0 0 0 0 0 0 0 0 0 0 0 0 0 0 0 0 0 0 0 0 0 0 0 0 0 0 0 0 0 0 0 0 0 0 0 0 0 0 0 0 0 0 0 0 0 0
				</DataArray>
				<DataArray Name="F3" type="Float32" format="ascii">