<?xml version="1.0"?>
<VTKFile type="PolyData">
	<PolyData>
		<Piece NumberOfPoints="961" NumberOfPolys="900">
			<Points>
				<DataArray type="Float32" NumberOfComponents="3" format="ascii">
 0 0 0 0.04 0 0 0.08 0 0 0.12 0 0 0.16 0 0 0.2 0 0 0.24 0 0 0.28 0 0 0.32 0 0 0.36 0 0 0.4 0 0 0.44 0 0 0.48 0 0 0.52 0 0 0.56 0 0 0.6 0 0 0.64 0 0 0.68 0 0 0.72 0 0 0.76 0 0 0.8 0 0 0.84 0 0 0.88 0 0 0.92 0 0 0.96 0 0 1 0 0 1.04 0 0 1.08 0 0 1.12 0 0 1.16 0 0 1.2 0 0 0 0.04 0 0.04 0.04 0 0.08 0.04 0 0.12 0.04 0 0.16 0.04 0 0.2 0.04 0 0.24 0.04 0 0.28 0.04 0 0.32 0.04 0 0.36 0.04 0 0.4 0.04 0 0.44 0.04 0 0.48 0.04 0 0.52 0.04 0 0.56 0.04 0 0.6 0.04 0 0.64 0.04 0 0.68 0.04 0 0.72 0.04 0 0.76 0.04 0 0.8 0.04 0 0.84 0.04 0 0.88 0.04 0 0.92 0.04 0 0.96 0.04 0 1 0.04 0 1.04 0.04 0 1.08 0.04 0 1.12 0.04 0 1.16 0.04 0 1.2 0.04 0 0 0.08 0 0.04 0.08 0 0.08 0.08 0 0.12 0.08 0 0.16 0.08 0 0.2 0.08 0 0.24 0.08 0 0.28 0.08 0 0.32 0.08 0 0.36 0.08 0 0.4 0.08 0 0.44 0.08 0 0.48 0.08 0 0.52 0.08 0 0.56 0.08 0 0.6 0.08 0 0.64 0.08 0 0.68 0.08 0 0.72 0.08 0 0.76 0.08 0 0.8 0.08 0 0.84 0.08 0 0.88 0.08 0 0.92 0.08 0 0.96 0.08 0 1 0.08 0 1.04 0.08 0 1.08 0.08 0 1.12 0.08 0 1.16 0.08 0 1.2 0.08 0 0 0.12 0 0.04 0.12 0 0.08 0.12 0 0.12 0.12 0 0.16 0.12 0 0.2 0.12 0 0.24 0.12 0 0.28 0.12 0 0.32 0.12 0 0.36 0.12 0 0.4 0.12 0 0.44 0.12 0 0.48 0.12 0 0.52 0.12 0 0.56 0.12 0 0.6 0.12 0 0.64 0.12 0 0.68 0.12 0 0.72 0.12 0 0.76 0.12 0 0.8 0.12 0 0.84 0.12 0 0.88 0.12 0 0.92 0.12 0 0.96 0.12 0 1 0.12 0 1.04 0.12 0 1.08 0.12 0 1.12 0.12 0 1.16 0.12 0 1.2 0.12 0 0 0.16 0 0.04 0.16 0 0.08 0.16 0 0.12 0.16 0 0.16 0.16 0 0.2 0.16 0 0.24 0.16 0 0.28 0.16 0 0.32 0.16 0 0.36 0.16 0 0.4 0.16 0 0.44 0.16 0 0.48 0.16 0 0.52 0.16 0 0.56 0.16 0 0.6 0.16 0 0.64 0.16 0 0.68 0.16 0 0.72 0.16 0 0.76 0.16 0 0.8 0.16 0 0.84 0.16 0 0.88 0.16 0 0.92 0.16 0 0.96 0.16 0 1 0.16 0 1.04 0.16 0 1.08 0.16 0 1.12 0.16 0 1.16 0.16 0 1.2 0.16 0 0 0.2 0 0.04 0.2 0 0.08 0.2 0 0.12 0.2 0 0.16 0.2 0 0.2 0.2 0 0.24 0.2 0 0.28 0.2 0 0.32 0.2 0 0.36 0.2 0 0.4 0.2 0 0.44 0.2 0 0.48 0.2 0 0.52 0.2 0 0.56 0.2 0 0.6 0.2 0 0.64 0.2 0 0.68 0.2 0 0.72 0.2 0 0.76 0.2 0 0.8 0.2 0 0.84 0.2 0 0.88 0.2 0 0.92 0.2 0 0.96 0.2 0 1 0.2 0 1.04 0.2 0 1.08 0.2 0 1.12 0.2 0 1.16 0.2 0 1.2 0.2 0 0 0.24 0 0.04 0.24 0 0.08 0.24 0 0.12 0.24 0 0.16 0.24 0 0.2 0.24 0 0.24 0.24 0 0.28 0.24 0 0.32 0.24 0 0.36 0.24 0 0.4 0.24 0 0.44 0.24 0 0.48 0.24 0 0.52 0.24 0 0.56 0.24 0 0.6 0.24 0 0.64 0.24 0 0.68 0.24 0 0.72 0.24 0 0.76 0.24 0 0.8 0.24 0 0.84 0.24 0 0.88 0.24 0 0.92 0.24 0 0.96 0.24 0 1 0.24 0 1.04 0.24 0 1.08 0.24 0 1.12 0.24 0 1.16 0.24 0 1.2 0.24 0 0 0.28 0 0.04 0.28 0 0.08 0.28 0 0.12 0.28 0 0.16 0.28 0 0.2 0.28 0 0.24 0.28 0 0.28 0.28 0 0.32 0.28 0 0.36 0.28 0 0.4 0.28 0 0.44 0.28 0 0.48 0.28 0 0.52 0.28 0 0.56 0.28 0 0.6 0.28 0 0.64 0.28 0 0.68 0.28 0 0.72 0.28 0 0.76 0.28 0 0.8 0.28 0 0.84 0.28 0 0.88 0.28 0 0.92 0.28 0 0.96 0.28 0 1 0.28 0 1.04 0.28 0 1.08 0.28 0 1.12 0.28 0 1.16 0.28 0 1.2 0.28 0 0 0.32 0 0.04 0.32 0 0.08 0.32 0 0.12 0.32 0 0.16 0.32 0 0.2 0.32 0 0.24 0.32 0 0.28 0.32 0 0.32 0.32 0 0.36 0.32 0 0.4 0.32 0 0.44 0.32 0 0.48 0.32 0 0.52 0.32 0 0.56 0.32 0 0.6 0.32 0 0.64 0.32 0 0.68 0.32 0 0.72 0.32 0 0.76 0.32 0 0.8 0.32 0 0.84 0.32 0 0.88 0.32 0 0.92 0.32 0 0.96 0.32 0 1 0.32 0 1.04 0.32 0 1.08 0.32 0 1.12 0.32 0 1.16 0.32 0 1.2 0.32 0 0 0.36 0 0.04 0.36 0 0.08 0.36 0 0.12 0.36 0 0.16 0.36 0 0.2 0.36 0 0.24 0.36 0 0.28 0.36 0 0.32 0.36 0 0.36 0.36 0 0.4 0.36 0 0.44 0.36 0 0.48 0.36 0 0.52 0.36 0 0.56 0.36 0 0.6 0.36 0 0.64 0.36 0 0.68 0.36 0 0.72 0.36 0 0.76 0.36 0 0.8 0.36 0 0.84 0.36 0 0.88 0.36 0 0.92 0.36 0 0.96 0.36 0 1 0.36 0 1.04 0.36 0 1.08 0.36 0 1.12 0.36 0 1.16 0.36 0 1.2 0.36 0 0 0.4 0 0.04 0.4 0 0.08 0.4 0 0.12 0.4 0 0.16 0.4 0 0.2 0.4 0 0.24 0.4 0 0.28 0.4 0 0.32 0.4 0 0.36 0.4 0 0.4 0.4 0 0.44 0.4 0 0.48 0.4 0 0.52 0.4 0 0.56 0.4 0 0.6 0.4 0 0.64 0.4 0 0.68 0.4 0 0.72 0.4 0 0.76 0.4 0 0.8 0.4 0 0.84 0.4 0 0.88 0.4 0 0.92 0.4 0 0.96 0.4 0 1 0.4 0 1.04 0.4 0 1.08 0.4 0 1.12 0.4 0 1.16 0.4 0 1.2 0.4 0 0 0.44 0 0.04 0.44 0 0.08 0.44 0 0.12 0.44 0 0.16 0.44 0 0.2 0.44 0 0.24 0.44 0 0.28 0.44 0 0.32 0.44 0 0.36 0.44 0 0.4 0.44 0 0.44 0.44 0 0.48 0.44 0 0.52 0.44 0 0.56 0.44 0 0.6 0.44 0 0.64 0.44 0 0.68 0.44 0 0.72 0.44 0 0.76 0.44 0 0.8 0.44 0 0.84 0.44 0 0.88 0.44 0 0.92 0.44 0 0.96 0.44 0 1 0.44 0 1.04 0.44 0 1.08 0.44 0 1.12 0.44 0 1.16 0.44 0 1.2 0.44 0 0 0.48 0 0.04 0.48 0 0.08 0.48 0 0.12 0.48 0 0.16 0.48 0 0.2 0.48 0 0.24 0.48 0 0.28 0.48 0 0.32 0.48 0 0.36 0.48 0 0.4 0.48 0 0.44 0.48 0 0.48 0.48 0 0.52 0.48 0 0.56 0.48 0 0.6 0.48 0 0.64 0.48 0 0.68 0.48 0 0.72 0.48 0 0.76 0.48 0 0.8 0.48 0 0.84 0.48 0 0.88 0.48 0 0.92 0.48 0 0.96 0.48 0 1 0.48 0 1.04 0.48 0 1.08 0.48 0 1.12 0.48 0 1.16 0.48 0 1.2 0.48 0 0 0.52 0 0.04 0.52 0 0.08 0.52 0 0.12 0.52 0 0.16 0.52 0 0.2 0.52 0 0.24 0.52 0 0.28 0.52 0 0.32 0.52 0 0.36 0.52 0 0.4 0.52 0 0.44 0.52 0 0.48 0.52 0 0.52 0.52 0 0.56 0.52 0 0.6 0.52 0 0.64 0.52 0 0.68 0.52 0 0.72 0.52 0 0.76 0.52 0 0.8 0.52 0 0.84 0.52 0 0.88 0.52 0 0.92 0.52 0 0.96 0.52 0 1 0.52 0 1.04 0.52 0 1.08 0.52 0 1.12 0.52 0 1.16 0.52 0 1.2 0.52 0 0 0.56 0 0.04 0.56 0 0.08 0.56 0 0.12 0.56 0 0.16 0.56 0 0.2 0.56 0 0.24 0.56 0 0.28 0.56 0 0.32 0.56 0 0.36 0.56 0 0.4 0.56 0 0.44 0.56 0 0.48 0.56 0 0.52 0.56 0 0.56 0.56 0 0.6 0.56 0 0.64 0.56 0 0.68 0.56 0 0.72 0.56 0 0.76 0.56 0 0.8 0.56 0 0.84 0.56 0 0.88 0.56 0 0.92 0.56 0 0.96 0.56 0 1 0.56 0 1.04 0.56 0 1.08 0.56 0 1.12 0.56 0 1.16 0.56 0 1.2 0.56 0 0 0.6 0 0.04 0.6 0 0.08 0.6 0 0.12 0.6 0 0.16 0.6 0 0.2 0.6 0 0.24 0.6 0 0.28 0.6 0 0.32 0.6 0 0.36 0.6 0 0.4 0.6 0 0.44 0.6 0 0.48 0.6 0 0.52 0.6 0 0.56 0.6 0 0.6 0.6 0 0.64 0.6 0 0.68 0.6 0 0.72 0.6 0 0.76 0.6 0 0.8 0.6 0 0.84 0.6 0 0.88 0.6 0 0.92 0.6 0 0.96 0.6 0 1 0.6 0 1.04 0.6 0 1.08 0.6 0 1.12 0.6 0 1.16 0.6 0 1.2 0.6 0 0 0.64 0 0.04 0.64 0 0.08 0.64 0 0.12 0.64 0 0.16 0.64 0 0.2 0.64 0 0.24 0.64 0 0.28 0.64 0 0.32 0.64 0 0.36 0.64 0 0.4 0.64 0 0.44 0.64 0 0.48 0.64 0 0.52 0.64 0 0.56 0.64 0 0.6 0.64 0 0.64 0.64 0 0.68 0.64 0 0.72 0.64 0 0.76 0.64 0 0.8 0.64 0 0.84 0.64 0 0.88 0.64 0 0.92 0.64 0 0.96 0.64 0 1 0.64 0 1.04 0.64 0 1.08 0.64 0 1.12 0.64 0 1.16 0.64 0 1.2 0.64 0 0 0.68 0 0.04 0.68 0 0.08 0.68 0 0.12 0.68 0 0.16 0.68 0 0.2 0.68 0 0.24 0.68 0 0.28 0.68 0 0.32 0.68 0 0.36 0.68 0 0.4 0.68 0 0.44 0.68 0 0.48 0.68 0 0.52 0.68 0 0.56 0.68 0 0.6 0.68 0 0.64 0.68 0 0.68 0.68 0 0.72 0.68 0 0.76 0.68 0 0.8 0.68 0 0.84 0.68 0 0.88 0.68 0 0.92 0.68 0 0.96 0.68 0 1 0.68 0 1.04 0.68 0 1.08 0.68 0 1.12 0.68 0 1.16 0.68 0 1.2 0.68 0 0 0.72 0 0.04 0.72 0 0.08 0.72 0 0.12 0.72 0 0.16 0.72 0 0.2 0.72 0 0.24 0.72 0 0.28 0.72 0 0.32 0.72 0 0.36 0.72 0 0.4 0.72 0 0.44 0.72 0 0.48 0.72 0 0.52 0.72 0 0.56 0.72 0 0.6 0.72 0 0.64 0.72 0 0.68 0.72 0 0.72 0.72 0 0.76 0.72 0 0.8 0.72 0 0.84 0.72 0 0.88 0.72 0 0.92 0.72 0 0.96 0.72 0 1 0.72 0 1.04 0.72 0 1.08 0.72 0 1.12 0.72 0 1.16 0.72 0 1.2 0.72 0 0 0.76 0 0.04 0.76 0 0.08 0.76 0 0.12 0.76 0 0.16 0.76 0 0.2 0.76 0 0.24 0.76 0 0.28 0.76 0 0.32 0.76 0 0.36 0.76 0 0.4 0.76 0 0.44 0.76 0 0.48 0.76 0 0.52 0.76 0 0.56 0.76 0 0.6 0.76 0 0.64 0.76 0 0.68 0.76 0 0.72 0.76 0 0.76 0.76 0 0.8 0.76 0 0.84 0.76 0 0.88 0.76 0 0.92 0.76 0 0.96 0.76 0 1 0.76 0 1.04 0.76 0 1.08 0.76 0 1.12 0.76 0 1.16 0.76 0 1.2 0.76 0 0 0.8 0 0.04 0.8 0 0.08 0.8 0 0.12 0.8 0 0.16 0.8 0 0.2 0.8 0 0.24 0.8 0 0.28 0.8 0 0.32 0.8 0 0.36 0.8 0 0.4 0.8 0 0.44 0.8 0 0.48 0.8 0 0.52 0.8 0 0.56 0.8 0 0.6 0.8 0 0.64 0.8 0 0.68 0.8 0 0.72 0.8 0 0.76 0.8 0 0.8 0.8 0 0.84 0.8 0 0.88 0.8 0 0.92 0.8 0 0.96 0.8 0 1 0.8 0 1.04 0.8 0 1.08 0.8 0 1.12 0.8 0 1.16 0.8 0 1.2 0.8 0 0 0.84 0 0.04 0.84 0 0.08 0.84 0 0.12 0.84 0 0.16 0.84 0 0.2 0.84 0 0.24 0.84 0 0.28 0.84 0 0.32 0.84 0 0.36 0.84 0 0.4 0.84 0 0.44 0.84 0 0.48 0.84 0 0.52 0.84 0 0.56 0.84 0 0.6 0.84 0 0.64 0.84 0 0.68 0.84 0 0.72 0.84 0 0.76 0.84 0 0.8 0.84 0 0.84 0.84 0 0.88 0.84 0 0.92 0.84 0 0.96 0.84 0 1 0.84 0 1.04 0.84 0 1.08 0.84 0 1.12 0.84 0 1.16 0.84 0 1.2 0.84 0 0 0.88 0 0.04 0.88 0 0.08 0.88 0 0.12 0.88 0 0.16 0.88 0 0.2 0.88 0 0.24 0.88 0 0.28 0.88 0 0.32 0.88 0 0.36 0.88 0 0.4 0.88 0 0.44 0.88 0 0.48 0.88 0 0.52 0.88 0 0.56 0.88 0 0.6 0.88 0 0.64 0.88 0 0.68 0.88 0 0.72 0.88 0 0.76 0.88 0 0.8 0.88 0 0.84 0.88 0 0.88 0.88 0 0.92 0.88 0 0.96 0.88 0 1 0.88 0 1.04 0.88 0 1.08 0.88 0 1.12 0.88 0 1.16 0.88 0 1.2 0.88 0 0 0.92 0 0.04 0.92 0 0.08 0.92 0 0.12 0.92 0 0.16 0.92 0 0.2 0.92 0 0.24 0.92 0 0.28 0.92 0 0.32 0.92 0 0.36 0.92 0 0.4 0.92 0 0.44 0.92 0 0.48 0.92 0 0.52 0.92 0 0.56 0.92 0 0.6 0.92 0 0.64 0.92 0 0.68 0.92 0 0.72 0.92 0 0.76 0.92 0 0.8 0.92 0 0.84 0.92 0 0.88 0.92 0 0.92 0.92 0 0.96 0.92 0 1 0.92 0 1.04 0.92 0 1.08 0.92 0 1.12 0.92 0 1.16 0.92 0 1.2 0.92 0 0 0.96 0 0.04 0.96 0 0.08 0.96 0 0.12 0.96 0 0.16 0.96 0 0.2 0.96 0 0.24 0.96 0 0.28 0.96 0 0.32 0.96 0 0.36 0.96 0 0.4 0.96 0 0.44 0.96 0 0.48 0.96 0 0.52 0.96 0 0.56 0.96 0 0.6 0.96 0 0.64 0.96 0 0.68 0.96 0 0.72 0.96 0 0.76 0.96 0 0.8 0.96 0 0.84 0.96 0 0.88 0.96 0 0.92 0.96 0 0.96 0.96 0 1 0.96 0 1.04 0.96 0 1.08 0.96 0 1.12 0.96 0 1.16 0.96 0 1.2 0.96 0 0 1 0 0.04 1 0 0.08 1 0 0.12 1 0 0.16 1 0 0.2 1 0 0.24 1 0 0.28 1 0 0.32 1 0 0.36 1 0 0.4 1 0 0.44 1 0 0.48 1 0 0.52 1 0 0.56 1 0 0.6 1 0 0.64 1 0 0.68 1 0 0.72 1 0 0.76 1 0 0.8 1 0 0.84 1 0 0.88 1 0 0.92 1 0 0.96 1 0 1 1 0 1.04 1 0 1.08 1 0 1.12 1 0 1.16 1 0 1.2 1 0 0 1.04 0 0.04 1.04 0 0.08 1.04 0 0.12 1.04 0 0.16 1.04 0 0.2 1.04 0 0.24 1.04 0 0.28 1.04 0 0.32 1.04 0 0.36 1.04 0 0.4 1.04 0 0.44 1.04 0 0.48 1.04 0 0.52 1.04 0 0.56 1.04 0 0.6 1.04 0 0.64 1.04 0 0.68 1.04 0 0.72 1.04 0 0.76 1.04 0 0.8 1.04 0 0.84 1.04 0 0.88 1.04 0 0.92 1.04 0 0.96 1.04 0 1 1.04 0 1.04 1.04 0 1.08 1.04 0 1.12 1.04 0 1.16 1.04 0 1.2 1.04 0 0 1.08 0 0.04 1.08 0 0.08 1.08 0 0.12 1.08 0 0.16 1.08 0 0.2 1.08 0 0.24 1.08 0 0.28 1.08 0 0.32 1.08 0 0.36 1.08 0 0.4 1.08 0 0.44 1.08 0 0.48 1.08 0 0.52 1.08 0 0.56 1.08 0 0.6 1.08 0 0.64 1.08 0 0.68 1.08 0 0.72 1.08 0 0.76 1.08 0 0.8 1.08 0 0.84 1.08 0 0.88 1.08 0 0.92 1.08 0 0.96 1.08 0 1 1.08 0 1.04 1.08 0 1.08 1.08 0 1.12 1.08 0 1.16 1.08 0 1.2 1.08 0 0 1.12 0 
[...]
			<CellData Scalars="Density">
				<DataArray Name="Density" type="Float32" format="ascii">
 0.00694163 0.00745524 0.00867566 0.0107525 0.0137004 0.0175651 0.0224351 0.0284593 0.035903 0.0451764 0.0569024 0.0720067 0.0918794 0.118687 0.15565 0.207698 0.282436 0.392268 0.558724 0.818496 1.21893 1.7815 2.40524 2.59323 2.16953 1.2644 1.03954 1.00263 1.00001 1 0.00745681 0.00798568 0.00918476 0.0113155 0.014443 0.0186528 0.0240685 0.0308446 0.0392504 0.0496644 0.0626853 0.0791568 0.100396 0.128452 0.166271 0.218827 0.293756 0.402784 0.564776 0.811511 1.19873 1.75603 2.35734 2.52909 2.12874 1.25907 1.04045 1.00266 1.00001 1 0.00867853 0.00918698 0.0102837 0.0123621 0.0155091 0.0198479 0.0255372 0.0327584 0.0417892 0.0530402 0.0671155 0.0849246 0.107816 0.137849 0.178204 0.233656 0.311908 0.425614 0.596258 0.858165 1.26422 1.83395 2.43949 2.55159 2.04898 1.22275 1.03816 1.00242 1 1 0.0107562 0.01132 0.0123681 0.0145932 0.0180651 0.0229292 0.0294299 0.0377723 0.0483112 0.0614652 0.0779326 0.098609 0.124961 0.159074 0.204166 0.265376 0.350266 0.47171 0.652791 0.931389 1.36028 1.91645 2.44798 2.49525 1.91531 1.17991 1.03208 1.00189 1 1 0.0137045 0.0144487 0.0155218 0.0180784 0.0221596 0.0278979 0.0356369 0.0456192 0.0582399 0.0740096 0.0936123 0.118158 0.149068 0.188901 0.240987 0.310899 0.407796 0.545318 0.749554 1.05702 1.52029 2.08645 2.52891 2.4611 1.71281 1.12191 1.02145 1.00114 1 1 0.0175686 0.018657 0.0198642 0.0229478 0.0279125 0.0348353 0.0441156 0.0560334 0.0710166 0.0896318 0.112743 0.141471 0.177683 0.223779 0.284265 0.364759 0.476389 0.636582 0.873541 1.23274 1.75626 2.33042 2.63509 2.37143 1.49564 1.0858 1.01357 1.0004 1 1 0.0224401 0.0240715 0.0255589 0.0294545 0.0356555 0.0441475 0.0554033 0.0696651 0.0874977 0.109444 0.13661 0.17032 0.212663 0.266941 0.337725 0.433328 0.565315 0.756525 1.04089 1.46887 2.04167 2.57616 2.69074 2.12846 1.27866 1.05534 1.00622 1.00008 1 1 0.0284648 0.0308487 0.0327818 0.03781 0.0456547 0.0560845 0.0697388 0.0867921 0.107869 0.133738 0.165463 0.204934 0.254456 0.317944 0.40166 0.514475 0.674288 0.906268 1.25607 1.77788 2.37521 2.76978 2.6422 1.73751 1.14611 1.02825 1.00195 1.00001 1 1 0.0359107 0.0392491 0.0418189 0.0483403 0.0582986 0.0711304 0.0876257 0.10801 0.132936 0.16327 0.200549 0.246639 0.305063 0.380247 0.48013 0.616949 0.812702 1.10134 1.53581 2.1296 2.68309 2.82277 2.28458 1.36522 1.07736 1.01108 1.0003 1 1 1 0.045184 0.0496648 0.0530644 0.0614985 0.0740368 0.0897763 0.109701 0.133948 0.163468 0.199219 0.242965 0.297503 0.366467 0.456618 0.578188 0.746366 0.992618 1.3594 1.89964 2.51086 2.89495 2.70673 1.76746 1.16092 1.03413 1.00294 1.00002 1 1 1 0.0569104 0.0626739 0.0671407 0.0779204 0.0936223 0.11282 0.136832 0.165826 0.200784 0.243171 0.29514 0.36001 0.44352 0.552792 0.703771 0.917465 1.23029 1.69697 2.31512 2.835 2.90139 2.21026 1.33931 1.07679 1.01151 1.00034 1 1 1 1 0.0720155 0.0791482 0.0849426 0.098593 0.118052 0.141495 0.170472 0.205163 0.247027 0.297676 0.360237 0.439086 0.541336 0.679345 0.87133 1.14745 1.56592 2.14328 2.74136 3.0059 2.60781 1.62311 1.13477 1.02976 1.00236 1.00002 1 1 1 1 0.0918909 0.100388 0.107848 0.124922 0.148995 0.177552 0.212697 0.254686 0.30523 0.366895 0.443674 0.541702 0.67159 0.848452 1.10231 1.47008 2.01203 2.63184 2.99905 2.84059 1.92225 1.2423 1.05863 1.0078 1.00017 1 1 1 1 1 0.118702 0.128443 0.137892 0.159089 0.188726 0.223699 0.266773 0.317941 0.380353 0.456579 0.553461 0.67933 0.849463 1.0853 1.42961 1.93066 2.53354 3.00084 3.01482 2.23252 1.37417 1.08881 1.01768 1.00093 1 1 1 1 1 1 0.155668 0.166277 0.178242 0.204227 0.241053 0.284046 0.337681 0.401597 0.480072 0.578003 0.703707 0.871927 1.10308 1.42973 1.8993 2.48748 2.99955 3.05028 2.42113 1.50736 1.13047 1.03195 1.0029 1.00003 1 1 1 1 1 1 0.207722 0.218829 0.233721 0.265392 0.310906 0.364999 0.432957 0.514524 0.616871 0.746244 0.91743 1.14629 1.47122 1.9304 2.48849 2.96185 3.08807 2.55764 1.6547 1.17093 1.04547 1.0059 1.00013 1 1 1 1 1 1 1 0.282469 0.293762 0.311947 0.350389 0.407786 0.476453 0.565794 0.673933 0.81311 0.991887 1.2309 1.56408 2.01213 2.53278 2.99897 3.08947 2.61776 1.70123 1.19888 1.05843 1.00961 1.00035 1 1 1 1 1 1 1 1 0.392298 0.402824 0.425652 0.471715 0.545464 0.636616 0.756286 0.90669 1.10135 1.35999 1.69774 2.14349 2.63235 3.00067 3.04998 2.5567 1.70153 1.22101 1.0642 1.01234 1.00065 1.00001 1 1 1 1 1 1 1 1 0.558751 0.564801 0.596319 0.652919 0.749257 0.874073 1.04099 1.25589 1.53673 1.90039 2.31566 2.74187 3.00025 3.01346 2.42177 1.65447 1.19876 1.06423 1.01385 1.00087 1.00001 1 1 1 1 1 1 1 1 1 0.818531 0.811566 0.858157 0.931693 1.05699 1.23265 1.46938 1.77643 2.12928 2.51068 2.83585 3.00611 2.84135 2.23256 1.50746 1.17102 1.05845 1.01232 1.00087 1.00001 1 1 1 1 1 1 1 1 1 1 1.21898 1.19882 1.26418 1.36041 1.51973 1.75663 2.04207 2.37458 2.68279 2.89405 2.90141 2.6078 1.92245 1.37426 1.13048 1.04545 1.00962 1.00065 1.00001 1 1 1 1 1 1 1 1 1 1 1 1.78152 1.75623 1.83393 1.91686 2.08588 2.3309 2.57644 2.77 2.82281 2.70617 2.21021 1.6228 1.2423 1.0888 1.03196 1.00591 1.00035 1.00001 1 1 1 1 1 1 1 1 1 1 1 1 2.40526 2.35751 2.43945 2.44836 2.52827 2.63514 2.69063 2.64204 2.28456 1.76726 1.33935 1.13468 1.0586 1.01769 1.00289 1.00013 1 1 1 1 1 1 1 1 1 1 1 1 1 1 2.59313 2.52907 2.55157 2.49539 2.46083 2.37131 2.12861 1.73758 1.36502 1.16089 1.07679 1.02975 1.00779 1.00093 1.00003 1 1 1 1 1 1 1 1 1 1 1 1 1 1 1 2.16943 2.12859 2.04886 1.91534 1.71266 1.49572 1.27857 1.14623 1.07734 1.03413 1.01151 1.00236 1.00017 1 1 1 1 1 1 1 1 1 1 1 1 1 1 1 1 1 1.26437 1.25903 1.22267 1.17994 1.12184 1.08581 1.05532 1.02825 1.01107 1.00294 1.00034 1.00002 1 1 1 1 1 1 1 1 1 1 1 1 1 1 1 1 1 1 1.03954 1.04045 1.03815 1.03207 1.02144 1.01357 1.00622 1.00195 1.0003 1.00002 1 1 1 1 1 1 1 1 1 1 1 1 1 1 1 1 1 1 1 1 1.00263 1.00266 1.00242 1.00188 1.00114 1.0004 1.00008 1.00001 1 1 1 1 1 1 1 1 1 1 1 1 1 1 1 1 1 1 1 1 1 1 1.00001 1.00001 1 1 1 1 1 1 1 1 1 1 1 1 1 1 1 1 1 1 1 1 1 1 1 1 1 1 1 1 1 1 1 1 1 1 1 1 1 1 1 1 1 1 1 1 1 1 1 1 1 1 1 1 1 1 1 1 1 1
				</DataArray>
				<DataArray Name="Energy" type="Float32" format="ascii">
 25.1396 23.3741 20.0927 16.2185 12.735 9.94026 7.79079 6.15114 4.88688 3.89668 3.10847 2.47292 1.95567 1.53356 1.18999 0.912862 0.692484 0.52071 0.389995 0.292912 0.221324 0.167266 0.124482 0.085503 0.0445488 0.00710208 0.000116465 2.63366e-06 2.50001e-06 2.5e-06 23.3692 21.7772 18.9308 15.3664 12.0417 9.32792 7.23553 5.65305 4.45175 3.52864 2.80792 2.23683 1.77829 1.40628 1.10269 0.855415 0.655894 0.497796 0.375366 0.282718 0.214294 0.162842 0.12103 0.0823807 0.0422303 0.00650191 0.000109512 2.62859e-06 2.50001e-06 2.5e-06 20.0861 18.9263 16.9092 14.0683 11.2171 8.77035 6.82283 5.32754 4.18616 3.31026 2.62936 2.09305 1.66479 1.31948 1.03923 0.811668 0.628267 0.482403 0.368259 0.279823 0.212269 0.160158 0.118139 0.0786071 0.0379953 0.00481184 7.73828e-05 2.58592e-06 2.50001e-06 2.5e-06 16.2129 15.3603 14.062 11.92 9.63211 7.59365 5.92265 4.62152 3.62243 2.85716 2.26558 1.80332 1.43747 1.14429 0.90795 0.716763 0.562359 0.438264 0.339523 0.26211 0.202348 0.154318 0.114312 0.0750595 0.0338978 0.00346263 4.8925e-05 2.54401e-06 2.5e-06 2.5e-06 12.7312 12.0369 11.2078 9.62571 7.85622 6.24413 4.89416 3.83048 3.00852 2.37738 1.89 1.51002 1.2101 0.970395 0.776942 0.619968 0.492424 0.389158 0.306198 0.239773 0.187418 0.143933 0.10619 0.0675281 0.0262253 0.00185307 2.02083e-05 2.51197e-06 2.5e-06 2.5e-06 9.93826 9.32591 8.763 7.58733 6.24164 5.00566 3.95749 3.12288 2.47182 1.96767 1.57491 1.26662 1.02172 0.824986 0.665621 0.535461 0.429319 0.342866 0.272838 0.216164 0.170492 0.131015 0.0951115 0.0565623 0.0163279 0.00063452 5.68641e-06 2.50133e-06 2.5e-06 2.5e-06 7.78917 7.23446 6.81724 5.91742 4.89125 3.95541 3.1571 2.51692 2.01206 1.61703 1.30585 1.05866 0.860583 0.700209 0.569315 0.461861 0.37336 0.300813 0.241302 0.192753 0.152263 0.116013 0.0809011 0.0415398 0.00650066 0.000128727 2.78909e-06 2.5001e-06 2.5e-06 2.5e-06 6.14986 5.65259 5.32344 4.61733 3.82726 3.11953 2.51483 2.02714 1.63857 1.33083 1.08543 0.888108 0.72771 0.596635 0.488722 0.399254 0.325302 0.263975 0.213243 0.171556 0.134755 0.100601 0.0648752 0.0239989 0.00151819 1.58855e-05 2.5138e-06 2.50001e-06 2.5e-06 2.5e-06 4.88594 4.4517 4.18344 3.61987 3.00595 2.46787 2.00857 1.63679 1.33767 1.09806 0.904502 0.746925 0.617398 0.510006 0.420937 0.346449 0.284232 0.232105 0.188609 0.151566 0.117247 0.083524 0.0455473 0.00875375 0.000221486 3.26095e-06 2.50056e-06 2.5e-06 2.5e-06 2.5e-06 3.89598 3.52883 3.30863 2.85597 2.37621 1.96472 1.6136 1.32833 1.09703 0.909727 0.756562 0.630215 0.525113 0.437158 0.363214 0.300939 0.24866 0.204045 0.166523 0.132519 0.0999183 0.0648646 0.0241578 0.0016383 1.87353e-05 2.52426e-06 2.50002e-06 2.5e-06 2.5e-06 2.5e-06 3.10809 2.80829 2.62859 2.26569 1.89035 1.57364 1.30359 1.08336 0.903204 0.756062 0.634418 0.532873 0.447353 0.374935 0.313722 0.261352 0.216884 0.178741 0.145215 0.113143 0.0801397 0.0416915 0.00712107 0.00017187 3.09217e-06 2.50064e-06 2.5e-06 2.5e-06 2.5e-06 2.5e-06 2.47264 2.23716 2.09258 1.80383 1.51111 1.26677 1.05786 0.886941 0.746016 0.6297 0.532709 0.450917 0.3812 0.321532 0.270569 0.226507 0.188764 0.155725 0.12453 0.0932344 0.0574479 0.0175795 0.000890997 1.00456e-05 2.5133e-06 2.50002e-06 2.5e-06 2.5e-06 2.5e-06 2.5e-06 1.95548 1.77845 1.66443 1.43776 1.21104 1.0224 0.860645 0.727512 0.617042 0.524919 0.447273 0.381208 0.324504 0.275142 0.232503 0.195414 0.163176 0.132829 0.102677 0.0695158 0.0298853 0.00331894 5.68062e-05 2.65378e-06 2.50023e-06 2.5e-06 2.5e-06 2.5e-06 2.5e-06 2.5e-06 1.53341 1.40637 1.31911 1.1443 0.970803 0.825506 0.700475 0.596704 0.510051 0.437159 0.375091 0.321556 0.275282 0.234679 0.198905 0.167519 0.138693 0.10974 0.0787666 0.0407959 0.00752877 0.000223687 3.70527e-06 2.50251e-06 2.50001e-06 2.5e-06 2.5e-06 2.5e-06 2.5e-06 2.5e-06 1.18987 1.10272 1.03897 0.907757 0.777017 0.665758 0.569427 0.488841 0.420969 0.363284 0.313841 0.270719 0.23261 0.19892 0.169259 0.141419 0.114161 0.0844126 0.0489709 0.0127006 0.000626964 8.14145e-06 2.51621e-06 2.50003e-06 2.5e-06 2.5e-06 2.5e-06 2.5e-06 2.5e-06 2.5e-06 0.912774 0.855393 0.811504 0.716646 0.619856 0.535458 0.461715 0.399165 0.346435 0.300896 0.261422 0.226496 0.195545 0.16753 0.141435 0.115357 0.0876016 0.0541984 0.0174597 0.00128144 1.97851e-05 2.56471e-06 2.50016e-06 2.5e-06 2.5e-06 2.5e-06 2.5e-06 2.5e-06 2.5e-06 2.5e-06 0.692411 0.655855 0.628123 0.562276 0.492399 0.429265 0.373353 0.325145 0.284175 0.24853 0.216854 0.188672 0.163202 0.138668 0.114173 0.0875943 0.0559191 0.0199371 0.00192696 3.84278e-05 2.67332e-06 2.50056e-06 2.5e-06 2.5e-06 2.5e-06 2.5e-06 2.5e-06 2.5e-06 2.5e-06 2.5e-06 0.520654 0.497757 0.482315 0.438178 0.38912 0.342874 0.30076 0.263974 0.232056 0.204025 0.178738 0.155719 0.132853 0.109734 0.0844306 0.0541925 0.0199415 0.00223488 5.35644e-05 2.81317e-06 2.50138e-06 2.50001e-06 2.5e-06 2.5e-06 2.5e-06 2.5e-06 2.5e-06 2.5e-06 2.5e-06 2.5e-06 0.389957 0.375334 0.368196 0.339494 0.306122 0.272856 0.241325 0.213245 0.18866 0.166547 0.145212 0.124526 0.102678 0.0787702 0.0489865 0.0174549 0.00192384 5.36337e-05 2.89239e-06 2.50214e-06 2.50001e-06 2.5e-06 2.5e-06 2.5e-06 2.5e-06 2.5e-06 2.5e-06 2.5e-06 2.5e-06 2.5e-06 0.292886 0.282698 0.27978 0.262114 0.239751 0.216129 0.192753 0.171498 0.151564 0.132518 0.113136 0.0932388 0.0695191 0.0408007 0.0127032 0.00128289 3.84452e-05 2.81248e-06 2.50215e-06 2.50001e-06 2.5e-06 2.5e-06 2.5e-06 2.5e-06 2.5e-06 2.5e-06 2.5e-06 2.5e-06 2.5e-06 2.5e-06 0.221306 0.214278 0.212238 0.202345 0.187382 0.170492 0.152255 0.134728 0.117238 0.0999131 0.08014 0.0574533 0.0298877 0.00753152 0.000627232 1.97556e-05 2.67354e-06 2.50138e-06 2.50001e-06 2.5e-06 2.5e-06 2.5e-06 2.5e-06 2.5e-06 2.5e-06 2.5e-06 2.5e-06 2.5e-06 2.5e-06 2.5e-06 0.167254 0.16283 0.160139 0.154324 0.143914 0.131016 0.116004 0.100589 0.0835118 0.064857 0.0416824 0.0175794 0.0033199 0.000223461 8.14458e-06 2.56481e-06 2.50056e-06 2.50001e-06 2.5e-06 2.5e-06 2.5e-06 2.5e-06 2.5e-06 2.5e-06 2.5e-06 2.5e-06 2.5e-06 2.5e-06 2.5e-06 2.5e-06 0.124474 0.121021 0.118126 0.114308 0.106179 0.0951102 0.080895 0.0648738 0.0455372 0.0241521 0.00711678 0.000889672 5.68028e-05 3.70718e-06 2.51619e-06 2.50016e-06 2.5e-06 2.5e-06 2.5e-06 2.5e-06 2.5e-06 2.5e-06 2.5e-06 2.5e-06 2.5e-06 2.5e-06 2.5e-06 2.5e-06 2.5e-06 2.5e-06 0.0854959 0.0823714 0.0785994 0.0750527 0.0675198 0.0565598 0.0415346 0.023996 0.00874951 0.0016376 0.000171738 1.00398e-05 2.65333e-06 2.50251e-06 2.50003e-06 2.5e-06 2.5e-06 2.5e-06 2.5e-06 2.5e-06 2.5e-06 2.5e-06 2.5e-06 2.5e-06 2.5e-06 2.5e-06 2.5e-06 2.5e-06 2.5e-06 2.5e-06 0.0445439 0.0422213 0.0379911 0.0338921 0.0262212 0.0163279 0.0064997 0.00151853 0.000221376 1.87359e-05 3.09069e-06 2.51328e-06 2.50023e-06 2.5e-06 2.5e-06 2.5e-06 2.5e-06 2.5e-06 2.5e-06 2.5e-06 2.5e-06 2.5e-06 2.5e-06 2.5e-06 2.5e-06 2.5e-06 2.5e-06 2.5e-06 2.5e-06 2.5e-06 0.00710052 0.00649871 0.00481 0.00346162 0.00185238 0.000634501 0.000128654 1.58874e-05 3.25972e-06 2.52424e-06 2.50064e-06 2.50002e-06 2.5e-06 2.5e-06 2.5e-06 2.5e-06 2.5e-06 2.5e-06 2.5e-06 2.5e-06 2.5e-06 2.5e-06 2.5e-06 2.5e-06 2.5e-06 2.5e-06 2.5e-06 2.5e-06 2.5e-06 2.5e-06 0.000116432 0.000109445 7.73361e-05 4.89056e-05 2.0203e-05 5.68629e-06 2.78863e-06 2.51378e-06 2.50056e-06 2.50002e-06 2.5e-06 2.5e-06 2.5e-06 2.5e-06 2.5e-06 2.5e-06 2.5e-06 2.5e-06 2.5e-06 2.5e-06 2.5e-06 2.5e-06 2.5e-06 2.5e-06 2.5e-06 2.5e-06 2.5e-06 2.5e-06 2.5e-06 2.5e-06 2.63361e-06 2.62849e-06 2.58584e-06 2.54398e-06 2.51196e-06 2.50133e-06 2.5001e-06 2.50001e-06 2.5e-06 2.5e-06 2.5e-06 2.5e-06 2.5e-06 2.5e-06 2.5e-06 2.5e-06 2.5e-06 2.5e-06 2.5e-06 2.5e-06 2.5e-06 2.5e-06 2.5e-06 2.5e-06 2.5e-06 2.5e-06 2.5e-06 2.5e-06 2.5e-06 2.5e-06 2.50001e-06 2.50001e-06 2.50001e-06 2.5e-06 2.5e-06 2.5e-06 2.5e-06 2.5e-06 2.5e-06 2.5e-06 2.5e-06 2.5e-06 2.5e-06 2.5e-06 2.5e-06 2.5e-06 2.5e-06 2.5e-06 2.5e-06 2.5e-06 2.5e-06 2.5e-06 2.5e-06 2.5e-06 2.5e-06 2.5e-06 2.5e-06 2.5e-06 2.5e-06 2.5e-06 2.5e-06 2.5e-06 2.5e-06 2.5e-06 2.5e-06 2.5e-06 2.5e-06 2.5e-06 2.5e-06 2.5e-06 2.5e-06 2.5e-06 2.5e-06 2.5e-06 2.5e-06 2.5e-06 2.5e-06 2.5e-06 2.5e-06 2.5e-06 2.5e-06 2.5e-06 2.5e-06 2.5e-06 2.5e-06 2.5e-06 2.5e-06 2.5e-06 2.5e-06 2.5e-06
				</DataArray>
				<DataArray Name="F1" type="Float32" format="ascii">
 1 1 1 1 1 1 1 1 1 1 1 1 1 1 1 1 1 1 1 1 1 1 1 1 1 1 1 1 1 1 1 1 1 1 1 1 1 1 1 1 1 1 1 1 1 1 1 1 1 1 1 1 1 1 1 1 1 1 1 1 1 1 1 1 1 1 1 1 1 1 1 1 1 1 1 1 1 1 1 1 1 1 1 1 1 1 1 1 1 1 1 1 1 1 1 1 1 1 1 1 1 1 1 1 1 1 1 1 1 1 1 1 1 1 1 1 1 1 1 1 1 1 1 1 1 1 1 1 1 1 1 1 1 1 1 1 1 1 1 1 1 1 1 1 1 1 1 1 1 1 1 1 1 1 1 1 1 1 1 1 1 1 1 1 1 1 1 1 1 1 1 1 1 1 1 1 1 1 1 1 1 1 1 1 1 1 1 1 1 1 1 1 1 1 1 1 1 1 1 1 1 1 1 1 1 1 1 1 1 1 1 1 1 1 1 1 1 1 1 1 1 1 1 1 1 1 1 1 1 1 1 1 1 1 1 1 1 1 1 1 1 1 1 1 1 1 1 1 1 1 1 1 1 1 1 1 1 1 1 1 1 1 1 1 1 1 1 1 1 1 1 1 1 1 1 1 1 1 1 1 1 1 1 1 1 1 1 1 1 1 1 1 1 1 1 1 1 1 1 1 1 1 1 1 1 1 1 1 1 1 1 1 1 1 1 1 1 1 1 1 1 1 1 1 1 1 1 1 1 1 1 1 1 1 1 1 1 1 1 1 1 1 1 1 1 1 1 1 1 1 1 1 1 1 1 1 1 1 1 1 1 1 1 1 1 1 1 1 1 1 1 1 1 1 1 1 1 1 1 1 1 1 1 1 1 1 1 1 1 1 1 1 1 1 1 1 1 1 1 1 1 1 1 1 1 1 1 1 1 1 1 1 1 1 1 1 1 1 1 1 1 1 1 1 1 1 1 1 1 1 1 1 1 1 1 1 1 1 1 1 1 1 1 1 1 1 1 1 1 1 1 1 1 1 1 1 1 1 1 1 1 1 1 1 1 1 1 1 1 1 1 1 1 1 1 1 1 1 1 1 1 1 1 1 1 1 1 1 1 1 1 1 1 1 1 1 1 1 1 1 1 1 1 1 1 1 1 1 1 1 1 1 1 1 1 1 1 1 1 1 1 1 1 1 1 1 1 1 1 1 1 1 1 1 1 1 1 1 1 1 1 1 1 1 1 1 1 1 1 1 1 1 1 1 1 1 1 1 1 1 1 1 1 1 1 1 1 1 1 1 1 1 1 1 1 1 1 1 1 1 1 1 1 1 1 1 1 1 1 1 1 1 1 1 1 1 1 1 1 1 1 1 1 1 1 1 1 1 1 1 1 1 1 1 1 1 1 1 1 1 1 1 1 1 1 1 1 1 1 1 1 1 1 1 1 1 1 1 1 1 1 1 1 1 1 1 1 1 1 1 1 1 1 1 1 1 1 1 1 1 1 1 1 1 1 1 1 1 1 1 1 1 1 1 1 1 1 1 1 1 1 1 1 1 1 1 1 1 1 1 1 1 1 1 1 1 1 1 1 1 1 1 1 1 1 1 1 1 1 1 1 1 1 1 1 1 1 1 1 1 1 1 1 1 1 1 1 1 1 1 1 1 1 1 1 1 1 1 1 1 1 1 1 1 1 1 1 1 1 1 1 1 1 1 1 1 1 1 1 1 1 1 1 1 1 1 1 1 1 1 1 1 1 1 1 1 1 1 1 1 1 1 1 1 1 1 1 1 1 1 1 1 1 1 1 1 1 1 1 1 1 1 1 1 1 1 1 1 1 1 1 1 1 1 1 1 1 1 1 1 1 1 1 1 1 1 1 1 1 1 1 1 1 1 1 1 1 1 1 1 1 1 1 1 1 1 1 1 1 1 1 1 1 1 1 1 1 1 1 1 1 1 1 1 1 1 1 1 1 1 1 1 1 1 1 1 1 1 1 1 1 1 1 1 1 1 1 1 1 1 1 1 1 1 1 1 1 1 1 1
				</DataArray>
				<DataArray Name="F2" type="Float32" format="ascii">
 0 0 0 0 0 0 0 0 0 0 0 0 0 0 0 0 0 0 0 0 0 0 0 0 0 0 0 0 0 0 0 0 0 0 0 0 0 0 0 0 0 0 0 0 0 0 0 0 0 0 0 0 0 0 0 0 0 0 0 0 0 0 0 0 0 0 0 0 0 0 0 0 0 0 0 0 0 0 0 0 0 0 0 0 0 0 0 0 0 0 0 0 0 0 0 0 0 0 0 0 0 0 0 0 0 0 0 0 0 0 0 0 0 0 0 0 0 0 0 0 0 0 0 0 0 0 0 0 0 0 0 0 0 0 0 0 0 0 0 0 0 0 0 0 0 0 0 0 0 0 0 0 0 0 0 0 0 0 0 0 0 0 0 0 0 0 0 0 0 0 0 0 0 0 0 0 0 0 0 0 0 0 0 0 0 0 0 0 0 0 0 0 0 0 0 0 0 0 0 0 0 0 0 0 0 0 0 0 0 0 0 0 0 0 0 0 0 0 0 0 0 0 0 0 0 0 0 0 0 0 0 0 0 0 0 0 0 0 0 0 0 0 0 0 0 0 0 0 0 0 0 0 0 0 0 0 0 0 0 0 0 0 0 0 0 0 0 0 0 0 0 0 0 0 0 0 0 0 0 0 0 0 0 0 0 0 0 0 0 0 0 0 0 0 0 0 0 0 0 0 0 0 0 0 0 0 0 0 0 0 0 0 0 0 0 0 0 0 0 0 0 0 0 0 0 0 0 0 0 0 0 0 0 0 0 0 0 0 0 0 0 0 0 0 0 0 0 0 0 0 0 0 0 0 0 0 0 0 0 0 0 0 0 0 0 0 0 0 0 0 0 0 0 0 0 0 0 0 0 0 0 0 0 0 0 0 0 0 0 0 0 0 0 0 0 0 0 0 0 0 0 0 0 0 0 0 0 0 0 0 0 0 0 0 0 0 0 0 0 0 0 0 0 0 0 0 0 0 0 0 0 0 0 0 0 0 0 0 0 0 0 0 0 0 0 0 0 0 0 0 0 0 0 0 0 0 0 0 0 0 0 0 0 0 0 0 0 0 0 0 0 0 0 0 0 0 0 0 0 0 0 0 0 0 0 0 0 0 0 0 0 0 0 0 0 0 0 0 0 0 0 0 0 0 0 0 0 0 0 0 0 0 0 0 0 0 0 0 0 0 0 0 0 0 0 0 0 0 0 0 0 0 0 0 0 0 0 0 0 0 0 0 0 0 0 0 0 0 0 0 0 0 0 0 0 0 0 0 0 0 0 0 0 0 0 0 0 0 0 0 0 0 0 0 0 0 0 0 0 0 0 0 0 0 0 0 0 0 0 0 0 0 0 0 0 0 0 0 0 0 0 0 0 0 0 0 0 0 0 0 0 0 0 0 0 0 0 0 0 0 0 0 0 0 0 0 0 0 0 0 0 0 0 0 0 0 0 0 0 0 0 0 0 0 0 0 0 0 0 0 0 0 0 0 0 0 0 0 0 0 0 0 0 0 0 0 0 0 0 0 0 0 0 0 0 0 0 0 0 0 0 0 0 0 0 0 0 0 0 0 0 0 0 0 0 0 0 0 0 0 0 0 0 0 0 0 0 0 0 0 0 0 0 0 0 0 0 0 0 0 0 0 0 0 0 0 0 0 0 0 0 0 0 0 0 0 0 0 0 0 0 0 0 0 0 0 0 0 0 0 0 0 0 0 0 0 0 0 0 0 0 0 0 0 0 0 0 0 0 0 0 0 0 0 0 0 0 0 0 0 0 0 0 0 0 0 0 0 0 0 0 0 0 0 0 0 0 0 0 0 0 0 0 0 0 0 0 0 0 0 0 0 0 0 0 0 0 0 0 0 0 0 0 0 0 0 0 0 0 0 0 0 0 0 0 0 0 0 0 0 0 0 0 0 0 0 0 0 0 0 0 0 0 0 0 0 0 0 0 0 0 0 0 0 0 0 0 0 0 0 0 0 0 0 0 0 0 0 0 0 0 0 0 0 0 0 0 0 0 0 0 0 0 0 0 0 0 0 0 0
				</DataArray>
				<DataArray Name="F3" type="Float32" format="ascii">
 0 0 0 0 0 0 0 0 0 0 0 0 0 0 0 0 0 0 0 0 0 0 0 0 0 0 0 0 0 0 0 0 0 0 0 0 0 0 0 0 0 0 0 0 0 0 0 0 0 0 0 0 0 0 0 0 0 0 0 0 0 0 0 0 0 0 0 0 0 0 0 0 0 0 0 0 0 0 0 0 0 0 0 0 0 0 0 0 0 0 0 0 0 0 0 0 0 0 0 0 0 0 0 0 0 0 0 0 0 0 0 0 0 0 0 0 0 0 0 0 0 0 0 0 0 0 0 0 0 0 0 0 0 0 0 0 0 0 0 0 0 0 0 0 0 0 0 0 0 0 0 0 0 0 0 0 0 0 0 0 0 0 0 0 0 0 0 0 0 0 0 0 0 0 0 0 0 0 0 0 0 0 0 0 0 0 0 0 0 0 0 0 0 0 0 0 0 0 0 0 0 0 0 0 0 0 0 0 0 0 0 0 0 0 0 0 0 0 0 0 0 0 0 0 0 0 0 0 0 0 0 0 0 0 0 0 0 0 0 0 0 0 0 0 0 0 0 0 0 0 0 0 0 0 0 0 0 0 0 0 0 0 0 0 0 0 0 0 0 0 0 0 0 0 0 0 0 0 0 0 0 0 0 0 0 0 0 0 0 0 0 0 0 0 0 0 0 0 0 0 0 0 0 0 0 0 0 0 0 0 0 0 0 0 0 0 0 0 0 0 0 0 0 0 0 0 0 0 0 0 0 0 0 0 0 0 0 0 0 0 0 0 0 0 0 0 0 0 0 0 0 0 0 0 0 0 0 0 0 0 0 0 0 0 0 0 0 0 0 0 0 0 0 0 0 0 0 0 0 0 0 0 0 0 0 0 0 0 0 0 0 0 0 0 0 0 0 0 0 0 0 0 0 0 0 0 0 0 0 0 0 0 0 0 0 0 0 0 0 0 0 0 0 0 0 0 0 0 0 0 0 0 0 0 0 0 0 0 0 0 0 0 0 0 0 0 0 0 0 0 0 0 0 0 0 0 0 0 0 0 0 0 0 0 0 0 0 0 0 0 0 0 0 0 0 0 0 0 0 0 0 0 0 0 0 0 0 0 0 0 0 0 0 0 0 0 0 0 0 0 0 0 0 0 0 0 0 0 0 0 0 0 0 0 0 0 0 0 0 0 0 0 0 0 0 0 0 0 0 0 0 0 0 0 0 0 0 0 0 0 0 0 0 0 0 0 0 0 0 0 0 0 0 0 0 0 0 0 0 0 0 0 0 0 0 0 0 0 0 0 0 0 0 0 0 0 0 0 0 0 0 0 0 0 0 0 0 0 0 0 0 0 0 0 0 0 0 0 0 0 0 0 0 0 0 0 0 0 0 0 0 0 0 0 0 0 0 0 0 0 0 0 0 0 0 0 0 0 0 0 0 0 0 0 0 0 0 0 0 0 0 0 0 0 0 0 0 0 0 0 0 0 0 0 0 0 0 0 0 0 0 0 0 0 0 0 0 0 0 0 0 0 0 0 0 0 0 0 0 0 0 0 0 0 0 0 0 0 0 0 0 0 0 0 0 0 0 0 0 0 0 0 0 0 0 0 0 0 0 0 0 0 0 0 0 0 0 0 0 0 0 0 0 0 0 0 0 0 0 0 0 0 0 0 0 0 0 0 0 0 0 0 0 0 0 0 0 0 0 0 0 0 0 0 0 0 0 0 0 0 0 0 0 0 0 0 0 0 0 0 0 0 0 0 0 0 0 0 0 0 0 0 0 0 0 0 0 0 0 0 0 0 0 0 0 0 0 0 0 0 0 0 0 0 0 0 0 0 0 0 0 0 0 0 0 0 0 0 0 0 0 0 0 0 0 0 0 0 0 0 0 0 0 0 0 0 0 0 0 0 0 0 0 0 0 0 0 0 0 0 0 0 0 0 0 0 0 0 0 0 0 0 0 0 0 0 0 0 0 0 0 0 0 0 0 0 0 0 0 0 0 0 0 0 0 0 0 0 0 0 0 0 0 0 0 0 0 0 0 0
				</DataArray>
				<DataArray Name="Pressure" type="Float32" format="ascii">