<?xml version="1.0"?>
<VTKFile type="PolyData">
	<PolyData>
		<Piece NumberOfPoints="961" NumberOfPolys="900">
			<Points>
				<DataArray type="Float32" NumberOfComponents="3" format="ascii">
 0 0 0 0.04 0 0 0.08 0 0 0.12 0 0 0.16 0 0 0.2 0 0 0.24 0 0 0.28 0 0 0.32 0 0 0.36 0 0 0.4 0 0 0.44 0 0 0.48 0 0 0.52 0 0 0.56 0 0 0.6 0 0 0.64 0 0 0.68 0 0 0.72 0 0 0.76 0 0 0.8 0 0 0.84 0 0 0.88 0 0 0.92 0 0 0.96 0 0 1 0 0 1.04 0 0 1.08 0 0 1.12 0 0 1.16 0 0 1.2 0 0 0 0.04 0 0.04 0.04 0 0.08 0.04 0 0.12 0.04 0 0.16 0.04 0 0.2 0.04 0 0.24 0.04 0 0.28 0.04 0 0.32 0.04 0 0.36 0.04 0 0.4 0.04 0 0.44 0.04 0 0.48 0.04 0 0.52 0.04 0 0.56 0.04 0 0.6 0.04 0 0.64 0.04 0 0.68 0.04 0 0.72 0.04 0 0.76 0.04 0 0.8 0.04 0 0.84 0.04 0 0.88 0.04 0 0.92 0.04 0 0.96 0.04 0 1 0.04 0 1.04 0.04 0 1.08 0.04 0 1.12 0.04 0 1.16 0.04 0 1.2 0.04 0 0 0.08 0 0.04 0.08 0 0.08 0.08 0 0.12 0.08 0 0.16 0.08 0 0.2 0.08 0 0.24 0.08 0 0.28 0.08 0 0.32 0.08 0 0.36 0.08 0 0.4 0.08 0 0.44 0.08 0 0.48 0.08 0 0.52 0.08 0 0.56 0.08 0 0.6 0.08 0 0.64 0.08 0 0.68 0.08 0 0.72 0.08 0 0.76 0.08 0 0.8 0.08 0 0.84 0.08 0 0.88 0.08 0 0.92 0.08 0 0.96 0.08 0 1 0.08 0 1.04 0.08 0 1.08 0.08 0 1.12 0.08 0 1.16 0.08 0 1.2 0.08 0 0 0.12 0 0.04 0.12 0 0.08 0.12 0 0.12 0.12 0 0.16 0.12 0 0.2 0.12 0 0.24 0.12 0 0.28 0.12 0 0.32 0.12 0 0.36 0.12 0 0.4 0.12 0 0.44 0.12 0 0.48 0.12 0 0.52 0.12 0 0.56 0.12 0 0.6 0.12 0 0.64 0.12 0 0.68 0.12 0 0.72 0.12 0 0.76 0.12 0 0.8 0.12 0 0.84 0.12 0 0.88 0.12 0 0.92 0.12 0 0.96 0.12 0 1 0.12 0 1.04 0.12 0 1.08 0.12 0 1.12 0.12 0 1.16 0.12 0 1.2 0.12 0 0 0.16 0 0.04 0.16 0 0.08 0.16 0 0.12 0.16 0 0.16 0.16 0 0.2 0.16 0 0.24 0.16 0 0.28 0.16 0 0.32 0.16 0 0.36 0.16 0 0.4 0.16 0 0.44 0.16 0 0.48 0.16 0 0.52 0.16 0 0.56 0.16 0 0.6 0.16 0 0.64 0.16 0 0.68 0.16 0 0.72 0.16 0 0.76 0.16 0 0.8 0.16 0 0.84 0.16 0 0.88 0.16 0 0.92 0.16 0 0.96 0.16 0 1 0.16 0 1.04 0.16 0 1.08 0.16 0 1.12 0.16 0 1.16 0.16 0 1.2 0.16 0 0 0.2 0 0.04 0.2 0 0.08 0.2 0 0.12 0.2 0 0.16 0.2 0 0.2 0.2 0 0.24 0.2 0 0.28 0.2 0 0.32 0.2 0 0.36 0.2 0 0.4 0.2 0 0.44 0.2 0 0.48 0.2 0 0.52 0.2 0 0.56 0.2 0 0.6 0.2 0 0.64 0.2 0 0.68 0.2 0 0.72 0.2 0 0.76 0.2 0 0.8 0.2 0 0.84 0.2 0 0.88 0.2 0 0.92 0.2 0 0.96 0.2 0 1 0.2 0 1.04 0.2 0 1.08 0.2 0 1.12 0.2 0 1.16 0.2 0 1.2 0.2 0 0 0.24 0 0.04 0.24 0 0.08 0.24 0 0.12 0.24 0 0.16 0.24 0 0.2 0.24 0 0.24 0.24 0 0.28 0.24 0 0.32 0.24 0 0.36 0.24 0 0.4 0.24 0 0.44 0.24 0 0.48 0.24 0 0.52 0.24 0 0.56 0.24 0 0.6 0.24 0 0.64 0.24 0 0.68 0.24 0 0.72 0.24 0 0.76 0.24 0 0.8 0.24 0 0.84 0.24 0 0.88 0.24 0 0.92 0.24 0 0.96 0.24 0 1 0.24 0 1.04 0.24 0 1.08 0.24 0 1.12 0.24 0 1.16 0.24 0 1.2 0.24 0 0 0.28 0 0.04 0.28 0 0.08 0.28 0 0.12 0.28 0 0.16 0.28 0 0.2 0.28 0 0.24 0.28 0 0.28 0.28 0 0.32 0.28 0 0.36 0.28 0 0.4 0.28 0 0.44 0.28 0 0.48 0.28 0 0.52 0.28 0 0.56 0.28 0 0.6 0.28 0 0.64 0.28 0 0.68 0.28 0 0.72 0.28 0 0.76 0.28 0 0.8 0.28 0 0.84 0.28 0 0.88 0.28 0 0.92 0.28 0 0.96 0.28 0 1 0.28 0 1.04 0.28 0 1.08 0.28 0 1.12 0.28 0 1.16 0.28 0 1.2 0.28 0 0 0.32 0 0.04 0.32 0 0.08 0.32 0 0.12 0.32 0 0.16 0.32 0 0.2 0.32 0 0.24 0.32 0 0.28 0.32 0 0.32 0.32 0 0.36 0.32 0 0.4 0.32 0 0.44 0.32 0 0.48 0.32 0 0.52 0.32 0 0.56 0.32 0 0.6 0.32 0 0.64 0.32 0 0.68 0.32 0 0.72 0.32 0 0.76 0.32 0 0.8 0.32 0 0.84 0.32 0 0.88 0.32 0 0.92 0.32 0 0.96 0.32 0 1 0.32 0 1.04 0.32 0 1.08 0.32 0 1.12 0.32 0 1.16 0.32 0 1.2 0.32 0 0 0.36 0 0.04 0.36 0 0.08 0.36 0 0.12 0.36 0 0.16 0.36 0 0.2 0.36 0 0.24 0.36 0 0.28 0.36 0 0.32 0.36 0 0.36 0.36 0 0.4 0.36 0 0.44 0.36 0 0.48 0.36 0 0.52 0.36 0 0.56 0.36 0 0.6 0.36 0 0.64 0.36 0 0.68 0.36 0 0.72 0.36 0 0.76 0.36 0 0.8 0.36 0 0.84 0.36 0 0.88 0.36 0 0.92 0.36 0 0.96 0.36 0 1 0.36 0 1.04 0.36 0 1.08 0.36 0 1.12 0.36 0 1.16 0.36 0 1.2 0.36 0 0 0.4 0 0.04 0.4 0 0.08 0.4 0 0.12 0.4 0 0.16 0.4 0 0.2 0.4 0 0.24 0.4 0 0.28 0.4 0 0.32 0.4 0 0.36 0.4 0 0.4 0.4 0 0.44 0.4 0 0.48 0.4 0 0.52 0.4 0 0.56 0.4 0 0.6 0.4 0 0.64 0.4 0 0.68 0.4 0 0.72 0.4 0 0.76 0.4 0 0.8 0.4 0 0.84 0.4 0 0.88 0.4 0 0.92 0.4 0 0.96 0.4 0 1 0.4 0 1.04 0.4 0 1.08 0.4 0 1.12 0.4 0 1.16 0.4 0 1.2 0.4 0 0 0.44 0 0.04 0.44 0 0.08 0.44 0 0.12 0.44 0 0.16 0.44 0 0.2 0.44 0 0.24 0.44 0 0.28 0.44 0 0.32 0.44 0 0.36 0.44 0 0.4 0.44 0 0.44 0.44 0 0.48 0.44 0 0.52 0.44 0 0.56 0.44 0 0.6 0.44 0 0.64 0.44 0 0.68 0.44 0 0.72 0.44 0 0.76 0.44 0 0.8 0.44 0 0.84 0.44 0 0.88 0.44 0 0.92 0.44 0 0.96 0.44 0 1 0.44 0 1.04 0.44 0 1.08 0.44 0 1.12 0.44 0 1.16 0.44 0 1.2 0.44 0 0 0.48 0 0.04 0.48 0 0.08 0.48 0 0.12 0.48 0 0.16 0.48 0 0.2 0.48 0 0.24 0.48 0 0.28 0.48 0 0.32 0.48 0 0.36 0.48 0 0.4 0.48 0 0.44 0.48 0 0.48 0.48 0 0.52 0.48 0 0.56 0.48 0 0.6 0.48 0 0.64 0.48 0 0.68 0.48 0 0.72 0.48 0 0.76 0.48 0 0.8 0.48 0 0.84 0.48 0 0.88 0.48 0 0.92 0.48 0 0.96 0.48 0 1 0.48 0 1.04 0.48 0 1.08 0.48 0 1.12 0.48 0 1.16 0.48 0 1.2 0.48 0 0 0.52 0 0.04 0.52 0 0.08 0.52 0 0.12 0.52 0 0.16 0.52 0 0.2 0.52 0 0.24 0.52 0 0.28 0.52 0 0.32 0.52 0 0.36 0.52 0 0.4 0.52 0 0.44 0.52 0 0.48 0.52 0 0.52 0.52 0 0.56 0.52 0 0.6 0.52 0 0.64 0.52 0 0.68 0.52 0 0.72 0.52 0 0.76 0.52 0 0.8 0.52 0 0.84 0.52 0 0.88 0.52 0 0.92 0.52 0 0.96 0.52 0 1 0.52 0 1.04 0.52 0 1.08 0.52 0 1.12 0.52 0 1.16 0.52 0 1.2 0.52 0 0 0.56 0 0.04 0.56 0 0.08 0.56 0 0.12 0.56 0 0.16 0.56 0 0.2 0.56 0 0.24 0.56 0 0.28 0.56 0 0.32 0.56 0 0.36 0.56 0 0.4 0.56 0 0.44 0.56 0 0.48 0.56 0 0.52 0.56 0 0.56 0.56 0 0.6 0.56 0 0.64 0.56 0 0.68 0.56 0 0.72 0.56 0 0.76 0.56 0 0.8 0.56 0 0.84 0.56 0 0.88 0.56 0 0.92 0.56 0 0.96 0.56 0 1 0.56 0 1.04 0.56 0 1.08 0.56 0 1.12 0.56 0 1.16 0.56 0 1.2 0.56 0 0 0.6 0 0.04 0.6 0 0.08 0.6 0 0.12 0.6 0 0.16 0.6 0 0.2 0.6 0 0.24 0.6 0 0.28 0.6 0 0.32 0.6 0 0.36 0.6 0 0.4 0.6 0 0.44 0.6 0 0.48 0.6 0 0.52 0.6 0 0.56 0.6 0 0.6 0.6 0 0.64 0.6 0 0.68 0.6 0 0.72 0.6 0 0.76 0.6 0 0.8 0.6 0 0.84 0.6 0 0.88 0.6 0 0.92 0.6 0 0.96 0.6 0 1 0.6 0 1.04 0.6 0 1.08 0.6 0 1.12 0.6 0 1.16 0.6 0 1.2 0.6 0 0 0.64 0 0.04 0.64 0 0.08 0.64 0 0.12 0.64 0 0.16 0.64 0 0.2 0.64 0 0.24 0.64 0 0.28 0.64 0 0.32 0.64 0 0.36 0.64 0 0.4 0.64 0 0.44 0.64 0 0.48 0.64 0 0.52 0.64 0 0.56 0.64 0 0.6 0.64 0 0.64 0.64 0 0.68 0.64 0 0.72 0.64 0 0.76 0.64 0 0.8 0.64 0 0.84 0.64 0 0.88 0.64 0 0.92 0.64 0 0.96 0.64 0 1 0.64 0 1.04 0.64 0 1.08 0.64 0 1.12 0.64 0 1.16 0.64 0 1.2 0.64 0 0 0.68 0 0.04 0.68 0 0.08 0.68 0 0.12 0.68 0 0.16 0.68 0 0.2 0.68 0 0.24 0.68 0 0.28 0.68 0 0.32 0.68 0 0.36 0.68 0 0.4 0.68 0 0.44 0.68 0 0.48 0.68 0 0.52 0.68 0 0.56 0.68 0 0.6 0.68 0 0.64 0.68 0 0.68 0.68 0 0.72 0.68 0 0.76 0.68 0 0.8 0.68 0 0.84 0.68 0 0.88 0.68 0 0.92 0.68 0 0.96 0.68 0 1 0.68 0 1.04 0.68 0 1.08 0.68 0 1.12 0.68 0 1.16 0.68 0 1.2 0.68 0 0 0.72 0 0.04 0.72 0 0.08 0.72 0 0.12 0.72 0 0.16 0.72 0 0.2 0.72 0 0.24 0.72 0 0.28 0.72 0 0.32 0.72 0 0.36 0.72 0 0.4 0.72 0 0.44 0.72 0 0.48 0.72 0 0.52 0.72 0 0.56 0.72 0 0.6 0.72 0 0.64 0.72 0 0.68 0.72 0 0.72 0.72 0 0.76 0.72 0 0.8 0.72 0 0.84 0.72 0 0.88 0.72 0 0.92 0.72 0 0.96 0.72 0 1 0.72 0 1.04 0.72 0 1.08 0.72 0 1.12 0.72 0 1.16 0.72 0 1.2 0.72 0 0 0.76 0 0.04 0.76 0 0.08 0.76 0 0.12 0.76 0 0.16 0.76 0 0.2 0.76 0 0.24 0.76 0 0.28 0.76 0 0.32 0.76 0 0.36 0.76 0 0.4 0.76 0 0.44 0.76 0 0.48 0.76 0 0.52 0.76 0 0.56 0.76 0 0.6 0.76 0 0.64 0.76 0 0.68 0.76 0 0.72 0.76 0 0.76 0.76 0 0.8 0.76 0 0.84 0.76 0 0.88 0.76 0 0.92 0.76 0 0.96 0.76 0 1 0.76 0 1.04 0.76 0 1.08 0.76 0 1.12 0.76 0 1.16 0.76 0 1.2 0.76 0 0 0.8 0 0.04 0.8 0 0.08 0.8 0 0.12 0.8 0 0.16 0.8 0 0.2 0.8 0 0.24 0.8 0 0.28 0.8 0 0.32 0.8 0 0.36 0.8 0 0.4 0.8 0 0.44 0.8 0 0.48 0.8 0 0.52 0.8 0 0.56 0.8 0 0.6 0.8 0 0.64 0.8 0 0.68 0.8 0 0.72 0.8 0 0.76 0.8 0 0.8 0.8 0 0.84 0.8 0 0.88 0.8 0 0.92 0.8 0 0.96 0.8 0 1 0.8 0 1.04 0.8 0 1.08 0.8 0 1.12 0.8 0 1.16 0.8 0 1.2 0.8 0 0 0.84 0 0.04 0.84 0 0.08 0.84 0 0.12 0.84 0 0.16 0.84 0 0.2 0.84 0 0.24 0.84 0 0.28 0.84 0 0.32 0.84 0 0.36 0.84 0 0.4 0.84 0 0.44 0.84 0 0.48 0.84 0 0.52 0.84 0 0.56 0.84 0 0.6 0.84 0 0.64 0.84 0 0.68 0.84 0 0.72 0.84 0 0.76 0.84 0 0.8 0.84 0 0.84 0.84 0 0.88 0.84 0 0.92 0.84 0 0.96 0.84 0 1 0.84 0 1.04 0.84 0 1.08 0.84 0 1.12 0.84 0 1.16 0.84 0 1.2 0.84 0 0 0.88 0 0.04 0.88 0 0.08 0.88 0 0.12 0.88 0 0.16 0.88 0 0.2 0.88 0 0.24 0.88 0 0.28 0.88 0 0.32 0.88 0 0.36 0.88 0 0.4 0.88 0 0.44 0.88 0 0.48 0.88 0 0.52 0.88 0 0.56 0.88 0 0.6 0.88 0 0.64 0.88 0 0.68 0.88 0 0.72 0.88 0 0.76 0.88 0 0.8 0.88 0 0.84 0.88 0 0.88 0.88 0 0.92 0.88 0 0.96 0.88 0 1 0.88 0 1.04 0.88 0 1.08 0.88 0 1.12 0.88 0 1.16 0.88 0 1.2 0.88 0 0 0.92 0 0.04 0.92 0 0.08 0.92 0 0.12 0.92 0 0.16 0.92 0 0.2 0.92 0 0.24 0.92 0 0.28 0.92 0 0.32 0.92 0 0.36 0.92 0 0.4 0.92 0 0.44 0.92 0 0.48 0.92 0 0.52 0.92 0 0.56 0.92 0 0.6 0.92 0 0.64 0.92 0 0.68 0.92 0 0.72 0.92 0 0.76 0.92 0 0.8 0.92 0 0.84 0.92 0 0.88 0.92 0 0.92 0.92 0 0.96 0.92 0 1 0.92 0 1.04 0.92 0 1.08 0.92 0 1.12 0.92 0 1.16 0.92 0 1.2 0.92 0 0 0.96 0 0.04 0.96 0 0.08 0.96 0 0.12 0.96 0 0.16 0.96 0 0.2 0.96 0 0.24 0.96 0 0.28 0.96 0 0.32 0.96 0 0.36 0.96 0 0.4 0.96 0 0.44 0.96 0 0.48 0.96 0 0.52 0.96 0 0.56 0.96 0 0.6 0.96 0 0.64 0.96 0 0.68 0.96 0 0.72 0.96 0 0.76 0.96 0 0.8 0.96 0 0.84 0.96 0 0.88 0.96 0 0.92 0.96 0 0.96 0.96 0 1 0.96 0 1.04 0.96 0 1.08 0.96 0 1.12 0.96 0 1.16 0.96 0 1.2 0.96 0 0 1 0 0.04 1 0 0.08 1 0 0.12 1 0 0.16 1 0 0.2 1 0 0.24 1 0 0.28 1 0 0.32 1 0 0.36 1 0 0.4 1 0 0.44 1 0 0.48 1 0 0.52 1 0 0.56 1 0 0.6 1 0 0.64 1 0 0.68 1 0 0.72 1 0 0.76 1 0 0.8 1 0 0.84 1 0 0.88 1 0 0.92 1 0 0.96 1 0 1 1 0 1.04 1 0 1.08 1 0 1.12 1 0 1.16 1 0 1.2 1 0 0 1.04 0 0.04 1.04 0 0.08 1.04 0 0.12 1.04 0 0.16 1.04 0 0.2 1.04 0 0.24 1.04 0 0.28 1.04 0 0.32 1.04 0 0.36 1.04 0 0.4 1.04 0 0.44 1.04 0 0.48 1.04 0 0.52 1.04 0 0.56 1.04 0 0.6 1.04 0 0.64 1.04 0 0.68 1.04 0 0.72 1.04 0 0.76 1.04 0 0.8 1.04 0 0.84 1.04 0 0.88 1.04 0 0.92 1.04 0 0.96 1.04 0 1 1.04 0 1.04 1.04 0 1.08 1.04 0 1.12 1.04 0 1.16 1.04 0 1.2 1.04 0 0 1.08 0 0.04 1.08 0 0.08 1.08 0 0.12 1.08 0 0.16 1.08 0 0.2 1.08 0 0.24 1.08 0 0.28 1.08 0 0.32 1.08 0 0.36 1.08 0 0.4 1.08 0 0.44 1.08 0 0.48 1.08 0 0.52 1.08 0 0.56 1.08 0 0.6 1.08 0 0.64 1.08 0 0.68 1.08 0 0.72 1.08 0 0.76 1.08 0 0.8 1.08 0 0.84 1.08 0 0.88 1.08 0 0.92 1.08 0 0.96 1.08 0 1 1.08 0 1.04 1.08 0 1.08 1.08 0 1.12 1.08 0 1.16 1.08 0 1.2 1.08 0 0 1.12 0 
[...]
			<CellData Scalars="Density">
				<DataArray Name="Density" type="Float32" format="ascii">
 0.0063761 0.00763431 0.011987 0.0202566 0.0326343 0.0487631 0.0686118 0.0921971 0.11993 0.151873 0.188968 0.233175 0.286224 0.350784 0.437636 0.548598 0.670594 0.807486 0.955426 1.10802 1.21295 1.22183 1.07162 0.793529 0.708796 0.695944 0.70748 0.732421 0.752398 0.764792 0.0076989 0.00738464 0.00924266 0.0154745 0.025559 0.0401903 0.0587287 0.0811315 0.106935 0.136222 0.170933 0.214011 0.267357 0.334613 0.429407 0.544376 0.67764 0.828142 0.989729 1.15388 1.2736 1.28382 1.12226 0.836873 0.738947 0.7195 0.726347 0.747798 0.766619 0.778458 0.0121516 0.00934941 0.0089834 0.0109823 0.0167442 0.0274456 0.0418532 0.0596641 0.0813647 0.107097 0.138699 0.178316 0.227952 0.292775 0.382525 0.490231 0.619925 0.768048 0.931008 1.09635 1.22199 1.25227 1.12035 0.854595 0.744786 0.722197 0.727399 0.748083 0.768867 0.782095 0.0205398 0.0157038 0.0110644 0.0108309 0.0128503 0.0188787 0.0287195 0.0450061 0.0664223 0.0922755 0.123854 0.162285 0.211069 0.2765 0.363275 0.469841 0.598486 0.746312 0.908586 1.07364 1.20198 1.24723 1.14042 0.899314 0.765179 0.732473 0.729932 0.745842 0.76621 0.779779 0.0330147 0.0258694 0.0169195 0.0129084 0.0129849 0.015766 0.0224824 0.0350165 0.0551072 0.0823632 0.111843 0.146972 0.192615 0.256118 0.340115 0.446785 0.576473 0.726769 0.889731 1.05402 1.18843 1.24617 1.16602 0.962321 0.800316 0.749321 0.735853 0.74567 0.764374 0.777783 0.0492195 0.0405807 0.0276863 0.0189656 0.0157786 0.0161156 0.0198518 0.0283514 0.0433609 0.0638093 0.0896186 0.121151 0.163568 0.222343 0.301531 0.404914 0.533463 0.684358 0.849371 1.01453 1.1582 1.23467 1.18832 1.03112 0.85093 0.776709 0.750997 0.752946 0.768279 0.780565 0.0691402 0.0591684 0.0420656 0.0288016 0.0224922 0.0198375 0.0203292 0.0251644 0.0348275 0.0489819 0.0674201 0.0951646 0.134213 0.188953 0.263482 0.361851 0.485878 0.634085 0.8005 0.969224 1.12135 1.21729 1.2099 1.10338 0.928451 0.822935 0.78047 0.769948 0.778795 0.789077 0.0927901 0.0815947 0.0598409 0.0450644 0.0349772 0.0282826 0.0251217 0.0257113 0.0313553 0.0405376 0.054843 0.0775852 0.113331 0.164856 0.234647 0.327142 0.444806 0.587126 0.749187 0.919758 1.078 1.19163 1.22112 1.16174 1.02552 0.893098 0.825281 0.797053 0.796139 0.802594 0.12058 0.107385 0.0815011 0.0664296 0.0549798 0.0431803 0.0346899 0.0312931 0.0324004 0.0392215 0.0503612 0.0705223 0.103537 0.151672 0.217259 0.302965 0.412463 0.546519 0.70228 0.869876 1.03206 1.1598 1.22233 1.20895 1.12779 0.990248 0.889659 0.840853 0.823934 0.821341 0.152555 0.136635 0.107208 0.0922501 0.0821315 0.0634726 0.0487485 0.0404015 0.0391743 0.0427898 0.0538903 0.0735367 0.105225 0.150773 0.211771 0.290473 0.390726 0.515065 0.661231 0.821909 0.982979 1.11903 1.21014 1.24313 1.20852 1.10678 0.989075 0.907167 0.862826 0.847617 0.189667 0.171311 0.138782 0.123763 0.111506 0.0891445 0.0670963 0.0546509 0.0502563 0.053863 0.0653888 0.0861417 0.116658 0.159087 0.214573 0.286436 0.377451 0.490313 0.625172 0.776281 0.931446 1.07565 1.18604 1.2541 1.27353 1.23078 1.11576 0.997749 0.925146 0.889774 0.233878 0.21435 0.178372 0.162096 0.146489 0.120579 0.0947077 0.077284 0.0703293 0.0734948 0.0861462 0.106383 0.135278 0.173602 0.223964 0.287884 0.369677 0.471297 0.592737 0.731131 0.878815 1.0225 1.14536 1.2489 1.31919 1.32293 1.24903 1.13523 1.02705 0.958121 0.286923 0.267656 0.227968 0.210794 0.192001 0.162881 0.133619 0.112869 0.10322 0.105094 0.116599 0.135246 0.160921 0.194414 0.238073 0.294355 0.365357 0.454934 0.563504 0.68864 0.825118 0.965407 1.10173 1.22706 1.33469 1.40027 1.3911 1.30616 1.17589 1.07616 0.351443 0.334823 0.292671 0.276069 0.255355 0.221499 0.188188 0.164232 0.151118 0.150543 0.158834 0.173422 0.194394 0.221414 0.257039 0.303592 0.364323 0.440323 0.534736 0.646872 0.773532 0.910626 1.04987 1.19066 1.3387 1.4584 1.50942 1.48998 1.38986 1.27462 0.437968 0.429355 0.382411 0.36281 0.339225 0.300523 0.262541 0.233827 0.216551 0.211265 0.214313 0.223476 0.237828 0.257033 0.283003 0.318254 0.366246 0.429523 0.5091 0.607088 0.723112 0.854572 0.996491 1.15339 1.32066 1.48551 1.61339 1.67506 1.65604 1.55791 0.549082 0.544392 0.490084 0.469314 0.445806 0.403777 0.360738 0.326097 0.302122 0.289918 0.285794 0.287675 0.293741 0.303402 0.318376 0.340978 0.374581 0.423267 0.48804 0.571751 0.675745 0.800405 0.946614 1.11265 1.29739 1.51505 1.70968 1.86896 1.99094 1.92444 0.671017 0.677615 0.619722 0.597964 0.575461 0.532249 0.484692 0.443669 0.4114 0.390136 0.376828 0.368937 0.365267 0.363563 0.366229 0.374753 0.393671 0.425087 0.474932 0.544306 0.636673 0.753005 0.899381 1.07436 1.27907 1.54611 1.81016 2.06969 2.3503 2.35133 0.807798 0.828037 0.767798 0.745818 0.7258 0.683109 0.632812 0.585949 0.545434 0.514112 0.489675 0.470497 0.454198 0.440311 0.428716 0.423397 0.425066 0.440971 0.473336 0.529303 0.607393 0.717456 0.863211 1.04638 1.27179 1.58251 1.92031 2.27551 2.68566 2.83447 0.955645 0.989563 0.930742 0.908123 0.888816 0.848211 0.799242 0.747956 0.701107 0.660287 0.624013 0.592105 0.562511 0.534327 0.509031 0.487361 0.475212 0.472967 0.490291 0.528251 0.597731 0.699728 0.839218 1.02965 1.28002 1.62191 2.0325 2.47199 2.96823 3.31013 1.10825 1.15375 1.09621 1.07322 1.0533 1.01352 0.968167 0.918669 0.868759 0.821179 0.775334 0.730255 0.688197 0.645995 0.606685 0.571299 0.544078 0.529231 0.528247 0.556332 0.611278 0.703611 0.837013 1.0281 1.29907 1.66215 2.12202 2.64468 3.22506 3.71079 1.21339 1.27371 1.22207 1.20186 1.18817 1.15763 1.12065 1.0773 1.03113 0.982409 0.930835 0.877966 0.824592 0.773077 0.722023 0.675218 0.636183 0.607173 0.597655 0.612154 0.658306 0.740548 0.869811 1.05568 1.3287 1.70793 2.19102 2.7713 3.43741 4.00716 1.22265 1.28449 1.25299 1.24771 1.24655 1.23473 1.21716 1.19142 1.15925 1.11866 1.07533 1.02183 0.964935 0.910364 0.853722 0.79984 0.752572 0.717304 0.699664 0.703159 0.742338 0.818976 0.942281 1.1261 1.38942 1.76162 2.25004 2.86837 3.591 4.20968 1.07299 1.12364 1.12163 1.14155 1.16713 1.1892 1.21062 1.2216 1.22243 1.21017 1.18608 1.14509 1.10148 1.04977 0.996146 0.946301 0.899129 0.863202 0.840064 0.837094 0.868125 0.944653 1.06875 1.24495 1.50064 1.85692 2.33184 2.9621 3.72189 4.37202 0.794561 0.838022 0.85586 0.900784 0.963941 1.03262 1.10466 1.1627 1.20953 1.24365 1.25434 1.24877 1.22701 1.19068 1.15332 1.11223 1.07361 1.04501 1.02837 1.02994 1.05522 1.12296 1.24625 1.41345 1.65775 1.99723 2.46651 3.08831 3.85523 4.52016 0.70898 0.739195 0.745091 0.765596 0.800894 0.851785 0.929602 1.02667 1.12864 1.20928 1.27396 1.31933 1.33487 1.33883 1.32084 1.29768 1.28054 1.27345 1.27849 1.29448 1.33 1.38775 1.50153 1.65982 1.89183 2.21591 2.6657 3.27601 4.02976 4.67737 0.696012 0.719583 0.722291 0.732629 0.749556 0.777039 0.823453 0.893725 0.990963 1.10771 1.23149 1.32328 1.40059 1.45859 1.4855 1.51447 1.5454 1.58274 1.62658 1.6621 1.70416 1.75968 1.85102 1.99897 2.21643 2.52679 2.96221 3.54992 4.28106 4.89399 0.707446 0.72632 0.727367 0.729949 0.735938 0.751148 0.780718 0.825542 0.889954 0.98968 1.11638 1.24949 1.39154 1.50968 1.61354 1.70995 1.81013 1.91742 2.03031 2.12756 2.19561 2.25536 2.33181 2.46086 2.66653 2.96164 3.39241 3.97398 4.66411 5.19401 0.732372 0.747742 0.748002 0.745795 0.745655 0.752976 0.770027 0.797121 0.840904 0.907454 0.998102 1.13553 1.30657 1.49029 1.67532 1.86966 2.07152 2.27844 2.471 2.6422 2.76965 2.86717 2.96754 3.09085 3.27264 3.55142 3.97055 4.56593 5.26267 5.69307 0.752367 0.766582 0.768794 0.766146 0.764306 0.768299 0.778784 0.796098 0.82381 0.862906 0.925299 1.02711 1.17619 1.39016 1.65621 1.99107 2.3502 2.68507 2.96654 3.22625 3.43869 3.58804 3.71816 3.85822 4.03567 4.28504 4.66608 5.25861 6.02852 6.38931 0.764782 0.778429 0.782048 0.779712 0.77768 0.780638 0.789002 0.802498 0.821128 0.847539 0.889813 0.957977 1.07631 1.27492 1.55797 1.92489 2.35239 2.8366 3.31151 3.70909 4.00862 4.21301 4.36874 4.51703 4.67961 4.88752 5.19622 5.68846 6.38752 7.41619
				</DataArray>
				<DataArray Name="Energy" type="Float32" format="ascii">
 964.474 805.195 513.474 303.451 188.69 126.049 89.6236 66.5953 51.1947 40.4141 32.4928 26.3731 21.5267 17.5923 14.1251 11.2512 9.16862 7.5419 6.27922 5.29221 4.46384 3.73787 2.97994 2.23347 1.95301 1.82107 1.7386 1.68437 1.63714 1.6029 798.461 832.678 662.849 397.812 239.334 152.889 104.285 75.5649 57.3117 44.9851 35.8892 28.6958 23.0008 18.411 14.3517 11.3093 9.04284 7.32874 6.03125 5.04831 4.2611 3.57971 2.86619 2.17261 1.90092 1.77548 1.69875 1.64862 1.60618 1.57309 506.509 655.323 685.728 555.724 368.163 222.702 146.56 102.597 75.2314 57.1275 44.1317 34.3568 26.9009 20.9629 16.0564 12.5004 9.83209 7.85604 6.37729 5.27028 4.40009 3.67631 2.94777 2.24242 1.93213 1.78978 1.70275 1.64567 1.60019 1.56664 299.28 391.975 551.618 569.694 474.285 325.59 213.122 135.941 91.9982 66.1568 49.352 37.6124 28.975 22.0963 16.8291 12.9715 10.1234 8.02775 6.47785 5.32349 4.42288 3.69797 2.99706 2.31688 1.96392 1.80599 1.71066 1.64906 1.6035 1.56919 186.516 236.462 364.356 472.131 473.619 387.569 272.227 174.65 110.748 74.0755 54.4006 41.4733 31.6011 23.7557 17.872 13.5611 10.4381 8.18026 6.54318 5.34683 4.44011 3.71896 3.05024 2.41735 2.01677 1.83216 1.72207 1.65333 1.60613 1.57331 124.879 151.422 220.746 324.115 387.238 379.565 308.211 215.068 140.843 95.3184 67.8958 50.1012 37.0764 27.2549 20.0483 14.867 11.1994 8.61498 6.78341 5.47362 4.51145 3.76751 3.11569 2.52656 2.08548 1.86167 1.73039 1.65056 1.59914 1.56754 88.9392 103.504 145.827 212.502 272.11 308.423 299.395 243.018 174.535 124.375 89.953 63.688 45.0835 31.9458 22.8439 16.5415 12.2034 9.20851 7.12609 5.66502 4.61079 3.81908 3.17147 2.61971 2.16175 1.89065 1.73572 1.64134 1.58379 1.55244 66.1687 75.137 102.291 135.763 174.843 215.583 243.437 235.711 194.608 149.365 110.747 78.0135 53.271 36.5382 25.54 18.2014 13.2461 9.85913 7.52938 5.90273 4.74578 3.89277 3.23685 2.70174 2.25517 1.93798 1.74849 1.63249 1.56533 1.53228 50.9196 57.07 75.1027 91.9893 110.998 141.433 175.218 195.008 186.539 155.256 119.952 85.8103 58.2436 39.6107 27.5054 19.5503 14.1856 10.4986 7.94487 6.16093 4.89899 3.98443 3.30048 2.76932 2.34932 2.00408 1.7722 1.6324 1.55081 1.51114 40.2328 44.8484 57.0669 66.1698 74.2846 95.8205 124.974 149.861 155.454 141.002 112.482 82.0001 57.2381 39.7377 28.1273 20.2922 14.8579 11.0406 8.34512 6.43519 5.07606 4.0992 3.37618 2.84338 2.43256 2.08739 1.82395 1.64932 1.54319 1.49309 32.3727 35.8095 44.1032 49.3878 54.5614 68.2588 90.3858 111.139 120.204 112.543 92.2156 69.995 51.4305 37.5662 27.5996 20.4632 15.2661 11.4726 8.7179 6.72248 5.28237 4.23878 3.47417 2.91988 2.50777 2.18159 1.8997 1.6839 1.55224 1.48619 26.2937 28.65 34.3457 37.6542 41.6096 50.3376 63.9946 78.3201 86.0452 82.0515 69.9957 56.4306 44.2153 34.2187 26.3069 20.1714 15.4395 11.8038 9.05629 7.0118 5.50565 4.40635 3.59375 3.0094 2.58892 2.26084 1.98193 1.75294 1.58924 1.49567 21.4747 22.9756 26.8981 29.0124 31.7008 37.2315 45.2848 53.4863 58.4303 57.306 51.4587 44.2349 36.9632 30.3487 24.514 19.5529 15.4122 12.0477 9.3736 7.30873 5.75395 4.60126 3.74547 3.12542 2.67638 2.33659 2.07266 1.8459 1.65698 1.53781 17.5603 18.3996 20.9721 22.1306 23.8259 27.3587 32.075 36.6799 39.7448 39.8126 37.6186 34.2552 30.3683 26.4149 22.4487 18.6849 15.2436 12.2218 9.68302 7.63572 6.04233 4.83713 3.93776 3.26878 2.78109 2.42104 2.1571 1.93661 1.75832 1.62755 14.1163 14.3556 16.0619 16.8517 17.9198 20.1155 22.9269 25.6328 27.5987 28.1785 27.6536 26.3502 24.5416 22.4696 20.113 17.527 14.8556 12.2893 9.96237 7.97783 6.37198 5.11877 4.16409 3.45179 2.91029 2.50827 2.23923 2.03049 1.87879 1.74953 11.2431 11.3102 12.5058 12.9867 13.5919 14.9099 16.5934 18.2594 19.6096 20.3339 20.4917 20.2085 19.5728 18.7024 17.5369 16.035 14.1974 12.1756 10.1688 8.32301 6.7402 5.45535 4.45273 3.6795 3.0868 2.62497 2.34134 2.13914 2.01397 1.89041 9.16464 9.04479 9.83676 10.1335 10.4573 11.226 12.2353 13.282 14.2216 14.8872 15.2941 15.4571 15.4368 15.2506 14.8632 14.1979 13.1712 11.8037 10.2179 8.60813 7.12724 5.84768 4.80432 3.9695 3.32155 2.78954 2.47415 2.26457 2.14636 2.02764 7.54073 7.33144 7.86007 8.03444 8.19245 8.6316 9.22796 9.88048 10.5221 11.0598 11.4953 11.8236 12.062 12.2388 12.2889 12.1745 11.7984 11.0836 10.0359 8.77941 7.47331 6.26519 5.21125 4.32936 3.61316 3.02188 2.64893 2.41414 2.26878 2.15319 6.27979 6.03434 6.38085 6.48261 6.55113 6.79401 7.13858 7.5425 7.95955 8.35993 8.73126 9.07203 9.38646 9.69336 9.97181 10.1661 10.2167 10.0326 9.53645 8.71775 7.70208 6.64927 5.63615 4.73394 3.9587 3.30949 2.87136 2.5805 2.37153 2.25174 5.29379 5.05127 5.27338 5.32722 5.35196 5.48024 5.67298 5.91091 6.16958 6.44488 6.73125 7.01874 7.31866 7.64199 7.9853 8.3271 8.6102 8.78097 8.7154 8.36224 7.71211 6.88631 5.98942 5.11452 4.3169 3.62477 3.11003 2.74645 2.45787 2.31093 4.4659 4.2638 4.40296 4.4259 4.4438 4.51578 4.6158 4.75111 4.90417 5.08188 5.28847 5.50965 5.75948 6.04892 6.37701 6.7468 7.1319 7.4757 7.70055 7.71142 7.40764 6.86198 6.16284 5.38284 4.60833 3.90704 3.32558 2.87439 2.51207 2.32827 3.74049 3.58261 3.67919 3.7008 3.72203 3.77064 3.82232 3.89641 3.98798 4.10267 4.24305 4.40946 4.60464 4.8413 5.1223 5.45961 5.85154 6.26745 6.64905 6.88393 6.86842 6.57453 6.07467 5.45187 4.76069 4.08454 3.47577 2.95463 2.52937 2.31215 2.98289 2.86937 2.95085 3.00006 3.05321 3.11854 3.17416 3.23959 3.3031 3.37826 3.47667 3.59571 3.74713 3.93942 4.16571 4.45418 4.80568 5.21316 5.63857 5.98889 6.1631 6.08633 5.77649 5.303 4.73971 4.13463 3.53328 2.98153 2.52294 2.27841 2.23512 2.17447 2.2446 2.31945 2.41996 2.52915 2.62199 2.70379 2.77131 2.84482 2.92131 3.0106 3.12637 3.26968 3.45295 3.68 3.96937 4.32879 4.73425 5.12027 5.38466 5.45031 5.30794 4.97649 4.5418 4.03859 3.4984 2.96011 2.49697 2.2374 1.9532 1.90124 1.93262 1.96453 2.01744 2.08646 2.16293 2.25661 2.35088 2.43348 2.50863 2.58979 2.67697 2.78151 2.91114 3.08777 3.32328 3.6148 3.9593 4.31686 4.61577 4.76174 4.74106 4.54594 4.22978 3.83113 3.37382 2.89518 2.45621 2.1953 1.82105 1.77552 1.78994 1.80615 1.83233 1.86191 1.89089 1.93851 2.00494 2.08802 2.18224 2.26151 2.33696 2.42126 2.50861 2.62484 2.78939 3.02209 3.31334 3.62666 3.90641 4.08666 4.13031 4.04226 3.83577 3.54036 3.17521 2.77618 2.3932 2.15775 1.73847 1.69866 1.70275 1.71063 1.72201 1.73033 1.73565 1.7486 1.77256 1.8241 1.90006 1.98247 2.07292 2.15729 2.23957 2.34152 2.47414 2.64744 2.86979 3.11292 3.3273 3.4773 3.53303 3.49609 3.37786 3.17947 2.90711 2.59197 2.28173 2.10141 1.68422 1.64847 1.6456 1.64894 1.65317 1.65032 1.64109 1.63236 1.63251 1.64918 1.6839 1.75329 1.84607 1.9368 2.03085 2.13932 2.26493 2.41531 2.5794 2.74432 2.87462 2.95284 2.98142 2.96127 2.89324 2.77623 2.59248 2.35726 2.12025 1.99616 1.637 1.60603 1.60011 1.60335 1.60596 1.59882 1.58348 1.56512 1.55078 1.54293 1.55206 1.58941 1.65703 1.75846 1.87901 2.01374 2.14593 2.26852 2.37086 2.45758 2.51248 2.52894 2.52085 2.49745 2.45733 2.39186 2.28087 2.1193 1.95186 1.84912 1.60276 1.57292 1.56656 1.56903 1.57316 1.56726 1.55209 1.53198 1.51115 1.49274 1.4858 1.4958 1.53775 1.62753 1.74993 1.89039 2.02738 2.15384 2.25201 2.31042 2.32839 2.31232 2.27783 2.23624 2.19551 2.15663 2.10107 1.99561 1.84905 1.83704
				</DataArray>
				<DataArray Name="F1" type="Float32" format="ascii">
 1 1 1 1 1 1 1 1 1 1 1 1 1 1 1 1 1 1 1 1 1 1 1 1 1 1 1 1 1 1 1 1 1 1 1 1 1 1 1 1 1 1 1 1 1 1 1 1 1 1 1 1 1 1 1 1 1 1 1 1 1 1 1 1 1 1 1 1 1 1 1 1 1 1 1 1 1 1 1 1 1 1 1 1 1 1 1 1 1 1 1 1 1 1 1 1 1 1 1 1 1 1 1 1 1 1 1 1 1 1 1 1 1 1 1 1 1 1 1 1 1 1 1 1 1 1 1 1 1 1 1 1 1 1 1 1 1 1 1 1 1 1 1 1 1 1 1 1 1 1 1 1 1 1 1 1 1 1 1 1 1 1 1 1 1 1 1 1 1 1 1 1 1 1 1 1 1 1 1 1 1 1 1 1 1 1 1 1 1 1 1 1 1 1 1 1 1 1 1 1 1 1 1 1 1 1 1 1 1 1 1 1 1 1 1 1 1 1 1 1 1 1 1 1 1 1 1 1 1 1 1 1 1 1 1 1 1 1 1 1 1 1 1 1 1 1 1 1 1 1 1 1 1 1 1 1 1 1 1 1 1 1 1 1 1 1 1 1 1 1 1 1 1 1 1 1 1 1 1 1 1 1 1 1 1 1 1 1 1 1 1 1 1 1 1 1 1 1 1 1 1 1 1 1 1 1 1 1 1 1 1 1 1 1 1 1 1 1 1 1 1 1 1 1 1 1 1 1 1 1 1 1 1 1 1 1 1 1 1 1 1 1 1 1 1 1 1 1 1 1 1 1 1 1 1 1 1 1 1 1 1 1 1 1 1 1 1 1 1 1 1 1 1 1 1 1 1 1 1 1 1 1 1 1 1 1 1 1 1 1 1 1 1 1 1 1 1 1 1 1 1 1 1 1 1 1 1 1 1 1 1 1 1 1 1 1 1 1 1 1 1 1 1 1 1 1 1 1 1 1 1 1 1 1 1 1 1 1 1 1 1 1 1 1 1 1 1 1 1 1 1 1 1 1 1 1 1 1 1 1 1 1 1 1 1 1 1 1 1 1 1 1 1 1 1 1 1 1 1 1 1 1 1 1 1 1 1 1 1 1 1 1 1 1 1 1 1 1 1 1 1 1 1 1 1 1 1 1 1 1 1 1 1 1 1 1 1 1 1 1 1 1 1 1 1 1 1 1 1 1 1 1 1 1 1 1 1 1 1 1 1 1 1 1 1 1 1 1 1 1 1 1 1 1 1 1 1 1 1 1 1 1 1 1 1 1 1 1 1 1 1 1 1 1 1 1 1 1 1 1 1 1 1 1 1 1 1 1 1 1 1 1 1 1 1 1 1 1 1 1 1 1 1 1 1 1 1 1 1 1 1 1 1 1 1 1 1 1 1 1 1 1 1 1 1 1 1 1 1 1 1 1 1 1 1 1 1 1 1 1 1 1 1 1 1 1 1 1 1 1 1 1 1 1 1 1 1 1 1 1 1 1 1 1 1 1 1 1 1 1 1 1 1 1 1 1 1 1 1 1 1 1 1 1 1 1 1 1 1 1 1 1 1 1 1 1 1 1 1 1 1 1 1 1 1 1 1 1 1 1 1 1 1 1 1 1 1 1 1 1 1 1 1 1 1 1 1 1 1 1 1 1 1 1 1 1 1 1 1 1 1 1 1 1 1 1 1 1 1 1 1 1 1 1 1 1 1 1 1 1 1 1 1 1 1 1 1 1 1 1 1 1 1 1 1 1 1 1 1 1 1 1 1 1 1 1 1 1 1 1 1 1 1 1 1 1 1 1 1 1 1 1 1 1 1 1 1 1 1 1 1 1 1 1 1 1 1 1 1 1 1 1 1 1 1 1 1 1 1 1 1 1 1 1 1 1 1 1 1 1 1 1 1 1 1 1 1 1 1 1 1 1 1 1 1 1 1 1 1 1 1 1 1 1 1 1 1 1 1 1 1 1 1 1 1 1 1 1 1 1 1 1 1 1 1 1 1 1 1 1 1 1 1 1 1 1 1 1 1 1
				</DataArray>
				<DataArray Name="F2" type="Float32" format="ascii">
 0 0 0 0 0 0 0 0 0 0 0 0 0 0 0 0 0 0 0 0 0 0 0 0 0 0 0 0 0 0 0 0 0 0 0 0 0 0 0 0 0 0 0 0 0 0 0 0 0 0 0 0 0 0 0 0 0 0 0 0 0 0 0 0 0 0 0 0 0 0 0 0 0 0 0 0 0 0 0 0 0 0 0 0 0 0 0 0 0 0 0 0 0 0 0 0 0 0 0 0 0 0 0 0 0 0 0 0 0 0 0 0 0 0 0 0 0 0 0 0 0 0 0 0 0 0 0 0 0 0 0 0 0 0 0 0 0 0 0 0 0 0 0 0 0 0 0 0 0 0 0 0 0 0 0 0 0 0 0 0 0 0 0 0 0 0 0 0 0 0 0 0 0 0 0 0 0 0 0 0 0 0 0 0 0 0 0 0 0 0 0 0 0 0 0 0 0 0 0 0 0 0 0 0 0 0 0 0 0 0 0 0 0 0 0 0 0 0 0 0 0 0 0 0 0 0 0 0 0 0 0 0 0 0 0 0 0 0 0 0 0 0 0 0 0 0 0 0 0 0 0 0 0 0 0 0 0 0 0 0 0 0 0 0 0 0 0 0 0 0 0 0 0 0 0 0 0 0 0 0 0 0 0 0 0 0 0 0 0 0 0 0 0 0 0 0 0 0 0 0 0 0 0 0 0 0 0 0 0 0 0 0 0 0 0 0 0 0 0 0 0 0 0 0 0 0 0 0 0 0 0 0 0 0 0 0 0 0 0 0 0 0 0 0 0 0 0 0 0 0 0 0 0 0 0 0 0 0 0 0 0 0 0 0 0 0 0 0 0 0 0 0 0 0 0 0 0 0 0 0 0 0 0 0 0 0 0 0 0 0 0 0 0 0 0 0 0 0 0 0 0 0 0 0 0 0 0 0 0 0 0 0 0 0 0 0 0 0 0 0 0 0 0 0 0 0 0 0 0 0 0 0 0 0 0 0 0 0 0 0 0 0 0 0 0 0 0 0 0 0 0 0 0 0 0 0 0 0 0 0 0 0 0 0 0 0 0 0 0 0 0 0 0 0 0 0 0 0 0 0 0 0 0 0 0 0 0 0 0 0 0 0 0 0 0 0 0 0 0 0 0 0 0 0 0 0 0 0 0 0 0 0 0 0 0 0 0 0 0 0 0 0 0 0 0 0 0 0 0 0 0 0 0 0 0 0 0 0 0 0 0 0 0 0 0 0 0 0 0 0 0 0 0 0 0 0 0 0 0 0 0 0 0 0 0 0 0 0 0 0 0 0 0 0 0 0 0 0 0 0 0 0 0 0 0 0 0 0 0 0 0 0 0 0 0 0 0 0 0 0 0 0 0 0 0 0 0 0 0 0 0 0 0 0 0 0 0 0 0 0 0 0 0 0 0 0 0 0 0 0 0 0 0 0 0 0 0 0 0 0 0 0 0 0 0 0 0 0 0 0 0 0 0 0 0 0 0 0 0 0 0 0 0 0 0 0 0 0 0 0 0 0 0 0 0 0 0 0 0 0 0 0 0 0 0 0 0 0 0 0 0 0 0 0 0 0 0 0 0 0 0 0 0 0 0 0 0 0 0 0 0 0 0 0 0 0 0 0 0 0 0 0 0 0 0 0 0 0 0 0 0 0 0 0 0 0 0 0 0 0 0 0 0 0 0 0 0 0 0 0 0 0 0 0 0 0 0 0 0 0 0 0 0 0 0 0 0 0 0 0 0 0 0 0 0 0 0 0 0 0 0 0 0 0 0 0 0 0 0 0 0 0 0 0 0 0 0 0 0 0 0 0 0 0 0 0 0 0 0 0 0 0 0 0 0 0 0 0 0 0 0 0 0 0 0 0 0 0 0 0 0 0 0 0 0 0 0 0 0 0 0 0 0 0 0 0 0 0 0 0 0 0 0 0 0 0 0 0 0 0 0 0 0 0 0 0 0 0 0 0 0 0 0 0 0 0 0 0 0 0 0 0 0 0 0 0 0 0 0 0 0 0 0 0 0 0 0 0 0 0
				</DataArray>
				<DataArray Name="F3" type="Float32" format="ascii">