<?xml version="1.0"?>
<VTKFile type="PolyData">
	<PolyData>
		<Piece NumberOfPoints="961" NumberOfPolys="900">
			<Points>
				<DataArray type="Float32" NumberOfComponents="3" format="ascii">
 0 0 0 0.04 0 0 0.08 0 0 0.12 0 0 0.16 0 0 0.2 0 0 0.24 0 0 0.28 0 0 0.32 0 0 0.36 0 0 0.4 0 0 0.44 0 0 0.48 0 0 0.52 0 0 0.56 0 0 0.6 0 0 0.64 0 0 0.68 0 0 0.72 0 0 0.76 0 0 0.8 0 0 0.84 0 0 0.88 0 0 0.92 0 0 0.96 0 0 1 0 0 1.04 0 0 1.08 0 0 1.12 0 0 1.16 0 0 1.2 0 0 0 0.04 0 0.04 0.04 0 0.08 0.04 0 0.12 0.04 0 0.16 0.04 0 0.2 0.04 0 0.24 0.04 0 0.28 0.04 0 0.32 0.04 0 0.36 0.04 0 0.4 0.04 0 0.44 0.04 0 0.48 0.04 0 0.52 0.04 0 0.56 0.04 0 0.6 0.04 0 0.64 0.04 0 0.68 0.04 0 0.72 0.04 0 0.76 0.04 0 0.8 0.04 0 0.84 0.04 0 0.88 0.04 0 0.92 0.04 0 0.96 0.04 0 1 0.04 0 1.04 0.04 0 1.08 0.04 0 1.12 0.04 0 1.16 0.04 0 1.2 0.04 0 0 0.08 0 0.04 0.08 0 0.08 0.08 0 0.12 0.08 0 0.16 0.08 0 0.2 0.08 0 0.24 0.08 0 0.28 0.08 0 0.32 0.08 0 0.36 0.08 0 0.4 0.08 0 0.44 0.08 0 0.48 0.08 0 0.52 0.08 0 0.56 0.08 0 0.6 0.08 0 0.64 0.08 0 0.68 0.08 0 0.72 0.08 0 0.76 0.08 0 0.8 0.08 0 0.84 0.08 0 0.88 0.08 0 0.92 0.08 0 0.96 0.08 0 1 0.08 0 1.04 0.08 0 1.08 0.08 0 1.12 0.08 0 1.16 0.08 0 1.2 0.08 0 0 0.12 0 0.04 0.12 0 0.08 0.12 0 0.12 0.12 0 0.16 0.12 0 0.2 0.12 0 0.24 0.12 0 0.28 0.12 0 0.32 0.12 0 0.36 0.12 0 0.4 0.12 0 0.44 0.12 0 0.48 0.12 0 0.52 0.12 0 0.56 0.12 0 0.6 0.12 0 0.64 0.12 0 0.68 0.12 0 0.72 0.12 0 0.76 0.12 0 0.8 0.12 0 0.84 0.12 0 0.88 0.12 0 0.92 0.12 0 0.96 0.12 0 1 0.12 0 1.04 0.12 0 1.08 0.12 0 1.12 0.12 0 1.16 0.12 0 1.2 0.12 0 0 0.16 0 0.04 0.16 0 0.08 0.16 0 0.12 0.16 0 0.16 0.16 0 0.2 0.16 0 0.24 0.16 0 0.28 0.16 0 0.32 0.16 0 0.36 0.16 0 0.4 0.16 0 0.44 0.16 0 0.48 0.16 0 0.52 0.16 0 0.56 0.16 0 0.6 0.16 0 0.64 0.16 0 0.68 0.16 0 0.72 0.16 0 0.76 0.16 0 0.8 0.16 0 0.84 0.16 0 0.88 0.16 0 0.92 0.16 0 0.96 0.16 0 1 0.16 0 1.04 0.16 0 1.08 0.16 0 1.12 0.16 0 1.16 0.16 0 1.2 0.16 0 0 0.2 0 0.04 0.2 0 0.08 0.2 0 0.12 0.2 0 0.16 0.2 0 0.2 0.2 0 0.24 0.2 0 0.28 0.2 0 0.32 0.2 0 0.36 0.2 0 0.4 0.2 0 0.44 0.2 0 0.48 0.2 0 0.52 0.2 0 0.56 0.2 0 0.6 0.2 0 0.64 0.2 0 0.68 0.2 0 0.72 0.2 0 0.76 0.2 0 0.8 0.2 0 0.84 0.2 0 0.88 0.2 0 0.92 0.2 0 0.96 0.2 0 1 0.2 0 1.04 0.2 0 1.08 0.2 0 1.12 0.2 0 1.16 0.2 0 1.2 0.2 0 0 0.24 0 0.04 0.24 0 0.08 0.24 0 0.12 0.24 0 0.16 0.24 0 0.2 0.24 0 0.24 0.24 0 0.28 0.24 0 0.32 0.24 0 0.36 0.24 0 0.4 0.24 0 0.44 0.24 0 0.48 0.24 0 0.52 0.24 0 0.56 0.24 0 0.6 0.24 0 0.64 0.24 0 0.68 0.24 0 0.72 0.24 0 0.76 0.24 0 0.8 0.24 0 0.84 0.24 0 0.88 0.24 0 0.92 0.24 0 0.96 0.24 0 1 0.24 0 1.04 0.24 0 1.08 0.24 0 1.12 0.24 0 1.16 0.24 0 1.2 0.24 0 0 0.28 0 0.04 0.28 0 0.08 0.28 0 0.12 0.28 0 0.16 0.28 0 0.2 0.28 0 0.24 0.28 0 0.28 0.28 0 0.32 0.28 0 0.36 0.28 0 0.4 0.28 0 0.44 0.28 0 0.48 0.28 0 0.52 0.28 0 0.56 0.28 0 0.6 0.28 0 0.64 0.28 0 0.68 0.28 0 0.72 0.28 0 0.76 0.28 0 0.8 0.28 0 0.84 0.28 0 0.88 0.28 0 0.92 0.28 0 0.96 0.28 0 1 0.28 0 1.04 0.28 0 1.08 0.28 0 1.12 0.28 0 1.16 0.28 0 1.2 0.28 0 0 0.32 0 0.04 0.32 0 0.08 0.32 0 0.12 0.32 0 0.16 0.32 0 0.2 0.32 0 0.24 0.32 0 0.28 0.32 0 0.32 0.32 0 0.36 0.32 0 0.4 0.32 0 0.44 0.32 0 0.48 0.32 0 0.52 0.32 0 0.56 0.32 0 0.6 0.32 0 0.64 0.32 0 0.68 0.32 0 0.72 0.32 0 0.76 0.32 0 0.8 0.32 0 0.84 0.32 0 0.88 0.32 0 0.92 0.32 0 0.96 0.32 0 1 0.32 0 1.04 0.32 0 1.08 0.32 0 1.12 0.32 0 1.16 0.32 0 1.2 0.32 0 0 0.36 0 0.04 0.36 0 0.08 0.36 0 0.12 0.36 0 0.16 0.36 0 0.2 0.36 0 0.24 0.36 0 0.28 0.36 0 0.32 0.36 0 0.36 0.36 0 0.4 0.36 0 0.44 0.36 0 0.48 0.36 0 0.52 0.36 0 0.56 0.36 0 0.6 0.36 0 0.64 0.36 0 0.68 0.36 0 0.72 0.36 0 0.76 0.36 0 0.8 0.36 0 0.84 0.36 0 0.88 0.36 0 0.92 0.36 0 0.96 0.36 0 1 0.36 0 1.04 0.36 0 1.08 0.36 0 1.12 0.36 0 1.16 0.36 0 1.2 0.36 0 0 0.4 0 0.04 0.4 0 0.08 0.4 0 0.12 0.4 0 0.16 0.4 0 0.2 0.4 0 0.24 0.4 0 0.28 0.4 0 0.32 0.4 0 0.36 0.4 0 0.4 0.4 0 0.44 0.4 0 0.48 0.4 0 0.52 0.4 0 0.56 0.4 0 0.6 0.4 0 0.64 0.4 0 0.68 0.4 0 0.72 0.4 0 0.76 0.4 0 0.8 0.4 0 0.84 0.4 0 0.88 0.4 0 0.92 0.4 0 0.96 0.4 0 1 0.4 0 1.04 0.4 0 1.08 0.4 0 1.12 0.4 0 1.16 0.4 0 1.2 0.4 0 0 0.44 0 0.04 0.44 0 0.08 0.44 0 0.12 0.44 0 0.16 0.44 0 0.2 0.44 0 0.24 0.44 0 0.28 0.44 0 0.32 0.44 0 0.36 0.44 0 0.4 0.44 0 0.44 0.44 0 0.48 0.44 0 0.52 0.44 0 0.56 0.44 0 0.6 0.44 0 0.64 0.44 0 0.68 0.44 0 0.72 0.44 0 0.76 0.44 0 0.8 0.44 0 0.84 0.44 0 0.88 0.44 0 0.92 0.44 0 0.96 0.44 0 1 0.44 0 1.04 0.44 0 1.08 0.44 0 1.12 0.44 0 1.16 0.44 0 1.2 0.44 0 0 0.48 0 0.04 0.48 0 0.08 0.48 0 0.12 0.48 0 0.16 0.48 0 0.2 0.48 0 0.24 0.48 0 0.28 0.48 0 0.32 0.48 0 0.36 0.48 0 0.4 0.48 0 0.44 0.48 0 0.48 0.48 0 0.52 0.48 0 0.56 0.48 0 0.6 0.48 0 0.64 0.48 0 0.68 0.48 0 0.72 0.48 0 0.76 0.48 0 0.8 0.48 0 0.84 0.48 0 0.88 0.48 0 0.92 0.48 0 0.96 0.48 0 1 0.48 0 1.04 0.48 0 1.08 0.48 0 1.12 0.48 0 1.16 0.48 0 1.2 0.48 0 0 0.52 0 0.04 0.52 0 0.08 0.52 0 0.12 0.52 0 0.16 0.52 0 0.2 0.52 0 0.24 0.52 0 0.28 0.52 0 0.32 0.52 0 0.36 0.52 0 0.4 0.52 0 0.44 0.52 0 0.48 0.52 0 0.52 0.52 0 0.56 0.52 0 0.6 0.52 0 0.64 0.52 0 0.68 0.52 0 0.72 0.52 0 0.76 0.52 0 0.8 0.52 0 0.84 0.52 0 0.88 0.52 0 0.92 0.52 0 0.96 0.52 0 1 0.52 0 1.04 0.52 0 1.08 0.52 0 1.12 0.52 0 1.16 0.52 0 1.2 0.52 0 0 0.56 0 0.04 0.56 0 0.08 0.56 0 0.12 0.56 0 0.16 0.56 0 0.2 0.56 0 0.24 0.56 0 0.28 0.56 0 0.32 0.56 0 0.36 0.56 0 0.4 0.56 0 0.44 0.56 0 0.48 0.56 0 0.52 0.56 0 0.56 0.56 0 0.6 0.56 0 0.64 0.56 0 0.68 0.56 0 0.72 0.56 0 0.76 0.56 0 0.8 0.56 0 0.84 0.56 0 0.88 0.56 0 0.92 0.56 0 0.96 0.56 0 1 0.56 0 1.04 0.56 0 1.08 0.56 0 1.12 0.56 0 1.16 0.56 0 1.2 0.56 0 0 0.6 0 0.04 0.6 0 0.08 0.6 0 0.12 0.6 0 0.16 0.6 0 0.2 0.6 0 0.24 0.6 0 0.28 0.6 0 0.32 0.6 0 0.36 0.6 0 0.4 0.6 0 0.44 0.6 0 0.48 0.6 0 0.52 0.6 0 0.56 0.6 0 0.6 0.6 0 0.64 0.6 0 0.68 0.6 0 0.72 0.6 0 0.76 0.6 0 0.8 0.6 0 0.84 0.6 0 0.88 0.6 0 0.92 0.6 0 0.96 0.6 0 1 0.6 0 1.04 0.6 0 1.08 0.6 0 1.12 0.6 0 1.16 0.6 0 1.2 0.6 0 0 0.64 0 0.04 0.64 0 0.08 0.64 0 0.12 0.64 0 0.16 0.64 0 0.2 0.64 0 0.24 0.64 0 0.28 0.64 0 0.32 0.64 0 0.36 0.64 0 0.4 0.64 0 0.44 0.64 0 0.48 0.64 0 0.52 0.64 0 0.56 0.64 0 0.6 0.64 0 0.64 0.64 0 0.68 0.64 0 0.72 0.64 0 0.76 0.64 0 0.8 0.64 0 0.84 0.64 0 0.88 0.64 0 0.92 0.64 0 0.96 0.64 0 1 0.64 0 1.04 0.64 0 1.08 0.64 0 1.12 0.64 0 1.16 0.64 0 1.2 0.64 0 0 0.68 0 0.04 0.68 0 0.08 0.68 0 0.12 0.68 0 0.16 0.68 0 0.2 0.68 0 0.24 0.68 0 0.28 0.68 0 0.32 0.68 0 0.36 0.68 0 0.4 0.68 0 0.44 0.68 0 0.48 0.68 0 0.52 0.68 0 0.56 0.68 0 0.6 0.68 0 0.64 0.68 0 0.68 0.68 0 0.72 0.68 0 0.76 0.68 0 0.8 0.68 0 0.84 0.68 0 0.88 0.68 0 0.92 0.68 0 0.96 0.68 0 1 0.68 0 1.04 0.68 0 1.08 0.68 0 1.12 0.68 0 1.16 0.68 0 1.2 0.68 0 0 0.72 0 0.04 0.72 0 0.08 0.72 0 0.12 0.72 0 0.16 0.72 0 0.2 0.72 0 0.24 0.72 0 0.28 0.72 0 0.32 0.72 0 0.36 0.72 0 0.4 0.72 0 0.44 0.72 0 0.48 0.72 0 0.52 0.72 0 0.56 0.72 0 0.6 0.72 0 0.64 0.72 0 0.68 0.72 0 0.72 0.72 0 0.76 0.72 0 0.8 0.72 0 0.84 0.72 0 0.88 0.72 0 0.92 0.72 0 0.96 0.72 0 1 0.72 0 1.04 0.72 0 1.08 0.72 0 1.12 0.72 0 1.16 0.72 0 1.2 0.72 0 0 0.76 0 0.04 0.76 0 0.08 0.76 0 0.12 0.76 0 0.16 0.76 0 0.2 0.76 0 0.24 0.76 0 0.28 0.76 0 0.32 0.76 0 0.36 0.76 0 0.4 0.76 0 0.44 0.76 0 0.48 0.76 0 0.52 0.76 0 0.56 0.76 0 0.6 0.76 0 0.64 0.76 0 0.68 0.76 0 0.72 0.76 0 0.76 0.76 0 0.8 0.76 0 0.84 0.76 0 0.88 0.76 0 0.92 0.76 0 0.96 0.76 0 1 0.76 0 1.04 0.76 0 1.08 0.76 0 1.12 0.76 0 1.16 0.76 0 1.2 0.76 0 0 0.8 0 0.04 0.8 0 0.08 0.8 0 0.12 0.8 0 0.16 0.8 0 0.2 0.8 0 0.24 0.8 0 0.28 0.8 0 0.32 0.8 0 0.36 0.8 0 0.4 0.8 0 0.44 0.8 0 0.48 0.8 0 0.52 0.8 0 0.56 0.8 0 0.6 0.8 0 0.64 0.8 0 0.68 0.8 0 0.72 0.8 0 0.76 0.8 0 0.8 0.8 0 0.84 0.8 0 0.88 0.8 0 0.92 0.8 0 0.96 0.8 0 1 0.8 0 1.04 0.8 0 1.08 0.8 0 1.12 0.8 0 1.16 0.8 0 1.2 0.8 0 0 0.84 0 0.04 0.84 0 0.08 0.84 0 0.12 0.84 0 0.16 0.84 0 0.2 0.84 0 0.24 0.84 0 0.28 0.84 0 0.32 0.84 0 0.36 0.84 0 0.4 0.84 0 0.44 0.84 0 0.48 0.84 0 0.52 0.84 0 0.56 0.84 0 0.6 0.84 0 0.64 0.84 0 0.68 0.84 0 0.72 0.84 0 0.76 0.84 0 0.8 0.84 0 0.84 0.84 0 0.88 0.84 0 0.92 0.84 0 0.96 0.84 0 1 0.84 0 1.04 0.84 0 1.08 0.84 0 1.12 0.84 0 1.16 0.84 0 1.2 0.84 0 0 0.88 0 0.04 0.88 0 0.08 0.88 0 0.12 0.88 0 0.16 0.88 0 0.2 0.88 0 0.24 0.88 0 0.28 0.88 0 0.32 0.88 0 0.36 0.88 0 0.4 0.88 0 0.44 0.88 0 0.48 0.88 0 0.52 0.88 0 0.56 0.88 0 0.6 0.88 0 0.64 0.88 0 0.68 0.88 0 0.72 0.88 0 0.76 0.88 0 0.8 0.88 0 0.84 0.88 0 0.88 0.88 0 0.92 0.88 0 0.96 0.88 0 1 0.88 0 1.04 0.88 0 1.08 0.88 0 1.12 0.88 0 1.16 0.88 0 1.2 0.88 0 0 0.92 0 0.04 0.92 0 0.08 0.92 0 0.12 0.92 0 0.16 0.92 0 0.2 0.92 0 0.24 0.92 0 0.28 0.92 0 0.32 0.92 0 0.36 0.92 0 0.4 0.92 0 0.44 0.92 0 0.48 0.92 0 0.52 0.92 0 0.56 0.92 0 0.6 0.92 0 0.64 0.92 0 0.68 0.92 0 0.72 0.92 0 0.76 0.92 0 0.8 0.92 0 0.84 0.92 0 0.88 0.92 0 0.92 0.92 0 0.96 0.92 0 1 0.92 0 1.04 0.92 0 1.08 0.92 0 1.12 0.92 0 1.16 0.92 0 1.2 0.92 0 0 0.96 0 0.04 0.96 0 0.08 0.96 0 0.12 0.96 0 0.16 0.96 0 0.2 0.96 0 0.24 0.96 0 0.28 0.96 0 0.32 0.96 0 0.36 0.96 0 0.4 0.96 0 0.44 0.96 0 0.48 0.96 0 0.52 0.96 0 0.56 0.96 0 0.6 0.96 0 0.64 0.96 0 0.68 0.96 0 0.72 0.96 0 0.76 0.96 0 0.8 0.96 0 0.84 0.96 0 0.88 0.96 0 0.92 0.96 0 0.96 0.96 0 1 0.96 0 1.04 0.96 0 1.08 0.96 0 1.12 0.96 0 1.16 0.96 0 1.2 0.96 0 0 1 0 0.04 1 0 0.08 1 0 0.12 1 0 0.16 1 0 0.2 1 0 0.24 1 0 0.28 1 0 0.32 1 0 0.36 1 0 0.4 1 0 0.44 1 0 0.48 1 0 0.52 1 0 0.56 1 0 0.6 1 0 0.64 1 0 0.68 1 0 0.72 1 0 0.76 1 0 0.8 1 0 0.84 1 0 0.88 1 0 0.92 1 0 0.96 1 0 1 1 0 1.04 1 0 1.08 1 0 1.12 1 0 1.16 1 0 1.2 1 0 0 1.04 0 0.04 1.04 0 0.08 1.04 0 0.12 1.04 0 0.16 1.04 0 0.2 1.04 0 0.24 1.04 0 0.28 1.04 0 0.32 1.04 0 0.36 1.04 0 0.4 1.04 0 0.44 1.04 0 0.48 1.04 0 0.52 1.04 0 0.56 1.04 0 0.6 1.04 0 0.64 1.04 0 0.68 1.04 0 0.72 1.04 0 0.76 1.04 0 0.8 1.04 0 0.84 1.04 0 0.88 1.04 0 0.92 1.04 0 0.96 1.04 0 1 1.04 0 1.04 1.04 0 1.08 1.04 0 1.12 1.04 0 1.16 1.04 0 1.2 1.04 0 0 1.08 0 0.04 1.08 0 0.08 1.08 0 0.12 1.08 0 0.16 1.08 0 0.2 1.08 0 0.24 1.08 0 0.28 1.08 0 0.32 1.08 0 0.36 1.08 0 0.4 1.08 0 0.44 1.08 0 0.48 1.08 0 0.52 1.08 0 0.56 1.08 0 0.6 1.08 0 0.64 1.08 0 0.68 1.08 0 0.72 1.08 0 0.76 1.08 0 0.8 1.08 0 0.84 1.08 0 0.88 1.08 0 0.92 1.08 0 0.96 1.08 0 1 1.08 0 1.04 1.08 0 1.08 1.08 0 1.12 1.08 0 1.16 1.08 0 1.2 1.08 0 0 1.12 0 
[...]
			<CellData Scalars="Density">
				<DataArray Name="Density" type="Float32" format="ascii">
 0.00647447 0.00768515 0.0115525 0.0188062 0.0297168 0.0442574 0.0624741 0.0845762 0.111083 0.142443 0.179943 0.225739 0.282035 0.351451 0.441771 0.560168 0.692276 0.840667 0.989039 1.09369 1.07967 0.895779 0.710893 0.688001 0.694477 0.722159 0.756973 0.786592 0.809857 0.824805 0.00773621 0.00746918 0.00928245 0.0146335 0.0234218 0.036406 0.0534273 0.0744619 0.0995983 0.128908 0.165148 0.2108 0.268689 0.342221 0.44084 0.566115 0.710743 0.871732 1.03636 1.1553 1.1389 0.95036 0.75407 0.722623 0.722433 0.745075 0.776628 0.804313 0.826039 0.840186 0.0116838 0.00937374 0.0090365 0.0109106 0.0160512 0.0254949 0.0384919 0.0555052 0.0767382 0.102954 0.135477 0.177158 0.230157 0.298999 0.392965 0.509921 0.650959 0.810007 0.973551 1.09891 1.10779 0.957113 0.758193 0.721654 0.720571 0.741971 0.774579 0.804999 0.829418 0.845452 0.0190335 0.0148003 0.0109703 0.0109003 0.0131237 0.018549 0.0282374 0.0439959 0.0645545 0.0904382 0.122479 0.163059 0.215315 0.283971 0.376303 0.490898 0.628994 0.78711 0.947432 1.07634 1.10818 0.993413 0.791189 0.738128 0.729007 0.744334 0.773692 0.803788 0.82818 0.843856 0.0300259 0.0236728 0.0161945 0.0131738 0.0135439 0.0165582 0.0233959 0.0362953 0.0567631 0.0831892 0.112662 0.150745 0.200809 0.268463 0.359118 0.474237 0.612372 0.770041 0.935133 1.06914 1.11523 1.03179 0.846678 0.764304 0.742631 0.748962 0.773157 0.8029 0.827343 0.843073 0.0446362 0.0367242 0.0256599 0.0186086 0.0165701 0.0171185 0.0212204 0.0301276 0.0456327 0.0668722 0.0940847 0.128215 0.174955 0.239187 0.32568 0.437247 0.574499 0.730841 0.894395 1.03595 1.10659 1.06075 0.909021 0.797869 0.763417 0.758815 0.777991 0.807053 0.832429 0.84774 0.0629133 0.0537993 0.0386505 0.0282984 0.0234036 0.0212064 0.0217363 0.026901 0.0369539 0.0520236 0.0733468 0.104643 0.148111 0.20842 0.289654 0.396237 0.528824 0.68422 0.849799 0.997751 1.09373 1.08808 0.983718 0.857548 0.798203 0.781104 0.792715 0.817986 0.843484 0.858371 0.0850739 0.0748594 0.0556431 0.0440212 0.0362567 0.0300612 0.0268601 0.0274856 0.0335738 0.0437564 0.0608026 0.0878428 0.128325 0.184508 0.260508 0.360458 0.485745 0.635012 0.797006 0.952841 1.06658 1.10241 1.05108 0.935832 0.848412 0.818307 0.81599 0.834446 0.859295 0.874226 0.111633 0.0999952 0.0768458 0.0645506 0.0566472 0.0454555 0.0368288 0.0335195 0.035032 0.043061 0.0565864 0.0809244 0.117923 0.170165 0.240381 0.332309 0.449246 0.58963 0.746826 0.903429 1.03256 1.1082 1.10341 1.02951 0.929728 0.870806 0.850023 0.858704 0.87998 0.893742 0.143028 0.129276 0.103036 0.0904094 0.0830058 0.0665429 0.0518129 0.0436374 0.043015 0.0478531 0.0613007 0.0836186 0.118315 0.166439 0.230218 0.313687 0.419964 0.550348 0.698952 0.853878 0.994366 1.09256 1.14065 1.12207 1.02902 0.940926 0.902837 0.893889 0.905125 0.916661 0.180544 0.165478 0.135535 0.122392 0.112358 0.0936497 0.0730383 0.0606117 0.0564786 0.0612685 0.0740105 0.0954986 0.126887 0.170298 0.227553 0.302269 0.397763 0.515064 0.652394 0.801276 0.942945 1.06663 1.15761 1.18759 1.13843 1.05006 0.978616 0.941081 0.936841 0.942951 0.226345 0.211095 0.177197 0.1629 0.150308 0.127685 0.10421 0.0875427 0.0807147 0.0835441 0.0954699 0.114213 0.141909 0.179775 0.230283 0.29578 0.380168 0.484979 0.609067 0.748152 0.892956 1.03042 1.14933 1.23557 1.25138 1.17919 1.07799 1.01315 0.984654 0.976592 0.282638 0.268937 0.230172 0.215086 0.200242 0.174311 0.147549 0.127851 0.117607 0.118112 0.12678 0.141874 0.164312 0.195536 0.237792 0.293964 0.366134 0.457719 0.569332 0.69899 0.838333 0.980046 1.1271 1.25591 1.32534 1.30954 1.22477 1.12265 1.05217 1.02341 0.35201 0.342379 0.298933 0.283634 0.267757 0.238402 0.207687 0.183878 0.16962 0.166141 0.169988 0.179571 0.195504 0.218274 0.2506 0.295382 0.355623 0.433399 0.531175 0.649214 0.783695 0.931576 1.08959 1.24708 1.3778 1.43933 1.38966 1.2692 1.16222 1.10073 0.442075 0.440775 0.39283 0.375917 0.35832 0.32476 0.288764 0.259685 0.239691 0.229667 0.227266 0.229816 0.237544 0.250604 0.271373 0.303031 0.34993 0.413238 0.497073 0.602785 0.730368 0.877138 1.04411 1.22598 1.39516 1.52661 1.55142 1.47168 1.3367 1.22916 0.560511 0.56605 0.509756 0.490476 0.473382 0.436227 0.395216 0.359464 0.33145 0.313064 0.301662 0.295566 0.293425 0.295183 0.303069 0.320662 0.350976 0.39988 0.467922 0.56018 0.677751 0.821867 0.992585 1.18306 1.38862 1.59441 1.70514 1.69716 1.57884 1.44559 0.692575 0.710641 0.650748 0.628568 0.611547 0.573445 0.527724 0.484751 0.448199 0.419291 0.397091 0.379487 0.365926 0.35493 0.349725 0.35086 0.365619 0.396004 0.44855 0.525269 0.630574 0.76694 0.934254 1.13292 1.3642 1.62546 1.825 1.92342 1.89389 1.77686 0.84086 0.871563 0.809756 0.78673 0.769271 0.729835 0.683097 0.633982 0.588647 0.549333 0.514522 0.48409 0.457079 0.433122 0.412635 0.399798 0.395881 0.408376 0.441527 0.501788 0.592559 0.717592 0.880481 1.08261 1.3267 1.63546 1.9153 2.13599 2.27093 2.21639 0.989426 1.03623 0.973382 0.947225 0.934484 0.893556 0.848803 0.795953 0.745908 0.69789 0.651531 0.608533 0.568305 0.530697 0.496839 0.467581 0.448508 0.441333 0.45691 0.496193 0.569659 0.677651 0.83275 1.03565 1.29292 1.63696 1.99534 2.34637 2.69459 2.74835 1.0942 1.15543 1.09908 1.07625 1.06896 1.03542 0.997136 0.952012 0.902744 0.853104 0.8004 0.747702 0.698377 0.648346 0.602575 0.559765 0.525071 0.501577 0.496306 0.517944 0.567505 0.660843 0.796279 0.995597 1.26903 1.63632 2.07227 2.5582 3.10385 3.37053 1.0805 1.13961 1.10842 1.10877 1.11571 1.1068 1.0938 1.06629 1.03228 0.993979 0.942333 0.89255 0.837902 0.782995 0.729917 0.677119 0.629972 0.59224 0.569243 0.568143 0.601474 0.6693 0.793742 0.979029 1.25635 1.64991 2.15255 2.7458 3.45253 4.01296 0.897055 0.951649 0.958526 0.994617 1.03284 1.06162 1.08879 1.10275 1.10831 1.09259 1.06638 1.03001 0.979704 0.931108 0.876621 0.821258 0.766303 0.71721 0.677482 0.660681 0.670861 0.726112 0.831 1.00802 1.27315 1.67804 2.24285 2.93373 3.78399 4.58414 0.711223 0.754416 0.758722 0.791883 0.84766 0.91011 0.984863 1.05195 1.10391 1.1411 1.1577 1.14912 1.12694 1.08933 1.04382 0.992336 0.934013 0.880073 0.832666 0.796368 0.79279 0.833596 0.93041 1.09556 1.35923 1.75161 2.33197 3.0999 4.0704 5.03601 0.688123 0.72274 0.721816 0.738297 0.764624 0.798273 0.858206 0.936668 1.03023 1.12282 1.18806 1.23573 1.256 1.24707 1.22579 1.183 1.13331 1.08311 1.03553 0.997023 0.979688 1.00525 1.09968 1.26581 1.5217 1.90747 2.47255 3.26538 4.30265 5.35617 0.694502 0.722441 0.720572 0.729048 0.742755 0.76358 0.798492 0.848823 0.930132 1.02972 1.13915 1.25177 1.32565 1.37805 1.39504 1.38843 1.36391 1.32663 1.29269 1.2674 1.25968 1.27359 1.35424 1.52453 1.77761 2.14698 2.69004 3.47869 4.53118 5.61543 0.722118 0.745029 0.741896 0.744291 0.748959 0.758816 0.781224 0.818488 0.870859 0.941298 1.05064 1.17958 1.31007 1.43974 1.52676 1.59444 1.62549 1.63548 1.63702 1.63404 1.64371 1.6833 1.75405 1.90622 2.15052 2.50661 3.0305 3.78725 4.81844 5.87948 0.756936 0.776576 0.774463 0.773601 0.773085 0.777929 0.792722 0.815972 0.849919 0.90304 0.978892 1.07816 1.22523 1.39011 1.55168 1.7053 1.82532 1.91567 1.99578 2.0753 2.14978 2.23312 2.33245 2.4686 2.69308 3.02803 3.53626 4.27448 5.26802 6.22864 0.786578 0.80428 0.804898 0.803705 0.802818 0.806989 0.817941 0.834351 0.858496 0.893927 0.941182 1.01316 1.12286 1.26958 1.47186 1.6974 1.92407 2.13675 2.34608 2.55848 2.75119 2.93534 3.10122 3.26416 3.47394 3.78762 4.27082 5.0136 6.01391 6.84729 0.809833 0.825999 0.829321 0.828091 0.827247 0.832401 0.843438 0.859196 0.879715 0.905053 0.936835 0.984469 1.05222 1.16243 1.33667 1.57917 1.89456 2.27107 2.69462 3.10452 3.45285 3.78124 4.07262 4.30562 4.53045 4.81918 5.2663 6.00668 7.06841 7.80117 0.824805 0.840136 0.845375 0.843767 0.842898 0.847814 0.858325 0.874086 0.893511 0.916524 0.942928 0.976326 1.02339 1.10087 1.22889 1.44561 1.77769 2.21685 2.74909 3.37065 4.01588 4.58695 5.03256 5.35981 5.61856 5.87197 6.23454 6.83921 7.79239 9.07955
				</DataArray>
				<DataArray Name="Energy" type="Float32" format="ascii">
 970.393 817.278 544.076 334.063 211.562 141.92 100.507 74.1386 56.4219 43.9837 34.8023 27.7602 22.2377 17.8274 14.1571 11.113 8.91466 7.22861 5.93218 4.8735 3.92518 2.99358 2.36994 2.12893 1.98224 1.88596 1.81304 1.74847 1.69218 1.65233 811.877 840.665 675.223 429.172 267.298 172.288 117.225 84.0642 62.877 48.5209 37.9044 29.682 23.301 18.2764 14.1485 10.964 8.63703 6.91352 5.63445 4.62561 3.72832 2.86432 2.2826 2.05342 1.91871 1.83154 1.76758 1.71084 1.6605 1.62201 537.945 668.632 695.323 573.006 391.489 245.425 162.561 112.78 81.4149 60.721 46.0771 35.2557 27.1152 20.856 15.8114 12.1126 9.39217 7.42486 5.95641 4.83205 3.8833 2.99515 2.36145 2.09755 1.94419 1.84306 1.77042 1.70879 1.65485 1.61603 330.078 424.3 569.863 576.804 475.967 337.761 221.823 141.873 96.7623 68.943 50.9 38.176 28.9044 21.8582 16.4533 12.5182 9.65165 7.58549 6.05027 4.88677 3.94122 3.0784 2.42228 2.12565 1.95795 1.84912 1.77396 1.71304 1.65962 1.6193 209.37 264.466 387.986 474.138 462.591 378.024 266.67 172.334 109.75 74.8392 55.1545 41.2029 30.8589 23.0385 17.1412 12.8962 9.85089 7.66672 6.09755 4.92272 3.99084 3.16867 2.51932 2.17269 1.9817 1.86052 1.7792 1.71758 1.66406 1.625 140.72 170.781 243.836 336.647 377.722 364.166 294.972 206.534 136.696 92.863 65.949 48.2548 35.3216 25.7358 18.8176 13.891 10.433 8.00177 6.2889 5.04762 4.09647 3.29492 2.65087 2.24104 2.01546 1.87273 1.77936 1.71325 1.65873 1.62102 99.8052 116.413 161.874 221.332 266.565 295.154 285.698 232.284 167.844 119.551 84.3024 59.0726 41.5685 29.4498 21.056 15.2503 11.2491 8.49489 6.57027 5.21573 4.20924 3.41076 2.77371 2.31597 2.04265 1.87597 1.7699 1.69807 1.64342 1.60702 73.7058 83.6176 112.503 141.784 172.512 206.986 232.639 224.97 185.567 141.096 101.964 70.1258 47.9185 33.1648 23.323 16.6782 12.1497 9.0567 6.92799 5.43728 4.35613 3.53887 2.90751 2.41935 2.08686 1.88882 1.7616 1.67918 1.62251 1.58733 56.1454 62.6278 81.3009 96.7687 109.973 137.228 168.412 185.877 175.961 144.316 108.768 76.2407 52.0379 35.866 25.1817 17.9821 13.0683 9.67883 7.33406 5.69459 4.52857 3.67822 3.03313 2.53339 2.15532 1.91029 1.75589 1.66073 1.60038 1.56503 43.8039 48.3833 60.6717 68.9641 75.0049 93.3224 120.035 141.478 144.475 128.46 100.825 73.4324 51.7703 36.5556 26.1772 18.9427 13.8572 10.2807 7.76651 5.99354 4.73131 3.82952 3.16387 2.65973 2.24804 1.94904 1.76509 1.64985 1.57965 1.54257 34.6862 37.8282 46.0565 50.936 55.3029 66.2552 84.6617 102.281 108.98 100.878 82.9463 64.2341 48.0627 35.5793 26.3276 19.5219 14.5049 10.847 8.21308 6.32574 4.97232 4.00437 3.31022 2.78202 2.35453 2.02364 1.79479 1.6479 1.56374 1.52225 27.686 29.6409 35.2482 38.2124 41.3217 48.455 59.3175 70.3792 76.4336 73.5019 64.2574 53.406 42.772 33.4712 25.8346 19.7503 15.0048 11.3795 8.67741 6.69722 5.25916 4.22433 3.47173 2.91531 2.48168 2.12307 1.84473 1.6648 1.55908 1.50622 22.1917 23.2809 27.1144 28.9357 30.9465 35.4515 41.7307 48.095 52.1861 51.8511 48.107 42.7959 36.6803 30.5051 24.7372 19.6497 15.3522 11.8722 9.15757 7.10518 5.58439 4.46949 3.65581 3.0653 2.60554 2.22937 1.93204 1.7094 1.56751 1.49813 17.8012 18.2694 20.8621 21.8854 23.0991 25.8216 29.5536 33.2817 35.9726 36.6316 35.6317 33.5079 30.5302 27.0251 23.1477 19.229 15.554 12.3281 9.65725 7.55534 5.95326 4.76334 3.88424 3.2323 2.7385 2.35363 2.04001 1.77609 1.60109 1.50692 14.149 14.1525 15.8178 16.4713 17.1807 18.8718 21.1217 23.3982 25.2578 26.2285 26.3783 25.8705 24.7636 23.1665 21.0165 18.3814 15.4987 12.6834 10.1565 8.04585 6.37741 5.10026 4.14392 3.42851 2.88784 2.47067 2.14913 1.87817 1.67195 1.54065 11.1081 10.9668 12.1184 12.5304 12.9208 13.925 15.2913 16.725 18.0314 18.9835 19.5509 19.7847 19.6662 19.2438 18.3871 16.9992 15.0831 12.8508 10.6058 8.57218 6.86212 5.50329 4.45791 3.65931 3.05935 2.59862 2.26774 1.99591 1.77651 1.61931 8.9129 8.64027 9.397 9.65983 9.86608 10.4537 11.2735 12.1783 13.0971 13.8842 14.5309 15.0271 15.3763 15.5646 15.5047 15.0826 14.1375 12.68 10.9015 9.0708 7.39524 5.97989 4.84141 3.95009 3.27401 2.73979 2.38714 2.11457 1.90819 1.74253 7.22895 6.91689 7.42893 7.59091 7.67619 8.01474 8.50977 9.07356 9.6978 10.296 10.8678 11.3994 11.889 12.347 12.6898 12.8519 12.6757 12.0266 10.8931 9.437 7.91575 6.50246 5.29135 4.30625 3.53732 2.91708 2.52736 2.24632 2.05859 1.88954 5.93425 5.63791 5.96 6.05456 6.1038 6.29702 6.5799 6.93819 7.34654 7.77717 8.22504 8.69345 9.16841 9.67012 10.1676 10.6085 10.9003 10.8904 10.4627 9.54995 8.33762 7.03103 5.80233 4.73582 3.86668 3.1558 2.70795 2.4064 2.22157 2.04191 4.87596 4.62873 4.83507 4.8903 4.92698 5.05278 5.22207 5.44357 5.70222 6.00049 6.33232 6.70579 7.11259 7.56139 8.05506 8.57801 9.07402 9.43849 9.55253 9.24119 8.47987 7.44274 6.31172 5.23271 4.28343 3.49293 2.95256 2.61095 2.38827 2.19077 3.9279 3.73147 3.88655 3.94457 3.99434 4.1003 4.21356 4.3604 4.53343 4.73579 4.97674 5.26411 5.58889 5.95759 6.3838 6.86883 7.4012 7.91931 8.33834 8.47882 8.22328 7.58213 6.69702 5.71212 4.75457 3.9161 3.27121 2.83993 2.5352 2.31598 2.99622 2.86704 2.99807 3.08138 3.17171 3.29812 3.41386 3.54198 3.68158 3.83232 4.0074 4.22748 4.47223 4.76622 5.10399 5.50778 5.98501 6.5073 7.0334 7.43964 7.58846 7.36919 6.81471 6.05334 5.18118 4.33574 3.62266 3.07968 2.6612 2.39245 2.37048 2.28334 2.36249 2.42363 2.521 2.65295 2.7756 2.90953 3.03543 3.16547 3.3119 3.47355 3.65722 3.88553 4.14551 4.45955 4.84312 5.29267 5.80481 6.31064 6.69859 6.83081 6.59833 6.09036 5.40958 4.6346 3.90097 3.26512 2.74297 2.42015 2.12898 2.0536 2.09784 2.12603 2.17309 2.24174 2.31675 2.42046 2.53498 2.66075 2.78309 2.91666 3.06621 3.23292 3.42933 3.66035 3.95139 4.3072 4.73666 5.23502 5.71373 6.0574 6.10807 5.84003 5.34618 4.72426 4.03737 3.35608 2.77091 2.40686 1.98216 1.91871 1.94426 1.95806 1.98174 2.01559 2.04271 2.08715 2.15622 2.24852 2.35519 2.48268 2.60609 2.73884 2.88828 3.05991 3.27445 3.53779 3.86765 4.28242 4.76073 5.18348 5.40541 5.35801 5.04353 4.56685 3.99028 3.35364 2.7589 2.37431 1.8858 1.83144 1.84303 1.84908 1.8604 1.87261 1.87576 1.88876 1.91059 1.94904 2.02387 2.12369 2.2298 2.35383 2.47094 2.59892 2.73988 2.91713 3.15619 3.4925 3.9145 4.3435 4.63466 4.72107 4.57701 4.24613 3.79379 3.25749 2.71127 2.33896 1.81289 1.76746 1.77034 1.77383 1.77899 1.7791 1.76955 1.76137 1.75596 1.76487 1.79468 1.84506 1.93224 2.04014 2.14954 2.26801 2.38708 2.52731 2.70818 2.95437 3.27014 3.61752 3.90232 4.03259 3.99368 3.80063 3.47589 3.05523 2.60329 2.29121 1.74835 1.71071 1.70871 1.7129 1.71736 1.71294 1.69769 1.67886 1.66069 1.64949 1.64759 1.66496 1.70938 1.77612 1.87859 1.99608 2.11445 2.24635 2.40627 2.61072 2.84267 3.07887 3.26295 3.35751 3.3513 3.25656 3.05648 2.75498 2.41385 2.1855 1.69204 1.66034 1.65475 1.65945 1.66388 1.65837 1.64307 1.62222 1.60028 1.57926 1.56337 1.55912 1.56738 1.601 1.67224 1.77656 1.9079 2.05843 2.22148 2.38813 2.53574 2.66086 2.74213 2.77202 2.7595 2.70867 2.60106 2.41214 2.17903 2.0222 1.65219 1.62182 1.61593 1.61912 1.62481 1.62072 1.60669 1.58697 1.56507 1.54218 1.52175 1.5063 1.49797 1.50664 1.54095 1.61939 1.74201 1.88952 2.04227 2.19028 2.31696 2.39312 2.41941 2.40686 2.3747 2.3379 2.29133 2.1845 2.02158 1.97726
				</DataArray>
				<DataArray Name="F1" type="Float32" format="ascii">
 1 1 1 1 1 1 1 1 1 1 1 1 1 1 1 1 1 1 1 1 1 1 1 1 1 1 1 1 1 1 1 1 1 1 1 1 1 1 1 1 1 1 1 1 1 1 1 1 1 1 1 1 1 1 1 1 1 1 1 1 1 1 1 1 1 1 1 1 1 1 1 1 1 1 1 1 1 1 1 1 1 1 1 1 1 1 1 1 1 1 1 1 1 1 1 1 1 1 1 1 1 1 1 1 1 1 1 1 1 1 1 1 1 1 1 1 1 1 1 1 1 1 1 1 1 1 1 1 1 1 1 1 1 1 1 1 1 1 1 1 1 1 1 1 1 1 1 1 1 1 1 1 1 1 1 1 1 1 1 1 1 1 1 1 1 1 1 1 1 1 1 1 1 1 1 1 1 1 1 1 1 1 1 1 1 1 1 1 1 1 1 1 1 1 1 1 1 1 1 1 1 1 1 1 1 1 1 1 1 1 1 1 1 1 1 1 1 1 1 1 1 1 1 1 1 1 1 1 1 1 1 1 1 1 1 1 1 1 1 1 1 1 1 1 1 1 1 1 1 1 1 1 1 1 1 1 1 1 1 1 1 1 1 1 1 1 1 1 1 1 1 1 1 1 1 1 1 1 1 1 1 1 1 1 1 1 1 1 1 1 1 1 1 1 1 1 1 1 1 1 1 1 1 1 1 1 1 1 1 1 1 1 1 1 1 1 1 1 1 1 1 1 1 1 1 1 1 1 1 1 1 1 1 1 1 1 1 1 1 1 1 1 1 1 1 1 1 1 1 1 1 1 1 1 1 1 1 1 1 1 1 1 1 1 1 1 1 1 1 1 1 1 1 1 1 1 1 1 1 1 1 1 1 1 1 1 1 1 1 1 1 1 1 1 1 1 1 1 1 1 1 1 1 1 1 1 1 1 1 1 1 1 1 1 1 1 1 1 1 1 1 1 1 1 1 1 1 1 1 1 1 1 1 1 1 1 1 1 1 1 1 1 1 1 1 1 1 1 1 1 1 1 1 1 1 1 1 1 1 1 1 1 1 1 1 1 1 1 1 1 1 1 1 1 1 1 1 1 1 1 1 1 1 1 1 1 1 1 1 1 1 1 1 1 1 1 1 1 1 1 1 1 1 1 1 1 1 1 1 1 1 1 1 1 1 1 1 1 1 1 1 1 1 1 1 1 1 1 1 1 1 1 1 1 1 1 1 1 1 1 1 1 1 1 1 1 1 1 1 1 1 1 1 1 1 1 1 1 1 1 1 1 1 1 1 1 1 1 1 1 1 1 1 1 1 1 1 1 1 1 1 1 1 1 1 1 1 1 1 1 1 1 1 1 1 1 1 1 1 1 1 1 1 1 1 1 1 1 1 1 1 1 1 1 1 1 1 1 1 1 1 1 1 1 1 1 1 1 1 1 1 1 1 1 1 1 1 1 1 1 1 1 1 1 1 1 1 1 1 1 1 1 1 1 1 1 1 1 1 1 1 1 1 1 1 1 1 1 1 1 1 1 1 1 1 1 1 1 1 1 1 1 1 1 1 1 1 1 1 1 1 1 1 1 1 1 1 1 1 1 1 1 1 1 1 1 1 1 1 1 1 1 1 1 1 1 1 1 1 1 1 1 1 1 1 1 1 1 1 1 1 1 1 1 1 1 1 1 1 1 1 1 1 1 1 1 1 1 1 1 1 1 1 1 1 1 1 1 1 1 1 1 1 1 1 1 1 1 1 1 1 1 1 1 1 1 1 1 1 1 1 1 1 1 1 1 1 1 1 1 1 1 1 1 1 1 1 1 1 1 1 1 1 1 1 1 1 1 1 1 1 1 1 1 1 1 1 1 1 1 1 1 1 1 1 1 1 1 1 1 1 1 1 1 1 1 1 1 1 1 1 1 1 1 1 1 1 1 1 1 1 1 1 1 1 1 1 1 1 1 1 1 1 1 1 1 1 1 1 1 1 1 1 1 1 1 1 1 1 1 1 1 1 1 1 1 1 1 1 1 1 1 1 1 1 1 1 1 1 1
				</DataArray>
				<DataArray Name="F2" type="Float32" format="ascii">
 0 0 0 0 0 0 0 0 0 0 0 0 0 0 0 0 0 0 0 0 0 0 0 0 0 0 0 0 0 0 0 0 0 0 0 0 0 0 0 0 0 0 0 0 0 0 0 0 0 0 0 0 0 0 0 0 0 0 0 0 0 0 0 0 0 0 0 0 0 0 0 0 0 0 0 0 0 0 0 0 0 0 0 0 0 0 0 0 0 0 0 0 0 0 0 0 0 0 0 0 0 0 0 0 0 0 0 0 0 0 0 0 0 0 0 0 0 0 0 0 0 0 0 0 0 0 0 0 0 0 0 0 0 0 0 0 0 0 0 0 0 0 0 0 0 0 0 0 0 0 0 0 0 0 0 0 0 0 0 0 0 0 0 0 0 0 0 0 0 0 0 0 0 0 0 0 0 0 0 0 0 0 0 0 0 0 0 0 0 0 0 0 0 0 0 0 0 0 0 0 0 0 0 0 0 0 0 0 0 0 0 0 0 0 0 0 0 0 0 0 0 0 0 0 0 0 0 0 0 0 0 0 0 0 0 0 0 0 0 0 0 0 0 0 0 0 0 0 0 0 0 0 0 0 0 0 0 0 0 0 0 0 0 0 0 0 0 0 0 0 0 0 0 0 0 0 0 0 0 0 0 0 0 0 0 0 0 0 0 0 0 0 0 0 0 0 0 0 0 0 0 0 0 0 0 0 0 0 0 0 0 0 0 0 0 0 0 0 0 0 0 0 0 0 0 0 0 0 0 0 0 0 0 0 0 0 0 0 0 0 0 0 0 0 0 0 0 0 0 0 0 0 0 0 0 0 0 0 0 0 0 0 0 0 0 0 0 0 0 0 0 0 0 0 0 0 0 0 0 0 0 0 0 0 0 0 0 0 0 0 0 0 0 0 0 0 0 0 0 0 0 0 0 0 0 0 0 0 0 0 0 0 0 0 0 0 0 0 0 0 0 0 0 0 0 0 0 0 0 0 0 0 0 0 0 0 0 0 0 0 0 0 0 0 0 0 0 0 0 0 0 0 0 0 0 0 0 0 0 0 0 0 0 0 0 0 0 0 0 0 0 0 0 0 0 0 0 0 0 0 0 0 0 0 0 0 0 0 0 0 0 0 0 0 0 0 0 0 0 0 0 0 0 0 0 0 0 0 0 0 0 0 0 0 0 0 0 0 0 0 0 0 0 0 0 0 0 0 0 0 0 0 0 0 0 0 0 0 0 0 0 0 0 0 0 0 0 0 0 0 0 0 0 0 0 0 0 0 0 0 0 0 0 0 0 0 0 0 0 0 0 0 0 0 0 0 0 0 0 0 0 0 0 0 0 0 0 0 0 0 0 0 0 0 0 0 0 0 0 0 0 0 0 0 0 0 0 0 0 0 0 0 0 0 0 0 0 0 0 0 0 0 0 0 0 0 0 0 0 0 0 0 0 0 0 0 0 0 0 0 0 0 0 0 0 0 0 0 0 0 0 0 0 0 0 0 0 0 0 0 0 0 0 0 0 0 0 0 0 0 0 0 0 0 0 0 0 0 0 0 0 0 0 0 0 0 0 0 0 0 0 0 0 0 0 0 0 0 0 0 0 0 0 0 0 0 0 0 0 0 0 0 0 0 0 0 0 0 0 0 0 0 0 0 0 0 0 0 0 0 0 0 0 0 0 0 0 0 0 0 0 0 0 0 0 0 0 0 0 0 0 0 0 0 0 0 0 0 0 0 0 0 0 0 0 0 0 0 0 0 0 0 0 0 0 0 0 0 0 0 0 0 0 0 0 0 0 0 0 0 0 0 0 0 0 0 0 0 0 0 0 0 0 0 0 0 0 0 0 0 0 0 0 0 0 0 0 0 0 0 0 0 0 0 0 0 0 0 0 0 0 0 0 0 0 0 0 0 0 0 0 0 0 0 0 0 0 0 0 0 0 0 0 0 0 0 0 0 0 0 0 0 0 0 0 0 0 0 0 0 0 0 0 0 0 0 0 0 0 0 0 0 0 0 0 0 0 0 0 0 0 0 0 0 0 0 0 0 0 0
				</DataArray>
				<DataArray Name="F3" type="Float32" format="ascii">