<?xml version="1.0"?>
<VTKFile type="PolyData">
	<PolyData>
		<Piece NumberOfPoints="961" NumberOfPolys="900">
			<Points>
				<DataArray type="Float32" NumberOfComponents="3" format="ascii">
 0 0 0 0.04 0 0 0.08 0 0 0.12 0 0 0.16 0 0 0.2 0 0 0.24 0 0 0.28 0 0 0.32 0 0 0.36 0 0 0.4 0 0 0.44 0 0 0.48 0 0 0.52 0 0 0.56 0 0 0.6 0 0 0.64 0 0 0.68 0 0 0.72 0 0 0.76 0 0 0.8 0 0 0.84 0 0 0.88 0 0 0.92 0 0 0.96 0 0 1 0 0 1.04 0 0 1.08 0 0 1.12 0 0 1.16 0 0 1.2 0 0 0 0.04 0 0.04 0.04 0 0.08 0.04 0 0.12 0.04 0 0.16 0.04 0 0.2 0.04 0 0.24 0.04 0 0.28 0.04 0 0.32 0.04 0 0.36 0.04 0 0.4 0.04 0 0.44 0.04 0 0.48 0.04 0 0.52 0.04 0 0.56 0.04 0 0.6 0.04 0 0.64 0.04 0 0.68 0.04 0 0.72 0.04 0 0.76 0.04 0 0.8 0.04 0 0.84 0.04 0 0.88 0.04 0 0.92 0.04 0 0.96 0.04 0 1 0.04 0 1.04 0.04 0 1.08 0.04 0 1.12 0.04 0 1.16 0.04 0 1.2 0.04 0 0 0.08 0 0.04 0.08 0 0.08 0.08 0 0.12 0.08 0 0.16 0.08 0 0.2 0.08 0 0.24 0.08 0 0.28 0.08 0 0.32 0.08 0 0.36 0.08 0 0.4 0.08 0 0.44 0.08 0 0.48 0.08 0 0.52 0.08 0 0.56 0.08 0 0.6 0.08 0 0.64 0.08 0 0.68 0.08 0 0.72 0.08 0 0.76 0.08 0 0.8 0.08 0 0.84 0.08 0 0.88 0.08 0 0.92 0.08 0 0.96 0.08 0 1 0.08 0 1.04 0.08 0 1.08 0.08 0 1.12 0.08 0 1.16 0.08 0 1.2 0.08 0 0 0.12 0 0.04 0.12 0 0.08 0.12 0 0.12 0.12 0 0.16 0.12 0 0.2 0.12 0 0.24 0.12 0 0.28 0.12 0 0.32 0.12 0 0.36 0.12 0 0.4 0.12 0 0.44 0.12 0 0.48 0.12 0 0.52 0.12 0 0.56 0.12 0 0.6 0.12 0 0.64 0.12 0 0.68 0.12 0 0.72 0.12 0 0.76 0.12 0 0.8 0.12 0 0.84 0.12 0 0.88 0.12 0 0.92 0.12 0 0.96 0.12 0 1 0.12 0 1.04 0.12 0 1.08 0.12 0 1.12 0.12 0 1.16 0.12 0 1.2 0.12 0 0 0.16 0 0.04 0.16 0 0.08 0.16 0 0.12 0.16 0 0.16 0.16 0 0.2 0.16 0 0.24 0.16 0 0.28 0.16 0 0.32 0.16 0 0.36 0.16 0 0.4 0.16 0 0.44 0.16 0 0.48 0.16 0 0.52 0.16 0 0.56 0.16 0 0.6 0.16 0 0.64 0.16 0 0.68 0.16 0 0.72 0.16 0 0.76 0.16 0 0.8 0.16 0 0.84 0.16 0 0.88 0.16 0 0.92 0.16 0 0.96 0.16 0 1 0.16 0 1.04 0.16 0 1.08 0.16 0 1.12 0.16 0 1.16 0.16 0 1.2 0.16 0 0 0.2 0 0.04 0.2 0 0.08 0.2 0 0.12 0.2 0 0.16 0.2 0 0.2 0.2 0 0.24 0.2 0 0.28 0.2 0 0.32 0.2 0 0.36 0.2 0 0.4 0.2 0 0.44 0.2 0 0.48 0.2 0 0.52 0.2 0 0.56 0.2 0 0.6 0.2 0 0.64 0.2 0 0.68 0.2 0 0.72 0.2 0 0.76 0.2 0 0.8 0.2 0 0.84 0.2 0 0.88 0.2 0 0.92 0.2 0 0.96 0.2 0 1 0.2 0 1.04 0.2 0 1.08 0.2 0 1.12 0.2 0 1.16 0.2 0 1.2 0.2 0 0 0.24 0 0.04 0.24 0 0.08 0.24 0 0.12 0.24 0 0.16 0.24 0 0.2 0.24 0 0.24 0.24 0 0.28 0.24 0 0.32 0.24 0 0.36 0.24 0 0.4 0.24 0 0.44 0.24 0 0.48 0.24 0 0.52 0.24 0 0.56 0.24 0 0.6 0.24 0 0.64 0.24 0 0.68 0.24 0 0.72 0.24 0 0.76 0.24 0 0.8 0.24 0 0.84 0.24 0 0.88 0.24 0 0.92 0.24 0 0.96 0.24 0 1 0.24 0 1.04 0.24 0 1.08 0.24 0 1.12 0.24 0 1.16 0.24 0 1.2 0.24 0 0 0.28 0 0.04 0.28 0 0.08 0.28 0 0.12 0.28 0 0.16 0.28 0 0.2 0.28 0 0.24 0.28 0 0.28 0.28 0 0.32 0.28 0 0.36 0.28 0 0.4 0.28 0 0.44 0.28 0 0.48 0.28 0 0.52 0.28 0 0.56 0.28 0 0.6 0.28 0 0.64 0.28 0 0.68 0.28 0 0.72 0.28 0 0.76 0.28 0 0.8 0.28 0 0.84 0.28 0 0.88 0.28 0 0.92 0.28 0 0.96 0.28 0 1 0.28 0 1.04 0.28 0 1.08 0.28 0 1.12 0.28 0 1.16 0.28 0 1.2 0.28 0 0 0.32 0 0.04 0.32 0 0.08 0.32 0 0.12 0.32 0 0.16 0.32 0 0.2 0.32 0 0.24 0.32 0 0.28 0.32 0 0.32 0.32 0 0.36 0.32 0 0.4 0.32 0 0.44 0.32 0 0.48 0.32 0 0.52 0.32 0 0.56 0.32 0 0.6 0.32 0 0.64 0.32 0 0.68 0.32 0 0.72 0.32 0 0.76 0.32 0 0.8 0.32 0 0.84 0.32 0 0.88 0.32 0 0.92 0.32 0 0.96 0.32 0 1 0.32 0 1.04 0.32 0 1.08 0.32 0 1.12 0.32 0 1.16 0.32 0 1.2 0.32 0 0 0.36 0 0.04 0.36 0 0.08 0.36 0 0.12 0.36 0 0.16 0.36 0 0.2 0.36 0 0.24 0.36 0 0.28 0.36 0 0.32 0.36 0 0.36 0.36 0 0.4 0.36 0 0.44 0.36 0 0.48 0.36 0 0.52 0.36 0 0.56 0.36 0 0.6 0.36 0 0.64 0.36 0 0.68 0.36 0 0.72 0.36 0 0.76 0.36 0 0.8 0.36 0 0.84 0.36 0 0.88 0.36 0 0.92 0.36 0 0.96 0.36 0 1 0.36 0 1.04 0.36 0 1.08 0.36 0 1.12 0.36 0 1.16 0.36 0 1.2 0.36 0 0 0.4 0 0.04 0.4 0 0.08 0.4 0 0.12 0.4 0 0.16 0.4 0 0.2 0.4 0 0.24 0.4 0 0.28 0.4 0 0.32 0.4 0 0.36 0.4 0 0.4 0.4 0 0.44 0.4 0 0.48 0.4 0 0.52 0.4 0 0.56 0.4 0 0.6 0.4 0 0.64 0.4 0 0.68 0.4 0 0.72 0.4 0 0.76 0.4 0 0.8 0.4 0 0.84 0.4 0 0.88 0.4 0 0.92 0.4 0 0.96 0.4 0 1 0.4 0 1.04 0.4 0 1.08 0.4 0 1.12 0.4 0 1.16 0.4 0 1.2 0.4 0 0 0.44 0 0.04 0.44 0 0.08 0.44 0 0.12 0.44 0 0.16 0.44 0 0.2 0.44 0 0.24 0.44 0 0.28 0.44 0 0.32 0.44 0 0.36 0.44 0 0.4 0.44 0 0.44 0.44 0 0.48 0.44 0 0.52 0.44 0 0.56 0.44 0 0.6 0.44 0 0.64 0.44 0 0.68 0.44 0 0.72 0.44 0 0.76 0.44 0 0.8 0.44 0 0.84 0.44 0 0.88 0.44 0 0.92 0.44 0 0.96 0.44 0 1 0.44 0 1.04 0.44 0 1.08 0.44 0 1.12 0.44 0 1.16 0.44 0 1.2 0.44 0 0 0.48 0 0.04 0.48 0 0.08 0.48 0 0.12 0.48 0 0.16 0.48 0 0.2 0.48 0 0.24 0.48 0 0.28 0.48 0 0.32 0.48 0 0.36 0.48 0 0.4 0.48 0 0.44 0.48 0 0.48 0.48 0 0.52 0.48 0 0.56 0.48 0 0.6 0.48 0 0.64 0.48 0 0.68 0.48 0 0.72 0.48 0 0.76 0.48 0 0.8 0.48 0 0.84 0.48 0 0.88 0.48 0 0.92 0.48 0 0.96 0.48 0 1 0.48 0 1.04 0.48 0 1.08 0.48 0 1.12 0.48 0 1.16 0.48 0 1.2 0.48 0 0 0.52 0 0.04 0.52 0 0.08 0.52 0 0.12 0.52 0 0.16 0.52 0 0.2 0.52 0 0.24 0.52 0 0.28 0.52 0 0.32 0.52 0 0.36 0.52 0 0.4 0.52 0 0.44 0.52 0 0.48 0.52 0 0.52 0.52 0 0.56 0.52 0 0.6 0.52 0 0.64 0.52 0 0.68 0.52 0 0.72 0.52 0 0.76 0.52 0 0.8 0.52 0 0.84 0.52 0 0.88 0.52 0 0.92 0.52 0 0.96 0.52 0 1 0.52 0 1.04 0.52 0 1.08 0.52 0 1.12 0.52 0 1.16 0.52 0 1.2 0.52 0 0 0.56 0 0.04 0.56 0 0.08 0.56 0 0.12 0.56 0 0.16 0.56 0 0.2 0.56 0 0.24 0.56 0 0.28 0.56 0 0.32 0.56 0 0.36 0.56 0 0.4 0.56 0 0.44 0.56 0 0.48 0.56 0 0.52 0.56 0 0.56 0.56 0 0.6 0.56 0 0.64 0.56 0 0.68 0.56 0 0.72 0.56 0 0.76 0.56 0 0.8 0.56 0 0.84 0.56 0 0.88 0.56 0 0.92 0.56 0 0.96 0.56 0 1 0.56 0 1.04 0.56 0 1.08 0.56 0 1.12 0.56 0 1.16 0.56 0 1.2 0.56 0 0 0.6 0 0.04 0.6 0 0.08 0.6 0 0.12 0.6 0 0.16 0.6 0 0.2 0.6 0 0.24 0.6 0 0.28 0.6 0 0.32 0.6 0 0.36 0.6 0 0.4 0.6 0 0.44 0.6 0 0.48 0.6 0 0.52 0.6 0 0.56 0.6 0 0.6 0.6 0 0.64 0.6 0 0.68 0.6 0 0.72 0.6 0 0.76 0.6 0 0.8 0.6 0 0.84 0.6 0 0.88 0.6 0 0.92 0.6 0 0.96 0.6 0 1 0.6 0 1.04 0.6 0 1.08 0.6 0 1.12 0.6 0 1.16 0.6 0 1.2 0.6 0 0 0.64 0 0.04 0.64 0 0.08 0.64 0 0.12 0.64 0 0.16 0.64 0 0.2 0.64 0 0.24 0.64 0 0.28 0.64 0 0.32 0.64 0 0.36 0.64 0 0.4 0.64 0 0.44 0.64 0 0.48 0.64 0 0.52 0.64 0 0.56 0.64 0 0.6 0.64 0 0.64 0.64 0 0.68 0.64 0 0.72 0.64 0 0.76 0.64 0 0.8 0.64 0 0.84 0.64 0 0.88 0.64 0 0.92 0.64 0 0.96 0.64 0 1 0.64 0 1.04 0.64 0 1.08 0.64 0 1.12 0.64 0 1.16 0.64 0 1.2 0.64 0 0 0.68 0 0.04 0.68 0 0.08 0.68 0 0.12 0.68 0 0.16 0.68 0 0.2 0.68 0 0.24 0.68 0 0.28 0.68 0 0.32 0.68 0 0.36 0.68 0 0.4 0.68 0 0.44 0.68 0 0.48 0.68 0 0.52 0.68 0 0.56 0.68 0 0.6 0.68 0 0.64 0.68 0 0.68 0.68 0 0.72 0.68 0 0.76 0.68 0 0.8 0.68 0 0.84 0.68 0 0.88 0.68 0 0.92 0.68 0 0.96 0.68 0 1 0.68 0 1.04 0.68 0 1.08 0.68 0 1.12 0.68 0 1.16 0.68 0 1.2 0.68 0 0 0.72 0 0.04 0.72 0 0.08 0.72 0 0.12 0.72 0 0.16 0.72 0 0.2 0.72 0 0.24 0.72 0 0.28 0.72 0 0.32 0.72 0 0.36 0.72 0 0.4 0.72 0 0.44 0.72 0 0.48 0.72 0 0.52 0.72 0 0.56 0.72 0 0.6 0.72 0 0.64 0.72 0 0.68 0.72 0 0.72 0.72 0 0.76 0.72 0 0.8 0.72 0 0.84 0.72 0 0.88 0.72 0 0.92 0.72 0 0.96 0.72 0 1 0.72 0 1.04 0.72 0 1.08 0.72 0 1.12 0.72 0 1.16 0.72 0 1.2 0.72 0 0 0.76 0 0.04 0.76 0 0.08 0.76 0 0.12 0.76 0 0.16 0.76 0 0.2 0.76 0 0.24 0.76 0 0.28 0.76 0 0.32 0.76 0 0.36 0.76 0 0.4 0.76 0 0.44 0.76 0 0.48 0.76 0 0.52 0.76 0 0.56 0.76 0 0.6 0.76 0 0.64 0.76 0 0.68 0.76 0 0.72 0.76 0 0.76 0.76 0 0.8 0.76 0 0.84 0.76 0 0.88 0.76 0 0.92 0.76 0 0.96 0.76 0 1 0.76 0 1.04 0.76 0 1.08 0.76 0 1.12 0.76 0 1.16 0.76 0 1.2 0.76 0 0 0.8 0 0.04 0.8 0 0.08 0.8 0 0.12 0.8 0 0.16 0.8 0 0.2 0.8 0 0.24 0.8 0 0.28 0.8 0 0.32 0.8 0 0.36 0.8 0 0.4 0.8 0 0.44 0.8 0 0.48 0.8 0 0.52 0.8 0 0.56 0.8 0 0.6 0.8 0 0.64 0.8 0 0.68 0.8 0 0.72 0.8 0 0.76 0.8 0 0.8 0.8 0 0.84 0.8 0 0.88 0.8 0 0.92 0.8 0 0.96 0.8 0 1 0.8 0 1.04 0.8 0 1.08 0.8 0 1.12 0.8 0 1.16 0.8 0 1.2 0.8 0 0 0.84 0 0.04 0.84 0 0.08 0.84 0 0.12 0.84 0 0.16 0.84 0 0.2 0.84 0 0.24 0.84 0 0.28 0.84 0 0.32 0.84 0 0.36 0.84 0 0.4 0.84 0 0.44 0.84 0 0.48 0.84 0 0.52 0.84 0 0.56 0.84 0 0.6 0.84 0 0.64 0.84 0 0.68 0.84 0 0.72 0.84 0 0.76 0.84 0 0.8 0.84 0 0.84 0.84 0 0.88 0.84 0 0.92 0.84 0 0.96 0.84 0 1 0.84 0 1.04 0.84 0 1.08 0.84 0 1.12 0.84 0 1.16 0.84 0 1.2 0.84 0 0 0.88 0 0.04 0.88 0 0.08 0.88 0 0.12 0.88 0 0.16 0.88 0 0.2 0.88 0 0.24 0.88 0 0.28 0.88 0 0.32 0.88 0 0.36 0.88 0 0.4 0.88 0 0.44 0.88 0 0.48 0.88 0 0.52 0.88 0 0.56 0.88 0 0.6 0.88 0 0.64 0.88 0 0.68 0.88 0 0.72 0.88 0 0.76 0.88 0 0.8 0.88 0 0.84 0.88 0 0.88 0.88 0 0.92 0.88 0 0.96 0.88 0 1 0.88 0 1.04 0.88 0 1.08 0.88 0 1.12 0.88 0 1.16 0.88 0 1.2 0.88 0 0 0.92 0 0.04 0.92 0 0.08 0.92 0 0.12 0.92 0 0.16 0.92 0 0.2 0.92 0 0.24 0.92 0 0.28 0.92 0 0.32 0.92 0 0.36 0.92 0 0.4 0.92 0 0.44 0.92 0 0.48 0.92 0 0.52 0.92 0 0.56 0.92 0 0.6 0.92 0 0.64 0.92 0 0.68 0.92 0 0.72 0.92 0 0.76 0.92 0 0.8 0.92 0 0.84 0.92 0 0.88 0.92 0 0.92 0.92 0 0.96 0.92 0 1 0.92 0 1.04 0.92 0 1.08 0.92 0 1.12 0.92 0 1.16 0.92 0 1.2 0.92 0 0 0.96 0 0.04 0.96 0 0.08 0.96 0 0.12 0.96 0 0.16 0.96 0 0.2 0.96 0 0.24 0.96 0 0.28 0.96 0 0.32 0.96 0 0.36 0.96 0 0.4 0.96 0 0.44 0.96 0 0.48 0.96 0 0.52 0.96 0 0.56 0.96 0 0.6 0.96 0 0.64 0.96 0 0.68 0.96 0 0.72 0.96 0 0.76 0.96 0 0.8 0.96 0 0.84 0.96 0 0.88 0.96 0 0.92 0.96 0 0.96 0.96 0 1 0.96 0 1.04 0.96 0 1.08 0.96 0 1.12 0.96 0 1.16 0.96 0 1.2 0.96 0 0 1 0 0.04 1 0 0.08 1 0 0.12 1 0 0.16 1 0 0.2 1 0 0.24 1 0 0.28 1 0 0.32 1 0 0.36 1 0 0.4 1 0 0.44 1 0 0.48 1 0 0.52 1 0 0.56 1 0 0.6 1 0 0.64 1 0 0.68 1 0 0.72 1 0 0.76 1 0 0.8 1 0 0.84 1 0 0.88 1 0 0.92 1 0 0.96 1 0 1 1 0 1.04 1 0 1.08 1 0 1.12 1 0 1.16 1 0 1.2 1 0 0 1.04 0 0.04 1.04 0 0.08 1.04 0 0.12 1.04 0 0.16 1.04 0 0.2 1.04 0 0.24 1.04 0 0.28 1.04 0 0.32 1.04 0 0.36 1.04 0 0.4 1.04 0 0.44 1.04 0 0.48 1.04 0 0.52 1.04 0 0.56 1.04 0 0.6 1.04 0 0.64 1.04 0 0.68 1.04 0 0.72 1.04 0 0.76 1.04 0 0.8 1.04 0 0.84 1.04 0 0.88 1.04 0 0.92 1.04 0 0.96 1.04 0 1 1.04 0 1.04 1.04 0 1.08 1.04 0 1.12 1.04 0 1.16 1.04 0 1.2 1.04 0 0 1.08 0 0.04 1.08 0 0.08 1.08 0 0.12 1.08 0 0.16 1.08 0 0.2 1.08 0 0.24 1.08 0 0.28 1.08 0 0.32 1.08 0 0.36 1.08 0 0.4 1.08 0 0.44 1.08 0 0.48 1.08 0 0.52 1.08 0 0.56 1.08 0 0.6 1.08 0 0.64 1.08 0 0.68 1.08 0 0.72 1.08 0 0.76 1.08 0 0.8 1.08 0 0.84 1.08 0 0.88 1.08 0 0.92 1.08 0 0.96 1.08 0 1 1.08 0 1.04 1.08 0 1.08 1.08 0 1.12 1.08 0 1.16 1.08 0 1.2 1.08 0 0 1.12 0 
[...]
			<CellData Scalars="Density">
				<DataArray Name="Density" type="Float32" format="ascii">
 0.00670367 0.00718786 0.00833885 0.0103031 0.0130936 0.0167467 0.0213396 0.0269988 0.0339541 0.0425601 0.0533532 0.0671251 0.0850524 0.108948 0.141483 0.186759 0.250968 0.343852 0.481737 0.692897 1.02156 1.50629 2.11834 2.61573 2.51625 1.69092 1.10399 1.01379 1.00028 1 0.00718935 0.0076811 0.00880061 0.0107986 0.0137382 0.0176933 0.0227766 0.0291209 0.036963 0.0466281 0.0586355 0.0737024 0.0929483 0.118112 0.151641 0.19762 0.262242 0.355083 0.490782 0.693256 1.0059 1.48364 2.08532 2.55644 2.46341 1.66497 1.10568 1.01407 1.00028 1 0.00834156 0.00880268 0.0098073 0.0117286 0.0146503 0.0186804 0.0239636 0.0306575 0.0390042 0.0493588 0.0622412 0.0784264 0.099049 0.125839 0.161419 0.209718 0.276948 0.372984 0.514371 0.728831 1.06198 1.55793 2.17586 2.61379 2.44205 1.59164 1.09847 1.01317 1.00024 1 0.0103066 0.0108027 0.011734 0.0137548 0.0169361 0.0213985 0.0273689 0.035028 0.0446903 0.0567177 0.0717081 0.0904348 0.114149 0.144579 0.184391 0.237776 0.310793 0.413531 0.56226 0.787162 1.13617 1.64081 2.21696 2.55767 2.34331 1.49569 1.08481 1.01112 1.00016 1 0.0130975 0.0137432 0.0146618 0.0169482 0.0206499 0.0258697 0.0329308 0.0420474 0.0535785 0.0679672 0.0858024 0.108025 0.135839 0.171301 0.217113 0.277773 0.360344 0.475733 0.643285 0.894058 1.27525 1.80882 2.37499 2.58268 2.22031 1.35398 1.0588 1.00722 1.00008 1 0.0167501 0.0176969 0.0186951 0.0214159 0.025883 0.0321357 0.0405634 0.0514048 0.0650495 0.0819827 0.102935 0.12886 0.161326 0.202303 0.25551 0.325399 0.420657 0.554483 0.747543 1.03615 1.47044 2.03212 2.54576 2.60462 2.00449 1.21709 1.04189 1.00393 1.00003 1 0.0213445 0.0227792 0.0239836 0.0273926 0.0329496 0.0405908 0.050785 0.0637363 0.0799433 0.0998768 0.124462 0.154805 0.192662 0.240583 0.302281 0.384166 0.494914 0.651829 0.881841 1.2239 1.73364 2.32301 2.71802 2.57499 1.71302 1.13003 1.02363 1.00143 1 1 0.0270039 0.0291245 0.0306795 0.0350645 0.0420822 0.0514524 0.0638012 0.0792665 0.0983957 0.121834 0.150476 0.185875 0.22999 0.285892 0.358605 0.455004 0.588462 0.777156 1.05694 1.47728 2.05131 2.60598 2.79237 2.32206 1.38838 1.07919 1.01116 1.00027 1 1 0.0339613 0.0369617 0.039032 0.0447206 0.0536351 0.0651529 0.0800617 0.0985257 0.121113 0.148539 0.182075 0.223225 0.2749 0.340397 0.426058 0.541087 0.701363 0.933273 1.27795 1.7922 2.40175 2.82519 2.75312 1.87187 1.18594 1.03769 1.00342 1.00002 1 1 0.042567 0.0466285 0.0493824 0.0567539 0.0679994 0.0821207 0.100112 0.122035 0.148726 0.180918 0.220099 0.268467 0.329041 0.40696 0.509757 0.649253 0.847853 1.13697 1.57217 2.16474 2.73517 2.9081 2.38869 1.42522 1.09006 1.01514 1.00055 1 1 1 0.0533601 0.0586243 0.0622626 0.0717075 0.0858213 0.103027 0.12469 0.150825 0.182318 0.220298 0.266525 0.323569 0.395978 0.489215 0.614686 0.789181 1.03852 1.4079 1.95559 2.57037 2.94129 2.77399 1.83255 1.18699 1.03985 1.00388 1.00004 1 1 1 0.0671324 0.0736935 0.0784385 0.0904247 0.107937 0.128899 0.154974 0.186126 0.223625 0.268684 0.323812 0.39239 0.479796 0.595334 0.751671 0.973744 1.29897 1.77415 2.3914 2.91951 2.96574 2.24892 1.34894 1.08118 1.01349 1.00047 1 1 1 1 0.0850614 0.0929393 0.0990731 0.114112 0.135764 0.16121 0.192704 0.230191 0.275087 0.329411 0.3961 0.48009 0.58869 0.734196 0.93694 1.22564 1.65351 2.24856 2.8267 3.03768 2.59332 1.62286 1.14169 1.03118 1.00258 1.00002 1 1 1 1 0.10896 0.118102 0.12587 0.144581 0.171143 0.202236 0.240495 0.285929 0.340606 0.407044 0.489715 0.595441 0.734654 0.925358 1.19265 1.58795 2.13852 2.74485 3.08851 2.8455 1.89182 1.22379 1.0566 1.0077 1.00017 1 1 1 1 1 0.1415 0.151642 0.161452 0.184435 0.217128 0.255262 0.302177 0.358488 0.425996 0.509783 0.614488 0.752512 0.937299 1.19323 1.5598 2.08668 2.68868 3.06449 2.97892 2.11711 1.34218 1.08534 1.0162 1.0008 1 1 1 1 1 1 0.18678 0.197617 0.209768 0.237792 0.277765 0.325594 0.383864 0.454991 0.541011 0.649256 0.788828 0.97336 1.22687 1.58816 2.08724 2.65074 3.08092 3.07293 2.30905 1.44288 1.11008 1.02735 1.00226 1.00002 1 1 1 1 1 1 0.251001 0.262242 0.276988 0.310906 0.360353 0.420676 0.495302 0.588026 0.701564 0.847673 1.03835 1.29812 1.65306 2.138 2.68826 3.08154 3.08272 2.36917 1.51214 1.14244 1.03795 1.00434 1.00008 1 1 1 1 1 1 1 0.343886 0.355104 0.373034 0.413509 0.475883 0.554548 0.65172 0.777823 0.932999 1.13781 1.40742 1.77515 2.24832 2.74469 3.06413 3.07342 2.36794 1.56402 1.15529 1.04488 1.00654 1.00018 1 1 1 1 1 1 1 1 0.481775 0.490791 0.514477 0.562318 0.643177 0.747894 0.881656 1.0569 1.27809 1.57296 1.9556 2.39306 2.82777 3.08806 2.97898 2.30903 1.51202 1.15536 1.04898 1.00789 1.00029 1 1 1 1 1 1 1 1 1 0.692942 0.69328 0.72888 0.78722 0.894233 1.03592 1.22413 1.47757 1.79176 2.16472 2.5703 2.92017 3.03786 2.84561 2.11689 1.44302 1.14243 1.04484 1.0079 1.00036 1 1 1 1 1 1 1 1 1 1 1.02161 1.00594 1.06209 1.1361 1.27524 1.47088 1.733 2.05212 2.40089 2.73466 2.94109 2.96666 2.59323 1.89236 1.34214 1.11007 1.03797 1.00654 1.00029 1 1 1 1 1 1 1 1 1 1 1 1.50636 1.48371 1.55801 1.64096 1.80839 2.03254 2.32208 2.60713 2.82468 2.90787 2.77379 2.2485 1.62269 1.22389 1.08538 1.02736 1.00433 1.00018 1 1 1 1 1 1 1 1 1 1 1 1 2.11839 2.08539 2.17588 2.21744 2.37441 2.5462 2.71733 2.79295 2.7526 2.38858 1.83244 1.3488 1.1416 1.0566 1.01619 1.00227 1.00008 1 1 1 1 1 1 1 1 1 1 1 1 1 2.61572 2.55646 2.61377 2.55799 2.58221 2.60474 2.57459 2.32243 1.87146 1.42521 1.187 1.08117 1.03116 1.0077 1.00081 1.00002 1 1 1 1 1 1 1 1 1 1 1 1 1 1 2.51614 2.46335 2.44184 2.34354 2.21988 2.00479 1.71282 1.38853 1.18591 1.09004 1.03984 1.01348 1.00258 1.00017 1 1 1 1 1 1 1 1 1 1 1 1 1 1 1 1 1.69084 1.66494 1.59144 1.4958 1.35384 1.21708 1.13 1.07918 1.03769 1.01514 1.00388 1.00047 1.00002 1 1 1 1 1 1 1 1 1 1 1 1 1 1 1 1 1 1.10399 1.10567 1.09845 1.0848 1.05879 1.04189 1.02362 1.01115 1.00342 1.00055 1.00004 1 1 1 1 1 1 1 1 1 1 1 1 1 1 1 1 1 1 1 1.01379 1.01406 1.01317 1.01112 1.00722 1.00393 1.00143 1.00027 1.00002 1 1 1 1 1 1 1 1 1 1 1 1 1 1 1 1 1 1 1 1 1 1.00028 1.00028 1.00024 1.00016 1.00008 1.00003 1 1 1 1 1 1 1 1 1 1 1 1 1 1 1 1 1 1 1 1 1 1 1 1 1 1 1 1 1 1 1 1 1 1 1 1 1 1 1 1 1 1 1 1 1 1 1 1 1 1 1 1 1 1
				</DataArray>
				<DataArray Name="Energy" type="Float32" format="ascii">
 24.7915 23.0896 19.909 16.1195 12.6899 9.92837 7.79906 6.17294 4.91841 3.93553 3.15271 2.52082 2.00553 1.58344 1.23798 0.95735 0.732169 0.554568 0.417504 0.314324 0.238073 0.180971 0.136624 0.100325 0.0627286 0.0231532 0.00123705 9.6267e-06 2.50137e-06 2.5e-06 23.0848 21.5646 18.8181 15.3366 12.0575 9.3656 7.28131 5.70131 4.50026 3.57674 2.85542 2.28358 1.82405 1.45061 1.14489 0.894588 0.69105 0.528184 0.400569 0.302787 0.229698 0.175454 0.132902 0.0971857 0.0600919 0.021577 0.00115461 9.31711e-06 2.50133e-06 2.5e-06 19.9024 18.8138 16.8876 14.1232 11.3095 8.87458 6.92374 5.41996 4.26919 3.38474 2.69643 2.15375 1.71994 1.36964 1.0846 0.852224 0.663788 0.512617 0.393219 0.300344 0.228848 0.173938 0.130589 0.0942538 0.0565054 0.0182782 0.000857164 7.18953e-06 2.50088e-06 2.5e-06 16.114 15.3307 14.1171 12.0449 9.78515 7.74901 6.06434 4.74469 3.7272 2.94577 2.34062 1.86748 1.49296 1.19277 0.950454 0.753914 0.594562 0.465813 0.362329 0.280588 0.217067 0.167448 0.126558 0.0908083 0.0531535 0.0151857 0.0006004 5.2625e-06 2.50043e-06 2.5e-06 12.6862 12.053 11.3005 9.77881 8.02877 6.41246 5.04293 3.956 3.11203 2.46248 1.9602 1.56864 1.25969 1.01273 0.813313 0.651328 0.519296 0.412105 0.325501 0.25617 0.201066 0.15685 0.119108 0.084025 0.0465329 0.010253 0.000290561 3.43859e-06 2.50014e-06 2.5e-06 9.92633 9.36372 8.86736 7.74254 6.40977 5.16652 4.09771 3.23994 2.56744 2.04557 1.63863 1.31935 1.06596 0.862635 0.698024 0.563565 0.453624 0.363676 0.290372 0.230939 0.18299 0.14315 0.108395 0.0739838 0.035954 0.00471378 7.98888e-05 2.62953e-06 2.50003e-06 2.5e-06 7.79739 7.28029 6.91816 6.05885 5.0398 4.09554 3.27817 2.61764 2.09427 1.68409 1.36082 1.10428 0.898876 0.732587 0.59696 0.485547 0.393691 0.318211 0.256353 0.205607 0.164439 0.128545 0.095958 0.0615696 0.0228327 0.00139526 1.40929e-05 2.50982e-06 2.5e-06 2.5e-06 6.17164 5.7009 5.4158 4.7402 3.95259 3.23657 2.61555 2.11107 1.70737 1.38728 1.132 0.926958 0.760614 0.624693 0.512901 0.420267 0.34351 0.279654 0.226866 0.183166 0.146592 0.113332 0.0813443 0.0456463 0.00975865 0.000266005 3.42493e-06 2.50052e-06 2.5e-06 2.5e-06 4.91749 4.50024 4.26641 3.72431 3.10918 2.56338 2.0907 1.7055 1.39442 1.14501 0.943632 0.779817 0.645372 0.533909 0.441508 0.364289 0.299676 0.245632 0.200452 0.162752 0.129417 0.0981243 0.065503 0.0271354 0.00229634 2.95018e-05 2.54152e-06 2.50003e-06 2.5e-06 2.5e-06 3.93486 3.57695 3.38307 2.94428 2.4609 2.04232 1.68039 1.38452 1.14385 0.948785 0.789447 0.658168 0.549157 0.457916 0.381194 0.31667 0.262355 0.216123 0.177303 0.143909 0.112689 0.0818161 0.0465782 0.0104871 0.000315989 3.8946e-06 2.50121e-06 2.5e-06 2.5e-06 2.5e-06 3.15237 2.85585 2.69564 2.34058 1.96025 1.6371 1.35832 1.12966 0.942148 0.788869 0.662309 0.556781 0.468074 0.392995 0.329412 0.275281 0.229274 0.189894 0.156256 0.12546 0.0954321 0.0632545 0.0248354 0.00198745 2.55046e-05 2.54197e-06 2.50004e-06 2.5e-06 2.5e-06 2.5e-06 2.52059 2.28399 2.15332 1.86798 1.56958 1.31929 1.10324 0.925523 0.778729 0.657526 0.556571 0.471556 0.399241 0.337375 0.284417 0.23904 0.19979 0.166028 0.135936 0.106843 0.0763053 0.0401954 0.00714117 0.000185522 3.23498e-06 2.50091e-06 2.5e-06 2.5e-06 2.5e-06 2.5e-06 2.00538 1.82428 1.71964 1.49335 1.2607 1.06659 0.898831 0.760168 0.644859 0.548796 0.467885 0.399207 0.340246 0.289217 0.245011 0.206702 0.173336 0.143926 0.115799 0.0868179 0.0535476 0.0163344 0.000849897 9.93e-06 2.51486e-06 2.50002e-06 2.5e-06 2.5e-06 2.5e-06 2.5e-06 1.58331 1.45075 1.36931 1.19287 1.01331 0.863273 0.73296 0.62473 0.53396 0.457876 0.39305 0.337411 0.289262 0.247365 0.210203 0.177914 0.149467 0.122274 0.0948718 0.0637475 0.0263249 0.00272578 4.62279e-05 2.63418e-06 2.50023e-06 2.5e-06 2.5e-06 2.5e-06 2.5e-06 2.5e-06 1.23787 1.14495 1.08435 0.950284 0.813449 0.698224 0.597126 0.512979 0.441561 0.381305 0.329484 0.284619 0.245086 0.210265 0.179498 0.152089 0.126083 0.0997918 0.0707436 0.0349704 0.00583056 0.000160114 3.30615e-06 2.50192e-06 2.5e-06 2.5e-06 2.5e-06 2.5e-06 2.5e-06 2.5e-06 0.957272 0.89459 0.85205 0.75379 0.651244 0.563619 0.485518 0.420202 0.36431 0.31668 0.275322 0.239123 0.20685 0.177968 0.152097 0.127422 0.102547 0.0751213 0.0410338 0.0091954 0.000377022 5.67174e-06 2.51023e-06 2.50002e-06 2.5e-06 2.5e-06 2.5e-06 2.5e-06 2.5e-06 2.5e-06 0.732102 0.691022 0.663651 0.594473 0.519269 0.45354 0.39368 0.343318 0.299589 0.262288 0.229193 0.199776 0.173335 0.149467 0.126097 0.102537 0.0764085 0.0441419 0.0118652 0.000705637 1.05439e-05 2.53243e-06 2.50009e-06 2.5e-06 2.5e-06 2.5e-06 2.5e-06 2.5e-06 2.5e-06 2.5e-06 0.554514 0.528146 0.512537 0.465711 0.412073 0.363667 0.318171 0.279666 0.245538 0.216112 0.189807 0.166049 0.143924 0.122268 0.0998045 0.0751287 0.0441229 0.0129988 0.000933392 1.66109e-05 2.5712e-06 2.50024e-06 2.5e-06 2.5e-06 2.5e-06 2.5e-06 2.5e-06 2.5e-06 2.5e-06 2.5e-06 0.417465 0.400534 0.393167 0.36228 0.325469 0.290374 0.256352 0.226874 0.200438 0.177317 0.156238 0.135962 0.1158 0.0948853 0.0707525 0.0410401 0.011861 0.000934302 1.96893e-05 2.60386e-06 2.50045e-06 2.5e-06 2.5e-06 2.5e-06 2.5e-06 2.5e-06 2.5e-06 2.5e-06 2.5e-06 2.5e-06 0.314296 0.302759 0.300307 0.28055 0.256164 0.230886 0.205591 0.183199 0.162744 0.143913 0.125438 0.106852 0.0868092 0.0637512 0.0349696 0.00919902 0.000705519 1.65778e-05 2.60404e-06 2.50058e-06 2.5e-06 2.5e-06 2.5e-06 2.5e-06 2.5e-06 2.5e-06 2.5e-06 2.5e-06 2.5e-06 2.5e-06 0.238052 0.229678 0.228826 0.217046 0.201064 0.182993 0.164391 0.146608 0.129394 0.11269 0.095425 0.076314 0.0535498 0.026334 0.00583217 0.000376636 1.05509e-05 2.57121e-06 2.50045e-06 2.5e-06 2.5e-06 2.5e-06 2.5e-06 2.5e-06 2.5e-06 2.5e-06 2.5e-06 2.5e-06 2.5e-06 2.5e-06 0.180958 0.175436 0.173919 0.167443 0.156833 0.143147 0.128505 0.113336 0.0981067 0.081814 0.0632487 0.0401953 0.0163372 0.00272581 0.000160268 5.67701e-06 2.53237e-06 2.50024e-06 2.5e-06 2.5e-06 2.5e-06 2.5e-06 2.5e-06 2.5e-06 2.5e-06 2.5e-06 2.5e-06 2.5e-06 2.5e-06 2.5e-06 0.136614 0.13289 0.130576 0.126557 0.119096 0.108398 0.0959389 0.0813461 0.0654884 0.0465681 0.0248265 0.00713688 0.000849806 4.62871e-05 3.30501e-06 2.51024e-06 2.50009e-06 2.5e-06 2.5e-06 2.5e-06 2.5e-06 2.5e-06 2.5e-06 2.5e-06 2.5e-06 2.5e-06 2.5e-06 2.5e-06 2.5e-06 2.5e-06 0.100318 0.097177 0.0942426 0.090806 0.0840111 0.0739849 0.0615606 0.0456446 0.0271293 0.0104843 0.00198693 0.000185498 9.9114e-06 2.63415e-06 2.50192e-06 2.50002e-06 2.5e-06 2.5e-06 2.5e-06 2.5e-06 2.5e-06 2.5e-06 2.5e-06 2.5e-06 2.5e-06 2.5e-06 2.5e-06 2.5e-06 2.5e-06 2.5e-06 0.0627228 0.0600848 0.0564968 0.0531509 0.0465236 0.0359528 0.0228302 0.00975686 0.00229567 0.000315926 2.54591e-05 3.23396e-06 2.51487e-06 2.50023e-06 2.5e-06 2.5e-06 2.5e-06 2.5e-06 2.5e-06 2.5e-06 2.5e-06 2.5e-06 2.5e-06 2.5e-06 2.5e-06 2.5e-06 2.5e-06 2.5e-06 2.5e-06 2.5e-06 0.0231487 0.0215716 0.0182724 0.0151842 0.0102504 0.00471271 0.00139548 0.00026602 2.94647e-05 3.89333e-06 2.54197e-06 2.5009e-06 2.50002e-06 2.5e-06 2.5e-06 2.5e-06 2.5e-06 2.5e-06 2.5e-06 2.5e-06 2.5e-06 2.5e-06 2.5e-06 2.5e-06 2.5e-06 2.5e-06 2.5e-06 2.5e-06 2.5e-06 2.5e-06 0.00123671 0.00115413 0.000856678 0.000600252 0.000290463 7.98694e-05 1.4086e-05 3.42493e-06 2.54151e-06 2.50121e-06 2.50004e-06 2.5e-06 2.5e-06 2.5e-06 2.5e-06 2.5e-06 2.5e-06 2.5e-06 2.5e-06 2.5e-06 2.5e-06 2.5e-06 2.5e-06 2.5e-06 2.5e-06 2.5e-06 2.5e-06 2.5e-06 2.5e-06 2.5e-06 9.62406e-06 9.31295e-06 7.18555e-06 5.26086e-06 3.43815e-06 2.62952e-06 2.50981e-06 2.50052e-06 2.50003e-06 2.5e-06 2.5e-06 2.5e-06 2.5e-06 2.5e-06 2.5e-06 2.5e-06 2.5e-06 2.5e-06 2.5e-06 2.5e-06 2.5e-06 2.5e-06 2.5e-06 2.5e-06 2.5e-06 2.5e-06 2.5e-06 2.5e-06 2.5e-06 2.5e-06 2.50137e-06 2.50133e-06 2.50088e-06 2.50043e-06 2.50014e-06 2.50003e-06 2.5e-06 2.5e-06 2.5e-06 2.5e-06 2.5e-06 2.5e-06 2.5e-06 2.5e-06 2.5e-06 2.5e-06 2.5e-06 2.5e-06 2.5e-06 2.5e-06 2.5e-06 2.5e-06 2.5e-06 2.5e-06 2.5e-06 2.5e-06 2.5e-06 2.5e-06 2.5e-06 2.5e-06 2.5e-06 2.5e-06 2.5e-06 2.5e-06 2.5e-06 2.5e-06 2.5e-06 2.5e-06 2.5e-06 2.5e-06 2.5e-06 2.5e-06 2.5e-06 2.5e-06 2.5e-06 2.5e-06 2.5e-06 2.5e-06 2.5e-06 2.5e-06 2.5e-06 2.5e-06 2.5e-06 2.5e-06 2.5e-06 2.5e-06 2.5e-06 2.5e-06 2.5e-06 2.5e-06
				</DataArray>
				<DataArray Name="F1" type="Float32" format="ascii">
 1 1 1 1 1 1 1 1 1 1 1 1 1 1 1 1 1 1 1 1 1 1 1 1 1 1 1 1 1 1 1 1 1 1 1 1 1 1 1 1 1 1 1 1 1 1 1 1 1 1 1 1 1 1 1 1 1 1 1 1 1 1 1 1 1 1 1 1 1 1 1 1 1 1 1 1 1 1 1 1 1 1 1 1 1 1 1 1 1 1 1 1 1 1 1 1 1 1 1 1 1 1 1 1 1 1 1 1 1 1 1 1 1 1 1 1 1 1 1 1 1 1 1 1 1 1 1 1 1 1 1 1 1 1 1 1 1 1 1 1 1 1 1 1 1 1 1 1 1 1 1 1 1 1 1 1 1 1 1 1 1 1 1 1 1 1 1 1 1 1 1 1 1 1 1 1 1 1 1 1 1 1 1 1 1 1 1 1 1 1 1 1 1 1 1 1 1 1 1 1 1 1 1 1 1 1 1 1 1 1 1 1 1 1 1 1 1 1 1 1 1 1 1 1 1 1 1 1 1 1 1 1 1 1 1 1 1 1 1 1 1 1 1 1 1 1 1 1 1 1 1 1 1 1 1 1 1 1 1 1 1 1 1 1 1 1 1 1 1 1 1 1 1 1 1 1 1 1 1 1 1 1 1 1 1 1 1 1 1 1 1 1 1 1 1 1 1 1 1 1 1 1 1 1 1 1 1 1 1 1 1 1 1 1 1 1 1 1 1 1 1 1 1 1 1 1 1 1 1 1 1 1 1 1 1 1 1 1 1 1 1 1 1 1 1 1 1 1 1 1 1 1 1 1 1 1 1 1 1 1 1 1 1 1 1 1 1 1 1 1 1 1 1 1 1 1 1 1 1 1 1 1 1 1 1 1 1 1 1 1 1 1 1 1 1 1 1 1 1 1 1 1 1 1 1 1 1 1 1 1 1 1 1 1 1 1 1 1 1 1 1 1 1 1 1 1 1 1 1 1 1 1 1 1 1 1 1 1 1 1 1 1 1 1 1 1 1 1 1 1 1 1 1 1 1 1 1 1 1 1 1 1 1 1 1 1 1 1 1 1 1 1 1 1 1 1 1 1 1 1 1 1 1 1 1 1 1 1 1 1 1 1 1 1 1 1 1 1 1 1 1 1 1 1 1 1 1 1 1 1 1 1 1 1 1 1 1 1 1 1 1 1 1 1 1 1 1 1 1 1 1 1 1 1 1 1 1 1 1 1 1 1 1 1 1 1 1 1 1 1 1 1 1 1 1 1 1 1 1 1 1 1 1 1 1 1 1 1 1 1 1 1 1 1 1 1 1 1 1 1 1 1 1 1 1 1 1 1 1 1 1 1 1 1 1 1 1 1 1 1 1 1 1 1 1 1 1 1 1 1 1 1 1 1 1 1 1 1 1 1 1 1 1 1 1 1 1 1 1 1 1 1 1 1 1 1 1 1 1 1 1 1 1 1 1 1 1 1 1 1 1 1 1 1 1 1 1 1 1 1 1 1 1 1 1 1 1 1 1 1 1 1 1 1 1 1 1 1 1 1 1 1 1 1 1 1 1 1 1 1 1 1 1 1 1 1 1 1 1 1 1 1 1 1 1 1 1 1 1 1 1 1 1 1 1 1 1 1 1 1 1 1 1 1 1 1 1 1 1 1 1 1 1 1 1 1 1 1 1 1 1 1 1 1 1 1 1 1 1 1 1 1 1 1 1 1 1 1 1 1 1 1 1 1 1 1 1 1 1 1 1 1 1 1 1 1 1 1 1 1 1 1 1 1 1 1 1 1 1 1 1 1 1 1 1 1 1 1 1 1 1 1 1 1 1 1 1 1 1 1 1 1 1 1 1 1 1 1 1 1 1 1 1 1 1 1 1 1 1 1 1 1 1 1 1 1 1 1 1 1 1 1 1 1 1 1 1 1 1 1 1 1 1 1 1 1 1 1 1 1 1 1 1 1 1 1 1 1 1 1 1 1 1 1 1 1 1 1 1 1 1 1 1 1 1 1 1 1 1 1 1 1 1 1 1 1 1 1 1 1
				</DataArray>
				<DataArray Name="F2" type="Float32" format="ascii">
 0 0 0 0 0 0 0 0 0 0 0 0 0 0 0 0 0 0 0 0 0 0 0 0 0 0 0 0 0 0 0 0 0 0 0 0 0 0 0 0 0 0 0 0 0 0 0 0 0 0 0 0 0 0 0 0 0 0 0 0 0 0 0 0 0 0 0 0 0 0 0 0 0 0 0 0 0 0 0 0 0 0 0 0 0 0 0 0 0 0 0 0 0 0 0 0 0 0 0 0 0 0 0 0 0 0 0 0 0 0 0 0 0 0 0 0 0 0 0 0 0 0 0 0 0 0 0 0 0 0 0 0 0 0 0 0 0 0 0 0 0 0 0 0 0 0 0 0 0 0 0 0 0 0 0 0 0 0 0 0 0 0 0 0 0 0 0 0 0 0 0 0 0 0 0 0 0 0 0 0 0 0 0 0 0 0 0 0 0 0 0 0 0 0 0 0 0 0 0 0 0 0 0 0 0 0 0 0 0 0 0 0 0 0 0 0 0 0 0 0 0 0 0 0 0 0 0 0 0 0 0 0 0 0 0 0 0 0 0 0 0 0 0 0 0 0 0 0 0 0 0 0 0 0 0 0 0 0 0 0 0 0 0 0 0 0 0 0 0 0 0 0 0 0 0 0 0 0 0 0 0 0 0 0 0 0 0 0 0 0 0 0 0 0 0 0 0 0 0 0 0 0 0 0 0 0 0 0 0 0 0 0 0 0 0 0 0 0 0 0 0 0 0 0 0 0 0 0 0 0 0 0 0 0 0 0 0 0 0 0 0 0 0 0 0 0 0 0 0 0 0 0 0 0 0 0 0 0 0 0 0 0 0 0 0 0 0 0 0 0 0 0 0 0 0 0 0 0 0 0 0 0 0 0 0 0 0 0 0 0 0 0 0 0 0 0 0 0 0 0 0 0 0 0 0 0 0 0 0 0 0 0 0 0 0 0 0 0 0 0 0 0 0 0 0 0 0 0 0 0 0 0 0 0 0 0 0 0 0 0 0 0 0 0 0 0 0 0 0 0 0 0 0 0 0 0 0 0 0 0 0 0 0 0 0 0 0 0 0 0 0 0 0 0 0 0 0 0 0 0 0 0 0 0 0 0 0 0 0 0 0 0 0 0 0 0 0 0 0 0 0 0 0 0 0 0 0 0 0 0 0 0 0 0 0 0 0 0 0 0 0 0 0 0 0 0 0 0 0 0 0 0 0 0 0 0 0 0 0 0 0 0 0 0 0 0 0 0 0 0 0 0 0 0 0 0 0 0 0 0 0 0 0 0 0 0 0 0 0 0 0 0 0 0 0 0 0 0 0 0 0 0 0 0 0 0 0 0 0 0 0 0 0 0 0 0 0 0 0 0 0 0 0 0 0 0 0 0 0 0 0 0 0 0 0 0 0 0 0 0 0 0 0 0 0 0 0 0 0 0 0 0 0 0 0 0 0 0 0 0 0 0 0 0 0 0 0 0 0 0 0 0 0 0 0 0 0 0 0 0 0 0 0 0 0 0 0 0 0 0 0 0 0 0 0 0 0 0 0 0 0 0 0 0 0 0 0 0 0 0 0 0 0 0 0 0 0 0 0 0 0 0 0 0 0 0 0 0 0 0 0 0 0 0 0 0 0 0 0 0 0 0 0 0 0 0 0 0 0 0 0 0 0 0 0 0 0 0 0 0 0 0 0 0 0 0 0 0 0 0 0 0 0 0 0 0 0 0 0 0 0 0 0 0 0 0 0 0 0 0 0 0 0 0 0 0 0 0 0 0 0 0 0 0 0 0 0 0 0 0 0 0 0 0 0 0 0 0 0 0 0 0 0 0 0 0 0 0 0 0 0 0 0 0 0 0 0 0 0 0 0 0 0 0 0 0 0 0 0 0 0 0 0 0 0 0 0 0 0 0 0 0 0 0 0 0 0 0 0 0 0 0 0 0 0 0 0 0 0 0 0 0 0 0 0 0 0 0 0 0 0 0 0 0 0 0 0 0 0 0 0 0 0 0 0 0 0 0 0 0 0 0 0 0 0 0 0 0 0 0
				</DataArray>
				<DataArray Name="F3" type="Float32" format="ascii">
 0 0 0 0 0 0 0 0 0 0 0 0 0 0 0 0 0 0 0 0 0 0 0 0 0 0 0 0 0 0 0 0 0 0 0 0 0 0 0 0 0 0 0 0 0 0 0 0 0 0 0 0 0 0 0 0 0 0 0 0 0 0 0 0 0 0 0 0 0 0 0 0 0 0 0 0 0 0 0 0 0 0 0 0 0 0 0 0 0 0 0 0 0 0 0 0 0 0 0 0 0 0 0 0 0 0 0 0 0 0 0 0 0 0 0 0 0 0 0 0 0 0 0 0 0 0 0 0 0 0 0 0 0 0 0 0 0 0 0 0 0 0 0 0 0 0 0 0 0 0 0 0 0 0 0 0 0 0 0 0 0 0 0 0 0 0 0 0 0 0 0 0 0 0 0 0 0 0 0 0 0 0 0 0 0 0 0 0 0 0 0 0 0 0 0 0 0 0 0 0 0 0 0 0 0 0 0 0 0 0 0 0 0 0 0 0 0 0 0 0 0 0 0 0 0 0 0 0 0 0 0 0 0 0 0 0 0 0 0 0 0 0 0 0 0 0 0 0 0 0 0 0 0 0 0 0 0 0 0 0 0 0 0 0 0 0 0 0 0 0 0 0 0 0 0 0 0 0 0 0 0 0 0 0 0 0 0 0 0 0 0 0 0 0 0 0 0 0 0 0 0 0 0 0 0 0 0 0 0 0 0 0 0 0 0 0 0 0 0 0 0 0 0 0 0 0 0 0 0 0 0 0 0 0 0 0 0 0 0 0 0 0 0 0 0 0 0 0 0 0 0 0 0 0 0 0 0 0 0 0 0 0 0 0 0 0 0 0 0 0 0 0 0 0 0 0 0 0 0 0 0 0 0 0 0 0 0 0 0 0 0 0 0 0 0 0 0 0 0 0 0 0 0 0 0 0 0 0 0 0 0 0 0 0 0 0 0 0 0 0 0 0 0 0 0 0 0 0 0 0 0 0 0 0 0 0 0 0 0 0 0 0 0 0 0 0 0 0 0 0 0 0 0 0 0 0 0 0 0 0 0 0 0 0 0 0 0 0 0 0 0 0 0 0 0 0 0 0 0 0 0 0 0 0 0 0 0 0 0 0 0 0 0 0 0 0 0 0 0 0 0 0 0 0 0 0 0 0 0 0 0 0 0 0 0 0 0 0 0 0 0 0 0 0 0 0 0 0 0 0 0 0 0 0 0 0 0 0 0 0 0 0 0 0 0 0 0 0 0 0 0 0 0 0 0 0 0 0 0 0 0 0 0 0 0 0 0 0 0 0 0 0 0 0 0 0 0 0 0 0 0 0 0 0 0 0 0 0 0 0 0 0 0 0 0 0 0 0 0 0 0 0 0 0 0 0 0 0 0 0 0 0 0 0 0 0 0 0 0 0 0 0 0 0 0 0 0 0 0 0 0 0 0 0 0 0 0 0 0 0 0 0 0 0 0 0 0 0 0 0 0 0 0 0 0 0 0 0 0 0 0 0 0 0 0 0 0 0 0 0 0 0 0 0 0 0 0 0 0 0 0 0 0 0 0 0 0 0 0 0 0 0 0 0 0 0 0 0 0 0 0 0 0 0 0 0 0 0 0 0 0 0 0 0 0 0 0 0 0 0 0 0 0 0 0 0 0 0 0 0 0 0 0 0 0 0 0 0 0 0 0 0 0 0 0 0 0 0 0 0 0 0 0 0 0 0 0 0 0 0 0 0 0 0 0 0 0 0 0 0 0 0 0 0 0 0 0 0 0 0 0 0 0 0 0 0 0 0 0 0 0 0 0 0 0 0 0 0 0 0 0 0 0 0 0 0 0 0 0 0 0 0 0 0 0 0 0 0 0 0 0 0 0 0 0 0 0 0 0 0 0 0 0 0 0 0 0 0 0 0 0 0 0 0 0 0 0 0 0 0 0 0 0 0 0 0 0 0 0 0 0 0 0 0 0 0 0 0 0 0 0 0 0 0 0 0 0 0 0 0 0 0 0 0 0 0 0 0 0 0 0 0 0 0 0 0 0 0 0 0
				</DataArray>