<?xml version="1.0"?>
<VTKFile type="PolyData">
	<PolyData>
		<Piece NumberOfPoints="961" NumberOfPolys="900">
			<Points>
				<DataArray type="Float32" NumberOfComponents="3" format="ascii">
 0 0 0 0.04 0 0 0.08 0 0 0.12 0 0 0.16 0 0 0.2 0 0 0.24 0 0 0.28 0 0 0.32 0 0 0.36 0 0 0.4 0 0 0.44 0 0 0.48 0 0 0.52 0 0 0.56 0 0 0.6 0 0 0.64 0 0 0.68 0 0 0.72 0 0 0.76 0 0 0.8 0 0 0.84 0 0 0.88 0 0 0.92 0 0 0.96 0 0 1 0 0 1.04 0 0 1.08 0 0 1.12 0 0 1.16 0 0 1.2 0 0 0 0.04 0 0.04 0.04 0 0.08 0.04 0 0.12 0.04 0 0.16 0.04 0 0.2 0.04 0 0.24 0.04 0 0.28 0.04 0 0.32 0.04 0 0.36 0.04 0 0.4 0.04 0 0.44 0.04 0 0.48 0.04 0 0.52 0.04 0 0.56 0.04 0 0.6 0.04 0 0.64 0.04 0 0.68 0.04 0 0.72 0.04 0 0.76 0.04 0 0.8 0.04 0 0.84 0.04 0 0.88 0.04 0 0.92 0.04 0 0.96 0.04 0 1 0.04 0 1.04 0.04 0 1.08 0.04 0 1.12 0.04 0 1.16 0.04 0 1.2 0.04 0 0 0.08 0 0.04 0.08 0 0.08 0.08 0 0.12 0.08 0 0.16 0.08 0 0.2 0.08 0 0.24 0.08 0 0.28 0.08 0 0.32 0.08 0 0.36 0.08 0 0.4 0.08 0 0.44 0.08 0 0.48 0.08 0 0.52 0.08 0 0.56 0.08 0 0.6 0.08 0 0.64 0.08 0 0.68 0.08 0 0.72 0.08 0 0.76 0.08 0 0.8 0.08 0 0.84 0.08 0 0.88 0.08 0 0.92 0.08 0 0.96 0.08 0 1 0.08 0 1.04 0.08 0 1.08 0.08 0 1.12 0.08 0 1.16 0.08 0 1.2 0.08 0 0 0.12 0 0.04 0.12 0 0.08 0.12 0 0.12 0.12 0 0.16 0.12 0 0.2 0.12 0 0.24 0.12 0 0.28 0.12 0 0.32 0.12 0 0.36 0.12 0 0.4 0.12 0 0.44 0.12 0 0.48 0.12 0 0.52 0.12 0 0.56 0.12 0 0.6 0.12 0 0.64 0.12 0 0.68 0.12 0 0.72 0.12 0 0.76 0.12 0 0.8 0.12 0 0.84 0.12 0 0.88 0.12 0 0.92 0.12 0 0.96 0.12 0 1 0.12 0 1.04 0.12 0 1.08 0.12 0 1.12 0.12 0 1.16 0.12 0 1.2 0.12 0 0 0.16 0 0.04 0.16 0 0.08 0.16 0 0.12 0.16 0 0.16 0.16 0 0.2 0.16 0 0.24 0.16 0 0.28 0.16 0 0.32 0.16 0 0.36 0.16 0 0.4 0.16 0 0.44 0.16 0 0.48 0.16 0 0.52 0.16 0 0.56 0.16 0 0.6 0.16 0 0.64 0.16 0 0.68 0.16 0 0.72 0.16 0 0.76 0.16 0 0.8 0.16 0 0.84 0.16 0 0.88 0.16 0 0.92 0.16 0 0.96 0.16 0 1 0.16 0 1.04 0.16 0 1.08 0.16 0 1.12 0.16 0 1.16 0.16 0 1.2 0.16 0 0 0.2 0 0.04 0.2 0 0.08 0.2 0 0.12 0.2 0 0.16 0.2 0 0.2 0.2 0 0.24 0.2 0 0.28 0.2 0 0.32 0.2 0 0.36 0.2 0 0.4 0.2 0 0.44 0.2 0 0.48 0.2 0 0.52 0.2 0 0.56 0.2 0 0.6 0.2 0 0.64 0.2 0 0.68 0.2 0 0.72 0.2 0 0.76 0.2 0 0.8 0.2 0 0.84 0.2 0 0.88 0.2 0 0.92 0.2 0 0.96 0.2 0 1 0.2 0 1.04 0.2 0 1.08 0.2 0 1.12 0.2 0 1.16 0.2 0 1.2 0.2 0 0 0.24 0 0.04 0.24 0 0.08 0.24 0 0.12 0.24 0 0.16 0.24 0 0.2 0.24 0 0.24 0.24 0 0.28 0.24 0 0.32 0.24 0 0.36 0.24 0 0.4 0.24 0 0.44 0.24 0 0.48 0.24 0 0.52 0.24 0 0.56 0.24 0 0.6 0.24 0 0.64 0.24 0 0.68 0.24 0 0.72 0.24 0 0.76 0.24 0 0.8 0.24 0 0.84 0.24 0 0.88 0.24 0 0.92 0.24 0 0.96 0.24 0 1 0.24 0 1.04 0.24 0 1.08 0.24 0 1.12 0.24 0 1.16 0.24 0 1.2 0.24 0 0 0.28 0 0.04 0.28 0 0.08 0.28 0 0.12 0.28 0 0.16 0.28 0 0.2 0.28 0 0.24 0.28 0 0.28 0.28 0 0.32 0.28 0 0.36 0.28 0 0.4 0.28 0 0.44 0.28 0 0.48 0.28 0 0.52 0.28 0 0.56 0.28 0 0.6 0.28 0 0.64 0.28 0 0.68 0.28 0 0.72 0.28 0 0.76 0.28 0 0.8 0.28 0 0.84 0.28 0 0.88 0.28 0 0.92 0.28 0 0.96 0.28 0 1 0.28 0 1.04 0.28 0 1.08 0.28 0 1.12 0.28 0 1.16 0.28 0 1.2 0.28 0 0 0.32 0 0.04 0.32 0 0.08 0.32 0 0.12 0.32 0 0.16 0.32 0 0.2 0.32 0 0.24 0.32 0 0.28 0.32 0 0.32 0.32 0 0.36 0.32 0 0.4 0.32 0 0.44 0.32 0 0.48 0.32 0 0.52 0.32 0 0.56 0.32 0 0.6 0.32 0 0.64 0.32 0 0.68 0.32 0 0.72 0.32 0 0.76 0.32 0 0.8 0.32 0 0.84 0.32 0 0.88 0.32 0 0.92 0.32 0 0.96 0.32 0 1 0.32 0 1.04 0.32 0 1.08 0.32 0 1.12 0.32 0 1.16 0.32 0 1.2 0.32 0 0 0.36 0 0.04 0.36 0 0.08 0.36 0 0.12 0.36 0 0.16 0.36 0 0.2 0.36 0 0.24 0.36 0 0.28 0.36 0 0.32 0.36 0 0.36 0.36 0 0.4 0.36 0 0.44 0.36 0 0.48 0.36 0 0.52 0.36 0 0.56 0.36 0 0.6 0.36 0 0.64 0.36 0 0.68 0.36 0 0.72 0.36 0 0.76 0.36 0 0.8 0.36 0 0.84 0.36 0 0.88 0.36 0 0.92 0.36 0 0.96 0.36 0 1 0.36 0 1.04 0.36 0 1.08 0.36 0 1.12 0.36 0 1.16 0.36 0 1.2 0.36 0 0 0.4 0 0.04 0.4 0 0.08 0.4 0 0.12 0.4 0 0.16 0.4 0 0.2 0.4 0 0.24 0.4 0 0.28 0.4 0 0.32 0.4 0 0.36 0.4 0 0.4 0.4 0 0.44 0.4 0 0.48 0.4 0 0.52 0.4 0 0.56 0.4 0 0.6 0.4 0 0.64 0.4 0 0.68 0.4 0 0.72 0.4 0 0.76 0.4 0 0.8 0.4 0 0.84 0.4 0 0.88 0.4 0 0.92 0.4 0 0.96 0.4 0 1 0.4 0 1.04 0.4 0 1.08 0.4 0 1.12 0.4 0 1.16 0.4 0 1.2 0.4 0 0 0.44 0 0.04 0.44 0 0.08 0.44 0 0.12 0.44 0 0.16 0.44 0 0.2 0.44 0 0.24 0.44 0 0.28 0.44 0 0.32 0.44 0 0.36 0.44 0 0.4 0.44 0 0.44 0.44 0 0.48 0.44 0 0.52 0.44 0 0.56 0.44 0 0.6 0.44 0 0.64 0.44 0 0.68 0.44 0 0.72 0.44 0 0.76 0.44 0 0.8 0.44 0 0.84 0.44 0 0.88 0.44 0 0.92 0.44 0 0.96 0.44 0 1 0.44 0 1.04 0.44 0 1.08 0.44 0 1.12 0.44 0 1.16 0.44 0 1.2 0.44 0 0 0.48 0 0.04 0.48 0 0.08 0.48 0 0.12 0.48 0 0.16 0.48 0 0.2 0.48 0 0.24 0.48 0 0.28 0.48 0 0.32 0.48 0 0.36 0.48 0 0.4 0.48 0 0.44 0.48 0 0.48 0.48 0 0.52 0.48 0 0.56 0.48 0 0.6 0.48 0 0.64 0.48 0 0.68 0.48 0 0.72 0.48 0 0.76 0.48 0 0.8 0.48 0 0.84 0.48 0 0.88 0.48 0 0.92 0.48 0 0.96 0.48 0 1 0.48 0 1.04 0.48 0 1.08 0.48 0 1.12 0.48 0 1.16 0.48 0 1.2 0.48 0 0 0.52 0 0.04 0.52 0 0.08 0.52 0 0.12 0.52 0 0.16 0.52 0 0.2 0.52 0 0.24 0.52 0 0.28 0.52 0 0.32 0.52 0 0.36 0.52 0 0.4 0.52 0 0.44 0.52 0 0.48 0.52 0 0.52 0.52 0 0.56 0.52 0 0.6 0.52 0 0.64 0.52 0 0.68 0.52 0 0.72 0.52 0 0.76 0.52 0 0.8 0.52 0 0.84 0.52 0 0.88 0.52 0 0.92 0.52 0 0.96 0.52 0 1 0.52 0 1.04 0.52 0 1.08 0.52 0 1.12 0.52 0 1.16 0.52 0 1.2 0.52 0 0 0.56 0 0.04 0.56 0 0.08 0.56 0 0.12 0.56 0 0.16 0.56 0 0.2 0.56 0 0.24 0.56 0 0.28 0.56 0 0.32 0.56 0 0.36 0.56 0 0.4 0.56 0 0.44 0.56 0 0.48 0.56 0 0.52 0.56 0 0.56 0.56 0 0.6 0.56 0 0.64 0.56 0 0.68 0.56 0 0.72 0.56 0 0.76 0.56 0 0.8 0.56 0 0.84 0.56 0 0.88 0.56 0 0.92 0.56 0 0.96 0.56 0 1 0.56 0 1.04 0.56 0 1.08 0.56 0 1.12 0.56 0 1.16 0.56 0 1.2 0.56 0 0 0.6 0 0.04 0.6 0 0.08 0.6 0 0.12 0.6 0 0.16 0.6 0 0.2 0.6 0 0.24 0.6 0 0.28 0.6 0 0.32 0.6 0 0.36 0.6 0 0.4 0.6 0 0.44 0.6 0 0.48 0.6 0 0.52 0.6 0 0.56 0.6 0 0.6 0.6 0 0.64 0.6 0 0.68 0.6 0 0.72 0.6 0 0.76 0.6 0 0.8 0.6 0 0.84 0.6 0 0.88 0.6 0 0.92 0.6 0 0.96 0.6 0 1 0.6 0 1.04 0.6 0 1.08 0.6 0 1.12 0.6 0 1.16 0.6 0 1.2 0.6 0 0 0.64 0 0.04 0.64 0 0.08 0.64 0 0.12 0.64 0 0.16 0.64 0 0.2 0.64 0 0.24 0.64 0 0.28 0.64 0 0.32 0.64 0 0.36 0.64 0 0.4 0.64 0 0.44 0.64 0 0.48 0.64 0 0.52 0.64 0 0.56 0.64 0 0.6 0.64 0 0.64 0.64 0 0.68 0.64 0 0.72 0.64 0 0.76 0.64 0 0.8 0.64 0 0.84 0.64 0 0.88 0.64 0 0.92 0.64 0 0.96 0.64 0 1 0.64 0 1.04 0.64 0 1.08 0.64 0 1.12 0.64 0 1.16 0.64 0 1.2 0.64 0 0 0.68 0 0.04 0.68 0 0.08 0.68 0 0.12 0.68 0 0.16 0.68 0 0.2 0.68 0 0.24 0.68 0 0.28 0.68 0 0.32 0.68 0 0.36 0.68 0 0.4 0.68 0 0.44 0.68 0 0.48 0.68 0 0.52 0.68 0 0.56 0.68 0 0.6 0.68 0 0.64 0.68 0 0.68 0.68 0 0.72 0.68 0 0.76 0.68 0 0.8 0.68 0 0.84 0.68 0 0.88 0.68 0 0.92 0.68 0 0.96 0.68 0 1 0.68 0 1.04 0.68 0 1.08 0.68 0 1.12 0.68 0 1.16 0.68 0 1.2 0.68 0 0 0.72 0 0.04 0.72 0 0.08 0.72 0 0.12 0.72 0 0.16 0.72 0 0.2 0.72 0 0.24 0.72 0 0.28 0.72 0 0.32 0.72 0 0.36 0.72 0 0.4 0.72 0 0.44 0.72 0 0.48 0.72 0 0.52 0.72 0 0.56 0.72 0 0.6 0.72 0 0.64 0.72 0 0.68 0.72 0 0.72 0.72 0 0.76 0.72 0 0.8 0.72 0 0.84 0.72 0 0.88 0.72 0 0.92 0.72 0 0.96 0.72 0 1 0.72 0 1.04 0.72 0 1.08 0.72 0 1.12 0.72 0 1.16 0.72 0 1.2 0.72 0 0 0.76 0 0.04 0.76 0 0.08 0.76 0 0.12 0.76 0 0.16 0.76 0 0.2 0.76 0 0.24 0.76 0 0.28 0.76 0 0.32 0.76 0 0.36 0.76 0 0.4 0.76 0 0.44 0.76 0 0.48 0.76 0 0.52 0.76 0 0.56 0.76 0 0.6 0.76 0 0.64 0.76 0 0.68 0.76 0 0.72 0.76 0 0.76 0.76 0 0.8 0.76 0 0.84 0.76 0 0.88 0.76 0 0.92 0.76 0 0.96 0.76 0 1 0.76 0 1.04 0.76 0 1.08 0.76 0 1.12 0.76 0 1.16 0.76 0 1.2 0.76 0 0 0.8 0 0.04 0.8 0 0.08 0.8 0 0.12 0.8 0 0.16 0.8 0 0.2 0.8 0 0.24 0.8 0 0.28 0.8 0 0.32 0.8 0 0.36 0.8 0 0.4 0.8 0 0.44 0.8 0 0.48 0.8 0 0.52 0.8 0 0.56 0.8 0 0.6 0.8 0 0.64 0.8 0 0.68 0.8 0 0.72 0.8 0 0.76 0.8 0 0.8 0.8 0 0.84 0.8 0 0.88 0.8 0 0.92 0.8 0 0.96 0.8 0 1 0.8 0 1.04 0.8 0 1.08 0.8 0 1.12 0.8 0 1.16 0.8 0 1.2 0.8 0 0 0.84 0 0.04 0.84 0 0.08 0.84 0 0.12 0.84 0 0.16 0.84 0 0.2 0.84 0 0.24 0.84 0 0.28 0.84 0 0.32 0.84 0 0.36 0.84 0 0.4 0.84 0 0.44 0.84 0 0.48 0.84 0 0.52 0.84 0 0.56 0.84 0 0.6 0.84 0 0.64 0.84 0 0.68 0.84 0 0.72 0.84 0 0.76 0.84 0 0.8 0.84 0 0.84 0.84 0 0.88 0.84 0 0.92 0.84 0 0.96 0.84 0 1 0.84 0 1.04 0.84 0 1.08 0.84 0 1.12 0.84 0 1.16 0.84 0 1.2 0.84 0 0 0.88 0 0.04 0.88 0 0.08 0.88 0 0.12 0.88 0 0.16 0.88 0 0.2 0.88 0 0.24 0.88 0 0.28 0.88 0 0.32 0.88 0 0.36 0.88 0 0.4 0.88 0 0.44 0.88 0 0.48 0.88 0 0.52 0.88 0 0.56 0.88 0 0.6 0.88 0 0.64 0.88 0 0.68 0.88 0 0.72 0.88 0 0.76 0.88 0 0.8 0.88 0 0.84 0.88 0 0.88 0.88 0 0.92 0.88 0 0.96 0.88 0 1 0.88 0 1.04 0.88 0 1.08 0.88 0 1.12 0.88 0 1.16 0.88 0 1.2 0.88 0 0 0.92 0 0.04 0.92 0 0.08 0.92 0 0.12 0.92 0 0.16 0.92 0 0.2 0.92 0 0.24 0.92 0 0.28 0.92 0 0.32 0.92 0 0.36 0.92 0 0.4 0.92 0 0.44 0.92 0 0.48 0.92 0 0.52 0.92 0 0.56 0.92 0 0.6 0.92 0 0.64 0.92 0 0.68 0.92 0 0.72 0.92 0 0.76 0.92 0 0.8 0.92 0 0.84 0.92 0 0.88 0.92 0 0.92 0.92 0 0.96 0.92 0 1 0.92 0 1.04 0.92 0 1.08 0.92 0 1.12 0.92 0 1.16 0.92 0 1.2 0.92 0 0 0.96 0 0.04 0.96 0 0.08 0.96 0 0.12 0.96 0 0.16 0.96 0 0.2 0.96 0 0.24 0.96 0 0.28 0.96 0 0.32 0.96 0 0.36 0.96 0 0.4 0.96 0 0.44 0.96 0 0.48 0.96 0 0.52 0.96 0 0.56 0.96 0 0.6 0.96 0 0.64 0.96 0 0.68 0.96 0 0.72 0.96 0 0.76 0.96 0 0.8 0.96 0 0.84 0.96 0 0.88 0.96 0 0.92 0.96 0 0.96 0.96 0 1 0.96 0 1.04 0.96 0 1.08 0.96 0 1.12 0.96 0 1.16 0.96 0 1.2 0.96 0 0 1 0 0.04 1 0 0.08 1 0 0.12 1 0 0.16 1 0 0.2 1 0 0.24 1 0 0.28 1 0 0.32 1 0 0.36 1 0 0.4 1 0 0.44 1 0 0.48 1 0 0.52 1 0 0.56 1 0 0.6 1 0 0.64 1 0 0.68 1 0 0.72 1 0 0.76 1 0 0.8 1 0 0.84 1 0 0.88 1 0 0.92 1 0 0.96 1 0 1 1 0 1.04 1 0 1.08 1 0 1.12 1 0 1.16 1 0 1.2 1 0 0 1.04 0 0.04 1.04 0 0.08 1.04 0 0.12 1.04 0 0.16 1.04 0 0.2 1.04 0 0.24 1.04 0 0.28 1.04 0 0.32 1.04 0 0.36 1.04 0 0.4 1.04 0 0.44 1.04 0 0.48 1.04 0 0.52 1.04 0 0.56 1.04 0 0.6 1.04 0 0.64 1.04 0 0.68 1.04 0 0.72 1.04 0 0.76 1.04 0 0.8 1.04 0 0.84 1.04 0 0.88 1.04 0 0.92 1.04 0 0.96 1.04 0 1 1.04 0 1.04 1.04 0 1.08 1.04 0 1.12 1.04 0 1.16 1.04 0 1.2 1.04 0 0 1.08 0 0.04 1.08 0 0.08 1.08 0 0.12 1.08 0 0.16 1.08 0 0.2 1.08 0 0.24 1.08 0 0.28 1.08 0 0.32 1.08 0 0.36 1.08 0 0.4 1.08 0 0.44 1.08 0 0.48 1.08 0 0.52 1.08 0 0.56 1.08 0 0.6 1.08 0 0.64 1.08 0 0.68 1.08 0 0.72 1.08 0 0.76 1.08 0 0.8 1.08 0 0.84 1.08 0 0.88 1.08 0 0.92 1.08 0 0.96 1.08 0 1 1.08 0 1.04 1.08 0 1.08 1.08 0 1.12 1.08 0 1.16 1.08 0 1.2 1.08 0 0 1.12 0 
[...]
			<CellData Scalars="Density">
				<DataArray Name="Density" type="Float32" format="ascii">
 0.00500849 0.005314 0.00603649 0.00729725 0.00910468 0.011444 0.0143435 0.0178322 0.0219809 0.026896 0.0327409 0.0397437 0.0482254 0.0586342 0.0716012 0.0880407 0.109219 0.136964 0.173874 0.223712 0.291851 0.386107 0.518522 0.709548 0.989429 1.39984 1.9543 2.55613 2.89581 3.18067 0.00531129 0.00559598 0.00625015 0.00745325 0.00925933 0.0116788 0.0147644 0.0185598 0.0231404 0.0286089 0.035122 0.0428937 0.0522264 0.0635637 0.0775073 0.094964 0.117232 0.146171 0.184419 0.235744 0.305574 0.401629 0.535298 0.723736 0.993146 1.39194 1.94976 2.54049 2.8622 3.14107 0.00603092 0.00624961 0.00675087 0.00777973 0.00940043 0.0116484 0.014594 0.0182793 0.0227912 0.0282321 0.034758 0.0425921 0.0520354 0.0635219 0.0776964 0.0954128 0.117912 0.147002 0.185246 0.236352 0.305757 0.401884 0.537895 0.733771 1.0216 1.44468 2.02796 2.63532 2.89673 3.0399 0.00728762 0.00745461 0.00778493 0.00869157 0.0102618 0.0124912 0.0154787 0.0193097 0.0240906 0.0299525 0.0370835 0.0457224 0.0562086 0.0690092 0.0847066 0.104135 0.128525 0.159535 0.199591 0.252341 0.323102 0.419668 0.554096 0.74768 1.03932 1.47478 2.05589 2.63906 2.83084 2.89237 0.00908813 0.00925926 0.00941279 0.01027 0.011906 0.0142948 0.0175828 0.0218611 0.02729 0.0340296 0.0422815 0.052325 0.0644881 0.079254 0.0972711 0.119434 0.146989 0.181662 0.226028 0.283745 0.360545 0.46473 0.609812 0.814757 1.11191 1.55274 2.12786 2.67764 2.76886 2.70897 0.0114179 0.0116764 0.0116605 0.01251 0.0143051 0.0169605 0.0206653 0.0255272 0.0317226 0.0394296 0.0488843 0.0603571 0.0742494 0.0910323 0.111438 0.136383 0.167268 0.205886 0.255069 0.318596 0.402464 0.515763 0.672324 0.895654 1.21793 1.68408 2.255 2.74105 2.71927 2.4412 0.0143076 0.0147549 0.0146076 0.0154984 0.0176012 0.020676 0.0249943 0.0306476 0.0378466 0.0467656 0.0576641 0.0708586 0.086744 0.105906 0.129073 0.157371 0.192223 0.235842 0.291017 0.362495 0.456141 0.582581 0.757486 1.00633 1.36435 1.87172 2.45247 2.84161 2.68043 2.11158 0.0177834 0.0185411 0.0182851 0.0193297 0.0218812 0.0255412 0.0306562 0.0373055 0.0457116 0.0560687 0.0686322 0.0837606 0.101913 0.123702 0.150027 0.182072 0.221541 0.270774 0.333211 0.413629 0.520118 0.663347 0.863114 1.1497 1.56029 2.11931 2.68608 2.9167 2.5559 1.72184 0.0219187 0.0231083 0.0227862 0.0240991 0.0273046 0.031729 0.0378404 0.04571 0.0555654 0.0675867 0.0820924 0.0994177 0.120134 0.144915 0.174801 0.211132 0.255962 0.31188 0.383016 0.475245 0.597309 0.764164 0.99606 1.32881 1.80578 2.39857 2.8955 2.94601 2.27185 1.39319 0.0268205 0.0285649 0.0282133 0.0299469 0.0340214 0.0394183 0.0467359 0.0560242 0.0675695 0.0815105 0.0981808 0.118026 0.141598 0.169784 0.203701 0.244996 0.295887 0.359748 0.440885 0.546925 0.688822 0.883804 1.16043 1.55813 2.1127 2.70626 3.03892 2.83074 1.85165 1.19772 0.0326517 0.0350664 0.0347276 0.0370604 0.0422648 0.048844 0.0576127 0.0685689 0.082018 0.0981649 0.117324 0.139976 0.166861 0.198889 0.237504 0.284561 0.342792 0.416083 0.510245 0.633528 0.800688 1.03335 1.36218 1.83852 2.44564 2.97025 3.06378 2.46357 1.43423 1.09807 0.0396373 0.0428258 0.0425476 0.0456837 0.0522827 0.0603067 0.0707658 0.0836637 0.099332 0.117934 0.139955 0.165873 0.196531 0.2331 0.277192 0.331134 0.398142 0.48302 0.592902 0.738867 0.938598 1.22018 1.624 2.18745 2.79463 3.13698 2.91438 1.91586 1.19253 1.0448 0.0480996 0.0521437 0.0519796 0.0561564 0.0644386 0.0741712 0.0866483 0.101785 0.120007 0.14151 0.16677 0.196511 0.231666 0.273587 0.324357 0.386681 0.464712 0.564361 0.69467 0.870369 1.11345 1.45696 1.95153 2.57172 3.07974 3.15343 2.45758 1.4327 1.08897 1.01658 0.0584826 0.0634605 0.0634469 0.0689542 0.0791987 0.090968 0.105785 0.123576 0.144791 0.169655 0.19881 0.233009 0.273589 0.322113 0.381063 0.454042 0.546004 0.664997 0.822295 1.03745 1.34008 1.76888 2.35717 2.96035 3.22454 2.86922 1.81244 1.17911 1.04129 1.00494 0.0714185 0.077376 0.0776079 0.0846327 0.0972153 0.11136 0.128988 0.149903 0.174665 0.203599 0.237412 0.277124 0.324259 0.381064 0.450523 0.537171 0.647776 0.7922 0.987819 1.25649 1.6365 2.17605 2.79983 3.21744 3.17056 2.247 1.33905 1.07587 1.01346 1.00083 0.087819 0.0947957 0.0952929 0.104042 0.119363 0.136331 0.157261 0.181965 0.211056 0.244865 0.284482 0.331037 0.38665 0.453893 0.537228 0.642244 0.778047 0.95864 1.20455 1.54966 2.03505 2.65132 3.19541 3.26449 2.62192 1.56146 1.12886 1.03041 1.00317 1.00005 0.108949 0.117017 0.117751 0.128404 0.146903 0.167168 0.192185 0.221452 0.255842 0.295888 0.342755 0.398097 0.464631 0.546045 0.647489 0.777676 0.948787 1.17959 1.49738 1.94457 2.5408 3.10636 3.32103 2.90956 1.868 1.2129 1.0521 1.00778 1.00032 1 0.136636 0.145889 0.146791 0.159376 0.181541 0.205828 0.235685 0.270722 0.311817 0.359527 0.416117 0.48301 0.564346 0.664912 0.792796 0.95834 1.17994 1.4808 1.90232 2.45883 3.0501 3.36169 3.1091 2.10812 1.30183 1.07887 1.01573 1.00115 1.00001 1 0.173472 0.184061 0.18495 0.19939 0.225855 0.254892 0.291061 0.333069 0.383055 0.440939 0.510026 0.592879 0.694574 0.822277 0.986843 1.20478 1.4965 1.89863 2.44172 3.01903 3.33757 3.20997 2.29404 1.42473 1.10591 1.0256 1.00271 1.00004 1 1 0.223229 0.235285 0.235977 0.252062 0.283603 0.318437 0.362185 0.413761 0.475048 0.547055 0.633823 0.738849 0.870091 1.03875 1.25717 1.54873 1.94848 2.46605 3.00261 3.35892 3.28127 2.44416 1.50582 1.12861 1.03644 1.00488 1.00015 1 1 1 0.291267 0.304988 0.305262 0.322744 0.360199 0.402369 0.455989 0.519609 0.59751 0.688412 0.800835 0.938815 1.11279 1.33921 1.63931 2.03313 2.53356 3.05819 3.3556 3.26268 2.45828 1.54877 1.15713 1.04469 1.00713 1.00035 1 1 1 1 0.385416 0.400896 0.401231 0.419238 0.46444 0.515359 0.582595 0.663209 0.763301 0.884085 1.03263 1.22063 1.45709 1.76834 2.17266 2.65503 3.11398 3.33373 3.2272 2.41796 1.57296 1.15951 1.04907 1.00909 1.00058 1 1 1 1 1 0.517695 0.534396 0.537077 0.553465 0.609416 0.672084 0.756973 0.863322 0.996246 1.16018 1.36346 1.6225 1.94883 2.3637 2.79682 3.17655 3.34232 3.0947 2.32422 1.49599 1.15236 1.05017 1.00971 1.00073 1.00001 1 1 1 1 1 0.708539 0.722637 0.732707 0.74692 0.814167 0.895189 1.00643 1.14871 1.32867 1.55643 1.83803 2.19066 2.56451 2.9615 3.23401 3.26667 2.92454 2.09559 1.41682 1.13457 1.04419 1.00902 1.00074 1.00001 1 1 1 1 1 1 0.988193 0.991781 1.02028 1.03813 1.11131 1.21699 1.3639 1.56036 1.80514 2.11421 2.44113 2.80293 3.08346 3.21765 3.15648 2.6148 1.85478 1.31547 1.10241 1.03629 1.00719 1.00058 1.00001 1 1 1 1 1 1 1 1.39824 1.39023 1.44309 1.47307 1.55171 1.6834 1.87109 2.11921 2.39621 2.71103 2.96468 3.13458 3.15253 2.87834 2.24051 1.58415 1.20364 1.07926 1.02589 1.00486 1.00035 1 1 1 1 1 1 1 1 1 1.95244 1.94759 2.02616 2.05406 2.1266 2.25406 2.45144 2.6878 2.89232 3.0406 3.06618 2.92041 2.44692 1.82984 1.32569 1.13186 1.05283 1.01554 1.00271 1.00015 1 1 1 1 1 1 1 1 1 1 2.55433 2.53871 2.63313 2.638 2.67565 2.74144 2.8401 2.91795 2.94553 2.83 2.4584 1.92743 1.42207 1.18306 1.07687 1.02973 1.0079 1.00115 1.00004 1 1 1 1 1 1 1 1 1 1 1 2.89582 2.86174 2.89608 2.83147 2.76833 2.72033 2.68148 2.5552 2.27225 1.85897 1.4283 1.19424 1.0896 1.04012 1.01381 1.00311 1.00032 1.00001 1 1 1 1 1 1 1 1 1 1 1 1 3.18299 3.14421 3.0424 2.89475 2.71119 2.44356 2.11311 1.7244 1.39116 1.19924 1.09835 1.04391 1.01698 1.00485 1.00084 1.00005 1 1 1 1 1 1 1 1 1 1 1 1 1 1
				</DataArray>
				<DataArray Name="Energy" type="Float32" format="ascii">
 930.18 875.834 771.165 638.073 511.52 407.064 324.918 261.485 212.308 173.716 142.937 118.008 97.5383 80.5393 66.2942 54.2906 44.1546 35.6226 28.491 22.5934 17.7796 13.9094 10.8504 8.47861 6.66001 5.26584 4.16286 3.24427 2.45199 1.61499 876.289 830.489 743.485 623.417 501.868 397.921 314.82 250.565 201.09 162.813 132.816 108.979 89.7533 74.0214 60.9874 50.0836 40.9022 33.1523 26.6343 21.2025 16.7405 13.1392 10.2873 8.0625 6.34179 5.0284 4.00573 3.13718 2.3711 1.53385 771.879 743.535 688.312 597.335 494.284 399.064 318.617 254.469 204.255 165.088 134.331 109.902 90.2387 74.2149 61.0122 50.0397 40.8642 33.1743 26.7369 21.3815 16.9688 13.3773 10.4999 8.22655 6.45207 5.07481 3.99387 3.09568 2.30218 1.43037 638.927 623.312 596.909 534.626 452.954 372.097 300.389 240.949 193.269 155.609 125.89 102.313 83.4657 68.2862 55.947 45.8281 37.4836 30.5643 24.8138 20.0357 16.0812 12.8241 10.1623 8.0141 6.32564 5.00917 3.95431 3.05206 2.23513 1.33733 512.477 501.847 493.679 452.568 390.382 325.234 264.538 212.866 170.673 137.05 110.484 89.5063 72.8557 59.545 48.8103 40.0681 32.8976 26.9726 22.0567 17.9677 14.5692 11.7564 9.45099 7.56648 6.04567 4.83513 3.84502 2.97599 2.14163 1.20968 407.983 398.056 398.616 371.579 324.979 274.232 225.134 182.385 146.895 118.34 95.6433 77.6603 63.3694 51.9362 42.7089 35.1931 29.0197 23.9147 19.6722 16.1345 13.1876 10.7371 8.71467 7.05453 5.69652 4.59396 3.6635 2.83691 1.99595 1.02987 325.739 315.024 318.341 299.977 264.263 225.016 186.24 151.989 123.219 99.8672 81.1669 66.2603 54.3409 44.7594 36.9851 30.6248 25.3786 21.0238 17.3935 14.3605 11.8226 9.70556 7.94436 6.48567 5.27861 4.28491 3.42153 2.62994 1.78082 0.77941 262.199 250.831 254.372 240.712 212.662 182.282 151.958 124.976 102.116 83.4145 68.3111 56.1695 46.3828 38.4479 31.9644 26.6175 22.1791 18.4716 15.3622 12.7518 10.5618 8.72367 7.18994 5.91229 4.84365 3.94862 3.1442 2.36805 1.49807 0.483004 212.911 201.372 204.298 193.2 170.587 146.861 123.226 102.133 84.1435 69.3224 57.2541 47.4611 39.4923 32.97 27.5909 23.1178 19.3748 16.2268 13.5713 11.3271 9.4335 7.83784 6.49217 5.36306 4.41663 3.5948 2.83666 2.05777 1.13123 0.206125 174.208 163.068 165.195 155.649 137.067 118.38 99.9271 83.4662 69.3528 57.6411 48.0204 40.1445 33.668 28.3152 23.856 20.1146 16.9553 14.2778 12.0021 10.0692 8.42745 7.03691 5.861 4.86359 4.02057 3.25277 2.51294 1.70198 0.704593 0.0539343 143.329 133.03 134.453 125.963 110.537 95.707 81.2451 68.3763 57.2935 48.0379 40.3659 34.0238 28.7599 24.3618 20.6633 17.5305 14.8638 12.5845 10.635 8.96643 7.54185 6.32529 5.28594 4.40242 3.62923 2.89762 2.15065 1.26092 0.292741 0.00872221 118.322 109.155 110.017 102.394 89.5704 77.7338 66.3365 56.2366 47.5065 40.1666 34.034 28.9146 24.6229 21.0032 17.9288 15.3007 13.0444 11.1019 9.42656 7.9858 6.74865 5.68356 4.76682 3.97941 3.25122 2.53565 1.74406 0.749699 0.0662767 0.000809626 97.7915 89.8954 90.3355 83.5378 72.9095 63.4293 54.4075 46.4381 39.532 33.6926 28.7713 24.6278 21.1198 18.1321 15.5722 13.3646 11.4526 9.7954 8.35676 7.10839 6.03047 5.09488 4.28268 3.55861 2.85867 2.12839 1.23223 0.275865 0.00825865 3.88824e-05 80.7448 74.1405 74.2956 68.3454 59.5855 51.9774 44.8024 38.4884 32.9995 28.3332 24.3728 21.0082 18.1349 15.6646 13.5281 11.6713 10.0504 8.63331 7.39583 6.31718 5.37459 4.55194 3.83115 3.14341 2.44715 1.64303 0.640289 0.0482567 0.00053563 3.17511e-06 66.4615 61.0898 61.0822 55.9945 48.8373 42.7349 37.013 31.9871 27.6085 23.8681 20.6703 17.9323 15.5741 13.5299 11.746 10.1818 8.80711 7.59614 6.53159 5.59531 4.77099 4.04497 3.37761 2.70462 1.97764 1.0282 0.172696 0.00411768 1.68072e-05 2.50843e-06 54.4255 50.1718 50.1009 45.8692 40.0907 35.2087 30.6402 26.6314 23.1273 20.1193 17.5338 15.3021 13.3648 11.6716 10.1834 8.86675 7.6993 6.66657 5.7487 4.93234 4.21457 3.56001 2.91784 2.22082 1.37259 0.392317 0.0183887 0.000147507 2.64917e-06 2.50007e-06 44.2617 40.9767 40.9189 37.5181 32.917 29.0326 25.3886 22.1871 19.3806 16.9583 14.864 13.0441 11.4522 10.0489 8.80587 7.69948 6.7099 5.82576 5.03762 4.32852 3.69158 3.07041 2.41609 1.64049 0.658462 0.0610343 0.00088206 4.27692e-06 2.50138e-06 2.5e-06 35.706 33.2143 33.2212 30.5943 26.9881 23.9246 21.0301 18.4745 16.2295 14.2773 12.584 11.099 9.79335 8.63218 7.59431 6.66425 5.82884 5.06823 4.38707 3.77276 3.17511 2.5586 1.83466 0.889269 0.133455 0.00327179 1.56888e-05 2.51321e-06 2.50001e-06 2.5e-06 28.5544 26.6853 26.7762 24.8382 22.0709 19.6795 17.4001 15.3658 13.5733 12.0034 10.6338 9.42559 8.3521 7.39385 6.5283 5.7444 5.03171 4.38849 3.79812 3.22585 2.63247 1.95627 1.06841 0.226514 0.00834694 6.09219e-05 2.5781e-06 2.50006e-06 2.5e-06 2.5e-06 22.6399 21.2425 21.4141 20.0546 17.9779 16.1417 14.3634 12.7551 11.3292 10.0697 8.96746 7.98637 7.10854 6.3165 5.5955 4.93376 4.32754 3.77214 3.22529 2.66323 2.0218 1.17712 0.306468 0.0160272 0.00017126 2.80704e-06 2.50039e-06 2.5e-06 2.5e-06 2.5e-06 17.8127 16.7709 16.9942 16.0966 14.5762 13.1918 11.8265 10.562 9.43649 8.42878 7.542 6.74748 6.03062 5.37494 4.76921 4.21113 3.69171 3.17396 2.63511 2.01868 1.2133 0.353944 0.0247612 0.000336807 3.32376e-06 2.50151e-06 2.5e-06 2.5e-06 2.5e-06 2.5e-06 13.9318 13.1611 13.3964 12.8355 11.7627 10.7398 9.70728 8.72501 7.83619 7.03835 6.32645 5.68371 5.09183 4.55289 4.04557 3.55821 3.07156 2.55082 1.96048 1.1752 0.35755 0.0276308 0.000472531 4.06344e-06 2.50352e-06 2.5e-06 2.5e-06 2.5e-06 2.5e-06 2.5e-06 10.8651 10.3021 10.5137 10.1705 9.45508 8.71674 7.94486 7.19075 6.49404 5.86024 5.28782 4.76781 4.28094 3.8312 3.37644 2.91345 2.42293 1.83029 1.06828 0.305354 0.0242146 0.000476463 4.41001e-06 2.50535e-06 2.50001e-06 2.5e-06 2.5e-06 2.5e-06 2.5e-06 2.5e-06 8.48759 8.07192 8.23598 8.01968 7.56956 7.05554 6.48733 5.91125 5.36333 4.86239 4.40045 3.98052 3.55814 3.14433 2.70922 2.22119 1.64187 0.891054 0.224452 0.0164987 0.000335774 4.04523e-06 2.50542e-06 2.50001e-06 2.5e-06 2.5e-06 2.5e-06 2.5e-06 2.5e-06 2.5e-06 6.66527 6.34731 6.45805 6.3294 6.04764 5.69623 5.27896 4.8444 4.41615 4.0228 3.62906 3.25239 2.85926 2.44536 1.97172 1.37382 0.654616 0.135554 0.00818021 0.000170133 3.33599e-06 2.50351e-06 2.50001e-06 2.5e-06 2.5e-06 2.5e-06 2.5e-06 2.5e-06 2.5e-06 2.5e-06 5.26902 5.03157 5.07833 5.01163 4.83659 4.59425 4.28474 3.94906 3.59454 3.25368 2.89697 2.53563 2.1259 1.64809 1.02702 0.396898 0.0600827 0.0032878 6.15734e-05 2.80285e-06 2.50149e-06 2.5e-06 2.5e-06 2.5e-06 2.5e-06 2.5e-06 2.5e-06 2.5e-06 2.5e-06 2.5e-06 4.16459 4.00748 3.99578 3.95554 3.8459 3.66372 3.42123 3.14427 2.83634 2.51378 2.1496 1.74664 1.23011 0.642233 0.170967 0.0186957 0.000878412 1.5543e-05 2.5786e-06 2.5004e-06 2.5e-06 2.5e-06 2.5e-06 2.5e-06 2.5e-06 2.5e-06 2.5e-06 2.5e-06 2.5e-06 2.5e-06 3.24519 3.13811 3.09683 3.05284 2.97666 2.83712 2.63022 2.36863 2.05704 1.70288 1.26138 0.750259 0.274801 0.0486432 0.00406494 0.000148944 4.28052e-06 2.51325e-06 2.50006e-06 2.5e-06 2.5e-06 2.5e-06 2.5e-06 2.5e-06 2.5e-06 2.5e-06 2.5e-06 2.5e-06 2.5e-06 2.5e-06 2.45298 2.37219 2.30322 2.23616 2.14253 1.99655 1.78113 1.49913 1.13271 0.704208 0.292267 0.0663233 0.00818849 0.000542449 1.65445e-05 2.65102e-06 2.50134e-06 2.50001e-06 2.5e-06 2.5e-06 2.5e-06 2.5e-06 2.5e-06 2.5e-06 2.5e-06 2.5e-06 2.5e-06 2.5e-06 2.5e-06 2.5e-06 1.61641 1.53548 1.43172 1.33857 1.21137 1.03065 0.780672 0.483343 0.206362 0.0540667 0.00869057 0.000811632 3.84264e-05 3.20242e-06 2.50819e-06 2.50008e-06 2.5e-06 2.5e-06 2.5e-06 2.5e-06 2.5e-06 2.5e-06 2.5e-06 2.5e-06 2.5e-06 2.5e-06 2.5e-06 2.5e-06 2.5e-06 2.5e-06
				</DataArray>
				<DataArray Name="F1" type="Float32" format="ascii">
 1 1 1 1 1 1 1 1 1 1 1 1 1 1 1 1 1 1 1 1 1 1 1 1 1 1 1 1 1 1 1 1 1 1 1 1 1 1 1 1 1 1 1 1 1 1 1 1 1 1 1 1 1 1 1 1 1 1 1 1 1 1 1 1 1 1 1 1 1 1 1 1 1 1 1 1 1 1 1 1 1 1 1 1 1 1 1 1 1 1 1 1 1 1 1 1 1 1 1 1 1 1 1 1 1 1 1 1 1 1 1 1 1 1 1 1 1 1 1 1 1 1 1 1 1 1 1 1 1 1 1 1 1 1 1 1 1 1 1 1 1 1 1 1 1 1 1 1 1 1 1 1 1 1 1 1 1 1 1 1 1 1 1 1 1 1 1 1 1 1 1 1 1 1 1 1 1 1 1 1 1 1 1 1 1 1 1 1 1 1 1 1 1 1 1 1 1 1 1 1 1 1 1 1 1 1 1 1 1 1 1 1 1 1 1 1 1 1 1 1 1 1 1 1 1 1 1 1 1 1 1 1 1 1 1 1 1 1 1 1 1 1 1 1 1 1 1 1 1 1 1 1 1 1 1 1 1 1 1 1 1 1 1 1 1 1 1 1 1 1 1 1 1 1 1 1 1 1 1 1 1 1 1 1 1 1 1 1 1 1 1 1 1 1 1 1 1 1 1 1 1 1 1 1 1 1 1 1 1 1 1 1 1 1 1 1 1 1 1 1 1 1 1 1 1 1 1 1 1 1 1 1 1 1 1 1 1 1 1 1 1 1 1 1 1 1 1 1 1 1 1 1 1 1 1 1 1 1 1 1 1 1 1 1 1 1 1 1 1 1 1 1 1 1 1 1 1 1 1 1 1 1 1 1 1 1 1 1 1 1 1 1 1 1 1 1 1 1 1 1 1 1 1 1 1 1 1 1 1 1 1 1 1 1 1 1 1 1 1 1 1 1 1 1 1 1 1 1 1 1 1 1 1 1 1 1 1 1 1 1 1 1 1 1 1 1 1 1 1 1 1 1 1 1 1 1 1 1 1 1 1 1 1 1 1 1 1 1 1 1 1 1 1 1 1 1 1 1 1 1 1 1 1 1 1 1 1 1 1 1 1 1 1 1 1 1 1 1 1 1 1 1 1 1 1 1 1 1 1 1 1 1 1 1 1 1 1 1 1 1 1 1 1 1 1 1 1 1 1 1 1 1 1 1 1 1 1 1 1 1 1 1 1 1 1 1 1 1 1 1 1 1 1 1 1 1 1 1 1 1 1 1 1 1 1 1 1 1 1 1 1 1 1 1 1 1 1 1 1 1 1 1 1 1 1 1 1 1 1 1 1 1 1 1 1 1 1 1 1 1 1 1 1 1 1 1 1 1 1 1 1 1 1 1 1 1 1 1 1 1 1 1 1 1 1 1 1 1 1 1 1 1 1 1 1 1 1 1 1 1 1 1 1 1 1 1 1 1 1 1 1 1 1 1 1 1 1 1 1 1 1 1 1 1 1 1 1 1 1 1 1 1 1 1 1 1 1 1 1 1 1 1 1 1 1 1 1 1 1 1 1 1 1 1 1 1 1 1 1 1 1 1 1 1 1 1 1 1 1 1 1 1 1 1 1 1 1 1 1 1 1 1 1 1 1 1 1 1 1 1 1 1 1 1 1 1 1 1 1 1 1 1 1 1 1 1 1 1 1 1 1 1 1 1 1 1 1 1 1 1 1 1 1 1 1 1 1 1 1 1 1 1 1 1 1 1 1 1 1 1 1 1 1 1 1 1 1 1 1 1 1 1 1 1 1 1 1 1 1 1 1 1 1 1 1 1 1 1 1 1 1 1 1 1 1 1 1 1 1 1 1 1 1 1 1 1 1 1 1 1 1 1 1 1 1 1 1 1 1 1 1 1 1 1 1 1 1 1 1 1 1 1 1 1 1 1 1 1 1 1 1 1 1 1 1 1 1 1 1 1 1 1 1 1 1 1 1 1 1 1 1 1 1 1 1 1 1 1 1 1 1 1 1 1 1 1 1 1 1 1
				</DataArray>
				<DataArray Name="F2" type="Float32" format="ascii">
 0 0 0 0 0 0 0 0 0 0 0 0 0 0 0 0 0 0 0 0 0 0 0 0 0 0 0 0 0 0 0 0 0 0 0 0 0 0 0 0 0 0 0 0 0 0 0 0 0 0 0 0 0 0 0 0 0 0 0 0 0 0 0 0 0 0 0 0 0 0 0 0 0 0 0 0 0 0 0 0 0 0 0 0 0 0 0 0 0 0 0 0 0 0 0 0 0 0 0 0 0 0 0 0 0 0 0 0 0 0 0 0 0 0 0 0 0 0 0 0 0 0 0 0 0 0 0 0 0 0 0 0 0 0 0 0 0 0 0 0 0 0 0 0 0 0 0 0 0 0 0 0 0 0 0 0 0 0 0 0 0 0 0 0 0 0 0 0 0 0 0 0 0 0 0 0 0 0 0 0 0 0 0 0 0 0 0 0 0 0 0 0 0 0 0 0 0 0 0 0 0 0 0 0 0 0 0 0 0 0 0 0 0 0 0 0 0 0 0 0 0 0 0 0 0 0 0 0 0 0 0 0 0 0 0 0 0 0 0 0 0 0 0 0 0 0 0 0 0 0 0 0 0 0 0 0 0 0 0 0 0 0 0 0 0 0 0 0 0 0 0 0 0 0 0 0 0 0 0 0 0 0 0 0 0 0 0 0 0 0 0 0 0 0 0 0 0 0 0 0 0 0 0 0 0 0 0 0 0 0 0 0 0 0 0 0 0 0 0 0 0 0 0 0 0 0 0 0 0 0 0 0 0 0 0 0 0 0 0 0 0 0 0 0 0 0 0 0 0 0 0 0 0 0 0 0 0 0 0 0 0 0 0 0 0 0 0 0 0 0 0 0 0 0 0 0 0 0 0 0 0 0 0 0 0 0 0 0 0 0 0 0 0 0 0 0 0 0 0 0 0 0 0 0 0 0 0 0 0 0 0 0 0 0 0 0 0 0 0 0 0 0 0 0 0 0 0 0 0 0 0 0 0 0 0 0 0 0 0 0 0 0 0 0 0 0 0 0 0 0 0 0 0 0 0 0 0 0 0 0 0 0 0 0 0 0 0 0 0 0 0 0 0 0 0 0 0 0 0 0 0 0 0 0 0 0 0 0 0 0 0 0 0 0 0 0 0 0 0 0 0 0 0 0 0 0 0 0 0 0 0 0 0 0 0 0 0 0 0 0 0 0 0 0 0 0 0 0 0 0 0 0 0 0 0 0 0 0 0 0 0 0 0 0 0 0 0 0 0 0 0 0 0 0 0 0 0 0 0 0 0 0 0 0 0 0 0 0 0 0 0 0 0 0 0 0 0 0 0 0 0 0 0 0 0 0 0 0 0 0 0 0 0 0 0 0 0 0 0 0 0 0 0 0 0 0 0 0 0 0 0 0 0 0 0 0 0 0 0 0 0 0 0 0 0 0 0 0 0 0 0 0 0 0 0 0 0 0 0 0 0 0 0 0 0 0 0 0 0 0 0 0 0 0 0 0 0 0 0 0 0 0 0 0 0 0 0 0 0 0 0 0 0 0 0 0 0 0 0 0 0 0 0 0 0 0 0 0 0 0 0 0 0 0 0 0 0 0 0 0 0 0 0 0 0 0 0 0 0 0 0 0 0 0 0 0 0 0 0 0 0 0 0 0 0 0 0 0 0 0 0 0 0 0 0 0 0 0 0 0 0 0 0 0 0 0 0 0 0 0 0 0 0 0 0 0 0 0 0 0 0 0 0 0 0 0 0 0 0 0 0 0 0 0 0 0 0 0 0 0 0 0 0 0 0 0 0 0 0 0 0 0 0 0 0 0 0 0 0 0 0 0 0 0 0 0 0 0 0 0 0 0 0 0 0 0 0 0 0 0 0 0 0 0 0 0 0 0 0 0 0 0 0 0 0 0 0 0 0 0 0 0 0 0 0 0 0 0 0 0 0 0 0 0 0 0 0 0 0 0 0 0 0 0 0 0 0 0 0 0 0 0 0 0 0 0 0 0 0 0 0 0 0 0 0 0 0 0 0 0 0 0 0 0 0 0 0 0 0 0
				</DataArray>
				<DataArray Name="F3" type="Float32" format="ascii">