<?xml version="1.0"?>
<VTKFile type="PolyData">
	<PolyData>
		<Piece NumberOfPoints="1206" NumberOfPolys="1000">
			<Points>
				<DataArray type="Float32" NumberOfComponents="3" format="ascii">
 0 0 0 0.02 0 0 0.04 0 0 0.06 0 0 0.08 0 0 0.1 0 0 0 0.005 0 0.02 0.005 0 0.04 0.005 0 0.06 0.005 0 0.08 0.005 0 0.1 0.005 0 0 0.01 0 0.02 0.01 0 0.04 0.01 0 0.06 0.01 0 0.08 0.01 0 0.1 0.01 0 0 0.015 0 0.02 0.015 0 0.04 0.015 0 0.06 0.015 0 0.08 0.015 0 0.1 0.015 0 0 0.02 0 0.02 0.02 0 0.04 0.02 0 0.06 0.02 0 0.08 0.02 0 0.1 0.02 0 0 0.025 0 0.02 0.025 0 0.04 0.025 0 0.06 0.025 0 0.08 0.025 0 0.1 0.025 0 0 0.03 0 0.02 0.03 0 0.04 0.03 0 0.06 0.03 0 0.08 0.03 0 0.1 0.03 0 0 0.035 0 0.02 0.035 0 0.04 0.035 0 0.06 0.035 0 0.08 0.035 0 0.1 0.035 0 0 0.04 0 0.02 0.04 0 0.04 0.04 0 0.06 0.04 0 0.08 0.04 0 0.1 0.04 0 0 0.045 0 0.02 0.045 0 0.04 0.045 0 0.06 0.045 0 0.08 0.045 0 0.1 0.045 0 0 0.05 0 0.02 0.05 0 0.04 0.05 0 0.06 0.05 0 0.08 0.05 0 0.1 0.05 0 0 0.055 0 0.02 0.055 0 0.04 0.055 0 0.06 0.055 0 0.08 0.055 0 0.1 0.055 0 0 0.06 0 0.02 0.06 0 0.04 0.06 0 0.06 0.06 0 0.08 0.06 0 0.1 0.06 0 0 0.065 0 0.02 0.065 0 0.04 0.065 0 0.06 0.065 0 0.08 0.065 0 0.1 0.065 0 0 0.07 0 0.02 0.07 0 0.04 0.07 0 0.06 0.07 0 0.08 0.07 0 0.1 0.07 0 0 0.075 0 0.02 0.075 0 0.04 0.075 0 0.06 0.075 0 0.08 0.075 0 0.1 0.075 0 0 0.08 0 0.02 0.08 0 0.04 0.08 0 0.06 0.08 0 0.08 0.08 0 0.1 0.08 0 0 0.085 0 0.02 0.085 0 0.04 0.085 0 0.06 0.085 0 0.08 0.085 0 0.1 0.085 0 0 0.09 0 0.02 0.09 0 0.04 0.09 0 0.06 0.09 0 0.08 0.09 0 0.1 0.09 0 0 0.095 0 0.02 0.095 0 0.04 0.095 0 0.06 0.095 0 0.08 0.095 0 0.1 0.095 0 0 0.1 0 0.02 0.1 0 0.04 0.1 0 0.06 0.1 0 0.08 0.1 0 0.1 0.1 0 0 0.105 0 0.02 0.105 0 0.04 0.105 0 0.06 0.105 0 0.08 0.105 0 0.1 0.105 0 0 0.11 0 0.02 0.11 0 0.04 0.11 0 0.06 0.11 0 0.08 0.11 0 0.1 0.11 0 0 0.115 0 0.02 0.115 0 0.04 0.115 0 0.06 0.115 0 0.08 0.115 0 0.1 0.115 0 0 0.12 0 0.02 0.12 0 0.04 0.12 0 0.06 0.12 0 0.08 0.12 0 0.1 0.12 0 0 0.125 0 0.02 0.125 0 0.04 0.125 0 0.06 0.125 0 0.08 0.125 0 0.1 0.125 0 0 0.13 0 0.02 0.13 0 0.04 0.13 0 0.06 0.13 0 0.08 0.13 0 0.1 0.13 0 0 0.135 0 0.02 0.135 0 0.04 0.135 0 0.06 0.135 0 0.08 0.135 0 0.1 0.135 0 0 0.14 0 0.02 0.14 0 0.04 0.14 0 0.06 0.14 0 0.08 0.14 0 0.1 0.14 0 0 0.145 0 0.02 0.145 0 0.04 0.145 0 0.06 0.145 0 0.08 0.145 0 0.1 0.145 0 0 0.15 0 0.02 0.15 0 0.04 0.15 0 0.06 0.15 0 0.08 0.15 0 0.1 0.15 0 0 0.155 0 0.02 0.155 0 0.04 0.155 0 0.06 0.155 0 0.08 0.155 0 0.1 0.155 0 0 0.16 0 0.02 0.16 0 0.04 0.16 0 0.06 0.16 0 0.08 0.16 0 0.1 0.16 0 0 0.165 0 0.02 0.165 0 0.04 0.165 0 0.06 0.165 0 0.08 0.165 0 0.1 0.165 0 0 0.17 0 0.02 0.17 0 0.04 0.17 0 0.06 0.17 0 0.08 0.17 0 0.1 0.17 0 0 0.175 0 0.02 0.175 0 0.04 0.175 0 0.06 0.175 0 0.08 0.175 0 0.1 0.175 0 0 0.18 0 0.02 0.18 0 0.04 0.18 0 0.06 0.18 0 0.08 0.18 0 0.1 0.18 0 0 0.185 0 0.02 0.185 0 0.04 0.185 0 0.06 0.185 0 0.08 0.185 0 0.1 0.185 0 0 0.19 0 0.02 0.19 0 0.04 0.19 0 0.06 0.19 0 0.08 0.19 0 0.1 0.19 0 0 0.195 0 0.02 0.195 0 0.04 0.195 0 0.06 0.195 0 0.08 0.195 0 0.1 0.195 0 0 0.2 0 0.02 0.2 0 0.04 0.2 0 0.06 0.2 0 0.08 0.2 0 0.1 0.2 0 0 0.205 0 0.02 0.205 0 0.04 0.205 0 0.06 0.205 0 0.08 0.205 0 0.1 0.205 0 0 0.21 0 0.02 0.21 0 0.04 0.21 0 0.06 0.21 0 0.08 0.21 0 0.1 0.21 0 0 0.215 0 0.02 0.215 0 0.04 0.215 0 0.06 0.215 0 0.08 0.215 0 0.1 0.215 0 0 0.22 0 0.02 0.22 0 0.04 0.22 0 0.06 0.22 0 0.08 0.22 0 0.1 0.22 0 0 0.225 0 0.02 0.225 0 0.04 0.225 0 0.06 0.225 0 0.08 0.225 0 0.1 0.225 0 0 0.23 0 0.02 0.23 0 0.04 0.23 0 0.06 0.23 0 0.08 0.23 0 0.1 0.23 0 0 0.235 0 0.02 0.235 0 0.04 0.235 0 0.06 0.235 0 0.08 0.235 0 0.1 0.235 0 0 0.24 0 0.02 0.24 0 0.04 0.24 0 0.06 0.24 0 0.08 0.24 0 0.1 0.24 0 0 0.245 0 0.02 0.245 0 0.04 0.245 0 0.06 0.245 0 0.08 0.245 0 0.1 0.245 0 0 0.25 0 0.02 0.25 0 0.04 0.25 0 0.06 0.25 0 0.08 0.25 0 0.1 0.25 0 0 0.255 0 0.02 0.255 0 0.04 0.255 0 0.06 0.255 0 0.08 0.255 0 0.1 0.255 0 0 0.26 0 0.02 0.26 0 0.04 0.26 0 0.06 0.26 0 0.08 0.26 0 0.1 0.26 0 0 0.265 0 0.02 0.265 0 0.04 0.265 0 0.06 0.265 0 0.08 0.265 0 0.1 0.265 0 0 0.27 0 0.02 0.27 0 0.04 0.27 0 0.06 0.27 0 0.08 0.27 0 0.1 0.27 0 0 0.275 0 0.02 0.275 0 0.04 0.275 0 0.06 0.275 0 0.08 0.275 0 0.1 0.275 0 0 0.28 0 0.02 0.28 0 0.04 0.28 0 0.06 0.28 0 0.08 0.28 0 0.1 0.28 0 0 0.285 0 0.02 0.285 0 0.04 0.285 0 0.06 0.285 0 0.08 0.285 0 0.1 0.285 0 0 0.29 0 0.02 0.29 0 0.04 0.29 0 0.06 0.29 0 0.08 0.29 0 0.1 0.29 0 0 0.295 0 0.02 0.295 0 0.04 0.295 0 0.06 0.295 0 0.08 0.295 0 0.1 0.295 0 0 0.3 0 0.02 0.3 0 0.04 0.3 0 0.06 0.3 0 0.08 0.3 0 0.1 0.3 0 0 0.305 0 0.02 0.305 0 0.04 0.305 0 0.06 0.305 0 0.08 0.305 0 0.1 0.305 0 0 0.31 0 0.02 0.31 0 0.04 0.31 0 0.06 0.31 0 0.08 0.31 0 0.1 0.31 0 0 0.315 0 0.02 0.315 0 0.04 0.315 0 0.06 0.315 0 0.08 0.315 0 0.1 0.315 0 0 0.32 0 0.02 0.32 0 0.04 0.32 0 0.06 0.32 0 0.08 0.32 0 0.1 0.32 0 0 0.325 0 0.02 0.325 0 0.04 0.325 0 0.06 0.325 0 0.08 0.325 0 0.1 0.325 0 0 0.33 0 0.02 0.33 0 0.04 0.33 0 0.06 0.33 0 0.08 0.33 0 0.1 0.33 0 0 0.335 0 0.02 0.335 0 0.04 0.335 0 0.06 0.335 0 0.08 0.335 0 0.1 0.335 0 0 0.34 0 0.02 0.34 0 0.04 0.34 0 0.06 0.34 0 0.08 0.34 0 0.1 0.34 0 0 0.345 0 0.02 0.345 0 0.04 0.345 0 0.06 0.345 0 0.08 0.345 0 0.1 0.345 0 0 0.35 0 0.02 0.35 0 0.04 0.35 0 0.06 0.35 0 0.08 0.35 0 0.1 0.35 0 0 0.355 0 0.02 0.355 0 0.04 0.355 0 0.06 0.355 0 0.08 0.355 0 0.1 0.355 0 0 0.36 0 0.02 0.36 0 0.04 0.36 0 0.06 0.36 0 0.08 0.36 0 0.1 0.36 0 0 0.365 0 0.02 0.365 0 0.04 0.365 0 0.06 0.365 0 0.08 0.365 0 0.1 0.365 0 0 0.37 0 0.02 0.37 0 0.04 0.37 0 0.06 0.37 0 0.08 0.37 0 0.1 0.37 0 0 0.375 0 0.02 0.375 0 0.04 0.375 0 0.06 0.375 0 0.08 0.375 0 0.1 0.375 0 0 0.38 0 0.02 0.38 0 0.04 0.38 0 0.06 0.38 0 0.08 0.38 0 0.1 0.38 0 0 0.385 0 0.02 0.385 0 0.04 0.385 0 0.06 0.385 0 0.08 0.385 0 0.1 0.385 0 0 0.39 0 0.02 0.39 0 0.04 0.39 0 0.06 0.39 0 0.08 0.39 0 0.1 0.39 0 0 0.395 0 0.02 0.395 0 0.04 0.395 0 0.06 0.395 0 0.08 0.395 0 0.1 0.395 0 0 0.4 0 0.02 0.4 0 0.04 0.4 0 0.06 0.4 0 0.08 0.4 0 0.1 0.4 0 0 0.405 0 0.02 0.405 0 0.04 0.405 0 0.06 0.405 0 0.08 0.405 0 0.1 0.405 0 0 0.41 0 0.02 0.41 0 0.04 0.41 0 0.06 0.41 0 0.08 0.41 0 0.1 0.41 0 0 0.415 0 0.02 0.415 0 0.04 0.415 0 0.06 0.415 0 0.08 0.415 0 0.1 0.415 0 0 0.42 0 0.02 0.42 0 0.04 0.42 0 0.06 0.42 0 0.08 0.42 0 0.1 0.42 0 0 0.425 0 0.02 0.425 0 0.04 0.425 0 0.06 0.425 0 0.08 0.425 0 0.1 0.425 0 0 0.43 0 0.02 0.43 0 0.04 0.43 0 0.06 0.43 0 0.08 0.43 0 0.1 0.43 0 0 0.435 0 0.02 0.435 0 0.04 0.435 0 0.06 0.435 0 0.08 0.435 0 0.1 0.435 0 0 0.44 0 0.02 0.44 0 0.04 0.44 0 0.06 0.44 0 0.08 0.44 0 0.1 0.44 0 0 0.445 0 0.02 0.445 0 0.04 0.445 0 0.06 0.445 0 0.08 0.445 0 0.1 0.445 0 0 0.45 0 0.02 0.45 0 0.04 0.45 0 0.06 0.45 0 0.08 0.45 0 0.1 0.45 0 0 0.455 0 0.02 0.455 0 0.04 0.455 0 0.06 0.455 0 0.08 0.455 0 0.1 0.455 0 0 0.46 0 0.02 0.46 0 0.04 0.46 0 0.06 0.46 0 0.08 0.46 0 0.1 0.46 0 0 0.465 0 0.02 0.465 0 0.04 0.465 0 0.06 0.465 0 0.08 0.465 0 0.1 0.465 0 0 0.47 0 0.02 0.47 0 0.04 0.47 0 0.06 0.47 0 0.08 0.47 0 0.1 0.47 0 0 0.475 0 0.02 0.475 0 0.04 0.475 0 0.06 0.475 0 0.08 0.475 0 0.1 0.475 0 0 0.48 0 0.02 0.48 0 0.04 0.48 0 0.06 0.48 0 0.08 0.48 0 0.1 0.48 0 0 0.485 0 0.02 0.485 0 0.04 0.485 0 0.06 0.485 0 0.08 0.485 0 0.1 0.485 0 0 0.49 0 0.02 0.49 0 0.04 0.49 0 0.06 0.49 0 0.08 0.49 0 0.1 0.49 0 0 0.495 0 0.02 0.495 0 0.04 0.495 0 0.06 0.495 0 0.08 0.495 0 0.1 0.495 0 0 0.5 0 0.02 0.5 0 0.04 0.5 0 0.06 0.5 0 0.08 0.5 0 0.1 0.5 0 0 0.505 0 0.02 0.505 0 0.04 0.505 0 0.06 0.505 0 0.08 0.505 0 0.1 0.505 0 0 0.51 0 0.02 0.51 0 0.04 0.51 0 0.06 0.51 0 0.08 0.51 0 0.1 0.51 0 0 0.515 0 0.02 0.515 0 0.04 0.515 0 0.06 0.515 0 0.08 0.515 0 0.1 0.515 0 0 0.52 0 0.02 0.52 0 0.04 0.52 0 0.06 0.52 0 0.08 0.52 0 0.1 0.52 0 0 0.525 0 0.02 0.525 0 0.04 0.525 0 0.06 0.525 0 0.08 0.525 0 0.1 0.525 0 0 0.53 0 0.02 0.53 0 0.04 0.53 0 0.06 0.53 0 0.08 0.53 0 0.1 0.53 0 0 0.535 0 0.02 0.535 0 0.04 0.535 0 0.06 0.535 0 0.08 0.535 0 0.1 0.535 0 0 0.54 0 0.02 0.54 0 0.04 0.54 0 0.06 0.54 0 0.08 0.54 0 0.1 0.54 0 0 0.545 0 0.02 0.545 0 0.04 0.545 0 0.06 0.545 0 0.08 0.545 0 0.1 0.545 0 0 0.55 0 0.02 0.55 0 0.04 0.55 0 0.06 0.55 0 0.08 0.55 0 0.1 0.55 0 0 0.555 0 0.02 0.555 0 0.04 0.555 0 0.06 0.555 0 0.08 0.555 0 0.1 0.555 0 0 0.56 0 0.02 0.56 0 0.04 0.56 0 0.06 0.56 0 0.08 0.56 0 0.1 0.56 0 0 0.565 0 0.02 0.565 0 0.04 0.565 0 0.06 0.565 0 0.08 0.565 0 0.1 0.565 0 0 0.57 0 0.02 0.57 0 0.04 0.57 0 0.06 0.57 0 0.08 0.57 0 0.1 0.57 0 0 0.575 0 0.02 0.575 0 0.04 0.575 0 0.06 0.575 0 0.08 0.575 0 0.1 0.575 0 0 0.58 0 0.02 0.58 0 0.04 0.58 0 0.06 0.58 0 0.08 0.58 0 0.1 0.58 0 0 0.585 0 0.02 0.585 0 0.04 0.585 0 0.06 0.585 0 0.08 0.585 0 0.1 0.585 0 0 0.59 0 0.02 0.59 0 0.04 0.59 0 0.06 0.59 0 0.08 0.59 0 0.1 0.59 0 0 0.595 0 0.02 0.595 0 0.04 0.595 0 0.06 0.595 0 0.08 0.595 0 0.1 0.595 0 0 0.6 0 0.02 0.6 0 0.04 0.6 0 0.06 0.6 0 0.08 0.6 0 0.1 0.6 0 0 0.605 0 0.02 0.605 0 0.04 0.605 0 0.06 0.605 0 0.08 0.605 0 0.1 0.605 0 0 0.61 0 0.02 0.61 0 0.04 0.61 0 0.06 0.61 0 0.08 0.61 0 0.1 0.61 0 0 0.615 0 0.02 0.615 0 0.04 0.615 0 0.06 0.615 0 0.08 0.615 0 0.1 0.615 0 0 0.62 0 0.02 0.62 0 0.04 0.62 0 0.06 0.62 0 0.08 0.62 0 0.1 0.62 0 0 0.625 0 0.02 0.625 0 0.04 0.625 0 0.06 0.625 0 0.08 0.625 0 0.1 0.625 0 0 0.63 0 0.02 0.63 0 0.04 0.63 0 0.06 0.63 0 0.08 0.63 0 0.1 0.63 0 0 0.635 0 0.02 0.635 0 0.04 0.635 0 0.06 0.635 0 0.08 0.635 0 0.1 0.635 0 0 0.64 0 0.02 0.64 0 0.04 0.64 0 0.06 0.64 0 0.08 0.64 0 0.1 0.64 0 0 0.645 0 0.02 0.645 0 0.04 0.645 0 0.06 0.645 0 0.08 0.645 0 0.1 0.645 0 0 0.65 0 0.02 0.65 0 0.04 0.65 0 0.06 0.65 0 0.08 0.65 0 0.1 0.65 0 0 0.655 0 0.02 0.655 0 0.04 0.655 0 0.06 0.655 0 0.08 0.655 0 0.1 0.655 0 0 0.66 0 0.02 0.66 0 0.04 0.66 0 0.06 0.66 0 0.08 0.66 0 0.1 0.66 0 0 0.665 0 0.02 0.665 0 0.04 0.665 0 0.06 0.665 0 0.08 0.665 0 0.1 0.665 0 0 0.67 0 0.02 0.67 0 0.04 0.67 0 0.06 0.67 0 0.08 0.67 0 0.1 0.67 0 0 0.675 0 0.02 0.675 0 0.04 0.675 0 0.06 0.675 0 0.08 0.675 0 0.1 0.675 0 0 0.68 0 0.02 0.68 0 0.04 0.68 0 0.06 0.68 0 0.08 0.68 0 0.1 0.68 0 0 0.685 0 0.02 0.685 0 0.04 0.685 0 0.06 0.685 0 0.08 0.685 0 0.1 0.685 0 0 0.69 0 0.02 0.69 0 0.04 0.69 0 0.06 0.69 0 0.08 0.69 0 0.1 
[...]
			<PointData Scalars="VitesseX">
				<DataArray Name="VitesseX" type="Float32" format="ascii">
 0 -1.24061e-14 -3.36332e-14 1.56194e-14 2.67834e-14 0 0 -1.68356e-14 -3.1213e-14 1.89289e-14 2.14128e-14 0 0 -2.2359e-14 -2.61555e-14 1.65568e-14 2.09837e-14 0 0 -3.84275e-14 -1.1408e-15 -1.56087e-14 4.14025e-14 0 0 -5.52403e-14 1.68562e-14 -3.23939e-14 4.7568e-14 0 0 -3.40766e-14 -2.89086e-14 1.03318e-14 1.51507e-14 0 0 -1.30487e-14 -6.32581e-14 2.41034e-14 -2.67953e-15 0 0 -3.21044e-14 -4.33244e-14 -1.80156e-14 2.16986e-14 0 0 -4.64765e-14 -5.06902e-14 -2.57417e-14 3.44976e-14 0 0 -6.71214e-14 -4.86224e-14 -5.00282e-14 8.39958e-14 0 0 -1.47704e-13 4.08885e-14 -1.10268e-13 1.35213e-13 0 0 -1.17932e-13 -3.80936e-14 2.75486e-14 2.544e-14 0 0 -8.38008e-14 -7.26559e-14 7.85952e-14 -3.04585e-14 0 0 -9.55418e-14 5.97755e-15 -1.07868e-14 5.41351e-15 0 0 -6.1119e-14 -8.87699e-15 -1.50444e-14 7.23661e-15 0 0 -8.31358e-14 2.24229e-14 -6.29773e-14 5.09401e-14 0 0 -5.18854e-14 -4.58076e-14 -2.10876e-14 5.58054e-14 0 0 -6.15595e-14 -3.31032e-14 -5.47813e-14 9.97692e-14 0 0 -1.03125e-13 4.19448e-14 -1.26426e-13 1.16987e-13 0 0 -7.5636e-14 -1.69873e-15 -8.46359e-14 7.21901e-14 0 0 -4.17614e-14 -5.95583e-14 -6.16591e-14 8.02671e-14 0 0 -4.78464e-14 -5.34288e-14 -1.02111e-13 1.12107e-13 0 0 -1.20611e-13 4.87758e-14 -1.51516e-13 6.85424e-14 0 0 -1.26785e-13 5.35296e-14 -5.26281e-14 -1.33878e-13 0 0 -5.19575e-14 -2.71761e-14 2.22195e-14 -2.05667e-13 0 0 -3.9795e-14 -4.32036e-14 -2.01762e-14 -1.44877e-13 0 0 -7.88399e-14 -2.84321e-14 -1.41537e-14 -2.30809e-13 0 0 -1.44663e-13 3.384e-14 -4.8027e-14 -2.86984e-13 0 0 -1.07428e-13 -2.67845e-14 -4.79561e-14 -2.5532e-13 0 0 -6.7318e-14 -4.28602e-14 -1.2244e-13 -1.26997e-13 0 0 -2.01334e-14 -1.01754e-13 -3.18537e-14 -1.63562e-13 0 0 3.70266e-14 -1.54153e-13 7.03269e-14 -1.79357e-13 0 0 -6.81275e-14 5.66603e-15 -9.09226e-14 7.22138e-14 0 0 -8.46746e-14 -5.20147e-14 5.01218e-14 7.16213e-14 0 0 -1.02383e-13 -3.58793e-14 7.16012e-14 9.33464e-14 0 0 -1.08868e-13 -5.42539e-14 1.36282e-13 5.71303e-14 0 0 -3.20363e-13 1.95529e-13 3.66495e-14 8.86029e-14 0 0 -1.67801e-13 -3.96538e-14 2.87069e-13 -3.91075e-14 0 0 -1.95629e-14 -1.60234e-13 3.35303e-13 -1.34912e-13 0 0 -1.67385e-13 1.33862e-13 2.91691e-14 -9.88527e-14 0 0 -6.48302e-14 -3.2587e-14 9.88017e-14 -9.92047e-14 0 0 -1.27524e-13 2.83919e-14 -7.65884e-14 1.24297e-13 0 0 -1.27425e-13 -4.36032e-14 -2.25441e-14 1.10603e-13 0 0 -1.22167e-13 -8.15574e-14 2.83859e-14 3.00033e-14 0 0 -1.96126e-13 -2.60833e-14 5.49778e-14 -6.75444e-14 0 0 -2.12874e-13 -1.25838e-13 3.06725e-13 -3.07538e-13 0 0 -3.69585e-13 5.71373e-14 2.50658e-13 -3.5662e-13 0 0 -2.92469e-13 2.02258e-14 2.79165e-13 -3.93683e-13 0 0 -9.32476e-14 -9.23235e-14 2.85591e-13 -4.26665e-13 0 0 -2.24262e-13 2.41862e-13 -4.20202e-14 -3.05848e-13 0 0 -4.32968e-13 5.90865e-13 -2.8899e-13 -2.47753e-13 0 0 -4.93682e-13 6.97317e-13 -3.85667e-13 -1.93358e-13 0 0 -6.34542e-14 6.74201e-14 2.04863e-13 -5.50431e-13 0 0 -3.47588e-14 -1.24892e-14 2.56969e-13 -5.98506e-13 0 0 -5.14383e-13 5.99712e-13 -2.71823e-13 -3.05782e-13 0 0 -5.38633e-13 5.68139e-13 -1.47168e-13 -4.21859e-13 0 0 -4.07458e-13 2.99354e-13 2.53414e-14 -4.15976e-13 0 0 -2.18257e-13 7.96094e-14 4.28356e-14 -3.11109e-13 0 0 -3.68568e-13 3.23735e-13 -2.04885e-13 -1.84135e-13 0 0 -5.47694e-13 4.70609e-13 -2.88454e-13 -1.84583e-13 0 0 -2.89077e-13 8.07872e-14 4.25249e-14 -4.30155e-13 0 0 -8.01809e-14 -1.07644e-13 4.84187e-14 -3.62225e-13 0 0 -7.49813e-14 2.71215e-14 -3.0702e-13 2.22183e-14 0 0 -2.25119e-13 3.31767e-13 -7.67969e-13 4.15645e-13 0 0 -1.08943e-13 2.07324e-13 -7.30675e-13 4.08062e-13 0 0 8.77982e-14 -9.82164e-14 -3.29154e-13 1.67961e-13 0 0 -3.54747e-15 -1.30523e-13 -3.46684e-14 8.19268e-15 0 0 -1.71609e-13 -5.68928e-14 1.5141e-13 -1.0761e-13 0 0 -5.50214e-13 3.8029e-13 -3.62661e-14 -6.38773e-15 0 0 -5.78282e-13 3.96274e-13 2.54183e-14 -4.80857e-15 0 0 -1.2366e-13 -1.41785e-13 4.57211e-13 -2.70922e-13 0 0 -2.96192e-13 1.89287e-13 1.40647e-13 -2.15424e-13 0 0 -5.22733e-13 4.80832e-13 -1.04532e-13 -1.17201e-13 0 0 -4.79774e-13 4.41228e-13 7.48511e-14 -3.47178e-13 0 0 -2.58538e-13 2.94563e-13 2.30408e-13 -5.46001e-13 0 0 9.86393e-15 1.22581e-14 3.66006e-13 -5.50407e-13 0 0 -2.26563e-13 3.68766e-13 -3.83868e-14 -2.70405e-13 0 0 -4.76502e-13 7.18473e-13 -3.9836e-13 -1.65785e-14 0 0 -2.65855e-13 4.56998e-13 -2.76546e-13 3.29794e-14 0 0 -1.69745e-13 3.33829e-13 -1.93857e-13 -3.26549e-14 0 0 -2.20212e-13 3.18775e-13 -3.78487e-14 -2.25648e-13 0 0 -6.39565e-14 -7.13597e-14 3.59041e-13 -4.08986e-13 0 0 -7.17504e-14 -2.91269e-13 6.7299e-13 -5.84726e-13 0 0 -2.30603e-13 -1.28304e-13 4.43911e-13 -2.42074e-13 0 0 -4.61795e-13 3.44467e-13 -2.21602e-13 3.9514e-13 0 0 -2.79272e-13 1.6426e-13 -1.39628e-13 2.74338e-13 0 0 5.44556e-13 -7.84502e-13 3.20541e-13 -7.88047e-16 0 0 1.74465e-13 -4.34096e-13 4.85671e-14 1.37224e-13 0 0 -1.09869e-12 5.71132e-13 -2.62538e-13 2.2897e-13 0 0 -7.49022e-13 1.96431e-13 -2.60143e-13 6.36331e-13 0 0 6.5346e-14 -5.95774e-13 3.20538e-15 8.21435e-13 0 0 2.22106e-13 -8.38372e-13 2.88126e-13 5.30161e-13 0 0 -2.36186e-13 -2.68897e-13 1.50607e-13 2.58415e-13 0 0 -1.23593e-12 7.8922e-13 1.65896e-14 -1.8857e-13 0 0 -1.32614e-12 8.82859e-13 -8.97555e-14 -2.93268e-13 0 0 -4.22442e-13 1.81778e-13 1.47523e-13 -2.51063e-13 0 0 4.68631e-13 -4.98934e-13 3.65768e-13 -2.15977e-13 0 0 2.93485e-13 -2.62722e-13 1.42296e-13 -2.02907e-13 0 0 1.83282e-13 -3.70998e-13 1.19746e-13 -6.74513e-14 0 0 -2.31147e-15 -3.56054e-13 1.04169e-13 1.43173e-14 0 0 -4.11617e-13 2.49014e-14 -3.37431e-15 -9.49098e-14 0 0 -4.34626e-13 2.21845e-13 -1.95809e-13 -6.98163e-14 0 0 -1.43728e-13 2.72542e-13 -5.66281e-13 2.7364e-13 0 0 -3.39073e-14 4.12363e-13 -9.41354e-13 4.02291e-13 0 0 -1.08527e-13 6.09936e-13 -9.25155e-13 3.02814e-13 0 0 -1.96688e-13 5.91996e-13 -7.60379e-13 1.24404e-14 0 0 -2.06346e-13 4.20266e-13 -4.31125e-13 -3.35769e-13 0 0 -2.35556e-13 1.1072e-13 -2.37476e-13 -4.11947e-13 0 0 -2.89514e-13 -1.72431e-13 -1.22641e-13 -4.31606e-13 0 0 -3.63939e-13 -3.53057e-13 -1.08518e-13 -4.04689e-13 0 0 -4.40986e-13 -3.99039e-13 -1.41166e-13 -3.58584e-13 0 0 -4.33426e-13 -4.42278e-13 -1.81664e-13 -2.77073e-13 0 0 -4.2408e-13 -4.2952e-13 -2.86835e-13 -1.10552e-13 0 0 -4.55802e-13 -2.74456e-13 -4.02612e-13 3.47343e-15 0 0 -4.3729e-13 -2.18183e-13 -2.82663e-13 -9.92128e-14 0 0 -2.52553e-13 -3.90495e-13 1.03546e-13 -2.70524e-13 0 0 -2.7184e-13 -2.2665e-13 8.40057e-15 -2.71413e-13 0 0 -4.35664e-13 1.69799e-13 -3.04538e-13 -1.46384e-13 0 0 -3.40304e-13 5.03982e-14 -1.51062e-13 -1.66278e-13 0 0 -2.03968e-13 -1.31504e-13 5.2533e-14 -2.98496e-13 0 0 -1.65576e-13 -1.73607e-13 7.93647e-14 -2.94324e-13 0 0 -3.3149e-13 1.21714e-13 -1.89102e-13 -1.21623e-13 0 0 -5.16089e-13 4.3597e-13 -4.72669e-13 1.81776e-14 0 0 -1.96082e-13 3.90228e-15 -1.49198e-13 -1.39018e-13 0 0 4.26615e-14 -2.83835e-13 5.40867e-14 -2.37573e-13 0 0 1.33115e-15 -1.95331e-13 -5.49848e-14 -1.86206e-13 0 0 -2.06507e-13 3.82989e-14 -2.18792e-13 -7.34538e-14 0 0 -4.97324e-13 4.11053e-13 -5.35799e-13 1.69146e-13 0 0 -2.50613e-13 3.38371e-14 -2.43929e-13 -2.56153e-14 0 0 5.98522e-14 -3.97846e-13 8.96292e-14 -2.8864e-13 0 0 8.65163e-14 -3.65876e-13 8.51122e-15 -2.82676e-13 0 0 -2.2708e-13 5.18231e-14 -2.94868e-13 -1.80135e-13 0 0 -6.35678e-13 5.5381e-13 -6.37204e-13 -2.90436e-14 0 0 -3.05956e-13 1.13934e-14 -1.66325e-13 -2.37615e-13 0 0 -2.52394e-14 -3.99802e-13 8.62566e-14 -2.70551e-13 0 0 -9.02738e-14 -3.91953e-13 6.23087e-14 -2.26235e-13 0 0 -3.27969e-13 -1.56045e-13 -1.10758e-13 -1.3177e-13 0 0 -6.22063e-13 3.20107e-13 -6.71883e-13 2.37725e-13 0 0 -2.20076e-13 -2.81227e-13 -8.72618e-14 -1.19915e-13 0 0 -2.53973e-13 -3.26479e-13 7.45018e-14 -2.93382e-13 0 0 -4.5933e-13 -9.84096e-14 -2.24948e-14 -2.41338e-13 0 0 -2.78149e-13 -3.95235e-13 3.46254e-13 -3.37378e-13 0 0 -7.1611e-13 2.87795e-13 -3.54987e-13 2.83518e-13 0 0 -7.68825e-13 3.32078e-13 -2.93618e-13 3.43522e-13 0 0 -4.0967e-14 -6.17133e-13 6.33006e-13 -2.32952e-13 0 0 2.07287e-13 -7.19627e-13 6.53994e-13 -2.77537e-13 0 0 -2.03748e-13 -1.55382e-14 1.43018e-13 -5.26036e-14 0 0 -7.27634e-13 8.91986e-13 -6.1508e-13 4.24352e-13 0 0 -6.63137e-13 6.79001e-13 -3.80362e-13 4.64785e-13 0 0 9.89783e-14 -7.66818e-13 1.13015e-12 -3.87053e-13 0 0 -6.64518e-14 -5.91594e-13 1.01526e-12 -4.36774e-13 0 0 -4.81562e-13 1.31784e-13 1.23141e-13 1.85385e-13 0 0 -7.10879e-13 6.21141e-13 -6.62572e-13 9.28265e-13 0 0 -6.06491e-13 3.52066e-13 -4.95023e-13 7.96928e-13 0 0 -5.85595e-14 -5.28115e-13 2.19848e-13 1.77064e-13 0 0 -3.96874e-14 -3.50087e-13 -2.98559e-14 2.60444e-14 0 0 -3.80785e-13 5.76148e-14 -2.09497e-13 -9.58665e-16 0 0 -8.40644e-13 3.49456e-13 -3.13139e-13 8.78031e-14 0 0 -6.39152e-13 -1.59203e-13 1.42739e-13 -3.27477e-13 0 0 1.31456e-13 -1.15964e-12 6.91412e-13 -6.87839e-13 0 0 4.21876e-13 -1.45814e-12 5.99696e-13 -6.18748e-13 0 0 -6.28058e-13 1.6131e-13 -1.00635e-12 2.64968e-13 0 0 -1.39692e-12 1.38234e-12 -2.05129e-12 8.26946e-13 0 0 -3.44039e-13 -6.93111e-14 -6.33007e-13 6.60351e-14 0 0 5.07377e-13 -1.43798e-12 6.92277e-13 -4.05483e-13 0 0 6.46323e-14 -1.08679e-12 5.70732e-13 -5.38759e-14 0 0 -6.54014e-13 -1.12175e-13 -4.17371e-13 5.74859e-13 0 0 -8.95917e-13 5.20075e-13 -1.55555e-12 1.23553e-12 0 0 -3.4523e-13 -4.48186e-14 -1.33581e-12 1.08652e-12 0 0 -4.31675e-13 -9.12153e-14 -9.42714e-13 6.43398e-13 0 0 -6.07599e-13 -4.89847e-14 -6.38949e-13 2.02849e-13 0 0 2.55809e-14 -1.13857e-12 5.72354e-13 -7.606e-13 0 0 -1.64439e-13 -8.2674e-13 1.02683e-13 -5.72488e-13 0 0 -4.25706e-13 -2.99227e-13 -5.31924e-13 -2.72088e-13 0 0 -7.08907e-13 1.2841e-13 -7.39912e-13 -2.83151e-13 0 0 -7.13125e-13 1.11046e-13 -8.34506e-13 -3.78752e-14 0 0 -3.86385e-16 -1.06279e-12 1.81806e-13 -4.47133e-13 0 0 -1.50617e-13 -8.33378e-13 -1.06586e-13 -2.14351e-13 0 0 -4.2617e-13 -3.33759e-13 -5.25423e-13 3.64885e-14 0 0 -8.0979e-13 2.11497e-13 -7.23617e-13 -2.38043e-14 0 0 -8.31459e-13 1.64551e-13 -5.90536e-13 -1.36909e-13 0 0 -1.29216e-13 -8.34587e-13 2.31781e-13 -5.42014e-13 0 0 -6.10797e-14 -7.87635e-13 -4.21069e-14 -3.82542e-13 0 0 -3.67373e-13 -4.60739e-13 -1.90416e-13 -5.11447e-13 0 0 -7.43602e-13 4.35602e-14 -4.20932e-13 -5.3949e-13 0 0 -6.27341e-13 -6.93106e-14 -2.32428e-13 -4.95318e-13 0 0 1.63892e-14 -9.288e-13 5.59975e-13 -8.75204e-13 0 0 -7.87024e-14 -7.80945e-13 2.46303e-13 -5.57396e-13 0 0 -8.30888e-13 -1.0558e-13 1.75151e-14 -4.57499e-13 0 0 -1.432e-12 7.87693e-13 -6.46851e-13 -1.57284e-13 0 0 -6.95102e-13 -7.50847e-14 -7.00156e-14 -4.67428e-13 0 0 6.23378e-14 -1.21602e-12 9.81424e-13 -1.10052e-12 0 0 -1.01647e-12 4.36811e-13 -5.84588e-13 -1.3782e-13 0 0 -1.60594e-12 1.15268e-12 -8.666e-13 -1.27204e-13 0 0 -6.8041e-13 -2.39199e-13 7.15209e-13 -1.23398e-12 0 0 3.73329e-13 -1.41378e-12 1.52752e-12 -1.64982e-12 0 0 1.90586e-13 -8.79971e-13 9.99744e-13 -1.40756e-12 0 0 -1.32534e-12 1.17372e-12 -5.3493e-13 -7.47095e-13 0 0 -1.43386e-12 1.16221e-12 -5.22653e-13 -8.49034e-13 0 0 -1.73318e-14 -9.31842e-13 9.45367e-13 -1.45708e-12 0 0 5.76353e-13 -1.80948e-12 1.48134e-12 -1.53354e-12 0
				</DataArray>
				<DataArray Name="VitesseY" type="Float32" format="ascii">