<?xml version="1.0"?>
<VTKFile type="PolyData">
	<PolyData>
		<Piece NumberOfPoints="1206" NumberOfPolys="1000">
			<Points>
				<DataArray type="Float32" NumberOfComponents="3" format="ascii">
 0 0 0 0.02 0 0 0.04 0 0 0.06 0 0 0.08 0 0 0.1 0 0 0 0.005 0 0.02 0.005 0 0.04 0.005 0 0.06 0.005 0 0.08 0.005 0 0.1 0.005 0 0 0.01 0 0.02 0.01 0 0.04 0.01 0 0.06 0.01 0 0.08 0.01 0 0.1 0.01 0 0 0.015 0 0.02 0.015 0 0.04 0.015 0 0.06 0.015 0 0.08 0.015 0 0.1 0.015 0 0 0.02 0 0.02 0.02 0 0.04 0.02 0 0.06 0.02 0 0.08 0.02 0 0.1 0.02 0 0 0.025 0 0.02 0.025 0 0.04 0.025 0 0.06 0.025 0 0.08 0.025 0 0.1 0.025 0 0 0.03 0 0.02 0.03 0 0.04 0.03 0 0.06 0.03 0 0.08 0.03 0 0.1 0.03 0 0 0.035 0 0.02 0.035 0 0.04 0.035 0 0.06 0.035 0 0.08 0.035 0 0.1 0.035 0 0 0.04 0 0.02 0.04 0 0.04 0.04 0 0.06 0.04 0 0.08 0.04 0 0.1 0.04 0 0 0.045 0 0.02 0.045 0 0.04 0.045 0 0.06 0.045 0 0.08 0.045 0 0.1 0.045 0 0 0.05 0 0.02 0.05 0 0.04 0.05 0 0.06 0.05 0 0.08 0.05 0 0.1 0.05 0 0 0.055 0 0.02 0.055 0 0.04 0.055 0 0.06 0.055 0 0.08 0.055 0 0.1 0.055 0 0 0.06 0 0.02 0.06 0 0.04 0.06 0 0.06 0.06 0 0.08 0.06 0 0.1 0.06 0 0 0.065 0 0.02 0.065 0 0.04 0.065 0 0.06 0.065 0 0.08 0.065 0 0.1 0.065 0 0 0.07 0 0.02 0.07 0 0.04 0.07 0 0.06 0.07 0 0.08 0.07 0 0.1 0.07 0 0 0.075 0 0.02 0.075 0 0.04 0.075 0 0.06 0.075 0 0.08 0.075 0 0.1 0.075 0 0 0.08 0 0.02 0.08 0 0.04 0.08 0 0.06 0.08 0 0.08 0.08 0 0.1 0.08 0 0 0.085 0 0.02 0.085 0 0.04 0.085 0 0.06 0.085 0 0.08 0.085 0 0.1 0.085 0 0 0.09 0 0.02 0.09 0 0.04 0.09 0 0.06 0.09 0 0.08 0.09 0 0.1 0.09 0 0 0.095 0 0.02 0.095 0 0.04 0.095 0 0.06 0.095 0 0.08 0.095 0 0.1 0.095 0 0 0.1 0 0.02 0.1 0 0.04 0.1 0 0.06 0.1 0 0.08 0.1 0 0.1 0.1 0 0 0.105 0 0.02 0.105 0 0.04 0.105 0 0.06 0.105 0 0.08 0.105 0 0.1 0.105 0 0 0.11 0 0.02 0.11 0 0.04 0.11 0 0.06 0.11 0 0.08 0.11 0 0.1 0.11 0 0 0.115 0 0.02 0.115 0 0.04 0.115 0 0.06 0.115 0 0.08 0.115 0 0.1 0.115 0 0 0.12 0 0.02 0.12 0 0.04 0.12 0 0.06 0.12 0 0.08 0.12 0 0.1 0.12 0 0 0.125 0 0.02 0.125 0 0.04 0.125 0 0.06 0.125 0 0.08 0.125 0 0.1 0.125 0 0 0.13 0 0.02 0.13 0 0.04 0.13 0 0.06 0.13 0 0.08 0.13 0 0.1 0.13 0 0 0.135 0 0.02 0.135 0 0.04 0.135 0 0.06 0.135 0 0.08 0.135 0 0.1 0.135 0 0 0.14 0 0.02 0.14 0 0.04 0.14 0 0.06 0.14 0 0.08 0.14 0 0.1 0.14 0 0 0.145 0 0.02 0.145 0 0.04 0.145 0 0.06 0.145 0 0.08 0.145 0 0.1 0.145 0 0 0.15 0 0.02 0.15 0 0.04 0.15 0 0.06 0.15 0 0.08 0.15 0 0.1 0.15 0 0 0.155 0 0.02 0.155 0 0.04 0.155 0 0.06 0.155 0 0.08 0.155 0 0.1 0.155 0 0 0.16 0 0.02 0.16 0 0.04 0.16 0 0.06 0.16 0 0.08 0.16 0 0.1 0.16 0 0 0.165 0 0.02 0.165 0 0.04 0.165 0 0.06 0.165 0 0.08 0.165 0 0.1 0.165 0 0 0.17 0 0.02 0.17 0 0.04 0.17 0 0.06 0.17 0 0.08 0.17 0 0.1 0.17 0 0 0.175 0 0.02 0.175 0 0.04 0.175 0 0.06 0.175 0 0.08 0.175 0 0.1 0.175 0 0 0.18 0 0.02 0.18 0 0.04 0.18 0 0.06 0.18 0 0.08 0.18 0 0.1 0.18 0 0 0.185 0 0.02 0.185 0 0.04 0.185 0 0.06 0.185 0 0.08 0.185 0 0.1 0.185 0 0 0.19 0 0.02 0.19 0 0.04 0.19 0 0.06 0.19 0 0.08 0.19 0 0.1 0.19 0 0 0.195 0 0.02 0.195 0 0.04 0.195 0 0.06 0.195 0 0.08 0.195 0 0.1 0.195 0 0 0.2 0 0.02 0.2 0 0.04 0.2 0 0.06 0.2 0 0.08 0.2 0 0.1 0.2 0 0 0.205 0 0.02 0.205 0 0.04 0.205 0 0.06 0.205 0 0.08 0.205 0 0.1 0.205 0 0 0.21 0 0.02 0.21 0 0.04 0.21 0 0.06 0.21 0 0.08 0.21 0 0.1 0.21 0 0 0.215 0 0.02 0.215 0 0.04 0.215 0 0.06 0.215 0 0.08 0.215 0 0.1 0.215 0 0 0.22 0 0.02 0.22 0 0.04 0.22 0 0.06 0.22 0 0.08 0.22 0 0.1 0.22 0 0 0.225 0 0.02 0.225 0 0.04 0.225 0 0.06 0.225 0 0.08 0.225 0 0.1 0.225 0 0 0.23 0 0.02 0.23 0 0.04 0.23 0 0.06 0.23 0 0.08 0.23 0 0.1 0.23 0 0 0.235 0 0.02 0.235 0 0.04 0.235 0 0.06 0.235 0 0.08 0.235 0 0.1 0.235 0 0 0.24 0 0.02 0.24 0 0.04 0.24 0 0.06 0.24 0 0.08 0.24 0 0.1 0.24 0 0 0.245 0 0.02 0.245 0 0.04 0.245 0 0.06 0.245 0 0.08 0.245 0 0.1 0.245 0 0 0.25 0 0.02 0.25 0 0.04 0.25 0 0.06 0.25 0 0.08 0.25 0 0.1 0.25 0 0 0.255 0 0.02 0.255 0 0.04 0.255 0 0.06 0.255 0 0.08 0.255 0 0.1 0.255 0 0 0.26 0 0.02 0.26 0 0.04 0.26 0 0.06 0.26 0 0.08 0.26 0 0.1 0.26 0 0 0.265 0 0.02 0.265 0 0.04 0.265 0 0.06 0.265 0 0.08 0.265 0 0.1 0.265 0 0 0.27 0 0.02 0.27 0 0.04 0.27 0 0.06 0.27 0 0.08 0.27 0 0.1 0.27 0 0 0.275 0 0.02 0.275 0 0.04 0.275 0 0.06 0.275 0 0.08 0.275 0 0.1 0.275 0 0 0.28 0 0.02 0.28 0 0.04 0.28 0 0.06 0.28 0 0.08 0.28 0 0.1 0.28 0 0 0.285 0 0.02 0.285 0 0.04 0.285 0 0.06 0.285 0 0.08 0.285 0 0.1 0.285 0 0 0.29 0 0.02 0.29 0 0.04 0.29 0 0.06 0.29 0 0.08 0.29 0 0.1 0.29 0 0 0.295 0 0.02 0.295 0 0.04 0.295 0 0.06 0.295 0 0.08 0.295 0 0.1 0.295 0 0 0.3 0 0.02 0.3 0 0.04 0.3 0 0.06 0.3 0 0.08 0.3 0 0.1 0.3 0 0 0.305 0 0.02 0.305 0 0.04 0.305 0 0.06 0.305 0 0.08 0.305 0 0.1 0.305 0 0 0.31 0 0.02 0.31 0 0.04 0.31 0 0.06 0.31 0 0.08 0.31 0 0.1 0.31 0 0 0.315 0 0.02 0.315 0 0.04 0.315 0 0.06 0.315 0 0.08 0.315 0 0.1 0.315 0 0 0.32 0 0.02 0.32 0 0.04 0.32 0 0.06 0.32 0 0.08 0.32 0 0.1 0.32 0 0 0.325 0 0.02 0.325 0 0.04 0.325 0 0.06 0.325 0 0.08 0.325 0 0.1 0.325 0 0 0.33 0 0.02 0.33 0 0.04 0.33 0 0.06 0.33 0 0.08 0.33 0 0.1 0.33 0 0 0.335 0 0.02 0.335 0 0.04 0.335 0 0.06 0.335 0 0.08 0.335 0 0.1 0.335 0 0 0.34 0 0.02 0.34 0 0.04 0.34 0 0.06 0.34 0 0.08 0.34 0 0.1 0.34 0 0 0.345 0 0.02 0.345 0 0.04 0.345 0 0.06 0.345 0 0.08 0.345 0 0.1 0.345 0 0 0.35 0 0.02 0.35 0 0.04 0.35 0 0.06 0.35 0 0.08 0.35 0 0.1 0.35 0 0 0.355 0 0.02 0.355 0 0.04 0.355 0 0.06 0.355 0 0.08 0.355 0 0.1 0.355 0 0 0.36 0 0.02 0.36 0 0.04 0.36 0 0.06 0.36 0 0.08 0.36 0 0.1 0.36 0 0 0.365 0 0.02 0.365 0 0.04 0.365 0 0.06 0.365 0 0.08 0.365 0 0.1 0.365 0 0 0.37 0 0.02 0.37 0 0.04 0.37 0 0.06 0.37 0 0.08 0.37 0 0.1 0.37 0 0 0.375 0 0.02 0.375 0 0.04 0.375 0 0.06 0.375 0 0.08 0.375 0 0.1 0.375 0 0 0.38 0 0.02 0.38 0 0.04 0.38 0 0.06 0.38 0 0.08 0.38 0 0.1 0.38 0 0 0.385 0 0.02 0.385 0 0.04 0.385 0 0.06 0.385 0 0.08 0.385 0 0.1 0.385 0 0 0.39 0 0.02 0.39 0 0.04 0.39 0 0.06 0.39 0 0.08 0.39 0 0.1 0.39 0 0 0.395 0 0.02 0.395 0 0.04 0.395 0 0.06 0.395 0 0.08 0.395 0 0.1 0.395 0 0 0.4 0 0.02 0.4 0 0.04 0.4 0 0.06 0.4 0 0.08 0.4 0 0.1 0.4 0 0 0.405 0 0.02 0.405 0 0.04 0.405 0 0.06 0.405 0 0.08 0.405 0 0.1 0.405 0 0 0.41 0 0.02 0.41 0 0.04 0.41 0 0.06 0.41 0 0.08 0.41 0 0.1 0.41 0 0 0.415 0 0.02 0.415 0 0.04 0.415 0 0.06 0.415 0 0.08 0.415 0 0.1 0.415 0 0 0.42 0 0.02 0.42 0 0.04 0.42 0 0.06 0.42 0 0.08 0.42 0 0.1 0.42 0 0 0.425 0 0.02 0.425 0 0.04 0.425 0 0.06 0.425 0 0.08 0.425 0 0.1 0.425 0 0 0.43 0 0.02 0.43 0 0.04 0.43 0 0.06 0.43 0 0.08 0.43 0 0.1 0.43 0 0 0.435 0 0.02 0.435 0 0.04 0.435 0 0.06 0.435 0 0.08 0.435 0 0.1 0.435 0 0 0.44 0 0.02 0.44 0 0.04 0.44 0 0.06 0.44 0 0.08 0.44 0 0.1 0.44 0 0 0.445 0 0.02 0.445 0 0.04 0.445 0 0.06 0.445 0 0.08 0.445 0 0.1 0.445 0 0 0.45 0 0.02 0.45 0 0.04 0.45 0 0.06 0.45 0 0.08 0.45 0 0.1 0.45 0 0 0.455 0 0.02 0.455 0 0.04 0.455 0 0.06 0.455 0 0.08 0.455 0 0.1 0.455 0 0 0.46 0 0.02 0.46 0 0.04 0.46 0 0.06 0.46 0 0.08 0.46 0 0.1 0.46 0 0 0.465 0 0.02 0.465 0 0.04 0.465 0 0.06 0.465 0 0.08 0.465 0 0.1 0.465 0 0 0.47 0 0.02 0.47 0 0.04 0.47 0 0.06 0.47 0 0.08 0.47 0 0.1 0.47 0 0 0.475 0 0.02 0.475 0 0.04 0.475 0 0.06 0.475 0 0.08 0.475 0 0.1 0.475 0 0 0.48 0 0.02 0.48 0 0.04 0.48 0 0.06 0.48 0 0.08 0.48 0 0.1 0.48 0 0 0.485 0 0.02 0.485 0 0.04 0.485 0 0.06 0.485 0 0.08 0.485 0 0.1 0.485 0 0 0.49 0 0.02 0.49 0 0.04 0.49 0 0.06 0.49 0 0.08 0.49 0 0.1 0.49 0 0 0.495 0 0.02 0.495 0 0.04 0.495 0 0.06 0.495 0 0.08 0.495 0 0.1 0.495 0 0 0.5 0 0.02 0.5 0 0.04 0.5 0 0.06 0.5 0 0.08 0.5 0 0.1 0.5 0 0 0.505 0 0.02 0.505 0 0.04 0.505 0 0.06 0.505 0 0.08 0.505 0 0.1 0.505 0 0 0.51 0 0.02 0.51 0 0.04 0.51 0 0.06 0.51 0 0.08 0.51 0 0.1 0.51 0 0 0.515 0 0.02 0.515 0 0.04 0.515 0 0.06 0.515 0 0.08 0.515 0 0.1 0.515 0 0 0.52 0 0.02 0.52 0 0.04 0.52 0 0.06 0.52 0 0.08 0.52 0 0.1 0.52 0 0 0.525 0 0.02 0.525 0 0.04 0.525 0 0.06 0.525 0 0.08 0.525 0 0.1 0.525 0 0 0.53 0 0.02 0.53 0 0.04 0.53 0 0.06 0.53 0 0.08 0.53 0 0.1 0.53 0 0 0.535 0 0.02 0.535 0 0.04 0.535 0 0.06 0.535 0 0.08 0.535 0 0.1 0.535 0 0 0.54 0 0.02 0.54 0 0.04 0.54 0 0.06 0.54 0 0.08 0.54 0 0.1 0.54 0 0 0.545 0 0.02 0.545 0 0.04 0.545 0 0.06 0.545 0 0.08 0.545 0 0.1 0.545 0 0 0.55 0 0.02 0.55 0 0.04 0.55 0 0.06 0.55 0 0.08 0.55 0 0.1 0.55 0 0 0.555 0 0.02 0.555 0 0.04 0.555 0 0.06 0.555 0 0.08 0.555 0 0.1 0.555 0 0 0.56 0 0.02 0.56 0 0.04 0.56 0 0.06 0.56 0 0.08 0.56 0 0.1 0.56 0 0 0.565 0 0.02 0.565 0 0.04 0.565 0 0.06 0.565 0 0.08 0.565 0 0.1 0.565 0 0 0.57 0 0.02 0.57 0 0.04 0.57 0 0.06 0.57 0 0.08 0.57 0 0.1 0.57 0 0 0.575 0 0.02 0.575 0 0.04 0.575 0 0.06 0.575 0 0.08 0.575 0 0.1 0.575 0 0 0.58 0 0.02 0.58 0 0.04 0.58 0 0.06 0.58 0 0.08 0.58 0 0.1 0.58 0 0 0.585 0 0.02 0.585 0 0.04 0.585 0 0.06 0.585 0 0.08 0.585 0 0.1 0.585 0 0 0.59 0 0.02 0.59 0 0.04 0.59 0 0.06 0.59 0 0.08 0.59 0 0.1 0.59 0 0 0.595 0 0.02 0.595 0 0.04 0.595 0 0.06 0.595 0 0.08 0.595 0 0.1 0.595 0 0 0.6 0 0.02 0.6 0 0.04 0.6 0 0.06 0.6 0 0.08 0.6 0 0.1 0.6 0 0 0.605 0 0.02 0.605 0 0.04 0.605 0 0.06 0.605 0 0.08 0.605 0 0.1 0.605 0 0 0.61 0 0.02 0.61 0 0.04 0.61 0 0.06 0.61 0 0.08 0.61 0 0.1 0.61 0 0 0.615 0 0.02 0.615 0 0.04 0.615 0 0.06 0.615 0 0.08 0.615 0 0.1 0.615 0 0 0.62 0 0.02 0.62 0 0.04 0.62 0 0.06 0.62 0 0.08 0.62 0 0.1 0.62 0 0 0.625 0 0.02 0.625 0 0.04 0.625 0 0.06 0.625 0 0.08 0.625 0 0.1 0.625 0 0 0.63 0 0.02 0.63 0 0.04 0.63 0 0.06 0.63 0 0.08 0.63 0 0.1 0.63 0 0 0.635 0 0.02 0.635 0 0.04 0.635 0 0.06 0.635 0 0.08 0.635 0 0.1 0.635 0 0 0.64 0 0.02 0.64 0 0.04 0.64 0 0.06 0.64 0 0.08 0.64 0 0.1 0.64 0 0 0.645 0 0.02 0.645 0 0.04 0.645 0 0.06 0.645 0 0.08 0.645 0 0.1 0.645 0 0 0.65 0 0.02 0.65 0 0.04 0.65 0 0.06 0.65 0 0.08 0.65 0 0.1 0.65 0 0 0.655 0 0.02 0.655 0 0.04 0.655 0 0.06 0.655 0 0.08 0.655 0 0.1 0.655 0 0 0.66 0 0.02 0.66 0 0.04 0.66 0 0.06 0.66 0 0.08 0.66 0 0.1 0.66 0 0 0.665 0 0.02 0.665 0 0.04 0.665 0 0.06 0.665 0 0.08 0.665 0 0.1 0.665 0 0 0.67 0 0.02 0.67 0 0.04 0.67 0 0.06 0.67 0 0.08 0.67 0 0.1 0.67 0 0 0.675 0 0.02 0.675 0 0.04 0.675 0 0.06 0.675 0 0.08 0.675 0 0.1 0.675 0 0 0.68 0 0.02 0.68 0 0.04 0.68 0 0.06 0.68 0 0.08 0.68 0 0.1 0.68 0 0 0.685 0 0.02 0.685 0 0.04 0.685 0 0.06 0.685 0 0.08 0.685 0 0.1 0.685 0 0 0.69 0 0.02 0.69 0 0.04 0.69 0 0.06 0.69 0 0.08 0.69 0 0.1 
[...]
			<PointData Scalars="VitesseX">
				<DataArray Name="VitesseX" type="Float32" format="ascii">
 0 -1.06408e-14 1.51712e-14 -1.13233e-14 2.17123e-14 0 0 -7.4564e-15 8.14152e-15 -3.44345e-15 1.69985e-14 0 0 3.60956e-16 -1.0172e-14 1.4569e-14 1.10233e-14 0 0 -6.03864e-16 -1.21882e-14 1.13428e-14 2.25483e-14 0 0 6.77578e-15 -2.29563e-14 1.78247e-14 3.04579e-14 0 0 -2.03988e-15 -4.56161e-15 2.90007e-15 4.76505e-14 0 0 -3.93752e-14 5.24426e-14 -3.18165e-14 7.11823e-14 0 0 -3.51597e-14 3.0037e-14 4.08083e-14 2.17738e-14 0 0 -7.15581e-15 -9.34385e-15 1.08921e-13 -2.27524e-14 0 0 1.48345e-14 -1.19856e-14 9.05488e-14 2.71309e-15 0 0 6.18408e-14 -7.11764e-14 1.34926e-13 -1.37812e-14 0 0 4.78877e-14 -1.9871e-14 7.32971e-14 1.84545e-14 0 0 2.08145e-14 4.78898e-14 3.23781e-15 5.626e-14 0 0 2.48687e-14 3.65808e-14 1.5417e-14 6.02018e-14 0 0 -7.43719e-15 6.90408e-14 -1.18235e-14 7.43461e-14 0 0 3.80197e-15 6.4718e-14 -1.5486e-14 4.64914e-14 0 0 6.7683e-14 -3.51033e-15 2.89001e-14 7.73611e-15 0 0 9.18517e-14 -3.10461e-14 1.11737e-14 6.71551e-14 0 0 9.95739e-14 -3.27158e-14 -3.1347e-14 1.24684e-13 0 0 1.2067e-13 -8.52486e-14 3.34643e-14 5.97631e-14 0 0 1.45134e-14 4.54414e-14 -7.24266e-14 1.02674e-13 0 0 -2.80693e-15 2.84833e-14 -6.49559e-14 1.16798e-13 0 0 8.37443e-14 -1.602e-13 1.20483e-13 2.15956e-14 0 0 3.13627e-15 -7.93095e-14 4.08561e-14 8.70907e-14 0 0 -8.67452e-14 2.33614e-14 -5.44888e-14 1.52738e-13 0 0 -2.85312e-14 -9.5925e-14 1.08446e-13 3.4396e-14 0 0 -5.55014e-14 -2.94967e-14 6.17505e-14 4.0518e-14 0 0 -5.66342e-14 -2.05325e-14 6.23186e-14 2.67928e-14 0 0 2.48512e-14 -1.64154e-13 2.29078e-13 -7.86563e-14 0 0 -1.31897e-14 -9.30369e-14 1.60943e-13 -2.8963e-14 0 0 -6.52757e-14 -1.62914e-14 7.62075e-14 4.15591e-14 0 0 -9.45926e-14 5.25907e-14 6.57755e-17 9.02756e-14 0 0 -3.676e-14 -7.99965e-15 7.8476e-14 2.1896e-14 0 0 5.50124e-14 -1.12704e-13 2.00096e-13 -9.77478e-14 0 0 3.74579e-14 -3.10345e-14 7.29857e-14 -7.14583e-15 0 0 2.32725e-14 -1.02897e-14 3.3481e-14 3.08171e-14 0 0 9.34159e-14 -1.01528e-13 1.14584e-13 -9.28052e-15 0 0 1.39002e-14 5.23322e-14 -6.30371e-14 1.72224e-13 0 0 -6.74587e-15 6.35153e-14 -1.08158e-14 1.30588e-13 0 0 2.59694e-14 1.29078e-15 1.31545e-13 -2.9634e-14 0 0 1.19939e-14 4.93483e-14 9.4882e-14 -5.08679e-14 0 0 -4.46704e-14 1.30234e-13 4.71735e-14 -7.91614e-14 0 0 -1.29248e-13 3.13272e-13 -1.56449e-13 1.36924e-14 0 0 -4.41067e-14 2.11405e-13 -7.56918e-14 -8.19582e-14 0 0 5.24354e-14 5.6224e-14 1.13049e-13 -2.41525e-13 0 0 8.60985e-14 9.291e-14 4.03191e-14 -9.18052e-14 0 0 2.90374e-13 -1.64607e-13 2.22486e-13 -5.30807e-14 0 0 2.38714e-13 -1.06303e-14 -1.99661e-14 1.29454e-13 0 0 9.08457e-14 2.38043e-13 -3.24138e-13 3.16485e-13 0 0 2.81149e-13 -1.47545e-13 6.14046e-14 1.2018e-13 0 0 5.0902e-13 -5.68261e-13 4.95432e-13 -9.3596e-14 0 0 4.12575e-13 -4.38023e-13 3.89199e-13 -6.93115e-14 0 0 9.96468e-14 1.3422e-13 -2.37262e-13 2.97344e-13 0 0 2.27539e-13 3.64016e-14 -2.87605e-13 4.08434e-13 0 0 4.43077e-13 -3.05055e-13 8.90881e-14 1.03026e-13 0 0 3.25429e-13 -1.21365e-13 5.2241e-14 -5.2768e-14 0 0 2.48244e-13 -3.02654e-14 7.23535e-14 -1.81542e-13 0 0 2.4688e-13 -4.56077e-14 1.28539e-13 -2.73672e-13 0 0 9.0464e-14 2.56485e-13 -2.6703e-13 -1.9456e-14 0 0 9.42159e-14 2.73472e-13 -3.38129e-13 7.32725e-14 0 0 1.57505e-13 1.19147e-13 -1.06873e-13 -3.53992e-14 0 0 9.52717e-14 1.11703e-13 3.13415e-14 -1.00041e-13 0 0 1.39979e-13 -4.44774e-14 3.19525e-13 -3.08983e-13 0 0 1.66433e-13 -1.3784e-13 5.46661e-13 -4.90635e-13 0 0 3.44051e-14 9.22741e-14 3.44194e-13 -3.66603e-13 0 0 -1.18545e-13 4.0669e-13 -1.93641e-14 -1.49805e-13 0 0 -1.69206e-14 3.66274e-13 -7.59851e-14 -1.29729e-13 0 0 3.01858e-13 1.11324e-13 1.61774e-14 -1.6746e-13 0 0 4.43323e-13 1.00232e-13 -1.98085e-16 -1.87317e-13 0 0 4.4522e-13 1.77654e-13 9.76376e-15 -2.32281e-13 0 0 5.00209e-13 7.52451e-14 5.90806e-14 -1.32904e-13 0 0 4.51791e-13 1.38377e-13 -7.77073e-14 6.73307e-14 0 0 6.49652e-13 -1.71084e-13 2.82832e-13 -1.33164e-13 0 0 4.43204e-13 1.2162e-13 3.20655e-14 4.58054e-14 0 0 2.13622e-13 3.82949e-13 -1.04049e-13 2.0083e-13 0 0 3.94641e-13 2.74826e-14 2.88776e-13 9.66298e-14 0 0 3.99745e-13 1.02931e-13 7.7951e-14 4.04063e-13 0 0 3.39767e-13 3.55723e-14 1.43e-13 4.33883e-13 0 0 2.59858e-13 3.38183e-14 3.38433e-13 1.24939e-13 0 0 5.96849e-13 -2.56365e-13 6.22762e-13 -5.79814e-14 0 0 4.16624e-13 1.81312e-13 3.95497e-14 5.23013e-13 0 0 2.7996e-14 6.99599e-13 -2.3492e-13 6.92903e-13 0 0 4.17761e-13 3.37032e-15 7.77183e-13 -4.75792e-14 0 0 3.99383e-13 3.09955e-13 5.52928e-13 -6.82561e-14 0 0 1.24214e-13 1.24827e-12 -5.68906e-13 5.97476e-13 0 0 5.4989e-13 8.8649e-13 -5.74355e-13 8.06191e-13 0 0 1.30948e-12 -1.0113e-13 2.70479e-13 3.11261e-13 0 0 1.16966e-12 -1.33589e-13 7.38954e-13 -2.50401e-13 0 0 6.49305e-13 4.3601e-13 4.44562e-13 -1.75392e-13 0 0 1.71992e-13 9.42941e-13 1.65273e-13 -9.48627e-14 0 0 -2.22238e-13 1.21804e-12 1.33292e-13 -1.33856e-13 0 0 -2.49662e-13 1.17631e-12 2.7405e-13 -2.48418e-13 0 0 4.35816e-14 7.16141e-13 6.47637e-13 -2.96895e-13 0 0 7.93419e-13 -2.01193e-13 8.07175e-13 -1.12622e-13 0 0 1.17874e-12 -4.74817e-13 6.17934e-13 4.21861e-13 0 0 1.06626e-12 -2.29216e-13 2.70112e-13 5.10439e-13 0 0 7.46397e-13 2.31569e-13 1.62644e-13 2.8387e-13 0 0 2.7671e-13 5.62312e-13 1.65706e-13 -1.92323e-15 0 0 2.67316e-14 7.05423e-13 6.49891e-14 5.21849e-14 0 0 6.40946e-14 6.64373e-13 -1.223e-13 2.70568e-13 0 0 4.03729e-13 3.27366e-13 -1.122e-13 6.2071e-13 0 0 9.40389e-13 -2.75547e-13 4.81164e-14 7.3747e-13 0 0 1.02759e-12 -4.61462e-13 1.35926e-13 6.88502e-13 0 0 7.33951e-13 -2.82623e-13 9.49694e-14 6.33541e-13 0 0 -6.52123e-14 2.03102e-13 1.14346e-13 4.73967e-13 0 0 -6.54502e-13 4.40043e-13 2.76215e-13 1.09333e-13 0 0 -6.45534e-13 3.56824e-13 4.91014e-13 -1.86185e-13 0 0 -3.10294e-13 8.21489e-14 5.48862e-13 -2.15037e-13 0 0 3.61375e-14 -1.18095e-13 5.22288e-13 -1.29169e-13 0 0 1.65277e-13 -1.4777e-13 4.45828e-13 9.12528e-16 0 0 1.81751e-13 -9.11125e-14 3.17392e-13 1.16166e-13 0 0 1.20101e-13 3.95737e-15 2.84373e-13 1.30708e-13 0 0 -8.09093e-15 7.8133e-14 3.07278e-13 8.55862e-14 0 0 -1.49618e-13 9.48596e-14 3.63021e-13 5.98885e-14 0 0 -1.96561e-13 6.1442e-14 4.24271e-13 7.21957e-14 0 0 -1.96539e-13 3.6037e-14 4.17214e-13 8.35665e-14 0 0 -1.72194e-13 2.75456e-14 3.48976e-13 1.16798e-13 0 0 -1.27194e-13 -2.62492e-15 2.95582e-13 1.2509e-13 0 0 -8.4472e-14 4.4527e-15 2.50152e-13 7.35277e-14 0 0 -6.63117e-14 5.78695e-14 1.21004e-13 8.55425e-14 0 0 -4.23427e-14 5.83368e-14 6.26839e-14 3.94255e-14 0 0 -2.56953e-14 6.79398e-14 2.96104e-14 -7.55778e-14 0 0 -1.02734e-14 9.61525e-14 -5.48997e-14 -8.51119e-14 0 0 3.52471e-14 7.84694e-14 -6.18079e-14 -1.23456e-13 0 0 8.57606e-14 5.09292e-14 -6.49284e-14 -1.18336e-13 0 0 1.49362e-13 -2.44948e-14 -2.47368e-14 -1.00607e-13 0 0 2.35931e-13 -1.22902e-13 9.67637e-14 -1.60163e-13 0 0 1.82073e-13 -3.74038e-15 -2.12464e-14 -9.3615e-14 0 0 8.85137e-14 1.45007e-13 -1.37007e-13 3.64363e-14 0 0 1.06991e-13 1.11121e-13 -4.19947e-15 1.04027e-13 0 0 1.244e-13 1.0733e-13 1.39927e-13 9.41328e-14 0 0 2.13362e-13 6.0524e-14 2.57311e-13 5.50149e-14 0 0 2.12558e-13 1.1049e-13 2.98474e-13 6.70613e-14 0 0 2.71116e-13 3.61608e-14 4.3921e-13 3.2874e-14 0 0 1.86902e-13 2.36766e-13 2.38565e-13 2.30048e-13 0 0 1.23729e-13 3.59291e-13 1.62762e-13 2.9895e-13 0 0 2.67264e-13 1.62621e-13 4.02879e-13 1.93759e-13 0 0 2.56995e-13 2.53293e-13 3.45595e-13 2.45989e-13 0 0 3.01757e-13 2.61736e-13 3.52634e-13 3.01961e-13 0 0 3.33375e-13 2.99789e-13 3.04952e-13 4.17286e-13 0 0 2.8913e-13 3.95817e-13 2.64e-13 4.16473e-13 0 0 3.86703e-13 2.28259e-13 5.2309e-13 2.15678e-13 0 0 4.37238e-13 1.97736e-13 5.45009e-13 1.88813e-13 0 0 4.10605e-13 3.01079e-13 3.7923e-13 2.86734e-13 0 0 4.21552e-13 3.24315e-13 2.92383e-13 3.03599e-13 0 0 3.46368e-13 5.18002e-13 2.53351e-14 4.07675e-13 0 0 5.20777e-13 2.39588e-13 3.4859e-13 3.5869e-14 0 0 5.0955e-13 2.39923e-13 3.28318e-13 -5.5425e-15 0 0 4.5509e-13 3.83912e-13 7.95153e-14 2.72204e-13 0 0 5.70827e-13 2.14137e-13 2.18298e-13 3.08676e-13 0 0 3.86011e-13 5.02005e-13 -9.88702e-14 5.59264e-13 0 0 5.61511e-13 1.8429e-13 3.50787e-13 1.89656e-13 0 0 5.64999e-13 1.73391e-13 4.75663e-13 9.40009e-14 0 0 4.05445e-13 4.38811e-13 2.04014e-13 2.98324e-13 0 0 2.42119e-13 6.23515e-13 6.72323e-14 3.71392e-13 0 0 4.13002e-13 3.76387e-13 2.87503e-13 2.13587e-13 0 0 6.97309e-13 1.67903e-14 5.36206e-13 1.07944e-13 0 0 5.50475e-13 2.41234e-13 2.99858e-13 3.90346e-13 0 0 4.29093e-13 2.74501e-13 6.1707e-13 9.01376e-14 0 0 7.6999e-14 6.591e-13 3.57789e-13 3.47615e-13 0 0 4.75591e-14 6.41863e-13 3.15797e-13 6.34327e-13 0 0 4.14614e-13 1.58287e-13 7.93981e-13 3.74475e-13 0 0 6.40454e-13 -3.84587e-15 8.65693e-13 3.75006e-13 0 0 2.96924e-13 4.32421e-13 6.58029e-13 4.51037e-13 0 0 -1.8113e-13 8.37126e-13 5.40485e-13 4.36507e-13 0 0 -1.54995e-13 7.5819e-13 5.76489e-13 3.95751e-13 0 0 3.37336e-13 1.55139e-13 9.13802e-13 1.98089e-13 0 0 6.11704e-13 -2.33037e-13 1.01067e-12 1.11503e-13 0 0 4.67209e-13 -1.84837e-13 9.992e-13 -7.15386e-14 0 0 1.94921e-13 2.13205e-13 7.49232e-13 -2.69133e-14 0 0 4.81206e-14 3.94461e-13 7.43572e-13 -2.7237e-14 0 0 -6.68103e-14 4.18535e-13 7.78093e-13 5.49683e-15 0 0 -7.36385e-14 4.8162e-13 3.43608e-13 5.51985e-13 0 0 2.11838e-13 -3.56264e-14 5.99965e-13 5.58577e-13 0 0 2.14145e-13 -9.39355e-14 6.25752e-13 4.45981e-13 0 0 1.70733e-13 3.67042e-14 6.16922e-13 2.41906e-13 0 0 -6.73689e-14 3.53358e-13 4.81678e-13 2.23573e-13 0 0 -4.54441e-13 8.77164e-13 6.87998e-14 4.67707e-13 0 0 6.93081e-14 1.6401e-13 7.20498e-13 9.45753e-14 0 0 2.52619e-13 -2.68006e-14 8.51198e-13 -5.40456e-14 0 0 1.22466e-13 2.03632e-13 5.76697e-13 -2.03317e-14 0 0 8.04923e-14 2.97666e-13 4.42867e-13 9.42359e-14 0 0 -1.97186e-13 7.71472e-13 -5.42575e-14 4.52516e-13 0 0 2.16954e-13 2.29246e-13 2.81098e-13 3.03003e-13 0 0 4.53031e-13 -7.52824e-15 3.58149e-13 2.94008e-13 0 0 3.50563e-13 8.36808e-14 4.33912e-13 1.5644e-13 0 0 1.20329e-13 3.54424e-13 3.01366e-13 1.21165e-13 0 0 9.47375e-14 5.65521e-13 -7.71621e-15 1.90389e-13 0 0 6.11041e-13 -6.01243e-14 5.40211e-13 -2.533e-13 0 0 8.0465e-13 -1.87793e-13 4.48874e-13 -4.56393e-14 0 0 6.61804e-13 2.60259e-13 -1.89205e-13 6.88511e-13 0 0 7.69767e-13 4.95074e-14 2.34435e-13 5.26577e-13 0 0 6.7935e-13 2.55489e-14 4.37728e-13 4.21457e-13 0 0 5.71164e-13 1.52375e-13 2.21825e-13 6.6956e-13 0 0 7.32814e-13 5.86684e-14 2.64295e-13 6.45028e-13 0 0 6.43818e-13 4.89105e-13 -2.49514e-13 9.7955e-13 0 0 7.50411e-13 5.89855e-13 -5.77736e-13 1.33023e-12 0 0 8.49409e-13 4.89742e-13 -6.11928e-13 1.41706e-12 0 0 7.30057e-13 4.48171e-13 -3.63114e-13 1.15665e-12 0 0 5.11803e-13 6.50763e-13 -3.33107e-13 9.50486e-13 0 0 2.75964e-13 1.00014e-12 -6.63329e-13 1.04508e-12 0
				</DataArray>
				<DataArray Name="VitesseY" type="Float32" format="ascii">