<?xml version="1.0"?>
<VTKFile type="PolyData">
	<PolyData>
		<Piece NumberOfPoints="1206" NumberOfPolys="1000">
			<Points>
				<DataArray type="Float32" NumberOfComponents="3" format="ascii">
 0 0 0 0.02 0 0 0.04 0 0 0.06 0 0 0.08 0 0 0.1 0 0 0 0.005 0 0.02 0.005 0 0.04 0.005 0 0.06 0.005 0 0.08 0.005 0 0.1 0.005 0 0 0.01 0 0.02 0.01 0 0.04 0.01 0 0.06 0.01 0 0.08 0.01 0 0.1 0.01 0 0 0.015 0 0.02 0.015 0 0.04 0.015 0 0.06 0.015 0 0.08 0.015 0 0.1 0.015 0 0 0.02 0 0.02 0.02 0 0.04 0.02 0 0.06 0.02 0 0.08 0.02 0 0.1 0.02 0 0 0.025 0 0.02 0.025 0 0.04 0.025 0 0.06 0.025 0 0.08 0.025 0 0.1 0.025 0 0 0.03 0 0.02 0.03 0 0.04 0.03 0 0.06 0.03 0 0.08 0.03 0 0.1 0.03 0 0 0.035 0 0.02 0.035 0 0.04 0.035 0 0.06 0.035 0 0.08 0.035 0 0.1 0.035 0 0 0.04 0 0.02 0.04 0 0.04 0.04 0 0.06 0.04 0 0.08 0.04 0 0.1 0.04 0 0 0.045 0 0.02 0.045 0 0.04 0.045 0 0.06 0.045 0 0.08 0.045 0 0.1 0.045 0 0 0.05 0 0.02 0.05 0 0.04 0.05 0 0.06 0.05 0 0.08 0.05 0 0.1 0.05 0 0 0.055 0 0.02 0.055 0 0.04 0.055 0 0.06 0.055 0 0.08 0.055 0 0.1 0.055 0 0 0.06 0 0.02 0.06 0 0.04 0.06 0 0.06 0.06 0 0.08 0.06 0 0.1 0.06 0 0 0.065 0 0.02 0.065 0 0.04 0.065 0 0.06 0.065 0 0.08 0.065 0 0.1 0.065 0 0 0.07 0 0.02 0.07 0 0.04 0.07 0 0.06 0.07 0 0.08 0.07 0 0.1 0.07 0 0 0.075 0 0.02 0.075 0 0.04 0.075 0 0.06 0.075 0 0.08 0.075 0 0.1 0.075 0 0 0.08 0 0.02 0.08 0 0.04 0.08 0 0.06 0.08 0 0.08 0.08 0 0.1 0.08 0 0 0.085 0 0.02 0.085 0 0.04 0.085 0 0.06 0.085 0 0.08 0.085 0 0.1 0.085 0 0 0.09 0 0.02 0.09 0 0.04 0.09 0 0.06 0.09 0 0.08 0.09 0 0.1 0.09 0 0 0.095 0 0.02 0.095 0 0.04 0.095 0 0.06 0.095 0 0.08 0.095 0 0.1 0.095 0 0 0.1 0 0.02 0.1 0 0.04 0.1 0 0.06 0.1 0 0.08 0.1 0 0.1 0.1 0 0 0.105 0 0.02 0.105 0 0.04 0.105 0 0.06 0.105 0 0.08 0.105 0 0.1 0.105 0 0 0.11 0 0.02 0.11 0 0.04 0.11 0 0.06 0.11 0 0.08 0.11 0 0.1 0.11 0 0 0.115 0 0.02 0.115 0 0.04 0.115 0 0.06 0.115 0 0.08 0.115 0 0.1 0.115 0 0 0.12 0 0.02 0.12 0 0.04 0.12 0 0.06 0.12 0 0.08 0.12 0 0.1 0.12 0 0 0.125 0 0.02 0.125 0 0.04 0.125 0 0.06 0.125 0 0.08 0.125 0 0.1 0.125 0 0 0.13 0 0.02 0.13 0 0.04 0.13 0 0.06 0.13 0 0.08 0.13 0 0.1 0.13 0 0 0.135 0 0.02 0.135 0 0.04 0.135 0 0.06 0.135 0 0.08 0.135 0 0.1 0.135 0 0 0.14 0 0.02 0.14 0 0.04 0.14 0 0.06 0.14 0 0.08 0.14 0 0.1 0.14 0 0 0.145 0 0.02 0.145 0 0.04 0.145 0 0.06 0.145 0 0.08 0.145 0 0.1 0.145 0 0 0.15 0 0.02 0.15 0 0.04 0.15 0 0.06 0.15 0 0.08 0.15 0 0.1 0.15 0 0 0.155 0 0.02 0.155 0 0.04 0.155 0 0.06 0.155 0 0.08 0.155 0 0.1 0.155 0 0 0.16 0 0.02 0.16 0 0.04 0.16 0 0.06 0.16 0 0.08 0.16 0 0.1 0.16 0 0 0.165 0 0.02 0.165 0 0.04 0.165 0 0.06 0.165 0 0.08 0.165 0 0.1 0.165 0 0 0.17 0 0.02 0.17 0 0.04 0.17 0 0.06 0.17 0 0.08 0.17 0 0.1 0.17 0 0 0.175 0 0.02 0.175 0 0.04 0.175 0 0.06 0.175 0 0.08 0.175 0 0.1 0.175 0 0 0.18 0 0.02 0.18 0 0.04 0.18 0 0.06 0.18 0 0.08 0.18 0 0.1 0.18 0 0 0.185 0 0.02 0.185 0 0.04 0.185 0 0.06 0.185 0 0.08 0.185 0 0.1 0.185 0 0 0.19 0 0.02 0.19 0 0.04 0.19 0 0.06 0.19 0 0.08 0.19 0 0.1 0.19 0 0 0.195 0 0.02 0.195 0 0.04 0.195 0 0.06 0.195 0 0.08 0.195 0 0.1 0.195 0 0 0.2 0 0.02 0.2 0 0.04 0.2 0 0.06 0.2 0 0.08 0.2 0 0.1 0.2 0 0 0.205 0 0.02 0.205 0 0.04 0.205 0 0.06 0.205 0 0.08 0.205 0 0.1 0.205 0 0 0.21 0 0.02 0.21 0 0.04 0.21 0 0.06 0.21 0 0.08 0.21 0 0.1 0.21 0 0 0.215 0 0.02 0.215 0 0.04 0.215 0 0.06 0.215 0 0.08 0.215 0 0.1 0.215 0 0 0.22 0 0.02 0.22 0 0.04 0.22 0 0.06 0.22 0 0.08 0.22 0 0.1 0.22 0 0 0.225 0 0.02 0.225 0 0.04 0.225 0 0.06 0.225 0 0.08 0.225 0 0.1 0.225 0 0 0.23 0 0.02 0.23 0 0.04 0.23 0 0.06 0.23 0 0.08 0.23 0 0.1 0.23 0 0 0.235 0 0.02 0.235 0 0.04 0.235 0 0.06 0.235 0 0.08 0.235 0 0.1 0.235 0 0 0.24 0 0.02 0.24 0 0.04 0.24 0 0.06 0.24 0 0.08 0.24 0 0.1 0.24 0 0 0.245 0 0.02 0.245 0 0.04 0.245 0 0.06 0.245 0 0.08 0.245 0 0.1 0.245 0 0 0.25 0 0.02 0.25 0 0.04 0.25 0 0.06 0.25 0 0.08 0.25 0 0.1 0.25 0 0 0.255 0 0.02 0.255 0 0.04 0.255 0 0.06 0.255 0 0.08 0.255 0 0.1 0.255 0 0 0.26 0 0.02 0.26 0 0.04 0.26 0 0.06 0.26 0 0.08 0.26 0 0.1 0.26 0 0 0.265 0 0.02 0.265 0 0.04 0.265 0 0.06 0.265 0 0.08 0.265 0 0.1 0.265 0 0 0.27 0 0.02 0.27 0 0.04 0.27 0 0.06 0.27 0 0.08 0.27 0 0.1 0.27 0 0 0.275 0 0.02 0.275 0 0.04 0.275 0 0.06 0.275 0 0.08 0.275 0 0.1 0.275 0 0 0.28 0 0.02 0.28 0 0.04 0.28 0 0.06 0.28 0 0.08 0.28 0 0.1 0.28 0 0 0.285 0 0.02 0.285 0 0.04 0.285 0 0.06 0.285 0 0.08 0.285 0 0.1 0.285 0 0 0.29 0 0.02 0.29 0 0.04 0.29 0 0.06 0.29 0 0.08 0.29 0 0.1 0.29 0 0 0.295 0 0.02 0.295 0 0.04 0.295 0 0.06 0.295 0 0.08 0.295 0 0.1 0.295 0 0 0.3 0 0.02 0.3 0 0.04 0.3 0 0.06 0.3 0 0.08 0.3 0 0.1 0.3 0 0 0.305 0 0.02 0.305 0 0.04 0.305 0 0.06 0.305 0 0.08 0.305 0 0.1 0.305 0 0 0.31 0 0.02 0.31 0 0.04 0.31 0 0.06 0.31 0 0.08 0.31 0 0.1 0.31 0 0 0.315 0 0.02 0.315 0 0.04 0.315 0 0.06 0.315 0 0.08 0.315 0 0.1 0.315 0 0 0.32 0 0.02 0.32 0 0.04 0.32 0 0.06 0.32 0 0.08 0.32 0 0.1 0.32 0 0 0.325 0 0.02 0.325 0 0.04 0.325 0 0.06 0.325 0 0.08 0.325 0 0.1 0.325 0 0 0.33 0 0.02 0.33 0 0.04 0.33 0 0.06 0.33 0 0.08 0.33 0 0.1 0.33 0 0 0.335 0 0.02 0.335 0 0.04 0.335 0 0.06 0.335 0 0.08 0.335 0 0.1 0.335 0 0 0.34 0 0.02 0.34 0 0.04 0.34 0 0.06 0.34 0 0.08 0.34 0 0.1 0.34 0 0 0.345 0 0.02 0.345 0 0.04 0.345 0 0.06 0.345 0 0.08 0.345 0 0.1 0.345 0 0 0.35 0 0.02 0.35 0 0.04 0.35 0 0.06 0.35 0 0.08 0.35 0 0.1 0.35 0 0 0.355 0 0.02 0.355 0 0.04 0.355 0 0.06 0.355 0 0.08 0.355 0 0.1 0.355 0 0 0.36 0 0.02 0.36 0 0.04 0.36 0 0.06 0.36 0 0.08 0.36 0 0.1 0.36 0 0 0.365 0 0.02 0.365 0 0.04 0.365 0 0.06 0.365 0 0.08 0.365 0 0.1 0.365 0 0 0.37 0 0.02 0.37 0 0.04 0.37 0 0.06 0.37 0 0.08 0.37 0 0.1 0.37 0 0 0.375 0 0.02 0.375 0 0.04 0.375 0 0.06 0.375 0 0.08 0.375 0 0.1 0.375 0 0 0.38 0 0.02 0.38 0 0.04 0.38 0 0.06 0.38 0 0.08 0.38 0 0.1 0.38 0 0 0.385 0 0.02 0.385 0 0.04 0.385 0 0.06 0.385 0 0.08 0.385 0 0.1 0.385 0 0 0.39 0 0.02 0.39 0 0.04 0.39 0 0.06 0.39 0 0.08 0.39 0 0.1 0.39 0 0 0.395 0 0.02 0.395 0 0.04 0.395 0 0.06 0.395 0 0.08 0.395 0 0.1 0.395 0 0 0.4 0 0.02 0.4 0 0.04 0.4 0 0.06 0.4 0 0.08 0.4 0 0.1 0.4 0 0 0.405 0 0.02 0.405 0 0.04 0.405 0 0.06 0.405 0 0.08 0.405 0 0.1 0.405 0 0 0.41 0 0.02 0.41 0 0.04 0.41 0 0.06 0.41 0 0.08 0.41 0 0.1 0.41 0 0 0.415 0 0.02 0.415 0 0.04 0.415 0 0.06 0.415 0 0.08 0.415 0 0.1 0.415 0 0 0.42 0 0.02 0.42 0 0.04 0.42 0 0.06 0.42 0 0.08 0.42 0 0.1 0.42 0 0 0.425 0 0.02 0.425 0 0.04 0.425 0 0.06 0.425 0 0.08 0.425 0 0.1 0.425 0 0 0.43 0 0.02 0.43 0 0.04 0.43 0 0.06 0.43 0 0.08 0.43 0 0.1 0.43 0 0 0.435 0 0.02 0.435 0 0.04 0.435 0 0.06 0.435 0 0.08 0.435 0 0.1 0.435 0 0 0.44 0 0.02 0.44 0 0.04 0.44 0 0.06 0.44 0 0.08 0.44 0 0.1 0.44 0 0 0.445 0 0.02 0.445 0 0.04 0.445 0 0.06 0.445 0 0.08 0.445 0 0.1 0.445 0 0 0.45 0 0.02 0.45 0 0.04 0.45 0 0.06 0.45 0 0.08 0.45 0 0.1 0.45 0 0 0.455 0 0.02 0.455 0 0.04 0.455 0 0.06 0.455 0 0.08 0.455 0 0.1 0.455 0 0 0.46 0 0.02 0.46 0 0.04 0.46 0 0.06 0.46 0 0.08 0.46 0 0.1 0.46 0 0 0.465 0 0.02 0.465 0 0.04 0.465 0 0.06 0.465 0 0.08 0.465 0 0.1 0.465 0 0 0.47 0 0.02 0.47 0 0.04 0.47 0 0.06 0.47 0 0.08 0.47 0 0.1 0.47 0 0 0.475 0 0.02 0.475 0 0.04 0.475 0 0.06 0.475 0 0.08 0.475 0 0.1 0.475 0 0 0.48 0 0.02 0.48 0 0.04 0.48 0 0.06 0.48 0 0.08 0.48 0 0.1 0.48 0 0 0.485 0 0.02 0.485 0 0.04 0.485 0 0.06 0.485 0 0.08 0.485 0 0.1 0.485 0 0 0.49 0 0.02 0.49 0 0.04 0.49 0 0.06 0.49 0 0.08 0.49 0 0.1 0.49 0 0 0.495 0 0.02 0.495 0 0.04 0.495 0 0.06 0.495 0 0.08 0.495 0 0.1 0.495 0 0 0.5 0 0.02 0.5 0 0.04 0.5 0 0.06 0.5 0 0.08 0.5 0 0.1 0.5 0 0 0.505 0 0.02 0.505 0 0.04 0.505 0 0.06 0.505 0 0.08 0.505 0 0.1 0.505 0 0 0.51 0 0.02 0.51 0 0.04 0.51 0 0.06 0.51 0 0.08 0.51 0 0.1 0.51 0 0 0.515 0 0.02 0.515 0 0.04 0.515 0 0.06 0.515 0 0.08 0.515 0 0.1 0.515 0 0 0.52 0 0.02 0.52 0 0.04 0.52 0 0.06 0.52 0 0.08 0.52 0 0.1 0.52 0 0 0.525 0 0.02 0.525 0 0.04 0.525 0 0.06 0.525 0 0.08 0.525 0 0.1 0.525 0 0 0.53 0 0.02 0.53 0 0.04 0.53 0 0.06 0.53 0 0.08 0.53 0 0.1 0.53 0 0 0.535 0 0.02 0.535 0 0.04 0.535 0 0.06 0.535 0 0.08 0.535 0 0.1 0.535 0 0 0.54 0 0.02 0.54 0 0.04 0.54 0 0.06 0.54 0 0.08 0.54 0 0.1 0.54 0 0 0.545 0 0.02 0.545 0 0.04 0.545 0 0.06 0.545 0 0.08 0.545 0 0.1 0.545 0 0 0.55 0 0.02 0.55 0 0.04 0.55 0 0.06 0.55 0 0.08 0.55 0 0.1 0.55 0 0 0.555 0 0.02 0.555 0 0.04 0.555 0 0.06 0.555 0 0.08 0.555 0 0.1 0.555 0 0 0.56 0 0.02 0.56 0 0.04 0.56 0 0.06 0.56 0 0.08 0.56 0 0.1 0.56 0 0 0.565 0 0.02 0.565 0 0.04 0.565 0 0.06 0.565 0 0.08 0.565 0 0.1 0.565 0 0 0.57 0 0.02 0.57 0 0.04 0.57 0 0.06 0.57 0 0.08 0.57 0 0.1 0.57 0 0 0.575 0 0.02 0.575 0 0.04 0.575 0 0.06 0.575 0 0.08 0.575 0 0.1 0.575 0 0 0.58 0 0.02 0.58 0 0.04 0.58 0 0.06 0.58 0 0.08 0.58 0 0.1 0.58 0 0 0.585 0 0.02 0.585 0 0.04 0.585 0 0.06 0.585 0 0.08 0.585 0 0.1 0.585 0 0 0.59 0 0.02 0.59 0 0.04 0.59 0 0.06 0.59 0 0.08 0.59 0 0.1 0.59 0 0 0.595 0 0.02 0.595 0 0.04 0.595 0 0.06 0.595 0 0.08 0.595 0 0.1 0.595 0 0 0.6 0 0.02 0.6 0 0.04 0.6 0 0.06 0.6 0 0.08 0.6 0 0.1 0.6 0 0 0.605 0 0.02 0.605 0 0.04 0.605 0 0.06 0.605 0 0.08 0.605 0 0.1 0.605 0 0 0.61 0 0.02 0.61 0 0.04 0.61 0 0.06 0.61 0 0.08 0.61 0 0.1 0.61 0 0 0.615 0 0.02 0.615 0 0.04 0.615 0 0.06 0.615 0 0.08 0.615 0 0.1 0.615 0 0 0.62 0 0.02 0.62 0 0.04 0.62 0 0.06 0.62 0 0.08 0.62 0 0.1 0.62 0 0 0.625 0 0.02 0.625 0 0.04 0.625 0 0.06 0.625 0 0.08 0.625 0 0.1 0.625 0 0 0.63 0 0.02 0.63 0 0.04 0.63 0 0.06 0.63 0 0.08 0.63 0 0.1 0.63 0 0 0.635 0 0.02 0.635 0 0.04 0.635 0 0.06 0.635 0 0.08 0.635 0 0.1 0.635 0 0 0.64 0 0.02 0.64 0 0.04 0.64 0 0.06 0.64 0 0.08 0.64 0 0.1 0.64 0 0 0.645 0 0.02 0.645 0 0.04 0.645 0 0.06 0.645 0 0.08 0.645 0 0.1 0.645 0 0 0.65 0 0.02 0.65 0 0.04 0.65 0 0.06 0.65 0 0.08 0.65 0 0.1 0.65 0 0 0.655 0 0.02 0.655 0 0.04 0.655 0 0.06 0.655 0 0.08 0.655 0 0.1 0.655 0 0 0.66 0 0.02 0.66 0 0.04 0.66 0 0.06 0.66 0 0.08 0.66 0 0.1 0.66 0 0 0.665 0 0.02 0.665 0 0.04 0.665 0 0.06 0.665 0 0.08 0.665 0 0.1 0.665 0 0 0.67 0 0.02 0.67 0 0.04 0.67 0 0.06 0.67 0 0.08 0.67 0 0.1 0.67 0 0 0.675 0 0.02 0.675 0 0.04 0.675 0 0.06 0.675 0 0.08 0.675 0 0.1 0.675 0 0 0.68 0 0.02 0.68 0 0.04 0.68 0 0.06 0.68 0 0.08 0.68 0 0.1 0.68 0 0 0.685 0 0.02 0.685 0 0.04 0.685 0 0.06 0.685 0 0.08 0.685 0 0.1 0.685 0 0 0.69 0 0.02 0.69 0 0.04 0.69 0 0.06 0.69 0 0.08 0.69 0 0.1 
[...]
			<PointData Scalars="VitesseX">
				<DataArray Name="VitesseX" type="Float32" format="ascii">
 0 1.18002e-15 -6.62381e-14 3.69175e-14 2.57076e-14 0 0 -8.56467e-15 -4.99833e-14 2.65135e-14 2.8194e-14 0 0 -3.2143e-14 -1.05853e-14 -1.21287e-15 3.74934e-14 0 0 -2.30741e-14 -1.36431e-14 -7.0155e-15 3.96988e-14 0 0 -3.13052e-14 5.39674e-15 -4.56014e-14 6.45059e-14 0 0 -5.45291e-14 1.34517e-14 -4.19232e-14 4.32908e-14 0 0 -1.5512e-14 -7.6871e-14 5.03179e-14 -3.89145e-14 0 0 3.98828e-15 -1.05114e-13 5.58072e-14 -6.36352e-14 0 0 -2.90709e-14 -6.20783e-14 -1.99964e-14 -1.32571e-14 0 0 -7.30927e-14 -2.64138e-14 -1.12579e-13 1.16733e-13 0 0 -1.17686e-13 1.05367e-14 -1.65754e-13 2.04224e-13 0 0 -1.36136e-13 -1.57823e-14 -3.95999e-14 6.61495e-14 0 0 -7.49755e-14 -1.17895e-13 1.36879e-13 -1.15846e-13 0 0 -1.0584e-13 -2.70276e-14 4.5462e-14 -9.33558e-14 0 0 -1.06565e-13 -1.18033e-14 -1.39253e-14 -3.45372e-14 0 0 -3.39034e-14 -1.42178e-13 5.6587e-14 5.07356e-15 0 0 -1.18076e-13 -2.41618e-14 -6.32483e-14 1.21881e-13 0 0 -1.09774e-13 -1.87833e-15 -1.06812e-13 1.79063e-13 0 0 -1.33969e-13 5.53023e-14 -1.5828e-13 1.97618e-13 0 0 -1.41382e-13 4.18783e-14 -9.94798e-14 8.46758e-14 0 0 -1.89647e-14 -1.64461e-13 7.88354e-14 -4.73558e-14 0 0 -2.37656e-14 -1.48615e-13 -5.6085e-15 3.09619e-14 0 0 -1.40055e-13 4.52486e-14 -1.86837e-13 8.47781e-14 0 0 -1.65589e-13 8.45022e-14 -1.53279e-13 -6.14297e-14 0 0 -6.95691e-15 -1.48599e-13 1.03175e-13 -2.76149e-13 0 0 9.06029e-14 -2.4157e-13 1.8812e-13 -3.48991e-13 0 0 -5.53857e-14 -4.29839e-14 4.4561e-14 -3.29455e-13 0 0 -2.01898e-13 1.60604e-13 -2.24579e-13 -1.377e-13 0 0 -1.11854e-13 4.52322e-14 -2.35896e-13 -7.93148e-14 0 0 -1.82604e-14 -1.1908e-13 -5.31848e-14 -2.23813e-13 0 0 -2.8445e-14 -1.17083e-13 1.4866e-14 -2.68371e-13 0 0 3.82429e-14 -2.01647e-13 7.61746e-14 -1.98383e-13 0 0 -4.37893e-14 -7.73171e-14 -7.81935e-14 6.84533e-14 0 0 -2.22077e-13 1.27994e-13 -1.77539e-13 1.95682e-13 0 0 -1.13529e-13 -6.01258e-14 1.76038e-14 1.36526e-13 0 0 3.26803e-14 -2.77951e-13 2.34604e-13 3.10688e-14 0 0 -2.29109e-13 1.17842e-13 1.34045e-14 8.19902e-14 0 0 -1.59409e-13 4.68049e-14 1.39839e-13 -2.67712e-14 0 0 -2.08096e-14 -1.10713e-13 2.69387e-13 -1.14182e-13 0 0 -1.47652e-13 8.49574e-14 2.80436e-15 7.21608e-14 0 0 -3.68359e-14 -1.19198e-13 2.16577e-14 9.01712e-14 0 0 -5.15383e-14 -1.48474e-13 -4.30252e-14 1.04172e-13 0 0 -1.57333e-13 -4.94732e-14 -1.07573e-13 8.15653e-14 0 0 -3.46258e-14 -1.89967e-13 -5.0742e-15 5.76059e-16 0 0 5.79214e-14 -2.95638e-13 1.12313e-13 -1.15546e-13 0 0 -6.5146e-14 -2.19667e-13 2.89271e-13 -3.97881e-13 0 0 -4.44763e-13 2.34398e-13 4.28532e-14 -3.32618e-13 0 0 -4.07961e-13 1.6257e-13 3.48962e-14 -2.80652e-13 0 0 -5.41509e-14 -2.58544e-13 2.93467e-13 -3.66369e-13 0 0 -7.11404e-14 -6.66639e-14 2.02729e-14 -1.41056e-13 0 0 -1.38989e-13 1.27499e-13 -1.68713e-13 -3.76635e-14 0 0 -3.8015e-13 3.22791e-13 -1.78457e-13 -2.014e-13 0 0 -1.96449e-13 -1.78147e-13 4.55955e-13 -7.20239e-13 0 0 -3.43177e-13 1.79352e-13 5.78391e-14 -5.03952e-13 0 0 -5.03056e-13 7.16059e-13 -5.57995e-13 -1.35158e-13 0 0 -7.23867e-14 1.01264e-13 4.32248e-14 -4.2473e-13 0 0 -4.05077e-13 3.58416e-13 -8.94828e-14 -2.88137e-13 0 0 -3.30239e-13 -7.30208e-14 3.81398e-13 -5.08206e-13 0 0 -3.6067e-13 -1.28974e-13 3.37431e-13 -3.92574e-13 0 0 -5.35163e-13 3.0884e-13 -2.36179e-13 -8.77744e-14 0 0 -1.5574e-13 3.91277e-15 -9.66674e-14 -2.42582e-13 0 0 -1.59739e-13 1.02097e-13 -2.36228e-13 -1.23715e-13 0 0 -1.58934e-13 5.53748e-14 -2.47703e-13 -1.25233e-15 0 0 -1.76356e-13 1.51637e-13 -5.53063e-13 3.02959e-13 0 0 -5.03469e-14 3.12185e-14 -5.18504e-13 2.58075e-13 0 0 5.7644e-14 -1.84853e-13 -1.72349e-13 -5.49377e-14 0 0 -1.0202e-13 1.09333e-14 -2.37808e-13 1.35422e-14 0 0 4.04958e-14 -2.58748e-13 3.13273e-14 -4.0295e-15 0 0 -2.58306e-13 5.72931e-14 -1.32554e-13 1.33688e-13 0 0 -6.67452e-13 5.26229e-13 -3.04314e-13 1.48938e-13 0 0 -1.07074e-13 -3.67356e-13 6.86697e-13 -4.48432e-13 0 0 -3.35972e-13 1.03935e-13 2.22513e-13 -8.09905e-14 0 0 -5.66371e-13 4.78704e-13 -1.38453e-13 9.18168e-14 0 0 -5.21363e-13 4.53317e-13 -1.50986e-13 -6.06904e-15 0 0 -3.28051e-13 2.29711e-13 4.38604e-14 -1.95009e-13 0 0 -8.05732e-14 -2.0047e-13 5.61039e-13 -6.42503e-13 0 0 -5.59311e-13 5.62328e-13 -1.78473e-13 -2.30148e-13 0 0 -5.11585e-13 5.1405e-13 -3.87783e-13 2.22894e-14 0 0 -5.03357e-13 3.24811e-13 -4.2986e-13 2.65992e-13 0 0 -2.29409e-13 -2.51327e-13 1.39293e-13 -3.99994e-14 0 0 -4.90836e-13 4.21607e-14 1.7416e-13 -3.53759e-13 0 0 -8.13338e-13 5.4805e-13 -1.68647e-13 -3.42413e-13 0 0 2.18876e-13 -7.89003e-13 7.2759e-13 -7.06779e-13 0 0 -1.34339e-13 -1.5567e-13 3.90166e-14 -3.61575e-13 0 0 -1.07165e-12 1.19452e-12 -1.23996e-12 2.89297e-13 0 0 1.12693e-13 -4.22301e-13 -8.68581e-14 -1.16658e-13 0 0 5.98692e-13 -1.19073e-12 6.52157e-13 -3.98327e-13 0 0 -3.65378e-13 2.50645e-14 -3.30415e-13 1.79448e-13 0 0 -4.7993e-13 2.45281e-13 -6.75422e-13 3.56001e-13 0 0 -8.19183e-13 3.35002e-13 -7.8814e-13 4.93789e-13 0 0 -3.28517e-13 -7.14041e-13 7.96128e-14 1.28456e-13 0 0 2.7746e-13 -1.43289e-12 7.32377e-13 -1.89245e-13 0 0 -5.03246e-13 -8.2734e-14 -3.85784e-13 3.24947e-13 0 0 -6.09163e-13 6.02534e-13 -6.86128e-13 2.25271e-13 0 0 -7.82231e-13 8.46871e-13 -5.46731e-13 -1.19773e-14 0 0 1.88234e-13 -6.56506e-13 4.59538e-13 -4.78421e-13 0 0 9.54288e-13 -1.62671e-12 1.21382e-12 -7.5321e-13 0 0 -3.81373e-13 -5.6829e-14 6.08384e-13 -8.49045e-13 0 0 -1.44109e-12 1.2477e-12 -6.43399e-14 -8.80404e-13 0 0 -8.52274e-13 6.88116e-13 -3.93178e-14 -6.93468e-13 0 0 3.60223e-13 -3.06007e-13 -1.38963e-13 -2.96089e-13 0 0 4.68138e-13 -1.90969e-13 -4.51657e-13 3.25188e-14 0 0 1.55127e-13 3.04033e-13 -8.9128e-13 2.51164e-13 0 0 -1.85594e-13 3.90536e-13 -9.07445e-13 2.44283e-13 0 0 -2.37668e-13 1.86121e-13 -7.52994e-13 1.71251e-13 0 0 -2.2146e-13 -2.84894e-13 -3.96587e-13 2.31447e-14 0 0 -2.72131e-13 -4.87114e-13 -3.04218e-13 -1.28235e-13 0 0 -3.80752e-13 -4.85111e-13 -3.46043e-13 -1.41386e-13 0 0 -4.16685e-13 -4.68662e-13 -3.8191e-13 -1.84465e-13 0 0 -4.50158e-13 -3.94225e-13 -3.32174e-13 -2.69046e-13 0 0 -3.50679e-13 -5.06168e-13 -8.09395e-14 -4.30236e-13 0 0 -2.24434e-13 -4.39804e-13 -8.11813e-14 -3.94123e-13 0 0 -4.23228e-13 7.41768e-15 -4.11991e-13 -1.15382e-13 0 0 -4.91277e-13 1.39911e-13 -5.43727e-13 1.28526e-13 0 0 -1.28978e-13 -3.84467e-13 3.92911e-16 -2.34797e-13 0 0 1.91714e-13 -8.31353e-13 4.35383e-13 -5.62801e-13 0 0 -1.48321e-13 -3.086e-13 -8.93697e-14 -2.20673e-13 0 0 -6.293e-13 3.98212e-13 -7.11407e-13 1.10589e-13 0 0 -3.304e-13 -1.13161e-13 -1.44862e-13 -2.99007e-13 0 0 -3.00951e-13 -1.3371e-13 -6.16921e-14 -4.50187e-13 0 0 -1.99892e-13 -2.0491e-13 -1.24096e-14 -4.9313e-13 0 0 -2.15235e-13 -1.88885e-13 -8.47199e-14 -3.29292e-13 0 0 -8.10151e-13 6.78503e-13 -9.53451e-13 3.52045e-13 0 0 -2.77008e-13 -2.56765e-13 -3.02695e-14 -1.30337e-13 0 0 -2.15528e-13 -3.96165e-13 1.69697e-13 -3.51424e-13 0 0 -9.70792e-14 -3.53748e-13 -5.26441e-14 -2.87056e-13 0 0 -8.82957e-14 -2.79659e-13 -2.15092e-13 -1.953e-13 0 0 -8.31325e-13 7.26557e-13 -1.06363e-12 3.40678e-13 0 0 -3.22983e-13 -1.62432e-13 -1.45295e-13 -1.7372e-13 0 0 -3.44626e-13 -2.4215e-13 1.28627e-13 -4.67891e-13 0 0 -2.06969e-13 -3.7605e-13 2.43764e-13 -6.2622e-13 0 0 -1.22433e-13 -4.19688e-13 4.15121e-14 -4.09922e-13 0 0 -8.98434e-13 6.9602e-13 -1.17773e-12 4.88479e-13 0 0 -3.6909e-13 -2.57049e-13 -1.14158e-13 -2.13602e-13 0 0 -4.43917e-13 -1.32333e-13 6.58701e-14 -6.35914e-13 0 0 -2.48546e-13 -1.7316e-13 -9.52273e-14 -5.85073e-13 0 0 -5.56639e-14 -5.10972e-13 1.44336e-14 -5.50589e-13 0 0 -8.95199e-13 5.32065e-13 -1.02793e-12 2.2828e-13 0 0 -2.35567e-13 -4.81823e-13 -1.92236e-13 -1.16677e-13 0 0 -1.45283e-13 -6.13102e-13 1.38591e-13 -4.96023e-13 0 0 -5.20332e-13 -8.48119e-14 -2.61231e-13 -4.52359e-13 0 0 1.69458e-13 -1.07965e-12 3.70225e-13 -6.01342e-13 0 0 -7.45095e-13 2.61907e-13 -7.92489e-13 2.23524e-13 0 0 -1.09446e-12 7.85563e-13 -1.00938e-12 2.65157e-13 0 0 2.06589e-13 -8.80761e-13 6.20832e-13 -6.67011e-13 0 0 -2.12196e-13 -1.89266e-13 2.68934e-13 -5.20246e-13 0 0 -2.7358e-13 -2.1407e-13 1.13078e-13 -1.7663e-13 0 0 -6.46748e-13 1.54136e-13 -6.43572e-13 6.67584e-13 0 0 -1.0052e-12 4.60505e-13 -8.00212e-13 7.56832e-13 0 0 -6.06109e-14 -8.73997e-13 7.83408e-13 -3.78146e-13 0 0 -5.18626e-13 -7.9484e-14 3.34475e-13 -2.08306e-13 0 0 -3.41269e-13 -2.91864e-13 2.77247e-13 2.58184e-13 0 0 -6.68376e-13 1.94374e-13 -5.60189e-13 1.08538e-12 0 0 -8.53932e-13 3.50762e-13 -6.00973e-13 8.47068e-13 0 0 -4.47621e-13 -3.67372e-13 2.43161e-13 -1.39955e-13 0 0 -2.62082e-13 -4.14055e-13 -6.66384e-14 -2.37905e-13 0 0 -1.98048e-13 -4.0939e-13 -4.63957e-13 -5.73022e-14 0 0 -7.89924e-13 2.83156e-13 -1.07253e-12 1.99951e-13 0 0 -5.23627e-13 -3.23808e-13 -2.45278e-13 -4.09771e-13 0 0 -4.17822e-13 -6.63246e-13 3.859e-13 -1.02543e-12 0 0 -5.04367e-14 -9.44264e-13 4.43881e-13 -1.20496e-12 0 0 -1.92216e-13 -1.81088e-13 -9.7459e-13 -4.33364e-14 0 0 -6.85604e-13 7.66674e-13 -2.2144e-12 9.92562e-13 0 0 -2.76879e-13 -2.77399e-13 -7.72941e-13 -2.6647e-14 0 0 -1.47243e-13 -9.75287e-13 4.77918e-13 -1.19151e-12 0 0 -2.53087e-13 -7.57574e-13 2.29331e-13 -1.23611e-12 0 0 -5.29045e-13 -1.1427e-13 -7.84835e-13 -3.0262e-13 0 0 -8.45472e-13 4.48698e-13 -1.77501e-12 9.22142e-13 0 0 -5.22852e-14 -7.65437e-13 -9.67359e-13 8.30446e-13 0 0 -3.42667e-13 -4.37443e-13 -9.80947e-13 4.13526e-13 0 0 -7.88134e-13 1.95423e-13 -1.0946e-12 -1.69576e-13 0 0 -1.06057e-13 -9.97671e-13 2.77433e-13 -1.1388e-12 0 0 -6.89294e-13 -1.91087e-13 -4.51805e-13 -6.81298e-13 0 0 -3.2184e-13 -4.08996e-13 -6.12686e-13 -6.59627e-13 0 0 -3.58209e-13 -1.04285e-13 -1.14291e-12 -4.4914e-13 0 0 -6.11509e-13 1.17907e-13 -1.23044e-12 -3.20636e-13 0 0 -1.4466e-14 -1.28163e-12 5.40984e-13 -1.22086e-12 0 0 -7.23496e-13 -3.5762e-13 -1.2402e-13 -6.51594e-13 0 0 -2.80662e-13 -5.42396e-13 -5.13689e-13 -2.47756e-13 0 0 -1.74491e-13 -2.94217e-13 -1.17851e-12 2.52989e-14 0 0 -5.35604e-13 2.464e-13 -1.56819e-12 1.01238e-13 0 0 3.80804e-14 -1.10363e-12 1.30358e-13 -7.15748e-13 0 0 -6.15299e-13 -5.14289e-13 7.60157e-14 -6.68361e-13 0 0 -5.40452e-13 -3.83053e-13 -2.07688e-13 -6.11986e-13 0 0 -4.07752e-13 -2.35332e-13 -7.98072e-13 -3.79482e-13 0 0 -5.15612e-13 -1.63843e-13 -8.65445e-13 -6.01911e-13 0 0 5.74268e-14 -1.4435e-12 5.70916e-13 -1.3585e-12 0 0 -7.07661e-13 -4.28827e-13 -1.69452e-13 -7.30323e-13 0 0 -5.48521e-13 -2.07609e-13 -5.01675e-13 -5.17165e-13 0 0 -9.40645e-13 3.71109e-13 -8.63845e-13 -4.52926e-13 0 0 -1.25499e-12 3.60371e-13 -6.48145e-13 -4.5407e-13 0 0 3.04884e-13 -2.20822e-12 1.67018e-12 -1.47786e-12 0 0 -1.26763e-12 2.29214e-13 -5.44893e-13 -2.31592e-13 0 0 -1.80762e-12 1.4138e-12 -1.78212e-12 2.56832e-13 0 0 -6.52965e-14 -7.38057e-13 2.02454e-13 -1.22771e-12 0 0 -1.1728e-13 -7.37221e-13 4.9898e-13 -1.59975e-12 0 0 5.95678e-14 -1.34012e-12 9.04137e-13 -1.64224e-12 0 0 -1.23455e-12 8.31407e-13 -1.76626e-12 3.36721e-13 0 0 -1.30143e-12 9.91306e-13 -1.88522e-12 5.683e-13 0 0 -4.65132e-14 -1.31102e-12 1.08319e-12 -1.43259e-12 0 0 -3.93071e-13 -1.04243e-12 1.32093e-12 -1.74288e-12 0
				</DataArray>
				<DataArray Name="VitesseY" type="Float32" format="ascii">