<?xml version="1.0"?>
<VTKFile type="PolyData">
	<PolyData>
		<Piece NumberOfPoints="1206" NumberOfPolys="1000">
			<Points>
				<DataArray type="Float32" NumberOfComponents="3" format="ascii">
 0 0 0 0.02 0 0 0.04 0 0 0.06 0 0 0.08 0 0 0.1 0 0 0 0.005 0 0.02 0.005 0 0.04 0.005 0 0.06 0.005 0 0.08 0.005 0 0.1 0.005 0 0 0.01 0 0.02 0.01 0 0.04 0.01 0 0.06 0.01 0 0.08 0.01 0 0.1 0.01 0 0 0.015 0 0.02 0.015 0 0.04 0.015 0 0.06 0.015 0 0.08 0.015 0 0.1 0.015 0 0 0.02 0 0.02 0.02 0 0.04 0.02 0 0.06 0.02 0 0.08 0.02 0 0.1 0.02 0 0 0.025 0 0.02 0.025 0 0.04 0.025 0 0.06 0.025 0 0.08 0.025 0 0.1 0.025 0 0 0.03 0 0.02 0.03 0 0.04 0.03 0 0.06 0.03 0 0.08 0.03 0 0.1 0.03 0 0 0.035 0 0.02 0.035 0 0.04 0.035 0 0.06 0.035 0 0.08 0.035 0 0.1 0.035 0 0 0.04 0 0.02 0.04 0 0.04 0.04 0 0.06 0.04 0 0.08 0.04 0 0.1 0.04 0 0 0.045 0 0.02 0.045 0 0.04 0.045 0 0.06 0.045 0 0.08 0.045 0 0.1 0.045 0 0 0.05 0 0.02 0.05 0 0.04 0.05 0 0.06 0.05 0 0.08 0.05 0 0.1 0.05 0 0 0.055 0 0.02 0.055 0 0.04 0.055 0 0.06 0.055 0 0.08 0.055 0 0.1 0.055 0 0 0.06 0 0.02 0.06 0 0.04 0.06 0 0.06 0.06 0 0.08 0.06 0 0.1 0.06 0 0 0.065 0 0.02 0.065 0 0.04 0.065 0 0.06 0.065 0 0.08 0.065 0 0.1 0.065 0 0 0.07 0 0.02 0.07 0 0.04 0.07 0 0.06 0.07 0 0.08 0.07 0 0.1 0.07 0 0 0.075 0 0.02 0.075 0 0.04 0.075 0 0.06 0.075 0 0.08 0.075 0 0.1 0.075 0 0 0.08 0 0.02 0.08 0 0.04 0.08 0 0.06 0.08 0 0.08 0.08 0 0.1 0.08 0 0 0.085 0 0.02 0.085 0 0.04 0.085 0 0.06 0.085 0 0.08 0.085 0 0.1 0.085 0 0 0.09 0 0.02 0.09 0 0.04 0.09 0 0.06 0.09 0 0.08 0.09 0 0.1 0.09 0 0 0.095 0 0.02 0.095 0 0.04 0.095 0 0.06 0.095 0 0.08 0.095 0 0.1 0.095 0 0 0.1 0 0.02 0.1 0 0.04 0.1 0 0.06 0.1 0 0.08 0.1 0 0.1 0.1 0 0 0.105 0 0.02 0.105 0 0.04 0.105 0 0.06 0.105 0 0.08 0.105 0 0.1 0.105 0 0 0.11 0 0.02 0.11 0 0.04 0.11 0 0.06 0.11 0 0.08 0.11 0 0.1 0.11 0 0 0.115 0 0.02 0.115 0 0.04 0.115 0 0.06 0.115 0 0.08 0.115 0 0.1 0.115 0 0 0.12 0 0.02 0.12 0 0.04 0.12 0 0.06 0.12 0 0.08 0.12 0 0.1 0.12 0 0 0.125 0 0.02 0.125 0 0.04 0.125 0 0.06 0.125 0 0.08 0.125 0 0.1 0.125 0 0 0.13 0 0.02 0.13 0 0.04 0.13 0 0.06 0.13 0 0.08 0.13 0 0.1 0.13 0 0 0.135 0 0.02 0.135 0 0.04 0.135 0 0.06 0.135 0 0.08 0.135 0 0.1 0.135 0 0 0.14 0 0.02 0.14 0 0.04 0.14 0 0.06 0.14 0 0.08 0.14 0 0.1 0.14 0 0 0.145 0 0.02 0.145 0 0.04 0.145 0 0.06 0.145 0 0.08 0.145 0 0.1 0.145 0 0 0.15 0 0.02 0.15 0 0.04 0.15 0 0.06 0.15 0 0.08 0.15 0 0.1 0.15 0 0 0.155 0 0.02 0.155 0 0.04 0.155 0 0.06 0.155 0 0.08 0.155 0 0.1 0.155 0 0 0.16 0 0.02 0.16 0 0.04 0.16 0 0.06 0.16 0 0.08 0.16 0 0.1 0.16 0 0 0.165 0 0.02 0.165 0 0.04 0.165 0 0.06 0.165 0 0.08 0.165 0 0.1 0.165 0 0 0.17 0 0.02 0.17 0 0.04 0.17 0 0.06 0.17 0 0.08 0.17 0 0.1 0.17 0 0 0.175 0 0.02 0.175 0 0.04 0.175 0 0.06 0.175 0 0.08 0.175 0 0.1 0.175 0 0 0.18 0 0.02 0.18 0 0.04 0.18 0 0.06 0.18 0 0.08 0.18 0 0.1 0.18 0 0 0.185 0 0.02 0.185 0 0.04 0.185 0 0.06 0.185 0 0.08 0.185 0 0.1 0.185 0 0 0.19 0 0.02 0.19 0 0.04 0.19 0 0.06 0.19 0 0.08 0.19 0 0.1 0.19 0 0 0.195 0 0.02 0.195 0 0.04 0.195 0 0.06 0.195 0 0.08 0.195 0 0.1 0.195 0 0 0.2 0 0.02 0.2 0 0.04 0.2 0 0.06 0.2 0 0.08 0.2 0 0.1 0.2 0 0 0.205 0 0.02 0.205 0 0.04 0.205 0 0.06 0.205 0 0.08 0.205 0 0.1 0.205 0 0 0.21 0 0.02 0.21 0 0.04 0.21 0 0.06 0.21 0 0.08 0.21 0 0.1 0.21 0 0 0.215 0 0.02 0.215 0 0.04 0.215 0 0.06 0.215 0 0.08 0.215 0 0.1 0.215 0 0 0.22 0 0.02 0.22 0 0.04 0.22 0 0.06 0.22 0 0.08 0.22 0 0.1 0.22 0 0 0.225 0 0.02 0.225 0 0.04 0.225 0 0.06 0.225 0 0.08 0.225 0 0.1 0.225 0 0 0.23 0 0.02 0.23 0 0.04 0.23 0 0.06 0.23 0 0.08 0.23 0 0.1 0.23 0 0 0.235 0 0.02 0.235 0 0.04 0.235 0 0.06 0.235 0 0.08 0.235 0 0.1 0.235 0 0 0.24 0 0.02 0.24 0 0.04 0.24 0 0.06 0.24 0 0.08 0.24 0 0.1 0.24 0 0 0.245 0 0.02 0.245 0 0.04 0.245 0 0.06 0.245 0 0.08 0.245 0 0.1 0.245 0 0 0.25 0 0.02 0.25 0 0.04 0.25 0 0.06 0.25 0 0.08 0.25 0 0.1 0.25 0 0 0.255 0 0.02 0.255 0 0.04 0.255 0 0.06 0.255 0 0.08 0.255 0 0.1 0.255 0 0 0.26 0 0.02 0.26 0 0.04 0.26 0 0.06 0.26 0 0.08 0.26 0 0.1 0.26 0 0 0.265 0 0.02 0.265 0 0.04 0.265 0 0.06 0.265 0 0.08 0.265 0 0.1 0.265 0 0 0.27 0 0.02 0.27 0 0.04 0.27 0 0.06 0.27 0 0.08 0.27 0 0.1 0.27 0 0 0.275 0 0.02 0.275 0 0.04 0.275 0 0.06 0.275 0 0.08 0.275 0 0.1 0.275 0 0 0.28 0 0.02 0.28 0 0.04 0.28 0 0.06 0.28 0 0.08 0.28 0 0.1 0.28 0 0 0.285 0 0.02 0.285 0 0.04 0.285 0 0.06 0.285 0 0.08 0.285 0 0.1 0.285 0 0 0.29 0 0.02 0.29 0 0.04 0.29 0 0.06 0.29 0 0.08 0.29 0 0.1 0.29 0 0 0.295 0 0.02 0.295 0 0.04 0.295 0 0.06 0.295 0 0.08 0.295 0 0.1 0.295 0 0 0.3 0 0.02 0.3 0 0.04 0.3 0 0.06 0.3 0 0.08 0.3 0 0.1 0.3 0 0 0.305 0 0.02 0.305 0 0.04 0.305 0 0.06 0.305 0 0.08 0.305 0 0.1 0.305 0 0 0.31 0 0.02 0.31 0 0.04 0.31 0 0.06 0.31 0 0.08 0.31 0 0.1 0.31 0 0 0.315 0 0.02 0.315 0 0.04 0.315 0 0.06 0.315 0 0.08 0.315 0 0.1 0.315 0 0 0.32 0 0.02 0.32 0 0.04 0.32 0 0.06 0.32 0 0.08 0.32 0 0.1 0.32 0 0 0.325 0 0.02 0.325 0 0.04 0.325 0 0.06 0.325 0 0.08 0.325 0 0.1 0.325 0 0 0.33 0 0.02 0.33 0 0.04 0.33 0 0.06 0.33 0 0.08 0.33 0 0.1 0.33 0 0 0.335 0 0.02 0.335 0 0.04 0.335 0 0.06 0.335 0 0.08 0.335 0 0.1 0.335 0 0 0.34 0 0.02 0.34 0 0.04 0.34 0 0.06 0.34 0 0.08 0.34 0 0.1 0.34 0 0 0.345 0 0.02 0.345 0 0.04 0.345 0 0.06 0.345 0 0.08 0.345 0 0.1 0.345 0 0 0.35 0 0.02 0.35 0 0.04 0.35 0 0.06 0.35 0 0.08 0.35 0 0.1 0.35 0 0 0.355 0 0.02 0.355 0 0.04 0.355 0 0.06 0.355 0 0.08 0.355 0 0.1 0.355 0 0 0.36 0 0.02 0.36 0 0.04 0.36 0 0.06 0.36 0 0.08 0.36 0 0.1 0.36 0 0 0.365 0 0.02 0.365 0 0.04 0.365 0 0.06 0.365 0 0.08 0.365 0 0.1 0.365 0 0 0.37 0 0.02 0.37 0 0.04 0.37 0 0.06 0.37 0 0.08 0.37 0 0.1 0.37 0 0 0.375 0 0.02 0.375 0 0.04 0.375 0 0.06 0.375 0 0.08 0.375 0 0.1 0.375 0 0 0.38 0 0.02 0.38 0 0.04 0.38 0 0.06 0.38 0 0.08 0.38 0 0.1 0.38 0 0 0.385 0 0.02 0.385 0 0.04 0.385 0 0.06 0.385 0 0.08 0.385 0 0.1 0.385 0 0 0.39 0 0.02 0.39 0 0.04 0.39 0 0.06 0.39 0 0.08 0.39 0 0.1 0.39 0 0 0.395 0 0.02 0.395 0 0.04 0.395 0 0.06 0.395 0 0.08 0.395 0 0.1 0.395 0 0 0.4 0 0.02 0.4 0 0.04 0.4 0 0.06 0.4 0 0.08 0.4 0 0.1 0.4 0 0 0.405 0 0.02 0.405 0 0.04 0.405 0 0.06 0.405 0 0.08 0.405 0 0.1 0.405 0 0 0.41 0 0.02 0.41 0 0.04 0.41 0 0.06 0.41 0 0.08 0.41 0 0.1 0.41 0 0 0.415 0 0.02 0.415 0 0.04 0.415 0 0.06 0.415 0 0.08 0.415 0 0.1 0.415 0 0 0.42 0 0.02 0.42 0 0.04 0.42 0 0.06 0.42 0 0.08 0.42 0 0.1 0.42 0 0 0.425 0 0.02 0.425 0 0.04 0.425 0 0.06 0.425 0 0.08 0.425 0 0.1 0.425 0 0 0.43 0 0.02 0.43 0 0.04 0.43 0 0.06 0.43 0 0.08 0.43 0 0.1 0.43 0 0 0.435 0 0.02 0.435 0 0.04 0.435 0 0.06 0.435 0 0.08 0.435 0 0.1 0.435 0 0 0.44 0 0.02 0.44 0 0.04 0.44 0 0.06 0.44 0 0.08 0.44 0 0.1 0.44 0 0 0.445 0 0.02 0.445 0 0.04 0.445 0 0.06 0.445 0 0.08 0.445 0 0.1 0.445 0 0 0.45 0 0.02 0.45 0 0.04 0.45 0 0.06 0.45 0 0.08 0.45 0 0.1 0.45 0 0 0.455 0 0.02 0.455 0 0.04 0.455 0 0.06 0.455 0 0.08 0.455 0 0.1 0.455 0 0 0.46 0 0.02 0.46 0 0.04 0.46 0 0.06 0.46 0 0.08 0.46 0 0.1 0.46 0 0 0.465 0 0.02 0.465 0 0.04 0.465 0 0.06 0.465 0 0.08 0.465 0 0.1 0.465 0 0 0.47 0 0.02 0.47 0 0.04 0.47 0 0.06 0.47 0 0.08 0.47 0 0.1 0.47 0 0 0.475 0 0.02 0.475 0 0.04 0.475 0 0.06 0.475 0 0.08 0.475 0 0.1 0.475 0 0 0.48 0 0.02 0.48 0 0.04 0.48 0 0.06 0.48 0 0.08 0.48 0 0.1 0.48 0 0 0.485 0 0.02 0.485 0 0.04 0.485 0 0.06 0.485 0 0.08 0.485 0 0.1 0.485 0 0 0.49 0 0.02 0.49 0 0.04 0.49 0 0.06 0.49 0 0.08 0.49 0 0.1 0.49 0 0 0.495 0 0.02 0.495 0 0.04 0.495 0 0.06 0.495 0 0.08 0.495 0 0.1 0.495 0 0 0.5 0 0.02 0.5 0 0.04 0.5 0 0.06 0.5 0 0.08 0.5 0 0.1 0.5 0 0 0.505 0 0.02 0.505 0 0.04 0.505 0 0.06 0.505 0 0.08 0.505 0 0.1 0.505 0 0 0.51 0 0.02 0.51 0 0.04 0.51 0 0.06 0.51 0 0.08 0.51 0 0.1 0.51 0 0 0.515 0 0.02 0.515 0 0.04 0.515 0 0.06 0.515 0 0.08 0.515 0 0.1 0.515 0 0 0.52 0 0.02 0.52 0 0.04 0.52 0 0.06 0.52 0 0.08 0.52 0 0.1 0.52 0 0 0.525 0 0.02 0.525 0 0.04 0.525 0 0.06 0.525 0 0.08 0.525 0 0.1 0.525 0 0 0.53 0 0.02 0.53 0 0.04 0.53 0 0.06 0.53 0 0.08 0.53 0 0.1 0.53 0 0 0.535 0 0.02 0.535 0 0.04 0.535 0 0.06 0.535 0 0.08 0.535 0 0.1 0.535 0 0 0.54 0 0.02 0.54 0 0.04 0.54 0 0.06 0.54 0 0.08 0.54 0 0.1 0.54 0 0 0.545 0 0.02 0.545 0 0.04 0.545 0 0.06 0.545 0 0.08 0.545 0 0.1 0.545 0 0 0.55 0 0.02 0.55 0 0.04 0.55 0 0.06 0.55 0 0.08 0.55 0 0.1 0.55 0 0 0.555 0 0.02 0.555 0 0.04 0.555 0 0.06 0.555 0 0.08 0.555 0 0.1 0.555 0 0 0.56 0 0.02 0.56 0 0.04 0.56 0 0.06 0.56 0 0.08 0.56 0 0.1 0.56 0 0 0.565 0 0.02 0.565 0 0.04 0.565 0 0.06 0.565 0 0.08 0.565 0 0.1 0.565 0 0 0.57 0 0.02 0.57 0 0.04 0.57 0 0.06 0.57 0 0.08 0.57 0 0.1 0.57 0 0 0.575 0 0.02 0.575 0 0.04 0.575 0 0.06 0.575 0 0.08 0.575 0 0.1 0.575 0 0 0.58 0 0.02 0.58 0 0.04 0.58 0 0.06 0.58 0 0.08 0.58 0 0.1 0.58 0 0 0.585 0 0.02 0.585 0 0.04 0.585 0 0.06 0.585 0 0.08 0.585 0 0.1 0.585 0 0 0.59 0 0.02 0.59 0 0.04 0.59 0 0.06 0.59 0 0.08 0.59 0 0.1 0.59 0 0 0.595 0 0.02 0.595 0 0.04 0.595 0 0.06 0.595 0 0.08 0.595 0 0.1 0.595 0 0 0.6 0 0.02 0.6 0 0.04 0.6 0 0.06 0.6 0 0.08 0.6 0 0.1 0.6 0 0 0.605 0 0.02 0.605 0 0.04 0.605 0 0.06 0.605 0 0.08 0.605 0 0.1 0.605 0 0 0.61 0 0.02 0.61 0 0.04 0.61 0 0.06 0.61 0 0.08 0.61 0 0.1 0.61 0 0 0.615 0 0.02 0.615 0 0.04 0.615 0 0.06 0.615 0 0.08 0.615 0 0.1 0.615 0 0 0.62 0 0.02 0.62 0 0.04 0.62 0 0.06 0.62 0 0.08 0.62 0 0.1 0.62 0 0 0.625 0 0.02 0.625 0 0.04 0.625 0 0.06 0.625 0 0.08 0.625 0 0.1 0.625 0 0 0.63 0 0.02 0.63 0 0.04 0.63 0 0.06 0.63 0 0.08 0.63 0 0.1 0.63 0 0 0.635 0 0.02 0.635 0 0.04 0.635 0 0.06 0.635 0 0.08 0.635 0 0.1 0.635 0 0 0.64 0 0.02 0.64 0 0.04 0.64 0 0.06 0.64 0 0.08 0.64 0 0.1 0.64 0 0 0.645 0 0.02 0.645 0 0.04 0.645 0 0.06 0.645 0 0.08 0.645 0 0.1 0.645 0 0 0.65 0 0.02 0.65 0 0.04 0.65 0 0.06 0.65 0 0.08 0.65 0 0.1 0.65 0 0 0.655 0 0.02 0.655 0 0.04 0.655 0 0.06 0.655 0 0.08 0.655 0 0.1 0.655 0 0 0.66 0 0.02 0.66 0 0.04 0.66 0 0.06 0.66 0 0.08 0.66 0 0.1 0.66 0 0 0.665 0 0.02 0.665 0 0.04 0.665 0 0.06 0.665 0 0.08 0.665 0 0.1 0.665 0 0 0.67 0 0.02 0.67 0 0.04 0.67 0 0.06 0.67 0 0.08 0.67 0 0.1 0.67 0 0 0.675 0 0.02 0.675 0 0.04 0.675 0 0.06 0.675 0 0.08 0.675 0 0.1 0.675 0 0 0.68 0 0.02 0.68 0 0.04 0.68 0 0.06 0.68 0 0.08 0.68 0 0.1 0.68 0 0 0.685 0 0.02 0.685 0 0.04 0.685 0 0.06 0.685 0 0.08 0.685 0 0.1 0.685 0 0 0.69 0 0.02 0.69 0 0.04 0.69 0 0.06 0.69 0 0.08 0.69 0 0.1 
[...]
			<PointData Scalars="VitesseX">
				<DataArray Name="VitesseX" type="Float32" format="ascii">
 0 1.43068e-15 1.36228e-14 -4.06698e-15 2.25675e-14 0 0 3.34217e-15 8.71035e-15 1.4025e-16 2.38401e-14 0 0 8.99389e-15 -3.38373e-15 1.30186e-14 2.21853e-14 0 0 1.64754e-14 -1.82841e-14 3.46957e-14 1.07227e-14 0 0 1.3965e-14 -1.18346e-15 1.35397e-14 3.13379e-14 0 0 -8.99294e-15 4.69021e-14 -2.36367e-14 5.7986e-14 0 0 -2.73245e-14 6.97766e-14 -1.5149e-14 5.36478e-14 0 0 4.86072e-15 1.61198e-14 7.28179e-14 -1.91097e-15 0 0 2.43344e-14 3.76752e-15 1.04607e-13 -2.90458e-14 0 0 3.15374e-14 2.31228e-14 6.97566e-14 2.48188e-15 0 0 7.35359e-14 -1.32778e-14 8.97946e-14 -2.55924e-15 0 0 3.4026e-14 7.27515e-14 -5.02401e-15 5.71159e-14 0 0 3.91746e-14 5.76917e-14 1.5654e-14 5.35474e-14 0 0 5.3339e-14 3.50077e-14 3.88636e-14 3.74661e-14 0 0 2.4924e-14 7.25001e-14 -1.50607e-14 7.94012e-14 0 0 4.84795e-14 1.9674e-14 3.03995e-14 5.27295e-14 0 0 6.84928e-14 -5.16752e-15 5.08481e-14 2.83641e-14 0 0 9.16987e-14 -9.70577e-15 7.09952e-15 7.8993e-14 0 0 9.42582e-14 4.89006e-15 -4.13228e-14 1.10775e-13 0 0 1.0219e-13 -4.889e-14 2.87064e-14 4.60769e-14 0 0 3.59516e-14 2.12172e-14 -4.88129e-14 1.08305e-13 0 0 1.81236e-14 -1.12582e-15 -3.3097e-14 1.4913e-13 0 0 3.01998e-14 -8.01819e-14 7.04929e-14 1.16648e-13 0 0 -6.04218e-14 4.14172e-14 -1.77787e-14 1.52222e-13 0 0 -3.82826e-14 -6.59639e-15 3.55875e-14 1.14746e-13 0 0 6.12794e-14 -1.86565e-13 2.19205e-13 1.69665e-14 0 0 -2.07492e-14 -4.8758e-14 1.07134e-13 6.1274e-14 0 0 -6.25527e-14 3.97804e-14 4.70994e-14 6.10227e-14 0 0 2.2939e-14 -1.06054e-13 2.03453e-13 -2.55924e-14 0 0 1.77534e-14 -1.07967e-13 2.06051e-13 -1.16525e-14 0 0 -3.16386e-14 -1.82927e-14 1.21442e-13 3.19055e-14 0 0 -7.81476e-14 8.57783e-14 1.40809e-14 5.86331e-14 0 0 -3.3681e-14 3.70622e-14 6.97038e-14 -2.76838e-14 0 0 1.26101e-14 -2.03988e-14 1.24919e-13 -7.19611e-14 0 0 4.33068e-14 1.98129e-14 -5.15518e-15 6.49221e-14 0 0 1.23526e-13 -4.82959e-14 3.31215e-14 7.93625e-14 0 0 1.47761e-13 -1.24368e-13 1.64993e-13 1.9048e-14 0 0 8.12805e-15 1.00591e-13 -8.30769e-14 2.46763e-13 0 0 -1.31837e-14 1.24403e-13 -6.83811e-14 2.16905e-13 0 0 3.61359e-14 3.01275e-14 7.33808e-14 3.6686e-14 0 0 3.9207e-14 1.05137e-13 -3.28315e-14 4.00793e-14 0 0 4.20881e-14 1.32584e-13 -1.94594e-14 -2.85133e-14 0 0 -7.46838e-14 3.42683e-13 -1.93138e-13 2.78495e-14 0 0 4.99547e-14 2.23289e-13 -8.24248e-14 -8.97947e-14 0 0 2.67292e-13 -8.23172e-14 1.78044e-13 -2.18227e-13 0 0 1.75168e-13 6.7323e-14 -1.42191e-14 1.00261e-14 0 0 2.32913e-13 -5.76434e-14 3.9478e-14 1.31841e-13 0 0 2.08651e-13 1.76917e-15 -9.57527e-14 3.13253e-13 0 0 1.64241e-13 9.99536e-14 -2.13379e-13 4.08888e-13 0 0 3.79256e-13 -3.07485e-13 1.88095e-13 1.86417e-13 0 0 4.45549e-13 -5.46823e-13 4.91039e-13 -3.77624e-15 0 0 2.85211e-13 -3.47429e-13 3.34674e-13 3.10541e-14 0 0 9.01289e-14 6.49175e-14 -1.55769e-13 2.67758e-13 0 0 1.79787e-13 3.4453e-14 -2.81604e-13 3.71904e-13 0 0 3.96728e-13 -2.51952e-13 -5.13889e-15 2.00978e-13 0 0 3.89435e-13 -1.71024e-13 9.84754e-14 -2.43307e-14 0 0 3.31472e-13 -3.31706e-14 1.19701e-13 -2.19517e-13 0 0 3.76242e-13 -5.64932e-14 1.4818e-13 -2.78999e-13 0 0 2.53955e-13 2.03333e-13 -2.33309e-13 2.19275e-14 0 0 2.18857e-13 2.25576e-13 -2.6795e-13 9.28333e-14 0 0 2.57871e-13 1.15777e-13 -7.339e-14 -1.86779e-14 0 0 1.92443e-13 1.62724e-13 1.06094e-14 -6.14743e-14 0 0 1.84185e-13 8.08488e-14 3.21222e-13 -3.27302e-13 0 0 1.89189e-13 1.70772e-14 4.96857e-13 -4.94e-13 0 0 1.06984e-13 1.69154e-13 3.03765e-13 -3.8385e-13 0 0 1.00381e-13 3.25375e-13 4.48664e-14 -2.0986e-13 0 0 2.20721e-13 3.46177e-13 -7.68454e-14 -1.0265e-13 0 0 3.45635e-13 2.30807e-13 7.13246e-14 -2.20052e-13 0 0 3.83605e-13 1.26447e-13 1.50589e-13 -1.93401e-13 0 0 3.89047e-13 1.47894e-13 -4.44098e-14 7.43549e-14 0 0 3.96066e-13 2.34778e-13 -1.49051e-13 1.57078e-13 0 0 2.7232e-13 3.94137e-13 -2.62016e-13 2.61626e-13 0 0 2.83782e-13 2.13518e-13 7.28607e-15 2.30968e-13 0 0 1.41585e-13 1.66837e-13 2.54493e-13 2.32702e-13 0 0 -4.41994e-14 3.3265e-13 1.4671e-13 4.22112e-13 0 0 2.29909e-13 7.55884e-15 2.76937e-13 4.31657e-13 0 0 2.26816e-13 1.155e-13 6.21641e-14 4.89273e-13 0 0 -1.24986e-14 6.83502e-13 -3.7232e-13 5.68313e-13 0 0 2.9445e-13 2.57899e-13 5.19059e-14 3.83993e-13 0 0 9.47105e-14 3.32617e-13 1.21512e-13 4.34927e-13 0 0 -3.10153e-13 7.66333e-13 8.98118e-14 3.5588e-13 0 0 1.29427e-13 2.80467e-13 6.74451e-13 -4.78543e-14 0 0 5.52549e-13 9.8654e-14 7.18024e-13 -1.14278e-13 0 0 5.47665e-13 4.08275e-13 2.82137e-13 1.48022e-13 0 0 5.84835e-13 6.75828e-13 -9.9708e-14 3.64807e-13 0 0 5.16052e-13 7.72224e-13 -2.20921e-13 3.44489e-13 0 0 5.85926e-13 6.64016e-13 -3.14689e-14 2.53251e-14 0 0 6.84969e-13 3.7052e-13 4.70837e-13 -4.70707e-13 0 0 6.93506e-13 3.83968e-13 4.38185e-13 -3.81945e-13 0 0 5.63312e-13 5.48291e-13 3.59658e-13 -2.78629e-13 0 0 1.55392e-13 9.73772e-13 1.34441e-13 -1.28264e-13 0 0 1.00369e-14 1.19974e-12 -2.58195e-13 1.661e-13 0 0 1.47597e-13 1.09628e-12 -3.62168e-13 4.02704e-13 0 0 4.15635e-13 7.39952e-13 -1.69983e-13 3.85161e-13 0 0 8.66255e-13 2.95279e-14 3.34524e-13 1.80355e-13 0 0 1.01994e-12 -4.42216e-13 7.45655e-13 5.34763e-14 0 0 9.46527e-13 -4.36213e-13 7.93928e-13 9.76965e-14 0 0 7.32202e-13 -1.55012e-13 6.16613e-13 1.86277e-13 0 0 4.06746e-13 4.06067e-13 2.41071e-13 3.04162e-13 0 0 5.48919e-14 1.00499e-12 -2.56534e-13 4.26968e-13 0 0 -1.10849e-13 1.29705e-12 -6.4641e-13 5.22786e-13 0 0 -6.6487e-14 1.23132e-12 -6.18517e-13 5.1202e-13 0 0 2.54421e-13 7.29135e-13 -2.68197e-13 3.88427e-13 0 0 7.27737e-13 -8.7508e-14 4.2869e-13 1.26767e-13 0 0 8.93211e-13 -3.35883e-13 6.48329e-13 3.29964e-14 0 0 8.19304e-13 -2.31336e-13 5.5338e-13 5.19986e-14 0 0 3.88086e-13 1.15641e-13 4.6927e-13 2.72531e-14 0 0 -1.40633e-13 3.33752e-13 5.42972e-13 -1.84701e-13 0 0 -3.58822e-13 3.91991e-13 6.83795e-13 -3.85856e-13 0 0 -3.87522e-13 3.56802e-13 7.25814e-13 -4.05444e-13 0 0 -2.85029e-13 2.06482e-13 6.97324e-13 -3.03692e-13 0 0 -9.87992e-14 7.44211e-14 6.43403e-13 -1.99191e-13 0 0 1.94223e-14 7.69433e-14 5.07207e-13 -1.02959e-13 0 0 7.81193e-14 1.02627e-13 3.4877e-13 5.84972e-14 0 0 9.49385e-14 8.89064e-14 3.17862e-13 1.6281e-13 0 0 5.54897e-14 1.05159e-13 2.86453e-13 2.3392e-13 0 0 -3.56308e-14 1.09631e-13 3.10285e-13 2.59587e-13 0 0 -8.82587e-14 9.31054e-14 3.86278e-13 1.98579e-13 0 0 -1.11832e-13 3.94463e-14 4.32016e-13 2.05213e-13 0 0 -1.25315e-13 -5.88761e-15 4.18263e-13 2.65536e-13 0 0 -1.23115e-13 -8.04316e-15 4.07201e-13 2.34239e-13 0 0 -7.75297e-14 -3.31597e-15 3.61312e-13 1.45172e-13 0 0 4.17309e-15 3.90954e-14 2.18476e-13 1.49178e-13 0 0 3.15139e-14 1.15693e-13 4.17308e-14 1.56576e-13 0 0 5.03796e-14 1.8095e-13 -4.251e-14 1.0983e-13 0 0 6.78606e-14 2.59381e-13 -1.34826e-13 7.43449e-14 0 0 1.29389e-13 2.24154e-13 -9.46581e-14 -1.24084e-14 0 0 2.26823e-13 1.03451e-13 1.59023e-14 -9.80884e-14 0 0 2.51465e-13 5.55404e-14 5.69062e-14 -5.12101e-14 0 0 2.12265e-13 7.62905e-14 1.03495e-13 -6.52798e-14 0 0 1.78343e-13 1.11889e-13 1.45705e-13 -1.94456e-14 0 0 2.08076e-13 9.66789e-14 2.35758e-13 8.8152e-14 0 0 1.90433e-13 1.74118e-13 1.93128e-13 1.56182e-13 0 0 1.68113e-13 2.59315e-13 1.99892e-13 1.51727e-13 0 0 2.2387e-13 2.59308e-13 3.13481e-13 2.0999e-13 0 0 2.34423e-13 3.79349e-13 2.50418e-13 3.90481e-13 0 0 3.07681e-13 3.68945e-13 3.33463e-13 3.64711e-13 0 0 3.43257e-13 4.21097e-13 3.24799e-13 3.68346e-13 0 0 3.92613e-13 4.56126e-13 3.15355e-13 3.39726e-13 0 0 4.13201e-13 4.88572e-13 2.85384e-13 3.58365e-13 0 0 4.2219e-13 5.03559e-13 2.51871e-13 3.6571e-13 0 0 5.35457e-13 3.38686e-13 3.78311e-13 2.97723e-13 0 0 4.96458e-13 3.5919e-13 3.89447e-13 2.60472e-13 0 0 4.13403e-13 4.83838e-13 2.89482e-13 2.02479e-13 0 0 4.45305e-13 4.54474e-13 2.24327e-13 2.8161e-13 0 0 4.88354e-13 3.42191e-13 3.42153e-13 1.66242e-13 0 0 4.66188e-13 3.15958e-13 4.14036e-13 7.09099e-14 0 0 3.07281e-13 5.33139e-13 1.88742e-13 2.5419e-13 0 0 2.46986e-13 6.36523e-13 -1.30686e-14 4.83916e-13 0 0 5.02992e-13 2.30122e-13 3.20536e-13 4.05738e-13 0 0 4.22616e-13 3.38661e-13 3.13212e-13 3.74338e-13 0 0 3.61443e-13 4.54385e-13 2.81745e-13 3.22714e-13 0 0 3.44878e-13 5.24857e-13 2.53871e-13 3.53763e-13 0 0 4.01277e-13 5.13617e-13 2.30561e-13 4.16637e-13 0 0 6.12084e-13 2.60907e-13 4.13176e-13 3.44895e-13 0 0 5.87144e-13 2.99782e-13 4.51869e-13 3.87564e-13 0 0 5.03106e-13 3.81972e-13 4.9599e-13 4.73192e-13 0 0 2.59877e-13 7.24286e-13 2.96265e-13 4.83931e-13 0 0 3.89097e-13 5.5128e-13 4.89498e-13 2.17183e-13 0 0 4.65386e-13 5.21315e-13 4.49606e-13 2.93208e-13 0 0 5.07888e-13 5.1519e-13 6.22151e-13 1.23048e-13 0 0 4.48497e-13 7.23176e-13 5.2398e-13 2.35928e-13 0 0 1.53759e-13 1.08854e-12 3.06257e-13 4.43558e-13 0 0 3.25543e-13 7.51152e-13 6.7521e-13 3.09248e-13 0 0 3.91004e-13 7.29068e-13 5.00148e-13 5.73153e-13 0 0 2.29913e-13 8.08611e-13 4.96013e-13 4.78181e-13 0 0 3.77555e-13 4.32553e-13 9.37795e-13 8.04382e-14 0 0 5.34177e-13 2.79931e-13 9.60283e-13 -1.81531e-14 0 0 6.96344e-13 1.06753e-13 1.00832e-12 -2.99052e-14 0 0 3.33566e-13 4.69169e-13 7.21977e-13 1.63183e-13 0 0 8.61351e-14 7.24087e-13 5.19684e-13 2.07873e-13 0 0 2.62821e-13 4.34172e-13 7.14481e-13 1.35242e-13 0 0 5.49782e-14 6.49758e-13 3.9807e-13 4.24418e-13 0 0 3.27746e-13 2.27556e-13 6.54167e-13 3.30853e-13 0 0 3.38624e-13 1.71007e-13 6.83096e-13 3.32731e-13 0 0 9.85246e-14 4.68412e-13 4.80803e-13 4.51887e-13 0 0 6.1622e-14 4.39855e-13 7.15759e-13 2.41402e-13 0 0 -1.17329e-13 8.07082e-13 4.3122e-13 3.30853e-13 0 0 3.77595e-13 2.75929e-13 8.98856e-13 1.43775e-15 0 0 5.14704e-13 1.6157e-13 9.64424e-13 -2.82177e-14 0 0 3.53802e-13 5.74286e-13 4.74923e-13 2.36795e-13 0 0 2.78507e-13 6.77448e-13 4.82498e-13 1.0907e-13 0 0 1.23985e-13 7.73595e-13 2.17055e-13 3.91685e-13 0 0 3.90532e-13 2.96016e-13 3.4026e-13 5.06761e-13 0 0 3.84263e-13 2.93141e-13 3.10299e-13 3.591e-13 0 0 4.55482e-13 2.22779e-13 4.9478e-13 6.14192e-14 0 0 5.21281e-13 1.70397e-13 5.6223e-13 -2.67421e-14 0 0 3.63217e-13 4.72032e-13 2.18724e-13 5.98354e-14 0 0 6.36452e-13 2.41792e-14 6.62819e-13 -1.66728e-13 0 0 5.15364e-13 2.90718e-13 3.83618e-13 7.73188e-14 0 0 2.86449e-13 6.35586e-13 1.49896e-13 2.33281e-13 0 0 6.10732e-13 4.7203e-14 7.47139e-13 8.28924e-14 0 0 4.40193e-13 4.28597e-13 2.95326e-13 5.11271e-13 0 0 2.85237e-13 7.45793e-13 -1.90144e-14 7.69696e-13 0 0 5.10038e-13 4.66116e-13 2.35248e-13 6.05661e-13 0 0 8.21685e-13 1.60391e-13 4.069e-13 5.5577e-13 0 0 6.33944e-13 5.77945e-13 -3.76995e-14 8.49429e-13 0 0 7.54919e-15 1.43321e-12 -5.43204e-13 9.49022e-13 0 0 1.31021e-13 1.01033e-12 2.67885e-14 5.98661e-13 0 0 7.02768e-13 7.86103e-14 6.65208e-13 3.50706e-13 0 0 9.26898e-13 -2.13707e-13 7.50578e-13 3.51475e-13 0
				</DataArray>
				<DataArray Name="VitesseY" type="Float32" format="ascii">