<?xml version="1.0"?>
<VTKFile type="PolyData">
	<PolyData>
		<Piece NumberOfPoints="1206" NumberOfPolys="1000">
			<Points>
				<DataArray type="Float32" NumberOfComponents="3" format="ascii">
 0 0 0 0.02 0 0 0.04 0 0 0.06 0 0 0.08 0 0 0.1 0 0 0 0.005 0 0.02 0.005 0 0.04 0.005 0 0.06 0.005 0 0.08 0.005 0 0.1 0.005 0 0 0.01 0 0.02 0.01 0 0.04 0.01 0 0.06 0.01 0 0.08 0.01 0 0.1 0.01 0 0 0.015 0 0.02 0.015 0 0.04 0.015 0 0.06 0.015 0 0.08 0.015 0 0.1 0.015 0 0 0.02 0 0.02 0.02 0 0.04 0.02 0 0.06 0.02 0 0.08 0.02 0 0.1 0.02 0 0 0.025 0 0.02 0.025 0 0.04 0.025 0 0.06 0.025 0 0.08 0.025 0 0.1 0.025 0 0 0.03 0 0.02 0.03 0 0.04 0.03 0 0.06 0.03 0 0.08 0.03 0 0.1 0.03 0 0 0.035 0 0.02 0.035 0 0.04 0.035 0 0.06 0.035 0 0.08 0.035 0 0.1 0.035 0 0 0.04 0 0.02 0.04 0 0.04 0.04 0 0.06 0.04 0 0.08 0.04 0 0.1 0.04 0 0 0.045 0 0.02 0.045 0 0.04 0.045 0 0.06 0.045 0 0.08 0.045 0 0.1 0.045 0 0 0.05 0 0.02 0.05 0 0.04 0.05 0 0.06 0.05 0 0.08 0.05 0 0.1 0.05 0 0 0.055 0 0.02 0.055 0 0.04 0.055 0 0.06 0.055 0 0.08 0.055 0 0.1 0.055 0 0 0.06 0 0.02 0.06 0 0.04 0.06 0 0.06 0.06 0 0.08 0.06 0 0.1 0.06 0 0 0.065 0 0.02 0.065 0 0.04 0.065 0 0.06 0.065 0 0.08 0.065 0 0.1 0.065 0 0 0.07 0 0.02 0.07 0 0.04 0.07 0 0.06 0.07 0 0.08 0.07 0 0.1 0.07 0 0 0.075 0 0.02 0.075 0 0.04 0.075 0 0.06 0.075 0 0.08 0.075 0 0.1 0.075 0 0 0.08 0 0.02 0.08 0 0.04 0.08 0 0.06 0.08 0 0.08 0.08 0 0.1 0.08 0 0 0.085 0 0.02 0.085 0 0.04 0.085 0 0.06 0.085 0 0.08 0.085 0 0.1 0.085 0 0 0.09 0 0.02 0.09 0 0.04 0.09 0 0.06 0.09 0 0.08 0.09 0 0.1 0.09 0 0 0.095 0 0.02 0.095 0 0.04 0.095 0 0.06 0.095 0 0.08 0.095 0 0.1 0.095 0 0 0.1 0 0.02 0.1 0 0.04 0.1 0 0.06 0.1 0 0.08 0.1 0 0.1 0.1 0 0 0.105 0 0.02 0.105 0 0.04 0.105 0 0.06 0.105 0 0.08 0.105 0 0.1 0.105 0 0 0.11 0 0.02 0.11 0 0.04 0.11 0 0.06 0.11 0 0.08 0.11 0 0.1 0.11 0 0 0.115 0 0.02 0.115 0 0.04 0.115 0 0.06 0.115 0 0.08 0.115 0 0.1 0.115 0 0 0.12 0 0.02 0.12 0 0.04 0.12 0 0.06 0.12 0 0.08 0.12 0 0.1 0.12 0 0 0.125 0 0.02 0.125 0 0.04 0.125 0 0.06 0.125 0 0.08 0.125 0 0.1 0.125 0 0 0.13 0 0.02 0.13 0 0.04 0.13 0 0.06 0.13 0 0.08 0.13 0 0.1 0.13 0 0 0.135 0 0.02 0.135 0 0.04 0.135 0 0.06 0.135 0 0.08 0.135 0 0.1 0.135 0 0 0.14 0 0.02 0.14 0 0.04 0.14 0 0.06 0.14 0 0.08 0.14 0 0.1 0.14 0 0 0.145 0 0.02 0.145 0 0.04 0.145 0 0.06 0.145 0 0.08 0.145 0 0.1 0.145 0 0 0.15 0 0.02 0.15 0 0.04 0.15 0 0.06 0.15 0 0.08 0.15 0 0.1 0.15 0 0 0.155 0 0.02 0.155 0 0.04 0.155 0 0.06 0.155 0 0.08 0.155 0 0.1 0.155 0 0 0.16 0 0.02 0.16 0 0.04 0.16 0 0.06 0.16 0 0.08 0.16 0 0.1 0.16 0 0 0.165 0 0.02 0.165 0 0.04 0.165 0 0.06 0.165 0 0.08 0.165 0 0.1 0.165 0 0 0.17 0 0.02 0.17 0 0.04 0.17 0 0.06 0.17 0 0.08 0.17 0 0.1 0.17 0 0 0.175 0 0.02 0.175 0 0.04 0.175 0 0.06 0.175 0 0.08 0.175 0 0.1 0.175 0 0 0.18 0 0.02 0.18 0 0.04 0.18 0 0.06 0.18 0 0.08 0.18 0 0.1 0.18 0 0 0.185 0 0.02 0.185 0 0.04 0.185 0 0.06 0.185 0 0.08 0.185 0 0.1 0.185 0 0 0.19 0 0.02 0.19 0 0.04 0.19 0 0.06 0.19 0 0.08 0.19 0 0.1 0.19 0 0 0.195 0 0.02 0.195 0 0.04 0.195 0 0.06 0.195 0 0.08 0.195 0 0.1 0.195 0 0 0.2 0 0.02 0.2 0 0.04 0.2 0 0.06 0.2 0 0.08 0.2 0 0.1 0.2 0 0 0.205 0 0.02 0.205 0 0.04 0.205 0 0.06 0.205 0 0.08 0.205 0 0.1 0.205 0 0 0.21 0 0.02 0.21 0 0.04 0.21 0 0.06 0.21 0 0.08 0.21 0 0.1 0.21 0 0 0.215 0 0.02 0.215 0 0.04 0.215 0 0.06 0.215 0 0.08 0.215 0 0.1 0.215 0 0 0.22 0 0.02 0.22 0 0.04 0.22 0 0.06 0.22 0 0.08 0.22 0 0.1 0.22 0 0 0.225 0 0.02 0.225 0 0.04 0.225 0 0.06 0.225 0 0.08 0.225 0 0.1 0.225 0 0 0.23 0 0.02 0.23 0 0.04 0.23 0 0.06 0.23 0 0.08 0.23 0 0.1 0.23 0 0 0.235 0 0.02 0.235 0 0.04 0.235 0 0.06 0.235 0 0.08 0.235 0 0.1 0.235 0 0 0.24 0 0.02 0.24 0 0.04 0.24 0 0.06 0.24 0 0.08 0.24 0 0.1 0.24 0 0 0.245 0 0.02 0.245 0 0.04 0.245 0 0.06 0.245 0 0.08 0.245 0 0.1 0.245 0 0 0.25 0 0.02 0.25 0 0.04 0.25 0 0.06 0.25 0 0.08 0.25 0 0.1 0.25 0 0 0.255 0 0.02 0.255 0 0.04 0.255 0 0.06 0.255 0 0.08 0.255 0 0.1 0.255 0 0 0.26 0 0.02 0.26 0 0.04 0.26 0 0.06 0.26 0 0.08 0.26 0 0.1 0.26 0 0 0.265 0 0.02 0.265 0 0.04 0.265 0 0.06 0.265 0 0.08 0.265 0 0.1 0.265 0 0 0.27 0 0.02 0.27 0 0.04 0.27 0 0.06 0.27 0 0.08 0.27 0 0.1 0.27 0 0 0.275 0 0.02 0.275 0 0.04 0.275 0 0.06 0.275 0 0.08 0.275 0 0.1 0.275 0 0 0.28 0 0.02 0.28 0 0.04 0.28 0 0.06 0.28 0 0.08 0.28 0 0.1 0.28 0 0 0.285 0 0.02 0.285 0 0.04 0.285 0 0.06 0.285 0 0.08 0.285 0 0.1 0.285 0 0 0.29 0 0.02 0.29 0 0.04 0.29 0 0.06 0.29 0 0.08 0.29 0 0.1 0.29 0 0 0.295 0 0.02 0.295 0 0.04 0.295 0 0.06 0.295 0 0.08 0.295 0 0.1 0.295 0 0 0.3 0 0.02 0.3 0 0.04 0.3 0 0.06 0.3 0 0.08 0.3 0 0.1 0.3 0 0 0.305 0 0.02 0.305 0 0.04 0.305 0 0.06 0.305 0 0.08 0.305 0 0.1 0.305 0 0 0.31 0 0.02 0.31 0 0.04 0.31 0 0.06 0.31 0 0.08 0.31 0 0.1 0.31 0 0 0.315 0 0.02 0.315 0 0.04 0.315 0 0.06 0.315 0 0.08 0.315 0 0.1 0.315 0 0 0.32 0 0.02 0.32 0 0.04 0.32 0 0.06 0.32 0 0.08 0.32 0 0.1 0.32 0 0 0.325 0 0.02 0.325 0 0.04 0.325 0 0.06 0.325 0 0.08 0.325 0 0.1 0.325 0 0 0.33 0 0.02 0.33 0 0.04 0.33 0 0.06 0.33 0 0.08 0.33 0 0.1 0.33 0 0 0.335 0 0.02 0.335 0 0.04 0.335 0 0.06 0.335 0 0.08 0.335 0 0.1 0.335 0 0 0.34 0 0.02 0.34 0 0.04 0.34 0 0.06 0.34 0 0.08 0.34 0 0.1 0.34 0 0 0.345 0 0.02 0.345 0 0.04 0.345 0 0.06 0.345 0 0.08 0.345 0 0.1 0.345 0 0 0.35 0 0.02 0.35 0 0.04 0.35 0 0.06 0.35 0 0.08 0.35 0 0.1 0.35 0 0 0.355 0 0.02 0.355 0 0.04 0.355 0 0.06 0.355 0 0.08 0.355 0 0.1 0.355 0 0 0.36 0 0.02 0.36 0 0.04 0.36 0 0.06 0.36 0 0.08 0.36 0 0.1 0.36 0 0 0.365 0 0.02 0.365 0 0.04 0.365 0 0.06 0.365 0 0.08 0.365 0 0.1 0.365 0 0 0.37 0 0.02 0.37 0 0.04 0.37 0 0.06 0.37 0 0.08 0.37 0 0.1 0.37 0 0 0.375 0 0.02 0.375 0 0.04 0.375 0 0.06 0.375 0 0.08 0.375 0 0.1 0.375 0 0 0.38 0 0.02 0.38 0 0.04 0.38 0 0.06 0.38 0 0.08 0.38 0 0.1 0.38 0 0 0.385 0 0.02 0.385 0 0.04 0.385 0 0.06 0.385 0 0.08 0.385 0 0.1 0.385 0 0 0.39 0 0.02 0.39 0 0.04 0.39 0 0.06 0.39 0 0.08 0.39 0 0.1 0.39 0 0 0.395 0 0.02 0.395 0 0.04 0.395 0 0.06 0.395 0 0.08 0.395 0 0.1 0.395 0 0 0.4 0 0.02 0.4 0 0.04 0.4 0 0.06 0.4 0 0.08 0.4 0 0.1 0.4 0 0 0.405 0 0.02 0.405 0 0.04 0.405 0 0.06 0.405 0 0.08 0.405 0 0.1 0.405 0 0 0.41 0 0.02 0.41 0 0.04 0.41 0 0.06 0.41 0 0.08 0.41 0 0.1 0.41 0 0 0.415 0 0.02 0.415 0 0.04 0.415 0 0.06 0.415 0 0.08 0.415 0 0.1 0.415 0 0 0.42 0 0.02 0.42 0 0.04 0.42 0 0.06 0.42 0 0.08 0.42 0 0.1 0.42 0 0 0.425 0 0.02 0.425 0 0.04 0.425 0 0.06 0.425 0 0.08 0.425 0 0.1 0.425 0 0 0.43 0 0.02 0.43 0 0.04 0.43 0 0.06 0.43 0 0.08 0.43 0 0.1 0.43 0 0 0.435 0 0.02 0.435 0 0.04 0.435 0 0.06 0.435 0 0.08 0.435 0 0.1 0.435 0 0 0.44 0 0.02 0.44 0 0.04 0.44 0 0.06 0.44 0 0.08 0.44 0 0.1 0.44 0 0 0.445 0 0.02 0.445 0 0.04 0.445 0 0.06 0.445 0 0.08 0.445 0 0.1 0.445 0 0 0.45 0 0.02 0.45 0 0.04 0.45 0 0.06 0.45 0 0.08 0.45 0 0.1 0.45 0 0 0.455 0 0.02 0.455 0 0.04 0.455 0 0.06 0.455 0 0.08 0.455 0 0.1 0.455 0 0 0.46 0 0.02 0.46 0 0.04 0.46 0 0.06 0.46 0 0.08 0.46 0 0.1 0.46 0 0 0.465 0 0.02 0.465 0 0.04 0.465 0 0.06 0.465 0 0.08 0.465 0 0.1 0.465 0 0 0.47 0 0.02 0.47 0 0.04 0.47 0 0.06 0.47 0 0.08 0.47 0 0.1 0.47 0 0 0.475 0 0.02 0.475 0 0.04 0.475 0 0.06 0.475 0 0.08 0.475 0 0.1 0.475 0 0 0.48 0 0.02 0.48 0 0.04 0.48 0 0.06 0.48 0 0.08 0.48 0 0.1 0.48 0 0 0.485 0 0.02 0.485 0 0.04 0.485 0 0.06 0.485 0 0.08 0.485 0 0.1 0.485 0 0 0.49 0 0.02 0.49 0 0.04 0.49 0 0.06 0.49 0 0.08 0.49 0 0.1 0.49 0 0 0.495 0 0.02 0.495 0 0.04 0.495 0 0.06 0.495 0 0.08 0.495 0 0.1 0.495 0 0 0.5 0 0.02 0.5 0 0.04 0.5 0 0.06 0.5 0 0.08 0.5 0 0.1 0.5 0 0 0.505 0 0.02 0.505 0 0.04 0.505 0 0.06 0.505 0 0.08 0.505 0 0.1 0.505 0 0 0.51 0 0.02 0.51 0 0.04 0.51 0 0.06 0.51 0 0.08 0.51 0 0.1 0.51 0 0 0.515 0 0.02 0.515 0 0.04 0.515 0 0.06 0.515 0 0.08 0.515 0 0.1 0.515 0 0 0.52 0 0.02 0.52 0 0.04 0.52 0 0.06 0.52 0 0.08 0.52 0 0.1 0.52 0 0 0.525 0 0.02 0.525 0 0.04 0.525 0 0.06 0.525 0 0.08 0.525 0 0.1 0.525 0 0 0.53 0 0.02 0.53 0 0.04 0.53 0 0.06 0.53 0 0.08 0.53 0 0.1 0.53 0 0 0.535 0 0.02 0.535 0 0.04 0.535 0 0.06 0.535 0 0.08 0.535 0 0.1 0.535 0 0 0.54 0 0.02 0.54 0 0.04 0.54 0 0.06 0.54 0 0.08 0.54 0 0.1 0.54 0 0 0.545 0 0.02 0.545 0 0.04 0.545 0 0.06 0.545 0 0.08 0.545 0 0.1 0.545 0 0 0.55 0 0.02 0.55 0 0.04 0.55 0 0.06 0.55 0 0.08 0.55 0 0.1 0.55 0 0 0.555 0 0.02 0.555 0 0.04 0.555 0 0.06 0.555 0 0.08 0.555 0 0.1 0.555 0 0 0.56 0 0.02 0.56 0 0.04 0.56 0 0.06 0.56 0 0.08 0.56 0 0.1 0.56 0 0 0.565 0 0.02 0.565 0 0.04 0.565 0 0.06 0.565 0 0.08 0.565 0 0.1 0.565 0 0 0.57 0 0.02 0.57 0 0.04 0.57 0 0.06 0.57 0 0.08 0.57 0 0.1 0.57 0 0 0.575 0 0.02 0.575 0 0.04 0.575 0 0.06 0.575 0 0.08 0.575 0 0.1 0.575 0 0 0.58 0 0.02 0.58 0 0.04 0.58 0 0.06 0.58 0 0.08 0.58 0 0.1 0.58 0 0 0.585 0 0.02 0.585 0 0.04 0.585 0 0.06 0.585 0 0.08 0.585 0 0.1 0.585 0 0 0.59 0 0.02 0.59 0 0.04 0.59 0 0.06 0.59 0 0.08 0.59 0 0.1 0.59 0 0 0.595 0 0.02 0.595 0 0.04 0.595 0 0.06 0.595 0 0.08 0.595 0 0.1 0.595 0 0 0.6 0 0.02 0.6 0 0.04 0.6 0 0.06 0.6 0 0.08 0.6 0 0.1 0.6 0 0 0.605 0 0.02 0.605 0 0.04 0.605 0 0.06 0.605 0 0.08 0.605 0 0.1 0.605 0 0 0.61 0 0.02 0.61 0 0.04 0.61 0 0.06 0.61 0 0.08 0.61 0 0.1 0.61 0 0 0.615 0 0.02 0.615 0 0.04 0.615 0 0.06 0.615 0 0.08 0.615 0 0.1 0.615 0 0 0.62 0 0.02 0.62 0 0.04 0.62 0 0.06 0.62 0 0.08 0.62 0 0.1 0.62 0 0 0.625 0 0.02 0.625 0 0.04 0.625 0 0.06 0.625 0 0.08 0.625 0 0.1 0.625 0 0 0.63 0 0.02 0.63 0 0.04 0.63 0 0.06 0.63 0 0.08 0.63 0 0.1 0.63 0 0 0.635 0 0.02 0.635 0 0.04 0.635 0 0.06 0.635 0 0.08 0.635 0 0.1 0.635 0 0 0.64 0 0.02 0.64 0 0.04 0.64 0 0.06 0.64 0 0.08 0.64 0 0.1 0.64 0 0 0.645 0 0.02 0.645 0 0.04 0.645 0 0.06 0.645 0 0.08 0.645 0 0.1 0.645 0 0 0.65 0 0.02 0.65 0 0.04 0.65 0 0.06 0.65 0 0.08 0.65 0 0.1 0.65 0 0 0.655 0 0.02 0.655 0 0.04 0.655 0 0.06 0.655 0 0.08 0.655 0 0.1 0.655 0 0 0.66 0 0.02 0.66 0 0.04 0.66 0 0.06 0.66 0 0.08 0.66 0 0.1 0.66 0 0 0.665 0 0.02 0.665 0 0.04 0.665 0 0.06 0.665 0 0.08 0.665 0 0.1 0.665 0 0 0.67 0 0.02 0.67 0 0.04 0.67 0 0.06 0.67 0 0.08 0.67 0 0.1 0.67 0 0 0.675 0 0.02 0.675 0 0.04 0.675 0 0.06 0.675 0 0.08 0.675 0 0.1 0.675 0 0 0.68 0 0.02 0.68 0 0.04 0.68 0 0.06 0.68 0 0.08 0.68 0 0.1 0.68 0 0 0.685 0 0.02 0.685 0 0.04 0.685 0 0.06 0.685 0 0.08 0.685 0 0.1 0.685 0 0 0.69 0 0.02 0.69 0 0.04 0.69 0 0.06 0.69 0 0.08 0.69 0 0.1 
[...]
			<PointData Scalars="VitesseX">
				<DataArray Name="VitesseX" type="Float32" format="ascii">
 0 -2.64993e-14 -4.20183e-15 -3.23603e-15 2.5375e-14 0 0 -2.33097e-14 -1.2221e-14 6.10664e-15 1.85658e-14 0 0 -2.01855e-14 -2.58223e-14 2.16555e-14 1.13288e-14 0 0 -5.0041e-14 9.91707e-15 -1.26412e-14 3.54582e-14 0 0 -5.60101e-14 8.95838e-15 -1.20266e-14 3.58808e-14 0 0 -1.6249e-14 -5.51798e-14 4.07624e-14 5.39942e-16 0 0 -1.93153e-14 -4.88061e-14 1.19921e-14 2.46464e-14 0 0 -5.27894e-14 -5.58794e-15 -6.00089e-14 9.16073e-14 0 0 -4.73044e-14 -4.22374e-14 -1.88887e-14 7.33631e-14 0 0 -5.91667e-14 -4.77021e-14 3.01285e-14 3.38804e-14 0 0 -1.23782e-13 3.84265e-14 -6.34553e-15 4.0148e-14 0 0 -7.40033e-14 -5.53744e-14 1.0521e-13 -2.58368e-14 0 0 -7.11203e-14 -3.23423e-14 5.58509e-14 1.83469e-14 0 0 -7.82993e-14 3.1861e-14 -4.88306e-14 9.07801e-14 0 0 -3.79671e-14 2.71354e-15 -1.39468e-14 3.53003e-14 0 0 -8.50372e-14 9.59217e-14 -9.56206e-14 5.32043e-14 0 0 2.72788e-15 -5.51453e-14 3.57869e-14 -7.50892e-15 0 0 -1.22802e-14 -5.07946e-14 1.00901e-14 3.56442e-14 0 0 -5.03275e-14 1.93157e-14 -1.06956e-13 1.22074e-13 0 0 -2.41869e-14 -1.45077e-14 -9.50511e-14 9.59998e-14 0 0 -4.32508e-14 1.2706e-14 -1.53717e-13 1.43308e-13 0 0 -4.36582e-14 -7.30466e-16 -1.66023e-13 1.68804e-13 0 0 -6.1219e-14 4.70952e-15 -9.72603e-14 6.77486e-14 0 0 -6.67916e-14 1.16189e-14 -9.98732e-15 -1.0181e-13 0 0 -1.22749e-13 8.93647e-14 -1.02887e-13 -7.6887e-14 0 0 -1.40969e-13 8.71411e-14 -1.56484e-13 -1.66154e-14 0 0 -9.66525e-14 -3.35931e-15 -3.09397e-14 -1.70931e-13 0 0 -7.64392e-14 -3.3469e-14 2.45527e-14 -2.76426e-13 0 0 -5.89379e-14 -6.89139e-14 1.57691e-14 -2.40781e-13 0 0 -1.01827e-13 7.54101e-15 -1.00471e-13 -1.03948e-13 0 0 -4.81933e-14 -7.20819e-14 -5.35824e-15 -1.08301e-13 0 0 -1.68217e-14 -1.21077e-13 7.29474e-14 -8.80473e-14 0 0 -6.27082e-14 4.47452e-15 -6.22247e-14 6.42596e-14 0 0 5.5338e-14 -2.00508e-13 1.57368e-13 1.18801e-15 0 0 -7.00608e-14 -6.86476e-14 1.20562e-13 6.05434e-14 0 0 -1.92365e-13 9.70867e-14 7.14141e-14 5.74519e-14 0 0 -2.41574e-13 1.65252e-13 8.12648e-15 1.00512e-13 0 0 -8.01928e-14 -1.05738e-13 2.83496e-13 -8.57436e-14 0 0 -1.44982e-14 -1.37418e-13 2.93396e-13 -1.48247e-13 0 0 -1.32748e-13 1.17731e-13 5.16663e-15 -1.17711e-14 0 0 -9.84486e-14 3.33933e-14 1.40813e-13 -1.47864e-13 0 0 -1.40857e-13 7.37555e-14 4.84846e-14 -3.59615e-14 0 0 -1.06503e-13 -2.22068e-14 7.69904e-14 2.54374e-14 0 0 -2.05113e-13 7.76754e-14 3.46312e-14 -4.81429e-15 0 0 -3.467e-13 2.00381e-13 1.43647e-14 -5.04745e-14 0 0 -2.50969e-13 6.20793e-15 2.90538e-13 -2.81821e-13 0 0 -8.61476e-14 -1.1542e-13 3.6095e-13 -3.92654e-13 0 0 3.14815e-15 -1.44409e-13 3.12042e-13 -4.13802e-13 0 0 -5.71009e-14 3.30822e-14 1.73509e-13 -4.34778e-13 0 0 -2.93554e-13 4.47078e-13 -8.63879e-14 -4.24122e-13 0 0 -4.05815e-13 6.345e-13 -2.16241e-13 -3.37531e-13 0 0 -2.59306e-13 5.58517e-13 -3.17374e-13 -1.0615e-13 0 0 -3.07466e-14 3.22912e-13 -2.07982e-13 -1.46946e-13 0 0 1.8397e-13 -1.17607e-13 2.90836e-13 -5.39206e-13 0 0 -1.03013e-13 1.46325e-13 1.16689e-13 -4.6915e-13 0 0 -4.67668e-13 5.76308e-13 -3.02106e-13 -1.91678e-13 0 0 -2.12816e-13 1.18919e-13 7.05833e-14 -3.70567e-13 0 0 -1.23088e-13 1.02627e-13 -7.56578e-14 -2.48719e-13 0 0 -2.06075e-13 3.32038e-13 -4.04137e-13 -2.07223e-14 0 0 -2.85571e-13 3.43284e-13 -2.85027e-13 -1.52326e-13 0 0 -2.4415e-13 1.63744e-13 -8.30352e-14 -3.05774e-13 0 0 -1.03536e-14 -1.11904e-13 2.12384e-14 -3.20781e-13 0 0 -2.4631e-14 -1.55379e-14 -1.25812e-13 -1.60646e-13 0 0 -1.46085e-13 1.79551e-13 -3.43445e-13 1.15552e-13 0 0 -9.08665e-14 1.45476e-13 -3.78468e-13 3.14771e-13 0 0 1.0851e-15 4.72241e-14 -2.77342e-13 3.37508e-13 0 0 6.27202e-14 -1.19592e-13 4.75248e-14 3.7127e-14 0 0 -2.0403e-13 1.285e-13 1.0151e-13 -1.93284e-13 0 0 -3.89628e-13 4.03606e-13 -9.32477e-14 -1.11386e-13 0 0 -1.71523e-13 1.31628e-13 1.11844e-13 -1.52272e-13 0 0 -7.17211e-14 2.40519e-14 2.59999e-13 -3.11797e-13 0 0 -2.35146e-14 3.81168e-14 2.32127e-13 -4.33889e-13 0 0 -1.82689e-13 3.80588e-13 -1.06838e-13 -2.62677e-13 0 0 -1.22688e-13 3.27856e-13 4.61103e-14 -3.68727e-13 0 0 -5.73576e-14 2.39626e-13 2.27802e-13 -4.30905e-13 0 0 -1.81586e-14 2.32881e-13 1.56841e-13 -3.08855e-13 0 0 2.39966e-13 3.70656e-14 1.37927e-13 -2.24906e-13 0 0 1.95955e-13 3.02281e-13 -2.16812e-13 -4.51203e-14 0 0 8.12722e-14 3.14504e-13 8.9382e-14 -4.36515e-13 0 0 -2.05333e-13 7.37207e-13 -2.67563e-13 -1.44238e-13 0 0 2.48008e-13 1.60005e-13 -7.93787e-14 6.86263e-14 0 0 5.4939e-13 -5.30565e-13 6.62128e-13 -1.89514e-13 0 0 -3.21694e-13 5.35835e-13 -1.31861e-13 3.90222e-13 0 0 -9.05325e-14 9.18624e-14 2.83654e-13 1.50476e-13 0 0 6.11458e-13 -8.96782e-13 1.04095e-12 -2.98413e-13 0 0 -2.23129e-13 2.63771e-13 -1.22414e-13 5.04816e-13 0 0 -9.25238e-13 6.74432e-13 -6.56783e-14 4.57041e-13 0 0 -2.8825e-13 -2.75251e-13 7.64844e-13 4.75129e-14 0 0 3.62512e-13 -3.65203e-13 7.98929e-14 7.4576e-13 0 0 3.76446e-13 -3.99232e-13 2.83672e-13 4.59955e-13 0 0 -9.39437e-14 3.80494e-14 3.9201e-13 7.0475e-14 0 0 -5.51956e-13 7.52187e-13 -1.81761e-13 4.23764e-13 0 0 -6.19886e-13 6.54668e-13 -3.16192e-14 2.85347e-13 0 0 -4.66562e-13 2.27877e-13 3.9808e-13 -1.41136e-14 0 0 -2.17861e-14 -3.08695e-13 4.5766e-13 1.51611e-13 0 0 4.19671e-14 -5.46151e-13 7.08016e-13 -4.47616e-14 0 0 -2.48253e-13 -3.67378e-13 8.9426e-13 -5.17716e-13 0 0 -7.80666e-13 3.81308e-13 3.10623e-13 -2.99172e-13 0 0 -7.6289e-13 8.75258e-13 -7.62331e-13 3.09889e-13 0 0 -5.47263e-14 3.96717e-13 -8.32514e-13 7.99849e-13 0 0 9.88706e-13 -7.37755e-13 -5.01353e-13 8.95036e-13 0 0 1.08833e-12 -1.06936e-12 -2.45578e-13 8.50486e-13 0 0 5.34126e-13 -6.95044e-13 -2.21736e-13 6.06099e-13 0 0 -3.46442e-13 1.26795e-13 -2.7417e-13 3.68634e-13 0 0 -5.61827e-13 4.69785e-13 -3.95367e-13 3.28924e-13 0 0 -4.83515e-13 4.69572e-13 -4.03445e-13 2.96519e-13 0 0 -3.03433e-13 4.1773e-13 -3.65235e-13 1.47507e-13 0 0 -2.09578e-13 3.96623e-13 -2.90892e-13 -1.44258e-13 0 0 -1.59061e-13 3.3073e-13 -9.89936e-14 -4.87203e-13 0 0 -1.6069e-13 2.11224e-13 -2.69579e-14 -5.61963e-13 0 0 -2.03106e-13 7.22117e-14 -4.30102e-14 -5.36258e-13 0 0 -2.45389e-13 -1.56209e-13 2.03948e-14 -5.4272e-13 0 0 -3.02073e-13 -2.67209e-13 8.46921e-15 -4.79286e-13 0 0 -3.59645e-13 -2.69629e-13 -1.059e-13 -2.78907e-13 0 0 -3.4762e-13 -3.03505e-13 -2.01438e-13 -5.41665e-14 0 0 -3.2996e-13 -2.8402e-13 -2.32282e-13 -3.81497e-14 0 0 -2.92124e-13 -2.46758e-13 -2.79707e-13 -1.91851e-14 0 0 -2.56663e-13 -2.41044e-13 -1.98358e-13 -1.07896e-13 0 0 -2.66001e-13 -2.00213e-13 -2.07229e-14 -3.16666e-13 0 0 -2.30073e-13 -1.24593e-13 -6.22869e-15 -2.03048e-13 0 0 -2.16656e-13 -2.49139e-14 -1.87877e-14 -1.24657e-13 0 0 -1.83621e-13 6.53943e-14 -3.0446e-14 -1.73584e-13 0 0 -1.11619e-14 -4.28829e-14 1.59422e-14 -2.25251e-13 0 0 -7.57872e-14 1.10095e-13 -1.3432e-13 -9.92255e-14 0 0 2.00025e-14 -1.62407e-14 -3.31109e-15 -1.96631e-13 0 0 -3.83431e-14 6.02684e-14 -7.56242e-14 -1.53171e-13 0 0 -1.61998e-13 2.3534e-13 -2.49748e-13 6.16593e-15 0 0 3.57333e-14 -7.6257e-14 2.42552e-14 -1.64573e-13 0 0 -9.66461e-15 9.41345e-15 -9.84302e-14 -8.3972e-14 0 0 1.27572e-13 -1.98572e-13 4.5248e-14 -1.17714e-13 0 0 4.55914e-14 -1.23968e-13 -1.45647e-14 -8.97424e-14 0 0 -1.70067e-13 1.30605e-13 -1.58213e-13 -4.95046e-14 0 0 -3.41769e-14 -9.75931e-14 6.48061e-14 -1.83201e-13 0 0 -1.47999e-13 8.82651e-14 -2.08276e-13 -8.41958e-15 0 0 5.2403e-14 -2.63253e-13 -2.62282e-14 -1.42201e-14 0 0 4.65547e-14 -3.37781e-13 1.01746e-14 5.623e-14 0 0 -2.12054e-13 1.2002e-15 -2.15012e-13 1.71594e-13 0 0 -9.92515e-14 -2.31033e-13 1.09094e-13 -5.9994e-14 0 0 -2.80374e-13 -1.22068e-14 -7.64666e-15 4.2653e-15 0 0 -3.34603e-13 2.35904e-14 3.92663e-14 4.29521e-14 0 0 -2.47692e-13 -1.43474e-13 2.90682e-13 -9.89024e-15 0 0 -4.48555e-13 1.8246e-13 3.38463e-14 9.26739e-14 0 0 -2.8889e-13 4.96272e-14 5.30344e-14 7.95389e-14 0 0 -7.46339e-14 -1.98228e-13 2.35272e-13 1.1152e-13 0 0 -1.98464e-13 -1.62208e-14 2.15479e-13 1.20377e-13 0 0 1.70344e-13 -3.88337e-13 6.16488e-13 -1.01793e-13 0 0 -1.13947e-13 2.52154e-13 8.8826e-14 2.54164e-13 0 0 -2.68094e-13 5.99261e-13 -1.79232e-14 1.48911e-13 0 0 -8.25341e-14 2.68541e-13 4.50654e-13 -1.44915e-13 0 0 -2.21352e-14 6.04545e-14 4.92194e-13 1.36797e-13 0 0 2.695e-13 -5.19211e-13 8.98169e-13 -5.31515e-14 0 0 -3.06112e-13 2.83863e-13 1.7487e-13 4.88203e-14 0 0 -4.26683e-13 5.97968e-13 -2.4098e-13 4.07461e-14 0 0 -1.7386e-13 3.62539e-13 -2.41218e-13 1.29762e-13 0 0 1.13788e-13 -9.73389e-14 1.92411e-14 2.21454e-13 0 0 -1.00361e-13 -7.01964e-14 9.91647e-14 1.71148e-13 0 0 -4.39681e-13 1.72078e-13 6.39407e-14 1.41113e-14 0 0 -1.26721e-13 -3.29605e-13 4.30278e-13 -2.13833e-13 0 0 -1.89442e-13 -1.06075e-13 4.27456e-14 5.76139e-14 0 0 9.72637e-14 -4.69464e-13 2.27236e-13 1.55838e-14 0 0 1.30131e-13 -6.40429e-13 2.87827e-13 3.30657e-14 0 0 -5.05203e-13 1.05646e-13 -1.97784e-13 1.28264e-13 0 0 -6.01844e-13 3.20338e-13 -4.87549e-13 3.05188e-13 0 0 -1.39374e-13 -2.94339e-13 -8.75431e-14 1.92249e-13 0 0 2.83867e-13 -9.73991e-13 5.53285e-13 -8.44543e-14 0 0 1.58225e-13 -8.00736e-13 2.5511e-13 3.27049e-13 0 0 -2.25206e-13 -2.66809e-13 -6.92278e-14 5.15247e-13 0 0 -4.12069e-13 3.27951e-14 -7.04145e-14 3.49087e-13 0 0 -5.97313e-13 3.2675e-13 -4.47966e-13 5.40565e-13 0 0 -3.65544e-13 -6.06499e-14 -3.82016e-13 6.19893e-13 0 0 -9.56211e-14 -5.37314e-13 -6.79972e-14 4.53287e-13 0 0 -2.92075e-14 -7.17474e-13 8.1094e-14 2.6997e-13 0 0 3.49935e-14 -9.22393e-13 4.71244e-13 -2.46323e-13 0 0 -5.13766e-13 -1.60433e-13 5.19027e-14 -2.03947e-13 0 0 -6.20607e-13 -3.4349e-14 -1.32154e-13 3.79543e-14 0 0 -3.4159e-13 -4.06393e-13 -8.50731e-14 1.21493e-13 0 0 -2.12097e-13 -2.92792e-13 -4.7521e-13 3.58831e-13 0 0 1.27456e-13 -7.73189e-13 -7.06692e-14 1.36781e-13 0 0 -4.09644e-13 -2.65812e-13 -2.50028e-13 8.57999e-14 0 0 -7.78116e-13 9.89122e-14 -2.77011e-13 -9.36125e-14 0 0 -4.3233e-13 -3.27476e-13 1.45183e-13 -4.60005e-13 0 0 -3.48919e-13 -2.58575e-13 2.1623e-14 -4.92565e-13 0 0 -1.14692e-13 -4.87888e-13 1.41022e-13 -5.65123e-13 0 0 -2.49225e-13 -2.20507e-13 -1.86321e-13 -3.31148e-13 0 0 -5.17665e-13 1.24066e-14 -1.70899e-13 -1.37613e-13 0 0 -4.53169e-13 -7.00785e-14 1.20214e-13 -2.20455e-13 0 0 -2.81225e-13 -1.28967e-13 1.77262e-13 -3.35212e-13 0 0 3.81608e-14 -6.6064e-13 6.60989e-13 -6.0415e-13 0 0 -4.72426e-13 2.57255e-14 -9.66405e-14 -5.99197e-14 0 0 -5.44607e-13 1.96779e-13 -3.51292e-13 1.92569e-13 0 0 1.25055e-14 -5.1385e-13 4.06016e-13 -4.37166e-13 0 0 -5.35783e-13 4.93947e-13 -4.14803e-13 -2.48053e-13 0 0 -2.96836e-13 2.60822e-13 -3.32976e-13 -2.00648e-13 0 0 -1.28759e-13 -5.32656e-14 -4.63489e-14 -2.6105e-13 0 0 -4.42905e-13 1.82249e-13 9.67753e-15 -2.53843e-13 0 0 1.04541e-13 -6.66129e-13 8.62528e-13 -7.13619e-13 0 0 -1.18229e-13 -2.08774e-13 5.92383e-13 -7.54012e-13 0 0 -3.01291e-14 -3.59421e-13 1.05938e-12 -1.3243e-12 0 0 -1.63259e-13 -6.94594e-14 8.09845e-13 -1.34285e-12 0 0 -1.83305e-13 3.24168e-13 -6.80079e-14 -6.38508e-13 0 0 5.24283e-13 -4.92248e-13 2.9469e-13 -6.63143e-13 0
				</DataArray>
				<DataArray Name="VitesseY" type="Float32" format="ascii">