<?xml version="1.0"?>
<VTKFile type="PolyData">
	<PolyData>
		<Piece NumberOfPoints="1206" NumberOfPolys="1000">
			<Points>
				<DataArray type="Float32" NumberOfComponents="3" format="ascii">
 0 0 0 0.02 0 0 0.04 0 0 0.06 0 0 0.08 0 0 0.1 0 0 0 0.005 0 0.02 0.005 0 0.04 0.005 0 0.06 0.005 0 0.08 0.005 0 0.1 0.005 0 0 0.01 0 0.02 0.01 0 0.04 0.01 0 0.06 0.01 0 0.08 0.01 0 0.1 0.01 0 0 0.015 0 0.02 0.015 0 0.04 0.015 0 0.06 0.015 0 0.08 0.015 0 0.1 0.015 0 0 0.02 0 0.02 0.02 0 0.04 0.02 0 0.06 0.02 0 0.08 0.02 0 0.1 0.02 0 0 0.025 0 0.02 0.025 0 0.04 0.025 0 0.06 0.025 0 0.08 0.025 0 0.1 0.025 0 0 0.03 0 0.02 0.03 0 0.04 0.03 0 0.06 0.03 0 0.08 0.03 0 0.1 0.03 0 0 0.035 0 0.02 0.035 0 0.04 0.035 0 0.06 0.035 0 0.08 0.035 0 0.1 0.035 0 0 0.04 0 0.02 0.04 0 0.04 0.04 0 0.06 0.04 0 0.08 0.04 0 0.1 0.04 0 0 0.045 0 0.02 0.045 0 0.04 0.045 0 0.06 0.045 0 0.08 0.045 0 0.1 0.045 0 0 0.05 0 0.02 0.05 0 0.04 0.05 0 0.06 0.05 0 0.08 0.05 0 0.1 0.05 0 0 0.055 0 0.02 0.055 0 0.04 0.055 0 0.06 0.055 0 0.08 0.055 0 0.1 0.055 0 0 0.06 0 0.02 0.06 0 0.04 0.06 0 0.06 0.06 0 0.08 0.06 0 0.1 0.06 0 0 0.065 0 0.02 0.065 0 0.04 0.065 0 0.06 0.065 0 0.08 0.065 0 0.1 0.065 0 0 0.07 0 0.02 0.07 0 0.04 0.07 0 0.06 0.07 0 0.08 0.07 0 0.1 0.07 0 0 0.075 0 0.02 0.075 0 0.04 0.075 0 0.06 0.075 0 0.08 0.075 0 0.1 0.075 0 0 0.08 0 0.02 0.08 0 0.04 0.08 0 0.06 0.08 0 0.08 0.08 0 0.1 0.08 0 0 0.085 0 0.02 0.085 0 0.04 0.085 0 0.06 0.085 0 0.08 0.085 0 0.1 0.085 0 0 0.09 0 0.02 0.09 0 0.04 0.09 0 0.06 0.09 0 0.08 0.09 0 0.1 0.09 0 0 0.095 0 0.02 0.095 0 0.04 0.095 0 0.06 0.095 0 0.08 0.095 0 0.1 0.095 0 0 0.1 0 0.02 0.1 0 0.04 0.1 0 0.06 0.1 0 0.08 0.1 0 0.1 0.1 0 0 0.105 0 0.02 0.105 0 0.04 0.105 0 0.06 0.105 0 0.08 0.105 0 0.1 0.105 0 0 0.11 0 0.02 0.11 0 0.04 0.11 0 0.06 0.11 0 0.08 0.11 0 0.1 0.11 0 0 0.115 0 0.02 0.115 0 0.04 0.115 0 0.06 0.115 0 0.08 0.115 0 0.1 0.115 0 0 0.12 0 0.02 0.12 0 0.04 0.12 0 0.06 0.12 0 0.08 0.12 0 0.1 0.12 0 0 0.125 0 0.02 0.125 0 0.04 0.125 0 0.06 0.125 0 0.08 0.125 0 0.1 0.125 0 0 0.13 0 0.02 0.13 0 0.04 0.13 0 0.06 0.13 0 0.08 0.13 0 0.1 0.13 0 0 0.135 0 0.02 0.135 0 0.04 0.135 0 0.06 0.135 0 0.08 0.135 0 0.1 0.135 0 0 0.14 0 0.02 0.14 0 0.04 0.14 0 0.06 0.14 0 0.08 0.14 0 0.1 0.14 0 0 0.145 0 0.02 0.145 0 0.04 0.145 0 0.06 0.145 0 0.08 0.145 0 0.1 0.145 0 0 0.15 0 0.02 0.15 0 0.04 0.15 0 0.06 0.15 0 0.08 0.15 0 0.1 0.15 0 0 0.155 0 0.02 0.155 0 0.04 0.155 0 0.06 0.155 0 0.08 0.155 0 0.1 0.155 0 0 0.16 0 0.02 0.16 0 0.04 0.16 0 0.06 0.16 0 0.08 0.16 0 0.1 0.16 0 0 0.165 0 0.02 0.165 0 0.04 0.165 0 0.06 0.165 0 0.08 0.165 0 0.1 0.165 0 0 0.17 0 0.02 0.17 0 0.04 0.17 0 0.06 0.17 0 0.08 0.17 0 0.1 0.17 0 0 0.175 0 0.02 0.175 0 0.04 0.175 0 0.06 0.175 0 0.08 0.175 0 0.1 0.175 0 0 0.18 0 0.02 0.18 0 0.04 0.18 0 0.06 0.18 0 0.08 0.18 0 0.1 0.18 0 0 0.185 0 0.02 0.185 0 0.04 0.185 0 0.06 0.185 0 0.08 0.185 0 0.1 0.185 0 0 0.19 0 0.02 0.19 0 0.04 0.19 0 0.06 0.19 0 0.08 0.19 0 0.1 0.19 0 0 0.195 0 0.02 0.195 0 0.04 0.195 0 0.06 0.195 0 0.08 0.195 0 0.1 0.195 0 0 0.2 0 0.02 0.2 0 0.04 0.2 0 0.06 0.2 0 0.08 0.2 0 0.1 0.2 0 0 0.205 0 0.02 0.205 0 0.04 0.205 0 0.06 0.205 0 0.08 0.205 0 0.1 0.205 0 0 0.21 0 0.02 0.21 0 0.04 0.21 0 0.06 0.21 0 0.08 0.21 0 0.1 0.21 0 0 0.215 0 0.02 0.215 0 0.04 0.215 0 0.06 0.215 0 0.08 0.215 0 0.1 0.215 0 0 0.22 0 0.02 0.22 0 0.04 0.22 0 0.06 0.22 0 0.08 0.22 0 0.1 0.22 0 0 0.225 0 0.02 0.225 0 0.04 0.225 0 0.06 0.225 0 0.08 0.225 0 0.1 0.225 0 0 0.23 0 0.02 0.23 0 0.04 0.23 0 0.06 0.23 0 0.08 0.23 0 0.1 0.23 0 0 0.235 0 0.02 0.235 0 0.04 0.235 0 0.06 0.235 0 0.08 0.235 0 0.1 0.235 0 0 0.24 0 0.02 0.24 0 0.04 0.24 0 0.06 0.24 0 0.08 0.24 0 0.1 0.24 0 0 0.245 0 0.02 0.245 0 0.04 0.245 0 0.06 0.245 0 0.08 0.245 0 0.1 0.245 0 0 0.25 0 0.02 0.25 0 0.04 0.25 0 0.06 0.25 0 0.08 0.25 0 0.1 0.25 0 0 0.255 0 0.02 0.255 0 0.04 0.255 0 0.06 0.255 0 0.08 0.255 0 0.1 0.255 0 0 0.26 0 0.02 0.26 0 0.04 0.26 0 0.06 0.26 0 0.08 0.26 0 0.1 0.26 0 0 0.265 0 0.02 0.265 0 0.04 0.265 0 0.06 0.265 0 0.08 0.265 0 0.1 0.265 0 0 0.27 0 0.02 0.27 0 0.04 0.27 0 0.06 0.27 0 0.08 0.27 0 0.1 0.27 0 0 0.275 0 0.02 0.275 0 0.04 0.275 0 0.06 0.275 0 0.08 0.275 0 0.1 0.275 0 0 0.28 0 0.02 0.28 0 0.04 0.28 0 0.06 0.28 0 0.08 0.28 0 0.1 0.28 0 0 0.285 0 0.02 0.285 0 0.04 0.285 0 0.06 0.285 0 0.08 0.285 0 0.1 0.285 0 0 0.29 0 0.02 0.29 0 0.04 0.29 0 0.06 0.29 0 0.08 0.29 0 0.1 0.29 0 0 0.295 0 0.02 0.295 0 0.04 0.295 0 0.06 0.295 0 0.08 0.295 0 0.1 0.295 0 0 0.3 0 0.02 0.3 0 0.04 0.3 0 0.06 0.3 0 0.08 0.3 0 0.1 0.3 0 0 0.305 0 0.02 0.305 0 0.04 0.305 0 0.06 0.305 0 0.08 0.305 0 0.1 0.305 0 0 0.31 0 0.02 0.31 0 0.04 0.31 0 0.06 0.31 0 0.08 0.31 0 0.1 0.31 0 0 0.315 0 0.02 0.315 0 0.04 0.315 0 0.06 0.315 0 0.08 0.315 0 0.1 0.315 0 0 0.32 0 0.02 0.32 0 0.04 0.32 0 0.06 0.32 0 0.08 0.32 0 0.1 0.32 0 0 0.325 0 0.02 0.325 0 0.04 0.325 0 0.06 0.325 0 0.08 0.325 0 0.1 0.325 0 0 0.33 0 0.02 0.33 0 0.04 0.33 0 0.06 0.33 0 0.08 0.33 0 0.1 0.33 0 0 0.335 0 0.02 0.335 0 0.04 0.335 0 0.06 0.335 0 0.08 0.335 0 0.1 0.335 0 0 0.34 0 0.02 0.34 0 0.04 0.34 0 0.06 0.34 0 0.08 0.34 0 0.1 0.34 0 0 0.345 0 0.02 0.345 0 0.04 0.345 0 0.06 0.345 0 0.08 0.345 0 0.1 0.345 0 0 0.35 0 0.02 0.35 0 0.04 0.35 0 0.06 0.35 0 0.08 0.35 0 0.1 0.35 0 0 0.355 0 0.02 0.355 0 0.04 0.355 0 0.06 0.355 0 0.08 0.355 0 0.1 0.355 0 0 0.36 0 0.02 0.36 0 0.04 0.36 0 0.06 0.36 0 0.08 0.36 0 0.1 0.36 0 0 0.365 0 0.02 0.365 0 0.04 0.365 0 0.06 0.365 0 0.08 0.365 0 0.1 0.365 0 0 0.37 0 0.02 0.37 0 0.04 0.37 0 0.06 0.37 0 0.08 0.37 0 0.1 0.37 0 0 0.375 0 0.02 0.375 0 0.04 0.375 0 0.06 0.375 0 0.08 0.375 0 0.1 0.375 0 0 0.38 0 0.02 0.38 0 0.04 0.38 0 0.06 0.38 0 0.08 0.38 0 0.1 0.38 0 0 0.385 0 0.02 0.385 0 0.04 0.385 0 0.06 0.385 0 0.08 0.385 0 0.1 0.385 0 0 0.39 0 0.02 0.39 0 0.04 0.39 0 0.06 0.39 0 0.08 0.39 0 0.1 0.39 0 0 0.395 0 0.02 0.395 0 0.04 0.395 0 0.06 0.395 0 0.08 0.395 0 0.1 0.395 0 0 0.4 0 0.02 0.4 0 0.04 0.4 0 0.06 0.4 0 0.08 0.4 0 0.1 0.4 0 0 0.405 0 0.02 0.405 0 0.04 0.405 0 0.06 0.405 0 0.08 0.405 0 0.1 0.405 0 0 0.41 0 0.02 0.41 0 0.04 0.41 0 0.06 0.41 0 0.08 0.41 0 0.1 0.41 0 0 0.415 0 0.02 0.415 0 0.04 0.415 0 0.06 0.415 0 0.08 0.415 0 0.1 0.415 0 0 0.42 0 0.02 0.42 0 0.04 0.42 0 0.06 0.42 0 0.08 0.42 0 0.1 0.42 0 0 0.425 0 0.02 0.425 0 0.04 0.425 0 0.06 0.425 0 0.08 0.425 0 0.1 0.425 0 0 0.43 0 0.02 0.43 0 0.04 0.43 0 0.06 0.43 0 0.08 0.43 0 0.1 0.43 0 0 0.435 0 0.02 0.435 0 0.04 0.435 0 0.06 0.435 0 0.08 0.435 0 0.1 0.435 0 0 0.44 0 0.02 0.44 0 0.04 0.44 0 0.06 0.44 0 0.08 0.44 0 0.1 0.44 0 0 0.445 0 0.02 0.445 0 0.04 0.445 0 0.06 0.445 0 0.08 0.445 0 0.1 0.445 0 0 0.45 0 0.02 0.45 0 0.04 0.45 0 0.06 0.45 0 0.08 0.45 0 0.1 0.45 0 0 0.455 0 0.02 0.455 0 0.04 0.455 0 0.06 0.455 0 0.08 0.455 0 0.1 0.455 0 0 0.46 0 0.02 0.46 0 0.04 0.46 0 0.06 0.46 0 0.08 0.46 0 0.1 0.46 0 0 0.465 0 0.02 0.465 0 0.04 0.465 0 0.06 0.465 0 0.08 0.465 0 0.1 0.465 0 0 0.47 0 0.02 0.47 0 0.04 0.47 0 0.06 0.47 0 0.08 0.47 0 0.1 0.47 0 0 0.475 0 0.02 0.475 0 0.04 0.475 0 0.06 0.475 0 0.08 0.475 0 0.1 0.475 0 0 0.48 0 0.02 0.48 0 0.04 0.48 0 0.06 0.48 0 0.08 0.48 0 0.1 0.48 0 0 0.485 0 0.02 0.485 0 0.04 0.485 0 0.06 0.485 0 0.08 0.485 0 0.1 0.485 0 0 0.49 0 0.02 0.49 0 0.04 0.49 0 0.06 0.49 0 0.08 0.49 0 0.1 0.49 0 0 0.495 0 0.02 0.495 0 0.04 0.495 0 0.06 0.495 0 0.08 0.495 0 0.1 0.495 0 0 0.5 0 0.02 0.5 0 0.04 0.5 0 0.06 0.5 0 0.08 0.5 0 0.1 0.5 0 0 0.505 0 0.02 0.505 0 0.04 0.505 0 0.06 0.505 0 0.08 0.505 0 0.1 0.505 0 0 0.51 0 0.02 0.51 0 0.04 0.51 0 0.06 0.51 0 0.08 0.51 0 0.1 0.51 0 0 0.515 0 0.02 0.515 0 0.04 0.515 0 0.06 0.515 0 0.08 0.515 0 0.1 0.515 0 0 0.52 0 0.02 0.52 0 0.04 0.52 0 0.06 0.52 0 0.08 0.52 0 0.1 0.52 0 0 0.525 0 0.02 0.525 0 0.04 0.525 0 0.06 0.525 0 0.08 0.525 0 0.1 0.525 0 0 0.53 0 0.02 0.53 0 0.04 0.53 0 0.06 0.53 0 0.08 0.53 0 0.1 0.53 0 0 0.535 0 0.02 0.535 0 0.04 0.535 0 0.06 0.535 0 0.08 0.535 0 0.1 0.535 0 0 0.54 0 0.02 0.54 0 0.04 0.54 0 0.06 0.54 0 0.08 0.54 0 0.1 0.54 0 0 0.545 0 0.02 0.545 0 0.04 0.545 0 0.06 0.545 0 0.08 0.545 0 0.1 0.545 0 0 0.55 0 0.02 0.55 0 0.04 0.55 0 0.06 0.55 0 0.08 0.55 0 0.1 0.55 0 0 0.555 0 0.02 0.555 0 0.04 0.555 0 0.06 0.555 0 0.08 0.555 0 0.1 0.555 0 0 0.56 0 0.02 0.56 0 0.04 0.56 0 0.06 0.56 0 0.08 0.56 0 0.1 0.56 0 0 0.565 0 0.02 0.565 0 0.04 0.565 0 0.06 0.565 0 0.08 0.565 0 0.1 0.565 0 0 0.57 0 0.02 0.57 0 0.04 0.57 0 0.06 0.57 0 0.08 0.57 0 0.1 0.57 0 0 0.575 0 0.02 0.575 0 0.04 0.575 0 0.06 0.575 0 0.08 0.575 0 0.1 0.575 0 0 0.58 0 0.02 0.58 0 0.04 0.58 0 0.06 0.58 0 0.08 0.58 0 0.1 0.58 0 0 0.585 0 0.02 0.585 0 0.04 0.585 0 0.06 0.585 0 0.08 0.585 0 0.1 0.585 0 0 0.59 0 0.02 0.59 0 0.04 0.59 0 0.06 0.59 0 0.08 0.59 0 0.1 0.59 0 0 0.595 0 0.02 0.595 0 0.04 0.595 0 0.06 0.595 0 0.08 0.595 0 0.1 0.595 0 0 0.6 0 0.02 0.6 0 0.04 0.6 0 0.06 0.6 0 0.08 0.6 0 0.1 0.6 0 0 0.605 0 0.02 0.605 0 0.04 0.605 0 0.06 0.605 0 0.08 0.605 0 0.1 0.605 0 0 0.61 0 0.02 0.61 0 0.04 0.61 0 0.06 0.61 0 0.08 0.61 0 0.1 0.61 0 0 0.615 0 0.02 0.615 0 0.04 0.615 0 0.06 0.615 0 0.08 0.615 0 0.1 0.615 0 0 0.62 0 0.02 0.62 0 0.04 0.62 0 0.06 0.62 0 0.08 0.62 0 0.1 0.62 0 0 0.625 0 0.02 0.625 0 0.04 0.625 0 0.06 0.625 0 0.08 0.625 0 0.1 0.625 0 0 0.63 0 0.02 0.63 0 0.04 0.63 0 0.06 0.63 0 0.08 0.63 0 0.1 0.63 0 0 0.635 0 0.02 0.635 0 0.04 0.635 0 0.06 0.635 0 0.08 0.635 0 0.1 0.635 0 0 0.64 0 0.02 0.64 0 0.04 0.64 0 0.06 0.64 0 0.08 0.64 0 0.1 0.64 0 0 0.645 0 0.02 0.645 0 0.04 0.645 0 0.06 0.645 0 0.08 0.645 0 0.1 0.645 0 0 0.65 0 0.02 0.65 0 0.04 0.65 0 0.06 0.65 0 0.08 0.65 0 0.1 0.65 0 0 0.655 0 0.02 0.655 0 0.04 0.655 0 0.06 0.655 0 0.08 0.655 0 0.1 0.655 0 0 0.66 0 0.02 0.66 0 0.04 0.66 0 0.06 0.66 0 0.08 0.66 0 0.1 0.66 0 0 0.665 0 0.02 0.665 0 0.04 0.665 0 0.06 0.665 0 0.08 0.665 0 0.1 0.665 0 0 0.67 0 0.02 0.67 0 0.04 0.67 0 0.06 0.67 0 0.08 0.67 0 0.1 0.67 0 0 0.675 0 0.02 0.675 0 0.04 0.675 0 0.06 0.675 0 0.08 0.675 0 0.1 0.675 0 0 0.68 0 0.02 0.68 0 0.04 0.68 0 0.06 0.68 0 0.08 0.68 0 0.1 0.68 0 0 0.685 0 0.02 0.685 0 0.04 0.685 0 0.06 0.685 0 0.08 0.685 0 0.1 0.685 0 0 0.69 0 0.02 0.69 0 0.04 0.69 0 0.06 0.69 0 0.08 0.69 0 0.1 
[...]
			<PointData Scalars="VitesseX">
				<DataArray Name="VitesseX" type="Float32" format="ascii">
 0 3.9955e-14 2.27579e-14 6.55215e-14 2.25452e-14 0 0 3.69875e-14 3.12925e-14 5.65371e-14 2.70047e-14 0 0 3.6975e-14 3.86231e-14 4.94363e-14 2.71531e-14 0 0 3.028e-14 5.68768e-14 3.69897e-14 2.58082e-14 0 0 2.7071e-14 7.9595e-14 1.56973e-14 3.02854e-14 0 0 6.69916e-14 4.04179e-14 5.48387e-14 -4.7878e-15 0 0 8.8101e-14 3.36907e-14 6.15545e-14 -1.6809e-14 0 0 7.56596e-14 5.42248e-14 4.73603e-14 -6.67798e-15 0 0 6.62297e-14 5.46823e-14 4.67239e-14 1.51146e-15 0 0 5.91658e-14 6.11405e-14 3.28074e-14 2.01429e-14 0 0 4.02826e-14 8.96104e-14 7.00909e-15 3.32162e-14 0 0 3.89902e-14 8.43659e-14 2.01994e-14 1.97257e-14 0 0 7.54326e-14 2.60936e-14 8.82549e-14 -3.39624e-14 0 0 7.82459e-14 5.05027e-14 5.59975e-14 -1.76584e-14 0 0 6.18474e-14 7.95041e-14 2.09663e-14 1.94518e-14 0 0 7.32556e-14 5.54049e-14 1.51724e-14 5.16871e-14 0 0 8.90112e-14 2.07877e-14 4.44787e-14 2.81015e-14 0 0 1.95304e-14 8.63048e-14 1.99486e-14 1.84432e-14 0 0 -2.50573e-14 1.36663e-13 -4.30753e-14 1.01023e-13 0 0 4.37702e-15 9.86685e-14 -1.70374e-14 1.18462e-13 0 0 5.40146e-14 3.12947e-14 7.29757e-14 6.08118e-14 0 0 7.19604e-14 4.43462e-14 4.47033e-14 6.79999e-14 0 0 6.41502e-14 1.064e-13 -4.12543e-14 1.17166e-13 0 0 3.9832e-14 1.67041e-13 -9.13574e-14 1.48327e-13 0 0 5.13453e-14 1.19048e-13 -5.44022e-16 9.92128e-14 0 0 7.03005e-14 7.98604e-14 5.34686e-14 9.24434e-14 0 0 6.03176e-14 1.06917e-13 7.16619e-15 1.19997e-13 0 0 6.38601e-14 9.96597e-14 -1.62636e-14 1.43107e-13 0 0 2.38086e-14 1.22096e-13 -8.24305e-15 1.05698e-13 0 0 8.48384e-14 -1.65723e-14 1.76629e-13 -3.96975e-14 0 0 1.16392e-13 -3.43628e-14 1.36824e-13 3.74385e-14 0 0 5.26382e-14 7.35273e-14 1.69132e-14 1.1825e-13 0 0 8.38186e-14 1.65149e-14 9.86916e-14 5.41594e-14 0 0 4.74294e-14 9.20985e-14 1.33159e-14 1.28001e-13 0 0 4.49966e-14 8.17545e-14 3.99546e-14 1.44966e-13 0 0 9.25316e-14 -7.67776e-15 1.91575e-13 2.42911e-14 0 0 3.54039e-14 1.17926e-13 1.00087e-13 5.41272e-14 0 0 6.48221e-14 1.13525e-13 6.27417e-14 1.52121e-13 0 0 1.47837e-13 -9.28465e-15 1.51344e-13 1.55949e-13 0 0 1.49895e-13 1.63573e-14 6.50683e-14 1.8774e-13 0 0 1.57099e-13 4.3104e-14 -1.67227e-14 1.99743e-13 0 0 1.66609e-13 2.97825e-14 1.65697e-14 1.40386e-13 0 0 2.00209e-13 -2.82438e-14 7.40999e-14 9.45779e-14 0 0 2.11262e-13 -9.32105e-14 1.4075e-13 4.27729e-14 0 0 1.30562e-13 -5.49636e-14 1.9246e-13 -5.84678e-14 0 0 -7.90733e-15 1.60719e-13 -1.45019e-14 7.15744e-14 0 0 -8.25506e-14 2.61989e-13 -1.43678e-13 1.9603e-13 0 0 9.22204e-15 3.61276e-14 8.66683e-14 5.9514e-14 0 0 -7.61067e-15 1.17774e-14 8.08345e-14 4.85184e-14 0 0 -5.42159e-14 2.01381e-14 1.2232e-13 1.92426e-14 0 0 -8.0354e-14 3.57244e-14 1.92859e-13 -4.36005e-14 0 0 -5.73108e-14 8.3501e-14 1.4684e-13 -4.72321e-15 0 0 -3.20856e-14 2.22561e-13 5.43572e-15 1.27532e-13 0 0 -5.22315e-14 3.72053e-13 -3.447e-14 1.33505e-13 0 0 5.79522e-14 2.82417e-13 1.53258e-13 -1.23533e-14 0 0 3.33069e-14 3.31509e-13 1.31125e-13 -6.06604e-14 0 0 1.70746e-14 3.75412e-13 6.64004e-14 -1.10536e-13 0 0 8.11131e-14 2.79365e-13 1.50202e-13 -1.3695e-13 0 0 2.10833e-13 1.24862e-13 3.27708e-13 -1.99976e-13 0 0 3.5144e-13 6.80954e-14 3.2286e-13 -1.84673e-13 0 0 3.79101e-13 1.34015e-13 1.44025e-13 -1.32965e-14 0 0 2.84192e-13 2.49566e-13 1.00478e-14 1.63411e-13 0 0 1.55209e-13 3.80481e-13 -1.05303e-13 3.44704e-13 0 0 1.60142e-13 3.63449e-13 -8.51817e-14 3.96818e-13 0 0 2.60494e-13 1.77484e-13 1.70911e-14 4.74595e-13 0 0 2.67915e-13 1.48811e-14 1.81672e-13 5.5471e-13 0 0 7.10329e-14 3.58361e-14 3.03097e-13 5.2e-13 0 0 -1.30759e-13 1.04552e-13 3.23456e-13 4.06111e-13 0 0 -2.76047e-13 2.59804e-13 2.74205e-13 2.87881e-13 0 0 -1.70872e-13 2.60291e-13 3.56337e-13 1.00961e-13 0 0 1.03853e-13 6.62845e-14 5.14785e-13 -1.05664e-14 0 0 9.06342e-14 1.50606e-13 4.39732e-13 7.60072e-14 0 0 -2.20553e-14 5.7077e-14 7.34857e-13 -1.61838e-13 0 0 -2.15273e-13 1.3923e-13 7.5187e-13 -1.7485e-13 0 0 -3.89912e-13 4.73896e-13 3.52844e-13 1.05357e-13 0 0 -2.28011e-13 3.85178e-13 3.48705e-13 1.33803e-13 0 0 -3.25698e-14 2.16991e-13 4.2495e-13 1.13237e-13 0 0 4.78184e-14 1.95261e-13 3.65833e-13 1.07349e-13 0 0 1.64007e-13 1.22107e-13 2.95856e-13 -1.36619e-14 0 0 3.58153e-13 -1.11316e-13 3.93778e-13 -1.11423e-13 0 0 5.56468e-13 -5.33259e-13 7.21599e-13 -2.69704e-13 0 0 5.07393e-13 -5.30281e-13 7.11129e-13 -2.17036e-13 0 0 2.20886e-13 -1.36417e-13 2.4092e-13 1.43472e-13 0 0 -1.0952e-13 3.30861e-13 -9.62951e-14 2.73855e-13 0 0 -2.96166e-13 3.94123e-13 -2.42699e-14 1.89147e-13 0 0 -3.20629e-13 2.6537e-13 2.38477e-13 -5.65908e-15 0 0 -3.09688e-13 9.36962e-14 3.63654e-13 -6.79105e-14 0 0 -4.20175e-13 2.15374e-13 2.05236e-13 2.9616e-14 0 0 -5.49609e-13 3.52838e-13 -5.42449e-14 1.85752e-13 0 0 -4.83121e-13 1.98088e-13 -4.73034e-14 2.67608e-13 0 0 -1.44632e-13 -2.88284e-13 5.14201e-14 3.83231e-13 0 0 1.67378e-13 -6.23608e-13 2.84253e-14 5.49769e-13 0 0 1.27446e-13 -6.17892e-13 -1.09606e-13 7.65125e-13 0 0 -7.8109e-14 -4.83049e-13 -9.1957e-14 7.35989e-13 0 0 -2.23796e-13 -3.65833e-13 1.3169e-14 5.70792e-13 0 0 -3.59528e-13 -2.77895e-13 1.92159e-13 3.16076e-13 0 0 -4.17506e-13 -2.39356e-13 4.34277e-13 -1.08507e-14 0 0 -4.27562e-13 -2.706e-13 7.13732e-13 -4.05688e-13 0 0 -5.36853e-13 -2.64797e-13 7.9633e-13 -5.45627e-13 0 0 -5.79857e-13 -8.79313e-14 6.63298e-13 -4.77811e-13 0 0 -4.89818e-13 1.90408e-13 2.37367e-13 -1.89706e-13 0 0 -2.85785e-13 2.67068e-13 -3.0214e-13 2.9266e-13 0 0 -1.11553e-13 3.08441e-13 -4.85911e-13 5.47139e-13 0 0 -1.15095e-13 3.87458e-13 -4.49612e-13 4.89442e-13 0 0 -1.48023e-13 4.09101e-13 -2.24393e-13 1.80693e-13 0 0 -5.11311e-14 2.86536e-13 2.36984e-13 -3.59236e-13 0 0 2.20912e-13 -8.78143e-14 7.24427e-13 -5.43751e-13 0 0 3.64614e-13 -2.74277e-13 8.0312e-13 -5.15263e-13 0 0 3.53451e-13 -2.50761e-13 7.44769e-13 -3.95976e-13 0 0 2.74452e-13 -1.55988e-13 6.52156e-13 -2.89049e-13 0 0 1.84798e-13 3.5988e-14 5.19493e-13 -1.82621e-13 0 0 1.59504e-13 2.52465e-13 3.04515e-13 -1.34753e-14 0 0 1.7081e-13 2.98479e-13 1.93471e-13 1.76018e-13 0 0 2.07228e-13 3.34683e-13 1.47815e-13 2.26364e-13 0 0 2.92452e-13 3.54246e-13 1.34793e-13 2.17866e-13 0 0 3.86372e-13 3.10883e-13 1.78749e-13 1.50141e-13 0 0 4.48637e-13 3.01466e-13 1.59404e-13 1.81238e-13 0 0 4.89554e-13 3.38013e-13 8.05417e-14 2.8826e-13 0 0 4.98896e-13 3.71148e-13 5.67342e-14 2.88351e-13 0 0 4.90191e-13 3.75437e-13 1.17337e-13 2.24123e-13 0 0 4.4353e-13 3.73109e-13 2.27529e-13 8.39623e-14 0 0 3.42954e-13 3.8924e-13 3.32208e-13 7.58668e-15 0 0 2.09042e-13 4.23299e-13 3.55217e-13 1.25433e-14 0 0 1.42816e-13 4.74332e-13 3.10167e-13 3.3376e-14 0 0 1.39863e-13 4.68446e-13 2.93672e-13 7.39895e-14 0 0 1.50636e-13 4.16337e-13 3.09582e-13 1.09375e-13 0 0 1.66256e-13 3.58506e-13 3.38625e-13 1.16054e-13 0 0 1.90884e-13 3.13606e-13 3.51647e-13 1.68251e-13 0 0 2.20616e-13 2.88377e-13 3.61628e-13 2.15489e-13 0 0 2.25919e-13 2.90435e-13 3.54613e-13 2.17915e-13 0 0 1.96558e-13 2.86649e-13 3.85603e-13 1.87497e-13 0 0 1.72312e-13 2.81113e-13 4.56769e-13 1.3848e-13 0 0 1.99162e-13 2.56387e-13 4.46258e-13 1.81378e-13 0 0 2.35217e-13 2.58859e-13 4.08755e-13 2.32897e-13 0 0 2.57639e-13 2.98205e-13 3.95474e-13 2.76462e-13 0 0 2.90828e-13 3.09304e-13 3.93422e-13 2.5298e-13 0 0 2.91772e-13 3.10542e-13 4.10601e-13 2.15758e-13 0 0 2.65233e-13 3.53427e-13 3.98226e-13 2.80137e-13 0 0 2.58618e-13 3.54231e-13 3.8459e-13 3.06169e-13 0 0 2.71952e-13 3.2288e-13 3.53084e-13 3.14401e-13 0 0 2.66865e-13 3.0024e-13 3.31895e-13 3.29701e-13 0 0 2.29201e-13 2.46599e-13 4.01515e-13 2.29446e-13 0 0 1.8721e-13 2.31179e-13 3.95808e-13 1.25651e-13 0 0 1.89689e-13 2.1627e-13 3.09952e-13 1.61139e-13 0 0 1.82323e-13 2.39733e-13 1.81153e-13 2.40469e-13 0 0 1.47341e-13 3.03533e-13 6.26644e-14 3.42052e-13 0 0 1.715e-13 3.06508e-13 5.85994e-14 3.22909e-13 0 0 2.61246e-13 2.58147e-13 1.20809e-13 3.07904e-13 0 0 2.58916e-13 2.94246e-13 2.35234e-13 2.90234e-13 0 0 2.6103e-13 3.32488e-13 3.26081e-13 2.98317e-13 0 0 2.64001e-13 4.28429e-13 2.85548e-13 5.52589e-13 0 0 2.9747e-13 3.97977e-13 4.31611e-13 4.80898e-13 0 0 3.24407e-13 4.12501e-13 4.30815e-13 4.04765e-13 0 0 3.50859e-13 4.1601e-13 3.6358e-13 4.0897e-13 0 0 3.81484e-13 3.309e-13 4.43734e-13 3.75976e-13 0 0 4.24456e-13 2.43277e-13 4.826e-13 4.16424e-13 0 0 4.40491e-13 2.11063e-13 4.43848e-13 4.09326e-13 0 0 3.78444e-13 2.49911e-13 4.49461e-13 3.17097e-13 0 0 3.44895e-13 2.97736e-13 3.5742e-13 3.88655e-13 0 0 2.32818e-13 4.26575e-13 2.29047e-13 4.82754e-13 0 0 1.94432e-13 4.10958e-13 2.65683e-13 4.60196e-13 0 0 2.90856e-13 2.72811e-13 3.79397e-13 3.40988e-13 0 0 3.17671e-13 2.39842e-13 4.40558e-13 2.4334e-13 0 0 3.09837e-13 2.91785e-13 3.39883e-13 3.3978e-13 0 0 3.54364e-13 2.38042e-13 4.02529e-13 3.09897e-13 0 0 3.29154e-13 2.88625e-13 4.02556e-13 2.792e-13 0 0 3.07507e-13 4.42813e-13 2.18531e-13 3.77848e-13 0 0 4.99765e-13 3.11562e-13 2.73676e-13 4.49905e-13 0 0 4.27739e-13 5.05865e-13 1.70126e-13 5.12459e-13 0 0 3.54174e-13 6.19849e-13 1.91297e-13 4.90344e-13 0 0 4.76773e-13 4.50809e-13 4.17013e-13 4.52897e-13 0 0 4.6402e-13 5.60535e-13 3.65762e-13 5.1367e-13 0 0 5.135e-13 5.40812e-13 4.30544e-13 4.56626e-13 0 0 5.80996e-13 5.0766e-13 4.17213e-13 4.84923e-13 0 0 7.21064e-13 3.09865e-13 6.30175e-13 3.24948e-13 0 0 7.76487e-13 2.80914e-13 6.66464e-13 3.44743e-13 0 0 6.2322e-13 5.05145e-13 4.90877e-13 4.71301e-13 0 0 5.0757e-13 4.90218e-13 5.3911e-13 3.70696e-13 0 0 3.97818e-13 6.09859e-13 3.77931e-13 4.14402e-13 0 0 4.29501e-13 5.32716e-13 4.39123e-13 3.92336e-13 0 0 4.11607e-13 5.78755e-13 3.99446e-13 4.37569e-13 0 0 3.99561e-13 6.52129e-13 4.62048e-13 2.87976e-13 0 0 4.45184e-13 4.64291e-13 7.6221e-13 5.70631e-14 0 0 3.15567e-13 5.74376e-13 5.78722e-13 4.00301e-13 0 0 5.15544e-13 3.71798e-13 5.98157e-13 6.07263e-13 0 0 5.63216e-13 3.35014e-13 6.71196e-13 4.60729e-13 0 0 2.94478e-13 5.65809e-13 6.98357e-13 3.44084e-13 0 0 1.88164e-13 6.52516e-13 7.01474e-13 3.5936e-13 0 0 9.72408e-14 7.81846e-13 4.45327e-13 6.20494e-13 0 0 3.29864e-13 4.35466e-13 5.01045e-13 6.92275e-13 0 0 5.3173e-13 2.08865e-13 5.33348e-13 6.28901e-13 0 0 3.02844e-13 5.36354e-13 2.96251e-13 5.82856e-13 0 0 2.604e-13 5.36268e-13 3.59546e-13 3.91139e-13 0 0 2.30511e-13 4.36547e-13 5.00134e-13 2.12624e-13 0 0 1.25966e-14 5.77939e-13 5.00055e-13 7.01821e-14 0 0 5.77464e-14 5.50534e-13 5.47777e-13 -6.03208e-15 0 0 1.39914e-13 5.62499e-13 4.7129e-13 8.21644e-14 0 0 3.19422e-13 3.32241e-13 6.45821e-13 -5.48044e-14 0 0 3.2342e-13 3.9548e-13 4.33176e-13 6.92258e-14 0 0 -7.4091e-14 9.79235e-13 -1.57139e-13 4.55215e-13 0 0 -2.34617e-13 1.16393e-12 -2.92334e-13 5.50687e-13 0
				</DataArray>
				<DataArray Name="VitesseY" type="Float32" format="ascii">