<?xml version="1.0"?>
<VTKFile type="PolyData">
	<PolyData>
		<Piece NumberOfPoints="1206" NumberOfPolys="1000">
			<Points>
				<DataArray type="Float32" NumberOfComponents="3" format="ascii">
 0 0 0 0.02 0 0 0.04 0 0 0.06 0 0 0.08 0 0 0.1 0 0 0 0.005 0 0.02 0.005 0 0.04 0.005 0 0.06 0.005 0 0.08 0.005 0 0.1 0.005 0 0 0.01 0 0.02 0.01 0 0.04 0.01 0 0.06 0.01 0 0.08 0.01 0 0.1 0.01 0 0 0.015 0 0.02 0.015 0 0.04 0.015 0 0.06 0.015 0 0.08 0.015 0 0.1 0.015 0 0 0.02 0 0.02 0.02 0 0.04 0.02 0 0.06 0.02 0 0.08 0.02 0 0.1 0.02 0 0 0.025 0 0.02 0.025 0 0.04 0.025 0 0.06 0.025 0 0.08 0.025 0 0.1 0.025 0 0 0.03 0 0.02 0.03 0 0.04 0.03 0 0.06 0.03 0 0.08 0.03 0 0.1 0.03 0 0 0.035 0 0.02 0.035 0 0.04 0.035 0 0.06 0.035 0 0.08 0.035 0 0.1 0.035 0 0 0.04 0 0.02 0.04 0 0.04 0.04 0 0.06 0.04 0 0.08 0.04 0 0.1 0.04 0 0 0.045 0 0.02 0.045 0 0.04 0.045 0 0.06 0.045 0 0.08 0.045 0 0.1 0.045 0 0 0.05 0 0.02 0.05 0 0.04 0.05 0 0.06 0.05 0 0.08 0.05 0 0.1 0.05 0 0 0.055 0 0.02 0.055 0 0.04 0.055 0 0.06 0.055 0 0.08 0.055 0 0.1 0.055 0 0 0.06 0 0.02 0.06 0 0.04 0.06 0 0.06 0.06 0 0.08 0.06 0 0.1 0.06 0 0 0.065 0 0.02 0.065 0 0.04 0.065 0 0.06 0.065 0 0.08 0.065 0 0.1 0.065 0 0 0.07 0 0.02 0.07 0 0.04 0.07 0 0.06 0.07 0 0.08 0.07 0 0.1 0.07 0 0 0.075 0 0.02 0.075 0 0.04 0.075 0 0.06 0.075 0 0.08 0.075 0 0.1 0.075 0 0 0.08 0 0.02 0.08 0 0.04 0.08 0 0.06 0.08 0 0.08 0.08 0 0.1 0.08 0 0 0.085 0 0.02 0.085 0 0.04 0.085 0 0.06 0.085 0 0.08 0.085 0 0.1 0.085 0 0 0.09 0 0.02 0.09 0 0.04 0.09 0 0.06 0.09 0 0.08 0.09 0 0.1 0.09 0 0 0.095 0 0.02 0.095 0 0.04 0.095 0 0.06 0.095 0 0.08 0.095 0 0.1 0.095 0 0 0.1 0 0.02 0.1 0 0.04 0.1 0 0.06 0.1 0 0.08 0.1 0 0.1 0.1 0 0 0.105 0 0.02 0.105 0 0.04 0.105 0 0.06 0.105 0 0.08 0.105 0 0.1 0.105 0 0 0.11 0 0.02 0.11 0 0.04 0.11 0 0.06 0.11 0 0.08 0.11 0 0.1 0.11 0 0 0.115 0 0.02 0.115 0 0.04 0.115 0 0.06 0.115 0 0.08 0.115 0 0.1 0.115 0 0 0.12 0 0.02 0.12 0 0.04 0.12 0 0.06 0.12 0 0.08 0.12 0 0.1 0.12 0 0 0.125 0 0.02 0.125 0 0.04 0.125 0 0.06 0.125 0 0.08 0.125 0 0.1 0.125 0 0 0.13 0 0.02 0.13 0 0.04 0.13 0 0.06 0.13 0 0.08 0.13 0 0.1 0.13 0 0 0.135 0 0.02 0.135 0 0.04 0.135 0 0.06 0.135 0 0.08 0.135 0 0.1 0.135 0 0 0.14 0 0.02 0.14 0 0.04 0.14 0 0.06 0.14 0 0.08 0.14 0 0.1 0.14 0 0 0.145 0 0.02 0.145 0 0.04 0.145 0 0.06 0.145 0 0.08 0.145 0 0.1 0.145 0 0 0.15 0 0.02 0.15 0 0.04 0.15 0 0.06 0.15 0 0.08 0.15 0 0.1 0.15 0 0 0.155 0 0.02 0.155 0 0.04 0.155 0 0.06 0.155 0 0.08 0.155 0 0.1 0.155 0 0 0.16 0 0.02 0.16 0 0.04 0.16 0 0.06 0.16 0 0.08 0.16 0 0.1 0.16 0 0 0.165 0 0.02 0.165 0 0.04 0.165 0 0.06 0.165 0 0.08 0.165 0 0.1 0.165 0 0 0.17 0 0.02 0.17 0 0.04 0.17 0 0.06 0.17 0 0.08 0.17 0 0.1 0.17 0 0 0.175 0 0.02 0.175 0 0.04 0.175 0 0.06 0.175 0 0.08 0.175 0 0.1 0.175 0 0 0.18 0 0.02 0.18 0 0.04 0.18 0 0.06 0.18 0 0.08 0.18 0 0.1 0.18 0 0 0.185 0 0.02 0.185 0 0.04 0.185 0 0.06 0.185 0 0.08 0.185 0 0.1 0.185 0 0 0.19 0 0.02 0.19 0 0.04 0.19 0 0.06 0.19 0 0.08 0.19 0 0.1 0.19 0 0 0.195 0 0.02 0.195 0 0.04 0.195 0 0.06 0.195 0 0.08 0.195 0 0.1 0.195 0 0 0.2 0 0.02 0.2 0 0.04 0.2 0 0.06 0.2 0 0.08 0.2 0 0.1 0.2 0 0 0.205 0 0.02 0.205 0 0.04 0.205 0 0.06 0.205 0 0.08 0.205 0 0.1 0.205 0 0 0.21 0 0.02 0.21 0 0.04 0.21 0 0.06 0.21 0 0.08 0.21 0 0.1 0.21 0 0 0.215 0 0.02 0.215 0 0.04 0.215 0 0.06 0.215 0 0.08 0.215 0 0.1 0.215 0 0 0.22 0 0.02 0.22 0 0.04 0.22 0 0.06 0.22 0 0.08 0.22 0 0.1 0.22 0 0 0.225 0 0.02 0.225 0 0.04 0.225 0 0.06 0.225 0 0.08 0.225 0 0.1 0.225 0 0 0.23 0 0.02 0.23 0 0.04 0.23 0 0.06 0.23 0 0.08 0.23 0 0.1 0.23 0 0 0.235 0 0.02 0.235 0 0.04 0.235 0 0.06 0.235 0 0.08 0.235 0 0.1 0.235 0 0 0.24 0 0.02 0.24 0 0.04 0.24 0 0.06 0.24 0 0.08 0.24 0 0.1 0.24 0 0 0.245 0 0.02 0.245 0 0.04 0.245 0 0.06 0.245 0 0.08 0.245 0 0.1 0.245 0 0 0.25 0 0.02 0.25 0 0.04 0.25 0 0.06 0.25 0 0.08 0.25 0 0.1 0.25 0 0 0.255 0 0.02 0.255 0 0.04 0.255 0 0.06 0.255 0 0.08 0.255 0 0.1 0.255 0 0 0.26 0 0.02 0.26 0 0.04 0.26 0 0.06 0.26 0 0.08 0.26 0 0.1 0.26 0 0 0.265 0 0.02 0.265 0 0.04 0.265 0 0.06 0.265 0 0.08 0.265 0 0.1 0.265 0 0 0.27 0 0.02 0.27 0 0.04 0.27 0 0.06 0.27 0 0.08 0.27 0 0.1 0.27 0 0 0.275 0 0.02 0.275 0 0.04 0.275 0 0.06 0.275 0 0.08 0.275 0 0.1 0.275 0 0 0.28 0 0.02 0.28 0 0.04 0.28 0 0.06 0.28 0 0.08 0.28 0 0.1 0.28 0 0 0.285 0 0.02 0.285 0 0.04 0.285 0 0.06 0.285 0 0.08 0.285 0 0.1 0.285 0 0 0.29 0 0.02 0.29 0 0.04 0.29 0 0.06 0.29 0 0.08 0.29 0 0.1 0.29 0 0 0.295 0 0.02 0.295 0 0.04 0.295 0 0.06 0.295 0 0.08 0.295 0 0.1 0.295 0 0 0.3 0 0.02 0.3 0 0.04 0.3 0 0.06 0.3 0 0.08 0.3 0 0.1 0.3 0 0 0.305 0 0.02 0.305 0 0.04 0.305 0 0.06 0.305 0 0.08 0.305 0 0.1 0.305 0 0 0.31 0 0.02 0.31 0 0.04 0.31 0 0.06 0.31 0 0.08 0.31 0 0.1 0.31 0 0 0.315 0 0.02 0.315 0 0.04 0.315 0 0.06 0.315 0 0.08 0.315 0 0.1 0.315 0 0 0.32 0 0.02 0.32 0 0.04 0.32 0 0.06 0.32 0 0.08 0.32 0 0.1 0.32 0 0 0.325 0 0.02 0.325 0 0.04 0.325 0 0.06 0.325 0 0.08 0.325 0 0.1 0.325 0 0 0.33 0 0.02 0.33 0 0.04 0.33 0 0.06 0.33 0 0.08 0.33 0 0.1 0.33 0 0 0.335 0 0.02 0.335 0 0.04 0.335 0 0.06 0.335 0 0.08 0.335 0 0.1 0.335 0 0 0.34 0 0.02 0.34 0 0.04 0.34 0 0.06 0.34 0 0.08 0.34 0 0.1 0.34 0 0 0.345 0 0.02 0.345 0 0.04 0.345 0 0.06 0.345 0 0.08 0.345 0 0.1 0.345 0 0 0.35 0 0.02 0.35 0 0.04 0.35 0 0.06 0.35 0 0.08 0.35 0 0.1 0.35 0 0 0.355 0 0.02 0.355 0 0.04 0.355 0 0.06 0.355 0 0.08 0.355 0 0.1 0.355 0 0 0.36 0 0.02 0.36 0 0.04 0.36 0 0.06 0.36 0 0.08 0.36 0 0.1 0.36 0 0 0.365 0 0.02 0.365 0 0.04 0.365 0 0.06 0.365 0 0.08 0.365 0 0.1 0.365 0 0 0.37 0 0.02 0.37 0 0.04 0.37 0 0.06 0.37 0 0.08 0.37 0 0.1 0.37 0 0 0.375 0 0.02 0.375 0 0.04 0.375 0 0.06 0.375 0 0.08 0.375 0 0.1 0.375 0 0 0.38 0 0.02 0.38 0 0.04 0.38 0 0.06 0.38 0 0.08 0.38 0 0.1 0.38 0 0 0.385 0 0.02 0.385 0 0.04 0.385 0 0.06 0.385 0 0.08 0.385 0 0.1 0.385 0 0 0.39 0 0.02 0.39 0 0.04 0.39 0 0.06 0.39 0 0.08 0.39 0 0.1 0.39 0 0 0.395 0 0.02 0.395 0 0.04 0.395 0 0.06 0.395 0 0.08 0.395 0 0.1 0.395 0 0 0.4 0 0.02 0.4 0 0.04 0.4 0 0.06 0.4 0 0.08 0.4 0 0.1 0.4 0 0 0.405 0 0.02 0.405 0 0.04 0.405 0 0.06 0.405 0 0.08 0.405 0 0.1 0.405 0 0 0.41 0 0.02 0.41 0 0.04 0.41 0 0.06 0.41 0 0.08 0.41 0 0.1 0.41 0 0 0.415 0 0.02 0.415 0 0.04 0.415 0 0.06 0.415 0 0.08 0.415 0 0.1 0.415 0 0 0.42 0 0.02 0.42 0 0.04 0.42 0 0.06 0.42 0 0.08 0.42 0 0.1 0.42 0 0 0.425 0 0.02 0.425 0 0.04 0.425 0 0.06 0.425 0 0.08 0.425 0 0.1 0.425 0 0 0.43 0 0.02 0.43 0 0.04 0.43 0 0.06 0.43 0 0.08 0.43 0 0.1 0.43 0 0 0.435 0 0.02 0.435 0 0.04 0.435 0 0.06 0.435 0 0.08 0.435 0 0.1 0.435 0 0 0.44 0 0.02 0.44 0 0.04 0.44 0 0.06 0.44 0 0.08 0.44 0 0.1 0.44 0 0 0.445 0 0.02 0.445 0 0.04 0.445 0 0.06 0.445 0 0.08 0.445 0 0.1 0.445 0 0 0.45 0 0.02 0.45 0 0.04 0.45 0 0.06 0.45 0 0.08 0.45 0 0.1 0.45 0 0 0.455 0 0.02 0.455 0 0.04 0.455 0 0.06 0.455 0 0.08 0.455 0 0.1 0.455 0 0 0.46 0 0.02 0.46 0 0.04 0.46 0 0.06 0.46 0 0.08 0.46 0 0.1 0.46 0 0 0.465 0 0.02 0.465 0 0.04 0.465 0 0.06 0.465 0 0.08 0.465 0 0.1 0.465 0 0 0.47 0 0.02 0.47 0 0.04 0.47 0 0.06 0.47 0 0.08 0.47 0 0.1 0.47 0 0 0.475 0 0.02 0.475 0 0.04 0.475 0 0.06 0.475 0 0.08 0.475 0 0.1 0.475 0 0 0.48 0 0.02 0.48 0 0.04 0.48 0 0.06 0.48 0 0.08 0.48 0 0.1 0.48 0 0 0.485 0 0.02 0.485 0 0.04 0.485 0 0.06 0.485 0 0.08 0.485 0 0.1 0.485 0 0 0.49 0 0.02 0.49 0 0.04 0.49 0 0.06 0.49 0 0.08 0.49 0 0.1 0.49 0 0 0.495 0 0.02 0.495 0 0.04 0.495 0 0.06 0.495 0 0.08 0.495 0 0.1 0.495 0 0 0.5 0 0.02 0.5 0 0.04 0.5 0 0.06 0.5 0 0.08 0.5 0 0.1 0.5 0 0 0.505 0 0.02 0.505 0 0.04 0.505 0 0.06 0.505 0 0.08 0.505 0 0.1 0.505 0 0 0.51 0 0.02 0.51 0 0.04 0.51 0 0.06 0.51 0 0.08 0.51 0 0.1 0.51 0 0 0.515 0 0.02 0.515 0 0.04 0.515 0 0.06 0.515 0 0.08 0.515 0 0.1 0.515 0 0 0.52 0 0.02 0.52 0 0.04 0.52 0 0.06 0.52 0 0.08 0.52 0 0.1 0.52 0 0 0.525 0 0.02 0.525 0 0.04 0.525 0 0.06 0.525 0 0.08 0.525 0 0.1 0.525 0 0 0.53 0 0.02 0.53 0 0.04 0.53 0 0.06 0.53 0 0.08 0.53 0 0.1 0.53 0 0 0.535 0 0.02 0.535 0 0.04 0.535 0 0.06 0.535 0 0.08 0.535 0 0.1 0.535 0 0 0.54 0 0.02 0.54 0 0.04 0.54 0 0.06 0.54 0 0.08 0.54 0 0.1 0.54 0 0 0.545 0 0.02 0.545 0 0.04 0.545 0 0.06 0.545 0 0.08 0.545 0 0.1 0.545 0 0 0.55 0 0.02 0.55 0 0.04 0.55 0 0.06 0.55 0 0.08 0.55 0 0.1 0.55 0 0 0.555 0 0.02 0.555 0 0.04 0.555 0 0.06 0.555 0 0.08 0.555 0 0.1 0.555 0 0 0.56 0 0.02 0.56 0 0.04 0.56 0 0.06 0.56 0 0.08 0.56 0 0.1 0.56 0 0 0.565 0 0.02 0.565 0 0.04 0.565 0 0.06 0.565 0 0.08 0.565 0 0.1 0.565 0 0 0.57 0 0.02 0.57 0 0.04 0.57 0 0.06 0.57 0 0.08 0.57 0 0.1 0.57 0 0 0.575 0 0.02 0.575 0 0.04 0.575 0 0.06 0.575 0 0.08 0.575 0 0.1 0.575 0 0 0.58 0 0.02 0.58 0 0.04 0.58 0 0.06 0.58 0 0.08 0.58 0 0.1 0.58 0 0 0.585 0 0.02 0.585 0 0.04 0.585 0 0.06 0.585 0 0.08 0.585 0 0.1 0.585 0 0 0.59 0 0.02 0.59 0 0.04 0.59 0 0.06 0.59 0 0.08 0.59 0 0.1 0.59 0 0 0.595 0 0.02 0.595 0 0.04 0.595 0 0.06 0.595 0 0.08 0.595 0 0.1 0.595 0 0 0.6 0 0.02 0.6 0 0.04 0.6 0 0.06 0.6 0 0.08 0.6 0 0.1 0.6 0 0 0.605 0 0.02 0.605 0 0.04 0.605 0 0.06 0.605 0 0.08 0.605 0 0.1 0.605 0 0 0.61 0 0.02 0.61 0 0.04 0.61 0 0.06 0.61 0 0.08 0.61 0 0.1 0.61 0 0 0.615 0 0.02 0.615 0 0.04 0.615 0 0.06 0.615 0 0.08 0.615 0 0.1 0.615 0 0 0.62 0 0.02 0.62 0 0.04 0.62 0 0.06 0.62 0 0.08 0.62 0 0.1 0.62 0 0 0.625 0 0.02 0.625 0 0.04 0.625 0 0.06 0.625 0 0.08 0.625 0 0.1 0.625 0 0 0.63 0 0.02 0.63 0 0.04 0.63 0 0.06 0.63 0 0.08 0.63 0 0.1 0.63 0 0 0.635 0 0.02 0.635 0 0.04 0.635 0 0.06 0.635 0 0.08 0.635 0 0.1 0.635 0 0 0.64 0 0.02 0.64 0 0.04 0.64 0 0.06 0.64 0 0.08 0.64 0 0.1 0.64 0 0 0.645 0 0.02 0.645 0 0.04 0.645 0 0.06 0.645 0 0.08 0.645 0 0.1 0.645 0 0 0.65 0 0.02 0.65 0 0.04 0.65 0 0.06 0.65 0 0.08 0.65 0 0.1 0.65 0 0 0.655 0 0.02 0.655 0 0.04 0.655 0 0.06 0.655 0 0.08 0.655 0 0.1 0.655 0 0 0.66 0 0.02 0.66 0 0.04 0.66 0 0.06 0.66 0 0.08 0.66 0 0.1 0.66 0 0 0.665 0 0.02 0.665 0 0.04 0.665 0 0.06 0.665 0 0.08 0.665 0 0.1 0.665 0 0 0.67 0 0.02 0.67 0 0.04 0.67 0 0.06 0.67 0 0.08 0.67 0 0.1 0.67 0 0 0.675 0 0.02 0.675 0 0.04 0.675 0 0.06 0.675 0 0.08 0.675 0 0.1 0.675 0 0 0.68 0 0.02 0.68 0 0.04 0.68 0 0.06 0.68 0 0.08 0.68 0 0.1 0.68 0 0 0.685 0 0.02 0.685 0 0.04 0.685 0 0.06 0.685 0 0.08 0.685 0 0.1 0.685 0 0 0.69 0 0.02 0.69 0 0.04 0.69 0 0.06 0.69 0 0.08 0.69 0 0.1 
[...]
			<PointData Scalars="VitesseX">
				<DataArray Name="VitesseX" type="Float32" format="ascii">
 0 3.52724e-14 6.26517e-14 4.56475e-14 3.03734e-14 0 0 3.79394e-14 5.68083e-14 4.92083e-14 3.126e-14 0 0 3.87813e-14 4.72193e-14 5.64952e-14 3.0263e-14 0 0 3.64066e-14 3.79539e-14 6.38352e-14 2.89202e-14 0 0 2.61253e-14 4.01436e-14 5.81852e-14 3.29166e-14 0 0 3.31774e-15 5.93958e-14 3.50368e-14 4.71558e-14 0 0 6.35154e-15 4.09821e-14 4.5115e-14 4.5157e-14 0 0 1.72205e-14 1.7615e-14 6.2391e-14 2.94593e-14 0 0 1.57046e-14 1.41909e-14 7.0598e-14 1.58967e-14 0 0 -8.49842e-15 4.74029e-14 4.23123e-14 2.90151e-14 0 0 -1.46216e-14 4.38858e-14 4.05249e-14 2.74046e-14 0 0 6.42253e-15 -1.58092e-14 1.03946e-13 -1.43417e-14 0 0 -1.69097e-14 1.52921e-14 7.56829e-14 -6.95385e-15 0 0 -3.32678e-14 6.81165e-14 -1.22708e-14 6.37323e-14 0 0 -2.5757e-14 7.50591e-14 -2.36173e-14 8.34478e-14 0 0 -7.64566e-15 5.44628e-14 1.65006e-14 5.14889e-14 0 0 3.48648e-14 -8.67936e-15 7.15047e-14 2.80689e-14 0 0 6.84682e-14 -4.37488e-14 9.13314e-14 2.93705e-14 0 0 4.57798e-14 2.47193e-14 -1.56764e-15 1.03836e-13 0 0 3.01224e-14 5.52504e-14 -4.65484e-14 1.4284e-13 0 0 6.95058e-14 -2.67928e-14 7.73159e-14 2.47254e-14 0 0 7.97998e-14 -2.29295e-14 7.03078e-14 1.83724e-14 0 0 5.91486e-14 6.1789e-14 -6.85273e-14 1.26825e-13 0 0 2.81932e-14 1.21997e-13 -1.37359e-13 1.64295e-13 0 0 5.931e-14 3.84597e-14 -1.49077e-14 8.12663e-14 0 0 4.04674e-14 4.97456e-14 3.19889e-14 2.12205e-14 0 0 3.65426e-14 6.17508e-14 4.53923e-14 1.32529e-14 0 0 5.28156e-14 5.86739e-14 1.19195e-14 7.09558e-14 0 0 2.79891e-14 9.70181e-14 -4.85156e-14 9.53989e-14 0 0 2.3863e-14 2.84403e-14 8.72628e-14 -1.15256e-15 0 0 5.44167e-15 3.6643e-14 1.06155e-13 3.77432e-14 0 0 2.27532e-14 1.13608e-14 1.8122e-13 -5.13787e-15 0 0 5.72059e-14 -3.70115e-15 1.90256e-13 5.80796e-15 0 0 6.81161e-14 6.24956e-14 5.10922e-14 1.52888e-13 0 0 1.14455e-13 2.79851e-15 1.55179e-13 1.06127e-13 0 0 7.99386e-14 4.8674e-14 1.97627e-13 2.7358e-14 0 0 4.87366e-14 1.02609e-13 9.73738e-14 1.24955e-13 0 0 3.75245e-14 7.71819e-14 3.74174e-14 2.73996e-13 0 0 -2.85809e-14 6.67296e-14 1.12539e-13 1.71819e-13 0 0 -5.34954e-14 3.97585e-14 1.09564e-13 1.47288e-13 0 0 -4.51862e-14 8.40223e-14 -1.42568e-14 2.50841e-13 0 0 -1.36326e-15 1.21768e-13 2.4132e-14 1.92008e-13 0 0 -2.85743e-14 2.55398e-13 -1.00652e-15 2.08718e-13 0 0 9.66051e-15 2.88195e-13 -4.43076e-15 2.06006e-13 0 0 1.38937e-13 1.15659e-13 1.45192e-13 9.31705e-14 0 0 7.18688e-14 1.72677e-13 8.4966e-14 9.01901e-14 0 0 -3.03112e-15 2.67823e-13 -3.90245e-14 1.58365e-13 0 0 1.39118e-13 7.63245e-14 1.39588e-13 5.48485e-14 0 0 1.80384e-13 4.66201e-14 2.18671e-13 -1.66305e-14 0 0 7.08507e-14 1.95547e-13 9.23883e-14 4.82475e-14 0 0 -4.39598e-14 2.55402e-13 9.30883e-14 9.47975e-16 0 0 1.93067e-14 1.13058e-13 2.08926e-13 2.69557e-15 0 0 9.86701e-14 1.93556e-14 1.42396e-13 2.38104e-13 0 0 1.27045e-13 -6.60443e-14 1.33692e-13 3.91206e-13 0 0 2.29461e-13 -2.56183e-13 3.25988e-13 3.10988e-13 0 0 7.90701e-14 -1.39537e-13 3.42603e-13 2.45562e-13 0 0 -2.02436e-13 7.97786e-14 2.69252e-13 1.66242e-13 0 0 -3.17912e-13 4.76894e-14 3.13974e-13 9.14387e-14 0 0 -2.15927e-13 -2.72572e-14 2.6266e-13 1.2585e-13 0 0 -6.18752e-14 1.32937e-14 1.68291e-13 9.5944e-14 0 0 -8.55529e-14 1.63748e-13 1.71091e-13 -1.16192e-14 0 0 -2.13448e-13 3.58508e-13 1.71819e-13 -1.21581e-13 0 0 -2.48906e-13 4.27427e-13 1.07374e-13 -9.96509e-14 0 0 -1.76086e-13 4.02418e-13 7.17505e-16 5.76823e-16 0 0 -3.92384e-14 2.74782e-13 2.9615e-15 2.48983e-14 0 0 1.5799e-13 3.9443e-14 1.19329e-13 -3.76416e-14 0 0 2.24479e-13 -1.77881e-13 2.58585e-13 -9.77927e-14 0 0 1.88675e-13 -2.14533e-13 2.76042e-13 -1.40352e-13 0 0 7.36918e-14 -6.98292e-14 1.43069e-13 -1.23141e-13 0 0 -1.59464e-13 3.47599e-13 -2.36485e-13 -3.61664e-14 0 0 -1.36024e-13 3.76218e-13 -2.73778e-13 -1.27515e-13 0 0 1.19663e-13 1.70673e-13 -1.57666e-13 -3.13771e-13 0 0 1.87829e-13 1.31105e-13 -2.02518e-13 -2.85254e-13 0 0 2.14632e-13 1.13401e-13 -3.04106e-13 -2.21939e-13 0 0 3.01146e-13 -8.31003e-15 -2.8181e-13 -1.78231e-13 0 0 3.89542e-13 -1.6187e-13 -2.82843e-13 -1.3174e-13 0 0 4.27519e-13 -3.89495e-13 -1.51083e-13 -1.47299e-13 0 0 3.30507e-13 -3.17812e-13 -2.12066e-13 -6.08227e-14 0 0 1.80402e-13 -1.68645e-13 -3.43208e-13 1.6406e-13 0 0 1.77043e-13 -2.15791e-13 -2.53474e-13 2.40432e-13 0 0 1.98691e-13 -3.37464e-13 -5.24266e-14 2.20301e-13 0 0 1.03248e-13 -2.7198e-13 -2.06439e-14 1.46928e-13 0 0 -1.47094e-13 -4.95034e-14 -9.76407e-14 7.68205e-14 0 0 -4.65497e-13 2.75139e-13 -2.46997e-13 7.29865e-14 0 0 -4.48501e-13 2.65477e-13 -3.23834e-13 8.09632e-14 0 0 -3.49294e-13 1.71919e-13 -3.71755e-13 1.78662e-13 0 0 -2.08842e-13 4.00576e-14 -4.13378e-13 3.12999e-13 0 0 -6.55964e-14 -1.67901e-13 -3.43663e-13 2.80561e-13 0 0 8.57016e-14 -3.95678e-13 -2.17511e-13 1.50546e-13 0 0 1.51633e-13 -4.27068e-13 -1.9973e-13 7.98596e-14 0 0 1.60622e-13 -4.08843e-13 -2.53428e-13 5.08055e-14 0 0 1.619e-13 -3.47933e-13 -3.8114e-13 4.06425e-14 0 0 1.35825e-13 -2.90132e-13 -4.42844e-13 1.72723e-14 0 0 6.34217e-14 -2.92485e-13 -4.00468e-13 -7.80256e-14 0 0 -3.87807e-14 -3.31128e-13 -1.98227e-13 -3.16682e-13 0 0 -1.43287e-13 -3.19212e-13 6.54996e-14 -6.47797e-13 0 0 -2.32461e-13 -3.24152e-13 2.01343e-13 -9.01301e-13 0 0 -3.50532e-13 -3.27618e-13 1.79055e-13 -9.71314e-13 0 0 -3.55147e-13 -2.3713e-13 2.34899e-14 -8.90633e-13 0 0 -3.13564e-13 -9.63864e-14 -2.34477e-13 -7.31141e-13 0 0 -2.57126e-13 8.30581e-14 -5.92569e-13 -5.21158e-13 0 0 -1.60507e-13 1.00608e-13 -7.88476e-13 -3.29532e-13 0 0 6.68297e-14 -5.34521e-14 -7.47812e-13 -2.67413e-13 0 0 4.37264e-13 -4.10767e-13 -6.88143e-13 -1.86033e-13 0 0 5.74668e-13 -5.89211e-13 -6.45598e-13 -8.1407e-14 0 0 5.33985e-13 -5.6318e-13 -6.12634e-13 -9.40454e-14 0 0 3.92197e-13 -4.68143e-13 -5.699e-13 -1.65801e-13 0 0 1.90433e-13 -3.79613e-13 -5.59949e-13 -1.86057e-13 0 0 4.0826e-14 -3.26649e-13 -5.27169e-13 -1.80933e-13 0 0 -1.02499e-13 -2.90134e-13 -4.32641e-13 -2.73638e-13 0 0 -1.98892e-13 -2.78105e-13 -3.07775e-13 -3.15218e-13 0 0 -2.75036e-13 -2.34433e-13 -2.88673e-13 -2.8431e-13 0 0 -2.94036e-13 -2.27469e-13 -2.85808e-13 -2.25066e-13 0 0 -2.7447e-13 -2.84254e-13 -2.1478e-13 -1.70309e-13 0 0 -2.56919e-13 -2.98253e-13 -1.74816e-13 -1.45427e-13 0 0 -2.45713e-13 -2.63536e-13 -1.99529e-13 -7.98227e-14 0 0 -2.17417e-13 -2.64616e-13 -1.97529e-13 -1.87435e-15 0 0 -1.75631e-13 -3.01672e-13 -1.79698e-13 9.0744e-14 0 0 -1.59555e-13 -2.91466e-13 -1.49596e-13 8.30484e-14 0 0 -1.32337e-13 -2.61227e-13 -1.18286e-13 4.89411e-14 0 0 -1.00333e-13 -1.93499e-13 -1.79796e-13 1.08957e-13 0 0 -3.72607e-14 -1.44579e-13 -2.93668e-13 2.49436e-13 0 0 5.87063e-14 -1.73971e-13 -2.66691e-13 2.52492e-13 0 0 1.04265e-13 -2.32812e-13 -1.25451e-13 1.89129e-13 0 0 1.39271e-13 -2.98211e-13 7.59719e-14 1.46477e-13 0 0 1.68664e-13 -2.91967e-13 1.50303e-13 1.41561e-13 0 0 1.80184e-13 -2.41379e-13 1.16941e-13 1.75442e-13 0 0 1.74278e-13 -1.54171e-13 1.2038e-13 1.52425e-13 0 0 1.43882e-13 -3.45263e-14 1.33324e-13 1.31374e-13 0 0 9.83818e-14 6.37341e-14 1.5192e-13 1.47671e-13 0 0 4.77082e-14 1.36641e-13 2.27123e-13 1.09547e-13 0 0 -1.86551e-14 2.51779e-13 2.38049e-13 1.13883e-13 0 0 -4.43532e-14 3.0217e-13 2.42937e-13 1.34274e-13 0 0 -2.07822e-14 2.93953e-13 2.54634e-13 1.24975e-13 0 0 3.55661e-14 2.72546e-13 2.37545e-13 1.76939e-13 0 0 1.27317e-13 1.73036e-13 3.00999e-13 1.7037e-13 0 0 1.62581e-13 1.10761e-13 3.46987e-13 8.0591e-14 0 0 1.61155e-13 1.3818e-13 3.00588e-13 5.76317e-14 0 0 1.73682e-13 1.21667e-13 2.97032e-13 7.34163e-15 0 0 1.63207e-13 1.23647e-13 2.9018e-13 -2.02984e-14 0 0 1.31321e-13 1.59817e-13 2.74009e-13 -3.03727e-14 0 0 1.124e-13 2.19639e-13 2.43427e-13 -1.04525e-13 0 0 1.05067e-13 2.66996e-13 1.69969e-13 -7.49829e-14 0 0 1.39288e-13 2.47637e-13 1.25169e-13 6.88903e-14 0 0 2.38059e-13 1.4115e-13 1.54832e-13 1.2031e-13 0 0 2.65383e-13 1.23698e-13 1.26003e-13 1.46541e-13 0 0 2.4996e-13 1.6267e-13 5.64306e-14 2.14479e-13 0 0 2.16105e-13 1.60655e-13 1.20279e-13 1.83876e-13 0 0 1.57372e-13 1.54849e-13 1.99082e-13 8.87872e-14 0 0 1.2951e-13 1.34399e-13 1.88055e-13 1.1367e-13 0 0 1.23049e-13 8.80004e-14 1.51026e-13 1.15138e-13 0 0 9.46615e-14 8.73345e-14 9.75355e-14 1.33986e-14 0 0 4.09365e-14 1.32232e-13 -5.64258e-14 -1.19876e-13 0 0 -3.96979e-15 1.45893e-13 -2.29404e-13 -2.17162e-13 0 0 -6.82215e-15 9.62814e-14 -2.08769e-13 -3.54829e-13 0 0 -1.4638e-14 1.10269e-14 -1.89594e-13 -3.59551e-13 0 0 -2.84126e-14 -1.06885e-13 -1.46885e-13 -2.37131e-13 0 0 -8.86148e-14 -1.5159e-13 -1.43314e-13 8.43471e-15 0 0 -1.91062e-13 -1.78861e-13 -1.18638e-13 1.82149e-13 0 0 -2.51084e-13 -2.71249e-13 -2.851e-14 2.49635e-13 0 0 -2.72645e-13 -3.27408e-13 6.44028e-14 2.22972e-13 0 0 -2.06491e-13 -3.41851e-13 7.17515e-14 2.43049e-13 0 0 -2.1238e-13 -1.77473e-13 -1.54472e-13 3.05905e-13 0 0 -2.59944e-13 -1.6474e-13 -9.58748e-14 1.30921e-13 0 0 -2.20712e-13 -3.32938e-13 1.96796e-13 -2.42526e-13 0 0 -2.35584e-13 -2.23054e-13 1.53387e-14 -1.25095e-13 0 0 -2.52636e-13 -1.01734e-13 -2.30911e-13 7.57658e-14 0 0 -3.56687e-13 -2.8584e-14 -2.6819e-13 9.54307e-14 0 0 -4.26687e-13 -8.44169e-15 -2.17508e-13 8.83792e-14 0 0 -3.61183e-13 -1.36777e-13 -4.59162e-14 -1.21665e-14 0 0 -3.43473e-13 -2.33222e-13 1.02534e-13 -1.09013e-13 0 0 -3.82473e-13 -1.60074e-13 5.78137e-14 -1.79163e-13 0 0 -4.3698e-13 -5.37496e-14 -1.32165e-14 -1.2785e-13 0 0 -3.41463e-13 -1.74666e-13 9.98558e-14 -1.60107e-13 0 0 -2.51759e-13 -2.59972e-13 1.31174e-13 -2.38828e-13 0 0 -3.39811e-13 -1.09892e-13 -2.66007e-14 -1.1935e-13 0 0 -4.08139e-13 -1.37888e-14 -1.2961e-13 2.06922e-14 0 0 -3.62636e-13 4.89945e-15 -1.23719e-13 2.31696e-14 0 0 -2.47394e-13 -4.12174e-14 -1.78022e-14 -1.5026e-13 0 0 -1.39647e-13 -1.34187e-13 1.69358e-13 -3.64201e-13 0 0 -5.30492e-14 -1.74992e-13 2.01607e-13 -3.262e-13 0 0 2.59888e-14 -2.09225e-13 2.02068e-13 -3.14244e-13 0 0 5.27919e-14 -2.05233e-13 2.13043e-13 -3.29702e-13 0 0 9.6915e-15 -8.78665e-14 -3.35338e-15 -9.36202e-14 0 0 6.64347e-14 -1.40413e-13 3.4468e-14 -8.54369e-14 0 0 1.45089e-13 -1.97851e-13 1.49701e-13 -1.67616e-13 0 0 1.1379e-13 -7.03405e-14 -4.02769e-15 -9.65993e-14 0 0 1.99981e-13 -1.31892e-13 8.29351e-14 -2.48962e-13 0 0 2.73499e-13 -2.18443e-13 1.47381e-13 -2.49993e-13 0 0 1.0132e-13 -4.11831e-14 1.20358e-13 -2.5389e-13 0 0 1.61126e-14 2.27055e-14 2.25062e-13 -3.53783e-13 0 0 1.5e-14 2.51436e-14 1.8218e-13 -2.44183e-13 0 0 -4.2708e-14 1.87387e-14 1.69056e-13 -1.92939e-13 0 0 -7.7114e-14 -3.98507e-14 1.04095e-13 -1.31934e-13 0 0 -3.00214e-13 3.6794e-13 -3.18359e-13 -3.3073e-14 0 0 -2.37575e-13 2.49075e-13 -1.1821e-13 -1.70603e-13 0 0 1.70452e-15 -2.65271e-13 2.14182e-13 -1.41818e-13 0 0 3.02942e-13 -7.42009e-13 4.11798e-13 -1.47521e-13 0 0 1.48901e-13 -5.56325e-13 1.36624e-13 1.81261e-13 0 0 -1.73834e-13 -1.76412e-13 -3.67342e-13 7.84579e-13 0 0 -4.15267e-14 -4.08618e-13 -2.59687e-13 8.49797e-13 0
				</DataArray>
				<DataArray Name="VitesseY" type="Float32" format="ascii">