<?xml version="1.0"?>
<VTKFile type="PolyData">
	<PolyData>
		<Piece NumberOfPoints="1206" NumberOfPolys="1000">
			<Points>
				<DataArray type="Float32" NumberOfComponents="3" format="ascii">
 0 0 0 0.02 0 0 0.04 0 0 0.06 0 0 0.08 0 0 0.1 0 0 0 0.005 0 0.02 0.005 0 0.04 0.005 0 0.06 0.005 0 0.08 0.005 0 0.1 0.005 0 0 0.01 0 0.02 0.01 0 0.04 0.01 0 0.06 0.01 0 0.08 0.01 0 0.1 0.01 0 0 0.015 0 0.02 0.015 0 0.04 0.015 0 0.06 0.015 0 0.08 0.015 0 0.1 0.015 0 0 0.02 0 0.02 0.02 0 0.04 0.02 0 0.06 0.02 0 0.08 0.02 0 0.1 0.02 0 0 0.025 0 0.02 0.025 0 0.04 0.025 0 0.06 0.025 0 0.08 0.025 0 0.1 0.025 0 0 0.03 0 0.02 0.03 0 0.04 0.03 0 0.06 0.03 0 0.08 0.03 0 0.1 0.03 0 0 0.035 0 0.02 0.035 0 0.04 0.035 0 0.06 0.035 0 0.08 0.035 0 0.1 0.035 0 0 0.04 0 0.02 0.04 0 0.04 0.04 0 0.06 0.04 0 0.08 0.04 0 0.1 0.04 0 0 0.045 0 0.02 0.045 0 0.04 0.045 0 0.06 0.045 0 0.08 0.045 0 0.1 0.045 0 0 0.05 0 0.02 0.05 0 0.04 0.05 0 0.06 0.05 0 0.08 0.05 0 0.1 0.05 0 0 0.055 0 0.02 0.055 0 0.04 0.055 0 0.06 0.055 0 0.08 0.055 0 0.1 0.055 0 0 0.06 0 0.02 0.06 0 0.04 0.06 0 0.06 0.06 0 0.08 0.06 0 0.1 0.06 0 0 0.065 0 0.02 0.065 0 0.04 0.065 0 0.06 0.065 0 0.08 0.065 0 0.1 0.065 0 0 0.07 0 0.02 0.07 0 0.04 0.07 0 0.06 0.07 0 0.08 0.07 0 0.1 0.07 0 0 0.075 0 0.02 0.075 0 0.04 0.075 0 0.06 0.075 0 0.08 0.075 0 0.1 0.075 0 0 0.08 0 0.02 0.08 0 0.04 0.08 0 0.06 0.08 0 0.08 0.08 0 0.1 0.08 0 0 0.085 0 0.02 0.085 0 0.04 0.085 0 0.06 0.085 0 0.08 0.085 0 0.1 0.085 0 0 0.09 0 0.02 0.09 0 0.04 0.09 0 0.06 0.09 0 0.08 0.09 0 0.1 0.09 0 0 0.095 0 0.02 0.095 0 0.04 0.095 0 0.06 0.095 0 0.08 0.095 0 0.1 0.095 0 0 0.1 0 0.02 0.1 0 0.04 0.1 0 0.06 0.1 0 0.08 0.1 0 0.1 0.1 0 0 0.105 0 0.02 0.105 0 0.04 0.105 0 0.06 0.105 0 0.08 0.105 0 0.1 0.105 0 0 0.11 0 0.02 0.11 0 0.04 0.11 0 0.06 0.11 0 0.08 0.11 0 0.1 0.11 0 0 0.115 0 0.02 0.115 0 0.04 0.115 0 0.06 0.115 0 0.08 0.115 0 0.1 0.115 0 0 0.12 0 0.02 0.12 0 0.04 0.12 0 0.06 0.12 0 0.08 0.12 0 0.1 0.12 0 0 0.125 0 0.02 0.125 0 0.04 0.125 0 0.06 0.125 0 0.08 0.125 0 0.1 0.125 0 0 0.13 0 0.02 0.13 0 0.04 0.13 0 0.06 0.13 0 0.08 0.13 0 0.1 0.13 0 0 0.135 0 0.02 0.135 0 0.04 0.135 0 0.06 0.135 0 0.08 0.135 0 0.1 0.135 0 0 0.14 0 0.02 0.14 0 0.04 0.14 0 0.06 0.14 0 0.08 0.14 0 0.1 0.14 0 0 0.145 0 0.02 0.145 0 0.04 0.145 0 0.06 0.145 0 0.08 0.145 0 0.1 0.145 0 0 0.15 0 0.02 0.15 0 0.04 0.15 0 0.06 0.15 0 0.08 0.15 0 0.1 0.15 0 0 0.155 0 0.02 0.155 0 0.04 0.155 0 0.06 0.155 0 0.08 0.155 0 0.1 0.155 0 0 0.16 0 0.02 0.16 0 0.04 0.16 0 0.06 0.16 0 0.08 0.16 0 0.1 0.16 0 0 0.165 0 0.02 0.165 0 0.04 0.165 0 0.06 0.165 0 0.08 0.165 0 0.1 0.165 0 0 0.17 0 0.02 0.17 0 0.04 0.17 0 0.06 0.17 0 0.08 0.17 0 0.1 0.17 0 0 0.175 0 0.02 0.175 0 0.04 0.175 0 0.06 0.175 0 0.08 0.175 0 0.1 0.175 0 0 0.18 0 0.02 0.18 0 0.04 0.18 0 0.06 0.18 0 0.08 0.18 0 0.1 0.18 0 0 0.185 0 0.02 0.185 0 0.04 0.185 0 0.06 0.185 0 0.08 0.185 0 0.1 0.185 0 0 0.19 0 0.02 0.19 0 0.04 0.19 0 0.06 0.19 0 0.08 0.19 0 0.1 0.19 0 0 0.195 0 0.02 0.195 0 0.04 0.195 0 0.06 0.195 0 0.08 0.195 0 0.1 0.195 0 0 0.2 0 0.02 0.2 0 0.04 0.2 0 0.06 0.2 0 0.08 0.2 0 0.1 0.2 0 0 0.205 0 0.02 0.205 0 0.04 0.205 0 0.06 0.205 0 0.08 0.205 0 0.1 0.205 0 0 0.21 0 0.02 0.21 0 0.04 0.21 0 0.06 0.21 0 0.08 0.21 0 0.1 0.21 0 0 0.215 0 0.02 0.215 0 0.04 0.215 0 0.06 0.215 0 0.08 0.215 0 0.1 0.215 0 0 0.22 0 0.02 0.22 0 0.04 0.22 0 0.06 0.22 0 0.08 0.22 0 0.1 0.22 0 0 0.225 0 0.02 0.225 0 0.04 0.225 0 0.06 0.225 0 0.08 0.225 0 0.1 0.225 0 0 0.23 0 0.02 0.23 0 0.04 0.23 0 0.06 0.23 0 0.08 0.23 0 0.1 0.23 0 0 0.235 0 0.02 0.235 0 0.04 0.235 0 0.06 0.235 0 0.08 0.235 0 0.1 0.235 0 0 0.24 0 0.02 0.24 0 0.04 0.24 0 0.06 0.24 0 0.08 0.24 0 0.1 0.24 0 0 0.245 0 0.02 0.245 0 0.04 0.245 0 0.06 0.245 0 0.08 0.245 0 0.1 0.245 0 0 0.25 0 0.02 0.25 0 0.04 0.25 0 0.06 0.25 0 0.08 0.25 0 0.1 0.25 0 0 0.255 0 0.02 0.255 0 0.04 0.255 0 0.06 0.255 0 0.08 0.255 0 0.1 0.255 0 0 0.26 0 0.02 0.26 0 0.04 0.26 0 0.06 0.26 0 0.08 0.26 0 0.1 0.26 0 0 0.265 0 0.02 0.265 0 0.04 0.265 0 0.06 0.265 0 0.08 0.265 0 0.1 0.265 0 0 0.27 0 0.02 0.27 0 0.04 0.27 0 0.06 0.27 0 0.08 0.27 0 0.1 0.27 0 0 0.275 0 0.02 0.275 0 0.04 0.275 0 0.06 0.275 0 0.08 0.275 0 0.1 0.275 0 0 0.28 0 0.02 0.28 0 0.04 0.28 0 0.06 0.28 0 0.08 0.28 0 0.1 0.28 0 0 0.285 0 0.02 0.285 0 0.04 0.285 0 0.06 0.285 0 0.08 0.285 0 0.1 0.285 0 0 0.29 0 0.02 0.29 0 0.04 0.29 0 0.06 0.29 0 0.08 0.29 0 0.1 0.29 0 0 0.295 0 0.02 0.295 0 0.04 0.295 0 0.06 0.295 0 0.08 0.295 0 0.1 0.295 0 0 0.3 0 0.02 0.3 0 0.04 0.3 0 0.06 0.3 0 0.08 0.3 0 0.1 0.3 0 0 0.305 0 0.02 0.305 0 0.04 0.305 0 0.06 0.305 0 0.08 0.305 0 0.1 0.305 0 0 0.31 0 0.02 0.31 0 0.04 0.31 0 0.06 0.31 0 0.08 0.31 0 0.1 0.31 0 0 0.315 0 0.02 0.315 0 0.04 0.315 0 0.06 0.315 0 0.08 0.315 0 0.1 0.315 0 0 0.32 0 0.02 0.32 0 0.04 0.32 0 0.06 0.32 0 0.08 0.32 0 0.1 0.32 0 0 0.325 0 0.02 0.325 0 0.04 0.325 0 0.06 0.325 0 0.08 0.325 0 0.1 0.325 0 0 0.33 0 0.02 0.33 0 0.04 0.33 0 0.06 0.33 0 0.08 0.33 0 0.1 0.33 0 0 0.335 0 0.02 0.335 0 0.04 0.335 0 0.06 0.335 0 0.08 0.335 0 0.1 0.335 0 0 0.34 0 0.02 0.34 0 0.04 0.34 0 0.06 0.34 0 0.08 0.34 0 0.1 0.34 0 0 0.345 0 0.02 0.345 0 0.04 0.345 0 0.06 0.345 0 0.08 0.345 0 0.1 0.345 0 0 0.35 0 0.02 0.35 0 0.04 0.35 0 0.06 0.35 0 0.08 0.35 0 0.1 0.35 0 0 0.355 0 0.02 0.355 0 0.04 0.355 0 0.06 0.355 0 0.08 0.355 0 0.1 0.355 0 0 0.36 0 0.02 0.36 0 0.04 0.36 0 0.06 0.36 0 0.08 0.36 0 0.1 0.36 0 0 0.365 0 0.02 0.365 0 0.04 0.365 0 0.06 0.365 0 0.08 0.365 0 0.1 0.365 0 0 0.37 0 0.02 0.37 0 0.04 0.37 0 0.06 0.37 0 0.08 0.37 0 0.1 0.37 0 0 0.375 0 0.02 0.375 0 0.04 0.375 0 0.06 0.375 0 0.08 0.375 0 0.1 0.375 0 0 0.38 0 0.02 0.38 0 0.04 0.38 0 0.06 0.38 0 0.08 0.38 0 0.1 0.38 0 0 0.385 0 0.02 0.385 0 0.04 0.385 0 0.06 0.385 0 0.08 0.385 0 0.1 0.385 0 0 0.39 0 0.02 0.39 0 0.04 0.39 0 0.06 0.39 0 0.08 0.39 0 0.1 0.39 0 0 0.395 0 0.02 0.395 0 0.04 0.395 0 0.06 0.395 0 0.08 0.395 0 0.1 0.395 0 0 0.4 0 0.02 0.4 0 0.04 0.4 0 0.06 0.4 0 0.08 0.4 0 0.1 0.4 0 0 0.405 0 0.02 0.405 0 0.04 0.405 0 0.06 0.405 0 0.08 0.405 0 0.1 0.405 0 0 0.41 0 0.02 0.41 0 0.04 0.41 0 0.06 0.41 0 0.08 0.41 0 0.1 0.41 0 0 0.415 0 0.02 0.415 0 0.04 0.415 0 0.06 0.415 0 0.08 0.415 0 0.1 0.415 0 0 0.42 0 0.02 0.42 0 0.04 0.42 0 0.06 0.42 0 0.08 0.42 0 0.1 0.42 0 0 0.425 0 0.02 0.425 0 0.04 0.425 0 0.06 0.425 0 0.08 0.425 0 0.1 0.425 0 0 0.43 0 0.02 0.43 0 0.04 0.43 0 0.06 0.43 0 0.08 0.43 0 0.1 0.43 0 0 0.435 0 0.02 0.435 0 0.04 0.435 0 0.06 0.435 0 0.08 0.435 0 0.1 0.435 0 0 0.44 0 0.02 0.44 0 0.04 0.44 0 0.06 0.44 0 0.08 0.44 0 0.1 0.44 0 0 0.445 0 0.02 0.445 0 0.04 0.445 0 0.06 0.445 0 0.08 0.445 0 0.1 0.445 0 0 0.45 0 0.02 0.45 0 0.04 0.45 0 0.06 0.45 0 0.08 0.45 0 0.1 0.45 0 0 0.455 0 0.02 0.455 0 0.04 0.455 0 0.06 0.455 0 0.08 0.455 0 0.1 0.455 0 0 0.46 0 0.02 0.46 0 0.04 0.46 0 0.06 0.46 0 0.08 0.46 0 0.1 0.46 0 0 0.465 0 0.02 0.465 0 0.04 0.465 0 0.06 0.465 0 0.08 0.465 0 0.1 0.465 0 0 0.47 0 0.02 0.47 0 0.04 0.47 0 0.06 0.47 0 0.08 0.47 0 0.1 0.47 0 0 0.475 0 0.02 0.475 0 0.04 0.475 0 0.06 0.475 0 0.08 0.475 0 0.1 0.475 0 0 0.48 0 0.02 0.48 0 0.04 0.48 0 0.06 0.48 0 0.08 0.48 0 0.1 0.48 0 0 0.485 0 0.02 0.485 0 0.04 0.485 0 0.06 0.485 0 0.08 0.485 0 0.1 0.485 0 0 0.49 0 0.02 0.49 0 0.04 0.49 0 0.06 0.49 0 0.08 0.49 0 0.1 0.49 0 0 0.495 0 0.02 0.495 0 0.04 0.495 0 0.06 0.495 0 0.08 0.495 0 0.1 0.495 0 0 0.5 0 0.02 0.5 0 0.04 0.5 0 0.06 0.5 0 0.08 0.5 0 0.1 0.5 0 0 0.505 0 0.02 0.505 0 0.04 0.505 0 0.06 0.505 0 0.08 0.505 0 0.1 0.505 0 0 0.51 0 0.02 0.51 0 0.04 0.51 0 0.06 0.51 0 0.08 0.51 0 0.1 0.51 0 0 0.515 0 0.02 0.515 0 0.04 0.515 0 0.06 0.515 0 0.08 0.515 0 0.1 0.515 0 0 0.52 0 0.02 0.52 0 0.04 0.52 0 0.06 0.52 0 0.08 0.52 0 0.1 0.52 0 0 0.525 0 0.02 0.525 0 0.04 0.525 0 0.06 0.525 0 0.08 0.525 0 0.1 0.525 0 0 0.53 0 0.02 0.53 0 0.04 0.53 0 0.06 0.53 0 0.08 0.53 0 0.1 0.53 0 0 0.535 0 0.02 0.535 0 0.04 0.535 0 0.06 0.535 0 0.08 0.535 0 0.1 0.535 0 0 0.54 0 0.02 0.54 0 0.04 0.54 0 0.06 0.54 0 0.08 0.54 0 0.1 0.54 0 0 0.545 0 0.02 0.545 0 0.04 0.545 0 0.06 0.545 0 0.08 0.545 0 0.1 0.545 0 0 0.55 0 0.02 0.55 0 0.04 0.55 0 0.06 0.55 0 0.08 0.55 0 0.1 0.55 0 0 0.555 0 0.02 0.555 0 0.04 0.555 0 0.06 0.555 0 0.08 0.555 0 0.1 0.555 0 0 0.56 0 0.02 0.56 0 0.04 0.56 0 0.06 0.56 0 0.08 0.56 0 0.1 0.56 0 0 0.565 0 0.02 0.565 0 0.04 0.565 0 0.06 0.565 0 0.08 0.565 0 0.1 0.565 0 0 0.57 0 0.02 0.57 0 0.04 0.57 0 0.06 0.57 0 0.08 0.57 0 0.1 0.57 0 0 0.575 0 0.02 0.575 0 0.04 0.575 0 0.06 0.575 0 0.08 0.575 0 0.1 0.575 0 0 0.58 0 0.02 0.58 0 0.04 0.58 0 0.06 0.58 0 0.08 0.58 0 0.1 0.58 0 0 0.585 0 0.02 0.585 0 0.04 0.585 0 0.06 0.585 0 0.08 0.585 0 0.1 0.585 0 0 0.59 0 0.02 0.59 0 0.04 0.59 0 0.06 0.59 0 0.08 0.59 0 0.1 0.59 0 0 0.595 0 0.02 0.595 0 0.04 0.595 0 0.06 0.595 0 0.08 0.595 0 0.1 0.595 0 0 0.6 0 0.02 0.6 0 0.04 0.6 0 0.06 0.6 0 0.08 0.6 0 0.1 0.6 0 0 0.605 0 0.02 0.605 0 0.04 0.605 0 0.06 0.605 0 0.08 0.605 0 0.1 0.605 0 0 0.61 0 0.02 0.61 0 0.04 0.61 0 0.06 0.61 0 0.08 0.61 0 0.1 0.61 0 0 0.615 0 0.02 0.615 0 0.04 0.615 0 0.06 0.615 0 0.08 0.615 0 0.1 0.615 0 0 0.62 0 0.02 0.62 0 0.04 0.62 0 0.06 0.62 0 0.08 0.62 0 0.1 0.62 0 0 0.625 0 0.02 0.625 0 0.04 0.625 0 0.06 0.625 0 0.08 0.625 0 0.1 0.625 0 0 0.63 0 0.02 0.63 0 0.04 0.63 0 0.06 0.63 0 0.08 0.63 0 0.1 0.63 0 0 0.635 0 0.02 0.635 0 0.04 0.635 0 0.06 0.635 0 0.08 0.635 0 0.1 0.635 0 0 0.64 0 0.02 0.64 0 0.04 0.64 0 0.06 0.64 0 0.08 0.64 0 0.1 0.64 0 0 0.645 0 0.02 0.645 0 0.04 0.645 0 0.06 0.645 0 0.08 0.645 0 0.1 0.645 0 0 0.65 0 0.02 0.65 0 0.04 0.65 0 0.06 0.65 0 0.08 0.65 0 0.1 0.65 0 0 0.655 0 0.02 0.655 0 0.04 0.655 0 0.06 0.655 0 0.08 0.655 0 0.1 0.655 0 0 0.66 0 0.02 0.66 0 0.04 0.66 0 0.06 0.66 0 0.08 0.66 0 0.1 0.66 0 0 0.665 0 0.02 0.665 0 0.04 0.665 0 0.06 0.665 0 0.08 0.665 0 0.1 0.665 0 0 0.67 0 0.02 0.67 0 0.04 0.67 0 0.06 0.67 0 0.08 0.67 0 0.1 0.67 0 0 0.675 0 0.02 0.675 0 0.04 0.675 0 0.06 0.675 0 0.08 0.675 0 0.1 0.675 0 0 0.68 0 0.02 0.68 0 0.04 0.68 0 0.06 0.68 0 0.08 0.68 0 0.1 0.68 0 0 0.685 0 0.02 0.685 0 0.04 0.685 0 0.06 0.685 0 0.08 0.685 0 0.1 0.685 0 0 0.69 0 0.02 0.69 0 0.04 0.69 0 0.06 0.69 0 0.08 0.69 0 0.1 
[...]
			<PointData Scalars="VitesseX">
				<DataArray Name="VitesseX" type="Float32" format="ascii">
 0 2.17571e-14 3.84275e-16 3.22183e-14 3.18794e-14 0 0 2.10471e-14 6.43344e-15 3.08883e-14 2.87993e-14 0 0 2.08005e-14 1.62464e-14 3.19735e-14 2.36362e-14 0 0 3.84311e-14 3.42967e-15 5.60098e-14 6.17568e-15 0 0 2.37795e-14 4.8357e-14 2.28074e-14 1.68923e-14 0 0 6.61088e-15 9.08867e-14 -8.29339e-15 2.67744e-14 0 0 3.8509e-14 5.06293e-14 2.77547e-14 1.4962e-14 0 0 6.98738e-14 1.63159e-14 6.34904e-14 -6.28254e-15 0 0 7.3129e-14 3.08428e-14 6.06686e-14 -1.60175e-14 0 0 5.25089e-14 7.80629e-14 3.04794e-14 3.27478e-15 0 0 3.37376e-14 1.04412e-13 2.31913e-14 1.19871e-14 0 0 1.80122e-14 1.29197e-13 -6.55553e-15 4.656e-14 0 0 7.21357e-14 4.5446e-14 6.85235e-14 1.93799e-14 0 0 8.62018e-14 4.11298e-14 6.33813e-14 2.33872e-14 0 0 6.92538e-14 9.09972e-14 -1.28044e-14 8.87836e-14 0 0 8.35101e-14 2.93446e-14 4.06641e-14 7.68097e-14 0 0 7.59152e-14 2.03418e-14 4.87376e-14 5.1292e-14 0 0 4.14928e-14 7.60783e-14 -2.10083e-14 9.24946e-14 0 0 3.54424e-15 1.11539e-13 -5.12352e-14 1.07657e-13 0 0 3.1275e-14 5.00896e-14 6.99221e-15 7.16288e-14 0 0 4.72277e-14 2.4526e-14 -1.5094e-14 1.36224e-13 0 0 3.35393e-14 4.66348e-14 -2.77294e-14 1.57381e-13 0 0 -7.89063e-15 8.30584e-14 2.77967e-15 1.24383e-13 0 0 -6.32427e-14 1.69124e-13 -5.87567e-14 1.54589e-13 0 0 2.81576e-14 2.53508e-14 8.84611e-14 8.7839e-14 0 0 1.17333e-13 -1.24638e-13 2.29664e-13 3.87535e-14 0 0 -1.54718e-15 8.1433e-14 3.85568e-14 1.4298e-13 0 0 -4.1177e-14 1.2774e-13 2.09525e-14 1.39489e-13 0 0 3.30335e-14 -1.19387e-14 1.39248e-13 8.658e-14 0 0 8.36433e-14 -6.96701e-14 1.69827e-13 4.90661e-14 0 0 8.79951e-14 -4.43612e-14 1.38143e-13 2.44837e-14 0 0 1.99289e-14 6.39632e-14 5.09265e-14 3.83809e-14 0 0 2.32099e-14 2.91127e-14 8.39836e-14 2.57069e-14 0 0 1.70423e-14 4.53326e-14 2.50979e-14 1.19435e-13 0 0 1.58946e-14 8.09685e-14 -2.38238e-14 1.84497e-13 0 0 1.24661e-13 -9.18389e-14 1.78631e-13 2.86829e-14 0 0 1.32226e-13 -6.93405e-14 1.69623e-13 2.50099e-15 0 0 5.35091e-14 1.18277e-13 -4.68701e-14 1.82554e-13 0 0 7.40832e-14 7.74369e-14 9.35027e-15 1.68962e-13 0 0 1.20785e-13 1.57288e-14 7.76514e-14 9.01492e-14 0 0 9.40889e-14 8.80608e-14 -8.6695e-15 1.00868e-13 0 0 1.25913e-13 9.42979e-14 -6.77056e-15 6.27459e-14 0 0 1.4443e-13 1.74276e-13 -1.05583e-13 7.10562e-14 0 0 2.40301e-13 9.30089e-14 -7.21795e-14 4.75141e-14 0 0 3.77702e-13 -1.5476e-13 1.32833e-13 1.92361e-14 0 0 2.39191e-13 1.07381e-16 -7.89753e-14 2.60454e-13 0 0 6.48068e-14 2.1204e-13 -2.86815e-13 4.03485e-13 0 0 7.79874e-14 9.44664e-14 -1.25704e-13 3.207e-13 0 0 1.49107e-13 -1.30932e-13 9.60827e-14 2.3599e-13 0 0 1.93586e-13 -2.97464e-13 2.68863e-13 1.31741e-13 0 0 9.8131e-14 -2.0122e-13 2.05314e-13 1.18514e-13 0 0 3.33905e-14 -7.73309e-14 1.06104e-13 1.40307e-13 0 0 1.84476e-14 6.74739e-14 -2.69549e-14 1.4385e-13 0 0 4.08036e-14 1.1707e-13 2.31633e-14 -5.46388e-14 0 0 1.43091e-13 2.98682e-14 1.29865e-13 -1.40675e-13 0 0 2.46805e-13 -3.59529e-14 9.86818e-14 -1.99091e-15 0 0 3.29281e-13 -4.82942e-14 1.39138e-13 -6.85219e-14 0 0 3.39453e-13 4.73125e-14 1.63853e-13 -1.31364e-13 0 0 3.1877e-13 1.45521e-13 1.47051e-13 -9.57142e-14 0 0 2.72345e-13 2.47227e-13 1.21631e-13 -1.59267e-13 0 0 2.75886e-13 2.17808e-13 1.13532e-13 -1.83503e-13 0 0 3.19698e-13 1.96226e-13 5.72396e-14 -9.95531e-14 0 0 3.79093e-13 3.05865e-13 -9.82658e-14 3.08209e-14 0 0 4.16588e-13 3.62203e-13 -2.24997e-13 1.32086e-13 0 0 4.41481e-13 2.40099e-13 -4.5104e-14 3.92635e-14 0 0 3.89293e-13 8.35623e-14 2.59851e-13 -9.93621e-14 0 0 3.55733e-13 5.15859e-15 3.66669e-13 -6.9956e-14 0 0 2.61874e-13 1.8884e-13 1.52767e-13 1.45512e-13 0 0 7.7757e-14 3.1833e-13 7.69889e-14 3.13402e-13 0 0 -1.2206e-13 3.85655e-13 1.58377e-13 3.81945e-13 0 0 -3.17049e-13 4.76911e-13 1.72033e-13 4.16047e-13 0 0 -2.78059e-13 2.99886e-13 2.87294e-13 3.4408e-13 0 0 -2.99344e-13 4.63016e-13 -2.05463e-14 4.86489e-13 0 0 -6.48085e-14 3.2564e-13 2.48805e-14 4.14245e-13 0 0 1.29187e-13 1.53421e-13 3.79797e-13 1.04162e-13 0 0 -1.35384e-13 4.50876e-13 2.26859e-13 2.34471e-13 0 0 -1.96503e-13 3.93907e-13 2.31742e-13 4.20335e-13 0 0 -7.92403e-14 1.76701e-13 5.6172e-13 1.92147e-13 0 0 -2.21951e-13 4.24427e-13 4.69242e-13 7.07272e-14 0 0 -3.60025e-13 8.91926e-13 -2.04203e-14 2.61563e-13 0 0 3.91006e-14 5.60156e-13 1.05956e-13 1.68962e-13 0 0 5.09475e-13 1.30701e-13 3.53456e-13 -6.50913e-14 0 0 4.44455e-13 2.40021e-13 2.67481e-13 -6.70019e-14 0 0 2.52244e-13 3.5096e-13 2.1221e-13 -3.26696e-14 0 0 1.20623e-13 4.23182e-13 -4.81596e-15 2.71015e-13 0 0 2.51407e-14 3.93193e-13 9.29823e-14 2.27969e-13 0 0 4.56963e-14 1.13358e-13 6.29701e-13 -1.17667e-13 0 0 7.76495e-14 -9.88108e-14 1.05259e-12 -5.99518e-13 0 0 -1.16087e-13 1.13142e-13 9.00161e-13 -5.42452e-13 0 0 -4.34838e-13 6.82907e-13 4.02976e-13 -3.47636e-13 0 0 -3.7685e-13 7.75571e-13 -4.30343e-15 -6.58256e-14 0 0 5.84552e-14 4.49012e-13 -6.73963e-14 2.34922e-13 0 0 7.32053e-13 -1.92988e-13 -2.10136e-14 3.90079e-13 0 0 9.9387e-13 -4.75954e-13 6.77697e-14 4.52827e-13 0 0 9.09793e-13 -3.97391e-13 7.50012e-14 4.63303e-13 0 0 6.69007e-13 -7.43954e-14 -6.98358e-14 4.27428e-13 0 0 3.28464e-13 4.09466e-13 -2.80062e-13 4.4472e-13 0 0 -9.66642e-14 6.81115e-13 -2.65828e-13 3.84209e-13 0 0 -2.2484e-13 7.48307e-13 -2.29426e-14 8.42125e-14 0 0 -1.72249e-13 7.38567e-13 9.61867e-14 -8.28978e-14 0 0 -5.27099e-14 6.90763e-13 7.36098e-14 -3.63552e-14 0 0 1.27103e-13 5.63413e-13 -4.32225e-14 2.31854e-13 0 0 3.54506e-13 3.04212e-13 2.00579e-14 3.90167e-13 0 0 3.76413e-13 1.51276e-13 2.62983e-13 3.10055e-13 0 0 2.53399e-13 2.46755e-13 4.84105e-13 1.35417e-13 0 0 -3.96608e-15 5.54681e-13 5.76267e-13 -1.75664e-13 0 0 -1.26659e-13 7.38764e-13 5.77567e-13 -4.20509e-13 0 0 -1.18041e-13 7.68477e-13 4.88368e-13 -3.99029e-13 0 0 -2.5268e-14 7.39954e-13 3.99206e-13 -3.93246e-13 0 0 1.36304e-13 6.51284e-13 3.57441e-13 -3.58276e-13 0 0 2.71983e-13 5.61098e-13 2.87357e-13 -2.2462e-13 0 0 3.60211e-13 4.65748e-13 2.91223e-13 -1.86502e-13 0 0 3.84223e-13 3.97135e-13 3.14324e-13 -1.45449e-13 0 0 3.60145e-13 4.01443e-13 2.72413e-13 -1.39912e-14 0 0 2.5161e-13 4.55371e-13 2.8513e-13 -1.72328e-14 0 0 8.61938e-14 5.37909e-13 2.98127e-13 -2.02858e-14 0 0 -8.81945e-15 5.55476e-13 2.81697e-13 6.376e-14 0 0 -1.63451e-14 5.20857e-13 2.6798e-13 1.399e-13 0 0 2.24721e-14 4.49555e-13 2.55082e-13 1.86444e-13 0 0 9.77194e-14 3.51548e-13 2.64924e-13 2.00226e-13 0 0 1.59736e-13 2.36765e-13 2.78613e-13 2.369e-13 0 0 1.59547e-13 2.13087e-13 2.94673e-13 2.55467e-13 0 0 1.21726e-13 1.9769e-13 3.21917e-13 2.30051e-13 0 0 9.25409e-14 1.80034e-13 3.2879e-13 2.49355e-13 0 0 6.63278e-14 1.29123e-13 3.48397e-13 2.77398e-13 0 0 2.90603e-14 9.85375e-14 3.6079e-13 3.26779e-13 0 0 -8.65726e-15 6.92856e-14 3.80166e-13 3.67063e-13 0 0 -5.31655e-15 8.9043e-14 3.89685e-13 3.41177e-13 0 0 4.15557e-15 1.898e-13 3.0785e-13 2.95946e-13 0 0 4.26502e-14 2.65978e-13 2.15061e-13 2.60149e-13 0 0 1.33174e-13 2.49735e-13 2.626e-13 1.73802e-13 0 0 2.42931e-13 2.00338e-13 3.7289e-13 3.58541e-14 0 0 3.0537e-13 2.11296e-13 3.52795e-13 7.9039e-14 0 0 3.16338e-13 2.71023e-13 2.50901e-13 2.25322e-13 0 0 3.20238e-13 3.35617e-13 2.2112e-13 2.38757e-13 0 0 3.20865e-13 3.63712e-13 2.46033e-13 1.99698e-13 0 0 3.16162e-13 3.68596e-13 3.17463e-13 8.6461e-14 0 0 2.6372e-13 4.35965e-13 3.03016e-13 5.72492e-14 0 0 2.49565e-13 4.24016e-13 2.91359e-13 9.58714e-14 0 0 2.74775e-13 3.01852e-13 4.14891e-13 1.17887e-13 0 0 2.45527e-13 3.45455e-13 4.00389e-13 1.40987e-13 0 0 2.98006e-13 3.77557e-13 2.8733e-13 1.46304e-13 0 0 3.31493e-13 4.41238e-13 1.1648e-13 3.28228e-13 0 0 3.2573e-13 4.67152e-13 1.65318e-13 4.4958e-13 0 0 3.42326e-13 3.83123e-13 3.67678e-13 3.42573e-13 0 0 3.02826e-13 4.00526e-13 4.04926e-13 3.18056e-13 0 0 2.67851e-13 4.02839e-13 4.5766e-13 3.32306e-13 0 0 2.55949e-13 3.97772e-13 5.11768e-13 3.22403e-13 0 0 2.81417e-13 3.91731e-13 5.00082e-13 3.74514e-13 0 0 2.28101e-13 5.04738e-13 3.76739e-13 5.08141e-13 0 0 2.76704e-13 4.49353e-13 4.87247e-13 4.17161e-13 0 0 3.03362e-13 4.24429e-13 5.22894e-13 4.01869e-13 0 0 3.19484e-13 4.09038e-13 5.53709e-13 4.01843e-13 0 0 3.24624e-13 4.48695e-13 5.50954e-13 4.20377e-13 0 0 3.35752e-13 4.86826e-13 5.57743e-13 4.09994e-13 0 0 3.1939e-13 5.79636e-13 4.90662e-13 4.54161e-13 0 0 3.56236e-13 6.33534e-13 4.48731e-13 5.16266e-13 0 0 5.00677e-13 4.73505e-13 6.92122e-13 2.7505e-13 0 0 4.54487e-13 6.15964e-13 5.20905e-13 3.82566e-13 0 0 5.54031e-13 5.29133e-13 5.40669e-13 4.26843e-13 0 0 5.41727e-13 6.09497e-13 4.94525e-13 3.28032e-13 0 0 5.19194e-13 7.45249e-13 3.46439e-13 3.42258e-13 0 0 6.28628e-13 6.54338e-13 4.25217e-13 2.81171e-13 0 0 6.40988e-13 6.52383e-13 4.73129e-13 1.66253e-13 0 0 7.07166e-13 5.72231e-13 4.51514e-13 2.56198e-13 0 0 6.96661e-13 6.04158e-13 4.13551e-13 2.9124e-13 0 0 5.60482e-13 7.71934e-13 4.35175e-13 1.98394e-13 0 0 3.78458e-13 9.8744e-13 3.6246e-13 1.43161e-13 0 0 4.0609e-13 8.62073e-13 5.59511e-13 -2.95329e-14 0 0 5.48489e-13 7.14368e-13 5.7838e-13 1.90035e-13 0 0 5.6835e-13 8.22729e-13 4.10192e-13 3.59276e-13 0 0 6.36187e-13 7.0078e-13 6.31787e-13 1.20847e-13 0 0 6.62894e-13 7.30309e-13 4.88574e-13 3.41159e-13 0 0 5.16872e-13 8.41632e-13 4.52724e-13 4.36305e-13 0 0 5.48052e-13 7.00889e-13 7.09775e-13 2.4013e-13 0 0 6.01654e-13 7.60897e-13 5.62012e-13 3.05408e-13 0 0 6.49415e-13 7.52907e-13 5.82939e-13 2.10944e-13 0 0 8.76804e-13 4.16015e-13 7.94041e-13 9.10239e-14 0 0 6.97617e-13 6.78131e-13 3.01998e-13 5.34284e-13 0 0 5.64901e-13 8.03812e-13 2.13259e-13 6.52918e-13 0 0 5.62972e-13 6.79935e-13 4.50717e-13 4.39273e-13 0 0 6.30602e-13 5.989e-13 5.49863e-13 2.946e-13 0 0 8.43036e-13 3.66474e-13 6.12988e-13 2.68551e-13 0 0 6.53564e-13 5.51393e-13 3.63126e-13 4.13022e-13 0 0 4.55909e-13 6.28225e-13 4.77652e-13 2.35208e-13 0 0 3.70003e-13 7.14741e-13 3.17636e-13 3.89416e-13 0 0 5.06014e-13 4.57597e-13 5.76736e-13 2.32482e-13 0 0 6.40633e-13 1.63672e-13 1.00874e-12 -5.50272e-14 0 0 1.98691e-13 7.71338e-13 5.01819e-13 2.05073e-13 0 0 -9.92429e-14 9.97241e-13 5.00082e-13 6.23552e-14 0 0 4.65558e-14 6.96237e-13 7.4621e-13 -2.91299e-14 0 0 4.52268e-14 8.81182e-13 3.88109e-13 2.84875e-13 0 0 -1.50814e-14 1.08205e-12 1.81935e-13 4.47322e-13 0 0 -5.31127e-14 1.17147e-12 1.01965e-13 4.8972e-13 0 0 9.78528e-14 8.90233e-13 4.53043e-13 2.24121e-13 0 0 2.73552e-13 4.33489e-13 8.84789e-13 4.68736e-14 0 0 3.87337e-14 5.65509e-13 8.57038e-13 9.72782e-14 0 0 -1.02462e-13 6.46221e-13 1.01689e-12 -1.44143e-13 0 0 1.17105e-13 3.7542e-13 1.09389e-12 -9.31235e-14 0 0 4.45093e-13 -1.33182e-13 1.4861e-12 -2.30358e-13 0 0 6.12801e-13 -4.86881e-13 1.99742e-12 -6.18551e-13 0
				</DataArray>
				<DataArray Name="VitesseY" type="Float32" format="ascii">