<?xml version="1.0"?>
<VTKFile type="PolyData">
	<PolyData>
		<Piece NumberOfPoints="1206" NumberOfPolys="1000">
			<Points>
				<DataArray type="Float32" NumberOfComponents="3" format="ascii">
 0 0 0 0.02 0 0 0.04 0 0 0.06 0 0 0.08 0 0 0.1 0 0 0 0.005 0 0.02 0.005 0 0.04 0.005 0 0.06 0.005 0 0.08 0.005 0 0.1 0.005 0 0 0.01 0 0.02 0.01 0 0.04 0.01 0 0.06 0.01 0 0.08 0.01 0 0.1 0.01 0 0 0.015 0 0.02 0.015 0 0.04 0.015 0 0.06 0.015 0 0.08 0.015 0 0.1 0.015 0 0 0.02 0 0.02 0.02 0 0.04 0.02 0 0.06 0.02 0 0.08 0.02 0 0.1 0.02 0 0 0.025 0 0.02 0.025 0 0.04 0.025 0 0.06 0.025 0 0.08 0.025 0 0.1 0.025 0 0 0.03 0 0.02 0.03 0 0.04 0.03 0 0.06 0.03 0 0.08 0.03 0 0.1 0.03 0 0 0.035 0 0.02 0.035 0 0.04 0.035 0 0.06 0.035 0 0.08 0.035 0 0.1 0.035 0 0 0.04 0 0.02 0.04 0 0.04 0.04 0 0.06 0.04 0 0.08 0.04 0 0.1 0.04 0 0 0.045 0 0.02 0.045 0 0.04 0.045 0 0.06 0.045 0 0.08 0.045 0 0.1 0.045 0 0 0.05 0 0.02 0.05 0 0.04 0.05 0 0.06 0.05 0 0.08 0.05 0 0.1 0.05 0 0 0.055 0 0.02 0.055 0 0.04 0.055 0 0.06 0.055 0 0.08 0.055 0 0.1 0.055 0 0 0.06 0 0.02 0.06 0 0.04 0.06 0 0.06 0.06 0 0.08 0.06 0 0.1 0.06 0 0 0.065 0 0.02 0.065 0 0.04 0.065 0 0.06 0.065 0 0.08 0.065 0 0.1 0.065 0 0 0.07 0 0.02 0.07 0 0.04 0.07 0 0.06 0.07 0 0.08 0.07 0 0.1 0.07 0 0 0.075 0 0.02 0.075 0 0.04 0.075 0 0.06 0.075 0 0.08 0.075 0 0.1 0.075 0 0 0.08 0 0.02 0.08 0 0.04 0.08 0 0.06 0.08 0 0.08 0.08 0 0.1 0.08 0 0 0.085 0 0.02 0.085 0 0.04 0.085 0 0.06 0.085 0 0.08 0.085 0 0.1 0.085 0 0 0.09 0 0.02 0.09 0 0.04 0.09 0 0.06 0.09 0 0.08 0.09 0 0.1 0.09 0 0 0.095 0 0.02 0.095 0 0.04 0.095 0 0.06 0.095 0 0.08 0.095 0 0.1 0.095 0 0 0.1 0 0.02 0.1 0 0.04 0.1 0 0.06 0.1 0 0.08 0.1 0 0.1 0.1 0 0 0.105 0 0.02 0.105 0 0.04 0.105 0 0.06 0.105 0 0.08 0.105 0 0.1 0.105 0 0 0.11 0 0.02 0.11 0 0.04 0.11 0 0.06 0.11 0 0.08 0.11 0 0.1 0.11 0 0 0.115 0 0.02 0.115 0 0.04 0.115 0 0.06 0.115 0 0.08 0.115 0 0.1 0.115 0 0 0.12 0 0.02 0.12 0 0.04 0.12 0 0.06 0.12 0 0.08 0.12 0 0.1 0.12 0 0 0.125 0 0.02 0.125 0 0.04 0.125 0 0.06 0.125 0 0.08 0.125 0 0.1 0.125 0 0 0.13 0 0.02 0.13 0 0.04 0.13 0 0.06 0.13 0 0.08 0.13 0 0.1 0.13 0 0 0.135 0 0.02 0.135 0 0.04 0.135 0 0.06 0.135 0 0.08 0.135 0 0.1 0.135 0 0 0.14 0 0.02 0.14 0 0.04 0.14 0 0.06 0.14 0 0.08 0.14 0 0.1 0.14 0 0 0.145 0 0.02 0.145 0 0.04 0.145 0 0.06 0.145 0 0.08 0.145 0 0.1 0.145 0 0 0.15 0 0.02 0.15 0 0.04 0.15 0 0.06 0.15 0 0.08 0.15 0 0.1 0.15 0 0 0.155 0 0.02 0.155 0 0.04 0.155 0 0.06 0.155 0 0.08 0.155 0 0.1 0.155 0 0 0.16 0 0.02 0.16 0 0.04 0.16 0 0.06 0.16 0 0.08 0.16 0 0.1 0.16 0 0 0.165 0 0.02 0.165 0 0.04 0.165 0 0.06 0.165 0 0.08 0.165 0 0.1 0.165 0 0 0.17 0 0.02 0.17 0 0.04 0.17 0 0.06 0.17 0 0.08 0.17 0 0.1 0.17 0 0 0.175 0 0.02 0.175 0 0.04 0.175 0 0.06 0.175 0 0.08 0.175 0 0.1 0.175 0 0 0.18 0 0.02 0.18 0 0.04 0.18 0 0.06 0.18 0 0.08 0.18 0 0.1 0.18 0 0 0.185 0 0.02 0.185 0 0.04 0.185 0 0.06 0.185 0 0.08 0.185 0 0.1 0.185 0 0 0.19 0 0.02 0.19 0 0.04 0.19 0 0.06 0.19 0 0.08 0.19 0 0.1 0.19 0 0 0.195 0 0.02 0.195 0 0.04 0.195 0 0.06 0.195 0 0.08 0.195 0 0.1 0.195 0 0 0.2 0 0.02 0.2 0 0.04 0.2 0 0.06 0.2 0 0.08 0.2 0 0.1 0.2 0 0 0.205 0 0.02 0.205 0 0.04 0.205 0 0.06 0.205 0 0.08 0.205 0 0.1 0.205 0 0 0.21 0 0.02 0.21 0 0.04 0.21 0 0.06 0.21 0 0.08 0.21 0 0.1 0.21 0 0 0.215 0 0.02 0.215 0 0.04 0.215 0 0.06 0.215 0 0.08 0.215 0 0.1 0.215 0 0 0.22 0 0.02 0.22 0 0.04 0.22 0 0.06 0.22 0 0.08 0.22 0 0.1 0.22 0 0 0.225 0 0.02 0.225 0 0.04 0.225 0 0.06 0.225 0 0.08 0.225 0 0.1 0.225 0 0 0.23 0 0.02 0.23 0 0.04 0.23 0 0.06 0.23 0 0.08 0.23 0 0.1 0.23 0 0 0.235 0 0.02 0.235 0 0.04 0.235 0 0.06 0.235 0 0.08 0.235 0 0.1 0.235 0 0 0.24 0 0.02 0.24 0 0.04 0.24 0 0.06 0.24 0 0.08 0.24 0 0.1 0.24 0 0 0.245 0 0.02 0.245 0 0.04 0.245 0 0.06 0.245 0 0.08 0.245 0 0.1 0.245 0 0 0.25 0 0.02 0.25 0 0.04 0.25 0 0.06 0.25 0 0.08 0.25 0 0.1 0.25 0 0 0.255 0 0.02 0.255 0 0.04 0.255 0 0.06 0.255 0 0.08 0.255 0 0.1 0.255 0 0 0.26 0 0.02 0.26 0 0.04 0.26 0 0.06 0.26 0 0.08 0.26 0 0.1 0.26 0 0 0.265 0 0.02 0.265 0 0.04 0.265 0 0.06 0.265 0 0.08 0.265 0 0.1 0.265 0 0 0.27 0 0.02 0.27 0 0.04 0.27 0 0.06 0.27 0 0.08 0.27 0 0.1 0.27 0 0 0.275 0 0.02 0.275 0 0.04 0.275 0 0.06 0.275 0 0.08 0.275 0 0.1 0.275 0 0 0.28 0 0.02 0.28 0 0.04 0.28 0 0.06 0.28 0 0.08 0.28 0 0.1 0.28 0 0 0.285 0 0.02 0.285 0 0.04 0.285 0 0.06 0.285 0 0.08 0.285 0 0.1 0.285 0 0 0.29 0 0.02 0.29 0 0.04 0.29 0 0.06 0.29 0 0.08 0.29 0 0.1 0.29 0 0 0.295 0 0.02 0.295 0 0.04 0.295 0 0.06 0.295 0 0.08 0.295 0 0.1 0.295 0 0 0.3 0 0.02 0.3 0 0.04 0.3 0 0.06 0.3 0 0.08 0.3 0 0.1 0.3 0 0 0.305 0 0.02 0.305 0 0.04 0.305 0 0.06 0.305 0 0.08 0.305 0 0.1 0.305 0 0 0.31 0 0.02 0.31 0 0.04 0.31 0 0.06 0.31 0 0.08 0.31 0 0.1 0.31 0 0 0.315 0 0.02 0.315 0 0.04 0.315 0 0.06 0.315 0 0.08 0.315 0 0.1 0.315 0 0 0.32 0 0.02 0.32 0 0.04 0.32 0 0.06 0.32 0 0.08 0.32 0 0.1 0.32 0 0 0.325 0 0.02 0.325 0 0.04 0.325 0 0.06 0.325 0 0.08 0.325 0 0.1 0.325 0 0 0.33 0 0.02 0.33 0 0.04 0.33 0 0.06 0.33 0 0.08 0.33 0 0.1 0.33 0 0 0.335 0 0.02 0.335 0 0.04 0.335 0 0.06 0.335 0 0.08 0.335 0 0.1 0.335 0 0 0.34 0 0.02 0.34 0 0.04 0.34 0 0.06 0.34 0 0.08 0.34 0 0.1 0.34 0 0 0.345 0 0.02 0.345 0 0.04 0.345 0 0.06 0.345 0 0.08 0.345 0 0.1 0.345 0 0 0.35 0 0.02 0.35 0 0.04 0.35 0 0.06 0.35 0 0.08 0.35 0 0.1 0.35 0 0 0.355 0 0.02 0.355 0 0.04 0.355 0 0.06 0.355 0 0.08 0.355 0 0.1 0.355 0 0 0.36 0 0.02 0.36 0 0.04 0.36 0 0.06 0.36 0 0.08 0.36 0 0.1 0.36 0 0 0.365 0 0.02 0.365 0 0.04 0.365 0 0.06 0.365 0 0.08 0.365 0 0.1 0.365 0 0 0.37 0 0.02 0.37 0 0.04 0.37 0 0.06 0.37 0 0.08 0.37 0 0.1 0.37 0 0 0.375 0 0.02 0.375 0 0.04 0.375 0 0.06 0.375 0 0.08 0.375 0 0.1 0.375 0 0 0.38 0 0.02 0.38 0 0.04 0.38 0 0.06 0.38 0 0.08 0.38 0 0.1 0.38 0 0 0.385 0 0.02 0.385 0 0.04 0.385 0 0.06 0.385 0 0.08 0.385 0 0.1 0.385 0 0 0.39 0 0.02 0.39 0 0.04 0.39 0 0.06 0.39 0 0.08 0.39 0 0.1 0.39 0 0 0.395 0 0.02 0.395 0 0.04 0.395 0 0.06 0.395 0 0.08 0.395 0 0.1 0.395 0 0 0.4 0 0.02 0.4 0 0.04 0.4 0 0.06 0.4 0 0.08 0.4 0 0.1 0.4 0 0 0.405 0 0.02 0.405 0 0.04 0.405 0 0.06 0.405 0 0.08 0.405 0 0.1 0.405 0 0 0.41 0 0.02 0.41 0 0.04 0.41 0 0.06 0.41 0 0.08 0.41 0 0.1 0.41 0 0 0.415 0 0.02 0.415 0 0.04 0.415 0 0.06 0.415 0 0.08 0.415 0 0.1 0.415 0 0 0.42 0 0.02 0.42 0 0.04 0.42 0 0.06 0.42 0 0.08 0.42 0 0.1 0.42 0 0 0.425 0 0.02 0.425 0 0.04 0.425 0 0.06 0.425 0 0.08 0.425 0 0.1 0.425 0 0 0.43 0 0.02 0.43 0 0.04 0.43 0 0.06 0.43 0 0.08 0.43 0 0.1 0.43 0 0 0.435 0 0.02 0.435 0 0.04 0.435 0 0.06 0.435 0 0.08 0.435 0 0.1 0.435 0 0 0.44 0 0.02 0.44 0 0.04 0.44 0 0.06 0.44 0 0.08 0.44 0 0.1 0.44 0 0 0.445 0 0.02 0.445 0 0.04 0.445 0 0.06 0.445 0 0.08 0.445 0 0.1 0.445 0 0 0.45 0 0.02 0.45 0 0.04 0.45 0 0.06 0.45 0 0.08 0.45 0 0.1 0.45 0 0 0.455 0 0.02 0.455 0 0.04 0.455 0 0.06 0.455 0 0.08 0.455 0 0.1 0.455 0 0 0.46 0 0.02 0.46 0 0.04 0.46 0 0.06 0.46 0 0.08 0.46 0 0.1 0.46 0 0 0.465 0 0.02 0.465 0 0.04 0.465 0 0.06 0.465 0 0.08 0.465 0 0.1 0.465 0 0 0.47 0 0.02 0.47 0 0.04 0.47 0 0.06 0.47 0 0.08 0.47 0 0.1 0.47 0 0 0.475 0 0.02 0.475 0 0.04 0.475 0 0.06 0.475 0 0.08 0.475 0 0.1 0.475 0 0 0.48 0 0.02 0.48 0 0.04 0.48 0 0.06 0.48 0 0.08 0.48 0 0.1 0.48 0 0 0.485 0 0.02 0.485 0 0.04 0.485 0 0.06 0.485 0 0.08 0.485 0 0.1 0.485 0 0 0.49 0 0.02 0.49 0 0.04 0.49 0 0.06 0.49 0 0.08 0.49 0 0.1 0.49 0 0 0.495 0 0.02 0.495 0 0.04 0.495 0 0.06 0.495 0 0.08 0.495 0 0.1 0.495 0 0 0.5 0 0.02 0.5 0 0.04 0.5 0 0.06 0.5 0 0.08 0.5 0 0.1 0.5 0 0 0.505 0 0.02 0.505 0 0.04 0.505 0 0.06 0.505 0 0.08 0.505 0 0.1 0.505 0 0 0.51 0 0.02 0.51 0 0.04 0.51 0 0.06 0.51 0 0.08 0.51 0 0.1 0.51 0 0 0.515 0 0.02 0.515 0 0.04 0.515 0 0.06 0.515 0 0.08 0.515 0 0.1 0.515 0 0 0.52 0 0.02 0.52 0 0.04 0.52 0 0.06 0.52 0 0.08 0.52 0 0.1 0.52 0 0 0.525 0 0.02 0.525 0 0.04 0.525 0 0.06 0.525 0 0.08 0.525 0 0.1 0.525 0 0 0.53 0 0.02 0.53 0 0.04 0.53 0 0.06 0.53 0 0.08 0.53 0 0.1 0.53 0 0 0.535 0 0.02 0.535 0 0.04 0.535 0 0.06 0.535 0 0.08 0.535 0 0.1 0.535 0 0 0.54 0 0.02 0.54 0 0.04 0.54 0 0.06 0.54 0 0.08 0.54 0 0.1 0.54 0 0 0.545 0 0.02 0.545 0 0.04 0.545 0 0.06 0.545 0 0.08 0.545 0 0.1 0.545 0 0 0.55 0 0.02 0.55 0 0.04 0.55 0 0.06 0.55 0 0.08 0.55 0 0.1 0.55 0 0 0.555 0 0.02 0.555 0 0.04 0.555 0 0.06 0.555 0 0.08 0.555 0 0.1 0.555 0 0 0.56 0 0.02 0.56 0 0.04 0.56 0 0.06 0.56 0 0.08 0.56 0 0.1 0.56 0 0 0.565 0 0.02 0.565 0 0.04 0.565 0 0.06 0.565 0 0.08 0.565 0 0.1 0.565 0 0 0.57 0 0.02 0.57 0 0.04 0.57 0 0.06 0.57 0 0.08 0.57 0 0.1 0.57 0 0 0.575 0 0.02 0.575 0 0.04 0.575 0 0.06 0.575 0 0.08 0.575 0 0.1 0.575 0 0 0.58 0 0.02 0.58 0 0.04 0.58 0 0.06 0.58 0 0.08 0.58 0 0.1 0.58 0 0 0.585 0 0.02 0.585 0 0.04 0.585 0 0.06 0.585 0 0.08 0.585 0 0.1 0.585 0 0 0.59 0 0.02 0.59 0 0.04 0.59 0 0.06 0.59 0 0.08 0.59 0 0.1 0.59 0 0 0.595 0 0.02 0.595 0 0.04 0.595 0 0.06 0.595 0 0.08 0.595 0 0.1 0.595 0 0 0.6 0 0.02 0.6 0 0.04 0.6 0 0.06 0.6 0 0.08 0.6 0 0.1 0.6 0 0 0.605 0 0.02 0.605 0 0.04 0.605 0 0.06 0.605 0 0.08 0.605 0 0.1 0.605 0 0 0.61 0 0.02 0.61 0 0.04 0.61 0 0.06 0.61 0 0.08 0.61 0 0.1 0.61 0 0 0.615 0 0.02 0.615 0 0.04 0.615 0 0.06 0.615 0 0.08 0.615 0 0.1 0.615 0 0 0.62 0 0.02 0.62 0 0.04 0.62 0 0.06 0.62 0 0.08 0.62 0 0.1 0.62 0 0 0.625 0 0.02 0.625 0 0.04 0.625 0 0.06 0.625 0 0.08 0.625 0 0.1 0.625 0 0 0.63 0 0.02 0.63 0 0.04 0.63 0 0.06 0.63 0 0.08 0.63 0 0.1 0.63 0 0 0.635 0 0.02 0.635 0 0.04 0.635 0 0.06 0.635 0 0.08 0.635 0 0.1 0.635 0 0 0.64 0 0.02 0.64 0 0.04 0.64 0 0.06 0.64 0 0.08 0.64 0 0.1 0.64 0 0 0.645 0 0.02 0.645 0 0.04 0.645 0 0.06 0.645 0 0.08 0.645 0 0.1 0.645 0 0 0.65 0 0.02 0.65 0 0.04 0.65 0 0.06 0.65 0 0.08 0.65 0 0.1 0.65 0 0 0.655 0 0.02 0.655 0 0.04 0.655 0 0.06 0.655 0 0.08 0.655 0 0.1 0.655 0 0 0.66 0 0.02 0.66 0 0.04 0.66 0 0.06 0.66 0 0.08 0.66 0 0.1 0.66 0 0 0.665 0 0.02 0.665 0 0.04 0.665 0 0.06 0.665 0 0.08 0.665 0 0.1 0.665 0 0 0.67 0 0.02 0.67 0 0.04 0.67 0 0.06 0.67 0 0.08 0.67 0 0.1 0.67 0 0 0.675 0 0.02 0.675 0 0.04 0.675 0 0.06 0.675 0 0.08 0.675 0 0.1 0.675 0 0 0.68 0 0.02 0.68 0 0.04 0.68 0 0.06 0.68 0 0.08 0.68 0 0.1 0.68 0 0 0.685 0 0.02 0.685 0 0.04 0.685 0 0.06 0.685 0 0.08 0.685 0 0.1 0.685 0 0 0.69 0 0.02 0.69 0 0.04 0.69 0 0.06 0.69 0 0.08 0.69 0 0.1 
[...]
			<PointData Scalars="VitesseX">
				<DataArray Name="VitesseX" type="Float32" format="ascii">
 0 4.17174e-14 6.59571e-14 5.85683e-14 2.89167e-14 0 0 3.95574e-14 6.75006e-14 5.65643e-14 3.05316e-14 0 0 4.70538e-14 5.71005e-14 6.29357e-14 2.62886e-14 0 0 4.44152e-14 6.77847e-14 4.61233e-14 3.02426e-14 0 0 4.78769e-14 6.86739e-14 4.04039e-14 2.35561e-14 0 0 7.51069e-14 2.10077e-14 8.20842e-14 -8.52144e-15 0 0 6.85031e-14 2.75083e-14 7.31713e-14 -1.62626e-14 0 0 4.14448e-14 7.28715e-14 1.93749e-14 1.14805e-14 0 0 5.37053e-14 4.66303e-14 2.44023e-14 3.39046e-14 0 0 7.18417e-14 1.4992e-14 3.05352e-14 6.12536e-14 0 0 4.28946e-14 4.71183e-14 1.13208e-14 7.12514e-14 0 0 5.97448e-14 3.23097e-15 8.42055e-14 3.29839e-15 0 0 7.34713e-14 -1.66568e-14 1.07436e-13 -3.4118e-14 0 0 3.63072e-14 3.94196e-14 5.97522e-14 -2.51622e-14 0 0 2.01445e-14 7.08032e-14 2.33261e-14 -9.72347e-16 0 0 3.35148e-14 5.74516e-14 2.07271e-14 2.19397e-14 0 0 4.67911e-14 1.69279e-14 7.47242e-14 1.30331e-14 0 0 4.84962e-14 2.65618e-14 7.45906e-14 3.09016e-14 0 0 2.47113e-14 1.02666e-13 -1.17158e-14 1.01868e-13 0 0 1.18095e-14 1.21226e-13 -1.05115e-14 1.01862e-13 0 0 6.34074e-14 3.44005e-14 9.52153e-14 2.2272e-14 0 0 9.75837e-14 2.01999e-14 4.62567e-14 6.53689e-14 0 0 9.85525e-14 8.27196e-14 -8.06571e-14 1.42876e-13 0 0 8.27266e-14 1.35771e-13 -1.29695e-13 1.54279e-13 0 0 8.82141e-14 1.00565e-13 -4.64622e-14 7.96797e-14 0 0 4.05341e-14 1.44787e-13 -1.3054e-14 1.34221e-14 0 0 6.23933e-14 8.51302e-14 9.67664e-14 -5.20223e-14 0 0 7.3429e-14 1.04093e-13 3.08282e-14 2.13472e-14 0 0 3.83571e-14 1.50232e-13 -3.04008e-14 7.74906e-14 0 0 9.35413e-14 -1.01262e-14 1.82867e-13 -2.65098e-14 0 0 6.43754e-14 2.64009e-14 1.15685e-13 5.36439e-14 0 0 3.60552e-14 8.81414e-14 1.47324e-14 1.26118e-13 0 0 6.00557e-14 4.45889e-14 8.42965e-14 8.28747e-14 0 0 5.92412e-14 4.83494e-14 1.24966e-13 7.84292e-14 0 0 6.24077e-14 6.50128e-14 1.18221e-13 1.49055e-13 0 0 9.80458e-14 7.04425e-15 1.95515e-13 1.2074e-13 0 0 4.39551e-14 1.2101e-13 1.17104e-13 1.28136e-13 0 0 4.70773e-14 1.47675e-13 4.25937e-14 2.33003e-13 0 0 1.63197e-13 -2.00965e-14 1.3063e-13 2.32967e-13 0 0 1.56547e-13 7.51284e-15 6.94215e-14 2.58544e-13 0 0 1.15063e-13 4.79944e-14 -1.52078e-14 3.0994e-13 0 0 8.77064e-14 3.01825e-14 -1.97075e-14 2.73561e-13 0 0 7.4968e-14 -2.80252e-14 4.78431e-14 1.6821e-13 0 0 1.59163e-14 -2.36329e-14 9.67772e-14 7.19922e-14 0 0 -1.1145e-13 1.38943e-13 -2.22914e-15 6.13627e-14 0 0 -1.24466e-13 1.3672e-13 2.13214e-14 -5.88708e-15 0 0 -5.17645e-14 1.19512e-14 1.90862e-13 -1.47243e-13 0 0 -1.0128e-13 2.03245e-13 4.63927e-14 -6.08964e-14 0 0 -1.23997e-13 3.76432e-13 -3.44188e-14 -1.2993e-14 0 0 -1.94473e-14 3.23286e-13 9.4135e-14 -7.40413e-14 0 0 4.32609e-14 2.77364e-13 1.51167e-13 -8.3128e-14 0 0 -1.43388e-14 3.21209e-13 1.22441e-13 -6.78887e-14 0 0 1.1251e-14 2.60241e-13 1.38037e-13 -6.27351e-14 0 0 3.95701e-15 2.77989e-13 1.66966e-13 -7.92558e-14 0 0 -1.2401e-13 4.8531e-13 1.35546e-14 5.52582e-14 0 0 -3.32587e-14 3.71462e-13 8.0974e-14 8.3769e-14 0 0 6.24008e-14 2.16859e-13 1.98436e-13 6.14065e-14 0 0 5.53344e-14 1.60613e-13 2.18843e-13 1.51792e-13 0 0 -2.07915e-14 2.45141e-13 1.2696e-13 3.11021e-13 0 0 -1.60632e-14 2.19147e-13 1.27196e-13 3.88244e-13 0 0 -2.27066e-14 1.60544e-13 2.30086e-13 3.52508e-13 0 0 -1.14479e-13 1.36382e-13 3.17515e-13 3.69196e-13 0 0 -9.442e-14 -8.84646e-14 4.86064e-13 3.64625e-13 0 0 -1.83109e-13 -8.37105e-14 5.56126e-13 1.83017e-13 0 0 -3.65844e-13 1.54683e-13 4.71976e-13 1.98065e-14 0 0 -3.82444e-13 3.96829e-13 3.0898e-13 -1.41022e-14 0 0 -2.17236e-13 4.97778e-13 2.03178e-13 -1.90178e-14 0 0 3.24933e-14 3.21898e-13 2.33789e-13 2.52254e-15 0 0 2.9751e-13 -5.87493e-15 3.75394e-13 -3.98836e-15 0 0 3.60252e-13 -1.62496e-13 4.28932e-13 2.79053e-14 0 0 1.76135e-13 -3.52162e-15 3.3705e-13 9.54762e-14 0 0 1.42375e-14 1.93359e-13 1.93846e-13 1.08283e-13 0 0 7.54941e-14 2.71533e-13 1.12922e-14 1.34512e-13 0 0 1.08992e-13 4.05262e-13 -2.34345e-13 1.59744e-13 0 0 1.02953e-13 3.95517e-13 -1.30324e-13 -6.3094e-14 0 0 1.85557e-13 1.30781e-13 2.82618e-13 -4.61872e-13 0 0 2.45563e-13 -3.09337e-14 3.16133e-13 -3.20824e-13 0 0 1.74713e-13 1.32682e-13 -3.1259e-14 2.50301e-13 0 0 1.42282e-13 1.83001e-13 -3.26457e-13 6.62923e-13 0 0 2.13463e-13 9.46049e-15 -1.9914e-13 6.11733e-13 0 0 2.41053e-13 -2.89569e-13 7.00264e-14 4.43473e-13 0 0 1.38166e-13 -2.15592e-13 5.61296e-14 3.22913e-13 0 0 -2.83682e-14 -5.95696e-14 5.49053e-15 2.46651e-13 0 0 -1.80079e-13 5.89863e-14 2.76983e-14 4.87204e-14 0 0 -3.1386e-13 1.06629e-13 1.71889e-13 -2.61958e-13 0 0 -3.54063e-13 -7.41592e-15 3.12041e-13 -3.40308e-13 0 0 -3.46451e-13 -6.65285e-14 2.37614e-13 -2.20929e-13 0 0 -3.19053e-13 -1.49463e-13 7.67289e-14 5.3763e-14 0 0 -2.17276e-13 -2.96965e-13 -6.57169e-14 3.74619e-13 0 0 -1.71251e-13 -3.47788e-13 -2.19981e-13 6.81982e-13 0 0 -1.70181e-13 -3.17008e-13 -4.46095e-13 7.53478e-13 0 0 -1.93212e-13 -2.14365e-13 -5.05669e-13 6.90078e-13 0 0 -2.26536e-13 -1.53453e-13 -4.80921e-13 5.05329e-13 0 0 -2.2456e-13 -2.11698e-13 -3.8821e-13 2.79342e-13 0 0 -1.99047e-13 -3.91751e-13 -2.10994e-13 1.0446e-13 0 0 -2.05942e-13 -4.63168e-13 -4.21253e-14 -6.85933e-14 0 0 -2.74854e-13 -4.64649e-13 3.94615e-14 -1.3537e-13 0 0 -4.39214e-13 -4.23732e-13 7.04061e-14 -1.4646e-13 0 0 -7.58271e-13 -2.33854e-13 7.94921e-14 -2.12442e-13 0 0 -9.77567e-13 2.02833e-14 2.46404e-14 -2.12452e-13 0 0 -9.73358e-13 5.81792e-14 -4.36012e-14 -1.44922e-13 0 0 -7.97686e-13 -7.83376e-14 7.80915e-15 -5.42713e-14 0 0 -4.84425e-13 -3.94646e-13 1.64337e-13 -4.59319e-14 0 0 -4.08254e-13 -4.77097e-13 2.636e-13 -7.54506e-14 0 0 -3.77236e-13 -5.09636e-13 3.48435e-13 -1.65548e-13 0 0 -2.55508e-13 -5.71494e-13 3.61636e-13 -2.38954e-13 0 0 -6.9325e-14 -5.68937e-13 2.57998e-13 -2.10615e-13 0 0 -9.54278e-15 -5.01127e-13 8.28075e-14 -1.01118e-13 0 0 -2.52292e-14 -3.31336e-13 -1.37918e-14 -4.85828e-14 0 0 -3.01556e-14 -2.00424e-13 -7.62526e-14 -1.00502e-14 0 0 -2.76382e-15 -1.38917e-13 -6.71266e-14 -2.04711e-14 0 0 2.0458e-14 -5.74474e-14 -3.76504e-14 -5.24698e-14 0 0 5.45414e-14 -2.23127e-14 -2.99292e-14 1.07368e-14 0 0 1.58127e-13 -5.55258e-14 1.0295e-14 7.0421e-14 0 0 2.67021e-13 -1.01547e-13 4.15303e-14 1.61937e-13 0 0 3.08217e-13 -9.95225e-14 -9.00881e-15 3.2793e-13 0 0 3.17977e-13 -7.56316e-14 -5.47056e-14 4.57895e-13 0 0 3.11443e-13 -4.49573e-14 -4.64308e-14 5.0958e-13 0 0 3.0916e-13 -4.64492e-14 -4.33677e-15 5.49577e-13 0 0 2.98811e-13 -2.42214e-14 7.57933e-14 5.00774e-13 0 0 2.7737e-13 2.85802e-14 1.93435e-13 3.80138e-13 0 0 2.49425e-13 1.37672e-13 2.37691e-13 2.72227e-13 0 0 2.57244e-13 2.01438e-13 2.2288e-13 2.48611e-13 0 0 3.0501e-13 1.90172e-13 2.7936e-13 2.23635e-13 0 0 3.18336e-13 2.43335e-13 2.71856e-13 2.26491e-13 0 0 3.43404e-13 3.0285e-13 2.26769e-13 2.38094e-13 0 0 3.8716e-13 2.94814e-13 2.45847e-13 2.04647e-13 0 0 3.97864e-13 2.89653e-13 3.4386e-13 7.86373e-14 0 0 3.62482e-13 3.19951e-13 4.25116e-13 -1.16247e-14 0 0 2.87859e-13 4.07135e-13 3.56436e-13 3.38887e-14 0 0 2.12368e-13 4.51858e-13 3.53177e-13 5.50383e-14 0 0 1.71123e-13 4.69051e-13 3.89712e-13 3.19662e-14 0 0 1.80799e-13 4.47255e-13 4.04392e-13 3.80375e-14 0 0 2.30214e-13 3.90663e-13 4.0024e-13 4.45455e-14 0 0 3.0416e-13 3.60296e-13 3.48103e-13 7.1195e-14 0 0 3.27437e-13 3.72269e-13 2.41125e-13 1.48018e-13 0 0 3.13264e-13 3.9286e-13 2.33154e-13 1.2571e-13 0 0 2.98808e-13 3.834e-13 2.94611e-13 7.18355e-14 0 0 2.91608e-13 3.70221e-13 3.184e-13 1.24919e-13 0 0 2.81392e-13 3.27145e-13 3.62142e-13 1.65111e-13 0 0 2.67875e-13 3.16361e-13 3.61141e-13 2.35293e-13 0 0 2.40256e-13 3.11036e-13 3.49176e-13 3.05258e-13 0 0 2.12685e-13 2.87742e-13 3.6698e-13 2.79498e-13 0 0 1.70588e-13 2.74475e-13 3.96714e-13 2.44879e-13 0 0 1.64093e-13 2.37493e-13 4.14365e-13 1.97987e-13 0 0 1.54215e-13 2.29848e-13 3.75906e-13 1.66627e-13 0 0 1.25595e-13 2.27385e-13 2.97932e-13 1.91916e-13 0 0 1.26668e-13 2.1135e-13 2.2222e-13 1.55788e-13 0 0 1.32802e-13 2.18848e-13 1.24888e-13 -3.19897e-14 0 0 1.17456e-13 2.32123e-13 -1.18862e-14 -1.31616e-13 0 0 9.29035e-14 2.71449e-13 -6.88519e-14 -2.63438e-13 0 0 9.72835e-14 2.39549e-13 -1.58962e-14 -1.91888e-13 0 0 8.71828e-14 1.57975e-13 1.24645e-14 2.85913e-13 0 0 9.84657e-14 1.17587e-13 6.5987e-14 4.08004e-13 0 0 1.15951e-13 4.41762e-14 2.63327e-13 2.34769e-13 0 0 4.30977e-14 1.63526e-13 1.05952e-13 3.49443e-13 0 0 3.80164e-14 2.52057e-13 -1.23009e-13 5.31744e-13 0 0 4.38975e-14 2.33956e-13 -4.54214e-14 3.87408e-13 0 0 8.00065e-14 9.63465e-14 1.97145e-13 1.94453e-13 0 0 5.2804e-14 8.08775e-14 2.91307e-13 9.1007e-14 0 0 -1.09588e-14 1.62895e-13 2.58785e-13 6.15803e-14 0 0 -3.82348e-14 1.48033e-13 2.09705e-13 1.48494e-13 0 0 -6.43986e-14 1.40231e-13 2.50438e-13 1.84213e-13 0 0 -9.88253e-14 2.10152e-13 1.78057e-13 3.16749e-13 0 0 -1.86386e-13 3.3707e-13 8.1812e-14 3.04856e-13 0 0 -9.22145e-14 2.05141e-13 1.92595e-13 2.88174e-13 0 0 1.03462e-13 -6.00838e-14 3.95029e-13 2.65371e-13 0 0 8.21108e-14 -2.01733e-14 3.88403e-13 2.66055e-13 0 0 1.35086e-13 -5.80816e-14 4.16183e-13 2.39212e-13 0 0 1.63171e-13 -5.93821e-14 4.2061e-13 2.58675e-13 0 0 1.0055e-13 3.38694e-14 3.35946e-13 3.06505e-13 0 0 1.22181e-13 -4.03547e-14 4.29849e-13 2.65956e-13 0 0 6.73877e-14 2.74432e-14 4.87953e-13 1.88705e-13 0 0 -8.14822e-14 2.53537e-13 3.49251e-13 2.4776e-13 0 0 -1.73945e-13 4.11053e-13 1.65774e-13 4.19187e-13 0 0 -9.67862e-14 3.37715e-13 2.82734e-13 2.78763e-13 0 0 -1.77981e-16 2.71311e-13 3.65302e-13 2.52192e-13 0 0 1.83096e-14 3.70634e-13 2.56029e-13 4.17202e-13 0 0 1.80562e-13 1.97001e-13 4.46562e-13 3.78097e-13 0 0 1.72027e-13 2.43652e-13 4.10651e-13 4.36927e-13 0 0 -4.8549e-15 4.12333e-13 3.20278e-13 5.25231e-13 0 0 -1.58955e-14 3.29555e-13 4.33342e-13 4.91168e-13 0 0 -1.08674e-14 4.42344e-13 2.84351e-13 6.06091e-13 0 0 3.27495e-14 4.5574e-13 3.74063e-13 5.33313e-13 0 0 1.56204e-15 5.66674e-13 3.04779e-13 5.44414e-13 0 0 1.05162e-13 5.00254e-13 2.35904e-13 6.82477e-13 0 0 3.15725e-13 1.64067e-13 5.87321e-13 4.93649e-13 0 0 1.81736e-13 2.58088e-13 5.97742e-13 4.69954e-13 0 0 2.36957e-13 2.30013e-13 4.42738e-13 6.9204e-13 0 0 4.19956e-13 5.62222e-14 4.38076e-13 6.46515e-13 0 0 2.77872e-13 1.24285e-13 3.39331e-13 6.07506e-13 0 0 3.33785e-13 6.16033e-14 3.7878e-13 5.1773e-13 0 0 3.17221e-13 2.65375e-13 2.18226e-13 4.01166e-13 0 0 3.42653e-13 1.29545e-13 2.89517e-13 3.69748e-13 0 0 6.53933e-13 -5.67985e-13 8.35092e-13 2.18501e-13 0 0 5.46042e-13 -4.56525e-13 6.47297e-13 3.04386e-13 0 0 3.07076e-13 -1.02658e-13 3.53728e-13 2.42881e-13 0 0 2.11785e-13 6.49794e-14 3.5782e-13 -1.11299e-13 0 0 1.11998e-13 3.00454e-13 -2.47787e-14 3.21658e-14 0 0 1.59608e-13 3.56492e-13 -4.8268e-13 3.7875e-13 0 0 1.94208e-13 4.06192e-13 -6.67147e-13 4.48374e-13 0
				</DataArray>
				<DataArray Name="VitesseY" type="Float32" format="ascii">