<?xml version="1.0"?>
<VTKFile type="PolyData">
	<PolyData>
		<Piece NumberOfPoints="1206" NumberOfPolys="1000">
			<Points>
				<DataArray type="Float32" NumberOfComponents="3" format="ascii">
 0 0 0 0.02 0 0 0.04 0 0 0.06 0 0 0.08 0 0 0.1 0 0 0 0.005 0 0.02 0.005 0 0.04 0.005 0 0.06 0.005 0 0.08 0.005 0 0.1 0.005 0 0 0.01 0 0.02 0.01 0 0.04 0.01 0 0.06 0.01 0 0.08 0.01 0 0.1 0.01 0 0 0.015 0 0.02 0.015 0 0.04 0.015 0 0.06 0.015 0 0.08 0.015 0 0.1 0.015 0 0 0.02 0 0.02 0.02 0 0.04 0.02 0 0.06 0.02 0 0.08 0.02 0 0.1 0.02 0 0 0.025 0 0.02 0.025 0 0.04 0.025 0 0.06 0.025 0 0.08 0.025 0 0.1 0.025 0 0 0.03 0 0.02 0.03 0 0.04 0.03 0 0.06 0.03 0 0.08 0.03 0 0.1 0.03 0 0 0.035 0 0.02 0.035 0 0.04 0.035 0 0.06 0.035 0 0.08 0.035 0 0.1 0.035 0 0 0.04 0 0.02 0.04 0 0.04 0.04 0 0.06 0.04 0 0.08 0.04 0 0.1 0.04 0 0 0.045 0 0.02 0.045 0 0.04 0.045 0 0.06 0.045 0 0.08 0.045 0 0.1 0.045 0 0 0.05 0 0.02 0.05 0 0.04 0.05 0 0.06 0.05 0 0.08 0.05 0 0.1 0.05 0 0 0.055 0 0.02 0.055 0 0.04 0.055 0 0.06 0.055 0 0.08 0.055 0 0.1 0.055 0 0 0.06 0 0.02 0.06 0 0.04 0.06 0 0.06 0.06 0 0.08 0.06 0 0.1 0.06 0 0 0.065 0 0.02 0.065 0 0.04 0.065 0 0.06 0.065 0 0.08 0.065 0 0.1 0.065 0 0 0.07 0 0.02 0.07 0 0.04 0.07 0 0.06 0.07 0 0.08 0.07 0 0.1 0.07 0 0 0.075 0 0.02 0.075 0 0.04 0.075 0 0.06 0.075 0 0.08 0.075 0 0.1 0.075 0 0 0.08 0 0.02 0.08 0 0.04 0.08 0 0.06 0.08 0 0.08 0.08 0 0.1 0.08 0 0 0.085 0 0.02 0.085 0 0.04 0.085 0 0.06 0.085 0 0.08 0.085 0 0.1 0.085 0 0 0.09 0 0.02 0.09 0 0.04 0.09 0 0.06 0.09 0 0.08 0.09 0 0.1 0.09 0 0 0.095 0 0.02 0.095 0 0.04 0.095 0 0.06 0.095 0 0.08 0.095 0 0.1 0.095 0 0 0.1 0 0.02 0.1 0 0.04 0.1 0 0.06 0.1 0 0.08 0.1 0 0.1 0.1 0 0 0.105 0 0.02 0.105 0 0.04 0.105 0 0.06 0.105 0 0.08 0.105 0 0.1 0.105 0 0 0.11 0 0.02 0.11 0 0.04 0.11 0 0.06 0.11 0 0.08 0.11 0 0.1 0.11 0 0 0.115 0 0.02 0.115 0 0.04 0.115 0 0.06 0.115 0 0.08 0.115 0 0.1 0.115 0 0 0.12 0 0.02 0.12 0 0.04 0.12 0 0.06 0.12 0 0.08 0.12 0 0.1 0.12 0 0 0.125 0 0.02 0.125 0 0.04 0.125 0 0.06 0.125 0 0.08 0.125 0 0.1 0.125 0 0 0.13 0 0.02 0.13 0 0.04 0.13 0 0.06 0.13 0 0.08 0.13 0 0.1 0.13 0 0 0.135 0 0.02 0.135 0 0.04 0.135 0 0.06 0.135 0 0.08 0.135 0 0.1 0.135 0 0 0.14 0 0.02 0.14 0 0.04 0.14 0 0.06 0.14 0 0.08 0.14 0 0.1 0.14 0 0 0.145 0 0.02 0.145 0 0.04 0.145 0 0.06 0.145 0 0.08 0.145 0 0.1 0.145 0 0 0.15 0 0.02 0.15 0 0.04 0.15 0 0.06 0.15 0 0.08 0.15 0 0.1 0.15 0 0 0.155 0 0.02 0.155 0 0.04 0.155 0 0.06 0.155 0 0.08 0.155 0 0.1 0.155 0 0 0.16 0 0.02 0.16 0 0.04 0.16 0 0.06 0.16 0 0.08 0.16 0 0.1 0.16 0 0 0.165 0 0.02 0.165 0 0.04 0.165 0 0.06 0.165 0 0.08 0.165 0 0.1 0.165 0 0 0.17 0 0.02 0.17 0 0.04 0.17 0 0.06 0.17 0 0.08 0.17 0 0.1 0.17 0 0 0.175 0 0.02 0.175 0 0.04 0.175 0 0.06 0.175 0 0.08 0.175 0 0.1 0.175 0 0 0.18 0 0.02 0.18 0 0.04 0.18 0 0.06 0.18 0 0.08 0.18 0 0.1 0.18 0 0 0.185 0 0.02 0.185 0 0.04 0.185 0 0.06 0.185 0 0.08 0.185 0 0.1 0.185 0 0 0.19 0 0.02 0.19 0 0.04 0.19 0 0.06 0.19 0 0.08 0.19 0 0.1 0.19 0 0 0.195 0 0.02 0.195 0 0.04 0.195 0 0.06 0.195 0 0.08 0.195 0 0.1 0.195 0 0 0.2 0 0.02 0.2 0 0.04 0.2 0 0.06 0.2 0 0.08 0.2 0 0.1 0.2 0 0 0.205 0 0.02 0.205 0 0.04 0.205 0 0.06 0.205 0 0.08 0.205 0 0.1 0.205 0 0 0.21 0 0.02 0.21 0 0.04 0.21 0 0.06 0.21 0 0.08 0.21 0 0.1 0.21 0 0 0.215 0 0.02 0.215 0 0.04 0.215 0 0.06 0.215 0 0.08 0.215 0 0.1 0.215 0 0 0.22 0 0.02 0.22 0 0.04 0.22 0 0.06 0.22 0 0.08 0.22 0 0.1 0.22 0 0 0.225 0 0.02 0.225 0 0.04 0.225 0 0.06 0.225 0 0.08 0.225 0 0.1 0.225 0 0 0.23 0 0.02 0.23 0 0.04 0.23 0 0.06 0.23 0 0.08 0.23 0 0.1 0.23 0 0 0.235 0 0.02 0.235 0 0.04 0.235 0 0.06 0.235 0 0.08 0.235 0 0.1 0.235 0 0 0.24 0 0.02 0.24 0 0.04 0.24 0 0.06 0.24 0 0.08 0.24 0 0.1 0.24 0 0 0.245 0 0.02 0.245 0 0.04 0.245 0 0.06 0.245 0 0.08 0.245 0 0.1 0.245 0 0 0.25 0 0.02 0.25 0 0.04 0.25 0 0.06 0.25 0 0.08 0.25 0 0.1 0.25 0 0 0.255 0 0.02 0.255 0 0.04 0.255 0 0.06 0.255 0 0.08 0.255 0 0.1 0.255 0 0 0.26 0 0.02 0.26 0 0.04 0.26 0 0.06 0.26 0 0.08 0.26 0 0.1 0.26 0 0 0.265 0 0.02 0.265 0 0.04 0.265 0 0.06 0.265 0 0.08 0.265 0 0.1 0.265 0 0 0.27 0 0.02 0.27 0 0.04 0.27 0 0.06 0.27 0 0.08 0.27 0 0.1 0.27 0 0 0.275 0 0.02 0.275 0 0.04 0.275 0 0.06 0.275 0 0.08 0.275 0 0.1 0.275 0 0 0.28 0 0.02 0.28 0 0.04 0.28 0 0.06 0.28 0 0.08 0.28 0 0.1 0.28 0 0 0.285 0 0.02 0.285 0 0.04 0.285 0 0.06 0.285 0 0.08 0.285 0 0.1 0.285 0 0 0.29 0 0.02 0.29 0 0.04 0.29 0 0.06 0.29 0 0.08 0.29 0 0.1 0.29 0 0 0.295 0 0.02 0.295 0 0.04 0.295 0 0.06 0.295 0 0.08 0.295 0 0.1 0.295 0 0 0.3 0 0.02 0.3 0 0.04 0.3 0 0.06 0.3 0 0.08 0.3 0 0.1 0.3 0 0 0.305 0 0.02 0.305 0 0.04 0.305 0 0.06 0.305 0 0.08 0.305 0 0.1 0.305 0 0 0.31 0 0.02 0.31 0 0.04 0.31 0 0.06 0.31 0 0.08 0.31 0 0.1 0.31 0 0 0.315 0 0.02 0.315 0 0.04 0.315 0 0.06 0.315 0 0.08 0.315 0 0.1 0.315 0 0 0.32 0 0.02 0.32 0 0.04 0.32 0 0.06 0.32 0 0.08 0.32 0 0.1 0.32 0 0 0.325 0 0.02 0.325 0 0.04 0.325 0 0.06 0.325 0 0.08 0.325 0 0.1 0.325 0 0 0.33 0 0.02 0.33 0 0.04 0.33 0 0.06 0.33 0 0.08 0.33 0 0.1 0.33 0 0 0.335 0 0.02 0.335 0 0.04 0.335 0 0.06 0.335 0 0.08 0.335 0 0.1 0.335 0 0 0.34 0 0.02 0.34 0 0.04 0.34 0 0.06 0.34 0 0.08 0.34 0 0.1 0.34 0 0 0.345 0 0.02 0.345 0 0.04 0.345 0 0.06 0.345 0 0.08 0.345 0 0.1 0.345 0 0 0.35 0 0.02 0.35 0 0.04 0.35 0 0.06 0.35 0 0.08 0.35 0 0.1 0.35 0 0 0.355 0 0.02 0.355 0 0.04 0.355 0 0.06 0.355 0 0.08 0.355 0 0.1 0.355 0 0 0.36 0 0.02 0.36 0 0.04 0.36 0 0.06 0.36 0 0.08 0.36 0 0.1 0.36 0 0 0.365 0 0.02 0.365 0 0.04 0.365 0 0.06 0.365 0 0.08 0.365 0 0.1 0.365 0 0 0.37 0 0.02 0.37 0 0.04 0.37 0 0.06 0.37 0 0.08 0.37 0 0.1 0.37 0 0 0.375 0 0.02 0.375 0 0.04 0.375 0 0.06 0.375 0 0.08 0.375 0 0.1 0.375 0 0 0.38 0 0.02 0.38 0 0.04 0.38 0 0.06 0.38 0 0.08 0.38 0 0.1 0.38 0 0 0.385 0 0.02 0.385 0 0.04 0.385 0 0.06 0.385 0 0.08 0.385 0 0.1 0.385 0 0 0.39 0 0.02 0.39 0 0.04 0.39 0 0.06 0.39 0 0.08 0.39 0 0.1 0.39 0 0 0.395 0 0.02 0.395 0 0.04 0.395 0 0.06 0.395 0 0.08 0.395 0 0.1 0.395 0 0 0.4 0 0.02 0.4 0 0.04 0.4 0 0.06 0.4 0 0.08 0.4 0 0.1 0.4 0 0 0.405 0 0.02 0.405 0 0.04 0.405 0 0.06 0.405 0 0.08 0.405 0 0.1 0.405 0 0 0.41 0 0.02 0.41 0 0.04 0.41 0 0.06 0.41 0 0.08 0.41 0 0.1 0.41 0 0 0.415 0 0.02 0.415 0 0.04 0.415 0 0.06 0.415 0 0.08 0.415 0 0.1 0.415 0 0 0.42 0 0.02 0.42 0 0.04 0.42 0 0.06 0.42 0 0.08 0.42 0 0.1 0.42 0 0 0.425 0 0.02 0.425 0 0.04 0.425 0 0.06 0.425 0 0.08 0.425 0 0.1 0.425 0 0 0.43 0 0.02 0.43 0 0.04 0.43 0 0.06 0.43 0 0.08 0.43 0 0.1 0.43 0 0 0.435 0 0.02 0.435 0 0.04 0.435 0 0.06 0.435 0 0.08 0.435 0 0.1 0.435 0 0 0.44 0 0.02 0.44 0 0.04 0.44 0 0.06 0.44 0 0.08 0.44 0 0.1 0.44 0 0 0.445 0 0.02 0.445 0 0.04 0.445 0 0.06 0.445 0 0.08 0.445 0 0.1 0.445 0 0 0.45 0 0.02 0.45 0 0.04 0.45 0 0.06 0.45 0 0.08 0.45 0 0.1 0.45 0 0 0.455 0 0.02 0.455 0 0.04 0.455 0 0.06 0.455 0 0.08 0.455 0 0.1 0.455 0 0 0.46 0 0.02 0.46 0 0.04 0.46 0 0.06 0.46 0 0.08 0.46 0 0.1 0.46 0 0 0.465 0 0.02 0.465 0 0.04 0.465 0 0.06 0.465 0 0.08 0.465 0 0.1 0.465 0 0 0.47 0 0.02 0.47 0 0.04 0.47 0 0.06 0.47 0 0.08 0.47 0 0.1 0.47 0 0 0.475 0 0.02 0.475 0 0.04 0.475 0 0.06 0.475 0 0.08 0.475 0 0.1 0.475 0 0 0.48 0 0.02 0.48 0 0.04 0.48 0 0.06 0.48 0 0.08 0.48 0 0.1 0.48 0 0 0.485 0 0.02 0.485 0 0.04 0.485 0 0.06 0.485 0 0.08 0.485 0 0.1 0.485 0 0 0.49 0 0.02 0.49 0 0.04 0.49 0 0.06 0.49 0 0.08 0.49 0 0.1 0.49 0 0 0.495 0 0.02 0.495 0 0.04 0.495 0 0.06 0.495 0 0.08 0.495 0 0.1 0.495 0 0 0.5 0 0.02 0.5 0 0.04 0.5 0 0.06 0.5 0 0.08 0.5 0 0.1 0.5 0 0 0.505 0 0.02 0.505 0 0.04 0.505 0 0.06 0.505 0 0.08 0.505 0 0.1 0.505 0 0 0.51 0 0.02 0.51 0 0.04 0.51 0 0.06 0.51 0 0.08 0.51 0 0.1 0.51 0 0 0.515 0 0.02 0.515 0 0.04 0.515 0 0.06 0.515 0 0.08 0.515 0 0.1 0.515 0 0 0.52 0 0.02 0.52 0 0.04 0.52 0 0.06 0.52 0 0.08 0.52 0 0.1 0.52 0 0 0.525 0 0.02 0.525 0 0.04 0.525 0 0.06 0.525 0 0.08 0.525 0 0.1 0.525 0 0 0.53 0 0.02 0.53 0 0.04 0.53 0 0.06 0.53 0 0.08 0.53 0 0.1 0.53 0 0 0.535 0 0.02 0.535 0 0.04 0.535 0 0.06 0.535 0 0.08 0.535 0 0.1 0.535 0 0 0.54 0 0.02 0.54 0 0.04 0.54 0 0.06 0.54 0 0.08 0.54 0 0.1 0.54 0 0 0.545 0 0.02 0.545 0 0.04 0.545 0 0.06 0.545 0 0.08 0.545 0 0.1 0.545 0 0 0.55 0 0.02 0.55 0 0.04 0.55 0 0.06 0.55 0 0.08 0.55 0 0.1 0.55 0 0 0.555 0 0.02 0.555 0 0.04 0.555 0 0.06 0.555 0 0.08 0.555 0 0.1 0.555 0 0 0.56 0 0.02 0.56 0 0.04 0.56 0 0.06 0.56 0 0.08 0.56 0 0.1 0.56 0 0 0.565 0 0.02 0.565 0 0.04 0.565 0 0.06 0.565 0 0.08 0.565 0 0.1 0.565 0 0 0.57 0 0.02 0.57 0 0.04 0.57 0 0.06 0.57 0 0.08 0.57 0 0.1 0.57 0 0 0.575 0 0.02 0.575 0 0.04 0.575 0 0.06 0.575 0 0.08 0.575 0 0.1 0.575 0 0 0.58 0 0.02 0.58 0 0.04 0.58 0 0.06 0.58 0 0.08 0.58 0 0.1 0.58 0 0 0.585 0 0.02 0.585 0 0.04 0.585 0 0.06 0.585 0 0.08 0.585 0 0.1 0.585 0 0 0.59 0 0.02 0.59 0 0.04 0.59 0 0.06 0.59 0 0.08 0.59 0 0.1 0.59 0 0 0.595 0 0.02 0.595 0 0.04 0.595 0 0.06 0.595 0 0.08 0.595 0 0.1 0.595 0 0 0.6 0 0.02 0.6 0 0.04 0.6 0 0.06 0.6 0 0.08 0.6 0 0.1 0.6 0 0 0.605 0 0.02 0.605 0 0.04 0.605 0 0.06 0.605 0 0.08 0.605 0 0.1 0.605 0 0 0.61 0 0.02 0.61 0 0.04 0.61 0 0.06 0.61 0 0.08 0.61 0 0.1 0.61 0 0 0.615 0 0.02 0.615 0 0.04 0.615 0 0.06 0.615 0 0.08 0.615 0 0.1 0.615 0 0 0.62 0 0.02 0.62 0 0.04 0.62 0 0.06 0.62 0 0.08 0.62 0 0.1 0.62 0 0 0.625 0 0.02 0.625 0 0.04 0.625 0 0.06 0.625 0 0.08 0.625 0 0.1 0.625 0 0 0.63 0 0.02 0.63 0 0.04 0.63 0 0.06 0.63 0 0.08 0.63 0 0.1 0.63 0 0 0.635 0 0.02 0.635 0 0.04 0.635 0 0.06 0.635 0 0.08 0.635 0 0.1 0.635 0 0 0.64 0 0.02 0.64 0 0.04 0.64 0 0.06 0.64 0 0.08 0.64 0 0.1 0.64 0 0 0.645 0 0.02 0.645 0 0.04 0.645 0 0.06 0.645 0 0.08 0.645 0 0.1 0.645 0 0 0.65 0 0.02 0.65 0 0.04 0.65 0 0.06 0.65 0 0.08 0.65 0 0.1 0.65 0 0 0.655 0 0.02 0.655 0 0.04 0.655 0 0.06 0.655 0 0.08 0.655 0 0.1 0.655 0 0 0.66 0 0.02 0.66 0 0.04 0.66 0 0.06 0.66 0 0.08 0.66 0 0.1 0.66 0 0 0.665 0 0.02 0.665 0 0.04 0.665 0 0.06 0.665 0 0.08 0.665 0 0.1 0.665 0 0 0.67 0 0.02 0.67 0 0.04 0.67 0 0.06 0.67 0 0.08 0.67 0 0.1 0.67 0 0 0.675 0 0.02 0.675 0 0.04 0.675 0 0.06 0.675 0 0.08 0.675 0 0.1 0.675 0 0 0.68 0 0.02 0.68 0 0.04 0.68 0 0.06 0.68 0 0.08 0.68 0 0.1 0.68 0 0 0.685 0 0.02 0.685 0 0.04 0.685 0 0.06 0.685 0 0.08 0.685 0 0.1 0.685 0 0 0.69 0 0.02 0.69 0 0.04 0.69 0 0.06 0.69 0 0.08 0.69 0 0.1 
[...]
			<CellData Scalars="Density">
				<DataArray Name="Density" type="Float32" format="ascii">
 1 1 1 1 1 1 1 1 1 1 1 1 1 1 1 1 1 1 1 1 1 1 1 1 1 1 1 1 1 1 1 1 1 1 1 1 1 1 1 1 1 1 1 1 1 1 1 1 1 1 1 1 1 1 1 1 1 1 1 1 1 1 1 1 1 1 1 1 1 1 1 1 1 1 1 1 1 1 1 1 1 1 1 1 1 1 1 1 1 1 1 1 1 1 1 1 1 1 1 1 1 1 1 1 1 1 1 1 1 1 1 1 1 1 1 1 1 1 1 1 1 1 1 1 1 1 1 1 1 1 1 1 1 1 1 1 1 1 1 1 1 1 1 1 1 1 1 1 1 1 1 1 1 1 1 1 1 1 1 1 1 1 1 1 1 1 1 1 1 1 1 1 1 1 1 0.999999 0.999999 0.999999 0.999999 0.999999 0.999998 0.999998 0.999998 0.999998 0.999998 0.999994 0.999994 0.999994 0.999994 0.999994 0.999985 0.999985 0.999985 0.999985 0.999985 0.999961 0.999961 0.999961 0.999961 0.999961 0.999899 0.999899 0.999899 0.999899 0.999899 0.999754 0.999754 0.999754 0.999754 0.999754 0.999446 0.999446 0.999446 0.999446 0.999446 0.998855 0.998855 0.998855 0.998855 0.998855 0.997817 0.997817 0.997817 0.997817 0.997817 0.996143 0.996143 0.996143 0.996143 0.996143 0.993637 0.993637 0.993637 0.993637 0.993637 0.990128 0.990128 0.990128 0.990128 0.990128 0.985496 0.985496 0.985496 0.985496 0.985496 0.979686 0.979686 0.979686 0.979686 0.979686 0.972707 0.972707 0.972707 0.972707 0.972707 0.964627 0.964627 0.964627 0.964627 0.964627 0.955549 0.955549 0.955549 0.955549 0.955549 0.9456 0.9456 0.9456 0.9456 0.9456 0.934913 0.934913 0.934913 0.934913 0.934913 0.923617 0.923617 0.923617 0.923617 0.923617 0.911831 0.911831 0.911831 0.911831 0.911831 0.899662 0.899662 0.899662 0.899662 0.899662 0.8872 0.8872 0.8872 0.8872 0.8872 0.874525 0.874525 0.874525 0.874525 0.874525 0.861701 0.861701 0.861701 0.861701 0.861701 0.848784 0.848784 0.848784 0.848784 0.848784 0.835819 0.835819 0.835819 0.835819 0.835819 0.822845 0.822845 0.822845 0.822845 0.822845 0.809892 0.809892 0.809892 0.809892 0.809892 0.796988 0.796988 0.796988 0.796988 0.796988 0.784152 0.784152 0.784152 0.784152 0.784152 0.771406 0.771406 0.771406 0.771406 0.771406 0.758762 0.758762 0.758762 0.758762 0.758762 0.746234 0.746234 0.746234 0.746234 0.746234 0.733833 0.733833 0.733833 0.733833 0.733833 0.721569 0.721569 0.721569 0.721569 0.721569 0.70945 0.70945 0.70945 0.70945 0.70945 0.697482 0.697482 0.697482 0.697482 0.697482 0.685672 0.685672 0.685672 0.685672 0.685672 0.674026 0.674026 0.674026 0.674026 0.674026 0.66255 0.66255 0.66255 0.66255 0.66255 0.651247 0.651247 0.651247 0.651247 0.651247 0.640124 0.640124 0.640124 0.640124 0.640124 0.629184 0.629184 0.629184 0.629184 0.629184 0.618432 0.618432 0.618432 0.618432 0.618432 0.607875 0.607875 0.607875 0.607875 0.607875 0.597515 0.597515 0.597515 0.597515 0.597515 0.587361 0.587361 0.587361 0.587361 0.587361 0.577416 0.577416 0.577416 0.577416 0.577416 0.567688 0.567688 0.567688 0.567688 0.567688 0.558184 0.558184 0.558184 0.558184 0.558184 0.548912 0.548912 0.548912 0.548912 0.548912 0.539881 0.539881 0.539881 0.539881 0.539881 0.531099 0.531099 0.531099 0.531099 0.531099 0.522578 0.522578 0.522578 0.522578 0.522578 0.514329 0.514329 0.514329 0.514329 0.514329 0.506364 0.506364 0.506364 0.506364 0.506364 0.498698 0.498698 0.498698 0.498698 0.498698 0.491343 0.491343 0.491343 0.491343 0.491343 0.484316 0.484316 0.484316 0.484316 0.484316 0.477632 0.477632 0.477632 0.477632 0.477632 0.471306 0.471306 0.471306 0.471306 0.471306 0.465354 0.465354 0.465354 0.465354 0.465354 0.459791 0.459791 0.459791 0.459791 0.459791 0.454629 0.454629 0.454629 0.454629 0.454629 0.449879 0.449879 0.449879 0.449879 0.449879 0.445547 0.445547 0.445547 0.445547 0.445547 0.441638 0.441638 0.441638 0.441638 0.441638 0.438149 0.438149 0.438149 0.438149 0.438149 0.435072 0.435072 0.435072 0.435072 0.435072 0.432395 0.432395 0.432395 0.432395 0.432395 0.430097 0.430097 0.430097 0.430097 0.430097 0.428153 0.428153 0.428153 0.428153 0.428153 0.426534 0.426534 0.426534 0.426534 0.426534 0.425204 0.425204 0.425204 0.425204 0.425204 0.424128 0.424128 0.424128 0.424128 0.424128 0.423268 0.423268 0.423268 0.423268 0.423268 0.422587 0.422587 0.422587 0.422587 0.422587 0.422047 0.422047 0.422047 0.422047 0.422047 0.421615 0.421615 0.421615 0.421615 0.421615 0.421259 0.421259 0.421259 0.421259 0.421259 0.420949 0.420949 0.420949 0.420949 0.420949 0.420658 0.420658 0.420658 0.420658 0.420658 0.420358 0.420358 0.420358 0.420358 0.420358 0.420022 0.420022 0.420022 0.420022 0.420022 0.419635 0.419635 0.419635 0.419635 0.419635 0.419161 0.419161 0.419161 0.419161 0.419161 0.418579 0.418579 0.418579 0.418579 0.418579 0.417866 0.417866 0.417866 0.417866 0.417866 0.417004 0.417004 0.417004 0.417004 0.417004 0.415982 0.415982 0.415982 0.415982 0.415982 0.414783 0.414783 0.414783 0.414783 0.414783 0.41337 0.41337 0.41337 0.41337 0.41337 0.411657 0.411657 0.411657 0.411657 0.411657 0.409404 0.409404 0.409404 0.409404 0.409404 0.406135 0.406135 0.406135 0.406135 0.406135 0.400977 0.400977 0.400977 0.400977 0.400977 0.392559 0.392559 0.392559 0.392559 0.392559 0.379145 0.379145 0.379145 0.379145 0.379145 0.359183 0.359183 0.359183 0.359183 0.359183 0.332704 0.332704 0.332704 0.332704 0.332704 0.303455 0.303455 0.303455 0.303455 0.303455 0.279369 0.279369 0.279369 0.279369 0.279369 0.266926 0.266926 0.266926 0.266926 0.266926 0.263841 0.263841 0.263841 0.263841 0.263841 0.26396 0.26396 0.26396 0.26396 0.26396 0.26453 0.26453 0.26453 0.26453 0.26453 0.265095 0.265095 0.265095 0.265095 0.265095 0.265605 0.265605 0.265605 0.265605 0.265605 0.266051 0.266051 0.266051 0.266051 0.266051 0.266429 0.266429 0.266429 0.266429 0.266429 0.266742 0.266742 0.266742 0.266742 0.266742 0.266994 0.266994 0.266994 0.266994 0.266994 0.267194 0.267194 0.267194 0.267194 0.267194 0.26735 0.26735 0.26735 0.26735 0.26735 0.26747 0.26747 0.26747 0.26747 0.26747 0.267562 0.267562 0.267562 0.267562 0.267562 0.267632 0.267632 0.267632 0.267632 0.267632 0.267686 0.267686 0.267686 0.267686 0.267686 0.267727 0.267727 0.267727 0.267727 0.267727 0.267754 0.267754 0.267754 0.267754 0.267754 0.267766 0.267766 0.267766 0.267766 0.267766 0.267756 0.267756 0.267756 0.267756 0.267756 0.267698 0.267698 0.267698 0.267698 0.267698 0.267574 0.267574 0.267574 0.267574 0.267574 0.267233 0.267233 0.267233 0.267233 0.267233 0.266632 0.266632 0.266632 0.266632 0.266632 0.265239 0.265239 0.265239 0.265239 0.265239 0.262626 0.262626 0.262626 0.262626 0.262626 0.257179 0.257179 0.257179 0.257179 0.257179 0.247109 0.247109 0.247109 0.247109 0.247109 0.228628 0.228628 0.228628 0.228628 0.228628 0.2 0.2 0.2 0.2 0.2 0.163313 0.163313 0.163313 0.163313 0.163313 0.133929 0.133929 0.133929 0.133929 0.133929 0.126518 0.126518 0.126518 0.126518 0.126518 0.125236 0.125236 0.125236 0.125236 0.125236 0.125036 0.125036 0.125036 0.125036 0.125036 0.125006 0.125006 0.125006 0.125006 0.125006 0.125001 0.125001 0.125001 0.125001 0.125001 0.125 0.125 0.125 0.125 0.125 0.125 0.125 0.125 0.125 0.125 0.125 0.125 0.125 0.125 0.125 0.125 0.125 0.125 0.125 0.125 0.125 0.125 0.125 0.125 0.125 0.125 0.125 0.125 0.125 0.125 0.125 0.125 0.125 0.125 0.125 0.125 0.125 0.125 0.125 0.125 0.125 0.125 0.125 0.125 0.125 0.125 0.125 0.125 0.125 0.125 0.125 0.125 0.125 0.125 0.125 0.125 0.125 0.125 0.125 0.125 0.125 0.125 0.125 0.125 0.125 0.125 0.125 0.125 0.125 0.125 0.125 0.125 0.125 0.125 0.125 0.125 0.125 0.125 0.125 0.125 0.125 0.125 0.125 0.125 0.125 0.125 0.125 0.125 0.125 0.125 0.125 0.125 0.125 0.125 0.125 0.125 0.125 0.125 0.125 0.125 0.125 0.125 0.125 0.125 0.125 0.125 0.125 0.125 0.125 0.125 0.125 0.125 0.125 0.125 0.125 0.125 0.125 0.125 0.125 0.125
				</DataArray>
				<DataArray Name="Energy" type="Float32" format="ascii">
 2.5 2.5 2.5 2.5 2.5 2.5 2.5 2.5 2.5 2.5 2.5 2.5 2.5 2.5 2.5 2.5 2.5 2.5 2.5 2.5 2.5 2.5 2.5 2.5 2.5 2.5 2.5 2.5 2.5 2.5 2.5 2.5 2.5 2.5 2.5 2.5 2.5 2.5 2.5 2.5 2.5 2.5 2.5 2.5 2.5 2.5 2.5 2.5 2.5 2.5 2.5 2.5 2.5 2.5 2.5 2.5 2.5 2.5 2.5 2.5 2.5 2.5 2.5 2.5 2.5 2.5 2.5 2.5 2.5 2.5 2.5 2.5 2.5 2.5 2.5 2.5 2.5 2.5 2.5 2.5 2.5 2.5 2.5 2.5 2.5 2.5 2.5 2.5 2.5 2.5 2.5 2.5 2.5 2.5 2.5 2.5 2.5 2.5 2.5 2.5 2.5 2.5 2.5 2.5 2.5 2.5 2.5 2.5 2.5 2.5 2.5 2.5 2.5 2.5 2.5 2.5 2.5 2.5 2.5 2.5 2.5 2.5 2.5 2.5 2.5 2.5 2.5 2.5 2.5 2.5 2.5 2.5 2.5 2.5 2.5 2.5 2.5 2.5 2.5 2.5 2.5 2.5 2.5 2.5 2.5 2.5 2.5 2.5 2.5 2.5 2.5 2.5 2.5 2.5 2.5 2.5 2.5 2.5 2.5 2.5 2.5 2.5 2.5 2.5 2.5 2.5 2.5 2.5 2.5 2.5 2.5 2.5 2.5 2.5 2.5 2.5 2.5 2.5 2.5 2.5 2.5 2.5 2.5 2.5 2.5 2.49999 2.49999 2.49999 2.49999 2.49999 2.49998 2.49998 2.49998 2.49998 2.49998 2.49996 2.49996 2.49996 2.49996 2.49996 2.4999 2.4999 2.4999 2.4999 2.4999 2.49975 2.49975 2.49975 2.49975 2.49975 2.49945 2.49945 2.49945 2.49945 2.49945 2.49885 2.49885 2.49885 2.49885 2.49885 2.49782 2.49782 2.49782 2.49782 2.49782 2.49614 2.49614 2.49614 2.49614 2.49614 2.49363 2.49363 2.49363 2.49363 2.49363 2.49011 2.49011 2.49011 2.49011 2.49011 2.48546 2.48546 2.48546 2.48546 2.48546 2.4796 2.4796 2.4796 2.4796 2.4796 2.47255 2.47255 2.47255 2.47255 2.47255 2.46436 2.46436 2.46436 2.46436 2.46436 2.45511 2.45511 2.45511 2.45511 2.45511 2.44492 2.44492 2.44492 2.44492 2.44492 2.4339 2.4339 2.4339 2.4339 2.4339 2.42219 2.42219 2.42219 2.42219 2.42219 2.40988 2.40988 2.40988 2.40988 2.40988 2.39708 2.39708 2.39708 2.39708 2.39708 2.38388 2.38388 2.38388 2.38388 2.38388 2.37034 2.37034 2.37034 2.37034 2.37034 2.35652 2.35652 2.35652 2.35652 2.35652 2.34249 2.34249 2.34249 2.34249 2.34249 2.32829 2.32829 2.32829 2.32829 2.32829 2.31395 2.31395 2.31395 2.31395 2.31395 2.2995 2.2995 2.2995 2.2995 2.2995 2.28498 2.28498 2.28498 2.28498 2.28498 2.2704 2.2704 2.2704 2.2704 2.2704 2.25579 2.25579 2.25579 2.25579 2.25579 2.24115 2.24115 2.24115 2.24115 2.24115 2.22652 2.22652 2.22652 2.22652 2.22652 2.21189 2.21189 2.21189 2.21189 2.21189 2.19729 2.19729 2.19729 2.19729 2.19729 2.18272 2.18272 2.18272 2.18272 2.18272 2.1682 2.1682 2.1682 2.1682 2.1682 2.15372 2.15372 2.15372 2.15372 2.15372 2.13931 2.13931 2.13931 2.13931 2.13931 2.12497 2.12497 2.12497 2.12497 2.12497 2.11071 2.11071 2.11071 2.11071 2.11071 2.09653 2.09653 2.09653 2.09653 2.09653 2.08246 2.08246 2.08246 2.08246 2.08246 2.06849 2.06849 2.06849 2.06849 2.06849 2.05464 2.05464 2.05464 2.05464 2.05464 2.04092 2.04092 2.04092 2.04092 2.04092 2.02734 2.02734 2.02734 2.02734 2.02734 2.01391 2.01391 2.01391 2.01391 2.01391 2.00064 2.00064 2.00064 2.00064 2.00064 1.98756 1.98756 1.98756 1.98756 1.98756 1.97468 1.97468 1.97468 1.97468 1.97468 1.96202 1.96202 1.96202 1.96202 1.96202 1.9496 1.9496 1.9496 1.9496 1.9496 1.93743 1.93743 1.93743 1.93743 1.93743 1.92555 1.92555 1.92555 1.92555 1.92555 1.91399 1.91399 1.91399 1.91399 1.91399 1.90276 1.90276 1.90276 1.90276 1.90276 1.8919 1.8919 1.8919 1.8919 1.8919 1.88145 1.88145 1.88145 1.88145 1.88145 1.87144 1.87144 1.87144 1.87144 1.87144 1.86191 1.86191 1.86191 1.86191 1.86191 1.85289 1.85289 1.85289 1.85289 1.85289 1.84442 1.84442 1.84442 1.84442 1.84442 1.83653 1.83653 1.83653 1.83653 1.83653 1.82925 1.82925 1.82925 1.82925 1.82925 1.82261 1.82261 1.82261 1.82261 1.82261 1.81662 1.81662 1.81662 1.81662 1.81662 1.8113 1.8113 1.8113 1.8113 1.8113 1.80665 1.80665 1.80665 1.80665 1.80665 1.80265 1.80265 1.80265 1.80265 1.80265 1.79929 1.79929 1.79929 1.79929 1.79929 1.79653 1.79653 1.79653 1.79653 1.79653 1.79434 1.79434 1.79434 1.79434 1.79434 1.79266 1.79266 1.79266 1.79266 1.79266 1.79145 1.79145 1.79145 1.79145 1.79145 1.79065 1.79065 1.79065 1.79065 1.79065 1.79021 1.79021 1.79021 1.79021 1.79021 1.79009 1.79009 1.79009 1.79009 1.79009 1.79024 1.79024 1.79024 1.79024 1.79024 1.79064 1.79064 1.79064 1.79064 1.79064 1.79127 1.79127 1.79127 1.79127 1.79127 1.79214 1.79214 1.79214 1.79214 1.79214 1.79326 1.79326 1.79326 1.79326 1.79326 1.79467 1.79467 1.79467 1.79467 1.79467 1.79645 1.79645 1.79645 1.79645 1.79645 1.79864 1.79864 1.79864 1.79864 1.79864 1.80133 1.80133 1.80133 1.80133 1.80133 1.8046 1.8046 1.8046 1.8046 1.8046 1.80852 1.80852 1.80852 1.80852 1.80852 1.81315 1.81315 1.81315 1.81315 1.81315 1.81857 1.81857 1.81857 1.81857 1.81857 1.82494 1.82494 1.82494 1.82494 1.82494 1.83273 1.83273 1.83273 1.83273 1.83273 1.84299 1.84299 1.84299 1.84299 1.84299 1.85804 1.85804 1.85804 1.85804 1.85804 1.88221 1.88221 1.88221 1.88221 1.88221 1.92283 1.92283 1.92283 1.92283 1.92283 1.99117 1.99117 1.99117 1.99117 1.99117 2.10211 2.10211 2.10211 2.10211 2.10211 2.26946 2.26946 2.26946 2.26946 2.26946 2.48817 2.48817 2.48817 2.48817 2.48817 2.70261 2.70261 2.70261 2.70261 2.70261 2.82867 2.82867 2.82867 2.82867 2.82867 2.86212 2.86212 2.86212 2.86212 2.86212 2.86121 2.86121 2.86121 2.86121 2.86121 2.85522 2.85522 2.85522 2.85522 2.85522 2.84923 2.84923 2.84923 2.84923 2.84923 2.84382 2.84382 2.84382 2.84382 2.84382 2.83911 2.83911 2.83911 2.83911 2.83911 2.83514 2.83514 2.83514 2.83514 2.83514 2.83189 2.83189 2.83189 2.83189 2.83189 2.82928 2.82928 2.82928 2.82928 2.82928 2.82725 2.82725 2.82725 2.82725 2.82725 2.82569 2.82569 2.82569 2.82569 2.82569 2.82452 2.82452 2.82452 2.82452 2.82452 2.82365 2.82365 2.82365 2.82365 2.82365 2.82302 2.82302 2.82302 2.82302 2.82302 2.82256 2.82256 2.82256 2.82256 2.82256 2.82223 2.82223 2.82223 2.82223 2.82223 2.82197 2.82197 2.82197 2.82197 2.82197 2.82174 2.82174 2.82174 2.82174 2.82174 2.82149 2.82149 2.82149 2.82149 2.82149 2.82108 2.82108 2.82108 2.82108 2.82108 2.82044 2.82044 2.82044 2.82044 2.82044 2.8189 2.8189 2.8189 2.8189 2.8189 2.81627 2.81627 2.81627 2.81627 2.81627 2.81029 2.81029 2.81029 2.81029 2.81029 2.79902 2.79902 2.79902 2.79902 2.79902 2.77524 2.77524 2.77524 2.77524 2.77524 2.72954 2.72954 2.72954 2.72954 2.72954 2.64077 2.64077 2.64077 2.64077 2.64077 2.48601 2.48601 2.48601 2.48601 2.48601 2.26174 2.26174 2.26174 2.26174 2.26174 2.06054 2.06054 2.06054 2.06054 2.06054 2.00982 2.00982 2.00982 2.00982 2.00982 2.00151 2.00151 2.00151 2.00151 2.00151 2.00023 2.00023 2.00023 2.00023 2.00023 2.00004 2.00004 2.00004 2.00004 2.00004 2.00001 2.00001 2.00001 2.00001 2.00001 2 2 2 2 2 2 2 2 2 2 2 2 2 2 2 2 2 2 2 2 2 2 2 2 2 2 2 2 2 2 2 2 2 2 2 2 2 2 2 2 2 2 2 2 2 2 2 2 2 2 2 2 2 2 2 2 2 2 2 2 2 2 2 2 2 2 2 2 2 2 2 2 2 2 2 2 2 2 2 2 2 2 2 2 2 2 2 2 2 2 2 2 2 2 2 2 2 2 2 2 2 2 2 2 2 2 2 2 2 2 2 2 2 2 2 2 2 2 2 2
				</DataArray>
				<DataArray Name="F1" type="Float32" format="ascii">
 1 1 1 1 1 1 1 1 1 1 1 1 1 1 1 1 1 1 1 1 1 1 1 1 1 1 1 1 1 1 1 1 1 1 1 1 1 1 1 1 1 1 1 1 1 1 1 1 1 1 1 1 1 1 1 1 1 1 1 1 1 1 1 1 1 1 1 1 1 1 1 1 1 1 1 1 1 1 1 1 1 1 1 1 1 1 1 1 1 1 1 1 1 1 1 1 1 1 1 1 1 1 1 1 1 1 1 1 1 1 1 1 1 1 1 1 1 1 1 1 1 1 1 1 1 1 1 1 1 1 1 1 1 1 1 1 1 1 1 1 1 1 1 1 1 1 1 1 1 1 1 1 1 1 1 1 1 1 1 1 1 1 1 1 1 1 1 1 1 1 1 1 1 1 1 1 1 1 1 1 1 1 1 1 1 1 1 1 1 1 1 1 1 1 1 1 1 1 1 1 1 1 1 1 1 1 1 1 1 1 1 1 1 1 1 1 1 1 1 1 1 1 1 1 1 1 1 1 1 1 1 1 1 1 1 1 1 1 1 1 1 1 1 1 1 1 1 1 1 1 1 1 1 1 1 1 1 1 1 1 1 1 1 1 1 1 1 1 1 1 1 1 1 1 1 1 1 1 1 1 1 1 1 1 1 1 1 1 1 1 1 1 1 1 1 1 1 1 1 1 1 1 1 1 1 1 1 1 1 1 1 1 1 1 1 1 1 1 1 1 1 1 1 1 1 1 1 1 1 1 1 1 1 1 1 1 1 1 1 1 1 1 1 1 1 1 1 1 1 1 1 1 1 1 1 1 1 1 1 1 1 1 1 1 1 1 1 1 1 1 1 1 1 1 1 1 1 1 1 1 1 1 1 1 1 1 1 1 1 1 1 1 1 1 1 1 1 1 1 1 1 1 1 1 1 1 1 1 1 1 1 1 1 1 1 1 1 1 1 1 1 1 1 1 1 1 1 1 1 1 1 1 1 1 1 1 1 1 1 1 1 1 1 1 1 1 1 1 1 1 1 1 1 1 1 1 1 1 1 1 1 1 1 1 1 1 1 1 1 1 1 1 1 1 1 1 1 1 1 1 1 1 1 1 1 1 1 1 1 1 1 1 1 1 1 1 1 1 1 1 1 1 1 1 1 1 1 1 1 1 1 1 1 1 1 1 1 1 1 1 1 1 1 1 1 1 1 1 1 1 1 1 1 1 1 1 1 1 1 1 1 1 1 1 1 1 1 1 1 1 1 1 1 1 1 1 1 1 1 1 1 1 1 1 1 1 1 1 1 1 1 1 1 1 1 1 1 1 1 1 1 1 1 1 1 1 1 1 1 1 1 1 1 1 1 1 1 1 1 1 1 1 1 1 1 1 1 1 1 1 0.999999 0.999999 0.999999 0.999999 0.999999 0.999995 0.999995 0.999995 0.999995 0.999995 0.999981 0.999981 0.999981 0.999981 0.999981 0.999937 0.999937 0.999937 0.999937 0.999937 0.999801 0.999801 0.999801 0.999801 0.999801 0.999406 0.999406 0.999406 0.999406 0.999406 0.998342 0.998342 0.998342 0.998342 0.998342 0.995657 0.995657 0.995657 0.995657 0.995657 0.989353 0.989353 0.989353 0.989353 0.989353 0.975599 0.975599 0.975599 0.975599 0.975599 0.947799 0.947799 0.947799 0.947799 0.947799 0.896006 0.896006 0.896006 0.896006 0.896006 0.807768 0.807768 0.807768 0.807768 0.807768 0.67229 0.67229 0.67229 0.67229 0.67229 0.490087 0.490087 0.490087 0.490087 0.490087 0.287227 0.287227 0.287227 0.287227 0.287227 0.118671 0.118671 0.118671 0.118671 0.118671 0.0292968 0.0292968 0.0292968 0.0292968 0.0292968 0.00379781 0.00379781 0.00379781 0.00379781 0.00379781 0.000262846 0.000262846 0.000262846 0.000262846 0.000262846 1.16995e-05 1.16995e-05 1.16995e-05 1.16995e-05 1.16995e-05 4.16144e-07 4.16144e-07 4.16144e-07 4.16144e-07 4.16144e-07 1.35051e-08 1.35051e-08 1.35051e-08 1.35051e-08 1.35051e-08 4.23193e-10 4.23193e-10 4.23193e-10 4.23193e-10 4.23193e-10 1.30683e-11 1.30683e-11 1.30683e-11 1.30683e-11 1.30683e-11 3.99097e-13 3.99097e-13 3.99097e-13 3.99097e-13 3.99097e-13 1.15365e-14 1.15365e-14 1.15365e-14 1.15365e-14 1.15365e-14 6.21948e-16 6.21948e-16 6.21948e-16 6.21948e-16 6.21948e-16 0 0 0 0 0 0 0 0 0 0 0 0 0 0 0 0 0 0 0 0 0 0 0 0 0 0 0 0 0 0 0 0 0 0 0 0 0 0 0 0 0 0 0 0 0 0 0 0 0 0 0 0 0 0 0 0 0 0 0 0 0 0 0 0 0 0 0 0 0 0 0 0 0 0 0 0 0 0 0 0 0 0 0 0 0 0 0 0 0 0 0 0 0 0 0 0 0 0 0 0 0 0 0 0 0 0 0 0 0 0 0 0 0 0 0 0 0 0 0 0 0 0 0 0 0 0 0 0 0 0 0 0 0 0 0 0 0 0 0 0 0 0 0 0 0 0 0 0 0 0 0 0 0 0 0 0 0 0 0 0 0 0 0 0 0 0 0 0 0 0 0 0 0 0 0 0 0 0 0 0 0 0 0 0 0 0 0 0 0 0 0 0 0 0 0 0 0 0 0 0 0 0 0 0 0 0 0 0 0 0 0 0 0 0 0 0 0 0 0 0 0 0 0 0 0 0 0 0 0 0 0 0 0 0 0 0 0 0 0 0 0 0 0 0 0 0 0 0 0 0
				</DataArray>
				<DataArray Name="F2" type="Float32" format="ascii">