<?xml version="1.0"?>
<VTKFile type="PolyData">
	<PolyData>
		<Piece NumberOfPoints="1206" NumberOfPolys="1000">
			<Points>
				<DataArray type="Float32" NumberOfComponents="3" format="ascii">
 0 0 0 0.02 0 0 0.04 0 0 0.06 0 0 0.08 0 0 0.1 0 0 0 0.005 0 0.02 0.005 0 0.04 0.005 0 0.06 0.005 0 0.08 0.005 0 0.1 0.005 0 0 0.01 0 0.02 0.01 0 0.04 0.01 0 0.06 0.01 0 0.08 0.01 0 0.1 0.01 0 0 0.015 0 0.02 0.015 0 0.04 0.015 0 0.06 0.015 0 0.08 0.015 0 0.1 0.015 0 0 0.02 0 0.02 0.02 0 0.04 0.02 0 0.06 0.02 0 0.08 0.02 0 0.1 0.02 0 0 0.025 0 0.02 0.025 0 0.04 0.025 0 0.06 0.025 0 0.08 0.025 0 0.1 0.025 0 0 0.03 0 0.02 0.03 0 0.04 0.03 0 0.06 0.03 0 0.08 0.03 0 0.1 0.03 0 0 0.035 0 0.02 0.035 0 0.04 0.035 0 0.06 0.035 0 0.08 0.035 0 0.1 0.035 0 0 0.04 0 0.02 0.04 0 0.04 0.04 0 0.06 0.04 0 0.08 0.04 0 0.1 0.04 0 0 0.045 0 0.02 0.045 0 0.04 0.045 0 0.06 0.045 0 0.08 0.045 0 0.1 0.045 0 0 0.05 0 0.02 0.05 0 0.04 0.05 0 0.06 0.05 0 0.08 0.05 0 0.1 0.05 0 0 0.055 0 0.02 0.055 0 0.04 0.055 0 0.06 0.055 0 0.08 0.055 0 0.1 0.055 0 0 0.06 0 0.02 0.06 0 0.04 0.06 0 0.06 0.06 0 0.08 0.06 0 0.1 0.06 0 0 0.065 0 0.02 0.065 0 0.04 0.065 0 0.06 0.065 0 0.08 0.065 0 0.1 0.065 0 0 0.07 0 0.02 0.07 0 0.04 0.07 0 0.06 0.07 0 0.08 0.07 0 0.1 0.07 0 0 0.075 0 0.02 0.075 0 0.04 0.075 0 0.06 0.075 0 0.08 0.075 0 0.1 0.075 0 0 0.08 0 0.02 0.08 0 0.04 0.08 0 0.06 0.08 0 0.08 0.08 0 0.1 0.08 0 0 0.085 0 0.02 0.085 0 0.04 0.085 0 0.06 0.085 0 0.08 0.085 0 0.1 0.085 0 0 0.09 0 0.02 0.09 0 0.04 0.09 0 0.06 0.09 0 0.08 0.09 0 0.1 0.09 0 0 0.095 0 0.02 0.095 0 0.04 0.095 0 0.06 0.095 0 0.08 0.095 0 0.1 0.095 0 0 0.1 0 0.02 0.1 0 0.04 0.1 0 0.06 0.1 0 0.08 0.1 0 0.1 0.1 0 0 0.105 0 0.02 0.105 0 0.04 0.105 0 0.06 0.105 0 0.08 0.105 0 0.1 0.105 0 0 0.11 0 0.02 0.11 0 0.04 0.11 0 0.06 0.11 0 0.08 0.11 0 0.1 0.11 0 0 0.115 0 0.02 0.115 0 0.04 0.115 0 0.06 0.115 0 0.08 0.115 0 0.1 0.115 0 0 0.12 0 0.02 0.12 0 0.04 0.12 0 0.06 0.12 0 0.08 0.12 0 0.1 0.12 0 0 0.125 0 0.02 0.125 0 0.04 0.125 0 0.06 0.125 0 0.08 0.125 0 0.1 0.125 0 0 0.13 0 0.02 0.13 0 0.04 0.13 0 0.06 0.13 0 0.08 0.13 0 0.1 0.13 0 0 0.135 0 0.02 0.135 0 0.04 0.135 0 0.06 0.135 0 0.08 0.135 0 0.1 0.135 0 0 0.14 0 0.02 0.14 0 0.04 0.14 0 0.06 0.14 0 0.08 0.14 0 0.1 0.14 0 0 0.145 0 0.02 0.145 0 0.04 0.145 0 0.06 0.145 0 0.08 0.145 0 0.1 0.145 0 0 0.15 0 0.02 0.15 0 0.04 0.15 0 0.06 0.15 0 0.08 0.15 0 0.1 0.15 0 0 0.155 0 0.02 0.155 0 0.04 0.155 0 0.06 0.155 0 0.08 0.155 0 0.1 0.155 0 0 0.16 0 0.02 0.16 0 0.04 0.16 0 0.06 0.16 0 0.08 0.16 0 0.1 0.16 0 0 0.165 0 0.02 0.165 0 0.04 0.165 0 0.06 0.165 0 0.08 0.165 0 0.1 0.165 0 0 0.17 0 0.02 0.17 0 0.04 0.17 0 0.06 0.17 0 0.08 0.17 0 0.1 0.17 0 0 0.175 0 0.02 0.175 0 0.04 0.175 0 0.06 0.175 0 0.08 0.175 0 0.1 0.175 0 0 0.18 0 0.02 0.18 0 0.04 0.18 0 0.06 0.18 0 0.08 0.18 0 0.1 0.18 0 0 0.185 0 0.02 0.185 0 0.04 0.185 0 0.06 0.185 0 0.08 0.185 0 0.1 0.185 0 0 0.19 0 0.02 0.19 0 0.04 0.19 0 0.06 0.19 0 0.08 0.19 0 0.1 0.19 0 0 0.195 0 0.02 0.195 0 0.04 0.195 0 0.06 0.195 0 0.08 0.195 0 0.1 0.195 0 0 0.2 0 0.02 0.2 0 0.04 0.2 0 0.06 0.2 0 0.08 0.2 0 0.1 0.2 0 0 0.205 0 0.02 0.205 0 0.04 0.205 0 0.06 0.205 0 0.08 0.205 0 0.1 0.205 0 0 0.21 0 0.02 0.21 0 0.04 0.21 0 0.06 0.21 0 0.08 0.21 0 0.1 0.21 0 0 0.215 0 0.02 0.215 0 0.04 0.215 0 0.06 0.215 0 0.08 0.215 0 0.1 0.215 0 0 0.22 0 0.02 0.22 0 0.04 0.22 0 0.06 0.22 0 0.08 0.22 0 0.1 0.22 0 0 0.225 0 0.02 0.225 0 0.04 0.225 0 0.06 0.225 0 0.08 0.225 0 0.1 0.225 0 0 0.23 0 0.02 0.23 0 0.04 0.23 0 0.06 0.23 0 0.08 0.23 0 0.1 0.23 0 0 0.235 0 0.02 0.235 0 0.04 0.235 0 0.06 0.235 0 0.08 0.235 0 0.1 0.235 0 0 0.24 0 0.02 0.24 0 0.04 0.24 0 0.06 0.24 0 0.08 0.24 0 0.1 0.24 0 0 0.245 0 0.02 0.245 0 0.04 0.245 0 0.06 0.245 0 0.08 0.245 0 0.1 0.245 0 0 0.25 0 0.02 0.25 0 0.04 0.25 0 0.06 0.25 0 0.08 0.25 0 0.1 0.25 0 0 0.255 0 0.02 0.255 0 0.04 0.255 0 0.06 0.255 0 0.08 0.255 0 0.1 0.255 0 0 0.26 0 0.02 0.26 0 0.04 0.26 0 0.06 0.26 0 0.08 0.26 0 0.1 0.26 0 0 0.265 0 0.02 0.265 0 0.04 0.265 0 0.06 0.265 0 0.08 0.265 0 0.1 0.265 0 0 0.27 0 0.02 0.27 0 0.04 0.27 0 0.06 0.27 0 0.08 0.27 0 0.1 0.27 0 0 0.275 0 0.02 0.275 0 0.04 0.275 0 0.06 0.275 0 0.08 0.275 0 0.1 0.275 0 0 0.28 0 0.02 0.28 0 0.04 0.28 0 0.06 0.28 0 0.08 0.28 0 0.1 0.28 0 0 0.285 0 0.02 0.285 0 0.04 0.285 0 0.06 0.285 0 0.08 0.285 0 0.1 0.285 0 0 0.29 0 0.02 0.29 0 0.04 0.29 0 0.06 0.29 0 0.08 0.29 0 0.1 0.29 0 0 0.295 0 0.02 0.295 0 0.04 0.295 0 0.06 0.295 0 0.08 0.295 0 0.1 0.295 0 0 0.3 0 0.02 0.3 0 0.04 0.3 0 0.06 0.3 0 0.08 0.3 0 0.1 0.3 0 0 0.305 0 0.02 0.305 0 0.04 0.305 0 0.06 0.305 0 0.08 0.305 0 0.1 0.305 0 0 0.31 0 0.02 0.31 0 0.04 0.31 0 0.06 0.31 0 0.08 0.31 0 0.1 0.31 0 0 0.315 0 0.02 0.315 0 0.04 0.315 0 0.06 0.315 0 0.08 0.315 0 0.1 0.315 0 0 0.32 0 0.02 0.32 0 0.04 0.32 0 0.06 0.32 0 0.08 0.32 0 0.1 0.32 0 0 0.325 0 0.02 0.325 0 0.04 0.325 0 0.06 0.325 0 0.08 0.325 0 0.1 0.325 0 0 0.33 0 0.02 0.33 0 0.04 0.33 0 0.06 0.33 0 0.08 0.33 0 0.1 0.33 0 0 0.335 0 0.02 0.335 0 0.04 0.335 0 0.06 0.335 0 0.08 0.335 0 0.1 0.335 0 0 0.34 0 0.02 0.34 0 0.04 0.34 0 0.06 0.34 0 0.08 0.34 0 0.1 0.34 0 0 0.345 0 0.02 0.345 0 0.04 0.345 0 0.06 0.345 0 0.08 0.345 0 0.1 0.345 0 0 0.35 0 0.02 0.35 0 0.04 0.35 0 0.06 0.35 0 0.08 0.35 0 0.1 0.35 0 0 0.355 0 0.02 0.355 0 0.04 0.355 0 0.06 0.355 0 0.08 0.355 0 0.1 0.355 0 0 0.36 0 0.02 0.36 0 0.04 0.36 0 0.06 0.36 0 0.08 0.36 0 0.1 0.36 0 0 0.365 0 0.02 0.365 0 0.04 0.365 0 0.06 0.365 0 0.08 0.365 0 0.1 0.365 0 0 0.37 0 0.02 0.37 0 0.04 0.37 0 0.06 0.37 0 0.08 0.37 0 0.1 0.37 0 0 0.375 0 0.02 0.375 0 0.04 0.375 0 0.06 0.375 0 0.08 0.375 0 0.1 0.375 0 0 0.38 0 0.02 0.38 0 0.04 0.38 0 0.06 0.38 0 0.08 0.38 0 0.1 0.38 0 0 0.385 0 0.02 0.385 0 0.04 0.385 0 0.06 0.385 0 0.08 0.385 0 0.1 0.385 0 0 0.39 0 0.02 0.39 0 0.04 0.39 0 0.06 0.39 0 0.08 0.39 0 0.1 0.39 0 0 0.395 0 0.02 0.395 0 0.04 0.395 0 0.06 0.395 0 0.08 0.395 0 0.1 0.395 0 0 0.4 0 0.02 0.4 0 0.04 0.4 0 0.06 0.4 0 0.08 0.4 0 0.1 0.4 0 0 0.405 0 0.02 0.405 0 0.04 0.405 0 0.06 0.405 0 0.08 0.405 0 0.1 0.405 0 0 0.41 0 0.02 0.41 0 0.04 0.41 0 0.06 0.41 0 0.08 0.41 0 0.1 0.41 0 0 0.415 0 0.02 0.415 0 0.04 0.415 0 0.06 0.415 0 0.08 0.415 0 0.1 0.415 0 0 0.42 0 0.02 0.42 0 0.04 0.42 0 0.06 0.42 0 0.08 0.42 0 0.1 0.42 0 0 0.425 0 0.02 0.425 0 0.04 0.425 0 0.06 0.425 0 0.08 0.425 0 0.1 0.425 0 0 0.43 0 0.02 0.43 0 0.04 0.43 0 0.06 0.43 0 0.08 0.43 0 0.1 0.43 0 0 0.435 0 0.02 0.435 0 0.04 0.435 0 0.06 0.435 0 0.08 0.435 0 0.1 0.435 0 0 0.44 0 0.02 0.44 0 0.04 0.44 0 0.06 0.44 0 0.08 0.44 0 0.1 0.44 0 0 0.445 0 0.02 0.445 0 0.04 0.445 0 0.06 0.445 0 0.08 0.445 0 0.1 0.445 0 0 0.45 0 0.02 0.45 0 0.04 0.45 0 0.06 0.45 0 0.08 0.45 0 0.1 0.45 0 0 0.455 0 0.02 0.455 0 0.04 0.455 0 0.06 0.455 0 0.08 0.455 0 0.1 0.455 0 0 0.46 0 0.02 0.46 0 0.04 0.46 0 0.06 0.46 0 0.08 0.46 0 0.1 0.46 0 0 0.465 0 0.02 0.465 0 0.04 0.465 0 0.06 0.465 0 0.08 0.465 0 0.1 0.465 0 0 0.47 0 0.02 0.47 0 0.04 0.47 0 0.06 0.47 0 0.08 0.47 0 0.1 0.47 0 0 0.475 0 0.02 0.475 0 0.04 0.475 0 0.06 0.475 0 0.08 0.475 0 0.1 0.475 0 0 0.48 0 0.02 0.48 0 0.04 0.48 0 0.06 0.48 0 0.08 0.48 0 0.1 0.48 0 0 0.485 0 0.02 0.485 0 0.04 0.485 0 0.06 0.485 0 0.08 0.485 0 0.1 0.485 0 0 0.49 0 0.02 0.49 0 0.04 0.49 0 0.06 0.49 0 0.08 0.49 0 0.1 0.49 0 0 0.495 0 0.02 0.495 0 0.04 0.495 0 0.06 0.495 0 0.08 0.495 0 0.1 0.495 0 0 0.5 0 0.02 0.5 0 0.04 0.5 0 0.06 0.5 0 0.08 0.5 0 0.1 0.5 0 0 0.505 0 0.02 0.505 0 0.04 0.505 0 0.06 0.505 0 0.08 0.505 0 0.1 0.505 0 0 0.51 0 0.02 0.51 0 0.04 0.51 0 0.06 0.51 0 0.08 0.51 0 0.1 0.51 0 0 0.515 0 0.02 0.515 0 0.04 0.515 0 0.06 0.515 0 0.08 0.515 0 0.1 0.515 0 0 0.52 0 0.02 0.52 0 0.04 0.52 0 0.06 0.52 0 0.08 0.52 0 0.1 0.52 0 0 0.525 0 0.02 0.525 0 0.04 0.525 0 0.06 0.525 0 0.08 0.525 0 0.1 0.525 0 0 0.53 0 0.02 0.53 0 0.04 0.53 0 0.06 0.53 0 0.08 0.53 0 0.1 0.53 0 0 0.535 0 0.02 0.535 0 0.04 0.535 0 0.06 0.535 0 0.08 0.535 0 0.1 0.535 0 0 0.54 0 0.02 0.54 0 0.04 0.54 0 0.06 0.54 0 0.08 0.54 0 0.1 0.54 0 0 0.545 0 0.02 0.545 0 0.04 0.545 0 0.06 0.545 0 0.08 0.545 0 0.1 0.545 0 0 0.55 0 0.02 0.55 0 0.04 0.55 0 0.06 0.55 0 0.08 0.55 0 0.1 0.55 0 0 0.555 0 0.02 0.555 0 0.04 0.555 0 0.06 0.555 0 0.08 0.555 0 0.1 0.555 0 0 0.56 0 0.02 0.56 0 0.04 0.56 0 0.06 0.56 0 0.08 0.56 0 0.1 0.56 0 0 0.565 0 0.02 0.565 0 0.04 0.565 0 0.06 0.565 0 0.08 0.565 0 0.1 0.565 0 0 0.57 0 0.02 0.57 0 0.04 0.57 0 0.06 0.57 0 0.08 0.57 0 0.1 0.57 0 0 0.575 0 0.02 0.575 0 0.04 0.575 0 0.06 0.575 0 0.08 0.575 0 0.1 0.575 0 0 0.58 0 0.02 0.58 0 0.04 0.58 0 0.06 0.58 0 0.08 0.58 0 0.1 0.58 0 0 0.585 0 0.02 0.585 0 0.04 0.585 0 0.06 0.585 0 0.08 0.585 0 0.1 0.585 0 0 0.59 0 0.02 0.59 0 0.04 0.59 0 0.06 0.59 0 0.08 0.59 0 0.1 0.59 0 0 0.595 0 0.02 0.595 0 0.04 0.595 0 0.06 0.595 0 0.08 0.595 0 0.1 0.595 0 0 0.6 0 0.02 0.6 0 0.04 0.6 0 0.06 0.6 0 0.08 0.6 0 0.1 0.6 0 0 0.605 0 0.02 0.605 0 0.04 0.605 0 0.06 0.605 0 0.08 0.605 0 0.1 0.605 0 0 0.61 0 0.02 0.61 0 0.04 0.61 0 0.06 0.61 0 0.08 0.61 0 0.1 0.61 0 0 0.615 0 0.02 0.615 0 0.04 0.615 0 0.06 0.615 0 0.08 0.615 0 0.1 0.615 0 0 0.62 0 0.02 0.62 0 0.04 0.62 0 0.06 0.62 0 0.08 0.62 0 0.1 0.62 0 0 0.625 0 0.02 0.625 0 0.04 0.625 0 0.06 0.625 0 0.08 0.625 0 0.1 0.625 0 0 0.63 0 0.02 0.63 0 0.04 0.63 0 0.06 0.63 0 0.08 0.63 0 0.1 0.63 0 0 0.635 0 0.02 0.635 0 0.04 0.635 0 0.06 0.635 0 0.08 0.635 0 0.1 0.635 0 0 0.64 0 0.02 0.64 0 0.04 0.64 0 0.06 0.64 0 0.08 0.64 0 0.1 0.64 0 0 0.645 0 0.02 0.645 0 0.04 0.645 0 0.06 0.645 0 0.08 0.645 0 0.1 0.645 0 0 0.65 0 0.02 0.65 0 0.04 0.65 0 0.06 0.65 0 0.08 0.65 0 0.1 0.65 0 0 0.655 0 0.02 0.655 0 0.04 0.655 0 0.06 0.655 0 0.08 0.655 0 0.1 0.655 0 0 0.66 0 0.02 0.66 0 0.04 0.66 0 0.06 0.66 0 0.08 0.66 0 0.1 0.66 0 0 0.665 0 0.02 0.665 0 0.04 0.665 0 0.06 0.665 0 0.08 0.665 0 0.1 0.665 0 0 0.67 0 0.02 0.67 0 0.04 0.67 0 0.06 0.67 0 0.08 0.67 0 0.1 0.67 0 0 0.675 0 0.02 0.675 0 0.04 0.675 0 0.06 0.675 0 0.08 0.675 0 0.1 0.675 0 0 0.68 0 0.02 0.68 0 0.04 0.68 0 0.06 0.68 0 0.08 0.68 0 0.1 0.68 0 0 0.685 0 0.02 0.685 0 0.04 0.685 0 0.06 0.685 0 0.08 0.685 0 0.1 0.685 0 0 0.69 0 0.02 0.69 0 0.04 0.69 0 0.06 0.69 0 0.08 0.69 0 0.1 
[...]
			<CellData Scalars="Density">
				<DataArray Name="Density" type="Float32" format="ascii">
 1 1 1 1 1 1 1 1 1 1 1 1 1 1 1 1 1 1 1 1 1 1 1 1 1 1 1 1 1 1 1 1 1 1 1 1 1 1 1 1 1 1 1 1 1 1 1 1 1 1 1 1 1 1 1 1 1 1 1 1 1 1 1 1 1 1 1 1 1 1 1 1 1 1 1 1 1 1 1 1 1 1 1 1 1 1 1 1 1 1 1 1 1 1 1 1 1 1 1 1 1 1 1 1 1 1 1 1 1 1 1 1 1 1 1 1 1 1 1 1 1 1 1 1 1 1 1 1 1 1 1 1 1 1 1 1 1 1 1 1 1 1 1 1 1 1 1 1 1 1 1 1 1 1 1 1 1 1 1 1 1 1 1 1 1 1 1 1 1 1 1 1 1 1 1 1 1 1 1 1 1 1 1 1 1 1 1 1 1 1 1 1 1 1 1 1 1 1 1 1 1 1 1 1 1 1 1 1 1 1 1 1 1 1 1 1 1 1 1 1 1 1 1 1 1 1 1 1 1 1 1 1 1 1 1 1 1 1 1 1 1 1 1 1 1 0.999999 0.999999 0.999999 0.999999 0.999999 0.999998 0.999998 0.999998 0.999998 0.999998 0.999994 0.999994 0.999994 0.999994 0.999994 0.999983 0.999983 0.999983 0.999983 0.999983 0.999954 0.999954 0.999954 0.999954 0.999954 0.99988 0.99988 0.99988 0.99988 0.99988 0.999687 0.999687 0.999687 0.999687 0.999687 0.999216 0.999216 0.999216 0.999216 0.999216 0.998233 0.998233 0.998233 0.998233 0.998233 0.996408 0.996408 0.996408 0.996408 0.996408 0.993391 0.993391 0.993391 0.993391 0.993391 0.98885 0.98885 0.98885 0.98885 0.98885 0.982566 0.982566 0.982566 0.982566 0.982566 0.974453 0.974453 0.974453 0.974453 0.974453 0.964563 0.964563 0.964563 0.964563 0.964563 0.953058 0.953058 0.953058 0.953058 0.953058 0.940155 0.940155 0.940155 0.940155 0.940155 0.926106 0.926106 0.926106 0.926106 0.926106 0.911144 0.911144 0.911144 0.911144 0.911144 0.895492 0.895492 0.895492 0.895492 0.895492 0.879334 0.879334 0.879334 0.879334 0.879334 0.86283 0.86283 0.86283 0.86283 0.86283 0.846109 0.846109 0.846109 0.846109 0.846109 0.829274 0.829274 0.829274 0.829274 0.829274 0.812413 0.812413 0.812413 0.812413 0.812413 0.79559 0.79559 0.79559 0.79559 0.79559 0.778865 0.778865 0.778865 0.778865 0.778865 0.762277 0.762277 0.762277 0.762277 0.762277 0.745868 0.745868 0.745868 0.745868 0.745868 0.729661 0.729661 0.729661 0.729661 0.729661 0.713687 0.713687 0.713687 0.713687 0.713687 0.697963 0.697963 0.697963 0.697963 0.697963 0.682508 0.682508 0.682508 0.682508 0.682508 0.667338 0.667338 0.667338 0.667338 0.667338 0.652467 0.652467 0.652467 0.652467 0.652467 0.637908 0.637908 0.637908 0.637908 0.637908 0.623675 0.623675 0.623675 0.623675 0.623675 0.60978 0.60978 0.60978 0.60978 0.60978 0.596237 0.596237 0.596237 0.596237 0.596237 0.583059 0.583059 0.583059 0.583059 0.583059 0.570261 0.570261 0.570261 0.570261 0.570261 0.55786 0.55786 0.55786 0.55786 0.55786 0.545873 0.545873 0.545873 0.545873 0.545873 0.53432 0.53432 0.53432 0.53432 0.53432 0.523222 0.523222 0.523222 0.523222 0.523222 0.512603 0.512603 0.512603 0.512603 0.512603 0.502486 0.502486 0.502486 0.502486 0.502486 0.492899 0.492899 0.492899 0.492899 0.492899 0.483868 0.483868 0.483868 0.483868 0.483868 0.475421 0.475421 0.475421 0.475421 0.475421 0.467584 0.467584 0.467584 0.467584 0.467584 0.46038 0.46038 0.46038 0.46038 0.46038 0.453827 0.453827 0.453827 0.453827 0.453827 0.447937 0.447937 0.447937 0.447937 0.447937 0.442712 0.442712 0.442712 0.442712 0.442712 0.438146 0.438146 0.438146 0.438146 0.438146 0.434218 0.434218 0.434218 0.434218 0.434218 0.430894 0.430894 0.430894 0.430894 0.430894 0.428129 0.428129 0.428129 0.428129 0.428129 0.425865 0.425865 0.425865 0.425865 0.425865 0.424035 0.424035 0.424035 0.424035 0.424035 0.422565 0.422565 0.422565 0.422565 0.422565 0.421376 0.421376 0.421376 0.421376 0.421376 0.420386 0.420386 0.420386 0.420386 0.420386 0.419513 0.419513 0.419513 0.419513 0.419513 0.418678 0.418678 0.418678 0.418678 0.418678 0.417804 0.417804 0.417804 0.417804 0.417804 0.416826 0.416826 0.416826 0.416826 0.416826 0.415678 0.415678 0.415678 0.415678 0.415678 0.414326 0.414326 0.414326 0.414326 0.414326 0.412704 0.412704 0.412704 0.412704 0.412704 0.410704 0.410704 0.410704 0.410704 0.410704 0.408037 0.408037 0.408037 0.408037 0.408037 0.404083 0.404083 0.404083 0.404083 0.404083 0.397676 0.397676 0.397676 0.397676 0.397676 0.386979 0.386979 0.386979 0.386979 0.386979 0.369728 0.369728 0.369728 0.369728 0.369728 0.344593 0.344593 0.344593 0.344593 0.344593 0.313632 0.313632 0.313632 0.313632 0.313632 0.285048 0.285048 0.285048 0.285048 0.285048 0.268366 0.268366 0.268366 0.268366 0.268366 0.263666 0.263666 0.263666 0.263666 0.263666 0.263699 0.263699 0.263699 0.263699 0.263699 0.264442 0.264442 0.264442 0.264442 0.264442 0.265153 0.265153 0.265153 0.265153 0.265153 0.265765 0.265765 0.265765 0.265765 0.265765 0.266273 0.266273 0.266273 0.266273 0.266273 0.26668 0.26668 0.26668 0.26668 0.26668 0.266998 0.266998 0.266998 0.266998 0.266998 0.267237 0.267237 0.267237 0.267237 0.267237 0.26741 0.26741 0.26741 0.26741 0.26741 0.267514 0.267514 0.267514 0.267514 0.267514 0.267566 0.267566 0.267566 0.267566 0.267566 0.267492 0.267492 0.267492 0.267492 0.267492 0.267295 0.267295 0.267295 0.267295 0.267295 0.26671 0.26671 0.26671 0.26671 0.26671 0.265626 0.265626 0.265626 0.265626 0.265626 0.263098 0.263098 0.263098 0.263098 0.263098 0.258451 0.258451 0.258451 0.258451 0.258451 0.248822 0.248822 0.248822 0.248822 0.248822 0.232228 0.232228 0.232228 0.232228 0.232228 0.204209 0.204209 0.204209 0.204209 0.204209 0.168929 0.168929 0.168929 0.168929 0.168929 0.136223 0.136223 0.136223 0.136223 0.136223 0.12694 0.12694 0.12694 0.12694 0.12694 0.125303 0.125303 0.125303 0.125303 0.125303 0.125046 0.125046 0.125046 0.125046 0.125046 0.125007 0.125007 0.125007 0.125007 0.125007 0.125001 0.125001 0.125001 0.125001 0.125001 0.125 0.125 0.125 0.125 0.125 0.125 0.125 0.125 0.125 0.125 0.125 0.125 0.125 0.125 0.125 0.125 0.125 0.125 0.125 0.125 0.125 0.125 0.125 0.125 0.125 0.125 0.125 0.125 0.125 0.125 0.125 0.125 0.125 0.125 0.125 0.125 0.125 0.125 0.125 0.125 0.125 0.125 0.125 0.125 0.125 0.125 0.125 0.125 0.125 0.125 0.125 0.125 0.125 0.125 0.125 0.125 0.125 0.125 0.125 0.125 0.125 0.125 0.125 0.125 0.125 0.125 0.125 0.125 0.125 0.125 0.125 0.125 0.125 0.125 0.125 0.125 0.125 0.125 0.125 0.125 0.125 0.125 0.125 0.125 0.125 0.125 0.125 0.125 0.125 0.125 0.125 0.125 0.125 0.125 0.125 0.125 0.125 0.125 0.125 0.125 0.125 0.125 0.125 0.125 0.125 0.125 0.125 0.125 0.125 0.125 0.125 0.125 0.125 0.125 0.125 0.125 0.125 0.125 0.125 0.125 0.125 0.125 0.125 0.125 0.125 0.125 0.125 0.125 0.125 0.125 0.125 0.125 0.125 0.125 0.125 0.125 0.125 0.125 0.125 0.125 0.125 0.125 0.125 0.125 0.125 0.125 0.125 0.125 0.125 0.125 0.125 0.125 0.125 0.125 0.125 0.125 0.125 0.125 0.125 0.125 0.125 0.125 0.125 0.125 0.125 0.125 0.125 0.125 0.125 0.125 0.125 0.125 0.125 0.125 0.125 0.125 0.125 0.125 0.125 0.125 0.125 0.125 0.125 0.125 0.125 0.125 0.125 0.125 0.125 0.125 0.125 0.125 0.125 0.125 0.125 0.125 0.125 0.125 0.125 0.125 0.125 0.125 0.125 0.125 0.125 0.125 0.125 0.125 0.125 0.125
				</DataArray>
				<DataArray Name="Energy" type="Float32" format="ascii">
 2.5 2.5 2.5 2.5 2.5 2.5 2.5 2.5 2.5 2.5 2.5 2.5 2.5 2.5 2.5 2.5 2.5 2.5 2.5 2.5 2.5 2.5 2.5 2.5 2.5 2.5 2.5 2.5 2.5 2.5 2.5 2.5 2.5 2.5 2.5 2.5 2.5 2.5 2.5 2.5 2.5 2.5 2.5 2.5 2.5 2.5 2.5 2.5 2.5 2.5 2.5 2.5 2.5 2.5 2.5 2.5 2.5 2.5 2.5 2.5 2.5 2.5 2.5 2.5 2.5 2.5 2.5 2.5 2.5 2.5 2.5 2.5 2.5 2.5 2.5 2.5 2.5 2.5 2.5 2.5 2.5 2.5 2.5 2.5 2.5 2.5 2.5 2.5 2.5 2.5 2.5 2.5 2.5 2.5 2.5 2.5 2.5 2.5 2.5 2.5 2.5 2.5 2.5 2.5 2.5 2.5 2.5 2.5 2.5 2.5 2.5 2.5 2.5 2.5 2.5 2.5 2.5 2.5 2.5 2.5 2.5 2.5 2.5 2.5 2.5 2.5 2.5 2.5 2.5 2.5 2.5 2.5 2.5 2.5 2.5 2.5 2.5 2.5 2.5 2.5 2.5 2.5 2.5 2.5 2.5 2.5 2.5 2.5 2.5 2.5 2.5 2.5 2.5 2.5 2.5 2.5 2.5 2.5 2.5 2.5 2.5 2.5 2.5 2.5 2.5 2.5 2.5 2.5 2.5 2.5 2.5 2.5 2.5 2.5 2.5 2.5 2.5 2.5 2.5 2.5 2.5 2.5 2.5 2.5 2.5 2.5 2.5 2.5 2.5 2.5 2.5 2.5 2.5 2.5 2.5 2.5 2.5 2.5 2.5 2.5 2.5 2.5 2.5 2.5 2.5 2.5 2.5 2.5 2.5 2.5 2.5 2.5 2.5 2.5 2.5 2.5 2.5 2.5 2.5 2.5 2.5 2.5 2.5 2.5 2.5 2.5 2.5 2.5 2.5 2.5 2.5 2.5 2.5 2.5 2.5 2.5 2.5 2.5 2.5 2.5 2.5 2.5 2.5 2.5 2.5 2.5 2.5 2.5 2.5 2.5 2.5 2.5 2.5 2.5 2.5 2.49999 2.49999 2.49999 2.49999 2.49999 2.49998 2.49998 2.49998 2.49998 2.49998 2.49995 2.49995 2.49995 2.49995 2.49995 2.49988 2.49988 2.49988 2.49988 2.49988 2.49969 2.49969 2.49969 2.49969 2.49969 2.49922 2.49922 2.49922 2.49922 2.49922 2.49823 2.49823 2.49823 2.49823 2.49823 2.49641 2.49641 2.49641 2.49641 2.49641 2.49339 2.49339 2.49339 2.49339 2.49339 2.48883 2.48883 2.48883 2.48883 2.48883 2.48251 2.48251 2.48251 2.48251 2.48251 2.47433 2.47433 2.47433 2.47433 2.47433 2.46432 2.46432 2.46432 2.46432 2.46432 2.4526 2.4526 2.4526 2.4526 2.4526 2.43938 2.43938 2.43938 2.43938 2.43938 2.42487 2.42487 2.42487 2.42487 2.42487 2.40929 2.40929 2.40929 2.40929 2.40929 2.39284 2.39284 2.39284 2.39284 2.39284 2.3757 2.3757 2.3757 2.3757 2.3757 2.35801 2.35801 2.35801 2.35801 2.35801 2.3399 2.3399 2.3399 2.3399 2.3399 2.32146 2.32146 2.32146 2.32146 2.32146 2.30278 2.30278 2.30278 2.30278 2.30278 2.28393 2.28393 2.28393 2.28393 2.28393 2.26497 2.26497 2.26497 2.26497 2.26497 2.24594 2.24594 2.24594 2.24594 2.24594 2.22688 2.22688 2.22688 2.22688 2.22688 2.20783 2.20783 2.20783 2.20783 2.20783 2.18882 2.18882 2.18882 2.18882 2.18882 2.16987 2.16987 2.16987 2.16987 2.16987 2.15102 2.15102 2.15102 2.15102 2.15102 2.13228 2.13228 2.13228 2.13228 2.13228 2.11368 2.11368 2.11368 2.11368 2.11368 2.09524 2.09524 2.09524 2.09524 2.09524 2.07698 2.07698 2.07698 2.07698 2.07698 2.05894 2.05894 2.05894 2.05894 2.05894 2.04114 2.04114 2.04114 2.04114 2.04114 2.0236 2.0236 2.0236 2.0236 2.0236 2.00636 2.00636 2.00636 2.00636 2.00636 1.98946 1.98946 1.98946 1.98946 1.98946 1.97292 1.97292 1.97292 1.97292 1.97292 1.9568 1.9568 1.9568 1.9568 1.9568 1.94114 1.94114 1.94114 1.94114 1.94114 1.926 1.926 1.926 1.926 1.926 1.91142 1.91142 1.91142 1.91142 1.91142 1.89747 1.89747 1.89747 1.89747 1.89747 1.88422 1.88422 1.88422 1.88422 1.88422 1.87172 1.87172 1.87172 1.87172 1.87172 1.86006 1.86006 1.86006 1.86006 1.86006 1.84929 1.84929 1.84929 1.84929 1.84929 1.83946 1.83946 1.83946 1.83946 1.83946 1.83064 1.83064 1.83064 1.83064 1.83064 1.82286 1.82286 1.82286 1.82286 1.82286 1.81613 1.81613 1.81613 1.81613 1.81613 1.81045 1.81045 1.81045 1.81045 1.81045 1.80581 1.80581 1.80581 1.80581 1.80581 1.80216 1.80216 1.80216 1.80216 1.80216 1.79945 1.79945 1.79945 1.79945 1.79945 1.79761 1.79761 1.79761 1.79761 1.79761 1.79659 1.79659 1.79659 1.79659 1.79659 1.79632 1.79632 1.79632 1.79632 1.79632 1.7968 1.7968 1.7968 1.7968 1.7968 1.79802 1.79802 1.79802 1.79802 1.79802 1.80003 1.80003 1.80003 1.80003 1.80003 1.8029 1.8029 1.8029 1.8029 1.8029 1.80672 1.80672 1.80672 1.80672 1.80672 1.81158 1.81158 1.81158 1.81158 1.81158 1.81762 1.81762 1.81762 1.81762 1.81762 1.82501 1.82501 1.82501 1.82501 1.82501 1.83429 1.83429 1.83429 1.83429 1.83429 1.84675 1.84675 1.84675 1.84675 1.84675 1.86537 1.86537 1.86537 1.86537 1.86537 1.89608 1.89608 1.89608 1.89608 1.89608 1.9493 1.9493 1.9493 1.9493 1.9493 2.04089 2.04089 2.04089 2.04089 2.04089 2.19051 2.19051 2.19051 2.19051 2.19051 2.4066 2.4066 2.4066 2.4066 2.4066 2.64796 2.64796 2.64796 2.64796 2.64796 2.81264 2.81264 2.81264 2.81264 2.81264 2.86355 2.86355 2.86355 2.86355 2.86355 2.86411 2.86411 2.86411 2.86411 2.86411 2.85658 2.85658 2.85658 2.85658 2.85658 2.84921 2.84921 2.84921 2.84921 2.84921 2.84285 2.84285 2.84285 2.84285 2.84285 2.83762 2.83762 2.83762 2.83762 2.83762 2.83347 2.83347 2.83347 2.83347 2.83347 2.83028 2.83028 2.83028 2.83028 2.83028 2.82788 2.82788 2.82788 2.82788 2.82788 2.8261 2.8261 2.8261 2.8261 2.8261 2.82471 2.82471 2.82471 2.82471 2.82471 2.82362 2.82362 2.82362 2.82362 2.82362 2.82238 2.82238 2.82238 2.82238 2.82238 2.82088 2.82088 2.82088 2.82088 2.82088 2.81792 2.81792 2.81792 2.81792 2.81792 2.81296 2.81296 2.81296 2.81296 2.81296 2.80188 2.80188 2.80188 2.80188 2.80188 2.78148 2.78148 2.78148 2.78148 2.78148 2.73803 2.73803 2.73803 2.73803 2.73803 2.65891 2.65891 2.65891 2.65891 2.65891 2.51064 2.51064 2.51064 2.51064 2.51064 2.29762 2.29762 2.29762 2.29762 2.29762 2.07679 2.07679 2.07679 2.07679 2.07679 2.0126 2.0126 2.0126 2.0126 2.0126 2.00195 2.00195 2.00195 2.00195 2.00195 2.0003 2.0003 2.0003 2.0003 2.0003 2.00005 2.00005 2.00005 2.00005 2.00005 2.00001 2.00001 2.00001 2.00001 2.00001 2 2 2 2 2 2 2 2 2 2 2 2 2 2 2 2 2 2 2 2 2 2 2 2 2 2 2 2 2 2 2 2 2 2 2 2 2 2 2 2 2 2 2 2 2 2 2 2 2 2 2 2 2 2 2 2 2 2 2 2 2 2 2 2 2 2 2 2 2 2 2 2 2 2 2 2 2 2 2 2 2 2 2 2 2 2 2 2 2 2 2 2 2 2 2 2 2 2 2 2 2 2 2 2 2 2 2 2 2 2 2 2 2 2 2 2 2 2 2 2 2 2 2 2 2 2 2 2 2 2 2 2 2 2 2 2 2 2 2 2 2 2 2 2 2 2 2 2 2 2 2 2 2 2 2 2 2 2 2 2 2 2 2 2 2 2 2 2 2 2 2 2 2 2 2 2 2 2 2 2 2 2 2 2 2 2 2 2 2 2 2 2 2 2 2 2 2 2 2 2 2 2 2 2 2 2 2 2 2 2
				</DataArray>
				<DataArray Name="F1" type="Float32" format="ascii">
 1 1 1 1 1 1 1 1 1 1 1 1 1 1 1 1 1 1 1 1 1 1 1 1 1 1 1 1 1 1 1 1 1 1 1 1 1 1 1 1 1 1 1 1 1 1 1 1 1 1 1 1 1 1 1 1 1 1 1 1 1 1 1 1 1 1 1 1 1 1 1 1 1 1 1 1 1 1 1 1 1 1 1 1 1 1 1 1 1 1 1 1 1 1 1 1 1 1 1 1 1 1 1 1 1 1 1 1 1 1 1 1 1 1 1 1 1 1 1 1 1 1 1 1 1 1 1 1 1 1 1 1 1 1 1 1 1 1 1 1 1 1 1 1 1 1 1 1 1 1 1 1 1 1 1 1 1 1 1 1 1 1 1 1 1 1 1 1 1 1 1 1 1 1 1 1 1 1 1 1 1 1 1 1 1 1 1 1 1 1 1 1 1 1 1 1 1 1 1 1 1 1 1 1 1 1 1 1 1 1 1 1 1 1 1 1 1 1 1 1 1 1 1 1 1 1 1 1 1 1 1 1 1 1 1 1 1 1 1 1 1 1 1 1 1 1 1 1 1 1 1 1 1 1 1 1 1 1 1 1 1 1 1 1 1 1 1 1 1 1 1 1 1 1 1 1 1 1 1 1 1 1 1 1 1 1 1 1 1 1 1 1 1 1 1 1 1 1 1 1 1 1 1 1 1 1 1 1 1 1 1 1 1 1 1 1 1 1 1 1 1 1 1 1 1 1 1 1 1 1 1 1 1 1 1 1 1 1 1 1 1 1 1 1 1 1 1 1 1 1 1 1 1 1 1 1 1 1 1 1 1 1 1 1 1 1 1 1 1 1 1 1 1 1 1 1 1 1 1 1 1 1 1 1 1 1 1 1 1 1 1 1 1 1 1 1 1 1 1 1 1 1 1 1 1 1 1 1 1 1 1 1 1 1 1 1 1 1 1 1 1 1 1 1 1 1 1 1 1 1 1 1 1 1 1 1 1 1 1 1 1 1 1 1 1 1 1 1 1 1 1 1 1 1 1 1 1 1 1 1 1 1 1 1 1 1 1 1 1 1 1 1 1 1 1 1 1 1 1 1 1 1 1 1 1 1 1 1 1 1 1 1 1 1 1 1 1 1 1 1 1 1 1 1 1 1 1 1 1 1 1 1 1 1 1 1 1 1 1 1 1 1 1 1 1 1 1 1 1 1 1 1 1 1 1 1 1 1 1 1 1 1 1 1 1 1 1 1 1 1 1 1 1 1 1 1 1 1 1 1 1 1 1 1 1 0.999999 0.999999 0.999999 0.999999 0.999999 0.999998 0.999998 0.999998 0.999998 0.999998 0.99999 0.99999 0.99999 0.99999 0.99999 0.99996 0.99996 0.99996 0.99996 0.99996 0.999855 0.999855 0.999855 0.999855 0.999855 0.99951 0.99951 0.99951 0.99951 0.99951 0.99847 0.99847 0.99847 0.99847 0.99847 0.995598 0.995598 0.995598 0.995598 0.995598 0.988324 0.988324 0.988324 0.988324 0.988324 0.971488 0.971488 0.971488 0.971488 0.971488 0.935984 0.935984 0.935984 0.935984 0.935984 0.868164 0.868164 0.868164 0.868164 0.868164 0.752161 0.752161 0.752161 0.752161 0.752161 0.578796 0.578796 0.578796 0.578796 0.578796 0.363865 0.363865 0.363865 0.363865 0.363865 0.163797 0.163797 0.163797 0.163797 0.163797 0.0443559 0.0443559 0.0443559 0.0443559 0.0443559 0.00621482 0.00621482 0.00621482 0.00621482 0.00621482 0.000446947 0.000446947 0.000446947 0.000446947 0.000446947 1.97947e-05 1.97947e-05 1.97947e-05 1.97947e-05 1.97947e-05 6.82799e-07 6.82799e-07 6.82799e-07 6.82799e-07 6.82799e-07 2.12618e-08 2.12618e-08 2.12618e-08 2.12618e-08 2.12618e-08 6.36239e-10 6.36239e-10 6.36239e-10 6.36239e-10 6.36239e-10 1.86977e-11 1.86977e-11 1.86977e-11 1.86977e-11 1.86977e-11 5.4157e-13 5.4157e-13 5.4157e-13 5.4157e-13 5.4157e-13 1.51736e-14 1.51736e-14 1.51736e-14 1.51736e-14 1.51736e-14 7.11249e-16 7.11249e-16 7.11249e-16 7.11249e-16 7.11249e-16 0 0 0 0 0 0 0 0 0 0 0 0 0 0 0 0 0 0 0 0 0 0 0 0 0 0 0 0 0 0 0 0 0 0 0 0 0 0 0 0 0 0 0 0 0 0 0 0 0 0 0 0 0 0 0 0 0 0 0 0 0 0 0 0 0 0 0 0 0 0 0 0 0 0 0 0 0 0 0 0 0 0 0 0 0 0 0 0 0 0 0 0 0 0 0 0 0 0 0 0 0 0 0 0 0 0 0 0 0 0 0 0 0 0 0 0 0 0 0 0 0 0 0 0 0 0 0 0 0 0 0 0 0 0 0 0 0 0 0 0 0 0 0 0 0 0 0 0 0 0 0 0 0 0 0 0 0 0 0 0 0 0 0 0 0 0 0 0 0 0 0 0 0 0 0 0 0 0 0 0 0 0 0 0 0 0 0 0 0 0 0 0 0 0 0 0 0 0 0 0 0 0 0 0 0 0 0 0 0 0 0 0 0 0 0 0 0 0 0 0 0 0 0 0 0 0 0 0 0 0 0 0 0 0 0 0 0 0 0 0 0 0 0 0 0 0 0 0 0 0 0 0 0 0 0 0 0 0 0 0 0 0 0 0 0 0 0 0 0 0 0 0 0 0 0 0 0 0 0 0 0 0 0 0 0 0 0 0 0 0 0 0 0 0 0 0 0 0 0 0
				</DataArray>
				<DataArray Name="F2" type="Float32" format="ascii">
 0 0 0 0 0 0 0 0 0 0 0 0 0 0 0 0 0 0 0 0 0 0 0 0 0 0 0 0 0 0 0 0 0 0 0 0 0 0 0 0 0 0 0 0 0 0 0 0 0 0 0 0 0 0 0 0 0 0 0 0 0 0 0 0 0 0 0 0 0 0 0 0 0 0 0 0 0 0 0 0 0 0 0 0 0 0 0 0 0 0 0 0 0 0 0 0 0 0 0 0 0 0 0 0 0 0 0 0 0 0 0 0 0 0 0 0 0 0 0 0 0 0 0 0 0 0 0 0 0 0 0 0 0 0 0 0 0 0 0 0 0 0 0 0 0 0 0 0 0 0 0 0 0 0 0 0 0 0 0 0 0 0 0 0 0 0 0 0 0 0 0 0 0 0 0 0 0 0 0 0 0 0 0 0 0 0 0 0 0 0 0 0 0 0 0 0 0 0 0 0 0 0 0 0 0 0 0 0 0 0 0 0 0 0 0 0 0 0 0 0 0 0 0 0 0 0 0 0 0 0 0 0 0 0 0 0 0 0 0 0 0 0 0 0 0 0 0 0 0 0 0 0 0 0 0 0 0 0 0 0 0 0 0 0 0 0 0 0 0 0 0 0 0 0 0 0 0 0 0 0 0 0 0 0 0 0 0 0 0 0 0 0 0 0 0 0 0 0 0 0 0 0 0 0 0 0 0 0 0 0 0 0 0 0 0 0 0 0 0 0 0 0 0 0 0 0 0 0 0 0 0 0 0 0 0 0 0 0 0 0 0 0 0 0 0 0 0 0 0 0 0 0 0 0 0 0 0 0 0 0 0 0 0 0 0 0 0 0 0 0 0 0 0 0 0 0 0 0 0 0 0 0 0 0 0 0 0 0 0 0 0 0 0 0 0 0 0 0 0 0 0 0 0 0 0 0 0 0 0 0 0 0 0 0 0 0 0 0 0 0 0 0 0 0 0 0 0 0 0 0 0 0 0 0 0 0 0 0 0 0 0 0 0 0 0 0 0 0 0 0 0 0 0 0 0 0 0 0 0 0 0 0 0 0 0 0 0 0 0 0 0 0 0 0 0 0 0 0 0 0 0 0 0 0 0 0 0 0 0 0 0 0 0 0 0 0 0 0 0 0 0 0 0 0 0 0 0 0 0 0 2.10427e-16 2.10427e-16 2.10427e-16 2.10427e-16 2.10427e-16 1.20512e-15 1.20512e-15 1.20512e-15 1.20512e-15 1.20512e-15 8.71772e-15 8.71772e-15 8.71772e-15 8.71772e-15 8.71772e-15 9.8311e-14 9.8311e-14 9.8311e-14 9.8311e-14 9.8311e-14 9.96974e-13 9.96974e-13 9.96974e-13 9.96974e-13 9.96974e-13 8.83118e-12 8.83118e-12 8.83118e-12 8.83118e-12 8.83118e-12 6.95013e-11 6.95013e-11 6.95013e-11 6.95013e-11 6.95013e-11 4.92587e-10 4.92587e-10 4.92587e-10 4.92587e-10 4.92587e-10 3.17437e-09 3.17437e-09 3.17437e-09 3.17437e-09 3.17437e-09 1.87259e-08 1.87259e-08 1.87259e-08 1.87259e-08 1.87259e-08 1.01584e-07 1.01584e-07 1.01584e-07 1.01584e-07 1.01584e-07 5.08261e-07 5.08261e-07 5.08261e-07 5.08261e-07 5.08261e-07 2.34952e-06 2.34952e-06 2.34952e-06 2.34952e-06 2.34952e-06 1.00431e-05 1.00431e-05 1.00431e-05 1.00431e-05 1.00431e-05 3.97051e-05 3.97051e-05 3.97051e-05 3.97051e-05 3.97051e-05 0.000145147 0.000145147 0.000145147 0.000145147 0.000145147 0.000490349 0.000490349 0.000490349 0.000490349 0.000490349 0.00152965 0.00152965 0.00152965 0.00152965 0.00152965 0.00440213 0.00440213 0.00440213 0.00440213 0.00440213 0.011676 0.011676 0.011676 0.011676 0.011676 0.0285124 0.0285124 0.0285124 0.0285124 0.0285124 0.0640161 0.0640161 0.0640161 0.0640161 0.0640161 0.131836 0.131836 0.131836 0.131836 0.131836 0.247839 0.247839 0.247839 0.247839 0.247839 0.421204 0.421204 0.421204 0.421204 0.421204 0.636135 0.636135 0.636135 0.636135 0.636135 0.836203 0.836203 0.836203 0.836203 0.836203 0.955644 0.955644 0.955644 0.955644 0.955644 0.993785 0.993785 0.993785 0.993785 0.993785 0.999553 0.999553 0.999553 0.999553 0.999553 0.99998 0.99998 0.99998 0.99998 0.99998 0.999999 0.999999 0.999999 0.999999 0.999999 1 1 1 1 1 1 1 1 1 1 1 1 1 1 1 1 1 1 1 1 1 1 1 1 1 1 1 1 1 1 1 1 1 1 1 1 1 1 1 1 1 1 1 1 1 1 1 1 1 1 1 1 1 1 1 1 1 1 1 1 1 1 1 1 1 1 1 1 1 1 1 1 1 1 1 1 1 1 1 1 1 1 1 1 1 1 1 1 1 1 1 1 1 1 1 1 1 1 1 1 1 1 1 1 1 1 1 1 1 1 1 1 1 1 1 1 1 1 1 1 1 1 1 1 1 1 1 1 1 1 1 1 1 1 1 1 1 1 1 1 1 1 1 1 1 1 1 1 1 1 1 1 1 1 1 1 1 1 1 1 1 1 1 1 1 1 1 1 1 1 1 1 1 1 1 1 1 1 1 1 1 1 1 1 1 1 1 1 1 1 1 1 1 1 1 1 1 1 1 1 1 1 1 1 1 1 1 1 1 1 1 1 1 1 1 1 1 1 1 1 1 1 1 1 1 1 1 1 1 1 1 1 1 1 1 1 1 1 1 1 1 1 1 1 1 1 1 1 1 1 1 1 1 1 1 1 1 1 1 1 1 1 1 1 1 1 1 1 1 1 1 1 1 1 1 1 1 1 1 1 1 1 1 1 1 1 1 1 1 1 1 1 1 1 1 1 1 1 1 1 1 1 1 1 1 1 1 1 1 1 1 1 1 1 1 1 1 1 1 1 1 1 1 1 1 1 1 1 1 1
				</DataArray>
				<DataArray Name="F3" type="Float32" format="ascii">