<?xml version="1.0"?>
<VTKFile type="PolyData">
	<PolyData>
		<Piece NumberOfPoints="1206" NumberOfPolys="1000">
			<Points>
				<DataArray type="Float32" NumberOfComponents="3" format="ascii">
 0 0 0 0.02 0 0 0.04 0 0 0.06 0 0 0.08 0 0 0.1 0 0 0 0.005 0 0.02 0.005 0 0.04 0.005 0 0.06 0.005 0 0.08 0.005 0 0.1 0.005 0 0 0.01 0 0.02 0.01 0 0.04 0.01 0 0.06 0.01 0 0.08 0.01 0 0.1 0.01 0 0 0.015 0 0.02 0.015 0 0.04 0.015 0 0.06 0.015 0 0.08 0.015 0 0.1 0.015 0 0 0.02 0 0.02 0.02 0 0.04 0.02 0 0.06 0.02 0 0.08 0.02 0 0.1 0.02 0 0 0.025 0 0.02 0.025 0 0.04 0.025 0 0.06 0.025 0 0.08 0.025 0 0.1 0.025 0 0 0.03 0 0.02 0.03 0 0.04 0.03 0 0.06 0.03 0 0.08 0.03 0 0.1 0.03 0 0 0.035 0 0.02 0.035 0 0.04 0.035 0 0.06 0.035 0 0.08 0.035 0 0.1 0.035 0 0 0.04 0 0.02 0.04 0 0.04 0.04 0 0.06 0.04 0 0.08 0.04 0 0.1 0.04 0 0 0.045 0 0.02 0.045 0 0.04 0.045 0 0.06 0.045 0 0.08 0.045 0 0.1 0.045 0 0 0.05 0 0.02 0.05 0 0.04 0.05 0 0.06 0.05 0 0.08 0.05 0 0.1 0.05 0 0 0.055 0 0.02 0.055 0 0.04 0.055 0 0.06 0.055 0 0.08 0.055 0 0.1 0.055 0 0 0.06 0 0.02 0.06 0 0.04 0.06 0 0.06 0.06 0 0.08 0.06 0 0.1 0.06 0 0 0.065 0 0.02 0.065 0 0.04 0.065 0 0.06 0.065 0 0.08 0.065 0 0.1 0.065 0 0 0.07 0 0.02 0.07 0 0.04 0.07 0 0.06 0.07 0 0.08 0.07 0 0.1 0.07 0 0 0.075 0 0.02 0.075 0 0.04 0.075 0 0.06 0.075 0 0.08 0.075 0 0.1 0.075 0 0 0.08 0 0.02 0.08 0 0.04 0.08 0 0.06 0.08 0 0.08 0.08 0 0.1 0.08 0 0 0.085 0 0.02 0.085 0 0.04 0.085 0 0.06 0.085 0 0.08 0.085 0 0.1 0.085 0 0 0.09 0 0.02 0.09 0 0.04 0.09 0 0.06 0.09 0 0.08 0.09 0 0.1 0.09 0 0 0.095 0 0.02 0.095 0 0.04 0.095 0 0.06 0.095 0 0.08 0.095 0 0.1 0.095 0 0 0.1 0 0.02 0.1 0 0.04 0.1 0 0.06 0.1 0 0.08 0.1 0 0.1 0.1 0 0 0.105 0 0.02 0.105 0 0.04 0.105 0 0.06 0.105 0 0.08 0.105 0 0.1 0.105 0 0 0.11 0 0.02 0.11 0 0.04 0.11 0 0.06 0.11 0 0.08 0.11 0 0.1 0.11 0 0 0.115 0 0.02 0.115 0 0.04 0.115 0 0.06 0.115 0 0.08 0.115 0 0.1 0.115 0 0 0.12 0 0.02 0.12 0 0.04 0.12 0 0.06 0.12 0 0.08 0.12 0 0.1 0.12 0 0 0.125 0 0.02 0.125 0 0.04 0.125 0 0.06 0.125 0 0.08 0.125 0 0.1 0.125 0 0 0.13 0 0.02 0.13 0 0.04 0.13 0 0.06 0.13 0 0.08 0.13 0 0.1 0.13 0 0 0.135 0 0.02 0.135 0 0.04 0.135 0 0.06 0.135 0 0.08 0.135 0 0.1 0.135 0 0 0.14 0 0.02 0.14 0 0.04 0.14 0 0.06 0.14 0 0.08 0.14 0 0.1 0.14 0 0 0.145 0 0.02 0.145 0 0.04 0.145 0 0.06 0.145 0 0.08 0.145 0 0.1 0.145 0 0 0.15 0 0.02 0.15 0 0.04 0.15 0 0.06 0.15 0 0.08 0.15 0 0.1 0.15 0 0 0.155 0 0.02 0.155 0 0.04 0.155 0 0.06 0.155 0 0.08 0.155 0 0.1 0.155 0 0 0.16 0 0.02 0.16 0 0.04 0.16 0 0.06 0.16 0 0.08 0.16 0 0.1 0.16 0 0 0.165 0 0.02 0.165 0 0.04 0.165 0 0.06 0.165 0 0.08 0.165 0 0.1 0.165 0 0 0.17 0 0.02 0.17 0 0.04 0.17 0 0.06 0.17 0 0.08 0.17 0 0.1 0.17 0 0 0.175 0 0.02 0.175 0 0.04 0.175 0 0.06 0.175 0 0.08 0.175 0 0.1 0.175 0 0 0.18 0 0.02 0.18 0 0.04 0.18 0 0.06 0.18 0 0.08 0.18 0 0.1 0.18 0 0 0.185 0 0.02 0.185 0 0.04 0.185 0 0.06 0.185 0 0.08 0.185 0 0.1 0.185 0 0 0.19 0 0.02 0.19 0 0.04 0.19 0 0.06 0.19 0 0.08 0.19 0 0.1 0.19 0 0 0.195 0 0.02 0.195 0 0.04 0.195 0 0.06 0.195 0 0.08 0.195 0 0.1 0.195 0 0 0.2 0 0.02 0.2 0 0.04 0.2 0 0.06 0.2 0 0.08 0.2 0 0.1 0.2 0 0 0.205 0 0.02 0.205 0 0.04 0.205 0 0.06 0.205 0 0.08 0.205 0 0.1 0.205 0 0 0.21 0 0.02 0.21 0 0.04 0.21 0 0.06 0.21 0 0.08 0.21 0 0.1 0.21 0 0 0.215 0 0.02 0.215 0 0.04 0.215 0 0.06 0.215 0 0.08 0.215 0 0.1 0.215 0 0 0.22 0 0.02 0.22 0 0.04 0.22 0 0.06 0.22 0 0.08 0.22 0 0.1 0.22 0 0 0.225 0 0.02 0.225 0 0.04 0.225 0 0.06 0.225 0 0.08 0.225 0 0.1 0.225 0 0 0.23 0 0.02 0.23 0 0.04 0.23 0 0.06 0.23 0 0.08 0.23 0 0.1 0.23 0 0 0.235 0 0.02 0.235 0 0.04 0.235 0 0.06 0.235 0 0.08 0.235 0 0.1 0.235 0 0 0.24 0 0.02 0.24 0 0.04 0.24 0 0.06 0.24 0 0.08 0.24 0 0.1 0.24 0 0 0.245 0 0.02 0.245 0 0.04 0.245 0 0.06 0.245 0 0.08 0.245 0 0.1 0.245 0 0 0.25 0 0.02 0.25 0 0.04 0.25 0 0.06 0.25 0 0.08 0.25 0 0.1 0.25 0 0 0.255 0 0.02 0.255 0 0.04 0.255 0 0.06 0.255 0 0.08 0.255 0 0.1 0.255 0 0 0.26 0 0.02 0.26 0 0.04 0.26 0 0.06 0.26 0 0.08 0.26 0 0.1 0.26 0 0 0.265 0 0.02 0.265 0 0.04 0.265 0 0.06 0.265 0 0.08 0.265 0 0.1 0.265 0 0 0.27 0 0.02 0.27 0 0.04 0.27 0 0.06 0.27 0 0.08 0.27 0 0.1 0.27 0 0 0.275 0 0.02 0.275 0 0.04 0.275 0 0.06 0.275 0 0.08 0.275 0 0.1 0.275 0 0 0.28 0 0.02 0.28 0 0.04 0.28 0 0.06 0.28 0 0.08 0.28 0 0.1 0.28 0 0 0.285 0 0.02 0.285 0 0.04 0.285 0 0.06 0.285 0 0.08 0.285 0 0.1 0.285 0 0 0.29 0 0.02 0.29 0 0.04 0.29 0 0.06 0.29 0 0.08 0.29 0 0.1 0.29 0 0 0.295 0 0.02 0.295 0 0.04 0.295 0 0.06 0.295 0 0.08 0.295 0 0.1 0.295 0 0 0.3 0 0.02 0.3 0 0.04 0.3 0 0.06 0.3 0 0.08 0.3 0 0.1 0.3 0 0 0.305 0 0.02 0.305 0 0.04 0.305 0 0.06 0.305 0 0.08 0.305 0 0.1 0.305 0 0 0.31 0 0.02 0.31 0 0.04 0.31 0 0.06 0.31 0 0.08 0.31 0 0.1 0.31 0 0 0.315 0 0.02 0.315 0 0.04 0.315 0 0.06 0.315 0 0.08 0.315 0 0.1 0.315 0 0 0.32 0 0.02 0.32 0 0.04 0.32 0 0.06 0.32 0 0.08 0.32 0 0.1 0.32 0 0 0.325 0 0.02 0.325 0 0.04 0.325 0 0.06 0.325 0 0.08 0.325 0 0.1 0.325 0 0 0.33 0 0.02 0.33 0 0.04 0.33 0 0.06 0.33 0 0.08 0.33 0 0.1 0.33 0 0 0.335 0 0.02 0.335 0 0.04 0.335 0 0.06 0.335 0 0.08 0.335 0 0.1 0.335 0 0 0.34 0 0.02 0.34 0 0.04 0.34 0 0.06 0.34 0 0.08 0.34 0 0.1 0.34 0 0 0.345 0 0.02 0.345 0 0.04 0.345 0 0.06 0.345 0 0.08 0.345 0 0.1 0.345 0 0 0.35 0 0.02 0.35 0 0.04 0.35 0 0.06 0.35 0 0.08 0.35 0 0.1 0.35 0 0 0.355 0 0.02 0.355 0 0.04 0.355 0 0.06 0.355 0 0.08 0.355 0 0.1 0.355 0 0 0.36 0 0.02 0.36 0 0.04 0.36 0 0.06 0.36 0 0.08 0.36 0 0.1 0.36 0 0 0.365 0 0.02 0.365 0 0.04 0.365 0 0.06 0.365 0 0.08 0.365 0 0.1 0.365 0 0 0.37 0 0.02 0.37 0 0.04 0.37 0 0.06 0.37 0 0.08 0.37 0 0.1 0.37 0 0 0.375 0 0.02 0.375 0 0.04 0.375 0 0.06 0.375 0 0.08 0.375 0 0.1 0.375 0 0 0.38 0 0.02 0.38 0 0.04 0.38 0 0.06 0.38 0 0.08 0.38 0 0.1 0.38 0 0 0.385 0 0.02 0.385 0 0.04 0.385 0 0.06 0.385 0 0.08 0.385 0 0.1 0.385 0 0 0.39 0 0.02 0.39 0 0.04 0.39 0 0.06 0.39 0 0.08 0.39 0 0.1 0.39 0 0 0.395 0 0.02 0.395 0 0.04 0.395 0 0.06 0.395 0 0.08 0.395 0 0.1 0.395 0 0 0.4 0 0.02 0.4 0 0.04 0.4 0 0.06 0.4 0 0.08 0.4 0 0.1 0.4 0 0 0.405 0 0.02 0.405 0 0.04 0.405 0 0.06 0.405 0 0.08 0.405 0 0.1 0.405 0 0 0.41 0 0.02 0.41 0 0.04 0.41 0 0.06 0.41 0 0.08 0.41 0 0.1 0.41 0 0 0.415 0 0.02 0.415 0 0.04 0.415 0 0.06 0.415 0 0.08 0.415 0 0.1 0.415 0 0 0.42 0 0.02 0.42 0 0.04 0.42 0 0.06 0.42 0 0.08 0.42 0 0.1 0.42 0 0 0.425 0 0.02 0.425 0 0.04 0.425 0 0.06 0.425 0 0.08 0.425 0 0.1 0.425 0 0 0.43 0 0.02 0.43 0 0.04 0.43 0 0.06 0.43 0 0.08 0.43 0 0.1 0.43 0 0 0.435 0 0.02 0.435 0 0.04 0.435 0 0.06 0.435 0 0.08 0.435 0 0.1 0.435 0 0 0.44 0 0.02 0.44 0 0.04 0.44 0 0.06 0.44 0 0.08 0.44 0 0.1 0.44 0 0 0.445 0 0.02 0.445 0 0.04 0.445 0 0.06 0.445 0 0.08 0.445 0 0.1 0.445 0 0 0.45 0 0.02 0.45 0 0.04 0.45 0 0.06 0.45 0 0.08 0.45 0 0.1 0.45 0 0 0.455 0 0.02 0.455 0 0.04 0.455 0 0.06 0.455 0 0.08 0.455 0 0.1 0.455 0 0 0.46 0 0.02 0.46 0 0.04 0.46 0 0.06 0.46 0 0.08 0.46 0 0.1 0.46 0 0 0.465 0 0.02 0.465 0 0.04 0.465 0 0.06 0.465 0 0.08 0.465 0 0.1 0.465 0 0 0.47 0 0.02 0.47 0 0.04 0.47 0 0.06 0.47 0 0.08 0.47 0 0.1 0.47 0 0 0.475 0 0.02 0.475 0 0.04 0.475 0 0.06 0.475 0 0.08 0.475 0 0.1 0.475 0 0 0.48 0 0.02 0.48 0 0.04 0.48 0 0.06 0.48 0 0.08 0.48 0 0.1 0.48 0 0 0.485 0 0.02 0.485 0 0.04 0.485 0 0.06 0.485 0 0.08 0.485 0 0.1 0.485 0 0 0.49 0 0.02 0.49 0 0.04 0.49 0 0.06 0.49 0 0.08 0.49 0 0.1 0.49 0 0 0.495 0 0.02 0.495 0 0.04 0.495 0 0.06 0.495 0 0.08 0.495 0 0.1 0.495 0 0 0.5 0 0.02 0.5 0 0.04 0.5 0 0.06 0.5 0 0.08 0.5 0 0.1 0.5 0 0 0.505 0 0.02 0.505 0 0.04 0.505 0 0.06 0.505 0 0.08 0.505 0 0.1 0.505 0 0 0.51 0 0.02 0.51 0 0.04 0.51 0 0.06 0.51 0 0.08 0.51 0 0.1 0.51 0 0 0.515 0 0.02 0.515 0 0.04 0.515 0 0.06 0.515 0 0.08 0.515 0 0.1 0.515 0 0 0.52 0 0.02 0.52 0 0.04 0.52 0 0.06 0.52 0 0.08 0.52 0 0.1 0.52 0 0 0.525 0 0.02 0.525 0 0.04 0.525 0 0.06 0.525 0 0.08 0.525 0 0.1 0.525 0 0 0.53 0 0.02 0.53 0 0.04 0.53 0 0.06 0.53 0 0.08 0.53 0 0.1 0.53 0 0 0.535 0 0.02 0.535 0 0.04 0.535 0 0.06 0.535 0 0.08 0.535 0 0.1 0.535 0 0 0.54 0 0.02 0.54 0 0.04 0.54 0 0.06 0.54 0 0.08 0.54 0 0.1 0.54 0 0 0.545 0 0.02 0.545 0 0.04 0.545 0 0.06 0.545 0 0.08 0.545 0 0.1 0.545 0 0 0.55 0 0.02 0.55 0 0.04 0.55 0 0.06 0.55 0 0.08 0.55 0 0.1 0.55 0 0 0.555 0 0.02 0.555 0 0.04 0.555 0 0.06 0.555 0 0.08 0.555 0 0.1 0.555 0 0 0.56 0 0.02 0.56 0 0.04 0.56 0 0.06 0.56 0 0.08 0.56 0 0.1 0.56 0 0 0.565 0 0.02 0.565 0 0.04 0.565 0 0.06 0.565 0 0.08 0.565 0 0.1 0.565 0 0 0.57 0 0.02 0.57 0 0.04 0.57 0 0.06 0.57 0 0.08 0.57 0 0.1 0.57 0 0 0.575 0 0.02 0.575 0 0.04 0.575 0 0.06 0.575 0 0.08 0.575 0 0.1 0.575 0 0 0.58 0 0.02 0.58 0 0.04 0.58 0 0.06 0.58 0 0.08 0.58 0 0.1 0.58 0 0 0.585 0 0.02 0.585 0 0.04 0.585 0 0.06 0.585 0 0.08 0.585 0 0.1 0.585 0 0 0.59 0 0.02 0.59 0 0.04 0.59 0 0.06 0.59 0 0.08 0.59 0 0.1 0.59 0 0 0.595 0 0.02 0.595 0 0.04 0.595 0 0.06 0.595 0 0.08 0.595 0 0.1 0.595 0 0 0.6 0 0.02 0.6 0 0.04 0.6 0 0.06 0.6 0 0.08 0.6 0 0.1 0.6 0 0 0.605 0 0.02 0.605 0 0.04 0.605 0 0.06 0.605 0 0.08 0.605 0 0.1 0.605 0 0 0.61 0 0.02 0.61 0 0.04 0.61 0 0.06 0.61 0 0.08 0.61 0 0.1 0.61 0 0 0.615 0 0.02 0.615 0 0.04 0.615 0 0.06 0.615 0 0.08 0.615 0 0.1 0.615 0 0 0.62 0 0.02 0.62 0 0.04 0.62 0 0.06 0.62 0 0.08 0.62 0 0.1 0.62 0 0 0.625 0 0.02 0.625 0 0.04 0.625 0 0.06 0.625 0 0.08 0.625 0 0.1 0.625 0 0 0.63 0 0.02 0.63 0 0.04 0.63 0 0.06 0.63 0 0.08 0.63 0 0.1 0.63 0 0 0.635 0 0.02 0.635 0 0.04 0.635 0 0.06 0.635 0 0.08 0.635 0 0.1 0.635 0 0 0.64 0 0.02 0.64 0 0.04 0.64 0 0.06 0.64 0 0.08 0.64 0 0.1 0.64 0 0 0.645 0 0.02 0.645 0 0.04 0.645 0 0.06 0.645 0 0.08 0.645 0 0.1 0.645 0 0 0.65 0 0.02 0.65 0 0.04 0.65 0 0.06 0.65 0 0.08 0.65 0 0.1 0.65 0 0 0.655 0 0.02 0.655 0 0.04 0.655 0 0.06 0.655 0 0.08 0.655 0 0.1 0.655 0 0 0.66 0 0.02 0.66 0 0.04 0.66 0 0.06 0.66 0 0.08 0.66 0 0.1 0.66 0 0 0.665 0 0.02 0.665 0 0.04 0.665 0 0.06 0.665 0 0.08 0.665 0 0.1 0.665 0 0 0.67 0 0.02 0.67 0 0.04 0.67 0 0.06 0.67 0 0.08 0.67 0 0.1 0.67 0 0 0.675 0 0.02 0.675 0 0.04 0.675 0 0.06 0.675 0 0.08 0.675 0 0.1 0.675 0 0 0.68 0 0.02 0.68 0 0.04 0.68 0 0.06 0.68 0 0.08 0.68 0 0.1 0.68 0 0 0.685 0 0.02 0.685 0 0.04 0.685 0 0.06 0.685 0 0.08 0.685 0 0.1 0.685 0 0 0.69 0 0.02 0.69 0 0.04 0.69 0 0.06 0.69 0 0.08 0.69 0 0.1 
[...]
			<CellData Scalars="Density">
				<DataArray Name="Density" type="Float32" format="ascii">
 1 1 1 1 1 1 1 1 1 1 1 1 1 1 1 1 1 1 1 1 1 1 1 1 1 1 1 1 1 1 1 1 1 1 1 1 1 1 1 1 1 1 1 1 1 1 1 1 1 1 1 1 1 1 1 1 1 1 1 1 1 1 1 1 1 1 1 1 1 1 1 1 1 1 1 1 1 1 1 1 1 1 1 1 1 1 1 1 1 1 1 1 1 1 1 1 1 1 1 1 1 1 1 1 1 1 1 1 1 1 1 1 1 1 1 1 1 1 1 1 1 1 1 1 1 1 1 1 1 1 1 1 1 1 1 1 1 1 1 1 1 1 1 1 1 1 1 1 1 1 1 1 1 1 1 1 1 1 1 1 1 1 1 1 1 1 1 1 1 1 1 1 1 1 1 1 1 1 1 1 1 1 1 1 1 1 1 1 1 1 1 1 1 1 1 1 1 1 1 1 1 1 1 1 1 1 1 1 1 1 1 1 1 1 1 0.999999 0.999999 0.999999 0.999999 0.999999 0.999998 0.999998 0.999998 0.999998 0.999998 0.999996 0.999996 0.999996 0.999996 0.999996 0.999989 0.999989 0.999989 0.999989 0.999989 0.99997 0.99997 0.99997 0.99997 0.99997 0.999923 0.999923 0.999923 0.999923 0.999923 0.999801 0.999801 0.999801 0.999801 0.999801 0.999508 0.999508 0.999508 0.999508 0.999508 0.998893 0.998893 0.998893 0.998893 0.998893 0.997735 0.997735 0.997735 0.997735 0.997735 0.99577 0.99577 0.99577 0.99577 0.99577 0.992723 0.992723 0.992723 0.992723 0.992723 0.988363 0.988363 0.988363 0.988363 0.988363 0.98254 0.98254 0.98254 0.98254 0.98254 0.975203 0.975203 0.975203 0.975203 0.975203 0.966404 0.966404 0.966404 0.966404 0.966404 0.956263 0.956263 0.956263 0.956263 0.956263 0.94495 0.94495 0.94495 0.94495 0.94495 0.932651 0.932651 0.932651 0.932651 0.932651 0.919552 0.919552 0.919552 0.919552 0.919552 0.905824 0.905824 0.905824 0.905824 0.905824 0.891617 0.891617 0.891617 0.891617 0.891617 0.877061 0.877061 0.877061 0.877061 0.877061 0.862262 0.862262 0.862262 0.862262 0.862262 0.847313 0.847313 0.847313 0.847313 0.847313 0.832284 0.832284 0.832284 0.832284 0.832284 0.817237 0.817237 0.817237 0.817237 0.817237 0.802219 0.802219 0.802219 0.802219 0.802219 0.787271 0.787271 0.787271 0.787271 0.787271 0.772426 0.772426 0.772426 0.772426 0.772426 0.75771 0.75771 0.75771 0.75771 0.75771 0.743146 0.743146 0.743146 0.743146 0.743146 0.728753 0.728753 0.728753 0.728753 0.728753 0.714545 0.714545 0.714545 0.714545 0.714545 0.700538 0.700538 0.700538 0.700538 0.700538 0.686741 0.686741 0.686741 0.686741 0.686741 0.673167 0.673167 0.673167 0.673167 0.673167 0.659824 0.659824 0.659824 0.659824 0.659824 0.646722 0.646722 0.646722 0.646722 0.646722 0.633868 0.633868 0.633868 0.633868 0.633868 0.621271 0.621271 0.621271 0.621271 0.621271 0.60894 0.60894 0.60894 0.60894 0.60894 0.596883 0.596883 0.596883 0.596883 0.596883 0.585111 0.585111 0.585111 0.585111 0.585111 0.573632 0.573632 0.573632 0.573632 0.573632 0.562458 0.562458 0.562458 0.562458 0.562458 0.551601 0.551601 0.551601 0.551601 0.551601 0.541075 0.541075 0.541075 0.541075 0.541075 0.530893 0.530893 0.530893 0.530893 0.530893 0.521072 0.521072 0.521072 0.521072 0.521072 0.511629 0.511629 0.511629 0.511629 0.511629 0.502582 0.502582 0.502582 0.502582 0.502582 0.493953 0.493953 0.493953 0.493953 0.493953 0.485762 0.485762 0.485762 0.485762 0.485762 0.47803 0.47803 0.47803 0.47803 0.47803 0.470778 0.470778 0.470778 0.470778 0.470778 0.464027 0.464027 0.464027 0.464027 0.464027 0.457795 0.457795 0.457795 0.457795 0.457795 0.452096 0.452096 0.452096 0.452096 0.452096 0.446939 0.446939 0.446939 0.446939 0.446939 0.442328 0.442328 0.442328 0.442328 0.442328 0.438259 0.438259 0.438259 0.438259 0.438259 0.434718 0.434718 0.434718 0.434718 0.434718 0.431683 0.431683 0.431683 0.431683 0.431683 0.429123 0.429123 0.429123 0.429123 0.429123 0.426999 0.426999 0.426999 0.426999 0.426999 0.425263 0.425263 0.425263 0.425263 0.425263 0.423864 0.423864 0.423864 0.423864 0.423864 0.422747 0.422747 0.422747 0.422747 0.422747 0.421855 0.421855 0.421855 0.421855 0.421855 0.421134 0.421134 0.421134 0.421134 0.421134 0.420527 0.420527 0.420527 0.420527 0.420527 0.419981 0.419981 0.419981 0.419981 0.419981 0.419444 0.419444 0.419444 0.419444 0.419444 0.418866 0.418866 0.418866 0.418866 0.418866 0.418195 0.418195 0.418195 0.418195 0.418195 0.417402 0.417402 0.417402 0.417402 0.417402 0.416448 0.416448 0.416448 0.416448 0.416448 0.4153 0.4153 0.4153 0.4153 0.4153 0.413935 0.413935 0.413935 0.413935 0.413935 0.412286 0.412286 0.412286 0.412286 0.412286 0.41021 0.41021 0.41021 0.41021 0.41021 0.407343 0.407343 0.407343 0.407343 0.407343 0.402958 0.402958 0.402958 0.402958 0.402958 0.395782 0.395782 0.395782 0.395782 0.395782 0.383991 0.383991 0.383991 0.383991 0.383991 0.365584 0.365584 0.365584 0.365584 0.365584 0.339798 0.339798 0.339798 0.339798 0.339798 0.309456 0.309456 0.309456 0.309456 0.309456 0.282695 0.282695 0.282695 0.282695 0.282695 0.267776 0.267776 0.267776 0.267776 0.267776 0.263743 0.263743 0.263743 0.263743 0.263743 0.263798 0.263798 0.263798 0.263798 0.263798 0.26446 0.26446 0.26446 0.26446 0.26446 0.265106 0.265106 0.265106 0.265106 0.265106 0.265674 0.265674 0.265674 0.265674 0.265674 0.266158 0.266158 0.266158 0.266158 0.266158 0.266557 0.266557 0.266557 0.266557 0.266557 0.266876 0.266876 0.266876 0.266876 0.266876 0.267127 0.267127 0.267127 0.267127 0.267127 0.267319 0.267319 0.267319 0.267319 0.267319 0.267466 0.267466 0.267466 0.267466 0.267466 0.267572 0.267572 0.267572 0.267572 0.267572 0.267647 0.267647 0.267647 0.267647 0.267647 0.267677 0.267677 0.267677 0.267677 0.267677 0.26769 0.26769 0.26769 0.26769 0.26769 0.267566 0.267566 0.267566 0.267566 0.267566 0.267413 0.267413 0.267413 0.267413 0.267413 0.266774 0.266774 0.266774 0.266774 0.266774 0.265907 0.265907 0.265907 0.265907 0.265907 0.263412 0.263412 0.263412 0.263412 0.263412 0.259458 0.259458 0.259458 0.259458 0.259458 0.250277 0.250277 0.250277 0.250277 0.250277 0.235527 0.235527 0.235527 0.235527 0.235527 0.208411 0.208411 0.208411 0.208411 0.208411 0.174837 0.174837 0.174837 0.174837 0.174837 0.139306 0.139306 0.139306 0.139306 0.139306 0.127535 0.127535 0.127535 0.127535 0.127535 0.1254 0.1254 0.1254 0.1254 0.1254 0.125061 0.125061 0.125061 0.125061 0.125061 0.125009 0.125009 0.125009 0.125009 0.125009 0.125001 0.125001 0.125001 0.125001 0.125001 0.125 0.125 0.125 0.125 0.125 0.125 0.125 0.125 0.125 0.125 0.125 0.125 0.125 0.125 0.125 0.125 0.125 0.125 0.125 0.125 0.125 0.125 0.125 0.125 0.125 0.125 0.125 0.125 0.125 0.125 0.125 0.125 0.125 0.125 0.125 0.125 0.125 0.125 0.125 0.125 0.125 0.125 0.125 0.125 0.125 0.125 0.125 0.125 0.125 0.125 0.125 0.125 0.125 0.125 0.125 0.125 0.125 0.125 0.125 0.125 0.125 0.125 0.125 0.125 0.125 0.125 0.125 0.125 0.125 0.125 0.125 0.125 0.125 0.125 0.125 0.125 0.125 0.125 0.125 0.125 0.125 0.125 0.125 0.125 0.125 0.125 0.125 0.125 0.125 0.125 0.125 0.125 0.125 0.125 0.125 0.125 0.125 0.125 0.125 0.125 0.125 0.125 0.125 0.125 0.125 0.125 0.125 0.125 0.125 0.125 0.125 0.125 0.125 0.125 0.125 0.125 0.125 0.125 0.125 0.125 0.125 0.125 0.125 0.125 0.125 0.125 0.125 0.125 0.125 0.125 0.125 0.125 0.125 0.125 0.125 0.125 0.125 0.125 0.125 0.125 0.125 0.125 0.125 0.125 0.125 0.125 0.125 0.125 0.125 0.125 0.125 0.125 0.125 0.125 0.125 0.125 0.125 0.125 0.125 0.125 0.125 0.125 0.125 0.125 0.125 0.125 0.125 0.125 0.125 0.125 0.125 0.125 0.125 0.125 0.125
				</DataArray>
				<DataArray Name="Energy" type="Float32" format="ascii">
 2.5 2.5 2.5 2.5 2.5 2.5 2.5 2.5 2.5 2.5 2.5 2.5 2.5 2.5 2.5 2.5 2.5 2.5 2.5 2.5 2.5 2.5 2.5 2.5 2.5 2.5 2.5 2.5 2.5 2.5 2.5 2.5 2.5 2.5 2.5 2.5 2.5 2.5 2.5 2.5 2.5 2.5 2.5 2.5 2.5 2.5 2.5 2.5 2.5 2.5 2.5 2.5 2.5 2.5 2.5 2.5 2.5 2.5 2.5 2.5 2.5 2.5 2.5 2.5 2.5 2.5 2.5 2.5 2.5 2.5 2.5 2.5 2.5 2.5 2.5 2.5 2.5 2.5 2.5 2.5 2.5 2.5 2.5 2.5 2.5 2.5 2.5 2.5 2.5 2.5 2.5 2.5 2.5 2.5 2.5 2.5 2.5 2.5 2.5 2.5 2.5 2.5 2.5 2.5 2.5 2.5 2.5 2.5 2.5 2.5 2.5 2.5 2.5 2.5 2.5 2.5 2.5 2.5 2.5 2.5 2.5 2.5 2.5 2.5 2.5 2.5 2.5 2.5 2.5 2.5 2.5 2.5 2.5 2.5 2.5 2.5 2.5 2.5 2.5 2.5 2.5 2.5 2.5 2.5 2.5 2.5 2.5 2.5 2.5 2.5 2.5 2.5 2.5 2.5 2.5 2.5 2.5 2.5 2.5 2.5 2.5 2.5 2.5 2.5 2.5 2.5 2.5 2.5 2.5 2.5 2.5 2.5 2.5 2.5 2.5 2.5 2.5 2.5 2.5 2.5 2.5 2.5 2.5 2.5 2.5 2.5 2.5 2.5 2.5 2.5 2.5 2.5 2.5 2.5 2.5 2.5 2.5 2.5 2.5 2.5 2.5 2.5 2.5 2.5 2.5 2.5 2.5 2.5 2.5 2.5 2.5 2.5 2.5 2.5 2.5 2.5 2.5 2.5 2.5 2.5 2.5 2.5 2.5 2.5 2.5 2.5 2.5 2.5 2.5 2.5 2.49999 2.49999 2.49999 2.49999 2.49999 2.49997 2.49997 2.49997 2.49997 2.49997 2.49992 2.49992 2.49992 2.49992 2.49992 2.4998 2.4998 2.4998 2.4998 2.4998 2.49951 2.49951 2.49951 2.49951 2.49951 2.49889 2.49889 2.49889 2.49889 2.49889 2.49773 2.49773 2.49773 2.49773 2.49773 2.49577 2.49577 2.49577 2.49577 2.49577 2.49272 2.49272 2.49272 2.49272 2.49272 2.48834 2.48834 2.48834 2.48834 2.48834 2.48249 2.48249 2.48249 2.48249 2.48249 2.47509 2.47509 2.47509 2.47509 2.47509 2.46617 2.46617 2.46617 2.46617 2.46617 2.45585 2.45585 2.45585 2.45585 2.45585 2.44428 2.44428 2.44428 2.44428 2.44428 2.43161 2.43161 2.43161 2.43161 2.43161 2.41801 2.41801 2.41801 2.41801 2.41801 2.40365 2.40365 2.40365 2.40365 2.40365 2.38867 2.38867 2.38867 2.38867 2.38867 2.37317 2.37317 2.37317 2.37317 2.37317 2.35728 2.35728 2.35728 2.35728 2.35728 2.34106 2.34106 2.34106 2.34106 2.34106 2.3246 2.3246 2.3246 2.3246 2.3246 2.30794 2.30794 2.30794 2.30794 2.30794 2.29115 2.29115 2.29115 2.29115 2.29115 2.27426 2.27426 2.27426 2.27426 2.27426 2.25731 2.25731 2.25731 2.25731 2.25731 2.24032 2.24032 2.24032 2.24032 2.24032 2.22332 2.22332 2.22332 2.22332 2.22332 2.20634 2.20634 2.20634 2.20634 2.20634 2.18939 2.18939 2.18939 2.18939 2.18939 2.17249 2.17249 2.17249 2.17249 2.17249 2.15566 2.15566 2.15566 2.15566 2.15566 2.13892 2.13892 2.13892 2.13892 2.13892 2.12227 2.12227 2.12227 2.12227 2.12227 2.10574 2.10574 2.10574 2.10574 2.10574 2.08934 2.08934 2.08934 2.08934 2.08934 2.07309 2.07309 2.07309 2.07309 2.07309 2.057 2.057 2.057 2.057 2.057 2.0411 2.0411 2.0411 2.0411 2.0411 2.02539 2.02539 2.02539 2.02539 2.02539 2.00991 2.00991 2.00991 2.00991 2.00991 1.99468 1.99468 1.99468 1.99468 1.99468 1.97972 1.97972 1.97972 1.97972 1.97972 1.96506 1.96506 1.96506 1.96506 1.96506 1.95073 1.95073 1.95073 1.95073 1.95073 1.93677 1.93677 1.93677 1.93677 1.93677 1.92321 1.92321 1.92321 1.92321 1.92321 1.9101 1.9101 1.9101 1.9101 1.9101 1.89749 1.89749 1.89749 1.89749 1.89749 1.88541 1.88541 1.88541 1.88541 1.88541 1.87392 1.87392 1.87392 1.87392 1.87392 1.86307 1.86307 1.86307 1.86307 1.86307 1.85292 1.85292 1.85292 1.85292 1.85292 1.8435 1.8435 1.8435 1.8435 1.8435 1.83487 1.83487 1.83487 1.83487 1.83487 1.82706 1.82706 1.82706 1.82706 1.82706 1.8201 1.8201 1.8201 1.8201 1.8201 1.814 1.814 1.814 1.814 1.814 1.80876 1.80876 1.80876 1.80876 1.80876 1.80437 1.80437 1.80437 1.80437 1.80437 1.80079 1.80079 1.80079 1.80079 1.80079 1.79798 1.79798 1.79798 1.79798 1.79798 1.79588 1.79588 1.79588 1.79588 1.79588 1.79442 1.79442 1.79442 1.79442 1.79442 1.79356 1.79356 1.79356 1.79356 1.79356 1.79322 1.79322 1.79322 1.79322 1.79322 1.79337 1.79337 1.79337 1.79337 1.79337 1.79398 1.79398 1.79398 1.79398 1.79398 1.79506 1.79506 1.79506 1.79506 1.79506 1.79663 1.79663 1.79663 1.79663 1.79663 1.79876 1.79876 1.79876 1.79876 1.79876 1.80152 1.80152 1.80152 1.80152 1.80152 1.80503 1.80503 1.80503 1.80503 1.80503 1.80935 1.80935 1.80935 1.80935 1.80935 1.81458 1.81458 1.81458 1.81458 1.81458 1.82084 1.82084 1.82084 1.82084 1.82084 1.82839 1.82839 1.82839 1.82839 1.82839 1.83797 1.83797 1.83797 1.83797 1.83797 1.85127 1.85127 1.85127 1.85127 1.85127 1.87183 1.87183 1.87183 1.87183 1.87183 1.90623 1.90623 1.90623 1.90623 1.90623 1.96532 1.96532 1.96532 1.96532 1.96532 2.0647 2.0647 2.0647 2.0647 2.0647 2.22175 2.22175 2.22175 2.22175 2.22175 2.4395 2.4395 2.4395 2.4395 2.4395 2.67038 2.67038 2.67038 2.67038 2.67038 2.81924 2.81924 2.81924 2.81924 2.81924 2.86292 2.86292 2.86292 2.86292 2.86292 2.86295 2.86295 2.86295 2.86295 2.86295 2.85613 2.85613 2.85613 2.85613 2.85613 2.84936 2.84936 2.84936 2.84936 2.84936 2.84339 2.84339 2.84339 2.84339 2.84339 2.83835 2.83835 2.83835 2.83835 2.83835 2.83424 2.83424 2.83424 2.83424 2.83424 2.83099 2.83099 2.83099 2.83099 2.83099 2.82848 2.82848 2.82848 2.82848 2.82848 2.82659 2.82659 2.82659 2.82659 2.82659 2.8252 2.8252 2.8252 2.8252 2.8252 2.82417 2.82417 2.82417 2.82417 2.82417 2.82341 2.82341 2.82341 2.82341 2.82341 2.82276 2.82276 2.82276 2.82276 2.82276 2.82225 2.82225 2.82225 2.82225 2.82225 2.82132 2.82132 2.82132 2.82132 2.82132 2.82036 2.82036 2.82036 2.82036 2.82036 2.81744 2.81744 2.81744 2.81744 2.81744 2.81358 2.81358 2.81358 2.81358 2.81358 2.80279 2.80279 2.80279 2.80279 2.80279 2.78551 2.78551 2.78551 2.78551 2.78551 2.74448 2.74448 2.74448 2.74448 2.74448 2.6747 2.6747 2.6747 2.6747 2.6747 2.53437 2.53437 2.53437 2.53437 2.53437 2.33446 2.33446 2.33446 2.33446 2.33446 2.09866 2.09866 2.09866 2.09866 2.09866 2.01654 2.01654 2.01654 2.01654 2.01654 2.00256 2.00256 2.00256 2.00256 2.00256 2.00039 2.00039 2.00039 2.00039 2.00039 2.00006 2.00006 2.00006 2.00006 2.00006 2.00001 2.00001 2.00001 2.00001 2.00001 2 2 2 2 2 2 2 2 2 2 2 2 2 2 2 2 2 2 2 2 2 2 2 2 2 2 2 2 2 2 2 2 2 2 2 2 2 2 2 2 2 2 2 2 2 2 2 2 2 2 2 2 2 2 2 2 2 2 2 2 2 2 2 2 2 2 2 2 2 2 2 2 2 2 2 2 2 2 2 2 2 2 2 2 2 2 2 2 2 2 2 2 2 2 2 2 2 2 2 2 2 2 2 2 2 2 2 2 2 2 2 2 2 2 2 2 2 2 2 2 2 2 2 2 2 2 2 2 2 2 2 2 2 2 2 2 2 2 2 2 2 2 2 2 2 2 2 2 2 2 2 2 2 2 2 2 2 2 2 2 2 2 2 2 2 2 2 2 2 2 2 2 2 2 2
				</DataArray>
				<DataArray Name="F1" type="Float32" format="ascii">
 1 1 1 1 1 1 1 1 1 1 1 1 1 1 1 1 1 1 1 1 1 1 1 1 1 1 1 1 1 1 1 1 1 1 1 1 1 1 1 1 1 1 1 1 1 1 1 1 1 1 1 1 1 1 1 1 1 1 1 1 1 1 1 1 1 1 1 1 1 1 1 1 1 1 1 1 1 1 1 1 1 1 1 1 1 1 1 1 1 1 1 1 1 1 1 1 1 1 1 1 1 1 1 1 1 1 1 1 1 1 1 1 1 1 1 1 1 1 1 1 1 1 1 1 1 1 1 1 1 1 1 1 1 1 1 1 1 1 1 1 1 1 1 1 1 1 1 1 1 1 1 1 1 1 1 1 1 1 1 1 1 1 1 1 1 1 1 1 1 1 1 1 1 1 1 1 1 1 1 1 1 1 1 1 1 1 1 1 1 1 1 1 1 1 1 1 1 1 1 1 1 1 1 1 1 1 1 1 1 1 1 1 1 1 1 1 1 1 1 1 1 1 1 1 1 1 1 1 1 1 1 1 1 1 1 1 1 1 1 1 1 1 1 1 1 1 1 1 1 1 1 1 1 1 1 1 1 1 1 1 1 1 1 1 1 1 1 1 1 1 1 1 1 1 1 1 1 1 1 1 1 1 1 1 1 1 1 1 1 1 1 1 1 1 1 1 1 1 1 1 1 1 1 1 1 1 1 1 1 1 1 1 1 1 1 1 1 1 1 1 1 1 1 1 1 1 1 1 1 1 1 1 1 1 1 1 1 1 1 1 1 1 1 1 1 1 1 1 1 1 1 1 1 1 1 1 1 1 1 1 1 1 1 1 1 1 1 1 1 1 1 1 1 1 1 1 1 1 1 1 1 1 1 1 1 1 1 1 1 1 1 1 1 1 1 1 1 1 1 1 1 1 1 1 1 1 1 1 1 1 1 1 1 1 1 1 1 1 1 1 1 1 1 1 1 1 1 1 1 1 1 1 1 1 1 1 1 1 1 1 1 1 1 1 1 1 1 1 1 1 1 1 1 1 1 1 1 1 1 1 1 1 1 1 1 1 1 1 1 1 1 1 1 1 1 1 1 1 1 1 1 1 1 1 1 1 1 1 1 1 1 1 1 1 1 1 1 1 1 1 1 1 1 1 1 1 1 1 1 1 1 1 1 1 1 1 1 1 1 1 1 1 1 1 1 1 1 1 1 1 1 1 1 1 1 1 1 1 1 1 1 1 1 1 1 1 1 1 1 1 1 1 1 1 1 1 1 1 1 1 1 1 1 1 1 1 1 1 1 1 1 1 1 1 1 1 1 1 1 1 1 1 1 1 1 0.999999 0.999999 0.999999 0.999999 0.999999 0.999994 0.999994 0.999994 0.999994 0.999994 0.999977 0.999977 0.999977 0.999977 0.999977 0.999918 0.999918 0.999918 0.999918 0.999918 0.999728 0.999728 0.999728 0.999728 0.999728 0.999157 0.999157 0.999157 0.999157 0.999157 0.997572 0.997572 0.997572 0.997572 0.997572 0.993502 0.993502 0.993502 0.993502 0.993502 0.983862 0.983862 0.983862 0.983862 0.983862 0.962861 0.962861 0.962861 0.962861 0.962861 0.920938 0.920938 0.920938 0.920938 0.920938 0.844773 0.844773 0.844773 0.844773 0.844773 0.72045 0.72045 0.72045 0.72045 0.72045 0.542839 0.542839 0.542839 0.542839 0.542839 0.332295 0.332295 0.332295 0.332295 0.332295 0.145004 0.145004 0.145004 0.145004 0.145004 0.0380611 0.0380611 0.0380611 0.0380611 0.0380611 0.00521188 0.00521188 0.00521188 0.00521188 0.00521188 0.000372317 0.000372317 0.000372317 0.000372317 0.000372317 1.66405e-05 1.66405e-05 1.66405e-05 1.66405e-05 1.66405e-05 5.84177e-07 5.84177e-07 5.84177e-07 5.84177e-07 5.84177e-07 1.85743e-08 1.85743e-08 1.85743e-08 1.85743e-08 1.85743e-08 5.68494e-10 5.68494e-10 5.68494e-10 5.68494e-10 5.68494e-10 1.71152e-11 1.71152e-11 1.71152e-11 1.71152e-11 1.71152e-11 5.08654e-13 5.08654e-13 5.08654e-13 5.08654e-13 5.08654e-13 1.46453e-14 1.46453e-14 1.46453e-14 1.46453e-14 1.46453e-14 7.00768e-16 7.00768e-16 7.00768e-16 7.00768e-16 7.00768e-16 0 0 0 0 0 0 0 0 0 0 0 0 0 0 0 0 0 0 0 0 0 0 0 0 0 0 0 0 0 0 0 0 0 0 0 0 0 0 0 0 0 0 0 0 0 0 0 0 0 0 0 0 0 0 0 0 0 0 0 0 0 0 0 0 0 0 0 0 0 0 0 0 0 0 0 0 0 0 0 0 0 0 0 0 0 0 0 0 0 0 0 0 0 0 0 0 0 0 0 0 0 0 0 0 0 0 0 0 0 0 0 0 0 0 0 0 0 0 0 0 0 0 0 0 0 0 0 0 0 0 0 0 0 0 0 0 0 0 0 0 0 0 0 0 0 0 0 0 0 0 0 0 0 0 0 0 0 0 0 0 0 0 0 0 0 0 0 0 0 0 0 0 0 0 0 0 0 0 0 0 0 0 0 0 0 0 0 0 0 0 0 0 0 0 0 0 0 0 0 0 0 0 0 0 0 0 0 0 0 0 0 0 0 0 0 0 0 0 0 0 0 0 0 0 0 0 0 0 0 0 0 0 0 0 0 0 0 0 0 0 0 0 0 0 0 0 0 0 0 0 0 0 0 0 0 0 0 0 0 0 0 0 0 0 0 0 0 0 0 0 0 0 0 0 0 0 0 0 0 0
				</DataArray>
				<DataArray Name="F2" type="Float32" format="ascii">
 0 0 0 0 0 0 0 0 0 0 0 0 0 0 0 0 0 0 0 0 0 0 0 0 0 0 0 0 0 0 0 0 0 0 0 0 0 0 0 0 0 0 0 0 0 0 0 0 0 0 0 0 0 0 0 0 0 0 0 0 0 0 0 0 0 0 0 0 0 0 0 0 0 0 0 0 0 0 0 0 0 0 0 0 0 0 0 0 0 0 0 0 0 0 0 0 0 0 0 0 0 0 0 0 0 0 0 0 0 0 0 0 0 0 0 0 0 0 0 0 0 0 0 0 0 0 0 0 0 0 0 0 0 0 0 0 0 0 0 0 0 0 0 0 0 0 0 0 0 0 0 0 0 0 0 0 0 0 0 0 0 0 0 0 0 0 0 0 0 0 0 0 0 0 0 0 0 0 0 0 0 0 0 0 0 0 0 0 0 0 0 0 0 0 0 0 0 0 0 0 0 0 0 0 0 0 0 0 0 0 0 0 0 0 0 0 0 0 0 0 0 0 0 0 0 0 0 0 0 0 0 0 0 0 0 0 0 0 0 0 0 0 0 0 0 0 0 0 0 0 0 0 0 0 0 0 0 0 0 0 0 0 0 0 0 0 0 0 0 0 0 0 0 0 0 0 0 0 0 0 0 0 0 0 0 0 0 0 0 0 0 0 0 0 0 0 0 0 0 0 0 0 0 0 0 0 0 0 0 0 0 0 0 0 0 0 0 0 0 0 0 0 0 0 0 0 0 0 0 0 0 0 0 0 0 0 0 0 0 0 0 0 0 0 0 0 0 0 0 0 0 0 0 0 0 0 0 0 0 0 0 0 0 0 0 0 0 0 0 0 0 0 0 0 0 0 0 0 0 0 0 0 0 0 0 0 0 0 0 0 0 0 0 0 0 0 0 0 0 0 0 0 0 0 0 0 0 0 0 0 0 0 0 0 0 0 0 0 0 0 0 0 0 0 0 0 0 0 0 0 0 0 0 0 0 0 0 0 0 0 0 0 0 0 0 0 0 0 0 0 0 0 0 0 0 0 0 0 0 0 0 0 0 0 0 0 0 0 0 0 0 0 0 0 0 0 0 0 0 0 0 0 0 0 0 0 0 0 0 0 0 0 0 0 0 0 0 0 0 0 0 0 0 0 0 0 0 0 0 0 0 0 0 0 0 0 0 0 0 0 1.59343e-16 1.59343e-16 1.59343e-16 1.59343e-16 1.59343e-16 7.31511e-16 7.31511e-16 7.31511e-16 7.31511e-16 7.31511e-16 2.88219e-15 2.88219e-15 2.88219e-15 2.88219e-15 2.88219e-15 1.86103e-14 1.86103e-14 1.86103e-14 1.86103e-14 1.86103e-14 1.64724e-13 1.64724e-13 1.64724e-13 1.64724e-13 1.64724e-13 1.34406e-12 1.34406e-12 1.34406e-12 1.34406e-12 1.34406e-12 9.99626e-12 9.99626e-12 9.99626e-12 9.99626e-12 9.99626e-12 6.82892e-11 6.82892e-11 6.82892e-11 6.82892e-11 6.82892e-11 4.30943e-10 4.30943e-10 4.30943e-10 4.30943e-10 4.30943e-10 2.52204e-09 2.52204e-09 2.52204e-09 2.52204e-09 2.52204e-09 1.37249e-08 1.37249e-08 1.37249e-08 1.37249e-08 1.37249e-08 6.95713e-08 6.95713e-08 6.95713e-08 6.95713e-08 6.95713e-08 3.288e-07 3.288e-07 3.288e-07 3.288e-07 3.288e-07 1.44945e-06 1.44945e-06 1.44945e-06 1.44945e-06 1.44945e-06 5.96005e-06 5.96005e-06 5.96005e-06 5.96005e-06 5.96005e-06 2.2854e-05 2.2854e-05 2.2854e-05 2.2854e-05 2.2854e-05 8.16849e-05 8.16849e-05 8.16849e-05 8.16849e-05 8.16849e-05 0.000271953 0.000271953 0.000271953 0.000271953 0.000271953 0.000842675 0.000842675 0.000842675 0.000842675 0.000842675 0.00242794 0.00242794 0.00242794 0.00242794 0.00242794 0.00649817 0.00649817 0.00649817 0.00649817 0.00649817 0.0161377 0.0161377 0.0161377 0.0161377 0.0161377 0.0371388 0.0371388 0.0371388 0.0371388 0.0371388 0.079062 0.079062 0.079062 0.079062 0.079062 0.155227 0.155227 0.155227 0.155227 0.155227 0.27955 0.27955 0.27955 0.27955 0.27955 0.457161 0.457161 0.457161 0.457161 0.457161 0.667705 0.667705 0.667705 0.667705 0.667705 0.854996 0.854996 0.854996 0.854996 0.854996 0.961939 0.961939 0.961939 0.961939 0.961939 0.994788 0.994788 0.994788 0.994788 0.994788 0.999628 0.999628 0.999628 0.999628 0.999628 0.999983 0.999983 0.999983 0.999983 0.999983 0.999999 0.999999 0.999999 0.999999 0.999999 1 1 1 1 1 1 1 1 1 1 1 1 1 1 1 1 1 1 1 1 1 1 1 1 1 1 1 1 1 1 1 1 1 1 1 1 1 1 1 1 1 1 1 1 1 1 1 1 1 1 1 1 1 1 1 1 1 1 1 1 1 1 1 1 1 1 1 1 1 1 1 1 1 1 1 1 1 1 1 1 1 1 1 1 1 1 1 1 1 1 1 1 1 1 1 1 1 1 1 1 1 1 1 1 1 1 1 1 1 1 1 1 1 1 1 1 1 1 1 1 1 1 1 1 1 1 1 1 1 1 1 1 1 1 1 1 1 1 1 1 1 1 1 1 1 1 1 1 1 1 1 1 1 1 1 1 1 1 1 1 1 1 1 1 1 1 1 1 1 1 1 1 1 1 1 1 1 1 1 1 1 1 1 1 1 1 1 1 1 1 1 1 1 1 1 1 1 1 1 1 1 1 1 1 1 1 1 1 1 1 1 1 1 1 1 1 1 1 1 1 1 1 1 1 1 1 1 1 1 1 1 1 1 1 1 1 1 1 1 1 1 1 1 1 1 1 1 1 1 1 1 1 1 1 1 1 1 1 1 1 1 1 1 1 1 1 1 1 1 1 1 1 1 1 1 1 1 1 1 1 1 1 1 1 1 1 1 1 1 1 1 1 1 1 1 1 1 1 1 1 1 1 1 1 1 1 1 1 1 1
				</DataArray>
				<DataArray Name="F3" type="Float32" format="ascii">