<?xml version="1.0"?>
<VTKFile type="PolyData">
	<PolyData>
		<Piece NumberOfPoints="1206" NumberOfPolys="1000">
			<Points>
				<DataArray type="Float32" NumberOfComponents="3" format="ascii">
 0 0 0 0.02 0 0 0.04 0 0 0.06 0 0 0.08 0 0 0.1 0 0 0 0.005 0 0.02 0.005 0 0.04 0.005 0 0.06 0.005 0 0.08 0.005 0 0.1 0.005 0 0 0.01 0 0.02 0.01 0 0.04 0.01 0 0.06 0.01 0 0.08 0.01 0 0.1 0.01 0 0 0.015 0 0.02 0.015 0 0.04 0.015 0 0.06 0.015 0 0.08 0.015 0 0.1 0.015 0 0 0.02 0 0.02 0.02 0 0.04 0.02 0 0.06 0.02 0 0.08 0.02 0 0.1 0.02 0 0 0.025 0 0.02 0.025 0 0.04 0.025 0 0.06 0.025 0 0.08 0.025 0 0.1 0.025 0 0 0.03 0 0.02 0.03 0 0.04 0.03 0 0.06 0.03 0 0.08 0.03 0 0.1 0.03 0 0 0.035 0 0.02 0.035 0 0.04 0.035 0 0.06 0.035 0 0.08 0.035 0 0.1 0.035 0 0 0.04 0 0.02 0.04 0 0.04 0.04 0 0.06 0.04 0 0.08 0.04 0 0.1 0.04 0 0 0.045 0 0.02 0.045 0 0.04 0.045 0 0.06 0.045 0 0.08 0.045 0 0.1 0.045 0 0 0.05 0 0.02 0.05 0 0.04 0.05 0 0.06 0.05 0 0.08 0.05 0 0.1 0.05 0 0 0.055 0 0.02 0.055 0 0.04 0.055 0 0.06 0.055 0 0.08 0.055 0 0.1 0.055 0 0 0.06 0 0.02 0.06 0 0.04 0.06 0 0.06 0.06 0 0.08 0.06 0 0.1 0.06 0 0 0.065 0 0.02 0.065 0 0.04 0.065 0 0.06 0.065 0 0.08 0.065 0 0.1 0.065 0 0 0.07 0 0.02 0.07 0 0.04 0.07 0 0.06 0.07 0 0.08 0.07 0 0.1 0.07 0 0 0.075 0 0.02 0.075 0 0.04 0.075 0 0.06 0.075 0 0.08 0.075 0 0.1 0.075 0 0 0.08 0 0.02 0.08 0 0.04 0.08 0 0.06 0.08 0 0.08 0.08 0 0.1 0.08 0 0 0.085 0 0.02 0.085 0 0.04 0.085 0 0.06 0.085 0 0.08 0.085 0 0.1 0.085 0 0 0.09 0 0.02 0.09 0 0.04 0.09 0 0.06 0.09 0 0.08 0.09 0 0.1 0.09 0 0 0.095 0 0.02 0.095 0 0.04 0.095 0 0.06 0.095 0 0.08 0.095 0 0.1 0.095 0 0 0.1 0 0.02 0.1 0 0.04 0.1 0 0.06 0.1 0 0.08 0.1 0 0.1 0.1 0 0 0.105 0 0.02 0.105 0 0.04 0.105 0 0.06 0.105 0 0.08 0.105 0 0.1 0.105 0 0 0.11 0 0.02 0.11 0 0.04 0.11 0 0.06 0.11 0 0.08 0.11 0 0.1 0.11 0 0 0.115 0 0.02 0.115 0 0.04 0.115 0 0.06 0.115 0 0.08 0.115 0 0.1 0.115 0 0 0.12 0 0.02 0.12 0 0.04 0.12 0 0.06 0.12 0 0.08 0.12 0 0.1 0.12 0 0 0.125 0 0.02 0.125 0 0.04 0.125 0 0.06 0.125 0 0.08 0.125 0 0.1 0.125 0 0 0.13 0 0.02 0.13 0 0.04 0.13 0 0.06 0.13 0 0.08 0.13 0 0.1 0.13 0 0 0.135 0 0.02 0.135 0 0.04 0.135 0 0.06 0.135 0 0.08 0.135 0 0.1 0.135 0 0 0.14 0 0.02 0.14 0 0.04 0.14 0 0.06 0.14 0 0.08 0.14 0 0.1 0.14 0 0 0.145 0 0.02 0.145 0 0.04 0.145 0 0.06 0.145 0 0.08 0.145 0 0.1 0.145 0 0 0.15 0 0.02 0.15 0 0.04 0.15 0 0.06 0.15 0 0.08 0.15 0 0.1 0.15 0 0 0.155 0 0.02 0.155 0 0.04 0.155 0 0.06 0.155 0 0.08 0.155 0 0.1 0.155 0 0 0.16 0 0.02 0.16 0 0.04 0.16 0 0.06 0.16 0 0.08 0.16 0 0.1 0.16 0 0 0.165 0 0.02 0.165 0 0.04 0.165 0 0.06 0.165 0 0.08 0.165 0 0.1 0.165 0 0 0.17 0 0.02 0.17 0 0.04 0.17 0 0.06 0.17 0 0.08 0.17 0 0.1 0.17 0 0 0.175 0 0.02 0.175 0 0.04 0.175 0 0.06 0.175 0 0.08 0.175 0 0.1 0.175 0 0 0.18 0 0.02 0.18 0 0.04 0.18 0 0.06 0.18 0 0.08 0.18 0 0.1 0.18 0 0 0.185 0 0.02 0.185 0 0.04 0.185 0 0.06 0.185 0 0.08 0.185 0 0.1 0.185 0 0 0.19 0 0.02 0.19 0 0.04 0.19 0 0.06 0.19 0 0.08 0.19 0 0.1 0.19 0 0 0.195 0 0.02 0.195 0 0.04 0.195 0 0.06 0.195 0 0.08 0.195 0 0.1 0.195 0 0 0.2 0 0.02 0.2 0 0.04 0.2 0 0.06 0.2 0 0.08 0.2 0 0.1 0.2 0 0 0.205 0 0.02 0.205 0 0.04 0.205 0 0.06 0.205 0 0.08 0.205 0 0.1 0.205 0 0 0.21 0 0.02 0.21 0 0.04 0.21 0 0.06 0.21 0 0.08 0.21 0 0.1 0.21 0 0 0.215 0 0.02 0.215 0 0.04 0.215 0 0.06 0.215 0 0.08 0.215 0 0.1 0.215 0 0 0.22 0 0.02 0.22 0 0.04 0.22 0 0.06 0.22 0 0.08 0.22 0 0.1 0.22 0 0 0.225 0 0.02 0.225 0 0.04 0.225 0 0.06 0.225 0 0.08 0.225 0 0.1 0.225 0 0 0.23 0 0.02 0.23 0 0.04 0.23 0 0.06 0.23 0 0.08 0.23 0 0.1 0.23 0 0 0.235 0 0.02 0.235 0 0.04 0.235 0 0.06 0.235 0 0.08 0.235 0 0.1 0.235 0 0 0.24 0 0.02 0.24 0 0.04 0.24 0 0.06 0.24 0 0.08 0.24 0 0.1 0.24 0 0 0.245 0 0.02 0.245 0 0.04 0.245 0 0.06 0.245 0 0.08 0.245 0 0.1 0.245 0 0 0.25 0 0.02 0.25 0 0.04 0.25 0 0.06 0.25 0 0.08 0.25 0 0.1 0.25 0 0 0.255 0 0.02 0.255 0 0.04 0.255 0 0.06 0.255 0 0.08 0.255 0 0.1 0.255 0 0 0.26 0 0.02 0.26 0 0.04 0.26 0 0.06 0.26 0 0.08 0.26 0 0.1 0.26 0 0 0.265 0 0.02 0.265 0 0.04 0.265 0 0.06 0.265 0 0.08 0.265 0 0.1 0.265 0 0 0.27 0 0.02 0.27 0 0.04 0.27 0 0.06 0.27 0 0.08 0.27 0 0.1 0.27 0 0 0.275 0 0.02 0.275 0 0.04 0.275 0 0.06 0.275 0 0.08 0.275 0 0.1 0.275 0 0 0.28 0 0.02 0.28 0 0.04 0.28 0 0.06 0.28 0 0.08 0.28 0 0.1 0.28 0 0 0.285 0 0.02 0.285 0 0.04 0.285 0 0.06 0.285 0 0.08 0.285 0 0.1 0.285 0 0 0.29 0 0.02 0.29 0 0.04 0.29 0 0.06 0.29 0 0.08 0.29 0 0.1 0.29 0 0 0.295 0 0.02 0.295 0 0.04 0.295 0 0.06 0.295 0 0.08 0.295 0 0.1 0.295 0 0 0.3 0 0.02 0.3 0 0.04 0.3 0 0.06 0.3 0 0.08 0.3 0 0.1 0.3 0 0 0.305 0 0.02 0.305 0 0.04 0.305 0 0.06 0.305 0 0.08 0.305 0 0.1 0.305 0 0 0.31 0 0.02 0.31 0 0.04 0.31 0 0.06 0.31 0 0.08 0.31 0 0.1 0.31 0 0 0.315 0 0.02 0.315 0 0.04 0.315 0 0.06 0.315 0 0.08 0.315 0 0.1 0.315 0 0 0.32 0 0.02 0.32 0 0.04 0.32 0 0.06 0.32 0 0.08 0.32 0 0.1 0.32 0 0 0.325 0 0.02 0.325 0 0.04 0.325 0 0.06 0.325 0 0.08 0.325 0 0.1 0.325 0 0 0.33 0 0.02 0.33 0 0.04 0.33 0 0.06 0.33 0 0.08 0.33 0 0.1 0.33 0 0 0.335 0 0.02 0.335 0 0.04 0.335 0 0.06 0.335 0 0.08 0.335 0 0.1 0.335 0 0 0.34 0 0.02 0.34 0 0.04 0.34 0 0.06 0.34 0 0.08 0.34 0 0.1 0.34 0 0 0.345 0 0.02 0.345 0 0.04 0.345 0 0.06 0.345 0 0.08 0.345 0 0.1 0.345 0 0 0.35 0 0.02 0.35 0 0.04 0.35 0 0.06 0.35 0 0.08 0.35 0 0.1 0.35 0 0 0.355 0 0.02 0.355 0 0.04 0.355 0 0.06 0.355 0 0.08 0.355 0 0.1 0.355 0 0 0.36 0 0.02 0.36 0 0.04 0.36 0 0.06 0.36 0 0.08 0.36 0 0.1 0.36 0 0 0.365 0 0.02 0.365 0 0.04 0.365 0 0.06 0.365 0 0.08 0.365 0 0.1 0.365 0 0 0.37 0 0.02 0.37 0 0.04 0.37 0 0.06 0.37 0 0.08 0.37 0 0.1 0.37 0 0 0.375 0 0.02 0.375 0 0.04 0.375 0 0.06 0.375 0 0.08 0.375 0 0.1 0.375 0 0 0.38 0 0.02 0.38 0 0.04 0.38 0 0.06 0.38 0 0.08 0.38 0 0.1 0.38 0 0 0.385 0 0.02 0.385 0 0.04 0.385 0 0.06 0.385 0 0.08 0.385 0 0.1 0.385 0 0 0.39 0 0.02 0.39 0 0.04 0.39 0 0.06 0.39 0 0.08 0.39 0 0.1 0.39 0 0 0.395 0 0.02 0.395 0 0.04 0.395 0 0.06 0.395 0 0.08 0.395 0 0.1 0.395 0 0 0.4 0 0.02 0.4 0 0.04 0.4 0 0.06 0.4 0 0.08 0.4 0 0.1 0.4 0 0 0.405 0 0.02 0.405 0 0.04 0.405 0 0.06 0.405 0 0.08 0.405 0 0.1 0.405 0 0 0.41 0 0.02 0.41 0 0.04 0.41 0 0.06 0.41 0 0.08 0.41 0 0.1 0.41 0 0 0.415 0 0.02 0.415 0 0.04 0.415 0 0.06 0.415 0 0.08 0.415 0 0.1 0.415 0 0 0.42 0 0.02 0.42 0 0.04 0.42 0 0.06 0.42 0 0.08 0.42 0 0.1 0.42 0 0 0.425 0 0.02 0.425 0 0.04 0.425 0 0.06 0.425 0 0.08 0.425 0 0.1 0.425 0 0 0.43 0 0.02 0.43 0 0.04 0.43 0 0.06 0.43 0 0.08 0.43 0 0.1 0.43 0 0 0.435 0 0.02 0.435 0 0.04 0.435 0 0.06 0.435 0 0.08 0.435 0 0.1 0.435 0 0 0.44 0 0.02 0.44 0 0.04 0.44 0 0.06 0.44 0 0.08 0.44 0 0.1 0.44 0 0 0.445 0 0.02 0.445 0 0.04 0.445 0 0.06 0.445 0 0.08 0.445 0 0.1 0.445 0 0 0.45 0 0.02 0.45 0 0.04 0.45 0 0.06 0.45 0 0.08 0.45 0 0.1 0.45 0 0 0.455 0 0.02 0.455 0 0.04 0.455 0 0.06 0.455 0 0.08 0.455 0 0.1 0.455 0 0 0.46 0 0.02 0.46 0 0.04 0.46 0 0.06 0.46 0 0.08 0.46 0 0.1 0.46 0 0 0.465 0 0.02 0.465 0 0.04 0.465 0 0.06 0.465 0 0.08 0.465 0 0.1 0.465 0 0 0.47 0 0.02 0.47 0 0.04 0.47 0 0.06 0.47 0 0.08 0.47 0 0.1 0.47 0 0 0.475 0 0.02 0.475 0 0.04 0.475 0 0.06 0.475 0 0.08 0.475 0 0.1 0.475 0 0 0.48 0 0.02 0.48 0 0.04 0.48 0 0.06 0.48 0 0.08 0.48 0 0.1 0.48 0 0 0.485 0 0.02 0.485 0 0.04 0.485 0 0.06 0.485 0 0.08 0.485 0 0.1 0.485 0 0 0.49 0 0.02 0.49 0 0.04 0.49 0 0.06 0.49 0 0.08 0.49 0 0.1 0.49 0 0 0.495 0 0.02 0.495 0 0.04 0.495 0 0.06 0.495 0 0.08 0.495 0 0.1 0.495 0 0 0.5 0 0.02 0.5 0 0.04 0.5 0 0.06 0.5 0 0.08 0.5 0 0.1 0.5 0 0 0.505 0 0.02 0.505 0 0.04 0.505 0 0.06 0.505 0 0.08 0.505 0 0.1 0.505 0 0 0.51 0 0.02 0.51 0 0.04 0.51 0 0.06 0.51 0 0.08 0.51 0 0.1 0.51 0 0 0.515 0 0.02 0.515 0 0.04 0.515 0 0.06 0.515 0 0.08 0.515 0 0.1 0.515 0 0 0.52 0 0.02 0.52 0 0.04 0.52 0 0.06 0.52 0 0.08 0.52 0 0.1 0.52 0 0 0.525 0 0.02 0.525 0 0.04 0.525 0 0.06 0.525 0 0.08 0.525 0 0.1 0.525 0 0 0.53 0 0.02 0.53 0 0.04 0.53 0 0.06 0.53 0 0.08 0.53 0 0.1 0.53 0 0 0.535 0 0.02 0.535 0 0.04 0.535 0 0.06 0.535 0 0.08 0.535 0 0.1 0.535 0 0 0.54 0 0.02 0.54 0 0.04 0.54 0 0.06 0.54 0 0.08 0.54 0 0.1 0.54 0 0 0.545 0 0.02 0.545 0 0.04 0.545 0 0.06 0.545 0 0.08 0.545 0 0.1 0.545 0 0 0.55 0 0.02 0.55 0 0.04 0.55 0 0.06 0.55 0 0.08 0.55 0 0.1 0.55 0 0 0.555 0 0.02 0.555 0 0.04 0.555 0 0.06 0.555 0 0.08 0.555 0 0.1 0.555 0 0 0.56 0 0.02 0.56 0 0.04 0.56 0 0.06 0.56 0 0.08 0.56 0 0.1 0.56 0 0 0.565 0 0.02 0.565 0 0.04 0.565 0 0.06 0.565 0 0.08 0.565 0 0.1 0.565 0 0 0.57 0 0.02 0.57 0 0.04 0.57 0 0.06 0.57 0 0.08 0.57 0 0.1 0.57 0 0 0.575 0 0.02 0.575 0 0.04 0.575 0 0.06 0.575 0 0.08 0.575 0 0.1 0.575 0 0 0.58 0 0.02 0.58 0 0.04 0.58 0 0.06 0.58 0 0.08 0.58 0 0.1 0.58 0 0 0.585 0 0.02 0.585 0 0.04 0.585 0 0.06 0.585 0 0.08 0.585 0 0.1 0.585 0 0 0.59 0 0.02 0.59 0 0.04 0.59 0 0.06 0.59 0 0.08 0.59 0 0.1 0.59 0 0 0.595 0 0.02 0.595 0 0.04 0.595 0 0.06 0.595 0 0.08 0.595 0 0.1 0.595 0 0 0.6 0 0.02 0.6 0 0.04 0.6 0 0.06 0.6 0 0.08 0.6 0 0.1 0.6 0 0 0.605 0 0.02 0.605 0 0.04 0.605 0 0.06 0.605 0 0.08 0.605 0 0.1 0.605 0 0 0.61 0 0.02 0.61 0 0.04 0.61 0 0.06 0.61 0 0.08 0.61 0 0.1 0.61 0 0 0.615 0 0.02 0.615 0 0.04 0.615 0 0.06 0.615 0 0.08 0.615 0 0.1 0.615 0 0 0.62 0 0.02 0.62 0 0.04 0.62 0 0.06 0.62 0 0.08 0.62 0 0.1 0.62 0 0 0.625 0 0.02 0.625 0 0.04 0.625 0 0.06 0.625 0 0.08 0.625 0 0.1 0.625 0 0 0.63 0 0.02 0.63 0 0.04 0.63 0 0.06 0.63 0 0.08 0.63 0 0.1 0.63 0 0 0.635 0 0.02 0.635 0 0.04 0.635 0 0.06 0.635 0 0.08 0.635 0 0.1 0.635 0 0 0.64 0 0.02 0.64 0 0.04 0.64 0 0.06 0.64 0 0.08 0.64 0 0.1 0.64 0 0 0.645 0 0.02 0.645 0 0.04 0.645 0 0.06 0.645 0 0.08 0.645 0 0.1 0.645 0 0 0.65 0 0.02 0.65 0 0.04 0.65 0 0.06 0.65 0 0.08 0.65 0 0.1 0.65 0 0 0.655 0 0.02 0.655 0 0.04 0.655 0 0.06 0.655 0 0.08 0.655 0 0.1 0.655 0 0 0.66 0 0.02 0.66 0 0.04 0.66 0 0.06 0.66 0 0.08 0.66 0 0.1 0.66 0 0 0.665 0 0.02 0.665 0 0.04 0.665 0 0.06 0.665 0 0.08 0.665 0 0.1 0.665 0 0 0.67 0 0.02 0.67 0 0.04 0.67 0 0.06 0.67 0 0.08 0.67 0 0.1 0.67 0 0 0.675 0 0.02 0.675 0 0.04 0.675 0 0.06 0.675 0 0.08 0.675 0 0.1 0.675 0 0 0.68 0 0.02 0.68 0 0.04 0.68 0 0.06 0.68 0 0.08 0.68 0 0.1 0.68 0 0 0.685 0 0.02 0.685 0 0.04 0.685 0 0.06 0.685 0 0.08 0.685 0 0.1 0.685 0 0 0.69 0 0.02 0.69 0 0.04 0.69 0 0.06 0.69 0 0.08 0.69 0 0.1 
[...]
			<CellData Scalars="Density">
				<DataArray Name="Density" type="Float32" format="ascii">
 1 1 1 1 1 1 1 1 1 1 1 1 1 1 1 1 1 1 1 1 1 1 1 1 1 1 1 1 1 1 1 1 1 1 1 1 1 1 1 1 1 1 1 1 1 1 1 1 1 1 1 1 1 1 1 1 1 1 1 1 1 1 1 1 1 1 1 1 1 1 1 1 1 1 1 1 1 1 1 1 1 1 1 1 1 1 1 1 1 1 1 1 1 1 1 1 1 1 1 1 1 1 1 1 1 1 1 1 1 1 1 1 1 1 1 1 1 1 1 1 1 1 1 1 1 1 1 1 1 1 1 1 1 1 1 1 1 1 1 1 1 1 1 1 1 1 1 1 1 1 1 1 1 1 1 1 1 1 1 1 1 1 1 1 1 1 1 1 1 1 1 1 1 1 1 1 1 1 1 1 1 1 1 1 1 1 1 1 1 1 1 1 1 1 1 1 1 1 1 1 1 1 1 1 1 1 1 1 1 1 1 1 1 1 1 0.999999 0.999999 0.999999 0.999999 0.999999 0.999998 0.999998 0.999998 0.999998 0.999998 0.999996 0.999996 0.999996 0.999996 0.999996 0.999989 0.999989 0.999989 0.999989 0.999989 0.99997 0.99997 0.99997 0.99997 0.99997 0.999923 0.999923 0.999923 0.999923 0.999923 0.999801 0.999801 0.999801 0.999801 0.999801 0.999506 0.999506 0.999506 0.999506 0.999506 0.998891 0.998891 0.998891 0.998891 0.998891 0.99773 0.99773 0.99773 0.99773 0.99773 0.995763 0.995763 0.995763 0.995763 0.995763 0.992713 0.992713 0.992713 0.992713 0.992713 0.988348 0.988348 0.988348 0.988348 0.988348 0.98252 0.98252 0.98252 0.98252 0.98252 0.975179 0.975179 0.975179 0.975179 0.975179 0.966375 0.966375 0.966375 0.966375 0.966375 0.956229 0.956229 0.956229 0.956229 0.956229 0.944913 0.944913 0.944913 0.944913 0.944913 0.932611 0.932611 0.932611 0.932611 0.932611 0.91951 0.91951 0.91951 0.91951 0.91951 0.905779 0.905779 0.905779 0.905779 0.905779 0.891571 0.891571 0.891571 0.891571 0.891571 0.877014 0.877014 0.877014 0.877014 0.877014 0.862216 0.862216 0.862216 0.862216 0.862216 0.847267 0.847267 0.847267 0.847267 0.847267 0.832238 0.832238 0.832238 0.832238 0.832238 0.817192 0.817192 0.817192 0.817192 0.817192 0.802174 0.802174 0.802174 0.802174 0.802174 0.787228 0.787228 0.787228 0.787228 0.787228 0.772384 0.772384 0.772384 0.772384 0.772384 0.75767 0.75767 0.75767 0.75767 0.75767 0.743108 0.743108 0.743108 0.743108 0.743108 0.728717 0.728717 0.728717 0.728717 0.728717 0.714512 0.714512 0.714512 0.714512 0.714512 0.700507 0.700507 0.700507 0.700507 0.700507 0.686714 0.686714 0.686714 0.686714 0.686714 0.673142 0.673142 0.673142 0.673142 0.673142 0.659802 0.659802 0.659802 0.659802 0.659802 0.646703 0.646703 0.646703 0.646703 0.646703 0.633852 0.633852 0.633852 0.633852 0.633852 0.621259 0.621259 0.621259 0.621259 0.621259 0.608932 0.608932 0.608932 0.608932 0.608932 0.596879 0.596879 0.596879 0.596879 0.596879 0.58511 0.58511 0.58511 0.58511 0.58511 0.573635 0.573635 0.573635 0.573635 0.573635 0.562465 0.562465 0.562465 0.562465 0.562465 0.551612 0.551612 0.551612 0.551612 0.551612 0.541089 0.541089 0.541089 0.541089 0.541089 0.53091 0.53091 0.53091 0.53091 0.53091 0.521093 0.521093 0.521093 0.521093 0.521093 0.511653 0.511653 0.511653 0.511653 0.511653 0.502609 0.502609 0.502609 0.502609 0.502609 0.493983 0.493983 0.493983 0.493983 0.493983 0.485793 0.485793 0.485793 0.485793 0.485793 0.478063 0.478063 0.478063 0.478063 0.478063 0.470812 0.470812 0.470812 0.470812 0.470812 0.464061 0.464061 0.464061 0.464061 0.464061 0.457828 0.457828 0.457828 0.457828 0.457828 0.452128 0.452128 0.452128 0.452128 0.452128 0.44697 0.44697 0.44697 0.44697 0.44697 0.442357 0.442357 0.442357 0.442357 0.442357 0.438284 0.438284 0.438284 0.438284 0.438284 0.43474 0.43474 0.43474 0.43474 0.43474 0.431702 0.431702 0.431702 0.431702 0.431702 0.429138 0.429138 0.429138 0.429138 0.429138 0.42701 0.42701 0.42701 0.42701 0.42701 0.42527 0.42527 0.42527 0.42527 0.42527 0.423868 0.423868 0.423868 0.423868 0.423868 0.422748 0.422748 0.422748 0.422748 0.422748 0.421855 0.421855 0.421855 0.421855 0.421855 0.421131 0.421131 0.421131 0.421131 0.421131 0.420523 0.420523 0.420523 0.420523 0.420523 0.419976 0.419976 0.419976 0.419976 0.419976 0.419438 0.419438 0.419438 0.419438 0.419438 0.41886 0.41886 0.41886 0.41886 0.41886 0.418189 0.418189 0.418189 0.418189 0.418189 0.417396 0.417396 0.417396 0.417396 0.417396 0.416441 0.416441 0.416441 0.416441 0.416441 0.415293 0.415293 0.415293 0.415293 0.415293 0.413924 0.413924 0.413924 0.413924 0.413924 0.412271 0.412271 0.412271 0.412271 0.412271 0.410188 0.410188 0.410188 0.410188 0.410188 0.407309 0.407309 0.407309 0.407309 0.407309 0.402911 0.402911 0.402911 0.402911 0.402911 0.395724 0.395724 0.395724 0.395724 0.395724 0.383936 0.383936 0.383936 0.383936 0.383936 0.365559 0.365559 0.365559 0.365559 0.365559 0.339831 0.339831 0.339831 0.339831 0.339831 0.309544 0.309544 0.309544 0.309544 0.309544 0.282786 0.282786 0.282786 0.282786 0.282786 0.26782 0.26782 0.26782 0.26782 0.26782 0.263754 0.263754 0.263754 0.263754 0.263754 0.263804 0.263804 0.263804 0.263804 0.263804 0.264467 0.264467 0.264467 0.264467 0.264467 0.265114 0.265114 0.265114 0.265114 0.265114 0.265684 0.265684 0.265684 0.265684 0.265684 0.266168 0.266168 0.266168 0.266168 0.266168 0.266567 0.266567 0.266567 0.266567 0.266567 0.266886 0.266886 0.266886 0.266886 0.266886 0.267137 0.267137 0.267137 0.267137 0.267137 0.267329 0.267329 0.267329 0.267329 0.267329 0.267475 0.267475 0.267475 0.267475 0.267475 0.267581 0.267581 0.267581 0.267581 0.267581 0.267655 0.267655 0.267655 0.267655 0.267655 0.267685 0.267685 0.267685 0.267685 0.267685 0.267698 0.267698 0.267698 0.267698 0.267698 0.267574 0.267574 0.267574 0.267574 0.267574 0.267421 0.267421 0.267421 0.267421 0.267421 0.266782 0.266782 0.266782 0.266782 0.266782 0.265918 0.265918 0.265918 0.265918 0.265918 0.263423 0.263423 0.263423 0.263423 0.263423 0.259481 0.259481 0.259481 0.259481 0.259481 0.250309 0.250309 0.250309 0.250309 0.250309 0.23559 0.23559 0.23559 0.23559 0.23559 0.208494 0.208494 0.208494 0.208494 0.208494 0.174951 0.174951 0.174951 0.174951 0.174951 0.139372 0.139372 0.139372 0.139372 0.139372 0.127548 0.127548 0.127548 0.127548 0.127548 0.125402 0.125402 0.125402 0.125402 0.125402 0.125062 0.125062 0.125062 0.125062 0.125062 0.125009 0.125009 0.125009 0.125009 0.125009 0.125001 0.125001 0.125001 0.125001 0.125001 0.125 0.125 0.125 0.125 0.125 0.125 0.125 0.125 0.125 0.125 0.125 0.125 0.125 0.125 0.125 0.125 0.125 0.125 0.125 0.125 0.125 0.125 0.125 0.125 0.125 0.125 0.125 0.125 0.125 0.125 0.125 0.125 0.125 0.125 0.125 0.125 0.125 0.125 0.125 0.125 0.125 0.125 0.125 0.125 0.125 0.125 0.125 0.125 0.125 0.125 0.125 0.125 0.125 0.125 0.125 0.125 0.125 0.125 0.125 0.125 0.125 0.125 0.125 0.125 0.125 0.125 0.125 0.125 0.125 0.125 0.125 0.125 0.125 0.125 0.125 0.125 0.125 0.125 0.125 0.125 0.125 0.125 0.125 0.125 0.125 0.125 0.125 0.125 0.125 0.125 0.125 0.125 0.125 0.125 0.125 0.125 0.125 0.125 0.125 0.125 0.125 0.125 0.125 0.125 0.125 0.125 0.125 0.125 0.125 0.125 0.125 0.125 0.125 0.125 0.125 0.125 0.125 0.125 0.125 0.125 0.125 0.125 0.125 0.125 0.125 0.125 0.125 0.125 0.125 0.125 0.125 0.125 0.125 0.125 0.125 0.125 0.125 0.125 0.125 0.125 0.125 0.125 0.125 0.125 0.125 0.125 0.125 0.125 0.125 0.125 0.125 0.125 0.125 0.125 0.125 0.125 0.125 0.125 0.125 0.125 0.125 0.125 0.125 0.125 0.125 0.125 0.125 0.125 0.125 0.125 0.125 0.125 0.125 0.125 0.125
				</DataArray>
				<DataArray Name="Energy" type="Float32" format="ascii">
 2.5 2.5 2.5 2.5 2.5 2.5 2.5 2.5 2.5 2.5 2.5 2.5 2.5 2.5 2.5 2.5 2.5 2.5 2.5 2.5 2.5 2.5 2.5 2.5 2.5 2.5 2.5 2.5 2.5 2.5 2.5 2.5 2.5 2.5 2.5 2.5 2.5 2.5 2.5 2.5 2.5 2.5 2.5 2.5 2.5 2.5 2.5 2.5 2.5 2.5 2.5 2.5 2.5 2.5 2.5 2.5 2.5 2.5 2.5 2.5 2.5 2.5 2.5 2.5 2.5 2.5 2.5 2.5 2.5 2.5 2.5 2.5 2.5 2.5 2.5 2.5 2.5 2.5 2.5 2.5 2.5 2.5 2.5 2.5 2.5 2.5 2.5 2.5 2.5 2.5 2.5 2.5 2.5 2.5 2.5 2.5 2.5 2.5 2.5 2.5 2.5 2.5 2.5 2.5 2.5 2.5 2.5 2.5 2.5 2.5 2.5 2.5 2.5 2.5 2.5 2.5 2.5 2.5 2.5 2.5 2.5 2.5 2.5 2.5 2.5 2.5 2.5 2.5 2.5 2.5 2.5 2.5 2.5 2.5 2.5 2.5 2.5 2.5 2.5 2.5 2.5 2.5 2.5 2.5 2.5 2.5 2.5 2.5 2.5 2.5 2.5 2.5 2.5 2.5 2.5 2.5 2.5 2.5 2.5 2.5 2.5 2.5 2.5 2.5 2.5 2.5 2.5 2.5 2.5 2.5 2.5 2.5 2.5 2.5 2.5 2.5 2.5 2.5 2.5 2.5 2.5 2.5 2.5 2.5 2.5 2.5 2.5 2.5 2.5 2.5 2.5 2.5 2.5 2.5 2.5 2.5 2.5 2.5 2.5 2.5 2.5 2.5 2.5 2.5 2.5 2.5 2.5 2.5 2.5 2.5 2.5 2.5 2.5 2.5 2.5 2.5 2.5 2.5 2.5 2.5 2.5 2.5 2.5 2.5 2.5 2.5 2.5 2.5 2.5 2.5 2.49999 2.49999 2.49999 2.49999 2.49999 2.49997 2.49997 2.49997 2.49997 2.49997 2.49992 2.49992 2.49992 2.49992 2.49992 2.4998 2.4998 2.4998 2.4998 2.4998 2.49951 2.49951 2.49951 2.49951 2.49951 2.49889 2.49889 2.49889 2.49889 2.49889 2.49773 2.49773 2.49773 2.49773 2.49773 2.49576 2.49576 2.49576 2.49576 2.49576 2.4927 2.4927 2.4927 2.4927 2.4927 2.48833 2.48833 2.48833 2.48833 2.48833 2.48247 2.48247 2.48247 2.48247 2.48247 2.47506 2.47506 2.47506 2.47506 2.47506 2.46615 2.46615 2.46615 2.46615 2.46615 2.45582 2.45582 2.45582 2.45582 2.45582 2.44424 2.44424 2.44424 2.44424 2.44424 2.43156 2.43156 2.43156 2.43156 2.43156 2.41797 2.41797 2.41797 2.41797 2.41797 2.40361 2.40361 2.40361 2.40361 2.40361 2.38862 2.38862 2.38862 2.38862 2.38862 2.37312 2.37312 2.37312 2.37312 2.37312 2.35723 2.35723 2.35723 2.35723 2.35723 2.34101 2.34101 2.34101 2.34101 2.34101 2.32455 2.32455 2.32455 2.32455 2.32455 2.30789 2.30789 2.30789 2.30789 2.30789 2.2911 2.2911 2.2911 2.2911 2.2911 2.27421 2.27421 2.27421 2.27421 2.27421 2.25726 2.25726 2.25726 2.25726 2.25726 2.24027 2.24027 2.24027 2.24027 2.24027 2.22328 2.22328 2.22328 2.22328 2.22328 2.2063 2.2063 2.2063 2.2063 2.2063 2.18935 2.18935 2.18935 2.18935 2.18935 2.17245 2.17245 2.17245 2.17245 2.17245 2.15563 2.15563 2.15563 2.15563 2.15563 2.13888 2.13888 2.13888 2.13888 2.13888 2.12224 2.12224 2.12224 2.12224 2.12224 2.10572 2.10572 2.10572 2.10572 2.10572 2.08932 2.08932 2.08932 2.08932 2.08932 2.07307 2.07307 2.07307 2.07307 2.07307 2.05699 2.05699 2.05699 2.05699 2.05699 2.04109 2.04109 2.04109 2.04109 2.04109 2.02539 2.02539 2.02539 2.02539 2.02539 2.00992 2.00992 2.00992 2.00992 2.00992 1.99469 1.99469 1.99469 1.99469 1.99469 1.97973 1.97973 1.97973 1.97973 1.97973 1.96508 1.96508 1.96508 1.96508 1.96508 1.95075 1.95075 1.95075 1.95075 1.95075 1.9368 1.9368 1.9368 1.9368 1.9368 1.92325 1.92325 1.92325 1.92325 1.92325 1.91014 1.91014 1.91014 1.91014 1.91014 1.89753 1.89753 1.89753 1.89753 1.89753 1.88546 1.88546 1.88546 1.88546 1.88546 1.87397 1.87397 1.87397 1.87397 1.87397 1.86313 1.86313 1.86313 1.86313 1.86313 1.85297 1.85297 1.85297 1.85297 1.85297 1.84356 1.84356 1.84356 1.84356 1.84356 1.83492 1.83492 1.83492 1.83492 1.83492 1.82711 1.82711 1.82711 1.82711 1.82711 1.82014 1.82014 1.82014 1.82014 1.82014 1.81404 1.81404 1.81404 1.81404 1.81404 1.8088 1.8088 1.8088 1.8088 1.8088 1.8044 1.8044 1.8044 1.8044 1.8044 1.80081 1.80081 1.80081 1.80081 1.80081 1.79799 1.79799 1.79799 1.79799 1.79799 1.79588 1.79588 1.79588 1.79588 1.79588 1.79443 1.79443 1.79443 1.79443 1.79443 1.79355 1.79355 1.79355 1.79355 1.79355 1.79321 1.79321 1.79321 1.79321 1.79321 1.79335 1.79335 1.79335 1.79335 1.79335 1.79396 1.79396 1.79396 1.79396 1.79396 1.79504 1.79504 1.79504 1.79504 1.79504 1.79661 1.79661 1.79661 1.79661 1.79661 1.79874 1.79874 1.79874 1.79874 1.79874 1.8015 1.8015 1.8015 1.8015 1.8015 1.80501 1.80501 1.80501 1.80501 1.80501 1.80933 1.80933 1.80933 1.80933 1.80933 1.81457 1.81457 1.81457 1.81457 1.81457 1.82084 1.82084 1.82084 1.82084 1.82084 1.82842 1.82842 1.82842 1.82842 1.82842 1.83804 1.83804 1.83804 1.83804 1.83804 1.85139 1.85139 1.85139 1.85139 1.85139 1.87203 1.87203 1.87203 1.87203 1.87203 1.9065 1.9065 1.9065 1.9065 1.9065 1.9656 1.9656 1.9656 1.9656 1.9656 2.06486 2.06486 2.06486 2.06486 2.06486 2.22156 2.22156 2.22156 2.22156 2.22156 2.43883 2.43883 2.43883 2.43883 2.43883 2.66954 2.66954 2.66954 2.66954 2.66954 2.8188 2.8188 2.8188 2.8188 2.8188 2.86284 2.86284 2.86284 2.86284 2.86284 2.86294 2.86294 2.86294 2.86294 2.86294 2.85611 2.85611 2.85611 2.85611 2.85611 2.84933 2.84933 2.84933 2.84933 2.84933 2.84336 2.84336 2.84336 2.84336 2.84336 2.83832 2.83832 2.83832 2.83832 2.83832 2.83421 2.83421 2.83421 2.83421 2.83421 2.83096 2.83096 2.83096 2.83096 2.83096 2.82846 2.82846 2.82846 2.82846 2.82846 2.82658 2.82658 2.82658 2.82658 2.82658 2.82519 2.82519 2.82519 2.82519 2.82519 2.82417 2.82417 2.82417 2.82417 2.82417 2.82341 2.82341 2.82341 2.82341 2.82341 2.82277 2.82277 2.82277 2.82277 2.82277 2.82226 2.82226 2.82226 2.82226 2.82226 2.82133 2.82133 2.82133 2.82133 2.82133 2.82039 2.82039 2.82039 2.82039 2.82039 2.81746 2.81746 2.81746 2.81746 2.81746 2.81362 2.81362 2.81362 2.81362 2.81362 2.80283 2.80283 2.80283 2.80283 2.80283 2.78561 2.78561 2.78561 2.78561 2.78561 2.74462 2.74462 2.74462 2.74462 2.74462 2.67501 2.67501 2.67501 2.67501 2.67501 2.53484 2.53484 2.53484 2.53484 2.53484 2.33516 2.33516 2.33516 2.33516 2.33516 2.09912 2.09912 2.09912 2.09912 2.09912 2.01663 2.01663 2.01663 2.01663 2.01663 2.00258 2.00258 2.00258 2.00258 2.00258 2.00039 2.00039 2.00039 2.00039 2.00039 2.00006 2.00006 2.00006 2.00006 2.00006 2.00001 2.00001 2.00001 2.00001 2.00001 2 2 2 2 2 2 2 2 2 2 2 2 2 2 2 2 2 2 2 2 2 2 2 2 2 2 2 2 2 2 2 2 2 2 2 2 2 2 2 2 2 2 2 2 2 2 2 2 2 2 2 2 2 2 2 2 2 2 2 2 2 2 2 2 2 2 2 2 2 2 2 2 2 2 2 2 2 2 2 2 2 2 2 2 2 2 2 2 2 2 2 2 2 2 2 2 2 2 2 2 2 2 2 2 2 2 2 2 2 2 2 2 2 2 2 2 2 2 2 2 2 2 2 2 2 2 2 2 2 2 2 2 2 2 2 2 2 2 2 2 2 2 2 2 2 2 2 2 2 2 2 2 2 2 2 2 2 2 2 2 2 2 2 2 2 2 2 2 2 2 2 2 2 2 2
				</DataArray>
				<DataArray Name="F1" type="Float32" format="ascii">
 1 1 1 1 1 1 1 1 1 1 1 1 1 1 1 1 1 1 1 1 1 1 1 1 1 1 1 1 1 1 1 1 1 1 1 1 1 1 1 1 1 1 1 1 1 1 1 1 1 1 1 1 1 1 1 1 1 1 1 1 1 1 1 1 1 1 1 1 1 1 1 1 1 1 1 1 1 1 1 1 1 1 1 1 1 1 1 1 1 1 1 1 1 1 1 1 1 1 1 1 1 1 1 1 1 1 1 1 1 1 1 1 1 1 1 1 1 1 1 1 1 1 1 1 1 1 1 1 1 1 1 1 1 1 1 1 1 1 1 1 1 1 1 1 1 1 1 1 1 1 1 1 1 1 1 1 1 1 1 1 1 1 1 1 1 1 1 1 1 1 1 1 1 1 1 1 1 1 1 1 1 1 1 1 1 1 1 1 1 1 1 1 1 1 1 1 1 1 1 1 1 1 1 1 1 1 1 1 1 1 1 1 1 1 1 1 1 1 1 1 1 1 1 1 1 1 1 1 1 1 1 1 1 1 1 1 1 1 1 1 1 1 1 1 1 1 1 1 1 1 1 1 1 1 1 1 1 1 1 1 1 1 1 1 1 1 1 1 1 1 1 1 1 1 1 1 1 1 1 1 1 1 1 1 1 1 1 1 1 1 1 1 1 1 1 1 1 1 1 1 1 1 1 1 1 1 1 1 1 1 1 1 1 1 1 1 1 1 1 1 1 1 1 1 1 1 1 1 1 1 1 1 1 1 1 1 1 1 1 1 1 1 1 1 1 1 1 1 1 1 1 1 1 1 1 1 1 1 1 1 1 1 1 1 1 1 1 1 1 1 1 1 1 1 1 1 1 1 1 1 1 1 1 1 1 1 1 1 1 1 1 1 1 1 1 1 1 1 1 1 1 1 1 1 1 1 1 1 1 1 1 1 1 1 1 1 1 1 1 1 1 1 1 1 1 1 1 1 1 1 1 1 1 1 1 1 1 1 1 1 1 1 1 1 1 1 1 1 1 1 1 1 1 1 1 1 1 1 1 1 1 1 1 1 1 1 1 1 1 1 1 1 1 1 1 1 1 1 1 1 1 1 1 1 1 1 1 1 1 1 1 1 1 1 1 1 1 1 1 1 1 1 1 1 1 1 1 1 1 1 1 1 1 1 1 1 1 1 1 1 1 1 1 1 1 1 1 1 1 1 1 1 1 1 1 1 1 1 1 1 1 1 1 1 1 1 1 1 1 1 1 1 1 1 1 1 1 1 1 1 1 1 1 1 1 1 1 1 1 1 1 1 1 1 1 1 1 1 1 1 1 1 1 1 1 0.999999 0.999999 0.999999 0.999999 0.999999 0.999994 0.999994 0.999994 0.999994 0.999994 0.999977 0.999977 0.999977 0.999977 0.999977 0.999917 0.999917 0.999917 0.999917 0.999917 0.999724 0.999724 0.999724 0.999724 0.999724 0.999146 0.999146 0.999146 0.999146 0.999146 0.997543 0.997543 0.997543 0.997543 0.997543 0.993437 0.993437 0.993437 0.993437 0.993437 0.983733 0.983733 0.983733 0.983733 0.983733 0.962641 0.962641 0.962641 0.962641 0.962641 0.920627 0.920627 0.920627 0.920627 0.920627 0.844444 0.844444 0.844444 0.844444 0.844444 0.720276 0.720276 0.720276 0.720276 0.720276 0.543025 0.543025 0.543025 0.543025 0.543025 0.332862 0.332862 0.332862 0.332862 0.332862 0.145615 0.145615 0.145615 0.145615 0.145615 0.0383609 0.0383609 0.0383609 0.0383609 0.0383609 0.00527457 0.00527457 0.00527457 0.00527457 0.00527457 0.000378096 0.000378096 0.000378096 0.000378096 0.000378096 1.69335e-05 1.69335e-05 1.69335e-05 1.69335e-05 1.69335e-05 5.95024e-07 5.95024e-07 5.95024e-07 5.95024e-07 5.95024e-07 1.89268e-08 1.89268e-08 1.89268e-08 1.89268e-08 1.89268e-08 5.79406e-10 5.79406e-10 5.79406e-10 5.79406e-10 5.79406e-10 1.74458e-11 1.74458e-11 1.74458e-11 1.74458e-11 1.74458e-11 5.19156e-13 5.19156e-13 5.19156e-13 5.19156e-13 5.19156e-13 1.47504e-14 1.47504e-14 1.47504e-14 1.47504e-14 1.47504e-14 6.86447e-16 6.86447e-16 6.86447e-16 6.86447e-16 6.86447e-16 0 0 0 0 0 0 0 0 0 0 0 0 0 0 0 0 0 0 0 0 0 0 0 0 0 0 0 0 0 0 0 0 0 0 0 0 0 0 0 0 0 0 0 0 0 0 0 0 0 0 0 0 0 0 0 0 0 0 0 0 0 0 0 0 0 0 0 0 0 0 0 0 0 0 0 0 0 0 0 0 0 0 0 0 0 0 0 0 0 0 0 0 0 0 0 0 0 0 0 0 0 0 0 0 0 0 0 0 0 0 0 0 0 0 0 0 0 0 0 0 0 0 0 0 0 0 0 0 0 0 0 0 0 0 0 0 0 0 0 0 0 0 0 0 0 0 0 0 0 0 0 0 0 0 0 0 0 0 0 0 0 0 0 0 0 0 0 0 0 0 0 0 0 0 0 0 0 0 0 0 0 0 0 0 0 0 0 0 0 0 0 0 0 0 0 0 0 0 0 0 0 0 0 0 0 0 0 0 0 0 0 0 0 0 0 0 0 0 0 0 0 0 0 0 0 0 0 0 0 0 0 0 0 0 0 0 0 0 0 0 0 0 0 0 0 0 0 0 0 0 0 0 0 0 0 0 0 0 0 0 0 0 0 0 0 0 0 0 0 0 0 0 0 0 0 0 0 0 0 0
				</DataArray>
				<DataArray Name="F2" type="Float32" format="ascii">
 0 0 0 0 0 0 0 0 0 0 0 0 0 0 0 0 0 0 0 0 0 0 0 0 0 0 0 0 0 0 0 0 0 0 0 0 0 0 0 0 0 0 0 0 0 0 0 0 0 0 0 0 0 0 0 0 0 0 0 0 0 0 0 0 0 0 0 0 0 0 0 0 0 0 0 0 0 0 0 0 0 0 0 0 0 0 0 0 0 0 0 0 0 0 0 0 0 0 0 0 0 0 0 0 0 0 0 0 0 0 0 0 0 0 0 0 0 0 0 0 0 0 0 0 0 0 0 0 0 0 0 0 0 0 0 0 0 0 0 0 0 0 0 0 0 0 0 0 0 0 0 0 0 0 0 0 0 0 0 0 0 0 0 0 0 0 0 0 0 0 0 0 0 0 0 0 0 0 0 0 0 0 0 0 0 0 0 0 0 0 0 0 0 0 0 0 0 0 0 0 0 0 0 0 0 0 0 0 0 0 0 0 0 0 0 0 0 0 0 0 0 0 0 0 0 0 0 0 0 0 0 0 0 0 0 0 0 0 0 0 0 0 0 0 0 0 0 0 0 0 0 0 0 0 0 0 0 0 0 0 0 0 0 0 0 0 0 0 0 0 0 0 0 0 0 0 0 0 0 0 0 0 0 0 0 0 0 0 0 0 0 0 0 0 0 0 0 0 0 0 0 0 0 0 0 0 0 0 0 0 0 0 0 0 0 0 0 0 0 0 0 0 0 0 0 0 0 0 0 0 0 0 0 0 0 0 0 0 0 0 0 0 0 0 0 0 0 0 0 0 0 0 0 0 0 0 0 0 0 0 0 0 0 0 0 0 0 0 0 0 0 0 0 0 0 0 0 0 0 0 0 0 0 0 0 0 0 0 0 0 0 0 0 0 0 0 0 0 0 0 0 0 0 0 0 0 0 0 0 0 0 0 0 0 0 0 0 0 0 0 0 0 0 0 0 0 0 0 0 0 0 0 0 0 0 0 0 0 0 0 0 0 0 0 0 0 0 0 0 0 0 0 0 0 0 0 0 0 0 0 0 0 0 0 0 0 0 0 0 0 0 0 0 0 0 0 0 0 0 0 0 0 0 0 0 0 0 0 0 0 0 0 0 0 0 0 0 0 0 0 0 0 0 0 0 0 0 0 0 0 0 0 0 0 0 0 0 0 0 0 1.64345e-16 1.64345e-16 1.64345e-16 1.64345e-16 1.64345e-16 7.49607e-16 7.49607e-16 7.49607e-16 7.49607e-16 7.49607e-16 2.95309e-15 2.95309e-15 2.95309e-15 2.95309e-15 2.95309e-15 1.9087e-14 1.9087e-14 1.9087e-14 1.9087e-14 1.9087e-14 1.68962e-13 1.68962e-13 1.68962e-13 1.68962e-13 1.68962e-13 1.37819e-12 1.37819e-12 1.37819e-12 1.37819e-12 1.37819e-12 1.02455e-11 1.02455e-11 1.02455e-11 1.02455e-11 1.02455e-11 6.99563e-11 6.99563e-11 6.99563e-11 6.99563e-11 6.99563e-11 4.41219e-10 4.41219e-10 4.41219e-10 4.41219e-10 4.41219e-10 2.58065e-09 2.58065e-09 2.58065e-09 2.58065e-09 2.58065e-09 1.40348e-08 1.40348e-08 1.40348e-08 1.40348e-08 1.40348e-08 7.10918e-08 7.10918e-08 7.10918e-08 7.10918e-08 7.10918e-08 3.35726e-07 3.35726e-07 3.35726e-07 3.35726e-07 3.35726e-07 1.4787e-06 1.4787e-06 1.4787e-06 1.4787e-06 1.4787e-06 6.07443e-06 6.07443e-06 6.07443e-06 6.07443e-06 6.07443e-06 2.3267e-05 2.3267e-05 2.3267e-05 2.3267e-05 2.3267e-05 8.3057e-05 8.3057e-05 8.3057e-05 8.3057e-05 8.3057e-05 0.00027613 0.00027613 0.00027613 0.00027613 0.00027613 0.000854263 0.000854263 0.000854263 0.000854263 0.000854263 0.00245701 0.00245701 0.00245701 0.00245701 0.00245701 0.00656343 0.00656343 0.00656343 0.00656343 0.00656343 0.016267 0.016267 0.016267 0.016267 0.016267 0.0373594 0.0373594 0.0373594 0.0373594 0.0373594 0.0793731 0.0793731 0.0793731 0.0793731 0.0793731 0.155556 0.155556 0.155556 0.155556 0.155556 0.279724 0.279724 0.279724 0.279724 0.279724 0.456975 0.456975 0.456975 0.456975 0.456975 0.667138 0.667138 0.667138 0.667138 0.667138 0.854385 0.854385 0.854385 0.854385 0.854385 0.961639 0.961639 0.961639 0.961639 0.961639 0.994725 0.994725 0.994725 0.994725 0.994725 0.999622 0.999622 0.999622 0.999622 0.999622 0.999983 0.999983 0.999983 0.999983 0.999983 0.999999 0.999999 0.999999 0.999999 0.999999 1 1 1 1 1 1 1 1 1 1 1 1 1 1 1 1 1 1 1 1 1 1 1 1 1 1 1 1 1 1 1 1 1 1 1 1 1 1 1 1 1 1 1 1 1 1 1 1 1 1 1 1 1 1 1 1 1 1 1 1 1 1 1 1 1 1 1 1 1 1 1 1 1 1 1 1 1 1 1 1 1 1 1 1 1 1 1 1 1 1 1 1 1 1 1 1 1 1 1 1 1 1 1 1 1 1 1 1 1 1 1 1 1 1 1 1 1 1 1 1 1 1 1 1 1 1 1 1 1 1 1 1 1 1 1 1 1 1 1 1 1 1 1 1 1 1 1 1 1 1 1 1 1 1 1 1 1 1 1 1 1 1 1 1 1 1 1 1 1 1 1 1 1 1 1 1 1 1 1 1 1 1 1 1 1 1 1 1 1 1 1 1 1 1 1 1 1 1 1 1 1 1 1 1 1 1 1 1 1 1 1 1 1 1 1 1 1 1 1 1 1 1 1 1 1 1 1 1 1 1 1 1 1 1 1 1 1 1 1 1 1 1 1 1 1 1 1 1 1 1 1 1 1 1 1 1 1 1 1 1 1 1 1 1 1 1 1 1 1 1 1 1 1 1 1 1 1 1 1 1 1 1 1 1 1 1 1 1 1 1 1 1 1 1 1 1 1 1 1 1 1 1 1 1 1 1 1 1 1 1
				</DataArray>
				<DataArray Name="F3" type="Float32" format="ascii">