<?xml version="1.0"?>
<VTKFile type="PolyData">
	<PolyData>
		<Piece NumberOfPoints="1206" NumberOfPolys="1000">
			<Points>
				<DataArray type="Float32" NumberOfComponents="3" format="ascii">
 0 0 0 0.02 0 0 0.04 0 0 0.06 0 0 0.08 0 0 0.1 0 0 0 0.005 0 0.02 0.005 0 0.04 0.005 0 0.06 0.005 0 0.08 0.005 0 0.1 0.005 0 0 0.01 0 0.02 0.01 0 0.04 0.01 0 0.06 0.01 0 0.08 0.01 0 0.1 0.01 0 0 0.015 0 0.02 0.015 0 0.04 0.015 0 0.06 0.015 0 0.08 0.015 0 0.1 0.015 0 0 0.02 0 0.02 0.02 0 0.04 0.02 0 0.06 0.02 0 0.08 0.02 0 0.1 0.02 0 0 0.025 0 0.02 0.025 0 0.04 0.025 0 0.06 0.025 0 0.08 0.025 0 0.1 0.025 0 0 0.03 0 0.02 0.03 0 0.04 0.03 0 0.06 0.03 0 0.08 0.03 0 0.1 0.03 0 0 0.035 0 0.02 0.035 0 0.04 0.035 0 0.06 0.035 0 0.08 0.035 0 0.1 0.035 0 0 0.04 0 0.02 0.04 0 0.04 0.04 0 0.06 0.04 0 0.08 0.04 0 0.1 0.04 0 0 0.045 0 0.02 0.045 0 0.04 0.045 0 0.06 0.045 0 0.08 0.045 0 0.1 0.045 0 0 0.05 0 0.02 0.05 0 0.04 0.05 0 0.06 0.05 0 0.08 0.05 0 0.1 0.05 0 0 0.055 0 0.02 0.055 0 0.04 0.055 0 0.06 0.055 0 0.08 0.055 0 0.1 0.055 0 0 0.06 0 0.02 0.06 0 0.04 0.06 0 0.06 0.06 0 0.08 0.06 0 0.1 0.06 0 0 0.065 0 0.02 0.065 0 0.04 0.065 0 0.06 0.065 0 0.08 0.065 0 0.1 0.065 0 0 0.07 0 0.02 0.07 0 0.04 0.07 0 0.06 0.07 0 0.08 0.07 0 0.1 0.07 0 0 0.075 0 0.02 0.075 0 0.04 0.075 0 0.06 0.075 0 0.08 0.075 0 0.1 0.075 0 0 0.08 0 0.02 0.08 0 0.04 0.08 0 0.06 0.08 0 0.08 0.08 0 0.1 0.08 0 0 0.085 0 0.02 0.085 0 0.04 0.085 0 0.06 0.085 0 0.08 0.085 0 0.1 0.085 0 0 0.09 0 0.02 0.09 0 0.04 0.09 0 0.06 0.09 0 0.08 0.09 0 0.1 0.09 0 0 0.095 0 0.02 0.095 0 0.04 0.095 0 0.06 0.095 0 0.08 0.095 0 0.1 0.095 0 0 0.1 0 0.02 0.1 0 0.04 0.1 0 0.06 0.1 0 0.08 0.1 0 0.1 0.1 0 0 0.105 0 0.02 0.105 0 0.04 0.105 0 0.06 0.105 0 0.08 0.105 0 0.1 0.105 0 0 0.11 0 0.02 0.11 0 0.04 0.11 0 0.06 0.11 0 0.08 0.11 0 0.1 0.11 0 0 0.115 0 0.02 0.115 0 0.04 0.115 0 0.06 0.115 0 0.08 0.115 0 0.1 0.115 0 0 0.12 0 0.02 0.12 0 0.04 0.12 0 0.06 0.12 0 0.08 0.12 0 0.1 0.12 0 0 0.125 0 0.02 0.125 0 0.04 0.125 0 0.06 0.125 0 0.08 0.125 0 0.1 0.125 0 0 0.13 0 0.02 0.13 0 0.04 0.13 0 0.06 0.13 0 0.08 0.13 0 0.1 0.13 0 0 0.135 0 0.02 0.135 0 0.04 0.135 0 0.06 0.135 0 0.08 0.135 0 0.1 0.135 0 0 0.14 0 0.02 0.14 0 0.04 0.14 0 0.06 0.14 0 0.08 0.14 0 0.1 0.14 0 0 0.145 0 0.02 0.145 0 0.04 0.145 0 0.06 0.145 0 0.08 0.145 0 0.1 0.145 0 0 0.15 0 0.02 0.15 0 0.04 0.15 0 0.06 0.15 0 0.08 0.15 0 0.1 0.15 0 0 0.155 0 0.02 0.155 0 0.04 0.155 0 0.06 0.155 0 0.08 0.155 0 0.1 0.155 0 0 0.16 0 0.02 0.16 0 0.04 0.16 0 0.06 0.16 0 0.08 0.16 0 0.1 0.16 0 0 0.165 0 0.02 0.165 0 0.04 0.165 0 0.06 0.165 0 0.08 0.165 0 0.1 0.165 0 0 0.17 0 0.02 0.17 0 0.04 0.17 0 0.06 0.17 0 0.08 0.17 0 0.1 0.17 0 0 0.175 0 0.02 0.175 0 0.04 0.175 0 0.06 0.175 0 0.08 0.175 0 0.1 0.175 0 0 0.18 0 0.02 0.18 0 0.04 0.18 0 0.06 0.18 0 0.08 0.18 0 0.1 0.18 0 0 0.185 0 0.02 0.185 0 0.04 0.185 0 0.06 0.185 0 0.08 0.185 0 0.1 0.185 0 0 0.19 0 0.02 0.19 0 0.04 0.19 0 0.06 0.19 0 0.08 0.19 0 0.1 0.19 0 0 0.195 0 0.02 0.195 0 0.04 0.195 0 0.06 0.195 0 0.08 0.195 0 0.1 0.195 0 0 0.2 0 0.02 0.2 0 0.04 0.2 0 0.06 0.2 0 0.08 0.2 0 0.1 0.2 0 0 0.205 0 0.02 0.205 0 0.04 0.205 0 0.06 0.205 0 0.08 0.205 0 0.1 0.205 0 0 0.21 0 0.02 0.21 0 0.04 0.21 0 0.06 0.21 0 0.08 0.21 0 0.1 0.21 0 0 0.215 0 0.02 0.215 0 0.04 0.215 0 0.06 0.215 0 0.08 0.215 0 0.1 0.215 0 0 0.22 0 0.02 0.22 0 0.04 0.22 0 0.06 0.22 0 0.08 0.22 0 0.1 0.22 0 0 0.225 0 0.02 0.225 0 0.04 0.225 0 0.06 0.225 0 0.08 0.225 0 0.1 0.225 0 0 0.23 0 0.02 0.23 0 0.04 0.23 0 0.06 0.23 0 0.08 0.23 0 0.1 0.23 0 0 0.235 0 0.02 0.235 0 0.04 0.235 0 0.06 0.235 0 0.08 0.235 0 0.1 0.235 0 0 0.24 0 0.02 0.24 0 0.04 0.24 0 0.06 0.24 0 0.08 0.24 0 0.1 0.24 0 0 0.245 0 0.02 0.245 0 0.04 0.245 0 0.06 0.245 0 0.08 0.245 0 0.1 0.245 0 0 0.25 0 0.02 0.25 0 0.04 0.25 0 0.06 0.25 0 0.08 0.25 0 0.1 0.25 0 0 0.255 0 0.02 0.255 0 0.04 0.255 0 0.06 0.255 0 0.08 0.255 0 0.1 0.255 0 0 0.26 0 0.02 0.26 0 0.04 0.26 0 0.06 0.26 0 0.08 0.26 0 0.1 0.26 0 0 0.265 0 0.02 0.265 0 0.04 0.265 0 0.06 0.265 0 0.08 0.265 0 0.1 0.265 0 0 0.27 0 0.02 0.27 0 0.04 0.27 0 0.06 0.27 0 0.08 0.27 0 0.1 0.27 0 0 0.275 0 0.02 0.275 0 0.04 0.275 0 0.06 0.275 0 0.08 0.275 0 0.1 0.275 0 0 0.28 0 0.02 0.28 0 0.04 0.28 0 0.06 0.28 0 0.08 0.28 0 0.1 0.28 0 0 0.285 0 0.02 0.285 0 0.04 0.285 0 0.06 0.285 0 0.08 0.285 0 0.1 0.285 0 0 0.29 0 0.02 0.29 0 0.04 0.29 0 0.06 0.29 0 0.08 0.29 0 0.1 0.29 0 0 0.295 0 0.02 0.295 0 0.04 0.295 0 0.06 0.295 0 0.08 0.295 0 0.1 0.295 0 0 0.3 0 0.02 0.3 0 0.04 0.3 0 0.06 0.3 0 0.08 0.3 0 0.1 0.3 0 0 0.305 0 0.02 0.305 0 0.04 0.305 0 0.06 0.305 0 0.08 0.305 0 0.1 0.305 0 0 0.31 0 0.02 0.31 0 0.04 0.31 0 0.06 0.31 0 0.08 0.31 0 0.1 0.31 0 0 0.315 0 0.02 0.315 0 0.04 0.315 0 0.06 0.315 0 0.08 0.315 0 0.1 0.315 0 0 0.32 0 0.02 0.32 0 0.04 0.32 0 0.06 0.32 0 0.08 0.32 0 0.1 0.32 0 0 0.325 0 0.02 0.325 0 0.04 0.325 0 0.06 0.325 0 0.08 0.325 0 0.1 0.325 0 0 0.33 0 0.02 0.33 0 0.04 0.33 0 0.06 0.33 0 0.08 0.33 0 0.1 0.33 0 0 0.335 0 0.02 0.335 0 0.04 0.335 0 0.06 0.335 0 0.08 0.335 0 0.1 0.335 0 0 0.34 0 0.02 0.34 0 0.04 0.34 0 0.06 0.34 0 0.08 0.34 0 0.1 0.34 0 0 0.345 0 0.02 0.345 0 0.04 0.345 0 0.06 0.345 0 0.08 0.345 0 0.1 0.345 0 0 0.35 0 0.02 0.35 0 0.04 0.35 0 0.06 0.35 0 0.08 0.35 0 0.1 0.35 0 0 0.355 0 0.02 0.355 0 0.04 0.355 0 0.06 0.355 0 0.08 0.355 0 0.1 0.355 0 0 0.36 0 0.02 0.36 0 0.04 0.36 0 0.06 0.36 0 0.08 0.36 0 0.1 0.36 0 0 0.365 0 0.02 0.365 0 0.04 0.365 0 0.06 0.365 0 0.08 0.365 0 0.1 0.365 0 0 0.37 0 0.02 0.37 0 0.04 0.37 0 0.06 0.37 0 0.08 0.37 0 0.1 0.37 0 0 0.375 0 0.02 0.375 0 0.04 0.375 0 0.06 0.375 0 0.08 0.375 0 0.1 0.375 0 0 0.38 0 0.02 0.38 0 0.04 0.38 0 0.06 0.38 0 0.08 0.38 0 0.1 0.38 0 0 0.385 0 0.02 0.385 0 0.04 0.385 0 0.06 0.385 0 0.08 0.385 0 0.1 0.385 0 0 0.39 0 0.02 0.39 0 0.04 0.39 0 0.06 0.39 0 0.08 0.39 0 0.1 0.39 0 0 0.395 0 0.02 0.395 0 0.04 0.395 0 0.06 0.395 0 0.08 0.395 0 0.1 0.395 0 0 0.4 0 0.02 0.4 0 0.04 0.4 0 0.06 0.4 0 0.08 0.4 0 0.1 0.4 0 0 0.405 0 0.02 0.405 0 0.04 0.405 0 0.06 0.405 0 0.08 0.405 0 0.1 0.405 0 0 0.41 0 0.02 0.41 0 0.04 0.41 0 0.06 0.41 0 0.08 0.41 0 0.1 0.41 0 0 0.415 0 0.02 0.415 0 0.04 0.415 0 0.06 0.415 0 0.08 0.415 0 0.1 0.415 0 0 0.42 0 0.02 0.42 0 0.04 0.42 0 0.06 0.42 0 0.08 0.42 0 0.1 0.42 0 0 0.425 0 0.02 0.425 0 0.04 0.425 0 0.06 0.425 0 0.08 0.425 0 0.1 0.425 0 0 0.43 0 0.02 0.43 0 0.04 0.43 0 0.06 0.43 0 0.08 0.43 0 0.1 0.43 0 0 0.435 0 0.02 0.435 0 0.04 0.435 0 0.06 0.435 0 0.08 0.435 0 0.1 0.435 0 0 0.44 0 0.02 0.44 0 0.04 0.44 0 0.06 0.44 0 0.08 0.44 0 0.1 0.44 0 0 0.445 0 0.02 0.445 0 0.04 0.445 0 0.06 0.445 0 0.08 0.445 0 0.1 0.445 0 0 0.45 0 0.02 0.45 0 0.04 0.45 0 0.06 0.45 0 0.08 0.45 0 0.1 0.45 0 0 0.455 0 0.02 0.455 0 0.04 0.455 0 0.06 0.455 0 0.08 0.455 0 0.1 0.455 0 0 0.46 0 0.02 0.46 0 0.04 0.46 0 0.06 0.46 0 0.08 0.46 0 0.1 0.46 0 0 0.465 0 0.02 0.465 0 0.04 0.465 0 0.06 0.465 0 0.08 0.465 0 0.1 0.465 0 0 0.47 0 0.02 0.47 0 0.04 0.47 0 0.06 0.47 0 0.08 0.47 0 0.1 0.47 0 0 0.475 0 0.02 0.475 0 0.04 0.475 0 0.06 0.475 0 0.08 0.475 0 0.1 0.475 0 0 0.48 0 0.02 0.48 0 0.04 0.48 0 0.06 0.48 0 0.08 0.48 0 0.1 0.48 0 0 0.485 0 0.02 0.485 0 0.04 0.485 0 0.06 0.485 0 0.08 0.485 0 0.1 0.485 0 0 0.49 0 0.02 0.49 0 0.04 0.49 0 0.06 0.49 0 0.08 0.49 0 0.1 0.49 0 0 0.495 0 0.02 0.495 0 0.04 0.495 0 0.06 0.495 0 0.08 0.495 0 0.1 0.495 0 0 0.5 0 0.02 0.5 0 0.04 0.5 0 0.06 0.5 0 0.08 0.5 0 0.1 0.5 0 0 0.505 0 0.02 0.505 0 0.04 0.505 0 0.06 0.505 0 0.08 0.505 0 0.1 0.505 0 0 0.51 0 0.02 0.51 0 0.04 0.51 0 0.06 0.51 0 0.08 0.51 0 0.1 0.51 0 0 0.515 0 0.02 0.515 0 0.04 0.515 0 0.06 0.515 0 0.08 0.515 0 0.1 0.515 0 0 0.52 0 0.02 0.52 0 0.04 0.52 0 0.06 0.52 0 0.08 0.52 0 0.1 0.52 0 0 0.525 0 0.02 0.525 0 0.04 0.525 0 0.06 0.525 0 0.08 0.525 0 0.1 0.525 0 0 0.53 0 0.02 0.53 0 0.04 0.53 0 0.06 0.53 0 0.08 0.53 0 0.1 0.53 0 0 0.535 0 0.02 0.535 0 0.04 0.535 0 0.06 0.535 0 0.08 0.535 0 0.1 0.535 0 0 0.54 0 0.02 0.54 0 0.04 0.54 0 0.06 0.54 0 0.08 0.54 0 0.1 0.54 0 0 0.545 0 0.02 0.545 0 0.04 0.545 0 0.06 0.545 0 0.08 0.545 0 0.1 0.545 0 0 0.55 0 0.02 0.55 0 0.04 0.55 0 0.06 0.55 0 0.08 0.55 0 0.1 0.55 0 0 0.555 0 0.02 0.555 0 0.04 0.555 0 0.06 0.555 0 0.08 0.555 0 0.1 0.555 0 0 0.56 0 0.02 0.56 0 0.04 0.56 0 0.06 0.56 0 0.08 0.56 0 0.1 0.56 0 0 0.565 0 0.02 0.565 0 0.04 0.565 0 0.06 0.565 0 0.08 0.565 0 0.1 0.565 0 0 0.57 0 0.02 0.57 0 0.04 0.57 0 0.06 0.57 0 0.08 0.57 0 0.1 0.57 0 0 0.575 0 0.02 0.575 0 0.04 0.575 0 0.06 0.575 0 0.08 0.575 0 0.1 0.575 0 0 0.58 0 0.02 0.58 0 0.04 0.58 0 0.06 0.58 0 0.08 0.58 0 0.1 0.58 0 0 0.585 0 0.02 0.585 0 0.04 0.585 0 0.06 0.585 0 0.08 0.585 0 0.1 0.585 0 0 0.59 0 0.02 0.59 0 0.04 0.59 0 0.06 0.59 0 0.08 0.59 0 0.1 0.59 0 0 0.595 0 0.02 0.595 0 0.04 0.595 0 0.06 0.595 0 0.08 0.595 0 0.1 0.595 0 0 0.6 0 0.02 0.6 0 0.04 0.6 0 0.06 0.6 0 0.08 0.6 0 0.1 0.6 0 0 0.605 0 0.02 0.605 0 0.04 0.605 0 0.06 0.605 0 0.08 0.605 0 0.1 0.605 0 0 0.61 0 0.02 0.61 0 0.04 0.61 0 0.06 0.61 0 0.08 0.61 0 0.1 0.61 0 0 0.615 0 0.02 0.615 0 0.04 0.615 0 0.06 0.615 0 0.08 0.615 0 0.1 0.615 0 0 0.62 0 0.02 0.62 0 0.04 0.62 0 0.06 0.62 0 0.08 0.62 0 0.1 0.62 0 0 0.625 0 0.02 0.625 0 0.04 0.625 0 0.06 0.625 0 0.08 0.625 0 0.1 0.625 0 0 0.63 0 0.02 0.63 0 0.04 0.63 0 0.06 0.63 0 0.08 0.63 0 0.1 0.63 0 0 0.635 0 0.02 0.635 0 0.04 0.635 0 0.06 0.635 0 0.08 0.635 0 0.1 0.635 0 0 0.64 0 0.02 0.64 0 0.04 0.64 0 0.06 0.64 0 0.08 0.64 0 0.1 0.64 0 0 0.645 0 0.02 0.645 0 0.04 0.645 0 0.06 0.645 0 0.08 0.645 0 0.1 0.645 0 0 0.65 0 0.02 0.65 0 0.04 0.65 0 0.06 0.65 0 0.08 0.65 0 0.1 0.65 0 0 0.655 0 0.02 0.655 0 0.04 0.655 0 0.06 0.655 0 0.08 0.655 0 0.1 0.655 0 0 0.66 0 0.02 0.66 0 0.04 0.66 0 0.06 0.66 0 0.08 0.66 0 0.1 0.66 0 0 0.665 0 0.02 0.665 0 0.04 0.665 0 0.06 0.665 0 0.08 0.665 0 0.1 0.665 0 0 0.67 0 0.02 0.67 0 0.04 0.67 0 0.06 0.67 0 0.08 0.67 0 0.1 0.67 0 0 0.675 0 0.02 0.675 0 0.04 0.675 0 0.06 0.675 0 0.08 0.675 0 0.1 0.675 0 0 0.68 0 0.02 0.68 0 0.04 0.68 0 0.06 0.68 0 0.08 0.68 0 0.1 0.68 0 0 0.685 0 0.02 0.685 0 0.04 0.685 0 0.06 0.685 0 0.08 0.685 0 0.1 0.685 0 0 0.69 0 0.02 0.69 0 0.04 0.69 0 0.06 0.69 0 0.08 0.69 0 0.1 
[...]
			<CellData Scalars="Density">
				<DataArray Name="Density" type="Float32" format="ascii">
 1 1 1 1 1 1 1 1 1 1 1 1 1 1 1 1 1 1 1 1 1 1 1 1 1 1 1 1 1 1 1 1 1 1 1 1 1 1 1 1 1 1 1 1 1 1 1 1 1 1 1 1 1 1 1 1 1 1 1 1 1 1 1 1 1 1 1 1 1 1 1 1 1 1 1 1 1 1 1 1 1 1 1 1 1 1 1 1 1 1 1 1 1 1 1 1 1 1 1 1 1 1 1 1 1 1 1 1 1 1 1 1 1 1 1 1 1 1 1 1 1 1 1 1 1 1 1 1 1 1 1 1 1 1 1 1 1 1 1 1 1 1 1 1 1 1 1 1 1 1 1 1 1 1 1 1 1 1 1 1 1 1 1 1 1 1 1 1 1 1 1 1 1 1 1 1 1 1 1 1 1 1 1 1 1 1 1 1 1 1 1 1 1 1 1 1 1 1 1 1 1 1 1 1 1 1 1 1 1 1 1 1 1 1 1 1 1 1 1 1 1 1 1 1 1 1 1 1 1 1 1 1 1 1 1 1 1 1 1 1 1 1 1 1 1 1 1 1 1 1 1 1 1 1 1 1 1 1 1 1 0.999999 0.999999 0.999999 0.999999 0.999999 0.999997 0.999997 0.999997 0.999997 0.999997 0.999992 0.999992 0.999992 0.999992 0.999992 0.999979 0.999979 0.999979 0.999979 0.999979 0.999943 0.999943 0.999943 0.999943 0.999943 0.99985 0.99985 0.99985 0.99985 0.99985 0.999608 0.999608 0.999608 0.999608 0.999608 0.999009 0.999009 0.999009 0.999009 0.999009 0.997762 0.997762 0.997762 0.997762 0.997762 0.995465 0.995465 0.995465 0.995465 0.995465 0.991718 0.991718 0.991718 0.991718 0.991718 0.98617 0.98617 0.98617 0.98617 0.98617 0.97863 0.97863 0.97863 0.97863 0.97863 0.969064 0.969064 0.969064 0.969064 0.969064 0.957601 0.957601 0.957601 0.957601 0.957601 0.944467 0.944467 0.944467 0.944467 0.944467 0.929938 0.929938 0.929938 0.929938 0.929938 0.914303 0.914303 0.914303 0.914303 0.914303 0.897818 0.897818 0.897818 0.897818 0.897818 0.880723 0.880723 0.880723 0.880723 0.880723 0.863201 0.863201 0.863201 0.863201 0.863201 0.84542 0.84542 0.84542 0.84542 0.84542 0.8275 0.8275 0.8275 0.8275 0.8275 0.809548 0.809548 0.809548 0.809548 0.809548 0.791644 0.791644 0.791644 0.791644 0.791644 0.773854 0.773854 0.773854 0.773854 0.773854 0.756231 0.756231 0.756231 0.756231 0.756231 0.738815 0.738815 0.738815 0.738815 0.738815 0.721645 0.721645 0.721645 0.721645 0.721645 0.704745 0.704745 0.704745 0.704745 0.704745 0.688143 0.688143 0.688143 0.688143 0.688143 0.671857 0.671857 0.671857 0.671857 0.671857 0.655908 0.655908 0.655908 0.655908 0.655908 0.640312 0.640312 0.640312 0.640312 0.640312 0.625087 0.625087 0.625087 0.625087 0.625087 0.610247 0.610247 0.610247 0.610247 0.610247 0.59581 0.59581 0.59581 0.59581 0.59581 0.581793 0.581793 0.581793 0.581793 0.581793 0.568215 0.568215 0.568215 0.568215 0.568215 0.555094 0.555094 0.555094 0.555094 0.555094 0.542454 0.542454 0.542454 0.542454 0.542454 0.530318 0.530318 0.530318 0.530318 0.530318 0.518712 0.518712 0.518712 0.518712 0.518712 0.507664 0.507664 0.507664 0.507664 0.507664 0.497204 0.497204 0.497204 0.497204 0.497204 0.487364 0.487364 0.487364 0.487364 0.487364 0.478174 0.478174 0.478174 0.478174 0.478174 0.469663 0.469663 0.469663 0.469663 0.469663 0.46186 0.46186 0.46186 0.46186 0.46186 0.454784 0.454784 0.454784 0.454784 0.454784 0.448449 0.448449 0.448449 0.448449 0.448449 0.442857 0.442857 0.442857 0.442857 0.442857 0.437997 0.437997 0.437997 0.437997 0.437997 0.433843 0.433843 0.433843 0.433843 0.433843 0.430354 0.430354 0.430354 0.430354 0.430354 0.427471 0.427471 0.427471 0.427471 0.427471 0.425123 0.425123 0.425123 0.425123 0.425123 0.423228 0.423228 0.423228 0.423228 0.423228 0.421691 0.421691 0.421691 0.421691 0.421691 0.420414 0.420414 0.420414 0.420414 0.420414 0.419298 0.419298 0.419298 0.419298 0.419298 0.418243 0.418243 0.418243 0.418243 0.418243 0.417156 0.417156 0.417156 0.417156 0.417156 0.415954 0.415954 0.415954 0.415954 0.415954 0.414573 0.414573 0.414573 0.414573 0.414573 0.412943 0.412943 0.412943 0.412943 0.412943 0.410953 0.410953 0.410953 0.410953 0.410953 0.408358 0.408358 0.408358 0.408358 0.408358 0.404588 0.404588 0.404588 0.404588 0.404588 0.398542 0.398542 0.398542 0.398542 0.398542 0.388388 0.388388 0.388388 0.388388 0.388388 0.371751 0.371751 0.371751 0.371751 0.371751 0.347001 0.347001 0.347001 0.347001 0.347001 0.315761 0.315761 0.315761 0.315761 0.315761 0.286245 0.286245 0.286245 0.286245 0.286245 0.26865 0.26865 0.26865 0.26865 0.26865 0.263619 0.263619 0.263619 0.263619 0.263619 0.263655 0.263655 0.263655 0.263655 0.263655 0.264446 0.264446 0.264446 0.264446 0.264446 0.265194 0.265194 0.265194 0.265194 0.265194 0.265827 0.265827 0.265827 0.265827 0.265827 0.266345 0.266345 0.266345 0.266345 0.266345 0.266752 0.266752 0.266752 0.266752 0.266752 0.26706 0.26706 0.26706 0.26706 0.26706 0.267272 0.267272 0.267272 0.267272 0.267272 0.267427 0.267427 0.267427 0.267427 0.267427 0.267417 0.267417 0.267417 0.267417 0.267417 0.267413 0.267413 0.267413 0.267413 0.267413 0.26688 0.26688 0.26688 0.26688 0.26688 0.266346 0.266346 0.266346 0.266346 0.266346 0.264183 0.264183 0.264183 0.264183 0.264183 0.261203 0.261203 0.261203 0.261203 0.261203 0.253256 0.253256 0.253256 0.253256 0.253256 0.241186 0.241186 0.241186 0.241186 0.241186 0.216665 0.216665 0.216665 0.216665 0.216665 0.185664 0.185664 0.185664 0.185664 0.185664 0.147066 0.147066 0.147066 0.147066 0.147066 0.129198 0.129198 0.129198 0.129198 0.129198 0.125671 0.125671 0.125671 0.125671 0.125671 0.125103 0.125103 0.125103 0.125103 0.125103 0.125016 0.125016 0.125016 0.125016 0.125016 0.125002 0.125002 0.125002 0.125002 0.125002 0.125 0.125 0.125 0.125 0.125 0.125 0.125 0.125 0.125 0.125 0.125 0.125 0.125 0.125 0.125 0.125 0.125 0.125 0.125 0.125 0.125 0.125 0.125 0.125 0.125 0.125 0.125 0.125 0.125 0.125 0.125 0.125 0.125 0.125 0.125 0.125 0.125 0.125 0.125 0.125 0.125 0.125 0.125 0.125 0.125 0.125 0.125 0.125 0.125 0.125 0.125 0.125 0.125 0.125 0.125 0.125 0.125 0.125 0.125 0.125 0.125 0.125 0.125 0.125 0.125 0.125 0.125 0.125 0.125 0.125 0.125 0.125 0.125 0.125 0.125 0.125 0.125 0.125 0.125 0.125 0.125 0.125 0.125 0.125 0.125 0.125 0.125 0.125 0.125 0.125 0.125 0.125 0.125 0.125 0.125 0.125 0.125 0.125 0.125 0.125 0.125 0.125 0.125 0.125 0.125 0.125 0.125 0.125 0.125 0.125 0.125 0.125 0.125 0.125 0.125 0.125 0.125 0.125 0.125 0.125 0.125 0.125 0.125 0.125 0.125 0.125 0.125 0.125 0.125 0.125 0.125 0.125 0.125 0.125 0.125 0.125 0.125 0.125 0.125 0.125 0.125 0.125 0.125 0.125 0.125 0.125 0.125 0.125 0.125 0.125 0.125 0.125 0.125 0.125 0.125 0.125 0.125 0.125 0.125 0.125 0.125 0.125 0.125 0.125 0.125 0.125 0.125 0.125 0.125 0.125 0.125 0.125 0.125 0.125 0.125 0.125 0.125 0.125 0.125 0.125 0.125 0.125 0.125 0.125 0.125 0.125 0.125 0.125 0.125 0.125 0.125 0.125 0.125 0.125 0.125 0.125 0.125 0.125 0.125 0.125 0.125 0.125 0.125 0.125 0.125 0.125 0.125 0.125 0.125 0.125 0.125 0.125 0.125 0.125 0.125 0.125 0.125 0.125 0.125 0.125 0.125 0.125 0.125 0.125 0.125 0.125 0.125 0.125 0.125 0.125
				</DataArray>
				<DataArray Name="Energy" type="Float32" format="ascii">
 2.5 2.5 2.5 2.5 2.5 2.5 2.5 2.5 2.5 2.5 2.5 2.5 2.5 2.5 2.5 2.5 2.5 2.5 2.5 2.5 2.5 2.5 2.5 2.5 2.5 2.5 2.5 2.5 2.5 2.5 2.5 2.5 2.5 2.5 2.5 2.5 2.5 2.5 2.5 2.5 2.5 2.5 2.5 2.5 2.5 2.5 2.5 2.5 2.5 2.5 2.5 2.5 2.5 2.5 2.5 2.5 2.5 2.5 2.5 2.5 2.5 2.5 2.5 2.5 2.5 2.5 2.5 2.5 2.5 2.5 2.5 2.5 2.5 2.5 2.5 2.5 2.5 2.5 2.5 2.5 2.5 2.5 2.5 2.5 2.5 2.5 2.5 2.5 2.5 2.5 2.5 2.5 2.5 2.5 2.5 2.5 2.5 2.5 2.5 2.5 2.5 2.5 2.5 2.5 2.5 2.5 2.5 2.5 2.5 2.5 2.5 2.5 2.5 2.5 2.5 2.5 2.5 2.5 2.5 2.5 2.5 2.5 2.5 2.5 2.5 2.5 2.5 2.5 2.5 2.5 2.5 2.5 2.5 2.5 2.5 2.5 2.5 2.5 2.5 2.5 2.5 2.5 2.5 2.5 2.5 2.5 2.5 2.5 2.5 2.5 2.5 2.5 2.5 2.5 2.5 2.5 2.5 2.5 2.5 2.5 2.5 2.5 2.5 2.5 2.5 2.5 2.5 2.5 2.5 2.5 2.5 2.5 2.5 2.5 2.5 2.5 2.5 2.5 2.5 2.5 2.5 2.5 2.5 2.5 2.5 2.5 2.5 2.5 2.5 2.5 2.5 2.5 2.5 2.5 2.5 2.5 2.5 2.5 2.5 2.5 2.5 2.5 2.5 2.5 2.5 2.5 2.5 2.5 2.5 2.5 2.5 2.5 2.5 2.5 2.5 2.5 2.5 2.5 2.5 2.5 2.5 2.5 2.5 2.5 2.5 2.5 2.5 2.5 2.5 2.5 2.5 2.5 2.5 2.5 2.5 2.5 2.5 2.5 2.5 2.5 2.5 2.5 2.5 2.5 2.5 2.5 2.5 2.5 2.5 2.5 2.5 2.5 2.5 2.5 2.5 2.5 2.5 2.5 2.5 2.5 2.5 2.5 2.5 2.5 2.5 2.5 2.5 2.5 2.5 2.5 2.49999 2.49999 2.49999 2.49999 2.49999 2.49998 2.49998 2.49998 2.49998 2.49998 2.49994 2.49994 2.49994 2.49994 2.49994 2.49985 2.49985 2.49985 2.49985 2.49985 2.49961 2.49961 2.49961 2.49961 2.49961 2.49901 2.49901 2.49901 2.49901 2.49901 2.49776 2.49776 2.49776 2.49776 2.49776 2.49546 2.49546 2.49546 2.49546 2.49546 2.49171 2.49171 2.49171 2.49171 2.49171 2.48614 2.48614 2.48614 2.48614 2.48614 2.47855 2.47855 2.47855 2.47855 2.47855 2.46889 2.46889 2.46889 2.46889 2.46889 2.45724 2.45724 2.45724 2.45724 2.45724 2.44382 2.44382 2.44382 2.44382 2.44382 2.42886 2.42886 2.42886 2.42886 2.42886 2.41262 2.41262 2.41262 2.41262 2.41262 2.39534 2.39534 2.39534 2.39534 2.39534 2.37724 2.37724 2.37724 2.37724 2.37724 2.35849 2.35849 2.35849 2.35849 2.35849 2.33924 2.33924 2.33924 2.33924 2.33924 2.31962 2.31962 2.31962 2.31962 2.31962 2.29972 2.29972 2.29972 2.29972 2.29972 2.27963 2.27963 2.27963 2.27963 2.27963 2.25942 2.25942 2.25942 2.25942 2.25942 2.23915 2.23915 2.23915 2.23915 2.23915 2.21885 2.21885 2.21885 2.21885 2.21885 2.19858 2.19858 2.19858 2.19858 2.19858 2.17836 2.17836 2.17836 2.17836 2.17836 2.15824 2.15824 2.15824 2.15824 2.15824 2.13824 2.13824 2.13824 2.13824 2.13824 2.11839 2.11839 2.11839 2.11839 2.11839 2.09872 2.09872 2.09872 2.09872 2.09872 2.07927 2.07927 2.07927 2.07927 2.07927 2.06006 2.06006 2.06006 2.06006 2.06006 2.04112 2.04112 2.04112 2.04112 2.04112 2.02249 2.02249 2.02249 2.02249 2.02249 2.00421 2.00421 2.00421 2.00421 2.00421 1.98633 1.98633 1.98633 1.98633 1.98633 1.96889 1.96889 1.96889 1.96889 1.96889 1.95194 1.95194 1.95194 1.95194 1.95194 1.93554 1.93554 1.93554 1.93554 1.93554 1.91976 1.91976 1.91976 1.91976 1.91976 1.90466 1.90466 1.90466 1.90466 1.90466 1.89032 1.89032 1.89032 1.89032 1.89032 1.87682 1.87682 1.87682 1.87682 1.87682 1.86423 1.86423 1.86423 1.86423 1.86423 1.85264 1.85264 1.85264 1.85264 1.85264 1.8421 1.8421 1.8421 1.8421 1.8421 1.83267 1.83267 1.83267 1.83267 1.83267 1.82441 1.82441 1.82441 1.82441 1.82441 1.81733 1.81733 1.81733 1.81733 1.81733 1.81144 1.81144 1.81144 1.81144 1.81144 1.8067 1.8067 1.8067 1.8067 1.8067 1.80308 1.80308 1.80308 1.80308 1.80308 1.80052 1.80052 1.80052 1.80052 1.80052 1.79897 1.79897 1.79897 1.79897 1.79897 1.79837 1.79837 1.79837 1.79837 1.79837 1.79871 1.79871 1.79871 1.79871 1.79871 1.8 1.8 1.8 1.8 1.8 1.80228 1.80228 1.80228 1.80228 1.80228 1.80563 1.80563 1.80563 1.80563 1.80563 1.81014 1.81014 1.81014 1.81014 1.81014 1.81593 1.81593 1.81593 1.81593 1.81593 1.82317 1.82317 1.82317 1.82317 1.82317 1.83228 1.83228 1.83228 1.83228 1.83228 1.8444 1.8444 1.8444 1.8444 1.8444 1.86219 1.86219 1.86219 1.86219 1.86219 1.89123 1.89123 1.89123 1.89123 1.89123 1.94161 1.94161 1.94161 1.94161 1.94161 2.02932 2.02932 2.02932 2.02932 2.02932 2.17507 2.17507 2.17507 2.17507 2.17507 2.39009 2.39009 2.39009 2.39009 2.39009 2.63665 2.63665 2.63665 2.63665 2.63665 2.80943 2.80943 2.80943 2.80943 2.80943 2.86395 2.86395 2.86395 2.86395 2.86395 2.86467 2.86467 2.86467 2.86467 2.86467 2.85672 2.85672 2.85672 2.85672 2.85672 2.84902 2.84902 2.84902 2.84902 2.84902 2.84247 2.84247 2.84247 2.84247 2.84247 2.83716 2.83716 2.83716 2.83716 2.83716 2.83302 2.83302 2.83302 2.83302 2.83302 2.82986 2.82986 2.82986 2.82986 2.82986 2.82746 2.82746 2.82746 2.82746 2.82746 2.82572 2.82572 2.82572 2.82572 2.82572 2.82396 2.82396 2.82396 2.82396 2.82396 2.82273 2.82273 2.82273 2.82273 2.82273 2.81962 2.81962 2.81962 2.81962 2.81962 2.81674 2.81674 2.81674 2.81674 2.81674 2.80708 2.80708 2.80708 2.80708 2.80708 2.79386 2.79386 2.79386 2.79386 2.79386 2.75862 2.75862 2.75862 2.75862 2.75862 2.70223 2.70223 2.70223 2.70223 2.70223 2.5798 2.5798 2.5798 2.5798 2.5798 2.40086 2.40086 2.40086 2.40086 2.40086 2.15328 2.15328 2.15328 2.15328 2.15328 2.02774 2.02774 2.02774 2.02774 2.02774 2.00432 2.00432 2.00432 2.00432 2.00432 2.00066 2.00066 2.00066 2.00066 2.00066 2.0001 2.0001 2.0001 2.0001 2.0001 2.00002 2.00002 2.00002 2.00002 2.00002 2 2 2 2 2 2 2 2 2 2 2 2 2 2 2 2 2 2 2 2 2 2 2 2 2 2 2 2 2 2 2 2 2 2 2 2 2 2 2 2 2 2 2 2 2 2 2 2 2 2 2 2 2 2 2 2 2 2 2 2 2 2 2 2 2 2 2 2 2 2 2 2 2 2 2 2 2 2 2 2 2 2 2 2 2 2 2 2 2 2 2 2 2 2 2 2 2 2 2 2 2 2 2 2 2 2 2 2 2 2 2 2 2 2 2 2 2 2 2 2 2 2 2 2 2 2 2 2 2 2 2 2 2 2 2 2 2 2 2 2 2 2 2 2 2 2 2 2 2 2 2 2 2 2 2 2 2 2 2 2 2 2 2 2 2 2 2 2 2 2 2 2 2 2 2 2 2 2 2 2 2 2 2 2 2 2 2 2 2 2 2 2 2 2 2 2 2 2 2 2 2 2 2 2 2 2 2 2 2 2 2 2 2 2 2 2 2 2 2 2 2 2 2 2 2 2 2 2 2 2
				</DataArray>
				<DataArray Name="F1" type="Float32" format="ascii">
 1 1 1 1 1 1 1 1 1 1 1 1 1 1 1 1 1 1 1 1 1 1 1 1 1 1 1 1 1 1 1 1 1 1 1 1 1 1 1 1 1 1 1 1 1 1 1 1 1 1 1 1 1 1 1 1 1 1 1 1 1 1 1 1 1 1 1 1 1 1 1 1 1 1 1 1 1 1 1 1 1 1 1 1 1 1 1 1 1 1 1 1 1 1 1 1 1 1 1 1 1 1 1 1 1 1 1 1 1 1 1 1 1 1 1 1 1 1 1 1 1 1 1 1 1 1 1 1 1 1 1 1 1 1 1 1 1 1 1 1 1 1 1 1 1 1 1 1 1 1 1 1 1 1 1 1 1 1 1 1 1 1 1 1 1 1 1 1 1 1 1 1 1 1 1 1 1 1 1 1 1 1 1 1 1 1 1 1 1 1 1 1 1 1 1 1 1 1 1 1 1 1 1 1 1 1 1 1 1 1 1 1 1 1 1 1 1 1 1 1 1 1 1 1 1 1 1 1 1 1 1 1 1 1 1 1 1 1 1 1 1 1 1 1 1 1 1 1 1 1 1 1 1 1 1 1 1 1 1 1 1 1 1 1 1 1 1 1 1 1 1 1 1 1 1 1 1 1 1 1 1 1 1 1 1 1 1 1 1 1 1 1 1 1 1 1 1 1 1 1 1 1 1 1 1 1 1 1 1 1 1 1 1 1 1 1 1 1 1 1 1 1 1 1 1 1 1 1 1 1 1 1 1 1 1 1 1 1 1 1 1 1 1 1 1 1 1 1 1 1 1 1 1 1 1 1 1 1 1 1 1 1 1 1 1 1 1 1 1 1 1 1 1 1 1 1 1 1 1 1 1 1 1 1 1 1 1 1 1 1 1 1 1 1 1 1 1 1 1 1 1 1 1 1 1 1 1 1 1 1 1 1 1 1 1 1 1 1 1 1 1 1 1 1 1 1 1 1 1 1 1 1 1 1 1 1 1 1 1 1 1 1 1 1 1 1 1 1 1 1 1 1 1 1 1 1 1 1 1 1 1 1 1 1 1 1 1 1 1 1 1 1 1 1 1 1 1 1 1 1 1 1 1 1 1 1 1 1 1 1 1 1 1 1 1 1 1 1 1 1 1 1 1 1 1 1 1 1 1 1 1 1 1 1 1 1 1 1 1 1 1 1 1 1 1 1 1 1 1 1 1 1 1 1 1 1 1 1 1 1 1 1 1 1 1 1 1 1 1 1 1 1 1 1 1 1 1 1 1 1 0.999999 0.999999 0.999999 0.999999 0.999999 0.999994 0.999994 0.999994 0.999994 0.999994 0.999974 0.999974 0.999974 0.999974 0.999974 0.999898 0.999898 0.999898 0.999898 0.999898 0.999639 0.999639 0.999639 0.999639 0.999639 0.998821 0.998821 0.998821 0.998821 0.998821 0.996462 0.996462 0.996462 0.996462 0.996462 0.990252 0.990252 0.990252 0.990252 0.990252 0.975373 0.975373 0.975373 0.975373 0.975373 0.943009 0.943009 0.943009 0.943009 0.943009 0.879434 0.879434 0.879434 0.879434 0.879434 0.767852 0.767852 0.767852 0.767852 0.767852 0.59697 0.59697 0.59697 0.59697 0.59697 0.380035 0.380035 0.380035 0.380035 0.380035 0.17343 0.17343 0.17343 0.17343 0.17343 0.0475261 0.0475261 0.0475261 0.0475261 0.0475261 0.00669841 0.00669841 0.00669841 0.00669841 0.00669841 0.000480352 0.000480352 0.000480352 0.000480352 0.000480352 2.10671e-05 2.10671e-05 2.10671e-05 2.10671e-05 2.10671e-05 7.17505e-07 7.17505e-07 7.17505e-07 7.17505e-07 7.17505e-07 2.20382e-08 2.20382e-08 2.20382e-08 2.20382e-08 2.20382e-08 6.49957e-10 6.49957e-10 6.49957e-10 6.49957e-10 6.49957e-10 1.88032e-11 1.88032e-11 1.88032e-11 1.88032e-11 1.88032e-11 5.35511e-13 5.35511e-13 5.35511e-13 5.35511e-13 5.35511e-13 1.46043e-14 1.46043e-14 1.46043e-14 1.46043e-14 1.46043e-14 6.63454e-16 6.63454e-16 6.63454e-16 6.63454e-16 6.63454e-16 0 0 0 0 0 0 0 0 0 0 0 0 0 0 0 0 0 0 0 0 0 0 0 0 0 0 0 0 0 0 0 0 0 0 0 0 0 0 0 0 0 0 0 0 0 0 0 0 0 0 0 0 0 0 0 0 0 0 0 0 0 0 0 0 0 0 0 0 0 0 0 0 0 0 0 0 0 0 0 0 0 0 0 0 0 0 0 0 0 0 0 0 0 0 0 0 0 0 0 0 0 0 0 0 0 0 0 0 0 0 0 0 0 0 0 0 0 0 0 0 0 0 0 0 0 0 0 0 0 0 0 0 0 0 0 0 0 0 0 0 0 0 0 0 0 0 0 0 0 0 0 0 0 0 0 0 0 0 0 0 0 0 0 0 0 0 0 0 0 0 0 0 0 0 0 0 0 0 0 0 0 0 0 0 0 0 0 0 0 0 0 0 0 0 0 0 0 0 0 0 0 0 0 0 0 0 0 0 0 0 0 0 0 0 0 0 0 0 0 0 0 0 0 0 0 0 0 0 0 0 0 0 0 0 0 0 0 0 0 0 0 0 0 0 0 0 0 0 0 0 0 0 0 0 0 0 0 0 0 0 0 0 0 0 0 0 0 0 0 0 0 0 0 0 0 0 0 0 0 0 0 0 0 0 0 0 0 0 0 0 0 0 0 0 0 0 0 0 0 0 0 0 0 0 0 0 0 0 0 0
				</DataArray>
				<DataArray Name="F2" type="Float32" format="ascii">
 0 0 0 0 0 0 0 0 0 0 0 0 0 0 0 0 0 0 0 0 0 0 0 0 0 0 0 0 0 0 0 0 0 0 0 0 0 0 0 0 0 0 0 0 0 0 0 0 0 0 0 0 0 0 0 0 0 0 0 0 0 0 0 0 0 0 0 0 0 0 0 0 0 0 0 0 0 0 0 0 0 0 0 0 0 0 0 0 0 0 0 0 0 0 0 0 0 0 0 0 0 0 0 0 0 0 0 0 0 0 0 0 0 0 0 0 0 0 0 0 0 0 0 0 0 0 0 0 0 0 0 0 0 0 0 0 0 0 0 0 0 0 0 0 0 0 0 0 0 0 0 0 0 0 0 0 0 0 0 0 0 0 0 0 0 0 0 0 0 0 0 0 0 0 0 0 0 0 0 0 0 0 0 0 0 0 0 0 0 0 0 0 0 0 0 0 0 0 0 0 0 0 0 0 0 0 0 0 0 0 0 0 0 0 0 0 0 0 0 0 0 0 0 0 0 0 0 0 0 0 0 0 0 0 0 0 0 0 0 0 0 0 0 0 0 0 0 0 0 0 0 0 0 0 0 0 0 0 0 0 0 0 0 0 0 0 0 0 0 0 0 0 0 0 0 0 0 0 0 0 0 0 0 0 0 0 0 0 0 0 0 0 0 0 0 0 0 0 0 0 0 0 0 0 0 0 0 0 0 0 0 0 0 0 0 0 0 0 0 0 0 0 0 0 0 0 0 0 0 0 0 0 0 0 0 0 0 0 0 0 0 0 0 0 0 0 0 0 0 0 0 0 0 0 0 0 0 0 0 0 0 0 0 0 0 0 0 0 0 0 0 0 0 0 0 0 0 0 0 0 0 0 0 0 0 0 0 0 0 0 0 0 0 0 0 0 0 0 0 0 0 0 0 0 0 0 0 0 0 0 0 0 0 0 0 0 0 0 0 0 0 0 0 0 0 0 0 0 0 0 0 0 0 0 0 0 0 0 0 0 0 0 0 0 0 0 0 0 0 0 0 0 0 0 0 0 0 0 0 0 0 0 0 0 0 0 0 0 0 0 0 0 0 0 0 0 0 0 0 0 0 0 0 0 0 0 0 0 0 0 0 0 0 0 0 0 0 0 0 0 0 0 0 0 0 1.91464e-16 1.91464e-16 1.91464e-16 1.91464e-16 1.91464e-16 1.55731e-15 1.55731e-15 1.55731e-15 1.55731e-15 1.55731e-15 1.58035e-14 1.58035e-14 1.58035e-14 1.58035e-14 1.58035e-14 2.09865e-13 2.09865e-13 2.09865e-13 2.09865e-13 2.09865e-13 2.32776e-12 2.32776e-12 2.32776e-12 2.32776e-12 2.32776e-12 2.19082e-11 2.19082e-11 2.19082e-11 2.19082e-11 2.19082e-11 1.79681e-10 1.79681e-10 1.79681e-10 1.79681e-10 1.79681e-10 1.30813e-09 1.30813e-09 1.30813e-09 1.30813e-09 1.30813e-09 8.56369e-09 8.56369e-09 8.56369e-09 8.56369e-09 8.56369e-09 5.08669e-08 5.08669e-08 5.08669e-08 5.08669e-08 5.08669e-08 2.7582e-07 2.7582e-07 2.7582e-07 2.7582e-07 2.7582e-07 1.37071e-06 1.37071e-06 1.37071e-06 1.37071e-06 1.37071e-06 6.25764e-06 6.25764e-06 6.25764e-06 6.25764e-06 6.25764e-06 2.62746e-05 2.62746e-05 2.62746e-05 2.62746e-05 2.62746e-05 0.000101504 0.000101504 0.000101504 0.000101504 0.000101504 0.000360734 0.000360734 0.000360734 0.000360734 0.000360734 0.0011787 0.0011787 0.0011787 0.0011787 0.0011787 0.00353812 0.00353812 0.00353812 0.00353812 0.00353812 0.00974778 0.00974778 0.00974778 0.00974778 0.00974778 0.0246269 0.0246269 0.0246269 0.0246269 0.0246269 0.0569905 0.0569905 0.0569905 0.0569905 0.0569905 0.120566 0.120566 0.120566 0.120566 0.120566 0.232148 0.232148 0.232148 0.232148 0.232148 0.40303 0.40303 0.40303 0.40303 0.40303 0.619965 0.619965 0.619965 0.619965 0.619965 0.82657 0.82657 0.82657 0.82657 0.82657 0.952474 0.952474 0.952474 0.952474 0.952474 0.993302 0.993302 0.993302 0.993302 0.993302 0.99952 0.99952 0.99952 0.99952 0.99952 0.999979 0.999979 0.999979 0.999979 0.999979 0.999999 0.999999 0.999999 0.999999 0.999999 1 1 1 1 1 1 1 1 1 1 1 1 1 1 1 1 1 1 1 1 1 1 1 1 1 1 1 1 1 1 1 1 1 1 1 1 1 1 1 1 1 1 1 1 1 1 1 1 1 1 1 1 1 1 1 1 1 1 1 1 1 1 1 1 1 1 1 1 1 1 1 1 1 1 1 1 1 1 1 1 1 1 1 1 1 1 1 1 1 1 1 1 1 1 1 1 1 1 1 1 1 1 1 1 1 1 1 1 1 1 1 1 1 1 1 1 1 1 1 1 1 1 1 1 1 1 1 1 1 1 1 1 1 1 1 1 1 1 1 1 1 1 1 1 1 1 1 1 1 1 1 1 1 1 1 1 1 1 1 1 1 1 1 1 1 1 1 1 1 1 1 1 1 1 1 1 1 1 1 1 1 1 1 1 1 1 1 1 1 1 1 1 1 1 1 1 1 1 1 1 1 1 1 1 1 1 1 1 1 1 1 1 1 1 1 1 1 1 1 1 1 1 1 1 1 1 1 1 1 1 1 1 1 1 1 1 1 1 1 1 1 1 1 1 1 1 1 1 1 1 1 1 1 1 1 1 1 1 1 1 1 1 1 1 1 1 1 1 1 1 1 1 1 1 1 1 1 1 1 1 1 1 1 1 1 1 1 1 1 1 1 1 1 1 1 1 1 1 1 1 1 1 1 1 1 1 1 1 1 1 1 1 1 1 1 1 1 1 1 1 1 1 1 1 1 1 1 1 1 1 1 1 1 1 1 1 1 1 1 1
				</DataArray>
				<DataArray Name="F3" type="Float32" format="ascii">