<?xml version="1.0"?>
<VTKFile type="PolyData">
	<PolyData>
		<Piece NumberOfPoints="2601" NumberOfPolys="2500">
			<Points>
				<DataArray type="Float32" NumberOfComponents="3" format="ascii">
 0 0 0 0.02 0 0 0.04 0 0 0.06 0 0 0.08 0 0 0.1 0 0 0.12 0 0 0.14 0 0 0.16 0 0 0.18 0 0 0.2 0 0 0.22 0 0 0.24 0 0 0.26 0 0 0.28 0 0 0.3 0 0 0.32 0 0 0.34 0 0 0.36 0 0 0.38 0 0 0.4 0 0 0.42 0 0 0.44 0 0 0.46 0 0 0.48 0 0 0.5 0 0 0.52 0 0 0.54 0 0 0.56 0 0 0.58 0 0 0.6 0 0 0.62 0 0 0.64 0 0 0.66 0 0 0.68 0 0 0.7 0 0 0.72 0 0 0.74 0 0 0.76 0 0 0.78 0 0 0.8 0 0 0.82 0 0 0.84 0 0 0.86 0 0 0.88 0 0 0.9 0 0 0.92 0 0 0.94 0 0 0.96 0 0 0.98 0 0 1 0 0 0 0.02 0 0.02 0.02 0 0.04 0.02 0 0.06 0.02 0 0.08 0.02 0 0.1 0.02 0 0.12 0.02 0 0.14 0.02 0 0.16 0.02 0 0.18 0.02 0 0.2 0.02 0 0.22 0.02 0 0.24 0.02 0 0.26 0.02 0 0.28 0.02 0 0.3 0.02 0 0.32 0.02 0 0.34 0.02 0 0.36 0.02 0 0.38 0.02 0 0.4 0.02 0 0.42 0.02 0 0.44 0.02 0 0.46 0.02 0 0.48 0.02 0 0.5 0.02 0 0.52 0.02 0 0.54 0.02 0 0.56 0.02 0 0.58 0.02 0 0.6 0.02 0 0.62 0.02 0 0.64 0.02 0 0.66 0.02 0 0.68 0.02 0 0.7 0.02 0 0.72 0.02 0 0.74 0.02 0 0.76 0.02 0 0.78 0.02 0 0.8 0.02 0 0.82 0.02 0 0.84 0.02 0 0.86 0.02 0 0.88 0.02 0 0.9 0.02 0 0.92 0.02 0 0.94 0.02 0 0.96 0.02 0 0.98 0.02 0 1 0.02 0 0 0.04 0 0.02 0.04 0 0.04 0.04 0 0.06 0.04 0 0.08 0.04 0 0.1 0.04 0 0.12 0.04 0 0.14 0.04 0 0.16 0.04 0 0.18 0.04 0 0.2 0.04 0 0.22 0.04 0 0.24 0.04 0 0.26 0.04 0 0.28 0.04 0 0.3 0.04 0 0.32 0.04 0 0.34 0.04 0 0.36 0.04 0 0.38 0.04 0 0.4 0.04 0 0.42 0.04 0 0.44 0.04 0 0.46 0.04 0 0.48 0.04 0 0.5 0.04 0 0.52 0.04 0 0.54 0.04 0 0.56 0.04 0 0.58 0.04 0 0.6 0.04 0 0.62 0.04 0 0.64 0.04 0 0.66 0.04 0 0.68 0.04 0 0.7 0.04 0 0.72 0.04 0 0.74 0.04 0 0.76 0.04 0 0.78 0.04 0 0.8 0.04 0 0.82 0.04 0 0.84 0.04 0 0.86 0.04 0 0.88 0.04 0 0.9 0.04 0 0.92 0.04 0 0.94 0.04 0 0.96 0.04 0 0.98 0.04 0 1 0.04 0 0 0.06 0 0.02 0.06 0 0.04 0.06 0 0.06 0.06 0 0.08 0.06 0 0.1 0.06 0 0.12 0.06 0 0.14 0.06 0 0.16 0.06 0 0.18 0.06 0 0.2 0.06 0 0.22 0.06 0 0.24 0.06 0 0.26 0.06 0 0.28 0.06 0 0.3 0.06 0 0.32 0.06 0 0.34 0.06 0 0.36 0.06 0 0.38 0.06 0 0.4 0.06 0 0.42 0.06 0 0.44 0.06 0 0.46 0.06 0 0.48 0.06 0 0.5 0.06 0 0.52 0.06 0 0.54 0.06 0 0.56 0.06 0 0.58 0.06 0 0.6 0.06 0 0.62 0.06 0 0.64 0.06 0 0.66 0.06 0 0.68 0.06 0 0.7 0.06 0 0.72 0.06 0 0.74 0.06 0 0.76 0.06 0 0.78 0.06 0 0.8 0.06 0 0.82 0.06 0 0.84 0.06 0 0.86 0.06 0 0.88 0.06 0 0.9 0.06 0 0.92 0.06 0 0.94 0.06 0 0.96 0.06 0 0.98 0.06 0 1 0.06 0 0 0.08 0 0.02 0.08 0 0.04 0.08 0 0.06 0.08 0 0.08 0.08 0 0.1 0.08 0 0.12 0.08 0 0.14 0.08 0 0.16 0.08 0 0.18 0.08 0 0.2 0.08 0 0.22 0.08 0 0.24 0.08 0 0.26 0.08 0 0.28 0.08 0 0.3 0.08 0 0.32 0.08 0 0.34 0.08 0 0.36 0.08 0 0.38 0.08 0 0.4 0.08 0 0.42 0.08 0 0.44 0.08 0 0.46 0.08 0 0.48 0.08 0 0.5 0.08 0 0.52 0.08 0 0.54 0.08 0 0.56 0.08 0 0.58 0.08 0 0.6 0.08 0 0.62 0.08 0 0.64 0.08 0 0.66 0.08 0 0.68 0.08 0 0.7 0.08 0 0.72 0.08 0 0.74 0.08 0 0.76 0.08 0 0.78 0.08 0 0.8 0.08 0 0.82 0.08 0 0.84 0.08 0 0.86 0.08 0 0.88 0.08 0 0.9 0.08 0 0.92 0.08 0 0.94 0.08 0 0.96 0.08 0 0.98 0.08 0 1 0.08 0 0 0.1 0 0.02 0.1 0 0.04 0.1 0 0.06 0.1 0 0.08 0.1 0 0.1 0.1 0 0.12 0.1 0 0.14 0.1 0 0.16 0.1 0 0.18 0.1 0 0.2 0.1 0 0.22 0.1 0 0.24 0.1 0 0.26 0.1 0 0.28 0.1 0 0.3 0.1 0 0.32 0.1 0 0.34 0.1 0 0.36 0.1 0 0.38 0.1 0 0.4 0.1 0 0.42 0.1 0 0.44 0.1 0 0.46 0.1 0 0.48 0.1 0 0.5 0.1 0 0.52 0.1 0 0.54 0.1 0 0.56 0.1 0 0.58 0.1 0 0.6 0.1 0 0.62 0.1 0 0.64 0.1 0 0.66 0.1 0 0.68 0.1 0 0.7 0.1 0 0.72 0.1 0 0.74 0.1 0 0.76 0.1 0 0.78 0.1 0 0.8 0.1 0 0.82 0.1 0 0.84 0.1 0 0.86 0.1 0 0.88 0.1 0 0.9 0.1 0 0.92 0.1 0 0.94 0.1 0 0.96 0.1 0 0.98 0.1 0 1 0.1 0 0 0.12 0 0.02 0.12 0 0.04 0.12 0 0.06 0.12 0 0.08 0.12 0 0.1 0.12 0 0.12 0.12 0 0.14 0.12 0 0.16 0.12 0 0.18 0.12 0 0.2 0.12 0 0.22 0.12 0 0.24 0.12 0 0.26 0.12 0 0.28 0.12 0 0.3 0.12 0 0.32 0.12 0 0.34 0.12 0 0.36 0.12 0 0.38 0.12 0 0.4 0.12 0 0.42 0.12 0 0.44 0.12 0 0.46 0.12 0 0.48 0.12 0 0.5 0.12 0 0.52 0.12 0 0.54 0.12 0 0.56 0.12 0 0.58 0.12 0 0.6 0.12 0 0.62 0.12 0 0.64 0.12 0 0.66 0.12 0 0.68 0.12 0 0.7 0.12 0 0.72 0.12 0 0.74 0.12 0 0.76 0.12 0 0.78 0.12 0 0.8 0.12 0 0.82 0.12 0 0.84 0.12 0 0.86 0.12 0 0.88 0.12 0 0.9 0.12 0 0.92 0.12 0 0.94 0.12 0 0.96 0.12 0 0.98 0.12 0 1 0.12 0 0 0.14 0 0.02 0.14 0 0.04 0.14 0 0.06 0.14 0 0.08 0.14 0 0.1 0.14 0 0.12 0.14 0 0.14 0.14 0 0.16 0.14 0 0.18 0.14 0 0.2 0.14 0 0.22 0.14 0 0.24 0.14 0 0.26 0.14 0 0.28 0.14 0 0.3 0.14 0 0.32 0.14 0 0.34 0.14 0 0.36 0.14 0 0.38 0.14 0 0.4 0.14 0 0.42 0.14 0 0.44 0.14 0 0.46 0.14 0 0.48 0.14 0 0.5 0.14 0 0.52 0.14 0 0.54 0.14 0 0.56 0.14 0 0.58 0.14 0 0.6 0.14 0 0.62 0.14 0 0.64 0.14 0 0.66 0.14 0 0.68 0.14 0 0.7 0.14 0 0.72 0.14 0 0.74 0.14 0 0.76 0.14 0 0.78 0.14 0 0.8 0.14 0 0.82 0.14 0 0.84 0.14 0 0.86 0.14 0 0.88 0.14 0 0.9 0.14 0 0.92 0.14 0 0.94 0.14 0 0.96 0.14 0 0.98 0.14 0 1 0.14 0 0 0.16 0 0.02 0.16 0 0.04 0.16 0 0.06 0.16 0 0.08 0.16 0 0.1 0.16 0 0.12 0.16 0 0.14 0.16 0 0.16 0.16 0 0.18 0.16 0 0.2 0.16 0 0.22 0.16 0 0.24 0.16 0 0.26 0.16 0 0.28 0.16 0 0.3 0.16 0 0.32 0.16 0 0.34 0.16 0 0.36 0.16 0 0.38 0.16 0 0.4 0.16 0 0.42 0.16 0 0.44 0.16 0 0.46 0.16 0 0.48 0.16 0 0.5 0.16 0 0.52 0.16 0 0.54 0.16 0 0.56 0.16 0 0.58 0.16 0 0.6 0.16 0 0.62 0.16 0 0.64 0.16 0 0.66 0.16 0 0.68 0.16 0 0.7 0.16 0 0.72 0.16 0 0.74 0.16 0 0.76 0.16 0 0.78 0.16 0 0.8 0.16 0 0.82 0.16 0 0.84 0.16 0 0.86 0.16 0 0.88 0.16 0 0.9 0.16 0 0.92 0.16 0 0.94 0.16 0 0.96 0.16 0 0.98 0.16 0 1 0.16 0 0 0.18 0 0.02 0.18 0 0.04 0.18 0 0.06 0.18 0 0.08 0.18 0 0.1 0.18 0 0.12 0.18 0 0.14 0.18 0 0.16 0.18 0 0.18 0.18 0 0.2 0.18 0 0.22 0.18 0 0.24 0.18 0 0.26 0.18 0 0.28 0.18 0 0.3 0.18 0 0.32 0.18 0 0.34 0.18 0 0.36 0.18 0 0.38 0.18 0 0.4 0.18 0 0.42 0.18 0 0.44 0.18 0 0.46 0.18 0 0.48 0.18 0 0.5 0.18 0 0.52 0.18 0 0.54 0.18 0 0.56 0.18 0 0.58 0.18 0 0.6 0.18 0 0.62 0.18 0 0.64 0.18 0 0.66 0.18 0 0.68 0.18 0 0.7 0.18 0 0.72 0.18 0 0.74 0.18 0 0.76 0.18 0 0.78 0.18 0 0.8 0.18 0 0.82 0.18 0 0.84 0.18 0 0.86 0.18 0 0.88 0.18 0 0.9 0.18 0 0.92 0.18 0 0.94 0.18 0 0.96 0.18 0 0.98 0.18 0 1 0.18 0 0 0.2 0 0.02 0.2 0 0.04 0.2 0 0.06 0.2 0 0.08 0.2 0 0.1 0.2 0 0.12 0.2 0 0.14 0.2 0 0.16 0.2 0 0.18 0.2 0 0.2 0.2 0 0.22 0.2 0 0.24 0.2 0 0.26 0.2 0 0.28 0.2 0 0.3 0.2 0 0.32 0.2 0 0.34 0.2 0 0.36 0.2 0 0.38 0.2 0 0.4 0.2 0 0.42 0.2 0 0.44 0.2 0 0.46 0.2 0 0.48 0.2 0 0.5 0.2 0 0.52 0.2 0 0.54 0.2 0 0.56 0.2 0 0.58 0.2 0 0.6 0.2 0 0.62 0.2 0 0.64 0.2 0 0.66 0.2 0 0.68 0.2 0 0.7 0.2 0 0.72 0.2 0 0.74 0.2 0 0.76 0.2 0 0.78 0.2 0 0.8 0.2 0 0.82 0.2 0 0.84 0.2 0 0.86 0.2 0 0.88 0.2 0 0.9 0.2 0 0.92 0.2 0 0.94 0.2 0 0.96 0.2 0 0.98 0.2 0 1 0.2 0 0 0.22 0 0.02 0.22 0 0.04 0.22 0 0.06 0.22 0 0.08 0.22 0 0.1 0.22 0 0.12 0.22 0 0.14 0.22 0 0.16 0.22 0 0.18 0.22 0 0.2 0.22 0 0.22 0.22 0 0.24 0.22 0 0.26 0.22 0 0.28 0.22 0 0.3 0.22 0 0.32 0.22 0 0.34 0.22 0 0.36 0.22 0 0.38 0.22 0 0.4 0.22 0 0.42 0.22 0 0.44 0.22 0 0.46 0.22 0 0.48 0.22 0 0.5 0.22 0 0.52 0.22 0 0.54 0.22 0 0.56 0.22 0 0.58 0.22 0 0.6 0.22 0 0.62 0.22 0 0.64 0.22 0 0.66 0.22 0 0.68 0.22 0 0.7 0.22 0 0.72 0.22 0 0.74 0.22 0 0.76 0.22 0 0.78 0.22 0 0.8 0.22 0 0.82 0.22 0 0.84 0.22 0 0.86 0.22 0 0.88 0.22 0 0.9 0.22 0 0.92 0.22 0 0.94 0.22 0 0.96 0.22 0 0.98 0.22 0 1 0.22 0 0 0.24 0 0.02 0.24 0 0.04 0.24 0 0.06 0.24 0 0.08 0.24 0 0.1 0.24 0 0.12 0.24 0 0.14 0.24 0 0.16 0.24 0 0.18 0.24 0 0.2 0.24 0 0.22 0.24 0 0.24 0.24 0 0.26 0.24 0 0.28 0.24 0 0.3 0.24 0 0.32 0.24 0 0.34 0.24 0 0.36 0.24 0 0.38 0.24 0 0.4 0.24 0 0.42 0.24 0 0.44 0.24 0 0.46 0.24 0 0.48 0.24 0 0.5 0.24 0 0.52 0.24 0 0.54 0.24 0 0.56 0.24 0 0.58 0.24 0 0.6 0.24 0 0.62 0.24 0 0.64 0.24 0 0.66 0.24 0 0.68 0.24 0 0.7 0.24 0 0.72 0.24 0 0.74 0.24 0 0.76 0.24 0 0.78 0.24 0 0.8 0.24 0 0.82 0.24 0 0.84 0.24 0 0.86 0.24 0 0.88 0.24 0 0.9 0.24 0 0.92 0.24 0 0.94 0.24 0 0.96 0.24 0 0.98 0.24 0 1 0.24 0 0 0.26 0 0.02 0.26 0 0.04 0.26 0 0.06 0.26 0 0.08 0.26 0 0.1 0.26 0 0.12 0.26 0 0.14 0.26 0 0.16 0.26 0 0.18 0.26 0 0.2 0.26 0 0.22 0.26 0 0.24 0.26 0 0.26 0.26 0 0.28 0.26 0 0.3 0.26 0 0.32 0.26 0 0.34 0.26 0 0.36 0.26 0 0.38 0.26 0 0.4 0.26 0 0.42 0.26 0 0.44 0.26 0 0.46 0.26 0 0.48 0.26 0 0.5 0.26 0 0.52 0.26 0 0.54 0.26 0 0.56 0.26 0 0.58 0.26 0 0.6 0.26 0 0.62 0.26 0 0.64 0.26 0 0.66 0.26 0 0.68 0.26 0 0.7 0.26 0 0.72 0.26 0 0.74 0.26 0 0.76 0.26 0 0.78 0.26 0 0.8 0.26 0 0.82 0.26 0 0.84 0.26 0 0.86 0.26 0 0.88 0.26 0 0.9 0.26 0 0.92 0.26 0 0.94 0.26 0 0.96 0.26 0 0.98 0.26 0 1 0.26 0 0 0.28 0 0.02 0.28 0 0.04 0.28 0 0.06 0.28 0 0.08 0.28 0 0.1 0.28 0 0.12 0.28 0 0.14 0.28 0 0.16 0.28 0 0.18 0.28 0 0.2 0.28 0 0.22 0.28 0 0.24 0.28 0 0.26 0.28 0 0.28 0.28 0 0.3 0.28 0 0.32 0.28 0 0.34 0.28 0 0.36 0.28 0 0.38 0.28 0 0.4 0.28 0 0.42 0.28 0 0.44 0.28 0 0.46 0.28 0 0.48 0.28 0 0.5 0.28 0 0.52 0.28 0 0.54 0.28 0 0.56 0.28 0 0.58 0.28 0 0.6 0.28 0 0.62 0.28 0 0.64 0.28 0 0.66 0.28 0 0.68 0.28 0 0.7 0.28 0 0.72 0.28 0 0.74 0.28 0 0.76 0.28 0 0.78 0.28 0 0.8 0.28 0 0.82 0.28 0 0.84 0.28 0 0.86 0.28 0 0.88 0.28 0 0.9 0.28 0 0.92 0.28 0 0.94 0.28 0 0.96 0.28 0 0.98 0.28 0 1 0.28 0 0 0.3 0 0.02 0.3 0 0.04 0.3 0 0.06 0.3 0 0.08 0.3 0 0.1 0.3 0 0.12 0.3 0 0.14 0.3 0 0.16 0.3 0 0.18 0.3 0 0.2 0.3 0 0.22 0.3 0 0.24 0.3 0 0.26 0.3 0 0.28 0.3 0 0.3 0.3 0 0.32 0.3 0 0.34 0.3 0 0.36 0.3 0 0.38 0.3 0 0.4 0.3 0 0.42 0.3 0 0.44 0.3 0 0.46 0.3 0 0.48 0.3 0 0.5 0.3 0 0.52 0.3 0 0.54 0.3 0 0.56 0.3 0 0.58 0.3 0 0.6 0.3 0 0.62 0.3 0 0.64 0.3 0 0.66 0.3 0 0.68 0.3 0 0.7 0.3 0 0.72 0.3 0 0.74 0.3 0 0.76 0.3 0 0.78 0.3 0 0.8 0.3 0 0.82 0.3 0 0.84 0.3 0 0.86 0.3 0 0.88 0.3 0 0.9 0.3 0 0.92 0.3 0 0.94 0.3 0 0.96 0.3 0 0.98 0.3 0 1 0.3 0 0 0.32 0 0.02 0.32 0 0.04 0.32 0 0.06 0.32 0 0.08 0.32 0 0.1 0.32 0 0.12 0.32 0 0.14 0.32 0 0.16 0.32 0 0.18 0.32 0 0.2 0.32 0 0.22 0.32 0 0.24 0.32 0 0.26 0.32 0 0.28 0.32 0 0.3 0.32 0 0.32 0.32 0 0.34 0.32 0 0.36 0.32 0 0.38 0.32 0 0.4 0.32 0 0.42 0.32 0 0.44 0.32 0 0.46 0.32 0 0.48 0.32 0 0.5 0.32 0 0.52 0.32 0 0.54 0.32 0 0.56 0.32 0 0.58 0.32 0 0.6 0.32 0 0.62 0.32 0 0.64 0.32 0 0.66 0.32 0 0.68 0.32 0 0.7 0.32 0 0.72 0.32 0 0.74 0.32 0 0.76 0.32 0 0.78 0.32 0 0.8 0.32 0 0.82 0.32 0 0.84 0.32 0 0.86 0.32 0 0.88 0.32 0 0.9 0.32 0 0.92 0.32 0 0.94 0.
[...]
			<PointData Scalars="VitesseX">
				<DataArray Name="VitesseX" type="Float32" format="ascii">
 0 0 0 0 0 0 0 0 0 0 0 0 0 0 0 0 0 0 0 0 0 0 0 0 0 0 0 0 0 0 0 0 0 0 0 0 0 0 0 0 0 0 0 0 0 0 0 0 0 0 -0 0 -0.00028844 -0.00111615 -0.00244101 -0.0042543 -0.00654952 -0.00929417 -0.0124199 -0.0158527 -0.019522 -0.0233826 -0.0273853 -0.0314651 -0.0355306 -0.039407 -0.0433878 -0.0476411 -0.0512438 -0.0545456 -0.0575256 -0.0919195 -0.0989086 0.229012 -0.0600859 -0.0650941 -0.0665687 -0.0670914 -0.0665802 -0.0655124 -0.0638974 -0.0619293 -0.0593536 -0.0562881 -0.0525164 -0.0484087 -0.0456987 -0.0418365 -0.0373683 -0.0320422 -0.0279856 -0.0239739 -0.0198814 -0.0159081 -0.0126067 -0.00942322 -0.006634 -0.00409766 -0.00232706 -0.00142669 -0.000293998 -3.37684e-27 0 -0.000631088 -0.00236232 -0.00504074 -0.00864525 -0.0131445 -0.0184825 -0.0245867 -0.0314274 -0.0389312 -0.0599421 -0.0699391 -0.0624893 -0.0705474 -0.07822 -0.113411 -0.121676 0.0944592 -0.108776 -0.112278 -0.114202 -0.118577 -0.12427 -0.128354 -0.130644 -0.131694 -0.13162 -0.130269 -0.127948 -0.12466 -0.120383 -0.115041 -0.10891 -0.102093 -0.0962589 -0.0903933 -0.0799714 -0.0722444 -0.0624791 -0.0542881 -0.0462934 -0.0384539 -0.0309048 -0.0242936 -0.0181845 -0.0128177 -0.00812793 -0.00461591 -0.002156 -0.000559556 -6.13518e-27 0 -0.000917724 -0.00365641 -0.00770653 -0.0149744 -0.0226456 -0.0272977 -0.0362643 -0.0463693 -0.0577563 -0.0864871 -0.102431 -0.0720027 -0.104914 -0.116929 -0.125031 -0.275472 -0.191517 -0.191231 -0.204788 -0.329422 -0.173841 -0.185559 -0.190969 -0.193898 -0.194834 -0.194225 -0.192001 -0.188366 -0.183351 -0.17637 -0.168227 -0.159433 -0.149616 -0.147995 -0.136169 -0.116337 -0.105536 -0.0949694 -0.0795183 -0.0678973 -0.0563883 -0.0454035 -0.0355564 -0.0266507 -0.0187977 -0.0120243 -0.00701043 -0.00319889 -0.000809061 -8.79873e-27 0 -0.00125695 -0.00466009 -0.00990244 -0.0168936 -0.0256064 -0.0358592 -0.0475289 -0.0604459 -0.0744099 -0.0890198 -0.104367 -0.11983 -0.136614 -0.15604 -0.172293 -0.185854 -0.198619 -0.210502 -0.221605 -0.231279 -0.239707 -0.246176 -0.25078 -0.253175 -0.255394 -0.253868 -0.250673 -0.24559 -0.238675 -0.229906 -0.219751 -0.207715 -0.208227 -0.192582 -0.166763 -0.150824 -0.137861 -0.123769 -0.103623 -0.0883789 -0.0734244 -0.0592874 -0.0462417 -0.0346921 -0.0244812 -0.0151369 -0.00956833 -0.00420251 -0.00104145 -1.13258e-26 0 -0.00156222 -0.00573374 -0.0120895 -0.0205857 -0.0312162 -0.0438567 -0.0581954 -0.0739256 -0.0907975 -0.108571 -0.127228 -0.146166 -0.16625 -0.192014 -0.21157 -0.227449 -0.242537 -0.257055 -0.270462 -0.282339 -0.293273 -0.286229 -0.29886 -0.309003 -0.311163 -0.309584 -0.305485 -0.299165 -0.290566 -0.279558 -0.267008 -0.253145 -0.237997 -0.2214 -0.202795 -0.18324 -0.165607 -0.147287 -0.125881 -0.107414 -0.0893522 -0.0723341 -0.0562677 -0.0421679 -0.0297003 -0.0183708 -0.0126869 -0.00505311 -0.00125679 -1.36767e-26 0 -0.00161166 -0.00632085 -0.0138219 -0.0239032 -0.036398 -0.0511286 -0.0678848 -0.0864179 -0.106446 -0.127663 -0.149771 -0.172541 -0.195576 -0.219167 -0.242021 -0.262935 -0.281978 -0.299895 -0.315869 -0.329785 -0.341518 -0.350543 -0.35713 -0.326949 -0.362391 -0.360544 -0.359322 -0.362834 -0.350417 -0.328548 -0.314724 -0.298541 -0.279783 -0.234611 -0.234376 -0.213306 -0.191204 -0.168201 -0.147118 -0.12469 -0.103876 -0.0841848 -0.0653277 -0.0489836 -0.0345389 -0.022346 -0.0123631 -0.00581221 -0.00145238 -1.58148e-26 0 -0.00182203 -0.00709327 -0.0155379 -0.0268933 -0.0409167 -0.0574265 -0.0762675 -0.097294 -0.119885 -0.143802 -0.168669 -0.194394 -0.219639 -0.246065 -0.274334 -0.288998 -0.316136 -0.337353 -0.35486 -0.370803 -0.384246 -0.394531 -0.402057 -70.1992 -0.410334 -0.405909 -0.418042 -0.409417 -0.397778 -0.379043 -0.353241 -0.334394 -0.313756 -0.283966 -0.258599 -0.237658 -0.219786 -0.19042 -0.16428 -0.139624 -0.116707 -0.0945931 -0.0779987 -0.0548469 -0.0388797 -0.0251715 -0.0133765 -0.00647991 -0.00162541 -1.77066e-26 0 -0.00197414 -0.00783775 -0.0171048 -0.0295233 -0.0449143 -0.0630495 -0.083651 -0.106417 -0.130974 -0.156964 -0.18404 -0.211835 -0.240177 -0.268043 -0.295676 -0.321793 -0.346107 -0.368957 -0.388428 -0.405861 -0.420723 -0.425919 -0.439163 -0.445131 -0.446715 -0.444634 -0.438923 -0.429987 -0.417701 -0.40209 -0.383744 -0.363443 -0.341271 -0.317303 -0.288778 -0.26284 -0.238059 -0.393924 -0.180052 -0.153118 -0.127721 -0.10354 -0.0794104 -0.0619781 -0.0426418 -0.027631 -0.0156543 -0.00706824 -0.00177328 -1.93224e-26 0 -0.00210047 -0.00832796 -0.0183489 -0.0317958 -0.0484122 -0.0679667 -0.0901691 -0.114674 -0.141111 -0.169086 -0.198239 -0.228029 -0.257916 -0.28751 -0.316629 -0.344457 -0.370493 -0.394866 -56.6262 -0.433795 -0.450874 -0.463436 -0.472348 -0.47738 -0.478699 -0.47633 -0.469962 -0.460173 -0.446887 -0.430217 -0.410622 -0.388604 -0.364316 -0.338127 -0.310205 -0.281066 -0.252124 -0.228535 -0.191798 -0.164119 -0.136559 -0.110331 -0.0840098 -0.283956 -0.0456801 -0.0296235 -0.0168279 -0.00755219 -0.0018937 -2.06368e-26 0 -0.00220925 -0.0087477 -0.0193065 -0.033483 -0.0509801 -0.0715608 -0.09493 -0.120732 -0.148599 -0.178116 -0.208949 -0.240386 -0.271643 -0.302659 -0.332928 -0.362189 -0.36429 -0.414941 -0.438844 -0.458051 -0.474592 -0.487563 -0.49685 -0.501909 -0.503156 -0.500556 -0.493706 -0.483272 -0.469215 -0.451738 -0.4312 -0.407987 -0.382382 -0.354767 -0.325409 -0.294958 -0.26374 -0.231532 -0.199791 -0.171445 -0.14349 -0.115906 -0.09004 -0.0623685 -0.0479239 -0.0311195 -0.0176485 -0.0079106 -0.00198482 -2.16294e-26 0 -0.00229515 -0.00908212 -0.0200326 -0.0347351 -0.0528621 -0.0739981 -0.0981405 -0.124926 -0.154334 -0.184039 -0.216093 -0.248929 -0.281049 -0.312806 -0.344105 -0.3783 -0.404612 -0.429727 -0.453114 -0.473687 -0.490655 -0.503953 -0.513466 -0.518517 -0.519667 -0.516918 -0.509753 -0.498918 -0.484354 -0.466347 -0.445147 -0.421123 -0.394671 -0.366097 -0.33588 -0.304517 -0.272406 -0.240105 -0.207919 -0.175142 -0.145616 -0.119698 -0.0933297 -0.069475 -0.0471291 -0.0319596 -0.0182162 -0.00816366 -0.00204879 -2.22843e-26 0 -0.00218913 -0.00860778 -0.019005 -0.033058 -0.0528593 -0.0756936 -0.100734 -0.128701 -0.155986 -0.187076 -0.219099 -0.252614 -0.285652 -0.318033 -0.354051 -0.383103 -0.411153 -0.437564 -0.461442 -0.482124 -0.499216 -0.512577 -0.522087 -0.527023 -0.527938 -0.524988 -0.517471 -0.506344 -0.491466 -0.473004 -0.451456 -0.426784 -0.399977 -0.371073 -0.34032 -0.30853 -0.276058 -0.243383 -0.210881 -0.178723 -0.146566 -0.120141 -0.0946553 -0.0706037 -0.0474604 -0.0322367 -0.0184288 -0.00825391 -0.0020736 -2.25914e-26 0 -0.00222962 -0.00870609 -0.0192107 -0.0336315 -0.0518798 -0.0736551 -0.0986439 -0.126281 -0.155506 -0.18678 -0.218598 -0.25191 -0.285341 -0.321793 -0.352854 -0.382583 -0.411165 -0.43777 -0.461592 -0.482156 -0.499383 -0.51291 -0.522387 -0.527388 -0.528424 -0.524887 -0.517635 -0.506754 -0.491717 -0.472493 -0.451336 -1.59194 -0.400098 -0.371329 -0.340093 -0.308511 -0.276094 -0.243406 -0.211013 -0.179214 -0.148137 -0.11523 -0.175024 -0.0706394 -0.049369 -0.0322774 -0.0184252 -0.00825319 -0.00207348 -2.25455e-26 0 -0.00221258 -0.00862722 -0.0190162 -0.0332603 -0.0510969 -0.0723208 -0.0967247 -0.12365 -0.15302 -0.183965 -0.215589 -0.248442 -0.288619 -0.317388 -0.347486 -0.377565 -0.406151 -0.432371 -0.455768 -0.47596 -0.493518 -0.516039 -0.523171 -0.513563 -0.519113 -0.516538 -0.509148 -0.497773 -0.478684 -0.464584 -0.443333 -0.419673 -0.393066 -0.365007 -30.3164 -0.302016 -0.27054 -0.2387 -0.207038 -0.1762 -0.146462 -0.118134 -0.0907387 -0.0693075 -0.0489193 -0.0315184 -0.0180896 -0.00810153 -0.00203716 -2.21473e-26 0 -0.00215079 -0.00838346 -0.0184594 -0.032242 -0.049537 -0.0701273 -0.0937219 -0.11997 -0.148074 -0.177467 -0.208447 -0.240888 -0.277694 -0.306403 -0.336625 -0.366077 -0.39376 -0.419158 -0.442229 -0.463017 -0.497101 -0.490776 -0.499099 -0.503756 -0.503183 -0.499944 -0.492564 -0.480833 -0.462087 -0.448933 -0.428927 -0.404582 -0.379972 -0.352402 -0.306241 -0.291046 -0.254228 -0.2279 -0.199648 -0.170152 -0.141628 -0.114523 -0.0889856 -0.175327 -0.047283 -0.0306035 -0.0174779 -0.00783297 -0.00196956 -2.14027e-26 0 -0.00204489 -0.00797726 -0.0175769 -0.0307171 -0.047217 -0.0668401 -0.0893242 -0.114272 -0.140868 -0.183754 -0.208169 -0.236298 -0.262666 -0.291873 -0.321086 -0.349201 -0.375381 -0.399723 -0.423187 -0.439547 -0.515305 -0.467772 -0.475578 -0.478665 -0.478922 -0.475161 -0.468108 -0.456268 -0.44272 -0.425248 -0.408384 -0.38382 -0.360814 -0.333868 -0.303123 -0.276604 -30.6798 -0.184491 -0.187617 -0.161309 -0.134372 -0.108698 -0.0847626 -0.0564537 -0.0448984 -0.0291519 -0.0165934 -0.00744287 -0.00187134 -2.03232e-26 0 -0.00191157 -0.00745274 -0.0164247 -0.0287169 -0.0441566 -0.0624974 -0.083559 -0.106783 -0.134735 -0.168496 -0.253907 -0.219031 -0.245446 -0.273246 -0.300695 -0.326926 -0.351507 -0.374358 -0.3956 -0.411191 -0.43212 -0.438279 -0.443182 -0.447021 -0.446201 -0.443152 -0.436347 -0.426074 -0.41218 -0.395991 -0.380891 -0.357608 -0.335209 -0.307539 -0.283591 -0.257595 -0.444407 -0.100425 -0.163767 -0.149681 -0.124922 -0.101164 -0.0790219 -0.058545 -0.0418298 -0.0271713 -0.0154522 -0.00693846 -0.00174398 -1.89259e-26 0 -0.00175205 -0.00680226 -0.0149872 -0.0262254 -0.040361 -0.0571924 -0.0765133 -0.0977201 -0.123334 -0.159294 -258.953 -0.198588 -0.224411 -0.250373 -0.275597 -0.299565 -0.322365 -0.346237 -0.360146 -0.374461 -0.38807 -0.399325 -0.407241 -0.412745 -0.407776 -0.401999 -0.397368 -0.388525 -0.375316 -0.361895 -0.342996 -0.32544 -0.303608 -0.277417 -0.256165 -0.233533 -0.191466 -24.2115 -0.142068 -0.134386 -0.113325 -0.0919265 -0.0719125 -0.0537847 -0.0381303 -0.0247366 -0.0140654 -0.00632631 -0.00158953 -1.72331e-26 0 -0.0015589 -0.00605563 -0.0133431 -0.0233623 -0.0359799 -0.0510518 -0.068305 -0.0873103 -0.136875 -0.147346 -0.162017 -0.17741 -0.200506 -0.223771 -0.246314 -0.26759 -0.287507 -0.455325 -0.32367 -0.33675 -0.348554 -0.3622 -0.364352 -0.362714 -0.362787 -0.359193 -0.352873 -0.344852 -0.332029 -0.321036 -0.296725 -0.286331 -0.267132 -0.245417 -0.225269 -0.20522 -0.182008 -0.0906266 -0.118243 -0.110974 -0.0998379 -0.0811523 -0.0635859 -0.0476423 -0.0335802 -0.02192 -0.0124693 -0.00559211 -0.00141068 -1.52726e-26 0 -0.00134571 -0.00524363 -0.0115363 -0.0201667 -0.031024 -0.0439793 -0.0588843 -0.0755277 -0.0986158 -0.118812 -0.136656 -0.153839 -0.173763 -0.193826 -0.213313 -0.231793 -0.249003 -0.296584 -0.278057 -0.289651 -0.29869 -0.305695 -0.310835 -0.312637 -0.311535 -0.308622 -0.301042 -0.295064 -0.285715 -0.273577 -0.259186 -0.244264 -0.227568 -0.209211 -0.191702 -0.17465 -0.155837 -0.104632 -0.108306 -0.09935 -0.0844726 -0.0690823 -0.0542216 -0.0405862 -0.0281059 -0.0187758 -0.0106942 -0.00480714 -0.00120926 -1.30767e-26 0 -0.00110555 -0.00430705 -0.00950592 -0.0166362 -0.0256179 -0.0363364 -0.0488448 -0.0627945 -0.0807873 -0.0966582 -0.111886 -0.127523 -0.144227 -0.160892 -0.177023 -0.192473 -0.207296 -0.215323 -0.229021 -0.238363 -0.245796 -0.251609 -0.255564 -0.264826 -0.254433 -0.252452 -0.247292 -0.235588 -0.23542 -0.219315 -0.21358 -0.199461 -0.185393 -0.16991 -0.154884 -0.139608 -0.126382 -0.111618 0.304015 -0.0335293 -0.0660756 -0.0559098 -0.0439622 -0.0329477 -0.023235 -0.0153483 -0.00873659 -0.00394078 -0.000991554 -1.06813e-26 0 -0.000847221 -0.00332368 -0.00737688 -0.0129549 -0.0199814 -0.0283564 -0.0380812 -0.0489559 -0.0633403 -0.0748313 -0.0865785 -0.0992822 -0.112446 -0.125469 -0.138034 -0.150188 -0.162329 -0.171302 -0.177419 -0.184409 -0.18971 -0.193886 -0.197774 -0.19619 -0.194957 -0.192097 -0.189393 -0.182866 -0.163276 -0.166887 -0.15846 -0.149676 -0.139587 -0.126777 -0.113676 -0.102191 -0.0942175 -0.0826423 -0.066995 -0.0134777 -0.050131 -0.041935 -0.0329778 -0.0248083 -0.0176086 -0.0115525 -0.00664629 -0.00254745 -0.000760906 -8.12468e-27 0 -0.000579871 -0.00228936 -0.00509768 -0.00897293 -0.0138532 -0.0196808 -0.0263537 -0.0341261 -0.0456382 -0.0523215 -0.060594 -0.0696493 -0.078983 -0.0881444 -0.0968971 -0.10546 -0.114341 -0.121518 -0.123814 -0.128381 -0.131503 -0.133453 -0.141097 -0.133471 -0.132878 10.3189 -0.120938 -0.124385 -0.114923 -0.109693 -0.10257 -0.0957515 -0.0896444 -0.0825675 -0.0738846 -0.0666518 -0.0598966 -0.0525801 -0.0459146 0.283044 -0.0325653 -0.0271459 -0.021453 -0.0162187 -0.0115374 -0.00693101 -0.00446304 -0.00190608 -0.000453013 -5.44607e-27 0 -0.00030731 -0.00123561 -0.00279566 -0.00500195 -0.00781281 -0.0111453 -0.0149651 -0.0192118 -0.0265457 -0.0290379 -0.0339586 -0.0390735 -0.0443795 -0.0495095 -0.0542607 -0.0589227 -0.0637426 -0.0613835 -0.136432 -0.138946 -0.122081 -0.071752 -0.0698246 -0.069079 -0.0702516 -0.063273 -0.0605445 -0.0583139 -0.0554555 -0.0510289 -0.0466418 -0.0435745 -0.038481 -0.0371201 -0.0322054 -0.0238087 -0.0132213 -0.0207189 -0.0191482 -0.0161114 -25.0854 -0.011867 -0.00959803 -0.00735272 -0.00528111 -0.00345678 -0.00188036 -0.000904825 -1.14919e-05 -2.68346e-27 0 -4.01237e-05 -0.000189004 -0.000475643 -0.00092312 -0.00148502 -0.00209621 -0.00283437 -0.00352119 -0.00650847 -0.00909342 -0.00471007 -0.00813144 -0.00914103 -0.0101255 -0.0108354 -0.0114103 -0.0123106 -47.8535 -0.0100178 -0.0103728 -0.00877099 -0.00693901 -0.0468473 -0.00454588 -0.00456743 0.0016721 0.00448881 0.00396609 0.0350608 0.0348547 0.0101547 0.00952881 0.0214097 0.0187587 0.0123691 0.0119088 0.010983 0.00492512 0.00727423 0.00640571 0.00489464 0.00349642 0.00240602 0.00163064 0.00103863 0.000544763 0.000136625 0.000116033 1.22204e-05 1.07411e-28 0 0.000197209 0.000805152 0.0017924 0.00310347 0.00471168 0.00657062 0.00870639 0.0111938 0.00850353 0.0182916 -0.0301388 0.0228743 0.0261649 0.0293005 0.0325645 0.03599 0.0391601 0.0417897 0.0317261 0.0509636 0.0548157 0.0579506 0.0592243 0.0563283 0.0804431 0.0695202 0.0674544 0.0674737 0.0661838 0.0689667 0.0674737 0.0654496 0.06347 0.0603779 0.0549832 0.0487881 0.0432407 0.0356868 0.0338605 0.028591 0.023411 0.018819 0.0144094 0.0106137 0.00736886 0.00466364 0.0030194 0.00116387 0.000274799 2.91821e-27 0 4.39444e-05 0.00163247 0.00391277 0.00698794 0.0108136 0.0153318 0.0205937 0.0267913 0.0182042 0.0410036 0.318622 0.0527884 0.0608873 0.0682184 0.0753978 0.082731 0.0898376 0.0953624 0.0865114 0.109108 0.11603 0.121084 0.124642 0.127774 0.132525 0.132472 0.132051 0.146898 0.151605 0.124332 0.135019 0.121757 0.112024 0.105286 0.0969037 0.088754 0.080824 0.0719377 0.0661545 0.0508543 0.0420931 0.0339418 0.0262077 0.0194332 0.0135888 0.00871616 0.00488781 0.00217319 0.000534802 5.70187e-27 0 -0.00148446 0.00116608 0.00568735 0.0105616 0.016594 0.0237227 0.0316553 0.0411281 0.0533846 0.0619892 0.0703059 0.0791328 0.0944764 0.106117 0.117163 0.128006 0.13881 0.148436 0.155826 0.161787 0.174064 0.181354 0.186032 0.190328 0.194281 0.195662 0.194231 0.191511 0.190267 0.182852 0.178307 0.170228 0.159547 0.148851 0.139068 0.13782 0.11246 0.0990729 0.0866969 0.0760087 0.0596206 0.0486167 0.03761 0.0279537 0.0196006 0.0126276 0.00711334 0.0031824 0.000793346 8.39628e-27 0 0.000996768 -0.00353709 0.00529605 0.0135905 0.0218523 0.031684 0.0421087 0.0552379 0.068408 0.0822435 0.096502 0.109887 0.126069 0.141886 0.156941 0.171176 0.185227 0.198557 0.210485 0.221509 0.231255 0.232034 -3.63652 0.246225 0.280636 0.263651 0.261052 0.249457 0.244058 0.236736 0.228491 0.218182 0.204965 0.190292 0.178944 0.161702 0.140839 0.126511 0.110107 0.094084 0.0787098 0.0624439 0.0484292 0.0360487 0.0253185 0.0163599 0.00925871 0.00416617 0.00103931 1.09541e-26 0 0.00119897 0.0048329 0.00156382 0.0147194 0.0247039 0.0392594 0.0515415 0.0680376 0.084325 0.101152 0.118707 0.136627 0.137755 0.174271 0.193756 0.211631 0.228548 0.244739 0.259609 0.27318 0.284748 0.293788 0.3022 0.308242 0.310978 0.311795 0.310094 0.308644 0.319744 0.287077 0.275883 0.262927 0.250513 0.234926 0.212622 0.194508 0.181734 0.152678 0.13227 0.112474 0.0936904 0.0752891 0.0585008 0.0435941 0.0306523 0.0198398 0.0112732 0.00505805 0.00125648 1.33432e-26 0 0.001414 0.00565465 0.0117317 0.0156607 -0.00500829 0.046628 0.0535361 0.0801993 0.0994932 0.118735 0.139475 0.160449 0.171295 0.202737 0.226957 0.248322 0.268354 0.287051 0.304144 0.3197 0.333072 0.344167 0.353067 0.35914 0.362121 0.362409 0.359764 0.355575 0.347654 0.337129 0.323627 0.30391 0.306778 0.270072 0.244783 0.223861 0.24811 0.175659 0.152661 0.129865 0.108058 0.0869404 0.0676633 0.0504744 0.0355319 0.0230558 0.0131551 0.00582999 0.00144916 1.55261e-26 0 0.00157253 0.00625812 0.0130629 0.0213145 0.0445911 0.053324 0.062424 0.0910968 0.112641 0.134882 0.158361 0.182032 0.208802 0.231066 0.255932 0.280428 0.303468 0.324705 0.344107 0.361273 0.375971 0.388317 0.397875 0.40442 0.407568 0.407564 0.404225 0.399024 0.388903 0.376231 0.360334 0.360639 0.321396 0.30056 0.275707 0.249049 0.221323 0.201586 0.171949 0.145878 0.120713 0.0971861 0.0757646 0.0565801 0.0398906 0.0260468 0.0150871 0.00649256 0.00162113 1.74733e-26 0 0.001716 0.00682401 0.0144548 0.0272766 0.0403067 0.0588683 0.0794081 0.10068 0.124289 0.148886 0.174825 0.200935 0.226992 0.254033 0.281621 0.306771 0.333037 0.356698 0.37839 0.397006 0.412831 0.426137 0.436314 0.443318 0.446606 0.446368 0.442502 1.54953 0.424737 0.410533 0.393198 0.383023 0.351245 0.327379 0.304493 0.272199 0.245494 0.240097 0.185692 0.15847 0.132783 0.105925 0.0826864 0.0618138 0.0436497 0.0288812 0.017396 0.00706934 0.00177001 1.91488e-26 0 0.00184251 0.00732441 0.0157521 0.0286987 0.0441945 0.063391 0.0845639 0.108443 0.133784 0.160644 0.188652 0.216864 0.244835 0.27391 0.302835 0.331633 0.342107 0.381999 0.406533 0.425998 0.442882 0.45705 0.467773 0.475141 0.478574 0.47833 43.5338 0.468038 0.454182 0.439031 0.420682 0.406917 0.375716 0.348823 0.321808 0.297571 0.26078 0.229833 0.198305 0.168933 0.140974 0.113042 0.0883247 0.0660929 0.04673 0.0312296 0.0182321 0.00760494 0.00189446 2.05068e-26 0 0.00195004 0.0077485 0.0170177 0.0305262 0.0470194 0.0669591 0.0892985 0.114553 0.141072 0.169975 0.199422 0.229031 0.258785 0.289657 0.32008 0.349995 0.373414 0.40376 0.387053 0.445858 0.464712 0.479755 0.490931 0.498217 0.499715 0.504411 0.498261 0.489504 0.476994 0.461053 0.442836 0.42016 0.394016 0.364038 0.336852 0.306119 0.272896 0.241185 0.207787 0.177033 0.147199 0.118434 0.0925969 0.0693175 0.0490159 0.0325961 0.0193512 0.00882779 0.00199399 2.15422e-26 0 0.00203423 0.00809138 0.0180519 0.0317743 0.048935 0.069478 0.092658 0.11886 0.146326 0.176641 0.207015 0.237589 0.268906 0.301061 0.33255 0.363156 0.3921 0.418229 0.539992 0.464363 0.482868 0.497527 0.508965 0.51609 0.519809 0.519244 0.514481 0.505102 0.492013 0.475294 0.45443 0.43171 0.406469 0.375375 0.347331 0.313718 0.281206 0.248882 0.213938 0.182672 0.161429 0.122122 0.0955221 0.071507 0.0505421 0.0336265 0.0198129 0.00915842 0.00205856 2.22394e-26 0 0.00207371 0.0082601 0.0184375 0.0324199 0.0499305 0.0709404 0.0945136 0.121367 0.149481 0.180567 0.211671 0.243163 0.275437 0.307951 0.339652 0.370556 0.39961 0.426283 0.449822 0.47246 0.491187 0.505876 0.517401 0.525185 0.528113 0.526962 0.522085 0.514343 0.504317 0.48214 0.461574 0.452651 0.409382 0.381025 0.351435 0.316788 0.284586 0.251533 0.216281 0.184813 0.177375 0.123854 0.0967713 0.0724986 0.051291 0.0343637 0.0189877 0.00952964 0.00209129 2.25914e-26 0 0.00207364 0.00826675 0.0184734 0.0324394 0.0499678 0.0709908 0.135695 0.121356 0.149629 0.180773 0.211924 0.243576 0.276055 0.308501 0.340372 0.370925 0.399689 0.426661 0.450865 0.472722 0.49138 0.505781 0.516748 0.525165 0.528015 0.526987 0.522253 0.516047 0.498747 0.481998 0.461804 0.48006 0.41033 0.381289 0.348661 0.316416 0.3034 0.249842 0.216286 0.189127 0.154683 0.123987 0.0968092 0.0726201 0.051388 0.0329869 0.0193143 0.00877073 0.00209018 2.25893e-26 0 0.00204549 0.00815967 0.0182469 0.0323145 0.0497834 0.0704064 0.107185 0.119654 0.148202 0.179524 0.210396 0.241608 0.273689 0.305738 0.336898 0.367015 0.395253 0.421744 0.445747 0.466855 0.484692 0.468769 0.509128 0.517028 0.519696 0.517991 0.512226 0.503897 0.490677 0.474194 0.454893 0.431269 0.40337 0.375266 0.342632 0.312066 0.286626 0.245449 0.252785 0.197003 0.15013 0.121427 0.0963582 0.0749332 0.0499771 0.0324757 0.0187812 0.00856371 0.00205599 2.223