<?xml version="1.0"?>
<VTKFile type="PolyData">
	<PolyData>
		<Piece NumberOfPoints="2601" NumberOfPolys="2500">
			<Points>
				<DataArray type="Float32" NumberOfComponents="3" format="ascii">
 0 0 0 0.02 0 0 0.04 0 0 0.06 0 0 0.08 0 0 0.1 0 0 0.12 0 0 0.14 0 0 0.16 0 0 0.18 0 0 0.2 0 0 0.22 0 0 0.24 0 0 0.26 0 0 0.28 0 0 0.3 0 0 0.32 0 0 0.34 0 0 0.36 0 0 0.38 0 0 0.4 0 0 0.42 0 0 0.44 0 0 0.46 0 0 0.48 0 0 0.5 0 0 0.52 0 0 0.54 0 0 0.56 0 0 0.58 0 0 0.6 0 0 0.62 0 0 0.64 0 0 0.66 0 0 0.68 0 0 0.7 0 0 0.72 0 0 0.74 0 0 0.76 0 0 0.78 0 0 0.8 0 0 0.82 0 0 0.84 0 0 0.86 0 0 0.88 0 0 0.9 0 0 0.92 0 0 0.94 0 0 0.96 0 0 0.98 0 0 1 0 0 0 0.02 0 0.02 0.02 0 0.04 0.02 0 0.06 0.02 0 0.08 0.02 0 0.1 0.02 0 0.12 0.02 0 0.14 0.02 0 0.16 0.02 0 0.18 0.02 0 0.2 0.02 0 0.22 0.02 0 0.24 0.02 0 0.26 0.02 0 0.28 0.02 0 0.3 0.02 0 0.32 0.02 0 0.34 0.02 0 0.36 0.02 0 0.38 0.02 0 0.4 0.02 0 0.42 0.02 0 0.44 0.02 0 0.46 0.02 0 0.48 0.02 0 0.5 0.02 0 0.52 0.02 0 0.54 0.02 0 0.56 0.02 0 0.58 0.02 0 0.6 0.02 0 0.62 0.02 0 0.64 0.02 0 0.66 0.02 0 0.68 0.02 0 0.7 0.02 0 0.72 0.02 0 0.74 0.02 0 0.76 0.02 0 0.78 0.02 0 0.8 0.02 0 0.82 0.02 0 0.84 0.02 0 0.86 0.02 0 0.88 0.02 0 0.9 0.02 0 0.92 0.02 0 0.94 0.02 0 0.96 0.02 0 0.98 0.02 0 1 0.02 0 0 0.04 0 0.02 0.04 0 0.04 0.04 0 0.06 0.04 0 0.08 0.04 0 0.1 0.04 0 0.12 0.04 0 0.14 0.04 0 0.16 0.04 0 0.18 0.04 0 0.2 0.04 0 0.22 0.04 0 0.24 0.04 0 0.26 0.04 0 0.28 0.04 0 0.3 0.04 0 0.32 0.04 0 0.34 0.04 0 0.36 0.04 0 0.38 0.04 0 0.4 0.04 0 0.42 0.04 0 0.44 0.04 0 0.46 0.04 0 0.48 0.04 0 0.5 0.04 0 0.52 0.04 0 0.54 0.04 0 0.56 0.04 0 0.58 0.04 0 0.6 0.04 0 0.62 0.04 0 0.64 0.04 0 0.66 0.04 0 0.68 0.04 0 0.7 0.04 0 0.72 0.04 0 0.74 0.04 0 0.76 0.04 0 0.78 0.04 0 0.8 0.04 0 0.82 0.04 0 0.84 0.04 0 0.86 0.04 0 0.88 0.04 0 0.9 0.04 0 0.92 0.04 0 0.94 0.04 0 0.96 0.04 0 0.98 0.04 0 1 0.04 0 0 0.06 0 0.02 0.06 0 0.04 0.06 0 0.06 0.06 0 0.08 0.06 0 0.1 0.06 0 0.12 0.06 0 0.14 0.06 0 0.16 0.06 0 0.18 0.06 0 0.2 0.06 0 0.22 0.06 0 0.24 0.06 0 0.26 0.06 0 0.28 0.06 0 0.3 0.06 0 0.32 0.06 0 0.34 0.06 0 0.36 0.06 0 0.38 0.06 0 0.4 0.06 0 0.42 0.06 0 0.44 0.06 0 0.46 0.06 0 0.48 0.06 0 0.5 0.06 0 0.52 0.06 0 0.54 0.06 0 0.56 0.06 0 0.58 0.06 0 0.6 0.06 0 0.62 0.06 0 0.64 0.06 0 0.66 0.06 0 0.68 0.06 0 0.7 0.06 0 0.72 0.06 0 0.74 0.06 0 0.76 0.06 0 0.78 0.06 0 0.8 0.06 0 0.82 0.06 0 0.84 0.06 0 0.86 0.06 0 0.88 0.06 0 0.9 0.06 0 0.92 0.06 0 0.94 0.06 0 0.96 0.06 0 0.98 0.06 0 1 0.06 0 0 0.08 0 0.02 0.08 0 0.04 0.08 0 0.06 0.08 0 0.08 0.08 0 0.1 0.08 0 0.12 0.08 0 0.14 0.08 0 0.16 0.08 0 0.18 0.08 0 0.2 0.08 0 0.22 0.08 0 0.24 0.08 0 0.26 0.08 0 0.28 0.08 0 0.3 0.08 0 0.32 0.08 0 0.34 0.08 0 0.36 0.08 0 0.38 0.08 0 0.4 0.08 0 0.42 0.08 0 0.44 0.08 0 0.46 0.08 0 0.48 0.08 0 0.5 0.08 0 0.52 0.08 0 0.54 0.08 0 0.56 0.08 0 0.58 0.08 0 0.6 0.08 0 0.62 0.08 0 0.64 0.08 0 0.66 0.08 0 0.68 0.08 0 0.7 0.08 0 0.72 0.08 0 0.74 0.08 0 0.76 0.08 0 0.78 0.08 0 0.8 0.08 0 0.82 0.08 0 0.84 0.08 0 0.86 0.08 0 0.88 0.08 0 0.9 0.08 0 0.92 0.08 0 0.94 0.08 0 0.96 0.08 0 0.98 0.08 0 1 0.08 0 0 0.1 0 0.02 0.1 0 0.04 0.1 0 0.06 0.1 0 0.08 0.1 0 0.1 0.1 0 0.12 0.1 0 0.14 0.1 0 0.16 0.1 0 0.18 0.1 0 0.2 0.1 0 0.22 0.1 0 0.24 0.1 0 0.26 0.1 0 0.28 0.1 0 0.3 0.1 0 0.32 0.1 0 0.34 0.1 0 0.36 0.1 0 0.38 0.1 0 0.4 0.1 0 0.42 0.1 0 0.44 0.1 0 0.46 0.1 0 0.48 0.1 0 0.5 0.1 0 0.52 0.1 0 0.54 0.1 0 0.56 0.1 0 0.58 0.1 0 0.6 0.1 0 0.62 0.1 0 0.64 0.1 0 0.66 0.1 0 0.68 0.1 0 0.7 0.1 0 0.72 0.1 0 0.74 0.1 0 0.76 0.1 0 0.78 0.1 0 0.8 0.1 0 0.82 0.1 0 0.84 0.1 0 0.86 0.1 0 0.88 0.1 0 0.9 0.1 0 0.92 0.1 0 0.94 0.1 0 0.96 0.1 0 0.98 0.1 0 1 0.1 0 0 0.12 0 0.02 0.12 0 0.04 0.12 0 0.06 0.12 0 0.08 0.12 0 0.1 0.12 0 0.12 0.12 0 0.14 0.12 0 0.16 0.12 0 0.18 0.12 0 0.2 0.12 0 0.22 0.12 0 0.24 0.12 0 0.26 0.12 0 0.28 0.12 0 0.3 0.12 0 0.32 0.12 0 0.34 0.12 0 0.36 0.12 0 0.38 0.12 0 0.4 0.12 0 0.42 0.12 0 0.44 0.12 0 0.46 0.12 0 0.48 0.12 0 0.5 0.12 0 0.52 0.12 0 0.54 0.12 0 0.56 0.12 0 0.58 0.12 0 0.6 0.12 0 0.62 0.12 0 0.64 0.12 0 0.66 0.12 0 0.68 0.12 0 0.7 0.12 0 0.72 0.12 0 0.74 0.12 0 0.76 0.12 0 0.78 0.12 0 0.8 0.12 0 0.82 0.12 0 0.84 0.12 0 0.86 0.12 0 0.88 0.12 0 0.9 0.12 0 0.92 0.12 0 0.94 0.12 0 0.96 0.12 0 0.98 0.12 0 1 0.12 0 0 0.14 0 0.02 0.14 0 0.04 0.14 0 0.06 0.14 0 0.08 0.14 0 0.1 0.14 0 0.12 0.14 0 0.14 0.14 0 0.16 0.14 0 0.18 0.14 0 0.2 0.14 0 0.22 0.14 0 0.24 0.14 0 0.26 0.14 0 0.28 0.14 0 0.3 0.14 0 0.32 0.14 0 0.34 0.14 0 0.36 0.14 0 0.38 0.14 0 0.4 0.14 0 0.42 0.14 0 0.44 0.14 0 0.46 0.14 0 0.48 0.14 0 0.5 0.14 0 0.52 0.14 0 0.54 0.14 0 0.56 0.14 0 0.58 0.14 0 0.6 0.14 0 0.62 0.14 0 0.64 0.14 0 0.66 0.14 0 0.68 0.14 0 0.7 0.14 0 0.72 0.14 0 0.74 0.14 0 0.76 0.14 0 0.78 0.14 0 0.8 0.14 0 0.82 0.14 0 0.84 0.14 0 0.86 0.14 0 0.88 0.14 0 0.9 0.14 0 0.92 0.14 0 0.94 0.14 0 0.96 0.14 0 0.98 0.14 0 1 0.14 0 0 0.16 0 0.02 0.16 0 0.04 0.16 0 0.06 0.16 0 0.08 0.16 0 0.1 0.16 0 0.12 0.16 0 0.14 0.16 0 0.16 0.16 0 0.18 0.16 0 0.2 0.16 0 0.22 0.16 0 0.24 0.16 0 0.26 0.16 0 0.28 0.16 0 0.3 0.16 0 0.32 0.16 0 0.34 0.16 0 0.36 0.16 0 0.38 0.16 0 0.4 0.16 0 0.42 0.16 0 0.44 0.16 0 0.46 0.16 0 0.48 0.16 0 0.5 0.16 0 0.52 0.16 0 0.54 0.16 0 0.56 0.16 0 0.58 0.16 0 0.6 0.16 0 0.62 0.16 0 0.64 0.16 0 0.66 0.16 0 0.68 0.16 0 0.7 0.16 0 0.72 0.16 0 0.74 0.16 0 0.76 0.16 0 0.78 0.16 0 0.8 0.16 0 0.82 0.16 0 0.84 0.16 0 0.86 0.16 0 0.88 0.16 0 0.9 0.16 0 0.92 0.16 0 0.94 0.16 0 0.96 0.16 0 0.98 0.16 0 1 0.16 0 0 0.18 0 0.02 0.18 0 0.04 0.18 0 0.06 0.18 0 0.08 0.18 0 0.1 0.18 0 0.12 0.18 0 0.14 0.18 0 0.16 0.18 0 0.18 0.18 0 0.2 0.18 0 0.22 0.18 0 0.24 0.18 0 0.26 0.18 0 0.28 0.18 0 0.3 0.18 0 0.32 0.18 0 0.34 0.18 0 0.36 0.18 0 0.38 0.18 0 0.4 0.18 0 0.42 0.18 0 0.44 0.18 0 0.46 0.18 0 0.48 0.18 0 0.5 0.18 0 0.52 0.18 0 0.54 0.18 0 0.56 0.18 0 0.58 0.18 0 0.6 0.18 0 0.62 0.18 0 0.64 0.18 0 0.66 0.18 0 0.68 0.18 0 0.7 0.18 0 0.72 0.18 0 0.74 0.18 0 0.76 0.18 0 0.78 0.18 0 0.8 0.18 0 0.82 0.18 0 0.84 0.18 0 0.86 0.18 0 0.88 0.18 0 0.9 0.18 0 0.92 0.18 0 0.94 0.18 0 0.96 0.18 0 0.98 0.18 0 1 0.18 0 0 0.2 0 0.02 0.2 0 0.04 0.2 0 0.06 0.2 0 0.08 0.2 0 0.1 0.2 0 0.12 0.2 0 0.14 0.2 0 0.16 0.2 0 0.18 0.2 0 0.2 0.2 0 0.22 0.2 0 0.24 0.2 0 0.26 0.2 0 0.28 0.2 0 0.3 0.2 0 0.32 0.2 0 0.34 0.2 0 0.36 0.2 0 0.38 0.2 0 0.4 0.2 0 0.42 0.2 0 0.44 0.2 0 0.46 0.2 0 0.48 0.2 0 0.5 0.2 0 0.52 0.2 0 0.54 0.2 0 0.56 0.2 0 0.58 0.2 0 0.6 0.2 0 0.62 0.2 0 0.64 0.2 0 0.66 0.2 0 0.68 0.2 0 0.7 0.2 0 0.72 0.2 0 0.74 0.2 0 0.76 0.2 0 0.78 0.2 0 0.8 0.2 0 0.82 0.2 0 0.84 0.2 0 0.86 0.2 0 0.88 0.2 0 0.9 0.2 0 0.92 0.2 0 0.94 0.2 0 0.96 0.2 0 0.98 0.2 0 1 0.2 0 0 0.22 0 0.02 0.22 0 0.04 0.22 0 0.06 0.22 0 0.08 0.22 0 0.1 0.22 0 0.12 0.22 0 0.14 0.22 0 0.16 0.22 0 0.18 0.22 0 0.2 0.22 0 0.22 0.22 0 0.24 0.22 0 0.26 0.22 0 0.28 0.22 0 0.3 0.22 0 0.32 0.22 0 0.34 0.22 0 0.36 0.22 0 0.38 0.22 0 0.4 0.22 0 0.42 0.22 0 0.44 0.22 0 0.46 0.22 0 0.48 0.22 0 0.5 0.22 0 0.52 0.22 0 0.54 0.22 0 0.56 0.22 0 0.58 0.22 0 0.6 0.22 0 0.62 0.22 0 0.64 0.22 0 0.66 0.22 0 0.68 0.22 0 0.7 0.22 0 0.72 0.22 0 0.74 0.22 0 0.76 0.22 0 0.78 0.22 0 0.8 0.22 0 0.82 0.22 0 0.84 0.22 0 0.86 0.22 0 0.88 0.22 0 0.9 0.22 0 0.92 0.22 0 0.94 0.22 0 0.96 0.22 0 0.98 0.22 0 1 0.22 0 0 0.24 0 0.02 0.24 0 0.04 0.24 0 0.06 0.24 0 0.08 0.24 0 0.1 0.24 0 0.12 0.24 0 0.14 0.24 0 0.16 0.24 0 0.18 0.24 0 0.2 0.24 0 0.22 0.24 0 0.24 0.24 0 0.26 0.24 0 0.28 0.24 0 0.3 0.24 0 0.32 0.24 0 0.34 0.24 0 0.36 0.24 0 0.38 0.24 0 0.4 0.24 0 0.42 0.24 0 0.44 0.24 0 0.46 0.24 0 0.48 0.24 0 0.5 0.24 0 0.52 0.24 0 0.54 0.24 0 0.56 0.24 0 0.58 0.24 0 0.6 0.24 0 0.62 0.24 0 0.64 0.24 0 0.66 0.24 0 0.68 0.24 0 0.7 0.24 0 0.72 0.24 0 0.74 0.24 0 0.76 0.24 0 0.78 0.24 0 0.8 0.24 0 0.82 0.24 0 0.84 0.24 0 0.86 0.24 0 0.88 0.24 0 0.9 0.24 0 0.92 0.24 0 0.94 0.24 0 0.96 0.24 0 0.98 0.24 0 1 0.24 0 0 0.26 0 0.02 0.26 0 0.04 0.26 0 0.06 0.26 0 0.08 0.26 0 0.1 0.26 0 0.12 0.26 0 0.14 0.26 0 0.16 0.26 0 0.18 0.26 0 0.2 0.26 0 0.22 0.26 0 0.24 0.26 0 0.26 0.26 0 0.28 0.26 0 0.3 0.26 0 0.32 0.26 0 0.34 0.26 0 0.36 0.26 0 0.38 0.26 0 0.4 0.26 0 0.42 0.26 0 0.44 0.26 0 0.46 0.26 0 0.48 0.26 0 0.5 0.26 0 0.52 0.26 0 0.54 0.26 0 0.56 0.26 0 0.58 0.26 0 0.6 0.26 0 0.62 0.26 0 0.64 0.26 0 0.66 0.26 0 0.68 0.26 0 0.7 0.26 0 0.72 0.26 0 0.74 0.26 0 0.76 0.26 0 0.78 0.26 0 0.8 0.26 0 0.82 0.26 0 0.84 0.26 0 0.86 0.26 0 0.88 0.26 0 0.9 0.26 0 0.92 0.26 0 0.94 0.26 0 0.96 0.26 0 0.98 0.26 0 1 0.26 0 0 0.28 0 0.02 0.28 0 0.04 0.28 0 0.06 0.28 0 0.08 0.28 0 0.1 0.28 0 0.12 0.28 0 0.14 0.28 0 0.16 0.28 0 0.18 0.28 0 0.2 0.28 0 0.22 0.28 0 0.24 0.28 0 0.26 0.28 0 0.28 0.28 0 0.3 0.28 0 0.32 0.28 0 0.34 0.28 0 0.36 0.28 0 0.38 0.28 0 0.4 0.28 0 0.42 0.28 0 0.44 0.28 0 0.46 0.28 0 0.48 0.28 0 0.5 0.28 0 0.52 0.28 0 0.54 0.28 0 0.56 0.28 0 0.58 0.28 0 0.6 0.28 0 0.62 0.28 0 0.64 0.28 0 0.66 0.28 0 0.68 0.28 0 0.7 0.28 0 0.72 0.28 0 0.74 0.28 0 0.76 0.28 0 0.78 0.28 0 0.8 0.28 0 0.82 0.28 0 0.84 0.28 0 0.86 0.28 0 0.88 0.28 0 0.9 0.28 0 0.92 0.28 0 0.94 0.28 0 0.96 0.28 0 0.98 0.28 0 1 0.28 0 0 0.3 0 0.02 0.3 0 0.04 0.3 0 0.06 0.3 0 0.08 0.3 0 0.1 0.3 0 0.12 0.3 0 0.14 0.3 0 0.16 0.3 0 0.18 0.3 0 0.2 0.3 0 0.22 0.3 0 0.24 0.3 0 0.26 0.3 0 0.28 0.3 0 0.3 0.3 0 0.32 0.3 0 0.34 0.3 0 0.36 0.3 0 0.38 0.3 0 0.4 0.3 0 0.42 0.3 0 0.44 0.3 0 0.46 0.3 0 0.48 0.3 0 0.5 0.3 0 0.52 0.3 0 0.54 0.3 0 0.56 0.3 0 0.58 0.3 0 0.6 0.3 0 0.62 0.3 0 0.64 0.3 0 0.66 0.3 0 0.68 0.3 0 0.7 0.3 0 0.72 0.3 0 0.74 0.3 0 0.76 0.3 0 0.78 0.3 0 0.8 0.3 0 0.82 0.3 0 0.84 0.3 0 0.86 0.3 0 0.88 0.3 0 0.9 0.3 0 0.92 0.3 0 0.94 0.3 0 0.96 0.3 0 0.98 0.3 0 1 0.3 0 0 0.32 0 0.02 0.32 0 0.04 0.32 0 0.06 0.32 0 0.08 0.32 0 0.1 0.32 0 0.12 0.32 0 0.14 0.32 0 0.16 0.32 0 0.18 0.32 0 0.2 0.32 0 0.22 0.32 0 0.24 0.32 0 0.26 0.32 0 0.28 0.32 0 0.3 0.32 0 0.32 0.32 0 0.34 0.32 0 0.36 0.32 0 0.38 0.32 0 0.4 0.32 0 0.42 0.32 0 0.44 0.32 0 0.46 0.32 0 0.48 0.32 0 0.5 0.32 0 0.52 0.32 0 0.54 0.32 0 0.56 0.32 0 0.58 0.32 0 0.6 0.32 0 0.62 0.32 0 0.64 0.32 0 0.66 0.32 0 0.68 0.32 0 0.7 0.32 0 0.72 0.32 0 0.74 0.32 0 0.76 0.32 0 0.78 0.32 0 0.8 0.32 0 0.82 0.32 0 0.84 0.32 0 0.86 0.32 0 0.88 0.32 0 0.9 0.32 0 0.92 0.32 0 0.94 0.
[...]
			<PointData Scalars="VitesseX">
				<DataArray Name="VitesseX" type="Float32" format="ascii">
 0 0 0 0 0 0 0 0 0 0 0 0 0 0 0 0 0 0 0 0 0 0 0 0 0 0 0 0 0 0 0 0 0 0 0 0 0 0 0 0 0 0 0 0 0 0 0 0 0 0 -0 0 -2.3821e-05 -9.39379e-05 -0.000209734 -0.000367609 -0.000567093 -0.000803849 -0.00107451 -0.00137382 -0.0016993 -0.0020455 -0.0024018 -0.00276993 -0.00314608 -0.00350883 -0.00386766 -0.00421311 -0.00453761 -0.00483603 -0.00510377 -0.00545461 -0.000144197 -0.00563157 -0.00579567 -0.00587626 -0.00590508 -0.00588603 -0.00581815 -0.00570482 -0.005548 -0.00535104 -0.00511544 -0.00484457 -0.00454314 -0.00421715 -0.00387244 -0.00351322 -0.00314639 -0.00277803 -0.00240825 -0.00204435 -0.0016994 -0.00137566 -0.00107415 -0.00080282 -0.000565757 -0.000378007 -0.000209779 -9.38765e-05 -2.35449e-05 -2.56424e-28 0 -4.73866e-05 -0.000187285 -0.000416322 -0.000730929 -0.00112618 -0.00159589 -0.00213267 -0.00272809 -0.00337279 -0.00405661 -0.0047688 -0.00549803 -0.00623282 -0.00696159 -0.00767284 -0.00835599 -0.00899804 -0.00952888 -0.00994319 -0.01077 -0.0109426 -0.0112795 -0.0115238 -0.0116671 -0.0117152 -0.011671 -0.0115338 -0.0113072 -0.0109949 -0.0106019 -0.0101332 -0.00959623 -0.00899974 -0.00835423 -0.00767088 -0.0069589 -0.00622991 -0.00549434 -0.00476316 -0.00405189 -0.00336661 -0.00276984 -0.00212806 -0.00159064 -0.00112087 -0.000730547 -0.00041336 -0.000185329 -4.6428e-05 -5.04726e-28 0 -6.95665e-05 -0.000282947 -0.000617041 -0.00108248 -0.00166782 -0.00236422 -0.00315975 -0.00404129 -0.00499491 -0.00600597 -0.00705922 -0.00813892 -0.00922855 -0.0103077 -0.0113587 -0.0123671 -0.0134595 -0.0142049 -0.0149983 -0.0156902 -0.0162719 -0.0167334 -0.0170674 -0.0172708 -0.0173418 -0.0172728 -0.0170679 -0.0167309 -0.0162666 -0.0156832 -0.0149897 -0.014196 -0.0133145 -0.0123605 -0.0113483 -0.0102936 -0.00921469 -0.00812602 -0.00704804 -0.00600028 -0.00497746 -0.00780204 -0.00314939 -0.00235421 -0.00165881 -0.00107545 -0.000610135 -0.000273021 -6.85798e-05 -7.45088e-28 0 -9.0245e-05 -0.000358715 -0.00080079 -0.00140997 -0.00217645 -0.00308724 -0.00412756 -0.00528121 -0.00653025 -0.00785513 -0.00923502 -0.0106481 -0.012072 -0.0134845 -0.0148637 -0.0161861 -0.0174331 -0.0185613 -0.0195767 -0.0205336 -0.0212962 -0.0218031 -0.0223105 -0.0225653 -0.0227048 -0.0226031 -0.0223341 -0.0218916 -0.0212839 -0.0205204 -0.0196128 -0.0185741 -0.0174185 -0.0161708 -0.0148458 -0.0134628 -0.0120567 -0.0106355 -0.00922141 -0.00784439 -0.00651974 -0.00527561 -0.00412175 -0.0030805 -0.00217003 -0.00140561 -0.000797433 -0.000358071 -8.9651e-05 -9.7372e-28 0 -0.000110324 -0.000438128 -0.000976784 -0.00171952 -0.00265475 -0.00377294 -0.00503601 -0.0064429 -0.00796667 -0.00958336 -0.0112681 -0.0129936 -0.0147323 -0.0164489 -0.0181337 -0.0197498 -0.0213001 -0.022637 -0.0239446 -0.0250563 -0.0259848 -0.0267216 -0.0272577 -0.0275801 -0.0276886 -0.0275925 -0.0272721 -0.0267431 -0.0260202 -0.0251618 -0.0239258 -0.022661 -0.0212508 -0.0197285 -0.0181097 -0.0164255 -0.0147056 -0.0129688 -0.0112216 -0.00954966 -0.00795107 -0.00642842 -0.00502796 -0.00375702 -0.00264624 -0.001714 -0.000972449 -0.000435697 -0.00010931 -1.18702e-27 0 -0.000128227 -0.000509676 -0.00113757 -0.0020024 -0.00309067 -0.00438465 -0.00586328 -0.00750296 -0.00927796 -0.0111605 -0.013121 -0.0151289 -0.0171531 -0.0191589 -0.0211192 -0.0230019 -0.0247773 -0.0264134 -0.0278866 -0.0291785 -0.0302614 -0.03112 -0.0317449 -0.0321205 -0.0322466 -0.0322023 -0.0318065 -0.0311832 -0.0303528 -0.0293421 -0.0278738 -0.0263855 -0.0247395 -0.0229653 -0.0204172 -0.019129 -0.0171302 -0.0150976 -0.0130954 -0.0111182 -0.00925774 -0.00748428 -0.00585318 -0.00437334 -0.00308031 -0.00199545 -0.00113225 -0.00050714 -0.000127246 -1.38162e-27 0 -0.000144506 -0.000574271 -0.00128148 -0.00225523 -0.00348006 -0.0049362 -0.00660034 -0.0084462 -0.0104448 -0.0125647 -0.0147725 -0.0170337 -0.0193125 -0.0215741 -0.0237764 -0.025892 -0.0278885 -0.0297307 -0.0313897 -0.0328405 -0.034057 -0.0349984 -0.0357227 -0.0361541 -0.0362965 -0.0361528 -0.0357223 -0.0350161 -0.034044 -0.0328213 -0.031365 -0.0297007 -0.027861 -0.0258733 -0.0237671 -0.0215242 -0.0192809 27.2249 -0.0147395 -0.0125335 -0.0104181 -0.00842236 -0.00658605 -0.00491998 -0.00346547 -0.00224534 -0.00127424 -0.000570572 -0.000143178 -1.55446e-27 0 -0.000158254 -0.000630636 -0.00140476 -0.00247161 -0.0038145 -0.0054116 -0.00723479 -0.00925734 -0.011447 -0.0137704 -0.0161904 -0.0186716 -0.0211651 -0.0236367 -0.0260533 -0.0283745 -0.030562 -0.0325806 -0.0343671 -0.035985 -0.0373265 -0.0383866 -0.0391563 -0.0396202 -0.0397734 -0.0396142 -0.039141 -0.0383658 -0.0372995 -0.0359588 -0.0343634 -0.03254 -0.0305201 -0.0283341 -0.0260112 -0.0235904 -0.0211209 -0.0186254 -818.833 -0.013675 -0.0114127 -0.00922585 -0.0072068 -0.00538837 -0.00379599 -0.00245984 -0.00139615 -0.000624997 -0.000156854 -1.70281e-27 0 -0.000168443 -0.000668871 -0.00149631 -0.00264979 -0.00409065 -0.00580544 -0.007762 -0.00992564 -0.0122763 -0.0147549 -0.0173735 -0.0200055 -0.0226772 -0.0253271 -0.0279186 -0.0304096 -0.032746 -0.0349175 -0.0368677 -0.038572 -0.0400045 -0.0411403 -0.0419646 -0.0424601 -0.0426232 -0.0424516 -0.0419434 -0.0411119 -0.0399683 -0.0385309 -0.0368218 -0.0348687 -0.0327033 -0.0303593 -0.0278704 -0.0252787 -0.0226277 -0.0199539 -0.0172995 -746.693 -0.0116364 -0.00988433 -0.00772248 -0.00577249 -0.00406695 -0.00263557 -0.00149605 -0.000669581 -0.000168059 -1.82433e-27 0 -0.000178042 -0.000707578 -0.00157906 -0.00277874 -0.00428791 -0.00608282 -0.00813524 -0.0104136 -0.0128787 -0.0154991 -0.0182289 -0.0210187 -0.0238503 -0.0263632 -0.0288358 -0.0319758 -0.0344292 -0.0367063 -0.0387568 -0.040548 -0.0420527 -0.0432453 -0.0441106 -0.0446301 -0.0448006 -0.0446201 -0.0440856 -0.0432114 -0.0420091 -0.0404978 -0.0387015 -0.0366488 -0.0343718 -0.0319072 -0.0292922 -0.0265686 -0.0237802 -0.02097 -0.0181805 -0.0154516 53.2286 16.36 -0.00811053 -0.00606636 -0.00427461 -0.00276976 -0.00157236 -0.000703646 -0.000176617 -1.91711e-27 0 -0.000184024 -0.000731104 -0.00163116 -0.00287024 -0.00442887 -0.00628262 -0.00840296 -0.0107568 -0.0133046 -0.0160055 -0.0188207 -0.021707 -0.0246162 -0.0276022 -0.0303272 -0.0330205 -0.0355657 -0.0379174 -0.040035 -0.0418849 -0.0434387 -0.0446687 -0.0455613 -0.0460969 -0.0462708 -0.046086 -0.0455375 -0.0446378 -0.0433948 -0.0418312 -0.0399737 -0.0378522 -0.0354976 -0.0329536 -0.0302541 -0.0274403 -0.0245599 -0.0216582 -0.0187795 -0.0159679 -0.0132635 0.041827 -0.0083787 -0.00626488 -0.0044149 -0.00286062 -0.00162404 -0.000726799 -0.000182409 -1.97967e-27 0 -0.000187024 -0.000743027 -0.00165767 -0.00291676 -0.00450098 -0.00638588 -0.00854168 -0.0109332 -0.0135228 -0.0162662 -0.0191278 -0.022062 -0.0250852 -0.0279663 -0.0308143 -0.0335573 -0.0361443 -0.038533 -0.0406863 -0.0425668 -0.0441475 -0.045394 -0.0462944 -0.0468262 -0.0464344 -0.0468264 -0.0462554 -0.0453373 -0.0440747 -0.0424896 -0.0406013 -0.0384379 -0.0348638 -0.0334711 -0.0307319 -0.0278732 -0.0249484 -0.0220011 -0.0190763 -0.0162206 -0.013478 -0.0108905 -0.00851229 -0.00636409 -0.00448499 -0.00290539 -0.00164973 -0.000738169 -0.000185289 -2.01104e-27 0 -0.000187103 -0.000743218 -0.00165798 -0.00291719 -0.00450115 -0.00638571 -0.00854192 -0.010933 -0.01352 -0.0162652 -0.0200201 -0.0224756 -0.0250384 -0.0279532 -0.0308115 -0.0335581 -0.036145 -0.038535 -0.0407052 -0.0429044 -0.0441336 -0.0453998 -0.0462859 -0.0470001 -0.0470134 -0.0468197 -0.0462549 -0.0453385 -0.0440766 -0.0424904 -0.0406016 -0.0384361 -0.0360533 -0.033471 -0.030731 -0.0264393 -0.0249518 -0.0220004 -0.0190755 -0.0162211 -0.0134804 -0.0108944 -0.00848586 -0.00636469 -0.00448572 -0.00290552 -0.00164967 -0.00073817 -0.000185289 -2.01072e-27 0 -0.000182974 -0.000731508 -0.00163241 -0.00287231 -0.00443326 -0.00629061 -0.00841132 -0.010761 -0.0133013 -0.0160202 -0.0202611 -0.0217617 -0.0246419 -0.0275214 -0.0303375 -0.0330404 -0.0355883 -0.0379563 472.737 -0.0418975 -0.0434413 -0.0446734 -0.0455681 -0.0460999 -0.046272 -0.0460797 -0.0455232 -0.0446163 -0.0433716 -0.0418108 -0.0399578 -0.0378352 -0.0354768 -0.0329353 -0.0302372 -0.0274226 -0.0230178 -0.0212345 -0.0187601 -0.0159602 -0.0132646 -0.0107219 -0.00837054 -0.00406729 -0.00441418 -0.00285933 -0.00162345 -0.000726433 -0.000182347 -1.97871e-27 0 -0.000177196 -0.000705741 -0.00157808 -0.00278083 -0.00429317 -0.00609277 -0.0081458 -0.0104182 -0.0128871 -0.0155499 -0.0182692 -0.0210498 -0.0238587 -0.0266492 -0.0293743 -0.0319906 -0.0344622 -0.0367337 -0.0387786 -0.0405705 -0.0420762 -0.0432696 -0.0441258 -0.044635 -0.0448012 -0.0446146 -0.0440731 -0.0431928 -0.0419859 -0.0404758 -0.0386565 -0.0365938 -0.03434 -0.031886 -0.029276 -0.0265441 -0.0237723 -0.0206928 -0.0181348 -0.0154488 -0.0128413 -0.0103811 -0.00810795 -0.00605425 -0.00427301 -0.00276818 -0.00157172 -0.000703277 -0.000176538 -1.91553e-27 0 -0.000168694 -0.000671457 -0.00150061 -0.0026435 -0.00408243 -0.00579405 -0.00775279 -0.00991335 -0.0122689 -0.0148877 -0.0173724 -0.0200247 -0.0227033 -0.0253604 -0.0279539 -0.0304452 -0.0328137 -0.0349582 -0.0369001 -0.0386252 -0.0400535 -0.0411574 -0.0419853 -0.0424694 -0.042623 -0.0424435 -0.0419292 -0.0410918 -0.0399455 -0.0385065 -0.0367884 -0.034832 -0.0326688 -0.0303288 -0.0278443 -0.0252573 -0.0226109 -0.0199428 -0.0159912 -0.014687 -0.0122131 -0.00987417 -0.00771385 -0.005767 -0.00406457 -0.00263327 -0.00149514 -0.000669077 -0.00016795 -1.82217e-27 0 -0.000157467 -0.000626781 -0.00140032 -0.00246607 -0.00380815 -0.00540339 -0.00722903 -0.00924681 -0.011883 -0.0143206 -0.0162155 -0.0186905 -0.0211906 -0.0236718 -0.0260952 -0.0284389 -0.0306637 -0.0326365 -0.0344321 -0.0360227 -0.037359 -0.0384144 -0.0391775 -0.039632 -0.0397732 -0.0396066 -0.0391225 -0.0383399 -0.0372606 -0.0359194 -0.0343226 -0.0324983 -0.0304764 -0.0282919 -0.025977 -0.0235646 -0.0210914 -0.0186004 -0.0161337 -0.0135712 -0.0113878 -0.00921073 -0.00719676 -0.00537971 -0.003779 -0.00245679 -0.001395 -0.000624367 -0.000156721 -1.7001e-27 0 -0.000143698 -0.000572028 -0.00127802 -0.00225107 -0.00347769 -0.00493958 -0.00659561 -0.0084441 -0.0114131 -0.0126438 -0.0148034 -0.0170643 -0.0193462 -0.0216092 -0.023827 1478.62 -0.0279474 -0.0297949 -0.0314471 -0.0328929 -0.0341043 -0.0350666 -0.0357862 -0.0361846 -0.0362943 -0.0361368 -0.0356972 -0.0349791 -0.0339636 -0.0327653 -0.0313097 -0.0296458 -0.0278017 -0.0258075 -0.0236934 -0.0214904 -0.0192315 -0.0169465 -0.0147249 -0.01252 -0.0103787 -0.00840197 -0.00656511 -0.00490774 -0.00345804 -0.00224166 -0.00127274 -0.00091683 -0.000143019 -1.55126e-27 0 -0.000127692 -0.000508273 -0.00113562 -0.00200038 -0.00309091 -0.00439057 -0.0058618 -0.00750347 -0.00929277 -0.0112001 -0.0131553 -0.0151682 -0.0171983 -0.0192127 -0.0211807 -0.0230607 -0.0248347 -0.0264686 -0.0279285 -0.0292136 -0.0302963 -0.0311901 -0.0317639 -0.0321353 -0.0322497 -0.0321047 -0.0316037 -0.0309724 -0.0301685 -0.0291 -0.0278059 -0.0263266 -0.0246877 -0.022914 -0.0210233 -0.019078 -0.0170743 -0.0150558 -0.0130543 -0.0111041 -0.00921043 -0.00745988 -0.00582932 -0.00435903 -0.00307259 -0.0019912 -0.00113058 -0.0010068 -0.00012706 -1.378e-27 0 -0.000109681 -0.000436406 -0.000975261 -0.00171794 -0.0026533 -0.00376795 -0.00503667 -0.00644765 -0.0079831 -0.00961453 -0.0113024 -0.0130339 -0.0147796 -0.0165122 -0.0182138 -0.0198169 -0.0213415 -0.0227526 -0.0240134 -0.0251161 -0.0260652 -0.0267471 -0.0272744 -0.0276044 -0.0276733 -0.0275693 -0.0271955 -0.0265299 -0.0257917 -0.0249706 -0.0238625 -0.0225916 -0.0211843 -0.0196534 -0.0176007 -0.0163693 -0.0146534 -0.0129224 -0.0112042 -0.00954508 -0.00792666 -0.0064016 -0.005002 -0.00374048 -0.00263614 -0.00135413 -0.000970843 -0.000430032 -0.000109042 -1.18303e-27 0 -8.99012e-05 -0.00035778 -0.000799758 -0.0014089 -0.00217571 -0.00308929 -0.00413681 -0.00529164 -0.00654872 -0.00788568 -0.009273 -0.0106948 -0.0121279 -0.0135496 -0.0149611 -0.0163312 -0.0177343 -0.0187665 -0.019703 -0.0205989 -0.0213493 -0.0219435 -0.0223804 -0.0226482 -0.0226938 -0.0225933 -0.0223107 -0.0218381 -0.0210877 -0.0198949 -0.0183828 -0.0185067 -0.017349 -0.0160958 -0.0147669 -0.0134052 -0.0119944 -0.0105763 -0.00917157 -0.00779973 -0.00608067 -0.0052426 -0.00409667 -0.00306345 -0.00215894 -0.00139381 -0.000794937 -0.00035567 -8.93201e-05 -9.69431e-28 0 -6.87506e-05 -0.000273672 -0.00061152 -0.00107762 -0.00166453 -0.00236309 -0.00316873 -0.00404985 -0.00501185 -0.00603609 -0.007099 -0.00818809 -0.00928426 -0.0103778 -0.0127344 -0.0124294 -0.0133876 -0.0142857 -0.0150645 -0.0157486 -0.0163238 -0.0167811 -0.0171864 -0.0173271 -0.0173551 -0.0172577 -0.0170433 -0.0166882 -0.0161936 -0.0155771 -0.0149182 -0.0141568 -0.0132392 -0.012285 -0.0112683 -0.0102179 -0.00913705 -0.00806665 -0.00699469 -0.00594838 -0.00494473 -0.00398931 -0.00312595 -0.0023378 -0.00164789 -0.00106727 -0.000607341 -0.000271755 -6.79959e-05 -7.40555e-28 0 -4.64828e-05 -0.000185075 -0.000413659 -0.000729764 -0.00112769 -0.00160083 -0.00214876 -0.00274499 -0.00339849 -0.00409227 -0.00481408 -0.00555308 -0.00629775 -0.00703629 -0.00776117 -0.00843215 -0.00907461 -0.00967374 -0.0102036 -0.0106624 -0.0110493 -0.0113587 -0.0116078 -0.0117343 -0.015494 -0.0116355 -0.0114921 -0.0112514 -0.0109439 -0.0105325 -0.0100807 -0.00954438 -0.00888236 -0.00824227 -0.007583 -0.00688117 -0.00615789 -0.00543401 -0.00470792 -0.00400588 -0.00333655 -0.00269256 -0.00210508 -0.00157468 -0.0011105 -0.000719897 -0.000410097 -0.000183535 -0.000109053 -4.99995e-28 0 -2.35135e-05 -9.38343e-05 -0.000210006 -0.000370678 -0.000572286 -0.00081298 -0.0010924 -0.00140053 -0.00173082 -0.00208397 -0.00245326 -0.00283074 -0.00321101 -0.00358838 -0.00396757 -0.00431878 -0.00474978 -0.00508764 -0.00514483 -0.00538301 -0.00561091 -0.00575298 -0.00585182 -0.00591241 -0.00590081 -0.00585382 -0.00577483 -0.00565131 -0.00548239 -0.00529613 -0.00505028 -0.00478695 -0.004479 -0.00411808 0.00199103 -0.00171213 -0.00308109 -0.00218297 -0.00234183 -0.00194957 -0.00161647 -0.00134738 -0.0010511 -0.000787151 -0.000555704 -0.000360545 -0.000195764 -9.23794e-05 -2.22347e-05 -2.51547e-28 0 -2.29951e-07 -1.12846e-06 -2.71842e-06 -5.12563e-06 -7.912e-06 -1.28688e-05 -2.03394e-05 -3.89475e-05 -4.17624e-05 -4.40478e-05 -5.45887e-05 -6.43392e-05 -7.35963e-05 -8.30394e-05 -9.80783e-05 -0.000101548 -8.80683e-05 -6.50169e-05 -7.26417e-05 -5.19557e-05 -3.50906e-05 -3.44352e-05 -3.41728e-05 -2.46661e-05 4.14153e-06 2.06273e-05 3.39174e-05 4.43196e-05 5.28817e-05 0.000571228 0.000258293 0.000170206 8.75694e-05 6.23564e-05 0.000101744 7.40251e-05 4.24536e-05 7.1002e-05 7.25389e-05 5.89391e-05 4.50943e-05 8.20674e-05 1.8911e-05 1.28244e-05 8.02031e-06 4.52647e-06 2.05278e-06 3.47544e-07 2.00775e-07 7.05118e-31 0 2.28643e-05 9.13046e-05 0.000203945 0.00035881 0.000553888 0.000786336 0.00105002 0.00113034 64.5767 0.0019917 0.00234394 0.00270217 0.00306375 0.00342202 0.00376862 0.00415456 0.00445517 0.00475912 0.00503862 0.00527293 0.00546313 0.00561696 0.00577628 0.00585681 0.00590442 0.00589514 0.00584303 0.0057422 0.00577345 0.00543253 0.00518725 0.00491977 0.00461972 0.00425759 0.00394706 0.0035763 0.00407738 0.00282268 0.00244833 0.0020872 0.00173421 0.00140136 0.00108938 0.000813004 0.000571887 0.000369745 0.000209361 9.34096e-05 2.34638e-05 2.53062e-28 0 4.44105e-05 0.000181621 0.000407174 0.000717673 0.00110853 0.00157362 0.00210396 0.00269271 0.00333063 0.00398622 0.00470558 0.00542648 0.00615298 0.00687416 0.00757598 0.00814072 0.00890528 0.00950842 0.0100501 0.0105457 0.0109413 0.0112402 0.0114954 0.0116534 0.0117157 0.0116832 0.0115568 0.0113311 0.0110638 0.0106706 0.0102046 0.00967261 0.00908667 0.00843284 0.00774569 0.00702714 0.00633024 0.00592072 0.00480295 0.00408996 0.00339895 0.0027452 0.00214243 0.00160021 0.00112669 0.000729166 0.000413748 0.000184609 4.63584e-05 5.01562e-28 0 -8.8922e-05 0.000266271 0.000603042 0.00106429 0.00164355 0.00233393 0.0031192 0.0039996 0.00494865 0.00595241 0.00699186 0.00806585 0.00914566 0.0102185 0.0112662 0.0122551 0.0132214 0.0141168 0.0148771 0.015622 0.0162096 0.0167088 0.0170512 0.0172615 0.0173407 0.0172849 0.0170916 0.0167787 0.0163317 0.0157554 0.0150677 0.014278 0.013407 0.0124382 0.0114237 0.0103643 0.00929235 0.00821045 0.0071485 0.00603367 0.00501238 0.00405005 0.0031614 0.00236217 0.00166379 0.00107713 0.000611758 0.000272967 6.85173e-05 7.4219e-28 0 0.000169283 0.000286485 0.000786369 0.00139305 0.0021534 0.00305917 0.0040929 0.00523657 0.00648428 0.00780043 0.00914853 0.0105747 0.0119923 0.0133984 0.0147755 0.0160913 0.0172945 0.0184963 0.0195435 0.0203865 0.0211748 0.0218633 0.0223137 0.0225916 0.0226938 0.0226164 0.0223605 0.021946 0.021351 0.0205954 0.0196933 0.0186592 0.0175168 0.0162606 0.0149266 0.0135364 0.0121288 0.0107011 0.00928004 0.00788665 0.0065484 0.00529238 0.00413112 0.00308707 0.00217477 0.00140831 0.000800905 0.000357153 8.95959e-05 9.71111e-28 0 0.000108991 0.00082929 0.000945601 0.00169537 0.00262972 0.00373057 0.00499928 0.0063589 0.00791607 0.00952788 0.00879643 0.0129078 0.0146491 0.0163659 0.0180458 0.019659 0.0211765 0.0225829 0.0238551 0.025001 0.0249893 0.0266475 0.0272271 0.0275656 0.0276862 0.0284442 0.0273127 0.0267603 0.026033 0.0251099 0.0240074 0.0227476 0.0213703 0.0198195 0.0182014 0.0165141 0.0147826 0.0130431 0.0112916 0.00962171 0.00798175 0.0064512 0.0050359 0.00376329 0.00265141 0.00171725 0.000977295 0.000435959 0.000109286 1.18472e-27 0 0.000126734 0.000807726 0.00108709 0.00191958 0.00306673 0.00433609 0.0058246 0.00740869 0.00922971 0.0111066 0.0130569 0.0150429 0.0170714 0.0190762 0.0210319 0.0229116 0.0246867 0.0263299 0.027813 0.0290836 0.030112 0.0310092 0.0317043 0.0320954 0.0322469 0.0321376 0.0317699 0.0311552 0.0303061 0.0292297 0.0279452 0.0264797 0.0249631 0.0230647 0.0211806 0.0192209 0.0172419 0.0151897 0.0131474 0.0112047 0.00928947 0.00750831 0.00586156 0.0043803 0.00308618 0.00199888 0.00113688 0.000507451 0.000127229 1.37968e-27 0 0.000142917 0.000906164 0.00126369 0.00325714 0.00345606 0.00487241 0.00655865 0.00839507 0.0103938 0.0125053 0.0147045 1257.25 0.0191991 0.0214801 0.0236865 0.0258021 0.0277992 0.0296482 0.0313146 0.0327668 0.0339969 0.0349864 0.0357014 0.0361406 0.0362962 0.0361663 0.0357531 0.0350605 0.0341012 0.0328882 0.0314473 0.0298177 0.0279406 0.0259456 0.023827 0.0216183 0.0193805 0.0187203 0.0984001 0.0125912 0.0104502 0.00844619 0.00659506 0.00492842 0.00347235 0.00224898 0.0012783 0.000570899 0.000143175 1.55292e-27 0 0.000156716 0.000624385 0.00139248 0.00311833 0.00378892 0.0053758 0.00719476 0.00920926 0.0113409 0.013703 0.0161209 0.0185901 0.0204071 0.0235183 0.0259604 0.0282852 0.030474 0.0324965 0.0343216 0.0359185 0.0372657 0.0383408 0.0391237 0.039605 0.0397733 0.039629 0.0391754 0.038413 0.0373571 0.0360295 0.0344628 0.0351359 0.0306649 0.0284149 0.026106 0.0236773 0.0212256 0.0186811 0.0162124 0.0137759 0.0114482 0.00926388 0.00722466 0.00539905 0.00380396 0.00246374 0.0014 0.000625411 0.000156876 1.70162e-27 0 0.000167933 0.000669042 0.00149289 0.00262939 0.00406308 0.00576465 0.0077125 0.00987212 0.0113902 0.0146912 0.0172824 0.0199298 0.0225981 0.0250914 0.0278088 0.0303168 0.0326664 0.0348338 0.036789 0.0385001 0.0399422 0.0410916 0.0419295 0.0424443 0.0426232 0.0424668 0.0419786 0.0411597 0.0400272 0.038607 0.0387599 0.0349606 0.0327799 0.0305024 0.0281367 0.0253986 0.0226835 0.0200099 0.0182791 0.014754 0.0122693 0.00998559 0.00774113 0.00578571 0.00407637 0.00264005 0.00150015 0.000670102 0.000168109 1.8234e-27 0 0.000176496 0.000703159 0.00157 0.00276438 0.00427196 0.00606099 0.0081085 0.0103795 0.0128322 0.0154409 0.0181681 0.0209554 0.0237621 0.0265458 0.0291554 0.0318561 0.0343402 0.0366217 0.0386762 0.0404734 0.0419886 0.0431955 0.044075 0.0446147 0.0448006 0.044635 0.044121 0.0432621 0.042071 0.0429057 0.0317744 0.0367496 0.0344739 0.031992 0.0293888 0.0266551 0.0238395 0.0210309 0.0182491 0.0155124 0.0128952 0.0104171 0.00813575 0.00608904 0.00429082 0.00277598 0.0015773 0.000711513 0.000177017 1.91647e-27 0 0.000182318 0.000726347 0.00162263 0.00285723 0.00441359 0.00626201 0.00837184 0.010722 0.0132635 0.0158888 0.0187638 0.02