<?xml version="1.0"?>
<VTKFile type="PolyData">
	<PolyData>
		<Piece NumberOfPoints="2601" NumberOfPolys="2500">
			<Points>
				<DataArray type="Float32" NumberOfComponents="3" format="ascii">
 0 0 0 0.02 0 0 0.04 0 0 0.06 0 0 0.08 0 0 0.1 0 0 0.12 0 0 0.14 0 0 0.16 0 0 0.18 0 0 0.2 0 0 0.22 0 0 0.24 0 0 0.26 0 0 0.28 0 0 0.3 0 0 0.32 0 0 0.34 0 0 0.36 0 0 0.38 0 0 0.4 0 0 0.42 0 0 0.44 0 0 0.46 0 0 0.48 0 0 0.5 0 0 0.52 0 0 0.54 0 0 0.56 0 0 0.58 0 0 0.6 0 0 0.62 0 0 0.64 0 0 0.66 0 0 0.68 0 0 0.7 0 0 0.72 0 0 0.74 0 0 0.76 0 0 0.78 0 0 0.8 0 0 0.82 0 0 0.84 0 0 0.86 0 0 0.88 0 0 0.9 0 0 0.92 0 0 0.94 0 0 0.96 0 0 0.98 0 0 1 0 0 0 0.02 0 0.02 0.02 0 0.04 0.02 0 0.06 0.02 0 0.08 0.02 0 0.1 0.02 0 0.12 0.02 0 0.14 0.02 0 0.16 0.02 0 0.18 0.02 0 0.2 0.02 0 0.22 0.02 0 0.24 0.02 0 0.26 0.02 0 0.28 0.02 0 0.3 0.02 0 0.32 0.02 0 0.34 0.02 0 0.36 0.02 0 0.38 0.02 0 0.4 0.02 0 0.42 0.02 0 0.44 0.02 0 0.46 0.02 0 0.48 0.02 0 0.5 0.02 0 0.52 0.02 0 0.54 0.02 0 0.56 0.02 0 0.58 0.02 0 0.6 0.02 0 0.62 0.02 0 0.64 0.02 0 0.66 0.02 0 0.68 0.02 0 0.7 0.02 0 0.72 0.02 0 0.74 0.02 0 0.76 0.02 0 0.78 0.02 0 0.8 0.02 0 0.82 0.02 0 0.84 0.02 0 0.86 0.02 0 0.88 0.02 0 0.9 0.02 0 0.92 0.02 0 0.94 0.02 0 0.96 0.02 0 0.98 0.02 0 1 0.02 0 0 0.04 0 0.02 0.04 0 0.04 0.04 0 0.06 0.04 0 0.08 0.04 0 0.1 0.04 0 0.12 0.04 0 0.14 0.04 0 0.16 0.04 0 0.18 0.04 0 0.2 0.04 0 0.22 0.04 0 0.24 0.04 0 0.26 0.04 0 0.28 0.04 0 0.3 0.04 0 0.32 0.04 0 0.34 0.04 0 0.36 0.04 0 0.38 0.04 0 0.4 0.04 0 0.42 0.04 0 0.44 0.04 0 0.46 0.04 0 0.48 0.04 0 0.5 0.04 0 0.52 0.04 0 0.54 0.04 0 0.56 0.04 0 0.58 0.04 0 0.6 0.04 0 0.62 0.04 0 0.64 0.04 0 0.66 0.04 0 0.68 0.04 0 0.7 0.04 0 0.72 0.04 0 0.74 0.04 0 0.76 0.04 0 0.78 0.04 0 0.8 0.04 0 0.82 0.04 0 0.84 0.04 0 0.86 0.04 0 0.88 0.04 0 0.9 0.04 0 0.92 0.04 0 0.94 0.04 0 0.96 0.04 0 0.98 0.04 0 1 0.04 0 0 0.06 0 0.02 0.06 0 0.04 0.06 0 0.06 0.06 0 0.08 0.06 0 0.1 0.06 0 0.12 0.06 0 0.14 0.06 0 0.16 0.06 0 0.18 0.06 0 0.2 0.06 0 0.22 0.06 0 0.24 0.06 0 0.26 0.06 0 0.28 0.06 0 0.3 0.06 0 0.32 0.06 0 0.34 0.06 0 0.36 0.06 0 0.38 0.06 0 0.4 0.06 0 0.42 0.06 0 0.44 0.06 0 0.46 0.06 0 0.48 0.06 0 0.5 0.06 0 0.52 0.06 0 0.54 0.06 0 0.56 0.06 0 0.58 0.06 0 0.6 0.06 0 0.62 0.06 0 0.64 0.06 0 0.66 0.06 0 0.68 0.06 0 0.7 0.06 0 0.72 0.06 0 0.74 0.06 0 0.76 0.06 0 0.78 0.06 0 0.8 0.06 0 0.82 0.06 0 0.84 0.06 0 0.86 0.06 0 0.88 0.06 0 0.9 0.06 0 0.92 0.06 0 0.94 0.06 0 0.96 0.06 0 0.98 0.06 0 1 0.06 0 0 0.08 0 0.02 0.08 0 0.04 0.08 0 0.06 0.08 0 0.08 0.08 0 0.1 0.08 0 0.12 0.08 0 0.14 0.08 0 0.16 0.08 0 0.18 0.08 0 0.2 0.08 0 0.22 0.08 0 0.24 0.08 0 0.26 0.08 0 0.28 0.08 0 0.3 0.08 0 0.32 0.08 0 0.34 0.08 0 0.36 0.08 0 0.38 0.08 0 0.4 0.08 0 0.42 0.08 0 0.44 0.08 0 0.46 0.08 0 0.48 0.08 0 0.5 0.08 0 0.52 0.08 0 0.54 0.08 0 0.56 0.08 0 0.58 0.08 0 0.6 0.08 0 0.62 0.08 0 0.64 0.08 0 0.66 0.08 0 0.68 0.08 0 0.7 0.08 0 0.72 0.08 0 0.74 0.08 0 0.76 0.08 0 0.78 0.08 0 0.8 0.08 0 0.82 0.08 0 0.84 0.08 0 0.86 0.08 0 0.88 0.08 0 0.9 0.08 0 0.92 0.08 0 0.94 0.08 0 0.96 0.08 0 0.98 0.08 0 1 0.08 0 0 0.1 0 0.02 0.1 0 0.04 0.1 0 0.06 0.1 0 0.08 0.1 0 0.1 0.1 0 0.12 0.1 0 0.14 0.1 0 0.16 0.1 0 0.18 0.1 0 0.2 0.1 0 0.22 0.1 0 0.24 0.1 0 0.26 0.1 0 0.28 0.1 0 0.3 0.1 0 0.32 0.1 0 0.34 0.1 0 0.36 0.1 0 0.38 0.1 0 0.4 0.1 0 0.42 0.1 0 0.44 0.1 0 0.46 0.1 0 0.48 0.1 0 0.5 0.1 0 0.52 0.1 0 0.54 0.1 0 0.56 0.1 0 0.58 0.1 0 0.6 0.1 0 0.62 0.1 0 0.64 0.1 0 0.66 0.1 0 0.68 0.1 0 0.7 0.1 0 0.72 0.1 0 0.74 0.1 0 0.76 0.1 0 0.78 0.1 0 0.8 0.1 0 0.82 0.1 0 0.84 0.1 0 0.86 0.1 0 0.88 0.1 0 0.9 0.1 0 0.92 0.1 0 0.94 0.1 0 0.96 0.1 0 0.98 0.1 0 1 0.1 0 0 0.12 0 0.02 0.12 0 0.04 0.12 0 0.06 0.12 0 0.08 0.12 0 0.1 0.12 0 0.12 0.12 0 0.14 0.12 0 0.16 0.12 0 0.18 0.12 0 0.2 0.12 0 0.22 0.12 0 0.24 0.12 0 0.26 0.12 0 0.28 0.12 0 0.3 0.12 0 0.32 0.12 0 0.34 0.12 0 0.36 0.12 0 0.38 0.12 0 0.4 0.12 0 0.42 0.12 0 0.44 0.12 0 0.46 0.12 0 0.48 0.12 0 0.5 0.12 0 0.52 0.12 0 0.54 0.12 0 0.56 0.12 0 0.58 0.12 0 0.6 0.12 0 0.62 0.12 0 0.64 0.12 0 0.66 0.12 0 0.68 0.12 0 0.7 0.12 0 0.72 0.12 0 0.74 0.12 0 0.76 0.12 0 0.78 0.12 0 0.8 0.12 0 0.82 0.12 0 0.84 0.12 0 0.86 0.12 0 0.88 0.12 0 0.9 0.12 0 0.92 0.12 0 0.94 0.12 0 0.96 0.12 0 0.98 0.12 0 1 0.12 0 0 0.14 0 0.02 0.14 0 0.04 0.14 0 0.06 0.14 0 0.08 0.14 0 0.1 0.14 0 0.12 0.14 0 0.14 0.14 0 0.16 0.14 0 0.18 0.14 0 0.2 0.14 0 0.22 0.14 0 0.24 0.14 0 0.26 0.14 0 0.28 0.14 0 0.3 0.14 0 0.32 0.14 0 0.34 0.14 0 0.36 0.14 0 0.38 0.14 0 0.4 0.14 0 0.42 0.14 0 0.44 0.14 0 0.46 0.14 0 0.48 0.14 0 0.5 0.14 0 0.52 0.14 0 0.54 0.14 0 0.56 0.14 0 0.58 0.14 0 0.6 0.14 0 0.62 0.14 0 0.64 0.14 0 0.66 0.14 0 0.68 0.14 0 0.7 0.14 0 0.72 0.14 0 0.74 0.14 0 0.76 0.14 0 0.78 0.14 0 0.8 0.14 0 0.82 0.14 0 0.84 0.14 0 0.86 0.14 0 0.88 0.14 0 0.9 0.14 0 0.92 0.14 0 0.94 0.14 0 0.96 0.14 0 0.98 0.14 0 1 0.14 0 0 0.16 0 0.02 0.16 0 0.04 0.16 0 0.06 0.16 0 0.08 0.16 0 0.1 0.16 0 0.12 0.16 0 0.14 0.16 0 0.16 0.16 0 0.18 0.16 0 0.2 0.16 0 0.22 0.16 0 0.24 0.16 0 0.26 0.16 0 0.28 0.16 0 0.3 0.16 0 0.32 0.16 0 0.34 0.16 0 0.36 0.16 0 0.38 0.16 0 0.4 0.16 0 0.42 0.16 0 0.44 0.16 0 0.46 0.16 0 0.48 0.16 0 0.5 0.16 0 0.52 0.16 0 0.54 0.16 0 0.56 0.16 0 0.58 0.16 0 0.6 0.16 0 0.62 0.16 0 0.64 0.16 0 0.66 0.16 0 0.68 0.16 0 0.7 0.16 0 0.72 0.16 0 0.74 0.16 0 0.76 0.16 0 0.78 0.16 0 0.8 0.16 0 0.82 0.16 0 0.84 0.16 0 0.86 0.16 0 0.88 0.16 0 0.9 0.16 0 0.92 0.16 0 0.94 0.16 0 0.96 0.16 0 0.98 0.16 0 1 0.16 0 0 0.18 0 0.02 0.18 0 0.04 0.18 0 0.06 0.18 0 0.08 0.18 0 0.1 0.18 0 0.12 0.18 0 0.14 0.18 0 0.16 0.18 0 0.18 0.18 0 0.2 0.18 0 0.22 0.18 0 0.24 0.18 0 0.26 0.18 0 0.28 0.18 0 0.3 0.18 0 0.32 0.18 0 0.34 0.18 0 0.36 0.18 0 0.38 0.18 0 0.4 0.18 0 0.42 0.18 0 0.44 0.18 0 0.46 0.18 0 0.48 0.18 0 0.5 0.18 0 0.52 0.18 0 0.54 0.18 0 0.56 0.18 0 0.58 0.18 0 0.6 0.18 0 0.62 0.18 0 0.64 0.18 0 0.66 0.18 0 0.68 0.18 0 0.7 0.18 0 0.72 0.18 0 0.74 0.18 0 0.76 0.18 0 0.78 0.18 0 0.8 0.18 0 0.82 0.18 0 0.84 0.18 0 0.86 0.18 0 0.88 0.18 0 0.9 0.18 0 0.92 0.18 0 0.94 0.18 0 0.96 0.18 0 0.98 0.18 0 1 0.18 0 0 0.2 0 0.02 0.2 0 0.04 0.2 0 0.06 0.2 0 0.08 0.2 0 0.1 0.2 0 0.12 0.2 0 0.14 0.2 0 0.16 0.2 0 0.18 0.2 0 0.2 0.2 0 0.22 0.2 0 0.24 0.2 0 0.26 0.2 0 0.28 0.2 0 0.3 0.2 0 0.32 0.2 0 0.34 0.2 0 0.36 0.2 0 0.38 0.2 0 0.4 0.2 0 0.42 0.2 0 0.44 0.2 0 0.46 0.2 0 0.48 0.2 0 0.5 0.2 0 0.52 0.2 0 0.54 0.2 0 0.56 0.2 0 0.58 0.2 0 0.6 0.2 0 0.62 0.2 0 0.64 0.2 0 0.66 0.2 0 0.68 0.2 0 0.7 0.2 0 0.72 0.2 0 0.74 0.2 0 0.76 0.2 0 0.78 0.2 0 0.8 0.2 0 0.82 0.2 0 0.84 0.2 0 0.86 0.2 0 0.88 0.2 0 0.9 0.2 0 0.92 0.2 0 0.94 0.2 0 0.96 0.2 0 0.98 0.2 0 1 0.2 0 0 0.22 0 0.02 0.22 0 0.04 0.22 0 0.06 0.22 0 0.08 0.22 0 0.1 0.22 0 0.12 0.22 0 0.14 0.22 0 0.16 0.22 0 0.18 0.22 0 0.2 0.22 0 0.22 0.22 0 0.24 0.22 0 0.26 0.22 0 0.28 0.22 0 0.3 0.22 0 0.32 0.22 0 0.34 0.22 0 0.36 0.22 0 0.38 0.22 0 0.4 0.22 0 0.42 0.22 0 0.44 0.22 0 0.46 0.22 0 0.48 0.22 0 0.5 0.22 0 0.52 0.22 0 0.54 0.22 0 0.56 0.22 0 0.58 0.22 0 0.6 0.22 0 0.62 0.22 0 0.64 0.22 0 0.66 0.22 0 0.68 0.22 0 0.7 0.22 0 0.72 0.22 0 0.74 0.22 0 0.76 0.22 0 0.78 0.22 0 0.8 0.22 0 0.82 0.22 0 0.84 0.22 0 0.86 0.22 0 0.88 0.22 0 0.9 0.22 0 0.92 0.22 0 0.94 0.22 0 0.96 0.22 0 0.98 0.22 0 1 0.22 0 0 0.24 0 0.02 0.24 0 0.04 0.24 0 0.06 0.24 0 0.08 0.24 0 0.1 0.24 0 0.12 0.24 0 0.14 0.24 0 0.16 0.24 0 0.18 0.24 0 0.2 0.24 0 0.22 0.24 0 0.24 0.24 0 0.26 0.24 0 0.28 0.24 0 0.3 0.24 0 0.32 0.24 0 0.34 0.24 0 0.36 0.24 0 0.38 0.24 0 0.4 0.24 0 0.42 0.24 0 0.44 0.24 0 0.46 0.24 0 0.48 0.24 0 0.5 0.24 0 0.52 0.24 0 0.54 0.24 0 0.56 0.24 0 0.58 0.24 0 0.6 0.24 0 0.62 0.24 0 0.64 0.24 0 0.66 0.24 0 0.68 0.24 0 0.7 0.24 0 0.72 0.24 0 0.74 0.24 0 0.76 0.24 0 0.78 0.24 0 0.8 0.24 0 0.82 0.24 0 0.84 0.24 0 0.86 0.24 0 0.88 0.24 0 0.9 0.24 0 0.92 0.24 0 0.94 0.24 0 0.96 0.24 0 0.98 0.24 0 1 0.24 0 0 0.26 0 0.02 0.26 0 0.04 0.26 0 0.06 0.26 0 0.08 0.26 0 0.1 0.26 0 0.12 0.26 0 0.14 0.26 0 0.16 0.26 0 0.18 0.26 0 0.2 0.26 0 0.22 0.26 0 0.24 0.26 0 0.26 0.26 0 0.28 0.26 0 0.3 0.26 0 0.32 0.26 0 0.34 0.26 0 0.36 0.26 0 0.38 0.26 0 0.4 0.26 0 0.42 0.26 0 0.44 0.26 0 0.46 0.26 0 0.48 0.26 0 0.5 0.26 0 0.52 0.26 0 0.54 0.26 0 0.56 0.26 0 0.58 0.26 0 0.6 0.26 0 0.62 0.26 0 0.64 0.26 0 0.66 0.26 0 0.68 0.26 0 0.7 0.26 0 0.72 0.26 0 0.74 0.26 0 0.76 0.26 0 0.78 0.26 0 0.8 0.26 0 0.82 0.26 0 0.84 0.26 0 0.86 0.26 0 0.88 0.26 0 0.9 0.26 0 0.92 0.26 0 0.94 0.26 0 0.96 0.26 0 0.98 0.26 0 1 0.26 0 0 0.28 0 0.02 0.28 0 0.04 0.28 0 0.06 0.28 0 0.08 0.28 0 0.1 0.28 0 0.12 0.28 0 0.14 0.28 0 0.16 0.28 0 0.18 0.28 0 0.2 0.28 0 0.22 0.28 0 0.24 0.28 0 0.26 0.28 0 0.28 0.28 0 0.3 0.28 0 0.32 0.28 0 0.34 0.28 0 0.36 0.28 0 0.38 0.28 0 0.4 0.28 0 0.42 0.28 0 0.44 0.28 0 0.46 0.28 0 0.48 0.28 0 0.5 0.28 0 0.52 0.28 0 0.54 0.28 0 0.56 0.28 0 0.58 0.28 0 0.6 0.28 0 0.62 0.28 0 0.64 0.28 0 0.66 0.28 0 0.68 0.28 0 0.7 0.28 0 0.72 0.28 0 0.74 0.28 0 0.76 0.28 0 0.78 0.28 0 0.8 0.28 0 0.82 0.28 0 0.84 0.28 0 0.86 0.28 0 0.88 0.28 0 0.9 0.28 0 0.92 0.28 0 0.94 0.28 0 0.96 0.28 0 0.98 0.28 0 1 0.28 0 0 0.3 0 0.02 0.3 0 0.04 0.3 0 0.06 0.3 0 0.08 0.3 0 0.1 0.3 0 0.12 0.3 0 0.14 0.3 0 0.16 0.3 0 0.18 0.3 0 0.2 0.3 0 0.22 0.3 0 0.24 0.3 0 0.26 0.3 0 0.28 0.3 0 0.3 0.3 0 0.32 0.3 0 0.34 0.3 0 0.36 0.3 0 0.38 0.3 0 0.4 0.3 0 0.42 0.3 0 0.44 0.3 0 0.46 0.3 0 0.48 0.3 0 0.5 0.3 0 0.52 0.3 0 0.54 0.3 0 0.56 0.3 0 0.58 0.3 0 0.6 0.3 0 0.62 0.3 0 0.64 0.3 0 0.66 0.3 0 0.68 0.3 0 0.7 0.3 0 0.72 0.3 0 0.74 0.3 0 0.76 0.3 0 0.78 0.3 0 0.8 0.3 0 0.82 0.3 0 0.84 0.3 0 0.86 0.3 0 0.88 0.3 0 0.9 0.3 0 0.92 0.3 0 0.94 0.3 0 0.96 0.3 0 0.98 0.3 0 1 0.3 0 0 0.32 0 0.02 0.32 0 0.04 0.32 0 0.06 0.32 0 0.08 0.32 0 0.1 0.32 0 0.12 0.32 0 0.14 0.32 0 0.16 0.32 0 0.18 0.32 0 0.2 0.32 0 0.22 0.32 0 0.24 0.32 0 0.26 0.32 0 0.28 0.32 0 0.3 0.32 0 0.32 0.32 0 0.34 0.32 0 0.36 0.32 0 0.38 0.32 0 0.4 0.32 0 0.42 0.32 0 0.44 0.32 0 0.46 0.32 0 0.48 0.32 0 0.5 0.32 0 0.52 0.32 0 0.54 0.32 0 0.56 0.32 0 0.58 0.32 0 0.6 0.32 0 0.62 0.32 0 0.64 0.32 0 0.66 0.32 0 0.68 0.32 0 0.7 0.32 0 0.72 0.32 0 0.74 0.32 0 0.76 0.32 0 0.78 0.32 0 0.8 0.32 0 0.82 0.32 0 0.84 0.32 0 0.86 0.32 0 0.88 0.32 0 0.9 0.32 0 0.92 0.32 0 0.94 0.
[...]
			<PointData Scalars="VitesseX">
				<DataArray Name="VitesseX" type="Float32" format="ascii">
 0 0 0 0 0 0 0 0 0 0 0 0 0 0 0 0 0 0 0 0 0 0 0 0 0 0 0 0 0 0 0 0 0 0 0 0 0 0 0 0 0 0 0 0 0 0 0 0 0 0 -0 0 -0.000411342 -0.001567 -0.00339056 -0.00585397 -0.00892021 -0.012547 -0.0166922 -0.0213177 -0.0263684 -0.031713 -0.0371896 -0.0427027 -0.0482009 -0.0536306 -0.058924 -0.0640309 -0.0689312 -0.0735234 -0.0776526 -0.12568 -0.135778 -0.200692 -0.0588712 -0.0852789 -0.0906312 -0.0926397 -0.092522 -0.0911964 -0.0890717 -0.0854544 -0.081711 -0.0779299 -0.0731339 -0.0671507 -0.0610228 -0.0552547 -0.0487296 -0.0439278 -0.0381808 -0.0342093 -0.0282237 -0.0227726 -0.0182966 -0.0133825 -0.00935989 -0.00569421 -0.00322505 -0.00165417 -0.000385619 -5.00191e-27 0 -0.000853417 -0.00321519 -0.00676595 -0.0114662 -0.018031 -0.0253726 -0.0332207 -0.0426474 -0.0663756 -0.0791886 -0.0739674 -0.0848731 -0.0957533 -0.106506 -0.116984 -0.12707 -0.136647 -0.145323 -0.152559 -0.222122 -2.67468 -0.148045 -0.168262 -0.174897 -0.177822 -0.178913 -0.177449 -0.174739 -0.169876 -0.163808 -0.157269 -0.149782 -0.140441 -0.129494 -0.118047 -0.107014 -0.0946983 -0.0846648 -0.073753 -0.0640702 -0.0531348 -0.0429602 -0.0340975 -0.0251605 -0.0176532 -0.0109413 -0.00621381 -0.00335154 -0.000724719 -8.69078e-27 0 -0.00122266 -0.00467136 -0.01015 -0.0176001 -0.0268378 -0.037618 -0.049675 -0.0625766 -0.0755539 -0.0903528 -0.10983 -0.125806 -0.14175 -0.157471 -0.172717 -0.187161 -0.244832 -0.273254 -0.0879562 -0.204757 -0.231766 -0.246685 -0.255677 -0.260457 -0.262672 -0.262856 -0.260258 -0.255246 -0.24823 -0.239516 -0.229456 -0.218088 -0.204812 -0.189727 -0.173438 -0.157211 -0.139217 -0.12422 -0.108227 -0.0927051 -0.0771691 -0.0624465 -0.0490352 -0.0365378 -0.0256697 -0.0161817 -0.00919092 -0.00427221 -0.00103247 -1.22463e-26 0 -0.00155437 -0.00594678 -0.012972 -0.0228777 -0.0354405 -0.0497837 -0.0655434 -0.0821414 -0.0989877 -0.148296 -0.170729 -0.202934 -0.183702 -0.208502 -0.228428 -0.248074 -0.259904 1.12304 -0.6376 -0.277603 -0.314751 -0.328135 -0.336928 -0.341674 -0.343453 -0.342631 -0.338574 -0.332102 -0.322252 -0.309859 -0.296248 -0.281019 -0.263522 -0.245848 -0.228533 -0.204666 -0.181557 -0.161862 -0.14089 -0.120149 -0.0999808 -0.080983 -0.0628808 -0.0472608 -0.0332618 -0.0211664 -0.0123388 -0.00548192 -0.00133151 -1.5613e-26 0 -0.00189036 -0.00711737 -0.0189214 -0.0322661 -0.0502845 -0.0539412 -0.0798375 -0.101193 -0.124091 -0.148021 -0.173022 -0.19809 -0.393648 0.122178 -0.279124 -0.30186 -0.377093 -1.5445 -0.351093 -0.377622 -0.392924 -0.404469 -0.412752 -0.41733 -0.419102 -0.417211 -0.411656 -0.402983 -0.390196 -0.375465 -0.359564 -0.34134 -0.320711 -0.301959 -0.27702 -0.246926 -0.220109 -0.195736 -0.171029 -0.145463 -0.121173 -0.0981785 -0.0750604 -0.0568662 -0.0403222 -0.0361465 -0.0148553 -0.00661893 -0.00162816 -1.87385e-26 0 -0.00226793 -0.00861437 -0.0186674 -0.0322359 -0.0491031 -0.0692445 -0.0921165 -0.117066 -0.143722 -0.170926 -0.200706 -0.230204 -0.380375 -0.288198 -0.327229 -0.35483 -0.379882 -0.403818 -0.425127 -0.444204 -0.458502 -0.468025 -0.475568 -0.483363 -0.488138 -0.485265 -0.478416 -0.467317 -0.453654 -0.437011 -0.418119 -0.396786 -0.387128 -0.344951 -0.340115 -0.285547 -0.257432 -0.226661 -0.198171 -0.168437 -0.140419 -0.113767 -0.0965766 -0.0662583 -0.0465412 -0.0251838 -0.0170754 -0.00763228 -0.00191363 -2.15741e-26 0 -0.00255664 -0.00972823 -0.0210179 -0.0363354 -0.0554374 -0.0779705 -0.103405 -0.131152 -0.160321 -0.216068 -3.16535 -0.264621 -0.299462 -0.331817 -0.34882 -0.392516 -0.428 -0.454357 -0.478469 -0.495522 -0.468708 -0.516286 -0.540702 -0.54766 -0.54888 -0.546532 -0.538672 -0.52863 -0.515007 -0.497984 -0.477588 -0.452839 -0.4209 -0.44481 -0.270185 -0.323746 -0.288485 -0.25549 -0.221968 -0.188711 -0.157175 -0.126662 -0.125752 -0.0741344 -0.0522342 -0.0331668 -0.0190533 -0.00863069 -0.00217016 -2.40757e-26 0 -0.00281029 -0.010669 -0.0230757 -0.0398849 -0.0608587 -0.0856634 -0.113853 -0.144948 -0.17842 -0.213765 -0.251024 -0.289128 -0.325833 -0.361085 -0.457368 -0.382916 -0.470924 -0.502663 -0.528287 -0.550912 -0.568799 -0.582804 -0.593417 -0.600092 -0.601333 -0.598343 -0.590872 -0.579545 -0.564053 -0.544096 -0.520128 -0.493058 -0.462684 -0.44118 0.190025 -0.521072 -0.373787 -0.279026 -0.241811 -0.205751 -0.171579 -0.138306 -0.101661 -0.0809695 -0.0571926 -0.037035 -0.0212469 -0.00948475 -0.00237325 -2.62043e-26 0 -0.00299735 -0.0114352 -0.0247494 -0.0427836 -0.0652734 -0.0917902 -0.121826 -0.155176 -0.191251 -0.228663 -0.293916 -0.42683 -0.346998 -0.419381 -0.420663 -0.469667 -0.504429 -0.535885 -0.565025 -0.589814 -0.609233 -0.624664 -0.62713 -0.641239 -0.644507 -0.641318 -0.632376 -0.618763 -0.600639 -0.578336 -0.552269 -0.523147 -0.491024 -0.454409 -0.433577 -0.391749 -1.14938 -0.297761 -0.258411 -0.219793 -0.183138 -0.148051 -0.114666 -0.0865021 -0.06122 -0.0397139 -0.0236154 -0.0101225 -0.00253828 -2.79269e-26 0 -0.00314749 -0.0120301 -0.0260217 -0.0449663 -0.0686014 -0.0964027 -0.127651 -0.162367 -0.200302 -0.25516 -0.298614 -0.339865 -0.370554 -0.41233 -0.453572 -0.491828 -0.528153 -0.561439 -0.592353 -37.6306 -0.637118 -0.656258 -0.669395 -0.675949 -0.677434 -0.673681 -0.664052 -0.649609 -0.630385 -0.6067 -0.578928 -0.54759 -0.513116 -0.475669 -0.435999 -0.395788 -0.360647 -0.313291 -0.270341 -0.230737 -0.192068 -0.155714 -0.121962 -0.0926388 -0.0643435 -0.0416595 -0.0207733 -0.0106202 -0.00266378 -2.92165e-26 0 -0.0032635 -0.012482 -0.0271166 -0.0469987 -0.0717178 -0.100769 -0.133705 -0.170133 -0.209388 -0.251287 -0.294515 -0.338438 -0.381731 -0.424378 -0.466669 -0.506942 -0.544825 -0.580139 -0.611358 -0.639892 -0.661787 -0.679329 -0.692009 -0.698494 -0.699677 -0.695707 -0.685697 -0.67075 -0.650847 -0.626327 -0.597584 -0.565108 -0.529424 -0.490775 -0.450078 -0.408245 -0.36486 -0.320463 -0.279042 -0.2379 -0.198167 -0.160643 -0.125681 -0.0585013 -0.0663041 -0.0428334 -0.022776 -0.0109448 -0.00274969 -3.00531e-26 0 -0.00336217 -0.0127943 -0.0276527 -0.0477282 -0.0727151 -0.102205 -0.135717 -0.172737 -0.212649 -0.254341 -0.297868 -0.34292 -0.387014 -0.431853 -0.474734 -0.515318 -0.566998 -0.593257 -0.623962 -0.651156 -0.67392 -0.691394 -0.703828 -0.710042 -0.710881 -0.706415 -0.69585 -0.680328 -0.659807 -0.634654 -0.605291 -0.572154 -0.535791 -0.496715 -0.45552 -0.412987 -0.369395 -0.325129 -0.281108 -0.240789 -0.200697 -0.162345 -0.126492 -0.0853277 -0.0755485 -0.0435096 -0.0246043 -0.011096 -0.00278896 -3.04235e-26 0 -0.00337713 -0.0128188 -0.0276515 -0.0476837 -0.0726182 -0.102064 -0.135544 -0.172522 -0.212401 -0.254497 -0.298148 -0.343114 -0.387097 -0.431395 -0.474676 -0.52707 -0.560932 -0.592321 -0.62377 -0.651397 -0.674068 -0.691539 -0.703882 -0.710049 -0.71089 -0.706403 -0.695532 -0.680237 -0.659686 -0.634438 -0.605205 -0.571982 -0.535583 -0.496583 -0.455395 -0.412791 -0.369293 -0.325413 -0.281931 -0.2394 -0.197794 -0.162316 -0.126348 -0.0923134 -0.0423677 -0.0435585 -0.0247578 -0.0110891 -0.00278747 -3.03221e-26 0 -0.00332849 -0.0126373 -0.0272706 -0.0470361 -0.0716527 -0.100748 -0.133862 -0.17044 -0.209835 -0.251453 -0.294519 -0.339028 -0.382786 -0.426364 -0.483166 -0.516355 -0.550023 -0.584687 -0.616326 -0.643444 -0.665389 -0.682172 -0.693853 -0.69942 -0.699714 -0.694815 -0.684774 -0.668309 -0.647841 -0.623335 -0.593565 -0.560934 -0.525103 -0.487335 -0.446526 -0.404735 -0.362072 -0.319206 -0.277016 -0.235512 -0.194582 -0.157043 -0.123932 -0.0926677 -0.0607439 -0.0427103 -0.0243028 -0.0108312 -0.00272181 -2.97503e-26 0 -0.0032268 -0.0122424 -0.0264116 -0.0455598 -0.0694201 -0.0976331 -0.129756 -0.165254 -0.203489 -0.243787 -0.285481 -0.32876 -0.371792 -0.413577 -0.464604 -0.497395 -0.533379 -0.567468 -0.597949 -0.623717 -0.644826 -0.66105 -0.672338 -0.677418 -0.67765 -0.670334 -1.67132 1.33493 2.37087 -243.029 -82.8141 -0.521901 -0.504992 -0.468202 -0.430716 -0.390991 -0.349626 -0.308111 -0.267161 -0.227335 -0.188313 -0.146365 -0.256441 -0.0898043 -0.0628691 -0.0412215 -0.0234253 -0.0104126 -0.00261816 -2.87169e-26 0 -0.00307306 -0.0116555 -0.0251392 -0.0433618 -0.0660744 -0.0929406 -0.123538 -0.15738 -0.19399 -0.232725 -0.272576 -0.313945 -0.355299 -0.405909 -0.438261 -0.474481 -0.509504 -0.541971 -0.570547 -0.594834 -0.614948 -0.630612 -0.641946 -0.678725 -0.644331 -0.637592 -0.627829 -0.611718 -0.594212 -0.5711 -0.542091 -0.471357 -0.481039 -29.839 -0.404826 -0.366445 -0.331681 -0.292377 -0.253275 -0.215485 -0.179146 -0.144519 -0.108227 -0.0853735 -0.0603287 -0.0392522 -0.0220855 -0.00986317 -0.00247969 -2.72378e-26 0 -0.00285998 -0.0108733 -0.0234784 -0.0405228 -0.0617793 -0.086941 -0.115619 -0.147363 -0.181695 -0.218188 -0.255422 -0.294197 -0.332379 -0.3766 -0.410228 -0.444779 -0.477685 -0.507827 -0.534255 -0.556861 -0.575925 -0.592438 -0.625199 -0.625171 -0.600282 -0.596675 -0.586971 -0.571499 -0.553827 -0.531977 -0.505152 -0.47149 -0.430796 -0.417138 -0.37892 -24.0984 -0.301607 -0.271266 -0.235338 -0.200124 -0.1666 -0.134756 -0.104361 -0.0798941 -0.0561418 -0.0330981 -0.020496 -0.00918337 -0.00230855 -2.53359e-26 0 -0.00258659 -0.00989979 -0.0214566 -0.0371117 -0.0566556 -0.079806 -0.106211 -0.135448 -0.167091 -0.200779 -0.23534 -0.270848 -0.32665 -0.342515 -0.375501 -0.407948 -0.438371 -0.465673 -0.4897 -0.51065 -0.528747 -0.604021 -0.569209 -0.55467 -0.54902 -0.543909 -0.535426 -0.518803 -0.502874 -0.482963 -0.459184 -0.428437 -0.397826 -0.34768 -0.346038 -0.311184 -24.5398 -0.23928 -0.212507 -0.181353 -0.151064 -0.122395 -0.0955047 -0.0668493 -0.0506527 -0.0304271 -0.018545 -0.00837519 -0.0021051 -2.30403e-26 0 -0.00228002 -0.00876933 -0.0190668 -0.0330366 -0.0504917 -0.0711857 -0.094813 -0.120989 -0.149314 -0.179711 -0.210338 -0.242563 -0.285271 -0.306847 -0.336199 -0.365161 -0.392285 -0.416382 -0.437655 -0.456613 -0.656267 -0.593391 -0.500145 -0.490384 -0.488652 -0.483072 -0.475135 -0.455635 -0.444615 -0.426652 -0.404641 -0.381111 -0.358165 -0.291364 -0.283564 -0.275119 -18.2734 -0.0663233 -0.184136 -0.15938 -0.133028 -0.107908 -0.084298 -0.0535343 -0.0444999 -0.0286165 -0.0163727 -0.00742995 -0.00186751 -2.03859e-26 0 -0.00194134 -0.00751379 -0.016437 -0.0286048 -0.04385 -0.0619487 -0.0826244 -0.105541 -0.130319 -0.156691 -0.183901 -0.211135 -0.242831 -0.266471 -0.292141 -0.317014 -0.34016 -0.360915 -0.379248 -0.394482 -0.42473 -0.414281 -0.422372 -0.422889 -0.420115 -0.414642 -0.406608 -0.391891 -0.380715 -0.36495 -0.345156 -0.317756 -0.307855 -0.282843 -0.232362 -0.23114 -0.0155373 0.232358 -0.139592 -0.134606 -0.112868 -0.0916891 -0.0717499 -0.0533284 -0.0388114 -0.0244611 -0.0140181 -0.00636957 -0.00160053 -1.74125e-26 0 -0.00157737 -0.00613707 -0.013503 -0.0235939 -0.0362623 -0.0513186 -0.0685382 -0.0876612 -0.108354 -0.13073 -0.153232 -0.176584 -0.200636 -0.221685 -0.24326 -0.263868 -0.282827 -0.29994 -0.315373 -0.328998 -0.331638 -0.341706 -0.346965 -0.366416 -0.343296 -0.339148 -0.32957 -0.32122 -0.310096 -0.297047 -0.280205 -0.241555 -0.237076 -0.230958 -0.206594 -0.186854 -0.168458 -19.6128 -0.0535894 -0.106753 -0.0907621 -0.0739192 -0.058011 -0.0435231 -0.0282991 -0.020008 -0.0114024 -0.00507347 -0.0013154 -1.41642e-26 0 -0.00120884 -0.0047396 -0.0105079 -0.0184785 -0.0285459 -0.0405526 -0.0542989 -0.0695535 -0.0860531 -0.10362 -0.121783 -0.139621 -0.156564 -0.173537 -0.190612 -0.206693 -0.221204 -0.234284 -0.246398 -0.266781 -0.25933 -0.264164 -0.267428 -0.273781 -0.28247 -0.257798 -0.251959 -0.243548 -0.232598 -0.222475 -0.208204 -0.196893 -0.152952 -0.165188 -0.161135 -0.138718 -0.123819 -1.34022 0.425894 -0.0684915 -0.0671415 -0.0549281 -0.0432264 -0.0324936 -0.0168074 -0.0150862 -0.00857028 -0.00483935 -0.000978209 -1.06904e-26 0 -0.000823262 -0.00325882 -0.00730339 -0.0129542 -0.0201371 -0.0287282 -0.038576 -0.0495173 -0.0613611 -0.0742799 -0.0872253 -0.100851 -0.110988 -0.123019 -0.135164 -0.146416 -0.156246 -0.164952 -0.172931 -0.182832 -0.180311 -0.182715 -0.18397 -0.180235 -0.176798 -0.17328 -0.168465 -0.161554 -0.14739 -0.137744 -0.134456 -0.134814 -0.11666 -0.100383 -0.0962484 -0.0859653 -0.0695503 -0.0684019 -16.6656 -0.0439987 -0.0428092 -0.0350516 -0.0277329 -0.0209351 -0.0147654 -0.0096329 -0.00549735 0.000827395 -0.000566638 -7.0505e-27 0 -0.000440761 -0.00179069 -0.00411778 -0.00745216 -0.0117741 -0.0170166 -0.0230806 -0.029831 -0.0370312 -0.0447567 -0.0524809 -0.0600291 -0.0649153 -0.0709622 -0.0778023 -0.0839882 -0.0889887 -0.093316 -0.0977022 -0.106575 -0.0985055 -0.0988788 -0.0988735 -0.0940844 -0.088812 -0.0857868 -0.0810851 -0.0698782 -0.0739624 -0.0705875 -0.0170877 -0.0568444 -0.0588756 -0.0457472 -0.0354431 -0.0199743 -0.0257084 -0.0253597 -0.0233396 -0.0208216 -0.0174583 -0.0145798 -0.0117478 -0.00903107 -0.00661117 -0.00438937 -0.00245442 -0.000904264 -0.00026957 -3.3102e-27 0 -7.23827e-05 -0.000349752 -0.000918325 -0.00185126 -0.00318371 -0.00489303 -0.0069104 -0.00916023 -0.0113739 -0.0139893 -0.0159839 -0.0188431 -0.0186125 -0.0181636 -0.0193544 -0.0203081 -0.0205066 -0.0202279 -0.0203421 -0.0217591 -0.016161 -0.0151211 -0.0175372 -0.00151837 0.256382 0.0179208 0.0167701 0.0188974 2.0186 0.0111894 0.0110156 -0.312236 0.0122591 0.0115413 0.0193505 0.0179217 0.0610667 0.240733 0.0191499 0.00685497 0.0085408 0.00613717 0.00443814 0.00307204 0.00190693 0.000906142 0.000588704 0.00018501 2.88687e-05 2.62228e-28 0 0.000228252 0.000981653 0.00214094 0.00360126 0.00527366 0.0071091 0.00911653 0.0113226 0.0137727 0.0163822 0.0193895 0.0226307 0.0272332 0.0342459 0.039126 0.0436 0.048168 0.0532054 0.0579707 0.0610866 -0.0567315 0.0757974 0.0765628 0.0839661 0.0947122 0.096848 0.0979288 0.100352 0.103926 0.1039 0.102701 0.0984149 0.0922037 0.100747 0.0874616 0.072337 0.0681382 0.0602352 0.0525917 0.0436945 0.0346385 0.0267991 0.0205835 0.0151474 0.0104676 0.00602226 0.00362335 0.0015832 0.000375182 3.97403e-27 0 8.77769e-05 0.00194881 0.00492123 0.00874497 0.0134285 0.0188069 0.0248482 0.031537 0.0388782 0.0467104 0.0553443 0.0638465 0.0740856 0.0848868 0.0966933 0.106603 0.116054 0.125516 0.134668 0.142709 0.147134 -45.654 0.154293 0.170437 0.190355 0.182493 0.182272 0.181107 0.179543 0.17762 0.174393 0.168966 0.160034 0.150196 0.138962 0.127098 0.114487 0.100849 0.0872703 0.0738302 0.0612608 0.047107 0.0364567 0.0270214 0.0188576 0.0117454 0.00640388 0.00298001 0.000722498 7.70556e-27 0 0.00213044 0.000853795 0.00658832 0.0134291 0.0209964 0.0298895 0.0399159 0.0510088 0.0630908 0.0761154 0.0895882 0.10372 0.119386 0.135609 0.155672 0.167279 0.181662 0.195321 0.208557 0.220755 0.230982 0.239993 0.249141 0.258498 0.261813 0.264661 0.26477 0.262204 0.258006 0.253364 0.246075 0.23627 0.222172 0.206249 0.1927 0.177505 0.159342 0.14067 0.12211 0.103608 0.0876109 0.0667355 0.0517976 0.0385168 0.0270031 0.0205176 0.00983295 0.00433002 0.0010582 1.1331e-26 0 0.00123006 0.0100367 0.00395474 0.0145288 0.0277182 0.0400067 0.0539887 0.0694092 0.0860428 0.104173 0.122647 0.142065 0.162835 0.184205 0.119684 0.227329 0.243996 0.262062 0.278736 0.293905 0.307623 0.319278 0.328009 0.337579 0.342668 0.344425 0.343847 0.341004 0.340157 0.334253 0.318015 0.300599 0.296976 0.276988 0.250228 0.224549 0.200517 0.176507 0.153522 0.130304 0.111279 0.0853524 0.0663453 0.0494324 0.0347629 0.0254397 0.0160813 0.00557032 0.0013783 1.47783e-26 0 0.00159134 0.00577775 0.0141533 -0.00174523 0.0310048 0.0487756 0.0666275 0.0864526 0.107089 0.130549 0.153358 0.178039 0.203052 0.228884 0.611496 0.192067 0.302423 0.324196 0.343294 0.361426 0.378112 0.391086 0.406863 0.413594 0.417817 0.419528 0.418664 0.421285 0.413042 0.400396 0.382581 0.361777 0.34557 0.320815 0.291951 0.269015 0.23995 0.211493 0.184072 0.156395 0.132638 0.102688 0.0798794 0.0596017 0.0419971 0.0306752 0.0193192 0.00672954 0.00167843 1.80005e-26 0 0.00186984 0.00756659 0.0160807 0.0312311 0.0262208 0.0525248 0.0752667 0.102378 0.1257 0.15509 0.181146 0.210937 0.241078 0.270348 0.294305 0.599641 0.270011 0.374204 0.397919 0.420501 0.440179 0.455411 0.472115 0.482054 0.486795 0.507272 0.512585 0.478083 0.468481 0.455222 0.439436 0.417742 0.388579 0.360871 0.332775 0.305177 0.273873 0.242264 0.210288 0.178908 0.150513 0.118422 0.092185 0.0688777 0.0486209 0.0367746 0.0217561 0.00778441 0.00195465 2.094e-26 0 0.00212969 0.00852508 0.0189195 0.0330171 0.080386 0.0520815 0.0650677 0.11845 0.131238 0.177652 0.20595 0.24072 0.274578 0.307458 0.341264 0.368458 0.650577 0.433976 0.460379 0.483631 0.504485 0.508568 0.523326 0.541803 0.547587 0.549765 0.548099 0.552554 0.549656 0.507806 0.491547 0.467295 0.43087 0.407943 0.37569 0.338654 0.308026 0.270247 0.234035 0.199688 0.165997 0.132274 0.10306 0.0771047 0.0545513 0.0416167 0.0202524 0.00873007 0.00219804 2.35452e-26 0 0.00234518 0.00933774 0.0208063 0.0365849 0.0553299 0.053255 0.154922 0.133531 0.144465 0.198033 0.230128 0.267848 0.304209 0.340007 0.37597 0.411104 0.433828 0.477998 0.507016 0.532262 0.553863 0.57284 0.569214 0.578654 0.595611 0.601844 0.597372 0.588781 0.580328 0.556969 0.535372 0.510331 0.482035 0.437819 0.408084 0.373521 0.339642 0.302108 0.254182 0.216729 0.179191 0.144021 0.1123 0.0840367 0.0595655 0.0390618 0.0220732 0.00954837 0.00240036 2.57784e-26 0 0.00251604 0.0100135 0.0223319 0.0392752 0.0601469 0.0857548 0.111081 0.145036 0.180111 0.215173 0.251205 0.290775 0.328756 0.367164 0.405553 0.442739 1.2825 0.514649 0.545073 0.572032 0.594926 0.613445 0.62951 0.641116 0.611745 0.665644 0.639189 0.628716 0.618627 0.594059 0.571179 0.539604 0.513487 0.49162 0.433716 0.393788 0.354478 0.325777 0.270797 0.229483 0.190051 0.153538 0.119879 0.0897055 0.0636344 0.0429245 0.0230845 0.0102266 0.00256402 2.76183e-26 0 0.00264756 0.0105356 0.0235003 0.0412182 0.0634446 0.0889293 0.118275 0.153213 0.188496 0.227696 0.26223 0.305342 0.347062 0.388551 0.429075 0.467224 0.510184 0.542403 0.573763 0.6021 0.626121 0.644881 0.661492 0.672637 0.674872 0.683654 0.675318 0.663671 0.646855 0.626122 0.601371 0.570484 0.533481 0.654419 0.452461 0.411716 0.370529 0.32883 0.286139 0.427656 0.198507 0.160776 0.12582 0.094395 0.0682205 0.0505301 0.0240212 0.0107499 0.00270927 2.90183e-26 0 0.00273852 0.0108971 0.0243095 0.0425433 0.0657413 0.0932684 0.124298 0.159228 0.195884 0.236787 0.2746 0.313736 0.360376 0.404268 0.445694 0.48868 0.527567 0.561987 0.591899 0.618932 0.656355 0.667432 0.684331 0.694942 0.699583 0.699587 0.694034 0.683288 0.667288 0.647022 0.620894 0.589808 0.54761 0.513084 0.465397 0.425161 0.381577 0.337783 0.295889 0.26426 0.204222 0.165684 0.130027 0.0978881 0.0719499 0.0501061 0.0247801 0.0111067 0.00286025 2.99537e-26 0 0.0027882 0.011095 0.0247589 0.0434963 0.0671671 0.0951169 0.12673 0.16283 0.200426 0.242217 0.283662 0.322754 0.370937 0.414337 0.455062 0.498463 0.536252 0.571447 0.603747 0.626002 0.629255 0.680092 0.696284 0.706533 0.71083 0.710298 0.704381 0.693214 0.677128 0.656865 0.631188 0.434218 0.552774 0.520882 0.471611 0.429166 0.386108 0.341507 0.296742 0.256628 0.207264 0.16758 0.131497 0.099167 0.0691609 0.0444465 0.0256768 0.0112906 0.00288824 3.04235e-26 0 0.00278844 0.0110957 0.0247631 0.043544 0.0671615 0.0951249 0.126784 0.163058 0.19319 0.242348 0.284057 0.326172 0.372811 0.41526 0.45554 0.501125 0.537883 0.570869 0.596108 0.633572 0.652218 0.68068 0.696325 0.706605 0.710853 0.710324 0.704853 0.693335 0.677147 0.655271 0.628393 0.597918 0.550969 0.515731 0.479687 0.430104 0.384637 0.340424 0.296921 0.251907 0.207696 0.167663 0.13125 0.0990773 0.0685244 0.0442008 0.0256852 0.011258 0.00283646 3.04188e-26 0 0.00275776 0.0109881 0.0244668 0.043046 0.0662069 0.0938771 0.125232 0.162023 0.253657 0.23837 0.28163 0.323827 0.37012 0.412407 0.452238 0.501249 0.537921 0.563967 0.587005 0.626336 0.651608 0.672609 0.687194 0.69644 0.699863 0.698419 0.692223 0.679745 0.662233 0.637716 0.705554 0.575855 0.548097 0.506476 0.486689 0.424853 0.3774 0.333347 0.348173 0.244874 0.203522 0.164672 0.128965 0.0980156 0.0673207 0.0435974 0.0254554 0.0111381 0.00277138 2.99375e-26 0 0.00267228 0.0106592 0.0237128 0.0417042 0.0640533 0.090957 0.121408 0.157202 0.219247 0.229311 0.272739 0.314052 0.359031 0.399765 0.439161 0.50724 0.540006 0.565083 0.593194 0.60