<?xml version="1.0"?>
<VTKFile type="PolyData">
	<PolyData>
		<Piece NumberOfPoints="2601" NumberOfPolys="2500">
			<Points>
				<DataArray type="Float32" NumberOfComponents="3" format="ascii">
 0 0 0 0.02 0 0 0.04 0 0 0.06 0 0 0.08 0 0 0.1 0 0 0.12 0 0 0.14 0 0 0.16 0 0 0.18 0 0 0.2 0 0 0.22 0 0 0.24 0 0 0.26 0 0 0.28 0 0 0.3 0 0 0.32 0 0 0.34 0 0 0.36 0 0 0.38 0 0 0.4 0 0 0.42 0 0 0.44 0 0 0.46 0 0 0.48 0 0 0.5 0 0 0.52 0 0 0.54 0 0 0.56 0 0 0.58 0 0 0.6 0 0 0.62 0 0 0.64 0 0 0.66 0 0 0.68 0 0 0.7 0 0 0.72 0 0 0.74 0 0 0.76 0 0 0.78 0 0 0.8 0 0 0.82 0 0 0.84 0 0 0.86 0 0 0.88 0 0 0.9 0 0 0.92 0 0 0.94 0 0 0.96 0 0 0.98 0 0 1 0 0 0 0.02 0 0.02 0.02 0 0.04 0.02 0 0.06 0.02 0 0.08 0.02 0 0.1 0.02 0 0.12 0.02 0 0.14 0.02 0 0.16 0.02 0 0.18 0.02 0 0.2 0.02 0 0.22 0.02 0 0.24 0.02 0 0.26 0.02 0 0.28 0.02 0 0.3 0.02 0 0.32 0.02 0 0.34 0.02 0 0.36 0.02 0 0.38 0.02 0 0.4 0.02 0 0.42 0.02 0 0.44 0.02 0 0.46 0.02 0 0.48 0.02 0 0.5 0.02 0 0.52 0.02 0 0.54 0.02 0 0.56 0.02 0 0.58 0.02 0 0.6 0.02 0 0.62 0.02 0 0.64 0.02 0 0.66 0.02 0 0.68 0.02 0 0.7 0.02 0 0.72 0.02 0 0.74 0.02 0 0.76 0.02 0 0.78 0.02 0 0.8 0.02 0 0.82 0.02 0 0.84 0.02 0 0.86 0.02 0 0.88 0.02 0 0.9 0.02 0 0.92 0.02 0 0.94 0.02 0 0.96 0.02 0 0.98 0.02 0 1 0.02 0 0 0.04 0 0.02 0.04 0 0.04 0.04 0 0.06 0.04 0 0.08 0.04 0 0.1 0.04 0 0.12 0.04 0 0.14 0.04 0 0.16 0.04 0 0.18 0.04 0 0.2 0.04 0 0.22 0.04 0 0.24 0.04 0 0.26 0.04 0 0.28 0.04 0 0.3 0.04 0 0.32 0.04 0 0.34 0.04 0 0.36 0.04 0 0.38 0.04 0 0.4 0.04 0 0.42 0.04 0 0.44 0.04 0 0.46 0.04 0 0.48 0.04 0 0.5 0.04 0 0.52 0.04 0 0.54 0.04 0 0.56 0.04 0 0.58 0.04 0 0.6 0.04 0 0.62 0.04 0 0.64 0.04 0 0.66 0.04 0 0.68 0.04 0 0.7 0.04 0 0.72 0.04 0 0.74 0.04 0 0.76 0.04 0 0.78 0.04 0 0.8 0.04 0 0.82 0.04 0 0.84 0.04 0 0.86 0.04 0 0.88 0.04 0 0.9 0.04 0 0.92 0.04 0 0.94 0.04 0 0.96 0.04 0 0.98 0.04 0 1 0.04 0 0 0.06 0 0.02 0.06 0 0.04 0.06 0 0.06 0.06 0 0.08 0.06 0 0.1 0.06 0 0.12 0.06 0 0.14 0.06 0 0.16 0.06 0 0.18 0.06 0 0.2 0.06 0 0.22 0.06 0 0.24 0.06 0 0.26 0.06 0 0.28 0.06 0 0.3 0.06 0 0.32 0.06 0 0.34 0.06 0 0.36 0.06 0 0.38 0.06 0 0.4 0.06 0 0.42 0.06 0 0.44 0.06 0 0.46 0.06 0 0.48 0.06 0 0.5 0.06 0 0.52 0.06 0 0.54 0.06 0 0.56 0.06 0 0.58 0.06 0 0.6 0.06 0 0.62 0.06 0 0.64 0.06 0 0.66 0.06 0 0.68 0.06 0 0.7 0.06 0 0.72 0.06 0 0.74 0.06 0 0.76 0.06 0 0.78 0.06 0 0.8 0.06 0 0.82 0.06 0 0.84 0.06 0 0.86 0.06 0 0.88 0.06 0 0.9 0.06 0 0.92 0.06 0 0.94 0.06 0 0.96 0.06 0 0.98 0.06 0 1 0.06 0 0 0.08 0 0.02 0.08 0 0.04 0.08 0 0.06 0.08 0 0.08 0.08 0 0.1 0.08 0 0.12 0.08 0 0.14 0.08 0 0.16 0.08 0 0.18 0.08 0 0.2 0.08 0 0.22 0.08 0 0.24 0.08 0 0.26 0.08 0 0.28 0.08 0 0.3 0.08 0 0.32 0.08 0 0.34 0.08 0 0.36 0.08 0 0.38 0.08 0 0.4 0.08 0 0.42 0.08 0 0.44 0.08 0 0.46 0.08 0 0.48 0.08 0 0.5 0.08 0 0.52 0.08 0 0.54 0.08 0 0.56 0.08 0 0.58 0.08 0 0.6 0.08 0 0.62 0.08 0 0.64 0.08 0 0.66 0.08 0 0.68 0.08 0 0.7 0.08 0 0.72 0.08 0 0.74 0.08 0 0.76 0.08 0 0.78 0.08 0 0.8 0.08 0 0.82 0.08 0 0.84 0.08 0 0.86 0.08 0 0.88 0.08 0 0.9 0.08 0 0.92 0.08 0 0.94 0.08 0 0.96 0.08 0 0.98 0.08 0 1 0.08 0 0 0.1 0 0.02 0.1 0 0.04 0.1 0 0.06 0.1 0 0.08 0.1 0 0.1 0.1 0 0.12 0.1 0 0.14 0.1 0 0.16 0.1 0 0.18 0.1 0 0.2 0.1 0 0.22 0.1 0 0.24 0.1 0 0.26 0.1 0 0.28 0.1 0 0.3 0.1 0 0.32 0.1 0 0.34 0.1 0 0.36 0.1 0 0.38 0.1 0 0.4 0.1 0 0.42 0.1 0 0.44 0.1 0 0.46 0.1 0 0.48 0.1 0 0.5 0.1 0 0.52 0.1 0 0.54 0.1 0 0.56 0.1 0 0.58 0.1 0 0.6 0.1 0 0.62 0.1 0 0.64 0.1 0 0.66 0.1 0 0.68 0.1 0 0.7 0.1 0 0.72 0.1 0 0.74 0.1 0 0.76 0.1 0 0.78 0.1 0 0.8 0.1 0 0.82 0.1 0 0.84 0.1 0 0.86 0.1 0 0.88 0.1 0 0.9 0.1 0 0.92 0.1 0 0.94 0.1 0 0.96 0.1 0 0.98 0.1 0 1 0.1 0 0 0.12 0 0.02 0.12 0 0.04 0.12 0 0.06 0.12 0 0.08 0.12 0 0.1 0.12 0 0.12 0.12 0 0.14 0.12 0 0.16 0.12 0 0.18 0.12 0 0.2 0.12 0 0.22 0.12 0 0.24 0.12 0 0.26 0.12 0 0.28 0.12 0 0.3 0.12 0 0.32 0.12 0 0.34 0.12 0 0.36 0.12 0 0.38 0.12 0 0.4 0.12 0 0.42 0.12 0 0.44 0.12 0 0.46 0.12 0 0.48 0.12 0 0.5 0.12 0 0.52 0.12 0 0.54 0.12 0 0.56 0.12 0 0.58 0.12 0 0.6 0.12 0 0.62 0.12 0 0.64 0.12 0 0.66 0.12 0 0.68 0.12 0 0.7 0.12 0 0.72 0.12 0 0.74 0.12 0 0.76 0.12 0 0.78 0.12 0 0.8 0.12 0 0.82 0.12 0 0.84 0.12 0 0.86 0.12 0 0.88 0.12 0 0.9 0.12 0 0.92 0.12 0 0.94 0.12 0 0.96 0.12 0 0.98 0.12 0 1 0.12 0 0 0.14 0 0.02 0.14 0 0.04 0.14 0 0.06 0.14 0 0.08 0.14 0 0.1 0.14 0 0.12 0.14 0 0.14 0.14 0 0.16 0.14 0 0.18 0.14 0 0.2 0.14 0 0.22 0.14 0 0.24 0.14 0 0.26 0.14 0 0.28 0.14 0 0.3 0.14 0 0.32 0.14 0 0.34 0.14 0 0.36 0.14 0 0.38 0.14 0 0.4 0.14 0 0.42 0.14 0 0.44 0.14 0 0.46 0.14 0 0.48 0.14 0 0.5 0.14 0 0.52 0.14 0 0.54 0.14 0 0.56 0.14 0 0.58 0.14 0 0.6 0.14 0 0.62 0.14 0 0.64 0.14 0 0.66 0.14 0 0.68 0.14 0 0.7 0.14 0 0.72 0.14 0 0.74 0.14 0 0.76 0.14 0 0.78 0.14 0 0.8 0.14 0 0.82 0.14 0 0.84 0.14 0 0.86 0.14 0 0.88 0.14 0 0.9 0.14 0 0.92 0.14 0 0.94 0.14 0 0.96 0.14 0 0.98 0.14 0 1 0.14 0 0 0.16 0 0.02 0.16 0 0.04 0.16 0 0.06 0.16 0 0.08 0.16 0 0.1 0.16 0 0.12 0.16 0 0.14 0.16 0 0.16 0.16 0 0.18 0.16 0 0.2 0.16 0 0.22 0.16 0 0.24 0.16 0 0.26 0.16 0 0.28 0.16 0 0.3 0.16 0 0.32 0.16 0 0.34 0.16 0 0.36 0.16 0 0.38 0.16 0 0.4 0.16 0 0.42 0.16 0 0.44 0.16 0 0.46 0.16 0 0.48 0.16 0 0.5 0.16 0 0.52 0.16 0 0.54 0.16 0 0.56 0.16 0 0.58 0.16 0 0.6 0.16 0 0.62 0.16 0 0.64 0.16 0 0.66 0.16 0 0.68 0.16 0 0.7 0.16 0 0.72 0.16 0 0.74 0.16 0 0.76 0.16 0 0.78 0.16 0 0.8 0.16 0 0.82 0.16 0 0.84 0.16 0 0.86 0.16 0 0.88 0.16 0 0.9 0.16 0 0.92 0.16 0 0.94 0.16 0 0.96 0.16 0 0.98 0.16 0 1 0.16 0 0 0.18 0 0.02 0.18 0 0.04 0.18 0 0.06 0.18 0 0.08 0.18 0 0.1 0.18 0 0.12 0.18 0 0.14 0.18 0 0.16 0.18 0 0.18 0.18 0 0.2 0.18 0 0.22 0.18 0 0.24 0.18 0 0.26 0.18 0 0.28 0.18 0 0.3 0.18 0 0.32 0.18 0 0.34 0.18 0 0.36 0.18 0 0.38 0.18 0 0.4 0.18 0 0.42 0.18 0 0.44 0.18 0 0.46 0.18 0 0.48 0.18 0 0.5 0.18 0 0.52 0.18 0 0.54 0.18 0 0.56 0.18 0 0.58 0.18 0 0.6 0.18 0 0.62 0.18 0 0.64 0.18 0 0.66 0.18 0 0.68 0.18 0 0.7 0.18 0 0.72 0.18 0 0.74 0.18 0 0.76 0.18 0 0.78 0.18 0 0.8 0.18 0 0.82 0.18 0 0.84 0.18 0 0.86 0.18 0 0.88 0.18 0 0.9 0.18 0 0.92 0.18 0 0.94 0.18 0 0.96 0.18 0 0.98 0.18 0 1 0.18 0 0 0.2 0 0.02 0.2 0 0.04 0.2 0 0.06 0.2 0 0.08 0.2 0 0.1 0.2 0 0.12 0.2 0 0.14 0.2 0 0.16 0.2 0 0.18 0.2 0 0.2 0.2 0 0.22 0.2 0 0.24 0.2 0 0.26 0.2 0 0.28 0.2 0 0.3 0.2 0 0.32 0.2 0 0.34 0.2 0 0.36 0.2 0 0.38 0.2 0 0.4 0.2 0 0.42 0.2 0 0.44 0.2 0 0.46 0.2 0 0.48 0.2 0 0.5 0.2 0 0.52 0.2 0 0.54 0.2 0 0.56 0.2 0 0.58 0.2 0 0.6 0.2 0 0.62 0.2 0 0.64 0.2 0 0.66 0.2 0 0.68 0.2 0 0.7 0.2 0 0.72 0.2 0 0.74 0.2 0 0.76 0.2 0 0.78 0.2 0 0.8 0.2 0 0.82 0.2 0 0.84 0.2 0 0.86 0.2 0 0.88 0.2 0 0.9 0.2 0 0.92 0.2 0 0.94 0.2 0 0.96 0.2 0 0.98 0.2 0 1 0.2 0 0 0.22 0 0.02 0.22 0 0.04 0.22 0 0.06 0.22 0 0.08 0.22 0 0.1 0.22 0 0.12 0.22 0 0.14 0.22 0 0.16 0.22 0 0.18 0.22 0 0.2 0.22 0 0.22 0.22 0 0.24 0.22 0 0.26 0.22 0 0.28 0.22 0 0.3 0.22 0 0.32 0.22 0 0.34 0.22 0 0.36 0.22 0 0.38 0.22 0 0.4 0.22 0 0.42 0.22 0 0.44 0.22 0 0.46 0.22 0 0.48 0.22 0 0.5 0.22 0 0.52 0.22 0 0.54 0.22 0 0.56 0.22 0 0.58 0.22 0 0.6 0.22 0 0.62 0.22 0 0.64 0.22 0 0.66 0.22 0 0.68 0.22 0 0.7 0.22 0 0.72 0.22 0 0.74 0.22 0 0.76 0.22 0 0.78 0.22 0 0.8 0.22 0 0.82 0.22 0 0.84 0.22 0 0.86 0.22 0 0.88 0.22 0 0.9 0.22 0 0.92 0.22 0 0.94 0.22 0 0.96 0.22 0 0.98 0.22 0 1 0.22 0 0 0.24 0 0.02 0.24 0 0.04 0.24 0 0.06 0.24 0 0.08 0.24 0 0.1 0.24 0 0.12 0.24 0 0.14 0.24 0 0.16 0.24 0 0.18 0.24 0 0.2 0.24 0 0.22 0.24 0 0.24 0.24 0 0.26 0.24 0 0.28 0.24 0 0.3 0.24 0 0.32 0.24 0 0.34 0.24 0 0.36 0.24 0 0.38 0.24 0 0.4 0.24 0 0.42 0.24 0 0.44 0.24 0 0.46 0.24 0 0.48 0.24 0 0.5 0.24 0 0.52 0.24 0 0.54 0.24 0 0.56 0.24 0 0.58 0.24 0 0.6 0.24 0 0.62 0.24 0 0.64 0.24 0 0.66 0.24 0 0.68 0.24 0 0.7 0.24 0 0.72 0.24 0 0.74 0.24 0 0.76 0.24 0 0.78 0.24 0 0.8 0.24 0 0.82 0.24 0 0.84 0.24 0 0.86 0.24 0 0.88 0.24 0 0.9 0.24 0 0.92 0.24 0 0.94 0.24 0 0.96 0.24 0 0.98 0.24 0 1 0.24 0 0 0.26 0 0.02 0.26 0 0.04 0.26 0 0.06 0.26 0 0.08 0.26 0 0.1 0.26 0 0.12 0.26 0 0.14 0.26 0 0.16 0.26 0 0.18 0.26 0 0.2 0.26 0 0.22 0.26 0 0.24 0.26 0 0.26 0.26 0 0.28 0.26 0 0.3 0.26 0 0.32 0.26 0 0.34 0.26 0 0.36 0.26 0 0.38 0.26 0 0.4 0.26 0 0.42 0.26 0 0.44 0.26 0 0.46 0.26 0 0.48 0.26 0 0.5 0.26 0 0.52 0.26 0 0.54 0.26 0 0.56 0.26 0 0.58 0.26 0 0.6 0.26 0 0.62 0.26 0 0.64 0.26 0 0.66 0.26 0 0.68 0.26 0 0.7 0.26 0 0.72 0.26 0 0.74 0.26 0 0.76 0.26 0 0.78 0.26 0 0.8 0.26 0 0.82 0.26 0 0.84 0.26 0 0.86 0.26 0 0.88 0.26 0 0.9 0.26 0 0.92 0.26 0 0.94 0.26 0 0.96 0.26 0 0.98 0.26 0 1 0.26 0 0 0.28 0 0.02 0.28 0 0.04 0.28 0 0.06 0.28 0 0.08 0.28 0 0.1 0.28 0 0.12 0.28 0 0.14 0.28 0 0.16 0.28 0 0.18 0.28 0 0.2 0.28 0 0.22 0.28 0 0.24 0.28 0 0.26 0.28 0 0.28 0.28 0 0.3 0.28 0 0.32 0.28 0 0.34 0.28 0 0.36 0.28 0 0.38 0.28 0 0.4 0.28 0 0.42 0.28 0 0.44 0.28 0 0.46 0.28 0 0.48 0.28 0 0.5 0.28 0 0.52 0.28 0 0.54 0.28 0 0.56 0.28 0 0.58 0.28 0 0.6 0.28 0 0.62 0.28 0 0.64 0.28 0 0.66 0.28 0 0.68 0.28 0 0.7 0.28 0 0.72 0.28 0 0.74 0.28 0 0.76 0.28 0 0.78 0.28 0 0.8 0.28 0 0.82 0.28 0 0.84 0.28 0 0.86 0.28 0 0.88 0.28 0 0.9 0.28 0 0.92 0.28 0 0.94 0.28 0 0.96 0.28 0 0.98 0.28 0 1 0.28 0 0 0.3 0 0.02 0.3 0 0.04 0.3 0 0.06 0.3 0 0.08 0.3 0 0.1 0.3 0 0.12 0.3 0 0.14 0.3 0 0.16 0.3 0 0.18 0.3 0 0.2 0.3 0 0.22 0.3 0 0.24 0.3 0 0.26 0.3 0 0.28 0.3 0 0.3 0.3 0 0.32 0.3 0 0.34 0.3 0 0.36 0.3 0 0.38 0.3 0 0.4 0.3 0 0.42 0.3 0 0.44 0.3 0 0.46 0.3 0 0.48 0.3 0 0.5 0.3 0 0.52 0.3 0 0.54 0.3 0 0.56 0.3 0 0.58 0.3 0 0.6 0.3 0 0.62 0.3 0 0.64 0.3 0 0.66 0.3 0 0.68 0.3 0 0.7 0.3 0 0.72 0.3 0 0.74 0.3 0 0.76 0.3 0 0.78 0.3 0 0.8 0.3 0 0.82 0.3 0 0.84 0.3 0 0.86 0.3 0 0.88 0.3 0 0.9 0.3 0 0.92 0.3 0 0.94 0.3 0 0.96 0.3 0 0.98 0.3 0 1 0.3 0 0 0.32 0 0.02 0.32 0 0.04 0.32 0 0.06 0.32 0 0.08 0.32 0 0.1 0.32 0 0.12 0.32 0 0.14 0.32 0 0.16 0.32 0 0.18 0.32 0 0.2 0.32 0 0.22 0.32 0 0.24 0.32 0 0.26 0.32 0 0.28 0.32 0 0.3 0.32 0 0.32 0.32 0 0.34 0.32 0 0.36 0.32 0 0.38 0.32 0 0.4 0.32 0 0.42 0.32 0 0.44 0.32 0 0.46 0.32 0 0.48 0.32 0 0.5 0.32 0 0.52 0.32 0 0.54 0.32 0 0.56 0.32 0 0.58 0.32 0 0.6 0.32 0 0.62 0.32 0 0.64 0.32 0 0.66 0.32 0 0.68 0.32 0 0.7 0.32 0 0.72 0.32 0 0.74 0.32 0 0.76 0.32 0 0.78 0.32 0 0.8 0.32 0 0.82 0.32 0 0.84 0.32 0 0.86 0.32 0 0.88 0.32 0 0.9 0.32 0 0.92 0.32 0 0.94 0.
[...]
			<PointData Scalars="VitesseX">
				<DataArray Name="VitesseX" type="Float32" format="ascii">
 0 0 0 0 0 0 0 0 0 0 0 0 0 0 0 0 0 0 0 0 0 0 0 0 0 0 0 0 0 0 0 0 0 0 0 0 0 0 0 0 0 0 0 0 0 0 0 0 0 0 0 0 0.000478707 0.0019096 0.0042419 0.0074749 0.0115363 0.0163893 0.0219145 0.027988 0.0344568 0.0418175 0.0493235 0.0566079 0.0640488 0.0713051 0.0784176 0.085324 0.091826 0.0977867 0.10435 0.109163 0.111852 0.114675 0.116133 0.117433 0.11791 0.116849 0.107539 0.576295 0.117294 0.10659 0.101903 0.0964964 0.0905161 0.0840523 0.0771762 0.0700065 0.0626565 0.055268 0.0479806 0.0407918 0.0339032 0.02741 0.0215025 0.0161352 0.0114215 0.00754831 0.0041845 0.00194205 0.000488458 5.04385e-27 0 0.00093017 0.00370553 0.00827661 0.0145785 0.0225544 0.0320061 0.0427449 0.0546919 0.0678503 0.0824278 0.0969475 0.111486 0.126101 0.140371 0.154453 0.167925 0.180457 0.188893 0.214509 0.226476 0.221782 0.225244 0.23029 0.233107 0.23401 0.232973 0.230355 0.226058 0.218239 0.192869 0.126786 0.192206 0.17998 0.166817 0.1537 0.139562 0.124844 0.110133 0.0954911 0.0812228 0.0675778 0.0546569 0.0427626 0.0320236 0.0226132 0.0146914 0.00838525 0.00378673 0.000963832 1.0009e-26 0 0.00136571 0.00904448 0.0121471 0.0214469 0.0332387 0.0471384 0.0630539 0.0788933 0.100274 0.121602 0.14304 0.164596 0.186583 0.208039 0.228493 0.248162 0.266695 0.282921 0.298935 0.314134 0.327276 0.335326 0.340162 0.344837 0.346637 0.344934 0.341011 0.334477 0.324961 0.314109 0.300882 0.285745 0.269988 0.256338 0.227587 0.206985 0.185037 0.163122 0.141482 0.120408 0.100178 0.0810577 0.0634725 0.0475548 0.0335726 0.0218647 0.0124443 0.00564644 0.00143802 1.48128e-26 0 0.00150579 0.0122251 0.0158186 0.0279087 0.0434209 0.0615345 0.0823257 0.102831 0.131373 0.157984 0.185853 0.213521 0.243571 0.272516 0.298102 0.323471 0.348619 0.371797 0.390592 0.407727 0.433975 0.453436 0.454137 0.449015 0.453226 0.45176 0.445947 0.435666 0.425645 0.411275 0.393884 0.374755 0.350172 0.325606 0.299999 0.274013 0.254035 0.2133 0.18537 0.15775 0.130405 0.104716 0.0826192 0.0615241 0.0434989 0.0282751 0.0160926 0.00724793 0.00183742 1.93891e-26 0 -0.00055383 0.00376277 0.019706 0.0350794 0.0528815 0.074914 0.100235 0.128325 0.159501 0.191474 0.225009 0.258605 0.296183 0.330261 0.359012 0.391096 0.42264 0.451604 0.477064 0.465188 0.511829 0.538151 0.556288 0.557083 0.552874 0.551892 0.545777 0.53587 0.521602 0.501748 0.480578 0.459017 0.426326 0.39734 0.368167 0.332981 0.296964 0.261232 0.225545 0.219425 0.211643 0.128407 0.101988 0.0761054 0.0533992 0.0345712 0.0196733 0.00885779 0.00224681 2.36516e-26 0 0.00253839 0.00863957 0.0229938 0.0632802 0.0610319 0.0868867 0.116359 0.148994 0.184889 0.222005 0.260607 0.299459 0.340737 0.37997 0.416654 0.452322 0.488446 0.522202 0.552736 -36.4152 0.597001 0.616293 0.635828 0.648009 0.64733 0.642479 0.635763 0.624108 0.607905 0.586116 0.561675 0.537203 0.494462 0.46227 0.430992 0.3883 0.34601 0.305022 0.265353 0.227376 0.203177 0.15133 0.119422 0.0887567 0.0624089 0.0403493 0.0229802 0.0103437 0.00262504 2.75385e-26 0 0.00285871 0.0113861 0.0255286 0.0358579 0.0683848 0.0975339 0.130459 0.16635 0.207249 0.248813 0.291679 0.335818 0.380562 0.428614 0.47063 0.516842 0.559384 0.590019 0.619393 0.649181 0.673135 0.693655 0.70739 0.721543 0.724467 0.721339 0.701765 0.692472 0.686187 0.660486 0.631941 0.600012 0.556952 0.519973 0.482054 0.443394 0.390483 0.344088 0.299268 0.255977 0.218493 0.187182 0.134921 0.0997033 0.0701699 0.0453732 0.0254808 0.0114301 0.00291429 3.10107e-26 0 0.00312405 0.0124375 0.0277926 0.0480388 0.0751081 0.106675 0.142637 0.182306 0.226637 0.271886 0.318231 0.370058 0.412647 0.467199 0.509458 0.549563 0.600505 0.643853 0.681242 0.713595 0.74591 0.775802 0.782475 0.789343 0.793954 0.792723 0.784758 0.769608 0.739652 0.71133 0.693147 0.658065 0.61962 0.579024 0.54024 0.48679 0.429301 0.378092 0.328438 0.280793 0.238042 0.187089 0.146227 0.109966 0.0777911 0.0491535 0.028017 0.0126217 0.00319898 3.39733e-26 0 0.00334264 0.0133051 0.0297003 0.0522448 0.0805993 0.114159 0.152207 0.224153 0.240051 0.290185 0.339743 0.394656 0.441021 0.496805 0.541153 0.582572 0.640446 0.686535 0.725964 0.759804 0.791116 0.816883 0.835735 0.844558 0.850778 0.849816 0.841894 0.826387 0.805018 0.778367 0.738811 0.699752 0.663564 0.619824 0.582819 0.523985 0.457673 0.405841 0.353836 0.300683 0.255093 0.200627 0.156847 0.117874 0.0830451 0.053272 0.0303549 0.0136682 0.00346554 3.64024e-26 0 0.00350899 0.0139654 0.0311685 0.0548091 0.0846617 0.119866 0.159416 0.237856 0.250256 0.303854 0.355892 0.409823 0.464227 0.519525 0.560935 0.609026 0.670777 0.719355 0.761152 0.796888 0.82788 0.856323 0.876022 0.873532 0.894143 0.893577 0.8857 0.869762 0.847571 0.819377 0.78509 0.746048 0.691422 0.646396 0.596874 0.542794 0.496272 0.426686 0.369016 0.31556 0.266477 0.208202 0.166017 0.1242 0.0874219 0.0560372 0.0318987 0.0143553 0.0036422 3.8264e-26 0 0.00362262 0.0144139 0.0321604 0.0565454 0.0874622 0.123636 0.200188 0.119672 0.258438 0.312285 0.364527 0.41683 0.480645 0.534638 0.583385 0.634596 0.692069 0.741958 0.78545 0.82204 0.851415 0.882808 0.90381 0.917878 0.923339 0.92368 0.91615 0.899722 0.876623 0.847243 0.811955 0.772899 0.734526 0.670239 0.619437 0.564531 0.513188 0.440624 0.382491 0.326322 0.272698 0.222942 0.170792 0.128313 0.0899762 0.0579545 0.0330252 0.0148681 0.00377149 3.95223e-26 0 0.00367528 0.0146213 0.0326102 0.0573133 0.0884981 0.123386 0.22074 0.204767 0.261588 0.313786 0.370963 0.412065 0.484125 0.539931 0.596331 0.651729 0.701764 0.748584 0.795073 0.832659 0.861609 0.894344 0.91683 0.931735 0.938007 1.03884 0.953049 0.91799 0.892691 0.862475 0.826753 0.786891 0.745447 0.687124 0.632028 0.575826 0.521009 0.452245 0.390914 0.332669 0.277513 0.225833 0.182915 0.12955 0.0911855 0.0590683 0.0336712 0.0151558 0.00384482 4.01601e-26 0 0.00367554 0.0146222 0.0325995 0.0572901 0.0884389 0.123936 0.157609 0.211702 0.260856 0.177357 0.373074 0.426481 0.475923 0.538386 0.597869 0.651665 0.699551 0.736252 0.795102 0.83471 0.867851 0.895808 0.917308 0.931588 0.937188 0.937181 0.931179 1.09881 0.895419 0.862794 0.826824 0.786362 0.741861 0.696903 0.631767 0.574997 0.51875 0.462192 0.392062 0.332881 0.277671 0.225994 0.188793 0.129825 0.0911882 0.0590372 0.033563 0.015061 0.00384253 4.01675e-26 0 0.00361541 0.0143819 0.0319861 0.0562171 0.0867051 0.122484 0.163825 0.208015 0.249506 0.290798 0.362764 0.419829 0.47228 0.526881 0.585705 0.639103 0.687644 0.729918 0.637422 0.819651 0.847184 0.872797 0.902204 0.915684 0.92259 0.923608 -0.681813 -0.393663 0.962418 0.931096 0.962044 4.0282 0.337319 0.404299 0.631558 0.569321 0.512631 0.474941 0.388215 0.329946 0.275289 0.224098 0.186384 0.128428 0.0901009 0.0582759 0.0330463 0.0147689 0.00377296 3.95382e-26 0 0.00350172 0.0139239 0.0309061 0.0542836 0.0836765 0.118038 0.157792 0.198414 0.242589 0.284167 -11.7064 0.399848 0.452903 0.506677 0.563515 0.612361 0.656278 0.699179 0.746658 0.790885 0.82542 0.851257 0.868142 0.886085 -22.7549 0.896215 0.892352 0.876768 0.856699 0.830021 0.796811 0.757076 0.712072 0.664281 0.617904 0.606433 0.538013 0.466481 0.375056 0.319977 0.267032 0.217183 0.178087 0.124617 0.0873613 0.0564989 0.0320341 0.0143156 0.00364357 3.82911e-26 0 0.00333866 0.01316 0.0293173 0.0512485 0.0791343 0.0967095 0.14783 0.187871 0.232731 0.276074 0.284117 0.377462 0.431533 0.482005 0.532309 0.580158 0.628021 0.671963 0.711739 0.747938 0.77478 0.793985 0.809554 0.361961 0.852325 0.852217 0.848301 0.834995 0.815913 0.790499 0.759024 0.721768 0.679648 0.633381 0.584024 0.531779 0.481269 0.458976 0.351618 0.307912 0.255031 0.207158 0.16705 0.119014 0.0833761 0.0539061 0.0305568 0.0136481 0.00349078 3.64624e-26 0 0.00311342 0.012301 0.0270106 0.033741 0.0712844 0.0934111 0.136537 0.175579 0.217019 0.258421 0.287639 0.351379 0.401665 0.44801 -2.00527 0.533353 0.58221 0.623609 0.661318 0.497809 0.723302 0.748264 0.768086 0.783154 0.795771 0.795637 0.792266 0.780624 0.763381 0.740156 0.711111 0.676437 0.637209 0.593969 0.546844 0.497146 0.446623 0.399112 0.357966 0.253482 0.241896 0.193854 0.15481 0.111573 0.0781364 0.0504874 0.0285966 0.0125916 0.00315935 3.39821e-26 0 0.00284085 0.0192758 0.0228508 0.0349496 0.0620877 0.0905791 0.124193 0.157636 0.159492 0.23405 0.273442 0.319038 0.360319 0.402062 0.434189 0.484906 0.526724 0.56458 0.599082 0.584765 0.657326 0.682064 0.700846 0.714377 0.727221 0.727143 0.724209 0.714215 0.699199 0.678647 0.65254 0.621146 0.58539 0.545667 0.502354 0.456844 0.409913 0.362681 0.316875 0.33008 0.177758 0.181032 0.141238 0.101621 0.0716556 0.0462766 0.0261789 0.0114936 0.00287595 3.10557e-26 0 0.00252294 0.0606624 0.0176518 0.0327212 0.0559246 0.0816126 0.108761 -2.16611 0.164409 0.201982 0.210122 0.278331 0.318827 0.289645 0.386872 0.428556 0.463605 0.49528 0.517372 0.541068 0.582622 0.604851 0.621951 0.633684 0.647557 0.650188 0.645401 0.637255 0.624522 0.606816 0.584119 0.556717 0.525034 0.489451 0.450805 0.409958 0.36773 0.324888 0.282544 0.24373 0.21869 0.160293 0.1261 0.090976 0.0641645 0.0414408 0.0235113 0.0102791 0.00255265 2.76095e-26 0 0.00498536 0.00553769 0.0157952 0.0296127 0.0484312 0.067497 0.0426889 0.110128 0.14507 0.160258 0.199868 0.232899 0.258205 0.288208 0.330102 0.362712 0.391792 0.418349 0.439875 0.46863 0.497158 0.516518 0.532197 0.543424 0.550129 0.561938 0.559531 0.551292 0.540345 0.525633 0.506732 0.483574 0.456547 0.426124 0.392865 0.357257 0.320259 0.282814 0.245612 0.209419 0.27338 0.104934 0.112817 0.0793634 0.0784007 0.0477718 0.0203083 0.00882945 0.00219165 2.3729e-26 0 0.00383393 0.00545185 0.0143959 0.0232667 0.0397876 0.047088 0.0689557 0.0874826 0.0823225 0.133631 0.16271 0.185912 0.211138 0.236356 0.264454 0.288517 0.313768 0.340177 0.360531 0.380516 0.397518 0.415903 0.432629 0.44399 0.452265 0.453742 0.461765 0.458464 0.448673 0.436589 0.421346 0.402841 0.381136 0.356201 0.328702 0.299207 0.268268 0.236791 0.205368 0.174875 0.147665 0.128531 0.0864714 0.0764004 0.052512 0.0301091 0.0165214 0.00733145 0.00183768 1.94806e-26 0 -0.00137218 0.00463709 0.0107905 0.0188512 0.0280124 0.0375167 0.0536629 0.0458429 0.080797 0.0999994 0.11907 0.131747 0.155764 0.174868 0.191615 0.205114 0.230215 0.252922 0.267004 0.280076 0.295375 0.311651 0.326525 0.309541 0.357827 0.352863 0.346709 0.35913 0.352618 0.341807 0.330081 0.316097 0.299717 0.280941 0.25965 0.23658 0.212256 0.187247 0.1622 0.137615 0.114432 0.0967329 0.0714262 0.0534965 0.0365413 0.0231554 0.0128781 0.00560587 0.00140777 1.49443e-26 0 0.000695362 0.00314217 0.00725575 0.0123488 0.0158851 0.0260467 0.0300143 0.0409976 0.0518304 0.0628973 0.0731334 0.0819836 0.09566 0.107337 0.114719 0.118059 0.134201 0.14091 0.165132 0.182622 0.193825 0.206938 0.218804 0.225879 0.233659 0.235001 0.235657 2.01295 0.255248 0.244668 0.235619 0.225331 0.213981 0.201317 0.186779 0.170491 0.153097 0.134988 0.116814 0.098953 0.0818693 0.0664369 0.318756 0.0203784 0.0270644 0.0164401 0.0089725 0.00382627 0.000960757 1.01926e-26 0 0.000377733 0.00145486 0.00323824 0.00509953 0.00652203 0.00999345 0.0122552 0.0156686 0.0194872 0.0228048 0.0231328 0.0319758 0.0312687 0.0334713 0.0366668 0.0432438 0.0524386 0.0674961 0.0731695 0.0743598 0.0800184 0.0963346 0.10743 0.112735 0.119472 0.119372 0.164245 0.139323 0.135439 0.15576 0.141045 0.132225 0.125825 0.119048 0.11119 0.101977 0.0917616 0.0809362 0.0698962 0.0589559 0.0483797 0.0386022 0.0297011 0.0212388 0.0148774 0.00867946 0.00515309 0.00215675 0.000504088 5.37965e-27 0 -6.18185e-05 -0.000310914 -0.000787346 -0.00182383 -0.00348512 -0.00609553 -0.00837043 -0.0109675 -0.0144125 -0.0216006 -0.0247512 -0.0223116 -0.0870181 -0.0852423 -0.0435892 -0.0362182 -0.0342018 -0.0350412 -0.0436721 -0.0274436 -0.0278602 -0.0226783 -0.0200282 -0.0170834 0.00099043 0.0166351 0.0197418 0.0207859 0.0233151 0.0258624 0.0475181 0.0372987 0.0360797 0.0356275 0.0342542 0.0321122 0.0292189 0.025772 0.0219515 0.0181418 0.0144922 0.0110951 0.00804185 5.81024 0.0031082 0.00145379 0.000672652 0.000290513 4.34085e-05 1.45131e-27 0 -0.000530933 -0.00217429 -0.00493875 -0.0093114 -0.0150564 -0.0214796 -0.0290908 -0.0387516 -0.0527991 -0.0608026 -0.0702266 -0.0814086 -0.0924936 -0.104775 -0.115637 -0.121856 -0.130581 -0.139526 -0.137118 -0.131962 -0.13278 -0.128949 -0.126714 -0.121683 -0.112429 -0.107231 -0.10054 -0.0938144 -0.0864716 -0.080345 -0.0648999 -0.058951 -0.053749 -0.0481735 -0.0427278 -0.0378589 -0.0334558 -0.0295092 -0.0259961 -0.0226365 -0.0194015 -0.0163182 -0.0132473 -0.00366236 -0.00658258 -0.00552441 -0.00354 -0.00158518 -0.000400078 -3.21823e-27 0 -0.000994302 -0.00397411 -0.00903857 -0.0169464 -0.0267046 -0.0365901 -0.050532 -0.0733835 -0.0830537 -0.0985941 -0.116761 -0.134941 -0.151237 -0.170238 -0.200751 -0.218864 -0.214841 -0.226306 -0.239708 -0.236748 -0.240316 -0.245069 -0.24336 -0.237248 -0.229593 -0.224176 -0.215977 -0.206185 -0.195165 -0.184154 -0.171345 -0.147294 -0.142562 -0.131195 -0.119006 -0.107105 -0.0954726 -0.0841744 -0.0733429 -0.0628988 -0.0528864 -0.0433788 -0.0343083 -0.0163624 -0.00867247 -0.0129917 -0.00761285 -0.00341075 -0.000378469 -8.07351e-27 0 -0.00145823 -0.00576419 -0.0129681 -0.0248689 -0.0367637 -0.052198 -0.0752755 -0.0965242 -0.113116 -0.136652 -0.162739 -0.186649 -0.211346 -0.237369 -0.263914 -0.288464 -0.318683 -0.361828 -0.351728 -0.343668 -0.351028 -0.356959 -0.373491 -0.361085 -0.34114 -0.335462 -0.326416 -0.314902 -0.301401 -0.285523 -0.263309 -0.237286 -0.227764 -0.211393 -0.19324 -0.174488 -0.155774 -0.137336 -0.119436 -0.102129 -0.0854813 -0.0697234 -0.0548329 -0.0149564 -0.0238494 -0.017108 -0.0115439 -0.00519255 -0.582562 -1.34109e-26 0 -0.00188497 -0.0074869 -0.0167628 -0.0308334 -0.0465123 -0.0676729 -0.0908434 -0.118959 -0.143818 -0.173548 -0.207342 -0.236722 -0.268839 -0.302379 -0.333523 -0.358396 -0.385793 -0.40852 -0.417833 -0.435445 -0.448522 -0.454632 -0.456848 -0.45299 -0.446383 -0.439133 -0.430011 -0.417269 -0.402169 -0.378205 -0.333323 -0.344813 -0.302351 -0.288198 -0.264208 -0.238836 -0.213361 -0.188131 -0.163472 -0.139583 -0.116574 -0.0948348 -0.0744063 0.0397627 -0.0397313 -0.0260511 -0.0151755 -0.00688687 -0.00175163 -1.87996e-26 0 -0.00229331 -0.00911889 -0.0203091 -0.0360941 -0.0557978 -0.079693 -0.106891 -0.14031 -0.1723 -0.20755 -0.248695 -0.284292 -0.321962 -0.35893 -0.394285 -0.429781 -0.457818 -0.48458 -0.539781 -0.633286 -0.564366 -0.550907 -0.551917 -0.553103 -0.551398 -0.544481 -0.525194 -0.490423 -0.464455 -0.446873 -0.453941 -0.424307 -0.379296 -0.360683 -0.330608 -0.299169 -0.267356 -0.235759 -0.204758 -0.174654 -0.145676 -0.118334 -0.0928472 -11.351 -0.0495155 -0.0312378 -0.00575028 -0.0084853 0.00440973 -2.35229e-26 0 -0.00267622 -0.0106258 -0.0234251 -0.0410307 -0.0650194 -0.0924468 -0.123122 -0.15917 -0.197177 -0.237329 -0.283862 -0.325917 -0.368619 -0.409973 -0.451333 -0.509409 -0.528392 -0.558397 -0.585897 -0.613928 -0.631631 -0.637021 -0.641138 -0.64369 -0.642382 -0.634288 -0.622029 -0.606081 -0.583913 -0.551431 -0.526263 -0.497348 -0.46337 -0.426456 -0.391495 -0.354508 -0.31695 -0.279511 -0.242654 -0.20681 -0.172341 -0.139868 -0.109682 -0.0829504 -0.0587602 -0.0383403 -0.0218774 -0.00621071 -0.00103086 -2.74736e-26 0 -0.00301889 -0.0119176 -0.0261992 -0.046512 -0.0724552 -0.101655 -0.139128 -0.201841 -0.218508 -0.263537 -0.315759 -0.362499 -0.409465 -0.455134 -0.50224 -0.581355 -0.602467 -0.63074 -0.652278 -0.678193 -0.700915 -0.713794 -0.72447 -0.724392 -0.72275 -0.714328 -0.701396 -0.68387 -0.658364 -0.625719 -0.596133 -0.564199 -0.512291 -0.486959 -0.446345 -0.404141 -0.361491 -0.318728 -0.276557 -0.235537 -0.19612 -0.15904 -0.124567 -0.0944587 -0.0669927 -0.0436242 -0.0248194 -0.0112092 -0.00282233 -3.09335e-26 0 -0.00331148 -0.0130336 -0.0287931 -0.0517178 -0.0790611 -0.111444 -0.148924 -0.191412 -0.238057 -0.286764 -0.342936 -0.394549 -0.44542 -0.494963 -0.544078 -0.672999 -0.642924 -0.685905 -0.713779 -0.735601 -0.766618 -0.778351 -0.790331 -0.792524 -0.789566 -0.781989 -0.76898 -0.750266 -0.724716 -0.692862 -0.659156 -0.623045 -0.567165 -0.538768 -0.493783 -0.447162 -0.400121 -0.352715 -0.305909 -0.260442 -0.216756 -0.175584 -0.137304 -0.104022 -0.0737075 -0.0479367 -0.0272726 -0.0122842 -0.00309875 -3.3929e-26 0 -0.0035405 -0.0139332 -0.0309447 -0.0555269 -0.084803 -0.118997 -0.158566 -0.204118 -0.25575 -0.306555 -0.362955 -0.421934 -0.474375 -0.526737 -0.57828 -0.62825 -0.686918 -0.723018 -0.767528 -0.78994 -0.813861 -0.832708 -0.846002 -0.850747 -0.850454 -0.842793 -0.828707 -0.80704 -0.778903 -0.749585 -0.713602 -0.672095 -0.612167 -0.580716 -0.532908 -0.482685 -0.431922 -0.380784 -0.33023 -0.281195 -0.233988 -0.189248 -0.147687 -0.111774 -0.0791941 -0.051397 -0.0291942 -0.0132063 -0.00333276 -3.63741e-26 0 -0.00370922 -0.0145688 -0.0322989 -0.0573114 -0.0883013 -0.126143 -0.170653 -0.214929 -0.269075 -0.320892 -0.377235 -0.446303 -0.497399 -0.552102 -0.605731 -0.656099 -0.863782 -0.758641 -0.797607 -0.828818 -0.855042 -0.877209 -0.88988 -0.894222 -0.893808 -0.886471 -0.871826 -0.849187 -0.819546 -0.789037 -0.753118 -0.525601 -0.627568 -0.614563 -0.56341 -0.510437 -0.456712 -0.402668 -0.349227 -0.297448 -0.24746 -0.199872 -0.15572 -0.117794 -0.083534 -0.0540737 -0.0303891 -0.0138915 -0.00351048 -3.82651e-26 0 -0.00378053 -0.014918 -0.0331342 -0.0588815 -0.0915555 -0.129272 -0.172799 -0.243048 -0.276757 -0.330616 -0.388939 -0.463816 -0.513391 -0.569539 -0.624481 -0.677524 -0.731117 -0.77974 -0.818951 -0.854681 -0.881921 -0.902962 -0.920162 -0.925202 -0.922888 -0.916146 -0.90124 -0.877757 -0.841178 -0.809999 -0.777934 -0.720542 -0.685332 -0.637308 -0.584816 -0.529879 -0.474194 -0.418103 -0.362552 -0.308797 -0.256838 -0.207252 -0.161216 -0.121472 -0.086463 -0.0561123 -0.0314095 -0.0143503 -0.00362774 -3.95218e-26 0 -0.00375449 -0.0150405 -0.0344943 -0.0604551 -0.0927364 -0.13046 -0.174335 -0.244992 -0.280053 -0.333407 -0.391319 -0.462621 -0.516366 -0.573882 -0.630907 -0.68612 -0.739698 -16.5152 -0.827395 -0.863921 -0.893675 -0.915064 -0.930844 -0.938086 -0.938196 -0.931475 -0.916615 -0.89543 -0.867846 -0.834022 -0.796216 -0.746496 -0.70285 -0.651902 -0.597553 -0.541523 -0.484651 -0.42728 -0.370452 -0.315314 -0.262144 -0.211484 -0.16415 -27.9221 -0.0878862 -0.05723 -0.03261 -0.0146008 -0.00368616 -4.01595e-26 0 -0.00380225 -0.0156867 -0.0345574 -0.0603663 -0.0927613 -0.130924 -0.174417 -0.243373 -0.282428 -0.333848 -0.390467 -0.451887 -0.518423 -0.574091 -0.630864 -0.687064 -0.738021 -0.785339 -0.830234 -0.863091 -0.892974 -0.953074 -0.930796 -0.93793 -0.938201 -0.931578 -0.916637 -0.895505 -0.868074 -0.834516 -0.783381 -0.750697 -0.703642 -0.652311 -0.598014 -0.542143 -0.485101 -0.427617 -0.370926 -0.315527 -0.262161 -0.211466 -0.163485 -0.123745 -0.0881187 -0.0573059 -0.0326133 -0.0146008 -0.00368478 -4.01675e-26 0 -0.00393248 -0.0154003 -0.0339323 -0.0593663 -0.0912543 -0.128956 -0.171017 -0.219683 -0.280848 -0.329334 -0.385252 -0.443792 -0.511263 -0.564995 -0.616517 -0.668516 -0.728277 -0.768335 -0.816747 -0.846882 -0.878734 -0.90126 -0.924537 -0.925394 -0.923586 -0.918017 -0.904285 -0.883852 -0.856108 -0.827105 -0.782797 -0.74328 -0.696392 -0.645461 -0.591895 -0.536553 -0.480028 -0.423261 -0.367144 -0.312213 -0.259356 -0.20874 -0.158611 -0.122561 -0.0871554 -0.056626 -0.0321947 -0.0144085 -0.00362854 -3.9543e-26 0 -0.0037999 -0.014863 -0.0328459 -0.0575768 -0.0885268 -0.125064 -0.166547 -0.212003 -0.275329 -0.320418 -0.372906 -0.428041 -0.492639 -0.549798 -0.599372 -0.645988 -0.690299 -0.749265 -0.788201 -0.824314 -0.849745 -0.87061 -0.888911 -0.903541 -0.894289 -0.889142 -0.876171 -0.856237 -0.829833 -0.800342 -0.762106 -0.720657 -0.675034 -0.625848 -0.573986 -0.520159 -0.465411 -0.410453 -0.355855 -0.302566 -0.251402 -0.20217 -0.145193 -0.119174 -0.084623 -0.0548658 -0.0308934 -0.013961 -0.00351364 -3.82971e-26 0 -0.00360528 -0.0141386 -0.0313486 -0.0548829 -0.0843918 -0.119095 -0.15816 -0.201981 -0.250413 -0.309405 -0.355169 -0.406997 -0.460214 -0.523958 -0.572304 -0.617629 -0.661901 -0.703148 -0.739915 -1.16236 -0.816522 -0.830382 -0.836147 -0.822516 -0.803128 -0.847774 -0.8