<?xml version="1.0"?>
<VTKFile type="PolyData">
	<PolyData>
		<Piece NumberOfPoints="2601" NumberOfPolys="2500">
			<Points>
				<DataArray type="Float32" NumberOfComponents="3" format="ascii">
 0 0 0 0.02 0 0 0.04 0 0 0.06 0 0 0.08 0 0 0.1 0 0 0.12 0 0 0.14 0 0 0.16 0 0 0.18 0 0 0.2 0 0 0.22 0 0 0.24 0 0 0.26 0 0 0.28 0 0 0.3 0 0 0.32 0 0 0.34 0 0 0.36 0 0 0.38 0 0 0.4 0 0 0.42 0 0 0.44 0 0 0.46 0 0 0.48 0 0 0.5 0 0 0.52 0 0 0.54 0 0 0.56 0 0 0.58 0 0 0.6 0 0 0.62 0 0 0.64 0 0 0.66 0 0 0.68 0 0 0.7 0 0 0.72 0 0 0.74 0 0 0.76 0 0 0.78 0 0 0.8 0 0 0.82 0 0 0.84 0 0 0.86 0 0 0.88 0 0 0.9 0 0 0.92 0 0 0.94 0 0 0.96 0 0 0.98 0 0 1 0 0 0 0.02 0 0.02 0.02 0 0.04 0.02 0 0.06 0.02 0 0.08 0.02 0 0.1 0.02 0 0.12 0.02 0 0.14 0.02 0 0.16 0.02 0 0.18 0.02 0 0.2 0.02 0 0.22 0.02 0 0.24 0.02 0 0.26 0.02 0 0.28 0.02 0 0.3 0.02 0 0.32 0.02 0 0.34 0.02 0 0.36 0.02 0 0.38 0.02 0 0.4 0.02 0 0.42 0.02 0 0.44 0.02 0 0.46 0.02 0 0.48 0.02 0 0.5 0.02 0 0.52 0.02 0 0.54 0.02 0 0.56 0.02 0 0.58 0.02 0 0.6 0.02 0 0.62 0.02 0 0.64 0.02 0 0.66 0.02 0 0.68 0.02 0 0.7 0.02 0 0.72 0.02 0 0.74 0.02 0 0.76 0.02 0 0.78 0.02 0 0.8 0.02 0 0.82 0.02 0 0.84 0.02 0 0.86 0.02 0 0.88 0.02 0 0.9 0.02 0 0.92 0.02 0 0.94 0.02 0 0.96 0.02 0 0.98 0.02 0 1 0.02 0 0 0.04 0 0.02 0.04 0 0.04 0.04 0 0.06 0.04 0 0.08 0.04 0 0.1 0.04 0 0.12 0.04 0 0.14 0.04 0 0.16 0.04 0 0.18 0.04 0 0.2 0.04 0 0.22 0.04 0 0.24 0.04 0 0.26 0.04 0 0.28 0.04 0 0.3 0.04 0 0.32 0.04 0 0.34 0.04 0 0.36 0.04 0 0.38 0.04 0 0.4 0.04 0 0.42 0.04 0 0.44 0.04 0 0.46 0.04 0 0.48 0.04 0 0.5 0.04 0 0.52 0.04 0 0.54 0.04 0 0.56 0.04 0 0.58 0.04 0 0.6 0.04 0 0.62 0.04 0 0.64 0.04 0 0.66 0.04 0 0.68 0.04 0 0.7 0.04 0 0.72 0.04 0 0.74 0.04 0 0.76 0.04 0 0.78 0.04 0 0.8 0.04 0 0.82 0.04 0 0.84 0.04 0 0.86 0.04 0 0.88 0.04 0 0.9 0.04 0 0.92 0.04 0 0.94 0.04 0 0.96 0.04 0 0.98 0.04 0 1 0.04 0 0 0.06 0 0.02 0.06 0 0.04 0.06 0 0.06 0.06 0 0.08 0.06 0 0.1 0.06 0 0.12 0.06 0 0.14 0.06 0 0.16 0.06 0 0.18 0.06 0 0.2 0.06 0 0.22 0.06 0 0.24 0.06 0 0.26 0.06 0 0.28 0.06 0 0.3 0.06 0 0.32 0.06 0 0.34 0.06 0 0.36 0.06 0 0.38 0.06 0 0.4 0.06 0 0.42 0.06 0 0.44 0.06 0 0.46 0.06 0 0.48 0.06 0 0.5 0.06 0 0.52 0.06 0 0.54 0.06 0 0.56 0.06 0 0.58 0.06 0 0.6 0.06 0 0.62 0.06 0 0.64 0.06 0 0.66 0.06 0 0.68 0.06 0 0.7 0.06 0 0.72 0.06 0 0.74 0.06 0 0.76 0.06 0 0.78 0.06 0 0.8 0.06 0 0.82 0.06 0 0.84 0.06 0 0.86 0.06 0 0.88 0.06 0 0.9 0.06 0 0.92 0.06 0 0.94 0.06 0 0.96 0.06 0 0.98 0.06 0 1 0.06 0 0 0.08 0 0.02 0.08 0 0.04 0.08 0 0.06 0.08 0 0.08 0.08 0 0.1 0.08 0 0.12 0.08 0 0.14 0.08 0 0.16 0.08 0 0.18 0.08 0 0.2 0.08 0 0.22 0.08 0 0.24 0.08 0 0.26 0.08 0 0.28 0.08 0 0.3 0.08 0 0.32 0.08 0 0.34 0.08 0 0.36 0.08 0 0.38 0.08 0 0.4 0.08 0 0.42 0.08 0 0.44 0.08 0 0.46 0.08 0 0.48 0.08 0 0.5 0.08 0 0.52 0.08 0 0.54 0.08 0 0.56 0.08 0 0.58 0.08 0 0.6 0.08 0 0.62 0.08 0 0.64 0.08 0 0.66 0.08 0 0.68 0.08 0 0.7 0.08 0 0.72 0.08 0 0.74 0.08 0 0.76 0.08 0 0.78 0.08 0 0.8 0.08 0 0.82 0.08 0 0.84 0.08 0 0.86 0.08 0 0.88 0.08 0 0.9 0.08 0 0.92 0.08 0 0.94 0.08 0 0.96 0.08 0 0.98 0.08 0 1 0.08 0 0 0.1 0 0.02 0.1 0 0.04 0.1 0 0.06 0.1 0 0.08 0.1 0 0.1 0.1 0 0.12 0.1 0 0.14 0.1 0 0.16 0.1 0 0.18 0.1 0 0.2 0.1 0 0.22 0.1 0 0.24 0.1 0 0.26 0.1 0 0.28 0.1 0 0.3 0.1 0 0.32 0.1 0 0.34 0.1 0 0.36 0.1 0 0.38 0.1 0 0.4 0.1 0 0.42 0.1 0 0.44 0.1 0 0.46 0.1 0 0.48 0.1 0 0.5 0.1 0 0.52 0.1 0 0.54 0.1 0 0.56 0.1 0 0.58 0.1 0 0.6 0.1 0 0.62 0.1 0 0.64 0.1 0 0.66 0.1 0 0.68 0.1 0 0.7 0.1 0 0.72 0.1 0 0.74 0.1 0 0.76 0.1 0 0.78 0.1 0 0.8 0.1 0 0.82 0.1 0 0.84 0.1 0 0.86 0.1 0 0.88 0.1 0 0.9 0.1 0 0.92 0.1 0 0.94 0.1 0 0.96 0.1 0 0.98 0.1 0 1 0.1 0 0 0.12 0 0.02 0.12 0 0.04 0.12 0 0.06 0.12 0 0.08 0.12 0 0.1 0.12 0 0.12 0.12 0 0.14 0.12 0 0.16 0.12 0 0.18 0.12 0 0.2 0.12 0 0.22 0.12 0 0.24 0.12 0 0.26 0.12 0 0.28 0.12 0 0.3 0.12 0 0.32 0.12 0 0.34 0.12 0 0.36 0.12 0 0.38 0.12 0 0.4 0.12 0 0.42 0.12 0 0.44 0.12 0 0.46 0.12 0 0.48 0.12 0 0.5 0.12 0 0.52 0.12 0 0.54 0.12 0 0.56 0.12 0 0.58 0.12 0 0.6 0.12 0 0.62 0.12 0 0.64 0.12 0 0.66 0.12 0 0.68 0.12 0 0.7 0.12 0 0.72 0.12 0 0.74 0.12 0 0.76 0.12 0 0.78 0.12 0 0.8 0.12 0 0.82 0.12 0 0.84 0.12 0 0.86 0.12 0 0.88 0.12 0 0.9 0.12 0 0.92 0.12 0 0.94 0.12 0 0.96 0.12 0 0.98 0.12 0 1 0.12 0 0 0.14 0 0.02 0.14 0 0.04 0.14 0 0.06 0.14 0 0.08 0.14 0 0.1 0.14 0 0.12 0.14 0 0.14 0.14 0 0.16 0.14 0 0.18 0.14 0 0.2 0.14 0 0.22 0.14 0 0.24 0.14 0 0.26 0.14 0 0.28 0.14 0 0.3 0.14 0 0.32 0.14 0 0.34 0.14 0 0.36 0.14 0 0.38 0.14 0 0.4 0.14 0 0.42 0.14 0 0.44 0.14 0 0.46 0.14 0 0.48 0.14 0 0.5 0.14 0 0.52 0.14 0 0.54 0.14 0 0.56 0.14 0 0.58 0.14 0 0.6 0.14 0 0.62 0.14 0 0.64 0.14 0 0.66 0.14 0 0.68 0.14 0 0.7 0.14 0 0.72 0.14 0 0.74 0.14 0 0.76 0.14 0 0.78 0.14 0 0.8 0.14 0 0.82 0.14 0 0.84 0.14 0 0.86 0.14 0 0.88 0.14 0 0.9 0.14 0 0.92 0.14 0 0.94 0.14 0 0.96 0.14 0 0.98 0.14 0 1 0.14 0 0 0.16 0 0.02 0.16 0 0.04 0.16 0 0.06 0.16 0 0.08 0.16 0 0.1 0.16 0 0.12 0.16 0 0.14 0.16 0 0.16 0.16 0 0.18 0.16 0 0.2 0.16 0 0.22 0.16 0 0.24 0.16 0 0.26 0.16 0 0.28 0.16 0 0.3 0.16 0 0.32 0.16 0 0.34 0.16 0 0.36 0.16 0 0.38 0.16 0 0.4 0.16 0 0.42 0.16 0 0.44 0.16 0 0.46 0.16 0 0.48 0.16 0 0.5 0.16 0 0.52 0.16 0 0.54 0.16 0 0.56 0.16 0 0.58 0.16 0 0.6 0.16 0 0.62 0.16 0 0.64 0.16 0 0.66 0.16 0 0.68 0.16 0 0.7 0.16 0 0.72 0.16 0 0.74 0.16 0 0.76 0.16 0 0.78 0.16 0 0.8 0.16 0 0.82 0.16 0 0.84 0.16 0 0.86 0.16 0 0.88 0.16 0 0.9 0.16 0 0.92 0.16 0 0.94 0.16 0 0.96 0.16 0 0.98 0.16 0 1 0.16 0 0 0.18 0 0.02 0.18 0 0.04 0.18 0 0.06 0.18 0 0.08 0.18 0 0.1 0.18 0 0.12 0.18 0 0.14 0.18 0 0.16 0.18 0 0.18 0.18 0 0.2 0.18 0 0.22 0.18 0 0.24 0.18 0 0.26 0.18 0 0.28 0.18 0 0.3 0.18 0 0.32 0.18 0 0.34 0.18 0 0.36 0.18 0 0.38 0.18 0 0.4 0.18 0 0.42 0.18 0 0.44 0.18 0 0.46 0.18 0 0.48 0.18 0 0.5 0.18 0 0.52 0.18 0 0.54 0.18 0 0.56 0.18 0 0.58 0.18 0 0.6 0.18 0 0.62 0.18 0 0.64 0.18 0 0.66 0.18 0 0.68 0.18 0 0.7 0.18 0 0.72 0.18 0 0.74 0.18 0 0.76 0.18 0 0.78 0.18 0 0.8 0.18 0 0.82 0.18 0 0.84 0.18 0 0.86 0.18 0 0.88 0.18 0 0.9 0.18 0 0.92 0.18 0 0.94 0.18 0 0.96 0.18 0 0.98 0.18 0 1 0.18 0 0 0.2 0 0.02 0.2 0 0.04 0.2 0 0.06 0.2 0 0.08 0.2 0 0.1 0.2 0 0.12 0.2 0 0.14 0.2 0 0.16 0.2 0 0.18 0.2 0 0.2 0.2 0 0.22 0.2 0 0.24 0.2 0 0.26 0.2 0 0.28 0.2 0 0.3 0.2 0 0.32 0.2 0 0.34 0.2 0 0.36 0.2 0 0.38 0.2 0 0.4 0.2 0 0.42 0.2 0 0.44 0.2 0 0.46 0.2 0 0.48 0.2 0 0.5 0.2 0 0.52 0.2 0 0.54 0.2 0 0.56 0.2 0 0.58 0.2 0 0.6 0.2 0 0.62 0.2 0 0.64 0.2 0 0.66 0.2 0 0.68 0.2 0 0.7 0.2 0 0.72 0.2 0 0.74 0.2 0 0.76 0.2 0 0.78 0.2 0 0.8 0.2 0 0.82 0.2 0 0.84 0.2 0 0.86 0.2 0 0.88 0.2 0 0.9 0.2 0 0.92 0.2 0 0.94 0.2 0 0.96 0.2 0 0.98 0.2 0 1 0.2 0 0 0.22 0 0.02 0.22 0 0.04 0.22 0 0.06 0.22 0 0.08 0.22 0 0.1 0.22 0 0.12 0.22 0 0.14 0.22 0 0.16 0.22 0 0.18 0.22 0 0.2 0.22 0 0.22 0.22 0 0.24 0.22 0 0.26 0.22 0 0.28 0.22 0 0.3 0.22 0 0.32 0.22 0 0.34 0.22 0 0.36 0.22 0 0.38 0.22 0 0.4 0.22 0 0.42 0.22 0 0.44 0.22 0 0.46 0.22 0 0.48 0.22 0 0.5 0.22 0 0.52 0.22 0 0.54 0.22 0 0.56 0.22 0 0.58 0.22 0 0.6 0.22 0 0.62 0.22 0 0.64 0.22 0 0.66 0.22 0 0.68 0.22 0 0.7 0.22 0 0.72 0.22 0 0.74 0.22 0 0.76 0.22 0 0.78 0.22 0 0.8 0.22 0 0.82 0.22 0 0.84 0.22 0 0.86 0.22 0 0.88 0.22 0 0.9 0.22 0 0.92 0.22 0 0.94 0.22 0 0.96 0.22 0 0.98 0.22 0 1 0.22 0 0 0.24 0 0.02 0.24 0 0.04 0.24 0 0.06 0.24 0 0.08 0.24 0 0.1 0.24 0 0.12 0.24 0 0.14 0.24 0 0.16 0.24 0 0.18 0.24 0 0.2 0.24 0 0.22 0.24 0 0.24 0.24 0 0.26 0.24 0 0.28 0.24 0 0.3 0.24 0 0.32 0.24 0 0.34 0.24 0 0.36 0.24 0 0.38 0.24 0 0.4 0.24 0 0.42 0.24 0 0.44 0.24 0 0.46 0.24 0 0.48 0.24 0 0.5 0.24 0 0.52 0.24 0 0.54 0.24 0 0.56 0.24 0 0.58 0.24 0 0.6 0.24 0 0.62 0.24 0 0.64 0.24 0 0.66 0.24 0 0.68 0.24 0 0.7 0.24 0 0.72 0.24 0 0.74 0.24 0 0.76 0.24 0 0.78 0.24 0 0.8 0.24 0 0.82 0.24 0 0.84 0.24 0 0.86 0.24 0 0.88 0.24 0 0.9 0.24 0 0.92 0.24 0 0.94 0.24 0 0.96 0.24 0 0.98 0.24 0 1 0.24 0 0 0.26 0 0.02 0.26 0 0.04 0.26 0 0.06 0.26 0 0.08 0.26 0 0.1 0.26 0 0.12 0.26 0 0.14 0.26 0 0.16 0.26 0 0.18 0.26 0 0.2 0.26 0 0.22 0.26 0 0.24 0.26 0 0.26 0.26 0 0.28 0.26 0 0.3 0.26 0 0.32 0.26 0 0.34 0.26 0 0.36 0.26 0 0.38 0.26 0 0.4 0.26 0 0.42 0.26 0 0.44 0.26 0 0.46 0.26 0 0.48 0.26 0 0.5 0.26 0 0.52 0.26 0 0.54 0.26 0 0.56 0.26 0 0.58 0.26 0 0.6 0.26 0 0.62 0.26 0 0.64 0.26 0 0.66 0.26 0 0.68 0.26 0 0.7 0.26 0 0.72 0.26 0 0.74 0.26 0 0.76 0.26 0 0.78 0.26 0 0.8 0.26 0 0.82 0.26 0 0.84 0.26 0 0.86 0.26 0 0.88 0.26 0 0.9 0.26 0 0.92 0.26 0 0.94 0.26 0 0.96 0.26 0 0.98 0.26 0 1 0.26 0 0 0.28 0 0.02 0.28 0 0.04 0.28 0 0.06 0.28 0 0.08 0.28 0 0.1 0.28 0 0.12 0.28 0 0.14 0.28 0 0.16 0.28 0 0.18 0.28 0 0.2 0.28 0 0.22 0.28 0 0.24 0.28 0 0.26 0.28 0 0.28 0.28 0 0.3 0.28 0 0.32 0.28 0 0.34 0.28 0 0.36 0.28 0 0.38 0.28 0 0.4 0.28 0 0.42 0.28 0 0.44 0.28 0 0.46 0.28 0 0.48 0.28 0 0.5 0.28 0 0.52 0.28 0 0.54 0.28 0 0.56 0.28 0 0.58 0.28 0 0.6 0.28 0 0.62 0.28 0 0.64 0.28 0 0.66 0.28 0 0.68 0.28 0 0.7 0.28 0 0.72 0.28 0 0.74 0.28 0 0.76 0.28 0 0.78 0.28 0 0.8 0.28 0 0.82 0.28 0 0.84 0.28 0 0.86 0.28 0 0.88 0.28 0 0.9 0.28 0 0.92 0.28 0 0.94 0.28 0 0.96 0.28 0 0.98 0.28 0 1 0.28 0 0 0.3 0 0.02 0.3 0 0.04 0.3 0 0.06 0.3 0 0.08 0.3 0 0.1 0.3 0 0.12 0.3 0 0.14 0.3 0 0.16 0.3 0 0.18 0.3 0 0.2 0.3 0 0.22 0.3 0 0.24 0.3 0 0.26 0.3 0 0.28 0.3 0 0.3 0.3 0 0.32 0.3 0 0.34 0.3 0 0.36 0.3 0 0.38 0.3 0 0.4 0.3 0 0.42 0.3 0 0.44 0.3 0 0.46 0.3 0 0.48 0.3 0 0.5 0.3 0 0.52 0.3 0 0.54 0.3 0 0.56 0.3 0 0.58 0.3 0 0.6 0.3 0 0.62 0.3 0 0.64 0.3 0 0.66 0.3 0 0.68 0.3 0 0.7 0.3 0 0.72 0.3 0 0.74 0.3 0 0.76 0.3 0 0.78 0.3 0 0.8 0.3 0 0.82 0.3 0 0.84 0.3 0 0.86 0.3 0 0.88 0.3 0 0.9 0.3 0 0.92 0.3 0 0.94 0.3 0 0.96 0.3 0 0.98 0.3 0 1 0.3 0 0 0.32 0 0.02 0.32 0 0.04 0.32 0 0.06 0.32 0 0.08 0.32 0 0.1 0.32 0 0.12 0.32 0 0.14 0.32 0 0.16 0.32 0 0.18 0.32 0 0.2 0.32 0 0.22 0.32 0 0.24 0.32 0 0.26 0.32 0 0.28 0.32 0 0.3 0.32 0 0.32 0.32 0 0.34 0.32 0 0.36 0.32 0 0.38 0.32 0 0.4 0.32 0 0.42 0.32 0 0.44 0.32 0 0.46 0.32 0 0.48 0.32 0 0.5 0.32 0 0.52 0.32 0 0.54 0.32 0 0.56 0.32 0 0.58 0.32 0 0.6 0.32 0 0.62 0.32 0 0.64 0.32 0 0.66 0.32 0 0.68 0.32 0 0.7 0.32 0 0.72 0.32 0 0.74 0.32 0 0.76 0.32 0 0.78 0.32 0 0.8 0.32 0 0.82 0.32 0 0.84 0.32 0 0.86 0.32 0 0.88 0.32 0 0.9 0.32 0 0.92 0.32 0 0.94 0.
[...]
			<PointData Scalars="VitesseX">
				<DataArray Name="VitesseX" type="Float32" format="ascii">
 -0 -0 -0 -0 -0 -0 -0 -0 -0 -0 -0 -0 -0 -0 -0 -0 -0 -0 -0 -0 -0 -0 -nan -nan 0 0 0 0 0 0 0 0 0 0 0 0 0 0 0 -nan -nan -nan -nan -nan -0 -0 -0 -0 -0 -0 -0 -0 -0.000463603 -0.0018471 -0.00412867 -0.00727234 -0.0112285 -0.0159348 -0.021317 -0.0272903 -0.0337603 -0.0406252 -0.0477765 -0.0551016 -0.0624849 -0.06981 -0.0769614 -0.0838262 -0.0902963 -0.0962695 -0.101652 -0.106358 -0.110314 -nan -nan -0.137309 -0.146431 -0.150727 -0.15128 -0.149506 -0.145932 -0.140918 -0.134818 -0.127931 -0.11998 -0.11158 -0.102438 -0.0926437 -0.0827763 -0.0729528 -0.0630763 -0.0532242 -0.0477903 -nan -nan -0.0159348 -0.0112285 -0.00727234 -0.00412867 -0.0018471 -0.000463603 -5.02986e-27 -0 -0.000919894 -0.00366507 -0.00819223 -0.01443 -0.02228 -0.0316183 -0.0422979 -0.0541501 -0.0669882 -0.0806096 -0.0947996 -0.109334 -0.123984 -0.138519 -0.152709 -0.16633 -0.179169 -0.191021 -0.2017 -0.211039 -0.218889 -nan -nan -0.238758 -0.255794 -0.258904 -0.259026 -0.25513 -0.248829 -0.240263 -0.229997 -0.218307 -0.204853 -0.190568 -0.174929 -0.158581 -0.141978 -0.125215 -0.108396 -0.0916493 -0.079038 -nan -nan -0.0316183 -0.02228 -0.01443 -0.00819223 -0.00366507 -0.000919894 -9.98039e-27 -0 -0.00136168 -0.00542524 -0.0121266 -0.0213601 -0.03298 -0.0468032 -0.0626117 -0.080156 -0.0991597 -0.119323 -0.140328 -0.161843 -0.183529 -0.205044 -0.226048 -0.246212 -0.265215 -0.28276 -0.298568 -0.312391 -0.324011 -0.333245 -nan -0.347389 -0.362928 -0.364247 -0.363618 -0.357423 -0.348285 -0.336199 -0.321773 -0.305387 -0.286522 -0.2666 -0.244771 -0.222041 -0.198959 -0.175575 -0.152068 -0.128624 -0.109312 -0.0885381 -0.0691794 -0.0539245 -0.0380315 -0.0246039 -0.0139449 -0.01015 -0.00157007 -1.93891e-26 -0 -0.00178199 -0.00709985 -0.0158697 -0.0279533 -0.04316 -0.06125 -0.081938 -0.104898 -0.129767 -0.156154 -0.183643 -0.211799 -0.240179 -0.268335 -0.295823 -0.32221 -0.347079 -0.370039 -0.390727 -0.408817 -0.424024 -nan -nan -0.454646 -0.465347 -0.465685 -0.463283 -0.454787 -0.442776 -0.427237 -0.408707 -0.387836 -0.363744 -0.33846 -0.310778 -0.28203 -0.252848 -0.22321 -0.193394 -0.163624 -0.137961 -0.11192 -0.0875397 -0.0667299 -0.0469513 -0.0305308 -0.0172186 -0.0125772 -0.00194806 -2.30559e-26 -0 -0.00217419 -0.00866249 -0.0193626 -0.0341057 -0.0526593 -0.0747308 -0.0999722 -0.127985 -0.158328 -0.190523 -0.224061 -0.258414 -0.293041 -0.327394 -0.360932 -0.393127 -0.42347 -0.451483 -0.476724 -0.498796 -0.517349 -nan -0.532118 -0.554061 -0.561372 -0.561129 -0.556418 -0.545644 -0.530799 -0.511935 -0.489448 -0.464372 -0.435348 -0.405031 -0.371865 -0.337574 -0.302789 -0.267355 -0.231739 -0.196239 -0.164484 -0.133656 -0.104643 -0.0787764 -0.055633 -0.0362315 -0.0204911 -0.0149118 -0.00231372 -2.67837e-26 -0 -0.00253211 -0.0100885 -0.02255 -0.0397202 -0.0613281 -0.0870331 -0.11643 -0.149054 -0.184393 -0.221887 -0.260947 -0.300955 -0.341281 -0.38129 -0.420349 -0.457844 -0.493182 -0.525806 -0.555203 -0.580908 -nan -0.598536 -0.630056 -0.6451 -0.649446 -0.648573 -0.641485 -0.628522 -0.610958 -0.589002 -0.56275 -0.533805 -0.500262 -0.465332 -0.427056 -0.387726 -0.347945 -0.30731 -0.266542 -0.226102 -0.188476 -0.153365 -0.120147 -0.0896186 -0.0636073 -0.0412749 -0.0234328 -0.0105118 -0.00264745 -3.02113e-26 -0 -0.0028501 -0.0113554 -0.0253819 -0.0447083 -0.0690297 -0.0979628 -0.131051 -0.167773 -0.207549 -0.249752 -0.293716 -0.338749 -0.38414 -0.429172 -0.473137 -0.51534 -0.555116 -0.591838 -0.624926 -nan -nan -0.692613 -0.71374 -0.726081 -0.727958 -0.726432 -0.717031 -0.702057 -0.68192 -0.657127 -0.627425 -0.594998 -0.557452 -0.51845 -0.475517 -0.431706 -0.38759 -0.342435 -0.297304 -0.252804 -0.209508 -0.170718 -0.133781 -0.0995038 -0.0706566 -0.0457481 -0.026035 -0.0117121 -0.00294171 -3.32199e-26 -0 -0.00312313 -0.0124433 -0.0278135 -0.0489913 -0.0756427 -0.107348 -0.143606 -0.183845 -0.227432 -0.273678 -0.321854 -0.371201 -0.42094 -0.470287 -0.518463 -0.564709 -0.608296 -0.648535 -0.684794 -nan -0.733938 -0.768001 -0.78484 -0.795542 -0.795613 -0.79318 -0.781817 -0.764966 -0.742498 -0.715168 -0.682435 -0.646883 -0.605908 -0.56349 -0.516521 -0.468864 -0.42109 -0.372157 -0.323544 -0.275802 -0.227192 -0.185399 -0.145327 -0.108773 -0.0766261 -0.0498457 -0.0282459 -0.0127208 -0.00319106 -3.57402e-26 -0 -0.00334692 -0.0133349 -0.0298064 -0.0525017 -0.0810628 -0.115039 -0.153896 -0.197019 -0.243728 -0.293288 -0.344916 -0.397799 -0.451102 -0.503985 -0.555613 -0.605173 -0.651882 -0.695005 -nan -0.763745 -0.804393 -0.827435 -0.842974 -0.851996 -0.851671 -0.847537 -0.834764 -0.816212 -0.79171 -0.762175 -0.726897 -0.68866 -0.644853 -0.5997 -0.550126 -0.500015 -0.448511 -0.395939 -0.344757 -0.294438 -0.241302 -0.197213 -0.15467 -0.115462 -0.0814752 -0.0529278 -0.0300362 -0.0135482 -0.00339156 -3.7724e-26 -0 -0.00351792 -0.0140162 -0.0313293 -0.0551841 -0.0852045 -0.120917 -0.161758 -0.207085 -0.256181 -0.308273 -0.362539 -0.418123 -0.47415 -0.529734 -0.584 -0.636092 -0.685188 -nan -0.772303 -0.822104 -0.850761 -0.872386 -0.887301 -0.895125 -0.894476 -0.888982 -0.875082 -0.855071 -0.82887 -0.79743 -0.760151 -0.719562 -0.673612 -0.626026 -0.574381 -0.522031 -0.4681 -0.41336 -0.359466 -0.303224 -0.286195 0.473319 -0.161636 -0.120397 -0.0851226 -0.0551294 -0.0311729 -0.0228792 -0.00354038 -3.9137e-26 -0 -0.00363344 -0.0144765 -0.0323581 -0.0569962 -0.0880024 -0.124888 -0.16707 -0.213885 -0.264593 -0.318396 -0.374444 -0.431854 -0.48972 -nan -nan -0.688875 -0.735079 -0.779326 -0.819754 -0.854078 -0.881855 -0.902805 -0.917308 -0.924385 -0.923604 -0.917484 -0.902875 -0.8819 -0.854533 -0.821902 -0.783257 -0.741393 -0.693787 -0.644995 -0.591416 -0.537519 -0.482053 -0.425499 -0.369899 -0.311774 -0.308325 -0.202788 -0.166485 -0.123911 -0.0876547 -0.0567969 -0.0321114 -0.0235814 -0.00365168 -3.99558e-26 -0 -0.00369166 -0.0147084 -0.0328765 -0.0579095 -0.0894125 -0.126889 -0.169747 -0.217312 -0.268833 -0.323498 -0.380444 -0.438773 -0.497567 -nan -nan -0.716124 -0.755978 -0.799174 -0.838171 -0.871557 -0.898635 -0.918959 -0.933053 -0.938849 -0.937652 -0.930012 -0.914407 -0.892604 -0.864358 -0.830953 -0.791156 -0.747514 -0.699222 -0.648817 -0.595466 -0.540558 -0.485231 -0.428503 -0.372085 -0.314321 -0.183373 -0.213491 -0.167666 -0.125063 -0.0884857 -0.0573008 -0.0325742 -0.0237533 -0.00367492 -4.01675e-26 -0 -0.00369166 -0.0147084 -0.0328765 -0.0579095 -0.0894125 -0.126889 -0.169747 -0.217312 -0.268833 -0.323498 -0.380444 -nan -nan -0.593156 -0.650213 -0.703351 -0.752799 -0.797869 -0.837537 -0.871214 -0.898435 -0.918833 -0.932962 -0.93881 -0.937678 -0.930045 -0.914382 -0.89235 -0.863973 -0.830188 -0.790615 -0.74781 -0.698741 -0.648947 -0.594504 -0.540251 -0.483822 -0.426822 -0.371247 -0.314815 -0.253967 -0.213184 -0.167457 -0.125018 -0.0884651 -0.0572712 -0.0325938 -0.0146123 -0.00367396 -3.97688e-26 -0 -0.00363344 -0.0144765 -0.0323581 -0.0569962 -0.0880024 -0.124888 -0.16707 -0.213885 -0.264593 -0.318396 -0.374444 -nan -nan -0.587926 -0.645 -0.696596 -0.744876 -0.788733 -0.827404 -0.860113 -0.886356 -0.905806 -0.919192 -0.923877 -0.922579 -0.914108 -0.898162 -0.877561 -0.836818 -0.811025 -0.778882 -20.2145 -0.684989 -0.634753 -0.580661 -0.527493 -0.472723 -0.417397 -0.362909 -0.308488 -0.254468 -0.208055 -0.16218 -0.194803 -0.0869169 -0.0561922 -0.0319679 -0.0143219 -0.00360104 -3.87662e-26 -0 -0.00351792 -0.0140162 -0.0313293 -0.0551841 -0.0852045 -0.120917 -0.161758 -0.207085 -0.256181 -0.308273 -0.362539 -nan -nan -0.570436 -0.624971 -0.675549 -0.722297 -0.764722 -0.802104 -0.833641 -0.858845 -0.877255 -0.89012 -0.894368 -0.884948 -0.876889 -0.868778 -0.848834 -0.822409 -0.789931 -0.751933 -0.708496 -0.659459 -0.606229 -0.549825 -0.507537 -0.454836 -0.402215 -0.349524 -0.297775 -0.247885 -0.200541 -0.156058 -0.105682 -0.0829562 -0.0542253 -0.030841 -0.0138208 -0.00347484 -3.71753e-26 -0 -0.00334692 -0.0133349 -0.0298064 -0.0525017 -0.0810628 -0.115039 -0.153896 -0.197019 -0.243728 -0.293288 -0.344916 -nan -nan -0.544434 -0.595834 -0.644402 -0.689359 -0.729649 -0.764763 -0.795148 -0.819211 -0.83615 -0.848332 -0.844851 -0.844626 -0.841057 -0.826508 -0.806015 -0.780317 -0.749174 -0.712742 -0.671445 -0.626445 -0.579497 -0.530215 -0.474476 -38.6661 -0.380507 -0.330386 -0.281409 -0.234786 -0.190708 -0.148776 -0.110252 -0.0785178 -0.0514932 -0.0293077 -0.013114 -0.00329694 -3.50211e-26 -0 -0.00312313 -0.0124433 -0.0278135 -0.0489913 -0.0756427 -0.107348 -0.143606 -0.183845 -0.227432 -0.273678 -0.321854 -nan -nan -0.511143 -0.559965 -0.606179 -0.648385 -0.685101 -0.716966 -0.74574 -0.768941 -0.785404 -0.79571 -0.796757 -0.791422 -0.78408 -0.77029 -0.750536 -0.725471 -0.695583 -0.661393 -0.623084 -0.581921 -0.538669 -0.492949 -0.445678 -0.392302 -0.242005 -0.305946 -0.260899 -0.21578 -0.227446 -0.169604 -0.101894 0.184869 -0.048039 -0.0273286 -0.0122188 -0.00307152 -3.23372e-26 -0 -0.0028501 -0.0113554 -0.0253819 -0.0447083 -0.0690297 -0.0979628 -0.131051 -0.167773 -0.207549 -0.249752 -0.293716 -nan -nan -0.471529 -0.516971 -0.56002 -0.599395 -0.633821 -0.663935 -0.689203 -0.709507 -0.724422 -0.733894 -0.734056 -0.722049 -0.714267 -0.70098 -0.682414 -0.658709 -0.630568 -0.599027 -0.564231 -0.526974 -0.487584 -0.446332 -0.404263 -0.360802 -0.311449 -0.0645142 -0.236646 -0.194719 -0.125074 -0.236859 -0.705166 -0.0618794 -0.0436396 -0.0248456 -0.0111554 -0.00280417 -2.91654e-26 -0 -0.00253211 -0.0100885 -0.02255 -0.0397202 -0.0613281 -0.0870331 -0.11643 -0.149054 -0.184393 -0.221887 -0.260947 -nan -nan -0.427711 -0.46665 -0.502823 -0.537016 -0.568545 -0.59603 -0.618678 -0.636446 -0.65059 -0.655722 -0.651066 -0.640692 -0.633104 -0.620301 -0.60306 -0.581661 -0.556197 -0.527599 -0.496442 -0.463064 -0.427918 -0.391611 -0.354853 -0.317617 -0.279271 -0.23968 -0.207627 -0.17142 -0.135006 -0.0889742 -0.120897 -0.0549201 -0.0529691 -0.0411632 -0.0099399 -0.00249674 -2.55552e-26 -0 -0.00217419 -0.00866249 -0.0193626 -0.0341057 -0.0526593 -0.0747308 -0.0999722 -0.127985 -0.158328 -0.190523 -0.224061 -nan -nan -0.374362 -0.40897 -0.441538 -0.471233 -0.497723 -0.519978 -0.540146 -0.543849 -1.5134 -0.692552 -0.559053 -0.546658 -0.541903 -0.529714 -0.514412 -0.495336 -0.473015 -0.447857 -0.420541 -0.391738 -0.361624 -0.330575 -0.299088 -0.267727 -0.236168 -0.203826 -0.168757 -0.145526 -0.116535 -0.086203 -0.0117004 -0.0430085 0.0750912 0.157545 -0.00855917 -0.00214548 -2.15626e-26 -0 -0.00178199 -0.00709985 -0.0158697 -0.0279533 -0.04316 -0.06125 -0.081938 -0.104898 -0.129767 -nan -nan -0.252912 -0.289651 -0.318292 -0.346635 -0.372828 -0.397153 -0.419117 -0.441294 -0.425666 -0.694235 -0.477919 -0.462847 -0.451043 1.85269 -0.428831 -0.427508 -0.41596 -0.400377 -0.381843 -0.360819 -0.337951 -0.313979 -0.289343 -0.264163 -0.238735 -0.213302 -0.188205 -0.16322 -0.137181 -19.0285 -0.0939584 -0.0714798 -0.0475287 -0.0314123 -0.0208369 -0.00799775 -0.0141746 -0.00326473 -1.72513e-26 -0 -0.00136168 -0.00542524 -0.0121266 -0.0213601 -0.03298 -0.0468032 -0.0626117 -0.080156 -0.0991597 -nan -nan -0.203475 -0.233152 -0.254591 -0.271988 -0.280469 -0.291125 -0.304496 -0.314617 -0.334942 -0.34944 -0.354372 -0.35517 -0.348383 -0.342873 -0.330424 0.49746 -0.237156 -0.297835 -0.284146 -0.267498 -0.249965 -0.231288 -0.212232 -0.193318 -0.174418 -0.15571 -0.13738 -0.119597 -0.101986 -0.0839417 -0.0701703 -0.0547959 -0.0372319 -0.0244397 -0.0172088 -0.00898347 0.00223888 -0.00281122 -1.26786e-26 -0 -0.000919894 -0.00366507 -0.00819223 -0.01443 -0.02228 -0.0316183 -0.0422979 -nan -nan -0.103667 -0.118163 -0.152396 -0.16935 -0.17991 -0.188418 -0.197577 -0.207723 -0.217687 -0.225935 -0.232896 -0.238697 -0.240638 -0.24084 -0.237458 -0.232 -0.224866 -0.213942 -0.161238 -0.153185 -0.18074 -0.169114 -0.157184 -0.144513 -0.131603 -0.119144 -0.107102 -0.0954349 -0.0841796 -0.0735284 -0.0630565 -0.0520195 -0.0288512 -0.0326942 -0.0241409 -0.016386 -0.0112691 -0.00636256 -0.00242607 0.000937109 -7.92353e-27 -0 -0.000463603 -0.0018471 -0.00412867 -0.00727234 -0.0112285 -nan -nan -0.0390005 -0.0448799 -0.0668485 -0.0824645 -0.100176 -0.102228 -0.106308 -0.117511 -0.124486 -0.129977 -0.134977 -0.136805 -0.135813 -0.13415 -0.131249 -0.126719 -0.121346 -0.116269 -0.1122 -0.102389 -0.0901975 -0.0746482 0.00973511 -0.0624589 -0.0600906 -0.0545468 -0.0485257 -0.0428653 -0.037879 -0.0334553 -0.0295089 -0.0259673 -0.0226249 -0.0192615 -0.01543 -0.0097615 -0.00949558 -0.00656457 -0.00463181 -0.00277519 -0.00125349 -0.000286001 -3.20143e-27 0 7.6503e-16 3.04806e-15 6.81307e-15 1.20007e-14 1.85291e-14 -nan -nan -0.0118899 -0.0150549 -0.0266865 -0.0357326 -0.0400746 -0.0434789 -0.0468248 -0.0510918 -0.0530588 -0.0536267 -0.0525003 -0.0487631 -0.0390335 -0.0333833 -0.0264218 -0.0161238 -0.00468064 0.00100081 0.00163039 0.00933787 0.0208929 0.0244204 0.0285501 0.264461 0.042887 0.0373277 0.0354191 0.0340463 0.0321216 0.029219 0.0257721 0.0219977 0.0180455 0.0144063 0.0111268 0.00789592 0.00656344 0.00417844 0.00232715 0.00117003 0.000470266 9.81067e-05 1.15787e-27 0 0.000463603 0.0018471 0.00412867 0.00727234 0.0112285 0.0159348 -nan -nan 0.0110737 0.0150954 0.0203192 0.0123806 0.0141276 0.0200275 0.0239916 0.029212 0.0347569 0.0413853 0.0488753 0.0565774 0.0657707 0.076722 0.08886 0.100758 0.0919264 0.103137 0.125847 0.137239 0.136687 0.135253 0.132732 0.169581 0.130231 0.119442 0.110992 0.101918 0.0917605 0.0809368 0.0698398 0.0586743 0.0481638 0.0384998 0.0268322 0.022215 0.0151535 0.00950794 0.00528267 0.00233733 0.000574084 5.74311e-27 0 0.000919894 0.00366507 0.00819223 0.01443 0.02228 0.0316183 -nan -nan 0.0492064 0.0588138 0.0680357 0.079945 0.100291 0.166784 -6.90151 0.0870108 0.106026 0.123046 0.134444 0.152233 0.165012 0.181236 0.196783 0.210375 0.201598 0.223381 0.241132 0.338436 0.255902 0.245073 0.236412 0.224527 0.220002 0.203624 0.187001 0.170451 0.153095 0.135036 0.116763 0.0986392 0.0814334 0.0654829 0.0541494 0.0364639 0.0270831 0.0168542 0.009226 0.00418505 0.0010676 1.04784e-26 0 0.00136168 0.00542524 0.0121266 0.0213601 0.03298 0.0468032 0.0626117 0.080156 0.0991597 0.119323 0.140328 0.161843 -nan -nan 0.191123 0.256368 0.447016 0.192758 0.195146 0.248762 0.259745 0.286259 0.304314 0.317705 0.309144 0.333838 1.06359 0.334053 0.407498 0.42348 0.413603 0.363699 0.364795 0.286562 0.259729 0.236621 0.212226 0.187217 0.162029 0.137218 0.113568 0.0915956 0.0741458 0.056518 0.037894 0.0234177 0.0132567 0.00604243 0.00154582 1.51686e-26 0 0.00178199 0.00709985 0.0158697 0.0279533 0.04316 0.06125 0.081938 0.104898 0.129767 0.156154 0.183643 0.211799 0.240179 0.268335 -nan -nan 0.314271 0.209744 0.37311 0.351761 0.273103 0.387552 0.408824 0.421352 0.413856 0.419493 0.487952 0.45827 0.448078 0.44741 0.44653 0.408659 -2.00911 0.356456 0.33143 0.299281 0.268209 0.236658 0.204922 0.173708 0.143948 0.116361 0.0935231 0.0696034 0.0489001 0.0315639 0.016944 0.00777483 0.00199051 1.96271e-26 0 0.00217419 0.00866249 0.0193626 0.0341057 0.0526593 0.0747308 0.0999722 0.127985 0.158328 0.190523 0.224061 0.258414 0.293041 0.327394 -nan -nan 0.382616 0.416703 0.449629 0.453423 0.492551 0.489025 0.508125 0.519993 0.514736 0.505475 0.554959 0.55876 0.551719 0.52817 0.508439 0.48066 0.457387 0.467007 0.396413 0.35707 0.320182 0.282583 0.244762 0.207605 0.172187 0.139389 0.111745 0.0849145 0.0616751 0.0403175 0.0203057 0.00949688 0.00243132 2.38383e-26 0 0.00253211 0.0100885 0.02255 0.0397202 0.0613281 0.0870331 0.11643 0.149054 0.184393 0.221887 0.260947 0.300955 0.341281 0.38129 0.420349 -nan -nan 0.488672 0.514881 0.537077 0.556252 0.58327 0.599587 0.61231 0.609748 0.605158 0.641781 0.633339 0.62251 0.635087 -0.023147 0.557195 0.523443 223.473 0.454042 0.408956 0.367312 0.324261 0.280918 0.238373 0.19781 0.160258 0.12839 0.0987886 0.0725615 0.0481512 0.0233946 0.0110113 0.00282248 2.76688e-26 0 0.0028501 0.0113554 0.0253819 0.0447083 0.0690297 0.0979628 0.131051 0.167773 0.207549 0.249752 0.293716 0.338749 0.38414 0.429172 0.473137 -nan -nan 0.542477 0.57091 0.612656 0.635853 0.663373 0.680978 0.695022 0.697467 0.694461 0.735559 0.712435 0.730971 0.678471 0.64941 0.618388 0.581228 0.611868 0.509894 0.453586 0.408906 0.361033 0.312821 0.265526 0.220447 0.178737 0.143423 0.111187 0.0817372 0.0542793 0.0262268 0.0124179 0.00317649 3.10913e-26 0 0.00312313 0.0124433 0.0278135 0.0489913 0.0756427 0.107348 0.143606 0.183845 0.227432 0.273678 0.321854 0.371201 0.42094 0.470287 0.518463 0.564709 0.608296 0.648535 0.684794 -nan -nan 0.734029 0.75219 0.76704 0.771549 0.768488 -nan -nan -nan -nan 0.712005 0.67897 0.638298 0.655272 0.557623 0.493056 0.444321 0.392316 0.339963 0.288634 0.239818 0.194735 0.157216 0.122015 0.0897278 0.0581563 0.0287254 0.0136924 0.00349565 3.40377e-26 0 0.00334692 0.0133349 0.0298064 0.0525017 0.0810628 0.115039 0.153896 0.197019 0.243728 0.293288 0.344916 0.397799 0.451102 0.503985 0.555613 0.605173 0.651882 0.695005 0.733862 -nan -nan 0.79351 0.812754 0.827598 0.83233 0.82631 -nan -nan -nan -nan 0.86907 0.661781 0.622579 0.705155 0.600179 0.525193 0.47301 0.417614 0.361914 0.307327 0.25558 0.20785 0.169367 0.131738 0.0965328 0.0568386 0.0307444 0.0147813 0.00379326 3.64524e-26 0 0.00351792 0.0140162 0.0313293 0.0551841 0.0852045 0.120917 0.161758 0.207085 0.256181 0.308273 0.362539 0.418123 0.47415 0.529734 0.584 0.636092 0.685188 0.730515 0.771356 0.807068 0.837089 -nan -nan 0.875512 0.879841 0.872002 -nan 0.860944 0.837089 0.807068 0.771356 0.730515 0.685188 -nan -nan 0.552034 0.494437 0.436523 0.378326 0.321126 0.266956 0.21712 0.17983 0.140586 0.0981555 0.057429 0.0327335 0.0157479 0.00406767 3.82991e-26 0 0.00363344 0.0144765 0.0323581 0.0569962 0.0880024 0.124888 0.16707 0.213885 0.264593 0.318396 0.374444 0.431854 0.48972 0.54713 0.603178 0.65698 0.707689 0.754503 0.796686 0.833571 0.864577 -nan -nan 0.909917 0.914068 -nan -nan 0.889215 0.864577 0.833571 0.796686 0.754503 0.707689 -nan -nan 0.567747 0.508987 0.449462 0.38956 0.330569 0.27452 0.22277 0.189999 0.149545 0.0899365 0.0584082 0.0359127 0.0169748 0.00440173 3.95472e-26 0 0.00369166 0.0147084 0.0328765 0.0579095 0.0894125 0.126889 0.169747 0.217312 0.268833 0.323498 0.380444 0.438773 0.497567 0.555896 0.612843 0.667507 0.719028 0.766593 0.809451 0.846928 0.878431 -nan -nan 0.930645 0.934712 -nan -nan 0.903463 0.878431 0.846928 0.809451 0.766593 -nan -nan 0.629976 0.57206 0.513349 0.45336 0.392945 0.333875 0.277575 0.225011 0.194161 0.134646 0.090973 0.0615636 0.0357416 0.0163554 0.00448068 4.01675e-26 0 0.00369166 0.0147084 0.0328765 0.0579095 0.0894125 0.126889 0.169747 0.217312 0.268833 0.323498 0.380444 0.438773 0.497567 0.555896 0.612843 0.667507 0.719028 0.766593 0.809451 0.846928 0.878431 -nan -nan 0.930735 0.937281 -nan -nan 0.903463 0.878431 0.846928 0.809451 0.766593 -nan -nan 0.631656 0.572048 0.51304 0.453049 0.392552 0.333812 0.278344 0.227417 0.186415 0.148306 0.0912648 0.0624334 0.0356041 0.0160689 0.0043862 4.01582e-26 0 0.00363344 0.0144765 0.0323581 0.0569962 0.0880024 0.124888 0.16707 0.213885 0.264593 0.318396 0.374444 0.431854 0.48972 0.54713 0.603178 0.65698 0.707689 0.754503 0.796686 0.833571 0.864577 0.889215 -nan -nan 0.933791 -nan -nan 0.889215 0.864577 0.833571 0.796686 -nan -nan 0.677696 0.619302 0.561228 0.502795 0.443732 0.384599 0.327142 0.272811 0.228982 0.210296 0.400611 0.0883964 0.0585422 0.0352853 0.0166283 0.00434974 3.952e-26 0 0.00351792 0.0140162 0.0313293 0.0551841 0.0852045 0.120917 0.161758 0.207085 0.256181 0.308273 0.362539 0.418123 0.47415 0.529734 0.584 0.636092 0.685188 0.730515 0.771356 0.807068 0.837089 0.860944 -nan -nan 0.907793 -nan 0.878257 0.860944 0.837089 0.807068 -nan -nan 0.729232 0.651244 0.597353 0.542186 0.48552 0.428279 0.371495 0.316684 0.265111 0.204761 0.146724 0.161388 0.0862632 0.0565662 0.0339589 0.0161196 0.00425042 3.82627e-26 0 0.00334692 0.0133349 0.0298064 0.0525017 0.0810628 0.115039 0.153896 0.197019 0.243728 0.293288 0.344916 0.397799 0.451102 0.503985 0.555613 0.605173 0.651882 0.695005 0.733862 0.767838 0.796399 0.819094 -nan -nan -nan -nan 0.835566 0.819094 0.796399 0.767838 -nan -nan 0.666369 0.617125 0.56693