<?xml version="1.0"?>
<VTKFile type="PolyData">
	<PolyData>
		<Piece NumberOfPoints="2601" NumberOfPolys="2500">
			<Points>
				<DataArray type="Float32" NumberOfComponents="3" format="ascii">
 0 0 0 0.02 0 0 0.04 0 0 0.06 0 0 0.08 0 0 0.1 0 0 0.12 0 0 0.14 0 0 0.16 0 0 0.18 0 0 0.2 0 0 0.22 0 0 0.24 0 0 0.26 0 0 0.28 0 0 0.3 0 0 0.32 0 0 0.34 0 0 0.36 0 0 0.38 0 0 0.4 0 0 0.42 0 0 0.44 0 0 0.46 0 0 0.48 0 0 0.5 0 0 0.52 0 0 0.54 0 0 0.56 0 0 0.58 0 0 0.6 0 0 0.62 0 0 0.64 0 0 0.66 0 0 0.68 0 0 0.7 0 0 0.72 0 0 0.74 0 0 0.76 0 0 0.78 0 0 0.8 0 0 0.82 0 0 0.84 0 0 0.86 0 0 0.88 0 0 0.9 0 0 0.92 0 0 0.94 0 0 0.96 0 0 0.98 0 0 1 0 0 0 0.02 0 0.02 0.02 0 0.04 0.02 0 0.06 0.02 0 0.08 0.02 0 0.1 0.02 0 0.12 0.02 0 0.14 0.02 0 0.16 0.02 0 0.18 0.02 0 0.2 0.02 0 0.22 0.02 0 0.24 0.02 0 0.26 0.02 0 0.28 0.02 0 0.3 0.02 0 0.32 0.02 0 0.34 0.02 0 0.36 0.02 0 0.38 0.02 0 0.4 0.02 0 0.42 0.02 0 0.44 0.02 0 0.46 0.02 0 0.48 0.02 0 0.5 0.02 0 0.52 0.02 0 0.54 0.02 0 0.56 0.02 0 0.58 0.02 0 0.6 0.02 0 0.62 0.02 0 0.64 0.02 0 0.66 0.02 0 0.68 0.02 0 0.7 0.02 0 0.72 0.02 0 0.74 0.02 0 0.76 0.02 0 0.78 0.02 0 0.8 0.02 0 0.82 0.02 0 0.84 0.02 0 0.86 0.02 0 0.88 0.02 0 0.9 0.02 0 0.92 0.02 0 0.94 0.02 0 0.96 0.02 0 0.98 0.02 0 1 0.02 0 0 0.04 0 0.02 0.04 0 0.04 0.04 0 0.06 0.04 0 0.08 0.04 0 0.1 0.04 0 0.12 0.04 0 0.14 0.04 0 0.16 0.04 0 0.18 0.04 0 0.2 0.04 0 0.22 0.04 0 0.24 0.04 0 0.26 0.04 0 0.28 0.04 0 0.3 0.04 0 0.32 0.04 0 0.34 0.04 0 0.36 0.04 0 0.38 0.04 0 0.4 0.04 0 0.42 0.04 0 0.44 0.04 0 0.46 0.04 0 0.48 0.04 0 0.5 0.04 0 0.52 0.04 0 0.54 0.04 0 0.56 0.04 0 0.58 0.04 0 0.6 0.04 0 0.62 0.04 0 0.64 0.04 0 0.66 0.04 0 0.68 0.04 0 0.7 0.04 0 0.72 0.04 0 0.74 0.04 0 0.76 0.04 0 0.78 0.04 0 0.8 0.04 0 0.82 0.04 0 0.84 0.04 0 0.86 0.04 0 0.88 0.04 0 0.9 0.04 0 0.92 0.04 0 0.94 0.04 0 0.96 0.04 0 0.98 0.04 0 1 0.04 0 0 0.06 0 0.02 0.06 0 0.04 0.06 0 0.06 0.06 0 0.08 0.06 0 0.1 0.06 0 0.12 0.06 0 0.14 0.06 0 0.16 0.06 0 0.18 0.06 0 0.2 0.06 0 0.22 0.06 0 0.24 0.06 0 0.26 0.06 0 0.28 0.06 0 0.3 0.06 0 0.32 0.06 0 0.34 0.06 0 0.36 0.06 0 0.38 0.06 0 0.4 0.06 0 0.42 0.06 0 0.44 0.06 0 0.46 0.06 0 0.48 0.06 0 0.5 0.06 0 0.52 0.06 0 0.54 0.06 0 0.56 0.06 0 0.58 0.06 0 0.6 0.06 0 0.62 0.06 0 0.64 0.06 0 0.66 0.06 0 0.68 0.06 0 0.7 0.06 0 0.72 0.06 0 0.74 0.06 0 0.76 0.06 0 0.78 0.06 0 0.8 0.06 0 0.82 0.06 0 0.84 0.06 0 0.86 0.06 0 0.88 0.06 0 0.9 0.06 0 0.92 0.06 0 0.94 0.06 0 0.96 0.06 0 0.98 0.06 0 1 0.06 0 0 0.08 0 0.02 0.08 0 0.04 0.08 0 0.06 0.08 0 0.08 0.08 0 0.1 0.08 0 0.12 0.08 0 0.14 0.08 0 0.16 0.08 0 0.18 0.08 0 0.2 0.08 0 0.22 0.08 0 0.24 0.08 0 0.26 0.08 0 0.28 0.08 0 0.3 0.08 0 0.32 0.08 0 0.34 0.08 0 0.36 0.08 0 0.38 0.08 0 0.4 0.08 0 0.42 0.08 0 0.44 0.08 0 0.46 0.08 0 0.48 0.08 0 0.5 0.08 0 0.52 0.08 0 0.54 0.08 0 0.56 0.08 0 0.58 0.08 0 0.6 0.08 0 0.62 0.08 0 0.64 0.08 0 0.66 0.08 0 0.68 0.08 0 0.7 0.08 0 0.72 0.08 0 0.74 0.08 0 0.76 0.08 0 0.78 0.08 0 0.8 0.08 0 0.82 0.08 0 0.84 0.08 0 0.86 0.08 0 0.88 0.08 0 0.9 0.08 0 0.92 0.08 0 0.94 0.08 0 0.96 0.08 0 0.98 0.08 0 1 0.08 0 0 0.1 0 0.02 0.1 0 0.04 0.1 0 0.06 0.1 0 0.08 0.1 0 0.1 0.1 0 0.12 0.1 0 0.14 0.1 0 0.16 0.1 0 0.18 0.1 0 0.2 0.1 0 0.22 0.1 0 0.24 0.1 0 0.26 0.1 0 0.28 0.1 0 0.3 0.1 0 0.32 0.1 0 0.34 0.1 0 0.36 0.1 0 0.38 0.1 0 0.4 0.1 0 0.42 0.1 0 0.44 0.1 0 0.46 0.1 0 0.48 0.1 0 0.5 0.1 0 0.52 0.1 0 0.54 0.1 0 0.56 0.1 0 0.58 0.1 0 0.6 0.1 0 0.62 0.1 0 0.64 0.1 0 0.66 0.1 0 0.68 0.1 0 0.7 0.1 0 0.72 0.1 0 0.74 0.1 0 0.76 0.1 0 0.78 0.1 0 0.8 0.1 0 0.82 0.1 0 0.84 0.1 0 0.86 0.1 0 0.88 0.1 0 0.9 0.1 0 0.92 0.1 0 0.94 0.1 0 0.96 0.1 0 0.98 0.1 0 1 0.1 0 0 0.12 0 0.02 0.12 0 0.04 0.12 0 0.06 0.12 0 0.08 0.12 0 0.1 0.12 0 0.12 0.12 0 0.14 0.12 0 0.16 0.12 0 0.18 0.12 0 0.2 0.12 0 0.22 0.12 0 0.24 0.12 0 0.26 0.12 0 0.28 0.12 0 0.3 0.12 0 0.32 0.12 0 0.34 0.12 0 0.36 0.12 0 0.38 0.12 0 0.4 0.12 0 0.42 0.12 0 0.44 0.12 0 0.46 0.12 0 0.48 0.12 0 0.5 0.12 0 0.52 0.12 0 0.54 0.12 0 0.56 0.12 0 0.58 0.12 0 0.6 0.12 0 0.62 0.12 0 0.64 0.12 0 0.66 0.12 0 0.68 0.12 0 0.7 0.12 0 0.72 0.12 0 0.74 0.12 0 0.76 0.12 0 0.78 0.12 0 0.8 0.12 0 0.82 0.12 0 0.84 0.12 0 0.86 0.12 0 0.88 0.12 0 0.9 0.12 0 0.92 0.12 0 0.94 0.12 0 0.96 0.12 0 0.98 0.12 0 1 0.12 0 0 0.14 0 0.02 0.14 0 0.04 0.14 0 0.06 0.14 0 0.08 0.14 0 0.1 0.14 0 0.12 0.14 0 0.14 0.14 0 0.16 0.14 0 0.18 0.14 0 0.2 0.14 0 0.22 0.14 0 0.24 0.14 0 0.26 0.14 0 0.28 0.14 0 0.3 0.14 0 0.32 0.14 0 0.34 0.14 0 0.36 0.14 0 0.38 0.14 0 0.4 0.14 0 0.42 0.14 0 0.44 0.14 0 0.46 0.14 0 0.48 0.14 0 0.5 0.14 0 0.52 0.14 0 0.54 0.14 0 0.56 0.14 0 0.58 0.14 0 0.6 0.14 0 0.62 0.14 0 0.64 0.14 0 0.66 0.14 0 0.68 0.14 0 0.7 0.14 0 0.72 0.14 0 0.74 0.14 0 0.76 0.14 0 0.78 0.14 0 0.8 0.14 0 0.82 0.14 0 0.84 0.14 0 0.86 0.14 0 0.88 0.14 0 0.9 0.14 0 0.92 0.14 0 0.94 0.14 0 0.96 0.14 0 0.98 0.14 0 1 0.14 0 0 0.16 0 0.02 0.16 0 0.04 0.16 0 0.06 0.16 0 0.08 0.16 0 0.1 0.16 0 0.12 0.16 0 0.14 0.16 0 0.16 0.16 0 0.18 0.16 0 0.2 0.16 0 0.22 0.16 0 0.24 0.16 0 0.26 0.16 0 0.28 0.16 0 0.3 0.16 0 0.32 0.16 0 0.34 0.16 0 0.36 0.16 0 0.38 0.16 0 0.4 0.16 0 0.42 0.16 0 0.44 0.16 0 0.46 0.16 0 0.48 0.16 0 0.5 0.16 0 0.52 0.16 0 0.54 0.16 0 0.56 0.16 0 0.58 0.16 0 0.6 0.16 0 0.62 0.16 0 0.64 0.16 0 0.66 0.16 0 0.68 0.16 0 0.7 0.16 0 0.72 0.16 0 0.74 0.16 0 0.76 0.16 0 0.78 0.16 0 0.8 0.16 0 0.82 0.16 0 0.84 0.16 0 0.86 0.16 0 0.88 0.16 0 0.9 0.16 0 0.92 0.16 0 0.94 0.16 0 0.96 0.16 0 0.98 0.16 0 1 0.16 0 0 0.18 0 0.02 0.18 0 0.04 0.18 0 0.06 0.18 0 0.08 0.18 0 0.1 0.18 0 0.12 0.18 0 0.14 0.18 0 0.16 0.18 0 0.18 0.18 0 0.2 0.18 0 0.22 0.18 0 0.24 0.18 0 0.26 0.18 0 0.28 0.18 0 0.3 0.18 0 0.32 0.18 0 0.34 0.18 0 0.36 0.18 0 0.38 0.18 0 0.4 0.18 0 0.42 0.18 0 0.44 0.18 0 0.46 0.18 0 0.48 0.18 0 0.5 0.18 0 0.52 0.18 0 0.54 0.18 0 0.56 0.18 0 0.58 0.18 0 0.6 0.18 0 0.62 0.18 0 0.64 0.18 0 0.66 0.18 0 0.68 0.18 0 0.7 0.18 0 0.72 0.18 0 0.74 0.18 0 0.76 0.18 0 0.78 0.18 0 0.8 0.18 0 0.82 0.18 0 0.84 0.18 0 0.86 0.18 0 0.88 0.18 0 0.9 0.18 0 0.92 0.18 0 0.94 0.18 0 0.96 0.18 0 0.98 0.18 0 1 0.18 0 0 0.2 0 0.02 0.2 0 0.04 0.2 0 0.06 0.2 0 0.08 0.2 0 0.1 0.2 0 0.12 0.2 0 0.14 0.2 0 0.16 0.2 0 0.18 0.2 0 0.2 0.2 0 0.22 0.2 0 0.24 0.2 0 0.26 0.2 0 0.28 0.2 0 0.3 0.2 0 0.32 0.2 0 0.34 0.2 0 0.36 0.2 0 0.38 0.2 0 0.4 0.2 0 0.42 0.2 0 0.44 0.2 0 0.46 0.2 0 0.48 0.2 0 0.5 0.2 0 0.52 0.2 0 0.54 0.2 0 0.56 0.2 0 0.58 0.2 0 0.6 0.2 0 0.62 0.2 0 0.64 0.2 0 0.66 0.2 0 0.68 0.2 0 0.7 0.2 0 0.72 0.2 0 0.74 0.2 0 0.76 0.2 0 0.78 0.2 0 0.8 0.2 0 0.82 0.2 0 0.84 0.2 0 0.86 0.2 0 0.88 0.2 0 0.9 0.2 0 0.92 0.2 0 0.94 0.2 0 0.96 0.2 0 0.98 0.2 0 1 0.2 0 0 0.22 0 0.02 0.22 0 0.04 0.22 0 0.06 0.22 0 0.08 0.22 0 0.1 0.22 0 0.12 0.22 0 0.14 0.22 0 0.16 0.22 0 0.18 0.22 0 0.2 0.22 0 0.22 0.22 0 0.24 0.22 0 0.26 0.22 0 0.28 0.22 0 0.3 0.22 0 0.32 0.22 0 0.34 0.22 0 0.36 0.22 0 0.38 0.22 0 0.4 0.22 0 0.42 0.22 0 0.44 0.22 0 0.46 0.22 0 0.48 0.22 0 0.5 0.22 0 0.52 0.22 0 0.54 0.22 0 0.56 0.22 0 0.58 0.22 0 0.6 0.22 0 0.62 0.22 0 0.64 0.22 0 0.66 0.22 0 0.68 0.22 0 0.7 0.22 0 0.72 0.22 0 0.74 0.22 0 0.76 0.22 0 0.78 0.22 0 0.8 0.22 0 0.82 0.22 0 0.84 0.22 0 0.86 0.22 0 0.88 0.22 0 0.9 0.22 0 0.92 0.22 0 0.94 0.22 0 0.96 0.22 0 0.98 0.22 0 1 0.22 0 0 0.24 0 0.02 0.24 0 0.04 0.24 0 0.06 0.24 0 0.08 0.24 0 0.1 0.24 0 0.12 0.24 0 0.14 0.24 0 0.16 0.24 0 0.18 0.24 0 0.2 0.24 0 0.22 0.24 0 0.24 0.24 0 0.26 0.24 0 0.28 0.24 0 0.3 0.24 0 0.32 0.24 0 0.34 0.24 0 0.36 0.24 0 0.38 0.24 0 0.4 0.24 0 0.42 0.24 0 0.44 0.24 0 0.46 0.24 0 0.48 0.24 0 0.5 0.24 0 0.52 0.24 0 0.54 0.24 0 0.56 0.24 0 0.58 0.24 0 0.6 0.24 0 0.62 0.24 0 0.64 0.24 0 0.66 0.24 0 0.68 0.24 0 0.7 0.24 0 0.72 0.24 0 0.74 0.24 0 0.76 0.24 0 0.78 0.24 0 0.8 0.24 0 0.82 0.24 0 0.84 0.24 0 0.86 0.24 0 0.88 0.24 0 0.9 0.24 0 0.92 0.24 0 0.94 0.24 0 0.96 0.24 0 0.98 0.24 0 1 0.24 0 0 0.26 0 0.02 0.26 0 0.04 0.26 0 0.06 0.26 0 0.08 0.26 0 0.1 0.26 0 0.12 0.26 0 0.14 0.26 0 0.16 0.26 0 0.18 0.26 0 0.2 0.26 0 0.22 0.26 0 0.24 0.26 0 0.26 0.26 0 0.28 0.26 0 0.3 0.26 0 0.32 0.26 0 0.34 0.26 0 0.36 0.26 0 0.38 0.26 0 0.4 0.26 0 0.42 0.26 0 0.44 0.26 0 0.46 0.26 0 0.48 0.26 0 0.5 0.26 0 0.52 0.26 0 0.54 0.26 0 0.56 0.26 0 0.58 0.26 0 0.6 0.26 0 0.62 0.26 0 0.64 0.26 0 0.66 0.26 0 0.68 0.26 0 0.7 0.26 0 0.72 0.26 0 0.74 0.26 0 0.76 0.26 0 0.78 0.26 0 0.8 0.26 0 0.82 0.26 0 0.84 0.26 0 0.86 0.26 0 0.88 0.26 0 0.9 0.26 0 0.92 0.26 0 0.94 0.26 0 0.96 0.26 0 0.98 0.26 0 1 0.26 0 0 0.28 0 0.02 0.28 0 0.04 0.28 0 0.06 0.28 0 0.08 0.28 0 0.1 0.28 0 0.12 0.28 0 0.14 0.28 0 0.16 0.28 0 0.18 0.28 0 0.2 0.28 0 0.22 0.28 0 0.24 0.28 0 0.26 0.28 0 0.28 0.28 0 0.3 0.28 0 0.32 0.28 0 0.34 0.28 0 0.36 0.28 0 0.38 0.28 0 0.4 0.28 0 0.42 0.28 0 0.44 0.28 0 0.46 0.28 0 0.48 0.28 0 0.5 0.28 0 0.52 0.28 0 0.54 0.28 0 0.56 0.28 0 0.58 0.28 0 0.6 0.28 0 0.62 0.28 0 0.64 0.28 0 0.66 0.28 0 0.68 0.28 0 0.7 0.28 0 0.72 0.28 0 0.74 0.28 0 0.76 0.28 0 0.78 0.28 0 0.8 0.28 0 0.82 0.28 0 0.84 0.28 0 0.86 0.28 0 0.88 0.28 0 0.9 0.28 0 0.92 0.28 0 0.94 0.28 0 0.96 0.28 0 0.98 0.28 0 1 0.28 0 0 0.3 0 0.02 0.3 0 0.04 0.3 0 0.06 0.3 0 0.08 0.3 0 0.1 0.3 0 0.12 0.3 0 0.14 0.3 0 0.16 0.3 0 0.18 0.3 0 0.2 0.3 0 0.22 0.3 0 0.24 0.3 0 0.26 0.3 0 0.28 0.3 0 0.3 0.3 0 0.32 0.3 0 0.34 0.3 0 0.36 0.3 0 0.38 0.3 0 0.4 0.3 0 0.42 0.3 0 0.44 0.3 0 0.46 0.3 0 0.48 0.3 0 0.5 0.3 0 0.52 0.3 0 0.54 0.3 0 0.56 0.3 0 0.58 0.3 0 0.6 0.3 0 0.62 0.3 0 0.64 0.3 0 0.66 0.3 0 0.68 0.3 0 0.7 0.3 0 0.72 0.3 0 0.74 0.3 0 0.76 0.3 0 0.78 0.3 0 0.8 0.3 0 0.82 0.3 0 0.84 0.3 0 0.86 0.3 0 0.88 0.3 0 0.9 0.3 0 0.92 0.3 0 0.94 0.3 0 0.96 0.3 0 0.98 0.3 0 1 0.3 0 0 0.32 0 0.02 0.32 0 0.04 0.32 0 0.06 0.32 0 0.08 0.32 0 0.1 0.32 0 0.12 0.32 0 0.14 0.32 0 0.16 0.32 0 0.18 0.32 0 0.2 0.32 0 0.22 0.32 0 0.24 0.32 0 0.26 0.32 0 0.28 0.32 0 0.3 0.32 0 0.32 0.32 0 0.34 0.32 0 0.36 0.32 0 0.38 0.32 0 0.4 0.32 0 0.42 0.32 0 0.44 0.32 0 0.46 0.32 0 0.48 0.32 0 0.5 0.32 0 0.52 0.32 0 0.54 0.32 0 0.56 0.32 0 0.58 0.32 0 0.6 0.32 0 0.62 0.32 0 0.64 0.32 0 0.66 0.32 0 0.68 0.32 0 0.7 0.32 0 0.72 0.32 0 0.74 0.32 0 0.76 0.32 0 0.78 0.32 0 0.8 0.32 0 0.82 0.32 0 0.84 0.32 0 0.86 0.32 0 0.88 0.32 0 0.9 0.32 0 0.92 0.32 0 0.94 0.
[...]
			<PointData Scalars="VitesseX">
				<DataArray Name="VitesseX" type="Float32" format="ascii">
 0 0 0 0 0 0 0 0 0 0 0 0 0 0 0 0 0 0 0 0 0 0 0 0 0 0 0 0 0 0 0 0 0 0 0 0 0 0 0 0 0 0 0 0 0 0 0 0 0 0 0 0 0.000436953 0.00182916 0.00383428 0.00674303 0.0103754 0.0147438 0.0198176 0.0251873 0.0311527 0.0373061 0.043669 0.0503606 0.0570121 0.0637631 0.0702601 0.0765169 0.0822754 0.0874842 0.0922431 0.096455 0.0982343 0.100959 0.103764 0.105877 0.10617 0.0976291 0.0897935 0.102544 0.0982866 0.0947191 0.0905211 0.0857389 0.0804258 0.0746799 0.0685935 0.0622258 0.0556961 0.0491493 0.0426168 0.0362037 0.0301246 0.024434 0.0191547 0.0143689 0.0101697 0.00672827 0.00375313 0.00167163 0.000443347 4.48049e-27 0 0.000836769 0.00333713 0.00740623 0.0131431 0.0201246 0.0285523 0.0381904 0.0489473 0.0605157 0.0726662 0.0852805 0.0984058 0.111477 0.124673 0.13744 0.1497 0.161105 0.171544 0.180958 0.189132 0.195347 0.20049 0.204447 0.207001 0.207684 0.206007 0.198719 -0.0903144 3.97852 0.188064 0.180246 0.171001 0.160593 0.148795 0.136496 0.123866 0.110927 0.0979631 0.0850664 0.072268 0.0601154 0.0486166 0.0380281 0.0284795 0.0201266 0.0130941 0.00748836 0.00339263 0.000867386 8.89124e-27 0 0.00122246 0.00489633 0.0108513 0.0191132 0.0295646 0.0419179 0.0557952 0.0719188 0.0888665 0.106795 0.12543 0.144725 0.163898 0.183385 0.202148 0.220246 0.237035 0.252474 0.266624 0.278872 0.289163 0.29733 0.302654 0.306292 0.30756 0.306532 0.303307 0.294133 0.278406 0.00663105 0.268101 0.253384 0.237844 0.220519 0.202315 0.183544 0.164322 0.145131 0.126047 0.107091 0.0890657 0.072137 0.0565269 0.0423087 0.0299134 0.0194266 0.0111035 0.00503242 0.00128644 1.31593e-26 0 0.00158054 0.0105334 0.0140953 0.0248953 0.0385476 0.0546147 0.0736364 0.0937361 0.115367 0.138815 0.16341 0.188852 0.212765 0.238379 0.262869 0.286613 0.308792 0.329154 0.347786 0.363913 0.377536 0.388316 0.396207 0.401265 0.402478 0.401125 0.396747 0.389158 0.37907 0.365828 0.350111 0.338482 0.310898 0.288714 0.265017 0.240073 0.215143 0.190329 0.165251 0.140398 0.116697 0.0943283 0.0734549 0.0549122 0.0387575 0.0251855 0.0143882 0.00650433 0.00165845 1.72238e-26 0 0.0012357 0.0158755 0.0170643 0.0468606 0.0467006 0.0658704 0.0726322 0.113337 0.13998 0.168606 0.197776 0.228868 0.259616 0.291005 0.320533 0.349135 0.375651 0.400279 0.423061 0.442831 0.459639 0.472942 0.482692 0.489363 0.48958 0.484872 0.471603 0.472522 0.462935 0.447768 0.428354 0.405766 0.380675 0.353572 0.326117 0.295732 0.260346 0.23123 0.200856 0.169215 0.165433 0.118293 0.0893699 0.0670453 0.0473317 0.0307639 0.0175747 0.00794264 0.00202618 2.10105e-26 0 0.00188166 0.00869119 0.0198561 0.0259882 0.0541224 0.0768148 0.102416 0.131693 0.162584 0.195872 0.229108 0.265293 0.300723 0.337793 0.372023 0.405153 0.436076 0.464801 0.491398 0.514435 0.534099 0.549873 0.561584 0.569398 0.571994 0.570637 0.564902 0.547878 0.534333 0.524524 0.498289 0.471698 0.442511 0.411173 0.378678 0.343663 0.301757 0.288023 0.268331 0.198016 0.165819 0.133653 0.12735 0.0806132 0.0546594 0.0359376 0.0205336 0.00927677 0.00236691 2.44619e-26 0 0.00736137 0.00994543 0.0326979 0.0392334 0.0609063 0.0753579 0.115741 0.148174 0.182854 0.219492 0.258057 0.296073 0.337513 0.377833 0.416566 0.454409 0.489597 0.522303 0.552136 0.578326 0.600501 0.619569 0.632604 0.644611 0.64818 0.642348 0.635418 0.623501 0.60823 1.17446 0.595116 0.530745 0.498911 0.462819 0.423044 0.390528 0.34392 0.306702 0.27201 0.224723 0.186769 0.151134 0.118294 0.0886658 0.0625499 0.0406144 0.0231899 0.0104878 0.0026742 2.75476e-26 0 0.00253528 0.0992878 -0.00258198 0.0431378 0.0667779 0.0748627 0.126362 0.162871 0.201241 0.240563 0.280037 0.325058 0.367998 0.411794 0.454998 0.496711 0.535529 0.569033 3.02837 -0.0579407 0.666395 0.688094 0.694369 0.707598 0.727421 0.732717 0.696046 0.701617 0.667315 0.643964 0.617448 0.584437 0.547803 0.509301 0.469245 0.427846 0.382905 0.335134 0.296659 0.247625 0.205227 0.165567 0.129368 0.0968601 0.068484 0.0445728 0.0254489 0.0115142 0.00293909 3.01798e-26 0 0.00297483 0.0197297 0.0257336 0.0462581 0.0694847 0.0696172 0.134082 0.174242 0.21594 0.259333 0.303361 0.349081 0.392905 0.282993 0.401423 0.546669 0.586723 0.62558 0.657755 0.683319 0.706171 0.727286 0.741999 0.752223 0.758641 0.750497 5.53987 0.806795 0.713753 0.690082 0.661948 0.631035 0.58878 0.546973 0.50384 0.459318 0.41929 0.358251 0.314018 0.266639 0.22074 0.177676 0.138713 0.10393 0.073599 0.0477812 0.0272992 0.0123641 0.00315827 3.23385e-26 0 0.00312086 0.0234893 0.0276494 0.0487216 0.0747318 0.0957616 0.140722 0.182308 0.225754 0.270836 0.31818 0.365918 0.410633 0.451267 0.509041 0.557629 0.601658 0.642381 0.679403 0.71173 0.739436 0.75488 0.783108 0.792027 0.789532 0.782841 0.777137 0.759538 0.720142 0.636599 1.12942 0.663493 0.620113 0.575285 0.529393 0.482754 0.439688 0.376067 0.325725 0.279603 0.231745 0.186857 0.146045 0.109538 0.0775817 0.0502563 0.0287079 0.0130114 0.00332492 3.39912e-26 0 0.00322135 0.0128181 0.0286147 0.0503259 0.0776877 0.109846 0.145554 0.187912 0.232608 0.279093 0.327433 0.376026 32.1866 0.474568 0.525871 0.574786 0.620143 0.662019 0.700288 0.733893 0.745091 9.39733 0.804765 0.815822 0.820536 0.819608 0.812005 0.79751 0.777158 0.751187 0.719657 0.682564 0.640578 0.594314 0.5355 0.488927 0.452204 0.398092 0.338386 0.305454 0.239577 0.193504 0.15114 0.113313 0.080221 0.0520162 0.0296942 0.0134596 0.00344136 3.51093e-26 0 0.0032675 0.0129985 0.0290038 0.0509937 0.0786643 0.11123 0.14713 0.189543 0.234488 0.281383 0.329711 119.302 -0.0671886 0.479779 0.532018 0.580906 0.62679 0.66916 0.707721 15.0748 0.765926 0.795571 0.814875 0.827971 0.833637 0.83306 0.826272 0.812097 0.791912 0.765608 0.733617 0.696441 0.654645 0.608843 0.559907 0.508339 0.456199 0.426254 0.347022 0.302822 0.25932 0.197641 0.154106 0.115405 0.0815402 0.0528301 0.0301024 0.0136626 0.00349146 3.56762e-26 0 0.00326753 0.0130001 0.0290004 0.0509832 0.0786379 0.111201 0.147676 0.189327 0.233971 0.280567 -2.2335 -48.6706 0.412132 0.479857 0.531948 0.580616 0.626424 0.668626 0.327806 0.738517 0.77142 0.796268 0.815032 0.827979 0.833605 0.833031 0.826245 0.812118 0.792012 0.765753 0.733753 0.696537 0.654635 0.608687 0.559692 0.508319 0.455397 0.402372 0.349527 0.31711 0.261093 0.197586 0.153996 0.115271 0.0814221 0.0526793 0.0298676 0.0136335 0.00346524 3.56818e-26 0 0.00321337 0.0127834 0.0284686 0.0500498 0.0771394 0.109011 0.145427 0.185773 0.229166 0.274399 0.272611 0.355057 0.421713 0.471984 0.520704 0.566962 0.609855 0.498061 0.68867 0.727759 0.757994 0.782435 0.801074 0.814104 0.820373 0.82014 0.814484 0.801162 0.78195 0.756611 0.725508 0.689072 0.647856 0.602661 0.554243 0.503301 0.450953 0.398248 0.345618 0.295473 0.251701 0.187908 0.153362 0.113809 0.0803006 0.0521504 0.0296748 0.0134632 0.00333527 3.51192e-26 0 0.00310985 0.0123698 0.0274185 0.0482436 0.0744246 0.105203 0.140888 0.179636 0.221371 -3.90788 0.305989 0.357601 0.404828 0.446748 0.479464 0.544155 40.5428 0.62482 0.669396 0.703598 0.732493 0.756184 0.774582 0.787504 0.794237 0.79415 0.789039 0.776317 0.757837 0.733395 0.703392 0.668343 0.628723 0.585046 0.538005 0.488513 0.437606 0.386253 0.335156 0.285263 0.238869 0.189319 0.138851 0.111581 0.0778408 0.0507183 0.0290043 0.0126546 0.00316112 3.40169e-26 0 0.00295489 0.0117438 0.026117 0.0459022 0.0705411 0.0997051 0.133957 0.170538 -0.195562 0.215785 0.29686 0.339931 0.376667 0.410758 0.477945 0.518942 0.552902 0.597872 0.635349 0.667487 0.694967 0.717801 0.735768 0.748535 0.75551 0.755637 0.751448 0.739704 0.722464 0.699459 0.671161 0.63812 0.60048 0.558743 0.51411 0.467175 0.418399 0.368982 0.320021 0.272181 0.226372 0.184055 0.159062 0.105393 0.0745487 0.0484608 0.027224 0.0120619 0.00300187 3.23498e-26 0 0.00274533 0.0107148 0.0242851 0.0427235 0.0654543 0.0923262 0.124653 0.0677646 0.0776654 0.226096 0.274421 0.316445 0.310635 0.359205 0.447891 110.621 0.516389 0.556732 0.590219 0.620125 0.64608 0.668016 0.685346 0.697684 0.704822 0.705183 0.701942 0.691611 0.676227 0.655249 0.629174 0.59846 0.563018 0.523869 0.482072 0.43826 0.392843 0.346395 0.300299 0.255324 0.212015 0.171855 0.146463 0.115444 0.0716531 0.0456082 0.0250439 0.0112252 0.00280895 3.02125e-26 0 0.00252292 0.00998071 0.0220325 0.0386839 0.0594844 0.0841432 91.8395 1.23376 0.162906 0.21381 0.251187 0.274098 0.322004 0.361509 0.388124 0.368759 0.469504 0.505132 0.535426 0.562771 0.587087 0.607645 0.623915 0.635578 0.643032 0.644006 0.641699 0.633166 0.620045 0.601382 0.577657 0.550023 0.51844 0.482131 0.442992 0.402646 0.361062 0.31855 0.27603 0.234485 0.194661 0.157481 0.124688 0.123269 -0.392096 0.0389193 0.023041 0.0102662 0.00255403 2.75857e-26 0 0.00224243 0.014957 0.019398 0.0607274 0.0521756 0.0740489 0.748179 0.109931 0.157747 0.189502 0.208659 0.250748 0.284891 0.31644 0.350713 0.369127 0.413954 0.444757 0.471974 0.496705 0.518852 0.537522 0.552007 0.562351 0.570496 0.581423 0.588295 0.588327 0.553818 0.536215 0.514605 0.516034 0.482823 0.436682 0.398139 0.36118 0.323797 0.285668 0.247461 0.210116 0.174346 0.140726 0.109957 0.0925138 0.0689672 0.0363943 0.0205495 0.00907135 0.00227861 2.4523e-26 0 0.00192358 0.0153963 0.0163114 0.0116958 0.0442051 0.0625971 0.0752938 0.109171 0.134847 0.153899 0.184609 0.212342 0.227262 0.253651 0.279114 0.314478 0.352204 0.377514 0.401199 0.42284 0.442124 0.458095 0.469811 0.471524 0.488424 0.492927 0.491443 0.485559 0.472913 0.462835 0.447011 0.426871 0.401785 0.406176 0.354717 0.314432 0.281616 0.248488 0.215271 0.182666 0.151407 0.122072 0.0953371 0.0807501 0.0629671 0.0312229 0.018104 0.00802019 0.0019648 2.11404e-26 0 0.000330032 0.00317246 0.0130027 0.0214781 0.035787 0.0427935 0.0682834 0.08664 0.10394 0.125778 0.147823 -0.0317085 0.189863 0.212754 0.233131 0.257834 0.283167 0.304218 0.323906 0.341841 0.356992 0.368241 0.369729 0.39699 0.402996 0.405254 0.404534 0.400398 0.391833 0.386296 0.38738 0.386115 0.353077 0.327358 0.327599 0.268821 0.235441 0.207606 0.179817 0.152478 0.126284 0.10172 0.0793655 0.060738 0.0412617 0.0265756 0.0146807 0.00655142 0.00163077 1.80115e-26 0 -0.00124485 0.00405592 0.0097097 0.0174034 0.0267114 0.0333069 0.050917 0.0639948 0.0763757 0.0910292 0.106262 0.11282 0.141262 0.158133 0.173864 0.190065 0.209211 0.225345 0.240882 0.254188 0.260996 0.245619 -11.1599 0.302688 0.308398 0.311456 0.312022 0.310187 0.305651 0.298652 0.291842 0.27877 0.260969 0.24974 0.227173 0.218644 0.187349 0.163463 0.141637 0.120035 0.0992434 0.0797959 0.0620491 0.0462878 0.0316549 0.0227279 0.0114249 0.00503061 0.00126951 1.45653e-26 0 0.000625804 0.00284852 0.00640302 0.0113214 0.0169906 0.0225768 0.0303117 0.0388142 0.0477962 0.0570724 0.0667955 0.0738466 0.0889689 0.0997355 0.110637 0.110379 0.126292 0.139957 0.152268 0.159562 0.103527 0.173705 0.178405 0.20109 0.209403 0.213025 0.214865 0.214805 0.21467 0.209494 0.203979 0.195115 0.183231 0.175499 0.162449 0.147872 0.133027 0.1171 0.101369 0.0858173 0.0707833 0.056715 0.0439221 0.0325483 0.022047 0.0140966 0.00789967 0.00347934 0.000888459 1.00155e-26 0 0.000342297 0.00138665 0.00302783 0.00495886 0.00690058 0.0100006 0.0123867 0.0147515 0.0177915 0.0211693 0.0250783 0.0290045 0.0346585 0.0184701 0.0368843 0.0516867 -0.0296659 0.0186614 0.0331585 -0.00485479 0.00207358 0.0792677 0.0864005 0.0915658 0.111481 0.113804 0.115712 0.11792 0.123536 0.117644 0.114547 0.111193 0.10634 0.10363 0.095827 0.0868984 0.0943181 0.0692102 0.0595668 0.0503507 0.0413162 0.0328611 0.0252546 0.0185531 0.0126441 0.00723548 0.00434346 0.00186353 0.000516343 4.98496e-27 0 -4.76698e-05 -0.000240268 -0.000669573 -0.00155247 -0.00277282 -0.00419538 -0.00653697 -0.00866539 -0.0112844 -0.0146135 -0.0174433 -0.0212827 -0.0238814 -0.0270876 -0.0278059 -0.0302895 -0.0283001 -0.0268052 -0.0262324 -0.0251646 -0.0188129 -0.016567 -0.0148877 -0.00387113 0.00188931 0.00449141 0.00610247 0.00901893 0.0204018 0.0229646 0.0239282 0.0254424 0.028859 0.0271606 0.0260498 0.0252624 0.0245971 0.0201654 0.0171477 0.0141892 0.011266 0.00855809 0.00624891 0.00436888 0.010762 0.00131671 0.0013577 0.000205638 2.17105e-05 4.66967e-28 0 -0.000450802 -0.00186583 -0.00439137 -0.00820062 -0.0131923 -0.0192962 -0.0254463 -0.0327403 -0.0413093 -0.0504327 -0.0599831 -0.0831526 -0.079942 -0.0865626 -0.0943926 -0.103657 -0.106354 -0.111245 -0.114846 -0.11726 -0.114406 -0.115859 -0.108704 -0.108378 -0.102931 -0.0999821 -0.0963046 -0.0874755 -0.0748756 -0.0697085 -0.0642544 -0.0583531 -0.0488161 -0.0482961 -0.0433219 -0.033722 -0.0283834 -0.0282589 -0.0254239 -0.0220385 -0.0188294 -0.0157787 -0.012783 -0.00986611 -0.00668172 -0.0044442 -0.00312817 -0.00129733 -0.239538 -4.08817e-27 0 -0.000871177 -0.00353574 -0.00807478 -0.0144557 -0.0229211 -0.0329047 -0.0441763 -0.0572052 -0.0710074 -0.0867477 -0.112765 -0.120066 -0.132801 -0.147443 -0.161411 -0.1756 -0.184097 -0.194404 -0.20328 -0.210619 -0.212931 -0.216922 -0.220804 -0.217383 -0.205911 -0.201847 -0.195544 -0.172655 -0.161413 -0.155285 -0.14496 -0.11658 -0.132523 -0.121427 -0.108302 -0.0897645 -0.0894657 -0.0766633 -0.0675336 -0.0578406 -0.0485927 -0.0398327 -0.0315711 -0.0238973 -0.0169083 -0.0116757 -0.00671094 -1.54054 0.0143635 -8.63064e-27 0 -0.00127986 -0.00519051 -0.0117556 -0.0207941 -0.0323949 -0.0463483 -0.0623818 -0.0797136 -0.0997863 -0.129163 -0.143809 -0.163922 -0.185517 -0.20602 -0.227026 -0.246441 -0.261047 -0.278582 -0.293373 -0.30498 -0.312358 -0.321711 -0.313437 -0.314934 -0.307337 -0.30035 -0.292258 -0.28485 -0.277179 -0.266797 -0.2402 -0.224124 -0.208386 -0.191554 -0.171215 -0.15888 -0.137168 -0.122618 -0.108409 -0.0926183 -0.077474 -0.0631707 -0.049799 -0.0374662 -0.0263356 -0.0178479 -0.0102168 -0.00473161 -0.00118806 -1.30506e-26 0 -0.00168263 -0.00676761 -0.01516 -0.0267194 -0.0413683 -0.0591372 -0.0790156 -0.102039 -0.133151 -0.155384 -0.180027 -0.206665 -0.235931 -0.261637 -0.289146 -0.313622 -0.357409 -0.406093 -0.397096 -0.391834 -0.3923 -0.404397 -0.405021 -0.407369 -0.401677 -0.395543 -0.386059 -0.374919 -0.363751 -0.33017 -0.318391 -0.299102 -0.279255 -0.258466 -0.238093 -0.21525 -0.183197 -0.164883 -0.14751 -0.125833 -0.105035 -0.0854456 -0.0671928 -0.0503969 -0.035213 -0.0236881 -0.0135647 -0.00615863 -0.00154813 -1.71406e-26 0 -0.00206994 -0.00826929 -0.0184459 -0.0323778 -0.0498668 -0.0705575 -0.095245 -0.126096 -0.154839 -0.18393 -0.214897 -0.247568 -0.282942 -0.315272 -0.347308 -0.377181 -0.403244 -0.440338 -0.467415 -0.460906 -0.47373 -0.489046 -0.492332 -0.496024 -0.503502 -0.482373 -0.473287 -0.448479 -0.412636 -0.416031 -0.376791 -0.353947 -0.334226 -0.326566 -0.296652 -0.267156 -0.226681 -0.202457 -0.184263 -0.156925 -0.130849 -0.106311 -0.0834601 -0.0624722 -0.0434735 -0.0289877 -0.0166413 -0.00759794 -0.00188317 -2.0935e-26 0 -0.00242682 -0.00963109 -0.0213658 -0.0374897 -0.0573491 -0.081401 -0.110976 -0.141026 -0.176761 -0.210278 -0.247774 -0.28949 -0.331113 -0.364535 -0.399481 -0.436301 -0.463377 -0.490261 -0.516067 -0.540355 -0.555227 -0.565919 -0.574684 -0.575296 -0.57461 -0.563715 -0.553203 -0.427265 -0.518188 -0.496543 -0.472112 -0.444772 -0.414482 -0.382539 -0.349318 -0.315405 -0.277241 -0.236238 -0.217684 -0.185403 -0.15456 -0.125478 -0.0983766 -0.0735405 -0.0512414 -0.0342147 -0.0196962 -0.00883617 -0.00222954 -2.44098e-26 0 -0.00274724 -0.0108632 -0.0239498 -0.0418858 -0.0638332 -0.0909863 -0.122759 -0.158413 -0.195758 -0.234212 -0.281147 -0.324405 -0.364342 -0.40402 -0.444922 -0.483698 -0.516914 -0.548569 -0.577158 -0.602192 -0.628542 -0.640902 -0.640783 -0.645282 -0.643978 -0.635145 -0.625052 -0.594031 -0.583768 -0.557483 -0.534812 -0.505056 -0.469884 -0.432209 -0.396992 -0.359696 -0.31423 -0.277812 -0.247364 -0.210952 -0.175754 -0.142558 -0.11169 -0.0834642 -0.0583491 -0.0386332 -0.0221883 -0.00994354 -0.00252014 -2.74871e-26 0 -0.00302837 -0.0118963 -0.0261807 -0.0456543 -0.0697346 -0.104383 -0.13286 -0.174088 -0.212307 -0.253852 -0.297623 -0.355697 -0.393853 -0.43867 -0.481371 -0.525134 -0.562762 -0.597878 -0.630097 -0.661909 -0.682998 -0.690504 -0.700899 -0.705909 -0.705139 -0.697348 -0.68448 -0.663218 -0.644196 -0.619495 -0.58423 -0.556213 -0.51963 -0.479259 -0.440093 -0.397035 -0.342506 -0.29722 -0.273962 -0.233298 -0.194097 -0.15728 -0.123164 -0.0920254 -0.0644398 -0.0424893 -0.0243531 -0.010911 -0.00276409 -3.01367e-26 0 -0.00326031 -0.0127116 -0.0279378 -0.0486727 -0.074579 -0.109676 -0.14213 -0.183714 -0.226512 -0.277117 -0.318282 -0.379891 -0.420745 -0.466471 -0.543563 -0.592894 -0.602491 -0.639823 -0.672394 -0.701534 -0.731738 -0.743222 -0.752465 -0.755998 -0.755707 -0.748366 -0.733529 -0.712408 -0.693451 -0.667045 -0.619143 -0.598194 -0.559957 -0.518176 -0.477972 -0.419322 -0.358674 -0.325327 -0.295532 -0.251823 -0.209332 -0.169485 -0.132638 -0.0989753 -0.0689567 -0.0457598 -0.0261542 -0.0117093 -0.00296427 -3.23102e-26 0 -0.00343081 -0.0133348 -0.0292632 -0.0509873 -0.0782324 -0.110877 -0.148014 -0.18953 -0.23439 -0.289984 -0.335756 -0.387501 -0.444788 -0.497908 -0.541339 -0.580326 -0.854618 -0.754328 -0.733062 -0.737192 -0.757144 -0.777817 -0.791877 -0.794737 -0.794533 -0.785687 -0.773347 -0.751389 -0.730978 -0.704799 -0.670369 -0.633735 -0.593342 -0.549737 -0.507612 -0.416802 -0.364615 -0.347746 -0.31168 -0.266113 -0.221175 -0.178931 -0.139951 -0.104168 -0.0702116 -0.0482887 -0.0275505 -0.0123247 -0.00312112 -3.39962e-26 0 -0.00353635 -0.0137385 -0.0301858 -0.0526808 -0.080691 -0.11403 -0.153269 -0.196293 -0.241736 -0.296167 -0.346441 -0.398124 -0.450984 -0.51159 -0.557879 -0.603515 -0.647711 -0.688514 -0.736896 -0.76172 -0.781492 -0.800713 -0.818332 -0.820477 -0.820464 -0.813018 -0.781303 -0.780671 -0.757821 -0.728265 -0.692707 -0.655625 -0.614071 -0.567606 -0.523619 -0.468478 -0.398517 -0.369969 -0.323435 -0.275874 -0.229342 -0.185454 -0.145019 -0.108043 -0.0609225 -0.0499736 -0.0285059 -0.0127515 -0.00322321 -3.51109e-26 0 -0.00358241 -0.0139141 -0.0306124 -0.0535166 -0.0836085 -0.116843 -0.155433 -0.199214 -0.245343 -0.301853 -0.348397 -0.400222 -0.453634 -0.516677 -0.561329 -0.608466 -0.653755 -0.695575 -0.733277 -0.766246 -0.792049 -0.811652 -0.826233 -0.833806 -0.833645 -0.8279 -0.807413 -0.796336 -0.77288 -0.7437 -0.708527 -0.668492 -0.626259 -0.573488 -0.5319 -0.485716 -0.417867 -0.380512 -0.330622 -0.281308 -0.233915 -0.189167 -0.147816 -0.110513 -0.0779713 -0.0510056 -0.0290485 -0.0129838 -0.00327486 -3.56752e-26 0 -0.00358216 -0.0139166 -0.0306096 -0.0535375 -0.0837379 -0.118272 -0.154733 -0.197523 -0.250781 -0.299922 -0.347784 -0.400437 -0.454397 -0.516816 -0.562049 -0.609214 -0.653605 -0.695448 -0.735201 -0.766793 -0.792291 -0.811878 -0.825947 -0.832911 -0.833778 -0.82849 -0.813124 -0.796714 -0.772705 -0.742992 -0.708449 -0.669369 -0.627333 -0.581884 -0.532848 -0.46554 -0.430194 -0.381306 -0.331075 -0.281466 -0.23399 -0.189257 -0.147612 -0.109854 -0.0780823 -0.051001 -0.0290406 -0.0129856 -0.00327469 -3.56818e-26 0 -0.00350485 -0.0136103 -0.029946 -0.0524385 -0.0790541 -0.113201 -0.154486 -0.196006 -0.247672 -0.28915 -0.33639 -0.405549 -0.446057 -0.506218 -0.551214 -0.597994 -0.64132 -0.681736 -0.721309 -0.737242 -0.778173 -0.798708 -0.812641 -0.819737 -0.820582 -0.815607 -0.803251 -0.785636 -0.764584 -0.688148 -0.698959 -0.661315 -0.615717 -0.589359 -0.531521 -0.475535 -0.427845 -0.377564 -0.327427 -0.278361 -0.231332 -0.187013 -0.145653 -0.107063 -0.0771944 -0.0503289 -0.0286488 -0.0128148 -0.0032253 -3.5127e-26 0 -0.00337039 -0.0130612 -0.0287077 -0.0496961 -0.0771623 -0.113222 -0.149968 -0.188943 -0.233046 -0.280342 -0.330143 -0.392987 -0.433351 -0.481929 -0.523235 -0.574363 -0.621137 -0.66046 -0.696135 -0.726386 -0.751808 -0.776341 -0.789289 -0.793974 -0.794542 -0.789932 -0.778327 -0.761426 -0.738658 -0.708668 -0.67186 -0.641271 -0.601359 -0.557021 -0.51033 -0.463484 -0.414947 -0.365948 -0.317179 -0.269619 -0.224046 -0.18096 -0.140977 5.57898 -0.0623928 -0.0486519 -0.0276912 -0.0124088 -0.00312376 -3.40217e-26 0 -0.00335775 -0.013001 -0.0283993 -0.0492639 -0.0751901 -0.10579 -0.140844 -0.180031 -0.221727 -0.266381 -0.313236 -0.368764 -0.410464 -0.458316 -0.503615 -0.547555 -0.589268 -0.629161 -0.66229 