<?xml version="1.0"?>
<VTKFile type="PolyData">
	<PolyData>
		<Piece NumberOfPoints="2601" NumberOfPolys="2500">
			<Points>
				<DataArray type="Float32" NumberOfComponents="3" format="ascii">
 0 0 0 0.02 0 0 0.04 0 0 0.06 0 0 0.08 0 0 0.1 0 0 0.12 0 0 0.14 0 0 0.16 0 0 0.18 0 0 0.2 0 0 0.22 0 0 0.24 0 0 0.26 0 0 0.28 0 0 0.3 0 0 0.32 0 0 0.34 0 0 0.36 0 0 0.38 0 0 0.4 0 0 0.42 0 0 0.44 0 0 0.46 0 0 0.48 0 0 0.5 0 0 0.52 0 0 0.54 0 0 0.56 0 0 0.58 0 0 0.6 0 0 0.62 0 0 0.64 0 0 0.66 0 0 0.68 0 0 0.7 0 0 0.72 0 0 0.74 0 0 0.76 0 0 0.78 0 0 0.8 0 0 0.82 0 0 0.84 0 0 0.86 0 0 0.88 0 0 0.9 0 0 0.92 0 0 0.94 0 0 0.96 0 0 0.98 0 0 1 0 0 0 0.02 0 0.02 0.02 0 0.04 0.02 0 0.06 0.02 0 0.08 0.02 0 0.1 0.02 0 0.12 0.02 0 0.14 0.02 0 0.16 0.02 0 0.18 0.02 0 0.2 0.02 0 0.22 0.02 0 0.24 0.02 0 0.26 0.02 0 0.28 0.02 0 0.3 0.02 0 0.32 0.02 0 0.34 0.02 0 0.36 0.02 0 0.38 0.02 0 0.4 0.02 0 0.42 0.02 0 0.44 0.02 0 0.46 0.02 0 0.48 0.02 0 0.5 0.02 0 0.52 0.02 0 0.54 0.02 0 0.56 0.02 0 0.58 0.02 0 0.6 0.02 0 0.62 0.02 0 0.64 0.02 0 0.66 0.02 0 0.68 0.02 0 0.7 0.02 0 0.72 0.02 0 0.74 0.02 0 0.76 0.02 0 0.78 0.02 0 0.8 0.02 0 0.82 0.02 0 0.84 0.02 0 0.86 0.02 0 0.88 0.02 0 0.9 0.02 0 0.92 0.02 0 0.94 0.02 0 0.96 0.02 0 0.98 0.02 0 1 0.02 0 0 0.04 0 0.02 0.04 0 0.04 0.04 0 0.06 0.04 0 0.08 0.04 0 0.1 0.04 0 0.12 0.04 0 0.14 0.04 0 0.16 0.04 0 0.18 0.04 0 0.2 0.04 0 0.22 0.04 0 0.24 0.04 0 0.26 0.04 0 0.28 0.04 0 0.3 0.04 0 0.32 0.04 0 0.34 0.04 0 0.36 0.04 0 0.38 0.04 0 0.4 0.04 0 0.42 0.04 0 0.44 0.04 0 0.46 0.04 0 0.48 0.04 0 0.5 0.04 0 0.52 0.04 0 0.54 0.04 0 0.56 0.04 0 0.58 0.04 0 0.6 0.04 0 0.62 0.04 0 0.64 0.04 0 0.66 0.04 0 0.68 0.04 0 0.7 0.04 0 0.72 0.04 0 0.74 0.04 0 0.76 0.04 0 0.78 0.04 0 0.8 0.04 0 0.82 0.04 0 0.84 0.04 0 0.86 0.04 0 0.88 0.04 0 0.9 0.04 0 0.92 0.04 0 0.94 0.04 0 0.96 0.04 0 0.98 0.04 0 1 0.04 0 0 0.06 0 0.02 0.06 0 0.04 0.06 0 0.06 0.06 0 0.08 0.06 0 0.1 0.06 0 0.12 0.06 0 0.14 0.06 0 0.16 0.06 0 0.18 0.06 0 0.2 0.06 0 0.22 0.06 0 0.24 0.06 0 0.26 0.06 0 0.28 0.06 0 0.3 0.06 0 0.32 0.06 0 0.34 0.06 0 0.36 0.06 0 0.38 0.06 0 0.4 0.06 0 0.42 0.06 0 0.44 0.06 0 0.46 0.06 0 0.48 0.06 0 0.5 0.06 0 0.52 0.06 0 0.54 0.06 0 0.56 0.06 0 0.58 0.06 0 0.6 0.06 0 0.62 0.06 0 0.64 0.06 0 0.66 0.06 0 0.68 0.06 0 0.7 0.06 0 0.72 0.06 0 0.74 0.06 0 0.76 0.06 0 0.78 0.06 0 0.8 0.06 0 0.82 0.06 0 0.84 0.06 0 0.86 0.06 0 0.88 0.06 0 0.9 0.06 0 0.92 0.06 0 0.94 0.06 0 0.96 0.06 0 0.98 0.06 0 1 0.06 0 0 0.08 0 0.02 0.08 0 0.04 0.08 0 0.06 0.08 0 0.08 0.08 0 0.1 0.08 0 0.12 0.08 0 0.14 0.08 0 0.16 0.08 0 0.18 0.08 0 0.2 0.08 0 0.22 0.08 0 0.24 0.08 0 0.26 0.08 0 0.28 0.08 0 0.3 0.08 0 0.32 0.08 0 0.34 0.08 0 0.36 0.08 0 0.38 0.08 0 0.4 0.08 0 0.42 0.08 0 0.44 0.08 0 0.46 0.08 0 0.48 0.08 0 0.5 0.08 0 0.52 0.08 0 0.54 0.08 0 0.56 0.08 0 0.58 0.08 0 0.6 0.08 0 0.62 0.08 0 0.64 0.08 0 0.66 0.08 0 0.68 0.08 0 0.7 0.08 0 0.72 0.08 0 0.74 0.08 0 0.76 0.08 0 0.78 0.08 0 0.8 0.08 0 0.82 0.08 0 0.84 0.08 0 0.86 0.08 0 0.88 0.08 0 0.9 0.08 0 0.92 0.08 0 0.94 0.08 0 0.96 0.08 0 0.98 0.08 0 1 0.08 0 0 0.1 0 0.02 0.1 0 0.04 0.1 0 0.06 0.1 0 0.08 0.1 0 0.1 0.1 0 0.12 0.1 0 0.14 0.1 0 0.16 0.1 0 0.18 0.1 0 0.2 0.1 0 0.22 0.1 0 0.24 0.1 0 0.26 0.1 0 0.28 0.1 0 0.3 0.1 0 0.32 0.1 0 0.34 0.1 0 0.36 0.1 0 0.38 0.1 0 0.4 0.1 0 0.42 0.1 0 0.44 0.1 0 0.46 0.1 0 0.48 0.1 0 0.5 0.1 0 0.52 0.1 0 0.54 0.1 0 0.56 0.1 0 0.58 0.1 0 0.6 0.1 0 0.62 0.1 0 0.64 0.1 0 0.66 0.1 0 0.68 0.1 0 0.7 0.1 0 0.72 0.1 0 0.74 0.1 0 0.76 0.1 0 0.78 0.1 0 0.8 0.1 0 0.82 0.1 0 0.84 0.1 0 0.86 0.1 0 0.88 0.1 0 0.9 0.1 0 0.92 0.1 0 0.94 0.1 0 0.96 0.1 0 0.98 0.1 0 1 0.1 0 0 0.12 0 0.02 0.12 0 0.04 0.12 0 0.06 0.12 0 0.08 0.12 0 0.1 0.12 0 0.12 0.12 0 0.14 0.12 0 0.16 0.12 0 0.18 0.12 0 0.2 0.12 0 0.22 0.12 0 0.24 0.12 0 0.26 0.12 0 0.28 0.12 0 0.3 0.12 0 0.32 0.12 0 0.34 0.12 0 0.36 0.12 0 0.38 0.12 0 0.4 0.12 0 0.42 0.12 0 0.44 0.12 0 0.46 0.12 0 0.48 0.12 0 0.5 0.12 0 0.52 0.12 0 0.54 0.12 0 0.56 0.12 0 0.58 0.12 0 0.6 0.12 0 0.62 0.12 0 0.64 0.12 0 0.66 0.12 0 0.68 0.12 0 0.7 0.12 0 0.72 0.12 0 0.74 0.12 0 0.76 0.12 0 0.78 0.12 0 0.8 0.12 0 0.82 0.12 0 0.84 0.12 0 0.86 0.12 0 0.88 0.12 0 0.9 0.12 0 0.92 0.12 0 0.94 0.12 0 0.96 0.12 0 0.98 0.12 0 1 0.12 0 0 0.14 0 0.02 0.14 0 0.04 0.14 0 0.06 0.14 0 0.08 0.14 0 0.1 0.14 0 0.12 0.14 0 0.14 0.14 0 0.16 0.14 0 0.18 0.14 0 0.2 0.14 0 0.22 0.14 0 0.24 0.14 0 0.26 0.14 0 0.28 0.14 0 0.3 0.14 0 0.32 0.14 0 0.34 0.14 0 0.36 0.14 0 0.38 0.14 0 0.4 0.14 0 0.42 0.14 0 0.44 0.14 0 0.46 0.14 0 0.48 0.14 0 0.5 0.14 0 0.52 0.14 0 0.54 0.14 0 0.56 0.14 0 0.58 0.14 0 0.6 0.14 0 0.62 0.14 0 0.64 0.14 0 0.66 0.14 0 0.68 0.14 0 0.7 0.14 0 0.72 0.14 0 0.74 0.14 0 0.76 0.14 0 0.78 0.14 0 0.8 0.14 0 0.82 0.14 0 0.84 0.14 0 0.86 0.14 0 0.88 0.14 0 0.9 0.14 0 0.92 0.14 0 0.94 0.14 0 0.96 0.14 0 0.98 0.14 0 1 0.14 0 0 0.16 0 0.02 0.16 0 0.04 0.16 0 0.06 0.16 0 0.08 0.16 0 0.1 0.16 0 0.12 0.16 0 0.14 0.16 0 0.16 0.16 0 0.18 0.16 0 0.2 0.16 0 0.22 0.16 0 0.24 0.16 0 0.26 0.16 0 0.28 0.16 0 0.3 0.16 0 0.32 0.16 0 0.34 0.16 0 0.36 0.16 0 0.38 0.16 0 0.4 0.16 0 0.42 0.16 0 0.44 0.16 0 0.46 0.16 0 0.48 0.16 0 0.5 0.16 0 0.52 0.16 0 0.54 0.16 0 0.56 0.16 0 0.58 0.16 0 0.6 0.16 0 0.62 0.16 0 0.64 0.16 0 0.66 0.16 0 0.68 0.16 0 0.7 0.16 0 0.72 0.16 0 0.74 0.16 0 0.76 0.16 0 0.78 0.16 0 0.8 0.16 0 0.82 0.16 0 0.84 0.16 0 0.86 0.16 0 0.88 0.16 0 0.9 0.16 0 0.92 0.16 0 0.94 0.16 0 0.96 0.16 0 0.98 0.16 0 1 0.16 0 0 0.18 0 0.02 0.18 0 0.04 0.18 0 0.06 0.18 0 0.08 0.18 0 0.1 0.18 0 0.12 0.18 0 0.14 0.18 0 0.16 0.18 0 0.18 0.18 0 0.2 0.18 0 0.22 0.18 0 0.24 0.18 0 0.26 0.18 0 0.28 0.18 0 0.3 0.18 0 0.32 0.18 0 0.34 0.18 0 0.36 0.18 0 0.38 0.18 0 0.4 0.18 0 0.42 0.18 0 0.44 0.18 0 0.46 0.18 0 0.48 0.18 0 0.5 0.18 0 0.52 0.18 0 0.54 0.18 0 0.56 0.18 0 0.58 0.18 0 0.6 0.18 0 0.62 0.18 0 0.64 0.18 0 0.66 0.18 0 0.68 0.18 0 0.7 0.18 0 0.72 0.18 0 0.74 0.18 0 0.76 0.18 0 0.78 0.18 0 0.8 0.18 0 0.82 0.18 0 0.84 0.18 0 0.86 0.18 0 0.88 0.18 0 0.9 0.18 0 0.92 0.18 0 0.94 0.18 0 0.96 0.18 0 0.98 0.18 0 1 0.18 0 0 0.2 0 0.02 0.2 0 0.04 0.2 0 0.06 0.2 0 0.08 0.2 0 0.1 0.2 0 0.12 0.2 0 0.14 0.2 0 0.16 0.2 0 0.18 0.2 0 0.2 0.2 0 0.22 0.2 0 0.24 0.2 0 0.26 0.2 0 0.28 0.2 0 0.3 0.2 0 0.32 0.2 0 0.34 0.2 0 0.36 0.2 0 0.38 0.2 0 0.4 0.2 0 0.42 0.2 0 0.44 0.2 0 0.46 0.2 0 0.48 0.2 0 0.5 0.2 0 0.52 0.2 0 0.54 0.2 0 0.56 0.2 0 0.58 0.2 0 0.6 0.2 0 0.62 0.2 0 0.64 0.2 0 0.66 0.2 0 0.68 0.2 0 0.7 0.2 0 0.72 0.2 0 0.74 0.2 0 0.76 0.2 0 0.78 0.2 0 0.8 0.2 0 0.82 0.2 0 0.84 0.2 0 0.86 0.2 0 0.88 0.2 0 0.9 0.2 0 0.92 0.2 0 0.94 0.2 0 0.96 0.2 0 0.98 0.2 0 1 0.2 0 0 0.22 0 0.02 0.22 0 0.04 0.22 0 0.06 0.22 0 0.08 0.22 0 0.1 0.22 0 0.12 0.22 0 0.14 0.22 0 0.16 0.22 0 0.18 0.22 0 0.2 0.22 0 0.22 0.22 0 0.24 0.22 0 0.26 0.22 0 0.28 0.22 0 0.3 0.22 0 0.32 0.22 0 0.34 0.22 0 0.36 0.22 0 0.38 0.22 0 0.4 0.22 0 0.42 0.22 0 0.44 0.22 0 0.46 0.22 0 0.48 0.22 0 0.5 0.22 0 0.52 0.22 0 0.54 0.22 0 0.56 0.22 0 0.58 0.22 0 0.6 0.22 0 0.62 0.22 0 0.64 0.22 0 0.66 0.22 0 0.68 0.22 0 0.7 0.22 0 0.72 0.22 0 0.74 0.22 0 0.76 0.22 0 0.78 0.22 0 0.8 0.22 0 0.82 0.22 0 0.84 0.22 0 0.86 0.22 0 0.88 0.22 0 0.9 0.22 0 0.92 0.22 0 0.94 0.22 0 0.96 0.22 0 0.98 0.22 0 1 0.22 0 0 0.24 0 0.02 0.24 0 0.04 0.24 0 0.06 0.24 0 0.08 0.24 0 0.1 0.24 0 0.12 0.24 0 0.14 0.24 0 0.16 0.24 0 0.18 0.24 0 0.2 0.24 0 0.22 0.24 0 0.24 0.24 0 0.26 0.24 0 0.28 0.24 0 0.3 0.24 0 0.32 0.24 0 0.34 0.24 0 0.36 0.24 0 0.38 0.24 0 0.4 0.24 0 0.42 0.24 0 0.44 0.24 0 0.46 0.24 0 0.48 0.24 0 0.5 0.24 0 0.52 0.24 0 0.54 0.24 0 0.56 0.24 0 0.58 0.24 0 0.6 0.24 0 0.62 0.24 0 0.64 0.24 0 0.66 0.24 0 0.68 0.24 0 0.7 0.24 0 0.72 0.24 0 0.74 0.24 0 0.76 0.24 0 0.78 0.24 0 0.8 0.24 0 0.82 0.24 0 0.84 0.24 0 0.86 0.24 0 0.88 0.24 0 0.9 0.24 0 0.92 0.24 0 0.94 0.24 0 0.96 0.24 0 0.98 0.24 0 1 0.24 0 0 0.26 0 0.02 0.26 0 0.04 0.26 0 0.06 0.26 0 0.08 0.26 0 0.1 0.26 0 0.12 0.26 0 0.14 0.26 0 0.16 0.26 0 0.18 0.26 0 0.2 0.26 0 0.22 0.26 0 0.24 0.26 0 0.26 0.26 0 0.28 0.26 0 0.3 0.26 0 0.32 0.26 0 0.34 0.26 0 0.36 0.26 0 0.38 0.26 0 0.4 0.26 0 0.42 0.26 0 0.44 0.26 0 0.46 0.26 0 0.48 0.26 0 0.5 0.26 0 0.52 0.26 0 0.54 0.26 0 0.56 0.26 0 0.58 0.26 0 0.6 0.26 0 0.62 0.26 0 0.64 0.26 0 0.66 0.26 0 0.68 0.26 0 0.7 0.26 0 0.72 0.26 0 0.74 0.26 0 0.76 0.26 0 0.78 0.26 0 0.8 0.26 0 0.82 0.26 0 0.84 0.26 0 0.86 0.26 0 0.88 0.26 0 0.9 0.26 0 0.92 0.26 0 0.94 0.26 0 0.96 0.26 0 0.98 0.26 0 1 0.26 0 0 0.28 0 0.02 0.28 0 0.04 0.28 0 0.06 0.28 0 0.08 0.28 0 0.1 0.28 0 0.12 0.28 0 0.14 0.28 0 0.16 0.28 0 0.18 0.28 0 0.2 0.28 0 0.22 0.28 0 0.24 0.28 0 0.26 0.28 0 0.28 0.28 0 0.3 0.28 0 0.32 0.28 0 0.34 0.28 0 0.36 0.28 0 0.38 0.28 0 0.4 0.28 0 0.42 0.28 0 0.44 0.28 0 0.46 0.28 0 0.48 0.28 0 0.5 0.28 0 0.52 0.28 0 0.54 0.28 0 0.56 0.28 0 0.58 0.28 0 0.6 0.28 0 0.62 0.28 0 0.64 0.28 0 0.66 0.28 0 0.68 0.28 0 0.7 0.28 0 0.72 0.28 0 0.74 0.28 0 0.76 0.28 0 0.78 0.28 0 0.8 0.28 0 0.82 0.28 0 0.84 0.28 0 0.86 0.28 0 0.88 0.28 0 0.9 0.28 0 0.92 0.28 0 0.94 0.28 0 0.96 0.28 0 0.98 0.28 0 1 0.28 0 0 0.3 0 0.02 0.3 0 0.04 0.3 0 0.06 0.3 0 0.08 0.3 0 0.1 0.3 0 0.12 0.3 0 0.14 0.3 0 0.16 0.3 0 0.18 0.3 0 0.2 0.3 0 0.22 0.3 0 0.24 0.3 0 0.26 0.3 0 0.28 0.3 0 0.3 0.3 0 0.32 0.3 0 0.34 0.3 0 0.36 0.3 0 0.38 0.3 0 0.4 0.3 0 0.42 0.3 0 0.44 0.3 0 0.46 0.3 0 0.48 0.3 0 0.5 0.3 0 0.52 0.3 0 0.54 0.3 0 0.56 0.3 0 0.58 0.3 0 0.6 0.3 0 0.62 0.3 0 0.64 0.3 0 0.66 0.3 0 0.68 0.3 0 0.7 0.3 0 0.72 0.3 0 0.74 0.3 0 0.76 0.3 0 0.78 0.3 0 0.8 0.3 0 0.82 0.3 0 0.84 0.3 0 0.86 0.3 0 0.88 0.3 0 0.9 0.3 0 0.92 0.3 0 0.94 0.3 0 0.96 0.3 0 0.98 0.3 0 1 0.3 0 0 0.32 0 0.02 0.32 0 0.04 0.32 0 0.06 0.32 0 0.08 0.32 0 0.1 0.32 0 0.12 0.32 0 0.14 0.32 0 0.16 0.32 0 0.18 0.32 0 0.2 0.32 0 0.22 0.32 0 0.24 0.32 0 0.26 0.32 0 0.28 0.32 0 0.3 0.32 0 0.32 0.32 0 0.34 0.32 0 0.36 0.32 0 0.38 0.32 0 0.4 0.32 0 0.42 0.32 0 0.44 0.32 0 0.46 0.32 0 0.48 0.32 0 0.5 0.32 0 0.52 0.32 0 0.54 0.32 0 0.56 0.32 0 0.58 0.32 0 0.6 0.32 0 0.62 0.32 0 0.64 0.32 0 0.66 0.32 0 0.68 0.32 0 0.7 0.32 0 0.72 0.32 0 0.74 0.32 0 0.76 0.32 0 0.78 0.32 0 0.8 0.32 0 0.82 0.32 0 0.84 0.32 0 0.86 0.32 0 0.88 0.32 0 0.9 0.32 0 0.92 0.32 0 0.94 0.
[...]
			<PointData Scalars="VitesseX">
				<DataArray Name="VitesseX" type="Float32" format="ascii">
 0 0 0 0 0 0 0 0 0 0 0 0 0 0 0 0 0 0 0 0 0 0 0 0 0 0 0 0 0 0 0 0 0 0 0 0 0 0 0 0 0 0 0 0 0 0 0 0 0 0 -0 0 -4.4568e-05 -0.000173052 -0.000388159 -0.00067628 -0.00104304 -0.00147693 -0.00197475 -0.00252133 -0.00311563 -0.00375699 -0.00442066 -0.0076322 -0.00864685 -0.00643209 -0.00708811 -0.00772225 -0.00831771 -0.00886265 -0.00935184 -0.0168826 0.00120027 -0.0102092 -0.010591 -0.0107565 -0.0108182 -0.0107897 -0.0106679 -0.0104622 -0.0101765 -0.00981829 -0.00938813 -0.00889136 -0.00833696 -0.00773744 -0.00710562 -0.00644743 -0.00577742 -0.00510691 -0.00442683 -0.00375175 -0.00311952 -0.00252038 -0.00197315 -0.00147457 -0.00103921 -0.000698772 -0.000388086 -0.00017331 -4.35301e-05 -4.7552e-28 0 -8.8591e-05 -0.000347955 -0.000770113 -0.00134854 -0.00207425 -0.0029359 -0.00392002 -0.00501118 -0.00619227 -0.00744473 -0.00874886 -0.0100819 -0.0114283 -0.0127621 -0.0140628 -0.0153136 -0.0164848 -0.0174222 -0.0145264 -0.0330596 -0.0198285 -0.0206235 -0.021097 -0.0213681 -0.0214596 -0.0213816 -0.0211312 -0.0207173 -0.0201467 -0.0194291 -0.018571 -0.0175855 -0.0164874 -0.0153012 -0.0140553 -0.0127526 -0.0114201 -0.0100726 -0.00872856 -0.00742744 -0.00617195 -0.00505903 -0.00390436 -0.0029179 -0.00205617 -0.00134616 -0.000760332 -0.000341642 -8.5406e-05 -9.29953e-28 0 -0.000136174 -0.000517412 -0.00114286 -0.00199782 -0.00307183 -0.0043509 -0.00581145 -0.00742814 -0.0091747 -0.0110246 -0.012951 -0.0149259 -0.0169245 -0.0189006 -0.0208191 -0.0226809 -1.08752 -0.025789 -0.0274752 -0.0287434 -0.0298089 -0.0306533 -0.0312615 -0.0316322 -0.0317668 -0.0316393 -0.0312626 -0.0306445 -0.0297929 -0.0287244 -0.0274552 -0.0260014 -0.0243855 -0.022637 -0.0207851 -0.0188531 -0.0168815 -0.0148871 -0.0129129 -0.0110065 -0.0091192 -0.00843597 -0.00577796 -0.00431799 -0.00304255 -0.00197439 -0.00111955 -0.00050367 -0.000125937 -1.36979e-27 0 -0.000166465 -0.000660365 -0.00147253 -0.00259182 -0.00400037 -0.00567286 -0.00758117 -0.00969578 -0.0119843 -0.0144111 -0.0169383 -0.0195257 -0.0221325 -0.0247181 -0.027243 -0.029662 -0.0319385 -0.0339802 -0.0358285 -0.0376173 -0.0390238 -0.039777 -0.0408291 -0.0412795 -0.0416041 -0.0414013 -0.0409052 -0.0400911 -0.0389764 -0.0375779 -0.0359139 -0.0340046 -0.0318835 -0.0296096 -0.027183 -0.0246437 -0.0220811 -0.0194839 -0.0168872 -0.0143663 -0.0118384 -0.0096882 -0.00755992 -0.00564989 -0.00397942 -0.00257781 -0.00146161 -0.000655775 -0.000164485 -1.78808e-27 0 -0.000203821 -0.000807502 -0.00179588 -0.00315991 -0.00487388 -0.00694843 -0.00924993 -0.0118274 -0.0146187 -0.0175799 -0.0206668 -0.0238292 -0.0270128 -0.0301585 -0.0332336 -0.0361939 -0.035189 -0.040668 -0.0438646 -0.0459166 -0.0476114 -0.0489549 -0.0499369 -0.0505208 -0.0507182 -0.0506495 -0.050126 -0.0492197 -0.0479537 -0.0468545 -0.043739 -0.0415043 -0.0389224 -0.0361253 -0.0331503 -0.0300676 -0.0269251 -0.0237485 -0.020544 -0.0174746 -0.0145445 -0.011779 -0.00922067 -0.00688891 -0.00485077 -0.00314189 -0.00178167 -0.000799143 -0.000200444 -2.17826e-27 0 -0.000236538 -0.000938333 -0.00209168 -0.00367978 -0.00567813 -0.00805377 -0.0107665 -0.0137727 -0.0170255 -0.0204741 -0.0240646 -0.0277416 -0.0314484 -0.0351188 -0.0387068 -0.042156 -0.0453993 -0.0483925 -0.0510944 -0.0534642 -0.0554457 -0.0570128 -0.0581585 -0.0588377 -0.0590687 -0.0591866 -0.0584079 -0.0572669 -0.055792 -0.0541951 -0.0510537 -0.0483259 -0.0453126 -0.0420676 -0.0383996 -0.0350249 -0.0313767 -0.027637 -0.0239791 -0.0203423 -0.0169566 -0.0137096 -0.0107344 -0.00801615 -0.00564417 -0.00365673 -0.00207405 -0.000929826 -0.000233247 -2.53416e-27 0 -0.000266796 -0.00105801 -0.00235769 -0.00414629 -0.00639542 -0.00906804 -0.0121209 -0.0155053 -0.0191686 -0.0230533 -0.0270976 -0.0312393 -0.0354115 -0.039559 -0.0435843 -0.0474538 -0.0511078 -0.0544785 -0.0575138 -0.0601671 -0.0623934 -0.0640598 -0.0654267 -0.0662251 -0.0664857 -0.0662215 -0.0654277 -0.0641313 -0.0623482 -0.0601077 -0.0574356 -0.0543822 -0.0510188 -0.0473914 -0.0435544 -0.0394418 -0.0353187 -0.032483 -0.0269912 -0.022953 -0.0190782 -0.0154252 -0.0120744 -0.00901447 -0.00634751 -0.00411369 -0.00233385 -0.00104577 -0.000262378 -2.85017e-27 0 -0.000292981 -0.00116086 -0.0025853 -0.00454433 -0.00701075 -0.00994543 -0.0132896 -0.0169982 -0.0210106 -0.0252669 -0.0297019 -0.0342492 -0.0388369 -0.0433523 -0.0477613 -0.0520056 -0.0560102 -0.0597061 -0.0628948 -0.0659274 -0.0683914 -0.0703285 -0.0717351 -0.0725787 -0.0728541 -0.0725587 -0.071684 -0.0702588 -0.0683009 -0.0658414 -0.0629139 -0.05957 -0.0558709 -0.0518704 -0.0476148 -0.0431784 -0.038665 -0.0340821 -0.0305923 -0.0251395 -0.0208946 -0.0168915 -0.0131956 -0.00987291 -0.00695651 -0.00450577 -0.00255689 -0.00114518 -0.000287379 -3.12132e-27 0 -0.000309626 -0.00122515 -0.00274099 -0.00487274 -0.00752066 -0.0106763 -0.0142765 -0.0182285 -0.0225592 -0.0270695 -0.0318201 -0.0366572 -0.0415869 -0.0464435 -0.0511766 -0.0557392 -0.0599997 -0.0639918 -0.067565 -0.0706827 -0.0733039 -0.0753784 -0.0768841 -0.0777825 -0.0780741 -0.077754 -0.0768131 -0.075283 -0.0731821 -0.0705439 -0.0674086 -0.0638281 -0.0598618 -0.0555701 -0.0510106 -0.0462644 -0.0414148 -0.0365212 -0.03166 -0.0275884 -0.0223848 -0.0180964 -0.01414 -0.0105749 -0.00745236 -0.00482686 -0.00273962 -0.00122656 -0.000307856 -3.34333e-27 0 -0.000328306 -0.00130199 -0.00290174 -0.00510242 -0.00786978 -0.0111606 -0.0149231 -0.0190996 -0.0236158 -0.0284221 -0.0334109 -0.03852 -0.0436874 -0.0488073 -0.0536006 -0.0585987 -0.063106 -0.0672774 -0.0710325 -0.0743108 -0.0770631 -0.07924 -0.0808189 -0.0817589 -0.082062 -0.081725 -0.0807351 -0.0791261 -0.0769167 -0.0741422 -0.0708467 -0.0670838 -0.0629196 -0.0583985 -0.0536088 -0.0486221 -0.0435182 -0.0383742 -0.0332664 -0.0282619 -0.0238828 -0.0190159 -0.014859 -0.0111063 -0.00782598 -0.00507194 -0.00287915 -0.00128869 -0.000323487 -3.5127e-27 0 -0.000339544 -0.00134591 -0.00299794 -0.00527068 -0.00812852 -0.0115268 -0.0154137 -0.019729 -0.0244195 -0.0293653 -0.0345101 -0.0397968 -0.0451325 -0.0507842 -0.0556492 -0.0605434 -0.0651985 -0.0695056 -0.0733837 -0.0767672 -0.0796072 -0.0818517 -0.0834805 -0.084448 -0.0847538 -0.0844103 -0.0833982 -0.0817454 -0.0794602 -0.0765865 -0.0731752 -0.0692839 -0.0649457 -0.060312 -0.0553675 -0.0502153 -0.0449425 -0.0396326 -0.0343659 -0.0292193 -0.0242716 -0.0199143 -0.0153444 -0.0114667 -0.00808087 -0.00523813 -0.00297385 -0.00133123 -0.000334087 -3.62675e-27 0 -0.000345149 -0.00136803 -0.00304722 -0.00535689 -0.00826231 -0.0117198 -0.0156745 -0.0200599 -0.0248207 -0.0298429 -0.0350667 -0.0404426 -0.0461002 -0.0513252 -0.0565179 -0.061539 -0.0662724 -0.0706437 -0.0745847 -0.0780203 -0.0809051 -0.0831798 -0.0848317 -0.0859046 -0.0834133 -0.0857542 -0.0847032 -0.0830062 -0.0806842 -0.0777763 -0.0743113 -0.0703348 -0.0648883 -0.0612387 -0.0562283 -0.0509918 -0.0456447 -0.0402543 -0.0349031 -0.0296784 -0.02466 -0.0199214 -0.0155786 -0.0116468 -0.00820856 -0.00531847 -0.00302036 -0.00135161 -0.000339296 -3.68368e-27 0 -0.000345413 -0.00136867 -0.00304825 -0.00535843 -0.00826298 -0.0117183 -0.0156754 -0.0200605 -0.0248007 -0.0298285 -0.0374189 -0.0417326 -0.0459787 -0.0512858 -0.0565103 -0.0615365 -0.066271 -0.0706433 -0.0746059 -0.078549 -0.0808755 -0.0831968 -0.0848017 -0.0859116 -0.0861156 -0.0857498 -0.0846984 -0.0830095 -0.0806889 -0.0777779 -0.0743146 -0.0703378 -0.0659632 -0.061241 -0.0562256 -0.0495267 -0.0456535 -0.0402541 -0.0349011 -0.0296795 -0.0246649 -0.0199279 -0.0154762 -0.0280231 -0.008211 -0.00531892 -0.00302017 -0.00135161 -0.000339296 -3.68261e-27 0 -0.000335774 -0.00134696 -0.00300215 -0.00527733 -0.00814214 -0.0115539 -0.015445 -0.0197476 -0.0244021 -0.0293758 -0.189989 -0.0400068 -0.0452259 -0.0504958 -0.055652 -0.0606015 -0.0652677 -0.0695981 -0.0746059 -0.0768176 -0.079616 -0.0818631 -0.0835017 -0.0844575 -0.0847577 -0.0843911 -0.0833526 -0.0816763 -0.0793855 -0.0765252 -0.0731344 -0.0692422 -0.0648989 -0.0602467 -0.0553115 -0.0501799 7.12909 -0.0391269 -0.0343112 -0.0291954 -0.0242666 -0.0196152 -0.0153151 -0.0106487 -0.00807871 -0.00523379 -0.00297182 -0.00132998 -0.000333878 -3.62354e-27 0 -0.000325443 -0.00129572 -0.00289787 -0.00510774 -0.00788589 -0.0111953 -0.0149602 -0.0191164 -0.0236621 -0.0292764 -0.0335833 -0.0386404 -0.0437821 -0.0488926 -0.0538843 -0.058676 -0.063208 -0.0673851 -0.0711067 -0.0743627 -0.0771075 -0.079332 -0.0808768 -0.0817762 -0.0820641 -0.081708 -0.0806946 -0.0790631 -0.0768351 -0.074068 -0.0707823 -0.0669567 -0.062807 -0.0583079 -0.053526 -0.0485493 -0.0434813 -0.0330417 -0.0330919 -0.0282535 -0.0234885 -0.0189909 -0.0148345 -0.0110775 -0.00781966 -0.00506656 -0.00287694 -0.00128748 -0.000323221 -3.50741e-27 0 -0.000310027 -0.00123286 -0.00275472 -0.0048529 -0.0074946 -0.0106384 -0.014231 -0.0181876 -0.022486 -0.0289974 -0.0319038 -0.0367592 -0.0416679 -0.0465374 -0.0512885 -0.0558519 -0.0602157 -0.0641299 -0.067671 -0.0708694 -0.073516 -0.0754373 -0.0769531 -0.0778169 -0.0780738 -0.077729 -0.0767666 -0.075215 -0.0730951 -0.0704322 -0.0672889 -0.063709 -0.0597424 -0.0554567 -0.0509042 -0.0461684 -0.0413533 -0.0364643 47.0916 -0.0268211 -0.0223321 -0.0180591 -0.0141092 -0.0105489 -0.00743499 -0.00481908 -0.00273649 -0.00122485 -0.000307488 -3.33608e-27 0 -0.000289452 -0.00115117 -0.00257085 -0.00452668 -0.00699032 -0.0099194 -0.0132603 -0.0169619 -0.0227122 -0.0280409 -0.0297872 -0.0343166 -0.0388998 -0.043449 -0.0478911 -0.0521951 -0.0563643 -0.059879 -0.0631459 -0.0660638 -0.0685147 -0.0704168 -0.071806 -0.0726224 -0.0728535 -0.0725358 -0.0716251 -0.0701726 -0.0681909 -0.0656884 -0.0627677 -0.0594281 -0.0557204 -0.0517231 -0.0474876 -0.0430834 -0.0385702 -0.0340182 -0.0294988 -0.0246739 -0.0208126 -0.0168414 -0.0131614 -0.0098381 -0.00688485 -0.00449547 -0.00255292 -0.001143 -0.000286929 -3.11225e-27 0 -0.000264126 -0.00105068 -0.00234651 -0.00413271 -0.0063876 -0.00908596 -0.0121078 -0.0154936 -0.0374662 -0.0233628 -0.0272015 -0.0313422 -0.0355259 -0.0396776 -0.0437309 -0.049862 -0.0513131 -0.0546893 -0.0577117 -0.0603609 -0.0625749 -0.0642969 -0.0656918 -0.066369 -0.0664786 -0.0661711 -0.0653472 -0.0640106 -0.0621465 -0.0599251 -0.0572546 -0.0542001 -0.0508158 -0.04717 -0.0432969 -0.0392739 -0.0351464 -0.0309841 -0.0269334 -0.022891 -0.0189535 -0.015357 -0.0120026 -0.00897277 -0.00632137 -0.00410425 -0.00232927 -0.00104315 -0.000261863 -2.83946e-27 0 -0.000234731 -0.000933686 -0.00208533 -0.00367312 -0.00567833 -0.00807964 -0.0107632 -0.0137784 -0.017156 -0.0206052 -0.0241787 -0.0278715 -0.0315977 -0.035295 -0.0389065 -0.0423511 -0.0456037 -0.0485933 -0.0512409 -0.0535852 -0.0555654 -0.0593165 -0.0584478 -0.0588968 -0.0590777 -0.0587913 -0.057706 -0.0565633 -0.0552159 -0.0532101 -0.0508305 -0.048112 -0.0451054 -0.0418671 -0.0384008 -0.0348421 -0.0311733 -0.027489 -0.0238384 -0.0202708 -0.0168044 -0.0136277 -0.0106525 -0.00796793 -0.00561793 -0.00299553 -0.00206935 -0.00086758 -0.000232657 -2.52201e-27 0 -0.000201691 -0.000801654 -0.00179086 -0.00315476 -0.00487351 -0.00692602 -0.00925492 -0.0118473 -0.0146847 -0.0176871 -0.0207835 -0.0239648 -0.0271726 -0.0303574 -0.0334879 -0.0364353 -0.0392201 -0.0417958 -0.0441019 -0.046129 -0.0482391 -0.0492411 -0.0500177 -0.0506063 -0.0506695 -0.0504834 -0.049777 -0.0482653 -0.0469653 -0.0456946 -0.0435977 -0.0412619 -0.0386802 -0.0358896 -0.0326328 -0.0298738 -0.0267415 -0.0235876 -0.0204465 -0.0174448 -0.0144721 -0.0116896 -0.00913568 -0.00683379 -0.00481725 -0.00191079 -0.0017769 -0.000792374 -0.000199565 -2.1649e-27 0 -0.000165346 -0.000657372 -0.00146883 -0.00258801 -0.0039981 -0.00567882 -0.00761428 -0.00973417 -0.0120541 -0.0145149 -0.017066 -0.0196825 -0.02232 -0.0249391 -0.0275924 -0.0303074 -0.0327931 -0.0344959 -0.0362019 -0.0378324 -0.0392114 -0.0403088 -0.0410651 -0.0415659 -0.0415689 -0.0413687 -0.0408184 -0.0399017 -0.0381605 -0.0367419 -0.0356917 -0.0337758 -0.0316659 -0.0293581 -0.0269283 -0.0244528 -0.0218782 -0.0192859 -0.0167181 -0.0142149 0.0365527 -0.00956478 -0.00747735 -0.00559338 -0.00394269 -0.00254392 -0.001453 -0.000650135 -0.000163445 -1.77373e-27 0 -0.000126527 -0.000503271 -0.00112385 -0.00198037 -0.00306166 -0.00434817 -0.00584389 -0.00746007 -0.00923331 -0.0111257 -0.0130845 -0.0150929 -0.0171174 -0.0191285 -0.0244393 -0.0229738 -0.024695 -0.0262906 -0.0277027 -0.0289413 -0.0299847 -0.0308206 -0.0317753 -0.0318256 -0.0318113 -0.0315906 -0.0311811 -0.0305136 -0.0295361 -0.0283189 -0.0272072 -0.0258696 -0.0241368 -0.0223789 -0.0204032 -0.0185831 -0.0166585 -0.0146764 -0.0127283 -0.0108274 -0.00888297 -0.00721578 -0.00569836 -0.00426375 -0.00300653 -0.00194777 -0.00111017 -0.000496742 -0.000124964 -1.35463e-27 0 -8.56049e-05 -0.000340658 -0.000761332 -0.00134248 -0.00207873 -0.00295251 -0.00397338 -0.00507092 -0.00627522 -0.00756441 -0.0089003 -0.0102681 -0.0116469 -0.0130197 -0.0174464 -0.0155925 -0.0167845 -0.017885 -0.0188218 -0.0196319 -0.0203252 -0.0208836 -0.0213749 -0.0215755 -0.0366029 -0.021254 -0.0209847 -0.0205278 -0.0199695 -0.0191848 -0.018393 -0.0174172 -0.015991 -0.0148252 -0.0749082 -0.0124932 -0.0111722 -0.009784 -0.00853839 -0.00727632 -0.00606574 -0.00488035 -0.00382747 -0.00286486 -0.00202185 -0.00131202 -0.000749093 -0.000335448 -6.88639e-05 -9.14142e-28 0 -4.34389e-05 -0.000173574 -0.000388867 -0.000685755 -0.00106102 -0.00150874 -0.00203292 -0.00261425 -0.0032218 -0.00388449 -0.00457636 -0.00528266 -0.00599401 -0.00670457 -0.00753022 -0.00806447 -0.00894682 -0.00986101 -0.00951151 -0.00992787 -0.0103799 -0.0106134 -0.010779 -0.0108756 -0.010807 -0.010679 -0.0105181 -0.0102804 -0.00995579 -0.00963541 -0.00916613 -0.00869734 -0.00810841 -0.00734979 -0.0156107 -0.00620144 -0.00556896 -0.00282097 -0.00420917 -0.00339018 -0.00277948 -0.00240184 -0.00189575 -0.00142209 -0.00100552 -0.000653358 -0.000333973 -0.000168663 -4.15915e-05 -4.59221e-28 0 -7.77627e-07 -3.81654e-06 -9.19999e-06 -1.73311e-05 -2.67537e-05 -4.31698e-05 -6.69981e-05 -0.00013409 -0.000142247 -0.000147953 -0.000183154 -0.000215842 -0.000246942 -0.000279407 -0.000325875 -0.000327211 -0.000315565 -0.000227859 -0.000251263 -0.00018185 -0.000121154 -0.000116635 -0.000113033 -8.21309e-05 -1.53595e-05 6.97825e-05 0.000114959 0.00015002 0.000179008 0.01362 0.000939438 0.000646801 0.000214593 0.000222189 0.000593693 0.000296106 0.000128291 0.000270233 0.000195448 0.00015934 0.000146991 0.0419896 6.37497e-05 4.30453e-05 2.69539e-05 1.52655e-05 7.2361e-06 1.13362e-06 6.74755e-07 2.38881e-30 0 4.1254e-05 0.000165041 0.000368439 0.000647509 0.000999289 0.00141898 0.00189237 0.00193395 0.00149192 0.00357402 0.00420897 0.00485147 0.00550005 0.00614246 0.00676004 0.00746202 0.00803181 0.00860705 0.00912694 0.00952603 0.00986125 0.0102152 0.0105241 0.010665 0.0106517 0.0108207 0.0107515 0.010588 0.0111242 0.0100665 0.00961875 0.00913845 0.00858478 0.00787701 0.00737266 0.00668133 0.00588725 0.00526641 0.00456783 0.00386803 0.00322154 0.00260676 0.00202437 0.00150886 0.00105989 0.000684298 0.000386803 0.000172398 4.32645e-05 4.6433e-28 0 7.84914e-05 0.000329015 0.0007395 0.00130407 0.00201489 0.00286084 0.00382274 0.00490587 0.00606968 0.00717636 0.00853595 0.009844 0.0111609 0.0124689 0.0137282 0.0138571 0.016168 0.0172832 0.0182882 0.0192284 0.0199533 0.0204778 0.00700177 0.021255 0.0214555 0.0214236 0.0212126 0.0208103 0.0203766 0.0196579 0.0188091 0.0178424 0.0167907 0.0155739 0.0143106 0.0129994 0.0118396 0.0102173 0.00886058 0.00754802 0.00626733 0.00506074 0.00395279 0.00295045 0.00207603 0.00134271 0.000761633 0.000339375 8.51795e-05 9.1941e-28 0 -0.00122819 0.00047919 0.00109567 0.00193693 0.00299176 0.0042501 0.00566645 0.00728175 0.00901725 0.0108535 0.0127243 0.0146826 0.0166466 0.0186003 0.0205014 0.0222379 -156.028 0.0257177 0.0270576 0.0284995 0.029574 0.0305726 0.0311773 0.0315876 0.0317629 0.0316796 0.031341 0.0308012 0.0300103 0.0289663 0.0277171 0.0262787 0.0247046 0.0228915 0.0210313 0.0190943 0.0171794 0.0151946 0.0133554 0.0111167 0.00922769 0.00745433 0.00581776 0.00434546 0.00305961 0.00198012 0.00112503 0.000501353 0.000125731 1.36012e-27 0 0.000170172 0.000397382 0.00142427 0.00253551 0.00392391 0.00557788 0.00744964 0.00953033 0.0118287 0.0142318 0.0166614 0.0192838 0.0218653 0.0244284 0.0269461 0.0293498 0.0315219 0.0337372 0.0356572 0.0367846 0.0383948 0.0400134 0.0408337 0.0413592 0.0415683 0.0414462 0.0409912 0.0402723 0.0392017 0.03783 0.0361874 0.0343036 0.0322398 0.0298763 0.0274282 0.0248802 0.0223329 0.0197447 0.0171065 0.014512 0.0120446 0.00973273 0.00759284 0.00567253 0.00399536 0.00258693 0.00147349 0.000656242 0.000164302 1.77938e-27 0 0.000198496 0.000310181 0.00168989 0.0030783 0.0047954 0.00679864 0.00912991 0.0115928 0.0144559 0.017396 0.0195187 0.0235635 0.0267375 0.0298718 0.0329397 0.0358946 0.0386775 0.0412386 -805.178 0.0457249 0.0434523 0.0487914 0.0498357 0.050472 0.0507202 0.0538562 0.0500562 0.0490884 0.0477723 0.0460952 0.0440842 0.041788 0.0393416 0.0364264 0.033463 0.0303398 0.0271475 0.0240139 0.0207866 0.0176956 0.0146687 0.0118537 0.00924894 0.00691021 0.00486803 0.00315298 0.00179907 0.000802404 0.000200313 2.1706e-27 0 0.000232274 0.000926802 0.00191732 0.00346052 0.00559972 0.0078879 0.0106443 0.0135992 0.0168685 0.0202912 0.0511519 0.0274384 0.0311839 0.0348483 0.0384154 0.0418525 0.0451083 0.0481219 0.0508281 0.053163 0.0547912 0.0545103 0.0579476 0.0587719 0.0590697 0.0588949 0.058237 0.0571296 0.0555946 0.0536368 0.0512947 0.0486265 0.0460773 0.0423642 0.0389155 0.0353334 0.0317147 0.0278829 0.0241956 0.0206024 0.0170627 0.0137891 0.01076 0.0080393 0.00566369 0.00366854 0.0020906 0.000932992 0.000233139 2.52766e-27 0 0.000261548 0.0010422 0.0023095 0.00380625 0.00632008 0.00885133 0.0119872 0.0153379 0.0189924 0.0228497 0.0268158 0.0309796 0.0351127 0.0392523 0.0432916 0.0471554 0.0508103 0.0542026 0.0572655 0.059927 0.0621753 0.0640037 0.0653581 0.0661822 0.0664848 0.0662679 0.0655314 0.064281 0.062541 0.0603324 0.0577128 0.0547954 0.0512951 0.0476289 0.0437573 0.0397191 0.0356906 0.0317763 0.0273805 0.023134 0.0191862 0.0155041 0.0121023 0.00904223 0.00637023 0.00412608 0.0023482 0.00104853 0.000262351 2.84502e-27 0 0.000286933 0.00114317 0.00255124 0.00445783 0.00693085 0.00982095 0.0131546 0.0168342 0.0206668 0.0250371 0.0294662 0.0339786 0.0340868 0.0429686 0.0474571 0.051713 0.055715 0.0594224 0.0627728 0.0657071 0.0681845 0.0701706 0.0716259 0.0725283 0.0728535 0.0726094 0.0717996 0.070418 0.0684967 0.0660808 0.0632628 0.0694972 0.0561436 0.0521669 0.0479427 0.0435181 0.0390625 0.0342951 0.0307331 0.0252881 0.0210124 0.0169914 0.0132541 0.00990333 0.00697693 0.00451901 0.00257045 0.00114805 0.000287457 3.11736e-27 0 0.000307439 0.00122476 0.00272864 0.00481115 0.00743153 0.0105434 0.014105 0.018047 0.038781 0.0268441 0.031596 0.0364387 0.0408865 0.0455225 0.0508134 0.0554286 0.0597352 0.0637103 0.0672985 0.0704413 0.073095 0.075215 0.0767666 0.0777303 0.0780735 0.0778062 0.0769318 0.0754449 0.0733826 0.0708217 0.071712 0.064059 0.0601562 0.055975 0.0516431 0.0473869 0.041603 0.036724 0.0354059 0.0270703 0.0225139 0.0186275 0.0141997 0.0106115 0.00747594 0.00484202 0.00275441 0.00122986 0.000308042 3.34024e-27 0 0.000323064 0.00128701 0.00287102 0.00505009 0.00781551 0.0110862 0.0148314 0.0189841 -0.0191671 0.0282132 0.0332222 0.038325 0.0434737 0.0485149 0.0528566 0.0582121 0.0628014 0.0669914 0.0707614 0.0740609 0.0768487 0.0790733 0.0806995 0.0817073 0.0820621 0.0817763 0.0808551 0.0792982 0.0771421 563.611 0.071068 0.0674339 0.0634493 0.0587032 0.0539975 0.0488841 0.0437056 0.0386 0.0334707 0.0284578 0.023854 0.0191146 0.014924 0.0111671 0.00786776 0.00509197 0.00289866 0.00131752 0.000326751 3.51059e-27 0 0.000333773 0.00132967 0.00296917 0.00522756 0.00807729 0.0113748 0.0153044 0.0196126 0.0242692 0.0289963 0.0343148 0.0396011 0.044898 0.0501621 0.0552764 0.0602271 0.0648845 0.0692145 0.073104 0.0765081 0.0793889 0.0816845 0.08336 0.084396 0.0847569 0.084461 0.0835229 0.0820681 0.0796941 0.0767667 0.0734398 0.0695836 0.065271 0.0606174 0.0556952 0.0506184 0.0451878 0.0404018 0.0345