<?xml version="1.0"?>
<VTKFile type="PolyData">
	<PolyData>
		<Piece NumberOfPoints="2601" NumberOfPolys="2500">
			<Points>
				<DataArray type="Float32" NumberOfComponents="3" format="ascii">
 0 0 0 0.02 0 0 0.04 0 0 0.06 0 0 0.08 0 0 0.1 0 0 0.12 0 0 0.14 0 0 0.16 0 0 0.18 0 0 0.2 0 0 0.22 0 0 0.24 0 0 0.26 0 0 0.28 0 0 0.3 0 0 0.32 0 0 0.34 0 0 0.36 0 0 0.38 0 0 0.4 0 0 0.42 0 0 0.44 0 0 0.46 0 0 0.48 0 0 0.5 0 0 0.52 0 0 0.54 0 0 0.56 0 0 0.58 0 0 0.6 0 0 0.62 0 0 0.64 0 0 0.66 0 0 0.68 0 0 0.7 0 0 0.72 0 0 0.74 0 0 0.76 0 0 0.78 0 0 0.8 0 0 0.82 0 0 0.84 0 0 0.86 0 0 0.88 0 0 0.9 0 0 0.92 0 0 0.94 0 0 0.96 0 0 0.98 0 0 1 0 0 0 0.02 0 0.02 0.02 0 0.04 0.02 0 0.06 0.02 0 0.08 0.02 0 0.1 0.02 0 0.12 0.02 0 0.14 0.02 0 0.16 0.02 0 0.18 0.02 0 0.2 0.02 0 0.22 0.02 0 0.24 0.02 0 0.26 0.02 0 0.28 0.02 0 0.3 0.02 0 0.32 0.02 0 0.34 0.02 0 0.36 0.02 0 0.38 0.02 0 0.4 0.02 0 0.42 0.02 0 0.44 0.02 0 0.46 0.02 0 0.48 0.02 0 0.5 0.02 0 0.52 0.02 0 0.54 0.02 0 0.56 0.02 0 0.58 0.02 0 0.6 0.02 0 0.62 0.02 0 0.64 0.02 0 0.66 0.02 0 0.68 0.02 0 0.7 0.02 0 0.72 0.02 0 0.74 0.02 0 0.76 0.02 0 0.78 0.02 0 0.8 0.02 0 0.82 0.02 0 0.84 0.02 0 0.86 0.02 0 0.88 0.02 0 0.9 0.02 0 0.92 0.02 0 0.94 0.02 0 0.96 0.02 0 0.98 0.02 0 1 0.02 0 0 0.04 0 0.02 0.04 0 0.04 0.04 0 0.06 0.04 0 0.08 0.04 0 0.1 0.04 0 0.12 0.04 0 0.14 0.04 0 0.16 0.04 0 0.18 0.04 0 0.2 0.04 0 0.22 0.04 0 0.24 0.04 0 0.26 0.04 0 0.28 0.04 0 0.3 0.04 0 0.32 0.04 0 0.34 0.04 0 0.36 0.04 0 0.38 0.04 0 0.4 0.04 0 0.42 0.04 0 0.44 0.04 0 0.46 0.04 0 0.48 0.04 0 0.5 0.04 0 0.52 0.04 0 0.54 0.04 0 0.56 0.04 0 0.58 0.04 0 0.6 0.04 0 0.62 0.04 0 0.64 0.04 0 0.66 0.04 0 0.68 0.04 0 0.7 0.04 0 0.72 0.04 0 0.74 0.04 0 0.76 0.04 0 0.78 0.04 0 0.8 0.04 0 0.82 0.04 0 0.84 0.04 0 0.86 0.04 0 0.88 0.04 0 0.9 0.04 0 0.92 0.04 0 0.94 0.04 0 0.96 0.04 0 0.98 0.04 0 1 0.04 0 0 0.06 0 0.02 0.06 0 0.04 0.06 0 0.06 0.06 0 0.08 0.06 0 0.1 0.06 0 0.12 0.06 0 0.14 0.06 0 0.16 0.06 0 0.18 0.06 0 0.2 0.06 0 0.22 0.06 0 0.24 0.06 0 0.26 0.06 0 0.28 0.06 0 0.3 0.06 0 0.32 0.06 0 0.34 0.06 0 0.36 0.06 0 0.38 0.06 0 0.4 0.06 0 0.42 0.06 0 0.44 0.06 0 0.46 0.06 0 0.48 0.06 0 0.5 0.06 0 0.52 0.06 0 0.54 0.06 0 0.56 0.06 0 0.58 0.06 0 0.6 0.06 0 0.62 0.06 0 0.64 0.06 0 0.66 0.06 0 0.68 0.06 0 0.7 0.06 0 0.72 0.06 0 0.74 0.06 0 0.76 0.06 0 0.78 0.06 0 0.8 0.06 0 0.82 0.06 0 0.84 0.06 0 0.86 0.06 0 0.88 0.06 0 0.9 0.06 0 0.92 0.06 0 0.94 0.06 0 0.96 0.06 0 0.98 0.06 0 1 0.06 0 0 0.08 0 0.02 0.08 0 0.04 0.08 0 0.06 0.08 0 0.08 0.08 0 0.1 0.08 0 0.12 0.08 0 0.14 0.08 0 0.16 0.08 0 0.18 0.08 0 0.2 0.08 0 0.22 0.08 0 0.24 0.08 0 0.26 0.08 0 0.28 0.08 0 0.3 0.08 0 0.32 0.08 0 0.34 0.08 0 0.36 0.08 0 0.38 0.08 0 0.4 0.08 0 0.42 0.08 0 0.44 0.08 0 0.46 0.08 0 0.48 0.08 0 0.5 0.08 0 0.52 0.08 0 0.54 0.08 0 0.56 0.08 0 0.58 0.08 0 0.6 0.08 0 0.62 0.08 0 0.64 0.08 0 0.66 0.08 0 0.68 0.08 0 0.7 0.08 0 0.72 0.08 0 0.74 0.08 0 0.76 0.08 0 0.78 0.08 0 0.8 0.08 0 0.82 0.08 0 0.84 0.08 0 0.86 0.08 0 0.88 0.08 0 0.9 0.08 0 0.92 0.08 0 0.94 0.08 0 0.96 0.08 0 0.98 0.08 0 1 0.08 0 0 0.1 0 0.02 0.1 0 0.04 0.1 0 0.06 0.1 0 0.08 0.1 0 0.1 0.1 0 0.12 0.1 0 0.14 0.1 0 0.16 0.1 0 0.18 0.1 0 0.2 0.1 0 0.22 0.1 0 0.24 0.1 0 0.26 0.1 0 0.28 0.1 0 0.3 0.1 0 0.32 0.1 0 0.34 0.1 0 0.36 0.1 0 0.38 0.1 0 0.4 0.1 0 0.42 0.1 0 0.44 0.1 0 0.46 0.1 0 0.48 0.1 0 0.5 0.1 0 0.52 0.1 0 0.54 0.1 0 0.56 0.1 0 0.58 0.1 0 0.6 0.1 0 0.62 0.1 0 0.64 0.1 0 0.66 0.1 0 0.68 0.1 0 0.7 0.1 0 0.72 0.1 0 0.74 0.1 0 0.76 0.1 0 0.78 0.1 0 0.8 0.1 0 0.82 0.1 0 0.84 0.1 0 0.86 0.1 0 0.88 0.1 0 0.9 0.1 0 0.92 0.1 0 0.94 0.1 0 0.96 0.1 0 0.98 0.1 0 1 0.1 0 0 0.12 0 0.02 0.12 0 0.04 0.12 0 0.06 0.12 0 0.08 0.12 0 0.1 0.12 0 0.12 0.12 0 0.14 0.12 0 0.16 0.12 0 0.18 0.12 0 0.2 0.12 0 0.22 0.12 0 0.24 0.12 0 0.26 0.12 0 0.28 0.12 0 0.3 0.12 0 0.32 0.12 0 0.34 0.12 0 0.36 0.12 0 0.38 0.12 0 0.4 0.12 0 0.42 0.12 0 0.44 0.12 0 0.46 0.12 0 0.48 0.12 0 0.5 0.12 0 0.52 0.12 0 0.54 0.12 0 0.56 0.12 0 0.58 0.12 0 0.6 0.12 0 0.62 0.12 0 0.64 0.12 0 0.66 0.12 0 0.68 0.12 0 0.7 0.12 0 0.72 0.12 0 0.74 0.12 0 0.76 0.12 0 0.78 0.12 0 0.8 0.12 0 0.82 0.12 0 0.84 0.12 0 0.86 0.12 0 0.88 0.12 0 0.9 0.12 0 0.92 0.12 0 0.94 0.12 0 0.96 0.12 0 0.98 0.12 0 1 0.12 0 0 0.14 0 0.02 0.14 0 0.04 0.14 0 0.06 0.14 0 0.08 0.14 0 0.1 0.14 0 0.12 0.14 0 0.14 0.14 0 0.16 0.14 0 0.18 0.14 0 0.2 0.14 0 0.22 0.14 0 0.24 0.14 0 0.26 0.14 0 0.28 0.14 0 0.3 0.14 0 0.32 0.14 0 0.34 0.14 0 0.36 0.14 0 0.38 0.14 0 0.4 0.14 0 0.42 0.14 0 0.44 0.14 0 0.46 0.14 0 0.48 0.14 0 0.5 0.14 0 0.52 0.14 0 0.54 0.14 0 0.56 0.14 0 0.58 0.14 0 0.6 0.14 0 0.62 0.14 0 0.64 0.14 0 0.66 0.14 0 0.68 0.14 0 0.7 0.14 0 0.72 0.14 0 0.74 0.14 0 0.76 0.14 0 0.78 0.14 0 0.8 0.14 0 0.82 0.14 0 0.84 0.14 0 0.86 0.14 0 0.88 0.14 0 0.9 0.14 0 0.92 0.14 0 0.94 0.14 0 0.96 0.14 0 0.98 0.14 0 1 0.14 0 0 0.16 0 0.02 0.16 0 0.04 0.16 0 0.06 0.16 0 0.08 0.16 0 0.1 0.16 0 0.12 0.16 0 0.14 0.16 0 0.16 0.16 0 0.18 0.16 0 0.2 0.16 0 0.22 0.16 0 0.24 0.16 0 0.26 0.16 0 0.28 0.16 0 0.3 0.16 0 0.32 0.16 0 0.34 0.16 0 0.36 0.16 0 0.38 0.16 0 0.4 0.16 0 0.42 0.16 0 0.44 0.16 0 0.46 0.16 0 0.48 0.16 0 0.5 0.16 0 0.52 0.16 0 0.54 0.16 0 0.56 0.16 0 0.58 0.16 0 0.6 0.16 0 0.62 0.16 0 0.64 0.16 0 0.66 0.16 0 0.68 0.16 0 0.7 0.16 0 0.72 0.16 0 0.74 0.16 0 0.76 0.16 0 0.78 0.16 0 0.8 0.16 0 0.82 0.16 0 0.84 0.16 0 0.86 0.16 0 0.88 0.16 0 0.9 0.16 0 0.92 0.16 0 0.94 0.16 0 0.96 0.16 0 0.98 0.16 0 1 0.16 0 0 0.18 0 0.02 0.18 0 0.04 0.18 0 0.06 0.18 0 0.08 0.18 0 0.1 0.18 0 0.12 0.18 0 0.14 0.18 0 0.16 0.18 0 0.18 0.18 0 0.2 0.18 0 0.22 0.18 0 0.24 0.18 0 0.26 0.18 0 0.28 0.18 0 0.3 0.18 0 0.32 0.18 0 0.34 0.18 0 0.36 0.18 0 0.38 0.18 0 0.4 0.18 0 0.42 0.18 0 0.44 0.18 0 0.46 0.18 0 0.48 0.18 0 0.5 0.18 0 0.52 0.18 0 0.54 0.18 0 0.56 0.18 0 0.58 0.18 0 0.6 0.18 0 0.62 0.18 0 0.64 0.18 0 0.66 0.18 0 0.68 0.18 0 0.7 0.18 0 0.72 0.18 0 0.74 0.18 0 0.76 0.18 0 0.78 0.18 0 0.8 0.18 0 0.82 0.18 0 0.84 0.18 0 0.86 0.18 0 0.88 0.18 0 0.9 0.18 0 0.92 0.18 0 0.94 0.18 0 0.96 0.18 0 0.98 0.18 0 1 0.18 0 0 0.2 0 0.02 0.2 0 0.04 0.2 0 0.06 0.2 0 0.08 0.2 0 0.1 0.2 0 0.12 0.2 0 0.14 0.2 0 0.16 0.2 0 0.18 0.2 0 0.2 0.2 0 0.22 0.2 0 0.24 0.2 0 0.26 0.2 0 0.28 0.2 0 0.3 0.2 0 0.32 0.2 0 0.34 0.2 0 0.36 0.2 0 0.38 0.2 0 0.4 0.2 0 0.42 0.2 0 0.44 0.2 0 0.46 0.2 0 0.48 0.2 0 0.5 0.2 0 0.52 0.2 0 0.54 0.2 0 0.56 0.2 0 0.58 0.2 0 0.6 0.2 0 0.62 0.2 0 0.64 0.2 0 0.66 0.2 0 0.68 0.2 0 0.7 0.2 0 0.72 0.2 0 0.74 0.2 0 0.76 0.2 0 0.78 0.2 0 0.8 0.2 0 0.82 0.2 0 0.84 0.2 0 0.86 0.2 0 0.88 0.2 0 0.9 0.2 0 0.92 0.2 0 0.94 0.2 0 0.96 0.2 0 0.98 0.2 0 1 0.2 0 0 0.22 0 0.02 0.22 0 0.04 0.22 0 0.06 0.22 0 0.08 0.22 0 0.1 0.22 0 0.12 0.22 0 0.14 0.22 0 0.16 0.22 0 0.18 0.22 0 0.2 0.22 0 0.22 0.22 0 0.24 0.22 0 0.26 0.22 0 0.28 0.22 0 0.3 0.22 0 0.32 0.22 0 0.34 0.22 0 0.36 0.22 0 0.38 0.22 0 0.4 0.22 0 0.42 0.22 0 0.44 0.22 0 0.46 0.22 0 0.48 0.22 0 0.5 0.22 0 0.52 0.22 0 0.54 0.22 0 0.56 0.22 0 0.58 0.22 0 0.6 0.22 0 0.62 0.22 0 0.64 0.22 0 0.66 0.22 0 0.68 0.22 0 0.7 0.22 0 0.72 0.22 0 0.74 0.22 0 0.76 0.22 0 0.78 0.22 0 0.8 0.22 0 0.82 0.22 0 0.84 0.22 0 0.86 0.22 0 0.88 0.22 0 0.9 0.22 0 0.92 0.22 0 0.94 0.22 0 0.96 0.22 0 0.98 0.22 0 1 0.22 0 0 0.24 0 0.02 0.24 0 0.04 0.24 0 0.06 0.24 0 0.08 0.24 0 0.1 0.24 0 0.12 0.24 0 0.14 0.24 0 0.16 0.24 0 0.18 0.24 0 0.2 0.24 0 0.22 0.24 0 0.24 0.24 0 0.26 0.24 0 0.28 0.24 0 0.3 0.24 0 0.32 0.24 0 0.34 0.24 0 0.36 0.24 0 0.38 0.24 0 0.4 0.24 0 0.42 0.24 0 0.44 0.24 0 0.46 0.24 0 0.48 0.24 0 0.5 0.24 0 0.52 0.24 0 0.54 0.24 0 0.56 0.24 0 0.58 0.24 0 0.6 0.24 0 0.62 0.24 0 0.64 0.24 0 0.66 0.24 0 0.68 0.24 0 0.7 0.24 0 0.72 0.24 0 0.74 0.24 0 0.76 0.24 0 0.78 0.24 0 0.8 0.24 0 0.82 0.24 0 0.84 0.24 0 0.86 0.24 0 0.88 0.24 0 0.9 0.24 0 0.92 0.24 0 0.94 0.24 0 0.96 0.24 0 0.98 0.24 0 1 0.24 0 0 0.26 0 0.02 0.26 0 0.04 0.26 0 0.06 0.26 0 0.08 0.26 0 0.1 0.26 0 0.12 0.26 0 0.14 0.26 0 0.16 0.26 0 0.18 0.26 0 0.2 0.26 0 0.22 0.26 0 0.24 0.26 0 0.26 0.26 0 0.28 0.26 0 0.3 0.26 0 0.32 0.26 0 0.34 0.26 0 0.36 0.26 0 0.38 0.26 0 0.4 0.26 0 0.42 0.26 0 0.44 0.26 0 0.46 0.26 0 0.48 0.26 0 0.5 0.26 0 0.52 0.26 0 0.54 0.26 0 0.56 0.26 0 0.58 0.26 0 0.6 0.26 0 0.62 0.26 0 0.64 0.26 0 0.66 0.26 0 0.68 0.26 0 0.7 0.26 0 0.72 0.26 0 0.74 0.26 0 0.76 0.26 0 0.78 0.26 0 0.8 0.26 0 0.82 0.26 0 0.84 0.26 0 0.86 0.26 0 0.88 0.26 0 0.9 0.26 0 0.92 0.26 0 0.94 0.26 0 0.96 0.26 0 0.98 0.26 0 1 0.26 0 0 0.28 0 0.02 0.28 0 0.04 0.28 0 0.06 0.28 0 0.08 0.28 0 0.1 0.28 0 0.12 0.28 0 0.14 0.28 0 0.16 0.28 0 0.18 0.28 0 0.2 0.28 0 0.22 0.28 0 0.24 0.28 0 0.26 0.28 0 0.28 0.28 0 0.3 0.28 0 0.32 0.28 0 0.34 0.28 0 0.36 0.28 0 0.38 0.28 0 0.4 0.28 0 0.42 0.28 0 0.44 0.28 0 0.46 0.28 0 0.48 0.28 0 0.5 0.28 0 0.52 0.28 0 0.54 0.28 0 0.56 0.28 0 0.58 0.28 0 0.6 0.28 0 0.62 0.28 0 0.64 0.28 0 0.66 0.28 0 0.68 0.28 0 0.7 0.28 0 0.72 0.28 0 0.74 0.28 0 0.76 0.28 0 0.78 0.28 0 0.8 0.28 0 0.82 0.28 0 0.84 0.28 0 0.86 0.28 0 0.88 0.28 0 0.9 0.28 0 0.92 0.28 0 0.94 0.28 0 0.96 0.28 0 0.98 0.28 0 1 0.28 0 0 0.3 0 0.02 0.3 0 0.04 0.3 0 0.06 0.3 0 0.08 0.3 0 0.1 0.3 0 0.12 0.3 0 0.14 0.3 0 0.16 0.3 0 0.18 0.3 0 0.2 0.3 0 0.22 0.3 0 0.24 0.3 0 0.26 0.3 0 0.28 0.3 0 0.3 0.3 0 0.32 0.3 0 0.34 0.3 0 0.36 0.3 0 0.38 0.3 0 0.4 0.3 0 0.42 0.3 0 0.44 0.3 0 0.46 0.3 0 0.48 0.3 0 0.5 0.3 0 0.52 0.3 0 0.54 0.3 0 0.56 0.3 0 0.58 0.3 0 0.6 0.3 0 0.62 0.3 0 0.64 0.3 0 0.66 0.3 0 0.68 0.3 0 0.7 0.3 0 0.72 0.3 0 0.74 0.3 0 0.76 0.3 0 0.78 0.3 0 0.8 0.3 0 0.82 0.3 0 0.84 0.3 0 0.86 0.3 0 0.88 0.3 0 0.9 0.3 0 0.92 0.3 0 0.94 0.3 0 0.96 0.3 0 0.98 0.3 0 1 0.3 0 0 0.32 0 0.02 0.32 0 0.04 0.32 0 0.06 0.32 0 0.08 0.32 0 0.1 0.32 0 0.12 0.32 0 0.14 0.32 0 0.16 0.32 0 0.18 0.32 0 0.2 0.32 0 0.22 0.32 0 0.24 0.32 0 0.26 0.32 0 0.28 0.32 0 0.3 0.32 0 0.32 0.32 0 0.34 0.32 0 0.36 0.32 0 0.38 0.32 0 0.4 0.32 0 0.42 0.32 0 0.44 0.32 0 0.46 0.32 0 0.48 0.32 0 0.5 0.32 0 0.52 0.32 0 0.54 0.32 0 0.56 0.32 0 0.58 0.32 0 0.6 0.32 0 0.62 0.32 0 0.64 0.32 0 0.66 0.32 0 0.68 0.32 0 0.7 0.32 0 0.72 0.32 0 0.74 0.32 0 0.76 0.32 0 0.78 0.32 0 0.8 0.32 0 0.82 0.32 0 0.84 0.32 0 0.86 0.32 0 0.88 0.32 0 0.9 0.32 0 0.92 0.32 0 0.94 0.
[...]
			<PointData Scalars="VitesseX">
				<DataArray Name="VitesseX" type="Float32" format="ascii">
 0 0 0 0 0 0 0 0 0 0 0 0 0 0 0 0 0 0 0 0 0 0 0 0 0 0 0 0 0 0 0 0 0 0 0 0 0 0 0 0 0 0 0 0 0 0 0 0 0 0 -0 0 -6.8156e-05 -0.000249712 -0.000573113 -0.000984502 -0.00152137 -0.00214719 -0.00287832 -0.00367246 -0.004526 -0.00544912 -0.00644255 -0.00739877 -0.00838314 -0.00935087 -0.0102984 -0.0112192 -0.0120894 -0.0128827 -0.0135791 -0.0145489 0.279209 -0.0146503 -0.0153479 -0.0156153 -0.0157163 -0.015685 -0.0155112 -0.0152149 -0.0148023 -0.0142858 -0.0136641 -0.0129429 -0.0121346 -0.0112593 -0.0103407 -0.00938384 -0.00841332 -0.00744744 -0.00645764 -0.00546068 -0.00454175 -0.00369197 -0.00287375 -0.00214742 -0.00151348 -0.00105752 -0.000569563 -0.000253046 -6.38155e-05 -6.99088e-28 0 -0.000131355 -0.000512742 -0.00112987 -0.00197331 -0.00302997 -0.00428348 -0.00571426 -0.0073 -0.00901585 -0.0108349 -0.0127286 -0.0146667 -0.0166185 -0.0185536 -0.0204404 -0.0222466 -0.0239482 -0.0253802 -0.0266824 -0.0283455 -0.0288945 -0.0299 -0.0306281 -0.0310343 -0.0311714 -0.031063 -0.0307005 -0.0301005 -0.0292735 -0.028236 -0.0269913 -0.0255601 -0.0239679 -0.0222429 -0.020428 -0.0185361 -0.0166029 -0.0146442 -0.0126794 -0.0107866 -0.00895866 -0.0087312 -0.00567689 -0.00424371 -0.0029905 -0.00196377 -0.00110936 -0.000497541 -0.000124584 -1.35861e-27 0 -0.000195163 -0.000763579 -0.00168059 -0.00292584 -0.00448479 -0.00634649 -0.00847383 -0.0108277 -0.0133666 -0.0160512 -0.0188443 -0.0217043 -0.0246114 -0.0274882 -0.0302615 -0.0329214 -0.0356695 -0.037573 -0.0399211 -0.0417708 -0.0433091 -0.0445277 -0.045408 -0.0459451 -0.046144 -0.0459573 -0.0454084 -0.0445096 -0.0432704 -0.0417184 -0.0398766 -0.037767 -0.035423 -0.0328832 -0.0301911 -0.0273841 -0.0245281 -0.0216302 -0.0187575 -0.016005 -0.0132429 -0.0144229 -0.00839829 -0.00627872 -0.00442454 -0.00287441 -0.00162921 -0.00073617 -0.000183392 -1.99684e-27 0 -0.000243486 -0.000963823 -0.00214644 -0.00377646 -0.00582912 -0.00826562 -0.0110424 -0.0141165 -0.0174417 -0.0209668 -0.024637 -0.0283939 -0.0321784 -0.0359325 -0.0395977 -0.0431081 -0.0464147 -0.0494201 -0.0521469 -0.054669 -0.0566363 -0.0574763 -0.0592177 -0.0599379 -0.0604474 -0.0601322 -0.0594084 -0.0582257 -0.0566089 -0.0545738 -0.0521514 -0.0493765 -0.046292 -0.0429932 -0.0394709 -0.0357705 -0.0320716 -0.0283084 -0.0245531 -0.0208913 -0.0171958 -0.0140721 -0.010992 -0.00821583 -0.00578665 -0.0037488 -0.00212447 -0.000954182 -0.000239314 -2.60372e-27 0 -0.000298529 -0.00118082 -0.00261798 -0.00460169 -0.00714425 -0.0100858 -0.0134692 -0.0172186 -0.0212733 -0.0255727 -0.0300567 -0.0346531 -0.0392831 -0.0438421 -0.048303 -0.0526049 -0.0565458 -0.0588179 -0.0637361 -0.0667356 -0.0691815 -0.071118 -0.0725458 -0.0733805 -0.0736762 -0.0737994 -0.0734793 -0.0722672 -0.0704291 -0.0676025 -0.0635867 -0.0602774 -0.0565307 -0.0524662 -0.0481339 -0.043647 -0.0390902 -0.0344898 -0.0297643 -0.0253426 -0.0211175 -0.0171141 -0.0134022 -0.010016 -0.0070515 -0.00456695 -0.00258859 -0.00116224 -0.000291471 -3.16969e-27 0 -0.000346028 -0.00136984 -0.00304956 -0.0053616 -0.00827098 -0.0117301 -0.0156781 -0.0200502 -0.0247782 -0.0297884 -0.0350033 -0.0403431 -0.0457262 -0.051056 -0.0562603 -0.0612697 -0.0659948 -0.0703302 -0.0742306 -0.0776841 -0.0805622 -0.0828239 -0.0844888 -0.0854526 -0.085839 -0.0866032 -0.0852598 -0.0836056 -0.0815916 -0.0804277 -0.0740659 -0.0702167 -0.0658589 -0.0612083 -0.0559927 -0.0508665 -0.0455887 -0.0401091 -0.0348161 -0.0295164 -0.0246277 -0.0199143 -0.0156202 -0.0116517 -0.00820177 -0.00531379 -0.00301283 -0.00135182 -0.000339042 -3.68584e-27 0 -0.000390569 -0.00154548 -0.00343914 -0.00604397 -0.009319 -0.0132099 -0.0176515 -0.0225731 -0.0278982 -0.0335437 -0.03942 -0.0454292 -0.0514793 -0.0575301 -0.06336 -0.0689692 -0.0742776 -0.0791684 -0.0835605 -0.0874059 -0.0906381 -0.092896 -0.0950194 -0.0961961 -0.0965729 -0.0961898 -0.09503 -0.0931423 -0.0905485 -0.087294 -0.0834064 -0.0789659 -0.0740921 -0.0688511 -0.0633051 -0.0570495 -0.0512938 1591.43 -0.0390308 -0.0333489 -0.0276965 -0.0223754 -0.0172731 -0.0130983 -0.00922007 -0.00597653 -0.00338977 -0.00151994 -0.000381281 -4.14402e-27 0 -0.000429337 -0.00169668 -0.00377217 -0.00662407 -0.0102137 -0.0144944 -0.0193595 -0.0247529 -0.0305831 -0.0367741 -0.0432081 -0.0498171 -0.0564361 -0.0629973 -0.0694176 -0.075586 -0.0813973 -0.0867165 -0.0911088 -0.0957881 -0.0993684 -0.102175 -0.104213 -0.105432 -0.105822 -0.105389 -0.104107 -0.10203 -0.099179 -0.0956008 -0.0913411 -0.0864796 -0.0811082 -0.0753012 -0.0691187 -0.0626758 -0.0561398 -0.0494167 -277.525 0.0442756 -0.030316 -0.024508 -0.0191235 -0.0143285 -0.0100917 -0.00654487 -0.00371336 -0.00166395 -0.000417522 -4.53703e-27 0 -0.00045214 -0.00178338 -0.00393489 -0.00696014 -0.0109573 -0.015569 -0.0207906 -0.0262269 -0.0327834 -0.0393506 -0.0462832 -0.0532865 -0.0604389 -0.067484 -0.0743755 -0.0810061 -0.087186 -0.093006 -0.0981853 -0.10271 -0.106514 -0.10952 -0.1117 -0.112993 -0.113404 -0.112932 -0.11155 -0.109318 -0.106258 -0.102418 -0.0978569 -0.0926528 -0.086892 -0.0806598 -0.0740369 -0.0671463 -0.0601105 -0.053008 -0.0459536 -264.374 0.037204 -0.026259 -0.0205248 -0.0153418 -0.0108054 -0.00701011 -0.0039784 -0.00178177 -0.000447196 -4.85866e-27 0 -0.000480172 -0.0019004 -0.00422835 -0.00743004 -0.011454 -0.0162387 -0.0217077 -0.0277692 -0.0343295 -0.0413219 -0.0485712 -0.0559948 -0.0633886 -0.0856424 -0.0842723 -0.0851614 -0.0917175 -0.0977835 -0.103238 -0.107991 -0.111983 -0.115138 -0.117421 -0.118771 -0.119196 -0.118698 -0.117243 -0.114895 -0.111676 -0.107637 -0.102843 -0.0973727 -0.0913117 -0.0847564 -0.0778012 -0.0705622 -0.0631541 -0.0556872 -0.0482716 -0.0409971 -265.626 -0.0195245 -0.0215679 -0.0161185 -0.0113562 -0.00736499 -0.00418071 -0.00187143 -0.000469836 -5.10385e-27 0 -0.000496907 -0.00196521 -0.00437004 -0.00767602 -0.0118316 -0.0167722 -0.0224222 -0.0286923 -0.035483 -0.042668 -0.0501642 -0.0578595 -0.0655912 -0.0742075 -0.0808983 -0.0880074 -0.094772 -0.101034 -0.106666 -0.111571 -0.115688 -0.118941 -0.121292 -0.122678 -0.123105 -0.122598 -0.121105 -0.118692 -0.115372 -0.111187 -0.106219 -0.100561 -0.0942879 -0.0875272 -0.0803495 -0.0728691 -0.0652156 -0.0575102 -0.0498698 -0.0424035 -0.0352249 -257.632 -0.0222653 -0.0166428 -0.0117286 -0.00760617 -0.00431827 -0.00193367 -0.000485216 -5.26871e-27 0 -0.000505219 -0.00199773 -0.00444272 -0.00780264 -0.0120277 -0.0170565 -0.0228101 -0.0291869 -0.0360982 -0.0433856 -0.0510076 -0.0588377 -0.0673712 -0.0746671 -0.0821804 -0.0894684 -0.096352 -0.102706 -0.108439 -0.113429 -0.117599 -0.120919 -0.123271 -0.124591 -0.123271 -0.124578 -0.122991 -0.120483 -0.117122 -0.112893 -0.107855 -0.102073 -0.0926546 -0.0888598 -0.0815797 -0.0739825 -0.0662212 -0.0584034 -0.0506405 -0.0430599 -0.0357738 -0.0288789 -0.0226026 -0.0169022 -0.0119131 -0.00772022 -0.00438503 -0.00196252 -0.000492686 -5.35065e-27 0 -0.000505779 -0.00199907 -0.00444479 -0.00780605 -0.0120309 -0.0170554 -0.0228095 -0.0291921 -0.0361036 -0.0433924 -0.0510202 -0.0626662 -0.0668385 -0.0745505 -0.0821545 -0.0894713 -0.0963556 -0.102724 -0.108559 -0.115066 -0.117592 -0.121142 -0.123236 -0.354808 -0.125085 -0.124542 -0.122993 -0.120515 -0.117129 -0.112895 -0.107874 -0.102107 -0.0957205 -0.0888658 -0.0815942 -0.0702597 -0.0662423 -0.0584052 -0.0506361 -0.0430623 -0.0357865 -0.0289052 -0.0223955 -0.0169062 -0.0119185 -0.00772123 -0.00438463 -0.00196251 -0.000492686 -5.34838e-27 0 -0.000488219 -0.00196665 -0.00437894 -0.00769005 -0.0118578 -0.0168322 -0.0225057 -0.0287493 -0.0355979 -0.0396817 -0.0653224 -0.0581579 -0.0657875 -0.0734417 -0.0809413 -0.0881353 -0.0949146 -0.101345 -0.125593 -0.111656 -0.115702 -0.11895 -0.121343 -0.122702 -0.123111 -0.122546 -0.121022 -0.118563 -0.115218 -0.111054 -0.106144 -0.100518 -0.0941662 -0.0873986 -0.0802261 -0.0727868 -0.0613013 -0.0569789 -0.0497574 -0.0423498 -0.0352018 -0.0284505 -0.0221935 0.052682 -0.0117249 -0.00759683 -0.00431393 -0.00193088 -0.000484773 -5.26193e-27 0 -0.000473988 -0.00188623 -0.00421867 -0.00743794 -0.0114818 -0.0163123 -0.0218068 -0.0277928 -0.0344849 -0.0443896 -0.0489617 -0.056268 -0.0637134 -0.0711337 -0.0783815 -0.0853354 -0.0919131 -0.0979539 -0.103369 -0.108153 -0.112181 -0.115348 -0.117533 -0.118808 -0.1192 -0.118652 -0.117151 -0.114762 -0.111522 -0.107491 -0.102714 -0.097117 -0.091007 -0.0844638 -0.0775321 -0.0703899 -0.0630934 -0.0521936 -0.0480519 -0.0409779 -0.0340701 -0.0275463 -0.0215116 -0.016034 -0.0113464 -0.00735352 -0.00417589 -0.00186902 -0.000469269 -5.09269e-27 0 -0.000451888 -0.00179505 -0.00400983 -0.00706382 -0.0109071 -0.0154852 -0.0207336 -0.026473 -0.0328479 -0.0396348 -0.0464951 -0.0535159 -0.0606435 -0.0677177 -0.074604 -0.0813006 298.615 -0.0932739 -0.0983953 -0.10304 -0.106844 -0.109631 -0.111813 -0.113056 -0.113404 -0.11287 -0.111446 -0.109175 -0.106046 -0.102117 -0.097564 -0.0924027 -0.086638 -0.0803863 -0.0737207 -0.0667965 -0.0600986 -0.0435992 -0.0384452 -0.0389186 -0.0323865 -0.0261916 -0.0204641 -0.0153009 -0.0107895 -0.00699341 -0.00397152 -0.00177806 -0.000446411 -4.84336e-27 0 -0.000421944 -0.00167665 -0.00374277 -0.0065891 -0.0101713 -0.0144277 -0.0192787 -0.0246781 -0.0307002 -0.0375563 -0.0433578 -0.0499456 -0.0566191 -0.0632459 -0.0697249 -0.0760681 -0.0820305 -0.0871031 -0.0918321 -0.09605 -0.0995734 -0.102365 -0.104349 -0.10551 -0.105821 -0.10533 -0.103964 -0.10185 -0.0989087 -0.0952016 -0.0910044 -0.0861681 -0.0807952 -0.0749739 -0.0688207 -0.0624234 -0.0559474 -0.0493455 -0.0427239 -0.0356792 -0.0301728 -0.0244195 -0.0190866 -0.0142667 -0.00992837 -0.00652288 -0.00370471 -0.00165933 -0.000416555 -4.51788e-27 0 -0.000384997 -0.00153039 -0.00341641 -0.00601618 -0.00929727 -0.0132625 -0.0177023 -0.0157796 -0.0394234 -0.034053 -0.0396176 -0.0456354 -0.0517247 -0.0577653 -0.0637556 -0.127051 -0.0746756 -0.0795872 -0.0839735 -0.087793 -0.0909634 -0.0935025 -0.0954704 -0.0963741 -0.0965577 -0.09608 -0.0948689 -0.0928901 -0.090205 -0.0868652 -0.0829916 -0.0785609 -0.0736552 -0.0683486 -0.0627245 -0.0568801 -0.0509384 -0.0449626 -0.0390557 -0.0332089 -0.0274682 -0.0222603 -0.0174013 -0.0130084 -0.00916129 -0.00595018 -0.00337868 -0.00242375 -0.000379418 -4.12141e-27 0 -0.000342204 -0.00136014 -0.00303656 -0.0053479 -0.00826774 -0.0117992 -0.0156906 -0.0200879 -0.0249955 -0.0300888 -0.0352424 -0.0406122 -0.0460334 -0.0514127 -0.0566653 -0.0616986 -0.0664109 -0.0707651 -0.0745556 -0.0779292 -0.0807818 -0.0832914 -0.0846103 -0.0855626 -0.0858189 -0.0853641 -0.0839406 -0.0823325 -0.0802358 -0.0771392 -0.0736635 -0.0697177 -0.065352 -0.0606055 -0.0556411 -0.0504361 -0.0451183 -0.0398008 -0.0345322 -0.0293378 -0.0243037 -0.0197417 -0.015437 -0.0115495 -0.00814482 -0.0052839 -0.00300069 -0.0024455 -0.00033657 -3.6602e-27 0 -0.000294146 -0.0011678 -0.00260799 -0.00459473 -0.00709766 -0.0100871 -0.013493 -0.0172804 -0.0214444 -0.0258063 -0.0303084 -0.0349411 -0.0396138 -0.044253 -0.0488068 -0.0530953 -0.057138 -0.0609239 -0.0642375 -0.0671341 -0.0696529 -0.0712818 -0.0726598 -0.0735389 -0.0735757 -0.0733102 -0.0720401 -0.0700312 -0.068355 -0.0663091 -0.0631614 -0.0597622 -0.056014 -0.0519243 -0.0476687 -0.0432384 -0.038682 -0.0341351 -0.0295703 -0.0252695 -0.0209825 -0.016919 -0.0132294 -0.00990041 -0.00698021 0.0153547 -0.00257733 -0.0011089 -0.000289625 -3.1415e-27 0 -0.00024115 -0.000957831 -0.00213975 -0.003772 -0.00582642 -0.00827607 -0.0111177 -0.0142095 -0.017606 -0.0211894 -0.0249067 -0.0287237 -0.0325736 -0.0364023 -0.0403112 -0.0438258 -0.0472797 -0.0501357 -0.0527256 -0.0550656 -0.0570074 -0.0585636 -0.0597285 -0.0604035 -0.0603792 -0.0600641 -0.0592412 -0.0576502 -0.0555968 -0.0535916 -0.051126 -0.0488964 -0.0458378 -0.0424707 -0.0388729 -0.035398 -0.0316483 -0.0278879 -0.024144 -0.020506 -0.0154445 -0.0137934 -0.0108168 -0.00809831 -0.00570894 -0.0036633 -0.00210527 -0.000942006 -0.00023684 -2.57345e-27 0 -0.000184658 -0.00073394 -0.0016383 -0.00288985 -0.0044645 -0.00634459 -0.00854503 -0.0109038 -0.0134967 -0.0162636 -0.0191246 -0.0220602 -0.0250207 -0.0279687 -0.031304 -0.033529 -0.0360228 -0.0383442 -0.0403988 -0.0421677 -0.0436598 -0.044861 -0.0461129 -0.0463045 -0.0462345 -0.0458538 -0.0452435 -0.0442375 -0.042652 -0.0406471 -0.0388761 -0.0368327 -0.0348969 -0.0323117 -0.0296114 -0.0268498 -0.0241144 -0.0211945 -0.0183623 -0.0156177 -0.0128137 -0.00995278 -0.00823238 -0.00616665 -0.00434897 -0.0028152 -0.00160843 -0.000719764 -0.000356624 -1.96489e-27 0 -0.000125016 -0.000497218 -0.00111129 -0.00196535 -0.00303545 -0.00431865 -0.00582139 -0.00743701 -0.00919394 -0.0110881 -0.013049 -0.0150554 -0.0170751 -0.0190897 -0.0214056 -0.0228507 -0.024574 -0.026144 -0.0275014 -0.028667 -0.0296603 -0.0304546 -0.0310863 -0.0314258 -0.0449545 -0.0308355 -0.0303631 -0.0296921 -0.0288453 -0.0276833 -0.0265706 -0.0251478 -0.0226581 -0.0209863 -0.0198275 -0.0179832 -0.0160505 -0.0140886 -0.012294 -0.0104785 -0.00873891 -0.00701875 -0.00551913 -0.00413328 -0.0029186 -0.0018949 -0.00108563 -0.000486049 -0.000226454 -1.32531e-27 0 -6.36215e-05 -0.000254568 -0.000571055 -0.00101185 -0.00155815 -0.0022201 -0.00299627 -0.0038874 -0.00476035 -0.00574066 -0.0067679 -0.00781479 -0.00886697 -0.00991906 -0.0110759 -0.0119255 -0.0129881 -0.0138446 -0.0138745 -0.0149467 -0.0197735 -0.0155344 -0.0157285 -0.0158553 -0.0156881 -0.0154782 -0.0151817 -0.0148169 -0.0143314 -0.0138736 -0.0131719 -0.0125301 -0.0116495 -0.0103772 -0.00734851 -0.00889028 -0.00796317 -0.00603396 -0.0060333 -0.004984 -0.00398774 -0.0035149 -0.00271249 -0.00203698 -0.00144244 -0.000938628 -0.000436711 -0.000244172 -5.1626e-05 -6.64737e-28 0 -1.63645e-06 -8.06938e-06 -1.95415e-05 -3.63629e-05 -5.68168e-05 -9.10077e-05 -0.000137907 -0.000309309 -0.000299589 -0.00031343 -0.000386299 -0.00045504 -0.000520548 -0.00058765 -0.000685062 -0.000689268 -0.00061999 -0.000389882 -0.000471146 -0.000538768 -0.000454195 -0.000224949 -0.0002354 -0.000170831 2.67007e-05 0.000143177 0.00024546 0.000323307 0.000384093 0.000432509 0.00330098 0.00159178 0.000330405 0.000462626 0.00067913 0.000871119 0.000254799 0.000551982 0.000316757 0.000314481 0.000347172 0.000197187 0.000133922 9.08513e-05 5.70116e-05 3.2461e-05 1.63166e-05 2.39338e-06 1.43054e-06 5.10784e-30 0 5.90054e-05 0.000236508 0.00052772 0.000926528 0.00142905 0.00202909 0.00270268 0.0026342 32.764 0.00506387 0.00599192 0.00690497 0.00782793 0.00874252 0.00961885 0.010715 0.0114793 0.0123713 0.0131254 0.0137325 0.0142641 0.014816 0.0152191 0.0154758 0.0157083 0.0157493 0.0156859 0.015478 0.0175966 0.0149205 0.0141689 0.01344 0.0126359 0.0115982 0.010837 0.0099608 0.00867432 0.00780518 0.00676247 0.0057241 0.00476652 0.00384952 0.00298203 0.00222005 0.00155737 0.00100416 0.000567056 0.000252996 6.32595e-05 6.75604e-28 0 0.000110164 0.000472404 0.00106486 0.00187875 0.00290363 0.00412301 0.00549706 0.00704232 0.00871226 0.0101726 0.0122765 0.014161 0.0160541 0.0179358 0.0197667 0.0210318 0.0232592 0.0248891 0.026363 0.0278533 0.0288819 0.0284553 0.0294076 0.0307862 0.0311776 0.0311474 0.0308998 0.0305296 0.0297483 0.0287219 0.0274946 0.0260901 0.0246014 0.022812 0.0209574 0.0190759 0.0174963 0.0149507 0.0129837 0.011068 0.00917997 0.00740824 0.00578262 0.00431366 0.00303326 0.00196061 0.00111192 0.000495373 0.000124116 1.33646e-27 0 -0.000523254 0.000679905 0.00157815 0.00279498 0.00431854 0.00613537 0.00815469 0.010495 0.0130328 0.0157326 0.0183616 0.0211929 0.0240261 0.0268459 0.0296288 0.0323248 0.0309948 -0.00106151 0.0388538 0.0411931 0.0427571 0.0443344 0.0452228 0.045835 0.0461375 0.0460351 0.0455766 0.0448567 0.0437253 0.0422232 0.0404206 0.0383405 0.0360923 0.0334505 0.0307324 0.0279165 0.0251371 0.0224151 0.019172 0.0162422 0.0134777 0.0108853 0.0084895 0.00633896 0.0044616 0.00288647 0.00164074 0.000731078 0.000182967 1.97652e-27 0 0.000469102 0.000335567 0.00204364 0.00365856 0.00567031 0.00806146 0.0107759 0.0137104 0.0171151 0.0206071 0.0240702 0.0278789 0.0316121 0.0353175 0.0389804 0.0424939 0.0456965 0.0487323 0.0515473 0.0515861 0.0553228 0.0580317 0.0592506 0.060037 0.0603741 0.0602164 0.0625388 0.0586773 0.0570434 0.0550825 0.0527176 0.0500038 0.0470944 0.043684 0.0400457 0.0364097 0.0325449 0.0289292 0.0249788 0.0211657 0.0175669 0.014194 0.0110658 0.00826544 0.0058205 0.00376816 0.00215024 0.000957782 0.000238936 2.5854e-27 0 0.000548403 0.00204168 0.00238275 0.00442887 0.00693456 0.00982094 0.0132146 0.0165225 0.0209121 0.0251813 319.551 0.0340413 0.0387105 0.043238 0.0476769 0.0519732 0.0560233 0.0595907 0.0600262 0.0655324 0.0662371 0.0707238 0.0723169 0.0732634 0.0738295 0.0757641 0.0729333 0.0713877 0.0694942 0.0670809 0.0641833 0.0608652 0.0575775 0.0550713 0.0494836 0.0446994 0.0395017 0.0349626 0.0303996 0.0257824 0.0213767 0.0172748 0.0134693 0.0100618 0.00708764 0.00459081 0.00262947 0.00117546 0.000291197 3.15357e-27 0 0.000337016 0.00212451 0.00264233 0.00462836 0.00810412 0.0113693 0.0154114 0.0193334 0.0244128 0.0293841 0.0345354 0.039647 0.0451705 0.0504763 0.0556334 0.0606243 0.0653607 0.069693 0.0735884 0.0770792 0.0796565 0.0810864 0.0822662 0.0851453 0.0857989 0.0855771 0.0846584 0.0830676 0.0808606 0.0780401 0.0746583 0.0707895 0.0680606 0.0617312 0.0566844 0.0515176 0.0460528 0.0404771 0.0353176 0.0300041 0.0248516 0.020084 0.015662 0.0117003 0.0082425 0.00533954 0.00305167 0.00136397 0.000338817 3.67216e-27 0 0.000379386 0.00239738 0.00320801 0.00814679 0.00915053 0.0127175 0.0173656 0.0222195 0.0275029 0.0331016 0.0389303 0.0448933 0.0508231 0.0568535 0.0627158 0.0683304 0.0736426 0.0785649 0.0830141 0.0869158 0.0901846 0.0928285 0.0948011 0.096074 0.0965708 0.0962805 0.0952449 0.0934527 0.0909535 0.0877636 0.0839668 0.0797356 0.074642 0.0693295 0.0637139 0.0578753 0.052535 0.0456046 0.0395698 0.0336927 0.0279316 0.0225712 0.0176092 0.0131553 0.00926751 0.00600329 0.00342297 0.00153005 0.000381228 4.13317e-27 0 0.000416497 0.00165932 0.00365714 0.0082249 0.0100359 0.0142404 0.019072 0.0243679 0.029752 0.0362891 0.0427195 0.0492499 0.0486534 0.0621471 0.0687622 0.0749542 0.0807751 0.0861628 0.0910391 0.0953171 0.0989309 0.101832 0.103969 0.105315 0.105821 0.105491 0.104347 0.102362 0.0995964 0.0960953 0.091931 0.0870569 0.0817007 0.0759208 0.0697791 0.0633842 0.0574967 0.0499438 0.043358 0.0368079 0.0305763 0.0247743 0.0192795 0.0144044 0.0101476 0.00657326 0.00374436 0.00167437 0.000417697 4.52869e-27 0 0.000446049 0.0017769 0.00395321 0.00883762 0.0107668 0.0152816 0.0204543 0.0261155 0.0268876 0.0389257 0.0458209 0.0528319 0.0598932 0.0653566 0.0735687 0.0803495 0.0866212 0.0924016 0.0976288 0.102207 0.106072 0.109171 0.111449 0.112877 0.113404 0.113038 0.111798 0.10966 0.106692 0.102906 0.106054 0.0740815 0.0875509 0.0814164 0.0749256 0.0680841 0.0615506 0.0534706 0.054259 0.03939 0.0327514 0.027785 0.0206546 0.0154318 0.0108719 0.00704237 0.00401275 0.00179214 0.000447612 4.85215e-27 0 0.000468898 0.00186789 0.00416301 0.00733187 0.0113377 0.0160791 0.0215096 0.0275341 0.0339889 0.0408976 0.0481791 0.0555813 0.0630142 0.070379 0.0746816 0.084303 0.0910801 0.0971751 0.102674 0.107478 0.111532 0.114782 0.117167 0.118658 0.119196 0.118804 0.117497 0.115269 0.11221 0.108219 0.103345 0.0979666 0.0921649 0.0854731 0.0789318 0.0711733 0.0635569 0.05617 0.0488075 0.0414014 0.0344396 0.0278305 0.0217088 0.016234 0.0114361 0.00740549 0.00422916 0.00194464 0.000480137 5.0994e-27 0 0.000484533 0.00193015 0.0043091 0.00758731 0.0117107 0.0164787 0.022169 0.0284462 0.035192 0.0419928 0.0497661 0.0574434 0.0651202 0.0727393 0.0801943 0.0873559 0.0941159 0.100414 0.106081 0.111033 0.115229 0.118583 0.121037 0.122567 0.123105 0.122704 0.121386 0.119735 0.117163 0.111632 0.106758 0.101183 0.0949526 0.0882336 0.0811495 0.0737473 0.0657589 2.30638 0.0501696 0.0427032 0.0400812 0.0286576 0.022394 0.01678 0.011816 0.00763303 0.00433416 0.00195465 0.00048912 5.26647e-27 0 0.00049268 0.0019626 0.00645232 0.00535933 0.011623 0.0166935 0.0221807 0.0289107 0.0357903 0.0413098 0.0505891 0.0584141 0.0662233 0.0739812 0.0815753 0.0888366 0.0956592 0.102018 0.106859 0.112693 0.117118 0.120526 0