<?xml version="1.0"?>
<VTKFile type="PolyData">
	<PolyData>
		<Piece NumberOfPoints="2601" NumberOfPolys="2500">
			<Points>
				<DataArray type="Float32" NumberOfComponents="3" format="ascii">
 0 0 0 0.02 0 0 0.04 0 0 0.06 0 0 0.08 0 0 0.1 0 0 0.12 0 0 0.14 0 0 0.16 0 0 0.18 0 0 0.2 0 0 0.22 0 0 0.24 0 0 0.26 0 0 0.28 0 0 0.3 0 0 0.32 0 0 0.34 0 0 0.36 0 0 0.38 0 0 0.4 0 0 0.42 0 0 0.44 0 0 0.46 0 0 0.48 0 0 0.5 0 0 0.52 0 0 0.54 0 0 0.56 0 0 0.58 0 0 0.6 0 0 0.62 0 0 0.64 0 0 0.66 0 0 0.68 0 0 0.7 0 0 0.72 0 0 0.74 0 0 0.76 0 0 0.78 0 0 0.8 0 0 0.82 0 0 0.84 0 0 0.86 0 0 0.88 0 0 0.9 0 0 0.92 0 0 0.94 0 0 0.96 0 0 0.98 0 0 1 0 0 0 0.02 0 0.02 0.02 0 0.04 0.02 0 0.06 0.02 0 0.08 0.02 0 0.1 0.02 0 0.12 0.02 0 0.14 0.02 0 0.16 0.02 0 0.18 0.02 0 0.2 0.02 0 0.22 0.02 0 0.24 0.02 0 0.26 0.02 0 0.28 0.02 0 0.3 0.02 0 0.32 0.02 0 0.34 0.02 0 0.36 0.02 0 0.38 0.02 0 0.4 0.02 0 0.42 0.02 0 0.44 0.02 0 0.46 0.02 0 0.48 0.02 0 0.5 0.02 0 0.52 0.02 0 0.54 0.02 0 0.56 0.02 0 0.58 0.02 0 0.6 0.02 0 0.62 0.02 0 0.64 0.02 0 0.66 0.02 0 0.68 0.02 0 0.7 0.02 0 0.72 0.02 0 0.74 0.02 0 0.76 0.02 0 0.78 0.02 0 0.8 0.02 0 0.82 0.02 0 0.84 0.02 0 0.86 0.02 0 0.88 0.02 0 0.9 0.02 0 0.92 0.02 0 0.94 0.02 0 0.96 0.02 0 0.98 0.02 0 1 0.02 0 0 0.04 0 0.02 0.04 0 0.04 0.04 0 0.06 0.04 0 0.08 0.04 0 0.1 0.04 0 0.12 0.04 0 0.14 0.04 0 0.16 0.04 0 0.18 0.04 0 0.2 0.04 0 0.22 0.04 0 0.24 0.04 0 0.26 0.04 0 0.28 0.04 0 0.3 0.04 0 0.32 0.04 0 0.34 0.04 0 0.36 0.04 0 0.38 0.04 0 0.4 0.04 0 0.42 0.04 0 0.44 0.04 0 0.46 0.04 0 0.48 0.04 0 0.5 0.04 0 0.52 0.04 0 0.54 0.04 0 0.56 0.04 0 0.58 0.04 0 0.6 0.04 0 0.62 0.04 0 0.64 0.04 0 0.66 0.04 0 0.68 0.04 0 0.7 0.04 0 0.72 0.04 0 0.74 0.04 0 0.76 0.04 0 0.78 0.04 0 0.8 0.04 0 0.82 0.04 0 0.84 0.04 0 0.86 0.04 0 0.88 0.04 0 0.9 0.04 0 0.92 0.04 0 0.94 0.04 0 0.96 0.04 0 0.98 0.04 0 1 0.04 0 0 0.06 0 0.02 0.06 0 0.04 0.06 0 0.06 0.06 0 0.08 0.06 0 0.1 0.06 0 0.12 0.06 0 0.14 0.06 0 0.16 0.06 0 0.18 0.06 0 0.2 0.06 0 0.22 0.06 0 0.24 0.06 0 0.26 0.06 0 0.28 0.06 0 0.3 0.06 0 0.32 0.06 0 0.34 0.06 0 0.36 0.06 0 0.38 0.06 0 0.4 0.06 0 0.42 0.06 0 0.44 0.06 0 0.46 0.06 0 0.48 0.06 0 0.5 0.06 0 0.52 0.06 0 0.54 0.06 0 0.56 0.06 0 0.58 0.06 0 0.6 0.06 0 0.62 0.06 0 0.64 0.06 0 0.66 0.06 0 0.68 0.06 0 0.7 0.06 0 0.72 0.06 0 0.74 0.06 0 0.76 0.06 0 0.78 0.06 0 0.8 0.06 0 0.82 0.06 0 0.84 0.06 0 0.86 0.06 0 0.88 0.06 0 0.9 0.06 0 0.92 0.06 0 0.94 0.06 0 0.96 0.06 0 0.98 0.06 0 1 0.06 0 0 0.08 0 0.02 0.08 0 0.04 0.08 0 0.06 0.08 0 0.08 0.08 0 0.1 0.08 0 0.12 0.08 0 0.14 0.08 0 0.16 0.08 0 0.18 0.08 0 0.2 0.08 0 0.22 0.08 0 0.24 0.08 0 0.26 0.08 0 0.28 0.08 0 0.3 0.08 0 0.32 0.08 0 0.34 0.08 0 0.36 0.08 0 0.38 0.08 0 0.4 0.08 0 0.42 0.08 0 0.44 0.08 0 0.46 0.08 0 0.48 0.08 0 0.5 0.08 0 0.52 0.08 0 0.54 0.08 0 0.56 0.08 0 0.58 0.08 0 0.6 0.08 0 0.62 0.08 0 0.64 0.08 0 0.66 0.08 0 0.68 0.08 0 0.7 0.08 0 0.72 0.08 0 0.74 0.08 0 0.76 0.08 0 0.78 0.08 0 0.8 0.08 0 0.82 0.08 0 0.84 0.08 0 0.86 0.08 0 0.88 0.08 0 0.9 0.08 0 0.92 0.08 0 0.94 0.08 0 0.96 0.08 0 0.98 0.08 0 1 0.08 0 0 0.1 0 0.02 0.1 0 0.04 0.1 0 0.06 0.1 0 0.08 0.1 0 0.1 0.1 0 0.12 0.1 0 0.14 0.1 0 0.16 0.1 0 0.18 0.1 0 0.2 0.1 0 0.22 0.1 0 0.24 0.1 0 0.26 0.1 0 0.28 0.1 0 0.3 0.1 0 0.32 0.1 0 0.34 0.1 0 0.36 0.1 0 0.38 0.1 0 0.4 0.1 0 0.42 0.1 0 0.44 0.1 0 0.46 0.1 0 0.48 0.1 0 0.5 0.1 0 0.52 0.1 0 0.54 0.1 0 0.56 0.1 0 0.58 0.1 0 0.6 0.1 0 0.62 0.1 0 0.64 0.1 0 0.66 0.1 0 0.68 0.1 0 0.7 0.1 0 0.72 0.1 0 0.74 0.1 0 0.76 0.1 0 0.78 0.1 0 0.8 0.1 0 0.82 0.1 0 0.84 0.1 0 0.86 0.1 0 0.88 0.1 0 0.9 0.1 0 0.92 0.1 0 0.94 0.1 0 0.96 0.1 0 0.98 0.1 0 1 0.1 0 0 0.12 0 0.02 0.12 0 0.04 0.12 0 0.06 0.12 0 0.08 0.12 0 0.1 0.12 0 0.12 0.12 0 0.14 0.12 0 0.16 0.12 0 0.18 0.12 0 0.2 0.12 0 0.22 0.12 0 0.24 0.12 0 0.26 0.12 0 0.28 0.12 0 0.3 0.12 0 0.32 0.12 0 0.34 0.12 0 0.36 0.12 0 0.38 0.12 0 0.4 0.12 0 0.42 0.12 0 0.44 0.12 0 0.46 0.12 0 0.48 0.12 0 0.5 0.12 0 0.52 0.12 0 0.54 0.12 0 0.56 0.12 0 0.58 0.12 0 0.6 0.12 0 0.62 0.12 0 0.64 0.12 0 0.66 0.12 0 0.68 0.12 0 0.7 0.12 0 0.72 0.12 0 0.74 0.12 0 0.76 0.12 0 0.78 0.12 0 0.8 0.12 0 0.82 0.12 0 0.84 0.12 0 0.86 0.12 0 0.88 0.12 0 0.9 0.12 0 0.92 0.12 0 0.94 0.12 0 0.96 0.12 0 0.98 0.12 0 1 0.12 0 0 0.14 0 0.02 0.14 0 0.04 0.14 0 0.06 0.14 0 0.08 0.14 0 0.1 0.14 0 0.12 0.14 0 0.14 0.14 0 0.16 0.14 0 0.18 0.14 0 0.2 0.14 0 0.22 0.14 0 0.24 0.14 0 0.26 0.14 0 0.28 0.14 0 0.3 0.14 0 0.32 0.14 0 0.34 0.14 0 0.36 0.14 0 0.38 0.14 0 0.4 0.14 0 0.42 0.14 0 0.44 0.14 0 0.46 0.14 0 0.48 0.14 0 0.5 0.14 0 0.52 0.14 0 0.54 0.14 0 0.56 0.14 0 0.58 0.14 0 0.6 0.14 0 0.62 0.14 0 0.64 0.14 0 0.66 0.14 0 0.68 0.14 0 0.7 0.14 0 0.72 0.14 0 0.74 0.14 0 0.76 0.14 0 0.78 0.14 0 0.8 0.14 0 0.82 0.14 0 0.84 0.14 0 0.86 0.14 0 0.88 0.14 0 0.9 0.14 0 0.92 0.14 0 0.94 0.14 0 0.96 0.14 0 0.98 0.14 0 1 0.14 0 0 0.16 0 0.02 0.16 0 0.04 0.16 0 0.06 0.16 0 0.08 0.16 0 0.1 0.16 0 0.12 0.16 0 0.14 0.16 0 0.16 0.16 0 0.18 0.16 0 0.2 0.16 0 0.22 0.16 0 0.24 0.16 0 0.26 0.16 0 0.28 0.16 0 0.3 0.16 0 0.32 0.16 0 0.34 0.16 0 0.36 0.16 0 0.38 0.16 0 0.4 0.16 0 0.42 0.16 0 0.44 0.16 0 0.46 0.16 0 0.48 0.16 0 0.5 0.16 0 0.52 0.16 0 0.54 0.16 0 0.56 0.16 0 0.58 0.16 0 0.6 0.16 0 0.62 0.16 0 0.64 0.16 0 0.66 0.16 0 0.68 0.16 0 0.7 0.16 0 0.72 0.16 0 0.74 0.16 0 0.76 0.16 0 0.78 0.16 0 0.8 0.16 0 0.82 0.16 0 0.84 0.16 0 0.86 0.16 0 0.88 0.16 0 0.9 0.16 0 0.92 0.16 0 0.94 0.16 0 0.96 0.16 0 0.98 0.16 0 1 0.16 0 0 0.18 0 0.02 0.18 0 0.04 0.18 0 0.06 0.18 0 0.08 0.18 0 0.1 0.18 0 0.12 0.18 0 0.14 0.18 0 0.16 0.18 0 0.18 0.18 0 0.2 0.18 0 0.22 0.18 0 0.24 0.18 0 0.26 0.18 0 0.28 0.18 0 0.3 0.18 0 0.32 0.18 0 0.34 0.18 0 0.36 0.18 0 0.38 0.18 0 0.4 0.18 0 0.42 0.18 0 0.44 0.18 0 0.46 0.18 0 0.48 0.18 0 0.5 0.18 0 0.52 0.18 0 0.54 0.18 0 0.56 0.18 0 0.58 0.18 0 0.6 0.18 0 0.62 0.18 0 0.64 0.18 0 0.66 0.18 0 0.68 0.18 0 0.7 0.18 0 0.72 0.18 0 0.74 0.18 0 0.76 0.18 0 0.78 0.18 0 0.8 0.18 0 0.82 0.18 0 0.84 0.18 0 0.86 0.18 0 0.88 0.18 0 0.9 0.18 0 0.92 0.18 0 0.94 0.18 0 0.96 0.18 0 0.98 0.18 0 1 0.18 0 0 0.2 0 0.02 0.2 0 0.04 0.2 0 0.06 0.2 0 0.08 0.2 0 0.1 0.2 0 0.12 0.2 0 0.14 0.2 0 0.16 0.2 0 0.18 0.2 0 0.2 0.2 0 0.22 0.2 0 0.24 0.2 0 0.26 0.2 0 0.28 0.2 0 0.3 0.2 0 0.32 0.2 0 0.34 0.2 0 0.36 0.2 0 0.38 0.2 0 0.4 0.2 0 0.42 0.2 0 0.44 0.2 0 0.46 0.2 0 0.48 0.2 0 0.5 0.2 0 0.52 0.2 0 0.54 0.2 0 0.56 0.2 0 0.58 0.2 0 0.6 0.2 0 0.62 0.2 0 0.64 0.2 0 0.66 0.2 0 0.68 0.2 0 0.7 0.2 0 0.72 0.2 0 0.74 0.2 0 0.76 0.2 0 0.78 0.2 0 0.8 0.2 0 0.82 0.2 0 0.84 0.2 0 0.86 0.2 0 0.88 0.2 0 0.9 0.2 0 0.92 0.2 0 0.94 0.2 0 0.96 0.2 0 0.98 0.2 0 1 0.2 0 0 0.22 0 0.02 0.22 0 0.04 0.22 0 0.06 0.22 0 0.08 0.22 0 0.1 0.22 0 0.12 0.22 0 0.14 0.22 0 0.16 0.22 0 0.18 0.22 0 0.2 0.22 0 0.22 0.22 0 0.24 0.22 0 0.26 0.22 0 0.28 0.22 0 0.3 0.22 0 0.32 0.22 0 0.34 0.22 0 0.36 0.22 0 0.38 0.22 0 0.4 0.22 0 0.42 0.22 0 0.44 0.22 0 0.46 0.22 0 0.48 0.22 0 0.5 0.22 0 0.52 0.22 0 0.54 0.22 0 0.56 0.22 0 0.58 0.22 0 0.6 0.22 0 0.62 0.22 0 0.64 0.22 0 0.66 0.22 0 0.68 0.22 0 0.7 0.22 0 0.72 0.22 0 0.74 0.22 0 0.76 0.22 0 0.78 0.22 0 0.8 0.22 0 0.82 0.22 0 0.84 0.22 0 0.86 0.22 0 0.88 0.22 0 0.9 0.22 0 0.92 0.22 0 0.94 0.22 0 0.96 0.22 0 0.98 0.22 0 1 0.22 0 0 0.24 0 0.02 0.24 0 0.04 0.24 0 0.06 0.24 0 0.08 0.24 0 0.1 0.24 0 0.12 0.24 0 0.14 0.24 0 0.16 0.24 0 0.18 0.24 0 0.2 0.24 0 0.22 0.24 0 0.24 0.24 0 0.26 0.24 0 0.28 0.24 0 0.3 0.24 0 0.32 0.24 0 0.34 0.24 0 0.36 0.24 0 0.38 0.24 0 0.4 0.24 0 0.42 0.24 0 0.44 0.24 0 0.46 0.24 0 0.48 0.24 0 0.5 0.24 0 0.52 0.24 0 0.54 0.24 0 0.56 0.24 0 0.58 0.24 0 0.6 0.24 0 0.62 0.24 0 0.64 0.24 0 0.66 0.24 0 0.68 0.24 0 0.7 0.24 0 0.72 0.24 0 0.74 0.24 0 0.76 0.24 0 0.78 0.24 0 0.8 0.24 0 0.82 0.24 0 0.84 0.24 0 0.86 0.24 0 0.88 0.24 0 0.9 0.24 0 0.92 0.24 0 0.94 0.24 0 0.96 0.24 0 0.98 0.24 0 1 0.24 0 0 0.26 0 0.02 0.26 0 0.04 0.26 0 0.06 0.26 0 0.08 0.26 0 0.1 0.26 0 0.12 0.26 0 0.14 0.26 0 0.16 0.26 0 0.18 0.26 0 0.2 0.26 0 0.22 0.26 0 0.24 0.26 0 0.26 0.26 0 0.28 0.26 0 0.3 0.26 0 0.32 0.26 0 0.34 0.26 0 0.36 0.26 0 0.38 0.26 0 0.4 0.26 0 0.42 0.26 0 0.44 0.26 0 0.46 0.26 0 0.48 0.26 0 0.5 0.26 0 0.52 0.26 0 0.54 0.26 0 0.56 0.26 0 0.58 0.26 0 0.6 0.26 0 0.62 0.26 0 0.64 0.26 0 0.66 0.26 0 0.68 0.26 0 0.7 0.26 0 0.72 0.26 0 0.74 0.26 0 0.76 0.26 0 0.78 0.26 0 0.8 0.26 0 0.82 0.26 0 0.84 0.26 0 0.86 0.26 0 0.88 0.26 0 0.9 0.26 0 0.92 0.26 0 0.94 0.26 0 0.96 0.26 0 0.98 0.26 0 1 0.26 0 0 0.28 0 0.02 0.28 0 0.04 0.28 0 0.06 0.28 0 0.08 0.28 0 0.1 0.28 0 0.12 0.28 0 0.14 0.28 0 0.16 0.28 0 0.18 0.28 0 0.2 0.28 0 0.22 0.28 0 0.24 0.28 0 0.26 0.28 0 0.28 0.28 0 0.3 0.28 0 0.32 0.28 0 0.34 0.28 0 0.36 0.28 0 0.38 0.28 0 0.4 0.28 0 0.42 0.28 0 0.44 0.28 0 0.46 0.28 0 0.48 0.28 0 0.5 0.28 0 0.52 0.28 0 0.54 0.28 0 0.56 0.28 0 0.58 0.28 0 0.6 0.28 0 0.62 0.28 0 0.64 0.28 0 0.66 0.28 0 0.68 0.28 0 0.7 0.28 0 0.72 0.28 0 0.74 0.28 0 0.76 0.28 0 0.78 0.28 0 0.8 0.28 0 0.82 0.28 0 0.84 0.28 0 0.86 0.28 0 0.88 0.28 0 0.9 0.28 0 0.92 0.28 0 0.94 0.28 0 0.96 0.28 0 0.98 0.28 0 1 0.28 0 0 0.3 0 0.02 0.3 0 0.04 0.3 0 0.06 0.3 0 0.08 0.3 0 0.1 0.3 0 0.12 0.3 0 0.14 0.3 0 0.16 0.3 0 0.18 0.3 0 0.2 0.3 0 0.22 0.3 0 0.24 0.3 0 0.26 0.3 0 0.28 0.3 0 0.3 0.3 0 0.32 0.3 0 0.34 0.3 0 0.36 0.3 0 0.38 0.3 0 0.4 0.3 0 0.42 0.3 0 0.44 0.3 0 0.46 0.3 0 0.48 0.3 0 0.5 0.3 0 0.52 0.3 0 0.54 0.3 0 0.56 0.3 0 0.58 0.3 0 0.6 0.3 0 0.62 0.3 0 0.64 0.3 0 0.66 0.3 0 0.68 0.3 0 0.7 0.3 0 0.72 0.3 0 0.74 0.3 0 0.76 0.3 0 0.78 0.3 0 0.8 0.3 0 0.82 0.3 0 0.84 0.3 0 0.86 0.3 0 0.88 0.3 0 0.9 0.3 0 0.92 0.3 0 0.94 0.3 0 0.96 0.3 0 0.98 0.3 0 1 0.3 0 0 0.32 0 0.02 0.32 0 0.04 0.32 0 0.06 0.32 0 0.08 0.32 0 0.1 0.32 0 0.12 0.32 0 0.14 0.32 0 0.16 0.32 0 0.18 0.32 0 0.2 0.32 0 0.22 0.32 0 0.24 0.32 0 0.26 0.32 0 0.28 0.32 0 0.3 0.32 0 0.32 0.32 0 0.34 0.32 0 0.36 0.32 0 0.38 0.32 0 0.4 0.32 0 0.42 0.32 0 0.44 0.32 0 0.46 0.32 0 0.48 0.32 0 0.5 0.32 0 0.52 0.32 0 0.54 0.32 0 0.56 0.32 0 0.58 0.32 0 0.6 0.32 0 0.62 0.32 0 0.64 0.32 0 0.66 0.32 0 0.68 0.32 0 0.7 0.32 0 0.72 0.32 0 0.74 0.32 0 0.76 0.32 0 0.78 0.32 0 0.8 0.32 0 0.82 0.32 0 0.84 0.32 0 0.86 0.32 0 0.88 0.32 0 0.9 0.32 0 0.92 0.32 0 0.94 0.
[...]
			<PointData Scalars="VitesseX">
				<DataArray Name="VitesseX" type="Float32" format="ascii">
 0 0 0 0 0 0 0 0 0 0 0 0 0 0 0 0 0 0 0 0 0 0 0 0 0 0 0 0 0 0 0 0 0 0 0 0 0 0 0 0 0 0 0 0 0 0 0 0 0 0 -0 0 -0.000245902 -0.000961385 -0.00212674 -0.00372885 -0.00573091 -0.00808812 -0.0107471 -0.0136272 -0.0166578 -0.0317052 -0.0367649 -0.0419797 -0.0470062 -0.0521665 -0.0572717 -0.0414317 -0.0445608 -0.0474645 -0.0500817 -0.0799291 -0.0851446 0.0377891 -0.0538678 -0.0569237 -0.0579337 -0.0582421 -0.057783 -0.0568487 -0.0554515 -0.0534723 -0.0510819 -0.0483853 -0.0453241 -0.0426693 -0.0401623 -0.0359519 -0.0324405 -0.0284438 -0.024104 -0.0206924 -0.0171365 -0.0134235 -0.0108604 -0.00811928 -0.00571991 -0.00413648 -0.00234808 -0.000988603 -0.000260815 -2.86453e-27 0 -0.000513886 -0.00196516 -0.00426935 -0.00739148 -0.0112901 -0.0159505 -0.0213164 -0.0270866 -0.0330369 -0.0429411 -0.0496695 -0.0561259 -0.0626316 -0.0694318 -0.0762411 -0.0827436 -0.0888737 -0.094534 -0.0994511 -0.103105 -0.105942 -0.108967 -0.112042 -0.113907 -0.114697 -0.114565 -0.113356 -0.111237 -0.108181 -0.104278 -0.0996867 -0.0942025 -0.0890172 -0.0838159 -0.0762948 -0.0692625 -0.0625413 -0.0558842 -0.0470756 -0.040193 -0.0333321 -0.0260009 -0.0210611 -0.0157671 -0.0111167 -0.00707765 -0.00402148 -0.00193557 -0.000482607 -5.27195e-27 0 -0.000764664 -0.00298102 -0.00650478 -0.010935 -0.016649 -0.0234716 -0.0314567 -0.0401447 -0.0487858 -0.063659 -0.073685 -0.0832097 -0.0929055 -0.103078 -0.113111 -0.122557 -0.131361 -0.140865 -0.179246 -0.276975 -0.15255 -0.16284 -0.166912 -0.169023 -0.169741 -0.169201 -0.167049 -0.163656 -0.159097 -0.153357 -0.146585 -0.138948 -0.130966 -0.121489 -0.110923 -0.100582 -0.0909082 -0.0809549 -0.0693374 -0.0589982 -0.0489818 -0.0389277 -0.0309216 -0.0231614 -0.0163341 -0.0201472 -0.00778342 -0.00286208 -0.000696296 -7.59771e-27 0 -0.00100263 -0.00382332 -0.00829059 -0.0143442 -0.021894 -0.0308281 -0.0410104 -0.0522847 -0.0645567 -0.0779787 -0.0925425 -0.106861 -0.120613 -0.134126 -0.147304 -0.159959 -0.171914 -0.182905 -0.192784 -0.201273 -0.208464 -0.213418 -0.216158 -0.218711 -0.222755 -0.221156 -0.218272 -0.213736 -0.207565 -0.199976 -0.190948 -0.181538 -0.170124 -0.158031 -0.1451 -0.132074 -0.118082 -0.10391 -0.090053 -0.076818 -0.0638807 -0.0514879 -0.0402786 -0.0301787 -0.0212529 -0.00819282 0.00413325 -0.00359712 -0.00089898 -9.80535e-27 0 -0.00128099 -0.00467917 -0.010148 -0.0175586 -0.0267876 -0.0376848 -0.0500811 -0.0638189 -0.0788318 -0.0951069 -0.112943 -0.130207 -0.147136 -0.16434 -0.198504 -0.215407 -0.232191 -0.264349 -0.266798 -0.304904 -0.207502 -0.255711 -0.26684 -0.270031 -0.270901 -0.269674 -0.266197 -0.261293 -0.254532 -0.243959 -0.2332 -0.199676 -0.204076 -0.191684 -0.183098 -0.16541 -0.146844 -0.127621 -0.112837 -0.0934566 -0.0778181 -0.0629828 -0.049059 -0.0367494 -0.0258912 -0.0166215 -0.00715917 -0.00433331 -0.00108761 -1.18603e-26 0 -0.00139885 -0.00540113 -0.0117776 -0.0204287 -0.0312261 -0.0440093 -0.0585894 -0.0747599 -0.0923212 -0.111109 -0.130904 -0.151119 -0.171158 -0.190737 -0.209269 -0.227212 -0.243947 -0.259995 -0.27441 -0.286688 -0.296835 -0.304791 -0.310888 -0.314515 -0.315582 -0.313692 -0.311467 -0.306446 -0.299037 -0.289824 -0.278976 -0.253804 -0.24448 -0.228478 -0.205508 -0.186746 -0.167907 -0.148957 -0.129895 -0.108696 -0.0905482 -0.0733281 -0.0593202 -0.0427795 -0.0301837 -0.0195559 -0.0108681 -0.00501275 -0.00125928 -1.37303e-26 0 -0.00115911 -0.00608946 -0.0132739 -0.0230188 -0.0351911 -0.0496248 -0.0660751 -0.0842996 -0.104078 -0.125125 -0.146667 -0.16995 -0.192748 -0.214865 -0.23498 -0.255917 -0.274838 -0.292844 -0.308979 -0.322726 -0.334197 -0.343184 -0.349802 -0.328379 -0.355145 -0.354605 -0.35024 -0.34329 -0.334015 -0.322791 -0.309817 -0.294582 -0.274404 -0.254048 -0.231872 -0.203496 -0.181502 -0.164485 -0.143724 -0.122058 -0.101723 -0.0824187 -0.0562873 -0.0482677 -0.034008 -0.0220307 -0.0124731 -0.00562717 -0.00141135 -1.5386e-26 0 -0.00161537 -0.00593773 -0.0131328 -0.0254617 -0.0385308 -0.0541731 -0.072601 -0.092779 -0.11432 -0.139701 -0.17368 -0.211018 -0.196022 -0.232966 -0.256886 -0.279935 -0.301102 -0.320733 -0.338224 -0.353388 -0.357546 -0.374924 -0.383505 -0.387913 -0.38917 -0.38745 -0.382423 -0.374562 -0.363897 -0.350607 -0.334916 -0.316961 -0.297037 -0.275814 -0.25329 -0.225613 -0.204017 -0.180073 -0.157141 -0.13354 -0.111176 -0.0898512 -0.0657985 -0.0529258 -0.0372315 -0.0241146 -0.0136811 -0.00615191 -0.00154147 -1.68015e-26 0 -0.00185486 -0.00716333 -0.015645 -0.0271265 -0.0414441 -0.0583856 -0.0776914 -0.0990677 -0.122211 -0.146825 -0.172138 -0.198355 -0.224511 -0.249816 -0.275216 -0.299611 -0.322574 -50.8646 -0.361535 -0.378826 -0.392794 -0.403521 -0.411465 -0.415854 -0.41704 -0.415053 -0.409556 -0.401042 -0.389525 -0.375192 -0.35829 -0.339029 -0.31768 -0.294758 -0.270507 -0.245095 -0.219183 -0.193288 -0.170844 -0.142759 -0.118864 -0.0960658 -0.0747635 -0.0458172 -0.039842 -0.0257916 -0.014645 -0.00657082 -0.0016476 -1.79545e-26 0 -0.00196086 -0.00757306 -0.0164834 -0.0285438 -0.0436017 -0.0614115 -0.0816845 -0.104135 -0.128437 -0.154266 -0.180793 -0.208409 -0.235736 -0.262879 -0.289443 -0.315265 -0.338824 -0.362023 -0.381411 -0.398734 -0.413198 -0.424499 -0.432685 -0.437181 -0.438336 -0.436158 -0.430297 -0.421283 -0.409115 -0.393991 -0.376164 -0.355898 -0.333521 -0.309473 -0.283928 -0.257287 -0.230285 -0.203021 -0.175407 -0.151062 -0.124528 -0.100892 -0.0786071 -0.0542084 -0.0418194 -0.027081 -0.0153699 -0.0068867 -0.00172809 -1.8827e-26 0 -0.00206327 -0.0078416 -0.0170552 -0.0295304 -0.0450829 -0.0634777 -0.0844298 -0.107639 -0.132869 -0.159275 -0.18692 -0.215212 -0.243523 -0.271464 -0.310373 -0.326472 -0.35106 -0.373795 -0.394435 -0.41226 -0.427149 -0.438769 -0.447091 -0.451619 -0.452726 -0.450437 -0.444347 -0.435041 -0.422441 -0.40681 -0.388404 -0.367438 -0.344296 -0.319456 -0.293096 -0.265708 -0.23786 -0.209698 -0.18165 -0.154254 -0.129828 -0.104245 -0.0813843 -0.0608091 -0.0429223 -0.0278918 -0.0158669 -0.00708454 -0.00178404 -1.94051e-26 0 -0.00203536 -0.00805398 -0.0174288 -0.0301194 -0.0458859 -0.064571 -0.0859271 -0.109937 -0.135137 -0.162006 -0.190138 -0.218764 -0.247393 -0.288344 -0.306616 -0.332091 -0.357254 -0.380639 -0.401453 -0.419493 -0.434531 -0.446235 -0.454546 -0.459012 -0.459985 -0.457412 -0.450971 -0.441276 -0.428503 -0.412719 -0.394067 -0.372727 -0.349136 -0.323657 -0.297 -0.269352 -0.241026 -0.212507 -0.184272 -0.156692 -0.130018 -0.105521 -0.0825709 -0.0617352 -0.0431795 -0.0281203 -0.0160661 -0.00766352 -0.00180731 -1.96796e-26 0 -0.00188447 -0.0073704 -0.016266 -0.029463 -0.0465405 -0.0653634 -0.0864605 -0.10962 -0.134966 -0.162027 -0.18989 -0.218616 -0.260687 -0.279603 -0.305312 -0.331977 -0.357412 -0.380709 -0.401402 -0.419484 -0.434763 -0.446849 -0.45644 -0.458944 -0.459979 -0.457599 -0.451258 -0.440952 -0.428583 -0.412997 -0.39419 -0.371765 -0.349061 -0.319877 -0.29675 -0.269105 -0.241016 -0.212587 -0.184347 -0.156781 -0.130118 -0.10399 -0.0817502 -0.061699 -0.0433706 -0.0281095 -0.0160186 -0.0116643 -0.00180726 -1.96462e-26 0 -0.00187964 -0.00737722 -0.0163389 -0.0286976 -0.0442814 -0.0628985 -0.0843533 -0.107716 -0.133032 -0.159646 -0.187078 -0.215676 -0.247544 -0.273713 -0.301285 -0.327935 -0.352964 -0.375697 -0.395986 -0.414084 -0.437106 -0.440419 -0.447914 -0.451934 -0.452703 -0.450135 -0.442044 -0.43401 -0.421132 -0.405589 -0.387375 -0.365671 -0.344456 -0.317703 -0.291546 -5.73213 -0.236114 -0.208873 -0.181021 -0.15397 -0.127951 -0.10308 -0.0765491 -0.0606756 -0.0427264 -0.0276613 -0.0157694 -0.011481 -0.00177628 -1.93052e-26 0 -0.00183515 -0.0071946 -0.0159085 -0.0278301 -0.0428465 -0.0607691 -0.0812998 -0.104135 -0.128499 -0.1616 -0.190617 -0.214276 -0.238775 -0.265678 -0.292331 -0.318007 -0.341941 -0.363957 -0.384157 -0.420808 -0.440427 -0.426399 -0.440113 -0.438425 -0.438366 -0.435803 -0.427257 -0.419877 -0.407328 -0.391326 -0.374556 -0.353408 -0.332029 -0.306583 -0.28159 -0.25576 -27.9307 -0.200744 -0.174907 -0.148794 -0.123725 -0.0999627 -0.0778957 -0.0584269 -0.0413569 -0.0268125 -0.0152538 -0.00682706 -0.00171789 -1.86618e-26 0 -0.00174645 -0.0068477 -0.0151442 -0.026532 -0.0408584 -0.0579136 -0.0774179 -0.0990048 -0.122175 -1.39454 -0.223139 -0.203026 -0.227416 -0.253281 -0.278781 -0.303134 -0.326092 -0.347812 -0.366165 -0.442495 -0.396087 -0.408172 -0.414312 -0.416655 -0.417061 -0.414541 -0.405802 -0.398556 -0.38681 -0.366986 -0.355322 -0.335156 -0.313928 -0.29056 -0.267041 -0.24199 2.6844 -42.8554 -0.163623 -0.140939 -0.117374 -0.0950073 -0.0741654 -0.0541505 -0.0392678 -0.0254822 -0.0144892 -0.00649356 -0.00163273 -1.77263e-26 0 -0.00163194 -0.00639675 -0.0141515 -0.0247975 -0.0381784 -0.0541087 -0.0723269 -0.0925669 -0.113625 34.6836 -0.195623 -0.188064 -0.212313 -0.236934 -0.260901 -0.28366 -0.305504 -0.428733 -0.342488 -0.360543 -0.37184 -0.379046 -0.385982 -0.389339 -0.388496 -0.386584 -0.380561 -0.369166 -0.359937 -0.346015 -0.330537 -0.311897 -0.291094 -0.269759 -0.24789 -0.224935 -0.20207 -20.0774 -0.133543 -0.129952 -0.109089 -0.0884303 -0.0690933 -0.0515342 -0.0366631 -0.023747 -0.0135015 -0.00605236 -0.00152217 -1.65137e-26 0 -0.0014901 -0.00583466 -0.0129151 -0.0226603 -0.0349196 -0.0495708 -0.0663831 -0.0847202 -0.134266 -0.13761 -0.153526 -0.172202 -0.194516 -0.217077 -0.239083 -0.260202 -0.28094 -0.307177 -0.312627 -0.326681 -0.338543 -0.346903 -0.354953 -0.361347 -0.355238 -0.352149 -0.34724 -0.336037 -0.328015 -0.316697 -0.300673 -0.283301 -0.263847 -0.244787 -0.224726 -0.203054 -0.183165 0.0432074 -0.0591427 -0.112845 -0.0989578 -0.0803573 -0.0628963 -0.0470849 -0.0330257 -0.0216211 -0.0122984 -0.00551658 -0.00138811 -1.50435e-26 0 -0.00132607 -0.00519049 -0.0114951 -0.0201911 -0.0311385 -0.0442468 -0.0592909 -0.0753974 -0.0994536 -0.116942 -0.134494 -0.153728 -0.173856 -0.193927 -0.213467 -0.232503 -0.26103 -0.264308 -0.27877 -0.291235 -0.303371 -0.311596 -0.313598 -0.315846 -0.316038 -0.313204 -0.307975 -0.300436 -0.289029 -0.28079 -0.266027 -0.250733 -0.233557 -0.215807 -0.196818 -0.175574 -0.162045 -0.137728 -30.5998 -0.0993619 -0.0872111 -0.0709647 -0.0556212 -0.0415886 -0.027906 -0.019179 -0.0109192 -0.00490206 -0.00123193 -1.33398e-26 0 -0.00114738 -0.00448059 -0.00990162 -0.0173776 -0.0267954 -0.0380837 -0.0510399 -0.0652002 -0.0831349 -0.0997692 -0.11568 -0.132823 -0.150381 -0.167759 -0.184546 -0.200524 -0.228837 -0.231573 -0.240957 -0.256248 -0.277569 -0.273231 -0.269858 -0.272079 -0.271516 -0.268969 -0.261426 -0.257652 -0.249622 -0.239073 -0.227649 -0.214552 -0.199967 -0.183739 -0.168315 -0.152654 -0.135793 -0.121578 -0.066069 -0.0548303 -0.0735332 -0.0604734 -0.0474696 -0.0355267 -0.024931 -0.016544 -0.00935967 -0.00421036 -0.00105852 -1.143e-26 0 -0.000941651 -0.0036846 -0.00814905 -0.0143097 -0.0220938 -0.0314266 -0.0421048 -0.0540331 -0.0682047 -0.0821948 -0.095493 -0.109929 -0.124583 -0.139036 -0.152979 -0.166227 -0.179526 -0.18881 -0.198958 -0.207608 -0.214656 -0.220417 -0.223367 -0.22877 -0.221442 -0.220126 -0.215908 -0.204636 -0.205464 -0.194524 -0.184875 -0.174108 -0.162939 -0.149584 -0.135998 -0.120254 -0.101581 -0.0977667 -0.0732755 -0.0642525 -0.0591062 -0.0490653 -0.0385379 -0.0289303 -0.0204778 -0.0125481 -0.00765877 -0.00307029 -0.000866785 -9.34455e-27 0 -0.00072217 -0.00284304 -0.00631909 -0.0111008 -0.0171256 -0.0243187 -0.0325995 -0.0417104 -0.0527397 -0.0635924 -0.0741316 -0.0854672 -0.0969166 -0.108189 -0.119128 -0.12969 -0.137543 -0.145757 -0.153264 -0.159647 -0.164917 -0.169119 -0.174445 -0.171171 -0.169781 -0.16769 -0.165207 -0.159923 -0.153026 -0.146685 -0.139008 -0.130304 -0.121916 -0.111625 -0.10214 -0.0918733 -0.0818851 -0.0734673 -0.0610199 -0.0530231 -0.0450088 -0.0368139 -0.0289678 -0.0218029 -0.0154375 -0.00599567 -0.00584905 -0.00251115 -0.000656208 -7.11585e-27 0 -0.0004933 -0.0019499 -0.00434442 -0.00766801 -0.0118417 -0.0168539 -0.0226559 -0.0291891 -0.0370776 -0.044238 -0.0517303 -0.0597444 -0.0677894 -0.0756696 -0.0833437 -0.0908587 -0.096661 -0.101791 -0.106206 -0.110195 -0.113513 -0.11596 -0.115738 -0.116216 -0.115776 0.902609 -0.106343 -0.108471 -0.101866 -0.0975624 -0.0919776 -0.0866323 -0.0665118 -0.0690604 -0.0670177 -0.0602722 -0.0486171 -0.0374958 -0.0410796 -61.5806 -27.6946 -0.0239342 -0.0189647 -0.0143128 -0.0101488 -0.00655156 -0.00379821 -0.0016996 -0.000364097 -4.77747e-27 0 -0.000259065 -0.00104084 -0.00235767 -0.00421497 -0.00656061 -0.00935374 -0.0125041 -0.0165094 -0.0211308 -0.024282 -0.0285872 -0.0331258 -0.0376399 -0.041993 -0.0461651 -0.050239 -0.0529854 -0.060179 -0.0595749 -0.0596012 -0.0608531 -0.061994 -0.059832 -0.0595997 -0.0612495 -0.0520793 -0.052421 -0.0512805 -0.0508101 -0.0483366 -0.0458041 -0.0433224 -0.0360549 -0.0330577 -0.0293274 -0.0278382 -0.0221325 -0.0192556 -0.0182008 -0.0154901 -0.0128884 -0.0107103 -0.00864669 -0.00659515 -0.00473123 -0.00315567 -0.00184964 -0.000811828 -0.000125046 -2.36288e-27 0 -2.80255e-05 -0.000133123 -0.0003376 -0.000639846 -0.00102698 -0.00146882 -0.00197127 -0.00321027 -0.00547986 -0.00449123 -0.00524763 -0.00610134 -0.00696618 -0.00772138 -0.00829463 -0.00895967 -0.0119354 -0.00770545 -0.00820905 -0.00740614 -0.0068988 -0.00714788 -0.00347372 -0.00242606 -0.0319577 0.017758 0.0187492 0.00322413 0.00328629 0.00377507 0.0176312 0.0272343 0.00874812 0.00815398 0.00849633 0.00458596 0.00703744 0.00740846 0.00811638 0.0115665 0.00250224 0.00271488 0.00182083 0.00123679 0.000783915 0.000418085 0.000967777 8.97979e-05 8.37685e-06 8.29746e-29 0 0.000182547 0.000739934 0.00164616 0.00286512 0.00434542 0.00609417 0.00819165 0.00867006 0.00699422 0.00780702 0.0173953 0.0209023 0.023745 0.0265752 0.0295581 0.0323412 0.0340938 -140.848 0.0455336 0.0478889 0.0499347 0.0516507 0.0520294 0.0104749 0.0614238 0.0601663 0.0613541 0.142617 0.0575043 0.0693684 0.0678611 0.0558504 0.0529654 0.0497637 0.0450214 0.0429909 0.0370191 0.0332838 0.0290265 0.0250102 0.0246083 0.0161156 0.0122811 0.00906016 0.00630224 0.00402019 0.00222149 0.00100982 0.000238424 2.53482e-27 0 0.000135209 0.00151061 0.00352766 0.006282 0.00970583 0.0137827 0.0186161 0.0231646 0.0295414 0.0350287 0.0361716 0.0475153 0.0541497 0.0605315 0.0668867 0.07318 0.07829 0.0735197 0.092451 0.0978672 0.10248 0.106487 0.109567 0.111662 0.113874 0.115496 0.115297 0.682282 0.110729 0.107805 0.108175 0.0991488 0.0959264 0.0900346 0.0833444 0.0756514 0.0669964 0.0595369 0.0516955 0.0440688 0.036861 0.0295694 0.0225689 0.0167494 0.0117246 0.00753949 0.00421124 0.00189058 0.000470702 4.95479e-27 0 -2.40135e-05 0.00151856 0.00520217 0.00947437 0.0148274 0.0210419 0.0283682 0.0366672 0.0421996 0.0541567 0.0637695 0.0726071 0.0834618 0.0934174 0.103065 0.112748 0.121632 0.128452 0.130637 0.145893 0.15353 0.159346 0.163895 0.166966 0.169014 0.169914 0.168748 0.166253 0.170184 0.171034 0.154715 0.146121 0.137952 0.12866 1.67449 0.108197 0.0975156 0.0852455 0.0739526 0.062818 0.0520314 0.0424844 0.0325136 0.0241874 0.016976 0.0109547 0.00616337 0.00275637 0.000691039 7.30043e-27 0 0.000869226 0.0013255 0.00539251 0.0122372 0.0195585 0.0279549 0.0379072 0.0485915 0.0472172 0.0728108 0.0858857 0.0927784 0.111198 0.124804 0.137724 0.150313 0.162551 0.173612 0.183623 0.191391 0.168594 0.209477 0.21515 0.218723 0.248449 0.225568 0.223016 0.219038 0.213488 0.209964 0.204115 0.196445 0.189029 0.165569 0.153836 0.13874 0.124229 0.110634 0.0951522 0.0806169 0.0668281 0.0545523 0.0419556 0.0312537 0.0219736 0.0142169 0.00804421 0.00358383 0.000895596 9.5346e-27 0 0.00104438 0.00407973 -0.0290835 0.0141352 0.0236125 0.0344652 0.0463281 0.0601558 0.0406108 0.089608 0.105465 0.120553 0.137181 0.153933 0.170161 0.18549 0.200328 0.214273 0.227168 0.23842 0.248238 0.257603 0.263481 0.268155 0.271028 0.271594 0.269705 0.265287 0.258949 0.252811 0.242156 0.230365 0.216521 29.8965 0.18938 0.1664 0.149219 0.141461 0.116058 0.0988081 0.0807717 0.0659213 0.0507516 0.0378312 0.026637 0.0172883 0.00979005 0.00434968 0.00108429 1.16197e-26 0 0.00122543 0.00492619 0.010942 0.0161907 0.0231142 0.0407156 0.0533908 0.0704055 0.0884299 0.105004 0.123707 0.14312 0.138733 0.179165 0.199297 0.217741 0.234925 0.251072 0.266052 0.279374 0.290997 0.300654 0.30781 0.312942 0.315508 0.315644 0.313294 0.308045 0.300372 0.291089 0.279394 0.265562 0.249737 0.232399 0.214341 0.191893 0.17555 0.155898 0.132521 0.113101 0.0944236 0.0760348 0.0587519 0.0438117 0.0308654 0.0200789 0.0114037 0.00503443 0.001256 1.35229e-26 0 0.00138703 0.00553345 0.0120693 0.0208073 0.0175833 0.0466516 0.0585124 0.0795479 0.0988067 0.119036 0.139941 0.161143 0.166325 0.196913 0.224207 0.245976 0.265761 0.283979 0.300588 0.315452 0.328344 0.338902 0.346948 0.352514 0.355123 0.35495 0.352108 0.346223 0.33787 0.326777 0.31312 0.297401 0.279974 0.272182 0.239051 0.217651 0.193542 0.172024 0.16384 0.12626 0.104919 0.0849962 0.0658372 0.0491075 0.0345936 0.022506 0.0129478 0.00564195 0.00140779 1.52197e-26 0 0.00152035 0.00605473 0.0133013 0.0238176 0.0366366 0.051596 0.0672148 0.0880932 0.108922 0.130977 0.153749 0.17681 0.201363 0.222413 0.243295 0.269563 0.291903 0.312168 0.330354 0.34666 0.360633 0.372013 0.38066 0.386507 0.38912 0.388752 0.385517 0.379471 0.371849 0.358423 0.342933 0.325634 0.306687 0.287817 0.261042 0.237501 0.210713 0.187408 0.196283 0.137635 0.114273 0.0926989 0.0718962 0.0536512 0.0378195 0.0246701 0.0141864 0.00618132 0.00154013 1.66796e-26 0 0.00162886 0.00648542 0.0143008 0.025327 0.0391287 0.0554712 0.0745637 0.094918 0.117113 0.141032 0.165458 0.1902 0.2152 0.240955 0.264317 0.276018 0.312517 0.334906 0.354596 0.372247 0.387201 0.399257 0.408355 0.414409 0.416986 0.416512 0.413182 0.412529 0.403705 0.397463 0.387875 0.36858 0.335421 0.306082 0.27882 0.252259 0.225141 0.200349 0.185103 0.147028 0.12214 0.0989458 0.0768324 0.0573503 0.0404308 0.0263284 0.015235 0.0067078 0.00164953 1.78599e-26 0 0.00171375 0.00682301 0.0151013 0.026717 0.041075 0.0585228 0.0780645 0.100118 0.123438 0.148841 0.174606 0.200694 0.227007 0.253411 0.279424 0.300655 0.328671 0.349837 0.372631 0.391736 0.40744 0.419982 0.42944 0.435706 0.438273 0.437879 74.5501 0.426277 0.41522 0.401405 0.384244 0.364824 0.341276 0.31654 0.291914 0.280922 0.236071 0.209644 0.183991 0.154167 0.127987 0.103571 0.080568 0.0601554 0.042411 0.0276008 0.0160145 0.00731865 0.00173785 1.87625e-26 0 0.00177344 0.00706064 0.0156695 0.0277014 0.0426554 0.0606606 0.0809235 0.103784 0.127907 0.154343 0.181048 0.208199 0.235549 0.262654 0.289457 0.316079 0.340418 0.363907 0.385742 0.404692 0.418833 0.431599 0.441267 0.449294 0.460065 0.45283 0.449386 0.440163 0.42829 0.413476 0.395822 0.37576 0.355699 0.326863 0.302005 0.294274 0.24412 0.233327 0.187001 0.158858 0.140919 0.106534 0.0830613 0.062034 0.0437948 0.0285499 0.0164228 0.00749712 0.0017934 1.93722e-26 0 0.00180711 0.007195 0.0160035 0.02827 0.0435514 0.0618765 0.0825635 0.105874 0.130464 0.157531 0.184798 0.212649 0.240666 0.268094 0.295406 0.321902 0.347285 0.37111 0.392668 0.411861 0.428361 0.441244 0.451133 0.457332 0.460065 0.459323 0.45447 0.446094 0.435148 0.425511 0.403588 0.380956 0.382023 0.331608 0.305683 0.278005 0.247658 0.221675 0.188529 0.16068 0.14732 0.107787 0.0842441 0.0631702 0.0444566 0.0291222 0.0164546 0.00751201 0.0018193 1.96796e-26 0 0.00180733 0.00719655 0.0160383 0.0282835 0.0435794 0.0619058 0.0826151 0.105931 0.130533 0.157577 0.184897 0.21287 0.240954 0.268487 0.296013 0.322546 0.347902 0.371633 0.392953 0.412228 0.4285 0.441289 0.45115 0.457246 0.459977 0.458951 0.454343 0.446186 0.435151 0.425475 0.406493 0.381258 0.356761 0.331475 0.304984 0.274779 0.270768 0.216672 0.188141 0.160711 0.133541 0.107847 0.0845225 0.0647989 0.0442396 0.0286753 0.0163854 0.00770022 0.00182114 1.96781e-26 0 0.00179177 0.0071367 0.0159229 0.0280745 0.0432583 0.0613129 0.0818397 0.104883 0.129234 0.156067 0.183226 0.210939 0.23858 0.265901 0.293251 0.31943 0.344269 0.367395 0.388443 0.406913 0.422784 0.435052 0.4446 0.449186 0.452745 0.451376 0.446765 0.438625 0.427644 0.418372 0.398683 0.374392 0.347591 0.325242 0.299072 0.272345 0.256067 0.213246 0.236353 0.160303 0.1306