<?xml version="1.0"?>
<VTKFile type="PolyData">
	<PolyData>
		<Piece NumberOfPoints="2601" NumberOfPolys="2500">
			<Points>
				<DataArray type="Float32" NumberOfComponents="3" format="ascii">
 0 0 0 0.02 0 0 0.04 0 0 0.06 0 0 0.08 0 0 0.1 0 0 0.12 0 0 0.14 0 0 0.16 0 0 0.18 0 0 0.2 0 0 0.22 0 0 0.24 0 0 0.26 0 0 0.28 0 0 0.3 0 0 0.32 0 0 0.34 0 0 0.36 0 0 0.38 0 0 0.4 0 0 0.42 0 0 0.44 0 0 0.46 0 0 0.48 0 0 0.5 0 0 0.52 0 0 0.54 0 0 0.56 0 0 0.58 0 0 0.6 0 0 0.62 0 0 0.64 0 0 0.66 0 0 0.68 0 0 0.7 0 0 0.72 0 0 0.74 0 0 0.76 0 0 0.78 0 0 0.8 0 0 0.82 0 0 0.84 0 0 0.86 0 0 0.88 0 0 0.9 0 0 0.92 0 0 0.94 0 0 0.96 0 0 0.98 0 0 1 0 0 0 0.02 0 0.02 0.02 0 0.04 0.02 0 0.06 0.02 0 0.08 0.02 0 0.1 0.02 0 0.12 0.02 0 0.14 0.02 0 0.16 0.02 0 0.18 0.02 0 0.2 0.02 0 0.22 0.02 0 0.24 0.02 0 0.26 0.02 0 0.28 0.02 0 0.3 0.02 0 0.32 0.02 0 0.34 0.02 0 0.36 0.02 0 0.38 0.02 0 0.4 0.02 0 0.42 0.02 0 0.44 0.02 0 0.46 0.02 0 0.48 0.02 0 0.5 0.02 0 0.52 0.02 0 0.54 0.02 0 0.56 0.02 0 0.58 0.02 0 0.6 0.02 0 0.62 0.02 0 0.64 0.02 0 0.66 0.02 0 0.68 0.02 0 0.7 0.02 0 0.72 0.02 0 0.74 0.02 0 0.76 0.02 0 0.78 0.02 0 0.8 0.02 0 0.82 0.02 0 0.84 0.02 0 0.86 0.02 0 0.88 0.02 0 0.9 0.02 0 0.92 0.02 0 0.94 0.02 0 0.96 0.02 0 0.98 0.02 0 1 0.02 0 0 0.04 0 0.02 0.04 0 0.04 0.04 0 0.06 0.04 0 0.08 0.04 0 0.1 0.04 0 0.12 0.04 0 0.14 0.04 0 0.16 0.04 0 0.18 0.04 0 0.2 0.04 0 0.22 0.04 0 0.24 0.04 0 0.26 0.04 0 0.28 0.04 0 0.3 0.04 0 0.32 0.04 0 0.34 0.04 0 0.36 0.04 0 0.38 0.04 0 0.4 0.04 0 0.42 0.04 0 0.44 0.04 0 0.46 0.04 0 0.48 0.04 0 0.5 0.04 0 0.52 0.04 0 0.54 0.04 0 0.56 0.04 0 0.58 0.04 0 0.6 0.04 0 0.62 0.04 0 0.64 0.04 0 0.66 0.04 0 0.68 0.04 0 0.7 0.04 0 0.72 0.04 0 0.74 0.04 0 0.76 0.04 0 0.78 0.04 0 0.8 0.04 0 0.82 0.04 0 0.84 0.04 0 0.86 0.04 0 0.88 0.04 0 0.9 0.04 0 0.92 0.04 0 0.94 0.04 0 0.96 0.04 0 0.98 0.04 0 1 0.04 0 0 0.06 0 0.02 0.06 0 0.04 0.06 0 0.06 0.06 0 0.08 0.06 0 0.1 0.06 0 0.12 0.06 0 0.14 0.06 0 0.16 0.06 0 0.18 0.06 0 0.2 0.06 0 0.22 0.06 0 0.24 0.06 0 0.26 0.06 0 0.28 0.06 0 0.3 0.06 0 0.32 0.06 0 0.34 0.06 0 0.36 0.06 0 0.38 0.06 0 0.4 0.06 0 0.42 0.06 0 0.44 0.06 0 0.46 0.06 0 0.48 0.06 0 0.5 0.06 0 0.52 0.06 0 0.54 0.06 0 0.56 0.06 0 0.58 0.06 0 0.6 0.06 0 0.62 0.06 0 0.64 0.06 0 0.66 0.06 0 0.68 0.06 0 0.7 0.06 0 0.72 0.06 0 0.74 0.06 0 0.76 0.06 0 0.78 0.06 0 0.8 0.06 0 0.82 0.06 0 0.84 0.06 0 0.86 0.06 0 0.88 0.06 0 0.9 0.06 0 0.92 0.06 0 0.94 0.06 0 0.96 0.06 0 0.98 0.06 0 1 0.06 0 0 0.08 0 0.02 0.08 0 0.04 0.08 0 0.06 0.08 0 0.08 0.08 0 0.1 0.08 0 0.12 0.08 0 0.14 0.08 0 0.16 0.08 0 0.18 0.08 0 0.2 0.08 0 0.22 0.08 0 0.24 0.08 0 0.26 0.08 0 0.28 0.08 0 0.3 0.08 0 0.32 0.08 0 0.34 0.08 0 0.36 0.08 0 0.38 0.08 0 0.4 0.08 0 0.42 0.08 0 0.44 0.08 0 0.46 0.08 0 0.48 0.08 0 0.5 0.08 0 0.52 0.08 0 0.54 0.08 0 0.56 0.08 0 0.58 0.08 0 0.6 0.08 0 0.62 0.08 0 0.64 0.08 0 0.66 0.08 0 0.68 0.08 0 0.7 0.08 0 0.72 0.08 0 0.74 0.08 0 0.76 0.08 0 0.78 0.08 0 0.8 0.08 0 0.82 0.08 0 0.84 0.08 0 0.86 0.08 0 0.88 0.08 0 0.9 0.08 0 0.92 0.08 0 0.94 0.08 0 0.96 0.08 0 0.98 0.08 0 1 0.08 0 0 0.1 0 0.02 0.1 0 0.04 0.1 0 0.06 0.1 0 0.08 0.1 0 0.1 0.1 0 0.12 0.1 0 0.14 0.1 0 0.16 0.1 0 0.18 0.1 0 0.2 0.1 0 0.22 0.1 0 0.24 0.1 0 0.26 0.1 0 0.28 0.1 0 0.3 0.1 0 0.32 0.1 0 0.34 0.1 0 0.36 0.1 0 0.38 0.1 0 0.4 0.1 0 0.42 0.1 0 0.44 0.1 0 0.46 0.1 0 0.48 0.1 0 0.5 0.1 0 0.52 0.1 0 0.54 0.1 0 0.56 0.1 0 0.58 0.1 0 0.6 0.1 0 0.62 0.1 0 0.64 0.1 0 0.66 0.1 0 0.68 0.1 0 0.7 0.1 0 0.72 0.1 0 0.74 0.1 0 0.76 0.1 0 0.78 0.1 0 0.8 0.1 0 0.82 0.1 0 0.84 0.1 0 0.86 0.1 0 0.88 0.1 0 0.9 0.1 0 0.92 0.1 0 0.94 0.1 0 0.96 0.1 0 0.98 0.1 0 1 0.1 0 0 0.12 0 0.02 0.12 0 0.04 0.12 0 0.06 0.12 0 0.08 0.12 0 0.1 0.12 0 0.12 0.12 0 0.14 0.12 0 0.16 0.12 0 0.18 0.12 0 0.2 0.12 0 0.22 0.12 0 0.24 0.12 0 0.26 0.12 0 0.28 0.12 0 0.3 0.12 0 0.32 0.12 0 0.34 0.12 0 0.36 0.12 0 0.38 0.12 0 0.4 0.12 0 0.42 0.12 0 0.44 0.12 0 0.46 0.12 0 0.48 0.12 0 0.5 0.12 0 0.52 0.12 0 0.54 0.12 0 0.56 0.12 0 0.58 0.12 0 0.6 0.12 0 0.62 0.12 0 0.64 0.12 0 0.66 0.12 0 0.68 0.12 0 0.7 0.12 0 0.72 0.12 0 0.74 0.12 0 0.76 0.12 0 0.78 0.12 0 0.8 0.12 0 0.82 0.12 0 0.84 0.12 0 0.86 0.12 0 0.88 0.12 0 0.9 0.12 0 0.92 0.12 0 0.94 0.12 0 0.96 0.12 0 0.98 0.12 0 1 0.12 0 0 0.14 0 0.02 0.14 0 0.04 0.14 0 0.06 0.14 0 0.08 0.14 0 0.1 0.14 0 0.12 0.14 0 0.14 0.14 0 0.16 0.14 0 0.18 0.14 0 0.2 0.14 0 0.22 0.14 0 0.24 0.14 0 0.26 0.14 0 0.28 0.14 0 0.3 0.14 0 0.32 0.14 0 0.34 0.14 0 0.36 0.14 0 0.38 0.14 0 0.4 0.14 0 0.42 0.14 0 0.44 0.14 0 0.46 0.14 0 0.48 0.14 0 0.5 0.14 0 0.52 0.14 0 0.54 0.14 0 0.56 0.14 0 0.58 0.14 0 0.6 0.14 0 0.62 0.14 0 0.64 0.14 0 0.66 0.14 0 0.68 0.14 0 0.7 0.14 0 0.72 0.14 0 0.74 0.14 0 0.76 0.14 0 0.78 0.14 0 0.8 0.14 0 0.82 0.14 0 0.84 0.14 0 0.86 0.14 0 0.88 0.14 0 0.9 0.14 0 0.92 0.14 0 0.94 0.14 0 0.96 0.14 0 0.98 0.14 0 1 0.14 0 0 0.16 0 0.02 0.16 0 0.04 0.16 0 0.06 0.16 0 0.08 0.16 0 0.1 0.16 0 0.12 0.16 0 0.14 0.16 0 0.16 0.16 0 0.18 0.16 0 0.2 0.16 0 0.22 0.16 0 0.24 0.16 0 0.26 0.16 0 0.28 0.16 0 0.3 0.16 0 0.32 0.16 0 0.34 0.16 0 0.36 0.16 0 0.38 0.16 0 0.4 0.16 0 0.42 0.16 0 0.44 0.16 0 0.46 0.16 0 0.48 0.16 0 0.5 0.16 0 0.52 0.16 0 0.54 0.16 0 0.56 0.16 0 0.58 0.16 0 0.6 0.16 0 0.62 0.16 0 0.64 0.16 0 0.66 0.16 0 0.68 0.16 0 0.7 0.16 0 0.72 0.16 0 0.74 0.16 0 0.76 0.16 0 0.78 0.16 0 0.8 0.16 0 0.82 0.16 0 0.84 0.16 0 0.86 0.16 0 0.88 0.16 0 0.9 0.16 0 0.92 0.16 0 0.94 0.16 0 0.96 0.16 0 0.98 0.16 0 1 0.16 0 0 0.18 0 0.02 0.18 0 0.04 0.18 0 0.06 0.18 0 0.08 0.18 0 0.1 0.18 0 0.12 0.18 0 0.14 0.18 0 0.16 0.18 0 0.18 0.18 0 0.2 0.18 0 0.22 0.18 0 0.24 0.18 0 0.26 0.18 0 0.28 0.18 0 0.3 0.18 0 0.32 0.18 0 0.34 0.18 0 0.36 0.18 0 0.38 0.18 0 0.4 0.18 0 0.42 0.18 0 0.44 0.18 0 0.46 0.18 0 0.48 0.18 0 0.5 0.18 0 0.52 0.18 0 0.54 0.18 0 0.56 0.18 0 0.58 0.18 0 0.6 0.18 0 0.62 0.18 0 0.64 0.18 0 0.66 0.18 0 0.68 0.18 0 0.7 0.18 0 0.72 0.18 0 0.74 0.18 0 0.76 0.18 0 0.78 0.18 0 0.8 0.18 0 0.82 0.18 0 0.84 0.18 0 0.86 0.18 0 0.88 0.18 0 0.9 0.18 0 0.92 0.18 0 0.94 0.18 0 0.96 0.18 0 0.98 0.18 0 1 0.18 0 0 0.2 0 0.02 0.2 0 0.04 0.2 0 0.06 0.2 0 0.08 0.2 0 0.1 0.2 0 0.12 0.2 0 0.14 0.2 0 0.16 0.2 0 0.18 0.2 0 0.2 0.2 0 0.22 0.2 0 0.24 0.2 0 0.26 0.2 0 0.28 0.2 0 0.3 0.2 0 0.32 0.2 0 0.34 0.2 0 0.36 0.2 0 0.38 0.2 0 0.4 0.2 0 0.42 0.2 0 0.44 0.2 0 0.46 0.2 0 0.48 0.2 0 0.5 0.2 0 0.52 0.2 0 0.54 0.2 0 0.56 0.2 0 0.58 0.2 0 0.6 0.2 0 0.62 0.2 0 0.64 0.2 0 0.66 0.2 0 0.68 0.2 0 0.7 0.2 0 0.72 0.2 0 0.74 0.2 0 0.76 0.2 0 0.78 0.2 0 0.8 0.2 0 0.82 0.2 0 0.84 0.2 0 0.86 0.2 0 0.88 0.2 0 0.9 0.2 0 0.92 0.2 0 0.94 0.2 0 0.96 0.2 0 0.98 0.2 0 1 0.2 0 0 0.22 0 0.02 0.22 0 0.04 0.22 0 0.06 0.22 0 0.08 0.22 0 0.1 0.22 0 0.12 0.22 0 0.14 0.22 0 0.16 0.22 0 0.18 0.22 0 0.2 0.22 0 0.22 0.22 0 0.24 0.22 0 0.26 0.22 0 0.28 0.22 0 0.3 0.22 0 0.32 0.22 0 0.34 0.22 0 0.36 0.22 0 0.38 0.22 0 0.4 0.22 0 0.42 0.22 0 0.44 0.22 0 0.46 0.22 0 0.48 0.22 0 0.5 0.22 0 0.52 0.22 0 0.54 0.22 0 0.56 0.22 0 0.58 0.22 0 0.6 0.22 0 0.62 0.22 0 0.64 0.22 0 0.66 0.22 0 0.68 0.22 0 0.7 0.22 0 0.72 0.22 0 0.74 0.22 0 0.76 0.22 0 0.78 0.22 0 0.8 0.22 0 0.82 0.22 0 0.84 0.22 0 0.86 0.22 0 0.88 0.22 0 0.9 0.22 0 0.92 0.22 0 0.94 0.22 0 0.96 0.22 0 0.98 0.22 0 1 0.22 0 0 0.24 0 0.02 0.24 0 0.04 0.24 0 0.06 0.24 0 0.08 0.24 0 0.1 0.24 0 0.12 0.24 0 0.14 0.24 0 0.16 0.24 0 0.18 0.24 0 0.2 0.24 0 0.22 0.24 0 0.24 0.24 0 0.26 0.24 0 0.28 0.24 0 0.3 0.24 0 0.32 0.24 0 0.34 0.24 0 0.36 0.24 0 0.38 0.24 0 0.4 0.24 0 0.42 0.24 0 0.44 0.24 0 0.46 0.24 0 0.48 0.24 0 0.5 0.24 0 0.52 0.24 0 0.54 0.24 0 0.56 0.24 0 0.58 0.24 0 0.6 0.24 0 0.62 0.24 0 0.64 0.24 0 0.66 0.24 0 0.68 0.24 0 0.7 0.24 0 0.72 0.24 0 0.74 0.24 0 0.76 0.24 0 0.78 0.24 0 0.8 0.24 0 0.82 0.24 0 0.84 0.24 0 0.86 0.24 0 0.88 0.24 0 0.9 0.24 0 0.92 0.24 0 0.94 0.24 0 0.96 0.24 0 0.98 0.24 0 1 0.24 0 0 0.26 0 0.02 0.26 0 0.04 0.26 0 0.06 0.26 0 0.08 0.26 0 0.1 0.26 0 0.12 0.26 0 0.14 0.26 0 0.16 0.26 0 0.18 0.26 0 0.2 0.26 0 0.22 0.26 0 0.24 0.26 0 0.26 0.26 0 0.28 0.26 0 0.3 0.26 0 0.32 0.26 0 0.34 0.26 0 0.36 0.26 0 0.38 0.26 0 0.4 0.26 0 0.42 0.26 0 0.44 0.26 0 0.46 0.26 0 0.48 0.26 0 0.5 0.26 0 0.52 0.26 0 0.54 0.26 0 0.56 0.26 0 0.58 0.26 0 0.6 0.26 0 0.62 0.26 0 0.64 0.26 0 0.66 0.26 0 0.68 0.26 0 0.7 0.26 0 0.72 0.26 0 0.74 0.26 0 0.76 0.26 0 0.78 0.26 0 0.8 0.26 0 0.82 0.26 0 0.84 0.26 0 0.86 0.26 0 0.88 0.26 0 0.9 0.26 0 0.92 0.26 0 0.94 0.26 0 0.96 0.26 0 0.98 0.26 0 1 0.26 0 0 0.28 0 0.02 0.28 0 0.04 0.28 0 0.06 0.28 0 0.08 0.28 0 0.1 0.28 0 0.12 0.28 0 0.14 0.28 0 0.16 0.28 0 0.18 0.28 0 0.2 0.28 0 0.22 0.28 0 0.24 0.28 0 0.26 0.28 0 0.28 0.28 0 0.3 0.28 0 0.32 0.28 0 0.34 0.28 0 0.36 0.28 0 0.38 0.28 0 0.4 0.28 0 0.42 0.28 0 0.44 0.28 0 0.46 0.28 0 0.48 0.28 0 0.5 0.28 0 0.52 0.28 0 0.54 0.28 0 0.56 0.28 0 0.58 0.28 0 0.6 0.28 0 0.62 0.28 0 0.64 0.28 0 0.66 0.28 0 0.68 0.28 0 0.7 0.28 0 0.72 0.28 0 0.74 0.28 0 0.76 0.28 0 0.78 0.28 0 0.8 0.28 0 0.82 0.28 0 0.84 0.28 0 0.86 0.28 0 0.88 0.28 0 0.9 0.28 0 0.92 0.28 0 0.94 0.28 0 0.96 0.28 0 0.98 0.28 0 1 0.28 0 0 0.3 0 0.02 0.3 0 0.04 0.3 0 0.06 0.3 0 0.08 0.3 0 0.1 0.3 0 0.12 0.3 0 0.14 0.3 0 0.16 0.3 0 0.18 0.3 0 0.2 0.3 0 0.22 0.3 0 0.24 0.3 0 0.26 0.3 0 0.28 0.3 0 0.3 0.3 0 0.32 0.3 0 0.34 0.3 0 0.36 0.3 0 0.38 0.3 0 0.4 0.3 0 0.42 0.3 0 0.44 0.3 0 0.46 0.3 0 0.48 0.3 0 0.5 0.3 0 0.52 0.3 0 0.54 0.3 0 0.56 0.3 0 0.58 0.3 0 0.6 0.3 0 0.62 0.3 0 0.64 0.3 0 0.66 0.3 0 0.68 0.3 0 0.7 0.3 0 0.72 0.3 0 0.74 0.3 0 0.76 0.3 0 0.78 0.3 0 0.8 0.3 0 0.82 0.3 0 0.84 0.3 0 0.86 0.3 0 0.88 0.3 0 0.9 0.3 0 0.92 0.3 0 0.94 0.3 0 0.96 0.3 0 0.98 0.3 0 1 0.3 0 0 0.32 0 0.02 0.32 0 0.04 0.32 0 0.06 0.32 0 0.08 0.32 0 0.1 0.32 0 0.12 0.32 0 0.14 0.32 0 0.16 0.32 0 0.18 0.32 0 0.2 0.32 0 0.22 0.32 0 0.24 0.32 0 0.26 0.32 0 0.28 0.32 0 0.3 0.32 0 0.32 0.32 0 0.34 0.32 0 0.36 0.32 0 0.38 0.32 0 0.4 0.32 0 0.42 0.32 0 0.44 0.32 0 0.46 0.32 0 0.48 0.32 0 0.5 0.32 0 0.52 0.32 0 0.54 0.32 0 0.56 0.32 0 0.58 0.32 0 0.6 0.32 0 0.62 0.32 0 0.64 0.32 0 0.66 0.32 0 0.68 0.32 0 0.7 0.32 0 0.72 0.32 0 0.74 0.32 0 0.76 0.32 0 0.78 0.32 0 0.8 0.32 0 0.82 0.32 0 0.84 0.32 0 0.86 0.32 0 0.88 0.32 0 0.9 0.32 0 0.92 0.32 0 0.94 0.
[...]
			<PointData Scalars="VitesseX">
				<DataArray Name="VitesseX" type="Float32" format="ascii">
 0 0 -0 0 0 0 0 0 0 0 0 0 0 0 0 0 0 0 0 0 0 0 0 0 0 0 0 0 0 0 0 0 0 0 0 0 0 0 0 0 0 0 0 0 0 0 0 0 0 0 0 0 0.000379139 0.00251256 0.00324028 0.00576539 0.00871346 0.0123489 0.0168618 0.0209978 0.0259324 0.0309473 0.0363604 0.0417505 0.0472895 0.0526528 0.0579205 0.0628858 0.0678299 0.0732182 0.0741893 0.0804476 0.0846003 0.0835739 0.0841037 0.0855421 0.0836974 0.0686584 0.0725358 0.0776451 0.0743987 0.0745789 0.0740886 0.0702835 0.0658829 0.0611824 0.0561912 0.0509476 0.0455989 0.0402315 0.0348885 0.0296771 0.0246638 0.020009 0.015787 0.011685 0.00846879 0.00537891 0.00304075 0.00141835 0.000362638 3.66973e-27 0 0.00070465 0.00283164 0.00615945 0.0108829 0.0166672 0.023634 0.0316296 0.0403444 0.0498307 0.059961 0.0704991 0.0811231 0.0916622 0.102293 0.112835 0.122596 0.131912 0.14081 0.147674 0.153578 0.160634 0.168063 0.174405 0.171443 0.169963 0.169453 0.167808 0.164221 0.158989 0.153847 0.147318 0.139654 0.131067 0.12171 0.111791 0.101475 0.090851 0.0801237 0.0695788 0.0591704 0.0492175 0.0398343 0.0311734 0.0233699 0.0165377 0.0107807 0.00618282 0.00281317 0.000723573 7.28215e-27 0 0.00101914 0.00409745 0.00897791 0.0157805 0.0243524 0.0345503 0.0461095 0.0590388 0.0729687 0.0880188 0.102956 0.118823 0.134529 0.15035 0.165908 0.1803 0.193973 0.206922 0.218602 0.227364 0.235269 0.242675 0.248837 0.252832 0.252019 0.249485 0.0647866 0.243592 0.236732 0.228795 0.218422 0.206852 0.194148 0.180269 0.165577 0.15033 0.134572 0.118656 0.103009 0.087639 0.0728965 0.0590969 0.0462299 0.0346991 0.0245506 0.0159977 0.00917186 0.00417388 0.00108361 1.07779e-26 0 0.0013177 0.00526542 0.0116549 0.0204691 0.0316532 0.0448237 0.0599919 0.0768244 0.0948935 0.114614 0.13456 0.155132 0.175681 0.196382 0.216459 0.235319 0.253055 0.269756 0.284797 0.298061 0.307868 0.316838 0.323965 0.328395 0.329684 0.327803 0.318214 0.304866 0.308125 0.301174 0.286526 0.270921 0.254241 0.234073 0.215686 0.1965 0.173362 0.183057 0.0291549 0.115417 0.0952152 0.0768948 0.0601253 0.0450483 0.031876 0.0207934 0.0119286 0.0054299 0.00139854 1.41067e-26 0 0.00159569 0.00643307 0.0141549 0.0250842 0.0384577 0.054577 0.0730119 0.0934279 0.115374 0.139299 0.163033 0.188088 0.213078 0.238441 0.263053 0.286321 0.308435 0.328831 0.346753 0.362837 0.371026 0.357367 0.395566 0.400397 0.402271 0.401106 0.396921 0.389465 0.378753 0.36472 0.3473 0.312594 0.267913 0.288405 0.2647 0.240566 0.21547 0.18984 0.164073 0.139432 0.12517 0.0937512 0.0733364 0.0549518 0.0389337 0.0255755 0.0144682 0.00664463 0.00170852 1.72084e-26 0 0.00183532 0.0124244 0.0162473 0.67482 0.0444463 0.0631728 0.0849115 0.108528 0.133893 0.161713 0.189794 0.218814 0.247576 0.276758 0.305363 0.332436 0.358143 0.381951 0.402961 0.421891 0.435538 0.451459 0.459766 0.466207 0.468477 0.467217 0.462416 0.453738 0.44144 0.425866 0.407666 0.387471 0.370723 0.339065 0.30886 0.280561 0.25123 0.220923 0.191424 0.163177 0.136116 0.110278 0.0862467 0.0645988 0.0456677 0.0297675 0.0170138 0.0077443 0.00199228 2.00447e-26 0 0.00186808 0.00577032 0.0182343 0.0314257 0.0499684 0.0711651 0.0955779 0.121981 0.150274 0.180775 0.212607 0.244765 0.277711 0.310763 0.342541 0.373181 0.402007 0.428682 0.452703 0.474679 0.492433 0.507661 0.517057 0.524655 0.527296 0.526187 0.521325 0.514363 0.497415 0.480011 0.459641 0.436907 0.417934 0.384066 0.347959 0.315834 0.282968 0.248865 0.215918 0.183899 0.153021 0.123847 0.0969938 0.0728332 0.051681 0.0336237 0.0193419 0.00882451 0.00227484 2.25564e-26 0 0.00209559 0.00907101 0.0203307 0.0356028 0.0548951 0.0650104 0.103844 0.133102 0.164614 0.198367 0.232136 0.267454 0.303727 0.339278 0.374026 0.407809 0.439364 0.468661 0.494177 0.530971 0.556614 4.5989 0.567713 0.574404 0.577862 0.577802 0.568656 0.564682 0.545342 0.526186 0.503753 0.478861 0.457432 0.422128 0.381457 0.346037 0.310319 0.274565 0.237228 0.201576 0.167595 0.135653 0.106366 0.0799038 0.0567082 0.0369135 0.0212132 0.00971088 0.00252847 2.47154e-26 0 0.00243992 0.00964946 0.0333335 0.0379632 0.0587102 0.082183 0.111047 0.14208 0.176184 0.210901 0.248142 0.28645 0.324851 0.36273 0.399976 0.436027 0.468568 -22.1742 21.5003 0.411501 -0.446974 0.596791 0.608317 0.616415 0.619195 0.617927 0.611617 0.600403 0.584768 0.564639 0.540222 0.512026 0.480358 0.445567 0.407148 0.363536 0.330671 0.302601 0.254899 0.216177 0.17968 0.1455 0.114115 0.0856543 0.0607687 0.0396272 0.0227447 0.0103572 0.00262772 2.6494e-26 0 0.00178499 0.00841336 0.0152544 0.039754 0.0547546 0.0869523 0.116709 0.149118 0.185429 0.221703 0.260496 0.300608 0.340572 0.380564 0.420203 0.457432 29.7811 0.0656459 0.481159 0.582753 0.605659 0.624138 0.638146 0.647421 0.650813 0.649677 0.643361 0.631643 0.615245 0.594166 0.568658 0.539233 0.506272 0.470274 0.43184 0.391891 0.350816 0.308343 0.298825 0.249459 0.187734 0.153054 0.120009 0.0901035 0.0640438 0.0416795 0.0239036 0.0108442 0.00273715 2.78434e-26 0 0.00258588 0.00627015 0.0232702 0.0411658 0.061089 0.0898183 0.120403 0.147042 0.190526 0.22932 0.268997 0.309922 0.351529 0.392703 0.433211 32.3934 -0.252136 0.540976 0.573612 0.601821 0.625504 0.644608 0.658952 0.668554 0.67217 0.671113 0.664817 0.652851 0.636048 0.614392 0.588188 0.557908 0.523989 0.486939 0.447437 0.406015 0.363444 0.3208 0.278629 0.270016 0.205944 0.157048 0.124315 0.0931531 0.0659906 0.0430939 0.0246745 0.0110876 0.00271123 2.87625e-26 0 0.00267939 0.0106627 0.0237965 0.0418514 0.0643174 0.0913045 0.121912 0.154717 0.192528 0.231852 0.272403 0.31364 0.35567 0.397228 0.434171 0.444842 0.511824 0.549246 0.581657 0.610013 0.634113 0.65378 0.668628 0.678672 0.682882 0.682009 0.676013 0.66409 0.64727 0.625489 0.599064 0.568383 0.533958 0.49635 0.456209 0.414012 0.370669 0.327161 0.284055 0.243026 0.217775 0.161135 0.126799 0.0945287 0.0667763 0.0437456 0.0247705 0.0110245 0.00275262 2.9222e-26 0 0.00267936 0.0106629 0.0237943 0.0418455 0.0645916 0.0914424 0.121838 0.155851 0.192779 0.231642 0.27223 0.313533 0.354571 0.395425 36.1067 0.47395 0.514244 0.549803 0.58177 0.609938 0.634092 0.65377 0.668614 0.67867 0.682839 0.681981 0.676041 0.664168 0.647353 0.625667 0.59928 0.568531 0.534122 0.496532 0.456326 0.414174 0.370852 0.327103 0.283529 0.241363 0.202007 0.178225 0.125677 0.0939569 0.0670781 0.0433808 0.0237889 0.0107195 0.00273114 2.92243e-26 0 0.00263522 0.0104848 0.0233776 0.0411059 0.0633983 0.0897295 0.119471 0.152819 0.188964 0.226992 0.266624 0.307152 0.347224 42.1459 0.424546 0.467568 0.505127 0.539597 0.570901 0.598821 0.622804 0.642338 0.6572 0.667241 0.671967 0.671392 0.666259 0.655365 0.639038 0.617993 0.592217 0.562092 0.528588 0.491304 0.45127 0.409741 0.367045 0.323713 0.280492 0.238462 0.198725 0.162819 0.122306 0.0896182 0.0670903 0.0423771 0.0239403 0.010722 0.00269498 2.87692e-26 0 0.00255013 0.0101462 0.0226049 0.0397416 0.0612423 0.0866672 0.115379 0.147513 0.1824 0.219056 0.257031 0.295981 0.334698 0.366809 0.412797 0.451861 0.487725 0.520855 0.551341 0.578611 0.601883 0.620686 0.635019 0.644741 0.650755 0.654114 0.654115 0.634556 0.618842 0.598202 0.64503 0.553872 0.516253 0.477174 0.438149 0.397582 0.355993 0.314117 0.272252 0.231248 0.192256 0.156304 0.137145 0.12039 0.0524238 0.0405211 0.0230884 0.0103815 0.00274594 2.78694e-26 0 0.00242577 0.00965171 0.0214675 0.037737 0.0581514 0.0822557 0.109555 0.140104 0.172901 0.20614 0.238515 0.274819 0.309119 0.352408 0.392264 0.428221 0.462178 0.49376 0.522969 0.548909 0.570794 0.588361 0.591246 0.606834 0.61899 0.618965 0.614863 0.605163 0.59131 0.570977 0.547698 0.521508 0.489009 -45.5465 0.425544 0.380412 0.34005 0.299955 0.260006 0.22083 0.183355 0.148634 0.118771 0.0840777 0.0577487 0.0390185 0.0220351 0.00995854 0.00250825 2.64952e-26 0 0.00226372 0.00900525 0.0199349 0.0350712 0.0541137 0.0765053 0.129278 0.129833 0.160564 0.191154 0.225608 0.259464 0.109132 0.328973 0.364519 0.397609 0.429084 0.458873 0.486142 0.509929 0.529433 0.528038 0.558167 0.573494 0.577592 0.578885 0.586418 0.58082 0.550913 0.534412 0.513591 0.489398 0.458061 0.426211 0.392431 0.357798 0.318876 0.281048 0.243654 0.206988 0.171758 0.138892 0.108701 0.141099 0.0552493 0.0365577 0.0220205 0.00966472 0.0022983 2.47496e-26 0 0.00206562 0.0081907 0.0179998 0.0317389 0.0490346 0.0694342 0.382248 0.117286 0.145766 0.174387 0.205076 0.23569 0.253209 0.297953 0.33048 0.360641 0.389286 0.41646 0.441241 0.462414 0.472895 0.49061 0.514898 0.522965 0.527239 0.52741 0.52527 0.526558 0.516766 0.486831 0.469237 0.447993 0.419828 0.391072 0.360275 0.327454 0.292447 0.257721 0.223513 0.189863 0.157536 0.127277 0.0996536 0.0760669 0.0746265 0.0341141 0.0189673 0.00843067 0.00224325 2.2827e-26 0 0.00183475 -0.0158247 0.0160749 0.0282314 0.0433048 0.0613546 0.0794961 0.103775 0.128442 0.15399 0.181052 0.208075 0.232309 0.262825 0.290922 0.317644 0.343324 0.367371 0.388644 0.405469 0.426394 0.438923 0.456889 0.464 0.46815 0.468576 0.466297 0.460137 0.451201 0.435929 0.418186 0.399766 0.375703 0.350197 0.322715 0.29332 0.263473 0.232131 0.200375 0.16992 0.141016 0.113761 0.0887455 0.066532 0.0658071 0.0296473 0.0167893 0.00753532 0.00211536 2.0532e-26 0 0.0015728 0.00365439 0.0137376 0.0196167 0.036747 0.0520471 0.0692921 0.0875733 35.9042 0.130592 0.154072 0.176766 0.19906 0.223409 0.246885 0.269608 0.291761 0.312413 0.330653 0.332789 0.356076 0.373835 0.382388 0.388875 0.40061 0.402578 0.400668 0.395538 0.388665 0.37652 0.361249 0.346983 0.326074 0.303792 0.280039 0.254812 0.228583 0.279736 0.176136 0.147384 0.12222 0.0984948 0.0767769 0.0574505 0.0425023 0.0266757 0.0145009 0.00650042 0.00161659 1.78168e-26 0 0.001287 0.00430422 0.0108766 0.0180269 0.0296222 0.0417161 0.0535141 0.0667615 0.0861676 0.105295 0.123885 0.141149 0.160474 0.179881 0.198759 0.217233 0.235317 0.252143 0.267073 0.268176 0.286119 0.307051 0.315376 0.321976 0.328843 0.330738 0.329639 0.326945 0.319973 0.310539 0.299564 0.292637 0.272315 0.252328 0.233156 0.212271 0.1904 0.167979 0.146858 0.12281 0.101529 0.0818317 0.063752 0.047589 0.0337832 0.0213235 0.0120014 0.00535171 0.00131844 1.4365e-26 0 0.000951105 0.00345694 0.00807714 0.0141172 0.0220769 0.0307417 0.0373661 0.00139998 0.0654935 0.00142648 -0.431262 0.0647654 0.118758 0.133223 0.147306 0.161291 0.175008 0.18775 0.199238 0.212127 0.223201 0.232351 0.239762 0.245448 0.252108 0.258161 0.258896 0.255401 0.247255 0.240504 0.232871 0.223475 0.211683 0.197935 0.182723 0.165975 0.148986 0.131535 0.113659 0.0960262 0.0794653 0.0639525 0.0496872 0.0369556 0.0259325 0.0164616 0.0091852 0.00405822 0.00101693 1.09776e-26 0 0.00049624 0.00239006 0.00532388 0.00916312 0.0142894 0.0185121 0.0248276 0.0231003 0.0421443 0.0504746 0.0532826 0.0656057 0.0751362 0.0845085 0.09357 0.102684 0.111861 0.12033 0.127841 0.138907 0.147286 0.153996 0.159529 0.164017 0.169531 0.172203 0.172285 0.172003 0.171019 0.167717 0.16249 0.157024 0.149358 0.139848 0.129021 0.117642 0.105835 0.0936296 0.0815446 0.0685089 0.0561501 0.045061 0.0348936 0.0258576 0.0180562 0.0115707 0.00652463 0.00279168 0.00070488 7.5003e-27 0 0.000288951 0.00113668 0.00246554 0.00426946 0.0063863 0.00666584 0.0110238 0.014068 0.0170039 0.0205747 0.0236261 0.0273614 0.0300478 0.0341845 0.0381147 0.0423067 0.0468592 0.051144 0.0551212 0.0648128 0.0687513 0.0725967 0.0763887 0.0785731 0.085656 0.0884188 0.0899274 0.0937353 0.094339 0.0933453 0.0918572 0.0882285 0.0846301 0.0799561 0.0742835 0.0678965 0.0611686 0.0554667 0.0485654 0.0489131 0.0319617 0.0254831 0.0196056 0.0144053 0.0099862 0.00678582 0.00324485 0.00150576 0.000386327 3.8362e-27 0 -3.27458e-05 -0.000189435 -0.000527962 -0.00105218 -0.00174981 -0.003315 -0.003808 -0.00459115 -0.00563327 -0.0122338 -0.0122021 -0.0140586 -0.0151165 -0.016859 -0.0180993 -0.0188127 -0.0189499 -0.0186672 -0.01808 -0.0165659 -0.0138117 -0.0120941 -0.00847717 -0.0218115 0.000193905 0.00411838 0.00740873 0.0272324 0.0236837 0.0201663 0.0201461 0.0184189 0.0192737 0.0278398 0.0262555 0.0148827 0.0158398 0.0648607 0.0592212 0.0366189 0.00727506 0.0055903 0.00406275 0.00275896 0.00174706 0.000969385 0.000437278 0.000211863 8.27001e-05 2.08097e-28 0 -0.000374403 -0.00152069 -0.00347184 -0.00635689 -0.00992778 -0.0141294 -0.0190495 -0.0835179 -0.203429 -0.0401584 -0.123724 -0.156464 -0.0621754 -0.0678394 -0.0739584 -0.0797387 -0.0846676 -0.0885118 -0.0916053 -0.0946649 -0.257247 -0.28063 -4.50617 -0.110324 -0.146712 -0.070439 -0.0639475 -0.0739682 -0.0705066 -0.0661735 -0.0483659 -0.0153112 -0.0420279 -0.042391 -0.0395819 -0.0319446 -0.0255491 -0.0257625 -0.0219187 -0.0207989 -0.0173575 -0.0143487 -0.0114883 -0.00887059 -0.00645656 -0.00435974 -1.23795 -0.00119464 -0.000311779 -3.48975e-27 0 -0.000722644 -0.00288571 -0.00646308 -0.0115324 -0.0180265 -0.0258781 -0.0349953 -0.0478612 -0.0537151 -0.0645516 -0.0831569 0.0326055 -0.159621 -0.117669 -0.128834 -0.13944 -0.149073 -0.157294 -0.163915 -0.169686 -0.174371 -0.172086 -0.170815 -0.170743 -0.169446 -0.167479 -0.164244 -0.154636 -0.141689 -0.13635 -0.130645 -0.122423 -0.110003 -0.0999688 -0.0915383 -0.0763622 -0.0742584 -0.0676231 -0.0581747 -0.0464592 -0.041286 -0.0340266 -0.0268623 -0.0203514 -0.014515 -0.00949532 -0.00567393 -0.00253035 -0.000574834 -7.21026e-27 0 -0.00105956 -0.00419409 -0.00939862 -0.0166105 -0.0258338 -0.0369292 -0.0493329 -0.0645627 -0.0804359 -0.0971577 -0.11531 -0.134011 -0.150997 -0.166132 -0.182345 -0.197373 -0.211222 -0.223709 -0.234224 -0.242361 -0.251396 -0.264229 -0.251047 -0.252217 -0.251351 -0.248184 -0.241895 -0.228537 -0.225483 -0.217309 -0.197656 -0.180585 -0.174983 -0.163991 -0.0985721 -0.129148 -0.118326 -0.105916 -0.0466316 -0.063535 -0.0641694 -0.0531308 -0.0417875 -0.0314862 -0.0223191 -0.0143674 -0.00856178 -0.00382708 0.00680369 -1.07175e-26 0 -0.00138059 -0.00544289 -0.0121525 -0.0214229 -0.0332907 -0.0476734 -0.064132 -0.0825541 -0.102788 -0.124433 -0.146417 -0.169648 -0.0348915 -0.255844 -0.235821 -0.253171 -0.270508 -0.286832 -0.300907 -0.312373 -0.322313 -0.333656 -0.336515 -0.340429 -0.355405 -0.319812 -0.320189 -0.312937 -0.295853 -0.282241 -0.271232 -0.249421 -0.234828 -0.214416 -0.202838 -0.185944 -0.157513 -0.130846 0.00774157 -0.0839918 -0.0871592 -0.0713644 -0.0560137 -0.0420884 -0.0297235 -0.0182052 -0.0112596 -0.00503715 -0.00283372 -1.40509e-26 0 -0.00168245 -0.00662451 -0.0147199 -0.0259875 -0.0404096 -0.0577317 -0.0775441 -0.0997234 -0.124261 -0.149714 -0.175719 -0.202122 -0.227038 -3.2357 -0.349749 -0.307728 -0.326904 -0.345957 -0.362906 -0.377666 -0.38966 -0.398767 -0.402886 -0.404191 -0.403105 -0.398601 -0.390304 -0.378946 -0.360962 -0.34595 -0.333785 -0.312687 -0.293426 -0.179604 -0.248319 -0.226176 -0.197836 -0.1637 -0.153404 -0.125313 -0.108631 -0.0884197 -0.069318 -0.0520048 -0.0366519 -0.0186745 -0.0137847 -0.00617274 -0.00157449 -1.71605e-26 0 -0.00195338 -0.00770421 -0.0171192 -0.0302303 -0.0468372 -0.0668951 -0.0900368 -0.115521 -0.142848 -0.171663 -0.201305 -0.232193 -0.262491 -0.310896 0.812523 -0.483018 -0.382322 -0.401292 -0.421091 -0.437861 -0.451097 -0.461575 -0.46683 -0.469015 -0.468206 -0.46422 -0.453572 -0.432767 -0.425539 -0.409516 -0.38923 -0.36685 -0.345418 -0.317235 -0.293157 -0.260019 -0.235319 -0.209642 -0.181855 -0.143861 -0.128305 -0.104068 -0.0814997 -0.0610808 -0.042996 -0.0186568 -0.0161006 -0.00721028 -0.00183531 -2.00002e-26 0 -0.0022037 -0.00869654 -0.0193092 -0.0339539 -0.0525739 -0.0750806 -0.100966 -0.129231 -0.159589 -0.191672 -0.224831 -0.259076 -0.293111 -0.325532 -0.368603 -0.399817 0.0737978 -0.561068 -0.482489 -0.491933 -0.505387 -0.518413 -0.524963 -0.527503 -0.527138 -0.522471 -0.511293 -0.499089 -0.484049 -0.463617 -0.430228 -0.413993 -0.389385 -0.355726 -0.330866 -0.29209 -0.260318 -0.239524 -0.17416 -0.146779 -0.14581 -0.118069 -0.0923825 -0.0691951 -0.0487221 -0.00870707 -0.0181572 -0.00813029 -0.00206658 -2.25227e-26 0 -0.00243419 -0.00953422 -0.0210983 -0.0370711 -0.0575226 -0.0822551 -0.110331 -0.141109 -0.174216 -0.209199 -0.245418 -0.282553 -0.319605 -0.355842 -0.391408 -0.43113 -0.458199 -0.485992 -0.511981 -0.537073 -0.551199 -0.565924 -0.578455 -0.578543 -0.577575 -0.572879 -0.563172 -0.543276 -0.531737 -0.510239 -0.463154 -0.453057 -0.427355 -0.392814 -0.364378 -0.330969 -0.29559 -0.262653 -0.205005 -0.177568 -0.160535 -0.130181 -0.101814 -0.0762214 -0.0537473 -17.5568 -0.019943 -0.00892935 -0.00226606 -2.46918e-26 0 -0.00260624 -0.0102048 -0.0225348 -0.0396063 -0.0616562 -0.0881916 -0.117972 -0.150626 -0.185822 -0.223117 -0.261802 -0.300895 -0.340867 -0.379987 -0.417202 -0.462891 -0.487581 -0.51728 -0.548927 -0.572122 -0.589904 -0.60346 -0.619756 -0.625484 -0.618394 -0.614018 -0.604843 -0.585209 -0.570338 -0.548577 -0.51686 -0.492521 -0.46195 -0.425018 -0.389602 -0.355917 -0.319946 -0.28027 -0.227128 -0.202738 -0.172425 -0.139954 -0.109538 -0.0820089 -0.0578212 -0.0373621 -0.0214142 -0.00958898 -0.00243062 -2.64732e-26 0 -0.00271538 -0.0106552 -0.0236694 -0.0418208 -0.0651123 -0.0927072 -0.123753 -0.157791 -0.194468 -0.233328 -0.273889 -0.314536 -0.356537 -0.397423 -0.435486 -0.487411 -0.512195 -0.543177 -0.576209 -0.599014 -0.622214 -0.635132 -0.644903 -0.650267 -0.65076 -0.645994 -0.63644 -0.622266 -0.60012 -0.578092 -0.551888 -0.508507 -0.487763 -0.450177 -0.407887 -0.372348 -0.337433 -0.293439 -0.240128 -0.21789 -0.182024 -0.147438 -0.11541 -0.0864205 -0.0608643 -0.0394692 -0.0225624 -0.0101042 -0.00255639 -2.78349e-26 0 -0.00278343 -0.0109469 -0.024739 -0.0439498 -0.0677887 -0.0959249 -0.127723 -0.16273 -0.200467 -0.240265 -0.281618 -0.323958 -0.366738 -0.419668 -0.447821 -0.494558 -0.530582 -0.562179 -0.592144 -0.618453 -0.638585 -0.654425 -0.666029 -0.671427 -0.672184 -0.665714 -0.655985 -0.642577 -0.62236 -0.597226 -0.570662 -0.532976 -0.504365 -0.467875 -0.429545 -0.388974 -0.348025 -0.290846 -0.2604 -0.22685 -0.189051 -0.152874 -0.119475 -0.0893375 -0.0628029 -0.0409473 -0.023349 -0.0104725 -0.00264123 -2.87546e-26 0 -0.00290689 -0.0115046 -0.0254497 -0.0446546 -0.0688128 -0.0971778 -0.129203 -0.164437 -0.20241 -0.242176 -0.284306 -0.327714 -0.370191 -0.425632 -0.455271 -0.494514 -0.539829 -0.569631 -0.598929 -0.624945 -0.652648 -0.66446 -0.676082 -0.681949 -0.683012 -0.678169 -0.663129 -0.653315 -0.636741 -0.604747 -0.581666 -0.552409 -0.513665 -0.477719 -0.438493 -0.397801 -0.356483 -0.295999 -0.27115 -0.231475 -0.192668 -0.155828 -0.121707 -0.0908481 -0.063729 -0.0416863 -0.0237289 -0.010662 -0.00268477 -2.92194e-26 0 -0.00290932 -0.0114301 -0.025504 -0.0449617 -0.0690966 -0.0973047 -0.129216 -0.164237 -0.202122 -0.241743 -0.285455 -0.330117 -0.372501 -0.421657 -0.457108 -0.496124 -0.534071 -0.56857 -0.598886 -0.625983 -0.653784 -0.663818 -0.67874 -0.682191 -0.682971 -0.679139 -0.656151 -0.454218 -0.633705 -0.610638 -0.5756 -0.55037 -0.517627 -0.479322 -0.439276 -0.398866 -0.354345 -0.310119 -0.27223 -0.231769 -0.192575 -0.155752 -0.121724 -0.0908802 -0.0638348 -0.0415048 -0.0236786 -0.0106541 -0.0026849 -2.92243e-26 0 -0.00283902 -0.0112214 -0.0252172 -0.0444085 -0.0679504 -0.0956024 -0.126873 -0.161081 -0.198234 -0.237353 -0.282243 -0.324796 -0.367035 -0.406077 -0.446605 -0.48703 -0.524441 -0.558011 -0.587846 -0.614231 -0.637418 -0.753357 -0.623717 -0.671772 -0.672116 -0.668937 -0.659604 -0.641665 -0.626009 -0.60258 -0.575254 -0.542004 -0.510576 -0.481184 -0.436498 -0.396387 -0.334733 -0.309229 -0.268973 -0.22902 -0.190312 -0.153752 -0.120036 -0.0895913 -0.0628362 -0.0413258 -0.0234542 -0.0104849 -0.00264401 -2.87683e-26 0 -0.00275933 -0.0109603 -0.0245916 -0.0430902 -0.0658551 -0.0925379 -0.122812 -0.155816 -0.1916 -0.230031 -0.272046 -0.313493 -0.354951 -0.393763 -0.431613 -0.467084 -0.505117 -0.539089 -0.568312 -0.593736 -0.614512 -0.63189 0.308074 -0.649939 -0.650771 -0.647347 -0.638179 -0.624631 -0.605936 -0.583347 -0.557057 -0.526481 -0.491908 -0.455941 -0.42119 -0.3873 -0.338472 -0.300778 -0.260863 -0.221727 -0.184249 -0.14891 -0.116199 -0.0865218 -0.0591096 -0.0399046 -0.0226146 -0.010154 -0.00256048 -2.78603e-26 0 -0.00262123 -0.0103629 -0.0239644 -0.0415654 -0.0629365 -0.088107 -0.116954 -0.148161 -0.182024 -0.21