<?xml version="1.0"?>
<VTKFile type="PolyData">
	<PolyData>
		<Piece NumberOfPoints="2601" NumberOfPolys="2500">
			<Points>
				<DataArray type="Float32" NumberOfComponents="3" format="ascii">
 0 0 0 0.02 0 0 0.04 0 0 0.06 0 0 0.08 0 0 0.1 0 0 0.12 0 0 0.14 0 0 0.16 0 0 0.18 0 0 0.2 0 0 0.22 0 0 0.24 0 0 0.26 0 0 0.28 0 0 0.3 0 0 0.32 0 0 0.34 0 0 0.36 0 0 0.38 0 0 0.4 0 0 0.42 0 0 0.44 0 0 0.46 0 0 0.48 0 0 0.5 0 0 0.52 0 0 0.54 0 0 0.56 0 0 0.58 0 0 0.6 0 0 0.62 0 0 0.64 0 0 0.66 0 0 0.68 0 0 0.7 0 0 0.72 0 0 0.74 0 0 0.76 0 0 0.78 0 0 0.8 0 0 0.82 0 0 0.84 0 0 0.86 0 0 0.88 0 0 0.9 0 0 0.92 0 0 0.94 0 0 0.96 0 0 0.98 0 0 1 0 0 0 0.02 0 0.02 0.02 0 0.04 0.02 0 0.06 0.02 0 0.08 0.02 0 0.1 0.02 0 0.12 0.02 0 0.14 0.02 0 0.16 0.02 0 0.18 0.02 0 0.2 0.02 0 0.22 0.02 0 0.24 0.02 0 0.26 0.02 0 0.28 0.02 0 0.3 0.02 0 0.32 0.02 0 0.34 0.02 0 0.36 0.02 0 0.38 0.02 0 0.4 0.02 0 0.42 0.02 0 0.44 0.02 0 0.46 0.02 0 0.48 0.02 0 0.5 0.02 0 0.52 0.02 0 0.54 0.02 0 0.56 0.02 0 0.58 0.02 0 0.6 0.02 0 0.62 0.02 0 0.64 0.02 0 0.66 0.02 0 0.68 0.02 0 0.7 0.02 0 0.72 0.02 0 0.74 0.02 0 0.76 0.02 0 0.78 0.02 0 0.8 0.02 0 0.82 0.02 0 0.84 0.02 0 0.86 0.02 0 0.88 0.02 0 0.9 0.02 0 0.92 0.02 0 0.94 0.02 0 0.96 0.02 0 0.98 0.02 0 1 0.02 0 0 0.04 0 0.02 0.04 0 0.04 0.04 0 0.06 0.04 0 0.08 0.04 0 0.1 0.04 0 0.12 0.04 0 0.14 0.04 0 0.16 0.04 0 0.18 0.04 0 0.2 0.04 0 0.22 0.04 0 0.24 0.04 0 0.26 0.04 0 0.28 0.04 0 0.3 0.04 0 0.32 0.04 0 0.34 0.04 0 0.36 0.04 0 0.38 0.04 0 0.4 0.04 0 0.42 0.04 0 0.44 0.04 0 0.46 0.04 0 0.48 0.04 0 0.5 0.04 0 0.52 0.04 0 0.54 0.04 0 0.56 0.04 0 0.58 0.04 0 0.6 0.04 0 0.62 0.04 0 0.64 0.04 0 0.66 0.04 0 0.68 0.04 0 0.7 0.04 0 0.72 0.04 0 0.74 0.04 0 0.76 0.04 0 0.78 0.04 0 0.8 0.04 0 0.82 0.04 0 0.84 0.04 0 0.86 0.04 0 0.88 0.04 0 0.9 0.04 0 0.92 0.04 0 0.94 0.04 0 0.96 0.04 0 0.98 0.04 0 1 0.04 0 0 0.06 0 0.02 0.06 0 0.04 0.06 0 0.06 0.06 0 0.08 0.06 0 0.1 0.06 0 0.12 0.06 0 0.14 0.06 0 0.16 0.06 0 0.18 0.06 0 0.2 0.06 0 0.22 0.06 0 0.24 0.06 0 0.26 0.06 0 0.28 0.06 0 0.3 0.06 0 0.32 0.06 0 0.34 0.06 0 0.36 0.06 0 0.38 0.06 0 0.4 0.06 0 0.42 0.06 0 0.44 0.06 0 0.46 0.06 0 0.48 0.06 0 0.5 0.06 0 0.52 0.06 0 0.54 0.06 0 0.56 0.06 0 0.58 0.06 0 0.6 0.06 0 0.62 0.06 0 0.64 0.06 0 0.66 0.06 0 0.68 0.06 0 0.7 0.06 0 0.72 0.06 0 0.74 0.06 0 0.76 0.06 0 0.78 0.06 0 0.8 0.06 0 0.82 0.06 0 0.84 0.06 0 0.86 0.06 0 0.88 0.06 0 0.9 0.06 0 0.92 0.06 0 0.94 0.06 0 0.96 0.06 0 0.98 0.06 0 1 0.06 0 0 0.08 0 0.02 0.08 0 0.04 0.08 0 0.06 0.08 0 0.08 0.08 0 0.1 0.08 0 0.12 0.08 0 0.14 0.08 0 0.16 0.08 0 0.18 0.08 0 0.2 0.08 0 0.22 0.08 0 0.24 0.08 0 0.26 0.08 0 0.28 0.08 0 0.3 0.08 0 0.32 0.08 0 0.34 0.08 0 0.36 0.08 0 0.38 0.08 0 0.4 0.08 0 0.42 0.08 0 0.44 0.08 0 0.46 0.08 0 0.48 0.08 0 0.5 0.08 0 0.52 0.08 0 0.54 0.08 0 0.56 0.08 0 0.58 0.08 0 0.6 0.08 0 0.62 0.08 0 0.64 0.08 0 0.66 0.08 0 0.68 0.08 0 0.7 0.08 0 0.72 0.08 0 0.74 0.08 0 0.76 0.08 0 0.78 0.08 0 0.8 0.08 0 0.82 0.08 0 0.84 0.08 0 0.86 0.08 0 0.88 0.08 0 0.9 0.08 0 0.92 0.08 0 0.94 0.08 0 0.96 0.08 0 0.98 0.08 0 1 0.08 0 0 0.1 0 0.02 0.1 0 0.04 0.1 0 0.06 0.1 0 0.08 0.1 0 0.1 0.1 0 0.12 0.1 0 0.14 0.1 0 0.16 0.1 0 0.18 0.1 0 0.2 0.1 0 0.22 0.1 0 0.24 0.1 0 0.26 0.1 0 0.28 0.1 0 0.3 0.1 0 0.32 0.1 0 0.34 0.1 0 0.36 0.1 0 0.38 0.1 0 0.4 0.1 0 0.42 0.1 0 0.44 0.1 0 0.46 0.1 0 0.48 0.1 0 0.5 0.1 0 0.52 0.1 0 0.54 0.1 0 0.56 0.1 0 0.58 0.1 0 0.6 0.1 0 0.62 0.1 0 0.64 0.1 0 0.66 0.1 0 0.68 0.1 0 0.7 0.1 0 0.72 0.1 0 0.74 0.1 0 0.76 0.1 0 0.78 0.1 0 0.8 0.1 0 0.82 0.1 0 0.84 0.1 0 0.86 0.1 0 0.88 0.1 0 0.9 0.1 0 0.92 0.1 0 0.94 0.1 0 0.96 0.1 0 0.98 0.1 0 1 0.1 0 0 0.12 0 0.02 0.12 0 0.04 0.12 0 0.06 0.12 0 0.08 0.12 0 0.1 0.12 0 0.12 0.12 0 0.14 0.12 0 0.16 0.12 0 0.18 0.12 0 0.2 0.12 0 0.22 0.12 0 0.24 0.12 0 0.26 0.12 0 0.28 0.12 0 0.3 0.12 0 0.32 0.12 0 0.34 0.12 0 0.36 0.12 0 0.38 0.12 0 0.4 0.12 0 0.42 0.12 0 0.44 0.12 0 0.46 0.12 0 0.48 0.12 0 0.5 0.12 0 0.52 0.12 0 0.54 0.12 0 0.56 0.12 0 0.58 0.12 0 0.6 0.12 0 0.62 0.12 0 0.64 0.12 0 0.66 0.12 0 0.68 0.12 0 0.7 0.12 0 0.72 0.12 0 0.74 0.12 0 0.76 0.12 0 0.78 0.12 0 0.8 0.12 0 0.82 0.12 0 0.84 0.12 0 0.86 0.12 0 0.88 0.12 0 0.9 0.12 0 0.92 0.12 0 0.94 0.12 0 0.96 0.12 0 0.98 0.12 0 1 0.12 0 0 0.14 0 0.02 0.14 0 0.04 0.14 0 0.06 0.14 0 0.08 0.14 0 0.1 0.14 0 0.12 0.14 0 0.14 0.14 0 0.16 0.14 0 0.18 0.14 0 0.2 0.14 0 0.22 0.14 0 0.24 0.14 0 0.26 0.14 0 0.28 0.14 0 0.3 0.14 0 0.32 0.14 0 0.34 0.14 0 0.36 0.14 0 0.38 0.14 0 0.4 0.14 0 0.42 0.14 0 0.44 0.14 0 0.46 0.14 0 0.48 0.14 0 0.5 0.14 0 0.52 0.14 0 0.54 0.14 0 0.56 0.14 0 0.58 0.14 0 0.6 0.14 0 0.62 0.14 0 0.64 0.14 0 0.66 0.14 0 0.68 0.14 0 0.7 0.14 0 0.72 0.14 0 0.74 0.14 0 0.76 0.14 0 0.78 0.14 0 0.8 0.14 0 0.82 0.14 0 0.84 0.14 0 0.86 0.14 0 0.88 0.14 0 0.9 0.14 0 0.92 0.14 0 0.94 0.14 0 0.96 0.14 0 0.98 0.14 0 1 0.14 0 0 0.16 0 0.02 0.16 0 0.04 0.16 0 0.06 0.16 0 0.08 0.16 0 0.1 0.16 0 0.12 0.16 0 0.14 0.16 0 0.16 0.16 0 0.18 0.16 0 0.2 0.16 0 0.22 0.16 0 0.24 0.16 0 0.26 0.16 0 0.28 0.16 0 0.3 0.16 0 0.32 0.16 0 0.34 0.16 0 0.36 0.16 0 0.38 0.16 0 0.4 0.16 0 0.42 0.16 0 0.44 0.16 0 0.46 0.16 0 0.48 0.16 0 0.5 0.16 0 0.52 0.16 0 0.54 0.16 0 0.56 0.16 0 0.58 0.16 0 0.6 0.16 0 0.62 0.16 0 0.64 0.16 0 0.66 0.16 0 0.68 0.16 0 0.7 0.16 0 0.72 0.16 0 0.74 0.16 0 0.76 0.16 0 0.78 0.16 0 0.8 0.16 0 0.82 0.16 0 0.84 0.16 0 0.86 0.16 0 0.88 0.16 0 0.9 0.16 0 0.92 0.16 0 0.94 0.16 0 0.96 0.16 0 0.98 0.16 0 1 0.16 0 0 0.18 0 0.02 0.18 0 0.04 0.18 0 0.06 0.18 0 0.08 0.18 0 0.1 0.18 0 0.12 0.18 0 0.14 0.18 0 0.16 0.18 0 0.18 0.18 0 0.2 0.18 0 0.22 0.18 0 0.24 0.18 0 0.26 0.18 0 0.28 0.18 0 0.3 0.18 0 0.32 0.18 0 0.34 0.18 0 0.36 0.18 0 0.38 0.18 0 0.4 0.18 0 0.42 0.18 0 0.44 0.18 0 0.46 0.18 0 0.48 0.18 0 0.5 0.18 0 0.52 0.18 0 0.54 0.18 0 0.56 0.18 0 0.58 0.18 0 0.6 0.18 0 0.62 0.18 0 0.64 0.18 0 0.66 0.18 0 0.68 0.18 0 0.7 0.18 0 0.72 0.18 0 0.74 0.18 0 0.76 0.18 0 0.78 0.18 0 0.8 0.18 0 0.82 0.18 0 0.84 0.18 0 0.86 0.18 0 0.88 0.18 0 0.9 0.18 0 0.92 0.18 0 0.94 0.18 0 0.96 0.18 0 0.98 0.18 0 1 0.18 0 0 0.2 0 0.02 0.2 0 0.04 0.2 0 0.06 0.2 0 0.08 0.2 0 0.1 0.2 0 0.12 0.2 0 0.14 0.2 0 0.16 0.2 0 0.18 0.2 0 0.2 0.2 0 0.22 0.2 0 0.24 0.2 0 0.26 0.2 0 0.28 0.2 0 0.3 0.2 0 0.32 0.2 0 0.34 0.2 0 0.36 0.2 0 0.38 0.2 0 0.4 0.2 0 0.42 0.2 0 0.44 0.2 0 0.46 0.2 0 0.48 0.2 0 0.5 0.2 0 0.52 0.2 0 0.54 0.2 0 0.56 0.2 0 0.58 0.2 0 0.6 0.2 0 0.62 0.2 0 0.64 0.2 0 0.66 0.2 0 0.68 0.2 0 0.7 0.2 0 0.72 0.2 0 0.74 0.2 0 0.76 0.2 0 0.78 0.2 0 0.8 0.2 0 0.82 0.2 0 0.84 0.2 0 0.86 0.2 0 0.88 0.2 0 0.9 0.2 0 0.92 0.2 0 0.94 0.2 0 0.96 0.2 0 0.98 0.2 0 1 0.2 0 0 0.22 0 0.02 0.22 0 0.04 0.22 0 0.06 0.22 0 0.08 0.22 0 0.1 0.22 0 0.12 0.22 0 0.14 0.22 0 0.16 0.22 0 0.18 0.22 0 0.2 0.22 0 0.22 0.22 0 0.24 0.22 0 0.26 0.22 0 0.28 0.22 0 0.3 0.22 0 0.32 0.22 0 0.34 0.22 0 0.36 0.22 0 0.38 0.22 0 0.4 0.22 0 0.42 0.22 0 0.44 0.22 0 0.46 0.22 0 0.48 0.22 0 0.5 0.22 0 0.52 0.22 0 0.54 0.22 0 0.56 0.22 0 0.58 0.22 0 0.6 0.22 0 0.62 0.22 0 0.64 0.22 0 0.66 0.22 0 0.68 0.22 0 0.7 0.22 0 0.72 0.22 0 0.74 0.22 0 0.76 0.22 0 0.78 0.22 0 0.8 0.22 0 0.82 0.22 0 0.84 0.22 0 0.86 0.22 0 0.88 0.22 0 0.9 0.22 0 0.92 0.22 0 0.94 0.22 0 0.96 0.22 0 0.98 0.22 0 1 0.22 0 0 0.24 0 0.02 0.24 0 0.04 0.24 0 0.06 0.24 0 0.08 0.24 0 0.1 0.24 0 0.12 0.24 0 0.14 0.24 0 0.16 0.24 0 0.18 0.24 0 0.2 0.24 0 0.22 0.24 0 0.24 0.24 0 0.26 0.24 0 0.28 0.24 0 0.3 0.24 0 0.32 0.24 0 0.34 0.24 0 0.36 0.24 0 0.38 0.24 0 0.4 0.24 0 0.42 0.24 0 0.44 0.24 0 0.46 0.24 0 0.48 0.24 0 0.5 0.24 0 0.52 0.24 0 0.54 0.24 0 0.56 0.24 0 0.58 0.24 0 0.6 0.24 0 0.62 0.24 0 0.64 0.24 0 0.66 0.24 0 0.68 0.24 0 0.7 0.24 0 0.72 0.24 0 0.74 0.24 0 0.76 0.24 0 0.78 0.24 0 0.8 0.24 0 0.82 0.24 0 0.84 0.24 0 0.86 0.24 0 0.88 0.24 0 0.9 0.24 0 0.92 0.24 0 0.94 0.24 0 0.96 0.24 0 0.98 0.24 0 1 0.24 0 0 0.26 0 0.02 0.26 0 0.04 0.26 0 0.06 0.26 0 0.08 0.26 0 0.1 0.26 0 0.12 0.26 0 0.14 0.26 0 0.16 0.26 0 0.18 0.26 0 0.2 0.26 0 0.22 0.26 0 0.24 0.26 0 0.26 0.26 0 0.28 0.26 0 0.3 0.26 0 0.32 0.26 0 0.34 0.26 0 0.36 0.26 0 0.38 0.26 0 0.4 0.26 0 0.42 0.26 0 0.44 0.26 0 0.46 0.26 0 0.48 0.26 0 0.5 0.26 0 0.52 0.26 0 0.54 0.26 0 0.56 0.26 0 0.58 0.26 0 0.6 0.26 0 0.62 0.26 0 0.64 0.26 0 0.66 0.26 0 0.68 0.26 0 0.7 0.26 0 0.72 0.26 0 0.74 0.26 0 0.76 0.26 0 0.78 0.26 0 0.8 0.26 0 0.82 0.26 0 0.84 0.26 0 0.86 0.26 0 0.88 0.26 0 0.9 0.26 0 0.92 0.26 0 0.94 0.26 0 0.96 0.26 0 0.98 0.26 0 1 0.26 0 0 0.28 0 0.02 0.28 0 0.04 0.28 0 0.06 0.28 0 0.08 0.28 0 0.1 0.28 0 0.12 0.28 0 0.14 0.28 0 0.16 0.28 0 0.18 0.28 0 0.2 0.28 0 0.22 0.28 0 0.24 0.28 0 0.26 0.28 0 0.28 0.28 0 0.3 0.28 0 0.32 0.28 0 0.34 0.28 0 0.36 0.28 0 0.38 0.28 0 0.4 0.28 0 0.42 0.28 0 0.44 0.28 0 0.46 0.28 0 0.48 0.28 0 0.5 0.28 0 0.52 0.28 0 0.54 0.28 0 0.56 0.28 0 0.58 0.28 0 0.6 0.28 0 0.62 0.28 0 0.64 0.28 0 0.66 0.28 0 0.68 0.28 0 0.7 0.28 0 0.72 0.28 0 0.74 0.28 0 0.76 0.28 0 0.78 0.28 0 0.8 0.28 0 0.82 0.28 0 0.84 0.28 0 0.86 0.28 0 0.88 0.28 0 0.9 0.28 0 0.92 0.28 0 0.94 0.28 0 0.96 0.28 0 0.98 0.28 0 1 0.28 0 0 0.3 0 0.02 0.3 0 0.04 0.3 0 0.06 0.3 0 0.08 0.3 0 0.1 0.3 0 0.12 0.3 0 0.14 0.3 0 0.16 0.3 0 0.18 0.3 0 0.2 0.3 0 0.22 0.3 0 0.24 0.3 0 0.26 0.3 0 0.28 0.3 0 0.3 0.3 0 0.32 0.3 0 0.34 0.3 0 0.36 0.3 0 0.38 0.3 0 0.4 0.3 0 0.42 0.3 0 0.44 0.3 0 0.46 0.3 0 0.48 0.3 0 0.5 0.3 0 0.52 0.3 0 0.54 0.3 0 0.56 0.3 0 0.58 0.3 0 0.6 0.3 0 0.62 0.3 0 0.64 0.3 0 0.66 0.3 0 0.68 0.3 0 0.7 0.3 0 0.72 0.3 0 0.74 0.3 0 0.76 0.3 0 0.78 0.3 0 0.8 0.3 0 0.82 0.3 0 0.84 0.3 0 0.86 0.3 0 0.88 0.3 0 0.9 0.3 0 0.92 0.3 0 0.94 0.3 0 0.96 0.3 0 0.98 0.3 0 1 0.3 0 0 0.32 0 0.02 0.32 0 0.04 0.32 0 0.06 0.32 0 0.08 0.32 0 0.1 0.32 0 0.12 0.32 0 0.14 0.32 0 0.16 0.32 0 0.18 0.32 0 0.2 0.32 0 0.22 0.32 0 0.24 0.32 0 0.26 0.32 0 0.28 0.32 0 0.3 0.32 0 0.32 0.32 0 0.34 0.32 0 0.36 0.32 0 0.38 0.32 0 0.4 0.32 0 0.42 0.32 0 0.44 0.32 0 0.46 0.32 0 0.48 0.32 0 0.5 0.32 0 0.52 0.32 0 0.54 0.32 0 0.56 0.32 0 0.58 0.32 0 0.6 0.32 0 0.62 0.32 0 0.64 0.32 0 0.66 0.32 0 0.68 0.32 0 0.7 0.32 0 0.72 0.32 0 0.74 0.32 0 0.76 0.32 0 0.78 0.32 0 0.8 0.32 0 0.82 0.32 0 0.84 0.32 0 0.86 0.32 0 0.88 0.32 0 0.9 0.32 0 0.92 0.32 0 0.94 0.
[...]
			<PointData Scalars="VitesseX">
				<DataArray Name="VitesseX" type="Float32" format="ascii">
 0 0 0 0 0 0 0 0 0 0 0 0 0 0 0 0 0 0 0 0 0 0 0 0 0 0 0 0 0 0 0 0 0 0 0 0 0 0 0 0 0 0 0 0 0 0 0 0 0 0 0 0 8.63218e-05 0.000406954 0.000934375 0.00166152 0.00256774 0.00364398 0.00486515 0.00621286 0.00766013 0.00918949 0.0107683 0.012378 0.0139851 0.0155706 0.0170321 0.0183751 0.0195491 0.0206166 0.021793 0.0230329 0.023548 0.0235567 0.0234562 0.0234983 0.0235061 0.0233383 0.0230421 0.0225763 0.0219406 0.0211246 0.0201707 0.0190965 0.0179142 0.0166386 0.0152752 0.0138488 0.012367 0.0108502 0.00942623 0.00805806 0.00669919 0.00545209 0.00427972 0.00316676 0.00222384 0.00147326 0.000804386 0.000366553 9.58601e-05 1.00459e-27 0 0.000157694 0.000740948 0.00170326 0.00303043 0.00468853 0.00666377 0.00891572 0.0114102 0.0141001 0.016945 0.0198951 0.0229056 0.025936 0.0289422 0.0318495 0.0345605 0.0370565 0.0392601 0.0411024 0.0435476 0.0448854 0.0453496 0.0460566 0.0464665 0.046615 0.046404 0.045852 0.0449301 0.0437104 0.0421644 0.0402972 0.0381666 0.0358076 0.0332562 0.0305229 0.0276851 0.0247731 0.0218492 0.0189686 0.0161182 0.0133629 0.0108906 0.00857524 0.00636382 0.00443482 0.0028778 0.00160556 0.000739372 0.000192421 1.99328e-27 0 0.000236948 0.00106672 0.00244396 0.00434772 0.00672876 0.00956989 0.012816 0.0164194 0.0203145 0.0244389 0.0287241 0.0331001 0.0375074 0.0418791 0.0461594 0.0501897 0.0539758 0.0573873 0.0600496 0.062494 0.0647137 0.0665407 0.067912 0.0687322 0.0689349 0.0685422 0.0677074 0.0665259 0.06414 0.0614137 0.0596386 0.0565132 0.0530238 0.0492524 0.0452038 0.0410031 0.0366922 0.0323682 0.0281347 0.0237231 0.019694 0.0161332 0.0127153 0.00939243 0.00656293 0.00423175 0.00240649 0.00110796 0.000290967 2.95053e-27 0 0.000321154 0.001383 0.00315053 0.00559785 0.00866331 0.0123238 0.0165107 0.0211645 0.0262035 0.031548 0.0371058 0.0427958 0.0485138 0.0541951 0.0597568 0.0650304 0.069969 0.0744357 0.0830629 0.0858143 0.0894024 0.0891808 0.088797 0.0899194 0.0901372 0.0898167 0.088845 0.0871831 0.0846998 0.0817035 0.0781327 0.074047 0.0694695 0.0644826 0.0611841 0.0539446 0.0477354 0.0421828 0.0368619 0.0315291 0.0262999 0.0212774 0.0166238 0.012407 0.00861602 0.00556767 0.00317058 0.00145713 0.00038224 3.86122e-27 0 0.000404259 0.00168381 0.00381526 0.00676551 0.0104694 0.0148911 0.019953 0.0255799 0.0316787 0.038158 0.044887 0.0518067 0.0587305 0.0656501 0.072411 0.0788937 0.0850058 0.0905024 0.0496287 0.0995824 0.10325 0.106087 0.1083 0.109687 0.110137 0.109734 0.108486 0.106441 0.103391 0.0997041 0.0953278 0.0903461 0.0847843 0.0785775 0.0721887 0.0655476 0.058669 0.0517251 0.0449518 0.0383783 0.0319472 0.0257378 0.0202889 0.0152003 0.0105378 0.0068025 0.00387113 0.00177862 0.000466685 4.71101e-27 0 0.000480825 0.00196151 0.00442748 0.00783832 0.0121323 0.0172383 0.0231024 0.0295925 0.0366497 0.0441521 0.0519413 0.060008 0.0679405 0.0760067 0.0838108 0.0913012 0.0983013 0.105141 0.111261 0.115903 0.122097 0.125141 0.127054 0.128357 0.128314 0.127795 0.126344 0.124033 0.120422 0.116133 0.111018 0.105195 0.0987408 0.0914955 0.0840731 0.076355 0.0683752 0.0602747 0.0522522 0.0445375 0.0371628 0.0299203 0.023499 0.0175626 0.0122705 0.00792925 0.00450998 0.00207285 0.000543887 5.4865e-27 0 0.000545061 0.00222369 0.00497637 0.0088324 0.0136832 0.0194289 0.0259879 0.0332787 0.0412115 0.0496545 0.0583866 0.0674311 0.0764381 0.0854502 0.0942565 0.102677 0.110571 0.119052 0.12564 0.127298 0.136119 0.139661 0.142173 0.143793 0.144373 0.14385 0.14221 0.139436 0.135612 0.130766 0.124958 0.118227 0.110601 0.10238 0.101933 0.137533 0.0767313 0.0678475 0.0588597 0.0502703 0.0416798 0.0337019 0.0264512 0.0196842 0.013815 0.00892907 0.00507764 0.00233334 0.000612589 6.17548e-27 0 0.000607171 0.00245283 0.00546468 0.0097081 0.0150549 0.0214 0.028601 0.0365251 0.0452369 0.0545048 0.0638862 0.0738893 0.0837475 0.0935942 0.103141 0.0997281 128.743 0.129278 0.136236 0.142964 0.148267 0.152487 0.155594 0.157541 0.158207 0.157653 0.155872 0.152838 0.148659 0.143375 0.137066 0.129822 0.121759 0.113068 0.103846 0.0940679 0.0837874 0.0742924 0.0646335 0.0557278 0.0458426 0.0369121 0.0288468 0.0215213 0.0151503 0.00979059 0.00556629 0.00255757 0.000671796 6.76708e-27 0 0.000653339 0.00261821 0.00585839 0.0103896 0.0161054 0.0229093 0.0306541 0.0391293 0.0485416 0.0584581 0.0684039 0.0791461 0.0897632 0.100188 174.286 -0.649745 0.121428 0.138466 0.146161 0.153015 0.158785 0.163367 0.166722 0.168819 0.169542 0.168963 0.167073 0.163825 0.159347 0.153695 0.146946 0.139204 0.130591 0.12126 0.111348 0.100989 0.0903977 0.0797378 0.0690981 0.0634713 0.0492498 0.03947 0.0308311 0.0230544 0.0162388 0.0104969 0.00596623 0.0027422 0.000720195 7.252e-27 0 0.000669208 0.0027238 0.00616338 0.010913 0.0168993 0.0240056 0.0321574 0.0411468 0.0509541 0.061264 0.0720377 0.0831626 0.0942656 166.037 0.0986124 0.126192 0.136232 0.145394 0.1536 0.160781 0.166841 0.17168 0.175225 0.177439 0.178203 0.177604 0.17563 0.172218 0.167513 0.161584 0.1545 0.146377 0.137342 0.127537 0.117112 0.106233 0.0950948 0.0838465 0.0727041 0.0621042 0.0555694 0.0414877 0.032409 0.0242336 0.0170831 0.0110438 0.00627391 0.00288467 0.000757443 7.62259e-27 0 0.000689049 0.0028105 0.00636368 0.0112677 0.0174507 0.0248023 0.0331918 0.0425313 0.0525481 0.0632555 0.0744473 0.0857967 191.284 0.0974601 0.119695 0.130614 0.140792 0.150171 0.15863 0.166039 0.172296 0.177311 0.18098 0.183269 0.184054 0.183439 0.181402 0.177893 0.173064 0.16696 0.159645 0.151255 0.141949 0.131842 0.121048 0.109801 0.0982832 0.0866583 0.0751226 0.0638841 0.0531448 0.0474964 0.033495 0.0250337 0.0176292 0.0114088 0.00648281 0.0029793 0.000782481 7.87301e-27 0 0.000700268 0.00285157 0.00645891 0.0114394 0.017709 0.0251639 0.033661 0.0431077 0.0533561 0.0642506 0.075549 0.0870529 -0.670454 0.110091 0.121695 0.132646 0.142938 0.152457 0.161026 0.168544 0.174946 0.179973 0.183931 0.186228 0.187007 0.186525 0.18445 0.18113 0.181083 7.94818 0.162696 0.153823 0.144458 0.134275 0.123103 0.111686 0.0999919 0.0881297 0.0763881 0.0649475 0.0539893 0.0437385 0.0383561 0.0254505 0.0179225 0.0116094 0.00658875 0.00302838 0.000794515 7.99933e-27 0 0.000710164 0.00284986 0.00645574 0.0114363 0.0177035 0.0251571 0.0335831 0.0431022 0.0534109 0.0642932 0.0755412 167.093 0.0984867 0.110374 0.121759 0.132654 0.142957 0.152464 0.160927 0.16779 0.174992 0.180047 0.183755 0.186148 0.186994 0.186424 0.184441 0.180874 0.17597 0.171102 0.180328 0.153944 0.144625 0.140727 0.122841 0.111912 0.10017 0.0881732 0.0764075 0.0649499 0.0539614 0.0436527 0.0383612 0.0254165 0.0179069 0.0116021 0.00659065 0.00303246 0.000796853 7.99957e-27 0 0.000715697 0.00281744 0.0063617 0.0112573 0.0173857 0.0247279 0.0329153 0.0424106 0.0525259 0.0631906 0.0742183 0.0854454 0.0970522 0.108535 0.119714 0.130446 0.140552 0.149748 0.154789 0.165869 0.172107 0.177091 0.180804 0.18319 0.184046 0.183523 0.181593 0.178103 0.173302 0.167227 0.159918 0.151567 0.142334 0.132165 0.121339 0.110063 0.100433 0.0876615 0.0753918 0.0640157 0.053181 0.0429979 0.0336751 0.0279046 0.0217057 0.0114178 0.00649211 0.00299108 0.000771534 7.87372e-27 0 0.00069016 0.00276624 0.00619209 0.0108957 0.0168458 0.0239148 0.0318484 0.0410449 0.0508171 0.0610842 177.997 0.0827369 0.0939461 0.104968 0.11577 0.126112 0.135684 0.134943 0.117117 0.160725 0.166491 0.171317 0.174959 0.177307 0.178167 0.17769 0.175839 0.172507 0.167852 0.161935 0.154881 0.146844 0.137931 0.128016 0.117556 0.106622 0.0955405 0.0840369 0.073039 0.0619704 0.0514978 0.04163 0.0325341 0.024462 0.0322419 0.0106851 0.00630153 0.0029183 0.000775339 7.62377e-27 0 0.000654592 0.00263028 0.0058952 0.0103921 0.0160593 0.022662 0.0303477 0.0390107 0.048301 0.0580474 0.0676076 0.0786734 0.0892919 0.0997708 0.110005 0.11972 0.127293 0.137398 0.145625 0.152598 0.158382 0.163039 0.166451 0.168674 0.169505 0.169055 0.167308 0.164164 0.159747 0.154184 0.147541 0.141966 0.131599 0.121808 0.111865 0.10166 0.0952436 0.0799429 0.0696121 0.059074 0.049054 0.0396347 0.0309598 0.0231669 0.0166424 0.01114 0.00598123 0.00277063 0.000742844 7.2548e-27 0 0.000610165 0.00244971 0.00549902 0.00969888 0.0149935 0.0211417 0.0284351 0.0363937 0.0450017 0.0541163 0.0634808 0.0733511 0.0832012 0.0929568 0.102477 0.111465 0.120365 0.128466 0.135847 0.142411 0.147851 0.152156 0.155316 0.157375 0.158233 0.15787 0.156237 0.153256 0.149207 0.144745 0.13814 0.130863 0.122696 0.113862 0.104874 0.0951243 0.0854733 0.074675 0.0648309 0.0583861 0.0458842 0.0370205 0.028908 0.0216166 0.0155245 0.0103629 0.00559019 0.00251185 0.000683517 6.77804e-27 0 0.000557119 0.00223588 0.00501696 0.00883912 0.0136751 0.019391 0.0259569 0.0331936 0.0410056 172.556 0.0578786 0.0668487 0.0757898 0.0846486 0.0932277 0.100331 0.109753 0.117179 0.123864 0.129821 0.134804 0.138756 0.141575 0.143434 0.14393 0.14392 0.142637 0.139974 0.136374 0.132169 0.126083 0.11941 0.112058 0.104098 0.096074 0.0866464 0.0779213 0.0683317 0.0593304 0.0505122 0.0419352 0.0338415 0.0264106 0.0197409 0.0139329 0.00906566 0.00538271 0.00242926 0.000601925 6.18171e-27 0 0.000494265 0.00198575 0.00445426 0.00784791 0.0121334 0.0172009 0.0230476 0.0294631 0.0363781 0.0426701 0.0513 0.0592264 0.067175 0.0750334 0.0826077 0.0807498 0.0360257 0.104064 0.109975 0.115282 0.119689 0.123079 0.125657 0.127394 0.12817 0.127907 0.126729 0.124405 0.121338 0.117567 0.112051 0.106198 0.0997277 0.0926853 0.0854794 0.0771453 0.0692158 0.0610422 0.0529955 0.0451926 0.0386524 0.0301404 0.0235039 0.017562 0.012373 0.00810505 0.00478969 0.0022549 0.00051061 5.49965e-27 0 0.000423389 0.00170512 0.0038224 0.00673158 0.0103992 0.0147082 0.0197592 0.0252126 0.0310466 0.037104 0.0439162 0.0506831 0.0574904 0.0642223 0.070614 0.0765023 0.082609 0.0885184 0.0938361 0.0984193 0.102103 0.105221 0.107857 0.109462 0.110063 0.109956 0.108862 0.106707 0.10382 0.101773 0.0964282 0.0913875 0.0858282 0.0798147 0.0735821 0.066723 0.0595616 0.0525195 0.0456161 0.0392956 -93.1962 0.0258999 0.0202258 0.0151081 0.0106425 0.00699576 0.00412526 0.00177992 0.000435508 4.71237e-27 0 0.000347264 0.00139432 0.00312567 0.00550355 0.00849265 0.0119962 0.0160679 0.0204661 0.0252 0.0304113 0.0358421 0.0413403 0.0468796 0.0523667 0.0575429 0.0629698 0.068034 0.0726994 0.076869 0.0807197 0.0837984 0.0862333 0.0882522 0.0897223 0.09021 0.0900727 0.0893104 0.0879557 0.0852329 0.0822281 0.0805684 0.0751979 0.0706275 0.0656901 0.0608254 0.0557152 0.048987 0.0431799 0.0374432 0.0318639 -85.466 0.0213376 0.016637 0.0124189 0.00874695 0.00571906 0.00333678 0.00142898 0.000357537 3.86358e-27 0 0.000264664 0.00106014 0.00238416 0.00419153 0.00645762 0.0091282 0.0121855 0.0155797 0.0192552 0.0230879 0.02717 0.0313316 0.035526 0.0396811 0.0435849 0.0480003 0.0518469 0.0553701 0.0585421 0.0615529 0.0639051 0.0657389 0.0673029 0.0685188 0.0689125 0.0688893 0.0684571 0.070003 0.0659672 0.0632215 0.0604529 0.0590195 0.0543188 0.0504843 0.0465069 0.167562 0.0378792 0.0332529 0.0288263 0.024515 12.951 0.0165629 0.0127837 0.00953824 0.00671412 0.00435095 0.00258136 0.00109308 0.000273988 2.95438e-27 0 0.000178714 0.000715317 0.00160788 0.00280502 0.00431678 0.00610483 0.00808026 0.0102712 0.012674 0.015374 0.0180641 0.0208233 0.0236123 0.02637 0.0288389 0.0318039 0.0340428 0.0361179 0.0393048 0.0413873 0.0425665 0.0431584 0.0449687 0.0459891 0.0462357 0.0477174 0.0470689 0.0462701 0.0491179 0.0435054 0.0414349 0.0392038 0.0365564 0.0347731 0.0312024 0.0283109 0.0258984 0.0229218 0.0197949 0.0168111 0.0139389 0.0528183 0.00872768 0.00651173 0.00457683 0.00295425 0.00165546 0.000760262 0.000187658 1.99729e-27 0 8.92238e-05 0.000351194 0.000791903 0.00137742 0.00210975 0.00297508 0.00396564 0.00481758 3.56278 0.00738478 0.00866127 0.00997705 0.0113181 0.0126544 0.0139589 0.0151953 0.0164565 0.017472 0.0189241 0.0202175 0.0211684 0.0214202 0.0224658 0.0230235 0.0231439 0.0240278 0.0238711 0.0235271 0.0229587 0.0229481 0.021503 0.0203498 0.0192268 0.0178255 0.0160947 0.0148906 0.0137303 0.0123654 0.0104977 0.00888992 0.00734781 0.00776447 0.00454252 0.00338057 0.00236902 0.00152469 0.000900453 0.000391911 9.68542e-05 1.00866e-27 0 -2.41629e-06 -1.1308e-05 -3.42111e-05 -5.16068e-05 -0.00013458 -0.000216649 -0.000289698 -0.000685696 -0.000689863 -0.000743046 -0.000893818 -0.00102999 -0.0011598 -0.00126853 -0.00132087 -0.00137841 -0.00139889 -0.00144385 -0.00139339 -0.00121035 -0.00102979 -0.000722828 -0.000530806 -0.000360481 -8.33755e-05 0.000396169 0.000603317 0.000766223 0.000916196 0.00291343 0.0013988 0.00132576 0.00125011 0.00116233 0.0012677 0.00165688 0.00332217 0.00347529 0.000990307 0.00284001 0.00279855 0.00045837 0.000279804 0.000195198 0.000124559 7.04736e-05 3.25739e-05 3.40363e-05 1.67699e-06 4.17492e-30 0 -9.68168e-05 -0.000386016 -0.000873386 -0.00152504 -0.00238889 -0.00340453 -0.00463361 -0.00595072 -0.00730188 -0.00904931 -0.0104484 -0.0120314 -0.0136279 -0.0152006 -0.0167304 -0.0180372 -0.0193734 -0.0204754 -0.021579 -0.0224421 -0.0231725 -0.023242 -0.023645 -0.0237769 -0.0234209 -0.0229812 -0.0225229 0.126519 -0.00624273 -0.0133948 -0.0156341 -0.0164559 -0.0167014 -0.0148902 -0.0130392 -0.0128393 -0.0111189 -0.0100997 -0.0088353 -0.00725436 -0.00604914 -0.00497569 -0.00398277 -0.00298875 -0.00211775 -0.00138126 -0.000786559 0.000335849 -9.05022e-05 -1.00036e-27 0 -0.000195154 -0.000758413 -0.00168075 -0.00296457 -0.00455765 -0.00654903 -0.00878995 -0.011136 -0.0148121 -0.0214797 -0.0198381 -0.0228394 -0.0258881 -0.028908 -0.0319442 -0.0358173 -0.037046 -0.0392845 -0.0412959 -0.0429934 -0.0450086 -0.046231 -0.0467646 -0.046738 -0.046596 -0.046163 -0.0450058 -0.0310381 -0.0420985 -0.040615 -0.0387194 -0.036643 -0.0337382 -0.028832 -0.0292856 -0.0265294 -0.0233196 -0.0209317 -0.0180398 -0.0154283 -0.0128165 -0.0103028 -0.00817353 -0.00612391 -0.00432617 -0.00280937 -0.00158468 -0.000689689 -0.000178547 -1.98901e-27 0 -0.000293781 -0.0011362 -0.00249635 -0.00438882 -0.00674227 -0.0096268 -0.0128651 -0.0162396 -0.0203318 -0.0293681 -0.0290082 -0.0333302 -0.0377678 -0.0421808 -0.0464974 -0.0510952 -0.0585012 -0.0575331 -0.0603901 -0.06297 -0.0656838 -0.06717 -0.0683219 -0.0689145 -0.0690031 -0.0685193 -0.0674444 -0.0649081 -0.0634847 -0.0612064 -0.0583819 -0.0551581 -0.0499347 -0.0479676 -0.0440015 -0.0397318 -0.0351079 -0.031406 -0.0268211 -0.0231851 -0.0192837 -0.0154666 -0.0122301 -0.00916134 -0.00646675 -0.00419342 -0.00234548 -0.00103188 -0.000268331 -2.94621e-27 0 -0.000393961 -0.00151725 -0.00328479 -0.00570886 -0.0087824 -0.0124179 -0.0166987 -0.0214538 -0.0265036 -0.0343437 -0.0382682 -0.0433667 -0.0490757 -0.0547882 -0.0603566 -0.0657559 -0.0714952 -0.0788811 -0.0791723 -0.0827623 -0.0856044 -0.0876708 -0.0892514 -0.09011 -0.0902802 -0.0896548 -0.086498 -0.0860439 -0.083656 -0.0805435 -0.0768834 -0.0725811 0.661735 -0.0632124 -0.0579416 -0.0521389 0.0111564 -0.0085284 -0.0351567 -0.0305602 -0.0254228 -0.0203852 -0.016092 -0.012052 -0.00850355 -0.00551012 -0.00300842 -0.00138385 -0.000354703 -3.85716e-27 0 -0.000477051 -0.00184584 -0.00406544 -0.00702101 -0.0107413 -0.0152772 -0.0203834 -0.0262623 -0.0135864 -0.0610926 -0.0539477 -0.0528197 -0.0596044 -0.0665204 -0.0733056 -0.0797888 -0.0859939 -0.0919017 -0.0974806 -0.103098 -0.104291 -0.106892 -0.108853 -0.109914 -0.109998 -0.107263 -0.107583 -0.10549 -0.102432 -0.0985709 -0.0940755 -0.0890229 -0.083488 -0.0772585 -0.0707918 -0.0640397 -0.0575316 -0.0499036 -0.0436875 -0.037466 -0.0311719 -0.0249617 -0.0196977 -0.0147504 -0.0104042 -0.00673831 -0.00339144 -0.00172242 -0.00043332 -4.70745e-27 0 -0.000580604 -0.00222694 -0.00479698 -0.00823751 -0.012482 -0.0178008 -0.0237265 -0.0302904 -0.0372653 -0.0448656 -0.0572769 -0.0620387 -0.0692125 -0.0772001 -0.0850977 -0.0926465 -0.0997266 -0.106265 -0.112082 -0.117152 -0.1215 -0.124916 -0.127176 -0.128045 -0.128251 -0.127451 -0.125747 -0.1231 -0.119493 -0.115041 -0.109771 -0.103511 -0.09691 -0.0895213 -0.0819867 -0.0744364 -0.0670472 -0.0587794 -0.0507981 -0.0437912 -0.0364269 -0.0290864 -0.0229918 -0.0172147 -0.0121397 -0.0078598 -0.00417663 -0.00200926 -0.000504822 -5.4835e-27 0 -0.00065635 -0.00248105 -0.00535153 -0.00920278 -0.0140243 -0.0201758 -0.0266989 -0.0342489 -0.0419418 -0.0504396 -0.0594202 -0.0685029 -0.0778984 -0.0867192 -0.0955309 -0.104049 -0.112023 -0.119317 -0.125824 -0.131476 -0.136248 -0.13997 -0.142586 -0.144006 -0.144369 -0.143581 -0.141668 -0.138673 -0.134645 -0.129697 -0.1235 -0.0511093 -0.109646 -0.101789 -0.0934318 -0.0846211 -0.0754249 -0.0665579 -0.0574793 -0.0494322 -0.041087 -0.0326838 -0.0259225 -0.0194053 -0.0136826 -0.00885725 -0.00487912 -0.00226176 -0.00056827 -6.1731e-27 0 -0.00071997 -0.00271219 -0.00583232 -0.010047 -0.0153663 -0.0219561 -0.0291981 -0.037572 -0.046272 -0.0552025 -0.0650725 -0.0563013 -0.104032 -0.0949054 -0.104556 -0.11384 -0.122562 -0.130569 -0.137737 -0.143948 -0.149156 -0.153237 -0.156146 -0.157771 -0.158205 -0.157382 -0.1553 -0.152057 -0.147664 -0.142125 -0.1354 -0.128436 -0.120369 -0.111677 -0.10253 -0.0929919 -0.0826878 -0.0731159 -0.0637435 -0.0542726 -0.0450936 -0.0357059 -0.0284419 -0.0212888 -0.0150087 -0.00971427 -0.00540976 -0.00247974 -0.000622852 -6.76544e-27 0 -0.000770185 -0.00290311 -0.00625564 -0.0108003 -0.0165427 -0.0235225 -0.0314654 -0.0402522 -0.0494925 -0.0592102 -0.0695348 -0.080334 -0.0731873 -0.121179 -0.111935 -0.121938 -0.131188 -0.139755 -0.147475 -0.154168 -0.159751 -0.164135 -0.167281 -0.169054 -0.169541 -0.168698 -0.166484 -0.163008 -0.158228 -0.151921 -0.145625 -0.13782 -0.129111 -0.119718 -0.109863 -0.0996792 -0.0891879 -0.0781424 -0.0681567 -0.0581964 -0.048364 -0.038416 -0.0305148 -0.0228354 -0.0160971 -0.0104181 -0.00582369 -0.00265896 -0.000667686 -7.25099e-27 0 -0.000808031 -0.00305495 -0.00659896 -0.011418 -0.0175016 -0.0247691 -0.0330063 -0.0422878 -0.0520724 -0.0626522 -0.0731241 -0.0841503 -0.0953905 -0.106548 -0.11749 -0.128201 -0.137845 -0.14682 -0.154904 -0.161932 -0.167818 -0.172455 -0.175784 -0.177674 -0.178204 -0.177346 -0.175016 -0.171225 -0.165466 -0.160418 -0.153161 -0.144902 -0.135608 -0.125207 -0.112985 -0.0986247 -0.0939503 -0.0825364 -0.0716231 -0.0611316 -0.0506191 -0.0408958 -0.0321106 -0.0240204 -0.0169314 -0.0109597 -0.00613858 -0.00279607 -0.000701987 -7.62201e-27 0 -0.000834389 -0.003151 -0.00679968 -0.0117553 -0.0180023 -0.0254617 -0.0341334 -0.0438771 -0.0543958 -0.0652174 -0.0754896 -0.0868904 -0.0985124 -0.110022 -0.121516 -0.108431 -0.160414 -0.151526 -0.159961 -0.167179 -0.173285 -0.178107 -0.181551 -0.183511 -0.184061 -0.183197 -0.180537 -0.169824 -0.172039 -0.165782 -0.158358 -0.149866 -0.140578 -0.129896 -0.607514 -0.10864 -0.0940632 -0.0854174 -0.0742612 -0.0631018 -0.0523305 -0.042465 -0.0331869 -0.0247883 -0.017501 -0.0113361 -0.00642533 -0.001957 -0.000725078 -7.87271e-27 0 -0.000822184 -0.00313856 -0.00706169 -0.0122459 -0.0185621 -0.0262323 -0.0349848 -0.0444914 -0.0547407 -0.065458 -0.0764252 -0.088106 -0.0999244 -0.1116 -0.12304 -0.134109 -0.1444 -0.153692 -0.162672 -0.172571 -0.175905 -0.180778 -0.184348 -0.186401 -0.187012 -0.18618 -0.183853 -0.179424 -0.17494 -0.168597 -0.161038 -0.15242 -0.142904 -0.13255 -0.120379 -0.110584 -0.0976586 -0.0870542 -0.0755902 -0.063974 -0.0533053 -0.0431857 -0.033748 -0.0252052 -0.0177385 -0.0115262 -0.00653551 -0.00282313 -0.000736735 -7.99915e-27 0 -0.000875978 -0.00328573 -0.00706222 -0.0121452 -0.0184868 -0.02612 -0.0349314 -0.0444838 -0.0547423 -0.0654716 -0.0764566 -0.0881069 -0.0999051 -0.111614 -0.123071 -0.134041 -0.144272 -0.153583 -0.162212 -0.16969 -0.175907 -0.181096 -0.184442 -0.186609 -0.186995 -0.186179 -0.183856 -0.180144 -0.174873 -0.16858 -0.16105 -0.152448 -0.142892 -0.132421 -0.120879 -0.108167 -0.0985597 -0.0871725 -0.0756238 -0.0640047 -0.0534149 -0.0432043 -0.0337421 -0.0251912 -0.0177223 -0.0115261 -0.00653731 -0.00286172 -0.000736773 -7.99957e-27 0 -0.000859594 -0.00322726 -0.00691963 -0.0118856 -0.0180853 -0.0255547 -0.0342416 -0.0437145 -0.0538043 -0.0643437 -0.0751806 -0.0866134 -0.0982338 -0.109738 -0.120991 -0.131722 -0.141778 -0.151175 -0.159513 -0.166912 