<?xml version="1.0"?>
<VTKFile type="PolyData">
	<PolyData>
		<Piece NumberOfPoints="2601" NumberOfPolys="2500">
			<Points>
				<DataArray type="Float32" NumberOfComponents="3" format="ascii">
 0 0 0 0.02 0 0 0.04 0 0 0.06 0 0 0.08 0 0 0.1 0 0 0.12 0 0 0.14 0 0 0.16 0 0 0.18 0 0 0.2 0 0 0.22 0 0 0.24 0 0 0.26 0 0 0.28 0 0 0.3 0 0 0.32 0 0 0.34 0 0 0.36 0 0 0.38 0 0 0.4 0 0 0.42 0 0 0.44 0 0 0.46 0 0 0.48 0 0 0.5 0 0 0.52 0 0 0.54 0 0 0.56 0 0 0.58 0 0 0.6 0 0 0.62 0 0 0.64 0 0 0.66 0 0 0.68 0 0 0.7 0 0 0.72 0 0 0.74 0 0 0.76 0 0 0.78 0 0 0.8 0 0 0.82 0 0 0.84 0 0 0.86 0 0 0.88 0 0 0.9 0 0 0.92 0 0 0.94 0 0 0.96 0 0 0.98 0 0 1 0 0 0 0.02 0 0.02 0.02 0 0.04 0.02 0 0.06 0.02 0 0.08 0.02 0 0.1 0.02 0 0.12 0.02 0 0.14 0.02 0 0.16 0.02 0 0.18 0.02 0 0.2 0.02 0 0.22 0.02 0 0.24 0.02 0 0.26 0.02 0 0.28 0.02 0 0.3 0.02 0 0.32 0.02 0 0.34 0.02 0 0.36 0.02 0 0.38 0.02 0 0.4 0.02 0 0.42 0.02 0 0.44 0.02 0 0.46 0.02 0 0.48 0.02 0 0.5 0.02 0 0.52 0.02 0 0.54 0.02 0 0.56 0.02 0 0.58 0.02 0 0.6 0.02 0 0.62 0.02 0 0.64 0.02 0 0.66 0.02 0 0.68 0.02 0 0.7 0.02 0 0.72 0.02 0 0.74 0.02 0 0.76 0.02 0 0.78 0.02 0 0.8 0.02 0 0.82 0.02 0 0.84 0.02 0 0.86 0.02 0 0.88 0.02 0 0.9 0.02 0 0.92 0.02 0 0.94 0.02 0 0.96 0.02 0 0.98 0.02 0 1 0.02 0 0 0.04 0 0.02 0.04 0 0.04 0.04 0 0.06 0.04 0 0.08 0.04 0 0.1 0.04 0 0.12 0.04 0 0.14 0.04 0 0.16 0.04 0 0.18 0.04 0 0.2 0.04 0 0.22 0.04 0 0.24 0.04 0 0.26 0.04 0 0.28 0.04 0 0.3 0.04 0 0.32 0.04 0 0.34 0.04 0 0.36 0.04 0 0.38 0.04 0 0.4 0.04 0 0.42 0.04 0 0.44 0.04 0 0.46 0.04 0 0.48 0.04 0 0.5 0.04 0 0.52 0.04 0 0.54 0.04 0 0.56 0.04 0 0.58 0.04 0 0.6 0.04 0 0.62 0.04 0 0.64 0.04 0 0.66 0.04 0 0.68 0.04 0 0.7 0.04 0 0.72 0.04 0 0.74 0.04 0 0.76 0.04 0 0.78 0.04 0 0.8 0.04 0 0.82 0.04 0 0.84 0.04 0 0.86 0.04 0 0.88 0.04 0 0.9 0.04 0 0.92 0.04 0 0.94 0.04 0 0.96 0.04 0 0.98 0.04 0 1 0.04 0 0 0.06 0 0.02 0.06 0 0.04 0.06 0 0.06 0.06 0 0.08 0.06 0 0.1 0.06 0 0.12 0.06 0 0.14 0.06 0 0.16 0.06 0 0.18 0.06 0 0.2 0.06 0 0.22 0.06 0 0.24 0.06 0 0.26 0.06 0 0.28 0.06 0 0.3 0.06 0 0.32 0.06 0 0.34 0.06 0 0.36 0.06 0 0.38 0.06 0 0.4 0.06 0 0.42 0.06 0 0.44 0.06 0 0.46 0.06 0 0.48 0.06 0 0.5 0.06 0 0.52 0.06 0 0.54 0.06 0 0.56 0.06 0 0.58 0.06 0 0.6 0.06 0 0.62 0.06 0 0.64 0.06 0 0.66 0.06 0 0.68 0.06 0 0.7 0.06 0 0.72 0.06 0 0.74 0.06 0 0.76 0.06 0 0.78 0.06 0 0.8 0.06 0 0.82 0.06 0 0.84 0.06 0 0.86 0.06 0 0.88 0.06 0 0.9 0.06 0 0.92 0.06 0 0.94 0.06 0 0.96 0.06 0 0.98 0.06 0 1 0.06 0 0 0.08 0 0.02 0.08 0 0.04 0.08 0 0.06 0.08 0 0.08 0.08 0 0.1 0.08 0 0.12 0.08 0 0.14 0.08 0 0.16 0.08 0 0.18 0.08 0 0.2 0.08 0 0.22 0.08 0 0.24 0.08 0 0.26 0.08 0 0.28 0.08 0 0.3 0.08 0 0.32 0.08 0 0.34 0.08 0 0.36 0.08 0 0.38 0.08 0 0.4 0.08 0 0.42 0.08 0 0.44 0.08 0 0.46 0.08 0 0.48 0.08 0 0.5 0.08 0 0.52 0.08 0 0.54 0.08 0 0.56 0.08 0 0.58 0.08 0 0.6 0.08 0 0.62 0.08 0 0.64 0.08 0 0.66 0.08 0 0.68 0.08 0 0.7 0.08 0 0.72 0.08 0 0.74 0.08 0 0.76 0.08 0 0.78 0.08 0 0.8 0.08 0 0.82 0.08 0 0.84 0.08 0 0.86 0.08 0 0.88 0.08 0 0.9 0.08 0 0.92 0.08 0 0.94 0.08 0 0.96 0.08 0 0.98 0.08 0 1 0.08 0 0 0.1 0 0.02 0.1 0 0.04 0.1 0 0.06 0.1 0 0.08 0.1 0 0.1 0.1 0 0.12 0.1 0 0.14 0.1 0 0.16 0.1 0 0.18 0.1 0 0.2 0.1 0 0.22 0.1 0 0.24 0.1 0 0.26 0.1 0 0.28 0.1 0 0.3 0.1 0 0.32 0.1 0 0.34 0.1 0 0.36 0.1 0 0.38 0.1 0 0.4 0.1 0 0.42 0.1 0 0.44 0.1 0 0.46 0.1 0 0.48 0.1 0 0.5 0.1 0 0.52 0.1 0 0.54 0.1 0 0.56 0.1 0 0.58 0.1 0 0.6 0.1 0 0.62 0.1 0 0.64 0.1 0 0.66 0.1 0 0.68 0.1 0 0.7 0.1 0 0.72 0.1 0 0.74 0.1 0 0.76 0.1 0 0.78 0.1 0 0.8 0.1 0 0.82 0.1 0 0.84 0.1 0 0.86 0.1 0 0.88 0.1 0 0.9 0.1 0 0.92 0.1 0 0.94 0.1 0 0.96 0.1 0 0.98 0.1 0 1 0.1 0 0 0.12 0 0.02 0.12 0 0.04 0.12 0 0.06 0.12 0 0.08 0.12 0 0.1 0.12 0 0.12 0.12 0 0.14 0.12 0 0.16 0.12 0 0.18 0.12 0 0.2 0.12 0 0.22 0.12 0 0.24 0.12 0 0.26 0.12 0 0.28 0.12 0 0.3 0.12 0 0.32 0.12 0 0.34 0.12 0 0.36 0.12 0 0.38 0.12 0 0.4 0.12 0 0.42 0.12 0 0.44 0.12 0 0.46 0.12 0 0.48 0.12 0 0.5 0.12 0 0.52 0.12 0 0.54 0.12 0 0.56 0.12 0 0.58 0.12 0 0.6 0.12 0 0.62 0.12 0 0.64 0.12 0 0.66 0.12 0 0.68 0.12 0 0.7 0.12 0 0.72 0.12 0 0.74 0.12 0 0.76 0.12 0 0.78 0.12 0 0.8 0.12 0 0.82 0.12 0 0.84 0.12 0 0.86 0.12 0 0.88 0.12 0 0.9 0.12 0 0.92 0.12 0 0.94 0.12 0 0.96 0.12 0 0.98 0.12 0 1 0.12 0 0 0.14 0 0.02 0.14 0 0.04 0.14 0 0.06 0.14 0 0.08 0.14 0 0.1 0.14 0 0.12 0.14 0 0.14 0.14 0 0.16 0.14 0 0.18 0.14 0 0.2 0.14 0 0.22 0.14 0 0.24 0.14 0 0.26 0.14 0 0.28 0.14 0 0.3 0.14 0 0.32 0.14 0 0.34 0.14 0 0.36 0.14 0 0.38 0.14 0 0.4 0.14 0 0.42 0.14 0 0.44 0.14 0 0.46 0.14 0 0.48 0.14 0 0.5 0.14 0 0.52 0.14 0 0.54 0.14 0 0.56 0.14 0 0.58 0.14 0 0.6 0.14 0 0.62 0.14 0 0.64 0.14 0 0.66 0.14 0 0.68 0.14 0 0.7 0.14 0 0.72 0.14 0 0.74 0.14 0 0.76 0.14 0 0.78 0.14 0 0.8 0.14 0 0.82 0.14 0 0.84 0.14 0 0.86 0.14 0 0.88 0.14 0 0.9 0.14 0 0.92 0.14 0 0.94 0.14 0 0.96 0.14 0 0.98 0.14 0 1 0.14 0 0 0.16 0 0.02 0.16 0 0.04 0.16 0 0.06 0.16 0 0.08 0.16 0 0.1 0.16 0 0.12 0.16 0 0.14 0.16 0 0.16 0.16 0 0.18 0.16 0 0.2 0.16 0 0.22 0.16 0 0.24 0.16 0 0.26 0.16 0 0.28 0.16 0 0.3 0.16 0 0.32 0.16 0 0.34 0.16 0 0.36 0.16 0 0.38 0.16 0 0.4 0.16 0 0.42 0.16 0 0.44 0.16 0 0.46 0.16 0 0.48 0.16 0 0.5 0.16 0 0.52 0.16 0 0.54 0.16 0 0.56 0.16 0 0.58 0.16 0 0.6 0.16 0 0.62 0.16 0 0.64 0.16 0 0.66 0.16 0 0.68 0.16 0 0.7 0.16 0 0.72 0.16 0 0.74 0.16 0 0.76 0.16 0 0.78 0.16 0 0.8 0.16 0 0.82 0.16 0 0.84 0.16 0 0.86 0.16 0 0.88 0.16 0 0.9 0.16 0 0.92 0.16 0 0.94 0.16 0 0.96 0.16 0 0.98 0.16 0 1 0.16 0 0 0.18 0 0.02 0.18 0 0.04 0.18 0 0.06 0.18 0 0.08 0.18 0 0.1 0.18 0 0.12 0.18 0 0.14 0.18 0 0.16 0.18 0 0.18 0.18 0 0.2 0.18 0 0.22 0.18 0 0.24 0.18 0 0.26 0.18 0 0.28 0.18 0 0.3 0.18 0 0.32 0.18 0 0.34 0.18 0 0.36 0.18 0 0.38 0.18 0 0.4 0.18 0 0.42 0.18 0 0.44 0.18 0 0.46 0.18 0 0.48 0.18 0 0.5 0.18 0 0.52 0.18 0 0.54 0.18 0 0.56 0.18 0 0.58 0.18 0 0.6 0.18 0 0.62 0.18 0 0.64 0.18 0 0.66 0.18 0 0.68 0.18 0 0.7 0.18 0 0.72 0.18 0 0.74 0.18 0 0.76 0.18 0 0.78 0.18 0 0.8 0.18 0 0.82 0.18 0 0.84 0.18 0 0.86 0.18 0 0.88 0.18 0 0.9 0.18 0 0.92 0.18 0 0.94 0.18 0 0.96 0.18 0 0.98 0.18 0 1 0.18 0 0 0.2 0 0.02 0.2 0 0.04 0.2 0 0.06 0.2 0 0.08 0.2 0 0.1 0.2 0 0.12 0.2 0 0.14 0.2 0 0.16 0.2 0 0.18 0.2 0 0.2 0.2 0 0.22 0.2 0 0.24 0.2 0 0.26 0.2 0 0.28 0.2 0 0.3 0.2 0 0.32 0.2 0 0.34 0.2 0 0.36 0.2 0 0.38 0.2 0 0.4 0.2 0 0.42 0.2 0 0.44 0.2 0 0.46 0.2 0 0.48 0.2 0 0.5 0.2 0 0.52 0.2 0 0.54 0.2 0 0.56 0.2 0 0.58 0.2 0 0.6 0.2 0 0.62 0.2 0 0.64 0.2 0 0.66 0.2 0 0.68 0.2 0 0.7 0.2 0 0.72 0.2 0 0.74 0.2 0 0.76 0.2 0 0.78 0.2 0 0.8 0.2 0 0.82 0.2 0 0.84 0.2 0 0.86 0.2 0 0.88 0.2 0 0.9 0.2 0 0.92 0.2 0 0.94 0.2 0 0.96 0.2 0 0.98 0.2 0 1 0.2 0 0 0.22 0 0.02 0.22 0 0.04 0.22 0 0.06 0.22 0 0.08 0.22 0 0.1 0.22 0 0.12 0.22 0 0.14 0.22 0 0.16 0.22 0 0.18 0.22 0 0.2 0.22 0 0.22 0.22 0 0.24 0.22 0 0.26 0.22 0 0.28 0.22 0 0.3 0.22 0 0.32 0.22 0 0.34 0.22 0 0.36 0.22 0 0.38 0.22 0 0.4 0.22 0 0.42 0.22 0 0.44 0.22 0 0.46 0.22 0 0.48 0.22 0 0.5 0.22 0 0.52 0.22 0 0.54 0.22 0 0.56 0.22 0 0.58 0.22 0 0.6 0.22 0 0.62 0.22 0 0.64 0.22 0 0.66 0.22 0 0.68 0.22 0 0.7 0.22 0 0.72 0.22 0 0.74 0.22 0 0.76 0.22 0 0.78 0.22 0 0.8 0.22 0 0.82 0.22 0 0.84 0.22 0 0.86 0.22 0 0.88 0.22 0 0.9 0.22 0 0.92 0.22 0 0.94 0.22 0 0.96 0.22 0 0.98 0.22 0 1 0.22 0 0 0.24 0 0.02 0.24 0 0.04 0.24 0 0.06 0.24 0 0.08 0.24 0 0.1 0.24 0 0.12 0.24 0 0.14 0.24 0 0.16 0.24 0 0.18 0.24 0 0.2 0.24 0 0.22 0.24 0 0.24 0.24 0 0.26 0.24 0 0.28 0.24 0 0.3 0.24 0 0.32 0.24 0 0.34 0.24 0 0.36 0.24 0 0.38 0.24 0 0.4 0.24 0 0.42 0.24 0 0.44 0.24 0 0.46 0.24 0 0.48 0.24 0 0.5 0.24 0 0.52 0.24 0 0.54 0.24 0 0.56 0.24 0 0.58 0.24 0 0.6 0.24 0 0.62 0.24 0 0.64 0.24 0 0.66 0.24 0 0.68 0.24 0 0.7 0.24 0 0.72 0.24 0 0.74 0.24 0 0.76 0.24 0 0.78 0.24 0 0.8 0.24 0 0.82 0.24 0 0.84 0.24 0 0.86 0.24 0 0.88 0.24 0 0.9 0.24 0 0.92 0.24 0 0.94 0.24 0 0.96 0.24 0 0.98 0.24 0 1 0.24 0 0 0.26 0 0.02 0.26 0 0.04 0.26 0 0.06 0.26 0 0.08 0.26 0 0.1 0.26 0 0.12 0.26 0 0.14 0.26 0 0.16 0.26 0 0.18 0.26 0 0.2 0.26 0 0.22 0.26 0 0.24 0.26 0 0.26 0.26 0 0.28 0.26 0 0.3 0.26 0 0.32 0.26 0 0.34 0.26 0 0.36 0.26 0 0.38 0.26 0 0.4 0.26 0 0.42 0.26 0 0.44 0.26 0 0.46 0.26 0 0.48 0.26 0 0.5 0.26 0 0.52 0.26 0 0.54 0.26 0 0.56 0.26 0 0.58 0.26 0 0.6 0.26 0 0.62 0.26 0 0.64 0.26 0 0.66 0.26 0 0.68 0.26 0 0.7 0.26 0 0.72 0.26 0 0.74 0.26 0 0.76 0.26 0 0.78 0.26 0 0.8 0.26 0 0.82 0.26 0 0.84 0.26 0 0.86 0.26 0 0.88 0.26 0 0.9 0.26 0 0.92 0.26 0 0.94 0.26 0 0.96 0.26 0 0.98 0.26 0 1 0.26 0 0 0.28 0 0.02 0.28 0 0.04 0.28 0 0.06 0.28 0 0.08 0.28 0 0.1 0.28 0 0.12 0.28 0 0.14 0.28 0 0.16 0.28 0 0.18 0.28 0 0.2 0.28 0 0.22 0.28 0 0.24 0.28 0 0.26 0.28 0 0.28 0.28 0 0.3 0.28 0 0.32 0.28 0 0.34 0.28 0 0.36 0.28 0 0.38 0.28 0 0.4 0.28 0 0.42 0.28 0 0.44 0.28 0 0.46 0.28 0 0.48 0.28 0 0.5 0.28 0 0.52 0.28 0 0.54 0.28 0 0.56 0.28 0 0.58 0.28 0 0.6 0.28 0 0.62 0.28 0 0.64 0.28 0 0.66 0.28 0 0.68 0.28 0 0.7 0.28 0 0.72 0.28 0 0.74 0.28 0 0.76 0.28 0 0.78 0.28 0 0.8 0.28 0 0.82 0.28 0 0.84 0.28 0 0.86 0.28 0 0.88 0.28 0 0.9 0.28 0 0.92 0.28 0 0.94 0.28 0 0.96 0.28 0 0.98 0.28 0 1 0.28 0 0 0.3 0 0.02 0.3 0 0.04 0.3 0 0.06 0.3 0 0.08 0.3 0 0.1 0.3 0 0.12 0.3 0 0.14 0.3 0 0.16 0.3 0 0.18 0.3 0 0.2 0.3 0 0.22 0.3 0 0.24 0.3 0 0.26 0.3 0 0.28 0.3 0 0.3 0.3 0 0.32 0.3 0 0.34 0.3 0 0.36 0.3 0 0.38 0.3 0 0.4 0.3 0 0.42 0.3 0 0.44 0.3 0 0.46 0.3 0 0.48 0.3 0 0.5 0.3 0 0.52 0.3 0 0.54 0.3 0 0.56 0.3 0 0.58 0.3 0 0.6 0.3 0 0.62 0.3 0 0.64 0.3 0 0.66 0.3 0 0.68 0.3 0 0.7 0.3 0 0.72 0.3 0 0.74 0.3 0 0.76 0.3 0 0.78 0.3 0 0.8 0.3 0 0.82 0.3 0 0.84 0.3 0 0.86 0.3 0 0.88 0.3 0 0.9 0.3 0 0.92 0.3 0 0.94 0.3 0 0.96 0.3 0 0.98 0.3 0 1 0.3 0 0 0.32 0 0.02 0.32 0 0.04 0.32 0 0.06 0.32 0 0.08 0.32 0 0.1 0.32 0 0.12 0.32 0 0.14 0.32 0 0.16 0.32 0 0.18 0.32 0 0.2 0.32 0 0.22 0.32 0 0.24 0.32 0 0.26 0.32 0 0.28 0.32 0 0.3 0.32 0 0.32 0.32 0 0.34 0.32 0 0.36 0.32 0 0.38 0.32 0 0.4 0.32 0 0.42 0.32 0 0.44 0.32 0 0.46 0.32 0 0.48 0.32 0 0.5 0.32 0 0.52 0.32 0 0.54 0.32 0 0.56 0.32 0 0.58 0.32 0 0.6 0.32 0 0.62 0.32 0 0.64 0.32 0 0.66 0.32 0 0.68 0.32 0 0.7 0.32 0 0.72 0.32 0 0.74 0.32 0 0.76 0.32 0 0.78 0.32 0 0.8 0.32 0 0.82 0.32 0 0.84 0.32 0 0.86 0.32 0 0.88 0.32 0 0.9 0.32 0 0.92 0.32 0 0.94 0.
[...]
			<PointData Scalars="VitesseX">
				<DataArray Name="VitesseX" type="Float32" format="ascii">
 0 0 0 0 0 0 0 0 0 0 0 0 0 0 0 0 0 0 0 0 0 0 0 0 0 0 0 0 0 0 0 0 0 0 0 0 0 0 0 0 0 0 0 0 0 0 0 0 0 0 -0 0 -0.000367194 -0.00141148 -0.00307687 -0.00534406 -0.00818693 -0.0115638 -0.0154074 -0.019616 -0.0241607 -0.0289735 -0.0339864 -0.0392482 -0.0447166 -0.0499255 -0.0547537 -0.0592994 -0.0635409 -0.0674834 -0.0710866 -0.115973 -0.126518 -0.245118 -0.0637235 -0.0794057 -0.0828529 -0.0842742 -0.0838473 -0.0825698 -0.0804469 -0.0777054 -0.0745392 -0.0707379 -0.0662533 -0.0613691 -0.055783 -0.0501111 -0.0454427 -0.040212 -0.0349139 -0.0305751 -0.0253828 -0.0204484 -0.0162585 -0.0120587 -0.00844068 -0.0052061 -0.00292942 -0.00151612 -0.000346965 -4.44137e-27 -0 -0.000940455 -0.00358714 -0.00773673 -0.0132563 -0.0161685 -0.0236214 -0.0394817 -0.0492898 -0.0481883 -0.0575973 -0.067507 -0.0779167 -0.0887289 -0.0991263 -0.108719 -0.117724 -0.126116 -0.133914 -0.140981 -0.204283 0.041646 -0.144185 -0.156797 -0.1613 -0.163318 -0.163894 -0.162352 -0.159352 -0.155028 -0.149791 -0.143473 -0.136131 -0.128275 -0.120132 -0.109909 -0.0968115 -0.0884495 -0.0779523 -0.0678055 -0.0582056 -0.0483272 -0.0390444 -0.0305625 -0.0228608 -0.0160891 -0.0100639 -0.00571538 -0.00310883 -0.000656549 -7.84272e-27 0 -0.00111431 -0.00424634 -0.00915559 -0.0157447 -0.0238414 -0.0332778 -0.0438404 -0.0558326 -0.071481 -0.0852592 -0.099782 -0.115064 -0.159577 -0.176275 -0.195783 -0.16213 -0.187506 -0.194078 -0.193233 -0.203985 -0.218625 -0.229153 -0.23595 -0.239758 -0.241489 -0.241154 -0.238372 -0.233638 -0.227175 -0.219246 -0.209775 -0.19922 -0.188042 -0.17524 -0.160736 -0.144968 -0.129849 -0.114437 -0.0994421 -0.0847302 -0.0704876 -0.0570221 -0.0442869 -0.0332836 -0.0234626 -0.0148853 -0.00845423 -0.00385882 -0.000928048 -1.11235e-26 0 -0.00185371 -0.00695642 -0.0147777 -0.0205236 -0.0310855 -0.043452 -0.0573495 -0.0915373 -0.113975 -0.105719 -0.131968 -0.150998 -0.169886 -0.188865 -0.207535 -0.226194 -0.283808 -0.311928 0.234167 -0.268155 -0.292387 -0.303048 -0.310299 -0.314374 -0.315861 -0.314558 -0.310469 -0.304255 -0.295791 -0.285231 -0.272661 -0.258954 -0.244247 -0.226263 -0.2064 -0.188813 -0.168418 -0.148761 -0.129001 -0.109764 -0.0915279 -0.0741013 -0.0574461 -0.0431824 -0.0304708 -0.0215994 -0.0112332 -0.00499417 -0.00123038 -1.42323e-26 0 -0.00231553 -0.00839594 -0.0171146 -0.0333761 -0.0389745 -0.054555 -0.0720492 -0.0911091 -0.108311 -0.157894 -0.193808 -0.18427 -0.207394 -0.230475 -0.253135 -0.321799 -0.449215 -0.311213 -0.334901 -0.350014 -0.362617 -0.371646 -0.377856 -0.382564 -0.385505 -0.383293 -0.378054 -0.370281 -0.359617 -0.346526 -0.330673 -0.313734 -0.294135 -0.273743 -0.250919 -0.230896 -0.204141 -0.180591 -0.156503 -0.1332 -0.11111 -0.0899951 -0.0700017 -0.0524834 -0.0370024 -0.0237796 -0.0135701 -0.00606413 -0.00151908 -1.71208e-26 0 -0.00201193 -0.00775065 -0.0168841 -0.029242 -0.0446636 -0.0628588 -0.0836585 -0.108141 -0.136662 -0.163174 -0.190302 -0.217121 -0.244403 -0.271827 -0.298775 -0.324208 -0.347656 -0.369714 -0.385714 -0.405391 -0.399904 -0.424038 -0.44122 -0.447161 -0.448469 -0.446107 -0.439887 -0.432263 -0.42269 -0.403099 -0.385661 -0.341673 -0.339602 -0.31802 -0.290967 -0.262743 -0.234712 -0.209372 -0.181559 -0.154546 -0.128908 -0.104472 -0.0806692 -0.0608256 -0.04279 -0.0268642 -0.015746 -0.0070679 -0.00177838 -1.97439e-26 0 -0.00226119 -0.00865632 -0.0188444 -0.0328022 -0.0502264 -0.070527 -0.0939487 -0.121784 -0.15599 -0.18576 -0.21512 -0.244707 -0.275517 -0.306098 -0.336041 -0.364872 -0.391427 -0.448048 -0.483515 -0.43592 -0.475879 -0.48884 -0.498261 -0.503508 -0.504939 -0.501292 -0.49746 -0.489991 -0.478837 -0.463739 -0.443996 -0.397052 -0.384996 -0.365924 -0.475618 -0.332961 -0.264927 -0.234875 -0.20386 -0.173436 -0.144649 -0.117227 -0.093188 -0.0682545 -0.048058 -0.0310513 -0.0178356 -0.00800242 -0.00200924 -2.20607e-26 0 -0.00247047 -0.00952983 -0.0208053 -0.0361209 -0.0552392 -0.0778736 -0.103716 -0.132936 -0.166879 -0.202651 -0.236973 -0.270954 -0.304817 -0.338286 -0.370686 -0.401858 -0.431308 -0.456901 -0.4814 -0.502734 -0.520847 -0.535789 -0.546031 -0.551654 -0.555042 -0.553142 -0.546109 -0.534939 -0.520274 -0.502135 -0.480441 -0.453842 -0.424848 -0.395359 -0.374315 -1.14577 -0.300033 -0.26578 -0.222571 -0.189485 -0.157809 -0.127325 -0.308108 -0.0744768 -0.0526045 -0.0341126 -0.020657 -0.00885553 -0.00221384 -2.40349e-26 0 -0.0026606 -0.0102408 -0.0223167 -0.0387029 -0.0591537 -0.0833717 -0.110994 -0.14197 -0.177804 -0.217147 -0.254337 -0.291004 -0.327767 -0.36221 -0.397034 -0.43008 -0.462065 -0.490666 -0.516563 -0.539504 -62.9845 -0.570782 -0.584347 -0.591206 -0.592881 -0.589954 -0.581946 -0.56963 -0.553121 -0.532636 -0.508103 -0.480254 -0.450157 -0.418326 -0.384679 -0.358694 -0.316924 -0.276612 -0.238174 -0.202682 -0.168507 -0.135949 -0.102826 -0.0796461 -0.0562955 -0.0365212 -0.0202366 -0.00943942 -0.00236221 -2.56359e-26 0 -0.00281768 -0.0107966 -0.0234672 -0.0407006 -0.0620126 -0.0873003 -0.116073 -0.148232 -0.18494 -0.230902 -0.27433 -0.323887 -0.349381 -0.379115 -0.416003 -0.45151 -0.484938 -0.516242 -0.490067 -0.566705 -0.588584 -0.604088 -0.615551 -0.621742 -0.623104 -0.619745 -0.611061 -0.59794 -0.580393 -0.558701 -0.533 -0.503886 -0.472088 -0.43803 -0.401882 -0.363999 -0.325694 -0.291272 -0.247558 -0.212618 -0.17683 -0.143139 -0.111864 -0.0564686 -0.0590478 -0.0382089 -0.0209933 -0.00983834 -0.00246812 -2.68385e-26 0 -0.00277445 -0.0112709 -0.0244526 -0.0416598 -0.0709732 -0.0994523 -0.128068 -0.158695 -0.192497 -0.230374 -0.27019 -0.310548 -0.351436 -0.389669 -0.428696 -0.466043 -0.514973 -0.533001 -0.563097 -0.587489 -0.608294 -0.624674 -0.636278 -0.64234 -0.643535 -0.639973 -0.630881 -0.617233 -0.599012 -0.576546 -0.55013 -0.520215 -0.487358 -0.452069 -0.414777 -0.375965 -0.336184 -0.295651 -0.25426 -0.214088 -0.182612 -0.147684 -0.115092 -0.0756618 -0.0669945 -0.0395986 -0.0224692 -0.0101384 -0.00254611 -2.7624e-26 0 -0.00295026 -0.0113664 -0.0247807 -0.0429874 -0.065968 -0.0930818 -0.123719 -0.157337 -0.193796 -0.232667 -0.272486 -0.314237 -0.354424 -0.395358 -0.435283 -0.485702 -0.512469 -0.543592 -0.572734 -0.598262 -0.619274 -0.635582 -0.647084 -0.652918 -0.653839 -0.649857 -0.640278 -0.626128 -0.607358 -0.584339 -0.557438 -0.527013 -0.49358 -0.457688 -0.419853 -0.380543 -0.34043 -0.299964 -0.259121 -0.216734 -0.183474 -0.149375 -0.116429 -0.0850693 -0.0162341 -0.0400918 -0.0227897 -0.0102112 -0.00256566 -2.79799e-26 0 -0.00296125 -0.0113794 -0.0247726 -0.0429495 -0.0655989 -0.0924478 -0.12305 -0.156846 -0.193498 -0.232537 -0.272323 -0.313767 -0.354414 -0.395322 -0.449137 -0.479289 -0.511047 -0.543504 -0.573077 -0.598524 -0.619413 -0.635619 -0.647148 -0.652953 -0.653853 -0.649804 -0.640145 -0.626059 -0.607275 -0.58429 -0.557446 -0.527033 -0.493599 -0.457666 -0.419749 -0.380479 -0.34043 -0.300095 -0.259783 -0.219471 -0.177557 -0.145143 -0.1167 -0.0866855 -0.0556864 -0.0400615 -0.0227811 -0.010209 -0.00256521 -2.79008e-26 0 -0.00292585 -0.0112273 -0.02443 -0.0423534 -0.0647419 -0.0912488 -0.121457 -0.154925 -0.191139 -0.229738 -0.269148 -0.309574 -0.350453 -0.405801 -0.43631 -0.469564 -0.504487 -0.53719 -0.566265 -0.59091 -0.611126 -0.627042 -0.638219 -0.64323 -0.643587 -0.637511 -0.612861 -0.593998 -451.679 -71.192 -0.531357 -0.513489 -0.483543 -0.448186 -0.411393 -0.373472 -0.333956 -0.294386 -0.255227 -0.216909 -0.17918 -0.135383 -0.114712 -0.0856456 -0.0594059 -0.0392574 -0.0223324 -0.0100132 -0.00251616 -2.73877e-26 0 -0.00283661 -0.0108806 -0.0236728 -0.041047 -0.0627497 -0.0884585 -0.117769 -0.150229 -0.185382 -0.222799 -0.261131 -0.300234 -0.339503 -0.387025 -0.419758 -0.455456 -0.489669 -0.52123 -0.548933 -0.572471 -0.592147 -0.608455 -0.625377 -0.643355 -0.622244 -0.618259 -0.608954 -0.595668 -0.576348 -0.548881 -0.526176 -0.498111 -0.465562 -27.1206 -0.394796 -0.357913 -0.322675 -0.284413 -0.246488 -0.209693 -0.174263 -0.140477 -0.107004 -0.0829315 -0.0586179 -0.0378567 -0.0215463 -0.00966859 -0.00242954 -2.64484e-26 0 -0.00270136 -0.0103416 -0.0225197 -0.039066 -0.0597967 -0.0843501 -0.112351 -0.143367 -0.176824 -0.212408 -0.249009 -0.286653 -0.3389 -0.365583 -0.400408 -0.434899 -0.467648 -0.497256 -0.523275 -0.545749 -0.565427 -0.610033 -0.60133 -0.610906 -0.591707 -0.588496 -0.578821 -0.565832 -0.548366 -0.522736 -0.500049 -0.472221 -0.436059 -0.409506 -0.376284 -19.1595 -0.302034 -0.269857 -0.233918 -0.198902 -0.165499 -0.133765 -0.103279 -0.079029 -0.0556429 -0.0358918 -0.0204289 -0.00917762 -0.00230607 -2.50972e-26 0 -0.00252822 -0.00967248 -0.021043 -0.0365128 -0.0559634 -0.0789841 -0.105265 -0.134422 -0.165611 -0.1991 -0.233621 -0.268979 -0.31394 -0.342125 -0.3751 -0.407576 -0.438114 -0.465613 -0.490162 -0.512004 -0.625634 -0.559573 -0.552288 -0.554558 -0.553065 -0.547536 -0.537558 -0.526803 -0.510787 -0.488857 -0.466133 -0.439601 -0.402647 -0.380595 -0.349333 -0.316296 -26.2768 -0.24591 -0.216829 -0.184698 -0.153744 -0.124413 -0.0969585 -0.0706379 -0.0515446 -0.0332611 -0.0189953 -0.00854699 -0.00214745 -2.33548e-26 0 -0.00231889 -0.00888754 -0.0192843 -0.0334458 -0.0512157 -0.0722771 -0.0963612 -0.123142 -0.15172 -0.182648 -0.214396 -0.24655 -0.282161 -0.313127 -0.344171 -0.374076 -0.401697 -0.426824 -0.449887 -0.475039 -0.525609 -0.496699 -0.505557 -0.507664 -0.505261 -0.498982 -0.491231 -0.478053 -0.464894 -0.445524 -0.424167 -0.400141 -0.367443 -0.342081 -0.316968 -0.28783 -16.9356 -22.7831 -0.19221 -0.167144 -0.13943 -0.112956 -0.0881616 -0.0599956 -0.0467442 -0.0301321 -0.0172644 -0.00778048 -0.00195586 -2.12475e-26 0 -0.00205654 -0.00788752 -0.0171784 -0.0298251 -0.0456598 -0.0644704 -0.0859971 -0.109953 -0.135701 -0.162817 -0.427972 -0.233991 -0.251408 -0.279754 -0.307876 -0.334727 -0.3593 -0.381571 -0.401292 -0.799885 -0.430312 -0.457097 -0.452751 -0.450523 -0.44972 -0.44473 -0.436061 -0.42456 -0.411711 -0.385808 -0.373224 -0.352496 -0.326463 -0.304906 -0.280966 -0.254842 -0.221771 -20.2348 -0.0676881 -0.146443 -0.122792 -0.0996858 -0.077954 -0.0580686 -0.0418869 -0.0267331 -0.0152593 -0.0068639 -0.00173396 -1.88077e-26 0 -0.00176515 -0.00679361 -0.0148453 -0.0258368 -0.0396203 -0.0560016 -0.0747419 -0.0955944 -0.118047 -0.150784 -0.178877 -0.200227 -0.218321 -0.242763 -0.267054 -0.290204 -0.311466 -0.330893 -0.347884 -0.438212 -1.56652 -0.392249 -0.386022 -0.388552 -0.386914 -0.382017 -0.372171 -0.364507 -0.352121 -0.331488 -0.317774 -0.300289 -0.276334 -0.262452 -0.23565 -0.216975 -0.19269 -0.0460141 -0.0226474 -0.12251 -0.104158 -0.0847416 -0.0664323 -0.049785 -0.0304069 -0.0228549 -0.0130129 -0.00591618 -0.00148492 -1.60732e-26 0 -0.00144779 -0.00558594 -0.0122323 -0.0213239 -0.03274 -0.0463126 -0.0618461 -0.0793153 -0.0979043 -0.124493 -0.145012 -0.163801 -0.181723 -0.202154 -0.22224 -0.241241 -0.258815 -0.275236 -0.294493 -0.313657 -0.311907 -0.317047 -0.31958 -0.336284 -0.315862 -0.312423 -0.30483 -0.297043 -0.287024 -0.271778 -0.260786 -0.246168 -0.227745 -0.214338 -0.189243 -0.12306 -0.144263 2.90271 -0.0785119 -0.0964808 -0.0839986 -0.0684088 -0.0536996 -0.040222 -0.0202584 -0.0185974 -0.0105628 -0.00482809 -0.00121213 -1.30892e-26 0 -0.00110902 -0.00431097 -0.00951229 -0.01669 -0.0257335 -0.0365097 -0.0488413 -0.0628854 -0.0779338 -0.0983792 -0.11281 -0.127304 -0.142169 -0.158297 -0.173976 -0.188624 -0.202233 -0.215273 -0.251374 -0.233888 -0.239247 -0.244076 -0.276555 -0.242611 -0.242206 -0.237822 -0.233293 -0.223603 -0.212082 -0.201795 -0.198295 -0.185273 -0.156766 -0.152695 -0.147945 -0.126475 -0.114314 -0.208245 -0.0439321 -0.0759088 -0.062595 -0.0509818 -0.0401239 -0.0301155 -0.0210012 -0.01396 -0.00794915 -0.0031601 -0.000920533 -9.90817e-27 0 -0.000759322 -0.002983 -0.00663677 -0.0117125 -0.0180865 -0.0256721 -0.0343479 -0.0443929 -0.0547882 -0.0743886 -0.0802029 -0.0900786 -0.100523 -0.112023 -0.12307 -0.133159 -0.142493 -0.151736 -0.17178 -0.160756 -0.164682 -0.167687 -0.168479 -0.164427 -0.162977 -0.160574 -0.157212 -0.148254 -0.142738 -0.133516 0.823509 -0.0355492 -0.110031 -0.0881189 -0.0900198 -0.0818384 -0.0703376 -0.0623716 -34.0128 -17.0288 -0.0391179 -0.0326575 -0.025866 -0.0195357 -0.0138854 -0.00926106 -0.00525211 -0.00172418 -0.00060277 -6.58854e-27 0 -0.000406963 -0.00164142 -0.00372242 -0.00666709 -0.0104542 -0.0150501 -0.0203184 -0.0263271 -0.0322654 -0.0489388 -0.0463976 -0.0528598 -0.0575824 -0.0640546 -0.070268 -0.0757352 -0.0805256 -0.0852932 -0.0908629 -0.0879114 -0.0889216 -0.0895162 -0.0880449 -0.0835852 -0.0819736 -0.0800029 -0.0477487 -0.069193 -0.068937 -0.061049 -0.0381838 -0.0539919 -0.0547028 -0.0402576 -0.0350815 -0.0301371 -0.0266434 -0.0227611 -0.0202405 -0.0178434 -0.00808673 -0.0138731 -0.0111649 -0.00855724 -0.0062148 -0.00439483 -0.00243158 -0.000931817 -0.000255698 -3.18513e-27 0 -6.64926e-05 -0.000322652 -0.000824499 -0.00159853 -0.00265008 -0.00396166 -0.00538092 -0.00689113 -0.00811329 -0.0174901 -0.00552847 -0.0184566 -0.01413 -0.0152561 -0.0164784 -0.0172678 -0.0174046 -0.0175551 -0.0183483 -0.266843 -0.0129627 -0.011027 -0.00755755 -0.00138328 0.370227 0.00361477 0.0109366 0.0132245 0.0158556 0.0108395 0.00974329 0.0228137 0.024077 0.0229125 0.0185884 0.0166364 0.0154944 0.0131015 0.011846 0.0102071 -16.9354 0.00505181 0.00371083 0.00254225 0.00160004 0.00119726 0.00041131 0.000143772 2.31179e-05 1.8566e-28 0 0.00021481 0.000906205 0.00197786 0.00337163 0.00505166 0.00698752 0.00916383 0.0115377 0.0141853 0.0137018 0.0173623 0.0277144 0.0294147 0.0335754 0.0373714 0.0413193 0.0457038 0.0500517 0.0530842 0.044823 0.0625211 0.0660565 0.0708764 0.0775583 0.0359249 0.108679 0.101775 0.0906739 0.090091 0.0922148 0.0928729 0.0909965 0.0841235 0.0839143 0.080023 0.0671486 0.0590268 0.0522557 0.0458088 0.0391901 0.0328619 0.0241059 0.018592 0.0136564 0.00944237 0.00612616 0.00322278 0.00142525 0.000342525 3.6335e-27 0 0.000118488 0.00180758 0.00452493 0.00808294 0.0124915 0.0176772 0.0236073 0.0302457 0.0375622 0.0436761 0.0523685 0.0616741 0.071642 0.0816111 0.0908259 0.0994763 0.108 0.116893 0.124684 0.128937 0.115178 0.134944 0.127844 0.15607 0.235387 0.185621 0.167182 0.166645 0.164486 0.163399 0.160476 0.155644 0.145408 0.139711 0.128076 0.111886 0.102634 0.0891757 0.0772047 0.0653824 0.0544811 0.0428158 0.0331896 0.0245832 0.0171751 0.0111222 0.0059826 0.00272767 0.00066272 7.07384e-27 0 0.00261907 0.000940114 0.00613955 0.0123194 0.0193937 0.0278041 0.0373905 0.0481622 0.0594157 0.0715032 0.0840164 0.0973849 0.113617 0.126335 0.142066 0.155846 0.168622 0.181342 0.193392 0.203559 0.211937 0.221675 0.23171 0.238109 0.240632 0.242142 0.243211 0.240762 0.237266 0.232547 0.225882 0.217386 0.206172 0.187739 0.175677 0.163012 0.149987 0.124886 0.108906 0.0927767 0.0771743 0.0608086 0.0472713 0.0351429 0.0246515 0.0160471 0.00908297 0.00395347 0.000971962 1.0413e-26 0 0.0011485 0.0109993 0.00389941 0.0143305 0.0255765 0.037033 0.0501803 0.0651533 0.0804015 0.0978207 0.115524 0.135013 0.487372 0.15935 0.189286 0.208805 0.226626 0.242919 0.258093 0.272235 0.284841 0.295766 0.30485 0.304039 0.314774 0.315659 0.31866 0.31246 0.307157 0.298249 0.28727 0.274288 0.259265 0.249138 0.221181 0.200451 0.179038 0.166431 0.138208 0.117382 0.0977535 0.0778494 0.0606356 0.0451785 0.0317639 0.0207477 0.011914 0.00519496 0.00126705 1.35871e-26 0 0.00147204 0.00502677 0.014155 0.00968383 0.0272582 0.0448699 0.0618458 0.0809331 0.0994374 0.122036 0.142921 0.16642 0.184873 0.208163 0.232141 0.257063 0.280101 0.30051 0.318874 0.335855 0.350645 0.363083 0.372923 0.380832 0.37976 0.385921 0.382796 0.376282 0.371314 0.384598 0.369369 0.353835 0.310015 0.372316 0.264263 0.239278 0.214191 0.197076 0.165455 0.141001 0.115643 0.0936811 0.0730793 0.0545283 0.0383916 0.0251958 0.0146214 0.00647202 0.00154569 1.65496e-26 0 0.00172525 0.0067752 0.0168418 0.0232446 0.0168479 0.0505585 0.0659193 0.0955124 0.116029 0.14424 0.169012 0.196088 0.224089 0.253906 0.277825 0.298507 0.327069 0.352228 0.374401 0.393705 0.41004 0.424022 0.435149 0.443313 0.446689 0.451818 0.452165 0.439202 0.433163 0.419365 0.403171 0.389541 0.35796 0.336816 0.306309 0.276843 0.247506 0.220344 0.193033 0.162738 0.387739 0.108063 0.084412 0.0630642 0.0444555 0.0294148 0.0171516 0.00765572 0.0017996 1.9251e-26 0 0.00195167 0.0077221 0.0172661 0.0292913 0.0423142 0.0583248 0.0362296 0.109412 0.120985 0.16422 0.193109 0.223852 0.254554 0.285459 0.316266 0.343746 0.360135 0.396629 0.423029 0.4442 0.462154 0.477651 0.489958 0.498344 0.503921 0.504491 0.501318 0.49588 0.482721 0.467008 0.448008 0.43106 0.400407 0.37599 0.338664 0.308763 0.276765 0.245237 0.216681 0.181537 0.20148 0.120851 0.0944356 0.0706473 0.0498707 0.0335956 0.0200506 0.00851855 0.00201822 2.16506e-26 0 0.00215009 0.00858149 0.019172 0.0337514 0.050549 0.0705289 0.111948 0.122721 0.133789 0.182461 0.213929 0.248095 0.281442 0.314828 0.348321 0.37985 0.407156 0.438973 0.455308 0.479325 0.500183 0.517378 0.531857 0.5427 0.552162 0.552543 0.548983 0.538483 0.525094 0.508714 0.487563 0.467247 0.436181 0.409175 0.375159 0.338662 0.30446 0.270269 0.232877 0.196433 0.174282 0.132074 0.103031 0.0771446 0.0545499 0.039058 0.0232251 0.00891041 0.00220354 2.37092e-26 0 0.00231539 0.00922196 0.0205669 0.0362052 0.0557646 0.0789579 0.102613 0.133568 0.166098 0.198303 0.228803 0.266717 0.303494 0.339183 0.374837 0.409296 0.442891 0.472262 0.500409 0.504793 0.546927 0.565544 0.579022 0.577823 0.583406 0.59426 0.589618 0.575569 0.560924 0.543341 0.520574 0.498216 0.466109 0.436672 0.464804 0.359289 0.322851 0.286393 0.250891 0.215713 0.1783 0.141187 0.110002 0.0823652 0.0584389 0.0426044 0.0210639 0.00941078 0.00235782 2.54014e-26 0 0.00243789 0.00970333 0.0216529 0.0381312 0.0586593 0.0826029 0.110021 0.141161 0.173718 0.209795 0.238845 0.280613 0.320793 0.358677 0.395571 0.432084 0.46637 0.497715 0.530578 0.542123 0.575969 0.595174 0.609243 0.618706 0.62273 0.622823 0.617808 0.607279 0.592371 0.57409 0.550276 0.523719 0.487487 0.455205 0.420296 0.376017 0.337452 0.299455 0.26145 0.23526 0.183542 0.147714 0.11524 0.0863175 0.0618762 0.040813 0.0221257 0.00986828 0.0024747 2.66845e-26 0 0.00252102 0.010033 0.0223921 0.039427 0.060641 0.0857864 0.114252 0.146693 0.180577 0.218112 0.248853 0.291121 0.333103 0.372566 0.410567 0.448189 0.483494 0.518047 1.35702 0.572323 0.596647 0.61543 0.629562 0.63905 0.643155 0.643086 0.637739 0.62672 0.611708 0.592883 0.567956 0.540063 0.506175 0.467629 0.431736 0.397003 0.35394 0.307737 0.268082 0.230474 0.188247 0.152168 0.118962 0.0892677 0.0645102 0.0433446 0.0229782 0.0101933 0.00255303 2.75455e-26 0 0.0025655 0.01021 0.0227882 0.0400815 0.0615731 0.0876615 0.116762 0.14994 0.184664 0.223066 0.255875 0.293649 0.339705 0.380916 0.41976 0.457294 0.49266 1.32932 0.547635 0.585664 0.607946 0.625739 0.639834 0.647824 0.653927 0.652823 0.64692 0.635712 0.620773 0.601345 0.576816 0.545013 0.51605 0.526299 0.435125 0.484867 0.381933 0.312167 0.270874 0.460296 0.190098 0.153909 0.12049 0.0904601 0.0652238 0.0435451 0.0252299 0.0103701 0.00259056 2.79799e-26 0 0.00256563 0.0102101 0.0227908 0.0400862 0.0615711 0.0877503 0.116915 0.150106 0.184862 0.223375 0.259939 0.292004 0.339956 0.381566 0.420462 0.458204 0.49336 0.526733 0.55924 0.585809 0.607143 0.621571 0.640272 0.650061 0.65389 0.652827 0.647076 0.636136 0.620302 0.599334 0.574955 0.537939 0.509386 0.547466 0.432875 0.394578 0.363104 0.311961 0.270295 0.258077 0.189917 0.153904 0.120582 0.0905315 0.0658497 0.0407282 0.023657 0.0106099 0.00258982 2.79763e-26 0 0.00253412 0.0100999 0.022498 0.0395856 0.0608227 0.0872009 0.1162 0.148923 0.183393 0.221718 0.258861 0.292046 0.337931 0.378759 0.417116 0.454904 0.487978 0.522537 0.555094 0.580538 0.596891 0.616567 0.630419 0.639671 0.643503 0.642053 0.63571 0.624122 0.607899 0.586877 0.562655 0.529405 0.504454 0.4768 0.427532 0.389686 0.349761 0.305628 0.296418 0.228529 0.186756 0.151052 0.118472 0.0888892 0.0689254 0.0400432 0.0230489 0.0113816 0.00256417 2.75336e-26 0 0.00245517 0.00979 0.0218009 0.0383638 0.0589497 0.0845952 0.112771 0.144394 0.177945 0.214943 0.252247 0.290486 0.327345 0.36