<?xml version="1.0"?>
<VTKFile type="PolyData">
	<PolyData>
		<Piece NumberOfPoints="2601" NumberOfPolys="2500">
			<Points>
				<DataArray type="Float32" NumberOfComponents="3" format="ascii">
 0 0 0 0.02 0 0 0.04 0 0 0.06 0 0 0.08 0 0 0.1 0 0 0.12 0 0 0.14 0 0 0.16 0 0 0.18 0 0 0.2 0 0 0.22 0 0 0.24 0 0 0.26 0 0 0.28 0 0 0.3 0 0 0.32 0 0 0.34 0 0 0.36 0 0 0.38 0 0 0.4 0 0 0.42 0 0 0.44 0 0 0.46 0 0 0.48 0 0 0.5 0 0 0.52 0 0 0.54 0 0 0.56 0 0 0.58 0 0 0.6 0 0 0.62 0 0 0.64 0 0 0.66 0 0 0.68 0 0 0.7 0 0 0.72 0 0 0.74 0 0 0.76 0 0 0.78 0 0 0.8 0 0 0.82 0 0 0.84 0 0 0.86 0 0 0.88 0 0 0.9 0 0 0.92 0 0 0.94 0 0 0.96 0 0 0.98 0 0 1 0 0 0 0.02 0 0.02 0.02 0 0.04 0.02 0 0.06 0.02 0 0.08 0.02 0 0.1 0.02 0 0.12 0.02 0 0.14 0.02 0 0.16 0.02 0 0.18 0.02 0 0.2 0.02 0 0.22 0.02 0 0.24 0.02 0 0.26 0.02 0 0.28 0.02 0 0.3 0.02 0 0.32 0.02 0 0.34 0.02 0 0.36 0.02 0 0.38 0.02 0 0.4 0.02 0 0.42 0.02 0 0.44 0.02 0 0.46 0.02 0 0.48 0.02 0 0.5 0.02 0 0.52 0.02 0 0.54 0.02 0 0.56 0.02 0 0.58 0.02 0 0.6 0.02 0 0.62 0.02 0 0.64 0.02 0 0.66 0.02 0 0.68 0.02 0 0.7 0.02 0 0.72 0.02 0 0.74 0.02 0 0.76 0.02 0 0.78 0.02 0 0.8 0.02 0 0.82 0.02 0 0.84 0.02 0 0.86 0.02 0 0.88 0.02 0 0.9 0.02 0 0.92 0.02 0 0.94 0.02 0 0.96 0.02 0 0.98 0.02 0 1 0.02 0 0 0.04 0 0.02 0.04 0 0.04 0.04 0 0.06 0.04 0 0.08 0.04 0 0.1 0.04 0 0.12 0.04 0 0.14 0.04 0 0.16 0.04 0 0.18 0.04 0 0.2 0.04 0 0.22 0.04 0 0.24 0.04 0 0.26 0.04 0 0.28 0.04 0 0.3 0.04 0 0.32 0.04 0 0.34 0.04 0 0.36 0.04 0 0.38 0.04 0 0.4 0.04 0 0.42 0.04 0 0.44 0.04 0 0.46 0.04 0 0.48 0.04 0 0.5 0.04 0 0.52 0.04 0 0.54 0.04 0 0.56 0.04 0 0.58 0.04 0 0.6 0.04 0 0.62 0.04 0 0.64 0.04 0 0.66 0.04 0 0.68 0.04 0 0.7 0.04 0 0.72 0.04 0 0.74 0.04 0 0.76 0.04 0 0.78 0.04 0 0.8 0.04 0 0.82 0.04 0 0.84 0.04 0 0.86 0.04 0 0.88 0.04 0 0.9 0.04 0 0.92 0.04 0 0.94 0.04 0 0.96 0.04 0 0.98 0.04 0 1 0.04 0 0 0.06 0 0.02 0.06 0 0.04 0.06 0 0.06 0.06 0 0.08 0.06 0 0.1 0.06 0 0.12 0.06 0 0.14 0.06 0 0.16 0.06 0 0.18 0.06 0 0.2 0.06 0 0.22 0.06 0 0.24 0.06 0 0.26 0.06 0 0.28 0.06 0 0.3 0.06 0 0.32 0.06 0 0.34 0.06 0 0.36 0.06 0 0.38 0.06 0 0.4 0.06 0 0.42 0.06 0 0.44 0.06 0 0.46 0.06 0 0.48 0.06 0 0.5 0.06 0 0.52 0.06 0 0.54 0.06 0 0.56 0.06 0 0.58 0.06 0 0.6 0.06 0 0.62 0.06 0 0.64 0.06 0 0.66 0.06 0 0.68 0.06 0 0.7 0.06 0 0.72 0.06 0 0.74 0.06 0 0.76 0.06 0 0.78 0.06 0 0.8 0.06 0 0.82 0.06 0 0.84 0.06 0 0.86 0.06 0 0.88 0.06 0 0.9 0.06 0 0.92 0.06 0 0.94 0.06 0 0.96 0.06 0 0.98 0.06 0 1 0.06 0 0 0.08 0 0.02 0.08 0 0.04 0.08 0 0.06 0.08 0 0.08 0.08 0 0.1 0.08 0 0.12 0.08 0 0.14 0.08 0 0.16 0.08 0 0.18 0.08 0 0.2 0.08 0 0.22 0.08 0 0.24 0.08 0 0.26 0.08 0 0.28 0.08 0 0.3 0.08 0 0.32 0.08 0 0.34 0.08 0 0.36 0.08 0 0.38 0.08 0 0.4 0.08 0 0.42 0.08 0 0.44 0.08 0 0.46 0.08 0 0.48 0.08 0 0.5 0.08 0 0.52 0.08 0 0.54 0.08 0 0.56 0.08 0 0.58 0.08 0 0.6 0.08 0 0.62 0.08 0 0.64 0.08 0 0.66 0.08 0 0.68 0.08 0 0.7 0.08 0 0.72 0.08 0 0.74 0.08 0 0.76 0.08 0 0.78 0.08 0 0.8 0.08 0 0.82 0.08 0 0.84 0.08 0 0.86 0.08 0 0.88 0.08 0 0.9 0.08 0 0.92 0.08 0 0.94 0.08 0 0.96 0.08 0 0.98 0.08 0 1 0.08 0 0 0.1 0 0.02 0.1 0 0.04 0.1 0 0.06 0.1 0 0.08 0.1 0 0.1 0.1 0 0.12 0.1 0 0.14 0.1 0 0.16 0.1 0 0.18 0.1 0 0.2 0.1 0 0.22 0.1 0 0.24 0.1 0 0.26 0.1 0 0.28 0.1 0 0.3 0.1 0 0.32 0.1 0 0.34 0.1 0 0.36 0.1 0 0.38 0.1 0 0.4 0.1 0 0.42 0.1 0 0.44 0.1 0 0.46 0.1 0 0.48 0.1 0 0.5 0.1 0 0.52 0.1 0 0.54 0.1 0 0.56 0.1 0 0.58 0.1 0 0.6 0.1 0 0.62 0.1 0 0.64 0.1 0 0.66 0.1 0 0.68 0.1 0 0.7 0.1 0 0.72 0.1 0 0.74 0.1 0 0.76 0.1 0 0.78 0.1 0 0.8 0.1 0 0.82 0.1 0 0.84 0.1 0 0.86 0.1 0 0.88 0.1 0 0.9 0.1 0 0.92 0.1 0 0.94 0.1 0 0.96 0.1 0 0.98 0.1 0 1 0.1 0 0 0.12 0 0.02 0.12 0 0.04 0.12 0 0.06 0.12 0 0.08 0.12 0 0.1 0.12 0 0.12 0.12 0 0.14 0.12 0 0.16 0.12 0 0.18 0.12 0 0.2 0.12 0 0.22 0.12 0 0.24 0.12 0 0.26 0.12 0 0.28 0.12 0 0.3 0.12 0 0.32 0.12 0 0.34 0.12 0 0.36 0.12 0 0.38 0.12 0 0.4 0.12 0 0.42 0.12 0 0.44 0.12 0 0.46 0.12 0 0.48 0.12 0 0.5 0.12 0 0.52 0.12 0 0.54 0.12 0 0.56 0.12 0 0.58 0.12 0 0.6 0.12 0 0.62 0.12 0 0.64 0.12 0 0.66 0.12 0 0.68 0.12 0 0.7 0.12 0 0.72 0.12 0 0.74 0.12 0 0.76 0.12 0 0.78 0.12 0 0.8 0.12 0 0.82 0.12 0 0.84 0.12 0 0.86 0.12 0 0.88 0.12 0 0.9 0.12 0 0.92 0.12 0 0.94 0.12 0 0.96 0.12 0 0.98 0.12 0 1 0.12 0 0 0.14 0 0.02 0.14 0 0.04 0.14 0 0.06 0.14 0 0.08 0.14 0 0.1 0.14 0 0.12 0.14 0 0.14 0.14 0 0.16 0.14 0 0.18 0.14 0 0.2 0.14 0 0.22 0.14 0 0.24 0.14 0 0.26 0.14 0 0.28 0.14 0 0.3 0.14 0 0.32 0.14 0 0.34 0.14 0 0.36 0.14 0 0.38 0.14 0 0.4 0.14 0 0.42 0.14 0 0.44 0.14 0 0.46 0.14 0 0.48 0.14 0 0.5 0.14 0 0.52 0.14 0 0.54 0.14 0 0.56 0.14 0 0.58 0.14 0 0.6 0.14 0 0.62 0.14 0 0.64 0.14 0 0.66 0.14 0 0.68 0.14 0 0.7 0.14 0 0.72 0.14 0 0.74 0.14 0 0.76 0.14 0 0.78 0.14 0 0.8 0.14 0 0.82 0.14 0 0.84 0.14 0 0.86 0.14 0 0.88 0.14 0 0.9 0.14 0 0.92 0.14 0 0.94 0.14 0 0.96 0.14 0 0.98 0.14 0 1 0.14 0 0 0.16 0 0.02 0.16 0 0.04 0.16 0 0.06 0.16 0 0.08 0.16 0 0.1 0.16 0 0.12 0.16 0 0.14 0.16 0 0.16 0.16 0 0.18 0.16 0 0.2 0.16 0 0.22 0.16 0 0.24 0.16 0 0.26 0.16 0 0.28 0.16 0 0.3 0.16 0 0.32 0.16 0 0.34 0.16 0 0.36 0.16 0 0.38 0.16 0 0.4 0.16 0 0.42 0.16 0 0.44 0.16 0 0.46 0.16 0 0.48 0.16 0 0.5 0.16 0 0.52 0.16 0 0.54 0.16 0 0.56 0.16 0 0.58 0.16 0 0.6 0.16 0 0.62 0.16 0 0.64 0.16 0 0.66 0.16 0 0.68 0.16 0 0.7 0.16 0 0.72 0.16 0 0.74 0.16 0 0.76 0.16 0 0.78 0.16 0 0.8 0.16 0 0.82 0.16 0 0.84 0.16 0 0.86 0.16 0 0.88 0.16 0 0.9 0.16 0 0.92 0.16 0 0.94 0.16 0 0.96 0.16 0 0.98 0.16 0 1 0.16 0 0 0.18 0 0.02 0.18 0 0.04 0.18 0 0.06 0.18 0 0.08 0.18 0 0.1 0.18 0 0.12 0.18 0 0.14 0.18 0 0.16 0.18 0 0.18 0.18 0 0.2 0.18 0 0.22 0.18 0 0.24 0.18 0 0.26 0.18 0 0.28 0.18 0 0.3 0.18 0 0.32 0.18 0 0.34 0.18 0 0.36 0.18 0 0.38 0.18 0 0.4 0.18 0 0.42 0.18 0 0.44 0.18 0 0.46 0.18 0 0.48 0.18 0 0.5 0.18 0 0.52 0.18 0 0.54 0.18 0 0.56 0.18 0 0.58 0.18 0 0.6 0.18 0 0.62 0.18 0 0.64 0.18 0 0.66 0.18 0 0.68 0.18 0 0.7 0.18 0 0.72 0.18 0 0.74 0.18 0 0.76 0.18 0 0.78 0.18 0 0.8 0.18 0 0.82 0.18 0 0.84 0.18 0 0.86 0.18 0 0.88 0.18 0 0.9 0.18 0 0.92 0.18 0 0.94 0.18 0 0.96 0.18 0 0.98 0.18 0 1 0.18 0 0 0.2 0 0.02 0.2 0 0.04 0.2 0 0.06 0.2 0 0.08 0.2 0 0.1 0.2 0 0.12 0.2 0 0.14 0.2 0 0.16 0.2 0 0.18 0.2 0 0.2 0.2 0 0.22 0.2 0 0.24 0.2 0 0.26 0.2 0 0.28 0.2 0 0.3 0.2 0 0.32 0.2 0 0.34 0.2 0 0.36 0.2 0 0.38 0.2 0 0.4 0.2 0 0.42 0.2 0 0.44 0.2 0 0.46 0.2 0 0.48 0.2 0 0.5 0.2 0 0.52 0.2 0 0.54 0.2 0 0.56 0.2 0 0.58 0.2 0 0.6 0.2 0 0.62 0.2 0 0.64 0.2 0 0.66 0.2 0 0.68 0.2 0 0.7 0.2 0 0.72 0.2 0 0.74 0.2 0 0.76 0.2 0 0.78 0.2 0 0.8 0.2 0 0.82 0.2 0 0.84 0.2 0 0.86 0.2 0 0.88 0.2 0 0.9 0.2 0 0.92 0.2 0 0.94 0.2 0 0.96 0.2 0 0.98 0.2 0 1 0.2 0 0 0.22 0 0.02 0.22 0 0.04 0.22 0 0.06 0.22 0 0.08 0.22 0 0.1 0.22 0 0.12 0.22 0 0.14 0.22 0 0.16 0.22 0 0.18 0.22 0 0.2 0.22 0 0.22 0.22 0 0.24 0.22 0 0.26 0.22 0 0.28 0.22 0 0.3 0.22 0 0.32 0.22 0 0.34 0.22 0 0.36 0.22 0 0.38 0.22 0 0.4 0.22 0 0.42 0.22 0 0.44 0.22 0 0.46 0.22 0 0.48 0.22 0 0.5 0.22 0 0.52 0.22 0 0.54 0.22 0 0.56 0.22 0 0.58 0.22 0 0.6 0.22 0 0.62 0.22 0 0.64 0.22 0 0.66 0.22 0 0.68 0.22 0 0.7 0.22 0 0.72 0.22 0 0.74 0.22 0 0.76 0.22 0 0.78 0.22 0 0.8 0.22 0 0.82 0.22 0 0.84 0.22 0 0.86 0.22 0 0.88 0.22 0 0.9 0.22 0 0.92 0.22 0 0.94 0.22 0 0.96 0.22 0 0.98 0.22 0 1 0.22 0 0 0.24 0 0.02 0.24 0 0.04 0.24 0 0.06 0.24 0 0.08 0.24 0 0.1 0.24 0 0.12 0.24 0 0.14 0.24 0 0.16 0.24 0 0.18 0.24 0 0.2 0.24 0 0.22 0.24 0 0.24 0.24 0 0.26 0.24 0 0.28 0.24 0 0.3 0.24 0 0.32 0.24 0 0.34 0.24 0 0.36 0.24 0 0.38 0.24 0 0.4 0.24 0 0.42 0.24 0 0.44 0.24 0 0.46 0.24 0 0.48 0.24 0 0.5 0.24 0 0.52 0.24 0 0.54 0.24 0 0.56 0.24 0 0.58 0.24 0 0.6 0.24 0 0.62 0.24 0 0.64 0.24 0 0.66 0.24 0 0.68 0.24 0 0.7 0.24 0 0.72 0.24 0 0.74 0.24 0 0.76 0.24 0 0.78 0.24 0 0.8 0.24 0 0.82 0.24 0 0.84 0.24 0 0.86 0.24 0 0.88 0.24 0 0.9 0.24 0 0.92 0.24 0 0.94 0.24 0 0.96 0.24 0 0.98 0.24 0 1 0.24 0 0 0.26 0 0.02 0.26 0 0.04 0.26 0 0.06 0.26 0 0.08 0.26 0 0.1 0.26 0 0.12 0.26 0 0.14 0.26 0 0.16 0.26 0 0.18 0.26 0 0.2 0.26 0 0.22 0.26 0 0.24 0.26 0 0.26 0.26 0 0.28 0.26 0 0.3 0.26 0 0.32 0.26 0 0.34 0.26 0 0.36 0.26 0 0.38 0.26 0 0.4 0.26 0 0.42 0.26 0 0.44 0.26 0 0.46 0.26 0 0.48 0.26 0 0.5 0.26 0 0.52 0.26 0 0.54 0.26 0 0.56 0.26 0 0.58 0.26 0 0.6 0.26 0 0.62 0.26 0 0.64 0.26 0 0.66 0.26 0 0.68 0.26 0 0.7 0.26 0 0.72 0.26 0 0.74 0.26 0 0.76 0.26 0 0.78 0.26 0 0.8 0.26 0 0.82 0.26 0 0.84 0.26 0 0.86 0.26 0 0.88 0.26 0 0.9 0.26 0 0.92 0.26 0 0.94 0.26 0 0.96 0.26 0 0.98 0.26 0 1 0.26 0 0 0.28 0 0.02 0.28 0 0.04 0.28 0 0.06 0.28 0 0.08 0.28 0 0.1 0.28 0 0.12 0.28 0 0.14 0.28 0 0.16 0.28 0 0.18 0.28 0 0.2 0.28 0 0.22 0.28 0 0.24 0.28 0 0.26 0.28 0 0.28 0.28 0 0.3 0.28 0 0.32 0.28 0 0.34 0.28 0 0.36 0.28 0 0.38 0.28 0 0.4 0.28 0 0.42 0.28 0 0.44 0.28 0 0.46 0.28 0 0.48 0.28 0 0.5 0.28 0 0.52 0.28 0 0.54 0.28 0 0.56 0.28 0 0.58 0.28 0 0.6 0.28 0 0.62 0.28 0 0.64 0.28 0 0.66 0.28 0 0.68 0.28 0 0.7 0.28 0 0.72 0.28 0 0.74 0.28 0 0.76 0.28 0 0.78 0.28 0 0.8 0.28 0 0.82 0.28 0 0.84 0.28 0 0.86 0.28 0 0.88 0.28 0 0.9 0.28 0 0.92 0.28 0 0.94 0.28 0 0.96 0.28 0 0.98 0.28 0 1 0.28 0 0 0.3 0 0.02 0.3 0 0.04 0.3 0 0.06 0.3 0 0.08 0.3 0 0.1 0.3 0 0.12 0.3 0 0.14 0.3 0 0.16 0.3 0 0.18 0.3 0 0.2 0.3 0 0.22 0.3 0 0.24 0.3 0 0.26 0.3 0 0.28 0.3 0 0.3 0.3 0 0.32 0.3 0 0.34 0.3 0 0.36 0.3 0 0.38 0.3 0 0.4 0.3 0 0.42 0.3 0 0.44 0.3 0 0.46 0.3 0 0.48 0.3 0 0.5 0.3 0 0.52 0.3 0 0.54 0.3 0 0.56 0.3 0 0.58 0.3 0 0.6 0.3 0 0.62 0.3 0 0.64 0.3 0 0.66 0.3 0 0.68 0.3 0 0.7 0.3 0 0.72 0.3 0 0.74 0.3 0 0.76 0.3 0 0.78 0.3 0 0.8 0.3 0 0.82 0.3 0 0.84 0.3 0 0.86 0.3 0 0.88 0.3 0 0.9 0.3 0 0.92 0.3 0 0.94 0.3 0 0.96 0.3 0 0.98 0.3 0 1 0.3 0 0 0.32 0 0.02 0.32 0 0.04 0.32 0 0.06 0.32 0 0.08 0.32 0 0.1 0.32 0 0.12 0.32 0 0.14 0.32 0 0.16 0.32 0 0.18 0.32 0 0.2 0.32 0 0.22 0.32 0 0.24 0.32 0 0.26 0.32 0 0.28 0.32 0 0.3 0.32 0 0.32 0.32 0 0.34 0.32 0 0.36 0.32 0 0.38 0.32 0 0.4 0.32 0 0.42 0.32 0 0.44 0.32 0 0.46 0.32 0 0.48 0.32 0 0.5 0.32 0 0.52 0.32 0 0.54 0.32 0 0.56 0.32 0 0.58 0.32 0 0.6 0.32 0 0.62 0.32 0 0.64 0.32 0 0.66 0.32 0 0.68 0.32 0 0.7 0.32 0 0.72 0.32 0 0.74 0.32 0 0.76 0.32 0 0.78 0.32 0 0.8 0.32 0 0.82 0.32 0 0.84 0.32 0 0.86 0.32 0 0.88 0.32 0 0.9 0.32 0 0.92 0.32 0 0.94 0.
[...]
			<PointData Scalars="VitesseX">
				<DataArray Name="VitesseX" type="Float32" format="ascii">
 0 0 0 0 0 0 0 0 0 0 0 0 0 0 0 0 0 0 0 0 0 0 0 0 0 0 0 0 0 0 0 0 0 0 0 0 0 0 0 0 0 0 0 0 0 0 0 0 0 0 0 0 0.000455733 0.00182795 0.00401891 0.00708576 0.010906 0.0154941 0.0207757 0.0264509 0.0327057 0.0392658 0.0461086 0.0530893 0.0600347 0.0670712 0.073888 0.0805475 0.0867601 0.0923819 0.0974315 0.10169 0.105378 0.106902 0.108952 0.110526 0.11071 0.1054 -0.0846617 0.115793 0.103889 0.100158 0.0956883 0.090635 0.0850347 0.0789695 0.0725416 0.0657961 0.0588856 0.0519551 0.0450147 0.0383069 0.0318347 0.0258412 0.0201769 0.0151362 0.0106759 0.00694951 0.00399741 0.00188212 0.000446026 4.73772e-27 0 0.00087886 0.00351071 0.00779688 0.0137001 0.0212335 0.0301183 0.0402883 0.0516041 0.0638122 0.0767023 0.0901404 0.103854 0.117577 0.131426 0.144838 0.157828 0.170009 0.181194 0.191207 0.199886 0.207224 0.212367 0.21629 0.218842 0.219743 0.218967 0.215516 0.204057 0.192895 0.198253 0.190043 0.180283 0.169444 0.157585 0.144528 0.130985 0.11728 0.103471 0.0897588 0.0763886 0.0635652 0.0514031 0.0402098 0.0301013 0.0212623 0.013825 0.00789922 0.00357353 0.000911955 9.40142e-27 0 0.00128736 0.00511754 0.0114453 0.0202131 0.0312275 0.0442611 0.0591511 0.0760301 0.0934626 0.112596 0.132223 0.15257 0.17316 0.193669 0.21337 0.232475 0.250087 0.266525 0.281521 0.294551 0.305587 0.31427 0.32059 0.323936 0.325263 0.324763 0.320686 0.314466 0.30637 0.292726 0.257163 0.565642 0.249373 0.233364 0.213757 0.193876 0.173702 0.153239 0.132952 0.113197 0.0941684 0.0761978 0.059642 0.0446884 0.0315554 0.0205355 0.011743 0.00531411 0.00135614 1.3914e-26 0 0.0016595 0.0112009 0.0148774 0.0263532 0.0407438 0.0577133 0.0768972 0.0995186 0.122267 0.147076 0.172592 0.199078 0.225206 0.252099 0.277552 0.302723 0.326002 0.347689 0.367471 0.384465 0.398928 0.410431 0.418826 0.424225 0.42559 0.427807 0.419593 0.411404 0.400507 0.386338 0.369913 0.351047 0.330699 0.31499 0.278826 0.253689 0.227662 0.200886 0.174656 0.148609 0.123084 0.0998185 0.0777198 0.0579931 0.0409002 0.0265861 0.0151668 0.00684407 0.00174059 1.82121e-26 0 0.00203981 0.0268118 0.0178154 0.0544645 0.0493991 0.0701887 0.0934359 0.121561 0.149855 0.179917 0.210995 0.243096 0.274384 0.306987 0.337678 0.368366 0.396562 0.422659 0.446685 0.467629 0.485484 0.499796 0.510467 0.517337 0.519394 0.517407 0.508749 0.49823 0.484518 0.471033 0.451249 0.429751 0.403113 0.373888 0.343373 0.311654 0.279619 0.259572 0.21415 0.181799 0.152975 0.129284 0.0947982 0.0708031 0.0499667 0.032528 0.0185327 0.00836371 0.00212805 2.2216e-26 0 0.00578499 0.00923245 0.0412133 0.0345265 0.0573244 0.0815605 0.108744 0.141389 0.174639 0.209764 0.246314 0.283378 0.319775 0.357124 0.392505 0.426657 0.461488 0.495946 0.524877 0.547098 0.565463 0.581287 0.593734 0.601971 0.604889 0.603757 0.597068 0.585466 0.573235 0.546732 0.524445 0.506718 0.468942 0.434831 0.399699 0.363357 0.326493 0.292325 0.248232 0.212667 0.138518 0.653481 0.119107 0.0821317 0.0582049 0.0379079 0.021609 0.00976815 0.00248931 2.58658e-26 0 0.00206352 0.00430638 0.0487514 0.041495 0.0646101 0.0918959 0.122797 0.15839 0.195693 0.235086 0.276079 0.317602 0.359224 0.401136 0.44098 0.478293 0.513307 0.561486 0.594789 0.621432 0.643177 0.660651 0.669812 0.678478 0.671951 0.663125 0.666308 0.669013 0.649865 0.62068 0.594005 0.573013 0.526272 0.485271 0.447154 0.409059 0.36709 0.329171 0.279822 0.23887 0.201113 0.168833 0.12468 0.0931868 0.0656978 0.0423508 0.024217 0.010963 0.00279095 2.91283e-26 0 0.0029278 0.00311571 0.0243215 0.0452854 0.0706542 0.100673 0.134609 0.172793 0.213359 0.256154 0.300817 0.345924 0.391276 0.437544 0.481779 0.523211 0.524615 0.603082 0.640167 0.671937 0.699062 0.721612 0.740108 0.749128 0.749523 0.745958 0.739591 0.728217 0.711855 0.681381 0.760193 0.620847 0.581066 0.540681 0.494517 0.448552 0.402027 0.35126 0.3047 0.261528 0.220058 0.184539 0.136882 0.102316 0.0722656 0.0469066 0.0267676 0.0120703 0.00306504 3.19109e-26 0 0.00314245 0.0125085 0.0278331 0.0487882 0.0757494 0.107452 0.14285 0.18445 0.227656 0.273219 0.320673 0.36829 0.416957 0.466884 0.513338 0.557936 0.570401 0.643209 0.682609 0.715796 0.744268 0.767274 0.784345 0.7956 0.800012 0.798963 0.790425 0.776823 0.757586 0.733343 0.708166 0.663423 0.623448 0.581975 0.531501 0.481678 0.431615 0.381537 0.333238 0.279479 0.234713 0.195351 0.146904 0.109725 0.0774525 0.0503595 0.0287479 0.0129779 0.0033014 3.41935e-26 0 0.00329829 0.0131261 0.029303 0.051541 0.0795546 0.112496 0.174625 0.191285 0.237994 0.285982 0.335724 0.38516 0.43544 0.487689 0.513948 0.516797 0.618631 0.674513 0.715818 0.7508 0.780667 0.805022 0.823243 0.835325 0.840187 0.839221 0.830786 0.816912 0.79631 0.77076 0.744361 0.698974 0.656376 0.612436 0.561126 0.507696 0.454881 0.402767 0.351879 0.315904 0.243552 0.198929 0.154415 0.115439 0.0814347 0.0529235 0.0302083 0.0136517 0.00347688 3.59416e-26 0 0.00340449 0.0135577 0.0302367 0.05317 0.0820718 0.11594 0.182882 0.19626 0.245103 0.294509 0.345326 0.400428 0.453212 0.504549 0.522621 0.556965 0.647791 0.696422 0.738156 0.774517 0.805504 0.830706 0.849633 0.862428 0.867435 0.867312 0.856668 1.88138 1.62058 1.47117 1.3391 0.744753 0.676532 0.633935 0.585733 0.526514 0.471366 0.417477 0.364503 0.324324 0.255433 0.205085 0.159709 0.119361 0.0841787 0.0547262 0.031259 0.0141088 0.00359397 3.71236e-26 0 0.00345368 0.0137419 0.0306509 0.053884 0.0831128 0.117331 0.239409 0.198364 0.247624 0.297653 0.349069 0.40319 0.45107 0.486813 0.533691 0.605049 0.659855 0.705425 0.746841 0.784199 0.816472 0.841914 8.15756 0.862099 0.881578 0.881059 0.874119 0.859312 0.83795 0.810208 0.776413 0.737164 0.693361 0.646894 0.613087 0.53709 0.480287 0.425058 0.370901 0.325225 0.261472 0.209191 0.162771 0.121537 0.0856776 0.0557444 0.031886 0.0143666 0.00365584 3.77226e-26 0 0.00345378 0.0137408 0.0306466 0.0538701 0.0831243 0.140686 0.141588 0.198875 0.247424 0.297206 -0.176385 0.402635 0.450004 0.501222 0.544396 0.612666 0.659741 0.693547 0.749254 0.783539 0.802499 0.829127 0.860265 0.875194 0.881422 0.880966 0.873993 0.859201 0.837958 0.810272 0.776463 0.737114 0.693026 0.644802 0.593281 0.539619 0.491588 0.423462 0.369145 0.32109 0.257512 0.209719 0.162761 0.121534 0.0856854 0.0557902 0.0319376 0.0144061 0.0036591 3.77292e-26 0 0.00339664 0.0135121 0.0300483 0.0528245 0.0815077 0.139663 0.149208 0.19579 0.242715 0.002546 0.305606 0.393908 0.442569 0.499578 0.552656 0.565059 0.635445 0.696603 0.734559 21.2659 0.795657 0.826506 0.846415 0.860606 0.867449 0.867317 0.861542 0.847644 0.827486 0.800826 0.767992 0.72947 0.685964 0.63833 0.587536 0.534283 0.480025 0.426809 0.389627 0.315841 0.261892 0.207755 0.161004 0.120226 0.0848122 0.0552619 0.0316431 0.0142173 0.00356754 3.71349e-26 0 0.00328754 0.0130768 0.029061 0.0510748 0.0785989 0.110962 0.147896 0.189879 0.207556 0.0451207 0.321109 0.379355 0.430917 0.476947 0.51282 0.560237 0.625028 0.667117 0.706912 0.739481 0.772716 0.798845 0.818661 0.832502 0.839756 0.839794 0.834601 0.821366 0.802115 0.776535 0.744956 0.707819 0.665741 0.619574 0.570006 0.517964 0.464776 0.410927 0.357572 0.361199 0.394589 0.197874 0.156277 0.116683 0.0823739 0.0536951 0.0307582 0.0137388 0.00344235 3.59653e-26 0 0.00312829 0.0124334 0.0275602 0.0484128 0.0745796 0.105476 0.141936 0.180511 0.80139 0.247867 0.313288 0.363874 0.371084 0.444834 0.503807 0.547426 0.591627 0.632246 0.475975 0.701413 0.73388 0.758557 0.777627 0.79115 0.79887 0.799175 0.795031 0.782855 0.764974 0.740999 0.711257 0.676187 0.636343 0.592313 0.544831 0.494925 0.443694 0.391876 0.340391 0.291921 0.259647 0.227618 0.14884 0.111313 0.078614 0.0512127 0.0290903 0.0126721 0.00317417 3.42077e-26 0 0.00292425 0.0115617 0.0256013 0.0449767 0.0692225 0.0977976 0.122569 -0.0429846 0.189877 0.248401 0.291392 0.319611 -68.495 0.419302 0.466398 0.509259 0.549593 1992.99 0.606631 0.65513 0.682428 0.705854 0.724146 0.737243 0.745437 0.746009 0.742983 0.732027 0.715796 0.693897 0.666522 0.634021 0.596946 0.555919 0.511644 0.464757 0.416237 0.367417 0.318903 0.2716 0.228636 0.193872 0.13591 0.104665 0.0736249 0.0477725 0.0271153 0.0119258 0.00295922 3.19492e-26 0 0.00266773 0.0104903 0.0232425 0.0406581 0.0628616 0.0884381 0.104505 0.128868 0.18604 0.222682 0.257785 0.299361 0.328545 0.38051 0.423875 0.463355 0.498991 -61.4806 0.563576 0.595325 0.620305 0.641989 0.659426 0.672071 0.680057 0.681278 0.679152 0.670055 0.655783 0.636267 0.61145 0.581746 0.547892 0.510673 0.470401 0.427557 0.382924 0.337627 0.292826 0.249043 0.207151 0.168698 0.146852 0.0957235 0.0676732 0.0436303 0.0242664 0.010867 0.00270192 2.91704e-26 0 0.00237026 0.0155173 0.0204775 0.0175808 0.0550987 0.0763078 0.0946157 0.12743 0.161264 0.194638 0.228792 0.241049 0.298418 0.333263 0.361528 0.397705 0.437088 0.0608812 0.498819 0.525135 0.548192 0.568043 0.584365 0.596442 0.603972 0.606045 0.604832 0.59892 0.587009 0.569454 0.54696 0.520573 0.490621 0.45766 0.421683 0.383474 0.34385 0.303141 0.262674 0.223249 0.18525 0.149849 0.122207 0.103427 -0.33326 0.0490049 0.0218752 0.0100701 0.00246601 2.59319e-26 0 0.00203009 0.0191595 0.0172033 0.024264 0.0465179 0.0625242 0.0867822 0.111048 0.13668 0.164657 0.193501 0.220338 0.255251 0.262839 0.306259 0.341019 0.369445 0.236674 0.421737 0.442962 0.463428 0.481697 0.497922 0.510994 0.518844 0.521362 0.52246 0.521297 0.51285 0.494771 0.475638 0.452915 0.426698 0.398077 0.366726 0.333476 0.299165 0.264071 0.22877 0.194246 0.161071 0.129989 0.102163 0.0892062 0.0617303 0.0334043 0.0187288 0.00827938 0.00207774 2.22981e-26 0 0.0141589 0.00417846 0.0136704 0.0229962 0.0371987 0.0505716 0.069775 0.0890222 0.109545 0.131976 0.154927 0.175432 -8.30607 0.222741 0.250416 0.275523 0.259611 0.321224 0.184426 0.274174 0.326089 0.317804 0.285727 0.184672 0.472609 0.467401 0.437501 0.425885 0.41809 0.436232 0.416137 0.381922 0.357542 0.333412 0.306705 0.278871 0.250077 0.220811 0.191289 0.162304 0.134445 0.108199 0.08431 0.0696607 0.0437651 0.0275282 0.0155884 0.0068068 0.00170999 1.83603e-26 0 -0.000178775 0.00436949 0.010081 0.0182463 0.0269331 0.0392847 0.0519165 0.0655596 0.0808259 0.0968477 0.108621 0.126767 0.137684 0.166311 0.18637 0.185195 0.213443 0.236647 0.253073 0.267122 0.277815 0.291683 0.305988 0.313026 0.323876 0.331518 0.331317 0.329363 0.324782 0.316871 0.306411 0.32066 0.314594 0.269636 0.241804 0.220212 0.197568 0.174325 0.150972 0.127891 0.105766 0.0850006 0.0661188 0.0507964 0.0338929 0.0218416 0.0118456 0.00529248 0.00131999 1.42974e-26 0 0.000685769 0.002996 0.00658954 0.0116644 0.0177246 0.0250122 0.0328076 0.0411137 0.0504033 0.052709 0.0680511 0.0788681 0.0890826 0.102994 0.113049 0.11125 0.140049 0.152035 0.162137 0.172148 0.182322 0.192322 0.201813 0.211364 0.219403 0.226953 0.227932 0.227445 0.225574 0.221431 0.216945 0.208423 0.196957 0.208853 0.178863 0.158521 0.142089 0.125238 0.108338 0.0916764 0.0756521 0.0606233 0.0469878 0.0352187 0.0242294 0.0162536 0.00817682 0.00365332 0.000908388 1.16513e-26 0 0.000361646 0.00142873 0.00302591 0.00481177 0.00723728 0.0103149 0.0129769 0.0159737 0.0113631 0.0204333 0.0253527 0.0287531 0.0343395 0.0374721 0.0426031 0.0484403 0.0578698 0.0618539 0.0665983 0.0717885 0.0807613 0.0880919 0.0972837 0.103407 0.116629 0.119455 0.121437 0.123014 0.123849 0.123308 0.125199 0.232728 0.197015 0.0979275 0.122946 0.0958512 0.0843795 0.074372 0.0641885 0.0541335 0.0444459 0.0353783 0.027193 0.0200147 0.012184 0.0078408 0.0044076 0.00196264 0.000480215 5.48912e-27 0 -5.5353e-05 -0.000302376 -0.000853794 -0.00183525 -0.00286634 -0.00462928 -0.00761137 -0.0175307 -0.0141432 -0.0159943 -0.01889 -0.0220454 -0.0247704 -0.0282302 -0.0280215 -0.0288446 -0.0325074 -0.0408367 -0.0368652 -0.0324942 -0.0260306 -0.0222313 -0.0107752 -0.00783209 0.00138364 0.012251 0.0155097 0.0193712 0.023256 0.0265261 0.0344705 0.0296066 0.0257773 0.0240389 0.0275703 0.0298516 0.0260294 0.0226992 0.0193511 0.0159233 0.0126247 0.00964179 0.00706258 0.00484821 0.00321628 0.00135807 0.00058773 0.000236392 4.55753e-05 1.64613e-27 0 -0.000484891 -0.00204302 -0.00483691 -0.00874609 -0.0133384 -0.0200157 -0.0322973 -0.0372697 -0.044381 -0.0541167 -0.0637536 -0.078582 -0.0866784 -0.0932497 -0.101716 -0.119406 -0.126536 -0.120715 -0.125374 -0.129089 -0.13955 -0.165159 -0.122857 -0.114257 -0.109487 -0.0781865 -0.0769416 -0.0757258 -0.068947 -0.0567718 -0.0688506 -0.0629089 -0.0571012 -0.0385896 -0.0393983 -0.0276397 -0.032642 -0.029226 -0.0256238 -0.0222971 -0.0191804 -0.016097 -0.0130589 -0.0101653 0.00665726 -0.00541494 -0.00323493 -0.00151482 -0.000396804 -4.0021e-27 0 -0.000937988 -0.00379771 -0.00856692 -0.0153106 -0.0241204 -0.0365332 -0.0487344 -0.0611774 -0.0753465 -0.0932319 -0.111161 -0.125771 -0.144667 -0.160482 -0.175559 -0.190417 -0.2007 -0.208223 -0.216914 -0.224594 -0.229054 -0.228277 -0.228953 -0.22102 -0.217674 -0.211523 -0.191911 -0.192468 -0.185266 -0.175308 -0.163727 -0.151137 -0.130708 -0.107067 -0.110614 -0.0979917 -0.0913072 -0.0806444 -0.0702014 -0.0601799 -0.0506216 -0.041504 -0.0328881 -0.0249333 -0.016402 -0.0118731 0.00151054 -0.00321657 -0.000838087 -8.92872e-27 0 -0.00138163 -0.0055605 -0.0123353 -0.0217121 -0.0346725 -0.0499661 -0.0669763 -0.0846351 -0.105795 -0.137316 -0.150423 -0.172951 -0.19897 -0.226412 -0.246099 -0.263369 -0.279452 -0.293672 -0.307775 -0.319691 -0.327048 -0.32935 -0.332795 -0.343659 -0.323243 -0.316321 -0.304016 -0.295255 -0.283987 -0.270236 -0.254714 -0.234947 -0.204976 -0.201467 -0.18454 -0.166818 -0.148009 -0.130639 -0.113556 -0.0970309 -0.0812078 -0.0662026 -0.0521173 -0.0392174 -0.0284269 -0.0186468 -0.0106872 -0.00456225 -0.00126204 -1.37123e-26 0 -0.00180251 -0.00714505 -0.0158924 -0.0279679 -0.0443498 -0.0634664 -0.083815 -0.107666 -0.140804 -0.164624 -0.189524 -0.219272 -0.25174 -0.279834 -0.310689 -0.337488 -0.35943 -0.380915 -0.402429 -0.416662 -0.423872 -0.428407 -0.430811 -0.43122 -0.424383 -0.416785 -0.403863 -0.391299 -0.375758 -0.358149 -0.338047 -0.313124 -0.296509 -0.273641 -0.248487 -0.223643 -0.200375 -0.177978 -0.154913 -0.132221 -0.110395 -0.0898166 -0.070536 -0.0528507 -0.0382262 -0.02508 -0.0143088 -0.00657191 -0.00165147 -1.8102e-26 0 -0.00220962 -0.00867145 -0.0192508 -0.0337984 -0.0539365 -0.0749387 -0.0998601 -0.132564 -0.165297 -0.194755 -0.22743 -0.263831 -0.304559 -0.334277 -0.368026 -0.403201 -0.441542 -0.467535 -0.476974 -0.498566 -0.511056 -0.517074 -0.520453 -0.522124 -0.517685 -0.508343 -0.493488 -0.475538 -0.453883 -0.430775 -0.409709 -0.398215 -0.37018 -0.33962 -0.304316 -0.27228 -0.248559 -0.222513 -0.193708 -0.165197 -0.137757 -0.111919 -0.0877994 -0.0657302 -0.0474269 -0.0309508 -0.0176348 -0.00799744 -0.00201161 -2.21527e-26 0 -0.00256306 -0.0100753 -0.0224052 -0.0397333 -0.0613623 -0.0852993 -0.117536 -0.157045 -0.187533 -0.222887 -0.261733 -0.328751 -0.392512 -0.386928 -0.425933 -0.461147 -0.494627 -0.525628 -0.54776 -0.569486 -0.585207 -0.598654 -0.617028 -0.618421 -0.600933 -0.582227 -0.558798 -0.553217 -0.550429 -0.526699 -0.49972 -0.468871 -0.434647 -0.392646 -0.286369 -0.333474 -0.295654 -0.263796 -0.229336 -0.195477 -0.162881 -0.132128 -0.10359 -0.0775998 -0.0554514 -0.0362262 -0.0206651 -0.00929163 -0.0023451 -2.58196e-26 0 -0.00288101 -0.0113012 -0.0251206 -0.0441636 -0.0675825 -0.0964577 -0.140178 -0.170282 -0.206998 -0.255388 -0.309415 -0.335727 -0.418127 -0.539146 -0.530152 -0.526224 -0.551601 -0.583629 -0.616071 -0.639693 -0.655952 -0.67561 -0.680562 -0.681749 -0.679094 -0.672502 -0.659364 -0.641968 -0.62035 -0.594968 -0.565659 -0.531241 -0.484814 -0.305409 -0.420822 -0.381204 -0.338593 -0.300526 -0.261076 -0.222499 -0.185312 -0.150185 -0.117678 -0.0881451 -0.0623925 -0.0408062 -0.0233167 -0.0105545 -0.00265344 -2.90607e-26 0 -0.00315272 -0.0123366 -0.0273286 -0.0475096 -0.0752934 -0.113516 -0.147192 -0.178152 -0.231053 -0.328179 -0.334105 -0.370258 -0.416954 -0.463981 -0.512108 -0.565084 -0.600876 -0.636237 -0.672304 -0.695339 -0.710112 -0.734444 -0.744623 -0.747177 -0.746539 -0.737045 -0.722766 -0.704851 -0.680088 -0.651571 -0.619923 -0.578457 -0.493468 -0.508003 -0.465283 -0.421315 -0.375791 -0.332401 -0.288493 -0.245715 -0.204625 -0.165818 -0.129828 -0.0971434 -0.0672672 -0.0436527 -0.0257856 -0.0115563 -0.00292072 -3.18629e-26 0 -0.00337076 -0.0131976 -0.0293121 -0.0508827 -0.0802606 -0.119242 -0.150636 -0.193173 -0.239561 -0.286237 -0.352292 -0.394195 -0.444013 -0.494624 -0.547496 -0.597161 -0.63804 -0.676137 -0.711259 -0.744776 -0.766537 -0.782065 -0.795334 -0.799642 -0.799481 -0.790041 -0.77788 -0.75811 -0.73422 -0.705242 -0.670725 -0.631817 -0.590937 -0.547452 -0.501703 -0.4547 -0.406065 -0.35886 -0.311408 -0.265011 -0.220634 -0.178743 -0.13985 -0.104643 -0.073793 -0.0484703 -0.0276738 -0.0123816 -0.00313358 -3.41615e-26 0 -0.00354775 -0.0139159 -0.0309369 -0.0541979 -0.0840453 -0.117378 -0.163537 -0.205736 -0.250922 -0.299709 -0.363804 -0.411986 -0.464853 -0.518535 -0.576884 -0.622758 -0.668842 -0.711012 -0.744163 -0.773155 -0.819404 -0.827965 -0.836154 -0.839949 -0.839935 -0.831286 -0.819029 -0.798257 -0.773254 -0.743001 -0.707253 -0.667155 -0.624125 -0.578057 -0.529847 -0.480517 -0.429322 -0.379425 -0.329432 -0.280226 -0.233138 -0.188748 -0.147586 -0.110456 -0.0779371 -0.0510827 -0.0291347 -0.0130292 -0.00329905 -3.59456e-26 0 -0.00367022 -0.0144129 -0.0320382 -0.0560604 -0.0857613 -0.12102 -0.167127 -0.210832 -0.257851 -0.309037 -0.371556 -0.423468 -0.478589 -0.533624 -0.592885 -0.641718 -0.68742 -0.730162 -0.768372 -0.802803 -0.847752 -0.850356 -0.862681 -0.867636 -0.86751 -0.859354 -0.845881 -0.826701 -0.800946 -0.769894 -0.73314 -0.691831 -0.647701 -0.604962 -0.480095 -0.45688 -0.446499 -0.39377 -0.341701 -0.290707 -0.241813 -0.195693 -0.152899 -0.114251 -0.0808568 -0.0527989 -0.0301167 -0.0134794 -0.00340775 -3.71245e-26 0 -0.00372375 -0.0145502 -0.0321629 -0.0560279 -0.0858504 -0.122238 -0.167976 -0.212989 -0.260379 -0.312372 -0.375356 -0.426906 -0.482004 -0.536993 -0.591773 -0.649977 -0.694719 -0.737432 -0.776066 -0.809929 -0.840266 -0.864769 -0.874657 -0.881175 -0.881627 -0.873894 -0.861404 -0.841904 -0.81644 -0.785088 -0.747382 -0.704711 -0.661047 -0.614244 -0.563472 -0.50192 -0.455624 -0.402369 -0.348776 -0.296697 -0.24679 -0.199596 -0.155725 -0.115764 -0.0824456 -0.0538143 -0.0306667 -0.0137221 -0.00346247 -3.77219e-26 0 -0.00369076 -0.0143693 -0.0317369 -0.0553727 -0.0876516 -0.123472 -0.163279 -0.212629 -0.27595 -0.313864 -0.364543 -0.427043 -0.48325 -0.53793 -0.591488 -0.64501 -0.69354 -0.738877 -0.776955 -0.809984 -0.836967 -0.858982 -0.917645 -0.880972 -0.881382 -0.875509 -0.862011 -0.841964 -0.816857 -0.780797 -0.74632 -0.708261 -0.661872 -0.611261 -0.544114 -0.508209 -0.456316 -0.402879 -0.349235 -0.296998 -0.246965 -0.199628 -0.155379 -0.112714 -0.0826433 -0.0538945 -0.0306921 -0.0137236 -0.00346182 -3.77292e-26 0 -0.00353177 -0.0137903 -0.0320144 -0.0563293 -0.0867366 -0.120727 -0.161312 -0.207303 -0.257013 -0.307567 -0.357404 -0.411303 -0.47241 -0.527506 -0.57994 -0.630159 -0.676915 -0.727751 -0.764442 -0.796456 -0.823012 -0.843867 -0.859767 -0.86253 -0.858933 -0.862638 -0.849047 -0.830059 -0.80477 -0.773546 -0.737721 -0.694972 -0.670472 -0.613594 -0.554047 -0.504701 -0.4518 -0.398505 -0.345506 -0.293823 -0.244247 -0.197381 -0.153501 0.0109016 -0.0817265 -0.0531953 -0.0302737 -0.0135466 -0.00340949 -3.71427e-26 0 -0.00337878 -0.0141253 -0.0312045 -0.0541527 -0.0829538 -0.117465 -0.156595 -0.200317 -0.247378 -0.296981 -0.345775 -0.400791 -0.458374 -0.509782 -0.561485 -0.610699 -0.656114 -0.698024 -0.738118 -0.770363 -0.796239 -0.816437 -0.831217 -0.838965 -0.839888 -0.832933 -0.822686 -0.804618 -0.780314 -0.749225 -0.709715 -0.663825 -0.635913 -0.588295 -0.539882 -0.489566 -0.438087 -0.386239 -0.334817 -0.284709 -0.236564 -0.190927 -0.148236 -39.3484 -0.0659224 -0.0514506 -0.0292875 -0.0127789 -0.00330195 -3.59733e-26 0 -0.00347785 -0.0135355 -0.0295541 -0.0514068 -0.0788542 -0.111594 -0.148984 -0.190802 -0.235141 -0.282465 -0.330123 -0.3995 -0.440566 -0.485783 -0.532265 -0.578359 -0.623674 -0.664661 -0.703471 -0.731565 -0.756407 -0.77668 -