<?xml version="1.0"?>
<VTKFile type="PolyData">
	<PolyData>
		<Piece NumberOfPoints="2601" NumberOfPolys="2500">
			<Points>
				<DataArray type="Float32" NumberOfComponents="3" format="ascii">
 0 0 0 0.02 0 0 0.04 0 0 0.06 0 0 0.08 0 0 0.1 0 0 0.12 0 0 0.14 0 0 0.16 0 0 0.18 0 0 0.2 0 0 0.22 0 0 0.24 0 0 0.26 0 0 0.28 0 0 0.3 0 0 0.32 0 0 0.34 0 0 0.36 0 0 0.38 0 0 0.4 0 0 0.42 0 0 0.44 0 0 0.46 0 0 0.48 0 0 0.5 0 0 0.52 0 0 0.54 0 0 0.56 0 0 0.58 0 0 0.6 0 0 0.62 0 0 0.64 0 0 0.66 0 0 0.68 0 0 0.7 0 0 0.72 0 0 0.74 0 0 0.76 0 0 0.78 0 0 0.8 0 0 0.82 0 0 0.84 0 0 0.86 0 0 0.88 0 0 0.9 0 0 0.92 0 0 0.94 0 0 0.96 0 0 0.98 0 0 1 0 0 0 0.02 0 0.02 0.02 0 0.04 0.02 0 0.06 0.02 0 0.08 0.02 0 0.1 0.02 0 0.12 0.02 0 0.14 0.02 0 0.16 0.02 0 0.18 0.02 0 0.2 0.02 0 0.22 0.02 0 0.24 0.02 0 0.26 0.02 0 0.28 0.02 0 0.3 0.02 0 0.32 0.02 0 0.34 0.02 0 0.36 0.02 0 0.38 0.02 0 0.4 0.02 0 0.42 0.02 0 0.44 0.02 0 0.46 0.02 0 0.48 0.02 0 0.5 0.02 0 0.52 0.02 0 0.54 0.02 0 0.56 0.02 0 0.58 0.02 0 0.6 0.02 0 0.62 0.02 0 0.64 0.02 0 0.66 0.02 0 0.68 0.02 0 0.7 0.02 0 0.72 0.02 0 0.74 0.02 0 0.76 0.02 0 0.78 0.02 0 0.8 0.02 0 0.82 0.02 0 0.84 0.02 0 0.86 0.02 0 0.88 0.02 0 0.9 0.02 0 0.92 0.02 0 0.94 0.02 0 0.96 0.02 0 0.98 0.02 0 1 0.02 0 0 0.04 0 0.02 0.04 0 0.04 0.04 0 0.06 0.04 0 0.08 0.04 0 0.1 0.04 0 0.12 0.04 0 0.14 0.04 0 0.16 0.04 0 0.18 0.04 0 0.2 0.04 0 0.22 0.04 0 0.24 0.04 0 0.26 0.04 0 0.28 0.04 0 0.3 0.04 0 0.32 0.04 0 0.34 0.04 0 0.36 0.04 0 0.38 0.04 0 0.4 0.04 0 0.42 0.04 0 0.44 0.04 0 0.46 0.04 0 0.48 0.04 0 0.5 0.04 0 0.52 0.04 0 0.54 0.04 0 0.56 0.04 0 0.58 0.04 0 0.6 0.04 0 0.62 0.04 0 0.64 0.04 0 0.66 0.04 0 0.68 0.04 0 0.7 0.04 0 0.72 0.04 0 0.74 0.04 0 0.76 0.04 0 0.78 0.04 0 0.8 0.04 0 0.82 0.04 0 0.84 0.04 0 0.86 0.04 0 0.88 0.04 0 0.9 0.04 0 0.92 0.04 0 0.94 0.04 0 0.96 0.04 0 0.98 0.04 0 1 0.04 0 0 0.06 0 0.02 0.06 0 0.04 0.06 0 0.06 0.06 0 0.08 0.06 0 0.1 0.06 0 0.12 0.06 0 0.14 0.06 0 0.16 0.06 0 0.18 0.06 0 0.2 0.06 0 0.22 0.06 0 0.24 0.06 0 0.26 0.06 0 0.28 0.06 0 0.3 0.06 0 0.32 0.06 0 0.34 0.06 0 0.36 0.06 0 0.38 0.06 0 0.4 0.06 0 0.42 0.06 0 0.44 0.06 0 0.46 0.06 0 0.48 0.06 0 0.5 0.06 0 0.52 0.06 0 0.54 0.06 0 0.56 0.06 0 0.58 0.06 0 0.6 0.06 0 0.62 0.06 0 0.64 0.06 0 0.66 0.06 0 0.68 0.06 0 0.7 0.06 0 0.72 0.06 0 0.74 0.06 0 0.76 0.06 0 0.78 0.06 0 0.8 0.06 0 0.82 0.06 0 0.84 0.06 0 0.86 0.06 0 0.88 0.06 0 0.9 0.06 0 0.92 0.06 0 0.94 0.06 0 0.96 0.06 0 0.98 0.06 0 1 0.06 0 0 0.08 0 0.02 0.08 0 0.04 0.08 0 0.06 0.08 0 0.08 0.08 0 0.1 0.08 0 0.12 0.08 0 0.14 0.08 0 0.16 0.08 0 0.18 0.08 0 0.2 0.08 0 0.22 0.08 0 0.24 0.08 0 0.26 0.08 0 0.28 0.08 0 0.3 0.08 0 0.32 0.08 0 0.34 0.08 0 0.36 0.08 0 0.38 0.08 0 0.4 0.08 0 0.42 0.08 0 0.44 0.08 0 0.46 0.08 0 0.48 0.08 0 0.5 0.08 0 0.52 0.08 0 0.54 0.08 0 0.56 0.08 0 0.58 0.08 0 0.6 0.08 0 0.62 0.08 0 0.64 0.08 0 0.66 0.08 0 0.68 0.08 0 0.7 0.08 0 0.72 0.08 0 0.74 0.08 0 0.76 0.08 0 0.78 0.08 0 0.8 0.08 0 0.82 0.08 0 0.84 0.08 0 0.86 0.08 0 0.88 0.08 0 0.9 0.08 0 0.92 0.08 0 0.94 0.08 0 0.96 0.08 0 0.98 0.08 0 1 0.08 0 0 0.1 0 0.02 0.1 0 0.04 0.1 0 0.06 0.1 0 0.08 0.1 0 0.1 0.1 0 0.12 0.1 0 0.14 0.1 0 0.16 0.1 0 0.18 0.1 0 0.2 0.1 0 0.22 0.1 0 0.24 0.1 0 0.26 0.1 0 0.28 0.1 0 0.3 0.1 0 0.32 0.1 0 0.34 0.1 0 0.36 0.1 0 0.38 0.1 0 0.4 0.1 0 0.42 0.1 0 0.44 0.1 0 0.46 0.1 0 0.48 0.1 0 0.5 0.1 0 0.52 0.1 0 0.54 0.1 0 0.56 0.1 0 0.58 0.1 0 0.6 0.1 0 0.62 0.1 0 0.64 0.1 0 0.66 0.1 0 0.68 0.1 0 0.7 0.1 0 0.72 0.1 0 0.74 0.1 0 0.76 0.1 0 0.78 0.1 0 0.8 0.1 0 0.82 0.1 0 0.84 0.1 0 0.86 0.1 0 0.88 0.1 0 0.9 0.1 0 0.92 0.1 0 0.94 0.1 0 0.96 0.1 0 0.98 0.1 0 1 0.1 0 0 0.12 0 0.02 0.12 0 0.04 0.12 0 0.06 0.12 0 0.08 0.12 0 0.1 0.12 0 0.12 0.12 0 0.14 0.12 0 0.16 0.12 0 0.18 0.12 0 0.2 0.12 0 0.22 0.12 0 0.24 0.12 0 0.26 0.12 0 0.28 0.12 0 0.3 0.12 0 0.32 0.12 0 0.34 0.12 0 0.36 0.12 0 0.38 0.12 0 0.4 0.12 0 0.42 0.12 0 0.44 0.12 0 0.46 0.12 0 0.48 0.12 0 0.5 0.12 0 0.52 0.12 0 0.54 0.12 0 0.56 0.12 0 0.58 0.12 0 0.6 0.12 0 0.62 0.12 0 0.64 0.12 0 0.66 0.12 0 0.68 0.12 0 0.7 0.12 0 0.72 0.12 0 0.74 0.12 0 0.76 0.12 0 0.78 0.12 0 0.8 0.12 0 0.82 0.12 0 0.84 0.12 0 0.86 0.12 0 0.88 0.12 0 0.9 0.12 0 0.92 0.12 0 0.94 0.12 0 0.96 0.12 0 0.98 0.12 0 1 0.12 0 0 0.14 0 0.02 0.14 0 0.04 0.14 0 0.06 0.14 0 0.08 0.14 0 0.1 0.14 0 0.12 0.14 0 0.14 0.14 0 0.16 0.14 0 0.18 0.14 0 0.2 0.14 0 0.22 0.14 0 0.24 0.14 0 0.26 0.14 0 0.28 0.14 0 0.3 0.14 0 0.32 0.14 0 0.34 0.14 0 0.36 0.14 0 0.38 0.14 0 0.4 0.14 0 0.42 0.14 0 0.44 0.14 0 0.46 0.14 0 0.48 0.14 0 0.5 0.14 0 0.52 0.14 0 0.54 0.14 0 0.56 0.14 0 0.58 0.14 0 0.6 0.14 0 0.62 0.14 0 0.64 0.14 0 0.66 0.14 0 0.68 0.14 0 0.7 0.14 0 0.72 0.14 0 0.74 0.14 0 0.76 0.14 0 0.78 0.14 0 0.8 0.14 0 0.82 0.14 0 0.84 0.14 0 0.86 0.14 0 0.88 0.14 0 0.9 0.14 0 0.92 0.14 0 0.94 0.14 0 0.96 0.14 0 0.98 0.14 0 1 0.14 0 0 0.16 0 0.02 0.16 0 0.04 0.16 0 0.06 0.16 0 0.08 0.16 0 0.1 0.16 0 0.12 0.16 0 0.14 0.16 0 0.16 0.16 0 0.18 0.16 0 0.2 0.16 0 0.22 0.16 0 0.24 0.16 0 0.26 0.16 0 0.28 0.16 0 0.3 0.16 0 0.32 0.16 0 0.34 0.16 0 0.36 0.16 0 0.38 0.16 0 0.4 0.16 0 0.42 0.16 0 0.44 0.16 0 0.46 0.16 0 0.48 0.16 0 0.5 0.16 0 0.52 0.16 0 0.54 0.16 0 0.56 0.16 0 0.58 0.16 0 0.6 0.16 0 0.62 0.16 0 0.64 0.16 0 0.66 0.16 0 0.68 0.16 0 0.7 0.16 0 0.72 0.16 0 0.74 0.16 0 0.76 0.16 0 0.78 0.16 0 0.8 0.16 0 0.82 0.16 0 0.84 0.16 0 0.86 0.16 0 0.88 0.16 0 0.9 0.16 0 0.92 0.16 0 0.94 0.16 0 0.96 0.16 0 0.98 0.16 0 1 0.16 0 0 0.18 0 0.02 0.18 0 0.04 0.18 0 0.06 0.18 0 0.08 0.18 0 0.1 0.18 0 0.12 0.18 0 0.14 0.18 0 0.16 0.18 0 0.18 0.18 0 0.2 0.18 0 0.22 0.18 0 0.24 0.18 0 0.26 0.18 0 0.28 0.18 0 0.3 0.18 0 0.32 0.18 0 0.34 0.18 0 0.36 0.18 0 0.38 0.18 0 0.4 0.18 0 0.42 0.18 0 0.44 0.18 0 0.46 0.18 0 0.48 0.18 0 0.5 0.18 0 0.52 0.18 0 0.54 0.18 0 0.56 0.18 0 0.58 0.18 0 0.6 0.18 0 0.62 0.18 0 0.64 0.18 0 0.66 0.18 0 0.68 0.18 0 0.7 0.18 0 0.72 0.18 0 0.74 0.18 0 0.76 0.18 0 0.78 0.18 0 0.8 0.18 0 0.82 0.18 0 0.84 0.18 0 0.86 0.18 0 0.88 0.18 0 0.9 0.18 0 0.92 0.18 0 0.94 0.18 0 0.96 0.18 0 0.98 0.18 0 1 0.18 0 0 0.2 0 0.02 0.2 0 0.04 0.2 0 0.06 0.2 0 0.08 0.2 0 0.1 0.2 0 0.12 0.2 0 0.14 0.2 0 0.16 0.2 0 0.18 0.2 0 0.2 0.2 0 0.22 0.2 0 0.24 0.2 0 0.26 0.2 0 0.28 0.2 0 0.3 0.2 0 0.32 0.2 0 0.34 0.2 0 0.36 0.2 0 0.38 0.2 0 0.4 0.2 0 0.42 0.2 0 0.44 0.2 0 0.46 0.2 0 0.48 0.2 0 0.5 0.2 0 0.52 0.2 0 0.54 0.2 0 0.56 0.2 0 0.58 0.2 0 0.6 0.2 0 0.62 0.2 0 0.64 0.2 0 0.66 0.2 0 0.68 0.2 0 0.7 0.2 0 0.72 0.2 0 0.74 0.2 0 0.76 0.2 0 0.78 0.2 0 0.8 0.2 0 0.82 0.2 0 0.84 0.2 0 0.86 0.2 0 0.88 0.2 0 0.9 0.2 0 0.92 0.2 0 0.94 0.2 0 0.96 0.2 0 0.98 0.2 0 1 0.2 0 0 0.22 0 0.02 0.22 0 0.04 0.22 0 0.06 0.22 0 0.08 0.22 0 0.1 0.22 0 0.12 0.22 0 0.14 0.22 0 0.16 0.22 0 0.18 0.22 0 0.2 0.22 0 0.22 0.22 0 0.24 0.22 0 0.26 0.22 0 0.28 0.22 0 0.3 0.22 0 0.32 0.22 0 0.34 0.22 0 0.36 0.22 0 0.38 0.22 0 0.4 0.22 0 0.42 0.22 0 0.44 0.22 0 0.46 0.22 0 0.48 0.22 0 0.5 0.22 0 0.52 0.22 0 0.54 0.22 0 0.56 0.22 0 0.58 0.22 0 0.6 0.22 0 0.62 0.22 0 0.64 0.22 0 0.66 0.22 0 0.68 0.22 0 0.7 0.22 0 0.72 0.22 0 0.74 0.22 0 0.76 0.22 0 0.78 0.22 0 0.8 0.22 0 0.82 0.22 0 0.84 0.22 0 0.86 0.22 0 0.88 0.22 0 0.9 0.22 0 0.92 0.22 0 0.94 0.22 0 0.96 0.22 0 0.98 0.22 0 1 0.22 0 0 0.24 0 0.02 0.24 0 0.04 0.24 0 0.06 0.24 0 0.08 0.24 0 0.1 0.24 0 0.12 0.24 0 0.14 0.24 0 0.16 0.24 0 0.18 0.24 0 0.2 0.24 0 0.22 0.24 0 0.24 0.24 0 0.26 0.24 0 0.28 0.24 0 0.3 0.24 0 0.32 0.24 0 0.34 0.24 0 0.36 0.24 0 0.38 0.24 0 0.4 0.24 0 0.42 0.24 0 0.44 0.24 0 0.46 0.24 0 0.48 0.24 0 0.5 0.24 0 0.52 0.24 0 0.54 0.24 0 0.56 0.24 0 0.58 0.24 0 0.6 0.24 0 0.62 0.24 0 0.64 0.24 0 0.66 0.24 0 0.68 0.24 0 0.7 0.24 0 0.72 0.24 0 0.74 0.24 0 0.76 0.24 0 0.78 0.24 0 0.8 0.24 0 0.82 0.24 0 0.84 0.24 0 0.86 0.24 0 0.88 0.24 0 0.9 0.24 0 0.92 0.24 0 0.94 0.24 0 0.96 0.24 0 0.98 0.24 0 1 0.24 0 0 0.26 0 0.02 0.26 0 0.04 0.26 0 0.06 0.26 0 0.08 0.26 0 0.1 0.26 0 0.12 0.26 0 0.14 0.26 0 0.16 0.26 0 0.18 0.26 0 0.2 0.26 0 0.22 0.26 0 0.24 0.26 0 0.26 0.26 0 0.28 0.26 0 0.3 0.26 0 0.32 0.26 0 0.34 0.26 0 0.36 0.26 0 0.38 0.26 0 0.4 0.26 0 0.42 0.26 0 0.44 0.26 0 0.46 0.26 0 0.48 0.26 0 0.5 0.26 0 0.52 0.26 0 0.54 0.26 0 0.56 0.26 0 0.58 0.26 0 0.6 0.26 0 0.62 0.26 0 0.64 0.26 0 0.66 0.26 0 0.68 0.26 0 0.7 0.26 0 0.72 0.26 0 0.74 0.26 0 0.76 0.26 0 0.78 0.26 0 0.8 0.26 0 0.82 0.26 0 0.84 0.26 0 0.86 0.26 0 0.88 0.26 0 0.9 0.26 0 0.92 0.26 0 0.94 0.26 0 0.96 0.26 0 0.98 0.26 0 1 0.26 0 0 0.28 0 0.02 0.28 0 0.04 0.28 0 0.06 0.28 0 0.08 0.28 0 0.1 0.28 0 0.12 0.28 0 0.14 0.28 0 0.16 0.28 0 0.18 0.28 0 0.2 0.28 0 0.22 0.28 0 0.24 0.28 0 0.26 0.28 0 0.28 0.28 0 0.3 0.28 0 0.32 0.28 0 0.34 0.28 0 0.36 0.28 0 0.38 0.28 0 0.4 0.28 0 0.42 0.28 0 0.44 0.28 0 0.46 0.28 0 0.48 0.28 0 0.5 0.28 0 0.52 0.28 0 0.54 0.28 0 0.56 0.28 0 0.58 0.28 0 0.6 0.28 0 0.62 0.28 0 0.64 0.28 0 0.66 0.28 0 0.68 0.28 0 0.7 0.28 0 0.72 0.28 0 0.74 0.28 0 0.76 0.28 0 0.78 0.28 0 0.8 0.28 0 0.82 0.28 0 0.84 0.28 0 0.86 0.28 0 0.88 0.28 0 0.9 0.28 0 0.92 0.28 0 0.94 0.28 0 0.96 0.28 0 0.98 0.28 0 1 0.28 0 0 0.3 0 0.02 0.3 0 0.04 0.3 0 0.06 0.3 0 0.08 0.3 0 0.1 0.3 0 0.12 0.3 0 0.14 0.3 0 0.16 0.3 0 0.18 0.3 0 0.2 0.3 0 0.22 0.3 0 0.24 0.3 0 0.26 0.3 0 0.28 0.3 0 0.3 0.3 0 0.32 0.3 0 0.34 0.3 0 0.36 0.3 0 0.38 0.3 0 0.4 0.3 0 0.42 0.3 0 0.44 0.3 0 0.46 0.3 0 0.48 0.3 0 0.5 0.3 0 0.52 0.3 0 0.54 0.3 0 0.56 0.3 0 0.58 0.3 0 0.6 0.3 0 0.62 0.3 0 0.64 0.3 0 0.66 0.3 0 0.68 0.3 0 0.7 0.3 0 0.72 0.3 0 0.74 0.3 0 0.76 0.3 0 0.78 0.3 0 0.8 0.3 0 0.82 0.3 0 0.84 0.3 0 0.86 0.3 0 0.88 0.3 0 0.9 0.3 0 0.92 0.3 0 0.94 0.3 0 0.96 0.3 0 0.98 0.3 0 1 0.3 0 0 0.32 0 0.02 0.32 0 0.04 0.32 0 0.06 0.32 0 0.08 0.32 0 0.1 0.32 0 0.12 0.32 0 0.14 0.32 0 0.16 0.32 0 0.18 0.32 0 0.2 0.32 0 0.22 0.32 0 0.24 0.32 0 0.26 0.32 0 0.28 0.32 0 0.3 0.32 0 0.32 0.32 0 0.34 0.32 0 0.36 0.32 0 0.38 0.32 0 0.4 0.32 0 0.42 0.32 0 0.44 0.32 0 0.46 0.32 0 0.48 0.32 0 0.5 0.32 0 0.52 0.32 0 0.54 0.32 0 0.56 0.32 0 0.58 0.32 0 0.6 0.32 0 0.62 0.32 0 0.64 0.32 0 0.66 0.32 0 0.68 0.32 0 0.7 0.32 0 0.72 0.32 0 0.74 0.32 0 0.76 0.32 0 0.78 0.32 0 0.8 0.32 0 0.82 0.32 0 0.84 0.32 0 0.86 0.32 0 0.88 0.32 0 0.9 0.32 0 0.92 0.32 0 0.94 0.
[...]
			<PointData Scalars="VitesseX">
				<DataArray Name="VitesseX" type="Float32" format="ascii">
 -0 -0 -0 -0 -0 -0 -0 -0 -0 -0 -0 -0 -0 -0 -0 -0 -0 -0 0 0 0 0 0 0 0 0 0 0 0 0 0 0 0 0 0 0 0 0 0 0 0 0 0 0 0 0 0 0 0 0 -0 -0 -0.00045653 -0.00181892 -0.00406569 -0.0071614 -0.0110572 -0.0156917 -0.0209918 -0.026874 -0.0332453 -0.0400054 -0.0470477 -0.0542611 -0.0615317 -0.0687451 -0.0757874 -0.0825475 -0.0920208 -0.0976884 -0.102264 -0.106362 -0.110395 -0.181799 -0.229091 -0.0708875 -0.129588 -0.139633 -0.141439 -0.140087 -0.136836 -0.132252 -0.126332 -0.120159 -0.112552 -0.104485 -0.0958107 -0.0865454 -0.0772503 -0.0680756 -0.0586027 -0.0455415 -0.0431439 -0.0347313 -0.0270122 -0.0212749 -0.014829 -0.00968658 -0.00549227 -0.0025507 -0.000628381 -8.7562e-27 -0 -0.000905861 -0.00360916 -0.00806726 -0.0142099 -0.0219401 -0.031136 -0.0416526 -0.0533241 -0.0659663 -0.07938 -0.0933534 -0.107666 -0.122093 -0.136406 -0.15038 -0.163793 -0.182863 -0.194099 -0.203108 -0.211186 -0.219215 -0.332229 0.0808749 -0.213411 -0.238237 -0.246332 -0.247212 -0.244252 -0.238426 -0.230765 -0.220728 -0.209875 -0.19679 -0.18301 -0.168029 -0.152159 -0.136124 -0.120065 -0.103607 -0.0786772 -0.0747579 -0.0603656 -0.047067 -0.0358888 -0.0252801 -0.0164734 -0.00934869 -0.00410799 -0.00106476 -1.33959e-26 -0 -0.00134091 -0.00534248 -0.0119416 -0.0210342 -0.0324769 -0.0460893 -0.0616565 -0.0789333 -0.097647 -0.117503 -0.138187 -0.159374 -0.180729 -0.201916 -0.2226 -0.242456 -0.265949 -0.280173 -0.290348 -0.381901 -0.420151 -0.826823 -0.283494 -0.331122 -0.345993 -0.351607 -0.350717 -0.345617 -0.336873 -0.326113 -0.311891 -0.29642 -0.277946 -0.258636 -0.237584 -0.215304 -0.19278 -0.170117 -0.146871 -0.0856296 -0.105145 -0.0850473 -0.066398 -0.050161 -0.0353709 -0.0230144 -0.0130682 -0.00591754 -0.00148525 -1.78602e-26 -0 -0.0017548 -0.00699154 -0.0156276 -0.0275269 -0.0425016 -0.0603156 -0.0806881 -0.103298 -0.127788 -0.153772 -0.180841 -0.208568 -0.236515 -0.264241 -0.29131 -0.317295 -0.341971 -0.360548 -0.374471 -0.48313 -0.607754 -0.324066 -0.416833 -0.43968 -0.449536 -0.45282 -0.449884 -0.44249 -0.430883 -0.416765 -0.398344 -0.378461 -0.354785 -0.330184 -0.303369 -0.27498 -0.246329 -0.217451 -0.187771 -0.104716 -0.13379 -0.108378 -0.0847194 -0.0637516 -0.0449314 -0.0292073 -0.0165924 -0.00750139 -0.00188282 -2.20664e-26 -0 -0.00214103 -0.00853034 -0.0190672 -0.0335854 -0.051856 -0.0735908 -0.0984471 -0.126033 -0.155913 -0.187617 -0.220643 -0.254472 -0.28857 -0.322399 -0.355426 -0.38713 -0.409618 -0.433529 -0.547134 -0.645613 -0.31236 -0.489905 -0.524981 -0.539838 -0.546632 -0.547843 -0.542731 -0.533097 -0.518607 -0.501225 -0.478744 -0.454695 -0.426085 -0.396528 -0.36433 -0.330241 -0.295941 -0.261326 -0.22576 -0.168811 -0.160228 -0.13002 -0.101787 -0.0763115 -0.053808 -0.0349532 -0.0198637 -0.0089683 -0.00225115 -2.59432e-26 -0 -0.00249349 -0.00993462 -0.022206 -0.0391142 -0.0603926 -0.0857054 -0.114654 -0.146781 -0.18158 -0.218502 -0.256966 -0.296364 -0.336075 -0.375473 -0.413937 -0.450859 -nan -nan -0.686301 -0.126423 -0.551277 -0.597217 -0.619555 -0.630766 -0.635466 -0.63483 -0.627666 -0.615882 -0.598559 -0.578105 -0.551811 -0.523884 -0.490713 -0.456608 -0.419467 -0.380201 -0.340841 -0.301046 -0.260332 -0.212744 -0.184101 -0.149689 -0.117319 -0.0876424 -0.061862 -0.0401754 -0.0228319 -0.0103397 -0.00258465 -2.94276e-26 -0 -0.00280662 -0.0111822 -0.0249947 -0.0440263 -0.0679767 -0.0964684 -0.129052 -0.165213 -0.204383 -0.245942 -0.289236 -0.333582 -0.37828 -0.422625 -0.465919 -0.507479 -nan -nan -0.273823 -0.603867 -0.656456 -0.684205 -0.702065 -0.711335 -0.714511 -0.712292 -0.703266 -0.689401 -0.669411 -0.646133 -0.616357 -0.584901 -0.547634 -0.509448 -0.467854 -0.424052 -0.380311 -0.335964 -0.290987 -0.244374 -0.205105 -0.167046 -0.13101 -0.0976115 -0.0689696 -0.0448109 -0.0254497 -0.011549 -0.00287827 -3.24645e-26 -0 -0.00307549 -0.0122535 -0.0273892 -0.0482439 -0.0744888 -0.10571 -0.141415 -0.181041 -0.223963 -0.269503 -0.316945 -0.365539 -0.414519 -0.463113 -0.510554 -0.556095 -0.599016 -nan -0.638848 -0.699658 -0.733241 -0.756253 -0.772291 -0.780423 -0.782433 -0.778853 -0.768131 -0.752376 -0.729996 -0.704175 -0.671355 -0.636786 -0.595959 -0.554169 -0.508667 -0.461082 -0.413689 -0.365511 -0.31721 -0.269275 -0.222592 -0.181722 -0.142609 -0.106088 -0.0750225 -0.0487799 -0.0276823 -0.0124802 -0.00312772 -3.50064e-26 -0 -0.00329586 -0.0131315 -0.0293517 -0.0517008 -0.0798262 -0.113284 -0.151548 -0.194013 -0.24001 -0.288814 -0.339655 -0.391731 -0.444221 -0.496296 -0.547137 -nan -nan -nan -0.730079 -0.765423 -0.793365 -0.81449 -0.829629 -0.837025 -0.838132 -0.833395 -0.821212 -0.803768 -0.779334 -0.751323 -0.716004 -0.678745 -0.635038 -0.590174 -0.541225 -0.490714 -0.440455 -0.389219 -0.338469 -0.28862 -0.236466 -0.193421 -0.151963 -0.11298 -0.0799252 -0.0519528 -0.0294895 -0.01328 -0.00332932 -3.70141e-26 -0 -0.00346425 -0.0138024 -0.0308514 -0.0543423 -0.0839047 -0.119072 -0.159291 -0.203926 -0.252273 -0.30357 -0.357008 -0.411745 -0.466917 -0.521653 -0.575092 -nan -nan -0.727568 -0.77391 -0.809085 -0.836979 -0.858063 -0.87307 -0.880161 -0.880688 -0.874997 -0.861575 -0.842583 -0.816557 -0.786544 -0.749323 -0.709957 -0.664248 -0.617615 -0.565202 -0.512484 -0.460185 -0.406657 -0.354303 -0.302761 -0.246668 -0.202299 -0.158874 -0.11818 -0.0835994 -0.0542849 -0.0308479 -0.0138255 -0.00348012 -3.84569e-26 -0 -0.00357801 -0.0142556 -0.0318644 -0.0561268 -0.08666 -0.122983 -0.164522 -0.210622 -nan -nan -nan -nan -nan -nan -nan -0.677191 -0.724995 -0.768485 -0.807079 -0.840258 -0.867443 -0.888178 -0.90286 -0.909513 -0.909501 -0.903362 -0.889218 -0.869381 -0.842438 -0.810943 -0.772556 -0.731187 -0.684278 -0.635485 -0.582025 -0.527376 -0.473163 -0.418513 -0.365058 -0.312257 -0.255926 -0.208426 -0.16375 -0.121783 -0.0861303 -0.0559028 -0.0318085 -0.0143269 -0.00359024 -3.93127e-26 -0 -0.00363535 -0.014484 -0.032375 -0.0570261 -0.0880486 -0.124953 -0.167158 -0.213997 -nan -nan -nan -nan -nan -nan -nan -0.691489 -0.739969 -0.78427 -0.823439 -0.85683 -0.883924 -0.904336 -0.918519 -0.924601 -0.923878 -0.916781 -0.901665 -0.880679 -0.852912 -0.81982 -0.781397 -0.738098 -0.690759 -0.640645 -0.587621 -0.532801 -0.477441 -0.421687 -0.367624 -0.313967 -0.204874 -0.210296 -0.165144 -0.123185 -0.0871633 -0.0564969 -0.0321244 -0.0144019 -0.00362049 -3.95688e-26 -0 -0.00363535 -0.014484 -0.032375 -0.0570261 -0.0880486 -0.124953 -nan -nan -0.292665 -0.348203 -0.405816 -0.464754 -0.52432 -0.582293 -0.639531 -0.691235 -0.739714 -0.783957 -0.823123 -0.856546 -0.883692 -0.90417 -0.918422 -0.92457 -0.923887 -0.916828 -0.901615 -0.881157 -0.852861 -0.819734 -0.78135 -0.737542 -0.689062 -0.637879 -0.586904 -0.532557 -0.477148 -0.421094 -0.365947 -0.309658 -0.234155 -0.209482 -0.164453 -0.0818229 -0.0871063 -0.0565289 -0.0321126 -0.0143982 -0.00361977 -3.92217e-26 -0 -0.00357801 -0.0142556 -0.0318644 -0.0561268 -0.08666 -0.122983 -nan -nan -0.289784 -0.3452 -0.402743 -0.460809 -0.5186 -0.575197 -0.630036 -0.682206 -0.730659 -0.774542 -0.813171 -0.84558 -0.872065 -0.891409 -0.905314 -0.910749 -0.901525 -0.900735 -0.887044 -0.8667 -0.839622 -0.806558 -0.767843 -0.72383 -0.675105 -0.618764 -0.568147 -0.51574 -0.465641 -0.411524 -0.357721 -0.303629 -0.245924 -0.205011 -0.16009 -0.112852 -0.0840709 -0.0554671 -0.0315084 -0.0141245 -0.00355104 -3.82771e-26 -0 -0.00346425 -0.0138024 -0.0308514 -0.0543423 -0.0839047 -0.119072 -0.184515 -0.23039 -0.281236 -0.335334 -0.391125 -0.44716 -0.502992 -0.558219 -0.611587 -0.662137 -0.708476 -0.750728 -0.787948 -0.819355 -0.84468 -0.863044 -0.87702 -0.884679 -0.880193 -0.873026 -0.858218 -0.837773 -0.811181 -0.778686 -0.74109 -0.698761 -0.652661 -0.604497 -0.552132 -0.4914 -0.448479 -0.396841 -0.344929 -0.293637 -0.245046 -0.197494 -0.154959 -0.115813 -0.0811347 -0.0535707 -0.0304624 -0.0136426 -0.0034298 -3.67503e-26 -0 -0.00329586 -0.0131315 -0.0293517 -0.0517008 -0.0798262 -0.113284 -0.175984 -0.219547 -0.267951 -0.319372 -0.372629 -0.426728 -0.480728 -0.532963 -0.583771 -0.632184 -0.676044 -0.716409 -0.751854 -0.782819 -0.806469 -0.824703 -0.853986 -0.839161 -0.837511 -0.830264 -0.815595 -0.795275 -0.769389 -0.738133 -0.702232 -0.662119 -0.618591 -0.572797 -0.524057 -0.473618 -0.423025 -0.367269 -0.327568 -0.278558 -0.231705 -0.157838 -0.1386 -0.110568 -0.077288 -0.0508445 -0.0289344 -0.0129567 -0.00325714 -3.46654e-26 -0 -0.00307549 -0.0122535 -0.0273892 -0.0482439 -0.0744888 -0.10571 -0.165008 -0.205626 -0.250854 -0.299013 -0.34903 -0.400093 -0.451372 -0.500078 -0.547715 -0.593355 -0.635612 -0.674189 -0.708162 -0.736595 -0.758874 -0.776173 -0.780572 -0.783123 -0.781547 -0.774088 -0.759844 -0.74001 -0.715096 -0.685498 -0.65172 -0.614313 -0.57391 -0.531237 -0.486265 -0.439913 -0.393412 -0.34638 -0.292163 -0.259105 -0.213468 -0.160033 -0.123712 -0.100161 -0.0721108 -0.0473388 -0.0269609 -0.0120747 -0.00303495 -3.20551e-26 -0 -0.00280662 -0.0111822 -0.0249947 -0.0440263 -0.0679767 -0.0964684 -0.151855 -0.189083 -0.23058 -0.274872 -0.321036 -0.368285 -0.415879 -0.462038 -0.506661 -0.548818 -0.588 -0.621988 -0.652772 -0.677379 -0.698387 -0.714462 -0.71204 -0.715003 -0.713205 -0.705623 -0.691978 -0.673221 -0.649792 -0.622268 -0.591042 -0.556658 -0.519626 -0.480497 -0.439845 -0.398215 -0.356373 -0.314117 -0.27078 -0.230817 -0.190511 -0.155494 -0.115628 -0.0962156 -0.0659234 -0.0411535 -0.0242427 -0.0110057 -0.00276529 -2.89602e-26 -0 -0.00249349 -0.00993462 -0.022206 -0.0391142 -0.0603926 -0.0857054 -0.13797 -0.171569 -0.208985 -0.249067 -0.291052 -0.333839 -0.375961 -0.41695 -0.456562 -0.494236 -0.529232 -0.559803 -0.586902 -0.609596 -0.628095 -0.64162 -0.634741 -0.635687 -0.633537 -0.62604 -0.612942 -0.595675 -0.574395 -0.549231 -0.520828 -0.489949 -0.456913 -0.422172 -0.386191 -0.349444 -0.312659 -0.275967 -0.238707 -0.199398 -0.450624 -0.137114 -0.104219 -0.67971 -0.0577938 -0.0365947 -0.0230335 -0.0098543 -0.00246501 -2.54288e-26 -0 -0.00214103 -0.00853034 -0.0190672 -0.0335854 -0.051856 -0.0735908 -0.121705 -0.150925 -0.183387 -0.218055 -0.254535 -0.292269 -0.329941 -0.366441 -0.401337 -0.433917 -0.463466 -0.489968 -0.512523 -0.531632 -0.546039 -0.549125 -0.582991 -0.546648 -0.543809 -0.535434 -0.522292 -0.508172 -0.489587 -0.467592 -0.442668 -0.415316 -0.386736 -0.356903 -0.326203 -0.294987 -0.263639 -0.232824 -0.201988 -0.170819 -0.131521 -0.118904 -0.0909891 -0.059061 -0.0458327 -0.0311682 -0.0185547 -0.00839736 -0.00208117 -2.15153e-26 -0 -0.0017548 -0.00699154 -0.0156276 -0.0275269 -nan -nan -0.103711 -0.128694 -0.156443 -0.186059 -0.216782 -0.247859 -0.27872 -0.308873 -0.337963 -0.364738 -0.389035 -0.411446 -0.431006 -0.445802 -0.338207 -0.368126 -0.446783 -0.446477 -0.44228 0.550909 -0.407591 -0.410373 -0.394521 -0.377793 -0.357182 -0.334213 -0.310593 -0.285752 -0.260796 -0.235623 -0.21048 -0.185706 -0.161556 -0.137481 -0.113381 0.0676153 -0.0722733 -0.0525879 -0.0577482 -0.0249681 -0.0057425 0.000959711 -0.00173484 -1.72794e-26 -0 -0.00134091 -0.00534248 -0.0119416 -0.0210342 -nan -nan -0.082523 -0.103026 -0.125197 -0.149013 -0.173845 -0.198956 -0.223784 -0.247531 -0.268703 -0.281837 -0.289819 -0.300101 -0.312061 -0.325768 -0.360074 -0.40061 -0.351934 -0.342836 -0.338907 -0.330255 -0.316374 -0.0162882 -0.279841 -0.278038 -0.263805 -0.24703 -0.229377 -0.210229 -0.191016 -0.172286 -0.15377 -0.1356 -0.118176 -0.101006 -0.0837136 -0.0501412 -0.0503245 -0.0400371 -0.0175131 -0.0182501 -0.00914987 -0.00250574 0.00431388 -1.27891e-26 -0 -0.000905861 -0.00360916 -nan -nan -0.0331015 -0.0467642 -0.0615504 -0.0770806 -0.0935624 -0.111172 -0.129431 -0.147709 -0.165318 -0.179871 -0.187942 -0.196406 -0.205564 -0.214794 -0.222499 -0.229845 -0.238176 -0.240877 -0.235825 -0.244133 -0.22891 -0.223067 -0.214404 -0.199266 -0.190291 0.200426 -0.159292 -0.152995 -0.142882 -0.131169 -0.118331 -0.105977 -0.0944031 -0.0832447 -0.0725528 -0.0622986 -0.0520416 -0.042446 -0.0309364 -0.0245856 -0.0153312 -0.0115046 -0.0064719 -0.00278117 -0.000145927 -8.112e-27 -0 -nan -nan -nan -nan -0.0215079 -0.0300682 -0.0395368 -0.0495795 -0.0601576 -0.0714406 -0.0830597 -0.0944966 -0.104956 -0.110741 -0.111467 -0.122585 -0.12863 -0.132494 -0.133987 -0.132821 -0.131135 -0.128248 -0.123381 -0.120129 -0.110645 -0.11063 -0.105662 -0.0937436 -0.0861403 -0.0784879 -0.0659759 -0.04893 -0.0530475 -0.0490062 -0.0434528 -0.0379893 -0.0333153 -0.0293748 -0.0258059 -0.0225723 -0.0192745 -0.0160447 -0.0150665 -0.0101657 -0.00651066 -0.00447504 -0.00280439 -0.00129523 -0.000321485 -3.21637e-27 0 -nan -nan -nan -nan -nan -nan -0.0167566 -0.0214016 -0.0261545 -0.031118 -0.0360909 -0.040893 -0.0453921 -0.0491989 -0.0498416 -0.0515602 -0.0511562 -0.0492032 -0.0451641 -0.0370024 -0.0292116 -0.0207218 -0.0127001 -0.00603423 0.00100646 0.00385839 33.1192 0.017012 0.021693 0.0248922 0.0280152 0.512199 0.0365378 0.0352948 0.0331921 0.0309584 0.0283947 0.0250763 0.0214061 0.0176014 0.0140534 0.0108519 0.00836051 0.00592682 0.0050527 0.0020827 0.00106887 0.000444548 9.27907e-05 1.17574e-27 0 -nan -nan -nan -nan -nan -nan -nan -nan 0.00847802 0.0109467 0.0114458 0.0134435 0.0160406 0.0185427 0.0215961 0.0263623 0.0325054 0.0399556 0.0479028 0.0580703 0.0689695 0.0807949 0.0925374 0.10138 0.11325 0.0267616 0.125485 0.363665 0.132574 0.129257 0.126826 0.123785 19.9541 0.126308 0.110927 0.100119 0.0899871 0.0793882 0.0685011 0.0576729 0.0472766 0.0376955 0.0292682 0.0202945 0.0149267 0.00913335 0.00509799 0.00227028 0.000559609 5.72317e-27 0 0.000905861 0.00360916 0.00806726 0.0142099 0.0219401 0.031136 0.0416526 -nan -nan -nan 0.0566456 0.0661241 0.0754417 0.0813964 0.0909236 0.100017 0.0643013 0.129633 0.140957 0.157057 0.171846 0.18674 0.201928 0.212584 0.22056 0.235833 0.236439 0.249337 0.246192 0.424608 2.30648 0.39593 0.204152 0.409307 0.187837 0.168116 0.150448 0.132663 0.114707 0.0969699 0.0799108 0.0641232 0.0499296 0.0344008 0.0261855 0.0166721 0.00912726 0.00407801 0.00103412 1.03694e-26 0 0.00134091 0.00534248 0.0119416 0.0210342 0.0324769 0.0460893 0.0616565 0.0789333 0.097647 -nan -nan -nan 0.132959 0.16248 0.155161 0.199237 -nan 0.218171 0.227933 0.253802 0.269786 0.289833 0.307712 0.320698 0.332385 0.356272 1.00919 0.347805 0.341167 0.332986 0.322519 0.315563 0.298393 0.282545 0.26121 0.234122 0.208694 0.184022 0.159274 0.134878 0.11142 0.0896478 0.069934 0.0520584 0.0369572 0.0250746 0.0128585 0.00588675 0.00150378 1.49846e-26 0 0.0017548 0.00699154 0.0156276 0.0275269 0.0425016 0.0603156 0.0806881 0.103298 0.127788 0.153772 0.180841 -nan 0.199392 0.393383 0.266772 0.335081 -nan 0.311055 0.315999 0.352527 0.36079 0.390294 0.409647 0.423956 0.438504 0.453428 0.59079 0.447156 0.438463 0.428145 0.413836 0.391324 0.373318 0.34998 0.489008 0.295591 0.263659 0.232614 0.201497 0.170798 0.141251 0.113781 0.088861 0.0664604 0.0473416 0.0311883 0.0165183 0.00756068 0.00194169 1.93684e-26 0 0.00214103 0.00853034 0.0190672 0.0335854 0.051856 0.0735908 0.0984471 0.126033 0.155913 0.187617 0.220643 0.254472 0.252156 0.262091 0.335144 0.368378 -nan 0.399578 0.42229 0.451006 0.457825 0.48762 0.505739 0.521168 0.537489 0.556504 0.605276 0.544147 0.537233 0.533015 0.515554 0.465098 0.447971 0.417409 1.24763 0.351851 0.314651 0.277698 0.240711 0.204163 0.168936 0.136153 0.106411 0.080878 0.0571759 0.0362107 0.020027 0.00914973 0.00236385 2.35121e-26 0 0.00249349 0.00993462 0.022206 0.0391142 0.0603926 0.0857054 0.114654 0.146781 0.18158 0.218502 0.256966 0.296364 0.312008 0.347443 0.390872 0.425361 -nan 0.472205 0.500372 0.53195 0.558739 0.578932 0.595207 0.611366 0.627637 0.646999 0.680722 0.625046 0.611239 0.600616 0.637298 0.546823 0.514597 0.478986 0.438252 0.404494 0.361221 0.318669 0.276297 0.234448 0.194098 0.156526 0.122444 0.0940743 0.0668704 0.0408708 0.0230691 0.0106045 0.00274921 2.72819e-26 0 0.00280662 0.0111822 0.0249947 0.0440263 0.0679767 0.0964684 0.129052 0.165213 0.204383 0.245942 0.289236 0.333582 -nan -nan -nan 0.47127 0.508017 0.542187 0.573074 0.607599 0.632919 0.657236 0.676715 0.69287 0.707651 0.726633 0.693542 0.706186 0.714171 0.670143 0.640676 0.608692 -nan -nan -nan 0.455039 0.4029 0.354914 0.307685 0.261173 0.216333 0.174571 0.136721 0.105761 0.0754483 0.0463237 0.0258726 0.0119117 0.00309504 3.06525e-26 0 0.00307549 0.0122535 0.0273892 0.0482439 0.0744888 0.10571 0.141415 0.181041 0.223963 0.269503 0.316945 0.365539 -nan -nan -nan 0.520072 0.560719 0.603247 0.634367 0.673928 0.700361 0.726639 0.746643 0.762669 0.777415 0.792935 0.811355 0.856946 0.751235 0.729333 0.707152 0.672714 -nan -nan -nan 0.504759 0.438646 0.385746 0.334371 0.283919 0.235306 0.190052 0.14915 0.115629 0.0828258 0.0503187 0.0283939 0.0131233 0.00341004 3.35562e-26 0 0.00329586 0.0131315 0.0293517 0.0517008 0.0798262 0.113284 0.151548 0.194013 0.24001 0.288814 0.339655 0.391731 0.444221 0.496296 0.547137 0.570866 0.615017 0.654646 0.698092 0.729501 0.75739 0.784608 0.805142 0.820903 0.834214 0.84806 0.869498 0.960494 0.80486 0.742349 0.718572 0.689278 0.641938 0.595941 0.547137 0.544161 0.466935 0.410561 0.355951 0.302326 0.250772 0.20282 0.159689 0.123868 0.0892061 0.0532053 0.0304544 0.0140598 0.00369829 3.59405e-26 0 0.00346425 0.0138024 0.0308514 0.0543423 0.0839047 0.119072 0.159291 0.203926 0.252273 0.30357 0.357008 0.411745 0.466917 0.521653 0.575092 0.606038 0.643903 0.696325 0.769347 0.771192 0.802293 0.830103 0.851141 0.866386 0.877831 0.889631 0.910645 1.21997 0.829907 0.80123 0.794056 0.755527 0.674736 0.626389 0.575092 0.557545 0.487586 0.429106 0.372132 0.316077 0.262473 0.212725 0.168294 0.130914 0.0951091 0.0555112 0.0326871 0.0143383 0.00390467 3.7752e-26 0 0.00357801 0.0142556 0.0318644 0.0561268 0.08666 0.122983 0.164522 0.210622 0.260557 0.313539 0.368732 0.425266 0.482249 0.538783 0.593976 -nan -nan -nan -nan 0.790615 0.833467 0.86332 0.884174 0.898479 0.907743 0.916952 0.938016 0.786388 0.854753 0.82575 0.812872 0.777115 0.696893 0.646958 0.593976 0.561549 0.500428 0.441679 0.383229 0.325268 0.270132 0.219291 0.175286 0.137039 0.0992244 0.0571587 0.0344562 0.01451 0.0039647 3.89619e-26 0 0.00363535 0.014484 0.032375 0.0570261 0.0880486 0.124953 0.167158 0.213997 0.264732 0.318563 0.37464 0.43208 0.489976 0.547416 0.603494 -nan -nan -nan -nan 0.815634 0.854302 0.88281 0.903573 0.916896 0.923621 0.924919 0.920409 0.905605 -nan -nan -nan -nan 0.70806 0.657325 -nan 0.563318 0.504167 0.44546 0.386629 0.328468 0.273073 0.221734 0.184596 0.143545 0.0954165 0.0579013 0.0341094 0.0148443 0.003983 3.95688e-26 0 0.00363535 0.014484 0.032375 0.0570261 0.0880486 0.124953 0.167158 0.213997 0.264732 0.318563 0.37464 0.43208 0.489976 0.547416 0.603494 0.657325 0.70806 0.754899 0.797103 -nan -nan 0.883812 0.904233 0.917275 0.923677 0.924924 0.919717 0.905697 -nan -nan -nan -nan 0.70806 0.657325 -nan 0.563818 0.503778 0.445136 0.386386 0.328532 0.273479 0.222778 0.191623 0.140217 0.089196 0.057976 0.0331072 0.0154207 0.00410641 3.95549e-26 0 0.00357801 0.0142556 0.0318644 0.0561268 0.08666 0.122983 0.164522 0.210622 0.260557 0.313539 0.368732 0.425266 0.482249 0.538783 0.593976 0.646958 0.696893 0.742993 0.784533 -nan -nan 0.882128 0.900867 0.911704 0.912753 0.896857 1.02072 -nan 0.851388 0.820855 0.784533 0.742993 0.696893 -nan 0.617446 0.553229 0.494291 0.436255 0.37851 0.322015 0.268841 0.223731 0.172428 0.124863 0.0876779 0.0570669 0.032516 0.0152604 0.00408646 3.89245e-26 0 0.00346425 0.0138024 0.0308514 0.0543423 0.0839047 0.119072 0.159291 0.203926 0.252273 0.30357 0.357008 0.411745 0.466917 0.521653 0.575092 0.626389 0.674736 0.719371 0.759589 0.794757 0.824319 0.860654 0.874316 0.883869 0.884403 0.854399 0.956147 -nan 0.824319 0.794757 0.759589 0.719371 0.674736 -nan 0.589132 0.53302 0.477393 0.421235 0.365275 0.310964 0.259987 0.21854 0.175487 0.120693 0.0848726 0.0562292 0.0321698 0.0148765 0.00395272 3.76871e-26 0 0.00329586 0.0131315 0.0293517 0.0517008 0.0798262 0.113284 0.151548 0.194013 0.24001 0.288814 0.339655 0.391731 0.444221 0.496296 0.547137 0.595941 0.641938 0.684403 0.722667 0.756125 0.78425 0.822683 0.837838 0.846769 0.844452 0.788671 0.919186 -nan -nan 0.756125 -nan -nan -n