<?xml version="1.0"?>
<VTKFile type="PolyData">
	<PolyData>
		<Piece NumberOfPoints="2601" NumberOfPolys="2500">
			<Points>
				<DataArray type="Float32" NumberOfComponents="3" format="ascii">
 0 0 0 0.02 0 0 0.04 0 0 0.06 0 0 0.08 0 0 0.1 0 0 0.12 0 0 0.14 0 0 0.16 0 0 0.18 0 0 0.2 0 0 0.22 0 0 0.24 0 0 0.26 0 0 0.28 0 0 0.3 0 0 0.32 0 0 0.34 0 0 0.36 0 0 0.38 0 0 0.4 0 0 0.42 0 0 0.44 0 0 0.46 0 0 0.48 0 0 0.5 0 0 0.52 0 0 0.54 0 0 0.56 0 0 0.58 0 0 0.6 0 0 0.62 0 0 0.64 0 0 0.66 0 0 0.68 0 0 0.7 0 0 0.72 0 0 0.74 0 0 0.76 0 0 0.78 0 0 0.8 0 0 0.82 0 0 0.84 0 0 0.86 0 0 0.88 0 0 0.9 0 0 0.92 0 0 0.94 0 0 0.96 0 0 0.98 0 0 1 0 0 0 0.02 0 0.02 0.02 0 0.04 0.02 0 0.06 0.02 0 0.08 0.02 0 0.1 0.02 0 0.12 0.02 0 0.14 0.02 0 0.16 0.02 0 0.18 0.02 0 0.2 0.02 0 0.22 0.02 0 0.24 0.02 0 0.26 0.02 0 0.28 0.02 0 0.3 0.02 0 0.32 0.02 0 0.34 0.02 0 0.36 0.02 0 0.38 0.02 0 0.4 0.02 0 0.42 0.02 0 0.44 0.02 0 0.46 0.02 0 0.48 0.02 0 0.5 0.02 0 0.52 0.02 0 0.54 0.02 0 0.56 0.02 0 0.58 0.02 0 0.6 0.02 0 0.62 0.02 0 0.64 0.02 0 0.66 0.02 0 0.68 0.02 0 0.7 0.02 0 0.72 0.02 0 0.74 0.02 0 0.76 0.02 0 0.78 0.02 0 0.8 0.02 0 0.82 0.02 0 0.84 0.02 0 0.86 0.02 0 0.88 0.02 0 0.9 0.02 0 0.92 0.02 0 0.94 0.02 0 0.96 0.02 0 0.98 0.02 0 1 0.02 0 0 0.04 0 0.02 0.04 0 0.04 0.04 0 0.06 0.04 0 0.08 0.04 0 0.1 0.04 0 0.12 0.04 0 0.14 0.04 0 0.16 0.04 0 0.18 0.04 0 0.2 0.04 0 0.22 0.04 0 0.24 0.04 0 0.26 0.04 0 0.28 0.04 0 0.3 0.04 0 0.32 0.04 0 0.34 0.04 0 0.36 0.04 0 0.38 0.04 0 0.4 0.04 0 0.42 0.04 0 0.44 0.04 0 0.46 0.04 0 0.48 0.04 0 0.5 0.04 0 0.52 0.04 0 0.54 0.04 0 0.56 0.04 0 0.58 0.04 0 0.6 0.04 0 0.62 0.04 0 0.64 0.04 0 0.66 0.04 0 0.68 0.04 0 0.7 0.04 0 0.72 0.04 0 0.74 0.04 0 0.76 0.04 0 0.78 0.04 0 0.8 0.04 0 0.82 0.04 0 0.84 0.04 0 0.86 0.04 0 0.88 0.04 0 0.9 0.04 0 0.92 0.04 0 0.94 0.04 0 0.96 0.04 0 0.98 0.04 0 1 0.04 0 0 0.06 0 0.02 0.06 0 0.04 0.06 0 0.06 0.06 0 0.08 0.06 0 0.1 0.06 0 0.12 0.06 0 0.14 0.06 0 0.16 0.06 0 0.18 0.06 0 0.2 0.06 0 0.22 0.06 0 0.24 0.06 0 0.26 0.06 0 0.28 0.06 0 0.3 0.06 0 0.32 0.06 0 0.34 0.06 0 0.36 0.06 0 0.38 0.06 0 0.4 0.06 0 0.42 0.06 0 0.44 0.06 0 0.46 0.06 0 0.48 0.06 0 0.5 0.06 0 0.52 0.06 0 0.54 0.06 0 0.56 0.06 0 0.58 0.06 0 0.6 0.06 0 0.62 0.06 0 0.64 0.06 0 0.66 0.06 0 0.68 0.06 0 0.7 0.06 0 0.72 0.06 0 0.74 0.06 0 0.76 0.06 0 0.78 0.06 0 0.8 0.06 0 0.82 0.06 0 0.84 0.06 0 0.86 0.06 0 0.88 0.06 0 0.9 0.06 0 0.92 0.06 0 0.94 0.06 0 0.96 0.06 0 0.98 0.06 0 1 0.06 0 0 0.08 0 0.02 0.08 0 0.04 0.08 0 0.06 0.08 0 0.08 0.08 0 0.1 0.08 0 0.12 0.08 0 0.14 0.08 0 0.16 0.08 0 0.18 0.08 0 0.2 0.08 0 0.22 0.08 0 0.24 0.08 0 0.26 0.08 0 0.28 0.08 0 0.3 0.08 0 0.32 0.08 0 0.34 0.08 0 0.36 0.08 0 0.38 0.08 0 0.4 0.08 0 0.42 0.08 0 0.44 0.08 0 0.46 0.08 0 0.48 0.08 0 0.5 0.08 0 0.52 0.08 0 0.54 0.08 0 0.56 0.08 0 0.58 0.08 0 0.6 0.08 0 0.62 0.08 0 0.64 0.08 0 0.66 0.08 0 0.68 0.08 0 0.7 0.08 0 0.72 0.08 0 0.74 0.08 0 0.76 0.08 0 0.78 0.08 0 0.8 0.08 0 0.82 0.08 0 0.84 0.08 0 0.86 0.08 0 0.88 0.08 0 0.9 0.08 0 0.92 0.08 0 0.94 0.08 0 0.96 0.08 0 0.98 0.08 0 1 0.08 0 0 0.1 0 0.02 0.1 0 0.04 0.1 0 0.06 0.1 0 0.08 0.1 0 0.1 0.1 0 0.12 0.1 0 0.14 0.1 0 0.16 0.1 0 0.18 0.1 0 0.2 0.1 0 0.22 0.1 0 0.24 0.1 0 0.26 0.1 0 0.28 0.1 0 0.3 0.1 0 0.32 0.1 0 0.34 0.1 0 0.36 0.1 0 0.38 0.1 0 0.4 0.1 0 0.42 0.1 0 0.44 0.1 0 0.46 0.1 0 0.48 0.1 0 0.5 0.1 0 0.52 0.1 0 0.54 0.1 0 0.56 0.1 0 0.58 0.1 0 0.6 0.1 0 0.62 0.1 0 0.64 0.1 0 0.66 0.1 0 0.68 0.1 0 0.7 0.1 0 0.72 0.1 0 0.74 0.1 0 0.76 0.1 0 0.78 0.1 0 0.8 0.1 0 0.82 0.1 0 0.84 0.1 0 0.86 0.1 0 0.88 0.1 0 0.9 0.1 0 0.92 0.1 0 0.94 0.1 0 0.96 0.1 0 0.98 0.1 0 1 0.1 0 0 0.12 0 0.02 0.12 0 0.04 0.12 0 0.06 0.12 0 0.08 0.12 0 0.1 0.12 0 0.12 0.12 0 0.14 0.12 0 0.16 0.12 0 0.18 0.12 0 0.2 0.12 0 0.22 0.12 0 0.24 0.12 0 0.26 0.12 0 0.28 0.12 0 0.3 0.12 0 0.32 0.12 0 0.34 0.12 0 0.36 0.12 0 0.38 0.12 0 0.4 0.12 0 0.42 0.12 0 0.44 0.12 0 0.46 0.12 0 0.48 0.12 0 0.5 0.12 0 0.52 0.12 0 0.54 0.12 0 0.56 0.12 0 0.58 0.12 0 0.6 0.12 0 0.62 0.12 0 0.64 0.12 0 0.66 0.12 0 0.68 0.12 0 0.7 0.12 0 0.72 0.12 0 0.74 0.12 0 0.76 0.12 0 0.78 0.12 0 0.8 0.12 0 0.82 0.12 0 0.84 0.12 0 0.86 0.12 0 0.88 0.12 0 0.9 0.12 0 0.92 0.12 0 0.94 0.12 0 0.96 0.12 0 0.98 0.12 0 1 0.12 0 0 0.14 0 0.02 0.14 0 0.04 0.14 0 0.06 0.14 0 0.08 0.14 0 0.1 0.14 0 0.12 0.14 0 0.14 0.14 0 0.16 0.14 0 0.18 0.14 0 0.2 0.14 0 0.22 0.14 0 0.24 0.14 0 0.26 0.14 0 0.28 0.14 0 0.3 0.14 0 0.32 0.14 0 0.34 0.14 0 0.36 0.14 0 0.38 0.14 0 0.4 0.14 0 0.42 0.14 0 0.44 0.14 0 0.46 0.14 0 0.48 0.14 0 0.5 0.14 0 0.52 0.14 0 0.54 0.14 0 0.56 0.14 0 0.58 0.14 0 0.6 0.14 0 0.62 0.14 0 0.64 0.14 0 0.66 0.14 0 0.68 0.14 0 0.7 0.14 0 0.72 0.14 0 0.74 0.14 0 0.76 0.14 0 0.78 0.14 0 0.8 0.14 0 0.82 0.14 0 0.84 0.14 0 0.86 0.14 0 0.88 0.14 0 0.9 0.14 0 0.92 0.14 0 0.94 0.14 0 0.96 0.14 0 0.98 0.14 0 1 0.14 0 0 0.16 0 0.02 0.16 0 0.04 0.16 0 0.06 0.16 0 0.08 0.16 0 0.1 0.16 0 0.12 0.16 0 0.14 0.16 0 0.16 0.16 0 0.18 0.16 0 0.2 0.16 0 0.22 0.16 0 0.24 0.16 0 0.26 0.16 0 0.28 0.16 0 0.3 0.16 0 0.32 0.16 0 0.34 0.16 0 0.36 0.16 0 0.38 0.16 0 0.4 0.16 0 0.42 0.16 0 0.44 0.16 0 0.46 0.16 0 0.48 0.16 0 0.5 0.16 0 0.52 0.16 0 0.54 0.16 0 0.56 0.16 0 0.58 0.16 0 0.6 0.16 0 0.62 0.16 0 0.64 0.16 0 0.66 0.16 0 0.68 0.16 0 0.7 0.16 0 0.72 0.16 0 0.74 0.16 0 0.76 0.16 0 0.78 0.16 0 0.8 0.16 0 0.82 0.16 0 0.84 0.16 0 0.86 0.16 0 0.88 0.16 0 0.9 0.16 0 0.92 0.16 0 0.94 0.16 0 0.96 0.16 0 0.98 0.16 0 1 0.16 0 0 0.18 0 0.02 0.18 0 0.04 0.18 0 0.06 0.18 0 0.08 0.18 0 0.1 0.18 0 0.12 0.18 0 0.14 0.18 0 0.16 0.18 0 0.18 0.18 0 0.2 0.18 0 0.22 0.18 0 0.24 0.18 0 0.26 0.18 0 0.28 0.18 0 0.3 0.18 0 0.32 0.18 0 0.34 0.18 0 0.36 0.18 0 0.38 0.18 0 0.4 0.18 0 0.42 0.18 0 0.44 0.18 0 0.46 0.18 0 0.48 0.18 0 0.5 0.18 0 0.52 0.18 0 0.54 0.18 0 0.56 0.18 0 0.58 0.18 0 0.6 0.18 0 0.62 0.18 0 0.64 0.18 0 0.66 0.18 0 0.68 0.18 0 0.7 0.18 0 0.72 0.18 0 0.74 0.18 0 0.76 0.18 0 0.78 0.18 0 0.8 0.18 0 0.82 0.18 0 0.84 0.18 0 0.86 0.18 0 0.88 0.18 0 0.9 0.18 0 0.92 0.18 0 0.94 0.18 0 0.96 0.18 0 0.98 0.18 0 1 0.18 0 0 0.2 0 0.02 0.2 0 0.04 0.2 0 0.06 0.2 0 0.08 0.2 0 0.1 0.2 0 0.12 0.2 0 0.14 0.2 0 0.16 0.2 0 0.18 0.2 0 0.2 0.2 0 0.22 0.2 0 0.24 0.2 0 0.26 0.2 0 0.28 0.2 0 0.3 0.2 0 0.32 0.2 0 0.34 0.2 0 0.36 0.2 0 0.38 0.2 0 0.4 0.2 0 0.42 0.2 0 0.44 0.2 0 0.46 0.2 0 0.48 0.2 0 0.5 0.2 0 0.52 0.2 0 0.54 0.2 0 0.56 0.2 0 0.58 0.2 0 0.6 0.2 0 0.62 0.2 0 0.64 0.2 0 0.66 0.2 0 0.68 0.2 0 0.7 0.2 0 0.72 0.2 0 0.74 0.2 0 0.76 0.2 0 0.78 0.2 0 0.8 0.2 0 0.82 0.2 0 0.84 0.2 0 0.86 0.2 0 0.88 0.2 0 0.9 0.2 0 0.92 0.2 0 0.94 0.2 0 0.96 0.2 0 0.98 0.2 0 1 0.2 0 0 0.22 0 0.02 0.22 0 0.04 0.22 0 0.06 0.22 0 0.08 0.22 0 0.1 0.22 0 0.12 0.22 0 0.14 0.22 0 0.16 0.22 0 0.18 0.22 0 0.2 0.22 0 0.22 0.22 0 0.24 0.22 0 0.26 0.22 0 0.28 0.22 0 0.3 0.22 0 0.32 0.22 0 0.34 0.22 0 0.36 0.22 0 0.38 0.22 0 0.4 0.22 0 0.42 0.22 0 0.44 0.22 0 0.46 0.22 0 0.48 0.22 0 0.5 0.22 0 0.52 0.22 0 0.54 0.22 0 0.56 0.22 0 0.58 0.22 0 0.6 0.22 0 0.62 0.22 0 0.64 0.22 0 0.66 0.22 0 0.68 0.22 0 0.7 0.22 0 0.72 0.22 0 0.74 0.22 0 0.76 0.22 0 0.78 0.22 0 0.8 0.22 0 0.82 0.22 0 0.84 0.22 0 0.86 0.22 0 0.88 0.22 0 0.9 0.22 0 0.92 0.22 0 0.94 0.22 0 0.96 0.22 0 0.98 0.22 0 1 0.22 0 0 0.24 0 0.02 0.24 0 0.04 0.24 0 0.06 0.24 0 0.08 0.24 0 0.1 0.24 0 0.12 0.24 0 0.14 0.24 0 0.16 0.24 0 0.18 0.24 0 0.2 0.24 0 0.22 0.24 0 0.24 0.24 0 0.26 0.24 0 0.28 0.24 0 0.3 0.24 0 0.32 0.24 0 0.34 0.24 0 0.36 0.24 0 0.38 0.24 0 0.4 0.24 0 0.42 0.24 0 0.44 0.24 0 0.46 0.24 0 0.48 0.24 0 0.5 0.24 0 0.52 0.24 0 0.54 0.24 0 0.56 0.24 0 0.58 0.24 0 0.6 0.24 0 0.62 0.24 0 0.64 0.24 0 0.66 0.24 0 0.68 0.24 0 0.7 0.24 0 0.72 0.24 0 0.74 0.24 0 0.76 0.24 0 0.78 0.24 0 0.8 0.24 0 0.82 0.24 0 0.84 0.24 0 0.86 0.24 0 0.88 0.24 0 0.9 0.24 0 0.92 0.24 0 0.94 0.24 0 0.96 0.24 0 0.98 0.24 0 1 0.24 0 0 0.26 0 0.02 0.26 0 0.04 0.26 0 0.06 0.26 0 0.08 0.26 0 0.1 0.26 0 0.12 0.26 0 0.14 0.26 0 0.16 0.26 0 0.18 0.26 0 0.2 0.26 0 0.22 0.26 0 0.24 0.26 0 0.26 0.26 0 0.28 0.26 0 0.3 0.26 0 0.32 0.26 0 0.34 0.26 0 0.36 0.26 0 0.38 0.26 0 0.4 0.26 0 0.42 0.26 0 0.44 0.26 0 0.46 0.26 0 0.48 0.26 0 0.5 0.26 0 0.52 0.26 0 0.54 0.26 0 0.56 0.26 0 0.58 0.26 0 0.6 0.26 0 0.62 0.26 0 0.64 0.26 0 0.66 0.26 0 0.68 0.26 0 0.7 0.26 0 0.72 0.26 0 0.74 0.26 0 0.76 0.26 0 0.78 0.26 0 0.8 0.26 0 0.82 0.26 0 0.84 0.26 0 0.86 0.26 0 0.88 0.26 0 0.9 0.26 0 0.92 0.26 0 0.94 0.26 0 0.96 0.26 0 0.98 0.26 0 1 0.26 0 0 0.28 0 0.02 0.28 0 0.04 0.28 0 0.06 0.28 0 0.08 0.28 0 0.1 0.28 0 0.12 0.28 0 0.14 0.28 0 0.16 0.28 0 0.18 0.28 0 0.2 0.28 0 0.22 0.28 0 0.24 0.28 0 0.26 0.28 0 0.28 0.28 0 0.3 0.28 0 0.32 0.28 0 0.34 0.28 0 0.36 0.28 0 0.38 0.28 0 0.4 0.28 0 0.42 0.28 0 0.44 0.28 0 0.46 0.28 0 0.48 0.28 0 0.5 0.28 0 0.52 0.28 0 0.54 0.28 0 0.56 0.28 0 0.58 0.28 0 0.6 0.28 0 0.62 0.28 0 0.64 0.28 0 0.66 0.28 0 0.68 0.28 0 0.7 0.28 0 0.72 0.28 0 0.74 0.28 0 0.76 0.28 0 0.78 0.28 0 0.8 0.28 0 0.82 0.28 0 0.84 0.28 0 0.86 0.28 0 0.88 0.28 0 0.9 0.28 0 0.92 0.28 0 0.94 0.28 0 0.96 0.28 0 0.98 0.28 0 1 0.28 0 0 0.3 0 0.02 0.3 0 0.04 0.3 0 0.06 0.3 0 0.08 0.3 0 0.1 0.3 0 0.12 0.3 0 0.14 0.3 0 0.16 0.3 0 0.18 0.3 0 0.2 0.3 0 0.22 0.3 0 0.24 0.3 0 0.26 0.3 0 0.28 0.3 0 0.3 0.3 0 0.32 0.3 0 0.34 0.3 0 0.36 0.3 0 0.38 0.3 0 0.4 0.3 0 0.42 0.3 0 0.44 0.3 0 0.46 0.3 0 0.48 0.3 0 0.5 0.3 0 0.52 0.3 0 0.54 0.3 0 0.56 0.3 0 0.58 0.3 0 0.6 0.3 0 0.62 0.3 0 0.64 0.3 0 0.66 0.3 0 0.68 0.3 0 0.7 0.3 0 0.72 0.3 0 0.74 0.3 0 0.76 0.3 0 0.78 0.3 0 0.8 0.3 0 0.82 0.3 0 0.84 0.3 0 0.86 0.3 0 0.88 0.3 0 0.9 0.3 0 0.92 0.3 0 0.94 0.3 0 0.96 0.3 0 0.98 0.3 0 1 0.3 0 0 0.32 0 0.02 0.32 0 0.04 0.32 0 0.06 0.32 0 0.08 0.32 0 0.1 0.32 0 0.12 0.32 0 0.14 0.32 0 0.16 0.32 0 0.18 0.32 0 0.2 0.32 0 0.22 0.32 0 0.24 0.32 0 0.26 0.32 0 0.28 0.32 0 0.3 0.32 0 0.32 0.32 0 0.34 0.32 0 0.36 0.32 0 0.38 0.32 0 0.4 0.32 0 0.42 0.32 0 0.44 0.32 0 0.46 0.32 0 0.48 0.32 0 0.5 0.32 0 0.52 0.32 0 0.54 0.32 0 0.56 0.32 0 0.58 0.32 0 0.6 0.32 0 0.62 0.32 0 0.64 0.32 0 0.66 0.32 0 0.68 0.32 0 0.7 0.32 0 0.72 0.32 0 0.74 0.32 0 0.76 0.32 0 0.78 0.32 0 0.8 0.32 0 0.82 0.32 0 0.84 0.32 0 0.86 0.32 0 0.88 0.32 0 0.9 0.32 0 0.92 0.32 0 0.94 0.
[...]
			<PointData Scalars="VitesseX">
				<DataArray Name="VitesseX" type="Float32" format="ascii">
 0 0 0 0 0 0 0 0 0 0 0 0 0 0 0 0 0 0 0 0 0 0 0 0 0 0 0 0 0 0 0 0 0 0 0 0 0 0 0 0 0 0 0 0 0 0 0 0 0 0 0 0 0.000514657 0.00206297 0.00452454 0.00805018 0.0120969 0.0172554 0.0231755 0.0292825 0.0361498 0.0434088 0.0519696 0.0600315 0.0683017 0.0766579 0.0846579 0.092164 0.099145 0.105387 0.110844 0.115356 0.118512 0.12096 0.123273 0.125126 0.12533 0.124511 0.123127 0.120798 0.116455 0.100796 0.0892086 0.102394 0.0959757 0.0891057 0.0818604 0.0743184 0.0665355 0.0587075 0.0509021 0.0432374 0.0359652 0.0291055 0.0227976 0.0170676 0.0120584 0.00784034 0.00447376 0.00201122 0.000508874 5.35025e-27 0 0.00100369 0.00400975 0.00888655 0.0156613 0.0237312 0.0337557 0.0452631 0.0578701 0.0715094 0.0839546 0.101136 0.116813 0.132868 0.14883 0.164239 0.178906 0.19272 0.205579 0.217448 0.227394 0.234318 0.239443 0.243311 0.247102 0.24807 0.245519 0.24009 0.23916 0.233508 0.224988 0.215154 0.203956 0.190775 0.1666 0.152993 0.160985 0.132279 0.116463 0.101121 0.0860919 0.0716022 0.0578937 0.0452132 0.0338291 0.0238809 0.015518 0.00885034 0.0039873 0.00101102 1.06169e-26 0 0.00146973 0.00585212 0.0130566 0.0230208 0.0350347 0.0496009 0.0665134 0.086177 0.107175 0.122146 0.148763 0.171563 0.195136 0.218284 0.240608 0.26221 0.282612 0.301315 0.320312 0.336671 0.347561 0.354904 0.360885 0.365728 0.367222 0.366158 0.361298 0.350456 0.320988 0.3277 0.319137 0.301831 0.283658 0.263599 0.24221 0.220024 0.196278 0.178581 0.222139 0.126986 0.106011 0.0857321 0.0670494 0.0502241 0.0355192 0.0231388 0.0132252 0.00593008 0.00150539 1.57126e-26 0 0.00190938 0.00761428 0.0169743 0.0299496 0.0459742 0.0646237 0.0849629 0.112834 0.140917 0.166087 0.194724 0.221971 0.253157 0.284089 0.313182 0.341399 0.368133 0.390503 0.412225 0.43349 0.450658 0.464274 0.474597 0.481205 0.481296 0.479161 0.473955 0.465588 0.451343 0.430566 0.390614 0.371745 0.371871 0.344363 0.316842 0.289167 0.258207 0.226959 0.196673 0.140827 0.121272 0.113194 0.0881077 0.065982 0.046685 0.0301254 0.0168819 0.00759699 0.00191665 2.05667e-26 0 0.00231887 0.00925064 0.0206145 0.0348973 0.0557749 0.079234 0.103874 0.138232 0.167401 0.202091 0.237627 0.270783 0.31099 0.346733 0.380608 0.414955 0.447405 0.475727 0.501518 0.528443 0.548664 0.564713 0.576752 0.584526 0.586585 0.585063 0.578599 0.567726 0.551121 0.530882 0.507965 0.491107 0.449359 0.419496 0.386687 0.353248 0.315575 0.276625 0.23972 0.203799 0.194897 0.158809 0.106459 0.0802461 0.0565298 0.0365537 0.0207699 0.00933791 0.00235696 2.5087e-26 0 0.00269252 0.0107296 0.0239315 0.0401014 0.0647681 0.0924938 0.123652 0.159967 0.196147 0.235267 0.27686 0.318533 0.346328 0.407038 0.454369 0.492575 0.526048 0.557048 0.584638 0.613201 0.636889 0.656112 0.670456 0.67983 0.683035 0.681895 0.674922 0.662663 0.643599 0.623809 0.597639 0.564421 0.486125 0.529484 0.452924 0.409401 0.369973 0.32394 0.280471 0.238778 0.197848 0.183978 0.167902 0.0926615 0.065639 0.0425655 0.0242461 0.0109335 0.00275548 2.92113e-26 0 0.00302434 0.0120367 0.0268549 0.046656 0.0731591 0.104093 0.13887 0.178856 0.220089 0.263918 0.310461 0.358734 0.390702 0.456016 0.502234 0.544601 0.585309 0.62359 0.65711 0.688135 0.715172 0.73742 0.753811 0.764804 0.768666 0.767555 0.759879 0.74716 0.72856 0.703761 0.672546 0.633335 0.595065 0.550366 0.525647 0.664872 0.412471 0.374864 0.319863 0.269357 0.223794 0.181806 0.142601 0.106224 0.0738438 0.047987 0.0272469 0.0121446 0.00304991 3.28941e-26 0 0.00330937 0.0131696 0.0293941 0.051701 0.0801982 0.113943 0.152001 0.194459 0.239573 0.286796 0.337133 0.391192 0.44402 0.49672 0.545856 0.59306 0.637406 0.679022 0.717614 0.752443 0.782724 0.8071 0.825267 0.837722 0.842232 0.841095 0.832906 0.819646 0.800022 0.769975 0.741227 0.697849 0.65485 0.609208 0.557532 0.533148 0.507738 0.399751 0.37428 0.295843 0.245171 0.198066 0.155191 0.117857 0.0919187 0.052618 0.0299764 0.0132897 0.00333756 3.60339e-26 0 0.00354219 0.0141068 0.031484 0.0553601 0.0857855 0.121519 0.161443 0.208087 0.255912 0.306728 0.360431 0.416655 0.472273 0.529923 0.58098 0.632327 0.679896 0.698047 0.771476 0.807345 0.839438 0.866346 0.885563 0.897038 0.902464 0.902942 0.893755 0.874897 0.834615 0.790315 0.798853 0.764429 0.709283 0.654276 0.601417 0.544901 0.52282 0.503162 0.371017 0.321777 0.263087 0.21253 0.166554 0.125587 0.0952597 0.0562426 0.0319217 0.0144073 0.00361598 3.86258e-26 0 0.00371917 0.0148029 0.0330655 0.0581431 0.0899368 0.12719 0.168702 0.218331 0.269588 0.323029 0.376906 0.431024 0.495108 0.553238 0.380398 0.639215 0.705062 0.758923 0.806297 0.846204 0.880135 0.908055 0.928657 0.942008 0.947825 0.949778 0.94178 0.922134 0.898044 0.867707 0.829422 0.790876 0.787083 0.698412 0.633993 0.576116 0.524718 0.436256 0.338595 0.411293 0.276484 0.223721 0.175143 0.131634 0.0952313 0.0595332 0.0336556 0.0151831 0.00380516 4.05917e-26 0 0.00383991 0.0152794 0.0340429 0.085264 0.0920922 0.130867 0.171109 0.223007 0.276822 0.332244 0.38715 0.44131 0.50808 0.564618 0.610688 0.674644 0.733472 0.785632 0.832339 0.873308 0.908172 0.936441 0.958235 0.974121 0.97939 0.976903 0.963484 0.956809 0.929937 0.898797 0.86121 0.818979 0.774598 0.912111 0.670965 0.595258 0.532699 0.470345 0.449591 0.378893 0.286537 0.231371 0.180896 0.135726 0.0968211 0.0612946 0.0347526 0.0156147 0.00391728 4.19222e-26 0 0.0038971 0.0154998 0.0303563 0.103172 0.0926608 0.132204 0.174308 0.225464 0.278992 0.334483 0.353113 0.448687 0.512424 0.570538 0.622913 0.685305 0.743695 0.795615 0.842349 0.884043 0.919799 0.94884 0.964499 0.987674 0.995174 0.995004 0.987884 0.975401 0.947587 0.916395 0.878622 0.835906 0.78921 0.731532 0.903144 0.606193 0.542834 0.481367 0.422469 0.380263 0.294104 0.236213 0.184286 0.138063 0.0981421 0.0622954 0.0353282 0.0158208 0.00397591 4.25994e-26 0 0.00385715 0.0154317 0.0514328 0.0521519 0.092743 0.132187 0.638468 0.224918 0.276319 0.320003 0.382972 0.449871 0.51196 0.568778 0.624064 0.6866 0.743418 0.794878 0.841895 0.883726 0.919587 0.949068 0.947585 0.98748 0.995283 0.994955 0.987528 0.971227 0.948638 0.92484 0.878813 0.836034 0.78889 0.731648 0.77056 0.614472 0.544103 0.480612 0.42007 0.362266 0.306395 0.236457 0.184282 0.137982 0.0979758 0.0623042 0.0353374 0.015827 0.00398353 4.26071e-26 0 0.00373979 0.0151578 0.0474433 0.0579286 0.0912336 0.129556 0.170069 0.219818 0.264614 0.320508 0.381313 0.440117 0.493139 0.551279 0.614953 0.673705 0.728123 0.778702 0.825127 0.866527 0.902159 0.931605 0.929929 0.970733 0.979705 0.979711 0.973518 0.958368 0.935793 0.906208 0.873897 0.844144 513.983 0.615074 0.678585 0.651661 0.540105 0.476634 0.415515 0.356469 0.310425 0.234447 0.182324 0.136995 0.0975913 0.0615903 0.0348995 0.0156173 0.00393173 4.19462e-26 0 0.0037232 0.0146387 0.046116 0.05693 0.0883512 0.0392408 0.166748 0.212436 0.25478 0.312939 0.367567 0.407409 0.476137 0.537701 0.595362 0.650182 0.70215 0.750953 0.796001 0.836487 0.871464 0.900494 0.911005 0.939157 0.948827 0.94891 0.943496 0.930372 0.908988 0.879782 0.844949 0.805266 0.765389 0.705426 0.652572 4.09634 0.523028 0.462241 0.402156 0.34414 0.293435 0.228464 0.177006 0.133025 0.0948221 0.0597583 0.0338457 0.0151334 0.00381119 4.06259e-26 0 0.00354131 0.0138825 0.0475069 0.0541986 0.0762429 0.109856 0.157396 0.199795 0.245657 0.296736 0.323238 0.395748 0.455318 0.511185 0.564503 0.615614 0.664251 0.7105 0.75464 0.794139 0.827814 0.855864 0.876408 0.884455 0.903896 0.903674 0.90013 0.890923 0.868055 0.839451 0.805684 0.767163 0.726551 0.692708 0.624273 0.568318 0.500793 0.441817 0.383788 0.327695 0.275666 0.221259 0.16947 0.126758 0.0899834 0.0570822 0.0322761 0.0144224 0.00363415 3.86698e-26 0 0.00330308 0.0129125 0.0287806 0.0495024 0.0316998 0.108172 0.145166 0.18463 0.229698 0.227073 0.320426 0.3719 0.423068 0.473679 0.522366 0.567774 0.5985 0.393161 0.404006 0.663506 0.76709 0.795304 0.81548 0.820293 0.842479 0.84469 0.843652 0.841538 0.812837 0.787197 0.756325 0.719649 0.679009 0.638175 0.580441 0.531797 0.475075 0.415671 0.360687 0.30807 0.258134 0.211893 0.159345 0.118896 0.0844257 0.0535002 0.0301981 0.0134907 0.00340033 3.61138e-26 0 0.00301168 0.0117417 0.0261703 0.0189046 0.0639815 0.0994703 0.131992 0.169553 0.204022 0.247333 0.292182 0.337059 0.382204 0.426649 0.467518 0.463187 0.427448 0.59933 0.631664 0.630061 0.69597 0.72358 0.743177 0.750912 0.769722 0.77028 0.766552 0.77576 0.753217 0.721518 0.694522 0.661087 0.623495 0.584726 0.533741 0.489192 0.446524 0.383461 0.33238 0.283839 0.237406 0.208543 0.146633 0.109132 0.078448 0.0979456 0.0287427 0.0122697 0.00310342 3.29877e-26 0 0.00520267 0.0103646 0.0231567 2.21303 0.0612242 0.0873044 0.116234 0.150041 -3.1051 0.216743 0.256344 0.295495 0.335095 0.373758 0.380605 0.435084 0.493695 0.528033 0.563137 0.583588 0.615495 0.639626 0.657965 0.665502 0.684022 0.685599 0.683717 0.682053 0.666887 0.644795 0.620623 0.591755 0.558908 0.526645 0.478639 0.437803 0.422863 0.345151 0.298732 0.254621 0.212582 0.184768 0.135261 0.0990867 0.0691366 0.0458909 0.0247056 0.0110013 0.00270282 2.92243e-26 0 0.0043031 0.00883134 0.0198194 0.0228665 0.052748 0.0740423 0.0978447 0.125416 0.151786 0.183788 0.216109 0.248997 0.281763 0.311298 0.345243 0.381014 0.413561 0.443197 0.484057 0.472763 0.484955 0.51614 0.548611 0.571594 0.587185 0.589413 0.593656 0.589126 0.574917 0.558431 0.538545 0.514198 0.486463 0.461697 0.417242 0.380882 0.39144 0.301178 0.260482 0.221762 0.184929 0.158863 0.114811 0.0851433 0.0597606 0.0393617 0.0213573 0.00943858 0.00232433 2.51466e-26 0 0.0040138 0.00719787 0.015604 0.0268182 0.0423447 0.0598806 0.0787975 0.0988417 0.122362 0.146917 0.172453 0.198245 0.22254 0.186619 0.244119 0.297961 0.330864 0.332285 0.369119 0.402759 0.422569 0.439934 0.456783 0.471356 0.480449 0.48433 0.490203 0.48693 0.477444 0.463753 0.466129 0.465317 0.43456 0.123704 -2.7354 0.322669 0.314432 0.252574 0.218209 0.185623 0.154649 0.132206 0.0953211 0.0707266 0.0496903 0.032745 0.0176787 0.00782197 0.00190887 2.06627e-26 0 -0.000154413 0.00539516 0.00697307 0.0206075 0.031431 0.0444018 0.0586181 0.0669046 0.0890952 0.107173 0.125556 0.14381 0.155647 0.168244 0.201313 0.227419 0.22899 0.254301 0.280632 0.300327 0.317934 0.333025 0.349186 0.359744 0.365727 0.389271 0.384132 0.379504 0.37305 0.400061 0.367093 0.338668 0.318169 0.294598 0.273803 0.246466 0.235473 0.200105 0.172754 0.146764 0.122065 0.104809 0.075009 0.05548 0.0388674 0.0258735 0.0137329 0.00607127 0.00146228 1.58323e-26 0 0.000788472 0.00351638 0.0071298 0.0132634 0.0198878 0.0278846 0.0370303 0.0443736 0.0548437 0.0655576 0.0765563 0.087449 0.0678096 0.0801268 0.125848 0.11639 0.145171 0.165779 0.180019 0.19415 0.208599 0.220151 0.232377 0.239694 0.246139 0.260762 0.261758 0.263002 0.756463 0.268634 0.252916 0.239744 0.225499 0.210911 0.196642 0.179525 0.1658 0.144606 0.124918 0.105966 0.0878926 0.0752901 0.0535694 0.0394581 0.0274803 0.0186875 0.00978496 0.00443894 0.000992988 1.0754e-26 0 0.000411294 0.00162269 0.00324073 0.00555892 0.00793463 0.010719 0.00698859 0.0163473 0.0196871 0.0232175 0.0266761 0.0262333 0.0267041 0.038398 0.0425633 0.0457394 0.0574231 0.0655943 0.0736452 0.0583975 0.0802824 0.0896822 0.0944625 0.106681 0.239575 0.135561 0.137479 0.142352 0.151698 0.147349 0.143646 0.139446 0.132852 0.124567 0.120979 0.112411 0.0988805 0.0870488 0.0752756 0.0636463 0.0522619 0.0410301 0.0312452 0.0228654 0.0157656 0.0119112 0.0053082 0.00319547 0.000665738 5.52982e-27 0 -5.1696e-05 -0.000288706 -0.0014291 -0.00194525 -0.00373016 -0.00593325 -0.00974962 -0.0123026 -0.0160127 -0.019845 -0.0239918 -0.154897 -0.0327633 -0.0351038 -0.0374909 -0.033421 -0.0376067 -0.037628 -0.0509028 -0.0332355 -0.0281249 -0.0234169 -0.0183948 -0.0109936 0.00480187 0.00960899 0.0141303 0.0240004 0.0286619 0.0328229 0.0355314 0.0381933 0.0397146 0.0379524 0.0597999 0.0311277 0.0319502 0.0285232 0.0246695 0.0205728 0.0160701 0.0120503 0.00861462 0.00598313 0.00381246 0.00181366 0.00121082 0.00022642 5.72774e-05 2.46355e-28 0 -0.000544612 -0.00225596 -0.00615132 -0.0106265 -0.0161385 -0.0219875 -0.0319013 -0.0413125 -0.0518773 -0.063458 -0.0761322 -0.0879518 -0.097017 -0.109137 -0.118889 -0.125074 -0.138031 -0.143994 -0.145738 -0.142165 -0.142303 -0.141043 -0.138783 -0.13562 -0.121577 -0.114883 -0.107229 -0.09722 -0.0886489 -0.0785941 -0.0698621 -0.0627041 -0.0555494 -0.0451227 -0.0297682 -0.0392585 -0.0337978 -0.0297975 -0.0261022 -0.0226378 -0.0192713 -0.0171015 -0.0140608 -0.0108948 -0.00786887 -0.00649883 -0.00364357 -0.00178981 -0.000449063 -4.98908e-27 0 -0.00103331 -0.00419108 -0.0115034 -0.0176852 -0.0270645 -0.0375009 -0.0544523 -0.0699489 -0.0869411 -0.10606 -0.133878 -0.143689 -0.16209 -0.181054 -0.203967 -0.275881 -0.371386 -0.275097 -0.249358 -0.253445 -0.257812 -0.259473 -0.259324 -0.258314 -0.276292 -0.235631 -0.224267 -0.21019 -0.201193 -0.188232 -0.0633418 -0.0452557 -0.0967761 -0.100278 -0.0280624 1.77383 -0.098599 -0.0865046 -0.075156 -0.0646055 -0.0544393 -0.0458144 -0.0363991 -0.0275992 -0.0177771 -0.0138479 -0.00790482 -0.00372133 -0.00093442 -9.99511e-27 0 -0.00150777 -0.00604871 -0.0158728 -0.0279218 -0.0396062 -0.0578995 -0.0762967 -0.0973962 -0.120977 -0.147022 -0.180589 -0.198192 -0.226011 -0.256861 -0.279815 -0.30138 -0.320616 -0.338725 -0.35008 -0.360976 -0.369858 -0.374754 -0.376177 -0.376183 2.52746 -0.313906 -0.320054 0.405871 2.88785 -0.23682 -0.275231 -0.259554 -0.239098 -0.220195 -0.20053 -0.180682 -0.161356 -0.140357 -0.118543 -0.0963287 -0.0900189 -0.0738772 -0.0581649 -0.0437118 -0.0324986 -0.0210179 -0.0117353 -0.00557471 -0.00140077 -1.46546e-26 0 -0.00193668 -0.00802967 -0.0259958 -0.03667 -0.0508449 -0.0706299 -0.0946595 -0.124068 -0.155931 -0.192634 -0.217365 -0.250561 -0.296424 -0.375721 -0.355156 -0.378511 -0.404621 -0.427863 -0.44727 -0.46414 -0.475452 -0.483141 -0.487698 -0.489208 4.37855 -0.379966 -0.436143 -0.437097 -0.419465 -0.399248 -0.379307 -0.356398 -0.331038 -0.305075 -0.279315 -0.242578 0.303492 -0.185864 -0.171153 -0.147076 -0.122993 -0.100402 -0.0787218 -0.0577262 -0.0430155 -0.0279164 -0.0152064 -0.00700141 -0.00183417 -2.03577e-26 0 -0.00238561 -0.00951853 -0.0213947 -0.0381285 -0.0638371 -0.0854067 -0.112906 -0.143362 -0.184246 -0.220497 -0.257756 -0.301617 -0.339609 -0.385214 -0.431706 -0.456856 -0.486557 -0.515588 -0.544404 -0.568938 -0.57688 -0.584513 -0.590615 -0.590402 -0.583047 -0.572772 -0.559626 -0.544005 -0.524218 -0.500018 -0.473136 -0.444484 -0.413707 -0.381458 -0.348582 -0.313583 -0.273013 -0.247399 -0.216843 -0.184917 -0.153831 -0.124361 -0.0967149 -0.0734321 -0.0529381 -0.0336263 -0.019859 -0.00888236 -0.00208869 -2.43987e-26 0 -0.00276333 -0.0110083 -0.024886 -0.0440599 -0.0753597 -0.100709 -0.131731 -0.170181 -0.216664 -0.255727 -0.296591 -0.346895 -0.391185 -0.432978 -0.498116 -0.560552 -0.567906 -0.592134 -0.680717 6.57762 -0.730773 -0.684362 -0.683359 -0.684034 -0.680851 -0.671589 -0.657529 -0.638691 -0.615604 -0.588465 -0.557995 -0.524974 -0.489353 -0.451711 -0.412994 -0.373385 -0.32944 3.29453 -0.256594 -0.219184 -0.182277 -0.146429 -0.107544 -0.0877575 -0.0622999 -0.0395283 -0.0233765 -0.0104646 -1.0276 -2.86392e-26 0 -0.00310147 -0.0124328 -0.0278375 -0.0492104 -0.0810019 -0.115329 -0.147854 -0.188677 -0.235578 -0.287289 -0.354121 -0.386079 -0.436242 -0.486003 -0.537437 -0.580717 -0.635138 -0.666534 -0.694052 -0.728168 -0.742581 -0.757677 -0.767093 -0.769093 -0.76725 -0.757644 -0.742766 -0.722294 -0.696891 -0.667183 -0.633576 -0.596689 -0.556869 -0.514671 -0.470867 -0.425957 -0.379394 -0.325795 -0.291868 -0.249588 -0.206839 -0.165611 -0.132348 -0.0993721 -0.0685361 -0.0461431 -0.02643 -0.0118254 -0.00300054 -3.25013e-26 0 -0.00340752 -0.013728 -0.0306144 -0.0537157 -0.0873935 -0.127564 -0.161044 -0.205245 -0.255267 -0.307561 -0.36034 -0.419572 -0.475709 -0.528894 -0.584349 -0.630825 -0.681058 -0.725872 -0.75623 -0.787925 -0.809216 -0.827024 -0.839286 -0.842327 -0.84132 -0.831502 -0.81593 -0.79446 -0.767504 -0.735565 -0.699196 -0.659024 -0.615513 -0.56932 -0.521242 -0.471882 -0.421494 -0.369636 -0.323741 -0.276667 -0.229668 -0.18618 -0.146718 -0.110087 -0.0711913 -0.050896 -0.0290353 -0.0129889 -0.00329619 -3.5929e-26 0 -0.00367797 -0.0147405 -0.0328346 -0.0573376 -0.0889922 -0.13998 -0.171823 -0.218227 -0.275227 -0.327644 -0.383153 -0.468613 -0.507674 -0.563204 -0.617653 -0.67672 -0.73015 -0.781042 -0.810351 -0.838894 -0.864811 -0.884714 -0.898254 -0.902533 -0.901795 -0.892329 -0.876345 -0.854075 -0.825827 -0.79212 -0.753523 -0.710703 -0.664251 -0.614757 -0.563018 -0.509821 -0.455521 -0.399905 -0.351005 -0.299213 -0.248541 -0.201202 -0.15789 -0.118494 -0.0837981 -0.0546368 -0.0310992 -0.0138998 -0.00353568 -3.85753e-26 0 -0.00391752 -0.0154873 -0.0344094 -0.0601206 -0.0928869 -0.144717 -0.182158 -0.227963 -0.285314 -0.35133 -0.404363 -0.463469 -0.527648 -0.58841 -0.647173 -0.703026 -0.753508 -0.809258 -0.844307 -0.878438 -0.907062 -0.92854 -0.94313 -0.948511 -0.947988 -0.939056 -0.922845 -0.900071 -0.870928 -0.835941 -0.795697 -0.750879 -0.702195 -0.650148 -0.595499 -0.539236 -0.48483 -0.406321 -0.170876 -0.316479 -0.263071 -0.212774 -0.166363 -0.12441 -0.0812557 -0.0574277 -0.0326838 -0.0142393 -0.00372055 -4.05587e-26 0 -0.0040637 -0.0159931 -0.0354828 -0.0619794 -0.0957132 -0.148936 -0.194045 -0.235059 -0.289834 -0.361224 -0.419101 -0.479452 -0.538772 -0.59666 -0.665216 -0.722853 -0.779628 -0.827575 -0.869453 -0.905996 -0.93589 -0.958277 -0.973575 -0.979591 -0.979223 -0.970918 -0.95468 -0.931706 -0.902078 -0.866323 -0.825042 -0.778974 -0.728688 -0.674811 -0.618304 -0.559906 -0.500212 -0.441296 -0.347725 -0.20844 -0.275112 -0.220949 -0.172403 -0.125575 -0.0913171 -0.0596943 -0.0339224 -0.0151732 -0.00384745 -4.19317e-26 0 -0.0041332 -0.0162442 -0.0359679 -0.062758 -0.096805 -0.15455 -0.202892 -0.239223 -0.294159 -0.353201 -0.426355 -0.484312 -0.544718 -0.605908 -0.682852 -0.731211 -0.785204 -0.834789 -0.879009 -0.916851 -0.947703 -0.971175 -0.987447 -0.995012 -0.995087 -0.987758 -0.971864 -0.949157 -0.919587 -0.883676 -0.842026 -0.795422 -0.744297 -0.689422 -0.631962 -0.572465 -0.511838 -0.450512 -0.387124 -0.297188 -0.277143 -0.224914 -0.176815 -0.132417 -0.0935394 -0.0606714 -0.0344059 -0.0153462 -0.00391062 -4.26019e-26 0 -0.00414154 -0.0162659 -0.0359955 -0.0627532 -0.0967684 -0.138181 -0.206108 -0.240466 -0.294685 -0.354066 -0.43311 -0.484518 -0.5449 -0.606651 -0.680777 -0.731437 -0.78453 -0.834341 -0.878678 -0.916612 -0.947562 -0.971098 -0.987411 -0.995006 -0.995093 -0.987804 -0.971986 -0.949377 -0.919921 -0.884126 -0.842584 -0.796061 -0.74501 -0.690185 -0.632716 -0.573296 -0.512802 -0.451881 -0.388803 -0.293056 -0.280491 -0.226546 -0.177037 -0.1324 -0.0933883 -0.0603455 -0.0336552 -0.0154412 -0.00390917 -4.26071e-26 0 -0.0040834 -0.0160113 -0.0353597 -0.0615964 -0.0949249 -0.135421 -0.182624 -0.237306 -0.289463 -0.346433 -0.430076 -0.474641 -0.532522 -0.593829 -0.661023 -0.716356 -0.769332 -0.818434 -0.862116 -0.899664 -0.930532 -0.954229 -0.97081 -0.979135 -0.979614 -0.97355 -0.95862 -0.937011 -0.908554 -0.873717 -0.83311 -0.787389 -0.737143 -0.683191 -0.626458 -0.567743 -0.507922 -0.447562 -0.385227 -0.27184 -0.275822 -0.223449 -0.174675 -0.130671 -0.092022 -0.0591953 -0.0232883 -0.01526 -0.00384929 -4.1944e-26 0 -0.00396316 -0.0155248 -0.034237 -0.0595957 -0.0918048 -0.129866 -0.173734 -0.233044 -0.280328 -0.335578 -0.387832 -0.429866 -0.508517 -0.585975 -0.63561 -0.690834 -0.743018 -0.790659 -0.833045 -0.869598 -0.89974 -0.922997 -0.939362 -0.947872 -0.948529 -0.942867 -0.928599 -0.907842 -0.880447 -0.846913 -0.807705 -0.763388 -0.714764 -0.662572 -0.607595 -0.550634 -0.492557 -0.433097 -0.369836 -29.4151 -0.266522 -0.216294 -0.169136 -0.126533 -0.089002 -0.0570227 -1.88901 -0.0147749 -0.0037268 -4.06204e-26 0 -0.00377717 -0.014779 -0.0325897 -0.0566461 -0.0876354 -0.140205 -0.164992 -0.216096 -0.26667 -0.318572 -0.373502 -0.43041 -0.48859 -0.558564 -0.602837 -0.655166 -0.705035 -0.750513 -0.791086 -0.826102 -0.854978 -0.877328 -0.893175 -0.901638 -0.902521 -0.897533 -0.884257 -0.864781 -0.838941 -0.807234 -0.