<?xml version="1.0"?>
<VTKFile type="PolyData">
	<PolyData>
		<Piece NumberOfPoints="2601" NumberOfPolys="2500">
			<Points>
				<DataArray type="Float32" NumberOfComponents="3" format="ascii">
 0 0 0 0.02 0 0 0.04 0 0 0.06 0 0 0.08 0 0 0.1 0 0 0.12 0 0 0.14 0 0 0.16 0 0 0.18 0 0 0.2 0 0 0.22 0 0 0.24 0 0 0.26 0 0 0.28 0 0 0.3 0 0 0.32 0 0 0.34 0 0 0.36 0 0 0.38 0 0 0.4 0 0 0.42 0 0 0.44 0 0 0.46 0 0 0.48 0 0 0.5 0 0 0.52 0 0 0.54 0 0 0.56 0 0 0.58 0 0 0.6 0 0 0.62 0 0 0.64 0 0 0.66 0 0 0.68 0 0 0.7 0 0 0.72 0 0 0.74 0 0 0.76 0 0 0.78 0 0 0.8 0 0 0.82 0 0 0.84 0 0 0.86 0 0 0.88 0 0 0.9 0 0 0.92 0 0 0.94 0 0 0.96 0 0 0.98 0 0 1 0 0 0 0.02 0 0.02 0.02 0 0.04 0.02 0 0.06 0.02 0 0.08 0.02 0 0.1 0.02 0 0.12 0.02 0 0.14 0.02 0 0.16 0.02 0 0.18 0.02 0 0.2 0.02 0 0.22 0.02 0 0.24 0.02 0 0.26 0.02 0 0.28 0.02 0 0.3 0.02 0 0.32 0.02 0 0.34 0.02 0 0.36 0.02 0 0.38 0.02 0 0.4 0.02 0 0.42 0.02 0 0.44 0.02 0 0.46 0.02 0 0.48 0.02 0 0.5 0.02 0 0.52 0.02 0 0.54 0.02 0 0.56 0.02 0 0.58 0.02 0 0.6 0.02 0 0.62 0.02 0 0.64 0.02 0 0.66 0.02 0 0.68 0.02 0 0.7 0.02 0 0.72 0.02 0 0.74 0.02 0 0.76 0.02 0 0.78 0.02 0 0.8 0.02 0 0.82 0.02 0 0.84 0.02 0 0.86 0.02 0 0.88 0.02 0 0.9 0.02 0 0.92 0.02 0 0.94 0.02 0 0.96 0.02 0 0.98 0.02 0 1 0.02 0 0 0.04 0 0.02 0.04 0 0.04 0.04 0 0.06 0.04 0 0.08 0.04 0 0.1 0.04 0 0.12 0.04 0 0.14 0.04 0 0.16 0.04 0 0.18 0.04 0 0.2 0.04 0 0.22 0.04 0 0.24 0.04 0 0.26 0.04 0 0.28 0.04 0 0.3 0.04 0 0.32 0.04 0 0.34 0.04 0 0.36 0.04 0 0.38 0.04 0 0.4 0.04 0 0.42 0.04 0 0.44 0.04 0 0.46 0.04 0 0.48 0.04 0 0.5 0.04 0 0.52 0.04 0 0.54 0.04 0 0.56 0.04 0 0.58 0.04 0 0.6 0.04 0 0.62 0.04 0 0.64 0.04 0 0.66 0.04 0 0.68 0.04 0 0.7 0.04 0 0.72 0.04 0 0.74 0.04 0 0.76 0.04 0 0.78 0.04 0 0.8 0.04 0 0.82 0.04 0 0.84 0.04 0 0.86 0.04 0 0.88 0.04 0 0.9 0.04 0 0.92 0.04 0 0.94 0.04 0 0.96 0.04 0 0.98 0.04 0 1 0.04 0 0 0.06 0 0.02 0.06 0 0.04 0.06 0 0.06 0.06 0 0.08 0.06 0 0.1 0.06 0 0.12 0.06 0 0.14 0.06 0 0.16 0.06 0 0.18 0.06 0 0.2 0.06 0 0.22 0.06 0 0.24 0.06 0 0.26 0.06 0 0.28 0.06 0 0.3 0.06 0 0.32 0.06 0 0.34 0.06 0 0.36 0.06 0 0.38 0.06 0 0.4 0.06 0 0.42 0.06 0 0.44 0.06 0 0.46 0.06 0 0.48 0.06 0 0.5 0.06 0 0.52 0.06 0 0.54 0.06 0 0.56 0.06 0 0.58 0.06 0 0.6 0.06 0 0.62 0.06 0 0.64 0.06 0 0.66 0.06 0 0.68 0.06 0 0.7 0.06 0 0.72 0.06 0 0.74 0.06 0 0.76 0.06 0 0.78 0.06 0 0.8 0.06 0 0.82 0.06 0 0.84 0.06 0 0.86 0.06 0 0.88 0.06 0 0.9 0.06 0 0.92 0.06 0 0.94 0.06 0 0.96 0.06 0 0.98 0.06 0 1 0.06 0 0 0.08 0 0.02 0.08 0 0.04 0.08 0 0.06 0.08 0 0.08 0.08 0 0.1 0.08 0 0.12 0.08 0 0.14 0.08 0 0.16 0.08 0 0.18 0.08 0 0.2 0.08 0 0.22 0.08 0 0.24 0.08 0 0.26 0.08 0 0.28 0.08 0 0.3 0.08 0 0.32 0.08 0 0.34 0.08 0 0.36 0.08 0 0.38 0.08 0 0.4 0.08 0 0.42 0.08 0 0.44 0.08 0 0.46 0.08 0 0.48 0.08 0 0.5 0.08 0 0.52 0.08 0 0.54 0.08 0 0.56 0.08 0 0.58 0.08 0 0.6 0.08 0 0.62 0.08 0 0.64 0.08 0 0.66 0.08 0 0.68 0.08 0 0.7 0.08 0 0.72 0.08 0 0.74 0.08 0 0.76 0.08 0 0.78 0.08 0 0.8 0.08 0 0.82 0.08 0 0.84 0.08 0 0.86 0.08 0 0.88 0.08 0 0.9 0.08 0 0.92 0.08 0 0.94 0.08 0 0.96 0.08 0 0.98 0.08 0 1 0.08 0 0 0.1 0 0.02 0.1 0 0.04 0.1 0 0.06 0.1 0 0.08 0.1 0 0.1 0.1 0 0.12 0.1 0 0.14 0.1 0 0.16 0.1 0 0.18 0.1 0 0.2 0.1 0 0.22 0.1 0 0.24 0.1 0 0.26 0.1 0 0.28 0.1 0 0.3 0.1 0 0.32 0.1 0 0.34 0.1 0 0.36 0.1 0 0.38 0.1 0 0.4 0.1 0 0.42 0.1 0 0.44 0.1 0 0.46 0.1 0 0.48 0.1 0 0.5 0.1 0 0.52 0.1 0 0.54 0.1 0 0.56 0.1 0 0.58 0.1 0 0.6 0.1 0 0.62 0.1 0 0.64 0.1 0 0.66 0.1 0 0.68 0.1 0 0.7 0.1 0 0.72 0.1 0 0.74 0.1 0 0.76 0.1 0 0.78 0.1 0 0.8 0.1 0 0.82 0.1 0 0.84 0.1 0 0.86 0.1 0 0.88 0.1 0 0.9 0.1 0 0.92 0.1 0 0.94 0.1 0 0.96 0.1 0 0.98 0.1 0 1 0.1 0 0 0.12 0 0.02 0.12 0 0.04 0.12 0 0.06 0.12 0 0.08 0.12 0 0.1 0.12 0 0.12 0.12 0 0.14 0.12 0 0.16 0.12 0 0.18 0.12 0 0.2 0.12 0 0.22 0.12 0 0.24 0.12 0 0.26 0.12 0 0.28 0.12 0 0.3 0.12 0 0.32 0.12 0 0.34 0.12 0 0.36 0.12 0 0.38 0.12 0 0.4 0.12 0 0.42 0.12 0 0.44 0.12 0 0.46 0.12 0 0.48 0.12 0 0.5 0.12 0 0.52 0.12 0 0.54 0.12 0 0.56 0.12 0 0.58 0.12 0 0.6 0.12 0 0.62 0.12 0 0.64 0.12 0 0.66 0.12 0 0.68 0.12 0 0.7 0.12 0 0.72 0.12 0 0.74 0.12 0 0.76 0.12 0 0.78 0.12 0 0.8 0.12 0 0.82 0.12 0 0.84 0.12 0 0.86 0.12 0 0.88 0.12 0 0.9 0.12 0 0.92 0.12 0 0.94 0.12 0 0.96 0.12 0 0.98 0.12 0 1 0.12 0 0 0.14 0 0.02 0.14 0 0.04 0.14 0 0.06 0.14 0 0.08 0.14 0 0.1 0.14 0 0.12 0.14 0 0.14 0.14 0 0.16 0.14 0 0.18 0.14 0 0.2 0.14 0 0.22 0.14 0 0.24 0.14 0 0.26 0.14 0 0.28 0.14 0 0.3 0.14 0 0.32 0.14 0 0.34 0.14 0 0.36 0.14 0 0.38 0.14 0 0.4 0.14 0 0.42 0.14 0 0.44 0.14 0 0.46 0.14 0 0.48 0.14 0 0.5 0.14 0 0.52 0.14 0 0.54 0.14 0 0.56 0.14 0 0.58 0.14 0 0.6 0.14 0 0.62 0.14 0 0.64 0.14 0 0.66 0.14 0 0.68 0.14 0 0.7 0.14 0 0.72 0.14 0 0.74 0.14 0 0.76 0.14 0 0.78 0.14 0 0.8 0.14 0 0.82 0.14 0 0.84 0.14 0 0.86 0.14 0 0.88 0.14 0 0.9 0.14 0 0.92 0.14 0 0.94 0.14 0 0.96 0.14 0 0.98 0.14 0 1 0.14 0 0 0.16 0 0.02 0.16 0 0.04 0.16 0 0.06 0.16 0 0.08 0.16 0 0.1 0.16 0 0.12 0.16 0 0.14 0.16 0 0.16 0.16 0 0.18 0.16 0 0.2 0.16 0 0.22 0.16 0 0.24 0.16 0 0.26 0.16 0 0.28 0.16 0 0.3 0.16 0 0.32 0.16 0 0.34 0.16 0 0.36 0.16 0 0.38 0.16 0 0.4 0.16 0 0.42 0.16 0 0.44 0.16 0 0.46 0.16 0 0.48 0.16 0 0.5 0.16 0 0.52 0.16 0 0.54 0.16 0 0.56 0.16 0 0.58 0.16 0 0.6 0.16 0 0.62 0.16 0 0.64 0.16 0 0.66 0.16 0 0.68 0.16 0 0.7 0.16 0 0.72 0.16 0 0.74 0.16 0 0.76 0.16 0 0.78 0.16 0 0.8 0.16 0 0.82 0.16 0 0.84 0.16 0 0.86 0.16 0 0.88 0.16 0 0.9 0.16 0 0.92 0.16 0 0.94 0.16 0 0.96 0.16 0 0.98 0.16 0 1 0.16 0 0 0.18 0 0.02 0.18 0 0.04 0.18 0 0.06 0.18 0 0.08 0.18 0 0.1 0.18 0 0.12 0.18 0 0.14 0.18 0 0.16 0.18 0 0.18 0.18 0 0.2 0.18 0 0.22 0.18 0 0.24 0.18 0 0.26 0.18 0 0.28 0.18 0 0.3 0.18 0 0.32 0.18 0 0.34 0.18 0 0.36 0.18 0 0.38 0.18 0 0.4 0.18 0 0.42 0.18 0 0.44 0.18 0 0.46 0.18 0 0.48 0.18 0 0.5 0.18 0 0.52 0.18 0 0.54 0.18 0 0.56 0.18 0 0.58 0.18 0 0.6 0.18 0 0.62 0.18 0 0.64 0.18 0 0.66 0.18 0 0.68 0.18 0 0.7 0.18 0 0.72 0.18 0 0.74 0.18 0 0.76 0.18 0 0.78 0.18 0 0.8 0.18 0 0.82 0.18 0 0.84 0.18 0 0.86 0.18 0 0.88 0.18 0 0.9 0.18 0 0.92 0.18 0 0.94 0.18 0 0.96 0.18 0 0.98 0.18 0 1 0.18 0 0 0.2 0 0.02 0.2 0 0.04 0.2 0 0.06 0.2 0 0.08 0.2 0 0.1 0.2 0 0.12 0.2 0 0.14 0.2 0 0.16 0.2 0 0.18 0.2 0 0.2 0.2 0 0.22 0.2 0 0.24 0.2 0 0.26 0.2 0 0.28 0.2 0 0.3 0.2 0 0.32 0.2 0 0.34 0.2 0 0.36 0.2 0 0.38 0.2 0 0.4 0.2 0 0.42 0.2 0 0.44 0.2 0 0.46 0.2 0 0.48 0.2 0 0.5 0.2 0 0.52 0.2 0 0.54 0.2 0 0.56 0.2 0 0.58 0.2 0 0.6 0.2 0 0.62 0.2 0 0.64 0.2 0 0.66 0.2 0 0.68 0.2 0 0.7 0.2 0 0.72 0.2 0 0.74 0.2 0 0.76 0.2 0 0.78 0.2 0 0.8 0.2 0 0.82 0.2 0 0.84 0.2 0 0.86 0.2 0 0.88 0.2 0 0.9 0.2 0 0.92 0.2 0 0.94 0.2 0 0.96 0.2 0 0.98 0.2 0 1 0.2 0 0 0.22 0 0.02 0.22 0 0.04 0.22 0 0.06 0.22 0 0.08 0.22 0 0.1 0.22 0 0.12 0.22 0 0.14 0.22 0 0.16 0.22 0 0.18 0.22 0 0.2 0.22 0 0.22 0.22 0 0.24 0.22 0 0.26 0.22 0 0.28 0.22 0 0.3 0.22 0 0.32 0.22 0 0.34 0.22 0 0.36 0.22 0 0.38 0.22 0 0.4 0.22 0 0.42 0.22 0 0.44 0.22 0 0.46 0.22 0 0.48 0.22 0 0.5 0.22 0 0.52 0.22 0 0.54 0.22 0 0.56 0.22 0 0.58 0.22 0 0.6 0.22 0 0.62 0.22 0 0.64 0.22 0 0.66 0.22 0 0.68 0.22 0 0.7 0.22 0 0.72 0.22 0 0.74 0.22 0 0.76 0.22 0 0.78 0.22 0 0.8 0.22 0 0.82 0.22 0 0.84 0.22 0 0.86 0.22 0 0.88 0.22 0 0.9 0.22 0 0.92 0.22 0 0.94 0.22 0 0.96 0.22 0 0.98 0.22 0 1 0.22 0 0 0.24 0 0.02 0.24 0 0.04 0.24 0 0.06 0.24 0 0.08 0.24 0 0.1 0.24 0 0.12 0.24 0 0.14 0.24 0 0.16 0.24 0 0.18 0.24 0 0.2 0.24 0 0.22 0.24 0 0.24 0.24 0 0.26 0.24 0 0.28 0.24 0 0.3 0.24 0 0.32 0.24 0 0.34 0.24 0 0.36 0.24 0 0.38 0.24 0 0.4 0.24 0 0.42 0.24 0 0.44 0.24 0 0.46 0.24 0 0.48 0.24 0 0.5 0.24 0 0.52 0.24 0 0.54 0.24 0 0.56 0.24 0 0.58 0.24 0 0.6 0.24 0 0.62 0.24 0 0.64 0.24 0 0.66 0.24 0 0.68 0.24 0 0.7 0.24 0 0.72 0.24 0 0.74 0.24 0 0.76 0.24 0 0.78 0.24 0 0.8 0.24 0 0.82 0.24 0 0.84 0.24 0 0.86 0.24 0 0.88 0.24 0 0.9 0.24 0 0.92 0.24 0 0.94 0.24 0 0.96 0.24 0 0.98 0.24 0 1 0.24 0 0 0.26 0 0.02 0.26 0 0.04 0.26 0 0.06 0.26 0 0.08 0.26 0 0.1 0.26 0 0.12 0.26 0 0.14 0.26 0 0.16 0.26 0 0.18 0.26 0 0.2 0.26 0 0.22 0.26 0 0.24 0.26 0 0.26 0.26 0 0.28 0.26 0 0.3 0.26 0 0.32 0.26 0 0.34 0.26 0 0.36 0.26 0 0.38 0.26 0 0.4 0.26 0 0.42 0.26 0 0.44 0.26 0 0.46 0.26 0 0.48 0.26 0 0.5 0.26 0 0.52 0.26 0 0.54 0.26 0 0.56 0.26 0 0.58 0.26 0 0.6 0.26 0 0.62 0.26 0 0.64 0.26 0 0.66 0.26 0 0.68 0.26 0 0.7 0.26 0 0.72 0.26 0 0.74 0.26 0 0.76 0.26 0 0.78 0.26 0 0.8 0.26 0 0.82 0.26 0 0.84 0.26 0 0.86 0.26 0 0.88 0.26 0 0.9 0.26 0 0.92 0.26 0 0.94 0.26 0 0.96 0.26 0 0.98 0.26 0 1 0.26 0 0 0.28 0 0.02 0.28 0 0.04 0.28 0 0.06 0.28 0 0.08 0.28 0 0.1 0.28 0 0.12 0.28 0 0.14 0.28 0 0.16 0.28 0 0.18 0.28 0 0.2 0.28 0 0.22 0.28 0 0.24 0.28 0 0.26 0.28 0 0.28 0.28 0 0.3 0.28 0 0.32 0.28 0 0.34 0.28 0 0.36 0.28 0 0.38 0.28 0 0.4 0.28 0 0.42 0.28 0 0.44 0.28 0 0.46 0.28 0 0.48 0.28 0 0.5 0.28 0 0.52 0.28 0 0.54 0.28 0 0.56 0.28 0 0.58 0.28 0 0.6 0.28 0 0.62 0.28 0 0.64 0.28 0 0.66 0.28 0 0.68 0.28 0 0.7 0.28 0 0.72 0.28 0 0.74 0.28 0 0.76 0.28 0 0.78 0.28 0 0.8 0.28 0 0.82 0.28 0 0.84 0.28 0 0.86 0.28 0 0.88 0.28 0 0.9 0.28 0 0.92 0.28 0 0.94 0.28 0 0.96 0.28 0 0.98 0.28 0 1 0.28 0 0 0.3 0 0.02 0.3 0 0.04 0.3 0 0.06 0.3 0 0.08 0.3 0 0.1 0.3 0 0.12 0.3 0 0.14 0.3 0 0.16 0.3 0 0.18 0.3 0 0.2 0.3 0 0.22 0.3 0 0.24 0.3 0 0.26 0.3 0 0.28 0.3 0 0.3 0.3 0 0.32 0.3 0 0.34 0.3 0 0.36 0.3 0 0.38 0.3 0 0.4 0.3 0 0.42 0.3 0 0.44 0.3 0 0.46 0.3 0 0.48 0.3 0 0.5 0.3 0 0.52 0.3 0 0.54 0.3 0 0.56 0.3 0 0.58 0.3 0 0.6 0.3 0 0.62 0.3 0 0.64 0.3 0 0.66 0.3 0 0.68 0.3 0 0.7 0.3 0 0.72 0.3 0 0.74 0.3 0 0.76 0.3 0 0.78 0.3 0 0.8 0.3 0 0.82 0.3 0 0.84 0.3 0 0.86 0.3 0 0.88 0.3 0 0.9 0.3 0 0.92 0.3 0 0.94 0.3 0 0.96 0.3 0 0.98 0.3 0 1 0.3 0 0 0.32 0 0.02 0.32 0 0.04 0.32 0 0.06 0.32 0 0.08 0.32 0 0.1 0.32 0 0.12 0.32 0 0.14 0.32 0 0.16 0.32 0 0.18 0.32 0 0.2 0.32 0 0.22 0.32 0 0.24 0.32 0 0.26 0.32 0 0.28 0.32 0 0.3 0.32 0 0.32 0.32 0 0.34 0.32 0 0.36 0.32 0 0.38 0.32 0 0.4 0.32 0 0.42 0.32 0 0.44 0.32 0 0.46 0.32 0 0.48 0.32 0 0.5 0.32 0 0.52 0.32 0 0.54 0.32 0 0.56 0.32 0 0.58 0.32 0 0.6 0.32 0 0.62 0.32 0 0.64 0.32 0 0.66 0.32 0 0.68 0.32 0 0.7 0.32 0 0.72 0.32 0 0.74 0.32 0 0.76 0.32 0 0.78 0.32 0 0.8 0.32 0 0.82 0.32 0 0.84 0.32 0 0.86 0.32 0 0.88 0.32 0 0.9 0.32 0 0.92 0.32 0 0.94 0.
[...]
			<PointData Scalars="VitesseX">
				<DataArray Name="VitesseX" type="Float32" format="ascii">
 0 -0 0 0 0 0 0 0 0 0 0 0 0 0 0 0 0 0 0 0 0 0 0 0 0 0 0 0 0 0 0 0 0 0 0 0 0 0 0 0 0 0 0 0 0 0 0 0 0 0 0 0 -0.00072639 0.00104871 0.00250979 0.00441998 0.00653308 0.0092327 0.0123203 0.0154203 0.0190931 0.0228044 0.026817 0.0307312 0.0347805 0.0388356 0.0427237 0.0465639 0.0501757 0.0523704 0.0579007 0.0624942 0.0606974 0.0620626 0.062653 0.0624719 0.0622798 0.0614824 0.0605896 0.0590272 0.0572248 0.0541559 0.0469686 0.0334751 0.0472114 0.0443261 0.0406625 0.0368794 0.0329931 0.0291009 0.0252473 0.0214688 0.0178333 0.0144497 0.0113464 0.00867674 0.00594938 0.0038989 0.00222739 0.00100661 0.000241313 2.65628e-27 0 0.000505861 0.00196149 0.00457183 0.00810956 0.0122918 0.0173264 0.0233048 0.0294395 0.0363926 0.0436677 0.0513263 0.0590154 0.0668548 0.074653 0.0822193 0.0895368 0.0962152 0.104703 0.112111 0.113596 0.115601 0.119512 0.122424 0.12319 0.123336 0.122727 0.121312 0.118896 0.115695 0.111571 0.106588 0.101004 0.0947877 0.0880388 0.0809251 0.073435 0.0656801 0.0579001 0.0502936 0.0427805 0.0355722 0.0288368 0.0226008 0.0169758 0.0120413 0.00786746 0.004522 0.00206221 0.000531829 5.27022e-27 0 0.000739351 0.00280378 0.00658732 0.0116621 0.017853 0.0253485 0.0338186 0.0430105 0.053153 0.0638772 0.0750215 0.0863797 0.0975297 0.109042 0.120303 0.131121 0.141133 0.151147 0.159079 0.164647 0.168733 0.175339 0.179521 0.181757 0.182405 0.176623 0.169485 0.175445 0.171468 0.16524 0.157921 0.149602 0.140358 0.13041 0.11987 0.108731 0.0972655 0.0857369 0.0745058 0.0633871 0.0527202 0.0427426 0.0335135 0.0251853 0.0178752 0.0116925 0.00694645 0.00300453 0.000810954 7.80012e-27 0 0.000951659 0.00352589 0.00851273 0.0150505 0.0231276 0.0327541 0.0438111 0.0559189 0.0690745 0.0831273 0.0976444 0.112399 0.126762 0.141808 0.156537 0.170671 0.183711 0.183447 0.20749 0.218305 0.227035 0.23033 0.234532 0.23766 0.238778 0.238029 0.235106 0.230421 0.222511 0.207205 0.205233 0.196208 0.183959 0.170937 0.157216 0.143265 0.130804 0.112359 0.0975151 0.0970709 0.0661253 0.0554441 0.0438496 0.0329373 0.0234049 0.0153614 0.00891126 0.00412604 0.00107993 1.02101e-26 0 0.00115597 0.00394347 0.0103081 0.0182053 0.0280302 0.0398966 0.0531562 0.0679122 0.0838151 0.101122 0.118381 0.13629 0.154089 0.172477 0.190428 0.20763 0.223702 0.221284 0.250323 0.262899 0.272869 0.280295 0.285604 0.292772 0.306671 0.304034 0.286919 0.281558 0.273697 0.264217 0.252794 0.23941 0.224601 0.208622 0.192045 0.174037 0.155567 0.137156 0.118875 0.10097 0.0835195 0.0686539 0.0533412 0.0402453 0.0285661 0.0186111 0.0105472 0.00488768 0.00126986 1.2455e-26 0 0.00294092 0.0021356 0.0119353 0.0210785 0.0325013 0.0460693 0.0616516 0.0787665 0.0975762 0.117524 0.137819 0.158481 0.179112 0.200358 0.221237 0.241149 0.259655 0.27666 0.291322 0.305451 0.317134 0.326313 0.333104 0.337681 0.339151 0.339066 0.329884 0.32818 0.318786 0.307691 0.294366 0.278889 0.261542 0.242975 0.223675 0.202231 0.181055 0.159846 0.138741 0.118173 0.0983729 0.0798032 0.0629848 0.0471322 0.0337412 0.0221594 0.0127214 0.00564737 0.00140265 1.45051e-26 0 0.0012652 0.00159681 0.0134049 0.0236686 0.0364662 0.05179 0.0692085 0.0881351 0.107581 0.131388 0.154574 0.177586 0.201424 0.225096 0.248097 0.270634 0.291574 0.310195 0.333673 0.344377 0.356371 0.367973 0.375343 0.380049 0.380241 0.378167 0.370748 0.356663 0.353395 0.346254 0.330716 0.313371 0.293867 0.27328 0.251503 0.227478 0.20398 0.180132 0.156304 0.133096 0.1109 0.0900646 0.0712321 0.0534246 0.037905 0.0248171 0.0141356 0.00641456 0.00160258 1.63265e-26 0 0.00165318 0.006658 0.014651 0.00552117 0.0395508 0.0549042 0.075328 0.0963892 0.119174 0.143764 0.168667 0.194297 0.220653 0.246554 0.271668 0.296165 0.318556 -1638.71 -0.880325 0.328069 0.392809 0.403013 0.411085 0.416376 0.418217 0.417049 0.412499 0.404763 0.394099 0.380333 0.363801 0.344776 0.323496 0.300159 0.274905 0.246229 0.223338 0.19748 0.171268 0.145846 0.121595 0.0988887 0.078359 0.0586146 0.0413664 0.0269168 0.0159223 0.00673411 0.00165506 1.78906e-26 0 0.00174969 -0.0994935 0.0153848 0.0264599 0.0393743 0.0596151 0.0806269 0.10322 0.127746 0.153799 0.180365 0.208068 0.236179 0.263674 0.290107 -6.0256 38.0865 35.9588 0.384398 0.402956 0.418467 0.430978 0.440131 0.446067 0.448218 0.447093 0.442428 0.434089 0.422551 0.407838 0.390178 0.369856 0.347117 0.322309 0.295777 0.268349 0.240502 0.211094 0.191961 0.156251 0.130536 0.105974 0.0837337 0.0625026 0.0442947 0.0285864 0.0159824 0.00715492 0.00181639 1.91728e-26 0 0.00184221 0.00712237 0.0160316 0.0289942 0.0432749 0.0633706 0.0847807 0.108328 0.134438 0.161214 0.18924 0.218384 0.247635 0.276153 -14.7812 38.1115 0.337805 0.381842 0.403752 0.423172 0.439532 0.452686 0.462435 0.468783 0.471123 0.470018 0.465249 0.456564 0.444493 0.429081 0.410561 0.389193 0.36527 0.339287 0.31157 0.282731 0.253048 0.222977 0.193544 0.189578 0.180964 0.109729 0.0872866 0.0653292 0.0460955 0.0301235 0.0166984 0.00751251 0.0019188 2.01528e-26 0 0.00148726 0.00760117 0.0306998 0.0298791 0.0461692 0.0655981 0.0875568 0.107412 0.138264 0.166464 0.195489 0.225648 0.255583 55.8843 46.2302 0.341659 0.369096 0.394634 0.417196 0.437013 0.453875 0.467451 0.477548 0.484155 0.486574 0.485505 0.480692 0.471837 0.459479 0.443614 0.42455 0.402477 0.377781 0.350995 0.322415 0.292569 0.261802 0.230746 0.200201 0.170501 0.166456 0.125036 0.0885885 0.0669138 0.047035 0.0303549 0.0171907 0.00774486 0.00196811 2.08154e-26 0 0.00168795 0.00760862 0.0102973 0.0301657 0.0449971 0.0662738 0.0886814 0.111932 0.139869 0.168602 0.198051 0.228254 0.258474 52.2588 0.317402 0.347073 0.374575 0.400036 0.423004 0.443218 0.460453 0.474411 0.484786 0.491625 0.494348 0.493334 0.488564 0.479955 0.46746 0.451295 0.43203 0.409774 0.384691 0.357398 0.328361 0.298016 0.266818 0.235211 0.203884 0.1735 0.14474 0.128517 0.0906332 0.0677459 0.0476509 0.0308143 0.017491 0.00789545 0.00200171 2.11499e-26 0 0.00182426 0.00695778 0.0169934 0.0301722 0.0462953 0.0661745 0.082195 0.112828 0.14012 0.168474 0.19801 0.227789 57.3665 0.287029 0.318409 0.347419 0.374656 0.400021 0.423031 0.443269 0.460481 0.474435 0.484742 0.491007 0.494481 0.493374 0.491063 0.489447 0.494595 0.46204 0.432829 0.411172 0.38529 0.357506 0.328565 0.298163 0.266873 0.235312 0.203963 0.173344 0.144111 0.116925 0.101849 0.067726 0.0476072 0.0308184 0.0175038 0.00795304 0.00196605 2.11518e-26 0 0.00174516 0.00625849 0.0169046 0.0298164 0.0459875 0.0651388 0.0846775 0.110951 0.137573 0.165475 0.19447 0.223574 0.251941 0.28308 0.312891 0.34116 0.367904 0.392903 0.415316 0.434829 0.451749 0.461194 0.477056 0.483612 0.486489 0.485741 0.481416 0.472872 0.461157 0.445744 0.427212 0.405249 -46.1102 0.353379 0.325412 0.295268 0.263772 0.232461 0.201497 0.171251 0.142319 0.115396 0.0948175 0.0785132 0.0467208 0.0303139 0.0172926 0.00880263 0.00193835 2.08202e-26 0 0.00178521 0.00529675 0.016351 0.0288404 0.0445031 0.0630103 0.0837944 0.107483 0.132894 0.159653 0.186998 0.1443 0.24377 0.274 0.302326 0.329586 0.355569 0.379411 0.400058 0.415136 0.436225 0.451867 0.461564 0.468216 0.471004 0.470636 0.466386 0.457977 0.446688 0.431852 0.41406 0.393077 0.369721 0.343766 0.315727 0.291196 0.256125 0.225665 0.195413 0.166016 0.137917 0.11164 0.0879039 0.0720937 0.0575241 0.0294707 0.0166693 0.00846194 0.00187089 2.01582e-26 0 0.0017338 0.00430345 0.0155375 0.0273985 0.042253 0.0598059 0.0799332 0.102143 0.12605 0.150787 0.175323 0.201605 0.231823 0.259911 0.286778 0.312676 0.337207 0.359097 0.375289 0.398644 0.416487 0.428849 0.438526 0.445138 0.448048 0.447504 0.444275 0.435866 0.425272 0.411306 0.394521 0.374774 0.352712 0.328323 0.301778 0.273636 0.244969 0.217502 0.187015 0.15841 0.131495 0.106252 0.0831399 0.0636235 0.0549342 0.0278964 0.015828 0.00742681 0.00179312 1.9185e-26 0 0.00159114 0.00551961 0.0144833 0.0245361 0.0392437 0.0553183 0.0741872 0.094846 0.117006 0.14053 77.4993 0.189671 0.216253 0.241603 0.266579 0.290728 0.313091 0.332085 0.351259 0.371623 0.388396 0.400005 0.40885 0.41521 0.417861 0.417421 0.413997 0.407117 0.397519 0.38467 0.368963 0.350546 0.329766 0.306927 0.281952 0.2557 0.228792 0.201713 0.176024 0.148245 0.122957 0.0992941 0.0775695 0.0582455 0.0415782 0.0264712 0.0148106 0.00687366 0.00168579 1.79273e-26 0 0.00141025 0.00553303 0.0131338 0.0221239 0.0356471 0.0503401 0.0669265 0.0857784 0.106037 0.127276 0.133392 0.172672 0.196392 0.21945 0.242115 0.263952 0.283853 0.283726 0.313652 0.341762 0.354117 0.364716 0.37286 0.378757 0.380738 0.381017 0.37819 0.372522 0.363305 0.351234 0.337451 0.320839 0.301761 0.280557 0.257863 0.234273 0.209808 0.193315 0.164191 0.136327 0.112599 0.0909218 0.0710034 0.0531405 0.0378294 0.0243109 0.0135538 0.00608177 0.00151101 1.63352e-26 0 0.00124367 0.00497406 0.0115558 0.0201459 0.0315383 0.0447248 0.0590797 0.0756412 0.093462 0.112127 0.128422 0.152347 0.173231 0.193645 0.213639 0.232681 0.249429 0.268447 0.284607 0.297035 0.306451 0.318512 0.330431 0.335763 0.338067 0.338474 0.335771 0.331314 0.323183 0.313065 0.300966 0.286329 0.269383 0.250359 0.230286 0.20959 0.187754 0.164152 0.143272 0.125875 0.100815 0.0811576 0.0633271 0.047319 0.0334619 0.0219426 0.0121424 0.00538208 0.00136761 1.45272e-26 0 0.00107286 0.00430262 0.0098579 0.0173763 0.0269282 0.0380805 0.0505452 0.0647151 0.0797118 0.0951266 0.110919 0.12969 0.14737 0.164798 0.18179 0.197908 0.211901 0.229389 0.244031 0.255892 0.266282 0.275152 0.281685 0.287807 0.290806 0.290851 0.288939 0.285655 0.278891 0.270696 0.260356 0.247744 0.232918 0.216463 0.199355 0.181359 0.162908 0.141669 0.134738 0.172847 0.0873069 0.06998 0.0546676 0.0408086 0.0287951 0.0206465 0.0104411 0.00462606 0.00119397 1.25467e-26 0 0.000878295 0.00361399 0.0079348 0.0140998 0.0218642 0.030946 0.0408863 0.0521976 0.0644164 0.0773369 0.0896348 0.104942 0.119207 0.133285 0.147096 0.16016 0.169109 0.185981 0.198142 0.208304 0.217382 0.224846 0.230828 0.235582 0.238511 0.23892 0.238132 0.236322 0.235326 0.22642 0.213635 0.205154 0.192806 0.178055 0.163556 0.151452 0.136698 0.119534 0.103169 0.088457 0.0724785 0.0580715 0.0452259 0.0337348 0.023749 0.015437 0.00859724 0.00381081 0.000972043 1.03466e-26 0 0.000668018 0.00272693 0.00609884 0.0106853 0.0164155 0.0230403 0.0307573 0.0392097 0.0484441 0.0583497 0.0671466 0.0785103 0.0891161 0.0996205 0.109969 0.119802 0.12781 0.139651 0.149373 0.157455 0.164726 0.170645 0.175947 0.179022 0.180268 0.185309 0.185447 0.180509 0.177857 0.173856 0.169223 0.158041 0.147753 0.15054 0.131036 0.116187 0.103989 0.0937903 0.0798344 0.0678024 0.120018 0.0452296 0.0350351 0.0261127 0.0183281 0.0118272 0.006627 0.00294489 0.000756792 7.82927e-27 0 0.000453122 0.00183792 0.00405183 0.00713568 0.0109226 0.0123777 0.0203069 0.0259835 0.0319688 0.0296566 0.0429629 0.0506925 0.0574767 0.0643177 0.071098 0.0776167 0.0841908 0.0898863 0.0982032 0.104277 0.109348 0.113173 0.117757 0.120091 0.121636 0.122992 0.124264 0.12338 0.122527 0.116053 0.111418 0.114756 0.104396 0.0953135 0.093252 0.0813736 0.0724236 0.0639189 0.0557605 0.0473394 0.0391736 0.0313276 0.0243697 0.0181008 0.0126699 0.00815331 0.00457706 0.00199293 0.000501243 5.33142e-27 0 0.000222336 0.00089563 0.00191941 0.00333759 0.00500336 0.00650463 0.00964738 0.0119021 0.0111474 16.8105 0.0189276 0.0218757 0.0248648 0.0279357 0.0310891 0.0339642 0.034322 0.0359963 0.0335449 0.0434976 0.0455377 0.0455928 0.0483512 0.0598392 0.0619064 0.0625747 0.0656135 0.0656788 0.0671966 0.063398 0.0612342 0.0581032 0.0615115 0.0495985 0.0453174 0.0416556 0.040526 0.0362423 0.030825 0.0262484 0.0218028 0.0171765 0.013307 0.0098281 0.00684173 0.00437061 0.00229782 0.00102597 0.000285757 2.86057e-27 0 -1.18378e-05 -6.91729e-05 -0.000211482 -0.00048594 -0.00091206 -0.00127666 -0.00116187 -0.00262059 -0.00422506 -0.00401708 -0.00610822 -0.00721658 -0.00812124 -0.00891565 -0.00950571 -0.010165 -0.0111598 -0.00749857 -0.00826854 -0.00816788 -0.00746592 -0.00615352 -0.00504724 -0.0181066 0.000285871 0.00142794 0.00801644 0.00739293 0.00576664 0.00674451 0.00920697 0.0101833 0.00524965 0.004822 0.00761463 0.00710758 0.00830718 0.00627392 0.00575262 0.00501653 0.00426745 0.0027784 0.00205128 0.0014139 0.000907086 0.00050918 0.000236915 8.46162e-05 6.59818e-05 4.13109e-29 0 -0.000260507 -0.00105796 -0.00241703 -0.00435584 -0.00684569 -0.00978783 -0.0132758 -0.0188957 -0.0212966 -0.024061 -0.0312331 -0.036297 -0.0409824 -0.0456714 -0.0500958 -0.0540879 -0.0585604 -0.0706022 -0.0604763 -0.0634627 -0.0647391 -0.0650084 -0.0652841 -0.0657603 -0.0596087 -0.0582808 -0.0575941 -0.0553204 -0.0470013 -0.043229 -0.044199 -0.0457295 -0.0427145 -0.034135 -0.011901 -0.00485017 -0.0255897 -0.0214483 -0.0187079 -0.0157787 -0.0127872 -0.011484 -0.00919968 -0.00699855 -0.0050246 -0.00333458 -1.97893 0.00113005 -0.000433868 -2.6291e-27 0 -0.000511888 -0.00204614 -0.00460638 -0.00818928 -0.0127557 -0.0182601 -0.0243656 -0.0337016 -0.0389979 -0.0494461 -0.0603194 -0.0651685 -0.0734152 -0.0818534 -0.0899932 -0.0973559 -0.104363 -0.113198 -0.134376 -0.118345 -0.122 -0.123756 -0.124894 -0.125468 -0.123019 -0.120627 -0.117866 -0.114308 -0.109306 -0.0998994 -0.0924859 -0.087424 -0.0869746 -0.0658388 -0.0720094 -0.0641121 -0.0578173 -0.0500899 -0.0428198 -0.0364084 -0.0296522 -0.0252903 -0.0203034 -0.0153003 -0.010874 -0.00711143 -0.004023 -0.00180143 -0.000479139 -5.24108e-27 0 -0.000761994 -0.00302338 -0.00675977 -0.0119421 -0.0184992 -0.0263219 -0.0352614 -0.0453028 -0.05676 -0.0670834 -0.0837575 -0.0948455 -0.105116 -0.116899 -0.128515 -0.139346 -0.149323 -0.158523 -0.169889 -0.183648 -0.177353 -0.181048 -0.18308 -0.184104 -0.182133 -0.179496 -0.175911 -0.169952 -0.159718 -0.156861 -0.149665 -0.140959 -0.121991 -0.120838 -0.11068 -0.100315 -0.0891495 -0.078441 -0.0681643 -0.0568986 -0.0380557 -0.0387323 -0.0310583 -0.0233475 -0.0165445 -0.0107716 -0.00612417 -0.002741 -0.00024627 -7.77126e-27 0 -0.00100508 -0.00396671 -0.00882368 -0.0155275 -0.0239742 -0.034038 -0.0456339 -0.0585861 -0.0724065 -0.0873795 -0.0573235 -0.154768 -0.135265 -0.150223 -0.16512 -0.17937 -0.192444 -0.204181 -0.214853 -0.224704 -0.233212 -0.243767 -0.253443 -0.249796 -0.262848 -0.235385 0.445598 -0.218122 -0.220263 -0.211961 -0.198321 -0.187558 -0.172829 -0.160626 -0.147719 -0.13408 -0.118409 -0.105245 -0.0914933 -0.0778246 -0.0630185 -0.0518862 -0.0412823 -0.0310151 -0.0219425 -0.0142456 -0.00804756 -0.00360012 -0.00052392 -1.01804e-26 0 -0.0012376 -0.00486124 -0.0107665 -0.0188862 -0.0290923 -0.0412354 -0.0552051 -0.0708116 -0.087288 -0.104923 -0.123376 -0.142512 -0.164792 -0.181267 -0.198954 -0.216309 -0.232539 -0.246939 -0.259463 -0.27044 -0.279901 -0.286938 -0.290747 -0.291801 -0.291362 -0.288531 -0.283797 -0.277284 -0.268232 -0.255338 -0.241551 -0.228849 -0.213438 -0.198505 -0.182274 -0.164775 -0.144413 -0.129434 -0.112966 -0.0960348 -0.0748914 -0.0645381 -0.0508744 -0.038189 -0.0269906 -0.0174959 -0.00987268 -0.00441743 -0.00106299 -1.24304e-26 0 -0.00144895 -0.00567727 -0.0125436 -0.0219444 -0.0337316 -0.0477353 -0.063777 -0.0817052 -0.10114 -0.12147 -0.143232 -0.112136 -0.245084 -0.210404 -0.230005 -0.249845 -0.268736 -0.285857 -0.300718 -0.313451 -0.324039 -0.33195 -0.337177 -0.339137 -0.3392 -0.336227 -0.330854 -0.323104 -0.306618 2.83117 -0.271926 -0.25955 -0.252969 -0.230002 -0.211477 -0.191032 -0.172186 -0.153193 -0.13129 -0.0928501 -0.0768067 -0.0760429 -0.0596695 -0.0447537 -0.0316063 -0.0204635 -0.0115871 -0.00519168 -0.00132992 -1.44843e-26 0 -0.00163762 -0.00640326 -0.0141197 -0.0246573 -0.037815 -0.0534447 -0.0713713 -0.0914268 -0.113334 -0.136237 -0.159934 -0.185225 -0.166158 -0.28387 -0.258619 -0.280133 -0.300922 -0.32018 -0.337177 -0.351791 -0.363626 -0.372593 -0.378776 -0.381436 -0.381736 -0.378733 -0.372739 -0.362796 -0.0472594 -0.338867 -0.323378 -0.305784 -0.285326 -0.244296 -0.187732 -0.219729 -0.195501 -0.173404 -0.15081 -0.127376 -0.103142 -0.0860803 -0.0674964 -0.0506013 -0.0357095 -0.0230833 -0.0131435 -0.00589472 -0.0014983 -1.63095e-26 0 -0.00180422 -0.0070161 -0.0154392 -0.0269819 -0.0414204 -0.0584514 -0.0782375 -0.100199 -0.123399 -0.148387 -0.174388 -0.200987 -0.230106 -0.0510624 -0.336079 -0.306031 -0.329088 -0.349617 -0.368271 -0.384514 -0.397603 -0.407586 -0.414597 -0.417817 -0.418289 -0.415192 -0.408123 -0.39705 -0.387086 -0.372381 -0.355125 -0.335929 -0.313687 -176.686 -0.264519 -0.236262 -0.216778 -0.190938 -0.166309 -0.141112 -0.115431 -0.0947182 -0.074236 -0.0556326 -0.0392295 -0.025293 -0.0144735 -0.00649993 -0.00164288 -1.78786e-26 0 -0.00194395 -0.00754607 -0.0165473 -0.0289192 -0.0445538 -0.0626996 -0.0840442 -0.107603 -0.132153 -0.158566 -0.186204 -0.214816 -0.245209 -0.279951 -0.108694 -0.375879 -0.350906 -0.37399 -0.394264 -0.411598 -0.425578 -0.436475 -0.444194 -0.447753 -0.448257 -0.444884 -0.427152 4.84881 -0.415485 -0.399496 -0.380997 -0.360389 -0.336876 -0.367395 -0.453057 -0.434806 -0.229784 -0.20607 -0.179081 -0.151966 -0.125378 -0.101954 -0.0798022 -0.0597633 -0.0421258 -0.0271442 -0.0155416 -0.00696845 -0.00176053 -1.91656e-26 0 -0.00204972 -0.00800921 -0.0174891 -0.030406 -0.046583 -0.0657102 -0.0875831 -0.112051 -0.138286 -0.166169 -0.19571 -0.226562 -0.258526 -0.289113 -0.317467 -0.347553 -0.177123 -0.413845 -0.419219 -0.433196 -0.447314 -0.459483 -0.468782 -0.472178 -0.468139 -0.432394 -0.462056 -0.450937 -0.437072 -0.420365 -0.401077 -0.379211 -0.353422 -0.29521 -0.296985 -0.27414 -0.244974 -0.215385 -0.188792 -0.160038 -0.132692 -0.107548 -0.0840921 -0.0629365 -0.0443575 -0.0286125 -0.0162641 -0.00737139 -0.00185293 -2.01489e-26 0 -0.00214784 -0.00827126 -0.0180507 -0.0313471 -0.0479587 -0.0676795 -0.0902346 -0.115395 -0.142392 -0.171107 -0.201504 -0.235101 -0.268084 -0.298574 -0.327816 -0.355324 -0.381088 -0.405276 -0.426556 -0.445252 -0.460846 -0.472832 -0.482581 -0.48657 -0.486389 -0.483646 -0.4769 -0.466544 -0.451766 -0.433847 -0.413862 -0.390378 -0.353187 -0.338447 -0.312119 -0.283921 -0.250925 -0.210078 -0.195639 -0.164673 -0.137653 -0.111396 -0.0870386 -0.0650999 -0.0458531 -0.0295363 -0.0167808 -0.00761712 -0.0019144 -2.08135e-26 0 -0.0021653 -0.00836114 -0.0182744 -0.0317621 -0.0485691 -0.0685251 -0.0913234 -0.116746 -0.144143 -0.173278 -0.20424 -0.238663 -0.271923 -0.302563 -0.332275 -0.360027 -0.386306 -0.410643 -0.432051 -0.450984 -0.466532 -0.480274 -0.488261 -0.493553 -0.4943 -0.491605 -0.484697 -0.474365 -0.460497 -0.442521 -0.408839 -0.399784 -0.375105 -0.347932 -0.319061 -0.288573 -0.253872 -0.229754 -0.199092 -0.166589 -0.140136 -0.113419 -0.0886183 -0.0662378 -0.0465904 -0.0298812 -46.1493 -0.00773135 -0.00194524 -2.11491e-26 0 -0.00214517 -0.0083038 -0.0182197 -0.0318054 -0.0488787 -0.0689448 -0.0918153 -0.11687 -0.144095 -0.173261 -0.204359 -0.238177 -0.271471 -0.301935 -0.331583 -0.35979 -0.386446 -0.410798 -0.43222 -0.451057 -0.466544 -0.480216 -0.488344 -0.493225 -0.494324 -0.491616 -0.484708 -0.474598 -0.460784 -30.7176 -0.418957 -0.399413 -0.374846 -0.347953 -0.319413 -0.290735 -0.2597 -0.229699 -0.199032 -0.167484 -0.139844 -0.113251 -0.0885784 -0.0662123 -0.0463712 -0.0263719 -0.0164938 -0.0077102 -0.0019453 -2.11518e-26 0 -0.00214073 -0.00822517 -0.0180026 -0.0312639 -0.0478176 -0.0674047 -0.0899045 -0.114733 -0.141621 -0.170468 -0.201948 -0.234835 -0.26588 -0.295547 -0.324691 -0.352602 -0.378242 -0.401906 -0.42434 -0.442856 -0.457751 -0.471976 -0.480434 -0.485392 -0.486583 -0.48411 -0.477491 -0.467003 -0.448919 -0.435493 -0.414173 -0.396474 -0.371126 -0.344109 -0.316373 -0.287126 -0.256878 -0.224591 -0.195513 -0.166223 -0.138426 -0.111852 -0.0866046 -0.0651478 -0.0461216 -0.0298869 -0.0169504 -0.00757649 -0.0019154 -2.0821e-26 0 -0.00206568 -0.00797046 -0.0174186 -0.0302722 -0.0463344 -0.0653628 -0.0870826 -0.111113 -0.137153 -0.165502 -0.197023 -0.228137 -0.257854 -0.286129 -0.31407 -0.341024 -0.366133 -0.389049 -0.410112 -0.430435 -0.444566 -0.456495 -0.464561 -0.469805 -0.471096 -0.468746 -0.462382 -0.452488 -0.43825 1.17763 -0.404134 -0.383189 -0.361145 -0.333777 -0.306574 -0.278262 -0.243153 -0.217711 -0.189202 -0.161168 -0.1339 -0.107992 -0.0