<?xml version="1.0"?>
<VTKFile type="PolyData">
	<PolyData>
		<Piece NumberOfPoints="2601" NumberOfPolys="2500">
			<Points>
				<DataArray type="Float32" NumberOfComponents="3" format="ascii">
 0 0 0 0.02 0 0 0.04 0 0 0.06 0 0 0.08 0 0 0.1 0 0 0.12 0 0 0.14 0 0 0.16 0 0 0.18 0 0 0.2 0 0 0.22 0 0 0.24 0 0 0.26 0 0 0.28 0 0 0.3 0 0 0.32 0 0 0.34 0 0 0.36 0 0 0.38 0 0 0.4 0 0 0.42 0 0 0.44 0 0 0.46 0 0 0.48 0 0 0.5 0 0 0.52 0 0 0.54 0 0 0.56 0 0 0.58 0 0 0.6 0 0 0.62 0 0 0.64 0 0 0.66 0 0 0.68 0 0 0.7 0 0 0.72 0 0 0.74 0 0 0.76 0 0 0.78 0 0 0.8 0 0 0.82 0 0 0.84 0 0 0.86 0 0 0.88 0 0 0.9 0 0 0.92 0 0 0.94 0 0 0.96 0 0 0.98 0 0 1 0 0 0 0.02 0 0.02 0.02 0 0.04 0.02 0 0.06 0.02 0 0.08 0.02 0 0.1 0.02 0 0.12 0.02 0 0.14 0.02 0 0.16 0.02 0 0.18 0.02 0 0.2 0.02 0 0.22 0.02 0 0.24 0.02 0 0.26 0.02 0 0.28 0.02 0 0.3 0.02 0 0.32 0.02 0 0.34 0.02 0 0.36 0.02 0 0.38 0.02 0 0.4 0.02 0 0.42 0.02 0 0.44 0.02 0 0.46 0.02 0 0.48 0.02 0 0.5 0.02 0 0.52 0.02 0 0.54 0.02 0 0.56 0.02 0 0.58 0.02 0 0.6 0.02 0 0.62 0.02 0 0.64 0.02 0 0.66 0.02 0 0.68 0.02 0 0.7 0.02 0 0.72 0.02 0 0.74 0.02 0 0.76 0.02 0 0.78 0.02 0 0.8 0.02 0 0.82 0.02 0 0.84 0.02 0 0.86 0.02 0 0.88 0.02 0 0.9 0.02 0 0.92 0.02 0 0.94 0.02 0 0.96 0.02 0 0.98 0.02 0 1 0.02 0 0 0.04 0 0.02 0.04 0 0.04 0.04 0 0.06 0.04 0 0.08 0.04 0 0.1 0.04 0 0.12 0.04 0 0.14 0.04 0 0.16 0.04 0 0.18 0.04 0 0.2 0.04 0 0.22 0.04 0 0.24 0.04 0 0.26 0.04 0 0.28 0.04 0 0.3 0.04 0 0.32 0.04 0 0.34 0.04 0 0.36 0.04 0 0.38 0.04 0 0.4 0.04 0 0.42 0.04 0 0.44 0.04 0 0.46 0.04 0 0.48 0.04 0 0.5 0.04 0 0.52 0.04 0 0.54 0.04 0 0.56 0.04 0 0.58 0.04 0 0.6 0.04 0 0.62 0.04 0 0.64 0.04 0 0.66 0.04 0 0.68 0.04 0 0.7 0.04 0 0.72 0.04 0 0.74 0.04 0 0.76 0.04 0 0.78 0.04 0 0.8 0.04 0 0.82 0.04 0 0.84 0.04 0 0.86 0.04 0 0.88 0.04 0 0.9 0.04 0 0.92 0.04 0 0.94 0.04 0 0.96 0.04 0 0.98 0.04 0 1 0.04 0 0 0.06 0 0.02 0.06 0 0.04 0.06 0 0.06 0.06 0 0.08 0.06 0 0.1 0.06 0 0.12 0.06 0 0.14 0.06 0 0.16 0.06 0 0.18 0.06 0 0.2 0.06 0 0.22 0.06 0 0.24 0.06 0 0.26 0.06 0 0.28 0.06 0 0.3 0.06 0 0.32 0.06 0 0.34 0.06 0 0.36 0.06 0 0.38 0.06 0 0.4 0.06 0 0.42 0.06 0 0.44 0.06 0 0.46 0.06 0 0.48 0.06 0 0.5 0.06 0 0.52 0.06 0 0.54 0.06 0 0.56 0.06 0 0.58 0.06 0 0.6 0.06 0 0.62 0.06 0 0.64 0.06 0 0.66 0.06 0 0.68 0.06 0 0.7 0.06 0 0.72 0.06 0 0.74 0.06 0 0.76 0.06 0 0.78 0.06 0 0.8 0.06 0 0.82 0.06 0 0.84 0.06 0 0.86 0.06 0 0.88 0.06 0 0.9 0.06 0 0.92 0.06 0 0.94 0.06 0 0.96 0.06 0 0.98 0.06 0 1 0.06 0 0 0.08 0 0.02 0.08 0 0.04 0.08 0 0.06 0.08 0 0.08 0.08 0 0.1 0.08 0 0.12 0.08 0 0.14 0.08 0 0.16 0.08 0 0.18 0.08 0 0.2 0.08 0 0.22 0.08 0 0.24 0.08 0 0.26 0.08 0 0.28 0.08 0 0.3 0.08 0 0.32 0.08 0 0.34 0.08 0 0.36 0.08 0 0.38 0.08 0 0.4 0.08 0 0.42 0.08 0 0.44 0.08 0 0.46 0.08 0 0.48 0.08 0 0.5 0.08 0 0.52 0.08 0 0.54 0.08 0 0.56 0.08 0 0.58 0.08 0 0.6 0.08 0 0.62 0.08 0 0.64 0.08 0 0.66 0.08 0 0.68 0.08 0 0.7 0.08 0 0.72 0.08 0 0.74 0.08 0 0.76 0.08 0 0.78 0.08 0 0.8 0.08 0 0.82 0.08 0 0.84 0.08 0 0.86 0.08 0 0.88 0.08 0 0.9 0.08 0 0.92 0.08 0 0.94 0.08 0 0.96 0.08 0 0.98 0.08 0 1 0.08 0 0 0.1 0 0.02 0.1 0 0.04 0.1 0 0.06 0.1 0 0.08 0.1 0 0.1 0.1 0 0.12 0.1 0 0.14 0.1 0 0.16 0.1 0 0.18 0.1 0 0.2 0.1 0 0.22 0.1 0 0.24 0.1 0 0.26 0.1 0 0.28 0.1 0 0.3 0.1 0 0.32 0.1 0 0.34 0.1 0 0.36 0.1 0 0.38 0.1 0 0.4 0.1 0 0.42 0.1 0 0.44 0.1 0 0.46 0.1 0 0.48 0.1 0 0.5 0.1 0 0.52 0.1 0 0.54 0.1 0 0.56 0.1 0 0.58 0.1 0 0.6 0.1 0 0.62 0.1 0 0.64 0.1 0 0.66 0.1 0 0.68 0.1 0 0.7 0.1 0 0.72 0.1 0 0.74 0.1 0 0.76 0.1 0 0.78 0.1 0 0.8 0.1 0 0.82 0.1 0 0.84 0.1 0 0.86 0.1 0 0.88 0.1 0 0.9 0.1 0 0.92 0.1 0 0.94 0.1 0 0.96 0.1 0 0.98 0.1 0 1 0.1 0 0 0.12 0 0.02 0.12 0 0.04 0.12 0 0.06 0.12 0 0.08 0.12 0 0.1 0.12 0 0.12 0.12 0 0.14 0.12 0 0.16 0.12 0 0.18 0.12 0 0.2 0.12 0 0.22 0.12 0 0.24 0.12 0 0.26 0.12 0 0.28 0.12 0 0.3 0.12 0 0.32 0.12 0 0.34 0.12 0 0.36 0.12 0 0.38 0.12 0 0.4 0.12 0 0.42 0.12 0 0.44 0.12 0 0.46 0.12 0 0.48 0.12 0 0.5 0.12 0 0.52 0.12 0 0.54 0.12 0 0.56 0.12 0 0.58 0.12 0 0.6 0.12 0 0.62 0.12 0 0.64 0.12 0 0.66 0.12 0 0.68 0.12 0 0.7 0.12 0 0.72 0.12 0 0.74 0.12 0 0.76 0.12 0 0.78 0.12 0 0.8 0.12 0 0.82 0.12 0 0.84 0.12 0 0.86 0.12 0 0.88 0.12 0 0.9 0.12 0 0.92 0.12 0 0.94 0.12 0 0.96 0.12 0 0.98 0.12 0 1 0.12 0 0 0.14 0 0.02 0.14 0 0.04 0.14 0 0.06 0.14 0 0.08 0.14 0 0.1 0.14 0 0.12 0.14 0 0.14 0.14 0 0.16 0.14 0 0.18 0.14 0 0.2 0.14 0 0.22 0.14 0 0.24 0.14 0 0.26 0.14 0 0.28 0.14 0 0.3 0.14 0 0.32 0.14 0 0.34 0.14 0 0.36 0.14 0 0.38 0.14 0 0.4 0.14 0 0.42 0.14 0 0.44 0.14 0 0.46 0.14 0 0.48 0.14 0 0.5 0.14 0 0.52 0.14 0 0.54 0.14 0 0.56 0.14 0 0.58 0.14 0 0.6 0.14 0 0.62 0.14 0 0.64 0.14 0 0.66 0.14 0 0.68 0.14 0 0.7 0.14 0 0.72 0.14 0 0.74 0.14 0 0.76 0.14 0 0.78 0.14 0 0.8 0.14 0 0.82 0.14 0 0.84 0.14 0 0.86 0.14 0 0.88 0.14 0 0.9 0.14 0 0.92 0.14 0 0.94 0.14 0 0.96 0.14 0 0.98 0.14 0 1 0.14 0 0 0.16 0 0.02 0.16 0 0.04 0.16 0 0.06 0.16 0 0.08 0.16 0 0.1 0.16 0 0.12 0.16 0 0.14 0.16 0 0.16 0.16 0 0.18 0.16 0 0.2 0.16 0 0.22 0.16 0 0.24 0.16 0 0.26 0.16 0 0.28 0.16 0 0.3 0.16 0 0.32 0.16 0 0.34 0.16 0 0.36 0.16 0 0.38 0.16 0 0.4 0.16 0 0.42 0.16 0 0.44 0.16 0 0.46 0.16 0 0.48 0.16 0 0.5 0.16 0 0.52 0.16 0 0.54 0.16 0 0.56 0.16 0 0.58 0.16 0 0.6 0.16 0 0.62 0.16 0 0.64 0.16 0 0.66 0.16 0 0.68 0.16 0 0.7 0.16 0 0.72 0.16 0 0.74 0.16 0 0.76 0.16 0 0.78 0.16 0 0.8 0.16 0 0.82 0.16 0 0.84 0.16 0 0.86 0.16 0 0.88 0.16 0 0.9 0.16 0 0.92 0.16 0 0.94 0.16 0 0.96 0.16 0 0.98 0.16 0 1 0.16 0 0 0.18 0 0.02 0.18 0 0.04 0.18 0 0.06 0.18 0 0.08 0.18 0 0.1 0.18 0 0.12 0.18 0 0.14 0.18 0 0.16 0.18 0 0.18 0.18 0 0.2 0.18 0 0.22 0.18 0 0.24 0.18 0 0.26 0.18 0 0.28 0.18 0 0.3 0.18 0 0.32 0.18 0 0.34 0.18 0 0.36 0.18 0 0.38 0.18 0 0.4 0.18 0 0.42 0.18 0 0.44 0.18 0 0.46 0.18 0 0.48 0.18 0 0.5 0.18 0 0.52 0.18 0 0.54 0.18 0 0.56 0.18 0 0.58 0.18 0 0.6 0.18 0 0.62 0.18 0 0.64 0.18 0 0.66 0.18 0 0.68 0.18 0 0.7 0.18 0 0.72 0.18 0 0.74 0.18 0 0.76 0.18 0 0.78 0.18 0 0.8 0.18 0 0.82 0.18 0 0.84 0.18 0 0.86 0.18 0 0.88 0.18 0 0.9 0.18 0 0.92 0.18 0 0.94 0.18 0 0.96 0.18 0 0.98 0.18 0 1 0.18 0 0 0.2 0 0.02 0.2 0 0.04 0.2 0 0.06 0.2 0 0.08 0.2 0 0.1 0.2 0 0.12 0.2 0 0.14 0.2 0 0.16 0.2 0 0.18 0.2 0 0.2 0.2 0 0.22 0.2 0 0.24 0.2 0 0.26 0.2 0 0.28 0.2 0 0.3 0.2 0 0.32 0.2 0 0.34 0.2 0 0.36 0.2 0 0.38 0.2 0 0.4 0.2 0 0.42 0.2 0 0.44 0.2 0 0.46 0.2 0 0.48 0.2 0 0.5 0.2 0 0.52 0.2 0 0.54 0.2 0 0.56 0.2 0 0.58 0.2 0 0.6 0.2 0 0.62 0.2 0 0.64 0.2 0 0.66 0.2 0 0.68 0.2 0 0.7 0.2 0 0.72 0.2 0 0.74 0.2 0 0.76 0.2 0 0.78 0.2 0 0.8 0.2 0 0.82 0.2 0 0.84 0.2 0 0.86 0.2 0 0.88 0.2 0 0.9 0.2 0 0.92 0.2 0 0.94 0.2 0 0.96 0.2 0 0.98 0.2 0 1 0.2 0 0 0.22 0 0.02 0.22 0 0.04 0.22 0 0.06 0.22 0 0.08 0.22 0 0.1 0.22 0 0.12 0.22 0 0.14 0.22 0 0.16 0.22 0 0.18 0.22 0 0.2 0.22 0 0.22 0.22 0 0.24 0.22 0 0.26 0.22 0 0.28 0.22 0 0.3 0.22 0 0.32 0.22 0 0.34 0.22 0 0.36 0.22 0 0.38 0.22 0 0.4 0.22 0 0.42 0.22 0 0.44 0.22 0 0.46 0.22 0 0.48 0.22 0 0.5 0.22 0 0.52 0.22 0 0.54 0.22 0 0.56 0.22 0 0.58 0.22 0 0.6 0.22 0 0.62 0.22 0 0.64 0.22 0 0.66 0.22 0 0.68 0.22 0 0.7 0.22 0 0.72 0.22 0 0.74 0.22 0 0.76 0.22 0 0.78 0.22 0 0.8 0.22 0 0.82 0.22 0 0.84 0.22 0 0.86 0.22 0 0.88 0.22 0 0.9 0.22 0 0.92 0.22 0 0.94 0.22 0 0.96 0.22 0 0.98 0.22 0 1 0.22 0 0 0.24 0 0.02 0.24 0 0.04 0.24 0 0.06 0.24 0 0.08 0.24 0 0.1 0.24 0 0.12 0.24 0 0.14 0.24 0 0.16 0.24 0 0.18 0.24 0 0.2 0.24 0 0.22 0.24 0 0.24 0.24 0 0.26 0.24 0 0.28 0.24 0 0.3 0.24 0 0.32 0.24 0 0.34 0.24 0 0.36 0.24 0 0.38 0.24 0 0.4 0.24 0 0.42 0.24 0 0.44 0.24 0 0.46 0.24 0 0.48 0.24 0 0.5 0.24 0 0.52 0.24 0 0.54 0.24 0 0.56 0.24 0 0.58 0.24 0 0.6 0.24 0 0.62 0.24 0 0.64 0.24 0 0.66 0.24 0 0.68 0.24 0 0.7 0.24 0 0.72 0.24 0 0.74 0.24 0 0.76 0.24 0 0.78 0.24 0 0.8 0.24 0 0.82 0.24 0 0.84 0.24 0 0.86 0.24 0 0.88 0.24 0 0.9 0.24 0 0.92 0.24 0 0.94 0.24 0 0.96 0.24 0 0.98 0.24 0 1 0.24 0 0 0.26 0 0.02 0.26 0 0.04 0.26 0 0.06 0.26 0 0.08 0.26 0 0.1 0.26 0 0.12 0.26 0 0.14 0.26 0 0.16 0.26 0 0.18 0.26 0 0.2 0.26 0 0.22 0.26 0 0.24 0.26 0 0.26 0.26 0 0.28 0.26 0 0.3 0.26 0 0.32 0.26 0 0.34 0.26 0 0.36 0.26 0 0.38 0.26 0 0.4 0.26 0 0.42 0.26 0 0.44 0.26 0 0.46 0.26 0 0.48 0.26 0 0.5 0.26 0 0.52 0.26 0 0.54 0.26 0 0.56 0.26 0 0.58 0.26 0 0.6 0.26 0 0.62 0.26 0 0.64 0.26 0 0.66 0.26 0 0.68 0.26 0 0.7 0.26 0 0.72 0.26 0 0.74 0.26 0 0.76 0.26 0 0.78 0.26 0 0.8 0.26 0 0.82 0.26 0 0.84 0.26 0 0.86 0.26 0 0.88 0.26 0 0.9 0.26 0 0.92 0.26 0 0.94 0.26 0 0.96 0.26 0 0.98 0.26 0 1 0.26 0 0 0.28 0 0.02 0.28 0 0.04 0.28 0 0.06 0.28 0 0.08 0.28 0 0.1 0.28 0 0.12 0.28 0 0.14 0.28 0 0.16 0.28 0 0.18 0.28 0 0.2 0.28 0 0.22 0.28 0 0.24 0.28 0 0.26 0.28 0 0.28 0.28 0 0.3 0.28 0 0.32 0.28 0 0.34 0.28 0 0.36 0.28 0 0.38 0.28 0 0.4 0.28 0 0.42 0.28 0 0.44 0.28 0 0.46 0.28 0 0.48 0.28 0 0.5 0.28 0 0.52 0.28 0 0.54 0.28 0 0.56 0.28 0 0.58 0.28 0 0.6 0.28 0 0.62 0.28 0 0.64 0.28 0 0.66 0.28 0 0.68 0.28 0 0.7 0.28 0 0.72 0.28 0 0.74 0.28 0 0.76 0.28 0 0.78 0.28 0 0.8 0.28 0 0.82 0.28 0 0.84 0.28 0 0.86 0.28 0 0.88 0.28 0 0.9 0.28 0 0.92 0.28 0 0.94 0.28 0 0.96 0.28 0 0.98 0.28 0 1 0.28 0 0 0.3 0 0.02 0.3 0 0.04 0.3 0 0.06 0.3 0 0.08 0.3 0 0.1 0.3 0 0.12 0.3 0 0.14 0.3 0 0.16 0.3 0 0.18 0.3 0 0.2 0.3 0 0.22 0.3 0 0.24 0.3 0 0.26 0.3 0 0.28 0.3 0 0.3 0.3 0 0.32 0.3 0 0.34 0.3 0 0.36 0.3 0 0.38 0.3 0 0.4 0.3 0 0.42 0.3 0 0.44 0.3 0 0.46 0.3 0 0.48 0.3 0 0.5 0.3 0 0.52 0.3 0 0.54 0.3 0 0.56 0.3 0 0.58 0.3 0 0.6 0.3 0 0.62 0.3 0 0.64 0.3 0 0.66 0.3 0 0.68 0.3 0 0.7 0.3 0 0.72 0.3 0 0.74 0.3 0 0.76 0.3 0 0.78 0.3 0 0.8 0.3 0 0.82 0.3 0 0.84 0.3 0 0.86 0.3 0 0.88 0.3 0 0.9 0.3 0 0.92 0.3 0 0.94 0.3 0 0.96 0.3 0 0.98 0.3 0 1 0.3 0 0 0.32 0 0.02 0.32 0 0.04 0.32 0 0.06 0.32 0 0.08 0.32 0 0.1 0.32 0 0.12 0.32 0 0.14 0.32 0 0.16 0.32 0 0.18 0.32 0 0.2 0.32 0 0.22 0.32 0 0.24 0.32 0 0.26 0.32 0 0.28 0.32 0 0.3 0.32 0 0.32 0.32 0 0.34 0.32 0 0.36 0.32 0 0.38 0.32 0 0.4 0.32 0 0.42 0.32 0 0.44 0.32 0 0.46 0.32 0 0.48 0.32 0 0.5 0.32 0 0.52 0.32 0 0.54 0.32 0 0.56 0.32 0 0.58 0.32 0 0.6 0.32 0 0.62 0.32 0 0.64 0.32 0 0.66 0.32 0 0.68 0.32 0 0.7 0.32 0 0.72 0.32 0 0.74 0.32 0 0.76 0.32 0 0.78 0.32 0 0.8 0.32 0 0.82 0.32 0 0.84 0.32 0 0.86 0.32 0 0.88 0.32 0 0.9 0.32 0 0.92 0.32 0 0.94 0.
[...]
			<PointData Scalars="VitesseX">
				<DataArray Name="VitesseX" type="Float32" format="ascii">
 0 0 0 0 0 0 0 0 0 0 0 0 0 0 0 0 0 0 0 0 0 0 0 0 0 0 0 0 0 0 0 0 0 0 0 0 0 0 0 0 0 0 0 0 0 0 0 0 0 0 0 0 0.000426346 0.00173954 0.0037292 0.00666005 0.0100786 0.0143228 0.0192889 0.0244733 0.0301003 0.0361289 0.0424729 0.0489721 0.0554961 0.0619336 0.0682081 0.0741471 0.0795388 0.0847045 0.0895701 0.093813 0.0951158 0.0983584 0.101534 0.103476 0.100388 0.0773918 0.0231496 0.0978202 0.095138 0.0916977 0.0876263 0.0829948 0.0778535 0.0722934 0.0664006 0.0602295 0.0539127 0.0475682 0.0412501 0.0350894 0.0291645 0.0236664 0.0185399 0.0138847 0.00982073 0.00638549 0.00371886 0.00166787 0.000412887 4.3371e-27 0 0.000813164 0.00325178 0.0071868 0.0173655 0.0194518 0.0276646 0.0370667 0.0474686 0.0586878 0.070407 0.0826743 0.0954134 0.108133 0.120878 0.13306 0.144911 0.156045 0.16604 0.175089 0.183116 0.188969 0.193521 0.197766 0.200508 0.201036 0.198136 0.179418 0.160043 0.187702 0.183048 0.174791 0.1656 0.154862 0.143795 0.132119 0.119909 0.107318 0.0946831 0.0822402 0.0699326 0.0581801 0.0470623 0.0368131 0.0275748 0.0194921 0.0126858 0.00725785 0.00329065 0.000842286 8.60625e-27 0 0.00118648 0.00473569 0.0105297 0.0166108 0.0286262 0.0405945 0.0543631 0.0696848 0.0860756 0.103409 0.12136 0.140228 0.158439 0.177304 0.19554 0.212986 0.229577 0.244733 0.258212 0.269911 0.279877 0.286574 0.292607 0.296403 0.297737 0.296805 0.29208 0.277317 0.270726 0.270917 0.25901 0.245084 0.229615 0.213192 0.195828 0.177686 0.158971 0.140267 0.12186 0.103602 0.0861782 0.0698362 0.0547491 0.0410447 0.0289153 0.0187699 0.0107601 0.00487843 0.00124727 1.27375e-26 0 0.00153825 0.0101591 0.0136624 0.0241135 0.0373203 0.0528617 -0.061621 0.0903044 0.11188 0.134724 0.158236 0.182816 0.206816 0.231613 0.255029 0.277589 0.299186 0.31898 0.336828 0.35232 0.365435 0.375933 0.38351 0.387816 0.389614 0.388405 0.383965 0.377054 0.366592 0.353031 0.343152 0.32024 0.300778 0.279499 0.256635 0.232187 0.20847 0.185137 0.160074 0.135689 0.112826 0.0910492 0.0709947 0.053169 0.0375783 0.0244119 0.0139539 0.00631361 0.00161231 1.66717e-26 0 0.00168983 0.0134317 0.01655 0.0461101 0.0452217 0.0643151 0.0815098 0.109607 0.135908 0.163782 0.192413 0.22232 0.250264 0.280841 0.310007 0.337549 0.363682 0.387779 0.409663 0.428769 0.44497 0.457939 0.467548 0.473913 0.473514 0.466447 0.466898 0.460266 0.447761 0.432445 0.414019 0.392531 0.368461 0.343149 0.325469 0.227238 0.256479 0.224841 0.194918 0.16528 0.138445 0.112271 0.0865068 0.064913 0.0459041 0.0298196 0.0170347 0.00770422 0.00196916 2.0337e-26 0 0.00202649 0.00801611 0.0192556 0.0273346 0.0524254 0.0746573 0.0992985 0.127627 0.157541 0.189919 0.223974 0.258641 0.289537 0.325819 0.359558 0.391701 0.4224 0.450376 0.475841 0.498139 0.517099 0.532434 0.543864 0.551343 0.553632 0.552433 0.538851 0.524926 0.519118 0.504231 0.481779 0.456528 0.428852 0.399088 0.365115 0.331513 0.297179 0.260867 0.227183 0.193178 0.160152 0.129576 0.0896003 0.0710898 0.0540276 0.0348123 0.0199059 0.00898942 0.00229848 2.36785e-26 0 0.00246487 0.00972858 0.0315398 0.0380067 0.0589596 0.078288 0.111689 0.142953 0.176754 0.212373 0.250694 0.287803 0.326941 0.366505 0.403642 0.439724 0.474064 0.505715 0.534571 0.560045 0.58163 0.599456 0.61096 0.6199 0.623433 0.622236 0.614957 0.60431 0.725972 0.572919 0.543402 0.514844 0.48402 0.450183 0.415481 0.371542 0.337548 0.304753 0.259557 0.217877 0.180574 0.146036 0.114519 0.0859976 0.0605886 0.039382 0.0225293 0.010204 0.00260671 2.66646e-26 0 0.00116169 0.00819261 0.0684712 0.0417676 0.0646019 0.0881779 0.122168 0.156424 0.192792 0.232314 0.271254 0.314678 0.358424 0.400471 0.441373 0.481059 0.518544 0.554758 0.586828 0.615017 0.636283 0.654637 0.668961 0.679463 0.68324 0.683606 0.674603 0.662795 0.647272 0.631296 0.596363 0.564983 0.531 0.494332 0.457181 0.409444 0.368885 0.330034 0.285478 0.238367 0.197894 0.160219 0.125409 0.0939941 0.0663672 0.0432024 0.0247051 0.0112017 0.00286628 2.92128e-26 0 0.00283074 0.00665424 0.0245659 0.0447672 0.057956 0.0972061 0.131186 0.16791 0.205333 0.244922 0.291191 0.3363 0.382196 0.427212 0.471577 0.511399 0.84164 0.605836 0.635526 0.659718 0.680643 0.70393 0.751084 0.729332 0.733505 0.726414 0.723541 0.708938 0.693383 0.675393 0.639073 0.605464 0.56906 0.529961 0.489336 0.439174 0.39431 0.350711 0.300908 0.255121 0.212277 0.171854 0.134358 0.100613 0.0711451 0.0463362 0.0265065 0.0120236 0.0030763 3.13022e-26 0 0.00302179 0.0120306 0.0267965 0.0471893 0.0676206 0.101607 0.137761 0.176048 0.21098 0.259036 0.307384 0.353219 0.396221 0.419189 -0.344395 0.54705 0.58788 0.623916 0.657166 0.688033 -1.9998 0.683635 0.732177 0.765728 0.769023 0.76775 0.7598 0.745549 0.725206 0.699036 0.66783 0.630673 0.558855 0.521033 0.520295 0.468218 0.415008 0.368313 0.337273 0.269495 0.223395 0.180653 0.141344 0.105866 0.0748616 0.0487349 0.0278944 0.0126529 0.00323731 3.29016e-26 0 0.00311882 0.012411 0.0277147 0.0487416 0.0746852 0.104937 0.142806 0.181978 0.224061 0.269748 0.317061 0.843378 0.413588 0.462572 0.510969 0.557852 0.601708 0.640617 0.674494 -0.0338613 0.71761 0.760527 0.777896 0.789782 0.794274 0.793346 0.786062 0.772039 0.752208 0.726671 0.695818 0.660021 0.620233 0.576717 0.529317 0.480662 0.411754 0.369491 0.371625 0.294987 0.23031 0.186748 0.146145 0.109436 0.0773445 0.0503293 0.0288544 0.0130933 0.00335123 3.39842e-26 0 0.00316344 0.0125848 0.0280829 0.049376 0.076186 0.107655 0.143882 0.18385 0.227017 0.272399 0.319023 32.8624 0.416658 0.468014 0.516327 0.56302 0.607628 0.648065 18.8418 0.715877 0.746902 0.771056 0.789168 0.801559 0.806924 0.80628 0.799624 0.785856 0.766251 0.740764 0.709771 0.673595 0.633019 0.58877 0.541315 0.49161 0.440581 0.389131 0.338459 0.30681 0.23507 0.19031 0.148901 0.11155 0.0789593 0.0513709 0.0294235 0.0133231 0.00338061 3.45331e-26 0 0.00316345 0.0125865 0.0280798 0.0493703 0.0761547 0.107636 0.143701 0.183747 0.227078 0.272195 0.316433 0.33097 0.415673 0.467633 0.515987 0.562371 0.606347 0.428646 0.680831 0.71821 0.747518 0.771308 0.789234 0.80154 0.80691 0.80627 0.799616 0.785883 0.766351 0.740901 0.709911 0.673813 0.633227 0.588825 0.541221 0.491384 0.440281 0.388522 0.337268 0.288081 0.257594 0.190557 0.148933 0.111581 0.0789942 0.0515533 0.0294641 0.0132985 0.00333618 3.45381e-26 0 0.00311132 0.0123776 0.0275845 0.0485004 0.0746743 0.105016 0.141117 0.180117 0.22239 0.266595 36.4206 0.350615 0.408376 0.458048 0.505353 0.550849 31.0867 0.629556 0.671764 0.705648 0.734248 0.757686 0.775673 0.788122 0.794108 0.793806 0.788218 0.775189 0.756429 0.731786 0.701619 0.666425 0.626671 0.582893 0.535869 0.486579 0.435886 0.384674 0.333868 0.284318 0.236861 0.209207 0.147363 0.110173 0.0778572 0.0508359 0.0289774 0.0130823 0.00319048 3.39935e-26 0 0.00301077 0.0119768 0.0266741 0.0468697 0.0721266 0.101448 0.135991 0.173685 0.214224 57.0268 0.275679 0.347197 0.395992 0.44223 0.48604 41.5489 0.566483 0.61238 0.649275 0.681637 0.709318 0.732212 0.749988 0.762458 0.768761 0.76858 0.763504 0.751014 0.732965 0.709261 0.680278 0.64637 0.607835 0.565526 0.520214 0.472405 0.423059 0.37341 0.323968 0.275456 0.229528 0.188432 0.141383 0.0992778 0.076729 0.0491859 0.0280529 0.0121426 0.0030475 3.29306e-26 0 0.00286203 0.0113827 0.0252972 0.0444571 0.0683512 0.0963498 0.129056 0.164328 -1.78527 0.221953 0.280571 0.328606 0.370446 0.399601 0.460169 0.48863 0.541288 0.580938 0.61567 0.646323 0.672892 0.695143 0.712531 0.724735 0.731255 0.731273 0.726952 0.71546 0.698937 0.676988 0.649915 0.617472 0.580337 0.540103 0.496935 0.451477 0.404529 0.356818 0.309394 0.26301 0.21866 0.177929 0.136383 0.0980709 0.0724996 0.0469599 0.0258906 0.0116055 0.00292022 3.13128e-26 0 0.00266764 0.0105841 0.0235444 0.0413866 0.0634368 0.0892593 0.119844 0.140545 0.067413 0.221093 0.267403 0.307789 0.334482 0.387625 89.6688 0.459978 0.504219 0.539478 0.571732 0.60052 0.625868 0.647075 0.663659 0.675344 0.68234 0.682701 0.679204 0.668771 0.654797 0.635628 0.610846 0.580116 0.545429 0.507188 0.466063 0.423473 0.379497 0.334689 0.290093 0.246534 0.204759 0.165875 0.133336 0.0942772 0.0625844 0.0456791 0.0242921 0.0108863 0.00272431 2.92423e-26 0 0.00244247 0.00967802 0.0213848 0.0375961 0.057618 0.0809472 0.108117 -0.803829 0.158697 0.207262 0.243365 0.265727 0.310786 0.35048 -0.257604 0.421614 0.457325 0.4892 0.518542 0.545298 0.568859 0.58854 0.603721 0.614516 0.621976 0.627147 0.630891 0.632645 0.606601 0.576194 0.561345 0.588204 0.516258 0.469526 0.428865 0.389141 0.348638 0.30756 0.26658 0.226404 0.18791 0.151964 0.119283 0.116625 0.0710271 0.0392163 0.0222611 0.00997017 0.00250411 2.67005e-26 0 0.00216906 0.015161 0.0188211 0.0584011 0.0505541 0.0668606 -0.141944 0.111245 0.153316 0.183858 0.201665 0.24006 0.269102 0.194208 0.278569 0.3726 0.402788 0.431044 0.457261 0.48151 0.502699 0.519932 0.53264 0.535759 0.549239 0.554099 0.552529 0.551444 0.542714 0.523686 0.510364 0.475776 0.447897 0.469873 0.391547 0.348363 0.312452 0.275791 0.239039 0.202904 0.168254 0.135834 0.105867 0.134141 0.0354561 0.0399511 0.0199044 0.00880124 0.00221095 2.37536e-26 0 0.0018586 0.013537 0.0157963 -0.0201357 0.0430362 0.0585885 1.03508 0.103964 0.12769 0.149205 0.172438 0.195105 0.22003 0.258271 0.275296 0.314791 0.341315 0.365752 0.388623 0.409782 0.428073 0.442325 0.442072 0.463193 0.475228 0.476539 0.474489 0.46657 0.459871 0.448684 0.431132 0.410345 0.393381 0.360782 -166.252 0.307092 0.271289 0.23977 0.207826 0.176359 0.146156 0.117852 0.0920152 0.070043 0.0477156 0.0302181 0.0170427 0.00762378 0.00191834 2.04817e-26 0 0.00120161 0.00170353 0.0125693 0.0198599 0.0348521 0.0492232 0.0636024 0.0827696 0.103819 0.125918 0.14292 0.164908 0.186534 0.207878 0.223858 0.252909 0.274626 0.294787 0.313787 0.331226 0.345882 0.356043 0.372194 0.383687 0.389319 0.391615 0.390269 0.38508 0.379866 0.370393 0.356617 0.339521 0.32797 0.30169 0.278149 -123.323 0.231723 0.200351 0.173466 0.147151 0.121847 0.0981482 0.0764784 0.057185 0.0393276 0.0255308 0.0141183 0.00629072 0.00159997 1.8271e-26 0 -0.000946264 0.00383982 0.00936902 0.0167974 0.026054 0.0127074 0.0499173 0.0633368 0.0745178 0.0762407 0.10163 0.121196 0.123641 0.135607 0.160117 0.187501 0.203422 0.218913 0.233659 0.247375 0.259151 0.258318 0.282032 0.292595 0.297559 0.300732 0.300757 0.299276 0.295045 0.288433 0.278353 0.26503 0.257058 0.239258 0.219623 0.199325 0.19488 0.159523 0.136278 0.115718 0.0957161 0.0769416 0.0598144 0.0445373 0.030675 0.0193683 0.0109396 0.00486701 0.00125168 1.30601e-26 0 0.000590857 0.00274328 0.00617969 0.0110422 0.0167792 0.0148724 0.0327145 0.0409278 0.0478981 0.0566368 0.0659883 0.0736403 0.0850973 0.0950424 0.0995552 0.117445 0.128613 0.139164 0.149183 0.15866 0.169762 -8.30178 0.187322 0.196314 0.201683 0.205551 0.207674 0.20912 0.206471 0.202802 0.196184 0.187493 0.179024 0.16918 0.155399 0.142481 0.128824 0.112304 0.0973798 0.082593 0.0681652 0.0546093 0.0422981 0.0313584 0.0258052 0.013433 0.00761428 0.00338413 0.000889551 9.2303e-27 0 0.0003296 0.00131981 0.00297307 0.00492368 0.0070405 0.00986754 0.0118873 0.0144427 0.0181911 0.0207994 0.0223026 0.0276042 0.032897 0.0369778 0.0264143 0.0455026 0.0516548 0.0568247 0.0607674 0.0617808 0.0591301 -0.172061 0.0932582 0.0845133 0.11051 0.114588 0.11817 0.114722 0.114576 0.113261 0.110494 0.108079 0.102717 0.0974154 0.0896932 0.0860247 0.0752402 0.0657385 0.057061 0.0482438 0.0396084 0.0314912 0.0241858 0.0177932 0.0125455 0.00697658 0.00416809 0.00178753 0.000423274 4.73046e-27 0 -4.60252e-05 -0.000233183 -0.000580178 -0.00137191 -0.00269689 -0.00395178 -0.00654501 -0.00868997 -0.0111822 -0.0144638 -0.0172871 -0.0193194 -0.0208931 -0.0226165 -0.0243613 -0.0276288 -0.0303486 -0.0306893 -0.0336608 -0.0728699 -0.0461754 -0.0447733 -0.0169814 -0.00597813 0.00157479 0.00404161 0.00579672 0.0316188 0.0233275 0.0230966 0.0251224 0.0293406 0.0253695 0.0251912 0.0247204 0.0329377 0.0212429 0.0333145 0.0160479 0.013248 0.010505 0.00796009 0.00578143 0.0040105 0.00256199 0.00132128 0.000490911 0.000199522 3.52972e-05 3.86651e-28 0 -0.000436951 -0.00179361 -0.00417902 -0.00777276 -0.0125553 -0.0183512 -0.0244188 -0.0317063 -0.0399221 -0.0485602 -0.0576298 -0.0655552 -0.0746786 -0.0937527 -0.101222 -0.20121 -0.223516 -0.161542 -0.144946 -0.118186 -0.11672 -0.118629 -0.105626 -0.104866 -0.0998736 -0.0965926 -0.0933536 -0.0759923 -0.044073 -0.0407608 -0.0388407 -0.0621333 -0.0526851 -0.0466276 -0.0382788 -0.0367259 -0.0322405 -0.0269025 -0.0251787 -0.021814 -0.0186306 -0.0155661 -0.0126022 -0.00974733 -0.00714726 -0.0041228 -0.00302998 -0.00101434 -0.20563 -4.00241e-27 0 -0.00084168 -0.00339282 -0.00775276 -0.0139727 -0.0218532 -0.0313628 -0.0424426 -0.0549959 -0.0683401 -0.0831736 -0.0982509 -0.111313 -0.12615 -0.143161 -0.156824 -0.170439 -0.181601 -0.191501 -0.198344 -0.204018 -0.206025 -0.209832 -0.204008 -0.204202 -0.204637 -0.193709 -0.187926 -0.179373 -0.174016 -0.168371 -0.161591 -0.136385 -0.127042 -0.114542 -0.0907344 -0.0964566 -0.0852942 -0.0736918 -0.0658899 -0.0564955 -0.0474271 -0.0388287 -0.0307739 -0.0233061 -0.016629 -0.0114682 -0.00651207 -1.42773 0.00610333 -8.40141e-27 0 -0.00123361 -0.00497107 -0.0112957 -0.0201342 -0.0312436 -0.044552 -0.0599347 -0.0771274 -0.0958576 -0.115531 -0.178503 -1.17849 -0.189465 -0.200068 -0.217783 -0.236092 -0.253185 -0.267684 -0.279588 -0.290665 -0.297694 -0.301581 -0.306691 -0.307785 -0.315098 -0.289846 -0.284161 -0.273856 -0.263605 -0.252562 -0.217751 -0.194877 -0.181641 -0.17158 -0.171452 -0.15334 -0.13635 -0.116974 -0.105194 -0.0901979 -0.0754301 -0.0614313 -0.0484202 -0.0364645 -0.0257955 -0.0173607 -0.00986879 -0.0045646 -0.00114603 -1.26528e-26 0 -0.0016151 -0.00649222 -0.0146316 -0.0258822 -0.0401131 -0.057137 -0.0766139 -0.0985052 -0.122492 -0.147339 -0.173361 -0.20286 -0.228008 -0.254007 -0.277495 -0.300284 -0.323367 -0.343113 -0.360668 -0.374182 -0.383209 -0.392515 -0.393127 -0.393828 -0.393718 -0.382149 -0.374755 -0.363387 -0.344437 -0.324885 -0.313999 -0.295175 -0.274618 -0.253293 -0.231042 -0.20759 -0.18415 -0.158921 -0.141936 -0.122329 -0.102205 -0.0830238 -0.0652409 -0.049008 -0.0345695 -0.0228183 -0.0129916 -0.00599993 0.000525463 -1.65988e-26 0 -0.00198257 -0.00794265 -0.0178034 -0.0313663 -0.0484323 -0.0688712 -0.0924334 -0.118774 -0.147191 -0.177049 -0.210149 -0.239241 -0.270715 -0.304259 -0.332929 -0.36196 -0.397496 -0.424028 -0.444817 -0.452298 -0.462716 -0.474483 -0.476079 -0.477854 -0.476116 -0.466901 -0.458576 -0.446538 -0.394408 -0.41107 -0.389292 -0.364988 -0.341301 -0.315174 -0.2861 -0.257586 -0.229768 -0.197611 -0.174446 -0.152378 -0.127306 -0.103247 -0.0809598 -0.0607482 -0.0428733 -0.0282329 -0.0163249 -0.00731706 -0.00500062 -2.0267e-26 0 -0.00232215 -0.00927715 -0.0207018 -0.0363647 -0.0560593 -0.0794773 -0.106274 -0.135912 -0.169103 -0.208121 -0.2394 -0.274196 -0.31109 -0.353516 -0.384521 -0.417346 -0.448601 -0.473067 -0.498455 -0.526466 -0.541066 -0.546493 -0.55605 -0.556055 -0.553014 -0.546067 -0.537304 -0.523493 -0.391176 -0.477293 -0.448454 -0.431504 -0.405358 -0.365108 -0.336795 -0.307579 -0.270818 -0.226833 -0.202434 -0.180044 -0.150328 -0.121781 -0.0953761 -0.0715147 -0.0504733 -0.0330535 -0.0190426 -0.00853381 -0.00216657 -2.36288e-26 0 -0.00262822 -0.0104797 -0.0232889 -0.0408218 -0.0627632 -0.0889004 -0.118372 -0.151701 -0.189428 -0.234205 -0.265882 -0.303889 -0.354711 -0.415679 -0.43173 -0.467932 -0.501619 -0.529539 -0.569088 -0.599788 -0.604264 -0.615251 -0.623245 -0.625693 -0.621711 -0.615409 -0.605859 -0.588278 -0.564788 -0.548046 -0.519874 -0.487279 -0.451453 -0.404579 -0.386079 -0.350404 -0.300725 -0.26486 -0.233975 -0.204705 -0.17086 -0.138338 -0.108254 -0.0810922 -0.0571816 -0.0374347 -0.0214858 -0.00962543 -0.00244049 -2.66076e-26 0 -0.00289783 -0.011548 -0.0255452 -0.044602 -0.0684524 -0.0966735 -0.128621 -0.164725 -0.21896 -0.251563 -0.289035 -0.333119 -0.380026 -0.432056 -0.469902 -0.508073 -0.544377 -0.578191 -0.607852 -0.636035 -0.663744 -0.67406 -0.67903 -0.682906 -0.68275 -0.675703 -0.663312 -0.646887 -0.619026 -0.600258 -0.571389 -0.517934 -0.478466 -0.46219 -0.427383 -0.387794 -0.337339 -0.295985 -0.261499 -0.225827 -0.188492 -0.152627 -0.119365 -0.0892926 -0.0628375 -0.0411777 -0.0235763 -0.0105584 -0.00267595 -2.91723e-26 0 -0.00314188 -0.0124192 -0.0273151 -0.0475781 -0.0729434 -0.10275 -0.136742 -0.186309 -0.229796 -0.262508 -0.309569 -0.355727 -0.401309 -0.457047 -0.49874 -0.542093 -0.581744 -0.617933 -0.648885 -0.676567 -0.700375 -0.720863 -0.72997 -0.731376 -0.731314 -0.725253 -0.711013 -0.694797 -0.65424 -0.643721 -0.613622 -0.496911 -0.542195 -0.501378 -0.458369 -0.415608 -0.363678 -0.320106 -0.282428 -0.243159 -0.202886 -0.164355 -0.128545 -0.0959776 -0.0671673 -0.0442529 -0.0253119 -0.0113334 -0.0028697 -3.12752e-26 0 -0.00334407 -0.0130465 -0.0286004 -0.0497452 -0.0763046 -0.108004 -0.145427 -0.192886 -0.227997 -0.27271 -0.320598 -0.375367 -0.420061 -0.474514 -0.522168 -0.566647 -0.610631 -0.653593 -0.68167 -0.709592 -0.733978 -0.752894 -0.765801 -0.769172 -0.768972 -0.762528 -0.749039 -0.730755 -0.674584 -0.678094 -0.648423 -0.603856 -0.573475 -0.531665 -0.486925 -0.441376 -0.390393 -0.32874 -0.301286 -0.257151 -0.214093 -0.173417 -0.135646 -0.101055 -0.0697168 -0.0467129 -0.0266679 -0.011932 -0.0030216 -3.29071e-26 0 -0.0034682 -0.0134382 -0.029441 -0.0512505 -0.0788211 -0.111837 -0.15004 -0.190137 -0.234245 -0.288878 -0.331452 -0.391012 -0.434284 -0.480759 -0.547549 -0.580548 -0.63212 -0.667516 -0.697476 -1.07696 -0.762474 -0.776159 -0.787885 -0.794631 -0.79431 -0.788 -0.774866 -0.755644 -0.708025 -0.704256 -0.669135 -0.626852 -0.593573 -0.551101 -0.504853 -0.457672 -0.38886 -0.35169 -0.313632 -0.267326 -0.222155 -0.179761 -0.140559 -0.104518 -0.0682289 -0.0483765 -0.0275962 -0.0123451 -0.00312009 -3.39859e-26 0 -0.00351608 -0.0136039 -0.0297841 -0.0518874 -0.0797946 -0.113057 -0.151986 -0.193243 -0.236678 -0.29426 -0.338474 -0.389278 -0.440326 -0.489278 -0.538651 -0.592553 -0.637208 -0.674572 -0.708575 -0.740068 -0.772111 -0.789074 -0.799934 -0.806154 -0.807172 -0.801562 -0.788624 -0.770161 -0.741596 -0.718889 -0.686191 -0.64855 -0.606992 -0.561349 -0.516233 -0.46882 -0.398828 -0.367677 -0.320273 -0.272868 -0.226747 -0.183309 -0.143296 -0.106715 -0.00986817 -0.0493756 -0.0281221 -0.0125714 -0.0031701 -3.45318e-26 0 -0.00351786 -0.0136164 -0.0297842 -0.0518164 -0.0796099 -0.114648 -0.152934 -0.194646 -0.236982 -0.284038 -0.341539 -0.389296 -0.439819 -0.48987 -0.539609 -0.593406 -0.634384 -0.673461 -0.709841 -0.740603 -0.765348 -0.789071 -0.799745 -0.806116 -0.807007 -0.801648 -0.789227 -0.77178 -0.748921 -0.719106 -0.686438 -0.648386 -0.606452 -0.562718 -0.516102 -0.467675 -0.417415 -0.369651 -0.320815 -0.272829 -0.226758 -0.183323 -0.143148 -0.106865 -0.0754529 -0.0493852 -0.0281173 -0.0125729 -0.00317021 -3.45381e-26 0 -0.00345395 -0.013363 -0.0292089 -0.0507697 -0.0779446 -0.113461 -0.147347 -0.186662 -0.235073 -0.280299 -0.336727 -0.382167 -0.430529 -0.480671 -0.529562 -0.582701 -0.621919 -0.66086 -0.696335 -0.727177 -0.753902 -0.773179 -0.784645 -0.793127 -0.794288 -0.789621 -0.778162 -0.761092 -0.738159 -0.709784 -0.676619 -0.637597 -0.585449 -0.557379 -0.511594 -0.463023 -0.413987 -0.365479 -0.317201 -0.269682 -0.224069 -0.181151 -0.141179 -0.104274 -0.0745618 -0.0487302 -0.0277422 -0.0124048 -0.00312251 -3.4001e-26 0 -0.00333061 -0.0129006 -0.0282336 -0.0488482 -0.0747815 -0.105618 -0.143122 -0.18839 -0.232331 -0.271038 -0.317077 -0.369517 -0.421098 -0.470935 -0.513155 -0.562171 -0.599502 -0.638457 -0.673123 -0.70261 -0.727137 -0.746478 -0.76032 -0.769614 -0.77182 -0.765134 -0.75387 -0.737219 -0.715374 -0.688285 -0.656228 -0.618846 -0.578686 -0.543031 -0.495344 -0.449038 -0.40173 -0.3544 -0.307316 -0.261231 -0.217018 -0.175368 -0.136882 -0.101932 -0.0605053 -0.0471057 -0.0268104 -0.0120147 -0.00302412 -3.29314e-26 0 -0.00322391 -0.0125783 -0.0275 -0.0479565 -0.0735822 -0.103398 -0.136959 -0.174288 -0.214792 -0.258326 -0.304173 -0.35039 -0.400647 -0.446883 -0.487503 -0.529286 -0.569368 -0.599377 -0.635924 -0.667999 -0.691495 -0.