<?xml version="1.0"?>
<VTKFile type="PolyData">
	<PolyData>
		<Piece NumberOfPoints="2601" NumberOfPolys="2500">
			<Points>
				<DataArray type="Float32" NumberOfComponents="3" format="ascii">
 0 0 0 0.02 0 0 0.04 0 0 0.06 0 0 0.08 0 0 0.1 0 0 0.12 0 0 0.14 0 0 0.16 0 0 0.18 0 0 0.2 0 0 0.22 0 0 0.24 0 0 0.26 0 0 0.28 0 0 0.3 0 0 0.32 0 0 0.34 0 0 0.36 0 0 0.38 0 0 0.4 0 0 0.42 0 0 0.44 0 0 0.46 0 0 0.48 0 0 0.5 0 0 0.52 0 0 0.54 0 0 0.56 0 0 0.58 0 0 0.6 0 0 0.62 0 0 0.64 0 0 0.66 0 0 0.68 0 0 0.7 0 0 0.72 0 0 0.74 0 0 0.76 0 0 0.78 0 0 0.8 0 0 0.82 0 0 0.84 0 0 0.86 0 0 0.88 0 0 0.9 0 0 0.92 0 0 0.94 0 0 0.96 0 0 0.98 0 0 1 0 0 0 0.02 0 0.02 0.02 0 0.04 0.02 0 0.06 0.02 0 0.08 0.02 0 0.1 0.02 0 0.12 0.02 0 0.14 0.02 0 0.16 0.02 0 0.18 0.02 0 0.2 0.02 0 0.22 0.02 0 0.24 0.02 0 0.26 0.02 0 0.28 0.02 0 0.3 0.02 0 0.32 0.02 0 0.34 0.02 0 0.36 0.02 0 0.38 0.02 0 0.4 0.02 0 0.42 0.02 0 0.44 0.02 0 0.46 0.02 0 0.48 0.02 0 0.5 0.02 0 0.52 0.02 0 0.54 0.02 0 0.56 0.02 0 0.58 0.02 0 0.6 0.02 0 0.62 0.02 0 0.64 0.02 0 0.66 0.02 0 0.68 0.02 0 0.7 0.02 0 0.72 0.02 0 0.74 0.02 0 0.76 0.02 0 0.78 0.02 0 0.8 0.02 0 0.82 0.02 0 0.84 0.02 0 0.86 0.02 0 0.88 0.02 0 0.9 0.02 0 0.92 0.02 0 0.94 0.02 0 0.96 0.02 0 0.98 0.02 0 1 0.02 0 0 0.04 0 0.02 0.04 0 0.04 0.04 0 0.06 0.04 0 0.08 0.04 0 0.1 0.04 0 0.12 0.04 0 0.14 0.04 0 0.16 0.04 0 0.18 0.04 0 0.2 0.04 0 0.22 0.04 0 0.24 0.04 0 0.26 0.04 0 0.28 0.04 0 0.3 0.04 0 0.32 0.04 0 0.34 0.04 0 0.36 0.04 0 0.38 0.04 0 0.4 0.04 0 0.42 0.04 0 0.44 0.04 0 0.46 0.04 0 0.48 0.04 0 0.5 0.04 0 0.52 0.04 0 0.54 0.04 0 0.56 0.04 0 0.58 0.04 0 0.6 0.04 0 0.62 0.04 0 0.64 0.04 0 0.66 0.04 0 0.68 0.04 0 0.7 0.04 0 0.72 0.04 0 0.74 0.04 0 0.76 0.04 0 0.78 0.04 0 0.8 0.04 0 0.82 0.04 0 0.84 0.04 0 0.86 0.04 0 0.88 0.04 0 0.9 0.04 0 0.92 0.04 0 0.94 0.04 0 0.96 0.04 0 0.98 0.04 0 1 0.04 0 0 0.06 0 0.02 0.06 0 0.04 0.06 0 0.06 0.06 0 0.08 0.06 0 0.1 0.06 0 0.12 0.06 0 0.14 0.06 0 0.16 0.06 0 0.18 0.06 0 0.2 0.06 0 0.22 0.06 0 0.24 0.06 0 0.26 0.06 0 0.28 0.06 0 0.3 0.06 0 0.32 0.06 0 0.34 0.06 0 0.36 0.06 0 0.38 0.06 0 0.4 0.06 0 0.42 0.06 0 0.44 0.06 0 0.46 0.06 0 0.48 0.06 0 0.5 0.06 0 0.52 0.06 0 0.54 0.06 0 0.56 0.06 0 0.58 0.06 0 0.6 0.06 0 0.62 0.06 0 0.64 0.06 0 0.66 0.06 0 0.68 0.06 0 0.7 0.06 0 0.72 0.06 0 0.74 0.06 0 0.76 0.06 0 0.78 0.06 0 0.8 0.06 0 0.82 0.06 0 0.84 0.06 0 0.86 0.06 0 0.88 0.06 0 0.9 0.06 0 0.92 0.06 0 0.94 0.06 0 0.96 0.06 0 0.98 0.06 0 1 0.06 0 0 0.08 0 0.02 0.08 0 0.04 0.08 0 0.06 0.08 0 0.08 0.08 0 0.1 0.08 0 0.12 0.08 0 0.14 0.08 0 0.16 0.08 0 0.18 0.08 0 0.2 0.08 0 0.22 0.08 0 0.24 0.08 0 0.26 0.08 0 0.28 0.08 0 0.3 0.08 0 0.32 0.08 0 0.34 0.08 0 0.36 0.08 0 0.38 0.08 0 0.4 0.08 0 0.42 0.08 0 0.44 0.08 0 0.46 0.08 0 0.48 0.08 0 0.5 0.08 0 0.52 0.08 0 0.54 0.08 0 0.56 0.08 0 0.58 0.08 0 0.6 0.08 0 0.62 0.08 0 0.64 0.08 0 0.66 0.08 0 0.68 0.08 0 0.7 0.08 0 0.72 0.08 0 0.74 0.08 0 0.76 0.08 0 0.78 0.08 0 0.8 0.08 0 0.82 0.08 0 0.84 0.08 0 0.86 0.08 0 0.88 0.08 0 0.9 0.08 0 0.92 0.08 0 0.94 0.08 0 0.96 0.08 0 0.98 0.08 0 1 0.08 0 0 0.1 0 0.02 0.1 0 0.04 0.1 0 0.06 0.1 0 0.08 0.1 0 0.1 0.1 0 0.12 0.1 0 0.14 0.1 0 0.16 0.1 0 0.18 0.1 0 0.2 0.1 0 0.22 0.1 0 0.24 0.1 0 0.26 0.1 0 0.28 0.1 0 0.3 0.1 0 0.32 0.1 0 0.34 0.1 0 0.36 0.1 0 0.38 0.1 0 0.4 0.1 0 0.42 0.1 0 0.44 0.1 0 0.46 0.1 0 0.48 0.1 0 0.5 0.1 0 0.52 0.1 0 0.54 0.1 0 0.56 0.1 0 0.58 0.1 0 0.6 0.1 0 0.62 0.1 0 0.64 0.1 0 0.66 0.1 0 0.68 0.1 0 0.7 0.1 0 0.72 0.1 0 0.74 0.1 0 0.76 0.1 0 0.78 0.1 0 0.8 0.1 0 0.82 0.1 0 0.84 0.1 0 0.86 0.1 0 0.88 0.1 0 0.9 0.1 0 0.92 0.1 0 0.94 0.1 0 0.96 0.1 0 0.98 0.1 0 1 0.1 0 0 0.12 0 0.02 0.12 0 0.04 0.12 0 0.06 0.12 0 0.08 0.12 0 0.1 0.12 0 0.12 0.12 0 0.14 0.12 0 0.16 0.12 0 0.18 0.12 0 0.2 0.12 0 0.22 0.12 0 0.24 0.12 0 0.26 0.12 0 0.28 0.12 0 0.3 0.12 0 0.32 0.12 0 0.34 0.12 0 0.36 0.12 0 0.38 0.12 0 0.4 0.12 0 0.42 0.12 0 0.44 0.12 0 0.46 0.12 0 0.48 0.12 0 0.5 0.12 0 0.52 0.12 0 0.54 0.12 0 0.56 0.12 0 0.58 0.12 0 0.6 0.12 0 0.62 0.12 0 0.64 0.12 0 0.66 0.12 0 0.68 0.12 0 0.7 0.12 0 0.72 0.12 0 0.74 0.12 0 0.76 0.12 0 0.78 0.12 0 0.8 0.12 0 0.82 0.12 0 0.84 0.12 0 0.86 0.12 0 0.88 0.12 0 0.9 0.12 0 0.92 0.12 0 0.94 0.12 0 0.96 0.12 0 0.98 0.12 0 1 0.12 0 0 0.14 0 0.02 0.14 0 0.04 0.14 0 0.06 0.14 0 0.08 0.14 0 0.1 0.14 0 0.12 0.14 0 0.14 0.14 0 0.16 0.14 0 0.18 0.14 0 0.2 0.14 0 0.22 0.14 0 0.24 0.14 0 0.26 0.14 0 0.28 0.14 0 0.3 0.14 0 0.32 0.14 0 0.34 0.14 0 0.36 0.14 0 0.38 0.14 0 0.4 0.14 0 0.42 0.14 0 0.44 0.14 0 0.46 0.14 0 0.48 0.14 0 0.5 0.14 0 0.52 0.14 0 0.54 0.14 0 0.56 0.14 0 0.58 0.14 0 0.6 0.14 0 0.62 0.14 0 0.64 0.14 0 0.66 0.14 0 0.68 0.14 0 0.7 0.14 0 0.72 0.14 0 0.74 0.14 0 0.76 0.14 0 0.78 0.14 0 0.8 0.14 0 0.82 0.14 0 0.84 0.14 0 0.86 0.14 0 0.88 0.14 0 0.9 0.14 0 0.92 0.14 0 0.94 0.14 0 0.96 0.14 0 0.98 0.14 0 1 0.14 0 0 0.16 0 0.02 0.16 0 0.04 0.16 0 0.06 0.16 0 0.08 0.16 0 0.1 0.16 0 0.12 0.16 0 0.14 0.16 0 0.16 0.16 0 0.18 0.16 0 0.2 0.16 0 0.22 0.16 0 0.24 0.16 0 0.26 0.16 0 0.28 0.16 0 0.3 0.16 0 0.32 0.16 0 0.34 0.16 0 0.36 0.16 0 0.38 0.16 0 0.4 0.16 0 0.42 0.16 0 0.44 0.16 0 0.46 0.16 0 0.48 0.16 0 0.5 0.16 0 0.52 0.16 0 0.54 0.16 0 0.56 0.16 0 0.58 0.16 0 0.6 0.16 0 0.62 0.16 0 0.64 0.16 0 0.66 0.16 0 0.68 0.16 0 0.7 0.16 0 0.72 0.16 0 0.74 0.16 0 0.76 0.16 0 0.78 0.16 0 0.8 0.16 0 0.82 0.16 0 0.84 0.16 0 0.86 0.16 0 0.88 0.16 0 0.9 0.16 0 0.92 0.16 0 0.94 0.16 0 0.96 0.16 0 0.98 0.16 0 1 0.16 0 0 0.18 0 0.02 0.18 0 0.04 0.18 0 0.06 0.18 0 0.08 0.18 0 0.1 0.18 0 0.12 0.18 0 0.14 0.18 0 0.16 0.18 0 0.18 0.18 0 0.2 0.18 0 0.22 0.18 0 0.24 0.18 0 0.26 0.18 0 0.28 0.18 0 0.3 0.18 0 0.32 0.18 0 0.34 0.18 0 0.36 0.18 0 0.38 0.18 0 0.4 0.18 0 0.42 0.18 0 0.44 0.18 0 0.46 0.18 0 0.48 0.18 0 0.5 0.18 0 0.52 0.18 0 0.54 0.18 0 0.56 0.18 0 0.58 0.18 0 0.6 0.18 0 0.62 0.18 0 0.64 0.18 0 0.66 0.18 0 0.68 0.18 0 0.7 0.18 0 0.72 0.18 0 0.74 0.18 0 0.76 0.18 0 0.78 0.18 0 0.8 0.18 0 0.82 0.18 0 0.84 0.18 0 0.86 0.18 0 0.88 0.18 0 0.9 0.18 0 0.92 0.18 0 0.94 0.18 0 0.96 0.18 0 0.98 0.18 0 1 0.18 0 0 0.2 0 0.02 0.2 0 0.04 0.2 0 0.06 0.2 0 0.08 0.2 0 0.1 0.2 0 0.12 0.2 0 0.14 0.2 0 0.16 0.2 0 0.18 0.2 0 0.2 0.2 0 0.22 0.2 0 0.24 0.2 0 0.26 0.2 0 0.28 0.2 0 0.3 0.2 0 0.32 0.2 0 0.34 0.2 0 0.36 0.2 0 0.38 0.2 0 0.4 0.2 0 0.42 0.2 0 0.44 0.2 0 0.46 0.2 0 0.48 0.2 0 0.5 0.2 0 0.52 0.2 0 0.54 0.2 0 0.56 0.2 0 0.58 0.2 0 0.6 0.2 0 0.62 0.2 0 0.64 0.2 0 0.66 0.2 0 0.68 0.2 0 0.7 0.2 0 0.72 0.2 0 0.74 0.2 0 0.76 0.2 0 0.78 0.2 0 0.8 0.2 0 0.82 0.2 0 0.84 0.2 0 0.86 0.2 0 0.88 0.2 0 0.9 0.2 0 0.92 0.2 0 0.94 0.2 0 0.96 0.2 0 0.98 0.2 0 1 0.2 0 0 0.22 0 0.02 0.22 0 0.04 0.22 0 0.06 0.22 0 0.08 0.22 0 0.1 0.22 0 0.12 0.22 0 0.14 0.22 0 0.16 0.22 0 0.18 0.22 0 0.2 0.22 0 0.22 0.22 0 0.24 0.22 0 0.26 0.22 0 0.28 0.22 0 0.3 0.22 0 0.32 0.22 0 0.34 0.22 0 0.36 0.22 0 0.38 0.22 0 0.4 0.22 0 0.42 0.22 0 0.44 0.22 0 0.46 0.22 0 0.48 0.22 0 0.5 0.22 0 0.52 0.22 0 0.54 0.22 0 0.56 0.22 0 0.58 0.22 0 0.6 0.22 0 0.62 0.22 0 0.64 0.22 0 0.66 0.22 0 0.68 0.22 0 0.7 0.22 0 0.72 0.22 0 0.74 0.22 0 0.76 0.22 0 0.78 0.22 0 0.8 0.22 0 0.82 0.22 0 0.84 0.22 0 0.86 0.22 0 0.88 0.22 0 0.9 0.22 0 0.92 0.22 0 0.94 0.22 0 0.96 0.22 0 0.98 0.22 0 1 0.22 0 0 0.24 0 0.02 0.24 0 0.04 0.24 0 0.06 0.24 0 0.08 0.24 0 0.1 0.24 0 0.12 0.24 0 0.14 0.24 0 0.16 0.24 0 0.18 0.24 0 0.2 0.24 0 0.22 0.24 0 0.24 0.24 0 0.26 0.24 0 0.28 0.24 0 0.3 0.24 0 0.32 0.24 0 0.34 0.24 0 0.36 0.24 0 0.38 0.24 0 0.4 0.24 0 0.42 0.24 0 0.44 0.24 0 0.46 0.24 0 0.48 0.24 0 0.5 0.24 0 0.52 0.24 0 0.54 0.24 0 0.56 0.24 0 0.58 0.24 0 0.6 0.24 0 0.62 0.24 0 0.64 0.24 0 0.66 0.24 0 0.68 0.24 0 0.7 0.24 0 0.72 0.24 0 0.74 0.24 0 0.76 0.24 0 0.78 0.24 0 0.8 0.24 0 0.82 0.24 0 0.84 0.24 0 0.86 0.24 0 0.88 0.24 0 0.9 0.24 0 0.92 0.24 0 0.94 0.24 0 0.96 0.24 0 0.98 0.24 0 1 0.24 0 0 0.26 0 0.02 0.26 0 0.04 0.26 0 0.06 0.26 0 0.08 0.26 0 0.1 0.26 0 0.12 0.26 0 0.14 0.26 0 0.16 0.26 0 0.18 0.26 0 0.2 0.26 0 0.22 0.26 0 0.24 0.26 0 0.26 0.26 0 0.28 0.26 0 0.3 0.26 0 0.32 0.26 0 0.34 0.26 0 0.36 0.26 0 0.38 0.26 0 0.4 0.26 0 0.42 0.26 0 0.44 0.26 0 0.46 0.26 0 0.48 0.26 0 0.5 0.26 0 0.52 0.26 0 0.54 0.26 0 0.56 0.26 0 0.58 0.26 0 0.6 0.26 0 0.62 0.26 0 0.64 0.26 0 0.66 0.26 0 0.68 0.26 0 0.7 0.26 0 0.72 0.26 0 0.74 0.26 0 0.76 0.26 0 0.78 0.26 0 0.8 0.26 0 0.82 0.26 0 0.84 0.26 0 0.86 0.26 0 0.88 0.26 0 0.9 0.26 0 0.92 0.26 0 0.94 0.26 0 0.96 0.26 0 0.98 0.26 0 1 0.26 0 0 0.28 0 0.02 0.28 0 0.04 0.28 0 0.06 0.28 0 0.08 0.28 0 0.1 0.28 0 0.12 0.28 0 0.14 0.28 0 0.16 0.28 0 0.18 0.28 0 0.2 0.28 0 0.22 0.28 0 0.24 0.28 0 0.26 0.28 0 0.28 0.28 0 0.3 0.28 0 0.32 0.28 0 0.34 0.28 0 0.36 0.28 0 0.38 0.28 0 0.4 0.28 0 0.42 0.28 0 0.44 0.28 0 0.46 0.28 0 0.48 0.28 0 0.5 0.28 0 0.52 0.28 0 0.54 0.28 0 0.56 0.28 0 0.58 0.28 0 0.6 0.28 0 0.62 0.28 0 0.64 0.28 0 0.66 0.28 0 0.68 0.28 0 0.7 0.28 0 0.72 0.28 0 0.74 0.28 0 0.76 0.28 0 0.78 0.28 0 0.8 0.28 0 0.82 0.28 0 0.84 0.28 0 0.86 0.28 0 0.88 0.28 0 0.9 0.28 0 0.92 0.28 0 0.94 0.28 0 0.96 0.28 0 0.98 0.28 0 1 0.28 0 0 0.3 0 0.02 0.3 0 0.04 0.3 0 0.06 0.3 0 0.08 0.3 0 0.1 0.3 0 0.12 0.3 0 0.14 0.3 0 0.16 0.3 0 0.18 0.3 0 0.2 0.3 0 0.22 0.3 0 0.24 0.3 0 0.26 0.3 0 0.28 0.3 0 0.3 0.3 0 0.32 0.3 0 0.34 0.3 0 0.36 0.3 0 0.38 0.3 0 0.4 0.3 0 0.42 0.3 0 0.44 0.3 0 0.46 0.3 0 0.48 0.3 0 0.5 0.3 0 0.52 0.3 0 0.54 0.3 0 0.56 0.3 0 0.58 0.3 0 0.6 0.3 0 0.62 0.3 0 0.64 0.3 0 0.66 0.3 0 0.68 0.3 0 0.7 0.3 0 0.72 0.3 0 0.74 0.3 0 0.76 0.3 0 0.78 0.3 0 0.8 0.3 0 0.82 0.3 0 0.84 0.3 0 0.86 0.3 0 0.88 0.3 0 0.9 0.3 0 0.92 0.3 0 0.94 0.3 0 0.96 0.3 0 0.98 0.3 0 1 0.3 0 0 0.32 0 0.02 0.32 0 0.04 0.32 0 0.06 0.32 0 0.08 0.32 0 0.1 0.32 0 0.12 0.32 0 0.14 0.32 0 0.16 0.32 0 0.18 0.32 0 0.2 0.32 0 0.22 0.32 0 0.24 0.32 0 0.26 0.32 0 0.28 0.32 0 0.3 0.32 0 0.32 0.32 0 0.34 0.32 0 0.36 0.32 0 0.38 0.32 0 0.4 0.32 0 0.42 0.32 0 0.44 0.32 0 0.46 0.32 0 0.48 0.32 0 0.5 0.32 0 0.52 0.32 0 0.54 0.32 0 0.56 0.32 0 0.58 0.32 0 0.6 0.32 0 0.62 0.32 0 0.64 0.32 0 0.66 0.32 0 0.68 0.32 0 0.7 0.32 0 0.72 0.32 0 0.74 0.32 0 0.76 0.32 0 0.78 0.32 0 0.8 0.32 0 0.82 0.32 0 0.84 0.32 0 0.86 0.32 0 0.88 0.32 0 0.9 0.32 0 0.92 0.32 0 0.94 0.
[...]
			<PointData Scalars="VitesseX">
				<DataArray Name="VitesseX" type="Float32" format="ascii">
 0 0 0 0 0 0 0 0 0 0 0 0 0 0 0 0 0 0 0 0 0 0 0 0 0 0 0 0 0 0 0 0 0 0 0 0 0 0 0 0 0 0 0 0 0 0 0 0 0 0 -0 0 -0.000388853 -0.00148776 -0.00323051 -0.00559277 -0.00854467 -0.0120538 -0.0160792 -0.0205477 -0.0253483 -0.0303798 -0.035569 -0.0408453 -0.0461426 -0.0514627 -0.0573117 -0.0628294 -0.0671359 -0.070905 -0.0742469 -0.0777049 -0.0827253 -0.0572146 -0.0695535 -0.0833342 -0.0872965 -0.0885388 -0.0882398 -0.0868973 -0.08465 -0.0815535 -0.0783654 -0.0745856 -0.0696572 -0.0640422 -0.0583647 -0.0527349 -0.0462426 -0.0420478 -0.0365479 -0.0323721 -0.0268058 -0.0216229 -0.0173351 -0.0127472 -0.00889657 -0.00550101 -0.00307137 -0.00252223 -0.0003657 -4.71864e-27 0 -0.000813666 -0.00285777 -0.00671809 -0.0110851 -0.0169211 -0.024284 -0.032292 -0.0403903 -0.0516598 -0.0604606 -0.0706959 -0.0811741 -0.0916586 -0.102168 -0.1137 -0.12478 -0.133318 -0.14075 -0.147149 -0.154102 0.207945 -0.147847 -0.163543 -0.168751 -0.171031 -0.171649 -0.170159 -0.167098 -0.162494 -0.156937 -0.150633 -0.142929 -0.133793 -0.12371 -0.113349 -0.102944 -0.0921737 -0.0814697 -0.0708391 -0.0610779 -0.0507469 -0.0410171 -0.0322687 -0.0240437 -0.0168767 -0.0105053 -0.00596012 -0.00449497 -0.000685995 -8.26681e-27 0 -0.00117431 -0.00449924 -0.0097376 -0.0167654 -0.025412 -0.0354617 -0.0460084 -0.0587492 -0.0633376 -0.0897307 -0.104782 -0.12025 -0.135605 -0.150808 -0.169998 -0.186222 -0.197838 -0.209837 -0.207883 -0.209781 -0.226142 -0.239114 -0.246466 -0.250802 -0.252351 -0.252424 -0.249631 -0.244572 -0.237771 -0.229392 -0.219432 -0.208113 -0.19655 -0.186043 -0.171223 -0.150639 -0.135308 -0.119575 -0.103978 -0.0888487 -0.0738595 -0.0597566 -0.0465728 -0.0348557 -0.0245132 -0.0225528 -0.0134001 -0.00648228 -0.000972657 -1.1688e-26 0 -0.0013992 -0.00619222 -0.0128679 -0.0220514 -0.0330874 -0.0460895 -0.0601608 -0.0766125 -0.0765544 -0.122721 -0.144484 -0.159919 -0.179056 -0.198716 -0.218105 -0.236225 -0.253603 -0.300341 3.29036 -0.278251 -0.305332 -0.316421 -0.324199 -0.328612 -0.329891 -0.329249 -0.325519 -0.318399 -0.308973 -0.297865 -0.284745 -0.270089 -0.255426 -0.244145 -0.222613 -0.0346474 -0.176964 -0.15564 -0.135231 -0.115134 -0.0958057 -0.07758 -0.0601487 -0.0451712 -0.0317599 -0.0279193 -0.0170702 -0.0052344 -0.00127544 -1.49288e-26 0 -0.00158709 -0.00863866 -0.0150886 -0.0282836 -0.0239503 -0.0582407 -0.0762648 -0.0963708 -0.117976 -0.141049 -0.164691 -0.19143 -0.218609 -0.242713 -0.265975 -0.288716 -0.114903 -0.301201 -0.344793 -0.364976 -0.379062 -0.389267 -0.39665 -0.40108 -0.402407 -0.400744 -0.395271 -0.386465 -0.375252 -0.361877 -0.345976 -0.326385 -0.306738 -0.284709 -0.257632 -0.226627 -0.214107 -0.188699 -0.163725 -0.139293 -0.116108 -0.0936315 -0.0883421 -0.0546635 -0.0385077 -0.0379384 -0.0202361 -0.00632063 -0.00157735 -1.79386e-26 0 -0.00213208 -0.00816044 -0.0177555 -0.0307323 -0.0469031 -0.0660283 -0.0876035 -0.11141 -0.137751 -0.162473 -0.195785 -0.239933 -0.255603 -0.285728 -0.313107 -0.339905 -0.364624 -0.387433 -0.407465 -0.42541 -0.433167 -0.437373 -0.454838 -0.466646 -0.468591 -0.465868 -0.459273 -0.449389 -0.43675 -0.421152 -0.402023 -0.380297 -0.357421 -0.332702 -0.29869 -0.276774 -0.248163 -0.218883 -0.189734 -0.161454 -0.134597 -0.108445 -0.102504 -0.0634242 -0.0446745 -0.0265829 -0.0163925 -0.00735263 -0.00185312 -2.06707e-26 0 -0.0024201 -0.00925705 -0.020053 -0.0338574 -0.0527136 -0.0753962 -0.097543 -0.124375 -0.164471 -0.193067 -0.221906 -0.253886 -0.284706 -0.320935 -0.352704 -0.382284 -0.409886 -0.43556 -0.463732 -0.474794 -0.489911 -0.511834 -0.521095 -0.52612 -0.52705 -0.528346 -0.536271 -0.527361 -0.514796 -0.494219 -0.456053 -0.435192 -0.410083 -0.246775 -0.600367 -0.305267 -0.277245 -0.245318 -0.212828 -0.181169 -0.150934 -0.121534 -0.119779 -0.0711322 -0.0502031 -0.0323263 -0.0185732 -0.00831562 -0.00208436 -2.30824e-26 0 -0.00262942 -0.0100775 -0.0219218 -0.0380566 -0.0580867 -0.081726 -0.108863 -0.138643 -0.170782 -0.205343 -0.238523 -0.279633 -0.32065 -0.356426 -0.390339 -0.422853 -0.453182 -0.480525 -0.504798 -0.526629 -0.54511 -0.561181 -0.571948 -0.576429 -0.577642 -0.581231 -0.578796 -0.566612 -0.55125 -0.533964 -0.502878 -0.461546 -0.442751 -0.406714 -181.158 -0.248111 -0.142616 -0.266849 -0.232645 -0.198139 -0.164885 -0.132833 -0.092493 -0.0777316 -0.0549266 -0.0354368 -0.0284392 -0.00909372 -0.0022797 -2.51362e-26 0 -0.00282585 -0.010832 -0.02354 -0.0407786 -0.0622207 -0.0875484 -0.11649 -0.148378 -0.182996 -0.21884 -0.25381 -0.306153 -0.319549 -0.393689 -0.414554 -0.451515 -0.484641 -0.514208 -0.54078 -0.562445 -1.122 -0.604106 -0.609619 -0.617598 -0.619191 -0.616086 -0.607549 -0.594635 -0.577236 -0.555582 -0.530151 -0.501744 -0.470848 -0.437794 -0.393136 -0.256122 -0.112614 -50.0993 -0.24772 -0.211447 -0.17598 -0.142125 -0.109054 -0.0830715 -0.0587843 -0.037937 -0.0312081 -0.0160303 -0.00244677 -2.67999e-26 0 -0.00298257 -0.0114206 -0.0247908 -0.0428811 -0.06538 -0.0919156 -0.122138 -0.155397 -0.191689 -0.228552 -0.266082 -0.316462 -0.377411 -0.391788 -0.433866 -0.472035 -0.507534 -0.542601 -0.550708 -0.585276 -0.614742 -0.631379 -0.643122 -0.649591 -0.650791 -0.647294 -0.638077 -0.624286 -0.60586 -0.583082 -0.556354 -0.526254 -0.493227 -0.45745 -0.419392 -0.380339 -0.341102 0.811078 -42.6651 -0.579066 -0.181684 -0.1492 -0.115838 -0.105477 -0.0615894 -0.0397951 -0.00569457 -0.0166771 -0.0025819 -2.80477e-26 0 -0.00272313 -0.0104458 -0.0244938 -0.0425234 -0.0662931 -0.0971192 -0.129216 -0.163491 -0.200483 -0.239814 -0.280569 -0.323477 -0.365002 -0.406354 -0.447728 -0.490114 -0.453855 -0.551605 -0.589088 -0.614064 -0.635737 -0.652688 -0.664754 -0.671087 -0.672158 -0.668501 -0.658909 -0.644614 -0.625548 -0.602022 -0.574432 -0.543264 -0.509007 -0.472078 -0.432911 -0.392392 -0.350849 -0.306827 -0.24389 -44.4257 -0.188451 -0.154135 -0.119833 -0.679904 -0.0839897 -0.0404058 -0.0230355 -0.017158 -0.00266728 -2.88601e-26 0 -0.00314523 -0.0120684 -0.0262333 -0.0453872 -0.0692273 -0.0974482 -0.129581 -0.165062 -0.203345 -0.243908 -0.285566 -0.329181 -0.371186 -0.413944 -0.455945 -0.495659 -0.539414 -0.569829 -0.598962 -0.625273 -0.647157 -0.664036 -0.676022 -0.682009 -0.682889 -0.678668 -0.668598 -0.65377 -0.634156 -0.610086 -0.581943 -0.550156 -0.51525 -0.477734 -0.438119 -0.397095 -0.355129 -0.31263 -0.269646 -0.222229 -0.192534 -0.156024 -0.121386 -0.0864218 -0.134717 -0.0414208 -0.0237648 -0.0106622 -0.00267914 -2.92243e-26 0 -0.00316749 -0.0120935 -0.026203 -0.0452997 -0.0690981 -0.0972301 -0.129254 -0.16465 -0.202918 -0.243592 -0.285333 -0.329084 -0.371594 -0.413748 -0.455725 -0.5006 -0.535328 -0.568471 -0.598828 -0.625417 -0.647323 -0.664102 -0.676032 -0.682026 -0.682902 -0.678634 -0.668489 -0.653636 -0.634022 -0.610008 -0.581927 -0.550145 -0.515189 -0.477604 -0.43803 -0.397026 -0.35519 -0.313234 -0.271242 -0.228742 -0.174096 -0.155796 -0.121756 -0.090382 -0.0526484 -0.0418317 -0.0237896 -0.0106586 -0.00267846 -2.91346e-26 0 -0.0031208 -0.0119216 -0.025843 -0.0447017 -0.0682224 -0.0960443 -0.127731 -0.162761 -0.200605 -0.240816 -0.282089 -0.325183 -0.36743 -0.410028 -0.460205 -0.493605 -0.528487 -0.561636 -0.591782 -0.61767 -0.63867 -0.654822 -0.666346 -0.671571 -0.672128 -0.667194 -0.656177 -0.640434 -0.620429 -0.597147 -0.57031 -0.539577 -0.505016 -0.468192 -0.429541 -0.389307 -0.348386 -0.307271 -0.266455 -0.226185 -0.185988 -0.0806491 -0.119625 -0.0892862 -0.0613849 -0.0409882 -0.0233158 -0.0104415 -0.00262407 -2.85922e-26 0 -0.00302485 -0.0115472 -0.0250319 -0.0433083 -0.0661099 -0.0930907 -0.123829 -0.157827 -0.194565 -0.233469 -0.273864 -0.318326 -0.297558 -0.401742 -0.442244 -0.476969 -0.512107 -0.544876 -0.573907 -0.59859 -0.618813 -0.634773 -0.645629 -0.656013 -0.667083 -0.644212 -0.635085 -0.621066 -0.602321 -0.576769 -0.304201 -0.378167 -0.427493 -0.45026 -0.414514 -0.375364 -0.336137 -0.296633 -0.257223 -0.218896 -0.181729 -0.1457 -0.115409 -0.0864355 -0.0607866 -0.0394651 -0.0224667 -0.0100731 -0.00253146 -2.76057e-26 0 -0.00288603 -0.011005 -0.0238237 -0.0411819 -0.0629714 -0.0887275 -0.118075 -0.15028 -0.185217 -0.222464 -0.260862 -0.300132 -0.339423 -0.385391 -0.419599 -0.454852 -0.488833 -0.520056 -0.547294 -0.570558 -0.590136 -0.608412 25.6184 -0.62199 -0.618541 -0.613968 -0.602931 -0.590094 -0.572102 -0.548054 -0.443977 -0.485571 -0.45885 -0.42802 -0.394217 -0.350927 -0.316485 -0.280801 -0.243899 -0.207506 -0.172571 -0.139117 -0.105038 -0.0821394 -0.0580104 -0.0373491 -0.0212826 -0.00955601 -0.00240146 -2.619e-26 0 -0.0026966 -0.0102852 -0.0222494 -0.0385478 -0.0589844 -0.0831723 -0.110601 -0.140682 -0.17345 -0.208495 -0.241625 -0.582029 -0.355631 -0.357916 -0.392368 -0.426272 -0.458238 -0.486926 -0.512121 -0.533811 -0.557175 54.2312 -0.580591 -0.579387 -0.576743 -0.572926 -0.547793 -0.549731 -0.532337 -0.510131 -0.442792 -0.454552 -0.42876 -0.396006 -0.366824 -0.312026 -0.253382 -0.25838 -0.226032 -0.192522 -0.160207 -0.129573 -0.100727 -0.0765054 -0.0540922 -0.0346197 -0.019781 -0.00889658 -0.00223563 -2.43668e-26 0 -0.00245487 -0.00938992 -0.0203634 -0.0354069 -0.0540651 -0.0762302 -0.101337 -0.129233 -0.159537 -0.191729 -0.224505 -0.258952 -0.300625 -0.32847 -0.360042 -0.39116 -0.420371 -0.446427 -0.469259 -0.491845 -130.14 -0.531733 -0.531614 -0.529997 -0.526911 -0.521442 -0.512934 -0.499771 -0.483926 -0.464168 -0.422541 -0.417015 -0.390336 -0.352697 -0.330525 -0.30134 0.012169 -0.193944 -0.203819 -0.17455 -0.145419 -0.117742 -0.0918721 0.600061 -0.0484798 -0.0312766 -0.0179758 -0.0081029 -0.00203596 -2.2164e-26 0 -0.00217736 -0.0083454 -0.0181271 -0.0314184 -0.0480513 -0.0677916 -0.0903632 -0.115352 -0.142511 -0.171483 -0.200951 -0.231461 -0.265334 -0.293681 -0.322486 -0.350235 -0.375953 -0.399195 -0.420184 -0.439921 -0.548663 -0.485754 -0.469571 -0.47013 -0.469058 -0.463972 -0.456656 -0.442615 -0.428623 -0.408943 -0.384087 -0.370305 -0.345244 -0.297452 -0.288375 -0.265219 -0.178437 -0.179436 -0.176907 -0.153689 -0.128134 -0.103831 -0.0811215 -0.0594529 -0.0429597 -0.0277029 -0.0158884 -0.00718459 -0.00180501 -1.96148e-26 0 -0.00186058 -0.00717439 -0.0156517 -0.0272136 -0.0417116 -0.0589383 -0.0786281 -0.100486 -0.124205 -0.149397 -0.17545 -0.201267 -0.22889 -0.254444 -0.279707 -0.303758 -0.325781 -0.345658 -0.363902 -14.3215 -0.404057 -0.401378 -0.403023 -0.405119 -0.402656 -0.398215 -0.388566 -0.379119 -0.36685 -0.350071 -0.326269 -0.310777 -0.294867 -0.267122 -0.235244 -0.224154 -0.201156 0.638159 -0.126212 -0.129135 -0.108652 -0.0883246 -0.0691801 -0.0517853 -0.0368574 -0.0237463 -0.0135474 -0.00615377 -0.00154585 -1.67576e-26 0 -0.00151903 -0.00589258 -0.0128984 -0.0224685 -0.0344826 -0.0487716 -0.0651266 -0.0832769 -0.103073 -0.124218 -0.145849 -0.168151 -0.189921 -0.211556 -0.232718 -0.25266 -0.27083 -0.287348 -0.302037 -0.314246 -0.323459 -0.329448 -0.333752 -0.338354 -0.328144 -0.325689 -0.317381 -0.308193 -0.297523 -0.284048 -0.268194 -0.251991 -0.241227 -0.223547 -0.195798 -0.176861 -0.160453 -0.0998271 -0.0968341 -0.0989189 -0.0874467 -0.0712557 -0.055933 -0.0419586 -11.2008 -0.019323 -0.0109667 -0.00781842 -0.00124516 -1.36369e-26 0 -0.00115886 -0.00453648 -0.010013 -0.0175643 -0.0270921 -0.0384537 -0.0514708 -0.0659306 -0.0816231 -0.0982896 -0.115619 -0.132145 -0.148609 -0.165697 -0.18228 -0.197725 -0.211718 -0.224622 -0.236325 -0.241643 -0.248473 -0.253783 -0.256337 -0.254244 -0.255811 -0.247429 -0.242092 -0.212117 -0.183551 -0.189267 -0.2041 -0.190547 -0.122526 -0.169422 -0.153251 -0.116676 -0.0968352 -0.0636085 -0.070062 -0.0732494 -0.0650194 -0.0530181 -0.0417229 -0.0313498 -0.0214932 -0.014475 -0.00820717 -0.00593082 -0.00087017 -1.0305e-26 0 -0.000786241 -0.00312658 -0.0069806 -0.0123351 -0.0190924 -0.0271433 -0.0363686 -0.0466086 -0.0577761 -0.0698866 -0.0821001 -0.0949835 -0.105383 -0.117494 -0.129148 -0.139822 -0.149292 -0.158004 -0.165685 -0.168388 -0.172138 -0.174934 -0.176021 -0.171398 -0.169635 -0.166302 -0.162064 -0.154504 -0.141938 -0.131884 -0.129886 -0.125989 -0.111785 -0.101504 -0.0974958 -0.0900496 -0.0743427 -0.0671495 -0.056834 -0.0504768 -0.041376 -0.033929 -0.0268455 -0.0202739 -0.01439 -0.00945499 -0.00535931 -0.00525323 -0.000491339 -6.82482e-27 0 -0.000413732 -0.00170168 -0.0038929 -0.00700683 -0.0110272 -0.015912 -0.021568 -0.0278213 -0.0345422 -0.0417769 -0.0490566 -0.0556099 -0.0606805 -0.0674579 -0.074037 -0.0798715 -0.084694 -0.0890459 -0.0929667 -0.0938039 -0.0939944 -0.0942954 -0.0936084 -0.0870008 -0.0850928 -0.0814043 -0.0748391 -0.0756672 -0.0721228 -0.0666892 -0.0598798 -0.0605758 -0.0568335 -0.0437799 -0.0374883 -0.0298309 -0.0237846 -0.0223022 -0.0245038 -0.0193396 -0.0165921 -0.0142602 -0.0114813 -0.00881147 -0.00642168 -0.00440662 -0.00245361 -0.00083055 -0.000251862 -3.2722e-27 0 -6.07404e-05 -0.000316328 -0.000844969 -0.00169511 -0.00286878 -0.00434499 -0.00606338 -0.00786559 -0.00970151 -0.0119893 -0.0137871 -0.0164046 -0.015297 -0.0165438 -0.0179205 -0.0188125 -0.0188899 -0.018738 -0.0192891 -0.0385871 -0.0154823 -0.0133118 -0.0116074 -0.00141925 0.014853 0.0186946 0.0137357 0.0153153 0.0162538 0.00894663 0.00809914 0.0237619 0.0115497 0.0128878 0.0318306 0.019096 0.0177724 0.0148438 0.0134533 0.0114903 0.0100048 0.00563096 0.00406226 0.00280267 0.00177085 0.000719751 0.000479874 0.000156124 2.65463e-05 2.11095e-28 0 0.000221598 0.000948351 0.00206492 0.00348046 0.0051521 0.00705715 0.00919997 0.0115586 0.0140963 0.0167888 0.0198964 0.0236514 0.0287099 0.0341009 0.0384651 0.0425566 0.0469451 0.0516462 0.0555269 0.05717 0.060825 0.0643285 0.056305 0.0795458 0.109652 0.0942214 0.0954203 0.0972397 0.0982656 0.0978286 0.0970271 0.0932066 0.0895515 0.0832925 0.0758583 0.0701337 0.0634817 0.055887 0.048946 0.041908 0.0481619 0.0254894 0.019574 0.0143991 0.00994492 0.00696261 0.00339935 0.00150311 0.000360225 3.80071e-27 0 -0.000561254 0.00179844 0.00465237 0.00836043 0.0128891 0.0181839 0.0241954 0.0309159 0.0382319 0.0460266 0.054622 0.063011 0.0606058 0.0826064 0.093979 0.103041 0.111933 0.121108 0.129631 0.137187 0.144508 0.152462 0.158805 0.164306 0.175235 0.175735 0.175638 0.175101 0.173238 0.170511 0.168194 0.161781 0.160066 0.151549 0.13379 0.11885 0.107527 0.0945762 0.0820423 0.06947 0.0579956 0.0448748 0.0348361 0.0258236 0.018025 0.0120877 0.00628492 0.00285032 0.000694164 7.39148e-27 0 0.00205388 -0.00113332 0.00629052 0.0125672 0.020024 0.028695 0.0385419 0.0495515 0.0613511 0.0741514 0.0871112 0.101137 0.116267 0.1306 0.147095 0.161505 0.17511 0.188373 0.201002 0.212687 0.223256 0.232434 0.241419 0.24766 0.251285 0.253998 0.253884 0.251818 0.24972 0.246407 0.23903 0.228745 0.213241 0.198173 0.182773 0.166945 0.14926 0.132776 0.11554 0.0980978 0.081793 0.0636989 0.0495564 0.0368631 0.0258496 0.0171848 0.0098838 0.0041406 0.00101473 1.08769e-26 0 0.00237747 0.0106683 0.00127304 0.0149524 0.0260604 0.0382098 0.0518393 0.0671174 0.0832448 0.101038 0.11902 0.137636 0.157979 0.179385 0.197153 0.216962 0.235211 0.252428 0.269054 0.284002 0.29679 0.307896 0.315624 0.32418 0.32788 0.330452 0.329764 0.327048 0.324237 0.31711 0.305753 0.291242 0.26875 0.262767 0.246523 0.220159 0.189566 0.167567 0.145409 0.123583 0.103107 0.0814868 0.0635272 0.0473485 0.033284 0.0221738 0.0127143 0.00533734 0.00132324 1.41903e-26 0 0.00153326 0.00559181 0.0248167 0.0037396 0.0296088 0.0461223 0.0635489 0.0832778 0.103335 0.126275 0.148334 0.172102 0.196533 0.221953 0.156072 0.264088 0.291278 0.312322 0.332466 0.349989 0.364994 0.378028 0.387796 0.387697 0.398431 0.402431 0.401406 0.395976 0.388545 0.378322 0.364296 0.347042 0.350804 0.303987 0.279932 0.253626 0.226977 0.201012 0.174492 0.148854 -28.1139 0.0981602 0.0764613 0.0571279 0.0402405 0.027011 0.0157657 0.00655454 0.00161226 1.72859e-26 0 0.00179821 0.00705987 0.0223319 0.0480613 0.0192752 0.051326 0.0720715 0.0980486 0.120508 0.149472 0.175182 0.203679 0.232631 0.261809 0.290637 -76.9677 0.337786 0.366977 0.389094 0.409028 0.426592 0.44139 0.452999 0.462634 0.46856 0.476211 0.47027 0.468283 0.466191 0.4581 0.422858 0.395051 0.380728 0.352111 0.321901 0.294811 0.271645 0.231768 0.2007 0.170748 0.168946 0.11335 0.0883691 0.066033 0.0465767 0.0317454 0.0188024 0.00763252 0.00187621 2.01089e-26 0 0.00203752 0.00815095 0.0182874 0.0321175 0.0831546 0.0544804 0.0574241 0.112517 0.130413 0.170514 0.198709 0.231957 0.264482 0.296453 0.328275 0.358586 0.387424 0.408126 0.433392 0.457575 0.478388 0.495639 0.510081 0.521163 0.526606 0.526474 0.523614 0.51642 0.50565 0.490679 0.465704 0.443975 0.425766 0.41059 0.356789 0.324564 0.292236 0.268324 0.223761 0.190234 0.166819 0.127012 0.0989043 0.073939 0.0522189 0.0366104 0.0217492 0.00846932 0.00210822 2.26133e-26 0 0.00224951 0.00896963 0.0200257 0.0352044 0.0538443 0.0674119 0.134816 0.126872 0.125253 0.189583 0.218674 0.256458 0.292686 0.327414 0.361824 0.395524 0.427309 0.456231 0.481226 0.510651 0.531879 0.549198 0.55963 0.567646 0.574604 0.576161 0.573145 0.563605 0.550088 0.532786 0.514527 0.491026 0.458762 0.433851 0.388349 0.352925 0.317535 0.283985 0.243571 0.20814 0.174509 0.138349 0.107803 0.080674 0.0570869 0.0564653 0.0362042 0.00913785 0.00230312 2.47612e-26 0 0.00241852 0.00962687 0.0214685 0.0377882 0.0580597 0.0813254 0.108276 0.13932 0.170651 0.206772 0.236753 0.277431 0.316364 0.353621 0.390717 0.427299 0.461069 0.490049 0.520534 0.549518 0.57175 0.589762 0.603867 0.608686 0.593106 0.586313 0.615561 0.602962 0.58793 0.56901 0.549896 0.523391 0.48613 0.457228 0.418833 0.379904 0.338928 0.29857 0.265455 0.220617 0.183556 0.14747 0.11503 0.0861163 0.0611579 0.0447372 0.0220565 0.00982146 0.00246384 2.65287e-26 0 0.00254511 0.0101286 0.0225983 0.0398035 0.0612479 0.0861098 0.114608 0.147389 0.181633 0.218898 0.256315 0.295464 0.335018 0.37411 0.412594 0.450963 0.486833 36.7499 0.551268 0.578885 0.602319 0.621026 0.635078 0.643608 0.650673 0.650125 0.645294 0.634789 0.619283 0.599916 0.576488 0.557202 0.509887 0.477741 0.438725 0.396992 0.356837 0.317185 0.26948 0.231849 0.191012 0.15435 0.120625 0.0904243 0.0648186 0.0455087 0.0230886 0.0103133 0.00258653 2.78721e-26 0 0.002632 0.0104737 0.0233743 0.0411575 0.0632928 0.0894598 0.119085 0.15313 0.188747 0.227582 0.26648 0.306208 0.347575 0.388717 0.428728 0.468186 0.504797 0.517594 0.570876 0.598768 0.622755 0.642225 0.656614 0.664319 0.672107 0.671395 0.666133 0.65541 0.639602 0.619936 0.593979 0.564791 0.524345 0.49055 0.45952 0.409226 0.366156 0.323644 0.280967 0.235683 0.196416 0.159182 0.124644 0.0936717 0.0713687 0.0509455 0.0238543 0.0106435 0.0027086 2.87712e-26 0 0.00267898 0.0106609 0.0237943 0.0418834 0.0643601 0.091499 0.121809 0.156548 0.192813 0.23278 0.272573 0.310801 0.354332 0.397366 0.438325 0.47797 0.499002 0.550916 0.582272 0.608273 0.628314 0.653018 0.668742 0.678885 0.682889 0.681959 0.676187 0.665191 0.649623 0.630133 0.60356 0.571123 0.531218 0.503583 0.481258 0.417679 0.370199 0.326817 0.285497 -42.0365 0.198719 0.161028 0.126273 0.0949157 0.0726305 0.0480562 0.024561 0.0108293 0.00273731 2.92243e-26 0 0.00267915 0.010661 0.0237966 0.0419376 0.0783795 0.0915614 0.12199 0.156735 0.192967 0.233148 0.27296 0.303166 0.353261 0.39791 0.438801 31.186 0.507188 0.550202 0.580861 0.603725 0.631562 0.654523 0.669285 0.678894 0.682908 0.682134 0.676721 0.664991 0.649332 0.62798 0.602797 0.429918 0.53976 0.494696 0.881411 0.428961 0.368212 0.326044 0.28538 0.248661 0.199178 0.161044 0.126372 0.0952401 0.0725397 0.0425536 0.0248692 0.0108171 0.00270624 2.92202e-26 0 0.00264779 0.010547 0.0235007 0.0413539 0.0778163 0.0904898 0.12146 0.155568 0.191555 0.231585 0.270897 0.293882 0.350019 0.395054 0.435067 0.412977 0.510769 0.544417 0.568187 0.604075 0.622607 0.641151 0.659671 0.669328 0.672251 0.67103 0.664911 0.653335 0.636817 0.614864 0.588678 0.552552 0.532495 0.483414 0.446342 0.4079 0.360937 0.319824 0.279331 0.237246 0.195668 0.15812 0.124073 0.0938379 0.0646383 0.0418106 0.0240283 0.011006 0.00266182 2.87578e-26 0 0.00256549 0.0165758 0.0227518 0.0400682 0.0756224 0.0880782 0.118281 0.150909 0.185369 0.224468 0.262943 0.301794 0.342327 0.383506 0.422521 0.463183 0