<?xml version="1.0"?>
<VTKFile type="PolyData">
	<PolyData>
		<Piece NumberOfPoints="2601" NumberOfPolys="2500">
			<Points>
				<DataArray type="Float32" NumberOfComponents="3" format="ascii">
 0 0 0 0.02 0 0 0.04 0 0 0.06 0 0 0.08 0 0 0.1 0 0 0.12 0 0 0.14 0 0 0.16 0 0 0.18 0 0 0.2 0 0 0.22 0 0 0.24 0 0 0.26 0 0 0.28 0 0 0.3 0 0 0.32 0 0 0.34 0 0 0.36 0 0 0.38 0 0 0.4 0 0 0.42 0 0 0.44 0 0 0.46 0 0 0.48 0 0 0.5 0 0 0.52 0 0 0.54 0 0 0.56 0 0 0.58 0 0 0.6 0 0 0.62 0 0 0.64 0 0 0.66 0 0 0.68 0 0 0.7 0 0 0.72 0 0 0.74 0 0 0.76 0 0 0.78 0 0 0.8 0 0 0.82 0 0 0.84 0 0 0.86 0 0 0.88 0 0 0.9 0 0 0.92 0 0 0.94 0 0 0.96 0 0 0.98 0 0 1 0 0 0 0.02 0 0.02 0.02 0 0.04 0.02 0 0.06 0.02 0 0.08 0.02 0 0.1 0.02 0 0.12 0.02 0 0.14 0.02 0 0.16 0.02 0 0.18 0.02 0 0.2 0.02 0 0.22 0.02 0 0.24 0.02 0 0.26 0.02 0 0.28 0.02 0 0.3 0.02 0 0.32 0.02 0 0.34 0.02 0 0.36 0.02 0 0.38 0.02 0 0.4 0.02 0 0.42 0.02 0 0.44 0.02 0 0.46 0.02 0 0.48 0.02 0 0.5 0.02 0 0.52 0.02 0 0.54 0.02 0 0.56 0.02 0 0.58 0.02 0 0.6 0.02 0 0.62 0.02 0 0.64 0.02 0 0.66 0.02 0 0.68 0.02 0 0.7 0.02 0 0.72 0.02 0 0.74 0.02 0 0.76 0.02 0 0.78 0.02 0 0.8 0.02 0 0.82 0.02 0 0.84 0.02 0 0.86 0.02 0 0.88 0.02 0 0.9 0.02 0 0.92 0.02 0 0.94 0.02 0 0.96 0.02 0 0.98 0.02 0 1 0.02 0 0 0.04 0 0.02 0.04 0 0.04 0.04 0 0.06 0.04 0 0.08 0.04 0 0.1 0.04 0 0.12 0.04 0 0.14 0.04 0 0.16 0.04 0 0.18 0.04 0 0.2 0.04 0 0.22 0.04 0 0.24 0.04 0 0.26 0.04 0 0.28 0.04 0 0.3 0.04 0 0.32 0.04 0 0.34 0.04 0 0.36 0.04 0 0.38 0.04 0 0.4 0.04 0 0.42 0.04 0 0.44 0.04 0 0.46 0.04 0 0.48 0.04 0 0.5 0.04 0 0.52 0.04 0 0.54 0.04 0 0.56 0.04 0 0.58 0.04 0 0.6 0.04 0 0.62 0.04 0 0.64 0.04 0 0.66 0.04 0 0.68 0.04 0 0.7 0.04 0 0.72 0.04 0 0.74 0.04 0 0.76 0.04 0 0.78 0.04 0 0.8 0.04 0 0.82 0.04 0 0.84 0.04 0 0.86 0.04 0 0.88 0.04 0 0.9 0.04 0 0.92 0.04 0 0.94 0.04 0 0.96 0.04 0 0.98 0.04 0 1 0.04 0 0 0.06 0 0.02 0.06 0 0.04 0.06 0 0.06 0.06 0 0.08 0.06 0 0.1 0.06 0 0.12 0.06 0 0.14 0.06 0 0.16 0.06 0 0.18 0.06 0 0.2 0.06 0 0.22 0.06 0 0.24 0.06 0 0.26 0.06 0 0.28 0.06 0 0.3 0.06 0 0.32 0.06 0 0.34 0.06 0 0.36 0.06 0 0.38 0.06 0 0.4 0.06 0 0.42 0.06 0 0.44 0.06 0 0.46 0.06 0 0.48 0.06 0 0.5 0.06 0 0.52 0.06 0 0.54 0.06 0 0.56 0.06 0 0.58 0.06 0 0.6 0.06 0 0.62 0.06 0 0.64 0.06 0 0.66 0.06 0 0.68 0.06 0 0.7 0.06 0 0.72 0.06 0 0.74 0.06 0 0.76 0.06 0 0.78 0.06 0 0.8 0.06 0 0.82 0.06 0 0.84 0.06 0 0.86 0.06 0 0.88 0.06 0 0.9 0.06 0 0.92 0.06 0 0.94 0.06 0 0.96 0.06 0 0.98 0.06 0 1 0.06 0 0 0.08 0 0.02 0.08 0 0.04 0.08 0 0.06 0.08 0 0.08 0.08 0 0.1 0.08 0 0.12 0.08 0 0.14 0.08 0 0.16 0.08 0 0.18 0.08 0 0.2 0.08 0 0.22 0.08 0 0.24 0.08 0 0.26 0.08 0 0.28 0.08 0 0.3 0.08 0 0.32 0.08 0 0.34 0.08 0 0.36 0.08 0 0.38 0.08 0 0.4 0.08 0 0.42 0.08 0 0.44 0.08 0 0.46 0.08 0 0.48 0.08 0 0.5 0.08 0 0.52 0.08 0 0.54 0.08 0 0.56 0.08 0 0.58 0.08 0 0.6 0.08 0 0.62 0.08 0 0.64 0.08 0 0.66 0.08 0 0.68 0.08 0 0.7 0.08 0 0.72 0.08 0 0.74 0.08 0 0.76 0.08 0 0.78 0.08 0 0.8 0.08 0 0.82 0.08 0 0.84 0.08 0 0.86 0.08 0 0.88 0.08 0 0.9 0.08 0 0.92 0.08 0 0.94 0.08 0 0.96 0.08 0 0.98 0.08 0 1 0.08 0 0 0.1 0 0.02 0.1 0 0.04 0.1 0 0.06 0.1 0 0.08 0.1 0 0.1 0.1 0 0.12 0.1 0 0.14 0.1 0 0.16 0.1 0 0.18 0.1 0 0.2 0.1 0 0.22 0.1 0 0.24 0.1 0 0.26 0.1 0 0.28 0.1 0 0.3 0.1 0 0.32 0.1 0 0.34 0.1 0 0.36 0.1 0 0.38 0.1 0 0.4 0.1 0 0.42 0.1 0 0.44 0.1 0 0.46 0.1 0 0.48 0.1 0 0.5 0.1 0 0.52 0.1 0 0.54 0.1 0 0.56 0.1 0 0.58 0.1 0 0.6 0.1 0 0.62 0.1 0 0.64 0.1 0 0.66 0.1 0 0.68 0.1 0 0.7 0.1 0 0.72 0.1 0 0.74 0.1 0 0.76 0.1 0 0.78 0.1 0 0.8 0.1 0 0.82 0.1 0 0.84 0.1 0 0.86 0.1 0 0.88 0.1 0 0.9 0.1 0 0.92 0.1 0 0.94 0.1 0 0.96 0.1 0 0.98 0.1 0 1 0.1 0 0 0.12 0 0.02 0.12 0 0.04 0.12 0 0.06 0.12 0 0.08 0.12 0 0.1 0.12 0 0.12 0.12 0 0.14 0.12 0 0.16 0.12 0 0.18 0.12 0 0.2 0.12 0 0.22 0.12 0 0.24 0.12 0 0.26 0.12 0 0.28 0.12 0 0.3 0.12 0 0.32 0.12 0 0.34 0.12 0 0.36 0.12 0 0.38 0.12 0 0.4 0.12 0 0.42 0.12 0 0.44 0.12 0 0.46 0.12 0 0.48 0.12 0 0.5 0.12 0 0.52 0.12 0 0.54 0.12 0 0.56 0.12 0 0.58 0.12 0 0.6 0.12 0 0.62 0.12 0 0.64 0.12 0 0.66 0.12 0 0.68 0.12 0 0.7 0.12 0 0.72 0.12 0 0.74 0.12 0 0.76 0.12 0 0.78 0.12 0 0.8 0.12 0 0.82 0.12 0 0.84 0.12 0 0.86 0.12 0 0.88 0.12 0 0.9 0.12 0 0.92 0.12 0 0.94 0.12 0 0.96 0.12 0 0.98 0.12 0 1 0.12 0 0 0.14 0 0.02 0.14 0 0.04 0.14 0 0.06 0.14 0 0.08 0.14 0 0.1 0.14 0 0.12 0.14 0 0.14 0.14 0 0.16 0.14 0 0.18 0.14 0 0.2 0.14 0 0.22 0.14 0 0.24 0.14 0 0.26 0.14 0 0.28 0.14 0 0.3 0.14 0 0.32 0.14 0 0.34 0.14 0 0.36 0.14 0 0.38 0.14 0 0.4 0.14 0 0.42 0.14 0 0.44 0.14 0 0.46 0.14 0 0.48 0.14 0 0.5 0.14 0 0.52 0.14 0 0.54 0.14 0 0.56 0.14 0 0.58 0.14 0 0.6 0.14 0 0.62 0.14 0 0.64 0.14 0 0.66 0.14 0 0.68 0.14 0 0.7 0.14 0 0.72 0.14 0 0.74 0.14 0 0.76 0.14 0 0.78 0.14 0 0.8 0.14 0 0.82 0.14 0 0.84 0.14 0 0.86 0.14 0 0.88 0.14 0 0.9 0.14 0 0.92 0.14 0 0.94 0.14 0 0.96 0.14 0 0.98 0.14 0 1 0.14 0 0 0.16 0 0.02 0.16 0 0.04 0.16 0 0.06 0.16 0 0.08 0.16 0 0.1 0.16 0 0.12 0.16 0 0.14 0.16 0 0.16 0.16 0 0.18 0.16 0 0.2 0.16 0 0.22 0.16 0 0.24 0.16 0 0.26 0.16 0 0.28 0.16 0 0.3 0.16 0 0.32 0.16 0 0.34 0.16 0 0.36 0.16 0 0.38 0.16 0 0.4 0.16 0 0.42 0.16 0 0.44 0.16 0 0.46 0.16 0 0.48 0.16 0 0.5 0.16 0 0.52 0.16 0 0.54 0.16 0 0.56 0.16 0 0.58 0.16 0 0.6 0.16 0 0.62 0.16 0 0.64 0.16 0 0.66 0.16 0 0.68 0.16 0 0.7 0.16 0 0.72 0.16 0 0.74 0.16 0 0.76 0.16 0 0.78 0.16 0 0.8 0.16 0 0.82 0.16 0 0.84 0.16 0 0.86 0.16 0 0.88 0.16 0 0.9 0.16 0 0.92 0.16 0 0.94 0.16 0 0.96 0.16 0 0.98 0.16 0 1 0.16 0 0 0.18 0 0.02 0.18 0 0.04 0.18 0 0.06 0.18 0 0.08 0.18 0 0.1 0.18 0 0.12 0.18 0 0.14 0.18 0 0.16 0.18 0 0.18 0.18 0 0.2 0.18 0 0.22 0.18 0 0.24 0.18 0 0.26 0.18 0 0.28 0.18 0 0.3 0.18 0 0.32 0.18 0 0.34 0.18 0 0.36 0.18 0 0.38 0.18 0 0.4 0.18 0 0.42 0.18 0 0.44 0.18 0 0.46 0.18 0 0.48 0.18 0 0.5 0.18 0 0.52 0.18 0 0.54 0.18 0 0.56 0.18 0 0.58 0.18 0 0.6 0.18 0 0.62 0.18 0 0.64 0.18 0 0.66 0.18 0 0.68 0.18 0 0.7 0.18 0 0.72 0.18 0 0.74 0.18 0 0.76 0.18 0 0.78 0.18 0 0.8 0.18 0 0.82 0.18 0 0.84 0.18 0 0.86 0.18 0 0.88 0.18 0 0.9 0.18 0 0.92 0.18 0 0.94 0.18 0 0.96 0.18 0 0.98 0.18 0 1 0.18 0 0 0.2 0 0.02 0.2 0 0.04 0.2 0 0.06 0.2 0 0.08 0.2 0 0.1 0.2 0 0.12 0.2 0 0.14 0.2 0 0.16 0.2 0 0.18 0.2 0 0.2 0.2 0 0.22 0.2 0 0.24 0.2 0 0.26 0.2 0 0.28 0.2 0 0.3 0.2 0 0.32 0.2 0 0.34 0.2 0 0.36 0.2 0 0.38 0.2 0 0.4 0.2 0 0.42 0.2 0 0.44 0.2 0 0.46 0.2 0 0.48 0.2 0 0.5 0.2 0 0.52 0.2 0 0.54 0.2 0 0.56 0.2 0 0.58 0.2 0 0.6 0.2 0 0.62 0.2 0 0.64 0.2 0 0.66 0.2 0 0.68 0.2 0 0.7 0.2 0 0.72 0.2 0 0.74 0.2 0 0.76 0.2 0 0.78 0.2 0 0.8 0.2 0 0.82 0.2 0 0.84 0.2 0 0.86 0.2 0 0.88 0.2 0 0.9 0.2 0 0.92 0.2 0 0.94 0.2 0 0.96 0.2 0 0.98 0.2 0 1 0.2 0 0 0.22 0 0.02 0.22 0 0.04 0.22 0 0.06 0.22 0 0.08 0.22 0 0.1 0.22 0 0.12 0.22 0 0.14 0.22 0 0.16 0.22 0 0.18 0.22 0 0.2 0.22 0 0.22 0.22 0 0.24 0.22 0 0.26 0.22 0 0.28 0.22 0 0.3 0.22 0 0.32 0.22 0 0.34 0.22 0 0.36 0.22 0 0.38 0.22 0 0.4 0.22 0 0.42 0.22 0 0.44 0.22 0 0.46 0.22 0 0.48 0.22 0 0.5 0.22 0 0.52 0.22 0 0.54 0.22 0 0.56 0.22 0 0.58 0.22 0 0.6 0.22 0 0.62 0.22 0 0.64 0.22 0 0.66 0.22 0 0.68 0.22 0 0.7 0.22 0 0.72 0.22 0 0.74 0.22 0 0.76 0.22 0 0.78 0.22 0 0.8 0.22 0 0.82 0.22 0 0.84 0.22 0 0.86 0.22 0 0.88 0.22 0 0.9 0.22 0 0.92 0.22 0 0.94 0.22 0 0.96 0.22 0 0.98 0.22 0 1 0.22 0 0 0.24 0 0.02 0.24 0 0.04 0.24 0 0.06 0.24 0 0.08 0.24 0 0.1 0.24 0 0.12 0.24 0 0.14 0.24 0 0.16 0.24 0 0.18 0.24 0 0.2 0.24 0 0.22 0.24 0 0.24 0.24 0 0.26 0.24 0 0.28 0.24 0 0.3 0.24 0 0.32 0.24 0 0.34 0.24 0 0.36 0.24 0 0.38 0.24 0 0.4 0.24 0 0.42 0.24 0 0.44 0.24 0 0.46 0.24 0 0.48 0.24 0 0.5 0.24 0 0.52 0.24 0 0.54 0.24 0 0.56 0.24 0 0.58 0.24 0 0.6 0.24 0 0.62 0.24 0 0.64 0.24 0 0.66 0.24 0 0.68 0.24 0 0.7 0.24 0 0.72 0.24 0 0.74 0.24 0 0.76 0.24 0 0.78 0.24 0 0.8 0.24 0 0.82 0.24 0 0.84 0.24 0 0.86 0.24 0 0.88 0.24 0 0.9 0.24 0 0.92 0.24 0 0.94 0.24 0 0.96 0.24 0 0.98 0.24 0 1 0.24 0 0 0.26 0 0.02 0.26 0 0.04 0.26 0 0.06 0.26 0 0.08 0.26 0 0.1 0.26 0 0.12 0.26 0 0.14 0.26 0 0.16 0.26 0 0.18 0.26 0 0.2 0.26 0 0.22 0.26 0 0.24 0.26 0 0.26 0.26 0 0.28 0.26 0 0.3 0.26 0 0.32 0.26 0 0.34 0.26 0 0.36 0.26 0 0.38 0.26 0 0.4 0.26 0 0.42 0.26 0 0.44 0.26 0 0.46 0.26 0 0.48 0.26 0 0.5 0.26 0 0.52 0.26 0 0.54 0.26 0 0.56 0.26 0 0.58 0.26 0 0.6 0.26 0 0.62 0.26 0 0.64 0.26 0 0.66 0.26 0 0.68 0.26 0 0.7 0.26 0 0.72 0.26 0 0.74 0.26 0 0.76 0.26 0 0.78 0.26 0 0.8 0.26 0 0.82 0.26 0 0.84 0.26 0 0.86 0.26 0 0.88 0.26 0 0.9 0.26 0 0.92 0.26 0 0.94 0.26 0 0.96 0.26 0 0.98 0.26 0 1 0.26 0 0 0.28 0 0.02 0.28 0 0.04 0.28 0 0.06 0.28 0 0.08 0.28 0 0.1 0.28 0 0.12 0.28 0 0.14 0.28 0 0.16 0.28 0 0.18 0.28 0 0.2 0.28 0 0.22 0.28 0 0.24 0.28 0 0.26 0.28 0 0.28 0.28 0 0.3 0.28 0 0.32 0.28 0 0.34 0.28 0 0.36 0.28 0 0.38 0.28 0 0.4 0.28 0 0.42 0.28 0 0.44 0.28 0 0.46 0.28 0 0.48 0.28 0 0.5 0.28 0 0.52 0.28 0 0.54 0.28 0 0.56 0.28 0 0.58 0.28 0 0.6 0.28 0 0.62 0.28 0 0.64 0.28 0 0.66 0.28 0 0.68 0.28 0 0.7 0.28 0 0.72 0.28 0 0.74 0.28 0 0.76 0.28 0 0.78 0.28 0 0.8 0.28 0 0.82 0.28 0 0.84 0.28 0 0.86 0.28 0 0.88 0.28 0 0.9 0.28 0 0.92 0.28 0 0.94 0.28 0 0.96 0.28 0 0.98 0.28 0 1 0.28 0 0 0.3 0 0.02 0.3 0 0.04 0.3 0 0.06 0.3 0 0.08 0.3 0 0.1 0.3 0 0.12 0.3 0 0.14 0.3 0 0.16 0.3 0 0.18 0.3 0 0.2 0.3 0 0.22 0.3 0 0.24 0.3 0 0.26 0.3 0 0.28 0.3 0 0.3 0.3 0 0.32 0.3 0 0.34 0.3 0 0.36 0.3 0 0.38 0.3 0 0.4 0.3 0 0.42 0.3 0 0.44 0.3 0 0.46 0.3 0 0.48 0.3 0 0.5 0.3 0 0.52 0.3 0 0.54 0.3 0 0.56 0.3 0 0.58 0.3 0 0.6 0.3 0 0.62 0.3 0 0.64 0.3 0 0.66 0.3 0 0.68 0.3 0 0.7 0.3 0 0.72 0.3 0 0.74 0.3 0 0.76 0.3 0 0.78 0.3 0 0.8 0.3 0 0.82 0.3 0 0.84 0.3 0 0.86 0.3 0 0.88 0.3 0 0.9 0.3 0 0.92 0.3 0 0.94 0.3 0 0.96 0.3 0 0.98 0.3 0 1 0.3 0 0 0.32 0 0.02 0.32 0 0.04 0.32 0 0.06 0.32 0 0.08 0.32 0 0.1 0.32 0 0.12 0.32 0 0.14 0.32 0 0.16 0.32 0 0.18 0.32 0 0.2 0.32 0 0.22 0.32 0 0.24 0.32 0 0.26 0.32 0 0.28 0.32 0 0.3 0.32 0 0.32 0.32 0 0.34 0.32 0 0.36 0.32 0 0.38 0.32 0 0.4 0.32 0 0.42 0.32 0 0.44 0.32 0 0.46 0.32 0 0.48 0.32 0 0.5 0.32 0 0.52 0.32 0 0.54 0.32 0 0.56 0.32 0 0.58 0.32 0 0.6 0.32 0 0.62 0.32 0 0.64 0.32 0 0.66 0.32 0 0.68 0.32 0 0.7 0.32 0 0.72 0.32 0 0.74 0.32 0 0.76 0.32 0 0.78 0.32 0 0.8 0.32 0 0.82 0.32 0 0.84 0.32 0 0.86 0.32 0 0.88 0.32 0 0.9 0.32 0 0.92 0.32 0 0.94 0.
[...]
			<PointData Scalars="VitesseX">
				<DataArray Name="VitesseX" type="Float32" format="ascii">
 0 0 0 0 0 0 0 0 0 0 0 0 0 0 0 0 0 0 0 0 0 0 0 0 0 0 0 0 0 0 0 0 0 0 0 0 0 0 0 0 0 0 0 0 0 0 0 0 0 0 0 0 0.00045363 0.000898062 0.00201671 0.00329385 0.00533389 0.00736098 0.00996225 0.0129178 0.0151417 0.0191894 0.022391 0.0258336 0.0293329 0.0326511 0.0359682 0.0392679 0.0423 0.0449888 0.0472451 0.0492786 0.0507213 0.0512487 0.0519629 0.0517785 0.0517152 0.051107 0.0503765 0.0492313 0.0478102 0.0457322 0.0431455 0.0402375 0.0362066 0.0278758 0.0293166 0.0275195 0.0254724 0.0242365 0.0209812 0.0153553 0.0121103 0.00334976 0.00443207 0.00731239 0.00493276 0.00251573 0.000559443 0.000721932 0.000236233 2.20622e-27 0 -0.0112344 0.00168028 0.00398731 0.00596923 0.010134 0.0138748 0.0190068 0.0244984 0.0303082 0.0364806 0.042862 0.0492813 0.055708 0.0622302 0.0685895 0.0748003 0.0806147 0.0851632 0.0888895 0.0941349 0.0973372 0.0996521 0.101624 0.102177 0.102351 0.101848 0.100741 0.0987963 0.0960563 0.0925877 0.0884977 0.0838412 0.078674 0.0730869 0.0671396 0.0609049 0.0544813 0.0480562 0.041747 0.0355072 0.0294977 0.0239427 0.0187988 0.0141381 0.0100276 0.00654243 0.00374986 0.00170826 0.000444775 4.37735e-27 0 0.000609555 0.00243115 0.00508366 0.00110218 0.0148088 0.0194606 0.0278313 0.0356987 0.0440871 0.053181 0.0625384 0.0719321 0.0812041 0.0908877 0.100116 0.109123 0.117625 0.125598 0.13249 0.137241 0.14246 0.146584 0.149324 0.150937 0.151198 0.150308 0.147545 0.144923 0.142223 0.13717 0.131103 0.124205 0.116568 0.108311 0.0994846 0.0902411 0.0807028 0.0711529 0.0618468 0.0526305 0.0437418 0.0355169 0.0278811 0.0209671 0.0148768 0.00969939 0.0055725 0.00255751 0.000669107 6.47906e-27 0 0.00078763 0.00312581 0.00708284 0.0105791 0.0192676 0.0273161 0.0363937 0.0464109 0.0573358 0.0690898 0.0811496 0.0934632 0.105805 0.118357 0.130077 0.141726 0.152038 0.173542 0.184134 0.183306 0.185424 0.191037 0.194945 0.197362 0.198255 0.197587 0.194958 0.190603 0.184925 0.179521 0.171838 0.162773 0.15278 0.141961 0.130781 0.115366 0.101534 0.0936784 0.0813515 0.0685394 0.0571062 0.0465211 0.0365604 0.0275502 0.0196393 0.0129294 0.00748598 0.00331465 0.000804008 8.47913e-27 0 0.000962655 0.00378012 0.00858371 0.0151362 0.0233645 0.0330865 0.044261 0.0564804 0.0698692 0.0839705 0.098588 0.113556 0.128774 0.143757 0.157871 0.172113 0.185526 0.198065 0.209889 0.220016 0.226619 0.23283 0.23774 0.240801 0.241954 0.241687 0.238291 0.233633 0.227322 0.219464 0.209763 0.198637 0.186421 0.173195 0.158785 0.144137 0.129203 0.114091 0.0990797 0.0842126 0.0704127 0.0565791 0.0445602 0.0334315 0.0236964 0.0154969 0.00888011 0.00396034 0.000981585 1.03451e-26 0 0.00231028 0.00435623 0.00995702 0.0175803 0.0270785 0.0384397 0.0513337 0.0655736 0.078607 0.0971642 0.114387 0.131809 0.149402 0.16686 0.18373 0.200284 0.215549 0.228581 0.242514 0.25403 0.263408 0.270853 0.276738 0.280391 0.281783 0.281825 0.277514 0.272126 0.264791 0.255549 0.244239 0.231187 0.21701 0.201765 0.184899 0.167888 0.15049 0.132837 0.115294 0.0982165 0.0820652 0.0674006 0.0532035 0.0395988 0.0277487 0.0179461 0.0101374 0.00451654 0.00114544 1.2048e-26 0 0.0030201 0.00482384 0.0111552 0.0197118 0.0303612 0.043098 0.057562 0.0733823 0.0898301 0.109102 0.128428 0.14804 0.167751 0.186954 0.206267 0.225072 0.242489 0.256232 0.272626 0.286997 0.297987 0.306598 0.312432 0.316176 0.316994 0.315634 0.311443 0.304948 0.296346 0.285488 0.272369 0.257436 0.252833 0.378893 0.208031 0.188988 0.169362 0.149455 0.12971 0.110625 0.092417 0.0758099 0.0597434 0.0444375 0.0312561 0.0203109 0.0112708 0.00506838 0.00127785 1.35609e-26 0 0.000674196 0.0051398 0.0121671 0.021546 0.0331724 0.045494 0.0626246 0.079851 0.0989842 0.119498 0.140133 0.16178 0.183631 0.204933 0.225935 0.245631 -2.46086 49.6187 0.0296306 0.314836 0.325372 0.334466 0.341369 0.345927 0.347415 0.346364 0.342567 0.335983 0.326909 0.315371 0.301526 0.285837 0.268467 0.249293 0.228513 0.206564 0.203884 0.208231 0.141279 0.121184 0.101195 0.082807 0.0648524 0.0485839 0.0340351 0.0218404 0.0123969 0.00550249 0.00140835 1.486e-26 0 0.00135485 0.00511937 0.012989 0.0148343 0.0351587 0.0493223 0.0668291 0.0853975 0.105951 0.127814 0.149742 0.172975 0.196432 0.219397 0.24145 66.1341 -0.228635 0.28709 0.320146 0.335054 0.347889 0.358108 0.365682 0.370603 0.372308 0.37126 0.367302 0.360317 0.350659 0.338364 0.323628 0.306716 0.287906 0.267446 0.245479 0.222724 0.199489 0.175582 0.162151 0.129668 0.108101 0.0882069 0.0689505 0.0517195 0.036735 0.0232352 0.0131484 0.0059681 0.00151416 1.59249e-26 0 0.00140576 0.00529573 0.0124058 0.0238355 0.0369126 0.0526794 0.0703909 0.0898365 0.111386 0.134002 0.157425 0.181694 0.206169 0.229969 64.4515 0.235404 0.297209 0.317619 0.336023 0.351972 0.365439 0.376269 0.384268 0.389458 0.391324 0.39028 0.38619 0.378895 0.368797 0.355943 0.340519 0.322754 0.302925 0.281385 0.258393 0.234453 0.209845 0.185021 0.160575 0.156321 0.127312 0.0911213 0.0721323 0.0536613 0.0377727 0.0244632 0.0138837 0.00619376 0.00156774 1.67389e-26 0 0.00146941 0.00596159 0.0107669 0.0248079 0.0383797 0.0545399 0.072831 0.0925635 0.114792 0.13835 0.162638 0.187653 0.212767 69.0431 0.241457 0.284764 0.307668 0.32834 0.347028 0.363472 0.377383 0.388572 0.396851 0.402219 0.40416 0.403136 0.398988 0.391517 0.381164 0.367963 0.352105 0.333778 0.313241 0.29095 0.267272 0.242524 0.217026 0.191334 0.166002 0.141308 0.138344 0.103574 0.0735535 0.0551785 0.0388607 0.0251331 0.0142776 0.00644027 0.00164422 1.72891e-26 0 0.00154504 0.0062291 0.0105932 0.0251655 0.0369462 0.0551334 0.0737872 0.0926951 0.116239 0.14025 0.164843 0.190047 0.215401 0.2171 0.263917 0.289224 0.312072 0.332982 0.351951 0.368735 0.382958 0.3944 0.402978 0.408491 0.41057 0.409738 0.405695 0.398118 0.387679 0.374308 0.358299 0.339755 0.318833 0.296173 0.272097 0.24691 0.220956 0.19482 0.168945 0.143844 0.120236 0.106664 0.0754318 0.0561463 0.039503 0.0255607 0.0145143 0.00656827 0.00167602 1.75668e-26 0 0.00155138 0.00617775 0.0135704 0.0250514 0.0375511 0.0550172 0.0736885 0.094287 0.116641 0.140309 0.164888 0.189723 0.190516 0.238966 0.265264 0.289441 0.312046 0.333011 0.351941 0.368626 0.382879 0.394161 0.4029 0.408503 0.410586 3.01836 0.424778 0.398898 0.389392 0.375226 0.364108 0.352316 0.319665 0.296478 0.27257 0.247048 0.220988 0.194896 0.168998 0.143708 0.119629 0.0973635 0.0845864 0.0561628 0.0394983 0.0255834 0.014517 0.00650726 0.00166144 1.75681e-26 0 0.00148613 0.00613786 0.0139126 0.0238184 0.0379913 0.0540513 0.0672365 0.0926441 0.114642 0.137819 0.161973 76.3351 0.209669 0.236218 0.260834 0.284261 0.30651 0.326988 0.345052 0.360366 0.375726 0.387271 0.396397 0.401891 0.404111 0.403366 0.399759 0.392686 0.382745 0.369789 0.354144 0.335822 0.315294 0.292795 0.288756 0.244658 0.218661 0.192773 0.16686 0.141807 0.117824 0.0953219 0.0750718 0.0533469 0.038644 0.0252463 0.0145055 0.00638683 0.00161921 1.72929e-26 0 0.00143502 0.00590462 0.0135983 0.0232522 0.0369621 0.0523597 0.0697466 0.0895027 0.110687 0.13298 0.15595 0.177919 0.203876 0.228415 0.251984 0.274665 0.2961 0.315189 0.32846 0.349488 0.364677 0.375361 0.383732 0.389078 0.391317 0.390617 0.387231 0.380357 0.370812 0.358344 0.34334 0.325685 0.305833 0.283964 0.26072 0.245892 0.222838 0.188647 0.161603 0.137297 0.114081 0.0922644 0.0722578 0.0719188 0.0979772 0.0243342 0.0140754 0.00617199 0.00154845 1.67423e-26 0 0.0013853 0.00556366 0.0129021 0.0224063 0.0351056 0.0497978 0.0666898 0.0851771 0.105188 0.126212 82.9926 0.170315 0.19392 0.216723 0.239073 0.26067 0.280654 0.297028 0.31725 0.333364 0.34635 0.357016 0.36488 0.369813 0.371643 0.371353 0.368376 0.361856 0.35283 0.341064 0.326843 0.31003 0.291181 0.270742 0.248765 0.226053 0.202152 0.177981 0.154093 0.130816 0.108695 0.0878734 0.0687319 0.0519163 0.036718 0.0234139 0.0133786 0.00588775 0.00147404 1.59335e-26 0 0.0012991 0.0051956 0.0119898 0.0207389 0.0326401 0.0463458 0.0620506 0.0793478 0.0980153 0.117529 0.133109 0.158648 0.18043 0.201667 0.222415 0.242275 0.260359 0.257294 0.258628 0.31069 0.322064 0.332439 0.340252 0.345091 0.346879 0.346698 0.343893 0.337945 0.329673 0.318785 0.305355 0.289656 0.272058 0.253129 0.232787 0.211622 0.187273 -0.928344 0.14698 0.123277 0.10166 0.0821286 0.0641796 0.0481054 0.0342605 0.0220959 0.0125248 0.00551837 0.00137778 1.489e-26 0 0.00117894 0.00477943 0.0109082 0.0189928 0.0297289 0.042196 0.0563193 0.0721693 0.0890776 0.105773 0.123878 0.144267 0.163922 0.183303 0.202242 0.219956 0.23234 0.254019 0.270115 0.282728 0.293667 0.303182 0.310366 0.314783 0.316176 0.318638 0.314416 0.30817 0.300793 0.29166 0.279397 0.265039 0.248986 0.231751 0.213307 0.193789 0.173187 0.150819 0.135939 0.115306 0.0932132 0.0751683 0.0586867 0.0438866 0.0311403 0.0204658 0.0111987 0.0050076 0.00130655 1.35716e-26 0 0.00104056 0.00424199 0.00965354 0.0169352 0.0263468 0.0372387 0.0493074 0.0631863 0.0783602 0.0943967 0.110435 0.127718 0.144888 0.161975 0.178675 0.19424 0.193924 0.221282 0.240392 0.251123 0.26062 0.269064 0.275354 0.279304 0.280509 0.280946 0.279764 0.274341 0.267886 0.259688 0.248935 0.236261 0.222364 0.206364 0.218004 0.254563 0.166258 0.136648 0.118484 0.101609 0.082946 0.0670063 0.0522876 0.0390763 0.0276332 0.035311 0.0102363 0.00444975 0.00115243 1.20671e-26 0 0.00089441 0.00363689 0.0082721 0.0145413 0.0225388 0.0316094 0.0422113 0.0538636 0.0664159 0.0796843 0.094424 0.108944 0.123507 0.138017 0.152145 0.165023 0.179065 0.191272 0.202389 0.214166 0.223476 0.230102 0.235226 0.239222 0.241213 0.241358 0.240797 0.237038 0.23152 0.224023 0.214965 0.202193 0.196933 0.181298 0.165736 0.148773 0.132756 0.124816 0.101944 0.0865055 0.0719539 0.0578656 0.0451366 0.033716 0.0237627 0.0154023 0.00875694 0.00383845 0.00096666 1.04921e-26 0 0.00073925 0.00298513 0.00675088 0.0118515 0.0182859 0.0255726 0.0341316 0.0434742 0.0536251 0.0645241 0.0765836 0.088296 0.100098 0.11186 0.123389 0.134395 0.145989 0.156067 0.164818 0.171731 0.176516 0.184723 0.192036 0.196077 0.198043 0.198184 0.196663 0.19384 0.188679 0.182117 0.175285 0.168303 0.159893 0.147844 0.135758 0.122981 0.110494 0.11583 0.0843112 0.0714415 -39.4036 0.0478829 0.0372359 0.0278016 0.019551 0.0126542 0.00720439 0.0031751 0.000812867 8.50082e-27 0 0.00056434 0.0022717 0.00513505 0.00898934 0.0137831 0.0192679 0.0256195 0.0324566 0.0399049 0.0478738 0.0574694 0.0662487 0.0750915 0.0839292 0.0925965 0.100861 0.110099 0.117617 0.124869 0.131266 0.136826 0.141612 0.146264 0.149176 0.151136 0.151627 0.150761 0.148697 0.145962 0.141055 0.135641 0.128238 0.120024 0.116713 0.105534 0.0956376 0.089204 0.0781484 0.0655386 0.0554941 0.0459711 0.0369566 0.0288165 0.0214695 0.0150796 0.00975899 0.00552576 0.0024139 0.000608875 6.50362e-27 0 0.000382809 0.00154435 0.00344566 0.00603203 0.00913897 0.012498 0.0166441 0.0211745 0.0264824 0.0329997 0.0374111 0.0430976 0.0488556 0.0546378 0.0603172 0.0657648 0.0717992 0.077197 0.0827307 0.0874538 0.0914745 0.0946416 0.0979668 0.0998178 0.100549 0.103263 0.103288 0.102092 0.102545 0.0956971 0.0927305 0.0917148 0.0842931 0.0782005 0.0750269 0.0675305 0.0614666 0.0533792 0.0460914 0.039081 0.0323225 0.0256012 0.0199309 0.0148278 0.0103975 0.00669296 0.00398281 0.00164345 0.000430385 4.50865e-27 0 0.000189283 0.000758483 0.00165364 0.00287767 0.00423984 0.00537051 0.00767749 0.0084537 -0.253515 21.9688 0.0166543 0.0192579 0.0218343 0.0244578 0.0270458 0.0293987 0.0331154 0.036269 0.0390761 0.0418293 0.0440972 0.0455653 0.0480978 0.049654 0.0511556 0.0572986 0.0558627 0.0544794 0.0645705 0.0528014 0.0495282 0.0469433 0.0449068 0.0404182 0.0374854 0.0612693 0.0323785 0.0293136 0.0256367 0.0224849 0.0223779 0.0139733 0.0107508 0.0079602 0.00554858 0.00353007 0.00196756 0.000850499 0.000236555 2.22968e-27 0 -6.5598e-06 -4.05715e-05 -0.000165441 -0.000294936 -0.000581523 -0.00105448 -0.00136551 -0.00188179 -0.00243742 -0.00315394 -0.0042631 -0.00492631 -0.0055805 -0.00612172 -0.00660431 -0.00710101 -0.00467276 -0.00568126 -0.00569852 -0.0110644 -0.0122743 -0.0136936 -0.0265593 -0.000383788 0.000116955 0.00174936 0.00245458 0.00284111 0.00440923 0.00441974 0.0064269 0.00726157 0.00374088 0.0033543 0.00535647 0.00668992 0.00502438 0.00494118 0.00420617 0.0034829 0.00288204 0.0023313 0.00140973 0.000972372 0.000617933 0.000340885 0.000198126 6.9886e-05 2.32866e-05 2.09398e-29 0 -0.000213339 -0.000864332 -0.00200331 -0.00354237 -0.00554452 -0.0079296 -0.0109298 -0.0131739 -0.0162358 -0.0196148 -0.0253347 -0.0291665 -0.0330024 -0.0367135 -0.040298 -0.0442218 -0.051568 -0.0496435 -0.0516247 -0.0522777 -0.0532931 -0.0536432 -0.0537705 -0.0549974 -0.0904214 -0.0497559 -0.0484034 -0.0467043 -0.0452185 -0.0399827 -0.0373755 -0.0386824 -0.0361336 -0.030388 -0.0266727 -0.024777 -0.0219023 -0.0194102 -0.0170311 -0.0145878 -0.0120868 -0.0095761 -0.00795638 -0.00601708 -0.00430582 -0.00283911 -2.51387 0.00760577 -0.000191795 -2.18569e-27 0 -0.000421716 -0.00167947 -0.00379747 -0.00673801 -0.0103871 -0.0150984 -0.0223624 -0.0272335 -0.0324371 -0.0409804 -0.047004 -0.0530276 -0.0599197 -0.0668091 -0.0734585 -0.079824 -0.0864517 -0.107005 -0.0939064 -0.0976064 -0.100342 -0.102131 -0.103221 -0.103751 -0.104287 -0.100291 -0.0982664 -0.0952913 -0.0839644 -0.0852491 -0.085191 -0.0802947 -0.0710715 -0.0522604 -0.060654 -0.0548049 -0.0484055 -0.0431443 -0.0376228 -0.0320078 -0.0252015 -0.0213959 -0.0171782 -0.0129136 -0.0091635 -0.00598049 -0.00271712 -0.00122896 -0.000385083 -4.35709e-27 0 -0.000630784 -0.00249554 -0.00558353 -0.00984336 -0.015234 -0.0219913 -0.0291626 -0.0371565 -0.0451427 -0.0565753 -0.0767564 -0.0761596 -0.0859115 -0.095831 -0.105445 -0.114335 -0.122527 -0.13257 -0.146311 -0.141868 -0.1464 -0.149553 -0.151474 -0.152236 -0.151775 -0.149146 -0.146541 0.150448 -0.0656968 -0.0725475 -0.0954849 -0.118869 -0.0306281 -0.101044 -0.0928025 -0.0841372 -0.0736654 -0.0661018 -0.0574789 -0.048881 -0.0382668 -0.0329775 -0.0261201 -0.0196027 -0.0138714 -0.00902179 -0.00507064 -0.00227394 -0.000581958 -6.45875e-27 0 -0.000833564 -0.00327085 -0.00725168 -0.0127758 -0.019833 -0.0280448 -0.0374988 -0.0481389 -0.0597996 -0.0348055 -0.107878 -0.0990481 -0.11081 -0.123454 -0.135887 -0.147549 -0.158299 -0.168403 -0.179513 -0.189782 -0.190029 -0.194692 -0.197564 -0.198768 -0.197887 -0.184011 -0.189821 -0.186827 -0.181343 -0.174615 -0.165394 -0.148181 -0.104491 -0.127203 -0.124381 -0.110467 -0.100144 -0.0887193 -0.0717586 -0.0574258 -0.0449128 -0.0440008 -0.0346433 -0.0259776 -0.0183567 -0.0119182 -0.00678783 -0.00303953 -0.000768075 -8.45966e-27 0 -0.00103036 -0.00401868 -0.00888365 -0.0155958 -0.0241658 -0.0341136 -0.0455416 -0.0583869 -0.0719207 -0.0867217 -0.0589926 -0.151728 -0.134586 -0.149436 -0.164247 -0.178563 -0.19176 -0.20375 -0.214974 -0.224688 -0.231276 -0.23744 -0.241445 -0.242649 -0.241608 -0.239244 -0.235253 -0.229839 -0.222862 -0.213969 -0.201856 -0.191514 -0.178632 -0.165969 -0.1514 0.115912 -0.122745 -0.107734 -0.0945663 -0.0807816 -0.0668026 -0.0542938 -0.0426148 -0.0319357 -0.0225474 -0.014624 -0.00836479 -0.00374319 -0.000944306 -1.03281e-26 0 -0.00120342 -0.00469449 -0.0103669 -0.0181719 -0.0279875 -0.0396534 -0.0529179 -0.0675966 -0.0833885 -0.100259 -0.117778 -0.136125 -0.158836 -0.173331 -0.190044 -0.206598 -0.222197 -0.236248 -0.248844 -0.25952 -0.268117 -0.274978 -0.279526 -0.281453 -0.281616 -0.27935 -0.27496 -0.268564 -0.260525 -0.24924 21.2653 -0.224934 -0.210404 -0.194802 -0.175468 -0.160935 -0.137846 -0.124285 -0.111389 -0.0948302 -0.078432 -0.0637083 -0.0499096 -0.0373814 -0.0263755 -0.0170923 -0.0097606 -0.00437317 -0.00110574 -1.20335e-26 0 -0.00135914 -0.00530459 -0.0117092 -0.0205067 -0.0315089 -0.0444929 -0.0592936 -0.0757267 -0.0937189 -0.11251 -0.13208 -0.152314 -0.172858 -0.194601 -0.212968 -0.2314 -0.248891 -0.264916 -0.279129 -0.291199 -0.301157 -0.308859 -0.314154 -0.316638 -0.317019 -0.314686 -0.310003 -0.302865 -0.2933 -0.281271 -0.269281 -0.254177 -0.237906 -0.220069 -0.189925 -0.182788 -0.163995 -0.140284 -0.125302 -0.10711 -0.0808196 -0.0721019 -0.0564137 -0.0422291 -0.029779 -0.0192778 -0.0109788 -0.00492865 -0.00124522 -1.35492e-26 0 -0.00149663 -0.00586741 -0.0129357 -0.0224752 -0.0344116 -0.0485994 -0.0647674 -0.0826894 -0.102306 -0.122836 -0.144212 -0.166362 -0.188611 -0.210702 -0.23301 -0.252991 -0.271898 -0.289434 -0.305021 -0.318409 -0.329505 -0.338019 -0.343977 -0.346882 -0.347417 -0.345032 -0.339985 -0.332201 -0.319935 137.899 -0.295602 -0.279376 -0.261593 -0.242188 0.502333 -0.200685 -0.181421 -0.159894 -0.136694 -0.117882 -0.0920369 -0.0792772 -0.0620114 -0.0464007 -0.0327107 -0.0211685 -0.0120312 -0.00541811 -0.00136516 -1.48519e-26 0 -0.00162313 -0.00635618 -0.0139113 -0.0240924 -0.0368419 -0.0520233 -0.0693554 -0.0886153 -0.109395 -0.131421 -0.154284 -0.177738 -0.201356 -0.225198 -0.300031 -0.271982 -0.291529 -0.309758 -0.326148 -0.340573 -0.352579 -0.361803 -0.368356 -0.371659 -0.372327 -0.3699 -0.364392 -0.354018 -0.298902 -0.332362 -0.316894 -0.299674 -0.280838 -0.260956 -0.238236 -0.217799 -0.194588 -0.171102 -0.143965 -0.12699 -0.0998839 -0.0851494 -0.0666164 -0.0498331 -0.0351243 -0.0227335 -0.0128092 -0.00581671 -0.00146364 -1.592e-26 0 -0.00171305 -0.00660107 -0.0144059 -0.0253719 -0.0389049 -0.0547687 -0.0729002 -0.0932912 -0.115352 -0.138153 -0.161974 -0.186485 -0.210981 -0.235677 -0.263164 -0.286711 -0.312492 -0.32579 -0.342292 -0.357677 -0.370347 -0.38005 -0.387081 -0.39064 -0.391321 -0.388452 -0.375826 -0.375151 -0.364157 -0.35051 -0.334625 -0.316579 -0.296259 -0.273482 -0.251723 -0.229329 -0.204482 -0.179719 -0.157292 -0.133841 -0.106372 -0.0895507 -0.0700994 -0.0524535 -0.0369724 -0.0239182 -0.0134681 -0.00612878 -0.00153977 -1.67362e-26 0 -0.00181923 -0.00696397 -0.0151832 -0.0262969 -0.0401222 -0.0564817 -0.0751378 -0.0958563 -0.11888 -0.142311 -0.166975 -0.192465 -0.21792 -0.24375 -0.270632 -0.29555 -0.319064 -0.342798 -0.0130846 0.445111 0.570313 0.955627 -0.59572 -0.427794 -0.392786 -0.402155 -0.396106 -0.387773 -0.376555 -0.362452 -0.345885 -0.327086 -0.30548 -0.283589 -0.261159 -0.237374 -0.211705 -0.187771 -0.162748 -0.138371 -0.112398 -0.0925129 -0.0724299 -0.0542103 -0.0382151 -0.024704 -0.0139172 -0.00632925 -0.00159058 -1.72878e-26 0 -0.00184042 -0.00706644 -0.0153735 -0.0266387 -0.040685 -0.0572862 -0.0761715 -0.0970714 -0.119893 -0.14389 -0.168905 -0.194525 -0.220967 -0.247547 -0.273156 -0.300002 -0.323411 -0.342491 -0.359914 -0.37525 -0.388125 -0.398149 -0.405334 -0.410573 -0.41059 -0.408595 -0.403064 -0.394421 -0.382885 -0.368642 -0.351814 -0.331916 -0.289939 -0.28876 -0.266198 -0.24187 -0.216879 -0.191288 -0.165548 -0.140476 -0.11616 -0.0943063 -0.0737565 -0.0551301 -0.0387959 -0.0250055 -0.0142728 -0.00642141 -0.00161618 -1.75662e-26 0 -0.00183253 -0.00704737 -0.0153555 -0.0266324 -0.040703 -0.057336 -0.0762326 -0.0971557 -0.120204 -0.144013 -0.168896 -0.194751 -0.22118 -0.247357 -0.273407 -0.299835 -0.322717 -0.342035 -0.359938 -0.375421 -0.388264 -0.398112 -0.405254 -0.410487 -0.410591 -0.408489 -0.402954 -0.394404 -0.382738 -0.368027 -0.348415 -0.330054 -0.311856 -0.290085 -0.266804 -0.242211 -0.216738 -0.191072 -0.163996 -0.140274 -0.11675 -0.094477 -0.073753 -0.0543188 -0.0389199 -0.0252269 -0.0143006 -0.00640255 -0.00161641 -1.75681e-26 0 -0.00181741 -0.00694693 -0.0151385 -0.0262191 -0.0400243 -0.0563556 -0.0748934 -0.0953952 -0.117622 -0.141188 -0.165761 -0.191123 -0.216946 -0.242463 -0.268457 -0.293248 -0.315066 -0.333292 -0.351092 -0.367466 -0.38182 -0.390423 -0.398606 -0.403506 -0.404237 -0.402367 -0.396893 -0.388525 -0.377351 -0.363333 -0.346539 23.3239 -0.307757 -0.286278 -0.262987 -0.238663 -0.214434 -0.181377 -0.162328 -0.138412 -0.115096 -0.0929696 -0.0724335 -0.0539982 -0.0383658 -0.0248688 -0.0141061 -0.00627544 -0.00159141 -1.7293e-26 0 -0.00175733 -0.00673474 -0.014641 -0.0253586 -0.0387271 -0.0545376 -0.0725202 -0.0924492 -0.114013 -0.136658 -0.160416 -0.184722 -0.209609 -0.236525 -0.262 -0.284939 -0.306287 -0.324453 -0.341244 -0.355923 -0.368326 -0.379313 -0.386115 -0.390208 -0.391315 -0.389428 -0.384231 -0.376285 -0.365569 -0.35216 -0