<?xml version="1.0"?>
<VTKFile type="PolyData">
	<PolyData>
		<Piece NumberOfPoints="2601" NumberOfPolys="2500">
			<Points>
				<DataArray type="Float32" NumberOfComponents="3" format="ascii">
 0 0 0 0.02 0 0 0.04 0 0 0.06 0 0 0.08 0 0 0.1 0 0 0.12 0 0 0.14 0 0 0.16 0 0 0.18 0 0 0.2 0 0 0.22 0 0 0.24 0 0 0.26 0 0 0.28 0 0 0.3 0 0 0.32 0 0 0.34 0 0 0.36 0 0 0.38 0 0 0.4 0 0 0.42 0 0 0.44 0 0 0.46 0 0 0.48 0 0 0.5 0 0 0.52 0 0 0.54 0 0 0.56 0 0 0.58 0 0 0.6 0 0 0.62 0 0 0.64 0 0 0.66 0 0 0.68 0 0 0.7 0 0 0.72 0 0 0.74 0 0 0.76 0 0 0.78 0 0 0.8 0 0 0.82 0 0 0.84 0 0 0.86 0 0 0.88 0 0 0.9 0 0 0.92 0 0 0.94 0 0 0.96 0 0 0.98 0 0 1 0 0 0 0.02 0 0.02 0.02 0 0.04 0.02 0 0.06 0.02 0 0.08 0.02 0 0.1 0.02 0 0.12 0.02 0 0.14 0.02 0 0.16 0.02 0 0.18 0.02 0 0.2 0.02 0 0.22 0.02 0 0.24 0.02 0 0.26 0.02 0 0.28 0.02 0 0.3 0.02 0 0.32 0.02 0 0.34 0.02 0 0.36 0.02 0 0.38 0.02 0 0.4 0.02 0 0.42 0.02 0 0.44 0.02 0 0.46 0.02 0 0.48 0.02 0 0.5 0.02 0 0.52 0.02 0 0.54 0.02 0 0.56 0.02 0 0.58 0.02 0 0.6 0.02 0 0.62 0.02 0 0.64 0.02 0 0.66 0.02 0 0.68 0.02 0 0.7 0.02 0 0.72 0.02 0 0.74 0.02 0 0.76 0.02 0 0.78 0.02 0 0.8 0.02 0 0.82 0.02 0 0.84 0.02 0 0.86 0.02 0 0.88 0.02 0 0.9 0.02 0 0.92 0.02 0 0.94 0.02 0 0.96 0.02 0 0.98 0.02 0 1 0.02 0 0 0.04 0 0.02 0.04 0 0.04 0.04 0 0.06 0.04 0 0.08 0.04 0 0.1 0.04 0 0.12 0.04 0 0.14 0.04 0 0.16 0.04 0 0.18 0.04 0 0.2 0.04 0 0.22 0.04 0 0.24 0.04 0 0.26 0.04 0 0.28 0.04 0 0.3 0.04 0 0.32 0.04 0 0.34 0.04 0 0.36 0.04 0 0.38 0.04 0 0.4 0.04 0 0.42 0.04 0 0.44 0.04 0 0.46 0.04 0 0.48 0.04 0 0.5 0.04 0 0.52 0.04 0 0.54 0.04 0 0.56 0.04 0 0.58 0.04 0 0.6 0.04 0 0.62 0.04 0 0.64 0.04 0 0.66 0.04 0 0.68 0.04 0 0.7 0.04 0 0.72 0.04 0 0.74 0.04 0 0.76 0.04 0 0.78 0.04 0 0.8 0.04 0 0.82 0.04 0 0.84 0.04 0 0.86 0.04 0 0.88 0.04 0 0.9 0.04 0 0.92 0.04 0 0.94 0.04 0 0.96 0.04 0 0.98 0.04 0 1 0.04 0 0 0.06 0 0.02 0.06 0 0.04 0.06 0 0.06 0.06 0 0.08 0.06 0 0.1 0.06 0 0.12 0.06 0 0.14 0.06 0 0.16 0.06 0 0.18 0.06 0 0.2 0.06 0 0.22 0.06 0 0.24 0.06 0 0.26 0.06 0 0.28 0.06 0 0.3 0.06 0 0.32 0.06 0 0.34 0.06 0 0.36 0.06 0 0.38 0.06 0 0.4 0.06 0 0.42 0.06 0 0.44 0.06 0 0.46 0.06 0 0.48 0.06 0 0.5 0.06 0 0.52 0.06 0 0.54 0.06 0 0.56 0.06 0 0.58 0.06 0 0.6 0.06 0 0.62 0.06 0 0.64 0.06 0 0.66 0.06 0 0.68 0.06 0 0.7 0.06 0 0.72 0.06 0 0.74 0.06 0 0.76 0.06 0 0.78 0.06 0 0.8 0.06 0 0.82 0.06 0 0.84 0.06 0 0.86 0.06 0 0.88 0.06 0 0.9 0.06 0 0.92 0.06 0 0.94 0.06 0 0.96 0.06 0 0.98 0.06 0 1 0.06 0 0 0.08 0 0.02 0.08 0 0.04 0.08 0 0.06 0.08 0 0.08 0.08 0 0.1 0.08 0 0.12 0.08 0 0.14 0.08 0 0.16 0.08 0 0.18 0.08 0 0.2 0.08 0 0.22 0.08 0 0.24 0.08 0 0.26 0.08 0 0.28 0.08 0 0.3 0.08 0 0.32 0.08 0 0.34 0.08 0 0.36 0.08 0 0.38 0.08 0 0.4 0.08 0 0.42 0.08 0 0.44 0.08 0 0.46 0.08 0 0.48 0.08 0 0.5 0.08 0 0.52 0.08 0 0.54 0.08 0 0.56 0.08 0 0.58 0.08 0 0.6 0.08 0 0.62 0.08 0 0.64 0.08 0 0.66 0.08 0 0.68 0.08 0 0.7 0.08 0 0.72 0.08 0 0.74 0.08 0 0.76 0.08 0 0.78 0.08 0 0.8 0.08 0 0.82 0.08 0 0.84 0.08 0 0.86 0.08 0 0.88 0.08 0 0.9 0.08 0 0.92 0.08 0 0.94 0.08 0 0.96 0.08 0 0.98 0.08 0 1 0.08 0 0 0.1 0 0.02 0.1 0 0.04 0.1 0 0.06 0.1 0 0.08 0.1 0 0.1 0.1 0 0.12 0.1 0 0.14 0.1 0 0.16 0.1 0 0.18 0.1 0 0.2 0.1 0 0.22 0.1 0 0.24 0.1 0 0.26 0.1 0 0.28 0.1 0 0.3 0.1 0 0.32 0.1 0 0.34 0.1 0 0.36 0.1 0 0.38 0.1 0 0.4 0.1 0 0.42 0.1 0 0.44 0.1 0 0.46 0.1 0 0.48 0.1 0 0.5 0.1 0 0.52 0.1 0 0.54 0.1 0 0.56 0.1 0 0.58 0.1 0 0.6 0.1 0 0.62 0.1 0 0.64 0.1 0 0.66 0.1 0 0.68 0.1 0 0.7 0.1 0 0.72 0.1 0 0.74 0.1 0 0.76 0.1 0 0.78 0.1 0 0.8 0.1 0 0.82 0.1 0 0.84 0.1 0 0.86 0.1 0 0.88 0.1 0 0.9 0.1 0 0.92 0.1 0 0.94 0.1 0 0.96 0.1 0 0.98 0.1 0 1 0.1 0 0 0.12 0 0.02 0.12 0 0.04 0.12 0 0.06 0.12 0 0.08 0.12 0 0.1 0.12 0 0.12 0.12 0 0.14 0.12 0 0.16 0.12 0 0.18 0.12 0 0.2 0.12 0 0.22 0.12 0 0.24 0.12 0 0.26 0.12 0 0.28 0.12 0 0.3 0.12 0 0.32 0.12 0 0.34 0.12 0 0.36 0.12 0 0.38 0.12 0 0.4 0.12 0 0.42 0.12 0 0.44 0.12 0 0.46 0.12 0 0.48 0.12 0 0.5 0.12 0 0.52 0.12 0 0.54 0.12 0 0.56 0.12 0 0.58 0.12 0 0.6 0.12 0 0.62 0.12 0 0.64 0.12 0 0.66 0.12 0 0.68 0.12 0 0.7 0.12 0 0.72 0.12 0 0.74 0.12 0 0.76 0.12 0 0.78 0.12 0 0.8 0.12 0 0.82 0.12 0 0.84 0.12 0 0.86 0.12 0 0.88 0.12 0 0.9 0.12 0 0.92 0.12 0 0.94 0.12 0 0.96 0.12 0 0.98 0.12 0 1 0.12 0 0 0.14 0 0.02 0.14 0 0.04 0.14 0 0.06 0.14 0 0.08 0.14 0 0.1 0.14 0 0.12 0.14 0 0.14 0.14 0 0.16 0.14 0 0.18 0.14 0 0.2 0.14 0 0.22 0.14 0 0.24 0.14 0 0.26 0.14 0 0.28 0.14 0 0.3 0.14 0 0.32 0.14 0 0.34 0.14 0 0.36 0.14 0 0.38 0.14 0 0.4 0.14 0 0.42 0.14 0 0.44 0.14 0 0.46 0.14 0 0.48 0.14 0 0.5 0.14 0 0.52 0.14 0 0.54 0.14 0 0.56 0.14 0 0.58 0.14 0 0.6 0.14 0 0.62 0.14 0 0.64 0.14 0 0.66 0.14 0 0.68 0.14 0 0.7 0.14 0 0.72 0.14 0 0.74 0.14 0 0.76 0.14 0 0.78 0.14 0 0.8 0.14 0 0.82 0.14 0 0.84 0.14 0 0.86 0.14 0 0.88 0.14 0 0.9 0.14 0 0.92 0.14 0 0.94 0.14 0 0.96 0.14 0 0.98 0.14 0 1 0.14 0 0 0.16 0 0.02 0.16 0 0.04 0.16 0 0.06 0.16 0 0.08 0.16 0 0.1 0.16 0 0.12 0.16 0 0.14 0.16 0 0.16 0.16 0 0.18 0.16 0 0.2 0.16 0 0.22 0.16 0 0.24 0.16 0 0.26 0.16 0 0.28 0.16 0 0.3 0.16 0 0.32 0.16 0 0.34 0.16 0 0.36 0.16 0 0.38 0.16 0 0.4 0.16 0 0.42 0.16 0 0.44 0.16 0 0.46 0.16 0 0.48 0.16 0 0.5 0.16 0 0.52 0.16 0 0.54 0.16 0 0.56 0.16 0 0.58 0.16 0 0.6 0.16 0 0.62 0.16 0 0.64 0.16 0 0.66 0.16 0 0.68 0.16 0 0.7 0.16 0 0.72 0.16 0 0.74 0.16 0 0.76 0.16 0 0.78 0.16 0 0.8 0.16 0 0.82 0.16 0 0.84 0.16 0 0.86 0.16 0 0.88 0.16 0 0.9 0.16 0 0.92 0.16 0 0.94 0.16 0 0.96 0.16 0 0.98 0.16 0 1 0.16 0 0 0.18 0 0.02 0.18 0 0.04 0.18 0 0.06 0.18 0 0.08 0.18 0 0.1 0.18 0 0.12 0.18 0 0.14 0.18 0 0.16 0.18 0 0.18 0.18 0 0.2 0.18 0 0.22 0.18 0 0.24 0.18 0 0.26 0.18 0 0.28 0.18 0 0.3 0.18 0 0.32 0.18 0 0.34 0.18 0 0.36 0.18 0 0.38 0.18 0 0.4 0.18 0 0.42 0.18 0 0.44 0.18 0 0.46 0.18 0 0.48 0.18 0 0.5 0.18 0 0.52 0.18 0 0.54 0.18 0 0.56 0.18 0 0.58 0.18 0 0.6 0.18 0 0.62 0.18 0 0.64 0.18 0 0.66 0.18 0 0.68 0.18 0 0.7 0.18 0 0.72 0.18 0 0.74 0.18 0 0.76 0.18 0 0.78 0.18 0 0.8 0.18 0 0.82 0.18 0 0.84 0.18 0 0.86 0.18 0 0.88 0.18 0 0.9 0.18 0 0.92 0.18 0 0.94 0.18 0 0.96 0.18 0 0.98 0.18 0 1 0.18 0 0 0.2 0 0.02 0.2 0 0.04 0.2 0 0.06 0.2 0 0.08 0.2 0 0.1 0.2 0 0.12 0.2 0 0.14 0.2 0 0.16 0.2 0 0.18 0.2 0 0.2 0.2 0 0.22 0.2 0 0.24 0.2 0 0.26 0.2 0 0.28 0.2 0 0.3 0.2 0 0.32 0.2 0 0.34 0.2 0 0.36 0.2 0 0.38 0.2 0 0.4 0.2 0 0.42 0.2 0 0.44 0.2 0 0.46 0.2 0 0.48 0.2 0 0.5 0.2 0 0.52 0.2 0 0.54 0.2 0 0.56 0.2 0 0.58 0.2 0 0.6 0.2 0 0.62 0.2 0 0.64 0.2 0 0.66 0.2 0 0.68 0.2 0 0.7 0.2 0 0.72 0.2 0 0.74 0.2 0 0.76 0.2 0 0.78 0.2 0 0.8 0.2 0 0.82 0.2 0 0.84 0.2 0 0.86 0.2 0 0.88 0.2 0 0.9 0.2 0 0.92 0.2 0 0.94 0.2 0 0.96 0.2 0 0.98 0.2 0 1 0.2 0 0 0.22 0 0.02 0.22 0 0.04 0.22 0 0.06 0.22 0 0.08 0.22 0 0.1 0.22 0 0.12 0.22 0 0.14 0.22 0 0.16 0.22 0 0.18 0.22 0 0.2 0.22 0 0.22 0.22 0 0.24 0.22 0 0.26 0.22 0 0.28 0.22 0 0.3 0.22 0 0.32 0.22 0 0.34 0.22 0 0.36 0.22 0 0.38 0.22 0 0.4 0.22 0 0.42 0.22 0 0.44 0.22 0 0.46 0.22 0 0.48 0.22 0 0.5 0.22 0 0.52 0.22 0 0.54 0.22 0 0.56 0.22 0 0.58 0.22 0 0.6 0.22 0 0.62 0.22 0 0.64 0.22 0 0.66 0.22 0 0.68 0.22 0 0.7 0.22 0 0.72 0.22 0 0.74 0.22 0 0.76 0.22 0 0.78 0.22 0 0.8 0.22 0 0.82 0.22 0 0.84 0.22 0 0.86 0.22 0 0.88 0.22 0 0.9 0.22 0 0.92 0.22 0 0.94 0.22 0 0.96 0.22 0 0.98 0.22 0 1 0.22 0 0 0.24 0 0.02 0.24 0 0.04 0.24 0 0.06 0.24 0 0.08 0.24 0 0.1 0.24 0 0.12 0.24 0 0.14 0.24 0 0.16 0.24 0 0.18 0.24 0 0.2 0.24 0 0.22 0.24 0 0.24 0.24 0 0.26 0.24 0 0.28 0.24 0 0.3 0.24 0 0.32 0.24 0 0.34 0.24 0 0.36 0.24 0 0.38 0.24 0 0.4 0.24 0 0.42 0.24 0 0.44 0.24 0 0.46 0.24 0 0.48 0.24 0 0.5 0.24 0 0.52 0.24 0 0.54 0.24 0 0.56 0.24 0 0.58 0.24 0 0.6 0.24 0 0.62 0.24 0 0.64 0.24 0 0.66 0.24 0 0.68 0.24 0 0.7 0.24 0 0.72 0.24 0 0.74 0.24 0 0.76 0.24 0 0.78 0.24 0 0.8 0.24 0 0.82 0.24 0 0.84 0.24 0 0.86 0.24 0 0.88 0.24 0 0.9 0.24 0 0.92 0.24 0 0.94 0.24 0 0.96 0.24 0 0.98 0.24 0 1 0.24 0 0 0.26 0 0.02 0.26 0 0.04 0.26 0 0.06 0.26 0 0.08 0.26 0 0.1 0.26 0 0.12 0.26 0 0.14 0.26 0 0.16 0.26 0 0.18 0.26 0 0.2 0.26 0 0.22 0.26 0 0.24 0.26 0 0.26 0.26 0 0.28 0.26 0 0.3 0.26 0 0.32 0.26 0 0.34 0.26 0 0.36 0.26 0 0.38 0.26 0 0.4 0.26 0 0.42 0.26 0 0.44 0.26 0 0.46 0.26 0 0.48 0.26 0 0.5 0.26 0 0.52 0.26 0 0.54 0.26 0 0.56 0.26 0 0.58 0.26 0 0.6 0.26 0 0.62 0.26 0 0.64 0.26 0 0.66 0.26 0 0.68 0.26 0 0.7 0.26 0 0.72 0.26 0 0.74 0.26 0 0.76 0.26 0 0.78 0.26 0 0.8 0.26 0 0.82 0.26 0 0.84 0.26 0 0.86 0.26 0 0.88 0.26 0 0.9 0.26 0 0.92 0.26 0 0.94 0.26 0 0.96 0.26 0 0.98 0.26 0 1 0.26 0 0 0.28 0 0.02 0.28 0 0.04 0.28 0 0.06 0.28 0 0.08 0.28 0 0.1 0.28 0 0.12 0.28 0 0.14 0.28 0 0.16 0.28 0 0.18 0.28 0 0.2 0.28 0 0.22 0.28 0 0.24 0.28 0 0.26 0.28 0 0.28 0.28 0 0.3 0.28 0 0.32 0.28 0 0.34 0.28 0 0.36 0.28 0 0.38 0.28 0 0.4 0.28 0 0.42 0.28 0 0.44 0.28 0 0.46 0.28 0 0.48 0.28 0 0.5 0.28 0 0.52 0.28 0 0.54 0.28 0 0.56 0.28 0 0.58 0.28 0 0.6 0.28 0 0.62 0.28 0 0.64 0.28 0 0.66 0.28 0 0.68 0.28 0 0.7 0.28 0 0.72 0.28 0 0.74 0.28 0 0.76 0.28 0 0.78 0.28 0 0.8 0.28 0 0.82 0.28 0 0.84 0.28 0 0.86 0.28 0 0.88 0.28 0 0.9 0.28 0 0.92 0.28 0 0.94 0.28 0 0.96 0.28 0 0.98 0.28 0 1 0.28 0 0 0.3 0 0.02 0.3 0 0.04 0.3 0 0.06 0.3 0 0.08 0.3 0 0.1 0.3 0 0.12 0.3 0 0.14 0.3 0 0.16 0.3 0 0.18 0.3 0 0.2 0.3 0 0.22 0.3 0 0.24 0.3 0 0.26 0.3 0 0.28 0.3 0 0.3 0.3 0 0.32 0.3 0 0.34 0.3 0 0.36 0.3 0 0.38 0.3 0 0.4 0.3 0 0.42 0.3 0 0.44 0.3 0 0.46 0.3 0 0.48 0.3 0 0.5 0.3 0 0.52 0.3 0 0.54 0.3 0 0.56 0.3 0 0.58 0.3 0 0.6 0.3 0 0.62 0.3 0 0.64 0.3 0 0.66 0.3 0 0.68 0.3 0 0.7 0.3 0 0.72 0.3 0 0.74 0.3 0 0.76 0.3 0 0.78 0.3 0 0.8 0.3 0 0.82 0.3 0 0.84 0.3 0 0.86 0.3 0 0.88 0.3 0 0.9 0.3 0 0.92 0.3 0 0.94 0.3 0 0.96 0.3 0 0.98 0.3 0 1 0.3 0 0 0.32 0 0.02 0.32 0 0.04 0.32 0 0.06 0.32 0 0.08 0.32 0 0.1 0.32 0 0.12 0.32 0 0.14 0.32 0 0.16 0.32 0 0.18 0.32 0 0.2 0.32 0 0.22 0.32 0 0.24 0.32 0 0.26 0.32 0 0.28 0.32 0 0.3 0.32 0 0.32 0.32 0 0.34 0.32 0 0.36 0.32 0 0.38 0.32 0 0.4 0.32 0 0.42 0.32 0 0.44 0.32 0 0.46 0.32 0 0.48 0.32 0 0.5 0.32 0 0.52 0.32 0 0.54 0.32 0 0.56 0.32 0 0.58 0.32 0 0.6 0.32 0 0.62 0.32 0 0.64 0.32 0 0.66 0.32 0 0.68 0.32 0 0.7 0.32 0 0.72 0.32 0 0.74 0.32 0 0.76 0.32 0 0.78 0.32 0 0.8 0.32 0 0.82 0.32 0 0.84 0.32 0 0.86 0.32 0 0.88 0.32 0 0.9 0.32 0 0.92 0.32 0 0.94 0.
[...]
			<PointData Scalars="VitesseX">
				<DataArray Name="VitesseX" type="Float32" format="ascii">
 -0 -0 -nan -nan 0 0 0 0 0 0 0 0 0 0 0 0 0 0 0 0 0 0 0 0 0 0 0 0 0 0 0 0 0 0 0 0 0 0 0 0 0 0 0 0 0 0 0 0 -0 0 -0 -0 -0.00043114 -nan -nan -0.00750752 -0.0114972 -0.0161827 -0.0214736 -0.0272702 -0.0334725 -0.0399868 -0.0466381 -0.0533675 -0.0601027 -0.0667667 -0.0732539 -0.0794462 -0.0852222 -0.0904576 -0.0952078 -0.0994196 -0.103004 -0.144598 -0.0401857 -0.10482 -0.117354 -0.12089 -0.121552 -0.120517 -0.117837 -0.114542 -0.109583 -0.104054 -0.0974986 -0.0901068 -0.0826595 -0.0750727 -0.0671207 -0.0590611 -0.0511882 -0.0439534 -0.0364814 -0.0294433 -0.0229443 -0.017554 -0.0122283 -0.00808161 -0.00456844 -0.00334259 -0.000531801 -7.29164e-27 -0 -0.00085548 -nan -nan -0.015827 -0.0236617 -0.0328533 -0.0432017 -0.054552 -0.0667249 -0.0795186 -0.0927888 -0.106135 -0.119459 -0.132643 -0.145496 -0.157762 -0.169196 -0.179549 -0.188942 -0.197054 -0.204665 -0.0527709 -0.194027 -0.215415 -0.223021 -0.224668 -0.224353 -0.221475 -0.21608 -0.209326 -0.200196 -0.190048 -0.178267 -0.165336 -0.151871 -0.137872 -0.123399 -0.108815 -0.094507 -0.0802864 -0.066827 -0.0539907 -0.0420873 -0.0319654 -0.0225341 -0.0147596 -0.00828151 -0.00375906 -0.000949106 -1.17713e-26 -0 -0.00126633 -nan -nan -0.0235204 -0.035138 -0.0487563 -0.0640952 -0.0809794 -0.0989929 -0.117826 -0.137477 -0.157246 -0.181041 -0.201486 -0.22037 -0.237316 -0.249282 -0.264364 -0.273811 -0.290902 0.0412028 -0.280047 -0.309462 -0.32088 -0.325916 -0.326765 -0.32479 -0.319594 -0.311316 -0.301146 -0.287834 -0.27318 -0.25628 -0.237725 -0.218456 -0.198368 -0.177606 -0.156755 -0.136288 -0.115391 -0.0961159 -0.0776921 -0.0605625 -0.0462035 -0.0327502 -0.0210899 -0.0118636 -0.00541372 -0.00135139 -1.60719e-26 -0 -0.00165721 -nan -nan -0.0308183 -0.0460736 -0.0638998 -0.0839649 -0.106108 -0.129702 -0.154239 -0.179734 -0.205505 -0.23549 -0.263267 -0.288381 -0.310472 -0.327089 -0.34391 -0.326395 -0.252674 -0.356826 -0.395893 -0.412026 -0.420865 -0.42432 -0.424573 -0.42054 -0.413218 -0.401962 -0.388478 -0.37108 -0.352022 -0.330275 -0.306399 -0.281555 -0.255609 -0.228878 -0.202164 -0.175976 -0.148529 -0.12394 -0.100245 -0.0781961 -0.0600625 -0.0424303 -0.0269872 -0.01526 -0.00696336 -0.00173245 -2.01264e-26 -0 -0.00202195 -nan -nan -0.0376278 -0.0562673 -0.0780409 -0.102526 -0.129436 -0.158193 -0.188182 -0.218955 -0.249944 -0.287322 -0.318126 -0.346461 -0.372455 -nan -nan -nan -nan -0.471813 -0.49341 -0.506025 -0.514101 -0.516459 -0.516211 -0.510131 -0.500578 -0.48644 -0.469808 -0.448572 -0.425323 -0.399034 -0.370105 -0.340058 -0.30869 -0.276399 -0.244329 -0.21289 -0.178859 -0.14995 -0.121393 -0.0948024 -0.072554 -0.0507542 -0.0419255 -0.0184191 -0.00831986 -0.00208644 -2.38723e-26 -0 -0.0023548 -nan -nan -0.0438641 -0.0655406 -0.0909102 -0.119431 -0.15066 -0.183975 -0.218819 -0.254644 -0.2907 -0.334077 -0.36186 -0.410505 -0.431754 -0.466019 -0.392703 -0.488318 -0.536167 -0.56085 -0.578601 -0.590865 -0.59914 -0.601013 -0.600376 -0.592112 -0.579746 -0.562819 -0.543316 -0.518644 -0.491678 -0.461351 -0.42787 -0.393088 -0.356792 -0.319427 -0.282475 -0.246177 -0.2089 -0.174151 -0.140827 -0.110132 -0.0834796 -0.0587751 -0.0483165 -0.0212878 -0.00955443 -0.00240796 -2.72517e-26 -0 -0.00265052 -nan -nan -0.0487177 -0.0726751 -0.100848 -0.132864 -0.168452 -0.20753 -0.248963 -0.290816 -0.331771 -0.370796 -0.408419 -0.449633 -0.485316 -0.529615 -0.126478 -0.559793 -0.608078 -0.633527 -0.652478 -0.666155 -0.674902 -0.675952 -0.674646 -0.665219 -0.650847 -0.632021 -0.609131 -0.580793 -0.549751 -0.516075 -0.478973 -0.439827 -0.39919 -0.357434 -0.315663 -0.272957 -0.264083 -0.194523 -0.158047 -0.123749 -0.0926132 -0.065518 -0.041921 -0.0238174 -0.0107401 -0.00269212 -3.02126e-26 -0 -0.00290444 -nan -nan -0.0535552 -0.0800358 -0.111165 -0.144629 -0.178553 -0.231121 -0.26556 -0.31213 -0.362919 -0.405965 -0.44707 -0.489502 -0.549345 -0.586286 -0.61986 -0.651295 -0.67915 -0.702227 -0.720262 -0.729598 -0.738759 -0.740779 -0.737265 -0.728156 -0.713102 -0.691556 -0.665987 -0.633382 -0.599397 -0.562722 -0.522163 -0.479584 -0.435225 -0.389825 -0.344269 -0.297114 -0.29205 -0.211938 -0.172466 -0.13515 -0.100772 -0.0712165 -0.0456687 -0.0259552 -0.011732 -0.00293461 -3.27095e-26 -0 -nan -nan -0.0340809 -0.0572896 -0.0858677 -0.11941 -0.157514 -0.200106 -0.243178 -0.291527 -0.341126 -0.39107 -0.440742 -0.487954 -0.537303 -0.19946 -0.825634 -0.671711 -0.698326 -0.727184 -0.752736 -0.771538 -0.783917 -0.792651 -0.792878 -0.789173 -0.776945 -0.759205 -0.736461 -0.709017 -0.677794 -0.643312 -0.600381 -0.557449 -0.511701 -0.464197 -0.41573 -0.367105 -0.316758 -0.530358 -0.225772 -0.183784 -0.14407 -0.107437 -0.0758242 -0.0487315 -0.0277065 -0.0125081 -0.00313177 -3.47041e-26 -0 -nan -nan -0.0359179 -0.0603393 -0.0903843 -0.125713 -0.165859 -0.210045 -0.256889 -0.307159 -0.359301 -0.421322 -0.441667 -0.499178 -0.563658 -0.61531 -0.662812 -0.704684 -0.741036 -0.771311 -0.795431 -0.814829 -0.82442 -0.832718 -0.833235 -0.830327 -0.823115 -0.806995 -0.786753 -0.759552 -0.712201 -0.676286 -0.627755 -50.2629 -0.535202 -0.486139 -0.435384 -0.38454 -0.332766 -0.276852 -0.236261 -0.192054 -0.150641 -0.112134 -0.0792829 -0.0510171 -0.0289177 -0.0211668 -0.00328067 -3.61659e-26 0 -0.00458175 -0.0170132 -0.0359656 -0.061162 -0.0922626 -0.128766 -0.170155 -0.215892 -0.265 -0.316936 -0.370583 -0.425139 -0.479178 -0.532454 -0.585302 -0.634403 -0.683712 -0.727116 -0.765106 -0.796449 -0.821517 -0.841441 -0.85124 -0.864131 -0.865052 -0.857951 -0.84863 -0.833701 -0.808758 -0.778432 -0.742436 5.31432 -0.604698 -0.555589 -25.9756 -0.499967 -0.448484 -0.395726 -0.343103 -0.28969 -0.312493 -0.197538 -0.155276 -0.115294 -0.0810373 -0.0815907 -0.0297439 -0.0218467 -0.00338553 -3.70727e-26 0 -0.00466707 -0.0172869 -0.0365369 -0.0621491 -0.0937575 -0.130911 -0.173 -0.219171 -0.269395 -0.322292 -0.377102 -0.433561 -0.489748 -0.543585 -0.596044 -0.646588 -0.694374 -0.738213 -0.776003 -0.808229 -0.834194 -0.853836 -0.866789 -0.874046 -0.873693 -0.867886 -0.854559 -0.835066 -0.80937 -0.77807 -0.741624 -0.7006 -0.65557 -0.605286 -0.542393 -0.506389 -0.452672 -0.399482 -0.346892 -0.292727 -0.0612358 -0.197291 -0.156401 -0.116341 -0.0817224 -0.0459304 -0.030479 -0.0136521 -0.00342447 -3.74107e-26 0 -0.00467083 -0.0172842 -0.036488 -0.0619955 -0.0935551 -0.130653 -0.170506 -0.218528 -0.274714 -0.325975 -0.379031 -0.433519 -0.488406 -0.542875 -0.595595 -0.645549 -0.692803 -0.735498 -0.772491 -0.804944 -0.831167 -0.856012 -0.866473 -0.873368 -0.873844 -0.867916 -0.854462 -0.834863 -0.809121 -0.777769 -0.741289 -0.700183 -0.655168 -0.606849 -0.55564 -0.499978 -0.423649 -0.398964 -0.346698 -0.293433 -0.23577 -0.194955 -0.1562 -0.116206 -0.0819661 -0.052521 -0.030416 -0.0136408 -0.00342419 -3.71752e-26 0 -0.0047534 -0.0174638 -0.0366055 -0.0620173 -0.0933243 -0.130018 -0.17111 -0.218113 -0.267921 -0.319992 -0.373707 -0.428151 -0.482614 -0.536298 -0.588545 -0.637424 -0.684266 -0.72396 -0.760609 -0.796747 -0.826515 -0.840613 -0.853949 -0.859855 -0.859989 -0.853359 -0.839646 -0.819915 -0.794249 -0.763142 -0.727075 -0.686537 -0.642333 -0.595246 -0.545468 -0.493384 -0.439927 -0.385587 -0.338914 -0.288092 -0.237478 -0.189957 -0.151291 -0.136463 -0.080553 -0.0522303 -0.0297465 -0.0133837 -0.00336352 -3.637e-26 0 -0.00436966 -0.0163278 -0.0347062 -0.0592771 -0.0896598 -0.125382 -0.165936 -0.210628 -0.258268 -0.308835 -0.36138 -0.414742 -0.467979 -0.52014 -0.570602 -0.617184 -0.661985 -0.700623 -0.739039 -0.776849 -0.796594 -0.814064 -0.827273 -0.832658 -0.832623 -0.825399 -0.811647 -0.792102 -0.766899 -0.736487 -0.701378 -0.662121 -0.619417 -0.573895 -0.526032 -0.47651 -0.425769 -0.374245 -0.323378 -0.278041 -0.231011 -0.186294 -0.144569 -0.148628 -0.0776864 -0.0504734 -0.0286953 -0.012939 -0.00325231 -3.5008e-26 0 -0.00412836 -0.0154331 -0.032845 -0.0561637 -0.0850786 -0.119158 -0.157934 -0.200628 -0.246604 -0.295277 -0.34505 -0.395414 -0.44637 -0.496671 -0.544963 -0.589222 -0.63564 6.17835 -0.615582 -0.745341 -0.758115 -0.775691 -0.788134 -0.792419 -0.792136 -0.784455 -0.770951 -0.751889 -0.727507 -0.698246 -0.664602 -0.627118 -0.586373 -0.542958 -0.497615 -0.450932 -0.403227 -0.355153 -0.307037 -0.257547 -0.219259 -0.177412 -0.137261 -0.0869351 -0.0737492 -0.0478719 -0.0272177 -0.0122979 -0.00309123 -3.31104e-26 0 -0.00384545 -0.0143594 -0.0305999 -0.0524734 -0.0795591 -0.111555 -0.147767 -0.18756 -0.230787 -0.276921 -0.323482 -0.370768 -0.418775 -0.46534 -0.511407 -0.554477 -0.593145 -0.627815 -0.664141 -0.6878 -0.709243 -0.725712 -0.736669 -0.7397 -0.739164 -0.731204 -0.718247 -0.700049 -0.676878 -0.649151 -0.617336 -0.582035 -0.543893 -0.503429 -0.461168 -0.417699 -0.373642 -0.329497 -0.28532 -0.2408 -0.18958 -0.165042 -0.128449 -0.0931617 -0.0686104 -0.0443836 -0.0367331 -0.011475 -0.00288097 -3.07067e-26 0 -0.00350616 -0.0130924 -0.0280252 -0.0480666 -0.0729402 -0.1024 -0.135431 -0.17186 -0.211327 -0.25326 -0.296651 -0.340993 -0.385167 -0.427644 -0.470139 -0.509604 -0.547429 -0.588157 -0.605779 -0.630046 -0.649817 -0.664271 -0.673258 -0.675453 -0.674406 -0.666451 -0.654409 -0.637568 -0.615836 -0.589693 -0.560101 -0.527874 -0.493068 -0.455896 -0.417289 -0.37785 -0.337959 -0.298057 -0.258697 -0.219822 -0.181749 -0.149486 -0.116578 -0.0857491 -0.0837293 -0.0373901 0.0339265 -0.0104526 -0.00261406 -2.78342e-26 0 -0.00312034 -0.011697 -0.0250672 -0.042854 -0.0650405 -0.0913387 -0.121141 -0.154346 -0.189806 -0.226914 -0.265888 -0.305571 -0.345341 -0.385001 -0.423274 -0.458447 -0.48776 -0.521764 -0.541157 -0.56272 -0.580258 -0.592761 -0.599395 -0.600891 -0.59876 -0.590142 -0.579548 -0.565068 -0.54388 -0.517805 -0.491206 -0.46447 -0.434214 -0.401107 -0.367018 -0.332089 -0.296732 -0.261715 -0.227335 -0.193878 -0.160945 -0.124387 -0.103044 -0.076463 -0.015361 -0.030108 -0.0194171 -0.00906682 -0.00230792 -2.45372e-26 0 -0.00267942 -0.0100696 -0.0215128 -0.0369177 -0.0561193 -0.0789871 -0.105324 -0.1343 -0.165456 -0.198396 -0.23276 -0.267566 -0.302159 -0.335337 -0.369215 -0.400618 -0.427042 -0.453677 -0.468277 -0.486566 -0.501575 -0.512467 -0.517323 -0.517925 -0.513841 -0.491415 -0.376306 -0.296425 0.0558874 -0.151439 -0.374385 -0.387804 -0.364477 -0.33844 -0.310626 -0.28104 -0.250893 -0.221058 -0.191982 -0.163951 -0.136449 -0.10951 -0.0879335 -0.0655396 -0.0435705 -0.0294624 -0.0170069 -0.0128289 -0.00381451 -2.08665e-26 0 -0.00219398 -0.0083268 -0.0179084 -0.0308867 -0.0471211 -0.0665289 -0.0884517 -0.112181 -0.137906 -0.16533 -0.19427 -0.223753 -0.252947 -0.28258 -0.310326 -0.335922 -0.358069 -0.37994 -0.390329 -0.404874 -0.41627 -0.423716 -0.433902 -0.444527 -0.417538 -0.41115 -0.402473 -0.390935 -0.376791 -0.359372 -0.282261 0.386515 0.259278 -0.262634 -0.247491 -0.224577 -0.200711 -0.17676 -0.153572 -0.131204 -0.109569 -0.0884371 -0.0482579 -0.0519947 -0.036276 -0.0350028 -0.0137439 -0.0146691 -0.00344342 -1.68783e-26 0 -0.00169102 -0.00646449 -0.0139634 -0.0241431 -0.0368972 -0.0521493 -0.0696904 -0.0893381 -0.110538 -0.132905 -0.156029 -0.179331 -0.202341 -0.224201 -0.246664 -0.267693 -0.283391 -0.297356 -0.309719 -0.322233 -0.33517 -0.345 -0.321697 -0.322613 -0.318526 -0.313247 -0.305815 -0.295978 -0.284289 -0.271929 -0.25005 -0.143509 -0.21699 -0.20068 -0.177269 -0.163927 -0.146981 -0.129567 -0.112591 -0.0962511 -0.0806211 -0.0654255 -0.0499381 -0.038842 -0.0274108 0.191707 -0.0101613 -0.00238505 0.0169442 -1.26334e-26 0 -0.00116574 -0.00452267 -0.00985491 -0.0171831 -0.0265237 -0.0377831 -0.0506798 -0.0647467 -0.0797574 -0.0957824 -0.112719 -0.130104 -0.147 -0.164173 -0.179591 -0.194435 -0.205366 -0.209672 -0.219236 -0.212773 -0.217978 -0.220875 -0.222192 -0.217385 -0.206239 -0.207005 -0.201375 -0.19363 -0.184836 -0.178297 -0.173035 -0.147303 -0.128522 -0.128167 -0.103094 -0.0999729 -0.0906783 -0.0802983 -0.0698186 -0.0597721 -0.050405 -0.0412192 -0.0324408 -0.0246651 -0.017167 -0.00943849 -0.0065228 -0.00272541 -0.000494305 -8.1963e-27 0 -0.000638552 -0.00256282 -0.00571024 -0.0101305 -0.0158238 -0.0227642 -0.0308123 -0.0397597 -0.0495786 -0.0600706 -0.0707926 -0.0813511 -0.0915944 -0.100886 -0.110106 -0.118177 -0.142768 -0.149759 -0.15549 -0.115379 -0.116613 -0.115327 -0.136334 -0.136548 -0.0337884 16.2552 15.1175 -0.0770639 -0.0759137 -0.0702946 -0.074529 -0.0730089 -0.0529685 -0.0499311 -0.015809 0.0151451 -0.0324102 -0.0294466 -0.0257098 -0.0222469 -0.0191745 -0.0160201 -0.0128039 -0.00611897 -0.00688089 -0.00451597 -0.00276697 -0.00132322 -0.000332444 -3.67106e-27 0 -0.000140119 -0.000675985 -0.00166528 -0.00317514 -0.00523956 -0.00786468 -0.0110085 -0.0145488 -0.0182885 -0.0222515 -0.0263421 -0.0303411 -0.0339074 -0.036992 -0.0393609 -0.0407522 -0.0397616 -0.0252078 -0.0210575 -0.0174784 -0.0148296 -0.0097061 -0.0107484 -0.00541615 -0.00166842 0.0016816 0.0115577 0.0225737 0.0244232 0.0259758 0.0298788 0.0319638 0.0259803 0.033768 0.0241485 0.02534 0.0269955 0.0224135 0.0189503 0.0156542 0.0124253 0.00947873 0.00696971 0.00513101 0.00337808 0.00248843 0.000863409 0.000310705 6.3784e-05 6.80534e-28 0 2.97016e-05 0.000790407 0.00190557 0.0032801 0.00484848 0.00655403 0.00836528 0.0103056 0.0124585 0.0147904 0.0173158 0.0201918 0.0234997 0.0273696 0.0316242 0.0366336 0.0409636 0.0527165 0.068811 0.0699667 0.0561151 0.084177 0.10029 0.103453 0.102862 0.110084 0.116968 0.14161 0.132091 0.128768 0.126482 0.12394 0.126366 0.110006 0.102067 0.0925612 -6.5093 0.0741811 0.0636042 0.053527 0.0439218 0.0348833 0.0267912 0.019677 0.0129185 0.00863781 0.0046859 0.00204435 0.000501384 5.14771e-27 0 0.00188789 -0.0263486 0.00255857 0.0080164 0.0136074 0.0198435 0.0267491 0.0343208 0.0425545 0.0513502 0.0605829 0.0702859 0.0804793 0.0910839 0.102036 0.113912 0.124969 0.135004 0.145593 0.171526 0.184994 0.189202 0.199282 0.209742 0.213525 0.218701 0.224584 0.225378 0.886682 0.600619 0.309441 0.227272 0.196071 0.182099 0.167209 0.157867 0.140613 0.126245 0.107591 0.090741 0.0748277 0.0598511 0.0463202 0.0343593 0.0226579 0.0156395 0.00867701 0.00379631 0.000929177 9.62103e-27 0 0.0023288 0.00872903 0.0228782 -0.0079379 0.0165351 0.0298493 0.0427169 0.0563539 0.0709039 0.0862353 0.102182 0.118737 0.135801 0.153075 0.170806 0.187987 0.20297 0.239643 0.253956 0.26562 0.281987 0.287841 0.296094 0.308285 0.317958 0.322691 0.330217 0.331863 0.360968 0.326002 0.312868 0.299335 0.282662 0.262935 0.229313 0.218787 0.194796 0.183464 0.150051 0.126401 0.104625 0.0839611 0.0651762 0.0485154 0.0341293 0.0216051 0.012417 0.00538549 0.00135634 1.40378e-26 0 0.00147072 0.00942236 0.0204496 0.0378253 0.124524 0.0204347 0.0511595 0.0739101 0.0959745 0.118415 0.141233 0.164684 0.1885 0.212286 0.236481 0.259989 0.280634 0.291763 0.307284 0.326989 0.359212 0.370208 0.387255 0.40555 0.414643 0.420871 0.424541 0.423649 0.373022 0.410509 0.395808 0.378322 0.358649 0.344509 0.344257 0.331496 0.248468 0.52612 0.190869 0.159779 0.132841 0.106819 0.0830476 0.0619363 0.0432612 0.0279599 0.0166735 0.00688266 0.00176546 1.82353e-26 0 0.00179922 0.0120512 0.0161451 0.0373237 0.0626513 0.105836 -0.0551709 0.076392 0.11372 0.146006 0.176281 0.20723 0.237395 0.267851 0.298066 0.327306 0.354321 0.38385 0.403843 0.423447 0.443975 0.46106 0.477978 0.497498 0.502634 0.508193 0.524302 0.538208 0.494537 0.515439 0.522884 0.536734 0.484567 0.404981 0.368644 0.329781 0.294235 0.25428 0.225689 0.191763 0.159061 0.128068 0.09968 0.0744881 0.052625 0.0342085 0.0195971 0.00838168 0.00214617 2.21781e-26 0 0.00168428 0.00890455 0.0199051 0.0442959 0.0680904 0.0940361 0.148677 -0.980409 0.0976052 0.164378 0.203817 0.245914 0.280695 0.319224 0.354503 0.389172 0.42404 0.462509 0.484734 0.501709 0.517058 0.532322 0.550464 0.570942 0.582299 0.589988 0.603436 0.596599 0.586317 0.583908 0.544761 0.517719 0.488414 0.453865 0.41364 0.373484 0.348429 0.299738 0.259131 0.220298 0.182878 0.147411 0.114863 0.0859942 0.0615719 0.0399826 0.0221646 0.00987232 0.00258062 2.57679e-26 0 -0.00764833 0.00999581 0.0223373 0.0376793 0.0621327 0.0883872 0.11609 0.146261 0.254968 0.146757 0.193343 0.28202 0.313039 0.366051 0.405147 0.444768 0.482838 0.506258 0.53703 0.565431 0.588305 0.607936 0.627613 0.643463 0.656959 0.665469 0.680568 0.686071 0.638656 0.657317 0.602443 0.572191 0.539669 0.505544 0.469401 0.427669 0.380644 0.335637 0.288348 0.245402 0.203906 0.164562 0.128414 0.0964157 0.0694054 0.0450087 0.0242742 0.0113483 0.00285794 2.89646e-26 0 0.00678622 0.0110158 0.0246321 0.0089744 0.0678499 0.0964466 0.126589 0.159565 0.225821 0.519063 0.34186 0.317433 0.315179 0.40839 0.448637 0.492852 0.534864 0.570135 0.600726 0.627942 0.648921 0.671239 0.68899 0.709339 0.724851 0.733989 0.74265 0.739947 0.694425 0.714258 0.655806 0.621286 0.58577 0.5494 0.508116 0.461961 0.415346 -34.1735 0.31311 0.266746 0.221812 0.179236 0.140127 0.105793 0.0762242 0.0490088 0.0264138 0.0124708 0.00295122 3.17118e-26 0 0.00309697 0.0123256 0.0274787 0.0678609 0.0727241 0.103228 0.135538 0.171099 0.252167 0.347306 0.335882 0.348198 0.396939 0.448873 0.485344 0.533908 0.578304 0.64973 0.649699 0.680531 0.703573 0.734287 0.748888 0.76847 0.783476 0.790038 0.794447 0.795024 0.757409 -nan -nan -nan -nan 0.591737 0.540773 0.491977 0.442384 -31.8092 0.332985 0.284024 0.236345 0.191237 0.149889 0.114335 0.083289 0.0519046 0.0281939 0.0132722 0.00316239 3.39631e-26 0 0.00324629 0.0129156 0.0288404 0.050683 0.0774625 0.109358 0.143587 0.1813 0.230071 0.274459 0.314569 0.375691 0.422252 0.476446 0.522266 0.571295 0.614257 0.66125 0.698291 0.768002 0.757092 0.780766 0.8004 0.817923 0.827048 0.830955 0.833504 0.827974 0.813255 0.788349 0.747764 0.71401 0.676806 0.617897 0.565272 0.51355 0.461132 -28.7547 0.348815 0.297194 0.247173 0.200042 0.157092 0.122673 0.0948778 0.0531723 0.0314278 0.0138322 0.00339856 3.56801e-26 0 0.00335578 0.0133488 0.0297433 0.0522562 0.0804143 0.113533 0.149331 0.188621 0.239758 0.286045 0.328729 0.391892 0.441011 0.496833 0.544367 0.595526 0.640247 0.68847 0.725809 0.755656 0.790619 0.816103 0.8361 0.850981 0.856359 0.858466 0.859514 0.852551 0.636093 3.63044 0.761633 0.722486 0.681522 0.634464 0.582673 0.529545 0.476762 0.46449 0.361476 0.306657 0.254674 0.205912 0.161478 0.135588 0.126414 0.0581432 0.0307999 0.0137618 0.00356002 3.68356e-26 0 0.00342335 0.0136169 0.030364 0.0533478 0.0823295 0.116289 0.153343 0.19377 0.2464 0.293979 0.338061 0.402176 0.452605 0.50958 0.558374 0.610531 0.656125 0.704956 0.742757 0.779765 0.810524 0.834869 0.854422 0.867965 0.871913 0.872224 0.870371 0.856489 0.83765 0.810375 0.777396 0.722522 0.682871 0.639164 0.588828 0.535593 -26.4932 0.427108 0.365118 0.309904 0.257487 0.208321 0.163507 0.134454 0.089551 0.0546195 0.0311572 0.0141016 0.00364554 3.74107e-26 0 0.00342445 0.0221296 0.0303872 0.053417 0.0824861 0.116611 0.154188 0.194927 0.238082 0.284118 0.332296 0.403513 0.454545 0.511128 0.560234 0.612018 0.657992 0.706481 0.743919 0.780609 0.811135 0.835537 0.85504 0.867846 0.873463 0.874338 0.869283 0.855965 0.836831 0.796187 0.768405 0.729216 0.682556 0.637167 0.586805 0.305515 -26.846 0.420264 0.363946 0.309656 0.257543 0.208834 0.165605 0.130416 0.0885102 0.0664898 0.0311845 0.0141196 0.00364158 3.74014e-26 0 0.00342467 0.0221296 0.0301913 0.053359 0.0824943 0.116691 0.154617 0.19559 0.238727 0.284784 0.332887 0.403106 0.454201 0.510164 0.559035 0.61025 0.656097 0.703714 0.740356 0.77644 0.806223 0.829569 0.847631 0.859248 0.861563 0.861205 0.851873 0.834896 0.801734 0.750527 0.737022 0.710596 0.670231 0.623397 0.574929 -24.3803 0.478248 0.41171 0.356767 0.303697 0.252626 0.205164 0.166756 0.152268 0.0885314 0.0541036 0.0306312 0.0138918 0.00357329 3.68099e-26 0 0.00327158 0.0130347 0.0291355 0.0513199 0.0792382 0.11245 0.150432 0.192584 0.238242 0.286686 0.337153 -nan -nan 0.495764 0.543151 0.592644 0.637144 0.683122 0.718284 0.752519 0.781703 0.804299 0.821395 0.832204 0.835602 0.835481 0.822399 0.799814 0.74689 0.756102 0.720249 0.690602 0.651292 0.603808 0.560497 -26.1582 0.451506 0.397165 0.344614 0.293917 0.245809 0.20224 0.151943 0.114521 0.0840771 0.0522878 0.0296295 0.0134772 0.00345703 3.56427e