<?xml version="1.0"?>
<VTKFile type="PolyData">
	<PolyData>
		<Piece NumberOfPoints="2601" NumberOfPolys="2500">
			<Points>
				<DataArray type="Float32" NumberOfComponents="3" format="ascii">
 0 0 0 0.02 0 0 0.04 0 0 0.06 0 0 0.08 0 0 0.1 0 0 0.12 0 0 0.14 0 0 0.16 0 0 0.18 0 0 0.2 0 0 0.22 0 0 0.24 0 0 0.26 0 0 0.28 0 0 0.3 0 0 0.32 0 0 0.34 0 0 0.36 0 0 0.38 0 0 0.4 0 0 0.42 0 0 0.44 0 0 0.46 0 0 0.48 0 0 0.5 0 0 0.52 0 0 0.54 0 0 0.56 0 0 0.58 0 0 0.6 0 0 0.62 0 0 0.64 0 0 0.66 0 0 0.68 0 0 0.7 0 0 0.72 0 0 0.74 0 0 0.76 0 0 0.78 0 0 0.8 0 0 0.82 0 0 0.84 0 0 0.86 0 0 0.88 0 0 0.9 0 0 0.92 0 0 0.94 0 0 0.96 0 0 0.98 0 0 1 0 0 0 0.02 0 0.02 0.02 0 0.04 0.02 0 0.06 0.02 0 0.08 0.02 0 0.1 0.02 0 0.12 0.02 0 0.14 0.02 0 0.16 0.02 0 0.18 0.02 0 0.2 0.02 0 0.22 0.02 0 0.24 0.02 0 0.26 0.02 0 0.28 0.02 0 0.3 0.02 0 0.32 0.02 0 0.34 0.02 0 0.36 0.02 0 0.38 0.02 0 0.4 0.02 0 0.42 0.02 0 0.44 0.02 0 0.46 0.02 0 0.48 0.02 0 0.5 0.02 0 0.52 0.02 0 0.54 0.02 0 0.56 0.02 0 0.58 0.02 0 0.6 0.02 0 0.62 0.02 0 0.64 0.02 0 0.66 0.02 0 0.68 0.02 0 0.7 0.02 0 0.72 0.02 0 0.74 0.02 0 0.76 0.02 0 0.78 0.02 0 0.8 0.02 0 0.82 0.02 0 0.84 0.02 0 0.86 0.02 0 0.88 0.02 0 0.9 0.02 0 0.92 0.02 0 0.94 0.02 0 0.96 0.02 0 0.98 0.02 0 1 0.02 0 0 0.04 0 0.02 0.04 0 0.04 0.04 0 0.06 0.04 0 0.08 0.04 0 0.1 0.04 0 0.12 0.04 0 0.14 0.04 0 0.16 0.04 0 0.18 0.04 0 0.2 0.04 0 0.22 0.04 0 0.24 0.04 0 0.26 0.04 0 0.28 0.04 0 0.3 0.04 0 0.32 0.04 0 0.34 0.04 0 0.36 0.04 0 0.38 0.04 0 0.4 0.04 0 0.42 0.04 0 0.44 0.04 0 0.46 0.04 0 0.48 0.04 0 0.5 0.04 0 0.52 0.04 0 0.54 0.04 0 0.56 0.04 0 0.58 0.04 0 0.6 0.04 0 0.62 0.04 0 0.64 0.04 0 0.66 0.04 0 0.68 0.04 0 0.7 0.04 0 0.72 0.04 0 0.74 0.04 0 0.76 0.04 0 0.78 0.04 0 0.8 0.04 0 0.82 0.04 0 0.84 0.04 0 0.86 0.04 0 0.88 0.04 0 0.9 0.04 0 0.92 0.04 0 0.94 0.04 0 0.96 0.04 0 0.98 0.04 0 1 0.04 0 0 0.06 0 0.02 0.06 0 0.04 0.06 0 0.06 0.06 0 0.08 0.06 0 0.1 0.06 0 0.12 0.06 0 0.14 0.06 0 0.16 0.06 0 0.18 0.06 0 0.2 0.06 0 0.22 0.06 0 0.24 0.06 0 0.26 0.06 0 0.28 0.06 0 0.3 0.06 0 0.32 0.06 0 0.34 0.06 0 0.36 0.06 0 0.38 0.06 0 0.4 0.06 0 0.42 0.06 0 0.44 0.06 0 0.46 0.06 0 0.48 0.06 0 0.5 0.06 0 0.52 0.06 0 0.54 0.06 0 0.56 0.06 0 0.58 0.06 0 0.6 0.06 0 0.62 0.06 0 0.64 0.06 0 0.66 0.06 0 0.68 0.06 0 0.7 0.06 0 0.72 0.06 0 0.74 0.06 0 0.76 0.06 0 0.78 0.06 0 0.8 0.06 0 0.82 0.06 0 0.84 0.06 0 0.86 0.06 0 0.88 0.06 0 0.9 0.06 0 0.92 0.06 0 0.94 0.06 0 0.96 0.06 0 0.98 0.06 0 1 0.06 0 0 0.08 0 0.02 0.08 0 0.04 0.08 0 0.06 0.08 0 0.08 0.08 0 0.1 0.08 0 0.12 0.08 0 0.14 0.08 0 0.16 0.08 0 0.18 0.08 0 0.2 0.08 0 0.22 0.08 0 0.24 0.08 0 0.26 0.08 0 0.28 0.08 0 0.3 0.08 0 0.32 0.08 0 0.34 0.08 0 0.36 0.08 0 0.38 0.08 0 0.4 0.08 0 0.42 0.08 0 0.44 0.08 0 0.46 0.08 0 0.48 0.08 0 0.5 0.08 0 0.52 0.08 0 0.54 0.08 0 0.56 0.08 0 0.58 0.08 0 0.6 0.08 0 0.62 0.08 0 0.64 0.08 0 0.66 0.08 0 0.68 0.08 0 0.7 0.08 0 0.72 0.08 0 0.74 0.08 0 0.76 0.08 0 0.78 0.08 0 0.8 0.08 0 0.82 0.08 0 0.84 0.08 0 0.86 0.08 0 0.88 0.08 0 0.9 0.08 0 0.92 0.08 0 0.94 0.08 0 0.96 0.08 0 0.98 0.08 0 1 0.08 0 0 0.1 0 0.02 0.1 0 0.04 0.1 0 0.06 0.1 0 0.08 0.1 0 0.1 0.1 0 0.12 0.1 0 0.14 0.1 0 0.16 0.1 0 0.18 0.1 0 0.2 0.1 0 0.22 0.1 0 0.24 0.1 0 0.26 0.1 0 0.28 0.1 0 0.3 0.1 0 0.32 0.1 0 0.34 0.1 0 0.36 0.1 0 0.38 0.1 0 0.4 0.1 0 0.42 0.1 0 0.44 0.1 0 0.46 0.1 0 0.48 0.1 0 0.5 0.1 0 0.52 0.1 0 0.54 0.1 0 0.56 0.1 0 0.58 0.1 0 0.6 0.1 0 0.62 0.1 0 0.64 0.1 0 0.66 0.1 0 0.68 0.1 0 0.7 0.1 0 0.72 0.1 0 0.74 0.1 0 0.76 0.1 0 0.78 0.1 0 0.8 0.1 0 0.82 0.1 0 0.84 0.1 0 0.86 0.1 0 0.88 0.1 0 0.9 0.1 0 0.92 0.1 0 0.94 0.1 0 0.96 0.1 0 0.98 0.1 0 1 0.1 0 0 0.12 0 0.02 0.12 0 0.04 0.12 0 0.06 0.12 0 0.08 0.12 0 0.1 0.12 0 0.12 0.12 0 0.14 0.12 0 0.16 0.12 0 0.18 0.12 0 0.2 0.12 0 0.22 0.12 0 0.24 0.12 0 0.26 0.12 0 0.28 0.12 0 0.3 0.12 0 0.32 0.12 0 0.34 0.12 0 0.36 0.12 0 0.38 0.12 0 0.4 0.12 0 0.42 0.12 0 0.44 0.12 0 0.46 0.12 0 0.48 0.12 0 0.5 0.12 0 0.52 0.12 0 0.54 0.12 0 0.56 0.12 0 0.58 0.12 0 0.6 0.12 0 0.62 0.12 0 0.64 0.12 0 0.66 0.12 0 0.68 0.12 0 0.7 0.12 0 0.72 0.12 0 0.74 0.12 0 0.76 0.12 0 0.78 0.12 0 0.8 0.12 0 0.82 0.12 0 0.84 0.12 0 0.86 0.12 0 0.88 0.12 0 0.9 0.12 0 0.92 0.12 0 0.94 0.12 0 0.96 0.12 0 0.98 0.12 0 1 0.12 0 0 0.14 0 0.02 0.14 0 0.04 0.14 0 0.06 0.14 0 0.08 0.14 0 0.1 0.14 0 0.12 0.14 0 0.14 0.14 0 0.16 0.14 0 0.18 0.14 0 0.2 0.14 0 0.22 0.14 0 0.24 0.14 0 0.26 0.14 0 0.28 0.14 0 0.3 0.14 0 0.32 0.14 0 0.34 0.14 0 0.36 0.14 0 0.38 0.14 0 0.4 0.14 0 0.42 0.14 0 0.44 0.14 0 0.46 0.14 0 0.48 0.14 0 0.5 0.14 0 0.52 0.14 0 0.54 0.14 0 0.56 0.14 0 0.58 0.14 0 0.6 0.14 0 0.62 0.14 0 0.64 0.14 0 0.66 0.14 0 0.68 0.14 0 0.7 0.14 0 0.72 0.14 0 0.74 0.14 0 0.76 0.14 0 0.78 0.14 0 0.8 0.14 0 0.82 0.14 0 0.84 0.14 0 0.86 0.14 0 0.88 0.14 0 0.9 0.14 0 0.92 0.14 0 0.94 0.14 0 0.96 0.14 0 0.98 0.14 0 1 0.14 0 0 0.16 0 0.02 0.16 0 0.04 0.16 0 0.06 0.16 0 0.08 0.16 0 0.1 0.16 0 0.12 0.16 0 0.14 0.16 0 0.16 0.16 0 0.18 0.16 0 0.2 0.16 0 0.22 0.16 0 0.24 0.16 0 0.26 0.16 0 0.28 0.16 0 0.3 0.16 0 0.32 0.16 0 0.34 0.16 0 0.36 0.16 0 0.38 0.16 0 0.4 0.16 0 0.42 0.16 0 0.44 0.16 0 0.46 0.16 0 0.48 0.16 0 0.5 0.16 0 0.52 0.16 0 0.54 0.16 0 0.56 0.16 0 0.58 0.16 0 0.6 0.16 0 0.62 0.16 0 0.64 0.16 0 0.66 0.16 0 0.68 0.16 0 0.7 0.16 0 0.72 0.16 0 0.74 0.16 0 0.76 0.16 0 0.78 0.16 0 0.8 0.16 0 0.82 0.16 0 0.84 0.16 0 0.86 0.16 0 0.88 0.16 0 0.9 0.16 0 0.92 0.16 0 0.94 0.16 0 0.96 0.16 0 0.98 0.16 0 1 0.16 0 0 0.18 0 0.02 0.18 0 0.04 0.18 0 0.06 0.18 0 0.08 0.18 0 0.1 0.18 0 0.12 0.18 0 0.14 0.18 0 0.16 0.18 0 0.18 0.18 0 0.2 0.18 0 0.22 0.18 0 0.24 0.18 0 0.26 0.18 0 0.28 0.18 0 0.3 0.18 0 0.32 0.18 0 0.34 0.18 0 0.36 0.18 0 0.38 0.18 0 0.4 0.18 0 0.42 0.18 0 0.44 0.18 0 0.46 0.18 0 0.48 0.18 0 0.5 0.18 0 0.52 0.18 0 0.54 0.18 0 0.56 0.18 0 0.58 0.18 0 0.6 0.18 0 0.62 0.18 0 0.64 0.18 0 0.66 0.18 0 0.68 0.18 0 0.7 0.18 0 0.72 0.18 0 0.74 0.18 0 0.76 0.18 0 0.78 0.18 0 0.8 0.18 0 0.82 0.18 0 0.84 0.18 0 0.86 0.18 0 0.88 0.18 0 0.9 0.18 0 0.92 0.18 0 0.94 0.18 0 0.96 0.18 0 0.98 0.18 0 1 0.18 0 0 0.2 0 0.02 0.2 0 0.04 0.2 0 0.06 0.2 0 0.08 0.2 0 0.1 0.2 0 0.12 0.2 0 0.14 0.2 0 0.16 0.2 0 0.18 0.2 0 0.2 0.2 0 0.22 0.2 0 0.24 0.2 0 0.26 0.2 0 0.28 0.2 0 0.3 0.2 0 0.32 0.2 0 0.34 0.2 0 0.36 0.2 0 0.38 0.2 0 0.4 0.2 0 0.42 0.2 0 0.44 0.2 0 0.46 0.2 0 0.48 0.2 0 0.5 0.2 0 0.52 0.2 0 0.54 0.2 0 0.56 0.2 0 0.58 0.2 0 0.6 0.2 0 0.62 0.2 0 0.64 0.2 0 0.66 0.2 0 0.68 0.2 0 0.7 0.2 0 0.72 0.2 0 0.74 0.2 0 0.76 0.2 0 0.78 0.2 0 0.8 0.2 0 0.82 0.2 0 0.84 0.2 0 0.86 0.2 0 0.88 0.2 0 0.9 0.2 0 0.92 0.2 0 0.94 0.2 0 0.96 0.2 0 0.98 0.2 0 1 0.2 0 0 0.22 0 0.02 0.22 0 0.04 0.22 0 0.06 0.22 0 0.08 0.22 0 0.1 0.22 0 0.12 0.22 0 0.14 0.22 0 0.16 0.22 0 0.18 0.22 0 0.2 0.22 0 0.22 0.22 0 0.24 0.22 0 0.26 0.22 0 0.28 0.22 0 0.3 0.22 0 0.32 0.22 0 0.34 0.22 0 0.36 0.22 0 0.38 0.22 0 0.4 0.22 0 0.42 0.22 0 0.44 0.22 0 0.46 0.22 0 0.48 0.22 0 0.5 0.22 0 0.52 0.22 0 0.54 0.22 0 0.56 0.22 0 0.58 0.22 0 0.6 0.22 0 0.62 0.22 0 0.64 0.22 0 0.66 0.22 0 0.68 0.22 0 0.7 0.22 0 0.72 0.22 0 0.74 0.22 0 0.76 0.22 0 0.78 0.22 0 0.8 0.22 0 0.82 0.22 0 0.84 0.22 0 0.86 0.22 0 0.88 0.22 0 0.9 0.22 0 0.92 0.22 0 0.94 0.22 0 0.96 0.22 0 0.98 0.22 0 1 0.22 0 0 0.24 0 0.02 0.24 0 0.04 0.24 0 0.06 0.24 0 0.08 0.24 0 0.1 0.24 0 0.12 0.24 0 0.14 0.24 0 0.16 0.24 0 0.18 0.24 0 0.2 0.24 0 0.22 0.24 0 0.24 0.24 0 0.26 0.24 0 0.28 0.24 0 0.3 0.24 0 0.32 0.24 0 0.34 0.24 0 0.36 0.24 0 0.38 0.24 0 0.4 0.24 0 0.42 0.24 0 0.44 0.24 0 0.46 0.24 0 0.48 0.24 0 0.5 0.24 0 0.52 0.24 0 0.54 0.24 0 0.56 0.24 0 0.58 0.24 0 0.6 0.24 0 0.62 0.24 0 0.64 0.24 0 0.66 0.24 0 0.68 0.24 0 0.7 0.24 0 0.72 0.24 0 0.74 0.24 0 0.76 0.24 0 0.78 0.24 0 0.8 0.24 0 0.82 0.24 0 0.84 0.24 0 0.86 0.24 0 0.88 0.24 0 0.9 0.24 0 0.92 0.24 0 0.94 0.24 0 0.96 0.24 0 0.98 0.24 0 1 0.24 0 0 0.26 0 0.02 0.26 0 0.04 0.26 0 0.06 0.26 0 0.08 0.26 0 0.1 0.26 0 0.12 0.26 0 0.14 0.26 0 0.16 0.26 0 0.18 0.26 0 0.2 0.26 0 0.22 0.26 0 0.24 0.26 0 0.26 0.26 0 0.28 0.26 0 0.3 0.26 0 0.32 0.26 0 0.34 0.26 0 0.36 0.26 0 0.38 0.26 0 0.4 0.26 0 0.42 0.26 0 0.44 0.26 0 0.46 0.26 0 0.48 0.26 0 0.5 0.26 0 0.52 0.26 0 0.54 0.26 0 0.56 0.26 0 0.58 0.26 0 0.6 0.26 0 0.62 0.26 0 0.64 0.26 0 0.66 0.26 0 0.68 0.26 0 0.7 0.26 0 0.72 0.26 0 0.74 0.26 0 0.76 0.26 0 0.78 0.26 0 0.8 0.26 0 0.82 0.26 0 0.84 0.26 0 0.86 0.26 0 0.88 0.26 0 0.9 0.26 0 0.92 0.26 0 0.94 0.26 0 0.96 0.26 0 0.98 0.26 0 1 0.26 0 0 0.28 0 0.02 0.28 0 0.04 0.28 0 0.06 0.28 0 0.08 0.28 0 0.1 0.28 0 0.12 0.28 0 0.14 0.28 0 0.16 0.28 0 0.18 0.28 0 0.2 0.28 0 0.22 0.28 0 0.24 0.28 0 0.26 0.28 0 0.28 0.28 0 0.3 0.28 0 0.32 0.28 0 0.34 0.28 0 0.36 0.28 0 0.38 0.28 0 0.4 0.28 0 0.42 0.28 0 0.44 0.28 0 0.46 0.28 0 0.48 0.28 0 0.5 0.28 0 0.52 0.28 0 0.54 0.28 0 0.56 0.28 0 0.58 0.28 0 0.6 0.28 0 0.62 0.28 0 0.64 0.28 0 0.66 0.28 0 0.68 0.28 0 0.7 0.28 0 0.72 0.28 0 0.74 0.28 0 0.76 0.28 0 0.78 0.28 0 0.8 0.28 0 0.82 0.28 0 0.84 0.28 0 0.86 0.28 0 0.88 0.28 0 0.9 0.28 0 0.92 0.28 0 0.94 0.28 0 0.96 0.28 0 0.98 0.28 0 1 0.28 0 0 0.3 0 0.02 0.3 0 0.04 0.3 0 0.06 0.3 0 0.08 0.3 0 0.1 0.3 0 0.12 0.3 0 0.14 0.3 0 0.16 0.3 0 0.18 0.3 0 0.2 0.3 0 0.22 0.3 0 0.24 0.3 0 0.26 0.3 0 0.28 0.3 0 0.3 0.3 0 0.32 0.3 0 0.34 0.3 0 0.36 0.3 0 0.38 0.3 0 0.4 0.3 0 0.42 0.3 0 0.44 0.3 0 0.46 0.3 0 0.48 0.3 0 0.5 0.3 0 0.52 0.3 0 0.54 0.3 0 0.56 0.3 0 0.58 0.3 0 0.6 0.3 0 0.62 0.3 0 0.64 0.3 0 0.66 0.3 0 0.68 0.3 0 0.7 0.3 0 0.72 0.3 0 0.74 0.3 0 0.76 0.3 0 0.78 0.3 0 0.8 0.3 0 0.82 0.3 0 0.84 0.3 0 0.86 0.3 0 0.88 0.3 0 0.9 0.3 0 0.92 0.3 0 0.94 0.3 0 0.96 0.3 0 0.98 0.3 0 1 0.3 0 0 0.32 0 0.02 0.32 0 0.04 0.32 0 0.06 0.32 0 0.08 0.32 0 0.1 0.32 0 0.12 0.32 0 0.14 0.32 0 0.16 0.32 0 0.18 0.32 0 0.2 0.32 0 0.22 0.32 0 0.24 0.32 0 0.26 0.32 0 0.28 0.32 0 0.3 0.32 0 0.32 0.32 0 0.34 0.32 0 0.36 0.32 0 0.38 0.32 0 0.4 0.32 0 0.42 0.32 0 0.44 0.32 0 0.46 0.32 0 0.48 0.32 0 0.5 0.32 0 0.52 0.32 0 0.54 0.32 0 0.56 0.32 0 0.58 0.32 0 0.6 0.32 0 0.62 0.32 0 0.64 0.32 0 0.66 0.32 0 0.68 0.32 0 0.7 0.32 0 0.72 0.32 0 0.74 0.32 0 0.76 0.32 0 0.78 0.32 0 0.8 0.32 0 0.82 0.32 0 0.84 0.32 0 0.86 0.32 0 0.88 0.32 0 0.9 0.32 0 0.92 0.32 0 0.94 0.
[...]
			<PointData Scalars="VitesseX">
				<DataArray Name="VitesseX" type="Float32" format="ascii">
 0 -0 0 0 0 0 0 0 0 0 0 0 0 0 0 0 0 0 0 0 0 0 0 0 0 0 0 0 0 0 0 0 0 0 0 0 0 0 0 0 0 0 0 0 0 0 0 0 0 0 0 0 0.000338479 0.000973232 0.00295081 0.00524904 0.00791452 0.0112749 0.0155037 0.018947 0.023401 0.0278467 0.0327771 0.0375415 0.0424834 0.0473755 0.0521511 0.0567172 0.0611015 0.0628915 0.0750114 0.0829867 0.0782629 0.0739324 0.0774999 0.0804057 0.0782114 0.0759785 0.0746342 0.072164 0.0698035 0.0678529 0.0663984 0.0628926 0.0589829 0.0547916 0.0503081 0.0455993 0.0408322 0.0360143 0.0312308 0.0265647 0.0220756 0.0179054 0.0140765 0.010548 0.00750609 0.00483107 0.00274118 0.00123698 0.000315235 3.28569e-27 0 0.000646298 0.00265143 0.00556205 0.00986197 0.0150307 0.0213616 0.0286046 0.0362773 0.0449004 0.0537942 0.0628776 0.0725195 0.082294 0.0918533 0.100991 0.109868 0.118541 0.125776 0.131474 0.14294 0.151995 0.149716 0.14903 0.151773 0.152182 0.151246 0.149647 0.147081 0.143151 0.138263 0.13207 0.125039 0.117319 0.108937 0.100068 0.0908811 0.0813408 0.0717104 0.062272 0.0529547 0.0440425 0.0356657 0.0279233 0.0209465 0.0148355 0.00968103 0.0055596 0.00253449 0.000653273 6.52005e-27 0 0.000925965 0.00375695 0.00808449 0.0142155 0.0219059 0.0310881 0.0415211 0.0530137 0.0654791 0.0788994 0.092665 0.106697 0.120863 0.134913 0.148266 0.161235 0.17397 0.186219 0.194839 0.20376 0.214158 0.222023 0.222349 0.223869 0.225747 0.225085 0.222575 0.218251 0.212184 0.204667 0.195602 0.18524 0.173747 0.16135 0.148258 0.134589 0.120442 0.106217 0.0922061 0.0784574 0.0652942 0.0529863 0.0414208 0.0310349 0.0219746 0.0143348 0.00823357 0.00376087 0.000973617 9.65025e-27 0 0.00119094 0.00475073 0.0104784 0.0184813 0.0284292 0.0403059 0.0539262 0.0689164 0.0850951 0.102772 0.120721 0.139059 0.157078 0.175493 0.193379 0.210118 0.226567 0.241816 0.255726 0.266609 0.276438 0.285052 0.291607 0.295775 0.295739 0.294944 0.291311 0.285759 0.277968 0.267776 0.256027 0.231836 0.227988 0.211182 0.194198 0.176564 0.159016 0.144444 0.12057 0.103039 0.0849235 0.068744 0.0538962 0.0405375 0.028682 0.0187204 0.0107682 0.0049257 0.00127776 1.26304e-26 0 0.00143746 0.00573202 0.0127087 0.0223103 0.034498 0.0488472 0.0655467 0.0837628 0.103336 0.125034 0.146396 0.168629 0.190858 0.213522 0.235485 0.255919 0.275762 0.294138 0.310746 0.325098 0.337241 0.346873 0.35411 0.35873 0.360249 0.359226 0.355169 0.348231 0.339149 0.329366 0.312891 0.297048 0.278497 0.258282 0.23723 0.215435 0.192463 0.169638 0.147054 0.124835 0.120386 0.0939013 0.0660584 0.0490424 0.035019 0.0228477 0.0131425 0.00604304 0.00157293 1.54077e-26 0 0.00166219 0.0066842 0.0147428 0.0262154 0.0400503 0.0566874 0.0761435 0.0972623 0.119906 0.145288 0.169923 0.195565 0.221795 0.248082 0.273642 0.297521 0.320234 0.341704 0.359921 0.375799 0.394848 0.405385 0.411193 0.41756 0.419613 0.41884 0.413664 0.405922 0.395625 0.385196 0.364399 0.345683 0.324562 0.301362 0.276567 0.250969 0.224147 0.197669 0.17152 0.146081 0.121698 0.0985546 0.0775126 0.0581733 0.041236 0.026949 0.0155064 0.00709651 0.00183069 1.79471e-26 0 0.00185651 0.0126224 0.016254 0.0249442 0.0448041 0.0637611 0.0855491 0.109341 0.134869 0.163166 0.191074 0.219328 0.249003 0.278573 0.307089 0.334506 0.360104 0.383972 0.404669 0.381937 0.442375 0.454797 0.462289 0.469984 0.472396 0.472451 0.445751 0.454641 0.447363 0.434143 0.410775 0.388891 0.365353 0.339291 0.311204 0.283639 0.253715 0.222975 0.193253 0.164498 0.136959 0.111087 0.087148 0.0655413 0.0465182 0.0303866 0.0174743 0.00798838 0.0020669 2.01967e-26 0 0.00195437 0.00575111 0.0177187 0.0317078 0.0486276 0.0594224 0.0929286 0.119204 0.147852 0.178414 0.208496 0.239752 0.272555 0.304475 0.335525 0.365739 0.393761 0.418511 -5.19257 12.0902 0.487255 0.497141 0.522357 0.516654 0.517187 0.515731 0.50962 0.499407 0.48569 0.468815 0.448427 0.424323 0.395197 0.357834 0.337853 0.313846 0.280447 0.244643 0.211928 0.1804 0.150255 0.121949 0.0955245 0.0718706 0.0510133 0.0333188 0.0192026 0.00887322 0.00227799 2.21301e-26 0 0.000455971 0.00866953 0.0194636 0.0341692 0.0524775 0.0737875 0.0995069 0.12735 0.154843 0.189326 0.222742 0.256735 0.291346 0.325435 0.359172 0.390819 -18.4749 27.6652 0.351412 0.450766 0.518889 0.532744 0.544009 0.5517 0.554437 0.553187 0.547423 0.537203 0.523006 0.504847 0.482957 0.457715 0.429518 0.399221 0.367119 0.332503 0.296443 0.288215 0.255837 0.192282 0.161144 0.1308 0.102452 0.0770992 0.0547205 0.0357251 0.0204748 0.00917204 0.00227385 2.37165e-26 0 0.00107176 0.00907647 0.0373997 0.0357309 0.0507406 0.0779642 0.10462 0.133823 0.165577 0.198677 0.233699 0.269582 0.305498 0.341681 0.376896 37.2771 -0.791943 0.447651 0.497634 0.522273 0.542942 0.559325 0.571527 0.579688 0.582749 0.581586 0.575795 0.565185 0.5504 0.531447 0.508588 0.482225 0.452765 0.420737 0.386534 0.350615 0.31401 0.277788 0.241029 0.207354 0.169358 0.137811 0.107757 0.0808161 0.0574671 0.0374961 0.0213749 0.00952678 0.00238794 2.49281e-26 0 0.00142463 0.00836277 0.0179586 0.0365515 0.0514169 0.0804287 0.107953 0.134795 0.170833 0.205442 0.241144 0.278061 0.315125 0.351729 40.3243 34.5647 0.453543 0.486186 0.514684 0.539631 0.560678 0.577577 0.590246 0.598685 0.601865 0.600781 0.595042 0.584212 0.569061 0.549613 0.526139 0.498965 0.468504 0.435334 0.39994 0.362895 0.324947 0.286638 0.248595 0.211553 0.190249 0.142869 0.11122 0.0830507 0.0591559 0.0385131 0.0217085 0.00960215 0.00241524 2.57527e-26 0 0.00234559 0.00717326 0.0211753 0.0371212 0.0571526 0.0817258 0.109339 0.139373 0.172827 0.207935 0.244185 0.281108 0.318376 0.354961 -0.615783 0.425398 0.461249 0.493301 0.521873 0.546994 0.568503 0.585936 0.599053 0.607858 0.611465 0.610508 0.604968 0.594177 0.578947 0.559332 0.535679 0.50817 0.477221 0.44355 0.407609 0.369918 0.331238 0.292023 0.253105 0.215837 0.183022 0.159208 0.112425 0.084646 0.0598888 0.038549 0.0217079 0.00974906 0.00246716 2.61639e-26 0 0.00240032 0.00955468 0.0213229 0.0344484 0.057552 0.0818628 0.109242 0.140401 0.173199 0.207874 0.244115 0.280559 0.316611 43.3303 0.388947 0.427521 0.461898 0.493401 0.521826 0.546959 0.568468 0.585945 0.599094 0.607841 0.611445 0.610497 0.60503 0.594466 0.579153 0.559465 0.536052 0.508839 0.477718 0.443767 0.407708 0.370075 0.331393 0.292168 0.253099 0.215317 0.180048 0.159222 0.111908 0.0839602 0.0593253 0.0382626 0.0216641 0.00977037 0.00248116 2.61659e-26 0 0.00236055 0.0093935 0.0209537 0.0351678 0.0566349 0.0804027 0.107109 0.137708 0.169821 0.20384 0.239282 0.274442 0.310505 0.347456 0.384724 0.420241 0.453453 0.484154 0.512148 0.537055 0.558276 0.575503 0.588758 0.59716 0.602124 0.605383 0.600808 0.583082 0.574957 0.5618 0.552774 0.511844 0.474916 0.439533 0.403376 0.365921 0.327658 0.289034 0.250481 0.212726 0.176962 0.144262 0.125138 0.0827759 0.058498 0.0375081 0.0213341 0.00960916 0.0035302 2.57582e-26 0 0.0022844 0.00909082 0.0202599 0.0356257 0.0549192 0.0777287 0.103375 0.132808 0.163756 0.196423 0.230604 0.264753 0.281931 0.335849 0.372109 0.40591 0.437738 0.467495 0.494695 0.518482 0.538378 0.554291 0.568652 0.579029 0.58273 0.582036 0.57729 0.567298 0.553679 0.540207 0.512809 0.487119 0.458266 0.438949 0.392617 0.354934 0.317694 0.280247 0.242926 0.206344 0.171477 0.139061 0.111092 0.0784433 0.0606253 0.0367923 0.0206799 0.00946123 0.00340979 2.49553e-26 0 0.00217265 0.00864674 0.0192471 0.0338399 0.0521286 0.0737918 0.0759177 0.125078 0.154979 0.186077 0.218353 0.250464 0.282543 0.318793 0.352711 0.384682 0.41503 0.443461 0.468924 0.490753 0.494587 0.520412 0.542677 0.550405 0.55462 0.554555 0.55173 0.542888 0.528174 0.510433 0.488713 0.46458 0.437414 0.406795 -51.9064 0.341689 0.303794 0.267728 0.231828 0.197006 0.163597 0.132288 0.104131 0.0757346 0.0533721 0.0349272 0.0198493 0.00875495 0.00219341 2.37224e-26 0 0.00202535 0.00803082 0.0179416 0.0315323 0.0484904 0.0686138 0.0591677 0.115853 0.14388 0.172794 0.202642 67.4957 0.264454 0.297044 0.327569 0.357216 0.385665 0.412069 0.43535 0.44251 0.470636 0.489186 0.498743 0.506405 0.516584 0.517267 0.513687 0.504823 0.492028 0.478328 0.457387 0.434794 0.409425 0.381019 0.35102 0.319099 0.287668 0.251832 0.217355 0.184476 0.15312 0.12371 0.0968768 0.0741805 0.0590081 0.0324195 0.0184217 0.00825295 0.00205021 2.21593e-26 0 0.00183089 0.00674019 0.0163467 0.0273254 0.0439836 0.0622107 0.0760083 0.105314 0.130689 0.156768 0.18372 0.197803 0.240096 0.269429 0.297252 0.324295 0.350142 0.373689 0.393866 0.39433 0.434642 0.44841 0.459411 0.467419 0.468605 0.473338 0.47007 0.461361 0.450187 0.440119 0.419321 0.398544 0.375293 0.349366 0.321884 0.292623 0.262758 0.233148 0.199871 0.169186 0.140434 0.11336 0.0884847 0.0663917 0.0545483 0.0295753 0.0168267 0.00764111 0.00188086 2.11772e-26 0 0.00158441 0.0058211 0.0143732 0.0218041 0.0387761 0.0549452 0.0715385 0.0932598 0.115525 0.138461 0.161926 0.183384 0.211701 0.237316 0.261993 0.286082 0.309027 0.329733 0.345918 0.361728 0.385593 0.397841 0.4077 0.414772 0.417396 0.418649 0.417233 0.410841 0.400762 0.387914 0.373796 0.356049 0.335493 0.312484 0.287941 0.26183 0.235007 0.207647 0.179399 0.151382 0.125479 0.101235 0.0789804 0.0591206 0.0426192 0.0267371 0.0149776 0.00686367 0.00167565 1.88281e-26 0 0.00126208 0.00525384 0.0122791 0.0198793 0.0330659 0.0470747 0.0619051 0.079637 0.0984607 0.11198 0.132358 0.156567 0.18003 0.201472 0.222505 0.243088 0.262591 0.280369 0.282708 0.312428 0.330421 0.34069 0.34926 0.355493 0.358945 0.359943 0.358529 0.353522 0.345416 0.335508 0.323299 0.307994 0.290355 0.270658 0.249574 0.227038 0.203587 0.179875 0.155973 0.131668 0.108815 0.0876935 0.0683829 0.0510845 0.0361777 0.0230296 0.012942 0.00585606 0.00143211 1.54541e-26 0 0.00100776 0.00437538 0.00995275 0.0166297 0.0268365 0.0382368 0.0502381 0.0642432 0.0795359 0.0938696 0.110435 0.126621 0.145096 0.16246 0.17947 0.196187 0.21199 0.22634 0.239289 0.257961 0.269692 0.278247 0.285368 0.290768 0.294642 0.295982 0.294948 0.291126 0.285131 0.280963 0.268286 0.255063 0.240997 0.224758 0.207145 0.188272 0.169069 0.149666 0.130007 0.114624 0.0905658 0.0727082 0.0566208 0.0421889 0.029675 0.0190137 0.0122973 0.00471506 0.00117737 1.26972e-26 0 0.000767362 0.00324295 0.00746579 0.0129207 0.0201459 0.0273078 0.0382317 0.0484821 10.0841 0.0702817 0.0830972 0.0939935 0.107865 0.120793 0.133509 0.146147 0.158174 0.169376 0.167784 0.18891 0.200502 0.20684 0.209668 0.219883 0.227066 0.228425 0.22767 0.224613 0.220031 0.216892 0.208095 0.198374 0.187521 0.175689 0.162337 0.147505 0.132206 0.115942 0.0996013 0.085699 0.0702324 0.056636 0.0440344 0.0327499 0.0230115 0.0170705 0.00827677 0.00362562 0.000917346 9.77678e-27 0 0.000489913 0.00220571 0.00490759 0.00847311 0.0130504 0.0161147 0.0184203 8.41294 -5.22539 0.0453755 0.0534623 0.0597609 0.0686785 0.0770193 0.0853251 0.0936874 0.101502 0.108288 0.122258 0.125778 0.132351 0.13768 0.141407 0.136824 0.150544 0.153819 0.15789 0.155969 0.152192 0.156629 0.176376 0.141844 0.129718 0.120496 0.114957 0.104792 0.0933214 0.0807812 0.0699341 0.0594328 0.0493733 0.0397214 0.0308199 0.0228512 0.0159992 0.0104105 0.00571037 0.00253237 0.000661756 6.60135e-27 0 0.000268752 0.0010633 0.00229152 0.00391925 0.00572341 0.00649897 -0.0475343 0.0104306 0.0147541 0.0184461 0.0217346 0.0247843 0.0283616 0.0319491 0.035693 0.0396227 0.0433368 0.0467525 0.0517524 0.0577935 0.0614803 0.0651442 0.0681209 0.0717649 0.0768666 0.0779895 0.0793371 0.0803463 0.0811207 0.0817574 0.0906126 0.110414 0.0789917 0.0628909 0.0574486 0.0530948 0.0539414 0.0456472 0.0397985 0.0340309 0.0282158 0.0222635 0.0171526 0.0126099 0.00874051 0.00554415 0.00288082 0.00154345 0.000373594 3.36069e-27 0 -2.05665e-05 -0.000133363 -0.000400047 -0.000830976 -0.00162628 -0.00214805 -0.00366392 -0.0037946 -0.00547376 -0.0721579 -0.158279 -0.0107717 -0.0124123 -0.0136239 -0.0145582 -0.015106 -0.015357 -0.0159941 -0.0264164 -0.0113863 -0.0101837 -0.00865958 -0.00690742 -0.00452747 0.000232656 0.00266987 0.00731831 0.0100319 0.0125028 0.0140035 0.0144612 0.0144552 4.8785 0.203331 0.011334 0.0113989 0.0155078 0.0110765 0.0125952 0.0336854 0.0152436 0.0044443 0.00322974 0.00219597 0.00139284 0.000768525 0.000380432 5.8774e-05 1.77063e-05 1.60917e-28 0 -0.000329179 -0.00135072 -0.00308813 -0.00557692 -0.00885098 -0.0120505 -0.0172586 -0.020771 -0.0281686 -0.0338855 -0.0419474 -0.0464658 -0.0531795 -0.058968 -0.0646339 -0.0697585 -0.0741418 -0.078252 -0.0829084 -0.104314 -0.0818156 -0.0823728 -0.0824913 -0.0794951 -0.0769442 -0.0751407 -0.0665871 -0.0609906 -0.0658498 -0.0620468 -0.049613 -0.0422023 -0.04783 -0.0449345 -0.026614 0.0290492 0.494586 -0.018727 -0.0225042 -0.018093 -0.0151407 -0.0134477 -0.0107113 -0.00822283 -0.00594412 -0.0039686 -1.29923 -0.00110116 -0.000239144 -3.20215e-27 0 -0.000642598 -0.00257778 -0.00580085 -0.0103432 -0.0159217 -0.0225392 -0.0354386 -0.0420865 -0.051054 -0.0593032 -0.0695147 -0.0800918 -0.093331 -0.103658 -0.113924 -0.123468 -0.131928 -0.139503 -0.145879 -0.153777 -0.168178 -0.155031 -0.157664 -0.154333 -0.15117 -0.149399 -0.146507 -0.14242 -0.135924 -0.116547 -0.118614 -0.0983723 -0.0710217 -0.0968135 -0.0868691 -0.0783407 -0.0656427 -0.0522987 -0.0528202 -0.0437641 -0.0373056 -0.0310531 -0.0244682 -0.0184993 -0.0131678 -0.00858682 -0.00515879 -0.00230673 -0.00223453 -6.48333e-27 0 -0.000951894 -0.00377616 -0.00842992 -0.0149107 -0.0230254 -0.032941 -0.0445387 -0.059284 -0.0686895 -0.0823159 -0.101625 -0.117412 -0.133837 -0.14735 -0.161441 -0.175154 -0.187808 -0.198934 -0.208429 -0.216395 -0.225942 -0.235505 -0.226139 -0.22721 -0.223696 -0.219987 -0.215134 -0.208612 -0.203061 -0.197286 -0.187795 -0.170705 -0.159854 -0.142662 -0.133457 -0.119963 -0.107206 -0.0944362 -0.0829437 -0.06843 -0.0581732 -0.0480921 -0.0378033 -0.0284595 -0.0201643 -0.0130405 -0.00764681 -0.00342066 -0.00194382 -9.60457e-27 0 -0.00125088 -0.00491738 -0.0109198 -0.0192214 -0.0296954 -0.0426761 -0.056154 -0.0649375 0.781457 -0.107405 -0.12954 -0.0397197 -0.213214 -0.189444 -0.206764 -0.224128 -0.240671 -0.255413 -0.268005 -0.278475 -0.287416 -0.29438 -0.298039 -0.301023 0.996751 -0.264711 -0.280936 -0.277871 -0.27006 -0.254955 -0.243946 -0.227074 -0.214528 -0.191235 -0.179229 -0.163038 -0.142323 -0.128774 -0.111862 -0.0912196 -0.0776465 -0.064302 -0.0505085 -0.0379559 -0.0268393 -0.0173138 -0.0100392 -0.0044948 -0.00115334 -1.25854e-26 0 -0.00152461 -0.00598596 -0.0132636 -0.0232937 -0.0358735 -0.0508947 -0.0684902 -0.0877622 -0.108466 -0.131383 -0.156495 -0.181733 -0.206131 -0.233003 -0.249995 -0.270182 -0.289812 -0.307906 -0.323705 -0.336767 -0.347345 -0.355051 -0.359566 -0.364051 -0.369118 -0.35575 -0.34956 -0.340649 -0.329633 -0.293304 -0.299202 -0.283992 -0.259817 -0.23398 -0.224344 -0.194251 -0.14934 -0.158804 -0.138259 -0.111434 -0.0958602 -0.0794664 -0.0623915 -0.0468346 -0.0330721 -0.0212749 -0.0123249 -0.00551954 -0.00140944 -1.53693e-26 0 -0.00177392 -0.00695042 -0.0153603 -0.0269722 -0.0416108 -0.0589899 -0.0793652 -0.101958 -0.126382 -0.153112 -0.18081 -0.208426 -0.2363 -0.263464 -0.289212 -0.313211 -0.335127 -0.35585 -0.374319 -0.38971 -0.402285 -0.411532 -0.417713 -0.420591 -0.420918 -0.41532 -0.4082 -0.39785 -0.384201 -0.360088 -0.35041 -0.330841 -0.275212 -0.286196 -0.260329 -0.233441 -0.211266 -0.186813 -0.161232 -0.127871 -0.1132 -0.0933915 -0.0732731 -0.0549505 -0.0387528 -0.0248045 -0.0143955 -0.00644501 -0.00164377 -1.7911e-26 0 -0.0019918 -0.00780996 -0.0172477 -0.030276 -0.0468932 -0.0664191 -0.0890229 -0.114426 -0.141902 -0.171683 -0.202181 -0.232661 -0.262917 -0.293061 -0.323252 -0.353831 -0.377406 -0.399723 -0.419393 -0.436512 -0.450898 -0.461884 -0.469486 -0.472307 -0.472073 -0.467008 -0.459438 -0.448507 -0.433549 -0.413402 -0.394572 -0.375321 -0.350489 -0.324307 -0.284752 -0.26812 -0.24085 -0.212747 -0.184477 -0.152409 -0.129627 -0.105906 -0.0829891 -0.0621718 -0.043794 -0.0278732 -0.0162437 -0.00727372 -0.00185144 -2.01694e-26 0 -0.00218764 -0.00859335 -0.0189707 -0.0331904 -0.0512335 -0.0725936 -0.0971444 -0.12484 -0.155441 -0.187355 -0.219871 -0.252842 -0.285829 -0.318628 -0.347684 -0.427972 -0.47303 -0.44235 -0.458581 -0.476745 -0.492609 -0.504996 -0.513703 -0.517031 -0.50847 -0.510511 -0.502279 -0.491486 -0.476203 -0.456847 -0.433656 -0.412467 -0.38517 -0.357343 -0.308543 -0.294636 -0.264584 -0.234553 -0.203092 -0.163872 -0.143914 -0.116793 -0.0913903 -0.0683975 -0.0481179 -0.0303417 -0.0178401 -0.00798979 -0.00203036 -2.21113e-26 0 -0.00237463 -0.00923795 -0.0203212 -0.0354801 -0.0545727 -0.0775498 -0.10399 -0.133921 -0.166634 -0.20023 -0.234739 -0.269821 -0.305113 -0.340238 -0.373909 -0.40657 -0.440733 -0.0925848 0.805637 1.14091 1.72598 1.85453 -0.553801 -0.555191 -0.553933 -0.551094 -0.5419 -0.525519 -0.506001 -0.488527 -0.464571 -0.4404 -0.413969 -0.385135 -0.351425 -0.321218 -0.287852 -0.25347 -0.205184 -0.174039 -0.155234 -0.125796 -0.0983459 -0.0735502 -0.0516718 -0.0314063 -0.0191668 -0.00858613 -0.00217776 -2.37052e-26 0 -0.0024927 -0.00969743 -0.0213025 -0.0371765 -0.0571979 -0.0812941 -0.109082 -0.140606 -0.174739 -0.209972 -0.24619 -0.282949 -0.319646 -0.356461 -0.391975 -0.425985 -0.457461 -0.485584 -0.521169 -0.535359 -0.553134 -0.567268 -0.577996 -0.581629 -0.581969 -0.578284 -0.569684 -0.557018 -0.539832 -0.502849 -0.494799 -0.467943 -0.437784 -0.405265 -0.372291 -0.339418 -0.301924 -0.267569 -0.22124 -0.193712 -0.163474 -0.132546 -0.103654 -0.0775241 -0.0544174 -0.0119358 -0.0201867 -0.00908479 -0.0022907 -2.49232e-26 0 -0.00255133 -0.00994193 -0.0219112 -0.0383392 -0.0590552 -0.0841166 -0.113183 -0.145689 -0.180423 -0.216525 -0.253727 -0.291579 -0.329624 -0.367449 -0.404183 -0.438941 -0.47241 -0.503346 -0.537536 -0.552321 -0.570813 -0.585432 -0.596864 -0.60119 -0.601708 -0.597974 -0.589079 -0.57615 -0.558891 -26.17 -0.499192 -0.479729 -0.453051 -0.413127 -0.388777 -0.352536 -0.316879 -0.261357 -0.207021 -0.203479 -0.169431 -0.137099 -0.107209 -0.0802173 -0.0563058 -0.0268934 -0.0208214 -0.00940667 -0.00236654 -2.57461e-26 0 -0.00255893 -0.0099414 -0.0221183 -0.039543 -0.0605427 -0.0855871 -0.115047 -0.147786 -0.182611 -0.218932 -0.256351 -0.294528 -0.33318 -0.371568 -0.408247 -0.443231 -0.483147 -0.508316 -0.534711 -0.560457 -0.579039 -0.593901 -0.604818 -0.610938 -0.611372 -0.607898 -0.599169 -0.586063 -0.568434 -0.496026 -0.520918 -0.493602 -0.462357 -0.428418 -0.393137 -0.359506 -0.321895 -0.283401 -0.236195 -0.207848 -0.173029 -0.139812 -0.109196 -0.0816639 -0.057319 -0.0302521 -0.0211591 -0.00955612 -0.00240492 -2.61619e-26 0 -0.00260993 -0.010192 -0.0224383 -0.0393757 -0.0605394 -0.0859476 -0.115575 -0.14818 -0.182724 -0.218841 -0.256165 -0.29439 -0.332345 -0.370374 -0.407184 -0.44097 -0.483804 -0.508654 -0.53496 -0.558624 -0.579123 -0.594058 -0.604919 -0.6105 -0.611693 -0.512628 -0.596588 -0.585389 -0.568622 -0.542233 -0.520287 -0.481714 -0.461564 -0.428458 -0.393202 -0.357614 -0.322305 -0.279021 -0.241236 -0.207675 -0.173049 -0.139879 -0.10922 -0.0816519 -0.0573552 0.0234425 -0.0213249 -0.00953754 -0.0024047 -2.61659e-26 0 -0.00257058 -0.00999111 -0.0219354 -0.0384116 -0.0595839 -0.0851264 -0.114183 -0.145913 -0.179618 -0.215016 -0.251658 -0.288864 -0.325629 -0.362732 -0.403898 -0.436192 -0.473867 -0.499914 -0.526036 -0.54955 -0.568926 -0.583902 -0.594932 -0.599852 -0.600362 -0.597046 -0.590103 -0.577465 -0.560889 -0.539876 -0.514188 -0.482942 -0.456885 -0.424819 -0.389674 -0.353289 -0.315013 -0.275207 -0.240653 -0.205226 -0.170819 -0.138125 -0.107837 -0.0805274 -0.0566139 -0.0369039 -0.0209601 -0.00938693 -0.00236819 -2.57572e-26 0 -0.0024819 -0.00965829 -0.0212627 -0.0372839 -0.0577972 -0.0828213 -0.110989 -0.141352 -0.173856 -0.208122 -0.243602 -0.279454 -0.315358 -0.351162 -0.390745 -0.422543 -0.452692 -0.481266 -0.513337 -0.532279 -0.550532 -0.565004 -0.575598 -0.581321 -0.582552 -0.579721 -0.569542 -0.558684 -0.542861 -0.523496 -0.499718 -0.47182 -0.442179 -0.410473 -0.376406 -0.339461 -0.306662 -0.26831 -0.233824 -0.199062 -0.165473 -0.133813 -0.104499 -0.0779352 -0.0548568 -0.0357365 -0.0202491 -0.00908771 -0.00229327 -2.49438e-26 0 -0.00239659 -0.00913061 -0.0203396 -0.0355