<?xml version="1.0"?>
<VTKFile type="PolyData">
	<PolyData>
		<Piece NumberOfPoints="2601" NumberOfPolys="2500">
			<Points>
				<DataArray type="Float32" NumberOfComponents="3" format="ascii">
 0 0 0 0.02 0 0 0.04 0 0 0.06 0 0 0.08 0 0 0.1 0 0 0.12 0 0 0.14 0 0 0.16 0 0 0.18 0 0 0.2 0 0 0.22 0 0 0.24 0 0 0.26 0 0 0.28 0 0 0.3 0 0 0.32 0 0 0.34 0 0 0.36 0 0 0.38 0 0 0.4 0 0 0.42 0 0 0.44 0 0 0.46 0 0 0.48 0 0 0.5 0 0 0.52 0 0 0.54 0 0 0.56 0 0 0.58 0 0 0.6 0 0 0.62 0 0 0.64 0 0 0.66 0 0 0.68 0 0 0.7 0 0 0.72 0 0 0.74 0 0 0.76 0 0 0.78 0 0 0.8 0 0 0.82 0 0 0.84 0 0 0.86 0 0 0.88 0 0 0.9 0 0 0.92 0 0 0.94 0 0 0.96 0 0 0.98 0 0 1 0 0 0 0.02 0 0.02 0.02 0 0.04 0.02 0 0.06 0.02 0 0.08 0.02 0 0.1 0.02 0 0.12 0.02 0 0.14 0.02 0 0.16 0.02 0 0.18 0.02 0 0.2 0.02 0 0.22 0.02 0 0.24 0.02 0 0.26 0.02 0 0.28 0.02 0 0.3 0.02 0 0.32 0.02 0 0.34 0.02 0 0.36 0.02 0 0.38 0.02 0 0.4 0.02 0 0.42 0.02 0 0.44 0.02 0 0.46 0.02 0 0.48 0.02 0 0.5 0.02 0 0.52 0.02 0 0.54 0.02 0 0.56 0.02 0 0.58 0.02 0 0.6 0.02 0 0.62 0.02 0 0.64 0.02 0 0.66 0.02 0 0.68 0.02 0 0.7 0.02 0 0.72 0.02 0 0.74 0.02 0 0.76 0.02 0 0.78 0.02 0 0.8 0.02 0 0.82 0.02 0 0.84 0.02 0 0.86 0.02 0 0.88 0.02 0 0.9 0.02 0 0.92 0.02 0 0.94 0.02 0 0.96 0.02 0 0.98 0.02 0 1 0.02 0 0 0.04 0 0.02 0.04 0 0.04 0.04 0 0.06 0.04 0 0.08 0.04 0 0.1 0.04 0 0.12 0.04 0 0.14 0.04 0 0.16 0.04 0 0.18 0.04 0 0.2 0.04 0 0.22 0.04 0 0.24 0.04 0 0.26 0.04 0 0.28 0.04 0 0.3 0.04 0 0.32 0.04 0 0.34 0.04 0 0.36 0.04 0 0.38 0.04 0 0.4 0.04 0 0.42 0.04 0 0.44 0.04 0 0.46 0.04 0 0.48 0.04 0 0.5 0.04 0 0.52 0.04 0 0.54 0.04 0 0.56 0.04 0 0.58 0.04 0 0.6 0.04 0 0.62 0.04 0 0.64 0.04 0 0.66 0.04 0 0.68 0.04 0 0.7 0.04 0 0.72 0.04 0 0.74 0.04 0 0.76 0.04 0 0.78 0.04 0 0.8 0.04 0 0.82 0.04 0 0.84 0.04 0 0.86 0.04 0 0.88 0.04 0 0.9 0.04 0 0.92 0.04 0 0.94 0.04 0 0.96 0.04 0 0.98 0.04 0 1 0.04 0 0 0.06 0 0.02 0.06 0 0.04 0.06 0 0.06 0.06 0 0.08 0.06 0 0.1 0.06 0 0.12 0.06 0 0.14 0.06 0 0.16 0.06 0 0.18 0.06 0 0.2 0.06 0 0.22 0.06 0 0.24 0.06 0 0.26 0.06 0 0.28 0.06 0 0.3 0.06 0 0.32 0.06 0 0.34 0.06 0 0.36 0.06 0 0.38 0.06 0 0.4 0.06 0 0.42 0.06 0 0.44 0.06 0 0.46 0.06 0 0.48 0.06 0 0.5 0.06 0 0.52 0.06 0 0.54 0.06 0 0.56 0.06 0 0.58 0.06 0 0.6 0.06 0 0.62 0.06 0 0.64 0.06 0 0.66 0.06 0 0.68 0.06 0 0.7 0.06 0 0.72 0.06 0 0.74 0.06 0 0.76 0.06 0 0.78 0.06 0 0.8 0.06 0 0.82 0.06 0 0.84 0.06 0 0.86 0.06 0 0.88 0.06 0 0.9 0.06 0 0.92 0.06 0 0.94 0.06 0 0.96 0.06 0 0.98 0.06 0 1 0.06 0 0 0.08 0 0.02 0.08 0 0.04 0.08 0 0.06 0.08 0 0.08 0.08 0 0.1 0.08 0 0.12 0.08 0 0.14 0.08 0 0.16 0.08 0 0.18 0.08 0 0.2 0.08 0 0.22 0.08 0 0.24 0.08 0 0.26 0.08 0 0.28 0.08 0 0.3 0.08 0 0.32 0.08 0 0.34 0.08 0 0.36 0.08 0 0.38 0.08 0 0.4 0.08 0 0.42 0.08 0 0.44 0.08 0 0.46 0.08 0 0.48 0.08 0 0.5 0.08 0 0.52 0.08 0 0.54 0.08 0 0.56 0.08 0 0.58 0.08 0 0.6 0.08 0 0.62 0.08 0 0.64 0.08 0 0.66 0.08 0 0.68 0.08 0 0.7 0.08 0 0.72 0.08 0 0.74 0.08 0 0.76 0.08 0 0.78 0.08 0 0.8 0.08 0 0.82 0.08 0 0.84 0.08 0 0.86 0.08 0 0.88 0.08 0 0.9 0.08 0 0.92 0.08 0 0.94 0.08 0 0.96 0.08 0 0.98 0.08 0 1 0.08 0 0 0.1 0 0.02 0.1 0 0.04 0.1 0 0.06 0.1 0 0.08 0.1 0 0.1 0.1 0 0.12 0.1 0 0.14 0.1 0 0.16 0.1 0 0.18 0.1 0 0.2 0.1 0 0.22 0.1 0 0.24 0.1 0 0.26 0.1 0 0.28 0.1 0 0.3 0.1 0 0.32 0.1 0 0.34 0.1 0 0.36 0.1 0 0.38 0.1 0 0.4 0.1 0 0.42 0.1 0 0.44 0.1 0 0.46 0.1 0 0.48 0.1 0 0.5 0.1 0 0.52 0.1 0 0.54 0.1 0 0.56 0.1 0 0.58 0.1 0 0.6 0.1 0 0.62 0.1 0 0.64 0.1 0 0.66 0.1 0 0.68 0.1 0 0.7 0.1 0 0.72 0.1 0 0.74 0.1 0 0.76 0.1 0 0.78 0.1 0 0.8 0.1 0 0.82 0.1 0 0.84 0.1 0 0.86 0.1 0 0.88 0.1 0 0.9 0.1 0 0.92 0.1 0 0.94 0.1 0 0.96 0.1 0 0.98 0.1 0 1 0.1 0 0 0.12 0 0.02 0.12 0 0.04 0.12 0 0.06 0.12 0 0.08 0.12 0 0.1 0.12 0 0.12 0.12 0 0.14 0.12 0 0.16 0.12 0 0.18 0.12 0 0.2 0.12 0 0.22 0.12 0 0.24 0.12 0 0.26 0.12 0 0.28 0.12 0 0.3 0.12 0 0.32 0.12 0 0.34 0.12 0 0.36 0.12 0 0.38 0.12 0 0.4 0.12 0 0.42 0.12 0 0.44 0.12 0 0.46 0.12 0 0.48 0.12 0 0.5 0.12 0 0.52 0.12 0 0.54 0.12 0 0.56 0.12 0 0.58 0.12 0 0.6 0.12 0 0.62 0.12 0 0.64 0.12 0 0.66 0.12 0 0.68 0.12 0 0.7 0.12 0 0.72 0.12 0 0.74 0.12 0 0.76 0.12 0 0.78 0.12 0 0.8 0.12 0 0.82 0.12 0 0.84 0.12 0 0.86 0.12 0 0.88 0.12 0 0.9 0.12 0 0.92 0.12 0 0.94 0.12 0 0.96 0.12 0 0.98 0.12 0 1 0.12 0 0 0.14 0 0.02 0.14 0 0.04 0.14 0 0.06 0.14 0 0.08 0.14 0 0.1 0.14 0 0.12 0.14 0 0.14 0.14 0 0.16 0.14 0 0.18 0.14 0 0.2 0.14 0 0.22 0.14 0 0.24 0.14 0 0.26 0.14 0 0.28 0.14 0 0.3 0.14 0 0.32 0.14 0 0.34 0.14 0 0.36 0.14 0 0.38 0.14 0 0.4 0.14 0 0.42 0.14 0 0.44 0.14 0 0.46 0.14 0 0.48 0.14 0 0.5 0.14 0 0.52 0.14 0 0.54 0.14 0 0.56 0.14 0 0.58 0.14 0 0.6 0.14 0 0.62 0.14 0 0.64 0.14 0 0.66 0.14 0 0.68 0.14 0 0.7 0.14 0 0.72 0.14 0 0.74 0.14 0 0.76 0.14 0 0.78 0.14 0 0.8 0.14 0 0.82 0.14 0 0.84 0.14 0 0.86 0.14 0 0.88 0.14 0 0.9 0.14 0 0.92 0.14 0 0.94 0.14 0 0.96 0.14 0 0.98 0.14 0 1 0.14 0 0 0.16 0 0.02 0.16 0 0.04 0.16 0 0.06 0.16 0 0.08 0.16 0 0.1 0.16 0 0.12 0.16 0 0.14 0.16 0 0.16 0.16 0 0.18 0.16 0 0.2 0.16 0 0.22 0.16 0 0.24 0.16 0 0.26 0.16 0 0.28 0.16 0 0.3 0.16 0 0.32 0.16 0 0.34 0.16 0 0.36 0.16 0 0.38 0.16 0 0.4 0.16 0 0.42 0.16 0 0.44 0.16 0 0.46 0.16 0 0.48 0.16 0 0.5 0.16 0 0.52 0.16 0 0.54 0.16 0 0.56 0.16 0 0.58 0.16 0 0.6 0.16 0 0.62 0.16 0 0.64 0.16 0 0.66 0.16 0 0.68 0.16 0 0.7 0.16 0 0.72 0.16 0 0.74 0.16 0 0.76 0.16 0 0.78 0.16 0 0.8 0.16 0 0.82 0.16 0 0.84 0.16 0 0.86 0.16 0 0.88 0.16 0 0.9 0.16 0 0.92 0.16 0 0.94 0.16 0 0.96 0.16 0 0.98 0.16 0 1 0.16 0 0 0.18 0 0.02 0.18 0 0.04 0.18 0 0.06 0.18 0 0.08 0.18 0 0.1 0.18 0 0.12 0.18 0 0.14 0.18 0 0.16 0.18 0 0.18 0.18 0 0.2 0.18 0 0.22 0.18 0 0.24 0.18 0 0.26 0.18 0 0.28 0.18 0 0.3 0.18 0 0.32 0.18 0 0.34 0.18 0 0.36 0.18 0 0.38 0.18 0 0.4 0.18 0 0.42 0.18 0 0.44 0.18 0 0.46 0.18 0 0.48 0.18 0 0.5 0.18 0 0.52 0.18 0 0.54 0.18 0 0.56 0.18 0 0.58 0.18 0 0.6 0.18 0 0.62 0.18 0 0.64 0.18 0 0.66 0.18 0 0.68 0.18 0 0.7 0.18 0 0.72 0.18 0 0.74 0.18 0 0.76 0.18 0 0.78 0.18 0 0.8 0.18 0 0.82 0.18 0 0.84 0.18 0 0.86 0.18 0 0.88 0.18 0 0.9 0.18 0 0.92 0.18 0 0.94 0.18 0 0.96 0.18 0 0.98 0.18 0 1 0.18 0 0 0.2 0 0.02 0.2 0 0.04 0.2 0 0.06 0.2 0 0.08 0.2 0 0.1 0.2 0 0.12 0.2 0 0.14 0.2 0 0.16 0.2 0 0.18 0.2 0 0.2 0.2 0 0.22 0.2 0 0.24 0.2 0 0.26 0.2 0 0.28 0.2 0 0.3 0.2 0 0.32 0.2 0 0.34 0.2 0 0.36 0.2 0 0.38 0.2 0 0.4 0.2 0 0.42 0.2 0 0.44 0.2 0 0.46 0.2 0 0.48 0.2 0 0.5 0.2 0 0.52 0.2 0 0.54 0.2 0 0.56 0.2 0 0.58 0.2 0 0.6 0.2 0 0.62 0.2 0 0.64 0.2 0 0.66 0.2 0 0.68 0.2 0 0.7 0.2 0 0.72 0.2 0 0.74 0.2 0 0.76 0.2 0 0.78 0.2 0 0.8 0.2 0 0.82 0.2 0 0.84 0.2 0 0.86 0.2 0 0.88 0.2 0 0.9 0.2 0 0.92 0.2 0 0.94 0.2 0 0.96 0.2 0 0.98 0.2 0 1 0.2 0 0 0.22 0 0.02 0.22 0 0.04 0.22 0 0.06 0.22 0 0.08 0.22 0 0.1 0.22 0 0.12 0.22 0 0.14 0.22 0 0.16 0.22 0 0.18 0.22 0 0.2 0.22 0 0.22 0.22 0 0.24 0.22 0 0.26 0.22 0 0.28 0.22 0 0.3 0.22 0 0.32 0.22 0 0.34 0.22 0 0.36 0.22 0 0.38 0.22 0 0.4 0.22 0 0.42 0.22 0 0.44 0.22 0 0.46 0.22 0 0.48 0.22 0 0.5 0.22 0 0.52 0.22 0 0.54 0.22 0 0.56 0.22 0 0.58 0.22 0 0.6 0.22 0 0.62 0.22 0 0.64 0.22 0 0.66 0.22 0 0.68 0.22 0 0.7 0.22 0 0.72 0.22 0 0.74 0.22 0 0.76 0.22 0 0.78 0.22 0 0.8 0.22 0 0.82 0.22 0 0.84 0.22 0 0.86 0.22 0 0.88 0.22 0 0.9 0.22 0 0.92 0.22 0 0.94 0.22 0 0.96 0.22 0 0.98 0.22 0 1 0.22 0 0 0.24 0 0.02 0.24 0 0.04 0.24 0 0.06 0.24 0 0.08 0.24 0 0.1 0.24 0 0.12 0.24 0 0.14 0.24 0 0.16 0.24 0 0.18 0.24 0 0.2 0.24 0 0.22 0.24 0 0.24 0.24 0 0.26 0.24 0 0.28 0.24 0 0.3 0.24 0 0.32 0.24 0 0.34 0.24 0 0.36 0.24 0 0.38 0.24 0 0.4 0.24 0 0.42 0.24 0 0.44 0.24 0 0.46 0.24 0 0.48 0.24 0 0.5 0.24 0 0.52 0.24 0 0.54 0.24 0 0.56 0.24 0 0.58 0.24 0 0.6 0.24 0 0.62 0.24 0 0.64 0.24 0 0.66 0.24 0 0.68 0.24 0 0.7 0.24 0 0.72 0.24 0 0.74 0.24 0 0.76 0.24 0 0.78 0.24 0 0.8 0.24 0 0.82 0.24 0 0.84 0.24 0 0.86 0.24 0 0.88 0.24 0 0.9 0.24 0 0.92 0.24 0 0.94 0.24 0 0.96 0.24 0 0.98 0.24 0 1 0.24 0 0 0.26 0 0.02 0.26 0 0.04 0.26 0 0.06 0.26 0 0.08 0.26 0 0.1 0.26 0 0.12 0.26 0 0.14 0.26 0 0.16 0.26 0 0.18 0.26 0 0.2 0.26 0 0.22 0.26 0 0.24 0.26 0 0.26 0.26 0 0.28 0.26 0 0.3 0.26 0 0.32 0.26 0 0.34 0.26 0 0.36 0.26 0 0.38 0.26 0 0.4 0.26 0 0.42 0.26 0 0.44 0.26 0 0.46 0.26 0 0.48 0.26 0 0.5 0.26 0 0.52 0.26 0 0.54 0.26 0 0.56 0.26 0 0.58 0.26 0 0.6 0.26 0 0.62 0.26 0 0.64 0.26 0 0.66 0.26 0 0.68 0.26 0 0.7 0.26 0 0.72 0.26 0 0.74 0.26 0 0.76 0.26 0 0.78 0.26 0 0.8 0.26 0 0.82 0.26 0 0.84 0.26 0 0.86 0.26 0 0.88 0.26 0 0.9 0.26 0 0.92 0.26 0 0.94 0.26 0 0.96 0.26 0 0.98 0.26 0 1 0.26 0 0 0.28 0 0.02 0.28 0 0.04 0.28 0 0.06 0.28 0 0.08 0.28 0 0.1 0.28 0 0.12 0.28 0 0.14 0.28 0 0.16 0.28 0 0.18 0.28 0 0.2 0.28 0 0.22 0.28 0 0.24 0.28 0 0.26 0.28 0 0.28 0.28 0 0.3 0.28 0 0.32 0.28 0 0.34 0.28 0 0.36 0.28 0 0.38 0.28 0 0.4 0.28 0 0.42 0.28 0 0.44 0.28 0 0.46 0.28 0 0.48 0.28 0 0.5 0.28 0 0.52 0.28 0 0.54 0.28 0 0.56 0.28 0 0.58 0.28 0 0.6 0.28 0 0.62 0.28 0 0.64 0.28 0 0.66 0.28 0 0.68 0.28 0 0.7 0.28 0 0.72 0.28 0 0.74 0.28 0 0.76 0.28 0 0.78 0.28 0 0.8 0.28 0 0.82 0.28 0 0.84 0.28 0 0.86 0.28 0 0.88 0.28 0 0.9 0.28 0 0.92 0.28 0 0.94 0.28 0 0.96 0.28 0 0.98 0.28 0 1 0.28 0 0 0.3 0 0.02 0.3 0 0.04 0.3 0 0.06 0.3 0 0.08 0.3 0 0.1 0.3 0 0.12 0.3 0 0.14 0.3 0 0.16 0.3 0 0.18 0.3 0 0.2 0.3 0 0.22 0.3 0 0.24 0.3 0 0.26 0.3 0 0.28 0.3 0 0.3 0.3 0 0.32 0.3 0 0.34 0.3 0 0.36 0.3 0 0.38 0.3 0 0.4 0.3 0 0.42 0.3 0 0.44 0.3 0 0.46 0.3 0 0.48 0.3 0 0.5 0.3 0 0.52 0.3 0 0.54 0.3 0 0.56 0.3 0 0.58 0.3 0 0.6 0.3 0 0.62 0.3 0 0.64 0.3 0 0.66 0.3 0 0.68 0.3 0 0.7 0.3 0 0.72 0.3 0 0.74 0.3 0 0.76 0.3 0 0.78 0.3 0 0.8 0.3 0 0.82 0.3 0 0.84 0.3 0 0.86 0.3 0 0.88 0.3 0 0.9 0.3 0 0.92 0.3 0 0.94 0.3 0 0.96 0.3 0 0.98 0.3 0 1 0.3 0 0 0.32 0 0.02 0.32 0 0.04 0.32 0 0.06 0.32 0 0.08 0.32 0 0.1 0.32 0 0.12 0.32 0 0.14 0.32 0 0.16 0.32 0 0.18 0.32 0 0.2 0.32 0 0.22 0.32 0 0.24 0.32 0 0.26 0.32 0 0.28 0.32 0 0.3 0.32 0 0.32 0.32 0 0.34 0.32 0 0.36 0.32 0 0.38 0.32 0 0.4 0.32 0 0.42 0.32 0 0.44 0.32 0 0.46 0.32 0 0.48 0.32 0 0.5 0.32 0 0.52 0.32 0 0.54 0.32 0 0.56 0.32 0 0.58 0.32 0 0.6 0.32 0 0.62 0.32 0 0.64 0.32 0 0.66 0.32 0 0.68 0.32 0 0.7 0.32 0 0.72 0.32 0 0.74 0.32 0 0.76 0.32 0 0.78 0.32 0 0.8 0.32 0 0.82 0.32 0 0.84 0.32 0 0.86 0.32 0 0.88 0.32 0 0.9 0.32 0 0.92 0.32 0 0.94 0.
[...]
			<PointData Scalars="VitesseX">
				<DataArray Name="VitesseX" type="Float32" format="ascii">
 0 0 0 0 0 0 0 0 0 0 0 0 0 0 0 0 0 0 0 0 0 0 0 0 0 0 0 0 0 0 0 0 0 0 0 0 0 0 0 0 0 0 0 0 0 0 0 0 0 0 -0 0 -0.000346934 -0.00133965 -0.00293083 -0.0051012 -0.0078186 -0.0110238 -0.0146403 -0.0186477 -0.0230345 -0.0277448 -0.0326894 -0.0376617 -0.0425277 -0.0472764 -0.0518764 -0.0562727 -0.0604094 -0.0642617 -0.0678517 -0.0711088 -0.0755615 -0.0649689 -0.0686824 -0.0765579 -0.0791854 -0.0800932 -0.0795868 -0.078296 -0.0762665 -0.0737808 -0.0706867 -0.0670733 -0.0631282 -0.0587426 -0.0532152 -0.0471495 -0.0433911 -0.0382741 -0.0332976 -0.0289604 -0.0240074 -0.01934 -0.0152713 -0.0113866 -0.00798962 -0.00493292 -0.00278364 -0.00227435 -0.000329021 -4.16923e-27 0 -0.00071905 -0.00258784 -0.00585671 -0.0105848 -0.0158229 -0.0225184 -0.0296544 -0.0372239 -0.0458095 -0.0551087 -0.0649274 -0.0748127 -0.0844661 -0.093881 -0.102994 -0.111701 -0.119909 -0.127504 -0.134352 -0.141242 -0.098627 -0.14144 -0.150723 -0.154336 -0.15587 -0.156167 -0.154537 -0.151635 -0.14758 -0.142574 -0.136579 -0.129795 -0.122266 -0.11358 -0.103449 -0.0916901 -0.0842855 -0.0743213 -0.0646493 -0.0553052 -0.045913 -0.0370893 -0.0289681 -0.0217058 -0.015288 -0.00959762 -0.0054452 -0.00409903 -0.000624502 -7.41791e-27 0 -0.00104046 -0.00396639 -0.00856435 -0.01468 -0.0220395 -0.0311958 -0.0442244 -0.0551826 -0.0677431 -0.0813878 -0.0959573 -0.110673 -0.129127 -0.13642 -0.151315 -0.166686 -0.179045 -0.190827 -0.197295 -0.201412 -0.210223 -0.219252 -0.225372 -0.229081 -0.230355 -0.229863 -0.227134 -0.222675 -0.216571 -0.208925 -0.200172 -0.191347 -0.179928 -0.165858 -0.151153 -0.137321 -0.123628 -0.109092 -0.0945482 -0.0805243 -0.0670705 -0.0542288 -0.0422102 -0.031657 -0.022279 -0.0206034 -0.00804509 -0.00600035 -0.000890882 -1.05524e-26 0 -0.00140306 -0.00523975 -0.0111883 -0.0191869 -0.0288348 -0.0408061 -0.0616496 -0.0779263 -0.0904332 -0.107053 -0.124885 -0.143259 -0.162077 -0.180169 -0.198231 -0.217059 -0.231722 -0.268621 0.571171 -0.258389 -0.28118 -0.290465 -0.296579 -0.300133 -0.301272 -0.300024 -0.296276 -0.290357 -0.282241 -0.271961 -0.261153 -0.253964 -0.237233 -0.215189 -0.194053 -0.185364 -0.163611 -0.142048 -0.122581 -0.104638 -0.0871532 -0.0705157 -0.0547941 -0.0411217 -0.0289316 -0.0262104 -0.0106531 -0.00476145 -0.00118575 -1.35236e-26 0 -0.00177831 -0.00578336 -0.016593 -0.0331473 -0.0369686 -0.0502057 -0.0643585 -0.0826519 -0.110298 -0.130652 -0.15292 -0.174801 -0.197459 -0.21965 -0.241935 -0.261546 -0.281694 -0.304096 -0.320562 -0.333682 -0.343324 -0.347758 -0.353261 -0.364192 -0.368321 -0.3656 -0.360922 -0.353748 -0.343284 -0.330661 -0.315959 -0.299569 -0.28143 -0.261409 -0.239253 -0.222135 -0.198514 -0.172872 -0.148225 -0.127119 -0.105867 -0.0857354 -0.0666969 -0.0499605 -0.0351176 -0.00944346 -0.018858 -0.00989008 -0.0014671 -1.62852e-26 0 -0.00189181 -0.00730412 -0.0159397 -0.0277121 -0.0427148 -0.0611774 -0.0825133 -0.104979 -0.128619 -0.153416 -0.179163 -0.205563 -0.232182 -0.258711 -0.28419 -0.30872 -0.331048 -0.352802 -0.37462 -0.387197 -0.399956 -0.414207 -0.422999 -0.427055 -0.427871 -0.425606 -0.420882 -0.412942 -0.401322 -0.386789 -0.369457 -0.349037 -0.325485 -0.303501 -0.276287 -0.257042 -0.229502 -0.222176 -0.172956 -0.14757 -0.122901 -0.0995935 -0.0770725 -0.0578787 -0.0407827 -0.0258576 -0.0213886 -0.0114077 -0.00172539 -1.87942e-26 0 -0.00212473 -0.00820434 -0.0179539 -0.031226 -0.0482202 -0.0695686 -0.0933649 -0.118035 -0.144049 -0.172127 -0.20204 -0.231801 -0.260587 -0.290361 -0.319578 -0.347387 -0.373838 -0.389965 -0.413424 -0.439852 -0.454489 -0.466572 -0.475789 -0.4807 -0.481747 -0.479407 -0.474296 -0.465949 -0.454068 -0.439009 -0.4214 -0.402145 -0.155888 -0.341507 -0.321182 -0.18433 -0.227073 -0.246347 -0.194754 -0.165515 -0.137818 -0.111253 -0.105139 -0.0648811 -0.0458352 -0.0295333 -0.0238669 -0.00774652 -0.00193756 -2.10112e-26 0 -0.00231475 -0.00897714 -0.0196801 -0.0342816 -0.0526802 -0.075061 -0.101455 -0.130199 -0.160041 -0.191012 -0.222967 -0.255539 -0.288184 -0.320511 -0.352186 -0.381922 -0.409908 -0.436207 -0.45964 -0.481124 -0.498622 -0.512102 -0.519055 -0.524397 -0.527866 -0.526306 -0.519265 -0.508484 -0.494067 -0.476532 -0.456287 -0.433906 -0.403738 -0.347462 -0.336831 -49.2991 -0.125653 3.84199 -0.211808 -0.180741 -0.150504 -0.121274 -0.144368 -0.0868543 -0.0500791 -0.0323908 -0.0277921 -0.0084392 -0.00210932 -2.29017e-26 0 -0.00249947 -0.00965359 -0.0210983 -0.036681 -0.0562757 -0.0801304 -0.108605 -0.1396 -0.171579 -0.20477 -0.239063 -0.274078 -0.308862 -0.343553 -0.377272 -0.409302 -0.439443 -0.467453 -0.494198 -0.507427 -0.523726 -0.546816 -0.558319 -0.56433 -0.56561 -0.562939 -0.555202 -0.543435 -0.52766 -0.508168 -0.485238 -0.459038 -0.429787 -0.398717 -0.366526 -0.330693 -0.174532 -0.0541838 -58.8931 -0.192709 -0.160857 -0.129724 -0.0956977 -0.0958591 -0.0535992 -0.0346735 -0.0160275 -0.0145638 -0.00224711 -2.4436e-26 0 -0.00264014 -0.0101747 -0.0222066 -0.0385582 -0.059095 -0.0839271 -0.11376 -0.146663 -0.180781 -0.216126 -0.251994 -0.288519 -0.325443 -0.359262 -0.395682 -0.430314 -0.462047 -0.48992 -0.516353 -0.541948 -0.561234 -0.576343 -0.587353 -0.593302 -0.594474 -0.591409 -0.583129 -0.57065 -0.553944 -0.53329 -0.509019 -0.481449 -0.4509 -0.418149 -0.383725 -0.347633 -0.310766 -0.274672 -46.573 -63.2121 -0.168176 -0.136381 -0.105768 -0.150975 -0.0562938 -0.0365192 -0.0205848 -0.0151745 -0.00235044 -2.55903e-26 0 -0.00275738 -0.0105471 -0.0229091 -0.0398036 -0.0607194 -0.0864891 -0.121196 -0.143772 -0.186162 -0.220792 -0.257382 -0.295939 -0.33365 -0.370502 -0.411407 -0.412373 -0.473026 -0.510068 -0.536335 -0.560386 -0.58037 -0.59588 -0.606979 -0.612877 -0.613978 -0.610701 -0.602057 -0.589106 -0.571789 -0.550394 -0.525257 -0.496781 -0.465419 -0.431681 -0.396084 -0.358914 -0.321062 -0.283177 -0.244918 -48.2321 -0.1736 -0.140945 -0.109821 -0.0780593 -0.0791376 -0.0377954 -0.0214149 -0.0156526 -0.00242529 -2.63464e-26 0 -0.00275253 -0.0106663 -0.0233744 -0.040682 -0.0623988 -0.0877526 -0.116746 -0.149017 -0.184111 -0.222272 -0.260402 -0.30041 -0.339047 -0.37742 -0.415599 -0.460293 -0.488664 -0.518411 -0.546252 -0.570568 -0.590645 -0.606169 -0.617203 -0.62283 -0.623771 -0.620043 -0.610948 -0.597526 -0.579739 -0.557874 -0.532291 -0.503299 -0.471411 -0.43714 -0.401 -0.36342 -0.325119 -0.286662 -0.248375 -0.210806 -47.0271 -0.1426 -0.111435 -0.0825876 -0.0240559 -0.0382425 -0.0217351 -0.0158084 -0.00244819 -2.66925e-26 0 -0.0027676 -0.0106882 -0.0233561 -0.040602 -0.0622121 -0.0877173 -0.116853 -0.149178 -0.183848 -0.221269 -0.25955 -0.299172 -0.3385 -0.377352 -0.422664 -0.454584 -0.487186 -0.518222 -0.546441 -0.570771 -0.59077 -0.606269 -0.617306 -0.62291 -0.623795 -0.620003 -0.610776 -0.597342 -0.579647 -0.557869 -0.532446 -0.503391 -0.471273 -0.437162 -0.401078 -0.363484 -0.325224 -0.286734 -0.248666 -0.211436 -0.175199 -0.142398 -0.111508 -0.083102 -0.0558941 -0.0382239 -0.0217429 -0.00974229 -0.0024479 -2.66229e-26 0 -0.00273679 -0.0105546 -0.0230488 -0.0400568 -0.0613417 -0.0865919 -0.11542 -0.147394 -0.181886 -0.218572 -0.25649 -0.29422 -0.336377 -0.389044 -0.414449 -0.44797 -0.481135 -0.512203 -0.539721 -0.563371 -0.583103 -0.598373 -0.608868 -0.614563 -0.615283 -0.60961 -0.59995 -0.580366 -0.568256 -0.547236 -0.523717 -0.493552 -0.45358 -0.427786 -0.393414 -0.356378 -0.318942 -0.281354 -0.244055 -0.207638 -0.17233 -0.137847 -0.109401 -0.0818284 -0.0573714 -0.0374618 -0.0213254 -0.00956122 -0.00240262 -2.61387e-26 0 -0.00265406 -0.010232 -0.0223469 -0.0388352 -0.059459 -0.0839063 -0.111817 -0.142789 -0.176222 -0.211915 -0.248547 -0.285486 -0.323782 -0.365899 -0.399925 -0.434046 -0.466767 -0.496674 -0.523095 -0.546364 -0.566592 -0.585459 -0.610547 -0.594056 -0.593978 -0.590423 -0.580804 -0.566973 -0.55 -0.529042 -0.504509 -0.473766 -0.44595 -0.414624 -0.380633 -0.342703 -0.306792 -0.271392 -0.235657 -0.200451 -0.166485 -0.133792 -0.0928517 -0.0792099 -0.0559042 -0.0361384 -0.0205856 -0.00923489 -0.00232104 -2.52471e-26 0 -0.00252321 -0.00972519 -0.0212597 -0.0369823 -0.0566581 -0.0800062 -0.106669 -0.136256 -0.168188 -0.202316 -0.237005 -0.272933 -0.318227 -0.347776 -0.381357 -0.414409 -0.445606 -0.473859 -0.499274 -0.522848 -0.558525 -0.556914 -0.569681 -0.56811 -0.565078 -0.561232 -0.552571 -0.538421 -0.516681 -0.501897 -0.478729 -0.448254 -0.423679 -0.393194 -0.360725 -0.321245 -0.279235 -0.254944 -0.223014 -0.189919 -0.157966 -0.12759 -0.0987087 -0.0751543 -0.0529731 -0.0339378 -0.0195258 -0.00876491 -0.00220387 -2.39618e-26 0 -0.00235905 -0.00909718 -0.019885 -0.034588 -0.0530134 -0.0748925 -0.0998856 -0.127662 -0.157636 -0.189284 -0.222244 -0.256481 -0.29322 -0.325103 -0.357247 -0.388344 -0.417236 -0.44359 -0.466873 -0.499884 -0.528978 -0.518545 -0.524879 -0.528219 -0.526677 -0.523269 -0.514926 -0.499316 -0.48498 -0.467016 -0.44548 -0.417405 -0.39266 -0.364254 -0.334081 -0.303588 -0.0736011 -0.199858 -0.20572 -0.176229 -0.146863 -0.118808 -0.0925433 0.114604 -0.049028 -0.0317397 -0.0181599 -0.00815941 -0.00205277 -2.23022e-26 0 -0.00217176 -0.00835586 -0.0182157 -0.0316389 -0.0484709 -0.0684547 -0.0912979 -0.116724 -0.146158 -0.1225 -0.277818 -0.264227 -0.267624 -0.29773 -0.327587 -0.356224 -0.382569 -0.406653 -0.428642 -0.44493 -0.459377 -0.471585 -0.480837 -0.484216 -0.480225 -0.476308 -0.468288 -0.452295 -0.442657 -0.424525 -0.404559 -0.37998 -0.356933 -0.331528 -0.30409 -0.276854 -0.00671929 -0.182775 -0.180628 -0.159589 -0.133229 -0.107905 -0.0842429 -0.0618794 -0.044716 -0.0289825 -0.0165086 -0.00743386 -0.0018699 -2.02938e-26 0 -0.00193099 -0.00742494 -0.0162063 -0.0281893 -0.0432194 -0.0610864 -0.081545 -0.102959 -0.137457 -0.183084 -0.192758 -0.217002 -0.239848 -0.266535 -0.293139 -0.318537 -0.342014 -0.363695 -0.386868 -0.396719 -0.411544 -0.425411 -0.428707 -0.42934 -0.428245 -0.423567 -0.415796 -0.405512 -0.390571 -0.375337 -0.357574 -0.337086 -0.316565 -0.29426 -0.269719 -0.244708 -0.218749 0.493855 -0.1344 -0.139667 -0.117397 -0.0953371 -0.0746152 -0.0558051 -0.0396327 -0.0256772 -0.0145984 -0.00659691 -0.00165791 -1.7968e-26 0 -0.00165809 -0.00639894 -0.0140049 -0.0244056 -0.0374649 -0.0529989 -0.0708646 -0.0906946 -0.114454 -0.141169 -0.163881 -0.185394 -0.207744 -0.231176 -0.254207 -0.275982 -0.296101 -0.314581 -38.9999 -0.353443 -0.365802 -0.361997 -0.36718 -0.369945 -0.367384 -0.363833 -0.35555 -0.347617 -0.334238 -0.321057 -0.305928 -0.28849 -0.269731 -0.248866 -0.195335 -0.2045 -0.188195 -0.128539 -0.112177 -0.114684 -0.0996781 -0.0810746 -0.0635478 -0.0476553 -0.0336956 -0.0218887 -0.0124589 -0.00565659 -0.00141993 -1.53624e-26 0 -0.00136117 -0.00526612 -0.0115429 -0.0201361 -0.0309386 -0.0437982 -0.0587022 -0.0750009 -0.095315 -0.115385 -0.134643 -0.152926 -0.172417 -0.19215 -0.211326 -0.22935 -0.246104 -0.261399 -0.274663 -0.300187 -0.30561 -0.308207 -0.303216 -0.310658 -0.300314 -0.297452 -0.287433 -0.275876 -0.2766 -0.261114 -0.248428 -0.232051 -0.204184 -0.200818 -0.180778 -0.161068 -0.147039 0.141691 -0.0917446 -0.0937891 -0.0804709 -0.06547 -0.0514214 -0.0385613 -0.026231 -0.0178109 -0.0101346 -0.00723018 -0.00115668 -1.25212e-26 0 -0.00103837 -0.0040542 -0.0089585 -0.0157241 -0.0242576 -0.0344552 -0.0461918 -0.0586229 -0.0747462 -0.0901565 -0.104506 -0.119247 -0.134764 -0.150285 -0.165234 -0.179212 -0.192083 -0.205565 -0.230139 -0.226119 -0.229864 -0.238484 -0.244107 -0.23156 -0.230882 -0.226732 -0.221628 -0.214574 -0.206695 -0.195906 -0.182292 -0.163385 -0.159615 -0.150881 -0.139199 -0.121633 -0.107912 -0.0953482 0.300515 0.28713 -0.0589184 -0.0488115 -0.0384717 -0.0288984 -0.0202886 -0.0134695 -0.00767181 -0.00542553 -0.000853804 -9.49374e-27 0 -0.000709987 -0.00280263 -0.0062399 -0.0109942 -0.0169761 -0.0241208 -0.0323019 -0.041193 -0.0535809 -0.064438 -0.0733592 -0.0843317 -0.0952254 -0.106186 -0.116658 -0.126287 -0.135384 -0.144007 -0.149671 -0.154134 -0.157789 -0.161319 -0.157577 -0.157546 -0.156086 -0.152785 -0.119456 -0.143559 -0.136891 -0.124932 -0.117778 -0.113581 -0.106571 -0.0861181 -0.082579 -0.076486 -0.0678453 -0.0605354 -0.0531433 -0.0282429 -0.0292582 -0.031442 -0.0248595 -0.0187579 -0.0133672 -0.00900186 -0.0051392 0.132134 -0.000518934 -6.33203e-27 0 -0.000376326 -0.00152612 -0.00345993 -0.00619257 -0.00972551 -0.0139968 -0.0189091 -0.024387 -0.0315376 -0.0380459 -0.0420693 -0.0480944 -0.0542355 -0.0605063 -0.066366 -0.071489 -0.0761978 -0.0809839 -0.428386 -0.0834151 -0.0843204 -0.084891 -0.083578 -0.0812776 -0.0796765 -0.0753977 -0.0545776 -0.0615532 -0.0607232 -0.059313 -0.0560199 -0.0512326 -0.0467626 -0.0301614 -0.0264296 -0.0290539 -0.0268237 -0.0230035 -0.0204582 -0.0178162 -0.0121257 -0.013597 -0.0108379 -0.00829891 -0.00599338 -0.00288908 -0.00177803 -0.000915109 -0.000241047 -3.08808e-27 0 -5.46771e-05 -0.000274218 -0.000704071 -0.00137099 -0.00228225 -0.00337728 -0.00458129 -0.00626728 -0.00899602 -0.0132563 -0.0121997 -0.0119207 -0.0126991 -0.0140511 -0.0151498 -0.0156989 -0.0159285 -0.0161656 -0.016841 -0.0124289 -0.0104567 -0.00915847 -0.0064199 -0.03443 -0.045305 0.00338608 0.00800151 0.0107865 0.0127873 0.0125361 0.0144776 0.0192097 0.017467 0.0240262 0.0221579 0.015252 0.0137822 0.0116957 0.00991045 0.0087331 0.00473853 0.00462938 0.00338034 0.00231278 0.00148079 0.000904753 0.000497231 0.000112513 2.16535e-05 1.58046e-28 0 0.000203939 0.000877289 0.00194456 0.00334769 0.00504272 0.0070146 0.00916304 0.0113073 0.0114207 0.0139948 0.016547 0.0222085 0.0286939 0.0325393 0.0362088 0.0401288 0.0443879 0.0484125 0.0517131 0.0511235 0.0613543 0.065392 0.0697774 0.0745435 0.0767805 0.0803244 0.0815054 0.0837689 0.0851549 0.0854764 0.0846747 0.0820559 0.0790871 0.0740262 0.0674482 0.0599637 0.0550664 0.0485908 0.0427503 0.0362657 0.0302853 0.0228732 0.0175694 0.0129126 0.00895812 0.00570033 0.00305875 0.00135827 0.000326307 3.45765e-27 0 -0.000501642 0.00164807 0.00431141 0.00782513 0.0121382 0.0172238 0.022986 0.0292469 0.0349706 0.0411584 0.0483017 0.0582683 0.069176 0.0784609 0.0869726 0.0952696 0.103783 0.111936 0.119496 0.127579 0.132752 0.137646 0.143201 0.150848 0.164698 0.164433 0.163078 0.160458 0.156177 0.15341 0.148405 0.141632 0.136501 0.125026 0.119774 0.109939 0.0937756 0.0849196 0.0735159 0.0616775 0.0509822 0.0406835 0.031492 0.023332 0.0163145 0.0105066 0.00691385 0.00260493 0.000630826 6.74171e-27 0 0.0018796 -0.00129426 0.00577823 0.0117403 0.018727 0.0269275 0.0361693 0.0466127 0.0581472 0.0658086 0.0773457 0.0933176 0.106537 0.122745 0.13642 0.149112 0.161355 0.173386 0.18469 0.195203 0.202473 0.186202 0.200823 0.228329 0.230475 0.23085 0.230285 0.229557 0.226282 0.219913 0.210945 0.218422 0.208929 0.186912 0.165295 0.149918 0.133544 0.119592 0.103121 0.0873432 0.0728107 0.0578481 0.0449311 0.033406 0.0234322 0.0151565 0.0084121 0.00378044 0.000927007 9.92984e-27 0 0.0021728 0.0095694 -0.000246605 0.0141926 0.0243543 0.0358121 0.0484094 0.0631922 0.075005 0.0905984 0.106646 0.127569 0.14784 0.163381 0.18288 0.20056 0.216689 0.231981 0.246613 0.26009 0.271422 0.280766 0.289624 0.28353 0.29849 0.301007 0.299078 0.29759 0.292415 0.307368 0.288448 0.266981 0.249645 0.235027 0.20976 0.18945 0.168904 0.150613 0.131349 0.111905 0.0933863 0.0741345 0.0576894 0.0429713 0.0301977 0.0196052 0.011062 0.0049834 0.00120987 1.29597e-26 0 0.00140699 0.00513553 0.0216027 0.00795626 0.0275887 0.0435183 0.0589778 0.0786713 -0.0287147 0.114274 0.135044 0.159404 0.183044 0.173763 0.222571 0.247734 0.268327 0.287031 0.304483 0.320515 0.334441 0.346314 0.355915 0.361889 0.366572 0.368248 0.365176 0.358542 0.357164 0.347328 0.332459 0.315567 0.297523 0.275548 0.252418 0.227584 0.203309 0.179957 0.164733 0.134742 0.11203 0.0892233 0.0695592 0.0518818 0.0365116 0.0237913 0.0135963 0.00613631 0.00148054 1.57829e-26 0 0.00164875 0.00635042 0.0202636 0.0475384 0.0104157 0.0500537 0.0649288 0.0929081 0.0918999 0.136672 0.161615 0.188348 0.2151 0.240871 0.255035 0.287877 0.314539 0.337047 0.357175 0.375715 0.391904 0.405398 0.415966 0.422887 0.426627 0.428678 0.423724 0.422112 0.412901 0.397519 0.381547 0.362393 0.343716 0.323506 0.294896 0.269746 0.241666 0.210737 0.178234 0.154615 0.129182 0.102938 0.0803655 0.0600149 0.0422885 0.0276875 0.0159535 0.00721436 0.00172675 1.83579e-26 0 0.00186431 0.00732503 0.0166029 0.0292581 0.0641367 0.0573177 -0.385413 0.105717 0.102656 0.156637 0.184826 0.214615 0.244181 0.27292 0.301352 0.31725 0.353505 0.380706 0.403686 0.424831 0.442974 0.457773 0.469008 0.476187 0.47984 0.480803 0.478073 0.47052 0.459312 0.444053 0.426077 0.405319 0.392201 0.359694 0.625063 0.298086 0.2666 0.2377 0.212977 0.172412 0.144299 0.115084 0.0899612 0.0672676 0.0474681 0.0315164 0.0182858 0.00783948 0.00200164 2.06509e-26 0 0.00205087 0.0081431 0.0182824 0.0321917 0.0494716 0.0669759 0.112946 0.117077 0.119382 0.173963 0.203697 0.236106 0.269305 0.301225 0.332468 0.362923 251.437 0.411852 0.442508 0.466842 0.486608 0.502429 0.514267 0.521691 0.524183 0.526138 0.523762 0.513092 0.500443 0.484877 0.46517 0.444491 0.445891 0.387847 0.359266 0.326344 0.289937 0.256057 0.223346 0.201514 -35.469 0.125646 0.098148 0.0735021 0.051953 0.0360553 0.0245176 0.00841115 0.00209275 2.26186e-26 0 0.0022085 0.00879999 0.0196344 0.0345641 0.0531471 0.0744922 0.0992421 0.127325 0.156646 0.18934 0.219929 0.255152 0.290355 0.324279 0.3581 0.391183 0.422338 0.450779 0.477529 0.493065 0.508704 0.526245 0.552759 0.562554 0.565695 0.564855 0.560457 0.548821 0.534717 0.519388 0.49897 0.477553 0.454234 0.412176 0.382231 0.357621 0.308313 0.271998 0.237429 0.206612 0.178627 0.134419 0.104857 0.0786301 0.0557952 0.054904 0.0504807 0.0089103 0.00224146 2.42314e-26 0 0.00232632 0.00925945 0.0206648 0.0363959 0.0560126 0.078853 0.105038 0.13474 0.165949 0.200342 0.234563 0.271252 0.307356 0.343137 0.378544 0.412753 0.445425 0.475322 0.503245 0.527127 -0.0216265 0.567973 0.581318 0.590237 0.594048 0.593748 0.591667 0.57896 0.564485 0.545958 0.523858 0.498764 0.468123 0.431201 0.397912 4.43736 0.325211 0.284805 0.2475 0.212436 0.177993 0.140976 0.109893 0.0824135 0.0590109 0.0392856 0.0215605 0.00948382 0.00235856 2.5454e-26 0 0.00240602 0.00957555 0.0213689 0.0376242 0.057878 0.0819089 0.109128 0.140023 0.172535 0.208193 0.243763 0.281689 0.319144 0.355872 0.392449 0.428014 0.461319 0.492899 0.521699 0.545411 0.55191 0.58686 0.600841 0.609917 0.61358 0.612816 0.610493 0.597668 0.582591 0.563179 0.539956 0.514293 0.492357 0.449569 0.470297 0.376878 0.351002 0.29266 0.254877 0.218852 0.180987 0.145227 0.113273 0.0847917 0.060251 0.0399997 0.0233198 0.00988826 0.00243444 2.62774e-26 0 0.00244811 0.00974329 0.0217489 0.0382564 0.0588066 0.0836885 0.111509 0.143143 0.176388 0.212875 0.249254 0.287001 0.325769 0.363689 0.400476 0.436914 0.471343 0.502868 0.53176 0.555087 0.578509 0.597833 0.611377 0.620269 0.622349 0.622495 0.617336 0.606259 0.591343 0.572241 0.549733 0.518351 0.486149 0.475634 0.414854 0.376456 0.339262 0.296063 0.257828 0.22085 0.181965 0.146811 0.114664 0.085877 0.0609683 0.0393383 0.0247248 0.00997458 0.00247079 2.66925e-26 0 0.0024482 0.00974325 0.0217511 0.0382612 0.0588217 0.0837614 0.111642 0.143299 0.176498 0.213156 0.249607 0.284412 0.325389 0.364214 0.401239 0.437315 0.471786 0.503295 0.345711 0.556289 0.580165 0.597826 0.610655 0.618428 0.623835 0.622684 0.617119 0.606374 0.590869 0.57087 0.548658 0.517251 0.485586 0.452983 0.413935 0.380436 0.483967 0.295834 0.259074 0.928361 0.181375 0.146761 0.114776 0.086054 0.061549 0.0388575 0.0225334 0.00985176 0.00247134 2.66893e-26 0 0.00241705 0.00963685 0.0214662 0.0377685 0.0580821 0.0831252 0.110812 0.142137 0.175124 0.21159 0.247646 0.275707 0.322314 0.36147 0.398027 0.43349 0.46746 0.498249 0.511787 0.551019 0.573036 0.588869 0.600816 0.610656 0.613906 0.612957 0.607157 0.595349 0.579566 0.557011 0.531432 0.506247 0.480443 0.923173 0.406902 0.375439 0.358338 0.291453 0.256055 0.223184 0.178194 0.14409 0.11276 0.0846423 0.063844 0.0381399 0.0216531 0.0103761 0.0025692 2.62669e-26 0 0.00234158 0.00931957 0.0207979 0.0365994 0.0562985 0.0806007 0.107493 0.137788 0.169451 0.205224 0.2400