<?xml version="1.0"?>
<VTKFile type="PolyData">
	<PolyData>
		<Piece NumberOfPoints="2601" NumberOfPolys="2500">
			<Points>
				<DataArray type="Float32" NumberOfComponents="3" format="ascii">
 0 0 0 0.02 0 0 0.04 0 0 0.06 0 0 0.08 0 0 0.1 0 0 0.12 0 0 0.14 0 0 0.16 0 0 0.18 0 0 0.2 0 0 0.22 0 0 0.24 0 0 0.26 0 0 0.28 0 0 0.3 0 0 0.32 0 0 0.34 0 0 0.36 0 0 0.38 0 0 0.4 0 0 0.42 0 0 0.44 0 0 0.46 0 0 0.48 0 0 0.5 0 0 0.52 0 0 0.54 0 0 0.56 0 0 0.58 0 0 0.6 0 0 0.62 0 0 0.64 0 0 0.66 0 0 0.68 0 0 0.7 0 0 0.72 0 0 0.74 0 0 0.76 0 0 0.78 0 0 0.8 0 0 0.82 0 0 0.84 0 0 0.86 0 0 0.88 0 0 0.9 0 0 0.92 0 0 0.94 0 0 0.96 0 0 0.98 0 0 1 0 0 0 0.02 0 0.02 0.02 0 0.04 0.02 0 0.06 0.02 0 0.08 0.02 0 0.1 0.02 0 0.12 0.02 0 0.14 0.02 0 0.16 0.02 0 0.18 0.02 0 0.2 0.02 0 0.22 0.02 0 0.24 0.02 0 0.26 0.02 0 0.28 0.02 0 0.3 0.02 0 0.32 0.02 0 0.34 0.02 0 0.36 0.02 0 0.38 0.02 0 0.4 0.02 0 0.42 0.02 0 0.44 0.02 0 0.46 0.02 0 0.48 0.02 0 0.5 0.02 0 0.52 0.02 0 0.54 0.02 0 0.56 0.02 0 0.58 0.02 0 0.6 0.02 0 0.62 0.02 0 0.64 0.02 0 0.66 0.02 0 0.68 0.02 0 0.7 0.02 0 0.72 0.02 0 0.74 0.02 0 0.76 0.02 0 0.78 0.02 0 0.8 0.02 0 0.82 0.02 0 0.84 0.02 0 0.86 0.02 0 0.88 0.02 0 0.9 0.02 0 0.92 0.02 0 0.94 0.02 0 0.96 0.02 0 0.98 0.02 0 1 0.02 0 0 0.04 0 0.02 0.04 0 0.04 0.04 0 0.06 0.04 0 0.08 0.04 0 0.1 0.04 0 0.12 0.04 0 0.14 0.04 0 0.16 0.04 0 0.18 0.04 0 0.2 0.04 0 0.22 0.04 0 0.24 0.04 0 0.26 0.04 0 0.28 0.04 0 0.3 0.04 0 0.32 0.04 0 0.34 0.04 0 0.36 0.04 0 0.38 0.04 0 0.4 0.04 0 0.42 0.04 0 0.44 0.04 0 0.46 0.04 0 0.48 0.04 0 0.5 0.04 0 0.52 0.04 0 0.54 0.04 0 0.56 0.04 0 0.58 0.04 0 0.6 0.04 0 0.62 0.04 0 0.64 0.04 0 0.66 0.04 0 0.68 0.04 0 0.7 0.04 0 0.72 0.04 0 0.74 0.04 0 0.76 0.04 0 0.78 0.04 0 0.8 0.04 0 0.82 0.04 0 0.84 0.04 0 0.86 0.04 0 0.88 0.04 0 0.9 0.04 0 0.92 0.04 0 0.94 0.04 0 0.96 0.04 0 0.98 0.04 0 1 0.04 0 0 0.06 0 0.02 0.06 0 0.04 0.06 0 0.06 0.06 0 0.08 0.06 0 0.1 0.06 0 0.12 0.06 0 0.14 0.06 0 0.16 0.06 0 0.18 0.06 0 0.2 0.06 0 0.22 0.06 0 0.24 0.06 0 0.26 0.06 0 0.28 0.06 0 0.3 0.06 0 0.32 0.06 0 0.34 0.06 0 0.36 0.06 0 0.38 0.06 0 0.4 0.06 0 0.42 0.06 0 0.44 0.06 0 0.46 0.06 0 0.48 0.06 0 0.5 0.06 0 0.52 0.06 0 0.54 0.06 0 0.56 0.06 0 0.58 0.06 0 0.6 0.06 0 0.62 0.06 0 0.64 0.06 0 0.66 0.06 0 0.68 0.06 0 0.7 0.06 0 0.72 0.06 0 0.74 0.06 0 0.76 0.06 0 0.78 0.06 0 0.8 0.06 0 0.82 0.06 0 0.84 0.06 0 0.86 0.06 0 0.88 0.06 0 0.9 0.06 0 0.92 0.06 0 0.94 0.06 0 0.96 0.06 0 0.98 0.06 0 1 0.06 0 0 0.08 0 0.02 0.08 0 0.04 0.08 0 0.06 0.08 0 0.08 0.08 0 0.1 0.08 0 0.12 0.08 0 0.14 0.08 0 0.16 0.08 0 0.18 0.08 0 0.2 0.08 0 0.22 0.08 0 0.24 0.08 0 0.26 0.08 0 0.28 0.08 0 0.3 0.08 0 0.32 0.08 0 0.34 0.08 0 0.36 0.08 0 0.38 0.08 0 0.4 0.08 0 0.42 0.08 0 0.44 0.08 0 0.46 0.08 0 0.48 0.08 0 0.5 0.08 0 0.52 0.08 0 0.54 0.08 0 0.56 0.08 0 0.58 0.08 0 0.6 0.08 0 0.62 0.08 0 0.64 0.08 0 0.66 0.08 0 0.68 0.08 0 0.7 0.08 0 0.72 0.08 0 0.74 0.08 0 0.76 0.08 0 0.78 0.08 0 0.8 0.08 0 0.82 0.08 0 0.84 0.08 0 0.86 0.08 0 0.88 0.08 0 0.9 0.08 0 0.92 0.08 0 0.94 0.08 0 0.96 0.08 0 0.98 0.08 0 1 0.08 0 0 0.1 0 0.02 0.1 0 0.04 0.1 0 0.06 0.1 0 0.08 0.1 0 0.1 0.1 0 0.12 0.1 0 0.14 0.1 0 0.16 0.1 0 0.18 0.1 0 0.2 0.1 0 0.22 0.1 0 0.24 0.1 0 0.26 0.1 0 0.28 0.1 0 0.3 0.1 0 0.32 0.1 0 0.34 0.1 0 0.36 0.1 0 0.38 0.1 0 0.4 0.1 0 0.42 0.1 0 0.44 0.1 0 0.46 0.1 0 0.48 0.1 0 0.5 0.1 0 0.52 0.1 0 0.54 0.1 0 0.56 0.1 0 0.58 0.1 0 0.6 0.1 0 0.62 0.1 0 0.64 0.1 0 0.66 0.1 0 0.68 0.1 0 0.7 0.1 0 0.72 0.1 0 0.74 0.1 0 0.76 0.1 0 0.78 0.1 0 0.8 0.1 0 0.82 0.1 0 0.84 0.1 0 0.86 0.1 0 0.88 0.1 0 0.9 0.1 0 0.92 0.1 0 0.94 0.1 0 0.96 0.1 0 0.98 0.1 0 1 0.1 0 0 0.12 0 0.02 0.12 0 0.04 0.12 0 0.06 0.12 0 0.08 0.12 0 0.1 0.12 0 0.12 0.12 0 0.14 0.12 0 0.16 0.12 0 0.18 0.12 0 0.2 0.12 0 0.22 0.12 0 0.24 0.12 0 0.26 0.12 0 0.28 0.12 0 0.3 0.12 0 0.32 0.12 0 0.34 0.12 0 0.36 0.12 0 0.38 0.12 0 0.4 0.12 0 0.42 0.12 0 0.44 0.12 0 0.46 0.12 0 0.48 0.12 0 0.5 0.12 0 0.52 0.12 0 0.54 0.12 0 0.56 0.12 0 0.58 0.12 0 0.6 0.12 0 0.62 0.12 0 0.64 0.12 0 0.66 0.12 0 0.68 0.12 0 0.7 0.12 0 0.72 0.12 0 0.74 0.12 0 0.76 0.12 0 0.78 0.12 0 0.8 0.12 0 0.82 0.12 0 0.84 0.12 0 0.86 0.12 0 0.88 0.12 0 0.9 0.12 0 0.92 0.12 0 0.94 0.12 0 0.96 0.12 0 0.98 0.12 0 1 0.12 0 0 0.14 0 0.02 0.14 0 0.04 0.14 0 0.06 0.14 0 0.08 0.14 0 0.1 0.14 0 0.12 0.14 0 0.14 0.14 0 0.16 0.14 0 0.18 0.14 0 0.2 0.14 0 0.22 0.14 0 0.24 0.14 0 0.26 0.14 0 0.28 0.14 0 0.3 0.14 0 0.32 0.14 0 0.34 0.14 0 0.36 0.14 0 0.38 0.14 0 0.4 0.14 0 0.42 0.14 0 0.44 0.14 0 0.46 0.14 0 0.48 0.14 0 0.5 0.14 0 0.52 0.14 0 0.54 0.14 0 0.56 0.14 0 0.58 0.14 0 0.6 0.14 0 0.62 0.14 0 0.64 0.14 0 0.66 0.14 0 0.68 0.14 0 0.7 0.14 0 0.72 0.14 0 0.74 0.14 0 0.76 0.14 0 0.78 0.14 0 0.8 0.14 0 0.82 0.14 0 0.84 0.14 0 0.86 0.14 0 0.88 0.14 0 0.9 0.14 0 0.92 0.14 0 0.94 0.14 0 0.96 0.14 0 0.98 0.14 0 1 0.14 0 0 0.16 0 0.02 0.16 0 0.04 0.16 0 0.06 0.16 0 0.08 0.16 0 0.1 0.16 0 0.12 0.16 0 0.14 0.16 0 0.16 0.16 0 0.18 0.16 0 0.2 0.16 0 0.22 0.16 0 0.24 0.16 0 0.26 0.16 0 0.28 0.16 0 0.3 0.16 0 0.32 0.16 0 0.34 0.16 0 0.36 0.16 0 0.38 0.16 0 0.4 0.16 0 0.42 0.16 0 0.44 0.16 0 0.46 0.16 0 0.48 0.16 0 0.5 0.16 0 0.52 0.16 0 0.54 0.16 0 0.56 0.16 0 0.58 0.16 0 0.6 0.16 0 0.62 0.16 0 0.64 0.16 0 0.66 0.16 0 0.68 0.16 0 0.7 0.16 0 0.72 0.16 0 0.74 0.16 0 0.76 0.16 0 0.78 0.16 0 0.8 0.16 0 0.82 0.16 0 0.84 0.16 0 0.86 0.16 0 0.88 0.16 0 0.9 0.16 0 0.92 0.16 0 0.94 0.16 0 0.96 0.16 0 0.98 0.16 0 1 0.16 0 0 0.18 0 0.02 0.18 0 0.04 0.18 0 0.06 0.18 0 0.08 0.18 0 0.1 0.18 0 0.12 0.18 0 0.14 0.18 0 0.16 0.18 0 0.18 0.18 0 0.2 0.18 0 0.22 0.18 0 0.24 0.18 0 0.26 0.18 0 0.28 0.18 0 0.3 0.18 0 0.32 0.18 0 0.34 0.18 0 0.36 0.18 0 0.38 0.18 0 0.4 0.18 0 0.42 0.18 0 0.44 0.18 0 0.46 0.18 0 0.48 0.18 0 0.5 0.18 0 0.52 0.18 0 0.54 0.18 0 0.56 0.18 0 0.58 0.18 0 0.6 0.18 0 0.62 0.18 0 0.64 0.18 0 0.66 0.18 0 0.68 0.18 0 0.7 0.18 0 0.72 0.18 0 0.74 0.18 0 0.76 0.18 0 0.78 0.18 0 0.8 0.18 0 0.82 0.18 0 0.84 0.18 0 0.86 0.18 0 0.88 0.18 0 0.9 0.18 0 0.92 0.18 0 0.94 0.18 0 0.96 0.18 0 0.98 0.18 0 1 0.18 0 0 0.2 0 0.02 0.2 0 0.04 0.2 0 0.06 0.2 0 0.08 0.2 0 0.1 0.2 0 0.12 0.2 0 0.14 0.2 0 0.16 0.2 0 0.18 0.2 0 0.2 0.2 0 0.22 0.2 0 0.24 0.2 0 0.26 0.2 0 0.28 0.2 0 0.3 0.2 0 0.32 0.2 0 0.34 0.2 0 0.36 0.2 0 0.38 0.2 0 0.4 0.2 0 0.42 0.2 0 0.44 0.2 0 0.46 0.2 0 0.48 0.2 0 0.5 0.2 0 0.52 0.2 0 0.54 0.2 0 0.56 0.2 0 0.58 0.2 0 0.6 0.2 0 0.62 0.2 0 0.64 0.2 0 0.66 0.2 0 0.68 0.2 0 0.7 0.2 0 0.72 0.2 0 0.74 0.2 0 0.76 0.2 0 0.78 0.2 0 0.8 0.2 0 0.82 0.2 0 0.84 0.2 0 0.86 0.2 0 0.88 0.2 0 0.9 0.2 0 0.92 0.2 0 0.94 0.2 0 0.96 0.2 0 0.98 0.2 0 1 0.2 0 0 0.22 0 0.02 0.22 0 0.04 0.22 0 0.06 0.22 0 0.08 0.22 0 0.1 0.22 0 0.12 0.22 0 0.14 0.22 0 0.16 0.22 0 0.18 0.22 0 0.2 0.22 0 0.22 0.22 0 0.24 0.22 0 0.26 0.22 0 0.28 0.22 0 0.3 0.22 0 0.32 0.22 0 0.34 0.22 0 0.36 0.22 0 0.38 0.22 0 0.4 0.22 0 0.42 0.22 0 0.44 0.22 0 0.46 0.22 0 0.48 0.22 0 0.5 0.22 0 0.52 0.22 0 0.54 0.22 0 0.56 0.22 0 0.58 0.22 0 0.6 0.22 0 0.62 0.22 0 0.64 0.22 0 0.66 0.22 0 0.68 0.22 0 0.7 0.22 0 0.72 0.22 0 0.74 0.22 0 0.76 0.22 0 0.78 0.22 0 0.8 0.22 0 0.82 0.22 0 0.84 0.22 0 0.86 0.22 0 0.88 0.22 0 0.9 0.22 0 0.92 0.22 0 0.94 0.22 0 0.96 0.22 0 0.98 0.22 0 1 0.22 0 0 0.24 0 0.02 0.24 0 0.04 0.24 0 0.06 0.24 0 0.08 0.24 0 0.1 0.24 0 0.12 0.24 0 0.14 0.24 0 0.16 0.24 0 0.18 0.24 0 0.2 0.24 0 0.22 0.24 0 0.24 0.24 0 0.26 0.24 0 0.28 0.24 0 0.3 0.24 0 0.32 0.24 0 0.34 0.24 0 0.36 0.24 0 0.38 0.24 0 0.4 0.24 0 0.42 0.24 0 0.44 0.24 0 0.46 0.24 0 0.48 0.24 0 0.5 0.24 0 0.52 0.24 0 0.54 0.24 0 0.56 0.24 0 0.58 0.24 0 0.6 0.24 0 0.62 0.24 0 0.64 0.24 0 0.66 0.24 0 0.68 0.24 0 0.7 0.24 0 0.72 0.24 0 0.74 0.24 0 0.76 0.24 0 0.78 0.24 0 0.8 0.24 0 0.82 0.24 0 0.84 0.24 0 0.86 0.24 0 0.88 0.24 0 0.9 0.24 0 0.92 0.24 0 0.94 0.24 0 0.96 0.24 0 0.98 0.24 0 1 0.24 0 0 0.26 0 0.02 0.26 0 0.04 0.26 0 0.06 0.26 0 0.08 0.26 0 0.1 0.26 0 0.12 0.26 0 0.14 0.26 0 0.16 0.26 0 0.18 0.26 0 0.2 0.26 0 0.22 0.26 0 0.24 0.26 0 0.26 0.26 0 0.28 0.26 0 0.3 0.26 0 0.32 0.26 0 0.34 0.26 0 0.36 0.26 0 0.38 0.26 0 0.4 0.26 0 0.42 0.26 0 0.44 0.26 0 0.46 0.26 0 0.48 0.26 0 0.5 0.26 0 0.52 0.26 0 0.54 0.26 0 0.56 0.26 0 0.58 0.26 0 0.6 0.26 0 0.62 0.26 0 0.64 0.26 0 0.66 0.26 0 0.68 0.26 0 0.7 0.26 0 0.72 0.26 0 0.74 0.26 0 0.76 0.26 0 0.78 0.26 0 0.8 0.26 0 0.82 0.26 0 0.84 0.26 0 0.86 0.26 0 0.88 0.26 0 0.9 0.26 0 0.92 0.26 0 0.94 0.26 0 0.96 0.26 0 0.98 0.26 0 1 0.26 0 0 0.28 0 0.02 0.28 0 0.04 0.28 0 0.06 0.28 0 0.08 0.28 0 0.1 0.28 0 0.12 0.28 0 0.14 0.28 0 0.16 0.28 0 0.18 0.28 0 0.2 0.28 0 0.22 0.28 0 0.24 0.28 0 0.26 0.28 0 0.28 0.28 0 0.3 0.28 0 0.32 0.28 0 0.34 0.28 0 0.36 0.28 0 0.38 0.28 0 0.4 0.28 0 0.42 0.28 0 0.44 0.28 0 0.46 0.28 0 0.48 0.28 0 0.5 0.28 0 0.52 0.28 0 0.54 0.28 0 0.56 0.28 0 0.58 0.28 0 0.6 0.28 0 0.62 0.28 0 0.64 0.28 0 0.66 0.28 0 0.68 0.28 0 0.7 0.28 0 0.72 0.28 0 0.74 0.28 0 0.76 0.28 0 0.78 0.28 0 0.8 0.28 0 0.82 0.28 0 0.84 0.28 0 0.86 0.28 0 0.88 0.28 0 0.9 0.28 0 0.92 0.28 0 0.94 0.28 0 0.96 0.28 0 0.98 0.28 0 1 0.28 0 0 0.3 0 0.02 0.3 0 0.04 0.3 0 0.06 0.3 0 0.08 0.3 0 0.1 0.3 0 0.12 0.3 0 0.14 0.3 0 0.16 0.3 0 0.18 0.3 0 0.2 0.3 0 0.22 0.3 0 0.24 0.3 0 0.26 0.3 0 0.28 0.3 0 0.3 0.3 0 0.32 0.3 0 0.34 0.3 0 0.36 0.3 0 0.38 0.3 0 0.4 0.3 0 0.42 0.3 0 0.44 0.3 0 0.46 0.3 0 0.48 0.3 0 0.5 0.3 0 0.52 0.3 0 0.54 0.3 0 0.56 0.3 0 0.58 0.3 0 0.6 0.3 0 0.62 0.3 0 0.64 0.3 0 0.66 0.3 0 0.68 0.3 0 0.7 0.3 0 0.72 0.3 0 0.74 0.3 0 0.76 0.3 0 0.78 0.3 0 0.8 0.3 0 0.82 0.3 0 0.84 0.3 0 0.86 0.3 0 0.88 0.3 0 0.9 0.3 0 0.92 0.3 0 0.94 0.3 0 0.96 0.3 0 0.98 0.3 0 1 0.3 0 0 0.32 0 0.02 0.32 0 0.04 0.32 0 0.06 0.32 0 0.08 0.32 0 0.1 0.32 0 0.12 0.32 0 0.14 0.32 0 0.16 0.32 0 0.18 0.32 0 0.2 0.32 0 0.22 0.32 0 0.24 0.32 0 0.26 0.32 0 0.28 0.32 0 0.3 0.32 0 0.32 0.32 0 0.34 0.32 0 0.36 0.32 0 0.38 0.32 0 0.4 0.32 0 0.42 0.32 0 0.44 0.32 0 0.46 0.32 0 0.48 0.32 0 0.5 0.32 0 0.52 0.32 0 0.54 0.32 0 0.56 0.32 0 0.58 0.32 0 0.6 0.32 0 0.62 0.32 0 0.64 0.32 0 0.66 0.32 0 0.68 0.32 0 0.7 0.32 0 0.72 0.32 0 0.74 0.32 0 0.76 0.32 0 0.78 0.32 0 0.8 0.32 0 0.82 0.32 0 0.84 0.32 0 0.86 0.32 0 0.88 0.32 0 0.9 0.32 0 0.92 0.32 0 0.94 0.
[...]
			<PointData Scalars="VitesseX">
				<DataArray Name="VitesseX" type="Float32" format="ascii">
 -0 -0 -0 -0 -0 -0 -0 -0 -0 -0 -0 -0 -0 -0 -0 -0 -0 -0 -0 -0 -0 -0 -0 -0 -0 -0 -0 -0 -0 -0 -0 -0 -0 -0 -0 -0 -0 -0 -0 -0 -0 -0 -0 -0 -0 -0 -0 -0 -0 -0 -0 -0 -0.000475592 -0.00189487 -0.00423545 -0.00746042 -0.0115189 -0.0163469 -0.0218683 -0.0279961 -0.0346334 -0.0416758 -0.0490121 -0.0565267 -0.0641009 -0.0716155 -0.0789518 -0.0859942 -0.0926316 -0.0987593 -0.104281 -0.109109 -0.113167 -0.116392 -0.118733 -0.120152 -0.120628 -0.120152 -0.118733 -0.116392 -0.113167 -0.109109 -0.104281 -0.0987593 -0.0926316 -0.0859942 -0.0789518 -0.0716155 -0.0641009 -0.0565267 -0.0490121 -0.0416758 -0.0346334 -0.0279961 -0.0218683 -0.0163469 -0.0115189 -0.00746042 -0.00423545 -0.00189487 -0.000475592 -5.15994e-27 -0 -0.000943684 -0.00375986 -0.0084041 -0.0148032 -0.0228562 -0.0324361 -0.0433918 -0.0555506 -0.0687207 -0.0826944 -0.0972513 -0.112162 -0.127191 -0.142102 -0.156658 -0.170632 -0.183802 -0.195961 -0.206917 -0.216497 -0.22455 -0.230949 -0.235593 -0.238409 -0.239353 -0.238409 -0.235593 -0.230949 -0.22455 -0.216497 -0.206917 -0.195961 -0.183802 -0.170632 -0.156658 -0.142102 -0.127191 -0.112162 -0.0972513 -0.0826944 -0.0687207 -0.0555506 -0.0433918 -0.0324361 -0.0228562 -0.0148032 -0.0084041 -0.00375986 -0.000943684 -1.02385e-26 -0 -0.00139689 -0.00556555 -0.0124402 -0.0219125 -0.033833 -0.0480137 -0.064231 -0.0822291 -0.101724 -0.122409 -0.143957 -0.166028 -0.188275 -0.210347 -0.231895 -0.252579 -0.272074 -0.290072 -0.30629 -0.32047 -0.332391 -0.341863 -0.348738 -0.352907 -0.354303 -0.352907 -0.348738 -0.341863 -0.332391 -0.32047 -0.30629 -0.290072 -0.272074 -0.252579 -0.231895 -0.210347 -0.188275 -0.166028 -0.143957 -0.122409 -0.101724 -0.0822291 -0.064231 -0.0480137 -0.033833 -0.0219125 -0.0124402 -0.00556555 -0.00139689 -1.51556e-26 -0 -0.00182807 -0.00728347 -0.0162801 -0.0286762 -0.0442762 -0.0628341 -0.0840571 -0.107611 -0.133123 -0.160193 -0.188392 -0.217276 -0.24639 -0.275274 -0.303474 -0.330543 -0.356056 -0.379609 -0.400832 -0.41939 -0.43499 -0.447386 -0.456383 -0.461838 -0.463666 -0.461838 -0.456383 -0.447386 -0.43499 -0.41939 -0.400832 -0.379609 -0.356056 -0.330543 -0.303474 -0.275274 -0.24639 -0.217276 -0.188392 -0.160193 -0.133123 -0.107611 -0.0840571 -0.0628341 -0.0442762 -0.0286762 -0.0162801 -0.00728347 -0.00182807 -1.98337e-26 -0 -0.00223042 -0.00888652 -0.0198633 -0.0349877 -0.0540212 -0.0766635 -0.102558 -0.131295 -0.162423 -0.19545 -0.229856 -0.265098 -0.300619 -0.335861 -0.370267 -0.403294 -0.434422 -0.463159 -0.489053 -0.511696 -0.530729 -0.545854 -0.55683 -0.563487 -0.565717 -0.563487 -0.55683 -0.545854 -0.530729 -0.511696 -0.489053 -0.463159 -0.434422 -0.403294 -0.370267 -0.335861 -0.300619 -0.265098 -0.229856 -0.19545 -0.162423 -0.131295 -0.102558 -0.0766635 -0.0540212 -0.0349877 -0.0198633 -0.00888652 -0.00223042 -2.4199e-26 -0 -0.0025976 -0.0103494 -0.0231332 -0.0407474 -0.0629142 -0.089284 -0.119441 -0.152909 -0.189161 -0.227626 -0.267695 -0.308738 -0.350108 -0.391151 -0.43122 -0.469684 -0.505937 -0.539405 -0.569562 -0.595932 -0.618099 -0.635713 -0.648497 -0.656248 -0.658846 -0.656248 -0.648497 -0.635713 -0.618099 -0.595932 -0.569562 -0.539405 -0.505937 -0.469684 -0.43122 -0.391151 -0.350108 -0.308738 -0.267695 -0.227626 -0.189161 -0.152909 -0.119441 -0.089284 -0.0629142 -0.0407474 -0.0231332 -0.0103494 -0.0025976 -2.81827e-26 -0 -0.00292381 -0.0116491 -0.0260383 -0.0458645 -0.070815 -0.100496 -0.13444 -0.172112 -0.212917 -0.256211 -0.301313 -0.34751 -0.394074 -0.440272 -0.485373 -0.528668 -0.569473 -0.607144 -0.641088 -0.670769 -0.69572 -0.715546 -0.729935 -nan -nan -0.771758 -0.758703 -0.74027 -0.7168 -0.688743 -0.656566 -0.620766 -0.581765 -0.540187 -0.496161 -0.451654 -0.405905 -0.358627 -0.311367 -nan -nan -0.172112 -0.13444 -0.100496 -0.070815 -0.0458645 -0.0260383 -0.0116491 -0.00292381 -3.17219e-26 -0 -0.00320391 -0.0127651 -0.0285328 -0.0502583 -0.0775991 -0.110124 -0.14732 -0.1886 -0.233314 -0.280756 -0.330178 -0.380801 -0.431827 -0.48245 -0.531872 -0.579314 -0.624028 -0.665308 -0.702504 -0.735029 -0.76237 -0.784095 -0.799863 -nan -nan -0.827044 -0.813843 -0.794696 -0.769925 -0.740058 -0.705637 -0.667224 -0.625353 -0.580693 -0.533296 -0.485524 -0.436316 -0.38558 -0.334911 -nan -nan -0.1886 -0.14732 -0.110124 -0.0775991 -0.0502583 -0.0285328 -0.0127651 -0.00320391 -3.47608e-26 -0 -0.00343348 -0.0136798 -0.0305773 -0.0538595 -0.0831593 -0.118015 -0.157876 -0.202114 -0.250032 -0.300873 -0.353837 -0.408087 -0.462769 -0.517019 -0.569982 -0.620824 -0.668742 -0.71298 -0.752841 -0.787696 -0.816996 -0.840278 -nan -nan -0.87921 -0.875562 -0.861765 -0.841589 -0.81537 -0.783692 -0.747148 -0.706367 -0.661927 -0.614585 -0.564273 -0.513753 -0.461567 -0.407996 -0.354568 -nan -nan -0.202114 -0.157876 -0.118015 -0.0831593 -0.0538595 -0.0305773 -0.0136798 -0.00343348 -3.72515e-26 -0 -0.0036089 -0.0143787 -0.0321395 -0.0566113 -0.0874081 -0.124044 -0.165942 -0.21244 -0.262806 -0.316245 -0.371915 -0.428937 -0.486412 -0.543434 -0.599104 -0.652543 -0.702909 -0.749407 -0.791305 -0.827941 -0.858738 -nan -nan -0.920223 -0.919089 -0.914115 -0.899205 -0.8778 -0.850159 -0.816856 -0.778505 -0.73578 -0.689274 -0.639813 -0.587255 -0.534635 -0.480137 -0.424546 -0.369163 -0.311889 -0.212103 -nan -nan -0.124044 -0.0874081 -0.0566113 -0.0321395 -0.0143787 -0.0036089 -3.91548e-26 -0 -0.00372741 -0.0148509 -0.0331949 -0.0584703 -0.0902784 -0.128118 -0.171391 -0.219416 -0.271436 -0.32663 -0.384128 -0.443022 -0.502385 -0.56128 -0.618777 -0.673971 -0.725991 -0.774016 -0.81729 -0.855129 -0.886937 -nan -nan -0.949364 -0.948126 -0.942212 -0.926597 -0.904309 -0.875605 -0.841071 -0.801349 -0.757149 -0.709078 -0.657999 -0.603834 -0.549616 -0.493275 -0.436422 -0.379788 -0.321227 -0.242148 -nan -nan -0.128118 -0.0902784 -0.0584703 -0.0331949 -0.0148509 -0.00372741 -4.04406e-26 -0 -0.00378714 -0.0150888 -0.0337268 -0.0594072 -0.0917249 -0.13017 -0.174137 -0.222932 -0.275786 -0.331864 -0.390283 -0.450121 -0.510435 -0.570273 -0.628692 -0.68477 -0.737624 -0.786419 -0.830386 -0.868831 -0.901149 -nan -nan -0.962928 -0.960853 -0.952309 -0.935513 -0.912115 -0.882388 -0.846868 -0.806178 -0.761093 -0.712286 -0.660644 -0.606086 -0.551376 -0.494178 -0.437527 -0.381084 -0.322706 -0.253379 -nan -nan -0.13017 -0.0917249 -0.0594072 -0.0337268 -0.0150888 -0.00378714 -4.10886e-26 -0 -0.00378714 -0.0150888 -0.0337268 -0.0594072 -0.0917249 -0.13017 -0.174137 -0.222932 -0.275786 -0.331864 -0.390283 -0.450121 -0.510435 -0.570273 -0.628692 -0.68477 -0.737624 -0.786419 -0.830386 -0.868831 -0.901149 -nan -nan -0.962892 -0.960847 -0.952225 -0.935313 -0.911766 -0.881862 -0.846148 -0.805231 -0.759857 -0.710806 -0.658949 -0.604431 -0.549605 -0.491708 -0.435813 -0.379997 -0.322752 -0.263842 -0.249132 -0.171422 -0.127607 -0.0904492 -0.0585964 -0.0333661 -0.0149688 -0.00376442 -4.05289e-26 -0 -0.00372741 -0.0148509 -0.0331949 -0.0584703 -0.0902784 -0.128118 -0.171391 -0.219416 -0.271436 -0.32663 -0.384128 -0.443022 -0.502385 -0.56128 -0.618777 -0.673971 -0.725991 -0.774016 -0.81729 -0.855129 -0.886937 -nan -nan -0.94721 -0.944944 -0.935464 -0.917727 -0.893877 -0.863874 -0.829037 -0.787539 -0.743382 -0.694851 -0.643521 -0.590093 -0.536009 -0.479105 -0.425056 -0.370812 -0.315635 -0.261238 -0.212951 -0.167322 -0.124553 -0.0882897 -0.0572227 -0.0325915 -0.0146222 -0.00367755 -3.94163e-26 -0 -0.0036089 -0.0143787 -0.0321395 -0.0566113 -0.0874081 -0.124044 -0.165942 -0.21244 -0.262806 -0.316245 -0.371915 -0.428937 -0.486412 -0.543434 -0.599104 -0.652543 -0.702909 -0.749407 -0.791305 -0.827941 -0.858738 -nan -nan -0.916881 -0.914655 -0.905235 -0.887443 -0.863723 -0.834053 -0.800807 -0.760726 -0.717457 -0.670084 -0.620162 -0.568339 -0.516019 -0.461497 -0.409962 -0.356849 -0.303626 -0.252577 -0.204689 -0.160846 -0.119897 -0.0850164 -0.0550687 -0.0313705 -0.0140558 -0.00353567 -3.7693e-26 -0 -0.00343348 -0.0136798 -0.0305773 -0.0538595 -0.0831593 -0.118015 -0.157876 -0.202114 -0.250032 -0.300873 -0.353837 -0.408087 -0.462769 -0.517019 -0.569982 -0.620824 -0.668742 -0.71298 -0.752841 -0.787696 -0.816996 -nan -nan -0.872031 -0.869843 -0.860305 -0.843856 -0.820245 -0.791568 -0.759317 -0.722095 -0.679607 -0.634479 -0.586338 -0.536119 -0.486384 -0.435553 -0.386973 -0.336634 -0.286831 -0.239143 -0.193395 -0.15189 -0.113974 -0.0807477 -0.0522057 -0.0297371 -0.0132773 -0.00334059 -3.53904e-26 -0 -0.00320391 -0.0127651 -0.0285328 -0.0502583 -0.0775991 -0.110124 -0.14732 -0.1886 -0.233314 -0.280756 -0.330178 -0.380801 -0.431827 -0.48245 -0.531872 -0.579314 -0.624028 -0.665308 -0.702504 -0.735029 -0.76237 -nan -nan -0.813618 -0.811674 -0.802803 -0.789411 -0.749835 -0.72553 -0.702011 -0.669906 -0.631009 -0.585727 -0.536841 -0.498301 -0.450025 -0.403017 -0.357664 -0.310812 -0.265021 -0.221136 -0.17955 -0.141205 -0.106794 -0.0756023 -0.0487432 -0.027756 -0.0122953 -0.00309439 -3.25508e-26 -0 -0.00292381 -0.0116491 -0.0260383 -0.0458645 -0.070815 -0.100496 -0.13444 -0.172112 -0.212917 -0.256211 -0.301313 -0.34751 -0.394074 -0.440272 -0.485373 -0.528668 -0.569473 -0.607144 -0.641088 -0.670769 -0.69572 -nan -nan -0.742461 -0.740269 -0.733449 -0.710556 -0.690307 -0.671493 -0.643937 -0.611897 -0.576406 -0.53806 -0.496177 -0.446582 -0.384304 -0.365096 -0.323351 -0.280944 -0.239298 -0.199225 -0.16345 -0.127679 -0.0209563 -0.0693752 -0.0447562 -0.0254725 -0.0111054 -0.00279628 -2.92223e-26 -0 -0.0025976 -0.0103494 -0.0231332 -0.0407474 -0.0629142 -0.089284 -0.119441 -0.152909 -0.189161 -0.227626 -0.267695 -0.308738 -0.350108 -0.391151 -0.43122 -0.469684 -0.505937 -0.539405 -0.569562 -0.595932 -0.618099 -nan -nan -0.647422 -0.624965 -0.613024 -0.60819 -0.6148 -0.594516 -0.569194 -0.540404 -0.509118 -0.47494 -0.43773 -0.398546 -0.358418 -0.317501 -0.284031 -0.246256 -0.209265 -0.174042 -0.145295 -0.112597 -0.0792093 -0.0595634 -0.0399388 -0.0227147 -0.00978956 -0.00246578 -2.54537e-26 -0 -0.00223042 -0.00888652 -0.0198633 -0.0349877 -0.0540212 -0.0766635 -0.102558 -0.131295 -0.162423 -0.19545 -0.229856 -0.265098 -0.300619 -0.335861 -0.370267 -0.403294 -0.434422 -0.463159 -0.489053 -0.511696 -0.530729 -nan -nan -0.549602 -0.53111 -0.519849 -0.514631 -0.525667 -0.506095 -0.48371 -0.458491 -0.431137 -0.401557 -0.370363 -0.338583 -0.30538 -0.270271 -0.23465 -0.208062 -0.176516 -0.145547 -0.151464 -0.123727 -0.0689644 -0.0836247 -0.0960358 -0.0264702 -0.01381 -0.00465643 -2.13096e-26 -0 -0.00182807 -0.00728347 -0.0162801 -0.0286762 -0.0442762 -0.0628341 -0.0840571 -0.107611 -0.133123 -0.160193 -0.188392 -0.217276 -0.24639 -0.275274 -0.303474 -0.330543 -0.356056 -0.379609 -0.400832 -nan -nan -1.43086 -0.502761 -0.464716 -0.432345 -0.420781 -0.415216 -0.425538 -0.408985 -0.390336 -0.368838 -0.345523 -0.32096 -0.295843 -0.270607 -0.244778 -0.217743 -0.188555 -0.152501 -0.142623 -0.117174 -0.0669067 -0.176502 -0.0543993 -0.0257852 -0.00997079 -0.0290817 -0.0119547 -0.00350707 -1.68619e-26 -0 -0.00139689 -0.00556555 -0.0124402 -0.0219125 -0.033833 -0.0480137 -0.064231 -0.0822291 -0.101724 -0.122409 -0.143957 -0.166028 -0.188275 -0.210347 -0.231895 -0.252579 -0.272074 -0.290072 -0.30629 -nan -nan -0.414638 -0.383425 -0.354497 -0.330223 -0.317289 -0.311848 -0.316229 -0.305189 -0.289988 -0.272999 -0.254888 -0.235918 -0.216684 -0.197346 -0.178495 -0.159601 -0.139838 -0.119352 -0.106637 -0.0875136 -0.0638332 -0.0453941 -0.0385961 -0.0262093 -0.0154624 -0.00322209 -0.0160249 -0.00281791 -1.21111e-26 -0 -0.000943684 -0.00375986 -0.0084041 -0.0148032 -0.0228562 -0.0324361 -0.0433918 -0.0555506 -0.0687207 -0.0826944 -0.0972513 -0.112162 -0.127191 -0.142102 -0.156658 -0.170632 -0.183802 -nan -nan -0.231069 -0.248398 -0.249644 -0.247121 -0.242293 -0.223727 -0.211125 -0.202832 -0.169401 -0.196179 -0.183902 -0.17244 -0.160005 -0.146846 -0.133918 -0.12127 -0.108991 -0.0974311 -0.0859099 -0.0739573 -0.0607912 -0.0545735 -0.0422973 -0.029217 -0.0236407 -0.0170531 -0.0108121 -0.0056149 -0.00111307 -0.0059783 -7.2356e-27 -0 -0.000475592 -0.00189487 -0.00423545 -0.00746042 -0.0115189 -0.0163469 -0.0218683 -0.0279961 -0.0346334 -0.0416758 -0.0490121 -0.0565267 -0.0641009 -0.0716155 -0.0789518 -nan -nan -0.129269 -0.132805 -0.133259 -0.133256 -0.130775 -0.126727 -0.12345 -0.112416 -0.101422 -0.0980846 -0.136939 -0.0629349 -0.0745345 -0.068704 -0.0621678 -0.0552064 -0.048784 -0.0430635 -0.0380077 -0.0335519 -0.0298427 -0.0260515 -0.021813 -0.0208552 -0.0157563 -0.0106073 -0.00792514 -0.00630829 -0.00426492 -0.00246388 -0.00108435 -0.000206402 -2.58299e-27 0 7.84816e-16 3.12689e-15 6.98928e-15 1.23111e-14 1.90083e-14 2.69755e-14 3.60868e-14 4.61987e-14 5.71516e-14 6.87728e-14 8.08791e-14 9.32795e-14 1.05778e-13 1.18179e-13 1.30285e-13 -nan -nan -0.042607 -0.0432 -0.0407861 -0.0329823 -0.0189559 -0.00914147 -0.00364626 0.00716967 -0.00600219 0.0666144 0.0546442 0.0548719 0.0352051 0.0360361 0.0367275 0.0374377 0.0373165 0.0360213 0.0337566 0.0307066 0.0268354 0.0229253 0.0195431 0.0189864 0.0123078 0.00923463 0.00742517 0.00492644 0.00288257 0.00152444 0.00062055 0.000130409 1.6528e-27 0 0.000475592 0.00189487 0.00423545 0.00746042 0.0115189 0.0163469 0.0218683 0.0279961 0.0346334 0.0416758 0.0490121 0.0565267 0.0641009 0.0716155 0.0789518 0.0859942 -nan -nan 0.0479276 0.0380276 0.0558958 0.0664608 0.0710491 0.0911686 0.0465142 1.21657 0.133055 0.144967 0.144677 0.147358 0.141031 0.13558 0.130022 0.123256 0.114946 0.105367 0.0948194 0.0836356 0.0721255 0.0609675 0.0508696 0.0356237 0.0311502 0.02399 0.016254 0.0102698 0.00576384 0.00256145 0.000641643 6.15481e-27 0 0.000943684 0.00375986 0.0084041 0.0148032 0.0228562 0.0324361 0.0433918 0.0555506 0.0687207 0.0826944 0.0972513 0.112162 0.127191 0.142102 0.156658 0.170632 -nan -nan 0.149774 0.166505 0.144327 0.118398 0.184056 0.19882 0.13964 0.142047 0.248844 0.254411 0.251149 0.272514 0.245543 0.232595 0.22099 0.207566 0.192353 0.175592 0.157688 0.139092 0.120099 0.101601 0.0841254 0.0693934 0.0484158 0.0413394 0.0271175 0.0173186 0.0100388 0.00456153 0.00117573 1.09215e-26 0 0.00139689 0.00556555 0.0124402 0.0219125 0.033833 0.0480137 0.064231 0.0822291 0.101724 0.122409 0.143957 0.166028 0.188275 0.210347 0.231895 0.252579 0.272074 0.290072 0.30629 0.32047 -nan -nan 0.299317 0.309508 0.248194 0.224271 0.36396 0.362983 0.356494 0.3502 0.344464 0.327502 0.308844 0.288902 0.267027 0.243328 0.218324 0.192576 0.166483 0.141163 0.117373 0.102727 0.0846296 0.0578576 0.0378162 0.0244633 0.0142813 0.00650555 0.00168943 1.56704e-26 0 0.00182807 0.00728347 0.0162801 0.0286762 0.0442762 0.0628341 0.0840571 0.107611 0.133123 0.160193 0.188392 0.217276 0.24639 0.275274 0.303474 0.330543 0.356056 0.379609 0.400832 0.41939 0.43499 0.447386 -nan -nan 0.364573 0.323912 0.471648 0.467597 0.457164 0.446277 0.440453 0.41679 0.391937 0.365904 0.337791 0.307508 0.275771 0.243243 0.210555 0.178794 0.148864 0.124634 0.0996903 0.0754163 0.0531243 0.0310509 0.0181075 0.00833462 0.00219516 2.02035e-26 0 0.00223042 0.00888652 0.0198633 0.0349877 0.0540212 0.0766635 0.102558 0.131295 0.162423 0.19545 0.229856 0.265098 0.300619 0.335861 0.370267 0.403294 0.434422 0.463159 0.489053 0.511696 0.530729 0.545854 -nan -nan 0.504056 0.461354 0.568506 0.564227 0.552719 0.54076 0.529628 0.498686 0.469036 0.437513 0.403538 0.367121 0.329122 0.290297 0.251442 0.213586 0.177813 0.146679 0.117077 0.0906546 0.0670591 0.0370091 0.0219707 0.0101363 0.0026598 2.44859e-26 0 0.0025976 0.0103494 0.0231332 0.0407474 0.0629142 0.089284 0.119441 0.152909 0.189161 0.227626 0.267695 0.308738 0.350108 0.391151 0.43122 0.469684 0.505937 0.539405 0.569562 0.595932 0.618099 0.635713 -nan -nan 0.614924 0.566245 0.659819 0.644784 0.647464 2.03693 0.65826 0.572456 0.539267 0.502666 0.463215 0.421223 0.377535 0.332999 0.288488 0.24516 0.204253 0.168253 0.134756 0.104111 0.0769089 0.0428167 0.0253366 0.0116638 0.0030762 2.83878e-26 0 0.00292381 0.0116491 0.0260383 0.0458645 0.070815 0.100496 0.13444 0.172112 0.212917 0.256211 0.301313 0.34751 0.394074 0.440272 0.485373 0.528668 0.569473 0.607144 0.641088 0.670769 0.69572 0.715546 -nan -nan -nan -nan -nan -nan 0.721503 -1.54949 0.663668 0.642081 0.601341 0.560135 0.515816 0.468959 0.420243 0.370668 0.321169 0.273115 0.22786 0.188417 0.151231 0.116641 0.0846004 0.0479499 0.0285346 0.0131235 0.00346526 3.1884e-26 0 0.00320391 0.0127651 0.0285328 0.0502583 0.0775991 0.110124 0.14732 0.1886 0.233314 0.280756 0.330178 0.380801 0.431827 0.48245 0.531872 0.579314 0.624028 0.665308 0.702504 0.735029 0.76237 0.784095 -nan -nan -nan -nan -nan -nan 0.773077 -0.985489 0.721554 0.697215 0.654048 0.608997 0.560582 0.509571 0.456568 0.402706 0.348964 0.296967 0.248129 0.20656 0.166264 0.128509 0.0889112 0.052083 0.0312011 0.0144409 0.00378912 3.48977e-26 0 0.00343348 0.0136798 0.0305773 0.0538595 0.0831593 0.118015 0.157876 0.202114 0.250032 0.300873 0.353837 0.408087 0.462769 0.517019 0.569982 0.620824 0.668742 0.71298 0.752841 0.787696 0.816996 0.840278 0.857176 0.867422 0.870856 0.867422 -nan -nan 0.831838 0.805637 -28.9698 0.741074 0.696511 0.64859 0.596922 0.542415 0.485935 0.428605 0.371427 0.316265 0.264538 0.22257 0.180661 0.140045 0.097605 0.0567953 0.033238 0.0154536 0.00406075 3.73706e-26 0 0.0036089 0.0143787 0.0321395 0.0566113 0.0874081 0.124044 0.165942 0.21244 0.262806 0.316245 0.371915 0.428937 0.486412 0.543434 0.599104 0.652543 0.702909 0.749407 0.791305 0.827941 0.858738 0.88321 0.900971 0.91174 0.915349 0.91174 0.900971 0.88321 0.858738 0.827941 -nan -nan 0.728086 0.678103 0.624138 0.566967 0.507876 0.447953 0.388036 0.330304 0.276343 0.236326 0.19593 0.16714 0.0920238 0.0619657 0.0348093 0.0161252 0.00428166 3.92595e-26 0 0.00372741 0.0148509 0.0331949 0.0584703 0.0902784 0.128118 0.171391 0.219416 0.271436 0.32663 0.384128 0.443022 0.502385 0.56128 0.618777 0.673971 0.725991 0.774016 0.81729 0.855129 0.886937 0.912213 0.930557 0.94168 0.945408 0.94168 0.930557 0.912213 0.886937 0.855129 -nan -nan 0.749702 0.698256 0.642732 0.583773 0.522893 0.461196 0.399278 0.339475 0.283538 0.247811 0.201051 0.142372 0.0976343 0.0650189 0.0361607 0.0166871 0.0043921 4.05341e-26 0 0.00378714 0.0150888 0.0337268 0.0594072 0.0917249 0.13017 0.174137 0.222932 0.275786 0.331864 0.390283 0.450121 0.510435 0.570273 0.628692 0.68477 0.737624 0.786419 0.830386 0.868831 0.901149 0.926829 0.945467 0.956769 0.960556 0.956769 0.945467 0.926829 0.901149 -nan -nan 0.805124 0.756686 0.704629 0.648458 0.588833 0.527355 0.465124 0.402857 0.342562 0.285758 0.251784 0.188741 0.145699 0.0954659 0.0648118 0.0376936 0.0177929 0.00454858 4.11783e-26 0 0.00378714 0.0150888 0.0337268 0.0594072 0.0917249 0.13017 0.174137 0.222932 0.275786 0.331864 0.390283 0.450121 0.510435 0.570273 0.628692 0.68477 0.737624 0.786419 0.830386 0.868831 0.901149 0.926829 0.945467 0.956769 0.960556 0.956769 0.945467 0.926829 0.901149 -nan -nan 0.806354 0.756279 0.704149 0.648047 0.58843 0.526979 0.464726 0.40307 0.343584 0.28754 0.242432 0.193512 0.135425 0.103501 0.0660102 0.0381563 0.0182852 0.00501419 4.1162e-26 0 0.00372741 0.0148509 0.0331949 0.0584703 0.0902784 0.128118 0.171391 0.219416 0.271436 0.32663 0.384128 0.443022 0.502385 0.56128 0.618777 0.673971 0.725991 0.774016 0.81729 0.855129 0.886937 0.912213 0.930557 0.94168 0.945408 0.94168 0.930557 0.912213 -nan -nan 0.846141 0.791427 0.741891 0.690163 0.63493 0.576422 0.51618 0.455249 0.39503 0.337242 0.284842 0.241031 0.212892 0.160453 0.0912617 0.06322 0.03732 0.0178414 0.00488836 4.05095e-26 0 0.0036089 0.0143787 0.0321395 0.0566113 0.0874081 0.124044 0.165942 0.21244 0.262806 0.316245 0.371915 0.428937 0.486412 0.543434 0.599104 0.652543 0.702909 0.749407 0.791305 0.827941 0.858738 0.88321 0.900971 0.91174 0.915349 0.91174 0.900971 0.88321 -nan -nan 0.807955 0.763915 0.716959 0.666593 0.612997 0.556452 0.498205 0.439495 0.381533 0.325724 0.27947 0.258176 0.180026 0.1248 0.0929656 0.0603991 0.036186 0.0171225 0.00465776 3.92204e-26 0 0.00343348 0.0136798 0.0305773 0.0538595 0.0831593 0.118015 0.157876 0.202114 0.250032 0.300873 0.353837 0.408087 0.462769 0.517019 0.569982 0.620824 0.668742 0.