<?xml version="1.0"?>
<VTKFile type="PolyData">
	<PolyData>
		<Piece NumberOfPoints="2601" NumberOfPolys="2500">
			<Points>
				<DataArray type="Float32" NumberOfComponents="3" format="ascii">
 0 0 0 0.02 0 0 0.04 0 0 0.06 0 0 0.08 0 0 0.1 0 0 0.12 0 0 0.14 0 0 0.16 0 0 0.18 0 0 0.2 0 0 0.22 0 0 0.24 0 0 0.26 0 0 0.28 0 0 0.3 0 0 0.32 0 0 0.34 0 0 0.36 0 0 0.38 0 0 0.4 0 0 0.42 0 0 0.44 0 0 0.46 0 0 0.48 0 0 0.5 0 0 0.52 0 0 0.54 0 0 0.56 0 0 0.58 0 0 0.6 0 0 0.62 0 0 0.64 0 0 0.66 0 0 0.68 0 0 0.7 0 0 0.72 0 0 0.74 0 0 0.76 0 0 0.78 0 0 0.8 0 0 0.82 0 0 0.84 0 0 0.86 0 0 0.88 0 0 0.9 0 0 0.92 0 0 0.94 0 0 0.96 0 0 0.98 0 0 1 0 0 0 0.02 0 0.02 0.02 0 0.04 0.02 0 0.06 0.02 0 0.08 0.02 0 0.1 0.02 0 0.12 0.02 0 0.14 0.02 0 0.16 0.02 0 0.18 0.02 0 0.2 0.02 0 0.22 0.02 0 0.24 0.02 0 0.26 0.02 0 0.28 0.02 0 0.3 0.02 0 0.32 0.02 0 0.34 0.02 0 0.36 0.02 0 0.38 0.02 0 0.4 0.02 0 0.42 0.02 0 0.44 0.02 0 0.46 0.02 0 0.48 0.02 0 0.5 0.02 0 0.52 0.02 0 0.54 0.02 0 0.56 0.02 0 0.58 0.02 0 0.6 0.02 0 0.62 0.02 0 0.64 0.02 0 0.66 0.02 0 0.68 0.02 0 0.7 0.02 0 0.72 0.02 0 0.74 0.02 0 0.76 0.02 0 0.78 0.02 0 0.8 0.02 0 0.82 0.02 0 0.84 0.02 0 0.86 0.02 0 0.88 0.02 0 0.9 0.02 0 0.92 0.02 0 0.94 0.02 0 0.96 0.02 0 0.98 0.02 0 1 0.02 0 0 0.04 0 0.02 0.04 0 0.04 0.04 0 0.06 0.04 0 0.08 0.04 0 0.1 0.04 0 0.12 0.04 0 0.14 0.04 0 0.16 0.04 0 0.18 0.04 0 0.2 0.04 0 0.22 0.04 0 0.24 0.04 0 0.26 0.04 0 0.28 0.04 0 0.3 0.04 0 0.32 0.04 0 0.34 0.04 0 0.36 0.04 0 0.38 0.04 0 0.4 0.04 0 0.42 0.04 0 0.44 0.04 0 0.46 0.04 0 0.48 0.04 0 0.5 0.04 0 0.52 0.04 0 0.54 0.04 0 0.56 0.04 0 0.58 0.04 0 0.6 0.04 0 0.62 0.04 0 0.64 0.04 0 0.66 0.04 0 0.68 0.04 0 0.7 0.04 0 0.72 0.04 0 0.74 0.04 0 0.76 0.04 0 0.78 0.04 0 0.8 0.04 0 0.82 0.04 0 0.84 0.04 0 0.86 0.04 0 0.88 0.04 0 0.9 0.04 0 0.92 0.04 0 0.94 0.04 0 0.96 0.04 0 0.98 0.04 0 1 0.04 0 0 0.06 0 0.02 0.06 0 0.04 0.06 0 0.06 0.06 0 0.08 0.06 0 0.1 0.06 0 0.12 0.06 0 0.14 0.06 0 0.16 0.06 0 0.18 0.06 0 0.2 0.06 0 0.22 0.06 0 0.24 0.06 0 0.26 0.06 0 0.28 0.06 0 0.3 0.06 0 0.32 0.06 0 0.34 0.06 0 0.36 0.06 0 0.38 0.06 0 0.4 0.06 0 0.42 0.06 0 0.44 0.06 0 0.46 0.06 0 0.48 0.06 0 0.5 0.06 0 0.52 0.06 0 0.54 0.06 0 0.56 0.06 0 0.58 0.06 0 0.6 0.06 0 0.62 0.06 0 0.64 0.06 0 0.66 0.06 0 0.68 0.06 0 0.7 0.06 0 0.72 0.06 0 0.74 0.06 0 0.76 0.06 0 0.78 0.06 0 0.8 0.06 0 0.82 0.06 0 0.84 0.06 0 0.86 0.06 0 0.88 0.06 0 0.9 0.06 0 0.92 0.06 0 0.94 0.06 0 0.96 0.06 0 0.98 0.06 0 1 0.06 0 0 0.08 0 0.02 0.08 0 0.04 0.08 0 0.06 0.08 0 0.08 0.08 0 0.1 0.08 0 0.12 0.08 0 0.14 0.08 0 0.16 0.08 0 0.18 0.08 0 0.2 0.08 0 0.22 0.08 0 0.24 0.08 0 0.26 0.08 0 0.28 0.08 0 0.3 0.08 0 0.32 0.08 0 0.34 0.08 0 0.36 0.08 0 0.38 0.08 0 0.4 0.08 0 0.42 0.08 0 0.44 0.08 0 0.46 0.08 0 0.48 0.08 0 0.5 0.08 0 0.52 0.08 0 0.54 0.08 0 0.56 0.08 0 0.58 0.08 0 0.6 0.08 0 0.62 0.08 0 0.64 0.08 0 0.66 0.08 0 0.68 0.08 0 0.7 0.08 0 0.72 0.08 0 0.74 0.08 0 0.76 0.08 0 0.78 0.08 0 0.8 0.08 0 0.82 0.08 0 0.84 0.08 0 0.86 0.08 0 0.88 0.08 0 0.9 0.08 0 0.92 0.08 0 0.94 0.08 0 0.96 0.08 0 0.98 0.08 0 1 0.08 0 0 0.1 0 0.02 0.1 0 0.04 0.1 0 0.06 0.1 0 0.08 0.1 0 0.1 0.1 0 0.12 0.1 0 0.14 0.1 0 0.16 0.1 0 0.18 0.1 0 0.2 0.1 0 0.22 0.1 0 0.24 0.1 0 0.26 0.1 0 0.28 0.1 0 0.3 0.1 0 0.32 0.1 0 0.34 0.1 0 0.36 0.1 0 0.38 0.1 0 0.4 0.1 0 0.42 0.1 0 0.44 0.1 0 0.46 0.1 0 0.48 0.1 0 0.5 0.1 0 0.52 0.1 0 0.54 0.1 0 0.56 0.1 0 0.58 0.1 0 0.6 0.1 0 0.62 0.1 0 0.64 0.1 0 0.66 0.1 0 0.68 0.1 0 0.7 0.1 0 0.72 0.1 0 0.74 0.1 0 0.76 0.1 0 0.78 0.1 0 0.8 0.1 0 0.82 0.1 0 0.84 0.1 0 0.86 0.1 0 0.88 0.1 0 0.9 0.1 0 0.92 0.1 0 0.94 0.1 0 0.96 0.1 0 0.98 0.1 0 1 0.1 0 0 0.12 0 0.02 0.12 0 0.04 0.12 0 0.06 0.12 0 0.08 0.12 0 0.1 0.12 0 0.12 0.12 0 0.14 0.12 0 0.16 0.12 0 0.18 0.12 0 0.2 0.12 0 0.22 0.12 0 0.24 0.12 0 0.26 0.12 0 0.28 0.12 0 0.3 0.12 0 0.32 0.12 0 0.34 0.12 0 0.36 0.12 0 0.38 0.12 0 0.4 0.12 0 0.42 0.12 0 0.44 0.12 0 0.46 0.12 0 0.48 0.12 0 0.5 0.12 0 0.52 0.12 0 0.54 0.12 0 0.56 0.12 0 0.58 0.12 0 0.6 0.12 0 0.62 0.12 0 0.64 0.12 0 0.66 0.12 0 0.68 0.12 0 0.7 0.12 0 0.72 0.12 0 0.74 0.12 0 0.76 0.12 0 0.78 0.12 0 0.8 0.12 0 0.82 0.12 0 0.84 0.12 0 0.86 0.12 0 0.88 0.12 0 0.9 0.12 0 0.92 0.12 0 0.94 0.12 0 0.96 0.12 0 0.98 0.12 0 1 0.12 0 0 0.14 0 0.02 0.14 0 0.04 0.14 0 0.06 0.14 0 0.08 0.14 0 0.1 0.14 0 0.12 0.14 0 0.14 0.14 0 0.16 0.14 0 0.18 0.14 0 0.2 0.14 0 0.22 0.14 0 0.24 0.14 0 0.26 0.14 0 0.28 0.14 0 0.3 0.14 0 0.32 0.14 0 0.34 0.14 0 0.36 0.14 0 0.38 0.14 0 0.4 0.14 0 0.42 0.14 0 0.44 0.14 0 0.46 0.14 0 0.48 0.14 0 0.5 0.14 0 0.52 0.14 0 0.54 0.14 0 0.56 0.14 0 0.58 0.14 0 0.6 0.14 0 0.62 0.14 0 0.64 0.14 0 0.66 0.14 0 0.68 0.14 0 0.7 0.14 0 0.72 0.14 0 0.74 0.14 0 0.76 0.14 0 0.78 0.14 0 0.8 0.14 0 0.82 0.14 0 0.84 0.14 0 0.86 0.14 0 0.88 0.14 0 0.9 0.14 0 0.92 0.14 0 0.94 0.14 0 0.96 0.14 0 0.98 0.14 0 1 0.14 0 0 0.16 0 0.02 0.16 0 0.04 0.16 0 0.06 0.16 0 0.08 0.16 0 0.1 0.16 0 0.12 0.16 0 0.14 0.16 0 0.16 0.16 0 0.18 0.16 0 0.2 0.16 0 0.22 0.16 0 0.24 0.16 0 0.26 0.16 0 0.28 0.16 0 0.3 0.16 0 0.32 0.16 0 0.34 0.16 0 0.36 0.16 0 0.38 0.16 0 0.4 0.16 0 0.42 0.16 0 0.44 0.16 0 0.46 0.16 0 0.48 0.16 0 0.5 0.16 0 0.52 0.16 0 0.54 0.16 0 0.56 0.16 0 0.58 0.16 0 0.6 0.16 0 0.62 0.16 0 0.64 0.16 0 0.66 0.16 0 0.68 0.16 0 0.7 0.16 0 0.72 0.16 0 0.74 0.16 0 0.76 0.16 0 0.78 0.16 0 0.8 0.16 0 0.82 0.16 0 0.84 0.16 0 0.86 0.16 0 0.88 0.16 0 0.9 0.16 0 0.92 0.16 0 0.94 0.16 0 0.96 0.16 0 0.98 0.16 0 1 0.16 0 0 0.18 0 0.02 0.18 0 0.04 0.18 0 0.06 0.18 0 0.08 0.18 0 0.1 0.18 0 0.12 0.18 0 0.14 0.18 0 0.16 0.18 0 0.18 0.18 0 0.2 0.18 0 0.22 0.18 0 0.24 0.18 0 0.26 0.18 0 0.28 0.18 0 0.3 0.18 0 0.32 0.18 0 0.34 0.18 0 0.36 0.18 0 0.38 0.18 0 0.4 0.18 0 0.42 0.18 0 0.44 0.18 0 0.46 0.18 0 0.48 0.18 0 0.5 0.18 0 0.52 0.18 0 0.54 0.18 0 0.56 0.18 0 0.58 0.18 0 0.6 0.18 0 0.62 0.18 0 0.64 0.18 0 0.66 0.18 0 0.68 0.18 0 0.7 0.18 0 0.72 0.18 0 0.74 0.18 0 0.76 0.18 0 0.78 0.18 0 0.8 0.18 0 0.82 0.18 0 0.84 0.18 0 0.86 0.18 0 0.88 0.18 0 0.9 0.18 0 0.92 0.18 0 0.94 0.18 0 0.96 0.18 0 0.98 0.18 0 1 0.18 0 0 0.2 0 0.02 0.2 0 0.04 0.2 0 0.06 0.2 0 0.08 0.2 0 0.1 0.2 0 0.12 0.2 0 0.14 0.2 0 0.16 0.2 0 0.18 0.2 0 0.2 0.2 0 0.22 0.2 0 0.24 0.2 0 0.26 0.2 0 0.28 0.2 0 0.3 0.2 0 0.32 0.2 0 0.34 0.2 0 0.36 0.2 0 0.38 0.2 0 0.4 0.2 0 0.42 0.2 0 0.44 0.2 0 0.46 0.2 0 0.48 0.2 0 0.5 0.2 0 0.52 0.2 0 0.54 0.2 0 0.56 0.2 0 0.58 0.2 0 0.6 0.2 0 0.62 0.2 0 0.64 0.2 0 0.66 0.2 0 0.68 0.2 0 0.7 0.2 0 0.72 0.2 0 0.74 0.2 0 0.76 0.2 0 0.78 0.2 0 0.8 0.2 0 0.82 0.2 0 0.84 0.2 0 0.86 0.2 0 0.88 0.2 0 0.9 0.2 0 0.92 0.2 0 0.94 0.2 0 0.96 0.2 0 0.98 0.2 0 1 0.2 0 0 0.22 0 0.02 0.22 0 0.04 0.22 0 0.06 0.22 0 0.08 0.22 0 0.1 0.22 0 0.12 0.22 0 0.14 0.22 0 0.16 0.22 0 0.18 0.22 0 0.2 0.22 0 0.22 0.22 0 0.24 0.22 0 0.26 0.22 0 0.28 0.22 0 0.3 0.22 0 0.32 0.22 0 0.34 0.22 0 0.36 0.22 0 0.38 0.22 0 0.4 0.22 0 0.42 0.22 0 0.44 0.22 0 0.46 0.22 0 0.48 0.22 0 0.5 0.22 0 0.52 0.22 0 0.54 0.22 0 0.56 0.22 0 0.58 0.22 0 0.6 0.22 0 0.62 0.22 0 0.64 0.22 0 0.66 0.22 0 0.68 0.22 0 0.7 0.22 0 0.72 0.22 0 0.74 0.22 0 0.76 0.22 0 0.78 0.22 0 0.8 0.22 0 0.82 0.22 0 0.84 0.22 0 0.86 0.22 0 0.88 0.22 0 0.9 0.22 0 0.92 0.22 0 0.94 0.22 0 0.96 0.22 0 0.98 0.22 0 1 0.22 0 0 0.24 0 0.02 0.24 0 0.04 0.24 0 0.06 0.24 0 0.08 0.24 0 0.1 0.24 0 0.12 0.24 0 0.14 0.24 0 0.16 0.24 0 0.18 0.24 0 0.2 0.24 0 0.22 0.24 0 0.24 0.24 0 0.26 0.24 0 0.28 0.24 0 0.3 0.24 0 0.32 0.24 0 0.34 0.24 0 0.36 0.24 0 0.38 0.24 0 0.4 0.24 0 0.42 0.24 0 0.44 0.24 0 0.46 0.24 0 0.48 0.24 0 0.5 0.24 0 0.52 0.24 0 0.54 0.24 0 0.56 0.24 0 0.58 0.24 0 0.6 0.24 0 0.62 0.24 0 0.64 0.24 0 0.66 0.24 0 0.68 0.24 0 0.7 0.24 0 0.72 0.24 0 0.74 0.24 0 0.76 0.24 0 0.78 0.24 0 0.8 0.24 0 0.82 0.24 0 0.84 0.24 0 0.86 0.24 0 0.88 0.24 0 0.9 0.24 0 0.92 0.24 0 0.94 0.24 0 0.96 0.24 0 0.98 0.24 0 1 0.24 0 0 0.26 0 0.02 0.26 0 0.04 0.26 0 0.06 0.26 0 0.08 0.26 0 0.1 0.26 0 0.12 0.26 0 0.14 0.26 0 0.16 0.26 0 0.18 0.26 0 0.2 0.26 0 0.22 0.26 0 0.24 0.26 0 0.26 0.26 0 0.28 0.26 0 0.3 0.26 0 0.32 0.26 0 0.34 0.26 0 0.36 0.26 0 0.38 0.26 0 0.4 0.26 0 0.42 0.26 0 0.44 0.26 0 0.46 0.26 0 0.48 0.26 0 0.5 0.26 0 0.52 0.26 0 0.54 0.26 0 0.56 0.26 0 0.58 0.26 0 0.6 0.26 0 0.62 0.26 0 0.64 0.26 0 0.66 0.26 0 0.68 0.26 0 0.7 0.26 0 0.72 0.26 0 0.74 0.26 0 0.76 0.26 0 0.78 0.26 0 0.8 0.26 0 0.82 0.26 0 0.84 0.26 0 0.86 0.26 0 0.88 0.26 0 0.9 0.26 0 0.92 0.26 0 0.94 0.26 0 0.96 0.26 0 0.98 0.26 0 1 0.26 0 0 0.28 0 0.02 0.28 0 0.04 0.28 0 0.06 0.28 0 0.08 0.28 0 0.1 0.28 0 0.12 0.28 0 0.14 0.28 0 0.16 0.28 0 0.18 0.28 0 0.2 0.28 0 0.22 0.28 0 0.24 0.28 0 0.26 0.28 0 0.28 0.28 0 0.3 0.28 0 0.32 0.28 0 0.34 0.28 0 0.36 0.28 0 0.38 0.28 0 0.4 0.28 0 0.42 0.28 0 0.44 0.28 0 0.46 0.28 0 0.48 0.28 0 0.5 0.28 0 0.52 0.28 0 0.54 0.28 0 0.56 0.28 0 0.58 0.28 0 0.6 0.28 0 0.62 0.28 0 0.64 0.28 0 0.66 0.28 0 0.68 0.28 0 0.7 0.28 0 0.72 0.28 0 0.74 0.28 0 0.76 0.28 0 0.78 0.28 0 0.8 0.28 0 0.82 0.28 0 0.84 0.28 0 0.86 0.28 0 0.88 0.28 0 0.9 0.28 0 0.92 0.28 0 0.94 0.28 0 0.96 0.28 0 0.98 0.28 0 1 0.28 0 0 0.3 0 0.02 0.3 0 0.04 0.3 0 0.06 0.3 0 0.08 0.3 0 0.1 0.3 0 0.12 0.3 0 0.14 0.3 0 0.16 0.3 0 0.18 0.3 0 0.2 0.3 0 0.22 0.3 0 0.24 0.3 0 0.26 0.3 0 0.28 0.3 0 0.3 0.3 0 0.32 0.3 0 0.34 0.3 0 0.36 0.3 0 0.38 0.3 0 0.4 0.3 0 0.42 0.3 0 0.44 0.3 0 0.46 0.3 0 0.48 0.3 0 0.5 0.3 0 0.52 0.3 0 0.54 0.3 0 0.56 0.3 0 0.58 0.3 0 0.6 0.3 0 0.62 0.3 0 0.64 0.3 0 0.66 0.3 0 0.68 0.3 0 0.7 0.3 0 0.72 0.3 0 0.74 0.3 0 0.76 0.3 0 0.78 0.3 0 0.8 0.3 0 0.82 0.3 0 0.84 0.3 0 0.86 0.3 0 0.88 0.3 0 0.9 0.3 0 0.92 0.3 0 0.94 0.3 0 0.96 0.3 0 0.98 0.3 0 1 0.3 0 0 0.32 0 0.02 0.32 0 0.04 0.32 0 0.06 0.32 0 0.08 0.32 0 0.1 0.32 0 0.12 0.32 0 0.14 0.32 0 0.16 0.32 0 0.18 0.32 0 0.2 0.32 0 0.22 0.32 0 0.24 0.32 0 0.26 0.32 0 0.28 0.32 0 0.3 0.32 0 0.32 0.32 0 0.34 0.32 0 0.36 0.32 0 0.38 0.32 0 0.4 0.32 0 0.42 0.32 0 0.44 0.32 0 0.46 0.32 0 0.48 0.32 0 0.5 0.32 0 0.52 0.32 0 0.54 0.32 0 0.56 0.32 0 0.58 0.32 0 0.6 0.32 0 0.62 0.32 0 0.64 0.32 0 0.66 0.32 0 0.68 0.32 0 0.7 0.32 0 0.72 0.32 0 0.74 0.32 0 0.76 0.32 0 0.78 0.32 0 0.8 0.32 0 0.82 0.32 0 0.84 0.32 0 0.86 0.32 0 0.88 0.32 0 0.9 0.32 0 0.92 0.32 0 0.94 0.
[...]
			<PointData Scalars="VitesseX">
				<DataArray Name="VitesseX" type="Float32" format="ascii">
 0 0 0 0 0 0 0 0 0 0 0 0 0 0 0 0 0 0 0 0 0 0 0 0 0 0 0 0 0 0 0 0 0 0 0 0 0 0 0 0 0 0 0 -0 0 0 0 0 0 0 -0 0 -0.000460431 -0.00173565 -0.00372481 -0.00639702 -0.00971052 -0.0136139 -0.0180469 -0.02294 -0.0282183 -0.0338054 -0.0396459 -0.0457657 -0.0521548 -0.0582871 -0.0639462 -0.0692539 -0.0741881 -0.0788254 -0.0832475 -0.134596 -0.144508 -0.192583 -0.0515031 -0.0908452 -0.0977208 -0.100275 -0.100573 -0.0999471 -0.0981599 -0.0938971 -0.0894 -0.0840683 -0.0785456 -0.0730608 -0.0670166 -0.0604706 -0.0538352 -0.0482207 -0.0418561 -0.0373163 -0.0311283 -0.0251602 -0.01962 -0.014773 -0.0103333 -0.0064534 -0.00360816 -0.00170988 -0.000425015 -5.59141e-27 -0 -0.00117691 -0.00440386 -0.00746421 -0.0127882 -0.0195198 -0.0273981 -0.0359475 -0.0451495 -0.0561036 -0.06762 -0.0794203 -0.0908976 -0.103465 -0.115727 -0.126983 -0.137493 -0.147246 -0.156362 -0.16476 -0.236362 -0.426304 -0.148506 -0.179084 -0.187472 -0.191313 -0.192982 -0.192124 -0.189346 -0.184792 -0.177859 -0.169585 -0.16017 -0.150113 -0.139441 -0.127874 -0.11579 -0.103436 -0.0919149 -0.0797432 -0.069762 -0.0578808 -0.0468104 -0.0371984 -0.0274008 -0.0192108 -0.0120956 -0.00684386 -0.00309681 -0.00079199 -9.54222e-27 0 -0.00137441 -0.00515123 -0.011009 -0.0188688 -0.0286244 -0.0401411 -0.053452 -0.0685934 -0.0849966 -0.101808 -0.118833 -0.135985 -0.15297 -0.216365 -0.22008 -0.237332 -0.215152 -0.279307 -0.303667 -0.715627 -0.236699 -0.262592 -0.273527 -0.279425 -0.282406 -0.283153 -0.280741 -0.275921 -0.268863 -0.259286 -0.247387 -0.234148 -0.220537 -0.204084 -0.186139 -0.169125 -0.151455 -0.133883 -0.11644 -0.100257 -0.083653 -0.067708 -0.0504477 -0.0391652 -0.0277873 -0.0175341 -0.00995849 -0.00467974 -0.00114601 -1.33469e-26 0 -0.00180062 -0.00672776 -0.0143259 -0.024478 -0.0371675 -0.0522981 -0.0701226 -0.0906189 -0.111246 -0.133259 -0.155558 -0.177978 -0.200049 -0.261259 -0.288681 -0.139719 -0.290278 -0.304692 -0.316402 -0.326042 -0.338035 -0.350902 -0.360938 -0.366639 -0.369128 -0.368839 -0.364848 -0.358186 -0.348567 -0.336121 -0.320823 -0.304499 -0.287707 -0.265907 -0.24107 -0.220239 -0.197554 -0.17363 -0.151384 -0.130021 -0.108037 -0.0874249 -0.0744815 -0.0509441 -0.035931 -0.0227312 -0.0129143 -0.00628105 -0.00147812 -1.69463e-26 0 -0.00221557 -0.00825608 -0.0175382 -0.0297888 -0.0448491 -0.0629549 -0.0999771 -0.139814 -0.132978 -0.162794 -0.189967 -0.217426 -0.244695 -0.269801 -0.281362 -0.289701 -0.392026 -0.423299 -0.55353 -0.388448 -0.418872 -0.433674 -0.443237 -0.448363 -0.450115 -0.448524 -0.443061 -0.434351 -0.422661 -0.406861 -0.387605 -0.36837 -0.361525 -0.336868 -0.292831 -0.269095 -0.239919 -0.208893 -0.183957 -0.157026 -0.130498 -0.1051 -0.10138 -0.0617782 -0.0434848 -0.0322401 -0.0157362 -0.00717105 -0.00176125 -2.02844e-26 0 -0.00264875 -0.009815 -0.0208311 -0.0355354 -0.0536971 -0.0750405 -0.0992231 -0.126156 -0.155917 -0.187727 -0.220409 -0.25333 -0.28488 -0.309556 -0.329498 -0.367609 -0.403793 -0.432132 -0.456353 -0.47733 -0.493618 -0.505478 -0.513989 -0.520251 -0.524274 -0.521448 -0.514562 -0.504058 -0.489616 -0.46948 -0.446866 -0.424263 -0.401566 -0.371584 -0.342792 -0.312319 -0.277761 -0.212129 -0.21341 -0.181509 -0.150972 -0.121594 -0.0776462 -0.0715389 -0.0503445 0.0607223 -0.0185693 -0.00827699 -0.00204508 -2.33094e-26 -0 -0.0029673 -0.0108571 -0.0240019 -0.0406561 -0.0641737 -0.0928792 -0.11874 -0.151934 -0.17444 -0.20962 -0.246362 -0.287399 -0.355614 -0.421282 -0.389262 -0.430064 -0.460937 -0.487222 -0.495946 -0.856943 -0.636237 -1.47032 -0.526253 -0.568807 -0.591933 -0.58635 -0.577869 -0.57644 -0.566995 -0.542822 -0.526291 -0.478848 -0.448174 -0.457505 -0.385383 -0.345778 -0.310165 -0.2093 -0.239117 -0.203041 -0.169028 -0.136308 -0.10296 -0.0798128 -0.0561441 -0.0292065 -0.0207162 -0.00926019 -0.00230926 -2.59743e-26 -0 -0.0035546 -0.0124683 -0.0258079 -0.043897 -0.0663019 -0.0931574 -0.123114 -0.157229 -0.193838 -0.232397 -0.272261 -0.312848 -0.352197 -0.391708 -0.430553 -0.468411 -0.506056 -0.574528 -0.613776 -0.385831 -0.609462 -0.628718 -0.638682 -0.644457 -0.646119 -0.643353 -0.639392 -0.628877 -0.613918 -0.593769 -0.565966 -1.08971 -0.488107 -0.478036 -0.300582 -0.44306 -0.340734 -0.293412 -0.260257 -0.221176 -0.184376 -0.148944 -0.11512 -0.0870535 -0.0613522 -0.0390626 -0.0225598 -0.0101122 -0.00254429 -2.82378e-26 0 -0.0031561 -0.0124269 -0.0273554 -0.047096 -0.0712388 -0.0994173 -0.132236 -0.169648 -0.222184 -0.305484 -0.289605 -0.33513 -0.378543 -0.434248 -0.475738 -0.572898 -0.532882 -0.576857 -0.606628 -0.632123 -0.653997 -0.673017 -0.68454 -0.690634 -0.696418 -0.69347 -0.684127 -0.669728 -0.650799 -0.627562 -0.599466 -0.582384 -0.526027 -0.491995 -0.438747 -1.19639 -0.365635 -0.321076 -0.278385 -0.236559 -0.196797 -0.159266 -0.124118 -0.0929592 -0.0657152 -0.0425928 -0.024198 -0.0108669 -0.00272717 -3.00649e-26 0 -0.00324018 -0.0125976 -0.0282878 -0.0495933 -0.0749858 -0.103864 -0.13839 -0.189397 -0.233145 -0.320569 -0.306606 -0.352706 -0.398905 -0.442329 -0.487194 -0.530993 -0.568891 -0.604941 -0.637349 -0.6644 -0.687163 -0.688105 -0.716735 -0.725761 -0.727603 -0.723649 -0.713453 -0.697979 -0.677356 -0.651762 -0.621422 -0.58718 -0.550288 -0.510539 -0.468119 -0.434453 -0.381427 -0.336428 -0.29128 -0.247389 -0.205868 -0.16721 -0.130813 -0.0973658 -0.0689736 -0.0448136 -0.0253011 -0.0114186 -0.00286164 -3.1427e-26 0 -0.00378895 -0.014197 -0.0302552 -0.0517446 -0.0784243 -0.10994 -0.145651 -0.185716 -0.228712 -0.272749 -0.318883 -0.365686 -0.412617 -0.459324 -0.504359 -0.54736 -0.58673 -0.62339 -0.657887 -0.682795 -0.710489 -0.729844 -0.743237 -0.750253 -0.75149 -0.747183 -0.736398 -0.720267 -0.698833 -0.672363 -0.641186 -0.606061 -0.567723 -0.526657 -0.482952 -0.437131 -0.390466 -0.345787 -0.445638 -0.254395 -0.212505 -0.172513 -0.135224 -0.100624 -0.0712657 -0.0461546 -0.0305712 -0.0117816 -0.00295389 -3.23031e-26 0 -0.003823 -0.0143918 -0.030742 -0.0526314 -0.0797723 -0.111783 -0.148106 -0.187886 -0.231063 -0.276686 -0.323978 -0.372 -0.419931 -0.467353 -0.513406 -0.557208 -0.597052 -0.648679 -0.671119 -0.700467 -0.724291 -0.742899 -0.756238 -0.762771 -0.763532 -0.758603 -0.747102 -0.730283 -0.708131 -0.681012 -0.649366 -0.613701 -0.574589 -0.532645 -0.488456 -0.442526 -0.395588 -0.347926 -0.297035 -0.738664 -0.214714 -0.17432 -0.136716 -0.0454478 -0.0721375 -0.0465535 -0.014278 -0.0119186 -0.002994 -3.26795e-26 0 -0.00380908 -0.0143656 -0.0307152 -0.0526048 -0.0797244 -0.111684 -0.147986 -0.188033 -0.231183 -0.276636 -0.323789 -0.371758 -0.41958 -0.467265 -0.513375 -0.556416 -0.612066 -0.640018 -0.670839 -0.700243 -0.724386 -0.743087 -0.756333 -0.7628 -0.763537 -0.758582 -0.747054 -0.730206 -0.708001 -0.680843 -0.64917 -0.613473 -0.574349 -0.532397 -0.488222 -0.442433 -0.395678 -0.348602 -0.300271 -0.243349 -0.351808 -0.173979 -0.13556 -0.0904624 -0.0757832 -0.046524 -0.0259446 -0.0119128 -0.00299404 -3.25505e-26 0 -0.00374976 -0.0141604 -0.0302981 -0.0519013 -0.0786582 -0.110182 -0.146019 -0.185625 -0.228315 -0.273202 -0.319777 -0.367409 -0.414373 -0.462168 -0.507918 -0.562606 -0.597082 -0.629389 -0.662724 -0.69175 -0.715367 -0.73327 -0.745668 -0.751412 -0.751512 -0.74616 -0.7344 -0.717674 -0.695261 -0.668435 -0.636865 -0.601565 -0.563121 -0.521904 -0.478449 -0.43354 -0.387926 -0.342405 -0.297017 -0.250812 -0.197964 -0.170634 -0.132877 -0.0963756 -0.00828084 -0.0458498 -0.0260989 -0.0117113 -0.00294449 -3.19181e-26 0 -0.00356186 -0.0135989 -0.0292432 -0.050195 -0.0761374 -0.106697 -0.141403 -0.179742 -0.221235 -0.265082 -0.310408 -0.35645 -0.401705 -0.447245 -0.490784 -0.542117 -0.575219 -0.610537 -0.642985 -0.670907 -0.693489 -0.710517 -0.722315 -0.72775 -0.727659 -0.721933 -0.709923 -0.692968 -0.672188 -0.645123 -0.614463 -0.580326 -0.544303 -0.503727 -0.461649 -0.418226 -0.374037 -0.330034 -0.286585 -0.243659 -0.201174 -0.163142 -0.128525 -0.095876 -0.060645 -0.0442923 -0.025183 -0.0112916 -0.00284661 -3.0792e-26 0 -0.00329591 -0.0127132 -0.0275724 -0.0475943 -0.0724306 -0.101693 -0.13494 -0.171653 -0.211246 -0.253087 -0.296438 -0.340593 -0.384659 -0.428527 -0.480593 -0.51314 -0.548977 -0.583118 -0.613928 -0.640082 -0.661104 -0.676961 -0.688036 -0.693027 -0.693299 -0.685494 -0.664197 -0.573062 82.4945 401.572 -0.527943 -0.538906 -0.509916 -0.476487 -0.437015 -0.396113 -0.354206 -0.312364 -0.271118 -0.230964 -0.191663 -0.15232 -0.122131 -0.0911847 -0.063762 -0.0418814 -0.0239392 -0.0103508 -0.00270457 -2.91897e-26 0 -0.00302846 -0.0117028 -0.025537 -0.0442776 -0.0675694 -0.0950271 -0.126237 -0.160729 -0.197934 -0.237236 -0.277816 -0.319677 -0.361062 -0.401046 -0.445413 -0.480121 -0.514613 -0.54665 -0.575137 -0.599088 -0.618362 -0.633382 -0.643906 -0.64852 -0.610986 -0.640298 -0.624412 -0.61112 -0.593888 -0.567918 -0.541228 -0.509187 -0.434595 5.01548 -0.402158 -0.366156 -0.328171 -0.2898 -0.251389 -0.21421 -0.178289 -0.143681 -0.108016 -0.0849245 -0.059863 -0.040075 -0.0223504 -0.00966385 -0.00251984 -2.71361e-26 0 -0.00273147 -0.0105187 -0.023033 -0.0401581 -0.0616037 -0.0869905 -0.115882 -0.147799 -0.182209 -0.218497 -0.256132 -0.293819 -0.332774 -0.385712 -0.405973 -0.439625 -0.472029 -0.501614 -0.527422 -0.548975 -0.566675 -0.58128 -0.594055 -0.599998 -0.587727 -0.579742 -0.571656 -0.557886 -0.539749 -0.458586 -0.492622 -0.463843 -0.431742 -0.377905 -0.365418 -0.320669 -0.293192 -0.261881 -0.227786 -0.193987 -0.161708 -0.13083 -0.101102 -0.0778672 -0.0548711 -0.129069 -0.0204123 -0.00914202 -0.00229422 -2.46627e-26 0 -0.00242092 -0.00931098 -0.0203762 -0.0355643 -0.0546749 -0.0773994 -0.103348 -0.132071 -0.163087 -0.195857 -0.229713 -0.263977 -0.298653 -0.340222 -0.363917 -0.393732 -0.42255 -0.448824 -0.471476 -0.490582 -0.506502 -0.520727 -0.524148 -0.527649 -0.52379 -0.515184 -0.507676 -0.494567 -0.47717 -0.37336 -0.434757 -0.410085 -0.381065 -0.345843 -0.324784 -0.293755 -0.20101 -0.227736 -0.200171 -0.170731 -0.14236 -0.115425 -0.0900712 0.197378 -0.0458061 -0.0271274 0.00269488 -0.00792518 -0.00199508 -2.18079e-26 0 -0.00208372 -0.00800385 -0.017486 -0.0305186 -0.0470469 -0.0668832 -0.0896729 -0.114953 -0.14223 -0.17102 -0.200635 -0.230678 -0.260562 -0.290485 -0.31579 -0.342094 -0.36684 -0.38913 -0.408383 -0.424616 -0.437321 -0.445947 -0.450502 -0.453034 -0.450777 -0.444484 -0.435128 -0.423487 -0.40887 -0.379231 -0.357262 -0.346634 -0.324449 -0.299275 -0.274254 -0.249052 -22.0398 -0.1707 -0.168817 -0.144779 -0.120702 -0.0979091 -0.0764948 -0.0428402 -0.0336215 -0.0260105 -0.0112536 -0.00502863 -0.00161453 -1.86152e-26 0 -0.00170964 -0.00656824 -0.0143609 -0.0250753 -0.0386797 -0.0550801 -0.0740743 -0.0953445 -0.118445 -0.142903 -0.167893 -0.193483 -0.218762 -0.240616 -0.262853 -0.28493 -0.305348 -0.32341 -0.339102 -0.352676 -0.363127 -0.366826 -0.370832 -0.372604 -0.372241 -0.363378 -0.354057 -0.344535 -0.334177 -0.31378 -0.29721 -0.270696 -0.260416 -0.24425 -0.205002 -0.18965 83.6441 -20.4259 -0.132653 -0.116157 -0.0970695 -0.078854 -0.0617436 -0.045679 -0.0310315 -0.021187 -0.0114888 -0.00197811 -0.00129751 -1.51331e-26 0 -0.00131466 -0.00510033 -0.0112263 -0.0196752 -0.0304044 -0.0433495 -0.058413 -0.0753636 -0.0937757 -0.11319 -0.133161 -0.153479 -0.173646 -0.188795 -0.206023 -0.223356 -0.239197 -0.252874 -0.264697 -0.275053 -0.293511 -0.28364 -0.285802 -0.286755 -0.299402 -0.220081 -0.199036 -0.195608 -0.220921 -0.232949 -0.227187 -0.209571 -0.175784 -0.182308 -0.158469 -0.14221 -0.121901 0.0909561 -0.0795319 -0.0853967 -0.071785 -0.058519 -0.0460191 -0.0345426 -0.156555 -0.0159885 -0.00883212 -0.00596685 -0.00100836 -1.14136e-26 0 -0.000904217 -0.00353719 -0.00781227 -0.013713 -0.0212065 -0.0302786 -0.0409353 -0.0531256 -0.0666567 -0.081114 -0.0957973 -0.110871 -0.12563 -0.134255 -0.146141 -0.158446 -0.169454 -0.178519 -0.186332 -0.192739 -0.192623 -0.197076 -0.197506 -0.195901 -0.189392 -0.182486 -0.176752 -0.169692 -0.161708 -0.151077 -0.141771 -0.144168 -0.118192 -0.111986 -0.104342 -0.0929042 -0.0804783 -18.324 -0.0559032 -0.053652 -0.0453376 -0.0371258 -0.0293717 -0.0222157 0.00922117 -0.0101732 -0.00573104 0.000384109 -0.000634498 -7.51034e-27 0 -0.000490508 -0.00196845 -0.00445489 -0.00800185 -0.0126146 -0.0181989 -0.0247236 -0.0321646 -0.0403993 -0.0491017 -0.0580057 -0.0666597 -0.0756759 -0.0799475 -0.0848385 -0.0914057 -0.0971483 -0.10131 -0.104755 -0.107742 -0.121217 -0.118026 -0.115389 -0.275797 -0.0942042 -0.0920398 -0.0892359 -0.0852509 -0.0801423 -0.0771892 -0.00870297 -0.0519039 -0.0528062 -0.0480915 -0.0439663 -0.0374087 -0.0361122 -0.0261801 -15.7513 -0.0187555 -0.0180232 -0.0151258 -0.0122339 -0.00943375 -0.00840509 -0.00420754 -0.00247138 -0.000915657 -0.000294379 -3.45294e-27 0 -9.20103e-05 -0.000422322 -0.00105264 -0.00203427 -0.00336857 -0.00492528 -0.00678439 -0.00902287 -0.0117702 -0.0149316 -0.0179939 -0.0208534 -0.024132 -0.0397479 -0.0227081 -0.0231971 -0.0234366 -0.0226741 -0.0215582 -0.0207892 -0.0182361 -0.00823072 -0.00885979 -0.0123405 0.00658042 0.0160639 0.0192359 -0.574056 -15.0787 0.0837804 0.0286691 0.0216769 0.0182406 0.0227633 0.0725373 0.0476807 0.0104238 0.0147887 0.0137267 0.0344757 0.0094032 0.00710843 0.00513519 0.00353028 0.00219976 0.00139667 0.000937288 0.000374163 4.51049e-05 4.45924e-28 0 0.000224659 0.00102797 0.0021799 0.00372114 0.00555154 0.00756025 0.00965726 0.0119219 0.0143174 0.0168149 0.019711 0.0228531 0.0266175 0.0322882 0.0397752 0.0451849 0.0503233 0.0558233 0.0613947 0.0663597 0.0737211 0.0794868 0.0767877 0.0877055 0.141241 0.118323 0.121808 0.120171 0.116001 0.109657 0.105037 0.101407 0.121167 0.0810601 0.0842423 0.0747772 0.0676251 0.0606541 0.0534721 0.0422148 0.0367606 0.0293243 0.0224972 0.0165216 0.011373 0.00695304 0.00408046 0.00180466 0.000412698 4.34436e-27 0 -0.000143423 0.00148318 0.00513299 0.00911322 0.0141682 0.0200748 0.0266997 0.0341731 0.0422826 0.0506964 0.0597039 0.0687114 0.0787231 0.0893769 0.0824041 0.114602 0.12286 0.133173 0.143033 0.152071 0.161251 0.169748 0.175947 -0.228574 0.189367 0.195508 0.200175 0.202049 0.197127 0.202741 0.202753 -0.118283 1.20558 0.200014 0.163878 0.124651 0.124635 0.0504997 0.708027 0.0718204 0.0638367 0.0511171 0.0395354 0.0292836 0.020407 0.0125226 0.00731474 0.00336108 0.000775525 8.31101e-27 0 0.00151867 -0.00421952 0.00555858 0.0137741 0.0219869 0.0317282 0.0427067 0.0547086 0.0674397 0.0810033 0.0951099 0.110072 0.126065 0.142946 0.160252 0.101886 0.192607 0.207342 0.220197 0.232366 0.24241 0.258564 0.267644 0.275576 0.280911 0.284238 0.285451 0.284975 0.284377 0.275829 0.266092 0.256402 0.249297 0.235026 0.216326 0.19638 0.174732 0.153192 0.132545 0.120037 0.0898902 0.0721288 0.0559807 0.0416126 0.0291557 0.0184437 0.0104279 0.004721 0.00113774 1.21871e-26 0 0.00129619 0.00579842 -0.0186681 0.0143982 0.0283511 0.0421337 0.057501 0.0744136 0.0923046 0.111736 0.131548 0.152212 0.174828 0.195406 0.217184 0.691946 0.23927 0.257896 0.27323 0.286448 0.297324 0.346051 0.350906 0.359946 0.367662 0.370051 0.369261 0.365878 0.362596 0.352091 0.339626 0.326612 0.314719 0.295331 0.272159 0.247209 0.220788 0.193227 0.166342 0.141675 0.114584 0.0920537 0.0715688 0.0533081 0.0374873 0.0240818 0.0135662 0.00610506 0.00148093 1.5882e-26 0 0.00172069 0.00695746 0.0154159 -0.134519 0.0320855 0.050124 0.0707978 0.0923406 0.114501 0.140289 0.162392 0.190196 0.217056 0.243695 0.270795 0.189432 0.327744 0.353603 0.376056 0.392253 0.406867 0.422509 0.435992 0.416989 0.448286 0.45074 0.449586 0.445406 0.438896 0.426693 0.410929 0.393724 0.375438 0.351272 0.323509 0.293886 0.262915 0.230959 0.199862 0.169913 0.137376 0.110561 0.0860767 0.0642096 0.0452791 0.029451 0.0167877 0.00738888 0.00180365 1.93395e-26 0 0.00203458 0.00811204 0.0176751 0.03242 -0.0899865 0.0507238 0.0742315 0.108695 0.133128 0.166883 0.191404 0.225971 0.259071 0.287882 0.316517 0.341798 0.382355 0.410242 0.438738 0.458112 0.475169 0.492506 0.507925 0.517604 0.522761 0.530318 0.528713 0.518146 0.508459 0.492962 0.474021 0.452239 0.428958 0.400706 0.369268 0.336142 0.300908 0.264892 0.229651 0.194986 0.157943 0.127371 0.0992865 0.0741528 0.0524155 0.0344501 0.0197284 0.0084511 0.0021001 2.24961e-26 0 0.00228733 0.00910469 0.020334 0.0355306 0.053448 -0.00133948 -0.0501694 0.125332 0.140242 0.190375 0.221901 0.258653 0.294499 0.326869 0.36245 0.403868 0.434203 0.463924 0.491553 0.512732 0.535226 0.555026 0.571711 0.582869 0.588675 0.604485 0.589003 0.579458 0.571178 0.552073 0.53323 0.500759 0.475801 0.443031 0.408795 0.373396 0.334267 0.294754 0.256041 0.214609 0.176014 0.142227 0.110998 0.0829834 0.0588081 0.0389697 0.0224103 0.00938844 0.00236713 2.52961e-26 0 0.00251299 0.0100005 0.022325 0.0392315 0.0598271 0.0836397 0.118256 0.142048 0.0399302 0.21171 0.250465 0.287225 0.326254 0.363773 0.402623 0.443471 0.478154 0.509408 0.535355 0.572781 0.594358 0.603163 0.620647 0.638413 0.644786 0.647157 0.640731 0.632395 0.630875 0.603854 0.60938 0.560621 0.515138 0.479384 0.442158 0.402962 0.361943 0.319722 0.278066 0.577568 0.191447 0.154942 0.121075 0.0906199 0.0644871 0.0428841 0.0249003 0.0102517 0.00258973 2.76926e-26 0 0.00269518 0.0107245 0.0239608 0.0421049 0.0647486 0.0918602 0.120953 0.155276 0.192909 0.230466 0.269679 0.307657 0.351459 0.393358 0.434147 0.470312 0.505116 0.536756 0.613574 0.61476 0.639162 0.659715 0.662153 0.673814 0.688013 0.692968 0.685084 0.67636 0.673151 0.644679 0.626556 0.619659 0.554796 0.517747 0.469509 0.43591 0.38343 0.339965 0.296225 0.297337 0.204289 0.165373 0.12939 0.0969869 0.0696647 0.0470381 0.0264199 0.0110095 0.00276194 2.9667e-26 0 0.00283749 0.0112902 0.025206 0.0443169 0.0683269 0.0967084 0.128538 0.16396 0.201492 0.243887 0.285414 0.31076 0.371577 0.41557 0.458433 0.501402 0.542188 0.578772 0.648784 0.644384 0.672538 0.692776 0.710027 0.721819 0.725101 0.741522 0.731893 0.715204 0.696565 0.675049 0.648843 0.716348 0.57044 0.532201 0.49137 0.45936 0.406581 0.355504 0.310708 0.268749 0.214588 0.173308 0.135726 0.101953 0.0767171 0.0541446 0.0263056 0.0117453 0.00289494 3.117e-26 0 0.00293734 0.0116871 0.0260836 0.0458581 0.0707714 0.100135 0.133223 0.170593 0.209504 0.253855 0.297062 0.306249 0.388369 0.432385 0.476861 0.521357 0.562426 0.600225 0.910934 0.666343 0.695245 0.71634 0.732939 0.745352 0.751141 0.752001 0.74718 0.735617 0.719282 0.698176 0.66053 0.632389 0.591705 0.547187 0.504875 0.460743 0.42785 0.36276 0.316899 0.268272 0.221116 0.178499 0.13978 0.105496 0.0827906 0.0542049 0.0266147 0.0120432 0.00299114 3.21764e-26 0 0.00299349 0.0119105 0.0265755 0.0467213 0.0721172 0.102064 0.135883 0.17465 0.214688 0.25984 0.304197 0.347767 0.399527 0.443612 0.489245 0.533609 0.574353 0.611862 0.657957 0.680706 0.708704 0.730054 0.746584 0.757969 0.763258 0.763431 0.758051 0.745974 0.728874 0.706227 0.666942 0.63469 0.600508 0.55157 0.508517 0.465132 0.424421 0.370783 1.16472 0.268606 0.223183 0.180719 0.141805 0.108684 0.0762467 0.0476822 0.0271284 0.0121828 0.00307783 3.26795e-26 0 0.00299397 0.0119129 0.0265826 0.0467373 0.0721308 0.102104 0.136021 0.174983 0.215214 0.259992 0.304613 0.349185 0.400232 0.44486 0.491104 0.534883 0.575554 0.612871 0.644035 0.682141 0.709093 0.730383 0.746708 0.757976 0.763259 0.763477 0.758114 0.746008 0.728881 0.706209 0.691091 0.633658 0.598294 0.553834 0.508527 0.462812 0.417163 0.373505 0.327362 0.267037 0.222974 0.181103 0.142407 0.110653 0.0735928 0.0481216 0.0283033 0.0121188 0.00307948 3.26733e-26 0 0.00296765 0.0118492 0.0263033 0.0462763 0.0712867 0.100942 0.134333 0.174308 0.214411 0.255177 0.301759 0.342635 0.39752 0.442185 0.488012 0.531217 0.571687 0.608907 0.643791 0.676781 0.702777 0.722855 0.737983 0.748071 0.75176 0.750344 0.743422 0.729582 0.710387 0.684652 1.33857 0.623561 0.588333 0.54808 0.494055 0.452251 0.410254 0.364237 0.314126 0.262976 0.218794 0.177724 0.139882 0.102876 0.0723143 0.0468708 0.0279493 0.0118859 0.00299953 3.21565e-26 0 0.0028763 0.0114704 0.0255005 0.044863 0.0690529 0.0978477 0.149106 0.169211 0.208269 0.21156 0.291568 0.146269 0.382571 0.428199 0.472058 0.514703 0.554922 0.590627 0.628803 0.657027 0.681507 0.70085 