<?xml version="1.0"?>
<VTKFile type="PolyData">
	<PolyData>
		<Piece NumberOfPoints="2601" NumberOfPolys="2500">
			<Points>
				<DataArray type="Float32" NumberOfComponents="3" format="ascii">
 0 0 0 0.02 0 0 0.04 0 0 0.06 0 0 0.08 0 0 0.1 0 0 0.12 0 0 0.14 0 0 0.16 0 0 0.18 0 0 0.2 0 0 0.22 0 0 0.24 0 0 0.26 0 0 0.28 0 0 0.3 0 0 0.32 0 0 0.34 0 0 0.36 0 0 0.38 0 0 0.4 0 0 0.42 0 0 0.44 0 0 0.46 0 0 0.48 0 0 0.5 0 0 0.52 0 0 0.54 0 0 0.56 0 0 0.58 0 0 0.6 0 0 0.62 0 0 0.64 0 0 0.66 0 0 0.68 0 0 0.7 0 0 0.72 0 0 0.74 0 0 0.76 0 0 0.78 0 0 0.8 0 0 0.82 0 0 0.84 0 0 0.86 0 0 0.88 0 0 0.9 0 0 0.92 0 0 0.94 0 0 0.96 0 0 0.98 0 0 1 0 0 0 0.02 0 0.02 0.02 0 0.04 0.02 0 0.06 0.02 0 0.08 0.02 0 0.1 0.02 0 0.12 0.02 0 0.14 0.02 0 0.16 0.02 0 0.18 0.02 0 0.2 0.02 0 0.22 0.02 0 0.24 0.02 0 0.26 0.02 0 0.28 0.02 0 0.3 0.02 0 0.32 0.02 0 0.34 0.02 0 0.36 0.02 0 0.38 0.02 0 0.4 0.02 0 0.42 0.02 0 0.44 0.02 0 0.46 0.02 0 0.48 0.02 0 0.5 0.02 0 0.52 0.02 0 0.54 0.02 0 0.56 0.02 0 0.58 0.02 0 0.6 0.02 0 0.62 0.02 0 0.64 0.02 0 0.66 0.02 0 0.68 0.02 0 0.7 0.02 0 0.72 0.02 0 0.74 0.02 0 0.76 0.02 0 0.78 0.02 0 0.8 0.02 0 0.82 0.02 0 0.84 0.02 0 0.86 0.02 0 0.88 0.02 0 0.9 0.02 0 0.92 0.02 0 0.94 0.02 0 0.96 0.02 0 0.98 0.02 0 1 0.02 0 0 0.04 0 0.02 0.04 0 0.04 0.04 0 0.06 0.04 0 0.08 0.04 0 0.1 0.04 0 0.12 0.04 0 0.14 0.04 0 0.16 0.04 0 0.18 0.04 0 0.2 0.04 0 0.22 0.04 0 0.24 0.04 0 0.26 0.04 0 0.28 0.04 0 0.3 0.04 0 0.32 0.04 0 0.34 0.04 0 0.36 0.04 0 0.38 0.04 0 0.4 0.04 0 0.42 0.04 0 0.44 0.04 0 0.46 0.04 0 0.48 0.04 0 0.5 0.04 0 0.52 0.04 0 0.54 0.04 0 0.56 0.04 0 0.58 0.04 0 0.6 0.04 0 0.62 0.04 0 0.64 0.04 0 0.66 0.04 0 0.68 0.04 0 0.7 0.04 0 0.72 0.04 0 0.74 0.04 0 0.76 0.04 0 0.78 0.04 0 0.8 0.04 0 0.82 0.04 0 0.84 0.04 0 0.86 0.04 0 0.88 0.04 0 0.9 0.04 0 0.92 0.04 0 0.94 0.04 0 0.96 0.04 0 0.98 0.04 0 1 0.04 0 0 0.06 0 0.02 0.06 0 0.04 0.06 0 0.06 0.06 0 0.08 0.06 0 0.1 0.06 0 0.12 0.06 0 0.14 0.06 0 0.16 0.06 0 0.18 0.06 0 0.2 0.06 0 0.22 0.06 0 0.24 0.06 0 0.26 0.06 0 0.28 0.06 0 0.3 0.06 0 0.32 0.06 0 0.34 0.06 0 0.36 0.06 0 0.38 0.06 0 0.4 0.06 0 0.42 0.06 0 0.44 0.06 0 0.46 0.06 0 0.48 0.06 0 0.5 0.06 0 0.52 0.06 0 0.54 0.06 0 0.56 0.06 0 0.58 0.06 0 0.6 0.06 0 0.62 0.06 0 0.64 0.06 0 0.66 0.06 0 0.68 0.06 0 0.7 0.06 0 0.72 0.06 0 0.74 0.06 0 0.76 0.06 0 0.78 0.06 0 0.8 0.06 0 0.82 0.06 0 0.84 0.06 0 0.86 0.06 0 0.88 0.06 0 0.9 0.06 0 0.92 0.06 0 0.94 0.06 0 0.96 0.06 0 0.98 0.06 0 1 0.06 0 0 0.08 0 0.02 0.08 0 0.04 0.08 0 0.06 0.08 0 0.08 0.08 0 0.1 0.08 0 0.12 0.08 0 0.14 0.08 0 0.16 0.08 0 0.18 0.08 0 0.2 0.08 0 0.22 0.08 0 0.24 0.08 0 0.26 0.08 0 0.28 0.08 0 0.3 0.08 0 0.32 0.08 0 0.34 0.08 0 0.36 0.08 0 0.38 0.08 0 0.4 0.08 0 0.42 0.08 0 0.44 0.08 0 0.46 0.08 0 0.48 0.08 0 0.5 0.08 0 0.52 0.08 0 0.54 0.08 0 0.56 0.08 0 0.58 0.08 0 0.6 0.08 0 0.62 0.08 0 0.64 0.08 0 0.66 0.08 0 0.68 0.08 0 0.7 0.08 0 0.72 0.08 0 0.74 0.08 0 0.76 0.08 0 0.78 0.08 0 0.8 0.08 0 0.82 0.08 0 0.84 0.08 0 0.86 0.08 0 0.88 0.08 0 0.9 0.08 0 0.92 0.08 0 0.94 0.08 0 0.96 0.08 0 0.98 0.08 0 1 0.08 0 0 0.1 0 0.02 0.1 0 0.04 0.1 0 0.06 0.1 0 0.08 0.1 0 0.1 0.1 0 0.12 0.1 0 0.14 0.1 0 0.16 0.1 0 0.18 0.1 0 0.2 0.1 0 0.22 0.1 0 0.24 0.1 0 0.26 0.1 0 0.28 0.1 0 0.3 0.1 0 0.32 0.1 0 0.34 0.1 0 0.36 0.1 0 0.38 0.1 0 0.4 0.1 0 0.42 0.1 0 0.44 0.1 0 0.46 0.1 0 0.48 0.1 0 0.5 0.1 0 0.52 0.1 0 0.54 0.1 0 0.56 0.1 0 0.58 0.1 0 0.6 0.1 0 0.62 0.1 0 0.64 0.1 0 0.66 0.1 0 0.68 0.1 0 0.7 0.1 0 0.72 0.1 0 0.74 0.1 0 0.76 0.1 0 0.78 0.1 0 0.8 0.1 0 0.82 0.1 0 0.84 0.1 0 0.86 0.1 0 0.88 0.1 0 0.9 0.1 0 0.92 0.1 0 0.94 0.1 0 0.96 0.1 0 0.98 0.1 0 1 0.1 0 0 0.12 0 0.02 0.12 0 0.04 0.12 0 0.06 0.12 0 0.08 0.12 0 0.1 0.12 0 0.12 0.12 0 0.14 0.12 0 0.16 0.12 0 0.18 0.12 0 0.2 0.12 0 0.22 0.12 0 0.24 0.12 0 0.26 0.12 0 0.28 0.12 0 0.3 0.12 0 0.32 0.12 0 0.34 0.12 0 0.36 0.12 0 0.38 0.12 0 0.4 0.12 0 0.42 0.12 0 0.44 0.12 0 0.46 0.12 0 0.48 0.12 0 0.5 0.12 0 0.52 0.12 0 0.54 0.12 0 0.56 0.12 0 0.58 0.12 0 0.6 0.12 0 0.62 0.12 0 0.64 0.12 0 0.66 0.12 0 0.68 0.12 0 0.7 0.12 0 0.72 0.12 0 0.74 0.12 0 0.76 0.12 0 0.78 0.12 0 0.8 0.12 0 0.82 0.12 0 0.84 0.12 0 0.86 0.12 0 0.88 0.12 0 0.9 0.12 0 0.92 0.12 0 0.94 0.12 0 0.96 0.12 0 0.98 0.12 0 1 0.12 0 0 0.14 0 0.02 0.14 0 0.04 0.14 0 0.06 0.14 0 0.08 0.14 0 0.1 0.14 0 0.12 0.14 0 0.14 0.14 0 0.16 0.14 0 0.18 0.14 0 0.2 0.14 0 0.22 0.14 0 0.24 0.14 0 0.26 0.14 0 0.28 0.14 0 0.3 0.14 0 0.32 0.14 0 0.34 0.14 0 0.36 0.14 0 0.38 0.14 0 0.4 0.14 0 0.42 0.14 0 0.44 0.14 0 0.46 0.14 0 0.48 0.14 0 0.5 0.14 0 0.52 0.14 0 0.54 0.14 0 0.56 0.14 0 0.58 0.14 0 0.6 0.14 0 0.62 0.14 0 0.64 0.14 0 0.66 0.14 0 0.68 0.14 0 0.7 0.14 0 0.72 0.14 0 0.74 0.14 0 0.76 0.14 0 0.78 0.14 0 0.8 0.14 0 0.82 0.14 0 0.84 0.14 0 0.86 0.14 0 0.88 0.14 0 0.9 0.14 0 0.92 0.14 0 0.94 0.14 0 0.96 0.14 0 0.98 0.14 0 1 0.14 0 0 0.16 0 0.02 0.16 0 0.04 0.16 0 0.06 0.16 0 0.08 0.16 0 0.1 0.16 0 0.12 0.16 0 0.14 0.16 0 0.16 0.16 0 0.18 0.16 0 0.2 0.16 0 0.22 0.16 0 0.24 0.16 0 0.26 0.16 0 0.28 0.16 0 0.3 0.16 0 0.32 0.16 0 0.34 0.16 0 0.36 0.16 0 0.38 0.16 0 0.4 0.16 0 0.42 0.16 0 0.44 0.16 0 0.46 0.16 0 0.48 0.16 0 0.5 0.16 0 0.52 0.16 0 0.54 0.16 0 0.56 0.16 0 0.58 0.16 0 0.6 0.16 0 0.62 0.16 0 0.64 0.16 0 0.66 0.16 0 0.68 0.16 0 0.7 0.16 0 0.72 0.16 0 0.74 0.16 0 0.76 0.16 0 0.78 0.16 0 0.8 0.16 0 0.82 0.16 0 0.84 0.16 0 0.86 0.16 0 0.88 0.16 0 0.9 0.16 0 0.92 0.16 0 0.94 0.16 0 0.96 0.16 0 0.98 0.16 0 1 0.16 0 0 0.18 0 0.02 0.18 0 0.04 0.18 0 0.06 0.18 0 0.08 0.18 0 0.1 0.18 0 0.12 0.18 0 0.14 0.18 0 0.16 0.18 0 0.18 0.18 0 0.2 0.18 0 0.22 0.18 0 0.24 0.18 0 0.26 0.18 0 0.28 0.18 0 0.3 0.18 0 0.32 0.18 0 0.34 0.18 0 0.36 0.18 0 0.38 0.18 0 0.4 0.18 0 0.42 0.18 0 0.44 0.18 0 0.46 0.18 0 0.48 0.18 0 0.5 0.18 0 0.52 0.18 0 0.54 0.18 0 0.56 0.18 0 0.58 0.18 0 0.6 0.18 0 0.62 0.18 0 0.64 0.18 0 0.66 0.18 0 0.68 0.18 0 0.7 0.18 0 0.72 0.18 0 0.74 0.18 0 0.76 0.18 0 0.78 0.18 0 0.8 0.18 0 0.82 0.18 0 0.84 0.18 0 0.86 0.18 0 0.88 0.18 0 0.9 0.18 0 0.92 0.18 0 0.94 0.18 0 0.96 0.18 0 0.98 0.18 0 1 0.18 0 0 0.2 0 0.02 0.2 0 0.04 0.2 0 0.06 0.2 0 0.08 0.2 0 0.1 0.2 0 0.12 0.2 0 0.14 0.2 0 0.16 0.2 0 0.18 0.2 0 0.2 0.2 0 0.22 0.2 0 0.24 0.2 0 0.26 0.2 0 0.28 0.2 0 0.3 0.2 0 0.32 0.2 0 0.34 0.2 0 0.36 0.2 0 0.38 0.2 0 0.4 0.2 0 0.42 0.2 0 0.44 0.2 0 0.46 0.2 0 0.48 0.2 0 0.5 0.2 0 0.52 0.2 0 0.54 0.2 0 0.56 0.2 0 0.58 0.2 0 0.6 0.2 0 0.62 0.2 0 0.64 0.2 0 0.66 0.2 0 0.68 0.2 0 0.7 0.2 0 0.72 0.2 0 0.74 0.2 0 0.76 0.2 0 0.78 0.2 0 0.8 0.2 0 0.82 0.2 0 0.84 0.2 0 0.86 0.2 0 0.88 0.2 0 0.9 0.2 0 0.92 0.2 0 0.94 0.2 0 0.96 0.2 0 0.98 0.2 0 1 0.2 0 0 0.22 0 0.02 0.22 0 0.04 0.22 0 0.06 0.22 0 0.08 0.22 0 0.1 0.22 0 0.12 0.22 0 0.14 0.22 0 0.16 0.22 0 0.18 0.22 0 0.2 0.22 0 0.22 0.22 0 0.24 0.22 0 0.26 0.22 0 0.28 0.22 0 0.3 0.22 0 0.32 0.22 0 0.34 0.22 0 0.36 0.22 0 0.38 0.22 0 0.4 0.22 0 0.42 0.22 0 0.44 0.22 0 0.46 0.22 0 0.48 0.22 0 0.5 0.22 0 0.52 0.22 0 0.54 0.22 0 0.56 0.22 0 0.58 0.22 0 0.6 0.22 0 0.62 0.22 0 0.64 0.22 0 0.66 0.22 0 0.68 0.22 0 0.7 0.22 0 0.72 0.22 0 0.74 0.22 0 0.76 0.22 0 0.78 0.22 0 0.8 0.22 0 0.82 0.22 0 0.84 0.22 0 0.86 0.22 0 0.88 0.22 0 0.9 0.22 0 0.92 0.22 0 0.94 0.22 0 0.96 0.22 0 0.98 0.22 0 1 0.22 0 0 0.24 0 0.02 0.24 0 0.04 0.24 0 0.06 0.24 0 0.08 0.24 0 0.1 0.24 0 0.12 0.24 0 0.14 0.24 0 0.16 0.24 0 0.18 0.24 0 0.2 0.24 0 0.22 0.24 0 0.24 0.24 0 0.26 0.24 0 0.28 0.24 0 0.3 0.24 0 0.32 0.24 0 0.34 0.24 0 0.36 0.24 0 0.38 0.24 0 0.4 0.24 0 0.42 0.24 0 0.44 0.24 0 0.46 0.24 0 0.48 0.24 0 0.5 0.24 0 0.52 0.24 0 0.54 0.24 0 0.56 0.24 0 0.58 0.24 0 0.6 0.24 0 0.62 0.24 0 0.64 0.24 0 0.66 0.24 0 0.68 0.24 0 0.7 0.24 0 0.72 0.24 0 0.74 0.24 0 0.76 0.24 0 0.78 0.24 0 0.8 0.24 0 0.82 0.24 0 0.84 0.24 0 0.86 0.24 0 0.88 0.24 0 0.9 0.24 0 0.92 0.24 0 0.94 0.24 0 0.96 0.24 0 0.98 0.24 0 1 0.24 0 0 0.26 0 0.02 0.26 0 0.04 0.26 0 0.06 0.26 0 0.08 0.26 0 0.1 0.26 0 0.12 0.26 0 0.14 0.26 0 0.16 0.26 0 0.18 0.26 0 0.2 0.26 0 0.22 0.26 0 0.24 0.26 0 0.26 0.26 0 0.28 0.26 0 0.3 0.26 0 0.32 0.26 0 0.34 0.26 0 0.36 0.26 0 0.38 0.26 0 0.4 0.26 0 0.42 0.26 0 0.44 0.26 0 0.46 0.26 0 0.48 0.26 0 0.5 0.26 0 0.52 0.26 0 0.54 0.26 0 0.56 0.26 0 0.58 0.26 0 0.6 0.26 0 0.62 0.26 0 0.64 0.26 0 0.66 0.26 0 0.68 0.26 0 0.7 0.26 0 0.72 0.26 0 0.74 0.26 0 0.76 0.26 0 0.78 0.26 0 0.8 0.26 0 0.82 0.26 0 0.84 0.26 0 0.86 0.26 0 0.88 0.26 0 0.9 0.26 0 0.92 0.26 0 0.94 0.26 0 0.96 0.26 0 0.98 0.26 0 1 0.26 0 0 0.28 0 0.02 0.28 0 0.04 0.28 0 0.06 0.28 0 0.08 0.28 0 0.1 0.28 0 0.12 0.28 0 0.14 0.28 0 0.16 0.28 0 0.18 0.28 0 0.2 0.28 0 0.22 0.28 0 0.24 0.28 0 0.26 0.28 0 0.28 0.28 0 0.3 0.28 0 0.32 0.28 0 0.34 0.28 0 0.36 0.28 0 0.38 0.28 0 0.4 0.28 0 0.42 0.28 0 0.44 0.28 0 0.46 0.28 0 0.48 0.28 0 0.5 0.28 0 0.52 0.28 0 0.54 0.28 0 0.56 0.28 0 0.58 0.28 0 0.6 0.28 0 0.62 0.28 0 0.64 0.28 0 0.66 0.28 0 0.68 0.28 0 0.7 0.28 0 0.72 0.28 0 0.74 0.28 0 0.76 0.28 0 0.78 0.28 0 0.8 0.28 0 0.82 0.28 0 0.84 0.28 0 0.86 0.28 0 0.88 0.28 0 0.9 0.28 0 0.92 0.28 0 0.94 0.28 0 0.96 0.28 0 0.98 0.28 0 1 0.28 0 0 0.3 0 0.02 0.3 0 0.04 0.3 0 0.06 0.3 0 0.08 0.3 0 0.1 0.3 0 0.12 0.3 0 0.14 0.3 0 0.16 0.3 0 0.18 0.3 0 0.2 0.3 0 0.22 0.3 0 0.24 0.3 0 0.26 0.3 0 0.28 0.3 0 0.3 0.3 0 0.32 0.3 0 0.34 0.3 0 0.36 0.3 0 0.38 0.3 0 0.4 0.3 0 0.42 0.3 0 0.44 0.3 0 0.46 0.3 0 0.48 0.3 0 0.5 0.3 0 0.52 0.3 0 0.54 0.3 0 0.56 0.3 0 0.58 0.3 0 0.6 0.3 0 0.62 0.3 0 0.64 0.3 0 0.66 0.3 0 0.68 0.3 0 0.7 0.3 0 0.72 0.3 0 0.74 0.3 0 0.76 0.3 0 0.78 0.3 0 0.8 0.3 0 0.82 0.3 0 0.84 0.3 0 0.86 0.3 0 0.88 0.3 0 0.9 0.3 0 0.92 0.3 0 0.94 0.3 0 0.96 0.3 0 0.98 0.3 0 1 0.3 0 0 0.32 0 0.02 0.32 0 0.04 0.32 0 0.06 0.32 0 0.08 0.32 0 0.1 0.32 0 0.12 0.32 0 0.14 0.32 0 0.16 0.32 0 0.18 0.32 0 0.2 0.32 0 0.22 0.32 0 0.24 0.32 0 0.26 0.32 0 0.28 0.32 0 0.3 0.32 0 0.32 0.32 0 0.34 0.32 0 0.36 0.32 0 0.38 0.32 0 0.4 0.32 0 0.42 0.32 0 0.44 0.32 0 0.46 0.32 0 0.48 0.32 0 0.5 0.32 0 0.52 0.32 0 0.54 0.32 0 0.56 0.32 0 0.58 0.32 0 0.6 0.32 0 0.62 0.32 0 0.64 0.32 0 0.66 0.32 0 0.68 0.32 0 0.7 0.32 0 0.72 0.32 0 0.74 0.32 0 0.76 0.32 0 0.78 0.32 0 0.8 0.32 0 0.82 0.32 0 0.84 0.32 0 0.86 0.32 0 0.88 0.32 0 0.9 0.32 0 0.92 0.32 0 0.94 0.
[...]
			<PointData Scalars="VitesseX">
				<DataArray Name="VitesseX" type="Float32" format="ascii">
 0 0 -0 0 0 0 0 0 0 0 0 0 0 0 0 0 0 0 0 0 0 0 0 0 0 0 0 0 0 0 0 0 0 0 0 0 0 0 0 0 0 0 0 0 0 0 0 0 0 0 0 0 0.000368062 0.0022992 0.00309633 0.00551249 0.00832474 0.0117676 0.0161951 0.0200021 0.0247391 0.0294291 0.034451 0.0396162 0.0449026 0.050053 0.0550791 0.0598206 0.0648862 0.065472 0.0723287 0.0757417 0.0766322 0.078437 0.0801534 0.082226 0.0884432 0.0806783 0.0787638 0.07597 0.0731299 0.0715808 0.0703364 0.066654 0.0625037 0.0580517 0.0533106 0.0483285 0.0432627 0.0381661 0.0330963 0.0281519 0.0233953 0.0189761 0.0148977 0.0113109 0.00781916 0.00517234 0.00294635 0.00132341 0.00033549 3.48156e-27 0 0.000675433 0.0043491 0.00586788 0.0103803 0.0158678 0.0224704 0.0301661 0.0383589 0.0474334 0.0569452 0.0668906 0.0769825 0.0872271 0.0972605 0.107072 0.116284 0.125267 0.13321 0.138282 0.146391 0.156258 0.164657 0.161039 0.16024 0.161567 0.160857 0.157439 0.15502 0.151436 0.146688 0.140002 0.132505 0.124331 0.115467 0.106098 0.0963362 0.0861986 0.0760087 0.0660016 0.0561257 0.0466829 0.0377931 0.029581 0.0221818 0.0157046 0.0102421 0.00587776 0.00267715 0.000689393 6.90877e-27 0 0.000972747 0.00624027 0.00852416 0.0150881 0.023154 0.0328492 0.0438875 0.056093 0.0683582 0.0832265 0.097653 0.112756 0.127703 0.14267 0.157212 0.170741 0.183953 0.196536 0.205089 0.211735 0.223639 0.232208 0.238559 0.238523 0.238834 0.23856 0.235523 0.231303 0.225035 0.217135 0.207225 0.196144 0.184054 0.170935 0.157069 0.142657 0.127638 0.112518 0.0976805 0.0831364 0.0691677 0.0560899 0.0439182 0.0329128 0.0232864 0.0151799 0.00870985 0.00397024 0.00105783 1.0225e-26 0 0.001255 0.00806817 0.0110491 0.0195004 0.0300693 0.0427229 0.0570448 0.0729534 0.0899507 0.108776 0.12725 0.146803 0.166265 0.185934 0.205196 0.223347 0.240405 0.256136 0.270426 0.2761 0.291386 0.301159 0.307747 0.312004 0.312791 0.310403 0.306712 0.302846 0.294626 0.284124 0.271148 0.25669 0.240874 0.222887 0.205464 0.186694 0.165088 0.17069 0.130233 0.108103 0.090086 0.0728605 0.0570646 0.0428275 0.0303052 0.0197833 0.0113599 0.00518165 0.00133874 1.33834e-26 0 0.00151783 0.0100062 0.0134227 0.023621 0.0365111 0.0517535 0.0693445 0.0887013 0.10955 0.132395 0.154871 0.17845 0.202149 0.226224 0.249683 0.271737 0.29241 0.311651 0.328982 0.344464 0.506417 0.366783 0.374934 0.380062 0.381687 0.380636 0.376567 0.369126 0.35878 0.34581 0.330297 0.313701 0.295276 0.273779 0.251334 0.228185 0.203938 0.179712 0.155669 0.132347 0.116597 0.0979561 0.0698798 0.0519275 0.0369947 0.0241628 0.0139439 0.00635509 0.00162961 1.6326e-26 0 0.00175468 0.0115206 0.0155321 0.0278338 0.0423923 0.0600597 0.0805682 0.103008 0.12712 0.153767 0.179837 0.207085 0.234897 0.26279 0.289906 0.315547 0.339703 0.362388 0.382361 0.400158 0.41492 0.425672 0.436539 0.442536 0.444549 0.443391 0.438656 0.43019 0.418421 0.403836 0.386875 0.366125 0.344082 0.319346 0.293112 0.266058 0.238362 0.209818 0.181727 0.154708 0.12882 0.10436 0.081968 0.0615092 0.0435286 0.028394 0.0163187 0.00745199 0.00192112 1.90121e-26 0 0.00192124 0.0159296 0.0166548 0.0291278 0.0474873 0.0600188 0.0900327 0.115631 0.142748 0.172471 0.202111 0.232096 0.26357 0.294974 0.325163 0.354377 0.381642 0.406802 0.429523 0.449956 0.467572 0.481493 0.491302 0.497977 0.500556 0.500622 0.490633 0.485176 0.471202 0.454883 0.436011 0.412034 0.387313 0.359755 0.330088 0.299502 0.269632 0.236265 0.204765 0.174395 0.145205 0.117708 0.0921909 0.0692599 0.0491044 0.0320871 0.0184458 0.00841736 0.00217486 2.13997e-26 0 0.00143765 0.00820455 0.0178525 0.0336778 0.0514721 0.0465982 0.0981502 0.1262 0.156117 0.188781 0.221071 0.254238 0.288559 0.322207 0.355072 0.387314 0.417233 0.443227 19.7061 0.468656 9.07608 0.529155 0.538522 0.545621 0.545196 0.542957 0.537458 0.525709 0.503559 0.437347 2.0384 1.77935 1.59164 0.606715 0.35966 0.327939 0.296703 0.258933 0.224672 0.191354 0.159284 0.129043 0.101017 0.0757286 0.0535106 0.0351395 0.0202505 0.00930324 0.00242518 2.34485e-26 0 0.00176258 0.00919375 0.0299936 0.0359954 0.0554935 0.0779174 0.105344 0.134916 0.160171 0.200025 0.236041 0.272148 0.308534 0.344467 0.379896 0.414444 0.445709 31.7607 -1.8759 0.463406 0.546363 0.565388 0.576715 0.584552 0.587393 0.586144 0.580071 0.569139 0.554011 0.534947 0.512018 0.485431 0.455923 0.423732 0.388757 0.351495 0.305172 0.27775 0.241495 0.205205 0.170725 0.138274 0.108339 0.0812119 0.0574523 0.0376557 0.0216802 0.00982703 0.00245293 2.51362e-26 0 -0.00693953 0.00933032 0.0721286 0.0377367 0.053419 0.0825316 0.11079 0.141634 0.17513 0.210145 0.247399 0.28546 0.323426 0.361379 0.39803 -7.72662 26.6898 25.5795 0.526402 0.552992 0.574868 0.592548 0.605549 0.614172 0.617451 0.616317 0.610285 0.59905 0.583393 0.563351 0.539225 0.51138 0.480195 0.446169 0.409765 0.371635 0.332801 0.293608 0.282946 0.238843 0.178268 0.145345 0.114049 0.0854818 0.0603959 0.0396287 0.022738 0.0102236 0.00255625 2.64163e-26 0 0.00221028 0.00948686 0.0217025 0.0385392 0.0533339 0.0851503 0.114305 0.141093 0.180847 0.217515 0.255256 0.294352 0.33388 0.372902 0.409877 32.574 0.441022 0.514607 0.544966 0.571361 0.593756 0.611842 0.62531 0.634302 0.637723 0.636649 0.630616 0.619184 0.603177 0.582566 0.557703 0.52899 0.496783 0.461644 0.424158 0.384811 0.344557 0.30425 0.264313 0.225242 0.200181 0.150199 0.118197 0.0882446 0.0621847 0.0409178 0.0233534 0.010293 0.00255962 2.72879e-26 0 0.00254275 0.0101201 0.0225704 0.0392743 0.060867 0.0866203 0.115758 0.147314 0.182909 0.220137 0.258615 0.298019 0.338037 0.377234 34.3456 0.449818 0.487291 0.521694 0.552378 0.579139 0.601978 0.620572 0.634553 0.643984 0.647896 0.646978 0.641188 0.629812 0.613798 0.593036 0.567899 0.538809 0.506151 0.470405 0.432299 0.392339 0.35131 0.309922 0.268771 0.229521 0.200307 0.168796 0.120485 0.0901445 0.0636613 0.0412392 0.0231963 0.0103726 0.00261023 2.77237e-26 0 0.00254268 0.0101202 0.0225834 0.0397167 0.061314 0.0868076 0.115665 0.148557 0.183328 0.219938 0.258249 0.29745 0.336457 0.374404 0.414632 0.452482 0.488739 0.522115 0.552331 0.579125 0.601973 0.620546 0.63456 0.643985 0.647858 0.646977 0.641198 0.629889 0.613983 0.593235 0.568086 0.539141 0.506454 0.470533 0.432424 0.392502 0.351494 0.309996 0.268548 0.228549 0.191393 0.168967 0.119501 0.0905059 0.0631967 0.0407864 0.023032 0.0103689 0.00262281 2.77258e-26 0 0.00250068 0.00994978 0.0221894 0.0390172 0.0601864 0.0851908 0.113411 0.145589 0.179664 0.215524 0.252575 0.290365 0.329419 0.354526 0.406275 0.444753 0.479922 0.5124 0.542181 0.568659 0.591249 0.609664 0.623633 0.633207 0.63761 0.637481 0.633652 0.623457 0.610153 0.589916 0.563174 0.534377 0.501515 0.466104 0.428012 0.388197 0.347717 0.306753 0.265771 0.225858 0.188071 0.153355 0.115624 0.0837487 0.0723086 0.0401822 0.0224831 0.0100881 0.00271962 2.72941e-26 0 0.00241994 0.00962848 0.0214566 0.0377267 0.0581463 0.0822908 0.109509 0.14054 0.173328 0.207756 0.243451 0.279884 53.6466 0.352383 0.39319 0.429358 0.463202 0.494724 0.523701 0.549378 0.571059 0.588555 0.601871 0.608633 0.617466 0.616864 0.612052 0.601393 0.586307 0.567189 0.545474 0.516294 0.526077 0.462971 0.416933 0.376785 0.33715 0.297433 0.257887 0.219146 0.18224 0.14854 0.113242 0.0791704 0.0755743 0.0384143 0.0218703 0.00988662 0.00261295 2.64426e-26 0 0.0023014 0.00915666 0.0203805 0.0358312 0.0551924 0.0781142 0.103875 0.133215 0.16436 0.197172 0.23114 0.265189 0.289494 0.336633 0.373071 0.406937 0.438946 0.469145 0.496699 0.52076 0.540732 0.540007 0.541074 0.583418 0.587459 0.58707 0.583286 0.57381 0.559104 0.541129 0.520009 0.492469 0.463263 0.43122 0.411059 0.362299 0.322172 0.283885 0.246176 0.209208 0.173708 0.140592 0.110788 0.0936902 0.0566134 0.0367285 0.0209419 0.0093036 0.00232825 2.51367e-26 0 0.00214486 0.00852583 0.0189727 0.0333292 0.0513075 0.0725381 0.15697 0.123134 0.1526 0.183315 0.21497 0.246165 0.277409 0.312998 0.346356 0.377889 0.40794 0.436101 0.461403 0.48323 0.482489 0.410111 0.534933 0.542794 0.54335 0.543158 0.544634 0.534871 0.521529 0.504948 0.488169 0.460933 0.433772 0.403942 0.372265 0.40921 0.305799 0.266355 0.230652 0.195928 0.16259 0.131405 0.103027 0.080708 0.059957 0.0346363 0.0194172 0.00870755 0.00231183 2.34807e-26 0 0.00194671 0.00604047 0.0172478 0.0302501 0.0464795 0.0655758 0.0216646 0.11142 0.138132 0.159112 0.187541 0.21562 0.253029 0.284849 0.314152 0.342706 0.37029 0.396034 0.418524 0.434748 0.112115 0.476651 0.487436 0.495284 0.49904 0.499403 0.499249 0.489974 0.477598 0.46256 0.448127 0.422582 0.397956 0.370542 0.341546 0.310524 0.325789 0.248105 0.211849 0.179666 0.149182 0.120508 0.0942144 0.0711436 0.0574303 0.0313568 0.0178023 0.00801413 0.00212249 2.1827e-26 0 0.00172757 0.00491716 0.0152584 0.0268736 0.0410551 0.0581606 0.0745066 0.0985948 0.121712 0.145663 0.170673 0.195337 0.22431 0.251061 0.276912 0.302101 0.326446 0.349029 0.368951 0.367894 0.394579 0.422816 0.432475 0.43958 0.443704 0.443844 0.442008 0.436365 0.426855 0.413348 0.402016 0.377957 0.355954 0.331544 0.305635 0.277921 0.249529 0.236918 0.191217 0.160889 0.133413 0.107591 0.0839164 0.0627307 0.0878148 0.0323078 0.0160003 0.00709419 0.00178138 1.97392e-26 0 0.00149247 0.00529497 0.0130677 0.0197617 0.0350011 0.0493289 0.0654668 0.0845467 0.104529 0.124334 0.145866 0.167332 0.190544 0.212979 0.235021 0.256611 0.277317 0.296156 0.311237 0.326376 0.349826 0.362461 0.370626 0.376921 0.380962 0.381268 0.380155 0.375128 0.36715 0.356363 0.349553 0.328329 0.308251 0.287491 0.265221 0.241321 0.216461 0.19087 0.166882 0.139637 0.115524 0.093163 0.0726262 0.0542828 0.0387387 0.0242572 0.0137336 0.00632072 0.00151777 1.67806e-26 0 0.00119069 0.00453043 0.0104747 0.017277 0.0282963 0.0378296 0.0535182 0.0691828 0.0861976 0.100869 0.118241 -16.3124 0.1525 0.171774 0.189372 0.206962 0.223739 0.239016 0.251188 0.264898 0.279752 0.289701 0.295751 0.305178 0.312299 0.312989 0.312996 0.309103 0.302708 0.293946 0.284323 0.271537 0.256156 0.238876 0.220393 0.200465 0.179838 0.158785 0.137195 0.116491 0.0961623 0.0773937 0.0602429 0.0449016 0.0316035 0.0200707 0.0113696 0.00506899 0.00124763 1.34756e-26 0 0.000573384 0.00337121 0.00780278 0.0135707 0.0210719 0.0290382 0.0384549 0.0494611 24.5159 0.0751787 0.0875549 450.418 0.113526 0.12728 0.140608 0.153916 0.166577 0.178084 0.187239 0.201239 0.211991 0.220322 0.22651 0.230953 0.239713 0.246278 0.242074 0.238331 0.234329 0.227855 0.22087 0.21129 0.199882 0.186895 0.172222 0.156565 0.140624 0.124359 0.108713 0.0953809 0.0752961 0.0603408 0.0468962 0.0348696 0.0244534 0.0156546 0.00866217 0.00386749 0.000960553 1.03769e-26 0 0.000325973 0.00230664 0.005128 0.00883963 0.0135405 0.0173127 0.608261 -0.621784 0.0364861 0.0470099 0.0514961 0.0349441 0.072185 0.0808226 0.0895082 0.0983188 0.106825 0.114761 0.123747 0.132203 0.139594 0.145932 0.150938 0.155098 0.160792 0.162892 0.164404 0.165323 0.163279 0.158907 0.154494 0.148239 0.140583 0.131628 0.121991 0.111087 0.0995032 0.101968 0.328359 0.239522 0.0529052 0.0423722 0.0328781 0.0243602 0.0170355 0.0116993 0.00617105 0.00265756 0.000658891 7.06436e-27 0 0.00028073 0.00110251 0.00237854 0.00409984 0.00591183 0.0040577 0.00927466 0.0110499 0.0167959 0.0201228 0.0183251 0.0226015 0.0293387 0.0330489 0.0369082 0.0410513 0.0453037 0.0491509 0.0516 0.0601588 0.0650141 0.068889 0.072207 0.076161 0.0813825 0.0832203 0.0850224 0.0952521 0.0917508 0.0876885 0.0981865 0.0834089 0.0789837 0.0804638 0.0713159 0.0587673 0.0574126 0.0495527 0.0447276 0.0382567 0.0298293 0.0238622 0.0183905 0.0135023 0.0093496 0.00597816 0.00306717 0.00144616 0.000381842 3.58315e-27 0 -2.62339e-05 -0.000162435 -0.000469733 -0.000936333 -0.00157052 -0.00296155 -0.00305819 -0.00434736 -0.00563739 -0.00675188 -0.0105759 -0.0139579 -0.0138878 -0.0152318 -0.0163382 -0.0169346 -0.0171555 -0.0173441 -0.0174217 -0.0129398 -0.0108582 -0.00921431 -0.007877 -0.00512695 0.000257109 0.00287261 0.00550168 0.0082539 0.011884 0.0135985 0.015723 0.0175863 0.0170759 0.00981939 0.00889548 0.0115618 0.0149716 0.0112924 0.010094 0.00875066 0.00696985 0.00503381 0.00364951 0.002471 0.00155604 0.000853071 0.000342668 0.000689512 4.67481e-05 1.62749e-28 0 -0.000352635 -0.00144244 -0.00328965 -0.00589477 -0.00925374 -0.013598 -0.0171707 -0.0216211 -0.0267211 -0.0393593 -0.0389044 -0.0443063 -0.057117 -0.063526 -0.0695301 -0.0748677 -0.0794863 -0.0833507 -0.0865216 -0.0890838 -0.0882521 -0.0882874 -0.0881115 -0.0833641 -0.0659866 -0.0623003 -0.0726782 -0.0699936 -0.0694907 -0.0654372 -0.0550584 -0.0495592 -0.0271617 -0.0222442 -0.0395723 -0.0326548 -0.0286372 -0.0259403 -0.022628 -0.0212603 -0.0147966 -0.013857 -0.0111149 -0.00855714 -0.00619863 -0.00415465 -1.31488 -0.00104936 -0.000269763 -3.32526e-27 0 -0.000683712 -0.00274388 -0.00616535 -0.0108723 -0.0170527 -0.0251634 -0.0345389 -0.0427489 -0.051362 -0.076528 -0.0922444 -0.0905854 -0.102052 -0.111175 -0.121481 -0.131566 -0.140691 -0.148217 -0.154695 -0.160899 -0.166285 35.4799 -0.164664 -0.161283 -0.160298 -0.158544 -0.155466 -0.150857 -0.13943 -0.134832 -0.120221 -0.104756 -0.106778 -0.0999732 -0.0819128 -0.0812269 -0.0709001 -0.0619145 -0.0356707 -0.0422474 -0.0393883 -0.0325926 -0.0256961 -0.0194453 -0.013849 -0.00905574 -0.00543991 -0.00243151 -0.000437962 -6.85806e-27 0 -0.00100812 -0.00400194 -0.00894303 -0.0157813 -0.0244783 -0.0349643 -0.0477251 -0.0583465 -0.072097 -0.0910974 -0.109077 0.00272171 -0.194441 -0.157213 -0.171836 -0.186308 -0.199752 -0.211327 -0.221036 -0.229819 -0.239371 -0.248046 -0.238699 -0.238884 -0.237764 -0.234086 -0.228115 -0.219984 -0.21378 -0.205967 -0.1939 -0.1584 -0.150752 -0.156231 -0.131167 -0.117293 -0.102297 -0.0774056 -0.074923 -0.0596128 -0.0616271 -0.0506839 -0.0398424 -0.0300063 -0.021256 -0.0136491 -0.00813712 -0.00364059 -0.00344655 -1.0173e-26 0 -0.00131894 -0.00519252 -0.0115522 -0.0203494 -0.0314677 -0.0447563 -0.0603683 -0.0775379 -0.0960453 -0.116965 -0.138737 -0.160488 -0.181368 -0.201872 -0.220243 -0.238558 -0.255689 -0.271294 -0.284617 -0.295884 -0.304978 -0.312026 -0.329217 -0.337071 -0.364114 -0.244426 -0.285463 -0.290486 -0.288478 -0.268952 -0.25648 -0.240465 -0.225843 -0.195526 -0.189265 -0.174764 -0.153626 -0.133924 -0.118315 -0.0950962 -0.0830155 -0.067922 -0.0533243 -0.0400722 -0.0283148 -0.0179486 -0.0107019 -0.00479172 -0.00121381 -1.33331e-26 0 -0.00160601 -0.0063165 -0.0140231 -0.0245988 -0.0380143 -0.0542228 -0.0730033 -0.0937668 -0.117018 -0.141984 -0.167321 -0.194313 -0.0605969 -0.286831 -0.26624 -0.287737 -0.308077 -0.326913 -0.343492 -0.357436 -0.368384 -0.37702 -0.383758 -0.384466 -0.381808 -0.377601 -0.370193 -0.360665 -0.344723 -0.33048 -0.314494 -0.29233 -0.279168 -0.25443 -0.238013 -0.212654 -0.18978 -0.169697 -0.146828 -0.120481 -0.103098 -0.0840558 -0.065931 -0.0494822 -0.0349144 -0.0220924 -0.013079 -0.0058553 -0.00149283 -1.62831e-26 0 -0.00186216 -0.00732353 -0.0162654 -0.0286006 -0.0442355 -0.0630662 -0.0844498 -0.108873 -0.135457 -0.163099 -0.191602 -0.220893 -0.252203 -0.0958627 -0.401474 -0.333029 -0.357091 -0.378139 -0.397042 -0.413774 -0.427173 -0.437111 -0.443345 -0.445052 -0.444133 -0.440123 -0.432552 -0.421117 -0.388059 -0.389537 -0.370736 -0.342518 -0.323852 -0.295608 -0.278006 -0.22742 -0.192139 -0.199191 -0.172511 -0.142349 -0.121447 -0.0988474 -0.0774742 -0.0580874 -0.0409312 -0.0257171 -0.0152607 -0.00683281 -0.00174134 -1.89767e-26 0 -0.0020977 -0.00823951 -0.0182921 -0.0322727 -0.0498493 -0.0706424 -0.0949198 -0.122248 -0.151514 -0.18203 -0.213641 -0.246011 -0.278214 -0.310287 -0.341096 -0.38845 -0.406099 -0.424797 -0.44618 -0.465442 -0.479939 -0.491082 -0.498233 -0.50152 -0.500144 -0.495124 -0.48683 -0.475456 -0.437341 -0.440778 -0.41999 -0.392667 -0.367037 -0.342895 -0.311648 -0.284929 -0.253623 -0.224693 -0.19501 -0.159223 -0.137895 -0.112087 -0.0877807 -0.065746 -0.0462584 -0.0284655 -0.0172197 -0.00771121 -0.00196109 -2.13698e-26 0 -0.00232006 -0.0090831 -0.0200617 -0.0351481 -0.0542397 -0.0771777 -0.103925 -0.133694 -0.165393 -0.198591 -0.233077 -0.268193 -0.303171 -0.337925 -0.371359 -0.425307 0.69514 0.895926 -0.52955 -0.522152 -0.527327 -0.542079 -0.553807 -0.549309 -0.547871 -0.542553 -0.533688 -0.521315 -0.495961 -0.483351 -0.461621 -0.434858 -0.405936 -0.378762 -0.341436 -0.313198 -0.281365 -0.249454 -0.168114 -0.152336 -0.152577 -0.123633 -0.0967052 -0.0723574 -0.0508399 -0.0295216 -0.0189118 -0.00846889 -0.00215053 -2.34277e-26 0 -0.00249425 -0.00972526 -0.0214528 -0.0375578 -0.0579342 -0.0825798 -0.111279 -0.142932 -0.176647 -0.212007 -0.248767 -0.286246 -0.323494 -0.360761 -0.396631 -0.430041 -0.471931 -0.494775 -0.518825 -0.540584 -0.560986 -0.57346 -0.582953 -0.58692 -0.587208 -0.580257 -0.570758 -0.55914 -0.542582 -0.518123 -0.496049 -0.469764 -0.436104 -0.40561 -0.361417 -0.332757 -0.302708 -0.266529 -0.214303 -0.188266 -0.164243 -0.133132 -0.104092 -0.0778642 -0.0547485 -0.0268957 -0.0203123 -0.00909686 -0.00230677 -2.51172e-26 0 -0.00261487 -0.0101644 -0.0224497 -0.0393946 -0.0608766 -0.0869222 -0.117059 -0.149982 -0.185089 -0.222085 -0.260472 -0.299568 -0.338771 -0.378142 -0.415705 -0.451856 -0.485819 -0.518993 -0.543856 -0.566751 -0.588655 -0.601832 -0.613428 -0.617126 -0.617075 -0.613457 -0.601121 -0.586865 -0.570888 -0.548089 -0.52256 -0.496343 -0.461178 -0.42671 -0.392545 -0.357489 -0.319979 -0.265696 -0.210714 -0.205547 -0.172956 -0.14024 -0.109708 -0.0821119 -0.057884 -25.8868 -0.0214011 -0.00959714 -0.0024257 -2.64084e-26 0 -0.00267158 -0.0104565 -0.0231235 -0.0407117 -0.0634001 -0.0905759 -0.121365 -0.154921 -0.190859 -0.228849 -0.268273 -0.308382 -0.348685 -0.38922 -0.427322 -0.462252 -0.497256 -0.536905 -0.561232 -0.584591 -0.607546 -0.627098 -0.632511 -0.637035 -0.637648 -0.633527 -0.623374 -0.592384 -0.589059 -0.570264 -0.542196 -0.513737 -0.480597 -0.44116 -0.408472 -0.371481 -0.332806 -0.292054 -0.247266 -0.215242 -0.179379 -0.145132 -0.113474 -0.0849299 -0.0598633 -0.0387898 -0.0221187 -0.00995176 -0.00250653 -2.72806e-26 0 -0.0026497 -0.0108012 -0.0239712 -0.0418552 -0.0646246 -0.0918959 -0.122835 -0.156666 -0.192984 -0.231267 -0.271017 -0.311147 -0.351543 -0.391925 -0.429936 -0.470762 -0.505328 -0.545972 -0.568214 -0.592748 -0.613268 -0.629536 -0.641497 -0.646972 -0.647871 -0.643999 -0.633943 -0.606413 -0.595407 -0.578316 -0.542942 -0.521806 -0.492339 -0.457587 -0.418885 -0.380003 -0.340168 -0.293643 -0.256382 -0.219682 -0.182914 -0.147944 -0.115589 -0.0864421 -0.0609426 -0.0393633 -0.0224543 -0.0101219 -0.00254779 -2.77214e-26 0 -0.0027595 -0.0107864 -0.0238435 -0.0419597 -0.0650196 -0.0923797 -0.123155 -0.156815 -0.192932 -0.231013 -0.270656 -0.310759 -0.351858 -0.391239 -0.429455 -0.471163 -0.50631 -0.538839 -0.567872 -0.592947 -0.613829 -0.631107 -0.714304 -0.648167 -0.647732 -0.644026 -0.634841 -0.620988 -0.602819 -0.578772 -0.552992 -0.522428 -0.489025 -0.453836 -0.420467 -0.381226 -0.340903 -0.280816 -0.258257 -0.219936 -0.182836 -0.147903 -0.115622 -0.0864563 -0.0609379 -0.0397039 -0.0225867 -0.0101075 -0.00254763 -2.77258e-26 0 -0.00269993 -0.0105364 -0.0233317 -0.0414533 -0.0643277 -0.0910457 -0.121128 -0.15409 -0.189448 -0.226653 -0.265496 -0.304883 -0.346891 -0.386137 -0.42311 -0.461202 -0.496693 -0.529784 -0.558111 -0.582623 -0.603236 -0.620291 -0.648127 -0.615872 -0.637559 -0.633995 -0.625032 -0.611705 -0.594062 -0.570689 -0.543994 -0.516002 -0.482521 -0.446946 -0.410954 -0.374918 -0.330551 -0.290336 -0.255568 -0.217625 -0.180744 -0.14603 -0.114072 -0.085207 -0.0598753 -0.0391779 -0.0222567 -0.00994708 -0.0025089 -2.72931e-26 0 -0.00260949 -0.0102274 -0.0227317 -0.0403224 -0.0625739 -0.0883315 -0.117219 -0.149016 -0.183229 -0.219187 -0.256816 -0.294768 -0.337442 -0.37522 -0.411186 -0.446513 -0.475489 -0.511139 -0.540901 -0.563909 -0.583611 -0.599348 -0.611846 -0.618108 -0.617047 -0.613939 -0.60563 -0.593205 -0.575797 -0.553509 -0.528263 -0.499788 -0.468048 -0.432757 -0.395433 -0.361348 -0.323471 -0.283695 -0.247382 -0.210801 -0.175165 -0.141463 -0.110389 -0.0821487 -0.0532959 -0.0378623 -0.0214697 -0.00963192 -0.0024296 -2.64314e-26 0 -0.00252456 -0.00979516 -0.0217463 -0.0388006 -0.0602371 -0.0842355 -