<?xml version="1.0"?>
<VTKFile type="PolyData">
	<PolyData>
		<Piece NumberOfPoints="2601" NumberOfPolys="2500">
			<Points>
				<DataArray type="Float32" NumberOfComponents="3" format="ascii">
 0 0 0 0.02 0 0 0.04 0 0 0.06 0 0 0.08 0 0 0.1 0 0 0.12 0 0 0.14 0 0 0.16 0 0 0.18 0 0 0.2 0 0 0.22 0 0 0.24 0 0 0.26 0 0 0.28 0 0 0.3 0 0 0.32 0 0 0.34 0 0 0.36 0 0 0.38 0 0 0.4 0 0 0.42 0 0 0.44 0 0 0.46 0 0 0.48 0 0 0.5 0 0 0.52 0 0 0.54 0 0 0.56 0 0 0.58 0 0 0.6 0 0 0.62 0 0 0.64 0 0 0.66 0 0 0.68 0 0 0.7 0 0 0.72 0 0 0.74 0 0 0.76 0 0 0.78 0 0 0.8 0 0 0.82 0 0 0.84 0 0 0.86 0 0 0.88 0 0 0.9 0 0 0.92 0 0 0.94 0 0 0.96 0 0 0.98 0 0 1 0 0 0 0.02 0 0.02 0.02 0 0.04 0.02 0 0.06 0.02 0 0.08 0.02 0 0.1 0.02 0 0.12 0.02 0 0.14 0.02 0 0.16 0.02 0 0.18 0.02 0 0.2 0.02 0 0.22 0.02 0 0.24 0.02 0 0.26 0.02 0 0.28 0.02 0 0.3 0.02 0 0.32 0.02 0 0.34 0.02 0 0.36 0.02 0 0.38 0.02 0 0.4 0.02 0 0.42 0.02 0 0.44 0.02 0 0.46 0.02 0 0.48 0.02 0 0.5 0.02 0 0.52 0.02 0 0.54 0.02 0 0.56 0.02 0 0.58 0.02 0 0.6 0.02 0 0.62 0.02 0 0.64 0.02 0 0.66 0.02 0 0.68 0.02 0 0.7 0.02 0 0.72 0.02 0 0.74 0.02 0 0.76 0.02 0 0.78 0.02 0 0.8 0.02 0 0.82 0.02 0 0.84 0.02 0 0.86 0.02 0 0.88 0.02 0 0.9 0.02 0 0.92 0.02 0 0.94 0.02 0 0.96 0.02 0 0.98 0.02 0 1 0.02 0 0 0.04 0 0.02 0.04 0 0.04 0.04 0 0.06 0.04 0 0.08 0.04 0 0.1 0.04 0 0.12 0.04 0 0.14 0.04 0 0.16 0.04 0 0.18 0.04 0 0.2 0.04 0 0.22 0.04 0 0.24 0.04 0 0.26 0.04 0 0.28 0.04 0 0.3 0.04 0 0.32 0.04 0 0.34 0.04 0 0.36 0.04 0 0.38 0.04 0 0.4 0.04 0 0.42 0.04 0 0.44 0.04 0 0.46 0.04 0 0.48 0.04 0 0.5 0.04 0 0.52 0.04 0 0.54 0.04 0 0.56 0.04 0 0.58 0.04 0 0.6 0.04 0 0.62 0.04 0 0.64 0.04 0 0.66 0.04 0 0.68 0.04 0 0.7 0.04 0 0.72 0.04 0 0.74 0.04 0 0.76 0.04 0 0.78 0.04 0 0.8 0.04 0 0.82 0.04 0 0.84 0.04 0 0.86 0.04 0 0.88 0.04 0 0.9 0.04 0 0.92 0.04 0 0.94 0.04 0 0.96 0.04 0 0.98 0.04 0 1 0.04 0 0 0.06 0 0.02 0.06 0 0.04 0.06 0 0.06 0.06 0 0.08 0.06 0 0.1 0.06 0 0.12 0.06 0 0.14 0.06 0 0.16 0.06 0 0.18 0.06 0 0.2 0.06 0 0.22 0.06 0 0.24 0.06 0 0.26 0.06 0 0.28 0.06 0 0.3 0.06 0 0.32 0.06 0 0.34 0.06 0 0.36 0.06 0 0.38 0.06 0 0.4 0.06 0 0.42 0.06 0 0.44 0.06 0 0.46 0.06 0 0.48 0.06 0 0.5 0.06 0 0.52 0.06 0 0.54 0.06 0 0.56 0.06 0 0.58 0.06 0 0.6 0.06 0 0.62 0.06 0 0.64 0.06 0 0.66 0.06 0 0.68 0.06 0 0.7 0.06 0 0.72 0.06 0 0.74 0.06 0 0.76 0.06 0 0.78 0.06 0 0.8 0.06 0 0.82 0.06 0 0.84 0.06 0 0.86 0.06 0 0.88 0.06 0 0.9 0.06 0 0.92 0.06 0 0.94 0.06 0 0.96 0.06 0 0.98 0.06 0 1 0.06 0 0 0.08 0 0.02 0.08 0 0.04 0.08 0 0.06 0.08 0 0.08 0.08 0 0.1 0.08 0 0.12 0.08 0 0.14 0.08 0 0.16 0.08 0 0.18 0.08 0 0.2 0.08 0 0.22 0.08 0 0.24 0.08 0 0.26 0.08 0 0.28 0.08 0 0.3 0.08 0 0.32 0.08 0 0.34 0.08 0 0.36 0.08 0 0.38 0.08 0 0.4 0.08 0 0.42 0.08 0 0.44 0.08 0 0.46 0.08 0 0.48 0.08 0 0.5 0.08 0 0.52 0.08 0 0.54 0.08 0 0.56 0.08 0 0.58 0.08 0 0.6 0.08 0 0.62 0.08 0 0.64 0.08 0 0.66 0.08 0 0.68 0.08 0 0.7 0.08 0 0.72 0.08 0 0.74 0.08 0 0.76 0.08 0 0.78 0.08 0 0.8 0.08 0 0.82 0.08 0 0.84 0.08 0 0.86 0.08 0 0.88 0.08 0 0.9 0.08 0 0.92 0.08 0 0.94 0.08 0 0.96 0.08 0 0.98 0.08 0 1 0.08 0 0 0.1 0 0.02 0.1 0 0.04 0.1 0 0.06 0.1 0 0.08 0.1 0 0.1 0.1 0 0.12 0.1 0 0.14 0.1 0 0.16 0.1 0 0.18 0.1 0 0.2 0.1 0 0.22 0.1 0 0.24 0.1 0 0.26 0.1 0 0.28 0.1 0 0.3 0.1 0 0.32 0.1 0 0.34 0.1 0 0.36 0.1 0 0.38 0.1 0 0.4 0.1 0 0.42 0.1 0 0.44 0.1 0 0.46 0.1 0 0.48 0.1 0 0.5 0.1 0 0.52 0.1 0 0.54 0.1 0 0.56 0.1 0 0.58 0.1 0 0.6 0.1 0 0.62 0.1 0 0.64 0.1 0 0.66 0.1 0 0.68 0.1 0 0.7 0.1 0 0.72 0.1 0 0.74 0.1 0 0.76 0.1 0 0.78 0.1 0 0.8 0.1 0 0.82 0.1 0 0.84 0.1 0 0.86 0.1 0 0.88 0.1 0 0.9 0.1 0 0.92 0.1 0 0.94 0.1 0 0.96 0.1 0 0.98 0.1 0 1 0.1 0 0 0.12 0 0.02 0.12 0 0.04 0.12 0 0.06 0.12 0 0.08 0.12 0 0.1 0.12 0 0.12 0.12 0 0.14 0.12 0 0.16 0.12 0 0.18 0.12 0 0.2 0.12 0 0.22 0.12 0 0.24 0.12 0 0.26 0.12 0 0.28 0.12 0 0.3 0.12 0 0.32 0.12 0 0.34 0.12 0 0.36 0.12 0 0.38 0.12 0 0.4 0.12 0 0.42 0.12 0 0.44 0.12 0 0.46 0.12 0 0.48 0.12 0 0.5 0.12 0 0.52 0.12 0 0.54 0.12 0 0.56 0.12 0 0.58 0.12 0 0.6 0.12 0 0.62 0.12 0 0.64 0.12 0 0.66 0.12 0 0.68 0.12 0 0.7 0.12 0 0.72 0.12 0 0.74 0.12 0 0.76 0.12 0 0.78 0.12 0 0.8 0.12 0 0.82 0.12 0 0.84 0.12 0 0.86 0.12 0 0.88 0.12 0 0.9 0.12 0 0.92 0.12 0 0.94 0.12 0 0.96 0.12 0 0.98 0.12 0 1 0.12 0 0 0.14 0 0.02 0.14 0 0.04 0.14 0 0.06 0.14 0 0.08 0.14 0 0.1 0.14 0 0.12 0.14 0 0.14 0.14 0 0.16 0.14 0 0.18 0.14 0 0.2 0.14 0 0.22 0.14 0 0.24 0.14 0 0.26 0.14 0 0.28 0.14 0 0.3 0.14 0 0.32 0.14 0 0.34 0.14 0 0.36 0.14 0 0.38 0.14 0 0.4 0.14 0 0.42 0.14 0 0.44 0.14 0 0.46 0.14 0 0.48 0.14 0 0.5 0.14 0 0.52 0.14 0 0.54 0.14 0 0.56 0.14 0 0.58 0.14 0 0.6 0.14 0 0.62 0.14 0 0.64 0.14 0 0.66 0.14 0 0.68 0.14 0 0.7 0.14 0 0.72 0.14 0 0.74 0.14 0 0.76 0.14 0 0.78 0.14 0 0.8 0.14 0 0.82 0.14 0 0.84 0.14 0 0.86 0.14 0 0.88 0.14 0 0.9 0.14 0 0.92 0.14 0 0.94 0.14 0 0.96 0.14 0 0.98 0.14 0 1 0.14 0 0 0.16 0 0.02 0.16 0 0.04 0.16 0 0.06 0.16 0 0.08 0.16 0 0.1 0.16 0 0.12 0.16 0 0.14 0.16 0 0.16 0.16 0 0.18 0.16 0 0.2 0.16 0 0.22 0.16 0 0.24 0.16 0 0.26 0.16 0 0.28 0.16 0 0.3 0.16 0 0.32 0.16 0 0.34 0.16 0 0.36 0.16 0 0.38 0.16 0 0.4 0.16 0 0.42 0.16 0 0.44 0.16 0 0.46 0.16 0 0.48 0.16 0 0.5 0.16 0 0.52 0.16 0 0.54 0.16 0 0.56 0.16 0 0.58 0.16 0 0.6 0.16 0 0.62 0.16 0 0.64 0.16 0 0.66 0.16 0 0.68 0.16 0 0.7 0.16 0 0.72 0.16 0 0.74 0.16 0 0.76 0.16 0 0.78 0.16 0 0.8 0.16 0 0.82 0.16 0 0.84 0.16 0 0.86 0.16 0 0.88 0.16 0 0.9 0.16 0 0.92 0.16 0 0.94 0.16 0 0.96 0.16 0 0.98 0.16 0 1 0.16 0 0 0.18 0 0.02 0.18 0 0.04 0.18 0 0.06 0.18 0 0.08 0.18 0 0.1 0.18 0 0.12 0.18 0 0.14 0.18 0 0.16 0.18 0 0.18 0.18 0 0.2 0.18 0 0.22 0.18 0 0.24 0.18 0 0.26 0.18 0 0.28 0.18 0 0.3 0.18 0 0.32 0.18 0 0.34 0.18 0 0.36 0.18 0 0.38 0.18 0 0.4 0.18 0 0.42 0.18 0 0.44 0.18 0 0.46 0.18 0 0.48 0.18 0 0.5 0.18 0 0.52 0.18 0 0.54 0.18 0 0.56 0.18 0 0.58 0.18 0 0.6 0.18 0 0.62 0.18 0 0.64 0.18 0 0.66 0.18 0 0.68 0.18 0 0.7 0.18 0 0.72 0.18 0 0.74 0.18 0 0.76 0.18 0 0.78 0.18 0 0.8 0.18 0 0.82 0.18 0 0.84 0.18 0 0.86 0.18 0 0.88 0.18 0 0.9 0.18 0 0.92 0.18 0 0.94 0.18 0 0.96 0.18 0 0.98 0.18 0 1 0.18 0 0 0.2 0 0.02 0.2 0 0.04 0.2 0 0.06 0.2 0 0.08 0.2 0 0.1 0.2 0 0.12 0.2 0 0.14 0.2 0 0.16 0.2 0 0.18 0.2 0 0.2 0.2 0 0.22 0.2 0 0.24 0.2 0 0.26 0.2 0 0.28 0.2 0 0.3 0.2 0 0.32 0.2 0 0.34 0.2 0 0.36 0.2 0 0.38 0.2 0 0.4 0.2 0 0.42 0.2 0 0.44 0.2 0 0.46 0.2 0 0.48 0.2 0 0.5 0.2 0 0.52 0.2 0 0.54 0.2 0 0.56 0.2 0 0.58 0.2 0 0.6 0.2 0 0.62 0.2 0 0.64 0.2 0 0.66 0.2 0 0.68 0.2 0 0.7 0.2 0 0.72 0.2 0 0.74 0.2 0 0.76 0.2 0 0.78 0.2 0 0.8 0.2 0 0.82 0.2 0 0.84 0.2 0 0.86 0.2 0 0.88 0.2 0 0.9 0.2 0 0.92 0.2 0 0.94 0.2 0 0.96 0.2 0 0.98 0.2 0 1 0.2 0 0 0.22 0 0.02 0.22 0 0.04 0.22 0 0.06 0.22 0 0.08 0.22 0 0.1 0.22 0 0.12 0.22 0 0.14 0.22 0 0.16 0.22 0 0.18 0.22 0 0.2 0.22 0 0.22 0.22 0 0.24 0.22 0 0.26 0.22 0 0.28 0.22 0 0.3 0.22 0 0.32 0.22 0 0.34 0.22 0 0.36 0.22 0 0.38 0.22 0 0.4 0.22 0 0.42 0.22 0 0.44 0.22 0 0.46 0.22 0 0.48 0.22 0 0.5 0.22 0 0.52 0.22 0 0.54 0.22 0 0.56 0.22 0 0.58 0.22 0 0.6 0.22 0 0.62 0.22 0 0.64 0.22 0 0.66 0.22 0 0.68 0.22 0 0.7 0.22 0 0.72 0.22 0 0.74 0.22 0 0.76 0.22 0 0.78 0.22 0 0.8 0.22 0 0.82 0.22 0 0.84 0.22 0 0.86 0.22 0 0.88 0.22 0 0.9 0.22 0 0.92 0.22 0 0.94 0.22 0 0.96 0.22 0 0.98 0.22 0 1 0.22 0 0 0.24 0 0.02 0.24 0 0.04 0.24 0 0.06 0.24 0 0.08 0.24 0 0.1 0.24 0 0.12 0.24 0 0.14 0.24 0 0.16 0.24 0 0.18 0.24 0 0.2 0.24 0 0.22 0.24 0 0.24 0.24 0 0.26 0.24 0 0.28 0.24 0 0.3 0.24 0 0.32 0.24 0 0.34 0.24 0 0.36 0.24 0 0.38 0.24 0 0.4 0.24 0 0.42 0.24 0 0.44 0.24 0 0.46 0.24 0 0.48 0.24 0 0.5 0.24 0 0.52 0.24 0 0.54 0.24 0 0.56 0.24 0 0.58 0.24 0 0.6 0.24 0 0.62 0.24 0 0.64 0.24 0 0.66 0.24 0 0.68 0.24 0 0.7 0.24 0 0.72 0.24 0 0.74 0.24 0 0.76 0.24 0 0.78 0.24 0 0.8 0.24 0 0.82 0.24 0 0.84 0.24 0 0.86 0.24 0 0.88 0.24 0 0.9 0.24 0 0.92 0.24 0 0.94 0.24 0 0.96 0.24 0 0.98 0.24 0 1 0.24 0 0 0.26 0 0.02 0.26 0 0.04 0.26 0 0.06 0.26 0 0.08 0.26 0 0.1 0.26 0 0.12 0.26 0 0.14 0.26 0 0.16 0.26 0 0.18 0.26 0 0.2 0.26 0 0.22 0.26 0 0.24 0.26 0 0.26 0.26 0 0.28 0.26 0 0.3 0.26 0 0.32 0.26 0 0.34 0.26 0 0.36 0.26 0 0.38 0.26 0 0.4 0.26 0 0.42 0.26 0 0.44 0.26 0 0.46 0.26 0 0.48 0.26 0 0.5 0.26 0 0.52 0.26 0 0.54 0.26 0 0.56 0.26 0 0.58 0.26 0 0.6 0.26 0 0.62 0.26 0 0.64 0.26 0 0.66 0.26 0 0.68 0.26 0 0.7 0.26 0 0.72 0.26 0 0.74 0.26 0 0.76 0.26 0 0.78 0.26 0 0.8 0.26 0 0.82 0.26 0 0.84 0.26 0 0.86 0.26 0 0.88 0.26 0 0.9 0.26 0 0.92 0.26 0 0.94 0.26 0 0.96 0.26 0 0.98 0.26 0 1 0.26 0 0 0.28 0 0.02 0.28 0 0.04 0.28 0 0.06 0.28 0 0.08 0.28 0 0.1 0.28 0 0.12 0.28 0 0.14 0.28 0 0.16 0.28 0 0.18 0.28 0 0.2 0.28 0 0.22 0.28 0 0.24 0.28 0 0.26 0.28 0 0.28 0.28 0 0.3 0.28 0 0.32 0.28 0 0.34 0.28 0 0.36 0.28 0 0.38 0.28 0 0.4 0.28 0 0.42 0.28 0 0.44 0.28 0 0.46 0.28 0 0.48 0.28 0 0.5 0.28 0 0.52 0.28 0 0.54 0.28 0 0.56 0.28 0 0.58 0.28 0 0.6 0.28 0 0.62 0.28 0 0.64 0.28 0 0.66 0.28 0 0.68 0.28 0 0.7 0.28 0 0.72 0.28 0 0.74 0.28 0 0.76 0.28 0 0.78 0.28 0 0.8 0.28 0 0.82 0.28 0 0.84 0.28 0 0.86 0.28 0 0.88 0.28 0 0.9 0.28 0 0.92 0.28 0 0.94 0.28 0 0.96 0.28 0 0.98 0.28 0 1 0.28 0 0 0.3 0 0.02 0.3 0 0.04 0.3 0 0.06 0.3 0 0.08 0.3 0 0.1 0.3 0 0.12 0.3 0 0.14 0.3 0 0.16 0.3 0 0.18 0.3 0 0.2 0.3 0 0.22 0.3 0 0.24 0.3 0 0.26 0.3 0 0.28 0.3 0 0.3 0.3 0 0.32 0.3 0 0.34 0.3 0 0.36 0.3 0 0.38 0.3 0 0.4 0.3 0 0.42 0.3 0 0.44 0.3 0 0.46 0.3 0 0.48 0.3 0 0.5 0.3 0 0.52 0.3 0 0.54 0.3 0 0.56 0.3 0 0.58 0.3 0 0.6 0.3 0 0.62 0.3 0 0.64 0.3 0 0.66 0.3 0 0.68 0.3 0 0.7 0.3 0 0.72 0.3 0 0.74 0.3 0 0.76 0.3 0 0.78 0.3 0 0.8 0.3 0 0.82 0.3 0 0.84 0.3 0 0.86 0.3 0 0.88 0.3 0 0.9 0.3 0 0.92 0.3 0 0.94 0.3 0 0.96 0.3 0 0.98 0.3 0 1 0.3 0 0 0.32 0 0.02 0.32 0 0.04 0.32 0 0.06 0.32 0 0.08 0.32 0 0.1 0.32 0 0.12 0.32 0 0.14 0.32 0 0.16 0.32 0 0.18 0.32 0 0.2 0.32 0 0.22 0.32 0 0.24 0.32 0 0.26 0.32 0 0.28 0.32 0 0.3 0.32 0 0.32 0.32 0 0.34 0.32 0 0.36 0.32 0 0.38 0.32 0 0.4 0.32 0 0.42 0.32 0 0.44 0.32 0 0.46 0.32 0 0.48 0.32 0 0.5 0.32 0 0.52 0.32 0 0.54 0.32 0 0.56 0.32 0 0.58 0.32 0 0.6 0.32 0 0.62 0.32 0 0.64 0.32 0 0.66 0.32 0 0.68 0.32 0 0.7 0.32 0 0.72 0.32 0 0.74 0.32 0 0.76 0.32 0 0.78 0.32 0 0.8 0.32 0 0.82 0.32 0 0.84 0.32 0 0.86 0.32 0 0.88 0.32 0 0.9 0.32 0 0.92 0.32 0 0.94 0.
[...]
			<PointData Scalars="VitesseX">
				<DataArray Name="VitesseX" type="Float32" format="ascii">
 0 0 0 0 0 0 0 0 0 0 0 0 0 0 0 0 0 0 0 0 0 0 0 0 0 0 0 0 0 0 0 0 0 0 0 0 0 0 0 0 0 0 0 0 0 0 0 0 0 0 0 0 3.04049e-05 0.000122526 0.000274539 0.00048309 0.000743164 0.00104775 0.00138694 0.00174448 0.00210362 0.00245304 0.00282457 0.00320493 0.00360302 0.0040083 0.00441706 0.00481981 0.00520556 0.00557349 0.00605498 0.00654407 0.00652732 0.00579075 0.00583513 0.0058878 0.00590398 0.00587733 0.0058069 0.00569155 0.00553309 0.00533336 0.00509662 0.00482693 0.00452821 0.00420411 0.00385921 0.00350018 0.00313163 0.00275942 0.00239322 0.00203707 0.00169257 0.00141063 0.00107301 0.000798312 0.000562546 0.000367974 0.000205586 0.000101883 2.77199e-05 2.52548e-28 0 5.08747e-05 0.000204843 0.000459461 0.000809938 0.00125014 0.00177234 0.00236734 0.00302129 0.003709 0.00439802 0.00506468 0.00570761 0.00635693 0.00702676 0.00770513 0.00837442 0.00900742 0.00968417 0.0107144 0.0113446 0.0110819 0.0113391 0.0115427 0.0116718 0.0117157 0.0116676 0.0115296 0.0113018 0.0109883 0.0105937 0.0101248 0.00958955 0.0089965 0.00835325 0.00766773 0.00695516 0.00622553 0.00548881 0.004756 0.00404557 0.003362 0.00280214 0.00213468 0.00158558 0.00111727 0.0007197 0.00040999 0.000204296 5.81944e-05 5.0111e-28 0 7.03705e-05 0.000282652 0.000634128 0.00111842 0.00172748 0.00245208 0.00328215 0.00420613 0.00520745 0.00627941 0.00737613 0.00851753 0.00966227 0.0108193 0.0119156 0.0129331 0.0138705 0.0142493 0.0149927 0.0156833 0.0162658 0.0167307 0.0170711 0.0172748 0.0173374 0.0172629 0.0170641 0.0167337 0.0162357 0.0156255 0.0149329 0.0141428 0.0132299 0.0120114 0.0110089 0.00989448 0.00890545 0.00812006 0.0070383 0.00598851 0.00498165 0.00412714 0.00314885 0.00234731 0.00165412 0.00107046 0.000608434 0.000301797 8.63017e-05 7.41769e-28 0 8.86401e-05 0.0003557 0.000798873 0.00140995 0.00217712 0.00308823 0.00412847 0.00528079 0.00652824 0.00785168 0.00923046 0.0106432 0.0120677 0.0134821 0.0148597 0.0161824 0.0174292 0.018611 0.0199303 0.020708 0.0212874 0.0218817 0.0223335 0.0226021 0.0226929 0.0226047 0.0223417 0.0219105 0.0212893 0.0205278 0.0196214 0.0185843 0.0174334 0.016125 0.0147641 0.0134314 0.0120504 0.0106382 0.00934331 0.00784775 0.00654645 0.00526375 0.00417408 0.00307327 0.0021654 0.00140238 0.000797067 0.000395158 0.000113024 9.70727e-28 0 0.000109731 0.000440967 0.000989616 0.00174601 0.0026974 0.00382979 0.00512323 0.00655905 0.00811308 0.00976026 0.0114738 0.0132235 0.0149824 0.0167221 0.0184505 0.0200618 0.0215565 0.0226945 0.0239221 0.0250352 0.0259687 0.02671 0.0272489 0.0275781 0.0276896 0.0275936 0.0272605 0.0267457 0.0259767 0.0250482 0.0239427 0.0226778 0.0212737 0.0197377 0.0181262 0.0164485 0.0147197 0.0129844 0.011301 0.00957196 0.00798407 0.00642748 0.00508162 0.00375165 0.00264323 0.00171176 0.000972434 0.000482274 0.000137945 1.18438e-27 0 0.000125741 0.000503213 0.00112753 0.00198841 0.0030718 0.00436121 0.00583674 0.0074733 0.00924778 0.0111312 0.0130925 0.0151029 0.0171275 0.0191408 0.0211032 0.0229819 0.0247522 0.0263867 0.0278534 0.0303214 0.0315452 0.0320718 0.0326888 0.0330606 0.0344213 0.0317014 0.0314838 0.0308871 0.0298117 0.0249696 0.0278275 0.0264208 0.0247805 0.0229898 0.0211136 0.0191602 0.0171462 0.0151228 0.0131187 0.0113669 0.00927177 0.00748898 0.00592219 0.00436915 0.00307929 0.00199396 0.00113259 0.000561808 0.000160685 1.37935e-27 0 0.000141306 0.000565706 0.00126805 0.0022364 0.00345537 0.00490622 0.00656639 0.00840875 0.0104053 0.012524 0.0147311 0.016992 0.0192708 0.0215342 0.0237427 0.0258607 0.0278497 0.0304314 0.0255763 0.0332594 0.0345839 0.0350527 0.0357214 0.0361511 0.0362959 0.0361547 0.0357305 0.0350266 0.0340578 0.0328397 0.0313878 0.0297226 0.0278735 0.0258641 0.0237227 0.0226278 0.0192984 0.0170253 0.014768 0.0128197 0.0104255 0.00843236 0.00661934 0.00491862 0.00346661 0.00224465 0.00127494 0.000632423 0.000180904 1.55257e-27 0 0.000156751 0.000623774 0.00139036 0.00245177 0.00378698 0.00537516 0.00719388 0.00921294 0.011401 0.0137225 0.0161403 0.0186181 0.0211128 0.0235923 0.026003 -0.931991 -0.121772 0.0328629 0.0343707 0.0359559 0.0372993 0.0383651 0.0391398 0.0396135 0.0397732 0.0396205 0.0391577 0.038388 0.0373278 0.0359925 0.0344024 0.0325821 0.0305603 0.0283698 0.0260474 0.0236242 0.0211328 0.0186037 0.0172683 0.0137376 0.0114247 0.00923986 0.00722193 0.00539297 0.00380006 0.00246006 0.00139722 0.00069307 0.000198209 1.7013e-27 0 0.000167559 0.000669401 0.00149957 0.00264666 0.00408768 0.00579588 0.00773655 0.00988933 0.0122235 0.0147108 0.0172862 0.0199524 0.022627 0.025276 -6.54728 0.0281452 0.032675 0.0348647 0.03682 0.0385295 0.0399686 0.0411117 0.0419431 0.0424514 0.0426232 0.0424606 0.0419658 0.0411417 0.0400064 0.0385759 0.0368717 0.0349213 0.0327559 0.0304103 0.0279218 0.0253266 0.0226673 0.0199895 0.0173325 0.0159867 0.012244 0.00990019 0.00773351 0.00578084 0.00407299 0.00263675 0.00149744 0.000742842 0.000212265 1.82321e-27 0 0.000174826 0.000699629 0.00156782 0.00276466 0.00427116 0.00606271 0.00811248 0.0103841 0.0128486 0.0154535 0.0181773 0.0209716 0.0237808 -350.787 0.0264618 0.031896 0.0343679 0.0366472 0.0386998 0.0404961 0.0420081 0.0432109 0.0440856 0.0446203 0.0448009 0.0446305 0.0441112 0.0432458 0.0420532 0.0405501 0.0387587 0.0367089 0.0344341 0.0319694 0.0293527 0.0266254 0.0238321 0.0210154 0.0182204 0.0154954 0.0141104 0.010405 0.00812839 0.00607679 0.00428184 0.00277185 0.00157403 0.000780913 0.000222895 1.91636e-27 0 0.000180399 0.000722343 0.00161908 0.0028552 0.00441123 0.00626208 0.00837836 0.0107255 0.0132664 0.0159652 0.0187794 0.0216581 -444.771 0.0272449 0.0302336 0.0329498 0.0354996 0.037851 0.0399702 0.0418254 0.0433874 0.0446302 0.0455339 0.0460864 0.0462717 0.0460958 0.0455588 0.0446674 0.0434373 0.0418854 0.040036 0.0379198 0.0355719 0.0330256 0.0303209 0.0275041 0.024619 0.0217093 0.0188216 0.0160033 0.0132992 0.0119383 0.00839633 0.00627536 0.00442157 0.00286348 0.00162606 0.000806637 0.000229858 1.9793e-27 0 0.000183222 0.000733668 0.00164461 0.00290031 0.00448055 0.00636005 0.0085091 0.0108935 0.0134759 0.0162201 0.0190759 0.0219981 0.024851 0.0278481 0.0307228 0.0334713 0.0360599 0.0384508 0.040605 0.0424898 0.044077 0.0453379 0.0462527 0.0467789 0.0470105 0.0468385 0.0462967 0.0454053 0.0441604 0.0426139 0.0437305 0.0385241 0.0363898 0.0335785 0.0308146 0.0279553 0.0250216 0.022062 0.0191278 0.0162637 0.0135149 0.0109256 0.00962394 0.00637743 0.00449339 0.00291041 0.00165232 0.000819675 0.00023283 2.01103e-27 0 0.000183161 0.000733459 0.00164431 0.00289995 0.00448044 0.00636007 0.00850877 0.0108931 0.0134792 0.0162231 0.0190763 681.24 0.0249305 0.0278692 0.0307288 0.0334727 0.0360616 0.0384533 0.0406091 0.0424216 0.0440743 0.0448789 0.0462586 0.0468218 0.0470126 0.0468371 0.0462957 0.0453871 0.0441349 0.0425568 0.0406825 0.0385255 0.0369359 0.110461 0.0309639 0.0287461 0.0250359 0.0220661 0.0191299 0.0162646 0.0135146 0.0109251 0.00854825 0.00733318 0.00449243 0.00290995 0.00165241 0.000819772 0.000231982 2.01104e-27 0 0.000181752 0.000721907 0.0016179 0.00285336 0.00440737 0.00625575 0.00836861 0.0107209 0.0132648 0.0159601 695.761 0.0216045 0.0245414 0.0274253 0.0302369 0.032937 0.0354816 0.0378214 0.0399595 0.0418125 0.0433654 0.0445917 0.0455262 0.0460819 0.0462712 0.0461027 0.045569 0.0446783 0.0434485 0.0418984 0.0400571 0.0379601 0.0356101 0.0330423 0.0303397 0.0275208 0.0248481 0.0224699 0.0188474 0.0160154 0.0133069 0.0107563 0.00839968 0.0107495 0.00433845 0.00286647 0.00162662 0.000836092 0.000225921 1.97934e-27 0 0.000175946 0.000701635 0.00156846 0.00276247 0.00426619 0.00605474 0.00810002 0.0103789 0.0128424 0.0154501 0.0181179 0.0209406 0.0237583 0.0265476 0.0292697 0.03188 0.0343249 0.0366279 0.0386832 0.0404729 0.0419666 0.0431547 0.0440713 0.0446143 0.0447972 0.0446358 0.0441224 0.0432609 0.0420713 0.0405829 0.0388506 0.0367873 0.034479 0.0320123 0.0294076 0.0269855 0.0249386 0.0210325 0.0182698 0.015508 0.0128847 0.0104149 0.00813676 0.00609017 0.00441586 0.00315431 0.00157437 0.000781781 0.000208773 1.91644e-27 0 0.000167255 0.000667532 0.00149297 0.00262991 0.00406013 0.00576147 0.00770136 0.00987164 0.0122155 0.0146942 0.0172604 0.0199241 0.0225985 0.0252503 0.027838 0.0303138 0.0296644 0.0342785 0.0367869 0.0384617 0.0399199 0.041088 0.0419226 0.0424411 0.0426195 0.0424676 0.0419797 0.0411638 0.0400391 0.0386368 0.0369408 0.034975 0.0328019 0.0304591 0.027986 0.0254662 0.022957 0.0200172 0.0173653 0.014761 0.0122616 0.00991068 0.00774136 0.00578775 0.00452248 0.00315097 0.00149769 0.000670431 0.000190171 1.82331e-27 0 0.000156004 0.000622677 0.00139308 0.00245448 0.00378918 0.00536944 0.00718375 0.00920445 0.0113921 707.844 0.0161109 0.0185894 0.0210811 0.0235528 0.0259614 0.0282306 0.0304325 0.0324927 0.0343243 0.03592 0.0372647 0.038334 0.0391201 0.0395981 0.0397333 0.039626 0.0391798 0.038419 0.0374084 0.0360545 0.0344586 0.0326357 0.0306138 0.028443 0.0261219 0.0237018 0.0212531 0.0186935 0.016207 0.0140734 0.0114509 0.00925069 0.00722452 0.00540192 0.00383402 0.0030121 0.00139873 0.000625531 0.000170851 1.70144e-27 0 0.000142375 0.000568211 0.00127113 0.00223922 0.00345579 0.00489443 0.00656032 0.00839913 0.0103893 0.0124399 0.0146979 0.0169564 0.0192302 0.0214849 0.0236781 0.0248461 0.0277777 0.029622 0.0312475 0.0327066 0.0339236 0.0349627 0.0356431 0.0360904 0.0362873 0.0361811 0.0357623 0.035067 0.0342459 0.0329031 0.0314469 0.0297876 0.0279457 0.0259678 0.0238388 0.0216196 0.019354 0.0170882 0.0148259 0.0126766 0.0104647 0.00844574 0.00659537 0.00493071 0.00347661 0.00239048 0.00150668 0.000575774 0.000149507 1.55273e-27 0 0.000126464 0.000504759 0.00112913 0.00198892 0.00306929 0.00434398 0.00582829 0.00746211 0.00922838 0.0110787 0.01305 0.0150546 0.0170733 0.0190748 0.0210213 0.0229151 0.0246884 0.0263121 0.0278017 0.0291018 0.0301745 0.0306554 0.0315598 0.0320952 0.0322459 0.0321355 0.0318518 0.0312573 0.0305141 0.0292409 0.0279473 0.0264746 0.0248413 0.0230758 0.0212267 0.0192223 0.0171962 0.0151639 0.0131557 0.0119929 0.00931437 0.00750693 0.00586211 0.00438106 0.00308708 0.00212384 0.00134016 0.000614688 0.000127238 1.37954e-27 0 0.000108541 0.000433415 0.000969376 0.00170742 0.00263584 0.0037257 0.00500026 0.00640181 0.00791541 0.00951564 0.0111976 0.0129159 0.0146475 0.0163632 0.0180084 0.0196634 0.0211849 0.0225883 0.0238552 0.0249647 0.0258335 0.026637 0.0272173 0.0275545 0.0276235 0.0275882 0.0273014 0.02685 0.0261234 0.0251867 0.0240108 0.022747 0.0213446 0.0198319 0.0198492 0.0165453 0.0147768 0.0130289 0.0112998 0.00961556 0.00799224 0.00644962 0.00503598 0.00376357 0.00265185 0.00181916 0.00114795 0.000435711 0.000109235 1.18458e-27 0 8.89527e-05 0.000355106 0.000794141 0.00139856 0.00215911 0.00305813 0.00409145 0.00523704 0.00647532 0.00779274 0.00916733 0.0105733 0.0119903 0.0133938 0.0146659 0.0159319 0.0171089 0.0184328 0.0195504 0.0204682 0.0212337 0.0218452 0.0223093 0.0225887 0.0226864 0.0226207 0.0223933 0.0219662 0.021427 0.0206689 0.0200866 0.0186622 0.0175123 0.0162649 0.0150614 0.0135997 0.0121403 0.0106949 0.00927147 0.007887 0.00761129 0.00529759 0.0041309 0.00308689 0.00217478 0.00141024 0.000906479 0.000357091 8.95676e-05 9.70942e-28 0 6.79248e-05 0.000271109 0.000606402 0.00106776 0.00164786 0.00233591 0.00312243 0.00399591 0.00494077 0.00594442 0.00699165 0.00806337 0.00914339 0.0102137 0.0110409 0.0122828 0.0132386 0.0141196 0.0149279 0.0156303 0.0162169 0.0166848 0.0170322 0.0172612 0.0173429 0.017296 0.017255 0.0168215 0.016368 0.0157558 0.0155869 0.0207946 0.0134315 0.0124407 0.0115144 0.0114429 0.00933881 0.00819047 0.00709833 0.00603678 0.00502201 0.00408748 0.0031618 0.00236184 0.00166359 0.00107709 0.000729331 0.000272968 6.84956e-05 7.42e-28 0 4.58764e-05 0.000183014 0.000409007 0.000719949 0.00111026 0.00157394 0.00210185 0.00268827 0.00332346 0.00400105 0.00470472 0.00542554 0.00615238 0.00687342 0.00748545 0.00827689 0.00892038 0.00951385 0.00981286 0.0103417 0.0109321 0.0112517 0.0114707 0.0116239 0.0117027 0.0117267 0.0115758 0.0125348 0.0111454 0.0106681 0.0102112 0.00967356 0.00913683 0.00848219 0.0078123 0.00702612 0.00764211 0.00557319 0.00481257 0.00409184 0.00340721 0.00274981 0.00214164 0.00159975 0.00112644 0.00072899 0.000459439 0.000186906 4.63001e-05 5.01355e-28 0 2.30653e-05 9.17594e-05 0.000204758 0.000360508 0.000555451 0.000786803 0.00105015 0.00134183 0.00122591 0.00199205 0.00234278 0.00270157 0.00306374 0.00342369 0.00378606 0.00411367 0.00425982 0.00434323 0.00500429 0.00522036 0.00498097 0.00538667 0.00577275 0.00585427 0.00560147 0.00591376 0.00585026 0.00573791 0.00702791 0.0054541 0.00518196 0.00653718 0.00542096 0.00429424 0.00394258 0.00358481 0.00320985 0.00325644 0.00245605 0.00216442 0.0018076 0.00140622 0.00108774 0.00081218 0.00057164 0.000369758 0.000225352 9.73637e-05 2.34165e-05 2.52803e-28 0 -1.57933e-07 -8.04456e-07 -2.17383e-06 -4.51356e-06 -8.32053e-06 -1.31544e-05 -1.98343e-05 -2.9574e-05 -3.66955e-05 -4.78062e-05 -5.67084e-05 -6.51395e-05 -7.32626e-05 -7.95352e-05 -7.44596e-05 -0.000958943 -0.000119402 -0.00010543 -0.000134243 -9.99729e-05 -6.18305e-05 -5.18013e-05 -3.2859e-05 -2.21933e-05 -2.06979e-05 2.47124e-05 3.62587e-05 4.3643e-05 5.36434e-05 0.00676343 0.000541454 0.00047686 0.000347145 8.08092e-05 7.03211e-05 8.06282e-05 0.000109958 7.60371e-05 6.33929e-05 5.5152e-05 4.50977e-05 0.000247632 1.71271e-05 1.21868e-05 7.97286e-06 4.63081e-06 2.49833e-06 2.95623e-06 9.57403e-08 2.62835e-31 0 -2.35683e-05 -9.37811e-05 -0.000210012 -0.000370726 -0.000573302 -0.000813389 -0.00109039 -0.00139931 -0.00171528 -0.00209197 -0.0024563 -0.00283174 -0.0032104 -0.00358476 -0.00394659 -0.00434448 -0.00461892 -0.00491629 -0.00519351 -0.00548642 -0.00571498 -0.00580067 -0.00584473 -0.00590333 -0.00591215 -0.00585506 -0.00577383 -0.0056432 -0.0048349 -0.00523888 -0.00500971 -0.00471633 -0.00440973 -0.00407362 -0.00378667 -0.00343023 -0.00291127 -0.00270725 -0.0023018 -0.00199736 -0.00165869 -0.00130302 -0.0010528 -0.000787829 -0.000555835 -0.000360482 -0.000205004 -9.0622e-05 -2.31433e-05 -2.52281e-28 0 -4.74694e-05 -0.00018588 -0.000414563 -0.000730076 -0.00112733 -0.00160089 -0.00214334 -0.00274589 -0.00400758 -0.00413373 -0.00481729 -0.00555377 -0.00629734 -0.00703394 -0.00775236 -0.00853652 -0.00907784 -0.00967239 -0.0102082 -0.0106752 -0.0110758 -0.0122113 -0.0122905 -0.0116959 -0.0117135 -0.0116518 -0.0114994 -0.00990283 -0.0108873 -0.0105128 -0.0100451 -0.00950261 -0.00889959 -0.00789521 -0.0075904 -0.00687815 -0.00611059 -0.00542717 -0.00460474 -0.00400742 -0.00333037 -0.00260927 -0.00210656 -0.00157568 -0.00111098 -0.000719973 -0.000408556 -0.000174303 -4.51152e-05 -5.00839e-28 0 -8.40991e-05 -0.000277395 -0.00061379 -0.00107951 -0.00166638 -0.0023647 -0.00317208 -0.0040479 -0.00745654 -0.00769915 -0.0071008 -0.0081874 -0.00928466 -0.0103705 -0.011428 -0.0124456 -0.0134022 -0.01428 -0.015108 -0.015751 -0.0163318 -0.0167892 -0.0171006 -0.0172855 -0.0173405 -0.0172589 -0.0170424 -0.0166229 -0.0161947 -0.0156113 -0.0149114 -0.0141139 -0.0132262 -0.0122866 -0.0112736 -0.0102119 -0.00912521 -0.00798162 -0.00663324 -0.00595134 -0.00494668 -0.00387523 -0.00312659 -0.0023383 -0.00164837 -0.00106796 -0.000605232 -0.000271718 -6.8297e-05 -7.41495e-28 0 -0.000108734 -0.000391577 -0.00080633 -0.00141279 -0.00217817 -0.00308921 -0.00414156 -0.00529365 -0.0484099 -0.00927747 -0.00928673 -0.0106952 -0.0121269 -0.0135465 -0.0149275 -0.0162562 -0.0175403 -0.0186717 -0.0197769 -0.0206301 -0.0213792 -0.0219291 -0.0223617 -0.0226166 -0.0226933 -0.0225641 -0.0208699 -0.0218263 -0.021226 -0.0204575 -0.0195417 -0.0184986 -0.017335 -0.0160949 -0.0147661 -0.0133759 -0.0119779 -0.0105505 -0.00908647 -0.00780166 -0.00648494 -0.00507838 -0.00409678 -0.0030639 -0.00215964 -0.00139891 -0.000790918 -0.000356121 -8.94123e-05 -9.70471e-28 0 -0.000139821 -0.000491646 -0.00099651 -0.00172873 -0.00265771 -0.00377163 -0.00504047 -0.00650389 -0.00799218 -0.00673226 -0.0147401 -0.0130361 -0.0147776 -0.0165087 -0.0181975 -0.0198145 -0.0213385 -0.0227937 -0.0249557 -0.0252961 -0.0260073 -0.0267472 -0.0272783 -0.0275931 -0.0276863 -0.0274119 -0.0271971 -0.0266634 -0.0259185 -0.0249787 -0.023863 -0.0225868 -0.0211226 -0.0195965 -0.0179384 -0.016263 -0.0146251 -0.0129014 -0.0111782 -0.00952854 -0.00792165 -0.00619362 -0.00500282 -0.00374122 -0.00263684 -0.0017078 -0.000964218 -0.0004346 -0.000109108 -1.18415e-27 0 -0.0001609 -0.000570245 -0.00117512 -0.00204935 -0.00309102 -0.00439556 -0.0058654 -0.00758941 -0.00930191 0.0192943 -0.0137166 -0.0151978 -0.0171993 -0.0192104 -0.0211786 -0.0230632 -0.024835 -0.026476 -0.0279549 -0.0292418 -0.0304263 -0.0317932 -0.0323113 -0.0321651 -0.0322448 -0.0321058 -0.0317106 -0.0310715 -0.0301981 -0.029104 -0.027806 -0.0263137 -0.0238677 -0.0229113 -0.0210319 -0.0190666 -0.0170005 -0.0150083 -0.0130433 -0.0110916 -0.00923019 -0.00719268 -0.00582977 -0.00435931 -0.00307237 -0.00198981 -0.00112503 -0.00050619 -0.000127079 -1.37916e-27 0 -0.000182202 -0.000638044 -0.00130725 -0.00241809 -0.00347423 -0.00496084 -0.00660048 -0.00855085 -0.0104587 -0.0125856 -0.00964912 -0.0217281 -0.0193637 -0.0216179 -0.0238234 -0.0259464 -0.027944 -0.0297832 -0.0314396 -0.0328895 -0.0341065 -0.0350646 -0.0357566 -0.0361666 -0.0362954 -0.0361404 -0.0356996 -0.0349821 -0.034001 -0.0327715 -0.0313067 -0.0296169 -0.0277999 -0.0258056 -0.0236865 -0.0214773 -0.0191707 -0.0167493 -0.0145285 -0.0124836 -0.0103911 -0.00840364 -0.00656427 -0.00490848 -0.00345937 -0.0022404 -0.00126834 -0.000569775 -0.000143042 -1.55242e-27 0 -0.000200047 -0.000711396 -0.00148659 -0.00260518 -0.00380636 -0.00544369 -0.00722831 -0.00930133 -0.0114934 -0.0137771 -0.0161905 -0.0187257 -0.0233917 -0.0237012 -0.0261005 -0.0284197 -0.0306096 -0.0326275 -0.0344437 -0.0360304 -0.0373596 -0.0384115 -0.0391738 -0.0396283 -0.0397729 -0.0396046 -0.0391225 -0.0383403 -0.037269 -0.0359218 -0.0342844 570.016 -0.0304802 -0.0282884 -0.0259592 -0.0235361 -0.021016 -0.0185922 -0.0158861 -0.013699 -0.0113904 -0.00921008 -0.00719519 -0.00538026 -0.00379182 -0.00245562 -0.00139087 -0.000624448 -0.000156755 -1.7012e-27 0 -0.000219458 -0.000790076 -0.00164842 -0.00279263 -0.00407853 -0.00586131 -0.00774661 -0.00992325 -0.0125392 -0.0147621 -0.0173561 -0.0200163 -0.022699 -0.0256012 -0.0279823 -0.0304522 -0.0327938 -0.0349567 -0.0369036 -0.0386043 -0.0400306 -0.0411603 -0.0419785 -0.0424668 -0.042623 -0.0424447 -0.0419297 -0.0410931 -0.0399469 -0.0384661 -0.0214813 -0.0348243 -0.0326682 -0.0302929 -0.0276918 -0.0250485 -0.0223804 -0.0199291 -0.0170121 -0.0146953 -0.0122106 -0.00979013 -0.00771269 -0.00576664 -0.00406405 -0.00263197 -0.00149129 -0.000669283 -0.000168 -1.82314e-27 0 -0.000239266 -0.000858068 -0.00175671 -0.00291502 -0.00428602 -0.00615565 -0.00814003 -0.0104314 -0.013167 -0.0155292 -0.0182411 -0.021034 -0.0238503 -0.0266477 -0.029549 -0.0320207 -0.0344674 -0.0367369 -0.0387819 -0.0405702 -0.0420709 -0.0432601 -0.0441213 -0.0446356 -0.0448008 -0.044615 -0.0440744 -0.0431945 -0.0419644 -0.024122 -0.0386675 -0.0366065 -0.0343099 -0.0318634 -0.0292396 -0.0264866 -0.0237583 -0.0205863 -0.0181343 -0.0154488 -0.0125004 -0.0103662 -0.00810841 -0.00605836 -0.00426901 -0.00276655 -0.00156944 -0.00037984 -0.000176581 -1.91633e-27 0 -0.000250739 -0.000894156 -0.00183219 -0.00306372 -0.00442825 -0.00639826 -0.00841776 -0.0107694 -0.0135269 -0.0160815 -0.0188393 -0.0217228 -0.0246336 -0.0275186 -0.0303312 -0.0343031 -0.0356066 -0.0379438 -0.0400553 -0.0419023 -0.0434505 -0.0446788 -0.0455691 -0.046101 -0.0462721 -0.0460809 -0.0455186 -0.0445645 -0.0432163 -0.0418121 -0.0399514 -0.0378287 -0.03548 -0.0329316 -0.0302133 -0.0231496 -0.0245437 -0.021263 -0.0187633 -0.0159622 -0.0129296 -0.0107198 -0.00837658 -0.00625846 -0.00440242 -0.00285852 -0.00162241 -0.000715785 -0.000182384 -1.97928e-27 0 -0.000256666 -0.00091268 -0.00186794 -0.00313323 -0.00450794 -0.00645136 -0.00857245 -0.0109284 -0.0135687 -0.0167227 -0.0191325 -0.022061 -0.0250189 -0.0279491 -0.0308094 -0.0335609 -0.0361509 -0.0385311 -