<?xml version="1.0"?>
<VTKFile type="PolyData">
	<PolyData>
		<Piece NumberOfPoints="2601" NumberOfPolys="2500">
			<Points>
				<DataArray type="Float32" NumberOfComponents="3" format="ascii">
 0 0 0 0.02 0 0 0.04 0 0 0.06 0 0 0.08 0 0 0.1 0 0 0.12 0 0 0.14 0 0 0.16 0 0 0.18 0 0 0.2 0 0 0.22 0 0 0.24 0 0 0.26 0 0 0.28 0 0 0.3 0 0 0.32 0 0 0.34 0 0 0.36 0 0 0.38 0 0 0.4 0 0 0.42 0 0 0.44 0 0 0.46 0 0 0.48 0 0 0.5 0 0 0.52 0 0 0.54 0 0 0.56 0 0 0.58 0 0 0.6 0 0 0.62 0 0 0.64 0 0 0.66 0 0 0.68 0 0 0.7 0 0 0.72 0 0 0.74 0 0 0.76 0 0 0.78 0 0 0.8 0 0 0.82 0 0 0.84 0 0 0.86 0 0 0.88 0 0 0.9 0 0 0.92 0 0 0.94 0 0 0.96 0 0 0.98 0 0 1 0 0 0 0.02 0 0.02 0.02 0 0.04 0.02 0 0.06 0.02 0 0.08 0.02 0 0.1 0.02 0 0.12 0.02 0 0.14 0.02 0 0.16 0.02 0 0.18 0.02 0 0.2 0.02 0 0.22 0.02 0 0.24 0.02 0 0.26 0.02 0 0.28 0.02 0 0.3 0.02 0 0.32 0.02 0 0.34 0.02 0 0.36 0.02 0 0.38 0.02 0 0.4 0.02 0 0.42 0.02 0 0.44 0.02 0 0.46 0.02 0 0.48 0.02 0 0.5 0.02 0 0.52 0.02 0 0.54 0.02 0 0.56 0.02 0 0.58 0.02 0 0.6 0.02 0 0.62 0.02 0 0.64 0.02 0 0.66 0.02 0 0.68 0.02 0 0.7 0.02 0 0.72 0.02 0 0.74 0.02 0 0.76 0.02 0 0.78 0.02 0 0.8 0.02 0 0.82 0.02 0 0.84 0.02 0 0.86 0.02 0 0.88 0.02 0 0.9 0.02 0 0.92 0.02 0 0.94 0.02 0 0.96 0.02 0 0.98 0.02 0 1 0.02 0 0 0.04 0 0.02 0.04 0 0.04 0.04 0 0.06 0.04 0 0.08 0.04 0 0.1 0.04 0 0.12 0.04 0 0.14 0.04 0 0.16 0.04 0 0.18 0.04 0 0.2 0.04 0 0.22 0.04 0 0.24 0.04 0 0.26 0.04 0 0.28 0.04 0 0.3 0.04 0 0.32 0.04 0 0.34 0.04 0 0.36 0.04 0 0.38 0.04 0 0.4 0.04 0 0.42 0.04 0 0.44 0.04 0 0.46 0.04 0 0.48 0.04 0 0.5 0.04 0 0.52 0.04 0 0.54 0.04 0 0.56 0.04 0 0.58 0.04 0 0.6 0.04 0 0.62 0.04 0 0.64 0.04 0 0.66 0.04 0 0.68 0.04 0 0.7 0.04 0 0.72 0.04 0 0.74 0.04 0 0.76 0.04 0 0.78 0.04 0 0.8 0.04 0 0.82 0.04 0 0.84 0.04 0 0.86 0.04 0 0.88 0.04 0 0.9 0.04 0 0.92 0.04 0 0.94 0.04 0 0.96 0.04 0 0.98 0.04 0 1 0.04 0 0 0.06 0 0.02 0.06 0 0.04 0.06 0 0.06 0.06 0 0.08 0.06 0 0.1 0.06 0 0.12 0.06 0 0.14 0.06 0 0.16 0.06 0 0.18 0.06 0 0.2 0.06 0 0.22 0.06 0 0.24 0.06 0 0.26 0.06 0 0.28 0.06 0 0.3 0.06 0 0.32 0.06 0 0.34 0.06 0 0.36 0.06 0 0.38 0.06 0 0.4 0.06 0 0.42 0.06 0 0.44 0.06 0 0.46 0.06 0 0.48 0.06 0 0.5 0.06 0 0.52 0.06 0 0.54 0.06 0 0.56 0.06 0 0.58 0.06 0 0.6 0.06 0 0.62 0.06 0 0.64 0.06 0 0.66 0.06 0 0.68 0.06 0 0.7 0.06 0 0.72 0.06 0 0.74 0.06 0 0.76 0.06 0 0.78 0.06 0 0.8 0.06 0 0.82 0.06 0 0.84 0.06 0 0.86 0.06 0 0.88 0.06 0 0.9 0.06 0 0.92 0.06 0 0.94 0.06 0 0.96 0.06 0 0.98 0.06 0 1 0.06 0 0 0.08 0 0.02 0.08 0 0.04 0.08 0 0.06 0.08 0 0.08 0.08 0 0.1 0.08 0 0.12 0.08 0 0.14 0.08 0 0.16 0.08 0 0.18 0.08 0 0.2 0.08 0 0.22 0.08 0 0.24 0.08 0 0.26 0.08 0 0.28 0.08 0 0.3 0.08 0 0.32 0.08 0 0.34 0.08 0 0.36 0.08 0 0.38 0.08 0 0.4 0.08 0 0.42 0.08 0 0.44 0.08 0 0.46 0.08 0 0.48 0.08 0 0.5 0.08 0 0.52 0.08 0 0.54 0.08 0 0.56 0.08 0 0.58 0.08 0 0.6 0.08 0 0.62 0.08 0 0.64 0.08 0 0.66 0.08 0 0.68 0.08 0 0.7 0.08 0 0.72 0.08 0 0.74 0.08 0 0.76 0.08 0 0.78 0.08 0 0.8 0.08 0 0.82 0.08 0 0.84 0.08 0 0.86 0.08 0 0.88 0.08 0 0.9 0.08 0 0.92 0.08 0 0.94 0.08 0 0.96 0.08 0 0.98 0.08 0 1 0.08 0 0 0.1 0 0.02 0.1 0 0.04 0.1 0 0.06 0.1 0 0.08 0.1 0 0.1 0.1 0 0.12 0.1 0 0.14 0.1 0 0.16 0.1 0 0.18 0.1 0 0.2 0.1 0 0.22 0.1 0 0.24 0.1 0 0.26 0.1 0 0.28 0.1 0 0.3 0.1 0 0.32 0.1 0 0.34 0.1 0 0.36 0.1 0 0.38 0.1 0 0.4 0.1 0 0.42 0.1 0 0.44 0.1 0 0.46 0.1 0 0.48 0.1 0 0.5 0.1 0 0.52 0.1 0 0.54 0.1 0 0.56 0.1 0 0.58 0.1 0 0.6 0.1 0 0.62 0.1 0 0.64 0.1 0 0.66 0.1 0 0.68 0.1 0 0.7 0.1 0 0.72 0.1 0 0.74 0.1 0 0.76 0.1 0 0.78 0.1 0 0.8 0.1 0 0.82 0.1 0 0.84 0.1 0 0.86 0.1 0 0.88 0.1 0 0.9 0.1 0 0.92 0.1 0 0.94 0.1 0 0.96 0.1 0 0.98 0.1 0 1 0.1 0 0 0.12 0 0.02 0.12 0 0.04 0.12 0 0.06 0.12 0 0.08 0.12 0 0.1 0.12 0 0.12 0.12 0 0.14 0.12 0 0.16 0.12 0 0.18 0.12 0 0.2 0.12 0 0.22 0.12 0 0.24 0.12 0 0.26 0.12 0 0.28 0.12 0 0.3 0.12 0 0.32 0.12 0 0.34 0.12 0 0.36 0.12 0 0.38 0.12 0 0.4 0.12 0 0.42 0.12 0 0.44 0.12 0 0.46 0.12 0 0.48 0.12 0 0.5 0.12 0 0.52 0.12 0 0.54 0.12 0 0.56 0.12 0 0.58 0.12 0 0.6 0.12 0 0.62 0.12 0 0.64 0.12 0 0.66 0.12 0 0.68 0.12 0 0.7 0.12 0 0.72 0.12 0 0.74 0.12 0 0.76 0.12 0 0.78 0.12 0 0.8 0.12 0 0.82 0.12 0 0.84 0.12 0 0.86 0.12 0 0.88 0.12 0 0.9 0.12 0 0.92 0.12 0 0.94 0.12 0 0.96 0.12 0 0.98 0.12 0 1 0.12 0 0 0.14 0 0.02 0.14 0 0.04 0.14 0 0.06 0.14 0 0.08 0.14 0 0.1 0.14 0 0.12 0.14 0 0.14 0.14 0 0.16 0.14 0 0.18 0.14 0 0.2 0.14 0 0.22 0.14 0 0.24 0.14 0 0.26 0.14 0 0.28 0.14 0 0.3 0.14 0 0.32 0.14 0 0.34 0.14 0 0.36 0.14 0 0.38 0.14 0 0.4 0.14 0 0.42 0.14 0 0.44 0.14 0 0.46 0.14 0 0.48 0.14 0 0.5 0.14 0 0.52 0.14 0 0.54 0.14 0 0.56 0.14 0 0.58 0.14 0 0.6 0.14 0 0.62 0.14 0 0.64 0.14 0 0.66 0.14 0 0.68 0.14 0 0.7 0.14 0 0.72 0.14 0 0.74 0.14 0 0.76 0.14 0 0.78 0.14 0 0.8 0.14 0 0.82 0.14 0 0.84 0.14 0 0.86 0.14 0 0.88 0.14 0 0.9 0.14 0 0.92 0.14 0 0.94 0.14 0 0.96 0.14 0 0.98 0.14 0 1 0.14 0 0 0.16 0 0.02 0.16 0 0.04 0.16 0 0.06 0.16 0 0.08 0.16 0 0.1 0.16 0 0.12 0.16 0 0.14 0.16 0 0.16 0.16 0 0.18 0.16 0 0.2 0.16 0 0.22 0.16 0 0.24 0.16 0 0.26 0.16 0 0.28 0.16 0 0.3 0.16 0 0.32 0.16 0 0.34 0.16 0 0.36 0.16 0 0.38 0.16 0 0.4 0.16 0 0.42 0.16 0 0.44 0.16 0 0.46 0.16 0 0.48 0.16 0 0.5 0.16 0 0.52 0.16 0 0.54 0.16 0 0.56 0.16 0 0.58 0.16 0 0.6 0.16 0 0.62 0.16 0 0.64 0.16 0 0.66 0.16 0 0.68 0.16 0 0.7 0.16 0 0.72 0.16 0 0.74 0.16 0 0.76 0.16 0 0.78 0.16 0 0.8 0.16 0 0.82 0.16 0 0.84 0.16 0 0.86 0.16 0 0.88 0.16 0 0.9 0.16 0 0.92 0.16 0 0.94 0.16 0 0.96 0.16 0 0.98 0.16 0 1 0.16 0 0 0.18 0 0.02 0.18 0 0.04 0.18 0 0.06 0.18 0 0.08 0.18 0 0.1 0.18 0 0.12 0.18 0 0.14 0.18 0 0.16 0.18 0 0.18 0.18 0 0.2 0.18 0 0.22 0.18 0 0.24 0.18 0 0.26 0.18 0 0.28 0.18 0 0.3 0.18 0 0.32 0.18 0 0.34 0.18 0 0.36 0.18 0 0.38 0.18 0 0.4 0.18 0 0.42 0.18 0 0.44 0.18 0 0.46 0.18 0 0.48 0.18 0 0.5 0.18 0 0.52 0.18 0 0.54 0.18 0 0.56 0.18 0 0.58 0.18 0 0.6 0.18 0 0.62 0.18 0 0.64 0.18 0 0.66 0.18 0 0.68 0.18 0 0.7 0.18 0 0.72 0.18 0 0.74 0.18 0 0.76 0.18 0 0.78 0.18 0 0.8 0.18 0 0.82 0.18 0 0.84 0.18 0 0.86 0.18 0 0.88 0.18 0 0.9 0.18 0 0.92 0.18 0 0.94 0.18 0 0.96 0.18 0 0.98 0.18 0 1 0.18 0 0 0.2 0 0.02 0.2 0 0.04 0.2 0 0.06 0.2 0 0.08 0.2 0 0.1 0.2 0 0.12 0.2 0 0.14 0.2 0 0.16 0.2 0 0.18 0.2 0 0.2 0.2 0 0.22 0.2 0 0.24 0.2 0 0.26 0.2 0 0.28 0.2 0 0.3 0.2 0 0.32 0.2 0 0.34 0.2 0 0.36 0.2 0 0.38 0.2 0 0.4 0.2 0 0.42 0.2 0 0.44 0.2 0 0.46 0.2 0 0.48 0.2 0 0.5 0.2 0 0.52 0.2 0 0.54 0.2 0 0.56 0.2 0 0.58 0.2 0 0.6 0.2 0 0.62 0.2 0 0.64 0.2 0 0.66 0.2 0 0.68 0.2 0 0.7 0.2 0 0.72 0.2 0 0.74 0.2 0 0.76 0.2 0 0.78 0.2 0 0.8 0.2 0 0.82 0.2 0 0.84 0.2 0 0.86 0.2 0 0.88 0.2 0 0.9 0.2 0 0.92 0.2 0 0.94 0.2 0 0.96 0.2 0 0.98 0.2 0 1 0.2 0 0 0.22 0 0.02 0.22 0 0.04 0.22 0 0.06 0.22 0 0.08 0.22 0 0.1 0.22 0 0.12 0.22 0 0.14 0.22 0 0.16 0.22 0 0.18 0.22 0 0.2 0.22 0 0.22 0.22 0 0.24 0.22 0 0.26 0.22 0 0.28 0.22 0 0.3 0.22 0 0.32 0.22 0 0.34 0.22 0 0.36 0.22 0 0.38 0.22 0 0.4 0.22 0 0.42 0.22 0 0.44 0.22 0 0.46 0.22 0 0.48 0.22 0 0.5 0.22 0 0.52 0.22 0 0.54 0.22 0 0.56 0.22 0 0.58 0.22 0 0.6 0.22 0 0.62 0.22 0 0.64 0.22 0 0.66 0.22 0 0.68 0.22 0 0.7 0.22 0 0.72 0.22 0 0.74 0.22 0 0.76 0.22 0 0.78 0.22 0 0.8 0.22 0 0.82 0.22 0 0.84 0.22 0 0.86 0.22 0 0.88 0.22 0 0.9 0.22 0 0.92 0.22 0 0.94 0.22 0 0.96 0.22 0 0.98 0.22 0 1 0.22 0 0 0.24 0 0.02 0.24 0 0.04 0.24 0 0.06 0.24 0 0.08 0.24 0 0.1 0.24 0 0.12 0.24 0 0.14 0.24 0 0.16 0.24 0 0.18 0.24 0 0.2 0.24 0 0.22 0.24 0 0.24 0.24 0 0.26 0.24 0 0.28 0.24 0 0.3 0.24 0 0.32 0.24 0 0.34 0.24 0 0.36 0.24 0 0.38 0.24 0 0.4 0.24 0 0.42 0.24 0 0.44 0.24 0 0.46 0.24 0 0.48 0.24 0 0.5 0.24 0 0.52 0.24 0 0.54 0.24 0 0.56 0.24 0 0.58 0.24 0 0.6 0.24 0 0.62 0.24 0 0.64 0.24 0 0.66 0.24 0 0.68 0.24 0 0.7 0.24 0 0.72 0.24 0 0.74 0.24 0 0.76 0.24 0 0.78 0.24 0 0.8 0.24 0 0.82 0.24 0 0.84 0.24 0 0.86 0.24 0 0.88 0.24 0 0.9 0.24 0 0.92 0.24 0 0.94 0.24 0 0.96 0.24 0 0.98 0.24 0 1 0.24 0 0 0.26 0 0.02 0.26 0 0.04 0.26 0 0.06 0.26 0 0.08 0.26 0 0.1 0.26 0 0.12 0.26 0 0.14 0.26 0 0.16 0.26 0 0.18 0.26 0 0.2 0.26 0 0.22 0.26 0 0.24 0.26 0 0.26 0.26 0 0.28 0.26 0 0.3 0.26 0 0.32 0.26 0 0.34 0.26 0 0.36 0.26 0 0.38 0.26 0 0.4 0.26 0 0.42 0.26 0 0.44 0.26 0 0.46 0.26 0 0.48 0.26 0 0.5 0.26 0 0.52 0.26 0 0.54 0.26 0 0.56 0.26 0 0.58 0.26 0 0.6 0.26 0 0.62 0.26 0 0.64 0.26 0 0.66 0.26 0 0.68 0.26 0 0.7 0.26 0 0.72 0.26 0 0.74 0.26 0 0.76 0.26 0 0.78 0.26 0 0.8 0.26 0 0.82 0.26 0 0.84 0.26 0 0.86 0.26 0 0.88 0.26 0 0.9 0.26 0 0.92 0.26 0 0.94 0.26 0 0.96 0.26 0 0.98 0.26 0 1 0.26 0 0 0.28 0 0.02 0.28 0 0.04 0.28 0 0.06 0.28 0 0.08 0.28 0 0.1 0.28 0 0.12 0.28 0 0.14 0.28 0 0.16 0.28 0 0.18 0.28 0 0.2 0.28 0 0.22 0.28 0 0.24 0.28 0 0.26 0.28 0 0.28 0.28 0 0.3 0.28 0 0.32 0.28 0 0.34 0.28 0 0.36 0.28 0 0.38 0.28 0 0.4 0.28 0 0.42 0.28 0 0.44 0.28 0 0.46 0.28 0 0.48 0.28 0 0.5 0.28 0 0.52 0.28 0 0.54 0.28 0 0.56 0.28 0 0.58 0.28 0 0.6 0.28 0 0.62 0.28 0 0.64 0.28 0 0.66 0.28 0 0.68 0.28 0 0.7 0.28 0 0.72 0.28 0 0.74 0.28 0 0.76 0.28 0 0.78 0.28 0 0.8 0.28 0 0.82 0.28 0 0.84 0.28 0 0.86 0.28 0 0.88 0.28 0 0.9 0.28 0 0.92 0.28 0 0.94 0.28 0 0.96 0.28 0 0.98 0.28 0 1 0.28 0 0 0.3 0 0.02 0.3 0 0.04 0.3 0 0.06 0.3 0 0.08 0.3 0 0.1 0.3 0 0.12 0.3 0 0.14 0.3 0 0.16 0.3 0 0.18 0.3 0 0.2 0.3 0 0.22 0.3 0 0.24 0.3 0 0.26 0.3 0 0.28 0.3 0 0.3 0.3 0 0.32 0.3 0 0.34 0.3 0 0.36 0.3 0 0.38 0.3 0 0.4 0.3 0 0.42 0.3 0 0.44 0.3 0 0.46 0.3 0 0.48 0.3 0 0.5 0.3 0 0.52 0.3 0 0.54 0.3 0 0.56 0.3 0 0.58 0.3 0 0.6 0.3 0 0.62 0.3 0 0.64 0.3 0 0.66 0.3 0 0.68 0.3 0 0.7 0.3 0 0.72 0.3 0 0.74 0.3 0 0.76 0.3 0 0.78 0.3 0 0.8 0.3 0 0.82 0.3 0 0.84 0.3 0 0.86 0.3 0 0.88 0.3 0 0.9 0.3 0 0.92 0.3 0 0.94 0.3 0 0.96 0.3 0 0.98 0.3 0 1 0.3 0 0 0.32 0 0.02 0.32 0 0.04 0.32 0 0.06 0.32 0 0.08 0.32 0 0.1 0.32 0 0.12 0.32 0 0.14 0.32 0 0.16 0.32 0 0.18 0.32 0 0.2 0.32 0 0.22 0.32 0 0.24 0.32 0 0.26 0.32 0 0.28 0.32 0 0.3 0.32 0 0.32 0.32 0 0.34 0.32 0 0.36 0.32 0 0.38 0.32 0 0.4 0.32 0 0.42 0.32 0 0.44 0.32 0 0.46 0.32 0 0.48 0.32 0 0.5 0.32 0 0.52 0.32 0 0.54 0.32 0 0.56 0.32 0 0.58 0.32 0 0.6 0.32 0 0.62 0.32 0 0.64 0.32 0 0.66 0.32 0 0.68 0.32 0 0.7 0.32 0 0.72 0.32 0 0.74 0.32 0 0.76 0.32 0 0.78 0.32 0 0.8 0.32 0 0.82 0.32 0 0.84 0.32 0 0.86 0.32 0 0.88 0.32 0 0.9 0.32 0 0.92 0.32 0 0.94 0.
[...]
			<PointData Scalars="VitesseX">
				<DataArray Name="VitesseX" type="Float32" format="ascii">
 0 0 0 0 0 0 0 0 0 0 0 0 0 0 0 0 0 0 0 0 0 0 0 0 0 0 0 0 0 0 0 0 0 0 0 0 0 0 0 0 0 0 0 0 0 0 0 0 0 0 0 0 0.000464144 0.00185841 0.0040994 0.00722279 0.0111385 0.0158228 0.0211888 0.0270146 0.0334161 0.0401353 0.0471528 0.0542689 0.0614381 0.0686165 0.075502 0.0822578 0.0886182 0.0944264 0.0996192 0.104011 0.107688 0.109464 0.111537 0.112992 0.1132 0.110254 0.12312 -1.06462 0.10665 0.102507 0.0979643 0.0927923 0.0870541 0.0808434 0.0742592 0.0673555 0.0602894 0.053217 0.0461066 0.0392071 0.0325906 0.0264448 0.020685 0.0155032 0.0109519 0.00712033 0.0041413 0.00183393 0.000492242 4.85061e-27 0 0.000897736 0.00357805 0.00797293 0.0140368 0.0217203 0.0308117 0.040934 0.052844 0.0653154 0.0785729 0.0923288 0.106338 0.120448 0.134513 0.148133 0.161361 0.17362 0.185089 0.195503 0.204477 0.212058 0.217499 0.221476 0.223614 0.224946 0.224177 0.221525 0.214571 0.19787 -0.204773 0.1824 0.185135 0.173382 0.161117 0.147851 0.134091 0.120067 0.105888 0.0918406 0.0781884 0.0650606 0.0526189 0.0411646 0.0308138 0.021761 0.0141451 0.00807872 0.00365273 0.00093121 9.62547e-27 0 0.00131649 0.00523603 0.0117437 0.0206254 0.0319686 0.0453127 0.0606614 0.0780097 0.0964789 0.116117 0.136386 0.156948 0.177697 0.198378 0.218433 0.237804 0.255722 0.27264 0.287919 0.30123 0.312609 0.321558 0.328062 0.331131 0.33298 0.331851 0.328677 0.32198 0.313291 0.302636 0.289036 0.276643 1.12388 0.237437 0.219163 0.198766 0.177901 0.156884 0.136127 0.115879 0.0963816 0.0780219 0.0611041 0.0458288 0.0324091 0.0210656 0.0118464 0.00543622 0.0014267 1.42456e-26 0 0.0017001 0.0114554 0.0152261 0.0274128 0.0417245 0.0591069 0.0787507 0.102115 0.126339 0.151914 0.178289 0.205225 0.23249 0.259433 0.285454 0.310461 0.333917 0.355783 0.375538 0.393176 0.408247 0.420105 0.428793 0.434324 0.435785 0.433802 0.430967 0.421498 0.409962 0.395898 0.378088 0.358718 0.337378 0.31493 0.298311 0.260499 0.232967 0.20548 0.178525 0.152018 0.126259 0.102004 0.0795077 0.0594353 0.0419639 0.0272829 0.0155199 0.0069941 0.00177629 1.86461e-26 0 0.00211169 0.0440473 0.0169783 -0.0127406 0.0506225 0.0719538 0.0958446 0.123634 0.153669 0.185105 0.217444 0.250333 0.283412 0.316168 0.347855 0.377383 0.406585 0.433466 0.456906 0.478506 0.497109 0.511686 0.522473 0.529484 0.531748 0.530463 0.532078 0.513183 0.498385 0.481232 0.460359 0.437356 0.411846 0.382664 0.35133 0.318564 0.28499 0.251412 0.218745 0.185363 0.154975 0.127806 0.0985316 0.0726752 0.0511913 0.0332879 0.0189509 0.00854784 0.0021722 2.27455e-26 0 0.0924865 0.00935457 0.0340742 0.03633 0.0587282 0.0835321 0.111338 0.142283 0.17789 0.214453 0.251937 0.290168 0.328373 0.366361 0.403299 0.438493 0.464112 0.516987 0.545819 0.563156 0.591014 0.597817 0.607326 0.616405 0.619379 0.618148 0.611605 0.599956 0.583118 0.562538 0.533237 0.507918 0.479868 0.445744 0.409271 0.371487 0.333029 0.294991 0.260397 0.215262 0.1802 0.149237 0.116136 0.0849239 0.0595627 0.0387208 0.0220785 0.00997758 0.00254044 2.64826e-26 0 0.00267949 0.0107164 -0.00322713 0.0420975 0.0660556 0.0939394 0.125224 0.158954 0.199088 0.239989 0.281819 0.32444 0.36683 0.409306 0.451251 0.492258 0.526474 0.417404 0.599487 0.636773 0.663747 0.686625 0.694079 0.693221 0.697426 0.697831 0.688754 0.602967 0.63915 0.637271 0.612738 0.576181 0.541929 0.501879 0.461171 0.418952 0.375841 0.333169 0.294224 0.244233 0.203324 0.166516 0.133211 0.0935236 0.0639338 0.0423948 0.024598 0.0111602 0.00283508 2.98225e-26 0 0.00300729 0.0119741 0.0261535 0.0457834 0.0721577 0.102771 0.136968 0.174095 0.217146 0.261688 0.30731 0.352972 0.402875 0.450251 0.491143 0.53578 0.579163 19.4957 0.629633 0.683717 0.712312 0.734113 0.750121 0.760586 0.764466 0.761433 0.751199 0.744244 0.721515 0.670012 0.677624 0.64318 0.587987 0.556079 0.505467 0.455204 0.405357 0.360047 0.317758 0.267607 0.223006 0.182506 0.146804 0.104646 0.07378 0.0480042 0.0273556 0.012312 0.00311469 3.26712e-26 0 0.00321607 0.0128024 0.0285434 0.0497997 0.0774024 0.109828 0.146126 0.185903 0.231741 0.279379 0.327727 0.374835 0.437571 0.484585 0.516377 0.573759 0.616404 0.433352 0.667584 0.729755 0.761159 0.784733 0.802188 0.813868 0.818476 0.817385 0.809349 0.79853 0.773312 0.747523 0.716222 0.680732 0.643455 0.596475 0.551235 0.492919 0.441864 0.390839 0.340457 0.288398 0.235472 0.195575 0.1573 0.112331 0.0791245 0.0515009 0.0293677 0.0132397 0.00336319 3.50081e-26 0 0.00337598 0.0134387 0.0299844 0.0527312 0.0814023 0.115306 0.153301 0.196233 0.243087 0.292444 0.342843 -0.842127 0.447035 0.50115 0.5517 0.602443 0.647113 0.451172 0.694615 0.765147 0.798348 0.823484 0.842226 0.854952 0.860005 0.859145 0.851541 0.839344 0.815287 0.787581 0.754261 0.716666 0.676547 0.625238 0.583963 0.521031 0.465386 0.410746 0.357055 0.305307 0.267357 0.204362 0.163353 0.118219 0.0832266 0.0540994 0.0308222 0.0139043 0.00354157 3.67981e-26 0 0.00348492 0.0138726 0.0309488 0.0544155 0.0840357 0.11902 0.158014 0.203391 0.251073 0.301337 0.353351 0.400439 0.452595 0.513676 0.565357 0.616358 0.655993 0.709928 0.736556 0.789296 0.823387 0.849898 0.869514 0.882824 0.888173 0.88746 0.880089 0.866669 0.842592 0.814511 0.78013 0.741066 0.698641 0.645941 0.600488 0.543961 0.482567 0.42543 0.370076 0.316868 0.277551 0.20944 0.164101 0.122193 0.0862406 0.056074 0.0319117 0.014386 0.00366157 3.80082e-26 0 0.00353541 0.014066 0.0313737 0.0551469 0.0850918 0.12031 0.186263 0.20456 0.253874 0.304453 0.355972 0.411203 0.456549 0.518922 0.569747 0.62079 0.671922 0.723329 0.765968 0.800453 0.77737 0.859061 0.881603 0.896077 0.902364 0.9018 0.888026 0.871041 0.857331 0.828892 0.794584 0.758462 0.753012 0.658447 0.613241 0.565272 0.493373 0.434435 0.377899 0.323708 0.279212 0.215201 0.166762 0.124492 0.0879324 0.0571839 0.0325447 0.0146707 0.00372711 3.86214e-26 0 0.00353555 0.0140659 0.0313702 0.0551328 0.0850794 0.120208 0.193755 0.203015 0.253702 0.30429 -6.93302 0.411775 0.460403 0.518877 0.570604 0.620309 0.677143 0.721474 0.75544 0.804785 0.836383 0.861322 7.46093 0.893429 0.902555 0.902063 0.894995 0.879888 0.858213 0.829906 0.79537 0.754851 0.709544 0.660493 0.609217 0.573261 0.492676 0.434065 0.377251 0.322526 0.274477 0.216944 0.166969 0.124581 0.0879474 0.0571615 0.0325539 0.0146904 0.00373529 3.86283e-26 0 0.0034771 0.0138311 0.030781 0.0541037 0.0834337 0.117754 0.134668 0.198511 0.248568 0.240028 0.343478 0.402127 0.451052 0.504851 0.56322 0.613624 0.660538 0.708031 0.749609 0.789133 0.821701 14.3917 0.863846 0.881296 0.888238 0.888153 0.882392 0.868174 0.847627 0.820441 0.786919 0.747431 0.702858 0.654402 0.602653 0.549037 0.496043 0.428827 0.372093 0.318475 0.267718 0.218719 0.165324 0.123267 0.0869473 0.0564611 0.0321731 0.0145247 0.00366226 3.80205e-26 0 0.00336493 0.0133814 0.0297351 0.0522394 0.0804539 0.11348 0.152265 0.182726 0.392125 -0.0765597 0.337972 0.388063 0.430944 0.418341 0.531898 0.596132 0.640047 0.684589 0.726043 0.762374 34.9427 0.812369 0.837704 0.852239 0.859839 0.859903 0.854759 0.841295 0.821665 0.795555 0.763269 0.725254 0.682132 0.634864 0.584375 0.531651 0.47755 0.423313 -1.11834 0.254521 0.262291 0.2255 0.161216 0.119463 0.0842885 0.0547154 0.0311963 0.0140825 0.00354131 3.68224e-26 0 0.00320145 0.012706 0.0281955 0.0495101 0.0763141 0.10668 0.141844 0.435469 0.149428 0.252189 0.319997 0.36857 0.412699 0.459238 0.514026 0.562509 0.607445 0.649787 0.665554 140.861 0.736298 0.7762 0.796133 0.809923 0.817929 0.818247 0.814093 0.801751 0.783537 0.759046 0.728617 0.692686 0.651806 0.606796 0.558377 0.507548 0.455387 0.402502 0.351766 0.317768 0.208691 0.223976 0.168076 0.114127 0.0804137 0.0522007 0.0298101 0.0131256 0.00326026 3.5058e-26 0 0.00299416 0.0118192 0.0262101 0.0461088 0.070848 0.0970863 0.130215 0.101588 0.197242 0.252197 0.296738 0.337195 0.385782 0.424685 0.447413 0.509203 0.556026 0.597523 0.629383 -54.6939 0.69529 0.722558 0.741598 0.754999 0.763205 0.763817 0.760875 0.749828 0.733347 0.710947 0.682922 0.649682 0.611748 0.569755 0.524257 0.476178 0.426943 0.377204 0.32766 0.281424 0.275076 0.145166 0.176158 0.107008 0.0753759 0.0489511 0.0279283 0.01211 0.00302865 3.26795e-26 0 0.00273074 0.017517 0.0237344 0.105623 0.0638384 0.0857008 0.11795 0.144568 0.187706 0.227483 0.267128 0.307457 0.331698 383.06 0.424893 0.469779 0.507135 0.5435 0.57918 0.437634 0.634471 0.656894 0.674909 0.688053 0.696408 0.697474 0.695237 0.685775 0.671393 0.651693 0.626633 0.59657 0.562077 0.523746 0.482251 0.438105 0.3924 0.346463 0.300742 0.255939 0.214014 0.185765 -0.103033 0.0990293 0.0689839 0.0448051 0.0254354 0.0112052 0.0027622 2.98605e-26 0 0.00242567 0.0155485 0.0207648 0.0215747 0.0554414 0.0757655 0.102892 0.133657 0.166207 0.19954 0.224167 0.258103 0.290825 0.339649 0.37928 0.414679 0.448131 0.473279 0.495439 0.458063 0.560682 0.579035 0.596468 0.609965 0.618628 0.620399 0.618683 0.611293 0.599438 0.582676 0.560497 0.533799 0.503511 0.469723 0.432739 0.393451 0.352424 0.310776 0.269549 0.229139 0.190318 0.154463 0.134062 0.0882338 0.0615637 0.0492073 0.0226181 0.00991444 0.00245481 2.65507e-26 0 0.00207059 0.0278077 0.0171397 0.028862 0.0462678 0.0651999 0.0883342 0.114087 0.141519 0.168615 0.19651 0.225594 0.254989 0.28925 0.320657 0.351449 0.346627 0.40285 0.432753 0.45833 0.316416 0.44985 0.504656 0.522438 0.531238 0.534635 0.533957 0.529646 0.520498 0.505676 0.48588 0.463168 0.437306 0.40819 0.376482 0.342603 0.307127 0.270784 0.234663 0.199376 0.165318 0.133695 0.131754 0.0793002 -1.04565 0.035731 0.0192246 0.00854996 0.00214074 2.2819e-26 0 0.00679085 0.00482112 0.0135877 0.0240882 0.0371699 0.0526966 0.0715933 0.0919439 0.113423 0.130024 0.157655 0.181635 0.206044 0.231106 0.255929 0.279717 0.213427 0.326959 0.351379 0.370917 0.386704 0.397954 0.407612 0.425825 0.453228 0.452836 0.45116 0.447436 0.438759 0.422569 0.40587 0.387126 0.365013 0.340797 0.314455 0.286372 0.257005 0.226695 0.196267 0.166496 0.137976 0.111415 0.0882417 0.0635001 0.04311 0.0280371 0.0167754 0.00699455 0.00175564 1.87507e-26 0 -9.19594e-05 0.00444611 0.0101328 0.0186058 0.0274484 0.0398211 0.053286 0.0682204 0.0794577 0.0980488 0.116776 0.134103 0.137621 0.168273 0.187903 0.203466 0.216845 0.244366 0.262511 0.277756 0.29095 0.301414 0.308994 0.308935 0.325464 0.409943 0.342393 0.338876 0.333414 0.358064 0.333365 0.306833 0.288026 0.26887 0.24811 0.225968 0.202968 0.179123 0.15494 0.131305 0.108696 0.087378 0.0679936 0.0884987 0.0361242 0.0219004 0.0147279 0.00555019 0.00134675 1.4426e-26 0 0.000690031 0.00303157 0.00668412 0.01187 0.0183757 0.0252825 0.0318292 0.0381016 0.0510756 0.0622927 0.0734609 0.0731136 0.0639281 0.104109 0.116539 0.126564 0.142913 0.15835 0.169683 0.177735 0.184621 0.192549 0.204971 0.213173 0.224013 0.225356 0.23471 0.234208 0.232325 0.228374 0.220195 0.226813 0.210188 0.193147 0.17835 0.162624 0.145945 0.128822 0.111485 0.0943322 0.0778493 0.062344 0.0483239 0.0369378 0.0257783 0.015698 0.00849797 0.00378186 0.000924447 1.00138e-26 0 0.00036532 0.0014231 0.00301846 0.00495367 0.00763125 0.00982656 0.00816438 0.0155221 0.0204296 0.0239426 0.0192882 0.0250135 0.0324567 0.0381272 0.0429439 0.048457 0.0558265 0.0608014 0.0450757 0.0320911 0.0401959 0.0716472 0.0952702 0.103348 0.107833 0.116924 0.125536 0.127171 0.127872 0.127364 0.125489 0.117269 0.146078 0.118094 0.105949 0.0968892 0.0870215 0.0767728 0.0663536 0.0558698 0.0458494 0.0364839 0.0280506 0.0205874 0.0127988 0.00910487 0.00449839 0.00200875 0.000489578 6.47075e-27 0 -6.05215e-05 -0.000328327 -0.000865407 -0.00169071 -0.00327826 -0.00831078 -0.00847763 -0.00936362 -0.0122374 -0.0247153 -0.022361 -0.024692 -0.02623 -0.0309359 -0.0333808 -0.0346992 -0.0329249 -0.0301104 -0.0300245 -0.0301879 -0.0272896 -0.0335893 -0.043402 -0.0273871 0.00100818 0.00991709 0.0158821 0.0195756 0.0228742 0.0254852 0.0286915 0.0331928 0.0372027 0.0569106 0.0345261 0.0302814 0.0270204 0.0237875 0.0203194 0.0167174 0.0132963 0.0101587 0.00745447 0.00508539 0.00362156 0.00105165 0.000552262 0.000239077 5.02002e-05 2.58353e-28 0 -0.000502768 -0.0021305 -0.00493772 -0.00863637 -0.0152446 -0.0217009 -0.0275474 -0.0358028 -0.052357 -0.0579303 -0.0663749 -0.0765444 -0.0871012 -0.100817 -0.112514 -0.120551 -0.119177 -0.120514 -0.125073 -0.129813 -0.132961 -0.127697 -0.127141 -0.117475 -0.112179 -0.0994845 -0.0925534 -0.0869889 -0.0807142 -0.0746086 -0.0683361 -0.0458951 -0.0663868 -0.045389 -0.0315321 -0.0366591 -0.0332418 -0.0293764 -0.0257857 -0.0224535 -0.0192622 -0.0161794 -0.0131316 -0.0102654 0.0183956 -0.00466833 -0.00337155 -0.00153204 -0.000264492 -3.28806e-27 0 -0.000960012 -0.00388176 -0.00879872 -0.0156674 -0.0256638 -0.0354774 -0.0476712 -0.065799 -0.0800223 -0.0943865 -0.111265 -0.129481 -0.145832 -0.163986 -0.182446 -0.19761 -0.204494 -0.21176 -0.22275 -0.23457 -0.243409 -0.23286 -0.234438 -0.226658 -0.219469 -0.181641 -0.192252 -0.189253 -0.180472 -0.166365 -0.138085 -0.157014 -0.139952 -0.125284 -0.111277 -0.103992 -0.0928772 -0.0819316 -0.0713912 -0.0612414 -0.0514726 -0.0421957 -0.033433 -0.0253212 -0.0176054 -0.0122641 -0.00721628 -0.00328182 -0.3616 -8.76551e-27 0 -0.00141625 -0.00563028 -0.0125355 -0.0223873 -0.0349426 -0.0491081 -0.0683192 -0.0887358 -0.108905 -0.130936 -0.15642 -0.183504 -0.202585 -0.226003 -0.250978 -0.28763 -0.328229 -0.342314 -0.432744 -0.436488 -0.363825 -0.339601 -0.341014 -0.344325 -0.330758 -0.321306 -0.313803 -0.303165 -0.291211 -0.277421 -0.262295 -0.244425 -0.164027 -0.206103 -0.17956 -0.16888 -0.150859 -0.133068 -0.115736 -0.0989162 -0.0827653 -0.0674697 -0.0531398 -0.039971 -0.0291888 -0.0186972 -0.00204768 -0.00495905 0.00217107 -1.38915e-26 0 -0.00183745 -0.00726338 -0.0161046 -0.0285976 -0.044194 -0.063121 -0.086211 -0.111396 -0.136503 -0.166228 -0.211335 -0.249011 -0.257579 -0.290741 -0.322207 -0.348323 -0.369465 -0.3915 -0.410864 -0.427662 -0.443941 -0.448802 -0.438161 -0.440331 -0.433621 -0.425334 -0.416036 -0.403312 -0.387873 -0.369892 -0.350108 -0.31884 -0.282816 -0.281277 -0.25658 -0.230349 -0.206169 -0.181986 -0.158118 -0.134901 -0.112668 -0.0916089 -0.0718873 -0.0537853 -0.0387795 -0.0254212 -0.0145726 -0.0061934 -0.00120563 -1.85079e-26 0 -0.00224726 -0.00883315 -0.0196252 -0.0344343 -0.0536765 -0.0772289 -0.103685 -0.132608 -0.163777 -0.203985 -0.235327 -0.275143 -0.34679 -0.393494 -0.383403 -0.408376 -0.439206 -0.466685 -0.489898 -0.506397 -0.517193 -0.526402 -0.529808 -0.533535 -0.528385 -0.520742 -0.509822 -0.495049 -0.476741 -0.455287 -0.428547 -0.368323 -0.378919 -0.350494 -0.32049 -0.285883 -0.257713 -0.227822 -0.19786 -0.168642 -0.140719 -0.114247 -0.0893811 -0.066415 -0.0482784 -0.0316266 -0.0180331 -0.0082166 -0.0020653 -2.26741e-26 0 -0.0026076 -0.0102674 -0.022778 -0.0400305 -0.0629229 -0.0895317 -0.119767 -0.151546 -0.186583 -0.236415 -0.270533 -0.31066 -0.352219 -0.395706 -0.436866 -0.472734 -0.508234 -0.545176 -0.574468 -0.588492 -0.604387 -0.611026 -0.620663 -0.622458 -0.614414 -0.606503 -0.594054 -0.577591 -0.556776 -0.530763 -0.501989 -0.4791 -0.446221 -0.411306 -0.37585 -0.33498 -0.305196 -0.269837 -0.234251 -0.199582 -0.166421 -0.134988 -0.10545 -0.0780681 -0.0569396 -0.0371423 -0.021146 -0.00952429 -0.00239803 -2.6431e-26 0 -0.00292196 -0.0114947 -0.0253564 -0.0481569 -0.0699232 -0.100724 -0.132596 -0.169084 -0.210455 -0.260511 -0.301455 -0.346314 -0.392417 -0.440913 -0.483444 -0.526993 -0.572467 -0.612697 -0.634035 -0.656803 -0.672687 -0.687683 -0.693881 -0.693279 -0.685216 -0.682107 -0.67572 -0.658777 -0.636388 -0.609044 -0.577743 -0.542111 -0.503597 -0.462142 -0.419132 -0.377806 -0.347529 -0.307388 -0.266795 -0.22724 -0.189371 -0.153495 -0.119868 -0.0889516 -0.0643319 -0.041938 -0.0238897 -0.0107428 -0.00271182 -2.97516e-26 0 -0.00320021 -0.0126049 -0.0279039 -0.0516796 -0.0765892 -0.110072 -0.146381 -0.185672 -0.228583 -0.282486 -0.328134 -0.377375 -0.428255 -0.477605 -0.524812 -0.569889 -0.612902 -0.653012 -0.684896 -0.709881 -0.73244 -0.752973 -0.766336 -0.765531 -0.760244 -0.753711 -0.741606 -0.723401 -0.699006 -0.669983 -0.636569 -0.595091 -0.545922 -0.474476 -0.47532 -0.424956 -0.38467 -0.340029 -0.2951 -0.251225 -0.209247 -0.169512 -0.132327 -0.0983622 -0.0704795 -0.0459166 -0.0261628 -0.0118491 -0.00298625 -3.26209e-26 0 -0.00343585 -0.0135575 -0.0301109 -0.052163 -0.0810193 -0.118331 -0.156151 -0.197868 -0.243702 -0.301039 -0.350773 -0.402879 -0.45758 -0.510778 -0.561017 -0.608214 -0.65209 -0.693231 -0.764835 -0.773468 -0.785351 -0.798465 -0.816282 -0.81857 -0.817355 -0.808735 -0.795824 -0.776216 -0.750253 -0.72014 -0.685052 -0.639165 -0.605184 -0.560495 -0.49523 -0.464316 -0.416058 -0.367059 -0.318615 -0.271165 -0.225734 -0.182794 -0.14258 -0.105846 -0.0754061 -0.0489909 -0.0281534 -0.0126916 -0.00320743 -3.49753e-26 0 -0.00362152 -0.0142683 -0.0316217 -0.0549166 -0.0844024 -0.12329 -0.163176 -0.206649 -0.255232 -0.314773 -0.367829 -0.420435 -0.475641 -0.53645 -0.587451 -0.635491 -0.681816 -0.726169 -0.773332 -0.796693 -0.822712 -0.842597 -0.855009 -0.860216 -0.859743 -0.85285 -0.832733 -0.808152 -0.780467 -0.751177 -0.72065 -0.682517 -0.63899 -0.592139 -0.523975 -0.491651 -0.440152 -0.387985 -0.336702 -0.286561 -0.238567 -0.193121 -0.150508 -0.111548 -0.0798604 -0.0523057 -0.0298334 -0.0133431 -0.00337702 -3.68012e-26 0 -0.00373957 -0.0146914 -0.0324527 -0.0567094 -0.0872391 -0.127414 -0.168164 -0.212863 -0.262901 -0.337666 -0.378034 -0.432546 -0.488986 -0.551567 -0.605792 -0.654913 -0.701875 -0.746878 -0.793628 -0.821526 -0.848057 -0.870557 -0.890868 -0.888678 -0.887982 -0.880862 -0.866501 -0.845977 -0.819353 -0.787116 -0.749763 -0.708044 -0.667702 -0.539124 -0.523504 -0.510918 -0.456858 -0.402828 -0.349353 -0.297279 -0.247411 -0.200153 -0.15596 -0.115284 -0.0827837 -0.0540941 -0.0308417 -0.0137977 -0.00348883 -3.80086e-26 0 -0.00374476 -0.0146858 -0.0325454 -0.0568639 -0.0876324 -0.1493 -0.168355 -0.213676 -0.267331 -0.317626 -0.382539 -0.436814 -0.49364 -0.550672 -0.612296 -0.661759 -0.709607 -0.754015 -0.794091 -0.829918 -0.859034 -0.880508 -0.896699 -0.901971 -0.902309 -0.896065 -0.882113 -0.861897 -0.835061 -0.802627 -0.764966 -0.722707 -0.676415 -0.627349 -0.565854 -0.520641 -0.466771 -0.411676 -0.356911 -0.303601 -0.25248 -0.204093 -0.158888 -0.11614 -0.084459 -0.0550509 -0.0313723 -0.0140462 -0.00354491 -3.86208e-26 0 -0.00366972 -0.0143975 -0.0323595 -0.0582543 -0.0892435 -0.125549 -0.16872 -0.215637 -0.265795 -0.317502 -0.392741 -0.438351 -0.49374 -0.549542 -0.605374 -0.664416 -0.710574 -0.754094 -0.793547 -0.828463 -0.859781 -0.883868 -0.896336 -0.90043 -0.900421 -0.896723 -0.882333 -0.861737 -0.835506 -0.804179 -0.766435 -0.723564 -0.678152 -0.610229 -0.573946 -0.521815 -0.467268 -0.411997 -0.357146 -0.303827 -0.252629 -0.204218 -0.158758 -0.111199 -0.0845917 -0.055079 -0.0313776 -0.014048 -0.00354403 -3.86283e-26 0 -0.00355052 -0.0151328 -0.0329285 -0.057193 -0.0877675 -0.124068 -0.166033 -0.211245 -0.260517 -0.311475 -0.386758 -0.428364 -0.483356 -0.539359 -0.594137 -0.655822 -0.698879 -0.741201 -0.780029 -0.81414 -0.842492 -0.864957 -0.897579 -0.887711 -0.888278 -0.882943 -0.868961 -0.846516 -0.818006 -0.792236 -0.757233 -0.715139 -0.653292 -0.619855 -0.56985 -0.516688 -0.462395 -0.407625 -0.353377 -0.30059 -0.249806 -0.20185 -0.156904 -35.209 -0.0836939 -0.0544537 -0.0309853 -0.0138665 -0.00349027 -3.80279e-26 0 -0.00361924 -0.0144866 -0.0316945 -0.0552515 -0.0849687 -0.120355 -0.16051 -0.204723 -0.251869 -0.302006 -0.374593 -0.415652 -0.467645 -0.520273 -0.573874 -0.625802 -0.680757 -0.716129 -0.754079 -0.788283 -0.815029 -0.836394 -0.853174 -0.86232 -0.858403 -0.855639 -0.842228 -0.821231 -0.761668 -0.767401 -0.734878 -0.697064 -0.650103 -0.60254 -0.552674 -0.501048 -0.448256 -0.395123 -0.342627 -0.29135 -0.24205 -0.195172 -0.150507 -0.118759 -0.0754521 -0.0525453 -0.0300186 -0.0129799 -0.00338002 -3.68303e-26 0 -0.00354723 -0.0137131 -0.0300676 -0.0525761 -0.0807709 -0.114446 -0.15302 -0.195613 -0.240518 -0.28819 -0.33769 -0.397096 -0.44531 -0.494775 -0.543855 -0.592829 -0.649026 -0.683373 -0.713079 -0.743581 -0.775823 -0.795653 -0.810074 -0.817904 -0.817974 -0.813958 -