<?xml version="1.0"?>
<VTKFile type="PolyData">
	<PolyData>
		<Piece NumberOfPoints="2601" NumberOfPolys="2500">
			<Points>
				<DataArray type="Float32" NumberOfComponents="3" format="ascii">
 0 0 0 0.02 0 0 0.04 0 0 0.06 0 0 0.08 0 0 0.1 0 0 0.12 0 0 0.14 0 0 0.16 0 0 0.18 0 0 0.2 0 0 0.22 0 0 0.24 0 0 0.26 0 0 0.28 0 0 0.3 0 0 0.32 0 0 0.34 0 0 0.36 0 0 0.38 0 0 0.4 0 0 0.42 0 0 0.44 0 0 0.46 0 0 0.48 0 0 0.5 0 0 0.52 0 0 0.54 0 0 0.56 0 0 0.58 0 0 0.6 0 0 0.62 0 0 0.64 0 0 0.66 0 0 0.68 0 0 0.7 0 0 0.72 0 0 0.74 0 0 0.76 0 0 0.78 0 0 0.8 0 0 0.82 0 0 0.84 0 0 0.86 0 0 0.88 0 0 0.9 0 0 0.92 0 0 0.94 0 0 0.96 0 0 0.98 0 0 1 0 0 0 0.02 0 0.02 0.02 0 0.04 0.02 0 0.06 0.02 0 0.08 0.02 0 0.1 0.02 0 0.12 0.02 0 0.14 0.02 0 0.16 0.02 0 0.18 0.02 0 0.2 0.02 0 0.22 0.02 0 0.24 0.02 0 0.26 0.02 0 0.28 0.02 0 0.3 0.02 0 0.32 0.02 0 0.34 0.02 0 0.36 0.02 0 0.38 0.02 0 0.4 0.02 0 0.42 0.02 0 0.44 0.02 0 0.46 0.02 0 0.48 0.02 0 0.5 0.02 0 0.52 0.02 0 0.54 0.02 0 0.56 0.02 0 0.58 0.02 0 0.6 0.02 0 0.62 0.02 0 0.64 0.02 0 0.66 0.02 0 0.68 0.02 0 0.7 0.02 0 0.72 0.02 0 0.74 0.02 0 0.76 0.02 0 0.78 0.02 0 0.8 0.02 0 0.82 0.02 0 0.84 0.02 0 0.86 0.02 0 0.88 0.02 0 0.9 0.02 0 0.92 0.02 0 0.94 0.02 0 0.96 0.02 0 0.98 0.02 0 1 0.02 0 0 0.04 0 0.02 0.04 0 0.04 0.04 0 0.06 0.04 0 0.08 0.04 0 0.1 0.04 0 0.12 0.04 0 0.14 0.04 0 0.16 0.04 0 0.18 0.04 0 0.2 0.04 0 0.22 0.04 0 0.24 0.04 0 0.26 0.04 0 0.28 0.04 0 0.3 0.04 0 0.32 0.04 0 0.34 0.04 0 0.36 0.04 0 0.38 0.04 0 0.4 0.04 0 0.42 0.04 0 0.44 0.04 0 0.46 0.04 0 0.48 0.04 0 0.5 0.04 0 0.52 0.04 0 0.54 0.04 0 0.56 0.04 0 0.58 0.04 0 0.6 0.04 0 0.62 0.04 0 0.64 0.04 0 0.66 0.04 0 0.68 0.04 0 0.7 0.04 0 0.72 0.04 0 0.74 0.04 0 0.76 0.04 0 0.78 0.04 0 0.8 0.04 0 0.82 0.04 0 0.84 0.04 0 0.86 0.04 0 0.88 0.04 0 0.9 0.04 0 0.92 0.04 0 0.94 0.04 0 0.96 0.04 0 0.98 0.04 0 1 0.04 0 0 0.06 0 0.02 0.06 0 0.04 0.06 0 0.06 0.06 0 0.08 0.06 0 0.1 0.06 0 0.12 0.06 0 0.14 0.06 0 0.16 0.06 0 0.18 0.06 0 0.2 0.06 0 0.22 0.06 0 0.24 0.06 0 0.26 0.06 0 0.28 0.06 0 0.3 0.06 0 0.32 0.06 0 0.34 0.06 0 0.36 0.06 0 0.38 0.06 0 0.4 0.06 0 0.42 0.06 0 0.44 0.06 0 0.46 0.06 0 0.48 0.06 0 0.5 0.06 0 0.52 0.06 0 0.54 0.06 0 0.56 0.06 0 0.58 0.06 0 0.6 0.06 0 0.62 0.06 0 0.64 0.06 0 0.66 0.06 0 0.68 0.06 0 0.7 0.06 0 0.72 0.06 0 0.74 0.06 0 0.76 0.06 0 0.78 0.06 0 0.8 0.06 0 0.82 0.06 0 0.84 0.06 0 0.86 0.06 0 0.88 0.06 0 0.9 0.06 0 0.92 0.06 0 0.94 0.06 0 0.96 0.06 0 0.98 0.06 0 1 0.06 0 0 0.08 0 0.02 0.08 0 0.04 0.08 0 0.06 0.08 0 0.08 0.08 0 0.1 0.08 0 0.12 0.08 0 0.14 0.08 0 0.16 0.08 0 0.18 0.08 0 0.2 0.08 0 0.22 0.08 0 0.24 0.08 0 0.26 0.08 0 0.28 0.08 0 0.3 0.08 0 0.32 0.08 0 0.34 0.08 0 0.36 0.08 0 0.38 0.08 0 0.4 0.08 0 0.42 0.08 0 0.44 0.08 0 0.46 0.08 0 0.48 0.08 0 0.5 0.08 0 0.52 0.08 0 0.54 0.08 0 0.56 0.08 0 0.58 0.08 0 0.6 0.08 0 0.62 0.08 0 0.64 0.08 0 0.66 0.08 0 0.68 0.08 0 0.7 0.08 0 0.72 0.08 0 0.74 0.08 0 0.76 0.08 0 0.78 0.08 0 0.8 0.08 0 0.82 0.08 0 0.84 0.08 0 0.86 0.08 0 0.88 0.08 0 0.9 0.08 0 0.92 0.08 0 0.94 0.08 0 0.96 0.08 0 0.98 0.08 0 1 0.08 0 0 0.1 0 0.02 0.1 0 0.04 0.1 0 0.06 0.1 0 0.08 0.1 0 0.1 0.1 0 0.12 0.1 0 0.14 0.1 0 0.16 0.1 0 0.18 0.1 0 0.2 0.1 0 0.22 0.1 0 0.24 0.1 0 0.26 0.1 0 0.28 0.1 0 0.3 0.1 0 0.32 0.1 0 0.34 0.1 0 0.36 0.1 0 0.38 0.1 0 0.4 0.1 0 0.42 0.1 0 0.44 0.1 0 0.46 0.1 0 0.48 0.1 0 0.5 0.1 0 0.52 0.1 0 0.54 0.1 0 0.56 0.1 0 0.58 0.1 0 0.6 0.1 0 0.62 0.1 0 0.64 0.1 0 0.66 0.1 0 0.68 0.1 0 0.7 0.1 0 0.72 0.1 0 0.74 0.1 0 0.76 0.1 0 0.78 0.1 0 0.8 0.1 0 0.82 0.1 0 0.84 0.1 0 0.86 0.1 0 0.88 0.1 0 0.9 0.1 0 0.92 0.1 0 0.94 0.1 0 0.96 0.1 0 0.98 0.1 0 1 0.1 0 0 0.12 0 0.02 0.12 0 0.04 0.12 0 0.06 0.12 0 0.08 0.12 0 0.1 0.12 0 0.12 0.12 0 0.14 0.12 0 0.16 0.12 0 0.18 0.12 0 0.2 0.12 0 0.22 0.12 0 0.24 0.12 0 0.26 0.12 0 0.28 0.12 0 0.3 0.12 0 0.32 0.12 0 0.34 0.12 0 0.36 0.12 0 0.38 0.12 0 0.4 0.12 0 0.42 0.12 0 0.44 0.12 0 0.46 0.12 0 0.48 0.12 0 0.5 0.12 0 0.52 0.12 0 0.54 0.12 0 0.56 0.12 0 0.58 0.12 0 0.6 0.12 0 0.62 0.12 0 0.64 0.12 0 0.66 0.12 0 0.68 0.12 0 0.7 0.12 0 0.72 0.12 0 0.74 0.12 0 0.76 0.12 0 0.78 0.12 0 0.8 0.12 0 0.82 0.12 0 0.84 0.12 0 0.86 0.12 0 0.88 0.12 0 0.9 0.12 0 0.92 0.12 0 0.94 0.12 0 0.96 0.12 0 0.98 0.12 0 1 0.12 0 0 0.14 0 0.02 0.14 0 0.04 0.14 0 0.06 0.14 0 0.08 0.14 0 0.1 0.14 0 0.12 0.14 0 0.14 0.14 0 0.16 0.14 0 0.18 0.14 0 0.2 0.14 0 0.22 0.14 0 0.24 0.14 0 0.26 0.14 0 0.28 0.14 0 0.3 0.14 0 0.32 0.14 0 0.34 0.14 0 0.36 0.14 0 0.38 0.14 0 0.4 0.14 0 0.42 0.14 0 0.44 0.14 0 0.46 0.14 0 0.48 0.14 0 0.5 0.14 0 0.52 0.14 0 0.54 0.14 0 0.56 0.14 0 0.58 0.14 0 0.6 0.14 0 0.62 0.14 0 0.64 0.14 0 0.66 0.14 0 0.68 0.14 0 0.7 0.14 0 0.72 0.14 0 0.74 0.14 0 0.76 0.14 0 0.78 0.14 0 0.8 0.14 0 0.82 0.14 0 0.84 0.14 0 0.86 0.14 0 0.88 0.14 0 0.9 0.14 0 0.92 0.14 0 0.94 0.14 0 0.96 0.14 0 0.98 0.14 0 1 0.14 0 0 0.16 0 0.02 0.16 0 0.04 0.16 0 0.06 0.16 0 0.08 0.16 0 0.1 0.16 0 0.12 0.16 0 0.14 0.16 0 0.16 0.16 0 0.18 0.16 0 0.2 0.16 0 0.22 0.16 0 0.24 0.16 0 0.26 0.16 0 0.28 0.16 0 0.3 0.16 0 0.32 0.16 0 0.34 0.16 0 0.36 0.16 0 0.38 0.16 0 0.4 0.16 0 0.42 0.16 0 0.44 0.16 0 0.46 0.16 0 0.48 0.16 0 0.5 0.16 0 0.52 0.16 0 0.54 0.16 0 0.56 0.16 0 0.58 0.16 0 0.6 0.16 0 0.62 0.16 0 0.64 0.16 0 0.66 0.16 0 0.68 0.16 0 0.7 0.16 0 0.72 0.16 0 0.74 0.16 0 0.76 0.16 0 0.78 0.16 0 0.8 0.16 0 0.82 0.16 0 0.84 0.16 0 0.86 0.16 0 0.88 0.16 0 0.9 0.16 0 0.92 0.16 0 0.94 0.16 0 0.96 0.16 0 0.98 0.16 0 1 0.16 0 0 0.18 0 0.02 0.18 0 0.04 0.18 0 0.06 0.18 0 0.08 0.18 0 0.1 0.18 0 0.12 0.18 0 0.14 0.18 0 0.16 0.18 0 0.18 0.18 0 0.2 0.18 0 0.22 0.18 0 0.24 0.18 0 0.26 0.18 0 0.28 0.18 0 0.3 0.18 0 0.32 0.18 0 0.34 0.18 0 0.36 0.18 0 0.38 0.18 0 0.4 0.18 0 0.42 0.18 0 0.44 0.18 0 0.46 0.18 0 0.48 0.18 0 0.5 0.18 0 0.52 0.18 0 0.54 0.18 0 0.56 0.18 0 0.58 0.18 0 0.6 0.18 0 0.62 0.18 0 0.64 0.18 0 0.66 0.18 0 0.68 0.18 0 0.7 0.18 0 0.72 0.18 0 0.74 0.18 0 0.76 0.18 0 0.78 0.18 0 0.8 0.18 0 0.82 0.18 0 0.84 0.18 0 0.86 0.18 0 0.88 0.18 0 0.9 0.18 0 0.92 0.18 0 0.94 0.18 0 0.96 0.18 0 0.98 0.18 0 1 0.18 0 0 0.2 0 0.02 0.2 0 0.04 0.2 0 0.06 0.2 0 0.08 0.2 0 0.1 0.2 0 0.12 0.2 0 0.14 0.2 0 0.16 0.2 0 0.18 0.2 0 0.2 0.2 0 0.22 0.2 0 0.24 0.2 0 0.26 0.2 0 0.28 0.2 0 0.3 0.2 0 0.32 0.2 0 0.34 0.2 0 0.36 0.2 0 0.38 0.2 0 0.4 0.2 0 0.42 0.2 0 0.44 0.2 0 0.46 0.2 0 0.48 0.2 0 0.5 0.2 0 0.52 0.2 0 0.54 0.2 0 0.56 0.2 0 0.58 0.2 0 0.6 0.2 0 0.62 0.2 0 0.64 0.2 0 0.66 0.2 0 0.68 0.2 0 0.7 0.2 0 0.72 0.2 0 0.74 0.2 0 0.76 0.2 0 0.78 0.2 0 0.8 0.2 0 0.82 0.2 0 0.84 0.2 0 0.86 0.2 0 0.88 0.2 0 0.9 0.2 0 0.92 0.2 0 0.94 0.2 0 0.96 0.2 0 0.98 0.2 0 1 0.2 0 0 0.22 0 0.02 0.22 0 0.04 0.22 0 0.06 0.22 0 0.08 0.22 0 0.1 0.22 0 0.12 0.22 0 0.14 0.22 0 0.16 0.22 0 0.18 0.22 0 0.2 0.22 0 0.22 0.22 0 0.24 0.22 0 0.26 0.22 0 0.28 0.22 0 0.3 0.22 0 0.32 0.22 0 0.34 0.22 0 0.36 0.22 0 0.38 0.22 0 0.4 0.22 0 0.42 0.22 0 0.44 0.22 0 0.46 0.22 0 0.48 0.22 0 0.5 0.22 0 0.52 0.22 0 0.54 0.22 0 0.56 0.22 0 0.58 0.22 0 0.6 0.22 0 0.62 0.22 0 0.64 0.22 0 0.66 0.22 0 0.68 0.22 0 0.7 0.22 0 0.72 0.22 0 0.74 0.22 0 0.76 0.22 0 0.78 0.22 0 0.8 0.22 0 0.82 0.22 0 0.84 0.22 0 0.86 0.22 0 0.88 0.22 0 0.9 0.22 0 0.92 0.22 0 0.94 0.22 0 0.96 0.22 0 0.98 0.22 0 1 0.22 0 0 0.24 0 0.02 0.24 0 0.04 0.24 0 0.06 0.24 0 0.08 0.24 0 0.1 0.24 0 0.12 0.24 0 0.14 0.24 0 0.16 0.24 0 0.18 0.24 0 0.2 0.24 0 0.22 0.24 0 0.24 0.24 0 0.26 0.24 0 0.28 0.24 0 0.3 0.24 0 0.32 0.24 0 0.34 0.24 0 0.36 0.24 0 0.38 0.24 0 0.4 0.24 0 0.42 0.24 0 0.44 0.24 0 0.46 0.24 0 0.48 0.24 0 0.5 0.24 0 0.52 0.24 0 0.54 0.24 0 0.56 0.24 0 0.58 0.24 0 0.6 0.24 0 0.62 0.24 0 0.64 0.24 0 0.66 0.24 0 0.68 0.24 0 0.7 0.24 0 0.72 0.24 0 0.74 0.24 0 0.76 0.24 0 0.78 0.24 0 0.8 0.24 0 0.82 0.24 0 0.84 0.24 0 0.86 0.24 0 0.88 0.24 0 0.9 0.24 0 0.92 0.24 0 0.94 0.24 0 0.96 0.24 0 0.98 0.24 0 1 0.24 0 0 0.26 0 0.02 0.26 0 0.04 0.26 0 0.06 0.26 0 0.08 0.26 0 0.1 0.26 0 0.12 0.26 0 0.14 0.26 0 0.16 0.26 0 0.18 0.26 0 0.2 0.26 0 0.22 0.26 0 0.24 0.26 0 0.26 0.26 0 0.28 0.26 0 0.3 0.26 0 0.32 0.26 0 0.34 0.26 0 0.36 0.26 0 0.38 0.26 0 0.4 0.26 0 0.42 0.26 0 0.44 0.26 0 0.46 0.26 0 0.48 0.26 0 0.5 0.26 0 0.52 0.26 0 0.54 0.26 0 0.56 0.26 0 0.58 0.26 0 0.6 0.26 0 0.62 0.26 0 0.64 0.26 0 0.66 0.26 0 0.68 0.26 0 0.7 0.26 0 0.72 0.26 0 0.74 0.26 0 0.76 0.26 0 0.78 0.26 0 0.8 0.26 0 0.82 0.26 0 0.84 0.26 0 0.86 0.26 0 0.88 0.26 0 0.9 0.26 0 0.92 0.26 0 0.94 0.26 0 0.96 0.26 0 0.98 0.26 0 1 0.26 0 0 0.28 0 0.02 0.28 0 0.04 0.28 0 0.06 0.28 0 0.08 0.28 0 0.1 0.28 0 0.12 0.28 0 0.14 0.28 0 0.16 0.28 0 0.18 0.28 0 0.2 0.28 0 0.22 0.28 0 0.24 0.28 0 0.26 0.28 0 0.28 0.28 0 0.3 0.28 0 0.32 0.28 0 0.34 0.28 0 0.36 0.28 0 0.38 0.28 0 0.4 0.28 0 0.42 0.28 0 0.44 0.28 0 0.46 0.28 0 0.48 0.28 0 0.5 0.28 0 0.52 0.28 0 0.54 0.28 0 0.56 0.28 0 0.58 0.28 0 0.6 0.28 0 0.62 0.28 0 0.64 0.28 0 0.66 0.28 0 0.68 0.28 0 0.7 0.28 0 0.72 0.28 0 0.74 0.28 0 0.76 0.28 0 0.78 0.28 0 0.8 0.28 0 0.82 0.28 0 0.84 0.28 0 0.86 0.28 0 0.88 0.28 0 0.9 0.28 0 0.92 0.28 0 0.94 0.28 0 0.96 0.28 0 0.98 0.28 0 1 0.28 0 0 0.3 0 0.02 0.3 0 0.04 0.3 0 0.06 0.3 0 0.08 0.3 0 0.1 0.3 0 0.12 0.3 0 0.14 0.3 0 0.16 0.3 0 0.18 0.3 0 0.2 0.3 0 0.22 0.3 0 0.24 0.3 0 0.26 0.3 0 0.28 0.3 0 0.3 0.3 0 0.32 0.3 0 0.34 0.3 0 0.36 0.3 0 0.38 0.3 0 0.4 0.3 0 0.42 0.3 0 0.44 0.3 0 0.46 0.3 0 0.48 0.3 0 0.5 0.3 0 0.52 0.3 0 0.54 0.3 0 0.56 0.3 0 0.58 0.3 0 0.6 0.3 0 0.62 0.3 0 0.64 0.3 0 0.66 0.3 0 0.68 0.3 0 0.7 0.3 0 0.72 0.3 0 0.74 0.3 0 0.76 0.3 0 0.78 0.3 0 0.8 0.3 0 0.82 0.3 0 0.84 0.3 0 0.86 0.3 0 0.88 0.3 0 0.9 0.3 0 0.92 0.3 0 0.94 0.3 0 0.96 0.3 0 0.98 0.3 0 1 0.3 0 0 0.32 0 0.02 0.32 0 0.04 0.32 0 0.06 0.32 0 0.08 0.32 0 0.1 0.32 0 0.12 0.32 0 0.14 0.32 0 0.16 0.32 0 0.18 0.32 0 0.2 0.32 0 0.22 0.32 0 0.24 0.32 0 0.26 0.32 0 0.28 0.32 0 0.3 0.32 0 0.32 0.32 0 0.34 0.32 0 0.36 0.32 0 0.38 0.32 0 0.4 0.32 0 0.42 0.32 0 0.44 0.32 0 0.46 0.32 0 0.48 0.32 0 0.5 0.32 0 0.52 0.32 0 0.54 0.32 0 0.56 0.32 0 0.58 0.32 0 0.6 0.32 0 0.62 0.32 0 0.64 0.32 0 0.66 0.32 0 0.68 0.32 0 0.7 0.32 0 0.72 0.32 0 0.74 0.32 0 0.76 0.32 0 0.78 0.32 0 0.8 0.32 0 0.82 0.32 0 0.84 0.32 0 0.86 0.32 0 0.88 0.32 0 0.9 0.32 0 0.92 0.32 0 0.94 0.
[...]
			<PointData Scalars="VitesseX">
				<DataArray Name="VitesseX" type="Float32" format="ascii">
 0 0 0 0 0 0 0 0 0 0 0 0 0 0 0 0 0 0 0 0 0 0 0 0 0 0 0 0 0 0 0 0 0 0 0 0 0 0 0 0 0 0 0 0 0 0 0 0 0 0 0 0 0.000517922 0.00207715 0.00455133 0.00808212 0.0120846 0.0172489 0.0231142 0.0293983 0.0363478 0.042247 0.0516983 0.0598864 0.0677911 0.0761826 0.0843389 0.0919256 0.0989668 0.105424 0.111136 0.116011 0.119868 0.121805 0.123436 0.12499 0.125269 0.124517 0.123253 0.120981 0.117754 0.113973 0.110803 0.104174 0.0961779 0.0893021 0.0820086 0.0744285 0.0666229 0.0587849 0.0510061 0.0433462 0.0360255 0.0291553 0.0228319 0.0171062 0.0120892 0.0078638 0.00449288 0.00202531 0.000511863 5.35991e-27 0 0.00100426 0.00400927 0.00889999 0.0157027 0.023749 0.0338015 0.0452102 0.0585319 0.0724919 0.0863323 0.101798 0.116936 0.131885 0.148264 0.163919 0.178674 0.192569 0.205333 0.216468 0.227051 0.237092 0.243203 0.244897 0.247555 0.248611 0.2473 0.240063 0.231792 0.232417 0.225205 0.215377 0.204256 0.192248 0.174798 0.0757105 0.152837 0.106759 0.120543 0.101594 0.0862336 0.0716866 0.0579431 0.0452604 0.0338628 0.0238966 0.0155247 0.0088567 0.00399017 0.00101124 1.06366e-26 0 0.00146985 0.00586407 0.0130579 0.023021 0.0351853 0.0498682 0.0651326 0.0867032 0.107467 0.0780835 0.149918 0.172003 0.193415 0.217759 0.240839 0.262626 0.283133 0.301836 0.318205 0.333911 0.348169 0.360561 0.370307 0.368172 0.367874 0.366885 0.362848 0.354559 0.341962 0.329249 0.318387 0.302331 0.284297 0.262709 0.241756 0.220067 0.197539 0.167316 0.149245 0.127821 0.106195 0.0858542 0.0671004 0.0502785 0.0355383 0.0231208 0.0132181 0.0059494 0.00149848 1.5742e-26 0 0.00191079 0.00762467 0.0169849 0.0299182 0.0461562 0.0653431 0.086091 0.113611 0.140804 0.167277 0.195782 0.224902 0.250721 0.28365 0.313586 0.341564 0.368158 0.392575 0.414289 0.434075 0.450943 0.46458 0.474232 0.480253 0.481856 0.479628 0.474098 0.465663 0.453961 0.436825 0.412715 0.393613 0.373088 0.34444 0.316769 0.288083 0.257654 0.227507 0.199187 0.155315 0.132445 0.114691 0.0879234 0.0660639 0.0466734 0.0302269 0.0168943 0.00757667 0.00191145 2.06048e-26 0 0.00232171 0.00925731 0.0206403 0.0363432 0.0562457 0.0797048 0.106101 0.137791 0.168984 0.203002 0.238506 0.274732 0.306387 0.333629 0.389394 0.427255 0.452483 0.480453 0.506564 0.529013 0.548795 0.565257 0.577289 0.585243 0.587558 0.586116 0.57973 0.569048 0.553787 0.532909 0.508597 0.481988 0.462807 0.422958 0.387362 0.351897 0.315425 0.277759 0.240736 0.205136 0.16809 0.136738 0.107439 0.080556 0.0566618 0.0366346 0.0207974 0.00933699 0.00235708 2.51333e-26 0 0.00269651 0.0107419 0.0239853 0.0422147 0.065404 0.0926954 0.123509 0.159536 0.196054 0.235546 0.27588 0.318261 0.360917 0.391763 0.449808 0.487768 0.522582 0.557146 0.588378 0.614575 0.637609 0.656696 0.671278 0.681042 0.684206 0.682897 0.675988 0.663257 0.646084 0.623246 0.596329 0.566992 0.525071 0.484704 0.74089 0.408063 0.371669 0.325814 0.280596 0.238724 0.201129 0.148095 0.115411 0.102269 0.065812 0.0426209 0.0242332 0.0108713 0.00275146 2.92607e-26 0 0.00302919 0.0120569 0.0269254 0.047367 0.0734745 0.104083 0.138675 0.178942 0.219847 0.263632 0.309522 0.357072 0.405794 0.452234 0.498941 0.543755 0.58557 0.624763 0.659634 0.689148 0.715281 0.737679 0.754782 0.766246 0.770064 0.768849 0.761341 0.747131 0.727854 0.704933 0.674592 0.640579 0.596776 0.553232 0.4931 0.459057 0.420273 0.3824 0.31925 0.269105 0.223488 0.183204 0.126797 0.0804662 0.07451 0.0480148 0.0272636 0.0121605 0.00305368 3.29551e-26 0 0.00331488 0.0131956 0.0294486 0.0517983 0.0803582 0.113744 0.151487 0.178017 0.239867 0.291973 0.341774 0.390415 0.439173 0.489977 0.536557 0.592435 0.639689 0.682236 0.720755 0.753475 0.775669 0.818177 0.833289 0.843806 0.851871 0.855292 0.833615 0.819416 0.798477 0.773026 0.741778 0.714223 0.658025 0.6074 0.556999 0.501582 0.457375 0.403221 0.371924 0.299429 0.245334 0.198409 0.15614 0.118937 0.0901777 0.0526832 0.0299333 0.0133179 0.00334211 3.61007e-26 0 0.00354963 0.0141296 0.0315282 0.0554556 0.0859392 0.121551 0.161949 -0.0153144 0.255909 0.308892 0.361922 0.414968 0.467797 0.535657 0.593755 0.641817 0.683412 0.726057 0.684671 0.807384 0.83916 0.866044 0.88634 0.899707 0.904631 0.903698 0.897058 0.878507 0.851991 0.816368 0.787566 0.758917 0.74557 0.657411 0.599327 0.544552 0.48185 0.427129 0.374055 0.373964 0.262972 0.212684 0.166492 0.125046 0.0904674 0.0580543 0.0319433 0.0143622 0.00360633 3.86975e-26 0 0.00372676 0.0148298 0.0331083 0.0582015 0.0900821 0.127323 0.169385 0.509007 0.268084 0.322794 0.377404 0.432116 0.478973 0.549849 0.60945 0.663901 0.713555 0.75574 0.804877 0.846658 0.88111 0.908931 0.930144 0.944707 0.950202 0.949242 0.939062 0.925777 0.902366 0.870755 0.834679 0.776608 0.730836 0.832009 0.641771 0.575467 0.521978 0.43968 0.382133 0.339606 0.279529 0.224189 0.174833 0.131017 0.0933579 0.0591211 0.0335399 0.0150722 0.00378832 4.06667e-26 0 0.00384709 0.0153164 0.0329895 0.0896511 0.0922545 0.131109 0.138952 0.21181 0.275223 0.331131 0.381659 0.427856 0.503759 0.567703 0.627445 0.682677 0.729092 0.785349 0.833749 0.874788 0.909883 0.938516 0.960268 0.975312 0.98145 0.980337 0.971801 0.955806 0.918226 0.902244 0.861943 0.818699 0.772144 0.721068 0.828594 0.595377 0.533534 0.478663 0.399716 0.337209 0.308305 0.232018 0.180934 0.135782 0.0963901 0.0658711 0.0347516 0.01557 0.00391479 4.19998e-26 0 0.00387214 0.0154769 0.031925 0.0344205 0.0928991 0.132374 0.102514 0.222714 0.277672 0.329671 0.386891 0.446314 0.511157 0.573866 0.632311 0.685463 0.742489 0.796234 0.843787 0.885554 0.921508 0.951068 0.973734 0.989539 0.99707 0.996986 0.989193 0.972805 0.950981 0.927116 0.880167 0.835853 0.786964 0.734251 0.679881 0.623219 0.543033 0.480332 0.421908 0.381392 -2.77521 0.235643 0.184572 0.138652 0.0983257 0.0676692 0.0354127 0.0158463 0.00397962 4.26783e-26 0 0.00384542 0.0154924 0.0346108 0.0584081 0.0931325 0.132336 0.171381 0.224607 0.277151 0.326055 0.389441 0.449504 0.504955 0.570534 0.630659 0.688554 0.744188 0.796043 0.843173 0.885079 0.921196 0.950906 0.973654 0.989534 0.996876 0.999727 0.990501 0.973145 0.949566 0.920419 0.891554 0.83603 0.786237 0.732246 0.67603 1.49423 0.542724 0.47955 0.418672 0.361064 0.319834 0.235284 0.184638 0.138609 0.0982665 0.0672084 0.0354407 0.015849 0.00398282 4.26861e-26 0 0.00384828 0.0152042 0.0339244 0.0595475 0.0917915 0.0442529 0.172646 0.220471 0.268481 0.3231 0.381939 0.365319 0.496585 0.560808 0.619314 0.675953 0.729961 0.780069 0.82622 0.86779 0.903623 0.933423 0.956505 0.97276 0.981057 0.987661 0.977779 0.960637 0.937708 0.908277 0.874152 0.843581 0.782706 0.724275 0.668295 0.607818 0.546081 0.476551 0.414208 0.355701 0.301964 0.235616 0.182759 0.137079 0.0971512 0.065923 0.0350072 0.0156388 0.00392969 4.20238e-26 0 0.00373 0.0146789 0.0327361 0.0574586 0.0793088 0.11915 0.166474 0.212345 0.259781 0.313931 0.209014 0.41963 0.483358 0.541161 0.597564 0.652474 0.704774 0.752788 0.796845 0.837867 0.872621 0.901571 0.924147 0.940724 0.949834 0.954505 0.94893 0.931755 0.909204 0.880047 0.845314 0.811223 0.815957 0.793624 0.654691 0.585233 0.574732 0.463487 0.40228 0.344107 0.289035 0.250657 0.178534 0.132385 0.0941483 0.063571 0.0339511 0.0151597 0.0038105 4.07011e-26 0 0.00354798 0.0139262 0.0310535 0.0524784 0.0162421 0.117356 0.157473 0.200521 0.248847 0.296269 0.347971 0.402886 0.457536 0.511822 0.565595 0.61802 0.667725 0.70565 0.673517 0.66343 0.832387 0.807271 0.858576 0.893009 0.902732 0.907795 0.913882 0.889762 0.868328 0.841139 0.807846 0.770388 0.727309 0.68318 0.630436 0.431189 7.85599 0.442225 0.384419 0.327997 0.274432 0.230015 0.170458 0.126767 0.0898462 0.0606546 0.0323678 0.0144446 0.00363244 3.87407e-26 0 0.00330898 0.0129562 0.028887 0.0353698 0.0739355 0.10988 0.146432 0.185643 0.23042 0.273838 0.32369 0.373686 0.423764 0.473954 0.523842 0.571928 0.617465 0.660132 0.700946 0.737298 0.769202 0.767228 0.819439 0.834157 0.843329 0.844219 0.84707 0.832457 0.815298 0.795154 0.758847 0.720941 0.679302 0.634845 0.592432 0.529957 0.479383 0.415561 0.360569 0.307376 0.256569 0.211028 0.16024 0.119138 0.0843059 0.0569321 0.0302732 0.0135095 0.00339613 3.61887e-26 0 0.00301576 0.0117795 0.026272 -1.39527 0.069711 0.0992579 0.132241 0.168949 0.145135 0.246234 0.292418 0.337745 0.383391 0.428463 0.47235 0.51511 0.553738 0.595869 0.636112 0.66935 0.698835 0.614624 0.742934 0.755204 0.767571 0.771789 0.770753 0.760665 0.745106 0.744691 0.697875 0.663193 0.624776 0.582962 0.539783 0.501657 0.436986 0.383362 0.332076 0.282579 0.235408 0.192086 0.147353 0.109378 0.0772724 0.0514589 0.0277447 0.0123874 0.00310698 3.3065e-26 0 0.00515666 0.0104055 0.0232675 0.0285547 0.0620817 0.0875971 0.115833 0.147549 0.179426 0.218129 0.256979 0.296385 0.335958 0.372865 0.416556 0.453392 0.487644 0.525714 0.538969 0.566438 0.602127 0.629367 0.65 0.668381 0.682314 0.688982 0.687484 0.677768 0.662265 0.663207 0.632947 0.595916 0.560696 0.522476 0.48274 0.450972 0.391718 0.344991 0.298607 0.253749 0.211095 0.171618 0.132057 0.0978748 0.0689515 0.0435503 0.0246173 0.0113074 0.00270841 2.92785e-26 0 0.00430838 0.00886652 0.0196389 0.032002 0.0525163 0.0746383 0.0986589 28.1162 0.152873 0.184827 0.217089 0.249699 0.280048 0.250472 0.308352 0.386338 0.169913 0.427238 0.469284 0.49702 0.522037 0.54384 0.560923 0.571555 0.586304 0.59396 0.592337 0.584848 0.579434 0.563692 0.543317 0.517346 0.487363 0.454281 0.41909 0.395071 0.342026 0.301716 0.260656 0.221191 0.183789 0.148999 0.114737 0.0866832 0.0622096 0.0390231 0.0230096 0.00965615 0.00232915 2.51954e-26 0 0.00401312 0.00722084 0.00290051 0.0271746 0.0422275 0.0599802 0.0800189 0.0980506 0.122828 0.147543 0.173004 0.198747 0.212639 0.24786 0.277816 0.30555 0.317411 0.3538 0.380406 0.403735 0.425317 0.443405 0.457268 0.467319 0.481376 0.487176 0.486825 0.484575 0.47467 0.464115 0.449749 0.430179 0.406467 0.379357 0.350717 0.332844 0.289566 0.253601 0.218698 0.185292 0.15373 0.12443 0.102983 0.0722384 0.049593 0.0320109 0.0193552 0.0078232 0.0019117 2.07001e-26 0 -0.000115904 0.00537478 0.0097184 0.0205112 0.0312859 0.0441258 0.0586947 0.0728035 0.0899136 0.107746 0.12562 0.140912 0.153468 0.18219 0.205015 0.203195 0.232218 0.263801 0.283119 0.30223 0.319933 0.334242 0.344441 0.358242 0.368307 0.373706 0.376313 0.388139 0.374769 0.364015 0.352763 0.338265 0.320136 0.299487 0.280759 0.34738 0.224115 0.200867 0.173364 0.146735 0.121526 0.098037 0.0760212 0.055765 0.0387582 0.0249234 0.0140825 0.00605881 0.00146443 1.586e-26 0 0.00080912 0.00351472 0.00725883 0.0131102 0.0198316 0.0278649 0.0339661 0.0449998 0.0554516 0.0660455 0.0756839 0.0521073 0.0613378 0.112377 0.125721 0.0723648 0.153005 0.168101 0.180643 0.183014 0.200542 0.214101 0.221119 0.220324 0.241561 0.31652 0.286 0.267269 0.262767 0.260283 0.252463 0.241849 0.229677 0.22508 0.276072 0.185826 0.157971 0.145479 0.1254 0.105954 0.0875187 0.0702654 0.0536152 0.0394605 0.0274454 0.0174765 0.00972591 0.00418165 0.000994648 1.07727e-26 0 0.000417274 0.00160592 0.00278022 0.00561221 0.00817341 0.0111624 0.0136223 0.0169751 0.0206073 0.0238157 0.0199708 0.027504 0.0352775 0.0397561 0.0417278 0.0504984 0.0589841 0.0702465 0.0709772 0.0796168 0.0883031 0.0961309 0.102476 0.109242 0.125329 0.139385 0.141152 0.143527 0.145544 0.336638 0.184168 0.159742 0.14433 0.127197 0.116865 0.106187 0.102954 0.0878742 0.0754618 0.0635217 0.0522571 0.0417484 0.0313996 0.0228392 0.0157159 0.00979999 0.00512393 0.00216219 0.000508766 5.53e-27 0 -4.82174e-05 -0.000297208 -0.00132986 -0.00157476 -0.00296823 -0.00797232 -0.00886668 -0.0117211 -0.0152446 -0.0204898 -0.0237959 -0.0279091 -0.0334259 -0.037238 -0.0383056 -0.0339489 -0.073361 -0.0645133 -0.0345927 -0.0302914 -0.027023 -0.0229934 -0.0185931 -0.0121038 0.0037304 0.0102199 0.0151067 0.0214299 0.148138 0.0406709 0.0389838 0.0398078 0.0369169 0.0340638 0.0344309 0.0365415 0.0903863 0.0293246 0.0246197 0.0204157 0.0165841 0.0136265 0.00870685 0.00587047 0.00369377 0.00230638 0.000760928 0.000221778 5.63881e-05 2.19868e-28 0 -0.000543168 -0.00225626 -0.00641635 -0.0102265 -0.0159042 -0.0220566 -0.031637 -0.0419377 -0.0556085 -0.0931212 -0.0746728 -0.0886058 -0.134685 -0.131472 -0.118871 -0.128305 -0.135655 -0.141009 -0.141904 -0.143576 -0.144009 -0.142422 -0.139983 -0.134137 -0.121927 -0.115245 -0.10783 -0.0962718 -0.085246 -0.0807588 -0.0727931 -0.0643713 -0.0590618 -0.0537875 -0.0303405 0.0138348 -0.0294256 -0.0298782 -0.0263776 -0.0227735 -0.0191308 -0.010013 -0.0141544 -0.0111136 -0.00826407 -0.00362393 -0.00375596 -0.0017762 -0.000444635 -5.05428e-27 0 -0.00103029 -0.00419889 -0.0115095 -0.0188347 -0.0276259 -0.039223 -0.0538487 -0.0729508 -0.0984455 -0.105677 -0.124052 -0.145484 -0.165547 -0.186516 -0.197911 -0.214472 -0.227793 -0.23552 -0.247298 -0.255462 -0.259837 -0.260737 -0.260614 -0.257479 -0.243523 -0.237163 -0.226701 -0.216903 -0.204716 -0.192432 -0.178734 -0.164252 -0.151034 -0.136589 -0.103536 -0.112078 -0.10015 -0.0883157 -0.0766988 -0.0651943 -0.053676 -0.045741 -0.0366034 -0.0277232 -0.0197345 -0.0142967 -0.0080474 -0.00371998 -0.000933916 -1.02152e-26 0 -0.00149191 -0.00635056 -0.0629488 -0.0260003 -0.0392336 -0.0566886 -0.0764294 -0.0984724 -0.120488 -0.145278 -0.173135 -0.200763 -0.226818 -0.251541 -0.274898 -0.299528 -0.318645 -0.333204 -0.351457 -0.363885 -0.372514 -0.376451 -0.379311 -0.386502 -0.350926 -0.35265 -0.339523 -0.330105 -0.315297 -0.29901 -0.2814 -0.262435 -0.241433 -0.21699 -0.21309 -0.185059 -0.164491 -0.144712 -0.125557 -0.106142 -0.0805565 -0.0737423 -0.0583948 -0.0439492 -0.0301002 -0.0213505 -0.0121062 -0.00560322 -0.00140789 -1.44596e-26 0 -0.00195593 -0.00784279 -0.017663 -0.0311158 -0.0506499 -0.071903 -0.0975438 -0.125889 -0.15743 -0.184367 -0.218957 -0.252664 -0.288172 -0.325472 -0.351372 -0.384725 -0.411862 -0.438425 -0.465327 -0.466719 -0.486679 -0.512397 -0.510648 -0.517568 -0.551554 5.43764 -0.194618 0.0064688 0.791298 1.22598 0.387528 -0.0225987 -0.0550651 1.22791 -0.296135 -0.252429 -0.22484 -0.198391 -0.1718 -0.145361 -0.123025 -0.100475 -0.07911 -0.0595317 -0.0435023 -0.0280952 -0.0158088 -0.00738762 -0.0018575 -2.03505e-26 0 -0.00237419 -0.00949165 -0.0215413 -0.0381897 -0.0620619 -0.0873435 -0.115719 -0.149824 -0.189359 -0.224226 -0.261998 -0.301363 -0.342379 -0.380223 -0.425446 -0.468703 -0.491225 -0.524444 -0.563186 -0.569826 -0.57843 -0.58499 -0.589905 -0.590633 -0.586057 -0.577097 -0.564454 -0.548286 -0.526714 -0.499758 -0.470337 -0.440902 -0.412994 -0.365931 0.010254 -0.314615 -0.279858 -0.247273 -0.21298 -0.171487 -0.154249 -0.125732 -0.0984117 -0.0725323 -0.053361 -0.0345837 -0.0196923 -0.00884274 -0.00227198 -2.45693e-26 0 -0.00275752 -0.0110519 -0.0256479 -0.0338576 0.229164 -0.100005 -0.133846 -0.168096 -0.209743 -0.554908 -0.363508 -0.343232 -0.3902 -0.436635 -0.478572 -0.522103 -0.563827 -0.604046 -0.623306 -0.646192 -0.664548 -0.677113 -0.68465 -0.686071 -0.682902 -0.673593 -0.659664 -0.641197 -0.617908 -0.590091 -0.559086 -0.525803 -0.49045 -0.45078 -0.402844 -0.370918 -0.328616 -0.286221 -0.246448 -0.219257 -0.182836 -0.148717 -0.116148 -0.0828304 -0.0624426 -0.0395913 -0.0233356 -0.0104551 -0.0026604 -2.86752e-26 0 -0.00311027 -0.0125316 -0.0279164 -0.0552083 -0.0804553 -0.108344 -0.148033 -0.191246 -0.234549 -0.280502 -0.33492 -0.384339 -0.438194 -0.48686 -0.532001 -0.581417 -0.63786 -0.663409 -0.693818 -0.721263 -0.743239 -0.759063 -0.76914 -0.771177 -0.769037 -0.759238 -0.744303 -0.724034 -0.698625 -0.668756 -0.635049 -0.597648 -0.557573 -0.517637 -0.455053 0.170376 -0.377694 -0.335507 -0.293071 -0.25005 -0.207966 -0.168103 -0.130875 -0.100037 -0.0708863 -0.0457028 -0.0264588 -0.011841 -0.00300358 -3.2485e-26 0 -0.00343294 -0.0137391 -0.030611 -0.067772 -0.0574629 0.92262 -0.158668 -0.208865 -0.257363 -0.308057 -0.361236 26.7929 -0.478841 -0.532583 -0.601316 -0.645077 -0.680435 -0.719729 -0.756002 -0.786838 -0.811363 -0.829462 -0.841565 -0.844173 -0.843059 -0.832995 -0.817414 -0.795893 -0.768863 -0.737082 -0.7007 -0.659956 -0.616122 -0.569772 -0.522002 -0.423579 0.00256766 -0.374691 -0.324332 -0.27613 -0.22903 -0.179925 -0.14337 -0.109433 -0.0769112 -0.0509149 -0.0291148 -0.0130253 -0.0033016 -3.59299e-26 0 -0.00370457 -0.0147314 -0.0328204 -0.0575808 -0.0891645 -0.129917 -0.168972 -0.220594 -0.278696 -0.3293 -0.384179 -0.444841 -0.517293 -0.562852 -0.637205 -0.67532 -0.722529 -0.767336 -0.806996 -0.840369 -0.86707 -0.887044 -0.900452 -0.904344 -0.903513 -0.893952 -0.877943 -0.855623 -0.827311 -0.793648 -0.754934 -0.71173 -0.664999 -0.61507 -0.562164 -0.504814 -0.262399 -0.40225 -0.35014 -0.297368 -0.247291 -0.200994 -0.158244 -0.118761 -0.0811064 -0.054667 -0.0312261 -0.0139796 -0.00354223 -3.86383e-26 0 -0.00391911 -0.0154845 -0.0344428 -0.060297 -0.0935118 -0.139973 -0.176576 -0.227036 -0.294176 -0.345492 -0.403346 -0.462178 -0.521925 -0.602178 -0.649141 -0.703778 -0.755825 -0.803376 -0.84523 -0.880721 -0.90927 -0.93066 -0.945173 -0.950325 -0.949746 -0.940779 -0.924532 -0.901708 -0.8725 -0.837562 -0.797228 -0.752079 -0.703141 -0.650825 -0.595843 -0.536261 -0.389155 -0.42567 -0.370916 -0.315761 -0.26311 -0.213327 -0.167026 -0.125051 -0.0881153 -0.0575853 -0.0327532 -0.0145847 -0.00372433 -4.06343e-26 0 -0.00405697 -0.0159892 -0.0355553 -0.0622 -0.0964012 -0.146043 -0.183906 -0.234802 -0.300526 -0.355477 -0.41491 -0.47662 -0.553669 -0.607376 -0.666816 -0.7248 -0.778951 -0.828059 -0.871351 -0.908107 -0.937907 -0.960318 -0.975566 -0.981438 -0.981034 -0.972704 -0.956428 -0.933405 -0.903713 -0.867999 -0.826619 -0.780165 -0.72969 -0.675734 -0.618991 -0.556836 -0.414554 -0.438395 -0.385236 -0.328084 -0.273027 -0.221124 -0.172526 -0.127916 -0.0804172 -0.0597089 -0.0339935 0.0432841 -0.00385377 -4.2009e-26 0 -0.00412377 -0.0162241 -0.0360102 -0.0629638 -0.0971921 -0.147626 -0.18792 -0.237765 -0.293321 -0.358573 -0.41762 -0.480177 -0.557934 -0.613308 -0.672944 -0.731579 -0.786539 -0.836549 -0.880818 -0.918578 -0.949524 -0.973129 -0.989422 -0.996891 -0.996928 -0.989578 -0.973648 -0.950893 -0.921262 -0.885337 -0.843556 -0.796565 -0.745325 -0.690461 -0.632562 -0.569738 -0.479645 -0.437359 -0.392299 -0.334764 -0.278455 -0.225277 -0.175395 -0.13131 -0.0933989 -0.0607169 -0.0345004 -0.0153882 -0.00391773 -4.26811e-26 0 -0.00413068 -0.0162394 -0.0360378 -0.0629631 -0.0968755 -0.14786 -0.191856 -0.239261 -0.294422 -0.36089 -0.417804 -0.47867 -0.555492 -0.612799 -0.672624 -0.731095 -0.785983 -0.836146 -0.880525 -0.918426 -0.949349 -0.972991 -0.989393 -0.996887 -0.996934 -0.989624 -0.97377 -0.951114 -0.921616 -0.885742 -0.84403 -0.797233 -0.74609 -0.691262 -0.633438 -0.572938 -0.51013 -0.445291 -27.1398 -0.334525 -0.278695 -0.225941 -0.176758 -0.132388 -0.0935285 -0.0605286 -0.0340485 -0.0154633 -0.00391661 -4.26861e-26 0 -0.00406952 -0.0159748 -0.0353899 -0.061801 -0.0951775 -0.134352 -0.198515 -0.235968 -0.290653 -0.341376 -0.371135 -0.463759 -0.542563 -0.599974 -0.659169 -0.71667 -0.770516 -0.819815 -0.863689 -0.901416 -0.932271 -0.955987 -0.972685 -0.980976 -0.981428 -0.975351 -0.960384 -0.938735 -0.910239 -0.875292 -0.83449 -0.788633 -0.738314 -0.68428 -0.627414 -0.568493 -0.508109 -0.446055 -27.9313 -0.337723 -0.277178 -0.223869 -0.174798 -0.130846 -0.0923819 -0.0596964 -0.0324266 -0.0152779 -0.0038561 -4.20215e-26 0 -0.00394641 -0.0154678 -0.0341864 -0.0597257 -0.0924441 -0.129862 -0.177549 -0.228423 -0.279942 -0.335616 -0.394374 -0.455206 -0.523552 -0.578748 -0.636171 -0.692042 -0.74423 -0.791912 -0.834507 -0.871244 -0.901438 -0.924681 -0.941121 -0.949641 -0.950285 -0.944591 -0.930281 -0.909504 -0.882039 -0.848317 -0.808973 -0.764662 -0.71596 -0.66368 -0.60861 -0.551532 -0.493268 -0.43399 -28.1313 -0.322294 -0.268268 -0.21695 -0.169541 -0.12682 -0.0893381 -0.0576093 -0.914515 -0.0148026 -0.00373344 -4.06952e-26 0 -0.00375815 -0.0147196 -0.032498 -0.0567461 -0.0885198 -0.125811 -0.166047 -0.218677 -0.266538 -0.319365 -0.37463 -0.430986 -0.496447 -0.54813 -0.603111 -0.656539 -0.70636 -0.751854 -0.792511 -0.827585 -0.85651 -0.878939 -0.894837 -0.903326 -0.904191 -0.899155 -0.885824 -0.866344 -0.840445 -0.808549 -0.771316 -0.729227 