<?xml version="1.0"?>
<VTKFile type="PolyData">
	<PolyData>
		<Piece NumberOfPoints="1206" NumberOfPolys="1000">
			<Points>
				<DataArray type="Float32" NumberOfComponents="3" format="ascii">
 0 0 0 0.02 0 0 0.04 0 0 0.06 0 0 0.08 0 0 0.1 0 0 0 0.005 0 0.02 0.005 0 0.04 0.005 0 0.06 0.005 0 0.08 0.005 0 0.1 0.005 0 0 0.01 0 0.02 0.01 0 0.04 0.01 0 0.06 0.01 0 0.08 0.01 0 0.1 0.01 0 0 0.015 0 0.02 0.015 0 0.04 0.015 0 0.06 0.015 0 0.08 0.015 0 0.1 0.015 0 0 0.02 0 0.02 0.02 0 0.04 0.02 0 0.06 0.02 0 0.08 0.02 0 0.1 0.02 0 0 0.025 0 0.02 0.025 0 0.04 0.025 0 0.06 0.025 0 0.08 0.025 0 0.1 0.025 0 0 0.03 0 0.02 0.03 0 0.04 0.03 0 0.06 0.03 0 0.08 0.03 0 0.1 0.03 0 0 0.035 0 0.02 0.035 0 0.04 0.035 0 0.06 0.035 0 0.08 0.035 0 0.1 0.035 0 0 0.04 0 0.02 0.04 0 0.04 0.04 0 0.06 0.04 0 0.08 0.04 0 0.1 0.04 0 0 0.045 0 0.02 0.045 0 0.04 0.045 0 0.06 0.045 0 0.08 0.045 0 0.1 0.045 0 0 0.05 0 0.02 0.05 0 0.04 0.05 0 0.06 0.05 0 0.08 0.05 0 0.1 0.05 0 0 0.055 0 0.02 0.055 0 0.04 0.055 0 0.06 0.055 0 0.08 0.055 0 0.1 0.055 0 0 0.06 0 0.02 0.06 0 0.04 0.06 0 0.06 0.06 0 0.08 0.06 0 0.1 0.06 0 0 0.065 0 0.02 0.065 0 0.04 0.065 0 0.06 0.065 0 0.08 0.065 0 0.1 0.065 0 0 0.07 0 0.02 0.07 0 0.04 0.07 0 0.06 0.07 0 0.08 0.07 0 0.1 0.07 0 0 0.075 0 0.02 0.075 0 0.04 0.075 0 0.06 0.075 0 0.08 0.075 0 0.1 0.075 0 0 0.08 0 0.02 0.08 0 0.04 0.08 0 0.06 0.08 0 0.08 0.08 0 0.1 0.08 0 0 0.085 0 0.02 0.085 0 0.04 0.085 0 0.06 0.085 0 0.08 0.085 0 0.1 0.085 0 0 0.09 0 0.02 0.09 0 0.04 0.09 0 0.06 0.09 0 0.08 0.09 0 0.1 0.09 0 0 0.095 0 0.02 0.095 0 0.04 0.095 0 0.06 0.095 0 0.08 0.095 0 0.1 0.095 0 0 0.1 0 0.02 0.1 0 0.04 0.1 0 0.06 0.1 0 0.08 0.1 0 0.1 0.1 0 0 0.105 0 0.02 0.105 0 0.04 0.105 0 0.06 0.105 0 0.08 0.105 0 0.1 0.105 0 0 0.11 0 0.02 0.11 0 0.04 0.11 0 0.06 0.11 0 0.08 0.11 0 0.1 0.11 0 0 0.115 0 0.02 0.115 0 0.04 0.115 0 0.06 0.115 0 0.08 0.115 0 0.1 0.115 0 0 0.12 0 0.02 0.12 0 0.04 0.12 0 0.06 0.12 0 0.08 0.12 0 0.1 0.12 0 0 0.125 0 0.02 0.125 0 0.04 0.125 0 0.06 0.125 0 0.08 0.125 0 0.1 0.125 0 0 0.13 0 0.02 0.13 0 0.04 0.13 0 0.06 0.13 0 0.08 0.13 0 0.1 0.13 0 0 0.135 0 0.02 0.135 0 0.04 0.135 0 0.06 0.135 0 0.08 0.135 0 0.1 0.135 0 0 0.14 0 0.02 0.14 0 0.04 0.14 0 0.06 0.14 0 0.08 0.14 0 0.1 0.14 0 0 0.145 0 0.02 0.145 0 0.04 0.145 0 0.06 0.145 0 0.08 0.145 0 0.1 0.145 0 0 0.15 0 0.02 0.15 0 0.04 0.15 0 0.06 0.15 0 0.08 0.15 0 0.1 0.15 0 0 0.155 0 0.02 0.155 0 0.04 0.155 0 0.06 0.155 0 0.08 0.155 0 0.1 0.155 0 0 0.16 0 0.02 0.16 0 0.04 0.16 0 0.06 0.16 0 0.08 0.16 0 0.1 0.16 0 0 0.165 0 0.02 0.165 0 0.04 0.165 0 0.06 0.165 0 0.08 0.165 0 0.1 0.165 0 0 0.17 0 0.02 0.17 0 0.04 0.17 0 0.06 0.17 0 0.08 0.17 0 0.1 0.17 0 0 0.175 0 0.02 0.175 0 0.04 0.175 0 0.06 0.175 0 0.08 0.175 0 0.1 0.175 0 0 0.18 0 0.02 0.18 0 0.04 0.18 0 0.06 0.18 0 0.08 0.18 0 0.1 0.18 0 0 0.185 0 0.02 0.185 0 0.04 0.185 0 0.06 0.185 0 0.08 0.185 0 0.1 0.185 0 0 0.19 0 0.02 0.19 0 0.04 0.19 0 0.06 0.19 0 0.08 0.19 0 0.1 0.19 0 0 0.195 0 0.02 0.195 0 0.04 0.195 0 0.06 0.195 0 0.08 0.195 0 0.1 0.195 0 0 0.2 0 0.02 0.2 0 0.04 0.2 0 0.06 0.2 0 0.08 0.2 0 0.1 0.2 0 0 0.205 0 0.02 0.205 0 0.04 0.205 0 0.06 0.205 0 0.08 0.205 0 0.1 0.205 0 0 0.21 0 0.02 0.21 0 0.04 0.21 0 0.06 0.21 0 0.08 0.21 0 0.1 0.21 0 0 0.215 0 0.02 0.215 0 0.04 0.215 0 0.06 0.215 0 0.08 0.215 0 0.1 0.215 0 0 0.22 0 0.02 0.22 0 0.04 0.22 0 0.06 0.22 0 0.08 0.22 0 0.1 0.22 0 0 0.225 0 0.02 0.225 0 0.04 0.225 0 0.06 0.225 0 0.08 0.225 0 0.1 0.225 0 0 0.23 0 0.02 0.23 0 0.04 0.23 0 0.06 0.23 0 0.08 0.23 0 0.1 0.23 0 0 0.235 0 0.02 0.235 0 0.04 0.235 0 0.06 0.235 0 0.08 0.235 0 0.1 0.235 0 0 0.24 0 0.02 0.24 0 0.04 0.24 0 0.06 0.24 0 0.08 0.24 0 0.1 0.24 0 0 0.245 0 0.02 0.245 0 0.04 0.245 0 0.06 0.245 0 0.08 0.245 0 0.1 0.245 0 0 0.25 0 0.02 0.25 0 0.04 0.25 0 0.06 0.25 0 0.08 0.25 0 0.1 0.25 0 0 0.255 0 0.02 0.255 0 0.04 0.255 0 0.06 0.255 0 0.08 0.255 0 0.1 0.255 0 0 0.26 0 0.02 0.26 0 0.04 0.26 0 0.06 0.26 0 0.08 0.26 0 0.1 0.26 0 0 0.265 0 0.02 0.265 0 0.04 0.265 0 0.06 0.265 0 0.08 0.265 0 0.1 0.265 0 0 0.27 0 0.02 0.27 0 0.04 0.27 0 0.06 0.27 0 0.08 0.27 0 0.1 0.27 0 0 0.275 0 0.02 0.275 0 0.04 0.275 0 0.06 0.275 0 0.08 0.275 0 0.1 0.275 0 0 0.28 0 0.02 0.28 0 0.04 0.28 0 0.06 0.28 0 0.08 0.28 0 0.1 0.28 0 0 0.285 0 0.02 0.285 0 0.04 0.285 0 0.06 0.285 0 0.08 0.285 0 0.1 0.285 0 0 0.29 0 0.02 0.29 0 0.04 0.29 0 0.06 0.29 0 0.08 0.29 0 0.1 0.29 0 0 0.295 0 0.02 0.295 0 0.04 0.295 0 0.06 0.295 0 0.08 0.295 0 0.1 0.295 0 0 0.3 0 0.02 0.3 0 0.04 0.3 0 0.06 0.3 0 0.08 0.3 0 0.1 0.3 0 0 0.305 0 0.02 0.305 0 0.04 0.305 0 0.06 0.305 0 0.08 0.305 0 0.1 0.305 0 0 0.31 0 0.02 0.31 0 0.04 0.31 0 0.06 0.31 0 0.08 0.31 0 0.1 0.31 0 0 0.315 0 0.02 0.315 0 0.04 0.315 0 0.06 0.315 0 0.08 0.315 0 0.1 0.315 0 0 0.32 0 0.02 0.32 0 0.04 0.32 0 0.06 0.32 0 0.08 0.32 0 0.1 0.32 0 0 0.325 0 0.02 0.325 0 0.04 0.325 0 0.06 0.325 0 0.08 0.325 0 0.1 0.325 0 0 0.33 0 0.02 0.33 0 0.04 0.33 0 0.06 0.33 0 0.08 0.33 0 0.1 0.33 0 0 0.335 0 0.02 0.335 0 0.04 0.335 0 0.06 0.335 0 0.08 0.335 0 0.1 0.335 0 0 0.34 0 0.02 0.34 0 0.04 0.34 0 0.06 0.34 0 0.08 0.34 0 0.1 0.34 0 0 0.345 0 0.02 0.345 0 0.04 0.345 0 0.06 0.345 0 0.08 0.345 0 0.1 0.345 0 0 0.35 0 0.02 0.35 0 0.04 0.35 0 0.06 0.35 0 0.08 0.35 0 0.1 0.35 0 0 0.355 0 0.02 0.355 0 0.04 0.355 0 0.06 0.355 0 0.08 0.355 0 0.1 0.355 0 0 0.36 0 0.02 0.36 0 0.04 0.36 0 0.06 0.36 0 0.08 0.36 0 0.1 0.36 0 0 0.365 0 0.02 0.365 0 0.04 0.365 0 0.06 0.365 0 0.08 0.365 0 0.1 0.365 0 0 0.37 0 0.02 0.37 0 0.04 0.37 0 0.06 0.37 0 0.08 0.37 0 0.1 0.37 0 0 0.375 0 0.02 0.375 0 0.04 0.375 0 0.06 0.375 0 0.08 0.375 0 0.1 0.375 0 0 0.38 0 0.02 0.38 0 0.04 0.38 0 0.06 0.38 0 0.08 0.38 0 0.1 0.38 0 0 0.385 0 0.02 0.385 0 0.04 0.385 0 0.06 0.385 0 0.08 0.385 0 0.1 0.385 0 0 0.39 0 0.02 0.39 0 0.04 0.39 0 0.06 0.39 0 0.08 0.39 0 0.1 0.39 0 0 0.395 0 0.02 0.395 0 0.04 0.395 0 0.06 0.395 0 0.08 0.395 0 0.1 0.395 0 0 0.4 0 0.02 0.4 0 0.04 0.4 0 0.06 0.4 0 0.08 0.4 0 0.1 0.4 0 0 0.405 0 0.02 0.405 0 0.04 0.405 0 0.06 0.405 0 0.08 0.405 0 0.1 0.405 0 0 0.41 0 0.02 0.41 0 0.04 0.41 0 0.06 0.41 0 0.08 0.41 0 0.1 0.41 0 0 0.415 0 0.02 0.415 0 0.04 0.415 0 0.06 0.415 0 0.08 0.415 0 0.1 0.415 0 0 0.42 0 0.02 0.42 0 0.04 0.42 0 0.06 0.42 0 0.08 0.42 0 0.1 0.42 0 0 0.425 0 0.02 0.425 0 0.04 0.425 0 0.06 0.425 0 0.08 0.425 0 0.1 0.425 0 0 0.43 0 0.02 0.43 0 0.04 0.43 0 0.06 0.43 0 0.08 0.43 0 0.1 0.43 0 0 0.435 0 0.02 0.435 0 0.04 0.435 0 0.06 0.435 0 0.08 0.435 0 0.1 0.435 0 0 0.44 0 0.02 0.44 0 0.04 0.44 0 0.06 0.44 0 0.08 0.44 0 0.1 0.44 0 0 0.445 0 0.02 0.445 0 0.04 0.445 0 0.06 0.445 0 0.08 0.445 0 0.1 0.445 0 0 0.45 0 0.02 0.45 0 0.04 0.45 0 0.06 0.45 0 0.08 0.45 0 0.1 0.45 0 0 0.455 0 0.02 0.455 0 0.04 0.455 0 0.06 0.455 0 0.08 0.455 0 0.1 0.455 0 0 0.46 0 0.02 0.46 0 0.04 0.46 0 0.06 0.46 0 0.08 0.46 0 0.1 0.46 0 0 0.465 0 0.02 0.465 0 0.04 0.465 0 0.06 0.465 0 0.08 0.465 0 0.1 0.465 0 0 0.47 0 0.02 0.47 0 0.04 0.47 0 0.06 0.47 0 0.08 0.47 0 0.1 0.47 0 0 0.475 0 0.02 0.475 0 0.04 0.475 0 0.06 0.475 0 0.08 0.475 0 0.1 0.475 0 0 0.48 0 0.02 0.48 0 0.04 0.48 0 0.06 0.48 0 0.08 0.48 0 0.1 0.48 0 0 0.485 0 0.02 0.485 0 0.04 0.485 0 0.06 0.485 0 0.08 0.485 0 0.1 0.485 0 0 0.49 0 0.02 0.49 0 0.04 0.49 0 0.06 0.49 0 0.08 0.49 0 0.1 0.49 0 0 0.495 0 0.02 0.495 0 0.04 0.495 0 0.06 0.495 0 0.08 0.495 0 0.1 0.495 0 0 0.5 0 0.02 0.5 0 0.04 0.5 0 0.06 0.5 0 0.08 0.5 0 0.1 0.5 0 0 0.505 0 0.02 0.505 0 0.04 0.505 0 0.06 0.505 0 0.08 0.505 0 0.1 0.505 0 0 0.51 0 0.02 0.51 0 0.04 0.51 0 0.06 0.51 0 0.08 0.51 0 0.1 0.51 0 0 0.515 0 0.02 0.515 0 0.04 0.515 0 0.06 0.515 0 0.08 0.515 0 0.1 0.515 0 0 0.52 0 0.02 0.52 0 0.04 0.52 0 0.06 0.52 0 0.08 0.52 0 0.1 0.52 0 0 0.525 0 0.02 0.525 0 0.04 0.525 0 0.06 0.525 0 0.08 0.525 0 0.1 0.525 0 0 0.53 0 0.02 0.53 0 0.04 0.53 0 0.06 0.53 0 0.08 0.53 0 0.1 0.53 0 0 0.535 0 0.02 0.535 0 0.04 0.535 0 0.06 0.535 0 0.08 0.535 0 0.1 0.535 0 0 0.54 0 0.02 0.54 0 0.04 0.54 0 0.06 0.54 0 0.08 0.54 0 0.1 0.54 0 0 0.545 0 0.02 0.545 0 0.04 0.545 0 0.06 0.545 0 0.08 0.545 0 0.1 0.545 0 0 0.55 0 0.02 0.55 0 0.04 0.55 0 0.06 0.55 0 0.08 0.55 0 0.1 0.55 0 0 0.555 0 0.02 0.555 0 0.04 0.555 0 0.06 0.555 0 0.08 0.555 0 0.1 0.555 0 0 0.56 0 0.02 0.56 0 0.04 0.56 0 0.06 0.56 0 0.08 0.56 0 0.1 0.56 0 0 0.565 0 0.02 0.565 0 0.04 0.565 0 0.06 0.565 0 0.08 0.565 0 0.1 0.565 0 0 0.57 0 0.02 0.57 0 0.04 0.57 0 0.06 0.57 0 0.08 0.57 0 0.1 0.57 0 0 0.575 0 0.02 0.575 0 0.04 0.575 0 0.06 0.575 0 0.08 0.575 0 0.1 0.575 0 0 0.58 0 0.02 0.58 0 0.04 0.58 0 0.06 0.58 0 0.08 0.58 0 0.1 0.58 0 0 0.585 0 0.02 0.585 0 0.04 0.585 0 0.06 0.585 0 0.08 0.585 0 0.1 0.585 0 0 0.59 0 0.02 0.59 0 0.04 0.59 0 0.06 0.59 0 0.08 0.59 0 0.1 0.59 0 0 0.595 0 0.02 0.595 0 0.04 0.595 0 0.06 0.595 0 0.08 0.595 0 0.1 0.595 0 0 0.6 0 0.02 0.6 0 0.04 0.6 0 0.06 0.6 0 0.08 0.6 0 0.1 0.6 0 0 0.605 0 0.02 0.605 0 0.04 0.605 0 0.06 0.605 0 0.08 0.605 0 0.1 0.605 0 0 0.61 0 0.02 0.61 0 0.04 0.61 0 0.06 0.61 0 0.08 0.61 0 0.1 0.61 0 0 0.615 0 0.02 0.615 0 0.04 0.615 0 0.06 0.615 0 0.08 0.615 0 0.1 0.615 0 0 0.62 0 0.02 0.62 0 0.04 0.62 0 0.06 0.62 0 0.08 0.62 0 0.1 0.62 0 0 0.625 0 0.02 0.625 0 0.04 0.625 0 0.06 0.625 0 0.08 0.625 0 0.1 0.625 0 0 0.63 0 0.02 0.63 0 0.04 0.63 0 0.06 0.63 0 0.08 0.63 0 0.1 0.63 0 0 0.635 0 0.02 0.635 0 0.04 0.635 0 0.06 0.635 0 0.08 0.635 0 0.1 0.635 0 0 0.64 0 0.02 0.64 0 0.04 0.64 0 0.06 0.64 0 0.08 0.64 0 0.1 0.64 0 0 0.645 0 0.02 0.645 0 0.04 0.645 0 0.06 0.645 0 0.08 0.645 0 0.1 0.645 0 0 0.65 0 0.02 0.65 0 0.04 0.65 0 0.06 0.65 0 0.08 0.65 0 0.1 0.65 0 0 0.655 0 0.02 0.655 0 0.04 0.655 0 0.06 0.655 0 0.08 0.655 0 0.1 0.655 0 0 0.66 0 0.02 0.66 0 0.04 0.66 0 0.06 0.66 0 0.08 0.66 0 0.1 0.66 0 0 0.665 0 0.02 0.665 0 0.04 0.665 0 0.06 0.665 0 0.08 0.665 0 0.1 0.665 0 0 0.67 0 0.02 0.67 0 0.04 0.67 0 0.06 0.67 0 0.08 0.67 0 0.1 0.67 0 0 0.675 0 0.02 0.675 0 0.04 0.675 0 0.06 0.675 0 0.08 0.675 0 0.1 0.675 0 0 0.68 0 0.02 0.68 0 0.04 0.68 0 0.06 0.68 0 0.08 0.68 0 0.1 0.68 0 0 0.685 0 0.02 0.685 0 0.04 0.685 0 0.06 0.685 0 0.08 0.685 0 0.1 0.685 0 0 0.69 0 0.02 0.69 0 0.04 0.69 0 0.06 0.69 0 0.08 0.69 0 0.1 
[...]
			<PointData Scalars="VitesseX">
				<DataArray Name="VitesseX" type="Float32" format="ascii">
 0 2.56519e-16 -1.02115e-14 6.35737e-15 -2.6706e-14 0 0 4.34368e-15 -1.38595e-14 9.0164e-15 -2.49282e-14 0 0 6.15924e-16 1.28637e-15 -1.14255e-14 -8.32286e-17 0 0 2.16521e-14 -2.21495e-14 1.25129e-14 -8.31392e-16 0 0 2.14927e-14 -1.12725e-14 1.24133e-14 4.94421e-15 0 0 -1.51273e-14 4.67262e-14 -2.10256e-14 2.56321e-14 0 0 -9.84707e-15 2.36012e-14 3.4188e-14 -8.62318e-15 0 0 1.89053e-14 -1.99435e-14 8.49749e-14 -3.76609e-14 0 0 1.20156e-14 2.79201e-15 6.88765e-14 -2.77158e-14 0 0 1.0506e-14 3.21517e-14 3.22095e-14 3.49323e-16 0 0 5.4752e-14 -5.62984e-15 4.25438e-14 2.90438e-15 0 0 3.4106e-14 3.4143e-14 -1.57783e-14 4.62132e-14 0 0 6.43621e-14 -3.44986e-14 3.89054e-14 1.27218e-14 0 0 5.81898e-14 -3.40607e-14 3.62053e-14 -9.82664e-15 0 0 3.82324e-14 -7.25379e-15 4.3394e-15 6.37615e-15 0 0 8.91239e-14 -1.11692e-13 1.2263e-13 -5.77249e-14 0 0 2.35488e-15 3.44842e-14 -3.88359e-15 1.79742e-14 0 0 7.52993e-15 4.40205e-14 1.12725e-14 -3.88972e-15 0 0 2.8496e-14 5.31552e-15 9.30406e-14 -7.21518e-14 0 0 8.4352e-15 5.42986e-14 2.30417e-14 -1.22368e-14 0 0 7.77279e-14 -4.63237e-14 7.90265e-14 -2.757e-14 0 0 7.67025e-14 -8.74846e-14 1.08975e-13 -3.02664e-14 0 0 -2.64389e-15 8.57557e-15 7.41075e-15 3.61348e-14 0 0 -7.35643e-14 1.20192e-13 -9.73739e-14 7.72996e-14 0 0 2.77669e-14 -1.52828e-14 4.3649e-16 2.81568e-14 0 0 1.39612e-13 -1.89755e-13 1.71435e-13 -4.30494e-14 0 0 4.28944e-14 -8.43737e-14 1.13235e-13 2.99571e-14 0 0 -1.68507e-14 1.82745e-15 3.61318e-14 1.04442e-13 0 0 2.29979e-15 -1.08805e-14 7.50046e-14 8.3463e-14 0 0 3.30951e-14 -3.07683e-14 1.03121e-13 7.23671e-14 0 0 1.60019e-14 5.96019e-14 -1.77599e-14 1.20262e-13 0 0 4.81083e-14 2.16835e-14 1.54668e-14 3.96238e-14 0 0 6.9384e-14 -1.99331e-14 4.91918e-14 -2.60223e-14 0 0 -3.06182e-14 1.39533e-13 -1.28179e-13 4.06463e-14 0 0 4.81223e-14 2.58135e-14 -3.71527e-14 -1.29231e-14 0 0 9.24836e-14 -2.06878e-14 -1.88411e-14 2.52684e-14 0 0 7.72156e-14 -2.64744e-14 2.03148e-14 6.97616e-15 0 0 3.05051e-14 4.74843e-14 -5.43797e-14 6.51034e-14 0 0 9.23154e-14 -3.99239e-14 2.30873e-15 6.06228e-14 0 0 1.40307e-13 -1.331e-13 9.32667e-14 3.68626e-14 0 0 1.64317e-14 3.85506e-14 -6.16324e-14 1.49022e-13 0 0 -4.537e-15 3.8169e-15 7.3338e-14 1.82895e-14 0 0 -8.15287e-14 1.04224e-13 1.39453e-14 2.33746e-14 0 0 -2.72369e-14 8.88473e-14 -2.66923e-14 4.69267e-14 0 0 1.53641e-13 -1.15056e-13 1.47996e-13 -7.85625e-14 0 0 1.07719e-13 1.84125e-14 -2.20551e-14 6.53045e-14 0 0 1.01144e-13 7.30612e-14 -9.72384e-14 1.13504e-13 0 0 8.65871e-14 1.11595e-13 -1.35764e-13 1.06831e-13 0 0 4.96698e-14 1.48856e-13 -1.19604e-13 6.5326e-14 0 0 1.26325e-13 2.9121e-14 3.68302e-14 -6.42641e-14 0 0 2.41537e-13 -9.70581e-14 1.18168e-13 -1.07377e-13 0 0 2.98808e-13 -1.54384e-13 1.45911e-13 -1.01388e-13 0 0 -8.23309e-14 4.37964e-13 -4.82752e-13 3.46574e-13 0 0 2.79612e-14 1.95363e-13 -2.33445e-13 2.06845e-13 0 0 3.88571e-13 -4.08712e-13 3.73658e-13 -2.43747e-13 0 0 1.94082e-13 -6.58649e-16 -7.36495e-14 -6.66687e-14 0 0 2.37688e-13 -2.61279e-14 -3.45234e-14 -1.72285e-13 0 0 1.73943e-13 5.81079e-14 -7.18125e-14 -2.22244e-13 0 0 1.17609e-13 1.98152e-13 -2.57967e-13 -1.14893e-13 0 0 2.42928e-13 1.76618e-14 -1.48283e-13 -1.54825e-13 0 0 1.99613e-13 -1.77105e-14 -7.82296e-14 -1.88127e-13 0 0 9.33911e-14 1.32267e-15 8.73126e-15 -2.52401e-13 0 0 5.06845e-16 8.05567e-14 1.2548e-14 -2.5158e-13 0 0 7.23532e-14 -6.66526e-14 1.63523e-13 -2.88859e-13 0 0 4.43269e-14 -1.82207e-14 7.76499e-14 -1.51827e-13 0 0 -6.07637e-14 2.01059e-13 -1.63827e-13 4.49349e-14 0 0 6.06136e-14 7.33918e-15 4.15834e-14 -3.29918e-14 0 0 1.14841e-13 -3.78413e-14 7.79935e-14 -2.01468e-14 0 0 1.58898e-13 1.94139e-14 -3.60747e-14 5.76444e-14 0 0 1.8964e-13 6.82178e-14 -8.95898e-14 4.63902e-14 0 0 4.25897e-14 3.31466e-13 -2.79735e-13 5.89784e-14 0 0 2.15133e-13 6.03208e-14 7.30727e-15 -1.51902e-13 0 0 3.28833e-13 -7.37112e-14 1.87658e-14 -8.45315e-14 0 0 4.25695e-13 -2.30342e-13 1.37912e-13 -7.485e-14 0 0 2.25045e-13 9.89286e-15 4.52068e-14 -1.83004e-14 0 0 8.93543e-14 3.16758e-13 -1.97884e-13 1.22634e-13 0 0 6.03166e-13 -2.43182e-13 2.95789e-13 -1.69406e-13 0 0 5.45169e-13 -3.89075e-15 1.27496e-13 -1.56465e-13 0 0 3.60578e-13 1.82935e-13 2.34595e-13 -4.03416e-13 0 0 1.26184e-13 5.55328e-13 -1.55368e-13 -6.52704e-14 0 0 4.0221e-13 1.38181e-13 3.29323e-14 1.21363e-13 0 0 6.21713e-13 -4.30371e-13 6.98207e-13 -9.45953e-14 0 0 -1.31693e-13 6.73632e-13 -3.14963e-13 6.29252e-13 0 0 2.59233e-13 9.41663e-14 1.75313e-13 3.13227e-13 0 0 9.01527e-13 -9.69692e-13 1.17739e-12 -3.05669e-13 0 0 -3.36992e-14 2.19765e-13 3.26991e-14 4.89443e-13 0 0 -9.30209e-13 8.34566e-13 -2.35943e-13 6.75799e-13 0 0 -2.43215e-13 -1.22662e-13 6.06568e-13 2.45718e-13 0 0 5.24227e-13 -4.19716e-13 1.96439e-13 7.57702e-13 0 0 5.57445e-13 -5.38623e-13 5.08039e-13 3.06025e-13 0 0 2.23746e-14 5.95603e-14 4.62908e-13 -1.91935e-13 0 0 -7.31514e-13 9.8292e-13 -1.63649e-13 1.28928e-13 0 0 -5.4292e-13 6.01869e-13 1.0133e-13 2.42625e-15 0 0 -5.75951e-14 6.10165e-14 3.53822e-13 4.4103e-14 0 0 3.16162e-13 -3.28679e-13 3.50711e-13 3.05857e-13 0 0 4.93998e-13 -4.49515e-13 5.12745e-13 2.22745e-13 0 0 1.87103e-13 -2.35145e-13 4.95509e-13 1.55169e-14 0 0 -4.7972e-13 3.35412e-13 2.11212e-13 5.76317e-14 0 0 -6.04084e-13 5.80712e-13 -4.40875e-13 3.19171e-13 0 0 -4.03736e-13 4.68261e-13 -7.4597e-13 6.8981e-13 0 0 1.22677e-13 3.48486e-15 -6.89657e-13 7.52514e-13 0 0 4.64884e-13 -4.85294e-13 -4.83824e-13 7.22252e-13 0 0 4.58471e-13 -5.67157e-13 -2.80549e-13 6.27662e-13 0 0 2.97689e-13 -4.56317e-13 -1.35308e-13 4.32205e-13 0 0 8.09495e-15 -8.12172e-14 -8.6581e-14 2.27923e-13 0 0 -1.95955e-13 3.24372e-13 -1.06185e-13 6.61299e-14 0 0 -2.05861e-13 4.73308e-13 -1.36626e-13 -5.70464e-14 0 0 -1.57432e-13 4.88867e-13 -1.22078e-13 -1.53203e-13 0 0 -4.3493e-14 4.41876e-13 -6.70761e-14 -3.16329e-13 0 0 5.39508e-14 2.09033e-13 1.23626e-13 -4.89236e-13 0 0 5.53548e-14 -1.27679e-13 1.70722e-13 -4.71998e-13 0 0 3.37695e-14 -1.62381e-13 1.02799e-13 -3.97067e-13 0 0 -4.80762e-14 -1.53239e-13 -6.67135e-14 -3.01453e-13 0 0 -1.18472e-13 -1.15914e-13 -2.45616e-13 -1.09311e-13 0 0 -1.20709e-13 -1.08111e-13 -2.86158e-13 6.35802e-15 0 0 -9.64255e-14 -1.77385e-13 -1.7705e-13 -4.49611e-14 0 0 -6.29127e-14 -1.98385e-13 -7.90735e-14 -7.62398e-14 0 0 -5.26944e-14 -1.27735e-13 -1.48603e-13 -6.23606e-14 0 0 -4.2348e-14 -3.16786e-14 -1.85649e-13 -2.03147e-14 0 0 -2.41958e-14 1.89421e-15 -1.19685e-13 -2.22714e-14 0 0 -5.99396e-14 1.2607e-13 -1.56813e-13 3.23235e-14 0 0 -2.27089e-14 1.48008e-13 -1.51823e-13 9.68617e-14 0 0 2.07137e-13 -1.0092e-13 1.14424e-13 -1.01567e-13 0 0 1.38261e-13 6.73088e-14 -3.62257e-14 -4.41643e-14 0 0 1.27859e-13 9.24879e-14 -3.19575e-14 -2.35863e-14 0 0 8.87524e-14 1.38655e-13 -6.72233e-14 3.81052e-14 0 0 9.50484e-14 1.38768e-13 -1.21831e-13 1.32655e-13 0 0 3.40573e-13 -1.76092e-13 1.57483e-13 -5.92336e-14 0 0 1.97602e-13 1.06059e-13 -1.6748e-13 1.43816e-13 0 0 2.30207e-13 4.77878e-14 -1.38507e-13 1.17938e-13 0 0 2.01804e-13 4.84621e-14 -1.10117e-13 5.16733e-14 0 0 1.26329e-13 9.08774e-14 -9.99535e-14 -1.45195e-14 0 0 3.29138e-13 -2.5634e-13 2.28899e-13 -3.00075e-13 0 0 1.29053e-13 2.11539e-14 -1.29355e-13 -4.48009e-14 0 0 1.86041e-13 -7.68308e-14 -1.8718e-13 1.20855e-13 0 0 1.49404e-13 -4.48917e-14 -2.83562e-13 2.74734e-13 0 0 7.13436e-14 -1.13141e-14 -2.11011e-13 2.48483e-13 0 0 3.52088e-13 -5.15987e-13 4.10236e-13 -1.80452e-13 0 0 7.4626e-15 -1.36649e-14 8.31472e-14 -6.92211e-14 0 0 -1.56596e-13 2.40514e-13 -5.667e-14 4.77325e-14 0 0 -2.01402e-14 6.69295e-14 1.86218e-13 -6.46247e-14 0 0 -1.79413e-13 3.59476e-13 -3.00203e-14 7.51714e-14 0 0 1.72497e-13 -1.74395e-13 3.63626e-13 -4.38548e-15 0 0 2.43067e-13 -3.07535e-13 4.07052e-13 1.28536e-13 0 0 -1.24785e-13 1.89035e-13 -2.52713e-15 4.74527e-13 0 0 1.08112e-13 -2.66844e-13 5.48445e-13 1.41678e-13 0 0 -1.24879e-13 1.44001e-13 3.09874e-13 2.74248e-13 0 0 7.68491e-15 1.96119e-13 3.65934e-13 1.18432e-13 0 0 2.16117e-13 1.79478e-14 6.29386e-13 -1.97732e-13 0 0 3.80637e-14 2.73856e-13 3.69059e-13 -3.24211e-14 0 0 4.45587e-13 -3.96251e-13 8.66236e-13 -3.2653e-13 0 0 1.32545e-15 2.24473e-13 1.73263e-13 6.46068e-14 0 0 -6.56865e-14 3.6229e-13 -3.1067e-14 5.51635e-14 0 0 1.63618e-13 1.65623e-13 -7.68191e-14 1.11848e-13 0 0 1.86414e-13 5.35574e-14 -6.63669e-15 1.19713e-13 0 0 -6.57186e-15 7.70201e-15 2.27036e-13 -1.23183e-13 0 0 -3.19192e-13 2.55191e-13 3.14051e-14 -2.12109e-14 0 0 9.46777e-14 -3.12618e-13 3.80414e-13 -2.13031e-13 0 0 1.52214e-13 -2.8424e-13 3.65926e-14 5.92252e-14 0 0 1.88183e-13 -4.94384e-13 1.08394e-13 8.08094e-14 0 0 -5.72955e-14 -3.21851e-13 8.70377e-14 -1.94377e-14 0 0 -3.67813e-13 5.2622e-14 -1.44444e-13 4.11336e-14 0 0 -2.72467e-13 -7.17584e-14 -7.24009e-14 7.78965e-14 0 0 -3.00056e-13 -1.14812e-13 8.99717e-14 3.27119e-15 0 0 3.83764e-14 -6.53852e-13 4.33111e-13 1.33273e-13 0 0 3.21218e-13 -8.92096e-13 3.10608e-13 5.74471e-13 0 0 2.52754e-14 -4.28069e-13 7.70565e-14 5.52657e-13 0 0 -1.96389e-13 -2.00346e-13 2.98788e-13 6.78484e-14 0 0 -5.90518e-13 4.36277e-13 -3.90704e-13 3.91034e-13 0 0 -3.93731e-13 1.52881e-13 -5.76409e-13 6.77308e-13 0 0 9.98635e-14 -6.56493e-13 -3.82641e-14 4.4133e-13 0 0 1.89432e-14 -5.47001e-13 -1.36668e-13 4.05614e-13 0 0 2.97682e-13 -9.54644e-13 2.8987e-13 9.0119e-14 0 0 -1.25516e-13 -3.14786e-13 -1.62727e-13 2.26939e-13 0 0 -3.9153e-13 -6.21204e-15 -2.59139e-13 1.15131e-13 0 0 -1.31844e-13 -3.0847e-13 -6.86166e-14 -6.40685e-14 0 0 -6.33399e-14 -1.68448e-13 -3.95027e-13 6.36564e-14 0 0 3.62191e-13 -7.46745e-13 1.41468e-13 -3.02244e-13 0 0 -2.40451e-13 -2.88828e-14 -2.88817e-13 -8.43612e-14 0 0 -5.14841e-13 1.99604e-13 -1.98719e-13 -2.21568e-13 0 0 -1.27875e-13 -3.4357e-13 2.36484e-13 -4.21827e-13 0 0 -2.27291e-13 -2.46806e-14 -3.32705e-13 6.54002e-14 0 0 1.30009e-13 -4.24698e-13 -6.89636e-14 -3.80047e-14 0 0 -1.87952e-13 -1.52812e-14 -2.18394e-13 -3.61501e-14 0 0 -4.49453e-13 2.25454e-13 -6.27754e-14 -2.65688e-13 0 0 -1.79578e-13 -2.00264e-13 4.44464e-13 -5.96725e-13 0 0 -2.08714e-13 -2.05792e-13 3.66808e-13 -5.31664e-13 0 0 7.75031e-14 -7.39881e-13 7.68187e-13 -6.66845e-13 0 0 -3.23755e-13 -7.19299e-14 2.77862e-14 -7.46401e-14 0 0 -2.73549e-13 -1.49019e-14 -5.62598e-14 3.76697e-14 0 0 9.7975e-14 -4.51186e-13 5.70738e-13 -5.5252e-13 0 0 -5.94945e-13 6.7467e-13 -3.33628e-13 -2.68325e-13 0 0 -7.21523e-14 -8.43085e-14 1.9827e-13 -5.15593e-13 0 0 2.71056e-13 -6.41545e-13 5.59266e-13 -5.44384e-13 0 0 -1.06445e-13 -2.44836e-13 2.63316e-13 -2.24161e-13 0 0 1.39356e-13 -7.10241e-13 8.55378e-13 -5.67571e-13 0 0 -2.18338e-13 -7.50457e-14 4.67825e-13 -5.55414e-13 0 0 1.25699e-13 -4.85928e-13 1.08711e-12 -1.28855e-12 0 0 3.16101e-14 -1.99745e-13 8.51668e-13 -1.40368e-12 0 0 -2.53257e-13 4.78648e-13 -1.55076e-13 -6.87201e-13 0 0 2.78986e-13 -1.91249e-13 1.93077e-13 -7.57204e-13 0
				</DataArray>
				<DataArray Name="VitesseY" type="Float32" format="ascii">