<?xml version="1.0"?>
<VTKFile type="PolyData">
	<PolyData>
		<Piece NumberOfPoints="1206" NumberOfPolys="1000">
			<Points>
				<DataArray type="Float32" NumberOfComponents="3" format="ascii">
 0 0 0 0.02 0 0 0.04 0 0 0.06 0 0 0.08 0 0 0.1 0 0 0 0.005 0 0.02 0.005 0 0.04 0.005 0 0.06 0.005 0 0.08 0.005 0 0.1 0.005 0 0 0.01 0 0.02 0.01 0 0.04 0.01 0 0.06 0.01 0 0.08 0.01 0 0.1 0.01 0 0 0.015 0 0.02 0.015 0 0.04 0.015 0 0.06 0.015 0 0.08 0.015 0 0.1 0.015 0 0 0.02 0 0.02 0.02 0 0.04 0.02 0 0.06 0.02 0 0.08 0.02 0 0.1 0.02 0 0 0.025 0 0.02 0.025 0 0.04 0.025 0 0.06 0.025 0 0.08 0.025 0 0.1 0.025 0 0 0.03 0 0.02 0.03 0 0.04 0.03 0 0.06 0.03 0 0.08 0.03 0 0.1 0.03 0 0 0.035 0 0.02 0.035 0 0.04 0.035 0 0.06 0.035 0 0.08 0.035 0 0.1 0.035 0 0 0.04 0 0.02 0.04 0 0.04 0.04 0 0.06 0.04 0 0.08 0.04 0 0.1 0.04 0 0 0.045 0 0.02 0.045 0 0.04 0.045 0 0.06 0.045 0 0.08 0.045 0 0.1 0.045 0 0 0.05 0 0.02 0.05 0 0.04 0.05 0 0.06 0.05 0 0.08 0.05 0 0.1 0.05 0 0 0.055 0 0.02 0.055 0 0.04 0.055 0 0.06 0.055 0 0.08 0.055 0 0.1 0.055 0 0 0.06 0 0.02 0.06 0 0.04 0.06 0 0.06 0.06 0 0.08 0.06 0 0.1 0.06 0 0 0.065 0 0.02 0.065 0 0.04 0.065 0 0.06 0.065 0 0.08 0.065 0 0.1 0.065 0 0 0.07 0 0.02 0.07 0 0.04 0.07 0 0.06 0.07 0 0.08 0.07 0 0.1 0.07 0 0 0.075 0 0.02 0.075 0 0.04 0.075 0 0.06 0.075 0 0.08 0.075 0 0.1 0.075 0 0 0.08 0 0.02 0.08 0 0.04 0.08 0 0.06 0.08 0 0.08 0.08 0 0.1 0.08 0 0 0.085 0 0.02 0.085 0 0.04 0.085 0 0.06 0.085 0 0.08 0.085 0 0.1 0.085 0 0 0.09 0 0.02 0.09 0 0.04 0.09 0 0.06 0.09 0 0.08 0.09 0 0.1 0.09 0 0 0.095 0 0.02 0.095 0 0.04 0.095 0 0.06 0.095 0 0.08 0.095 0 0.1 0.095 0 0 0.1 0 0.02 0.1 0 0.04 0.1 0 0.06 0.1 0 0.08 0.1 0 0.1 0.1 0 0 0.105 0 0.02 0.105 0 0.04 0.105 0 0.06 0.105 0 0.08 0.105 0 0.1 0.105 0 0 0.11 0 0.02 0.11 0 0.04 0.11 0 0.06 0.11 0 0.08 0.11 0 0.1 0.11 0 0 0.115 0 0.02 0.115 0 0.04 0.115 0 0.06 0.115 0 0.08 0.115 0 0.1 0.115 0 0 0.12 0 0.02 0.12 0 0.04 0.12 0 0.06 0.12 0 0.08 0.12 0 0.1 0.12 0 0 0.125 0 0.02 0.125 0 0.04 0.125 0 0.06 0.125 0 0.08 0.125 0 0.1 0.125 0 0 0.13 0 0.02 0.13 0 0.04 0.13 0 0.06 0.13 0 0.08 0.13 0 0.1 0.13 0 0 0.135 0 0.02 0.135 0 0.04 0.135 0 0.06 0.135 0 0.08 0.135 0 0.1 0.135 0 0 0.14 0 0.02 0.14 0 0.04 0.14 0 0.06 0.14 0 0.08 0.14 0 0.1 0.14 0 0 0.145 0 0.02 0.145 0 0.04 0.145 0 0.06 0.145 0 0.08 0.145 0 0.1 0.145 0 0 0.15 0 0.02 0.15 0 0.04 0.15 0 0.06 0.15 0 0.08 0.15 0 0.1 0.15 0 0 0.155 0 0.02 0.155 0 0.04 0.155 0 0.06 0.155 0 0.08 0.155 0 0.1 0.155 0 0 0.16 0 0.02 0.16 0 0.04 0.16 0 0.06 0.16 0 0.08 0.16 0 0.1 0.16 0 0 0.165 0 0.02 0.165 0 0.04 0.165 0 0.06 0.165 0 0.08 0.165 0 0.1 0.165 0 0 0.17 0 0.02 0.17 0 0.04 0.17 0 0.06 0.17 0 0.08 0.17 0 0.1 0.17 0 0 0.175 0 0.02 0.175 0 0.04 0.175 0 0.06 0.175 0 0.08 0.175 0 0.1 0.175 0 0 0.18 0 0.02 0.18 0 0.04 0.18 0 0.06 0.18 0 0.08 0.18 0 0.1 0.18 0 0 0.185 0 0.02 0.185 0 0.04 0.185 0 0.06 0.185 0 0.08 0.185 0 0.1 0.185 0 0 0.19 0 0.02 0.19 0 0.04 0.19 0 0.06 0.19 0 0.08 0.19 0 0.1 0.19 0 0 0.195 0 0.02 0.195 0 0.04 0.195 0 0.06 0.195 0 0.08 0.195 0 0.1 0.195 0 0 0.2 0 0.02 0.2 0 0.04 0.2 0 0.06 0.2 0 0.08 0.2 0 0.1 0.2 0 0 0.205 0 0.02 0.205 0 0.04 0.205 0 0.06 0.205 0 0.08 0.205 0 0.1 0.205 0 0 0.21 0 0.02 0.21 0 0.04 0.21 0 0.06 0.21 0 0.08 0.21 0 0.1 0.21 0 0 0.215 0 0.02 0.215 0 0.04 0.215 0 0.06 0.215 0 0.08 0.215 0 0.1 0.215 0 0 0.22 0 0.02 0.22 0 0.04 0.22 0 0.06 0.22 0 0.08 0.22 0 0.1 0.22 0 0 0.225 0 0.02 0.225 0 0.04 0.225 0 0.06 0.225 0 0.08 0.225 0 0.1 0.225 0 0 0.23 0 0.02 0.23 0 0.04 0.23 0 0.06 0.23 0 0.08 0.23 0 0.1 0.23 0 0 0.235 0 0.02 0.235 0 0.04 0.235 0 0.06 0.235 0 0.08 0.235 0 0.1 0.235 0 0 0.24 0 0.02 0.24 0 0.04 0.24 0 0.06 0.24 0 0.08 0.24 0 0.1 0.24 0 0 0.245 0 0.02 0.245 0 0.04 0.245 0 0.06 0.245 0 0.08 0.245 0 0.1 0.245 0 0 0.25 0 0.02 0.25 0 0.04 0.25 0 0.06 0.25 0 0.08 0.25 0 0.1 0.25 0 0 0.255 0 0.02 0.255 0 0.04 0.255 0 0.06 0.255 0 0.08 0.255 0 0.1 0.255 0 0 0.26 0 0.02 0.26 0 0.04 0.26 0 0.06 0.26 0 0.08 0.26 0 0.1 0.26 0 0 0.265 0 0.02 0.265 0 0.04 0.265 0 0.06 0.265 0 0.08 0.265 0 0.1 0.265 0 0 0.27 0 0.02 0.27 0 0.04 0.27 0 0.06 0.27 0 0.08 0.27 0 0.1 0.27 0 0 0.275 0 0.02 0.275 0 0.04 0.275 0 0.06 0.275 0 0.08 0.275 0 0.1 0.275 0 0 0.28 0 0.02 0.28 0 0.04 0.28 0 0.06 0.28 0 0.08 0.28 0 0.1 0.28 0 0 0.285 0 0.02 0.285 0 0.04 0.285 0 0.06 0.285 0 0.08 0.285 0 0.1 0.285 0 0 0.29 0 0.02 0.29 0 0.04 0.29 0 0.06 0.29 0 0.08 0.29 0 0.1 0.29 0 0 0.295 0 0.02 0.295 0 0.04 0.295 0 0.06 0.295 0 0.08 0.295 0 0.1 0.295 0 0 0.3 0 0.02 0.3 0 0.04 0.3 0 0.06 0.3 0 0.08 0.3 0 0.1 0.3 0 0 0.305 0 0.02 0.305 0 0.04 0.305 0 0.06 0.305 0 0.08 0.305 0 0.1 0.305 0 0 0.31 0 0.02 0.31 0 0.04 0.31 0 0.06 0.31 0 0.08 0.31 0 0.1 0.31 0 0 0.315 0 0.02 0.315 0 0.04 0.315 0 0.06 0.315 0 0.08 0.315 0 0.1 0.315 0 0 0.32 0 0.02 0.32 0 0.04 0.32 0 0.06 0.32 0 0.08 0.32 0 0.1 0.32 0 0 0.325 0 0.02 0.325 0 0.04 0.325 0 0.06 0.325 0 0.08 0.325 0 0.1 0.325 0 0 0.33 0 0.02 0.33 0 0.04 0.33 0 0.06 0.33 0 0.08 0.33 0 0.1 0.33 0 0 0.335 0 0.02 0.335 0 0.04 0.335 0 0.06 0.335 0 0.08 0.335 0 0.1 0.335 0 0 0.34 0 0.02 0.34 0 0.04 0.34 0 0.06 0.34 0 0.08 0.34 0 0.1 0.34 0 0 0.345 0 0.02 0.345 0 0.04 0.345 0 0.06 0.345 0 0.08 0.345 0 0.1 0.345 0 0 0.35 0 0.02 0.35 0 0.04 0.35 0 0.06 0.35 0 0.08 0.35 0 0.1 0.35 0 0 0.355 0 0.02 0.355 0 0.04 0.355 0 0.06 0.355 0 0.08 0.355 0 0.1 0.355 0 0 0.36 0 0.02 0.36 0 0.04 0.36 0 0.06 0.36 0 0.08 0.36 0 0.1 0.36 0 0 0.365 0 0.02 0.365 0 0.04 0.365 0 0.06 0.365 0 0.08 0.365 0 0.1 0.365 0 0 0.37 0 0.02 0.37 0 0.04 0.37 0 0.06 0.37 0 0.08 0.37 0 0.1 0.37 0 0 0.375 0 0.02 0.375 0 0.04 0.375 0 0.06 0.375 0 0.08 0.375 0 0.1 0.375 0 0 0.38 0 0.02 0.38 0 0.04 0.38 0 0.06 0.38 0 0.08 0.38 0 0.1 0.38 0 0 0.385 0 0.02 0.385 0 0.04 0.385 0 0.06 0.385 0 0.08 0.385 0 0.1 0.385 0 0 0.39 0 0.02 0.39 0 0.04 0.39 0 0.06 0.39 0 0.08 0.39 0 0.1 0.39 0 0 0.395 0 0.02 0.395 0 0.04 0.395 0 0.06 0.395 0 0.08 0.395 0 0.1 0.395 0 0 0.4 0 0.02 0.4 0 0.04 0.4 0 0.06 0.4 0 0.08 0.4 0 0.1 0.4 0 0 0.405 0 0.02 0.405 0 0.04 0.405 0 0.06 0.405 0 0.08 0.405 0 0.1 0.405 0 0 0.41 0 0.02 0.41 0 0.04 0.41 0 0.06 0.41 0 0.08 0.41 0 0.1 0.41 0 0 0.415 0 0.02 0.415 0 0.04 0.415 0 0.06 0.415 0 0.08 0.415 0 0.1 0.415 0 0 0.42 0 0.02 0.42 0 0.04 0.42 0 0.06 0.42 0 0.08 0.42 0 0.1 0.42 0 0 0.425 0 0.02 0.425 0 0.04 0.425 0 0.06 0.425 0 0.08 0.425 0 0.1 0.425 0 0 0.43 0 0.02 0.43 0 0.04 0.43 0 0.06 0.43 0 0.08 0.43 0 0.1 0.43 0 0 0.435 0 0.02 0.435 0 0.04 0.435 0 0.06 0.435 0 0.08 0.435 0 0.1 0.435 0 0 0.44 0 0.02 0.44 0 0.04 0.44 0 0.06 0.44 0 0.08 0.44 0 0.1 0.44 0 0 0.445 0 0.02 0.445 0 0.04 0.445 0 0.06 0.445 0 0.08 0.445 0 0.1 0.445 0 0 0.45 0 0.02 0.45 0 0.04 0.45 0 0.06 0.45 0 0.08 0.45 0 0.1 0.45 0 0 0.455 0 0.02 0.455 0 0.04 0.455 0 0.06 0.455 0 0.08 0.455 0 0.1 0.455 0 0 0.46 0 0.02 0.46 0 0.04 0.46 0 0.06 0.46 0 0.08 0.46 0 0.1 0.46 0 0 0.465 0 0.02 0.465 0 0.04 0.465 0 0.06 0.465 0 0.08 0.465 0 0.1 0.465 0 0 0.47 0 0.02 0.47 0 0.04 0.47 0 0.06 0.47 0 0.08 0.47 0 0.1 0.47 0 0 0.475 0 0.02 0.475 0 0.04 0.475 0 0.06 0.475 0 0.08 0.475 0 0.1 0.475 0 0 0.48 0 0.02 0.48 0 0.04 0.48 0 0.06 0.48 0 0.08 0.48 0 0.1 0.48 0 0 0.485 0 0.02 0.485 0 0.04 0.485 0 0.06 0.485 0 0.08 0.485 0 0.1 0.485 0 0 0.49 0 0.02 0.49 0 0.04 0.49 0 0.06 0.49 0 0.08 0.49 0 0.1 0.49 0 0 0.495 0 0.02 0.495 0 0.04 0.495 0 0.06 0.495 0 0.08 0.495 0 0.1 0.495 0 0 0.5 0 0.02 0.5 0 0.04 0.5 0 0.06 0.5 0 0.08 0.5 0 0.1 0.5 0 0 0.505 0 0.02 0.505 0 0.04 0.505 0 0.06 0.505 0 0.08 0.505 0 0.1 0.505 0 0 0.51 0 0.02 0.51 0 0.04 0.51 0 0.06 0.51 0 0.08 0.51 0 0.1 0.51 0 0 0.515 0 0.02 0.515 0 0.04 0.515 0 0.06 0.515 0 0.08 0.515 0 0.1 0.515 0 0 0.52 0 0.02 0.52 0 0.04 0.52 0 0.06 0.52 0 0.08 0.52 0 0.1 0.52 0 0 0.525 0 0.02 0.525 0 0.04 0.525 0 0.06 0.525 0 0.08 0.525 0 0.1 0.525 0 0 0.53 0 0.02 0.53 0 0.04 0.53 0 0.06 0.53 0 0.08 0.53 0 0.1 0.53 0 0 0.535 0 0.02 0.535 0 0.04 0.535 0 0.06 0.535 0 0.08 0.535 0 0.1 0.535 0 0 0.54 0 0.02 0.54 0 0.04 0.54 0 0.06 0.54 0 0.08 0.54 0 0.1 0.54 0 0 0.545 0 0.02 0.545 0 0.04 0.545 0 0.06 0.545 0 0.08 0.545 0 0.1 0.545 0 0 0.55 0 0.02 0.55 0 0.04 0.55 0 0.06 0.55 0 0.08 0.55 0 0.1 0.55 0 0 0.555 0 0.02 0.555 0 0.04 0.555 0 0.06 0.555 0 0.08 0.555 0 0.1 0.555 0 0 0.56 0 0.02 0.56 0 0.04 0.56 0 0.06 0.56 0 0.08 0.56 0 0.1 0.56 0 0 0.565 0 0.02 0.565 0 0.04 0.565 0 0.06 0.565 0 0.08 0.565 0 0.1 0.565 0 0 0.57 0 0.02 0.57 0 0.04 0.57 0 0.06 0.57 0 0.08 0.57 0 0.1 0.57 0 0 0.575 0 0.02 0.575 0 0.04 0.575 0 0.06 0.575 0 0.08 0.575 0 0.1 0.575 0 0 0.58 0 0.02 0.58 0 0.04 0.58 0 0.06 0.58 0 0.08 0.58 0 0.1 0.58 0 0 0.585 0 0.02 0.585 0 0.04 0.585 0 0.06 0.585 0 0.08 0.585 0 0.1 0.585 0 0 0.59 0 0.02 0.59 0 0.04 0.59 0 0.06 0.59 0 0.08 0.59 0 0.1 0.59 0 0 0.595 0 0.02 0.595 0 0.04 0.595 0 0.06 0.595 0 0.08 0.595 0 0.1 0.595 0 0 0.6 0 0.02 0.6 0 0.04 0.6 0 0.06 0.6 0 0.08 0.6 0 0.1 0.6 0 0 0.605 0 0.02 0.605 0 0.04 0.605 0 0.06 0.605 0 0.08 0.605 0 0.1 0.605 0 0 0.61 0 0.02 0.61 0 0.04 0.61 0 0.06 0.61 0 0.08 0.61 0 0.1 0.61 0 0 0.615 0 0.02 0.615 0 0.04 0.615 0 0.06 0.615 0 0.08 0.615 0 0.1 0.615 0 0 0.62 0 0.02 0.62 0 0.04 0.62 0 0.06 0.62 0 0.08 0.62 0 0.1 0.62 0 0 0.625 0 0.02 0.625 0 0.04 0.625 0 0.06 0.625 0 0.08 0.625 0 0.1 0.625 0 0 0.63 0 0.02 0.63 0 0.04 0.63 0 0.06 0.63 0 0.08 0.63 0 0.1 0.63 0 0 0.635 0 0.02 0.635 0 0.04 0.635 0 0.06 0.635 0 0.08 0.635 0 0.1 0.635 0 0 0.64 0 0.02 0.64 0 0.04 0.64 0 0.06 0.64 0 0.08 0.64 0 0.1 0.64 0 0 0.645 0 0.02 0.645 0 0.04 0.645 0 0.06 0.645 0 0.08 0.645 0 0.1 0.645 0 0 0.65 0 0.02 0.65 0 0.04 0.65 0 0.06 0.65 0 0.08 0.65 0 0.1 0.65 0 0 0.655 0 0.02 0.655 0 0.04 0.655 0 0.06 0.655 0 0.08 0.655 0 0.1 0.655 0 0 0.66 0 0.02 0.66 0 0.04 0.66 0 0.06 0.66 0 0.08 0.66 0 0.1 0.66 0 0 0.665 0 0.02 0.665 0 0.04 0.665 0 0.06 0.665 0 0.08 0.665 0 0.1 0.665 0 0 0.67 0 0.02 0.67 0 0.04 0.67 0 0.06 0.67 0 0.08 0.67 0 0.1 0.67 0 0 0.675 0 0.02 0.675 0 0.04 0.675 0 0.06 0.675 0 0.08 0.675 0 0.1 0.675 0 0 0.68 0 0.02 0.68 0 0.04 0.68 0 0.06 0.68 0 0.08 0.68 0 0.1 0.68 0 0 0.685 0 0.02 0.685 0 0.04 0.685 0 0.06 0.685 0 0.08 0.685 0 0.1 0.685 0 0 0.69 0 0.02 0.69 0 0.04 0.69 0 0.06 0.69 0 0.08 0.69 0 0.1 
[...]
			<PointData Scalars="VitesseX">
				<DataArray Name="VitesseX" type="Float32" format="ascii">
 0 -5.96104e-15 -3.1589e-14 1.39317e-15 2.66273e-14 0 0 -1.60041e-14 -1.93663e-14 1.37991e-15 1.99497e-14 0 0 -1.49917e-14 -2.42107e-14 1.6283e-14 5.12625e-15 0 0 -3.3659e-14 -2.16858e-15 -6.58564e-15 2.33433e-14 0 0 -5.21898e-14 1.19961e-14 -9.24739e-15 2.27079e-14 0 0 -3.11678e-14 -2.50236e-14 2.50764e-14 -7.61308e-15 0 0 -1.77875e-16 -5.54265e-14 1.12653e-14 5.01108e-15 0 0 -6.07548e-15 -3.8245e-14 -4.55655e-14 4.3703e-14 0 0 -2.62943e-14 -3.60357e-14 -4.24276e-14 2.71178e-14 0 0 -4.56936e-14 -3.5881e-14 -3.53643e-14 2.94188e-14 0 0 -9.22471e-14 3.57181e-14 -9.19069e-14 7.07092e-14 0 0 -5.00246e-14 -3.94454e-14 1.65883e-14 -3.02591e-15 0 0 -7.35289e-14 -2.36083e-14 3.64141e-14 -4.08195e-14 0 0 -6.74648e-14 -3.79967e-15 9.74797e-15 -6.25537e-14 0 0 -3.58314e-14 -4.46839e-16 -3.94752e-14 -2.13887e-14 0 0 -8.03416e-14 7.458e-14 -1.19488e-13 4.90592e-14 0 0 -1.88038e-14 -4.66646e-14 -1.06571e-14 8.9067e-15 0 0 -7.99863e-14 3.98116e-14 -1.13782e-13 8.09211e-14 0 0 -1.26564e-13 1.18263e-13 -1.79664e-13 8.5215e-14 0 0 -5.78774e-14 1.49977e-14 -9.75989e-14 3.95116e-14 0 0 -2.84372e-14 -2.62534e-14 -1.38552e-13 1.08357e-13 0 0 -3.21943e-14 -4.37363e-14 -1.60455e-13 1.36642e-13 0 0 -9.13628e-14 -4.31181e-14 -4.57809e-14 1.98462e-14 0 0 -9.56477e-14 -5.61868e-14 5.57476e-14 -9.92998e-14 0 0 -3.06585e-14 -3.67479e-14 -3.49467e-14 -6.06696e-14 0 0 -1.66009e-15 -8.54845e-15 -9.25211e-14 -4.45714e-14 0 0 -3.15728e-14 -1.42223e-14 -1.38754e-14 -1.73283e-13 0 0 -1.16042e-13 3.13241e-14 -5.57212e-14 -1.99656e-13 0 0 -1.00092e-13 -1.29748e-14 -1.02026e-13 -1.30494e-13 0 0 -6.85129e-14 -3.42576e-14 -1.09191e-13 -1.17364e-13 0 0 -3.02009e-14 -7.83325e-14 -1.77103e-15 -2.01028e-13 0 0 -2.45428e-14 -7.55023e-14 9.94234e-15 -1.37287e-13 0 0 -1.11172e-13 1.48386e-14 -5.71763e-14 -2.44952e-14 0 0 -1.22402e-13 -4.59706e-14 5.08869e-14 -6.165e-14 0 0 -1.14309e-13 -2.16798e-14 -5.02567e-14 8.30947e-14 0 0 -3.2087e-14 -8.34108e-14 -3.42565e-14 1.43763e-13 0 0 -1.08331e-13 1.19282e-14 -2.02464e-14 1.31833e-13 0 0 -1.70794e-13 6.76256e-14 4.40679e-14 2.8214e-14 0 0 -1.57916e-13 7.20217e-14 4.8338e-14 5.55592e-15 0 0 -9.40072e-14 2.19257e-14 -5.61367e-15 8.02953e-14 0 0 -2.36179e-14 -1.41356e-13 5.96906e-14 2.88903e-14 0 0 -1.10893e-13 -7.88839e-14 -2.09709e-14 1.21021e-14 0 0 -1.38442e-13 -4.93213e-14 -2.86644e-14 -6.09454e-14 0 0 -4.40776e-14 -1.21741e-13 -2.56327e-14 -6.48521e-14 0 0 -6.13015e-15 -8.1467e-14 -1.04487e-13 -2.71844e-14 0 0 -3.00936e-14 -9.26175e-14 5.45194e-14 -2.50046e-13 0 0 -2.79994e-13 9.97087e-14 7.90144e-14 -3.79253e-13 0 0 -2.97148e-13 3.04658e-14 1.14815e-13 -3.6854e-13 0 0 -1.35462e-13 -1.7788e-13 1.04428e-13 -2.26792e-13 0 0 -9.07323e-14 -1.83116e-13 -6.94649e-14 2.09885e-14 0 0 4.33015e-14 -3.23422e-13 1.31242e-14 -1.04506e-14 0 0 -2.3337e-13 1.99419e-14 -8.81191e-14 -1.15307e-13 0 0 -3.01995e-13 -1.67696e-14 2.15323e-13 -5.19328e-13 0 0 -3.39233e-13 9.79176e-14 3.09721e-14 -3.80963e-13 0 0 -1.93684e-13 1.6716e-13 -3.44052e-13 5.60788e-15 0 0 1.11615e-13 -1.86524e-13 -5.92825e-14 -1.57932e-13 0 0 -2.7644e-13 1.26938e-13 -1.44518e-13 -1.54926e-13 0 0 -2.36142e-13 -2.07324e-13 4.01741e-13 -5.91892e-13 0 0 -2.20504e-13 -1.83325e-13 3.28828e-13 -5.17986e-13 0 0 -2.89342e-13 1.10586e-13 -2.22475e-13 -2.344e-14 0 0 -7.7176e-14 -1.15669e-13 -1.61562e-13 2.17654e-14 0 0 -2.33716e-13 1.09425e-13 -3.45522e-13 1.2519e-13 0 0 -1.01401e-13 -5.6018e-14 -1.91618e-13 1.60802e-14 0 0 -4.3381e-14 -6.7559e-14 -2.10021e-13 2.1926e-14 0 0 -9.55116e-14 2.22751e-14 -2.57177e-13 5.13968e-14 0 0 -1.67799e-14 -1.44026e-13 -7.23819e-14 -4.09623e-14 0 0 -1.98592e-13 3.52608e-14 -2.1417e-13 4.91197e-14 0 0 -9.76451e-14 -7.44641e-14 -1.69407e-13 1.90788e-14 0 0 -4.04795e-14 -1.1966e-13 -1.62451e-13 9.21281e-15 0 0 -2.37368e-13 7.31126e-14 -1.13736e-13 -1.06276e-13 0 0 -1.40145e-13 -2.62673e-13 5.11736e-13 -5.50126e-13 0 0 -3.23809e-13 -1.77503e-14 2.5096e-13 -1.96236e-13 0 0 -1.50506e-13 7.06129e-15 -6.278e-14 2.70291e-13 0 0 -9.43708e-14 -4.02242e-16 -1.66181e-13 4.23143e-13 0 0 -4.15367e-13 1.93031e-13 -9.65587e-14 2.59035e-13 0 0 -4.22732e-13 6.79489e-14 1.70419e-13 -4.05082e-14 0 0 -3.67074e-13 1.34433e-13 -1.8521e-13 1.79636e-13 0 0 -7.07267e-14 -2.18175e-13 -5.51447e-14 2.50068e-14 0 0 -3.29311e-13 -6.20052e-14 -7.91542e-14 -1.33106e-13 0 0 -4.22233e-13 -2.06577e-13 6.44905e-14 -2.86365e-13 0 0 -3.05454e-13 -2.47722e-13 -1.20118e-13 -1.23979e-13 0 0 -5.65196e-13 1.85466e-13 -4.88041e-13 7.27843e-14 0 0 -2.99303e-13 -2.81466e-13 9.68298e-14 -4.47331e-13 0 0 -2.07586e-13 -1.00593e-13 -3.72427e-13 -2.38396e-13 0 0 -2.26915e-13 2.00043e-13 -8.72391e-13 5.13898e-14 0 0 -1.36754e-13 -2.65709e-13 -9.0821e-14 -5.01935e-13 0 0 -4.90981e-13 -2.04108e-13 1.00623e-13 -5.98433e-13 0 0 -3.55817e-13 -2.35932e-13 -2.79851e-13 -1.26759e-13 0 0 2.0837e-13 -7.03399e-13 -3.37325e-13 1.65556e-13 0 0 -8.24429e-14 -1.84487e-13 -5.46554e-13 -5.45055e-14 0 0 -3.77544e-13 -2.35606e-15 -1.76661e-13 -5.8212e-13 0 0 -4.2591e-13 -2.25695e-13 5.57684e-14 -5.99928e-13 0 0 -8.39572e-14 -2.2885e-13 -4.76589e-13 6.41834e-14 0 0 4.32769e-13 -8.56761e-13 -5.56702e-13 5.81045e-13 0 0 -3.82576e-13 -5.73432e-14 -4.08027e-13 1.582e-13 0 0 -3.75324e-13 -2.48523e-13 7.45272e-13 -1.0597e-12 0 0 1.55815e-13 -6.13033e-13 5.20842e-13 -8.65466e-13 0 0 -8.75613e-13 1.01656e-12 -5.83586e-13 -4.05384e-13 0 0 -1.81777e-13 9.66448e-14 3.86356e-13 -9.88078e-13 0 0 3.60423e-13 -4.61934e-13 5.00889e-13 -9.75341e-13 0 0 2.68177e-13 -3.06953e-13 -3.77898e-14 -2.22239e-13 0 0 5.06409e-14 7.34669e-15 -9.87924e-13 6.00479e-13 0 0 -1.2249e-13 -2.08765e-14 -1.02462e-12 5.83825e-13 0 0 -2.55417e-13 -2.25127e-13 -7.11815e-13 2.65517e-13 0 0 -3.54209e-13 -5.02004e-13 -1.95535e-13 -2.04111e-13 0 0 -4.1405e-13 -5.3451e-13 5.15007e-14 -5.53752e-13 0 0 -3.99087e-13 -4.57131e-13 -6.72478e-14 -4.63554e-13 0 0 -2.72092e-13 -3.1975e-13 -4.26476e-13 -2.97247e-14 0 0 -2.74671e-13 -1.12611e-13 -5.78224e-13 6.73596e-14 0 0 -2.84901e-13 -8.48461e-14 -3.68644e-13 -2.00603e-13 0 0 -2.86337e-13 -8.15056e-14 -2.07862e-13 -3.54239e-13 0 0 -1.29711e-13 -1.07552e-13 -3.0942e-13 -2.80456e-13 0 0 3.83122e-15 -1.65649e-13 -3.74883e-13 -2.21861e-13 0 0 -4.20789e-14 -2.28624e-13 -2.9257e-13 -2.06126e-13 0 0 -2.74756e-13 -2.65824e-13 -1.84088e-14 -3.8007e-13 0 0 -3.35427e-13 -3.86017e-13 1.9843e-13 -5.37699e-13 0 0 -7.42473e-14 -4.77719e-13 -4.75081e-14 -3.62393e-13 0 0 -1.33962e-13 -1.32293e-13 -5.1933e-13 -1.63549e-13 0 0 -2.19532e-13 -1.62294e-13 -2.11016e-13 -4.84335e-13 0 0 -3.48461e-13 -1.68498e-13 -8.78911e-14 -4.29207e-13 0 0 -3.64629e-13 -2.14003e-13 -1.36656e-13 -2.08521e-13 0 0 -1.02626e-13 -4.46814e-13 -7.5098e-14 -2.7117e-13 0 0 -2.58143e-13 -5.28985e-14 -6.06861e-13 3.97325e-14 0 0 -3.60588e-13 -1.19612e-13 -3.79024e-13 -1.37718e-13 0 0 -5.03166e-13 -1.64708e-13 -1.07737e-13 -2.95914e-13 0 0 -5.98681e-13 -1.84683e-13 -5.11256e-15 -1.97111e-13 0 0 -2.71329e-13 -3.35631e-13 -9.6552e-14 -3.384e-14 0 0 -2.22756e-13 -9.41664e-14 -5.64825e-13 1.18184e-13 0 0 -3.44671e-13 -2.50384e-13 -1.58214e-13 -4.13686e-13 0 0 -5.23067e-13 -2.31605e-13 -6.83341e-15 -5.17663e-13 0 0 -6.29791e-13 -2.30513e-13 1.03349e-14 -2.92799e-13 0 0 -3.15486e-13 -3.82642e-13 -2.93572e-14 -2.14681e-13 0 0 -2.33309e-13 -1.70106e-13 -4.37069e-13 2.17004e-14 0 0 -3.53807e-13 -2.59195e-13 -1.94402e-13 -2.55543e-13 0 0 -5.72665e-13 -7.68791e-14 -2.39575e-13 -3.9527e-13 0 0 -6.12992e-13 -8.301e-14 -1.27657e-13 -3.62514e-13 0 0 -2.43151e-13 -2.11327e-13 -2.45492e-13 -2.12011e-13 0 0 -2.13947e-13 1.45033e-13 -9.35894e-13 1.21728e-13 0 0 -3.71321e-13 -1.28833e-13 -5.4166e-13 -2.15853e-13 0 0 -3.6995e-13 -5.36588e-13 -2.86262e-13 -1.80066e-13 0 0 -3.03119e-13 -6.20368e-13 -3.69816e-13 3.02003e-14 0 0 -2.34811e-13 -5.22502e-13 -1.3864e-13 -2.62068e-13 0 0 -1.96872e-13 -2.87493e-14 -7.21002e-13 -1.39873e-13 0 0 -1.23275e-13 2.7722e-14 -7.97928e-13 -3.59265e-13 0 0 -3.85116e-13 -1.63008e-13 -1.72809e-13 -6.70188e-13 0 0 -6.5101e-13 -4.56777e-14 -3.05008e-13 -7.48464e-14 0 0 -2.90113e-13 -5.10709e-13 -6.56465e-14 1.61691e-13 0 0 -2.00189e-13 -4.46586e-13 -3.08152e-13 2.98582e-13 0 0 -3.54559e-13 -1.53817e-13 -6.10921e-13 4.54949e-13 0 0 -6.57755e-13 -9.15226e-14 -5.0162e-13 5.27744e-13 0 0 -7.22157e-13 -6.18657e-14 -7.97631e-13 9.74707e-13 0 0 -2.21406e-13 -7.46258e-13 -1.1795e-13 4.37032e-13 0 0 -3.27546e-13 -4.29077e-13 -1.15531e-13 -7.79884e-14 0 0 -3.56057e-13 -2.18802e-13 -2.6155e-13 -2.76635e-13 0 0 -4.51427e-13 -2.50326e-13 -1.86586e-13 -2.72857e-13 0 0 -7.35847e-13 -2.0582e-13 -1.81974e-13 -1.47669e-13 0 0 -3.4468e-13 -5.87696e-13 -2.19498e-13 -2.31361e-13 0 0 -5.51261e-14 -4.78705e-13 -9.25089e-13 -7.19316e-14 0 0 -2.34942e-13 -2.40175e-13 -1.00469e-12 -4.81243e-13 0 0 -7.82422e-13 2.53834e-13 -7.78073e-13 -7.62675e-13 0 0 -7.94337e-13 6.22252e-14 -2.81464e-13 -5.96131e-13 0 0 5.65933e-14 -7.20936e-13 -1.38198e-13 -2.82828e-13 0 0 3.89697e-13 -9.06714e-13 -4.98374e-13 -2.18837e-13 0 0 -2.18061e-13 -4.01312e-13 -6.5373e-13 -9.36047e-13 0 0 -9.70454e-13 2.56415e-13 -9.00981e-13 -1.37396e-12 0 0 -8.38051e-13 4.89563e-14 -1.07005e-12 -9.33802e-13 0 0 -1.52773e-13 -4.31975e-13 -1.11496e-12 -5.15262e-13 0 0 -8.67924e-14 -4.26882e-13 -7.87464e-13 -6.42043e-13 0 0 -2.2988e-13 -6.43267e-13 1.55371e-14 -1.18135e-12 0 0 -1.25889e-13 -8.68513e-13 -3.06406e-14 -1.05655e-12 0 0 -2.88547e-13 -5.77754e-13 -6.35726e-13 -7.25116e-13 0 0 -5.75114e-13 -1.96548e-13 -7.50354e-13 -1.16901e-12 0 0 -6.67e-13 2.31502e-13 -1.13073e-12 -1.09842e-12 0 0 -2.66181e-13 -3.13493e-13 -7.8023e-13 -8.17711e-13 0 0 7.07416e-15 -8.4158e-13 -4.56919e-13 -4.23948e-13 0 0 -3.65519e-13 -5.62913e-13 -5.22016e-13 -2.63743e-13 0 0 -6.66205e-13 -2.80113e-13 -4.19087e-13 -9.27423e-13 0 0 -7.03829e-13 1.42518e-13 -9.57291e-13 -1.10575e-12 0 0 -1.55113e-13 -5.7672e-13 -6.21642e-13 -8.96592e-13 0 0 1.52447e-13 -1.14083e-12 -3.25797e-13 -3.62013e-13 0 0 -2.93006e-13 -7.08728e-13 -5.29819e-13 -1.54273e-13 0 0 -5.44351e-13 -4.80601e-13 -2.16054e-13 -1.02663e-12 0 0 -5.94204e-13 -1.40931e-13 -5.62834e-13 -1.15292e-12 0 0 -1.31609e-13 -6.86064e-13 -4.99069e-13 -7.08449e-13 0 0 1.02981e-13 -1.06689e-12 -4.23228e-13 -1.23735e-13 0 0 -4.19202e-13 -5.45478e-13 -6.37525e-13 -2.4428e-14 0 0 -6.20144e-13 -3.30456e-13 -5.41912e-13 -7.7023e-13 0 0 -5.93554e-13 1.88085e-14 -1.15365e-12 -8.93581e-13 0 0 -1.59276e-13 -5.0761e-13 -9.92711e-13 -9.11597e-13 0 0 2.57225e-13 -1.08744e-12 -7.99543e-13 -2.58142e-13 0 0 -5.41572e-13 -3.34397e-13 -6.33965e-13 -2.60332e-13 0 0 -7.51691e-13 -5.14289e-13 5.99633e-13 -1.65325e-12 0 0 -4.07558e-13 -5.22095e-13 -2.57407e-13 -1.03302e-12 0 0 -7.71954e-14 -4.97422e-13 -1.35848e-12 -3.27032e-14 0 0 -4.23489e-13 -4.53004e-13 -1.02511e-12 -3.9784e-13 0 0 -1.33089e-12 4.66353e-13 -1.14384e-12 -5.6697e-13 0 0 -6.82314e-13 -1.16737e-13 -8.23498e-13 -4.96404e-13 0 0 -7.49725e-14 -4.74869e-13 -1.28792e-12 3.55866e-13 0 0 1.11549e-15 -9.17549e-13 -7.84078e-13 2.56012e-13 0 0 -5.55925e-13 -7.76608e-13 -2.60091e-13 -3.04455e-13 0 0 -1.27179e-12 1.84289e-13 -1.00871e-12 -1.47605e-14 0
				</DataArray>
				<DataArray Name="VitesseY" type="Float32" format="ascii">