<?xml version="1.0"?>
<VTKFile type="PolyData">
	<PolyData>
		<Piece NumberOfPoints="1206" NumberOfPolys="1000">
			<Points>
				<DataArray type="Float32" NumberOfComponents="3" format="ascii">
 0 0 0 0.02 0 0 0.04 0 0 0.06 0 0 0.08 0 0 0.1 0 0 0 0.005 0 0.02 0.005 0 0.04 0.005 0 0.06 0.005 0 0.08 0.005 0 0.1 0.005 0 0 0.01 0 0.02 0.01 0 0.04 0.01 0 0.06 0.01 0 0.08 0.01 0 0.1 0.01 0 0 0.015 0 0.02 0.015 0 0.04 0.015 0 0.06 0.015 0 0.08 0.015 0 0.1 0.015 0 0 0.02 0 0.02 0.02 0 0.04 0.02 0 0.06 0.02 0 0.08 0.02 0 0.1 0.02 0 0 0.025 0 0.02 0.025 0 0.04 0.025 0 0.06 0.025 0 0.08 0.025 0 0.1 0.025 0 0 0.03 0 0.02 0.03 0 0.04 0.03 0 0.06 0.03 0 0.08 0.03 0 0.1 0.03 0 0 0.035 0 0.02 0.035 0 0.04 0.035 0 0.06 0.035 0 0.08 0.035 0 0.1 0.035 0 0 0.04 0 0.02 0.04 0 0.04 0.04 0 0.06 0.04 0 0.08 0.04 0 0.1 0.04 0 0 0.045 0 0.02 0.045 0 0.04 0.045 0 0.06 0.045 0 0.08 0.045 0 0.1 0.045 0 0 0.05 0 0.02 0.05 0 0.04 0.05 0 0.06 0.05 0 0.08 0.05 0 0.1 0.05 0 0 0.055 0 0.02 0.055 0 0.04 0.055 0 0.06 0.055 0 0.08 0.055 0 0.1 0.055 0 0 0.06 0 0.02 0.06 0 0.04 0.06 0 0.06 0.06 0 0.08 0.06 0 0.1 0.06 0 0 0.065 0 0.02 0.065 0 0.04 0.065 0 0.06 0.065 0 0.08 0.065 0 0.1 0.065 0 0 0.07 0 0.02 0.07 0 0.04 0.07 0 0.06 0.07 0 0.08 0.07 0 0.1 0.07 0 0 0.075 0 0.02 0.075 0 0.04 0.075 0 0.06 0.075 0 0.08 0.075 0 0.1 0.075 0 0 0.08 0 0.02 0.08 0 0.04 0.08 0 0.06 0.08 0 0.08 0.08 0 0.1 0.08 0 0 0.085 0 0.02 0.085 0 0.04 0.085 0 0.06 0.085 0 0.08 0.085 0 0.1 0.085 0 0 0.09 0 0.02 0.09 0 0.04 0.09 0 0.06 0.09 0 0.08 0.09 0 0.1 0.09 0 0 0.095 0 0.02 0.095 0 0.04 0.095 0 0.06 0.095 0 0.08 0.095 0 0.1 0.095 0 0 0.1 0 0.02 0.1 0 0.04 0.1 0 0.06 0.1 0 0.08 0.1 0 0.1 0.1 0 0 0.105 0 0.02 0.105 0 0.04 0.105 0 0.06 0.105 0 0.08 0.105 0 0.1 0.105 0 0 0.11 0 0.02 0.11 0 0.04 0.11 0 0.06 0.11 0 0.08 0.11 0 0.1 0.11 0 0 0.115 0 0.02 0.115 0 0.04 0.115 0 0.06 0.115 0 0.08 0.115 0 0.1 0.115 0 0 0.12 0 0.02 0.12 0 0.04 0.12 0 0.06 0.12 0 0.08 0.12 0 0.1 0.12 0 0 0.125 0 0.02 0.125 0 0.04 0.125 0 0.06 0.125 0 0.08 0.125 0 0.1 0.125 0 0 0.13 0 0.02 0.13 0 0.04 0.13 0 0.06 0.13 0 0.08 0.13 0 0.1 0.13 0 0 0.135 0 0.02 0.135 0 0.04 0.135 0 0.06 0.135 0 0.08 0.135 0 0.1 0.135 0 0 0.14 0 0.02 0.14 0 0.04 0.14 0 0.06 0.14 0 0.08 0.14 0 0.1 0.14 0 0 0.145 0 0.02 0.145 0 0.04 0.145 0 0.06 0.145 0 0.08 0.145 0 0.1 0.145 0 0 0.15 0 0.02 0.15 0 0.04 0.15 0 0.06 0.15 0 0.08 0.15 0 0.1 0.15 0 0 0.155 0 0.02 0.155 0 0.04 0.155 0 0.06 0.155 0 0.08 0.155 0 0.1 0.155 0 0 0.16 0 0.02 0.16 0 0.04 0.16 0 0.06 0.16 0 0.08 0.16 0 0.1 0.16 0 0 0.165 0 0.02 0.165 0 0.04 0.165 0 0.06 0.165 0 0.08 0.165 0 0.1 0.165 0 0 0.17 0 0.02 0.17 0 0.04 0.17 0 0.06 0.17 0 0.08 0.17 0 0.1 0.17 0 0 0.175 0 0.02 0.175 0 0.04 0.175 0 0.06 0.175 0 0.08 0.175 0 0.1 0.175 0 0 0.18 0 0.02 0.18 0 0.04 0.18 0 0.06 0.18 0 0.08 0.18 0 0.1 0.18 0 0 0.185 0 0.02 0.185 0 0.04 0.185 0 0.06 0.185 0 0.08 0.185 0 0.1 0.185 0 0 0.19 0 0.02 0.19 0 0.04 0.19 0 0.06 0.19 0 0.08 0.19 0 0.1 0.19 0 0 0.195 0 0.02 0.195 0 0.04 0.195 0 0.06 0.195 0 0.08 0.195 0 0.1 0.195 0 0 0.2 0 0.02 0.2 0 0.04 0.2 0 0.06 0.2 0 0.08 0.2 0 0.1 0.2 0 0 0.205 0 0.02 0.205 0 0.04 0.205 0 0.06 0.205 0 0.08 0.205 0 0.1 0.205 0 0 0.21 0 0.02 0.21 0 0.04 0.21 0 0.06 0.21 0 0.08 0.21 0 0.1 0.21 0 0 0.215 0 0.02 0.215 0 0.04 0.215 0 0.06 0.215 0 0.08 0.215 0 0.1 0.215 0 0 0.22 0 0.02 0.22 0 0.04 0.22 0 0.06 0.22 0 0.08 0.22 0 0.1 0.22 0 0 0.225 0 0.02 0.225 0 0.04 0.225 0 0.06 0.225 0 0.08 0.225 0 0.1 0.225 0 0 0.23 0 0.02 0.23 0 0.04 0.23 0 0.06 0.23 0 0.08 0.23 0 0.1 0.23 0 0 0.235 0 0.02 0.235 0 0.04 0.235 0 0.06 0.235 0 0.08 0.235 0 0.1 0.235 0 0 0.24 0 0.02 0.24 0 0.04 0.24 0 0.06 0.24 0 0.08 0.24 0 0.1 0.24 0 0 0.245 0 0.02 0.245 0 0.04 0.245 0 0.06 0.245 0 0.08 0.245 0 0.1 0.245 0 0 0.25 0 0.02 0.25 0 0.04 0.25 0 0.06 0.25 0 0.08 0.25 0 0.1 0.25 0 0 0.255 0 0.02 0.255 0 0.04 0.255 0 0.06 0.255 0 0.08 0.255 0 0.1 0.255 0 0 0.26 0 0.02 0.26 0 0.04 0.26 0 0.06 0.26 0 0.08 0.26 0 0.1 0.26 0 0 0.265 0 0.02 0.265 0 0.04 0.265 0 0.06 0.265 0 0.08 0.265 0 0.1 0.265 0 0 0.27 0 0.02 0.27 0 0.04 0.27 0 0.06 0.27 0 0.08 0.27 0 0.1 0.27 0 0 0.275 0 0.02 0.275 0 0.04 0.275 0 0.06 0.275 0 0.08 0.275 0 0.1 0.275 0 0 0.28 0 0.02 0.28 0 0.04 0.28 0 0.06 0.28 0 0.08 0.28 0 0.1 0.28 0 0 0.285 0 0.02 0.285 0 0.04 0.285 0 0.06 0.285 0 0.08 0.285 0 0.1 0.285 0 0 0.29 0 0.02 0.29 0 0.04 0.29 0 0.06 0.29 0 0.08 0.29 0 0.1 0.29 0 0 0.295 0 0.02 0.295 0 0.04 0.295 0 0.06 0.295 0 0.08 0.295 0 0.1 0.295 0 0 0.3 0 0.02 0.3 0 0.04 0.3 0 0.06 0.3 0 0.08 0.3 0 0.1 0.3 0 0 0.305 0 0.02 0.305 0 0.04 0.305 0 0.06 0.305 0 0.08 0.305 0 0.1 0.305 0 0 0.31 0 0.02 0.31 0 0.04 0.31 0 0.06 0.31 0 0.08 0.31 0 0.1 0.31 0 0 0.315 0 0.02 0.315 0 0.04 0.315 0 0.06 0.315 0 0.08 0.315 0 0.1 0.315 0 0 0.32 0 0.02 0.32 0 0.04 0.32 0 0.06 0.32 0 0.08 0.32 0 0.1 0.32 0 0 0.325 0 0.02 0.325 0 0.04 0.325 0 0.06 0.325 0 0.08 0.325 0 0.1 0.325 0 0 0.33 0 0.02 0.33 0 0.04 0.33 0 0.06 0.33 0 0.08 0.33 0 0.1 0.33 0 0 0.335 0 0.02 0.335 0 0.04 0.335 0 0.06 0.335 0 0.08 0.335 0 0.1 0.335 0 0 0.34 0 0.02 0.34 0 0.04 0.34 0 0.06 0.34 0 0.08 0.34 0 0.1 0.34 0 0 0.345 0 0.02 0.345 0 0.04 0.345 0 0.06 0.345 0 0.08 0.345 0 0.1 0.345 0 0 0.35 0 0.02 0.35 0 0.04 0.35 0 0.06 0.35 0 0.08 0.35 0 0.1 0.35 0 0 0.355 0 0.02 0.355 0 0.04 0.355 0 0.06 0.355 0 0.08 0.355 0 0.1 0.355 0 0 0.36 0 0.02 0.36 0 0.04 0.36 0 0.06 0.36 0 0.08 0.36 0 0.1 0.36 0 0 0.365 0 0.02 0.365 0 0.04 0.365 0 0.06 0.365 0 0.08 0.365 0 0.1 0.365 0 0 0.37 0 0.02 0.37 0 0.04 0.37 0 0.06 0.37 0 0.08 0.37 0 0.1 0.37 0 0 0.375 0 0.02 0.375 0 0.04 0.375 0 0.06 0.375 0 0.08 0.375 0 0.1 0.375 0 0 0.38 0 0.02 0.38 0 0.04 0.38 0 0.06 0.38 0 0.08 0.38 0 0.1 0.38 0 0 0.385 0 0.02 0.385 0 0.04 0.385 0 0.06 0.385 0 0.08 0.385 0 0.1 0.385 0 0 0.39 0 0.02 0.39 0 0.04 0.39 0 0.06 0.39 0 0.08 0.39 0 0.1 0.39 0 0 0.395 0 0.02 0.395 0 0.04 0.395 0 0.06 0.395 0 0.08 0.395 0 0.1 0.395 0 0 0.4 0 0.02 0.4 0 0.04 0.4 0 0.06 0.4 0 0.08 0.4 0 0.1 0.4 0 0 0.405 0 0.02 0.405 0 0.04 0.405 0 0.06 0.405 0 0.08 0.405 0 0.1 0.405 0 0 0.41 0 0.02 0.41 0 0.04 0.41 0 0.06 0.41 0 0.08 0.41 0 0.1 0.41 0 0 0.415 0 0.02 0.415 0 0.04 0.415 0 0.06 0.415 0 0.08 0.415 0 0.1 0.415 0 0 0.42 0 0.02 0.42 0 0.04 0.42 0 0.06 0.42 0 0.08 0.42 0 0.1 0.42 0 0 0.425 0 0.02 0.425 0 0.04 0.425 0 0.06 0.425 0 0.08 0.425 0 0.1 0.425 0 0 0.43 0 0.02 0.43 0 0.04 0.43 0 0.06 0.43 0 0.08 0.43 0 0.1 0.43 0 0 0.435 0 0.02 0.435 0 0.04 0.435 0 0.06 0.435 0 0.08 0.435 0 0.1 0.435 0 0 0.44 0 0.02 0.44 0 0.04 0.44 0 0.06 0.44 0 0.08 0.44 0 0.1 0.44 0 0 0.445 0 0.02 0.445 0 0.04 0.445 0 0.06 0.445 0 0.08 0.445 0 0.1 0.445 0 0 0.45 0 0.02 0.45 0 0.04 0.45 0 0.06 0.45 0 0.08 0.45 0 0.1 0.45 0 0 0.455 0 0.02 0.455 0 0.04 0.455 0 0.06 0.455 0 0.08 0.455 0 0.1 0.455 0 0 0.46 0 0.02 0.46 0 0.04 0.46 0 0.06 0.46 0 0.08 0.46 0 0.1 0.46 0 0 0.465 0 0.02 0.465 0 0.04 0.465 0 0.06 0.465 0 0.08 0.465 0 0.1 0.465 0 0 0.47 0 0.02 0.47 0 0.04 0.47 0 0.06 0.47 0 0.08 0.47 0 0.1 0.47 0 0 0.475 0 0.02 0.475 0 0.04 0.475 0 0.06 0.475 0 0.08 0.475 0 0.1 0.475 0 0 0.48 0 0.02 0.48 0 0.04 0.48 0 0.06 0.48 0 0.08 0.48 0 0.1 0.48 0 0 0.485 0 0.02 0.485 0 0.04 0.485 0 0.06 0.485 0 0.08 0.485 0 0.1 0.485 0 0 0.49 0 0.02 0.49 0 0.04 0.49 0 0.06 0.49 0 0.08 0.49 0 0.1 0.49 0 0 0.495 0 0.02 0.495 0 0.04 0.495 0 0.06 0.495 0 0.08 0.495 0 0.1 0.495 0 0 0.5 0 0.02 0.5 0 0.04 0.5 0 0.06 0.5 0 0.08 0.5 0 0.1 0.5 0 0 0.505 0 0.02 0.505 0 0.04 0.505 0 0.06 0.505 0 0.08 0.505 0 0.1 0.505 0 0 0.51 0 0.02 0.51 0 0.04 0.51 0 0.06 0.51 0 0.08 0.51 0 0.1 0.51 0 0 0.515 0 0.02 0.515 0 0.04 0.515 0 0.06 0.515 0 0.08 0.515 0 0.1 0.515 0 0 0.52 0 0.02 0.52 0 0.04 0.52 0 0.06 0.52 0 0.08 0.52 0 0.1 0.52 0 0 0.525 0 0.02 0.525 0 0.04 0.525 0 0.06 0.525 0 0.08 0.525 0 0.1 0.525 0 0 0.53 0 0.02 0.53 0 0.04 0.53 0 0.06 0.53 0 0.08 0.53 0 0.1 0.53 0 0 0.535 0 0.02 0.535 0 0.04 0.535 0 0.06 0.535 0 0.08 0.535 0 0.1 0.535 0 0 0.54 0 0.02 0.54 0 0.04 0.54 0 0.06 0.54 0 0.08 0.54 0 0.1 0.54 0 0 0.545 0 0.02 0.545 0 0.04 0.545 0 0.06 0.545 0 0.08 0.545 0 0.1 0.545 0 0 0.55 0 0.02 0.55 0 0.04 0.55 0 0.06 0.55 0 0.08 0.55 0 0.1 0.55 0 0 0.555 0 0.02 0.555 0 0.04 0.555 0 0.06 0.555 0 0.08 0.555 0 0.1 0.555 0 0 0.56 0 0.02 0.56 0 0.04 0.56 0 0.06 0.56 0 0.08 0.56 0 0.1 0.56 0 0 0.565 0 0.02 0.565 0 0.04 0.565 0 0.06 0.565 0 0.08 0.565 0 0.1 0.565 0 0 0.57 0 0.02 0.57 0 0.04 0.57 0 0.06 0.57 0 0.08 0.57 0 0.1 0.57 0 0 0.575 0 0.02 0.575 0 0.04 0.575 0 0.06 0.575 0 0.08 0.575 0 0.1 0.575 0 0 0.58 0 0.02 0.58 0 0.04 0.58 0 0.06 0.58 0 0.08 0.58 0 0.1 0.58 0 0 0.585 0 0.02 0.585 0 0.04 0.585 0 0.06 0.585 0 0.08 0.585 0 0.1 0.585 0 0 0.59 0 0.02 0.59 0 0.04 0.59 0 0.06 0.59 0 0.08 0.59 0 0.1 0.59 0 0 0.595 0 0.02 0.595 0 0.04 0.595 0 0.06 0.595 0 0.08 0.595 0 0.1 0.595 0 0 0.6 0 0.02 0.6 0 0.04 0.6 0 0.06 0.6 0 0.08 0.6 0 0.1 0.6 0 0 0.605 0 0.02 0.605 0 0.04 0.605 0 0.06 0.605 0 0.08 0.605 0 0.1 0.605 0 0 0.61 0 0.02 0.61 0 0.04 0.61 0 0.06 0.61 0 0.08 0.61 0 0.1 0.61 0 0 0.615 0 0.02 0.615 0 0.04 0.615 0 0.06 0.615 0 0.08 0.615 0 0.1 0.615 0 0 0.62 0 0.02 0.62 0 0.04 0.62 0 0.06 0.62 0 0.08 0.62 0 0.1 0.62 0 0 0.625 0 0.02 0.625 0 0.04 0.625 0 0.06 0.625 0 0.08 0.625 0 0.1 0.625 0 0 0.63 0 0.02 0.63 0 0.04 0.63 0 0.06 0.63 0 0.08 0.63 0 0.1 0.63 0 0 0.635 0 0.02 0.635 0 0.04 0.635 0 0.06 0.635 0 0.08 0.635 0 0.1 0.635 0 0 0.64 0 0.02 0.64 0 0.04 0.64 0 0.06 0.64 0 0.08 0.64 0 0.1 0.64 0 0 0.645 0 0.02 0.645 0 0.04 0.645 0 0.06 0.645 0 0.08 0.645 0 0.1 0.645 0 0 0.65 0 0.02 0.65 0 0.04 0.65 0 0.06 0.65 0 0.08 0.65 0 0.1 0.65 0 0 0.655 0 0.02 0.655 0 0.04 0.655 0 0.06 0.655 0 0.08 0.655 0 0.1 0.655 0 0 0.66 0 0.02 0.66 0 0.04 0.66 0 0.06 0.66 0 0.08 0.66 0 0.1 0.66 0 0 0.665 0 0.02 0.665 0 0.04 0.665 0 0.06 0.665 0 0.08 0.665 0 0.1 0.665 0 0 0.67 0 0.02 0.67 0 0.04 0.67 0 0.06 0.67 0 0.08 0.67 0 0.1 0.67 0 0 0.675 0 0.02 0.675 0 0.04 0.675 0 0.06 0.675 0 0.08 0.675 0 0.1 0.675 0 0 0.68 0 0.02 0.68 0 0.04 0.68 0 0.06 0.68 0 0.08 0.68 0 0.1 0.68 0 0 0.685 0 0.02 0.685 0 0.04 0.685 0 0.06 0.685 0 0.08 0.685 0 0.1 0.685 0 0 0.69 0 0.02 0.69 0 0.04 0.69 0 0.06 0.69 0 0.08 0.69 0 0.1 
[...]
			<PointData Scalars="VitesseX">
				<DataArray Name="VitesseX" type="Float32" format="ascii">
 0 1.24218e-15 -1.66671e-14 6.6781e-15 -2.0335e-14 0 0 4.34474e-16 -1.76398e-14 7.15451e-15 -1.90078e-14 0 0 -1.50481e-15 -1.2071e-14 -3.47867e-15 -9.34187e-15 0 0 2.80627e-15 -1.48818e-14 -4.25198e-15 -8.59249e-15 0 0 1.50209e-15 -1.0899e-14 -1.21781e-14 -2.63928e-15 0 0 -1.34645e-14 1.69966e-14 -4.77651e-14 1.80103e-14 0 0 -5.93358e-15 7.81679e-15 -4.32318e-14 1.17035e-14 0 0 7.09004e-15 -5.46775e-15 -3.99985e-14 9.78949e-15 0 0 9.59353e-15 -1.30683e-14 -2.07169e-14 -1.45553e-14 0 0 -3.83112e-15 -4.78332e-15 -1.2039e-14 -2.42566e-14 0 0 -1.32695e-14 2.87592e-15 -1.3882e-14 -2.41825e-14 0 0 2.83341e-15 -2.86786e-14 2.01277e-14 -5.48369e-14 0 0 1.02881e-14 -4.42123e-14 2.60919e-14 -5.57319e-14 0 0 -7.76993e-15 -1.78321e-14 -3.8112e-15 -3.11439e-14 0 0 -4.85402e-15 -1.95337e-14 -1.51899e-14 -1.02093e-14 0 0 5.82246e-15 -3.62413e-14 -3.54523e-15 -1.93639e-14 0 0 -2.35459e-15 -2.354e-14 -1.37296e-14 -3.05804e-14 0 0 -1.06327e-16 -4.37544e-14 6.6636e-15 -5.58882e-14 0 0 1.34999e-14 -7.69761e-14 2.54096e-14 -6.32252e-14 0 0 1.80573e-15 -4.10289e-14 -4.76576e-14 -7.85757e-16 0 0 -2.17658e-14 5.02932e-15 -9.54883e-14 2.68969e-14 0 0 -1.58604e-14 -1.43852e-14 -3.1537e-14 -2.76834e-14 0 0 -2.07319e-14 -3.52934e-14 3.55783e-14 -7.69344e-14 0 0 -3.34721e-14 -2.30655e-14 1.47391e-14 -4.15073e-14 0 0 -2.74154e-14 -3.31836e-14 8.9394e-15 -2.51427e-14 0 0 1.27233e-14 -9.33235e-14 6.29783e-14 -6.58616e-14 0 0 2.80103e-16 -8.81257e-14 4.53631e-14 -4.22188e-14 0 0 -7.93823e-15 -6.8655e-14 5.37228e-15 -2.73292e-14 0 0 -2.32386e-14 -1.36737e-14 -8.3524e-14 2.2373e-14 0 0 -3.77836e-14 -2.37599e-14 -6.4262e-14 2.69296e-14 0 0 -3.41928e-14 -5.67882e-14 -1.51734e-14 9.11681e-16 0 0 -3.06047e-14 -8.08494e-14 3.24299e-14 -5.67973e-14 0 0 -4.28223e-14 -5.65314e-14 1.61869e-14 -6.43404e-14 0 0 -4.23823e-14 -2.01172e-14 -6.33051e-14 1.5077e-14 0 0 -2.00128e-14 -3.1496e-14 -6.57527e-14 2.41147e-14 0 0 -1.73052e-14 -4.64124e-14 2.38275e-14 -8.80329e-14 0 0 -2.2917e-14 -1.74242e-14 2.30083e-14 -1.17064e-13 0 0 -1.07123e-14 2.3948e-15 -4.34504e-14 -5.12741e-14 0 0 2.09484e-14 -3.94567e-14 1.13223e-14 -1.00586e-13 0 0 -5.80956e-15 1.60393e-14 -2.62308e-14 -9.51586e-14 0 0 1.48478e-14 -3.68086e-14 5.40407e-14 -1.50536e-13 0 0 3.12415e-14 -5.55077e-14 4.84006e-14 -8.73067e-14 0 0 4.47998e-14 -1.83156e-14 -3.89223e-14 1.97514e-14 0 0 4.26379e-14 2.29733e-15 -5.74995e-14 2.9439e-14 0 0 3.37403e-14 -3.74611e-14 -4.38187e-15 2.20054e-14 0 0 3.056e-14 -6.85891e-14 3.14849e-14 8.30479e-15 0 0 -1.58589e-14 -3.05154e-14 4.04587e-14 -2.19388e-14 0 0 2.28709e-15 -7.05908e-14 7.70372e-14 -7.47057e-14 0 0 -2.25063e-14 2.43336e-14 -6.40928e-14 -8.09644e-15 0 0 -1.03724e-13 1.68037e-13 -1.63026e-13 2.72658e-14 0 0 -1.58388e-13 2.43232e-13 -1.6344e-13 1.13052e-14 0 0 -1.21431e-13 1.87344e-13 -8.19865e-14 -2.52903e-15 0 0 -9.60453e-14 9.10549e-14 1.95423e-14 -1.73252e-14 0 0 -1.03985e-13 1.23788e-13 -4.70723e-14 5.2762e-14 0 0 5.40351e-14 -5.04589e-14 2.31328e-14 5.63433e-14 0 0 6.65758e-14 -3.40436e-14 -7.11615e-14 1.11261e-13 0 0 -1.02911e-13 1.37558e-13 -1.75871e-13 7.69223e-14 0 0 -7.70717e-14 3.47405e-14 1.21258e-14 -1.89487e-13 0 0 -2.89082e-14 5.11569e-14 -3.50831e-14 -2.0724e-13 0 0 5.82355e-14 -7.1793e-16 -4.24972e-14 -1.56199e-13 0 0 1.07893e-13 -7.53134e-14 1.63277e-14 -1.62766e-13 0 0 -2.74757e-14 6.76795e-14 -1.44622e-13 -1.7355e-14 0 0 9.43438e-15 -9.43801e-15 -1.81657e-13 3.35219e-14 0 0 7.5064e-14 -9.46274e-15 -3.14557e-13 6.75051e-14 0 0 1.49025e-13 2.81065e-14 -3.91483e-13 2.39698e-14 0 0 2.14491e-13 -2.3068e-14 -2.85165e-13 -1.01221e-13 0 0 1.457e-13 9.26449e-14 -3.17533e-13 -9.7702e-14 0 0 1.91497e-13 -3.90415e-15 -1.59905e-13 -1.56244e-13 0 0 1.49657e-13 -6.49906e-14 -1.99314e-14 -2.58422e-13 0 0 -4.11772e-14 9.05966e-14 -7.19933e-14 -2.8344e-13 0 0 -1.16575e-14 1.00437e-13 -3.56612e-14 -3.81183e-13 0 0 -3.44491e-14 1.90667e-13 -2.02949e-13 -3.17892e-13 0 0 -3.47905e-14 1.75479e-13 -2.90207e-13 -3.04345e-13 0 0 7.54046e-16 4.34464e-14 -1.30636e-13 -4.9808e-13 0 0 -9.32897e-14 8.76171e-14 -1.33718e-13 -4.87851e-13 0 0 -1.88907e-13 1.09476e-13 -1.73024e-13 -3.54726e-13 0 0 -2.12466e-13 8.49281e-14 -2.24297e-13 -9.71216e-14 0 0 -1.79862e-13 -5.29307e-14 -1.84534e-13 6.50184e-14 0 0 -1.3733e-13 -1.93537e-13 -7.51648e-14 1.7759e-13 0 0 -1.52352e-13 -1.95716e-13 -3.75983e-14 1.03239e-13 0 0 -2.60221e-13 -8.73894e-14 -9.0607e-14 2.4613e-14 0 0 -4.37573e-13 3.69482e-14 -1.36327e-13 -4.35678e-14 0 0 -4.44726e-13 4.22214e-14 -1.18405e-13 -1.07527e-13 0 0 -3.91306e-13 -1.84227e-14 -5.99409e-14 -1.67097e-13 0 0 -3.02162e-13 -1.5224e-13 2.20324e-14 -2.17671e-13 0 0 -2.15123e-13 -2.8846e-13 1.06481e-14 -2.00685e-13 0 0 -1.32756e-13 -3.19669e-13 -6.65814e-14 -1.50752e-13 0 0 -6.39525e-14 -3.07167e-13 -1.80238e-13 -6.58028e-14 0 0 -5.99146e-14 -2.7528e-13 -3.05136e-13 6.47358e-14 0 0 -6.67282e-14 -2.55038e-13 -3.62861e-13 4.77643e-14 0 0 -9.55614e-14 -2.43708e-13 -3.39729e-13 -1.12453e-14 0 0 -1.69484e-13 -2.15621e-13 -3.01122e-13 -1.3505e-13 0 0 -2.5045e-13 -1.65332e-13 -2.69946e-13 -2.68056e-13 0 0 -3.27556e-13 -1.25092e-13 -2.36884e-13 -3.87488e-13 0 0 -3.92286e-13 -1.16842e-13 -1.78133e-13 -5.09803e-13 0 0 -4.04624e-13 -1.09605e-13 -1.78764e-13 -5.24315e-13 0 0 -3.9608e-13 -1.16164e-13 -1.88807e-13 -5.04591e-13 0 0 -3.87382e-13 -1.28074e-13 -2.24422e-13 -4.24584e-13 0 0 -4.06146e-13 -1.12278e-13 -2.82851e-13 -3.12709e-13 0 0 -4.65959e-13 -7.8405e-14 -3.51742e-13 -2.07791e-13 0 0 -4.66477e-13 -8.62749e-14 -3.96798e-13 -1.2133e-13 0 0 -4.60132e-13 -1.15734e-13 -3.9363e-13 -7.66828e-14 0 0 -4.44065e-13 -1.96221e-13 -3.60818e-13 -5.21048e-14 0 0 -3.98844e-13 -2.89281e-13 -2.87884e-13 -5.46527e-14 0 0 -3.13037e-13 -3.68103e-13 -1.83389e-13 -9.51573e-14 0 0 -2.15145e-13 -5.21005e-13 -2.8941e-14 -1.75252e-13 0 0 -1.08058e-13 -5.38191e-13 5.50062e-15 -1.95278e-13 0 0 -1.16505e-13 -4.83978e-13 -6.32718e-14 -1.31293e-13 0 0 -1.49905e-13 -3.2577e-13 -2.26703e-13 7.74409e-14 0 0 -1.38224e-13 -2.54152e-13 -3.09695e-13 2.48847e-13 0 0 -5.81531e-14 -2.47757e-13 -3.0433e-13 2.69675e-13 0 0 3.78838e-14 -2.60131e-13 -2.38744e-13 2.34484e-13 0 0 3.27896e-14 -2.0914e-13 -1.90579e-13 1.87425e-13 0 0 4.88585e-15 -1.16581e-13 -1.3824e-13 1.71378e-13 0 0 -5.75434e-14 -5.2521e-14 -1.73266e-14 7.32149e-14 0 0 -1.20511e-13 -4.35194e-14 3.42953e-14 -1.3253e-14 0 0 -1.19957e-13 -6.82193e-14 5.56508e-14 -4.10712e-14 0 0 -1.1511e-13 -6.84631e-14 7.02466e-15 2.28939e-14 0 0 -9.01096e-14 -9.12002e-14 -2.44454e-14 4.79066e-14 0 0 -3.89073e-14 -1.49822e-13 -5.85436e-15 9.18643e-14 0 0 -1.25451e-15 -1.70703e-13 9.10364e-15 1.25165e-13 0 0 6.49646e-14 -1.85213e-13 8.05381e-14 1.06917e-13 0 0 1.21306e-13 -1.904e-13 1.3969e-13 6.80416e-14 0 0 1.11189e-13 -1.49812e-13 1.25731e-13 7.02384e-14 0 0 5.85412e-14 4.31229e-14 -1.1328e-14 1.19167e-13 0 0 -2.48462e-14 2.94022e-13 -2.04506e-13 2.20299e-13 0 0 -4.53395e-14 3.09102e-13 -2.1981e-13 2.53285e-13 0 0 -2.02101e-14 2.25999e-13 -9.60251e-14 1.61568e-13 0 0 2.74284e-14 -6.88669e-14 2.47397e-13 -6.3234e-14 0 0 3.82318e-14 -2.7468e-13 3.24206e-13 -8.05595e-14 0 0 -4.59711e-14 -1.72038e-13 1.60473e-13 -2.73121e-14 0 0 -1.0337e-13 -1.16353e-13 -3.06703e-14 5.08713e-14 0 0 -8.34361e-14 -1.96886e-13 3.96963e-14 1.10121e-14 0 0 -7.39295e-14 -1.67186e-13 -2.53902e-14 4.6953e-16 0 0 -7.60386e-14 -1.00838e-13 -9.85064e-14 2.67942e-15 0 0 -1.01729e-13 -2.92648e-14 -1.05425e-13 -1.1754e-13 0 0 -9.33637e-14 -2.12091e-14 -1.2012e-13 -1.91731e-13 0 0 -7.96839e-14 -5.9047e-14 -1.15101e-13 -1.95423e-13 0 0 -6.3505e-14 -1.07809e-13 -1.34104e-13 -1.4069e-13 0 0 -6.10336e-14 -1.28802e-13 -1.3127e-13 -1.60135e-13 0 0 -8.90232e-14 -9.74428e-14 -1.34776e-13 -1.64178e-13 0 0 -1.41224e-13 -7.43472e-14 -1.2051e-13 -1.52764e-13 0 0 -1.61908e-13 -7.98223e-14 -8.77035e-14 -2.3952e-13 0 0 -1.48027e-13 -1.05627e-13 -7.58773e-14 -2.3509e-13 0 0 -9.00266e-14 -2.16867e-13 -5.42866e-14 -1.44897e-13 0 0 -6.93843e-14 -2.1664e-13 -1.27026e-13 -7.05749e-14 0 0 -7.56809e-14 -1.63337e-13 -2.9035e-13 -8.55173e-14 0 0 -6.58667e-14 -1.76524e-13 -3.06211e-13 -1.95109e-13 0 0 -4.95905e-14 -1.87967e-13 -2.96617e-13 -3.74383e-13 0 0 -3.5828e-14 -1.12521e-13 -4.33651e-13 -3.5519e-13 0 0 1.49781e-14 -1.03665e-13 -5.01502e-13 -3.21875e-13 0 0 5.5814e-14 -1.8022e-13 -2.86753e-13 -3.41442e-13 0 0 4.16495e-14 -1.5715e-13 -1.52424e-13 -3.06783e-14 0 0 1.70263e-15 -8.07211e-14 -1.49112e-13 3.55072e-13 0 0 -4.9995e-14 -2.71664e-14 -1.94051e-13 4.15397e-13 0 0 -8.2726e-14 -7.90247e-14 -1.67693e-14 7.88196e-14 0 0 -6.244e-14 -7.55355e-14 3.92567e-14 -7.44035e-14 0 0 -5.4183e-15 -8.11715e-14 -2.42499e-14 -1.34654e-14 0 0 -2.30646e-14 -2.71267e-14 -7.57302e-14 4.35021e-15 0 0 -2.72368e-14 1.67416e-14 -1.331e-13 7.34551e-14 0 0 -7.36804e-14 1.85519e-14 -1.10643e-14 -8.19928e-14 0 0 -1.58446e-13 5.57033e-14 8.46444e-14 -2.02156e-13 0 0 -1.93598e-13 1.11927e-13 -1.67455e-14 -5.47586e-14 0 0 -1.85191e-13 8.02404e-14 4.95823e-14 -1.72628e-13 0 0 -1.14798e-13 -4.68024e-14 1.52559e-13 -2.30468e-13 0 0 -1.17004e-13 -3.47612e-14 9.24939e-14 -6.61903e-14 0 0 -5.33334e-14 -2.18322e-13 3.62796e-13 -1.75766e-13 0 0 -3.69403e-14 -2.35232e-13 3.56617e-13 -1.7347e-13 0 0 -9.30765e-14 -9.98572e-14 1.16229e-13 4.76675e-14 0 0 -9.04633e-14 -1.05499e-13 8.67273e-14 1.85347e-13 0 0 -5.3803e-14 -1.2444e-13 9.10769e-14 2.32199e-13 0 0 -1.17772e-13 1.96022e-14 -2.44306e-14 2.66526e-13 0 0 -1.75187e-13 1.02213e-13 8.31826e-15 2.05753e-13 0 0 -1.61997e-13 7.50712e-14 1.32664e-13 9.81763e-14 0 0 -1.04954e-13 5.38046e-14 1.84747e-13 3.444e-14 0 0 -9.60452e-14 1.19925e-13 1.10063e-13 1.19921e-13 0 0 -4.23128e-15 8.15571e-14 9.98852e-14 1.40435e-13 0 0 7.27432e-14 7.98565e-14 9.86473e-14 1.16646e-13 0 0 -9.23505e-15 2.671e-13 -1.4337e-14 1.69856e-13 0 0 4.2619e-14 1.81838e-13 1.8445e-13 4.00638e-14 0 0 4.86097e-14 1.53541e-13 3.58985e-13 -5.94775e-14 0 0 -1.6744e-14 2.30689e-13 3.54545e-13 -9.05036e-14 0 0 -6.98839e-14 3.08939e-13 2.1941e-13 -4.17702e-14 0 0 -6.9677e-14 3.03024e-13 2.28758e-13 -1.497e-13 0 0 6.15107e-15 1.71703e-13 3.41118e-13 -2.87202e-13 0 0 -1.27789e-13 2.81161e-13 1.80427e-13 -2.61444e-14 0 0 -7.62531e-14 1.62688e-13 2.40051e-13 1.0291e-13 0 0 1.9651e-13 5.36677e-14 9.71686e-14 2.40284e-13 0 0 5.44551e-14 3.87423e-13 -2.07024e-13 3.52437e-13 0 0 1.08438e-14 3.00667e-13 7.89845e-14 3.09303e-14 0 0 3.32527e-13 -2.04638e-13 4.49077e-13 -2.07785e-13 0 0 1.24396e-13 5.69959e-14 2.09498e-13 -1.53899e-13 0 0 7.81227e-14 7.60282e-14 1.46841e-13 -1.5802e-13 0 0 1.8831e-13 -1.11721e-13 9.58334e-14 2.0974e-14 0 0 2.26198e-14 1.50363e-13 -1.02153e-13 1.22652e-13 0 0 1.0842e-13 1.51975e-13 -2.14743e-13 2.14887e-13 0 0 5.97317e-14 2.64431e-13 -3.7728e-13 2.84808e-13 0 0 3.17764e-13 -1.97507e-13 7.86431e-14 -4.76048e-14 0 0 4.19248e-13 -4.56572e-13 1.69852e-13 3.54431e-14 0 0 3.03707e-13 -3.48647e-13 -6.8751e-14 3.25686e-13 0 0 4.21181e-13 -5.173e-13 -2.78553e-14 3.65417e-13 0
				</DataArray>
				<DataArray Name="VitesseY" type="Float32" format="ascii">