<?xml version="1.0"?>
<VTKFile type="PolyData">
	<PolyData>
		<Piece NumberOfPoints="1206" NumberOfPolys="1000">
			<Points>
				<DataArray type="Float32" NumberOfComponents="3" format="ascii">
 0 0 0 0.02 0 0 0.04 0 0 0.06 0 0 0.08 0 0 0.1 0 0 0 0.005 0 0.02 0.005 0 0.04 0.005 0 0.06 0.005 0 0.08 0.005 0 0.1 0.005 0 0 0.01 0 0.02 0.01 0 0.04 0.01 0 0.06 0.01 0 0.08 0.01 0 0.1 0.01 0 0 0.015 0 0.02 0.015 0 0.04 0.015 0 0.06 0.015 0 0.08 0.015 0 0.1 0.015 0 0 0.02 0 0.02 0.02 0 0.04 0.02 0 0.06 0.02 0 0.08 0.02 0 0.1 0.02 0 0 0.025 0 0.02 0.025 0 0.04 0.025 0 0.06 0.025 0 0.08 0.025 0 0.1 0.025 0 0 0.03 0 0.02 0.03 0 0.04 0.03 0 0.06 0.03 0 0.08 0.03 0 0.1 0.03 0 0 0.035 0 0.02 0.035 0 0.04 0.035 0 0.06 0.035 0 0.08 0.035 0 0.1 0.035 0 0 0.04 0 0.02 0.04 0 0.04 0.04 0 0.06 0.04 0 0.08 0.04 0 0.1 0.04 0 0 0.045 0 0.02 0.045 0 0.04 0.045 0 0.06 0.045 0 0.08 0.045 0 0.1 0.045 0 0 0.05 0 0.02 0.05 0 0.04 0.05 0 0.06 0.05 0 0.08 0.05 0 0.1 0.05 0 0 0.055 0 0.02 0.055 0 0.04 0.055 0 0.06 0.055 0 0.08 0.055 0 0.1 0.055 0 0 0.06 0 0.02 0.06 0 0.04 0.06 0 0.06 0.06 0 0.08 0.06 0 0.1 0.06 0 0 0.065 0 0.02 0.065 0 0.04 0.065 0 0.06 0.065 0 0.08 0.065 0 0.1 0.065 0 0 0.07 0 0.02 0.07 0 0.04 0.07 0 0.06 0.07 0 0.08 0.07 0 0.1 0.07 0 0 0.075 0 0.02 0.075 0 0.04 0.075 0 0.06 0.075 0 0.08 0.075 0 0.1 0.075 0 0 0.08 0 0.02 0.08 0 0.04 0.08 0 0.06 0.08 0 0.08 0.08 0 0.1 0.08 0 0 0.085 0 0.02 0.085 0 0.04 0.085 0 0.06 0.085 0 0.08 0.085 0 0.1 0.085 0 0 0.09 0 0.02 0.09 0 0.04 0.09 0 0.06 0.09 0 0.08 0.09 0 0.1 0.09 0 0 0.095 0 0.02 0.095 0 0.04 0.095 0 0.06 0.095 0 0.08 0.095 0 0.1 0.095 0 0 0.1 0 0.02 0.1 0 0.04 0.1 0 0.06 0.1 0 0.08 0.1 0 0.1 0.1 0 0 0.105 0 0.02 0.105 0 0.04 0.105 0 0.06 0.105 0 0.08 0.105 0 0.1 0.105 0 0 0.11 0 0.02 0.11 0 0.04 0.11 0 0.06 0.11 0 0.08 0.11 0 0.1 0.11 0 0 0.115 0 0.02 0.115 0 0.04 0.115 0 0.06 0.115 0 0.08 0.115 0 0.1 0.115 0 0 0.12 0 0.02 0.12 0 0.04 0.12 0 0.06 0.12 0 0.08 0.12 0 0.1 0.12 0 0 0.125 0 0.02 0.125 0 0.04 0.125 0 0.06 0.125 0 0.08 0.125 0 0.1 0.125 0 0 0.13 0 0.02 0.13 0 0.04 0.13 0 0.06 0.13 0 0.08 0.13 0 0.1 0.13 0 0 0.135 0 0.02 0.135 0 0.04 0.135 0 0.06 0.135 0 0.08 0.135 0 0.1 0.135 0 0 0.14 0 0.02 0.14 0 0.04 0.14 0 0.06 0.14 0 0.08 0.14 0 0.1 0.14 0 0 0.145 0 0.02 0.145 0 0.04 0.145 0 0.06 0.145 0 0.08 0.145 0 0.1 0.145 0 0 0.15 0 0.02 0.15 0 0.04 0.15 0 0.06 0.15 0 0.08 0.15 0 0.1 0.15 0 0 0.155 0 0.02 0.155 0 0.04 0.155 0 0.06 0.155 0 0.08 0.155 0 0.1 0.155 0 0 0.16 0 0.02 0.16 0 0.04 0.16 0 0.06 0.16 0 0.08 0.16 0 0.1 0.16 0 0 0.165 0 0.02 0.165 0 0.04 0.165 0 0.06 0.165 0 0.08 0.165 0 0.1 0.165 0 0 0.17 0 0.02 0.17 0 0.04 0.17 0 0.06 0.17 0 0.08 0.17 0 0.1 0.17 0 0 0.175 0 0.02 0.175 0 0.04 0.175 0 0.06 0.175 0 0.08 0.175 0 0.1 0.175 0 0 0.18 0 0.02 0.18 0 0.04 0.18 0 0.06 0.18 0 0.08 0.18 0 0.1 0.18 0 0 0.185 0 0.02 0.185 0 0.04 0.185 0 0.06 0.185 0 0.08 0.185 0 0.1 0.185 0 0 0.19 0 0.02 0.19 0 0.04 0.19 0 0.06 0.19 0 0.08 0.19 0 0.1 0.19 0 0 0.195 0 0.02 0.195 0 0.04 0.195 0 0.06 0.195 0 0.08 0.195 0 0.1 0.195 0 0 0.2 0 0.02 0.2 0 0.04 0.2 0 0.06 0.2 0 0.08 0.2 0 0.1 0.2 0 0 0.205 0 0.02 0.205 0 0.04 0.205 0 0.06 0.205 0 0.08 0.205 0 0.1 0.205 0 0 0.21 0 0.02 0.21 0 0.04 0.21 0 0.06 0.21 0 0.08 0.21 0 0.1 0.21 0 0 0.215 0 0.02 0.215 0 0.04 0.215 0 0.06 0.215 0 0.08 0.215 0 0.1 0.215 0 0 0.22 0 0.02 0.22 0 0.04 0.22 0 0.06 0.22 0 0.08 0.22 0 0.1 0.22 0 0 0.225 0 0.02 0.225 0 0.04 0.225 0 0.06 0.225 0 0.08 0.225 0 0.1 0.225 0 0 0.23 0 0.02 0.23 0 0.04 0.23 0 0.06 0.23 0 0.08 0.23 0 0.1 0.23 0 0 0.235 0 0.02 0.235 0 0.04 0.235 0 0.06 0.235 0 0.08 0.235 0 0.1 0.235 0 0 0.24 0 0.02 0.24 0 0.04 0.24 0 0.06 0.24 0 0.08 0.24 0 0.1 0.24 0 0 0.245 0 0.02 0.245 0 0.04 0.245 0 0.06 0.245 0 0.08 0.245 0 0.1 0.245 0 0 0.25 0 0.02 0.25 0 0.04 0.25 0 0.06 0.25 0 0.08 0.25 0 0.1 0.25 0 0 0.255 0 0.02 0.255 0 0.04 0.255 0 0.06 0.255 0 0.08 0.255 0 0.1 0.255 0 0 0.26 0 0.02 0.26 0 0.04 0.26 0 0.06 0.26 0 0.08 0.26 0 0.1 0.26 0 0 0.265 0 0.02 0.265 0 0.04 0.265 0 0.06 0.265 0 0.08 0.265 0 0.1 0.265 0 0 0.27 0 0.02 0.27 0 0.04 0.27 0 0.06 0.27 0 0.08 0.27 0 0.1 0.27 0 0 0.275 0 0.02 0.275 0 0.04 0.275 0 0.06 0.275 0 0.08 0.275 0 0.1 0.275 0 0 0.28 0 0.02 0.28 0 0.04 0.28 0 0.06 0.28 0 0.08 0.28 0 0.1 0.28 0 0 0.285 0 0.02 0.285 0 0.04 0.285 0 0.06 0.285 0 0.08 0.285 0 0.1 0.285 0 0 0.29 0 0.02 0.29 0 0.04 0.29 0 0.06 0.29 0 0.08 0.29 0 0.1 0.29 0 0 0.295 0 0.02 0.295 0 0.04 0.295 0 0.06 0.295 0 0.08 0.295 0 0.1 0.295 0 0 0.3 0 0.02 0.3 0 0.04 0.3 0 0.06 0.3 0 0.08 0.3 0 0.1 0.3 0 0 0.305 0 0.02 0.305 0 0.04 0.305 0 0.06 0.305 0 0.08 0.305 0 0.1 0.305 0 0 0.31 0 0.02 0.31 0 0.04 0.31 0 0.06 0.31 0 0.08 0.31 0 0.1 0.31 0 0 0.315 0 0.02 0.315 0 0.04 0.315 0 0.06 0.315 0 0.08 0.315 0 0.1 0.315 0 0 0.32 0 0.02 0.32 0 0.04 0.32 0 0.06 0.32 0 0.08 0.32 0 0.1 0.32 0 0 0.325 0 0.02 0.325 0 0.04 0.325 0 0.06 0.325 0 0.08 0.325 0 0.1 0.325 0 0 0.33 0 0.02 0.33 0 0.04 0.33 0 0.06 0.33 0 0.08 0.33 0 0.1 0.33 0 0 0.335 0 0.02 0.335 0 0.04 0.335 0 0.06 0.335 0 0.08 0.335 0 0.1 0.335 0 0 0.34 0 0.02 0.34 0 0.04 0.34 0 0.06 0.34 0 0.08 0.34 0 0.1 0.34 0 0 0.345 0 0.02 0.345 0 0.04 0.345 0 0.06 0.345 0 0.08 0.345 0 0.1 0.345 0 0 0.35 0 0.02 0.35 0 0.04 0.35 0 0.06 0.35 0 0.08 0.35 0 0.1 0.35 0 0 0.355 0 0.02 0.355 0 0.04 0.355 0 0.06 0.355 0 0.08 0.355 0 0.1 0.355 0 0 0.36 0 0.02 0.36 0 0.04 0.36 0 0.06 0.36 0 0.08 0.36 0 0.1 0.36 0 0 0.365 0 0.02 0.365 0 0.04 0.365 0 0.06 0.365 0 0.08 0.365 0 0.1 0.365 0 0 0.37 0 0.02 0.37 0 0.04 0.37 0 0.06 0.37 0 0.08 0.37 0 0.1 0.37 0 0 0.375 0 0.02 0.375 0 0.04 0.375 0 0.06 0.375 0 0.08 0.375 0 0.1 0.375 0 0 0.38 0 0.02 0.38 0 0.04 0.38 0 0.06 0.38 0 0.08 0.38 0 0.1 0.38 0 0 0.385 0 0.02 0.385 0 0.04 0.385 0 0.06 0.385 0 0.08 0.385 0 0.1 0.385 0 0 0.39 0 0.02 0.39 0 0.04 0.39 0 0.06 0.39 0 0.08 0.39 0 0.1 0.39 0 0 0.395 0 0.02 0.395 0 0.04 0.395 0 0.06 0.395 0 0.08 0.395 0 0.1 0.395 0 0 0.4 0 0.02 0.4 0 0.04 0.4 0 0.06 0.4 0 0.08 0.4 0 0.1 0.4 0 0 0.405 0 0.02 0.405 0 0.04 0.405 0 0.06 0.405 0 0.08 0.405 0 0.1 0.405 0 0 0.41 0 0.02 0.41 0 0.04 0.41 0 0.06 0.41 0 0.08 0.41 0 0.1 0.41 0 0 0.415 0 0.02 0.415 0 0.04 0.415 0 0.06 0.415 0 0.08 0.415 0 0.1 0.415 0 0 0.42 0 0.02 0.42 0 0.04 0.42 0 0.06 0.42 0 0.08 0.42 0 0.1 0.42 0 0 0.425 0 0.02 0.425 0 0.04 0.425 0 0.06 0.425 0 0.08 0.425 0 0.1 0.425 0 0 0.43 0 0.02 0.43 0 0.04 0.43 0 0.06 0.43 0 0.08 0.43 0 0.1 0.43 0 0 0.435 0 0.02 0.435 0 0.04 0.435 0 0.06 0.435 0 0.08 0.435 0 0.1 0.435 0 0 0.44 0 0.02 0.44 0 0.04 0.44 0 0.06 0.44 0 0.08 0.44 0 0.1 0.44 0 0 0.445 0 0.02 0.445 0 0.04 0.445 0 0.06 0.445 0 0.08 0.445 0 0.1 0.445 0 0 0.45 0 0.02 0.45 0 0.04 0.45 0 0.06 0.45 0 0.08 0.45 0 0.1 0.45 0 0 0.455 0 0.02 0.455 0 0.04 0.455 0 0.06 0.455 0 0.08 0.455 0 0.1 0.455 0 0 0.46 0 0.02 0.46 0 0.04 0.46 0 0.06 0.46 0 0.08 0.46 0 0.1 0.46 0 0 0.465 0 0.02 0.465 0 0.04 0.465 0 0.06 0.465 0 0.08 0.465 0 0.1 0.465 0 0 0.47 0 0.02 0.47 0 0.04 0.47 0 0.06 0.47 0 0.08 0.47 0 0.1 0.47 0 0 0.475 0 0.02 0.475 0 0.04 0.475 0 0.06 0.475 0 0.08 0.475 0 0.1 0.475 0 0 0.48 0 0.02 0.48 0 0.04 0.48 0 0.06 0.48 0 0.08 0.48 0 0.1 0.48 0 0 0.485 0 0.02 0.485 0 0.04 0.485 0 0.06 0.485 0 0.08 0.485 0 0.1 0.485 0 0 0.49 0 0.02 0.49 0 0.04 0.49 0 0.06 0.49 0 0.08 0.49 0 0.1 0.49 0 0 0.495 0 0.02 0.495 0 0.04 0.495 0 0.06 0.495 0 0.08 0.495 0 0.1 0.495 0 0 0.5 0 0.02 0.5 0 0.04 0.5 0 0.06 0.5 0 0.08 0.5 0 0.1 0.5 0 0 0.505 0 0.02 0.505 0 0.04 0.505 0 0.06 0.505 0 0.08 0.505 0 0.1 0.505 0 0 0.51 0 0.02 0.51 0 0.04 0.51 0 0.06 0.51 0 0.08 0.51 0 0.1 0.51 0 0 0.515 0 0.02 0.515 0 0.04 0.515 0 0.06 0.515 0 0.08 0.515 0 0.1 0.515 0 0 0.52 0 0.02 0.52 0 0.04 0.52 0 0.06 0.52 0 0.08 0.52 0 0.1 0.52 0 0 0.525 0 0.02 0.525 0 0.04 0.525 0 0.06 0.525 0 0.08 0.525 0 0.1 0.525 0 0 0.53 0 0.02 0.53 0 0.04 0.53 0 0.06 0.53 0 0.08 0.53 0 0.1 0.53 0 0 0.535 0 0.02 0.535 0 0.04 0.535 0 0.06 0.535 0 0.08 0.535 0 0.1 0.535 0 0 0.54 0 0.02 0.54 0 0.04 0.54 0 0.06 0.54 0 0.08 0.54 0 0.1 0.54 0 0 0.545 0 0.02 0.545 0 0.04 0.545 0 0.06 0.545 0 0.08 0.545 0 0.1 0.545 0 0 0.55 0 0.02 0.55 0 0.04 0.55 0 0.06 0.55 0 0.08 0.55 0 0.1 0.55 0 0 0.555 0 0.02 0.555 0 0.04 0.555 0 0.06 0.555 0 0.08 0.555 0 0.1 0.555 0 0 0.56 0 0.02 0.56 0 0.04 0.56 0 0.06 0.56 0 0.08 0.56 0 0.1 0.56 0 0 0.565 0 0.02 0.565 0 0.04 0.565 0 0.06 0.565 0 0.08 0.565 0 0.1 0.565 0 0 0.57 0 0.02 0.57 0 0.04 0.57 0 0.06 0.57 0 0.08 0.57 0 0.1 0.57 0 0 0.575 0 0.02 0.575 0 0.04 0.575 0 0.06 0.575 0 0.08 0.575 0 0.1 0.575 0 0 0.58 0 0.02 0.58 0 0.04 0.58 0 0.06 0.58 0 0.08 0.58 0 0.1 0.58 0 0 0.585 0 0.02 0.585 0 0.04 0.585 0 0.06 0.585 0 0.08 0.585 0 0.1 0.585 0 0 0.59 0 0.02 0.59 0 0.04 0.59 0 0.06 0.59 0 0.08 0.59 0 0.1 0.59 0 0 0.595 0 0.02 0.595 0 0.04 0.595 0 0.06 0.595 0 0.08 0.595 0 0.1 0.595 0 0 0.6 0 0.02 0.6 0 0.04 0.6 0 0.06 0.6 0 0.08 0.6 0 0.1 0.6 0 0 0.605 0 0.02 0.605 0 0.04 0.605 0 0.06 0.605 0 0.08 0.605 0 0.1 0.605 0 0 0.61 0 0.02 0.61 0 0.04 0.61 0 0.06 0.61 0 0.08 0.61 0 0.1 0.61 0 0 0.615 0 0.02 0.615 0 0.04 0.615 0 0.06 0.615 0 0.08 0.615 0 0.1 0.615 0 0 0.62 0 0.02 0.62 0 0.04 0.62 0 0.06 0.62 0 0.08 0.62 0 0.1 0.62 0 0 0.625 0 0.02 0.625 0 0.04 0.625 0 0.06 0.625 0 0.08 0.625 0 0.1 0.625 0 0 0.63 0 0.02 0.63 0 0.04 0.63 0 0.06 0.63 0 0.08 0.63 0 0.1 0.63 0 0 0.635 0 0.02 0.635 0 0.04 0.635 0 0.06 0.635 0 0.08 0.635 0 0.1 0.635 0 0 0.64 0 0.02 0.64 0 0.04 0.64 0 0.06 0.64 0 0.08 0.64 0 0.1 0.64 0 0 0.645 0 0.02 0.645 0 0.04 0.645 0 0.06 0.645 0 0.08 0.645 0 0.1 0.645 0 0 0.65 0 0.02 0.65 0 0.04 0.65 0 0.06 0.65 0 0.08 0.65 0 0.1 0.65 0 0 0.655 0 0.02 0.655 0 0.04 0.655 0 0.06 0.655 0 0.08 0.655 0 0.1 0.655 0 0 0.66 0 0.02 0.66 0 0.04 0.66 0 0.06 0.66 0 0.08 0.66 0 0.1 0.66 0 0 0.665 0 0.02 0.665 0 0.04 0.665 0 0.06 0.665 0 0.08 0.665 0 0.1 0.665 0 0 0.67 0 0.02 0.67 0 0.04 0.67 0 0.06 0.67 0 0.08 0.67 0 0.1 0.67 0 0 0.675 0 0.02 0.675 0 0.04 0.675 0 0.06 0.675 0 0.08 0.675 0 0.1 0.675 0 0 0.68 0 0.02 0.68 0 0.04 0.68 0 0.06 0.68 0 0.08 0.68 0 0.1 0.68 0 0 0.685 0 0.02 0.685 0 0.04 0.685 0 0.06 0.685 0 0.08 0.685 0 0.1 0.685 0 0 0.69 0 0.02 0.69 0 0.04 0.69 0 0.06 0.69 0 0.08 0.69 0 0.1 
[...]
			<PointData Scalars="VitesseX">
				<DataArray Name="VitesseX" type="Float32" format="ascii">
 0 -6.65345e-15 -7.13013e-15 1.09967e-14 2.5093e-14 0 0 -1.05141e-14 -1.59369e-15 9.00696e-15 2.61272e-14 0 0 -1.09138e-14 -1.8283e-15 1.51782e-14 2.33454e-14 0 0 -1.58876e-14 6.73302e-15 1.10345e-14 2.78649e-14 0 0 -1.61013e-14 9.52389e-15 1.50234e-14 2.56194e-14 0 0 -1.27465e-14 -1.87429e-15 4.18413e-14 5.15684e-15 0 0 -4.70633e-15 -1.93255e-14 6.88001e-14 -1.22499e-14 0 0 -1.14025e-15 -1.49466e-14 6.07644e-14 1.42716e-15 0 0 -3.18415e-15 -2.06768e-15 4.82333e-14 1.61259e-14 0 0 -2.62004e-15 1.0322e-14 2.49266e-14 3.98169e-14 0 0 -3.12155e-15 2.41053e-14 -1.53456e-14 7.65993e-14 0 0 1.44962e-14 -3.36623e-15 7.75154e-16 6.84401e-14 0 0 2.92709e-15 2.21311e-15 1.06001e-14 5.36604e-14 0 0 -6.3017e-15 1.78112e-14 1.03548e-14 2.72538e-14 0 0 2.56105e-16 1.47039e-14 1.27497e-14 8.22823e-15 0 0 -4.89839e-15 1.56498e-14 1.59791e-14 -1.80626e-15 0 0 1.58686e-15 -5.95093e-16 4.52047e-14 -2.85399e-14 0 0 7.43883e-15 -3.9236e-15 4.87612e-14 -2.82078e-14 0 0 -2.03173e-14 4.34693e-14 -7.64764e-15 1.46081e-14 0 0 -3.05343e-14 4.66584e-14 -1.4958e-14 2.35293e-14 0 0 -1.44052e-14 5.22106e-15 4.4223e-14 -2.57012e-14 0 0 1.71195e-14 -4.0863e-14 7.69594e-14 -5.21177e-14 0 0 3.33412e-14 -4.7694e-14 4.63234e-14 -3.01168e-14 0 0 -2.07308e-14 5.13062e-14 -4.946e-14 1.89757e-14 0 0 -2.29124e-14 5.47775e-14 -4.59366e-14 1.81015e-14 0 0 3.62307e-14 -4.07567e-14 4.71646e-14 -2.58277e-14 0 0 1.97564e-14 -3.76771e-15 8.21573e-15 6.58188e-15 0 0 -3.21899e-14 9.10101e-14 -8.14333e-14 6.75732e-14 0 0 -9.58735e-17 4.68779e-14 -3.10699e-14 5.66502e-14 0 0 7.0037e-15 1.19533e-14 2.39385e-14 5.01962e-14 0 0 4.1798e-14 -4.43108e-14 6.13045e-14 4.86504e-14 0 0 3.039e-14 -1.16501e-14 2.74115e-14 3.85442e-14 0 0 2.21859e-14 5.65565e-16 4.56151e-14 -2.05887e-15 0 0 3.34124e-14 -9.12737e-16 4.64644e-14 1.54749e-15 0 0 2.40169e-14 1.43815e-14 1.96685e-14 3.06099e-14 0 0 6.0913e-14 -4.5271e-14 6.19942e-14 2.71463e-14 0 0 1.35449e-14 -2.90791e-15 1.4951e-14 8.98099e-14 0 0 -2.49264e-14 -3.20495e-15 4.50273e-14 1.1396e-13 0 0 -7.6309e-14 6.51987e-14 3.21429e-14 1.28397e-13 0 0 -4.90119e-14 3.68112e-14 7.15245e-14 9.09988e-14 0 0 -8.75033e-15 2.81884e-15 7.08746e-14 9.76651e-14 0 0 -4.34222e-14 8.16929e-14 1.56312e-15 1.12911e-13 0 0 1.74539e-14 1.15926e-14 7.51149e-14 1.07952e-14 0 0 3.07683e-14 1.25246e-14 2.73621e-14 2.2297e-14 0 0 -1.42705e-14 5.97151e-14 -9.72504e-15 3.8939e-14 0 0 4.22028e-14 -4.48467e-14 8.4403e-14 1.49558e-14 0 0 4.94248e-14 -1.23138e-14 -4.12275e-14 1.37587e-13 0 0 8.9751e-15 8.73593e-14 -1.65152e-13 1.97892e-13 0 0 8.56816e-14 -3.26986e-14 -1.94508e-14 7.79496e-14 0 0 1.77984e-13 -1.89607e-13 1.36337e-13 -6.82018e-15 0 0 2.41008e-13 -2.91396e-13 2.55293e-13 -7.9609e-14 0 0 1.80556e-13 -1.62165e-13 1.41652e-13 -5.15482e-14 0 0 1.42497e-13 -6.70083e-14 -4.49525e-15 6.06895e-14 0 0 4.97938e-14 2.8627e-14 -2.01496e-15 2.33406e-14 0 0 3.70049e-14 6.6143e-14 8.02717e-15 -2.53037e-14 0 0 2.04182e-13 -6.90006e-14 6.84271e-14 -2.94372e-14 0 0 1.59175e-13 -1.79967e-14 1.37463e-13 -8.65323e-14 0 0 4.07725e-14 6.81513e-14 1.02517e-13 1.17668e-14 0 0 1.17133e-13 1.63998e-14 6.90032e-14 1.49478e-13 0 0 1.53472e-13 8.68284e-15 9.59766e-14 1.5423e-13 0 0 -9.60499e-15 1.28148e-13 1.00692e-13 1.64053e-13 0 0 -5.81957e-15 8.24487e-14 2.24229e-13 8.37043e-14 0 0 4.4249e-14 3.1469e-14 3.0641e-13 -3.28791e-14 0 0 8.68406e-14 1.55234e-14 2.79949e-13 -6.91373e-14 0 0 8.86191e-14 -6.60306e-15 3.05073e-13 -1.11733e-13 0 0 -2.46203e-14 9.32607e-14 2.67281e-13 -8.58978e-14 0 0 -1.24942e-13 1.97398e-13 1.35674e-13 1.05864e-13 0 0 -1.08534e-13 6.73232e-14 2.14434e-13 1.95211e-13 0 0 -2.49561e-14 -2.35467e-14 1.74375e-13 2.80634e-13 0 0 3.54587e-14 6.10568e-15 9.01228e-15 3.4501e-13 0 0 2.01794e-13 -7.35361e-14 -6.69718e-14 3.02271e-13 0 0 3.30561e-13 -1.09097e-13 -9.6411e-14 2.78188e-13 0 0 3.24608e-13 -1.20575e-13 8.69632e-14 1.21437e-13 0 0 1.65436e-13 1.2749e-14 7.30493e-14 6.91138e-14 0 0 2.49526e-13 -5.73799e-14 5.83421e-14 1.72116e-13 0 0 4.52404e-13 -1.93218e-13 1.39171e-13 2.35226e-13 0 0 2.37848e-13 1.25401e-13 3.6423e-15 1.43214e-13 0 0 1.51587e-13 2.79075e-13 -1.20237e-13 8.15144e-14 0 0 3.26392e-13 1.06881e-13 -1.21946e-13 -4.15184e-14 0 0 5.44904e-13 -2.0025e-13 8.15918e-14 -1.94116e-13 0 0 5.79394e-13 -4.20568e-13 2.69051e-13 -2.20897e-13 0 0 3.37668e-13 -1.45941e-13 -1.09289e-15 -3.43238e-14 0 0 2.27407e-14 2.80453e-13 -4.01189e-13 1.8144e-13 0 0 -1.48136e-13 2.43745e-13 -3.14579e-13 1.38955e-13 0 0 -1.22429e-13 1.18385e-13 -8.60486e-14 5.82347e-14 0 0 -1.3799e-13 -3.5076e-14 1.64754e-13 -1.38487e-14 0 0 -1.70516e-13 -1.6755e-13 3.55854e-13 2.42488e-14 0 0 -1.53538e-13 -2.48444e-13 3.01074e-13 1.06724e-13 0 0 -1.05096e-13 -3.19818e-13 2.50078e-13 2.47213e-13 0 0 -7.43177e-14 -3.40807e-13 1.56297e-13 3.45183e-13 0 0 -8.10653e-14 -3.08561e-13 -3.60454e-15 4.34472e-13 0 0 -1.36803e-13 -2.76246e-13 1.72259e-15 4.244e-13 0 0 -1.87212e-13 -2.56846e-13 3.22648e-14 3.89787e-13 0 0 -1.406e-13 -3.16994e-13 1.28456e-13 3.07911e-13 0 0 -7.65678e-14 -4.10077e-13 2.72568e-13 2.01984e-13 0 0 -8.95938e-14 -4.00936e-13 3.66159e-13 7.12652e-14 0 0 -1.219e-13 -3.49336e-13 3.66969e-13 -5.66393e-14 0 0 -1.96504e-13 -2.00316e-13 3.29207e-13 -9.7049e-14 0 0 -2.84613e-13 -2.93358e-14 2.32319e-13 -8.54681e-14 0 0 -3.6788e-13 1.31467e-13 1.39147e-13 -6.8066e-14 0 0 -3.51489e-13 2.85651e-13 9.55275e-14 -4.39141e-14 0 0 -2.95539e-13 3.06064e-13 9.5437e-14 -1.57939e-14 0 0 -1.67984e-13 2.90306e-13 1.31349e-13 5.56609e-15 0 0 -4.10122e-14 2.37514e-13 2.16938e-13 9.25491e-15 0 0 1.38603e-13 1.36247e-13 3.27492e-13 5.8168e-15 0 0 3.63267e-13 1.66714e-14 4.29437e-13 2.53741e-14 0 0 4.10221e-13 3.67517e-14 3.84234e-13 1.58479e-13 0 0 3.67848e-13 1.02519e-13 3.33471e-13 2.32293e-13 0 0 2.15619e-13 2.51537e-13 3.08878e-13 2.32576e-13 0 0 3.4711e-14 4.32897e-13 2.73413e-13 1.93828e-13 0 0 -1.64463e-14 5.01063e-13 2.39138e-13 1.07306e-13 0 0 -1.32439e-14 4.96023e-13 1.22858e-13 1.34042e-13 0 0 3.43207e-14 4.67471e-13 -1.37134e-14 1.98132e-13 0 0 1.58515e-13 3.69672e-13 -1.69878e-14 2.69911e-13 0 0 2.73696e-13 2.74331e-13 -3.22564e-14 2.8998e-13 0 0 3.68418e-13 2.22752e-13 4.12555e-14 2.24499e-13 0 0 4.12923e-13 1.83926e-13 2.07429e-13 7.22565e-14 0 0 4.23237e-13 1.91856e-13 2.33926e-13 1.89117e-14 0 0 4.05191e-13 2.54737e-13 2.01049e-13 3.51284e-14 0 0 2.99989e-13 4.50502e-13 8.16877e-14 1.03713e-13 0 0 1.779e-13 5.73897e-13 -1.67321e-14 1.39626e-13 0 0 1.71325e-13 5.71162e-13 -2.50393e-14 1.26402e-13 0 0 1.84858e-13 4.93861e-13 7.39852e-14 1.0596e-14 0 0 1.82775e-13 2.83843e-13 2.13409e-13 -1.00991e-13 0 0 1.71797e-13 9.30409e-14 3.25196e-13 -1.79291e-13 0 0 1.40255e-13 7.4623e-14 3.1844e-13 -1.77178e-13 0 0 3.41244e-14 1.45166e-13 2.17298e-13 -7.96422e-14 0 0 5.76928e-15 2.48384e-13 -2.66867e-14 1.40692e-13 0 0 6.88101e-14 2.36296e-13 -8.32418e-14 3.06166e-13 0 0 1.72767e-13 1.31322e-13 1.27123e-14 2.39979e-13 0 0 1.69309e-13 1.01681e-13 1.36268e-13 -5.42822e-15 0 0 1.08727e-13 1.68061e-13 1.1803e-13 -6.16609e-14 0 0 8.21899e-14 2.01607e-13 1.07499e-13 -6.18965e-14 0 0 8.60206e-14 1.80046e-13 1.27424e-13 -6.49877e-14 0 0 9.51339e-14 1.56415e-13 1.00711e-13 -3.51237e-14 0 0 8.92854e-14 1.46487e-13 1.00033e-14 1.56924e-13 0 0 1.0647e-13 8.10073e-14 3.86086e-14 1.4407e-13 0 0 1.15753e-13 9.29404e-16 1.56052e-13 3.01003e-14 0 0 7.09525e-14 7.05027e-15 1.51384e-13 -4.68053e-15 0 0 3.60884e-14 2.13356e-14 7.53807e-14 3.68022e-14 0 0 -9.41911e-15 4.61718e-14 -2.22602e-14 1.20011e-13 0 0 -2.01618e-14 3.15413e-14 -6.91678e-14 1.56442e-13 0 0 4.20398e-15 2.82569e-14 -1.18314e-13 1.60522e-13 0 0 2.23068e-14 -1.31728e-14 1.39144e-14 5.47642e-14 0 0 8.85096e-15 -6.47356e-14 3.02728e-13 -6.70136e-14 0 0 -1.32301e-14 2.892e-14 2.34576e-13 1.65778e-13 0 0 -7.90754e-15 1.22377e-13 1.97523e-13 3.70098e-13 0 0 5.02837e-14 1.06485e-13 2.92788e-13 3.46105e-13 0 0 4.76953e-14 1.84313e-13 3.72499e-13 2.68851e-13 0 0 1.75609e-14 2.88216e-13 3.85486e-13 2.91008e-13 0 0 7.24895e-14 2.80887e-13 4.0997e-13 3.23653e-13 0 0 1.46331e-13 2.15417e-13 5.24321e-13 2.26425e-13 0 0 1.19442e-13 3.11446e-13 4.74726e-13 2.04033e-13 0 0 8.59555e-14 4.16969e-13 3.84362e-13 2.30032e-13 0 0 1.20165e-13 4.41652e-13 3.26094e-13 3.31485e-13 0 0 1.66892e-13 4.49053e-13 3.23205e-13 3.0785e-13 0 0 2.74332e-13 3.292e-13 4.41387e-13 1.87301e-13 0 0 2.81373e-13 3.47493e-13 4.50941e-13 1.48734e-13 0 0 2.31602e-13 4.15485e-13 4.19779e-13 1.99217e-13 0 0 2.45665e-13 4.60422e-13 2.97685e-13 4.00843e-13 0 0 3.39816e-13 3.70269e-13 3.74634e-13 4.00728e-13 0 0 4.53538e-13 1.87695e-13 6.40453e-13 1.65475e-13 0 0 5.35561e-13 1.37233e-13 6.13427e-13 2.49733e-13 0 0 4.72297e-13 3.36027e-13 3.48601e-13 5.08947e-13 0 0 3.28185e-13 6.0793e-13 2.33828e-13 4.54708e-13 0 0 2.62427e-13 7.62152e-13 1.28069e-13 4.75169e-13 0 0 2.4264e-13 8.36739e-13 1.25274e-14 5.58049e-13 0 0 4.69362e-13 5.51849e-13 2.32771e-13 4.4514e-13 0 0 5.62618e-13 4.55e-13 3.46944e-13 3.56902e-13 0 0 3.79216e-13 7.07852e-13 3.05328e-13 2.7406e-13 0 0 3.75261e-13 7.15338e-13 4.00961e-13 2.3059e-13 0 0 4.77766e-13 5.02044e-13 6.53401e-13 6.3718e-14 0 0 5.72125e-13 3.07682e-13 8.01044e-13 -1.56453e-14 0 0 6.09925e-13 2.81743e-13 7.0388e-13 2.18232e-13 0 0 5.74287e-13 3.80063e-13 5.37014e-13 4.52829e-13 0 0 4.65349e-13 4.7833e-13 4.44223e-13 5.14006e-13 0 0 1.58755e-13 8.01846e-13 3.29891e-13 3.94062e-13 0 0 1.18018e-13 8.17755e-13 4.52261e-13 2.79218e-13 0 0 3.63244e-13 5.02144e-13 6.71335e-13 3.24411e-13 0 0 3.73157e-13 6.17667e-13 3.70292e-13 5.62205e-13 0 0 5.24682e-13 4.17638e-13 3.89234e-13 6.15528e-13 0 0 4.78717e-13 4.16132e-13 4.23539e-13 5.83876e-13 0 0 1.97718e-13 7.25084e-13 4.20137e-13 3.96667e-13 0 0 3.04995e-13 6.04438e-13 5.67306e-13 2.5571e-13 0 0 3.18505e-13 6.84093e-13 3.47646e-13 4.36206e-13 0 0 1.90798e-13 7.79863e-13 3.2703e-13 4.59473e-13 0 0 2.89382e-13 6.00181e-13 5.19367e-13 3.46567e-13 0 0 2.68716e-13 4.59007e-13 8.20982e-13 3.41477e-14 0 0 1.46629e-13 4.16619e-13 1.13086e-12 -3.44905e-13 0 0 2.38793e-13 3.46548e-13 1.02394e-12 -1.48281e-13 0 0 1.94209e-13 5.1121e-13 5.57435e-13 3.33794e-13 0 0 7.24171e-14 6.84592e-13 3.46966e-13 3.98819e-13 0 0 1.65942e-13 4.10991e-13 7.37317e-13 -8.0348e-15 0 0 2.33914e-13 2.15483e-13 9.28212e-13 -1.2757e-13 0 0 2.06475e-14 5.48417e-13 7.0758e-13 -4.42959e-14 0 0 -7.84681e-14 7.35866e-13 6.2514e-13 -2.23065e-14 0 0 1.48766e-13 5.611e-13 5.93934e-13 1.13881e-13 0 0 1.89491e-13 4.43245e-13 9.17056e-13 -1.84563e-13 0 0 1.20201e-14 6.42897e-13 8.88748e-13 -2.2075e-13 0 0 -2.16807e-13 1.15109e-12 2.51503e-13 1.22034e-13 0 0 -3.50142e-13 1.40206e-12 -8.70137e-15 1.94778e-13 0
				</DataArray>
				<DataArray Name="VitesseY" type="Float32" format="ascii">