<?xml version="1.0"?>
<VTKFile type="PolyData">
	<PolyData>
		<Piece NumberOfPoints="1206" NumberOfPolys="1000">
			<Points>
				<DataArray type="Float32" NumberOfComponents="3" format="ascii">
 0 0 0 0.02 0 0 0.04 0 0 0.06 0 0 0.08 0 0 0.1 0 0 0 0.005 0 0.02 0.005 0 0.04 0.005 0 0.06 0.005 0 0.08 0.005 0 0.1 0.005 0 0 0.01 0 0.02 0.01 0 0.04 0.01 0 0.06 0.01 0 0.08 0.01 0 0.1 0.01 0 0 0.015 0 0.02 0.015 0 0.04 0.015 0 0.06 0.015 0 0.08 0.015 0 0.1 0.015 0 0 0.02 0 0.02 0.02 0 0.04 0.02 0 0.06 0.02 0 0.08 0.02 0 0.1 0.02 0 0 0.025 0 0.02 0.025 0 0.04 0.025 0 0.06 0.025 0 0.08 0.025 0 0.1 0.025 0 0 0.03 0 0.02 0.03 0 0.04 0.03 0 0.06 0.03 0 0.08 0.03 0 0.1 0.03 0 0 0.035 0 0.02 0.035 0 0.04 0.035 0 0.06 0.035 0 0.08 0.035 0 0.1 0.035 0 0 0.04 0 0.02 0.04 0 0.04 0.04 0 0.06 0.04 0 0.08 0.04 0 0.1 0.04 0 0 0.045 0 0.02 0.045 0 0.04 0.045 0 0.06 0.045 0 0.08 0.045 0 0.1 0.045 0 0 0.05 0 0.02 0.05 0 0.04 0.05 0 0.06 0.05 0 0.08 0.05 0 0.1 0.05 0 0 0.055 0 0.02 0.055 0 0.04 0.055 0 0.06 0.055 0 0.08 0.055 0 0.1 0.055 0 0 0.06 0 0.02 0.06 0 0.04 0.06 0 0.06 0.06 0 0.08 0.06 0 0.1 0.06 0 0 0.065 0 0.02 0.065 0 0.04 0.065 0 0.06 0.065 0 0.08 0.065 0 0.1 0.065 0 0 0.07 0 0.02 0.07 0 0.04 0.07 0 0.06 0.07 0 0.08 0.07 0 0.1 0.07 0 0 0.075 0 0.02 0.075 0 0.04 0.075 0 0.06 0.075 0 0.08 0.075 0 0.1 0.075 0 0 0.08 0 0.02 0.08 0 0.04 0.08 0 0.06 0.08 0 0.08 0.08 0 0.1 0.08 0 0 0.085 0 0.02 0.085 0 0.04 0.085 0 0.06 0.085 0 0.08 0.085 0 0.1 0.085 0 0 0.09 0 0.02 0.09 0 0.04 0.09 0 0.06 0.09 0 0.08 0.09 0 0.1 0.09 0 0 0.095 0 0.02 0.095 0 0.04 0.095 0 0.06 0.095 0 0.08 0.095 0 0.1 0.095 0 0 0.1 0 0.02 0.1 0 0.04 0.1 0 0.06 0.1 0 0.08 0.1 0 0.1 0.1 0 0 0.105 0 0.02 0.105 0 0.04 0.105 0 0.06 0.105 0 0.08 0.105 0 0.1 0.105 0 0 0.11 0 0.02 0.11 0 0.04 0.11 0 0.06 0.11 0 0.08 0.11 0 0.1 0.11 0 0 0.115 0 0.02 0.115 0 0.04 0.115 0 0.06 0.115 0 0.08 0.115 0 0.1 0.115 0 0 0.12 0 0.02 0.12 0 0.04 0.12 0 0.06 0.12 0 0.08 0.12 0 0.1 0.12 0 0 0.125 0 0.02 0.125 0 0.04 0.125 0 0.06 0.125 0 0.08 0.125 0 0.1 0.125 0 0 0.13 0 0.02 0.13 0 0.04 0.13 0 0.06 0.13 0 0.08 0.13 0 0.1 0.13 0 0 0.135 0 0.02 0.135 0 0.04 0.135 0 0.06 0.135 0 0.08 0.135 0 0.1 0.135 0 0 0.14 0 0.02 0.14 0 0.04 0.14 0 0.06 0.14 0 0.08 0.14 0 0.1 0.14 0 0 0.145 0 0.02 0.145 0 0.04 0.145 0 0.06 0.145 0 0.08 0.145 0 0.1 0.145 0 0 0.15 0 0.02 0.15 0 0.04 0.15 0 0.06 0.15 0 0.08 0.15 0 0.1 0.15 0 0 0.155 0 0.02 0.155 0 0.04 0.155 0 0.06 0.155 0 0.08 0.155 0 0.1 0.155 0 0 0.16 0 0.02 0.16 0 0.04 0.16 0 0.06 0.16 0 0.08 0.16 0 0.1 0.16 0 0 0.165 0 0.02 0.165 0 0.04 0.165 0 0.06 0.165 0 0.08 0.165 0 0.1 0.165 0 0 0.17 0 0.02 0.17 0 0.04 0.17 0 0.06 0.17 0 0.08 0.17 0 0.1 0.17 0 0 0.175 0 0.02 0.175 0 0.04 0.175 0 0.06 0.175 0 0.08 0.175 0 0.1 0.175 0 0 0.18 0 0.02 0.18 0 0.04 0.18 0 0.06 0.18 0 0.08 0.18 0 0.1 0.18 0 0 0.185 0 0.02 0.185 0 0.04 0.185 0 0.06 0.185 0 0.08 0.185 0 0.1 0.185 0 0 0.19 0 0.02 0.19 0 0.04 0.19 0 0.06 0.19 0 0.08 0.19 0 0.1 0.19 0 0 0.195 0 0.02 0.195 0 0.04 0.195 0 0.06 0.195 0 0.08 0.195 0 0.1 0.195 0 0 0.2 0 0.02 0.2 0 0.04 0.2 0 0.06 0.2 0 0.08 0.2 0 0.1 0.2 0 0 0.205 0 0.02 0.205 0 0.04 0.205 0 0.06 0.205 0 0.08 0.205 0 0.1 0.205 0 0 0.21 0 0.02 0.21 0 0.04 0.21 0 0.06 0.21 0 0.08 0.21 0 0.1 0.21 0 0 0.215 0 0.02 0.215 0 0.04 0.215 0 0.06 0.215 0 0.08 0.215 0 0.1 0.215 0 0 0.22 0 0.02 0.22 0 0.04 0.22 0 0.06 0.22 0 0.08 0.22 0 0.1 0.22 0 0 0.225 0 0.02 0.225 0 0.04 0.225 0 0.06 0.225 0 0.08 0.225 0 0.1 0.225 0 0 0.23 0 0.02 0.23 0 0.04 0.23 0 0.06 0.23 0 0.08 0.23 0 0.1 0.23 0 0 0.235 0 0.02 0.235 0 0.04 0.235 0 0.06 0.235 0 0.08 0.235 0 0.1 0.235 0 0 0.24 0 0.02 0.24 0 0.04 0.24 0 0.06 0.24 0 0.08 0.24 0 0.1 0.24 0 0 0.245 0 0.02 0.245 0 0.04 0.245 0 0.06 0.245 0 0.08 0.245 0 0.1 0.245 0 0 0.25 0 0.02 0.25 0 0.04 0.25 0 0.06 0.25 0 0.08 0.25 0 0.1 0.25 0 0 0.255 0 0.02 0.255 0 0.04 0.255 0 0.06 0.255 0 0.08 0.255 0 0.1 0.255 0 0 0.26 0 0.02 0.26 0 0.04 0.26 0 0.06 0.26 0 0.08 0.26 0 0.1 0.26 0 0 0.265 0 0.02 0.265 0 0.04 0.265 0 0.06 0.265 0 0.08 0.265 0 0.1 0.265 0 0 0.27 0 0.02 0.27 0 0.04 0.27 0 0.06 0.27 0 0.08 0.27 0 0.1 0.27 0 0 0.275 0 0.02 0.275 0 0.04 0.275 0 0.06 0.275 0 0.08 0.275 0 0.1 0.275 0 0 0.28 0 0.02 0.28 0 0.04 0.28 0 0.06 0.28 0 0.08 0.28 0 0.1 0.28 0 0 0.285 0 0.02 0.285 0 0.04 0.285 0 0.06 0.285 0 0.08 0.285 0 0.1 0.285 0 0 0.29 0 0.02 0.29 0 0.04 0.29 0 0.06 0.29 0 0.08 0.29 0 0.1 0.29 0 0 0.295 0 0.02 0.295 0 0.04 0.295 0 0.06 0.295 0 0.08 0.295 0 0.1 0.295 0 0 0.3 0 0.02 0.3 0 0.04 0.3 0 0.06 0.3 0 0.08 0.3 0 0.1 0.3 0 0 0.305 0 0.02 0.305 0 0.04 0.305 0 0.06 0.305 0 0.08 0.305 0 0.1 0.305 0 0 0.31 0 0.02 0.31 0 0.04 0.31 0 0.06 0.31 0 0.08 0.31 0 0.1 0.31 0 0 0.315 0 0.02 0.315 0 0.04 0.315 0 0.06 0.315 0 0.08 0.315 0 0.1 0.315 0 0 0.32 0 0.02 0.32 0 0.04 0.32 0 0.06 0.32 0 0.08 0.32 0 0.1 0.32 0 0 0.325 0 0.02 0.325 0 0.04 0.325 0 0.06 0.325 0 0.08 0.325 0 0.1 0.325 0 0 0.33 0 0.02 0.33 0 0.04 0.33 0 0.06 0.33 0 0.08 0.33 0 0.1 0.33 0 0 0.335 0 0.02 0.335 0 0.04 0.335 0 0.06 0.335 0 0.08 0.335 0 0.1 0.335 0 0 0.34 0 0.02 0.34 0 0.04 0.34 0 0.06 0.34 0 0.08 0.34 0 0.1 0.34 0 0 0.345 0 0.02 0.345 0 0.04 0.345 0 0.06 0.345 0 0.08 0.345 0 0.1 0.345 0 0 0.35 0 0.02 0.35 0 0.04 0.35 0 0.06 0.35 0 0.08 0.35 0 0.1 0.35 0 0 0.355 0 0.02 0.355 0 0.04 0.355 0 0.06 0.355 0 0.08 0.355 0 0.1 0.355 0 0 0.36 0 0.02 0.36 0 0.04 0.36 0 0.06 0.36 0 0.08 0.36 0 0.1 0.36 0 0 0.365 0 0.02 0.365 0 0.04 0.365 0 0.06 0.365 0 0.08 0.365 0 0.1 0.365 0 0 0.37 0 0.02 0.37 0 0.04 0.37 0 0.06 0.37 0 0.08 0.37 0 0.1 0.37 0 0 0.375 0 0.02 0.375 0 0.04 0.375 0 0.06 0.375 0 0.08 0.375 0 0.1 0.375 0 0 0.38 0 0.02 0.38 0 0.04 0.38 0 0.06 0.38 0 0.08 0.38 0 0.1 0.38 0 0 0.385 0 0.02 0.385 0 0.04 0.385 0 0.06 0.385 0 0.08 0.385 0 0.1 0.385 0 0 0.39 0 0.02 0.39 0 0.04 0.39 0 0.06 0.39 0 0.08 0.39 0 0.1 0.39 0 0 0.395 0 0.02 0.395 0 0.04 0.395 0 0.06 0.395 0 0.08 0.395 0 0.1 0.395 0 0 0.4 0 0.02 0.4 0 0.04 0.4 0 0.06 0.4 0 0.08 0.4 0 0.1 0.4 0 0 0.405 0 0.02 0.405 0 0.04 0.405 0 0.06 0.405 0 0.08 0.405 0 0.1 0.405 0 0 0.41 0 0.02 0.41 0 0.04 0.41 0 0.06 0.41 0 0.08 0.41 0 0.1 0.41 0 0 0.415 0 0.02 0.415 0 0.04 0.415 0 0.06 0.415 0 0.08 0.415 0 0.1 0.415 0 0 0.42 0 0.02 0.42 0 0.04 0.42 0 0.06 0.42 0 0.08 0.42 0 0.1 0.42 0 0 0.425 0 0.02 0.425 0 0.04 0.425 0 0.06 0.425 0 0.08 0.425 0 0.1 0.425 0 0 0.43 0 0.02 0.43 0 0.04 0.43 0 0.06 0.43 0 0.08 0.43 0 0.1 0.43 0 0 0.435 0 0.02 0.435 0 0.04 0.435 0 0.06 0.435 0 0.08 0.435 0 0.1 0.435 0 0 0.44 0 0.02 0.44 0 0.04 0.44 0 0.06 0.44 0 0.08 0.44 0 0.1 0.44 0 0 0.445 0 0.02 0.445 0 0.04 0.445 0 0.06 0.445 0 0.08 0.445 0 0.1 0.445 0 0 0.45 0 0.02 0.45 0 0.04 0.45 0 0.06 0.45 0 0.08 0.45 0 0.1 0.45 0 0 0.455 0 0.02 0.455 0 0.04 0.455 0 0.06 0.455 0 0.08 0.455 0 0.1 0.455 0 0 0.46 0 0.02 0.46 0 0.04 0.46 0 0.06 0.46 0 0.08 0.46 0 0.1 0.46 0 0 0.465 0 0.02 0.465 0 0.04 0.465 0 0.06 0.465 0 0.08 0.465 0 0.1 0.465 0 0 0.47 0 0.02 0.47 0 0.04 0.47 0 0.06 0.47 0 0.08 0.47 0 0.1 0.47 0 0 0.475 0 0.02 0.475 0 0.04 0.475 0 0.06 0.475 0 0.08 0.475 0 0.1 0.475 0 0 0.48 0 0.02 0.48 0 0.04 0.48 0 0.06 0.48 0 0.08 0.48 0 0.1 0.48 0 0 0.485 0 0.02 0.485 0 0.04 0.485 0 0.06 0.485 0 0.08 0.485 0 0.1 0.485 0 0 0.49 0 0.02 0.49 0 0.04 0.49 0 0.06 0.49 0 0.08 0.49 0 0.1 0.49 0 0 0.495 0 0.02 0.495 0 0.04 0.495 0 0.06 0.495 0 0.08 0.495 0 0.1 0.495 0 0 0.5 0 0.02 0.5 0 0.04 0.5 0 0.06 0.5 0 0.08 0.5 0 0.1 0.5 0 0 0.505 0 0.02 0.505 0 0.04 0.505 0 0.06 0.505 0 0.08 0.505 0 0.1 0.505 0 0 0.51 0 0.02 0.51 0 0.04 0.51 0 0.06 0.51 0 0.08 0.51 0 0.1 0.51 0 0 0.515 0 0.02 0.515 0 0.04 0.515 0 0.06 0.515 0 0.08 0.515 0 0.1 0.515 0 0 0.52 0 0.02 0.52 0 0.04 0.52 0 0.06 0.52 0 0.08 0.52 0 0.1 0.52 0 0 0.525 0 0.02 0.525 0 0.04 0.525 0 0.06 0.525 0 0.08 0.525 0 0.1 0.525 0 0 0.53 0 0.02 0.53 0 0.04 0.53 0 0.06 0.53 0 0.08 0.53 0 0.1 0.53 0 0 0.535 0 0.02 0.535 0 0.04 0.535 0 0.06 0.535 0 0.08 0.535 0 0.1 0.535 0 0 0.54 0 0.02 0.54 0 0.04 0.54 0 0.06 0.54 0 0.08 0.54 0 0.1 0.54 0 0 0.545 0 0.02 0.545 0 0.04 0.545 0 0.06 0.545 0 0.08 0.545 0 0.1 0.545 0 0 0.55 0 0.02 0.55 0 0.04 0.55 0 0.06 0.55 0 0.08 0.55 0 0.1 0.55 0 0 0.555 0 0.02 0.555 0 0.04 0.555 0 0.06 0.555 0 0.08 0.555 0 0.1 0.555 0 0 0.56 0 0.02 0.56 0 0.04 0.56 0 0.06 0.56 0 0.08 0.56 0 0.1 0.56 0 0 0.565 0 0.02 0.565 0 0.04 0.565 0 0.06 0.565 0 0.08 0.565 0 0.1 0.565 0 0 0.57 0 0.02 0.57 0 0.04 0.57 0 0.06 0.57 0 0.08 0.57 0 0.1 0.57 0 0 0.575 0 0.02 0.575 0 0.04 0.575 0 0.06 0.575 0 0.08 0.575 0 0.1 0.575 0 0 0.58 0 0.02 0.58 0 0.04 0.58 0 0.06 0.58 0 0.08 0.58 0 0.1 0.58 0 0 0.585 0 0.02 0.585 0 0.04 0.585 0 0.06 0.585 0 0.08 0.585 0 0.1 0.585 0 0 0.59 0 0.02 0.59 0 0.04 0.59 0 0.06 0.59 0 0.08 0.59 0 0.1 0.59 0 0 0.595 0 0.02 0.595 0 0.04 0.595 0 0.06 0.595 0 0.08 0.595 0 0.1 0.595 0 0 0.6 0 0.02 0.6 0 0.04 0.6 0 0.06 0.6 0 0.08 0.6 0 0.1 0.6 0 0 0.605 0 0.02 0.605 0 0.04 0.605 0 0.06 0.605 0 0.08 0.605 0 0.1 0.605 0 0 0.61 0 0.02 0.61 0 0.04 0.61 0 0.06 0.61 0 0.08 0.61 0 0.1 0.61 0 0 0.615 0 0.02 0.615 0 0.04 0.615 0 0.06 0.615 0 0.08 0.615 0 0.1 0.615 0 0 0.62 0 0.02 0.62 0 0.04 0.62 0 0.06 0.62 0 0.08 0.62 0 0.1 0.62 0 0 0.625 0 0.02 0.625 0 0.04 0.625 0 0.06 0.625 0 0.08 0.625 0 0.1 0.625 0 0 0.63 0 0.02 0.63 0 0.04 0.63 0 0.06 0.63 0 0.08 0.63 0 0.1 0.63 0 0 0.635 0 0.02 0.635 0 0.04 0.635 0 0.06 0.635 0 0.08 0.635 0 0.1 0.635 0 0 0.64 0 0.02 0.64 0 0.04 0.64 0 0.06 0.64 0 0.08 0.64 0 0.1 0.64 0 0 0.645 0 0.02 0.645 0 0.04 0.645 0 0.06 0.645 0 0.08 0.645 0 0.1 0.645 0 0 0.65 0 0.02 0.65 0 0.04 0.65 0 0.06 0.65 0 0.08 0.65 0 0.1 0.65 0 0 0.655 0 0.02 0.655 0 0.04 0.655 0 0.06 0.655 0 0.08 0.655 0 0.1 0.655 0 0 0.66 0 0.02 0.66 0 0.04 0.66 0 0.06 0.66 0 0.08 0.66 0 0.1 0.66 0 0 0.665 0 0.02 0.665 0 0.04 0.665 0 0.06 0.665 0 0.08 0.665 0 0.1 0.665 0 0 0.67 0 0.02 0.67 0 0.04 0.67 0 0.06 0.67 0 0.08 0.67 0 0.1 0.67 0 0 0.675 0 0.02 0.675 0 0.04 0.675 0 0.06 0.675 0 0.08 0.675 0 0.1 0.675 0 0 0.68 0 0.02 0.68 0 0.04 0.68 0 0.06 0.68 0 0.08 0.68 0 0.1 0.68 0 0 0.685 0 0.02 0.685 0 0.04 0.685 0 0.06 0.685 0 0.08 0.685 0 0.1 0.685 0 0 0.69 0 0.02 0.69 0 0.04 0.69 0 0.06 0.69 0 0.08 0.69 0 0.1 
[...]
			<PointData Scalars="VitesseX">
				<DataArray Name="VitesseX" type="Float32" format="ascii">
 0 1.92117e-14 1.85168e-14 4.24242e-14 1.59213e-14 0 0 1.56309e-14 2.09338e-14 3.85184e-14 1.94489e-14 0 0 9.06845e-15 2.85133e-14 2.608e-14 3.13752e-14 0 0 1.54672e-14 1.50729e-14 3.88518e-14 2.38062e-14 0 0 1.12441e-14 1.88786e-14 3.65286e-14 2.19302e-14 0 0 -2.16681e-15 4.10905e-14 1.17082e-14 3.40486e-14 0 0 -7.59496e-16 3.08565e-14 2.10926e-14 2.81745e-14 0 0 3.96512e-16 1.70487e-14 3.09686e-14 2.1567e-14 0 0 -5.4263e-15 1.08393e-14 3.56195e-14 1.85749e-14 0 0 -9.71934e-15 1.05617e-14 3.49607e-14 2.16996e-14 0 0 -6.97902e-15 -3.77301e-15 6.05116e-14 1.85679e-16 0 0 -1.63918e-14 1.00629e-14 5.55912e-14 -6.70717e-15 0 0 2.4348e-14 -2.70812e-14 7.58852e-14 -1.91467e-14 0 0 2.43084e-14 1.54236e-15 3.15606e-14 1.60322e-14 0 0 2.52619e-16 4.42653e-14 -1.26359e-15 4.026e-14 0 0 2.06655e-14 -3.56117e-16 5.50276e-14 1.80592e-14 0 0 1.02191e-14 1.42674e-14 5.11288e-14 3.02763e-14 0 0 1.79563e-14 1.51667e-14 6.49224e-14 2.54277e-14 0 0 4.5486e-15 5.07732e-14 3.31411e-14 5.30437e-14 0 0 4.40378e-15 7.80484e-14 -1.49086e-14 8.25164e-14 0 0 4.38141e-14 1.34781e-14 6.88694e-14 1.96352e-15 0 0 3.37392e-14 6.17015e-15 1.01412e-13 -3.3737e-14 0 0 -4.22126e-15 4.74148e-14 4.94043e-14 1.58296e-14 0 0 -9.53285e-15 4.43452e-14 6.88711e-14 2.76781e-15 0 0 2.88093e-14 -1.38562e-15 1.13064e-13 -2.23428e-14 0 0 4.96798e-14 -3.11974e-14 1.16443e-13 -1.00267e-14 0 0 2.10653e-16 5.34717e-14 2.52208e-14 4.35202e-14 0 0 -1.23401e-14 7.55786e-14 1.10132e-14 4.68659e-14 0 0 1.02069e-14 3.97805e-14 5.44161e-14 1.8219e-15 0 0 -3.79885e-15 6.7379e-14 5.2223e-14 -2.09886e-14 0 0 -1.17497e-14 1.27534e-13 -2.84892e-14 5.36062e-14 0 0 3.00555e-14 8.6255e-14 1.48289e-14 3.46364e-14 0 0 1.92619e-14 7.96799e-14 8.35226e-14 -3.6686e-14 0 0 4.44172e-15 1.33952e-13 3.35879e-14 -8.24599e-17 0 0 5.07906e-14 8.91339e-14 6.50018e-14 -7.5747e-16 0 0 4.16841e-14 1.03441e-13 6.49179e-14 -4.39732e-15 0 0 2.29114e-14 1.3602e-13 2.0259e-14 5.14113e-14 0 0 4.90235e-14 9.19325e-14 4.00815e-14 1.02605e-13 0 0 6.50833e-14 1.63313e-14 1.63458e-13 2.21463e-14 0 0 2.03515e-15 3.08347e-14 1.76234e-13 2.4719e-14 0 0 -5.68696e-14 9.42523e-14 8.51067e-14 9.28019e-14 0 0 -9.01462e-14 1.12287e-13 7.87469e-14 6.90163e-14 0 0 -1.44851e-13 1.52391e-13 5.55114e-14 6.63021e-14 0 0 -1.27287e-13 1.26636e-13 8.79927e-14 2.13282e-14 0 0 -5.19868e-14 7.17405e-14 1.14794e-13 -1.0993e-14 0 0 -6.54606e-14 1.33904e-13 4.68898e-14 -1.14832e-14 0 0 -1.35098e-13 1.87997e-13 7.04181e-14 -8.33531e-14 0 0 -7.8554e-14 5.90826e-14 2.42652e-13 -2.09382e-13 0 0 -6.4214e-14 5.35183e-14 2.2752e-13 -1.72959e-13 0 0 -1.43981e-13 2.15434e-13 2.84763e-14 -1.48837e-14 0 0 -1.13073e-13 1.69681e-13 1.10754e-13 -6.12307e-14 0 0 -5.97262e-14 6.95099e-14 2.26902e-13 -7.48658e-14 0 0 -2.13057e-13 3.08404e-13 -5.05526e-14 1.8863e-13 0 0 -1.38503e-13 2.67245e-13 -9.43984e-14 2.92494e-13 0 0 7.35359e-14 -4.27324e-14 1.9544e-13 1.24027e-13 0 0 -3.0856e-14 1.24168e-13 1.01646e-13 1.19018e-13 0 0 -3.41241e-14 1.33481e-13 8.38798e-14 1.2237e-13 0 0 1.99667e-14 -3.36224e-15 2.30819e-13 2.10723e-14 0 0 -6.70164e-14 1.39843e-13 1.58239e-13 -2.98041e-14 0 0 -7.5589e-14 1.35141e-13 2.28564e-13 -1.43119e-13 0 0 -1.03217e-14 4.83193e-15 3.31087e-13 -1.08335e-13 0 0 -2.81177e-14 8.5593e-14 1.54309e-13 1.38436e-13 0 0 -6.46587e-14 1.70065e-13 6.33828e-14 2.32215e-13 0 0 -7.96917e-14 1.60623e-13 1.12686e-13 2.68812e-13 0 0 -1.24888e-13 1.80787e-13 1.54224e-13 3.06558e-13 0 0 -1.08595e-13 1.77461e-13 1.79633e-13 3.05377e-13 0 0 7.79903e-16 9.53883e-14 2.11416e-13 2.7848e-13 0 0 -4.29015e-15 1.29186e-13 2.38706e-13 1.44388e-13 0 0 -4.29598e-14 1.8693e-13 2.95588e-13 -1.08388e-14 0 0 -1.03759e-13 2.27853e-13 3.30998e-13 -6.18162e-14 0 0 -2.00871e-13 3.01042e-13 3.03434e-13 2.84218e-14 0 0 -2.67854e-13 2.60105e-13 4.02192e-13 7.98579e-14 0 0 -2.19175e-13 1.11935e-13 5.28099e-13 5.88526e-14 0 0 -3.21681e-14 -6.06999e-14 5.3449e-13 3.36956e-14 0 0 -1.12902e-13 1.88685e-13 2.08822e-13 1.17321e-13 0 0 -2.9904e-13 4.93108e-13 2.4674e-14 1.11203e-13 0 0 -9.50733e-14 8.04834e-14 4.92582e-13 -1.1603e-13 0 0 3.30357e-14 -1.76828e-13 6.74495e-13 -5.56134e-14 0 0 -1.73921e-13 1.56366e-13 5.04186e-13 5.59811e-14 0 0 -3.58333e-13 6.75039e-13 1.47795e-13 1.12909e-13 0 0 7.12048e-15 3.82122e-13 3.01249e-13 -1.66644e-14 0 0 3.76332e-13 -1.12255e-13 6.79129e-13 -3.0539e-13 0 0 2.03331e-13 1.69079e-13 2.66576e-13 5.24357e-14 0 0 2.43634e-13 3.47785e-13 -2.72835e-13 6.66255e-13 0 0 5.78365e-13 -1.00634e-13 9.97621e-14 4.61782e-13 0 0 5.68367e-13 -3.43521e-13 6.94301e-13 -1.51767e-13 0 0 1.88853e-13 -5.88648e-14 6.23823e-13 -2.27563e-13 0 0 -2.32259e-13 4.76537e-13 3.06284e-13 -1.51372e-13 0 0 -2.34537e-13 6.3255e-13 1.02967e-14 1.45907e-14 0 0 3.41795e-15 5.22503e-13 -7.40803e-14 1.42761e-13 0 0 3.12217e-13 3.22522e-13 -3.79049e-14 2.30067e-13 0 0 5.25161e-13 1.61738e-13 -3.77139e-14 3.59998e-13 0 0 6.43344e-13 8.20512e-14 -6.43586e-14 5.02213e-13 0 0 6.18205e-13 1.16045e-13 -6.94893e-14 5.13234e-13 0 0 5.45567e-13 2.07881e-13 -5.93026e-14 4.88502e-13 0 0 4.51788e-13 2.22306e-13 5.57278e-14 3.4822e-13 0 0 3.41561e-13 2.6322e-13 2.6588e-13 1.23926e-13 0 0 2.47679e-13 3.41925e-13 3.41339e-13 2.71787e-14 0 0 1.93142e-13 3.97232e-13 3.65443e-13 2.40773e-14 0 0 1.73095e-13 4.30211e-13 3.59032e-13 6.46547e-14 0 0 1.28101e-13 5.06497e-13 2.71954e-13 1.52448e-13 0 0 8.29825e-14 6.01797e-13 2.0171e-13 1.97918e-13 0 0 9.18913e-14 6.60824e-13 2.07638e-13 1.89109e-13 0 0 9.23189e-14 6.97192e-13 2.36774e-13 9.22158e-14 0 0 1.18742e-13 6.88881e-13 3.57577e-13 -6.7852e-14 0 0 1.31709e-13 6.13031e-13 5.7298e-13 -2.74041e-13 0 0 8.91084e-14 5.35736e-13 5.33229e-13 -3.76718e-13 0 0 1.06956e-13 4.95161e-13 4.51871e-13 -3.32824e-13 0 0 9.41274e-14 4.68642e-13 3.60976e-13 -2.31594e-13 0 0 9.08047e-14 4.41167e-13 2.68309e-13 -6.41596e-14 0 0 1.25948e-13 3.90437e-13 1.99922e-13 9.17593e-14 0 0 1.44218e-13 3.54129e-13 2.2566e-13 8.78024e-14 0 0 1.51281e-13 3.33479e-13 3.24242e-13 6.65566e-14 0 0 1.47904e-13 3.44948e-13 3.52867e-13 3.12036e-14 0 0 1.28553e-13 3.96269e-13 3.5221e-13 1.49097e-14 0 0 8.36485e-14 5.29712e-13 2.17482e-13 9.97162e-14 0 0 5.38328e-14 6.46474e-13 -6.71839e-15 2.98135e-13 0 0 6.67578e-14 6.51302e-13 -4.83543e-14 3.42939e-13 0 0 1.10737e-13 5.67193e-13 4.46012e-14 2.36966e-13 0 0 1.23147e-13 3.3085e-13 2.51359e-13 8.91925e-14 0 0 1.06541e-13 1.15504e-13 4.55753e-13 -1.53836e-14 0 0 1.06996e-13 -8.47205e-14 6.43605e-13 4.31903e-15 0 0 7.47065e-14 -1.04286e-13 6.315e-13 8.13597e-14 0 0 2.82886e-14 -1.49589e-14 4.82532e-13 2.91837e-13 0 0 5.80866e-14 6.48075e-14 3.00817e-13 3.0534e-13 0 0 6.1675e-14 1.53525e-13 2.13398e-13 2.92993e-13 0 0 9.23116e-14 1.40369e-13 2.24162e-13 2.97881e-13 0 0 1.2095e-13 1.41607e-13 2.29341e-13 2.06821e-13 0 0 9.28271e-14 2.33049e-13 1.74756e-13 1.30353e-13 0 0 9.35302e-14 2.2993e-13 2.09072e-13 5.26141e-14 0 0 1.24011e-13 1.92635e-13 2.90756e-13 -5.04635e-15 0 0 1.12868e-13 1.99344e-13 3.03309e-13 -5.75571e-15 0 0 9.99096e-14 2.43236e-13 2.51461e-13 8.71237e-14 0 0 1.23029e-13 2.46058e-13 2.19388e-13 1.32918e-13 0 0 1.35213e-13 2.53395e-13 2.61163e-13 1.10788e-13 0 0 1.23647e-13 2.73046e-13 2.77797e-13 1.88306e-13 0 0 1.45438e-13 3.24571e-13 2.2022e-13 2.04107e-13 0 0 2.00917e-13 3.2881e-13 2.1525e-13 9.419e-14 0 0 1.76005e-13 3.12008e-13 3.778e-13 5.19593e-15 0 0 1.73461e-13 3.6622e-13 3.98048e-13 -6.61323e-15 0 0 1.88064e-13 4.61121e-13 2.73977e-13 4.9937e-16 0 0 1.66513e-13 4.73533e-13 2.1813e-13 9.69851e-14 0 0 1.87588e-13 3.99024e-13 2.47518e-13 1.95537e-13 0 0 1.98662e-13 3.88726e-13 2.29168e-13 1.88457e-13 0 0 2.03594e-13 3.62863e-13 2.32589e-13 2.33975e-13 0 0 2.86643e-13 1.88941e-13 4.41841e-13 1.71846e-13 0 0 2.00836e-13 2.72144e-13 4.47044e-13 1.24709e-13 0 0 4.86294e-14 4.90633e-13 2.73037e-13 2.14709e-13 0 0 5.61631e-14 4.86758e-13 2.88147e-13 2.36193e-13 0 0 1.21366e-13 3.85805e-13 4.48248e-13 1.29021e-13 0 0 1.90418e-13 2.80081e-13 5.91227e-13 1.15643e-13 0 0 6.74766e-14 5.16406e-13 3.49895e-13 3.76529e-13 0 0 7.00832e-14 5.67677e-13 3.31559e-13 4.1182e-13 0 0 1.49067e-13 4.49475e-13 5.13735e-13 3.24564e-13 0 0 2.06092e-13 3.68384e-13 7.12914e-13 1.69842e-13 0 0 2.01614e-13 4.92151e-13 6.59389e-13 1.25153e-13 0 0 1.41475e-13 7.59221e-13 3.40782e-13 3.75584e-13 0 0 3.557e-13 5.68749e-13 4.64318e-13 4.01744e-13 0 0 5.23929e-13 4.62129e-13 4.9944e-13 4.49806e-13 0 0 6.00965e-13 4.31798e-13 6.15796e-13 2.97151e-13 0 0 5.26477e-13 5.82021e-13 5.86887e-13 1.81181e-13 0 0 3.40829e-13 8.88297e-13 2.63897e-13 4.66996e-13 0 0 1.17523e-13 1.15148e-12 6.68843e-14 5.7759e-13 0 0 3.12446e-13 8.63133e-13 3.64208e-13 3.64146e-13 0 0 6.8033e-13 3.83115e-13 7.84562e-13 1.88539e-13 0 0 6.36723e-13 4.87508e-13 6.68779e-13 2.86442e-13 0 0 6.90247e-13 4.62353e-13 7.48652e-13 1.26548e-13 0 0 4.55866e-13 7.42564e-13 5.98817e-13 9.82858e-14 0 0 1.03895e-13 1.078e-12 3.65465e-13 2.77909e-13 0 0 4.3452e-13 6.14678e-13 6.57798e-13 2.65299e-13 0 0 6.55691e-13 5.56436e-13 5.3752e-13 3.28503e-13 0 0 6.24119e-13 7.15069e-13 3.76495e-13 3.52196e-13 0 0 7.37231e-13 4.49817e-13 6.91336e-13 1.39108e-13 0 0 4.33664e-13 7.77236e-13 4.28691e-13 3.26872e-13 0 0 3.88832e-13 7.95766e-13 4.85328e-13 3.53162e-13 0 0 5.03279e-13 6.82548e-13 6.30052e-13 3.41342e-13 0 0 5.22621e-13 6.24578e-13 6.41687e-13 4.40274e-13 0 0 7.00481e-13 3.28714e-13 9.67501e-13 2.40142e-13 0 0 3.69689e-13 7.78992e-13 5.61564e-13 4.58466e-13 0 0 2.48917e-13 7.47338e-13 6.37586e-13 3.39338e-13 0 0 2.84123e-13 6.27614e-13 6.76571e-13 3.24823e-13 0 0 4.52066e-13 4.58648e-13 6.57323e-13 4.44238e-13 0 0 7.76598e-13 9.03212e-14 7.85753e-13 4.82861e-13 0 0 5.06089e-13 4.91897e-13 4.02705e-13 6.92961e-13 0 0 2.80052e-13 7.42554e-13 2.83294e-13 6.96919e-13 0 0 3.35868e-13 6.84643e-13 3.40245e-13 6.50273e-13 0 0 4.64814e-13 4.63647e-13 6.05617e-13 4.59704e-13 0 0 5.43993e-13 3.05766e-13 6.16268e-13 5.30702e-13 0 0 4.3079e-13 5.47527e-13 2.69242e-13 7.4877e-13 0 0 3.79598e-13 6.39231e-13 2.9459e-13 5.47286e-13 0 0 4.28796e-13 3.50588e-13 8.40327e-13 3.85527e-14 0 0 3.16656e-13 4.90511e-13 7.63191e-13 2.23829e-13 0 0 1.87575e-13 8.1414e-13 3.56597e-13 6.98941e-13 0 0 1.13478e-13 9.51506e-13 2.82689e-13 6.92263e-13 0 0 1.99449e-13 7.36541e-13 5.16413e-13 4.92358e-13 0 0 3.07385e-13 4.05954e-13 8.8913e-13 1.88245e-13 0 0 1.47872e-13 5.21552e-13 1.02005e-12 -1.17404e-13 0 0 -6.38402e-15 8.10356e-13 7.05862e-13 8.99552e-14 0 0 1.41135e-13 6.86768e-13 6.7741e-13 2.84402e-13 0 0 6.09407e-13 -4.48034e-14 1.5985e-12 -3.56687e-13 0 0 8.82554e-13 -4.49616e-13 2.11815e-12 -7.79976e-13 0
				</DataArray>
				<DataArray Name="VitesseY" type="Float32" format="ascii">