<?xml version="1.0"?>
<VTKFile type="PolyData">
	<PolyData>
		<Piece NumberOfPoints="1206" NumberOfPolys="1000">
			<Points>
				<DataArray type="Float32" NumberOfComponents="3" format="ascii">
 0 0 0 0.02 0 0 0.04 0 0 0.06 0 0 0.08 0 0 0.1 0 0 0 0.005 0 0.02 0.005 0 0.04 0.005 0 0.06 0.005 0 0.08 0.005 0 0.1 0.005 0 0 0.01 0 0.02 0.01 0 0.04 0.01 0 0.06 0.01 0 0.08 0.01 0 0.1 0.01 0 0 0.015 0 0.02 0.015 0 0.04 0.015 0 0.06 0.015 0 0.08 0.015 0 0.1 0.015 0 0 0.02 0 0.02 0.02 0 0.04 0.02 0 0.06 0.02 0 0.08 0.02 0 0.1 0.02 0 0 0.025 0 0.02 0.025 0 0.04 0.025 0 0.06 0.025 0 0.08 0.025 0 0.1 0.025 0 0 0.03 0 0.02 0.03 0 0.04 0.03 0 0.06 0.03 0 0.08 0.03 0 0.1 0.03 0 0 0.035 0 0.02 0.035 0 0.04 0.035 0 0.06 0.035 0 0.08 0.035 0 0.1 0.035 0 0 0.04 0 0.02 0.04 0 0.04 0.04 0 0.06 0.04 0 0.08 0.04 0 0.1 0.04 0 0 0.045 0 0.02 0.045 0 0.04 0.045 0 0.06 0.045 0 0.08 0.045 0 0.1 0.045 0 0 0.05 0 0.02 0.05 0 0.04 0.05 0 0.06 0.05 0 0.08 0.05 0 0.1 0.05 0 0 0.055 0 0.02 0.055 0 0.04 0.055 0 0.06 0.055 0 0.08 0.055 0 0.1 0.055 0 0 0.06 0 0.02 0.06 0 0.04 0.06 0 0.06 0.06 0 0.08 0.06 0 0.1 0.06 0 0 0.065 0 0.02 0.065 0 0.04 0.065 0 0.06 0.065 0 0.08 0.065 0 0.1 0.065 0 0 0.07 0 0.02 0.07 0 0.04 0.07 0 0.06 0.07 0 0.08 0.07 0 0.1 0.07 0 0 0.075 0 0.02 0.075 0 0.04 0.075 0 0.06 0.075 0 0.08 0.075 0 0.1 0.075 0 0 0.08 0 0.02 0.08 0 0.04 0.08 0 0.06 0.08 0 0.08 0.08 0 0.1 0.08 0 0 0.085 0 0.02 0.085 0 0.04 0.085 0 0.06 0.085 0 0.08 0.085 0 0.1 0.085 0 0 0.09 0 0.02 0.09 0 0.04 0.09 0 0.06 0.09 0 0.08 0.09 0 0.1 0.09 0 0 0.095 0 0.02 0.095 0 0.04 0.095 0 0.06 0.095 0 0.08 0.095 0 0.1 0.095 0 0 0.1 0 0.02 0.1 0 0.04 0.1 0 0.06 0.1 0 0.08 0.1 0 0.1 0.1 0 0 0.105 0 0.02 0.105 0 0.04 0.105 0 0.06 0.105 0 0.08 0.105 0 0.1 0.105 0 0 0.11 0 0.02 0.11 0 0.04 0.11 0 0.06 0.11 0 0.08 0.11 0 0.1 0.11 0 0 0.115 0 0.02 0.115 0 0.04 0.115 0 0.06 0.115 0 0.08 0.115 0 0.1 0.115 0 0 0.12 0 0.02 0.12 0 0.04 0.12 0 0.06 0.12 0 0.08 0.12 0 0.1 0.12 0 0 0.125 0 0.02 0.125 0 0.04 0.125 0 0.06 0.125 0 0.08 0.125 0 0.1 0.125 0 0 0.13 0 0.02 0.13 0 0.04 0.13 0 0.06 0.13 0 0.08 0.13 0 0.1 0.13 0 0 0.135 0 0.02 0.135 0 0.04 0.135 0 0.06 0.135 0 0.08 0.135 0 0.1 0.135 0 0 0.14 0 0.02 0.14 0 0.04 0.14 0 0.06 0.14 0 0.08 0.14 0 0.1 0.14 0 0 0.145 0 0.02 0.145 0 0.04 0.145 0 0.06 0.145 0 0.08 0.145 0 0.1 0.145 0 0 0.15 0 0.02 0.15 0 0.04 0.15 0 0.06 0.15 0 0.08 0.15 0 0.1 0.15 0 0 0.155 0 0.02 0.155 0 0.04 0.155 0 0.06 0.155 0 0.08 0.155 0 0.1 0.155 0 0 0.16 0 0.02 0.16 0 0.04 0.16 0 0.06 0.16 0 0.08 0.16 0 0.1 0.16 0 0 0.165 0 0.02 0.165 0 0.04 0.165 0 0.06 0.165 0 0.08 0.165 0 0.1 0.165 0 0 0.17 0 0.02 0.17 0 0.04 0.17 0 0.06 0.17 0 0.08 0.17 0 0.1 0.17 0 0 0.175 0 0.02 0.175 0 0.04 0.175 0 0.06 0.175 0 0.08 0.175 0 0.1 0.175 0 0 0.18 0 0.02 0.18 0 0.04 0.18 0 0.06 0.18 0 0.08 0.18 0 0.1 0.18 0 0 0.185 0 0.02 0.185 0 0.04 0.185 0 0.06 0.185 0 0.08 0.185 0 0.1 0.185 0 0 0.19 0 0.02 0.19 0 0.04 0.19 0 0.06 0.19 0 0.08 0.19 0 0.1 0.19 0 0 0.195 0 0.02 0.195 0 0.04 0.195 0 0.06 0.195 0 0.08 0.195 0 0.1 0.195 0 0 0.2 0 0.02 0.2 0 0.04 0.2 0 0.06 0.2 0 0.08 0.2 0 0.1 0.2 0 0 0.205 0 0.02 0.205 0 0.04 0.205 0 0.06 0.205 0 0.08 0.205 0 0.1 0.205 0 0 0.21 0 0.02 0.21 0 0.04 0.21 0 0.06 0.21 0 0.08 0.21 0 0.1 0.21 0 0 0.215 0 0.02 0.215 0 0.04 0.215 0 0.06 0.215 0 0.08 0.215 0 0.1 0.215 0 0 0.22 0 0.02 0.22 0 0.04 0.22 0 0.06 0.22 0 0.08 0.22 0 0.1 0.22 0 0 0.225 0 0.02 0.225 0 0.04 0.225 0 0.06 0.225 0 0.08 0.225 0 0.1 0.225 0 0 0.23 0 0.02 0.23 0 0.04 0.23 0 0.06 0.23 0 0.08 0.23 0 0.1 0.23 0 0 0.235 0 0.02 0.235 0 0.04 0.235 0 0.06 0.235 0 0.08 0.235 0 0.1 0.235 0 0 0.24 0 0.02 0.24 0 0.04 0.24 0 0.06 0.24 0 0.08 0.24 0 0.1 0.24 0 0 0.245 0 0.02 0.245 0 0.04 0.245 0 0.06 0.245 0 0.08 0.245 0 0.1 0.245 0 0 0.25 0 0.02 0.25 0 0.04 0.25 0 0.06 0.25 0 0.08 0.25 0 0.1 0.25 0 0 0.255 0 0.02 0.255 0 0.04 0.255 0 0.06 0.255 0 0.08 0.255 0 0.1 0.255 0 0 0.26 0 0.02 0.26 0 0.04 0.26 0 0.06 0.26 0 0.08 0.26 0 0.1 0.26 0 0 0.265 0 0.02 0.265 0 0.04 0.265 0 0.06 0.265 0 0.08 0.265 0 0.1 0.265 0 0 0.27 0 0.02 0.27 0 0.04 0.27 0 0.06 0.27 0 0.08 0.27 0 0.1 0.27 0 0 0.275 0 0.02 0.275 0 0.04 0.275 0 0.06 0.275 0 0.08 0.275 0 0.1 0.275 0 0 0.28 0 0.02 0.28 0 0.04 0.28 0 0.06 0.28 0 0.08 0.28 0 0.1 0.28 0 0 0.285 0 0.02 0.285 0 0.04 0.285 0 0.06 0.285 0 0.08 0.285 0 0.1 0.285 0 0 0.29 0 0.02 0.29 0 0.04 0.29 0 0.06 0.29 0 0.08 0.29 0 0.1 0.29 0 0 0.295 0 0.02 0.295 0 0.04 0.295 0 0.06 0.295 0 0.08 0.295 0 0.1 0.295 0 0 0.3 0 0.02 0.3 0 0.04 0.3 0 0.06 0.3 0 0.08 0.3 0 0.1 0.3 0 0 0.305 0 0.02 0.305 0 0.04 0.305 0 0.06 0.305 0 0.08 0.305 0 0.1 0.305 0 0 0.31 0 0.02 0.31 0 0.04 0.31 0 0.06 0.31 0 0.08 0.31 0 0.1 0.31 0 0 0.315 0 0.02 0.315 0 0.04 0.315 0 0.06 0.315 0 0.08 0.315 0 0.1 0.315 0 0 0.32 0 0.02 0.32 0 0.04 0.32 0 0.06 0.32 0 0.08 0.32 0 0.1 0.32 0 0 0.325 0 0.02 0.325 0 0.04 0.325 0 0.06 0.325 0 0.08 0.325 0 0.1 0.325 0 0 0.33 0 0.02 0.33 0 0.04 0.33 0 0.06 0.33 0 0.08 0.33 0 0.1 0.33 0 0 0.335 0 0.02 0.335 0 0.04 0.335 0 0.06 0.335 0 0.08 0.335 0 0.1 0.335 0 0 0.34 0 0.02 0.34 0 0.04 0.34 0 0.06 0.34 0 0.08 0.34 0 0.1 0.34 0 0 0.345 0 0.02 0.345 0 0.04 0.345 0 0.06 0.345 0 0.08 0.345 0 0.1 0.345 0 0 0.35 0 0.02 0.35 0 0.04 0.35 0 0.06 0.35 0 0.08 0.35 0 0.1 0.35 0 0 0.355 0 0.02 0.355 0 0.04 0.355 0 0.06 0.355 0 0.08 0.355 0 0.1 0.355 0 0 0.36 0 0.02 0.36 0 0.04 0.36 0 0.06 0.36 0 0.08 0.36 0 0.1 0.36 0 0 0.365 0 0.02 0.365 0 0.04 0.365 0 0.06 0.365 0 0.08 0.365 0 0.1 0.365 0 0 0.37 0 0.02 0.37 0 0.04 0.37 0 0.06 0.37 0 0.08 0.37 0 0.1 0.37 0 0 0.375 0 0.02 0.375 0 0.04 0.375 0 0.06 0.375 0 0.08 0.375 0 0.1 0.375 0 0 0.38 0 0.02 0.38 0 0.04 0.38 0 0.06 0.38 0 0.08 0.38 0 0.1 0.38 0 0 0.385 0 0.02 0.385 0 0.04 0.385 0 0.06 0.385 0 0.08 0.385 0 0.1 0.385 0 0 0.39 0 0.02 0.39 0 0.04 0.39 0 0.06 0.39 0 0.08 0.39 0 0.1 0.39 0 0 0.395 0 0.02 0.395 0 0.04 0.395 0 0.06 0.395 0 0.08 0.395 0 0.1 0.395 0 0 0.4 0 0.02 0.4 0 0.04 0.4 0 0.06 0.4 0 0.08 0.4 0 0.1 0.4 0 0 0.405 0 0.02 0.405 0 0.04 0.405 0 0.06 0.405 0 0.08 0.405 0 0.1 0.405 0 0 0.41 0 0.02 0.41 0 0.04 0.41 0 0.06 0.41 0 0.08 0.41 0 0.1 0.41 0 0 0.415 0 0.02 0.415 0 0.04 0.415 0 0.06 0.415 0 0.08 0.415 0 0.1 0.415 0 0 0.42 0 0.02 0.42 0 0.04 0.42 0 0.06 0.42 0 0.08 0.42 0 0.1 0.42 0 0 0.425 0 0.02 0.425 0 0.04 0.425 0 0.06 0.425 0 0.08 0.425 0 0.1 0.425 0 0 0.43 0 0.02 0.43 0 0.04 0.43 0 0.06 0.43 0 0.08 0.43 0 0.1 0.43 0 0 0.435 0 0.02 0.435 0 0.04 0.435 0 0.06 0.435 0 0.08 0.435 0 0.1 0.435 0 0 0.44 0 0.02 0.44 0 0.04 0.44 0 0.06 0.44 0 0.08 0.44 0 0.1 0.44 0 0 0.445 0 0.02 0.445 0 0.04 0.445 0 0.06 0.445 0 0.08 0.445 0 0.1 0.445 0 0 0.45 0 0.02 0.45 0 0.04 0.45 0 0.06 0.45 0 0.08 0.45 0 0.1 0.45 0 0 0.455 0 0.02 0.455 0 0.04 0.455 0 0.06 0.455 0 0.08 0.455 0 0.1 0.455 0 0 0.46 0 0.02 0.46 0 0.04 0.46 0 0.06 0.46 0 0.08 0.46 0 0.1 0.46 0 0 0.465 0 0.02 0.465 0 0.04 0.465 0 0.06 0.465 0 0.08 0.465 0 0.1 0.465 0 0 0.47 0 0.02 0.47 0 0.04 0.47 0 0.06 0.47 0 0.08 0.47 0 0.1 0.47 0 0 0.475 0 0.02 0.475 0 0.04 0.475 0 0.06 0.475 0 0.08 0.475 0 0.1 0.475 0 0 0.48 0 0.02 0.48 0 0.04 0.48 0 0.06 0.48 0 0.08 0.48 0 0.1 0.48 0 0 0.485 0 0.02 0.485 0 0.04 0.485 0 0.06 0.485 0 0.08 0.485 0 0.1 0.485 0 0 0.49 0 0.02 0.49 0 0.04 0.49 0 0.06 0.49 0 0.08 0.49 0 0.1 0.49 0 0 0.495 0 0.02 0.495 0 0.04 0.495 0 0.06 0.495 0 0.08 0.495 0 0.1 0.495 0 0 0.5 0 0.02 0.5 0 0.04 0.5 0 0.06 0.5 0 0.08 0.5 0 0.1 0.5 0 0 0.505 0 0.02 0.505 0 0.04 0.505 0 0.06 0.505 0 0.08 0.505 0 0.1 0.505 0 0 0.51 0 0.02 0.51 0 0.04 0.51 0 0.06 0.51 0 0.08 0.51 0 0.1 0.51 0 0 0.515 0 0.02 0.515 0 0.04 0.515 0 0.06 0.515 0 0.08 0.515 0 0.1 0.515 0 0 0.52 0 0.02 0.52 0 0.04 0.52 0 0.06 0.52 0 0.08 0.52 0 0.1 0.52 0 0 0.525 0 0.02 0.525 0 0.04 0.525 0 0.06 0.525 0 0.08 0.525 0 0.1 0.525 0 0 0.53 0 0.02 0.53 0 0.04 0.53 0 0.06 0.53 0 0.08 0.53 0 0.1 0.53 0 0 0.535 0 0.02 0.535 0 0.04 0.535 0 0.06 0.535 0 0.08 0.535 0 0.1 0.535 0 0 0.54 0 0.02 0.54 0 0.04 0.54 0 0.06 0.54 0 0.08 0.54 0 0.1 0.54 0 0 0.545 0 0.02 0.545 0 0.04 0.545 0 0.06 0.545 0 0.08 0.545 0 0.1 0.545 0 0 0.55 0 0.02 0.55 0 0.04 0.55 0 0.06 0.55 0 0.08 0.55 0 0.1 0.55 0 0 0.555 0 0.02 0.555 0 0.04 0.555 0 0.06 0.555 0 0.08 0.555 0 0.1 0.555 0 0 0.56 0 0.02 0.56 0 0.04 0.56 0 0.06 0.56 0 0.08 0.56 0 0.1 0.56 0 0 0.565 0 0.02 0.565 0 0.04 0.565 0 0.06 0.565 0 0.08 0.565 0 0.1 0.565 0 0 0.57 0 0.02 0.57 0 0.04 0.57 0 0.06 0.57 0 0.08 0.57 0 0.1 0.57 0 0 0.575 0 0.02 0.575 0 0.04 0.575 0 0.06 0.575 0 0.08 0.575 0 0.1 0.575 0 0 0.58 0 0.02 0.58 0 0.04 0.58 0 0.06 0.58 0 0.08 0.58 0 0.1 0.58 0 0 0.585 0 0.02 0.585 0 0.04 0.585 0 0.06 0.585 0 0.08 0.585 0 0.1 0.585 0 0 0.59 0 0.02 0.59 0 0.04 0.59 0 0.06 0.59 0 0.08 0.59 0 0.1 0.59 0 0 0.595 0 0.02 0.595 0 0.04 0.595 0 0.06 0.595 0 0.08 0.595 0 0.1 0.595 0 0 0.6 0 0.02 0.6 0 0.04 0.6 0 0.06 0.6 0 0.08 0.6 0 0.1 0.6 0 0 0.605 0 0.02 0.605 0 0.04 0.605 0 0.06 0.605 0 0.08 0.605 0 0.1 0.605 0 0 0.61 0 0.02 0.61 0 0.04 0.61 0 0.06 0.61 0 0.08 0.61 0 0.1 0.61 0 0 0.615 0 0.02 0.615 0 0.04 0.615 0 0.06 0.615 0 0.08 0.615 0 0.1 0.615 0 0 0.62 0 0.02 0.62 0 0.04 0.62 0 0.06 0.62 0 0.08 0.62 0 0.1 0.62 0 0 0.625 0 0.02 0.625 0 0.04 0.625 0 0.06 0.625 0 0.08 0.625 0 0.1 0.625 0 0 0.63 0 0.02 0.63 0 0.04 0.63 0 0.06 0.63 0 0.08 0.63 0 0.1 0.63 0 0 0.635 0 0.02 0.635 0 0.04 0.635 0 0.06 0.635 0 0.08 0.635 0 0.1 0.635 0 0 0.64 0 0.02 0.64 0 0.04 0.64 0 0.06 0.64 0 0.08 0.64 0 0.1 0.64 0 0 0.645 0 0.02 0.645 0 0.04 0.645 0 0.06 0.645 0 0.08 0.645 0 0.1 0.645 0 0 0.65 0 0.02 0.65 0 0.04 0.65 0 0.06 0.65 0 0.08 0.65 0 0.1 0.65 0 0 0.655 0 0.02 0.655 0 0.04 0.655 0 0.06 0.655 0 0.08 0.655 0 0.1 0.655 0 0 0.66 0 0.02 0.66 0 0.04 0.66 0 0.06 0.66 0 0.08 0.66 0 0.1 0.66 0 0 0.665 0 0.02 0.665 0 0.04 0.665 0 0.06 0.665 0 0.08 0.665 0 0.1 0.665 0 0 0.67 0 0.02 0.67 0 0.04 0.67 0 0.06 0.67 0 0.08 0.67 0 0.1 0.67 0 0 0.675 0 0.02 0.675 0 0.04 0.675 0 0.06 0.675 0 0.08 0.675 0 0.1 0.675 0 0 0.68 0 0.02 0.68 0 0.04 0.68 0 0.06 0.68 0 0.08 0.68 0 0.1 0.68 0 0 0.685 0 0.02 0.685 0 0.04 0.685 0 0.06 0.685 0 0.08 0.685 0 0.1 0.685 0 0 0.69 0 0.02 0.69 0 0.04 0.69 0 0.06 0.69 0 0.08 0.69 0 0.1 
[...]
			<PointData Scalars="VitesseX">
				<DataArray Name="VitesseX" type="Float32" format="ascii">
 0 -1.65719e-14 -1.52462e-14 -1.46268e-14 -2.22439e-14 0 0 -1.60071e-14 -1.61809e-14 -1.46057e-14 -2.05535e-14 0 0 -1.54397e-14 -1.72411e-14 -1.52888e-14 -2.03549e-14 0 0 -1.70785e-14 -1.84878e-14 -1.2587e-14 -2.36482e-14 0 0 -1.96277e-14 -1.84515e-14 -1.17194e-14 -1.96928e-14 0 0 -2.29525e-14 -1.47246e-14 -1.86164e-14 -8.34884e-15 0 0 -2.0211e-14 -1.98952e-14 -1.89078e-14 -5.89404e-16 0 0 -2.00937e-14 -2.36985e-14 -1.46965e-14 -3.59315e-15 0 0 -2.10555e-14 -2.3226e-14 -1.83152e-14 1.56403e-15 0 0 -1.83583e-14 -2.96952e-14 -1.75988e-14 1.09855e-14 0 0 -2.27446e-14 -2.4759e-14 -2.12547e-14 1.17422e-14 0 0 -4.05613e-14 8.13492e-15 -4.5259e-14 2.03355e-14 0 0 -2.52258e-14 -7.04079e-15 -2.89418e-14 1.24892e-14 0 0 -2.18399e-14 -3.62341e-15 -3.16452e-14 1.50166e-14 0 0 -1.75651e-14 -5.57386e-15 -2.26856e-14 9.12225e-15 0 0 1.09191e-15 -4.39114e-14 1.97661e-14 -6.3263e-15 0 0 -2.34891e-14 -1.88774e-14 -6.53409e-15 2.04544e-14 0 0 -2.85396e-14 -1.70831e-14 -3.81112e-15 2.46166e-14 0 0 -2.87697e-14 -9.61807e-15 -1.51733e-14 3.57543e-14 0 0 -2.10325e-14 -1.74805e-15 -4.4722e-14 5.1744e-14 0 0 2.89388e-15 -1.68817e-14 -7.24088e-14 7.2041e-14 0 0 -1.3248e-15 -1.85833e-14 -7.1958e-14 6.12422e-14 0 0 -6.89764e-15 -5.92427e-14 3.26924e-14 -3.52135e-14 0 0 -1.48656e-14 -4.99792e-14 6.61234e-15 -2.63403e-14 0 0 -2.95556e-15 -3.43866e-14 -6.61277e-14 2.68171e-14 0 0 4.21631e-14 -9.27663e-14 -7.46693e-15 -2.21356e-14 0 0 -2.36895e-14 2.86953e-14 -1.13621e-13 3.05537e-14 0 0 -4.87646e-14 5.94377e-14 -1.06296e-13 1.15737e-14 0 0 1.72964e-14 -8.20346e-14 6.92081e-14 -1.00152e-13 0 0 1.00103e-14 -8.11715e-14 4.57185e-14 -5.57366e-14 0 0 -5.37138e-14 1.13764e-14 -6.27579e-14 3.23566e-14 0 0 -4.44037e-14 -2.44575e-14 -2.15839e-14 2.48886e-14 0 0 -2.83436e-14 -4.91753e-14 -7.65808e-15 3.86319e-14 0 0 -3.94333e-14 -2.37832e-14 -3.12987e-14 6.3797e-14 0 0 -6.30458e-15 -7.60644e-14 2.37619e-14 5.53478e-14 0 0 9.58377e-15 -8.91304e-14 2.94198e-14 7.30107e-14 0 0 -1.27816e-14 -4.60312e-14 -3.70176e-15 7.32111e-14 0 0 1.51738e-14 -6.25407e-14 -1.06637e-14 7.29864e-14 0 0 -1.02931e-14 -4.02483e-14 -3.24148e-14 6.54502e-14 0 0 -4.91028e-14 1.98096e-14 -8.15166e-14 2.2846e-14 0 0 5.70093e-15 -5.85645e-14 5.05996e-15 -5.14645e-14 0 0 -3.56405e-15 -8.50262e-14 7.33839e-14 -6.29402e-14 0 0 -1.19271e-14 -3.06072e-14 2.94383e-14 -3.47044e-14 0 0 -1.29844e-14 3.01391e-14 -7.2204e-14 2.7376e-14 0 0 -1.48281e-14 -6.09602e-15 -9.20449e-14 9.01982e-14 0 0 -3.19662e-14 -6.77834e-14 -6.4268e-14 1.15756e-13 0 0 -4.11833e-14 -3.31781e-14 -1.44384e-13 1.69874e-13 0 0 -1.08114e-14 -3.36857e-14 -1.88357e-13 1.6449e-13 0 0 7.90377e-14 -1.79316e-13 -1.0971e-13 7.441e-14 0 0 1.14587e-13 -2.04222e-13 -1.29406e-13 6.42344e-14 0 0 3.83928e-15 1.30423e-14 -2.63225e-13 6.77067e-14 0 0 -8.47331e-14 7.76956e-14 -1.37226e-13 -1.07621e-13 0 0 -1.25123e-14 -1.4339e-13 5.30244e-14 -1.60415e-13 0 0 6.60055e-14 -2.99534e-13 9.54404e-15 -1.44774e-14 0 0 3.65424e-14 -2.61512e-13 -9.52325e-14 3.27046e-14 0 0 -1.03736e-13 -8.81485e-14 -2.30696e-13 3.63901e-14 0 0 -1.49784e-13 2.36586e-14 -2.71268e-13 -2.07339e-14 0 0 -8.88777e-15 -1.0549e-13 -1.70781e-13 -7.40974e-14 0 0 -1.22114e-14 -6.47324e-14 -2.03531e-13 -1.04181e-14 0 0 -1.07634e-13 1.59432e-14 -2.13129e-13 2.08065e-14 0 0 -1.2651e-13 -1.03343e-13 -9.83537e-14 5.18544e-14 0 0 -1.54034e-13 -1.20392e-13 -1.38022e-13 1.48775e-13 0 0 -2.01386e-13 -1.63637e-13 -9.21965e-14 1.64405e-13 0 0 -2.0319e-13 -1.88064e-13 -7.39414e-14 1.33189e-13 0 0 -2.42889e-13 -1.23287e-13 -1.54911e-13 1.05341e-13 0 0 -2.78997e-13 -1.50729e-13 -1.25498e-13 1.55075e-14 0 0 -2.32317e-13 -2.49599e-13 -5.52159e-14 -9.92767e-14 0 0 -1.19018e-13 -3.64118e-13 -5.82972e-14 -8.4661e-14 0 0 -1.34787e-13 -3.48024e-13 -1.69066e-13 2.62316e-15 0 0 -1.9463e-13 -3.16127e-13 -2.38648e-13 1.2285e-13 0 0 -2.24642e-13 -3.35184e-13 -1.93153e-13 1.14975e-13 0 0 -2.11426e-13 -4.01876e-13 -9.88605e-14 8.02712e-14 0 0 -1.94836e-13 -4.78129e-13 -9.81459e-14 8.32245e-14 0 0 -1.97234e-13 -4.64066e-13 -1.45301e-13 1.49068e-13 0 0 -2.18399e-13 -4.18106e-13 -2.69246e-13 2.93721e-13 0 0 -2.33211e-13 -3.46674e-13 -3.79209e-13 3.18467e-13 0 0 -2.27419e-13 -2.85968e-13 -3.94098e-13 2.93378e-13 0 0 -2.05764e-13 -2.41236e-13 -3.80037e-13 1.94798e-13 0 0 -1.64008e-13 -2.35979e-13 -3.2588e-13 8.28822e-14 0 0 -1.12995e-13 -2.42268e-13 -2.33417e-13 6.41952e-14 0 0 -5.10854e-14 -2.54996e-13 -1.7644e-13 7.68425e-14 0 0 1.16881e-14 -2.58107e-13 -1.82106e-13 1.50343e-13 0 0 5.79926e-14 -2.40857e-13 -2.1734e-13 2.6155e-13 0 0 7.52621e-14 -1.90822e-13 -3.00879e-13 3.40373e-13 0 0 8.21401e-14 -1.5294e-13 -3.67338e-13 3.42035e-13 0 0 9.22671e-14 -1.54287e-13 -3.64267e-13 3.16728e-13 0 0 1.11193e-13 -1.71602e-13 -3.22525e-13 2.29206e-13 0 0 1.07871e-13 -1.83629e-13 -2.4848e-13 1.20257e-13 0 0 8.97534e-14 -1.81814e-13 -1.94563e-13 2.02293e-14 0 0 3.53853e-14 -1.49546e-13 -1.87975e-13 -6.14754e-14 0 0 -2.84295e-14 -9.29578e-14 -1.96902e-13 -1.31029e-13 0 0 -9.10025e-14 -3.91011e-14 -2.10595e-13 -1.48106e-13 0 0 -1.15731e-13 -1.79533e-14 -2.22245e-13 -1.42344e-13 0 0 -1.22422e-13 -1.33583e-15 -2.47972e-13 -1.05028e-13 0 0 -1.22431e-13 9.25841e-15 -2.74067e-13 -5.77261e-14 0 0 -1.00278e-13 -5.10269e-15 -2.87373e-13 -2.65685e-14 0 0 -5.23215e-14 -4.68728e-14 -3.00484e-13 -3.42802e-15 0 0 -6.35023e-15 -9.18103e-14 -3.13411e-13 7.3579e-15 0 0 3.7671e-14 -1.4517e-13 -3.0995e-13 1.30758e-15 0 0 8.14709e-14 -1.97574e-13 -3.04446e-13 -2.5932e-14 0 0 1.22631e-13 -2.42138e-13 -3.12911e-13 -5.06547e-14 0 0 1.67276e-13 -2.80342e-13 -3.38734e-13 -8.70769e-14 0 0 2.10941e-13 -3.17232e-13 -3.42894e-13 -1.40621e-13 0 0 2.44801e-13 -3.34163e-13 -3.4687e-13 -1.75167e-13 0 0 2.69151e-13 -3.1983e-13 -3.63668e-13 -1.75314e-13 0 0 2.54747e-13 -2.90183e-13 -3.68559e-13 -1.82872e-13 0 0 2.09156e-13 -2.66985e-13 -3.43938e-13 -1.95149e-13 0 0 1.53623e-13 -2.34466e-13 -3.32891e-13 -2.28479e-13 0 0 9.31312e-14 -1.71207e-13 -3.35248e-13 -2.91776e-13 0 0 2.16237e-14 -7.44464e-14 -4.07272e-13 -2.9206e-13 0 0 -2.06455e-14 -6.04772e-14 -4.2819e-13 -2.89945e-13 0 0 -2.68756e-14 -1.13353e-13 -3.30303e-13 -3.66593e-13 0 0 -4.7982e-14 -1.59101e-13 -1.93015e-13 -5.00565e-13 0 0 -1.08982e-13 -1.65836e-13 -1.65569e-13 -5.30765e-13 0 0 -1.39712e-13 -1.41072e-13 -2.18476e-13 -4.58045e-13 0 0 -1.2974e-13 -1.20832e-13 -3.07924e-13 -2.81457e-13 0 0 -1.08258e-13 -1.38807e-13 -3.30083e-13 -2.52535e-13 0 0 -4.6996e-14 -2.07674e-13 -3.5417e-13 -2.0252e-13 0 0 -4.32005e-14 -2.09385e-13 -4.09324e-13 -8.64299e-14 0 0 -6.51001e-14 -2.19608e-13 -3.87696e-13 -1.09319e-13 0 0 -8.04584e-14 -2.63556e-13 -2.53404e-13 -1.72922e-13 0 0 -1.37502e-13 -2.47995e-13 -2.31653e-13 -2.05005e-13 0 0 -2.33503e-13 -1.99552e-13 -2.22882e-13 -2.80764e-13 0 0 -3.25501e-13 -1.67633e-13 -2.4467e-13 -3.25986e-13 0 0 -3.36341e-13 -1.73912e-13 -2.89455e-13 -2.90631e-13 0 0 -3.1067e-13 -3.02095e-13 -2.24339e-13 -3.00324e-13 0 0 -2.79421e-13 -3.62439e-13 -1.94e-13 -3.02542e-13 0 0 -2.76435e-13 -3.12767e-13 -3.02816e-13 -1.91729e-13 0 0 -2.11361e-13 -3.35351e-13 -3.00909e-13 -1.27475e-13 0 0 -8.90461e-14 -3.49414e-13 -2.79299e-13 -1.16461e-13 0 0 -5.53232e-14 -3.16818e-13 -2.9732e-13 -9.96047e-14 0 0 -2.80508e-14 -2.68615e-13 -3.0026e-13 -6.37139e-14 0 0 -3.14926e-14 -1.52042e-13 -3.04035e-13 -2.74165e-14 0 0 -4.45196e-14 -1.10834e-13 -2.59473e-13 -1.24159e-13 0 0 -7.54032e-14 -6.0928e-14 -2.77178e-13 -1.18924e-13 0 0 -1.64799e-13 -2.06115e-15 -3.37543e-13 -3.34501e-14 0 0 -1.10779e-13 -1.15215e-13 -2.46453e-13 -1.02912e-13 0 0 -1.01863e-13 -2.55865e-13 -1.6283e-13 -1.20348e-13 0 0 -1.68752e-13 -2.57179e-13 -1.00952e-13 -1.74807e-13 0 0 -2.10684e-13 -2.81278e-13 -1.23906e-13 -1.18703e-13 0 0 -2.06223e-13 -2.16617e-13 -3.36825e-13 1.39957e-13 0 0 -1.43915e-13 -2.24301e-13 -2.81112e-13 6.45751e-14 0 0 -1.27316e-13 -2.21817e-13 -1.68738e-13 -2.06956e-13 0 0 -1.09443e-13 -2.26344e-13 -9.37057e-14 -3.02885e-13 0 0 -9.532e-14 -2.01927e-13 -1.23561e-13 -2.74012e-13 0 0 -8.88515e-14 -1.62267e-13 -1.97605e-13 -2.09891e-13 0 0 -9.16442e-14 -1.54162e-13 -2.48277e-13 -1.20424e-13 0 0 -1.03392e-13 -1.58185e-13 -2.48432e-13 -8.5026e-14 0 0 -1.24327e-13 -1.89639e-13 -1.70207e-13 -1.36055e-13 0 0 -1.55073e-13 -1.99484e-13 -1.6912e-13 -1.03601e-13 0 0 -1.7936e-13 -2.35677e-13 -1.87386e-13 -2.24294e-14 0 0 -1.99356e-13 -3.20732e-13 -1.17841e-13 -7.42152e-14 0 0 -2.10354e-13 -3.84037e-13 -8.69214e-14 -1.6122e-13 0 0 -2.18074e-13 -3.54457e-13 -2.48771e-13 -1.58416e-13 0 0 -2.41056e-13 -2.89863e-13 -4.48114e-13 -2.11671e-13 0 0 -2.37503e-13 -2.92155e-13 -4.8313e-13 -3.67461e-13 0 0 -2.64462e-13 -2.3765e-13 -5.39877e-13 -4.67597e-13 0 0 -2.67889e-13 -2.02755e-13 -5.17804e-13 -4.87052e-13 0 0 -2.24339e-13 -2.60003e-13 -4.89138e-13 -2.86865e-13 0 0 -2.20565e-13 -3.33738e-13 -3.95556e-13 4.15019e-14 0 0 -2.15633e-13 -3.92229e-13 -2.20711e-13 2.0266e-13 0 0 -2.38792e-13 -4.14071e-13 -2.19585e-14 1.76202e-14 0 0 -2.90458e-13 -3.39134e-13 -6.98416e-14 -4.52879e-14 0 0 -2.72345e-13 -2.30985e-13 -2.6624e-13 5.58071e-14 0 0 -2.24751e-13 -2.38791e-13 -2.333e-13 4.64914e-14 0 0 -2.39151e-13 -1.92806e-13 -2.55572e-13 -7.605e-15 0 0 -2.12494e-13 -1.55919e-13 -3.08804e-13 -1.96647e-14 0 0 -1.23176e-13 -2.89551e-13 -3.13933e-13 -3.90163e-14 0 0 -5.62735e-14 -5.22047e-13 -1.50469e-13 -2.11452e-13 0 0 -1.34594e-13 -4.11578e-13 -3.90128e-13 -2.1208e-14 0 0 -2.86926e-13 -2.15231e-13 -6.68198e-13 4.4192e-14 0 0 -2.8173e-13 -3.02907e-13 -5.32054e-13 -2.24973e-13 0 0 -2.34135e-13 -4.0158e-13 -4.16117e-13 -3.48016e-13 0 0 -1.78558e-13 -5.01668e-13 -2.75035e-13 -4.3602e-13 0 0 -2.63591e-13 -4.02203e-13 -3.91509e-13 -3.22636e-13 0 0 -2.58483e-13 -4.52754e-13 -3.93479e-13 -2.6059e-13 0 0 -1.84058e-13 -5.56865e-13 -3.22559e-13 -3.27149e-13 0 0 -2.14732e-13 -4.80159e-13 -3.70319e-13 -3.9496e-13 0 0 -2.72099e-13 -4.10256e-13 -4.51836e-13 -3.59545e-13 0 0 -2.37089e-13 -4.61374e-13 -4.42827e-13 -3.04093e-13 0 0 -1.96783e-13 -4.66422e-13 -5.16085e-13 -1.32284e-13 0 0 -1.6396e-13 -5.02267e-13 -5.10203e-13 -1.14169e-13 0 0 -8.35542e-14 -6.09989e-13 -4.07704e-13 -2.10118e-13 0 0 -1.65204e-13 -4.82963e-13 -4.8184e-13 -1.66798e-13 0 0 -1.84425e-13 -4.63933e-13 -4.49811e-13 -1.57961e-13 0 0 -1.95682e-13 -4.19272e-13 -4.97572e-13 -1.32704e-13 0 0 -2.77594e-13 -2.54036e-13 -6.15961e-13 -1.79121e-13 0 0 -2.03964e-13 -3.74089e-13 -4.8275e-13 -2.6165e-13 0 0 -2.10647e-13 -4.62071e-13 -2.54308e-13 -3.7999e-13 0 0 -2.64991e-13 -4.15617e-13 -2.24042e-13 -3.87026e-13 0 0 -2.76898e-13 -2.79711e-13 -4.39028e-13 -2.68998e-13 0 0 -3.44724e-13 -6.84017e-14 -6.74968e-13 -1.28582e-13 0 0 -2.89231e-13 -1.6921e-13 -5.84552e-13 -1.3742e-13 0 0 -2.52364e-13 -3.12724e-13 -3.15096e-13 -3.66904e-13 0 0 -2.50242e-13 -3.40595e-13 -2.34102e-13 -4.21158e-13 0 0 -1.65698e-13 -3.2308e-13 -4.05388e-13 -2.19912e-13 0 0 -2.48872e-13 -1.23489e-13 -5.49134e-13 -2.00991e-13 0 0 -1.91016e-13 -3.25243e-13 -2.02477e-13 -4.23301e-13 0 0 -2.42472e-13 -3.5503e-13 -2.10262e-13 -3.41794e-13 0 0 -4.459e-13 -4.98617e-14 -6.31054e-13 -7.70874e-14 0 0 -4.22939e-13 -5.44244e-14 -6.9205e-13 -1.83745e-14 0
				</DataArray>
				<DataArray Name="VitesseY" type="Float32" format="ascii">