<?xml version="1.0"?>
<VTKFile type="PolyData">
	<PolyData>
		<Piece NumberOfPoints="1206" NumberOfPolys="1000">
			<Points>
				<DataArray type="Float32" NumberOfComponents="3" format="ascii">
 0 0 0 0.005 0 0 0.01 0 0 0.015 0 0 0.02 0 0 0.025 0 0 0.03 0 0 0.035 0 0 0.04 0 0 0.045 0 0 0.05 0 0 0.055 0 0 0.06 0 0 0.065 0 0 0.07 0 0 0.075 0 0 0.08 0 0 0.085 0 0 0.09 0 0 0.095 0 0 0.1 0 0 0.105 0 0 0.11 0 0 0.115 0 0 0.12 0 0 0.125 0 0 0.13 0 0 0.135 0 0 0.14 0 0 0.145 0 0 0.15 0 0 0.155 0 0 0.16 0 0 0.165 0 0 0.17 0 0 0.175 0 0 0.18 0 0 0.185 0 0 0.19 0 0 0.195 0 0 0.2 0 0 0.205 0 0 0.21 0 0 0.215 0 0 0.22 0 0 0.225 0 0 0.23 0 0 0.235 0 0 0.24 0 0 0.245 0 0 0.25 0 0 0.255 0 0 0.26 0 0 0.265 0 0 0.27 0 0 0.275 0 0 0.28 0 0 0.285 0 0 0.29 0 0 0.295 0 0 0.300001 0 0 0.305002 0 0 0.310006 0 0 0.315018 0 0 0.320045 0 0 0.325102 0 0 0.33021 0 0 0.335391 0 0 0.340667 0 0 0.346058 0 0 0.351577 0 0 0.357239 0 0 0.363055 0 0 0.369038 0 0 0.3752 0 0 0.381555 0 0 0.388117 0 0 0.394903 0 0 0.40193 0 0 0.409218 0 0 0.416791 0 0 0.424673 0 0 0.432893 0 0 0.441484 0 0 0.450482 0 0 0.459929 0 0 0.469871 0 0 0.480354 0 0 0.491418 0 0 0.503065 0 0 0.515168 0 0 0.52734 0 0 0.539392 0 0 0.551324 0 0 0.563162 0 0 0.574941 0 0 0.586693 0 0 0.598432 0 0 0.610167 0 0 0.6219 0 0 0.633648 0 0 0.636259 0 0 0.638796 0 0 0.641288 0 0 0.643749 0 0 0.646188 0 0 0.648612 0 0 0.651026 0 0 0.653439 0 0 0.655852 0 0 0.65825 0 0 0.660637 0 0 0.663018 0 0 0.665396 0 0 0.667771 0 0 0.670144 0 0 0.672514 0 0 0.674883 0 0 0.67725 0 0 0.679615 0 0 0.681977 0 0 0.684339 0 0 0.686702 0 0 0.689065 0 0 0.691427 0 0 0.69379 0 0 0.696154 0 0 0.698516 0 0 0.700878 0 0 0.703242 0 0 0.705606 0 0 0.707969 0 0 0.710332 0 0 0.712695 0 0 0.715058 0 0 0.717425 0 0 0.719792 0 0 0.722159 0 0 0.724523 0 0 0.726885 0 0 0.729247 0 0 0.731608 0 0 0.733973 0 0 0.736349 0 0 0.738748 0 0 0.741172 0 0 0.743665 0 0 0.746246 0 0 0.748953 0 0 0.75183 0 0 0.754943 0 0 0.758335 0 0 0.762073 0 0 0.766163 0 0 0.77058 0 0 0.775258 0 0 0.780104 0 0 0.785039 0 0 0.790014 0 0 0.795005 0 0 0.800002 0 0 0.805001 0 0 0.81 0 0 0.815 0 0 0.82 0 0 0.825 0 0 0.83 0 0 0.835 0 0 0.84 0 0 0.845 0 0 0.85 0 0 0.855 0 0 0.86 0 0 0.865 0 0 0.87 0 0 0.875 0 0 0.88 0 0 0.885 0 0 0.89 0 0 0.895 0 0 0.9 0 0 0.905 0 0 0.91 0 0 0.915 0 0 0.92 0 0 0.925 0 0 0.93 0 0 0.935 0 0 0.94 0 0 0.945 0 0 0.95 0 0 0.955 0 0 0.96 0 0 0.965 0 0 0.97 0 0 0.975 0 0 0.98 0 0 0.985 0 0 0.99 0 0 0.995 0 0 1 0 0 0 0.02 0 0.005 0.02 0 0.01 0.02 0 0.015 0.02 0 0.02 0.02 0 0.025 0.02 0 0.03 0.02 0 0.035 0.02 0 0.04 0.02 0 0.045 0.02 0 0.05 0.02 0 0.055 0.02 0 0.06 0.02 0 0.065 0.02 0 0.07 0.02 0 0.075 0.02 0 0.08 0.02 0 0.085 0.02 0 0.09 0.02 0 0.095 0.02 0 0.1 0.02 0 0.105 0.02 0 0.11 0.02 0 0.115 0.02 0 0.12 0.02 0 0.125 0.02 0 0.13 0.02 0 0.135 0.02 0 0.14 0.02 0 0.145 0.02 0 0.15 0.02 0 0.155 0.02 0 0.16 0.02 0 0.165 0.02 0 0.17 0.02 0 0.175 0.02 0 0.18 0.02 0 0.185 0.02 0 0.19 0.02 0 0.195 0.02 0 0.2 0.02 0 0.205 0.02 0 0.21 0.02 0 0.215 0.02 0 0.22 0.02 0 0.225 0.02 0 0.23 0.02 0 0.235 0.02 0 0.24 0.02 0 0.245 0.02 0 0.25 0.02 0 0.255 0.02 0 0.26 0.02 0 0.265 0.02 0 0.27 0.02 0 0.275 0.02 0 0.28 0.02 0 0.285 0.02 0 0.29 0.02 0 0.295 0.02 0 0.300001 0.02 0 0.305002 0.02 0 0.310006 0.02 0 0.315018 0.02 0 0.320045 0.02 0 0.325102 0.02 0 0.33021 0.02 0 0.335391 0.02 0 0.340667 0.02 0 0.346058 0.02 0 0.351577 0.02 0 0.357239 0.02 0 0.363055 0.02 0 0.369038 0.02 0 0.3752 0.02 0 0.381555 0.02 0 0.388117 0.02 0 0.394903 0.02 0 0.40193 0.02 0 0.409218 0.02 0 0.416791 0.02 0 0.424673 0.02 0 0.432893 0.02 0 0.441484 0.02 0 0.450482 0.02 0 0.459929 0.02 0 0.469871 0.02 0 0.480354 0.02 0 0.491418 0.02 0 0.503065 0.02 0 0.515168 0.02 0 0.52734 0.02 0 0.539392 0.02 0 0.551324 0.02 0 0.563162 0.02 0 0.574941 0.02 0 0.586693 0.02 0 0.598432 0.02 0 0.610167 0.02 0 0.6219 0.02 0 0.633648 0.02 0 0.636259 0.02 0 0.638796 0.02 0 0.641288 0.02 0 0.643749 0.02 0 0.646188 0.02 0 0.648612 0.02 0 0.651026 0.02 0 0.653439 0.02 0 0.655852 0.02 0 0.65825 0.02 0 0.660637 0.02 0 0.663018 0.02 0 0.665396 0.02 0 0.667771 0.02 0 0.670144 0.02 0 0.672514 0.02 0 0.674883 0.02 0 0.67725 0.02 0 0.679615 0.02 0 0.681977 0.02 0 0.684339 0.02 0 0.686702 0.02 0 0.689065 0.02 0 0.691427 0.02 0 0.69379 0.02 0 0.696154 0.02 0 0.698516 0.02 0 0.700878 0.02 0 0.703242 0.02 0 0.705606 0.02 0 0.707969 0.02 0 0.710332 0.02 0 0.712695 0.02 0 0.715058 0.02 0 0.717425 0.02 0 0.719792 0.02 0 0.722159 0.02 0 0.724523 0.02 0 0.726885 0.02 0 0.729247 0.02 0 0.731608 0.02 0 0.733973 0.02 0 0.736349 0.02 0 0.738748 0.02 0 0.741172 0.02 0 0.743665 0.02 0 0.746246 0.02 0 0.748953 0.02 0 0.75183 0.02 0 0.754943 0.02 0 0.758335 0.02 0 0.762073 0.02 0 0.766163 0.02 0 0.77058 0.02 0 0.775258 0.02 0 0.780104 0.02 0 0.785039 0.02 0 0.790014 0.02 0 0.795005 0.02 0 0.800002 0.02 0 0.805001 0.02 0 0.81 0.02 0 0.815 0.02 0 0.82 0.02 0 0.825 0.02 0 0.83 0.02 0 0.835 0.02 0 0.84 0.02 0 0.845 0.02 0 0.85 0.02 0 0.855 0.02 0 0.86 0.02 0 0.865 0.02 0 0.87 0.02 0 0.875 0.02 0 0.88 0.02 0 0.885 0.02 0 0.89 0.02 0 0.895 0.02 0 0.9 0.02 0 0.905 0.02 0 0.91 0.02 0 0.915 0.02 0 0.92 0.02 0 0.925 0.02 0 0.93 0.02 0 0.935 0.02 0 0.94 0.02 0 0.945 0.02 0 0.95 0.02 0 0.955 0.02 0 0.96 0.02 0 0.965 0.02 0 0.97 0.02 0 0.975 0.02 0 0.98 0.02 0 0.985 0.02 0 0.99 0.02 0 0.995 0.02 0 1 0.02 0 0 0.04 0 0.005 0.04 0 0.01 0.04 0 0.015 0.04 0 0.02 0.04 0 0.025 0.04 0 0.03 0.04 0 0.035 0.04 0 0.04 0.04 0 0.045 0.04 0 0.05 0.04 0 0.055 0.04 0 0.06 0.04 0 0.065 0.04 0 0.07 0.04 0 0.075 0.04 0 0.08 0.04 0 0.085 0.04 0 0.09 0.04 0 0.095 0.04 0 0.1 0.04 0 0.105 0.04 0 0.11 0.04 0 0.115 0.04 0 0.12 0.04 0 0.125 0.04 0 0.13 0.04 0 0.135 0.04 0 0.14 0.04 0 0.145 0.04 0 0.15 0.04 0 0.155 0.04 0 0.16 0.04 0 0.165 0.04 0 0.17 0.04 0 0.175 0.04 0 0.18 0.04 0 0.185 0.04 0 0.19 0.04 0 0.195 0.04 0 0.2 0.04 0 0.205 0.04 0 0.21 0.04 0 0.215 0.04 0 0.22 0.04 0 0.225 0.04 0 0.23 0.04 0 0.235 0.04 0 0.24 0.04 0 0.245 0.04 0 0.25 0.04 0 0.255 0.04 0 0.26 0.04 0 0.265 0.04 0 0.27 0.04 0 0.275 0.04 0 0.28 0.04 0 0.285 0.04 0 0.29 0.04 0 0.295 0.04 0 0.300001 0.04 0 0.305002 0.04 0 0.310006 0.04 0 0.315018 0.04 0 0.320045 0.04 0 0.325102 0.04 0 0.33021 0.04 0 0.335391 0.04 0 0.340667 0.04 0 0.346058 0.04 0 0.351577 0.04 0 0.357239 0.04 0 0.363055 0.04 0 0.369038 0.04 0 0.3752 0.04 0 0.381555 0.04 0 0.388117 0.04 0 0.394903 0.04 0 0.40193 0.04 0 0.409218 0.04 0 0.416791 0.04 0 0.424673 0.04 0 0.432893 0.04 0 0.441484 0.04 0 0.450482 0.04 0 0.459929 0.04 0 0.469871 0.04 0 0.480354 0.04 0 0.491418 0.04 0 0.503065 0.04 0 0.515168 0.04 0 0.52734 0.04 0 0.539392 0.04 0 0.551324 0.04 0 0.563162 0.04 0 0.574941 0.04 0 0.586693 0.04 0 0.598432 0.04 0 0.610167 0.04 0 0.6219 0.04 0 0.633648 0.04 0 0.636259 0.04 0 0.638796 0.04 0 0.641288 0.04 0 0.643749 0.04 0 0.646188 0.04 0 0.648612 0.04 0 0.651026 0.04 0 0.653439 0.04 0 0.655852 0.04 0 0.65825 0.04 0 0.660637 0.04 0 0.663018 0.04 0 0.665396 0.04 0 0.667771 0.04 0 0.670144 0.04 0 0.672514 0.04 0 0.674883 0.04 0 0.67725 0.04 0 0.679615 0.04 0 0.681977 0.04 0 0.684339 0.04 0 0.686702 0.04 0 0.689065 0.04 0 0.691427 0.04 0 0.69379 0.04 0 0.696154 0.04 0 0.698516 0.04 0 0.700878 0.04 0 0.703242 0.04 0 0.705606 0.04 0 0.707969 0.04 0 0.710332 0.04 0 0.712695 0.04 0 0.715058 0.04 0 0.717425 0.04 0 0.719792 0.04 0 0.722159 0.04 0 0.724523 0.04 0 0.726885 0.04 0 0.729247 0.04 0 0.731608 0.04 0 0.733973 0.04 0 0.736349 0.04 0 0.738748 0.04 0 0.741172 0.04 0 0.743665 0.04 0 0.746246 0.04 0 0.748953 0.04 0 0.75183 0.04 0 0.754943 0.04 0 0.758335 0.04 0 0.762073 0.04 0 0.766163 0.04 0 0.77058 0.04 0 0.775258 0.04 0 0.780104 0.04 0 0.785039 0.04 0 0.790014 0.04 0 0.795005 0.04 0 0.800002 0.04 0 0.805001 0.04 0 0.81 0.04 0 0.815 0.04 0 0.82 0.04 0 0.825 0.04 0 0.83 0.04 0 0.835 0.04 0 0.84 0.04 0 0.845 0.04 0 0.85 0.04 0 0.855 0.04 0 0.86 0.04 0 0.865 0.04 0 0.87 0.04 0 0.875 0.04 0 0.88 0.04 0 0.885 0.04 0 0.89 0.04 0 0.895 0.04 0 0.9 0.04 0 0.905 0.04 0 0.91 0.04 0 0.915 0.04 0 0.92 0.04 0 0.925 0.04 0 0.93 0.04 0 0.935 0.04 0 0.94 0.04 0 0.945 0.04 0 0.95 0.04 0 0.955 0.04 0 0.96 0.04 0 0.965 0.04 0 0.97 0.04 0 0.975 0.04 0 0.98 0.04 0 0.985 0.04 0 0.99 0.04 0 0.995 0.04 0 1 0.04 0 0 0.06 0 0.005 0.06 0 0.01 0.06 0 0.015 0.06 0 0.02 0.06 0 0.025 0.06 0 0.03 0.06 0 0.035 0.06 0 0.04 0.06 0 0.045 0.06 0 0.05 0.06 0 0.055 0.06 0 0.06 0.06 0 0.065 0.06 0 0.07 0.06 0 0.075 0.06 0 0.08 0.06 0 0.085 0.06 0 0.09 0.06 0 0.095 0.06 0 0.1 0.06 0 0.105 0.06 0 0.11 0.06 0 0.115 0.06 0 0.12 0.06 0 0.125 0.06 0 0.13 0.06 0 0.135 0.06 0 0.14 0.06 0 0.145 0.06 0 0.15 0.06 0 0.155 0.06 0 0.16 0.06 0 0.165 0.06 0 0.17 0.06 0 0.175 0.06 0 0.18 0.06 0 0.185 0.06 0 0.19 0.06 0 0.195 0.06 0 0.2 0.06 0 0.205 0.06 0 0.21 0.06 0 0.215 0.06 0 0.22 0.06 0 0.225 0.06 0 0.23 0.06 0 0.235 0.06 0 0.24 0.06 0 0.245 0.06 0 0.25 0.06 0 0.255 0.06 0 0.26 0.06 0 0.265 0.06 0 0.27 0.06 0 0.275 0.06 0 0.28 0.06 0 0.285 0.06 0 0.29 0.06 0 0.295 0.06 0 0.300001 0.06 0 0.305002 0.06 0 0.310006 0.06 0 0.315018 0.06 0 0.320045 0.06 0 0.325102 0.06 0 0.33021 0.06 0 0.335391 0.06 0 0.340667 0.06 0 0.346058 0.06 0 0.351577 0.06 0 0.357239 0.06 0 0.363055 0.06 0 0.369038 0.06 0 0.3752 0.06 0 0.381555 0.06 0 0.388117 0.06 0 0.394903 0.06 0 0.40193 0.06 0 0.409218 0.06 0 0.416791 0.06 0 0.424673 0.06 0 0.432893 0.06 0 0.441484 0.06 0 0.450482 0.06 0 0.459929 0.06 0 0.469871 0.06 0 0.480354 0.06 0 0.491418 0.06 0 0.503065 0.06 0 0.515168 0.06 0 0.52734 0.06 0 0.539392 0.06 0 0.551324 0.06 0 0.563162 0.06 0 0.574941 0.06 0 0.586693 0.06 0 0.598432 0.06 0 0.610167 0.06 0 0.6219 0.06 0 0.633648 0.06 0 0.636259 0.06 0 0.638796 0.06 0 0.641288 0.06 0 0.643749 0.06 0 0.646188 0.06 0 0.648612 0.06 0 0.651026 0.06 0 0.653439 0.06 0 0.655852 0.06 0 0.65825 0.06 0 0.660637 0.06 0 0.663018 0.06 0 0.665396 0.06 0 0.667771 0.06 0 0.670144 0.06 0 0.672514 0.06 0 0.674883 0.06 0 0.67725 0.06 0 0.679615 0.06 0 0.681977 0.06 0 0.684339 0.06 0 0.686702 0.06 0 0.689065 0.06 0 0.691427 0.06 0 0.69379 0.06 0 0.696154 0.06 0 0.698516 0.06 0 0.700878 0.06 0 0.703242 0.06 0 0.705606 
[...]
			<PointData Scalars="VitesseX">
				<DataArray Name="VitesseX" type="Float32" format="ascii">
 0 0 0 0 0 0 0 0 0 0 0 0 0 0 0 0 0 0 0 0 0 0 0 0 0 0 0 0 0 0 0 0 0 0 0 0 0 0 0 0 0 0 0 0 0 0 0 0 0 0 0 0 0 0 0 0 0 0 0 0 0 0 0 0 0 0 0 0 0 0 0 0 0 0 0 0 0 0 0 0 0 0 0 0 0 0 0 0 0 0 0 0 0 0 0 0 0 0 0 0 0 0 0 0 0 0 0 0 0 0 0 0 0 0 0 0 0 0 0 0 0 0 0 0 0 0 0 0 0 0 0 0 0 0 0 0 0 0 0 0 0 0 0 0 0 0 0 0 0 0 0 0 0 0 0 0 0 0 0 0 0 0 0 0 0 0 0 0 0 0 0 0 0 0 0 0 0 0 0 0 0 0 0 0 0 0 0 0 0 0 0 0 0 0 0 0 0 0 0 0 0 0 6.47272e-16 -2.14446e-15 -1.33147e-16 -1.56649e-15 5.90259e-16 4.10252e-15 5.01987e-15 2.51263e-15 1.9323e-15 7.39577e-15 2.53345e-15 7.95408e-16 -2.74697e-15 1.20053e-14 4.54965e-15 1.05384e-14 9.28845e-15 7.86767e-15 -5.74277e-15 5.64401e-15 -7.80677e-15 6.34645e-15 -7.62929e-16 1.03757e-14 2.44957e-14 -9.83937e-17 4.55507e-15 2.28527e-15 1.19725e-14 1.80766e-14 1.21013e-14 -7.83405e-17 -5.96175e-15 -2.35994e-15 1.2644e-14 1.70603e-14 2.57468e-14 -2.01725e-14 3.01942e-14 2.17634e-14 6.8584e-15 1.25542e-14 6.30238e-14 3.27596e-14 4.41739e-14 8.48447e-14 1.06745e-13 4.78043e-13 3.70811e-12 2.5797e-11 1.68376e-10 1.03922e-09 6.03705e-09 3.29312e-08 1.68182e-07 8.01458e-07 3.55015e-06 1.45525e-05 5.49131e-05 0.000189564 0.000594298 0.00167812 0.00423187 0.00946541 0.0187298 0.032932 0.0520731 0.0753566 0.101724 0.130308 0.160573 0.192241 0.225191 0.259386 0.294834 0.331572 0.369655 0.409153 0.450151 0.492742 0.53703 0.58312 0.631113 0.68108 0.733019 0.786733 0.841532 0.895381 0.942322 0.965327 0.955568 0.945886 0.937323 0.931858 0.929058 0.927796 0.927181 0.926802 0.926613 0.926827 0.926697 0.926618 0.926559 0.926525 0.926497 0.926466 0.926436 0.926412 0.926393 0.92638 0.926369 0.926357 0.926337 0.926306 0.92626 0.926198 0.926121 0.926032 0.925939 0.925852 0.925779 0.925729 0.925709 0.925727 0.925918 0.925902 0.925844 0.925755 0.925667 0.925609 0.925589 0.925601 0.925851 0.926769 0.926836 0.926145 0.925019 0.923949 0.923364 0.922757 0.925219 0.925472 0.919645 0.91421 0.900794 0.848322 0.832651 0.776861 0.702643 0.617694 0.506299 0.38083 0.258935 0.153922 0.0784919 0.0345845 0.0137361 0.00516092 0.00189141 0.000685649 0.000247145 8.87236e-05 3.17289e-05 1.12993e-05 4.00487e-06 1.4118e-06 4.94649e-07 1.72127e-07 5.94453e-08 2.03612e-08 6.91215e-09 2.32429e-09 7.73807e-10 2.54903e-10 8.30902e-11 2.66988e-11 8.50922e-12 2.64887e-12 8.94968e-13 2.92152e-13 -5.02309e-14 -1.61354e-14 6.24808e-14 -4.40806e-14 -9.00743e-15 -8.84032e-14 -5.05476e-14 -8.26213e-14 -2.19131e-14 1.32189e-13 -1.19908e-13 -8.18889e-14 -3.10802e-14 -7.14754e-14 5.79027e-15 3.25101e-15 -4.56267e-14 7.21663e-14 6.24715e-15 0 0 1.8546e-15 2.03849e-15 -2.50976e-15 -3.17792e-15 3.38445e-15 1.73136e-15 5.25783e-15 1.75206e-15 3.4514e-15 3.4437e-15 -1.84778e-15 1.45529e-15 -6.79172e-15 1.71327e-14 7.66375e-15 2.09811e-16 1.20761e-14 -4.20312e-15 3.0521e-15 1.15863e-14 -1.53001e-15 -4.56606e-16 -1.45373e-14 9.14393e-15 1.08506e-14 1.36215e-14 1.84271e-14 2.65373e-14 8.77976e-15 -8.20581e-15 2.69549e-14 -9.40019e-15 -2.32985e-14 5.49647e-15 3.97358e-14 1.97777e-14 -2.5437e-14 8.77769e-15 1.81718e-14 2.38545e-14 4.59144e-14 -4.5816e-15 6.17612e-14 6.4289e-14 8.50096e-14 6.33976e-14 1.49471e-13 5.15517e-13 3.5589e-12 2.57105e-11 1.68436e-10 1.03916e-09 6.03704e-09 3.29312e-08 1.68182e-07 8.01458e-07 3.55015e-06 1.45525e-05 5.49131e-05 0.000189564 0.000594298 0.00167812 0.00423187 0.00946541 0.0187298 0.032932 0.0520731 0.0753566 0.101724 0.130308 0.160573 0.192241 0.225191 0.259386 0.294834 0.331572 0.369655 0.409153 0.450151 0.492742 0.53703 0.58312 0.631113 0.68108 0.733019 0.786733 0.841532 0.895381 0.942322 0.965327 0.955568 0.945886 0.937323 0.931858 0.929058 0.927796 0.927181 0.926802 0.926613 0.926827 0.926697 0.926618 0.926559 0.926525 0.926497 0.926466 0.926436 0.926412 0.926393 0.92638 0.926369 0.926357 0.926337 0.926306 0.92626 0.926198 0.926121 0.926032 0.925939 0.925852 0.925779 0.925729 0.925709 0.925727 0.925918 0.925902 0.925844 0.925755 0.925667 0.925609 0.925589 0.925601 0.925851 0.926769 0.926836 0.926145 0.925019 0.923949 0.923364 0.922757 0.925219 0.925472 0.919645 0.91421 0.900794 0.848322 0.832651 0.776861 0.702643 0.617694 0.506299 0.38083 0.258935 0.153922 0.0784919 0.0345845 0.0137361 0.00516092 0.00189141 0.000685649 0.000247145 8.87236e-05 3.17289e-05 1.12993e-05 4.00487e-06 1.4118e-06 4.94649e-07 1.72127e-07 5.94453e-08 2.03611e-08 6.91226e-09 2.32427e-09 7.73739e-10 2.54875e-10 8.30138e-11 2.68347e-11 8.4869e-12 2.80513e-12 8.25993e-13 1.77679e-13 1.10523e-13 3.15227e-14 -7.83772e-14 -6.18383e-14 4.4731e-14 -6.3863e-14 -9.13902e-14 7.69842e-14 -7.30726e-14 -5.82364e-14 -8.68688e-14 -1.94893e-13 -3.55696e-15 1.18519e-13 -6.28465e-15 -5.96666e-14 4.81085e-14 2.76451e-14 4.43057e-14 0 0 1.53616e-15 6.64478e-15 3.95438e-15 2.23998e-15 1.73112e-15 -1.77499e-15 5.39629e-16 -5.01179e-16 2.42292e-15 -4.72494e-15 2.29599e-15 -6.22185e-15 1.27287e-14 -5.13562e-15 -4.62548e-16 1.58641e-14 1.02567e-14 5.95162e-15 3.40228e-15 -8.36164e-16 7.33289e-15 2.98589e-15 -1.56885e-14 -3.15118e-15 -1.81157e-14 3.26637e-14 2.17033e-14 2.38894e-14 2.97775e-14 -2.43807e-14 2.07658e-14 5.60706e-15 -4.35182e-15 6.68028e-16 4.70829e-14 -5.76902e-15 4.21807e-15 8.43165e-15 3.06222e-14 -2.04103e-15 3.17573e-14 1.92303e-14 4.7844e-14 1.7469e-14 1.42417e-13 9.65361e-14 1.82279e-13 5.18818e-13 3.54676e-12 2.56105e-11 1.68442e-10 1.0391e-09 6.037e-09 3.29312e-08 1.68182e-07 8.01458e-07 3.55015e-06 1.45525e-05 5.49131e-05 0.000189564 0.000594298 0.00167812 0.00423187 0.00946541 0.0187298 0.032932 0.0520731 0.0753566 0.101724 0.130308 0.160573 0.192241 0.225191 0.259386 0.294834 0.331572 0.369655 0.409153 0.450151 0.492742 0.53703 0.58312 0.631113 0.68108 0.733019 0.786733 0.841532 0.895381 0.942322 0.965327 0.955568 0.945886 0.937323 0.931858 0.929058 0.927796 0.927181 0.926802 0.926613 0.926827 0.926697 0.926618 0.926559 0.926525 0.926497 0.926466 0.926436 0.926412 0.926393 0.92638 0.926369 0.926357 0.926337 0.926306 0.92626 0.926198 0.926121 0.926032 0.925939 0.925852 0.925779 0.925729 0.925709 0.925727 0.925918 0.925902 0.925844 0.925755 0.925667 0.925609 0.925589 0.925601 0.925851 0.926769 0.926836 0.926145 0.925019 0.923949 0.923364 0.922757 0.925219 0.925472 0.919645 0.91421 0.900794 0.848322 0.832651 0.776861 0.702643 0.617694 0.506299 0.38083 0.258935 0.153922 0.0784919 0.0345845 0.0137361 0.00516092 0.00189141 0.000685649 0.000247145 8.87236e-05 3.17289e-05 1.12993e-05 4.00487e-06 1.4118e-06 4.94649e-07 1.72127e-07 5.94453e-08 2.03612e-08 6.91232e-09 2.32428e-09 7.73812e-10 2.54809e-10 8.30694e-11 2.68234e-11 8.49445e-12 2.66607e-12 9.09878e-13 1.27514e-13 1.0893e-13 1.91401e-13 -2.21829e-13 6.72891e-14 -1.7779e-13 -2.52444e-14 8.79095e-14 6.28679e-14 -1.01602e-13 -2.02318e-13 5.96869e-14 -1.88758e-13 6.37379e-14 4.43654e-14 4.00266e-14 -1.10479e-13 -9.1499e-14 -1.49356e-13 1.30075e-13 0 0 1.41482e-15 5.91938e-15 4.58853e-15 1.8878e-15 -2.02315e-15 2.47044e-15 4.7773e-17 -5.92413e-15 -3.87046e-15 3.48901e-15 3.25066e-15 -3.78769e-15 2.80087e-15 -1.25767e-14 -8.58589e-15 1.77995e-14 3.2288e-15 1.53261e-14 -1.44839e-14 -3.70665e-15 -2.7817e-16 2.39239e-14 5.85429e-15 4.17355e-15 -2.20443e-14 2.83503e-14 1.23077e-14 -1.3383e-14 2.15841e-14 2.62281e-15 2.53332e-14 1.33017e-14 1.79464e-14 -1.84783e-15 2.51634e-14 -1.53813e-14 1.74622e-14 1.00241e-15 7.77989e-14 5.81791e-15 1.98101e-14 1.6704e-14 1.91952e-14 3.18411e-14 1.45334e-13 1.88024e-13 1.2246e-13 5.39181e-13 3.5694e-12 2.55775e-11 1.68322e-10 1.03919e-09 6.0369e-09 3.29312e-08 1.68182e-07 8.01458e-07 3.55015e-06 1.45525e-05 5.49131e-05 0.000189564 0.000594298 0.00167812 0.00423187 0.00946541 0.0187298 0.032932 0.0520731 0.0753566 0.101724 0.130308 0.160573 0.192241 0.225191 0.259386 0.294834 0.331572 0.369655 0.409153 0.450151 0.492742 0.53703 0.58312 0.631113 0.68108 0.733019 0.786733 0.841532 0.895381 0.942322 0.965327 0.955568 0.945886 0.937323 0.931858 0.929058 0.927796 0.927181 0.926802 0.926613 0.926827 0.926697 0.926618 0.926559 0.926525 0.926497 0.926466 0.926436 0.926412 0.926393 0.92638 0.926369 0.926357 0.926337 0.926306 0.92626 0.926198 0.926121 0.926032 0.925939 0.925852 0.925779 0.925729 0.925709 0.925727 0.925918 0.925902 0.925844 0.925755 0.925667 0.925609 0.925589 0.925601 0.925851 0.926769 0.926836 0.926145 0.925019 0.923949 0.923364 0.922757 0.925219 0.925472 0.919645 0.91421 0.900794 0.848322 0.832651 0.776861 0.702643 0.617694 0.506299 0.38083 0.258935 0.153922 0.0784919 0.0345845 0.0137361 0.00516092 0.00189141 0.000685649 0.000247145 8.87236e-05 3.17289e-05 1.12993e-05 4.00487e-06 1.4118e-06 4.94649e-07 1.72127e-07 5.94454e-08 2.03611e-08 6.9123e-09 2.32431e-09 7.7396e-10 2.54984e-10 8.32568e-11 2.67138e-11 8.48743e-12 2.57723e-12 8.0316e-13 1.1062e-13 -1.96911e-13 2.4687e-13 -3.20309e-14 5.95556e-14 -2.13447e-13 -5.76661e-14 1.14388e-13 2.1478e-14 1.59534e-13 -1.40802e-13 -4.69843e-14 -7.78131e-14 7.6858e-14 -1.13674e-13 1.51827e-13 -3.39353e-14 -3.50227e-13 -9.1182e-14 6.17777e-14 0 0 0 0 0 0 0 0 0 0 0 0 0 0 0 0 0 0 0 0 0 0 0 0 0 0 0 0 0 0 0 0 0 0 0 0 0 0 0 0 0 0 0 0 0 0 0 0 0 0 0 0 0 0 0 0 0 0 0 0 0 0 0 0 0 0 0 0 0 0 0 0 0 0 0 0 0 0 0 0 0 0 0 0 0 0 0 0 0 0 0 0 0 0 0 0 0 0 0 0 0 0 0 0 0 0 0 0 0 0 0 0 0 0 0 0 0 0 0 0 0 0 0 0 0 0 0 0 0 0 0 0 0 0 0 0 0 0 0 0 0 0 0 0 0 0 0 0 0 0 0 0 0 0 0 0 0 0 0 0 0 0 0 0 0 0 0 0 0 0 0 0 0 0 0 0 0 0 0 0 0 0 0 0 0 0 0 0 0 0 0 0 0 0 0 0 0 0 0 0 0 0
				</DataArray>
				<DataArray Name="VitesseY" type="Float32" format="ascii">
 0 0 0 0 0 0 0 0 0 0 0 0 0 0 0 0 0 0 0 0 0 0 0 0 0 0 0 0 0 0 0 0 0 0 0 0 0 0 0 0 0 0 0 0 0 0 0 0 0 0 0 0 0 0 0 0 0 0 0 0 0 0 0 0 0 0 0 0 0 0 0 0 0 0 0 0 0 0 0 0 0 0 0 0 0 0 0 0 0 0 0 0 0 0 0 0 0 0 0 0 0 0 0 0 0 0 0 0 0 0 0 0 0 0 0 0 0 0 0 0 0 0 0 0 0 0 0 0 0 0 0 0 0 0 0 0 0 0 0 0 0 0 0 0 0 0 0 0 0 0 0 0 0 0 0 0 0 0 0 0 0 0 0 0 0 0 0 0 0 0 0 0 0 0 0 0 0 0 0 0 0 0 0 0 0 0 0 0 0 0 0 0 0 0 0 0 0 0 0 0 0 0 3.35129e-15 3.13664e-15 1.65703e-15 6.67874e-16 -2.09103e-16 -7.19451e-17 2.19637e-15 3.13582e-15 1.09188e-15 2.49036e-15 4.01431e-15 3.63656e-15 1.17705e-16 -1.3306e-15 -4.49819e-16 -4.48933e-16 1.22983e-15 2.86166e-16 -2.40072e-15 -1.54963e-16 2.21367e-15 -1.36767e-15 -4.95688e-15 -3.85236e-15 7.27919e-16 3.62564e-15 7.16625e-15 4.94376e-15 -2.89964e-16 -2.1396e-15 3.46592e-15 4.56273e-15 -5.37694e-15 -9.23885e-15 -8.04726e-15 -5.39273e-15 -8.97452e-16 -4.83446e-15 5.17335e-16 1.13677e-14 9.93902e-15 7.30254e-16 4.23669e-15 1.76044e-14 2.1401e-14 3.42273e-14 3.88325e-14 2.82926e-14 5.11981e-15 -1.3757e-14 -1.85327e-14 -7.69595e-15 -9.82017e-16 -1.63429e-15 -4.11191e-14 -5.8215e-14 -3.48379e-14 -3.22789e-14 -5.1404e-15 1.34673e-14 8.16971e-15 -1.03191e-14 -1.67436e-14 3.99178e-15 -1.09829e-14 -5.81405e-15 -6.66146e-14 -2.34006e-13 -4.78836e-13 -8.942e-13 -1.5189e-12 -2.40445e-12 -3.44178e-12 -4.36584e-12 -4.7667e-12 -4.08887e-12 -1.55221e-12 3.62403e-12 1.20889e-11 2.41899e-11 3.97622e-11 5.80329e-11 7.73596e-11 9.51812e-11 1.08045e-10 1.11552e-10 1.00299e-10 6.70148e-11 -2.57514e-12 -1.42913e-10 -3.54051e-10 -4.97165e-10 -5.446e-10 -6.17079e-10 -5.92192e-10 -8.19419e-10 -1.96907e-09 -1.88157e-09 -9.89469e-09 -1.10678e-08 3.21471e-08 1.64196e-08 1.01111e-08 6.97006e-09 5.12556e-09 3.92104e-09 3.06019e-09 2.39346e-09 1.86057e-09 1.43582e-09 1.07664e-09 7.36094e-10 4.04084e-10 9.60866e-11 -1.62747e-10 -3.62542e-10 -5.10486e-10 -6.14486e-10 -6.83277e-10 -7.28197e-10 -7.57455e-10 -7.74218e-10 -7.85568e-10 -7.93994e-10 -7.77006e-10 -7.33304e-10 -6.84233e-10 -6.32577e-10 -5.73535e-10 -5.04361e-10 -4.26206e-10 -3.41456e-10 -2.48282e-10 -1.45579e-10 -5.54454e-11 1.91164e-11 9.245e-11 1.61004e-10 2.21071e-10 2.68016e-10 2.93785e-10 2.97845e-10 2.88235e-10 2.69193e-10 2.41885e-10 2.04882e-10 1.70958e-10 1.33698e-10 9.81218e-11 6.61473e-11 3.91446e-11 1.96373e-11 7.86427e-12 2.26458e-12 3.79582e-13 -1.52374e-14 -5.12003e-14 -2.91418e-14 -2.00783e-14 -2.93591e-14 -3.37024e-14 -2.17797e-14 -3.41835e-14 -2.7471e-14 -1.70911e-14 -1.90107e-14 -1.2135e-14 -2.70544e-14 -2.78059e-14 2.15244e-15 5.998e-17 -4.3931e-14 -6.58301e-14 -5.0218e-14 -8.05355e-15 -2.26905e-14 -4.62542e-14 -4.31311e-14 -5.30545e-14 -2.06852e-16 2.12057e-14 -2.24696e-14 -3.34049e-14 -2.33582e-14 1.89627e-14 4.65778e-14 2.89064e-14 2.73526e-14 4.76606e-14 5.88336e-14 2.86574e-14 -2.35288e-14 -3.05956e-14 -1.36803e-14 8.70937e-15 5.59709e-15 -3.45239e-14 -1.51983e-14 4.62109e-14 0 0 7.54776e-16 2.55952e-15 4.37713e-15 4.4135e-15 5.40621e-15 5.50147e-15 2.72825e-15 1.64295e-15 3.90194e-15 1.97542e-15 -1.67013e-15 -2.18651e-15 3.7845e-16 2.00231e-15 3.00534e-15 1.56741e-15 -2.04784e-15 -3.31421e-15 -1.49661e-15 -2.46444e-16 5.90022e-16 4.0987e-15 2.41596e-15 -2.37957e-15 -1.07453e-14 -1.36e-14 -1.02847e-14 1.62322e-15 1.20466e-14 6.47591e-15 -1.94534e-15 -1.65774e-15 1.61327e-15 3.1851e-15 1.06699e-14 1.55401e-14 -1.17481e-15 -2.76546e-15 -3.97109e-15 -1.73579e-14 -5.55368e-15 9.20887e-15 9.93794e-16 -4.73813e-15 9.59075e-15 1.6339e-15 2.30465e-15 3.28364e-14 2.81091e-14 -1.19018e-14 -1.37927e-14 -2.46385e-14 -4.94256e-14 -5.60683e-14 -4.38144e-14 -1.34364e-14 -1.22203e-14 -8.0074e-15 -1.72649e-14 -4.58126e-14 -4.71756e-14 -3.52967e-15 1.99826e-14 -3.21826e-14 -6.22897e-14 -9.90735e-14 -1.11269e-13 -1.30176e-13 -2.74999e-13 -5.26559e-13 -9.43535e-13 -1.50116e-12 -2.12908e-12 -2.68802e-12 -2.93542e-12 -2.50203e-12 -9.46698e-13 2.23826e-12 7.44592e-12 1.49046e-11 2.45709e-11 3.58681e-11 4.77953e-11 5.88449e-11 6.6787e-11 6.89447e-11 6.20101e-11 4.14158e-11 -1.51529e-12 -8.98934e-11 -2.11866e-10 -3.19563e-10 -3.5015e-10 -2.81869e-10 -5.09197e-10 -6.92502e-10 -2.03333e-10 -3.53872e-09 2.02543e-09 5.34742e-09 -2.07165e-08 -2.46605e-09 2.55787e-09 3.67899e-09 3.54373e-09 2.99298e-09 2.31067e-09 1.62614e-09 1.03273e-09 5.65208e-10 2.14016e-10 -2.05689e-11 -1.45667e-10 -1.96333e-10 -2.14942e-10 -2.3565e-10 -2.74835e-10 -3.28209e-10 -3.83334e-10 -4.29926e-10 -4.62172e-10 -4.79404e-10 -4.88167e-10 -4.92863e-10 -4.81377e-10 -4.53576e-10 -4.22836e-10 -3.90737e-10 -3.5415e-10 -3.11311e-10 -2.62956e-10 -2.10533e-10 -1.52955e-10 -8.95287e-11 -3.38569e-11 1.21934e-11 5.75007e-11 9.99123e-11 1.37112e-10 1.66216e-10 1.82156e-10 1.84542e-10 1.78571e-10 1.66812e-10 1.49901e-10 1.2698e-10 1.05957e-10 8.29129e-11 6.0868e-11 4.1061e-11 2.43417e-11 1.2229e-11 4.91546e-12 1.41437e-12 2.03846e-13 -4.80988e-14 -5.91566e-14 -6.16411e-14 -7.23513e-14 -6.55891e-14 -3.51334e-14 -4.4478e-14 -3.37273e-14 -4.08722e-14 -5.76175e-14 -3.39919e-14 -3.52452e-14 -1.26209e-14 -5.8055e-15 -6.30455e-14 -5.10194e-14 1.65329e-14 1.62681e-14 -2.34608e-14 -9.17333e-14 -6.21324e-14 -1.03585e-14 2.001e-14 5.17862e-14 -4.68569e-14 -5.675e-14 3.8979e-14 2.6719e-14 -2.29149e-14 -5.61768e-14 -6.40313e-14 -5.04793e-14 -1.93995e-14 -1.24247e-14 -8.40373e-14 -9.31167e-14 -6.10077e-14 -7.55268e-14 -3.78566e-14 -1.58163e-14 -3.16192e-14 1.63256e-14 9.2741e-15 -5.39072e-14 0 0 1.60253e-15 8.2582e-16 1.79603e-15 4.66331e-15 4.64132e-15 3.27637e-15 4.03103e-15 3.31614e-15 3.10214e-16 1.06219e-17 2.65953e-15 2.18327e-15 2.58974e-15 1.49671e-16 -8.64869e-15 -4.85568e-15 2.34178e-15 5.46522e-15 6.22358e-15 1.8538e-15 2.94039e-16 -5.11875e-17 1.93242e-15 3.49431e-15 1.50334e-15 1.97847e-15 4.26416e-15 -7.61805e-15 -1.34578e-14 -6.6342e-15 -3.86151e-15 -1.90141e-15 3.34373e-15 5.34846e-15 -1.56423e-15 -1.08934e-14 6.79356e-15 1.57132e-14 1.98849e-14 2.98395e-14 8.08882e-15 -4.19083e-15 6.46335e-15 -3.0101e-15 -1.46935e-14 1.59133e-14 3.173e-14 1.01994e-14 1.27103e-14 2.4544e-14 3.05929e-15 -1.40359e-15 -2.82245e-15 -3.64722e-15 -1.70534e-14 -5.50091e-14 -4.33247e-14 -4.75878e-14 -4.85605e-14 -2.10276e-14 -9.84173e-15 -4.43098e-15 -1.86179e-14 -2.20384e-14 -1.6556e-15 3.44778e-14 6.8209e-14 1.30666e-13 2.70032e-13 5.06768e-13 9.2571e-13 1.47977e-12 2.12439e-12 2.69299e-12 2.94595e-12 2.52044e-12 9.50974e-13 -2.23301e-12 -7.48183e-12 -1.49585e-11 -2.45948e-11 -3.58845e-11 -4.78123e-11 -5.88654e-11 -6.68315e-11 -6.89547e-11 -6.19815e-11 -4.14033e-11 1.53612e-12 8.98681e-11 2.11795e-10 3.19556e-10 3.50288e-10 2.82193e-10 5.09706e-10 6.93146e-10 2.04047e-10 3.53947e-09 -2.02464e-09 -5.34648e-09 2.07181e-08 2.46769e-09 -2.55625e-09 -3.67737e-09 -3.54214e-09 -2.99162e-09 -2.30976e-09 -1.62588e-09 -1.03319e-09 -5.66295e-10 -2.15485e-10 1.90104e-11 1.44166e-10 1.94949e-10 2.13673e-10 2.34578e-10 2.7397e-10 3.27497e-10 3.8276e-10 4.29486e-10 4.61885e-10 4.79248e-10 4.88116e-10 4.92912e-10 4.81554e-10 4.53864e-10 4.23219e-10 3.91196e-10 3.54669e-10 3.11928e-10 2.63669e-10 2.11329e-10 1.53836e-10 9.05099e-11 3.49411e-11 -1.10272e-11 -5.62427e-11 -9.86005e-11 -1.35766e-10 -1.64798e-10 -1.80709e-10 -1.83128e-10 -1.7716e-10 -1.65409e-10 -1.48541e-10 -1.25781e-10 -1.0488e-10 -8.1922e-11 -6.00534e-11 -4.04101e-11 -2.38782e-11 -1.1958e-11 -4.77565e-12 -1.39138e-12 -2.96322e-13 -8.05046e-14 -6.01056e-14 -6.24755e-14 -4.42109e-14 -4.82353e-14 -8.12446e-14 -7.39844e-14 -6.72566e-14 -6.22224e-14 -4.42119e-14 -6.80946e-14 -6.38357e-14 -8.32057e-14 -1.04496e-13 -2.99923e-14 -1.23371e-14 -6.36605e-14 -4.27859e-14 -1.22451e-15 6.4479e-14 4.6101e-14 -6.81783e-15 -7.00637e-14 -1.15581e-13 -8.5306e-15 -1.16145e-14 -6.78276e-14 -5.1613e-14 -5.43787e-15 4.30079e-15 -3.37549e-14 6.99464e-15 1.72277e-14 -2.9803e-16 2.79892e-14 3.77933e-14 4.39157e-14 7.66678e-14 3.75787e-14 8.53867e-15 2.30989e-14 -7.24142e-14 -1.44527e-13 -1.04046e-13 0 0 1.21217e-14 1.2577e-14 1.16482e-14 8.82078e-15 7.85927e-15 9.25091e-15 9.40929e-15 8.76604e-15 8.7876e-15 9.56689e-15 9.28839e-15 1.0555e-14 8.29801e-15 6.37469e-15 1.11256e-14 6.06776e-15 -2.24308e-15 -5.00276e-15 -7.84959e-15 -8.80916e-15 -9.80798e-15 -6.07435e-15 2.39874e-15 8.24837e-15 1.09907e-14 8.56148e-15 2.86504e-15 3.01149e-15 -2.48088e-15 -4.72684e-15 3.13464e-16 1.59982e-15 3.80036e-15 6.6995e-15 7.53143e-15 9.0048e-15 -7.7584e-15 -1.52219e-14 -9.55647e-15 -5.67909e-15 1.49997e-14 2.37344e-14 5.24493e-15 1.11717e-14 2.71605e-14 2.00923e-14 1.22927e-14 2.39409e-14 3.21485e-14 1.757e-14 1.23431e-15 -5.61257e-16 1.11515e-15 -1.86981e-14 -6.62049e-15 2.08362e-14 -2.1797e-16 1.47469e-16 -1.50122e-14 -6.03516e-14 -5.86189e-14 -6.95014e-14 -6.74841e-14 -2.31378e-14 2.51992e-14 5.73116e-14 7.40398e-14 1.97331e-13 4.67922e-13 8.79518e-13 1.51586e-12 2.36636e-12 3.36672e-12 4.33187e-12 4.74236e-12 4.05254e-12 1.5582e-12 -3.62375e-12 -1.20606e-11 -2.41522e-11 -3.97579e-11 -5.80348e-11 -7.73484e-11 -9.51672e-11 -1.08039e-10 -1.11556e-10 -1.0032e-10 -6.70104e-11 2.55046e-12 1.42866e-10 3.5402e-10 4.97162e-10 5.44692e-10 6.1729e-10 5.92513e-10 8.19817e-10 1.9695e-09 1.88203e-09 9.8952e-09 1.10684e-08 -3.21462e-08 -1.64187e-08 -1.01102e-08 -6.96904e-09 -5.12459e-09 -3.92016e-09 -3.05956e-09 -2.39325e-09 -1.86081e-09 -1.43642e-09 -1.07749e-09 -7.37047e-10 -4.05019e-10 -9.69284e-11 1.62056e-10 3.61959e-10 5.09953e-10 6.14052e-10 6.82965e-10 7.27988e-10 7.57301e-10 7.74136e-10 7.8559e-10 7.94092e-10 7.7716e-10 7.33485e-10 6.84466e-10 6.32896e-10 5.73917e-10 5.04791e-10 4.26679e-10 3.41969e-10 2.4889e-10 1.46268e-10 5.61608e-11 -1.83533e-11 -9.16797e-11 -1.60201e-10 -2.20254e-10 -2.67275e-10 -2.93063e-10 -2.97103e-10 -2.87458e-10 -2.68383e-10 -2.41119e-10 -2.04134e-10 -1.70202e-10 -1.3304e-10 -9.75324e-11 -6.56795e-11 -3.88288e-11 -1.94411e-11 -7.79465e-12 -2.28187e-12 -3.99446e-13 -1.66576e-14 -3.07723e-14 -5.35879e-14 -4.69387e-14 -4.10716e-14 -7.71189e-15 9.9642e-15 -1.03002e-14 -8.28107e-15 -1.47047e-14 -1.71817e-14 -3.1949e-14 -8.11944e-15 2.84856e-14 -5.34991e-14 -9.82701e-14 -4.44817e-14 -2.04485e-14 1.85989e-14 4.353e-14 8.13293e-14 1.05088e-13 1.44467e-13 1.41176e-13 3.28513e-15 -7.45299e-14 -8.08853e-14 -3.58465e-14 -3.63859e-14 -5.69138e-14 -3.59306e-14 -7.81028e-14 -9.20706e-14 -1.95712e-14 3.26685e-14 1.16865e-14 6.63838e-15 4.88165e-15 7.78588e-15 2.52643e-14 5.78457e-14 1.07941e-13 1.29837e-13 8.68239e-14 0 0 0 0 0 0 0 0 0 0 0 0 0 0 0 0 0 0 0 0 0 0 0 0 0 0 0 0 0 0 0 0 0 0 0 0 0 0 0 0 0 0 0 0 0 0 0 0 0 0 0 0 0 0 0 0 0 0 0 0 0 0 0 0 0 0 0 0 0 0 0 0 0 0 0 0 0 0 0 0 0 0 0 0 0 0 0 0 0 0 0 0 0 0 0 0 0 0 0 0 0 0 0 0 0 0 0 0 0 0 0 0 0 0 0 0 0 0 0 0 0 0 