<?xml version="1.0"?>
<VTKFile type="PolyData">
	<PolyData>
		<Piece NumberOfPoints="1206" NumberOfPolys="1000">
			<Points>
				<DataArray type="Float32" NumberOfComponents="3" format="ascii">
 0 0 0 0.005 0 0 0.01 0 0 0.015 0 0 0.02 0 0 0.025 0 0 0.03 0 0 0.035 0 0 0.04 0 0 0.045 0 0 0.05 0 0 0.055 0 0 0.06 0 0 0.065 0 0 0.07 0 0 0.075 0 0 0.08 0 0 0.085 0 0 0.09 0 0 0.095 0 0 0.1 0 0 0.105 0 0 0.11 0 0 0.115 0 0 0.12 0 0 0.125 0 0 0.13 0 0 0.135 0 0 0.14 0 0 0.145 0 0 0.15 0 0 0.155 0 0 0.16 0 0 0.165 0 0 0.17 0 0 0.175 0 0 0.18 0 0 0.185 0 0 0.19 0 0 0.195 0 0 0.2 0 0 0.205 0 0 0.21 0 0 0.215 0 0 0.22 0 0 0.225 0 0 0.23 0 0 0.235 0 0 0.24 0 0 0.245 0 0 0.25 0 0 0.255 0 0 0.26 0 0 0.265 0 0 0.27 0 0 0.275 0 0 0.28 0 0 0.285 0 0 0.29 0 0 0.295 0 0 0.3 0 0 0.305 0 0 0.31 0 0 0.315001 0 0 0.320003 0 0 0.325011 0 0 0.330029 0 0 0.335071 0 0 0.340157 0 0 0.345309 0 0 0.350555 0 0 0.355916 0 0 0.361412 0 0 0.367058 0 0 0.372869 0 0 0.378858 0 0 0.38504 0 0 0.391432 0 0 0.39805 0 0 0.404913 0 0 0.412044 0 0 0.419466 0 0 0.427208 0 0 0.435299 0 0 0.443777 0 0 0.452682 0 0 0.462061 0 0 0.471965 0 0 0.482447 0 0 0.493551 0 0 0.505272 0 0 0.517433 0 0 0.529598 0 0 0.54163 0 0 0.553537 0 0 0.565355 0 0 0.577124 0 0 0.588871 0 0 0.60061 0 0 0.612347 0 0 0.624095 0 0 0.626705 0 0 0.629241 0 0 0.631733 0 0 0.634194 0 0 0.636634 0 0 0.639058 0 0 0.641474 0 0 0.643887 0 0 0.646301 0 0 0.648699 0 0 0.651086 0 0 0.653467 0 0 0.655845 0 0 0.658221 0 0 0.660594 0 0 0.662964 0 0 0.665334 0 0 0.667702 0 0 0.670067 0 0 0.672431 0 0 0.674793 0 0 0.677157 0 0 0.679521 0 0 0.681885 0 0 0.684248 0 0 0.686611 0 0 0.688973 0 0 0.691335 0 0 0.693699 0 0 0.696063 0 0 0.698428 0 0 0.700793 0 0 0.703157 0 0 0.705521 0 0 0.707886 0 0 0.71025 0 0 0.712617 0 0 0.714981 0 0 0.717355 0 0 0.719749 0 0 0.722152 0 0 0.724618 0 0 0.727173 0 0 0.729811 0 0 0.732627 0 0 0.735627 0 0 0.738912 0 0 0.742513 0 0 0.74647 0 0 0.750768 0 0 0.755356 0 0 0.760148 0 0 0.765057 0 0 0.770021 0 0 0.775008 0 0 0.780003 0 0 0.785001 0 0 0.79 0 0 0.795 0 0 0.8 0 0 0.805 0 0 0.81 0 0 0.815 0 0 0.82 0 0 0.825 0 0 0.83 0 0 0.835 0 0 0.84 0 0 0.845 0 0 0.85 0 0 0.855 0 0 0.86 0 0 0.865 0 0 0.87 0 0 0.875 0 0 0.88 0 0 0.885 0 0 0.89 0 0 0.895 0 0 0.9 0 0 0.905 0 0 0.91 0 0 0.915 0 0 0.92 0 0 0.925 0 0 0.93 0 0 0.935 0 0 0.94 0 0 0.945 0 0 0.95 0 0 0.955 0 0 0.96 0 0 0.965 0 0 0.97 0 0 0.975 0 0 0.98 0 0 0.985 0 0 0.99 0 0 0.995 0 0 1 0 0 0 0.02 0 0.005 0.02 0 0.01 0.02 0 0.015 0.02 0 0.02 0.02 0 0.025 0.02 0 0.03 0.02 0 0.035 0.02 0 0.04 0.02 0 0.045 0.02 0 0.05 0.02 0 0.055 0.02 0 0.06 0.02 0 0.065 0.02 0 0.07 0.02 0 0.075 0.02 0 0.08 0.02 0 0.085 0.02 0 0.09 0.02 0 0.095 0.02 0 0.1 0.02 0 0.105 0.02 0 0.11 0.02 0 0.115 0.02 0 0.12 0.02 0 0.125 0.02 0 0.13 0.02 0 0.135 0.02 0 0.14 0.02 0 0.145 0.02 0 0.15 0.02 0 0.155 0.02 0 0.16 0.02 0 0.165 0.02 0 0.17 0.02 0 0.175 0.02 0 0.18 0.02 0 0.185 0.02 0 0.19 0.02 0 0.195 0.02 0 0.2 0.02 0 0.205 0.02 0 0.21 0.02 0 0.215 0.02 0 0.22 0.02 0 0.225 0.02 0 0.23 0.02 0 0.235 0.02 0 0.24 0.02 0 0.245 0.02 0 0.25 0.02 0 0.255 0.02 0 0.26 0.02 0 0.265 0.02 0 0.27 0.02 0 0.275 0.02 0 0.28 0.02 0 0.285 0.02 0 0.29 0.02 0 0.295 0.02 0 0.3 0.02 0 0.305 0.02 0 0.31 0.02 0 0.315001 0.02 0 0.320003 0.02 0 0.325011 0.02 0 0.330029 0.02 0 0.335071 0.02 0 0.340157 0.02 0 0.345309 0.02 0 0.350555 0.02 0 0.355916 0.02 0 0.361412 0.02 0 0.367058 0.02 0 0.372869 0.02 0 0.378858 0.02 0 0.38504 0.02 0 0.391432 0.02 0 0.39805 0.02 0 0.404913 0.02 0 0.412044 0.02 0 0.419466 0.02 0 0.427208 0.02 0 0.435299 0.02 0 0.443777 0.02 0 0.452682 0.02 0 0.462061 0.02 0 0.471965 0.02 0 0.482447 0.02 0 0.493551 0.02 0 0.505272 0.02 0 0.517433 0.02 0 0.529598 0.02 0 0.54163 0.02 0 0.553537 0.02 0 0.565355 0.02 0 0.577124 0.02 0 0.588871 0.02 0 0.60061 0.02 0 0.612347 0.02 0 0.624095 0.02 0 0.626705 0.02 0 0.629241 0.02 0 0.631733 0.02 0 0.634194 0.02 0 0.636634 0.02 0 0.639058 0.02 0 0.641474 0.02 0 0.643887 0.02 0 0.646301 0.02 0 0.648699 0.02 0 0.651086 0.02 0 0.653467 0.02 0 0.655845 0.02 0 0.658221 0.02 0 0.660594 0.02 0 0.662964 0.02 0 0.665334 0.02 0 0.667702 0.02 0 0.670067 0.02 0 0.672431 0.02 0 0.674793 0.02 0 0.677157 0.02 0 0.679521 0.02 0 0.681885 0.02 0 0.684248 0.02 0 0.686611 0.02 0 0.688973 0.02 0 0.691335 0.02 0 0.693699 0.02 0 0.696063 0.02 0 0.698428 0.02 0 0.700793 0.02 0 0.703157 0.02 0 0.705521 0.02 0 0.707886 0.02 0 0.71025 0.02 0 0.712617 0.02 0 0.714981 0.02 0 0.717355 0.02 0 0.719749 0.02 0 0.722152 0.02 0 0.724618 0.02 0 0.727173 0.02 0 0.729811 0.02 0 0.732627 0.02 0 0.735627 0.02 0 0.738912 0.02 0 0.742513 0.02 0 0.74647 0.02 0 0.750768 0.02 0 0.755356 0.02 0 0.760148 0.02 0 0.765057 0.02 0 0.770021 0.02 0 0.775008 0.02 0 0.780003 0.02 0 0.785001 0.02 0 0.79 0.02 0 0.795 0.02 0 0.8 0.02 0 0.805 0.02 0 0.81 0.02 0 0.815 0.02 0 0.82 0.02 0 0.825 0.02 0 0.83 0.02 0 0.835 0.02 0 0.84 0.02 0 0.845 0.02 0 0.85 0.02 0 0.855 0.02 0 0.86 0.02 0 0.865 0.02 0 0.87 0.02 0 0.875 0.02 0 0.88 0.02 0 0.885 0.02 0 0.89 0.02 0 0.895 0.02 0 0.9 0.02 0 0.905 0.02 0 0.91 0.02 0 0.915 0.02 0 0.92 0.02 0 0.925 0.02 0 0.93 0.02 0 0.935 0.02 0 0.94 0.02 0 0.945 0.02 0 0.95 0.02 0 0.955 0.02 0 0.96 0.02 0 0.965 0.02 0 0.97 0.02 0 0.975 0.02 0 0.98 0.02 0 0.985 0.02 0 0.99 0.02 0 0.995 0.02 0 1 0.02 0 0 0.04 0 0.005 0.04 0 0.01 0.04 0 0.015 0.04 0 0.02 0.04 0 0.025 0.04 0 0.03 0.04 0 0.035 0.04 0 0.04 0.04 0 0.045 0.04 0 0.05 0.04 0 0.055 0.04 0 0.06 0.04 0 0.065 0.04 0 0.07 0.04 0 0.075 0.04 0 0.08 0.04 0 0.085 0.04 0 0.09 0.04 0 0.095 0.04 0 0.1 0.04 0 0.105 0.04 0 0.11 0.04 0 0.115 0.04 0 0.12 0.04 0 0.125 0.04 0 0.13 0.04 0 0.135 0.04 0 0.14 0.04 0 0.145 0.04 0 0.15 0.04 0 0.155 0.04 0 0.16 0.04 0 0.165 0.04 0 0.17 0.04 0 0.175 0.04 0 0.18 0.04 0 0.185 0.04 0 0.19 0.04 0 0.195 0.04 0 0.2 0.04 0 0.205 0.04 0 0.21 0.04 0 0.215 0.04 0 0.22 0.04 0 0.225 0.04 0 0.23 0.04 0 0.235 0.04 0 0.24 0.04 0 0.245 0.04 0 0.25 0.04 0 0.255 0.04 0 0.26 0.04 0 0.265 0.04 0 0.27 0.04 0 0.275 0.04 0 0.28 0.04 0 0.285 0.04 0 0.29 0.04 0 0.295 0.04 0 0.3 0.04 0 0.305 0.04 0 0.31 0.04 0 0.315001 0.04 0 0.320003 0.04 0 0.325011 0.04 0 0.330029 0.04 0 0.335071 0.04 0 0.340157 0.04 0 0.345309 0.04 0 0.350555 0.04 0 0.355916 0.04 0 0.361412 0.04 0 0.367058 0.04 0 0.372869 0.04 0 0.378858 0.04 0 0.38504 0.04 0 0.391432 0.04 0 0.39805 0.04 0 0.404913 0.04 0 0.412044 0.04 0 0.419466 0.04 0 0.427208 0.04 0 0.435299 0.04 0 0.443777 0.04 0 0.452682 0.04 0 0.462061 0.04 0 0.471965 0.04 0 0.482447 0.04 0 0.493551 0.04 0 0.505272 0.04 0 0.517433 0.04 0 0.529598 0.04 0 0.54163 0.04 0 0.553537 0.04 0 0.565355 0.04 0 0.577124 0.04 0 0.588871 0.04 0 0.60061 0.04 0 0.612347 0.04 0 0.624095 0.04 0 0.626705 0.04 0 0.629241 0.04 0 0.631733 0.04 0 0.634194 0.04 0 0.636634 0.04 0 0.639058 0.04 0 0.641474 0.04 0 0.643887 0.04 0 0.646301 0.04 0 0.648699 0.04 0 0.651086 0.04 0 0.653467 0.04 0 0.655845 0.04 0 0.658221 0.04 0 0.660594 0.04 0 0.662964 0.04 0 0.665334 0.04 0 0.667702 0.04 0 0.670067 0.04 0 0.672431 0.04 0 0.674793 0.04 0 0.677157 0.04 0 0.679521 0.04 0 0.681885 0.04 0 0.684248 0.04 0 0.686611 0.04 0 0.688973 0.04 0 0.691335 0.04 0 0.693699 0.04 0 0.696063 0.04 0 0.698428 0.04 0 0.700793 0.04 0 0.703157 0.04 0 0.705521 0.04 0 0.707886 0.04 0 0.71025 0.04 0 0.712617 0.04 0 0.714981 0.04 0 0.717355 0.04 0 0.719749 0.04 0 0.722152 0.04 0 0.724618 0.04 0 0.727173 0.04 0 0.729811 0.04 0 0.732627 0.04 0 0.735627 0.04 0 0.738912 0.04 0 0.742513 0.04 0 0.74647 0.04 0 0.750768 0.04 0 0.755356 0.04 0 0.760148 0.04 0 0.765057 0.04 0 0.770021 0.04 0 0.775008 0.04 0 0.780003 0.04 0 0.785001 0.04 0 0.79 0.04 0 0.795 0.04 0 0.8 0.04 0 0.805 0.04 0 0.81 0.04 0 0.815 0.04 0 0.82 0.04 0 0.825 0.04 0 0.83 0.04 0 0.835 0.04 0 0.84 0.04 0 0.845 0.04 0 0.85 0.04 0 0.855 0.04 0 0.86 0.04 0 0.865 0.04 0 0.87 0.04 0 0.875 0.04 0 0.88 0.04 0 0.885 0.04 0 0.89 0.04 0 0.895 0.04 0 0.9 0.04 0 0.905 0.04 0 0.91 0.04 0 0.915 0.04 0 0.92 0.04 0 0.925 0.04 0 0.93 0.04 0 0.935 0.04 0 0.94 0.04 0 0.945 0.04 0 0.95 0.04 0 0.955 0.04 0 0.96 0.04 0 0.965 0.04 0 0.97 0.04 0 0.975 0.04 0 0.98 0.04 0 0.985 0.04 0 0.99 0.04 0 0.995 0.04 0 1 0.04 0 0 0.06 0 0.005 0.06 0 0.01 0.06 0 0.015 0.06 0 0.02 0.06 0 0.025 0.06 0 0.03 0.06 0 0.035 0.06 0 0.04 0.06 0 0.045 0.06 0 0.05 0.06 0 0.055 0.06 0 0.06 0.06 0 0.065 0.06 0 0.07 0.06 0 0.075 0.06 0 0.08 0.06 0 0.085 0.06 0 0.09 0.06 0 0.095 0.06 0 0.1 0.06 0 0.105 0.06 0 0.11 0.06 0 0.115 0.06 0 0.12 0.06 0 0.125 0.06 0 0.13 0.06 0 0.135 0.06 0 0.14 0.06 0 0.145 0.06 0 0.15 0.06 0 0.155 0.06 0 0.16 0.06 0 0.165 0.06 0 0.17 0.06 0 0.175 0.06 0 0.18 0.06 0 0.185 0.06 0 0.19 0.06 0 0.195 0.06 0 0.2 0.06 0 0.205 0.06 0 0.21 0.06 0 0.215 0.06 0 0.22 0.06 0 0.225 0.06 0 0.23 0.06 0 0.235 0.06 0 0.24 0.06 0 0.245 0.06 0 0.25 0.06 0 0.255 0.06 0 0.26 0.06 0 0.265 0.06 0 0.27 0.06 0 0.275 0.06 0 0.28 0.06 0 0.285 0.06 0 0.29 0.06 0 0.295 0.06 0 0.3 0.06 0 0.305 0.06 0 0.31 0.06 0 0.315001 0.06 0 0.320003 0.06 0 0.325011 0.06 0 0.330029 0.06 0 0.335071 0.06 0 0.340157 0.06 0 0.345309 0.06 0 0.350555 0.06 0 0.355916 0.06 0 0.361412 0.06 0 0.367058 0.06 0 0.372869 0.06 0 0.378858 0.06 0 0.38504 0.06 0 0.391432 0.06 0 0.39805 0.06 0 0.404913 0.06 0 0.412044 0.06 0 0.419466 0.06 0 0.427208 0.06 0 0.435299 0.06 0 0.443777 0.06 0 0.452682 0.06 0 0.462061 0.06 0 0.471965 0.06 0 0.482447 0.06 0 0.493551 0.06 0 0.505272 0.06 0 0.517433 0.06 0 0.529598 0.06 0 0.54163 0.06 0 0.553537 0.06 0 0.565355 0.06 0 0.577124 0.06 0 0.588871 0.06 0 0.60061 0.06 0 0.612347 0.06 0 0.624095 0.06 0 0.626705 0.06 0 0.629241 0.06 0 0.631733 0.06 0 0.634194 0.06 0 0.636634 0.06 0 0.639058 0.06 0 0.641474 0.06 0 0.643887 0.06 0 0.646301 0.06 0 0.648699 0.06 0 0.651086 0.06 0 0.653467 0.06 0 0.655845 0.06 0 0.658221 0.06 0 0.660594 0.06 0 0.662964 0.06 0 0.665334 0.06 0 0.667702 0.06 0 0.670067 0.06 0 0.672431 0.06 0 0.674793 0.06 0 0.677157 0.06 0 0.679521 0.06 0 0.681885 0.06 0 0.684248 0.06 0 0.686611 0.06 0 0.688973 0.06 0 0.691335 0.06 0 0.693699 0.06 0 0.696063 0.06 0 0.698428 0.06 0 0.700793 0.06 0 0.703157 0.06 0 0.705521 0.06 
[...]
			<PointData Scalars="VitesseX">
				<DataArray Name="VitesseX" type="Float32" format="ascii">
 0 0 0 0 0 0 0 0 0 0 0 0 0 0 0 0 0 0 0 0 0 0 0 0 0 0 0 0 0 0 0 0 0 0 0 0 0 0 0 0 0 0 0 0 0 0 0 0 0 0 0 0 0 0 0 0 0 0 0 0 0 0 0 0 0 0 0 0 0 0 0 0 0 0 0 0 0 0 0 0 0 0 0 0 0 0 0 0 0 0 0 0 0 0 0 0 0 0 0 0 0 0 0 0 0 0 0 0 0 0 0 0 0 0 0 0 0 0 0 0 0 0 0 0 0 0 0 0 0 0 0 0 0 0 0 0 0 0 0 0 0 0 0 0 0 0 0 0 0 0 0 0 0 0 0 0 0 0 0 0 0 0 0 0 0 0 0 0 0 0 0 0 0 0 0 0 0 0 0 0 0 0 0 0 0 0 0 0 0 0 0 0 0 0 0 0 0 0 0 0 0 0 3.69637e-16 -1.88085e-15 -1.91225e-15 3.25578e-16 -8.92355e-16 -8.13524e-17 4.62436e-15 2.87045e-15 5.32027e-15 6.7513e-15 -3.74016e-15 6.94687e-15 4.49723e-15 3.33508e-15 8.4837e-15 1.18941e-14 1.15568e-14 -1.27662e-15 -8.97144e-15 9.68629e-15 -7.23224e-15 4.64293e-15 -2.4616e-15 4.91086e-15 3.28444e-15 1.68513e-14 1.89117e-14 -1.81921e-14 2.33239e-14 5.12392e-15 4.43246e-15 -1.18642e-15 5.26697e-15 1.25233e-14 2.10964e-14 -1.91946e-14 2.30412e-14 -1.44309e-14 2.41241e-14 6.78531e-15 8.51351e-16 2.5172e-14 3.03773e-14 1.50599e-14 3.5462e-14 1.43037e-14 3.83867e-14 2.69334e-14 7.24242e-14 1.21633e-13 6.97652e-13 5.21811e-12 3.75166e-11 2.53724e-10 1.61494e-09 9.64387e-09 5.38785e-08 2.8069e-07 1.35851e-06 6.082e-06 2.50596e-05 9.44578e-05 0.000323398 0.000997359 0.00274537 0.00668692 0.0143317 0.0270476 0.0453601 0.0687296 0.0960179 0.12613 0.158327 0.192213 0.227614 0.264474 0.3028 0.342638 0.384059 0.427154 0.47203 0.518805 0.567608 0.618559 0.671752 0.727195 0.784664 0.843326 0.900614 0.948775 0.966108 0.954049 0.943657 0.935459 0.930701 0.928509 0.92756 0.927035 0.926631 0.926417 0.926487 0.926585 0.926754 0.926867 0.926818 0.926776 0.926718 0.926638 0.926547 0.926454 0.926365 0.926284 0.926217 0.926167 0.926135 0.926119 0.926111 0.926093 0.926066 0.926032 0.925985 0.925919 0.925821 0.925679 0.925498 0.925302 0.92513 0.925028 0.925047 0.925587 0.925469 0.925128 0.92463 0.924256 0.924412 0.923727 0.923214 0.921315 0.922129 0.913875 0.905188 0.864897 0.846742 0.804781 0.738703 0.656341 0.548613 0.429113 0.304316 0.191138 0.103458 0.0480399 0.0197292 0.00752985 0.00277425 0.00100603 0.000361903 0.000129483 4.60988e-05 1.6326e-05 5.7478e-06 2.0101e-06 6.97714e-07 2.4018e-07 8.1933e-08 2.76777e-08 9.25252e-09 3.05902e-09 9.99647e-10 3.22831e-10 1.02825e-10 3.25395e-11 1.0042e-11 3.07188e-12 8.67423e-13 2.28242e-13 4.21316e-14 3.47422e-14 -6.94699e-14 6.81487e-14 6.12235e-14 -1.21919e-13 -9.66581e-14 -8.14878e-14 -5.51281e-15 4.63254e-14 3.41595e-14 -9.00545e-14 2.40471e-14 -9.78825e-14 -1.76606e-13 3.1955e-14 4.78917e-15 -1.06492e-14 1.64977e-14 4.31231e-14 1.21226e-14 -5.11397e-14 1.98894e-14 0 0 2.38269e-17 -1.49166e-15 1.8956e-15 1.7688e-15 -3.09177e-15 -3.01811e-16 3.72086e-16 5.94631e-15 1.18245e-16 7.80234e-15 -2.23336e-15 3.11621e-15 7.54037e-15 9.65383e-16 1.14293e-14 8.87814e-15 4.67262e-15 4.32644e-15 -8.35285e-15 -7.31495e-15 1.16953e-14 -1.82108e-15 6.37371e-15 -2.09467e-15 6.72427e-15 1.93847e-14 1.13189e-14 -2.00508e-17 9.20294e-15 1.46498e-14 2.6021e-15 -1.78242e-14 2.68618e-14 2.53329e-14 -2.92575e-14 9.97954e-15 1.13018e-14 -1.38009e-14 1.96715e-14 5.08521e-15 -5.39077e-15 5.46314e-14 2.64214e-14 3.49912e-14 3.08979e-14 3.2917e-14 8.09171e-14 2.50414e-14 1.09555e-13 1.47016e-13 5.63795e-13 5.16425e-12 3.74693e-11 2.5369e-10 1.61504e-09 9.64378e-09 5.38784e-08 2.8069e-07 1.35851e-06 6.082e-06 2.50596e-05 9.44578e-05 0.000323398 0.000997359 0.00274537 0.00668692 0.0143317 0.0270476 0.0453601 0.0687296 0.0960179 0.12613 0.158327 0.192213 0.227614 0.264474 0.3028 0.342638 0.384059 0.427154 0.47203 0.518805 0.567608 0.618559 0.671752 0.727195 0.784664 0.843326 0.900614 0.948775 0.966108 0.954049 0.943657 0.935459 0.930701 0.928509 0.92756 0.927035 0.926631 0.926417 0.926487 0.926585 0.926754 0.926867 0.926818 0.926776 0.926718 0.926638 0.926547 0.926454 0.926365 0.926284 0.926217 0.926167 0.926135 0.926119 0.926111 0.926093 0.926066 0.926032 0.925985 0.925919 0.925821 0.925679 0.925498 0.925302 0.92513 0.925028 0.925047 0.925587 0.925469 0.925128 0.92463 0.924256 0.924412 0.923727 0.923214 0.921315 0.922129 0.913875 0.905188 0.864897 0.846742 0.804781 0.738703 0.656341 0.548613 0.429113 0.304316 0.191138 0.103458 0.0480399 0.0197292 0.00752985 0.00277425 0.00100603 0.000361903 0.000129483 4.60988e-05 1.6326e-05 5.7478e-06 2.0101e-06 6.97714e-07 2.4018e-07 8.19331e-08 2.76777e-08 9.25256e-09 3.05895e-09 9.99595e-10 3.2286e-10 1.02933e-10 3.25571e-11 1.00877e-11 3.06789e-12 7.84454e-13 1.39497e-13 4.11753e-14 9.42504e-14 9.12676e-15 6.05663e-14 -6.09463e-14 -6.24675e-14 8.25279e-14 -2.14398e-13 6.25495e-14 1.75544e-14 -9.44007e-14 -1.30546e-13 -1.75723e-14 1.48122e-14 -7.37524e-14 1.19925e-13 -1.24024e-13 -4.27237e-14 5.10952e-14 1.6993e-13 6.12973e-14 -7.85989e-14 5.07669e-14 0 0 -1.01934e-15 -2.07662e-15 1.54416e-15 1.76003e-15 -3.16101e-16 4.24941e-15 1.04814e-15 5.21685e-15 5.78811e-16 -3.20954e-15 8.92797e-15 1.34539e-15 2.98716e-16 9.06058e-15 2.069e-15 1.93215e-15 8.10043e-15 -7.10822e-16 -1.06268e-15 -1.20371e-14 1.38417e-14 -5.04564e-15 8.8252e-15 -7.25768e-15 2.05457e-14 4.56475e-15 -2.56041e-15 2.03721e-14 1.96221e-14 1.3235e-14 -2.85395e-14 5.07742e-15 2.45657e-14 2.06704e-14 -3.70749e-14 2.81509e-14 -6.31154e-15 2.80973e-14 -3.47985e-15 4.15452e-17 1.43053e-14 5.48865e-14 -1.89761e-15 5.02895e-14 -7.75626e-16 5.91084e-14 8.23504e-14 8.91069e-14 1.30318e-13 2.29478e-13 4.6693e-13 5.09601e-12 3.73806e-11 2.53726e-10 1.615e-09 9.64382e-09 5.38783e-08 2.8069e-07 1.35851e-06 6.082e-06 2.50596e-05 9.44578e-05 0.000323398 0.000997359 0.00274537 0.00668692 0.0143317 0.0270476 0.0453601 0.0687296 0.0960179 0.12613 0.158327 0.192213 0.227614 0.264474 0.3028 0.342638 0.384059 0.427154 0.47203 0.518805 0.567608 0.618559 0.671752 0.727195 0.784664 0.843326 0.900614 0.948775 0.966108 0.954049 0.943657 0.935459 0.930701 0.928509 0.92756 0.927035 0.926631 0.926417 0.926487 0.926585 0.926754 0.926867 0.926818 0.926776 0.926718 0.926638 0.926547 0.926454 0.926365 0.926284 0.926217 0.926167 0.926135 0.926119 0.926111 0.926093 0.926066 0.926032 0.925985 0.925919 0.925821 0.925679 0.925498 0.925302 0.92513 0.925028 0.925047 0.925587 0.925469 0.925128 0.92463 0.924256 0.924412 0.923727 0.923214 0.921315 0.922129 0.913875 0.905188 0.864897 0.846742 0.804781 0.738703 0.656341 0.548613 0.429113 0.304316 0.191138 0.103458 0.0480399 0.0197292 0.00752985 0.00277425 0.00100603 0.000361903 0.000129483 4.60988e-05 1.6326e-05 5.7478e-06 2.0101e-06 6.97714e-07 2.4018e-07 8.19331e-08 2.76777e-08 9.25253e-09 3.05902e-09 9.99595e-10 3.22858e-10 1.02984e-10 3.24071e-11 1.01975e-11 3.01989e-12 8.19253e-13 2.49186e-13 -4.92098e-14 5.52634e-14 1.32201e-13 -8.80162e-14 -8.31337e-14 -3.1125e-14 1.72573e-13 -8.92239e-14 -8.46384e-14 -7.16867e-15 -2.33524e-13 4.39382e-14 -7.90338e-14 -4.46674e-14 2.79052e-14 5.03629e-14 -1.86136e-13 -8.62371e-15 7.13187e-14 6.90711e-14 1.68354e-13 -1.22319e-13 5.88212e-14 0 0 -7.73921e-16 -1.52105e-15 4.64762e-16 1.08279e-15 4.25098e-15 1.07625e-16 8.07778e-15 -3.15246e-15 5.53412e-15 -6.74348e-15 6.64411e-15 2.63157e-15 -1.80181e-15 3.75573e-15 -1.26862e-14 4.08057e-15 1.06456e-14 2.22442e-15 -1.68165e-14 1.047e-14 -1.44075e-14 1.17899e-14 -3.81147e-15 6.87431e-17 2.62183e-14 1.14462e-14 3.22393e-15 7.46406e-15 1.90665e-14 1.59603e-14 -3.5255e-14 2.70237e-14 -6.73025e-15 8.00939e-15 1.96292e-14 6.53251e-15 6.01416e-14 3.82856e-16 -2.53917e-14 -5.51818e-15 3.26617e-14 2.10735e-14 1.83368e-14 1.49993e-14 9.17778e-15 3.16223e-14 1.09701e-13 1.48949e-13 1.38937e-13 2.45022e-13 5.82437e-13 4.93676e-12 3.74252e-11 2.53666e-10 1.61493e-09 9.64381e-09 5.38783e-08 2.8069e-07 1.35851e-06 6.082e-06 2.50596e-05 9.44578e-05 0.000323398 0.000997359 0.00274537 0.00668692 0.0143317 0.0270476 0.0453601 0.0687296 0.0960179 0.12613 0.158327 0.192213 0.227614 0.264474 0.3028 0.342638 0.384059 0.427154 0.47203 0.518805 0.567608 0.618559 0.671752 0.727195 0.784664 0.843326 0.900614 0.948775 0.966108 0.954049 0.943657 0.935459 0.930701 0.928509 0.92756 0.927035 0.926631 0.926417 0.926487 0.926585 0.926754 0.926867 0.926818 0.926776 0.926718 0.926638 0.926547 0.926454 0.926365 0.926284 0.926217 0.926167 0.926135 0.926119 0.926111 0.926093 0.926066 0.926032 0.925985 0.925919 0.925821 0.925679 0.925498 0.925302 0.92513 0.925028 0.925047 0.925587 0.925469 0.925128 0.92463 0.924256 0.924412 0.923727 0.923214 0.921315 0.922129 0.913875 0.905188 0.864897 0.846742 0.804781 0.738703 0.656341 0.548613 0.429113 0.304316 0.191138 0.103458 0.0480399 0.0197292 0.00752985 0.00277425 0.00100603 0.000361903 0.000129483 4.60988e-05 1.6326e-05 5.7478e-06 2.0101e-06 6.97714e-07 2.4018e-07 8.19331e-08 2.76778e-08 9.25254e-09 3.05906e-09 9.99661e-10 3.22808e-10 1.02807e-10 3.25576e-11 1.01421e-11 3.39988e-12 8.41498e-13 2.15671e-13 -1.46372e-13 -1.63288e-14 -8.63844e-14 -1.41864e-13 -3.48105e-16 -2.92155e-14 7.40024e-14 -5.08473e-14 -9.38103e-14 -1.53211e-14 -9.50902e-14 7.42167e-14 -7.89558e-14 -2.92456e-14 -3.88392e-14 -6.15106e-15 -4.46734e-14 1.64658e-13 -3.15468e-14 -4.74831e-14 -8.111e-14 3.70472e-14 1.68351e-14 0 0 0 0 0 0 0 0 0 0 0 0 0 0 0 0 0 0 0 0 0 0 0 0 0 0 0 0 0 0 0 0 0 0 0 0 0 0 0 0 0 0 0 0 0 0 0 0 0 0 0 0 0 0 0 0 0 0 0 0 0 0 0 0 0 0 0 0 0 0 0 0 0 0 0 0 0 0 0 0 0 0 0 0 0 0 0 0 0 0 0 0 0 0 0 0 0 0 0 0 0 0 0 0 0 0 0 0 0 0 0 0 0 0 0 0 0 0 0 0 0 0 0 0 0 0 0 0 0 0 0 0 0 0 0 0 0 0 0 0 0 0 0 0 0 0 0 0 0 0 0 0 0 0 0 0 0 0 0 0 0 0 0 0 0 0 0 0 0 0 0 0 0 0 0 0 0 0 0 0 0 0 0 0 0 0 0 0 0 0 0 0 0 0 0 0 0 0 0 0 0 0
				</DataArray>
				<DataArray Name="VitesseY" type="Float32" format="ascii">
 0 0 0 0 0 0 0 0 0 0 0 0 0 0 0 0 0 0 0 0 0 0 0 0 0 0 0 0 0 0 0 0 0 0 0 0 0 0 0 0 0 0 0 0 0 0 0 0 0 0 0 0 0 0 0 0 0 0 0 0 0 0 0 0 0 0 0 0 0 0 0 0 0 0 0 0 0 0 0 0 0 0 0 0 0 0 0 0 0 0 0 0 0 0 0 0 0 0 0 0 0 0 0 0 0 0 0 0 0 0 0 0 0 0 0 0 0 0 0 0 0 0 0 0 0 0 0 0 0 0 0 0 0 0 0 0 0 0 0 0 0 0 0 0 0 0 0 0 0 0 0 0 0 0 0 0 0 0 0 0 0 0 0 0 0 0 0 0 0 0 0 0 0 0 0 0 0 0 0 0 0 0 0 0 0 0 0 0 0 0 0 0 0 0 0 0 0 0 0 0 0 0 1.9311e-15 1.86701e-15 1.05573e-15 1.74213e-15 1.48763e-15 -9.54423e-16 6.30006e-17 2.02627e-15 1.51437e-15 2.67385e-15 1.45748e-15 1.01263e-15 1.06364e-15 -1.37425e-15 -2.98431e-15 -1.22201e-15 2.13575e-15 4.84207e-15 1.06452e-15 -1.40463e-15 -3.55201e-15 -5.21521e-15 4.89875e-16 1.03433e-15 -4.51379e-15 -1.91784e-15 1.13038e-14 9.89731e-15 2.79031e-15 4.43654e-15 4.36195e-15 6.88723e-15 6.77277e-15 -1.20417e-15 -1.28295e-15 -6.97649e-15 -3.01997e-15 1.96655e-15 -8.04026e-15 -5.58463e-15 -3.19437e-15 -1.4065e-15 2.53788e-15 2.55823e-15 6.33828e-15 1.37081e-14 2.4414e-14 2.96579e-14 2.77371e-14 2.18319e-14 9.00928e-15 3.34377e-15 8.4816e-15 3.4323e-15 -5.28679e-15 -2.90259e-14 -3.79435e-14 -2.30568e-14 -4.16343e-14 -4.74636e-14 -1.25064e-14 9.57289e-15 -1.49832e-14 -3.44605e-14 -1.74629e-14 -2.40153e-14 -2.23235e-14 -5.61416e-14 -1.37088e-13 -3.04212e-13 -6.65006e-13 -1.30803e-12 -2.29247e-12 -3.74433e-12 -5.58114e-12 -7.32784e-12 -8.41115e-12 -7.95436e-12 -4.77002e-12 2.42318e-12 1.47913e-11 3.31747e-11 5.76625e-11 8.73923e-11 1.20382e-10 1.53139e-10 1.80827e-10 1.96874e-10 1.91202e-10 1.40654e-10 -3.90776e-11 -2.9736e-10 -4.97087e-10 -5.98067e-10 -5.97601e-10 -9.62798e-10 -1.8676e-09 -1.72228e-09 -9.89626e-09 -1.09614e-08 3.28163e-08 1.70133e-08 1.0682e-08 7.59101e-09 5.77585e-09 4.52627e-09 3.57751e-09 2.80473e-09 2.1615e-09 1.60012e-09 1.06275e-09 5.71315e-10 1.72874e-10 -1.15125e-10 -3.02019e-10 -4.17065e-10 -4.88411e-10 -5.25135e-10 -5.41681e-10 -5.50207e-10 -5.44434e-10 -5.18272e-10 -4.76489e-10 -4.22494e-10 -3.55497e-10 -2.85906e-10 -2.09608e-10 -1.17135e-10 -1.01415e-11 1.04612e-10 1.8652e-10 2.44504e-10 3.09696e-10 3.72752e-10 4.14298e-10 4.24598e-10 4.16833e-10 3.93081e-10 3.5994e-10 3.17125e-10 2.68867e-10 2.167e-10 1.69317e-10 1.23458e-10 8.26301e-11 4.91211e-11 2.4146e-11 8.39964e-12 5.95418e-13 -1.62707e-12 -1.30216e-12 -5.84827e-13 -1.95593e-13 -7.87482e-14 -4.53992e-14 -3.32765e-14 -3.7076e-14 -2.5722e-14 -3.56334e-14 -5.12908e-14 -3.75094e-14 -3.21734e-14 -2.8117e-14 -1.92546e-14 -1.15274e-14 -1.42315e-14 -2.80224e-14 -3.06138e-14 -1.99054e-14 -1.44267e-15 -2.18177e-14 4.59445e-15 3.51972e-14 1.91762e-14 3.93591e-15 -3.76739e-14 -4.31905e-14 2.90296e-15 -5.54101e-15 -3.75877e-14 2.8529e-15 -2.33904e-14 -6.80537e-14 -7.66229e-14 -6.78487e-14 -3.08101e-14 1.52846e-14 2.95957e-14 2.592e-15 7.61446e-15 -6.71402e-15 2.99076e-15 2.0903e-14 1.69209e-14 1.79805e-14 3.61624e-14 5.96075e-14 2.89553e-14 1.49536e-14 0 0 7.03035e-16 1.01225e-15 2.74743e-15 3.41449e-15 3.34354e-15 5.2861e-15 3.18594e-15 9.19258e-16 9.19156e-16 -1.21197e-15 6.19696e-16 4.83306e-16 1.2774e-16 2.65067e-15 4.24577e-15 2.81364e-15 -3.08805e-15 -6.00505e-15 -7.56526e-16 -2.50199e-15 2.91394e-16 5.08938e-15 -1.35178e-16 -1.2757e-16 4.41702e-15 3.3622e-15 -1.1191e-14 -6.9818e-15 1.07105e-15 -1.77079e-15 2.83254e-16 -6.88114e-15 -5.53025e-15 1.11207e-14 1.7692e-15 2.20138e-15 2.54056e-15 -5.20554e-15 3.76569e-15 -2.66464e-16 -4.56295e-15 -4.84511e-16 1.84499e-15 5.90057e-15 5.9753e-15 2.14954e-15 6.68439e-15 1.1544e-14 2.23072e-14 4.38633e-14 2.95343e-14 -1.16909e-14 -4.21551e-14 -5.7396e-14 -3.04117e-14 -2.54151e-15 -2.0839e-14 -3.4573e-14 -3.34522e-14 -1.37586e-14 1.79304e-15 -1.85962e-14 -1.94547e-14 -8.67011e-16 5.6299e-16 -1.74471e-14 -4.7125e-14 -4.10857e-14 -7.23501e-14 -1.90946e-13 -4.03738e-13 -7.7977e-13 -1.44077e-12 -2.34028e-12 -3.38682e-12 -4.48288e-12 -5.20348e-12 -4.93804e-12 -2.98204e-12 1.45456e-12 9.11465e-12 2.04968e-11 3.56671e-11 5.4046e-11 7.43977e-11 9.46753e-11 1.11838e-10 1.21737e-10 1.18195e-10 8.65459e-11 -1.93336e-11 -2.02864e-10 -2.8522e-10 -3.23301e-10 -5.67503e-10 -5.08171e-10 -3.34218e-10 -3.68715e-09 2.17623e-09 5.24034e-09 -2.20162e-08 -3.67117e-09 1.36499e-09 2.41241e-09 2.2616e-09 1.80577e-09 1.26505e-09 7.41149e-10 3.18888e-10 7.54611e-11 2.87096e-11 6.78593e-11 9.17069e-11 5.877e-11 -2.22726e-11 -1.26728e-10 -2.28046e-10 -2.99785e-10 -3.36829e-10 -3.50224e-10 -3.45773e-10 -3.26148e-10 -2.97463e-10 -2.62508e-10 -2.20462e-10 -1.7725e-10 -1.30101e-10 -7.30567e-11 -7.01745e-12 6.38077e-11 1.14372e-10 1.50166e-10 1.90391e-10 2.29303e-10 2.5496e-10 2.61386e-10 2.56685e-10 2.42062e-10 2.21596e-10 1.95142e-10 1.65304e-10 1.33052e-10 1.03823e-10 7.55694e-11 5.04073e-11 2.98112e-11 1.44975e-11 4.88444e-12 1.87463e-13 -1.11981e-12 -8.7626e-13 -3.87378e-13 -1.38296e-13 -5.61297e-14 -5.36317e-14 -5.5338e-14 -3.92886e-14 -4.96711e-14 -3.8787e-14 -2.29115e-14 -1.84473e-14 6.09947e-15 8.74293e-15 -7.44178e-15 -5.07262e-15 -2.09161e-15 8.79872e-15 5.4668e-15 -3.38677e-14 -5.80436e-14 -3.19347e-15 1.94519e-15 -1.29844e-14 1.34488e-14 6.89815e-15 5.69353e-15 -1.14114e-14 -4.27957e-14 8.21015e-17 4.9869e-14 -2.30581e-14 -1.24958e-14 9.18632e-14 1.12007e-13 8.70201e-14 6.00082e-14 -2.5443e-14 -8.2176e-14 -7.56289e-14 -6.2887e-14 5.4888e-15 4.33699e-14 1.50548e-14 -2.10499e-14 -2.14487e-14 5.41641e-16 2.12547e-14 5.73546e-14 7.20709e-14 0 0 3.02273e-15 2.26492e-15 2.93492e-16 -4.99889e-16 2.88835e-16 1.9705e-16 3.63925e-15 5.83643e-15 5.8581e-15 5.43634e-15 3.61513e-15 5.99573e-15 4.08642e-15 1.68646e-15 -4.52191e-16 -2.5694e-15 2.53621e-15 4.83819e-15 5.32073e-17 2.35326e-15 -8.92741e-16 -5.89435e-15 -1.12088e-15 -1.6549e-15 -4.11272e-15 -3.16375e-15 4.17607e-15 1.50607e-15 1.13456e-15 6.28886e-15 -3.97124e-15 1.17163e-15 4.98803e-15 -1.33439e-14 -7.15693e-15 -4.93797e-15 -5.15148e-15 8.65458e-15 4.29485e-15 1.21313e-15 9.24653e-15 1.02298e-14 8.45011e-16 -6.47151e-15 -1.06733e-14 -8.19648e-15 -5.8265e-15 5.66501e-15 1.6119e-14 2.02349e-14 3.10996e-14 3.09902e-14 2.21889e-14 2.4478e-14 -5.02905e-15 -3.45878e-14 -3.47997e-14 -2.87566e-14 -7.40778e-15 -4.2185e-15 -2.76439e-14 -7.17491e-14 -6.21827e-14 -1.37624e-14 -1.06769e-14 5.80347e-16 1.33642e-14 -7.11333e-15 2.16233e-14 1.44465e-13 3.99026e-13 7.9793e-13 1.43506e-12 2.33834e-12 3.42526e-12 4.49411e-12 5.17237e-12 4.90779e-12 2.94782e-12 -1.48909e-12 -9.15659e-12 -2.05445e-11 -3.5695e-11 -5.40849e-11 -7.44385e-11 -9.4659e-11 -1.11786e-10 -1.2168e-10 -1.18156e-10 -8.64838e-11 1.95045e-11 2.03064e-10 2.85224e-10 3.22893e-10 5.66593e-10 5.06793e-10 3.3252e-10 3.68528e-09 -2.17829e-09 -5.24276e-09 2.2012e-08 3.667e-09 -1.36923e-09 -2.41669e-09 -2.26575e-09 -1.80942e-09 -1.26772e-09 -7.42397e-10 -3.18591e-10 -7.38709e-11 -2.6317e-11 -6.52209e-11 -8.91938e-11 -5.6609e-11 2.39847e-11 1.2801e-10 2.28905e-10 3.00233e-10 3.3691e-10 3.49971e-10 3.45207e-10 3.25246e-10 2.96264e-10 2.61096e-10 2.18808e-10 1.75394e-10 1.28063e-10 7.08126e-11 4.55407e-12 -6.64858e-11 -1.17182e-10 -1.53087e-10 -1.93463e-10 -2.32519e-10 -2.58276e-10 -2.64762e-10 -2.60121e-10 -2.45502e-10 -2.25008e-10 -1.98488e-10 -1.68556e-10 -1.36152e-10 -1.06775e-10 -7.82679e-11 -5.27574e-11 -3.17643e-11 -1.59759e-11 -5.90948e-12 -8.5243e-13 7.40413e-13 6.83123e-13 2.75026e-13 4.44225e-14 -2.75378e-14 -3.84794e-14 -4.11898e-14 -6.40344e-14 -5.83888e-14 -3.11128e-14 -4.03329e-14 -5.27931e-14 -6.45895e-14 -7.22277e-14 -5.29937e-14 -5.30386e-14 -4.67169e-14 -5.14365e-14 -3.84461e-14 1.80969e-14 4.17781e-14 -9.45579e-16 -3.09379e-14 -2.62117e-14 -3.71308e-14 -3.38263e-14 3.62226e-15 2.53422e-14 2.44407e-14 2.63284e-15 -5.35341e-14 -2.32746e-14 -3.16235e-14 -1.057e-13 -7.20178e-14 -5.26634e-14 -6.85555e-14 -2.4237e-14 4.13732e-14 6.31394e-14 1.99684e-14 -3.77545e-14 -6.76062e-14 -7.22965e-14 -4.29318e-14 -2.89723e-14 -7.1228e-14 -9.0376e-14 -1.10648e-13 -1.34113e-13 0 0 1.02672e-14 1.11274e-14 1.30215e-14 1.33486e-14 1.35613e-14 1.36551e-14 1.09283e-14 8.49912e-15 7.58631e-15 8.38651e-15 8.79976e-15 6.12822e-15 7.84739e-15 8.38428e-15 5.31749e-15 4.61219e-15 8.00906e-16 -3.32666e-16 1.25537e-15 5.39931e-16 2.42398e-15 4.64417e-15 7.05177e-16 1.16867e-16 5.72914e-15 8.0474e-15 3.86696e-15 4.70724e-15 1.72945e-15 -2.98613e-15 6.17666e-15 5.01654e-15 -1.2157e-15 6.14408e-15 1.09925e-14 1.75604e-14 2.89878e-14 2.48829e-14 1.67164e-14 1.30068e-14 8.13099e-15 3.3628e-15 9.3232e-15 1.28995e-14 1.07162e-14 3.80422e-15 1.50852e-15 1.18027e-14 1.84224e-14 2.01781e-14 4.23152e-14 3.12733e-14 1.14976e-14 5.28492e-15 3.52837e-15 1.43248e-14 8.05121e-15 -8.93925e-15 -3.7071e-14 -6.26688e-14 -7.24792e-14 -2.21517e-14 5.29301e-15 -2.86276e-14 -2.81557e-14 -3.15272e-14 -5.85043e-16 4.88379e-14 1.07311e-13 2.77538e-13 6.05562e-13 1.26186e-12 2.27898e-12 3.69373e-12 5.47823e-12 7.26335e-12 8.40066e-12 7.98574e-12 4.81085e-12 -2.40565e-12 -1.48012e-11 -3.3185e-11 -5.76872e-11 -8.74098e-11 -1.20342e-10 -1.53134e-10 -1.80862e-10 -1.96881e-10 -1.91178e-10 -1.40601e-10 3.91756e-11 2.97456e-10 4.97089e-10 5.97847e-10 5.97036e-10 9.61937e-10 1.86655e-09 1.72111e-09 9.89498e-09 1.09599e-08 -3.28189e-08 -1.70158e-08 -1.06846e-08 -7.59365e-09 -5.77842e-09 -4.52852e-09 -3.57919e-09 -2.80552e-09 -2.16135e-09 -1.59914e-09 -1.06125e-09 -5.69709e-10 -1.71351e-10 1.16474e-10 3.03137e-10 4.17911e-10 4.88966e-10 5.25447e-10 5.41767e-10 5.50066e-10 5.44083e-10 5.1774e-10 4.75809e-10 4.2163e-10 3.54509e-10 2.84792e-10 2.08365e-10 1.15789e-10 8.70028e-12 -1.06171e-10 -1.88221e-10 -2.46303e-10 -3.11592e-10 -3.74747e-10 -4.16339e-10 -4.26619e-10 -4.18854e-10 -3.95132e-10 -3.62011e-10 -3.19235e-10 -2.70908e-10 -2.18647e-10 -1.71256e-10 -1.25217e-10 -8.40895e-11 -5.02797e-11 -2.50165e-11 -9.04128e-12 -1.02604e-12 1.40335e-12 1.14907e-12 4.61663e-13 1.01914e-13 -3.11164e-14 -6.47799e-14 -5.50099e-14 -4.07581e-14 -5.30809e-14 -8.30688e-14 -7.40107e-14 -8.54203e-14 -8.74672e-14 -5.76117e-14 -5.51277e-14 -3.54728e-14 -1.27675e-14 1.68443e-14 1.58353e-14 -1.46228e-14 -3.43242e-14 -4.83572e-14 -2.50037e-14 -5.97202e-15 8.61556e-14 1.8345e-13 1.43137e-13 8.8818e-14 4.75024e-14 -3.1481e-15 -1.50493e-14 -3.82495e-14 -8.78674e-15 4.12092e-14 -7.4883e-15 -1.95268e-14 -8.09034e-15 -1.97659e-14 -4.31542e-14 -5.73648e-14 -1.05315e-14 3.46305e-14 3.35961e-14 5.95651e-14 1.08906e-13 1.12517e-13 1.00038e-13 2.78104e-14 2.54728e-14 7.83272e-14 0 0 0 0 0 0 0 0 0 0 0 0 0 0 0 0 0 0 0 0 0 0 0 0 0 0 0 0 0 0 0 0 0 0 0 0 0 0 0 0 0 0 0 0 0 0 0 0 0 0 0 0 0 0 0 0 0 0 0 0 0 0 0 0 0 0 0 0 0 0 0 0 0 0 0 0 0 0 0 0 0 0 0 0 0 0 0 0 0 0 0 0 0 0 0 0 0 0