<?xml version="1.0"?>
<VTKFile type="PolyData">
	<PolyData>
		<Piece NumberOfPoints="1206" NumberOfPolys="1000">
			<Points>
				<DataArray type="Float32" NumberOfComponents="3" format="ascii">
 0 0 0 0.005 0 0 0.01 0 0 0.015 0 0 0.02 0 0 0.025 0 0 0.03 0 0 0.035 0 0 0.04 0 0 0.045 0 0 0.05 0 0 0.055 0 0 0.06 0 0 0.065 0 0 0.07 0 0 0.075 0 0 0.08 0 0 0.085 0 0 0.09 0 0 0.095 0 0 0.1 0 0 0.105 0 0 0.11 0 0 0.115 0 0 0.12 0 0 0.125 0 0 0.13 0 0 0.135 0 0 0.14 0 0 0.145 0 0 0.15 0 0 0.155 0 0 0.16 0 0 0.165 0 0 0.17 0 0 0.175 0 0 0.18 0 0 0.185 0 0 0.19 0 0 0.195 0 0 0.2 0 0 0.205 0 0 0.21 0 0 0.215 0 0 0.22 0 0 0.225 0 0 0.23 0 0 0.235 0 0 0.24 0 0 0.245 0 0 0.25 0 0 0.255 0 0 0.26 0 0 0.265 0 0 0.27 0 0 0.275001 0 0 0.280002 0 0 0.285007 0 0 0.290018 0 0 0.295043 0 0 0.300094 0 0 0.305188 0 0 0.310345 0 0 0.315581 0 0 0.320913 0 0 0.326353 0 0 0.331913 0 0 0.337602 0 0 0.343428 0 0 0.3494 0 0 0.35553 0 0 0.361825 0 0 0.368298 0 0 0.37496 0 0 0.381824 0 0 0.388905 0 0 0.396219 0 0 0.403782 0 0 0.411615 0 0 0.419739 0 0 0.428178 0 0 0.43696 0 0 0.446115 0 0 0.455677 0 0 0.465681 0 0 0.476166 0 0 0.487164 0 0 0.498685 0 0 0.510661 0 0 0.522827 0 0 0.534907 0 0 0.546883 0 0 0.55876 0 0 0.570567 0 0 0.582332 0 0 0.594076 0 0 0.605811 0 0 0.617542 0 0 0.629272 0 0 0.641005 0 0 0.652752 0 0 0.655362 0 0 0.657898 0 0 0.660388 0 0 0.662848 0 0 0.665287 0 0 0.66771 0 0 0.670124 0 0 0.672536 0 0 0.674948 0 0 0.677346 0 0 0.679732 0 0 0.682112 0 0 0.684489 0 0 0.686864 0 0 0.689236 0 0 0.691606 0 0 0.693975 0 0 0.696342 0 0 0.698706 0 0 0.701069 0 0 0.703431 0 0 0.705794 0 0 0.708158 0 0 0.710521 0 0 0.712885 0 0 0.715248 0 0 0.71761 0 0 0.719973 0 0 0.722336 0 0 0.7247 0 0 0.727063 0 0 0.729425 0 0 0.731787 0 0 0.734149 0 0 0.73651 0 0 0.738872 0 0 0.741235 0 0 0.743595 0 0 0.745958 0 0 0.748323 0 0 0.750685 0 0 0.753048 0 0 0.755411 0 0 0.757774 0 0 0.760135 0 0 0.762498 0 0 0.764865 0 0 0.767231 0 0 0.769591 0 0 0.771966 0 0 0.774338 0 0 0.776761 0 0 0.779229 0 0 0.781799 0 0 0.784458 0 0 0.787301 0 0 0.79034 0 0 0.793672 0 0 0.797327 0 0 0.801339 0 0 0.805688 0 0 0.810314 0 0 0.815129 0 0 0.82005 0 0 0.825018 0 0 0.830007 0 0 0.835002 0 0 0.840001 0 0 0.845 0 0 0.85 0 0 0.855 0 0 0.86 0 0 0.865 0 0 0.87 0 0 0.875 0 0 0.88 0 0 0.885 0 0 0.89 0 0 0.895 0 0 0.9 0 0 0.905 0 0 0.91 0 0 0.915 0 0 0.92 0 0 0.925 0 0 0.93 0 0 0.935 0 0 0.94 0 0 0.945 0 0 0.95 0 0 0.955 0 0 0.96 0 0 0.965 0 0 0.97 0 0 0.975 0 0 0.98 0 0 0.985 0 0 0.99 0 0 0.995 0 0 1 0 0 0 0.02 0 0.005 0.02 0 0.01 0.02 0 0.015 0.02 0 0.02 0.02 0 0.025 0.02 0 0.03 0.02 0 0.035 0.02 0 0.04 0.02 0 0.045 0.02 0 0.05 0.02 0 0.055 0.02 0 0.06 0.02 0 0.065 0.02 0 0.07 0.02 0 0.075 0.02 0 0.08 0.02 0 0.085 0.02 0 0.09 0.02 0 0.095 0.02 0 0.1 0.02 0 0.105 0.02 0 0.11 0.02 0 0.115 0.02 0 0.12 0.02 0 0.125 0.02 0 0.13 0.02 0 0.135 0.02 0 0.14 0.02 0 0.145 0.02 0 0.15 0.02 0 0.155 0.02 0 0.16 0.02 0 0.165 0.02 0 0.17 0.02 0 0.175 0.02 0 0.18 0.02 0 0.185 0.02 0 0.19 0.02 0 0.195 0.02 0 0.2 0.02 0 0.205 0.02 0 0.21 0.02 0 0.215 0.02 0 0.22 0.02 0 0.225 0.02 0 0.23 0.02 0 0.235 0.02 0 0.24 0.02 0 0.245 0.02 0 0.25 0.02 0 0.255 0.02 0 0.26 0.02 0 0.265 0.02 0 0.27 0.02 0 0.275001 0.02 0 0.280002 0.02 0 0.285007 0.02 0 0.290018 0.02 0 0.295043 0.02 0 0.300094 0.02 0 0.305188 0.02 0 0.310345 0.02 0 0.315581 0.02 0 0.320913 0.02 0 0.326353 0.02 0 0.331913 0.02 0 0.337602 0.02 0 0.343428 0.02 0 0.3494 0.02 0 0.35553 0.02 0 0.361825 0.02 0 0.368298 0.02 0 0.37496 0.02 0 0.381824 0.02 0 0.388905 0.02 0 0.396219 0.02 0 0.403782 0.02 0 0.411615 0.02 0 0.419739 0.02 0 0.428178 0.02 0 0.43696 0.02 0 0.446115 0.02 0 0.455677 0.02 0 0.465681 0.02 0 0.476166 0.02 0 0.487164 0.02 0 0.498685 0.02 0 0.510661 0.02 0 0.522827 0.02 0 0.534907 0.02 0 0.546883 0.02 0 0.55876 0.02 0 0.570567 0.02 0 0.582332 0.02 0 0.594076 0.02 0 0.605811 0.02 0 0.617542 0.02 0 0.629272 0.02 0 0.641005 0.02 0 0.652752 0.02 0 0.655362 0.02 0 0.657898 0.02 0 0.660388 0.02 0 0.662848 0.02 0 0.665287 0.02 0 0.66771 0.02 0 0.670124 0.02 0 0.672536 0.02 0 0.674948 0.02 0 0.677346 0.02 0 0.679732 0.02 0 0.682112 0.02 0 0.684489 0.02 0 0.686864 0.02 0 0.689236 0.02 0 0.691606 0.02 0 0.693975 0.02 0 0.696342 0.02 0 0.698706 0.02 0 0.701069 0.02 0 0.703431 0.02 0 0.705794 0.02 0 0.708158 0.02 0 0.710521 0.02 0 0.712885 0.02 0 0.715248 0.02 0 0.71761 0.02 0 0.719973 0.02 0 0.722336 0.02 0 0.7247 0.02 0 0.727063 0.02 0 0.729425 0.02 0 0.731787 0.02 0 0.734149 0.02 0 0.73651 0.02 0 0.738872 0.02 0 0.741235 0.02 0 0.743595 0.02 0 0.745958 0.02 0 0.748323 0.02 0 0.750685 0.02 0 0.753048 0.02 0 0.755411 0.02 0 0.757774 0.02 0 0.760135 0.02 0 0.762498 0.02 0 0.764865 0.02 0 0.767231 0.02 0 0.769591 0.02 0 0.771966 0.02 0 0.774338 0.02 0 0.776761 0.02 0 0.779229 0.02 0 0.781799 0.02 0 0.784458 0.02 0 0.787301 0.02 0 0.79034 0.02 0 0.793672 0.02 0 0.797327 0.02 0 0.801339 0.02 0 0.805688 0.02 0 0.810314 0.02 0 0.815129 0.02 0 0.82005 0.02 0 0.825018 0.02 0 0.830007 0.02 0 0.835002 0.02 0 0.840001 0.02 0 0.845 0.02 0 0.85 0.02 0 0.855 0.02 0 0.86 0.02 0 0.865 0.02 0 0.87 0.02 0 0.875 0.02 0 0.88 0.02 0 0.885 0.02 0 0.89 0.02 0 0.895 0.02 0 0.9 0.02 0 0.905 0.02 0 0.91 0.02 0 0.915 0.02 0 0.92 0.02 0 0.925 0.02 0 0.93 0.02 0 0.935 0.02 0 0.94 0.02 0 0.945 0.02 0 0.95 0.02 0 0.955 0.02 0 0.96 0.02 0 0.965 0.02 0 0.97 0.02 0 0.975 0.02 0 0.98 0.02 0 0.985 0.02 0 0.99 0.02 0 0.995 0.02 0 1 0.02 0 0 0.04 0 0.005 0.04 0 0.01 0.04 0 0.015 0.04 0 0.02 0.04 0 0.025 0.04 0 0.03 0.04 0 0.035 0.04 0 0.04 0.04 0 0.045 0.04 0 0.05 0.04 0 0.055 0.04 0 0.06 0.04 0 0.065 0.04 0 0.07 0.04 0 0.075 0.04 0 0.08 0.04 0 0.085 0.04 0 0.09 0.04 0 0.095 0.04 0 0.1 0.04 0 0.105 0.04 0 0.11 0.04 0 0.115 0.04 0 0.12 0.04 0 0.125 0.04 0 0.13 0.04 0 0.135 0.04 0 0.14 0.04 0 0.145 0.04 0 0.15 0.04 0 0.155 0.04 0 0.16 0.04 0 0.165 0.04 0 0.17 0.04 0 0.175 0.04 0 0.18 0.04 0 0.185 0.04 0 0.19 0.04 0 0.195 0.04 0 0.2 0.04 0 0.205 0.04 0 0.21 0.04 0 0.215 0.04 0 0.22 0.04 0 0.225 0.04 0 0.23 0.04 0 0.235 0.04 0 0.24 0.04 0 0.245 0.04 0 0.25 0.04 0 0.255 0.04 0 0.26 0.04 0 0.265 0.04 0 0.27 0.04 0 0.275001 0.04 0 0.280002 0.04 0 0.285007 0.04 0 0.290018 0.04 0 0.295043 0.04 0 0.300094 0.04 0 0.305188 0.04 0 0.310345 0.04 0 0.315581 0.04 0 0.320913 0.04 0 0.326353 0.04 0 0.331913 0.04 0 0.337602 0.04 0 0.343428 0.04 0 0.3494 0.04 0 0.35553 0.04 0 0.361825 0.04 0 0.368298 0.04 0 0.37496 0.04 0 0.381824 0.04 0 0.388905 0.04 0 0.396219 0.04 0 0.403782 0.04 0 0.411615 0.04 0 0.419739 0.04 0 0.428178 0.04 0 0.43696 0.04 0 0.446115 0.04 0 0.455677 0.04 0 0.465681 0.04 0 0.476166 0.04 0 0.487164 0.04 0 0.498685 0.04 0 0.510661 0.04 0 0.522827 0.04 0 0.534907 0.04 0 0.546883 0.04 0 0.55876 0.04 0 0.570567 0.04 0 0.582332 0.04 0 0.594076 0.04 0 0.605811 0.04 0 0.617542 0.04 0 0.629272 0.04 0 0.641005 0.04 0 0.652752 0.04 0 0.655362 0.04 0 0.657898 0.04 0 0.660388 0.04 0 0.662848 0.04 0 0.665287 0.04 0 0.66771 0.04 0 0.670124 0.04 0 0.672536 0.04 0 0.674948 0.04 0 0.677346 0.04 0 0.679732 0.04 0 0.682112 0.04 0 0.684489 0.04 0 0.686864 0.04 0 0.689236 0.04 0 0.691606 0.04 0 0.693975 0.04 0 0.696342 0.04 0 0.698706 0.04 0 0.701069 0.04 0 0.703431 0.04 0 0.705794 0.04 0 0.708158 0.04 0 0.710521 0.04 0 0.712885 0.04 0 0.715248 0.04 0 0.71761 0.04 0 0.719973 0.04 0 0.722336 0.04 0 0.7247 0.04 0 0.727063 0.04 0 0.729425 0.04 0 0.731787 0.04 0 0.734149 0.04 0 0.73651 0.04 0 0.738872 0.04 0 0.741235 0.04 0 0.743595 0.04 0 0.745958 0.04 0 0.748323 0.04 0 0.750685 0.04 0 0.753048 0.04 0 0.755411 0.04 0 0.757774 0.04 0 0.760135 0.04 0 0.762498 0.04 0 0.764865 0.04 0 0.767231 0.04 0 0.769591 0.04 0 0.771966 0.04 0 0.774338 0.04 0 0.776761 0.04 0 0.779229 0.04 0 0.781799 0.04 0 0.784458 0.04 0 0.787301 0.04 0 0.79034 0.04 0 0.793672 0.04 0 0.797327 0.04 0 0.801339 0.04 0 0.805688 0.04 0 0.810314 0.04 0 0.815129 0.04 0 0.82005 0.04 0 0.825018 0.04 0 0.830007 0.04 0 0.835002 0.04 0 0.840001 0.04 0 0.845 0.04 0 0.85 0.04 0 0.855 0.04 0 0.86 0.04 0 0.865 0.04 0 0.87 0.04 0 0.875 0.04 0 0.88 0.04 0 0.885 0.04 0 0.89 0.04 0 0.895 0.04 0 0.9 0.04 0 0.905 0.04 0 0.91 0.04 0 0.915 0.04 0 0.92 0.04 0 0.925 0.04 0 0.93 0.04 0 0.935 0.04 0 0.94 0.04 0 0.945 0.04 0 0.95 0.04 0 0.955 0.04 0 0.96 0.04 0 0.965 0.04 0 0.97 0.04 0 0.975 0.04 0 0.98 0.04 0 0.985 0.04 0 0.99 0.04 0 0.995 0.04 0 1 0.04 0 0 0.06 0 0.005 0.06 0 0.01 0.06 0 0.015 0.06 0 0.02 0.06 0 0.025 0.06 0 0.03 0.06 0 0.035 0.06 0 0.04 0.06 0 0.045 0.06 0 0.05 0.06 0 0.055 0.06 0 0.06 0.06 0 0.065 0.06 0 0.07 0.06 0 0.075 0.06 0 0.08 0.06 0 0.085 0.06 0 0.09 0.06 0 0.095 0.06 0 0.1 0.06 0 0.105 0.06 0 0.11 0.06 0 0.115 0.06 0 0.12 0.06 0 0.125 0.06 0 0.13 0.06 0 0.135 0.06 0 0.14 0.06 0 0.145 0.06 0 0.15 0.06 0 0.155 0.06 0 0.16 0.06 0 0.165 0.06 0 0.17 0.06 0 0.175 0.06 0 0.18 0.06 0 0.185 0.06 0 0.19 0.06 0 0.195 0.06 0 0.2 0.06 0 0.205 0.06 0 0.21 0.06 0 0.215 0.06 0 0.22 0.06 0 0.225 0.06 0 0.23 0.06 0 0.235 0.06 0 0.24 0.06 0 0.245 0.06 0 0.25 0.06 0 0.255 0.06 0 0.26 0.06 0 0.265 0.06 0 0.27 0.06 0 0.275001 0.06 0 0.280002 0.06 0 0.285007 0.06 0 0.290018 0.06 0 0.295043 0.06 0 0.300094 0.06 0 0.305188 0.06 0 0.310345 0.06 0 0.315581 0.06 0 0.320913 0.06 0 0.326353 0.06 0 0.331913 0.06 0 0.337602 0.06 0 0.343428 0.06 0 0.3494 0.06 0 0.35553 0.06 0 0.361825 0.06 0 0.368298 0.06 0 0.37496 0.06 0 0.381824 0.06 0 0.388905 0.06 0 0.396219 0.06 0 0.403782 0.06 0 0.411615 0.06 0 0.419739 0.06 0 0.428178 0.06 0 0.43696 0.06 0 0.446115 0.06 0 0.455677 0.06 0 0.465681 0.06 0 0.476166 0.06 0 0.487164 0.06 0 0.498685 0.06 0 0.510661 0.06 0 0.522827 0.06 0 0.534907 0.06 0 0.546883 0.06 0 0.55876 0.06 0 0.570567 0.06 0 0.582332 0.06 0 0.594076 0.06 0 0.605811 0.06 0 0.617542 0.06 0 0.629272 0.06 0 0.641005 0.06 0 0.652752 0.06 0 0.655362 0.06 0 0.657898 0.06 0 0.660388 0.06 0 0.662848 0.06 0 0.665287 0.06 0 0.66771 0.06 0 0.670124 0.06 0 0.672536 0.06 0 0.674948 0.06 0 0.677346 0.06 0 0.679732 0.06 0 0.682112 0.06 0 0.684489 0.06 0 0.686864 0.06 0 0.689236 0.06 0 0.691606 0.06 0 0.693975 0.06 0 0.696342 0.06 0 0.698706 0.06 0 0.701069 0.06 0 0.703431 0
[...]
			<PointData Scalars="VitesseX">
				<DataArray Name="VitesseX" type="Float32" format="ascii">
 0 0 0 0 0 0 0 0 0 0 0 0 0 0 0 0 0 0 0 0 0 0 0 0 0 0 0 0 0 0 0 0 0 0 0 0 0 0 0 0 0 0 0 0 0 0 0 0 0 0 0 0 0 0 0 0 0 0 0 0 0 0 0 0 0 0 0 0 0 0 0 0 0 0 0 0 0 0 0 0 0 0 0 0 0 0 0 0 0 0 0 0 0 0 0 0 0 0 0 0 0 0 0 0 0 0 0 0 0 0 0 0 0 0 0 0 0 0 0 0 0 0 0 0 0 0 0 0 0 0 0 0 0 0 0 0 0 0 0 0 0 0 0 0 0 0 0 0 0 0 0 0 0 0 0 0 0 0 0 0 0 0 0 0 0 0 0 0 0 0 0 0 0 0 0 0 0 0 0 0 0 0 0 0 0 0 0 0 0 0 0 0 0 0 0 0 0 0 0 0 0 0 1.16471e-15 3.70405e-15 -1.13526e-16 3.92436e-15 3.18748e-15 2.90717e-15 2.94135e-15 5.69876e-15 2.87609e-15 2.76983e-15 5.99397e-15 -6.81963e-16 8.31501e-15 -9.18298e-15 -4.93856e-15 9.66914e-15 1.23969e-14 4.47065e-15 1.21972e-14 2.29696e-15 1.45447e-14 6.02779e-15 2.57336e-15 -1.38436e-15 1.61773e-14 -7.95169e-16 1.75464e-14 2.4213e-14 2.32188e-14 -1.08415e-14 2.33696e-14 -1.13835e-14 3.07885e-14 2.41592e-14 1.62249e-14 3.34334e-14 2.80173e-14 5.52047e-14 4.4337e-14 4.89644e-14 9.2451e-14 2.67306e-13 1.76848e-12 1.15566e-11 7.11745e-11 4.17573e-10 2.31696e-09 1.21485e-08 6.0041e-08 2.78937e-07 1.21439e-06 4.93712e-06 1.86667e-05 6.53218e-05 0.000210372 0.000619452 0.00165551 0.00398617 0.00859641 0.0165678 0.0286407 0.0448607 0.0646284 0.0870841 0.111475 0.137299 0.164276 0.192265 0.221209 0.251089 0.281913 0.313706 0.346504 0.380351 0.4153 0.451414 0.488757 0.527404 0.56743 0.608912 0.651917 0.696489 0.742613 0.790139 0.838581 0.886603 0.930525 0.960268 0.958286 0.949516 0.940927 0.93451 0.930552 0.928509 0.927543 0.92707 0.926841 0.92677 0.926727 0.926534 0.926501 0.926471 0.926442 0.926412 0.926381 0.926347 0.92631 0.926272 0.926234 0.926199 0.926171 0.926151 0.926141 0.926153 0.926222 0.926249 0.926243 0.926255 0.926272 0.926298 0.926363 0.92653 0.926734 0.926657 0.926601 0.926514 0.92642 0.926341 0.926293 0.926272 0.92621 0.926107 0.925919 0.925691 0.925487 0.92534 0.925301 0.925749 0.927241 0.926616 0.92612 0.925304 0.924492 0.923956 0.923856 0.925766 0.927253 0.925099 0.922196 0.914641 0.912185 0.910081 0.860246 0.839959 0.795597 0.726884 0.641084 0.530585 0.409472 0.285389 0.175359 0.0926723 0.0421533 0.0170988 0.00649834 0.002397 0.000873223 0.000316398 0.000114311 4.12086e-05 1.48228e-05 5.31832e-06 1.9025e-06 6.78188e-07 2.40774e-07 8.5085e-08 2.99105e-08 1.04536e-08 3.63015e-09 1.25184e-09 4.28515e-10 1.45554e-10 4.89669e-11 1.6431e-11 5.43729e-12 1.74803e-12 5.88095e-13 6.92911e-14 1.80641e-14 4.55707e-14 -1.54006e-14 -3.99099e-14 2.14273e-14 1.12686e-14 -9.27426e-14 -2.03957e-14 3.12127e-14 2.92388e-14 -3.46089e-14 0 0 2.30106e-15 2.64191e-16 -7.49576e-16 2.47842e-15 3.35115e-15 3.00199e-15 4.48614e-15 2.99161e-15 7.20923e-15 -5.17473e-15 -3.78184e-15 7.52377e-15 1.25417e-14 -1.35525e-14 -1.3837e-14 8.81981e-15 1.46313e-14 1.04854e-14 3.54733e-15 2.04474e-15 1.00727e-14 1.14237e-14 2.5795e-15 8.74237e-15 2.22345e-14 1.48763e-14 -2.49371e-14 1.6624e-14 2.47613e-14 -6.84435e-15 2.5334e-14 1.27311e-14 2.79714e-14 4.15496e-14 1.67339e-14 2.99385e-14 2.76402e-14 6.10265e-14 7.01238e-14 2.74064e-14 1.39813e-13 2.59312e-13 1.75462e-12 1.15441e-11 7.10774e-11 4.17486e-10 2.31696e-09 1.21486e-08 6.00409e-08 2.78937e-07 1.21439e-06 4.93712e-06 1.86667e-05 6.53218e-05 0.000210372 0.000619452 0.00165551 0.00398617 0.00859641 0.0165678 0.0286407 0.0448607 0.0646284 0.0870841 0.111475 0.137299 0.164276 0.192265 0.221209 0.251089 0.281913 0.313706 0.346504 0.380351 0.4153 0.451414 0.488757 0.527404 0.56743 0.608912 0.651917 0.696489 0.742613 0.790139 0.838581 0.886603 0.930525 0.960268 0.958286 0.949516 0.940927 0.93451 0.930552 0.928509 0.927543 0.92707 0.926841 0.92677 0.926727 0.926534 0.926501 0.926471 0.926442 0.926412 0.926381 0.926347 0.92631 0.926272 0.926234 0.926199 0.926171 0.926151 0.926141 0.926153 0.926222 0.926249 0.926243 0.926255 0.926272 0.926298 0.926363 0.92653 0.926734 0.926657 0.926601 0.926514 0.92642 0.926341 0.926293 0.926272 0.92621 0.926107 0.925919 0.925691 0.925487 0.92534 0.925301 0.925749 0.927241 0.926616 0.92612 0.925304 0.924492 0.923956 0.923856 0.925766 0.927253 0.925099 0.922196 0.914641 0.912185 0.910081 0.860246 0.839959 0.795597 0.726884 0.641084 0.530585 0.409472 0.285389 0.175359 0.0926723 0.0421533 0.0170988 0.00649834 0.002397 0.000873223 0.000316398 0.000114311 4.12086e-05 1.48228e-05 5.31832e-06 1.9025e-06 6.78188e-07 2.40774e-07 8.5085e-08 2.99105e-08 1.04536e-08 3.63017e-09 1.25186e-09 4.28486e-10 1.45449e-10 4.90549e-11 1.64359e-11 5.48093e-12 1.95694e-12 5.47852e-13 8.44803e-14 -2.9783e-14 7.81354e-14 -3.86926e-14 -9.9839e-14 -9.9421e-14 1.25969e-14 -1.59413e-13 2.72794e-14 -2.53243e-14 -6.31023e-14 -1.27865e-13 0 0 1.44277e-15 -2.58182e-16 8.7176e-16 -1.41922e-15 3.07247e-15 2.57636e-15 -2.44916e-15 -4.6506e-15 -1.33113e-15 3.01517e-15 -6.66199e-15 4.8159e-15 -2.81621e-15 2.49801e-15 -4.65708e-15 1.52394e-14 1.01613e-14 7.61538e-15 -1.0032e-14 1.27765e-14 -3.31416e-15 7.36741e-15 6.87737e-15 2.71812e-14 2.42229e-14 2.85049e-14 -3.42416e-14 8.21228e-15 -7.08462e-15 2.31391e-14 3.20084e-14 3.05774e-14 2.69449e-14 2.7252e-14 3.45285e-14 2.0312e-15 3.12404e-14 2.69033e-14 9.02973e-14 1.30709e-13 9.99284e-14 3.35035e-13 1.73608e-12 1.14665e-11 7.11026e-11 4.17348e-10 2.31699e-09 1.21485e-08 6.00409e-08 2.78937e-07 1.21439e-06 4.93712e-06 1.86667e-05 6.53218e-05 0.000210372 0.000619452 0.00165551 0.00398617 0.00859641 0.0165678 0.0286407 0.0448607 0.0646284 0.0870841 0.111475 0.137299 0.164276 0.192265 0.221209 0.251089 0.281913 0.313706 0.346504 0.380351 0.4153 0.451414 0.488757 0.527404 0.56743 0.608912 0.651917 0.696489 0.742613 0.790139 0.838581 0.886603 0.930525 0.960268 0.958286 0.949516 0.940927 0.93451 0.930552 0.928509 0.927543 0.92707 0.926841 0.92677 0.926727 0.926534 0.926501 0.926471 0.926442 0.926412 0.926381 0.926347 0.92631 0.926272 0.926234 0.926199 0.926171 0.926151 0.926141 0.926153 0.926222 0.926249 0.926243 0.926255 0.926272 0.926298 0.926363 0.92653 0.926734 0.926657 0.926601 0.926514 0.92642 0.926341 0.926293 0.926272 0.92621 0.926107 0.925919 0.925691 0.925487 0.92534 0.925301 0.925749 0.927241 0.926616 0.92612 0.925304 0.924492 0.923956 0.923856 0.925766 0.927253 0.925099 0.922196 0.914641 0.912185 0.910081 0.860246 0.839959 0.795597 0.726884 0.641084 0.530585 0.409472 0.285389 0.175359 0.0926723 0.0421533 0.0170988 0.00649834 0.002397 0.000873223 0.000316398 0.000114311 4.12086e-05 1.48228e-05 5.31832e-06 1.9025e-06 6.78188e-07 2.40774e-07 8.5085e-08 2.99105e-08 1.04535e-08 3.63017e-09 1.2519e-09 4.28491e-10 1.45512e-10 4.91445e-11 1.64595e-11 5.46981e-12 2.03624e-12 4.99317e-13 1.87959e-13 6.53437e-14 -1.79287e-13 1.136e-14 -4.40246e-16 -4.67004e-14 -7.57588e-14 -2.5816e-13 1.85632e-14 -1.61345e-13 -1.57009e-14 -1.08513e-13 0 0 -2.67725e-15 1.08182e-15 -3.73098e-15 -1.13263e-15 -1.09078e-15 4.01643e-15 -7.15515e-15 -1.93072e-15 -1.06723e-14 2.30248e-16 -1.15118e-15 -1.04209e-15 -2.69013e-15 7.48181e-15 1.47792e-15 4.62658e-15 1.42542e-14 1.01977e-14 4.69533e-15 2.5542e-16 5.57127e-15 -9.42466e-15 4.79771e-15 2.54807e-14 9.10177e-15 3.02423e-16 1.91992e-14 2.41231e-14 -2.00289e-14 2.90569e-14 3.19124e-14 2.02198e-14 3.40873e-14 1.28429e-14 7.88992e-15 1.34064e-14 2.01051e-14 6.55843e-14 1.17716e-13 1.55516e-13 7.12754e-14 4.08164e-13 1.69755e-12 1.139e-11 7.11192e-11 4.17293e-10 2.317e-09 1.21484e-08 6.00409e-08 2.78937e-07 1.21439e-06 4.93712e-06 1.86667e-05 6.53218e-05 0.000210372 0.000619452 0.00165551 0.00398617 0.00859641 0.0165678 0.0286407 0.0448607 0.0646284 0.0870841 0.111475 0.137299 0.164276 0.192265 0.221209 0.251089 0.281913 0.313706 0.346504 0.380351 0.4153 0.451414 0.488757 0.527404 0.56743 0.608912 0.651917 0.696489 0.742613 0.790139 0.838581 0.886603 0.930525 0.960268 0.958286 0.949516 0.940927 0.93451 0.930552 0.928509 0.927543 0.92707 0.926841 0.92677 0.926727 0.926534 0.926501 0.926471 0.926442 0.926412 0.926381 0.926347 0.92631 0.926272 0.926234 0.926199 0.926171 0.926151 0.926141 0.926153 0.926222 0.926249 0.926243 0.926255 0.926272 0.926298 0.926363 0.92653 0.926734 0.926657 0.926601 0.926514 0.92642 0.926341 0.926293 0.926272 0.92621 0.926107 0.925919 0.925691 0.925487 0.92534 0.925301 0.925749 0.927241 0.926616 0.92612 0.925304 0.924492 0.923956 0.923856 0.925766 0.927253 0.925099 0.922196 0.914641 0.912185 0.910081 0.860246 0.839959 0.795597 0.726884 0.641084 0.530585 0.409472 0.285389 0.175359 0.0926723 0.0421533 0.0170988 0.00649834 0.002397 0.000873223 0.000316398 0.000114311 4.12086e-05 1.48228e-05 5.31832e-06 1.9025e-06 6.78188e-07 2.40774e-07 8.5085e-08 2.99106e-08 1.04536e-08 3.63022e-09 1.25194e-09 4.28642e-10 1.45653e-10 4.91442e-11 1.63463e-11 5.62479e-12 1.98187e-12 4.32195e-13 1.69004e-14 3.3512e-14 -2.16949e-14 -2.68419e-14 -5.34494e-14 2.38622e-16 -8.91371e-14 -2.73158e-13 1.90791e-15 -1.36955e-13 1.38651e-13 1.0669e-15 0 0 0 0 0 0 0 0 0 0 0 0 0 0 0 0 0 0 0 0 0 0 0 0 0 0 0 0 0 0 0 0 0 0 0 0 0 0 0 0 0 0 0 0 0 0 0 0 0 0 0 0 0 0 0 0 0 0 0 0 0 0 0 0 0 0 0 0 0 0 0 0 0 0 0 0 0 0 0 0 0 0 0 0 0 0 0 0 0 0 0 0 0 0 0 0 0 0 0 0 0 0 0 0 0 0 0 0 0 0 0 0 0 0 0 0 0 0 0 0 0 0 0 0 0 0 0 0 0 0 0 0 0 0 0 0 0 0 0 0 0 0 0 0 0 0 0 0 0 0 0 0 0 0 0 0 0 0 0 0 0 0 0 0 0 0 0 0 0 0 0 0 0 0 0 0 0 0 0 0 0 0 0 0 0 0 0 0 0 0 0 0 0 0 0 0 0 0 0 0 0 0
				</DataArray>
				<DataArray Name="VitesseY" type="Float32" format="ascii">
 0 0 0 0 0 0 0 0 0 0 0 0 0 0 0 0 0 0 0 0 0 0 0 0 0 0 0 0 0 0 0 0 0 0 0 0 0 0 0 0 0 0 0 0 0 0 0 0 0 0 0 0 0 0 0 0 0 0 0 0 0 0 0 0 0 0 0 0 0 0 0 0 0 0 0 0 0 0 0 0 0 0 0 0 0 0 0 0 0 0 0 0 0 0 0 0 0 0 0 0 0 0 0 0 0 0 0 0 0 0 0 0 0 0 0 0 0 0 0 0 0 0 0 0 0 0 0 0 0 0 0 0 0 0 0 0 0 0 0 0 0 0 0 0 0 0 0 0 0 0 0 0 0 0 0 0 0 0 0 0 0 0 0 0 0 0 0 0 0 0 0 0 0 0 0 0 0 0 0 0 0 0 0 0 0 0 0 0 0 0 0 0 0 0 0 0 0 0 0 0 0 0 6.79861e-16 7.41563e-16 5.58356e-16 5.90317e-16 1.60586e-15 1.49966e-15 1.47248e-16 1.03512e-15 1.82496e-15 2.959e-16 -4.04387e-17 1.00059e-15 4.86761e-15 4.78251e-15 -1.49154e-15 -4.76256e-15 -2.46297e-15 -9.88495e-16 1.74146e-15 3.05125e-15 1.48933e-15 3.44434e-15 3.47917e-15 3.4208e-15 4.01271e-15 -3.59916e-15 -1.19627e-14 -5.25248e-15 2.11134e-15 -3.02443e-15 -5.33767e-15 -1.13833e-14 -1.17367e-14 1.69891e-15 1.19382e-15 -4.17833e-16 1.87223e-15 9.2465e-15 1.63595e-14 4.51079e-15 1.33802e-14 3.26456e-14 1.31585e-14 4.09887e-15 -7.697e-15 -4.2175e-14 -5.51624e-14 -2.26097e-14 -1.4823e-14 -2.60177e-14 -2.26365e-14 -3.73937e-14 -4.16322e-14 -3.18111e-14 -3.80124e-15 2.33052e-14 2.33688e-14 1.84585e-14 -6.47749e-15 -4.18556e-14 -3.21726e-14 1.54966e-15 -1.77345e-14 -1.01797e-13 -2.42279e-13 -4.19729e-13 -6.39744e-13 -9.50516e-13 -1.28116e-12 -1.49457e-12 -1.43518e-12 -7.94954e-13 6.86296e-13 3.23081e-12 7.08147e-12 1.22339e-11 1.84103e-11 2.51084e-11 3.13651e-11 3.58532e-11 3.69129e-11 3.25783e-11 2.07468e-11 -8.44613e-13 -3.43387e-11 -8.20811e-11 -1.48e-10 -2.36613e-10 -3.17649e-10 -3.68399e-10 -3.74501e-10 -3.29616e-10 -2.52707e-10 -3.04769e-10 -4.60008e-10 -4.81177e-10 -1.69603e-09 -1.84494e-09 -9.57276e-09 -1.05173e-08 3.40196e-08 1.8102e-08 1.16299e-08 8.36041e-09 6.37961e-09 5.00488e-09 3.94747e-09 3.08584e-09 2.38782e-09 1.84279e-09 1.4171e-09 1.07733e-09 8.10366e-10 6.03246e-10 4.45171e-10 3.26999e-10 2.33225e-10 1.4247e-10 4.83796e-11 -4.32207e-11 -1.31453e-10 -2.14685e-10 -2.82307e-10 -3.12379e-10 -3.18216e-10 -3.34598e-10 -3.58484e-10 -3.84262e-10 -4.17062e-10 -4.57464e-10 -4.8662e-10 -4.95328e-10 -4.98062e-10 -4.99861e-10 -5.02346e-10 -5.04139e-10 -5.06802e-10 -5.05291e-10 -4.82053e-10 -4.39179e-10 -3.91806e-10 -3.43443e-10 -2.90441e-10 -2.32312e-10 -1.71216e-10 -1.07675e-10 -4.87643e-11 1.18886e-12 4.1226e-11 6.88821e-11 8.86636e-11 1.01264e-10 1.01513e-10 9.69236e-11 8.72124e-11 7.30909e-11 5.65293e-11 3.9455e-11 2.42324e-11 1.25434e-11 5.2311e-12 1.67742e-12 3.93791e-13 6.07165e-14 -2.35235e-14 -3.90719e-14 -2.37519e-14 -2.22238e-14 -3.30014e-14 -4.38555e-14 -6.20452e-14 -4.86155e-14 -3.34756e-14 -4.0847e-14 -4.13775e-14 -4.65156e-14 -4.30118e-14 -2.57072e-14 -6.84293e-15 -2.71804e-14 -4.24305e-14 -7.75302e-15 1.66271e-14 2.72554e-14 5.49497e-14 6.22183e-14 4.17432e-14 1.61793e-14 -2.43602e-14 -7.53937e-15 3.04567e-14 1.54296e-14 -1.27373e-14 -4.00675e-14 -6.08715e-14 -4.51759e-14 -3.03813e-14 -1.3298e-14 -1.1919e-14 0 0 7.54345e-15 7.17428e-15 6.2308e-15 5.68964e-15 4.18887e-15 4.52516e-15 6.23588e-15 5.13516e-15 4.72782e-15 5.46011e-15 1.29868e-15 -1.15126e-16 -9.42915e-16 -9.48623e-16 1.79071e-15 2.98197e-15 1.00565e-15 1.69366e-15 -1.72891e-15 -5.42317e-15 -4.93198e-15 -6.60178e-15 -5.46192e-15 -2.76395e-15 5.85068e-16 1.37052e-14 1.53002e-14 -3.775e-15 -1.27244e-14 -6.24353e-15 -2.40783e-15 1.01531e-14 1.5841e-14 6.13698e-15 1.10186e-14 1.19691e-14 8.6186e-15 2.61976e-15 3.3514e-15 1.6186e-14 1.38656e-14 4.5395e-15 1.84223e-14 2.09426e-14 5.39693e-15 -6.02731e-15 -1.54064e-14 -3.02495e-14 -4.10903e-14 -3.72052e-14 -3.64951e-14 -2.79824e-14 -3.85467e-15 1.93579e-14 -8.9266e-15 -3.56849e-14 -1.89075e-14 -2.33797e-14 -2.42168e-14 1.09422e-15 -1.22112e-14 -5.85291e-14 -8.10315e-14 -9.41526e-14 -1.2307e-13 -1.92185e-13 -3.69442e-13 -6.22424e-13 -8.38021e-13 -9.58998e-13 -8.79763e-13 -5.03846e-13 4.15771e-13 2.00903e-12 4.33236e-12 7.50587e-12 1.13793e-11 1.55384e-11 1.94175e-11 2.21997e-11 2.28317e-11 2.0143e-11 1.27796e-11 -5.50976e-13 -2.12046e-11 -5.07588e-11 -9.15236e-11 -1.46393e-10 -1.95419e-10 -2.30173e-10 -2.31146e-10 -1.87428e-10 -2.07841e-10 -1.4763e-10 -1.47818e-10 -7.65159e-10 -2.41719e-10 -3.15377e-09 2.2787e-09 5.48774e-09 -2.22427e-08 -3.72611e-09 1.54269e-09 2.87023e-09 2.97476e-09 2.73252e-09 2.40846e-09 2.07937e-09 1.78135e-09 1.52255e-09 1.28401e-09 1.04362e-09 7.99287e-10 5.58544e-10 3.33882e-10 1.60885e-10 6.16585e-11 6.30154e-12 -3.14837e-11 -5.95901e-11 -8.97322e-11 -1.28043e-10 -1.66688e-10 -1.87232e-10 -1.93563e-10 -2.05423e-10 -2.2107e-10 -2.3738e-10 -2.57709e-10 -2.82592e-10 -3.00561e-10 -3.05899e-10 -3.07592e-10 -3.08712e-10 -3.10286e-10 -3.11515e-10 -3.13219e-10 -3.12348e-10 -2.98094e-10 -2.71702e-10 -2.42574e-10 -2.12715e-10 -1.79918e-10 -1.44078e-10 -1.06489e-10 -6.73349e-11 -3.09208e-11 -5.00648e-14 2.46315e-11 4.16659e-11 5.38587e-11 6.16072e-11 6.17764e-11 5.89829e-11 5.29947e-11 4.43272e-11 3.42824e-11 2.39071e-11 1.45904e-11 7.48182e-12 3.05835e-12 9.18518e-13 1.53124e-13 -5.15515e-14 -6.86795e-14 -7.52672e-14 -9.49575e-14 -8.56286e-14 -7.1565e-14 -5.15257e-14 -3.30105e-14 -5.22196e-14 -6.97084e-14 -7.18212e-14 -6.77965e-14 -3.60182e-14 -2.83719e-14 -4.4906e-14 -5.38077e-14 -2.30006e-14 -1.06262e-14 -7.86669e-14 -1.07213e-13 -9.4648e-14 -1.10178e-13 -5.40891e-14 8.56103e-15 2.76614e-14 6.01075e-14 3.94487e-14 3.90521e-15 -1.9883e-15 -1.92055e-14 -2.16705e-14 -1.70732e-14 -3.77504e-14 -5.46352e-14 -1.08953e-13 -1.56832e-13 0 0 4.35995e-15 4.35297e-15 5.5961e-15 5.49075e-15 5.97583e-15 5.50016e-15 1.91621e-15 -5.7773e-16 -4.17783e-15 -4.92458e-15 5.56222e-16 4.48432e-16 -3.1908e-15 -3.14706e-15 1.60979e-16 3.41328e-15 6.03578e-15 3.27776e-15 2.48596e-15 5.4256e-15 4.37134e-15 1.78508e-15 4.01907e-16 3.57603e-15 5.29719e-15 -3.82074e-15 -4.38508e-15 1.01508e-14 9.05789e-15 2.13745e-15 7.40981e-15 1.06102e-15 -4.34262e-16 5.51635e-15 1.41852e-15 -1.97048e-15 -4.70474e-15 -6.3432e-15 -1.06292e-14 7.32237e-15 2.55629e-14 4.39438e-14 4.4293e-14 1.77219e-14 2.01912e-14 3.3416e-15 -1.2252e-14 -1.3242e-14 -2.52777e-14 -4.04727e-14 -3.85326e-14 -4.0243e-14 -5.46655e-14 -6.57059e-14 -3.6808e-14 -1.19429e-14 -2.84449e-14 -5.92187e-15 4.18244e-16 -1.51239e-14 -1.3125e-14 -3.55552e-15 3.21084e-14 7.038e-14 1.48567e-13 2.32989e-13 3.72355e-13 6.0551e-13 8.05898e-13 9.42779e-13 9.00223e-13 5.05923e-13 -4.43189e-13 -2.0177e-12 -4.36053e-12 -7.55592e-12 -1.13773e-11 -1.55156e-11 -1.9395e-11 -2.21672e-11 -2.28268e-11 -2.01299e-11 -1.27697e-11 5.51994e-13 2.12466e-11 5.0763e-11 9.15187e-11 1.46445e-10 1.9549e-10 2.30169e-10 2.30925e-10 1.86905e-10 2.07042e-10 1.4665e-10 1.46776e-10 7.64177e-10 2.40837e-10 3.15297e-09 -2.27949e-09 -5.48868e-09 2.2241e-08 3.72436e-09 -1.54452e-09 -2.87215e-09 -2.97657e-09 -2.73385e-09 -2.40886e-09 -2.07829e-09 -1.77871e-09 -1.51865e-09 -1.27929e-09 -1.03863e-09 -7.9439e-10 -5.53914e-10 -3.2963e-10 -1.57057e-10 -5.82402e-11 -3.24592e-12 3.42027e-11 6.19896e-11 9.18661e-11 1.29892e-10 1.6826e-10 1.8858e-10 1.9469e-10 2.06373e-10 2.21853e-10 2.37974e-10 2.58125e-10 2.82858e-10 3.00648e-10 3.05811e-10 3.07343e-10 3.08303e-10 3.09695e-10 3.10748e-10 3.12294e-10 3.11263e-10 2.96862e-10 2.70313e-10 2.41015e-10 2.11028e-10 1.78084e-10 1.42096e-10 1.04365e-10 6.50225e-11 2.84556e-11 -2.52987e-12 -2.72959e-11 -4.43764e-11 -5.66176e-11 -6.44221e-11 -6.44643e-11 -6.15469e-11 -5.53882e-11 -4.65697e-11 -3.62411e-11 -2.54425e-11 -1.57989e-11 -8.29555e-12 -3.55653e-12 -1.24507e-12 -3.71202e-13 -9.90345e-14 -5.69159e-14 -4.90524e-14 -4.69278e-14 -6.51084e-14 -8.09665e-14 -1.1232e-13 -1.08611e-13 -7.85012e-14 -5.81175e-14 -4.30965e-14 -2.87379e-14 -4.29011e-14 -4.58021e-14 -4.15358e-14 -5.00209e-14 -7.15485e-14 -7.21828e-14 1.26766e-14 7.94202e-14 9.51445e-14 1.13628e-13 7.46634e-14 1.95355e-14 1.42378e-14 3.14888e-14 1.13586e-14 -4.79317e-15 3.84464e-14 9.3556e-14 8.74127e-14 3.60654e-14 2.97523e-14 1.04543e-14 4.26328e-14 1.07393e-13 0 0 6.69431e-15 5.8966e-15 3.88315e-15 2.90002e-15 1.45123e-15 1.16295e-15 3.92389e-15 6.04188e-15 7.94902e-15 5.64029e-15 9.07454e-16 8.29285e-16 3.11369e-15 4.2957e-15 3.62045e-15 -4.2097e-16 -4.4796e-15 -3.10938e-16 4.82772e-15 2.303e-15 2.48545e-15 3.15643e-15 -3.40633e-16 -4.22634e-15 -1.01953e-14 -1.18277e-14 -5.06911e-15 -2.27709e-15 -4.05883e-16 4.64723e-15 7.36437e-16 4.681e-15 5.2976e-15 -2.47376e-15 -8.64034e-15 -9.07532e-15 -6.17941e-15 2.3243e-15 2.30111e-14 1.81973e-14 -1.06618e-15 -8.24779e-15 4.6051e-18 -2.17984e-15 -1.96449e-14 -1.23681e-14 -9.58515e-15 -2.43667e-14 -2.99913e-14 -2.97643e-14 -3.56075e-14 -3.10633e-14 -2.44731e-14 -3.56516e-14 -5.20476e-14 -5.50753e-14 -2.70433e-14 2.60237e-15 3.51259e-15 -3.14258e-15 3.70284e-14 8.49322e-14 6.82414e-14 1.11399e-13 2.17496e-13 3.9031e-13 6.565e-13 9.72424e-13 1.30911e-12 1.51124e-12 1.43559e-12 8.17025e-13 -6.10942e-13 -3.17197e-12 -7.03401e-12 -1.2171e-11 -1.8423e-11 -2.51514e-11 -3.14012e-11 -3.5876e-11 -3.69025e-11 -3.25746e-11 -2.07213e-11 8.63842e-13 3.43128e-11 8.20874e-11 1.48069e-10 2.36719e-10 3.17711e-10 3.68377e-10 3.74365e-10 3.29309e-10 2.52216e-10 3.04151e-10 4.5938e-10 4.80573e-10 1.69549e-09 1.84445e-09 9.57226e-09 1.05167e-08 -3.40207e-08 -1.81031e-08 -1.1631e-08 -8.36153e-09 -6.38065e-09 -5.00565e-09 -3.94766e-09 -3.08518e-09 -2.38623e-09 -1.84034e-09 -1.41416e-09 -1.07426e-09 -8.07375e-10 -6.00461e-10 -4.42622e-10 -3.24691e-10 -2.3114e-10 -1.40621e-10 -4.67192e-11 4.46863e-11 1.32731e-10 2.15814e-10 2.83292e-10 3.13224e-10 3.18921e-10 3.35179e-10 3.5896e-10 3.84643e-10 4.17345e-10 4.57603e-10 4.866e-10 4.95175e-10 4.97833e-10 4.99517e-10 5.01917e-10 5.03628e-10 5.06145e-10 5.04549e-10 4.81261e-10 4.38348e-10 3.90936e-10 3.42444e-10 2.89353e-10 2.31147e-10 1.69917e-10 1.06302e-10 4.72591e-11 -2.81761e-12 -4.29243e-11 -7.06226e-11 -9.04036e-11 -1.02949e-10 -1.0313e-10 -9.85665e-11 -8.88563e-11 -7.45113e-11 -5.77297e-11 -4.04702e-11 -2.49012e-11 -1.29824e-11 -5.51619e-12 -1.81293e-12 -4.64273e-13 -1.42537e-13 -5.79226e-14 -5.02469e-14 -7.51706e-14 -7.49571e-14 -4.9163e-14 -3.32936e-14 -5.39388e-14 -7.03713e-14 -8.19037e-14 -9.02448e-14 -1.16514e-13 -1.39023e-13 -1.44107e-13 -1.11671e-13 -6.8134e-14 -2.40363e-14 2.46431e-14 1.27935e-14 -1.87537e-14 -6.28601e-14 -7.08427e-14 -6.84727e-15 1.79466e-14 -3.62337e-14 -1.04271e-13 -5.28761e-14 -6.55981e-15 -7.26761e-14 -1.29332e-13 -1.14763e-13 -7.05355e-14 -7.20273e-14 -5.06434e-14 -3.82373e-14 -3.68641e-14 0 0 0 0 0 0 0 0 0 0 0 0 0 0 0 0 0 0 0 0 0 0 0 0 0 0 0 0 0 0 0 0 0 0 0 0 0 0 0 0 0 0 0 0 0 0 0 0 0 0 0 0 0 0 0 0 0 0 0 0 0 0 0 0 0 0 0 0 0 0 0 0 0 0 0 0 0 0 0 0 0 0 0 0 0 0 0 0 0 0 0 0 0 0 0 0 0 0 0 0 0 0 0 0 0 0 0 0 0 0 0 0 0 0 0 0 0 0 0 0 0 0 0 0 0 0 0 0 0 0 0 0 0 0 0 0 0 0 0 0 0 0 0 0 0 0 0 0 0 0 0 0 0 0 0 0 0 0 0 0 0 0 0 0 0 0 0 0 0 0 0 0 0 0 0 0 0 0 0 0 0 0 0 0 0 0 0 0 0 0 0 0 0 0 0 0 0 0 0 0 0 0
				</DataArray>