<?xml version="1.0"?>
<VTKFile type="PolyData">
	<PolyData>
		<Piece NumberOfPoints="1206" NumberOfPolys="1000">
			<Points>
				<DataArray type="Float32" NumberOfComponents="3" format="ascii">
 0 0 0 0.005 0 0 0.01 0 0 0.015 0 0 0.02 0 0 0.025 0 0 0.03 0 0 0.035 0 0 0.04 0 0 0.045 0 0 0.05 0 0 0.055 0 0 0.06 0 0 0.065 0 0 0.07 0 0 0.075 0 0 0.08 0 0 0.085 0 0 0.09 0 0 0.095 0 0 0.1 0 0 0.105 0 0 0.11 0 0 0.115 0 0 0.12 0 0 0.125 0 0 0.13 0 0 0.135 0 0 0.14 0 0 0.145 0 0 0.15 0 0 0.155 0 0 0.16 0 0 0.165 0 0 0.17 0 0 0.175 0 0 0.18 0 0 0.185 0 0 0.19 0 0 0.195 0 0 0.2 0 0 0.205 0 0 0.21 0 0 0.215 0 0 0.22 0 0 0.225 0 0 0.23 0 0 0.235 0 0 0.24 0 0 0.245 0 0 0.25 0 0 0.255 0 0 0.26 0 0 0.265001 0 0 0.270004 0 0 0.275011 0 0 0.280027 0 0 0.285062 0 0 0.290129 0 0 0.295244 0 0 0.300424 0 0 0.305687 0 0 0.311044 0 0 0.316507 0 0 0.322084 0 0 0.327783 0 0 0.333613 0 0 0.339582 0 0 0.345697 0 0 0.351969 0 0 0.358405 0 0 0.365018 0 0 0.371817 0 0 0.378816 0 0 0.386028 0 0 0.393467 0 0 0.401151 0 0 0.409097 0 0 0.417326 0 0 0.42586 0 0 0.434723 0 0 0.443945 0 0 0.453555 0 0 0.463586 0 0 0.474072 0 0 0.485043 0 0 0.496509 0 0 0.508423 0 0 0.520573 0 0 0.532662 0 0 0.544656 0 0 0.556553 0 0 0.568375 0 0 0.580149 0 0 0.591897 0 0 0.603634 0 0 0.615365 0 0 0.627094 0 0 0.638824 0 0 0.650555 0 0 0.662301 0 0 0.66491 0 0 0.667446 0 0 0.669936 0 0 0.672396 0 0 0.674834 0 0 0.677257 0 0 0.67967 0 0 0.682082 0 0 0.684494 0 0 0.686892 0 0 0.689278 0 0 0.691658 0 0 0.694036 0 0 0.696411 0 0 0.698783 0 0 0.701153 0 0 0.703522 0 0 0.70589 0 0 0.708255 0 0 0.710618 0 0 0.712981 0 0 0.715344 0 0 0.717708 0 0 0.72007 0 0 0.722433 0 0 0.724796 0 0 0.727157 0 0 0.729519 0 0 0.731882 0 0 0.734245 0 0 0.736607 0 0 0.738968 0 0 0.741329 0 0 0.743691 0 0 0.746054 0 0 0.748417 0 0 0.750781 0 0 0.753142 0 0 0.755503 0 0 0.757864 0 0 0.760223 0 0 0.762584 0 0 0.764946 0 0 0.767309 0 0 0.769672 0 0 0.772036 0 0 0.774403 0 0 0.776767 0 0 0.77913 0 0 0.781491 0 0 0.783846 0 0 0.786207 0 0 0.788571 0 0 0.790948 0 0 0.793344 0 0 0.795788 0 0 0.798277 0 0 0.800879 0 0 0.803617 0 0 0.806509 0 0 0.809664 0 0 0.813111 0 0 0.816905 0 0 0.821051 0 0 0.825515 0 0 0.830225 0 0 0.83509 0 0 0.840034 0 0 0.845012 0 0 0.850005 0 0 0.855002 0 0 0.860001 0 0 0.865 0 0 0.87 0 0 0.875 0 0 0.88 0 0 0.885 0 0 0.89 0 0 0.895 0 0 0.9 0 0 0.905 0 0 0.91 0 0 0.915 0 0 0.92 0 0 0.925 0 0 0.93 0 0 0.935 0 0 0.94 0 0 0.945 0 0 0.95 0 0 0.955 0 0 0.96 0 0 0.965 0 0 0.97 0 0 0.975 0 0 0.98 0 0 0.985 0 0 0.99 0 0 0.995 0 0 1 0 0 0 0.02 0 0.005 0.02 0 0.01 0.02 0 0.015 0.02 0 0.02 0.02 0 0.025 0.02 0 0.03 0.02 0 0.035 0.02 0 0.04 0.02 0 0.045 0.02 0 0.05 0.02 0 0.055 0.02 0 0.06 0.02 0 0.065 0.02 0 0.07 0.02 0 0.075 0.02 0 0.08 0.02 0 0.085 0.02 0 0.09 0.02 0 0.095 0.02 0 0.1 0.02 0 0.105 0.02 0 0.11 0.02 0 0.115 0.02 0 0.12 0.02 0 0.125 0.02 0 0.13 0.02 0 0.135 0.02 0 0.14 0.02 0 0.145 0.02 0 0.15 0.02 0 0.155 0.02 0 0.16 0.02 0 0.165 0.02 0 0.17 0.02 0 0.175 0.02 0 0.18 0.02 0 0.185 0.02 0 0.19 0.02 0 0.195 0.02 0 0.2 0.02 0 0.205 0.02 0 0.21 0.02 0 0.215 0.02 0 0.22 0.02 0 0.225 0.02 0 0.23 0.02 0 0.235 0.02 0 0.24 0.02 0 0.245 0.02 0 0.25 0.02 0 0.255 0.02 0 0.26 0.02 0 0.265001 0.02 0 0.270004 0.02 0 0.275011 0.02 0 0.280027 0.02 0 0.285062 0.02 0 0.290129 0.02 0 0.295244 0.02 0 0.300424 0.02 0 0.305687 0.02 0 0.311044 0.02 0 0.316507 0.02 0 0.322084 0.02 0 0.327783 0.02 0 0.333613 0.02 0 0.339582 0.02 0 0.345697 0.02 0 0.351969 0.02 0 0.358405 0.02 0 0.365018 0.02 0 0.371817 0.02 0 0.378816 0.02 0 0.386028 0.02 0 0.393467 0.02 0 0.401151 0.02 0 0.409097 0.02 0 0.417326 0.02 0 0.42586 0.02 0 0.434723 0.02 0 0.443945 0.02 0 0.453555 0.02 0 0.463586 0.02 0 0.474072 0.02 0 0.485043 0.02 0 0.496509 0.02 0 0.508423 0.02 0 0.520573 0.02 0 0.532662 0.02 0 0.544656 0.02 0 0.556553 0.02 0 0.568375 0.02 0 0.580149 0.02 0 0.591897 0.02 0 0.603634 0.02 0 0.615365 0.02 0 0.627094 0.02 0 0.638824 0.02 0 0.650555 0.02 0 0.662301 0.02 0 0.66491 0.02 0 0.667446 0.02 0 0.669936 0.02 0 0.672396 0.02 0 0.674834 0.02 0 0.677257 0.02 0 0.67967 0.02 0 0.682082 0.02 0 0.684494 0.02 0 0.686892 0.02 0 0.689278 0.02 0 0.691658 0.02 0 0.694036 0.02 0 0.696411 0.02 0 0.698783 0.02 0 0.701153 0.02 0 0.703522 0.02 0 0.70589 0.02 0 0.708255 0.02 0 0.710618 0.02 0 0.712981 0.02 0 0.715344 0.02 0 0.717708 0.02 0 0.72007 0.02 0 0.722433 0.02 0 0.724796 0.02 0 0.727157 0.02 0 0.729519 0.02 0 0.731882 0.02 0 0.734245 0.02 0 0.736607 0.02 0 0.738968 0.02 0 0.741329 0.02 0 0.743691 0.02 0 0.746054 0.02 0 0.748417 0.02 0 0.750781 0.02 0 0.753142 0.02 0 0.755503 0.02 0 0.757864 0.02 0 0.760223 0.02 0 0.762584 0.02 0 0.764946 0.02 0 0.767309 0.02 0 0.769672 0.02 0 0.772036 0.02 0 0.774403 0.02 0 0.776767 0.02 0 0.77913 0.02 0 0.781491 0.02 0 0.783846 0.02 0 0.786207 0.02 0 0.788571 0.02 0 0.790948 0.02 0 0.793344 0.02 0 0.795788 0.02 0 0.798277 0.02 0 0.800879 0.02 0 0.803617 0.02 0 0.806509 0.02 0 0.809664 0.02 0 0.813111 0.02 0 0.816905 0.02 0 0.821051 0.02 0 0.825515 0.02 0 0.830225 0.02 0 0.83509 0.02 0 0.840034 0.02 0 0.845012 0.02 0 0.850005 0.02 0 0.855002 0.02 0 0.860001 0.02 0 0.865 0.02 0 0.87 0.02 0 0.875 0.02 0 0.88 0.02 0 0.885 0.02 0 0.89 0.02 0 0.895 0.02 0 0.9 0.02 0 0.905 0.02 0 0.91 0.02 0 0.915 0.02 0 0.92 0.02 0 0.925 0.02 0 0.93 0.02 0 0.935 0.02 0 0.94 0.02 0 0.945 0.02 0 0.95 0.02 0 0.955 0.02 0 0.96 0.02 0 0.965 0.02 0 0.97 0.02 0 0.975 0.02 0 0.98 0.02 0 0.985 0.02 0 0.99 0.02 0 0.995 0.02 0 1 0.02 0 0 0.04 0 0.005 0.04 0 0.01 0.04 0 0.015 0.04 0 0.02 0.04 0 0.025 0.04 0 0.03 0.04 0 0.035 0.04 0 0.04 0.04 0 0.045 0.04 0 0.05 0.04 0 0.055 0.04 0 0.06 0.04 0 0.065 0.04 0 0.07 0.04 0 0.075 0.04 0 0.08 0.04 0 0.085 0.04 0 0.09 0.04 0 0.095 0.04 0 0.1 0.04 0 0.105 0.04 0 0.11 0.04 0 0.115 0.04 0 0.12 0.04 0 0.125 0.04 0 0.13 0.04 0 0.135 0.04 0 0.14 0.04 0 0.145 0.04 0 0.15 0.04 0 0.155 0.04 0 0.16 0.04 0 0.165 0.04 0 0.17 0.04 0 0.175 0.04 0 0.18 0.04 0 0.185 0.04 0 0.19 0.04 0 0.195 0.04 0 0.2 0.04 0 0.205 0.04 0 0.21 0.04 0 0.215 0.04 0 0.22 0.04 0 0.225 0.04 0 0.23 0.04 0 0.235 0.04 0 0.24 0.04 0 0.245 0.04 0 0.25 0.04 0 0.255 0.04 0 0.26 0.04 0 0.265001 0.04 0 0.270004 0.04 0 0.275011 0.04 0 0.280027 0.04 0 0.285062 0.04 0 0.290129 0.04 0 0.295244 0.04 0 0.300424 0.04 0 0.305687 0.04 0 0.311044 0.04 0 0.316507 0.04 0 0.322084 0.04 0 0.327783 0.04 0 0.333613 0.04 0 0.339582 0.04 0 0.345697 0.04 0 0.351969 0.04 0 0.358405 0.04 0 0.365018 0.04 0 0.371817 0.04 0 0.378816 0.04 0 0.386028 0.04 0 0.393467 0.04 0 0.401151 0.04 0 0.409097 0.04 0 0.417326 0.04 0 0.42586 0.04 0 0.434723 0.04 0 0.443945 0.04 0 0.453555 0.04 0 0.463586 0.04 0 0.474072 0.04 0 0.485043 0.04 0 0.496509 0.04 0 0.508423 0.04 0 0.520573 0.04 0 0.532662 0.04 0 0.544656 0.04 0 0.556553 0.04 0 0.568375 0.04 0 0.580149 0.04 0 0.591897 0.04 0 0.603634 0.04 0 0.615365 0.04 0 0.627094 0.04 0 0.638824 0.04 0 0.650555 0.04 0 0.662301 0.04 0 0.66491 0.04 0 0.667446 0.04 0 0.669936 0.04 0 0.672396 0.04 0 0.674834 0.04 0 0.677257 0.04 0 0.67967 0.04 0 0.682082 0.04 0 0.684494 0.04 0 0.686892 0.04 0 0.689278 0.04 0 0.691658 0.04 0 0.694036 0.04 0 0.696411 0.04 0 0.698783 0.04 0 0.701153 0.04 0 0.703522 0.04 0 0.70589 0.04 0 0.708255 0.04 0 0.710618 0.04 0 0.712981 0.04 0 0.715344 0.04 0 0.717708 0.04 0 0.72007 0.04 0 0.722433 0.04 0 0.724796 0.04 0 0.727157 0.04 0 0.729519 0.04 0 0.731882 0.04 0 0.734245 0.04 0 0.736607 0.04 0 0.738968 0.04 0 0.741329 0.04 0 0.743691 0.04 0 0.746054 0.04 0 0.748417 0.04 0 0.750781 0.04 0 0.753142 0.04 0 0.755503 0.04 0 0.757864 0.04 0 0.760223 0.04 0 0.762584 0.04 0 0.764946 0.04 0 0.767309 0.04 0 0.769672 0.04 0 0.772036 0.04 0 0.774403 0.04 0 0.776767 0.04 0 0.77913 0.04 0 0.781491 0.04 0 0.783846 0.04 0 0.786207 0.04 0 0.788571 0.04 0 0.790948 0.04 0 0.793344 0.04 0 0.795788 0.04 0 0.798277 0.04 0 0.800879 0.04 0 0.803617 0.04 0 0.806509 0.04 0 0.809664 0.04 0 0.813111 0.04 0 0.816905 0.04 0 0.821051 0.04 0 0.825515 0.04 0 0.830225 0.04 0 0.83509 0.04 0 0.840034 0.04 0 0.845012 0.04 0 0.850005 0.04 0 0.855002 0.04 0 0.860001 0.04 0 0.865 0.04 0 0.87 0.04 0 0.875 0.04 0 0.88 0.04 0 0.885 0.04 0 0.89 0.04 0 0.895 0.04 0 0.9 0.04 0 0.905 0.04 0 0.91 0.04 0 0.915 0.04 0 0.92 0.04 0 0.925 0.04 0 0.93 0.04 0 0.935 0.04 0 0.94 0.04 0 0.945 0.04 0 0.95 0.04 0 0.955 0.04 0 0.96 0.04 0 0.965 0.04 0 0.97 0.04 0 0.975 0.04 0 0.98 0.04 0 0.985 0.04 0 0.99 0.04 0 0.995 0.04 0 1 0.04 0 0 0.06 0 0.005 0.06 0 0.01 0.06 0 0.015 0.06 0 0.02 0.06 0 0.025 0.06 0 0.03 0.06 0 0.035 0.06 0 0.04 0.06 0 0.045 0.06 0 0.05 0.06 0 0.055 0.06 0 0.06 0.06 0 0.065 0.06 0 0.07 0.06 0 0.075 0.06 0 0.08 0.06 0 0.085 0.06 0 0.09 0.06 0 0.095 0.06 0 0.1 0.06 0 0.105 0.06 0 0.11 0.06 0 0.115 0.06 0 0.12 0.06 0 0.125 0.06 0 0.13 0.06 0 0.135 0.06 0 0.14 0.06 0 0.145 0.06 0 0.15 0.06 0 0.155 0.06 0 0.16 0.06 0 0.165 0.06 0 0.17 0.06 0 0.175 0.06 0 0.18 0.06 0 0.185 0.06 0 0.19 0.06 0 0.195 0.06 0 0.2 0.06 0 0.205 0.06 0 0.21 0.06 0 0.215 0.06 0 0.22 0.06 0 0.225 0.06 0 0.23 0.06 0 0.235 0.06 0 0.24 0.06 0 0.245 0.06 0 0.25 0.06 0 0.255 0.06 0 0.26 0.06 0 0.265001 0.06 0 0.270004 0.06 0 0.275011 0.06 0 0.280027 0.06 0 0.285062 0.06 0 0.290129 0.06 0 0.295244 0.06 0 0.300424 0.06 0 0.305687 0.06 0 0.311044 0.06 0 0.316507 0.06 0 0.322084 0.06 0 0.327783 0.06 0 0.333613 0.06 0 0.339582 0.06 0 0.345697 0.06 0 0.351969 0.06 0 0.358405 0.06 0 0.365018 0.06 0 0.371817 0.06 0 0.378816 0.06 0 0.386028 0.06 0 0.393467 0.06 0 0.401151 0.06 0 0.409097 0.06 0 0.417326 0.06 0 0.42586 0.06 0 0.434723 0.06 0 0.443945 0.06 0 0.453555 0.06 0 0.463586 0.06 0 0.474072 0.06 0 0.485043 0.06 0 0.496509 0.06 0 0.508423 0.06 0 0.520573 0.06 0 0.532662 0.06 0 0.544656 0.06 0 0.556553 0.06 0 0.568375 0.06 0 0.580149 0.06 0 0.591897 0.06 0 0.603634 0.06 0 0.615365 0.06 0 0.627094 0.06 0 0.638824 0.06 0 0.650555 0.06 0 0.662301 0.06 0 0.66491 0.06 0 0.667446 0.06 0 0.669936 0.06 0 0.672396 0.06 0 0.674834 0.06 0 0.677257 0.06 0 0.67967 0.06 0 0.682082 0.06 0 0.684494 0.06 0 0.686892 0.06 0 0.689278 0.06 0 0.691658 0.06 0 0.694036 0.06 0 0.696411 0.06 0 0.698783 0.06 
[...]
			<PointData Scalars="VitesseX">
				<DataArray Name="VitesseX" type="Float32" format="ascii">
 0 0 0 0 0 0 0 0 0 0 0 0 0 0 0 0 0 0 0 0 0 0 0 0 0 0 0 0 0 0 0 0 0 0 0 0 0 0 0 0 0 0 0 0 0 0 0 0 0 0 0 0 0 0 0 0 0 0 0 0 0 0 0 0 0 0 0 0 0 0 0 0 0 0 0 0 0 0 0 0 0 0 0 0 0 0 0 0 0 0 0 0 0 0 0 0 0 0 0 0 0 0 0 0 0 0 0 0 0 0 0 0 0 0 0 0 0 0 0 0 0 0 0 0 0 0 0 0 0 0 0 0 0 0 0 0 0 0 0 0 0 0 0 0 0 0 0 0 0 0 0 0 0 0 0 0 0 0 0 0 0 0 0 0 0 0 0 0 0 0 0 0 0 0 0 0 0 0 0 0 0 0 0 0 0 0 0 0 0 0 0 0 0 0 0 0 0 0 0 0 0 0 -3.59508e-16 2.45992e-16 1.17618e-15 2.12148e-15 3.20207e-15 1.95609e-15 5.53396e-15 4.31655e-15 1.94778e-15 4.84124e-15 1.75471e-15 1.13143e-16 8.06283e-16 -6.36136e-15 1.16618e-14 6.90888e-15 -8.41675e-15 1.09593e-14 1.00481e-14 1.86551e-14 -1.17018e-14 1.66459e-14 1.1142e-14 3.53765e-15 1.8266e-14 1.94731e-14 -6.01782e-16 2.4279e-14 1.1323e-14 2.48556e-14 1.65831e-14 2.81425e-14 3.18337e-14 2.84697e-14 5.43253e-14 4.20633e-14 7.20331e-14 4.20472e-14 1.98784e-13 1.19775e-12 7.58535e-12 4.56223e-11 2.61625e-10 1.42446e-09 7.34599e-09 3.58118e-08 1.64626e-07 7.11627e-07 2.88344e-06 1.09115e-05 3.83996e-05 0.000125046 0.000374614 0.00102562 0.00254811 0.00570787 0.0114814 0.020748 0.0338989 0.0506759 0.0703798 0.0922385 0.115653 0.140248 0.16582 0.19227 0.219555 0.247663 0.276602 0.306392 0.337062 0.368649 0.401197 0.434755 0.469377 0.505124 0.542058 0.580247 0.619754 0.660637 0.70293 0.746616 0.79156 0.837352 0.882893 0.925233 0.956366 0.959513 0.950855 0.9426 0.935922 0.931469 0.928998 0.927783 0.927206 0.92693 0.926812 0.926747 0.926629 0.926454 0.926417 0.926382 0.926351 0.926325 0.926306 0.926293 0.926287 0.926286 0.926303 0.926353 0.926391 0.926384 0.926391 0.926397 0.926428 0.926518 0.926656 0.926713 0.926666 0.926617 0.926575 0.926523 0.926469 0.92641 0.926345 0.926273 0.926195 0.926117 0.926047 0.925996 0.925975 0.925999 0.926366 0.926774 0.926523 0.926273 0.926047 0.925818 0.925673 0.925621 0.925747 0.925862 0.925792 0.925701 0.925757 0.92669 0.926468 0.925335 0.923936 0.922894 0.923282 0.922682 0.926715 0.921802 0.905198 0.894113 0.870225 0.802922 0.772352 0.70016 0.599322 0.485647 0.360492 0.240507 0.139761 0.0695899 0.0300948 0.0118337 0.00443248 0.00162607 0.000591506 0.000214366 7.75236e-05 2.79882e-05 1.00869e-05 3.62805e-06 1.30184e-06 4.65829e-07 1.66138e-07 5.90288e-08 2.08825e-08 7.35167e-09 2.5743e-09 8.96116e-10 3.09939e-10 1.06415e-10 3.63932e-11 1.23957e-11 4.20933e-12 1.28404e-12 4.80155e-13 7.60634e-15 5.81254e-14 -3.29584e-14 -8.34184e-14 1.84418e-14 -9.79215e-14 4.62399e-14 -7.83408e-14 0 0 -1.48185e-15 1.31365e-15 9.16242e-16 2.81237e-15 -2.79349e-15 7.46083e-15 5.81839e-15 2.09026e-15 -4.83185e-15 4.62115e-15 6.09896e-15 -5.43868e-15 -4.24874e-16 -6.37932e-15 1.8544e-14 -1.4796e-15 -9.06229e-15 1.25575e-14 5.39366e-15 2.34047e-14 3.27066e-15 6.33413e-15 9.07814e-15 8.04438e-15 2.52717e-15 1.72541e-14 2.40676e-14 1.02366e-15 2.35933e-14 2.52741e-14 3.00967e-14 2.21886e-14 1.92626e-14 2.33878e-14 5.58271e-14 5.44902e-14 7.8087e-14 7.57567e-14 2.16168e-13 1.24972e-12 7.47712e-12 4.56098e-11 2.61589e-10 1.42432e-09 7.34605e-09 3.58119e-08 1.64626e-07 7.11627e-07 2.88344e-06 1.09115e-05 3.83996e-05 0.000125046 0.000374614 0.00102562 0.00254811 0.00570787 0.0114814 0.020748 0.0338989 0.0506759 0.0703798 0.0922385 0.115653 0.140248 0.16582 0.19227 0.219555 0.247663 0.276602 0.306392 0.337062 0.368649 0.401197 0.434755 0.469377 0.505124 0.542058 0.580247 0.619754 0.660637 0.70293 0.746616 0.79156 0.837352 0.882893 0.925233 0.956366 0.959513 0.950855 0.9426 0.935922 0.931469 0.928998 0.927783 0.927206 0.92693 0.926812 0.926747 0.926629 0.926454 0.926417 0.926382 0.926351 0.926325 0.926306 0.926293 0.926287 0.926286 0.926303 0.926353 0.926391 0.926384 0.926391 0.926397 0.926428 0.926518 0.926656 0.926713 0.926666 0.926617 0.926575 0.926523 0.926469 0.92641 0.926345 0.926273 0.926195 0.926117 0.926047 0.925996 0.925975 0.925999 0.926366 0.926774 0.926523 0.926273 0.926047 0.925818 0.925673 0.925621 0.925747 0.925862 0.925792 0.925701 0.925757 0.92669 0.926468 0.925335 0.923936 0.922894 0.923282 0.922682 0.926715 0.921802 0.905198 0.894113 0.870225 0.802922 0.772352 0.70016 0.599322 0.485647 0.360492 0.240507 0.139761 0.0695899 0.0300948 0.0118337 0.00443248 0.00162607 0.000591506 0.000214366 7.75236e-05 2.79882e-05 1.00869e-05 3.62805e-06 1.30184e-06 4.65829e-07 1.66138e-07 5.90288e-08 2.08824e-08 7.35172e-09 2.57426e-09 8.96171e-10 3.09982e-10 1.06532e-10 3.63343e-11 1.23608e-11 4.28579e-12 1.38728e-12 4.3461e-13 7.39936e-14 -9.57294e-14 -7.99645e-14 -1.56379e-13 -1.06379e-13 -5.28971e-14 -2.63054e-15 1.29555e-14 0 0 -2.36467e-16 -7.53728e-17 -1.63544e-15 1.62049e-15 -5.99852e-15 2.25959e-15 5.49646e-16 -2.41097e-15 1.67465e-15 -6.07936e-16 3.67558e-15 -6.64606e-15 4.11489e-16 9.84589e-15 1.19837e-14 -1.27667e-14 1.01499e-14 -6.75733e-15 1.20098e-14 1.36483e-15 3.23598e-14 4.46535e-15 2.25757e-14 8.84368e-15 -1.75559e-15 2.81226e-14 -7.90949e-15 9.10341e-15 2.41115e-14 1.9829e-14 2.68214e-14 2.34605e-14 2.18067e-14 2.86421e-14 3.32836e-14 7.22582e-14 5.96126e-14 1.38602e-13 2.51895e-13 1.23176e-12 7.50301e-12 4.55573e-11 2.61513e-10 1.42429e-09 7.34599e-09 3.58119e-08 1.64626e-07 7.11627e-07 2.88344e-06 1.09115e-05 3.83996e-05 0.000125046 0.000374614 0.00102562 0.00254811 0.00570787 0.0114814 0.020748 0.0338989 0.0506759 0.0703798 0.0922385 0.115653 0.140248 0.16582 0.19227 0.219555 0.247663 0.276602 0.306392 0.337062 0.368649 0.401197 0.434755 0.469377 0.505124 0.542058 0.580247 0.619754 0.660637 0.70293 0.746616 0.79156 0.837352 0.882893 0.925233 0.956366 0.959513 0.950855 0.9426 0.935922 0.931469 0.928998 0.927783 0.927206 0.92693 0.926812 0.926747 0.926629 0.926454 0.926417 0.926382 0.926351 0.926325 0.926306 0.926293 0.926287 0.926286 0.926303 0.926353 0.926391 0.926384 0.926391 0.926397 0.926428 0.926518 0.926656 0.926713 0.926666 0.926617 0.926575 0.926523 0.926469 0.92641 0.926345 0.926273 0.926195 0.926117 0.926047 0.925996 0.925975 0.925999 0.926366 0.926774 0.926523 0.926273 0.926047 0.925818 0.925673 0.925621 0.925747 0.925862 0.925792 0.925701 0.925757 0.92669 0.926468 0.925335 0.923936 0.922894 0.923282 0.922682 0.926715 0.921802 0.905198 0.894113 0.870225 0.802922 0.772352 0.70016 0.599322 0.485647 0.360492 0.240507 0.139761 0.0695899 0.0300948 0.0118337 0.00443248 0.00162607 0.000591506 0.000214366 7.75236e-05 2.79882e-05 1.00869e-05 3.62805e-06 1.30184e-06 4.65829e-07 1.66138e-07 5.90288e-08 2.08825e-08 7.3517e-09 2.57438e-09 8.96172e-10 3.09918e-10 1.06679e-10 3.63768e-11 1.23757e-11 4.22049e-12 1.54728e-12 1.78735e-13 -1.42156e-14 1.25575e-14 -8.20212e-14 -1.04385e-13 -1.56017e-14 6.35616e-14 -2.03833e-13 5.92971e-14 0 0 1.19558e-15 -2.13248e-15 -9.9711e-16 -2.24704e-16 -4.69897e-15 -3.38606e-15 -3.23294e-15 -1.05423e-14 5.90565e-15 -2.88333e-15 -3.42245e-15 7.45351e-16 1.06337e-14 4.74455e-15 3.23866e-15 -1.4354e-15 9.19041e-15 6.70737e-15 1.62689e-15 1.99599e-14 3.78684e-15 1.8589e-14 3.13837e-15 8.63251e-15 8.65705e-15 2.97355e-14 -1.56746e-14 5.56851e-14 5.89663e-15 6.42869e-15 1.45322e-14 3.41887e-14 3.83697e-14 2.12233e-14 5.12377e-14 7.74576e-14 7.20886e-14 1.25285e-13 2.75536e-13 1.22942e-12 7.49986e-12 4.54712e-11 2.61438e-10 1.42429e-09 7.34596e-09 3.58119e-08 1.64626e-07 7.11627e-07 2.88344e-06 1.09115e-05 3.83996e-05 0.000125046 0.000374614 0.00102562 0.00254811 0.00570787 0.0114814 0.020748 0.0338989 0.0506759 0.0703798 0.0922385 0.115653 0.140248 0.16582 0.19227 0.219555 0.247663 0.276602 0.306392 0.337062 0.368649 0.401197 0.434755 0.469377 0.505124 0.542058 0.580247 0.619754 0.660637 0.70293 0.746616 0.79156 0.837352 0.882893 0.925233 0.956366 0.959513 0.950855 0.9426 0.935922 0.931469 0.928998 0.927783 0.927206 0.92693 0.926812 0.926747 0.926629 0.926454 0.926417 0.926382 0.926351 0.926325 0.926306 0.926293 0.926287 0.926286 0.926303 0.926353 0.926391 0.926384 0.926391 0.926397 0.926428 0.926518 0.926656 0.926713 0.926666 0.926617 0.926575 0.926523 0.926469 0.92641 0.926345 0.926273 0.926195 0.926117 0.926047 0.925996 0.925975 0.925999 0.926366 0.926774 0.926523 0.926273 0.926047 0.925818 0.925673 0.925621 0.925747 0.925862 0.925792 0.925701 0.925757 0.92669 0.926468 0.925335 0.923936 0.922894 0.923282 0.922682 0.926715 0.921802 0.905198 0.894113 0.870225 0.802922 0.772352 0.70016 0.599322 0.485647 0.360492 0.240507 0.139761 0.0695899 0.0300948 0.0118337 0.00443248 0.00162607 0.000591506 0.000214366 7.75236e-05 2.79882e-05 1.00869e-05 3.62805e-06 1.30184e-06 4.65829e-07 1.66138e-07 5.90288e-08 2.08826e-08 7.35166e-09 2.57456e-09 8.96219e-10 3.09979e-10 1.06535e-10 3.64721e-11 1.24413e-11 4.18194e-12 1.34251e-12 9.15163e-14 8.43756e-15 1.08793e-13 -1.71328e-13 -7.79914e-14 3.33337e-14 3.69557e-14 -8.7974e-14 -9.57376e-14 0 0 0 0 0 0 0 0 0 0 0 0 0 0 0 0 0 0 0 0 0 0 0 0 0 0 0 0 0 0 0 0 0 0 0 0 0 0 0 0 0 0 0 0 0 0 0 0 0 0 0 0 0 0 0 0 0 0 0 0 0 0 0 0 0 0 0 0 0 0 0 0 0 0 0 0 0 0 0 0 0 0 0 0 0 0 0 0 0 0 0 0 0 0 0 0 0 0 0 0 0 0 0 0 0 0 0 0 0 0 0 0 0 0 0 0 0 0 0 0 0 0 0 0 0 0 0 0 0 0 0 0 0 0 0 0 0 0 0 0 0 0 0 0 0 0 0 0 0 0 0 0 0 0 0 0 0 0 0 0 0 0 0 0 0 0 0 0 0 0 0 0 0 0 0 0 0 0 0 0 0 0 0 0 0 0 0 0 0 0 0 0 0 0 0 0 0 0 0 0 0 0
				</DataArray>
				<DataArray Name="VitesseY" type="Float32" format="ascii">
 0 0 0 0 0 0 0 0 0 0 0 0 0 0 0 0 0 0 0 0 0 0 0 0 0 0 0 0 0 0 0 0 0 0 0 0 0 0 0 0 0 0 0 0 0 0 0 0 0 0 0 0 0 0 0 0 0 0 0 0 0 0 0 0 0 0 0 0 0 0 0 0 0 0 0 0 0 0 0 0 0 0 0 0 0 0 0 0 0 0 0 0 0 0 0 0 0 0 0 0 0 0 0 0 0 0 0 0 0 0 0 0 0 0 0 0 0 0 0 0 0 0 0 0 0 0 0 0 0 0 0 0 0 0 0 0 0 0 0 0 0 0 0 0 0 0 0 0 0 0 0 0 0 0 0 0 0 0 0 0 0 0 0 0 0 0 0 0 0 0 0 0 0 0 0 0 0 0 0 0 0 0 0 0 0 0 0 0 0 0 0 0 0 0 0 0 0 0 0 0 0 0 1.70429e-15 1.57896e-15 1.42275e-15 1.56645e-15 1.70821e-15 1.78656e-15 1.45375e-15 9.04613e-16 -1.28243e-15 -1.70136e-15 2.50104e-16 1.23595e-15 2.86695e-15 3.52917e-16 -1.70074e-15 1.41251e-15 -1.07924e-16 -9.96761e-16 -1.84777e-16 6.9444e-15 6.11754e-15 1.33469e-15 4.91127e-15 -1.63935e-15 -6.56115e-15 -7.10024e-15 -3.2074e-15 4.3753e-15 2.02633e-15 1.21962e-15 2.26952e-15 7.54607e-16 4.66382e-15 1.36307e-15 4.06942e-15 4.16448e-15 4.48534e-15 9.31511e-15 -2.07663e-15 8.96952e-15 1.22314e-14 -6.77743e-15 -1.41145e-14 -4.43593e-14 -4.70732e-14 -3.3126e-14 -2.85203e-14 -2.31701e-14 -1.99894e-14 -3.19128e-14 -3.3195e-14 -4.0991e-15 6.18706e-15 7.57453e-15 6.53049e-15 1.4929e-14 9.49432e-15 -6.58945e-15 -2.34043e-14 -4.58601e-14 -5.35706e-14 -8.6749e-14 -1.3511e-13 -2.61049e-13 -4.62556e-13 -6.46575e-13 -8.08677e-13 -8.6078e-13 -7.17875e-13 -2.21236e-13 8.44788e-13 2.62197e-12 5.18892e-12 8.53453e-12 1.23846e-11 1.63517e-11 1.97628e-11 2.16466e-11 2.08715e-11 1.61429e-11 6.17952e-12 -1.0289e-11 -3.43386e-11 -6.68395e-11 -1.08467e-10 -1.60257e-10 -2.22083e-10 -2.54922e-10 -2.64498e-10 -2.5301e-10 -1.91035e-10 -1.36667e-10 -8.3039e-11 -1.20622e-10 -3.72808e-10 -3.93056e-10 -1.47669e-09 -1.67009e-09 -9.4127e-09 -1.03137e-08 3.42802e-08 1.83966e-08 1.19524e-08 8.71183e-09 6.75939e-09 5.40934e-09 4.3751e-09 3.53847e-09 2.85235e-09 2.286e-09 1.81044e-09 1.42464e-09 1.13226e-09 9.04341e-10 7.2517e-10 5.87103e-10 4.84531e-10 4.07416e-10 3.46101e-10 2.99777e-10 2.61912e-10 2.28533e-10 1.94516e-10 1.61128e-10 1.34588e-10 1.06301e-10 7.83165e-11 5.51862e-11 3.13826e-11 4.60834e-12 -2.80843e-11 -6.69284e-11 -1.15339e-10 -1.57064e-10 -1.79078e-10 -1.96603e-10 -2.21317e-10 -2.53023e-10 -2.86646e-10 -3.23996e-10 -3.59943e-10 -3.69266e-10 -3.59373e-10 -3.51794e-10 -3.43439e-10 -3.29267e-10 -2.96479e-10 -2.54064e-10 -2.12774e-10 -1.68946e-10 -1.24824e-10 -8.26273e-11 -4.36273e-11 -1.17952e-11 1.14717e-11 2.85412e-11 3.97838e-11 4.27792e-11 4.23763e-11 3.82041e-11 3.09043e-11 2.21753e-11 1.36841e-11 6.9754e-12 2.8088e-12 8.59721e-13 1.66445e-13 4.44763e-15 -2.60786e-14 -3.22738e-14 -3.03627e-14 -2.90752e-14 -1.84441e-14 -2.62709e-14 -2.35951e-14 -2.76974e-14 -4.29739e-14 -2.81054e-14 -2.47098e-14 -5.38367e-14 -4.65606e-14 -3.0825e-14 -2.41026e-14 2.71713e-15 2.39951e-14 -8.79476e-15 -3.10005e-14 -2.17469e-15 3.64805e-14 2.26736e-14 -6.69133e-18 1.78e-14 1.27231e-14 -7.43107e-15 -7.18639e-14 -9.73477e-14 -9.32744e-14 -6.85219e-14 -5.452e-14 0 0 5.30974e-15 5.7004e-15 5.92848e-15 5.91204e-15 4.28769e-15 4.27563e-15 5.9912e-15 6.11261e-15 6.04184e-15 4.7828e-15 3.82763e-15 2.50906e-15 -8.54783e-16 1.27657e-15 4.85323e-15 1.70765e-15 9.71265e-16 2.16906e-15 5.70922e-16 -6.68167e-15 -8.175e-16 5.20239e-15 -1.66863e-15 5.5991e-15 7.60431e-15 3.74295e-15 5.38892e-15 -1.69056e-15 -2.17946e-15 1.78439e-15 4.22721e-15 7.62762e-15 -8.83915e-16 -1.89993e-15 -5.61612e-15 -2.12954e-15 2.07035e-15 7.19218e-15 3.13022e-14 3.75223e-14 2.03002e-14 9.21527e-15 4.26195e-15 -8.40118e-15 -2.30905e-14 -1.20016e-14 -1.08503e-14 -4.07765e-14 -4.39721e-14 -2.67437e-14 -1.67131e-14 -1.3492e-14 -4.63755e-15 -7.52322e-15 -1.12061e-14 -1.40462e-14 -2.24959e-14 -2.33913e-14 -1.25361e-14 -7.51611e-15 -2.71643e-14 -3.62854e-14 -9.12223e-14 -1.548e-13 -2.1892e-13 -3.41271e-13 -4.65911e-13 -5.14713e-13 -4.43694e-13 -1.65303e-13 4.87444e-13 1.62168e-12 3.21801e-12 5.24081e-12 7.6594e-12 1.0095e-11 1.21785e-11 1.33953e-11 1.29344e-11 1.00225e-11 3.84579e-12 -6.35273e-12 -2.12229e-11 -4.13252e-11 -6.70371e-11 -9.9055e-11 -1.37277e-10 -1.57897e-10 -1.62493e-10 -1.57161e-10 -1.24107e-10 -6.1006e-11 -8.46804e-11 -1.11419e-10 -9.08391e-12 -6.47008e-10 -2.89165e-10 -2.98913e-09 2.48314e-09 5.57851e-09 -2.20098e-08 -3.58567e-09 1.59663e-09 2.82994e-09 2.83851e-09 2.51041e-09 2.11618e-09 1.73619e-09 1.42778e-09 1.21912e-09 1.08472e-09 9.74498e-10 8.59258e-10 7.56946e-10 6.62635e-10 5.38944e-10 4.00467e-10 2.77942e-10 1.932e-10 1.49839e-10 1.2871e-10 1.19136e-10 1.1007e-10 9.76435e-11 8.48286e-11 6.80151e-11 5.0224e-11 3.52604e-11 2.01071e-11 3.29879e-12 -1.69835e-11 -4.10675e-11 -7.10653e-11 -9.68162e-11 -1.10393e-10 -1.21209e-10 -1.36496e-10 -1.56145e-10 -1.76974e-10 -2.00111e-10 -2.22419e-10 -2.28316e-10 -2.22269e-10 -2.17605e-10 -2.12429e-10 -2.03711e-10 -1.83614e-10 -1.57478e-10 -1.31925e-10 -1.04838e-10 -7.76722e-11 -5.17937e-11 -2.7726e-11 -8.00786e-12 6.33567e-12 1.68378e-11 2.37641e-11 2.56445e-11 2.54368e-11 2.29929e-11 1.85371e-11 1.32345e-11 8.15091e-12 4.14481e-12 1.64181e-12 4.44134e-13 5.87937e-14 -5.65435e-14 -7.58348e-14 -7.05307e-14 -7.00655e-14 -7.09824e-14 -7.64797e-14 -6.9911e-14 -7.99791e-14 -7.10068e-14 -4.93643e-14 -5.9979e-14 -6.27388e-14 -1.82184e-14 -4.63658e-14 -7.79334e-14 -8.14894e-14 -1.05268e-13 -1.02091e-13 -2.90698e-14 7.64648e-15 -4.48268e-14 -7.30429e-14 -1.43425e-14 2.28597e-14 1.01517e-14 -6.81277e-15 -3.68267e-14 -2.24619e-15 -2.64125e-14 -5.03461e-14 -7.60882e-14 -7.95966e-14 0 0 7.28316e-15 6.82797e-15 5.63727e-15 4.63449e-15 5.20212e-15 3.16461e-15 -1.22263e-15 -3.75446e-15 -3.12181e-15 -1.4832e-15 -2.42687e-15 -2.2241e-15 1.15993e-15 3.17296e-15 1.72525e-15 9.7621e-16 3.89617e-15 2.38713e-15 7.09736e-16 4.06837e-15 4.25346e-17 9.63074e-16 1.04046e-14 6.91906e-15 4.00988e-15 9.62378e-15 2.63621e-15 3.61352e-15 6.27746e-15 1.11737e-15 -3.57253e-15 -7.39654e-15 2.06725e-15 5.11985e-15 4.43028e-15 -1.71056e-16 -4.55787e-15 1.40289e-15 1.85711e-15 7.94208e-18 1.92746e-14 2.38111e-14 -3.19175e-15 -1.78698e-14 -2.75597e-14 -4.06321e-14 -4.94504e-14 -2.9194e-14 -2.22304e-14 -3.30182e-14 -3.47266e-14 -4.51554e-14 -5.45921e-14 -4.08202e-14 -1.46783e-14 3.8021e-15 9.69649e-15 1.26529e-14 2.68673e-14 1.28925e-14 -1.01023e-14 9.40791e-15 8.67362e-14 1.844e-13 2.79123e-13 3.67097e-13 4.87971e-13 5.30614e-13 4.40902e-13 1.73389e-13 -4.80981e-13 -1.60823e-12 -3.20806e-12 -5.25793e-12 -7.66783e-12 -1.0103e-11 -1.21965e-11 -1.33879e-11 -1.28989e-11 -9.98635e-12 -3.8186e-12 6.37231e-12 2.12601e-11 4.13696e-11 6.70822e-11 9.9093e-11 1.3729e-10 1.5791e-10 1.62443e-10 1.56963e-10 1.23702e-10 6.03645e-11 8.38876e-11 1.10594e-10 8.33645e-12 6.46409e-10 2.88721e-10 2.98879e-09 -2.4835e-09 -5.57902e-09 2.20087e-08 3.58453e-09 -1.59785e-09 -2.83122e-09 -2.83971e-09 -2.51114e-09 -2.11599e-09 -1.73456e-09 -1.4246e-09 -1.21464e-09 -1.0794e-09 -9.68914e-10 -8.53767e-10 -7.51733e-10 -6.57811e-10 -5.34533e-10 -3.96423e-10 -2.74247e-10 -1.8985e-10 -1.46808e-10 -1.25965e-10 -1.16626e-10 -1.07786e-10 -9.55727e-11 -8.29722e-11 -6.63559e-11 -4.87475e-11 -3.39284e-11 -1.89215e-11 -2.29107e-12 1.78375e-11 4.17712e-11 7.16346e-11 9.7296e-11 1.10781e-10 1.21426e-10 1.36542e-10 1.56061e-10 1.76747e-10 1.99772e-10 2.21957e-10 2.27711e-10 2.21527e-10 2.16729e-10 2.11455e-10 2.02614e-10 1.82336e-10 1.56026e-10 1.30331e-10 1.03136e-10 7.58463e-11 4.97798e-11 2.55593e-11 5.79267e-12 -8.59138e-12 -1.91416e-11 -2.61209e-11 -2.80275e-11 -2.77778e-11 -2.5055e-11 -2.02517e-11 -1.46185e-11 -9.1376e-12 -4.77589e-12 -2.02411e-12 -6.65555e-13 -2.0965e-13 -8.68479e-14 -7.16972e-14 -8.80994e-14 -1.08915e-13 -1.0221e-13 -9.2946e-14 -9.56482e-14 -7.0455e-14 -7.82585e-14 -1.07617e-13 -9.48305e-14 -7.71035e-14 -1.05632e-13 -5.61311e-14 -1.37134e-14 1.53856e-14 6.97319e-14 5.04326e-14 -1.91629e-15 8.6361e-15 7.55196e-14 9.11691e-14 5.59435e-14 -5.06301e-15 -7.8374e-14 -5.65158e-14 3.25611e-16 -2.17189e-14 3.80111e-14 1.13756e-13 1.18389e-13 8.34086e-14 0 0 4.74372e-16 6.40086e-16 1.54028e-15 2.21307e-15 1.54271e-15 2.38702e-15 4.42243e-15 4.06931e-15 2.45453e-15 1.28792e-15 -6.05735e-17 -3.77389e-16 7.7896e-16 2.9708e-17 -2.16282e-15 -3.86313e-16 -5.26521e-16 3.85182e-15 6.31205e-15 4.851e-15 6.42063e-15 1.95031e-15 -8.9961e-15 -1.01951e-14 -4.7508e-15 -7.27667e-15 -1.93892e-15 6.74854e-15 1.12341e-14 8.35617e-15 6.52629e-15 1.01657e-14 7.47686e-15 6.71563e-15 1.00424e-14 2.04064e-14 2.93279e-14 2.31239e-14 2.51285e-14 3.23788e-14 1.16783e-14 -1.50966e-14 -2.85533e-14 -3.25592e-14 -2.88935e-14 -3.35167e-14 -4.11041e-14 -4.5989e-14 -3.70265e-14 -2.66874e-14 -3.07126e-14 -3.66199e-14 -3.59213e-14 -3.80773e-14 -4.36334e-14 -2.64242e-14 -2.99425e-15 -1.31623e-14 -1.16608e-14 4.70792e-14 8.7302e-14 1.07245e-13 1.91544e-13 2.86449e-13 4.13047e-13 6.29298e-13 7.82785e-13 8.51366e-13 7.44607e-13 2.37019e-13 -8.42571e-13 -2.59615e-12 -5.12024e-12 -8.45226e-12 -1.23533e-11 -1.63545e-11 -1.97434e-11 -2.16431e-11 -2.08769e-11 -1.61491e-11 -6.18031e-12 1.02908e-11 3.4335e-11 6.68442e-11 1.0846e-10 1.60283e-10 2.22155e-10 2.5496e-10 2.64489e-10 2.52905e-10 1.90779e-10 1.36292e-10 8.25609e-11 1.20117e-10 3.72357e-10 3.92671e-10 1.47639e-09 1.66988e-09 9.41249e-09 1.03134e-08 -3.42808e-08 -1.83973e-08 -1.19531e-08 -8.71261e-09 -6.76012e-09 -5.40982e-09 -4.375e-09 -3.53747e-09 -2.85042e-09 -2.28326e-09 -1.80719e-09 -1.42129e-09 -1.12898e-09 -9.01149e-10 -7.22148e-10 -5.84309e-10 -4.81966e-10 -4.05116e-10 -3.4402e-10 -2.9786e-10 -2.60191e-10 -2.26999e-10 -1.93112e-10 -1.59873e-10 -1.33481e-10 -1.0528e-10 -7.73752e-11 -5.43729e-11 -3.0656e-11 -3.98568e-12 2.86085e-11 6.73969e-11 1.15736e-10 1.57379e-10 1.79291e-10 1.96776e-10 2.2142e-10 2.5299e-10 2.8653e-10 3.23751e-10 3.59589e-10 3.68883e-10 3.58886e-10 3.51246e-10 3.42801e-10 3.28497e-10 2.95664e-10 2.53197e-10 2.11817e-10 1.67842e-10 1.23623e-10 8.14357e-11 4.23647e-11 1.03352e-11 -1.30478e-11 -3.02026e-11 -4.15056e-11 -4.43805e-11 -4.38115e-11 -3.94804e-11 -3.19879e-11 -2.29716e-11 -1.4295e-11 -7.44322e-12 -3.11161e-12 -1.07472e-12 -3.06592e-13 -1.07973e-13 -8.5422e-14 -3.2204e-14 -1.26252e-14 -4.37947e-14 -7.98816e-14 -7.18294e-14 -9.98727e-14 -1.02897e-13 -6.58662e-14 -6.88595e-14 -5.03111e-14 -1.3094e-14 -1.58148e-14 -2.77366e-14 -2.14736e-14 -1.80106e-14 2.85971e-14 6.00171e-14 3.71755e-14 1.05906e-14 1.65814e-15 -2.40947e-14 -3.58074e-14 2.12694e-14 2.90867e-14 -2.5993e-14 -1.96727e-14 -6.04915e-14 -1.3052e-13 -1.12919e-13 -8.75764e-14 0 0 0 0 0 0 0 0 0 0 0 0 0 0 0 0 0 0 0 0 0 0 0 0 0 0 0 0 0 0 0 0 0 0 0 0 0 0 0 0 0 0 0 0 0 0 0 0 0 0 0 0 0 0 0 0 0 0 0 0 0 0 0 0 0 0 0 0 0 0 0 0 0 0 0 0 0 0 0 0 0 0 0 0 0 0 0 0 0 0 0 0 0 0 0 0 0 0 0 0 0 0 0 0 0 0 0 0 0 0 0 0 0 0 0 0 0 0 0 0 0 0 0 0 0 0 0 0 0 0 0 0 0 0 0 0 0 0 0 0 0 0 0 0 0 0 0 0 0 0 0 0 0 0 0 0 0 0 0 0 0 0 0 0 0 0 0 0 0 0 0 0 0 0 0 0 0 0 0 0 0 0 0 0 0 0 0 0 0 0 0 0 0 0 0 0 0 0 0 0 0 0
				</DataArray>
			</PointData>
			<CellData Scalars="Density">