<?xml version="1.0"?>
<VTKFile type="PolyData">
	<PolyData>
		<Piece NumberOfPoints="1206" NumberOfPolys="1000">
			<Points>
				<DataArray type="Float32" NumberOfComponents="3" format="ascii">
 0 0 0 0.005 0 0 0.01 0 0 0.015 0 0 0.02 0 0 0.025 0 0 0.03 0 0 0.035 0 0 0.04 0 0 0.045 0 0 0.05 0 0 0.055 0 0 0.06 0 0 0.065 0 0 0.07 0 0 0.075 0 0 0.08 0 0 0.085 0 0 0.09 0 0 0.095 0 0 0.1 0 0 0.105 0 0 0.11 0 0 0.115 0 0 0.12 0 0 0.125 0 0 0.13 0 0 0.135 0 0 0.14 0 0 0.145 0 0 0.15 0 0 0.155 0 0 0.16 0 0 0.165 0 0 0.17 0 0 0.175 0 0 0.18 0 0 0.185 0 0 0.19 0 0 0.195 0 0 0.2 0 0 0.205 0 0 0.21 0 0 0.215 0 0 0.22 0 0 0.225 0 0 0.23 0 0 0.235 0 0 0.24 0 0 0.245 0 0 0.250001 0 0 0.255002 0 0 0.260007 0 0 0.265017 0 0 0.27004 0 0 0.275087 0 0 0.28017 0 0 0.285307 0 0 0.290512 0 0 0.2958 0 0 0.30118 0 0 0.306663 0 0 0.312256 0 0 0.317966 0 0 0.323799 0 0 0.329764 0 0 0.335867 0 0 0.342117 0 0 0.348522 0 0 0.355091 0 0 0.361833 0 0 0.368761 0 0 0.375885 0 0 0.383218 0 0 0.390774 0 0 0.398568 0 0 0.406618 0 0 0.414943 0 0 0.423563 0 0 0.432501 0 0 0.441783 0 0 0.451436 0 0 0.461491 0 0 0.471978 0 0 0.482924 0 0 0.494342 0 0 0.506196 0 0 0.51832 0 0 0.530419 0 0 0.542427 0 0 0.554342 0 0 0.56618 0 0 0.577964 0 0 0.589718 0 0 0.601457 0 0 0.613188 0 0 0.624917 0 0 0.636646 0 0 0.648374 0 0 0.660105 0 0 0.671848 0 0 0.674457 0 0 0.676993 0 0 0.679483 0 0 0.681943 0 0 0.684381 0 0 0.686804 0 0 0.689218 0 0 0.69163 0 0 0.694042 0 0 0.69644 0 0 0.698826 0 0 0.701207 0 0 0.703585 0 0 0.705961 0 0 0.708333 0 0 0.710703 0 0 0.713073 0 0 0.71544 0 0 0.717804 0 0 0.720167 0 0 0.722529 0 0 0.724891 0 0 0.727255 0 0 0.729617 0 0 0.731979 0 0 0.734341 0 0 0.736702 0 0 0.739064 0 0 0.741428 0 0 0.743792 0 0 0.746154 0 0 0.748516 0 0 0.750878 0 0 0.753239 0 0 0.7556 0 0 0.757962 0 0 0.760325 0 0 0.762686 0 0 0.765047 0 0 0.767408 0 0 0.769768 0 0 0.772129 0 0 0.774491 0 0 0.776853 0 0 0.779214 0 0 0.781575 0 0 0.783937 0 0 0.786298 0 0 0.788663 0 0 0.791027 0 0 0.793388 0 0 0.79575 0 0 0.79811 0 0 0.800471 0 0 0.802834 0 0 0.805198 0 0 0.807569 0 0 0.80995 0 0 0.812354 0 0 0.814808 0 0 0.817335 0 0 0.819986 0 0 0.822775 0 0 0.825774 0 0 0.829028 0 0 0.832607 0 0 0.836535 0 0 0.84081 0 0 0.845379 0 0 0.850159 0 0 0.855062 0 0 0.860023 0 0 0.865008 0 0 0.870003 0 0 0.875001 0 0 0.88 0 0 0.885 0 0 0.89 0 0 0.895 0 0 0.9 0 0 0.905 0 0 0.91 0 0 0.915 0 0 0.92 0 0 0.925 0 0 0.93 0 0 0.935 0 0 0.94 0 0 0.945 0 0 0.95 0 0 0.955 0 0 0.96 0 0 0.965 0 0 0.97 0 0 0.975 0 0 0.98 0 0 0.985 0 0 0.99 0 0 0.995 0 0 1 0 0 0 0.02 0 0.005 0.02 0 0.01 0.02 0 0.015 0.02 0 0.02 0.02 0 0.025 0.02 0 0.03 0.02 0 0.035 0.02 0 0.04 0.02 0 0.045 0.02 0 0.05 0.02 0 0.055 0.02 0 0.06 0.02 0 0.065 0.02 0 0.07 0.02 0 0.075 0.02 0 0.08 0.02 0 0.085 0.02 0 0.09 0.02 0 0.095 0.02 0 0.1 0.02 0 0.105 0.02 0 0.11 0.02 0 0.115 0.02 0 0.12 0.02 0 0.125 0.02 0 0.13 0.02 0 0.135 0.02 0 0.14 0.02 0 0.145 0.02 0 0.15 0.02 0 0.155 0.02 0 0.16 0.02 0 0.165 0.02 0 0.17 0.02 0 0.175 0.02 0 0.18 0.02 0 0.185 0.02 0 0.19 0.02 0 0.195 0.02 0 0.2 0.02 0 0.205 0.02 0 0.21 0.02 0 0.215 0.02 0 0.22 0.02 0 0.225 0.02 0 0.23 0.02 0 0.235 0.02 0 0.24 0.02 0 0.245 0.02 0 0.250001 0.02 0 0.255002 0.02 0 0.260007 0.02 0 0.265017 0.02 0 0.27004 0.02 0 0.275087 0.02 0 0.28017 0.02 0 0.285307 0.02 0 0.290512 0.02 0 0.2958 0.02 0 0.30118 0.02 0 0.306663 0.02 0 0.312256 0.02 0 0.317966 0.02 0 0.323799 0.02 0 0.329764 0.02 0 0.335867 0.02 0 0.342117 0.02 0 0.348522 0.02 0 0.355091 0.02 0 0.361833 0.02 0 0.368761 0.02 0 0.375885 0.02 0 0.383218 0.02 0 0.390774 0.02 0 0.398568 0.02 0 0.406618 0.02 0 0.414943 0.02 0 0.423563 0.02 0 0.432501 0.02 0 0.441783 0.02 0 0.451436 0.02 0 0.461491 0.02 0 0.471978 0.02 0 0.482924 0.02 0 0.494342 0.02 0 0.506196 0.02 0 0.51832 0.02 0 0.530419 0.02 0 0.542427 0.02 0 0.554342 0.02 0 0.56618 0.02 0 0.577964 0.02 0 0.589718 0.02 0 0.601457 0.02 0 0.613188 0.02 0 0.624917 0.02 0 0.636646 0.02 0 0.648374 0.02 0 0.660105 0.02 0 0.671848 0.02 0 0.674457 0.02 0 0.676993 0.02 0 0.679483 0.02 0 0.681943 0.02 0 0.684381 0.02 0 0.686804 0.02 0 0.689218 0.02 0 0.69163 0.02 0 0.694042 0.02 0 0.69644 0.02 0 0.698826 0.02 0 0.701207 0.02 0 0.703585 0.02 0 0.705961 0.02 0 0.708333 0.02 0 0.710703 0.02 0 0.713073 0.02 0 0.71544 0.02 0 0.717804 0.02 0 0.720167 0.02 0 0.722529 0.02 0 0.724891 0.02 0 0.727255 0.02 0 0.729617 0.02 0 0.731979 0.02 0 0.734341 0.02 0 0.736702 0.02 0 0.739064 0.02 0 0.741428 0.02 0 0.743792 0.02 0 0.746154 0.02 0 0.748516 0.02 0 0.750878 0.02 0 0.753239 0.02 0 0.7556 0.02 0 0.757962 0.02 0 0.760325 0.02 0 0.762686 0.02 0 0.765047 0.02 0 0.767408 0.02 0 0.769768 0.02 0 0.772129 0.02 0 0.774491 0.02 0 0.776853 0.02 0 0.779214 0.02 0 0.781575 0.02 0 0.783937 0.02 0 0.786298 0.02 0 0.788663 0.02 0 0.791027 0.02 0 0.793388 0.02 0 0.79575 0.02 0 0.79811 0.02 0 0.800471 0.02 0 0.802834 0.02 0 0.805198 0.02 0 0.807569 0.02 0 0.80995 0.02 0 0.812354 0.02 0 0.814808 0.02 0 0.817335 0.02 0 0.819986 0.02 0 0.822775 0.02 0 0.825774 0.02 0 0.829028 0.02 0 0.832607 0.02 0 0.836535 0.02 0 0.84081 0.02 0 0.845379 0.02 0 0.850159 0.02 0 0.855062 0.02 0 0.860023 0.02 0 0.865008 0.02 0 0.870003 0.02 0 0.875001 0.02 0 0.88 0.02 0 0.885 0.02 0 0.89 0.02 0 0.895 0.02 0 0.9 0.02 0 0.905 0.02 0 0.91 0.02 0 0.915 0.02 0 0.92 0.02 0 0.925 0.02 0 0.93 0.02 0 0.935 0.02 0 0.94 0.02 0 0.945 0.02 0 0.95 0.02 0 0.955 0.02 0 0.96 0.02 0 0.965 0.02 0 0.97 0.02 0 0.975 0.02 0 0.98 0.02 0 0.985 0.02 0 0.99 0.02 0 0.995 0.02 0 1 0.02 0 0 0.04 0 0.005 0.04 0 0.01 0.04 0 0.015 0.04 0 0.02 0.04 0 0.025 0.04 0 0.03 0.04 0 0.035 0.04 0 0.04 0.04 0 0.045 0.04 0 0.05 0.04 0 0.055 0.04 0 0.06 0.04 0 0.065 0.04 0 0.07 0.04 0 0.075 0.04 0 0.08 0.04 0 0.085 0.04 0 0.09 0.04 0 0.095 0.04 0 0.1 0.04 0 0.105 0.04 0 0.11 0.04 0 0.115 0.04 0 0.12 0.04 0 0.125 0.04 0 0.13 0.04 0 0.135 0.04 0 0.14 0.04 0 0.145 0.04 0 0.15 0.04 0 0.155 0.04 0 0.16 0.04 0 0.165 0.04 0 0.17 0.04 0 0.175 0.04 0 0.18 0.04 0 0.185 0.04 0 0.19 0.04 0 0.195 0.04 0 0.2 0.04 0 0.205 0.04 0 0.21 0.04 0 0.215 0.04 0 0.22 0.04 0 0.225 0.04 0 0.23 0.04 0 0.235 0.04 0 0.24 0.04 0 0.245 0.04 0 0.250001 0.04 0 0.255002 0.04 0 0.260007 0.04 0 0.265017 0.04 0 0.27004 0.04 0 0.275087 0.04 0 0.28017 0.04 0 0.285307 0.04 0 0.290512 0.04 0 0.2958 0.04 0 0.30118 0.04 0 0.306663 0.04 0 0.312256 0.04 0 0.317966 0.04 0 0.323799 0.04 0 0.329764 0.04 0 0.335867 0.04 0 0.342117 0.04 0 0.348522 0.04 0 0.355091 0.04 0 0.361833 0.04 0 0.368761 0.04 0 0.375885 0.04 0 0.383218 0.04 0 0.390774 0.04 0 0.398568 0.04 0 0.406618 0.04 0 0.414943 0.04 0 0.423563 0.04 0 0.432501 0.04 0 0.441783 0.04 0 0.451436 0.04 0 0.461491 0.04 0 0.471978 0.04 0 0.482924 0.04 0 0.494342 0.04 0 0.506196 0.04 0 0.51832 0.04 0 0.530419 0.04 0 0.542427 0.04 0 0.554342 0.04 0 0.56618 0.04 0 0.577964 0.04 0 0.589718 0.04 0 0.601457 0.04 0 0.613188 0.04 0 0.624917 0.04 0 0.636646 0.04 0 0.648374 0.04 0 0.660105 0.04 0 0.671848 0.04 0 0.674457 0.04 0 0.676993 0.04 0 0.679483 0.04 0 0.681943 0.04 0 0.684381 0.04 0 0.686804 0.04 0 0.689218 0.04 0 0.69163 0.04 0 0.694042 0.04 0 0.69644 0.04 0 0.698826 0.04 0 0.701207 0.04 0 0.703585 0.04 0 0.705961 0.04 0 0.708333 0.04 0 0.710703 0.04 0 0.713073 0.04 0 0.71544 0.04 0 0.717804 0.04 0 0.720167 0.04 0 0.722529 0.04 0 0.724891 0.04 0 0.727255 0.04 0 0.729617 0.04 0 0.731979 0.04 0 0.734341 0.04 0 0.736702 0.04 0 0.739064 0.04 0 0.741428 0.04 0 0.743792 0.04 0 0.746154 0.04 0 0.748516 0.04 0 0.750878 0.04 0 0.753239 0.04 0 0.7556 0.04 0 0.757962 0.04 0 0.760325 0.04 0 0.762686 0.04 0 0.765047 0.04 0 0.767408 0.04 0 0.769768 0.04 0 0.772129 0.04 0 0.774491 0.04 0 0.776853 0.04 0 0.779214 0.04 0 0.781575 0.04 0 0.783937 0.04 0 0.786298 0.04 0 0.788663 0.04 0 0.791027 0.04 0 0.793388 0.04 0 0.79575 0.04 0 0.79811 0.04 0 0.800471 0.04 0 0.802834 0.04 0 0.805198 0.04 0 0.807569 0.04 0 0.80995 0.04 0 0.812354 0.04 0 0.814808 0.04 0 0.817335 0.04 0 0.819986 0.04 0 0.822775 0.04 0 0.825774 0.04 0 0.829028 0.04 0 0.832607 0.04 0 0.836535 0.04 0 0.84081 0.04 0 0.845379 0.04 0 0.850159 0.04 0 0.855062 0.04 0 0.860023 0.04 0 0.865008 0.04 0 0.870003 0.04 0 0.875001 0.04 0 0.88 0.04 0 0.885 0.04 0 0.89 0.04 0 0.895 0.04 0 0.9 0.04 0 0.905 0.04 0 0.91 0.04 0 0.915 0.04 0 0.92 0.04 0 0.925 0.04 0 0.93 0.04 0 0.935 0.04 0 0.94 0.04 0 0.945 0.04 0 0.95 0.04 0 0.955 0.04 0 0.96 0.04 0 0.965 0.04 0 0.97 0.04 0 0.975 0.04 0 0.98 0.04 0 0.985 0.04 0 0.99 0.04 0 0.995 0.04 0 1 0.04 0 0 0.06 0 0.005 0.06 0 0.01 0.06 0 0.015 0.06 0 0.02 0.06 0 0.025 0.06 0 0.03 0.06 0 0.035 0.06 0 0.04 0.06 0 0.045 0.06 0 0.05 0.06 0 0.055 0.06 0 0.06 0.06 0 0.065 0.06 0 0.07 0.06 0 0.075 0.06 0 0.08 0.06 0 0.085 0.06 0 0.09 0.06 0 0.095 0.06 0 0.1 0.06 0 0.105 0.06 0 0.11 0.06 0 0.115 0.06 0 0.12 0.06 0 0.125 0.06 0 0.13 0.06 0 0.135 0.06 0 0.14 0.06 0 0.145 0.06 0 0.15 0.06 0 0.155 0.06 0 0.16 0.06 0 0.165 0.06 0 0.17 0.06 0 0.175 0.06 0 0.18 0.06 0 0.185 0.06 0 0.19 0.06 0 0.195 0.06 0 0.2 0.06 0 0.205 0.06 0 0.21 0.06 0 0.215 0.06 0 0.22 0.06 0 0.225 0.06 0 0.23 0.06 0 0.235 0.06 0 0.24 0.06 0 0.245 0.06 0 0.250001 0.06 0 0.255002 0.06 0 0.260007 0.06 0 0.265017 0.06 0 0.27004 0.06 0 0.275087 0.06 0 0.28017 0.06 0 0.285307 0.06 0 0.290512 0.06 0 0.2958 0.06 0 0.30118 0.06 0 0.306663 0.06 0 0.312256 0.06 0 0.317966 0.06 0 0.323799 0.06 0 0.329764 0.06 0 0.335867 0.06 0 0.342117 0.06 0 0.348522 0.06 0 0.355091 0.06 0 0.361833 0.06 0 0.368761 0.06 0 0.375885 0.06 0 0.383218 0.06 0 0.390774 0.06 0 0.398568 0.06 0 0.406618 0.06 0 0.414943 0.06 0 0.423563 0.06 0 0.432501 0.06 0 0.441783 0.06 0 0.451436 0.06 0 0.461491 0.06 0 0.471978 0.06 0 0.482924 0.06 0 0.494342 0.06 0 0.506196 0.06 0 0.51832 0.06 0 0.530419 0.06 0 0.542427 0.06 0 0.554342 0.06 0 0.56618 0.06 0 0.577964 0.06 0 0.589718 0.06 0 0.601457 0.06 0 0.613188 0.06 0 0.624917 0.06 0 0.636646 0.06 0 0.648374 0.06 0 0.660105 0.06 0 0.671848 0.06 0 0.674457 0.06 0 0.676993 0.06 0 0.679483 0.06 0 0.681943 0.06 0 0.684381 0.06 0 0.686804 0.06 0 0.689218 0.06 0 0.69163 0.06 0 0.694042 0.06 0 0.69644 0.06 0 0.698826 0.06 0 0.701207 0.06 0 0.703
[...]
			<PointData Scalars="VitesseX">
				<DataArray Name="VitesseX" type="Float32" format="ascii">
 0 0 0 0 0 0 0 0 0 0 0 0 0 0 0 0 0 0 0 0 0 0 0 0 0 0 0 0 0 0 0 0 0 0 0 0 0 0 0 0 0 0 0 0 0 0 0 0 0 0 0 0 0 0 0 0 0 0 0 0 0 0 0 0 0 0 0 0 0 0 0 0 0 0 0 0 0 0 0 0 0 0 0 0 0 0 0 0 0 0 0 0 0 0 0 0 0 0 0 0 0 0 0 0 0 0 0 0 0 0 0 0 0 0 0 0 0 0 0 0 0 0 0 0 0 0 0 0 0 0 0 0 0 0 0 0 0 0 0 0 0 0 0 0 0 0 0 0 0 0 0 0 0 0 0 0 0 0 0 0 0 0 0 0 0 0 0 0 0 0 0 0 0 0 0 0 0 0 0 0 0 0 0 0 0 0 0 0 0 0 0 0 0 0 0 0 0 0 0 0 0 0 -5.52137e-16 -1.50914e-15 7.5401e-17 2.93052e-15 2.66554e-15 9.91919e-16 6.1691e-15 9.38255e-16 4.85626e-15 -4.01925e-15 1.20945e-15 6.21559e-15 -5.95441e-15 1.31115e-14 -5.61888e-15 4.62633e-15 1.51642e-14 1.28655e-14 -3.5879e-15 7.99246e-15 8.22453e-15 6.7114e-15 1.19688e-14 1.05567e-14 2.91747e-14 1.20812e-14 2.48766e-14 3.8731e-15 4.63189e-14 3.1073e-14 4.2102e-14 4.37974e-14 2.90143e-14 6.12841e-14 8.66407e-14 1.45768e-13 7.96492e-13 4.91871e-12 2.89895e-11 1.6308e-10 8.72515e-10 4.43356e-09 2.13499e-08 9.72219e-08 4.17594e-07 1.68702e-06 6.38906e-06 2.25975e-05 7.4313e-05 0.000226051 0.000632265 0.00161543 0.00374579 0.00784181 0.0147932 0.0252231 0.0392078 0.0562907 0.0757642 0.0969704 0.119443 0.142904 0.167205 0.192275 0.218081 0.244616 0.271888 0.299913 0.328715 0.358326 0.388781 0.42012 0.452388 0.485636 0.519915 0.555283 0.591795 0.629509 0.668471 0.708709 0.750204 0.792837 0.836257 0.879551 0.920332 0.952213 0.96017 0.951922 0.94416 0.937337 0.932471 0.929578 0.928078 0.927357 0.927017 0.92686 0.926773 0.926672 0.92653 0.9264 0.926394 0.926391 0.926392 0.926402 0.926446 0.926482 0.926475 0.926479 0.926502 0.92656 0.926664 0.926765 0.926749 0.926729 0.926697 0.926653 0.926601 0.926542 0.926479 0.926413 0.926348 0.926288 0.926236 0.926197 0.926174 0.926168 0.926244 0.926518 0.9266 0.926535 0.92643 0.926339 0.926261 0.926202 0.926171 0.92617 0.92627 0.926345 0.926358 0.926381 0.926233 0.926015 0.925737 0.925459 0.925262 0.925199 0.925581 0.927273 0.926646 0.926075 0.925255 0.924465 0.923984 0.924193 0.926388 0.926781 0.925558 0.921352 0.891632 0.882338 0.850727 0.80003 0.741004 0.660507 0.557491 0.438866 0.313905 0.198699 0.108829 0.051108 0.0211752 0.00813521 0.00301635 0.00110223 0.000400454 0.000145124 5.25166e-05 1.8981e-05 6.85115e-06 2.46901e-06 8.88096e-07 3.18727e-07 1.14084e-07 4.07083e-08 1.44744e-08 5.12582e-09 1.807e-09 6.33883e-10 2.21151e-10 7.67066e-11 2.65174e-11 9.07799e-12 3.08588e-12 1.01793e-12 3.29762e-13 3.84081e-14 -2.93676e-14 3.53503e-15 -4.81615e-14 0 0 9.46066e-17 -1.63665e-15 -2.17513e-16 1.735e-15 8.48564e-16 1.34526e-16 3.70608e-15 5.62361e-15 -4.0123e-15 -1.11068e-15 3.21086e-15 3.91448e-15 -1.26381e-14 1.08257e-14 -3.96423e-15 1.56032e-14 1.18052e-14 9.104e-15 1.06214e-15 1.13941e-14 1.01599e-14 1.11682e-14 -2.40446e-15 9.69552e-15 2.16451e-14 2.63581e-14 1.82494e-14 2.30194e-14 5.34501e-14 1.38031e-14 4.83096e-14 2.47556e-14 3.27394e-14 6.51703e-14 8.86692e-14 2.35661e-13 7.44905e-13 4.92643e-12 2.89493e-11 1.63001e-10 8.72528e-10 4.43346e-09 2.13499e-08 9.72221e-08 4.17594e-07 1.68702e-06 6.38906e-06 2.25975e-05 7.4313e-05 0.000226051 0.000632265 0.00161543 0.00374579 0.00784181 0.0147932 0.0252231 0.0392078 0.0562907 0.0757642 0.0969704 0.119443 0.142904 0.167205 0.192275 0.218081 0.244616 0.271888 0.299913 0.328715 0.358326 0.388781 0.42012 0.452388 0.485636 0.519915 0.555283 0.591795 0.629509 0.668471 0.708709 0.750204 0.792837 0.836257 0.879551 0.920332 0.952213 0.96017 0.951922 0.94416 0.937337 0.932471 0.929578 0.928078 0.927357 0.927017 0.92686 0.926773 0.926672 0.92653 0.9264 0.926394 0.926391 0.926392 0.926402 0.926446 0.926482 0.926475 0.926479 0.926502 0.92656 0.926664 0.926765 0.926749 0.926729 0.926697 0.926653 0.926601 0.926542 0.926479 0.926413 0.926348 0.926288 0.926236 0.926197 0.926174 0.926168 0.926244 0.926518 0.9266 0.926535 0.92643 0.926339 0.926261 0.926202 0.926171 0.92617 0.92627 0.926345 0.926358 0.926381 0.926233 0.926015 0.925737 0.925459 0.925262 0.925199 0.925581 0.927273 0.926646 0.926075 0.925255 0.924465 0.923984 0.924193 0.926388 0.926781 0.925558 0.921352 0.891632 0.882338 0.850727 0.80003 0.741004 0.660507 0.557491 0.438866 0.313905 0.198699 0.108829 0.051108 0.0211752 0.00813521 0.00301635 0.00110223 0.000400454 0.000145124 5.25166e-05 1.8981e-05 6.85115e-06 2.46901e-06 8.88096e-07 3.18727e-07 1.14084e-07 4.07083e-08 1.44744e-08 5.12586e-09 1.80702e-09 6.33875e-10 2.21196e-10 7.67655e-11 2.64247e-11 9.08414e-12 3.06502e-12 1.03377e-12 3.48552e-13 1.32853e-13 -7.57941e-14 6.84318e-14 -3.971e-14 0 0 -6.1849e-17 -3.72396e-16 -2.00709e-15 -3.85995e-15 -2.81755e-15 -3.56613e-15 3.89513e-15 4.18498e-15 -6.45446e-15 -3.83133e-16 1.09315e-14 -5.5271e-15 6.96577e-15 2.06314e-15 9.39993e-15 1.20266e-14 -1.05434e-14 6.84993e-15 1.84729e-14 1.35673e-14 1.56364e-15 2.10801e-14 -1.16183e-14 1.40974e-14 1.93649e-14 2.35383e-14 1.82176e-14 3.82044e-14 1.96858e-14 3.80015e-14 1.60883e-14 3.11166e-14 3.12118e-14 1.00075e-13 1.18608e-13 2.02212e-13 7.93329e-13 4.97256e-12 2.88896e-11 1.62936e-10 8.72467e-10 4.43337e-09 2.13499e-08 9.72221e-08 4.17594e-07 1.68702e-06 6.38907e-06 2.25975e-05 7.4313e-05 0.000226051 0.000632265 0.00161543 0.00374579 0.00784181 0.0147932 0.0252231 0.0392078 0.0562907 0.0757642 0.0969704 0.119443 0.142904 0.167205 0.192275 0.218081 0.244616 0.271888 0.299913 0.328715 0.358326 0.388781 0.42012 0.452388 0.485636 0.519915 0.555283 0.591795 0.629509 0.668471 0.708709 0.750204 0.792837 0.836257 0.879551 0.920332 0.952213 0.96017 0.951922 0.94416 0.937337 0.932471 0.929578 0.928078 0.927357 0.927017 0.92686 0.926773 0.926672 0.92653 0.9264 0.926394 0.926391 0.926392 0.926402 0.926446 0.926482 0.926475 0.926479 0.926502 0.92656 0.926664 0.926765 0.926749 0.926729 0.926697 0.926653 0.926601 0.926542 0.926479 0.926413 0.926348 0.926288 0.926236 0.926197 0.926174 0.926168 0.926244 0.926518 0.9266 0.926535 0.92643 0.926339 0.926261 0.926202 0.926171 0.92617 0.92627 0.926345 0.926358 0.926381 0.926233 0.926015 0.925737 0.925459 0.925262 0.925199 0.925581 0.927273 0.926646 0.926075 0.925255 0.924465 0.923984 0.924193 0.926388 0.926781 0.925558 0.921352 0.891632 0.882338 0.850727 0.80003 0.741004 0.660507 0.557491 0.438866 0.313905 0.198699 0.108829 0.051108 0.0211752 0.00813521 0.00301635 0.00110223 0.000400454 0.000145124 5.25166e-05 1.8981e-05 6.85115e-06 2.46901e-06 8.88096e-07 3.18727e-07 1.14084e-07 4.07084e-08 1.44743e-08 5.12589e-09 1.80698e-09 6.3393e-10 2.21216e-10 7.67804e-11 2.64234e-11 9.16697e-12 3.14775e-12 1.02275e-12 2.57263e-13 9.43903e-14 9.12584e-14 5.6136e-14 6.76785e-14 0 0 7.21385e-16 -2.70197e-16 -1.5086e-16 -3.23923e-15 -3.69204e-15 -6.58297e-15 -4.15513e-15 3.9859e-16 2.64563e-15 -4.16932e-15 9.95526e-15 5.4349e-15 1.15138e-14 5.11653e-15 8.65564e-15 1.97312e-14 -8.69919e-15 8.8478e-15 1.36547e-14 6.32871e-15 -3.98836e-15 1.13661e-14 3.22311e-14 -1.22852e-15 1.7735e-14 2.00908e-14 6.9144e-15 2.50425e-14 2.38484e-14 4.58e-14 1.61821e-14 6.5949e-14 4.25653e-14 1.24288e-13 1.41814e-13 1.51731e-13 7.96376e-13 4.92984e-12 2.88661e-11 1.62878e-10 8.72456e-10 4.43331e-09 2.135e-08 9.7222e-08 4.17594e-07 1.68702e-06 6.38907e-06 2.25975e-05 7.4313e-05 0.000226051 0.000632265 0.00161543 0.00374579 0.00784181 0.0147932 0.0252231 0.0392078 0.0562907 0.0757642 0.0969704 0.119443 0.142904 0.167205 0.192275 0.218081 0.244616 0.271888 0.299913 0.328715 0.358326 0.388781 0.42012 0.452388 0.485636 0.519915 0.555283 0.591795 0.629509 0.668471 0.708709 0.750204 0.792837 0.836257 0.879551 0.920332 0.952213 0.96017 0.951922 0.94416 0.937337 0.932471 0.929578 0.928078 0.927357 0.927017 0.92686 0.926773 0.926672 0.92653 0.9264 0.926394 0.926391 0.926392 0.926402 0.926446 0.926482 0.926475 0.926479 0.926502 0.92656 0.926664 0.926765 0.926749 0.926729 0.926697 0.926653 0.926601 0.926542 0.926479 0.926413 0.926348 0.926288 0.926236 0.926197 0.926174 0.926168 0.926244 0.926518 0.9266 0.926535 0.92643 0.926339 0.926261 0.926202 0.926171 0.92617 0.92627 0.926345 0.926358 0.926381 0.926233 0.926015 0.925737 0.925459 0.925262 0.925199 0.925581 0.927273 0.926646 0.926075 0.925255 0.924465 0.923984 0.924193 0.926388 0.926781 0.925558 0.921352 0.891632 0.882338 0.850727 0.80003 0.741004 0.660507 0.557491 0.438866 0.313905 0.198699 0.108829 0.051108 0.0211752 0.00813521 0.00301635 0.00110223 0.000400454 0.000145124 5.25166e-05 1.8981e-05 6.85115e-06 2.46901e-06 8.88096e-07 3.18727e-07 1.14084e-07 4.07084e-08 1.44743e-08 5.12591e-09 1.807e-09 6.3398e-10 2.21148e-10 7.67354e-11 2.65351e-11 9.28674e-12 3.16792e-12 9.80224e-13 1.58541e-13 1.69713e-13 6.74452e-14 -4.51045e-14 1.4971e-13 0 0 0 0 0 0 0 0 0 0 0 0 0 0 0 0 0 0 0 0 0 0 0 0 0 0 0 0 0 0 0 0 0 0 0 0 0 0 0 0 0 0 0 0 0 0 0 0 0 0 0 0 0 0 0 0 0 0 0 0 0 0 0 0 0 0 0 0 0 0 0 0 0 0 0 0 0 0 0 0 0 0 0 0 0 0 0 0 0 0 0 0 0 0 0 0 0 0 0 0 0 0 0 0 0 0 0 0 0 0 0 0 0 0 0 0 0 0 0 0 0 0 0 0 0 0 0 0 0 0 0 0 0 0 0 0 0 0 0 0 0 0 0 0 0 0 0 0 0 0 0 0 0 0 0 0 0 0 0 0 0 0 0 0 0 0 0 0 0 0 0 0 0 0 0 0 0 0 0 0 0 0 0 0 0 0 0 0 0 0 0 0 0 0 0 0 0 0 0 0 0 0
				</DataArray>
				<DataArray Name="VitesseY" type="Float32" format="ascii">
 0 0 0 0 0 0 0 0 0 0 0 0 0 0 0 0 0 0 0 0 0 0 0 0 0 0 0 0 0 0 0 0 0 0 0 0 0 0 0 0 0 0 0 0 0 0 0 0 0 0 0 0 0 0 0 0 0 0 0 0 0 0 0 0 0 0 0 0 0 0 0 0 0 0 0 0 0 0 0 0 0 0 0 0 0 0 0 0 0 0 0 0 0 0 0 0 0 0 0 0 0 0 0 0 0 0 0 0 0 0 0 0 0 0 0 0 0 0 0 0 0 0 0 0 0 0 0 0 0 0 0 0 0 0 0 0 0 0 0 0 0 0 0 0 0 0 0 0 0 0 0 0 0 0 0 0 0 0 0 0 0 0 0 0 0 0 0 0 0 0 0 0 0 0 0 0 0 0 0 0 0 0 0 0 0 0 0 0 0 0 0 0 0 0 0 0 0 0 0 0 0 0 2.59938e-15 2.56699e-15 2.34367e-15 3.01201e-15 3.0951e-15 1.68655e-15 8.38408e-16 -5.51641e-17 7.44312e-16 1.39905e-15 -1.25675e-15 -2.76682e-16 -6.67643e-16 -1.16424e-15 2.94317e-16 1.31279e-16 2.08079e-15 4.7127e-15 3.22565e-15 -3.79247e-16 1.57215e-15 1.45641e-15 -1.19347e-17 -2.28489e-15 -1.89776e-15 2.76315e-15 5.90165e-15 4.6605e-15 6.34128e-15 6.08149e-15 6.2115e-15 1.65218e-14 1.40312e-14 5.82657e-15 1.06859e-14 1.97266e-14 1.6706e-14 3.90047e-15 -4.13584e-15 -2.15581e-14 -3.05441e-14 -3.87338e-14 -5.04656e-14 -2.30011e-14 -1.54401e-14 -1.29998e-14 -3.51744e-15 -1.04686e-14 -2.13941e-14 -1.06253e-14 3.28472e-15 4.08212e-15 2.09199e-14 1.96654e-14 1.57353e-14 -1.51038e-14 -3.87793e-14 -4.04518e-14 -2.61053e-14 -1.49051e-14 -1.0441e-13 -2.30051e-13 -3.33262e-13 -3.86151e-13 -4.37233e-13 -4.86034e-13 -3.6391e-13 3.26683e-14 8.2178e-13 2.05194e-12 3.74444e-12 5.84156e-12 8.21993e-12 1.05696e-11 1.22882e-11 1.28046e-11 1.13643e-11 7.08714e-12 -7.91039e-13 -1.30323e-11 -3.00752e-11 -5.21003e-11 -7.90078e-11 -1.10208e-10 -1.45232e-10 -1.81802e-10 -1.83579e-10 -1.60663e-10 -1.35444e-10 -8.01956e-11 -5.13568e-12 2.54167e-11 2.59725e-11 2.72391e-12 -2.91797e-10 -3.65534e-10 -1.30898e-09 -1.52882e-09 -9.36674e-09 -1.02766e-08 3.39358e-08 1.80643e-08 1.16524e-08 8.46928e-09 6.59567e-09 5.32855e-09 4.35905e-09 3.57167e-09 2.94419e-09 2.45301e-09 2.04675e-09 1.67338e-09 1.32196e-09 1.02423e-09 8.02041e-10 6.36534e-10 5.13239e-10 4.30645e-10 3.838e-10 3.59988e-10 3.46295e-10 3.37243e-10 3.2711e-10 3.18399e-10 3.18985e-10 3.23202e-10 3.28185e-10 3.255e-10 3.11216e-10 2.99371e-10 2.92797e-10 2.85047e-10 2.70935e-10 2.4931e-10 2.20073e-10 1.85308e-10 1.4618e-10 1.14029e-10 8.83876e-11 4.7692e-11 3.67719e-12 -3.38816e-11 -7.08216e-11 -1.07946e-10 -1.47019e-10 -1.88218e-10 -2.28897e-10 -2.53911e-10 -2.54799e-10 -2.4617e-10 -2.36905e-10 -2.23342e-10 -2.04223e-10 -1.81195e-10 -1.52331e-10 -1.19929e-10 -8.90219e-11 -6.14241e-11 -3.86583e-11 -2.05928e-11 -6.23069e-12 3.46316e-12 9.32556e-12 1.18374e-11 1.14923e-11 9.2008e-12 6.04414e-12 3.15871e-12 1.26417e-12 3.73529e-13 6.27855e-14 -1.75095e-14 -4.71526e-14 -3.98359e-14 -3.26251e-14 -3.87783e-14 -3.80807e-14 -3.42931e-14 -3.36268e-14 -4.71709e-14 -4.63605e-14 -6.35292e-14 -8.89005e-14 -1.06611e-13 -9.69265e-14 -5.8112e-14 -4.79691e-14 -3.19824e-14 -2.27751e-14 -3.86898e-14 -5.17895e-14 -4.06033e-14 -1.85532e-14 -1.79551e-14 -3.46852e-14 -1.13609e-14 2.5563e-15 -1.42621e-14 -4.62013e-14 0 0 5.73321e-15 6.1791e-15 6.17903e-15 5.12282e-15 4.1384e-15 5.085e-15 5.04086e-15 6.51247e-15 4.65733e-15 2.62925e-15 6.44486e-15 5.42961e-15 3.46906e-15 1.66817e-15 -1.23573e-16 3.54277e-15 3.49705e-15 -8.52428e-16 8.4291e-16 6.30645e-15 5.76551e-15 7.58056e-15 6.34807e-15 4.91645e-15 2.34187e-15 -5.56161e-16 -1.85603e-15 2.68107e-15 7.47571e-15 5.16812e-15 2.28812e-15 -1.12163e-14 -1.25247e-14 -2.31962e-15 -5.84444e-15 8.20406e-15 2.0704e-14 2.25535e-14 2.2402e-14 1.00259e-14 2.68389e-15 -8.74677e-15 -3.04293e-14 -2.65768e-14 -1.46277e-14 -3.39814e-14 -3.71006e-14 -1.98379e-14 -1.43574e-14 -1.78001e-14 -9.5616e-15 -7.07805e-15 -1.90941e-14 -3.3875e-14 -2.43695e-14 9.78765e-15 1.30504e-14 -1.85872e-15 -3.61286e-14 -5.78356e-14 -3.79898e-14 -4.90883e-14 -1.30701e-13 -2.37062e-13 -2.82049e-13 -2.84764e-13 -2.01244e-13 7.52587e-14 5.33821e-13 1.25614e-12 2.29165e-12 3.62492e-12 5.08969e-12 6.49085e-12 7.62119e-12 7.94922e-12 7.02604e-12 4.39062e-12 -4.99752e-13 -8.03244e-12 -1.85615e-11 -3.21827e-11 -4.87751e-11 -6.81051e-11 -8.97914e-11 -1.12374e-10 -1.1336e-10 -9.96822e-11 -8.32413e-11 -4.76694e-11 -1.32933e-11 3.4898e-11 1.8878e-11 -9.67671e-11 4.08067e-11 -4.96571e-10 -3.05933e-10 -2.93567e-09 2.59143e-09 5.61735e-09 -2.13762e-08 -2.97498e-09 2.16849e-09 3.33439e-09 3.2323e-09 2.76392e-09 2.25389e-09 1.79544e-09 1.40689e-09 1.10383e-09 8.68697e-10 6.91681e-10 5.90371e-10 5.31567e-10 4.8199e-10 4.48737e-10 4.17349e-10 3.73911e-10 3.20377e-10 2.66667e-10 2.25127e-10 2.01027e-10 1.89278e-10 1.85834e-10 1.90519e-10 1.96881e-10 2.02251e-10 2.01522e-10 1.92791e-10 1.85304e-10 1.81083e-10 1.76249e-10 1.67489e-10 1.5408e-10 1.36e-10 1.14527e-10 9.04198e-11 7.0616e-11 5.47268e-11 2.96403e-11 2.47384e-12 -2.0846e-11 -4.36956e-11 -6.66228e-11 -9.07605e-11 -1.16282e-10 -1.41455e-10 -1.56921e-10 -1.57517e-10 -1.52194e-10 -1.46369e-10 -1.3787e-10 -1.26014e-10 -1.11799e-10 -9.39638e-11 -7.39336e-11 -5.4937e-11 -3.79316e-11 -2.37719e-11 -1.26021e-11 -3.74744e-12 2.28887e-12 5.89868e-12 7.46966e-12 7.2391e-12 5.77099e-12 3.8077e-12 1.99892e-12 7.74166e-13 1.83314e-13 -2.68031e-14 -8.10235e-14 -5.7523e-14 -6.71553e-14 -8.73935e-14 -7.94439e-14 -7.71366e-14 -8.98487e-14 -1.03735e-13 -7.685e-14 -7.79328e-14 -6.07506e-14 -7.79067e-15 7.3767e-15 -1.13424e-14 -3.43122e-14 -2.95795e-14 -4.21167e-14 -4.16846e-14 3.75683e-16 5.20156e-15 -2.77266e-14 -5.37005e-14 -5.53462e-14 -2.9998e-14 -2.52042e-14 -2.69232e-14 -5.57541e-15 4.44985e-14 0 0 4.02387e-15 3.82159e-15 3.73172e-15 2.83964e-15 1.54306e-15 -1.18382e-15 -2.05411e-15 -3.83545e-15 -2.88053e-15 -1.19972e-15 -2.9337e-15 -2.48385e-15 2.13138e-15 6.48982e-15 9.14117e-15 8.4795e-15 2.26383e-15 1.44105e-16 2.17355e-15 1.55506e-15 5.53334e-16 -7.90395e-16 2.61153e-16 7.0593e-16 3.78605e-15 5.52697e-15 6.03184e-15 5.17049e-15 -4.25285e-15 -4.28718e-15 -3.50342e-15 3.62371e-15 6.14463e-15 4.37306e-15 2.40111e-14 9.16188e-15 3.92091e-16 2.21772e-14 1.88465e-14 6.51616e-18 -2.40754e-14 -5.0461e-14 -4.35442e-14 -3.87997e-14 -6.35982e-14 -5.58354e-14 -3.60407e-14 -4.01265e-14 -3.17392e-14 -2.2972e-14 -4.37375e-14 -2.51795e-14 -4.52045e-16 2.644e-14 3.62532e-15 -2.72876e-14 1.18482e-14 2.56823e-14 4.00594e-14 4.50092e-14 7.72085e-14 1.1924e-13 1.79185e-13 2.5695e-13 2.77222e-13 3.06523e-13 2.30876e-13 -2.95377e-14 -4.85105e-13 -1.24376e-12 -2.29133e-12 -3.61444e-12 -5.05603e-12 -6.47933e-12 -7.59802e-12 -7.89179e-12 -7.00931e-12 -4.38331e-12 5.10504e-13 8.0699e-12 1.8614e-11 3.22209e-11 4.88265e-11 6.81362e-11 8.97886e-11 1.12371e-10 1.13355e-10 9.96887e-11 8.33089e-11 4.78233e-11 1.35389e-11 -3.45863e-11 -1.85566e-11 9.70351e-11 -4.06121e-11 4.9668e-10 3.05957e-10 2.93564e-09 -2.59145e-09 -5.61731e-09 2.13764e-08 2.97522e-09 -2.1682e-09 -3.33409e-09 -3.23205e-09 -2.76389e-09 -2.25427e-09 -1.79645e-09 -1.40859e-09 -1.10614e-09 -8.71354e-10 -6.94436e-10 -5.93069e-10 -5.34105e-10 -4.84362e-10 -4.50933e-10 -4.19362e-10 -3.7573e-10 -3.22018e-10 -2.68157e-10 -2.26517e-10 -2.02308e-10 -1.90428e-10 -1.86906e-10 -1.91483e-10 -1.97748e-10 -2.0308e-10 -2.02302e-10 -1.93499e-10 -1.85931e-10 -1.81646e-10 -1.76755e-10 -1.67933e-10 -1.54466e-10 -1.36353e-10 -1.14847e-10 -9.06545e-11 -7.0764e-11 -5.48211e-11 -2.96955e-11 -2.52946e-12 2.07661e-11 4.36332e-11 6.65881e-11 9.07585e-11 1.16313e-10 1.41485e-10 1.56946e-10 1.57521e-10 1.52233e-10 1.46468e-10 1.38056e-10 1.26333e-10 1.12209e-10 9.44657e-11 7.45286e-11 5.55629e-11 3.86341e-11 2.44963e-11 1.32309e-11 4.40701e-12 -1.6168e-12 -5.266e-12 -6.86749e-12 -6.76112e-12 -5.44326e-12 -3.63155e-12 -1.92986e-12 -8.03405e-13 -2.98136e-13 -1.4669e-13 -1.06767e-13 -1.19695e-13 -1.18618e-13 -1.02522e-13 -9.48282e-14 -9.86134e-14 -9.52205e-14 -6.90634e-14 -6.24807e-14 -2.95974e-14 -7.79868e-15 -4.9499e-14 -6.16504e-14 -5.62677e-14 -6.16789e-14 -6.92479e-14 -5.17907e-14 -3.34054e-14 -6.69293e-14 -6.82041e-14 -1.48272e-14 5.23835e-14 7.22894e-14 2.13187e-14 -1.59893e-14 1.79184e-14 3.52185e-14 9.07239e-15 0 0 -2.68486e-15 -2.36974e-15 -1.73312e-15 -2.34789e-16 1.02145e-15 2.66765e-15 7.85802e-16 -2.9028e-16 6.08859e-17 -3.05993e-16 2.60337e-16 2.14305e-15 1.57052e-15 -9.48711e-16 -3.2026e-15 -4.03487e-16 8.41915e-15 1.12071e-14 8.49205e-15 5.94086e-15 3.77378e-15 1.37652e-15 8.65889e-15 1.55914e-14 8.25352e-15 5.35198e-15 1.03709e-15 -4.27484e-15 2.95179e-15 5.85862e-15 6.91998e-15 8.75123e-15 1.77396e-14 2.84022e-14 2.0619e-14 2.8619e-14 2.56472e-14 -6.08796e-15 -1.94402e-14 -2.09884e-14 -1.42418e-14 -5.83356e-15 -1.35869e-14 -2.92593e-14 -4.08128e-14 -3.78925e-14 -3.5833e-14 -3.7089e-14 -3.82886e-14 -2.98683e-14 -1.04121e-14 -2.52258e-14 -3.32032e-14 -1.97057e-14 1.3118e-14 2.3033e-14 -1.16684e-15 2.38301e-15 3.44648e-14 7.42209e-14 9.67169e-14 1.87604e-13 2.83547e-13 3.74646e-13 5.13137e-13 5.0371e-13 3.40903e-13 -3.82867e-14 -8.05405e-13 -2.0323e-12 -3.70377e-12 -5.80085e-12 -8.22087e-12 -1.05512e-11 -1.22894e-11 -1.2824e-11 -1.13475e-11 -7.06777e-12 8.14788e-13 1.30327e-11 3.00581e-11 5.20951e-11 7.89717e-11 1.10194e-10 1.45241e-10 1.81802e-10 1.83585e-10 1.60653e-10 1.35479e-10 8.02969e-11 5.2833e-12 -2.52278e-11 -2.57758e-11 -2.55728e-12 2.91913e-10 3.65593e-10 1.309e-09 1.52882e-09 9.36673e-09 1.02766e-08 -3.39357e-08 -1.80642e-08 -1.16522e-08 -8.46911e-09 -6.59551e-09 -5.3285e-09 -4.35928e-09 -3.57234e-09 -2.94531e-09 -2.4545e-09 -2.04852e-09 -1.67519e-09 -1.3237e-09 -1.02586e-09 -8.03514e-10 -6.37888e-10 -5.14446e-10 -4.31776e-10 -3.84876e-10 -3.60984e-10 -3.47195e-10 -3.38046e-10 -3.27883e-10 -3.19095e-10 -3.19652e-10 -3.23843e-10 -3.28761e-10 -3.26035e-10 -3.11713e-10 -2.99831e-10 -2.9318e-10 -2.85373e-10 -2.7124e-10 -2.49605e-10 -2.20295e-10 -1.85448e-10 -1.46293e-10 -1.14125e-10 -8.84982e-11 -4.77898e-11 -3.70066e-12 3.39158e-11 7.08761e-11 1.07949e-10 1.46989e-10 1.88227e-10 2.28924e-10 2.53958e-10 2.54953e-10 2.46401e-10 2.3716e-10 2.23661e-10 2.04543e-10 1.81544e-10 1.52743e-10 1.20362e-10 8.95242e-11 6.19014e-11 3.907e-11 2.11173e-11 6.74033e-12 -2.98491e-12 -8.78504e-12 -1.13962e-11 -1.11761e-11 -8.99287e-12 -5.91689e-12 -3.15459e-12 -1.33835e-12 -4.3586e-13 -1.2284e-13 -5.84979e-14 -7.197e-14 -8.1126e-14 -8.01379e-14 -1.02817e-13 -9.86428e-14 -6.62041e-14 -7.09473e-14 -7.96718e-14 -8.14227e-14 -9.30196e-14 -6.6125e-14 -3.10886e-14 -2.22773e-14 -1.77789e-14 1.92684e-16 9.4483e-17 -2.28025e-14 -1.77407e-14 2.74793e-16 4.78421e-15 -2.74517e-14 -5.28971e-14 -3.73081e-14 -5.79906e-15 -2.67925e-14 -7.54617e-14 -5.40159e-14 0 0 0 0 0 0 0 0 0 0 0 0 0 0 0 0 0 0 0 0 0 0 0 0 0 0 0 0 0 0 0 0 0 0 0 0 0 0 0 0 0 0 0 0 0 0 0 0 0 0 0 0 0 0 0 0 0 0 0 0 0 0 0 0 0 0 0 0 0 0 0 0 0 0 0 0 0 0 0 0 0 0 0 0 0 0 0 0 0 0 0 0 0 0 0 0 0 0 0 0 0 0 0 0 0 0 0 0 0 0 0 0 0 0 0 0 0 0 0 0 0 0 0 0 0 0 0 0 0 0 0 0 0 0 0 0 0 0 0 0 0 0 0 0 0 0 0 0 0 0 0 0 0 0 0 0 0 0 0 0 0 0 0 0 0 0 0 0 0 0 0 0 0 0 0 0 0 0 0 0 0 0 0 0 0 0 0 0 0 0 0 0 0 0 0 0 0 0 0 0 0 0
				</DataArray>
			</PointData>
			<CellData Scalars="Density">
				<DataArray Name="Density" type="Float32" format="ascii">