<?xml version="1.0"?>
<VTKFile type="PolyData">
	<PolyData>
		<Piece NumberOfPoints="1206" NumberOfPolys="1000">
			<Points>
				<DataArray type="Float32" NumberOfComponents="3" format="ascii">
 0 0 0 0.005 0 0 0.01 0 0 0.015 0 0 0.02 0 0 0.025 0 0 0.03 0 0 0.035 0 0 0.04 0 0 0.045 0 0 0.05 0 0 0.055 0 0 0.06 0 0 0.065 0 0 0.07 0 0 0.075 0 0 0.08 0 0 0.085 0 0 0.09 0 0 0.095 0 0 0.1 0 0 0.105 0 0 0.11 0 0 0.115 0 0 0.12 0 0 0.125 0 0 0.13 0 0 0.135 0 0 0.14 0 0 0.145 0 0 0.15 0 0 0.155 0 0 0.16 0 0 0.165 0 0 0.17 0 0 0.175 0 0 0.18 0 0 0.185 0 0 0.19 0 0 0.195 0 0 0.2 0 0 0.205 0 0 0.21 0 0 0.215 0 0 0.22 0 0 0.225 0 0 0.23 0 0 0.235 0 0 0.24 0 0 0.245 0 0 0.25 0 0 0.255 0 0 0.26 0 0 0.265 0 0 0.27 0 0 0.275 0 0 0.28 0 0 0.285 0 0 0.29 0 0 0.295 0 0 0.3 0 0 0.305 0 0 0.31 0 0 0.315 0 0 0.32 0 0 0.325 0 0 0.33 0 0 0.335 0 0 0.34 0 0 0.345 0 0 0.35 0 0 0.355 0 0 0.36 0 0 0.365 0 0 0.37 0 0 0.375 0 0 0.38 0 0 0.385 0 0 0.39 0 0 0.395 0 0 0.4 0 0 0.405001 0 0 0.410003 0 0 0.415014 0 0 0.42005 0 0 0.425151 0 0 0.430381 0 0 0.43582 0 0 0.441545 0 0 0.447629 0 0 0.454148 0 0 0.461187 0 0 0.468851 0 0 0.477273 0 0 0.486625 0 0 0.497101 0 0 0.50881 0 0 0.521238 0 0 0.533405 0 0 0.545323 0 0 0.557139 0 0 0.559761 0 0 0.562309 0 0 0.56481 0 0 0.567281 0 0 0.569729 0 0 0.57216 0 0 0.574582 0 0 0.577003 0 0 0.579426 0 0 0.581835 0 0 0.584236 0 0 0.586633 0 0 0.589031 0 0 0.591433 0 0 0.593845 0 0 0.596264 0 0 0.598743 0 0 0.601312 0 0 0.603997 0 0 0.606856 0 0 0.609939 0 0 0.613317 0 0 0.617036 0 0 0.621119 0 0 0.625539 0 0 0.630226 0 0 0.635084 0 0 0.640029 0 0 0.645009 0 0 0.650003 0 0 0.655001 0 0 0.66 0 0 0.665 0 0 0.67 0 0 0.675 0 0 0.68 0 0 0.685 0 0 0.69 0 0 0.695 0 0 0.7 0 0 0.705 0 0 0.71 0 0 0.715 0 0 0.72 0 0 0.725 0 0 0.73 0 0 0.735 0 0 0.74 0 0 0.745 0 0 0.75 0 0 0.755 0 0 0.76 0 0 0.765 0 0 0.77 0 0 0.775 0 0 0.78 0 0 0.785 0 0 0.79 0 0 0.795 0 0 0.8 0 0 0.805 0 0 0.81 0 0 0.815 0 0 0.82 0 0 0.825 0 0 0.83 0 0 0.835 0 0 0.84 0 0 0.845 0 0 0.85 0 0 0.855 0 0 0.86 0 0 0.865 0 0 0.87 0 0 0.875 0 0 0.88 0 0 0.885 0 0 0.89 0 0 0.895 0 0 0.9 0 0 0.905 0 0 0.91 0 0 0.915 0 0 0.92 0 0 0.925 0 0 0.93 0 0 0.935 0 0 0.94 0 0 0.945 0 0 0.95 0 0 0.955 0 0 0.96 0 0 0.965 0 0 0.97 0 0 0.975 0 0 0.98 0 0 0.985 0 0 0.99 0 0 0.995 0 0 1 0 0 0 0.02 0 0.005 0.02 0 0.01 0.02 0 0.015 0.02 0 0.02 0.02 0 0.025 0.02 0 0.03 0.02 0 0.035 0.02 0 0.04 0.02 0 0.045 0.02 0 0.05 0.02 0 0.055 0.02 0 0.06 0.02 0 0.065 0.02 0 0.07 0.02 0 0.075 0.02 0 0.08 0.02 0 0.085 0.02 0 0.09 0.02 0 0.095 0.02 0 0.1 0.02 0 0.105 0.02 0 0.11 0.02 0 0.115 0.02 0 0.12 0.02 0 0.125 0.02 0 0.13 0.02 0 0.135 0.02 0 0.14 0.02 0 0.145 0.02 0 0.15 0.02 0 0.155 0.02 0 0.16 0.02 0 0.165 0.02 0 0.17 0.02 0 0.175 0.02 0 0.18 0.02 0 0.185 0.02 0 0.19 0.02 0 0.195 0.02 0 0.2 0.02 0 0.205 0.02 0 0.21 0.02 0 0.215 0.02 0 0.22 0.02 0 0.225 0.02 0 0.23 0.02 0 0.235 0.02 0 0.24 0.02 0 0.245 0.02 0 0.25 0.02 0 0.255 0.02 0 0.26 0.02 0 0.265 0.02 0 0.27 0.02 0 0.275 0.02 0 0.28 0.02 0 0.285 0.02 0 0.29 0.02 0 0.295 0.02 0 0.3 0.02 0 0.305 0.02 0 0.31 0.02 0 0.315 0.02 0 0.32 0.02 0 0.325 0.02 0 0.33 0.02 0 0.335 0.02 0 0.34 0.02 0 0.345 0.02 0 0.35 0.02 0 0.355 0.02 0 0.36 0.02 0 0.365 0.02 0 0.37 0.02 0 0.375 0.02 0 0.38 0.02 0 0.385 0.02 0 0.39 0.02 0 0.395 0.02 0 0.4 0.02 0 0.405001 0.02 0 0.410003 0.02 0 0.415014 0.02 0 0.42005 0.02 0 0.425151 0.02 0 0.430381 0.02 0 0.43582 0.02 0 0.441545 0.02 0 0.447629 0.02 0 0.454148 0.02 0 0.461187 0.02 0 0.468851 0.02 0 0.477273 0.02 0 0.486625 0.02 0 0.497101 0.02 0 0.50881 0.02 0 0.521238 0.02 0 0.533405 0.02 0 0.545323 0.02 0 0.557139 0.02 0 0.559761 0.02 0 0.562309 0.02 0 0.56481 0.02 0 0.567281 0.02 0 0.569729 0.02 0 0.57216 0.02 0 0.574582 0.02 0 0.577003 0.02 0 0.579426 0.02 0 0.581835 0.02 0 0.584236 0.02 0 0.586633 0.02 0 0.589031 0.02 0 0.591433 0.02 0 0.593845 0.02 0 0.596264 0.02 0 0.598743 0.02 0 0.601312 0.02 0 0.603997 0.02 0 0.606856 0.02 0 0.609939 0.02 0 0.613317 0.02 0 0.617036 0.02 0 0.621119 0.02 0 0.625539 0.02 0 0.630226 0.02 0 0.635084 0.02 0 0.640029 0.02 0 0.645009 0.02 0 0.650003 0.02 0 0.655001 0.02 0 0.66 0.02 0 0.665 0.02 0 0.67 0.02 0 0.675 0.02 0 0.68 0.02 0 0.685 0.02 0 0.69 0.02 0 0.695 0.02 0 0.7 0.02 0 0.705 0.02 0 0.71 0.02 0 0.715 0.02 0 0.72 0.02 0 0.725 0.02 0 0.73 0.02 0 0.735 0.02 0 0.74 0.02 0 0.745 0.02 0 0.75 0.02 0 0.755 0.02 0 0.76 0.02 0 0.765 0.02 0 0.77 0.02 0 0.775 0.02 0 0.78 0.02 0 0.785 0.02 0 0.79 0.02 0 0.795 0.02 0 0.8 0.02 0 0.805 0.02 0 0.81 0.02 0 0.815 0.02 0 0.82 0.02 0 0.825 0.02 0 0.83 0.02 0 0.835 0.02 0 0.84 0.02 0 0.845 0.02 0 0.85 0.02 0 0.855 0.02 0 0.86 0.02 0 0.865 0.02 0 0.87 0.02 0 0.875 0.02 0 0.88 0.02 0 0.885 0.02 0 0.89 0.02 0 0.895 0.02 0 0.9 0.02 0 0.905 0.02 0 0.91 0.02 0 0.915 0.02 0 0.92 0.02 0 0.925 0.02 0 0.93 0.02 0 0.935 0.02 0 0.94 0.02 0 0.945 0.02 0 0.95 0.02 0 0.955 0.02 0 0.96 0.02 0 0.965 0.02 0 0.97 0.02 0 0.975 0.02 0 0.98 0.02 0 0.985 0.02 0 0.99 0.02 0 0.995 0.02 0 1 0.02 0 0 0.04 0 0.005 0.04 0 0.01 0.04 0 0.015 0.04 0 0.02 0.04 0 0.025 0.04 0 0.03 0.04 0 0.035 0.04 0 0.04 0.04 0 0.045 0.04 0 0.05 0.04 0 0.055 0.04 0 0.06 0.04 0 0.065 0.04 0 0.07 0.04 0 0.075 0.04 0 0.08 0.04 0 0.085 0.04 0 0.09 0.04 0 0.095 0.04 0 0.1 0.04 0 0.105 0.04 0 0.11 0.04 0 0.115 0.04 0 0.12 0.04 0 0.125 0.04 0 0.13 0.04 0 0.135 0.04 0 0.14 0.04 0 0.145 0.04 0 0.15 0.04 0 0.155 0.04 0 0.16 0.04 0 0.165 0.04 0 0.17 0.04 0 0.175 0.04 0 0.18 0.04 0 0.185 0.04 0 0.19 0.04 0 0.195 0.04 0 0.2 0.04 0 0.205 0.04 0 0.21 0.04 0 0.215 0.04 0 0.22 0.04 0 0.225 0.04 0 0.23 0.04 0 0.235 0.04 0 0.24 0.04 0 0.245 0.04 0 0.25 0.04 0 0.255 0.04 0 0.26 0.04 0 0.265 0.04 0 0.27 0.04 0 0.275 0.04 0 0.28 0.04 0 0.285 0.04 0 0.29 0.04 0 0.295 0.04 0 0.3 0.04 0 0.305 0.04 0 0.31 0.04 0 0.315 0.04 0 0.32 0.04 0 0.325 0.04 0 0.33 0.04 0 0.335 0.04 0 0.34 0.04 0 0.345 0.04 0 0.35 0.04 0 0.355 0.04 0 0.36 0.04 0 0.365 0.04 0 0.37 0.04 0 0.375 0.04 0 0.38 0.04 0 0.385 0.04 0 0.39 0.04 0 0.395 0.04 0 0.4 0.04 0 0.405001 0.04 0 0.410003 0.04 0 0.415014 0.04 0 0.42005 0.04 0 0.425151 0.04 0 0.430381 0.04 0 0.43582 0.04 0 0.441545 0.04 0 0.447629 0.04 0 0.454148 0.04 0 0.461187 0.04 0 0.468851 0.04 0 0.477273 0.04 0 0.486625 0.04 0 0.497101 0.04 0 0.50881 0.04 0 0.521238 0.04 0 0.533405 0.04 0 0.545323 0.04 0 0.557139 0.04 0 0.559761 0.04 0 0.562309 0.04 0 0.56481 0.04 0 0.567281 0.04 0 0.569729 0.04 0 0.57216 0.04 0 0.574582 0.04 0 0.577003 0.04 0 0.579426 0.04 0 0.581835 0.04 0 0.584236 0.04 0 0.586633 0.04 0 0.589031 0.04 0 0.591433 0.04 0 0.593845 0.04 0 0.596264 0.04 0 0.598743 0.04 0 0.601312 0.04 0 0.603997 0.04 0 0.606856 0.04 0 0.609939 0.04 0 0.613317 0.04 0 0.617036 0.04 0 0.621119 0.04 0 0.625539 0.04 0 0.630226 0.04 0 0.635084 0.04 0 0.640029 0.04 0 0.645009 0.04 0 0.650003 0.04 0 0.655001 0.04 0 0.66 0.04 0 0.665 0.04 0 0.67 0.04 0 0.675 0.04 0 0.68 0.04 0 0.685 0.04 0 0.69 0.04 0 0.695 0.04 0 0.7 0.04 0 0.705 0.04 0 0.71 0.04 0 0.715 0.04 0 0.72 0.04 0 0.725 0.04 0 0.73 0.04 0 0.735 0.04 0 0.74 0.04 0 0.745 0.04 0 0.75 0.04 0 0.755 0.04 0 0.76 0.04 0 0.765 0.04 0 0.77 0.04 0 0.775 0.04 0 0.78 0.04 0 0.785 0.04 0 0.79 0.04 0 0.795 0.04 0 0.8 0.04 0 0.805 0.04 0 0.81 0.04 0 0.815 0.04 0 0.82 0.04 0 0.825 0.04 0 0.83 0.04 0 0.835 0.04 0 0.84 0.04 0 0.845 0.04 0 0.85 0.04 0 0.855 0.04 0 0.86 0.04 0 0.865 0.04 0 0.87 0.04 0 0.875 0.04 0 0.88 0.04 0 0.885 0.04 0 0.89 0.04 0 0.895 0.04 0 0.9 0.04 0 0.905 0.04 0 0.91 0.04 0 0.915 0.04 0 0.92 0.04 0 0.925 0.04 0 0.93 0.04 0 0.935 0.04 0 0.94 0.04 0 0.945 0.04 0 0.95 0.04 0 0.955 0.04 0 0.96 0.04 0 0.965 0.04 0 0.97 0.04 0 0.975 0.04 0 0.98 0.04 0 0.985 0.04 0 0.99 0.04 0 0.995 0.04 0 1 0.04 0 0 0.06 0 0.005 0.06 0 0.01 0.06 0 0.015 0.06 0 0.02 0.06 0 0.025 0.06 0 0.03 0.06 0 0.035 0.06 0 0.04 0.06 0 0.045 0.06 0 0.05 0.06 0 0.055 0.06 0 0.06 0.06 0 0.065 0.06 0 0.07 0.06 0 0.075 0.06 0 0.08 0.06 0 0.085 0.06 0 0.09 0.06 0 0.095 0.06 0 0.1 0.06 0 0.105 0.06 0 0.11 0.06 0 0.115 0.06 0 0.12 0.06 0 0.125 0.06 0 0.13 0.06 0 0.135 0.06 0 0.14 0.06 0 0.145 0.06 0 0.15 0.06 0 0.155 0.06 0 0.16 0.06 0 0.165 0.06 0 0.17 0.06 0 0.175 0.06 0 0.18 0.06 0 0.185 0.06 0 0.19 0.06 0 0.195 0.06 0 0.2 0.06 0 0.205 0.06 0 0.21 0.06 0 0.215 0.06 0 0.22 0.06 0 0.225 0.06 0 0.23 0.06 0 0.235 0.06 0 0.24 0.06 0 0.245 0.06 0 0.25 0.06 0 0.255 0.06 0 0.26 0.06 0 0.265 0.06 0 0.27 0.06 0 0.275 0.06 0 0.28 0.06 0 0.285 0.06 0 0.29 0.06 0 0.295 0.06 0 0.3 0.06 0 0.305 0.06 0 0.31 0.06 0 0.315 0.06 0 0.32 0.06 0 0.325 0.06 0 0.33 0.06 0 0.335 0.06 0 0.34 0.06 0 0.345 0.06 0 0.35 0.06 0 0.355 0.06 0 0.36 0.06 0 0.365 0.06 0 0.37 0.06 0 0.375 0.06 0 0.38 0.06 0 0.385 0.06 0 0.39 0.06 0 0.395 0.06 0 0.4 0.06 0 0.405001 0.06 0 0.410003 0.06 0 0.415014 0.06 0 0.42005 0.06 0 0.425151 0.06 0 0.430381 0.06 0 0.43582 0.06 0 0.441545 0.06 0 0.447629 0.06 0 0.454148 0.06 0 0.461187 0.06 0 0.468851 0.06 0 0.477273 0.06 0 0.486625 0.06 0 0.497101 0.06 0 0.50881 0.06 0 0.521238 0.06 0 0.533405 0.06 0 0.545323 0.06 0 0.557139 0.06 0 0.559761 0.06 0 0.562309 0.06 0 0.56481 0.06 0 0.567281 0.06 0 0.569729 0.06 0 0.57216 0.06 0 0.574582 0.06 0 0.577003 0.06 0 0.579426 0.06 0 0.581835 0.06 0 0.584236 0.06 0 0.586633 0.06 0 0.589031 0.06 0 0.591433 0.06 0 0.593845 0.06 0 0.596264 0.06 0 0.598743 0.06 0 0.601312 0.06 0 0.603997 0.06 0 0.606856 0.06 0 0.609939 0.06 0 0.613317 0.06 0 0.617036 0.06 0 0.621119 0.06 0 0.625539 0.06 0 0.630226 0.06 0 0.635084 0.06 0 0.640029 0.06 0 0.645009 0.06 0 0.650003 0.06 0 0.655001 0.06 0 0.66 0.06 0 0.665 0.06 0 0.67 0.06 0 0.675 0.06 0 0.68 0.06 0 0.685 0.06 0 0.69 0.06 0 0.695 0.06 0 0.7 0.06 0 0.705 0.06 0 0.71 0.06 0 0.715 0.06 0 0.72 0.06 0 0.725 0.06 0 0.73 0.06 0 0.735 0.06 0 0.74 0.06 0 0.745 0.06 0 0.75 0.06 0 0.755 0.06 0 0.76 0.06 0 0.765 0.06 0 0.77 0.06 0 0.775 0.06 0 0.78 0.06 0 0.785 0.06 0 0.79 0.06 0 0.795 0.06 0 0.8 0.06 0 0.805 0.06 0 0.81 0.06 0 0.815 0.06 0 0.82 0.06 0 0.825 0.06 0 0.83 0.06 0 0.835 0.06 0 0.84 0.06 0 0.845 0.06 0 0.85 0.06 0 0.855 0.06 0 0.86 0.06 0 0.865 0.06 0 0.87 0.06 0 0.875 0.06 0 0.88 0.06 0 0.885 0.06 0 0.8
[...]
			<PointData Scalars="VitesseX">
				<DataArray Name="VitesseX" type="Float32" format="ascii">
 0 0 0 0 0 0 0 0 0 0 0 0 0 0 0 0 0 0 0 0 0 0 0 0 0 0 0 0 0 0 0 0 0 0 0 0 0 0 0 0 0 0 0 0 0 0 0 0 0 0 0 0 0 0 0 0 0 0 0 0 0 0 0 0 0 0 0 0 0 0 0 0 0 0 0 0 0 0 0 0 0 0 0 0 0 0 0 0 0 0 0 0 0 0 0 0 0 0 0 0 0 0 0 0 0 0 0 0 0 0 0 0 0 0 0 0 0 0 0 0 0 0 0 0 0 0 0 0 0 0 0 0 0 0 0 0 0 0 0 0 0 0 0 0 0 0 0 0 0 0 0 0 0 0 0 0 0 0 0 0 0 0 0 0 0 0 0 0 0 0 0 0 0 0 0 0 0 0 0 0 0 0 0 0 0 0 0 0 0 0 0 0 0 0 0 0 0 0 0 0 0 0 -5.97654e-16 1.94885e-16 -9.62719e-16 1.96958e-16 -2.04139e-15 1.17061e-15 1.091e-15 3.43211e-15 1.29108e-15 -8.39394e-16 1.03425e-15 5.03379e-15 -3.81497e-15 -7.84776e-15 4.97583e-15 1.15762e-14 5.76493e-16 -9.96508e-15 1.04472e-14 3.79321e-15 3.27471e-15 -1.07287e-14 7.72968e-15 3.80692e-15 4.76567e-15 -1.49805e-14 1.27439e-14 -1.34031e-14 9.32461e-16 -5.8916e-16 1.03892e-14 -2.11715e-14 2.48928e-14 6.98096e-15 1.28103e-14 -4.98754e-15 -2.42242e-14 1.10839e-14 -6.77579e-15 8.48482e-15 -1.99082e-14 1.37074e-14 9.96716e-15 1.06609e-15 -2.51661e-14 -8.76015e-15 1.59167e-14 9.43275e-15 -1.26293e-14 4.87072e-14 -5.12472e-15 -3.52441e-14 3.70104e-14 2.78465e-14 -3.60378e-14 4.23669e-14 5.2074e-15 -9.72122e-15 4.44565e-14 -1.71892e-14 2.1267e-14 1.10517e-14 -3.21254e-14 2.18614e-14 6.14576e-15 -2.95934e-15 1.51302e-14 1.50337e-14 9.53827e-15 -4.77177e-14 1.50547e-13 1.06462e-12 1.35927e-11 1.63878e-10 1.78841e-09 1.76481e-08 1.56538e-07 1.23902e-06 8.67579e-06 5.31763e-05 0.000281572 0.00126712 0.00475368 0.0145912 0.0362877 0.0738212 0.126746 0.191664 0.265579 0.347178 0.436372 0.533656 0.639593 0.753807 0.871301 0.967276 0.969065 0.944221 0.931637 0.928823 0.928407 0.927916 0.927307 0.926552 0.925751 0.925057 0.924572 0.92434 0.924299 0.924245 0.924129 0.923954 0.923526 0.919284 0.911358 0.897759 0.865609 0.840864 0.790727 0.718704 0.628462 0.51739 0.390883 0.264518 0.154835 0.0764401 0.0319051 0.0117286 0.00399238 0.00129797 0.000408324 0.000124811 3.70986e-05 1.07209e-05 3.0108e-06 8.2139e-07 2.17621e-07 5.59808e-08 1.39797e-08 3.38865e-09 7.97232e-10 1.82011e-10 4.04258e-11 8.66745e-12 1.86247e-12 2.83426e-13 7.69685e-14 9.07869e-14 -7.12389e-14 6.30704e-14 -6.63384e-14 5.16593e-14 2.66845e-14 5.46734e-14 -1.25317e-14 -1.01482e-14 1.39772e-13 -2.02783e-14 9.55232e-14 -4.9978e-15 -3.50858e-14 -1.27485e-14 -1.33137e-13 5.88965e-14 5.49906e-14 -4.849e-14 -8.23057e-15 1.1117e-14 6.76456e-14 -1.30109e-13 2.0469e-14 -1.6216e-14 -1.97128e-14 -3.79623e-14 -1.05765e-14 5.18408e-14 -2.74372e-14 -5.16289e-14 -6.63105e-16 -4.10699e-14 -3.52556e-14 -3.11219e-14 -4.16796e-15 -6.02782e-14 -3.09697e-14 1.35553e-14 -1.02649e-13 5.56144e-14 -6.27669e-14 -3.67286e-14 5.25322e-14 -5.10783e-14 1.08921e-14 1.8506e-14 -5.0133e-14 -7.05557e-14 -6.98094e-15 3.84857e-14 -6.85378e-14 0 0 -3.44408e-17 1.01668e-15 1.61132e-15 8.14835e-16 -3.52449e-15 1.29294e-15 4.04679e-15 -1.25463e-15 -5.87845e-15 6.39064e-15 7.34243e-15 3.40894e-15 -4.434e-15 -1.76557e-17 -4.56152e-16 9.99523e-15 9.88757e-15 -3.10478e-15 1.45211e-15 -1.38657e-16 -4.39649e-15 5.92801e-15 6.75151e-15 1.17869e-14 -1.13403e-14 -2.86738e-14 1.66166e-14 1.03977e-14 -1.61151e-14 1.19594e-14 1.37221e-14 -5.10574e-15 -1.02852e-14 2.04108e-14 1.0124e-14 -1.89228e-14 5.14635e-15 -1.66281e-14 1.52414e-14 5.97762e-15 -2.03467e-14 1.40979e-14 -1.12547e-16 1.64336e-14 -3.74816e-16 2.0295e-14 -1.81941e-14 -2.98526e-14 -3.68314e-15 4.41633e-14 3.72013e-14 -5.14228e-14 9.43276e-15 4.85552e-15 -2.09737e-14 2.82157e-15 4.86999e-14 3.08866e-16 1.61686e-14 -2.45814e-14 4.24713e-14 3.11148e-16 -9.4975e-15 5.77691e-14 1.76428e-14 2.38309e-14 -5.96288e-15 -4.00866e-14 1.47479e-14 2.3645e-14 1.32253e-13 1.02371e-12 1.36434e-11 1.63835e-10 1.78832e-09 1.76482e-08 1.56538e-07 1.23902e-06 8.67579e-06 5.31763e-05 0.000281572 0.00126712 0.00475368 0.0145912 0.0362877 0.0738212 0.126746 0.191664 0.265579 0.347178 0.436372 0.533656 0.639593 0.753807 0.871301 0.967276 0.969065 0.944221 0.931637 0.928823 0.928407 0.927916 0.927307 0.926552 0.925751 0.925057 0.924572 0.92434 0.924299 0.924245 0.924129 0.923954 0.923526 0.919284 0.911358 0.897759 0.865609 0.840864 0.790727 0.718704 0.628462 0.51739 0.390883 0.264518 0.154835 0.0764401 0.0319051 0.0117286 0.00399238 0.00129797 0.000408324 0.000124811 3.70986e-05 1.07209e-05 3.0108e-06 8.2139e-07 2.17621e-07 5.59808e-08 1.39797e-08 3.38863e-09 7.97286e-10 1.82037e-10 4.0415e-11 8.67665e-12 1.86925e-12 3.92239e-13 6.06228e-14 -9.34481e-15 -1.58269e-14 9.90264e-14 -8.05682e-14 -8.19677e-15 4.0842e-14 -9.5541e-15 1.54416e-14 -2.87611e-14 1.1145e-13 -2.84992e-14 3.18246e-14 8.64514e-14 2.06041e-14 1.12374e-13 -2.47222e-13 1.35115e-13 -4.56789e-15 -4.33589e-14 -3.07377e-14 2.59001e-14 3.83486e-14 -7.60951e-14 -1.11145e-13 3.65499e-14 -4.27019e-14 -7.32741e-14 8.23978e-14 3.21428e-14 -5.42012e-14 -1.41185e-15 1.78671e-15 5.3494e-15 4.36513e-14 -4.48488e-14 -4.20296e-14 -1.25553e-13 -1.43753e-13 8.34687e-14 -9.23617e-14 1.03454e-13 -1.12268e-13 5.46794e-14 -7.64635e-14 6.09783e-15 -1.04709e-13 4.65816e-14 5.31674e-15 -6.13178e-15 -9.08146e-14 -4.15961e-15 9.23143e-14 0 0 1.35074e-15 4.16299e-15 -1.14444e-16 8.25349e-16 -3.28469e-15 2.54271e-15 5.30374e-18 -5.71961e-15 -3.57648e-16 7.84937e-15 2.51675e-15 3.89467e-16 2.03164e-15 -1.5708e-15 -5.11298e-16 9.29254e-15 2.47165e-15 -1.47122e-15 9.99093e-15 -3.69708e-15 -3.14316e-16 2.6986e-14 -1.3205e-14 2.30469e-14 -2.51236e-14 -2.29645e-14 -2.55908e-15 6.33682e-14 -3.79653e-14 8.55315e-15 8.48942e-15 2.86696e-16 -2.48508e-14 3.02382e-14 -1.15515e-14 1.09711e-14 -8.40182e-15 -1.18204e-14 -4.33376e-15 2.95377e-15 7.52641e-15 1.20757e-14 3.24005e-15 1.92349e-14 -1.77817e-14 4.21262e-14 -2.76434e-14 -2.73049e-14 1.92434e-14 1.7165e-14 1.32299e-14 2.52373e-14 -4.74479e-14 1.98618e-14 4.95062e-14 -3.92085e-14 -1.72887e-14 3.31783e-14 -3.38019e-14 1.76145e-14 4.07038e-14 -5.11436e-14 1.12241e-13 4.18652e-14 2.50976e-14 4.33406e-14 -3.18303e-14 5.56159e-14 4.51273e-16 6.18089e-14 5.14325e-14 9.63868e-13 1.36065e-11 1.6394e-10 1.78829e-09 1.76481e-08 1.56538e-07 1.23902e-06 8.67579e-06 5.31763e-05 0.000281572 0.00126712 0.00475368 0.0145912 0.0362877 0.0738212 0.126746 0.191664 0.265579 0.347178 0.436372 0.533656 0.639593 0.753807 0.871301 0.967276 0.969065 0.944221 0.931637 0.928823 0.928407 0.927916 0.927307 0.926552 0.925751 0.925057 0.924572 0.92434 0.924299 0.924245 0.924129 0.923954 0.923526 0.919284 0.911358 0.897759 0.865609 0.840864 0.790727 0.718704 0.628462 0.51739 0.390883 0.264518 0.154835 0.0764401 0.0319051 0.0117286 0.00399238 0.00129797 0.000408324 0.000124811 3.70986e-05 1.07209e-05 3.0108e-06 8.2139e-07 2.17621e-07 5.59808e-08 1.39797e-08 3.38866e-09 7.9724e-10 1.8214e-10 4.03739e-11 8.85628e-12 1.79445e-12 4.32073e-13 3.20284e-14 -1.5292e-13 8.02255e-14 1.03077e-13 -9.37062e-14 -3.05385e-14 3.43809e-14 -6.02291e-14 8.51374e-14 3.80716e-15 -2.33044e-14 2.46414e-14 -4.17331e-15 9.99019e-14 1.16967e-13 5.46121e-14 -1.0081e-13 1.61739e-13 -5.12535e-15 -1.07456e-15 -1.3858e-13 5.80185e-14 -1.92511e-13 3.92563e-14 -1.54895e-13 9.71717e-14 -1.93732e-13 -6.01028e-14 1.57504e-13 -7.24401e-14 -3.0217e-14 7.51986e-14 -6.50164e-14 1.13301e-13 -8.43755e-14 3.03239e-14 -1.02035e-13 -2.59346e-14 -1.10627e-13 1.90639e-13 9.32073e-15 -1.72318e-13 -5.78086e-14 -4.59535e-14 -8.5503e-14 5.39084e-14 -4.25869e-14 -3.50639e-14 1.15989e-14 2.20662e-14 1.67879e-13 -1.85202e-13 -5.29544e-15 0 0 1.1809e-15 5.33763e-15 -3.82707e-16 -2.02346e-15 -1.08907e-15 1.48533e-15 -3.34183e-15 2.16774e-15 1.07904e-15 2.00556e-15 6.22914e-15 5.0706e-15 4.0297e-15 2.28943e-15 6.53864e-15 -3.40377e-15 -8.66604e-15 -5.27809e-15 9.25276e-15 -4.03058e-15 2.74899e-14 -3.34201e-15 -1.65969e-14 2.04166e-14 -8.41129e-15 5.94029e-15 -5.22875e-15 4.17361e-14 -1.59352e-14 -1.62973e-14 8.53554e-15 -3.04751e-14 8.87464e-17 1.3303e-14 7.08745e-16 2.60339e-14 -3.68472e-14 2.04374e-14 -1.3365e-14 1.1336e-15 4.72415e-15 3.46045e-14 -7.09992e-15 4.83826e-15 -9.02106e-15 7.14121e-16 7.4457e-15 9.74816e-15 1.44053e-14 1.15584e-14 1.31275e-15 -8.52873e-15 1.47414e-14 -5.471e-15 -1.53635e-15 6.09283e-14 -4.20799e-14 9.059e-15 -8.51921e-15 -3.04226e-14 4.65154e-14 3.32181e-15 5.659e-14 9.09652e-14 8.44066e-15 1.39553e-14 5.88719e-14 5.66692e-14 -4.00188e-14 -1.33659e-15 1.6565e-13 1.00839e-12 1.34895e-11 1.64119e-10 1.78826e-09 1.76479e-08 1.56538e-07 1.23902e-06 8.67579e-06 5.31763e-05 0.000281572 0.00126712 0.00475368 0.0145912 0.0362877 0.0738212 0.126746 0.191664 0.265579 0.347178 0.436372 0.533656 0.639593 0.753807 0.871301 0.967276 0.969065 0.944221 0.931637 0.928823 0.928407 0.927916 0.927307 0.926552 0.925751 0.925057 0.924572 0.92434 0.924299 0.924245 0.924129 0.923954 0.923526 0.919284 0.911358 0.897759 0.865609 0.840864 0.790727 0.718704 0.628462 0.51739 0.390883 0.264518 0.154835 0.0764401 0.0319051 0.0117286 0.00399238 0.00129797 0.000408324 0.000124811 3.70986e-05 1.07209e-05 3.0108e-06 8.2139e-07 2.17621e-07 5.59809e-08 1.39797e-08 3.38869e-09 7.97201e-10 1.82128e-10 4.04007e-11 8.85535e-12 1.9334e-12 2.68302e-13 6.48687e-15 -1.81684e-13 -1.81077e-15 1.06616e-13 -1.26579e-14 -1.00664e-14 5.55667e-14 -9.09945e-14 6.26315e-14 4.10371e-14 -2.89333e-14 1.59999e-14 3.72068e-14 8.045e-14 9.67797e-14 -1.16101e-13 6.35881e-14 1.15247e-13 8.82744e-14 1.57017e-14 -2.66479e-13 5.85929e-14 -1.96662e-14 -1.68221e-13 -1.12889e-13 1.30663e-13 -1.63905e-13 3.20884e-15 1.02805e-14 1.36736e-14 -7.36836e-14 4.4589e-14 6.88764e-14 -7.35102e-14 -7.01717e-14 9.49367e-14 -1.85021e-14 1.65568e-14 2.13739e-15 1.43698e-13 -1.01426e-13 -1.60166e-13 -9.93457e-14 -8.59345e-14 1.19709e-14 -1.10278e-13 1.10934e-13 -2.30532e-14 -3.91711e-14 6.7432e-15 2.36814e-13 -2.49704e-13 -6.97216e-14 0 0 0 0 0 0 0 0 0 0 0 0 0 0 0 0 0 0 0 0 0 0 0 0 0 0 0 0 0 0 0 0 0 0 0 0 0 0 0 0 0 0 0 0 0 0 0 0 0 0 0 0 0 0 0 0 0 0 0 0 0 0 0 0 0 0 0 0 0 0 0 0 0 0 0 0 0 0 0 0 0 0 0 0 0 0 0 0 0 0 0 0 0 0 0 0 0 0 0 0 0 0 0 0 0 0 0 0 0 0 0 0 0 0 0 0 0 0 0 0 0 0 0 0 0 0 0 0 0 0 0 0 0 0 0 0 0 0 0 0 0 0 0 0 0 0 0 0 0 0 0 0 0 0 0 0 0 0 0 0 0 0 0 0 0 0 0 0 0 0 0 0 0 0 0 0 0 0 0 0 0 0 0 0 0 0 0 0 0 0 0 0 0 0 0 0 0 0 0 0 0 0
				</DataArray>
				<DataArray Name="VitesseY" type="Float32" format="ascii">