<?xml version="1.0"?>
<VTKFile type="PolyData">
	<PolyData>
		<Piece NumberOfPoints="1206" NumberOfPolys="1000">
			<Points>
				<DataArray type="Float32" NumberOfComponents="3" format="ascii">
 0 0 0 0.02 0 0 0.04 0 0 0.06 0 0 0.08 0 0 0.1 0 0 0 0.005 0 0.02 0.005 0 0.04 0.005 0 0.06 0.005 0 0.08 0.005 0 0.1 0.005 0 0 0.01 0 0.02 0.01 0 0.04 0.01 0 0.06 0.01 0 0.08 0.01 0 0.1 0.01 0 0 0.015 0 0.02 0.015 0 0.04 0.015 0 0.06 0.015 0 0.08 0.015 0 0.1 0.015 0 0 0.02 0 0.02 0.02 0 0.04 0.02 0 0.06 0.02 0 0.08 0.02 0 0.1 0.02 0 0 0.025 0 0.02 0.025 0 0.04 0.025 0 0.06 0.025 0 0.08 0.025 0 0.1 0.025 0 0 0.03 0 0.02 0.03 0 0.04 0.03 0 0.06 0.03 0 0.08 0.03 0 0.1 0.03 0 0 0.035 0 0.02 0.035 0 0.04 0.035 0 0.06 0.035 0 0.08 0.035 0 0.1 0.035 0 0 0.04 0 0.02 0.04 0 0.04 0.04 0 0.06 0.04 0 0.08 0.04 0 0.1 0.04 0 0 0.045 0 0.02 0.045 0 0.04 0.045 0 0.06 0.045 0 0.08 0.045 0 0.1 0.045 0 0 0.05 0 0.02 0.05 0 0.04 0.05 0 0.06 0.05 0 0.08 0.05 0 0.1 0.05 0 0 0.055 0 0.02 0.055 0 0.04 0.055 0 0.06 0.055 0 0.08 0.055 0 0.1 0.055 0 0 0.06 0 0.02 0.06 0 0.04 0.06 0 0.06 0.06 0 0.08 0.06 0 0.1 0.06 0 0 0.065 0 0.02 0.065 0 0.04 0.065 0 0.06 0.065 0 0.08 0.065 0 0.1 0.065 0 0 0.07 0 0.02 0.07 0 0.04 0.07 0 0.06 0.07 0 0.08 0.07 0 0.1 0.07 0 0 0.075 0 0.02 0.075 0 0.04 0.075 0 0.06 0.075 0 0.08 0.075 0 0.1 0.075 0 0 0.08 0 0.02 0.08 0 0.04 0.08 0 0.06 0.08 0 0.08 0.08 0 0.1 0.08 0 0 0.085 0 0.02 0.085 0 0.04 0.085 0 0.06 0.085 0 0.08 0.085 0 0.1 0.085 0 0 0.09 0 0.02 0.09 0 0.04 0.09 0 0.06 0.09 0 0.08 0.09 0 0.1 0.09 0 0 0.095 0 0.02 0.095 0 0.04 0.095 0 0.06 0.095 0 0.08 0.095 0 0.1 0.095 0 0 0.1 0 0.02 0.1 0 0.04 0.1 0 0.06 0.1 0 0.08 0.1 0 0.1 0.1 0 0 0.105 0 0.02 0.105 0 0.04 0.105 0 0.06 0.105 0 0.08 0.105 0 0.1 0.105 0 0 0.11 0 0.02 0.11 0 0.04 0.11 0 0.06 0.11 0 0.08 0.11 0 0.1 0.11 0 0 0.115 0 0.02 0.115 0 0.04 0.115 0 0.06 0.115 0 0.08 0.115 0 0.1 0.115 0 0 0.12 0 0.02 0.12 0 0.04 0.12 0 0.06 0.12 0 0.08 0.12 0 0.1 0.12 0 0 0.125 0 0.02 0.125 0 0.04 0.125 0 0.06 0.125 0 0.08 0.125 0 0.1 0.125 0 0 0.13 0 0.02 0.13 0 0.04 0.13 0 0.06 0.13 0 0.08 0.13 0 0.1 0.13 0 0 0.135 0 0.02 0.135 0 0.04 0.135 0 0.06 0.135 0 0.08 0.135 0 0.1 0.135 0 0 0.14 0 0.02 0.14 0 0.04 0.14 0 0.06 0.14 0 0.08 0.14 0 0.1 0.14 0 0 0.145 0 0.02 0.145 0 0.04 0.145 0 0.06 0.145 0 0.08 0.145 0 0.1 0.145 0 0 0.15 0 0.02 0.15 0 0.04 0.15 0 0.06 0.15 0 0.08 0.15 0 0.1 0.15 0 0 0.155 0 0.02 0.155 0 0.04 0.155 0 0.06 0.155 0 0.08 0.155 0 0.1 0.155 0 0 0.16 0 0.02 0.16 0 0.04 0.16 0 0.06 0.16 0 0.08 0.16 0 0.1 0.16 0 0 0.165 0 0.02 0.165 0 0.04 0.165 0 0.06 0.165 0 0.08 0.165 0 0.1 0.165 0 0 0.17 0 0.02 0.17 0 0.04 0.17 0 0.06 0.17 0 0.08 0.17 0 0.1 0.17 0 0 0.175 0 0.02 0.175 0 0.04 0.175 0 0.06 0.175 0 0.08 0.175 0 0.1 0.175 0 0 0.18 0 0.02 0.18 0 0.04 0.18 0 0.06 0.18 0 0.08 0.18 0 0.1 0.18 0 0 0.185 0 0.02 0.185 0 0.04 0.185 0 0.06 0.185 0 0.08 0.185 0 0.1 0.185 0 0 0.19 0 0.02 0.19 0 0.04 0.19 0 0.06 0.19 0 0.08 0.19 0 0.1 0.19 0 0 0.195 0 0.02 0.195 0 0.04 0.195 0 0.06 0.195 0 0.08 0.195 0 0.1 0.195 0 0 0.2 0 0.02 0.2 0 0.04 0.2 0 0.06 0.2 0 0.08 0.2 0 0.1 0.2 0 0 0.205 0 0.02 0.205 0 0.04 0.205 0 0.06 0.205 0 0.08 0.205 0 0.1 0.205 0 0 0.21 0 0.02 0.21 0 0.04 0.21 0 0.06 0.21 0 0.08 0.21 0 0.1 0.21 0 0 0.215 0 0.02 0.215 0 0.04 0.215 0 0.06 0.215 0 0.08 0.215 0 0.1 0.215 0 0 0.22 0 0.02 0.22 0 0.04 0.22 0 0.06 0.22 0 0.08 0.22 0 0.1 0.22 0 0 0.225 0 0.02 0.225 0 0.04 0.225 0 0.06 0.225 0 0.08 0.225 0 0.1 0.225 0 0 0.23 0 0.02 0.23 0 0.04 0.23 0 0.06 0.23 0 0.08 0.23 0 0.1 0.23 0 0 0.235001 0 0.02 0.235001 0 0.04 0.235001 0 0.06 0.235001 0 0.08 0.235001 0 0.1 0.235001 0 0 0.240002 0 0.02 0.240002 0 0.04 0.240002 0 0.06 0.240002 0 0.08 0.240002 0 0.1 0.240002 0 0 0.245006 0 0.02 0.245006 0 0.04 0.245006 0 0.06 0.245006 0 0.08 0.245006 0 0.1 0.245006 0 0 0.250014 0 0.02 0.250014 0 0.04 0.250014 0 0.06 0.250014 0 0.08 0.250014 0 0.1 0.250014 0 0 0.255033 0 0.02 0.255033 0 0.04 0.255033 0 0.06 0.255033 0 0.08 0.255033 0 0.1 0.255033 0 0 0.260072 0 0.02 0.260072 0 0.04 0.260072 0 0.06 0.260072 0 0.08 0.260072 0 0.1 0.260072 0 0 0.265141 0 0.02 0.265141 0 0.04 0.265141 0 0.06 0.265141 0 0.08 0.265141 0 0.1 0.265141 0 0 0.270257 0 0.02 0.270257 0 0.04 0.270257 0 0.06 0.270257 0 0.08 0.270257 0 0.1 0.270257 0 0 0.275434 0 0.02 0.275434 0 0.04 0.275434 0 0.06 0.275434 0 0.08 0.275434 0 0.1 0.275434 0 0 0.280684 0 0.02 0.280684 0 0.04 0.280684 0 0.06 0.280684 0 0.08 0.280684 0 0.1 0.280684 0 0 0.286018 0 0.02 0.286018 0 0.04 0.286018 0 0.06 0.286018 0 0.08 0.286018 0 0.1 0.286018 0 0 0.291446 0 0.02 0.291446 0 0.04 0.291446 0 0.06 0.291446 0 0.08 0.291446 0 0.1 0.291446 0 0 0.296973 0 0.02 0.296973 0 0.04 0.296973 0 0.06 0.296973 0 0.08 0.296973 0 0.1 0.296973 0 0 0.302607 0 0.02 0.302607 0 0.04 0.302607 0 0.06 0.302607 0 0.08 0.302607 0 0.1 0.302607 0 0 0.308354 0 0.02 0.308354 0 0.04 0.308354 0 0.06 0.308354 0 0.08 0.308354 0 0.1 0.308354 0 0 0.314219 0 0.02 0.314219 0 0.04 0.314219 0 0.06 0.314219 0 0.08 0.314219 0 0.1 0.314219 0 0 0.32021 0 0.02 0.32021 0 0.04 0.32021 0 0.06 0.32021 0 0.08 0.32021 0 0.1 0.32021 0 0 0.326333 0 0.02 0.326333 0 0.04 0.326333 0 0.06 0.326333 0 0.08 0.326333 0 0.1 0.326333 0 0 0.332595 0 0.02 0.332595 0 0.04 0.332595 0 0.06 0.332595 0 0.08 0.332595 0 0.1 0.332595 0 0 0.339003 0 0.02 0.339003 0 0.04 0.339003 0 0.06 0.339003 0 0.08 0.339003 0 0.1 0.339003 0 0 0.345567 0 0.02 0.345567 0 0.04 0.345567 0 0.06 0.345567 0 0.08 0.345567 0 0.1 0.345567 0 0 0.352293 0 0.02 0.352293 0 0.04 0.352293 0 0.06 0.352293 0 0.08 0.352293 0 0.1 0.352293 0 0 0.359193 0 0.02 0.359193 0 0.04 0.359193 0 0.06 0.359193 0 0.08 0.359193 0 0.1 0.359193 0 0 0.366275 0 0.02 0.366275 0 0.04 0.366275 0 0.06 0.366275 0 0.08 0.366275 0 0.1 0.366275 0 0 0.373552 0 0.02 0.373552 0 0.04 0.373552 0 0.06 0.373552 0 0.08 0.373552 0 0.1 0.373552 0 0 0.381036 0 0.02 0.381036 0 0.04 0.381036 0 0.06 0.381036 0 0.08 0.381036 0 0.1 0.381036 0 0 0.388739 0 0.02 0.388739 0 0.04 0.388739 0 0.06 0.388739 0 0.08 0.388739 0 0.1 0.388739 0 0 0.396677 0 0.02 0.396677 0 0.04 0.396677 0 0.06 0.396677 0 0.08 0.396677 0 0.1 0.396677 0 0 0.404866 0 0.02 0.404866 0 0.04 0.404866 0 0.06 0.404866 0 0.08 0.404866 0 0.1 0.404866 0 0 0.413322 0 0.02 0.413322 0 0.04 0.413322 0 0.06 0.413322 0 0.08 0.413322 0 0.1 0.413322 0 0 0.422067 0 0.02 0.422067 0 0.04 0.422067 0 0.06 0.422067 0 0.08 0.422067 0 0.1 0.422067 0 0 0.431121 0 0.02 0.431121 0 0.04 0.431121 0 0.06 0.431121 0 0.08 0.431121 0 0.1 0.431121 0 0 0.440508 0 0.02 0.440508 0 0.04 0.440508 0 0.06 0.440508 0 0.08 0.440508 0 0.1 0.440508 0 0 0.450255 0 0.02 0.450255 0 0.04 0.450255 0 0.06 0.450255 0 0.08 0.450255 0 0.1 0.450255 0 0 0.460389 0 0.02 0.460389 0 0.04 0.460389 0 0.06 0.460389 0 0.08 0.460389 0 0.1 0.460389 0 0 0.47094 0 0.02 0.47094 0 0.04 0.47094 0 0.06 0.47094 0 0.08 0.47094 0 0.1 0.47094 0 0 0.481935 0 0.02 0.481935 0 0.04 0.481935 0 0.06 0.481935 0 0.08 0.481935 0 0.1 0.481935 0 0 0.493391 0 0.02 0.493391 0 0.04 0.493391 0 0.06 0.493391 0 0.08 0.493391 0 0.1 0.493391 0 0 0.505294 0 0.02 0.505294 0 0.04 0.505294 0 0.06 0.505294 0 0.08 0.505294 0 0.1 0.505294 0 0 0.51753 0 0.02 0.51753 0 0.04 0.51753 0 0.06 0.51753 0 0.08 0.51753 0 0.1 0.51753 0 0 0.529808 0 0.02 0.529808 0 0.04 0.529808 0 0.06 0.529808 0 0.08 0.529808 0 0.1 0.529808 0 0 0.541993 0 0.02 0.541993 0 0.04 0.541993 0 0.06 0.541993 0 0.08 0.541993 0 0.1 0.541993 0 0 0.554071 0 0.02 0.554071 0 0.04 0.554071 0 0.06 0.554071 0 0.08 0.554071 0 0.1 0.554071 0 0 0.56605 0 0.02 0.56605 0 0.04 0.56605 0 0.06 0.56605 0 0.08 0.56605 0 0.1 0.56605 0 0 0.577954 0 0.02 0.577954 0 0.04 0.577954 0 0.06 0.577954 0 0.08 0.577954 0 0.1 0.577954 0 0 0.58981 0 0.02 0.58981 0 0.04 0.58981 0 0.06 0.58981 0 0.08 0.58981 0 0.1 0.58981 0 0 0.60164 0 0.02 0.60164 0 0.04 0.60164 0 0.06 0.60164 0 0.08 0.60164 0 0.1 0.60164 0 0 0.613458 0 0.02 0.613458 0 0.04 0.613458 0 0.06 0.613458 0 0.08 0.613458 0 0.1 0.613458 0 0 0.625271 0 0.02 0.625271 0 0.04 0.625271 0 0.06 0.625271 0 0.08 0.625271 0 0.1 0.625271 0 0 0.637081 0 0.02 0.637081 0 0.04 0.637081 0 0.06 0.637081 0 0.08 0.637081 0 0.1 0.637081 0 0 0.648889 0 0.02 0.648889 0 0.04 0.648889 0 0.06 0.648889 0 0.08 0.648889 0 0.1 0.648889 0 0 0.660698 0 0.02 0.660698 0 0.04 0.660698 0 0.06 0.660698 0 0.08 0.660698 0 0.1 0.660698 0 0 0.67251 0 0.02 0.67251 0 0.04 0.67251 0 0.06 0.67251 0 0.08 0.67251 0 0.1 0.67251 0 0 0.68432 0 0.02 0.68432 0 0.04 0.68432 0 0.06 0.68432 0 0.08 0.68432 0 0.1 0.68432 0 0 0.686599 0 0.02 0.686599 0 0.04 0.686599 0 0.06 0.686599 0 0.08 0.686599 0 0.1 0.686599 0 0 0.688878 0 0.02 0.688878 0 0.04 0.688878 0 0.06 0.688878 0 0.08 0.688878 0 0.1 0.688878 0 0 0.691157 0 0.02 0.691157 0 0.04 0.691157 0 0.06 0.691157 0 0.08 0.691157 0 0.1 0.691157 0 0 0.693436 0 0.02 0.693436 0 0.04 0.693436 0 0.06 0.693436 0 0.08 0.693436 0 0.1 0.693436 0 0 0.695714 0 0.02 0.695714 0 0.04 0.695714 0 0.06 0.695714 0 0.08 0.695714 0 0.1 0.695714 0 0 0.697991 0 0.02 0.697991 0 0.04 0.697991 0 0.06 0.697991 0 0.08 0.697991 0 0.1 0.697991 0 0 0.700266 0 0.02 0.700266 0 0.04 0.700266 0 0.06 0.700266 0 0.08 0.700266 0 0.1 0.700266 0 0 0.702542 0 0.02 0.702542 0 0.04 0.702542 0 0.06 0.702542 0 0.08 0.702542 0 0.1 0.702542 0 0 0.704819 0 0.02 0.704819 0 0.04 0.704819 0 0.06 0.704819 0 0.08 0.704819 0 0.1 0.704819 0 0 0.707095 0 0.02 0.707095 0 0.04 0.707095 0 0.06 0.707095 0 0.08 0.707095 0 0.1 0.707095 0 0 0.709371 0 0.02 0.709371 0 0.04 0.709371 0 0.06 0.709371 0 0.08 0.709371 0 0.1 0.709371 0 0 0.711652 0 0.02 0.711652 0 0.04 0.711652 0 0.06 0.711652 0 0.08 0.711652 0 0.1 0.711652 0 0 0.713932 0 0.02 0.713932 0 0.04 0.713932 0 0.06 0.713932 0 0.08 0.713932 0 0.1 0.713932 0 0 0.716211 0 0.02 0.716211 0 0.04 0.716211 0 0.06 0.716211 0 0.08 0.716211 0 0.1 0.716211 0 0 0.718488 0 0.02 0.718488 0 0.04 0.718488 0 0.06 0.718488 0 0.08 0.718488 0 0.1 0.718488 0 0 0.720766 0 0.02 0.720766 0 0.04 0.720766 0 0.06 0.720766 0 0.08 0.720766 0 0.1 0.720766 0 0 0.723045 0 0.02 0.723045 0 0.04 0.723045 0 0.06 0.723045 0 0.08 0.723045 0 0.1 0.723045 0 0 0.725324 0 0.02
[...]
			<PointData Scalars="VitesseX">
				<DataArray Name="VitesseX" type="Float32" format="ascii">
 0 -3.15063e-15 2.63722e-15 3.45328e-15 -2.92401e-15 0 0 -2.36354e-15 1.78317e-15 3.60537e-15 -3.6623e-15 0 0 -1.64849e-15 1.35361e-15 2.29475e-15 -3.14357e-15 0 0 -1.99092e-15 2.34264e-15 5.55354e-17 -2.35971e-15 0 0 -1.39713e-15 2.80681e-15 -1.87424e-15 -4.36637e-16 0 0 6.49859e-16 2.5708e-15 -4.29757e-15 3.21314e-15 0 0 1.13124e-15 1.64058e-15 -3.47659e-15 4.34262e-15 0 0 3.64551e-16 2.2071e-15 -3.37056e-15 3.99659e-15 0 0 3.25667e-16 3.52322e-15 -4.84857e-15 2.3389e-15 0 0 2.08904e-15 -5.26222e-16 -7.79792e-16 -2.50431e-16 0 0 3.60873e-15 -2.98287e-15 1.48538e-16 1.03182e-15 0 0 2.61401e-15 -1.6878e-15 -2.3623e-15 4.97558e-15 0 0 -1.93039e-15 3.07801e-15 -5.56495e-15 6.54756e-15 0 0 -2.66463e-15 -3.64461e-16 -1.59003e-15 3.49009e-15 0 0 2.4383e-16 -7.63981e-15 5.30813e-15 -1.38984e-15 0 0 -2.16241e-15 -2.95508e-15 4.56175e-15 -4.48582e-15 0 0 1.23298e-15 -5.22656e-15 6.58927e-15 -7.46701e-15 0 0 3.44669e-15 -5.47834e-15 4.69927e-15 -5.30764e-15 0 0 -2.36807e-15 2.92311e-15 1.11109e-16 -2.24548e-15 0 0 -3.28629e-15 3.8372e-15 2.23267e-15 -3.11279e-16 0 0 -1.283e-16 9.18215e-16 2.94806e-15 1.27048e-15 0 0 1.419e-16 5.01934e-15 -1.78363e-15 -2.51652e-15 0 0 -5.46039e-17 6.28107e-15 -1.97912e-15 -4.47755e-15 0 0 -4.92021e-15 1.12291e-14 -6.14908e-15 8.22692e-16 0 0 -8.22078e-15 1.26145e-14 3.69829e-17 -4.006e-15 0 0 -2.38341e-15 2.23604e-15 8.80903e-15 -2.70463e-15 0 0 -1.15206e-15 1.08716e-17 2.192e-15 1.17846e-14 0 0 -5.66359e-15 5.53977e-15 -6.69443e-15 2.34847e-14 0 0 -1.68962e-15 6.96973e-15 -9.28576e-15 1.93209e-14 0 0 6.60744e-15 5.21373e-15 7.59522e-16 -3.44007e-16 0 0 2.56133e-15 1.09663e-14 9.8453e-15 -1.07183e-14 0 0 -2.02525e-15 1.54823e-14 1.3012e-14 -1.27917e-14 0 0 6.5972e-15 9.28852e-15 1.3953e-14 -2.38157e-15 0 0 1.25165e-14 9.93712e-15 -4.42525e-16 2.40714e-14 0 0 6.27579e-15 1.69312e-14 -8.80066e-15 3.08848e-14 0 0 1.55644e-14 4.1717e-15 -4.8578e-15 1.22393e-14 0 0 2.77076e-14 -1.13108e-14 -1.19112e-15 -3.11358e-15 0 0 9.92396e-15 -1.37204e-14 6.5693e-15 -1.51178e-15 0 0 -4.39636e-15 -1.65798e-14 1.68093e-14 5.37205e-15 0 0 -3.10498e-14 1.3249e-15 1.15356e-14 9.60817e-16 0 0 -4.335e-14 -9.83605e-15 2.99855e-15 1.74925e-15 0 0 -2.26795e-14 -2.69885e-14 -1.41965e-14 3.69545e-15 0 0 -1.56162e-14 -2.40935e-14 -3.09671e-14 -1.16273e-14 0 0 -2.95201e-14 -2.7545e-14 -2.84074e-14 -2.46918e-14 0 0 -2.5044e-14 -2.93657e-14 -1.613e-14 -3.48588e-14 0 0 -2.10727e-15 -3.79967e-14 -1.50029e-14 -3.03532e-14 0 0 -1.4712e-14 -2.5977e-14 -1.50079e-14 -2.58464e-14 0 0 -2.28136e-14 4.07529e-15 -2.19623e-14 -2.36687e-14 0 0 -1.13649e-14 1.45075e-14 -3.05456e-14 -1.66094e-14 0 0 -1.04711e-14 -1.89706e-14 -1.38964e-16 8.02949e-16 0 0 -1.47687e-15 -3.67519e-14 2.54133e-15 3.17696e-14 0 0 -4.35607e-15 -1.5363e-14 -7.56408e-15 2.48738e-14 0 0 -3.77068e-15 -8.47903e-15 6.26453e-16 1.47552e-14 0 0 -3.13475e-15 4.48797e-15 -9.16141e-15 2.56417e-14 0 0 -2.92887e-15 -5.69019e-16 -4.3138e-15 3.08235e-14 0 0 1.87062e-14 -1.4635e-14 -6.23186e-15 2.41541e-14 0 0 1.81228e-14 1.90455e-15 -1.37233e-14 1.81343e-14 0 0 -1.05985e-14 2.09931e-14 -5.58977e-15 6.16397e-15 0 0 -2.44022e-14 3.81401e-14 8.16306e-17 -7.17797e-16 0 0 -5.96513e-15 2.796e-14 2.88722e-14 -4.86065e-16 0 0 -4.99153e-16 3.16213e-14 2.90249e-14 5.85713e-15 0 0 1.10061e-14 5.29994e-15 3.05937e-14 -5.90245e-15 0 0 4.51163e-14 -3.16517e-14 1.94488e-14 -7.85306e-15 0 0 5.19437e-14 -2.46327e-14 4.20099e-15 -1.53525e-14 0 0 1.60268e-14 -1.04925e-14 1.65368e-14 -2.40224e-14 0 0 -5.28498e-15 1.12495e-15 1.78999e-14 -1.63768e-14 0 0 8.49458e-16 1.62601e-14 7.45466e-15 -2.10685e-14 0 0 1.59529e-14 2.95199e-15 5.96159e-15 1.92968e-14 0 0 4.34433e-14 -6.79314e-15 -1.68842e-14 5.30401e-14 0 0 6.62108e-14 -2.23346e-14 -1.5261e-14 3.33571e-14 0 0 2.97366e-14 -1.43869e-14 3.38499e-14 3.36651e-16 0 0 -1.3793e-15 1.81432e-14 3.64503e-14 -1.00155e-14 0 0 3.19925e-14 1.35167e-14 3.65588e-15 -2.90834e-14 0 0 4.86677e-14 -5.9629e-15 1.15307e-14 -3.14776e-14 0 0 4.05755e-14 -1.86108e-14 3.35778e-14 -9.48622e-15 0 0 1.17591e-14 2.01962e-14 -1.52936e-14 3.33379e-14 0 0 -1.84841e-15 1.87935e-14 -5.36459e-16 2.72171e-14 0 0 -1.01443e-14 1.28844e-14 2.50155e-14 1.6184e-14 0 0 -1.31938e-14 2.39419e-14 6.05578e-15 6.06898e-14 0 0 2.65301e-14 -1.0317e-14 4.67619e-14 2.01461e-14 0 0 3.71493e-14 1.00637e-14 3.12315e-14 -1.46284e-14 0 0 5.92227e-15 7.02974e-14 -4.35366e-14 3.25151e-14 0 0 -2.0126e-14 6.1921e-14 -1.8938e-14 8.01915e-15 0 0 -3.76397e-14 3.27518e-14 5.79057e-14 -3.79125e-14 0 0 3.01752e-14 3.31409e-15 6.53407e-14 -3.30633e-15 0 0 5.59231e-14 -1.18644e-14 3.35448e-14 5.48155e-14 0 0 -5.49281e-14 -7.2903e-14 -6.33698e-14 -3.68985e-14 0 0 -1.8233e-13 -2.77573e-13 -2.75607e-13 -2.11048e-13 0 0 -2.80615e-13 -4.77599e-13 -4.78863e-13 -2.89708e-13 0 0 -3.07808e-13 -4.99804e-13 -5.03655e-13 -3.07249e-13 0 0 -1.94321e-13 -2.96605e-13 -2.86987e-13 -1.95448e-13 0 0 8.61122e-14 1.41629e-13 1.33996e-13 8.8985e-14 0 0 4.34915e-13 7.21695e-13 7.07734e-13 4.45756e-13 0 0 7.74443e-13 1.25317e-12 1.26509e-12 7.80167e-13 0 0 1.00545e-12 1.60576e-12 1.61193e-12 9.88818e-13 0 0 1.05074e-12 1.69679e-12 1.69101e-12 1.04557e-12 0 0 9.63699e-13 1.55258e-12 1.55144e-12 9.57167e-13 0 0 8.19765e-13 1.32938e-12 1.33198e-12 8.09165e-13 0 0 6.06424e-13 1.00832e-12 1.00842e-12 6.19074e-13 0 0 1.03128e-13 1.62389e-13 1.7643e-13 9.93788e-14 0 0 -3.86441e-13 -6.40431e-13 -6.36411e-13 -3.99288e-13 0 0 -1.10877e-12 -1.79592e-12 -1.72388e-12 -1.1506e-12 0 0 -1.22219e-12 -2.00824e-12 -1.93419e-12 -1.25142e-12 0 0 -1.54053e-12 -2.46498e-12 -2.43222e-12 -1.55401e-12 0 0 -1.98905e-12 -3.19109e-12 -3.20782e-12 -1.9848e-12 0 0 -2.35468e-12 -3.80574e-12 -3.75517e-12 -2.37031e-12 0 0 -2.17336e-12 -3.51991e-12 -3.44473e-12 -2.18886e-12 0 0 -5.33498e-14 -7.11747e-14 -4.84502e-14 -4.96104e-14 0 0 3.58179e-12 5.86042e-12 5.85019e-12 3.57857e-12 0 0 7.0984e-12 1.15773e-11 1.15953e-11 7.08402e-12 0 0 8.98865e-12 1.46107e-11 1.4616e-11 8.99037e-12 0 0 8.85826e-12 1.43651e-11 1.43307e-11 8.85564e-12 0 0 7.74193e-12 1.25406e-11 1.24552e-11 7.73693e-12 0 0 6.48737e-12 1.0474e-11 1.04142e-11 6.4324e-12 0 0 5.26196e-12 8.52297e-12 8.48879e-12 5.15528e-12 0 0 4.17323e-12 6.78049e-12 6.74561e-12 4.11723e-12 0 0 3.22189e-12 5.17993e-12 5.18613e-12 3.17587e-12 0 0 2.40214e-12 3.86139e-12 3.85801e-12 2.32952e-12 0 0 1.74484e-12 2.80638e-12 2.77956e-12 1.72697e-12 0 0 1.19651e-12 1.91744e-12 1.8939e-12 1.18921e-12 0 0 7.26691e-13 1.18246e-12 1.13682e-12 6.99509e-13 0 0 3.34892e-13 5.24824e-13 5.17392e-13 3.02952e-13 0 0 -1.08118e-14 -2.89663e-14 2.04978e-15 -1.10364e-14 0 0 -2.839e-13 -4.27284e-13 -4.55985e-13 -2.53298e-13 0 0 -4.76249e-13 -7.36484e-13 -7.9918e-13 -4.42822e-13 0 0 -6.2718e-13 -1.01063e-12 -1.00794e-12 -5.93624e-13 0 0 -7.40961e-13 -1.17367e-12 -1.18901e-12 -7.33663e-13 0 0 -8.10735e-13 -1.30819e-12 -1.27302e-12 -8.2103e-13 0 0 -8.11558e-13 -1.4195e-12 -1.31668e-12 -8.51341e-13 0 0 -8.26651e-13 -1.4018e-12 -1.40324e-12 -8.84233e-13 0 0 -8.50178e-13 -1.33506e-12 -1.42202e-12 -8.52246e-13 0 0 -8.4387e-13 -1.27978e-12 -1.39447e-12 -7.89527e-13 0 0 -8.29069e-13 -1.26531e-12 -1.38107e-12 -7.62449e-13 0 0 -8.13503e-13 -1.23267e-12 -1.40853e-12 -7.41813e-13 0 0 -7.75964e-13 -1.18125e-12 -1.32041e-12 -7.3902e-13 0 0 -6.93224e-13 -1.13532e-12 -1.16048e-12 -6.61212e-13 0 0 -6.06255e-13 -9.78894e-13 -9.6134e-13 -5.63536e-13 0 0 -5.15474e-13 -7.74384e-13 -7.98066e-13 -4.71646e-13 0 0 -3.81008e-13 -5.94982e-13 -6.18734e-13 -3.87025e-13 0 0 -2.50712e-13 -4.01872e-13 -3.97076e-13 -3.11175e-13 0 0 -1.34455e-13 -1.99314e-13 -1.86671e-13 -1.68832e-13 0 0 -1.53482e-14 -4.08796e-15 2.46633e-14 -1.53594e-14 0 0 9.77215e-14 2.00404e-13 1.84361e-13 9.3808e-14 0 0 2.33232e-13 3.56821e-13 3.85392e-13 2.54414e-13 0 0 3.9099e-13 5.77067e-13 6.1874e-13 4.54818e-13 0 0 5.69212e-13 9.14651e-13 8.59118e-13 6.44922e-13 0 0 7.483e-13 1.191e-12 1.16896e-12 8.13321e-13 0 0 9.33364e-13 1.39851e-12 1.44013e-12 8.83038e-13 0 0 1.10662e-12 1.66549e-12 1.69243e-12 1.04114e-12 0 0 1.24581e-12 1.98968e-12 1.95855e-12 1.2397e-12 0 0 1.35344e-12 2.1628e-12 2.21995e-12 1.3132e-12 0 0 1.46618e-12 2.27256e-12 2.41484e-12 1.40754e-12 0 0 1.53612e-12 2.4511e-12 2.55845e-12 1.47333e-12 0 0 1.61426e-12 2.65436e-12 2.6602e-12 1.54318e-12 0 0 1.77803e-12 2.7266e-12 2.81369e-12 1.65436e-12 0 0 1.85684e-12 2.84018e-12 2.94754e-12 1.77151e-12 0 0 1.89707e-12 3.07726e-12 2.98916e-12 1.86903e-12 0 0 1.9747e-12 3.20243e-12 3.1513e-12 1.86633e-12 0 0 1.97661e-12 3.36772e-12 3.17864e-12 1.88164e-12 0 0 1.99911e-12 3.38643e-12 3.23239e-12 1.92103e-12 0 0 2.01551e-12 3.17331e-12 3.29304e-12 1.9279e-12 0 0 1.9939e-12 3.01533e-12 3.20795e-12 1.92305e-12 0 0 1.869e-12 2.75993e-12 2.99372e-12 1.80917e-12 0 0 1.68468e-12 2.59785e-12 2.7404e-12 1.67522e-12 0 0 1.53624e-12 2.39767e-12 2.51675e-12 1.54678e-12 0 0 1.26399e-12 2.01779e-12 2.03645e-12 1.31364e-12 0 0 9.86907e-13 1.69626e-12 1.59023e-12 1.1259e-12 0 0 7.23445e-13 1.25016e-12 1.1597e-12 8.34531e-13 0 0 5.07043e-13 7.80323e-13 7.60518e-13 5.57737e-13 0 0 3.00436e-13 3.64907e-13 4.31374e-13 3.09646e-13 0 0 1.31464e-13 1.52472e-13 1.60113e-13 1.2814e-13 0 0 1.90255e-14 3.08387e-14 -1.72165e-14 6.61079e-14 0 0 -2.18166e-14 -5.38221e-14 -3.71794e-14 -2.23e-14 0 0 -1.63842e-14 -6.50793e-14 -6.53317e-14 -4.40753e-14 0 0 -2.60892e-14 -3.81982e-14 -1.01804e-13 -1.28897e-14 0 0 -2.07466e-14 -6.01305e-14 -7.59972e-14 -2.43455e-14 0 0 -2.92932e-14 -4.78804e-14 -6.98592e-14 -5.28387e-14 0 0 -5.07558e-14 -2.20287e-14 -7.8917e-14 -5.53188e-14 0 0 -4.93112e-14 -2.39564e-14 -1.03466e-13 -2.2599e-14 0 0 -5.59809e-14 -4.5931e-14 -8.9811e-14 -1.84668e-14 0 0 -4.90263e-14 -5.51295e-14 -5.51195e-14 -6.06639e-14 0 0 -4.78708e-14 -5.97307e-14 -5.30463e-14 -5.01336e-14 0 0 -6.17157e-14 -8.0116e-14 -5.5399e-14 -1.77044e-14 0 0 -1.00062e-13 -4.35207e-14 -8.9807e-14 -1.2881e-14 0 0 -1.02206e-13 -2.78187e-14 -1.05735e-13 -2.4552e-15 0 0 -9.50737e-14 -3.37443e-14 -9.83673e-14 1.16829e-14 0 0 -1.09288e-13 -4.91499e-14 -4.7723e-14 -2.51554e-14 0 0 -8.14421e-14 -8.91542e-14 -2.98016e-15 -5.75926e-14 0 0 -5.74472e-14 -9.82297e-14 -2.73472e-14 2.49073e-15 0 0 -5.56027e-14 -9.76602e-14 -3.21005e-14 3.35634e-14 0 0 -6.05307e-14 -1.02922e-13 3.92625e-14 -5.36107e-14 0 0 -4.05413e-14 -1.15436e-13 5.52502e-14 -6.99485e-14 0 0 -3.74711e-14 -7.33194e-14 -5.13736e-14 1.48557e-14 0 0 -3.61088e-14 -5.37243e-14 -8.53237e-14 3.13757e-14 0 0 -4.19685e-14 -2.89577e-14 -1.03555e-13 3.06598e-14 0 0 -6.69787e-14 1.84212e-14 -1.5082e-13 4.0544e-14 0 0 -1.02315e-14 -5.41019e-14 -9.48649e-14 4.20996e-15 0 0 2.87862e-14 -1.22574e-13 -6.88381e-14 1.0727e-14 0 0 -2.1375e-14 -9.43608e-14 -9.25417e-14 -5.03414e-14 0 0 -6.68763e-14 -6.965e-14 -1.11655e-13 -1.18285e-13 0 0 -8.30093e-14 -7.11149e-14 -1.24983e-13 -9.96574e-14 0
				</DataArray>
				<DataArray Name="VitesseY" type="Float32" format="ascii">