<?xml version="1.0"?>
<VTKFile type="PolyData">
	<PolyData>
		<Piece NumberOfPoints="1206" NumberOfPolys="1000">
			<Points>
				<DataArray type="Float32" NumberOfComponents="3" format="ascii">
 0 0 0 0.02 0 0 0.04 0 0 0.06 0 0 0.08 0 0 0.1 0 0 0 0.005 0 0.02 0.005 0 0.04 0.005 0 0.06 0.005 0 0.08 0.005 0 0.1 0.005 0 0 0.01 0 0.02 0.01 0 0.04 0.01 0 0.06 0.01 0 0.08 0.01 0 0.1 0.01 0 0 0.015 0 0.02 0.015 0 0.04 0.015 0 0.06 0.015 0 0.08 0.015 0 0.1 0.015 0 0 0.02 0 0.02 0.02 0 0.04 0.02 0 0.06 0.02 0 0.08 0.02 0 0.1 0.02 0 0 0.025 0 0.02 0.025 0 0.04 0.025 0 0.06 0.025 0 0.08 0.025 0 0.1 0.025 0 0 0.03 0 0.02 0.03 0 0.04 0.03 0 0.06 0.03 0 0.08 0.03 0 0.1 0.03 0 0 0.035 0 0.02 0.035 0 0.04 0.035 0 0.06 0.035 0 0.08 0.035 0 0.1 0.035 0 0 0.04 0 0.02 0.04 0 0.04 0.04 0 0.06 0.04 0 0.08 0.04 0 0.1 0.04 0 0 0.045 0 0.02 0.045 0 0.04 0.045 0 0.06 0.045 0 0.08 0.045 0 0.1 0.045 0 0 0.05 0 0.02 0.05 0 0.04 0.05 0 0.06 0.05 0 0.08 0.05 0 0.1 0.05 0 0 0.055 0 0.02 0.055 0 0.04 0.055 0 0.06 0.055 0 0.08 0.055 0 0.1 0.055 0 0 0.06 0 0.02 0.06 0 0.04 0.06 0 0.06 0.06 0 0.08 0.06 0 0.1 0.06 0 0 0.065 0 0.02 0.065 0 0.04 0.065 0 0.06 0.065 0 0.08 0.065 0 0.1 0.065 0 0 0.07 0 0.02 0.07 0 0.04 0.07 0 0.06 0.07 0 0.08 0.07 0 0.1 0.07 0 0 0.075 0 0.02 0.075 0 0.04 0.075 0 0.06 0.075 0 0.08 0.075 0 0.1 0.075 0 0 0.08 0 0.02 0.08 0 0.04 0.08 0 0.06 0.08 0 0.08 0.08 0 0.1 0.08 0 0 0.085 0 0.02 0.085 0 0.04 0.085 0 0.06 0.085 0 0.08 0.085 0 0.1 0.085 0 0 0.09 0 0.02 0.09 0 0.04 0.09 0 0.06 0.09 0 0.08 0.09 0 0.1 0.09 0 0 0.095 0 0.02 0.095 0 0.04 0.095 0 0.06 0.095 0 0.08 0.095 0 0.1 0.095 0 0 0.1 0 0.02 0.1 0 0.04 0.1 0 0.06 0.1 0 0.08 0.1 0 0.1 0.1 0 0 0.105 0 0.02 0.105 0 0.04 0.105 0 0.06 0.105 0 0.08 0.105 0 0.1 0.105 0 0 0.11 0 0.02 0.11 0 0.04 0.11 0 0.06 0.11 0 0.08 0.11 0 0.1 0.11 0 0 0.115 0 0.02 0.115 0 0.04 0.115 0 0.06 0.115 0 0.08 0.115 0 0.1 0.115 0 0 0.12 0 0.02 0.12 0 0.04 0.12 0 0.06 0.12 0 0.08 0.12 0 0.1 0.12 0 0 0.125 0 0.02 0.125 0 0.04 0.125 0 0.06 0.125 0 0.08 0.125 0 0.1 0.125 0 0 0.13 0 0.02 0.13 0 0.04 0.13 0 0.06 0.13 0 0.08 0.13 0 0.1 0.13 0 0 0.135 0 0.02 0.135 0 0.04 0.135 0 0.06 0.135 0 0.08 0.135 0 0.1 0.135 0 0 0.14 0 0.02 0.14 0 0.04 0.14 0 0.06 0.14 0 0.08 0.14 0 0.1 0.14 0 0 0.145 0 0.02 0.145 0 0.04 0.145 0 0.06 0.145 0 0.08 0.145 0 0.1 0.145 0 0 0.15 0 0.02 0.15 0 0.04 0.15 0 0.06 0.15 0 0.08 0.15 0 0.1 0.15 0 0 0.155 0 0.02 0.155 0 0.04 0.155 0 0.06 0.155 0 0.08 0.155 0 0.1 0.155 0 0 0.16 0 0.02 0.16 0 0.04 0.16 0 0.06 0.16 0 0.08 0.16 0 0.1 0.16 0 0 0.165 0 0.02 0.165 0 0.04 0.165 0 0.06 0.165 0 0.08 0.165 0 0.1 0.165 0 0 0.17 0 0.02 0.17 0 0.04 0.17 0 0.06 0.17 0 0.08 0.17 0 0.1 0.17 0 0 0.175 0 0.02 0.175 0 0.04 0.175 0 0.06 0.175 0 0.08 0.175 0 0.1 0.175 0 0 0.18 0 0.02 0.18 0 0.04 0.18 0 0.06 0.18 0 0.08 0.18 0 0.1 0.18 0 0 0.185 0 0.02 0.185 0 0.04 0.185 0 0.06 0.185 0 0.08 0.185 0 0.1 0.185 0 0 0.19 0 0.02 0.19 0 0.04 0.19 0 0.06 0.19 0 0.08 0.19 0 0.1 0.19 0 0 0.195 0 0.02 0.195 0 0.04 0.195 0 0.06 0.195 0 0.08 0.195 0 0.1 0.195 0 0 0.2 0 0.02 0.2 0 0.04 0.2 0 0.06 0.2 0 0.08 0.2 0 0.1 0.2 0 0 0.205 0 0.02 0.205 0 0.04 0.205 0 0.06 0.205 0 0.08 0.205 0 0.1 0.205 0 0 0.21 0 0.02 0.21 0 0.04 0.21 0 0.06 0.21 0 0.08 0.21 0 0.1 0.21 0 0 0.215 0 0.02 0.215 0 0.04 0.215 0 0.06 0.215 0 0.08 0.215 0 0.1 0.215 0 0 0.22 0 0.02 0.22 0 0.04 0.22 0 0.06 0.22 0 0.08 0.22 0 0.1 0.22 0 0 0.225 0 0.02 0.225 0 0.04 0.225 0 0.06 0.225 0 0.08 0.225 0 0.1 0.225 0 0 0.23 0 0.02 0.23 0 0.04 0.23 0 0.06 0.23 0 0.08 0.23 0 0.1 0.23 0 0 0.235 0 0.02 0.235 0 0.04 0.235 0 0.06 0.235 0 0.08 0.235 0 0.1 0.235 0 0 0.24 0 0.02 0.24 0 0.04 0.24 0 0.06 0.24 0 0.08 0.24 0 0.1 0.24 0 0 0.245 0 0.02 0.245 0 0.04 0.245 0 0.06 0.245 0 0.08 0.245 0 0.1 0.245 0 0 0.250001 0 0.02 0.250001 0 0.04 0.250001 0 0.06 0.250001 0 0.08 0.250001 0 0.1 0.250001 0 0 0.255003 0 0.02 0.255003 0 0.04 0.255003 0 0.06 0.255003 0 0.08 0.255003 0 0.1 0.255003 0 0 0.260009 0 0.02 0.260009 0 0.04 0.260009 0 0.06 0.260009 0 0.08 0.260009 0 0.1 0.260009 0 0 0.265022 0 0.02 0.265022 0 0.04 0.265022 0 0.06 0.265022 0 0.08 0.265022 0 0.1 0.265022 0 0 0.27005 0 0.02 0.27005 0 0.04 0.27005 0 0.06 0.27005 0 0.08 0.27005 0 0.1 0.27005 0 0 0.275105 0 0.02 0.275105 0 0.04 0.275105 0 0.06 0.275105 0 0.08 0.275105 0 0.1 0.275105 0 0 0.280201 0 0.02 0.280201 0 0.04 0.280201 0 0.06 0.280201 0 0.08 0.280201 0 0.1 0.280201 0 0 0.285355 0 0.02 0.285355 0 0.04 0.285355 0 0.06 0.285355 0 0.08 0.285355 0 0.1 0.285355 0 0 0.29058 0 0.02 0.29058 0 0.04 0.29058 0 0.06 0.29058 0 0.08 0.29058 0 0.1 0.29058 0 0 0.29589 0 0.02 0.29589 0 0.04 0.29589 0 0.06 0.29589 0 0.08 0.29589 0 0.1 0.29589 0 0 0.301296 0 0.02 0.301296 0 0.04 0.301296 0 0.06 0.301296 0 0.08 0.301296 0 0.1 0.301296 0 0 0.306805 0 0.02 0.306805 0 0.04 0.306805 0 0.06 0.306805 0 0.08 0.306805 0 0.1 0.306805 0 0 0.312425 0 0.02 0.312425 0 0.04 0.312425 0 0.06 0.312425 0 0.08 0.312425 0 0.1 0.312425 0 0 0.318162 0 0.02 0.318162 0 0.04 0.318162 0 0.06 0.318162 0 0.08 0.318162 0 0.1 0.318162 0 0 0.324025 0 0.02 0.324025 0 0.04 0.324025 0 0.06 0.324025 0 0.08 0.324025 0 0.1 0.324025 0 0 0.33002 0 0.02 0.33002 0 0.04 0.33002 0 0.06 0.33002 0 0.08 0.33002 0 0.1 0.33002 0 0 0.336154 0 0.02 0.336154 0 0.04 0.336154 0 0.06 0.336154 0 0.08 0.336154 0 0.1 0.336154 0 0 0.342436 0 0.02 0.342436 0 0.04 0.342436 0 0.06 0.342436 0 0.08 0.342436 0 0.1 0.342436 0 0 0.348873 0 0.02 0.348873 0 0.04 0.348873 0 0.06 0.348873 0 0.08 0.348873 0 0.1 0.348873 0 0 0.355476 0 0.02 0.355476 0 0.04 0.355476 0 0.06 0.355476 0 0.08 0.355476 0 0.1 0.355476 0 0 0.362253 0 0.02 0.362253 0 0.04 0.362253 0 0.06 0.362253 0 0.08 0.362253 0 0.1 0.362253 0 0 0.369216 0 0.02 0.369216 0 0.04 0.369216 0 0.06 0.369216 0 0.08 0.369216 0 0.1 0.369216 0 0 0.376377 0 0.02 0.376377 0 0.04 0.376377 0 0.06 0.376377 0 0.08 0.376377 0 0.1 0.376377 0 0 0.383748 0 0.02 0.383748 0 0.04 0.383748 0 0.06 0.383748 0 0.08 0.383748 0 0.1 0.383748 0 0 0.391343 0 0.02 0.391343 0 0.04 0.391343 0 0.06 0.391343 0 0.08 0.391343 0 0.1 0.391343 0 0 0.399179 0 0.02 0.399179 0 0.04 0.399179 0 0.06 0.399179 0 0.08 0.399179 0 0.1 0.399179 0 0 0.407271 0 0.02 0.407271 0 0.04 0.407271 0 0.06 0.407271 0 0.08 0.407271 0 0.1 0.407271 0 0 0.41564 0 0.02 0.41564 0 0.04 0.41564 0 0.06 0.41564 0 0.08 0.41564 0 0.1 0.41564 0 0 0.424306 0 0.02 0.424306 0 0.04 0.424306 0 0.06 0.424306 0 0.08 0.424306 0 0.1 0.424306 0 0 0.433293 0 0.02 0.433293 0 0.04 0.433293 0 0.06 0.433293 0 0.08 0.433293 0 0.1 0.433293 0 0 0.442626 0 0.02 0.442626 0 0.04 0.442626 0 0.06 0.442626 0 0.08 0.442626 0 0.1 0.442626 0 0 0.452334 0 0.02 0.452334 0 0.04 0.452334 0 0.06 0.452334 0 0.08 0.452334 0 0.1 0.452334 0 0 0.462447 0 0.02 0.462447 0 0.04 0.462447 0 0.06 0.462447 0 0.08 0.462447 0 0.1 0.462447 0 0 0.472999 0 0.02 0.472999 0 0.04 0.472999 0 0.06 0.472999 0 0.08 0.472999 0 0.1 0.472999 0 0 0.484017 0 0.02 0.484017 0 0.04 0.484017 0 0.06 0.484017 0 0.08 0.484017 0 0.1 0.484017 0 0 0.495521 0 0.02 0.495521 0 0.04 0.495521 0 0.06 0.495521 0 0.08 0.495521 0 0.1 0.495521 0 0 0.507487 0 0.02 0.507487 0 0.04 0.507487 0 0.06 0.507487 0 0.08 0.507487 0 0.1 0.507487 0 0 0.519765 0 0.02 0.519765 0 0.04 0.519765 0 0.06 0.519765 0 0.08 0.519765 0 0.1 0.519765 0 0 0.532039 0 0.02 0.532039 0 0.04 0.532039 0 0.06 0.532039 0 0.08 0.532039 0 0.1 0.532039 0 0 0.54421 0 0.02 0.54421 0 0.04 0.54421 0 0.06 0.54421 0 0.08 0.54421 0 0.1 0.54421 0 0 0.556268 0 0.02 0.556268 0 0.04 0.556268 0 0.06 0.556268 0 0.08 0.556268 0 0.1 0.556268 0 0 0.568227 0 0.02 0.568227 0 0.04 0.568227 0 0.06 0.568227 0 0.08 0.568227 0 0.1 0.568227 0 0 0.580115 0 0.02 0.580115 0 0.04 0.580115 0 0.06 0.580115 0 0.08 0.580115 0 0.1 0.580115 0 0 0.591962 0 0.02 0.591962 0 0.04 0.591962 0 0.06 0.591962 0 0.08 0.591962 0 0.1 0.591962 0 0 0.603787 0 0.02 0.603787 0 0.04 0.603787 0 0.06 0.603787 0 0.08 0.603787 0 0.1 0.603787 0 0 0.615603 0 0.02 0.615603 0 0.04 0.615603 0 0.06 0.615603 0 0.08 0.615603 0 0.1 0.615603 0 0 0.627415 0 0.02 0.627415 0 0.04 0.627415 0 0.06 0.627415 0 0.08 0.627415 0 0.1 0.627415 0 0 0.639225 0 0.02 0.639225 0 0.04 0.639225 0 0.06 0.639225 0 0.08 0.639225 0 0.1 0.639225 0 0 0.651034 0 0.02 0.651034 0 0.04 0.651034 0 0.06 0.651034 0 0.08 0.651034 0 0.1 0.651034 0 0 0.662843 0 0.02 0.662843 0 0.04 0.662843 0 0.06 0.662843 0 0.08 0.662843 0 0.1 0.662843 0 0 0.674658 0 0.02 0.674658 0 0.04 0.674658 0 0.06 0.674658 0 0.08 0.674658 0 0.1 0.674658 0 0 0.676938 0 0.02 0.676938 0 0.04 0.676938 0 0.06 0.676938 0 0.08 0.676938 0 0.1 0.676938 0 0 0.679218 0 0.02 0.679218 0 0.04 0.679218 0 0.06 0.679218 0 0.08 0.679218 0 0.1 0.679218 0 0 0.681498 0 0.02 0.681498 0 0.04 0.681498 0 0.06 0.681498 0 0.08 0.681498 0 0.1 0.681498 0 0 0.683778 0 0.02 0.683778 0 0.04 0.683778 0 0.06 0.683778 0 0.08 0.683778 0 0.1 0.683778 0 0 0.686057 0 0.02 0.686057 0 0.04 0.686057 0 0.06 0.686057 0 0.08 0.686057 0 0.1 0.686057 0 0 0.688335 0 0.02 0.688335 0 0.04 0.688335 0 0.06 0.688335 0 0.08 0.688335 0 0.1 0.688335 0 0 0.690611 0 0.02 0.690611 0 0.04 0.690611 0 0.06 0.690611 0 0.08 0.690611 0 0.1 0.690611 0 0 0.692887 0 0.02 0.692887 0 0.04 0.692887 0 0.06 0.692887 0 0.08 0.692887 0 0.1 0.692887 0 0 0.695165 0 0.02 0.695165 0 0.04 0.695165 0 0.06 0.695165 0 0.08 0.695165 0 0.1 0.695165 0 0 0.697439 0 0.02 0.697439 0 0.04 0.697439 0 0.06 0.697439 0 0.08 0.697439 0 0.1 0.697439 0 0 0.699715 0 0.02 0.699715 0 0.04 0.699715 0 0.06 0.699715 0 0.08 0.699715 0 0.1 0.699715 0 0 0.701993 0 0.02 0.701993 0 0.04 0.701993 0 0.06 0.701993 0 0.08 0.701993 0 0.1 0.701993 0 0 0.704271 0 0.02 0.704271 0 0.04 0.704271 0 0.06 0.704271 0 0.08 0.704271 0 0.1 0.704271 0 0 0.706549 0 0.02 0.706549 0 0.04 0.706549 0 0.06 0.706549 0 0.08 0.706549 0 0.1 0.706549 0 0 0.708826 0 0.02 0.708826 0 0.04 0.708826 0 0.06 0.708826 0 0.08 0.708826 0 0.1 0.708826 0 0 0.711104 0 0.02 0.711104 0 0.04 0.711104 0 0.06 0.711104 0 0.08 0.711104 0 0.1 0.711104 0 0 0.713385 0 0.02 0.713385 0 0.04 0.713385 0 0.06 0.713385 0 0.08 0.713385 0 0.1 0.713385 0 0 0.715665 0 0.02 0.715665 0 0.04 0.715665 0 0.06 0.715665 0 0.08
[...]
			<PointData Scalars="VitesseX">
				<DataArray Name="VitesseX" type="Float32" format="ascii">
 0 0 0 0 0 0 0 -7.54864e-16 1.91084e-15 3.51275e-15 -3.32841e-15 0 0 -5.50101e-16 3.22961e-15 1.57939e-15 -6.65355e-16 0 0 -7.90592e-16 4.86084e-15 5.87578e-16 3.95013e-16 0 0 -3.63651e-17 4.46525e-15 1.04127e-15 9.43473e-16 0 0 -1.62744e-15 6.60787e-15 -5.39172e-16 1.82495e-15 0 0 -1.11062e-15 7.19185e-15 -1.58321e-15 2.44463e-15 0 0 1.91128e-15 4.0953e-15 -5.5808e-16 2.36837e-15 0 0 3.91125e-16 4.88468e-15 -1.1816e-15 3.17965e-15 0 0 -2.04301e-15 7.94565e-15 -4.7804e-15 2.79587e-15 0 0 -1.294e-15 5.58476e-15 -4.68274e-15 1.01605e-15 0 0 1.28262e-15 4.07055e-18 -2.37572e-15 2.46282e-15 0 0 6.32748e-16 3.9956e-16 -5.90608e-15 5.57669e-15 0 0 -4.80726e-16 -1.69398e-15 -7.76826e-17 1.00731e-15 0 0 -2.7678e-15 -3.58771e-15 8.92686e-15 -6.40595e-15 0 0 -9.93798e-16 -3.05827e-15 5.64064e-15 -4.52171e-15 0 0 -7.41558e-16 -1.22219e-15 -6.7708e-16 -9.24139e-16 0 0 -2.33467e-16 -2.20465e-15 -1.12395e-15 -8.33914e-17 0 0 2.93664e-15 -2.95914e-15 -1.12285e-15 -1.08685e-15 0 0 3.14228e-15 2.56177e-16 -1.60364e-15 -6.38254e-15 0 0 3.49102e-15 2.27438e-15 -2.81338e-15 -1.11953e-14 0 0 4.16069e-15 8.83643e-16 -5.17603e-15 -3.94046e-15 0 0 2.14416e-15 4.53262e-15 -8.78851e-15 5.67148e-15 0 0 4.8179e-15 1.6867e-15 -2.24104e-15 -3.57479e-16 0 0 4.94071e-15 -2.52177e-15 7.93813e-15 -4.47936e-15 0 0 -7.83107e-16 -3.18068e-15 1.56153e-14 -6.44715e-15 0 0 3.43204e-15 -1.03588e-14 2.13397e-14 -9.70998e-15 0 0 2.81173e-15 -8.76361e-15 1.75066e-14 -7.45991e-15 0 0 -2.70182e-15 -1.70145e-15 6.32707e-15 -3.90997e-15 0 0 -3.73407e-15 -3.751e-15 3.68342e-15 2.58243e-15 0 0 2.47502e-16 -6.49197e-15 3.43407e-16 7.22132e-15 0 0 4.89248e-15 -2.45857e-15 -7.84217e-15 4.47418e-15 0 0 2.33005e-15 1.15234e-15 2.78223e-15 -1.15369e-14 0 0 -2.89738e-16 5.06466e-15 7.75083e-15 -1.30016e-14 0 0 1.08149e-14 -5.75813e-15 4.25464e-15 2.82867e-16 0 0 1.26342e-14 3.97436e-15 3.55946e-15 7.30779e-16 0 0 8.4609e-15 2.04504e-14 -4.67683e-15 1.39398e-15 0 0 2.0262e-14 1.51256e-14 -6.91326e-15 -9.73001e-15 0 0 2.20095e-14 9.8163e-15 3.74963e-15 -2.85635e-14 0 0 8.01046e-15 2.98277e-15 3.24388e-15 -1.22297e-14 0 0 2.11778e-15 -4.3794e-15 1.48459e-14 -1.2793e-14 0 0 -2.24336e-14 -3.99968e-15 1.76232e-14 -7.8788e-15 0 0 -4.31538e-14 -1.33889e-14 8.30038e-15 1.30431e-14 0 0 -2.02586e-14 -3.70005e-14 8.82558e-15 -1.10161e-14 0 0 -1.77246e-14 -3.63375e-14 -2.12614e-14 -1.60957e-14 0 0 -2.25152e-14 -3.44971e-14 -2.41771e-14 -2.93004e-14 0 0 2.46491e-16 -4.41264e-14 -2.16834e-14 -4.72673e-14 0 0 -2.51554e-15 -3.72231e-14 -3.60591e-14 -3.82622e-14 0 0 -2.12818e-14 -9.72847e-15 -3.2199e-14 -3.80045e-14 0 0 -1.7795e-14 1.59084e-14 -4.41703e-14 -3.69905e-14 0 0 -5.23429e-15 -1.60365e-15 -3.83468e-14 -1.73563e-14 0 0 1.64719e-14 -4.012e-14 -2.40807e-14 2.8669e-14 0 0 2.3574e-14 -5.27898e-14 -4.54275e-15 2.80497e-14 0 0 9.67758e-15 -3.08571e-14 -3.81569e-15 6.21603e-15 0 0 1.02338e-14 -4.82422e-15 -2.43726e-14 5.05545e-15 0 0 1.96623e-15 5.29956e-15 -3.01367e-14 2.23773e-14 0 0 -8.03957e-15 2.50486e-15 -3.08731e-14 3.66577e-14 0 0 3.88347e-15 -1.73758e-16 -3.04246e-14 3.01344e-14 0 0 2.76478e-15 1.77683e-14 -2.48649e-14 1.40448e-14 0 0 2.29584e-14 -6.81699e-15 1.60415e-14 -2.53061e-14 0 0 2.17317e-14 -2.53296e-14 3.89011e-14 -3.62592e-14 0 0 1.27891e-14 -1.19154e-14 2.90812e-14 -7.59398e-15 0 0 2.02307e-15 -6.08343e-16 2.27685e-14 8.80909e-16 0 0 -2.23392e-14 -3.60631e-16 3.63207e-14 -1.62937e-14 0 0 -1.01391e-14 6.24944e-15 2.07379e-14 -1.64374e-14 0 0 -7.68609e-15 3.11551e-14 -1.49396e-14 6.91824e-15 0 0 -9.90551e-15 2.1369e-14 -2.11238e-14 3.34823e-14 0 0 2.67485e-14 -1.88795e-14 -1.0446e-14 2.47714e-14 0 0 4.57431e-14 -5.50679e-14 2.79442e-14 1.2633e-14 0 0 3.26312e-14 -3.75801e-14 2.90484e-14 3.31266e-14 0 0 1.02709e-14 9.67754e-15 -4.61209e-15 2.37102e-14 0 0 -1.05315e-14 2.70615e-14 -6.61787e-15 7.03191e-15 0 0 -5.51535e-15 9.00023e-15 3.14985e-14 5.43504e-15 0 0 6.89155e-15 2.82973e-17 4.91132e-14 -2.66655e-14 0 0 2.11284e-14 9.99758e-15 9.96786e-15 -4.40468e-16 0 0 -4.76861e-15 2.84485e-14 -1.72253e-14 5.5954e-14 0 0 -6.73406e-15 5.9388e-15 -7.34072e-15 4.69872e-14 0 0 1.09808e-14 -5.13392e-15 3.30388e-15 2.6048e-17 0 0 -5.04329e-16 1.0514e-14 1.17311e-14 7.65742e-15 0 0 8.89069e-15 -1.19568e-14 4.01088e-14 2.8517e-14 0 0 2.16795e-14 1.10179e-14 3.80099e-14 1.92879e-15 0 0 2.8088e-14 5.39786e-14 -2.35293e-14 1.85557e-15 0 0 1.77523e-14 1.99858e-14 -1.03145e-14 3.5846e-14 0 0 -8.25455e-15 1.52969e-15 4.89423e-14 1.53469e-14 0 0 1.39162e-14 1.74205e-14 5.43167e-14 -5.50655e-15 0 0 3.53556e-14 2.94862e-14 4.57521e-14 4.27938e-14 0 0 7.31609e-15 3.70582e-14 3.57699e-14 3.19867e-14 0 0 -5.89852e-14 -1.34339e-13 -1.17148e-13 -6.42717e-14 0 0 -2.17391e-13 -4.20407e-13 -3.93867e-13 -2.44766e-13 0 0 -3.91407e-13 -6.04059e-13 -6.15926e-13 -3.96888e-13 0 0 -4.12516e-13 -6.62943e-13 -6.5831e-13 -3.94407e-13 0 0 -2.61883e-13 -4.44796e-13 -4.25117e-13 -2.68949e-13 0 0 3.35661e-14 7.87085e-14 6.90152e-14 4.07754e-14 0 0 4.53109e-13 7.26653e-13 7.37504e-13 4.51725e-13 0 0 8.45234e-13 1.33612e-12 1.34501e-12 8.15122e-13 0 0 1.06357e-12 1.74053e-12 1.72042e-12 1.0697e-12 0 0 1.12638e-12 1.83382e-12 1.82496e-12 1.12699e-12 0 0 1.06566e-12 1.70499e-12 1.70326e-12 1.06496e-12 0 0 9.39861e-13 1.53608e-12 1.52659e-12 9.57834e-13 0 0 6.06736e-13 9.72026e-13 9.91303e-13 6.14807e-13 0 0 2.33408e-13 3.41415e-13 3.71255e-13 2.52963e-13 0 0 -3.90076e-13 -6.24612e-13 -5.07747e-13 -3.96041e-13 0 0 -5.62714e-13 -8.3924e-13 -8.12306e-13 -5.35839e-13 0 0 -8.77002e-13 -1.40209e-12 -1.39076e-12 -8.65615e-13 0 0 -1.34932e-12 -2.19085e-12 -2.15985e-12 -1.33107e-12 0 0 -1.73075e-12 -2.8105e-12 -2.76963e-12 -1.72121e-12 0 0 -1.56242e-12 -2.49787e-12 -2.54382e-12 -1.56085e-12 0 0 5.46844e-13 9.44794e-13 8.92426e-13 5.56253e-13 0 0 4.21003e-12 6.83008e-12 6.83963e-12 4.23124e-12 0 0 7.75245e-12 1.25577e-11 1.2583e-11 7.78225e-12 0 0 9.6514e-12 1.56541e-11 1.5631e-11 9.6682e-12 0 0 9.56411e-12 1.54745e-11 1.5489e-11 9.56674e-12 0 0 8.48188e-12 1.37302e-11 1.37541e-11 8.48962e-12 0 0 7.26179e-12 1.17887e-11 1.17985e-11 7.28851e-12 0 0 6.12752e-12 9.90483e-12 9.93655e-12 6.14775e-12 0 0 5.08227e-12 8.20658e-12 8.23878e-12 5.10412e-12 0 0 4.10795e-12 6.65505e-12 6.67504e-12 4.15296e-12 0 0 3.26743e-12 5.30725e-12 5.26124e-12 3.3031e-12 0 0 2.56056e-12 4.1775e-12 4.1559e-12 2.6298e-12 0 0 1.9884e-12 3.23865e-12 3.22171e-12 1.98817e-12 0 0 1.52563e-12 2.4704e-12 2.39224e-12 1.46134e-12 0 0 1.1359e-12 1.82538e-12 1.82707e-12 1.10584e-12 0 0 8.28236e-13 1.3354e-12 1.33923e-12 8.05621e-13 0 0 5.94408e-13 9.98541e-13 9.96493e-13 5.65399e-13 0 0 4.50583e-13 7.68628e-13 7.70796e-13 3.90881e-13 0 0 3.47758e-13 5.8988e-13 5.53098e-13 2.67062e-13 0 0 2.39092e-13 4.18367e-13 4.06873e-13 1.9667e-13 0 0 1.14577e-13 2.37324e-13 2.00888e-13 1.53055e-13 0 0 1.02096e-14 6.38631e-14 -1.55932e-14 6.69897e-14 0 0 -4.45268e-14 -5.76081e-14 -9.18919e-14 2.14588e-14 0 0 -8.54041e-14 -1.27612e-13 -1.5785e-13 -3.61021e-14 0 0 -9.8107e-14 -9.31982e-14 -1.95213e-13 -5.2228e-14 0 0 -7.80822e-14 -9.38573e-14 -8.20496e-14 1.26175e-14 0 0 -1.0968e-14 -7.49142e-14 -3.19854e-14 1.78087e-15 0 0 6.86346e-14 4.7872e-14 7.355e-14 2.72219e-14 0 0 1.4921e-13 2.06317e-13 2.37855e-13 1.36723e-13 0 0 2.29717e-13 4.0676e-13 3.52548e-13 2.20555e-13 0 0 2.96938e-13 5.29346e-13 4.28639e-13 3.25518e-13 0 0 3.95998e-13 6.03076e-13 5.50346e-13 3.29713e-13 0 0 4.71386e-13 7.25867e-13 7.28066e-13 4.22806e-13 0 0 5.48465e-13 9.06449e-13 9.2899e-13 5.64578e-13 0 0 7.00026e-13 1.10465e-12 1.13481e-12 6.2948e-13 0 0 8.33467e-13 1.32405e-12 1.35951e-12 7.21633e-13 0 0 9.58743e-13 1.5494e-12 1.59058e-12 8.67657e-13 0 0 1.14055e-12 1.72856e-12 1.83579e-12 1.0368e-12 0 0 1.26943e-12 1.87918e-12 2.06699e-12 1.12427e-12 0 0 1.32844e-12 2.02364e-12 2.14728e-12 1.20011e-12 0 0 1.36337e-12 2.19397e-12 2.15051e-12 1.34873e-12 0 0 1.43538e-12 2.34625e-12 2.2974e-12 1.44279e-12 0 0 1.51279e-12 2.51005e-12 2.41555e-12 1.52062e-12 0 0 1.58207e-12 2.6204e-12 2.47637e-12 1.65117e-12 0 0 1.6761e-12 2.62522e-12 2.57375e-12 1.75758e-12 0 0 1.71084e-12 2.69495e-12 2.58914e-12 1.79398e-12 0 0 1.74516e-12 2.75025e-12 2.7056e-12 1.75834e-12 0 0 1.71921e-12 2.81982e-12 2.75587e-12 1.77077e-12 0 0 1.65277e-12 2.83614e-12 2.70248e-12 1.74729e-12 0 0 1.62305e-12 2.65616e-12 2.68534e-12 1.66002e-12 0 0 1.55033e-12 2.41968e-12 2.50039e-12 1.64951e-12 0 0 1.48032e-12 2.22332e-12 2.31466e-12 1.62077e-12 0 0 1.30165e-12 1.85558e-12 2.04304e-12 1.42257e-12 0 0 1.06726e-12 1.59188e-12 1.77543e-12 1.20753e-12 0 0 8.13631e-13 1.41511e-12 1.46641e-12 1.04797e-12 0 0 5.86735e-13 1.07594e-12 1.13011e-12 6.95528e-13 0 0 4.27503e-13 6.92445e-13 8.73025e-13 3.24625e-13 0 0 2.47309e-13 4.15107e-13 4.7344e-13 1.92313e-13 0 0 7.83788e-14 1.75748e-13 1.72318e-13 1.14501e-13 0 0 -2.26101e-14 -1.06438e-14 1.89512e-15 -3.64368e-14 0 0 -7.16659e-14 -1.02045e-13 -1.0302e-13 -8.73004e-14 0 0 -8.63134e-14 -1.1024e-13 -1.27767e-13 -7.68313e-14 0 0 -7.12111e-14 -9.88011e-14 -1.08301e-13 -7.8813e-14 0 0 -5.63937e-14 -1.08836e-13 -9.17949e-14 -3.17749e-14 0 0 -6.45678e-14 -6.80063e-14 -1.12427e-13 -2.54686e-14 0 0 -5.29402e-14 -8.10374e-14 -1.00318e-13 -3.48919e-14 0 0 -5.34821e-14 -7.65432e-14 -9.27817e-14 -7.01055e-14 0 0 -6.51213e-14 -4.46562e-14 -1.0283e-13 -6.00887e-14 0 0 -5.98261e-14 -6.10305e-14 -6.62627e-14 -6.20595e-14 0 0 -5.50837e-14 -7.66363e-14 -5.27935e-14 -8.63072e-14 0 0 -5.50415e-14 -6.54476e-14 -9.86747e-14 -3.6165e-14 0 0 -7.39459e-14 -5.99525e-14 -6.37163e-14 -6.26239e-14 0 0 -8.05592e-14 -5.05485e-14 -2.06757e-14 -1.3878e-13 0 0 -7.73345e-14 -4.31483e-14 -4.81266e-14 -8.76083e-14 0 0 -7.98751e-14 -6.18733e-14 -4.18295e-14 -6.9622e-14 0 0 -7.80817e-14 -7.36749e-14 -4.63337e-14 -6.72e-14 0 0 -8.68758e-14 -7.78639e-14 -3.71256e-14 -3.63806e-14 0 0 -1.08165e-13 -7.19267e-14 -3.32834e-14 -4.52734e-14 0 0 -1.12702e-13 -4.52134e-14 -1.07515e-13 1.8368e-15 0 0 -9.17119e-14 -5.18392e-14 -1.16495e-13 2.73863e-14 0 0 -4.90605e-14 -1.0927e-13 -4.65949e-14 -2.16668e-14 0 0 -3.88957e-14 -1.18847e-13 -9.98694e-16 -3.91079e-14 0 0 -5.70327e-14 -7.40088e-14 -1.29393e-14 -1.86602e-14 0 0 -5.00301e-14 -4.77179e-14 -3.89545e-14 2.0949e-14 0 0 -1.08062e-14 -6.50384e-14 3.65167e-15 1.09183e-14 0 0 3.27187e-15 -7.88878e-14 5.89056e-14 -3.854e-14 0 0 1.76105e-14 -9.448e-14 6.86767e-14 -5.27496e-14 0 0 2.51133e-14 -8.19493e-14 -3.32614e-14 4.49145e-15 0 0 -2.61597e-15 -2.59081e-14 -1.69806e-13 1.0402e-13 0 0 -2.56916e-14 -5.36626e-14 -8.05406e-14 -1.34462e-14 0 0 -4.54929e-14 -1.13327e-13 2.18462e-14 -1.44229e-13 0 0 -2.74819e-14 -8.70467e-14 -7.75078e-14 -8.41934e-14 0 0 -4.38547e-14 -1.99562e-14 -1.76177e-13 -3.29827e-14 0 0 0 0 0 0 0
				</DataArray>
				<DataArray Name="VitesseY" type="Float32" format="ascii">
 0 0 0 0 0 0 0 -1.06361e-15 1.35105e-15 -1.57603e-15 3.474e-15 0 0 -2.05091e-15 2.71011e-15 2.15103e-15 7.18829e-16 0 0 -2.9417e-16 5.6842e-16 3.58559e-15 5.22446e-15 0 0 5.11385e-16 9.10154e-16 -1.41623e-15 5.16013e-16 0 0 -3.50374e-15 -2.1772e-15 2.62099e-15 -1.60924e-15 0 0 3.18162e-15 5.60272e-15 -1.31173e-15 1.79284e-15 0 0 6.40554e-15 3.46966e-15 1.68973e-15 1.88894e-15 0 0 3.65394e-16 3.07448e-16 2.83084e-15 3.01161e-15 0 0 4.24156e-15 6.9109e-15 2.08371e-15 -1.36294e-14 0 0 8.90578e-15 -3.01684e-17 -4.25466e-15 5.22864e-15 0 0 9.37805e-15 6.6534e-15 -2.02165e-15 4.16047e-15 0 0 5.39583e-15 6.83558e-15 3.56254e-15 -4.12582e-15 0 0 1.41749e-14 -9.78043e-16 1.72412e-14 3.10204e-14 0 0 1.18124e-15 -1.03228e-15 8.07115e-15 2.64421e-15 0 0 8.89532e-15 1.94299e-14 -7.31252e-16 1.48578e-16 0 0 1.17483e-14 9.32142e-15 1.18822e-14 8.6304e-16 0 0 1.24985e-14 1.31842e-14 4.26767e-15 1.78139e-14 0 0 5.16181e-15 1.40141e-14 1.89397e-14 1.768e-15 0 0 9.15448e-15 1.43598e-14 1.9819e-14 1.44105e-14 0 0 7.8816e-15 1.16311e-14 1.01533e-14 -8.09238e-15 0 0 1.69099e-14 9.5952e-15 -3.65809e-15 3.45672e-14 0 0 -2.54926e-15 1.10119e-14 2.43602e-14 1.07648e-14 0 0 1.34282e-14 -1.35872e-15 2.69729e-16 1.68083e-14 0 0 -7.26612e-15 -8.70081e-15 1.34733e-14 2.1674e-14 0 0 2.08966e-14 -3.07608e-15 2.98172e-15 1.74941e-14 0 0 9.85042e-15 2.14368e-14 9.81063e-15 5.50217e-15 0 0 6.53328e-15 -1.63436e-15 1.37065e-15 -3.55704e-16 0 0 1.53956e-14 3.0139e-14 1.04938e-14 -1.8014e-14 0 0 2.18019e-14 -4.63836e-15 -4.0667e-15 3.99145e-14 0 0 2.60198e-14 5.7597e-14 3.25803e-14 -6.16233e-15 0 0 3.2246e-14 3.58054e-14 4.36727e-14 3.89987e-14 0 0 2.11141e-14 2.25093e-14 7.10028e-14 5.41368e-14 0 0 3.73827e-14 4.13879e-14 2.83755e-14 5.93149e-14 0 0 7.84251e-14 7.50959e-14 3.11194e-14 3.95875e-14 0 0 2.46906e-14 7.3609e-14 1.53904e-13 1.44719e-13 0 0 2.25382e-13 2.25356e-13 1.7814e-13 1.57202e-13 0 0 1.24585e-12 1.27214e-12 1.28864e-12 1.25637e-12 0 0 7.42535e-12 7.38539e-12 7.38951e-12 7.38953e-12 0 0 4.32115e-11 4.31679e-11 4.31344e-11 4.31981e-11 0 0 2.39602e-10 2.39593e-10 2.39644e-10 2.39624e-10 0 0 1.26482e-09 1.26473e-09 1.2647e-09 1.26475e-09 0 0 6.33766e-09 6.33763e-09 6.33759e-09 6.33759e-09 0 0 3.0086e-08 3.00861e-08 3.0086e-08 3.00859e-08 0 0 1.35003e-07 1.35003e-07 1.35003e-07 1.35003e-07 0 0 5.71133e-07 5.71133e-07 5.71133e-07 5.71133e-07 0 0 2.27129e-06 2.27129e-06 2.27129e-06 2.27129e-06 0 0 8.46225e-06 8.46225e-06 8.46225e-06 8.46225e-06 0 0 2.94225e-05 2.94225e-05 2.94225e-05 2.94225e-05 0 0 9.50331e-05 9.50331e-05 9.50331e-05 9.50331e-05 0 0 0.000283634 0.000283634 0.000283634 0.000283634 0 0 0.00077747 0.00077747 0.00077747 0.00077747 0 0 0.00194437 0.00194437 0.00194437 0.00194437 0 0 0.00440846 0.00440846 0.00440846 0.00440846 0 0 0.00901965 0.00901965 0.00901965 0.00901965 0 0 0.0166358 0.0166358 0.0166358 0.0166358 0 0 0.0277765 0.0277765 0.0277765 0.0277765 0 0 0.0423926 0.0423926 0.0423926 0.0423926 0 0 0.05995 0.05995 0.05995 0.05995 0 0 0.0797351 0.0797351 0.0797351 0.0797351 0 0 0.101128 0.101128 0.101128 0.101128 0 0 0.123708 0.123708 0.123708 0.123708 0 0 0.14723 0.14723 0.14723 0.14723 0 0 0.171567 0.171567 0.171567 0.171567 0 0 0.196656 0.196656 0.196656 0.196656 0 0 0.222472 0.222472 0.222472 0.222472 0 0 0.249011 0.249011 0.249011 0.249011 0 0 0.276282 0.276282 0.276282 0.276282 0 0 0.304305 0.304305 0.304305 0.304305 0 0 0.333103 0.333103 0.333103 0.333103 0 0 0.362708 0.362708 0.362708 0.362708 0 0 0.393157 0.393157 0.393157 0.393157 0 0 0.424492 0.424492 0.424492 0.424492 0 0 0.456757 0.456757 0.456757 0.456757 0 0 0.490004 0.490004 0.490004 0.490004 0 0 0.524286 0.524286 0.524286 0.524286 0 0 0.559663 0.559663 0.559663 0.559663 0 0 0.596194 0.596194 0.596194 0.596194 0 0 0.633939 0.633939 0.633939 0.633939 0 0 0.672952 0.672952 0.672952 0.672952 0 0 0.713273 0.713273 0.713273 0.713273 0 0 0.754901 0.754901 0.754901 0.754901 0 0 0.797753 0.797753 0.797753 0.797753 0 0 0.841552 0.841552 0.841552 0.841552 0 0 0.885535 0.885535 0.885535 0.885535 0 0 0.927667 0.927667 0.927667 0.927667 0 0 0.962303 0.962303 0.962303 0.962303 0 0 0.974519 0.974519 0.974519 0.974519 0 0 0.965543 0.965543 0.965543 0.965543 0 0 0.956495 0.956495 0.956495 0.956495 0 0 0.947929 0.947929 0.947929 0.947929 0 0 0.941526 0.941526 0.941526 0.941526 0 0 0.937574 0.937574 0.937574 0.937574 0 0 0.9355 0.9355 0.9355 0.9355 0 0 0.934541 0.934541 0.934541 0.934541 0 0 0.934116 0.934116 0.934116 0.934116 0 0 0.933894 0.933894 0.933894 0.933894 0 0 0.933737 0.933737 0.933737 0.933737 0 0 0.933662 0.933662 0.933662 0.933662 0 0 0.933921 0.933921 0.933921 0.933921 0 0 0.933855 0.933855 0.933855 0.933855 0 0 0.933786 0.933786 0.933786 0.933786 0 0 0.933689 0.933689 0.933689 0.933689 0 0 0.933563 0.933563 0.933563 0.933563 0 0 0.933416 0.933416 0.933416 0.933416 0 0 0.933253 0.933253 0.933253 0.933253 0 0 0.933091 0.933091 0.933091 0.933091 0 0 0.932938 0.932938 0.932938 0.932938 0 0 0.932809 0.932809 0.932809 0.932809 0 0 0.932707 0.932707 0.932707 0.932707 0 0 0.932639 0.932639 0.932639 0.932639 0 0 0.9326 0.9326 0.9326 0.9326 0 0 0.932587 0.932587 0.932587 0.932587 0 0 0.932599 0.932599 0.932599 0.932599 0 0 0.932791 0.932791 0.932791 0.932791 0 0 0.933373 0.933373 0.933373 0.933373 0 0 0.933878 0.933878 0.933878 0.933878 0 0 0.933649 0.933649 0.933649 0.933649 0 0 0.933545 0.933545 0.933545 0.933545 0 0 0.933418 0.933418 0.933418 0.933418 0 0 0.933241 0.933241 0.933241 0.933241 0 0 0.933115 0.933115 0.933115 0.933115 0 0 0.932996 0.932996 0.932996 0.932996 0 0 0.932947 0.932947 0.932947 0.932947 0 0 0.932942 0.932942 0.932942 0.932942 0 0 0.933302 0.933302 0.933302 0.933302 0 0 0.934314 0.934314 0.934314 0.934314 0 0 0.934291 0.934291 0.934291 0.934291 0 0 0.934052 0.934052 0.934052 0.934052 0 0 0.933711 0.933711 0.933711 0.933711 0 0 0.93329 0.93329 0.93329 0.93329 0 0 0.93293 0.93293 0.93293 0.93293 0 0 0.932649 0.932649 0.932649 0.932649 0 0 0.93242 0.93242 0.93242 0.93242 0 0 0.932343 0.932343 0.932343 0.932343 0 0 0.932419 0.932419 0.932419 0.932419 0 0 0.933528 0.933528 0.933528 0.933528 0 0 0.93414 0.93414 0.93414 0.93414 0 0 0.933934 0.933934 0.933934 0.933934 0 0 0.933519 0.933519 0.933519 0.933519 0 0 0.93331 0.93331 0.93331 0.93331 0 0 0.933161 0.933161 0.933161 0.933161 0 0 0.933004 0.933004 0.933004 0.933004 0 0 0.932974 0.932974 0.932974 0.932974 0 0 0.933187 0.933187 0.933187 0.933187 0 0 0.933281 0.933281 0.933281 0.933281 0 0 0.933057 0.933057 0.933057 0.933057 0 0 0.932763 0.932763 0.932763 0.932763 0 0 0.932449 0.932449 0.932449 0.932449 0 0 0.932232 0.932232 0.932232 0.932232 0 0 0.931978 0.931978 0.931978 0.931978 0 0 0.931798 0.931798 0.931798 0.931798 0 0 0.931514 0.931514 0.931514 0.931514 0 0 0.931468 0.931468 0.931468 0.931468 0 0 0.932825 0.932825 0.932825 0.932825 0 0 0.936445 0.936445 0.936445 0.936445 0 0 0.935782 0.935782 0.935782 0.935782 0 0 0.915578 0.915578 0.915578 0.915578 0 0 0.928887 0.928887 0.928887 0.928887 0 0 0.861793 0.861793 0.861793 0.861793 0 0 0.812949 0.812949 0.812949 0.812949 0 0 0.806977 0.806977 0.806977 0.806977 0 0 0.700595 0.700595 0.700595 0.700595 0 0 0.614098 0.614098 0.614098 0.614098 0 0 0.502593 0.502593 0.502593 0.502593 0 0 0.382239 0.382239 0.382239 0.382239 0 0 0.261046 0.261046 0.261046 0.261046 0 0 0.158281 0.158281 0.158281 0.158281 0 0 0.0832083 0.0832083 0.0832083 0.0832083 0 0 0.0383494 0.0383494 0.0383494 0.0383494 0 0 0.0160305 0.0160305 0.0160305 0.0160305 0 0 0.00634456 0.00634456 0.00634456 0.00634456 0 0 0.00244844 0.00244844 0.00244844 0.00244844 0 0 0.000934966 0.000934966 0.000934966 0.000934966 0 0 0.000355473 0.000355473 0.000355473 0.000355473 0 0 0.000134873 0.000134873 0.000134873 0.000134873 0 0 5.11039e-05 5.11039e-05 5.11039e-05 5.11039e-05 0 0 1.93377e-05 1.93377e-05 1.93377e-05 1.93377e-05 0 0 7.30591e-06 7.30591e-06 7.30591e-06 7.30591e-06 0 0 2.75491e-06 2.75491e-06 2.75491e-06 2.75491e-06 0 0 1.03638e-06 1.03638e-06 1.03638e-06 1.03638e-06 0 0 3.88787e-07 3.88787e-07 3.88787e-07 3.88787e-07 0 0 1.45371e-07 1.45371e-07 1.45371e-07 1.45371e-07 0 0 5.41497e-08 5.41496e-08 5.41497e-08 5.41498e-08 0 0 2.00838e-08 2.00838e-08 2.00837e-08 2.00836e-08 0 0 7.41322e-09 7.41331e-09 7.41321e-09 7.41319e-09 0 0 2.72176e-09 2.72172e-09 2.72175e-09 2.72184e-09 0 0 9.93622e-10 9.93602e-10 9.93616e-10 9.93607e-10 0 0 3.60379e-10 3.60402e-10 3.60532e-10 3.60653e-10 0 0 1.29867e-10 1.29952e-10 1.29953e-10 1.29865e-10 0 0 4.65063e-11 4.65553e-11 4.65557e-11 4.66976e-11 0 0 1.65556e-11 1.65941e-11 1.66945e-11 1.66826e-11 0 0 5.85034e-12 5.81265e-12 5.87831e-12 5.91337e-12 0 0 2.18545e-12 2.21839e-12 2.1291e-12 2.07637e-12 0 0 7.6636e-13 8.13807e-13 5.45258e-13 4.20235e-13 0 0 2.30347e-13 2.96111e-13 2.42207e-13 2.19087e-13 0 0 1.06575e-13 -1.61919e-13 1.3791e-13 4.86264e-14 0 0 7.97637e-14 2.99181e-14 -9.90075e-14 -1.23785e-13 0 0 5.28597e-14 2.79277e-13 1.15766e-13 -1.72152e-14 0 0 -3.52638e-14 -5.97907e-14 -2.29604e-14 -7.88052e-14 0 0 0 0 0 0 0
				</DataArray>
			</PointData>
			<CellData Scalars="Density">
				<DataArray Name="Density" type="Float32" format="ascii">