<?xml version="1.0"?>
<VTKFile type="PolyData">
	<PolyData>
		<Piece NumberOfPoints="1206" NumberOfPolys="1000">
			<Points>
				<DataArray type="Float32" NumberOfComponents="3" format="ascii">
 0 0 0 0.005 0 0 0.01 0 0 0.015 0 0 0.02 0 0 0.025 0 0 0.03 0 0 0.035 0 0 0.04 0 0 0.045 0 0 0.05 0 0 0.055 0 0 0.06 0 0 0.065 0 0 0.07 0 0 0.075 0 0 0.08 0 0 0.085 0 0 0.09 0 0 0.095 0 0 0.1 0 0 0.105 0 0 0.11 0 0 0.115 0 0 0.12 0 0 0.125 0 0 0.13 0 0 0.135 0 0 0.14 0 0 0.145 0 0 0.15 0 0 0.155 0 0 0.16 0 0 0.165 0 0 0.17 0 0 0.175 0 0 0.18 0 0 0.185 0 0 0.19 0 0 0.195 0 0 0.2 0 0 0.205 0 0 0.21 0 0 0.215 0 0 0.22 0 0 0.225 0 0 0.23 0 0 0.235 0 0 0.24 0 0 0.245 0 0 0.25 0 0 0.255 0 0 0.26 0 0 0.265 0 0 0.27 0 0 0.275 0 0 0.28 0 0 0.285 0 0 0.29 0 0 0.295 0 0 0.3 0 0 0.305 0 0 0.31 0 0 0.315 0 0 0.32 0 0 0.325 0 0 0.33 0 0 0.335 0 0 0.34 0 0 0.345 0 0 0.35 0 0 0.355 0 0 0.36 0 0 0.365 0 0 0.37 0 0 0.375 0 0 0.38 0 0 0.385 0 0 0.39 0 0 0.395 0 0 0.4 0 0 0.405 0 0 0.41 0 0 0.415 0 0 0.42 0 0 0.425 0 0 0.43 0 0 0.435 0 0 0.44 0 0 0.445 0 0 0.45 0 0 0.455 0 0 0.46 0 0 0.465 0 0 0.47 0 0 0.475 0 0 0.48 0 0 0.485 0 0 0.49 0 0 0.495 0 0 0.5 0 0 0.505 0 0 0.51 0 0 0.515 0 0 0.52 0 0 0.525 0 0 0.53 0 0 0.535 0 0 0.54 0 0 0.545 0 0 0.55 0 0 0.555 0 0 0.56 0 0 0.565 0 0 0.57 0 0 0.575 0 0 0.58 0 0 0.585 0 0 0.59 0 0 0.595 0 0 0.6 0 0 0.605 0 0 0.61 0 0 0.615 0 0 0.62 0 0 0.625 0 0 0.63 0 0 0.635 0 0 0.64 0 0 0.645 0 0 0.65 0 0 0.655 0 0 0.66 0 0 0.665 0 0 0.67 0 0 0.675 0 0 0.68 0 0 0.685 0 0 0.69 0 0 0.695 0 0 0.7 0 0 0.705 0 0 0.71 0 0 0.715 0 0 0.72 0 0 0.725 0 0 0.73 0 0 0.735 0 0 0.74 0 0 0.745 0 0 0.75 0 0 0.755 0 0 0.76 0 0 0.765 0 0 0.77 0 0 0.775 0 0 0.78 0 0 0.785 0 0 0.79 0 0 0.795 0 0 0.8 0 0 0.805 0 0 0.81 0 0 0.815 0 0 0.82 0 0 0.825 0 0 0.83 0 0 0.835 0 0 0.84 0 0 0.845 0 0 0.85 0 0 0.855 0 0 0.86 0 0 0.865 0 0 0.87 0 0 0.875 0 0 0.88 0 0 0.885 0 0 0.89 0 0 0.895 0 0 0.9 0 0 0.905 0 0 0.91 0 0 0.915 0 0 0.92 0 0 0.925 0 0 0.93 0 0 0.935 0 0 0.94 0 0 0.945 0 0 0.95 0 0 0.955 0 0 0.96 0 0 0.965 0 0 0.97 0 0 0.975 0 0 0.98 0 0 0.985 0 0 0.99 0 0 0.995 0 0 1 0 0 0 0.02 0 0.005 0.02 0 0.01 0.02 0 0.015 0.02 0 0.02 0.02 0 0.025 0.02 0 0.03 0.02 0 0.035 0.02 0 0.04 0.02 0 0.045 0.02 0 0.05 0.02 0 0.055 0.02 0 0.06 0.02 0 0.065 0.02 0 0.07 0.02 0 0.075 0.02 0 0.08 0.02 0 0.085 0.02 0 0.09 0.02 0 0.095 0.02 0 0.1 0.02 0 0.105 0.02 0 0.11 0.02 0 0.115 0.02 0 0.12 0.02 0 0.125 0.02 0 0.13 0.02 0 0.135 0.02 0 0.14 0.02 0 0.145 0.02 0 0.15 0.02 0 0.155 0.02 0 0.16 0.02 0 0.165 0.02 0 0.17 0.02 0 0.175 0.02 0 0.18 0.02 0 0.185 0.02 0 0.19 0.02 0 0.195 0.02 0 0.2 0.02 0 0.205 0.02 0 0.21 0.02 0 0.215 0.02 0 0.22 0.02 0 0.225 0.02 0 0.23 0.02 0 0.235 0.02 0 0.24 0.02 0 0.245 0.02 0 0.25 0.02 0 0.255 0.02 0 0.26 0.02 0 0.265 0.02 0 0.27 0.02 0 0.275 0.02 0 0.28 0.02 0 0.285 0.02 0 0.29 0.02 0 0.295 0.02 0 0.3 0.02 0 0.305 0.02 0 0.31 0.02 0 0.315 0.02 0 0.32 0.02 0 0.325 0.02 0 0.33 0.02 0 0.335 0.02 0 0.34 0.02 0 0.345 0.02 0 0.35 0.02 0 0.355 0.02 0 0.36 0.02 0 0.365 0.02 0 0.37 0.02 0 0.375 0.02 0 0.38 0.02 0 0.385 0.02 0 0.39 0.02 0 0.395 0.02 0 0.4 0.02 0 0.405 0.02 0 0.41 0.02 0 0.415 0.02 0 0.42 0.02 0 0.425 0.02 0 0.43 0.02 0 0.435 0.02 0 0.44 0.02 0 0.445 0.02 0 0.45 0.02 0 0.455 0.02 0 0.46 0.02 0 0.465 0.02 0 0.47 0.02 0 0.475 0.02 0 0.48 0.02 0 0.485 0.02 0 0.49 0.02 0 0.495 0.02 0 0.5 0.02 0 0.505 0.02 0 0.51 0.02 0 0.515 0.02 0 0.52 0.02 0 0.525 0.02 0 0.53 0.02 0 0.535 0.02 0 0.54 0.02 0 0.545 0.02 0 0.55 0.02 0 0.555 0.02 0 0.56 0.02 0 0.565 0.02 0 0.57 0.02 0 0.575 0.02 0 0.58 0.02 0 0.585 0.02 0 0.59 0.02 0 0.595 0.02 0 0.6 0.02 0 0.605 0.02 0 0.61 0.02 0 0.615 0.02 0 0.62 0.02 0 0.625 0.02 0 0.63 0.02 0 0.635 0.02 0 0.64 0.02 0 0.645 0.02 0 0.65 0.02 0 0.655 0.02 0 0.66 0.02 0 0.665 0.02 0 0.67 0.02 0 0.675 0.02 0 0.68 0.02 0 0.685 0.02 0 0.69 0.02 0 0.695 0.02 0 0.7 0.02 0 0.705 0.02 0 0.71 0.02 0 0.715 0.02 0 0.72 0.02 0 0.725 0.02 0 0.73 0.02 0 0.735 0.02 0 0.74 0.02 0 0.745 0.02 0 0.75 0.02 0 0.755 0.02 0 0.76 0.02 0 0.765 0.02 0 0.77 0.02 0 0.775 0.02 0 0.78 0.02 0 0.785 0.02 0 0.79 0.02 0 0.795 0.02 0 0.8 0.02 0 0.805 0.02 0 0.81 0.02 0 0.815 0.02 0 0.82 0.02 0 0.825 0.02 0 0.83 0.02 0 0.835 0.02 0 0.84 0.02 0 0.845 0.02 0 0.85 0.02 0 0.855 0.02 0 0.86 0.02 0 0.865 0.02 0 0.87 0.02 0 0.875 0.02 0 0.88 0.02 0 0.885 0.02 0 0.89 0.02 0 0.895 0.02 0 0.9 0.02 0 0.905 0.02 0 0.91 0.02 0 0.915 0.02 0 0.92 0.02 0 0.925 0.02 0 0.93 0.02 0 0.935 0.02 0 0.94 0.02 0 0.945 0.02 0 0.95 0.02 0 0.955 0.02 0 0.96 0.02 0 0.965 0.02 0 0.97 0.02 0 0.975 0.02 0 0.98 0.02 0 0.985 0.02 0 0.99 0.02 0 0.995 0.02 0 1 0.02 0 0 0.04 0 0.005 0.04 0 0.01 0.04 0 0.015 0.04 0 0.02 0.04 0 0.025 0.04 0 0.03 0.04 0 0.035 0.04 0 0.04 0.04 0 0.045 0.04 0 0.05 0.04 0 0.055 0.04 0 0.06 0.04 0 0.065 0.04 0 0.07 0.04 0 0.075 0.04 0 0.08 0.04 0 0.085 0.04 0 0.09 0.04 0 0.095 0.04 0 0.1 0.04 0 0.105 0.04 0 0.11 0.04 0 0.115 0.04 0 0.12 0.04 0 0.125 0.04 0 0.13 0.04 0 0.135 0.04 0 0.14 0.04 0 0.145 0.04 0 0.15 0.04 0 0.155 0.04 0 0.16 0.04 0 0.165 0.04 0 0.17 0.04 0 0.175 0.04 0 0.18 0.04 0 0.185 0.04 0 0.19 0.04 0 0.195 0.04 0 0.2 0.04 0 0.205 0.04 0 0.21 0.04 0 0.215 0.04 0 0.22 0.04 0 0.225 0.04 0 0.23 0.04 0 0.235 0.04 0 0.24 0.04 0 0.245 0.04 0 0.25 0.04 0 0.255 0.04 0 0.26 0.04 0 0.265 0.04 0 0.27 0.04 0 0.275 0.04 0 0.28 0.04 0 0.285 0.04 0 0.29 0.04 0 0.295 0.04 0 0.3 0.04 0 0.305 0.04 0 0.31 0.04 0 0.315 0.04 0 0.32 0.04 0 0.325 0.04 0 0.33 0.04 0 0.335 0.04 0 0.34 0.04 0 0.345 0.04 0 0.35 0.04 0 0.355 0.04 0 0.36 0.04 0 0.365 0.04 0 0.37 0.04 0 0.375 0.04 0 0.38 0.04 0 0.385 0.04 0 0.39 0.04 0 0.395 0.04 0 0.4 0.04 0 0.405 0.04 0 0.41 0.04 0 0.415 0.04 0 0.42 0.04 0 0.425 0.04 0 0.43 0.04 0 0.435 0.04 0 0.44 0.04 0 0.445 0.04 0 0.45 0.04 0 0.455 0.04 0 0.46 0.04 0 0.465 0.04 0 0.47 0.04 0 0.475 0.04 0 0.48 0.04 0 0.485 0.04 0 0.49 0.04 0 0.495 0.04 0 0.5 0.04 0 0.505 0.04 0 0.51 0.04 0 0.515 0.04 0 0.52 0.04 0 0.525 0.04 0 0.53 0.04 0 0.535 0.04 0 0.54 0.04 0 0.545 0.04 0 0.55 0.04 0 0.555 0.04 0 0.56 0.04 0 0.565 0.04 0 0.57 0.04 0 0.575 0.04 0 0.58 0.04 0 0.585 0.04 0 0.59 0.04 0 0.595 0.04 0 0.6 0.04 0 0.605 0.04 0 0.61 0.04 0 0.615 0.04 0 0.62 0.04 0 0.625 0.04 0 0.63 0.04 0 0.635 0.04 0 0.64 0.04 0 0.645 0.04 0 0.65 0.04 0 0.655 0.04 0 0.66 0.04 0 0.665 0.04 0 0.67 0.04 0 0.675 0.04 0 0.68 0.04 0 0.685 0.04 0 0.69 0.04 0 0.695 0.04 0 0.7 0.04 0 0.705 0.04 0 0.71 0.04 0 0.715 0.04 0 0.72 0.04 0 0.725 0.04 0 0.73 0.04 0 0.735 0.04 0 0.74 0.04 0 0.745 0.04 0 0.75 0.04 0 0.755 0.04 0 0.76 0.04 0 0.765 0.04 0 0.77 0.04 0 0.775 0.04 0 0.78 0.04 0 0.785 0.04 0 0.79 0.04 0 0.795 0.04 0 0.8 0.04 0 0.805 0.04 0 0.81 0.04 0 0.815 0.04 0 0.82 0.04 0 0.825 0.04 0 0.83 0.04 0 0.835 0.04 0 0.84 0.04 0 0.845 0.04 0 0.85 0.04 0 0.855 0.04 0 0.86 0.04 0 0.865 0.04 0 0.87 0.04 0 0.875 0.04 0 0.88 0.04 0 0.885 0.04 0 0.89 0.04 0 0.895 0.04 0 0.9 0.04 0 0.905 0.04 0 0.91 0.04 0 0.915 0.04 0 0.92 0.04 0 0.925 0.04 0 0.93 0.04 0 0.935 0.04 0 0.94 0.04 0 0.945 0.04 0 0.95 0.04 0 0.955 0.04 0 0.96 0.04 0 0.965 0.04 0 0.97 0.04 0 0.975 0.04 0 0.98 0.04 0 0.985 0.04 0 0.99 0.04 0 0.995 0.04 0 1 0.04 0 0 0.06 0 0.005 0.06 0 0.01 0.06 0 0.015 0.06 0 0.02 0.06 0 0.025 0.06 0 0.03 0.06 0 0.035 0.06 0 0.04 0.06 0 0.045 0.06 0 0.05 0.06 0 0.055 0.06 0 0.06 0.06 0 0.065 0.06 0 0.07 0.06 0 0.075 0.06 0 0.08 0.06 0 0.085 0.06 0 0.09 0.06 0 0.095 0.06 0 0.1 0.06 0 0.105 0.06 0 0.11 0.06 0 0.115 0.06 0 0.12 0.06 0 0.125 0.06 0 0.13 0.06 0 0.135 0.06 0 0.14 0.06 0 0.145 0.06 0 0.15 0.06 0 0.155 0.06 0 0.16 0.06 0 0.165 0.06 0 0.17 0.06 0 0.175 0.06 0 0.18 0.06 0 0.185 0.06 0 0.19 0.06 0 0.195 0.06 0 0.2 0.06 0 0.205 0.06 0 0.21 0.06 0 0.215 0.06 0 0.22 0.06 0 0.225 0.06 0 0.23 0.06 0 0.235 0.06 0 0.24 0.06 0 0.245 0.06 0 0.25 0.06 0 0.255 0.06 0 0.26 0.06 0 0.265 0.06 0 0.27 0.06 0 0.275 0.06 0 0.28 0.06 0 0.285 0.06 0 0.29 0.06 0 0.295 0.06 0 0.3 0.06 0 0.305 0.06 0 0.31 0.06 0 0.315 0.06 0 0.32 0.06 0 0.325 0.06 0 0.33 0.06 0 0.335 0.06 0 0.34 0.06 0 0.345 0.06 0 0.35 0.06 0 0.355 0.06 0 0.36 0.06 0 0.365 0.06 0 0.37 0.06 0 0.375 0.06 0 0.38 0.06 0 0.385 0.06 0 0.39 0.06 0 0.395 0.06 0 0.4 0.06 0 0.405 0.06 0 0.41 0.06 0 0.415 0.06 0 0.42 0.06 0 0.425 0.06 0 0.43 0.06 0 0.435 0.06 0 0.44 0.06 0 0.445 0.06 0 0.45 0.06 0 0.455 0.06 0 0.46 0.06 0 0.465 0.06 0 0.47 0.06 0 0.475 0.06 0 0.48 0.06 0 0.485 0.06 0 0.49 0.06 0 0.495 0.06 0 0.5 0.06 0 0.505 0.06 0 0.51 0.06 0 0.515 0.06 0 0.52 0.06 0 0.525 0.06 0 0.53 0.06 0 0.535 0.06 0 0.54 0.06 0 0.545 0.06 0 0.55 0.06 0 0.555 0.06 0 0.56 0.06 0 0.565 0.06 0 0.57 0.06 0 0.575 0.06 0 0.58 0.06 0 0.585 0.06 0 0.59 0.06 0 0.595 0.06 0 0.6 0.06 0 0.605 0.06 0 0.61 0.06 0 0.615 0.06 0 0.62 0.06 0 0.625 0.06 0 0.63 0.06 0 0.635 0.06 0 0.64 0.06 0 0.645 0.06 0 0.65 0.06 0 0.655 0.06 0 0.66 0.06 0 0.665 0.06 0 0.67 0.06 0 0.675 0.06 0 0.68 0.06 0 0.685 0.06 0 0.69 0.06 0 0.695 0.06 0 0.7 0.06 0 0.705 0.06 0 0.71 0.06 0 0.715 0.06 0 0.72 0.06 0 0.725 0.06 0 0.73 0.06 0 0.735 0.06 0 0.74 0.06 0 0.745 0.06 0 0.75 0.06 0 0.755 0.06 0 0.76 0.06 0 0.765 0.06 0 0.77 0.06 0 0.775 0.06 0 0.78 0.06 0 0.785 0.06 0 0.79 0.06 0 0.795 0.06 0 0.8 0.06 0 0.805 0.06 0 0.81 0.06 0 0.815 0.06 0 0.82 0.06 0 0.825 0.06 0 0.83 0.06 0 0.835 0.06 0 0.84 0.06 0 0.845 0.06 0 0.85 0.06 0 0.855 0.06 0 0.86 0.06 0 0.865 0.06 0 0.87 0.06 0 0.875 0.06 0 0.88 0.06 0 0.885 0.06 0 0.89 0.06 0 0.895 0.06 0 0.9 0.06 0 0.905 0.06 0 0.91 0.06 0 0.915 0.06 0 0.92 0.06 0 0.925 0.06 0 0.93 0.06 0 0.935 0.06 0 0.94 0.06 0 0.945 0.06 0 0.95 0.06 0 0.955 0.06 0 0.96 0.06 0 0.965 0.06 0 0.97 0.06 0 0.975 0.06 0 0.98 0.06 0 0.985 0.06 0 0.99 0.06 0 0.995 0.06 0 1 0.06 0 0 0.08 0 0.005 0.08 0 0.01 0.08 0 0.015 0.08 0 0.02 0.08 0 0.025 0.08 0 0.03 0.08 0 0.035 0.08 0 0.04 0.08 0 0.045 0.08 0 0.05 0.08 0 0.055 0.08 0 0.06 0.08 0 0.065 0.08 0 0.07 0.08 0 0.075 0.08 0 0.08 0.08 0 0.085 0.08 0 0.09 0.08 0 0.095 0.08 0 0.1 0.08 0 0.105 0.08 0 0.11 0.08 0 0.115 0.08 0 0.12 0.08 0 0.125 0.08 0 0.13 0.08 0 0.135 0.08 0 0.14 0.08 0 0.145 0.08 0 0.15 0.08 0 0.155 0.08 0 0.16 0.08 0 0.165 0.08 0
[...]
			<PointData Scalars="VitesseX">
				<DataArray Name="VitesseX" type="Float32" format="ascii">
 0 5.04453e-15 -2.25071e-15 -1.14559e-14 -1.41665e-14 -2.10844e-14 6.4643e-15 -7.50588e-14 -1.54369e-14 -4.17172e-14 -2.41218e-14 -7.88044e-14 -9.87432e-14 -7.97721e-14 -8.02408e-14 -9.03675e-16 -4.37206e-14 -3.29235e-14 4.18171e-14 5.16425e-14 -1.24938e-13 8.92137e-14 2.8008e-14 -5.44689e-14 3.41839e-14 -4.63473e-14 -7.39216e-14 -7.62604e-15 -6.66458e-14 4.89104e-15 -3.05697e-14 -1.60384e-14 -8.15549e-14 3.77462e-14 5.78765e-14 -3.75007e-14 -4.47064e-15 3.88893e-13 5.03428e-13 3.95504e-12 2.33116e-11 1.3272e-10 7.21685e-10 3.73054e-09 1.82904e-08 8.48582e-08 3.716e-07 1.53153e-06 5.92131e-06 2.13949e-05 7.19242e-05 0.00022379 0.000640517 0.00167442 0.00396764 0.00846202 0.0161723 0.0277196 0.0429486 0.0610244 0.0809256 0.101854 0.123327 0.145087 0.167004 0.189009 0.211063 0.233143 0.255234 0.277323 0.299393 0.321427 0.343414 0.365342 0.387199 0.408979 0.430675 0.452281 0.473794 0.495209 0.51652 0.537724 0.558812 0.579776 0.600605 0.621286 0.641801 0.662131 0.682249 0.702125 0.721723 0.740996 0.759889 0.778338 0.796262 0.81357 0.830151 0.845884 0.860628 0.874239 0.886567 0.897478 0.906861 0.914653 0.920848 0.925514 0.928793 0.930892 0.93206 0.932558 0.932578 0.932497 0.932324 0.932081 0.931791 0.931476 0.931155 0.930845 0.930554 0.930289 0.930052 0.929846 0.929677 0.929555 0.929496 0.929528 0.929712 0.930136 0.930893 0.93209 0.933839 0.936226 0.939391 0.942973 0.949195 0.949523 0.945529 0.940007 0.935473 0.932383 0.930454 0.929339 0.928734 0.928423 0.928268 0.92819 0.928148 0.928116 0.928079 0.928025 0.927932 0.927763 0.927456 0.926902 0.925906 0.924137 0.921033 0.915659 0.906506 0.891247 0.866531 0.828005 0.770859 0.691143 0.587928 0.465786 0.336137 0.216542 0.122367 0.0602833 0.026398 0.0106929 0.00415863 0.00158776 0.000601249 0.000226747 8.52896e-05 3.20114e-05 1.19889e-05 4.47975e-06 1.66969e-06 6.206e-07 2.29968e-07 8.49322e-08 3.12541e-08 1.14557e-08 4.181e-09 1.51964e-09 5.48699e-10 1.97362e-10 7.04327e-11 2.51519e-11 8.64639e-12 2.98003e-12 1.0357e-12 7.70273e-13 -1.22149e-13 -2.47736e-13 -1.74533e-13 2.42353e-13 0 0 -2.73411e-15 -1.02066e-14 -1.14229e-14 -2.17896e-14 -2.50326e-14 -5.05133e-14 -6.13385e-15 -4.50911e-14 -3.77841e-14 -6.69555e-14 -4.5648e-14 -6.25005e-14 -8.93866e-14 -4.64043e-14 -2.91581e-14 -3.76595e-14 3.606e-14 -5.43808e-14 3.10323e-15 9.09427e-14 -5.81037e-14 2.46658e-14 1.95727e-14 -2.69103e-14 -3.14323e-14 -5.50221e-14 -7.08436e-14 -7.60238e-14 -4.79937e-15 -2.23045e-14 -5.4344e-14 6.28595e-14 -4.33814e-14 -7.73174e-15 -4.15178e-14 1.35709e-13 1.59294e-13 7.54812e-13 3.85805e-12 2.32189e-11 1.32763e-10 7.21676e-10 3.73059e-09 1.82904e-08 8.48578e-08 3.716e-07 1.53153e-06 5.92131e-06 2.13949e-05 7.19242e-05 0.00022379 0.000640517 0.00167442 0.00396764 0.00846202 0.0161723 0.0277196 0.0429486 0.0610244 0.0809256 0.101854 0.123327 0.145087 0.167004 0.189009 0.211063 0.233143 0.255234 0.277323 0.299393 0.321427 0.343414 0.365342 0.387199 0.408979 0.430675 0.452281 0.473794 0.495209 0.51652 0.537724 0.558812 0.579776 0.600605 0.621286 0.641801 0.662131 0.682249 0.702125 0.721723 0.740996 0.759889 0.778338 0.796262 0.81357 0.830151 0.845884 0.860628 0.874239 0.886567 0.897478 0.906861 0.914653 0.920848 0.925514 0.928793 0.930892 0.93206 0.932558 0.932578 0.932497 0.932324 0.932081 0.931791 0.931476 0.931155 0.930845 0.930554 0.930289 0.930052 0.929846 0.929677 0.929555 0.929496 0.929528 0.929712 0.930136 0.930893 0.93209 0.933839 0.936226 0.939391 0.942973 0.949195 0.949523 0.945529 0.940007 0.935473 0.932383 0.930454 0.929339 0.928734 0.928423 0.928268 0.92819 0.928148 0.928116 0.928079 0.928025 0.927932 0.927763 0.927456 0.926902 0.925906 0.924137 0.921033 0.915659 0.906506 0.891247 0.866531 0.828005 0.770859 0.691143 0.587928 0.465786 0.336137 0.216542 0.122367 0.0602833 0.026398 0.0106929 0.00415863 0.00158776 0.000601249 0.000226747 8.52896e-05 3.20114e-05 1.19889e-05 4.47975e-06 1.66969e-06 6.206e-07 2.29968e-07 8.49327e-08 3.12538e-08 1.14559e-08 4.18142e-09 1.51877e-09 5.49024e-10 1.97414e-10 7.03586e-11 2.49907e-11 8.82938e-12 3.06054e-12 6.54357e-13 2.72032e-13 2.96124e-13 4.21735e-14 -6.32869e-14 -2.44368e-13 0 0 -1.11634e-14 -1.8778e-14 -2.23297e-14 -3.54492e-14 -3.44208e-14 -4.12435e-14 -6.6183e-14 -4.66686e-14 -3.7241e-14 -6.04292e-14 -6.77433e-14 -3.34682e-14 -1.57308e-14 -2.80268e-14 -2.86831e-14 -4.31404e-14 -6.95397e-14 2.08644e-14 2.62165e-14 1.30246e-14 7.48315e-14 5.08613e-14 -1.75881e-14 -8.68381e-14 -4.53832e-14 -5.99796e-14 -1.01174e-13 3.85823e-14 -5.79278e-14 -6.10654e-14 -4.8645e-14 5.25002e-15 -3.86683e-14 -6.09537e-14 8.06456e-14 8.84378e-14 1.43684e-13 6.4121e-13 3.9301e-12 2.32504e-11 1.32681e-10 7.21859e-10 3.73053e-09 1.82902e-08 8.4858e-08 3.716e-07 1.53153e-06 5.92131e-06 2.13949e-05 7.19242e-05 0.00022379 0.000640517 0.00167442 0.00396764 0.00846202 0.0161723 0.0277196 0.0429486 0.0610244 0.0809256 0.101854 0.123327 0.145087 0.167004 0.189009 0.211063 0.233143 0.255234 0.277323 0.299393 0.321427 0.343414 0.365342 0.387199 0.408979 0.430675 0.452281 0.473794 0.495209 0.51652 0.537724 0.558812 0.579776 0.600605 0.621286 0.641801 0.662131 0.682249 0.702125 0.721723 0.740996 0.759889 0.778338 0.796262 0.81357 0.830151 0.845884 0.860628 0.874239 0.886567 0.897478 0.906861 0.914653 0.920848 0.925514 0.928793 0.930892 0.93206 0.932558 0.932578 0.932497 0.932324 0.932081 0.931791 0.931476 0.931155 0.930845 0.930554 0.930289 0.930052 0.929846 0.929677 0.929555 0.929496 0.929528 0.929712 0.930136 0.930893 0.93209 0.933839 0.936226 0.939391 0.942973 0.949195 0.949523 0.945529 0.940007 0.935473 0.932383 0.930454 0.929339 0.928734 0.928423 0.928268 0.92819 0.928148 0.928116 0.928079 0.928025 0.927932 0.927763 0.927456 0.926902 0.925906 0.924137 0.921033 0.915659 0.906506 0.891247 0.866531 0.828005 0.770859 0.691143 0.587928 0.465786 0.336137 0.216542 0.122367 0.0602833 0.026398 0.0106929 0.00415863 0.00158776 0.000601249 0.000226747 8.52896e-05 3.20114e-05 1.19889e-05 4.47975e-06 1.66969e-06 6.206e-07 2.29967e-07 8.49325e-08 3.12541e-08 1.1456e-08 4.18138e-09 1.51909e-09 5.49068e-10 1.97522e-10 7.0088e-11 2.45772e-11 8.83856e-12 3.03973e-12 8.07766e-13 1.02399e-13 1.21318e-13 1.56108e-13 4.99447e-13 9.33104e-14 0 0 -9.1589e-15 -1.46607e-14 -2.66659e-14 -3.23791e-14 -5.54457e-14 -5.346e-14 -1.01687e-13 -3.56159e-14 -3.73496e-14 -3.6579e-14 -2.94242e-14 -4.3022e-14 2.76427e-15 -9.15732e-14 7.11265e-15 -2.95393e-14 -8.28803e-14 2.08047e-14 9.2073e-14 1.89576e-14 8.38828e-14 -7.49875e-14 -8.87094e-14 1.92966e-14 -5.4939e-14 -9.29665e-14 -1.38238e-13 3.82667e-14 -2.14858e-16 -6.09033e-14 -7.21048e-14 -1.01309e-13 -6.73559e-14 1.0964e-13 7.01052e-14 3.19689e-14 2.28884e-13 7.202e-13 3.93296e-12 2.33152e-11 1.32713e-10 7.2158e-10 3.73042e-09 1.82903e-08 8.48581e-08 3.716e-07 1.53153e-06 5.92131e-06 2.13949e-05 7.19242e-05 0.00022379 0.000640517 0.00167442 0.00396764 0.00846202 0.0161723 0.0277196 0.0429486 0.0610244 0.0809256 0.101854 0.123327 0.145087 0.167004 0.189009 0.211063 0.233143 0.255234 0.277323 0.299393 0.321427 0.343414 0.365342 0.387199 0.408979 0.430675 0.452281 0.473794 0.495209 0.51652 0.537724 0.558812 0.579776 0.600605 0.621286 0.641801 0.662131 0.682249 0.702125 0.721723 0.740996 0.759889 0.778338 0.796262 0.81357 0.830151 0.845884 0.860628 0.874239 0.886567 0.897478 0.906861 0.914653 0.920848 0.925514 0.928793 0.930892 0.93206 0.932558 0.932578 0.932497 0.932324 0.932081 0.931791 0.931476 0.931155 0.930845 0.930554 0.930289 0.930052 0.929846 0.929677 0.929555 0.929496 0.929528 0.929712 0.930136 0.930893 0.93209 0.933839 0.936226 0.939391 0.942973 0.949195 0.949523 0.945529 0.940007 0.935473 0.932383 0.930454 0.929339 0.928734 0.928423 0.928268 0.92819 0.928148 0.928116 0.928079 0.928025 0.927932 0.927763 0.927456 0.926902 0.925906 0.924137 0.921033 0.915659 0.906506 0.891247 0.866531 0.828005 0.770859 0.691143 0.587928 0.465786 0.336137 0.216542 0.122367 0.0602833 0.026398 0.0106929 0.00415863 0.00158776 0.000601249 0.000226747 8.52896e-05 3.20114e-05 1.19889e-05 4.47975e-06 1.66969e-06 6.206e-07 2.29968e-07 8.49327e-08 3.1254e-08 1.1456e-08 4.18112e-09 1.51946e-09 5.49345e-10 1.97198e-10 7.05981e-11 2.47189e-11 8.72571e-12 2.90688e-12 7.39238e-13 -1.0305e-13 1.38581e-13 3.39541e-13 9.22381e-14 1.22493e-12 0 0 -1.08192e-14 -1.49616e-14 -1.7103e-14 -4.14005e-14 -5.06964e-14 -5.71265e-14 -4.21733e-14 -6.59591e-14 -4.71696e-14 -4.75646e-14 9.06079e-15 -3.03535e-14 -5.31187e-14 -8.24642e-14 -3.42122e-14 1.62544e-14 4.69924e-14 -2.81609e-14 3.39388e-14 8.43597e-14 -7.75029e-14 -9.22847e-14 -4.23522e-14 2.99931e-14 -5.8071e-14 -7.32979e-14 -1.3881e-13 -1.73674e-13 -4.13254e-14 5.52121e-14 -4.05119e-14 3.80022e-14 -4.29719e-14 1.06338e-13 2.30279e-14 1.58483e-13 1.00851e-13 8.03807e-13 3.94471e-12 2.31845e-11 1.32782e-10 7.21527e-10 3.73049e-09 1.82905e-08 8.48579e-08 3.716e-07 1.53153e-06 5.92131e-06 2.13949e-05 7.19242e-05 0.00022379 0.000640517 0.00167442 0.00396764 0.00846202 0.0161723 0.0277196 0.0429486 0.0610244 0.0809256 0.101854 0.123327 0.145087 0.167004 0.189009 0.211063 0.233143 0.255234 0.277323 0.299393 0.321427 0.343414 0.365342 0.387199 0.408979 0.430675 0.452281 0.473794 0.495209 0.51652 0.537724 0.558812 0.579776 0.600605 0.621286 0.641801 0.662131 0.682249 0.702125 0.721723 0.740996 0.759889 0.778338 0.796262 0.81357 0.830151 0.845884 0.860628 0.874239 0.886567 0.897478 0.906861 0.914653 0.920848 0.925514 0.928793 0.930892 0.93206 0.932558 0.932578 0.932497 0.932324 0.932081 0.931791 0.931476 0.931155 0.930845 0.930554 0.930289 0.930052 0.929846 0.929677 0.929555 0.929496 0.929528 0.929712 0.930136 0.930893 0.93209 0.933839 0.936226 0.939391 0.942973 0.949195 0.949523 0.945529 0.940007 0.935473 0.932383 0.930454 0.929339 0.928734 0.928423 0.928268 0.92819 0.928148 0.928116 0.928079 0.928025 0.927932 0.927763 0.927456 0.926902 0.925906 0.924137 0.921033 0.915659 0.906506 0.891247 0.866531 0.828005 0.770859 0.691143 0.587928 0.465786 0.336137 0.216542 0.122367 0.0602833 0.026398 0.0106929 0.00415863 0.00158776 0.000601249 0.000226747 8.52896e-05 3.20114e-05 1.19889e-05 4.47975e-06 1.66969e-06 6.206e-07 2.29968e-07 8.49326e-08 3.12542e-08 1.14561e-08 4.18143e-09 1.5191e-09 5.49011e-10 1.97387e-10 7.08496e-11 2.50433e-11 8.56283e-12 2.89365e-12 4.64982e-13 1.12901e-13 -3.55122e-14 2.735e-13 -5.52519e-15 4.94123e-13 0 0 -1.51347e-14 -1.99952e-14 -1.41436e-14 -5.95282e-14 -3.03621e-14 1.7671e-14 -7.6129e-14 -7.92784e-14 -6.02709e-14 -3.30406e-14 -4.60249e-14 -1.53415e-14 -4.42265e-14 -2.52677e-14 -8.26033e-14 3.69048e-14 1.56224e-14 9.43763e-14 -1.83995e-14 -1.4997e-13 3.23128e-14 4.58045e-14 -3.6076e-14 -6.42786e-14 -8.05132e-14 -4.44993e-14 -6.94299e-14 -2.61315e-13 -1.83587e-13 1.24139e-13 5.85455e-14 8.18493e-14 9.59403e-14 -5.51718e-14 1.12672e-13 1.54016e-13 1.01606e-13 4.43438e-13 4.12262e-12 2.31131e-11 1.32694e-10 7.21945e-10 3.73056e-09 1.82903e-08 8.48582e-08 3.716e-07 1.53153e-06 5.92131e-06 2.13949e-05 7.19242e-05 0.00022379 0.000640517 0.00167442 0.00396764 0.00846202 0.0161723 0.0277196 0.0429486 0.0610244 0.0809256 0.101854 0.123327 0.145087 0.167004 0.189009 0.211063 0.233143 0.255234 0.277323 0.299393 0.321427 0.343414 0.365342 0.387199 0.408979 0.430675 0.452281 0.473794 0.495209 0.51652 0.537724 0.558812 0.579776 0.600605 0.621286 0.641801 0.662131 0.682249 0.702125 0.721723 0.740996 0.759889 0.778338 0.796262 0.81357 0.830151 0.845884 0.860628 0.874239 0.886567 0.897478 0.906861 0.914653 0.920848 0.925514 0.928793 0.930892 0.93206 0.932558 0.932578 0.932497 0.932324 0.932081 0.931791 0.931476 0.931155 0.930845 0.930554 0.930289 0.930052 0.929846 0.929677 0.929555 0.929496 0.929528 0.929712 0.930136 0.930893 0.93209 0.933839 0.936226 0.939391 0.942973 0.949195 0.949523 0.945529 0.940007 0.935473 0.932383 0.930454 0.929339 0.928734 0.928423 0.928268 0.92819 0.928148 0.928116 0.928079 0.928025 0.927932 0.927763 0.927456 0.926902 0.925906 0.924137 0.921033 0.915659 0.906506 0.891247 0.866531 0.828005 0.770859 0.691143 0.587928 0.465786 0.336137 0.216542 0.122367 0.0602833 0.026398 0.0106929 0.00415863 0.00158776 0.000601249 0.000226747 8.52896e-05 3.20114e-05 1.19889e-05 4.47975e-06 1.66969e-06 6.20601e-07 2.29968e-07 8.49318e-08 3.12551e-08 1.1456e-08 4.18154e-09 1.51957e-09 5.48121e-10 1.97954e-10 7.03946e-11 2.49737e-11 8.33899e-12 2.91195e-12 7.94004e-13 8.62908e-13 -8.19947e-13 -1.51949e-13 7.55409e-13 -5.43907e-13 0
				</DataArray>
				<DataArray Name="VitesseY" type="Float32" format="ascii">