<?xml version="1.0"?>
<VTKFile type="PolyData">
	<PolyData>
		<Piece NumberOfPoints="1206" NumberOfPolys="1000">
			<Points>
				<DataArray type="Float32" NumberOfComponents="3" format="ascii">
 0 0 0 0.005 0 0 0.01 0 0 0.015 0 0 0.02 0 0 0.025 0 0 0.03 0 0 0.035 0 0 0.04 0 0 0.045 0 0 0.05 0 0 0.055 0 0 0.06 0 0 0.065 0 0 0.07 0 0 0.075 0 0 0.08 0 0 0.085 0 0 0.09 0 0 0.095 0 0 0.1 0 0 0.105 0 0 0.11 0 0 0.115 0 0 0.12 0 0 0.125 0 0 0.13 0 0 0.135 0 0 0.14 0 0 0.145 0 0 0.15 0 0 0.155 0 0 0.16 0 0 0.165 0 0 0.17 0 0 0.175 0 0 0.18 0 0 0.185 0 0 0.19 0 0 0.195 0 0 0.2 0 0 0.205 0 0 0.21 0 0 0.215 0 0 0.22 0 0 0.225 0 0 0.23 0 0 0.235 0 0 0.24 0 0 0.245 0 0 0.25 0 0 0.255 0 0 0.26 0 0 0.265 0 0 0.27 0 0 0.275 0 0 0.28 0 0 0.285 0 0 0.29 0 0 0.295 0 0 0.3 0 0 0.305 0 0 0.31 0 0 0.315 0 0 0.32 0 0 0.325 0 0 0.33 0 0 0.335 0 0 0.34 0 0 0.345 0 0 0.35 0 0 0.355 0 0 0.36 0 0 0.365 0 0 0.37 0 0 0.375 0 0 0.38 0 0 0.385 0 0 0.39 0 0 0.395 0 0 0.4 0 0 0.405 0 0 0.41 0 0 0.415 0 0 0.42 0 0 0.425 0 0 0.43 0 0 0.435 0 0 0.44 0 0 0.445 0 0 0.45 0 0 0.455 0 0 0.46 0 0 0.465 0 0 0.47 0 0 0.475 0 0 0.48 0 0 0.485 0 0 0.49 0 0 0.495 0 0 0.5 0 0 0.505 0 0 0.51 0 0 0.515 0 0 0.52 0 0 0.525 0 0 0.53 0 0 0.535 0 0 0.54 0 0 0.545 0 0 0.55 0 0 0.555 0 0 0.56 0 0 0.565 0 0 0.57 0 0 0.575 0 0 0.58 0 0 0.585 0 0 0.59 0 0 0.595 0 0 0.6 0 0 0.605 0 0 0.61 0 0 0.615 0 0 0.62 0 0 0.625 0 0 0.63 0 0 0.635 0 0 0.64 0 0 0.645 0 0 0.65 0 0 0.655 0 0 0.66 0 0 0.665 0 0 0.67 0 0 0.675 0 0 0.68 0 0 0.685 0 0 0.69 0 0 0.695 0 0 0.7 0 0 0.705 0 0 0.71 0 0 0.715 0 0 0.72 0 0 0.725 0 0 0.73 0 0 0.735 0 0 0.74 0 0 0.745 0 0 0.75 0 0 0.755 0 0 0.76 0 0 0.765 0 0 0.77 0 0 0.775 0 0 0.78 0 0 0.785 0 0 0.79 0 0 0.795 0 0 0.8 0 0 0.805 0 0 0.81 0 0 0.815 0 0 0.82 0 0 0.825 0 0 0.83 0 0 0.835 0 0 0.84 0 0 0.845 0 0 0.85 0 0 0.855 0 0 0.86 0 0 0.865 0 0 0.87 0 0 0.875 0 0 0.88 0 0 0.885 0 0 0.89 0 0 0.895 0 0 0.9 0 0 0.905 0 0 0.91 0 0 0.915 0 0 0.92 0 0 0.925 0 0 0.93 0 0 0.935 0 0 0.94 0 0 0.945 0 0 0.95 0 0 0.955 0 0 0.96 0 0 0.965 0 0 0.97 0 0 0.975 0 0 0.98 0 0 0.985 0 0 0.99 0 0 0.995 0 0 1 0 0 0 0.02 0 0.005 0.02 0 0.01 0.02 0 0.015 0.02 0 0.02 0.02 0 0.025 0.02 0 0.03 0.02 0 0.035 0.02 0 0.04 0.02 0 0.045 0.02 0 0.05 0.02 0 0.055 0.02 0 0.06 0.02 0 0.065 0.02 0 0.07 0.02 0 0.075 0.02 0 0.08 0.02 0 0.085 0.02 0 0.09 0.02 0 0.095 0.02 0 0.1 0.02 0 0.105 0.02 0 0.11 0.02 0 0.115 0.02 0 0.12 0.02 0 0.125 0.02 0 0.13 0.02 0 0.135 0.02 0 0.14 0.02 0 0.145 0.02 0 0.15 0.02 0 0.155 0.02 0 0.16 0.02 0 0.165 0.02 0 0.17 0.02 0 0.175 0.02 0 0.18 0.02 0 0.185 0.02 0 0.19 0.02 0 0.195 0.02 0 0.2 0.02 0 0.205 0.02 0 0.21 0.02 0 0.215 0.02 0 0.22 0.02 0 0.225 0.02 0 0.23 0.02 0 0.235 0.02 0 0.24 0.02 0 0.245 0.02 0 0.25 0.02 0 0.255 0.02 0 0.26 0.02 0 0.265 0.02 0 0.27 0.02 0 0.275 0.02 0 0.28 0.02 0 0.285 0.02 0 0.29 0.02 0 0.295 0.02 0 0.3 0.02 0 0.305 0.02 0 0.31 0.02 0 0.315 0.02 0 0.32 0.02 0 0.325 0.02 0 0.33 0.02 0 0.335 0.02 0 0.34 0.02 0 0.345 0.02 0 0.35 0.02 0 0.355 0.02 0 0.36 0.02 0 0.365 0.02 0 0.37 0.02 0 0.375 0.02 0 0.38 0.02 0 0.385 0.02 0 0.39 0.02 0 0.395 0.02 0 0.4 0.02 0 0.405 0.02 0 0.41 0.02 0 0.415 0.02 0 0.42 0.02 0 0.425 0.02 0 0.43 0.02 0 0.435 0.02 0 0.44 0.02 0 0.445 0.02 0 0.45 0.02 0 0.455 0.02 0 0.46 0.02 0 0.465 0.02 0 0.47 0.02 0 0.475 0.02 0 0.48 0.02 0 0.485 0.02 0 0.49 0.02 0 0.495 0.02 0 0.5 0.02 0 0.505 0.02 0 0.51 0.02 0 0.515 0.02 0 0.52 0.02 0 0.525 0.02 0 0.53 0.02 0 0.535 0.02 0 0.54 0.02 0 0.545 0.02 0 0.55 0.02 0 0.555 0.02 0 0.56 0.02 0 0.565 0.02 0 0.57 0.02 0 0.575 0.02 0 0.58 0.02 0 0.585 0.02 0 0.59 0.02 0 0.595 0.02 0 0.6 0.02 0 0.605 0.02 0 0.61 0.02 0 0.615 0.02 0 0.62 0.02 0 0.625 0.02 0 0.63 0.02 0 0.635 0.02 0 0.64 0.02 0 0.645 0.02 0 0.65 0.02 0 0.655 0.02 0 0.66 0.02 0 0.665 0.02 0 0.67 0.02 0 0.675 0.02 0 0.68 0.02 0 0.685 0.02 0 0.69 0.02 0 0.695 0.02 0 0.7 0.02 0 0.705 0.02 0 0.71 0.02 0 0.715 0.02 0 0.72 0.02 0 0.725 0.02 0 0.73 0.02 0 0.735 0.02 0 0.74 0.02 0 0.745 0.02 0 0.75 0.02 0 0.755 0.02 0 0.76 0.02 0 0.765 0.02 0 0.77 0.02 0 0.775 0.02 0 0.78 0.02 0 0.785 0.02 0 0.79 0.02 0 0.795 0.02 0 0.8 0.02 0 0.805 0.02 0 0.81 0.02 0 0.815 0.02 0 0.82 0.02 0 0.825 0.02 0 0.83 0.02 0 0.835 0.02 0 0.84 0.02 0 0.845 0.02 0 0.85 0.02 0 0.855 0.02 0 0.86 0.02 0 0.865 0.02 0 0.87 0.02 0 0.875 0.02 0 0.88 0.02 0 0.885 0.02 0 0.89 0.02 0 0.895 0.02 0 0.9 0.02 0 0.905 0.02 0 0.91 0.02 0 0.915 0.02 0 0.92 0.02 0 0.925 0.02 0 0.93 0.02 0 0.935 0.02 0 0.94 0.02 0 0.945 0.02 0 0.95 0.02 0 0.955 0.02 0 0.96 0.02 0 0.965 0.02 0 0.97 0.02 0 0.975 0.02 0 0.98 0.02 0 0.985 0.02 0 0.99 0.02 0 0.995 0.02 0 1 0.02 0 0 0.04 0 0.005 0.04 0 0.01 0.04 0 0.015 0.04 0 0.02 0.04 0 0.025 0.04 0 0.03 0.04 0 0.035 0.04 0 0.04 0.04 0 0.045 0.04 0 0.05 0.04 0 0.055 0.04 0 0.06 0.04 0 0.065 0.04 0 0.07 0.04 0 0.075 0.04 0 0.08 0.04 0 0.085 0.04 0 0.09 0.04 0 0.095 0.04 0 0.1 0.04 0 0.105 0.04 0 0.11 0.04 0 0.115 0.04 0 0.12 0.04 0 0.125 0.04 0 0.13 0.04 0 0.135 0.04 0 0.14 0.04 0 0.145 0.04 0 0.15 0.04 0 0.155 0.04 0 0.16 0.04 0 0.165 0.04 0 0.17 0.04 0 0.175 0.04 0 0.18 0.04 0 0.185 0.04 0 0.19 0.04 0 0.195 0.04 0 0.2 0.04 0 0.205 0.04 0 0.21 0.04 0 0.215 0.04 0 0.22 0.04 0 0.225 0.04 0 0.23 0.04 0 0.235 0.04 0 0.24 0.04 0 0.245 0.04 0 0.25 0.04 0 0.255 0.04 0 0.26 0.04 0 0.265 0.04 0 0.27 0.04 0 0.275 0.04 0 0.28 0.04 0 0.285 0.04 0 0.29 0.04 0 0.295 0.04 0 0.3 0.04 0 0.305 0.04 0 0.31 0.04 0 0.315 0.04 0 0.32 0.04 0 0.325 0.04 0 0.33 0.04 0 0.335 0.04 0 0.34 0.04 0 0.345 0.04 0 0.35 0.04 0 0.355 0.04 0 0.36 0.04 0 0.365 0.04 0 0.37 0.04 0 0.375 0.04 0 0.38 0.04 0 0.385 0.04 0 0.39 0.04 0 0.395 0.04 0 0.4 0.04 0 0.405 0.04 0 0.41 0.04 0 0.415 0.04 0 0.42 0.04 0 0.425 0.04 0 0.43 0.04 0 0.435 0.04 0 0.44 0.04 0 0.445 0.04 0 0.45 0.04 0 0.455 0.04 0 0.46 0.04 0 0.465 0.04 0 0.47 0.04 0 0.475 0.04 0 0.48 0.04 0 0.485 0.04 0 0.49 0.04 0 0.495 0.04 0 0.5 0.04 0 0.505 0.04 0 0.51 0.04 0 0.515 0.04 0 0.52 0.04 0 0.525 0.04 0 0.53 0.04 0 0.535 0.04 0 0.54 0.04 0 0.545 0.04 0 0.55 0.04 0 0.555 0.04 0 0.56 0.04 0 0.565 0.04 0 0.57 0.04 0 0.575 0.04 0 0.58 0.04 0 0.585 0.04 0 0.59 0.04 0 0.595 0.04 0 0.6 0.04 0 0.605 0.04 0 0.61 0.04 0 0.615 0.04 0 0.62 0.04 0 0.625 0.04 0 0.63 0.04 0 0.635 0.04 0 0.64 0.04 0 0.645 0.04 0 0.65 0.04 0 0.655 0.04 0 0.66 0.04 0 0.665 0.04 0 0.67 0.04 0 0.675 0.04 0 0.68 0.04 0 0.685 0.04 0 0.69 0.04 0 0.695 0.04 0 0.7 0.04 0 0.705 0.04 0 0.71 0.04 0 0.715 0.04 0 0.72 0.04 0 0.725 0.04 0 0.73 0.04 0 0.735 0.04 0 0.74 0.04 0 0.745 0.04 0 0.75 0.04 0 0.755 0.04 0 0.76 0.04 0 0.765 0.04 0 0.77 0.04 0 0.775 0.04 0 0.78 0.04 0 0.785 0.04 0 0.79 0.04 0 0.795 0.04 0 0.8 0.04 0 0.805 0.04 0 0.81 0.04 0 0.815 0.04 0 0.82 0.04 0 0.825 0.04 0 0.83 0.04 0 0.835 0.04 0 0.84 0.04 0 0.845 0.04 0 0.85 0.04 0 0.855 0.04 0 0.86 0.04 0 0.865 0.04 0 0.87 0.04 0 0.875 0.04 0 0.88 0.04 0 0.885 0.04 0 0.89 0.04 0 0.895 0.04 0 0.9 0.04 0 0.905 0.04 0 0.91 0.04 0 0.915 0.04 0 0.92 0.04 0 0.925 0.04 0 0.93 0.04 0 0.935 0.04 0 0.94 0.04 0 0.945 0.04 0 0.95 0.04 0 0.955 0.04 0 0.96 0.04 0 0.965 0.04 0 0.97 0.04 0 0.975 0.04 0 0.98 0.04 0 0.985 0.04 0 0.99 0.04 0 0.995 0.04 0 1 0.04 0 0 0.06 0 0.005 0.06 0 0.01 0.06 0 0.015 0.06 0 0.02 0.06 0 0.025 0.06 0 0.03 0.06 0 0.035 0.06 0 0.04 0.06 0 0.045 0.06 0 0.05 0.06 0 0.055 0.06 0 0.06 0.06 0 0.065 0.06 0 0.07 0.06 0 0.075 0.06 0 0.08 0.06 0 0.085 0.06 0 0.09 0.06 0 0.095 0.06 0 0.1 0.06 0 0.105 0.06 0 0.11 0.06 0 0.115 0.06 0 0.12 0.06 0 0.125 0.06 0 0.13 0.06 0 0.135 0.06 0 0.14 0.06 0 0.145 0.06 0 0.15 0.06 0 0.155 0.06 0 0.16 0.06 0 0.165 0.06 0 0.17 0.06 0 0.175 0.06 0 0.18 0.06 0 0.185 0.06 0 0.19 0.06 0 0.195 0.06 0 0.2 0.06 0 0.205 0.06 0 0.21 0.06 0 0.215 0.06 0 0.22 0.06 0 0.225 0.06 0 0.23 0.06 0 0.235 0.06 0 0.24 0.06 0 0.245 0.06 0 0.25 0.06 0 0.255 0.06 0 0.26 0.06 0 0.265 0.06 0 0.27 0.06 0 0.275 0.06 0 0.28 0.06 0 0.285 0.06 0 0.29 0.06 0 0.295 0.06 0 0.3 0.06 0 0.305 0.06 0 0.31 0.06 0 0.315 0.06 0 0.32 0.06 0 0.325 0.06 0 0.33 0.06 0 0.335 0.06 0 0.34 0.06 0 0.345 0.06 0 0.35 0.06 0 0.355 0.06 0 0.36 0.06 0 0.365 0.06 0 0.37 0.06 0 0.375 0.06 0 0.38 0.06 0 0.385 0.06 0 0.39 0.06 0 0.395 0.06 0 0.4 0.06 0 0.405 0.06 0 0.41 0.06 0 0.415 0.06 0 0.42 0.06 0 0.425 0.06 0 0.43 0.06 0 0.435 0.06 0 0.44 0.06 0 0.445 0.06 0 0.45 0.06 0 0.455 0.06 0 0.46 0.06 0 0.465 0.06 0 0.47 0.06 0 0.475 0.06 0 0.48 0.06 0 0.485 0.06 0 0.49 0.06 0 0.495 0.06 0 0.5 0.06 0 0.505 0.06 0 0.51 0.06 0 0.515 0.06 0 0.52 0.06 0 0.525 0.06 0 0.53 0.06 0 0.535 0.06 0 0.54 0.06 0 0.545 0.06 0 0.55 0.06 0 0.555 0.06 0 0.56 0.06 0 0.565 0.06 0 0.57 0.06 0 0.575 0.06 0 0.58 0.06 0 0.585 0.06 0 0.59 0.06 0 0.595 0.06 0 0.6 0.06 0 0.605 0.06 0 0.61 0.06 0 0.615 0.06 0 0.62 0.06 0 0.625 0.06 0 0.63 0.06 0 0.635 0.06 0 0.64 0.06 0 0.645 0.06 0 0.65 0.06 0 0.655 0.06 0 0.66 0.06 0 0.665 0.06 0 0.67 0.06 0 0.675 0.06 0 0.68 0.06 0 0.685 0.06 0 0.69 0.06 0 0.695 0.06 0 0.7 0.06 0 0.705 0.06 0 0.71 0.06 0 0.715 0.06 0 0.72 0.06 0 0.725 0.06 0 0.73 0.06 0 0.735 0.06 0 0.74 0.06 0 0.745 0.06 0 0.75 0.06 0 0.755 0.06 0 0.76 0.06 0 0.765 0.06 0 0.77 0.06 0 0.775 0.06 0 0.78 0.06 0 0.785 0.06 0 0.79 0.06 0 0.795 0.06 0 0.8 0.06 0 0.805 0.06 0 0.81 0.06 0 0.815 0.06 0 0.82 0.06 0 0.825 0.06 0 0.83 0.06 0 0.835 0.06 0 0.84 0.06 0 0.845 0.06 0 0.85 0.06 0 0.855 0.06 0 0.86 0.06 0 0.865 0.06 0 0.87 0.06 0 0.875 0.06 0 0.88 0.06 0 0.885 0.06 0 0.89 0.06 0 0.895 0.06 0 0.9 0.06 0 0.905 0.06 0 0.91 0.06 0 0.915 0.06 0 0.92 0.06 0 0.925 0.06 0 0.93 0.06 0 0.935 0.06 0 0.94 0.06 0 0.945 0.06 0 0.95 0.06 0 0.955 0.06 0 0.96 0.06 0 0.965 0.06 0 0.97 0.06 0 0.975 0.06 0 0.98 0.06 0 0.985 0.06 0 0.99 0.06 0 0.995 0.06 0 1 0.06 0 0 0.08 0 0.005 0.08 0 0.01 0.08 0 0.015 0.08 0 0.02 0.08 0 0.025 0.08 0 0.03 0.08 0 0.035 0.08 0 0.04 0.08 0 0.045 0.08 0 0.05 0.08 0 0.055 0.08 0 0.06 0.08 0 0.065 0.08 0 0.07 0.08 0 0.075 0.08 0 0.08 0.08 0 0.085 0.08 0 0.09 0.08 0 0.095 0.08 0 0.1 0.08 0 0.105 0.08 0 0.11 0.08 0 0.115 0.08 0 0.12 0.08 0 0.125 0.08 0 0.13 0.08 0 0.135 0.08 0 0.14 0.08 0 0.145 0.08 0 0.15 0.08 0 0.155 0.08 0 0.16 0.08 0 0.165 0.08 0
[...]
			<PointData Scalars="VitesseX">
				<DataArray Name="VitesseX" type="Float32" format="ascii">
 0 2.40198e-14 -3.31164e-14 6.47578e-14 -3.38762e-14 -4.64186e-14 -9.23052e-14 2.31574e-14 -3.77197e-14 2.36396e-14 -4.08878e-14 -1.52357e-13 1.69716e-13 -2.65588e-13 3.99026e-14 -3.66831e-14 -9.927e-14 1.47914e-13 -1.01988e-13 -3.80982e-14 2.07416e-15 5.43217e-14 5.33075e-14 -2.24123e-13 -2.5544e-13 -2.2976e-14 3.10721e-13 2.45207e-13 -1.80759e-13 -1.74805e-14 -4.46184e-13 -7.64244e-14 -3.97426e-15 2.33154e-13 1.02152e-14 -1.79094e-13 2.79094e-13 -2.81663e-13 -7.6043e-14 -3.18794e-13 2.48042e-13 1.20242e-14 3.68098e-14 -3.70815e-13 9.27046e-14 6.89738e-14 7.81693e-13 -6.54131e-13 -3.58349e-14 -5.05122e-13 -8.50604e-14 5.94054e-13 -3.99046e-13 1.54081e-13 -1.01535e-12 3.53807e-13 8.97029e-13 -7.70313e-13 7.08223e-13 -6.27381e-13 1.43181e-14 2.34596e-13 -3.67728e-13 5.40871e-13 -2.93155e-13 -2.51763e-14 6.21003e-14 -7.23617e-13 6.10071e-13 5.37052e-14 -2.41923e-13 4.96881e-13 -1.41541e-12 9.49376e-13 -6.80481e-14 1.61529e-13 -3.07727e-13 -3.60429e-13 1.06789e-12 -5.48458e-13 1.21925e-13 1.82871e-13 -5.14147e-13 1.88697e-14 -7.45152e-13 1.08787e-12 2.28556e-12 5.85585e-11 1.78215e-09 4.49605e-08 9.35329e-07 1.56884e-05 0.000205933 0.00203003 0.0141723 0.0649877 0.1852 0.346898 0.506173 0.62266 0.739534 0.820118 0.899687 0.999922 0.985414 0.904796 0.784164 0.634509 0.460693 0.285372 0.143539 0.0556024 0.0166594 0.00417923 0.00094385 0.000197981 3.89532e-05 7.21367e-06 1.2597e-06 2.07745e-07 3.24004e-08 4.78534e-09 6.70886e-10 8.91684e-11 1.16528e-11 1.19596e-12 -1.04134e-12 7.12904e-13 1.54589e-13 5.00829e-13 -1.8633e-13 -1.14296e-12 6.39161e-13 1.95135e-13 3.95273e-14 -6.96387e-13 -1.57447e-12 1.77088e-13 7.63783e-13 1.46553e-13 -2.64634e-13 -2.47365e-13 -7.7068e-13 -1.32604e-13 1.46523e-12 1.08145e-13 -1.22803e-13 3.907e-13 -1.90506e-14 1.30002e-12 -6.96274e-13 -4.18137e-13 1.18923e-13 -2.12661e-13 9.79272e-13 7.34873e-14 -1.25023e-12 8.43741e-14 5.29715e-13 1.09321e-12 -1.0398e-12 -1.84006e-12 2.69303e-13 9.31042e-13 7.27496e-13 -7.95992e-13 -1.3821e-12 9.10039e-13 1.01232e-13 -3.00879e-13 8.24281e-13 5.45886e-13 -3.79294e-15 -9.14884e-13 8.61747e-14 9.84922e-13 2.00584e-14 -1.16313e-13 -8.98912e-13 5.47991e-14 8.48186e-13 1.50335e-13 -3.18907e-13 -1.0303e-12 -2.21438e-13 4.12442e-13 -5.87666e-13 -7.93299e-13 -1.20567e-12 1.15245e-14 2.12517e-12 -1.08342e-12 -2.03461e-13 -1.64187e-12 2.19486e-12 2.77825e-13 -1.23725e-12 3.1688e-13 8.27059e-13 1.85933e-12 0 0 -2.74062e-14 1.26598e-14 -4.73567e-14 -1.30352e-15 4.43551e-15 -4.55387e-15 -8.52645e-14 -2.55329e-14 -8.03384e-14 -1.01411e-13 7.70058e-14 -1.57245e-13 8.34982e-14 -1.91349e-13 2.23432e-14 7.49581e-14 -2.49835e-13 8.91765e-14 4.67456e-14 6.9759e-14 -2.72319e-14 -1.15538e-13 -9.2085e-14 -1.01236e-13 -2.99659e-14 1.4114e-13 1.55612e-14 1.44317e-13 -1.92941e-13 -9.4616e-14 -3.83968e-13 -3.24921e-14 1.73428e-13 1.07877e-13 8.55598e-14 -2.99822e-13 -7.46433e-15 -2.79575e-13 2.13139e-13 -3.73796e-15 -7.07218e-14 -4.81694e-14 6.6271e-14 -1.95534e-13 2.65345e-13 -3.79651e-13 3.69481e-13 -4.17327e-13 1.13934e-13 -1.47104e-13 -4.38609e-13 2.09413e-13 -6.01668e-13 4.45545e-13 1.17585e-13 -4.19338e-13 6.72666e-13 -5.78837e-13 4.22985e-13 -2.88814e-13 -1.66733e-13 5.59792e-13 -1.26031e-13 1.27639e-13 -1.50923e-13 -4.34589e-13 2.39225e-13 -4.68652e-14 -2.2624e-13 2.72141e-13 -5.74812e-13 3.81939e-13 -5.33735e-13 4.1996e-14 -1.17e-13 3.07217e-13 2.51254e-13 -6.01742e-13 5.78135e-13 -4.14301e-13 1.55025e-14 3.59724e-13 -5.95487e-13 6.99771e-14 3.77742e-13 1.47209e-12 6.00942e-11 1.78282e-09 4.49589e-08 9.35329e-07 1.56884e-05 0.000205933 0.00203003 0.0141723 0.0649877 0.1852 0.346898 0.506173 0.62266 0.739534 0.820118 0.899687 0.999922 0.985414 0.904796 0.784164 0.634509 0.460693 0.285372 0.143539 0.0556024 0.0166594 0.00417923 0.00094385 0.000197981 3.89532e-05 7.21367e-06 1.2597e-06 2.07744e-07 3.24013e-08 4.78559e-09 6.70099e-10 8.93388e-11 1.09291e-11 1.42831e-12 1.05298e-13 5.4366e-14 1.83939e-13 -2.41861e-13 -5.81372e-14 3.32216e-14 1.80204e-13 -4.15603e-14 -4.36056e-13 -4.96541e-13 -5.0962e-13 -4.01935e-13 3.40688e-13 5.36476e-13 -1.99464e-13 -2.00824e-13 -3.36913e-13 -2.25324e-13 2.23958e-14 6.34406e-13 8.58594e-13 -3.33748e-13 3.77824e-13 -4.07268e-13 6.51245e-13 1.11635e-13 -4.68305e-13 3.73818e-13 -3.52272e-13 1.88767e-13 1.46732e-13 2.49449e-13 -2.32273e-13 -7.9768e-13 4.84936e-13 1.44033e-13 -9.94137e-14 -8.16997e-13 -4.85511e-13 4.86068e-13 -1.32536e-13 -6.60855e-14 3.29197e-13 3.28885e-14 -8.69519e-15 1.85152e-13 9.75825e-14 6.69014e-13 -3.56216e-13 -1.00305e-13 6.67744e-14 9.00004e-14 7.21154e-13 -4.64131e-13 -4.14293e-13 7.81421e-14 -2.98197e-13 7.71779e-13 -7.25478e-13 -7.7041e-13 -7.70935e-13 -6.38047e-13 3.00553e-13 1.42642e-13 -8.80027e-13 9.14699e-13 -5.50964e-13 1.38622e-13 -1.19325e-12 -1.76723e-14 1.75434e-12 1.5773e-13 1.08252e-12 -9.90396e-13 0 0 -1.78984e-14 -4.22178e-15 -8.50118e-15 -6.35724e-14 -7.20671e-15 4.04633e-15 -4.55642e-14 -1.33294e-13 -4.6123e-14 -4.64016e-14 -1.08519e-13 1.51766e-14 1.59067e-14 1.24649e-14 -8.17838e-14 -6.76244e-14 3.97324e-16 -3.03243e-14 2.47838e-14 3.30324e-14 -7.65073e-14 -2.7194e-13 8.06995e-15 1.34914e-13 -2.77459e-14 -2.38982e-14 -1.90542e-14 5.867e-14 -6.06684e-14 -2.90137e-13 -1.59908e-13 -1.83502e-13 6.09399e-14 3.42073e-13 -4.88959e-14 -7.95528e-14 -2.5347e-13 4.21594e-14 -4.12376e-14 -1.13309e-13 -5.96307e-14 -4.88076e-14 1.88748e-13 -2.12313e-15 -1.80639e-13 -8.96261e-14 -2.29796e-13 -8.65261e-14 -7.90745e-14 -4.25592e-14 -2.44444e-13 -3.01297e-13 1.91477e-13 4.34625e-13 -2.06214e-14 -6.2248e-13 -3.04546e-13 5.81949e-13 1.68454e-13 -1.14694e-13 -1.7176e-13 4.24697e-13 3.03714e-13 -8.27612e-14 -2.34456e-13 -3.67564e-13 1.38521e-13 1.18316e-13 -4.94222e-13 -3.91873e-13 3.11547e-13 2.41533e-13 -2.3246e-13 -7.59834e-13 1.84352e-13 5.1217e-13 -2.30636e-13 -5.22183e-13 -4.56404e-13 7.0453e-13 -3.86769e-13 2.47753e-13 7.44949e-13 2.49574e-14 -9.98502e-13 1.4411e-12 6.03244e-11 1.78294e-09 4.49597e-08 9.35328e-07 1.56884e-05 0.000205933 0.00203003 0.0141723 0.0649877 0.1852 0.346898 0.506173 0.62266 0.739534 0.820118 0.899687 0.999922 0.985414 0.904796 0.784164 0.634509 0.460693 0.285372 0.143539 0.0556024 0.0166594 0.00417923 0.00094385 0.000197981 3.89532e-05 7.21367e-06 1.2597e-06 2.07745e-07 3.24006e-08 4.78641e-09 6.7012e-10 8.86408e-11 1.10305e-11 7.72897e-13 1.43842e-12 1.45429e-14 -7.1711e-13 2.55286e-14 -7.85068e-13 1.34647e-12 -6.50611e-14 -3.60764e-13 -2.0205e-13 -9.85876e-13 7.78491e-13 -6.36882e-13 -6.88457e-13 3.20641e-13 -2.64215e-13 6.9171e-13 8.48168e-13 -1.08179e-12 -9.64272e-13 9.90698e-13 2.67498e-13 1.06317e-12 -6.74622e-13 -4.65646e-13 4.7979e-13 -2.68519e-13 8.96513e-13 -2.31373e-13 -2.48571e-13 -1.39582e-12 1.70512e-12 4.52706e-13 -2.69316e-13 -8.07954e-13 -2.85183e-13 1.20165e-12 -6.32613e-13 -8.04209e-13 -6.0134e-13 9.57812e-14 1.01036e-12 -7.94856e-13 -3.65858e-13 5.70836e-13 -2.61004e-13 6.6822e-13 6.6832e-13 -5.06995e-13 -8.59207e-14 -8.50421e-13 1.00841e-12 7.45166e-13 -3.87657e-13 2.28603e-14 -8.30124e-13 2.17609e-13 6.03645e-13 -4.91677e-13 -2.06521e-13 -1.2419e-12 -2.25422e-13 2.05102e-14 -1.0189e-12 6.75379e-13 -1.07327e-12 -1.24171e-13 1.65417e-12 -6.80544e-13 -1.88358e-12 5.88052e-13 1.42657e-12 1.38744e-12 -1.42168e-12 -2.45511e-14 0 0 3.97713e-14 -9.51212e-15 -9.43352e-15 -1.44329e-14 -6.61099e-14 -1.16754e-13 -8.27138e-14 -7.00437e-14 -8.55229e-14 2.59238e-14 -4.11231e-14 1.04734e-13 -9.7959e-14 -5.63875e-14 -4.6353e-14 -1.48567e-13 2.0612e-14 1.25161e-14 -1.13163e-13 -1.77785e-13 -8.27879e-15 1.25212e-13 -1.29051e-14 -1.50863e-13 8.15494e-14 1.51546e-13 -1.21118e-13 -1.77639e-13 4.7393e-14 -1.73729e-13 -2.4183e-13 2.65311e-14 7.09376e-14 2.29381e-14 4.5418e-14 2.71234e-13 -9.17377e-14 -1.38573e-13 -3.28579e-13 -1.66169e-13 -7.02647e-14 9.50629e-15 -1.93987e-13 3.33051e-13 2.08451e-13 8.69635e-14 -5.51435e-13 -4.12924e-13 -5.02067e-13 9.43171e-14 5.60735e-13 1.0161e-14 -3.67046e-13 -2.75918e-13 2.22585e-13 8.37642e-14 4.57342e-14 8.30607e-14 -4.24662e-13 -2.37528e-13 1.30308e-13 3.75756e-13 3.21122e-13 -1.29521e-13 -2.11277e-13 -3.69397e-13 -1.5971e-13 1.45401e-13 6.06177e-13 -2.03706e-13 -5.89946e-14 -5.02739e-13 -2.17981e-14 1.29055e-13 -4.07689e-14 -5.63408e-13 -9.08759e-14 -1.26149e-13 -6.06876e-13 -1.23852e-13 3.66576e-13 3.54475e-13 -4.21985e-13 9.22769e-14 1.82406e-13 1.31005e-12 5.88584e-11 1.78243e-09 4.49613e-08 9.35328e-07 1.56884e-05 0.000205933 0.00203003 0.0141723 0.0649877 0.1852 0.346898 0.506173 0.62266 0.739534 0.820118 0.899687 0.999922 0.985414 0.904796 0.784164 0.634509 0.460693 0.285372 0.143539 0.0556024 0.0166594 0.00417923 0.00094385 0.000197981 3.89532e-05 7.21367e-06 1.2597e-06 2.07745e-07 3.24003e-08 4.78574e-09 6.70375e-10 8.90638e-11 1.11324e-11 9.6693e-13 4.72785e-13 1.4537e-13 1.9942e-13 -2.89295e-13 -4.98959e-14 -1.48184e-13 3.51303e-14 1.97043e-13 -2.03508e-13 -6.89932e-13 -2.51622e-13 -4.69363e-13 -3.38581e-13 -1.07098e-12 5.91689e-13 1.38605e-12 -4.98258e-13 1.08206e-13 -4.52447e-13 -1.78005e-13 4.73905e-13 6.41564e-13 -1.26e-13 -3.58268e-13 -6.13259e-13 9.40586e-13 8.75617e-13 -1.03998e-13 -2.27934e-13 -1.14238e-12 -2.38272e-13 -2.05651e-13 9.90516e-13 9.51573e-13 -7.59492e-13 -1.00074e-12 -8.16521e-13 1.00191e-12 -4.8682e-13 -1.20246e-12 2.69181e-13 1.24537e-12 1.2595e-14 -1.18765e-12 2.35074e-13 1.25564e-12 1.99825e-13 -7.98663e-13 -7.44645e-13 5.35033e-13 1.05036e-12 1.53338e-13 -9.79113e-13 -1.02255e-12 1.05072e-12 8.04976e-13 -2.75803e-13 -1.1653e-12 -4.59218e-13 -7.80336e-14 2.85474e-14 -1.33682e-12 -1.19753e-12 -3.16399e-13 3.16662e-12 7.35428e-13 -2.18134e-12 -1.59821e-12 1.78675e-13 8.81757e-13 -1.35624e-13 -6.74227e-14 2.40223e-13 9.28839e-13 0 0 9.19027e-15 9.68176e-15 -5.4832e-14 2.15657e-14 -7.9546e-14 -1.0241e-13 -1.73696e-13 -3.85394e-14 -7.76013e-14 -1.5543e-14 1.35576e-13 -1.81382e-13 -6.88464e-15 -1.63052e-13 3.93556e-14 2.66459e-14 -2.60301e-13 4.78296e-14 -1.29404e-14 -1.40016e-13 -1.74176e-14 1.04926e-13 -1.17645e-13 -2.35472e-13 1.25846e-14 -7.58912e-15 -1.85032e-13 -1.36067e-14 -1.16371e-13 1.64575e-13 -2.1107e-13 1.07436e-13 1.97561e-13 6.85845e-14 2.97787e-13 2.8035e-14 5.46797e-14 -3.05808e-13 -1.30878e-13 -3.41908e-13 -2.91901e-13 -1.42661e-13 1.85369e-14 1.56735e-14 3.27854e-13 -4.59655e-13 1.2071e-13 -6.50753e-13 -1.68752e-14 -4.77439e-14 -1.03262e-13 1.05998e-13 -6.66177e-13 2.20631e-13 2.38364e-13 -2.36578e-13 7.67306e-13 -7.42131e-13 2.07296e-13 -3.5799e-13 3.07373e-14 6.67486e-13 -1.18499e-13 1.56239e-13 -2.21176e-13 -5.48052e-13 8.1254e-14 -1.2331e-13 6.66363e-13 4.00669e-13 -2.87393e-13 4.2691e-13 -6.48295e-13 3.5657e-13 -4.35754e-13 -6.40343e-13 -3.99918e-14 -8.98222e-13 -3.97266e-14 -6.72941e-13 3.79075e-13 1.07326e-13 -1.44042e-12 3.2012e-13 8.95943e-13 1.10623e-12 5.94214e-11 1.78286e-09 4.49593e-08 9.3533e-07 1.56883e-05 0.000205933 0.00203003 0.0141723 0.0649877 0.1852 0.346898 0.506173 0.62266 0.739534 0.820118 0.899687 0.999922 0.985414 0.904796 0.784164 0.634509 0.460693 0.285372 0.143539 0.0556024 0.0166594 0.00417923 0.00094385 0.000197981 3.89532e-05 7.21367e-06 1.2597e-06 2.07745e-07 3.24013e-08 4.78496e-09 6.70166e-10 8.94097e-11 1.15414e-11 1.65389e-12 -1.98265e-13 -6.5393e-13 4.00656e-13 -2.38781e-13 7.61452e-13 -7.06763e-13 -1.75285e-14 -3.37561e-13 -1.92334e-13 2.47851e-13 -1.47425e-12 -9.17904e-13 3.47273e-13 -4.76866e-13 6.51165e-13 1.33683e-13 -1.1025e-12 2.67835e-13 4.93968e-13 7.87248e-13 1.34899e-12 -5.50032e-13 7.34296e-13 -5.05299e-13 4.24624e-13 3.33738e-13 -8.55523e-13 1.27232e-13 -1.88017e-13 -2.3879e-13 -1.53345e-12 -1.00549e-12 1.44596e-13 1.4786e-12 1.33525e-12 -1.25683e-12 -1.72235e-12 -1.71286e-12 -8.53674e-13 3.09185e-13 5.3835e-13 1.78005e-12 4.65616e-14 -1.06275e-12 -7.67295e-13 -4.2925e-15 6.02607e-13 1.63481e-12 -1.30313e-13 -2.50238e-13 -1.15278e-12 -1.93757e-13 1.45173e-12 9.74992e-14 -5.72664e-14 -6.09452e-13 -8.05759e-13 9.01416e-13 6.69439e-14 -3.40124e-13 -1.72554e-12 -2.60684e-12 6.61096e-13 1.42444e-12 2.59421e-12 1.71353e-13 -3.27878e-12 -1.01548e-12 -3.80437e-13 6.85405e-13 1.71223e-12 -1.45432e-13 1.7595e-12 -9.93524e-13 0 0 -1.81267e-14 -2.84919e-14 5.16719e-14 -8.64167e-14 -9.65753e-14 -4.64164e-14 -7.94073e-14 -1.90233e-13 1.07914e-13 -1.38018e-14 -1.70007e-13 -5.76724e-14 -2.18622e-13 2.34202e-13 -7.35199e-14 -3.40101e-14 8.65525e-14 -2.70362e-13 1.18423e-13 4.16003e-15 -6.25067e-14 -3.00068e-13 -2.33293e-13 4.76438e-14 -1.56466e-13 -3.37625e-13 4.81493e-14 -2.39884e-14 -8.04645e-14 -1.60619e-13 4.33215e-13 -1.44185e-13 2.61424e-13 5.69901e-13 5.67315e-14 2.33234e-13 -4.80839e-13 2.32957e-13 -4.32147e-13 -3.22578e-13 -4.09067e-13 -2.68802e-13 2.99186e-13 -1.55228e-13 -5.84186e-13 2.68506e-13 -5.08394e-13 1.50109e-13 7.92449e-14 -1.60092e-13 -3.4561e-13 -1.22879e-12 1.14211e-12 -4.40878e-14 1.08953e-13 -1.49939e-13 -1.28159e-12 1.37941e-12 1.27473e-13 1.21633e-13 2.54007e-14 -5.44559e-14 5.2112e-13 -1.42437e-13 -2.1204e-13 -1.61159e-13 -4.43097e-13 4.03012e-13 -3.61886e-13 -3.61201e-13 1.8128e-12 1.6308e-13 2.98931e-13 -1.21668e-12 -2.5737e-14 -5.16912e-14 -1.22244e-12 -3.17139e-13 -1.48324e-12 1.26141e-12 -5.96674e-13 -1.23239e-12 6.62872e-13 -3.79505e-13 -2.3755e-13 1.81594e-12 6.0145e-11 1.78325e-09 4.49581e-08 9.35329e-07 1.56884e-05 0.000205933 0.00203003 0.0141723 0.0649877 0.1852 0.346898 0.506173 0.62266 0.739534 0.820118 0.899687 0.999922 0.985414 0.904796 0.784164 0.634509 0.460693 0.285372 0.143539 0.0556024 0.0166594 0.00417923 0.00094385 0.000197981 3.89532e-05 7.21367e-06 1.2597e-06 2.07746e-07 3.24008e-08 4.78543e-09 6.7051e-10 8.84643e-11 1.26736e-11 1.25906e-12 2.82813e-13 -9.65344e-13 -1.24504e-12 1.13664e-12 -1.74965e-14 3.66368e-13 4.33126e-14 -1.51248e-12 5.29887e-13 2.0051e-13 -1.4435e-12 -1.18989e-12 7.7202e-14 9.03105e-13 -2.75184e-13 -9.67037e-13 3.91007e-13 -1.52628e-12 1.38473e-12 2.75123e-12 4.45169e-13 8.01345e-13 -4.0335e-13 8.892e-13 1.03658e-12 -2.39214e-12 -6.13722e-13 -9.60582e-13 1.26651e-12 -1.28849e-12 -7.23824e-13 -1.10879e-12 -1.23621e-12 2.1267e-12 1.60944e-12 -2.37003e-13 -2.60875e-12 -4.47293e-12 -2.3787e-13 1.44673e-12 1.44204e-12 5.21854e-13 -1.22095e-12 1.02481e-12 -1.68507e-12 -1.00784e-12 1.94325e-12 1.60004e-12 1.85543e-12 -2.08585e-12 -2.50295e-12 4.99831e-13 1.74516e-12 3.26888e-12 -2.19945e-12 -2.39959e-12 4.24865e-13 5.76227e-13 1.8688e-12 -1.05472e-12 -3.00482e-12 -2.01622e-12 -1.27318e-13 4.55867e-12 5.93869e-13 -4.28931e-12 2.01193e-12 -2.11475e-12 -3.0402e-13 1.09657e-12 1.80291e-12 2.62027e-12 -1.14278e-12 -5.37098e-14 0
				</DataArray>
				<DataArray Name="VitesseY" type="Float32" format="ascii">