<?xml version="1.0"?>
<VTKFile type="PolyData">
	<PolyData>
		<Piece NumberOfPoints="1206" NumberOfPolys="1000">
			<Points>
				<DataArray type="Float32" NumberOfComponents="3" format="ascii">
 0 0 0 0.005 0 0 0.01 0 0 0.015 0 0 0.02 0 0 0.025 0 0 0.03 0 0 0.035 0 0 0.04 0 0 0.045 0 0 0.05 0 0 0.055 0 0 0.06 0 0 0.065 0 0 0.07 0 0 0.075 0 0 0.08 0 0 0.085 0 0 0.09 0 0 0.095 0 0 0.1 0 0 0.105 0 0 0.11 0 0 0.115 0 0 0.12 0 0 0.125 0 0 0.13 0 0 0.135 0 0 0.14 0 0 0.145 0 0 0.15 0 0 0.155 0 0 0.16 0 0 0.165 0 0 0.17 0 0 0.175 0 0 0.18 0 0 0.185 0 0 0.19 0 0 0.195 0 0 0.2 0 0 0.205 0 0 0.21 0 0 0.215 0 0 0.22 0 0 0.225 0 0 0.23 0 0 0.235 0 0 0.24 0 0 0.245 0 0 0.25 0 0 0.255 0 0 0.26 0 0 0.265 0 0 0.27 0 0 0.275 0 0 0.28 0 0 0.285 0 0 0.29 0 0 0.295 0 0 0.3 0 0 0.305 0 0 0.31 0 0 0.315 0 0 0.32 0 0 0.325 0 0 0.33 0 0 0.335 0 0 0.34 0 0 0.345 0 0 0.35 0 0 0.355 0 0 0.36 0 0 0.365 0 0 0.37 0 0 0.375 0 0 0.38 0 0 0.385 0 0 0.39 0 0 0.395 0 0 0.4 0 0 0.405 0 0 0.41 0 0 0.415 0 0 0.42 0 0 0.425 0 0 0.43 0 0 0.435 0 0 0.44 0 0 0.445 0 0 0.45 0 0 0.455 0 0 0.46 0 0 0.465 0 0 0.47 0 0 0.475 0 0 0.48 0 0 0.485 0 0 0.49 0 0 0.495 0 0 0.5 0 0 0.505 0 0 0.51 0 0 0.515 0 0 0.52 0 0 0.525 0 0 0.53 0 0 0.535 0 0 0.54 0 0 0.545 0 0 0.55 0 0 0.555 0 0 0.56 0 0 0.565 0 0 0.57 0 0 0.575 0 0 0.58 0 0 0.585 0 0 0.59 0 0 0.595 0 0 0.6 0 0 0.605 0 0 0.61 0 0 0.615 0 0 0.62 0 0 0.625 0 0 0.63 0 0 0.635 0 0 0.64 0 0 0.645 0 0 0.65 0 0 0.655 0 0 0.66 0 0 0.665 0 0 0.67 0 0 0.675 0 0 0.68 0 0 0.685 0 0 0.69 0 0 0.695 0 0 0.7 0 0 0.705 0 0 0.71 0 0 0.715 0 0 0.72 0 0 0.725 0 0 0.73 0 0 0.735 0 0 0.74 0 0 0.745 0 0 0.75 0 0 0.755 0 0 0.76 0 0 0.765 0 0 0.77 0 0 0.775 0 0 0.78 0 0 0.785 0 0 0.79 0 0 0.795 0 0 0.8 0 0 0.805 0 0 0.81 0 0 0.815 0 0 0.82 0 0 0.825 0 0 0.83 0 0 0.835 0 0 0.84 0 0 0.845 0 0 0.85 0 0 0.855 0 0 0.86 0 0 0.865 0 0 0.87 0 0 0.875 0 0 0.88 0 0 0.885 0 0 0.89 0 0 0.895 0 0 0.9 0 0 0.905 0 0 0.91 0 0 0.915 0 0 0.92 0 0 0.925 0 0 0.93 0 0 0.935 0 0 0.94 0 0 0.945 0 0 0.95 0 0 0.955 0 0 0.96 0 0 0.965 0 0 0.97 0 0 0.975 0 0 0.98 0 0 0.985 0 0 0.99 0 0 0.995 0 0 1 0 0 0 0.02 0 0.005 0.02 0 0.01 0.02 0 0.015 0.02 0 0.02 0.02 0 0.025 0.02 0 0.03 0.02 0 0.035 0.02 0 0.04 0.02 0 0.045 0.02 0 0.05 0.02 0 0.055 0.02 0 0.06 0.02 0 0.065 0.02 0 0.07 0.02 0 0.075 0.02 0 0.08 0.02 0 0.085 0.02 0 0.09 0.02 0 0.095 0.02 0 0.1 0.02 0 0.105 0.02 0 0.11 0.02 0 0.115 0.02 0 0.12 0.02 0 0.125 0.02 0 0.13 0.02 0 0.135 0.02 0 0.14 0.02 0 0.145 0.02 0 0.15 0.02 0 0.155 0.02 0 0.16 0.02 0 0.165 0.02 0 0.17 0.02 0 0.175 0.02 0 0.18 0.02 0 0.185 0.02 0 0.19 0.02 0 0.195 0.02 0 0.2 0.02 0 0.205 0.02 0 0.21 0.02 0 0.215 0.02 0 0.22 0.02 0 0.225 0.02 0 0.23 0.02 0 0.235 0.02 0 0.24 0.02 0 0.245 0.02 0 0.25 0.02 0 0.255 0.02 0 0.26 0.02 0 0.265 0.02 0 0.27 0.02 0 0.275 0.02 0 0.28 0.02 0 0.285 0.02 0 0.29 0.02 0 0.295 0.02 0 0.3 0.02 0 0.305 0.02 0 0.31 0.02 0 0.315 0.02 0 0.32 0.02 0 0.325 0.02 0 0.33 0.02 0 0.335 0.02 0 0.34 0.02 0 0.345 0.02 0 0.35 0.02 0 0.355 0.02 0 0.36 0.02 0 0.365 0.02 0 0.37 0.02 0 0.375 0.02 0 0.38 0.02 0 0.385 0.02 0 0.39 0.02 0 0.395 0.02 0 0.4 0.02 0 0.405 0.02 0 0.41 0.02 0 0.415 0.02 0 0.42 0.02 0 0.425 0.02 0 0.43 0.02 0 0.435 0.02 0 0.44 0.02 0 0.445 0.02 0 0.45 0.02 0 0.455 0.02 0 0.46 0.02 0 0.465 0.02 0 0.47 0.02 0 0.475 0.02 0 0.48 0.02 0 0.485 0.02 0 0.49 0.02 0 0.495 0.02 0 0.5 0.02 0 0.505 0.02 0 0.51 0.02 0 0.515 0.02 0 0.52 0.02 0 0.525 0.02 0 0.53 0.02 0 0.535 0.02 0 0.54 0.02 0 0.545 0.02 0 0.55 0.02 0 0.555 0.02 0 0.56 0.02 0 0.565 0.02 0 0.57 0.02 0 0.575 0.02 0 0.58 0.02 0 0.585 0.02 0 0.59 0.02 0 0.595 0.02 0 0.6 0.02 0 0.605 0.02 0 0.61 0.02 0 0.615 0.02 0 0.62 0.02 0 0.625 0.02 0 0.63 0.02 0 0.635 0.02 0 0.64 0.02 0 0.645 0.02 0 0.65 0.02 0 0.655 0.02 0 0.66 0.02 0 0.665 0.02 0 0.67 0.02 0 0.675 0.02 0 0.68 0.02 0 0.685 0.02 0 0.69 0.02 0 0.695 0.02 0 0.7 0.02 0 0.705 0.02 0 0.71 0.02 0 0.715 0.02 0 0.72 0.02 0 0.725 0.02 0 0.73 0.02 0 0.735 0.02 0 0.74 0.02 0 0.745 0.02 0 0.75 0.02 0 0.755 0.02 0 0.76 0.02 0 0.765 0.02 0 0.77 0.02 0 0.775 0.02 0 0.78 0.02 0 0.785 0.02 0 0.79 0.02 0 0.795 0.02 0 0.8 0.02 0 0.805 0.02 0 0.81 0.02 0 0.815 0.02 0 0.82 0.02 0 0.825 0.02 0 0.83 0.02 0 0.835 0.02 0 0.84 0.02 0 0.845 0.02 0 0.85 0.02 0 0.855 0.02 0 0.86 0.02 0 0.865 0.02 0 0.87 0.02 0 0.875 0.02 0 0.88 0.02 0 0.885 0.02 0 0.89 0.02 0 0.895 0.02 0 0.9 0.02 0 0.905 0.02 0 0.91 0.02 0 0.915 0.02 0 0.92 0.02 0 0.925 0.02 0 0.93 0.02 0 0.935 0.02 0 0.94 0.02 0 0.945 0.02 0 0.95 0.02 0 0.955 0.02 0 0.96 0.02 0 0.965 0.02 0 0.97 0.02 0 0.975 0.02 0 0.98 0.02 0 0.985 0.02 0 0.99 0.02 0 0.995 0.02 0 1 0.02 0 0 0.04 0 0.005 0.04 0 0.01 0.04 0 0.015 0.04 0 0.02 0.04 0 0.025 0.04 0 0.03 0.04 0 0.035 0.04 0 0.04 0.04 0 0.045 0.04 0 0.05 0.04 0 0.055 0.04 0 0.06 0.04 0 0.065 0.04 0 0.07 0.04 0 0.075 0.04 0 0.08 0.04 0 0.085 0.04 0 0.09 0.04 0 0.095 0.04 0 0.1 0.04 0 0.105 0.04 0 0.11 0.04 0 0.115 0.04 0 0.12 0.04 0 0.125 0.04 0 0.13 0.04 0 0.135 0.04 0 0.14 0.04 0 0.145 0.04 0 0.15 0.04 0 0.155 0.04 0 0.16 0.04 0 0.165 0.04 0 0.17 0.04 0 0.175 0.04 0 0.18 0.04 0 0.185 0.04 0 0.19 0.04 0 0.195 0.04 0 0.2 0.04 0 0.205 0.04 0 0.21 0.04 0 0.215 0.04 0 0.22 0.04 0 0.225 0.04 0 0.23 0.04 0 0.235 0.04 0 0.24 0.04 0 0.245 0.04 0 0.25 0.04 0 0.255 0.04 0 0.26 0.04 0 0.265 0.04 0 0.27 0.04 0 0.275 0.04 0 0.28 0.04 0 0.285 0.04 0 0.29 0.04 0 0.295 0.04 0 0.3 0.04 0 0.305 0.04 0 0.31 0.04 0 0.315 0.04 0 0.32 0.04 0 0.325 0.04 0 0.33 0.04 0 0.335 0.04 0 0.34 0.04 0 0.345 0.04 0 0.35 0.04 0 0.355 0.04 0 0.36 0.04 0 0.365 0.04 0 0.37 0.04 0 0.375 0.04 0 0.38 0.04 0 0.385 0.04 0 0.39 0.04 0 0.395 0.04 0 0.4 0.04 0 0.405 0.04 0 0.41 0.04 0 0.415 0.04 0 0.42 0.04 0 0.425 0.04 0 0.43 0.04 0 0.435 0.04 0 0.44 0.04 0 0.445 0.04 0 0.45 0.04 0 0.455 0.04 0 0.46 0.04 0 0.465 0.04 0 0.47 0.04 0 0.475 0.04 0 0.48 0.04 0 0.485 0.04 0 0.49 0.04 0 0.495 0.04 0 0.5 0.04 0 0.505 0.04 0 0.51 0.04 0 0.515 0.04 0 0.52 0.04 0 0.525 0.04 0 0.53 0.04 0 0.535 0.04 0 0.54 0.04 0 0.545 0.04 0 0.55 0.04 0 0.555 0.04 0 0.56 0.04 0 0.565 0.04 0 0.57 0.04 0 0.575 0.04 0 0.58 0.04 0 0.585 0.04 0 0.59 0.04 0 0.595 0.04 0 0.6 0.04 0 0.605 0.04 0 0.61 0.04 0 0.615 0.04 0 0.62 0.04 0 0.625 0.04 0 0.63 0.04 0 0.635 0.04 0 0.64 0.04 0 0.645 0.04 0 0.65 0.04 0 0.655 0.04 0 0.66 0.04 0 0.665 0.04 0 0.67 0.04 0 0.675 0.04 0 0.68 0.04 0 0.685 0.04 0 0.69 0.04 0 0.695 0.04 0 0.7 0.04 0 0.705 0.04 0 0.71 0.04 0 0.715 0.04 0 0.72 0.04 0 0.725 0.04 0 0.73 0.04 0 0.735 0.04 0 0.74 0.04 0 0.745 0.04 0 0.75 0.04 0 0.755 0.04 0 0.76 0.04 0 0.765 0.04 0 0.77 0.04 0 0.775 0.04 0 0.78 0.04 0 0.785 0.04 0 0.79 0.04 0 0.795 0.04 0 0.8 0.04 0 0.805 0.04 0 0.81 0.04 0 0.815 0.04 0 0.82 0.04 0 0.825 0.04 0 0.83 0.04 0 0.835 0.04 0 0.84 0.04 0 0.845 0.04 0 0.85 0.04 0 0.855 0.04 0 0.86 0.04 0 0.865 0.04 0 0.87 0.04 0 0.875 0.04 0 0.88 0.04 0 0.885 0.04 0 0.89 0.04 0 0.895 0.04 0 0.9 0.04 0 0.905 0.04 0 0.91 0.04 0 0.915 0.04 0 0.92 0.04 0 0.925 0.04 0 0.93 0.04 0 0.935 0.04 0 0.94 0.04 0 0.945 0.04 0 0.95 0.04 0 0.955 0.04 0 0.96 0.04 0 0.965 0.04 0 0.97 0.04 0 0.975 0.04 0 0.98 0.04 0 0.985 0.04 0 0.99 0.04 0 0.995 0.04 0 1 0.04 0 0 0.06 0 0.005 0.06 0 0.01 0.06 0 0.015 0.06 0 0.02 0.06 0 0.025 0.06 0 0.03 0.06 0 0.035 0.06 0 0.04 0.06 0 0.045 0.06 0 0.05 0.06 0 0.055 0.06 0 0.06 0.06 0 0.065 0.06 0 0.07 0.06 0 0.075 0.06 0 0.08 0.06 0 0.085 0.06 0 0.09 0.06 0 0.095 0.06 0 0.1 0.06 0 0.105 0.06 0 0.11 0.06 0 0.115 0.06 0 0.12 0.06 0 0.125 0.06 0 0.13 0.06 0 0.135 0.06 0 0.14 0.06 0 0.145 0.06 0 0.15 0.06 0 0.155 0.06 0 0.16 0.06 0 0.165 0.06 0 0.17 0.06 0 0.175 0.06 0 0.18 0.06 0 0.185 0.06 0 0.19 0.06 0 0.195 0.06 0 0.2 0.06 0 0.205 0.06 0 0.21 0.06 0 0.215 0.06 0 0.22 0.06 0 0.225 0.06 0 0.23 0.06 0 0.235 0.06 0 0.24 0.06 0 0.245 0.06 0 0.25 0.06 0 0.255 0.06 0 0.26 0.06 0 0.265 0.06 0 0.27 0.06 0 0.275 0.06 0 0.28 0.06 0 0.285 0.06 0 0.29 0.06 0 0.295 0.06 0 0.3 0.06 0 0.305 0.06 0 0.31 0.06 0 0.315 0.06 0 0.32 0.06 0 0.325 0.06 0 0.33 0.06 0 0.335 0.06 0 0.34 0.06 0 0.345 0.06 0 0.35 0.06 0 0.355 0.06 0 0.36 0.06 0 0.365 0.06 0 0.37 0.06 0 0.375 0.06 0 0.38 0.06 0 0.385 0.06 0 0.39 0.06 0 0.395 0.06 0 0.4 0.06 0 0.405 0.06 0 0.41 0.06 0 0.415 0.06 0 0.42 0.06 0 0.425 0.06 0 0.43 0.06 0 0.435 0.06 0 0.44 0.06 0 0.445 0.06 0 0.45 0.06 0 0.455 0.06 0 0.46 0.06 0 0.465 0.06 0 0.47 0.06 0 0.475 0.06 0 0.48 0.06 0 0.485 0.06 0 0.49 0.06 0 0.495 0.06 0 0.5 0.06 0 0.505 0.06 0 0.51 0.06 0 0.515 0.06 0 0.52 0.06 0 0.525 0.06 0 0.53 0.06 0 0.535 0.06 0 0.54 0.06 0 0.545 0.06 0 0.55 0.06 0 0.555 0.06 0 0.56 0.06 0 0.565 0.06 0 0.57 0.06 0 0.575 0.06 0 0.58 0.06 0 0.585 0.06 0 0.59 0.06 0 0.595 0.06 0 0.6 0.06 0 0.605 0.06 0 0.61 0.06 0 0.615 0.06 0 0.62 0.06 0 0.625 0.06 0 0.63 0.06 0 0.635 0.06 0 0.64 0.06 0 0.645 0.06 0 0.65 0.06 0 0.655 0.06 0 0.66 0.06 0 0.665 0.06 0 0.67 0.06 0 0.675 0.06 0 0.68 0.06 0 0.685 0.06 0 0.69 0.06 0 0.695 0.06 0 0.7 0.06 0 0.705 0.06 0 0.71 0.06 0 0.715 0.06 0 0.72 0.06 0 0.725 0.06 0 0.73 0.06 0 0.735 0.06 0 0.74 0.06 0 0.745 0.06 0 0.75 0.06 0 0.755 0.06 0 0.76 0.06 0 0.765 0.06 0 0.77 0.06 0 0.775 0.06 0 0.78 0.06 0 0.785 0.06 0 0.79 0.06 0 0.795 0.06 0 0.8 0.06 0 0.805 0.06 0 0.81 0.06 0 0.815 0.06 0 0.82 0.06 0 0.825 0.06 0 0.83 0.06 0 0.835 0.06 0 0.84 0.06 0 0.845 0.06 0 0.85 0.06 0 0.855 0.06 0 0.86 0.06 0 0.865 0.06 0 0.87 0.06 0 0.875 0.06 0 0.88 0.06 0 0.885 0.06 0 0.89 0.06 0 0.895 0.06 0 0.9 0.06 0 0.905 0.06 0 0.91 0.06 0 0.915 0.06 0 0.92 0.06 0 0.925 0.06 0 0.93 0.06 0 0.935 0.06 0 0.94 0.06 0 0.945 0.06 0 0.95 0.06 0 0.955 0.06 0 0.96 0.06 0 0.965 0.06 0 0.97 0.06 0 0.975 0.06 0 0.98 0.06 0 0.985 0.06 0 0.99 0.06 0 0.995 0.06 0 1 0.06 0 0 0.08 0 0.005 0.08 0 0.01 0.08 0 0.015 0.08 0 0.02 0.08 0 0.025 0.08 0 0.03 0.08 0 0.035 0.08 0 0.04 0.08 0 0.045 0.08 0 0.05 0.08 0 0.055 0.08 0 0.06 0.08 0 0.065 0.08 0 0.07 0.08 0 0.075 0.08 0 0.08 0.08 0 0.085 0.08 0 0.09 0.08 0 0.095 0.08 0 0.1 0.08 0 0.105 0.08 0 0.11 0.08 0 0.115 0.08 0 0.12 0.08 0 0.125 0.08 0 0.13 0.08 0 0.135 0.08 0 0.14 0.08 0 0.145 0.08 0 0.15 0.08 0 0.155 0.08 0 0.16 0.08 0 0.165 0.08 0
[...]
			<PointData Scalars="VitesseX">
				<DataArray Name="VitesseX" type="Float32" format="ascii">
 0 -1.53738e-14 -1.02708e-14 -8.41579e-14 4.4279e-14 -2.09667e-15 -2.92226e-14 -6.41213e-14 2.67518e-14 -8.44898e-14 -5.58388e-14 5.97201e-14 -1.88975e-13 1.52787e-13 -1.95231e-13 -5.35867e-14 3.07613e-14 -3.13201e-13 2.97655e-14 -6.6627e-14 -6.41851e-14 1.05647e-13 3.9223e-14 -5.07732e-14 -3.50213e-13 -5.92879e-14 2.87882e-13 -1.79993e-13 -7.0684e-14 -7.40031e-14 9.85194e-14 -2.23121e-13 1.59207e-13 2.57213e-14 -4.2042e-13 1.50676e-13 -2.54343e-13 1.03255e-13 -4.32811e-13 2.73305e-13 -1.15676e-13 -6.94053e-14 1.4871e-13 -5.21441e-13 -3.00783e-13 3.85357e-14 -5.58889e-13 3.06866e-13 -1.28073e-13 1.03582e-13 -2.9694e-13 2.05541e-13 6.58102e-13 -8.14292e-13 2.79413e-13 -1.18934e-13 -4.34154e-13 3.144e-13 -6.66619e-13 2.05212e-13 -6.94734e-15 4.06164e-13 -3.91767e-14 -2.99584e-13 2.11741e-13 -1.09873e-13 -2.29172e-13 -1.46315e-14 -6.68107e-13 2.78332e-13 6.14635e-14 -4.89717e-13 2.3299e-13 -4.59245e-13 1.04449e-12 -2.67242e-13 3.5378e-12 6.29416e-11 8.17094e-10 9.66219e-09 1.0199e-07 9.53361e-07 7.81199e-06 5.54243e-05 0.000335187 0.00169344 0.00696669 0.0226731 0.0571333 0.112199 0.180089 0.252699 0.326396 0.399432 0.469375 0.535804 0.599547 0.659922 0.716725 0.768711 0.814994 0.854265 0.885264 0.908244 0.923786 0.933647 0.941597 0.950089 0.960681 0.983082 0.981743 0.964703 0.943335 0.922682 0.897905 0.86065 0.802401 0.716915 0.60277 0.466262 0.322692 0.19467 0.0997664 0.0430748 0.0161342 0.00551589 0.00178821 0.000559707 0.000170217 5.03852e-05 1.45198e-05 4.07286e-06 1.11179e-06 2.95305e-07 7.63136e-08 1.91889e-08 4.6938e-09 1.11746e-09 2.59488e-10 5.77527e-11 1.28073e-11 2.9904e-12 -2.18565e-13 9.98495e-13 -4.15082e-14 -3.21991e-13 7.88771e-13 -1.84197e-12 9.45688e-13 -4.9825e-13 8.75765e-14 1.5542e-12 -1.18312e-12 7.72304e-13 -7.00475e-13 1.11576e-12 -6.65884e-13 -5.90623e-13 -2.69376e-13 -2.3904e-13 7.31169e-13 1.69006e-13 -4.7236e-13 -9.14128e-14 -7.93445e-13 -1.03499e-13 2.41789e-13 7.29038e-13 4.44464e-13 -4.56549e-13 -1.73893e-13 3.3477e-14 -2.45659e-13 1.14109e-12 -4.59248e-13 2.52557e-13 -4.99415e-13 -6.24508e-13 1.15034e-12 -9.72507e-13 -3.53414e-13 -4.42593e-13 -9.81076e-13 1.59029e-12 -1.01362e-12 2.09275e-13 7.37262e-13 -1.10899e-12 1.21558e-12 -1.74086e-12 4.74108e-13 4.83647e-13 -2.15379e-12 1.07658e-12 -5.81937e-13 -4.15124e-13 6.98956e-13 -2.33541e-12 9.21006e-13 -1.38935e-12 0 0 -2.64905e-15 -2.56774e-14 3.42614e-14 -7.53069e-14 -2.98153e-14 4.5436e-15 7.72503e-15 -6.81802e-14 1.1304e-14 1.79328e-14 -8.87756e-14 1.27124e-13 -2.14345e-13 4.38784e-14 -8.06769e-14 -2.55939e-13 2.86136e-14 -1.74224e-13 2.24984e-14 6.36826e-14 -5.76283e-14 -1.06757e-13 -1.28578e-13 1.51262e-13 -7.13908e-14 -2.2032e-13 4.35286e-14 -5.52254e-14 4.12825e-14 -1.86392e-13 1.83496e-13 -1.88657e-13 -6.30401e-14 1.67341e-13 -2.49382e-13 -1.69144e-14 -3.15424e-13 2.29624e-13 -3.03748e-13 1.2198e-14 -1.48084e-13 -2.75655e-13 1.77056e-13 -1.93453e-13 -4.26549e-13 9.583e-14 -3.63789e-13 2.38954e-13 3.51644e-14 2.66174e-13 -4.94016e-14 -5.89611e-13 8.68937e-13 -1.13268e-13 -3.46716e-13 1.273e-14 -6.21909e-13 3.5458e-13 -1.97804e-13 8.65627e-14 -3.15578e-13 1.10485e-14 1.97986e-13 -2.35521e-13 -1.16067e-13 1.16064e-13 -3.44271e-13 2.36628e-13 -4.17843e-13 -1.16265e-13 3.64232e-13 -8.30242e-14 3.63865e-13 -5.65414e-13 7.43855e-13 4.54172e-12 6.16682e-11 8.17765e-10 9.66083e-09 1.01992e-07 9.53359e-07 7.81198e-06 5.54243e-05 0.000335187 0.00169344 0.00696669 0.0226731 0.0571333 0.112199 0.180089 0.252699 0.326396 0.399432 0.469375 0.535804 0.599547 0.659922 0.716725 0.768711 0.814994 0.854265 0.885264 0.908244 0.923786 0.933647 0.941597 0.950089 0.960681 0.983082 0.981743 0.964703 0.943335 0.922682 0.897905 0.86065 0.802401 0.716915 0.60277 0.466262 0.322692 0.19467 0.0997664 0.0430748 0.0161342 0.00551589 0.00178821 0.000559707 0.000170217 5.03852e-05 1.45198e-05 4.07287e-06 1.11179e-06 2.95304e-07 7.63147e-08 1.91876e-08 4.6948e-09 1.1175e-09 2.58162e-10 5.87128e-11 1.24205e-11 2.57356e-12 1.22056e-12 -3.19178e-13 3.43872e-13 4.19416e-13 -1.19554e-12 7.23087e-13 -6.43209e-13 4.66743e-13 4.65057e-13 -8.83389e-13 1.20705e-12 -4.08635e-13 4.94901e-13 -9.50746e-13 2.49184e-13 -2.39598e-13 -3.92131e-13 4.09089e-13 -6.21057e-13 -1.73271e-13 -2.13914e-14 -2.59201e-13 4.86338e-13 -4.61626e-14 -2.77209e-13 -2.13944e-13 -1.96476e-13 9.75383e-13 2.42781e-13 -3.11263e-14 2.4192e-13 -9.43073e-13 6.52123e-13 -1.43951e-13 2.33285e-13 -1.94961e-13 -1.22567e-12 5.04526e-13 -6.16383e-13 -2.84715e-13 3.95028e-13 -1.02789e-12 6.89531e-13 1.48599e-13 -6.32117e-13 6.79225e-13 -1.1423e-12 9.18031e-13 -8.43e-13 -1.08213e-12 1.46564e-12 -9.02436e-13 1.65112e-15 -5.50756e-14 -1.22095e-12 6.70167e-13 -1.8318e-12 3.65278e-13 0 0 -2.2786e-15 1.07477e-14 -2.61734e-14 2.46954e-14 -3.76047e-14 -4.7068e-14 3.52574e-15 -9.66996e-15 5.9005e-14 -2.58337e-15 1.30745e-14 -1.0732e-13 4.02931e-14 -1.48511e-13 -1.51995e-13 -2.81017e-14 -1.06492e-13 -3.40021e-14 -2.6728e-14 -9.45001e-14 -3.26547e-14 -4.93345e-14 -4.77761e-14 -3.63099e-14 -9.57903e-14 -1.79296e-14 -5.56461e-14 -1.1602e-14 -4.74343e-14 1.43482e-13 -1.35413e-13 5.98446e-14 -8.54731e-14 -4.68307e-14 -5.91487e-14 -1.84726e-13 5.6906e-14 -2.96875e-13 2.36778e-14 -1.77358e-13 -1.1046e-13 -6.88436e-14 -8.80489e-14 -2.95449e-15 -6.75226e-14 -2.19916e-13 -1.46109e-14 -6.67748e-14 1.81857e-13 1.32684e-13 1.21145e-13 9.27712e-14 -3.96072e-13 3.2713e-13 -9.64239e-14 -3.59101e-13 1.85044e-13 -2.13119e-13 -1.56026e-13 -2.78843e-13 -2.47866e-13 -1.6419e-14 -1.26579e-13 1.37242e-13 -1.75493e-13 -1.79406e-14 1.67485e-13 -2.13001e-13 2.51326e-13 -1.56304e-14 -1.64066e-13 1.12605e-13 -7.67015e-14 1.73065e-13 6.8967e-13 4.68045e-12 6.24283e-11 8.167e-10 9.6621e-09 1.0199e-07 9.5336e-07 7.81198e-06 5.54243e-05 0.000335187 0.00169344 0.00696669 0.0226731 0.0571333 0.112199 0.180089 0.252699 0.326396 0.399432 0.469375 0.535804 0.599547 0.659922 0.716725 0.768711 0.814994 0.854265 0.885264 0.908244 0.923786 0.933647 0.941597 0.950089 0.960681 0.983082 0.981743 0.964703 0.943335 0.922682 0.897905 0.86065 0.802401 0.716915 0.60277 0.466262 0.322692 0.19467 0.0997664 0.0430748 0.0161342 0.00551589 0.00178821 0.000559707 0.000170217 5.03852e-05 1.45198e-05 4.07286e-06 1.11179e-06 2.95304e-07 7.63139e-08 1.91883e-08 4.69433e-09 1.11725e-09 2.58933e-10 5.79828e-11 1.28456e-11 2.91626e-12 4.37618e-13 4.85273e-13 2.30419e-13 -3.44191e-13 3.1283e-13 -2.58451e-13 2.5134e-13 -2.03145e-13 -3.75407e-13 8.00602e-13 -9.60403e-14 4.14816e-13 -6.68328e-13 -3.27469e-13 -6.93441e-13 1.70705e-13 1.68204e-13 -6.32459e-13 -1.62975e-13 -7.33745e-13 2.25683e-13 -1.49746e-13 -2.66444e-14 1.8508e-13 -2.10364e-13 -6.36279e-14 6.32539e-13 -2.65515e-13 4.52537e-13 -1.97355e-13 3.99832e-15 -1.20759e-14 -3.85422e-13 5.77424e-13 2.39997e-13 -6.25503e-13 -1.18369e-13 -7.09096e-13 2.6417e-13 -2.58148e-13 -2.45046e-13 -1.76962e-14 -2.44986e-13 -1.03042e-14 -2.07446e-13 -6.447e-13 6.36373e-13 -2.48166e-13 -1.84056e-14 -2.09186e-13 -2.80302e-13 6.78266e-14 -7.06321e-13 -2.26281e-13 -1.09887e-13 -5.18807e-13 8.33119e-14 -2.54562e-13 0 0 -5.00505e-15 -8.23603e-15 -1.12614e-14 5.13607e-14 3.58549e-14 8.42182e-15 -8.37052e-15 3.58591e-14 -2.97629e-14 -9.28093e-15 -4.65253e-14 -1.39486e-13 2.59969e-14 -1.56293e-13 -5.22745e-14 -4.4125e-14 -6.7195e-14 -1.28496e-14 -1.97304e-14 -6.66009e-14 -8.91849e-14 -1.26007e-13 -3.60625e-14 -1.9182e-13 3.05252e-14 2.26818e-14 -9.55985e-14 5.01748e-14 7.86442e-15 1.16702e-13 -6.68315e-14 3.1165e-14 -5.73203e-14 -3.2528e-13 4.93713e-14 -7.91003e-14 -1.34274e-13 -2.06185e-13 1.70859e-14 -3.43445e-14 5.49136e-14 -5.10242e-14 -2.40365e-13 -2.5057e-13 -1.70781e-13 -2.36692e-13 1.57175e-13 1.98236e-13 6.63761e-14 -5.46101e-15 7.20421e-14 -6.38801e-14 -2.01282e-13 1.31364e-13 -1.66858e-13 -4.04088e-13 9.33934e-14 -1.26437e-13 -1.38851e-13 -1.11976e-13 2.34032e-13 -5.5137e-14 -1.00363e-13 -3.25604e-14 1.13504e-13 -2.12675e-13 1.21788e-13 -1.93899e-13 1.38435e-13 -7.60248e-15 -1.2159e-13 -3.14587e-14 -1.61877e-13 4.1086e-13 6.96524e-13 4.38598e-12 6.2889e-11 8.1735e-10 9.66139e-09 1.0199e-07 9.5336e-07 7.81198e-06 5.54243e-05 0.000335187 0.00169344 0.00696669 0.0226731 0.0571333 0.112199 0.180089 0.252699 0.326396 0.399432 0.469375 0.535804 0.599547 0.659922 0.716725 0.768711 0.814994 0.854265 0.885264 0.908244 0.923786 0.933647 0.941597 0.950089 0.960681 0.983082 0.981743 0.964703 0.943335 0.922682 0.897905 0.86065 0.802401 0.716915 0.60277 0.466262 0.322692 0.19467 0.0997664 0.0430748 0.0161342 0.00551589 0.00178821 0.000559707 0.000170217 5.03852e-05 1.45198e-05 4.07286e-06 1.11179e-06 2.95304e-07 7.63138e-08 1.91883e-08 4.69417e-09 1.11757e-09 2.59274e-10 5.81536e-11 1.29403e-11 3.01698e-12 2.14948e-13 2.3651e-13 5.53536e-13 2.34679e-13 4.99482e-13 -2.53616e-13 3.81009e-13 -5.14828e-13 -5.55899e-13 6.81693e-13 -7.39409e-13 -1.71896e-13 -1.13999e-13 7.67897e-14 -5.67945e-13 -5.45708e-13 -1.40811e-13 -6.17764e-13 5.3882e-14 -2.1896e-14 -3.45534e-13 -3.26255e-13 -7.93113e-13 3.82676e-14 5.72504e-13 6.70057e-13 -3.21039e-13 -8.09418e-13 -4.10392e-13 4.52329e-14 7.4465e-13 4.55862e-13 -3.41358e-13 9.40602e-14 -3.11094e-13 4.13244e-13 -1.49341e-13 -1.07474e-12 1.67503e-13 -4.59106e-13 -2.23158e-13 1.28677e-12 -5.71053e-13 -2.84014e-13 3.41575e-13 -6.71378e-13 2.58752e-13 -3.35049e-13 8.95872e-13 -7.92104e-14 -1.29909e-12 2.01673e-13 -6.92338e-13 9.68644e-14 5.57485e-13 -1.64772e-13 -1.49772e-13 -1.2674e-12 0 0 1.14933e-14 -2.27286e-15 8.684e-14 -2.22316e-14 5.42625e-14 6.25007e-14 2.02759e-14 -1.22649e-14 -1.76549e-14 1.65379e-14 -1.42691e-13 5.60916e-14 -2.91779e-13 6.05639e-14 -4.95669e-16 -2.08928e-13 5.31254e-14 -1.07788e-13 -6.50584e-15 2.9484e-14 -1.35974e-13 -2.06221e-13 -1.40891e-13 1.04767e-13 1.18948e-13 -1.46921e-13 1.27111e-13 7.27288e-14 2.5352e-14 -2.4288e-13 1.4654e-13 -2.64488e-13 -1.49446e-13 -3.10067e-15 -1.36769e-13 9.35413e-14 -3.72276e-13 3.25595e-13 -3.37951e-13 5.90667e-14 -7.10799e-14 -2.83847e-13 1.22542e-13 -2.86855e-13 -3.64436e-13 5.83317e-14 -2.52641e-13 3.18231e-13 -6.0946e-14 2.57111e-13 -1.50371e-13 -6.20967e-13 9.27073e-13 -4.72842e-13 -3.67649e-13 -1.15879e-13 -8.44261e-13 3.36907e-13 -1.91605e-13 1.89265e-13 -7.63773e-14 1.85215e-13 3.25212e-13 -3.49017e-13 3.19528e-13 1.13931e-13 -2.81697e-13 1.56988e-13 -5.16299e-13 -1.60608e-13 4.8694e-13 -5.06355e-14 3.72357e-13 -4.27307e-13 1.01411e-12 4.66684e-12 6.19817e-11 8.18083e-10 9.66064e-09 1.01992e-07 9.5336e-07 7.81198e-06 5.54243e-05 0.000335187 0.00169344 0.00696669 0.0226731 0.0571333 0.112199 0.180089 0.252699 0.326396 0.399432 0.469375 0.535804 0.599547 0.659922 0.716725 0.768711 0.814994 0.854265 0.885264 0.908244 0.923786 0.933647 0.941597 0.950089 0.960681 0.983082 0.981743 0.964703 0.943335 0.922682 0.897905 0.86065 0.802401 0.716915 0.60277 0.466262 0.322692 0.19467 0.0997664 0.0430748 0.0161342 0.00551589 0.00178821 0.000559707 0.000170217 5.03852e-05 1.45198e-05 4.07287e-06 1.11179e-06 2.95304e-07 7.63147e-08 1.91875e-08 4.6949e-09 1.11752e-09 2.58354e-10 5.96409e-11 1.2596e-11 2.67866e-12 1.26116e-12 -2.77821e-13 2.95048e-13 4.72314e-13 -6.73095e-13 1.70054e-12 -3.82886e-13 -1.8667e-13 -1.51029e-13 -1.07567e-12 3.75138e-13 -4.31963e-13 8.5048e-13 -1.43125e-12 1.07416e-13 -1.04309e-12 -7.51541e-13 2.3138e-13 -6.37224e-13 2.31949e-13 -1.60229e-13 2.33534e-13 4.4884e-13 -2.63768e-13 2.02959e-13 -3.55481e-14 -1.15869e-12 2.74731e-13 -6.61369e-13 2.25429e-13 7.28339e-13 -5.21955e-13 3.1058e-13 -9.66984e-13 -2.23725e-13 7.88737e-13 -1.07527e-12 2.53742e-13 -8.04164e-13 -4.68695e-13 4.88792e-13 -3.1624e-13 7.68262e-13 3.06201e-13 -3.38929e-13 6.64632e-13 -1.32107e-12 1.25166e-12 -6.92535e-13 -1.21823e-12 1.02451e-12 -9.2673e-13 3.8095e-13 1.7917e-13 -8.20706e-13 4.7137e-13 -2.1999e-12 -9.4753e-14 0 0 1.83638e-14 7.45058e-14 -8.82482e-15 9.7099e-14 1.91396e-14 -2.42881e-14 -1.52271e-14 4.75243e-14 3.5128e-14 -4.52336e-14 7.10892e-14 -2.66706e-13 2.65126e-14 -1.46296e-13 -9.2665e-14 1.56829e-13 -3.42772e-13 1.20333e-13 -1.38631e-13 -1.88381e-13 6.20153e-14 -6.36174e-15 -9.88249e-14 -1.32183e-13 6.87589e-14 3.53457e-13 6.70759e-14 6.16709e-14 -2.16461e-13 3.91039e-14 -4.34195e-13 6.49028e-14 -2.03396e-13 -2.04406e-13 1.58863e-13 -2.44683e-13 3.7191e-13 -4.22247e-13 2.18083e-13 -3.07966e-13 -2.46144e-13 9.66869e-14 -3.25836e-13 7.64284e-15 3.69278e-13 -6.00333e-13 1.8559e-13 -4.99539e-13 1.42323e-13 -3.87746e-14 1.01807e-13 9.08692e-13 -1.0876e-12 -4.82041e-14 -1.99322e-14 -6.01397e-13 5.29963e-14 -8.75331e-13 1.83259e-13 -1.35277e-13 -7.92297e-14 3.86593e-13 -9.75648e-14 3.24354e-13 1.83322e-13 1.5603e-13 2.0191e-13 -8.65591e-13 3.07201e-13 -4.32783e-14 -3.29251e-13 5.85895e-13 -2.7191e-13 8.45116e-13 2.59559e-13 4.37697e-12 6.26472e-11 8.1643e-10 9.66324e-09 1.01991e-07 9.53361e-07 7.81199e-06 5.54243e-05 0.000335187 0.00169344 0.00696669 0.0226731 0.0571333 0.112199 0.180089 0.252699 0.326396 0.399432 0.469375 0.535804 0.599547 0.659922 0.716725 0.768711 0.814994 0.854265 0.885264 0.908244 0.923786 0.933647 0.941597 0.950089 0.960681 0.983082 0.981743 0.964703 0.943335 0.922682 0.897905 0.86065 0.802401 0.716915 0.60277 0.466262 0.322692 0.19467 0.0997664 0.0430748 0.0161342 0.00551589 0.00178821 0.000559707 0.000170217 5.03852e-05 1.45198e-05 4.07286e-06 1.11179e-06 2.95304e-07 7.63136e-08 1.91888e-08 4.69432e-09 1.11686e-09 2.5919e-10 5.92672e-11 1.29689e-11 2.99915e-12 3.07958e-13 1.57874e-12 -7.85389e-13 -1.37394e-12 1.46035e-12 1.03255e-13 1.207e-12 -1.18171e-12 -7.83613e-13 1.40745e-12 -1.56021e-12 1.89907e-12 -1.09797e-12 -6.53763e-13 -1.20041e-12 -7.64783e-13 -3.70167e-13 -6.23847e-13 2.65122e-13 -4.44253e-13 3.92399e-13 1.24707e-12 6.64497e-13 -2.45085e-13 -3.63611e-13 -3.81542e-13 4.27191e-13 -7.70047e-13 -2.56334e-13 6.14114e-14 -7.54123e-13 1.04745e-12 -1.23046e-12 -4.26782e-13 -3.11253e-13 -7.34607e-13 1.51309e-12 -7.42787e-13 -5.35642e-13 -4.08638e-13 -8.37323e-13 4.04646e-13 -2.04028e-13 1.0719e-12 2.25598e-13 -1.08482e-12 1.61328e-12 -8.99829e-13 -1.05352e-12 -4.85042e-14 -9.98476e-13 7.60301e-13 1.48694e-13 -5.92924e-13 1.64703e-13 -3.44108e-12 6.50971e-13 -2.83737e-13 0
				</DataArray>
				<DataArray Name="VitesseY" type="Float32" format="ascii">