<?xml version="1.0"?>
<VTKFile type="PolyData">
	<PolyData>
		<Piece NumberOfPoints="1206" NumberOfPolys="1000">
			<Points>
				<DataArray type="Float32" NumberOfComponents="3" format="ascii">
 0 0 0 0.005 0 0 0.01 0 0 0.015 0 0 0.02 0 0 0.025 0 0 0.03 0 0 0.035 0 0 0.04 0 0 0.045 0 0 0.05 0 0 0.055 0 0 0.06 0 0 0.065 0 0 0.07 0 0 0.075 0 0 0.08 0 0 0.085 0 0 0.09 0 0 0.095 0 0 0.1 0 0 0.105 0 0 0.11 0 0 0.115 0 0 0.12 0 0 0.125 0 0 0.13 0 0 0.135 0 0 0.14 0 0 0.145 0 0 0.15 0 0 0.155 0 0 0.16 0 0 0.165 0 0 0.17 0 0 0.175 0 0 0.18 0 0 0.185 0 0 0.19 0 0 0.195 0 0 0.2 0 0 0.205 0 0 0.21 0 0 0.215 0 0 0.22 0 0 0.225 0 0 0.23 0 0 0.235 0 0 0.24 0 0 0.245 0 0 0.25 0 0 0.255 0 0 0.26 0 0 0.265 0 0 0.27 0 0 0.275 0 0 0.28 0 0 0.285 0 0 0.29 0 0 0.295 0 0 0.3 0 0 0.305 0 0 0.31 0 0 0.315 0 0 0.32 0 0 0.325 0 0 0.33 0 0 0.335 0 0 0.34 0 0 0.345 0 0 0.35 0 0 0.355 0 0 0.36 0 0 0.365 0 0 0.37 0 0 0.375 0 0 0.38 0 0 0.385 0 0 0.39 0 0 0.395 0 0 0.4 0 0 0.405 0 0 0.41 0 0 0.415 0 0 0.42 0 0 0.425 0 0 0.43 0 0 0.435 0 0 0.44 0 0 0.445 0 0 0.45 0 0 0.455 0 0 0.46 0 0 0.465 0 0 0.47 0 0 0.475 0 0 0.48 0 0 0.485 0 0 0.49 0 0 0.495 0 0 0.5 0 0 0.505 0 0 0.51 0 0 0.515 0 0 0.52 0 0 0.525 0 0 0.53 0 0 0.535 0 0 0.54 0 0 0.545 0 0 0.55 0 0 0.555 0 0 0.56 0 0 0.565 0 0 0.57 0 0 0.575 0 0 0.58 0 0 0.585 0 0 0.59 0 0 0.595 0 0 0.6 0 0 0.605 0 0 0.61 0 0 0.615 0 0 0.62 0 0 0.625 0 0 0.63 0 0 0.635 0 0 0.64 0 0 0.645 0 0 0.65 0 0 0.655 0 0 0.66 0 0 0.665 0 0 0.67 0 0 0.675 0 0 0.68 0 0 0.685 0 0 0.69 0 0 0.695 0 0 0.7 0 0 0.705 0 0 0.71 0 0 0.715 0 0 0.72 0 0 0.725 0 0 0.73 0 0 0.735 0 0 0.74 0 0 0.745 0 0 0.75 0 0 0.755 0 0 0.76 0 0 0.765 0 0 0.77 0 0 0.775 0 0 0.78 0 0 0.785 0 0 0.79 0 0 0.795 0 0 0.8 0 0 0.805 0 0 0.81 0 0 0.815 0 0 0.82 0 0 0.825 0 0 0.83 0 0 0.835 0 0 0.84 0 0 0.845 0 0 0.85 0 0 0.855 0 0 0.86 0 0 0.865 0 0 0.87 0 0 0.875 0 0 0.88 0 0 0.885 0 0 0.89 0 0 0.895 0 0 0.9 0 0 0.905 0 0 0.91 0 0 0.915 0 0 0.92 0 0 0.925 0 0 0.93 0 0 0.935 0 0 0.94 0 0 0.945 0 0 0.95 0 0 0.955 0 0 0.96 0 0 0.965 0 0 0.97 0 0 0.975 0 0 0.98 0 0 0.985 0 0 0.99 0 0 0.995 0 0 1 0 0 0 0.02 0 0.005 0.02 0 0.01 0.02 0 0.015 0.02 0 0.02 0.02 0 0.025 0.02 0 0.03 0.02 0 0.035 0.02 0 0.04 0.02 0 0.045 0.02 0 0.05 0.02 0 0.055 0.02 0 0.06 0.02 0 0.065 0.02 0 0.07 0.02 0 0.075 0.02 0 0.08 0.02 0 0.085 0.02 0 0.09 0.02 0 0.095 0.02 0 0.1 0.02 0 0.105 0.02 0 0.11 0.02 0 0.115 0.02 0 0.12 0.02 0 0.125 0.02 0 0.13 0.02 0 0.135 0.02 0 0.14 0.02 0 0.145 0.02 0 0.15 0.02 0 0.155 0.02 0 0.16 0.02 0 0.165 0.02 0 0.17 0.02 0 0.175 0.02 0 0.18 0.02 0 0.185 0.02 0 0.19 0.02 0 0.195 0.02 0 0.2 0.02 0 0.205 0.02 0 0.21 0.02 0 0.215 0.02 0 0.22 0.02 0 0.225 0.02 0 0.23 0.02 0 0.235 0.02 0 0.24 0.02 0 0.245 0.02 0 0.25 0.02 0 0.255 0.02 0 0.26 0.02 0 0.265 0.02 0 0.27 0.02 0 0.275 0.02 0 0.28 0.02 0 0.285 0.02 0 0.29 0.02 0 0.295 0.02 0 0.3 0.02 0 0.305 0.02 0 0.31 0.02 0 0.315 0.02 0 0.32 0.02 0 0.325 0.02 0 0.33 0.02 0 0.335 0.02 0 0.34 0.02 0 0.345 0.02 0 0.35 0.02 0 0.355 0.02 0 0.36 0.02 0 0.365 0.02 0 0.37 0.02 0 0.375 0.02 0 0.38 0.02 0 0.385 0.02 0 0.39 0.02 0 0.395 0.02 0 0.4 0.02 0 0.405 0.02 0 0.41 0.02 0 0.415 0.02 0 0.42 0.02 0 0.425 0.02 0 0.43 0.02 0 0.435 0.02 0 0.44 0.02 0 0.445 0.02 0 0.45 0.02 0 0.455 0.02 0 0.46 0.02 0 0.465 0.02 0 0.47 0.02 0 0.475 0.02 0 0.48 0.02 0 0.485 0.02 0 0.49 0.02 0 0.495 0.02 0 0.5 0.02 0 0.505 0.02 0 0.51 0.02 0 0.515 0.02 0 0.52 0.02 0 0.525 0.02 0 0.53 0.02 0 0.535 0.02 0 0.54 0.02 0 0.545 0.02 0 0.55 0.02 0 0.555 0.02 0 0.56 0.02 0 0.565 0.02 0 0.57 0.02 0 0.575 0.02 0 0.58 0.02 0 0.585 0.02 0 0.59 0.02 0 0.595 0.02 0 0.6 0.02 0 0.605 0.02 0 0.61 0.02 0 0.615 0.02 0 0.62 0.02 0 0.625 0.02 0 0.63 0.02 0 0.635 0.02 0 0.64 0.02 0 0.645 0.02 0 0.65 0.02 0 0.655 0.02 0 0.66 0.02 0 0.665 0.02 0 0.67 0.02 0 0.675 0.02 0 0.68 0.02 0 0.685 0.02 0 0.69 0.02 0 0.695 0.02 0 0.7 0.02 0 0.705 0.02 0 0.71 0.02 0 0.715 0.02 0 0.72 0.02 0 0.725 0.02 0 0.73 0.02 0 0.735 0.02 0 0.74 0.02 0 0.745 0.02 0 0.75 0.02 0 0.755 0.02 0 0.76 0.02 0 0.765 0.02 0 0.77 0.02 0 0.775 0.02 0 0.78 0.02 0 0.785 0.02 0 0.79 0.02 0 0.795 0.02 0 0.8 0.02 0 0.805 0.02 0 0.81 0.02 0 0.815 0.02 0 0.82 0.02 0 0.825 0.02 0 0.83 0.02 0 0.835 0.02 0 0.84 0.02 0 0.845 0.02 0 0.85 0.02 0 0.855 0.02 0 0.86 0.02 0 0.865 0.02 0 0.87 0.02 0 0.875 0.02 0 0.88 0.02 0 0.885 0.02 0 0.89 0.02 0 0.895 0.02 0 0.9 0.02 0 0.905 0.02 0 0.91 0.02 0 0.915 0.02 0 0.92 0.02 0 0.925 0.02 0 0.93 0.02 0 0.935 0.02 0 0.94 0.02 0 0.945 0.02 0 0.95 0.02 0 0.955 0.02 0 0.96 0.02 0 0.965 0.02 0 0.97 0.02 0 0.975 0.02 0 0.98 0.02 0 0.985 0.02 0 0.99 0.02 0 0.995 0.02 0 1 0.02 0 0 0.04 0 0.005 0.04 0 0.01 0.04 0 0.015 0.04 0 0.02 0.04 0 0.025 0.04 0 0.03 0.04 0 0.035 0.04 0 0.04 0.04 0 0.045 0.04 0 0.05 0.04 0 0.055 0.04 0 0.06 0.04 0 0.065 0.04 0 0.07 0.04 0 0.075 0.04 0 0.08 0.04 0 0.085 0.04 0 0.09 0.04 0 0.095 0.04 0 0.1 0.04 0 0.105 0.04 0 0.11 0.04 0 0.115 0.04 0 0.12 0.04 0 0.125 0.04 0 0.13 0.04 0 0.135 0.04 0 0.14 0.04 0 0.145 0.04 0 0.15 0.04 0 0.155 0.04 0 0.16 0.04 0 0.165 0.04 0 0.17 0.04 0 0.175 0.04 0 0.18 0.04 0 0.185 0.04 0 0.19 0.04 0 0.195 0.04 0 0.2 0.04 0 0.205 0.04 0 0.21 0.04 0 0.215 0.04 0 0.22 0.04 0 0.225 0.04 0 0.23 0.04 0 0.235 0.04 0 0.24 0.04 0 0.245 0.04 0 0.25 0.04 0 0.255 0.04 0 0.26 0.04 0 0.265 0.04 0 0.27 0.04 0 0.275 0.04 0 0.28 0.04 0 0.285 0.04 0 0.29 0.04 0 0.295 0.04 0 0.3 0.04 0 0.305 0.04 0 0.31 0.04 0 0.315 0.04 0 0.32 0.04 0 0.325 0.04 0 0.33 0.04 0 0.335 0.04 0 0.34 0.04 0 0.345 0.04 0 0.35 0.04 0 0.355 0.04 0 0.36 0.04 0 0.365 0.04 0 0.37 0.04 0 0.375 0.04 0 0.38 0.04 0 0.385 0.04 0 0.39 0.04 0 0.395 0.04 0 0.4 0.04 0 0.405 0.04 0 0.41 0.04 0 0.415 0.04 0 0.42 0.04 0 0.425 0.04 0 0.43 0.04 0 0.435 0.04 0 0.44 0.04 0 0.445 0.04 0 0.45 0.04 0 0.455 0.04 0 0.46 0.04 0 0.465 0.04 0 0.47 0.04 0 0.475 0.04 0 0.48 0.04 0 0.485 0.04 0 0.49 0.04 0 0.495 0.04 0 0.5 0.04 0 0.505 0.04 0 0.51 0.04 0 0.515 0.04 0 0.52 0.04 0 0.525 0.04 0 0.53 0.04 0 0.535 0.04 0 0.54 0.04 0 0.545 0.04 0 0.55 0.04 0 0.555 0.04 0 0.56 0.04 0 0.565 0.04 0 0.57 0.04 0 0.575 0.04 0 0.58 0.04 0 0.585 0.04 0 0.59 0.04 0 0.595 0.04 0 0.6 0.04 0 0.605 0.04 0 0.61 0.04 0 0.615 0.04 0 0.62 0.04 0 0.625 0.04 0 0.63 0.04 0 0.635 0.04 0 0.64 0.04 0 0.645 0.04 0 0.65 0.04 0 0.655 0.04 0 0.66 0.04 0 0.665 0.04 0 0.67 0.04 0 0.675 0.04 0 0.68 0.04 0 0.685 0.04 0 0.69 0.04 0 0.695 0.04 0 0.7 0.04 0 0.705 0.04 0 0.71 0.04 0 0.715 0.04 0 0.72 0.04 0 0.725 0.04 0 0.73 0.04 0 0.735 0.04 0 0.74 0.04 0 0.745 0.04 0 0.75 0.04 0 0.755 0.04 0 0.76 0.04 0 0.765 0.04 0 0.77 0.04 0 0.775 0.04 0 0.78 0.04 0 0.785 0.04 0 0.79 0.04 0 0.795 0.04 0 0.8 0.04 0 0.805 0.04 0 0.81 0.04 0 0.815 0.04 0 0.82 0.04 0 0.825 0.04 0 0.83 0.04 0 0.835 0.04 0 0.84 0.04 0 0.845 0.04 0 0.85 0.04 0 0.855 0.04 0 0.86 0.04 0 0.865 0.04 0 0.87 0.04 0 0.875 0.04 0 0.88 0.04 0 0.885 0.04 0 0.89 0.04 0 0.895 0.04 0 0.9 0.04 0 0.905 0.04 0 0.91 0.04 0 0.915 0.04 0 0.92 0.04 0 0.925 0.04 0 0.93 0.04 0 0.935 0.04 0 0.94 0.04 0 0.945 0.04 0 0.95 0.04 0 0.955 0.04 0 0.96 0.04 0 0.965 0.04 0 0.97 0.04 0 0.975 0.04 0 0.98 0.04 0 0.985 0.04 0 0.99 0.04 0 0.995 0.04 0 1 0.04 0 0 0.06 0 0.005 0.06 0 0.01 0.06 0 0.015 0.06 0 0.02 0.06 0 0.025 0.06 0 0.03 0.06 0 0.035 0.06 0 0.04 0.06 0 0.045 0.06 0 0.05 0.06 0 0.055 0.06 0 0.06 0.06 0 0.065 0.06 0 0.07 0.06 0 0.075 0.06 0 0.08 0.06 0 0.085 0.06 0 0.09 0.06 0 0.095 0.06 0 0.1 0.06 0 0.105 0.06 0 0.11 0.06 0 0.115 0.06 0 0.12 0.06 0 0.125 0.06 0 0.13 0.06 0 0.135 0.06 0 0.14 0.06 0 0.145 0.06 0 0.15 0.06 0 0.155 0.06 0 0.16 0.06 0 0.165 0.06 0 0.17 0.06 0 0.175 0.06 0 0.18 0.06 0 0.185 0.06 0 0.19 0.06 0 0.195 0.06 0 0.2 0.06 0 0.205 0.06 0 0.21 0.06 0 0.215 0.06 0 0.22 0.06 0 0.225 0.06 0 0.23 0.06 0 0.235 0.06 0 0.24 0.06 0 0.245 0.06 0 0.25 0.06 0 0.255 0.06 0 0.26 0.06 0 0.265 0.06 0 0.27 0.06 0 0.275 0.06 0 0.28 0.06 0 0.285 0.06 0 0.29 0.06 0 0.295 0.06 0 0.3 0.06 0 0.305 0.06 0 0.31 0.06 0 0.315 0.06 0 0.32 0.06 0 0.325 0.06 0 0.33 0.06 0 0.335 0.06 0 0.34 0.06 0 0.345 0.06 0 0.35 0.06 0 0.355 0.06 0 0.36 0.06 0 0.365 0.06 0 0.37 0.06 0 0.375 0.06 0 0.38 0.06 0 0.385 0.06 0 0.39 0.06 0 0.395 0.06 0 0.4 0.06 0 0.405 0.06 0 0.41 0.06 0 0.415 0.06 0 0.42 0.06 0 0.425 0.06 0 0.43 0.06 0 0.435 0.06 0 0.44 0.06 0 0.445 0.06 0 0.45 0.06 0 0.455 0.06 0 0.46 0.06 0 0.465 0.06 0 0.47 0.06 0 0.475 0.06 0 0.48 0.06 0 0.485 0.06 0 0.49 0.06 0 0.495 0.06 0 0.5 0.06 0 0.505 0.06 0 0.51 0.06 0 0.515 0.06 0 0.52 0.06 0 0.525 0.06 0 0.53 0.06 0 0.535 0.06 0 0.54 0.06 0 0.545 0.06 0 0.55 0.06 0 0.555 0.06 0 0.56 0.06 0 0.565 0.06 0 0.57 0.06 0 0.575 0.06 0 0.58 0.06 0 0.585 0.06 0 0.59 0.06 0 0.595 0.06 0 0.6 0.06 0 0.605 0.06 0 0.61 0.06 0 0.615 0.06 0 0.62 0.06 0 0.625 0.06 0 0.63 0.06 0 0.635 0.06 0 0.64 0.06 0 0.645 0.06 0 0.65 0.06 0 0.655 0.06 0 0.66 0.06 0 0.665 0.06 0 0.67 0.06 0 0.675 0.06 0 0.68 0.06 0 0.685 0.06 0 0.69 0.06 0 0.695 0.06 0 0.7 0.06 0 0.705 0.06 0 0.71 0.06 0 0.715 0.06 0 0.72 0.06 0 0.725 0.06 0 0.73 0.06 0 0.735 0.06 0 0.74 0.06 0 0.745 0.06 0 0.75 0.06 0 0.755 0.06 0 0.76 0.06 0 0.765 0.06 0 0.77 0.06 0 0.775 0.06 0 0.78 0.06 0 0.785 0.06 0 0.79 0.06 0 0.795 0.06 0 0.8 0.06 0 0.805 0.06 0 0.81 0.06 0 0.815 0.06 0 0.82 0.06 0 0.825 0.06 0 0.83 0.06 0 0.835 0.06 0 0.84 0.06 0 0.845 0.06 0 0.85 0.06 0 0.855 0.06 0 0.86 0.06 0 0.865 0.06 0 0.87 0.06 0 0.875 0.06 0 0.88 0.06 0 0.885 0.06 0 0.89 0.06 0 0.895 0.06 0 0.9 0.06 0 0.905 0.06 0 0.91 0.06 0 0.915 0.06 0 0.92 0.06 0 0.925 0.06 0 0.93 0.06 0 0.935 0.06 0 0.94 0.06 0 0.945 0.06 0 0.95 0.06 0 0.955 0.06 0 0.96 0.06 0 0.965 0.06 0 0.97 0.06 0 0.975 0.06 0 0.98 0.06 0 0.985 0.06 0 0.99 0.06 0 0.995 0.06 0 1 0.06 0 0 0.08 0 0.005 0.08 0 0.01 0.08 0 0.015 0.08 0 0.02 0.08 0 0.025 0.08 0 0.03 0.08 0 0.035 0.08 0 0.04 0.08 0 0.045 0.08 0 0.05 0.08 0 0.055 0.08 0 0.06 0.08 0 0.065 0.08 0 0.07 0.08 0 0.075 0.08 0 0.08 0.08 0 0.085 0.08 0 0.09 0.08 0 0.095 0.08 0 0.1 0.08 0 0.105 0.08 0 0.11 0.08 0 0.115 0.08 0 0.12 0.08 0 0.125 0.08 0 0.13 0.08 0 0.135 0.08 0 0.14 0.08 0 0.145 0.08 0 0.15 0.08 0 0.155 0.08 0 0.16 0.08 0 0.165 0.08 0
[...]
			<PointData Scalars="VitesseX">
				<DataArray Name="VitesseX" type="Float32" format="ascii">
 0 -4.62105e-15 -1.9295e-14 -3.1861e-14 2.18232e-15 1.14789e-14 -5.33094e-15 -1.24449e-14 -5.41496e-15 1.76349e-14 -7.58222e-14 1.15874e-14 -3.68564e-14 -1.43044e-14 -3.59501e-14 -2.20236e-14 -3.33744e-14 -3.12874e-14 -1.82171e-13 1.72873e-14 -5.40536e-14 -9.42378e-14 -9.46218e-14 4.06493e-14 -1.02552e-15 -6.11866e-14 7.94584e-14 -2.38276e-14 7.33736e-14 -1.44001e-14 1.69003e-15 -5.99193e-14 -1.09477e-13 -2.98071e-14 -6.28282e-14 -1.36446e-13 -9.66663e-14 -3.20497e-14 -7.14375e-14 -1.8211e-13 -6.341e-14 -3.68355e-14 -1.40977e-13 4.09704e-14 3.34026e-14 2.42865e-14 2.67687e-13 2.94373e-12 1.9873e-11 1.25393e-10 7.56433e-10 4.31903e-09 2.32434e-08 1.17567e-07 5.572e-07 2.46577e-06 1.01472e-05 3.86473e-05 0.000135465 0.000434048 0.00126124 0.00329381 0.00766145 0.0157635 0.0286525 0.0463481 0.067808 0.0916323 0.116729 0.142462 0.168512 0.194721 0.221009 0.247331 0.27366 0.299969 0.32622 0.352386 0.378445 0.404377 0.430169 0.45581 0.481294 0.506612 0.531757 0.556717 0.581478 0.606021 0.63032 0.654345 0.678054 0.7014 0.724318 0.746734 0.768553 0.789662 0.809925 0.829181 0.847251 0.863934 0.879028 0.892341 0.90372 0.913077 0.920413 0.925828 0.929518 0.931757 0.932873 0.933207 0.933161 0.932993 0.932719 0.932374 0.93199 0.931598 0.931227 0.930898 0.930631 0.930462 0.93042 0.93058 0.931083 0.932066 0.933675 0.936037 0.939359 0.943285 0.950141 0.953007 0.949071 0.942741 0.937107 0.933275 0.930929 0.92961 0.928915 0.928563 0.928378 0.928253 0.928118 0.92791 0.927538 0.92685 0.925589 0.923311 0.919263 0.91221 0.900195 0.880296 0.848522 0.800087 0.730393 0.636855 0.521382 0.392537 0.265723 0.158795 0.0826282 0.0377199 0.0156243 0.00612029 0.00233366 0.000878771 0.000328761 0.000122458 4.54426e-05 1.67999e-05 6.18609e-06 2.26801e-06 8.27623e-07 3.00478e-07 1.08496e-07 3.89468e-08 1.3894e-08 4.92372e-09 1.73255e-09 6.05534e-10 2.09691e-10 7.21347e-11 2.41479e-11 7.74e-12 2.87782e-12 8.03598e-13 -1.44425e-13 2.09838e-13 -2.12843e-13 -1.54286e-13 4.83597e-13 -6.58078e-13 2.64323e-13 -3.332e-14 -4.80799e-13 8.68389e-14 -1.52257e-14 4.92136e-13 -5.04223e-13 -1.23909e-13 9.26281e-13 -7.21468e-13 0 0 -5.90588e-15 -6.28754e-15 6.58988e-16 -2.30143e-14 -1.4805e-14 3.30919e-14 -5.98825e-15 -8.03946e-15 -1.76801e-14 2.16369e-14 -7.4971e-14 -3.15659e-15 -5.37039e-14 -2.97545e-14 -3.60214e-14 -3.65054e-14 -9.54085e-14 1.50371e-14 -1.47094e-13 -9.63122e-14 -5.82749e-14 -9.35084e-15 -5.63601e-14 -5.5206e-14 1.07049e-13 -3.71932e-14 1.13278e-13 -2.56626e-14 4.74174e-14 -3.06594e-14 -2.02267e-14 -7.60131e-14 -8.37271e-14 -9.8235e-14 -6.63856e-14 -6.6785e-14 -1.08117e-13 -1.38655e-13 -5.31498e-14 -1.31659e-13 -6.92067e-14 5.88745e-14 -7.22273e-14 -2.36898e-14 8.97151e-14 4.35722e-13 2.73933e-12 1.9705e-11 1.25024e-10 7.56605e-10 4.3193e-09 2.32436e-08 1.17566e-07 5.572e-07 2.46577e-06 1.01472e-05 3.86473e-05 0.000135465 0.000434048 0.00126124 0.00329381 0.00766145 0.0157635 0.0286525 0.0463481 0.067808 0.0916323 0.116729 0.142462 0.168512 0.194721 0.221009 0.247331 0.27366 0.299969 0.32622 0.352386 0.378445 0.404377 0.430169 0.45581 0.481294 0.506612 0.531757 0.556717 0.581478 0.606021 0.63032 0.654345 0.678054 0.7014 0.724318 0.746734 0.768553 0.789662 0.809925 0.829181 0.847251 0.863934 0.879028 0.892341 0.90372 0.913077 0.920413 0.925828 0.929518 0.931757 0.932873 0.933207 0.933161 0.932993 0.932719 0.932374 0.93199 0.931598 0.931227 0.930898 0.930631 0.930462 0.93042 0.93058 0.931083 0.932066 0.933675 0.936037 0.939359 0.943285 0.950141 0.953007 0.949071 0.942741 0.937107 0.933275 0.930929 0.92961 0.928915 0.928563 0.928378 0.928253 0.928118 0.92791 0.927538 0.92685 0.925589 0.923311 0.919263 0.91221 0.900195 0.880296 0.848522 0.800087 0.730393 0.636855 0.521382 0.392537 0.265723 0.158795 0.0826282 0.0377199 0.0156243 0.00612029 0.00233366 0.000878771 0.000328761 0.000122458 4.54426e-05 1.67999e-05 6.18609e-06 2.26801e-06 8.27623e-07 3.00478e-07 1.08496e-07 3.89471e-08 1.38938e-08 4.9238e-09 1.73299e-09 6.04991e-10 2.09791e-10 7.17134e-11 2.46022e-11 8.2207e-12 2.36027e-12 7.64408e-13 2.86415e-13 -2.7786e-13 1.13417e-13 5.91846e-13 -5.27213e-13 1.47667e-13 -2.28106e-13 -4.67965e-14 1.21861e-13 -1.61852e-13 5.96184e-14 1.99676e-13 2.43154e-13 6.60216e-14 -5.60011e-13 7.22421e-13 0 0 -8.02639e-15 6.73467e-15 3.46321e-15 1.4484e-14 3.1935e-15 3.08186e-15 3.83543e-16 6.45722e-15 -5.14153e-15 -1.27174e-14 -8.33807e-15 -8.05237e-14 -3.26117e-14 -9.03302e-14 -5.03827e-14 -4.88555e-14 -5.38429e-14 -4.13945e-14 -7.44213e-14 -4.41491e-14 -1.26225e-13 -7.70163e-14 7.36209e-15 -7.21376e-14 3.77844e-14 7.54501e-14 6.07555e-14 -6.12003e-14 1.41231e-14 6.0767e-14 -8.52103e-14 5.54132e-14 -1.19803e-13 -5.82938e-14 -1.26282e-13 -1.63418e-13 -2.32353e-14 -5.56649e-14 -2.25141e-14 -1.62021e-13 -1.29654e-13 5.19465e-14 -7.1944e-14 -5.95831e-14 -7.83867e-16 4.94038e-13 3.0612e-12 1.95631e-11 1.25112e-10 7.56406e-10 4.3193e-09 2.32434e-08 1.17567e-07 5.572e-07 2.46577e-06 1.01472e-05 3.86473e-05 0.000135465 0.000434048 0.00126124 0.00329381 0.00766145 0.0157635 0.0286525 0.0463481 0.067808 0.0916323 0.116729 0.142462 0.168512 0.194721 0.221009 0.247331 0.27366 0.299969 0.32622 0.352386 0.378445 0.404377 0.430169 0.45581 0.481294 0.506612 0.531757 0.556717 0.581478 0.606021 0.63032 0.654345 0.678054 0.7014 0.724318 0.746734 0.768553 0.789662 0.809925 0.829181 0.847251 0.863934 0.879028 0.892341 0.90372 0.913077 0.920413 0.925828 0.929518 0.931757 0.932873 0.933207 0.933161 0.932993 0.932719 0.932374 0.93199 0.931598 0.931227 0.930898 0.930631 0.930462 0.93042 0.93058 0.931083 0.932066 0.933675 0.936037 0.939359 0.943285 0.950141 0.953007 0.949071 0.942741 0.937107 0.933275 0.930929 0.92961 0.928915 0.928563 0.928378 0.928253 0.928118 0.92791 0.927538 0.92685 0.925589 0.923311 0.919263 0.91221 0.900195 0.880296 0.848522 0.800087 0.730393 0.636855 0.521382 0.392537 0.265723 0.158795 0.0826282 0.0377199 0.0156243 0.00612029 0.00233366 0.000878771 0.000328761 0.000122458 4.54426e-05 1.67999e-05 6.18609e-06 2.26801e-06 8.27623e-07 3.00478e-07 1.08496e-07 3.89471e-08 1.38937e-08 4.92378e-09 1.73286e-09 6.05464e-10 2.09629e-10 7.20836e-11 2.42227e-11 8.20528e-12 2.61946e-12 7.50214e-13 -1.77612e-13 7.46232e-14 2.12421e-13 1.52416e-13 -5.05551e-13 4.86746e-13 -3.4695e-13 -1.27171e-13 7.39684e-13 3.98621e-13 -3.26457e-13 -3.76486e-13 -1.47585e-13 -7.51918e-14 1.31127e-13 6.11623e-14 0 0 -1.34253e-14 -1.43552e-14 -3.75116e-15 1.28865e-14 8.17898e-15 3.19239e-15 -1.98088e-14 4.02051e-14 -9.28584e-15 -7.01731e-14 -4.06258e-14 -1.9176e-14 -3.28218e-14 -7.35897e-14 -4.32957e-14 -1.54957e-13 -1.37632e-14 -1.36787e-13 3.77192e-14 4.70025e-15 -9.7609e-14 -5.91094e-14 -1.69203e-14 4.90874e-14 -2.16617e-15 -4.7616e-14 2.00247e-14 -2.71967e-14 2.05423e-14 8.70252e-15 -1.1978e-14 -4.47716e-14 -1.09798e-13 -3.79919e-14 -1.19953e-13 -1.43528e-13 -4.85147e-14 -1.09116e-13 -1.44691e-13 -5.28467e-14 3.49841e-14 -1.86434e-13 5.94929e-14 1.76429e-14 2.08661e-13 2.45286e-13 3.0518e-12 1.96975e-11 1.25323e-10 7.56335e-10 4.31905e-09 2.32435e-08 1.17567e-07 5.572e-07 2.46577e-06 1.01472e-05 3.86473e-05 0.000135465 0.000434048 0.00126124 0.00329381 0.00766145 0.0157635 0.0286525 0.0463481 0.067808 0.0916323 0.116729 0.142462 0.168512 0.194721 0.221009 0.247331 0.27366 0.299969 0.32622 0.352386 0.378445 0.404377 0.430169 0.45581 0.481294 0.506612 0.531757 0.556717 0.581478 0.606021 0.63032 0.654345 0.678054 0.7014 0.724318 0.746734 0.768553 0.789662 0.809925 0.829181 0.847251 0.863934 0.879028 0.892341 0.90372 0.913077 0.920413 0.925828 0.929518 0.931757 0.932873 0.933207 0.933161 0.932993 0.932719 0.932374 0.93199 0.931598 0.931227 0.930898 0.930631 0.930462 0.93042 0.93058 0.931083 0.932066 0.933675 0.936037 0.939359 0.943285 0.950141 0.953007 0.949071 0.942741 0.937107 0.933275 0.930929 0.92961 0.928915 0.928563 0.928378 0.928253 0.928118 0.92791 0.927538 0.92685 0.925589 0.923311 0.919263 0.91221 0.900195 0.880296 0.848522 0.800087 0.730393 0.636855 0.521382 0.392537 0.265723 0.158795 0.0826282 0.0377199 0.0156243 0.00612029 0.00233366 0.000878771 0.000328761 0.000122458 4.54426e-05 1.67999e-05 6.18609e-06 2.26801e-06 8.27624e-07 3.00478e-07 1.08497e-07 3.89469e-08 1.3894e-08 4.92388e-09 1.73241e-09 6.05403e-10 2.10086e-10 7.2191e-11 2.4067e-11 8.21506e-12 2.45346e-12 8.5019e-13 2.7292e-14 8.86985e-14 -9.0481e-14 -8.80814e-14 5.61898e-13 -3.35504e-13 -3.84897e-13 -1.3011e-13 8.13904e-13 8.44386e-14 2.1989e-13 6.93781e-14 -1.2461e-12 -3.64883e-13 1.54997e-13 -4.46857e-13 0 0 -6.33024e-15 -1.18573e-14 1.32201e-15 -1.28859e-14 -2.07665e-14 2.25146e-14 -2.16951e-14 1.54742e-14 -4.34791e-14 -2.74464e-14 -1.07112e-13 8.34532e-15 -6.90351e-14 -2.3543e-14 -4.18499e-14 -8.98998e-14 -5.17583e-14 2.86425e-14 -9.10393e-14 -9.39505e-14 -1.05356e-13 2.39209e-14 -8.75879e-14 5.07821e-14 1.14161e-13 -1.66646e-13 2.2006e-14 5.98721e-14 -2.14252e-14 -5.89193e-14 4.86825e-14 -8.16394e-14 -5.30625e-14 -1.00531e-13 -2.43992e-14 -9.58164e-14 -1.4062e-13 -1.82493e-13 -9.7657e-14 -7.53972e-14 -5.58658e-14 -1.04181e-13 6.10974e-14 3.71496e-14 2.31764e-13 2.98366e-13 2.84753e-12 1.96497e-11 1.2517e-10 7.56662e-10 4.31918e-09 2.32436e-08 1.17566e-07 5.572e-07 2.46577e-06 1.01472e-05 3.86473e-05 0.000135465 0.000434048 0.00126124 0.00329381 0.00766145 0.0157635 0.0286525 0.0463481 0.067808 0.0916323 0.116729 0.142462 0.168512 0.194721 0.221009 0.247331 0.27366 0.299969 0.32622 0.352386 0.378445 0.404377 0.430169 0.45581 0.481294 0.506612 0.531757 0.556717 0.581478 0.606021 0.63032 0.654345 0.678054 0.7014 0.724318 0.746734 0.768553 0.789662 0.809925 0.829181 0.847251 0.863934 0.879028 0.892341 0.90372 0.913077 0.920413 0.925828 0.929518 0.931757 0.932873 0.933207 0.933161 0.932993 0.932719 0.932374 0.93199 0.931598 0.931227 0.930898 0.930631 0.930462 0.93042 0.93058 0.931083 0.932066 0.933675 0.936037 0.939359 0.943285 0.950141 0.953007 0.949071 0.942741 0.937107 0.933275 0.930929 0.92961 0.928915 0.928563 0.928378 0.928253 0.928118 0.92791 0.927538 0.92685 0.925589 0.923311 0.919263 0.91221 0.900195 0.880296 0.848522 0.800087 0.730393 0.636855 0.521382 0.392537 0.265723 0.158795 0.0826282 0.0377199 0.0156243 0.00612029 0.00233366 0.000878771 0.000328761 0.000122458 4.54426e-05 1.67999e-05 6.18609e-06 2.26801e-06 8.27623e-07 3.00478e-07 1.08496e-07 3.8947e-08 1.3894e-08 4.9241e-09 1.73267e-09 6.04903e-10 2.09982e-10 7.1643e-11 2.50743e-11 8.3933e-12 2.39134e-12 6.6681e-13 3.22554e-13 -2.35579e-13 -1.46038e-13 3.02711e-13 1.7698e-13 -2.38271e-13 -2.53076e-13 1.62768e-13 9.45232e-14 -3.13826e-13 5.01759e-13 7.62504e-14 -6.6333e-13 1.60232e-13 -4.47402e-13 4.10123e-13 0 0 5.32804e-15 1.17454e-14 -1.61062e-14 2.56339e-14 -1.0415e-14 -2.67066e-14 -3.47406e-15 -2.58835e-14 -2.56744e-14 -5.90773e-14 1.1881e-14 -1.36548e-13 -4.45465e-14 -5.70079e-14 -4.78546e-14 7.20397e-14 -2.41463e-14 3.58241e-14 -9.48834e-14 -1.47029e-13 -2.45632e-13 -6.38921e-14 2.67586e-14 -3.14993e-14 3.29376e-14 6.66846e-14 -1.2491e-13 1.76436e-13 -1.64924e-13 4.92992e-14 -6.85654e-14 7.96397e-14 1.15131e-14 -1.08023e-13 -6.51323e-14 -1.94508e-13 -4.64974e-14 -5.22104e-14 -2.67701e-14 -1.69236e-13 -3.3943e-13 9.67395e-15 4.47461e-14 6.29549e-16 -1.10504e-13 4.90478e-13 3.17894e-12 1.94938e-11 1.25262e-10 7.56689e-10 4.31929e-09 2.32434e-08 1.17567e-07 5.572e-07 2.46577e-06 1.01472e-05 3.86473e-05 0.000135465 0.000434048 0.00126124 0.00329381 0.00766145 0.0157635 0.0286525 0.0463481 0.067808 0.0916323 0.116729 0.142462 0.168512 0.194721 0.221009 0.247331 0.27366 0.299969 0.32622 0.352386 0.378445 0.404377 0.430169 0.45581 0.481294 0.506612 0.531757 0.556717 0.581478 0.606021 0.63032 0.654345 0.678054 0.7014 0.724318 0.746734 0.768553 0.789662 0.809925 0.829181 0.847251 0.863934 0.879028 0.892341 0.90372 0.913077 0.920413 0.925828 0.929518 0.931757 0.932873 0.933207 0.933161 0.932993 0.932719 0.932374 0.93199 0.931598 0.931227 0.930898 0.930631 0.930462 0.93042 0.93058 0.931083 0.932066 0.933675 0.936037 0.939359 0.943285 0.950141 0.953007 0.949071 0.942741 0.937107 0.933275 0.930929 0.92961 0.928915 0.928563 0.928378 0.928253 0.928118 0.92791 0.927538 0.92685 0.925589 0.923311 0.919263 0.91221 0.900195 0.880296 0.848522 0.800087 0.730393 0.636855 0.521382 0.392537 0.265723 0.158795 0.0826282 0.0377199 0.0156243 0.00612029 0.00233366 0.000878771 0.000328761 0.000122458 4.54426e-05 1.67999e-05 6.18609e-06 2.26801e-06 8.27623e-07 3.00478e-07 1.08496e-07 3.8947e-08 1.38939e-08 4.92412e-09 1.7328e-09 6.05479e-10 2.09158e-10 7.1779e-11 2.54035e-11 8.06564e-12 3.27194e-12 4.08451e-13 -4.81954e-13 2.6625e-13 -1.25947e-13 -2.51562e-13 -2.42915e-13 2.14546e-13 2.90278e-13 3.91689e-13 -6.83914e-13 4.11257e-13 -2.23638e-13 -6.46444e-13 -1.20166e-13 6.43894e-13 1.10376e-12 -3.30025e-13 0
				</DataArray>
				<DataArray Name="VitesseY" type="Float32" format="ascii">