<?xml version="1.0"?>
<VTKFile type="PolyData">
	<PolyData>
		<Piece NumberOfPoints="1206" NumberOfPolys="1000">
			<Points>
				<DataArray type="Float32" NumberOfComponents="3" format="ascii">
 0 0 0 0.005 0 0 0.01 0 0 0.015 0 0 0.02 0 0 0.025 0 0 0.03 0 0 0.035 0 0 0.04 0 0 0.045 0 0 0.05 0 0 0.055 0 0 0.06 0 0 0.065 0 0 0.07 0 0 0.075 0 0 0.08 0 0 0.085 0 0 0.09 0 0 0.095 0 0 0.1 0 0 0.105 0 0 0.11 0 0 0.115 0 0 0.12 0 0 0.125 0 0 0.13 0 0 0.135 0 0 0.14 0 0 0.145 0 0 0.15 0 0 0.155 0 0 0.16 0 0 0.165 0 0 0.17 0 0 0.175 0 0 0.18 0 0 0.185 0 0 0.19 0 0 0.195 0 0 0.2 0 0 0.205 0 0 0.21 0 0 0.215 0 0 0.22 0 0 0.225 0 0 0.23 0 0 0.235 0 0 0.24 0 0 0.245 0 0 0.25 0 0 0.255 0 0 0.26 0 0 0.265 0 0 0.27 0 0 0.275 0 0 0.28 0 0 0.285 0 0 0.29 0 0 0.295 0 0 0.3 0 0 0.305 0 0 0.31 0 0 0.315 0 0 0.32 0 0 0.325 0 0 0.33 0 0 0.335 0 0 0.34 0 0 0.345 0 0 0.35 0 0 0.355 0 0 0.36 0 0 0.365 0 0 0.37 0 0 0.375 0 0 0.38 0 0 0.385 0 0 0.39 0 0 0.395 0 0 0.4 0 0 0.405 0 0 0.41 0 0 0.415 0 0 0.42 0 0 0.425 0 0 0.43 0 0 0.435 0 0 0.44 0 0 0.445 0 0 0.45 0 0 0.455 0 0 0.46 0 0 0.465 0 0 0.47 0 0 0.475 0 0 0.48 0 0 0.485 0 0 0.49 0 0 0.495 0 0 0.5 0 0 0.505 0 0 0.51 0 0 0.515 0 0 0.52 0 0 0.525 0 0 0.53 0 0 0.535 0 0 0.54 0 0 0.545 0 0 0.55 0 0 0.555 0 0 0.56 0 0 0.565 0 0 0.57 0 0 0.575 0 0 0.58 0 0 0.585 0 0 0.59 0 0 0.595 0 0 0.6 0 0 0.605 0 0 0.61 0 0 0.615 0 0 0.62 0 0 0.625 0 0 0.63 0 0 0.635 0 0 0.64 0 0 0.645 0 0 0.65 0 0 0.655 0 0 0.66 0 0 0.665 0 0 0.67 0 0 0.675 0 0 0.68 0 0 0.685 0 0 0.69 0 0 0.695 0 0 0.7 0 0 0.705 0 0 0.71 0 0 0.715 0 0 0.72 0 0 0.725 0 0 0.73 0 0 0.735 0 0 0.74 0 0 0.745 0 0 0.75 0 0 0.755 0 0 0.76 0 0 0.765 0 0 0.77 0 0 0.775 0 0 0.78 0 0 0.785 0 0 0.79 0 0 0.795 0 0 0.8 0 0 0.805 0 0 0.81 0 0 0.815 0 0 0.82 0 0 0.825 0 0 0.83 0 0 0.835 0 0 0.84 0 0 0.845 0 0 0.85 0 0 0.855 0 0 0.86 0 0 0.865 0 0 0.87 0 0 0.875 0 0 0.88 0 0 0.885 0 0 0.89 0 0 0.895 0 0 0.9 0 0 0.905 0 0 0.91 0 0 0.915 0 0 0.92 0 0 0.925 0 0 0.93 0 0 0.935 0 0 0.94 0 0 0.945 0 0 0.95 0 0 0.955 0 0 0.96 0 0 0.965 0 0 0.97 0 0 0.975 0 0 0.98 0 0 0.985 0 0 0.99 0 0 0.995 0 0 1 0 0 0 0.02 0 0.005 0.02 0 0.01 0.02 0 0.015 0.02 0 0.02 0.02 0 0.025 0.02 0 0.03 0.02 0 0.035 0.02 0 0.04 0.02 0 0.045 0.02 0 0.05 0.02 0 0.055 0.02 0 0.06 0.02 0 0.065 0.02 0 0.07 0.02 0 0.075 0.02 0 0.08 0.02 0 0.085 0.02 0 0.09 0.02 0 0.095 0.02 0 0.1 0.02 0 0.105 0.02 0 0.11 0.02 0 0.115 0.02 0 0.12 0.02 0 0.125 0.02 0 0.13 0.02 0 0.135 0.02 0 0.14 0.02 0 0.145 0.02 0 0.15 0.02 0 0.155 0.02 0 0.16 0.02 0 0.165 0.02 0 0.17 0.02 0 0.175 0.02 0 0.18 0.02 0 0.185 0.02 0 0.19 0.02 0 0.195 0.02 0 0.2 0.02 0 0.205 0.02 0 0.21 0.02 0 0.215 0.02 0 0.22 0.02 0 0.225 0.02 0 0.23 0.02 0 0.235 0.02 0 0.24 0.02 0 0.245 0.02 0 0.25 0.02 0 0.255 0.02 0 0.26 0.02 0 0.265 0.02 0 0.27 0.02 0 0.275 0.02 0 0.28 0.02 0 0.285 0.02 0 0.29 0.02 0 0.295 0.02 0 0.3 0.02 0 0.305 0.02 0 0.31 0.02 0 0.315 0.02 0 0.32 0.02 0 0.325 0.02 0 0.33 0.02 0 0.335 0.02 0 0.34 0.02 0 0.345 0.02 0 0.35 0.02 0 0.355 0.02 0 0.36 0.02 0 0.365 0.02 0 0.37 0.02 0 0.375 0.02 0 0.38 0.02 0 0.385 0.02 0 0.39 0.02 0 0.395 0.02 0 0.4 0.02 0 0.405 0.02 0 0.41 0.02 0 0.415 0.02 0 0.42 0.02 0 0.425 0.02 0 0.43 0.02 0 0.435 0.02 0 0.44 0.02 0 0.445 0.02 0 0.45 0.02 0 0.455 0.02 0 0.46 0.02 0 0.465 0.02 0 0.47 0.02 0 0.475 0.02 0 0.48 0.02 0 0.485 0.02 0 0.49 0.02 0 0.495 0.02 0 0.5 0.02 0 0.505 0.02 0 0.51 0.02 0 0.515 0.02 0 0.52 0.02 0 0.525 0.02 0 0.53 0.02 0 0.535 0.02 0 0.54 0.02 0 0.545 0.02 0 0.55 0.02 0 0.555 0.02 0 0.56 0.02 0 0.565 0.02 0 0.57 0.02 0 0.575 0.02 0 0.58 0.02 0 0.585 0.02 0 0.59 0.02 0 0.595 0.02 0 0.6 0.02 0 0.605 0.02 0 0.61 0.02 0 0.615 0.02 0 0.62 0.02 0 0.625 0.02 0 0.63 0.02 0 0.635 0.02 0 0.64 0.02 0 0.645 0.02 0 0.65 0.02 0 0.655 0.02 0 0.66 0.02 0 0.665 0.02 0 0.67 0.02 0 0.675 0.02 0 0.68 0.02 0 0.685 0.02 0 0.69 0.02 0 0.695 0.02 0 0.7 0.02 0 0.705 0.02 0 0.71 0.02 0 0.715 0.02 0 0.72 0.02 0 0.725 0.02 0 0.73 0.02 0 0.735 0.02 0 0.74 0.02 0 0.745 0.02 0 0.75 0.02 0 0.755 0.02 0 0.76 0.02 0 0.765 0.02 0 0.77 0.02 0 0.775 0.02 0 0.78 0.02 0 0.785 0.02 0 0.79 0.02 0 0.795 0.02 0 0.8 0.02 0 0.805 0.02 0 0.81 0.02 0 0.815 0.02 0 0.82 0.02 0 0.825 0.02 0 0.83 0.02 0 0.835 0.02 0 0.84 0.02 0 0.845 0.02 0 0.85 0.02 0 0.855 0.02 0 0.86 0.02 0 0.865 0.02 0 0.87 0.02 0 0.875 0.02 0 0.88 0.02 0 0.885 0.02 0 0.89 0.02 0 0.895 0.02 0 0.9 0.02 0 0.905 0.02 0 0.91 0.02 0 0.915 0.02 0 0.92 0.02 0 0.925 0.02 0 0.93 0.02 0 0.935 0.02 0 0.94 0.02 0 0.945 0.02 0 0.95 0.02 0 0.955 0.02 0 0.96 0.02 0 0.965 0.02 0 0.97 0.02 0 0.975 0.02 0 0.98 0.02 0 0.985 0.02 0 0.99 0.02 0 0.995 0.02 0 1 0.02 0 0 0.04 0 0.005 0.04 0 0.01 0.04 0 0.015 0.04 0 0.02 0.04 0 0.025 0.04 0 0.03 0.04 0 0.035 0.04 0 0.04 0.04 0 0.045 0.04 0 0.05 0.04 0 0.055 0.04 0 0.06 0.04 0 0.065 0.04 0 0.07 0.04 0 0.075 0.04 0 0.08 0.04 0 0.085 0.04 0 0.09 0.04 0 0.095 0.04 0 0.1 0.04 0 0.105 0.04 0 0.11 0.04 0 0.115 0.04 0 0.12 0.04 0 0.125 0.04 0 0.13 0.04 0 0.135 0.04 0 0.14 0.04 0 0.145 0.04 0 0.15 0.04 0 0.155 0.04 0 0.16 0.04 0 0.165 0.04 0 0.17 0.04 0 0.175 0.04 0 0.18 0.04 0 0.185 0.04 0 0.19 0.04 0 0.195 0.04 0 0.2 0.04 0 0.205 0.04 0 0.21 0.04 0 0.215 0.04 0 0.22 0.04 0 0.225 0.04 0 0.23 0.04 0 0.235 0.04 0 0.24 0.04 0 0.245 0.04 0 0.25 0.04 0 0.255 0.04 0 0.26 0.04 0 0.265 0.04 0 0.27 0.04 0 0.275 0.04 0 0.28 0.04 0 0.285 0.04 0 0.29 0.04 0 0.295 0.04 0 0.3 0.04 0 0.305 0.04 0 0.31 0.04 0 0.315 0.04 0 0.32 0.04 0 0.325 0.04 0 0.33 0.04 0 0.335 0.04 0 0.34 0.04 0 0.345 0.04 0 0.35 0.04 0 0.355 0.04 0 0.36 0.04 0 0.365 0.04 0 0.37 0.04 0 0.375 0.04 0 0.38 0.04 0 0.385 0.04 0 0.39 0.04 0 0.395 0.04 0 0.4 0.04 0 0.405 0.04 0 0.41 0.04 0 0.415 0.04 0 0.42 0.04 0 0.425 0.04 0 0.43 0.04 0 0.435 0.04 0 0.44 0.04 0 0.445 0.04 0 0.45 0.04 0 0.455 0.04 0 0.46 0.04 0 0.465 0.04 0 0.47 0.04 0 0.475 0.04 0 0.48 0.04 0 0.485 0.04 0 0.49 0.04 0 0.495 0.04 0 0.5 0.04 0 0.505 0.04 0 0.51 0.04 0 0.515 0.04 0 0.52 0.04 0 0.525 0.04 0 0.53 0.04 0 0.535 0.04 0 0.54 0.04 0 0.545 0.04 0 0.55 0.04 0 0.555 0.04 0 0.56 0.04 0 0.565 0.04 0 0.57 0.04 0 0.575 0.04 0 0.58 0.04 0 0.585 0.04 0 0.59 0.04 0 0.595 0.04 0 0.6 0.04 0 0.605 0.04 0 0.61 0.04 0 0.615 0.04 0 0.62 0.04 0 0.625 0.04 0 0.63 0.04 0 0.635 0.04 0 0.64 0.04 0 0.645 0.04 0 0.65 0.04 0 0.655 0.04 0 0.66 0.04 0 0.665 0.04 0 0.67 0.04 0 0.675 0.04 0 0.68 0.04 0 0.685 0.04 0 0.69 0.04 0 0.695 0.04 0 0.7 0.04 0 0.705 0.04 0 0.71 0.04 0 0.715 0.04 0 0.72 0.04 0 0.725 0.04 0 0.73 0.04 0 0.735 0.04 0 0.74 0.04 0 0.745 0.04 0 0.75 0.04 0 0.755 0.04 0 0.76 0.04 0 0.765 0.04 0 0.77 0.04 0 0.775 0.04 0 0.78 0.04 0 0.785 0.04 0 0.79 0.04 0 0.795 0.04 0 0.8 0.04 0 0.805 0.04 0 0.81 0.04 0 0.815 0.04 0 0.82 0.04 0 0.825 0.04 0 0.83 0.04 0 0.835 0.04 0 0.84 0.04 0 0.845 0.04 0 0.85 0.04 0 0.855 0.04 0 0.86 0.04 0 0.865 0.04 0 0.87 0.04 0 0.875 0.04 0 0.88 0.04 0 0.885 0.04 0 0.89 0.04 0 0.895 0.04 0 0.9 0.04 0 0.905 0.04 0 0.91 0.04 0 0.915 0.04 0 0.92 0.04 0 0.925 0.04 0 0.93 0.04 0 0.935 0.04 0 0.94 0.04 0 0.945 0.04 0 0.95 0.04 0 0.955 0.04 0 0.96 0.04 0 0.965 0.04 0 0.97 0.04 0 0.975 0.04 0 0.98 0.04 0 0.985 0.04 0 0.99 0.04 0 0.995 0.04 0 1 0.04 0 0 0.06 0 0.005 0.06 0 0.01 0.06 0 0.015 0.06 0 0.02 0.06 0 0.025 0.06 0 0.03 0.06 0 0.035 0.06 0 0.04 0.06 0 0.045 0.06 0 0.05 0.06 0 0.055 0.06 0 0.06 0.06 0 0.065 0.06 0 0.07 0.06 0 0.075 0.06 0 0.08 0.06 0 0.085 0.06 0 0.09 0.06 0 0.095 0.06 0 0.1 0.06 0 0.105 0.06 0 0.11 0.06 0 0.115 0.06 0 0.12 0.06 0 0.125 0.06 0 0.13 0.06 0 0.135 0.06 0 0.14 0.06 0 0.145 0.06 0 0.15 0.06 0 0.155 0.06 0 0.16 0.06 0 0.165 0.06 0 0.17 0.06 0 0.175 0.06 0 0.18 0.06 0 0.185 0.06 0 0.19 0.06 0 0.195 0.06 0 0.2 0.06 0 0.205 0.06 0 0.21 0.06 0 0.215 0.06 0 0.22 0.06 0 0.225 0.06 0 0.23 0.06 0 0.235 0.06 0 0.24 0.06 0 0.245 0.06 0 0.25 0.06 0 0.255 0.06 0 0.26 0.06 0 0.265 0.06 0 0.27 0.06 0 0.275 0.06 0 0.28 0.06 0 0.285 0.06 0 0.29 0.06 0 0.295 0.06 0 0.3 0.06 0 0.305 0.06 0 0.31 0.06 0 0.315 0.06 0 0.32 0.06 0 0.325 0.06 0 0.33 0.06 0 0.335 0.06 0 0.34 0.06 0 0.345 0.06 0 0.35 0.06 0 0.355 0.06 0 0.36 0.06 0 0.365 0.06 0 0.37 0.06 0 0.375 0.06 0 0.38 0.06 0 0.385 0.06 0 0.39 0.06 0 0.395 0.06 0 0.4 0.06 0 0.405 0.06 0 0.41 0.06 0 0.415 0.06 0 0.42 0.06 0 0.425 0.06 0 0.43 0.06 0 0.435 0.06 0 0.44 0.06 0 0.445 0.06 0 0.45 0.06 0 0.455 0.06 0 0.46 0.06 0 0.465 0.06 0 0.47 0.06 0 0.475 0.06 0 0.48 0.06 0 0.485 0.06 0 0.49 0.06 0 0.495 0.06 0 0.5 0.06 0 0.505 0.06 0 0.51 0.06 0 0.515 0.06 0 0.52 0.06 0 0.525 0.06 0 0.53 0.06 0 0.535 0.06 0 0.54 0.06 0 0.545 0.06 0 0.55 0.06 0 0.555 0.06 0 0.56 0.06 0 0.565 0.06 0 0.57 0.06 0 0.575 0.06 0 0.58 0.06 0 0.585 0.06 0 0.59 0.06 0 0.595 0.06 0 0.6 0.06 0 0.605 0.06 0 0.61 0.06 0 0.615 0.06 0 0.62 0.06 0 0.625 0.06 0 0.63 0.06 0 0.635 0.06 0 0.64 0.06 0 0.645 0.06 0 0.65 0.06 0 0.655 0.06 0 0.66 0.06 0 0.665 0.06 0 0.67 0.06 0 0.675 0.06 0 0.68 0.06 0 0.685 0.06 0 0.69 0.06 0 0.695 0.06 0 0.7 0.06 0 0.705 0.06 0 0.71 0.06 0 0.715 0.06 0 0.72 0.06 0 0.725 0.06 0 0.73 0.06 0 0.735 0.06 0 0.74 0.06 0 0.745 0.06 0 0.75 0.06 0 0.755 0.06 0 0.76 0.06 0 0.765 0.06 0 0.77 0.06 0 0.775 0.06 0 0.78 0.06 0 0.785 0.06 0 0.79 0.06 0 0.795 0.06 0 0.8 0.06 0 0.805 0.06 0 0.81 0.06 0 0.815 0.06 0 0.82 0.06 0 0.825 0.06 0 0.83 0.06 0 0.835 0.06 0 0.84 0.06 0 0.845 0.06 0 0.85 0.06 0 0.855 0.06 0 0.86 0.06 0 0.865 0.06 0 0.87 0.06 0 0.875 0.06 0 0.88 0.06 0 0.885 0.06 0 0.89 0.06 0 0.895 0.06 0 0.9 0.06 0 0.905 0.06 0 0.91 0.06 0 0.915 0.06 0 0.92 0.06 0 0.925 0.06 0 0.93 0.06 0 0.935 0.06 0 0.94 0.06 0 0.945 0.06 0 0.95 0.06 0 0.955 0.06 0 0.96 0.06 0 0.965 0.06 0 0.97 0.06 0 0.975 0.06 0 0.98 0.06 0 0.985 0.06 0 0.99 0.06 0 0.995 0.06 0 1 0.06 0 0 0.08 0 0.005 0.08 0 0.01 0.08 0 0.015 0.08 0 0.02 0.08 0 0.025 0.08 0 0.03 0.08 0 0.035 0.08 0 0.04 0.08 0 0.045 0.08 0 0.05 0.08 0 0.055 0.08 0 0.06 0.08 0 0.065 0.08 0 0.07 0.08 0 0.075 0.08 0 0.08 0.08 0 0.085 0.08 0 0.09 0.08 0 0.095 0.08 0 0.1 0.08 0 0.105 0.08 0 0.11 0.08 0 0.115 0.08 0 0.12 0.08 0 0.125 0.08 0 0.13 0.08 0 0.135 0.08 0 0.14 0.08 0 0.145 0.08 0 0.15 0.08 0 0.155 0.08 0 0.16 0.08 0 0.165 0.08 0
[...]
			<PointData Scalars="VitesseX">
				<DataArray Name="VitesseX" type="Float32" format="ascii">
 0 -2.77026e-15 -5.81916e-16 -1.21513e-14 5.83638e-15 -3.69097e-15 2.14332e-15 -2.92993e-14 1.87476e-14 -4.10908e-14 -3.70753e-14 4.25995e-14 -7.71855e-14 2.4332e-14 -4.85258e-14 -7.44297e-14 7.42304e-14 7.76478e-16 -1.23177e-13 -8.81281e-15 -4.00227e-14 -6.76e-14 -1.47376e-13 -8.94331e-14 -1.07774e-14 -3.08627e-14 -1.76412e-13 -1.07693e-14 1.72572e-13 -1.60063e-14 5.33609e-14 -7.94787e-14 -6.37944e-14 5.43469e-14 -5.68171e-14 -3.71148e-14 -3.15253e-13 5.65019e-14 -2.24441e-13 -1.63002e-13 -3.82667e-14 -2.83878e-13 -9.46311e-15 -5.98405e-14 -2.02575e-13 5.69744e-14 -1.45555e-14 -5.12417e-16 8.04799e-14 6.81145e-13 4.93818e-12 3.30821e-11 2.16414e-10 1.33933e-09 7.80488e-09 4.27151e-08 2.18918e-07 1.04699e-06 4.65415e-06 1.91408e-05 7.24308e-05 0.000250547 0.000786063 0.00221642 0.00556132 0.0123076 0.0239138 0.0409432 0.0626275 0.0874285 0.113952 0.141331 0.169124 0.197116 0.225203 0.253328 0.281456 0.309549 0.337559 0.365454 0.393206 0.420792 0.4482 0.475418 0.502439 0.529253 0.555846 0.582201 0.608294 0.634095 0.659564 0.684649 0.709286 0.733395 0.756877 0.779609 0.801444 0.822208 0.841698 0.859694 0.875965 0.890294 0.902507 0.912505 0.920294 0.925994 0.929833 0.932118 0.933203 0.93346 0.933386 0.933178 0.93286 0.932472 0.932055 0.931645 0.931285 0.93101 0.930868 0.930921 0.931293 0.932164 0.933693 0.936026 0.939385 0.943476 0.950402 0.954401 0.950504 0.943816 0.937732 0.933597 0.931087 0.929694 0.92897 0.928599 0.928384 0.928184 0.927906 0.927418 0.926517 0.924858 0.921855 0.916528 0.90729 0.891692 0.866227 0.826385 0.767273 0.685041 0.579143 0.454851 0.324391 0.205918 0.114304 0.0552363 0.0237614 0.00948171 0.003639 0.00137124 0.000511982 0.000190068 7.02344e-05 2.5837e-05 9.46008e-06 3.4463e-06 1.24865e-06 4.49757e-07 1.60982e-07 5.72357e-08 2.02053e-08 7.07961e-09 2.46118e-09 8.47867e-10 2.90017e-10 9.80635e-11 3.26864e-11 1.02905e-11 3.75564e-12 5.24417e-13 5.28976e-13 -4.4313e-13 -4.52947e-13 -4.45248e-14 -2.24238e-13 4.77493e-13 2.54827e-14 -6.07981e-14 4.29301e-13 7.21612e-14 -5.66357e-13 -1.1653e-13 1.98242e-13 -2.47482e-13 1.8705e-13 1.40835e-13 3.98444e-13 4.18899e-13 -5.88555e-13 2.09132e-13 0 0 6.5079e-16 -2.60737e-16 2.12585e-14 -7.67441e-15 -8.90484e-15 -2.05917e-14 1.79253e-14 -2.52815e-14 1.3316e-14 -1.57258e-15 -4.63317e-14 1.52914e-14 -8.55542e-14 -2.97743e-14 3.0748e-14 -7.95391e-14 -2.9513e-14 3.918e-14 -1.01455e-13 -1.01062e-13 -6.03275e-14 -3.15954e-14 -9.43402e-14 -1.12457e-13 -6.70124e-14 6.24822e-14 -2.22359e-15 -8.06986e-14 7.40874e-14 1.60124e-14 6.30966e-14 -4.43089e-15 -7.32438e-14 -1.54461e-13 -1.60675e-13 8.59489e-14 -2.94639e-13 -6.7172e-14 -7.35671e-14 -1.84239e-13 -2.27635e-14 -1.07982e-13 -7.67633e-14 9.71548e-14 -1.73337e-13 -3.56641e-14 -1.02953e-13 6.40197e-14 7.12176e-13 4.81543e-12 3.31165e-11 2.16672e-10 1.33946e-09 7.80442e-09 4.27151e-08 2.18919e-07 1.04699e-06 4.65415e-06 1.91408e-05 7.24308e-05 0.000250547 0.000786063 0.00221642 0.00556132 0.0123076 0.0239138 0.0409432 0.0626275 0.0874285 0.113952 0.141331 0.169124 0.197116 0.225203 0.253328 0.281456 0.309549 0.337559 0.365454 0.393206 0.420792 0.4482 0.475418 0.502439 0.529253 0.555846 0.582201 0.608294 0.634095 0.659564 0.684649 0.709286 0.733395 0.756877 0.779609 0.801444 0.822208 0.841698 0.859694 0.875965 0.890294 0.902507 0.912505 0.920294 0.925994 0.929833 0.932118 0.933203 0.93346 0.933386 0.933178 0.93286 0.932472 0.932055 0.931645 0.931285 0.93101 0.930868 0.930921 0.931293 0.932164 0.933693 0.936026 0.939385 0.943476 0.950402 0.954401 0.950504 0.943816 0.937732 0.933597 0.931087 0.929694 0.92897 0.928599 0.928384 0.928184 0.927906 0.927418 0.926517 0.924858 0.921855 0.916528 0.90729 0.891692 0.866227 0.826385 0.767273 0.685041 0.579143 0.454851 0.324391 0.205918 0.114304 0.0552363 0.0237614 0.00948171 0.003639 0.00137124 0.000511982 0.000190068 7.02344e-05 2.5837e-05 9.46008e-06 3.4463e-06 1.24865e-06 4.49757e-07 1.60983e-07 5.72354e-08 2.02053e-08 7.0795e-09 2.46091e-09 8.48688e-10 2.89822e-10 9.80207e-11 3.24556e-11 1.08054e-11 2.91412e-12 1.11042e-12 -5.82064e-14 1.69141e-13 -1.67484e-13 -1.77543e-13 7.01585e-14 4.50367e-14 3.58894e-13 -3.21763e-13 1.2194e-13 -2.00139e-13 5.26252e-13 -7.16293e-13 1.56603e-13 3.07142e-13 1.05676e-13 -9.2591e-14 4.1529e-13 -2.6283e-13 2.49347e-13 -2.34968e-13 0 0 -9.27943e-16 7.88932e-15 -5.12221e-15 3.60959e-14 3.18327e-14 -1.32783e-14 -1.35088e-14 1.64224e-14 1.45724e-14 -2.21174e-14 -9.27918e-15 -3.26178e-14 -2.3544e-14 -5.47507e-14 -7.99157e-14 -5.0271e-14 -3.95551e-14 -5.27798e-14 -3.41517e-14 -7.91628e-14 -5.88947e-14 -1.19892e-13 -2.80673e-14 -3.01952e-14 -8.28034e-14 -4.44605e-14 -1.43972e-14 2.33686e-14 3.9211e-14 4.8729e-14 1.90249e-14 -1.28506e-14 -7.30082e-14 -1.82923e-13 -5.37473e-14 -1.39069e-13 1.14303e-14 -9.78878e-14 -1.55096e-13 -3.69216e-14 -7.86082e-14 -4.75508e-14 2.92377e-14 -1.20266e-13 -4.08278e-15 -1.11318e-13 -1.39089e-13 1.30504e-13 6.76406e-13 4.86301e-12 3.30636e-11 2.16617e-10 1.3394e-09 7.80468e-09 4.27153e-08 2.18918e-07 1.04699e-06 4.65415e-06 1.91408e-05 7.24308e-05 0.000250547 0.000786063 0.00221642 0.00556132 0.0123076 0.0239138 0.0409432 0.0626275 0.0874285 0.113952 0.141331 0.169124 0.197116 0.225203 0.253328 0.281456 0.309549 0.337559 0.365454 0.393206 0.420792 0.4482 0.475418 0.502439 0.529253 0.555846 0.582201 0.608294 0.634095 0.659564 0.684649 0.709286 0.733395 0.756877 0.779609 0.801444 0.822208 0.841698 0.859694 0.875965 0.890294 0.902507 0.912505 0.920294 0.925994 0.929833 0.932118 0.933203 0.93346 0.933386 0.933178 0.93286 0.932472 0.932055 0.931645 0.931285 0.93101 0.930868 0.930921 0.931293 0.932164 0.933693 0.936026 0.939385 0.943476 0.950402 0.954401 0.950504 0.943816 0.937732 0.933597 0.931087 0.929694 0.92897 0.928599 0.928384 0.928184 0.927906 0.927418 0.926517 0.924858 0.921855 0.916528 0.90729 0.891692 0.866227 0.826385 0.767273 0.685041 0.579143 0.454851 0.324391 0.205918 0.114304 0.0552363 0.0237614 0.00948171 0.003639 0.00137124 0.000511982 0.000190068 7.02344e-05 2.5837e-05 9.46008e-06 3.4463e-06 1.24865e-06 4.49757e-07 1.60983e-07 5.72356e-08 2.02051e-08 7.07962e-09 2.46135e-09 8.48221e-10 2.89989e-10 9.79599e-11 3.28726e-11 1.06005e-11 2.98958e-12 5.11398e-13 4.18206e-13 -2.25906e-13 -3.71111e-14 2.48005e-13 1.48125e-13 1.85406e-13 -2.26348e-13 1.62229e-14 -3.12722e-13 3.04586e-14 1.50202e-13 1.29335e-13 1.13995e-13 -2.03073e-13 -3.05517e-13 3.07829e-13 8.31108e-14 2.81273e-13 3.54495e-13 2.54984e-13 0 0 5.77821e-15 9.85859e-15 -1.10474e-14 3.41935e-15 7.91802e-15 1.59776e-14 1.9923e-14 -5.85021e-15 3.13715e-14 1.33479e-14 -2.06671e-14 -1.67754e-14 -3.97107e-14 -7.18024e-14 -1.05331e-13 -4.34689e-14 -1.12858e-13 -1.27502e-13 -1.69725e-14 -4.24503e-15 -1.36999e-14 -3.99259e-14 -4.91268e-14 -7.15238e-14 -3.86359e-14 -6.36115e-14 -1.05563e-14 6.96319e-14 7.1196e-14 -6.21281e-14 -6.8216e-14 -9.80046e-14 1.42572e-14 -6.58668e-14 -8.97609e-15 -1.45968e-13 -7.69244e-14 -1.7929e-13 -9.32308e-14 -9.81187e-14 -1.66562e-13 -7.64485e-14 2.396e-14 -5.01936e-14 -7.19923e-14 5.66042e-14 -8.98513e-14 9.1424e-14 7.09619e-13 4.87115e-12 3.31431e-11 2.16448e-10 1.33947e-09 7.80456e-09 4.27152e-08 2.18918e-07 1.04699e-06 4.65415e-06 1.91408e-05 7.24308e-05 0.000250547 0.000786063 0.00221642 0.00556132 0.0123076 0.0239138 0.0409432 0.0626275 0.0874285 0.113952 0.141331 0.169124 0.197116 0.225203 0.253328 0.281456 0.309549 0.337559 0.365454 0.393206 0.420792 0.4482 0.475418 0.502439 0.529253 0.555846 0.582201 0.608294 0.634095 0.659564 0.684649 0.709286 0.733395 0.756877 0.779609 0.801444 0.822208 0.841698 0.859694 0.875965 0.890294 0.902507 0.912505 0.920294 0.925994 0.929833 0.932118 0.933203 0.93346 0.933386 0.933178 0.93286 0.932472 0.932055 0.931645 0.931285 0.93101 0.930868 0.930921 0.931293 0.932164 0.933693 0.936026 0.939385 0.943476 0.950402 0.954401 0.950504 0.943816 0.937732 0.933597 0.931087 0.929694 0.92897 0.928599 0.928384 0.928184 0.927906 0.927418 0.926517 0.924858 0.921855 0.916528 0.90729 0.891692 0.866227 0.826385 0.767273 0.685041 0.579143 0.454851 0.324391 0.205918 0.114304 0.0552363 0.0237614 0.00948171 0.003639 0.00137124 0.000511982 0.000190068 7.02344e-05 2.5837e-05 9.46008e-06 3.4463e-06 1.24865e-06 4.49757e-07 1.60983e-07 5.72356e-08 2.02057e-08 7.07954e-09 2.46106e-09 8.48354e-10 2.89855e-10 9.81643e-11 3.25576e-11 1.04275e-11 3.78643e-12 6.27882e-13 3.77708e-13 -7.311e-13 2.53361e-14 1.01978e-13 2.71741e-13 1.70345e-13 4.36074e-14 -1.83421e-15 1.01349e-13 -5.41243e-13 -3.8933e-14 4.70756e-13 -2.30163e-14 -8.49593e-13 5.60849e-13 2.72504e-14 1.52594e-13 -7.96183e-14 -1.41126e-13 3.18103e-13 0 0 1.12321e-14 1.02173e-14 2.902e-14 -2.42672e-14 -2.73193e-14 1.10145e-14 5.62815e-14 -2.79233e-14 1.43964e-14 1.87115e-14 -8.7181e-14 1.61795e-14 -9.90582e-14 -3.8875e-14 -3.44706e-14 -1.18001e-13 -1.14118e-13 3.63659e-14 -8.92795e-14 -2.40298e-14 -1.38101e-14 2.60639e-14 -9.0736e-14 -1.35527e-13 -4.65301e-14 1.46855e-13 -5.19845e-14 -1.44011e-13 1.17076e-13 -5.86621e-14 4.60492e-15 -5.60809e-14 6.88508e-15 -4.05182e-14 -9.61405e-14 6.56217e-14 -4.30092e-13 -9.54802e-14 -2.3197e-14 -2.8306e-13 -6.96443e-14 6.81581e-14 -6.85747e-14 1.41523e-13 -2.38199e-13 9.04333e-16 -1.74734e-13 1.27904e-13 7.60811e-13 4.82054e-12 3.31657e-11 2.166e-10 1.33951e-09 7.80439e-09 4.27151e-08 2.18919e-07 1.04699e-06 4.65415e-06 1.91408e-05 7.24308e-05 0.000250547 0.000786063 0.00221642 0.00556132 0.0123076 0.0239138 0.0409432 0.0626275 0.0874285 0.113952 0.141331 0.169124 0.197116 0.225203 0.253328 0.281456 0.309549 0.337559 0.365454 0.393206 0.420792 0.4482 0.475418 0.502439 0.529253 0.555846 0.582201 0.608294 0.634095 0.659564 0.684649 0.709286 0.733395 0.756877 0.779609 0.801444 0.822208 0.841698 0.859694 0.875965 0.890294 0.902507 0.912505 0.920294 0.925994 0.929833 0.932118 0.933203 0.93346 0.933386 0.933178 0.93286 0.932472 0.932055 0.931645 0.931285 0.93101 0.930868 0.930921 0.931293 0.932164 0.933693 0.936026 0.939385 0.943476 0.950402 0.954401 0.950504 0.943816 0.937732 0.933597 0.931087 0.929694 0.92897 0.928599 0.928384 0.928184 0.927906 0.927418 0.926517 0.924858 0.921855 0.916528 0.90729 0.891692 0.866227 0.826385 0.767273 0.685041 0.579143 0.454851 0.324391 0.205918 0.114304 0.0552363 0.0237614 0.00948171 0.003639 0.00137124 0.000511982 0.000190068 7.02344e-05 2.5837e-05 9.46008e-06 3.4463e-06 1.24865e-06 4.49757e-07 1.60983e-07 5.72356e-08 2.02056e-08 7.07962e-09 2.46081e-09 8.48747e-10 2.89838e-10 9.796e-11 3.28006e-11 1.07254e-11 3.40803e-12 7.93235e-13 -2.18742e-13 -1.65866e-13 -1.03759e-13 5.11744e-13 1.22939e-13 -3.56227e-13 4.63652e-13 -3.68016e-13 4.94888e-14 -4.29471e-13 4.80567e-13 -6.74344e-13 3.3728e-13 -1.32163e-13 7.58762e-13 -1.64936e-13 3.60958e-13 -6.55223e-13 1.04759e-13 -2.12549e-13 0 0 4.98006e-15 1.64355e-14 1.52222e-14 3.80039e-14 7.30938e-15 6.84415e-15 -1.94504e-14 5.80091e-14 -7.25282e-14 -6.74378e-14 -1.63231e-14 -1.07094e-13 2.96573e-14 -3.26238e-14 -1.54035e-13 -1.62979e-14 -2.1829e-14 2.06386e-14 -1.88207e-14 -3.57948e-14 -6.49549e-14 -1.91989e-13 -4.01059e-14 2.57392e-14 -7.82332e-14 3.06347e-14 -1.17973e-13 -4.65796e-14 6.00072e-15 1.25726e-13 -2.19804e-14 3.21372e-15 4.00738e-14 -6.30432e-14 2.41166e-15 -3.4211e-13 -3.7695e-14 -1.18252e-13 -1.85991e-13 -1.13515e-13 -2.01733e-13 4.00613e-13 -3.29078e-14 -2.53983e-13 6.30707e-14 -2.77263e-13 -2.42549e-13 2.86408e-13 7.11989e-13 4.93211e-12 3.30216e-11 2.16608e-10 1.33928e-09 7.80505e-09 4.27153e-08 2.18918e-07 1.04699e-06 4.65415e-06 1.91408e-05 7.24308e-05 0.000250547 0.000786063 0.00221642 0.00556132 0.0123076 0.0239138 0.0409432 0.0626275 0.0874285 0.113952 0.141331 0.169124 0.197116 0.225203 0.253328 0.281456 0.309549 0.337559 0.365454 0.393206 0.420792 0.4482 0.475418 0.502439 0.529253 0.555846 0.582201 0.608294 0.634095 0.659564 0.684649 0.709286 0.733395 0.756877 0.779609 0.801444 0.822208 0.841698 0.859694 0.875965 0.890294 0.902507 0.912505 0.920294 0.925994 0.929833 0.932118 0.933203 0.93346 0.933386 0.933178 0.93286 0.932472 0.932055 0.931645 0.931285 0.93101 0.930868 0.930921 0.931293 0.932164 0.933693 0.936026 0.939385 0.943476 0.950402 0.954401 0.950504 0.943816 0.937732 0.933597 0.931087 0.929694 0.92897 0.928599 0.928384 0.928184 0.927906 0.927418 0.926517 0.924858 0.921855 0.916528 0.90729 0.891692 0.866227 0.826385 0.767273 0.685041 0.579143 0.454851 0.324391 0.205918 0.114304 0.0552363 0.0237614 0.00948171 0.003639 0.00137124 0.000511982 0.000190068 7.02344e-05 2.5837e-05 9.46008e-06 3.4463e-06 1.24865e-06 4.49757e-07 1.60983e-07 5.7236e-08 2.02047e-08 7.08002e-09 2.46156e-09 8.47719e-10 2.90318e-10 9.75333e-11 3.40065e-11 1.04764e-11 3.14977e-12 -3.42925e-13 2.88901e-13 -1.02756e-13 -4.50391e-13 1.6261e-12 -3.65908e-13 -2.94913e-13 -3.04913e-13 -1.17191e-13 -5.43743e-13 7.56899e-13 -2.79456e-13 -7.15474e-13 8.3362e-13 1.66948e-13 -2.39509e-13 5.57303e-13 1.50815e-13 3.55896e-13 1.1351e-13 1.27731e-13 0
				</DataArray>
				<DataArray Name="VitesseY" type="Float32" format="ascii">