<?xml version="1.0"?>
<VTKFile type="PolyData">
	<PolyData>
		<Piece NumberOfPoints="1206" NumberOfPolys="1000">
			<Points>
				<DataArray type="Float32" NumberOfComponents="3" format="ascii">
 0 0 0 0.005 0 0 0.01 0 0 0.015 0 0 0.02 0 0 0.025 0 0 0.03 0 0 0.035 0 0 0.04 0 0 0.045 0 0 0.05 0 0 0.055 0 0 0.06 0 0 0.065 0 0 0.07 0 0 0.075 0 0 0.08 0 0 0.085 0 0 0.09 0 0 0.095 0 0 0.1 0 0 0.105 0 0 0.11 0 0 0.115 0 0 0.12 0 0 0.125 0 0 0.13 0 0 0.135 0 0 0.14 0 0 0.145 0 0 0.15 0 0 0.155 0 0 0.16 0 0 0.165 0 0 0.17 0 0 0.175 0 0 0.18 0 0 0.185 0 0 0.19 0 0 0.195 0 0 0.2 0 0 0.205 0 0 0.21 0 0 0.215 0 0 0.22 0 0 0.225 0 0 0.23 0 0 0.235 0 0 0.24 0 0 0.245 0 0 0.25 0 0 0.255 0 0 0.26 0 0 0.265 0 0 0.27 0 0 0.275 0 0 0.28 0 0 0.285 0 0 0.29 0 0 0.295 0 0 0.3 0 0 0.305 0 0 0.31 0 0 0.315 0 0 0.32 0 0 0.325 0 0 0.33 0 0 0.335 0 0 0.34 0 0 0.345 0 0 0.35 0 0 0.355 0 0 0.36 0 0 0.365 0 0 0.37 0 0 0.375 0 0 0.38 0 0 0.385 0 0 0.39 0 0 0.395 0 0 0.4 0 0 0.405 0 0 0.41 0 0 0.415 0 0 0.42 0 0 0.425 0 0 0.43 0 0 0.435 0 0 0.44 0 0 0.445 0 0 0.45 0 0 0.455 0 0 0.46 0 0 0.465 0 0 0.47 0 0 0.475 0 0 0.48 0 0 0.485 0 0 0.49 0 0 0.495 0 0 0.5 0 0 0.505 0 0 0.51 0 0 0.515 0 0 0.52 0 0 0.525 0 0 0.53 0 0 0.535 0 0 0.54 0 0 0.545 0 0 0.55 0 0 0.555 0 0 0.56 0 0 0.565 0 0 0.57 0 0 0.575 0 0 0.58 0 0 0.585 0 0 0.59 0 0 0.595 0 0 0.6 0 0 0.605 0 0 0.61 0 0 0.615 0 0 0.62 0 0 0.625 0 0 0.63 0 0 0.635 0 0 0.64 0 0 0.645 0 0 0.65 0 0 0.655 0 0 0.66 0 0 0.665 0 0 0.67 0 0 0.675 0 0 0.68 0 0 0.685 0 0 0.69 0 0 0.695 0 0 0.7 0 0 0.705 0 0 0.71 0 0 0.715 0 0 0.72 0 0 0.725 0 0 0.73 0 0 0.735 0 0 0.74 0 0 0.745 0 0 0.75 0 0 0.755 0 0 0.76 0 0 0.765 0 0 0.77 0 0 0.775 0 0 0.78 0 0 0.785 0 0 0.79 0 0 0.795 0 0 0.8 0 0 0.805 0 0 0.81 0 0 0.815 0 0 0.82 0 0 0.825 0 0 0.83 0 0 0.835 0 0 0.84 0 0 0.845 0 0 0.85 0 0 0.855 0 0 0.86 0 0 0.865 0 0 0.87 0 0 0.875 0 0 0.88 0 0 0.885 0 0 0.89 0 0 0.895 0 0 0.9 0 0 0.905 0 0 0.91 0 0 0.915 0 0 0.92 0 0 0.925 0 0 0.93 0 0 0.935 0 0 0.94 0 0 0.945 0 0 0.95 0 0 0.955 0 0 0.96 0 0 0.965 0 0 0.97 0 0 0.975 0 0 0.98 0 0 0.985 0 0 0.99 0 0 0.995 0 0 1 0 0 0 0.02 0 0.005 0.02 0 0.01 0.02 0 0.015 0.02 0 0.02 0.02 0 0.025 0.02 0 0.03 0.02 0 0.035 0.02 0 0.04 0.02 0 0.045 0.02 0 0.05 0.02 0 0.055 0.02 0 0.06 0.02 0 0.065 0.02 0 0.07 0.02 0 0.075 0.02 0 0.08 0.02 0 0.085 0.02 0 0.09 0.02 0 0.095 0.02 0 0.1 0.02 0 0.105 0.02 0 0.11 0.02 0 0.115 0.02 0 0.12 0.02 0 0.125 0.02 0 0.13 0.02 0 0.135 0.02 0 0.14 0.02 0 0.145 0.02 0 0.15 0.02 0 0.155 0.02 0 0.16 0.02 0 0.165 0.02 0 0.17 0.02 0 0.175 0.02 0 0.18 0.02 0 0.185 0.02 0 0.19 0.02 0 0.195 0.02 0 0.2 0.02 0 0.205 0.02 0 0.21 0.02 0 0.215 0.02 0 0.22 0.02 0 0.225 0.02 0 0.23 0.02 0 0.235 0.02 0 0.24 0.02 0 0.245 0.02 0 0.25 0.02 0 0.255 0.02 0 0.26 0.02 0 0.265 0.02 0 0.27 0.02 0 0.275 0.02 0 0.28 0.02 0 0.285 0.02 0 0.29 0.02 0 0.295 0.02 0 0.3 0.02 0 0.305 0.02 0 0.31 0.02 0 0.315 0.02 0 0.32 0.02 0 0.325 0.02 0 0.33 0.02 0 0.335 0.02 0 0.34 0.02 0 0.345 0.02 0 0.35 0.02 0 0.355 0.02 0 0.36 0.02 0 0.365 0.02 0 0.37 0.02 0 0.375 0.02 0 0.38 0.02 0 0.385 0.02 0 0.39 0.02 0 0.395 0.02 0 0.4 0.02 0 0.405 0.02 0 0.41 0.02 0 0.415 0.02 0 0.42 0.02 0 0.425 0.02 0 0.43 0.02 0 0.435 0.02 0 0.44 0.02 0 0.445 0.02 0 0.45 0.02 0 0.455 0.02 0 0.46 0.02 0 0.465 0.02 0 0.47 0.02 0 0.475 0.02 0 0.48 0.02 0 0.485 0.02 0 0.49 0.02 0 0.495 0.02 0 0.5 0.02 0 0.505 0.02 0 0.51 0.02 0 0.515 0.02 0 0.52 0.02 0 0.525 0.02 0 0.53 0.02 0 0.535 0.02 0 0.54 0.02 0 0.545 0.02 0 0.55 0.02 0 0.555 0.02 0 0.56 0.02 0 0.565 0.02 0 0.57 0.02 0 0.575 0.02 0 0.58 0.02 0 0.585 0.02 0 0.59 0.02 0 0.595 0.02 0 0.6 0.02 0 0.605 0.02 0 0.61 0.02 0 0.615 0.02 0 0.62 0.02 0 0.625 0.02 0 0.63 0.02 0 0.635 0.02 0 0.64 0.02 0 0.645 0.02 0 0.65 0.02 0 0.655 0.02 0 0.66 0.02 0 0.665 0.02 0 0.67 0.02 0 0.675 0.02 0 0.68 0.02 0 0.685 0.02 0 0.69 0.02 0 0.695 0.02 0 0.7 0.02 0 0.705 0.02 0 0.71 0.02 0 0.715 0.02 0 0.72 0.02 0 0.725 0.02 0 0.73 0.02 0 0.735 0.02 0 0.74 0.02 0 0.745 0.02 0 0.75 0.02 0 0.755 0.02 0 0.76 0.02 0 0.765 0.02 0 0.77 0.02 0 0.775 0.02 0 0.78 0.02 0 0.785 0.02 0 0.79 0.02 0 0.795 0.02 0 0.8 0.02 0 0.805 0.02 0 0.81 0.02 0 0.815 0.02 0 0.82 0.02 0 0.825 0.02 0 0.83 0.02 0 0.835 0.02 0 0.84 0.02 0 0.845 0.02 0 0.85 0.02 0 0.855 0.02 0 0.86 0.02 0 0.865 0.02 0 0.87 0.02 0 0.875 0.02 0 0.88 0.02 0 0.885 0.02 0 0.89 0.02 0 0.895 0.02 0 0.9 0.02 0 0.905 0.02 0 0.91 0.02 0 0.915 0.02 0 0.92 0.02 0 0.925 0.02 0 0.93 0.02 0 0.935 0.02 0 0.94 0.02 0 0.945 0.02 0 0.95 0.02 0 0.955 0.02 0 0.96 0.02 0 0.965 0.02 0 0.97 0.02 0 0.975 0.02 0 0.98 0.02 0 0.985 0.02 0 0.99 0.02 0 0.995 0.02 0 1 0.02 0 0 0.04 0 0.005 0.04 0 0.01 0.04 0 0.015 0.04 0 0.02 0.04 0 0.025 0.04 0 0.03 0.04 0 0.035 0.04 0 0.04 0.04 0 0.045 0.04 0 0.05 0.04 0 0.055 0.04 0 0.06 0.04 0 0.065 0.04 0 0.07 0.04 0 0.075 0.04 0 0.08 0.04 0 0.085 0.04 0 0.09 0.04 0 0.095 0.04 0 0.1 0.04 0 0.105 0.04 0 0.11 0.04 0 0.115 0.04 0 0.12 0.04 0 0.125 0.04 0 0.13 0.04 0 0.135 0.04 0 0.14 0.04 0 0.145 0.04 0 0.15 0.04 0 0.155 0.04 0 0.16 0.04 0 0.165 0.04 0 0.17 0.04 0 0.175 0.04 0 0.18 0.04 0 0.185 0.04 0 0.19 0.04 0 0.195 0.04 0 0.2 0.04 0 0.205 0.04 0 0.21 0.04 0 0.215 0.04 0 0.22 0.04 0 0.225 0.04 0 0.23 0.04 0 0.235 0.04 0 0.24 0.04 0 0.245 0.04 0 0.25 0.04 0 0.255 0.04 0 0.26 0.04 0 0.265 0.04 0 0.27 0.04 0 0.275 0.04 0 0.28 0.04 0 0.285 0.04 0 0.29 0.04 0 0.295 0.04 0 0.3 0.04 0 0.305 0.04 0 0.31 0.04 0 0.315 0.04 0 0.32 0.04 0 0.325 0.04 0 0.33 0.04 0 0.335 0.04 0 0.34 0.04 0 0.345 0.04 0 0.35 0.04 0 0.355 0.04 0 0.36 0.04 0 0.365 0.04 0 0.37 0.04 0 0.375 0.04 0 0.38 0.04 0 0.385 0.04 0 0.39 0.04 0 0.395 0.04 0 0.4 0.04 0 0.405 0.04 0 0.41 0.04 0 0.415 0.04 0 0.42 0.04 0 0.425 0.04 0 0.43 0.04 0 0.435 0.04 0 0.44 0.04 0 0.445 0.04 0 0.45 0.04 0 0.455 0.04 0 0.46 0.04 0 0.465 0.04 0 0.47 0.04 0 0.475 0.04 0 0.48 0.04 0 0.485 0.04 0 0.49 0.04 0 0.495 0.04 0 0.5 0.04 0 0.505 0.04 0 0.51 0.04 0 0.515 0.04 0 0.52 0.04 0 0.525 0.04 0 0.53 0.04 0 0.535 0.04 0 0.54 0.04 0 0.545 0.04 0 0.55 0.04 0 0.555 0.04 0 0.56 0.04 0 0.565 0.04 0 0.57 0.04 0 0.575 0.04 0 0.58 0.04 0 0.585 0.04 0 0.59 0.04 0 0.595 0.04 0 0.6 0.04 0 0.605 0.04 0 0.61 0.04 0 0.615 0.04 0 0.62 0.04 0 0.625 0.04 0 0.63 0.04 0 0.635 0.04 0 0.64 0.04 0 0.645 0.04 0 0.65 0.04 0 0.655 0.04 0 0.66 0.04 0 0.665 0.04 0 0.67 0.04 0 0.675 0.04 0 0.68 0.04 0 0.685 0.04 0 0.69 0.04 0 0.695 0.04 0 0.7 0.04 0 0.705 0.04 0 0.71 0.04 0 0.715 0.04 0 0.72 0.04 0 0.725 0.04 0 0.73 0.04 0 0.735 0.04 0 0.74 0.04 0 0.745 0.04 0 0.75 0.04 0 0.755 0.04 0 0.76 0.04 0 0.765 0.04 0 0.77 0.04 0 0.775 0.04 0 0.78 0.04 0 0.785 0.04 0 0.79 0.04 0 0.795 0.04 0 0.8 0.04 0 0.805 0.04 0 0.81 0.04 0 0.815 0.04 0 0.82 0.04 0 0.825 0.04 0 0.83 0.04 0 0.835 0.04 0 0.84 0.04 0 0.845 0.04 0 0.85 0.04 0 0.855 0.04 0 0.86 0.04 0 0.865 0.04 0 0.87 0.04 0 0.875 0.04 0 0.88 0.04 0 0.885 0.04 0 0.89 0.04 0 0.895 0.04 0 0.9 0.04 0 0.905 0.04 0 0.91 0.04 0 0.915 0.04 0 0.92 0.04 0 0.925 0.04 0 0.93 0.04 0 0.935 0.04 0 0.94 0.04 0 0.945 0.04 0 0.95 0.04 0 0.955 0.04 0 0.96 0.04 0 0.965 0.04 0 0.97 0.04 0 0.975 0.04 0 0.98 0.04 0 0.985 0.04 0 0.99 0.04 0 0.995 0.04 0 1 0.04 0 0 0.06 0 0.005 0.06 0 0.01 0.06 0 0.015 0.06 0 0.02 0.06 0 0.025 0.06 0 0.03 0.06 0 0.035 0.06 0 0.04 0.06 0 0.045 0.06 0 0.05 0.06 0 0.055 0.06 0 0.06 0.06 0 0.065 0.06 0 0.07 0.06 0 0.075 0.06 0 0.08 0.06 0 0.085 0.06 0 0.09 0.06 0 0.095 0.06 0 0.1 0.06 0 0.105 0.06 0 0.11 0.06 0 0.115 0.06 0 0.12 0.06 0 0.125 0.06 0 0.13 0.06 0 0.135 0.06 0 0.14 0.06 0 0.145 0.06 0 0.15 0.06 0 0.155 0.06 0 0.16 0.06 0 0.165 0.06 0 0.17 0.06 0 0.175 0.06 0 0.18 0.06 0 0.185 0.06 0 0.19 0.06 0 0.195 0.06 0 0.2 0.06 0 0.205 0.06 0 0.21 0.06 0 0.215 0.06 0 0.22 0.06 0 0.225 0.06 0 0.23 0.06 0 0.235 0.06 0 0.24 0.06 0 0.245 0.06 0 0.25 0.06 0 0.255 0.06 0 0.26 0.06 0 0.265 0.06 0 0.27 0.06 0 0.275 0.06 0 0.28 0.06 0 0.285 0.06 0 0.29 0.06 0 0.295 0.06 0 0.3 0.06 0 0.305 0.06 0 0.31 0.06 0 0.315 0.06 0 0.32 0.06 0 0.325 0.06 0 0.33 0.06 0 0.335 0.06 0 0.34 0.06 0 0.345 0.06 0 0.35 0.06 0 0.355 0.06 0 0.36 0.06 0 0.365 0.06 0 0.37 0.06 0 0.375 0.06 0 0.38 0.06 0 0.385 0.06 0 0.39 0.06 0 0.395 0.06 0 0.4 0.06 0 0.405 0.06 0 0.41 0.06 0 0.415 0.06 0 0.42 0.06 0 0.425 0.06 0 0.43 0.06 0 0.435 0.06 0 0.44 0.06 0 0.445 0.06 0 0.45 0.06 0 0.455 0.06 0 0.46 0.06 0 0.465 0.06 0 0.47 0.06 0 0.475 0.06 0 0.48 0.06 0 0.485 0.06 0 0.49 0.06 0 0.495 0.06 0 0.5 0.06 0 0.505 0.06 0 0.51 0.06 0 0.515 0.06 0 0.52 0.06 0 0.525 0.06 0 0.53 0.06 0 0.535 0.06 0 0.54 0.06 0 0.545 0.06 0 0.55 0.06 0 0.555 0.06 0 0.56 0.06 0 0.565 0.06 0 0.57 0.06 0 0.575 0.06 0 0.58 0.06 0 0.585 0.06 0 0.59 0.06 0 0.595 0.06 0 0.6 0.06 0 0.605 0.06 0 0.61 0.06 0 0.615 0.06 0 0.62 0.06 0 0.625 0.06 0 0.63 0.06 0 0.635 0.06 0 0.64 0.06 0 0.645 0.06 0 0.65 0.06 0 0.655 0.06 0 0.66 0.06 0 0.665 0.06 0 0.67 0.06 0 0.675 0.06 0 0.68 0.06 0 0.685 0.06 0 0.69 0.06 0 0.695 0.06 0 0.7 0.06 0 0.705 0.06 0 0.71 0.06 0 0.715 0.06 0 0.72 0.06 0 0.725 0.06 0 0.73 0.06 0 0.735 0.06 0 0.74 0.06 0 0.745 0.06 0 0.75 0.06 0 0.755 0.06 0 0.76 0.06 0 0.765 0.06 0 0.77 0.06 0 0.775 0.06 0 0.78 0.06 0 0.785 0.06 0 0.79 0.06 0 0.795 0.06 0 0.8 0.06 0 0.805 0.06 0 0.81 0.06 0 0.815 0.06 0 0.82 0.06 0 0.825 0.06 0 0.83 0.06 0 0.835 0.06 0 0.84 0.06 0 0.845 0.06 0 0.85 0.06 0 0.855 0.06 0 0.86 0.06 0 0.865 0.06 0 0.87 0.06 0 0.875 0.06 0 0.88 0.06 0 0.885 0.06 0 0.89 0.06 0 0.895 0.06 0 0.9 0.06 0 0.905 0.06 0 0.91 0.06 0 0.915 0.06 0 0.92 0.06 0 0.925 0.06 0 0.93 0.06 0 0.935 0.06 0 0.94 0.06 0 0.945 0.06 0 0.95 0.06 0 0.955 0.06 0 0.96 0.06 0 0.965 0.06 0 0.97 0.06 0 0.975 0.06 0 0.98 0.06 0 0.985 0.06 0 0.99 0.06 0 0.995 0.06 0 1 0.06 0 0 0.08 0 0.005 0.08 0 0.01 0.08 0 0.015 0.08 0 0.02 0.08 0 0.025 0.08 0 0.03 0.08 0 0.035 0.08 0 0.04 0.08 0 0.045 0.08 0 0.05 0.08 0 0.055 0.08 0 0.06 0.08 0 0.065 0.08 0 0.07 0.08 0 0.075 0.08 0 0.08 0.08 0 0.085 0.08 0 0.09 0.08 0 0.095 0.08 0 0.1 0.08 0 0.105 0.08 0 0.11 0.08 0 0.115 0.08 0 0.12 0.08 0 0.125 0.08 0 0.13 0.08 0 0.135 0.08 0 0.14 0.08 0 0.145 0.08 0 0.15 0.08 0 0.155 0.08 0 0.16 0.08 0 0.165 0.08 0
[...]
			<PointData Scalars="VitesseX">
				<DataArray Name="VitesseX" type="Float32" format="ascii">
 0 2.259e-14 -3.27041e-14 6.37487e-14 -3.74118e-14 -4.01146e-14 -9.63606e-14 2.41407e-14 -4.4959e-14 2.90138e-14 -3.96938e-14 -1.49447e-13 1.67246e-13 -2.61261e-13 4.19062e-14 -3.94377e-14 -9.70549e-14 1.4424e-13 -1.08552e-13 -2.85279e-14 -1.58587e-14 6.81427e-14 4.66185e-14 -2.21099e-13 -2.42705e-13 -1.68287e-14 2.8981e-13 2.31913e-13 -1.77063e-13 -1.97226e-14 -4.26213e-13 -7.4645e-14 1.29855e-14 2.02664e-13 2.3723e-14 -1.66869e-13 2.67107e-13 -2.82446e-13 -4.41224e-14 -3.31656e-13 2.33902e-13 2.63948e-14 2.85006e-14 -3.73865e-13 9.15437e-14 5.20773e-14 7.93812e-13 -6.51393e-13 -3.61306e-14 -5.02747e-13 -8.1299e-14 6.0597e-13 -4.62435e-13 1.87932e-13 -9.89633e-13 3.51329e-13 8.55964e-13 -7.57285e-13 7.44106e-13 -6.16362e-13 -1.90032e-14 2.27533e-13 -3.73147e-13 5.25317e-13 -2.38197e-13 -1.01629e-13 3.039e-15 -5.40895e-13 6.2778e-13 -8.92908e-14 -9.46255e-14 4.01292e-13 -1.38203e-12 9.49558e-13 -1.04897e-13 1.62032e-13 -2.7416e-13 -3.78243e-13 1.17584e-12 -7.17866e-13 1.67361e-13 2.00621e-13 -5.37031e-13 6.69888e-14 -7.74739e-13 1.13391e-12 2.40262e-12 6.37798e-11 1.92665e-09 4.82416e-08 9.95974e-07 1.65757e-05 0.000215828 0.00210951 0.0145927 0.0662701 0.187179 0.348614 0.507241 0.623316 0.739734 0.82037 0.898931 0.999523 0.98625 0.906754 0.78704 0.638322 0.465129 0.289576 0.146648 0.057279 0.0172906 0.00436084 0.000988953 0.000208233 4.11265e-05 7.64569e-06 1.34043e-06 2.21952e-07 3.47585e-08 5.1551e-09 7.25686e-10 9.67976e-11 1.27581e-11 1.27619e-12 -9.32309e-13 7.52474e-13 9.55275e-14 5.56777e-13 -1.64814e-13 -1.08078e-12 5.38382e-13 1.82973e-13 8.20474e-14 -7.51264e-13 -1.5846e-12 2.92901e-13 6.10209e-13 2.53762e-13 -2.62168e-13 -3.70937e-13 -5.94565e-13 -2.89871e-13 1.48336e-12 2.55641e-13 -3.6871e-13 4.44969e-13 8.94231e-14 1.20263e-12 -7.75217e-13 -2.76803e-13 1.1743e-13 -3.70579e-13 1.01233e-12 -7.52479e-14 -1.18936e-12 2.38769e-13 5.3071e-13 1.04215e-12 -9.76309e-13 -1.75515e-12 2.28775e-13 9.87425e-13 6.87844e-13 -8.02517e-13 -1.17753e-12 6.01788e-13 9.01428e-14 -2.97064e-13 9.76761e-13 3.98075e-13 1.47734e-13 -1.19511e-12 4.86575e-14 1.10222e-12 1.39988e-13 2.73201e-14 -1.04794e-12 1.71465e-13 7.82524e-13 1.69281e-13 -2.41923e-13 -8.77338e-13 -3.87871e-13 4.86375e-13 -8.26774e-13 -7.40284e-13 -1.1353e-12 4.9043e-14 2.06644e-12 -1.12367e-12 -1.95186e-13 -1.71348e-12 2.25825e-12 1.94289e-13 -1.17087e-12 4.07929e-13 7.46787e-13 1.802e-12 0 0 -2.73476e-14 1.08487e-14 -4.44017e-14 -7.31051e-16 -4.0019e-16 -6.68517e-15 -8.27075e-14 -2.18065e-14 -7.93981e-14 -1.03453e-13 7.65919e-14 -1.53845e-13 8.73018e-14 -1.93392e-13 2.48203e-14 7.42636e-14 -2.50614e-13 8.71075e-14 3.9938e-14 5.87658e-14 -1.42344e-14 -1.23612e-13 -8.59448e-14 -1.09071e-13 -1.01183e-14 1.42933e-13 1.06599e-14 1.4222e-13 -1.84338e-13 -1.1401e-13 -3.65276e-13 -3.97206e-14 1.70846e-13 1.12817e-13 7.69959e-14 -2.94395e-13 6.68266e-15 -2.79357e-13 2.15641e-13 -1.81808e-14 -5.57872e-14 -4.90877e-14 5.58083e-14 -1.82467e-13 2.55526e-13 -3.89795e-13 3.56054e-13 -3.93391e-13 1.10712e-13 -1.43742e-13 -4.37345e-13 2.09548e-13 -5.93657e-13 4.25741e-13 1.24063e-13 -4.0982e-13 6.51443e-13 -5.52578e-13 3.84105e-13 -2.79026e-13 -1.14933e-13 5.32652e-13 -1.49304e-13 4.00468e-14 -1.2193e-13 -3.25505e-13 2.0279e-13 -3.08114e-14 -1.18691e-13 1.69479e-13 -5.73081e-13 3.90475e-13 -6.23508e-13 1.22543e-13 -1.59627e-13 3.17222e-13 2.66894e-13 -6.14295e-13 5.37623e-13 -4.24692e-13 3.30015e-14 4.12246e-13 -5.92404e-13 1.11709e-13 3.38925e-13 1.63277e-12 6.53715e-11 1.92726e-09 4.82399e-08 9.95974e-07 1.65757e-05 0.000215828 0.00210951 0.0145927 0.0662701 0.187179 0.348614 0.507241 0.623316 0.739734 0.82037 0.898931 0.999523 0.98625 0.906754 0.78704 0.638322 0.465129 0.289576 0.146648 0.057279 0.0172906 0.00436084 0.000988953 0.000208233 4.11265e-05 7.64569e-06 1.34043e-06 2.21951e-07 3.47592e-08 5.15533e-09 7.25026e-10 9.7057e-11 1.1856e-11 1.72998e-12 9.82925e-14 3.39241e-14 1.4947e-13 -2.49444e-13 9.01642e-14 2.33448e-14 5.49371e-14 -1.59774e-14 -4.27757e-13 -4.302e-13 -5.9132e-13 -4.22379e-13 5.12435e-13 3.67721e-13 -1.98342e-13 -1.74177e-13 -3.98116e-13 -1.57836e-13 -1.95632e-14 6.02047e-13 9.59197e-13 -2.78515e-13 1.59525e-13 -3.15127e-13 6.0555e-13 2.61315e-13 -5.8901e-13 3.21745e-13 -3.73675e-13 1.1218e-13 1.18711e-13 2.60774e-13 -2.56135e-13 -7.36446e-13 6.93708e-13 7.8285e-14 -1.33433e-13 -7.06827e-13 -5.82561e-13 5.88831e-13 -1.35297e-13 5.36781e-14 1.46276e-13 -6.12808e-14 6.2969e-14 2.20456e-13 -8.2745e-14 9.90473e-13 -5.11113e-13 -2.64108e-13 1.21402e-13 1.73568e-13 8.04568e-13 -5.76931e-13 -2.04885e-13 -8.03595e-14 -5.36122e-14 5.6678e-13 -7.92513e-13 -7.17753e-13 -5.4172e-13 -7.96895e-13 2.42932e-13 1.67255e-13 -8.80632e-13 9.03321e-13 -5.52163e-13 4.92675e-14 -1.26682e-12 1.94634e-13 1.57282e-12 1.75609e-13 1.03624e-12 -8.91716e-13 0 0 -1.71163e-14 -3.96399e-15 -7.62233e-15 -6.20207e-14 -1.02771e-14 5.69234e-15 -4.61492e-14 -1.26816e-13 -5.03935e-14 -4.47292e-14 -1.09975e-13 1.39639e-14 2.43912e-14 2.02587e-15 -6.73005e-14 -6.92606e-14 -6.52131e-17 -2.99319e-14 1.80695e-14 2.4242e-14 -6.8148e-14 -2.77131e-13 9.95114e-15 1.27489e-13 -4.70035e-15 -2.68672e-14 -3.24281e-15 5.39994e-14 -4.87428e-14 -2.858e-13 -1.56291e-13 -2.07616e-13 7.50241e-14 2.92282e-13 -9.87747e-15 -1.02792e-13 -2.2931e-13 2.58757e-14 -5.13043e-14 -1.09814e-13 -4.98623e-14 -4.62386e-14 1.35222e-13 4.63474e-14 -1.61247e-13 -1.46538e-13 -2.07429e-13 -5.20983e-14 -7.46716e-14 -3.76106e-14 -2.92557e-13 -3.34536e-13 1.91626e-13 4.45426e-13 -1.75032e-14 -5.53512e-13 -3.05977e-13 5.82439e-13 1.01478e-13 -1.27799e-14 -1.64919e-13 3.51656e-13 2.88763e-13 -1.23307e-13 -2.97549e-13 -2.40246e-13 1.39255e-13 1.53975e-13 -4.66111e-13 -4.80584e-13 3.78715e-13 1.89951e-13 -2.433e-13 -7.29444e-13 1.4595e-13 5.86128e-13 -1.76622e-13 -5.73884e-13 -4.91075e-13 7.51916e-13 -4.91704e-13 2.96879e-13 7.26954e-13 2.95395e-14 -9.93276e-13 1.6623e-12 6.56336e-11 1.92731e-09 4.82408e-08 9.95973e-07 1.65757e-05 0.000215828 0.00210951 0.0145927 0.0662701 0.187179 0.348614 0.507241 0.623316 0.739734 0.82037 0.898931 0.999523 0.98625 0.906754 0.78704 0.638322 0.465129 0.289576 0.146648 0.057279 0.0172906 0.00436084 0.000988953 0.000208233 4.11265e-05 7.64569e-06 1.34043e-06 2.21951e-07 3.47587e-08 5.15606e-09 7.24996e-10 9.63512e-11 1.20793e-11 8.77892e-13 1.39406e-12 7.77821e-14 -8.40159e-13 1.02187e-13 -6.79452e-13 1.30346e-12 -1.41163e-13 -3.3469e-13 -1.90707e-13 -1.07602e-12 7.31094e-13 -2.05491e-13 -1.01317e-12 1.93393e-13 -2.4787e-13 6.97088e-13 8.50351e-13 -1.15541e-12 -8.57954e-13 9.7709e-13 1.50706e-13 1.1412e-12 -6.11449e-13 -3.7828e-13 4.34616e-13 -1.31295e-13 7.41376e-13 -1.89378e-13 -4.43802e-13 -1.1135e-12 1.56035e-12 3.50209e-13 -2.01297e-13 -7.25906e-13 -2.59013e-13 1.03626e-12 -4.36508e-13 -8.83287e-13 -5.35737e-13 1.30718e-13 8.83174e-13 -6.28175e-13 -4.34462e-13 3.24397e-13 1.48359e-13 4.0283e-13 5.89487e-13 -3.11912e-13 -8.67955e-14 -6.99446e-13 9.06886e-13 7.29665e-13 -6.13208e-13 -2.79327e-13 -4.72451e-13 2.96859e-13 5.28264e-13 -4.15855e-13 -2.81874e-13 -1.1803e-12 -2.911e-13 -1.68512e-14 -7.09361e-13 6.13747e-13 -1.19143e-12 -1.14719e-13 1.65924e-12 -6.01214e-13 -1.9537e-12 6.47349e-13 1.25352e-12 1.50833e-12 -1.48593e-12 2.56532e-14 0 0 4.14659e-14 -9.18492e-15 -7.24097e-15 -1.34222e-14 -6.5876e-14 -1.18153e-13 -8.61661e-14 -7.1466e-14 -8.20656e-14 2.61891e-14 -4.3773e-14 1.04792e-13 -8.81542e-14 -6.70228e-14 -3.01886e-14 -1.49924e-13 2.07567e-14 3.12155e-15 -9.85026e-14 -1.95997e-13 -3.28121e-15 1.20847e-13 -1.23275e-15 -1.49206e-13 9.77432e-14 1.68927e-13 -1.42217e-13 -1.92254e-13 5.30515e-14 -1.43762e-13 -2.43804e-13 7.39065e-15 7.16968e-14 1.91146e-15 7.73719e-14 2.28947e-13 -5.61975e-14 -1.48555e-13 -3.43721e-13 -1.51832e-13 -3.76482e-14 2.62459e-14 -2.04968e-13 2.81634e-13 2.01213e-13 1.43821e-13 -6.18574e-13 -3.48342e-13 -4.80162e-13 7.31304e-14 5.15664e-13 -2.05583e-14 -3.44521e-13 -2.60152e-13 3.10385e-13 -1.3385e-14 4.47097e-14 1.90113e-13 -4.63945e-13 -2.19514e-13 1.63116e-13 2.12378e-13 3.26262e-13 -6.1495e-14 -2.28663e-13 -4.84389e-13 -4.81354e-14 2.71437e-13 5.0003e-13 -2.73664e-13 -2.97937e-15 -4.99578e-13 2.71237e-14 4.10782e-14 4.22017e-14 -5.39415e-13 -1.73768e-13 -1.27819e-13 -4.655e-13 -4.55159e-14 2.31482e-13 2.31571e-13 -3.41192e-13 -2.22174e-14 3.25483e-13 1.44575e-12 6.41666e-11 1.92684e-09 4.82425e-08 9.95974e-07 1.65757e-05 0.000215828 0.00210951 0.0145927 0.0662701 0.187179 0.348614 0.507241 0.623316 0.739734 0.82037 0.898931 0.999523 0.98625 0.906754 0.78704 0.638322 0.465129 0.289576 0.146648 0.057279 0.0172906 0.00436084 0.000988953 0.000208233 4.11265e-05 7.64569e-06 1.34043e-06 2.21951e-07 3.47585e-08 5.15553e-09 7.25105e-10 9.68691e-11 1.20818e-11 1.49262e-12 -5.9761e-15 4.27075e-13 -7.70568e-14 -2.01495e-13 -1.46586e-13 2.84919e-14 7.64774e-14 1.37768e-13 -3.53195e-13 -3.96711e-13 -4.27275e-13 -2.93277e-13 -5.5645e-13 -1.04712e-12 4.5629e-13 1.52404e-12 -4.94246e-13 4.01281e-14 -5.04699e-13 1.46659e-13 2.26588e-13 5.99459e-13 1.94342e-14 -5.2361e-13 -5.95391e-13 1.20622e-12 6.97414e-13 1.48426e-13 -4.67746e-13 -9.59376e-13 -1.76413e-13 -1.77728e-13 9.90686e-13 8.75917e-13 -6.91795e-13 -1.20178e-12 -7.56084e-13 7.5379e-13 -4.08471e-13 -1.12911e-12 2.34251e-13 1.09912e-12 1.36358e-13 -1.00705e-12 1.00498e-13 1.23275e-12 2.69828e-13 -1.09008e-12 -2.98707e-13 5.63077e-13 1.08058e-12 1.03567e-14 -1.38172e-12 -2.84088e-13 3.75703e-13 1.48846e-12 -5.66668e-13 -1.19029e-12 -6.28901e-13 -1.23889e-13 2.13559e-13 -1.46455e-12 -9.83765e-13 -4.14708e-13 2.98823e-12 6.40618e-13 -2.13678e-12 -1.75968e-12 4.94506e-13 1.12855e-12 -1.80091e-13 -2.42386e-14 2.2346e-13 7.75225e-13 0 0 1.01114e-14 1.108e-14 -4.86853e-14 1.91892e-14 -8.27562e-14 -1.04928e-13 -1.70214e-13 -3.90274e-14 -7.13516e-14 -2.04639e-14 1.33504e-13 -1.74237e-13 -8.81533e-15 -1.65502e-13 4.40302e-14 3.08819e-14 -2.64188e-13 4.19211e-14 1.67811e-15 -1.45544e-13 -2.35746e-14 1.01623e-13 -1.16047e-13 -2.40597e-13 3.09124e-14 2.25522e-14 -2.08118e-13 -3.61846e-14 -1.05453e-13 1.44503e-13 -2.08954e-13 1.29973e-13 1.81682e-13 8.80117e-14 2.81708e-13 2.20523e-14 6.53612e-14 -2.9744e-13 -1.17869e-13 -3.71538e-13 -2.05737e-13 -1.23875e-13 -6.78574e-14 -2.4046e-14 2.91279e-13 -3.39577e-13 3.60374e-14 -5.89964e-13 -1.71637e-14 -6.47498e-14 -9.23783e-14 1.45288e-13 -6.82302e-13 1.92469e-13 3.1838e-13 -3.57603e-13 7.66701e-13 -6.43285e-13 2.01718e-13 -4.11989e-13 1.10604e-13 6.03956e-13 -1.7761e-13 1.75786e-13 -1.51124e-13 -5.92872e-13 7.29434e-14 8.94613e-14 5.06548e-13 3.28441e-13 -2.58559e-13 4.36956e-13 -6.93271e-13 3.32247e-13 -4.04335e-13 -7.2086e-13 1.17626e-13 -9.83772e-13 5.36803e-14 -6.43918e-13 3.49731e-13 1.04843e-14 -1.43376e-12 2.81271e-13 9.64602e-13 1.33675e-12 6.4728e-11 1.92721e-09 4.82404e-08 9.95975e-07 1.65757e-05 0.000215828 0.00210951 0.0145927 0.0662701 0.187179 0.348614 0.507241 0.623316 0.739734 0.82037 0.898931 0.999523 0.98625 0.906754 0.78704 0.638322 0.465129 0.289576 0.146648 0.057279 0.0172906 0.00436084 0.000988953 0.000208233 4.11265e-05 7.64569e-06 1.34043e-06 2.21951e-07 3.47591e-08 5.15481e-09 7.25007e-10 9.7269e-11 1.21963e-11 2.22919e-12 -4.9966e-13 -5.45511e-13 3.1395e-13 -2.404e-13 7.18065e-13 -5.3904e-13 1.92965e-13 -4.61317e-13 -3.06125e-13 4.17064e-13 -1.0422e-12 -1.225e-12 1.5951e-14 -2.69653e-13 7.71923e-13 3.91757e-13 -1.38163e-12 4.56709e-13 3.44306e-13 6.0013e-13 1.28937e-12 -4.27689e-13 6.97029e-13 -6.04977e-13 8.52372e-14 7.33473e-13 -7.67319e-13 2.93616e-13 -5.27212e-13 -2.30982e-13 -1.31666e-12 -9.15981e-13 7.7504e-14 1.34297e-12 1.33678e-12 -1.60332e-12 -1.38813e-12 -1.7626e-12 -1.02812e-12 4.07468e-13 7.90636e-13 1.52298e-12 8.15615e-14 -1.04287e-12 -8.68456e-13 2.66372e-13 5.03731e-13 1.41044e-12 3.92774e-14 -2.14428e-14 -1.14392e-12 -3.40981e-13 1.30436e-12 4.13042e-13 -3.16923e-13 -2.41248e-13 -7.55335e-13 8.38478e-13 -3.83229e-13 -3.53387e-13 -1.41645e-12 -2.64307e-12 5.39172e-13 9.46827e-13 2.82519e-12 9.38593e-14 -3.09541e-12 -9.49894e-13 -4.55972e-13 1.18211e-12 1.50564e-12 -2.55716e-13 1.78227e-12 -1.04046e-12 0 0 -1.96564e-14 -2.17996e-14 5.44187e-14 -9.47684e-14 -9.36289e-14 -4.51552e-14 -7.08386e-14 -1.90101e-13 1.08451e-13 -1.55524e-14 -1.68028e-13 -5.51969e-14 -2.28404e-13 2.35783e-13 -7.52416e-14 -2.24912e-14 7.54492e-14 -2.65032e-13 1.28097e-13 1.60004e-14 -8.02713e-14 -2.98867e-13 -2.58934e-13 4.76322e-14 -1.39654e-13 -3.4254e-13 7.23056e-14 -4.13653e-14 -6.55419e-14 -1.93262e-13 4.13025e-13 -7.76397e-14 2.30991e-13 5.54853e-13 6.80563e-14 2.36522e-13 -5.11315e-13 2.68574e-13 -4.13844e-13 -3.88777e-13 -2.97934e-13 -2.66043e-13 5.91851e-14 -6.21885e-14 -6.01335e-13 3.1353e-13 -4.69137e-13 1.63211e-13 5.24826e-14 -1.44798e-13 -3.20537e-13 -1.21891e-12 1.08294e-12 -4.50212e-14 8.41873e-14 -1.19854e-13 -1.22814e-12 1.34734e-12 1.49709e-13 1.28538e-13 2.25383e-14 4.80171e-14 3.93707e-13 -9.03426e-14 -2.97789e-13 -4.34077e-14 -4.25808e-13 6.33402e-13 -7.71095e-13 -1.90542e-13 1.79373e-12 8.99917e-14 2.69186e-13 -1.22653e-12 -1.19887e-13 -9.92366e-14 -6.82488e-13 -4.55248e-13 -1.7369e-12 1.32377e-12 -6.12291e-13 -1.20994e-12 5.20578e-13 -3.32103e-13 -2.52253e-13 2.24369e-12 6.54268e-11 1.92751e-09 4.82393e-08 9.95974e-07 1.65757e-05 0.000215828 0.00210951 0.0145927 0.0662701 0.187179 0.348614 0.507241 0.623316 0.739734 0.82037 0.898931 0.999523 0.98625 0.906754 0.78704 0.638322 0.465129 0.289576 0.146648 0.057279 0.0172906 0.00436084 0.000988953 0.000208233 4.11265e-05 7.64569e-06 1.34043e-06 2.21953e-07 3.47589e-08 5.15512e-09 7.25431e-10 9.61857e-11 1.34338e-11 1.04517e-12 6.71865e-13 -1.10498e-12 -1.10172e-12 1.18223e-12 2.52568e-14 3.44393e-13 3.79159e-13 -1.65262e-12 6.50286e-13 -4.15345e-13 -1.69631e-13 -1.13677e-12 -1.2962e-12 1.46005e-12 2.70042e-13 -8.92971e-13 1.276e-13 -1.45186e-12 1.50459e-12 1.91267e-12 1.39865e-13 1.23011e-12 -9.73357e-14 9.13591e-13 2.44172e-13 -2.00752e-12 -1.51263e-13 -1.10245e-12 7.53147e-13 -1.06982e-12 -5.86576e-13 -1.05887e-12 -1.18598e-12 1.99735e-12 1.17539e-12 -6.42294e-13 -1.64147e-12 -4.39827e-12 -4.57815e-13 1.35441e-12 1.97218e-12 8.57982e-14 -1.18093e-12 4.02639e-13 -7.90367e-13 -1.16994e-12 1.96e-12 1.20115e-12 1.57326e-12 -9.37494e-13 -2.73803e-12 4.36838e-13 1.48868e-12 2.16093e-12 -1.13786e-12 -2.53571e-12 5.44493e-13 1.21492e-12 1.12475e-12 -8.97714e-13 -3.58555e-12 -1.53724e-12 5.98952e-15 3.6651e-12 1.11876e-12 -4.25327e-12 2.31037e-12 -1.39487e-12 -1.01647e-12 1.20684e-12 1.56198e-12 2.61042e-12 -1.17992e-12 5.36482e-15 0
				</DataArray>
				<DataArray Name="VitesseY" type="Float32" format="ascii">