<?xml version="1.0"?>
<VTKFile type="PolyData">
	<PolyData>
		<Piece NumberOfPoints="2601" NumberOfPolys="2500">
			<Points>
				<DataArray type="Float32" NumberOfComponents="3" format="ascii">
 0 0 0 0.02 0 0 0.04 0 0 0.06 0 0 0.08 0 0 0.1 0 0 0.12 0 0 0.14 0 0 0.16 0 0 0.18 0 0 0.2 0 0 0.22 0 0 0.24 0 0 0.26 0 0 0.28 0 0 0.3 0 0 0.32 0 0 0.34 0 0 0.36 0 0 0.38 0 0 0.4 0 0 0.42 0 0 0.44 0 0 0.46 0 0 0.48 0 0 0.5 0 0 0.52 0 0 0.54 0 0 0.56 0 0 0.58 0 0 0.6 0 0 0.62 0 0 0.64 0 0 0.66 0 0 0.68 0 0 0.7 0 0 0.72 0 0 0.74 0 0 0.76 0 0 0.78 0 0 0.8 0 0 0.82 0 0 0.84 0 0 0.86 0 0 0.88 0 0 0.9 0 0 0.92 0 0 0.94 0 0 0.96 0 0 0.98 0 0 1 0 0 0 0.02 0 0.02 0.02 0 0.04 0.02 0 0.06 0.02 0 0.08 0.02 0 0.1 0.02 0 0.12 0.02 0 0.14 0.02 0 0.16 0.02 0 0.18 0.02 0 0.2 0.02 0 0.22 0.02 0 0.24 0.02 0 0.26 0.02 0 0.28 0.02 0 0.3 0.02 0 0.32 0.02 0 0.34 0.02 0 0.36 0.02 0 0.38 0.02 0 0.4 0.02 0 0.42 0.02 0 0.44 0.02 0 0.46 0.02 0 0.48 0.02 0 0.5 0.02 0 0.52 0.02 0 0.54 0.02 0 0.56 0.02 0 0.58 0.02 0 0.6 0.02 0 0.62 0.02 0 0.64 0.02 0 0.66 0.02 0 0.68 0.02 0 0.7 0.02 0 0.72 0.02 0 0.74 0.02 0 0.76 0.02 0 0.78 0.02 0 0.8 0.02 0 0.82 0.02 0 0.84 0.02 0 0.86 0.02 0 0.88 0.02 0 0.9 0.02 0 0.92 0.02 0 0.94 0.02 0 0.96 0.02 0 0.98 0.02 0 1 0.02 0 0 0.04 0 0.02 0.04 0 0.04 0.04 0 0.06 0.04 0 0.08 0.04 0 0.1 0.04 0 0.12 0.04 0 0.14 0.04 0 0.16 0.04 0 0.18 0.04 0 0.2 0.04 0 0.22 0.04 0 0.24 0.04 0 0.26 0.04 0 0.28 0.04 0 0.3 0.04 0 0.32 0.04 0 0.34 0.04 0 0.36 0.04 0 0.38 0.04 0 0.4 0.04 0 0.42 0.04 0 0.44 0.04 0 0.46 0.04 0 0.48 0.04 0 0.5 0.04 0 0.52 0.04 0 0.54 0.04 0 0.56 0.04 0 0.58 0.04 0 0.6 0.04 0 0.62 0.04 0 0.64 0.04 0 0.66 0.04 0 0.68 0.04 0 0.7 0.04 0 0.72 0.04 0 0.74 0.04 0 0.76 0.04 0 0.78 0.04 0 0.8 0.04 0 0.82 0.04 0 0.84 0.04 0 0.86 0.04 0 0.88 0.04 0 0.9 0.04 0 0.92 0.04 0 0.94 0.04 0 0.96 0.04 0 0.98 0.04 0 1 0.04 0 0 0.06 0 0.02 0.06 0 0.04 0.06 0 0.06 0.06 0 0.08 0.06 0 0.1 0.06 0 0.12 0.06 0 0.14 0.06 0 0.16 0.06 0 0.18 0.06 0 0.2 0.06 0 0.22 0.06 0 0.24 0.06 0 0.26 0.06 0 0.28 0.06 0 0.3 0.06 0 0.32 0.06 0 0.34 0.06 0 0.36 0.06 0 0.38 0.06 0 0.4 0.06 0 0.42 0.06 0 0.44 0.06 0 0.46 0.06 0 0.48 0.06 0 0.5 0.06 0 0.52 0.06 0 0.54 0.06 0 0.56 0.06 0 0.58 0.06 0 0.6 0.06 0 0.62 0.06 0 0.64 0.06 0 0.66 0.06 0 0.68 0.06 0 0.7 0.06 0 0.72 0.06 0 0.74 0.06 0 0.76 0.06 0 0.78 0.06 0 0.8 0.06 0 0.82 0.06 0 0.84 0.06 0 0.86 0.06 0 0.88 0.06 0 0.9 0.06 0 0.92 0.06 0 0.94 0.06 0 0.96 0.06 0 0.98 0.06 0 1 0.06 0 0 0.08 0 0.02 0.08 0 0.04 0.08 0 0.06 0.08 0 0.08 0.08 0 0.1 0.08 0 0.12 0.08 0 0.14 0.08 0 0.16 0.08 0 0.18 0.08 0 0.2 0.08 0 0.22 0.08 0 0.24 0.08 0 0.26 0.08 0 0.28 0.08 0 0.3 0.08 0 0.32 0.08 0 0.34 0.08 0 0.36 0.08 0 0.38 0.08 0 0.4 0.08 0 0.42 0.08 0 0.44 0.08 0 0.46 0.08 0 0.48 0.08 0 0.5 0.08 0 0.52 0.08 0 0.54 0.08 0 0.56 0.08 0 0.58 0.08 0 0.6 0.08 0 0.62 0.08 0 0.64 0.08 0 0.66 0.08 0 0.68 0.08 0 0.7 0.08 0 0.72 0.08 0 0.74 0.08 0 0.76 0.08 0 0.78 0.08 0 0.8 0.08 0 0.82 0.08 0 0.84 0.08 0 0.86 0.08 0 0.88 0.08 0 0.9 0.08 0 0.92 0.08 0 0.94 0.08 0 0.96 0.08 0 0.98 0.08 0 1 0.08 0 0 0.1 0 0.02 0.1 0 0.04 0.1 0 0.06 0.1 0 0.08 0.1 0 0.1 0.1 0 0.12 0.1 0 0.14 0.1 0 0.16 0.1 0 0.18 0.1 0 0.2 0.1 0 0.22 0.1 0 0.24 0.1 0 0.26 0.1 0 0.28 0.1 0 0.3 0.1 0 0.32 0.1 0 0.34 0.1 0 0.36 0.1 0 0.38 0.1 0 0.4 0.1 0 0.42 0.1 0 0.44 0.1 0 0.46 0.1 0 0.48 0.1 0 0.5 0.1 0 0.52 0.1 0 0.54 0.1 0 0.56 0.1 0 0.58 0.1 0 0.6 0.1 0 0.62 0.1 0 0.64 0.1 0 0.66 0.1 0 0.68 0.1 0 0.7 0.1 0 0.72 0.1 0 0.74 0.1 0 0.76 0.1 0 0.78 0.1 0 0.8 0.1 0 0.82 0.1 0 0.84 0.1 0 0.86 0.1 0 0.88 0.1 0 0.9 0.1 0 0.92 0.1 0 0.94 0.1 0 0.96 0.1 0 0.98 0.1 0 1 0.1 0 0 0.12 0 0.02 0.12 0 0.04 0.12 0 0.06 0.12 0 0.08 0.12 0 0.1 0.12 0 0.12 0.12 0 0.14 0.12 0 0.16 0.12 0 0.18 0.12 0 0.2 0.12 0 0.22 0.12 0 0.24 0.12 0 0.26 0.12 0 0.28 0.12 0 0.3 0.12 0 0.32 0.12 0 0.34 0.12 0 0.36 0.12 0 0.38 0.12 0 0.4 0.12 0 0.42 0.12 0 0.44 0.12 0 0.46 0.12 0 0.48 0.12 0 0.5 0.12 0 0.52 0.12 0 0.54 0.12 0 0.56 0.12 0 0.58 0.12 0 0.6 0.12 0 0.62 0.12 0 0.64 0.12 0 0.66 0.12 0 0.68 0.12 0 0.7 0.12 0 0.72 0.12 0 0.74 0.12 0 0.76 0.12 0 0.78 0.12 0 0.8 0.12 0 0.82 0.12 0 0.84 0.12 0 0.86 0.12 0 0.88 0.12 0 0.9 0.12 0 0.92 0.12 0 0.94 0.12 0 0.96 0.12 0 0.98 0.12 0 1 0.12 0 0 0.14 0 0.02 0.14 0 0.04 0.14 0 0.06 0.14 0 0.08 0.14 0 0.1 0.14 0 0.12 0.14 0 0.14 0.14 0 0.16 0.14 0 0.18 0.14 0 0.2 0.14 0 0.22 0.14 0 0.24 0.14 0 0.26 0.14 0 0.28 0.14 0 0.3 0.14 0 0.32 0.14 0 0.34 0.14 0 0.36 0.14 0 0.38 0.14 0 0.4 0.14 0 0.42 0.14 0 0.44 0.14 0 0.46 0.14 0 0.48 0.14 0 0.5 0.14 0 0.52 0.14 0 0.54 0.14 0 0.56 0.14 0 0.58 0.14 0 0.6 0.14 0 0.62 0.14 0 0.64 0.14 0 0.66 0.14 0 0.68 0.14 0 0.7 0.14 0 0.72 0.14 0 0.74 0.14 0 0.76 0.14 0 0.78 0.14 0 0.8 0.14 0 0.82 0.14 0 0.84 0.14 0 0.86 0.14 0 0.88 0.14 0 0.9 0.14 0 0.92 0.14 0 0.94 0.14 0 0.96 0.14 0 0.98 0.14 0 1 0.14 0 0 0.16 0 0.02 0.16 0 0.04 0.16 0 0.06 0.16 0 0.08 0.16 0 0.1 0.16 0 0.12 0.16 0 0.14 0.16 0 0.16 0.16 0 0.18 0.16 0 0.2 0.16 0 0.22 0.16 0 0.24 0.16 0 0.26 0.16 0 0.28 0.16 0 0.3 0.16 0 0.32 0.16 0 0.34 0.16 0 0.36 0.16 0 0.38 0.16 0 0.4 0.16 0 0.42 0.16 0 0.44 0.16 0 0.46 0.16 0 0.48 0.16 0 0.5 0.16 0 0.52 0.16 0 0.54 0.16 0 0.56 0.16 0 0.58 0.16 0 0.6 0.16 0 0.62 0.16 0 0.64 0.16 0 0.66 0.16 0 0.68 0.16 0 0.7 0.16 0 0.72 0.16 0 0.74 0.16 0 0.76 0.16 0 0.78 0.16 0 0.8 0.16 0 0.82 0.16 0 0.84 0.16 0 0.86 0.16 0 0.88 0.16 0 0.9 0.16 0 0.92 0.16 0 0.94 0.16 0 0.96 0.16 0 0.98 0.16 0 1 0.16 0 0 0.18 0 0.02 0.18 0 0.04 0.18 0 0.06 0.18 0 0.08 0.18 0 0.1 0.18 0 0.12 0.18 0 0.14 0.18 0 0.16 0.18 0 0.18 0.18 0 0.2 0.18 0 0.22 0.18 0 0.24 0.18 0 0.26 0.18 0 0.28 0.18 0 0.3 0.18 0 0.32 0.18 0 0.34 0.18 0 0.36 0.18 0 0.38 0.18 0 0.4 0.18 0 0.42 0.18 0 0.44 0.18 0 0.46 0.18 0 0.48 0.18 0 0.5 0.18 0 0.52 0.18 0 0.54 0.18 0 0.56 0.18 0 0.58 0.18 0 0.6 0.18 0 0.62 0.18 0 0.64 0.18 0 0.66 0.18 0 0.68 0.18 0 0.7 0.18 0 0.72 0.18 0 0.74 0.18 0 0.76 0.18 0 0.78 0.18 0 0.8 0.18 0 0.82 0.18 0 0.84 0.18 0 0.86 0.18 0 0.88 0.18 0 0.9 0.18 0 0.92 0.18 0 0.94 0.18 0 0.96 0.18 0 0.98 0.18 0 1 0.18 0 0 0.2 0 0.02 0.2 0 0.04 0.2 0 0.06 0.2 0 0.08 0.2 0 0.1 0.2 0 0.12 0.2 0 0.14 0.2 0 0.16 0.2 0 0.18 0.2 0 0.2 0.2 0 0.22 0.2 0 0.24 0.2 0 0.26 0.2 0 0.28 0.2 0 0.3 0.2 0 0.32 0.2 0 0.34 0.2 0 0.36 0.2 0 0.38 0.2 0 0.4 0.2 0 0.42 0.2 0 0.44 0.2 0 0.46 0.2 0 0.48 0.2 0 0.5 0.2 0 0.52 0.2 0 0.54 0.2 0 0.56 0.2 0 0.58 0.2 0 0.6 0.2 0 0.62 0.2 0 0.64 0.2 0 0.66 0.2 0 0.68 0.2 0 0.7 0.2 0 0.72 0.2 0 0.74 0.2 0 0.76 0.2 0 0.78 0.2 0 0.8 0.2 0 0.82 0.2 0 0.84 0.2 0 0.86 0.2 0 0.88 0.2 0 0.9 0.2 0 0.92 0.2 0 0.94 0.2 0 0.96 0.2 0 0.98 0.2 0 1 0.2 0 0 0.22 0 0.02 0.22 0 0.04 0.22 0 0.06 0.22 0 0.08 0.22 0 0.1 0.22 0 0.12 0.22 0 0.14 0.22 0 0.16 0.22 0 0.18 0.22 0 0.2 0.22 0 0.22 0.22 0 0.24 0.22 0 0.26 0.22 0 0.28 0.22 0 0.3 0.22 0 0.32 0.22 0 0.34 0.22 0 0.36 0.22 0 0.38 0.22 0 0.4 0.22 0 0.42 0.22 0 0.44 0.22 0 0.46 0.22 0 0.48 0.22 0 0.5 0.22 0 0.52 0.22 0 0.54 0.22 0 0.56 0.22 0 0.58 0.22 0 0.6 0.22 0 0.62 0.22 0 0.64 0.22 0 0.66 0.22 0 0.68 0.22 0 0.7 0.22 0 0.72 0.22 0 0.74 0.22 0 0.76 0.22 0 0.78 0.22 0 0.8 0.22 0 0.82 0.22 0 0.84 0.22 0 0.86 0.22 0 0.88 0.22 0 0.9 0.22 0 0.92 0.22 0 0.94 0.22 0 0.96 0.22 0 0.98 0.22 0 1 0.22 0 0 0.24 0 0.02 0.24 0 0.04 0.24 0 0.06 0.24 0 0.08 0.24 0 0.1 0.24 0 0.12 0.24 0 0.14 0.24 0 0.16 0.24 0 0.18 0.24 0 0.2 0.24 0 0.22 0.24 0 0.24 0.24 0 0.26 0.24 0 0.28 0.24 0 0.3 0.24 0 0.32 0.24 0 0.34 0.24 0 0.36 0.24 0 0.38 0.24 0 0.4 0.24 0 0.42 0.24 0 0.44 0.24 0 0.46 0.24 0 0.48 0.24 0 0.5 0.24 0 0.52 0.24 0 0.54 0.24 0 0.56 0.24 0 0.58 0.24 0 0.6 0.24 0 0.62 0.24 0 0.64 0.24 0 0.66 0.24 0 0.68 0.24 0 0.7 0.24 0 0.72 0.24 0 0.74 0.24 0 0.76 0.24 0 0.78 0.24 0 0.8 0.24 0 0.82 0.24 0 0.84 0.24 0 0.86 0.24 0 0.88 0.24 0 0.9 0.24 0 0.92 0.24 0 0.94 0.24 0 0.96 0.24 0 0.98 0.24 0 1 0.24 0 0 0.26 0 0.02 0.26 0 0.04 0.26 0 0.06 0.26 0 0.08 0.26 0 0.1 0.26 0 0.12 0.26 0 0.14 0.26 0 0.16 0.26 0 0.18 0.26 0 0.2 0.26 0 0.22 0.26 0 0.24 0.26 0 0.26 0.26 0 0.28 0.26 0 0.3 0.26 0 0.32 0.26 0 0.34 0.26 0 0.36 0.26 0 0.38 0.26 0 0.4 0.26 0 0.42 0.26 0 0.44 0.26 0 0.46 0.26 0 0.48 0.26 0 0.5 0.26 0 0.52 0.26 0 0.54 0.26 0 0.56 0.26 0 0.58 0.26 0 0.6 0.26 0 0.62 0.26 0 0.64 0.26 0 0.66 0.26 0 0.68 0.26 0 0.7 0.26 0 0.72 0.26 0 0.74 0.26 0 0.76 0.26 0 0.78 0.26 0 0.8 0.26 0 0.82 0.26 0 0.84 0.26 0 0.86 0.26 0 0.88 0.26 0 0.9 0.26 0 0.92 0.26 0 0.94 0.26 0 0.96 0.26 0 0.98 0.26 0 1 0.26 0 0 0.28 0 0.02 0.28 0 0.04 0.28 0 0.06 0.28 0 0.08 0.28 0 0.1 0.28 0 0.12 0.28 0 0.14 0.28 0 0.16 0.28 0 0.18 0.28 0 0.2 0.28 0 0.22 0.28 0 0.24 0.28 0 0.26 0.28 0 0.28 0.28 0 0.3 0.28 0 0.32 0.28 0 0.34 0.28 0 0.36 0.28 0 0.38 0.28 0 0.4 0.28 0 0.42 0.28 0 0.44 0.28 0 0.46 0.28 0 0.48 0.28 0 0.5 0.28 0 0.52 0.28 0 0.54 0.28 0 0.56 0.28 0 0.58 0.28 0 0.6 0.28 0 0.62 0.28 0 0.64 0.28 0 0.66 0.28 0 0.68 0.28 0 0.7 0.28 0 0.72 0.28 0 0.74 0.28 0 0.76 0.28 0 0.78 0.28 0 0.8 0.28 0 0.82 0.28 0 0.84 0.28 0 0.86 0.28 0 0.88 0.28 0 0.9 0.28 0 0.92 0.28 0 0.94 0.28 0 0.96 0.28 0 0.98 0.28 0 1 0.28 0 0 0.3 0 0.02 0.3 0 0.04 0.3 0 0.06 0.3 0 0.08 0.3 0 0.1 0.3 0 0.12 0.3 0 0.14 0.3 0 0.16 0.3 0 0.18 0.3 0 0.2 0.3 0 0.22 0.3 0 0.24 0.3 0 0.26 0.3 0 0.28 0.3 0 0.3 0.3 0 0.32 0.3 0 0.34 0.3 0 0.36 0.3 0 0.38 0.3 0 0.4 0.3 0 0.42 0.3 0 0.44 0.3 0 0.46 0.3 0 0.48 0.3 0 0.5 0.3 0 0.52 0.3 0 0.54 0.3 0 0.56 0.3 0 0.58 0.3 0 0.6 0.3 0 0.62 0.3 0 0.64 0.3 0 0.66 0.3 0 0.68 0.3 0 0.7 0.3 0 0.72 0.3 0 0.74 0.3 0 0.76 0.3 0 0.78 0.3 0 0.8 0.3 0 0.82 0.3 0 0.84 0.3 0 0.86 0.3 0 0.88 0.3 0 0.9 0.3 0 0.92 0.3 0 0.94 0.3 0 0.96 0.3 0 0.98 0.3 0 1 0.3 0 0 0.32 0 0.02 0.32 0 0.04 0.32 0 0.06 0.32 0 0.08 0.32 0 0.1 0.32 0 0.12 0.32 0 0.14 0.32 0 0.16 0.32 0 0.18 0.32 0 0.2 0.32 0 0.22 0.32 0 0.24 0.32 0 0.26 0.32 0 0.28 0.32 0 0.3 0.32 0 0.32 0.32 0 0.34 0.32 0 0.36 0.32 0 0.38 0.32 0 0.4 0.32 0 0.42 0.32 0 0.44 0.32 0 0.46 0.32 0 0.48 0.32 0 0.5 0.32 0 0.52 0.32 0 0.54 0.32 0 0.56 0.32 0 0.58 0.32 0 0.6 0.32 0 0.62 0.32 0 0.64 0.32 0 0.66 0.32 0 0.68 0.32 0 0.7 0.32 0 0.72 0.32 0 0.74 0.32 0 0.76 0.32 0 0.78 0.32 0 0.8 0.32 0 0.82 0.32 0 0.84 0.32 0 0.86 0.32 0 0.88 0.32 0 0.9 0.32 0 0.92 0.32 0 0.94 0.
[...]
			<PointData Scalars="VitesseX">
				<DataArray Name="VitesseX" type="Float32" format="ascii">
 0 0 0 0 0 0 0 0 0 0 0 0 0 0 0 0 0 0 0 0 0 0 0 0 0 0 0 0 0 0 0 0 0 0 0 0 0 0 0 0 0 0 0 0 0 0 0 0 0 0 -0 0 -0.000243418 -0.000848165 -0.00182248 -0.00315118 -0.00481353 -0.00678357 -0.0090305 -0.0115192 -0.0142107 -0.0170628 -0.020031 -0.0230702 -0.0261246 -0.0291572 -0.0321175 -0.0349649 -0.0376519 -0.0401151 -0.0423345 -0.0442746 -0.0459039 -0.0471968 -0.0481328 -0.0486883 -0.0491632 -0.0493071 -0.0489222 -0.0480754 -0.046836 -0.0452361 -0.0433041 -0.0410622 -0.0385553 -0.0358367 -0.0329413 -0.0299132 -0.0268036 -0.0236629 -0.0205418 -0.0174899 -0.0145564 -0.0117886 -0.00923106 -0.006925 -0.00490285 -0.00318663 -0.00180565 -0.000809155 -0.000204672 -2.38735e-27 0 -0.000468728 -0.00165995 -0.00358574 -0.00621637 -0.00951099 -0.0134182 -0.017877 -0.0228177 -0.0281572 -0.0338272 -0.0397528 -0.045825 -0.0518964 -0.057917 -0.0637913 -0.0694259 -0.0747323 -0.0796269 -0.0840328 -0.0878807 -0.09111 -0.0936698 -0.0955198 -0.0966121 -0.0971101 -0.0969599 -0.0959973 -0.0942396 -0.0917383 -0.0885462 -0.084698 -0.0802686 -0.0753455 -0.0699941 -0.0643057 -0.0583679 -0.052276 -0.0461284 -0.0400232 -0.0340567 -0.0283241 -0.0229169 -0.0179216 -0.0134187 -0.00947837 -0.00615654 -0.00349485 -0.00156182 -0.000393538 -4.42479e-27 0 -0.000678303 -0.00243323 -0.00527805 -0.0091689 -0.014043 -0.0198251 -0.0264557 -0.0338364 -0.0417836 -0.0501722 -0.058898 -0.0678323 -0.0768339 -0.0857562 -0.0944595 -0.102807 -0.110667 -0.117915 -0.124437 -0.130131 -0.134905 -0.138686 -0.141414 -0.143016 -0.143609 -0.1432 -0.141648 -0.138965 -0.135203 -0.130435 -0.124723 -0.118169 -0.110886 -0.102983 -0.0945904 -0.0858383 -0.0768643 -0.0678129 -0.058828 -0.0500496 -0.0416168 -0.0336633 -0.026316 -0.0196923 -0.0138973 -0.00901904 -0.00512898 -0.0022901 -0.000576202 -6.39355e-27 0 -0.000875054 -0.00316737 -0.00688302 -0.0119453 -0.0183709 -0.0260635 -0.0347272 -0.0443098 -0.0546736 -0.0656569 -0.0770873 -0.088792 -0.100585 -0.112274 -0.123675 -0.134608 -0.1449 -0.154388 -0.162922 -0.170368 -0.176607 -0.181541 -0.185095 -0.187168 -0.187869 -0.187221 -0.185089 -0.181501 -0.176525 -0.17024 -0.162741 -0.154155 -0.14462 -0.134287 -0.123323 -0.111897 -0.100186 -0.0883793 -0.0766635 -0.0652193 -0.054227 -0.04386 -0.0342827 -0.0256477 -0.0180927 -0.0117357 -0.00667582 -0.00298278 -0.000749798 -8.26287e-27 0 -0.00106341 -0.00387779 -0.00846473 -0.0147178 -0.0225315 -0.0317881 -0.0423487 -0.0540492 -0.0667064 -0.0801218 -0.0940846 -0.108383 -0.122788 -0.137065 -0.150988 -0.164337 -0.1769 -0.188476 -0.198884 -0.207958 -0.215556 -0.221559 -0.225873 -0.228375 -0.229174 -0.228303 -0.225614 -0.221167 -0.215042 -0.207332 -0.198156 -0.187664 -0.176024 -0.163422 -0.150059 -0.13614 -0.121881 -0.10751 -0.0932538 -0.0793308 -0.0659589 -0.0533481 -0.0416975 -0.031192 -0.0219993 -0.0142654 -0.00811029 -0.00362911 -0.000911619 -1.00035e-26 0 -0.00120883 -0.00448642 -0.00985487 -0.0171198 -0.0262136 -0.0369996 -0.0493093 -0.06295 -0.0777075 -0.0933499 -0.109631 -0.126303 -0.143098 -0.159741 -0.175969 -0.191524 -0.206157 -0.219637 -0.23175 -0.242305 -0.251136 -0.258104 -0.263104 -0.265985 -0.266869 -0.265785 -0.262575 -0.257329 -0.250141 -0.241118 -0.230404 -0.218174 -0.204614 -0.189941 -0.174386 -0.158194 -0.141615 -0.12491 -0.108343 -0.0921662 -0.0766311 -0.0619807 -0.0484452 -0.0362388 -0.0255561 -0.0165689 -0.00941812 -0.00421879 -0.00105903 -1.15882e-26 0 -0.00135394 -0.00509059 -0.0110733 -0.0192459 -0.0294874 -0.041638 -0.055507 -0.070877 -0.0875063 -0.105133 -0.123479 -0.142265 -0.161188 -0.179937 -0.198215 -0.215729 -0.232202 -0.247372 -0.260996 -0.272862 -0.282781 -0.290601 -0.296199 -0.299406 -0.300355 -0.29907 -0.295377 -0.289402 -0.281247 -0.271044 -0.258957 -0.245183 -0.229932 -0.213438 -0.195937 -0.177718 -0.159085 -0.140313 -0.1217 -0.103528 -0.0860786 -0.0696239 -0.054421 -0.0407095 -0.028708 -0.0186104 -0.0105773 -0.0047381 -0.00118954 -1.29922e-26 0 -0.00152322 -0.00556767 -0.0121154 -0.0210744 -0.0323048 -0.0456306 -0.0608427 -0.0777022 -0.0959437 -0.11528 -0.135405 -0.156011 -0.176767 -0.197328 -0.217369 -0.236568 -0.25462 -0.271235 -0.28615 -0.299132 -0.309979 -0.318526 -0.324633 -0.32811 -0.329108 -0.327641 -0.323527 -0.316918 -0.307925 -0.296694 -0.283409 -0.268281 -0.251547 -0.233464 -0.21431 -0.194398 -0.174026 -0.153486 -0.133117 -0.113239 -0.0941555 -0.0761594 -0.059532 -0.0445346 -0.0314058 -0.0203581 -0.0115698 -0.0051822 -0.0013016 -1.41933e-26 0 -0.00163117 -0.00595277 -0.0129699 -0.0225754 -0.0346188 -0.0489113 -0.0652284 -0.0833137 -0.102882 -0.123625 -0.145214 -0.167317 -0.189579 -0.211627 -0.233112 -0.25369 -0.273032 -0.290829 -0.306808 -0.320709 -0.332307 -0.341432 -0.347945 -0.351641 -0.352676 -0.351052 -0.346581 -0.33944 -0.32975 -0.317671 -0.303397 -0.287157 -0.269206 -0.249823 -0.22931 -0.207988 -0.18617 -0.1642 -0.14242 -0.121151 -0.100736 -0.0814858 -0.0636989 -0.0476544 -0.0336072 -0.0217848 -0.0123801 -0.00554496 -0.00139308 -1.51729e-26 0 -0.00170756 -0.00624535 -0.0136221 -0.023723 -0.0363902 -0.0514251 -0.0685915 -0.0876195 -0.108209 -0.130034 -0.152748 -0.176002 -0.199419 -0.222609 -0.245204 -0.266844 -0.287177 -0.305877 -0.322652 -0.337241 -0.349409 -0.358971 -0.365785 -0.369634 -0.370689 -0.368922 -0.364159 -0.356594 -0.346356 -0.333615 -0.318582 -0.301491 -0.282611 -0.26224 -0.240688 -0.218288 -0.195377 -0.172317 -0.14946 -0.127144 -0.105721 -0.0855197 -0.0668565 -0.0500201 -0.0352778 -0.0228681 -0.0129955 -0.00582057 -0.00146259 -1.59154e-26 0 -0.00175608 -0.0064403 -0.0140602 -0.0244976 -0.0375894 -0.0531308 -0.0708777 -0.0905508 -0.111839 -0.134406 -0.157891 -0.181934 -0.206145 -0.230117 -0.253468 -0.27582 -0.296812 -0.316117 -0.33343 -0.34848 -0.361028 -0.370873 -0.377872 -0.381807 -0.382852 -0.380977 -0.375995 -0.368122 -0.357488 -0.344278 -0.328717 -0.31104 -0.291527 -0.270484 -0.248236 -0.225121 -0.201487 -0.177702 -0.154134 -0.13113 -0.109036 -0.0881991 -0.0689552 -0.0515944 -0.036391 -0.0235909 -0.0134065 -0.00600472 -0.00150941 -1.64092e-26 0 -0.00177712 -0.00653375 -0.0142762 -0.0248852 -0.0381957 -0.0539997 -0.0720491 -0.0920597 -0.113715 -0.136672 -0.160564 -0.185023 -0.209651 -0.234023 -0.257751 -0.280461 -0.301796 -0.321413 -0.338997 -0.354268 -0.366986 -0.376949 -0.384014 -0.387971 -0.388984 -0.387006 -0.381861 -0.373783 -0.362899 -0.349412 -0.333551 -0.315555 -0.295713 -0.274324 -0.251727 -0.228261 -0.204274 -0.180149 -0.156253 -0.132936 -0.11054 -0.0894134 -0.0699039 -0.0523097 -0.0368996 -0.023923 -0.0135958 -0.00608958 -0.00153084 -1.66466e-26 0 -0.00177032 -0.00652249 -0.0142612 -0.0248676 -0.038177 -0.0539817 -0.0720338 -0.0920491 -0.113712 -0.136678 -0.160582 -0.185056 -0.209692 -0.234065 -0.257806 -0.280541 -0.301896 -0.321521 -0.339107 -0.354374 -0.367083 -0.377036 -0.384081 -0.388013 -0.389 -0.386992 -0.381824 -0.373721 -0.36281 -0.349299 -0.333417 -0.315395 -0.29553 -0.274129 -0.251538 -0.228076 -0.204093 -0.179973 -0.156092 -0.132804 -0.110444 -0.0893374 -0.0698323 -0.0522581 -0.0368657 -0.0239025 -0.0135846 -0.0060846 -0.00152954 -1.66237e-26 0 -0.00173628 -0.00641109 -0.0140299 -0.0244777 -0.0375938 -0.0531746 -0.0709761 -0.0907183 -0.112089 -0.13475 -0.158341 -0.182494 -0.206777 -0.230814 -0.254239 -0.276659 -0.297697 -0.317022 -0.334328 -0.349333 -0.361792 -0.371508 -0.378339 -0.382074 -0.382887 -0.380836 -0.375685 -0.367645 -0.356847 -0.343501 -0.327828 -0.310059 -0.290487 -0.269415 -0.247172 -0.224099 -0.200541 -0.176843 -0.153368 -0.130483 -0.10853 -0.0878136 -0.0686486 -0.0513623 -0.0362387 -0.0234993 -0.0133571 -0.00598327 -0.00150417 -1.63408e-26 0 -0.00167506 -0.00619804 -0.0135754 -0.023698 -0.0364115 -0.0515193 -0.0687856 -0.0879385 -0.108675 -0.130666 -0.153564 -0.176978 -0.200532 -0.223861 -0.246588 -0.268316 -0.288696 -0.307418 -0.324172 -0.338675 -0.350695 -0.360046 -0.366576 -0.37009 -0.370772 -0.368674 -0.363616 -0.355765 -0.345247 -0.332273 -0.317055 -0.299816 -0.280843 -0.260429 -0.238893 -0.216567 -0.193781 -0.170887 -0.148212 -0.126092 -0.104879 -0.0848821 -0.0663702 -0.0496535 -0.0350383 -0.0227245 -0.012919 -0.0057878 -0.00145516 -1.58022e-26 0 -0.00158761 -0.00588768 -0.0129079 -0.0225469 -0.0346597 -0.04906 -0.0655233 -0.0837907 -0.103573 -0.124555 -0.146402 -0.168712 -0.191183 -0.213448 -0.235109 -0.255803 -0.27522 -0.293054 -0.308982 -0.322747 -0.334138 -0.342972 -0.349096 -0.35232 -0.352854 -0.350696 -0.345804 -0.338258 -0.328182 -0.315785 -0.301264 -0.284826 -0.266748 -0.247312 -0.226822 -0.205594 -0.183939 -0.162191 -0.14068 -0.119698 -0.0995618 -0.0805887 -0.0630325 -0.0471696 -0.0332829 -0.0215902 -0.0122769 -0.00550119 -0.00138328 -1.50176e-26 0 -0.0014753 -0.0054847 -0.0120377 -0.0210429 -0.0323674 -0.0458371 -0.0612428 -0.0783423 -0.0968647 -0.116513 -0.136952 -0.157843 -0.178888 -0.199729 -0.219982 -0.239331 -0.257492 -0.274144 -0.288979 -0.301785 -0.312362 -0.320537 -0.326161 -0.329039 -0.329412 -0.327144 -0.322422 -0.315222 -0.305714 -0.29412 -0.280588 -0.265269 -0.248409 -0.23027 -0.21115 -0.191355 -0.171176 -0.150922 -0.130899 -0.111394 -0.0926647 -0.0750127 -0.0586932 -0.043937 -0.0310001 -0.0201137 -0.0114407 -0.00512787 -0.00128965 -1.40048e-26 0 -0.00134067 -0.00499459 -0.0109785 -0.0192111 -0.0295711 -0.0419002 -0.0560087 -0.071675 -0.08865 -0.106663 -0.125375 -0.144533 -0.163833 -0.182913 -0.201443 -0.219162 -0.235779 -0.250954 -0.264462 -0.276099 -0.285685 -0.293062 -0.298089 -0.300548 -0.30067 -0.298144 -0.293422 -0.286521 -0.277606 -0.266871 -0.254553 -0.240901 -0.225872 -0.209503 -0.192113 -0.174074 -0.155692 -0.137257 -0.119045 -0.101313 -0.0842951 -0.0682418 -0.0534107 -0.0399958 -0.0282239 -0.0183183 -0.0104235 -0.00467362 -0.00117571 -1.27608e-26 0 -0.00118678 -0.00443188 -0.00975192 -0.0170785 -0.026311 -0.0373106 -0.0499066 -0.0638989 -0.0790633 -0.0951614 -0.111874 -0.128997 -0.146241 -0.163263 -0.179788 -0.195592 -0.210383 -0.223842 -0.235805 -0.246078 -0.254501 -0.26094 -0.265236 -0.267113 -0.266772 -0.264424 -0.260099 -0.253829 -0.245751 -0.235989 -0.224691 -0.212229 -0.198845 -0.184842 -0.169897 -0.15401 -0.137731 -0.121406 -0.105294 -0.0896155 -0.0745799 -0.0603855 -0.047276 -0.0354155 -0.0250008 -0.016232 -0.00924112 -0.00414551 -0.00104326 -1.12942e-26 0 -0.00101479 -0.00380243 -0.00837906 -0.0146911 -0.0226539 -0.0321505 -0.0430338 -0.0551337 -0.068256 -0.0821889 -0.0966605 -0.111477 -0.126387 -0.141092 -0.155367 -0.168994 -0.1817 -0.193244 -0.203467 -0.212205 -0.219318 -0.224676 -0.228054 -0.229328 -0.228901 -0.226835 -0.222987 -0.217435 -0.210338 -0.201826 -0.192002 -0.181101 -0.169278 -0.156843 -0.144323 -0.131368 -0.117568 -0.103624 -0.0898664 -0.0764914 -0.0636759 -0.0515743 -0.0403899 -0.0302716 -0.0213821 -0.0138882 -0.00791208 -0.00355179 -0.000894363 -9.67424e-27 0 -0.000827425 -0.00311335 -0.00687942 -0.0120864 -0.0186625 -0.0265135 -0.0355201 -0.0455413 -0.0564152 -0.0679613 -0.0799596 -0.0922389 -0.104581 -0.116738 -0.12853 -0.13976 -0.150179 -0.159618 -0.16793 -0.174977 -0.180642 -0.184791 -0.18722 -0.188051 -0.187542 -0.185665 -0.182292 -0.177528 -0.171513 -0.164375 -0.156215 -0.147214 -0.137493 -0.127152 -0.116455 -0.106077 -0.095463 -0.0841843 -0.0730046 -0.0621463 -0.0517503 -0.0419343 -0.0328521 -0.0246409 -0.0174208 -0.0113227 -0.00645729 -0.00290174 -0.000731344 -7.90518e-27 0 -0.000629683 -0.00238002 -0.00527741 -0.00929699 -0.0143886 -0.0204809 -0.0274821 -0.0352774 -0.0437378 -0.0527207 -0.0620509 -0.0715887 -0.0811662 -0.0905797 -0.0996771 -0.108301 -0.116262 -0.123426 -0.129672 -0.134896 -0.139012 -0.141928 -0.143552 -0.143914 -0.143232 -0.141525 -0.138672 -0.134771 -0.129936 -0.124285 -0.117902 -0.110919 -0.10346 -0.0955848 -0.0873849 -0.0790911 -0.071481 -0.0633726 -0.0549673 -0.0468006 -0.0389906 -0.0316216 -0.0247894 -0.0186164 -0.0131797 -0.00857565 -0.00489964 -0.00220557 -0.00055676 -6.01263e-27 0 -0.000424802 -0.00161656 -0.00360244 -0.00637333 -0.0099017 -0.0141399 -0.0190244 -0.0244749 -0.0303977 -0.0366884 -0.0432103 -0.0498557 -0.0565137 -0.0630367 -0.0692936 -0.0751699 -0.0805451 -0.085318 -0.0894034 -0.0927329 -0.0952569 -0.09694 -0.0977396 -0.0975727 -0.0966499 -0.0950988 -0.0928081 -0.0898327 -0.0862644 -0.0821999 -0.0776941 -0.0728367 -0.0677399 -0.0624256 -0.0569656 -0.0514047 -0.0461121 -0.0414399 -0.0360207 -0.0306843 -0.0255903 -0.0207911 -0.0163303 -0.0122945 -0.00872656 -0.00569132 -0.00326343 -0.00147419 -0.000373349 -4.0263e-27 0 -0.000216094 -0.000837897 -0.00188769 -0.0033713 -0.00528248 -0.00759941 -0.0102919 -0.0133118 -0.0166028 -0.0201008 -0.0237144 -0.0273729 -0.0310088 -0.0345377 -0.0378678 -0.0409199 -0.0436315 -0.0459451 -0.0478086 -0.0491884 -0.0500685 -0.0504604 -0.0503919 -0.0497657 -0.0484692 -0.0470566 -0.0453871 -0.0434027 -0.041177 -0.0387705 -0.0362147 -0.0335655 -0.0309097 -0.0282314 -0.0255719 -0.022947 -0.0204049 -0.0185847 -0.0164273 -0.0140342 -0.0117553 -0.00961114 -0.00760195 -0.00576748 -0.00412876 -0.00271554 -0.0015739 -0.000719104 -0.00018398 -1.9765e-27 0 -1.2235e-05 -6.12793e-05 -0.000167002 -0.000346869 -0.000613609 -0.000974217 -0.00143104 -0.00197 -0.00257672 -0.00322766 -0.0038797 -0.00449531 -0.00505553 -0.00553391 -0.00588621 -0.00607182 -0.00606976 -0.00588491 -0.00549116 -0.00489315 -0.00410953 -0.00317916 -0.00215676 -0.00107485 0.00117604 0.00179375 0.00285161 0.00381327 0.00465893 0.00538273 0.00593781 0.0063154 0.00649495 0.00648514 0.00629543 0.00594575 0.005479 0.00463455 0.00354863 0.00291572 0.0023167 0.00175576 0.00126829 0.00086504 0.000542042 0.000307101 0.000143145 4.77795e-05 8.09255e-06 7.20619e-29 0 0.000178511 0.000700908 0.00154054 0.00266511 0.00404175 0.00563824 0.00742528 0.00937746 0.0114686 0.0136799 0.015998 0.0184321 0.020952 0.0235372 0.0261781 0.0288588 0.0315637 0.0342499 0.0368914 0.0394504 0.0418719 0.0440924 0.046045 0.047685 0.0494535 0.0504025 0.0509643 0.0509468 0.050437 0.0494892 0.0480484 0.0461657 0.0438715 0.0411785 0.0381419 0.0348259 0.0313092 0.0275644 0.0234805 0.0198236 0.0163549 0.0130977 0.0101207 0.00748159 0.00520261 0.00332613 0.00186112 0.000817549 0.000203091 2.13789e-27 0 0.000367836 0.00145529 0.0032274 0.00563779 0.008633 0.0121553 0.0161455 0.0205436 0.0252888 0.0303193 0.03557 0.0410039 0.0465547 0.0521501 0.0577316 0.0632397 0.0685992 0.0737325 0.0785731 0.0830477 0.0870687 0.0905499 0.0934113 0.0955997 0.0972765 0.0981211 0.0981692 0.0972201 0.0954252 0.0928637 0.0895021 0.0854246 0.0806913 0.0753598 0.0695262 0.063299 0.056801 0.0500992 0.043032 0.0364117 0.0301361 0.0242367 0.0188194 0.0139851 0.009787 0.00629816 0.003554 0.00157868 0.000397544 4.18403e-27 0 0.000551701 0.00218606 0.00486182 0.00851857 0.0130832 0.018474 0.0246012 0.0313714 0.0386856 0.046444 0.0545416 0.0628852 0.0713763 0.079887 0.088308 0.0965511 0.104491 0.111984 0.118931 0.12525 0.130813 0.135513 0.139258 0.141975 0.143694 0.144339 0.143789 0.141942 0.138957 0.134838 0.129623 0.123425 0.116326 0.10844 0.0999045 0.0908691 0.0815007 0.0719245 0.0619293 0.0524334 0.0434488 0.0349996 0.0272277 0.0202734 0.0142238 0.00917637 0.00519342 0.00231754 0.000587147 6.16981e-27 0 0.000727029 0.00288206 0.0064186 0.0112628 0.0173233 0.0244948 0.0326594 0.0416909 0.0514548 0.0618109 0.0726139 0.0837324 0.0950237 0.106314 0.117438 0.128264 0.138648 0.148413 0.157378 0.165416 0.172439 0.178298 0.182881 0.1861 0.187924 0.188322 0.187213 0.184528 0.180362 0.174732 0.167736 0.159507 0.150147 0.139824 0.128718 0.117017 0.104929 0.0926326 0.0798696 0.067636 0.0560835 0.0452172 0.035213 0.0262475 0.0184403 0.0119127 0.00675319 0.00302162 0.00076837 8.06029e-27 0 0.000890466 0.00353235 0.00787332 0.0138274 0.0212866 0.0301235 0.0401938 0.0513405 0.0633954 0.0761817 0.0895148 0.103223 0.117123 0.131008 0.144663 0.157894 0.170532 0.182399 0.193271 0.202973 0.211361 0.218275 0.223621 0.227292 0.229172 0.229367 0.227755 0.224256 0.218946 0.211889 0.203207 0.193064 0.181622 0.169067 0.155596 0.141427 0.126808 0.111967 0.096565 0.0817811 0.0678425 0.0547293 0.0426496 0.0318134 0.0223695 0.0144648 0.00821054 0.00367863 0.000938153 9.82447e-27 0 0.00103948 0.00412643 0.00920323 0.0161724 0.024911 0.0352718 0.0470863 0.060169 0.0743208 0.0893309 0.104979 0.121051 0.137327 0.153581 0.169552 0.184991 0.199683 0.213428 0.226013 0.237229 0.246868 0.254766 0.260808 0.264883 0.266835 0.26683 0.26474 0.260455 0.254082 0.245726 0.235557 0.223733 0.210435 0.195848 0.180214 0.163788 0.146856 0.129664 0.111731 0.0946483 0.0785426 0.0633877 0.0494206 0.0368837 0.0259505 0.0167929 0.00954204 0.00427918 0.00109289 1.1434e-26 0 0.00117225 0.00465509 0.0103876 0.018261 0.0281399 0.0398591 0.0532289 0.0680383 0.08406 0.101053 0.118765 0.136944 0.155335 0.173681 0.191708 0.209123 0.225656 0.241073 0.255148 0.267661 0.278399 0.287176 0.293842 0.298279 0.300333 0.300114 0.29758 0.292591 0.285296 0.275836 0.264368 0.251047 0.236067 0.219642 0.20206 0.183618 0.164639 0.145337 0.125107 0.106041 0.0880182 0.0710578 0.0554197 0.0413789 0.0291274 0.0188593 0.0107252 0.00481461 0.00123033 1.28638e-26 0 0.00128693 0.00511545 0.011408 0.0200607 0.0309227 0.0438138 0.0585256 0.0748253 0.092461 0.111165 0.130657 0.150653 0.170871 0.19101 0.210786 0.229894 0.248023 0.264895 0.280257 0.293875 0.305535 0.315041 0.32223 0.32697 0.329085 0.328691 0.325773 0.320189 0.312129 0.301715 0.289079 0.274404 0.257938 0.239943 0.22071 0.200555 0.179836 0.158676 0.136487 0.115787 0.0961238 0.0776209 0.0605537 0.0452286 0.0318504 0.0206318 0.0117415 0.00527479 0.00134938 1.40917e-26 0 0.00138118 0.00549408 0.0122485 0.0215434 0.0332161 0.0470741 0.0628938 0.0804242 0.0993926 0.119509 0.140471 0.161966 0.18369 0.205317 0.226513 0.246989 0.266415 0.284488 0.30092 0.315452 0.327857 0.337941 0.345535 0.350503 0.352647 0.352105 0.348872 0.342797 0.33408 0.322825 0.309214 0.293456 0.2758 0.256527 0.235945 0.214391 0.192261 0.169433 0.145713 0.123721 0.102734 0.0829756 0.0647437 0.0483731 0.0340771 0.0220827 0.0125751 0.00565201 0.0014475 1.5098e-26 0 0.00145379 0.00578403 0.0128961 0.0226863 0.0349846 0.0495894 0.0662654 0.0847476 0.104747 0.125956 0.148053 0.170707 0.193592 0.216364 0.23867 0.26018 0.280569 0.299546 0.316786 0.332014 0.344985 0.35549 0.363374 0.368496 0.37065 0.36998 0.366496 0.360023 0.350773 0.338883 0.324533 0.307944 0.289377 0.269127 0.247517 0.224905 0.201691 0.177309 0.152695 0.129729 0.107745 0.0870394 0.067926 0.0507637 0.0357725 0.0231891 0.0132126 0.00594027 0.00152259 1.58666e-26 0 0.00150362 0.00598286 0.0133436 0.0234717 0.0362007 0.0513207 0.0685882 0.0877286 0.108441 0.130406 0.153288 0.176741 0.200425 0.223982 0.247045 0.269269 0.290316 0.309872 0.327629 0.343318 0.356655 0.367423 0.375477 0.380678 0.382814 0.382038 0.378362 0.371599 0.36198 0.349648 0.334789 0.317634 0.29845 0.277541 0.255241 0.231932 0.207875 0.182163 0.157343 0.133726 0.11108 0.0897494 0.0700531 0.0523636 0.0369103 0.0239336 0.0136434 0.00613482 0.00157351 1.63855e-26 0 0.00152988 0.00608994 0.013591 0.0238876 0.0368459 0.0522413 0.0698264 0.0893211 0.110418 0.13279 0.156094 0.179974 0.204083 0.228054 0.251509 0.274098 0.295476 0.315325 0.33333 0.349223 0.362706 0.373569 0.381671 0.386869 0.388951 0.38807 0.384253 0.377305 0.367467 0.354885 0.339749 0.322294 0.302794 0.281555 0.25892 0.235284 0.210545 0.18416 0.159448 0.135552 0.112618 0.0910121 0.0710598 0.0531265 0.0374586 0.0242969 0.0138554 0.0062313 0.00159943 1.66466e-26 0 0.00153197 0.0060974 0.0136072 0.0239232 0.0369024 0.0523241 0.0699411 0.0894728 0.110611 0.133025 0.156371 0.18029 0.204433 0.228431 0.251904 0.274498 0.295871 0.315701 0.333677 0.349533 0.362966 0.373769 0.381808 0.386938 0.388956 0.388064 0.384245 0.377293 0.367452 0.354867 0.339729 0.322273 0.302773 0.281535 0.258916 0.235235 0.209472 0.183799 0.159326 0.135464 0.112557 0.0909723 0.071047 0.0531194 0.0374564 0.0242992 0.013854 0.00623224 0.00160058 1.66456e-26 0 0.00151234 0.00601762 0.0134289 0.0236228 0.0364388 0.0516703 0.0690731 0.0883699 0.109255 0.1314 0.154462 0.178084 0.201919 0.225597 0.248742 0.271003 0.292038 0.31153 0.329175 0.344711 0.357833 0.368344 0.376119 0.381014