<?xml version="1.0"?>
<VTKFile type="PolyData">
	<PolyData>
		<Piece NumberOfPoints="2601" NumberOfPolys="2500">
			<Points>
				<DataArray type="Float32" NumberOfComponents="3" format="ascii">
 0 0 0 0.02 0 0 0.04 0 0 0.06 0 0 0.08 0 0 0.1 0 0 0.12 0 0 0.14 0 0 0.16 0 0 0.18 0 0 0.2 0 0 0.22 0 0 0.24 0 0 0.26 0 0 0.28 0 0 0.3 0 0 0.32 0 0 0.34 0 0 0.36 0 0 0.38 0 0 0.4 0 0 0.42 0 0 0.44 0 0 0.46 0 0 0.48 0 0 0.5 0 0 0.52 0 0 0.54 0 0 0.56 0 0 0.58 0 0 0.6 0 0 0.62 0 0 0.64 0 0 0.66 0 0 0.68 0 0 0.7 0 0 0.72 0 0 0.74 0 0 0.76 0 0 0.78 0 0 0.8 0 0 0.82 0 0 0.84 0 0 0.86 0 0 0.88 0 0 0.9 0 0 0.92 0 0 0.94 0 0 0.96 0 0 0.98 0 0 1 0 0 0 0.02 0 0.02 0.02 0 0.04 0.02 0 0.06 0.02 0 0.08 0.02 0 0.1 0.02 0 0.12 0.02 0 0.14 0.02 0 0.16 0.02 0 0.18 0.02 0 0.2 0.02 0 0.22 0.02 0 0.24 0.02 0 0.26 0.02 0 0.28 0.02 0 0.3 0.02 0 0.32 0.02 0 0.34 0.02 0 0.36 0.02 0 0.38 0.02 0 0.4 0.02 0 0.42 0.02 0 0.44 0.02 0 0.46 0.02 0 0.48 0.02 0 0.5 0.02 0 0.52 0.02 0 0.54 0.02 0 0.56 0.02 0 0.58 0.02 0 0.6 0.02 0 0.62 0.02 0 0.64 0.02 0 0.66 0.02 0 0.68 0.02 0 0.7 0.02 0 0.72 0.02 0 0.74 0.02 0 0.76 0.02 0 0.78 0.02 0 0.8 0.02 0 0.82 0.02 0 0.84 0.02 0 0.86 0.02 0 0.88 0.02 0 0.9 0.02 0 0.92 0.02 0 0.94 0.02 0 0.96 0.02 0 0.98 0.02 0 1 0.02 0 0 0.04 0 0.02 0.04 0 0.04 0.04 0 0.06 0.04 0 0.08 0.04 0 0.1 0.04 0 0.12 0.04 0 0.14 0.04 0 0.16 0.04 0 0.18 0.04 0 0.2 0.04 0 0.22 0.04 0 0.24 0.04 0 0.26 0.04 0 0.28 0.04 0 0.3 0.04 0 0.32 0.04 0 0.34 0.04 0 0.36 0.04 0 0.38 0.04 0 0.4 0.04 0 0.42 0.04 0 0.44 0.04 0 0.46 0.04 0 0.48 0.04 0 0.5 0.04 0 0.52 0.04 0 0.54 0.04 0 0.56 0.04 0 0.58 0.04 0 0.6 0.04 0 0.62 0.04 0 0.64 0.04 0 0.66 0.04 0 0.68 0.04 0 0.7 0.04 0 0.72 0.04 0 0.74 0.04 0 0.76 0.04 0 0.78 0.04 0 0.8 0.04 0 0.82 0.04 0 0.84 0.04 0 0.86 0.04 0 0.88 0.04 0 0.9 0.04 0 0.92 0.04 0 0.94 0.04 0 0.96 0.04 0 0.98 0.04 0 1 0.04 0 0 0.06 0 0.02 0.06 0 0.04 0.06 0 0.06 0.06 0 0.08 0.06 0 0.1 0.06 0 0.12 0.06 0 0.14 0.06 0 0.16 0.06 0 0.18 0.06 0 0.2 0.06 0 0.22 0.06 0 0.24 0.06 0 0.26 0.06 0 0.28 0.06 0 0.3 0.06 0 0.32 0.06 0 0.34 0.06 0 0.36 0.06 0 0.38 0.06 0 0.4 0.06 0 0.42 0.06 0 0.44 0.06 0 0.46 0.06 0 0.48 0.06 0 0.5 0.06 0 0.52 0.06 0 0.54 0.06 0 0.56 0.06 0 0.58 0.06 0 0.6 0.06 0 0.62 0.06 0 0.64 0.06 0 0.66 0.06 0 0.68 0.06 0 0.7 0.06 0 0.72 0.06 0 0.74 0.06 0 0.76 0.06 0 0.78 0.06 0 0.8 0.06 0 0.82 0.06 0 0.84 0.06 0 0.86 0.06 0 0.88 0.06 0 0.9 0.06 0 0.92 0.06 0 0.94 0.06 0 0.96 0.06 0 0.98 0.06 0 1 0.06 0 0 0.08 0 0.02 0.08 0 0.04 0.08 0 0.06 0.08 0 0.08 0.08 0 0.1 0.08 0 0.12 0.08 0 0.14 0.08 0 0.16 0.08 0 0.18 0.08 0 0.2 0.08 0 0.22 0.08 0 0.24 0.08 0 0.26 0.08 0 0.28 0.08 0 0.3 0.08 0 0.32 0.08 0 0.34 0.08 0 0.36 0.08 0 0.38 0.08 0 0.4 0.08 0 0.42 0.08 0 0.44 0.08 0 0.46 0.08 0 0.48 0.08 0 0.5 0.08 0 0.52 0.08 0 0.54 0.08 0 0.56 0.08 0 0.58 0.08 0 0.6 0.08 0 0.62 0.08 0 0.64 0.08 0 0.66 0.08 0 0.68 0.08 0 0.7 0.08 0 0.72 0.08 0 0.74 0.08 0 0.76 0.08 0 0.78 0.08 0 0.8 0.08 0 0.82 0.08 0 0.84 0.08 0 0.86 0.08 0 0.88 0.08 0 0.9 0.08 0 0.92 0.08 0 0.94 0.08 0 0.96 0.08 0 0.98 0.08 0 1 0.08 0 0 0.1 0 0.02 0.1 0 0.04 0.1 0 0.06 0.1 0 0.08 0.1 0 0.1 0.1 0 0.12 0.1 0 0.14 0.1 0 0.16 0.1 0 0.18 0.1 0 0.2 0.1 0 0.22 0.1 0 0.24 0.1 0 0.26 0.1 0 0.28 0.1 0 0.3 0.1 0 0.32 0.1 0 0.34 0.1 0 0.36 0.1 0 0.38 0.1 0 0.4 0.1 0 0.42 0.1 0 0.44 0.1 0 0.46 0.1 0 0.48 0.1 0 0.5 0.1 0 0.52 0.1 0 0.54 0.1 0 0.56 0.1 0 0.58 0.1 0 0.6 0.1 0 0.62 0.1 0 0.64 0.1 0 0.66 0.1 0 0.68 0.1 0 0.7 0.1 0 0.72 0.1 0 0.74 0.1 0 0.76 0.1 0 0.78 0.1 0 0.8 0.1 0 0.82 0.1 0 0.84 0.1 0 0.86 0.1 0 0.88 0.1 0 0.9 0.1 0 0.92 0.1 0 0.94 0.1 0 0.96 0.1 0 0.98 0.1 0 1 0.1 0 0 0.12 0 0.02 0.12 0 0.04 0.12 0 0.06 0.12 0 0.08 0.12 0 0.1 0.12 0 0.12 0.12 0 0.14 0.12 0 0.16 0.12 0 0.18 0.12 0 0.2 0.12 0 0.22 0.12 0 0.24 0.12 0 0.26 0.12 0 0.28 0.12 0 0.3 0.12 0 0.32 0.12 0 0.34 0.12 0 0.36 0.12 0 0.38 0.12 0 0.4 0.12 0 0.42 0.12 0 0.44 0.12 0 0.46 0.12 0 0.48 0.12 0 0.5 0.12 0 0.52 0.12 0 0.54 0.12 0 0.56 0.12 0 0.58 0.12 0 0.6 0.12 0 0.62 0.12 0 0.64 0.12 0 0.66 0.12 0 0.68 0.12 0 0.7 0.12 0 0.72 0.12 0 0.74 0.12 0 0.76 0.12 0 0.78 0.12 0 0.8 0.12 0 0.82 0.12 0 0.84 0.12 0 0.86 0.12 0 0.88 0.12 0 0.9 0.12 0 0.92 0.12 0 0.94 0.12 0 0.96 0.12 0 0.98 0.12 0 1 0.12 0 0 0.14 0 0.02 0.14 0 0.04 0.14 0 0.06 0.14 0 0.08 0.14 0 0.1 0.14 0 0.12 0.14 0 0.14 0.14 0 0.16 0.14 0 0.18 0.14 0 0.2 0.14 0 0.22 0.14 0 0.24 0.14 0 0.26 0.14 0 0.28 0.14 0 0.3 0.14 0 0.32 0.14 0 0.34 0.14 0 0.36 0.14 0 0.38 0.14 0 0.4 0.14 0 0.42 0.14 0 0.44 0.14 0 0.46 0.14 0 0.48 0.14 0 0.5 0.14 0 0.52 0.14 0 0.54 0.14 0 0.56 0.14 0 0.58 0.14 0 0.6 0.14 0 0.62 0.14 0 0.64 0.14 0 0.66 0.14 0 0.68 0.14 0 0.7 0.14 0 0.72 0.14 0 0.74 0.14 0 0.76 0.14 0 0.78 0.14 0 0.8 0.14 0 0.82 0.14 0 0.84 0.14 0 0.86 0.14 0 0.88 0.14 0 0.9 0.14 0 0.92 0.14 0 0.94 0.14 0 0.96 0.14 0 0.98 0.14 0 1 0.14 0 0 0.16 0 0.02 0.16 0 0.04 0.16 0 0.06 0.16 0 0.08 0.16 0 0.1 0.16 0 0.12 0.16 0 0.14 0.16 0 0.16 0.16 0 0.18 0.16 0 0.2 0.16 0 0.22 0.16 0 0.24 0.16 0 0.26 0.16 0 0.28 0.16 0 0.3 0.16 0 0.32 0.16 0 0.34 0.16 0 0.36 0.16 0 0.38 0.16 0 0.4 0.16 0 0.42 0.16 0 0.44 0.16 0 0.46 0.16 0 0.48 0.16 0 0.5 0.16 0 0.52 0.16 0 0.54 0.16 0 0.56 0.16 0 0.58 0.16 0 0.6 0.16 0 0.62 0.16 0 0.64 0.16 0 0.66 0.16 0 0.68 0.16 0 0.7 0.16 0 0.72 0.16 0 0.74 0.16 0 0.76 0.16 0 0.78 0.16 0 0.8 0.16 0 0.82 0.16 0 0.84 0.16 0 0.86 0.16 0 0.88 0.16 0 0.9 0.16 0 0.92 0.16 0 0.94 0.16 0 0.96 0.16 0 0.98 0.16 0 1 0.16 0 0 0.18 0 0.02 0.18 0 0.04 0.18 0 0.06 0.18 0 0.08 0.18 0 0.1 0.18 0 0.12 0.18 0 0.14 0.18 0 0.16 0.18 0 0.18 0.18 0 0.2 0.18 0 0.22 0.18 0 0.24 0.18 0 0.26 0.18 0 0.28 0.18 0 0.3 0.18 0 0.32 0.18 0 0.34 0.18 0 0.36 0.18 0 0.38 0.18 0 0.4 0.18 0 0.42 0.18 0 0.44 0.18 0 0.46 0.18 0 0.48 0.18 0 0.5 0.18 0 0.52 0.18 0 0.54 0.18 0 0.56 0.18 0 0.58 0.18 0 0.6 0.18 0 0.62 0.18 0 0.64 0.18 0 0.66 0.18 0 0.68 0.18 0 0.7 0.18 0 0.72 0.18 0 0.74 0.18 0 0.76 0.18 0 0.78 0.18 0 0.8 0.18 0 0.82 0.18 0 0.84 0.18 0 0.86 0.18 0 0.88 0.18 0 0.9 0.18 0 0.92 0.18 0 0.94 0.18 0 0.96 0.18 0 0.98 0.18 0 1 0.18 0 0 0.2 0 0.02 0.2 0 0.04 0.2 0 0.06 0.2 0 0.08 0.2 0 0.1 0.2 0 0.12 0.2 0 0.14 0.2 0 0.16 0.2 0 0.18 0.2 0 0.2 0.2 0 0.22 0.2 0 0.24 0.2 0 0.26 0.2 0 0.28 0.2 0 0.3 0.2 0 0.32 0.2 0 0.34 0.2 0 0.36 0.2 0 0.38 0.2 0 0.4 0.2 0 0.42 0.2 0 0.44 0.2 0 0.46 0.2 0 0.48 0.2 0 0.5 0.2 0 0.52 0.2 0 0.54 0.2 0 0.56 0.2 0 0.58 0.2 0 0.6 0.2 0 0.62 0.2 0 0.64 0.2 0 0.66 0.2 0 0.68 0.2 0 0.7 0.2 0 0.72 0.2 0 0.74 0.2 0 0.76 0.2 0 0.78 0.2 0 0.8 0.2 0 0.82 0.2 0 0.84 0.2 0 0.86 0.2 0 0.88 0.2 0 0.9 0.2 0 0.92 0.2 0 0.94 0.2 0 0.96 0.2 0 0.98 0.2 0 1 0.2 0 0 0.22 0 0.02 0.22 0 0.04 0.22 0 0.06 0.22 0 0.08 0.22 0 0.1 0.22 0 0.12 0.22 0 0.14 0.22 0 0.16 0.22 0 0.18 0.22 0 0.2 0.22 0 0.22 0.22 0 0.24 0.22 0 0.26 0.22 0 0.28 0.22 0 0.3 0.22 0 0.32 0.22 0 0.34 0.22 0 0.36 0.22 0 0.38 0.22 0 0.4 0.22 0 0.42 0.22 0 0.44 0.22 0 0.46 0.22 0 0.48 0.22 0 0.5 0.22 0 0.52 0.22 0 0.54 0.22 0 0.56 0.22 0 0.58 0.22 0 0.6 0.22 0 0.62 0.22 0 0.64 0.22 0 0.66 0.22 0 0.68 0.22 0 0.7 0.22 0 0.72 0.22 0 0.74 0.22 0 0.76 0.22 0 0.78 0.22 0 0.8 0.22 0 0.82 0.22 0 0.84 0.22 0 0.86 0.22 0 0.88 0.22 0 0.9 0.22 0 0.92 0.22 0 0.94 0.22 0 0.96 0.22 0 0.98 0.22 0 1 0.22 0 0 0.24 0 0.02 0.24 0 0.04 0.24 0 0.06 0.24 0 0.08 0.24 0 0.1 0.24 0 0.12 0.24 0 0.14 0.24 0 0.16 0.24 0 0.18 0.24 0 0.2 0.24 0 0.22 0.24 0 0.24 0.24 0 0.26 0.24 0 0.28 0.24 0 0.3 0.24 0 0.32 0.24 0 0.34 0.24 0 0.36 0.24 0 0.38 0.24 0 0.4 0.24 0 0.42 0.24 0 0.44 0.24 0 0.46 0.24 0 0.48 0.24 0 0.5 0.24 0 0.52 0.24 0 0.54 0.24 0 0.56 0.24 0 0.58 0.24 0 0.6 0.24 0 0.62 0.24 0 0.64 0.24 0 0.66 0.24 0 0.68 0.24 0 0.7 0.24 0 0.72 0.24 0 0.74 0.24 0 0.76 0.24 0 0.78 0.24 0 0.8 0.24 0 0.82 0.24 0 0.84 0.24 0 0.86 0.24 0 0.88 0.24 0 0.9 0.24 0 0.92 0.24 0 0.94 0.24 0 0.96 0.24 0 0.98 0.24 0 1 0.24 0 0 0.26 0 0.02 0.26 0 0.04 0.26 0 0.06 0.26 0 0.08 0.26 0 0.1 0.26 0 0.12 0.26 0 0.14 0.26 0 0.16 0.26 0 0.18 0.26 0 0.2 0.26 0 0.22 0.26 0 0.24 0.26 0 0.26 0.26 0 0.28 0.26 0 0.3 0.26 0 0.32 0.26 0 0.34 0.26 0 0.36 0.26 0 0.38 0.26 0 0.4 0.26 0 0.42 0.26 0 0.44 0.26 0 0.46 0.26 0 0.48 0.26 0 0.5 0.26 0 0.52 0.26 0 0.54 0.26 0 0.56 0.26 0 0.58 0.26 0 0.6 0.26 0 0.62 0.26 0 0.64 0.26 0 0.66 0.26 0 0.68 0.26 0 0.7 0.26 0 0.72 0.26 0 0.74 0.26 0 0.76 0.26 0 0.78 0.26 0 0.8 0.26 0 0.82 0.26 0 0.84 0.26 0 0.86 0.26 0 0.88 0.26 0 0.9 0.26 0 0.92 0.26 0 0.94 0.26 0 0.96 0.26 0 0.98 0.26 0 1 0.26 0 0 0.28 0 0.02 0.28 0 0.04 0.28 0 0.06 0.28 0 0.08 0.28 0 0.1 0.28 0 0.12 0.28 0 0.14 0.28 0 0.16 0.28 0 0.18 0.28 0 0.2 0.28 0 0.22 0.28 0 0.24 0.28 0 0.26 0.28 0 0.28 0.28 0 0.3 0.28 0 0.32 0.28 0 0.34 0.28 0 0.36 0.28 0 0.38 0.28 0 0.4 0.28 0 0.42 0.28 0 0.44 0.28 0 0.46 0.28 0 0.48 0.28 0 0.5 0.28 0 0.52 0.28 0 0.54 0.28 0 0.56 0.28 0 0.58 0.28 0 0.6 0.28 0 0.62 0.28 0 0.64 0.28 0 0.66 0.28 0 0.68 0.28 0 0.7 0.28 0 0.72 0.28 0 0.74 0.28 0 0.76 0.28 0 0.78 0.28 0 0.8 0.28 0 0.82 0.28 0 0.84 0.28 0 0.86 0.28 0 0.88 0.28 0 0.9 0.28 0 0.92 0.28 0 0.94 0.28 0 0.96 0.28 0 0.98 0.28 0 1 0.28 0 0 0.3 0 0.02 0.3 0 0.04 0.3 0 0.06 0.3 0 0.08 0.3 0 0.1 0.3 0 0.12 0.3 0 0.14 0.3 0 0.16 0.3 0 0.18 0.3 0 0.2 0.3 0 0.22 0.3 0 0.24 0.3 0 0.26 0.3 0 0.28 0.3 0 0.3 0.3 0 0.32 0.3 0 0.34 0.3 0 0.36 0.3 0 0.38 0.3 0 0.4 0.3 0 0.42 0.3 0 0.44 0.3 0 0.46 0.3 0 0.48 0.3 0 0.5 0.3 0 0.52 0.3 0 0.54 0.3 0 0.56 0.3 0 0.58 0.3 0 0.6 0.3 0 0.62 0.3 0 0.64 0.3 0 0.66 0.3 0 0.68 0.3 0 0.7 0.3 0 0.72 0.3 0 0.74 0.3 0 0.76 0.3 0 0.78 0.3 0 0.8 0.3 0 0.82 0.3 0 0.84 0.3 0 0.86 0.3 0 0.88 0.3 0 0.9 0.3 0 0.92 0.3 0 0.94 0.3 0 0.96 0.3 0 0.98 0.3 0 1 0.3 0 0 0.32 0 0.02 0.32 0 0.04 0.32 0 0.06 0.32 0 0.08 0.32 0 0.1 0.32 0 0.12 0.32 0 0.14 0.32 0 0.16 0.32 0 0.18 0.32 0 0.2 0.32 0 0.22 0.32 0 0.24 0.32 0 0.26 0.32 0 0.28 0.32 0 0.3 0.32 0 0.32 0.32 0 0.34 0.32 0 0.36 0.32 0 0.38 0.32 0 0.4 0.32 0 0.42 0.32 0 0.44 0.32 0 0.46 0.32 0 0.48 0.32 0 0.5 0.32 0 0.52 0.32 0 0.54 0.32 0 0.56 0.32 0 0.58 0.32 0 0.6 0.32 0 0.62 0.32 0 0.64 0.32 0 0.66 0.32 0 0.68 0.32 0 0.7 0.32 0 0.72 0.32 0 0.74 0.32 0 0.76 0.32 0 0.78 0.32 0 0.8 0.32 0 0.82 0.32 0 0.84 0.32 0 0.86 0.32 0 0.88 0.32 0 0.9 0.32 0 0.92 0.32 0 0.94 0.
[...]
			<PointData Scalars="VitesseX">
				<DataArray Name="VitesseX" type="Float32" format="ascii">
 -0 -nan 0 0 0 0 0 0 0 0 0 0 0 0 0 0 0 0 0 0 0 0 0 0 0 0 0 0 0 0 0 0 0 0 0 0 0 0 0 0 0 0 0 0 0 0 0 0 0 0 -0 0 -0.00109638 -0.00284146 -0.00542038 -0.00879801 -0.0129191 -0.017723 -0.0231348 -0.0290717 -0.0354412 -0.0421449 -0.0490787 -0.0561564 -0.0632712 -0.0702928 -0.0771109 -0.0836174 -0.0897098 -0.0953008 -0.100304 -0.104646 -0.108235 -0.111032 -0.112769 -0.116901 -0.12612 -0.131275 -0.132389 -0.129964 -0.128016 -0.124944 -0.120122 -0.114228 -0.107434 -0.0996266 -0.090994 -0.0828019 -0.0752247 -0.0659762 -0.0566244 -0.0491053 -0.0403677 -0.0330388 -0.0261774 -0.0197675 -0.0141287 -0.00927332 -0.00533563 -0.00242301 -0.00061335 -8.41217e-27 0 -0.0021547 -0.00559838 -0.0107041 -0.0173959 -0.0255705 -0.0351048 -0.0458516 -0.0576455 -0.0703026 -0.0836258 -0.0974086 -0.11148 -0.125627 -0.139588 -0.153137 -0.166058 -0.178156 -0.189259 -0.199195 -0.207799 -0.214905 -0.220431 -0.223858 -0.227808 -0.235534 -0.239935 -0.240763 -0.238262 -0.232633 -0.225052 -0.215833 -0.204944 -0.192633 -0.179246 -0.164905 -0.149801 -0.13431 -0.118605 -0.102756 -0.0878194 -0.0722698 -0.0587119 -0.0462019 -0.0347121 -0.024652 -0.0160947 -0.00921038 -0.00415664 -0.00104933 -1.30202e-26 0 -0.00315175 -0.00822264 -0.0157591 -0.0256493 -0.0377439 -0.0518579 -0.0677732 -0.0852464 -0.104006 -0.123756 -0.144191 -0.165056 -0.186044 -0.206763 -0.226873 -0.246052 -0.264006 -0.280448 -0.295125 -0.307622 -0.318033 -0.32615 -0.33131 -0.337144 -0.344099 -0.346309 -0.345056 -0.339906 -0.331578 -0.320561 -0.307182 -0.291535 -0.273909 -0.254721 -0.234245 -0.212824 -0.190801 -0.16854 -0.146404 -0.124682 -0.103583 -0.083848 -0.0654016 -0.0491272 -0.0347677 -0.0226585 -0.0129386 -0.00582376 -0.00146882 -1.74306e-26 0 -0.00407082 -0.010672 -0.0205047 -0.0334268 -0.0492461 -0.0677168 -0.0885529 -0.111441 -0.136037 -0.161955 -0.188792 -0.216193 -0.243715 -0.270823 -0.297088 -0.322091 -0.345575 -0.366793 -0.386002 -0.402657 -0.4164 -0.427022 -0.433709 -0.440011 -0.445369 -0.446526 -0.443736 -0.436484 -0.425447 -0.411025 -0.393594 -0.373364 -0.350641 -0.325909 -0.299603 -0.272112 -0.243873 -0.215352 -0.18703 -0.159328 -0.13268 -0.107557 -0.0838546 -0.0628577 -0.044341 -0.0288619 -0.0164625 -0.00739894 -0.00186535 -2.15777e-26 0 -0.004894 -0.0129008 -0.02486 -0.0406055 -0.0599109 -0.0824811 -0.107962 -0.135952 -0.166004 -0.197633 -0.230343 -0.263719 -0.297263 -0.330412 -0.362179 -0.392757 -0.421753 -0.447866 -0.471128 -0.491356 -0.508114 -0.521142 -0.529586 -0.536148 -0.540169 -0.540278 -0.53583 -0.526437 -0.512701 -0.494984 -0.473708 -0.449154 -0.421647 -0.391751 -0.360023 -0.326904 -0.292908 -0.258594 -0.224535 -0.191231 -0.159208 -0.128966 -0.100994 -0.0753216 -0.0532652 -0.0346119 -0.0197275 -0.00885822 -0.00223279 -2.53991e-26 0 -0.00561342 -0.0148942 -0.0288031 -0.0471419 -0.0696292 -0.0959094 -0.125568 -0.158143 -0.193122 -0.229983 -0.268128 -0.307054 -0.345799 -0.384494 -0.421663 -0.457781 -0.491211 -0.521783 -0.549054 -0.572607 -0.592064 -0.60715 -0.617197 -0.623969 -0.626856 -0.625954 -0.619798 -0.60831 -0.591969 -0.571142 -0.546297 -0.517752 -0.485857 -0.451259 -0.414603 -0.37638 -0.337175 -0.297627 -0.258391 -0.220029 -0.183144 -0.148319 -0.116068 -0.0866735 -0.0613349 -0.0398214 -0.0226826 -0.0101794 -0.00256541 -2.88366e-26 0 -0.00624775 -0.0166548 -0.0322639 -0.05284 -0.0780702 -0.107571 -0.140898 -0.177539 -0.21697 -0.258562 -0.301202 -0.345598 -0.389804 -0.433439 -0.475652 -0.515868 -0.553473 -0.587882 -0.618548 -0.644999 -0.666814 -0.683681 -0.695056 -0.702056 -0.703957 -0.702106 -0.694273 -0.680784 -0.662011 -0.638335 -0.610261 -0.578128 -0.542314 -0.503546 -0.462529 -0.419804 -0.376015 -0.331868 -0.28809 -0.245294 -0.204148 -0.1653 -0.129363 -0.0968854 -0.068308 -0.0444057 -0.0252821 -0.0113423 -0.00285798 -3.18367e-26 0 -0.00675243 -0.0180845 -0.0351076 -0.0575715 -0.0851354 -0.11742 -0.153966 -0.194132 -0.237568 -0.282776 -0.330133 -0.379358 -0.427877 -0.475609 -0.521896 -0.566005 -0.607232 -0.644924 -0.678481 -0.707384 -0.731179 -0.749522 -0.761956 -0.769033 -0.770336 -0.767413 -0.758053 -0.742723 -0.721753 -0.695546 -0.664638 -0.629382 -0.590186 -0.547842 -0.503091 -0.456531 -0.408849 -0.360808 -0.313189 -0.266649 -0.221905 -0.179659 -0.140581 -0.105288 -0.0744205 -0.0483205 -0.0274867 -0.012329 -0.00310594 -3.43522e-26 0 -0.00710011 -0.0191507 -0.0373074 -0.0613009 -0.0908153 -0.125397 -0.164583 -0.2078 -0.254531 -0.304243 -0.35534 -0.407188 -0.459194 -0.510442 -0.560121 -0.607436 -0.651629 -0.691994 -0.727892 -0.758763 -0.78413 -0.803624 -0.816851 -0.823906 -0.824794 -0.820824 -0.810112 -0.793157 -0.770285 -0.74192 -0.70861 -0.670742 -0.628764 -0.583486 -0.535684 -0.486014 -0.435187 -0.384013 -0.333312 -0.283772 -0.236148 -0.191181 -0.149585 -0.112027 -0.0791047 -0.0513266 -0.0292641 -0.0131242 -0.00330545 -3.63433e-26 0 -0.00728326 -0.0198256 -0.0388442 -0.0640515 -0.0950765 -0.131362 -0.172735 -0.21902 -0.268658 -0.320572 -0.374087 -0.428668 -0.483452 -0.537421 -0.589713 -0.639486 -0.685938 -0.728327 -0.765978 -0.798307 -0.824817 -0.845124 -0.858878 -0.865845 -0.866366 -0.861486 -0.849617 -0.8313 -0.806864 -0.776754 -0.74152 -0.701596 -0.657472 -0.609949 -0.559824 -0.507811 -0.454634 -0.401135 -0.348154 -0.296404 -0.24666 -0.199691 -0.15624 -0.117006 -0.0826154 -0.0536601 -0.0305868 -0.0137155 -0.00345352 -3.77792e-26 0 -0.00738195 -0.0202846 -0.0398311 -0.0657595 -0.0980149 -0.135663 -0.178413 -0.226602 -0.278072 -0.331614 -0.387016 -0.443538 -0.500249 -0.556094 -0.610177 -0.661621 -0.709593 -0.753325 -0.792121 -0.825378 -0.852589 -0.873363 -0.887382 -0.894177 -0.894376 -0.888734 -0.875929 -0.856545 -0.83092 -0.799511 -0.762876 -0.721485 -0.675879 -0.626832 -0.575148 -0.521595 -0.466896 -0.411913 -0.35749 -0.304351 -0.25328 -0.205057 -0.160442 -0.120155 -0.0848436 -0.0550794 -0.0313827 -0.0140938 -0.00354799 -3.86385e-26 0 -0.00736576 -0.0204106 -0.0402493 -0.0666321 -0.0990432 -0.137553 -0.181708 -0.231121 -0.28299 -0.337514 -0.393962 -0.451546 -0.509299 -0.566147 -0.621171 -0.673475 -0.722209 -0.766589 -0.805906 -0.839551 -0.867015 -0.887903 -0.901938 -0.908401 -0.908151 -0.901529 -0.887755 -0.86741 -0.840835 -0.808492 -0.770933 -0.728656 -0.682241 -0.632433 -0.580029 -0.525828 -0.470541 -0.415039 -0.360145 -0.306582 -0.255124 -0.206544 -0.161599 -0.121013 -0.0854416 -0.0554608 -0.0316259 -0.0142024 -0.00357337 -3.89091e-26 0 -0.00723743 -0.0201946 -0.0399402 -0.0663008 -0.0991365 -0.1382 -0.182559 -0.231042 -0.282785 -0.337318 -0.393783 -0.451384 -0.509154 -0.566019 -0.62106 -0.673379 -0.722125 -0.766513 -0.805839 -0.839489 -0.866957 -0.88785 -0.901898 -0.908331 -0.907992 -0.901028 -0.886921 -0.866265 -0.839405 -0.806803 -0.769008 -0.726543 -0.680019 -0.63017 -0.577763 -0.523612 -0.468448 -0.413128 -0.358449 -0.305125 -0.253915 -0.205575 -0.160851 -0.120459 -0.0850538 -0.0552118 -0.0315047 -0.0141475 -0.00355902 -3.85876e-26 0 -0.00706188 -0.0197894 -0.0392128 -0.0653432 -0.0973537 -0.135326 -0.180348 -0.227952 -0.279069 -0.332964 -0.388765 -0.445682 -0.502738 -0.558871 -0.613167 -0.66473 -0.712715 -0.756344 -0.794918 -0.827836 -0.854601 -0.87483 -0.888266 -0.894087 -0.893496 -0.886214 -0.871941 -0.851228 -0.824432 -0.792017 -0.754538 -0.712546 -0.666653 -0.617564 -0.566004 -0.512774 -0.458634 -0.404411 -0.350853 -0.298657 -0.248549 -0.201256 -0.157497 -0.117967 -0.0833084 -0.0540868 -0.0307954 -0.0138505 -0.00348917 -3.76784e-26 0 -0.00677469 -0.0191022 -0.0380215 -0.0631979 -0.0943875 -0.131742 -0.175045 -0.221273 -0.270974 -0.323381 -0.377635 -0.432969 -0.488408 -0.542922 -0.595612 -0.645604 -0.692071 -0.734252 -0.771467 -0.803132 -0.828769 -0.848013 -0.860621 -0.865775 -0.864974 -0.857453 -0.843201 -0.822722 -0.796382 -0.76465 -0.728075 -0.687222 -0.642696 -0.595176 -0.545351 -0.4939 -0.441574 -0.389289 -0.337697 -0.287453 -0.239243 -0.193751 -0.151656 -0.11362 -0.0802577 -0.0521182 -0.029674 -0.0133563 -0.00336534 -3.61935e-26 0 -0.00639195 -0.0180832 -0.0360723 -0.0601678 -0.0904447 -0.126309 -0.167029 -0.211213 -0.258748 -0.308873 -0.360761 -0.413675 -0.466655 -0.518718 -0.568997 -0.616646 -0.66087 -0.700936 -0.736197 -0.766033 -0.790024 -0.807923 -0.819505 -0.823898 -0.822856 -0.815139 -0.801066 -0.781093 -0.755596 -0.725034 -0.689937 -0.650873 -0.608433 -0.56325 -0.515967 -0.467206 -0.417595 -0.368016 -0.319177 -0.271683 -0.226137 -0.183171 -0.143415 -0.107479 -0.0759457 -0.0493342 -0.0280975 -0.0126473 -0.00318932 -3.41538e-26 0 -0.00593484 -0.0168247 -0.0335891 -0.0563088 -0.0849599 -0.118533 -0.156455 -0.197941 -0.242597 -0.289691 -0.338437 -0.388142 -0.437862 -0.486671 -0.533729 -0.57822 -0.619389 -0.656574 -0.689241 -0.716844 -0.738972 -0.755329 -0.765677 -0.769148 -0.767786 -0.75993 -0.746239 -0.727069 -0.702795 -0.673863 -0.64078 -0.604096 -0.564389 -0.522242 -0.47824 -0.432974 -0.38697 -0.340934 -0.295588 -0.251587 -0.20943 -0.169673 -0.132895 -0.0996376 -0.0704365 -0.0457759 -0.0260817 -0.0117318 -0.00296385 -3.15917e-26 0 -0.00539575 -0.015336 -0.0307075 -0.0516556 -0.0779716 -0.108785 -0.143388 -0.181555 -0.222667 -0.266031 -0.310906 -0.35665 -0.402343 -0.447139 -0.490257 -0.530951 -0.568553 -0.602453 -0.632118 -0.657067 -0.676905 -0.691315 -0.700019 -0.702522 -0.700589 -0.692735 -0.67964 -0.661564 -0.638876 -0.61201 -0.581444 -0.547693 -0.511295 -0.472804 -0.432769 -0.391699 -0.350058 -0.308421 -0.267344 -0.227474 -0.189379 -0.153466 -0.120256 -0.0902125 -0.0638128 -0.041497 -0.0236575 -0.0106307 -0.00269064 -2.85536e-26 0 -0.00478026 -0.0136202 -0.0273816 -0.0462041 -0.0697624 -0.0973289 -0.128288 -0.162584 -0.199552 -0.238556 -0.278912 -0.320034 -0.361054 -0.401217 -0.439813 -0.476173 -0.509691 -0.539797 -0.565973 -0.587755 -0.604779 -0.616818 -0.623537 -0.625103 -0.622321 -0.614611 -0.602281 -0.585577 -0.564833 -0.540443 -0.512863 -0.482568 -0.45003 -0.415757 -0.380267 -0.344022 -0.3074 -0.270866 -0.23481 -0.199766 -0.166292 -0.134798 -0.105693 -0.0793479 -0.0561752 -0.036562 -0.0208615 -0.00938028 -0.00237557 -2.50954e-26 0 -0.00410213 -0.0117177 -0.0236313 -0.0399849 -0.0604773 -0.0844394 -0.111397 -0.141349 -0.173662 -0.207765 -0.243043 -0.278971 -0.314748 -0.349713 -0.383228 -0.414686 -0.4435 -0.469154 -0.491231 -0.509371 -0.523313 -0.532878 -0.537562 -0.538055 -0.534265 -0.526753 -0.515317 -0.500201 -0.481703 -0.460167 -0.436036 -0.409697 -0.381541 -0.352028 -0.321601 -0.290688 -0.259663 -0.22881 -0.198405 -0.168821 -0.140522 -0.11396 -0.0894298 -0.0672111 -0.0476406 -0.0310465 -0.0177362 -0.00798391 -0.00201959 -2.12711e-26 0 -0.00336732 -0.00965773 -0.0195314 -0.0331325 -0.0502727 -0.0703511 -0.0928548 -0.118045 -0.145259 -0.173991 -0.203705 -0.233917 -0.263921 -0.293141 -0.321017 -0.347017 -0.370658 -0.391527 -0.409256 -0.423561 -0.43427 -0.441171 -0.443761 -0.442879 -0.438071 -0.430563 -0.420196 -0.406832 -0.39082 -0.372483 -0.35218 -0.3302 -0.306881 -0.282596 -0.257709 -0.232594 -0.2076 -0.182911 -0.158674 -0.13509 -0.112495 -0.0912764 -0.0717184 -0.0539894 -0.0383406 -0.0250349 -0.0143293 -0.00646163 -0.00163318 -1.71192e-26 0 -0.00258666 -0.00746999 -0.015166 -0.0258003 -0.039344 -0.0552713 -0.0730932 -0.0931719 -0.114906 -0.137863 -0.161606 -0.18567 -0.209484 -0.23255 -0.25439 -0.274561 -0.292692 -0.308469 -0.321613 -0.331965 -0.339399 -0.343384 -0.344094 -0.341109 -0.335285 -0.327586 -0.318479 -0.307083 -0.293792 -0.278881 -0.262616 -0.245279 -0.227166 -0.208511 -0.189567 -0.170667 -0.152057 -0.133897 -0.116226 -0.0990716 -0.0825999 -0.0670962 -0.0528313 -0.0398882 -0.0284193 -0.0186204 -0.0106938 -0.00483726 -0.00122665 -1.27668e-26 0 -0.00177544 -0.00519483 -0.0106372 -0.0181826 -0.0279256 -0.0395225 -0.0525264 -0.0672312 -0.0831887 -0.100059 -0.117497 -0.135085 -0.152384 -0.168991 -0.18452 -0.19862 -0.211 -0.221394 -0.229623 -0.235706 -0.239476 -0.24074 -0.239516 -0.234884 -0.228162 -0.219375 -0.211589 -0.202259 -0.191848 -0.180573 -0.168628 -0.15622 -0.143552 -0.130827 -0.118203 -0.105842 -0.0939221 -0.0825624 -0.0717307 -0.0613067 -0.0512755 -0.0417915 -0.0330578 -0.0251242 -0.0180288 -0.0119004 -0.00688385 -0.00313431 -0.000799217 -8.27256e-27 0 -0.00095765 -0.00289274 -0.00606074 -0.010507 -0.0163301 -0.0234944 -0.0315289 -0.0406892 -0.0506754 -0.0612396 -0.0721264 -0.0829953 -0.0935308 -0.103422 -0.112379 -0.120147 -0.126521 -0.131328 -0.134451 -0.135988 -0.135993 -0.134266 -0.131125 -0.125797 -0.119909 -0.107551 -0.101009 -0.0938044 -0.0864096 -0.0789235 -0.0714717 -0.0641949 -0.057223 -0.0506626 -0.0445897 -0.0390436 -0.0340632 -0.0297013 -0.0258823 -0.0223762 -0.0189945 -0.0157309 -0.0126997 -0.00992573 -0.00733391 -0.00498528 -0.00296594 -0.00138583 -0.000361922 -3.5782e-27 0 -0.000197122 -0.000703139 -0.00164349 -0.00306849 -0.00500412 -0.00764538 -0.0106311 -0.0141752 -0.0180654 -0.0221728 -0.0263097 -0.0302713 -0.0338447 -0.0368216 -0.0390125 -0.0402503 -0.0404475 -0.0395247 -0.0374707 -0.0343899 -0.0303058 -0.0253719 -0.0199134 -0.0140044 -0.0149599 0.00693757 0.0121914 0.0169508 0.021089 0.0246208 0.0274448 0.0294565 0.0305975 0.0308444 0.0302197 0.0287846 0.026656 0.023893 0.0206186 0.0171324 0.013774 0.0107136 0.0079406 0.00548392 0.00350444 0.00201749 0.000997261 0.000381462 8.41313e-05 8.43194e-28 0 0.000292034 0.00109514 0.00231472 0.00386686 0.00572015 0.00763898 0.00975867 0.011876 0.0142075 0.0167097 0.019455 0.0225355 0.0260513 0.030099 0.0347588 0.0400833 0.0460873 0.0527383 0.0599535 0.0677315 0.0757875 0.0840077 0.0921675 0.100198 0.101623 0.119646 0.125406 0.127546 0.128447 0.128036 0.126247 0.122987 0.118276 0.112192 0.104853 0.0964252 0.0871473 0.0772363 0.0669027 0.0564834 0.0464334 0.0370827 0.0285378 0.0208858 0.0143688 0.00907581 0.00504121 0.00224549 0.000623085 5.35245e-27 0 0.000719386 0.00282283 0.00620794 0.0107527 0.0163131 0.0227443 0.03 0.0378278 0.0463551 0.0554179 0.0649827 0.0750276 0.0855369 0.0964926 0.107865 0.119602 0.131628 0.143829 0.156099 0.168384 0.18022 0.191682 0.202477 0.212558 0.218813 0.230594 0.235914 0.235878 0.233856 0.229688 0.223367 0.214918 0.204446 0.192123 0.178171 0.162865 0.146541 0.129577 0.112299 0.0950963 0.0785102 0.0630074 0.0488176 0.0360964 0.0251363 0.0161133 0.0091104 0.00415147 0.00119123 1.00102e-26 0 0.0011575 0.00455834 0.0100785 0.0175689 0.0268598 0.0377601 0.0499036 0.0633298 0.0778311 0.0932694 0.109465 0.12628 0.143585 0.161248 0.179128 0.197081 0.214934 0.232494 0.249639 0.26618 0.281602 0.296077 0.309192 0.320911 0.328046 0.338361 0.342556 0.34058 0.335684 0.327864 0.317162 0.303688 0.28764 0.269283 0.24894 0.226993 0.203874 0.180078 0.156074 0.132347 0.109481 0.0880567 0.0684316 0.0508469 0.0356112 0.022976 0.0130932 0.00602425 0.00174842 1.4583e-26 0 0.00156532 0.00619198 0.0137431 0.0240396 0.0368738 0.0520252 0.0690855 0.0877865 0.107903 0.12947 0.152038 0.17536 0.199193 0.223294 0.247438 0.271346 0.294757 0.317403 0.339156 0.359671 0.378424 0.395595 0.410719 0.423735 0.431331 0.441429 0.4437 0.43994 0.432264 0.420939 0.406052 0.387796 0.366451 0.342369 0.315969 0.287734 0.258195 0.227918 0.197529 0.167639 0.138845 0.111822 0.0870564 0.0648777 0.0456015 0.0295391 0.0169061 0.00781474 0.00227915 1.89569e-26 0 0.00195562 0.00774475 0.0172157 0.0301632 0.0463351 0.0654444 0.0870983 0.110834 0.136276 0.163597 0.192165 0.221609 0.251584 0.28176 0.311781 0.341271 0.369881 0.397265 0.423281 0.447432 0.469197 0.488735 0.505589 0.519616 0.527878 0.537982 0.538062 0.532354 0.522035 0.507386 0.488569 0.465848 0.439571 0.410169 0.37815 0.344087 0.308606 0.272323 0.236015 0.200415 0.166131 0.133921 0.104393 0.0779563 0.0549304 0.0356862 0.0204862 0.00949472 0.00276888 2.30491e-26 0 0.00231115 0.00916534 0.0203996 0.0357864 0.0550401 0.0778171 0.103725 0.132324 0.162848 0.195062 0.229145 0.264248 0.299896 0.335691 0.371131 0.40576 0.43914 0.470851 0.500722 0.528127 0.552549 0.574119 0.592411 0.607177 0.616636 0.62613 0.624057 0.61638 0.603555 0.585818 0.563391 0.53659 0.505822 0.47159 0.434479 0.395144 0.354291 0.312582 0.270924 0.230154 0.190906 0.154003 0.120164 0.0898734 0.0634414 0.0413041 0.0237692 0.0110409 0.00321775 2.67908e-26 0 0.00263339 0.0104488 0.0232717 0.0408536 0.062881 0.088982 0.118728 0.151527 0.186631 0.223466 0.262466 0.302657 0.34342 0.384272 0.424585 0.463823 0.501466 0.537024 0.570291 0.600527 0.627225 0.65049 0.669902 0.685163 0.697465 0.703992 0.700272 0.690721 0.67558 0.655046 0.629376 0.59893 0.564175 0.525675 0.484079 0.440108 0.394535 0.348061 0.301706 0.256393 0.212785 0.171759 0.13412 0.100425 0.0709895 0.0462988 0.0266966 0.0124237 0.00362317 3.0117e-26 0 0.00291289 0.0115648 0.0257726 0.0452692 0.0697135 0.0986991 0.131761 0.168288 0.207775 0.249132 0.291793 0.336238 0.381465 0.426734 0.471303 0.514553 0.555888 0.594758 0.630915 0.663528 0.692104 0.716713 0.736887 0.752976 0.768679 0.770357 0.765514 0.754303 0.73709 0.714075 0.68556 0.651955 0.613771 0.571622 0.526206 0.478298 0.428724 0.378209 0.327882 0.278725 0.231427 0.186922 0.146067 0.109461 0.0774577 0.0505783 0.0292075 0.0136181 0.00397859 3.29713e-26 0 0.00314833 0.0125032 0.0278738 0.0489784 0.0754525 0.106857 0.142687 0.182348 0.225203 0.270765 0.317284 0.364563 0.41345 0.462429 0.510562 0.557159 0.601559 0.643156 0.681656 0.716168 0.746207 0.771774 0.792399 0.812001 0.825132 0.824667 0.818699 0.806107 0.787143 0.762046 0.73116 0.694936 0.653929 0.608791 0.560264 0.509163 0.456355 0.402573 0.349055 0.296807 0.246545 0.199259 0.155828 0.116858 0.0827589 0.0540915 0.0312695 0.0145964 0.00426571 3.53098e-26 0 0.00333396 0.0132447 0.0295363 0.0519155 0.0800009 0.113329 0.151363 0.193502 0.239038 0.28733 0.336885 0.387076 0.438876 0.490791 0.541743 0.590971 0.63776 0.681457 0.721728 0.757637 0.788705 0.814735 0.837911 0.860142 0.867201 0.865968 0.85906 0.845266 0.824855 0.798095 0.765358 0.727119 0.683959 0.63656 0.585693 0.532204 0.476987 0.420784 0.364912 0.310369 0.257905 0.208576 0.163245 0.122479 0.0867983 0.0567855 0.0328629 0.0153547 0.0044888 3.70973e-26 0 0.00346833 0.013781 0.0307389 0.0540408 0.0832933 0.118017 0.157656 0.201584 0.249081 0.299427 0.351943 0.404744 0.457695 0.511495 0.564381 0.615457 0.663919 0.70906 0.750506 0.787287 0.818861 0.847027 0.875389 0.889901 0.895404 0.89371 0.886019 0.87127 0.849763 0.821789 0.787735 0.748092 0.703461 0.654546 0.60214 0.547101 0.490332 0.432609 0.375242 0.319213 0.265334 0.214728 0.168209 0.126221 0.0894894 0.0585854 0.0339371 0.0158804 0.00465385 3.83037e-26 0 0.0035484 0.0141018 0.0314601 0.0553181 0.0852755 0.120844 0.161454 0.206464 0.255159 0.306774 0.360552 0.415643 0.471125 0.525561 0.578471 0.630262 0.679621 0.725526 0.767506 0.804646 0.838974 0.87126 0.891829 0.904557 0.909384 0.907138 0.898634 0.883072 0.860739 0.831929 0.797039 0.756585 0.711189 0.661565 0.608502 0.552847 0.495449 0.437212 0.379344 0.322773 0.268393 0.217351 0.17041 0.12788 0.0907145 0.0594258 0.0344482 0.0161339 0.00473624 3.89091e-26 0 0.00357336 0.0142023 0.0316872 0.0557217 0.0859032 0.12174 0.162658 0.20801 0.257084 0.30912 0.363315 0.418784 0.474614 0.530174 0.583657 0.63517 0.684513 0.730491 0.772732 0.812546 0.846339 0.872514 0.891974 0.904602 0.909249 0.906874 0.898165 0.882403 0.859876 0.83089 0.795868 0.755344 0.709942 0.660368 0.607396 0.551858 0.494548 0.436484 0.378805 0.322383 0.26818 0.217258 0.170343 0.127863 0.0907315 0.0594533 0.0344741 0.0161523 0.00474526 3.8904e-26 0 0.00356747 0.0141763 0.0316235 0.0556004 0.0857023 0.121436 0.162227 0.207429 0.256334 0.308204 0.362247 0.417534 0.473103 0.528384 0.58182 0.633819 0.682674 0.725833 0.765987 0.802746 0.834146 0.85952 0.878426 0.890577 0.894773 0.892235 0.883338 0.867504 0.845049 0.816302 0.781696 0.741753 0.697068 0.648329 0.596288 0.541762 0.485476 0.428521 0.371936 0.316594 0.263493 0.21353 0.167338 0.125681 0.0892177 0.0584825 0.0339245 0.0159026 0.00467591 3.8288e-26 0 0.00348174 0.0138376 0.0308709 0.0542811 0.0836735 0.118566 0.158397 0.202535 0.250283 0.300906 0.353667 0.407689 0.461951 0.5157 0.568177 0.619521 0.660144 0.702124 0.742424 0.778011 0.808256 0.832653 0.85079 0.862394 0.866219 0.863577 0.854672 0.839093 0.81