<?xml version="1.0"?>
<VTKFile type="PolyData">
	<PolyData>
		<Piece NumberOfPoints="2601" NumberOfPolys="2500">
			<Points>
				<DataArray type="Float32" NumberOfComponents="3" format="ascii">
 0 0 0 0.02 0 0 0.04 0 0 0.06 0 0 0.08 0 0 0.1 0 0 0.12 0 0 0.14 0 0 0.16 0 0 0.18 0 0 0.2 0 0 0.22 0 0 0.24 0 0 0.26 0 0 0.28 0 0 0.3 0 0 0.32 0 0 0.34 0 0 0.36 0 0 0.38 0 0 0.4 0 0 0.42 0 0 0.44 0 0 0.46 0 0 0.48 0 0 0.5 0 0 0.52 0 0 0.54 0 0 0.56 0 0 0.58 0 0 0.6 0 0 0.62 0 0 0.64 0 0 0.66 0 0 0.68 0 0 0.7 0 0 0.72 0 0 0.74 0 0 0.76 0 0 0.78 0 0 0.8 0 0 0.82 0 0 0.84 0 0 0.86 0 0 0.88 0 0 0.9 0 0 0.92 0 0 0.94 0 0 0.96 0 0 0.98 0 0 1 0 0 0 0.02 0 0.02 0.02 0 0.04 0.02 0 0.06 0.02 0 0.08 0.02 0 0.1 0.02 0 0.12 0.02 0 0.14 0.02 0 0.16 0.02 0 0.18 0.02 0 0.2 0.02 0 0.22 0.02 0 0.24 0.02 0 0.26 0.02 0 0.28 0.02 0 0.3 0.02 0 0.32 0.02 0 0.34 0.02 0 0.36 0.02 0 0.38 0.02 0 0.4 0.02 0 0.42 0.02 0 0.44 0.02 0 0.46 0.02 0 0.48 0.02 0 0.5 0.02 0 0.52 0.02 0 0.54 0.02 0 0.56 0.02 0 0.58 0.02 0 0.6 0.02 0 0.62 0.02 0 0.64 0.02 0 0.66 0.02 0 0.68 0.02 0 0.7 0.02 0 0.72 0.02 0 0.74 0.02 0 0.76 0.02 0 0.78 0.02 0 0.8 0.02 0 0.82 0.02 0 0.84 0.02 0 0.86 0.02 0 0.88 0.02 0 0.9 0.02 0 0.92 0.02 0 0.94 0.02 0 0.96 0.02 0 0.98 0.02 0 1 0.02 0 0 0.04 0 0.02 0.04 0 0.04 0.04 0 0.06 0.04 0 0.08 0.04 0 0.1 0.04 0 0.12 0.04 0 0.14 0.04 0 0.16 0.04 0 0.18 0.04 0 0.2 0.04 0 0.22 0.04 0 0.24 0.04 0 0.26 0.04 0 0.28 0.04 0 0.3 0.04 0 0.32 0.04 0 0.34 0.04 0 0.36 0.04 0 0.38 0.04 0 0.4 0.04 0 0.42 0.04 0 0.44 0.04 0 0.46 0.04 0 0.48 0.04 0 0.5 0.04 0 0.52 0.04 0 0.54 0.04 0 0.56 0.04 0 0.58 0.04 0 0.6 0.04 0 0.62 0.04 0 0.64 0.04 0 0.66 0.04 0 0.68 0.04 0 0.7 0.04 0 0.72 0.04 0 0.74 0.04 0 0.76 0.04 0 0.78 0.04 0 0.8 0.04 0 0.82 0.04 0 0.84 0.04 0 0.86 0.04 0 0.88 0.04 0 0.9 0.04 0 0.92 0.04 0 0.94 0.04 0 0.96 0.04 0 0.98 0.04 0 1 0.04 0 0 0.06 0 0.02 0.06 0 0.04 0.06 0 0.06 0.06 0 0.08 0.06 0 0.1 0.06 0 0.12 0.06 0 0.14 0.06 0 0.16 0.06 0 0.18 0.06 0 0.2 0.06 0 0.22 0.06 0 0.24 0.06 0 0.26 0.06 0 0.28 0.06 0 0.3 0.06 0 0.32 0.06 0 0.34 0.06 0 0.36 0.06 0 0.38 0.06 0 0.4 0.06 0 0.42 0.06 0 0.44 0.06 0 0.46 0.06 0 0.48 0.06 0 0.5 0.06 0 0.52 0.06 0 0.54 0.06 0 0.56 0.06 0 0.58 0.06 0 0.6 0.06 0 0.62 0.06 0 0.64 0.06 0 0.66 0.06 0 0.68 0.06 0 0.7 0.06 0 0.72 0.06 0 0.74 0.06 0 0.76 0.06 0 0.78 0.06 0 0.8 0.06 0 0.82 0.06 0 0.84 0.06 0 0.86 0.06 0 0.88 0.06 0 0.9 0.06 0 0.92 0.06 0 0.94 0.06 0 0.96 0.06 0 0.98 0.06 0 1 0.06 0 0 0.08 0 0.02 0.08 0 0.04 0.08 0 0.06 0.08 0 0.08 0.08 0 0.1 0.08 0 0.12 0.08 0 0.14 0.08 0 0.16 0.08 0 0.18 0.08 0 0.2 0.08 0 0.22 0.08 0 0.24 0.08 0 0.26 0.08 0 0.28 0.08 0 0.3 0.08 0 0.32 0.08 0 0.34 0.08 0 0.36 0.08 0 0.38 0.08 0 0.4 0.08 0 0.42 0.08 0 0.44 0.08 0 0.46 0.08 0 0.48 0.08 0 0.5 0.08 0 0.52 0.08 0 0.54 0.08 0 0.56 0.08 0 0.58 0.08 0 0.6 0.08 0 0.62 0.08 0 0.64 0.08 0 0.66 0.08 0 0.68 0.08 0 0.7 0.08 0 0.72 0.08 0 0.74 0.08 0 0.76 0.08 0 0.78 0.08 0 0.8 0.08 0 0.82 0.08 0 0.84 0.08 0 0.86 0.08 0 0.88 0.08 0 0.9 0.08 0 0.92 0.08 0 0.94 0.08 0 0.96 0.08 0 0.98 0.08 0 1 0.08 0 0 0.1 0 0.02 0.1 0 0.04 0.1 0 0.06 0.1 0 0.08 0.1 0 0.1 0.1 0 0.12 0.1 0 0.14 0.1 0 0.16 0.1 0 0.18 0.1 0 0.2 0.1 0 0.22 0.1 0 0.24 0.1 0 0.26 0.1 0 0.28 0.1 0 0.3 0.1 0 0.32 0.1 0 0.34 0.1 0 0.36 0.1 0 0.38 0.1 0 0.4 0.1 0 0.42 0.1 0 0.44 0.1 0 0.46 0.1 0 0.48 0.1 0 0.5 0.1 0 0.52 0.1 0 0.54 0.1 0 0.56 0.1 0 0.58 0.1 0 0.6 0.1 0 0.62 0.1 0 0.64 0.1 0 0.66 0.1 0 0.68 0.1 0 0.7 0.1 0 0.72 0.1 0 0.74 0.1 0 0.76 0.1 0 0.78 0.1 0 0.8 0.1 0 0.82 0.1 0 0.84 0.1 0 0.86 0.1 0 0.88 0.1 0 0.9 0.1 0 0.92 0.1 0 0.94 0.1 0 0.96 0.1 0 0.98 0.1 0 1 0.1 0 0 0.12 0 0.02 0.12 0 0.04 0.12 0 0.06 0.12 0 0.08 0.12 0 0.1 0.12 0 0.12 0.12 0 0.14 0.12 0 0.16 0.12 0 0.18 0.12 0 0.2 0.12 0 0.22 0.12 0 0.24 0.12 0 0.26 0.12 0 0.28 0.12 0 0.3 0.12 0 0.32 0.12 0 0.34 0.12 0 0.36 0.12 0 0.38 0.12 0 0.4 0.12 0 0.42 0.12 0 0.44 0.12 0 0.46 0.12 0 0.48 0.12 0 0.5 0.12 0 0.52 0.12 0 0.54 0.12 0 0.56 0.12 0 0.58 0.12 0 0.6 0.12 0 0.62 0.12 0 0.64 0.12 0 0.66 0.12 0 0.68 0.12 0 0.7 0.12 0 0.72 0.12 0 0.74 0.12 0 0.76 0.12 0 0.78 0.12 0 0.8 0.12 0 0.82 0.12 0 0.84 0.12 0 0.86 0.12 0 0.88 0.12 0 0.9 0.12 0 0.92 0.12 0 0.94 0.12 0 0.96 0.12 0 0.98 0.12 0 1 0.12 0 0 0.14 0 0.02 0.14 0 0.04 0.14 0 0.06 0.14 0 0.08 0.14 0 0.1 0.14 0 0.12 0.14 0 0.14 0.14 0 0.16 0.14 0 0.18 0.14 0 0.2 0.14 0 0.22 0.14 0 0.24 0.14 0 0.26 0.14 0 0.28 0.14 0 0.3 0.14 0 0.32 0.14 0 0.34 0.14 0 0.36 0.14 0 0.38 0.14 0 0.4 0.14 0 0.42 0.14 0 0.44 0.14 0 0.46 0.14 0 0.48 0.14 0 0.5 0.14 0 0.52 0.14 0 0.54 0.14 0 0.56 0.14 0 0.58 0.14 0 0.6 0.14 0 0.62 0.14 0 0.64 0.14 0 0.66 0.14 0 0.68 0.14 0 0.7 0.14 0 0.72 0.14 0 0.74 0.14 0 0.76 0.14 0 0.78 0.14 0 0.8 0.14 0 0.82 0.14 0 0.84 0.14 0 0.86 0.14 0 0.88 0.14 0 0.9 0.14 0 0.92 0.14 0 0.94 0.14 0 0.96 0.14 0 0.98 0.14 0 1 0.14 0 0 0.16 0 0.02 0.16 0 0.04 0.16 0 0.06 0.16 0 0.08 0.16 0 0.1 0.16 0 0.12 0.16 0 0.14 0.16 0 0.16 0.16 0 0.18 0.16 0 0.2 0.16 0 0.22 0.16 0 0.24 0.16 0 0.26 0.16 0 0.28 0.16 0 0.3 0.16 0 0.32 0.16 0 0.34 0.16 0 0.36 0.16 0 0.38 0.16 0 0.4 0.16 0 0.42 0.16 0 0.44 0.16 0 0.46 0.16 0 0.48 0.16 0 0.5 0.16 0 0.52 0.16 0 0.54 0.16 0 0.56 0.16 0 0.58 0.16 0 0.6 0.16 0 0.62 0.16 0 0.64 0.16 0 0.66 0.16 0 0.68 0.16 0 0.7 0.16 0 0.72 0.16 0 0.74 0.16 0 0.76 0.16 0 0.78 0.16 0 0.8 0.16 0 0.82 0.16 0 0.84 0.16 0 0.86 0.16 0 0.88 0.16 0 0.9 0.16 0 0.92 0.16 0 0.94 0.16 0 0.96 0.16 0 0.98 0.16 0 1 0.16 0 0 0.18 0 0.02 0.18 0 0.04 0.18 0 0.06 0.18 0 0.08 0.18 0 0.1 0.18 0 0.12 0.18 0 0.14 0.18 0 0.16 0.18 0 0.18 0.18 0 0.2 0.18 0 0.22 0.18 0 0.24 0.18 0 0.26 0.18 0 0.28 0.18 0 0.3 0.18 0 0.32 0.18 0 0.34 0.18 0 0.36 0.18 0 0.38 0.18 0 0.4 0.18 0 0.42 0.18 0 0.44 0.18 0 0.46 0.18 0 0.48 0.18 0 0.5 0.18 0 0.52 0.18 0 0.54 0.18 0 0.56 0.18 0 0.58 0.18 0 0.6 0.18 0 0.62 0.18 0 0.64 0.18 0 0.66 0.18 0 0.68 0.18 0 0.7 0.18 0 0.72 0.18 0 0.74 0.18 0 0.76 0.18 0 0.78 0.18 0 0.8 0.18 0 0.82 0.18 0 0.84 0.18 0 0.86 0.18 0 0.88 0.18 0 0.9 0.18 0 0.92 0.18 0 0.94 0.18 0 0.96 0.18 0 0.98 0.18 0 1 0.18 0 0 0.2 0 0.02 0.2 0 0.04 0.2 0 0.06 0.2 0 0.08 0.2 0 0.1 0.2 0 0.12 0.2 0 0.14 0.2 0 0.16 0.2 0 0.18 0.2 0 0.2 0.2 0 0.22 0.2 0 0.24 0.2 0 0.26 0.2 0 0.28 0.2 0 0.3 0.2 0 0.32 0.2 0 0.34 0.2 0 0.36 0.2 0 0.38 0.2 0 0.4 0.2 0 0.42 0.2 0 0.44 0.2 0 0.46 0.2 0 0.48 0.2 0 0.5 0.2 0 0.52 0.2 0 0.54 0.2 0 0.56 0.2 0 0.58 0.2 0 0.6 0.2 0 0.62 0.2 0 0.64 0.2 0 0.66 0.2 0 0.68 0.2 0 0.7 0.2 0 0.72 0.2 0 0.74 0.2 0 0.76 0.2 0 0.78 0.2 0 0.8 0.2 0 0.82 0.2 0 0.84 0.2 0 0.86 0.2 0 0.88 0.2 0 0.9 0.2 0 0.92 0.2 0 0.94 0.2 0 0.96 0.2 0 0.98 0.2 0 1 0.2 0 0 0.22 0 0.02 0.22 0 0.04 0.22 0 0.06 0.22 0 0.08 0.22 0 0.1 0.22 0 0.12 0.22 0 0.14 0.22 0 0.16 0.22 0 0.18 0.22 0 0.2 0.22 0 0.22 0.22 0 0.24 0.22 0 0.26 0.22 0 0.28 0.22 0 0.3 0.22 0 0.32 0.22 0 0.34 0.22 0 0.36 0.22 0 0.38 0.22 0 0.4 0.22 0 0.42 0.22 0 0.44 0.22 0 0.46 0.22 0 0.48 0.22 0 0.5 0.22 0 0.52 0.22 0 0.54 0.22 0 0.56 0.22 0 0.58 0.22 0 0.6 0.22 0 0.62 0.22 0 0.64 0.22 0 0.66 0.22 0 0.68 0.22 0 0.7 0.22 0 0.72 0.22 0 0.74 0.22 0 0.76 0.22 0 0.78 0.22 0 0.8 0.22 0 0.82 0.22 0 0.84 0.22 0 0.86 0.22 0 0.88 0.22 0 0.9 0.22 0 0.92 0.22 0 0.94 0.22 0 0.96 0.22 0 0.98 0.22 0 1 0.22 0 0 0.24 0 0.02 0.24 0 0.04 0.24 0 0.06 0.24 0 0.08 0.24 0 0.1 0.24 0 0.12 0.24 0 0.14 0.24 0 0.16 0.24 0 0.18 0.24 0 0.2 0.24 0 0.22 0.24 0 0.24 0.24 0 0.26 0.24 0 0.28 0.24 0 0.3 0.24 0 0.32 0.24 0 0.34 0.24 0 0.36 0.24 0 0.38 0.24 0 0.4 0.24 0 0.42 0.24 0 0.44 0.24 0 0.46 0.24 0 0.48 0.24 0 0.5 0.24 0 0.52 0.24 0 0.54 0.24 0 0.56 0.24 0 0.58 0.24 0 0.6 0.24 0 0.62 0.24 0 0.64 0.24 0 0.66 0.24 0 0.68 0.24 0 0.7 0.24 0 0.72 0.24 0 0.74 0.24 0 0.76 0.24 0 0.78 0.24 0 0.8 0.24 0 0.82 0.24 0 0.84 0.24 0 0.86 0.24 0 0.88 0.24 0 0.9 0.24 0 0.92 0.24 0 0.94 0.24 0 0.96 0.24 0 0.98 0.24 0 1 0.24 0 0 0.26 0 0.02 0.26 0 0.04 0.26 0 0.06 0.26 0 0.08 0.26 0 0.1 0.26 0 0.12 0.26 0 0.14 0.26 0 0.16 0.26 0 0.18 0.26 0 0.2 0.26 0 0.22 0.26 0 0.24 0.26 0 0.26 0.26 0 0.28 0.26 0 0.3 0.26 0 0.32 0.26 0 0.34 0.26 0 0.36 0.26 0 0.38 0.26 0 0.4 0.26 0 0.42 0.26 0 0.44 0.26 0 0.46 0.26 0 0.48 0.26 0 0.5 0.26 0 0.52 0.26 0 0.54 0.26 0 0.56 0.26 0 0.58 0.26 0 0.6 0.26 0 0.62 0.26 0 0.64 0.26 0 0.66 0.26 0 0.68 0.26 0 0.7 0.26 0 0.72 0.26 0 0.74 0.26 0 0.76 0.26 0 0.78 0.26 0 0.8 0.26 0 0.82 0.26 0 0.84 0.26 0 0.86 0.26 0 0.88 0.26 0 0.9 0.26 0 0.92 0.26 0 0.94 0.26 0 0.96 0.26 0 0.98 0.26 0 1 0.26 0 0 0.28 0 0.02 0.28 0 0.04 0.28 0 0.06 0.28 0 0.08 0.28 0 0.1 0.28 0 0.12 0.28 0 0.14 0.28 0 0.16 0.28 0 0.18 0.28 0 0.2 0.28 0 0.22 0.28 0 0.24 0.28 0 0.26 0.28 0 0.28 0.28 0 0.3 0.28 0 0.32 0.28 0 0.34 0.28 0 0.36 0.28 0 0.38 0.28 0 0.4 0.28 0 0.42 0.28 0 0.44 0.28 0 0.46 0.28 0 0.48 0.28 0 0.5 0.28 0 0.52 0.28 0 0.54 0.28 0 0.56 0.28 0 0.58 0.28 0 0.6 0.28 0 0.62 0.28 0 0.64 0.28 0 0.66 0.28 0 0.68 0.28 0 0.7 0.28 0 0.72 0.28 0 0.74 0.28 0 0.76 0.28 0 0.78 0.28 0 0.8 0.28 0 0.82 0.28 0 0.84 0.28 0 0.86 0.28 0 0.88 0.28 0 0.9 0.28 0 0.92 0.28 0 0.94 0.28 0 0.96 0.28 0 0.98 0.28 0 1 0.28 0 0 0.3 0 0.02 0.3 0 0.04 0.3 0 0.06 0.3 0 0.08 0.3 0 0.1 0.3 0 0.12 0.3 0 0.14 0.3 0 0.16 0.3 0 0.18 0.3 0 0.2 0.3 0 0.22 0.3 0 0.24 0.3 0 0.26 0.3 0 0.28 0.3 0 0.3 0.3 0 0.32 0.3 0 0.34 0.3 0 0.36 0.3 0 0.38 0.3 0 0.4 0.3 0 0.42 0.3 0 0.44 0.3 0 0.46 0.3 0 0.48 0.3 0 0.5 0.3 0 0.52 0.3 0 0.54 0.3 0 0.56 0.3 0 0.58 0.3 0 0.6 0.3 0 0.62 0.3 0 0.64 0.3 0 0.66 0.3 0 0.68 0.3 0 0.7 0.3 0 0.72 0.3 0 0.74 0.3 0 0.76 0.3 0 0.78 0.3 0 0.8 0.3 0 0.82 0.3 0 0.84 0.3 0 0.86 0.3 0 0.88 0.3 0 0.9 0.3 0 0.92 0.3 0 0.94 0.3 0 0.96 0.3 0 0.98 0.3 0 1 0.3 0 0 0.32 0 0.02 0.32 0 0.04 0.32 0 0.06 0.32 0 0.08 0.32 0 0.1 0.32 0 0.12 0.32 0 0.14 0.32 0 0.16 0.32 0 0.18 0.32 0 0.2 0.32 0 0.22 0.32 0 0.24 0.32 0 0.26 0.32 0 0.28 0.32 0 0.3 0.32 0 0.32 0.32 0 0.34 0.32 0 0.36 0.32 0 0.38 0.32 0 0.4 0.32 0 0.42 0.32 0 0.44 0.32 0 0.46 0.32 0 0.48 0.32 0 0.5 0.32 0 0.52 0.32 0 0.54 0.32 0 0.56 0.32 0 0.58 0.32 0 0.6 0.32 0 0.62 0.32 0 0.64 0.32 0 0.66 0.32 0 0.68 0.32 0 0.7 0.32 0 0.72 0.32 0 0.74 0.32 0 0.76 0.32 0 0.78 0.32 0 0.8 0.32 0 0.82 0.32 0 0.84 0.32 0 0.86 0.32 0 0.88 0.32 0 0.9 0.32 0 0.92 0.32 0 0.94 0.
[...]
			<PointData Scalars="VitesseX">
				<DataArray Name="VitesseX" type="Float32" format="ascii">
 0 0 0 0 0 0 0 0 0 0 0 0 0 0 0 0 0 0 0 0 0 0 0 0 0 0 0 0 0 0 0 0 0 0 0 0 0 0 0 0 0 0 0 0 0 0 0 0 0 0 -0 0 -2.39873e-05 -9.38611e-05 -0.000208772 -0.00036691 -0.000565788 -0.000802272 -0.00107264 -0.00137263 -0.00169751 -0.00204218 -0.0024011 -0.0027688 -0.00313942 -0.00350716 -0.00386628 -0.00421091 -0.00453538 -0.00483503 -0.00510505 -0.00534114 -0.00553958 -0.00569724 -0.00581163 -0.0058809 -0.00590743 -0.00588835 -0.00582136 -0.00570827 -0.00555148 -0.00535358 -0.00511764 -0.0048474 -0.00454728 -0.00422208 -0.00387689 -0.00351712 -0.00314849 -0.00277684 -0.00240803 -0.00204791 -0.00170215 -0.00137623 -0.0010753 -0.000804134 -0.000566982 -0.000367356 -0.00020855 -9.33161e-05 -2.34443e-05 -2.56792e-28 0 -4.73653e-05 -0.000185874 -0.000413769 -0.000727467 -0.00112203 -0.00159126 -0.00212779 -0.00272308 -0.00336735 -0.00405136 -0.00476494 -0.00549477 -0.00623015 -0.00695966 -0.0076718 -0.00835536 -0.00899956 -0.00959424 -0.01013 -0.0105985 -0.0109922 -0.011305 -0.0115318 -0.011669 -0.0117165 -0.0116731 -0.0115376 -0.011312 -0.0110001 -0.0106069 -0.0101385 -0.00960251 -0.00900754 -0.00836279 -0.00767856 -0.00696559 -0.00623516 -0.00549882 -0.0047682 -0.00405482 -0.00336994 -0.00272438 -0.00212835 -0.00159127 -0.0011216 -0.000726706 -0.000412613 -0.000184557 -4.63432e-05 -5.05057e-28 0 -6.9894e-05 -0.000274814 -0.000612082 -0.00107642 -0.00166069 -0.00235597 -0.00315089 -0.00403225 -0.00498659 -0.005999 -0.00705355 -0.00813369 -0.00922237 -0.0103024 -0.0113567 -0.0123686 -0.0133223 -0.0142026 -0.0149957 -0.0156891 -0.0162718 -0.0167347 -0.0170704 -0.0172732 -0.0173418 -0.0172753 -0.017073 -0.0167379 -0.0162753 -0.0156926 -0.014999 -0.0142056 -0.0133248 -0.0123707 -0.0113581 -0.0103033 -0.00922261 -0.00813329 -0.00705249 -0.00599722 -0.00498415 -0.00402926 -0.00314763 -0.00235317 -0.00165846 -0.0010744 -0.000610124 -0.000272897 -6.85113e-05 -7.45375e-28 0 -9.13067e-05 -0.000359343 -0.00080049 -0.00140878 -0.00217453 -0.0030838 -0.00412321 -0.00527651 -0.00652554 -0.00785061 -0.00923085 -0.0106446 -0.0120695 -0.0134831 -0.014863 -0.0161875 -0.0174356 -0.0185877 -0.0196256 -0.020533 -0.0212954 -0.021901 -0.02234 -0.0226051 -0.0226939 -0.0226056 -0.0223394 -0.0218998 -0.0212936 -0.0205305 -0.0196224 -0.0185838 -0.0174311 -0.0161825 -0.0148577 -0.0134776 -0.0120638 -0.0106388 -0.00922493 -0.00784454 -0.00651937 -0.00527031 -0.00411707 -0.00307785 -0.00216909 -0.0014051 -0.000797884 -0.000356945 -8.95993e-05 -9.7396e-28 0 -0.000111476 -0.000439032 -0.000978123 -0.00171992 -0.00265276 -0.00376205 -0.00503033 -0.00643762 -0.00796175 -0.00957869 -0.011263 -0.0129881 -0.014727 -0.0164519 -0.0181357 -0.0197518 -0.0212747 -0.0226804 -0.0239467 -0.0250536 -0.0259837 -0.0267222 -0.0272576 -0.0275806 -0.0276882 -0.0275794 -0.0272536 -0.0267162 -0.0259759 -0.0250442 -0.0239358 -0.0226684 -0.0212618 -0.0197384 -0.0181222 -0.0164386 -0.0147141 -0.0129758 -0.0112514 -0.00956771 -0.00795143 -0.00642799 -0.00502141 -0.00375389 -0.00264546 -0.00171362 -0.000973038 -0.000435382 -0.000109275 -1.18721e-27 0 -0.000129913 -0.000511275 -0.00113883 -0.00200259 -0.00308904 -0.00438105 -0.00585829 -0.00749746 -0.00927274 -0.0111561 -0.013118 -0.0151274 -0.0171528 -0.0191618 -0.021123 -0.0230053 -0.024779 -0.0264161 -0.0278907 -0.0291796 -0.0302625 -0.0311224 -0.0317456 -0.0321212 -0.0322459 -0.0321184 -0.0317378 -0.0311111 -0.0302481 -0.0291624 -0.0278713 -0.0263951 -0.0247569 -0.0229825 -0.0211002 -0.0191398 -0.0171317 -0.0151078 -0.0130999 -0.0111396 -0.0092578 -0.00748408 -0.00584642 -0.00437065 -0.00308008 -0.0019951 -0.00113284 -0.000506923 -0.000127228 -1.38177e-27 0 -0.000146075 -0.000575247 -0.00128148 -0.00225375 -0.00347673 -0.00493115 -0.00659409 -0.00843935 -0.0104378 -0.012558 -0.0147665 -0.0170286 -0.0193085 -0.0215702 -0.0237778 -0.0258966 -0.0278931 -0.0297357 -0.0313954 -0.032846 -0.0340646 -0.035032 -0.0357331 -0.0361553 -0.036295 -0.0361505 -0.0357209 -0.0350144 -0.0340421 -0.0328193 -0.0313654 -0.0297034 -0.0278594 -0.0258626 -0.0237446 -0.0215388 -0.0192789 -0.017001 -0.0147415 -0.0125356 -0.0104179 -0.00842197 -0.00657911 -0.00491841 -0.00346609 -0.00224511 -0.00127477 -0.000570403 -0.000143171 -1.55456e-27 0 -0.000159962 -0.000630102 -0.001404 -0.00246947 -0.00380972 -0.00540364 -0.00722609 -0.00924836 -0.0114386 -0.0137622 -0.0161825 -0.0186616 -0.0211602 -0.0236387 -0.0260579 -0.0283798 -0.0305675 -0.0325866 -0.0344051 -0.0359946 -0.0373298 -0.0383894 -0.0391571 -0.0396193 -0.0397718 -0.0396127 -0.039141 -0.0383659 -0.0372996 -0.035959 -0.0343654 -0.0325438 -0.0305231 -0.028335 -0.0260141 -0.0235968 -0.0211208 -0.0186257 -0.0161504 -0.0137336 -0.0114136 -0.0092269 -0.00720795 -0.00538854 -0.00379741 -0.00245971 -0.00139661 -0.000624911 -0.000156858 -1.70288e-27 0 -0.000171287 -0.000675056 -0.00150442 -0.0026463 -0.00408271 -0.005791 -0.00774425 -0.00991166 -0.0122591 -0.0147495 -0.0173435 -0.0200005 -0.0226784 -0.0253347 -0.0279275 -0.0304158 -0.0327604 -0.0349243 -0.036873 -0.0385759 -0.0400063 -0.0411415 -0.0419637 -0.0424585 -0.0426215 -0.0424502 -0.0419438 -0.0411124 -0.0399689 -0.0385317 -0.0368234 -0.0348711 -0.0327054 -0.0303605 -0.0278733 -0.0252829 -0.0226299 -0.0199563 -0.0173041 -0.0147148 -0.0122291 -0.0098862 -0.00772304 -0.00577366 -0.00406883 -0.00263551 -0.00149642 -0.000669568 -0.000168071 -1.82437e-27 0 -0.000179911 -0.000709384 -0.00158113 -0.00278143 -0.00429134 -0.00608708 -0.00814034 -0.0104188 -0.0128864 -0.0155043 -0.0182313 -0.0210243 -0.0238394 -0.0266317 -0.0293572 -0.031973 -0.0344373 -0.0367114 -0.0387594 -0.040549 -0.0420521 -0.0432449 -0.0441087 -0.0446282 -0.0447989 -0.0446182 -0.0440851 -0.0432104 -0.0420077 -0.0404964 -0.0387004 -0.0366479 -0.0343714 -0.0319067 -0.0292926 -0.0265702 -0.023782 -0.0209721 -0.0181849 -0.0154638 -0.0128516 -0.0103895 -0.00811627 -0.00606768 -0.00427607 -0.00276976 -0.00157264 -0.00070367 -0.000176641 -1.91712e-27 0 -0.000185707 -0.000732533 -0.00163292 -0.00287269 -0.00443231 -0.0062872 -0.00840813 -0.0107616 -0.0133107 -0.0160149 -0.0188318 -0.021717 -0.0246251 -0.0275094 -0.0303244 -0.033026 -0.0355711 -0.0379197 -0.0400349 -0.041883 -0.0434351 -0.0446666 -0.0455582 -0.0460941 -0.0462699 -0.0460825 -0.0455311 -0.0446267 -0.0433837 -0.0418221 -0.0399666 -0.0378464 -0.035495 -0.0329493 -0.0302495 -0.0274379 -0.0245586 -0.021657 -0.0187787 -0.0159688 -0.0132714 -0.0107289 -0.00838143 -0.00626598 -0.00441586 -0.00286033 -0.00162407 -0.00072668 -0.000182423 -1.97967e-27 0 -0.00018858 -0.00074413 -0.00165895 -0.00291865 -0.00450339 -0.00638821 -0.00854339 -0.010935 -0.0135252 -0.0162733 -0.0191358 -0.0220679 -0.0250228 -0.0279534 -0.0308137 -0.0335586 -0.0361447 -0.038531 -0.0406799 -0.0425573 -0.0441336 -0.0453842 -0.0462894 -0.0468334 -0.0470112 -0.0468198 -0.0462584 -0.0453384 -0.0440744 -0.0424869 -0.0406011 -0.0384464 -0.0360569 -0.0334704 -0.0307273 -0.0278708 -0.0249457 -0.0219981 -0.0190745 -0.0162204 -0.0134806 -0.010898 -0.00851345 -0.00636477 -0.00448555 -0.00290551 -0.00164973 -0.000738166 -0.000185306 -2.01104e-27 0 -0.000188478 -0.000743958 -0.00165872 -0.00291837 -0.00450309 -0.0063879 -0.00854311 -0.0109348 -0.0135251 -0.0162734 -0.0191361 -0.0220683 -0.0250231 -0.0279538 -0.0308146 -0.0335598 -0.0361461 -0.0385326 -0.0406817 -0.042559 -0.0441352 -0.0453857 -0.0462906 -0.0468341 -0.0470116 -0.0468197 -0.0462579 -0.0453376 -0.0440733 -0.0424856 -0.0405995 -0.0384445 -0.0360549 -0.0334681 -0.030725 -0.0278686 -0.0249437 -0.0219961 -0.0190724 -0.0162186 -0.0134792 -0.0108971 -0.00851277 -0.00636407 -0.0044851 -0.00290524 -0.00164958 -0.000738099 -0.000185289 -2.01073e-27 0 -0.000185415 -0.000732096 -0.00163246 -0.00287237 -0.00443234 -0.00628782 -0.00840956 -0.0107642 -0.0133145 -0.0160203 -0.0188391 -0.0217254 -0.0246344 -0.02752 -0.0303364 -0.0330388 -0.0355849 -0.0379341 -0.0400491 -0.0418965 -0.0434472 -0.0446767 -0.0455656 -0.0460984 -0.0462705 -0.0460805 -0.0455267 -0.0446199 -0.0433747 -0.0418114 -0.0399544 -0.037833 -0.0354807 -0.0329346 -0.0302348 -0.0274236 -0.0245453 -0.0216449 -0.0187679 -0.0159596 -0.013264 -0.0107234 -0.00837723 -0.00626272 -0.00441373 -0.00285905 -0.00162339 -0.000726385 -0.00018235 -1.97874e-27 0 -0.000179429 -0.000708679 -0.00158042 -0.00278102 -0.0042916 -0.00608842 -0.00814317 -0.0104235 -0.0128934 -0.015514 -0.0182435 -0.0210388 -0.0238562 -0.0266508 -0.0293781 -0.0319951 -0.0344606 -0.0367353 -0.0387827 -0.0405711 -0.042072 -0.0432617 -0.0441212 -0.0446354 -0.0448005 -0.0446144 -0.044077 -0.043198 -0.0419915 -0.0404772 -0.0386787 -0.0366243 -0.0343465 -0.0318812 -0.0292672 -0.0265456 -0.0237591 -0.0209516 -0.018167 -0.0154486 -0.0128394 -0.0103803 -0.0081095 -0.00606278 -0.00427272 -0.00276776 -0.00157159 -0.000703219 -0.000176536 -1.91557e-27 0 -0.000170618 -0.000674093 -0.00150348 -0.00264584 -0.00408325 -0.00579313 -0.00774856 -0.00991874 -0.0122695 -0.0147637 -0.0173609 -0.0200212 -0.0227027 -0.0253621 -0.0279574 -0.0304478 -0.0327939 -0.0349579 -0.0369058 -0.038607 -0.0400344 -0.0411655 -0.041982 -0.0424691 -0.042624 -0.0424432 -0.0419291 -0.0410901 -0.0399406 -0.0384995 -0.0367892 -0.0348358 -0.0326694 -0.0303242 -0.0278375 -0.0252484 -0.0225978 -0.0199272 -0.0172788 -0.0146936 -0.012212 -0.0098732 -0.00771373 -0.00576708 -0.00406428 -0.0026328 -0.001495 -0.000668964 -0.000167939 -1.82218e-27 0 -0.000159117 -0.000628878 -0.00140284 -0.00246898 -0.00381061 -0.00540664 -0.00723198 -0.00925788 -0.0114524 -0.0137807 -0.0162052 -0.0186887 -0.0211919 -0.0236743 -0.0260968 -0.0284215 -0.030611 -0.0326303 -0.0344477 -0.0360347 -0.0373662 -0.0384207 -0.0391807 -0.0396317 -0.0397717 -0.0395992 -0.0391159 -0.0383301 -0.037255 -0.0359074 -0.0343091 -0.0324872 -0.0304698 -0.0282859 -0.0259676 -0.0235525 -0.0210796 -0.0185883 -0.0161178 -0.0137065 -0.011392 -0.00921028 -0.00719597 -0.00538016 -0.0037917 -0.0024563 -0.00139482 -0.000624159 -0.000156695 -1.7e-27 0 -0.000145118 -0.000573744 -0.00128011 -0.00225327 -0.00347797 -0.004935 -0.0066015 -0.00845124 -0.0104549 -0.0125805 -0.0147944 -0.0170622 -0.0193477 -0.0216139 -0.0238257 -0.025948 -0.0279461 -0.0297888 -0.031447 -0.0328946 -0.0341087 -0.0350692 -0.0357585 -0.036166 -0.036292 -0.0361341 -0.0356916 -0.0349729 -0.0339902 -0.0327584 -0.0312967 -0.0296299 -0.0277851 -0.0257925 -0.023683 -0.0214837 -0.0192285 -0.0169559 -0.0147023 -0.012503 -0.010392 -0.00840195 -0.00656462 -0.00490835 -0.00345936 -0.00224104 -0.00127264 -0.00056951 -0.00014298 -1.55101e-27 0 -0.000128867 -0.00050965 -0.00113725 -0.00200202 -0.00309053 -0.00438573 -0.00586723 -0.00751164 -0.00929306 -0.0111826 -0.013151 -0.0151673 -0.017199 -0.0192135 -0.0211795 -0.0230658 -0.0248412 -0.0264781 -0.0279507 -0.0292359 -0.0303128 -0.0311622 -0.0317702 -0.0321311 -0.0322426 -0.0321004 -0.0317054 -0.0310649 -0.03019 -0.0290942 -0.0277948 -0.0263127 -0.024672 -0.0228977 -0.0210197 -0.0190708 -0.017073 -0.0150556 -0.0130546 -0.0111018 -0.00922763 -0.00746103 -0.00582959 -0.00435903 -0.00307242 -0.0019904 -0.00113038 -0.000505877 -0.00012701 -1.37766e-27 0 -0.00011059 -0.00043756 -0.000976571 -0.0017194 -0.00265456 -0.00376742 -0.00504053 -0.0064538 -0.00798499 -0.00960903 -0.0113009 -0.0130339 -0.0147799 -0.0165111 -0.0182004 -0.0198206 -0.0213452 -0.0227505 -0.0240142 -0.0251164 -0.0260382 -0.0267631 -0.0272826 -0.0275912 -0.0276846 -0.0275597 -0.0272184 -0.0266663 -0.0259128 -0.0249701 -0.0238531 -0.0225794 -0.0211706 -0.0196473 -0.018033 -0.0163547 -0.0146442 -0.0129174 -0.0112009 -0.00952562 -0.00791779 -0.00640226 -0.00500244 -0.00374082 -0.00263689 -0.00170833 -0.00097027 -0.000434261 -0.000109038 -1.18264e-27 0 -9.05721e-05 -0.000358582 -0.00080059 -0.00140989 -0.00217704 -0.0030901 -0.00413477 -0.00529461 -0.0065513 -0.00788435 -0.00927308 -0.0106955 -0.0121283 -0.0135489 -0.014935 -0.0162636 -0.0175135 -0.018665 -0.0196999 -0.0206012 -0.0213529 -0.0219431 -0.022366 -0.0226165 -0.0226898 -0.022584 -0.0223014 -0.0218465 -0.0212264 -0.0204516 -0.0195346 -0.018489 -0.017334 -0.0160858 -0.0147638 -0.013388 -0.0119821 -0.0105737 -0.0091704 -0.00779902 -0.0064829 -0.0052424 -0.00409646 -0.0030636 -0.00215969 -0.00139928 -0.000794844 -0.000355793 -8.9345e-05 -9.68983e-28 0 -6.91676e-05 -0.00027402 -0.000612062 -0.00107825 -0.00166543 -0.0023645 -0.00316444 -0.00405262 -0.00501503 -0.00603602 -0.00709958 -0.00818887 -0.00928592 -0.0103733 -0.0114338 -0.0124498 -0.013405 -0.0142843 -0.0150734 -0.0157597 -0.016331 -0.0167791 -0.0170983 -0.0172854 -0.0173373 -0.0172523 -0.0170322 -0.0166816 -0.0162047 -0.0156101 -0.0149073 -0.0141067 -0.0132233 -0.0122696 -0.0112602 -0.0102107 -0.00913668 -0.00805975 -0.00699476 -0.00594923 -0.00494559 -0.00399963 -0.00312575 -0.00233792 -0.00164835 -0.00106815 -0.000606863 -0.000271707 -6.82428e-05 -7.40064e-28 0 -4.67125e-05 -0.000185233 -0.00041401 -0.000729772 -0.00112774 -0.00160178 -0.00214444 -0.00274716 -0.00340035 -0.00409325 -0.0048148 -0.00555371 -0.00629772 -0.00703456 -0.00775247 -0.00843965 -0.00908493 -0.0096779 -0.010209 -0.0106697 -0.0110526 -0.0113523 -0.0115628 -0.0116825 -0.0117114 -0.0116482 -0.0114941 -0.0112526 -0.0109264 -0.0105213 -0.010044 -0.00950145 -0.00890338 -0.00825924 -0.0075782 -0.00687086 -0.00614779 -0.00542061 -0.00470718 -0.00400526 -0.00333003 -0.00269361 -0.00210558 -0.00157521 -0.00111096 -0.000720159 -0.000409289 -0.000183331 -4.60636e-05 -4.99489e-28 0 -2.35658e-05 -9.36642e-05 -0.000209648 -0.00037003 -0.00057251 -0.000814067 -0.0010909 -0.00139862 -0.00173227 -0.00208622 -0.00245457 -0.0028315 -0.00321072 -0.00358566 -0.00395003 -0.00429778 -0.00462313 -0.00492064 -0.00518541 -0.00541311 -0.00560025 -0.00574509 -0.00584516 -0.00589628 -0.00590007 -0.00585884 -0.00577339 -0.00564485 -0.00547456 -0.00526541 -0.00502115 -0.00474521 -0.0044422 -0.00411774 -0.00377586 -0.0034218 -0.00306083 -0.00269791 -0.0023431 -0.00199733 -0.00166145 -0.00134477 -0.00105202 -0.000787648 -0.000556043 -0.000360782 -0.000205241 -9.20561e-05 -2.31568e-05 -2.5105e-28 0 -1.58336e-07 -8.31644e-07 -2.30548e-06 -4.83161e-06 -8.66246e-06 -1.38998e-05 -2.05001e-05 -2.83722e-05 -3.72244e-05 -4.66826e-05 -5.60836e-05 -6.51635e-05 -7.36829e-05 -8.09117e-05 -8.60875e-05 -8.88936e-05 -8.91918e-05 -8.64616e-05 -8.05568e-05 -7.14453e-05 -5.94268e-05 -4.55843e-05 -3.14915e-05 -1.58408e-05 6.36332e-06 2.4972e-05 4.02959e-05 5.38265e-05 6.54253e-05 7.53076e-05 8.30944e-05 8.83818e-05 9.11799e-05 9.08885e-05 8.8064e-05 8.2968e-05 7.59766e-05 6.77262e-05 5.70836e-05 4.35217e-05 3.42018e-05 2.58371e-05 1.84963e-05 1.25287e-05 7.76621e-06 4.3623e-06 2.0717e-06 6.87404e-07 1.13762e-07 9.54745e-31 0 2.3089e-05 9.18407e-05 0.000204899 0.000360203 0.000555052 0.00078625 0.00105004 0.00134224 0.00165837 0.00199358 0.00234325 0.00270206 0.0030645 0.00342524 0.0037792 0.00412132 0.00444615 0.00474907 0.00502548 0.00527102 0.00548152 0.00565302 0.00578242 0.0058673 0.00590983 0.00590549 0.00585195 0.00575112 0.00560439 0.00541507 0.0051866 0.0049217 0.00462436 0.00429932 0.00395185 0.00358769 0.00321289 0.00283375 0.00245596 0.00208385 0.00172935 0.00139602 0.00108873 0.000812501 0.000571508 0.000369488 0.000209371 9.34538e-05 2.34161e-05 2.53185e-28 0 4.59924e-05 0.0001831 0.0004089 0.000719556 0.00110994 0.00157374 0.00210357 0.00269113 0.00332717 0.00400175 0.00470479 0.00542562 0.00615319 0.00687615 0.00758348 0.00826488 0.00890986 0.00950804 0.0100504 0.0105284 0.010934 0.0112603 0.0115022 0.0116551 0.0117187 0.0116911 0.01157 0.0113567 0.0110545 0.0106699 0.0102092 0.0096783 0.00908569 0.00844102 0.00775443 0.00703703 0.00630049 0.00555679 0.00481746 0.00409136 0.00339721 0.00274423 0.00214186 0.00159972 0.0011263 0.000728831 0.000413414 0.000184793 4.6384e-05 5.01608e-28 0 6.81696e-05 0.000271465 0.000606433 0.00106752 0.00164725 0.0023363 0.00312376 0.00399723 0.00494303 0.00594634 0.00699164 0.00806308 0.00914411 0.0102178 0.0112677 0.0122775 0.0132319 0.0141159 0.0149157 0.0156185 0.0162129 0.0166892 0.0170399 0.0172587 0.0173434 0.0172929 0.0171057 0.0167829 0.0163305 0.0157572 0.0150713 0.0142826 0.013404 0.0124499 0.011435 0.0103757 0.00928909 0.00819259 0.00710339 0.00603468 0.0050116 0.00404925 0.00316128 0.00236178 0.00166334 0.0010767 0.00061097 0.000273251 6.86392e-05 7.42188e-28 0 8.92778e-05 0.000355545 0.000794386 0.00139862 0.00215851 0.00306191 0.00409451 0.00524005 0.00648056 0.00779662 0.00916779 0.0105729 0.0119902 0.0133976 0.0147734 0.0160959 0.0173447 0.0185002 0.0195447 0.0204613 0.0212353 0.0218544 0.0223085 0.0225901 0.022695 0.0226225 0.0223719 0.0219449 0.0213499 0.0205967 0.0196961 0.0186619 0.017511 0.0162621 0.0149349 0.0135505 0.012131 0.010699 0.00927747 0.00788324 0.00654707 0.00529049 0.00413093 0.00308664 0.0021742 0.00140766 0.000798942 0.000357413 8.98245e-05 9.71088e-28 0 0.000109005 0.000434013 0.000969797 0.00170763 0.00263568 0.00373914 0.00500055 0.00640003 0.00791561 0.00952354 0.0111989 0.0129153 0.0146465 0.0163653 0.018045 0.0196594 0.0211832 0.0225925 0.0238649 0.0249808 0.0259224 0.0266745 0.0272252 0.0275652 0.027689 0.0275958 0.0272857 0.0267617 0.0260334 0.0251116 0.0240104 0.0227472 0.0213429 0.01982 0.0182021 0.0165147 0.0147845 0.0130395 0.0113074 0.00960786 0.00797941 0.00644842 0.00503552 0.00376291 0.00265084 0.00171647 0.000974357 0.000435956 0.000109599 1.18468e-27 0 0.000126974 0.000505635 0.0011299 0.00198969 0.00307122 0.00435731 0.00582759 0.00745889 0.00922557 0.0110999 0.0130527 0.0150534 0.0170711 0.0190743 0.0210313 0.0229117 0.0246864 0.0263274 0.0278086 0.0291066 0.0302006 0.0310738 0.0317124 0.0321056 0.0322463 0.032134 0.0317699 0.0311573 0.0303066 0.0292308 0.0279467 0.0264755 0.0248412 0.0230682 0.0211849 0.0192208 0.0172072 0.0151764 0.0131604 0.0111808 0.00928609 0.0075048 0.00586081 0.00437992 0.00308572 0.00199825 0.00113443 0.000507658 0.000127641 1.3796e-27 0 0.000142936 0.000569281 0.00127218 0.00224034 0.00345829 0.00490669 0.00656262 0.00839995 0.0103898 0.0125009 0.0147004 0.0169536 0.0192258 0.0214816 0.0236852 0.0258021 0.0277993 0.0296456 0.0313121 0.0327721 0.034002 0.034983 0.0356994 0.0361395 0.0362951 0.0361659 0.0357537 0.0350618 0.0341022 0.0328897 0.031444 0.0297885 0.0279488 0.0259527 0.0238328 0.0216227 0.0193574 0.0170731 0.0148052 0.012577 0.0104465 0.008443 0.00659381 0.00492795 0.00347202 0.00224856 0.00127664 0.000571375 0.000143678 1.55277e-27 0 0.000156658 0.000623948 0.0013944 0.00245565 0.00379078 0.00537862 0.00719404 0.00920839 0.01139 0.0137045 0.0161158 0.0185861 0.0210768 0.0235493 0.0259647 0.0282849 0.0304733 0.0324959 0.0343209 0.0359195 0.0372662 0.0383397 0.0391229 0.0396033 0.0397717 0.0396279 0.0391742 0.0384141 0.0373609 0.0360314 0.0344469 0.0326322 0.030615 0.028428 0.0261055 0.0236845 0.0212032 0.0187014 0.0162166 0.0137746 0.0114425 0.00924825 0.00722297 0.00539839 0.00380363 0.00246346 0.00139876 0.000626088 0.000157464 1.70146e-27 0 0.000167911 0.00066879 0.00149462 0.00263222 0.00406347 0.00576568 0.00771192 0.00987148 0.0122103 0.0146918 0.0172768 0.019925 0.0225951 0.0252452 0.0278339 0.0303207 0.0326662 0.0348333 0.0367883 0.0385004 0.0399424 0.0410914 0.0419293 0.0424426 0.0426213 0.0424653 0.0419774 0.0411613 0.0400314 0.0386058 0.036907 0.0349612 0.0327995 0.0304559 0.0279675 0.0253737 0.0227155 0.0200356 0.0173716 0.0147549 0.0122583 0.00990789 0.00773839 0.00578384 0.00407535 0.00263957 0.00149887 0.00067094 0.000168766 1.82332e-27 0 0.000176523 0.000703147 0.00157128 0.00276727 0.00427205 0.00606177 0.00810812 0.0103788 0.012838 0.0154471 0.0181651 0.0209495 0.0237567 0.0265428 0.0292639 0.0318776 0.0343429 0.0366208 0.0386753 0.040474 0.0419886 0.0431951 0.0440744 0.0446125 0.0447986 0.0446333 0.0441191 0.0432599 0.0420713 0.040572 0.0387854 0.0367399 0.0344676 0.0320044 0.0293893 0.0266635 0.0238703 0.0210546 0.0182508 0.0155028 0.0128811 0.0104115 0.00813197 0.00607826 0.00428292 0.00277411 0.00157536 0.00070522 0.000177407 1.91644e-27 0 0.000182346 0.000726374 0.00162317 0.00285869 0.00441326 0.00626224 0.00837639 0.0107223 0.0132631 0.0159587 0.01