<?xml version="1.0"?>
<VTKFile type="PolyData">
	<PolyData>
		<Piece NumberOfPoints="2601" NumberOfPolys="2500">
			<Points>
				<DataArray type="Float32" NumberOfComponents="3" format="ascii">
 0 0 0 0.02 0 0 0.04 0 0 0.06 0 0 0.08 0 0 0.1 0 0 0.12 0 0 0.14 0 0 0.16 0 0 0.18 0 0 0.2 0 0 0.22 0 0 0.24 0 0 0.26 0 0 0.28 0 0 0.3 0 0 0.32 0 0 0.34 0 0 0.36 0 0 0.38 0 0 0.4 0 0 0.42 0 0 0.44 0 0 0.46 0 0 0.48 0 0 0.5 0 0 0.52 0 0 0.54 0 0 0.56 0 0 0.58 0 0 0.6 0 0 0.62 0 0 0.64 0 0 0.66 0 0 0.68 0 0 0.7 0 0 0.72 0 0 0.74 0 0 0.76 0 0 0.78 0 0 0.8 0 0 0.82 0 0 0.84 0 0 0.86 0 0 0.88 0 0 0.9 0 0 0.92 0 0 0.94 0 0 0.96 0 0 0.98 0 0 1 0 0 0 0.02 0 0.02 0.02 0 0.04 0.02 0 0.06 0.02 0 0.08 0.02 0 0.1 0.02 0 0.12 0.02 0 0.14 0.02 0 0.16 0.02 0 0.18 0.02 0 0.2 0.02 0 0.22 0.02 0 0.24 0.02 0 0.26 0.02 0 0.28 0.02 0 0.3 0.02 0 0.32 0.02 0 0.34 0.02 0 0.36 0.02 0 0.38 0.02 0 0.4 0.02 0 0.42 0.02 0 0.44 0.02 0 0.46 0.02 0 0.48 0.02 0 0.5 0.02 0 0.52 0.02 0 0.54 0.02 0 0.56 0.02 0 0.58 0.02 0 0.6 0.02 0 0.62 0.02 0 0.64 0.02 0 0.66 0.02 0 0.68 0.02 0 0.7 0.02 0 0.72 0.02 0 0.74 0.02 0 0.76 0.02 0 0.78 0.02 0 0.8 0.02 0 0.82 0.02 0 0.84 0.02 0 0.86 0.02 0 0.88 0.02 0 0.9 0.02 0 0.92 0.02 0 0.94 0.02 0 0.96 0.02 0 0.98 0.02 0 1 0.02 0 0 0.04 0 0.02 0.04 0 0.04 0.04 0 0.06 0.04 0 0.08 0.04 0 0.1 0.04 0 0.12 0.04 0 0.14 0.04 0 0.16 0.04 0 0.18 0.04 0 0.2 0.04 0 0.22 0.04 0 0.24 0.04 0 0.26 0.04 0 0.28 0.04 0 0.3 0.04 0 0.32 0.04 0 0.34 0.04 0 0.36 0.04 0 0.38 0.04 0 0.4 0.04 0 0.42 0.04 0 0.44 0.04 0 0.46 0.04 0 0.48 0.04 0 0.5 0.04 0 0.52 0.04 0 0.54 0.04 0 0.56 0.04 0 0.58 0.04 0 0.6 0.04 0 0.62 0.04 0 0.64 0.04 0 0.66 0.04 0 0.68 0.04 0 0.7 0.04 0 0.72 0.04 0 0.74 0.04 0 0.76 0.04 0 0.78 0.04 0 0.8 0.04 0 0.82 0.04 0 0.84 0.04 0 0.86 0.04 0 0.88 0.04 0 0.9 0.04 0 0.92 0.04 0 0.94 0.04 0 0.96 0.04 0 0.98 0.04 0 1 0.04 0 0 0.06 0 0.02 0.06 0 0.04 0.06 0 0.06 0.06 0 0.08 0.06 0 0.1 0.06 0 0.12 0.06 0 0.14 0.06 0 0.16 0.06 0 0.18 0.06 0 0.2 0.06 0 0.22 0.06 0 0.24 0.06 0 0.26 0.06 0 0.28 0.06 0 0.3 0.06 0 0.32 0.06 0 0.34 0.06 0 0.36 0.06 0 0.38 0.06 0 0.4 0.06 0 0.42 0.06 0 0.44 0.06 0 0.46 0.06 0 0.48 0.06 0 0.5 0.06 0 0.52 0.06 0 0.54 0.06 0 0.56 0.06 0 0.58 0.06 0 0.6 0.06 0 0.62 0.06 0 0.64 0.06 0 0.66 0.06 0 0.68 0.06 0 0.7 0.06 0 0.72 0.06 0 0.74 0.06 0 0.76 0.06 0 0.78 0.06 0 0.8 0.06 0 0.82 0.06 0 0.84 0.06 0 0.86 0.06 0 0.88 0.06 0 0.9 0.06 0 0.92 0.06 0 0.94 0.06 0 0.96 0.06 0 0.98 0.06 0 1 0.06 0 0 0.08 0 0.02 0.08 0 0.04 0.08 0 0.06 0.08 0 0.08 0.08 0 0.1 0.08 0 0.12 0.08 0 0.14 0.08 0 0.16 0.08 0 0.18 0.08 0 0.2 0.08 0 0.22 0.08 0 0.24 0.08 0 0.26 0.08 0 0.28 0.08 0 0.3 0.08 0 0.32 0.08 0 0.34 0.08 0 0.36 0.08 0 0.38 0.08 0 0.4 0.08 0 0.42 0.08 0 0.44 0.08 0 0.46 0.08 0 0.48 0.08 0 0.5 0.08 0 0.52 0.08 0 0.54 0.08 0 0.56 0.08 0 0.58 0.08 0 0.6 0.08 0 0.62 0.08 0 0.64 0.08 0 0.66 0.08 0 0.68 0.08 0 0.7 0.08 0 0.72 0.08 0 0.74 0.08 0 0.76 0.08 0 0.78 0.08 0 0.8 0.08 0 0.82 0.08 0 0.84 0.08 0 0.86 0.08 0 0.88 0.08 0 0.9 0.08 0 0.92 0.08 0 0.94 0.08 0 0.96 0.08 0 0.98 0.08 0 1 0.08 0 0 0.1 0 0.02 0.1 0 0.04 0.1 0 0.06 0.1 0 0.08 0.1 0 0.1 0.1 0 0.12 0.1 0 0.14 0.1 0 0.16 0.1 0 0.18 0.1 0 0.2 0.1 0 0.22 0.1 0 0.24 0.1 0 0.26 0.1 0 0.28 0.1 0 0.3 0.1 0 0.32 0.1 0 0.34 0.1 0 0.36 0.1 0 0.38 0.1 0 0.4 0.1 0 0.42 0.1 0 0.44 0.1 0 0.46 0.1 0 0.48 0.1 0 0.5 0.1 0 0.52 0.1 0 0.54 0.1 0 0.56 0.1 0 0.58 0.1 0 0.6 0.1 0 0.62 0.1 0 0.64 0.1 0 0.66 0.1 0 0.68 0.1 0 0.7 0.1 0 0.72 0.1 0 0.74 0.1 0 0.76 0.1 0 0.78 0.1 0 0.8 0.1 0 0.82 0.1 0 0.84 0.1 0 0.86 0.1 0 0.88 0.1 0 0.9 0.1 0 0.92 0.1 0 0.94 0.1 0 0.96 0.1 0 0.98 0.1 0 1 0.1 0 0 0.12 0 0.02 0.12 0 0.04 0.12 0 0.06 0.12 0 0.08 0.12 0 0.1 0.12 0 0.12 0.12 0 0.14 0.12 0 0.16 0.12 0 0.18 0.12 0 0.2 0.12 0 0.22 0.12 0 0.24 0.12 0 0.26 0.12 0 0.28 0.12 0 0.3 0.12 0 0.32 0.12 0 0.34 0.12 0 0.36 0.12 0 0.38 0.12 0 0.4 0.12 0 0.42 0.12 0 0.44 0.12 0 0.46 0.12 0 0.48 0.12 0 0.5 0.12 0 0.52 0.12 0 0.54 0.12 0 0.56 0.12 0 0.58 0.12 0 0.6 0.12 0 0.62 0.12 0 0.64 0.12 0 0.66 0.12 0 0.68 0.12 0 0.7 0.12 0 0.72 0.12 0 0.74 0.12 0 0.76 0.12 0 0.78 0.12 0 0.8 0.12 0 0.82 0.12 0 0.84 0.12 0 0.86 0.12 0 0.88 0.12 0 0.9 0.12 0 0.92 0.12 0 0.94 0.12 0 0.96 0.12 0 0.98 0.12 0 1 0.12 0 0 0.14 0 0.02 0.14 0 0.04 0.14 0 0.06 0.14 0 0.08 0.14 0 0.1 0.14 0 0.12 0.14 0 0.14 0.14 0 0.16 0.14 0 0.18 0.14 0 0.2 0.14 0 0.22 0.14 0 0.24 0.14 0 0.26 0.14 0 0.28 0.14 0 0.3 0.14 0 0.32 0.14 0 0.34 0.14 0 0.36 0.14 0 0.38 0.14 0 0.4 0.14 0 0.42 0.14 0 0.44 0.14 0 0.46 0.14 0 0.48 0.14 0 0.5 0.14 0 0.52 0.14 0 0.54 0.14 0 0.56 0.14 0 0.58 0.14 0 0.6 0.14 0 0.62 0.14 0 0.64 0.14 0 0.66 0.14 0 0.68 0.14 0 0.7 0.14 0 0.72 0.14 0 0.74 0.14 0 0.76 0.14 0 0.78 0.14 0 0.8 0.14 0 0.82 0.14 0 0.84 0.14 0 0.86 0.14 0 0.88 0.14 0 0.9 0.14 0 0.92 0.14 0 0.94 0.14 0 0.96 0.14 0 0.98 0.14 0 1 0.14 0 0 0.16 0 0.02 0.16 0 0.04 0.16 0 0.06 0.16 0 0.08 0.16 0 0.1 0.16 0 0.12 0.16 0 0.14 0.16 0 0.16 0.16 0 0.18 0.16 0 0.2 0.16 0 0.22 0.16 0 0.24 0.16 0 0.26 0.16 0 0.28 0.16 0 0.3 0.16 0 0.32 0.16 0 0.34 0.16 0 0.36 0.16 0 0.38 0.16 0 0.4 0.16 0 0.42 0.16 0 0.44 0.16 0 0.46 0.16 0 0.48 0.16 0 0.5 0.16 0 0.52 0.16 0 0.54 0.16 0 0.56 0.16 0 0.58 0.16 0 0.6 0.16 0 0.62 0.16 0 0.64 0.16 0 0.66 0.16 0 0.68 0.16 0 0.7 0.16 0 0.72 0.16 0 0.74 0.16 0 0.76 0.16 0 0.78 0.16 0 0.8 0.16 0 0.82 0.16 0 0.84 0.16 0 0.86 0.16 0 0.88 0.16 0 0.9 0.16 0 0.92 0.16 0 0.94 0.16 0 0.96 0.16 0 0.98 0.16 0 1 0.16 0 0 0.18 0 0.02 0.18 0 0.04 0.18 0 0.06 0.18 0 0.08 0.18 0 0.1 0.18 0 0.12 0.18 0 0.14 0.18 0 0.16 0.18 0 0.18 0.18 0 0.2 0.18 0 0.22 0.18 0 0.24 0.18 0 0.26 0.18 0 0.28 0.18 0 0.3 0.18 0 0.32 0.18 0 0.34 0.18 0 0.36 0.18 0 0.38 0.18 0 0.4 0.18 0 0.42 0.18 0 0.44 0.18 0 0.46 0.18 0 0.48 0.18 0 0.5 0.18 0 0.52 0.18 0 0.54 0.18 0 0.56 0.18 0 0.58 0.18 0 0.6 0.18 0 0.62 0.18 0 0.64 0.18 0 0.66 0.18 0 0.68 0.18 0 0.7 0.18 0 0.72 0.18 0 0.74 0.18 0 0.76 0.18 0 0.78 0.18 0 0.8 0.18 0 0.82 0.18 0 0.84 0.18 0 0.86 0.18 0 0.88 0.18 0 0.9 0.18 0 0.92 0.18 0 0.94 0.18 0 0.96 0.18 0 0.98 0.18 0 1 0.18 0 0 0.2 0 0.02 0.2 0 0.04 0.2 0 0.06 0.2 0 0.08 0.2 0 0.1 0.2 0 0.12 0.2 0 0.14 0.2 0 0.16 0.2 0 0.18 0.2 0 0.2 0.2 0 0.22 0.2 0 0.24 0.2 0 0.26 0.2 0 0.28 0.2 0 0.3 0.2 0 0.32 0.2 0 0.34 0.2 0 0.36 0.2 0 0.38 0.2 0 0.4 0.2 0 0.42 0.2 0 0.44 0.2 0 0.46 0.2 0 0.48 0.2 0 0.5 0.2 0 0.52 0.2 0 0.54 0.2 0 0.56 0.2 0 0.58 0.2 0 0.6 0.2 0 0.62 0.2 0 0.64 0.2 0 0.66 0.2 0 0.68 0.2 0 0.7 0.2 0 0.72 0.2 0 0.74 0.2 0 0.76 0.2 0 0.78 0.2 0 0.8 0.2 0 0.82 0.2 0 0.84 0.2 0 0.86 0.2 0 0.88 0.2 0 0.9 0.2 0 0.92 0.2 0 0.94 0.2 0 0.96 0.2 0 0.98 0.2 0 1 0.2 0 0 0.22 0 0.02 0.22 0 0.04 0.22 0 0.06 0.22 0 0.08 0.22 0 0.1 0.22 0 0.12 0.22 0 0.14 0.22 0 0.16 0.22 0 0.18 0.22 0 0.2 0.22 0 0.22 0.22 0 0.24 0.22 0 0.26 0.22 0 0.28 0.22 0 0.3 0.22 0 0.32 0.22 0 0.34 0.22 0 0.36 0.22 0 0.38 0.22 0 0.4 0.22 0 0.42 0.22 0 0.44 0.22 0 0.46 0.22 0 0.48 0.22 0 0.5 0.22 0 0.52 0.22 0 0.54 0.22 0 0.56 0.22 0 0.58 0.22 0 0.6 0.22 0 0.62 0.22 0 0.64 0.22 0 0.66 0.22 0 0.68 0.22 0 0.7 0.22 0 0.72 0.22 0 0.74 0.22 0 0.76 0.22 0 0.78 0.22 0 0.8 0.22 0 0.82 0.22 0 0.84 0.22 0 0.86 0.22 0 0.88 0.22 0 0.9 0.22 0 0.92 0.22 0 0.94 0.22 0 0.96 0.22 0 0.98 0.22 0 1 0.22 0 0 0.24 0 0.02 0.24 0 0.04 0.24 0 0.06 0.24 0 0.08 0.24 0 0.1 0.24 0 0.12 0.24 0 0.14 0.24 0 0.16 0.24 0 0.18 0.24 0 0.2 0.24 0 0.22 0.24 0 0.24 0.24 0 0.26 0.24 0 0.28 0.24 0 0.3 0.24 0 0.32 0.24 0 0.34 0.24 0 0.36 0.24 0 0.38 0.24 0 0.4 0.24 0 0.42 0.24 0 0.44 0.24 0 0.46 0.24 0 0.48 0.24 0 0.5 0.24 0 0.52 0.24 0 0.54 0.24 0 0.56 0.24 0 0.58 0.24 0 0.6 0.24 0 0.62 0.24 0 0.64 0.24 0 0.66 0.24 0 0.68 0.24 0 0.7 0.24 0 0.72 0.24 0 0.74 0.24 0 0.76 0.24 0 0.78 0.24 0 0.8 0.24 0 0.82 0.24 0 0.84 0.24 0 0.86 0.24 0 0.88 0.24 0 0.9 0.24 0 0.92 0.24 0 0.94 0.24 0 0.96 0.24 0 0.98 0.24 0 1 0.24 0 0 0.26 0 0.02 0.26 0 0.04 0.26 0 0.06 0.26 0 0.08 0.26 0 0.1 0.26 0 0.12 0.26 0 0.14 0.26 0 0.16 0.26 0 0.18 0.26 0 0.2 0.26 0 0.22 0.26 0 0.24 0.26 0 0.26 0.26 0 0.28 0.26 0 0.3 0.26 0 0.32 0.26 0 0.34 0.26 0 0.36 0.26 0 0.38 0.26 0 0.4 0.26 0 0.42 0.26 0 0.44 0.26 0 0.46 0.26 0 0.48 0.26 0 0.5 0.26 0 0.52 0.26 0 0.54 0.26 0 0.56 0.26 0 0.58 0.26 0 0.6 0.26 0 0.62 0.26 0 0.64 0.26 0 0.66 0.26 0 0.68 0.26 0 0.7 0.26 0 0.72 0.26 0 0.74 0.26 0 0.76 0.26 0 0.78 0.26 0 0.8 0.26 0 0.82 0.26 0 0.84 0.26 0 0.86 0.26 0 0.88 0.26 0 0.9 0.26 0 0.92 0.26 0 0.94 0.26 0 0.96 0.26 0 0.98 0.26 0 1 0.26 0 0 0.28 0 0.02 0.28 0 0.04 0.28 0 0.06 0.28 0 0.08 0.28 0 0.1 0.28 0 0.12 0.28 0 0.14 0.28 0 0.16 0.28 0 0.18 0.28 0 0.2 0.28 0 0.22 0.28 0 0.24 0.28 0 0.26 0.28 0 0.28 0.28 0 0.3 0.28 0 0.32 0.28 0 0.34 0.28 0 0.36 0.28 0 0.38 0.28 0 0.4 0.28 0 0.42 0.28 0 0.44 0.28 0 0.46 0.28 0 0.48 0.28 0 0.5 0.28 0 0.52 0.28 0 0.54 0.28 0 0.56 0.28 0 0.58 0.28 0 0.6 0.28 0 0.62 0.28 0 0.64 0.28 0 0.66 0.28 0 0.68 0.28 0 0.7 0.28 0 0.72 0.28 0 0.74 0.28 0 0.76 0.28 0 0.78 0.28 0 0.8 0.28 0 0.82 0.28 0 0.84 0.28 0 0.86 0.28 0 0.88 0.28 0 0.9 0.28 0 0.92 0.28 0 0.94 0.28 0 0.96 0.28 0 0.98 0.28 0 1 0.28 0 0 0.3 0 0.02 0.3 0 0.04 0.3 0 0.06 0.3 0 0.08 0.3 0 0.1 0.3 0 0.12 0.3 0 0.14 0.3 0 0.16 0.3 0 0.18 0.3 0 0.2 0.3 0 0.22 0.3 0 0.24 0.3 0 0.26 0.3 0 0.28 0.3 0 0.3 0.3 0 0.32 0.3 0 0.34 0.3 0 0.36 0.3 0 0.38 0.3 0 0.4 0.3 0 0.42 0.3 0 0.44 0.3 0 0.46 0.3 0 0.48 0.3 0 0.5 0.3 0 0.52 0.3 0 0.54 0.3 0 0.56 0.3 0 0.58 0.3 0 0.6 0.3 0 0.62 0.3 0 0.64 0.3 0 0.66 0.3 0 0.68 0.3 0 0.7 0.3 0 0.72 0.3 0 0.74 0.3 0 0.76 0.3 0 0.78 0.3 0 0.8 0.3 0 0.82 0.3 0 0.84 0.3 0 0.86 0.3 0 0.88 0.3 0 0.9 0.3 0 0.92 0.3 0 0.94 0.3 0 0.96 0.3 0 0.98 0.3 0 1 0.3 0 0 0.32 0 0.02 0.32 0 0.04 0.32 0 0.06 0.32 0 0.08 0.32 0 0.1 0.32 0 0.12 0.32 0 0.14 0.32 0 0.16 0.32 0 0.18 0.32 0 0.2 0.32 0 0.22 0.32 0 0.24 0.32 0 0.26 0.32 0 0.28 0.32 0 0.3 0.32 0 0.32 0.32 0 0.34 0.32 0 0.36 0.32 0 0.38 0.32 0 0.4 0.32 0 0.42 0.32 0 0.44 0.32 0 0.46 0.32 0 0.48 0.32 0 0.5 0.32 0 0.52 0.32 0 0.54 0.32 0 0.56 0.32 0 0.58 0.32 0 0.6 0.32 0 0.62 0.32 0 0.64 0.32 0 0.66 0.32 0 0.68 0.32 0 0.7 0.32 0 0.72 0.32 0 0.74 0.32 0 0.76 0.32 0 0.78 0.32 0 0.8 0.32 0 0.82 0.32 0 0.84 0.32 0 0.86 0.32 0 0.88 0.32 0 0.9 0.32 0 0.92 0.32 0 0.94 0.
[...]
			<PointData Scalars="VitesseX">
				<DataArray Name="VitesseX" type="Float32" format="ascii">
 0 0 0 0 0 0 0 0 0 0 0 0 0 0 0 0 0 0 0 0 0 0 0 0 0 0 0 0 0 0 0 0 0 0 0 0 0 0 0 0 0 0 0 0 0 0 0 0 0 0 -0 0 -0.000332715 -0.00111535 -0.00236614 -0.00406557 -0.00618713 -0.00869774 -0.0115582 -0.014724 -0.0181456 -0.0217695 -0.0255392 -0.0293994 -0.0332834 -0.0371239 -0.0408771 -0.0444811 -0.0478896 -0.0510323 -0.0538387 -0.0562947 -0.0583577 -0.0599936 -0.0611457 -0.061928 -0.0627143 -0.0630387 -0.0626383 -0.0615973 -0.0600428 -0.0580237 -0.0555753 -0.0527203 -0.0495196 -0.0460479 -0.0423445 -0.0384666 -0.034481 -0.0304526 -0.026447 -0.0225285 -0.0187603 -0.0152037 -0.0119164 -0.00895023 -0.00633879 -0.00408206 -0.0023268 -0.00104732 -0.000265534 -3.16335e-27 0 -0.00063766 -0.00217607 -0.00464507 -0.00800689 -0.0122096 -0.017188 -0.0228642 -0.0291496 -0.0359436 -0.0431326 -0.050628 -0.0583428 -0.0661152 -0.0737575 -0.0812101 -0.088358 -0.0950873 -0.101292 -0.106876 -0.111749 -0.115837 -0.119074 -0.12139 -0.122826 -0.123523 -0.123474 -0.12233 -0.120146 -0.117004 -0.112972 -0.108097 -0.102471 -0.096209 -0.0893974 -0.0821515 -0.0745825 -0.0668131 -0.0589685 -0.051176 -0.043558 -0.0362363 -0.0293287 -0.0229462 -0.0171915 -0.0121526 -0.00787826 -0.00446032 -0.00200246 -0.000505205 -5.74395e-27 0 -0.000916954 -0.00317896 -0.00682196 -0.0117911 -0.0180101 -0.0253775 -0.0337863 -0.04315 -0.0533137 -0.0640151 -0.0751056 -0.086455 -0.0978882 -0.109216 -0.120263 -0.130854 -0.140823 -0.150013 -0.158278 -0.165488 -0.171531 -0.17631 -0.179737 -0.181789 -0.18256 -0.182147 -0.180246 -0.176884 -0.172138 -0.166103 -0.15886 -0.150537 -0.141283 -0.131233 -0.120557 -0.109419 -0.0979954 -0.0864688 -0.0750251 -0.0638416 -0.0530957 -0.0429586 -0.0335922 -0.0251471 -0.0177564 -0.0115287 -0.00652956 -0.00292605 -0.000736908 -8.23569e-27 0 -0.00117653 -0.00412665 -0.00888817 -0.0153735 -0.0235148 -0.0332723 -0.044421 -0.0566297 -0.0698125 -0.0837763 -0.0983031 -0.113175 -0.128158 -0.143002 -0.157476 -0.171351 -0.184407 -0.196438 -0.207253 -0.216681 -0.224573 -0.230807 -0.235275 -0.2379 -0.238772 -0.238029 -0.235369 -0.230841 -0.22454 -0.216573 -0.207057 -0.19615 -0.184035 -0.170902 -0.156964 -0.142437 -0.127545 -0.112527 -0.0976245 -0.0830643 -0.0690761 -0.0558809 -0.0436885 -0.0326939 -0.0230725 -0.0149721 -0.00850763 -0.00380336 -0.000957016 -1.05998e-26 0 -0.00141821 -0.00499893 -0.0107857 -0.0188156 -0.0289147 -0.0407264 -0.0541781 -0.0690712 -0.0851739 -0.102234 -0.119985 -0.138157 -0.156465 -0.174601 -0.192283 -0.209227 -0.225166 -0.239846 -0.253034 -0.264522 -0.274129 -0.281706 -0.287127 -0.290273 -0.291238 -0.290183 -0.28679 -0.28115 -0.273373 -0.263584 -0.251928 -0.238596 -0.223804 -0.207791 -0.190812 -0.173126 -0.155007 -0.136743 -0.118626 -0.100929 -0.0839301 -0.0678953 -0.0530781 -0.0397147 -0.028019 -0.0181754 -0.0103361 -0.00461779 -0.00116208 -1.27994e-26 0 -0.00163675 -0.00585775 -0.0127144 -0.0220325 -0.0336423 -0.047393 -0.0630742 -0.0804408 -0.099221 -0.11912 -0.139824 -0.161021 -0.182373 -0.203522 -0.224135 -0.243883 -0.262452 -0.279545 -0.294892 -0.308251 -0.31941 -0.328198 -0.334475 -0.338078 -0.33912 -0.337771 -0.333691 -0.327017 -0.317874 -0.306404 -0.29278 -0.277223 -0.259979 -0.241335 -0.221583 -0.20102 -0.179962 -0.158747 -0.137708 -0.117163 -0.0974293 -0.0788162 -0.0616157 -0.0461006 -0.0325192 -0.02109 -0.0119917 -0.00536131 -0.00134889 -1.48002e-26 0 -0.00184575 -0.0066187 -0.0143117 -0.0247606 -0.0378322 -0.053325 -0.0709969 -0.090571 -0.11174 -0.134171 -0.15751 -0.181403 -0.205467 -0.229298 -0.252519 -0.27476 -0.295664 -0.314898 -0.332156 -0.347167 -0.359695 -0.369546 -0.376567 -0.380562 -0.38166 -0.380039 -0.375326 -0.367709 -0.357331 -0.344351 -0.328975 -0.31145 -0.292028 -0.271024 -0.248803 -0.225694 -0.202031 -0.178201 -0.154579 -0.131515 -0.109366 -0.0884754 -0.0691692 -0.0517524 -0.0365035 -0.0236707 -0.0134573 -0.00602595 -0.00151452 -1.6571e-26 0 -0.00200437 -0.00725404 -0.0156503 -0.0271028 -0.0414386 -0.0584338 -0.0778221 -0.0992995 -0.122528 -0.147142 -0.172751 -0.198967 -0.225369 -0.251509 -0.276975 -0.301359 -0.324269 -0.345339 -0.364233 -0.380653 -0.39434 -0.405089 -0.412735 -0.417045 -0.418172 -0.41628 -0.410986 -0.402528 -0.391051 -0.376739 -0.359822 -0.340576 -0.319296 -0.296328 -0.272037 -0.246772 -0.220884 -0.194809 -0.16898 -0.143768 -0.119558 -0.096724 -0.0756218 -0.0565826 -0.0399102 -0.0258778 -0.0147109 -0.00659084 -0.00165575 -1.8084e-26 0 -0.00217229 -0.00775369 -0.0167462 -0.0290261 -0.0444023 -0.0626343 -0.0834364 -0.106482 -0.131408 -0.157821 -0.185302 -0.213432 -0.241757 -0.269797 -0.297105 -0.323242 -0.347788 -0.370352 -0.390572 -0.408141 -0.422782 -0.434256 -0.442396 -0.446952 -0.448102 -0.445976 -0.440194 -0.431028 -0.418636 -0.40322 -0.385034 -0.36437 -0.341553 -0.316942 -0.290913 -0.263857 -0.236179 -0.208314 -0.180697 -0.153733 -0.127846 -0.103434 -0.0808734 -0.060516 -0.0426861 -0.0276768 -0.0157329 -0.00704877 -0.00177139 -1.93155e-26 0 -0.00228138 -0.00812969 -0.0175823 -0.030497 -0.0466725 -0.0658559 -0.0877463 -0.112 -0.138234 -0.166033 -0.194956 -0.224559 -0.254363 -0.283859 -0.312577 -0.340056 -0.365854 -0.389559 -0.410794 -0.429222 -0.444567 -0.456586 -0.465092 -0.469822 -0.470974 -0.468641 -0.462463 -0.452732 -0.43962 -0.423347 -0.40418 -0.382424 -0.358422 -0.332544 -0.30519 -0.27678 -0.247735 -0.218506 -0.189537 -0.161254 -0.134104 -0.108503 -0.0848423 -0.0634911 -0.0447878 -0.0290399 -0.0165075 -0.00739579 -0.0018592 -2.02463e-26 0 -0.00234641 -0.00837905 -0.0181433 -0.0314896 -0.0482104 -0.0680445 -0.090681 -0.115764 -0.142896 -0.171648 -0.201561 -0.232175 -0.262992 -0.293485 -0.323169 -0.351564 -0.378203 -0.402661 -0.424566 -0.443572 -0.45938 -0.471749 -0.48048 -0.485293 -0.48642 -0.48391 -0.477425 -0.467279 -0.453645 -0.436757 -0.416901 -0.394395 -0.36959 -0.342862 -0.314626 -0.285318 -0.255362 -0.225229 -0.195376 -0.166225 -0.138232 -0.111849 -0.0874662 -0.0654612 -0.046182 -0.0299455 -0.0170226 -0.00762673 -0.001918 -2.08616e-26 0 -0.00237286 -0.00849734 -0.0184191 -0.0319867 -0.0489903 -0.0691647 -0.0921937 -0.117715 -0.145324 -0.174581 -0.205019 -0.23617 -0.267522 -0.298543 -0.328717 -0.35756 -0.384618 -0.409464 -0.431707 -0.450992 -0.467007 -0.479509 -0.488309 -0.493115 -0.494191 -0.491507 -0.484779 -0.474341 -0.460364 -0.443096 -0.422844 -0.399919 -0.374678 -0.34752 -0.318849 -0.289098 -0.258713 -0.228168 -0.197926 -0.168407 -0.140044 -0.113297 -0.0886079 -0.0663242 -0.046797 -0.0303475 -0.0172519 -0.00772954 -0.00194482 -2.11518e-26 0 -0.00236149 -0.00847811 -0.0183931 -0.0319556 -0.0489562 -0.0691303 -0.0921619 -0.117689 -0.145307 -0.174576 -0.20503 -0.236199 -0.267573 -0.298598 -0.328776 -0.35764 -0.384733 -0.409609 -0.431857 -0.451133 -0.467132 -0.479608 -0.488376 -0.49315 -0.494208 -0.491477 -0.48471 -0.474228 -0.460198 -0.442884 -0.422593 -0.399626 -0.374356 -0.34719 -0.318517 -0.28877 -0.258392 -0.227863 -0.197654 -0.168191 -0.139887 -0.113168 -0.0884839 -0.0662366 -0.046739 -0.0303123 -0.0172325 -0.00772097 -0.00194182 -2.11123e-26 0 -0.00231455 -0.00833096 -0.018093 -0.0314554 -0.048214 -0.0681097 -0.0908314 -0.116021 -0.143281 -0.172175 -0.202241 -0.233014 -0.263981 -0.29457 -0.324338 -0.352821 -0.379527 -0.404008 -0.42588 -0.444802 -0.460468 -0.472623 -0.481083 -0.485556 -0.486427 -0.483613 -0.476848 -0.466432 -0.452525 -0.435403 -0.415372 -0.392718 -0.367816 -0.341051 -0.312839 -0.283617 -0.253771 -0.223775 -0.194096 -0.165166 -0.137405 -0.111179 -0.0869221 -0.0650733 -0.0459257 -0.0297902 -0.0169383 -0.00759005 -0.00190896 -2.07437e-26 0 -0.00223156 -0.00805157 -0.0175045 -0.0304527 -0.046701 -0.0659991 -0.0880461 -0.112495 -0.138956 -0.167009 -0.196204 -0.226094 -0.256108 -0.285787 -0.31469 -0.342315 -0.368179 -0.391872 -0.413036 -0.431323 -0.446417 -0.458081 -0.466136 -0.470301 -0.47102 -0.468116 -0.461458 -0.451267 -0.4377 -0.421035 -0.401577 -0.379592 -0.355447 -0.329517 -0.302204 -0.273924 -0.245082 -0.216118 -0.187456 -0.159513 -0.132714 -0.107427 -0.0840134 -0.0628775 -0.0443849 -0.0287972 -0.0163772 -0.00733984 -0.00184624 -2.0052e-26 0 -0.00211371 -0.00764599 -0.0166415 -0.0289736 -0.0444589 -0.0628606 -0.0838924 -0.107223 -0.13248 -0.159261 -0.187134 -0.215647 -0.244275 -0.27261 -0.300195 -0.326511 -0.351127 -0.373687 -0.393823 -0.411167 -0.425435 -0.43642 -0.443927 -0.447701 -0.448241 -0.445233 -0.438783 -0.428973 -0.415957 -0.400009 -0.381427 -0.360454 -0.337444 -0.312755 -0.286772 -0.259891 -0.232497 -0.205003 -0.177827 -0.151326 -0.125907 -0.101952 -0.0797521 -0.0596836 -0.0421404 -0.0273482 -0.0155575 -0.00697416 -0.00175455 -1.90482e-26 0 -0.00196282 -0.00712003 -0.0155177 -0.0270417 -0.0415249 -0.0587467 -0.0784396 -0.100293 -0.123959 -0.149056 -0.175183 -0.201852 -0.22869 -0.255254 -0.281063 -0.305657 -0.328677 -0.349765 -0.368519 -0.384618 -0.397839 -0.407965 -0.414802 -0.418121 -0.418466 -0.415323 -0.409174 -0.399885 -0.38762 -0.372643 -0.355234 -0.335604 -0.31409 -0.291031 -0.266785 -0.241725 -0.216208 -0.19063 -0.165357 -0.140731 -0.117097 -0.0948289 -0.0742075 -0.0555583 -0.0392274 -0.0254657 -0.0144919 -0.0064986 -0.00163528 -1.77448e-26 0 -0.00178331 -0.00648041 -0.0141481 -0.0246873 -0.037946 -0.0537211 -0.0717708 -0.0918107 -0.11352 -0.136548 -0.160522 -0.184976 -0.209601 -0.233968 -0.257593 -0.280092 -0.301169 -0.320433 -0.337473 -0.352082 -0.364031 -0.373127 -0.379184 -0.382006 -0.382151 -0.378803 -0.372925 -0.364145 -0.352741 -0.339042 -0.32321 -0.305345 -0.285729 -0.264679 -0.242556 -0.219712 -0.196474 -0.173205 -0.150242 -0.127883 -0.106421 -0.0861964 -0.0674841 -0.0505489 -0.0356916 -0.0231788 -0.0131969 -0.00592053 -0.00149031 -1.61536e-26 0 -0.0015776 -0.00574989 -0.0125683 -0.0219512 -0.0337713 -0.047858 -0.063991 -0.0819136 -0.101336 -0.12194 -0.14338 -0.165277 -0.187306 -0.209074 -0.230155 -0.250231 -0.269006 -0.286095 -0.301171 -0.314044 -0.324511 -0.332409 -0.337575 -0.339832 -0.339678 -0.335878 -0.329768 -0.32123 -0.31062 -0.298213 -0.284296 -0.269156 -0.252448 -0.234045 -0.214457 -0.194198 -0.17361 -0.153022 -0.132723 -0.11298 -0.0940484 -0.0761861 -0.0596721 -0.0447201 -0.0315855 -0.0205233 -0.0116926 -0.00524888 -0.00132188 -1.43016e-26 0 -0.00134774 -0.0049323 -0.0108009 -0.0188914 -0.0290987 -0.0412767 -0.0552374 -0.0707607 -0.0875957 -0.105462 -0.124048 -0.143046 -0.162138 -0.180966 -0.199182 -0.21653 -0.232694 -0.247317 -0.260183 -0.2711 -0.279897 -0.286439 -0.290573 -0.292168 -0.291305 -0.287378 -0.281785 -0.27428 -0.264919 -0.253868 -0.241233 -0.227595 -0.213359 -0.198838 -0.182827 -0.165575 -0.147971 -0.130394 -0.11309 -0.0962811 -0.0801692 -0.0649556 -0.050902 -0.0381722 -0.0269763 -0.0175405 -0.0100024 -0.00449411 -0.00113261 -1.22344e-26 0 -0.00109863 -0.00403664 -0.00886966 -0.0155532 -0.0240019 -0.0340929 -0.0456757 -0.0585671 -0.0725556 -0.0874036 -0.102844 -0.118633 -0.134483 -0.150081 -0.16514 -0.179455 -0.192738 -0.204677 -0.215118 -0.223891 -0.230859 -0.235916 -0.238905 -0.23969 -0.238194 -0.23493 -0.230151 -0.223686 -0.215715 -0.206419 -0.195816 -0.184267 -0.17187 -0.159303 -0.147259 -0.134209 -0.119953 -0.10567 -0.0916362 -0.0780271 -0.0650015 -0.0526959 -0.041321 -0.0310136 -0.0219381 -0.0142778 -0.00815285 -0.00366799 -0.000925463 -9.98553e-27 0 -0.000836125 -0.00308699 -0.00681024 -0.0119825 -0.0185438 -0.0264045 -0.0354462 -0.0455209 -0.0564567 -0.0680631 -0.0801256 -0.0924401 -0.104782 -0.1169 -0.128552 -0.139566 -0.149715 -0.158766 -0.166587 -0.17305 -0.178058 -0.181546 -0.183388 -0.183476 -0.181812 -0.17889 -0.174802 -0.169409 -0.162934 -0.155533 -0.147213 -0.138274 -0.128734 -0.118691 -0.108758 -0.099961 -0.0899541 -0.0792255 -0.0686944 -0.0585093 -0.0487766 -0.0395804 -0.0310664 -0.0233514 -0.0165469 -0.0107866 -0.00617304 -0.00278345 -0.000703677 -7.58159e-27 0 -0.000564322 -0.00210037 -0.00466186 -0.00824465 -0.0128206 -0.0183294 -0.0246882 -0.0317908 -0.0395122 -0.0477101 -0.0562223 -0.0648722 -0.0735047 -0.08195 -0.0900141 -0.097546 -0.104385 -0.110392 -0.115461 -0.119507 -0.12248 -0.124358 -0.125125 -0.124569 -0.122609 -0.119928 -0.116579 -0.112373 -0.107513 -0.102115 -0.0961879 -0.0899545 -0.083433 -0.0766899 -0.0698064 -0.0634513 -0.0582302 -0.0514391 -0.0446 -0.0380138 -0.0317406 -0.0258121 -0.0203035 -0.0153097 -0.0108874 -0.00712075 -0.00409409 -0.00185437 -0.000470721 -5.05967e-27 0 -0.000287703 -0.00109673 -0.00246933 -0.00441594 -0.00693964 -0.0100101 -0.0135867 -0.017609 -0.021996 -0.0266555 -0.0314822 -0.0363398 -0.0411398 -0.045778 -0.0501279 -0.0540765 -0.0575183 -0.0603966 -0.0626418 -0.0642141 -0.0651029 -0.0653409 -0.064961 -0.063838 -0.0613455 -0.0589241 -0.0563935 -0.0534923 -0.050341 -0.0470269 -0.0435873 -0.0401465 -0.0367127 -0.0333303 -0.0300182 -0.0268594 -0.0249395 -0.022666 -0.019688 -0.016838 -0.0141448 -0.0116024 -0.00920775 -0.00702005 -0.00504967 -0.00333831 -0.00194884 -0.00089539 -0.000230272 -2.46146e-27 0 -2.10684e-05 -0.000103644 -0.0002793 -0.000575313 -0.00101401 -0.00160182 -0.00234244 -0.00321682 -0.00419393 -0.0052412 -0.00630809 -0.00730627 -0.00820346 -0.00896208 -0.00952354 -0.00983102 -0.00983681 -0.00952892 -0.00891252 -0.00797797 -0.00675672 -0.00529862 -0.00367343 -0.00192961 0.000715451 0.00302055 0.00479056 0.00635319 0.0077675 0.00893629 0.00981981 0.0104187 0.0107125 0.0106929 0.0103771 0.00982253 0.00866566 0.00669705 0.00567575 0.00470217 0.00374027 0.00284048 0.00206299 0.00140347 0.000882915 0.000503039 0.000231958 7.82224e-05 1.35897e-05 1.20181e-28 0 0.00022088 0.000862737 0.00188638 0.00324597 0.00489433 0.00679044 0.00889523 0.011185 0.0136355 0.0162231 0.0189386 0.0218079 0.0248237 0.0279537 0.0311923 0.0345432 0.0379733 0.0414468 0.0449219 0.0483472 0.0516596 0.0547765 0.0576046 0.0600387 0.0624673 0.064561 0.0657407 0.0660705 0.0657758 0.0647831 0.0631127 0.0608751 0.0580224 0.0546044 0.0506831 0.0463552 0.0416174 0.0360037 0.0309751 0.0261848 0.0215753 0.0172475 0.0133052 0.0098114 0.00680682 0.00433967 0.00241565 0.00105702 0.000262875 2.73407e-27 0 0.000461748 0.00181965 0.0040271 0.0070192 0.0107237 0.0150668 0.0199729 0.0253697 0.0311866 0.037354 0.0437995 0.0504788 0.0573446 0.0643024 0.0712707 0.0782108 0.0850402 0.0916265 0.0978799 0.103737 0.109085 0.113805 0.117784 0.120907 0.123335 0.125034 0.125483 0.124693 0.122764 0.119694 0.115619 0.110611 0.104674 0.0979116 0.09045 0.082437 0.073994 0.0647106 0.0557645 0.047251 0.0390768 0.0313926 0.0243485 0.0180713 0.0126287 0.00811498 0.00457116 0.00202725 0.000512678 5.3291e-27 0 0.000695689 0.00274795 0.0061034 0.010679 0.0163783 0.0230955 0.0307178 0.0391289 0.0482114 0.0578443 0.0679029 0.0782806 0.0888756 0.0995459 0.110132 0.120518 0.130616 0.140252 0.149208 0.157367 0.164667 0.170929 0.176019 0.179813 0.182362 0.183624 0.183278 0.181394 0.177899 0.17289 0.1665 0.158789 0.149856 0.13986 0.128978 0.117413 0.10536 0.0924381 0.0796884 0.0675849 0.0559743 0.045054 0.035018 0.0260538 0.0182599 0.0117706 0.00666138 0.00297027 0.000756713 7.84955e-27 0 0.000917739 0.00363227 0.00808179 0.0141669 0.0217684 0.03075 0.0409636 0.0522507 0.0644477 0.0773843 0.0908867 0.104785 0.118926 0.133132 0.147171 0.160839 0.174001 0.186496 0.198063 0.208497 0.217639 0.225311 0.231434 0.235866 0.238551 0.239397 0.238381 0.235378 0.230374 0.22349 0.21484 0.204537 0.192739 0.17966 0.16553 0.150599 0.135131 0.118743 0.102369 0.0868662 0.0720019 0.0580167 0.045146 0.0336347 0.0236141 0.0152493 0.00864917 0.00386992 0.0009903 1.02498e-26 0 0.00112472 0.00445927 0.00993151 0.0174285 0.0268097 0.0379108 0.0505501 0.0645299 0.0796425 0.0956713 0.112393 0.129582 0.147029 0.164533 0.181796 0.198549 0.21457 0.229665 0.243621 0.256176 0.267072 0.276129 0.283226 0.288213 0.291012 0.291468 0.28985 0.285758 0.279304 0.270598 0.25979 0.24707 0.232644 0.216746 0.199626 0.181577 0.162925 0.143212 0.123451 0.104794 0.0869088 0.0700778 0.0545735 0.040695 0.0286041 0.0184939 0.0105052 0.00470992 0.00120946 1.249e-26 0 0.00131453 0.00521944 0.0116237 0.0204128 0.0314234 0.0444659 0.0593273 0.0757744 0.0935586 0.11242 0.132089 0.152291 0.172763 0.193254 0.213457 0.233043 0.251701 0.269181 0.285252 0.299662 0.312146 0.322477 0.330471 0.335974 0.338912 0.33903 0.336801 0.33166 0.323853 0.313522 0.300842 0.286004 0.26922 0.250746 0.230886 0.209983 0.188401 0.165437 0.142611 0.12109 0.100464 0.0810496 0.0631535 0.0471241 0.0331503 0.0214531 0.0122033 0.00547661 0.00140955 1.45338e-26 0 0.00148364 0.00589853 0.0131321 0.0230734 0.0355375 0.0503127 0.0671582 0.0858086 0.105979 0.127369 0.149669 0.172561 0.195733 0.21887 0.241655 0.263757 0.284787 0.30442 0.322381 0.338412 0.352259 0.363675 0.372448 0.378415 0.38143 0.381322 0.378511 0.372474 0.36352 0.351785 0.33745 0.320718 0.301799 0.280989 0.258662 0.235214 0.211003 0.184971 0.159563 0.135508 0.112457 0.0907622 0.0707527 0.0528218 0.0371823 0.0240801 0.0137134 0.00616038 0.00158662 1.63492e-26 0 0.00162964 0.00648272 0.0144331 0.0253689 0.0390879 0.0553601 0.0739206 0.094476 0.116709 0.140286 0.16486 0.190074 0.215579 0.241023 0.266003 0.290221 0.313272 0.334776 0.354401 0.371837 0.386834 0.399148 0.40856 0.414895 0.417944 0.417646 0.414355 0.40758 0.397655 0.384673 0.368816 0.350342 0.329544 0.306754 0.282342 0.25674 0.23023 0.201467 0.174021 0.147828 0.122706 0.0990657 0.0772542 0.0576995 0.0406373 0.026333 0.01501 0.00674909 0.00173984 1.79082e-26 0 0.00175022 0.00696312 0.0155089 0.0272636 0.0420196 0.0595296 0.0795091 0.101641 0.125583 0.15097 0.177425 0.204559 0.231992 0.259334 0.28616 0.312084 0.336739 0.359756 0.380741 0.399348 0.415281 0.428306 0.438215 0.444821 0.447862 0.447418 0.44373 0.436306 0.425494 0.411444 0.394364 0.374515 0.352207 0.327796 0.301679 0.27433 0.245769 0.214737 0.185761 0.157843 0.131051 0.105833 0.0825587 0.0616818 0.0434612 0.0281767 0.0160719 0.00723099 0.00186696 1.9186e-26 0 0.00184344 0.00733769 0.0163549 0.0287285 0.0442873 0.0627565 0.083837 0.107194 0.132462 0.159255 0.18717 0.215792 0.244718 0.273526 0.301767 0.329031 0.354909 0.379022 0.401015 0.420513 0.437144 0.450685 0.460947 0.467735 0.470738 0.470164 0.466132 0.458177 0.446687 0.431818 0.413792 0.392884 0.369419 0.34377 0.316355 0.287682 0.257134 0.224728 0.194632 0.165409 0.137366 0.110959 0.0865865 0.0647078 0.0456102 0.0295823 0.0168799 0.00759882 0.00196426 2.01619e-26 0 0.00190777 0.0075929 0.0169341 0.0297411 0.045856 0.0649912 0.0868375 0.111047 0.13724 0.165012 0.193943 0.2236 0.253559 0.283379 0.312591 0.340767 0.367485 0.392355 0.415 0.435045 0.452104 0.465957 0.476421 0.483288 0.48623 0.485526 0.481213 0.472877 0.460907 0.445466 0.426785 0.405149 0.380896 0.354409 0.326136 0.296486 0.263851 0.231358 0.2005 0.170421 0.141554 0.114367 0.0892787 0.0667322 0.0470501 0.0305271 0.017417 0.00784698 0.00203034 2.08206e-26 0 0.00194216 0.00772896 0.0172422 0.0302858 0.046702 0.0661996 0.0884646 0.113142 0.139843 0.168154 0.197641 0.227861 0.258381 0.288742 0.318465 0.347112 0.374251 0.399484 0.422433 0.442718 0.459945 0.473894 0.48439 0.491221 0.494065 0.493238 0.488704 0.480114 0.467846 0.452071 0.433025 0.411 0.386338 0.359432 0.330764 0.300147 0.266127 0.234249 0.20308 0.172647 0.143437 0.115907 0.0905278 0.0676858 0.0477362 0.0309856 0.0176727 0.00797059 0.0020641 2.11518e-26 0 0.00194577 0.00774217 0.0172734 0.0303528 0.0468002 0.0663432 0.0886631 0.113404 0.140176 0.16856 0.198122 0.228411 0.258993 0.289403 0.319159 0.34782 0.374952 0.400158 0.42306 0.443279 0.46042 0.47427 0.484659 0.49137 0.494127 0.493259 0.488696 0.480108 0.467835 0.452056 0.433007 0.410979 0.386316 0.359431 0.330694 0.298349 0.265393 0.233997 0.202892 0.172509 0.143343 0.115825 0.0904929 0.0676757 0.047737 0.0309984 0.0176743 0.00797439 0.00206608 2.11503e-26 0 0.00192276 0.00764949 0.0170762 0.0300156 0.0462637 0.0655885 0.0876628 0.112136 0.138619 0.166697 0.195934 0.225882 0.256107 0.286142 0.315507 0.343762 0.370476 0.395253 0.417726 0.437509 0.454225 0.467666 0.477662 0.484006 0.486428 0.485455 0.480855 0.47233 0.460182 0.444593 0.425798 0.404085 0.379801 0.353356 0.324046 0.291505 0.260709 0.22996 0.199407 0.169563 0.14091 0.113869 0.0889791 0.0665576 0.0469606 0.0305115 