<?xml version="1.0"?>
<VTKFile type="PolyData">
	<PolyData>
		<Piece NumberOfPoints="2601" NumberOfPolys="2500">
			<Points>
				<DataArray type="Float32" NumberOfComponents="3" format="ascii">
 0 0 0 0.02 0 0 0.04 0 0 0.06 0 0 0.08 0 0 0.1 0 0 0.12 0 0 0.14 0 0 0.16 0 0 0.18 0 0 0.2 0 0 0.22 0 0 0.24 0 0 0.26 0 0 0.28 0 0 0.3 0 0 0.32 0 0 0.34 0 0 0.36 0 0 0.38 0 0 0.4 0 0 0.42 0 0 0.44 0 0 0.46 0 0 0.48 0 0 0.5 0 0 0.52 0 0 0.54 0 0 0.56 0 0 0.58 0 0 0.6 0 0 0.62 0 0 0.64 0 0 0.66 0 0 0.68 0 0 0.7 0 0 0.72 0 0 0.74 0 0 0.76 0 0 0.78 0 0 0.8 0 0 0.82 0 0 0.84 0 0 0.86 0 0 0.88 0 0 0.9 0 0 0.92 0 0 0.94 0 0 0.96 0 0 0.98 0 0 1 0 0 0 0.02 0 0.02 0.02 0 0.04 0.02 0 0.06 0.02 0 0.08 0.02 0 0.1 0.02 0 0.12 0.02 0 0.14 0.02 0 0.16 0.02 0 0.18 0.02 0 0.2 0.02 0 0.22 0.02 0 0.24 0.02 0 0.26 0.02 0 0.28 0.02 0 0.3 0.02 0 0.32 0.02 0 0.34 0.02 0 0.36 0.02 0 0.38 0.02 0 0.4 0.02 0 0.42 0.02 0 0.44 0.02 0 0.46 0.02 0 0.48 0.02 0 0.5 0.02 0 0.52 0.02 0 0.54 0.02 0 0.56 0.02 0 0.58 0.02 0 0.6 0.02 0 0.62 0.02 0 0.64 0.02 0 0.66 0.02 0 0.68 0.02 0 0.7 0.02 0 0.72 0.02 0 0.74 0.02 0 0.76 0.02 0 0.78 0.02 0 0.8 0.02 0 0.82 0.02 0 0.84 0.02 0 0.86 0.02 0 0.88 0.02 0 0.9 0.02 0 0.92 0.02 0 0.94 0.02 0 0.96 0.02 0 0.98 0.02 0 1 0.02 0 0 0.04 0 0.02 0.04 0 0.04 0.04 0 0.06 0.04 0 0.08 0.04 0 0.1 0.04 0 0.12 0.04 0 0.14 0.04 0 0.16 0.04 0 0.18 0.04 0 0.2 0.04 0 0.22 0.04 0 0.24 0.04 0 0.26 0.04 0 0.28 0.04 0 0.3 0.04 0 0.32 0.04 0 0.34 0.04 0 0.36 0.04 0 0.38 0.04 0 0.4 0.04 0 0.42 0.04 0 0.44 0.04 0 0.46 0.04 0 0.48 0.04 0 0.5 0.04 0 0.52 0.04 0 0.54 0.04 0 0.56 0.04 0 0.58 0.04 0 0.6 0.04 0 0.62 0.04 0 0.64 0.04 0 0.66 0.04 0 0.68 0.04 0 0.7 0.04 0 0.72 0.04 0 0.74 0.04 0 0.76 0.04 0 0.78 0.04 0 0.8 0.04 0 0.82 0.04 0 0.84 0.04 0 0.86 0.04 0 0.88 0.04 0 0.9 0.04 0 0.92 0.04 0 0.94 0.04 0 0.96 0.04 0 0.98 0.04 0 1 0.04 0 0 0.06 0 0.02 0.06 0 0.04 0.06 0 0.06 0.06 0 0.08 0.06 0 0.1 0.06 0 0.12 0.06 0 0.14 0.06 0 0.16 0.06 0 0.18 0.06 0 0.2 0.06 0 0.22 0.06 0 0.24 0.06 0 0.26 0.06 0 0.28 0.06 0 0.3 0.06 0 0.32 0.06 0 0.34 0.06 0 0.36 0.06 0 0.38 0.06 0 0.4 0.06 0 0.42 0.06 0 0.44 0.06 0 0.46 0.06 0 0.48 0.06 0 0.5 0.06 0 0.52 0.06 0 0.54 0.06 0 0.56 0.06 0 0.58 0.06 0 0.6 0.06 0 0.62 0.06 0 0.64 0.06 0 0.66 0.06 0 0.68 0.06 0 0.7 0.06 0 0.72 0.06 0 0.74 0.06 0 0.76 0.06 0 0.78 0.06 0 0.8 0.06 0 0.82 0.06 0 0.84 0.06 0 0.86 0.06 0 0.88 0.06 0 0.9 0.06 0 0.92 0.06 0 0.94 0.06 0 0.96 0.06 0 0.98 0.06 0 1 0.06 0 0 0.08 0 0.02 0.08 0 0.04 0.08 0 0.06 0.08 0 0.08 0.08 0 0.1 0.08 0 0.12 0.08 0 0.14 0.08 0 0.16 0.08 0 0.18 0.08 0 0.2 0.08 0 0.22 0.08 0 0.24 0.08 0 0.26 0.08 0 0.28 0.08 0 0.3 0.08 0 0.32 0.08 0 0.34 0.08 0 0.36 0.08 0 0.38 0.08 0 0.4 0.08 0 0.42 0.08 0 0.44 0.08 0 0.46 0.08 0 0.48 0.08 0 0.5 0.08 0 0.52 0.08 0 0.54 0.08 0 0.56 0.08 0 0.58 0.08 0 0.6 0.08 0 0.62 0.08 0 0.64 0.08 0 0.66 0.08 0 0.68 0.08 0 0.7 0.08 0 0.72 0.08 0 0.74 0.08 0 0.76 0.08 0 0.78 0.08 0 0.8 0.08 0 0.82 0.08 0 0.84 0.08 0 0.86 0.08 0 0.88 0.08 0 0.9 0.08 0 0.92 0.08 0 0.94 0.08 0 0.96 0.08 0 0.98 0.08 0 1 0.08 0 0 0.1 0 0.02 0.1 0 0.04 0.1 0 0.06 0.1 0 0.08 0.1 0 0.1 0.1 0 0.12 0.1 0 0.14 0.1 0 0.16 0.1 0 0.18 0.1 0 0.2 0.1 0 0.22 0.1 0 0.24 0.1 0 0.26 0.1 0 0.28 0.1 0 0.3 0.1 0 0.32 0.1 0 0.34 0.1 0 0.36 0.1 0 0.38 0.1 0 0.4 0.1 0 0.42 0.1 0 0.44 0.1 0 0.46 0.1 0 0.48 0.1 0 0.5 0.1 0 0.52 0.1 0 0.54 0.1 0 0.56 0.1 0 0.58 0.1 0 0.6 0.1 0 0.62 0.1 0 0.64 0.1 0 0.66 0.1 0 0.68 0.1 0 0.7 0.1 0 0.72 0.1 0 0.74 0.1 0 0.76 0.1 0 0.78 0.1 0 0.8 0.1 0 0.82 0.1 0 0.84 0.1 0 0.86 0.1 0 0.88 0.1 0 0.9 0.1 0 0.92 0.1 0 0.94 0.1 0 0.96 0.1 0 0.98 0.1 0 1 0.1 0 0 0.12 0 0.02 0.12 0 0.04 0.12 0 0.06 0.12 0 0.08 0.12 0 0.1 0.12 0 0.12 0.12 0 0.14 0.12 0 0.16 0.12 0 0.18 0.12 0 0.2 0.12 0 0.22 0.12 0 0.24 0.12 0 0.26 0.12 0 0.28 0.12 0 0.3 0.12 0 0.32 0.12 0 0.34 0.12 0 0.36 0.12 0 0.38 0.12 0 0.4 0.12 0 0.42 0.12 0 0.44 0.12 0 0.46 0.12 0 0.48 0.12 0 0.5 0.12 0 0.52 0.12 0 0.54 0.12 0 0.56 0.12 0 0.58 0.12 0 0.6 0.12 0 0.62 0.12 0 0.64 0.12 0 0.66 0.12 0 0.68 0.12 0 0.7 0.12 0 0.72 0.12 0 0.74 0.12 0 0.76 0.12 0 0.78 0.12 0 0.8 0.12 0 0.82 0.12 0 0.84 0.12 0 0.86 0.12 0 0.88 0.12 0 0.9 0.12 0 0.92 0.12 0 0.94 0.12 0 0.96 0.12 0 0.98 0.12 0 1 0.12 0 0 0.14 0 0.02 0.14 0 0.04 0.14 0 0.06 0.14 0 0.08 0.14 0 0.1 0.14 0 0.12 0.14 0 0.14 0.14 0 0.16 0.14 0 0.18 0.14 0 0.2 0.14 0 0.22 0.14 0 0.24 0.14 0 0.26 0.14 0 0.28 0.14 0 0.3 0.14 0 0.32 0.14 0 0.34 0.14 0 0.36 0.14 0 0.38 0.14 0 0.4 0.14 0 0.42 0.14 0 0.44 0.14 0 0.46 0.14 0 0.48 0.14 0 0.5 0.14 0 0.52 0.14 0 0.54 0.14 0 0.56 0.14 0 0.58 0.14 0 0.6 0.14 0 0.62 0.14 0 0.64 0.14 0 0.66 0.14 0 0.68 0.14 0 0.7 0.14 0 0.72 0.14 0 0.74 0.14 0 0.76 0.14 0 0.78 0.14 0 0.8 0.14 0 0.82 0.14 0 0.84 0.14 0 0.86 0.14 0 0.88 0.14 0 0.9 0.14 0 0.92 0.14 0 0.94 0.14 0 0.96 0.14 0 0.98 0.14 0 1 0.14 0 0 0.16 0 0.02 0.16 0 0.04 0.16 0 0.06 0.16 0 0.08 0.16 0 0.1 0.16 0 0.12 0.16 0 0.14 0.16 0 0.16 0.16 0 0.18 0.16 0 0.2 0.16 0 0.22 0.16 0 0.24 0.16 0 0.26 0.16 0 0.28 0.16 0 0.3 0.16 0 0.32 0.16 0 0.34 0.16 0 0.36 0.16 0 0.38 0.16 0 0.4 0.16 0 0.42 0.16 0 0.44 0.16 0 0.46 0.16 0 0.48 0.16 0 0.5 0.16 0 0.52 0.16 0 0.54 0.16 0 0.56 0.16 0 0.58 0.16 0 0.6 0.16 0 0.62 0.16 0 0.64 0.16 0 0.66 0.16 0 0.68 0.16 0 0.7 0.16 0 0.72 0.16 0 0.74 0.16 0 0.76 0.16 0 0.78 0.16 0 0.8 0.16 0 0.82 0.16 0 0.84 0.16 0 0.86 0.16 0 0.88 0.16 0 0.9 0.16 0 0.92 0.16 0 0.94 0.16 0 0.96 0.16 0 0.98 0.16 0 1 0.16 0 0 0.18 0 0.02 0.18 0 0.04 0.18 0 0.06 0.18 0 0.08 0.18 0 0.1 0.18 0 0.12 0.18 0 0.14 0.18 0 0.16 0.18 0 0.18 0.18 0 0.2 0.18 0 0.22 0.18 0 0.24 0.18 0 0.26 0.18 0 0.28 0.18 0 0.3 0.18 0 0.32 0.18 0 0.34 0.18 0 0.36 0.18 0 0.38 0.18 0 0.4 0.18 0 0.42 0.18 0 0.44 0.18 0 0.46 0.18 0 0.48 0.18 0 0.5 0.18 0 0.52 0.18 0 0.54 0.18 0 0.56 0.18 0 0.58 0.18 0 0.6 0.18 0 0.62 0.18 0 0.64 0.18 0 0.66 0.18 0 0.68 0.18 0 0.7 0.18 0 0.72 0.18 0 0.74 0.18 0 0.76 0.18 0 0.78 0.18 0 0.8 0.18 0 0.82 0.18 0 0.84 0.18 0 0.86 0.18 0 0.88 0.18 0 0.9 0.18 0 0.92 0.18 0 0.94 0.18 0 0.96 0.18 0 0.98 0.18 0 1 0.18 0 0 0.2 0 0.02 0.2 0 0.04 0.2 0 0.06 0.2 0 0.08 0.2 0 0.1 0.2 0 0.12 0.2 0 0.14 0.2 0 0.16 0.2 0 0.18 0.2 0 0.2 0.2 0 0.22 0.2 0 0.24 0.2 0 0.26 0.2 0 0.28 0.2 0 0.3 0.2 0 0.32 0.2 0 0.34 0.2 0 0.36 0.2 0 0.38 0.2 0 0.4 0.2 0 0.42 0.2 0 0.44 0.2 0 0.46 0.2 0 0.48 0.2 0 0.5 0.2 0 0.52 0.2 0 0.54 0.2 0 0.56 0.2 0 0.58 0.2 0 0.6 0.2 0 0.62 0.2 0 0.64 0.2 0 0.66 0.2 0 0.68 0.2 0 0.7 0.2 0 0.72 0.2 0 0.74 0.2 0 0.76 0.2 0 0.78 0.2 0 0.8 0.2 0 0.82 0.2 0 0.84 0.2 0 0.86 0.2 0 0.88 0.2 0 0.9 0.2 0 0.92 0.2 0 0.94 0.2 0 0.96 0.2 0 0.98 0.2 0 1 0.2 0 0 0.22 0 0.02 0.22 0 0.04 0.22 0 0.06 0.22 0 0.08 0.22 0 0.1 0.22 0 0.12 0.22 0 0.14 0.22 0 0.16 0.22 0 0.18 0.22 0 0.2 0.22 0 0.22 0.22 0 0.24 0.22 0 0.26 0.22 0 0.28 0.22 0 0.3 0.22 0 0.32 0.22 0 0.34 0.22 0 0.36 0.22 0 0.38 0.22 0 0.4 0.22 0 0.42 0.22 0 0.44 0.22 0 0.46 0.22 0 0.48 0.22 0 0.5 0.22 0 0.52 0.22 0 0.54 0.22 0 0.56 0.22 0 0.58 0.22 0 0.6 0.22 0 0.62 0.22 0 0.64 0.22 0 0.66 0.22 0 0.68 0.22 0 0.7 0.22 0 0.72 0.22 0 0.74 0.22 0 0.76 0.22 0 0.78 0.22 0 0.8 0.22 0 0.82 0.22 0 0.84 0.22 0 0.86 0.22 0 0.88 0.22 0 0.9 0.22 0 0.92 0.22 0 0.94 0.22 0 0.96 0.22 0 0.98 0.22 0 1 0.22 0 0 0.24 0 0.02 0.24 0 0.04 0.24 0 0.06 0.24 0 0.08 0.24 0 0.1 0.24 0 0.12 0.24 0 0.14 0.24 0 0.16 0.24 0 0.18 0.24 0 0.2 0.24 0 0.22 0.24 0 0.24 0.24 0 0.26 0.24 0 0.28 0.24 0 0.3 0.24 0 0.32 0.24 0 0.34 0.24 0 0.36 0.24 0 0.38 0.24 0 0.4 0.24 0 0.42 0.24 0 0.44 0.24 0 0.46 0.24 0 0.48 0.24 0 0.5 0.24 0 0.52 0.24 0 0.54 0.24 0 0.56 0.24 0 0.58 0.24 0 0.6 0.24 0 0.62 0.24 0 0.64 0.24 0 0.66 0.24 0 0.68 0.24 0 0.7 0.24 0 0.72 0.24 0 0.74 0.24 0 0.76 0.24 0 0.78 0.24 0 0.8 0.24 0 0.82 0.24 0 0.84 0.24 0 0.86 0.24 0 0.88 0.24 0 0.9 0.24 0 0.92 0.24 0 0.94 0.24 0 0.96 0.24 0 0.98 0.24 0 1 0.24 0 0 0.26 0 0.02 0.26 0 0.04 0.26 0 0.06 0.26 0 0.08 0.26 0 0.1 0.26 0 0.12 0.26 0 0.14 0.26 0 0.16 0.26 0 0.18 0.26 0 0.2 0.26 0 0.22 0.26 0 0.24 0.26 0 0.26 0.26 0 0.28 0.26 0 0.3 0.26 0 0.32 0.26 0 0.34 0.26 0 0.36 0.26 0 0.38 0.26 0 0.4 0.26 0 0.42 0.26 0 0.44 0.26 0 0.46 0.26 0 0.48 0.26 0 0.5 0.26 0 0.52 0.26 0 0.54 0.26 0 0.56 0.26 0 0.58 0.26 0 0.6 0.26 0 0.62 0.26 0 0.64 0.26 0 0.66 0.26 0 0.68 0.26 0 0.7 0.26 0 0.72 0.26 0 0.74 0.26 0 0.76 0.26 0 0.78 0.26 0 0.8 0.26 0 0.82 0.26 0 0.84 0.26 0 0.86 0.26 0 0.88 0.26 0 0.9 0.26 0 0.92 0.26 0 0.94 0.26 0 0.96 0.26 0 0.98 0.26 0 1 0.26 0 0 0.28 0 0.02 0.28 0 0.04 0.28 0 0.06 0.28 0 0.08 0.28 0 0.1 0.28 0 0.12 0.28 0 0.14 0.28 0 0.16 0.28 0 0.18 0.28 0 0.2 0.28 0 0.22 0.28 0 0.24 0.28 0 0.26 0.28 0 0.28 0.28 0 0.3 0.28 0 0.32 0.28 0 0.34 0.28 0 0.36 0.28 0 0.38 0.28 0 0.4 0.28 0 0.42 0.28 0 0.44 0.28 0 0.46 0.28 0 0.48 0.28 0 0.5 0.28 0 0.52 0.28 0 0.54 0.28 0 0.56 0.28 0 0.58 0.28 0 0.6 0.28 0 0.62 0.28 0 0.64 0.28 0 0.66 0.28 0 0.68 0.28 0 0.7 0.28 0 0.72 0.28 0 0.74 0.28 0 0.76 0.28 0 0.78 0.28 0 0.8 0.28 0 0.82 0.28 0 0.84 0.28 0 0.86 0.28 0 0.88 0.28 0 0.9 0.28 0 0.92 0.28 0 0.94 0.28 0 0.96 0.28 0 0.98 0.28 0 1 0.28 0 0 0.3 0 0.02 0.3 0 0.04 0.3 0 0.06 0.3 0 0.08 0.3 0 0.1 0.3 0 0.12 0.3 0 0.14 0.3 0 0.16 0.3 0 0.18 0.3 0 0.2 0.3 0 0.22 0.3 0 0.24 0.3 0 0.26 0.3 0 0.28 0.3 0 0.3 0.3 0 0.32 0.3 0 0.34 0.3 0 0.36 0.3 0 0.38 0.3 0 0.4 0.3 0 0.42 0.3 0 0.44 0.3 0 0.46 0.3 0 0.48 0.3 0 0.5 0.3 0 0.52 0.3 0 0.54 0.3 0 0.56 0.3 0 0.58 0.3 0 0.6 0.3 0 0.62 0.3 0 0.64 0.3 0 0.66 0.3 0 0.68 0.3 0 0.7 0.3 0 0.72 0.3 0 0.74 0.3 0 0.76 0.3 0 0.78 0.3 0 0.8 0.3 0 0.82 0.3 0 0.84 0.3 0 0.86 0.3 0 0.88 0.3 0 0.9 0.3 0 0.92 0.3 0 0.94 0.3 0 0.96 0.3 0 0.98 0.3 0 1 0.3 0 0 0.32 0 0.02 0.32 0 0.04 0.32 0 0.06 0.32 0 0.08 0.32 0 0.1 0.32 0 0.12 0.32 0 0.14 0.32 0 0.16 0.32 0 0.18 0.32 0 0.2 0.32 0 0.22 0.32 0 0.24 0.32 0 0.26 0.32 0 0.28 0.32 0 0.3 0.32 0 0.32 0.32 0 0.34 0.32 0 0.36 0.32 0 0.38 0.32 0 0.4 0.32 0 0.42 0.32 0 0.44 0.32 0 0.46 0.32 0 0.48 0.32 0 0.5 0.32 0 0.52 0.32 0 0.54 0.32 0 0.56 0.32 0 0.58 0.32 0 0.6 0.32 0 0.62 0.32 0 0.64 0.32 0 0.66 0.32 0 0.68 0.32 0 0.7 0.32 0 0.72 0.32 0 0.74 0.32 0 0.76 0.32 0 0.78 0.32 0 0.8 0.32 0 0.82 0.32 0 0.84 0.32 0 0.86 0.32 0 0.88 0.32 0 0.9 0.32 0 0.92 0.32 0 0.94 0.
[...]
			<PointData Scalars="VitesseX">
				<DataArray Name="VitesseX" type="Float32" format="ascii">
 0 0 0 0 0 0 0 0 0 0 0 0 0 0 0 0 0 0 0 0 0 0 0 0 0 0 0 0 0 0 0 0 0 0 0 0 0 0 0 0 0 0 0 0 0 0 0 0 0 0 0 0 0.000502361 0.00201553 0.00450986 0.00792549 0.0122015 0.0172705 0.0230524 0.0294563 0.0363809 0.0437168 0.0513474 0.0591517 0.0670081 0.0747896 0.0823708 0.0896313 0.0964545 0.10273 0.108354 0.113227 0.117277 0.120454 0.122664 0.1238 0.124206 0.123369 0.121857 0.119491 0.116199 0.112058 0.107127 0.101444 0.0950849 0.0882216 0.0809822 0.0734564 0.065763 0.0580095 0.0503113 0.0428026 0.0355983 0.0287981 0.0225185 0.0168598 0.0119092 0.00774307 0.00442609 0.00200933 0.000522826 5.29522e-27 0 0.000980801 0.00392318 0.00876228 0.0154116 0.0237574 0.0336645 0.044976 0.057514 0.0710819 0.0854667 0.100442 0.115773 0.131226 0.146552 0.161504 0.175849 0.189361 0.201825 0.213043 0.222834 0.231041 0.237527 0.242184 0.244913 0.245797 0.244779 0.241983 0.237332 0.230853 0.222668 0.212905 0.201719 0.189293 0.175823 0.161477 0.146394 0.130923 0.11539 0.100046 0.0851058 0.0707644 0.0572629 0.044812 0.0335513 0.0236976 0.0154081 0.00880912 0.00400219 0.00106163 1.05069e-26 0 0.00144425 0.00576035 0.0128665 0.0226343 0.0348976 0.0494565 0.0660828 0.084518 0.104475 0.125642 0.147689 0.170273 0.193053 0.215664 0.237743 0.258947 0.278945 0.297423 0.314089 0.32868 0.340964 0.350744 0.357858 0.362177 0.363579 0.362369 0.358413 0.351618 0.342122 0.330082 0.315681 0.299145 0.280743 0.260767 0.239531 0.217381 0.194655 0.171603 0.14862 0.126266 0.104916 0.0848518 0.0663579 0.0497127 0.0351285 0.0228377 0.0130527 0.00592666 0.00156922 1.55529e-26 0 0.00188514 0.00750506 0.0167602 0.0294819 0.0454455 0.0643988 0.0860526 0.110073 0.136085 0.163686 0.192445 0.221914 0.251657 0.281194 0.310048 0.337778 0.363952 0.388161 0.410026 0.429205 0.445395 0.458341 0.467832 0.473706 0.475661 0.474284 0.469265 0.460481 0.448169 0.432506 0.413734 0.392148 0.368087 0.341935 0.314116 0.285086 0.2553 0.225205 0.195257 0.16588 0.137669 0.111218 0.0869069 0.0650744 0.0460115 0.0299044 0.0170835 0.00774875 0.00204389 2.03533e-26 0 0.00229397 0.00912961 0.0203823 0.0358444 0.0552324 0.0782688 0.104612 0.133849 0.165519 0.199129 0.234153 0.270043 0.306274 0.342258 0.377421 0.411229 0.443158 0.472715 0.499438 0.522911 0.542764 0.558683 0.570411 0.577755 0.580273 0.578773 0.5728 0.562199 0.547279 0.528273 0.505462 0.479189 0.449872 0.417974 0.384009 0.348532 0.312121 0.275346 0.238819 0.203049 0.168536 0.136021 0.106175 0.0794357 0.0561226 0.0364929 0.0208438 0.00944534 0.00248196 2.48321e-26 0 0.00266676 0.0106091 0.023672 0.0416154 0.064152 0.0909406 0.121582 0.155593 0.192425 0.231493 0.272184 0.313869 0.355956 0.397768 0.438639 0.477958 0.51512 0.549558 0.580743 0.608175 0.631415 0.650102 0.66393 0.672659 0.675754 0.674203 0.667417 0.655214 0.637951 0.615902 0.589414 0.558887 0.524785 0.487653 0.448086 0.406721 0.364237 0.321318 0.278701 0.23704 0.196879 0.158873 0.123896 0.0925975 0.0653648 0.0425122 0.0242736 0.0109917 0.00287916 2.89184e-26 0 0.00299754 0.0119204 0.0265848 0.046745 0.0720875 0.102238 0.136707 0.174911 0.216232 0.260029 0.305639 0.352374 0.399595 0.446526 0.492403 0.536568 0.57836 0.617144 0.652325 0.68334 0.709689 0.730949 0.746764 0.756844 0.760547 0.759055 0.751655 0.738121 0.71885 0.694136 0.664377 0.630056 0.591697 0.549898 0.505337 0.458729 0.410832 0.362415 0.314333 0.267365 0.22216 0.179345 0.13979 0.104373 0.073624 0.0478732 0.0273235 0.0123642 0.00323001 3.25481e-26 0 0.00328112 0.0130378 0.0290833 0.0511516 0.0789234 0.111927 0.149573 0.19125 0.236317 0.284101 0.333869 0.384863 0.436403 0.487684 0.537871 0.586237 0.632055 0.674624 0.713286 0.74743 0.776506 0.800039 0.817631 0.828967 0.833295 0.831925 0.824116 0.809542 0.788661 0.761765 0.729259 0.691681 0.64964 0.603796 0.554902 0.503753 0.451175 0.397997 0.345174 0.293587 0.243986 0.19705 0.153578 0.114582 0.0807669 0.0524807 0.0299447 0.0135416 0.00352932 3.56643e-26 0 0.00351304 0.0139531 0.0311264 0.0547688 0.084488 0.119722 0.159886 0.204355 0.252448 0.303435 0.356559 0.41103 0.466103 0.520921 0.574621 0.626423 0.675547 0.721238 0.76279 0.799546 0.830915 0.856379 0.875505 0.887951 0.892904 0.891671 0.883567 0.868219 0.846115 0.817541 0.782908 0.742751 0.697714 0.64854 0.59605 0.541117 0.484643 0.427514 0.370742 0.315302 0.262039 0.211688 0.165013 0.123053 0.0866753 0.0562725 0.0320971 0.0145056 0.00377254 3.82185e-26 0 0.00368894 0.0146492 0.032682 0.0575048 0.0886318 0.125519 0.167571 0.214123 0.264466 0.317848 0.373483 0.430556 0.488288 0.54578 0.602129 0.65653 0.708163 0.756244 0.800032 0.838835 0.872029 0.89906 0.919463 0.932869 0.938416 0.937366 0.929135 0.913257 0.890266 0.860481 0.824331 0.782314 0.735071 0.68339 0.628137 0.570258 0.51073 0.450507 0.390649 0.332191 0.276052 0.223034 0.17389 0.129635 0.0912491 0.059196 0.0337484 0.0152415 0.00395594 4.01709e-26 0 0.00380701 0.0151146 0.0337224 0.0592851 0.0913231 0.129286 0.172551 0.220435 0.272218 0.327138 0.384393 0.443144 0.50259 0.561819 0.619901 0.676018 0.729334 0.779045 0.824386 0.864644 0.899167 0.927377 0.948782 0.962987 0.969115 0.968307 0.960156 0.944043 0.920543 0.889996 0.852856 0.809665 0.761037 0.707719 0.650615 0.590707 0.529037 0.466625 0.404586 0.343986 0.285808 0.230922 0.180062 0.13421 0.0944138 0.0612057 0.0348741 0.0157379 0.00407674 4.14915e-26 0 0.00386383 0.0153351 0.0341722 0.0600271 0.0924255 0.130798 0.174511 0.222883 0.275199 0.330692 0.388552 0.447937 0.50804 0.567961 0.626768 0.683648 0.737768 0.788322 0.834539 0.875694 0.911121 0.940224 0.962493 0.977515 0.984446 0.984002 0.976139 0.960117 0.936546 0.905749 0.86818 0.824433 0.775172 0.721102 0.663079 0.60211 0.539267 0.47562 0.412335 0.350513 0.291178 0.23524 0.18343 0.136703 0.09612 0.0622704 0.0354568 0.0159874 0.00413316 4.21598e-26 0 0.00386251 0.0153227 0.0341215 0.0599255 0.092247 0.130514 0.174096 0.222324 0.274486 0.329816 0.387502 0.446709 0.506642 0.566424 0.625131 0.681963 0.736094 0.786719 0.833064 0.874395 0.910033 0.939372 0.961889 0.977167 0.98438 0.984086 0.976431 0.960593 0.937191 0.906536 0.869067 0.825358 0.776121 0.722117 0.664144 0.60316 0.540238 0.47646 0.413013 0.351032 0.291546 0.235501 0.183646 0.136865 0.0962069 0.0622966 0.0354524 0.0159741 0.00412239 4.21658e-26 0 0.00379918 0.0150504 0.0335135 0.0588331 0.0905271 0.128028 0.170722 0.21796 0.269042 0.323216 0.37969 0.437661 0.49636 0.554962 0.612558 0.668381 0.721632 0.77153 0.817317 0.858262 0.893686 0.922972 0.945585 0.961093 0.968768 0.968931 0.962205 0.947278 0.924822 0.89512 0.858586 0.815768 0.767358 0.714175 0.65704 0.596851 0.534661 0.471549 0.408703 0.347288 0.288328 0.232813 0.181512 0.135236 0.0950099 0.0614732 0.0349513 0.0157299 0.00405005 4.15096e-26 0 0.00367545 0.0145407 0.0323734 0.0568025 0.0873568 0.123489 0.164609 0.210092 0.259257 0.311376 0.365702 0.421479 0.47798 0.534429 0.589953 0.643833 0.695325 0.743694 0.788222 0.828197 0.862926 0.891782 0.914221 0.929805 0.937911 0.93846 0.932595 0.918676 0.897411 0.869063 0.834003 0.792742 0.745941 0.694404 0.638994 0.580585 0.520158 0.458774 0.397592 0.337778 0.280345 0.226295 0.176386 0.131375 0.0922546 0.0596494 0.0338854 0.0152329 0.00391322 4.02016e-26 0 0.00349216 0.0138056 0.0307181 0.0538632 0.0827876 0.116971 0.155855 0.198837 0.245264 0.294458 0.345726 0.398369 0.451701 0.505001 0.557487 0.608524 0.657437 0.703556 0.746189 0.784625 0.818192 0.846254 0.868256 0.883767 0.892295 0.893288 0.888446 0.875811 0.856108 0.829587 0.796582 0.757552 0.713115 0.664035 0.611187 0.55543 0.497685 0.438974 0.380398 0.323103 0.268078 0.216313 0.16854 0.125479 0.0880674 0.0568996 0.0322926 0.0144986 0.00371547 3.82627e-26 0 0.00324936 0.0128525 0.0285737 0.0500612 0.0768922 0.108581 0.144592 0.184351 0.227261 0.272701 0.320033 0.36861 0.417792 0.466968 0.515553 0.562986 0.608595 0.651772 0.691886 0.728261 0.760222 0.787144 0.808466 0.823742 0.832645 0.834135 0.830462 0.819373 0.801589 0.777333 0.746909 0.710734 0.669375 0.623538 0.574061 0.521793 0.467608 0.412461 0.357389 0.30349 0.251714 0.203012 0.158094 0.117642 0.082516 0.053268 0.030199 0.0135391 0.00346026 3.57231e-26 0 0.00295537 0.011695 0.0259718 0.0454579 0.0697659 0.0984431 0.130978 0.166849 0.205516 0.24641 0.288952 0.332563 0.376723 0.421048 0.46511 0.5083 0.54991 0.589415 0.626318 0.660052 0.689966 0.715401 0.735799 0.750698 0.759785 0.762186 0.759477 0.750248 0.734699 0.713116 0.685765 0.65302 0.615396 0.57353 0.528196 0.480216 0.43041 0.37966 0.328928 0.279248 0.23151 0.186609 0.145223 0.107994 0.0756901 0.0488131 0.0276382 0.0123703 0.00315204 3.26226e-26 0 0.00261856 0.0103512 0.0229527 0.0401259 0.0615214 0.0867079 0.115221 0.146597 0.180343 0.215952 0.252922 0.29084 0.329394 0.368336 0.407293 0.445525 0.482442 0.51766 0.550749 0.581212 0.608584 0.63218 0.651404 0.66579 0.67499 0.678395 0.676694 0.669498 0.656465 0.63793 0.614101 0.58531 0.552015 0.514783 0.474307 0.431354 0.38668 0.341093 0.295468 0.25076 0.207786 0.167368 0.130137 0.0966889 0.0676997 0.0436064 0.0246519 0.0110114 0.00279573 2.90094e-26 0 0.00224102 0.00884225 0.0195661 0.0341514 0.0522796 0.0735563 0.097567 0.123893 0.15211 0.181786 0.21259 0.244334 0.276816 0.309841 0.343014 0.375598 0.407212 0.437601 0.466362 0.493047 0.517376 0.538797 0.556609 0.57035 0.57962 0.584032 0.583433 0.578387 0.568114 0.552944 0.533032 0.508657 0.48022 0.448214 0.413238 0.375976 0.33711 0.297372 0.25754 0.218478 0.180917 0.145593 0.113077 0.0839095 0.0586731 0.0377314 0.0212882 0.0094849 0.00239831 2.49413e-26 0 0.00182787 0.00719057 0.0158653 0.0276281 0.0421824 0.0591895 0.0782793 0.0990801 0.121254 0.144519 0.168775 0.193957 0.219905 0.24643 0.27316 0.299546 0.325363 0.350436 0.374419 0.396921 0.417756 0.436678 0.452897 0.465864 0.475179 0.480519 0.481211 0.478352 0.471034 0.459482 0.443819 0.424262 0.401143 0.374873 0.345951 0.314957 0.282486 0.249192 0.21575 0.182914 0.151328 0.121628 0.0943128 0.06986 0.0487546 0.0312816 0.0176004 0.00781484 0.00196555 2.04828e-26 0 0.00138557 0.00542202 0.0119086 0.0206498 0.0313891 0.0438343 0.0576509 0.0725458 0.0883051 0.104866 0.122283 0.140517 0.15947 0.178976 0.198759 0.218525 0.238146 0.257504 0.276342 0.294365 0.311377 0.327369 0.341832 0.353955 0.363297 0.369339 0.371806 0.37088 0.366726 0.358999 0.34786 0.333456 0.316039 0.295926 0.273512 0.249262 0.223677 0.197318 0.170764 0.144634 0.119488 0.0958524 0.0741418 0.0547639 0.0381016 0.0243597 0.0136488 0.00603029 0.00150572 1.57048e-26 0 0.000920933 0.00356554 0.00776037 0.0133264 0.0200654 0.0277252 0.0360007 0.0447241 0.0538633 0.0635363 0.0738479 0.084791 0.0963579 0.10846 0.120972 0.133799 0.146916 0.160267 0.173701 0.187014 0.200008 0.212664 0.225018 0.236294 0.245704 0.252458 0.256493 0.257886 0.256766 0.253071 0.246672 0.237683 0.226268 0.212636 0.197075 0.179934 0.161613 0.142577 0.123292 0.104246 0.0859026 0.0686742 0.0528833 0.0388602 0.0268832 0.0170765 0.00949728 0.00416056 0.0010274 1.06838e-26 0 0.00044135 0.00165086 0.00348135 0.00577712 0.00838962 0.011104 0.0136706 0.0160937 0.0185272 0.0211697 0.0241538 0.0275565 0.0314706 0.0359251 0.0409596 0.0466526 0.0530789 0.0602571 0.0681181 0.076552 0.0854185 0.0946217 0.10429 0.114391 0.124132 0.131707 0.137099 0.140887 0.143033 0.143348 0.141868 0.138485 0.13327 0.126332 0.117855 0.108072 0.0972805 0.0858349 0.0740853 0.0623908 0.0511042 0.0405235 0.030873 0.0223999 0.0152773 0.0095486 0.00521231 0.00223509 0.000537772 5.50208e-27 0 -4.68561e-05 -0.000293458 -0.000870036 -0.00189073 -0.00346737 -0.00578755 -0.00897727 -0.0128532 -0.0171511 -0.0216361 -0.0261105 -0.0303807 -0.0342504 -0.0375521 -0.0400814 -0.0416204 -0.041989 -0.0410665 -0.0388412 -0.0353469 -0.0306333 -0.0247936 -0.0178162 -0.00934854 0.000568632 0.00866983 0.0154875 0.0216879 0.0271491 0.0316854 0.0351583 0.0374568 0.0385273 0.0383861 0.037108 0.0348123 0.0316956 0.0279894 0.0239201 0.0197285 0.0156431 0.0118441 0.00845735 0.00564295 0.00346846 0.0018965 0.000864867 0.000287685 4.5881e-05 2.52062e-28 0 -0.000541579 -0.00223938 -0.00521825 -0.00954655 -0.0153083 -0.0226605 -0.0315413 -0.0416244 -0.0526009 -0.0641879 -0.0761007 -0.0880171 -0.0996349 -0.110639 -0.120673 -0.129398 -0.136529 -0.14184 -0.145201 -0.146563 -0.145968 -0.143295 -0.138539 -0.131558 -0.123027 -0.114768 -0.106455 -0.0978136 -0.0890451 -0.0803367 -0.0719041 -0.0639498 -0.0566056 -0.0499442 -0.0440175 -0.0388031 -0.0342107 -0.0301412 -0.0264904 -0.0231395 -0.0199833 -0.0169641 -0.0140491 -0.0111738 -0.00837647 -0.00577289 -0.00348706 -0.00165725 -0.000442714 -4.98703e-27 0 -0.0010362 -0.0041665 -0.00950437 -0.0170879 -0.0269899 -0.0393021 -0.0537367 -0.0698791 -0.0873996 -0.105948 -0.12514 -0.144551 -0.163749 -0.182284 -0.19966 -0.215422 -0.229182 -0.240619 -0.249493 -0.255653 -0.258872 -0.259374 -0.25695 -0.251705 -0.244451 -0.236077 -0.226379 -0.215403 -0.203413 -0.190641 -0.177382 -0.163886 -0.150384 -0.137055 -0.12405 -0.111437 -0.0992447 -0.0875034 -0.0762302 -0.0654309 -0.0551267 -0.0453769 -0.036236 -0.0277442 -0.0200454 -0.0133271 -0.00777257 -0.00357258 -0.000923587 -1.02339e-26 0 -0.00151824 -0.00604311 -0.0136618 -0.0244031 -0.0383503 -0.0554592 -0.0752187 -0.097194 -0.121023 -0.146276 -0.172472 -0.199099 -0.225587 -0.251363 -0.275813 -0.298363 -0.318523 -0.335879 -0.350089 -0.360903 -0.36815 -0.371539 -0.371694 -0.368319 -0.362041 -0.353449 -0.342476 -0.329326 -0.314271 -0.297607 -0.279703 -0.260878 -0.241434 -0.221659 -0.201788 -0.181991 -0.16242 -0.143225 -0.124544 -0.106508 -0.0892603 -0.0729661 -0.05777 -0.0438235 -0.0313653 -0.0206524 -0.0119267 -0.0054291 -0.00138924 -1.54016e-26 0 -0.00198069 -0.00783232 -0.0176236 -0.0313881 -0.049227 -0.0708769 -0.0956552 -0.12315 -0.15295 -0.184544 -0.217358 -0.250809 -0.284182 -0.316805 -0.347953 -0.376945 -0.403191 -0.426179 -0.445491 -0.460803 -0.471896 -0.478599 -0.480817 -0.479445 -0.473994 -0.46519 -0.453076 -0.437883 -0.419935 -0.399612 -0.377319 -0.353446 -0.328377 -0.302483 -0.27607 -0.249395 -0.222777 -0.19646 -0.1707 -0.145747 -0.121863 -0.0993062 -0.0783218 -0.0591642 -0.042159 -0.0276353 -0.015886 -0.00719764 -0.00183216 -2.02664e-26 0 -0.00241765 -0.00950582 -0.0213288 -0.0379435 -0.0594484 -0.0852908 -0.114717 -0.147337 -0.182678 -0.220151 -0.259099 -0.298866 -0.338622 -0.377599 -0.414975 -0.449973 -0.481908 -0.510185 -0.53431 -0.553902 -0.568686 -0.578511 -0.582983 -0.583121 -0.578554 -0.569582 -0.556434 -0.53937 -0.518776 -0.495087 -0.468738 -0.440181 -0.409876 -0.378255 -0.345708 -0.31261 -0.279369 -0.246374 -0.213974 -0.182535 -0.15242 -0.123982 -0.0975664 -0.0735221 -0.0522586 -0.0341688 -0.0195886 -0.00885061 -0.0022459 -2.47584e-26 0 -0.00281886 -0.0110374 -0.0247214 -0.0439737 -0.0688384 -0.0984428 -0.132083 -0.169357 -0.209725 -0.252529 -0.297037 -0.342519 -0.388062 -0.432801 -0.475842 -0.516319 -0.553465 -0.58661 -0.61519 -0.638755 -0.656972 -0.669635 -0.676401 -0.677682 -0.674055 -0.66497 -0.65092 -0.632221 -0.609286 -0.582567 -0.552548 -0.519735 -0.484648 -0.44778 -0.409611 -0.370629 -0.331308 -0.292184 -0.253692 -0.216294 -0.18045 -0.146609 -0.115197 -0.0866684 -0.0615095 -0.0401503 -0.0229758 -0.0103622 -0.0026253 -2.88472e-26 0 -0.00317698 -0.0124023 -0.0277487 -0.0493826 -0.0772271 -0.110123 -0.147462 -0.188839 -0.233646 -0.281154 -0.330563 -0.381079 -0.431723 -0.481544 -0.529591 -0.574932 -0.616721 -0.65422 -0.686798 -0.713941 -0.735259 -0.750491 -0.759383 -0.761674 -0.758974 -0.749856 -0.735088 -0.715009 -0.690047 -0.660678 -0.627426 -0.590844 -0.551501 -0.509957 -0.466779 -0.422547 -0.37779 -0.333181 -0.289231 -0.246494 -0.205516 -0.166827 -0.130936 -0.0984023 -0.0697671 -0.0454845 -0.025994 -0.0117085 -0.00296429 -3.24822e-26 0 -0.00348707 -0.0135786 -0.0303617 -0.0540709 -0.0844524 -0.12015 -0.160639 -0.205503 -0.254076 -0.305568 -0.359124 -0.413915 -0.4689 -0.523051 -0.575371 -0.624876 -0.670656 -0.711913 -0.747957 -0.77822 -0.80226 -0.819767 -0.830563 -0.833812 -0.831946 -0.822905 -0.807605 -0.786414 -0.75977 -0.728175 -0.692181 -0.652381 -0.609387 -0.563821 -0.516324 -0.467548 -0.418098 -0.368722 -0.320032 -0.272656 -0.227216 -0.184317 -0.14455 -0.10855 -0.0768992 -0.050087 -0.0285956 -0.0128673 -0.00325541 -3.56061e-26 0 -0.00374402 -0.0145468 -0.0325152 -0.0579399 -0.0903724 -0.128345 -0.171404 -0.219099 -0.270717 -0.325421 -0.382309 -0.440515 -0.498987 -0.556646 -0.612443 -0.665344 -0.714398 -0.758754 -0.797676 -0.830549 -0.856889 -0.876343 -0.888694 -0.893131 -0.891725 -0.882957 -0.867315 -0.845299 -0.817355 -0.783995 -0.745795 -0.70338 -0.657402 -0.608532 -0.55747 -0.504929 -0.451582 -0.398242 -0.345608 -0.294366 -0.245209 -0.19881 -0.155829 -0.11695 -0.0827929 -0.0538856 -0.0307407 -0.0138222 -0.00349346 -3.81721e-26 0 -0.00394354 -0.0152904 -0.0341687 -0.0609067 -0.0948698 -0.134553 -0.179549 -0.229372 -0.283278 -0.340392 -0.399772 -0.460506 -0.521543 -0.58179 -0.64019 -0.69567 -0.74723 -0.793979 -0.835145 -0.870078 -0.89826 -0.919303 -0.932957 -0.938447 -0.937473 -0.929055 -0.913271 -0.890735 -0.861889 -0.827252 -0.787417 -0.743033 -0.694781 -0.643374 -0.589556 -0.534092 -0.477709 -0.42127 -0.36555 -0.311284 -0.259216 -0.210075 -0.164583 -0.123465 -0.0873557 -0.0568207 -0.0323959 -0.0145598 -0.00367552 -4.01391e-26 0 -0.00408219 -0.015796 -0.0352881 -0.0629104 -0.0978674 -0.138661 -0.18491 -0.23611 -0.291504 -0.350192 -0.41119 -0.473562 -0.536244 -0.598133 -0.658197 -0.715366 -0.768611 -0.817006 -0.859749 -0.896162 -0.9257 -0.947951 -0.962636 -0.969021 -0.968458 -0.960464 -0.94474 -0.92199 -0.892651 -0.857244 -0.816372 -0.770698 -0.720922 -0.667785 -0.612065 -0.554566 -0.496059 -0.43744 -0.379546 -0.323142 -0.269017 -0.217935 -0.170677 -0.127991 -0.0905158 -0.0588461 -0.0335339 -0.0150644 -0.00379905 -4.14728e-26 0 -0.0041565 -0.0160478 -0.0358279 -0.0638585 -0.0992439 -0.140475 -0.187199 -0.238915 -0.294866 -0.354152 -0.415784 -0.478787 -0.542084 -0.604588 -0.665301 -0.723187 -0.777234 -0.826504 -0.870178 -0.907558 -0.938075 -0.961294 -0.976913 -0.984265 -0.984177 -0.976667 -0.961201 -0.938546 -0.909132 -0.873476 -0.832182 -0.785918 -0.735393 -0.681364 -0.624631 -0.566024 -0.506342 -0.4465 -0.387375 -0.329754 -0.274459 -0.222278 -0.174024 -0.130459 -0.0922236 -0.0599298 -0.034137 -0.0153265 -0.00386255 -4.21518e-26 0 -0.00416926 -0.0160655 -0.0358481 -0.063891 -0.0992791 -0.140473 -0.187131 -0.238761 -0.294604 -0.353781 -0.415326 -0.478251 -0.54145 -0.6038 -0.664345 -0.722105 -0.776096 -0.825387 -0.869146 -0.906663 -0.937355 -0.960772 -0.9766 -0.984189 -0.984288 -0.977096 -0.961913 -0.939526 -0.910352 -0.874899 -0.833761 -0.787599 -0.73712 -0.683084 -0.626293 -0.567584 -0.507764 -0.447751 -0.388437 -0.330622 -0.275141 -0.222795 -0.174399 -0.130711 -0.0923766 -0.0600111 -0.034173 -0.0153361 -0.003864 -4.21658e-26 0 -0.00411468 -0.0158161 -0.0352498 -0.062788 -0.0975815 -0.138043 -0.183832 -0.234481 -0.289253 -0.347292 -0.407659 -0.469415 -0.531498 -0.592751 -0.652197 -0.708892 -0.761945 -0.810472 -0.853647 -0.890768 -0.921248 -0.944629 -0.960585 -0.968507 -0.969021 -0.962657 -0.948302 -0.926785 -0.898502 -0.863943 -0.823686 -0.778383 -0.728732 -0.675489 -0.619456 -0.561465 -0.502325 -0.442946 -0.384237 -0.326999 -0.27207 -0.220256 -0.172364 -0.129136 -0.0912192 -0.0592267 -0.0337068 -0.0151177 -0.0038071 -4.15135e-26 0 -0.00399577 -0.0153163 -0.0340804 -0.0606433 -0.0943157 -0.133449 -0.177674 -0.22657 -0.279436 -0.335452 -0.393718 -0.453339 -0.513304 -0.572536 -0.630039 -0.68487 -0.736167 -0.783123 -0.824986 -0.861071 -0.8908 -0.913719 -0.929494 -0.937553 -0.938354 -0.93259 -0.919042 -0.898527 -0.871418 -0.83818 -0.799368 -0.755607 -0.707575 -0.656003 -0.601673 -0.545397 -0.48797 -0.43028 -0.373228 -0.317602 -0.264208 -0.213853 -0.167322 -0.125318 -0.0884899 -0.0574347 -0.0326778 -0.0146521 -0.00368866 -4.02051e-26 0 -0.00381444 -0.014575 -0.0323644 -0.057493 -0.0895215 -0.126756 -0.168749 -0.215149 -0.265305 -0.318442 -0.373716 -0.430285 -0.487206 -0.543452 -0.598113 -0.650288 -0.6991 -0.743787 -0.783657 -0.818079 -0.846525 -0.868552 -0.883828 -0.891819 -0.892859 -0.887713 -0.87513 -0.855892 -0.8