<?xml version="1.0"?>
<VTKFile type="PolyData">
	<PolyData>
		<Piece NumberOfPoints="2601" NumberOfPolys="2500">
			<Points>
				<DataArray type="Float32" NumberOfComponents="3" format="ascii">
 0 0 0 0.02 0 0 0.04 0 0 0.06 0 0 0.08 0 0 0.1 0 0 0.12 0 0 0.14 0 0 0.16 0 0 0.18 0 0 0.2 0 0 0.22 0 0 0.24 0 0 0.26 0 0 0.28 0 0 0.3 0 0 0.32 0 0 0.34 0 0 0.36 0 0 0.38 0 0 0.4 0 0 0.42 0 0 0.44 0 0 0.46 0 0 0.48 0 0 0.5 0 0 0.52 0 0 0.54 0 0 0.56 0 0 0.58 0 0 0.6 0 0 0.62 0 0 0.64 0 0 0.66 0 0 0.68 0 0 0.7 0 0 0.72 0 0 0.74 0 0 0.76 0 0 0.78 0 0 0.8 0 0 0.82 0 0 0.84 0 0 0.86 0 0 0.88 0 0 0.9 0 0 0.92 0 0 0.94 0 0 0.96 0 0 0.98 0 0 1 0 0 0 0.02 0 0.02 0.02 0 0.04 0.02 0 0.06 0.02 0 0.08 0.02 0 0.1 0.02 0 0.12 0.02 0 0.14 0.02 0 0.16 0.02 0 0.18 0.02 0 0.2 0.02 0 0.22 0.02 0 0.24 0.02 0 0.26 0.02 0 0.28 0.02 0 0.3 0.02 0 0.32 0.02 0 0.34 0.02 0 0.36 0.02 0 0.38 0.02 0 0.4 0.02 0 0.42 0.02 0 0.44 0.02 0 0.46 0.02 0 0.48 0.02 0 0.5 0.02 0 0.52 0.02 0 0.54 0.02 0 0.56 0.02 0 0.58 0.02 0 0.6 0.02 0 0.62 0.02 0 0.64 0.02 0 0.66 0.02 0 0.68 0.02 0 0.7 0.02 0 0.72 0.02 0 0.74 0.02 0 0.76 0.02 0 0.78 0.02 0 0.8 0.02 0 0.82 0.02 0 0.84 0.02 0 0.86 0.02 0 0.88 0.02 0 0.9 0.02 0 0.92 0.02 0 0.94 0.02 0 0.96 0.02 0 0.98 0.02 0 1 0.02 0 0 0.04 0 0.02 0.04 0 0.04 0.04 0 0.06 0.04 0 0.08 0.04 0 0.1 0.04 0 0.12 0.04 0 0.14 0.04 0 0.16 0.04 0 0.18 0.04 0 0.2 0.04 0 0.22 0.04 0 0.24 0.04 0 0.26 0.04 0 0.28 0.04 0 0.3 0.04 0 0.32 0.04 0 0.34 0.04 0 0.36 0.04 0 0.38 0.04 0 0.4 0.04 0 0.42 0.04 0 0.44 0.04 0 0.46 0.04 0 0.48 0.04 0 0.5 0.04 0 0.52 0.04 0 0.54 0.04 0 0.56 0.04 0 0.58 0.04 0 0.6 0.04 0 0.62 0.04 0 0.64 0.04 0 0.66 0.04 0 0.68 0.04 0 0.7 0.04 0 0.72 0.04 0 0.74 0.04 0 0.76 0.04 0 0.78 0.04 0 0.8 0.04 0 0.82 0.04 0 0.84 0.04 0 0.86 0.04 0 0.88 0.04 0 0.9 0.04 0 0.92 0.04 0 0.94 0.04 0 0.96 0.04 0 0.98 0.04 0 1 0.04 0 0 0.06 0 0.02 0.06 0 0.04 0.06 0 0.06 0.06 0 0.08 0.06 0 0.1 0.06 0 0.12 0.06 0 0.14 0.06 0 0.16 0.06 0 0.18 0.06 0 0.2 0.06 0 0.22 0.06 0 0.24 0.06 0 0.26 0.06 0 0.28 0.06 0 0.3 0.06 0 0.32 0.06 0 0.34 0.06 0 0.36 0.06 0 0.38 0.06 0 0.4 0.06 0 0.42 0.06 0 0.44 0.06 0 0.46 0.06 0 0.48 0.06 0 0.5 0.06 0 0.52 0.06 0 0.54 0.06 0 0.56 0.06 0 0.58 0.06 0 0.6 0.06 0 0.62 0.06 0 0.64 0.06 0 0.66 0.06 0 0.68 0.06 0 0.7 0.06 0 0.72 0.06 0 0.74 0.06 0 0.76 0.06 0 0.78 0.06 0 0.8 0.06 0 0.82 0.06 0 0.84 0.06 0 0.86 0.06 0 0.88 0.06 0 0.9 0.06 0 0.92 0.06 0 0.94 0.06 0 0.96 0.06 0 0.98 0.06 0 1 0.06 0 0 0.08 0 0.02 0.08 0 0.04 0.08 0 0.06 0.08 0 0.08 0.08 0 0.1 0.08 0 0.12 0.08 0 0.14 0.08 0 0.16 0.08 0 0.18 0.08 0 0.2 0.08 0 0.22 0.08 0 0.24 0.08 0 0.26 0.08 0 0.28 0.08 0 0.3 0.08 0 0.32 0.08 0 0.34 0.08 0 0.36 0.08 0 0.38 0.08 0 0.4 0.08 0 0.42 0.08 0 0.44 0.08 0 0.46 0.08 0 0.48 0.08 0 0.5 0.08 0 0.52 0.08 0 0.54 0.08 0 0.56 0.08 0 0.58 0.08 0 0.6 0.08 0 0.62 0.08 0 0.64 0.08 0 0.66 0.08 0 0.68 0.08 0 0.7 0.08 0 0.72 0.08 0 0.74 0.08 0 0.76 0.08 0 0.78 0.08 0 0.8 0.08 0 0.82 0.08 0 0.84 0.08 0 0.86 0.08 0 0.88 0.08 0 0.9 0.08 0 0.92 0.08 0 0.94 0.08 0 0.96 0.08 0 0.98 0.08 0 1 0.08 0 0 0.1 0 0.02 0.1 0 0.04 0.1 0 0.06 0.1 0 0.08 0.1 0 0.1 0.1 0 0.12 0.1 0 0.14 0.1 0 0.16 0.1 0 0.18 0.1 0 0.2 0.1 0 0.22 0.1 0 0.24 0.1 0 0.26 0.1 0 0.28 0.1 0 0.3 0.1 0 0.32 0.1 0 0.34 0.1 0 0.36 0.1 0 0.38 0.1 0 0.4 0.1 0 0.42 0.1 0 0.44 0.1 0 0.46 0.1 0 0.48 0.1 0 0.5 0.1 0 0.52 0.1 0 0.54 0.1 0 0.56 0.1 0 0.58 0.1 0 0.6 0.1 0 0.62 0.1 0 0.64 0.1 0 0.66 0.1 0 0.68 0.1 0 0.7 0.1 0 0.72 0.1 0 0.74 0.1 0 0.76 0.1 0 0.78 0.1 0 0.8 0.1 0 0.82 0.1 0 0.84 0.1 0 0.86 0.1 0 0.88 0.1 0 0.9 0.1 0 0.92 0.1 0 0.94 0.1 0 0.96 0.1 0 0.98 0.1 0 1 0.1 0 0 0.12 0 0.02 0.12 0 0.04 0.12 0 0.06 0.12 0 0.08 0.12 0 0.1 0.12 0 0.12 0.12 0 0.14 0.12 0 0.16 0.12 0 0.18 0.12 0 0.2 0.12 0 0.22 0.12 0 0.24 0.12 0 0.26 0.12 0 0.28 0.12 0 0.3 0.12 0 0.32 0.12 0 0.34 0.12 0 0.36 0.12 0 0.38 0.12 0 0.4 0.12 0 0.42 0.12 0 0.44 0.12 0 0.46 0.12 0 0.48 0.12 0 0.5 0.12 0 0.52 0.12 0 0.54 0.12 0 0.56 0.12 0 0.58 0.12 0 0.6 0.12 0 0.62 0.12 0 0.64 0.12 0 0.66 0.12 0 0.68 0.12 0 0.7 0.12 0 0.72 0.12 0 0.74 0.12 0 0.76 0.12 0 0.78 0.12 0 0.8 0.12 0 0.82 0.12 0 0.84 0.12 0 0.86 0.12 0 0.88 0.12 0 0.9 0.12 0 0.92 0.12 0 0.94 0.12 0 0.96 0.12 0 0.98 0.12 0 1 0.12 0 0 0.14 0 0.02 0.14 0 0.04 0.14 0 0.06 0.14 0 0.08 0.14 0 0.1 0.14 0 0.12 0.14 0 0.14 0.14 0 0.16 0.14 0 0.18 0.14 0 0.2 0.14 0 0.22 0.14 0 0.24 0.14 0 0.26 0.14 0 0.28 0.14 0 0.3 0.14 0 0.32 0.14 0 0.34 0.14 0 0.36 0.14 0 0.38 0.14 0 0.4 0.14 0 0.42 0.14 0 0.44 0.14 0 0.46 0.14 0 0.48 0.14 0 0.5 0.14 0 0.52 0.14 0 0.54 0.14 0 0.56 0.14 0 0.58 0.14 0 0.6 0.14 0 0.62 0.14 0 0.64 0.14 0 0.66 0.14 0 0.68 0.14 0 0.7 0.14 0 0.72 0.14 0 0.74 0.14 0 0.76 0.14 0 0.78 0.14 0 0.8 0.14 0 0.82 0.14 0 0.84 0.14 0 0.86 0.14 0 0.88 0.14 0 0.9 0.14 0 0.92 0.14 0 0.94 0.14 0 0.96 0.14 0 0.98 0.14 0 1 0.14 0 0 0.16 0 0.02 0.16 0 0.04 0.16 0 0.06 0.16 0 0.08 0.16 0 0.1 0.16 0 0.12 0.16 0 0.14 0.16 0 0.16 0.16 0 0.18 0.16 0 0.2 0.16 0 0.22 0.16 0 0.24 0.16 0 0.26 0.16 0 0.28 0.16 0 0.3 0.16 0 0.32 0.16 0 0.34 0.16 0 0.36 0.16 0 0.38 0.16 0 0.4 0.16 0 0.42 0.16 0 0.44 0.16 0 0.46 0.16 0 0.48 0.16 0 0.5 0.16 0 0.52 0.16 0 0.54 0.16 0 0.56 0.16 0 0.58 0.16 0 0.6 0.16 0 0.62 0.16 0 0.64 0.16 0 0.66 0.16 0 0.68 0.16 0 0.7 0.16 0 0.72 0.16 0 0.74 0.16 0 0.76 0.16 0 0.78 0.16 0 0.8 0.16 0 0.82 0.16 0 0.84 0.16 0 0.86 0.16 0 0.88 0.16 0 0.9 0.16 0 0.92 0.16 0 0.94 0.16 0 0.96 0.16 0 0.98 0.16 0 1 0.16 0 0 0.18 0 0.02 0.18 0 0.04 0.18 0 0.06 0.18 0 0.08 0.18 0 0.1 0.18 0 0.12 0.18 0 0.14 0.18 0 0.16 0.18 0 0.18 0.18 0 0.2 0.18 0 0.22 0.18 0 0.24 0.18 0 0.26 0.18 0 0.28 0.18 0 0.3 0.18 0 0.32 0.18 0 0.34 0.18 0 0.36 0.18 0 0.38 0.18 0 0.4 0.18 0 0.42 0.18 0 0.44 0.18 0 0.46 0.18 0 0.48 0.18 0 0.5 0.18 0 0.52 0.18 0 0.54 0.18 0 0.56 0.18 0 0.58 0.18 0 0.6 0.18 0 0.62 0.18 0 0.64 0.18 0 0.66 0.18 0 0.68 0.18 0 0.7 0.18 0 0.72 0.18 0 0.74 0.18 0 0.76 0.18 0 0.78 0.18 0 0.8 0.18 0 0.82 0.18 0 0.84 0.18 0 0.86 0.18 0 0.88 0.18 0 0.9 0.18 0 0.92 0.18 0 0.94 0.18 0 0.96 0.18 0 0.98 0.18 0 1 0.18 0 0 0.2 0 0.02 0.2 0 0.04 0.2 0 0.06 0.2 0 0.08 0.2 0 0.1 0.2 0 0.12 0.2 0 0.14 0.2 0 0.16 0.2 0 0.18 0.2 0 0.2 0.2 0 0.22 0.2 0 0.24 0.2 0 0.26 0.2 0 0.28 0.2 0 0.3 0.2 0 0.32 0.2 0 0.34 0.2 0 0.36 0.2 0 0.38 0.2 0 0.4 0.2 0 0.42 0.2 0 0.44 0.2 0 0.46 0.2 0 0.48 0.2 0 0.5 0.2 0 0.52 0.2 0 0.54 0.2 0 0.56 0.2 0 0.58 0.2 0 0.6 0.2 0 0.62 0.2 0 0.64 0.2 0 0.66 0.2 0 0.68 0.2 0 0.7 0.2 0 0.72 0.2 0 0.74 0.2 0 0.76 0.2 0 0.78 0.2 0 0.8 0.2 0 0.82 0.2 0 0.84 0.2 0 0.86 0.2 0 0.88 0.2 0 0.9 0.2 0 0.92 0.2 0 0.94 0.2 0 0.96 0.2 0 0.98 0.2 0 1 0.2 0 0 0.22 0 0.02 0.22 0 0.04 0.22 0 0.06 0.22 0 0.08 0.22 0 0.1 0.22 0 0.12 0.22 0 0.14 0.22 0 0.16 0.22 0 0.18 0.22 0 0.2 0.22 0 0.22 0.22 0 0.24 0.22 0 0.26 0.22 0 0.28 0.22 0 0.3 0.22 0 0.32 0.22 0 0.34 0.22 0 0.36 0.22 0 0.38 0.22 0 0.4 0.22 0 0.42 0.22 0 0.44 0.22 0 0.46 0.22 0 0.48 0.22 0 0.5 0.22 0 0.52 0.22 0 0.54 0.22 0 0.56 0.22 0 0.58 0.22 0 0.6 0.22 0 0.62 0.22 0 0.64 0.22 0 0.66 0.22 0 0.68 0.22 0 0.7 0.22 0 0.72 0.22 0 0.74 0.22 0 0.76 0.22 0 0.78 0.22 0 0.8 0.22 0 0.82 0.22 0 0.84 0.22 0 0.86 0.22 0 0.88 0.22 0 0.9 0.22 0 0.92 0.22 0 0.94 0.22 0 0.96 0.22 0 0.98 0.22 0 1 0.22 0 0 0.24 0 0.02 0.24 0 0.04 0.24 0 0.06 0.24 0 0.08 0.24 0 0.1 0.24 0 0.12 0.24 0 0.14 0.24 0 0.16 0.24 0 0.18 0.24 0 0.2 0.24 0 0.22 0.24 0 0.24 0.24 0 0.26 0.24 0 0.28 0.24 0 0.3 0.24 0 0.32 0.24 0 0.34 0.24 0 0.36 0.24 0 0.38 0.24 0 0.4 0.24 0 0.42 0.24 0 0.44 0.24 0 0.46 0.24 0 0.48 0.24 0 0.5 0.24 0 0.52 0.24 0 0.54 0.24 0 0.56 0.24 0 0.58 0.24 0 0.6 0.24 0 0.62 0.24 0 0.64 0.24 0 0.66 0.24 0 0.68 0.24 0 0.7 0.24 0 0.72 0.24 0 0.74 0.24 0 0.76 0.24 0 0.78 0.24 0 0.8 0.24 0 0.82 0.24 0 0.84 0.24 0 0.86 0.24 0 0.88 0.24 0 0.9 0.24 0 0.92 0.24 0 0.94 0.24 0 0.96 0.24 0 0.98 0.24 0 1 0.24 0 0 0.26 0 0.02 0.26 0 0.04 0.26 0 0.06 0.26 0 0.08 0.26 0 0.1 0.26 0 0.12 0.26 0 0.14 0.26 0 0.16 0.26 0 0.18 0.26 0 0.2 0.26 0 0.22 0.26 0 0.24 0.26 0 0.26 0.26 0 0.28 0.26 0 0.3 0.26 0 0.32 0.26 0 0.34 0.26 0 0.36 0.26 0 0.38 0.26 0 0.4 0.26 0 0.42 0.26 0 0.44 0.26 0 0.46 0.26 0 0.48 0.26 0 0.5 0.26 0 0.52 0.26 0 0.54 0.26 0 0.56 0.26 0 0.58 0.26 0 0.6 0.26 0 0.62 0.26 0 0.64 0.26 0 0.66 0.26 0 0.68 0.26 0 0.7 0.26 0 0.72 0.26 0 0.74 0.26 0 0.76 0.26 0 0.78 0.26 0 0.8 0.26 0 0.82 0.26 0 0.84 0.26 0 0.86 0.26 0 0.88 0.26 0 0.9 0.26 0 0.92 0.26 0 0.94 0.26 0 0.96 0.26 0 0.98 0.26 0 1 0.26 0 0 0.28 0 0.02 0.28 0 0.04 0.28 0 0.06 0.28 0 0.08 0.28 0 0.1 0.28 0 0.12 0.28 0 0.14 0.28 0 0.16 0.28 0 0.18 0.28 0 0.2 0.28 0 0.22 0.28 0 0.24 0.28 0 0.26 0.28 0 0.28 0.28 0 0.3 0.28 0 0.32 0.28 0 0.34 0.28 0 0.36 0.28 0 0.38 0.28 0 0.4 0.28 0 0.42 0.28 0 0.44 0.28 0 0.46 0.28 0 0.48 0.28 0 0.5 0.28 0 0.52 0.28 0 0.54 0.28 0 0.56 0.28 0 0.58 0.28 0 0.6 0.28 0 0.62 0.28 0 0.64 0.28 0 0.66 0.28 0 0.68 0.28 0 0.7 0.28 0 0.72 0.28 0 0.74 0.28 0 0.76 0.28 0 0.78 0.28 0 0.8 0.28 0 0.82 0.28 0 0.84 0.28 0 0.86 0.28 0 0.88 0.28 0 0.9 0.28 0 0.92 0.28 0 0.94 0.28 0 0.96 0.28 0 0.98 0.28 0 1 0.28 0 0 0.3 0 0.02 0.3 0 0.04 0.3 0 0.06 0.3 0 0.08 0.3 0 0.1 0.3 0 0.12 0.3 0 0.14 0.3 0 0.16 0.3 0 0.18 0.3 0 0.2 0.3 0 0.22 0.3 0 0.24 0.3 0 0.26 0.3 0 0.28 0.3 0 0.3 0.3 0 0.32 0.3 0 0.34 0.3 0 0.36 0.3 0 0.38 0.3 0 0.4 0.3 0 0.42 0.3 0 0.44 0.3 0 0.46 0.3 0 0.48 0.3 0 0.5 0.3 0 0.52 0.3 0 0.54 0.3 0 0.56 0.3 0 0.58 0.3 0 0.6 0.3 0 0.62 0.3 0 0.64 0.3 0 0.66 0.3 0 0.68 0.3 0 0.7 0.3 0 0.72 0.3 0 0.74 0.3 0 0.76 0.3 0 0.78 0.3 0 0.8 0.3 0 0.82 0.3 0 0.84 0.3 0 0.86 0.3 0 0.88 0.3 0 0.9 0.3 0 0.92 0.3 0 0.94 0.3 0 0.96 0.3 0 0.98 0.3 0 1 0.3 0 0 0.32 0 0.02 0.32 0 0.04 0.32 0 0.06 0.32 0 0.08 0.32 0 0.1 0.32 0 0.12 0.32 0 0.14 0.32 0 0.16 0.32 0 0.18 0.32 0 0.2 0.32 0 0.22 0.32 0 0.24 0.32 0 0.26 0.32 0 0.28 0.32 0 0.3 0.32 0 0.32 0.32 0 0.34 0.32 0 0.36 0.32 0 0.38 0.32 0 0.4 0.32 0 0.42 0.32 0 0.44 0.32 0 0.46 0.32 0 0.48 0.32 0 0.5 0.32 0 0.52 0.32 0 0.54 0.32 0 0.56 0.32 0 0.58 0.32 0 0.6 0.32 0 0.62 0.32 0 0.64 0.32 0 0.66 0.32 0 0.68 0.32 0 0.7 0.32 0 0.72 0.32 0 0.74 0.32 0 0.76 0.32 0 0.78 0.32 0 0.8 0.32 0 0.82 0.32 0 0.84 0.32 0 0.86 0.32 0 0.88 0.32 0 0.9 0.32 0 0.92 0.32 0 0.94 0.
[...]
			<PointData Scalars="VitesseX">
				<DataArray Name="VitesseX" type="Float32" format="ascii">
 0 0 0 0 0 0 0 0 0 0 0 0 0 0 0 0 0 0 0 0 0 0 0 0 0 0 0 0 0 0 0 0 0 0 0 0 0 0 0 0 0 0 0 0 0 0 0 0 0 0 -0 0 -0.00094724 -0.00255359 -0.00497003 -0.0081591 -0.0120718 -0.016648 -0.0218172 -0.0274991 -0.0336059 -0.0400433 -0.0467126 -0.0535262 -0.0603778 -0.0671414 -0.0737118 -0.07999 -0.0858832 -0.0913032 -0.0961617 -0.100375 -0.103873 -0.106613 -0.108372 -0.110695 -0.116975 -0.121251 -0.122506 -0.121792 -0.119381 -0.115691 -0.111007 -0.10548 -0.0991959 -0.0923083 -0.0849649 -0.0772943 -0.0694104 -0.0613353 -0.0528536 -0.0440658 -0.0377743 -0.0307908 -0.0240701 -0.0180451 -0.0128563 -0.00844288 -0.00486537 -0.00220722 -0.000563449 -7.5206e-27 0 -0.00185468 -0.00502664 -0.00980858 -0.0161278 -0.0238884 -0.032972 -0.0432383 -0.0545279 -0.066666 -0.0794663 -0.0927329 -0.10629 -0.119923 -0.133382 -0.146456 -0.158947 -0.170663 -0.181413 -0.191021 -0.199242 -0.206087 -0.21153 -0.21507 -0.219007 -0.224818 -0.227296 -0.226939 -0.223777 -0.218392 -0.211244 -0.202569 -0.192316 -0.180752 -0.168209 -0.15476 -0.140674 -0.12618 -0.111519 -0.0969215 -0.0825699 -0.0688114 -0.0558276 -0.0430527 -0.0325085 -0.0230243 -0.0150246 -0.00860036 -0.00387883 -0.000983635 -1.19894e-26 0 -0.00270564 -0.00737621 -0.0144336 -0.0237729 -0.0352551 -0.0487082 -0.0639269 -0.0806756 -0.0986924 -0.117693 -0.137373 -0.157458 -0.177628 -0.197515 -0.216819 -0.2353 -0.252461 -0.268294 -0.282426 -0.294709 -0.305154 -0.313209 -0.318369 -0.322989 -0.32748 -0.328954 -0.327271 -0.322121 -0.314122 -0.303618 -0.290878 -0.276003 -0.259285 -0.241111 -0.221715 -0.201428 -0.180574 -0.159496 -0.138552 -0.118062 -0.0983537 -0.0796432 -0.061638 -0.0465847 -0.032864 -0.0213641 -0.012198 -0.00548891 -0.00138814 -1.62747e-26 0 -0.00348795 -0.00957364 -0.0187954 -0.0310162 -0.0460496 -0.0636609 -0.0835724 -0.105471 -0.129018 -0.153848 -0.179572 -0.20584 -0.23229 -0.258131 -0.283333 -0.307729 -0.330506 -0.35135 -0.369976 -0.386119 -0.399528 -0.410003 -0.416923 -0.42214 -0.425578 -0.426084 -0.422889 -0.415675 -0.404999 -0.391166 -0.374485 -0.355154 -0.333492 -0.309955 -0.284914 -0.258755 -0.231888 -0.204753 -0.177806 -0.151448 -0.126102 -0.102168 -0.0799693 -0.0599135 -0.0421333 -0.0273633 -0.0156032 -0.00701257 -0.0017707 -2.03104e-26 0 -0.00420285 -0.0115903 -0.022796 -0.0376517 -0.0559347 -0.0773695 -0.10163 -0.128346 -0.157096 -0.187419 -0.218885 -0.250918 -0.283068 -0.314784 -0.346308 -0.375921 -0.403612 -0.429014 -0.451726 -0.471393 -0.487707 -0.500423 -0.509039 -0.514745 -0.517345 -0.516935 -0.51214 -0.502866 -0.489547 -0.472503 -0.452084 -0.428542 -0.402235 -0.373695 -0.343399 -0.311786 -0.279346 -0.246605 -0.214108 -0.182329 -0.15177 -0.12292 -0.0962313 -0.0720891 -0.050628 -0.032939 -0.0187633 -0.00842627 -0.00212543 -2.40346e-26 0 -0.00479964 -0.0133344 -0.0263178 -0.0435556 -0.0647881 -0.0896984 -0.117902 -0.14897 -0.182663 -0.218013 -0.255017 -0.292766 -0.330532 -0.367683 -0.403778 -0.438237 -0.470515 -0.500103 -0.526534 -0.549395 -0.568328 -0.583049 -0.59313 -0.599317 -0.60121 -0.599951 -0.593558 -0.582269 -0.566419 -0.546353 -0.52247 -0.495049 -0.464473 -0.431369 -0.39629 -0.359726 -0.322236 -0.284424 -0.246912 -0.210238 -0.174975 -0.141681 -0.110885 -0.0830622 -0.0585802 -0.0380383 -0.021629 -0.00970814 -0.0024469 -2.73905e-26 0 -0.00525432 -0.014767 -0.029305 -0.0486605 -0.0725299 -0.100587 -0.132543 -0.167438 -0.205606 -0.246055 -0.287718 -0.329972 -0.37243 -0.414333 -0.455025 -0.493857 -0.530212 -0.563512 -0.593228 -0.618897 -0.640118 -0.656575 -0.667888 -0.674403 -0.675896 -0.673682 -0.665799 -0.652608 -0.634416 -0.611594 -0.584564 -0.553648 -0.519273 -0.482117 -0.442797 -0.401859 -0.359918 -0.317643 -0.275727 -0.234757 -0.195366 -0.158172 -0.123769 -0.0927026 -0.0654559 -0.0423792 -0.0241549 -0.0108383 -0.00273022 -3.03272e-26 0 -0.00560843 -0.0159454 -0.0318097 -0.0530104 -0.0792251 -0.110057 -0.144284 -0.183016 -0.226174 -0.270181 -0.315615 -0.36201 -0.408638 -0.454645 -0.499305 -0.541903 -0.581757 -0.618229 -0.650743 -0.678789 -0.701933 -0.719832 -0.732138 -0.738874 -0.74008 -0.736932 -0.727688 -0.712768 -0.692481 -0.667224 -0.637431 -0.603472 -0.565822 -0.525183 -0.482229 -0.437558 -0.39183 -0.345769 -0.300121 -0.255516 -0.212636 -0.172145 -0.134689 -0.100868 -0.0712171 -0.0461689 -0.0263095 -0.0117992 -0.00297107 -3.28002e-26 0 -0.00586527 -0.016855 -0.0337572 -0.0564396 -0.0843933 -0.117317 -0.15566 -0.197989 -0.24276 -0.28985 -0.338657 -0.3885 -0.438579 -0.487976 -0.535905 -0.581595 -0.624311 -0.663368 -0.698147 -0.728104 -0.752779 -0.771808 -0.784866 -0.791735 -0.792673 -0.788691 -0.77824 -0.761812 -0.739725 -0.712397 -0.680275 -0.643775 -0.603426 -0.559928 -0.513997 -0.466292 -0.417496 -0.36838 -0.319728 -0.272205 -0.226524 -0.183388 -0.14348 -0.107444 -0.0758608 -0.0492381 -0.0280037 -0.0125758 -0.00316578 -3.47717e-26 0 -0.00604827 -0.0175252 -0.0352851 -0.05933 -0.0885795 -0.123123 -0.164612 -0.208426 -0.25544 -0.305055 -0.356488 -0.409008 -0.461759 -0.513771 -0.564216 -0.612275 -0.657173 -0.698188 -0.73467 -0.766047 -0.791841 -0.811675 -0.825241 -0.832141 -0.832831 -0.828124 -0.816653 -0.798976 -0.775422 -0.746426 -0.71245 -0.673954 -0.631519 -0.585829 -0.537628 -0.48763 -0.436532 -0.385138 -0.334255 -0.28457 -0.236821 -0.19173 -0.150009 -0.112332 -0.0793099 -0.0514763 -0.0292944 -0.0131563 -0.00331137 -3.62109e-26 0 -0.00614656 -0.0180139 -0.0363267 -0.061129 -0.0921997 -0.128835 -0.170278 -0.215493 -0.264169 -0.315549 -0.368809 -0.423187 -0.477784 -0.531599 -0.583766 -0.633437 -0.679805 -0.722125 -0.759722 -0.792011 -0.8185 -0.838804 -0.852631 -0.859453 -0.859913 -0.854591 -0.842308 -0.823668 -0.79901 -0.768785 -0.733467 -0.693555 -0.649669 -0.602489 -0.552765 -0.50125 -0.44865 -0.395789 -0.343479 -0.292423 -0.243367 -0.197043 -0.154175 -0.115456 -0.0815174 -0.0529117 -0.0301481 -0.0135322 -0.00340559 -3.70953e-26 0 -0.00616355 -0.0181775 -0.0367135 -0.0620381 -0.0937099 -0.131366 -0.173176 -0.219218 -0.268808 -0.321152 -0.375409 -0.430799 -0.486391 -0.541166 -0.59424 -0.644743 -0.691852 -0.734805 -0.772919 -0.805599 -0.832349 -0.852782 -0.866625 -0.873221 -0.873344 -0.86722 -0.85412 -0.834644 -0.809132 -0.778044 -0.741859 -0.70111 -0.656436 -0.608504 -0.558057 -0.505866 -0.452651 -0.399235 -0.346415 -0.294897 -0.245419 -0.198707 -0.155481 -0.116433 -0.0822039 -0.0533547 -0.0303662 -0.0136409 -0.00343624 -3.74107e-26 0 -0.00609637 -0.0180917 -0.0368801 -0.0623514 -0.0940905 -0.131238 -0.173005 -0.219049 -0.268647 -0.321006 -0.375281 -0.430691 -0.486303 -0.541099 -0.594193 -0.644714 -0.691838 -0.734804 -0.772928 -0.805613 -0.832364 -0.85279 -0.86662 -0.873187 -0.873264 -0.866885 -0.853532 -0.833799 -0.808037 -0.776707 -0.740307 -0.699401 -0.654645 -0.606703 -0.556263 -0.504088 -0.450947 -0.397672 -0.345022 -0.293698 -0.244424 -0.197913 -0.154873 -0.115986 -0.081893 -0.0531551 -0.0302498 -0.0135972 -0.0034254 -3.71531e-26 0 -0.0059612 -0.0176748 -0.0359596 -0.0610866 -0.0929348 -0.129358 -0.170607 -0.2161 -0.265114 -0.316861 -0.370499 -0.425253 -0.480183 -0.534283 -0.586668 -0.636474 -0.682879 -0.725125 -0.762532 -0.794512 -0.820581 -0.840351 -0.853575 -0.859559 -0.859399 -0.85272 -0.839201 -0.819415 -0.793724 -0.762588 -0.726525 -0.686107 -0.64198 -0.594798 -0.545239 -0.494011 -0.441808 -0.389513 -0.337916 -0.287646 -0.239403 -0.193873 -0.151738 -0.113661 -0.0802669 -0.0521088 -0.0296593 -0.0133336 -0.00336064 -3.6328e-26 0 -0.00572346 -0.0170066 -0.0348241 -0.0593795 -0.0901063 -0.12543 -0.165508 -0.209727 -0.257378 -0.307689 -0.359836 -0.413063 -0.466436 -0.518977 -0.56982 -0.618116 -0.663061 -0.703917 -0.740024 -0.770789 -0.795737 -0.814572 -0.827044 -0.832407 -0.832001 -0.825055 -0.81154 -0.791986 -0.76676 -0.73631 -0.701153 -0.661861 -0.619054 -0.573375 -0.525491 -0.476061 -0.425714 -0.375241 -0.325439 -0.277024 -0.23058 -0.186756 -0.146201 -0.109543 -0.077379 -0.0502467 -0.028606 -0.0128559 -0.00324343 -3.49503e-26 0 -0.00541179 -0.016186 -0.0333705 -0.0568073 -0.0858384 -0.119566 -0.157864 -0.200136 -0.245701 -0.293814 -0.343681 -0.394575 -0.445579 -0.49576 -0.54428 -0.59032 -0.633111 -0.671898 -0.706035 -0.735037 -0.75852 -0.776148 -0.787634 -0.792214 -0.791501 -0.784343 -0.771031 -0.752008 -0.727637 -0.698351 -0.664652 -0.627091 -0.586254 -0.542771 -0.497293 -0.45044 -0.402794 -0.355041 -0.307863 -0.261991 -0.218086 -0.17667 -0.138342 -0.10369 -0.0732712 -0.047596 -0.0271057 -0.0121683 -0.00307353 -3.30438e-26 0 -0.00503136 -0.0151767 -0.0313516 -0.0532227 -0.0802316 -0.111858 -0.147797 -0.187485 -0.230279 -0.275474 -0.322314 -0.370112 -0.417977 -0.465021 -0.510432 -0.553424 -0.5933 -0.629379 -0.661097 -0.688014 -0.709717 -0.725801 -0.736014 -0.739617 -0.738538 -0.731274 -0.718361 -0.700158 -0.677003 -0.649323 -0.617607 -0.582365 -0.544138 -0.503518 -0.46112 -0.41755 -0.373345 -0.329112 -0.285393 -0.242831 -0.202113 -0.163767 -0.12828 -0.0961909 -0.0680049 -0.0441962 -0.0251808 -0.0113073 -0.00285861 -3.06398e-26 0 -0.0045822 -0.0139082 -0.0287537 -0.0487693 -0.0733443 -0.102361 -0.135384 -0.171892 -0.211277 -0.25288 -0.295989 -0.339966 -0.383948 -0.427122 -0.468734 -0.50807 -0.544505 -0.577451 -0.60636 -0.63075 -0.650189 -0.664334 -0.672948 -0.675605 -0.673931 -0.666691 -0.654313 -0.637156 -0.615544 -0.589894 -0.560677 -0.528341 -0.493363 -0.456259 -0.417586 -0.377937 -0.337834 -0.297819 -0.258301 -0.219785 -0.182905 -0.148245 -0.116167 -0.0871591 -0.0616593 -0.0400985 -0.0228603 -0.010271 -0.0025983 -2.7775e-26 0 -0.00406741 -0.012373 -0.0256214 -0.0434847 -0.065418 -0.0914076 -0.121032 -0.153813 -0.189202 -0.226594 -0.265337 -0.30484 -0.344303 -0.383003 -0.420264 -0.455437 -0.487935 -0.517196 -0.542701 -0.564013 -0.580744 -0.592645 -0.599445 -0.601257 -0.598789 -0.591578 -0.579903 -0.564024 -0.544278 -0.521066 -0.49479 -0.465839 -0.434644 -0.401682 -0.367392 -0.332264 -0.296852 -0.261659 -0.226987 -0.1932 -0.160814 -0.130344 -0.10219 -0.0767329 -0.0543314 -0.0353652 -0.0201795 -0.00907363 -0.00229417 -2.44872e-26 0 -0.00348924 -0.0106274 -0.0220654 -0.0375318 -0.0565577 -0.0791665 -0.104984 -0.133584 -0.164485 -0.197146 -0.230979 -0.265457 -0.299847 -0.333517 -0.36586 -0.396293 -0.424248 -0.449221 -0.470804 -0.488652 -0.502421 -0.511939 -0.516849 -0.517668 -0.514361 -0.507129 -0.496386 -0.482057 -0.464497 -0.444058 -0.42107 -0.395901 -0.368946 -0.340622 -0.311271 -0.281254 -0.25108 -0.221209 -0.191921 -0.163447 -0.136109 -0.110338 -0.0865656 -0.0650731 -0.0461336 -0.0300688 -0.0171793 -0.00773357 -0.00195344 -2.08277e-26 0 -0.00285657 -0.00872499 -0.0181881 -0.0310545 -0.0468405 -0.0657374 -0.0873824 -0.111411 -0.137402 -0.164881 -0.193336 -0.222293 -0.251101 -0.279213 -0.306094 -0.331241 -0.354159 -0.374456 -0.391848 -0.406024 -0.416655 -0.423684 -0.426639 -0.426195 -0.421934 -0.41472 -0.405045 -0.392454 -0.377342 -0.359981 -0.340655 -0.319673 -0.297355 -0.274034 -0.250056 -0.225672 -0.201233 -0.177133 -0.153663 -0.130955 -0.109149 -0.088555 -0.0695386 -0.0523607 -0.0371926 -0.0242906 -0.0139058 -0.00627139 -0.0015863 -1.68868e-26 0 -0.00218311 -0.00670362 -0.014065 -0.0241316 -0.0365228 -0.0514506 -0.0686173 -0.0877252 -0.108427 -0.130324 -0.152994 -0.175994 -0.198797 -0.220936 -0.24196 -0.26144 -0.278976 -0.29428 -0.307233 -0.317535 -0.324921 -0.329268 -0.330525 -0.32826 -0.323381 -0.315733 -0.307257 -0.296577 -0.284109 -0.270056 -0.254664 -0.238179 -0.220846 -0.202921 -0.184661 -0.166309 -0.148048 -0.130133 -0.112837 -0.0962481 -0.0803599 -0.0653102 -0.0513742 -0.0387934 -0.027647 -0.0181201 -0.0104095 -0.00470965 -0.00119451 -1.26987e-26 0 -0.00148594 -0.00461218 -0.0097793 -0.0169377 -0.0258369 -0.0366163 -0.0490768 -0.0630046 -0.0781308 -0.0941407 -0.110698 -0.127415 -0.143883 -0.159722 -0.174573 -0.188096 -0.199994 -0.210083 -0.218341 -0.224421 -0.228257 -0.22995 -0.229405 -0.225796 -0.220598 -0.21178 -0.204508 -0.195857 -0.186163 -0.175591 -0.164336 -0.15258 -0.140496 -0.128251 -0.11604 -0.104017 -0.0922775 -0.0809113 -0.0700875 -0.0598753 -0.0501763 -0.0409493 -0.0323557 -0.0245807 -0.0176446 -0.0116522 -0.00674377 -0.00307194 -0.000783585 -8.15091e-27 0 -0.000787874 -0.00252609 -0.00547032 -0.00969341 -0.0150094 -0.0215106 -0.0291306 -0.0377165 -0.0470807 -0.056991 -0.0671987 -0.0773953 -0.0872869 -0.0965854 -0.105024 -0.11236 -0.118389 -0.123027 -0.126287 -0.12791 -0.128084 -0.126922 -0.124245 -0.120047 -0.116427 -0.104329 -0.0982947 -0.0917146 -0.0848936 -0.0779163 -0.0709309 -0.0640619 -0.057415 -0.0510854 -0.0451573 -0.0396944 -0.0347151 -0.0301699 -0.026054 -0.0224025 -0.0190676 -0.0158462 -0.0127634 -0.00993807 -0.00734132 -0.00498956 -0.00296851 -0.00138661 -0.000361654 -3.49474e-27 0 -0.000145949 -0.000563249 -0.00134854 -0.00264873 -0.00440952 -0.00653966 -0.00924957 -0.0123878 -0.0158516 -0.0195055 -0.0231773 -0.0266792 -0.0298167 -0.032402 -0.0342667 -0.0352703 -0.0353395 -0.0343928 -0.0324796 -0.0295888 -0.0258739 -0.0214889 -0.0164913 -0.0111993 -0.0107938 0.00546916 0.010246 0.0145424 0.0183355 0.0216032 0.0242202 0.0260927 0.0271787 0.0274585 0.0269496 0.0256998 0.0237901 0.0213688 0.0186257 0.0156075 0.012502 0.00963121 0.00711929 0.00491947 0.00310971 0.00176494 0.000855389 0.000318094 6.63829e-05 6.66617e-28 0 0.000301874 0.00114013 0.00243754 0.00404351 0.00587762 0.00807519 0.0103446 0.0127378 0.0152694 0.01798 0.020935 0.0242157 0.0279092 0.0320969 0.0368433 0.0421821 0.0480827 0.0545815 0.0616554 0.0690582 0.076685 0.0843968 0.0919529 0.0991723 0.104352 0.112459 0.11897 0.120927 0.121581 0.121094 0.119327 0.116185 0.111683 0.105891 0.0989224 0.0909365 0.0821338 0.0727579 0.0631287 0.0534463 0.0439506 0.0350251 0.0269474 0.0197587 0.0135689 0.00855065 0.00472878 0.00208544 0.00055818 5.07416e-27 0 0.000718525 0.00281371 0.00617492 0.0106605 0.0161586 0.022616 0.0298341 0.0377169 0.0461917 0.0552004 0.0647034 0.0746739 0.0850897 0.0959249 0.107141 0.118676 0.130425 0.142326 0.15437 0.166127 0.177563 0.188455 0.198473 0.207446 0.21396 0.219722 0.224113 0.225143 0.223091 0.218983 0.212875 0.204763 0.194733 0.182941 0.169602 0.154986 0.139404 0.123208 0.106801 0.0905672 0.0748141 0.0599709 0.0464482 0.0343836 0.0239157 0.0152923 0.0086074 0.00387975 0.00107249 9.58148e-27 0 0.00113545 0.00447239 0.00988726 0.0172183 0.0262308 0.0369496 0.0489063 0.0621276 0.0763849 0.0915203 0.107391 0.123864 0.140809 0.158093 0.175575 0.193112 0.210516 0.227616 0.244412 0.260297 0.275294 0.289094 0.301288 0.311613 0.31831 0.323608 0.326002 0.325636 0.321196 0.313592 0.303268 0.290322 0.27492 0.257308 0.237802 0.216776 0.194651 0.171882 0.148934 0.126374 0.104594 0.0840639 0.0652993 0.0485402 0.0339624 0.0218617 0.0123975 0.00564058 0.0015782 1.39933e-26 0 0.00152958 0.00604661 0.0134162 0.0234657 0.0358997 0.0505917 0.067099 0.0854559 0.105261 0.126274 0.148255 0.170965 0.194169 0.21763 0.241127 0.264388 0.28716 0.309191 0.330451 0.350181 0.36842 0.38484 0.398946 0.410462 0.417483 0.422486 0.423438 0.421244 0.414213 0.40331 0.38895 0.371385 0.350864 0.327722 0.302367 0.275272 0.246957 0.217973 0.188847 0.160298 0.13282 0.106917 0.083193 0.0619915 0.0435275 0.0281346 0.0160276 0.00732724 0.00206021 1.82079e-26 0 0.00190196 0.00753071 0.0167365 0.0293254 0.0449918 0.0634558 0.084172 0.107406 0.132437 0.158982 0.186712 0.215291 0.24438 0.273661 0.302791 0.331412 0.359191 0.385811 0.411184 0.434424 0.455568 0.474312 0.490088 0.50267 0.509994 0.514613 0.514807 0.510363 0.500687 0.486638 0.468479 0.446589 0.421295 0.39301 0.36223 0.329512 0.295466 0.26073 0.225901 0.191801 0.159041 0.128162 0.0998419 0.0745218 0.0524506 0.0339973 0.019432 0.00891326 0.00251077 2.215e-26 0 0.00224366 0.00889443 0.0197898 0.034709 0.0533453 0.0753976 0.100157 0.127622 0.157457 0.189104 0.222139 0.256131 0.290646 0.325298 0.35961 0.39315 0.425504 0.456301 0.485382 0.511762 0.535459 0.556215 0.573416 0.586897 0.59449 0.59869 0.598288 0.591622 0.579273 0.562227 0.540564 0.514716 0.485073 0.452121 0.416429 0.378628 0.339407 0.299472 0.259499 0.220382 0.182845 0.147468 0.114984 0.085924 0.0605845 0.0393517 0.0225464 0.0103709 0.0029266 2.57518e-26 0 0.00255078 0.0101199 0.0225348 0.0395518 0.0608559 0.0860367 0.114588 0.145889 0.179958 0.216191 0.254001 0.292864 0.332264 0.371743 0.410705 0.448648 0.48508 0.519579 0.551909 0.581031 0.606911 0.629347 0.647715 0.66189 0.669682 0.673416 0.672503 0.663508 0.648734 0.628915 0.604107 0.57473 0.541233 0.50416 0.46414 0.421871 0.378103 0.333605 0.28911 0.245595 0.203862 0.164535 0.128393 0.0960345 0.0677934 0.0441002 0.0253183 0.0116743 0.00330041 2.89522e-26 0 0.00281784 0.0111861 0.0249247 0.0437729 0.0673988 0.095345 0.127309 0.162235 0.199607 0.239817 0.281797 0.324916 0.36859 0.412272 0.455283 0.497044 0.536996 0.574668 0.609751 0.641178 0.668852 0.69263 0.711888 0.726523 0.734419 0.737639 0.736147 0.724713 0.708005 0.685748 0.658207 0.625788 0.588987 0.548396 0.504692 0.458625 0.410999 0.362626 0.314277 0.267046 0.221768 0.179095 0.139864 0.104717 0.0739816 0.0481734 0.0276923 0.0127901 0.00362492 3.1698e-26 0 0.00304104 0.0120774 0.0269233 0.0473042 0.0728675 0.10315 0.137724 0.17567 0.216162 0.259632 0.305104 0.351795 0.399055 0.446258 0.492649 0.537585 0.580446 0.620719 0.658025 0.691286 0.720354 0.74512 0.764976 0.779821 0.787709 0.790388 0.78778 0.774624 0.756258 0.73196 0.702115 0.667155 0.627619 0.584139 0.537434 0.488293 0.437559 0.386075 0.334618 0.284412 0.236287 0.190925 0.149216 0.111827 0.0790554 0.0515205 0.0296419 0.0137034 0.00388826 3.39481e-26 0 0.00321677 0.0127796 0.0284989 0.0500901 0.0771828 0.109315 0.145977 0.186634 0.229923 0.27537 0.323562 0.373084 0.423185 0.473168 0.522217 0.569635 0.61475 0.657016 0.695986 0.730593 0.76064 0.786032 0.806182 0.820974 0.828744 0.830945 0.826139 0.812375 0.792557 0.766647 0.735002 0.698086 0.656466 0.610805 0.561851 0.510423 0.457387 0.403599 0.34984 0.297447 0.24721 0.199841 0.156294 0.117242 0.0829101 0.0540758 0.031144 0.0144121 0.00409033 3.5668e-26 0 0.00334242 0.0132821 0.0296276 0.0520882 0.0802826 0.113744 0.151918 0.194238 0.239454 0.286775 0.336894 0.388456 0.440606 0.492582 0.543525 0.592691 0.639372 0.682993 0.72305 0.758497 0.789097 0.814747 0.834885 0.849345 0.85705 0.858641 0.851778 0.837356 0.816498 0.789423 0.756509 0.718242 0.675212 0.628102 0.577677 0.524767 0.470247 0.414979 0.359753 0.305973 0.254375 0.205707 0.160971 0.120839 0.0854725 0.0557855 0.0321534 0.014894 0.00423403 3.68284e-26 0 0.00341603 0.0135772 0.030292 0.0532673 0.0821169 0.116368 0.155459 0.198792 0.245691 0.294587 0.345086 0.397692 0.451046 0.504197 0.556236 0.60639 0.653923 0.698243 0.738798 0.774569 0.805286 0.830828 0.850642 0.864578 0.873006 0.872113 0.863774 0.848628 0.826969 0.799084 0.765374 0.726348 0.682608 0.634842 0.583806 0.53032 0.47525 0.419446 0.363741 0.309466 0.257355 0.208219 0.163015 0.122383 0.0866338 0.0565858 0.0326394 0.0151323 0.00430625 3.74107e-26 0 0.00343624 0.0136586 0.0304763 0.053596 0.082631 0.117108 0.156473 0.200104 0.247305 0.297312 0.348554 0.400685 0.454215 0.50767 0.559973 0.610322 0.657969 0.702314 0.742768 0.778341 0.808745 0.833827 0.853139 0.867713 0.87422 0.871808 0.863218 0.847867 0.826014 0.797972 0.764158 0.72509 0.681368 0.633666 0.582731 0.529374 0.474445 0.418734 0.363241 0.309128 0.257135 0.208148 0.163025 0.122307 0.0866368 0.056607 0.0326623 0.0151486 0.00431321 3.7406e-26 0 0.00342333 0.0136057 0.0303546 0.0533761 0.0822841 0.116607 0.155803 0.199265 0.246247 0.295972 0.347642 0.399874 0.452684 0.50567 0.557581 0.607537 0.654741 0.698572 0.738401 0.773257 0.802865 0.826984 0.844645 0.856415 0.86033 0.85766 0.848871 0.833454 0.811696 0.783921 0.750539 0.712052 0.669038 0.622149 0.572117 0.519728 0.46582 0.411058 0.356686 0.303628 0.252604 0.204561 0.160276 0.120215 0.0851787 0.0556785 0.032142 0.0149156 0.00425047 3.68138e-26 0 0.00333763 0.0132663 0.0295993 0.0520508 0.0802444 0.113721 0.151946 0.194354 0.240212 0.288722 0.339181 0.390613 0.443114 0.494387 0.5442 0.592605 0.638477 0.681 0.719575 0.753397 0.78024 0.801059 0.818156 0.829313 0.832836 0.830036 0.821227 0.806074 0.784859 0.75788 0.725516 0.6