<?xml version="1.0"?>
<VTKFile type="PolyData">
	<PolyData>
		<Piece NumberOfPoints="2601" NumberOfPolys="2500">
			<Points>
				<DataArray type="Float32" NumberOfComponents="3" format="ascii">
 0 0 0 0.02 0 0 0.04 0 0 0.06 0 0 0.08 0 0 0.1 0 0 0.12 0 0 0.14 0 0 0.16 0 0 0.18 0 0 0.2 0 0 0.22 0 0 0.24 0 0 0.26 0 0 0.28 0 0 0.3 0 0 0.32 0 0 0.34 0 0 0.36 0 0 0.38 0 0 0.4 0 0 0.42 0 0 0.44 0 0 0.46 0 0 0.48 0 0 0.5 0 0 0.52 0 0 0.54 0 0 0.56 0 0 0.58 0 0 0.6 0 0 0.62 0 0 0.64 0 0 0.66 0 0 0.68 0 0 0.7 0 0 0.72 0 0 0.74 0 0 0.76 0 0 0.78 0 0 0.8 0 0 0.82 0 0 0.84 0 0 0.86 0 0 0.88 0 0 0.9 0 0 0.92 0 0 0.94 0 0 0.96 0 0 0.98 0 0 1 0 0 0 0.02 0 0.02 0.02 0 0.04 0.02 0 0.06 0.02 0 0.08 0.02 0 0.1 0.02 0 0.12 0.02 0 0.14 0.02 0 0.16 0.02 0 0.18 0.02 0 0.2 0.02 0 0.22 0.02 0 0.24 0.02 0 0.26 0.02 0 0.28 0.02 0 0.3 0.02 0 0.32 0.02 0 0.34 0.02 0 0.36 0.02 0 0.38 0.02 0 0.4 0.02 0 0.42 0.02 0 0.44 0.02 0 0.46 0.02 0 0.48 0.02 0 0.5 0.02 0 0.52 0.02 0 0.54 0.02 0 0.56 0.02 0 0.58 0.02 0 0.6 0.02 0 0.62 0.02 0 0.64 0.02 0 0.66 0.02 0 0.68 0.02 0 0.7 0.02 0 0.72 0.02 0 0.74 0.02 0 0.76 0.02 0 0.78 0.02 0 0.8 0.02 0 0.82 0.02 0 0.84 0.02 0 0.86 0.02 0 0.88 0.02 0 0.9 0.02 0 0.92 0.02 0 0.94 0.02 0 0.96 0.02 0 0.98 0.02 0 1 0.02 0 0 0.04 0 0.02 0.04 0 0.04 0.04 0 0.06 0.04 0 0.08 0.04 0 0.1 0.04 0 0.12 0.04 0 0.14 0.04 0 0.16 0.04 0 0.18 0.04 0 0.2 0.04 0 0.22 0.04 0 0.24 0.04 0 0.26 0.04 0 0.28 0.04 0 0.3 0.04 0 0.32 0.04 0 0.34 0.04 0 0.36 0.04 0 0.38 0.04 0 0.4 0.04 0 0.42 0.04 0 0.44 0.04 0 0.46 0.04 0 0.48 0.04 0 0.5 0.04 0 0.52 0.04 0 0.54 0.04 0 0.56 0.04 0 0.58 0.04 0 0.6 0.04 0 0.62 0.04 0 0.64 0.04 0 0.66 0.04 0 0.68 0.04 0 0.7 0.04 0 0.72 0.04 0 0.74 0.04 0 0.76 0.04 0 0.78 0.04 0 0.8 0.04 0 0.82 0.04 0 0.84 0.04 0 0.86 0.04 0 0.88 0.04 0 0.9 0.04 0 0.92 0.04 0 0.94 0.04 0 0.96 0.04 0 0.98 0.04 0 1 0.04 0 0 0.06 0 0.02 0.06 0 0.04 0.06 0 0.06 0.06 0 0.08 0.06 0 0.1 0.06 0 0.12 0.06 0 0.14 0.06 0 0.16 0.06 0 0.18 0.06 0 0.2 0.06 0 0.22 0.06 0 0.24 0.06 0 0.26 0.06 0 0.28 0.06 0 0.3 0.06 0 0.32 0.06 0 0.34 0.06 0 0.36 0.06 0 0.38 0.06 0 0.4 0.06 0 0.42 0.06 0 0.44 0.06 0 0.46 0.06 0 0.48 0.06 0 0.5 0.06 0 0.52 0.06 0 0.54 0.06 0 0.56 0.06 0 0.58 0.06 0 0.6 0.06 0 0.62 0.06 0 0.64 0.06 0 0.66 0.06 0 0.68 0.06 0 0.7 0.06 0 0.72 0.06 0 0.74 0.06 0 0.76 0.06 0 0.78 0.06 0 0.8 0.06 0 0.82 0.06 0 0.84 0.06 0 0.86 0.06 0 0.88 0.06 0 0.9 0.06 0 0.92 0.06 0 0.94 0.06 0 0.96 0.06 0 0.98 0.06 0 1 0.06 0 0 0.08 0 0.02 0.08 0 0.04 0.08 0 0.06 0.08 0 0.08 0.08 0 0.1 0.08 0 0.12 0.08 0 0.14 0.08 0 0.16 0.08 0 0.18 0.08 0 0.2 0.08 0 0.22 0.08 0 0.24 0.08 0 0.26 0.08 0 0.28 0.08 0 0.3 0.08 0 0.32 0.08 0 0.34 0.08 0 0.36 0.08 0 0.38 0.08 0 0.4 0.08 0 0.42 0.08 0 0.44 0.08 0 0.46 0.08 0 0.48 0.08 0 0.5 0.08 0 0.52 0.08 0 0.54 0.08 0 0.56 0.08 0 0.58 0.08 0 0.6 0.08 0 0.62 0.08 0 0.64 0.08 0 0.66 0.08 0 0.68 0.08 0 0.7 0.08 0 0.72 0.08 0 0.74 0.08 0 0.76 0.08 0 0.78 0.08 0 0.8 0.08 0 0.82 0.08 0 0.84 0.08 0 0.86 0.08 0 0.88 0.08 0 0.9 0.08 0 0.92 0.08 0 0.94 0.08 0 0.96 0.08 0 0.98 0.08 0 1 0.08 0 0 0.1 0 0.02 0.1 0 0.04 0.1 0 0.06 0.1 0 0.08 0.1 0 0.1 0.1 0 0.12 0.1 0 0.14 0.1 0 0.16 0.1 0 0.18 0.1 0 0.2 0.1 0 0.22 0.1 0 0.24 0.1 0 0.26 0.1 0 0.28 0.1 0 0.3 0.1 0 0.32 0.1 0 0.34 0.1 0 0.36 0.1 0 0.38 0.1 0 0.4 0.1 0 0.42 0.1 0 0.44 0.1 0 0.46 0.1 0 0.48 0.1 0 0.5 0.1 0 0.52 0.1 0 0.54 0.1 0 0.56 0.1 0 0.58 0.1 0 0.6 0.1 0 0.62 0.1 0 0.64 0.1 0 0.66 0.1 0 0.68 0.1 0 0.7 0.1 0 0.72 0.1 0 0.74 0.1 0 0.76 0.1 0 0.78 0.1 0 0.8 0.1 0 0.82 0.1 0 0.84 0.1 0 0.86 0.1 0 0.88 0.1 0 0.9 0.1 0 0.92 0.1 0 0.94 0.1 0 0.96 0.1 0 0.98 0.1 0 1 0.1 0 0 0.12 0 0.02 0.12 0 0.04 0.12 0 0.06 0.12 0 0.08 0.12 0 0.1 0.12 0 0.12 0.12 0 0.14 0.12 0 0.16 0.12 0 0.18 0.12 0 0.2 0.12 0 0.22 0.12 0 0.24 0.12 0 0.26 0.12 0 0.28 0.12 0 0.3 0.12 0 0.32 0.12 0 0.34 0.12 0 0.36 0.12 0 0.38 0.12 0 0.4 0.12 0 0.42 0.12 0 0.44 0.12 0 0.46 0.12 0 0.48 0.12 0 0.5 0.12 0 0.52 0.12 0 0.54 0.12 0 0.56 0.12 0 0.58 0.12 0 0.6 0.12 0 0.62 0.12 0 0.64 0.12 0 0.66 0.12 0 0.68 0.12 0 0.7 0.12 0 0.72 0.12 0 0.74 0.12 0 0.76 0.12 0 0.78 0.12 0 0.8 0.12 0 0.82 0.12 0 0.84 0.12 0 0.86 0.12 0 0.88 0.12 0 0.9 0.12 0 0.92 0.12 0 0.94 0.12 0 0.96 0.12 0 0.98 0.12 0 1 0.12 0 0 0.14 0 0.02 0.14 0 0.04 0.14 0 0.06 0.14 0 0.08 0.14 0 0.1 0.14 0 0.12 0.14 0 0.14 0.14 0 0.16 0.14 0 0.18 0.14 0 0.2 0.14 0 0.22 0.14 0 0.24 0.14 0 0.26 0.14 0 0.28 0.14 0 0.3 0.14 0 0.32 0.14 0 0.34 0.14 0 0.36 0.14 0 0.38 0.14 0 0.4 0.14 0 0.42 0.14 0 0.44 0.14 0 0.46 0.14 0 0.48 0.14 0 0.5 0.14 0 0.52 0.14 0 0.54 0.14 0 0.56 0.14 0 0.58 0.14 0 0.6 0.14 0 0.62 0.14 0 0.64 0.14 0 0.66 0.14 0 0.68 0.14 0 0.7 0.14 0 0.72 0.14 0 0.74 0.14 0 0.76 0.14 0 0.78 0.14 0 0.8 0.14 0 0.82 0.14 0 0.84 0.14 0 0.86 0.14 0 0.88 0.14 0 0.9 0.14 0 0.92 0.14 0 0.94 0.14 0 0.96 0.14 0 0.98 0.14 0 1 0.14 0 0 0.16 0 0.02 0.16 0 0.04 0.16 0 0.06 0.16 0 0.08 0.16 0 0.1 0.16 0 0.12 0.16 0 0.14 0.16 0 0.16 0.16 0 0.18 0.16 0 0.2 0.16 0 0.22 0.16 0 0.24 0.16 0 0.26 0.16 0 0.28 0.16 0 0.3 0.16 0 0.32 0.16 0 0.34 0.16 0 0.36 0.16 0 0.38 0.16 0 0.4 0.16 0 0.42 0.16 0 0.44 0.16 0 0.46 0.16 0 0.48 0.16 0 0.5 0.16 0 0.52 0.16 0 0.54 0.16 0 0.56 0.16 0 0.58 0.16 0 0.6 0.16 0 0.62 0.16 0 0.64 0.16 0 0.66 0.16 0 0.68 0.16 0 0.7 0.16 0 0.72 0.16 0 0.74 0.16 0 0.76 0.16 0 0.78 0.16 0 0.8 0.16 0 0.82 0.16 0 0.84 0.16 0 0.86 0.16 0 0.88 0.16 0 0.9 0.16 0 0.92 0.16 0 0.94 0.16 0 0.96 0.16 0 0.98 0.16 0 1 0.16 0 0 0.18 0 0.02 0.18 0 0.04 0.18 0 0.06 0.18 0 0.08 0.18 0 0.1 0.18 0 0.12 0.18 0 0.14 0.18 0 0.16 0.18 0 0.18 0.18 0 0.2 0.18 0 0.22 0.18 0 0.24 0.18 0 0.26 0.18 0 0.28 0.18 0 0.3 0.18 0 0.32 0.18 0 0.34 0.18 0 0.36 0.18 0 0.38 0.18 0 0.4 0.18 0 0.42 0.18 0 0.44 0.18 0 0.46 0.18 0 0.48 0.18 0 0.5 0.18 0 0.52 0.18 0 0.54 0.18 0 0.56 0.18 0 0.58 0.18 0 0.6 0.18 0 0.62 0.18 0 0.64 0.18 0 0.66 0.18 0 0.68 0.18 0 0.7 0.18 0 0.72 0.18 0 0.74 0.18 0 0.76 0.18 0 0.78 0.18 0 0.8 0.18 0 0.82 0.18 0 0.84 0.18 0 0.86 0.18 0 0.88 0.18 0 0.9 0.18 0 0.92 0.18 0 0.94 0.18 0 0.96 0.18 0 0.98 0.18 0 1 0.18 0 0 0.2 0 0.02 0.2 0 0.04 0.2 0 0.06 0.2 0 0.08 0.2 0 0.1 0.2 0 0.12 0.2 0 0.14 0.2 0 0.16 0.2 0 0.18 0.2 0 0.2 0.2 0 0.22 0.2 0 0.24 0.2 0 0.26 0.2 0 0.28 0.2 0 0.3 0.2 0 0.32 0.2 0 0.34 0.2 0 0.36 0.2 0 0.38 0.2 0 0.4 0.2 0 0.42 0.2 0 0.44 0.2 0 0.46 0.2 0 0.48 0.2 0 0.5 0.2 0 0.52 0.2 0 0.54 0.2 0 0.56 0.2 0 0.58 0.2 0 0.6 0.2 0 0.62 0.2 0 0.64 0.2 0 0.66 0.2 0 0.68 0.2 0 0.7 0.2 0 0.72 0.2 0 0.74 0.2 0 0.76 0.2 0 0.78 0.2 0 0.8 0.2 0 0.82 0.2 0 0.84 0.2 0 0.86 0.2 0 0.88 0.2 0 0.9 0.2 0 0.92 0.2 0 0.94 0.2 0 0.96 0.2 0 0.98 0.2 0 1 0.2 0 0 0.22 0 0.02 0.22 0 0.04 0.22 0 0.06 0.22 0 0.08 0.22 0 0.1 0.22 0 0.12 0.22 0 0.14 0.22 0 0.16 0.22 0 0.18 0.22 0 0.2 0.22 0 0.22 0.22 0 0.24 0.22 0 0.26 0.22 0 0.28 0.22 0 0.3 0.22 0 0.32 0.22 0 0.34 0.22 0 0.36 0.22 0 0.38 0.22 0 0.4 0.22 0 0.42 0.22 0 0.44 0.22 0 0.46 0.22 0 0.48 0.22 0 0.5 0.22 0 0.52 0.22 0 0.54 0.22 0 0.56 0.22 0 0.58 0.22 0 0.6 0.22 0 0.62 0.22 0 0.64 0.22 0 0.66 0.22 0 0.68 0.22 0 0.7 0.22 0 0.72 0.22 0 0.74 0.22 0 0.76 0.22 0 0.78 0.22 0 0.8 0.22 0 0.82 0.22 0 0.84 0.22 0 0.86 0.22 0 0.88 0.22 0 0.9 0.22 0 0.92 0.22 0 0.94 0.22 0 0.96 0.22 0 0.98 0.22 0 1 0.22 0 0 0.24 0 0.02 0.24 0 0.04 0.24 0 0.06 0.24 0 0.08 0.24 0 0.1 0.24 0 0.12 0.24 0 0.14 0.24 0 0.16 0.24 0 0.18 0.24 0 0.2 0.24 0 0.22 0.24 0 0.24 0.24 0 0.26 0.24 0 0.28 0.24 0 0.3 0.24 0 0.32 0.24 0 0.34 0.24 0 0.36 0.24 0 0.38 0.24 0 0.4 0.24 0 0.42 0.24 0 0.44 0.24 0 0.46 0.24 0 0.48 0.24 0 0.5 0.24 0 0.52 0.24 0 0.54 0.24 0 0.56 0.24 0 0.58 0.24 0 0.6 0.24 0 0.62 0.24 0 0.64 0.24 0 0.66 0.24 0 0.68 0.24 0 0.7 0.24 0 0.72 0.24 0 0.74 0.24 0 0.76 0.24 0 0.78 0.24 0 0.8 0.24 0 0.82 0.24 0 0.84 0.24 0 0.86 0.24 0 0.88 0.24 0 0.9 0.24 0 0.92 0.24 0 0.94 0.24 0 0.96 0.24 0 0.98 0.24 0 1 0.24 0 0 0.26 0 0.02 0.26 0 0.04 0.26 0 0.06 0.26 0 0.08 0.26 0 0.1 0.26 0 0.12 0.26 0 0.14 0.26 0 0.16 0.26 0 0.18 0.26 0 0.2 0.26 0 0.22 0.26 0 0.24 0.26 0 0.26 0.26 0 0.28 0.26 0 0.3 0.26 0 0.32 0.26 0 0.34 0.26 0 0.36 0.26 0 0.38 0.26 0 0.4 0.26 0 0.42 0.26 0 0.44 0.26 0 0.46 0.26 0 0.48 0.26 0 0.5 0.26 0 0.52 0.26 0 0.54 0.26 0 0.56 0.26 0 0.58 0.26 0 0.6 0.26 0 0.62 0.26 0 0.64 0.26 0 0.66 0.26 0 0.68 0.26 0 0.7 0.26 0 0.72 0.26 0 0.74 0.26 0 0.76 0.26 0 0.78 0.26 0 0.8 0.26 0 0.82 0.26 0 0.84 0.26 0 0.86 0.26 0 0.88 0.26 0 0.9 0.26 0 0.92 0.26 0 0.94 0.26 0 0.96 0.26 0 0.98 0.26 0 1 0.26 0 0 0.28 0 0.02 0.28 0 0.04 0.28 0 0.06 0.28 0 0.08 0.28 0 0.1 0.28 0 0.12 0.28 0 0.14 0.28 0 0.16 0.28 0 0.18 0.28 0 0.2 0.28 0 0.22 0.28 0 0.24 0.28 0 0.26 0.28 0 0.28 0.28 0 0.3 0.28 0 0.32 0.28 0 0.34 0.28 0 0.36 0.28 0 0.38 0.28 0 0.4 0.28 0 0.42 0.28 0 0.44 0.28 0 0.46 0.28 0 0.48 0.28 0 0.5 0.28 0 0.52 0.28 0 0.54 0.28 0 0.56 0.28 0 0.58 0.28 0 0.6 0.28 0 0.62 0.28 0 0.64 0.28 0 0.66 0.28 0 0.68 0.28 0 0.7 0.28 0 0.72 0.28 0 0.74 0.28 0 0.76 0.28 0 0.78 0.28 0 0.8 0.28 0 0.82 0.28 0 0.84 0.28 0 0.86 0.28 0 0.88 0.28 0 0.9 0.28 0 0.92 0.28 0 0.94 0.28 0 0.96 0.28 0 0.98 0.28 0 1 0.28 0 0 0.3 0 0.02 0.3 0 0.04 0.3 0 0.06 0.3 0 0.08 0.3 0 0.1 0.3 0 0.12 0.3 0 0.14 0.3 0 0.16 0.3 0 0.18 0.3 0 0.2 0.3 0 0.22 0.3 0 0.24 0.3 0 0.26 0.3 0 0.28 0.3 0 0.3 0.3 0 0.32 0.3 0 0.34 0.3 0 0.36 0.3 0 0.38 0.3 0 0.4 0.3 0 0.42 0.3 0 0.44 0.3 0 0.46 0.3 0 0.48 0.3 0 0.5 0.3 0 0.52 0.3 0 0.54 0.3 0 0.56 0.3 0 0.58 0.3 0 0.6 0.3 0 0.62 0.3 0 0.64 0.3 0 0.66 0.3 0 0.68 0.3 0 0.7 0.3 0 0.72 0.3 0 0.74 0.3 0 0.76 0.3 0 0.78 0.3 0 0.8 0.3 0 0.82 0.3 0 0.84 0.3 0 0.86 0.3 0 0.88 0.3 0 0.9 0.3 0 0.92 0.3 0 0.94 0.3 0 0.96 0.3 0 0.98 0.3 0 1 0.3 0 0 0.32 0 0.02 0.32 0 0.04 0.32 0 0.06 0.32 0 0.08 0.32 0 0.1 0.32 0 0.12 0.32 0 0.14 0.32 0 0.16 0.32 0 0.18 0.32 0 0.2 0.32 0 0.22 0.32 0 0.24 0.32 0 0.26 0.32 0 0.28 0.32 0 0.3 0.32 0 0.32 0.32 0 0.34 0.32 0 0.36 0.32 0 0.38 0.32 0 0.4 0.32 0 0.42 0.32 0 0.44 0.32 0 0.46 0.32 0 0.48 0.32 0 0.5 0.32 0 0.52 0.32 0 0.54 0.32 0 0.56 0.32 0 0.58 0.32 0 0.6 0.32 0 0.62 0.32 0 0.64 0.32 0 0.66 0.32 0 0.68 0.32 0 0.7 0.32 0 0.72 0.32 0 0.74 0.32 0 0.76 0.32 0 0.78 0.32 0 0.8 0.32 0 0.82 0.32 0 0.84 0.32 0 0.86 0.32 0 0.88 0.32 0 0.9 0.32 0 0.92 0.32 0 0.94 0.
[...]
			<PointData Scalars="VitesseX">
				<DataArray Name="VitesseX" type="Float32" format="ascii">
 0 0 0 0 0 0 0 0 0 0 0 0 0 0 0 0 0 0 0 0 0 0 0 0 0 0 0 0 0 0 0 0 0 0 0 0 0 0 0 0 0 0 0 0 0 0 0 0 0 0 -0 0 -0.000467025 -0.00148438 -0.00309055 -0.00526036 -0.00795975 -0.0111464 -0.0147705 -0.0187754 -0.0230986 -0.027673 -0.0324272 -0.0372918 -0.0421903 -0.0470439 -0.0517635 -0.0562757 -0.060541 -0.0644912 -0.068054 -0.0711359 -0.0737115 -0.0757592 -0.0771823 -0.0782454 -0.0797309 -0.0804877 -0.080176 -0.0789252 -0.0769864 -0.074451 -0.0713665 -0.0677371 -0.0636527 -0.0592271 -0.0544938 -0.0495299 -0.0444229 -0.0392562 -0.0341154 -0.029083 -0.0242413 -0.0196694 -0.015441 -0.0116136 -0.0082261 -0.00527841 -0.00301925 -0.00136241 -0.000346465 -4.2583e-27 0 -0.000899436 -0.00289758 -0.00606375 -0.0103496 -0.0156892 -0.0220004 -0.0291856 -0.0371335 -0.0457207 -0.0548141 -0.064264 -0.0739087 -0.0836521 -0.0933731 -0.102832 -0.111808 -0.120266 -0.128065 -0.135078 -0.141195 -0.14632 -0.150372 -0.153228 -0.155082 -0.156235 -0.156456 -0.155211 -0.152556 -0.148657 -0.143606 -0.137481 -0.130381 -0.122452 -0.113826 -0.104636 -0.0950271 -0.0851561 -0.0751832 -0.0652721 -0.0555783 -0.0462583 -0.0374626 -0.0293337 -0.0220009 -0.0155688 -0.0100445 -0.00570894 -0.00256515 -0.000648342 -7.49893e-27 0 -0.00128418 -0.00421336 -0.00887598 -0.015202 -0.0230956 -0.0324368 -0.0430831 -0.0548603 -0.0676058 -0.0812102 -0.09535 -0.109655 -0.124068 -0.138343 -0.152256 -0.165586 -0.178126 -0.189678 -0.20006 -0.209108 -0.216681 -0.22266 -0.226913 -0.229516 -0.230579 -0.230308 -0.228073 -0.223937 -0.218025 -0.210463 -0.201351 -0.190854 -0.179169 -0.166466 -0.152961 -0.138863 -0.124395 -0.109789 -0.0952852 -0.0811053 -0.0674759 -0.0546148 -0.042729 -0.0320089 -0.0226194 -0.0146729 -0.00830286 -0.00372733 -0.000939986 -1.06239e-26 0 -0.00163503 -0.00544567 -0.011532 -0.0197987 -0.0301207 -0.0423778 -0.0565014 -0.0721169 -0.0888115 -0.106451 -0.124785 -0.143547 -0.162442 -0.181152 -0.199384 -0.216852 -0.233277 -0.248402 -0.261986 -0.273815 -0.283704 -0.291498 -0.29705 -0.30033 -0.301445 -0.300682 -0.297455 -0.291829 -0.283936 -0.273931 -0.261953 -0.2482 -0.23291 -0.216325 -0.198719 -0.18036 -0.161533 -0.142541 -0.123691 -0.105269 -0.0875646 -0.0708594 -0.0554197 -0.0414931 -0.0293003 -0.0190223 -0.0107664 -0.00483072 -0.00121684 -1.35849e-26 0 -0.0019505 -0.00657782 -0.0140028 -0.0241633 -0.0369959 -0.0520908 -0.0691478 -0.0879947 -0.108351 -0.129901 -0.152308 -0.175241 -0.198336 -0.221202 -0.24348 -0.264817 -0.284873 -0.30333 -0.319896 -0.334307 -0.346339 -0.355805 -0.362538 -0.366431 -0.367604 -0.366383 -0.362181 -0.355116 -0.345336 -0.333016 -0.318332 -0.301515 -0.282851 -0.26264 -0.241211 -0.218884 -0.196005 -0.172938 -0.150055 -0.127698 -0.106215 -0.0859456 -0.0672096 -0.050307 -0.0355096 -0.0230451 -0.0130894 -0.00585846 -0.00147458 -1.63359e-26 0 -0.00223148 -0.00759163 -0.0162713 -0.0282578 -0.0431598 -0.0606207 -0.0804869 -0.102465 -0.126212 -0.151355 -0.177501 -0.20426 -0.231206 -0.257879 -0.28386 -0.308734 -0.332103 -0.353595 -0.37287 -0.389622 -0.40359 -0.414558 -0.422345 -0.426772 -0.427988 -0.426334 -0.421207 -0.412792 -0.401256 -0.386794 -0.369613 -0.349983 -0.32823 -0.304706 -0.279789 -0.253851 -0.227286 -0.200519 -0.173976 -0.14805 -0.123143 -0.0996417 -0.0779171 -0.0583149 -0.0411522 -0.0267003 -0.0151861 -0.00679157 -0.00170917 -1.88345e-26 0 -0.00248298 -0.00858619 -0.0184899 -0.0319048 -0.0485292 -0.0681861 -0.0905787 -0.115358 -0.142135 -0.17049 -0.199975 -0.230149 -0.260531 -0.290597 -0.319874 -0.347892 -0.374203 -0.398385 -0.420056 -0.438873 -0.454542 -0.466823 -0.475521 -0.480398 -0.481634 -0.479577 -0.473597 -0.46395 -0.450823 -0.434428 -0.415006 -0.392869 -0.368363 -0.341887 -0.313871 -0.284732 -0.254906 -0.224867 -0.195093 -0.166017 -0.138088 -0.111738 -0.0873776 -0.0653934 -0.0461414 -0.0299322 -0.0170233 -0.00761001 -0.00191695 -2.10418e-26 0 -0.00268871 -0.00941164 -0.0203009 -0.0349103 -0.0531337 -0.0747012 -0.0992766 -0.126475 -0.15587 -0.186997 -0.219364 -0.252485 -0.285828 -0.318818 -0.350931 -0.381653 -0.410488 -0.436976 -0.460694 -0.481269 -0.498381 -0.51177 -0.521226 -0.526462 -0.527693 -0.525259 -0.518504 -0.507755 -0.493221 -0.475134 -0.453777 -0.429496 -0.402653 -0.373631 -0.342932 -0.311063 -0.278448 -0.245614 -0.213083 -0.181325 -0.150824 -0.122049 -0.0954457 -0.0714334 -0.0504003 -0.0326916 -0.018591 -0.00831852 -0.00209467 -2.29235e-26 0 -0.00296636 -0.0101693 -0.0217186 -0.0373701 -0.0569191 -0.0800625 -0.106438 -0.135633 -0.167187 -0.200602 -0.235347 -0.2709 -0.306685 -0.342082 -0.376531 -0.409474 -0.44038 -0.468753 -0.494138 -0.516136 -0.534403 -0.548669 -0.558722 -0.564219 -0.565427 -0.562639 -0.555211 -0.543524 -0.52779 -0.508267 -0.485269 -0.459168 -0.430372 -0.39932 -0.366509 -0.332438 -0.297559 -0.26244 -0.227672 -0.19374 -0.161156 -0.130417 -0.101997 -0.0763413 -0.0538633 -0.034936 -0.0198666 -0.00890282 -0.00223838 -2.44503e-26 0 -0.00308279 -0.0106899 -0.0227907 -0.0392512 -0.0598206 -0.0841782 -0.111943 -0.142679 -0.175901 -0.211084 -0.247667 -0.285097 -0.322765 -0.360015 -0.396254 -0.430894 -0.463372 -0.493168 -0.519804 -0.542872 -0.562012 -0.576927 -0.587404 -0.593082 -0.594261 -0.591165 -0.583185 -0.57074 -0.554052 -0.533401 -0.509127 -0.481622 -0.451322 -0.418697 -0.384243 -0.348474 -0.311905 -0.275097 -0.238643 -0.203072 -0.168923 -0.136712 -0.10693 -0.0800407 -0.0564764 -0.0366308 -0.02083 -0.00933598 -0.00234806 -2.55984e-26 0 -0.00318864 -0.0110122 -0.0235076 -0.0405201 -0.0617873 -0.0869782 -0.115698 -0.147496 -0.18187 -0.218273 -0.256123 -0.294847 -0.333808 -0.372326 -0.409785 -0.445573 -0.479111 -0.509858 -0.537326 -0.561087 -0.580787 -0.596122 -0.606857 -0.612612 -0.613735 -0.610366 -0.601955 -0.588944 -0.571565 -0.550115 -0.52495 -0.496481 -0.465152 -0.431445 -0.395874 -0.358984 -0.321298 -0.283392 -0.245836 -0.209177 -0.174006 -0.140835 -0.110166 -0.0824731 -0.0581983 -0.0377494 -0.0214666 -0.00962161 -0.00242089 -2.63497e-26 0 -0.00324046 -0.0111604 -0.0238568 -0.0411537 -0.0627852 -0.0884154 -0.117643 -0.150009 -0.184999 -0.222056 -0.260586 -0.300001 -0.339647 -0.378834 -0.416933 -0.453324 -0.487381 -0.518575 -0.546442 -0.570539 -0.590491 -0.605991 -0.616794 -0.622501 -0.623521 -0.619841 -0.611061 -0.597627 -0.579774 -0.557809 -0.532109 -0.503097 -0.471221 -0.436961 -0.400842 -0.363417 -0.32522 -0.286836 -0.248824 -0.211705 -0.176075 -0.14252 -0.111497 -0.0834809 -0.0589178 -0.0382193 -0.0217343 -0.00974166 -0.00245269 -2.66925e-26 0 -0.00323296 -0.0111276 -0.0238121 -0.0410999 -0.0627259 -0.0883545 -0.117585 -0.149958 -0.184961 -0.222035 -0.260584 -0.300022 -0.339693 -0.378908 -0.417042 -0.453421 -0.487487 -0.51872 -0.54662 -0.570733 -0.590668 -0.606126 -0.61688 -0.622534 -0.623529 -0.619783 -0.61093 -0.597416 -0.579472 -0.557412 -0.531639 -0.502569 -0.470642 -0.436365 -0.400246 -0.36282 -0.324641 -0.286309 -0.248384 -0.211359 -0.175777 -0.142236 -0.111283 -0.0833291 -0.0588169 -0.0381569 -0.0216997 -0.0097263 -0.00244972 -2.66211e-26 0 -0.00316854 -0.0109295 -0.0234189 -0.0404551 -0.0617802 -0.0870657 -0.115917 -0.14788 -0.182448 -0.219065 -0.257142 -0.296095 -0.335273 -0.373999 -0.41158 -0.447443 -0.481042 -0.511816 -0.539241 -0.562871 -0.582343 -0.597361 -0.607697 -0.612937 -0.613705 -0.609818 -0.600928 -0.587462 -0.569644 -0.547794 -0.522323 -0.493628 -0.462161 -0.428437 -0.39293 -0.356154 -0.318631 -0.280972 -0.243752 -0.207467 -0.172581 -0.139643 -0.109244 -0.0818179 -0.057762 -0.0374806 -0.0213188 -0.0095569 -0.00240526 -2.61366e-26 0 -0.00305302 -0.0105583 -0.0226521 -0.0391631 -0.059845 -0.084381 -0.112389 -0.143427 -0.177001 -0.212571 -0.24956 -0.287399 -0.325447 -0.363001 -0.399458 -0.434274 -0.466868 -0.496656 -0.523144 -0.545929 -0.564665 -0.579048 -0.588844 -0.593665 -0.594236 -0.590223 -0.581434 -0.568224 -0.550813 -0.529519 -0.504753 -0.476893 -0.446372 -0.413674 -0.379304 -0.343791 -0.307562 -0.27118 -0.235228 -0.200223 -0.16662 -0.134853 -0.105466 -0.0790078 -0.0557914 -0.0362121 -0.0206024 -0.00923758 -0.00232493 -2.52467e-26 0 -0.00288979 -0.010022 -0.0215307 -0.0372593 -0.0569773 -0.0803852 -0.107119 -0.136757 -0.168824 -0.202803 -0.23814 -0.27429 -0.310622 -0.346432 -0.381241 -0.414476 -0.445513 -0.473819 -0.49896 -0.52056 -0.538258 -0.55175 -0.560821 -0.565121 -0.565461 -0.561316 -0.55276 -0.540007 -0.523276 -0.502869 -0.479196 -0.452608 -0.423517 -0.392384 -0.359684 -0.325913 -0.291552 -0.257075 -0.222976 -0.189778 -0.157969 -0.1279 -0.100048 -0.0749418 -0.0529348 -0.0343703 -0.0195611 -0.00877316 -0.00220848 -2.39656e-26 0 -0.00268099 -0.00932696 -0.0200724 -0.0347752 -0.0532253 -0.0751456 -0.100197 -0.127981 -0.158054 -0.189924 -0.22307 -0.256968 -0.290992 -0.324576 -0.357212 -0.388316 -0.417289 -0.443675 -0.46711 -0.487186 -0.503528 -0.515892 -0.524078 -0.527771 -0.527851 -0.523554 -0.515357 -0.503253 -0.487461 -0.46826 -0.44605 -0.421154 -0.393949 -0.36487 -0.334361 -0.302883 -0.270881 -0.238844 -0.207179 -0.176322 -0.146765 -0.118889 -0.0930442 -0.0696815 -0.0492364 -0.0319834 -0.0182109 -0.00817074 -0.00205739 -2.23108e-26 0 -0.00243541 -0.00848593 -0.0182917 -0.0317402 -0.0486411 -0.0687408 -0.0917256 -0.117233 -0.14485 -0.174125 -0.204574 -0.235715 -0.266922 -0.297773 -0.327726 -0.356184 -0.382647 -0.406747 -0.428105 -0.446286 -0.460985 -0.472017 -0.479175 -0.482199 -0.482005 -0.477533 -0.469812 -0.458536 -0.443929 -0.426233 -0.405831 -0.383019 -0.358127 -0.331558 -0.30372 -0.275035 -0.2459 -0.216777 -0.188046 -0.160049 -0.133219 -0.107955 -0.0845219 -0.0633113 -0.0447542 -0.0290882 -0.0165723 -0.00743955 -0.00187401 -2.02997e-26 0 -0.00215312 -0.00752532 -0.0162493 -0.02823 -0.043307 -0.0612655 -0.0818337 -0.104679 -0.129428 -0.155667 -0.182958 -0.210871 -0.238831 -0.26645 -0.293222 -0.318584 -0.34214 -0.363587 -0.38249 -0.398439 -0.411261 -0.420766 -0.426764 -0.429119 -0.428597 -0.423986 -0.416832 -0.40653 -0.39332 -0.377413 -0.359147 -0.338789 -0.316604 -0.292964 -0.268235 -0.242795 -0.216996 -0.191247 -0.165884 -0.141215 -0.117551 -0.0952768 -0.0746375 -0.0559451 -0.0395587 -0.0257299 -0.0146707 -0.00659084 -0.00166117 -1.79536e-26 0 -0.00183727 -0.00645158 -0.0139675 -0.0243083 -0.0373477 -0.052903 -0.0707378 -0.0905659 -0.112059 -0.13486 -0.158578 -0.182821 -0.207114 -0.231069 -0.254229 -0.276113 -0.296407 -0.314812 -0.33091 -0.344389 -0.355108 -0.362911 -0.36763 -0.369301 -0.368388 -0.363711 -0.357008 -0.347484 -0.335627 -0.321875 -0.30634 -0.289011 -0.269993 -0.249676 -0.228449 -0.206658 -0.184605 -0.162648 -0.141074 -0.120105 -0.0999952 -0.081074 -0.063557 -0.0476797 -0.0337321 -0.021961 -0.0125356 -0.00563775 -0.00142218 -1.53264e-26 0 -0.00149778 -0.00527853 -0.0114707 -0.0200267 -0.0308486 -0.0437821 -0.0586281 -0.0751514 -0.0930758 -0.112094 -0.131871 -0.152061 -0.172281 -0.192181 -0.211358 -0.229421 -0.246118 -0.261164 -0.274197 -0.284997 -0.293434 -0.299381 -0.302717 -0.303609 -0.302228 -0.297343 -0.290056 -0.280301 -0.269389 -0.257549 -0.245241 -0.232714 -0.218564 -0.202298 -0.184962 -0.167165 -0.149219 -0.131405 -0.113949 -0.0970347 -0.080824 -0.0655615 -0.0514417 -0.0386358 -0.0273625 -0.0178404 -0.0102004 -0.00459509 -0.00116076 -1.24803e-26 0 -0.00114025 -0.00403893 -0.00881595 -0.0154555 -0.0238919 -0.0340103 -0.0456594 -0.058648 -0.0727508 -0.0877086 -0.103249 -0.119085 -0.134896 -0.150405 -0.165286 -0.179219 -0.191997 -0.203386 -0.213111 -0.221022 -0.227026 -0.23105 -0.233009 -0.23309 -0.231063 -0.225468 -0.218146 -0.21029 -0.201578 -0.191749 -0.181093 -0.170322 -0.16043 -0.150821 -0.13837 -0.124903 -0.11136 -0.0979906 -0.0849532 -0.0723705 -0.0603233 -0.0489725 -0.0384851 -0.0289632 -0.020549 -0.0134322 -0.00770161 -0.0034791 -0.000880964 -9.44767e-27 0 -0.000769768 -0.00275552 -0.00605703 -0.0106869 -0.0166112 -0.0237636 -0.0320373 -0.0412897 -0.0513507 -0.0620239 -0.073101 -0.0843534 -0.0955145 -0.106387 -0.116734 -0.12631 -0.134936 -0.142448 -0.148672 -0.153527 -0.156958 -0.158948 -0.159567 -0.158759 -0.156153 -0.149972 -0.144451 -0.13856 -0.132007 -0.124742 -0.117001 -0.108839 -0.100684 -0.0941225 -0.0888308 -0.0804405 -0.0715594 -0.062879 -0.0544955 -0.0464631 -0.0388136 -0.0315844 -0.0249039 -0.018819 -0.0134025 -0.00880482 -0.00507842 -0.00230721 -0.000587169 -6.26867e-27 0 -0.000393917 -0.00145353 -0.00325544 -0.00582557 -0.00916033 -0.0132443 -0.0180143 -0.0233831 -0.0292463 -0.0354717 -0.0419124 -0.0484062 -0.0547468 -0.0608148 -0.0664696 -0.0715356 -0.0758884 -0.0794415 -0.0820865 -0.083818 -0.0846058 -0.0845163 -0.083597 -0.0818919 -0.0782066 -0.0727049 -0.0687879 -0.0645524 -0.0601117 -0.0555021 -0.050898 -0.0463325 -0.041831 -0.0376714 -0.0358927 -0.0342107 -0.030326 -0.0265473 -0.0230156 -0.0197107 -0.016606 -0.0136499 -0.0108955 -0.00835378 -0.00603445 -0.004032 -0.00237166 -0.00109784 -0.000284048 -2.99934e-27 0 -3.87117e-05 -0.000181537 -0.000478508 -0.000971923 -0.00169228 -0.00265787 -0.00385377 -0.0052565 -0.00682874 -0.00849807 -0.0101871 -0.0118222 -0.0132578 -0.0144305 -0.0152975 -0.0157778 -0.0157743 -0.0152974 -0.0143348 -0.0128998 -0.0110314 -0.0087969 -0.00628491 -0.00353976 0.000474007 0.00497252 0.00802544 0.0106381 0.0129019 0.0147946 0.0162702 0.0172442 0.017709 0.0177201 0.0168487 0.0133244 0.0117349 0.0104554 0.00901331 0.00748796 0.00596955 0.00457364 0.00333883 0.00227797 0.00144752 0.000816186 0.000376968 0.000129563 2.31379e-05 2.11637e-28 0 0.000266839 0.0010328 0.00224399 0.00383489 0.00574194 0.00790915 0.0102937 0.0128671 0.0156102 0.0185264 0.0216158 0.0248733 0.0283572 0.0320911 0.0360316 0.0401455 0.0444892 0.0490264 0.0536171 0.0581716 0.0626822 0.067037 0.0711272 0.0748197 0.0784456 0.0820607 0.0844193 0.0855334 0.0856343 0.0849014 0.0832552 0.0806422 0.0771323 0.0728116 0.067737 0.06076 0.0536833 0.0473453 0.0409428 0.034598 0.0284755 0.0227372 0.0175228 0.0128766 0.00891376 0.00566235 0.0031328 0.00136635 0.00034182 3.48548e-27 0 0.000568161 0.00223759 0.00494107 0.00859047 0.01309 0.0183433 0.0242579 0.0307494 0.0377397 0.0451585 0.0529399 0.0610169 0.0693445 0.0779009 0.0865716 0.0952202 0.103783 0.11227 0.120492 0.128149 0.135174 0.141562 0.147118 0.151663 0.155265 0.158079 0.159405 0.159028 0.157171 0.15385 0.149161 0.143087 0.135722 0.127215 0.117735 0.106809 0.0947053 0.083448 0.0722187 0.0611748 0.0505508 0.0405693 0.0314502 0.0232923 0.0162604 0.0104364 0.0058581 0.0025975 0.000663975 6.75007e-27 0 0.000860651 0.00341139 0.00756081 0.0132085 0.0202254 0.0284759 0.0378187 0.0481148 0.0592246 0.0710121 0.083344 0.0960847 0.109103 0.122322 0.135579 0.148629 0.161287 0.173496 0.185145 0.195893 0.20548 0.213769 0.220626 0.225989 0.229845 0.231943 0.232114 0.230439 0.226604 0.220806 0.213128 0.203655 0.192544 0.179992 0.166244 0.151121 0.13426 0.118255 0.10238 0.0868114 0.0718526 0.0577884 0.044903 0.0333632 0.02337 0.0150575 0.00850269 0.00379739 0.000979208 9.92424e-27 0 0.00114106 0.0045474 0.0100588 0.0176125 0.0270319 0.0381437 0.0507608 0.0646906 0.0797354 0.0956945 0.112368 0.129551 0.147039 0.164678 0.182287 0.199534 0.21613 0.231873 0.246643 0.260222 0.272267 0.282467 0.290664 0.29677 0.300764 0.302313 0.301599 0.298473 0.29272 0.284519 0.273977 0.261243 0.246538 0.230127 0.212326 0.193109 0.171702 0.151216 0.130947 0.111102 0.0920447 0.074121 0.0576683 0.0429243 0.0301236 0.0194498 0.0110222 0.00494303 0.00128143 1.29494e-26 0 0.0014043 0.00559028 0.012396 0.0217345 0.0334043 0.047197 0.0628832 0.0802195 0.0989528 0.118822 0.139562 0.160904 0.182575 0.204341 0.225954 0.24711 0.267416 0.286516 0.3042 0.320284 0.334485 0.346463 0.355959 0.362796 0.366925 0.368002 0.366489 0.36189 0.354234 0.343705 0.330471 0.314745 0.29677 0.276825 0.255285 0.232183 0.206445 0.181819 0.157476 0.133667 0.110811 0.0893082 0.0695456 0.0518243 0.0364176 0.0235492 0.0133723 0.00601552 0.00156533 1.57738e-26 0 0.00164563 0.00654049 0.0145342 0.0255103 0.039243 0.0554944 0.0739963 0.094459 0.116577 0.140034 0.164505 0.189659 0.215163 0.240719 0.265952 0.290604 0.314289 0.336517 0.356928 0.375298 0.391384 0.404884 0.41551 0.423031 0.427309 0.427947 0.425735 0.419788 0.410478 0.397935 0.382314 0.363859 0.342876 0.319688 0.294723 0.267867 0.23795 0.209598 0.18156 0.154158 0.12786 0.103114 0.0803523 0.0599267 0.0421554 0.0272939 0.0155191 0.0069934 0.00182622 1.83506e-26 0 0.00186096 0.00739636 0.0164407 0.0288813 0.0444572 0.0629066 0.0839269 0.107187 0.132334 0.159001 0.186809 0.21537 0.2443 0.273236 0.301746 0.329439 0.356027 0.381022 0.403911 0.424365 0.442131 0.456938 0.468501 0.476585 0.480919 0.481299 0.47845 0.471385 0.460642 0.446339 0.428621 0.407726 0.384011 0.357882 0.32985 0.299365 0.265708 0.234139 0.202845 0.172264 0.142929 0.115318 0.0899176 0.0671058 0.0472438 0.0306204 0.0174328 0.00786287 0.00205648 2.06391e-26 0 0.00204692 0.00813903 0.0181207 0.0317959 0.048966 0.0693184 0.0925204 0.118205 0.145979 0.175428 0.206127 0.237638 0.269532 0.301389 0.332722 0.363101 0.392106 0.419365 0.444382 0.466641 0.485842 0.50175 0.514084 0.522617 0.526945 0.527148 0.523743 0.515692 0.503615 0.487645 0.468009 0.445001 0.418979 0.390374 0.35973 0.325757 0.289303 0.255015 0.220974 0.187712 0.155791 0.12573 0.0980904 0.0732487 0.0516038 0.0334766 0.0190775 0.00861463 0.00225383 2.26041e-26 0 0.00220068 0.00874981 0.0195066 0.0342085 0.0526997 0.0746305 0.0996434 0.127342 0.157298 0.189059 0.222159 0.256118 0.290469 0.324741 0.358406 0.390992 0.422023 0.451111 0.477783 0.501461 0.521819 0.538626 0.551577 0.560437 0.564741 0.564741 0.560775 0.551864 0.538683 0.521378 0.500194 0.475449 0.447527 0.4169 0.38401 0.346446 0.308435 0.271931 0.23567 0.20025 0.166245 0.134195 0.104747 0.078261 0.0551669 0.0358179 0.0204246 0.0092319 0.00241909 2.42149e-26 0 0.00231989 0.00922419 0.0205769 0.0360912 0.0556013 0.0787612 0.105186 0.134456 0.166116 0.199683 0.234656 0.270522 0.306785 0.342932 0.378399 0.412681 0.445279 0.475753 0.503651 0.528378 0.549582 0.567034 0.58041 0.589454 0.593691 0.593485 0.589026 0.579438 0.565388 0.547037 0.52465 0.498562 0.46918 0.437033 0.402082 0.361429 0.322824 0.284664 0.246738 0.209693 0.174137 0.140592 0.109786 0.0820651 0.0578769 0.0376066 0.0214523 0.0097031 0.00254619 2.54451e-26 0 0.00240272 0.00955465 0.0213366 0.0374606 0.0576272 0.0816472 0.109063 0.139439 0.172298 0.207135 0.243426 0.28063 0.31823 0.355681 0.392392 0.427836 0.461492 0.492891 0.521589 0.546982 0.568685 0.586483 0.60006 0.609149 0.613271 0.612898 0.608052 0.597964 0.583287 0.564196 0.540968 0.513953 0.483582 0.4504 0.41287 0.371298 0.332263 0.29302 0.254012 0.215913 0.179348 0.144832 0.113133 0.0846015 0.0596916 0.0388148 0.0221436 0.0100209 0.00263235 2.62753e-26 0 0.00244784 0.00973568 0.0217389 0.038187 0.0587452 0.0832449 0.111216 0.142213 0.175748 0.211302 0.248333 0.286285 0.324627 0.36279 0.400169 0.436222 0.470412 0.50226 0.531321 0.556984 0.578852 0.596717 0.610278 0.619259 0.623216 0.62267 0.617489 0.607061 0.591984 0.572449 0.548741 0.521222 0.490368 0.456219 0.415275 0.375444 0.336178 0.296519 0.257094 0.218587 0.181623 0.146737 0.114654 0.0857719 0.0605468 0.0394004 0.0224774 0.0101777 0.00267622 2.66925e-26 0 0.0024542 0.00976178 0.0217925 0.0382921 0.058934 0.0835028 0.11157 0.142679 0.176337 0.212022 0.249184 0.287261 0.325717 0.363973 0.401418 0.437503 0.47169 0.503498 0.532482 0.55803 0.579748 0.597438 0.610801 0.619559 0.623375 0.622746 0.617479 0.607066 0.591982 0.57244 0.548725 0.521218 0.490335 0.453609 0.413194 0.374843 0.33571 0.29614 0.2568 0.218373 0.181454 0.146674 0.114621 0.0857554 0.0605518 0.0394112 0.0224792 0.0101823 0.00267931 2.669e-26 0 0.00242886 0.00966242 0.0215643 0.0379295 0.0584265 0.0826926 0.110498 0.14132 0.174673 0.210032 0.246848 0.284559 0.322627 0.360465 0.397465 0.433076 0.466759 0.498037 0.526464 0.551431 0.572557 0.589645 0.602403 0.61056 0.613784 0.61293 0.60754 0.59718 0.582221 0.56289 0.539481 0.512369 0.480403 0.442079 0.40561 0.368207 0.329782 0.29093 0.252306 0.214578 0.178281 0.144175 0.112694 0.0843229 0.059553 0.0387464 0.0221121 0.0100215 0.00263934 2.62678e-26 0 0.00235921 0.00938634 0.0209487 0.0368387 0.0567439 0.080378 0.107402 0.137371