<?xml version="1.0"?>
<VTKFile type="PolyData">
	<PolyData>
		<Piece NumberOfPoints="2601" NumberOfPolys="2500">
			<Points>
				<DataArray type="Float32" NumberOfComponents="3" format="ascii">
 0 0 0 0.02 0 0 0.04 0 0 0.06 0 0 0.08 0 0 0.1 0 0 0.12 0 0 0.14 0 0 0.16 0 0 0.18 0 0 0.2 0 0 0.22 0 0 0.24 0 0 0.26 0 0 0.28 0 0 0.3 0 0 0.32 0 0 0.34 0 0 0.36 0 0 0.38 0 0 0.4 0 0 0.42 0 0 0.44 0 0 0.46 0 0 0.48 0 0 0.5 0 0 0.52 0 0 0.54 0 0 0.56 0 0 0.58 0 0 0.6 0 0 0.62 0 0 0.64 0 0 0.66 0 0 0.68 0 0 0.7 0 0 0.72 0 0 0.74 0 0 0.76 0 0 0.78 0 0 0.8 0 0 0.82 0 0 0.84 0 0 0.86 0 0 0.88 0 0 0.9 0 0 0.92 0 0 0.94 0 0 0.96 0 0 0.98 0 0 1 0 0 0 0.02 0 0.02 0.02 0 0.04 0.02 0 0.06 0.02 0 0.08 0.02 0 0.1 0.02 0 0.12 0.02 0 0.14 0.02 0 0.16 0.02 0 0.18 0.02 0 0.2 0.02 0 0.22 0.02 0 0.24 0.02 0 0.26 0.02 0 0.28 0.02 0 0.3 0.02 0 0.32 0.02 0 0.34 0.02 0 0.36 0.02 0 0.38 0.02 0 0.4 0.02 0 0.42 0.02 0 0.44 0.02 0 0.46 0.02 0 0.48 0.02 0 0.5 0.02 0 0.52 0.02 0 0.54 0.02 0 0.56 0.02 0 0.58 0.02 0 0.6 0.02 0 0.62 0.02 0 0.64 0.02 0 0.66 0.02 0 0.68 0.02 0 0.7 0.02 0 0.72 0.02 0 0.74 0.02 0 0.76 0.02 0 0.78 0.02 0 0.8 0.02 0 0.82 0.02 0 0.84 0.02 0 0.86 0.02 0 0.88 0.02 0 0.9 0.02 0 0.92 0.02 0 0.94 0.02 0 0.96 0.02 0 0.98 0.02 0 1 0.02 0 0 0.04 0 0.02 0.04 0 0.04 0.04 0 0.06 0.04 0 0.08 0.04 0 0.1 0.04 0 0.12 0.04 0 0.14 0.04 0 0.16 0.04 0 0.18 0.04 0 0.2 0.04 0 0.22 0.04 0 0.24 0.04 0 0.26 0.04 0 0.28 0.04 0 0.3 0.04 0 0.32 0.04 0 0.34 0.04 0 0.36 0.04 0 0.38 0.04 0 0.4 0.04 0 0.42 0.04 0 0.44 0.04 0 0.46 0.04 0 0.48 0.04 0 0.5 0.04 0 0.52 0.04 0 0.54 0.04 0 0.56 0.04 0 0.58 0.04 0 0.6 0.04 0 0.62 0.04 0 0.64 0.04 0 0.66 0.04 0 0.68 0.04 0 0.7 0.04 0 0.72 0.04 0 0.74 0.04 0 0.76 0.04 0 0.78 0.04 0 0.8 0.04 0 0.82 0.04 0 0.84 0.04 0 0.86 0.04 0 0.88 0.04 0 0.9 0.04 0 0.92 0.04 0 0.94 0.04 0 0.96 0.04 0 0.98 0.04 0 1 0.04 0 0 0.06 0 0.02 0.06 0 0.04 0.06 0 0.06 0.06 0 0.08 0.06 0 0.1 0.06 0 0.12 0.06 0 0.14 0.06 0 0.16 0.06 0 0.18 0.06 0 0.2 0.06 0 0.22 0.06 0 0.24 0.06 0 0.26 0.06 0 0.28 0.06 0 0.3 0.06 0 0.32 0.06 0 0.34 0.06 0 0.36 0.06 0 0.38 0.06 0 0.4 0.06 0 0.42 0.06 0 0.44 0.06 0 0.46 0.06 0 0.48 0.06 0 0.5 0.06 0 0.52 0.06 0 0.54 0.06 0 0.56 0.06 0 0.58 0.06 0 0.6 0.06 0 0.62 0.06 0 0.64 0.06 0 0.66 0.06 0 0.68 0.06 0 0.7 0.06 0 0.72 0.06 0 0.74 0.06 0 0.76 0.06 0 0.78 0.06 0 0.8 0.06 0 0.82 0.06 0 0.84 0.06 0 0.86 0.06 0 0.88 0.06 0 0.9 0.06 0 0.92 0.06 0 0.94 0.06 0 0.96 0.06 0 0.98 0.06 0 1 0.06 0 0 0.08 0 0.02 0.08 0 0.04 0.08 0 0.06 0.08 0 0.08 0.08 0 0.1 0.08 0 0.12 0.08 0 0.14 0.08 0 0.16 0.08 0 0.18 0.08 0 0.2 0.08 0 0.22 0.08 0 0.24 0.08 0 0.26 0.08 0 0.28 0.08 0 0.3 0.08 0 0.32 0.08 0 0.34 0.08 0 0.36 0.08 0 0.38 0.08 0 0.4 0.08 0 0.42 0.08 0 0.44 0.08 0 0.46 0.08 0 0.48 0.08 0 0.5 0.08 0 0.52 0.08 0 0.54 0.08 0 0.56 0.08 0 0.58 0.08 0 0.6 0.08 0 0.62 0.08 0 0.64 0.08 0 0.66 0.08 0 0.68 0.08 0 0.7 0.08 0 0.72 0.08 0 0.74 0.08 0 0.76 0.08 0 0.78 0.08 0 0.8 0.08 0 0.82 0.08 0 0.84 0.08 0 0.86 0.08 0 0.88 0.08 0 0.9 0.08 0 0.92 0.08 0 0.94 0.08 0 0.96 0.08 0 0.98 0.08 0 1 0.08 0 0 0.1 0 0.02 0.1 0 0.04 0.1 0 0.06 0.1 0 0.08 0.1 0 0.1 0.1 0 0.12 0.1 0 0.14 0.1 0 0.16 0.1 0 0.18 0.1 0 0.2 0.1 0 0.22 0.1 0 0.24 0.1 0 0.26 0.1 0 0.28 0.1 0 0.3 0.1 0 0.32 0.1 0 0.34 0.1 0 0.36 0.1 0 0.38 0.1 0 0.4 0.1 0 0.42 0.1 0 0.44 0.1 0 0.46 0.1 0 0.48 0.1 0 0.5 0.1 0 0.52 0.1 0 0.54 0.1 0 0.56 0.1 0 0.58 0.1 0 0.6 0.1 0 0.62 0.1 0 0.64 0.1 0 0.66 0.1 0 0.68 0.1 0 0.7 0.1 0 0.72 0.1 0 0.74 0.1 0 0.76 0.1 0 0.78 0.1 0 0.8 0.1 0 0.82 0.1 0 0.84 0.1 0 0.86 0.1 0 0.88 0.1 0 0.9 0.1 0 0.92 0.1 0 0.94 0.1 0 0.96 0.1 0 0.98 0.1 0 1 0.1 0 0 0.12 0 0.02 0.12 0 0.04 0.12 0 0.06 0.12 0 0.08 0.12 0 0.1 0.12 0 0.12 0.12 0 0.14 0.12 0 0.16 0.12 0 0.18 0.12 0 0.2 0.12 0 0.22 0.12 0 0.24 0.12 0 0.26 0.12 0 0.28 0.12 0 0.3 0.12 0 0.32 0.12 0 0.34 0.12 0 0.36 0.12 0 0.38 0.12 0 0.4 0.12 0 0.42 0.12 0 0.44 0.12 0 0.46 0.12 0 0.48 0.12 0 0.5 0.12 0 0.52 0.12 0 0.54 0.12 0 0.56 0.12 0 0.58 0.12 0 0.6 0.12 0 0.62 0.12 0 0.64 0.12 0 0.66 0.12 0 0.68 0.12 0 0.7 0.12 0 0.72 0.12 0 0.74 0.12 0 0.76 0.12 0 0.78 0.12 0 0.8 0.12 0 0.82 0.12 0 0.84 0.12 0 0.86 0.12 0 0.88 0.12 0 0.9 0.12 0 0.92 0.12 0 0.94 0.12 0 0.96 0.12 0 0.98 0.12 0 1 0.12 0 0 0.14 0 0.02 0.14 0 0.04 0.14 0 0.06 0.14 0 0.08 0.14 0 0.1 0.14 0 0.12 0.14 0 0.14 0.14 0 0.16 0.14 0 0.18 0.14 0 0.2 0.14 0 0.22 0.14 0 0.24 0.14 0 0.26 0.14 0 0.28 0.14 0 0.3 0.14 0 0.32 0.14 0 0.34 0.14 0 0.36 0.14 0 0.38 0.14 0 0.4 0.14 0 0.42 0.14 0 0.44 0.14 0 0.46 0.14 0 0.48 0.14 0 0.5 0.14 0 0.52 0.14 0 0.54 0.14 0 0.56 0.14 0 0.58 0.14 0 0.6 0.14 0 0.62 0.14 0 0.64 0.14 0 0.66 0.14 0 0.68 0.14 0 0.7 0.14 0 0.72 0.14 0 0.74 0.14 0 0.76 0.14 0 0.78 0.14 0 0.8 0.14 0 0.82 0.14 0 0.84 0.14 0 0.86 0.14 0 0.88 0.14 0 0.9 0.14 0 0.92 0.14 0 0.94 0.14 0 0.96 0.14 0 0.98 0.14 0 1 0.14 0 0 0.16 0 0.02 0.16 0 0.04 0.16 0 0.06 0.16 0 0.08 0.16 0 0.1 0.16 0 0.12 0.16 0 0.14 0.16 0 0.16 0.16 0 0.18 0.16 0 0.2 0.16 0 0.22 0.16 0 0.24 0.16 0 0.26 0.16 0 0.28 0.16 0 0.3 0.16 0 0.32 0.16 0 0.34 0.16 0 0.36 0.16 0 0.38 0.16 0 0.4 0.16 0 0.42 0.16 0 0.44 0.16 0 0.46 0.16 0 0.48 0.16 0 0.5 0.16 0 0.52 0.16 0 0.54 0.16 0 0.56 0.16 0 0.58 0.16 0 0.6 0.16 0 0.62 0.16 0 0.64 0.16 0 0.66 0.16 0 0.68 0.16 0 0.7 0.16 0 0.72 0.16 0 0.74 0.16 0 0.76 0.16 0 0.78 0.16 0 0.8 0.16 0 0.82 0.16 0 0.84 0.16 0 0.86 0.16 0 0.88 0.16 0 0.9 0.16 0 0.92 0.16 0 0.94 0.16 0 0.96 0.16 0 0.98 0.16 0 1 0.16 0 0 0.18 0 0.02 0.18 0 0.04 0.18 0 0.06 0.18 0 0.08 0.18 0 0.1 0.18 0 0.12 0.18 0 0.14 0.18 0 0.16 0.18 0 0.18 0.18 0 0.2 0.18 0 0.22 0.18 0 0.24 0.18 0 0.26 0.18 0 0.28 0.18 0 0.3 0.18 0 0.32 0.18 0 0.34 0.18 0 0.36 0.18 0 0.38 0.18 0 0.4 0.18 0 0.42 0.18 0 0.44 0.18 0 0.46 0.18 0 0.48 0.18 0 0.5 0.18 0 0.52 0.18 0 0.54 0.18 0 0.56 0.18 0 0.58 0.18 0 0.6 0.18 0 0.62 0.18 0 0.64 0.18 0 0.66 0.18 0 0.68 0.18 0 0.7 0.18 0 0.72 0.18 0 0.74 0.18 0 0.76 0.18 0 0.78 0.18 0 0.8 0.18 0 0.82 0.18 0 0.84 0.18 0 0.86 0.18 0 0.88 0.18 0 0.9 0.18 0 0.92 0.18 0 0.94 0.18 0 0.96 0.18 0 0.98 0.18 0 1 0.18 0 0 0.2 0 0.02 0.2 0 0.04 0.2 0 0.06 0.2 0 0.08 0.2 0 0.1 0.2 0 0.12 0.2 0 0.14 0.2 0 0.16 0.2 0 0.18 0.2 0 0.2 0.2 0 0.22 0.2 0 0.24 0.2 0 0.26 0.2 0 0.28 0.2 0 0.3 0.2 0 0.32 0.2 0 0.34 0.2 0 0.36 0.2 0 0.38 0.2 0 0.4 0.2 0 0.42 0.2 0 0.44 0.2 0 0.46 0.2 0 0.48 0.2 0 0.5 0.2 0 0.52 0.2 0 0.54 0.2 0 0.56 0.2 0 0.58 0.2 0 0.6 0.2 0 0.62 0.2 0 0.64 0.2 0 0.66 0.2 0 0.68 0.2 0 0.7 0.2 0 0.72 0.2 0 0.74 0.2 0 0.76 0.2 0 0.78 0.2 0 0.8 0.2 0 0.82 0.2 0 0.84 0.2 0 0.86 0.2 0 0.88 0.2 0 0.9 0.2 0 0.92 0.2 0 0.94 0.2 0 0.96 0.2 0 0.98 0.2 0 1 0.2 0 0 0.22 0 0.02 0.22 0 0.04 0.22 0 0.06 0.22 0 0.08 0.22 0 0.1 0.22 0 0.12 0.22 0 0.14 0.22 0 0.16 0.22 0 0.18 0.22 0 0.2 0.22 0 0.22 0.22 0 0.24 0.22 0 0.26 0.22 0 0.28 0.22 0 0.3 0.22 0 0.32 0.22 0 0.34 0.22 0 0.36 0.22 0 0.38 0.22 0 0.4 0.22 0 0.42 0.22 0 0.44 0.22 0 0.46 0.22 0 0.48 0.22 0 0.5 0.22 0 0.52 0.22 0 0.54 0.22 0 0.56 0.22 0 0.58 0.22 0 0.6 0.22 0 0.62 0.22 0 0.64 0.22 0 0.66 0.22 0 0.68 0.22 0 0.7 0.22 0 0.72 0.22 0 0.74 0.22 0 0.76 0.22 0 0.78 0.22 0 0.8 0.22 0 0.82 0.22 0 0.84 0.22 0 0.86 0.22 0 0.88 0.22 0 0.9 0.22 0 0.92 0.22 0 0.94 0.22 0 0.96 0.22 0 0.98 0.22 0 1 0.22 0 0 0.24 0 0.02 0.24 0 0.04 0.24 0 0.06 0.24 0 0.08 0.24 0 0.1 0.24 0 0.12 0.24 0 0.14 0.24 0 0.16 0.24 0 0.18 0.24 0 0.2 0.24 0 0.22 0.24 0 0.24 0.24 0 0.26 0.24 0 0.28 0.24 0 0.3 0.24 0 0.32 0.24 0 0.34 0.24 0 0.36 0.24 0 0.38 0.24 0 0.4 0.24 0 0.42 0.24 0 0.44 0.24 0 0.46 0.24 0 0.48 0.24 0 0.5 0.24 0 0.52 0.24 0 0.54 0.24 0 0.56 0.24 0 0.58 0.24 0 0.6 0.24 0 0.62 0.24 0 0.64 0.24 0 0.66 0.24 0 0.68 0.24 0 0.7 0.24 0 0.72 0.24 0 0.74 0.24 0 0.76 0.24 0 0.78 0.24 0 0.8 0.24 0 0.82 0.24 0 0.84 0.24 0 0.86 0.24 0 0.88 0.24 0 0.9 0.24 0 0.92 0.24 0 0.94 0.24 0 0.96 0.24 0 0.98 0.24 0 1 0.24 0 0 0.26 0 0.02 0.26 0 0.04 0.26 0 0.06 0.26 0 0.08 0.26 0 0.1 0.26 0 0.12 0.26 0 0.14 0.26 0 0.16 0.26 0 0.18 0.26 0 0.2 0.26 0 0.22 0.26 0 0.24 0.26 0 0.26 0.26 0 0.28 0.26 0 0.3 0.26 0 0.32 0.26 0 0.34 0.26 0 0.36 0.26 0 0.38 0.26 0 0.4 0.26 0 0.42 0.26 0 0.44 0.26 0 0.46 0.26 0 0.48 0.26 0 0.5 0.26 0 0.52 0.26 0 0.54 0.26 0 0.56 0.26 0 0.58 0.26 0 0.6 0.26 0 0.62 0.26 0 0.64 0.26 0 0.66 0.26 0 0.68 0.26 0 0.7 0.26 0 0.72 0.26 0 0.74 0.26 0 0.76 0.26 0 0.78 0.26 0 0.8 0.26 0 0.82 0.26 0 0.84 0.26 0 0.86 0.26 0 0.88 0.26 0 0.9 0.26 0 0.92 0.26 0 0.94 0.26 0 0.96 0.26 0 0.98 0.26 0 1 0.26 0 0 0.28 0 0.02 0.28 0 0.04 0.28 0 0.06 0.28 0 0.08 0.28 0 0.1 0.28 0 0.12 0.28 0 0.14 0.28 0 0.16 0.28 0 0.18 0.28 0 0.2 0.28 0 0.22 0.28 0 0.24 0.28 0 0.26 0.28 0 0.28 0.28 0 0.3 0.28 0 0.32 0.28 0 0.34 0.28 0 0.36 0.28 0 0.38 0.28 0 0.4 0.28 0 0.42 0.28 0 0.44 0.28 0 0.46 0.28 0 0.48 0.28 0 0.5 0.28 0 0.52 0.28 0 0.54 0.28 0 0.56 0.28 0 0.58 0.28 0 0.6 0.28 0 0.62 0.28 0 0.64 0.28 0 0.66 0.28 0 0.68 0.28 0 0.7 0.28 0 0.72 0.28 0 0.74 0.28 0 0.76 0.28 0 0.78 0.28 0 0.8 0.28 0 0.82 0.28 0 0.84 0.28 0 0.86 0.28 0 0.88 0.28 0 0.9 0.28 0 0.92 0.28 0 0.94 0.28 0 0.96 0.28 0 0.98 0.28 0 1 0.28 0 0 0.3 0 0.02 0.3 0 0.04 0.3 0 0.06 0.3 0 0.08 0.3 0 0.1 0.3 0 0.12 0.3 0 0.14 0.3 0 0.16 0.3 0 0.18 0.3 0 0.2 0.3 0 0.22 0.3 0 0.24 0.3 0 0.26 0.3 0 0.28 0.3 0 0.3 0.3 0 0.32 0.3 0 0.34 0.3 0 0.36 0.3 0 0.38 0.3 0 0.4 0.3 0 0.42 0.3 0 0.44 0.3 0 0.46 0.3 0 0.48 0.3 0 0.5 0.3 0 0.52 0.3 0 0.54 0.3 0 0.56 0.3 0 0.58 0.3 0 0.6 0.3 0 0.62 0.3 0 0.64 0.3 0 0.66 0.3 0 0.68 0.3 0 0.7 0.3 0 0.72 0.3 0 0.74 0.3 0 0.76 0.3 0 0.78 0.3 0 0.8 0.3 0 0.82 0.3 0 0.84 0.3 0 0.86 0.3 0 0.88 0.3 0 0.9 0.3 0 0.92 0.3 0 0.94 0.3 0 0.96 0.3 0 0.98 0.3 0 1 0.3 0 0 0.32 0 0.02 0.32 0 0.04 0.32 0 0.06 0.32 0 0.08 0.32 0 0.1 0.32 0 0.12 0.32 0 0.14 0.32 0 0.16 0.32 0 0.18 0.32 0 0.2 0.32 0 0.22 0.32 0 0.24 0.32 0 0.26 0.32 0 0.28 0.32 0 0.3 0.32 0 0.32 0.32 0 0.34 0.32 0 0.36 0.32 0 0.38 0.32 0 0.4 0.32 0 0.42 0.32 0 0.44 0.32 0 0.46 0.32 0 0.48 0.32 0 0.5 0.32 0 0.52 0.32 0 0.54 0.32 0 0.56 0.32 0 0.58 0.32 0 0.6 0.32 0 0.62 0.32 0 0.64 0.32 0 0.66 0.32 0 0.68 0.32 0 0.7 0.32 0 0.72 0.32 0 0.74 0.32 0 0.76 0.32 0 0.78 0.32 0 0.8 0.32 0 0.82 0.32 0 0.84 0.32 0 0.86 0.32 0 0.88 0.32 0 0.9 0.32 0 0.92 0.32 0 0.94 0.
[...]
			<PointData Scalars="VitesseX">
				<DataArray Name="VitesseX" type="Float32" format="ascii">
 0 0 0 0 0 0 0 0 0 0 0 0 0 0 0 0 0 0 0 0 0 0 0 0 0 0 0 0 0 0 0 0 0 0 0 0 0 0 0 0 0 0 0 0 0 0 0 0 0 0 0 0 0.00043088 0.00171846 0.0038256 0.00681011 0.0105052 0.014877 0.01986 0.0253748 0.0313332 0.03764 0.0441942 0.0508905 0.0576234 0.0642825 0.0707596 0.0769502 0.0827539 0.0880693 0.0928081 0.0969089 0.100316 0.102906 0.104597 0.105321 0.105814 0.10451 0.103114 0.10112 0.0982801 0.0947265 0.0905274 0.085738 0.0804193 0.0746651 0.0685631 0.0622016 0.0556835 0.0491153 0.0425999 0.0362348 0.0301286 0.0243753 0.019064 0.0142776 0.0100906 0.00656741 0.00376158 0.00170966 0.000453381 4.48095e-27 0 0.000834402 0.00333241 0.00746356 0.0131451 0.020279 0.0287498 0.0384214 0.0491393 0.0607328 0.0730175 0.0857985 0.098873 0.112039 0.125084 0.137795 0.149972 0.161419 0.171954 0.181404 0.189616 0.196457 0.201825 0.205595 0.207637 0.208352 0.207209 0.204754 0.200845 0.195366 0.188402 0.180052 0.170492 0.159904 0.148454 0.13633 0.123709 0.110766 0.0977018 0.0847468 0.0721036 0.0599556 0.0485049 0.0379366 0.0284137 0.0200831 0.0130728 0.00749008 0.00341973 0.000922296 8.89124e-27 0 0.00122495 0.00489284 0.0109358 0.0192551 0.0297104 0.0421309 0.0563165 0.0720407 0.0890541 0.107088 0.12586 0.145075 0.164442 0.183648 0.202384 0.220357 0.237284 0.252894 0.266941 0.2792 0.289473 0.297587 0.303411 0.306811 0.307931 0.306703 0.303252 0.2975 0.289451 0.279255 0.267056 0.253014 0.237324 0.220284 0.202229 0.183456 0.164261 0.144904 0.125682 0.106933 0.088938 0.0719542 0.0562705 0.0421416 0.0297836 0.0193853 0.0111052 0.00506905 0.00136768 1.31613e-26 0 0.00159652 0.00636695 0.0142291 0.0250514 0.0386536 0.0548128 0.0732679 0.0937243 0.115859 0.139327 0.163763 0.188786 0.214024 0.239072 0.263528 0.287013 0.309158 0.329617 0.348064 0.364209 0.377794 0.388595 0.396433 0.401157 0.402725 0.401399 0.397051 0.389599 0.37914 0.365852 0.349945 0.331664 0.311275 0.289071 0.265383 0.240671 0.215408 0.189977 0.164763 0.14016 0.11657 0.0943391 0.0737612 0.0552307 0.0390269 0.0253949 0.0145418 0.00663203 0.00178441 1.72237e-26 0 0.00194388 0.00774074 0.0172949 0.0304448 0.0469706 0.0666 0.0890147 0.113857 0.140737 0.169241 0.198929 0.229343 0.260036 0.290517 0.320297 0.34892 0.375941 0.400935 0.42351 0.443312 0.460025 0.473377 0.483146 0.489157 0.491192 0.489791 0.484656 0.475657 0.46299 0.446855 0.427503 0.405237 0.38041 0.353394 0.324584 0.29443 0.263473 0.232281 0.201389 0.171276 0.142416 0.115237 0.0901185 0.0674706 0.0476652 0.031006 0.0177454 0.00808412 0.00216695 2.1014e-26 0 0.00225902 0.00899217 0.020086 0.035352 0.0545334 0.0773118 0.103316 0.132129 0.163308 0.196377 0.230833 0.266143 0.301795 0.337221 0.37185 0.405158 0.436628 0.46577 0.492129 0.515289 0.534887 0.550604 0.562179 0.569409 0.571925 0.570485 0.564675 0.554307 0.53966 0.52096 0.498491 0.472602 0.443706 0.412265 0.37876 0.34369 0.307612 0.271155 0.235017 0.199812 0.166086 0.134366 0.105095 0.0786662 0.0555633 0.0361323 0.0206683 0.00940505 0.00251128 2.44726e-26 0 0.00253873 0.0101018 0.0225593 0.0396977 0.0612224 0.0867853 0.115946 0.148252 0.183223 0.220334 0.259012 0.298659 0.338704 0.37851 0.417437 0.454901 0.490322 0.523153 0.552882 0.579044 0.601227 0.619075 0.632292 0.640647 0.643649 0.642209 0.635839 0.624303 0.607938 0.586992 0.561782 0.532697 0.500195 0.464802 0.427087 0.387629 0.347031 0.30594 0.265128 0.225343 0.18724 0.15144 0.118436 0.0886411 0.0625958 0.0406931 0.0232654 0.0105757 0.00281365 2.75447e-26 0 0.00277864 0.0110524 0.0246762 0.0434146 0.0669252 0.0948343 0.126688 0.161996 0.200225 0.240794 0.28308 0.326434 0.370235 0.413785 0.456386 0.497404 0.536209 0.572204 0.604833 0.633587 0.658012 0.677721 0.692385 0.701749 0.705231 0.703832 0.697029 0.684539 0.666747 0.643911 0.616378 0.584571 0.548989 0.510201 0.468843 0.425581 0.381083 0.336025 0.291212 0.247469 0.205557 0.166193 0.129935 0.0972374 0.068652 0.0446166 0.0254961 0.0115783 0.00307021 3.01823e-26 0 0.0029749 0.011829 0.0264019 0.0464281 0.0715649 0.101395 0.13545 0.17321 0.214095 0.257477 0.30269 0.349044 0.395881 0.44246 0.488037 0.531941 0.573504 0.612091 0.647108 0.678011 0.704312 0.725592 0.741495 0.751742 0.755699 0.754385 0.74729 0.734076 0.71517 0.690828 0.661421 0.627403 0.589308 0.547744 0.503388 0.456972 0.40924 0.360911 0.312817 0.265813 0.220741 0.178405 0.139429 0.104324 0.0736376 0.047841 0.0273252 0.0123973 0.00327746 3.2344e-26 0 0.00312438 0.012419 0.0277063 0.048712 0.0750754 0.106363 0.142089 0.181701 0.224579 0.270059 0.317443 0.366018 0.415106 0.46394 0.511748 0.55783 0.601491 0.642068 0.678938 0.711529 0.739325 0.761879 0.778812 0.78982 0.794234 0.793062 0.785846 0.772155 0.752459 0.727022 0.696223 0.66054 0.620535 0.576848 0.530187 0.481327 0.431078 0.38021 0.329582 0.280064 0.232539 0.18788 0.146778 0.109793 0.0774754 0.0503161 0.0287241 0.01302 0.00343245 3.39962e-26 0 0.0032247 0.0128116 0.0285751 0.0502287 0.0774001 0.10965 0.146472 0.187278 0.231422 0.278223 0.32698 0.376967 0.4275 0.4778 0.527071 0.574602 0.619679 0.661621 0.699786 0.733584 0.762471 0.785977 0.80371 0.815355 0.820228 0.819253 0.812086 0.798177 0.778033 0.751923 0.720233 0.683451 0.64216 0.597031 0.548805 0.498275 0.446273 0.39363 0.341243 0.289985 0.240755 0.194468 0.151868 0.113561 0.0801064 0.0520033 0.029671 0.0134368 0.00353296 3.51133e-26 0 0.0032726 0.0129955 0.028975 0.0509136 0.0784267 0.111063 0.148294 0.18952 0.234101 0.281364 0.330614 0.381129 0.43222 0.483118 0.533019 0.581213 0.626982 0.669642 0.708546 0.743086 0.772715 0.796954 0.815394 0.827701 0.833218 0.832536 0.825581 0.811715 0.791478 0.765137 0.73308 0.695795 0.653872 0.607997 0.558935 0.507506 0.454564 0.400966 0.34762 0.295415 0.245248 0.198053 0.154613 0.115569 0.0814898 0.0528771 0.0301515 0.0136414 0.00357763 3.5678e-26 0 0.00327122 0.0129878 0.028954 0.0508639 0.0783229 0.110876 0.147995 0.189085 0.233515 0.280623 0.329718 0.380089 0.431049 0.481843 0.531671 0.579829 0.625603 0.668311 0.707304 0.741968 0.771756 0.796189 0.814847 0.827383 0.833152 0.832607 0.825812 0.812083 0.791969 0.765736 0.733768 0.696547 0.654654 0.608768 0.559654 0.508144 0.455113 0.401426 0.348017 0.295772 0.245546 0.198266 0.15474 0.115629 0.0815057 0.0528681 0.0301322 0.0136219 0.00356438 3.56818e-26 0 0.0032175 0.0127699 0.0284586 0.0499595 0.0768817 0.108797 0.145175 0.185432 0.228956 0.275102 0.3232 0.372561 0.422516 0.472343 0.521261 0.568584 0.613619 0.655703 0.694188 0.728473 0.758027 0.78237 0.801075 0.813786 0.819908 0.819738 0.813649 0.800618 0.78124 0.755766 0.724564 0.688103 0.646954 0.601782 0.553341 0.502461 0.450022 0.396902 0.344047 0.29237 0.242696 0.195916 0.152843 0.11415 0.0804135 0.0521231 0.0296824 0.0134026 0.00349769 3.51249e-26 0 0.00311293 0.0123507 0.0275047 0.0482366 0.0741991 0.104969 0.140022 0.178798 0.220711 0.265149 0.31147 0.359022 0.407165 0.455222 0.502442 0.548175 0.591761 0.63256 0.66994 0.703327 0.732209 0.756107 0.774597 0.787318 0.793741 0.793897 0.788492 0.776275 0.757867 0.733499 0.703515 0.668366 0.628601 0.584864 0.537886 0.488481 0.437515 0.385853 0.334424 0.284146 0.235839 0.190344 0.148444 0.110809 0.0780153 0.0505354 0.0287552 0.0129689 0.00337581 3.40163e-26 0 0.00295937 0.0117354 0.0261012 0.0457311 0.0703336 0.0994623 0.132622 0.16929 0.208913 0.250919 0.294714 0.339688 0.385242 0.430758 0.475524 0.518935 0.560386 0.599258 0.634957 0.666946 0.694726 0.717836 0.735851 0.748409 0.755074 0.755585 0.751001 0.73984 0.722731 0.699883 0.671612 0.638341 0.600591 0.558978 0.5142 0.467036 0.418327 0.368918 0.319703 0.271583 0.225357 0.181829 0.141746 0.105756 0.0744086 0.0481631 0.0273806 0.0123333 0.00320176 3.23736e-26 0 0.00275896 0.0109314 0.0242644 0.0425069 0.0653483 0.0923618 0.123092 0.157055 0.193745 0.23264 0.273201 0.314875 0.357109 0.399346 0.440935 0.48133 0.519993 0.556339 0.589814 0.619929 0.646203 0.668178 0.685451 0.697675 0.704516 0.705416 0.701777 0.691896 0.676397 0.655456 0.629361 0.5985 0.563361 0.52452 0.482639 0.438451 0.392752 0.346355 0.300106 0.254877 0.211427 0.170515 0.132861 0.0990707 0.0696515 0.0450453 0.0255818 0.0115068 0.00297867 3.02225e-26 0 0.00251454 0.00994627 0.0220413 0.0386128 0.0593185 0.0837786 0.111579 0.142285 0.175448 0.210607 0.247285 0.284987 0.323215 0.361485 0.399227 0.435969 0.47124 0.504512 0.535266 0.563041 0.587393 0.607898 0.624186 0.63592 0.642828 0.64426 0.641569 0.633211 0.619611 0.600946 0.577461 0.549503 0.517519 0.482046 0.4437 0.403165 0.361181 0.318511 0.275936 0.234283 0.194268 0.156596 0.12193 0.0908486 0.0638198 0.0412331 0.0233887 0.0105033 0.00271023 2.75967e-26 0 0.00223057 0.00879081 0.0194836 0.0341044 0.0523373 0.0738448 0.0982626 0.125216 0.15432 0.185178 0.217379 0.250498 0.284097 0.317781 0.351077 0.383611 0.414948 0.444611 0.472142 0.497128 0.519181 0.537938 0.553034 0.564127 0.570943 0.573131 0.571315 0.564718 0.553282 0.537234 0.516762 0.492155 0.46382 0.432254 0.398023 0.361746 0.324103 0.285808 0.247564 0.210123 0.174148 0.140286 0.109132 0.0812317 0.0570093 0.0367886 0.0208375 0.00933952 0.00240088 2.45372e-26 0 0.00190993 0.0074968 0.0166216 0.0290497 0.0445125 0.0627161 0.0833565 0.106123 0.130698 0.15676 0.183964 0.211948 0.240363 0.268905 0.297239 0.325053 0.351947 0.377507 0.401365 0.423191 0.442661 0.459424 0.473106 0.483397 0.490093 0.493058 0.492247 0.487583 0.478547 0.465407 0.448289 0.427419 0.403152 0.375951 0.346338 0.31486 0.282116 0.248761 0.215427 0.182771 0.151381 0.12184 0.0946786 0.0703826 0.0493279 0.0317838 0.0179694 0.00803358 0.00205609 2.10927e-26 0 0.00155374 0.00609741 0.0134941 0.0235274 0.0359658 0.0505706 0.0670995 0.0853101 0.104964 0.125799 0.147533 0.169895 0.192648 0.215592 0.238528 0.261161 0.283164 0.304238 0.324079 0.342444 0.359045 0.373551 0.385631 0.39501 0.40158 0.405331 0.405695 0.403107 0.396652 0.386617 0.373097 0.356277 0.336453 0.314028 0.289463 0.263245 0.23589 0.207965 0.180031 0.152652 0.126322 0.101548 0.0787911 0.0584652 0.0408969 0.026298 0.0148304 0.00660925 0.00168262 1.73193e-26 0 0.00117193 0.00460444 0.0101488 0.0176221 0.0268333 0.0376014 0.0497498 0.0631137 0.0775115 0.0927405 0.108611 0.124969 0.141699 0.158707 0.175864 0.192953 0.209724 0.225997 0.241517 0.256146 0.269635 0.281681 0.292005 0.300392 0.306788 0.311242 0.313285 0.312474 0.308789 0.301971 0.292225 0.279718 0.264679 0.247405 0.228272 0.207705 0.186145 0.164065 0.14194 0.120238 0.099363 0.0797273 0.0617166 0.0456701 0.0318551 0.0204191 0.0114709 0.00508774 0.00128701 1.32761e-26 0 0.000777872 0.00303708 0.00663814 0.0114262 0.0172598 0.0240149 0.0315885 0.0398677 0.0487316 0.0580755 0.0678154 0.0779094 0.0883555 0.0991586 0.11025 0.121493 0.132771 0.143994 0.154978 0.165651 0.175847 0.185274 0.193686 0.200968 0.207171 0.212488 0.216167 0.217382 0.216246 0.212754 0.206924 0.198914 0.188882 0.177043 0.163671 0.149089 0.133653 0.117745 0.101754 0.0860414 0.070926 0.0567189 0.0437228 0.0321998 0.0223448 0.0142398 0.00794681 0.00349666 0.000874553 9.02544e-27 0 0.000372753 0.00141973 0.00301567 0.00503788 0.00739655 0.01003 0.0128819 0.0158993 0.0190598 0.0223513 0.0257876 0.0294444 0.0334296 0.0378341 0.0426577 0.0478781 0.0534956 0.0595036 0.0658045 0.0723555 0.0790847 0.085739 0.0921269 0.0981935 0.104213 0.110722 0.115855 0.119044 0.120474 0.120243 0.118464 0.115095 0.110242 0.104032 0.0966404 0.0882885 0.079223 0.0697279 0.0600999 0.0506013 0.0414581 0.0328848 0.0250936 0.0182633 0.0125124 0.00785847 0.00431404 0.00186343 0.000453246 4.6423e-27 0 -3.81219e-05 -0.000223491 -0.000665746 -0.00144554 -0.0026034 -0.00415636 -0.00611368 -0.00843171 -0.011047 -0.0138867 -0.016832 -0.0196935 -0.0222609 -0.0243625 -0.0259046 -0.0267902 -0.0269172 -0.0262137 -0.0247015 -0.0223802 -0.0192191 -0.0154019 -0.0111098 -0.00639216 -0.000788195 0.00726686 0.0136275 0.0186272 0.0226919 0.0258897 0.028188 0.029554 0.0299869 0.0295246 0.0282405 0.0262499 0.0236989 0.0207596 0.0176287 0.0144742 0.0114245 0.00860161 0.00612194 0.00407889 0.00251441 0.00138059 0.000633305 0.000212906 3.38865e-05 2.01626e-28 0 -0.00046656 -0.00188535 -0.00435809 -0.00792326 -0.0125838 -0.0183234 -0.0250628 -0.0326811 -0.0410404 -0.0499787 -0.0592709 -0.0686167 -0.0777082 -0.0863006 -0.0941905 -0.101169 -0.107038 -0.111644 -0.114929 -0.116813 -0.11726 -0.1163 -0.114063 -0.110591 -0.105397 -0.0977171 -0.0898213 -0.0825386 -0.0756986 -0.0690396 -0.0625982 -0.0564614 -0.0507057 -0.0453867 -0.0405307 -0.0361255 -0.0321244 -0.0284614 -0.025051 -0.0218255 -0.0187465 -0.0157854 -0.0129232 -0.0101533 -0.00751111 -0.00510719 -0.003046 -0.00143406 -0.000378815 -4.31784e-27 0 -0.000904467 -0.0035457 -0.00801375 -0.0143185 -0.0224366 -0.0322808 -0.0437012 -0.0565142 -0.0705112 -0.0854379 -0.100954 -0.11666 -0.132156 -0.147126 -0.161259 -0.174232 -0.185753 -0.19558 -0.203578 -0.209614 -0.213564 -0.215322 -0.215162 -0.212804 -0.208011 -0.201139 -0.19222 -0.182567 -0.172859 -0.162734 -0.152177 -0.141318 -0.130303 -0.119287 -0.108382 -0.0976726 -0.0872107 -0.0770272 -0.0671536 -0.0576278 -0.048499 -0.039829 -0.0316933 -0.0241751 -0.0173847 -0.011495 -0.00666968 -0.00305501 -0.000785637 -8.82256e-27 0 -0.0013378 -0.00516617 -0.0115686 -0.0205382 -0.0319965 -0.0457906 -0.0617213 -0.0795489 -0.0989978 -0.11971 -0.141225 -0.163069 -0.184755 -0.205892 -0.226057 -0.244827 -0.261818 -0.276693 -0.289251 -0.299282 -0.306616 -0.311109 -0.312771 -0.311771 -0.307474 -0.300698 -0.291138 -0.279634 -0.267183 -0.253701 -0.239138 -0.223692 -0.207592 -0.191058 -0.174289 -0.157462 -0.140727 -0.124209 -0.108052 -0.0923978 -0.0773871 -0.0631687 -0.0499082 -0.0377766 -0.0269582 -0.0176879 -0.0101845 -0.00462595 -0.00118165 -1.31058e-26 0 -0.00175487 -0.0067155 -0.0149712 -0.0264738 -0.0410883 -0.058624 -0.0788317 -0.101423 -0.126053 -0.152252 -0.179449 -0.207112 -0.234676 -0.261664 -0.287555 -0.31183 -0.334016 -0.353698 -0.370603 -0.384443 -0.394983 -0.402087 -0.405529 -0.405814 -0.402129 -0.395271 -0.385016 -0.371992 -0.357025 -0.340362 -0.322035 -0.30226 -0.281338 -0.259569 -0.237232 -0.214572 -0.191845 -0.169279 -0.147115 -0.125599 -0.104961 -0.0854414 -0.0672875 -0.0507509 -0.0360888 -0.0235937 -0.0135355 -0.00612432 -0.00155866 -1.71618e-26 0 -0.00214559 -0.00817314 -0.0181613 -0.0320121 -0.0495628 -0.0705762 -0.0947631 -0.12179 -0.151244 -0.182547 -0.215024 -0.24809 -0.281121 -0.313553 -0.344769 -0.374167 -0.401191 -0.425367 -0.446345 -0.463765 -0.47733 -0.486861 -0.492131 -0.493419 -0.490468 -0.483532 -0.47258 -0.4582 -0.441036 -0.421416 -0.399554 -0.37576 -0.350373 -0.323738 -0.296202 -0.268097 -0.239752 -0.211518 -0.18372 -0.156701 -0.130783 -0.106295 -0.0835577 -0.062895 -0.0446332 -0.0291188 -0.0166688 -0.00752658 -0.00190978 -2.09489e-26 0 -0.00250678 -0.00951497 -0.0210737 -0.0370645 -0.0572837 -0.081458 -0.109261 -0.140323 -0.174168 -0.210109 -0.247381 -0.285351 -0.323349 -0.360724 -0.396781 -0.430841 -0.462274 -0.490556 -0.515268 -0.53598 -0.552353 -0.564164 -0.571181 -0.57335 -0.571159 -0.564123 -0.552527 -0.536925 -0.517883 -0.495675 -0.470633 -0.443169 -0.413679 -0.382572 -0.350268 -0.317176 -0.283679 -0.250247 -0.217279 -0.185208 -0.154444 -0.125401 -0.098462 -0.0740148 -0.0524541 -0.0341759 -0.0195355 -0.00880862 -0.00222969 -2.44089e-26 0 -0.00283438 -0.0107091 -0.0236636 -0.0415488 -0.0641286 -0.0910948 -0.122091 -0.156719 -0.194451 -0.234494 -0.276001 -0.318302 -0.360683 -0.402422 -0.442759 -0.480948 -0.516292 -0.548232 -0.576284 -0.599948 -0.618853 -0.63274 -0.641398 -0.644349 -0.642907 -0.635819 -0.623674 -0.607003 -0.586284 -0.561849 -0.534075 -0.503386 -0.47025 -0.435153 -0.398579 -0.361018 -0.322923 -0.284845 -0.247257 -0.210668 -0.175573 -0.142459 -0.111766 -0.0839332 -0.0594258 -0.0386853 -0.0220912 -0.00994875 -0.00251414 -2.74867e-26 0 -0.0031181 -0.0117377 -0.0258886 -0.0453938 -0.0699872 -0.0993308 -0.133044 -0.170711 -0.211762 -0.255308 -0.300424 -0.346416 -0.392527 -0.43798 -0.481968 -0.523687 -0.562388 -0.597481 -0.628438 -0.654688 -0.675822 -0.691547 -0.701646 -0.705416 -0.704487 -0.697477 -0.684933 -0.667382 -0.64524 -0.618896 -0.588769 -0.555332 -0.519095 -0.480587 -0.440344 -0.398927 -0.356861 -0.314764 -0.27318 -0.232683 -0.19384 -0.157201 -0.123259 -0.0924924 -0.0654357 -0.0425744 -0.0242934 -0.0109285 -0.00275846 -3.01336e-26 0 -0.00335305 -0.0125844 -0.0277128 -0.0485371 -0.0747649 -0.106033 -0.141942 -0.182067 -0.225816 -0.272212 -0.320257 -0.369242 -0.418371 -0.466831 -0.513786 -0.558384 -0.599835 -0.637525 -0.670899 -0.699335 -0.722365 -0.739656 -0.750953 -0.755574 -0.754967 -0.748112 -0.735323 -0.717097 -0.693834 -0.665956 -0.633925 -0.598249 -0.55947 -0.518157 -0.474896 -0.430303 -0.38496 -0.339538 -0.294645 -0.25091 -0.20896 -0.169399 -0.132765 -0.0995641 -0.0703929 -0.04578 -0.0261043 -0.0117317 -0.00295901 -3.23065e-26 0 -0.00353628 -0.0132353 -0.0291062 -0.0509275 -0.0783852 -0.111095 -0.14864 -0.190599 -0.236378 -0.284929 -0.335178 -0.386408 -0.437798 -0.48852 -0.537716 -0.584496 -0.628053 -0.66774 -0.702996 -0.733175 -0.757734 -0.776289 -0.788568 -0.793909 -0.793564 -0.786937 -0.774032 -0.755367 -0.731317 -0.70232 -0.668868 -0.631494 -0.590773 -0.547303 -0.501718 -0.454673 -0.406795 -0.358789 -0.311323 -0.265068 -0.2207 -0.178861 -0.140134 -0.105044 -0.0742266 -0.0482511 -0.0274963 -0.012348 -0.00311292 -3.39698e-26 0 -0.00366466 -0.0136794 -0.0300458 -0.0525266 -0.0807903 -0.114435 -0.153031 -0.196164 -0.243266 -0.293247 -0.344946 -0.397634 -0.450506 -0.502713 -0.553388 -0.60163 -0.646624 -0.687677 -0.724235 -0.755662 -0.781345 -0.800847 -0.813881 -0.819811 -0.819697 -0.813325 -0.800421 -0.781542 -0.757049 -0.727374 -0.693018 -0.654532 -0.612512 -0.567586 -0.520418 -0.471679 -0.422043 -0.372231 -0.32296 -0.27494 -0.228878 -0.185441 -0.145243 -0.108836 -0.0768735 -0.0499489 -0.0284495 -0.0127692 -0.00321762 -3.50973e-26 0 -0.00373528 -0.013905 -0.0305039 -0.0532819 -0.0818939 -0.115923 -0.154928 -0.198512 -0.246159 -0.296772 -0.3491 -0.4024 -0.455902 -0.508729 -0.560049 -0.608976 -0.654683 -0.696455 -0.733715 -0.76587 -0.792313 -0.812546 -0.826237 -0.832783 -0.832941 -0.826868 -0.814111 -0.795259 -0.770665 -0.740756 -0.706029 -0.667039 -0.62439 -0.578726 -0.530719 -0.48106 -0.430467 -0.379656 -0.32938 -0.280375 -0.233368 -0.189034 -0.148006 -0.110872 -0.0782876 -0.0508475 -0.0289495 -0.012988 -0.0032714 -3.56713e-26 0 -0.00375017 -0.0139269 -0.0305272 -0.0532977 -0.0818878 -0.115868 -0.154784 -0.198266 -0.245856 -0.296501 -0.348856 -0.402133 -0.455598 -0.508374 -0.559643 -0.608542 -0.654244 -0.69603 -0.733271 -0.76541 -0.791908 -0.812255 -0.826081 -0.832763 -0.833005 -0.827136 -0.814576 -0.795914 -0.771495 -0.741739 -0.707134 -0.668227 -0.625619 -0.579949 -0.531892 -0.48216 -0.43147 -0.380542 -0.330144 -0.28101 -0.233873 -0.189408 -0.148254 -0.111034 -0.0783946 -0.0509044 -0.0289748 -0.0129962 -0.00327272 -3.56818e-26 0 -0.00370459 -0.0137197 -0.0300433 -0.0524219 -0.0805043 -0.113852 -0.151989 -0.194593 -0.24125 -0.291019 -0.342518 -0.394875 -0.447408 -0.499285 -0.549683 -0.59778 -0.642781 -0.68395 -0.720647 -0.752334 -0.778516 -0.798721 -0.812588 -0.819528 -0.820085 -0.81482 -0.802896 -0.784918 -0.76121 -0.732177 -0.698292 -0.660093 -0.618173 -0.573168 -0.525761 -0.476678 -0.426592 -0.376234 -0.326396 -0.277798 -0.231155 -0.187145 -0.14642 -0.109623 -0.0773817 -0.0502254 -0.028576 -0.012811 -0.0032243 -3.51283e-26 0 -0.00360095 -0.0132967 -0.0290888 -0.0507297 -0.0778752 -0.110093 -0.146861 -0.187923 -0.232881 -0.28096 -0.330846 -0.381519 -0.432329 -0.482521 -0.531317 -0.5779 -0.621491 -0.66138 -0.696949 -0.727667 -0.753067 -0.772734 -0.786342 -0.793342 -0.794127 -0.789325 -0.778041 -0.76087 -0.738117 -0.710167 -0.677474 -0.640556 -0.59999 -0.556404 -0.510463 -0.462871 -0.414256 -0.365352 -0.316946 -0.269733 -0.224405 -0.181631 -0.142059 -0.106336 -0.0750568 -0.0487036 -0.0277021 -0.0124152 -0.00312356 -3.402e-26 0 -0.00344064 -0.0126643 -0.027678 -0.0482458 -0.0740395 -0.104657 -0.139515 -0.178405 -0.22092 -0.266476 -0.313986 -0.362254 -0.410586 -0.458326 -0.50476 -0.549105 -0.590609 -0.62859 -0.662466 -0.691727 -0.71593 -0.734709 -0.747788