<?xml version="1.0"?>
<VTKFile type="PolyData">
	<PolyData>
		<Piece NumberOfPoints="2601" NumberOfPolys="2500">
			<Points>
				<DataArray type="Float32" NumberOfComponents="3" format="ascii">
 0 0 0 0.02 0 0 0.04 0 0 0.06 0 0 0.08 0 0 0.1 0 0 0.12 0 0 0.14 0 0 0.16 0 0 0.18 0 0 0.2 0 0 0.22 0 0 0.24 0 0 0.26 0 0 0.28 0 0 0.3 0 0 0.32 0 0 0.34 0 0 0.36 0 0 0.38 0 0 0.4 0 0 0.42 0 0 0.44 0 0 0.46 0 0 0.48 0 0 0.5 0 0 0.52 0 0 0.54 0 0 0.56 0 0 0.58 0 0 0.6 0 0 0.62 0 0 0.64 0 0 0.66 0 0 0.68 0 0 0.7 0 0 0.72 0 0 0.74 0 0 0.76 0 0 0.78 0 0 0.8 0 0 0.82 0 0 0.84 0 0 0.86 0 0 0.88 0 0 0.9 0 0 0.92 0 0 0.94 0 0 0.96 0 0 0.98 0 0 1 0 0 0 0.02 0 0.02 0.02 0 0.04 0.02 0 0.06 0.02 0 0.08 0.02 0 0.1 0.02 0 0.12 0.02 0 0.14 0.02 0 0.16 0.02 0 0.18 0.02 0 0.2 0.02 0 0.22 0.02 0 0.24 0.02 0 0.26 0.02 0 0.28 0.02 0 0.3 0.02 0 0.32 0.02 0 0.34 0.02 0 0.36 0.02 0 0.38 0.02 0 0.4 0.02 0 0.42 0.02 0 0.44 0.02 0 0.46 0.02 0 0.48 0.02 0 0.5 0.02 0 0.52 0.02 0 0.54 0.02 0 0.56 0.02 0 0.58 0.02 0 0.6 0.02 0 0.62 0.02 0 0.64 0.02 0 0.66 0.02 0 0.68 0.02 0 0.7 0.02 0 0.72 0.02 0 0.74 0.02 0 0.76 0.02 0 0.78 0.02 0 0.8 0.02 0 0.82 0.02 0 0.84 0.02 0 0.86 0.02 0 0.88 0.02 0 0.9 0.02 0 0.92 0.02 0 0.94 0.02 0 0.96 0.02 0 0.98 0.02 0 1 0.02 0 0 0.04 0 0.02 0.04 0 0.04 0.04 0 0.06 0.04 0 0.08 0.04 0 0.1 0.04 0 0.12 0.04 0 0.14 0.04 0 0.16 0.04 0 0.18 0.04 0 0.2 0.04 0 0.22 0.04 0 0.24 0.04 0 0.26 0.04 0 0.28 0.04 0 0.3 0.04 0 0.32 0.04 0 0.34 0.04 0 0.36 0.04 0 0.38 0.04 0 0.4 0.04 0 0.42 0.04 0 0.44 0.04 0 0.46 0.04 0 0.48 0.04 0 0.5 0.04 0 0.52 0.04 0 0.54 0.04 0 0.56 0.04 0 0.58 0.04 0 0.6 0.04 0 0.62 0.04 0 0.64 0.04 0 0.66 0.04 0 0.68 0.04 0 0.7 0.04 0 0.72 0.04 0 0.74 0.04 0 0.76 0.04 0 0.78 0.04 0 0.8 0.04 0 0.82 0.04 0 0.84 0.04 0 0.86 0.04 0 0.88 0.04 0 0.9 0.04 0 0.92 0.04 0 0.94 0.04 0 0.96 0.04 0 0.98 0.04 0 1 0.04 0 0 0.06 0 0.02 0.06 0 0.04 0.06 0 0.06 0.06 0 0.08 0.06 0 0.1 0.06 0 0.12 0.06 0 0.14 0.06 0 0.16 0.06 0 0.18 0.06 0 0.2 0.06 0 0.22 0.06 0 0.24 0.06 0 0.26 0.06 0 0.28 0.06 0 0.3 0.06 0 0.32 0.06 0 0.34 0.06 0 0.36 0.06 0 0.38 0.06 0 0.4 0.06 0 0.42 0.06 0 0.44 0.06 0 0.46 0.06 0 0.48 0.06 0 0.5 0.06 0 0.52 0.06 0 0.54 0.06 0 0.56 0.06 0 0.58 0.06 0 0.6 0.06 0 0.62 0.06 0 0.64 0.06 0 0.66 0.06 0 0.68 0.06 0 0.7 0.06 0 0.72 0.06 0 0.74 0.06 0 0.76 0.06 0 0.78 0.06 0 0.8 0.06 0 0.82 0.06 0 0.84 0.06 0 0.86 0.06 0 0.88 0.06 0 0.9 0.06 0 0.92 0.06 0 0.94 0.06 0 0.96 0.06 0 0.98 0.06 0 1 0.06 0 0 0.08 0 0.02 0.08 0 0.04 0.08 0 0.06 0.08 0 0.08 0.08 0 0.1 0.08 0 0.12 0.08 0 0.14 0.08 0 0.16 0.08 0 0.18 0.08 0 0.2 0.08 0 0.22 0.08 0 0.24 0.08 0 0.26 0.08 0 0.28 0.08 0 0.3 0.08 0 0.32 0.08 0 0.34 0.08 0 0.36 0.08 0 0.38 0.08 0 0.4 0.08 0 0.42 0.08 0 0.44 0.08 0 0.46 0.08 0 0.48 0.08 0 0.5 0.08 0 0.52 0.08 0 0.54 0.08 0 0.56 0.08 0 0.58 0.08 0 0.6 0.08 0 0.62 0.08 0 0.64 0.08 0 0.66 0.08 0 0.68 0.08 0 0.7 0.08 0 0.72 0.08 0 0.74 0.08 0 0.76 0.08 0 0.78 0.08 0 0.8 0.08 0 0.82 0.08 0 0.84 0.08 0 0.86 0.08 0 0.88 0.08 0 0.9 0.08 0 0.92 0.08 0 0.94 0.08 0 0.96 0.08 0 0.98 0.08 0 1 0.08 0 0 0.1 0 0.02 0.1 0 0.04 0.1 0 0.06 0.1 0 0.08 0.1 0 0.1 0.1 0 0.12 0.1 0 0.14 0.1 0 0.16 0.1 0 0.18 0.1 0 0.2 0.1 0 0.22 0.1 0 0.24 0.1 0 0.26 0.1 0 0.28 0.1 0 0.3 0.1 0 0.32 0.1 0 0.34 0.1 0 0.36 0.1 0 0.38 0.1 0 0.4 0.1 0 0.42 0.1 0 0.44 0.1 0 0.46 0.1 0 0.48 0.1 0 0.5 0.1 0 0.52 0.1 0 0.54 0.1 0 0.56 0.1 0 0.58 0.1 0 0.6 0.1 0 0.62 0.1 0 0.64 0.1 0 0.66 0.1 0 0.68 0.1 0 0.7 0.1 0 0.72 0.1 0 0.74 0.1 0 0.76 0.1 0 0.78 0.1 0 0.8 0.1 0 0.82 0.1 0 0.84 0.1 0 0.86 0.1 0 0.88 0.1 0 0.9 0.1 0 0.92 0.1 0 0.94 0.1 0 0.96 0.1 0 0.98 0.1 0 1 0.1 0 0 0.12 0 0.02 0.12 0 0.04 0.12 0 0.06 0.12 0 0.08 0.12 0 0.1 0.12 0 0.12 0.12 0 0.14 0.12 0 0.16 0.12 0 0.18 0.12 0 0.2 0.12 0 0.22 0.12 0 0.24 0.12 0 0.26 0.12 0 0.28 0.12 0 0.3 0.12 0 0.32 0.12 0 0.34 0.12 0 0.36 0.12 0 0.38 0.12 0 0.4 0.12 0 0.42 0.12 0 0.44 0.12 0 0.46 0.12 0 0.48 0.12 0 0.5 0.12 0 0.52 0.12 0 0.54 0.12 0 0.56 0.12 0 0.58 0.12 0 0.6 0.12 0 0.62 0.12 0 0.64 0.12 0 0.66 0.12 0 0.68 0.12 0 0.7 0.12 0 0.72 0.12 0 0.74 0.12 0 0.76 0.12 0 0.78 0.12 0 0.8 0.12 0 0.82 0.12 0 0.84 0.12 0 0.86 0.12 0 0.88 0.12 0 0.9 0.12 0 0.92 0.12 0 0.94 0.12 0 0.96 0.12 0 0.98 0.12 0 1 0.12 0 0 0.14 0 0.02 0.14 0 0.04 0.14 0 0.06 0.14 0 0.08 0.14 0 0.1 0.14 0 0.12 0.14 0 0.14 0.14 0 0.16 0.14 0 0.18 0.14 0 0.2 0.14 0 0.22 0.14 0 0.24 0.14 0 0.26 0.14 0 0.28 0.14 0 0.3 0.14 0 0.32 0.14 0 0.34 0.14 0 0.36 0.14 0 0.38 0.14 0 0.4 0.14 0 0.42 0.14 0 0.44 0.14 0 0.46 0.14 0 0.48 0.14 0 0.5 0.14 0 0.52 0.14 0 0.54 0.14 0 0.56 0.14 0 0.58 0.14 0 0.6 0.14 0 0.62 0.14 0 0.64 0.14 0 0.66 0.14 0 0.68 0.14 0 0.7 0.14 0 0.72 0.14 0 0.74 0.14 0 0.76 0.14 0 0.78 0.14 0 0.8 0.14 0 0.82 0.14 0 0.84 0.14 0 0.86 0.14 0 0.88 0.14 0 0.9 0.14 0 0.92 0.14 0 0.94 0.14 0 0.96 0.14 0 0.98 0.14 0 1 0.14 0 0 0.16 0 0.02 0.16 0 0.04 0.16 0 0.06 0.16 0 0.08 0.16 0 0.1 0.16 0 0.12 0.16 0 0.14 0.16 0 0.16 0.16 0 0.18 0.16 0 0.2 0.16 0 0.22 0.16 0 0.24 0.16 0 0.26 0.16 0 0.28 0.16 0 0.3 0.16 0 0.32 0.16 0 0.34 0.16 0 0.36 0.16 0 0.38 0.16 0 0.4 0.16 0 0.42 0.16 0 0.44 0.16 0 0.46 0.16 0 0.48 0.16 0 0.5 0.16 0 0.52 0.16 0 0.54 0.16 0 0.56 0.16 0 0.58 0.16 0 0.6 0.16 0 0.62 0.16 0 0.64 0.16 0 0.66 0.16 0 0.68 0.16 0 0.7 0.16 0 0.72 0.16 0 0.74 0.16 0 0.76 0.16 0 0.78 0.16 0 0.8 0.16 0 0.82 0.16 0 0.84 0.16 0 0.86 0.16 0 0.88 0.16 0 0.9 0.16 0 0.92 0.16 0 0.94 0.16 0 0.96 0.16 0 0.98 0.16 0 1 0.16 0 0 0.18 0 0.02 0.18 0 0.04 0.18 0 0.06 0.18 0 0.08 0.18 0 0.1 0.18 0 0.12 0.18 0 0.14 0.18 0 0.16 0.18 0 0.18 0.18 0 0.2 0.18 0 0.22 0.18 0 0.24 0.18 0 0.26 0.18 0 0.28 0.18 0 0.3 0.18 0 0.32 0.18 0 0.34 0.18 0 0.36 0.18 0 0.38 0.18 0 0.4 0.18 0 0.42 0.18 0 0.44 0.18 0 0.46 0.18 0 0.48 0.18 0 0.5 0.18 0 0.52 0.18 0 0.54 0.18 0 0.56 0.18 0 0.58 0.18 0 0.6 0.18 0 0.62 0.18 0 0.64 0.18 0 0.66 0.18 0 0.68 0.18 0 0.7 0.18 0 0.72 0.18 0 0.74 0.18 0 0.76 0.18 0 0.78 0.18 0 0.8 0.18 0 0.82 0.18 0 0.84 0.18 0 0.86 0.18 0 0.88 0.18 0 0.9 0.18 0 0.92 0.18 0 0.94 0.18 0 0.96 0.18 0 0.98 0.18 0 1 0.18 0 0 0.2 0 0.02 0.2 0 0.04 0.2 0 0.06 0.2 0 0.08 0.2 0 0.1 0.2 0 0.12 0.2 0 0.14 0.2 0 0.16 0.2 0 0.18 0.2 0 0.2 0.2 0 0.22 0.2 0 0.24 0.2 0 0.26 0.2 0 0.28 0.2 0 0.3 0.2 0 0.32 0.2 0 0.34 0.2 0 0.36 0.2 0 0.38 0.2 0 0.4 0.2 0 0.42 0.2 0 0.44 0.2 0 0.46 0.2 0 0.48 0.2 0 0.5 0.2 0 0.52 0.2 0 0.54 0.2 0 0.56 0.2 0 0.58 0.2 0 0.6 0.2 0 0.62 0.2 0 0.64 0.2 0 0.66 0.2 0 0.68 0.2 0 0.7 0.2 0 0.72 0.2 0 0.74 0.2 0 0.76 0.2 0 0.78 0.2 0 0.8 0.2 0 0.82 0.2 0 0.84 0.2 0 0.86 0.2 0 0.88 0.2 0 0.9 0.2 0 0.92 0.2 0 0.94 0.2 0 0.96 0.2 0 0.98 0.2 0 1 0.2 0 0 0.22 0 0.02 0.22 0 0.04 0.22 0 0.06 0.22 0 0.08 0.22 0 0.1 0.22 0 0.12 0.22 0 0.14 0.22 0 0.16 0.22 0 0.18 0.22 0 0.2 0.22 0 0.22 0.22 0 0.24 0.22 0 0.26 0.22 0 0.28 0.22 0 0.3 0.22 0 0.32 0.22 0 0.34 0.22 0 0.36 0.22 0 0.38 0.22 0 0.4 0.22 0 0.42 0.22 0 0.44 0.22 0 0.46 0.22 0 0.48 0.22 0 0.5 0.22 0 0.52 0.22 0 0.54 0.22 0 0.56 0.22 0 0.58 0.22 0 0.6 0.22 0 0.62 0.22 0 0.64 0.22 0 0.66 0.22 0 0.68 0.22 0 0.7 0.22 0 0.72 0.22 0 0.74 0.22 0 0.76 0.22 0 0.78 0.22 0 0.8 0.22 0 0.82 0.22 0 0.84 0.22 0 0.86 0.22 0 0.88 0.22 0 0.9 0.22 0 0.92 0.22 0 0.94 0.22 0 0.96 0.22 0 0.98 0.22 0 1 0.22 0 0 0.24 0 0.02 0.24 0 0.04 0.24 0 0.06 0.24 0 0.08 0.24 0 0.1 0.24 0 0.12 0.24 0 0.14 0.24 0 0.16 0.24 0 0.18 0.24 0 0.2 0.24 0 0.22 0.24 0 0.24 0.24 0 0.26 0.24 0 0.28 0.24 0 0.3 0.24 0 0.32 0.24 0 0.34 0.24 0 0.36 0.24 0 0.38 0.24 0 0.4 0.24 0 0.42 0.24 0 0.44 0.24 0 0.46 0.24 0 0.48 0.24 0 0.5 0.24 0 0.52 0.24 0 0.54 0.24 0 0.56 0.24 0 0.58 0.24 0 0.6 0.24 0 0.62 0.24 0 0.64 0.24 0 0.66 0.24 0 0.68 0.24 0 0.7 0.24 0 0.72 0.24 0 0.74 0.24 0 0.76 0.24 0 0.78 0.24 0 0.8 0.24 0 0.82 0.24 0 0.84 0.24 0 0.86 0.24 0 0.88 0.24 0 0.9 0.24 0 0.92 0.24 0 0.94 0.24 0 0.96 0.24 0 0.98 0.24 0 1 0.24 0 0 0.26 0 0.02 0.26 0 0.04 0.26 0 0.06 0.26 0 0.08 0.26 0 0.1 0.26 0 0.12 0.26 0 0.14 0.26 0 0.16 0.26 0 0.18 0.26 0 0.2 0.26 0 0.22 0.26 0 0.24 0.26 0 0.26 0.26 0 0.28 0.26 0 0.3 0.26 0 0.32 0.26 0 0.34 0.26 0 0.36 0.26 0 0.38 0.26 0 0.4 0.26 0 0.42 0.26 0 0.44 0.26 0 0.46 0.26 0 0.48 0.26 0 0.5 0.26 0 0.52 0.26 0 0.54 0.26 0 0.56 0.26 0 0.58 0.26 0 0.6 0.26 0 0.62 0.26 0 0.64 0.26 0 0.66 0.26 0 0.68 0.26 0 0.7 0.26 0 0.72 0.26 0 0.74 0.26 0 0.76 0.26 0 0.78 0.26 0 0.8 0.26 0 0.82 0.26 0 0.84 0.26 0 0.86 0.26 0 0.88 0.26 0 0.9 0.26 0 0.92 0.26 0 0.94 0.26 0 0.96 0.26 0 0.98 0.26 0 1 0.26 0 0 0.28 0 0.02 0.28 0 0.04 0.28 0 0.06 0.28 0 0.08 0.28 0 0.1 0.28 0 0.12 0.28 0 0.14 0.28 0 0.16 0.28 0 0.18 0.28 0 0.2 0.28 0 0.22 0.28 0 0.24 0.28 0 0.26 0.28 0 0.28 0.28 0 0.3 0.28 0 0.32 0.28 0 0.34 0.28 0 0.36 0.28 0 0.38 0.28 0 0.4 0.28 0 0.42 0.28 0 0.44 0.28 0 0.46 0.28 0 0.48 0.28 0 0.5 0.28 0 0.52 0.28 0 0.54 0.28 0 0.56 0.28 0 0.58 0.28 0 0.6 0.28 0 0.62 0.28 0 0.64 0.28 0 0.66 0.28 0 0.68 0.28 0 0.7 0.28 0 0.72 0.28 0 0.74 0.28 0 0.76 0.28 0 0.78 0.28 0 0.8 0.28 0 0.82 0.28 0 0.84 0.28 0 0.86 0.28 0 0.88 0.28 0 0.9 0.28 0 0.92 0.28 0 0.94 0.28 0 0.96 0.28 0 0.98 0.28 0 1 0.28 0 0 0.3 0 0.02 0.3 0 0.04 0.3 0 0.06 0.3 0 0.08 0.3 0 0.1 0.3 0 0.12 0.3 0 0.14 0.3 0 0.16 0.3 0 0.18 0.3 0 0.2 0.3 0 0.22 0.3 0 0.24 0.3 0 0.26 0.3 0 0.28 0.3 0 0.3 0.3 0 0.32 0.3 0 0.34 0.3 0 0.36 0.3 0 0.38 0.3 0 0.4 0.3 0 0.42 0.3 0 0.44 0.3 0 0.46 0.3 0 0.48 0.3 0 0.5 0.3 0 0.52 0.3 0 0.54 0.3 0 0.56 0.3 0 0.58 0.3 0 0.6 0.3 0 0.62 0.3 0 0.64 0.3 0 0.66 0.3 0 0.68 0.3 0 0.7 0.3 0 0.72 0.3 0 0.74 0.3 0 0.76 0.3 0 0.78 0.3 0 0.8 0.3 0 0.82 0.3 0 0.84 0.3 0 0.86 0.3 0 0.88 0.3 0 0.9 0.3 0 0.92 0.3 0 0.94 0.3 0 0.96 0.3 0 0.98 0.3 0 1 0.3 0 0 0.32 0 0.02 0.32 0 0.04 0.32 0 0.06 0.32 0 0.08 0.32 0 0.1 0.32 0 0.12 0.32 0 0.14 0.32 0 0.16 0.32 0 0.18 0.32 0 0.2 0.32 0 0.22 0.32 0 0.24 0.32 0 0.26 0.32 0 0.28 0.32 0 0.3 0.32 0 0.32 0.32 0 0.34 0.32 0 0.36 0.32 0 0.38 0.32 0 0.4 0.32 0 0.42 0.32 0 0.44 0.32 0 0.46 0.32 0 0.48 0.32 0 0.5 0.32 0 0.52 0.32 0 0.54 0.32 0 0.56 0.32 0 0.58 0.32 0 0.6 0.32 0 0.62 0.32 0 0.64 0.32 0 0.66 0.32 0 0.68 0.32 0 0.7 0.32 0 0.72 0.32 0 0.74 0.32 0 0.76 0.32 0 0.78 0.32 0 0.8 0.32 0 0.82 0.32 0 0.84 0.32 0 0.86 0.32 0 0.88 0.32 0 0.9 0.32 0 0.92 0.32 0 0.94 0.
[...]
			<PointData Scalars="VitesseX">
				<DataArray Name="VitesseX" type="Float32" format="ascii">
 0 0 0 0 0 0 0 0 0 0 0 0 0 0 0 0 0 0 0 0 0 0 0 0 0 0 0 0 0 0 0 0 0 0 0 0 0 0 0 0 0 0 0 0 0 0 0 0 0 0 -0 0 -0.000162689 -0.000588552 -0.00127962 -0.00222511 -0.00341022 -0.00481642 -0.00642166 -0.00820079 -0.0101259 -0.0121668 -0.0142912 -0.0164638 -0.0186556 -0.0208281 -0.0229462 -0.0249844 -0.0269085 -0.0286775 -0.0302699 -0.0316618 -0.0328311 -0.0337594 -0.0344276 -0.0348431 -0.0351058 -0.035124 -0.0348024 -0.034175 -0.0332755 -0.0321233 -0.030736 -0.0291341 -0.0273484 -0.025411 -0.02335 -0.0211969 -0.0189874 -0.0167571 -0.0145415 -0.0123761 -0.0102954 -0.00833279 -0.00651974 -0.00488537 -0.00345416 -0.00222933 -0.00126833 -0.000569674 -0.000143754 -1.64303e-27 0 -0.000315407 -0.00115596 -0.00252342 -0.00439657 -0.00674624 -0.00953582 -0.0127214 -0.0162512 -0.0200723 -0.0241271 -0.0283627 -0.0326956 -0.0370472 -0.0413601 -0.0455685 -0.0496061 -0.0534096 -0.0569189 -0.060079 -0.0628399 -0.0651582 -0.0669974 -0.0683259 -0.0691272 -0.0694494 -0.0692846 -0.068553 -0.0672673 -0.0654572 -0.0631575 -0.0603967 -0.0572268 -0.0537053 -0.0498807 -0.0458177 -0.0415791 -0.0372325 -0.0328476 -0.0284943 -0.0242411 -0.0201557 -0.016303 -0.0127446 -0.00953724 -0.00673149 -0.00436867 -0.00247477 -0.00110884 -0.000279053 -3.10509e-27 0 -0.000459275 -0.00169952 -0.00372114 -0.00649391 -0.00997225 -0.0140892 -0.0188184 -0.024102 -0.0297672 -0.0357656 -0.0420097 -0.0484039 -0.0548473 -0.061236 -0.0674697 -0.0734501 -0.079083 -0.0842795 -0.0889575 -0.0930432 -0.0964722 -0.0991904 -0.101153 -0.102325 -0.102737 -0.102408 -0.101264 -0.0993185 -0.0966093 -0.0931825 -0.089088 -0.0843957 -0.0791833 -0.0735304 -0.0675289 -0.0612725 -0.0548596 -0.0483926 -0.0419742 -0.0357048 -0.0296834 -0.0240055 -0.0187613 -0.0140343 -0.00989944 -0.00642067 -0.00364658 -0.00163035 -0.000409954 -4.51875e-27 0 -0.000594448 -0.00221466 -0.00486419 -0.0085155 -0.0130967 -0.0185153 -0.0246933 -0.0315401 -0.0389491 -0.046804 -0.0549816 -0.0633563 -0.0717956 -0.0801629 -0.0883268 -0.0961581 -0.103533 -0.110335 -0.116456 -0.1218 -0.126283 -0.129833 -0.132394 -0.133913 -0.134417 -0.133934 -0.132387 -0.129804 -0.126231 -0.121724 -0.116353 -0.110207 -0.103383 -0.0959894 -0.0881442 -0.0799696 -0.0715935 -0.0631493 -0.0547707 -0.0465878 -0.0387294 -0.0313196 -0.0244756 -0.018306 -0.012909 -0.00836953 -0.00475717 -0.00212576 -0.000534399 -5.86186e-27 0 -0.000719039 -0.00269987 -0.00595403 -0.010408 -0.0159728 -0.0225762 -0.0301165 -0.0384754 -0.0475218 -0.0571135 -0.0670996 -0.0773266 -0.0876324 -0.0978494 -0.107817 -0.117377 -0.126377 -0.134677 -0.142143 -0.148658 -0.154119 -0.158442 -0.161556 -0.163393 -0.163981 -0.163352 -0.161423 -0.158237 -0.153852 -0.148331 -0.141763 -0.134255 -0.125926 -0.116908 -0.107343 -0.0973799 -0.0871743 -0.0768885 -0.0666848 -0.0567208 -0.0471527 -0.038131 -0.0297979 -0.0222854 -0.0157132 -0.0101854 -0.00578833 -0.00258875 -0.00065043 -7.11336e-27 0 -0.00084327 -0.00316363 -0.00694112 -0.0121074 -0.0185881 -0.0262824 -0.0350697 -0.044812 -0.0553562 -0.0665366 -0.0781768 -0.0900975 -0.102109 -0.114016 -0.125631 -0.136769 -0.147253 -0.156917 -0.165608 -0.173189 -0.179541 -0.184563 -0.188178 -0.190299 -0.190961 -0.190197 -0.187916 -0.184178 -0.179046 -0.172596 -0.164929 -0.156166 -0.146457 -0.135961 -0.124829 -0.113234 -0.10136 -0.0893974 -0.0775315 -0.0659463 -0.0548223 -0.0443336 -0.0346454 -0.0259105 -0.0182681 -0.0118401 -0.00672777 -0.00301203 -0.000756221 -8.2536e-27 0 -0.000947657 -0.00355843 -0.00780086 -0.0136162 -0.0209141 -0.02958 -0.0394777 -0.0504518 -0.0623297 -0.0749241 -0.0880364 -0.101464 -0.114994 -0.128404 -0.141484 -0.154024 -0.165826 -0.176702 -0.18648 -0.195006 -0.202144 -0.207784 -0.211839 -0.214206 -0.214926 -0.214031 -0.211418 -0.20717 -0.201357 -0.19407 -0.185425 -0.175562 -0.164643 -0.152839 -0.140328 -0.127288 -0.11393 -0.100482 -0.0871427 -0.0741216 -0.0616189 -0.0498309 -0.0389423 -0.0291246 -0.0205338 -0.0133076 -0.007561 -0.00338561 -0.000849946 -9.26469e-27 0 -0.00103955 -0.00389103 -0.00853916 -0.0149137 -0.0229148 -0.0324166 -0.0432698 -0.0553039 -0.0683293 -0.0821408 -0.0965199 -0.111245 -0.126081 -0.140783 -0.155121 -0.168865 -0.181796 -0.19371 -0.204417 -0.213752 -0.221568 -0.227737 -0.232163 -0.234737 -0.235507 -0.234496 -0.231598 -0.226911 -0.220512 -0.212504 -0.203016 -0.192199 -0.180225 -0.167282 -0.153568 -0.139291 -0.124684 -0.109972 -0.0953714 -0.0811201 -0.0674373 -0.0545374 -0.0426217 -0.0318774 -0.022475 -0.0145651 -0.00827502 -0.00370522 -0.000930409 -1.01307e-26 0 -0.00111129 -0.004163 -0.00914461 -0.0159783 -0.0245569 -0.0347455 -0.046384 -0.0592893 -0.073258 -0.0880696 -0.10349 -0.11928 -0.135187 -0.15095 -0.16632 -0.181051 -0.194908 -0.207676 -0.219149 -0.229141 -0.237501 -0.244098 -0.248826 -0.251567 -0.252375 -0.251265 -0.248129 -0.243076 -0.236193 -0.22759 -0.217407 -0.205804 -0.192964 -0.179088 -0.164392 -0.149104 -0.133461 -0.117706 -0.102083 -0.0868327 -0.0721866 -0.0583796 -0.0456261 -0.0341259 -0.0240611 -0.0155929 -0.00885868 -0.00396646 -0.000996288 -1.08381e-26 0 -0.00116385 -0.00437007 -0.0096068 -0.0167921 -0.0258132 -0.0365286 -0.0487696 -0.0623436 -0.0770364 -0.0926159 -0.108835 -0.125443 -0.142173 -0.15875 -0.174913 -0.190401 -0.204968 -0.218382 -0.23043 -0.240923 -0.249696 -0.256616 -0.261571 -0.264433 -0.265265 -0.264068 -0.26074 -0.2554 -0.248137 -0.239071 -0.22835 -0.216144 -0.202645 -0.18806 -0.17262 -0.156561 -0.140129 -0.123583 -0.10718 -0.0911676 -0.0757921 -0.0612977 -0.0479086 -0.0358349 -0.0252672 -0.0163748 -0.00930284 -0.00416529 -0.00104658 -1.13757e-26 0 -0.00119822 -0.00450862 -0.00991782 -0.0173414 -0.0266632 -0.0377369 -0.0503884 -0.0644183 -0.0796054 -0.0957091 -0.112474 -0.129641 -0.146935 -0.164071 -0.180768 -0.196759 -0.211801 -0.225651 -0.238088 -0.248919 -0.257968 -0.265097 -0.270196 -0.273129 -0.273968 -0.272708 -0.269238 -0.263693 -0.25616 -0.246771 -0.235682 -0.223063 -0.209115 -0.194052 -0.178108 -0.161531 -0.144575 -0.127503 -0.110582 -0.0940646 -0.0782023 -0.0632454 -0.0494332 -0.0369773 -0.0260743 -0.0168986 -0.00960053 -0.00429861 -0.00108033 -1.17351e-26 0 -0.00121396 -0.00457619 -0.0100724 -0.0176174 -0.0270932 -0.0383514 -0.0512151 -0.0654816 -0.0809255 -0.0973024 -0.114353 -0.131813 -0.149402 -0.166812 -0.183775 -0.200028 -0.215313 -0.229386 -0.242019 -0.253011 -0.262187 -0.269408 -0.274566 -0.277524 -0.278355 -0.277036 -0.273469 -0.267796 -0.260104 -0.250534 -0.239242 -0.226399 -0.212216 -0.19691 -0.180713 -0.16388 -0.146666 -0.129339 -0.112172 -0.0954204 -0.0793351 -0.0641625 -0.0501456 -0.0375132 -0.0264545 -0.0171463 -0.00974164 -0.00436184 -0.00109601 -1.19105e-26 0 -0.00121053 -0.00457041 -0.0100646 -0.017608 -0.027083 -0.0383413 -0.051206 -0.0654746 -0.080922 -0.0973041 -0.114363 -0.131835 -0.149414 -0.166824 -0.1838 -0.200069 -0.215363 -0.22944 -0.242074 -0.253066 -0.26224 -0.269453 -0.2746 -0.277545 -0.278363 -0.277028 -0.273451 -0.267765 -0.26006 -0.25048 -0.239179 -0.226327 -0.212133 -0.196817 -0.180619 -0.163792 -0.146579 -0.129255 -0.112094 -0.0953527 -0.079285 -0.0641261 -0.0501157 -0.0374876 -0.0264378 -0.0171362 -0.00973615 -0.00435941 -0.00109537 -1.18993e-26 0 -0.00118844 -0.00449417 -0.00990286 -0.0173318 -0.026666 -0.0377599 -0.0504395 -0.0645053 -0.0797353 -0.0958883 -0.112708 -0.129924 -0.147252 -0.164422 -0.181163 -0.197194 -0.212257 -0.226119 -0.238556 -0.24936 -0.258362 -0.265422 -0.270429 -0.273248 -0.273983 -0.272626 -0.269074 -0.263445 -0.255832 -0.246379 -0.235235 -0.22257 -0.208589 -0.19351 -0.177569 -0.161013 -0.144088 -0.127061 -0.110191 -0.0937329 -0.0779416 -0.0630514 -0.0492821 -0.0368601 -0.0259979 -0.0168528 -0.00957599 -0.00428799 -0.00107748 -1.17016e-26 0 -0.00114769 -0.00434672 -0.00958389 -0.0167802 -0.025825 -0.0365777 -0.0488699 -0.0625085 -0.0772782 -0.0929449 -0.10926 -0.125938 -0.142739 -0.159395 -0.175621 -0.191151 -0.205748 -0.21918 -0.231215 -0.24166 -0.250356 -0.257161 -0.261965 -0.264639 -0.265303 -0.263923 -0.260449 -0.254965 -0.247563 -0.238384 -0.227573 -0.215292 -0.201744 -0.187138 -0.171704 -0.155681 -0.139309 -0.122843 -0.106536 -0.0906266 -0.0753605 -0.0609723 -0.0476661 -0.0356552 -0.025147 -0.016303 -0.00926479 -0.00414906 -0.00104264 -1.13207e-26 0 -0.00108894 -0.00413094 -0.0091143 -0.0159652 -0.0245792 -0.034823 -0.0465364 -0.0595355 -0.0736149 -0.0885505 -0.104092 -0.119991 -0.136011 -0.151885 -0.167341 -0.182134 -0.196041 -0.208824 -0.220262 -0.230186 -0.238438 -0.244882 -0.249405 -0.251885 -0.25246 -0.251044 -0.247686 -0.242416 -0.235337 -0.226584 -0.216286 -0.204597 -0.191701 -0.1778 -0.163116 -0.147879 -0.132318 -0.116675 -0.101187 -0.0860838 -0.0715855 -0.0579216 -0.0452932 -0.0338878 -0.0238981 -0.0154955 -0.00880734 -0.00394475 -0.000991392 -1.07625e-26 0 -0.0010131 -0.00385013 -0.00850137 -0.0148997 -0.022949 -0.0325243 -0.0434768 -0.0556343 -0.068805 -0.0827815 -0.0973017 -0.112177 -0.127169 -0.142009 -0.15645 -0.170283 -0.183281 -0.195201 -0.205866 -0.215111 -0.222787 -0.228768 -0.232938 -0.235169 -0.235614 -0.234096 -0.230799 -0.225736 -0.219038 -0.210846 -0.201295 -0.190503 -0.178556 -0.165626 -0.151939 -0.137731 -0.123225 -0.108651 -0.094231 -0.080171 -0.0666739 -0.0539505 -0.042198 -0.0315788 -0.0222704 -0.0144427 -0.00821076 -0.00367825 -0.000924539 -1.00335e-26 0 -0.000921718 -0.00350833 -0.00775517 -0.013602 -0.0209603 -0.0297172 -0.0397375 -0.0508643 -0.0629216 -0.0757158 -0.0890067 -0.102624 -0.116348 -0.129921 -0.14313 -0.155782 -0.167656 -0.178528 -0.188249 -0.196662 -0.203635 -0.209049 -0.212772 -0.214644 -0.214862 -0.213387 -0.210285 -0.205581 -0.199385 -0.191792 -0.182925 -0.173001 -0.162197 -0.150647 -0.138312 -0.125391 -0.112177 -0.0989019 -0.0857728 -0.072979 -0.0607048 -0.0491245 -0.0384298 -0.0287656 -0.0202911 -0.0131613 -0.00748434 -0.0033537 -0.000843126 -9.14251e-27 0 -0.000816874 -0.0031144 -0.00688924 -0.0120899 -0.0186424 -0.0264467 -0.0353811 -0.0453039 -0.0560575 -0.0674639 -0.0793273 -0.0914798 -0.103716 -0.115811 -0.127588 -0.13886 -0.149407 -0.159062 -0.167678 -0.175119 -0.181266 -0.185994 -0.189142 -0.190646 -0.1908 -0.189479 -0.186668 -0.182424 -0.176856 -0.170044 -0.162082 -0.153134 -0.143363 -0.13298 -0.122232 -0.111014 -0.0993444 -0.0875841 -0.075956 -0.0646314 -0.0537701 -0.043522 -0.0340527 -0.0254965 -0.0179915 -0.0116716 -0.00663949 -0.00297618 -0.000748427 -8.10802e-27 0 -0.000699365 -0.00267267 -0.00591827 -0.0103946 -0.0160389 -0.022766 -0.0304722 -0.0390371 -0.0483217 -0.0581695 -0.0684196 -0.0789152 -0.0894723 -0.0999049 -0.110062 -0.119769 -0.128827 -0.13711 -0.144483 -0.150829 -0.156038 -0.159957 -0.162485 -0.163711 -0.163807 -0.162598 -0.160097 -0.156366 -0.151501 -0.145586 -0.138709 -0.130995 -0.122578 -0.113553 -0.104125 -0.0946351 -0.0849061 -0.0748741 -0.0649337 -0.0552566 -0.0459789 -0.0372275 -0.0291323 -0.0218213 -0.0154057 -0.00999656 -0.00568946 -0.0025516 -0.000641925 -6.9511e-27 0 -0.000571027 -0.00218903 -0.004857 -0.00854281 -0.0131934 -0.0187408 -0.0251005 -0.0321729 -0.0398425 -0.0479787 -0.0564523 -0.0651262 -0.0738406 -0.0824475 -0.0908199 -0.0988038 -0.106239 -0.113017 -0.119026 -0.124166 -0.128332 -0.13138 -0.133327 -0.134245 -0.134229 -0.133128 -0.130976 -0.127819 -0.123733 -0.118803 -0.113109 -0.106741 -0.0998345 -0.0924539 -0.0846943 -0.076738 -0.0689408 -0.0609659 -0.0528804 -0.0450049 -0.0374585 -0.0303398 -0.023748 -0.0177986 -0.0125735 -0.00816232 -0.00464917 -0.00208661 -0.000525291 -5.68556e-27 0 -0.000435084 -0.00167337 -0.00372223 -0.0065594 -0.0101472 -0.0144339 -0.0193532 -0.0248257 -0.0307625 -0.0370616 -0.0436192 -0.0503298 -0.0570654 -0.0637044 -0.070147 -0.0762727 -0.0819571 -0.0871116 -0.0916482 -0.0954891 -0.098557 -0.100771 -0.102132 -0.102692 -0.10253 -0.101547 -0.0997731 -0.0972367 -0.093996 -0.0901323 -0.0857071 -0.080781 -0.0754831 -0.0698488 -0.0639587 -0.0578801 -0.0518019 -0.0460261 -0.039981 -0.0340341 -0.0283372 -0.022966 -0.0179886 -0.0134939 -0.00954058 -0.00619827 -0.00353492 -0.00158853 -0.000400355 -4.33096e-27 0 -0.000293596 -0.00113481 -0.00253334 -0.00447888 -0.00694797 -0.00990627 -0.0133085 -0.0170998 -0.0212166 -0.0255854 -0.0301234 -0.0347599 -0.0394096 -0.043978 -0.0483858 -0.052549 -0.0563881 -0.0598353 -0.0628302 -0.065322 -0.0672683 -0.0686326 -0.069391 -0.0695466 -0.0692149 -0.0683492 -0.0669694 -0.0650884 -0.0627476 -0.0600159 -0.0569318 -0.0535318 -0.0499209 -0.0461161 -0.0421695 -0.0381302 -0.0340501 -0.0302072 -0.0264262 -0.0225124 -0.0187594 -0.015222 -0.0119405 -0.00897076 -0.00635402 -0.00413588 -0.00236417 -0.00106517 -0.000269081 -2.90857e-27 0 -0.000148895 -0.000583332 -0.00131248 -0.00233743 -0.00364893 -0.00523305 -0.00706555 -0.00911564 -0.0113468 -0.0137158 -0.016168 -0.0186621 -0.0211533 -0.0235812 -0.025892 -0.0280365 -0.0299757 -0.031666 -0.0330744 -0.034175 -0.0349516 -0.0354079 -0.0355632 -0.03534 -0.0347765 -0.0340175 -0.033057 -0.0318653 -0.0304737 -0.0289185 -0.0272254 -0.0254155 -0.0235445 -0.0216309 -0.0196876 -0.0177402 -0.0157997 -0.0139524 -0.0123961 -0.0106089 -0.00886789 -0.00722685 -0.0056971 -0.0043012 -0.00306492 -0.00200721 -0.00115521 -0.000524787 -0.000133531 -1.44099e-27 0 -5.87201e-06 -3.021e-05 -8.30226e-05 -0.000173687 -0.000308492 -0.000493719 -0.000726156 -0.00100192 -0.00131258 -0.00164508 -0.00197483 -0.00229128 -0.00258338 -0.00283195 -0.00301417 -0.00310858 -0.00311621 -0.00302144 -0.00281795 -0.00250621 -0.0020949 -0.00160937 -0.00108455 -0.000532561 0.000248683 0.000898271 0.00143331 0.00191784 0.00233623 0.00269682 0.00297383 0.00315791 0.0032531 0.00324461 0.00314703 0.0029689 0.00272584 0.00242969 0.00190546 0.0015024 0.00119006 0.000900398 0.000647435 0.000440551 0.000274561 0.000154969 7.31063e-05 2.43287e-05 4.08372e-06 3.47024e-29 0 0.00013103 0.000516558 0.00114095 0.00198446 0.00302598 0.00424305 0.00561539 0.00712001 0.00873755 0.0104481 0.0122443 0.0141093 0.0160208 0.0179566 0.0199047 0.0218586 0.0237878 0.025665 0.0274755 0.0291895 0.0307716 0.0321804 0.033376 0.0343326 0.0351462 0.0357 0.0358546 0.0356545 0.035116 0.0342852 0.0331561 0.0317334 0.030051 0.0281222 0.0259849 0.0236821 0.0212616 0.0187752 0.0161618 0.0135958 0.0112317 0.00901471 0.00698278 0.00517533 0.00361059 0.00231586 0.00130122 0.000574504 0.000142947 1.51869e-27 0 0.00026645 0.00105637 0.00234807 0.00411156 0.00631131 0.00890685 0.0118558 0.0151119 0.0186283 0.0223527 0.0262419 0.0302539 0.0343312 0.0384196 0.0424718 0.0464366 0.0502598 0.0538907 0.0572755 0.0603606 0.0630877 0.0653991 0.0672512 0.0685997 0.0694846 0.0698813 0.0696593 0.0688014 0.0673364 0.065353 0.0628563 0.0598628 0.0564325 0.0526137 0.0484731 0.0440839 0.0395268 0.0348856 0.0301572 0.0254717 0.0210962 0.0169885 0.0132112 0.00983112 0.00689343 0.00444344 0.00251078 0.00111755 0.000280865 2.98545e-27 0 0.000397754 0.00157938 0.00351764 0.00617266 0.00949489 0.0134263 0.0179033 0.0228558 0.0282099 0.0338867 0.039809 0.0459013 0.052076 0.0582489 0.0643362 0.0702526 0.0759082 0.0812257 0.0861289 0.0905361 0.0943695 0.0975556 0.100044 0.101773 0.102757 0.102973 0.10236 0.100849 0.0985131 0.0954234 0.0915904 0.0870685 0.0819455 0.0762962 0.0702183 0.0638148 0.0571969 0.0504838 0.043706 0.0369514 0.0306314 0.0246973 0.0192342 0.0143342 0.0100694 0.00650228 0.00368184 0.00164423 0.00041505 4.40781e-27 0 0.000523385 0.00207733 0.00463122 0.00813527 0.0125266 0.0177307 0.0236634 0.0302318 0.0373364 0.0448712 0.0527304 0.0608032 0.0689769 0.0771328 0.0851506 0.0929238 0.100335 0.107257 0.113589 0.119252 0.124137 0.128157 0.131249 0.13334 0.134427 0.134464 0.133465 0.131336 0.128173 0.124012 0.118895 0.112913 0.106173 0.0987782 0.0908565 0.0825401 0.0739682 0.0652909 0.0565728 0.0478545 0.0396873 0.03202 0.0249567 0.0186136 0.0130878 0.00846001 0.00479644 0.0021457 0.000543118 5.76156e-27 0 0.000640272 0.00254239 0.00567132 0.00996854 0.0153589 0.0217524 0.0290456 0.0371244 0.0458648 0.0551355 0.0648007 0.0747235 0.0847658 0.0947756 0.104596 0.114093 0.123134 0.131569 0.139259 0.146078 0.151927 0.156724 0.160376 0.162804 0.163977 0.163856 0.162493 0.15979 0.155828 0.150651 0.14433 0.136986 0.128753 0.119755 0.110135 0.100044 0.0896508 0.0791379 0.068583 0.0580077 0.048122 0.0388417 0.030289 0.0226023 0.0159018 0.0102866 0.00583745 0.0026137 0.000662917 7.0248e-27 0 0.000746751 0.00296727 0.00662164 0.0116437 0.0179474 0.0254282 0.0339656 0.0434254 0.0536616 0.064519 0.0758359 0.0874483 0.0991939 0.110896 0.122367 0.133437 0.143951 0.153754 0.162683 0.170583 0.177335 0.182833 0.186984 0.189705 0.190942 0.190679 0.188986 0.185743 0.181034 0.174926 0.167527 0.158979 0.149406 0.138948 0.127774 0.116061 0.104003 0.0918136 0.0795404 0.067249 0.0558036 0.0450557 0.0351475 0.0262378 0.0184675 0.0119526 0.00678754 0.00304152 0.000772092 8.17736e-27 0 0.000841548 0.0033452 0.0074673 0.0131346 0.0202513 0.0287005 0.0383461 0.0490361 0.0606046 0.0728752 0.0856628 0.0987794 0.112036 0.125241 0.138182 0.150658 0.162482 0.173484 0.183493 0.192349 0.199902 0.206026 0.210619 0.213603 0.214902 0.214516 0.212519 0.208782 0.20341 0.196495 0.188165 0.178545 0.167764 0.155986 0.143411 0.130249 0.116715 0.103046 0.0892232 0.0754343 0.0626126 0.0505651 0.0394564 0.0294636 0.0207447 0.0134317 0.00763158 0.00342241 0.000869197 9.20131e-27 0 0.00092321 0.00367046 0.0081951 0.0144178 0.0222347 0.0315181 0.0421185 0.0538686 0.0665853 0.0800735 0.0941282 0.10854 0.123097 0.137588 0.15179 0.165477 0.178436 0.190473 0.201405 0.211061 0.219286 0.225942 0.230918 0.234127 0.235483 0.234988 0.232721 0.228558 0.222626 0.215028 0.20588 0.195297 0.183457 0.170553 0.156792 0.142396 0.127601 0.112663 0.0974554 0.0824414 0.068444 0.0552842 0.0431485 0.0322295 0.0226979 0.0147009 0.00835658 0.00374955 0.000953153 1.00806e-26 0 0.000990522 0.0039404 0.00879368 0.0154733 0.0238666 0.0338368 0.0452238 0.0578473 0.0715101 0.0860014 0.1011 0.116578 0.132208 0.147751 0.16298 0.177656 0.191549 0.204444 0.216136 0.226449 0.235216 0.242298 0.247578 0.250963 0.252348 0.251764 0.249275 0.244763 0.238368 0.230191 0.220343 0.208982 0.19629 0.182467 0.167734 0.152328 0.136506 0.120515 0.104089 0.0881563 0.0732072 0.0591396 0.046165 0.0344915 0.0242963 0.0157401 0.00895102 0.0040179 0.00102214 1.08012e-26 0 0.00104209 0.00414716 0.00925373 0.0162848 0.0251215 0.0356205 0.0476135 0.0609102 0.0753022 0.0905666 0.106469 0.122768 0.139223 0.155583 0.171593 0.187013 0.201613 0.21516 0.227438 0.238256 0.247435 0.254832 0.260331 0.263838 0.265233 0.264578 0.261913 0.257128 0.250369 0.241735 0.23136 0.219406 0.20606 0.191535 0.176061 0.159887 0.143287 0.126455 0.109044 0.0924938 0.0768257 0.0620712 0.0484576 0.0362126 0.0255144 0.0165329 0.00940569 0.0042231 0.00107495 1.13517e-26 0 0.0010773 0.00428769 0.0095681 0.0168395 0.0259799 0.0368415 0.0492504 0.0630094 0.0779025 0.093698 0.110153 0.127015 0.144034 0.160951 0.177499 0.193428 0.208491 0.222468 0.235137 0.246289 0.255739 0.263337 0.268971 0.272549 0.273939 0.273229 0.270434 0.265453 0.258438 0.249493 0.238758 0.226399 0.212611 0.197611 0.181639 0.164951 0.147837 0.130327 0.112313 0.0953922 0.0792444 0.0640337 0.0499921 0.0373664 0.026333 0.0170669 0.00971335 0.00436183 0.00111074 1.17234e-26 0 0.00109559 0.00436076 0.00973319 0.017129 0.0264285 0.0374808 0.0501091 0.0641126 0.0792708 0.0953471 0.112093 0.129252 0.146567 0.163772 0.180598 0.196787 0.212092 0.22628 0.239126 0.250432 0.260005 0.267687 0.27337 0.276964 0.278331 0.277571 0.274685 0.269583 0.262421 0.253305 0.242378 0.229809 0.215795 0.200557 0.184338 0.167403 0.15003 0.131899 0.113835 0.0967554 0.0803893 0.0649691 0.0507287 0.0379241 0.0267324 0.0173297 0.00986711 0.00443118 0.00112889 1.19105e-26 0 0.00109659 0.00436584 0.00974747 0.0171464 0.026456 0.0375213 0.0501653 0.064187 0.0793653 0.0954625 0.112229 0.129407 0.146739 0.163958 0.180792 0.196984 0.212286 0.226465 0.239298 0.250588 0.260137 0.26779 0.273443 0.277003 0.278343 0.27757 0.27468 0.269577 0.262413 0.253296 0.242369 0.229799 0.215786 0.20055 0.184333 0.167414 0.1499 0.131413 0.113752 0.096712 0.0803591 0.0649496 0.0507188 0.0379188 0.0267314 0.0173311 0.009