<?xml version="1.0"?>
<VTKFile type="PolyData">
	<PolyData>
		<Piece NumberOfPoints="2601" NumberOfPolys="2500">
			<Points>
				<DataArray type="Float32" NumberOfComponents="3" format="ascii">
 0 0 0 0.02 0 0 0.04 0 0 0.06 0 0 0.08 0 0 0.1 0 0 0.12 0 0 0.14 0 0 0.16 0 0 0.18 0 0 0.2 0 0 0.22 0 0 0.24 0 0 0.26 0 0 0.28 0 0 0.3 0 0 0.32 0 0 0.34 0 0 0.36 0 0 0.38 0 0 0.4 0 0 0.42 0 0 0.44 0 0 0.46 0 0 0.48 0 0 0.5 0 0 0.52 0 0 0.54 0 0 0.56 0 0 0.58 0 0 0.6 0 0 0.62 0 0 0.64 0 0 0.66 0 0 0.68 0 0 0.7 0 0 0.72 0 0 0.74 0 0 0.76 0 0 0.78 0 0 0.8 0 0 0.82 0 0 0.84 0 0 0.86 0 0 0.88 0 0 0.9 0 0 0.92 0 0 0.94 0 0 0.96 0 0 0.98 0 0 1 0 0 0 0.02 0 0.02 0.02 0 0.04 0.02 0 0.06 0.02 0 0.08 0.02 0 0.1 0.02 0 0.12 0.02 0 0.14 0.02 0 0.16 0.02 0 0.18 0.02 0 0.2 0.02 0 0.22 0.02 0 0.24 0.02 0 0.26 0.02 0 0.28 0.02 0 0.3 0.02 0 0.32 0.02 0 0.34 0.02 0 0.36 0.02 0 0.38 0.02 0 0.4 0.02 0 0.42 0.02 0 0.44 0.02 0 0.46 0.02 0 0.48 0.02 0 0.5 0.02 0 0.52 0.02 0 0.54 0.02 0 0.56 0.02 0 0.58 0.02 0 0.6 0.02 0 0.62 0.02 0 0.64 0.02 0 0.66 0.02 0 0.68 0.02 0 0.7 0.02 0 0.72 0.02 0 0.74 0.02 0 0.76 0.02 0 0.78 0.02 0 0.8 0.02 0 0.82 0.02 0 0.84 0.02 0 0.86 0.02 0 0.88 0.02 0 0.9 0.02 0 0.92 0.02 0 0.94 0.02 0 0.96 0.02 0 0.98 0.02 0 1 0.02 0 0 0.04 0 0.02 0.04 0 0.04 0.04 0 0.06 0.04 0 0.08 0.04 0 0.1 0.04 0 0.12 0.04 0 0.14 0.04 0 0.16 0.04 0 0.18 0.04 0 0.2 0.04 0 0.22 0.04 0 0.24 0.04 0 0.26 0.04 0 0.28 0.04 0 0.3 0.04 0 0.32 0.04 0 0.34 0.04 0 0.36 0.04 0 0.38 0.04 0 0.4 0.04 0 0.42 0.04 0 0.44 0.04 0 0.46 0.04 0 0.48 0.04 0 0.5 0.04 0 0.52 0.04 0 0.54 0.04 0 0.56 0.04 0 0.58 0.04 0 0.6 0.04 0 0.62 0.04 0 0.64 0.04 0 0.66 0.04 0 0.68 0.04 0 0.7 0.04 0 0.72 0.04 0 0.74 0.04 0 0.76 0.04 0 0.78 0.04 0 0.8 0.04 0 0.82 0.04 0 0.84 0.04 0 0.86 0.04 0 0.88 0.04 0 0.9 0.04 0 0.92 0.04 0 0.94 0.04 0 0.96 0.04 0 0.98 0.04 0 1 0.04 0 0 0.06 0 0.02 0.06 0 0.04 0.06 0 0.06 0.06 0 0.08 0.06 0 0.1 0.06 0 0.12 0.06 0 0.14 0.06 0 0.16 0.06 0 0.18 0.06 0 0.2 0.06 0 0.22 0.06 0 0.24 0.06 0 0.26 0.06 0 0.28 0.06 0 0.3 0.06 0 0.32 0.06 0 0.34 0.06 0 0.36 0.06 0 0.38 0.06 0 0.4 0.06 0 0.42 0.06 0 0.44 0.06 0 0.46 0.06 0 0.48 0.06 0 0.5 0.06 0 0.52 0.06 0 0.54 0.06 0 0.56 0.06 0 0.58 0.06 0 0.6 0.06 0 0.62 0.06 0 0.64 0.06 0 0.66 0.06 0 0.68 0.06 0 0.7 0.06 0 0.72 0.06 0 0.74 0.06 0 0.76 0.06 0 0.78 0.06 0 0.8 0.06 0 0.82 0.06 0 0.84 0.06 0 0.86 0.06 0 0.88 0.06 0 0.9 0.06 0 0.92 0.06 0 0.94 0.06 0 0.96 0.06 0 0.98 0.06 0 1 0.06 0 0 0.08 0 0.02 0.08 0 0.04 0.08 0 0.06 0.08 0 0.08 0.08 0 0.1 0.08 0 0.12 0.08 0 0.14 0.08 0 0.16 0.08 0 0.18 0.08 0 0.2 0.08 0 0.22 0.08 0 0.24 0.08 0 0.26 0.08 0 0.28 0.08 0 0.3 0.08 0 0.32 0.08 0 0.34 0.08 0 0.36 0.08 0 0.38 0.08 0 0.4 0.08 0 0.42 0.08 0 0.44 0.08 0 0.46 0.08 0 0.48 0.08 0 0.5 0.08 0 0.52 0.08 0 0.54 0.08 0 0.56 0.08 0 0.58 0.08 0 0.6 0.08 0 0.62 0.08 0 0.64 0.08 0 0.66 0.08 0 0.68 0.08 0 0.7 0.08 0 0.72 0.08 0 0.74 0.08 0 0.76 0.08 0 0.78 0.08 0 0.8 0.08 0 0.82 0.08 0 0.84 0.08 0 0.86 0.08 0 0.88 0.08 0 0.9 0.08 0 0.92 0.08 0 0.94 0.08 0 0.96 0.08 0 0.98 0.08 0 1 0.08 0 0 0.1 0 0.02 0.1 0 0.04 0.1 0 0.06 0.1 0 0.08 0.1 0 0.1 0.1 0 0.12 0.1 0 0.14 0.1 0 0.16 0.1 0 0.18 0.1 0 0.2 0.1 0 0.22 0.1 0 0.24 0.1 0 0.26 0.1 0 0.28 0.1 0 0.3 0.1 0 0.32 0.1 0 0.34 0.1 0 0.36 0.1 0 0.38 0.1 0 0.4 0.1 0 0.42 0.1 0 0.44 0.1 0 0.46 0.1 0 0.48 0.1 0 0.5 0.1 0 0.52 0.1 0 0.54 0.1 0 0.56 0.1 0 0.58 0.1 0 0.6 0.1 0 0.62 0.1 0 0.64 0.1 0 0.66 0.1 0 0.68 0.1 0 0.7 0.1 0 0.72 0.1 0 0.74 0.1 0 0.76 0.1 0 0.78 0.1 0 0.8 0.1 0 0.82 0.1 0 0.84 0.1 0 0.86 0.1 0 0.88 0.1 0 0.9 0.1 0 0.92 0.1 0 0.94 0.1 0 0.96 0.1 0 0.98 0.1 0 1 0.1 0 0 0.12 0 0.02 0.12 0 0.04 0.12 0 0.06 0.12 0 0.08 0.12 0 0.1 0.12 0 0.12 0.12 0 0.14 0.12 0 0.16 0.12 0 0.18 0.12 0 0.2 0.12 0 0.22 0.12 0 0.24 0.12 0 0.26 0.12 0 0.28 0.12 0 0.3 0.12 0 0.32 0.12 0 0.34 0.12 0 0.36 0.12 0 0.38 0.12 0 0.4 0.12 0 0.42 0.12 0 0.44 0.12 0 0.46 0.12 0 0.48 0.12 0 0.5 0.12 0 0.52 0.12 0 0.54 0.12 0 0.56 0.12 0 0.58 0.12 0 0.6 0.12 0 0.62 0.12 0 0.64 0.12 0 0.66 0.12 0 0.68 0.12 0 0.7 0.12 0 0.72 0.12 0 0.74 0.12 0 0.76 0.12 0 0.78 0.12 0 0.8 0.12 0 0.82 0.12 0 0.84 0.12 0 0.86 0.12 0 0.88 0.12 0 0.9 0.12 0 0.92 0.12 0 0.94 0.12 0 0.96 0.12 0 0.98 0.12 0 1 0.12 0 0 0.14 0 0.02 0.14 0 0.04 0.14 0 0.06 0.14 0 0.08 0.14 0 0.1 0.14 0 0.12 0.14 0 0.14 0.14 0 0.16 0.14 0 0.18 0.14 0 0.2 0.14 0 0.22 0.14 0 0.24 0.14 0 0.26 0.14 0 0.28 0.14 0 0.3 0.14 0 0.32 0.14 0 0.34 0.14 0 0.36 0.14 0 0.38 0.14 0 0.4 0.14 0 0.42 0.14 0 0.44 0.14 0 0.46 0.14 0 0.48 0.14 0 0.5 0.14 0 0.52 0.14 0 0.54 0.14 0 0.56 0.14 0 0.58 0.14 0 0.6 0.14 0 0.62 0.14 0 0.64 0.14 0 0.66 0.14 0 0.68 0.14 0 0.7 0.14 0 0.72 0.14 0 0.74 0.14 0 0.76 0.14 0 0.78 0.14 0 0.8 0.14 0 0.82 0.14 0 0.84 0.14 0 0.86 0.14 0 0.88 0.14 0 0.9 0.14 0 0.92 0.14 0 0.94 0.14 0 0.96 0.14 0 0.98 0.14 0 1 0.14 0 0 0.16 0 0.02 0.16 0 0.04 0.16 0 0.06 0.16 0 0.08 0.16 0 0.1 0.16 0 0.12 0.16 0 0.14 0.16 0 0.16 0.16 0 0.18 0.16 0 0.2 0.16 0 0.22 0.16 0 0.24 0.16 0 0.26 0.16 0 0.28 0.16 0 0.3 0.16 0 0.32 0.16 0 0.34 0.16 0 0.36 0.16 0 0.38 0.16 0 0.4 0.16 0 0.42 0.16 0 0.44 0.16 0 0.46 0.16 0 0.48 0.16 0 0.5 0.16 0 0.52 0.16 0 0.54 0.16 0 0.56 0.16 0 0.58 0.16 0 0.6 0.16 0 0.62 0.16 0 0.64 0.16 0 0.66 0.16 0 0.68 0.16 0 0.7 0.16 0 0.72 0.16 0 0.74 0.16 0 0.76 0.16 0 0.78 0.16 0 0.8 0.16 0 0.82 0.16 0 0.84 0.16 0 0.86 0.16 0 0.88 0.16 0 0.9 0.16 0 0.92 0.16 0 0.94 0.16 0 0.96 0.16 0 0.98 0.16 0 1 0.16 0 0 0.18 0 0.02 0.18 0 0.04 0.18 0 0.06 0.18 0 0.08 0.18 0 0.1 0.18 0 0.12 0.18 0 0.14 0.18 0 0.16 0.18 0 0.18 0.18 0 0.2 0.18 0 0.22 0.18 0 0.24 0.18 0 0.26 0.18 0 0.28 0.18 0 0.3 0.18 0 0.32 0.18 0 0.34 0.18 0 0.36 0.18 0 0.38 0.18 0 0.4 0.18 0 0.42 0.18 0 0.44 0.18 0 0.46 0.18 0 0.48 0.18 0 0.5 0.18 0 0.52 0.18 0 0.54 0.18 0 0.56 0.18 0 0.58 0.18 0 0.6 0.18 0 0.62 0.18 0 0.64 0.18 0 0.66 0.18 0 0.68 0.18 0 0.7 0.18 0 0.72 0.18 0 0.74 0.18 0 0.76 0.18 0 0.78 0.18 0 0.8 0.18 0 0.82 0.18 0 0.84 0.18 0 0.86 0.18 0 0.88 0.18 0 0.9 0.18 0 0.92 0.18 0 0.94 0.18 0 0.96 0.18 0 0.98 0.18 0 1 0.18 0 0 0.2 0 0.02 0.2 0 0.04 0.2 0 0.06 0.2 0 0.08 0.2 0 0.1 0.2 0 0.12 0.2 0 0.14 0.2 0 0.16 0.2 0 0.18 0.2 0 0.2 0.2 0 0.22 0.2 0 0.24 0.2 0 0.26 0.2 0 0.28 0.2 0 0.3 0.2 0 0.32 0.2 0 0.34 0.2 0 0.36 0.2 0 0.38 0.2 0 0.4 0.2 0 0.42 0.2 0 0.44 0.2 0 0.46 0.2 0 0.48 0.2 0 0.5 0.2 0 0.52 0.2 0 0.54 0.2 0 0.56 0.2 0 0.58 0.2 0 0.6 0.2 0 0.62 0.2 0 0.64 0.2 0 0.66 0.2 0 0.68 0.2 0 0.7 0.2 0 0.72 0.2 0 0.74 0.2 0 0.76 0.2 0 0.78 0.2 0 0.8 0.2 0 0.82 0.2 0 0.84 0.2 0 0.86 0.2 0 0.88 0.2 0 0.9 0.2 0 0.92 0.2 0 0.94 0.2 0 0.96 0.2 0 0.98 0.2 0 1 0.2 0 0 0.22 0 0.02 0.22 0 0.04 0.22 0 0.06 0.22 0 0.08 0.22 0 0.1 0.22 0 0.12 0.22 0 0.14 0.22 0 0.16 0.22 0 0.18 0.22 0 0.2 0.22 0 0.22 0.22 0 0.24 0.22 0 0.26 0.22 0 0.28 0.22 0 0.3 0.22 0 0.32 0.22 0 0.34 0.22 0 0.36 0.22 0 0.38 0.22 0 0.4 0.22 0 0.42 0.22 0 0.44 0.22 0 0.46 0.22 0 0.48 0.22 0 0.5 0.22 0 0.52 0.22 0 0.54 0.22 0 0.56 0.22 0 0.58 0.22 0 0.6 0.22 0 0.62 0.22 0 0.64 0.22 0 0.66 0.22 0 0.68 0.22 0 0.7 0.22 0 0.72 0.22 0 0.74 0.22 0 0.76 0.22 0 0.78 0.22 0 0.8 0.22 0 0.82 0.22 0 0.84 0.22 0 0.86 0.22 0 0.88 0.22 0 0.9 0.22 0 0.92 0.22 0 0.94 0.22 0 0.96 0.22 0 0.98 0.22 0 1 0.22 0 0 0.24 0 0.02 0.24 0 0.04 0.24 0 0.06 0.24 0 0.08 0.24 0 0.1 0.24 0 0.12 0.24 0 0.14 0.24 0 0.16 0.24 0 0.18 0.24 0 0.2 0.24 0 0.22 0.24 0 0.24 0.24 0 0.26 0.24 0 0.28 0.24 0 0.3 0.24 0 0.32 0.24 0 0.34 0.24 0 0.36 0.24 0 0.38 0.24 0 0.4 0.24 0 0.42 0.24 0 0.44 0.24 0 0.46 0.24 0 0.48 0.24 0 0.5 0.24 0 0.52 0.24 0 0.54 0.24 0 0.56 0.24 0 0.58 0.24 0 0.6 0.24 0 0.62 0.24 0 0.64 0.24 0 0.66 0.24 0 0.68 0.24 0 0.7 0.24 0 0.72 0.24 0 0.74 0.24 0 0.76 0.24 0 0.78 0.24 0 0.8 0.24 0 0.82 0.24 0 0.84 0.24 0 0.86 0.24 0 0.88 0.24 0 0.9 0.24 0 0.92 0.24 0 0.94 0.24 0 0.96 0.24 0 0.98 0.24 0 1 0.24 0 0 0.26 0 0.02 0.26 0 0.04 0.26 0 0.06 0.26 0 0.08 0.26 0 0.1 0.26 0 0.12 0.26 0 0.14 0.26 0 0.16 0.26 0 0.18 0.26 0 0.2 0.26 0 0.22 0.26 0 0.24 0.26 0 0.26 0.26 0 0.28 0.26 0 0.3 0.26 0 0.32 0.26 0 0.34 0.26 0 0.36 0.26 0 0.38 0.26 0 0.4 0.26 0 0.42 0.26 0 0.44 0.26 0 0.46 0.26 0 0.48 0.26 0 0.5 0.26 0 0.52 0.26 0 0.54 0.26 0 0.56 0.26 0 0.58 0.26 0 0.6 0.26 0 0.62 0.26 0 0.64 0.26 0 0.66 0.26 0 0.68 0.26 0 0.7 0.26 0 0.72 0.26 0 0.74 0.26 0 0.76 0.26 0 0.78 0.26 0 0.8 0.26 0 0.82 0.26 0 0.84 0.26 0 0.86 0.26 0 0.88 0.26 0 0.9 0.26 0 0.92 0.26 0 0.94 0.26 0 0.96 0.26 0 0.98 0.26 0 1 0.26 0 0 0.28 0 0.02 0.28 0 0.04 0.28 0 0.06 0.28 0 0.08 0.28 0 0.1 0.28 0 0.12 0.28 0 0.14 0.28 0 0.16 0.28 0 0.18 0.28 0 0.2 0.28 0 0.22 0.28 0 0.24 0.28 0 0.26 0.28 0 0.28 0.28 0 0.3 0.28 0 0.32 0.28 0 0.34 0.28 0 0.36 0.28 0 0.38 0.28 0 0.4 0.28 0 0.42 0.28 0 0.44 0.28 0 0.46 0.28 0 0.48 0.28 0 0.5 0.28 0 0.52 0.28 0 0.54 0.28 0 0.56 0.28 0 0.58 0.28 0 0.6 0.28 0 0.62 0.28 0 0.64 0.28 0 0.66 0.28 0 0.68 0.28 0 0.7 0.28 0 0.72 0.28 0 0.74 0.28 0 0.76 0.28 0 0.78 0.28 0 0.8 0.28 0 0.82 0.28 0 0.84 0.28 0 0.86 0.28 0 0.88 0.28 0 0.9 0.28 0 0.92 0.28 0 0.94 0.28 0 0.96 0.28 0 0.98 0.28 0 1 0.28 0 0 0.3 0 0.02 0.3 0 0.04 0.3 0 0.06 0.3 0 0.08 0.3 0 0.1 0.3 0 0.12 0.3 0 0.14 0.3 0 0.16 0.3 0 0.18 0.3 0 0.2 0.3 0 0.22 0.3 0 0.24 0.3 0 0.26 0.3 0 0.28 0.3 0 0.3 0.3 0 0.32 0.3 0 0.34 0.3 0 0.36 0.3 0 0.38 0.3 0 0.4 0.3 0 0.42 0.3 0 0.44 0.3 0 0.46 0.3 0 0.48 0.3 0 0.5 0.3 0 0.52 0.3 0 0.54 0.3 0 0.56 0.3 0 0.58 0.3 0 0.6 0.3 0 0.62 0.3 0 0.64 0.3 0 0.66 0.3 0 0.68 0.3 0 0.7 0.3 0 0.72 0.3 0 0.74 0.3 0 0.76 0.3 0 0.78 0.3 0 0.8 0.3 0 0.82 0.3 0 0.84 0.3 0 0.86 0.3 0 0.88 0.3 0 0.9 0.3 0 0.92 0.3 0 0.94 0.3 0 0.96 0.3 0 0.98 0.3 0 1 0.3 0 0 0.32 0 0.02 0.32 0 0.04 0.32 0 0.06 0.32 0 0.08 0.32 0 0.1 0.32 0 0.12 0.32 0 0.14 0.32 0 0.16 0.32 0 0.18 0.32 0 0.2 0.32 0 0.22 0.32 0 0.24 0.32 0 0.26 0.32 0 0.28 0.32 0 0.3 0.32 0 0.32 0.32 0 0.34 0.32 0 0.36 0.32 0 0.38 0.32 0 0.4 0.32 0 0.42 0.32 0 0.44 0.32 0 0.46 0.32 0 0.48 0.32 0 0.5 0.32 0 0.52 0.32 0 0.54 0.32 0 0.56 0.32 0 0.58 0.32 0 0.6 0.32 0 0.62 0.32 0 0.64 0.32 0 0.66 0.32 0 0.68 0.32 0 0.7 0.32 0 0.72 0.32 0 0.74 0.32 0 0.76 0.32 0 0.78 0.32 0 0.8 0.32 0 0.82 0.32 0 0.84 0.32 0 0.86 0.32 0 0.88 0.32 0 0.9 0.32 0 0.92 0.32 0 0.94 0.
[...]
			<PointData Scalars="VitesseX">
				<DataArray Name="VitesseX" type="Float32" format="ascii">
 -0 -0 -0 -0 -0 -0 -0 -0 -0 -0 -0 -0 -0 -0 -0 -0 -0 -0 -0 -0 -nan -nan 0 0 0 0 0 0 0 0 0 0 0 0 0 0 0 0 0 0 0 0 -nan -nan -0 -0 -0 -0 -0 -0 -0 -0 -0.000475592 -0.00189487 -0.00423545 -0.00746042 -0.0115189 -0.0163469 -0.0218683 -0.0279961 -0.0346334 -0.0416758 -0.0490121 -0.0565267 -0.0641009 -0.0716155 -0.0789518 -0.0859942 -0.0926316 -nan -nan -0.111685 -0.115189 -0.118151 -0.119579 -0.146162 -0.15998 -0.163561 -0.163878 -0.161765 -0.157844 -0.152742 -0.146421 -0.138989 -0.130789 -0.121774 -0.112098 -0.102239 -0.0919146 -0.0815956 -0.0711107 -0.0611843 -0.0512147 -0.0416895 -0.0327586 -nan -nan -0.00746042 -0.00423545 -0.00189487 -0.000475592 -5.15994e-27 -0 -0.000943684 -0.00375986 -0.0084041 -0.0148032 -0.0228562 -0.0324361 -0.0433918 -0.0555506 -0.0687207 -0.0826944 -0.0972513 -0.112162 -0.127191 -0.142102 -0.156658 -0.170632 -0.183802 -nan -nan -0.221663 -0.228682 -0.234414 -0.237353 -0.258014 -0.27377 -0.276604 -0.275937 -0.27174 -0.265133 -0.256447 -0.245707 -0.233151 -0.21919 -0.203943 -0.187754 -0.170941 -0.153301 -0.135798 -0.118214 -0.101052 -0.0844394 -0.0685234 -0.0537835 -nan -nan -0.0148032 -0.0084041 -0.00375986 -0.000943684 -1.02385e-26 -0 -0.00139689 -0.00556555 -0.0124402 -0.0219125 -0.033833 -0.0480137 -0.064231 -0.0822291 -0.101724 -0.122409 -0.143957 -0.166028 -0.188275 -0.210347 -0.231895 -nan -nan -0.299959 -0.31482 -0.328108 -0.338596 -0.346954 -0.351428 -0.369268 -0.382495 -0.384655 -0.383536 -0.378338 -0.369635 -0.357501 -0.340981 -0.323667 -0.304694 -0.282779 -0.259956 -0.236183 -0.212015 -0.187346 -0.163321 -0.139131 -0.1162 -0.0942164 -0.0739018 -0.0554641 -0.0392008 -nan -nan -0.00556555 -0.00139689 -1.51556e-26 -0 -0.00182807 -0.00728347 -0.0162801 -0.0286762 -0.0442762 -0.0628341 -0.0840571 -0.107611 -0.133123 -0.160193 -0.188392 -0.217276 -0.24639 -0.275274 -0.303474 -nan -nan -0.392625 -0.412167 -0.429387 -0.44322 -0.454004 -0.460011 -0.475773 -0.485142 -0.4875 -0.486162 -0.479787 -0.468551 -0.452865 -0.431719 -0.409896 -0.386234 -0.358401 -0.328867 -0.297819 -0.267115 -0.236398 -0.205714 -0.175201 -0.146005 -0.118403 -0.0928 -0.0696083 -0.0491896 -nan -nan -0.00728347 -0.00182807 -1.98337e-26 -0 -0.00223042 -0.00888652 -0.0198633 -0.0349877 -0.0540212 -0.0766635 -0.102558 -0.131295 -0.162423 -0.19545 -0.229856 -0.265098 -0.300619 -nan -nan -0.422047 -0.451562 -0.479115 -0.503026 -0.523959 -0.540846 -0.553924 -0.561408 -0.574425 -0.584082 -0.585593 -0.582838 -0.573695 -0.55927 -0.539971 -0.516647 -0.489979 -0.459995 -0.427351 -0.393123 -0.356728 -0.318879 -0.282209 -0.244601 -0.208475 -0.173387 -0.140674 -0.110236 -0.0826477 -0.0583944 -0.037929 -0.0215793 -nan -nan -2.4199e-26 -0 -0.0025976 -0.0103494 -0.0231332 -0.0407474 -0.0629142 -0.089284 -0.119441 -0.152909 -0.189161 -0.227626 -0.267695 -0.308738 -0.350108 -nan -nan -0.491699 -0.526168 -0.55815 -0.585999 -0.610362 -0.630083 -0.645302 -0.653985 -0.665867 -0.675709 -0.675618 -0.66988 -0.65782 -0.640431 -0.618039 -0.591218 -0.560484 -0.526032 -0.488465 -0.448818 -0.407448 -0.364974 -0.322109 -0.279424 -0.238501 -0.19841 -0.160862 -0.125927 -0.0943954 -0.0666728 -0.0432935 -0.0246353 -nan -nan -2.81827e-26 -0 -0.00292381 -0.0116491 -0.0260383 -0.0458645 -0.070815 -0.100496 -0.13444 -0.172112 -0.212917 -0.256211 -0.301313 -nan -nan -0.46729 -0.511254 -0.55364 -0.592588 -0.628553 -0.660067 -0.687429 -0.709209 -0.726333 -0.736178 -0.747466 -0.754266 -0.753038 -0.7456 -0.731565 -0.711791 -0.686598 -0.656573 -0.622273 -0.583891 -0.542083 -0.497983 -0.452015 -0.404876 -0.35734 -0.310246 -0.264809 -0.220765 -0.178444 -0.139612 -0.104665 -0.0739137 -0.0479833 -0.0273097 -0.012246 -0.00308248 -3.48367e-26 -0 -0.00320391 -0.0127651 -0.0285328 -0.0502583 -0.0775991 -0.110124 -0.14732 -0.1886 -0.233314 -0.280756 -0.330178 -nan -nan -0.512196 -0.56071 -0.607083 -0.649963 -0.689292 -0.723345 -0.753349 -0.777314 -0.795895 -0.807263 -0.817238 -0.821622 -0.819276 -0.810141 -0.79423 -0.772266 -0.744569 -0.711737 -0.674351 -0.632604 -0.587189 -0.539318 -0.489456 -0.438346 -0.386836 -0.335761 -0.285853 -0.237867 -0.192848 -0.151227 -0.11329 -0.0800049 -0.0519263 -0.0295537 -0.0132491 -0.00333444 -3.7207e-26 -0 -0.00343348 -0.0136798 -0.0305773 -0.0538595 -0.0831593 -0.118015 -0.157876 -0.202114 -0.250032 -nan -nan -0.440438 -0.495071 -0.549303 -0.601458 -0.651296 -0.696623 -0.738802 -0.775465 -0.807406 -0.833372 -0.853197 -0.865758 -0.874565 -0.876797 -0.87333 -0.862535 -0.84489 -0.820974 -0.791116 -0.755913 -0.715969 -0.671471 -0.623127 -0.572209 -0.519222 -0.46494 -0.410259 -0.356057 -0.303084 -0.252175 -0.204126 -0.16004 -0.120158 -0.0848502 -0.0550654 -0.0313376 -0.0140488 -0.00353606 -3.91161e-26 -0 -0.0036089 -0.0143787 -0.0321395 -0.0566113 -0.0874081 -0.124044 -0.165942 -0.21244 -0.262806 -nan -nan -0.463209 -0.520994 -0.578013 -0.632902 -0.684578 -0.732493 -0.776923 -0.815956 -0.849356 -0.876511 -0.897147 -0.910479 -0.918336 -0.918948 -0.914274 -0.901967 -0.882792 -0.857216 -0.82558 -0.788475 -0.746532 -0.699935 -0.649379 -0.596178 -0.540877 -0.484265 -0.427271 -0.370793 -0.315609 -0.262585 -0.212551 -0.166714 -0.125129 -0.0883748 -0.0573525 -0.0326351 -0.0146324 -0.00368293 -4.04082e-26 -0 -0.00372741 -0.0148509 -0.0331949 -0.0584703 -0.0902784 -0.128118 -0.171391 -nan -nan -0.360267 -0.418789 -0.478891 -0.538721 -0.597511 -0.653924 -0.707763 -0.758024 -0.803561 -0.843754 -0.878087 -0.905958 -0.927039 -0.940773 -0.947684 -0.947412 -0.94137 -0.927807 -0.907363 -0.88047 -0.847476 -0.808964 -0.76561 -0.717604 -0.665583 -0.610877 -0.554105 -0.496038 -0.437618 -0.37975 -0.323221 -0.268909 -0.217672 -0.170321 -0.127897 -0.0905291 -0.0587531 -0.0334297 -0.0149905 -0.00377319 -4.11027e-26 -0 -0.00378714 -0.0150888 -0.0337268 -0.0594072 -0.0917249 -0.13017 -0.174137 -nan -nan -0.366323 -0.426075 -0.486995 -0.547642 -0.607648 -0.665769 -0.720674 -0.771531 -0.817704 -0.858429 -0.893132 -0.921241 -0.9424 -0.956281 -0.962007 -0.960542 -0.952685 -0.937637 -0.915906 -0.887866 -0.85385 -0.814407 -0.770254 -0.721601 -0.668997 -0.613735 -0.556518 -0.49807 -0.439331 -0.381175 -0.324388 -0.26984 -0.218389 -0.170841 -0.127956 -0.0906147 -0.058938 -0.0335196 -0.0150253 -0.00378096 -4.11783e-26 -0 -0.00378714 -0.0150888 -0.0337268 -0.0594072 -0.0917249 -nan -nan -0.252668 -0.307778 -0.36578 -0.425391 -0.4863 -0.547187 -0.607378 -0.665574 -0.72037 -0.771245 -0.817439 -0.858195 -0.89292 -0.92106 -0.942246 -0.956226 -0.961705 -0.959893 -0.951362 -0.935712 -0.913449 -0.884943 -0.850534 -0.81076 -0.766388 -0.717684 -0.665117 -0.609916 -0.552899 -0.494729 -0.436332 -0.378543 -0.322135 -0.267963 -0.216868 -0.169651 -0.127049 -0.0900142 -0.0585542 -0.0332992 -0.0149251 -0.00375608 -4.06401e-26 -0 -0.00372741 -0.0148509 -0.0331949 -0.0584703 -0.0902784 -nan -nan -0.248815 -0.303195 -0.360296 -0.419167 -0.47914 -0.539829 -0.599777 -0.656852 -0.710835 -0.760909 -0.806295 -0.846262 -0.880214 -0.907628 -0.928138 -0.941542 -0.946364 -0.944243 -0.935216 -0.91922 -0.896759 -0.868208 -0.833911 -0.794389 -0.750432 -0.70239 -0.650657 -0.596358 -0.540432 -0.483461 -0.426343 -0.369853 -0.31474 -0.261823 -0.211914 -0.165789 -0.124165 -0.0879448 -0.0572511 -0.0325621 -0.0145933 -0.00367335 -3.94977e-26 -0 -0.0036089 -0.0143787 -0.0321395 -nan -nan -0.147054 -0.191786 -0.241067 -0.293982 -0.349537 -0.406777 -0.465481 -0.525004 -0.58268 -0.638008 -0.690336 -0.738808 -0.782657 -0.82118 -0.853798 -0.880021 -0.899499 -0.912064 -0.916185 -0.913861 -0.904571 -0.888542 -0.866269 -0.838131 -0.804486 -0.765829 -0.722924 -0.676232 -0.626101 -0.573516 -0.519527 -0.464623 -0.409669 -0.355359 -0.302408 -0.251582 -0.203648 -0.159343 -0.119353 -0.0843189 -0.0549735 -0.0313236 -0.0140365 -0.00353397 -3.77625e-26 -0 -0.00343348 -0.0136798 -0.0305773 -nan -nan -0.139996 -0.182746 -0.229837 -0.280414 -0.333543 -0.388187 -0.444779 -0.501856 -0.556739 -0.609521 -0.659379 -0.705482 -0.747089 -0.783534 -0.814263 -0.838827 -0.856901 -0.868339 -0.871635 -0.869153 -0.859769 -0.84399 -0.822283 -0.795028 -0.762576 -0.725403 -0.684225 -0.639585 -0.591806 -0.541743 -0.490492 -0.438491 -0.386549 -0.335267 -0.285313 -0.237383 -0.192185 -0.150404 -0.112681 -0.0796098 -0.0519146 -0.029602 -0.0132645 -0.00334004 -3.54666e-26 -0 -0.00320391 -nan -nan -0.0648313 -0.0952936 -0.130958 -0.171134 -0.21535 -0.262839 -0.312766 -0.364407 -0.417915 -0.471076 -0.522508 -0.571939 -0.618549 -0.661552 -0.700244 -0.734003 -0.762315 -0.784769 -0.801077 -0.811118 -0.813377 -0.810688 -0.801298 -0.786015 -0.76522 -0.739308 -0.708617 -0.67357 -0.634811 -0.592945 -0.5483 -0.50155 -0.453755 -0.405458 -0.357324 -0.30987 -0.263701 -0.219429 -0.177689 -0.139098 -0.104244 -0.0736689 -0.047887 -0.0273668 -0.0122898 -0.00309473 -3.26509e-26 -0 -0.00292381 -nan -nan -0.0592694 -0.0872524 -0.120069 -0.157101 -0.197834 -0.241647 -0.287657 -0.335354 -0.384798 -0.433386 -0.480612 -0.525895 -0.568468 -0.607608 -0.642673 -0.673111 -0.698466 -0.718388 -0.732644 -0.741014 -0.742557 -0.73951 -0.730289 -0.715672 -0.696036 -0.671829 -0.643366 -0.610998 -0.575309 -0.536911 -0.496136 -0.453477 -0.409884 -0.366031 -0.322436 -0.279548 -0.237894 -0.197987 -0.160372 -0.125592 -0.094164 -0.0665766 -0.0432793 -0.0247649 -0.0111277 -0.00280169 -2.93662e-26 -0 -nan -0.0170006 -0.0325 -0.0529311 -0.0780298 -0.10752 -0.14087 -0.177536 -0.217031 -0.258678 -0.301719 -0.345858 -0.389177 -0.43142 -0.471817 -0.509696 -0.544397 -0.575339 -0.602028 -0.624063 -0.641141 -0.653065 -0.659437 -0.660284 -0.656745 -0.647841 -0.634088 -0.615839 -0.593588 -0.56767 -0.538444 -0.506434 -0.47216 -0.43597 -0.39821 -0.359568 -0.320802 -0.282419 -0.244763 -0.208283 -0.173378 -0.140495 -0.110085 -0.0825907 -0.058434 -0.0380116 -0.0217649 -0.00979245 -0.00246428 -2.56195e-26 -0 -nan -0.0146646 -0.0281251 -0.0458941 -0.0677674 -0.093511 -0.122695 -0.154771 -0.189257 -0.225601 -0.263397 -0.302058 -0.339783 -0.376504 -0.411503 -0.444162 -0.473902 -0.500218 -0.522685 -0.540961 -0.55479 -0.564 -0.567977 -0.567847 -0.56361 -0.555095 -0.542453 -0.525918 -0.505862 -0.48275 -0.457047 -0.42919 -0.399593 -0.368582 -0.336417 -0.303518 -0.270501 -0.237881 -0.206052 -0.175317 -0.145979 -0.11836 -0.092815 -0.0697002 -0.0493648 -0.0321447 -0.0183555 -0.00830488 -0.00208781 -2.14809e-26 0 -0.00463591 -0.0121508 -0.0233891 -0.0382655 -0.0566199 -0.0782561 -0.102851 -0.129898 -0.15885 -0.189428 -0.221651 -0.254315 -0.285981 -0.316733 -0.345894 -0.372877 -0.397186 -0.418405 -0.436207 -0.450309 -0.460504 -0.466567 -0.468166 -0.466628 -0.46155 -0.453384 -0.441972 -0.427436 -0.409979 -0.390057 -0.368194 -0.344831 -0.320346 -0.294983 -0.26893 -0.242411 -0.215805 -0.189535 -0.164014 -0.139503 -0.116211 -0.0943054 -0.0740427 -0.0556853 -0.0395025 -0.0257648 -0.0147315 -0.00667899 -0.0016786 -1.69568e-26 0 -0.00361114 -0.00950247 -0.018376 -0.0301683 -0.0447593 -0.0619907 -0.0816411 -0.103294 -0.126404 -0.151091 -0.177361 -0.203131 -0.228228 -0.252538 -0.275397 -0.296319 -0.314881 -0.330744 -0.34368 -0.35346 -0.359891 -0.362396 -0.361995 -0.358271 -0.352257 -0.344384 -0.334151 -0.32161 -0.307049 -0.290846 -0.273267 -0.254716 -0.235682 -0.216337 -0.196777 -0.177089 -0.157444 -0.138069 -0.119294 -0.101399 -0.0845366 -0.0687088 -0.0540648 -0.0407696 -0.0290074 -0.0189779 -0.0108841 -0.00493186 -0.00124643 -1.22814e-26 0 -0.00255257 -0.00676729 -0.0131736 -0.021735 -0.0323719 -0.0449694 -0.0593962 -0.0753553 -0.0923712 -0.1105 -0.129986 -0.149099 -0.167509 -0.185119 -0.201465 -0.216176 -0.228918 -0.239423 -0.247509 -0.253024 -0.25546 -0.255315 -0.251878 -0.245191 -0.237575 -0.230001 -0.220929 -0.210257 -0.198635 -0.186434 -0.173566 -0.160238 -0.14694 -0.133877 -0.121089 -0.108551 -0.0962442 -0.0842003 -0.0725739 -0.0615987 -0.0514426 -0.041958 -0.0331777 -0.0251665 -0.0180207 -0.0118658 -0.00684587 -0.00310948 -0.000796409 -7.24088e-27 0 -0.00148503 -0.00399585 -0.00786989 -0.0131001 -0.0196526 -0.0274657 -0.0364832 -0.046534 -0.0572599 -0.0685585 -0.0807588 -0.0931269 -0.104797 -0.115587 -0.125316 -0.133712 -0.14053 -0.145577 -0.148653 -0.149699 -0.14883 -0.145801 -0.14022 -0.130331 -0.119349 -0.111713 -0.103786 -0.0951314 -0.0866901 -0.0785281 -0.070553 -0.0627945 -0.0554828 -0.0488886 -0.0430392 -0.0378243 -0.0330792 -0.0286541 -0.0244919 -0.0207008 -0.0174258 -0.014474 -0.0117269 -0.00915281 -0.00675801 -0.00459024 -0.00273047 -0.00127823 -0.000340564 -2.70598e-27 0 -0.000431383 -0.00123587 -0.0025565 -0.0044275 -0.00687223 -0.00989232 -0.0134782 -0.0175696 -0.0220075 -0.0265375 -0.0312389 -0.0365182 -0.0414355 -0.0452872 -0.0482139 -0.0500563 -0.0506886 -0.0500283 -0.0479801 -0.0445529 -0.03982 -0.0338881 -0.0268247 -0.0176846 -0.00207533 0.0101984 0.0166781 0.0224057 0.0272008 0.0310952 0.0340951 0.0362081 0.0373494 0.037333 0.036159 0.0339862 0.0310938 0.0277805 0.0242984 0.020726 0.0170304 0.0133437 0.00997142 0.00703615 0.00462119 0.00275845 0.00143205 0.000589578 0.000151181 1.54031e-27 0 0.000262565 0.000956537 0.00197779 0.00325208 0.00472313 0.0063498 0.0081096 0.00997754 0.011958 0.0140888 0.0166292 0.0191478 0.021567 0.0248574 0.0290528 0.0340138 0.0397901 0.0463974 0.0537971 0.0618886 0.0705115 0.079488 0.0886696 0.0976628 0.100183 0.131613 0.136253 0.139151 0.140558 0.140259 0.138366 0.134883 0.129831 0.123188 0.115008 0.105514 0.0950621 0.0840759 0.0729607 0.0620182 0.0513721 0.0411155 0.0316918 0.0233182 0.0161612 0.0103246 0.00584842 0.00271388 0.000850196 6.23255e-27 0 0.00069676 0.00272008 0.00596884 0.0103427 0.015752 0.022107 0.0293107 0.0372622 0.0458549 0.0550239 0.0647067 0.0748322 0.0849747 0.0951891 0.106463 0.118189 0.130278 0.142647 0.155167 0.167672 0.179937 0.191947 0.203265 0.213336 0.243754 0.249567 0.25298 0.253376 0.251582 0.247335 0.240664 0.231713 0.220592 0.207425 0.192356 0.175687 0.157855 0.139382 0.120801 0.102625 0.0851354 0.0684909 0.0531722 0.0394961 0.0277034 0.0179626 0.0103645 0.00492521 0.00159186 1.09954e-26 0 0.00118904 0.00466476 0.0102473 0.0178224 0.0272099 0.0382496 0.0507784 0.0646266 0.0796248 0.095576 0.112356 0.129876 0.147437 0.164657 0.18244 0.200618 0.218827 0.236769 0.254216 0.270928 0.286673 0.301635 0.314908 0.326702 0.359148 0.364053 0.365464 0.363654 0.358727 0.350607 0.339374 0.325155 0.308178 0.288697 0.266963 0.243371 0.218438 0.192776 0.167025 0.141875 0.117764 0.0949887 0.0740096 0.0552296 0.0389633 0.0254399 0.0148009 0.00710155 0.00231699 1.57034e-26 0 0.00160097 0.00632287 0.0140176 0.0244985 0.037579 0.0530479 0.0706815 0.0902278 0.111411 0.133944 0.157531 0.181855 0.206581 0.231412 0.255671 0.279668 0.3037 0.327018 0.34921 0.369986 0.389027 0.406573 0.421791 0.435258 0.46854 0.47238 0.471847 0.468086 0.460264 0.448502 0.432934 0.413725 0.391193 0.365709 0.337644 0.307484 0.27583 0.24338 0.210865 0.179119 0.148736 0.12017 0.0938351 0.0702196 0.0497136 0.0325896 0.0190461 0.00918172 0.00300419 2.02393e-26 0 -nan -nan 0.0178917 0.0313117 0.0479964 0.0677378 0.0902046 0.115075 0.142012 0.170656 0.200622 0.231529 0.262974 0.294232 0.324818 0.35465 0.383929 0.412259 0.438776 0.462954 0.488606 0.532371 0.550682 0.561372 0.569139 0.572532 0.570965 0.565262 0.554736 0.539533 0.519873 0.496011 0.46831 0.437235 0.403276 0.367006 0.329114 0.290373 0.251606 0.213752 0.177566 0.143644 0.112328 0.084219 0.059751 0.0392675 0.023015 0.0111236 0.00363893 2.44861e-26 0 -nan -nan 0.0211741 0.0371142 0.0570499 0.0806359 0.107542 0.13738 0.169722 0.204109 0.24005 0.277018 0.314558 0.352043 0.38914 0.424525 0.458556 0.490813 0.523838 0.569132 0.604929 0.625927 0.642259 0.65408 0.661884 0.664209 0.661614 0.653929 0.640756 0.622288 0.598824 0.570704 0.538297 0.502136 0.462817 0.420994 0.377444 0.333005 0.288585 0.245217 0.203798 0.165026 0.129182 0.0969996 0.0689267 0.0453714 0.0266265 0.012879 0.00420988 2.83889e-26 0 0.00292381 0.0116491 -nan -nan 0.0657659 0.0929968 0.123956 0.158258 0.195392 0.234838 0.276047 0.318456 0.361461 0.404508 0.446716 0.487798 0.527018 0.576706 0.624426 0.65646 0.683687 0.706276 0.724031 0.736667 0.744481 0.7457 0.742012 0.732348 0.716746 0.695391 0.668564 0.636642 0.600051 0.559388 0.515326 0.468598 0.420057 0.370599 0.321209 0.273003 0.226987 0.183941 0.144112 0.108337 0.0770852 0.0508063 0.0298438 0.0144345 0.00470198 3.18896e-26 0 0.00320391 0.0127651 -nan -nan 0.0729032 0.103157 0.137657 0.175869 0.217278 0.261284 0.30724 0.354478 0.40233 0.450216 0.497117 0.542592 0.584746 0.649358 0.687455 0.721587 0.751129 0.775574 0.794563 0.807808 0.815302 0.815462 0.810726 0.799338 0.781632 0.75778 0.72804 0.69282 0.652622 0.608097 0.559979 0.50907 0.456283 0.402563 0.348965 0.296666 0.246746 0.200059 0.156867 0.118037 0.0840802 0.0554768 0.0326149 0.0157765 0.00512204 3.49062e-26 0 0.00343348 0.0136798 0.0305773 0.0538595 -nan -nan 0.149862 0.191474 0.236457 0.284204 0.33403 0.385212 0.43704 0.488788 0.539604 0.588393 0.656105 0.698224 0.739002 0.775423 0.806823 0.832674 0.852569 0.866186 0.873181 0.872763 0.866941 0.854097 0.834563 0.808541 0.77633 0.738371 0.695197 0.647505 0.596083 0.541779 0.485557 0.428397 0.371421 0.315848 0.262787 0.21315 0.167261 0.125937 0.0897707 0.05928 0.0348808 0.0168824 0.00547355 3.73772e-26 0 0.0036089 0.0143787 0.0321395 0.0566113 -nan -nan 0.159064 0.203299 0.251185 0.302007 0.355053 0.409525 0.464641 0.519609 0.573558 0.625079 0.689514 0.736123 0.778962 0.817074 0.849809 0.876623 0.897087 0.910867 0.917397 0.916518 0.909762 0.895674 0.874614 0.846826 0.812657 0.772569 0.727111 0.67701 0.623082 0.566222 0.507423 0.4477 0.388223 0.330261 0.274915 0.22309 0.175185 0.131975 0.0941151 0.0621672 0.0365821 0.0176935 0.00572192 3.92639e-26 0 0.00372741 0.0148509 0.0331949 0.0584703 0.0902784 0.128118 -nan -nan 0.262536 0.315625 0.370957 0.427728 0.485149 0.542391 0.598506 0.650949 0.713821 0.762324 0.806542 0.845752 0.87931 0.906672 0.927402 0.941171 0.947238 0.945955 0.938403 0.923336 0.901139 0.87207 0.836498 0.79491 0.74788 0.696151 0.640557 0.582022 0.521549 0.460173 0.399108 0.339673 0.282933 0.22971 0.180496 0.136071 0.0970995 0.0641632 0.0377503 0.0182375 0.00587217 4.0538e-26 0 0.00378714 0.0150888 0.0337268 0.0594072 0.0917249 0.13017 -nan -nan 0.269228 0.323726 0.380545 0.438831 0.497772 0.556482 0.613974 0.667649 0.726945 0.776284 0.821166 0.860869 0.894753 0.922271 0.942994 0.95662 0.962132 0.960371 0.952002 0.936095 0.913016 0.883037 0.84655 0.804069 0.756187 0.703655 0.647312 0.588078 0.526941 0.464947 0.40334 0.343455 0.2863 0.232541 0.182825 0.137926 0.0985169 0.0651741 0.0383911 0.0185612 0.00596558 4.11783e-26 0 0.00378714 0.0150888 0.0337268 0.0594072 0.0917249 0.13017 0.174137 0.222932 -nan -nan 0.384341 0.443184 0.502655 0.561848 0.619772 0.674389 0.727295 0.776625 0.821493 0.86117 0.895012 0.922473 0.943121 0.956656 0.962037 0.960221 0.951682 0.935574 0.912283 0.882107 0.845468 0.802889 0.754961 0.702433 0.646136 0.586983 0.525958 0.464122 0.402722 0.343092 0.286191 0.232475 0.182824 0.137983 0.0986082 0.0652774 0.0384869 0.0186344 0.00600779 4.11738e-26 0 0.00372741 0.0148509 0.0331949 0.0584703 0.0902784 0.128118 0.171391 0.219416 -nan -nan 0.38441 0.443263 0.502684 0.561769 0.619555 0.675828 0.718797 0.766136 0.810235 0.849136 0.882243 0.909016 0.929028 0.941969 0.946809 0.944808 0.936041 0.919836 0.896602 0.866663 0.830429 0.788402 0.741179 0.689485 0.634121 0.576007 0.516125 0.455504 0.395391 0.336986 0.281163 0.228414 0.179684 0.135668 0.0970019 0.0642587 0.0379249 0.0183929 0.00595112 4.05233e-26 0 0.0036089 0.0143787 0.0321395 0.0566113 0.0874081 0.124044 0.165942 0.21244 0.262806 0.316245 -nan -nan 0.491365 0.549265 0.605819 0.66189 0.698553 0.743095 0.785716 0.823218 0.855085 0.880802 0.89996 0.912267 0.916677 0.914537 0.905755 0.889819 0.867115 0.837945 0.802711 0.76189 0.716095 0.666011 0.61245 0.556292 0.498475 0.440018 0.382117 0.32579 0.271765 0.220828 0.173755 0.131225 0.0938597 0.0622111 0.0367491 0.0178523 0.00580033 3.92349e-26 0 0.00343348 0.0136798 0.0305773 0.0538595 0.0831593 0.118015 0.157876 0.202114 0.250032 0.300873 -nan -nan 0.473046 0.528711 0.582858 0.637478 0.666923 0.7