<?xml version="1.0"?>
<VTKFile type="PolyData">
	<PolyData>
		<Piece NumberOfPoints="2601" NumberOfPolys="2500">
			<Points>
				<DataArray type="Float32" NumberOfComponents="3" format="ascii">
 0 0 0 0.02 0 0 0.04 0 0 0.06 0 0 0.08 0 0 0.1 0 0 0.12 0 0 0.14 0 0 0.16 0 0 0.18 0 0 0.2 0 0 0.22 0 0 0.24 0 0 0.26 0 0 0.28 0 0 0.3 0 0 0.32 0 0 0.34 0 0 0.36 0 0 0.38 0 0 0.4 0 0 0.42 0 0 0.44 0 0 0.46 0 0 0.48 0 0 0.5 0 0 0.52 0 0 0.54 0 0 0.56 0 0 0.58 0 0 0.6 0 0 0.62 0 0 0.64 0 0 0.66 0 0 0.68 0 0 0.7 0 0 0.72 0 0 0.74 0 0 0.76 0 0 0.78 0 0 0.8 0 0 0.82 0 0 0.84 0 0 0.86 0 0 0.88 0 0 0.9 0 0 0.92 0 0 0.94 0 0 0.96 0 0 0.98 0 0 1 0 0 0 0.02 0 0.02 0.02 0 0.04 0.02 0 0.06 0.02 0 0.08 0.02 0 0.1 0.02 0 0.12 0.02 0 0.14 0.02 0 0.16 0.02 0 0.18 0.02 0 0.2 0.02 0 0.22 0.02 0 0.24 0.02 0 0.26 0.02 0 0.28 0.02 0 0.3 0.02 0 0.32 0.02 0 0.34 0.02 0 0.36 0.02 0 0.38 0.02 0 0.4 0.02 0 0.42 0.02 0 0.44 0.02 0 0.46 0.02 0 0.48 0.02 0 0.5 0.02 0 0.52 0.02 0 0.54 0.02 0 0.56 0.02 0 0.58 0.02 0 0.6 0.02 0 0.62 0.02 0 0.64 0.02 0 0.66 0.02 0 0.68 0.02 0 0.7 0.02 0 0.72 0.02 0 0.74 0.02 0 0.76 0.02 0 0.78 0.02 0 0.8 0.02 0 0.82 0.02 0 0.84 0.02 0 0.86 0.02 0 0.88 0.02 0 0.9 0.02 0 0.92 0.02 0 0.94 0.02 0 0.96 0.02 0 0.98 0.02 0 1 0.02 0 0 0.04 0 0.02 0.04 0 0.04 0.04 0 0.06 0.04 0 0.08 0.04 0 0.1 0.04 0 0.12 0.04 0 0.14 0.04 0 0.16 0.04 0 0.18 0.04 0 0.2 0.04 0 0.22 0.04 0 0.24 0.04 0 0.26 0.04 0 0.28 0.04 0 0.3 0.04 0 0.32 0.04 0 0.34 0.04 0 0.36 0.04 0 0.38 0.04 0 0.4 0.04 0 0.42 0.04 0 0.44 0.04 0 0.46 0.04 0 0.48 0.04 0 0.5 0.04 0 0.52 0.04 0 0.54 0.04 0 0.56 0.04 0 0.58 0.04 0 0.6 0.04 0 0.62 0.04 0 0.64 0.04 0 0.66 0.04 0 0.68 0.04 0 0.7 0.04 0 0.72 0.04 0 0.74 0.04 0 0.76 0.04 0 0.78 0.04 0 0.8 0.04 0 0.82 0.04 0 0.84 0.04 0 0.86 0.04 0 0.88 0.04 0 0.9 0.04 0 0.92 0.04 0 0.94 0.04 0 0.96 0.04 0 0.98 0.04 0 1 0.04 0 0 0.06 0 0.02 0.06 0 0.04 0.06 0 0.06 0.06 0 0.08 0.06 0 0.1 0.06 0 0.12 0.06 0 0.14 0.06 0 0.16 0.06 0 0.18 0.06 0 0.2 0.06 0 0.22 0.06 0 0.24 0.06 0 0.26 0.06 0 0.28 0.06 0 0.3 0.06 0 0.32 0.06 0 0.34 0.06 0 0.36 0.06 0 0.38 0.06 0 0.4 0.06 0 0.42 0.06 0 0.44 0.06 0 0.46 0.06 0 0.48 0.06 0 0.5 0.06 0 0.52 0.06 0 0.54 0.06 0 0.56 0.06 0 0.58 0.06 0 0.6 0.06 0 0.62 0.06 0 0.64 0.06 0 0.66 0.06 0 0.68 0.06 0 0.7 0.06 0 0.72 0.06 0 0.74 0.06 0 0.76 0.06 0 0.78 0.06 0 0.8 0.06 0 0.82 0.06 0 0.84 0.06 0 0.86 0.06 0 0.88 0.06 0 0.9 0.06 0 0.92 0.06 0 0.94 0.06 0 0.96 0.06 0 0.98 0.06 0 1 0.06 0 0 0.08 0 0.02 0.08 0 0.04 0.08 0 0.06 0.08 0 0.08 0.08 0 0.1 0.08 0 0.12 0.08 0 0.14 0.08 0 0.16 0.08 0 0.18 0.08 0 0.2 0.08 0 0.22 0.08 0 0.24 0.08 0 0.26 0.08 0 0.28 0.08 0 0.3 0.08 0 0.32 0.08 0 0.34 0.08 0 0.36 0.08 0 0.38 0.08 0 0.4 0.08 0 0.42 0.08 0 0.44 0.08 0 0.46 0.08 0 0.48 0.08 0 0.5 0.08 0 0.52 0.08 0 0.54 0.08 0 0.56 0.08 0 0.58 0.08 0 0.6 0.08 0 0.62 0.08 0 0.64 0.08 0 0.66 0.08 0 0.68 0.08 0 0.7 0.08 0 0.72 0.08 0 0.74 0.08 0 0.76 0.08 0 0.78 0.08 0 0.8 0.08 0 0.82 0.08 0 0.84 0.08 0 0.86 0.08 0 0.88 0.08 0 0.9 0.08 0 0.92 0.08 0 0.94 0.08 0 0.96 0.08 0 0.98 0.08 0 1 0.08 0 0 0.1 0 0.02 0.1 0 0.04 0.1 0 0.06 0.1 0 0.08 0.1 0 0.1 0.1 0 0.12 0.1 0 0.14 0.1 0 0.16 0.1 0 0.18 0.1 0 0.2 0.1 0 0.22 0.1 0 0.24 0.1 0 0.26 0.1 0 0.28 0.1 0 0.3 0.1 0 0.32 0.1 0 0.34 0.1 0 0.36 0.1 0 0.38 0.1 0 0.4 0.1 0 0.42 0.1 0 0.44 0.1 0 0.46 0.1 0 0.48 0.1 0 0.5 0.1 0 0.52 0.1 0 0.54 0.1 0 0.56 0.1 0 0.58 0.1 0 0.6 0.1 0 0.62 0.1 0 0.64 0.1 0 0.66 0.1 0 0.68 0.1 0 0.7 0.1 0 0.72 0.1 0 0.74 0.1 0 0.76 0.1 0 0.78 0.1 0 0.8 0.1 0 0.82 0.1 0 0.84 0.1 0 0.86 0.1 0 0.88 0.1 0 0.9 0.1 0 0.92 0.1 0 0.94 0.1 0 0.96 0.1 0 0.98 0.1 0 1 0.1 0 0 0.12 0 0.02 0.12 0 0.04 0.12 0 0.06 0.12 0 0.08 0.12 0 0.1 0.12 0 0.12 0.12 0 0.14 0.12 0 0.16 0.12 0 0.18 0.12 0 0.2 0.12 0 0.22 0.12 0 0.24 0.12 0 0.26 0.12 0 0.28 0.12 0 0.3 0.12 0 0.32 0.12 0 0.34 0.12 0 0.36 0.12 0 0.38 0.12 0 0.4 0.12 0 0.42 0.12 0 0.44 0.12 0 0.46 0.12 0 0.48 0.12 0 0.5 0.12 0 0.52 0.12 0 0.54 0.12 0 0.56 0.12 0 0.58 0.12 0 0.6 0.12 0 0.62 0.12 0 0.64 0.12 0 0.66 0.12 0 0.68 0.12 0 0.7 0.12 0 0.72 0.12 0 0.74 0.12 0 0.76 0.12 0 0.78 0.12 0 0.8 0.12 0 0.82 0.12 0 0.84 0.12 0 0.86 0.12 0 0.88 0.12 0 0.9 0.12 0 0.92 0.12 0 0.94 0.12 0 0.96 0.12 0 0.98 0.12 0 1 0.12 0 0 0.14 0 0.02 0.14 0 0.04 0.14 0 0.06 0.14 0 0.08 0.14 0 0.1 0.14 0 0.12 0.14 0 0.14 0.14 0 0.16 0.14 0 0.18 0.14 0 0.2 0.14 0 0.22 0.14 0 0.24 0.14 0 0.26 0.14 0 0.28 0.14 0 0.3 0.14 0 0.32 0.14 0 0.34 0.14 0 0.36 0.14 0 0.38 0.14 0 0.4 0.14 0 0.42 0.14 0 0.44 0.14 0 0.46 0.14 0 0.48 0.14 0 0.5 0.14 0 0.52 0.14 0 0.54 0.14 0 0.56 0.14 0 0.58 0.14 0 0.6 0.14 0 0.62 0.14 0 0.64 0.14 0 0.66 0.14 0 0.68 0.14 0 0.7 0.14 0 0.72 0.14 0 0.74 0.14 0 0.76 0.14 0 0.78 0.14 0 0.8 0.14 0 0.82 0.14 0 0.84 0.14 0 0.86 0.14 0 0.88 0.14 0 0.9 0.14 0 0.92 0.14 0 0.94 0.14 0 0.96 0.14 0 0.98 0.14 0 1 0.14 0 0 0.16 0 0.02 0.16 0 0.04 0.16 0 0.06 0.16 0 0.08 0.16 0 0.1 0.16 0 0.12 0.16 0 0.14 0.16 0 0.16 0.16 0 0.18 0.16 0 0.2 0.16 0 0.22 0.16 0 0.24 0.16 0 0.26 0.16 0 0.28 0.16 0 0.3 0.16 0 0.32 0.16 0 0.34 0.16 0 0.36 0.16 0 0.38 0.16 0 0.4 0.16 0 0.42 0.16 0 0.44 0.16 0 0.46 0.16 0 0.48 0.16 0 0.5 0.16 0 0.52 0.16 0 0.54 0.16 0 0.56 0.16 0 0.58 0.16 0 0.6 0.16 0 0.62 0.16 0 0.64 0.16 0 0.66 0.16 0 0.68 0.16 0 0.7 0.16 0 0.72 0.16 0 0.74 0.16 0 0.76 0.16 0 0.78 0.16 0 0.8 0.16 0 0.82 0.16 0 0.84 0.16 0 0.86 0.16 0 0.88 0.16 0 0.9 0.16 0 0.92 0.16 0 0.94 0.16 0 0.96 0.16 0 0.98 0.16 0 1 0.16 0 0 0.18 0 0.02 0.18 0 0.04 0.18 0 0.06 0.18 0 0.08 0.18 0 0.1 0.18 0 0.12 0.18 0 0.14 0.18 0 0.16 0.18 0 0.18 0.18 0 0.2 0.18 0 0.22 0.18 0 0.24 0.18 0 0.26 0.18 0 0.28 0.18 0 0.3 0.18 0 0.32 0.18 0 0.34 0.18 0 0.36 0.18 0 0.38 0.18 0 0.4 0.18 0 0.42 0.18 0 0.44 0.18 0 0.46 0.18 0 0.48 0.18 0 0.5 0.18 0 0.52 0.18 0 0.54 0.18 0 0.56 0.18 0 0.58 0.18 0 0.6 0.18 0 0.62 0.18 0 0.64 0.18 0 0.66 0.18 0 0.68 0.18 0 0.7 0.18 0 0.72 0.18 0 0.74 0.18 0 0.76 0.18 0 0.78 0.18 0 0.8 0.18 0 0.82 0.18 0 0.84 0.18 0 0.86 0.18 0 0.88 0.18 0 0.9 0.18 0 0.92 0.18 0 0.94 0.18 0 0.96 0.18 0 0.98 0.18 0 1 0.18 0 0 0.2 0 0.02 0.2 0 0.04 0.2 0 0.06 0.2 0 0.08 0.2 0 0.1 0.2 0 0.12 0.2 0 0.14 0.2 0 0.16 0.2 0 0.18 0.2 0 0.2 0.2 0 0.22 0.2 0 0.24 0.2 0 0.26 0.2 0 0.28 0.2 0 0.3 0.2 0 0.32 0.2 0 0.34 0.2 0 0.36 0.2 0 0.38 0.2 0 0.4 0.2 0 0.42 0.2 0 0.44 0.2 0 0.46 0.2 0 0.48 0.2 0 0.5 0.2 0 0.52 0.2 0 0.54 0.2 0 0.56 0.2 0 0.58 0.2 0 0.6 0.2 0 0.62 0.2 0 0.64 0.2 0 0.66 0.2 0 0.68 0.2 0 0.7 0.2 0 0.72 0.2 0 0.74 0.2 0 0.76 0.2 0 0.78 0.2 0 0.8 0.2 0 0.82 0.2 0 0.84 0.2 0 0.86 0.2 0 0.88 0.2 0 0.9 0.2 0 0.92 0.2 0 0.94 0.2 0 0.96 0.2 0 0.98 0.2 0 1 0.2 0 0 0.22 0 0.02 0.22 0 0.04 0.22 0 0.06 0.22 0 0.08 0.22 0 0.1 0.22 0 0.12 0.22 0 0.14 0.22 0 0.16 0.22 0 0.18 0.22 0 0.2 0.22 0 0.22 0.22 0 0.24 0.22 0 0.26 0.22 0 0.28 0.22 0 0.3 0.22 0 0.32 0.22 0 0.34 0.22 0 0.36 0.22 0 0.38 0.22 0 0.4 0.22 0 0.42 0.22 0 0.44 0.22 0 0.46 0.22 0 0.48 0.22 0 0.5 0.22 0 0.52 0.22 0 0.54 0.22 0 0.56 0.22 0 0.58 0.22 0 0.6 0.22 0 0.62 0.22 0 0.64 0.22 0 0.66 0.22 0 0.68 0.22 0 0.7 0.22 0 0.72 0.22 0 0.74 0.22 0 0.76 0.22 0 0.78 0.22 0 0.8 0.22 0 0.82 0.22 0 0.84 0.22 0 0.86 0.22 0 0.88 0.22 0 0.9 0.22 0 0.92 0.22 0 0.94 0.22 0 0.96 0.22 0 0.98 0.22 0 1 0.22 0 0 0.24 0 0.02 0.24 0 0.04 0.24 0 0.06 0.24 0 0.08 0.24 0 0.1 0.24 0 0.12 0.24 0 0.14 0.24 0 0.16 0.24 0 0.18 0.24 0 0.2 0.24 0 0.22 0.24 0 0.24 0.24 0 0.26 0.24 0 0.28 0.24 0 0.3 0.24 0 0.32 0.24 0 0.34 0.24 0 0.36 0.24 0 0.38 0.24 0 0.4 0.24 0 0.42 0.24 0 0.44 0.24 0 0.46 0.24 0 0.48 0.24 0 0.5 0.24 0 0.52 0.24 0 0.54 0.24 0 0.56 0.24 0 0.58 0.24 0 0.6 0.24 0 0.62 0.24 0 0.64 0.24 0 0.66 0.24 0 0.68 0.24 0 0.7 0.24 0 0.72 0.24 0 0.74 0.24 0 0.76 0.24 0 0.78 0.24 0 0.8 0.24 0 0.82 0.24 0 0.84 0.24 0 0.86 0.24 0 0.88 0.24 0 0.9 0.24 0 0.92 0.24 0 0.94 0.24 0 0.96 0.24 0 0.98 0.24 0 1 0.24 0 0 0.26 0 0.02 0.26 0 0.04 0.26 0 0.06 0.26 0 0.08 0.26 0 0.1 0.26 0 0.12 0.26 0 0.14 0.26 0 0.16 0.26 0 0.18 0.26 0 0.2 0.26 0 0.22 0.26 0 0.24 0.26 0 0.26 0.26 0 0.28 0.26 0 0.3 0.26 0 0.32 0.26 0 0.34 0.26 0 0.36 0.26 0 0.38 0.26 0 0.4 0.26 0 0.42 0.26 0 0.44 0.26 0 0.46 0.26 0 0.48 0.26 0 0.5 0.26 0 0.52 0.26 0 0.54 0.26 0 0.56 0.26 0 0.58 0.26 0 0.6 0.26 0 0.62 0.26 0 0.64 0.26 0 0.66 0.26 0 0.68 0.26 0 0.7 0.26 0 0.72 0.26 0 0.74 0.26 0 0.76 0.26 0 0.78 0.26 0 0.8 0.26 0 0.82 0.26 0 0.84 0.26 0 0.86 0.26 0 0.88 0.26 0 0.9 0.26 0 0.92 0.26 0 0.94 0.26 0 0.96 0.26 0 0.98 0.26 0 1 0.26 0 0 0.28 0 0.02 0.28 0 0.04 0.28 0 0.06 0.28 0 0.08 0.28 0 0.1 0.28 0 0.12 0.28 0 0.14 0.28 0 0.16 0.28 0 0.18 0.28 0 0.2 0.28 0 0.22 0.28 0 0.24 0.28 0 0.26 0.28 0 0.28 0.28 0 0.3 0.28 0 0.32 0.28 0 0.34 0.28 0 0.36 0.28 0 0.38 0.28 0 0.4 0.28 0 0.42 0.28 0 0.44 0.28 0 0.46 0.28 0 0.48 0.28 0 0.5 0.28 0 0.52 0.28 0 0.54 0.28 0 0.56 0.28 0 0.58 0.28 0 0.6 0.28 0 0.62 0.28 0 0.64 0.28 0 0.66 0.28 0 0.68 0.28 0 0.7 0.28 0 0.72 0.28 0 0.74 0.28 0 0.76 0.28 0 0.78 0.28 0 0.8 0.28 0 0.82 0.28 0 0.84 0.28 0 0.86 0.28 0 0.88 0.28 0 0.9 0.28 0 0.92 0.28 0 0.94 0.28 0 0.96 0.28 0 0.98 0.28 0 1 0.28 0 0 0.3 0 0.02 0.3 0 0.04 0.3 0 0.06 0.3 0 0.08 0.3 0 0.1 0.3 0 0.12 0.3 0 0.14 0.3 0 0.16 0.3 0 0.18 0.3 0 0.2 0.3 0 0.22 0.3 0 0.24 0.3 0 0.26 0.3 0 0.28 0.3 0 0.3 0.3 0 0.32 0.3 0 0.34 0.3 0 0.36 0.3 0 0.38 0.3 0 0.4 0.3 0 0.42 0.3 0 0.44 0.3 0 0.46 0.3 0 0.48 0.3 0 0.5 0.3 0 0.52 0.3 0 0.54 0.3 0 0.56 0.3 0 0.58 0.3 0 0.6 0.3 0 0.62 0.3 0 0.64 0.3 0 0.66 0.3 0 0.68 0.3 0 0.7 0.3 0 0.72 0.3 0 0.74 0.3 0 0.76 0.3 0 0.78 0.3 0 0.8 0.3 0 0.82 0.3 0 0.84 0.3 0 0.86 0.3 0 0.88 0.3 0 0.9 0.3 0 0.92 0.3 0 0.94 0.3 0 0.96 0.3 0 0.98 0.3 0 1 0.3 0 0 0.32 0 0.02 0.32 0 0.04 0.32 0 0.06 0.32 0 0.08 0.32 0 0.1 0.32 0 0.12 0.32 0 0.14 0.32 0 0.16 0.32 0 0.18 0.32 0 0.2 0.32 0 0.22 0.32 0 0.24 0.32 0 0.26 0.32 0 0.28 0.32 0 0.3 0.32 0 0.32 0.32 0 0.34 0.32 0 0.36 0.32 0 0.38 0.32 0 0.4 0.32 0 0.42 0.32 0 0.44 0.32 0 0.46 0.32 0 0.48 0.32 0 0.5 0.32 0 0.52 0.32 0 0.54 0.32 0 0.56 0.32 0 0.58 0.32 0 0.6 0.32 0 0.62 0.32 0 0.64 0.32 0 0.66 0.32 0 0.68 0.32 0 0.7 0.32 0 0.72 0.32 0 0.74 0.32 0 0.76 0.32 0 0.78 0.32 0 0.8 0.32 0 0.82 0.32 0 0.84 0.32 0 0.86 0.32 0 0.88 0.32 0 0.9 0.32 0 0.92 0.32 0 0.94 0.
[...]
			<PointData Scalars="VitesseX">
				<DataArray Name="VitesseX" type="Float32" format="ascii">
 0 0 0 0 0 0 0 0 0 0 0 0 0 0 0 0 0 0 0 0 0 0 0 0 0 0 0 0 0 0 0 0 0 0 0 0 0 0 0 0 0 0 0 0 0 0 0 0 0 0 -0 0 -0.000541306 -0.00167383 -0.0034499 -0.0058419 -0.00881253 -0.0123153 -0.0162953 -0.02069 -0.0254305 -0.0304426 -0.0356482 -0.0409721 -0.0463311 -0.0516353 -0.0568069 -0.0617458 -0.0663808 -0.0706722 -0.0745486 -0.0779405 -0.0807602 -0.082983 -0.0845183 -0.0857644 -0.0877986 -0.0888743 -0.0886561 -0.0873294 -0.0852114 -0.0824294 -0.0790492 -0.0750503 -0.07054 -0.0656584 -0.0604289 -0.0549409 -0.0492915 -0.0435737 -0.0378827 -0.03231 -0.0269472 -0.0218809 -0.0171801 -0.0128686 -0.00901222 -0.00588831 -0.00336381 -0.00152054 -0.00038706 -4.84062e-27 0 -0.00105209 -0.00328184 -0.00678686 -0.0115132 -0.017388 -0.0243206 -0.0322037 -0.0409153 -0.0503206 -0.0602735 -0.0706191 -0.081194 -0.091828 -0.102367 -0.112662 -0.122562 -0.131861 -0.14038 -0.148035 -0.154709 -0.160296 -0.164709 -0.167777 -0.169867 -0.171378 -0.171826 -0.170611 -0.167766 -0.16353 -0.158017 -0.151326 -0.143546 -0.134838 -0.125368 -0.115269 -0.104703 -0.0938452 -0.0828711 -0.0719625 -0.0612906 -0.0510281 -0.0413414 -0.0323874 -0.0243026 -0.0171297 -0.0111068 -0.00630408 -0.00283565 -0.000717211 -8.37919e-27 0 -0.00150054 -0.0047646 -0.00992064 -0.0168911 -0.0255698 -0.0358236 -0.0474951 -0.0604064 -0.0743369 -0.0890641 -0.104491 -0.120346 -0.136192 -0.151818 -0.167031 -0.181602 -0.195304 -0.20792 -0.219253 -0.229125 -0.237381 -0.243892 -0.248491 -0.251364 -0.252656 -0.252537 -0.250215 -0.245757 -0.239335 -0.23109 -0.221132 -0.209638 -0.196833 -0.182906 -0.168092 -0.152621 -0.136739 -0.120701 -0.104772 -0.0891962 -0.0742219 -0.0600898 -0.0470278 -0.0352443 -0.0249126 -0.0161599 -0.00914202 -0.00410579 -0.00103604 -1.17885e-26 0 -0.00190082 -0.00613757 -0.0128598 -0.0219697 -0.0333335 -0.0467698 -0.0620418 -0.0790678 -0.0975829 -0.117035 -0.137117 -0.157654 -0.178332 -0.1988 -0.218737 -0.237831 -0.255778 -0.272297 -0.287126 -0.300032 -0.310812 -0.319297 -0.325313 -0.328905 -0.330161 -0.329474 -0.326042 -0.319951 -0.311355 -0.300433 -0.287341 -0.27229 -0.255544 -0.237374 -0.21808 -0.197954 -0.177311 -0.156482 -0.135806 -0.115595 -0.096169 -0.0778363 -0.0608905 -0.0456032 -0.0322128 -0.0209307 -0.0118409 -0.0053111 -0.00133857 -1.50159e-26 0 -0.00226136 -0.00739848 -0.0155693 -0.0266816 -0.0406523 -0.057378 -0.0762432 -0.0969048 -0.119218 -0.142825 -0.167359 -0.192463 -0.217739 -0.242755 -0.267119 -0.290444 -0.312361 -0.332521 -0.350604 -0.366326 -0.37944 -0.389743 -0.397045 -0.401277 -0.402553 -0.401317 -0.396791 -0.389105 -0.378429 -0.364969 -0.348913 -0.330511 -0.310075 -0.287941 -0.26447 -0.240013 -0.214945 -0.189667 -0.164589 -0.140083 -0.116532 -0.0943077 -0.0737618 -0.0552241 -0.0389906 -0.0253097 -0.0143632 -0.00643295 -0.00162009 -1.80117e-26 0 -0.00257702 -0.00852747 -0.0180544 -0.0311443 -0.0476127 -0.0669155 -0.0887332 -0.112835 -0.138862 -0.166408 -0.195039 -0.224335 -0.25383 -0.283015 -0.311432 -0.338627 -0.364167 -0.387643 -0.408684 -0.426958 -0.442179 -0.454111 -0.462554 -0.467344 -0.468631 -0.466877 -0.461304 -0.452115 -0.439498 -0.423684 -0.404891 -0.383408 -0.359595 -0.333839 -0.30656 -0.27816 -0.249071 -0.219756 -0.190687 -0.162288 -0.135001 -0.109251 -0.085444 -0.0639594 -0.0451457 -0.0292969 -0.0166696 -0.00745498 -0.0018762 -2.07297e-26 0 -0.00286049 -0.00962617 -0.0205274 -0.035332 -0.0536744 -0.0752705 -0.0998456 -0.127022 -0.156374 -0.187443 -0.219737 -0.252778 -0.286039 -0.318943 -0.35097 -0.381607 -0.410362 -0.436777 -0.460432 -0.480954 -0.498023 -0.511378 -0.520804 -0.526059 -0.527338 -0.525099 -0.518557 -0.507995 -0.493619 -0.475672 -0.45441 -0.430173 -0.403354 -0.374378 -0.343715 -0.311822 -0.279176 -0.246295 -0.213704 -0.181874 -0.151295 -0.12244 -0.0957582 -0.0716753 -0.0505837 -0.0328201 -0.0186688 -0.00835269 -0.0021029 -2.31278e-26 0 -0.00311859 -0.0105764 -0.0225462 -0.0387138 -0.0587577 -0.0824484 -0.109422 -0.139256 -0.171484 -0.205597 -0.241055 -0.277331 -0.31384 -0.349948 -0.385083 -0.418678 -0.450193 -0.479125 -0.505012 -0.527446 -0.546081 -0.560631 -0.57087 -0.576492 -0.577742 -0.575066 -0.567674 -0.55591 -0.539994 -0.520179 -0.496751 -0.470098 -0.440681 -0.408951 -0.375378 -0.340491 -0.304808 -0.268884 -0.233294 -0.198545 -0.165166 -0.133671 -0.104546 -0.0782532 -0.0552215 -0.0358251 -0.0203763 -0.00911806 -0.00229664 -2.5169e-26 0 -0.00328803 -0.01129 -0.024179 -0.0414326 -0.0629312 -0.0883558 -0.11731 -0.14934 -0.183942 -0.220569 -0.258639 -0.297585 -0.336773 -0.375521 -0.413212 -0.449237 -0.483015 -0.514003 -0.541709 -0.565696 -0.585592 -0.601091 -0.611962 -0.617844 -0.619036 -0.615932 -0.60775 -0.594912 -0.577655 -0.556257 -0.531052 -0.502468 -0.470965 -0.437013 -0.401088 -0.363745 -0.325576 -0.287181 -0.249159 -0.212045 -0.176403 -0.142773 -0.111673 -0.0835917 -0.0589876 -0.0382662 -0.0217638 -0.00975026 -0.0024544 -2.68216e-26 0 -0.00353718 -0.0119505 -0.0253756 -0.0435087 -0.066131 -0.092893 -0.123377 -0.157103 -0.19354 -0.232112 -0.272202 -0.31321 -0.354468 -0.395251 -0.43491 -0.4728 -0.508305 -0.540854 -0.569926 -0.595062 -0.615883 -0.63208 -0.643404 -0.649452 -0.650589 -0.647119 -0.638298 -0.6246 -0.606272 -0.583618 -0.557014 -0.526897 -0.493736 -0.458033 -0.420326 -0.381186 -0.341173 -0.300912 -0.261058 -0.22217 -0.184832 -0.149605 -0.117028 -0.0876078 -0.0618238 -0.0401057 -0.0228099 -0.010225 -0.00257225 -2.80602e-26 0 -0.0035865 -0.0123595 -0.0261689 -0.0449086 -0.0683005 -0.0959815 -0.127519 -0.162416 -0.200122 -0.240038 -0.281525 -0.323959 -0.36664 -0.408819 -0.449819 -0.488971 -0.525636 -0.559221 -0.589198 -0.615087 -0.636495 -0.653117 -0.664708 -0.670829 -0.671895 -0.668107 -0.65879 -0.64445 -0.625342 -0.601793 -0.574196 -0.542997 -0.508689 -0.471803 -0.432902 -0.392558 -0.351337 -0.309868 -0.268804 -0.228761 -0.190322 -0.154062 -0.120528 -0.0902384 -0.0636855 -0.041315 -0.0234983 -0.0105342 -0.00265106 -2.88653e-26 0 -0.00367805 -0.0125303 -0.0265527 -0.0456063 -0.0694012 -0.0975685 -0.129668 -0.165194 -0.203583 -0.244224 -0.286463 -0.329663 -0.373103 -0.416018 -0.457717 -0.497519 -0.534772 -0.568852 -0.599237 -0.625468 -0.647144 -0.663936 -0.675593 -0.681656 -0.682591 -0.678408 -0.66865 -0.653813 -0.634163 -0.610037 -0.581842 -0.550038 -0.515119 -0.477625 -0.438128 -0.397214 -0.35546 -0.313483 -0.271903 -0.231355 -0.192485 -0.155823 -0.121919 -0.0912926 -0.0644377 -0.0418055 -0.0237775 -0.0106593 -0.00268454 -2.92243e-26 0 -0.00368974 -0.0124901 -0.0264966 -0.0455386 -0.0693261 -0.0974906 -0.129592 -0.165126 -0.203529 -0.244189 -0.286451 -0.329675 -0.373139 -0.416079 -0.457806 -0.497638 -0.53488 -0.568966 -0.59938 -0.625638 -0.647321 -0.664091 -0.675696 -0.681689 -0.682586 -0.67831 -0.668452 -0.653512 -0.633753 -0.609513 -0.581223 -0.549356 -0.514392 -0.476865 -0.437349 -0.396444 -0.354735 -0.31285 -0.271376 -0.23088 -0.192034 -0.155466 -0.12165 -0.0911005 -0.0643094 -0.0417253 -0.0237328 -0.0106395 -0.00268074 -2.91314e-26 0 -0.00362701 -0.0122656 -0.0260563 -0.0448227 -0.0682823 -0.0960744 -0.127766 -0.162857 -0.200791 -0.240959 -0.282711 -0.325411 -0.368337 -0.410737 -0.451926 -0.491162 -0.527848 -0.561425 -0.591337 -0.617081 -0.638243 -0.654508 -0.66564 -0.67116 -0.671818 -0.667386 -0.657475 -0.642567 -0.622928 -0.598896 -0.570929 -0.539487 -0.505029 -0.468094 -0.429242 -0.389026 -0.348032 -0.306922 -0.26628 -0.226614 -0.188484 -0.152542 -0.119382 -0.0894202 -0.0631377 -0.040974 -0.0233096 -0.0104513 -0.00263363 -2.85878e-26 0 -0.00350461 -0.0118469 -0.0252007 -0.04339 -0.0661449 -0.093118 -0.123889 -0.157973 -0.194826 -0.233853 -0.27442 -0.315905 -0.357601 -0.398768 -0.438687 -0.476739 -0.512335 -0.544871 -0.57378 -0.598584 -0.618912 -0.634462 -0.644996 -0.650052 -0.650502 -0.645904 -0.636081 -0.621437 -0.602231 -0.578792 -0.551575 -0.521019 -0.487584 -0.451829 -0.414278 -0.375427 -0.335817 -0.296099 -0.256875 -0.218672 -0.181937 -0.14724 -0.115216 -0.08632 -0.0609654 -0.0395759 -0.0225199 -0.0100993 -0.00254278 -2.76016e-26 0 -0.00332284 -0.0112434 -0.023951 -0.0412798 -0.0629777 -0.0887159 -0.118095 -0.150649 -0.185858 -0.22315 -0.261914 -0.301555 -0.341382 -0.380672 -0.41874 -0.455058 -0.489006 -0.519946 -0.547355 -0.570818 -0.589996 -0.604572 -0.614298 -0.618763 -0.618959 -0.614235 -0.604647 -0.59049 -0.572017 -0.54954 -0.523511 -0.494346 -0.462478 -0.428412 -0.392667 -0.355796 -0.318246 -0.280581 -0.243376 -0.20718 -0.172452 -0.139608 -0.109213 -0.0818474 -0.0578251 -0.0375517 -0.0213756 -0.00958896 -0.00241449 -2.61872e-26 0 -0.00308533 -0.0104607 -0.0223261 -0.0385274 -0.058834 -0.0829429 -0.110481 -0.141011 -0.174041 -0.209032 -0.245405 -0.282593 -0.319932 -0.356717 -0.392425 -0.426459 -0.458183 -0.487007 -0.512483 -0.534266 -0.551988 -0.565322 -0.574059 -0.577843 -0.577747 -0.572877 -0.563664 -0.550206 -0.532754 -0.511592 -0.487159 -0.459847 -0.430043 -0.398227 -0.36488 -0.330503 -0.295568 -0.260586 -0.226014 -0.192377 -0.160173 -0.129719 -0.101499 -0.0760715 -0.0537647 -0.0349321 -0.0198939 -0.00892789 -0.00224868 -2.43681e-26 0 -0.00280686 -0.00951804 -0.0203409 -0.0351589 -0.0537634 -0.0758778 -0.101158 -0.1292 -0.159549 -0.191707 -0.225135 -0.259306 -0.293603 -0.327365 -0.360149 -0.391347 -0.420318 -0.446577 -0.46977 -0.489529 -0.505459 -0.517304 -0.5249 -0.527931 -0.527518 -0.522482 -0.513774 -0.501212 -0.485052 -0.465536 -0.443081 -0.418054 -0.390784 -0.361717 -0.331293 -0.299972 -0.268184 -0.236413 -0.205051 -0.174518 -0.145302 -0.117737 -0.0921778 -0.0690811 -0.0488472 -0.0317573 -0.0180974 -0.00812624 -0.00204761 -2.21818e-26 0 -0.00248388 -0.00843787 -0.0180706 -0.0312748 -0.0478793 -0.0676434 -0.0902709 -0.115401 -0.142616 -0.171459 -0.201442 -0.232082 -0.262818 -0.293084 -0.322414 -0.350248 -0.376005 -0.399308 -0.419865 -0.437241 -0.451081 -0.46125 -0.467545 -0.469873 -0.469003 -0.463847 -0.455756 -0.444271 -0.429649 -0.412083 -0.391955 -0.36961 -0.345302 -0.319442 -0.29242 -0.264648 -0.236504 -0.208437 -0.180781 -0.15386 -0.128104 -0.10385 -0.0813524 -0.0609869 -0.0431493 -0.0280764 -0.0160138 -0.00719633 -0.00181439 -1.96556e-26 0 -0.00211857 -0.00723114 -0.0155344 -0.0269379 -0.0413071 -0.058442 -0.0780839 -0.099917 -0.123578 -0.148662 -0.174738 -0.201375 -0.228065 -0.254355 -0.279773 -0.303796 -0.32595 -0.345945 -0.363482 -0.37815 -0.389689 -0.397997 -0.402884 -0.404461 -0.403133 -0.397907 -0.390523 -0.380267 -0.36739 -0.352047 -0.334558 -0.315251 -0.29429 -0.272044 -0.248849 -0.225063 -0.201017 -0.177094 -0.153573 -0.130724 -0.108851 -0.0882751 -0.0692061 -0.0519235 -0.0367608 -0.0239469 -0.0136751 -0.00615251 -0.00155263 -1.67693e-26 0 -0.00172645 -0.00591714 -0.0127566 -0.0221979 -0.034135 -0.0484051 -0.0647849 -0.0830097 -0.102774 -0.123733 -0.145513 -0.167738 -0.189964 -0.211829 -0.232901 -0.252719 -0.270921 -0.287283 -0.30149 -0.31319 -0.322228 -0.32852 -0.331916 -0.332659 -0.330909 -0.325693 -0.318985 -0.309878 -0.298792 -0.285981 -0.271596 -0.25575 -0.23851 -0.220233 -0.201234 -0.18181 -0.162254 -0.142868 -0.123879 -0.105462 -0.0878327 -0.0712733 -0.0559409 -0.0420213 -0.0297822 -0.0194336 -0.0111179 -0.00501092 -0.00126639 -1.35858e-26 0 -0.00131243 -0.00452943 -0.00981081 -0.017143 -0.026465 -0.0376515 -0.0505314 -0.0648939 -0.080486 -0.0970221 -0.11419 -0.13167 -0.149095 -0.166161 -0.182526 -0.197818 -0.211755 -0.224159 -0.234768 -0.243325 -0.249737 -0.253926 -0.255802 -0.25559 -0.253433 -0.24813 -0.241228 -0.231956 -0.221875 -0.211795 -0.201832 -0.19119 -0.178649 -0.16476 -0.150269 -0.135521 -0.120781 -0.106252 -0.0921005 -0.0784457 -0.0653819 -0.053111 -0.041756 -0.0314307 -0.0223235 -0.0146076 -0.0083822 -0.00378932 -0.000960122 -1.02623e-26 0 -0.000880821 -0.00309523 -0.00675529 -0.0118814 -0.0184541 -0.0263893 -0.0355761 -0.045857 -0.0570366 -0.0688932 -0.0811861 -0.0936589 -0.106026 -0.118027 -0.129425 -0.139955 -0.149385 -0.15757 -0.164348 -0.169576 -0.17321 -0.175212 -0.175668 -0.174445 -0.171875 -0.165418 -0.15763 -0.150014 -0.142277 -0.134186 -0.126184 -0.119336 -0.114004 -0.106237 -0.0966409 -0.08684 -0.0771791 -0.0677847 -0.0587383 -0.0500879 -0.0418247 -0.0340557 -0.0268727 -0.0203207 -0.0144977 -0.00954445 -0.00551085 -0.00250674 -0.000638584 -6.78389e-27 0 -0.000449368 -0.00164159 -0.00365714 -0.00653429 -0.0102778 -0.0148536 -0.0202134 -0.0262533 -0.0328424 -0.0398318 -0.0470579 -0.0543321 -0.0614544 -0.0682032 -0.0744521 -0.0800477 -0.0848167 -0.0886505 -0.0914832 -0.0932472 -0.0939715 -0.0936961 -0.0924728 -0.0904146 -0.0874453 -0.0790539 -0.0738889 -0.0689322 -0.0637625 -0.0584797 -0.0531796 -0.0481143 -0.044654 -0.0442183 -0.0409406 -0.0363738 -0.0320254 -0.0279932 -0.0242588 -0.0207889 -0.0175138 -0.0144105 -0.0115354 -0.00886949 -0.00642762 -0.00432116 -0.00254914 -0.00118344 -0.000306944 -3.21175e-27 0 -5.7199e-05 -0.000232144 -0.000603028 -0.00121275 -0.00209829 -0.00327419 -0.00473721 -0.00644374 -0.00833798 -0.0103481 -0.0123821 -0.0143288 -0.0160904 -0.0174952 -0.0184981 -0.0190558 -0.019092 -0.0185002 -0.0173344 -0.015648 -0.0134446 -0.0107908 -0.00779624 -0.00454264 -0.000184568 0.00577336 0.00976179 0.0129807 0.0157937 0.0181493 0.0199346 0.0211708 0.0217928 0.0201398 0.0162938 0.0151499 0.0139966 0.0125155 0.0108088 0.00899561 0.00719184 0.00553747 0.00403729 0.00275978 0.00176508 0.000985941 0.000457189 0.000158902 2.90069e-05 2.70417e-28 0 0.00027803 0.00109382 0.00237043 0.0040383 0.00602532 0.0082711 0.0107292 0.0133711 0.016188 0.0191819 0.0223716 0.0257818 0.0294119 0.0333627 0.037622 0.0421267 0.046833 0.0517994 0.0569953 0.0621968 0.0672478 0.0722212 0.0769612 0.0813314 0.0855973 0.0898121 0.09296 0.0946571 0.0951874 0.0946549 0.0930088 0.0902706 0.0865519 0.0816752 0.073724 0.0665587 0.0598822 0.0528986 0.045761 0.0386708 0.0318212 0.0254164 0.0195663 0.0143653 0.00994158 0.00629548 0.00347531 0.00151489 0.00038125 3.83767e-27 0 0.000610678 0.00241304 0.00531995 0.00923984 0.0140644 0.0196873 0.0260086 0.0329378 0.0403975 0.0483185 0.0566393 0.0653025 0.0742378 0.0834411 0.0928711 0.102368 0.111753 0.120972 0.130053 0.138774 0.14672 0.153831 0.16017 0.165459 0.169928 0.173026 0.174851 0.174818 0.173205 0.169887 0.164949 0.158438 0.150479 0.141207 0.129658 0.116823 0.104762 0.0924315 0.0800032 0.0677638 0.055983 0.0449249 0.0348136 0.0257681 0.0179848 0.0115332 0.00646553 0.00286811 0.000739406 7.40527e-27 0 0.000934432 0.00370376 0.00818844 0.014296 0.0218769 0.0307811 0.0408566 0.0519517 0.063921 0.0766231 0.0899196 0.103676 0.117752 0.132026 0.146429 0.160764 0.174714 0.188062 0.200772 0.212754 0.223585 0.232953 0.240797 0.246902 0.251464 0.253936 0.254462 0.252959 0.249097 0.243026 0.234831 0.224626 0.212578 0.198912 0.183228 0.165259 0.148013 0.130538 0.113016 0.0958218 0.0792951 0.0637552 0.0495347 0.0367864 0.025767 0.0166079 0.00937067 0.00418903 0.00108984 1.08763e-26 0 0.00124256 0.00493081 0.010923 0.0191194 0.0293322 0.0413709 0.0550334 0.07011 0.0863895 0.10366 0.12171 0.140327 0.159298 0.178411 0.197503 0.216397 0.234714 0.252036 0.268202 0.283124 0.296541 0.308064 0.317405 0.324368 0.329016 0.330988 0.330493 0.327435 0.321432 0.312702 0.301359 0.287586 0.27162 0.253769 0.233878 0.211063 0.188943 0.166607 0.144276 0.1224 0.101388 0.0816105 0.0635009 0.047252 0.0331664 0.021433 0.0121403 0.00545163 0.00142594 1.41859e-26 0 0.00153073 0.00607259 0.013492 0.0236369 0.0363159 0.0512936 0.0683204 0.0871323 0.107456 0.129012 0.151518 0.17469 0.19824 0.221891 0.24536 0.268415 0.29076 0.311859 0.331323 0.348986 0.364667 0.378039 0.388768 0.396592 0.40141 0.402884 0.401494 0.396761 0.388659 0.377405 0.363169 0.346149 0.3266 0.304893 0.280959 0.253525 0.226915 0.200076 0.173291 0.147081 0.121915 0.0982102 0.0764934 0.0569975 0.0400625 0.0259315 0.0147264 0.00663423 0.00174206 1.72765e-26 0 0.00179483 0.00712363 0.0158913 0.0277787 0.042719 0.0603939 0.0805099 0.102753 0.126791 0.152283 0.178881 0.206231 0.233978 0.261791 0.289284 0.316098 0.342013 0.366523 0.389034 0.409265 0.427037 0.442035 0.453935 0.462502 0.467465 0.468532 0.466444 0.460248 0.450315 0.436801 0.419921 0.399922 0.377085 0.351844 0.323936 0.29201 0.261367 0.23044 0.199619 0.169483 0.140557 0.113295 0.0883094 0.0658671 0.0463481 0.0300426 0.0170861 0.00771424 0.00203295 2.00966e-26 0 0.00203094 0.00806209 0.0179884 0.0314787 0.0484422 0.0685305 0.0914121 0.116727 0.144093 0.173112 0.203374 0.234464 0.265967 0.297492 0.328574 0.3588 0.387803 0.415221 0.440421 0.462967 0.482619 0.499047 0.511952 0.521124 0.526126 0.526903 0.524283 0.516852 0.505366 0.48989 0.470648 0.447937 0.422115 0.393691 0.361831 0.325909 0.291762 0.257249 0.222872 0.189268 0.157029 0.126633 0.0987658 0.0737239 0.0519246 0.0337013 0.0191882 0.0086726 0.00229037 2.26007e-26 0 0.00223531 0.00887594 0.0197928 0.0346801 0.0533969 0.0755771 0.100858 0.128839 0.159094 0.191174 0.224616 0.258948 0.293707 0.328442 0.362624 0.395792 0.427472 0.457352 0.484809 0.509281 0.530504 0.548169 0.561933 0.571577 0.576574 0.577126 0.573835 0.565262 0.552298 0.535052 0.513763 0.488745 0.460402 0.429249 0.393488 0.354706 0.317583 0.280041 0.242666 0.206137 0.17108 0.13802 0.107701 0.0804472 0.0567032 0.0368441 0.0209974 0.00949976 0.00250997 2.47507e-26 0 0.00240458 0.00955184 0.0213062 0.0373498 0.0575071 0.081425 0.1087 0.1389 0.17156 0.206189 0.242276 0.279305 0.316768 0.354162 0.390906 0.426495 0.460412 0.492274 0.521521 0.547517 0.569978 0.588632 0.603082 0.613065 0.618043 0.618334 0.614378 0.60487 0.590694 0.571981 0.548993 0.522071 0.491668 0.458116 0.418249 0.378019 0.338478 0.298486 0.258697 0.219819 0.182494 0.147285 0.11498 0.0859329 0.0606088 0.0394191 0.0224763 0.0101817 0.00269336 2.65133e-26 0 0.00253605 0.0100782 0.0225006 0.0394951 0.0607112 0.0859843 0.114819 0.146756 0.181299 0.217923 0.256082 0.295218 0.334792 0.374254 0.412983 0.450437 0.486073 0.519441 0.550026 0.577136 0.600463 0.619773 0.634653 0.644827 0.649722 0.649813 0.645326 0.635065 0.619929 0.600064 0.575753 0.547361 0.5154 0.479432 0.436363 0.395517 0.354173 0.31235 0.270751 0.230112 0.1911 0.154296 0.120494 0.0900952 0.0635782 0.0413799 0.0236019 0.0107016 0.00283585 2.78595e-26 0 0.00262771 0.0104462 0.0233193 0.0409584 0.0629583 0.0891857 0.11912 0.152284 0.18816 0.226196 0.265819 0.306441 0.3475 0.388407 0.428514 0.467248 0.504046 0.538424 0.569878 0.597692 0.621532 0.641187 0.656251 0.666442 0.671196 0.671097 0.666163 0.655347 0.639514 0.61883 0.593591 0.564195 0.5311 0.491599 0.448442 0.406953 0.364433 0.321423 0.278655 0.236877 0.196762 0.158955 0.124163 0.0928675 0.0655641 0.0426874 0.0243551 0.0110522 0.00293243 2.87679e-26 0 0.00267819 0.0106499 0.0237731 0.0417707 0.0642404 0.0909817 0.12154 0.155403 0.192039 0.230882 0.271338 0.312803 0.354697 0.396403 0.437258 0.47667 0.514058 0.548927 0.58077 0.608862 0.632856 0.652553 0.667559 0.677589 0.682142 0.681839 0.676494 0.665303 0.649021 0.62784 0.602072 0.57215 0.537489 0.494438 0.453399 0.411577 0.368612 0.325156 0.281949 0.239742 0.199158 0.161004 0.125818 0.0941342 0.0664841 0.0432789 0.0247164 0.0112255 0.00298157 2.92243e-26 0 0.00268635 0.0106835 0.0238473 0.0419529 0.0645729 0.0913152 0.121995 0.155999 0.192793 0.231801 0.272426 0.314052 0.356095 0.397924 0.438868 0.478329 0.515721 0.550545 0.582297 0.610248 0.634053 0.653524 0.668272 0.678008 0.682385 0.681968 0.676479 0.665316 0.649028 0.627841 0.602091 0.571884 0.532999 0.492596 0.452618 0.410922 0.36806 0.324708 0.281601 0.239489 0.198942 0.160894 0.125774 0.0941208 0.0664907 0.0432522 0.0247215 0.0112321 0.0029854 2.92214e-26 0 0.00266114 0.010584 0.0236264 0.0415477 0.0639645 0.0905241 0.120939 0.154662 0.191154 0.229844 0.270129 0.311392 0.35305 0.394458 0.434949 0.47392 0.510782 0.545038 0.576179 0.603485 0.626612 0.645377 0.659394 0.668383 0.671995 0.671259 0.665573 0.654461 0.638292 0.617336 0.591829 0.558586 0.520676 0.483676 0.444535 0.40359 0.361507 0.318949 0.276637 0.235297 0.195513 0.158144 0.123644 0.0925587 0.0654279 0.0425467 0.0243221 0.0110553 0.00294114 2.8759e-26 0 0.00258627 0.010287 0.022967 0.0403842 0.0622574 0.0880848 0.117619 0.150435 0.185942 0.223588 0.262783 0.30292 0.