<?xml version="1.0"?>
<VTKFile type="PolyData">
	<PolyData>
		<Piece NumberOfPoints="2601" NumberOfPolys="2500">
			<Points>
				<DataArray type="Float32" NumberOfComponents="3" format="ascii">
 0 0 0 0.02 0 0 0.04 0 0 0.06 0 0 0.08 0 0 0.1 0 0 0.12 0 0 0.14 0 0 0.16 0 0 0.18 0 0 0.2 0 0 0.22 0 0 0.24 0 0 0.26 0 0 0.28 0 0 0.3 0 0 0.32 0 0 0.34 0 0 0.36 0 0 0.38 0 0 0.4 0 0 0.42 0 0 0.44 0 0 0.46 0 0 0.48 0 0 0.5 0 0 0.52 0 0 0.54 0 0 0.56 0 0 0.58 0 0 0.6 0 0 0.62 0 0 0.64 0 0 0.66 0 0 0.68 0 0 0.7 0 0 0.72 0 0 0.74 0 0 0.76 0 0 0.78 0 0 0.8 0 0 0.82 0 0 0.84 0 0 0.86 0 0 0.88 0 0 0.9 0 0 0.92 0 0 0.94 0 0 0.96 0 0 0.98 0 0 1 0 0 0 0.02 0 0.02 0.02 0 0.04 0.02 0 0.06 0.02 0 0.08 0.02 0 0.1 0.02 0 0.12 0.02 0 0.14 0.02 0 0.16 0.02 0 0.18 0.02 0 0.2 0.02 0 0.22 0.02 0 0.24 0.02 0 0.26 0.02 0 0.28 0.02 0 0.3 0.02 0 0.32 0.02 0 0.34 0.02 0 0.36 0.02 0 0.38 0.02 0 0.4 0.02 0 0.42 0.02 0 0.44 0.02 0 0.46 0.02 0 0.48 0.02 0 0.5 0.02 0 0.52 0.02 0 0.54 0.02 0 0.56 0.02 0 0.58 0.02 0 0.6 0.02 0 0.62 0.02 0 0.64 0.02 0 0.66 0.02 0 0.68 0.02 0 0.7 0.02 0 0.72 0.02 0 0.74 0.02 0 0.76 0.02 0 0.78 0.02 0 0.8 0.02 0 0.82 0.02 0 0.84 0.02 0 0.86 0.02 0 0.88 0.02 0 0.9 0.02 0 0.92 0.02 0 0.94 0.02 0 0.96 0.02 0 0.98 0.02 0 1 0.02 0 0 0.04 0 0.02 0.04 0 0.04 0.04 0 0.06 0.04 0 0.08 0.04 0 0.1 0.04 0 0.12 0.04 0 0.14 0.04 0 0.16 0.04 0 0.18 0.04 0 0.2 0.04 0 0.22 0.04 0 0.24 0.04 0 0.26 0.04 0 0.28 0.04 0 0.3 0.04 0 0.32 0.04 0 0.34 0.04 0 0.36 0.04 0 0.38 0.04 0 0.4 0.04 0 0.42 0.04 0 0.44 0.04 0 0.46 0.04 0 0.48 0.04 0 0.5 0.04 0 0.52 0.04 0 0.54 0.04 0 0.56 0.04 0 0.58 0.04 0 0.6 0.04 0 0.62 0.04 0 0.64 0.04 0 0.66 0.04 0 0.68 0.04 0 0.7 0.04 0 0.72 0.04 0 0.74 0.04 0 0.76 0.04 0 0.78 0.04 0 0.8 0.04 0 0.82 0.04 0 0.84 0.04 0 0.86 0.04 0 0.88 0.04 0 0.9 0.04 0 0.92 0.04 0 0.94 0.04 0 0.96 0.04 0 0.98 0.04 0 1 0.04 0 0 0.06 0 0.02 0.06 0 0.04 0.06 0 0.06 0.06 0 0.08 0.06 0 0.1 0.06 0 0.12 0.06 0 0.14 0.06 0 0.16 0.06 0 0.18 0.06 0 0.2 0.06 0 0.22 0.06 0 0.24 0.06 0 0.26 0.06 0 0.28 0.06 0 0.3 0.06 0 0.32 0.06 0 0.34 0.06 0 0.36 0.06 0 0.38 0.06 0 0.4 0.06 0 0.42 0.06 0 0.44 0.06 0 0.46 0.06 0 0.48 0.06 0 0.5 0.06 0 0.52 0.06 0 0.54 0.06 0 0.56 0.06 0 0.58 0.06 0 0.6 0.06 0 0.62 0.06 0 0.64 0.06 0 0.66 0.06 0 0.68 0.06 0 0.7 0.06 0 0.72 0.06 0 0.74 0.06 0 0.76 0.06 0 0.78 0.06 0 0.8 0.06 0 0.82 0.06 0 0.84 0.06 0 0.86 0.06 0 0.88 0.06 0 0.9 0.06 0 0.92 0.06 0 0.94 0.06 0 0.96 0.06 0 0.98 0.06 0 1 0.06 0 0 0.08 0 0.02 0.08 0 0.04 0.08 0 0.06 0.08 0 0.08 0.08 0 0.1 0.08 0 0.12 0.08 0 0.14 0.08 0 0.16 0.08 0 0.18 0.08 0 0.2 0.08 0 0.22 0.08 0 0.24 0.08 0 0.26 0.08 0 0.28 0.08 0 0.3 0.08 0 0.32 0.08 0 0.34 0.08 0 0.36 0.08 0 0.38 0.08 0 0.4 0.08 0 0.42 0.08 0 0.44 0.08 0 0.46 0.08 0 0.48 0.08 0 0.5 0.08 0 0.52 0.08 0 0.54 0.08 0 0.56 0.08 0 0.58 0.08 0 0.6 0.08 0 0.62 0.08 0 0.64 0.08 0 0.66 0.08 0 0.68 0.08 0 0.7 0.08 0 0.72 0.08 0 0.74 0.08 0 0.76 0.08 0 0.78 0.08 0 0.8 0.08 0 0.82 0.08 0 0.84 0.08 0 0.86 0.08 0 0.88 0.08 0 0.9 0.08 0 0.92 0.08 0 0.94 0.08 0 0.96 0.08 0 0.98 0.08 0 1 0.08 0 0 0.1 0 0.02 0.1 0 0.04 0.1 0 0.06 0.1 0 0.08 0.1 0 0.1 0.1 0 0.12 0.1 0 0.14 0.1 0 0.16 0.1 0 0.18 0.1 0 0.2 0.1 0 0.22 0.1 0 0.24 0.1 0 0.26 0.1 0 0.28 0.1 0 0.3 0.1 0 0.32 0.1 0 0.34 0.1 0 0.36 0.1 0 0.38 0.1 0 0.4 0.1 0 0.42 0.1 0 0.44 0.1 0 0.46 0.1 0 0.48 0.1 0 0.5 0.1 0 0.52 0.1 0 0.54 0.1 0 0.56 0.1 0 0.58 0.1 0 0.6 0.1 0 0.62 0.1 0 0.64 0.1 0 0.66 0.1 0 0.68 0.1 0 0.7 0.1 0 0.72 0.1 0 0.74 0.1 0 0.76 0.1 0 0.78 0.1 0 0.8 0.1 0 0.82 0.1 0 0.84 0.1 0 0.86 0.1 0 0.88 0.1 0 0.9 0.1 0 0.92 0.1 0 0.94 0.1 0 0.96 0.1 0 0.98 0.1 0 1 0.1 0 0 0.12 0 0.02 0.12 0 0.04 0.12 0 0.06 0.12 0 0.08 0.12 0 0.1 0.12 0 0.12 0.12 0 0.14 0.12 0 0.16 0.12 0 0.18 0.12 0 0.2 0.12 0 0.22 0.12 0 0.24 0.12 0 0.26 0.12 0 0.28 0.12 0 0.3 0.12 0 0.32 0.12 0 0.34 0.12 0 0.36 0.12 0 0.38 0.12 0 0.4 0.12 0 0.42 0.12 0 0.44 0.12 0 0.46 0.12 0 0.48 0.12 0 0.5 0.12 0 0.52 0.12 0 0.54 0.12 0 0.56 0.12 0 0.58 0.12 0 0.6 0.12 0 0.62 0.12 0 0.64 0.12 0 0.66 0.12 0 0.68 0.12 0 0.7 0.12 0 0.72 0.12 0 0.74 0.12 0 0.76 0.12 0 0.78 0.12 0 0.8 0.12 0 0.82 0.12 0 0.84 0.12 0 0.86 0.12 0 0.88 0.12 0 0.9 0.12 0 0.92 0.12 0 0.94 0.12 0 0.96 0.12 0 0.98 0.12 0 1 0.12 0 0 0.14 0 0.02 0.14 0 0.04 0.14 0 0.06 0.14 0 0.08 0.14 0 0.1 0.14 0 0.12 0.14 0 0.14 0.14 0 0.16 0.14 0 0.18 0.14 0 0.2 0.14 0 0.22 0.14 0 0.24 0.14 0 0.26 0.14 0 0.28 0.14 0 0.3 0.14 0 0.32 0.14 0 0.34 0.14 0 0.36 0.14 0 0.38 0.14 0 0.4 0.14 0 0.42 0.14 0 0.44 0.14 0 0.46 0.14 0 0.48 0.14 0 0.5 0.14 0 0.52 0.14 0 0.54 0.14 0 0.56 0.14 0 0.58 0.14 0 0.6 0.14 0 0.62 0.14 0 0.64 0.14 0 0.66 0.14 0 0.68 0.14 0 0.7 0.14 0 0.72 0.14 0 0.74 0.14 0 0.76 0.14 0 0.78 0.14 0 0.8 0.14 0 0.82 0.14 0 0.84 0.14 0 0.86 0.14 0 0.88 0.14 0 0.9 0.14 0 0.92 0.14 0 0.94 0.14 0 0.96 0.14 0 0.98 0.14 0 1 0.14 0 0 0.16 0 0.02 0.16 0 0.04 0.16 0 0.06 0.16 0 0.08 0.16 0 0.1 0.16 0 0.12 0.16 0 0.14 0.16 0 0.16 0.16 0 0.18 0.16 0 0.2 0.16 0 0.22 0.16 0 0.24 0.16 0 0.26 0.16 0 0.28 0.16 0 0.3 0.16 0 0.32 0.16 0 0.34 0.16 0 0.36 0.16 0 0.38 0.16 0 0.4 0.16 0 0.42 0.16 0 0.44 0.16 0 0.46 0.16 0 0.48 0.16 0 0.5 0.16 0 0.52 0.16 0 0.54 0.16 0 0.56 0.16 0 0.58 0.16 0 0.6 0.16 0 0.62 0.16 0 0.64 0.16 0 0.66 0.16 0 0.68 0.16 0 0.7 0.16 0 0.72 0.16 0 0.74 0.16 0 0.76 0.16 0 0.78 0.16 0 0.8 0.16 0 0.82 0.16 0 0.84 0.16 0 0.86 0.16 0 0.88 0.16 0 0.9 0.16 0 0.92 0.16 0 0.94 0.16 0 0.96 0.16 0 0.98 0.16 0 1 0.16 0 0 0.18 0 0.02 0.18 0 0.04 0.18 0 0.06 0.18 0 0.08 0.18 0 0.1 0.18 0 0.12 0.18 0 0.14 0.18 0 0.16 0.18 0 0.18 0.18 0 0.2 0.18 0 0.22 0.18 0 0.24 0.18 0 0.26 0.18 0 0.28 0.18 0 0.3 0.18 0 0.32 0.18 0 0.34 0.18 0 0.36 0.18 0 0.38 0.18 0 0.4 0.18 0 0.42 0.18 0 0.44 0.18 0 0.46 0.18 0 0.48 0.18 0 0.5 0.18 0 0.52 0.18 0 0.54 0.18 0 0.56 0.18 0 0.58 0.18 0 0.6 0.18 0 0.62 0.18 0 0.64 0.18 0 0.66 0.18 0 0.68 0.18 0 0.7 0.18 0 0.72 0.18 0 0.74 0.18 0 0.76 0.18 0 0.78 0.18 0 0.8 0.18 0 0.82 0.18 0 0.84 0.18 0 0.86 0.18 0 0.88 0.18 0 0.9 0.18 0 0.92 0.18 0 0.94 0.18 0 0.96 0.18 0 0.98 0.18 0 1 0.18 0 0 0.2 0 0.02 0.2 0 0.04 0.2 0 0.06 0.2 0 0.08 0.2 0 0.1 0.2 0 0.12 0.2 0 0.14 0.2 0 0.16 0.2 0 0.18 0.2 0 0.2 0.2 0 0.22 0.2 0 0.24 0.2 0 0.26 0.2 0 0.28 0.2 0 0.3 0.2 0 0.32 0.2 0 0.34 0.2 0 0.36 0.2 0 0.38 0.2 0 0.4 0.2 0 0.42 0.2 0 0.44 0.2 0 0.46 0.2 0 0.48 0.2 0 0.5 0.2 0 0.52 0.2 0 0.54 0.2 0 0.56 0.2 0 0.58 0.2 0 0.6 0.2 0 0.62 0.2 0 0.64 0.2 0 0.66 0.2 0 0.68 0.2 0 0.7 0.2 0 0.72 0.2 0 0.74 0.2 0 0.76 0.2 0 0.78 0.2 0 0.8 0.2 0 0.82 0.2 0 0.84 0.2 0 0.86 0.2 0 0.88 0.2 0 0.9 0.2 0 0.92 0.2 0 0.94 0.2 0 0.96 0.2 0 0.98 0.2 0 1 0.2 0 0 0.22 0 0.02 0.22 0 0.04 0.22 0 0.06 0.22 0 0.08 0.22 0 0.1 0.22 0 0.12 0.22 0 0.14 0.22 0 0.16 0.22 0 0.18 0.22 0 0.2 0.22 0 0.22 0.22 0 0.24 0.22 0 0.26 0.22 0 0.28 0.22 0 0.3 0.22 0 0.32 0.22 0 0.34 0.22 0 0.36 0.22 0 0.38 0.22 0 0.4 0.22 0 0.42 0.22 0 0.44 0.22 0 0.46 0.22 0 0.48 0.22 0 0.5 0.22 0 0.52 0.22 0 0.54 0.22 0 0.56 0.22 0 0.58 0.22 0 0.6 0.22 0 0.62 0.22 0 0.64 0.22 0 0.66 0.22 0 0.68 0.22 0 0.7 0.22 0 0.72 0.22 0 0.74 0.22 0 0.76 0.22 0 0.78 0.22 0 0.8 0.22 0 0.82 0.22 0 0.84 0.22 0 0.86 0.22 0 0.88 0.22 0 0.9 0.22 0 0.92 0.22 0 0.94 0.22 0 0.96 0.22 0 0.98 0.22 0 1 0.22 0 0 0.24 0 0.02 0.24 0 0.04 0.24 0 0.06 0.24 0 0.08 0.24 0 0.1 0.24 0 0.12 0.24 0 0.14 0.24 0 0.16 0.24 0 0.18 0.24 0 0.2 0.24 0 0.22 0.24 0 0.24 0.24 0 0.26 0.24 0 0.28 0.24 0 0.3 0.24 0 0.32 0.24 0 0.34 0.24 0 0.36 0.24 0 0.38 0.24 0 0.4 0.24 0 0.42 0.24 0 0.44 0.24 0 0.46 0.24 0 0.48 0.24 0 0.5 0.24 0 0.52 0.24 0 0.54 0.24 0 0.56 0.24 0 0.58 0.24 0 0.6 0.24 0 0.62 0.24 0 0.64 0.24 0 0.66 0.24 0 0.68 0.24 0 0.7 0.24 0 0.72 0.24 0 0.74 0.24 0 0.76 0.24 0 0.78 0.24 0 0.8 0.24 0 0.82 0.24 0 0.84 0.24 0 0.86 0.24 0 0.88 0.24 0 0.9 0.24 0 0.92 0.24 0 0.94 0.24 0 0.96 0.24 0 0.98 0.24 0 1 0.24 0 0 0.26 0 0.02 0.26 0 0.04 0.26 0 0.06 0.26 0 0.08 0.26 0 0.1 0.26 0 0.12 0.26 0 0.14 0.26 0 0.16 0.26 0 0.18 0.26 0 0.2 0.26 0 0.22 0.26 0 0.24 0.26 0 0.26 0.26 0 0.28 0.26 0 0.3 0.26 0 0.32 0.26 0 0.34 0.26 0 0.36 0.26 0 0.38 0.26 0 0.4 0.26 0 0.42 0.26 0 0.44 0.26 0 0.46 0.26 0 0.48 0.26 0 0.5 0.26 0 0.52 0.26 0 0.54 0.26 0 0.56 0.26 0 0.58 0.26 0 0.6 0.26 0 0.62 0.26 0 0.64 0.26 0 0.66 0.26 0 0.68 0.26 0 0.7 0.26 0 0.72 0.26 0 0.74 0.26 0 0.76 0.26 0 0.78 0.26 0 0.8 0.26 0 0.82 0.26 0 0.84 0.26 0 0.86 0.26 0 0.88 0.26 0 0.9 0.26 0 0.92 0.26 0 0.94 0.26 0 0.96 0.26 0 0.98 0.26 0 1 0.26 0 0 0.28 0 0.02 0.28 0 0.04 0.28 0 0.06 0.28 0 0.08 0.28 0 0.1 0.28 0 0.12 0.28 0 0.14 0.28 0 0.16 0.28 0 0.18 0.28 0 0.2 0.28 0 0.22 0.28 0 0.24 0.28 0 0.26 0.28 0 0.28 0.28 0 0.3 0.28 0 0.32 0.28 0 0.34 0.28 0 0.36 0.28 0 0.38 0.28 0 0.4 0.28 0 0.42 0.28 0 0.44 0.28 0 0.46 0.28 0 0.48 0.28 0 0.5 0.28 0 0.52 0.28 0 0.54 0.28 0 0.56 0.28 0 0.58 0.28 0 0.6 0.28 0 0.62 0.28 0 0.64 0.28 0 0.66 0.28 0 0.68 0.28 0 0.7 0.28 0 0.72 0.28 0 0.74 0.28 0 0.76 0.28 0 0.78 0.28 0 0.8 0.28 0 0.82 0.28 0 0.84 0.28 0 0.86 0.28 0 0.88 0.28 0 0.9 0.28 0 0.92 0.28 0 0.94 0.28 0 0.96 0.28 0 0.98 0.28 0 1 0.28 0 0 0.3 0 0.02 0.3 0 0.04 0.3 0 0.06 0.3 0 0.08 0.3 0 0.1 0.3 0 0.12 0.3 0 0.14 0.3 0 0.16 0.3 0 0.18 0.3 0 0.2 0.3 0 0.22 0.3 0 0.24 0.3 0 0.26 0.3 0 0.28 0.3 0 0.3 0.3 0 0.32 0.3 0 0.34 0.3 0 0.36 0.3 0 0.38 0.3 0 0.4 0.3 0 0.42 0.3 0 0.44 0.3 0 0.46 0.3 0 0.48 0.3 0 0.5 0.3 0 0.52 0.3 0 0.54 0.3 0 0.56 0.3 0 0.58 0.3 0 0.6 0.3 0 0.62 0.3 0 0.64 0.3 0 0.66 0.3 0 0.68 0.3 0 0.7 0.3 0 0.72 0.3 0 0.74 0.3 0 0.76 0.3 0 0.78 0.3 0 0.8 0.3 0 0.82 0.3 0 0.84 0.3 0 0.86 0.3 0 0.88 0.3 0 0.9 0.3 0 0.92 0.3 0 0.94 0.3 0 0.96 0.3 0 0.98 0.3 0 1 0.3 0 0 0.32 0 0.02 0.32 0 0.04 0.32 0 0.06 0.32 0 0.08 0.32 0 0.1 0.32 0 0.12 0.32 0 0.14 0.32 0 0.16 0.32 0 0.18 0.32 0 0.2 0.32 0 0.22 0.32 0 0.24 0.32 0 0.26 0.32 0 0.28 0.32 0 0.3 0.32 0 0.32 0.32 0 0.34 0.32 0 0.36 0.32 0 0.38 0.32 0 0.4 0.32 0 0.42 0.32 0 0.44 0.32 0 0.46 0.32 0 0.48 0.32 0 0.5 0.32 0 0.52 0.32 0 0.54 0.32 0 0.56 0.32 0 0.58 0.32 0 0.6 0.32 0 0.62 0.32 0 0.64 0.32 0 0.66 0.32 0 0.68 0.32 0 0.7 0.32 0 0.72 0.32 0 0.74 0.32 0 0.76 0.32 0 0.78 0.32 0 0.8 0.32 0 0.82 0.32 0 0.84 0.32 0 0.86 0.32 0 0.88 0.32 0 0.9 0.32 0 0.92 0.32 0 0.94 0.
[...]
			<PointData Scalars="VitesseX">
				<DataArray Name="VitesseX" type="Float32" format="ascii">
 0 0 0 0 0 0 0 0 0 0 0 0 0 0 0 0 0 0 0 0 0 0 0 0 0 0 0 0 0 0 0 0 0 0 0 0 0 0 0 0 0 0 0 0 0 0 0 0 0 0 -0 0 -0.000397661 -0.00129816 -0.00272878 -0.00466712 -0.00708285 -0.00993828 -0.0131889 -0.0167839 -0.0206675 -0.0247789 -0.0290541 -0.0334296 -0.0378385 -0.0421989 -0.0464402 -0.05052 -0.054372 -0.0579425 -0.0611395 -0.0639013 -0.0662321 -0.0680815 -0.0693759 -0.07029 -0.0713737 -0.0718841 -0.0715142 -0.0703598 -0.0686075 -0.0663251 -0.0635507 -0.0603022 -0.0566537 -0.0526976 -0.0484724 -0.0440447 -0.0394917 -0.0348877 -0.0303083 -0.0258268 -0.0215163 -0.017447 -0.013685 -0.010284 -0.00724519 -0.00472857 -0.00267434 -0.00120509 -0.00030601 -3.70077e-27 0 -0.000762171 -0.00253044 -0.00535175 -0.00918308 -0.0139656 -0.0196255 -0.0260749 -0.0332131 -0.0409282 -0.0490948 -0.0575748 -0.066286 -0.0751216 -0.0838484 -0.0922704 -0.100364 -0.107986 -0.115013 -0.121333 -0.126848 -0.131472 -0.13513 -0.137732 -0.139374 -0.140267 -0.140328 -0.13911 -0.136675 -0.13314 -0.128584 -0.123065 -0.116683 -0.10957 -0.101831 -0.0935926 -0.084983 -0.0761421 -0.0672129 -0.0583411 -0.0496659 -0.0413268 -0.033458 -0.0261866 -0.019629 -0.0138824 -0.00901834 -0.00510065 -0.00228761 -0.00057766 -6.62148e-27 0 -0.00109164 -0.0036878 -0.00784705 -0.0135072 -0.0205814 -0.0289589 -0.0385074 -0.0491087 -0.0606567 -0.07287 -0.0854396 -0.0983111 -0.111277 -0.12412 -0.13664 -0.148641 -0.159934 -0.17034 -0.179697 -0.187856 -0.194689 -0.200089 -0.203948 -0.206276 -0.207183 -0.206812 -0.204723 -0.200953 -0.195601 -0.188778 -0.180573 -0.171134 -0.160634 -0.149225 -0.137101 -0.124449 -0.111468 -0.0983684 -0.0853609 -0.0726468 -0.0604282 -0.0489001 -0.0382473 -0.028641 -0.0202315 -0.0131384 -0.00745076 -0.00333387 -0.000840195 -9.43995e-27 0 -0.00139564 -0.00477631 -0.0102076 -0.0176062 -0.0268703 -0.0379456 -0.0506121 -0.064528 -0.0795001 -0.0953478 -0.111829 -0.128699 -0.145691 -0.162523 -0.17893 -0.194653 -0.209444 -0.223069 -0.235311 -0.245979 -0.254903 -0.261943 -0.266976 -0.269936 -0.270926 -0.270151 -0.267185 -0.262083 -0.254957 -0.24594 -0.235157 -0.222788 -0.209043 -0.19414 -0.178322 -0.161832 -0.144925 -0.127873 -0.110949 -0.0944128 -0.0785235 -0.0635329 -0.0496796 -0.0371857 -0.0262503 -0.0170391 -0.00968966 -0.00432733 -0.00108951 -1.21124e-26 0 -0.00167215 -0.00578179 -0.0124166 -0.0215598 -0.0330247 -0.0464974 -0.0617895 -0.0787067 -0.0969901 -0.116354 -0.136495 -0.157112 -0.177879 -0.198447 -0.218492 -0.237697 -0.255756 -0.272381 -0.28731 -0.300307 -0.311166 -0.31972 -0.325825 -0.329356 -0.330428 -0.329272 -0.325452 -0.319072 -0.31026 -0.299168 -0.285955 -0.270833 -0.254054 -0.235886 -0.216624 -0.196558 -0.175999 -0.155273 -0.134714 -0.114629 -0.0953335 -0.0771299 -0.0603061 -0.0451309 -0.0318477 -0.0206642 -0.0117623 -0.00525294 -0.0013217 -1.45974e-26 0 -0.00193558 -0.00664541 -0.0143834 -0.0252219 -0.0384653 -0.0541052 -0.0719278 -0.0916566 -0.112983 -0.135573 -0.15907 -0.183124 -0.207349 -0.231337 -0.25471 -0.277095 -0.298135 -0.317494 -0.334866 -0.349975 -0.362586 -0.372502 -0.379565 -0.383597 -0.384732 -0.383215 -0.378588 -0.371015 -0.36064 -0.347628 -0.332173 -0.314528 -0.294976 -0.273827 -0.251421 -0.228099 -0.204217 -0.180153 -0.156291 -0.132987 -0.1106 -0.0894818 -0.0699628 -0.0523536 -0.0369374 -0.0239605 -0.0136269 -0.00609466 -0.00153313 -1.68562e-26 0 -0.0021038 -0.00749583 -0.0164348 -0.0283667 -0.043247 -0.060868 -0.0809557 -0.103196 -0.12724 -0.15271 -0.179203 -0.206321 -0.233629 -0.260664 -0.286998 -0.312211 -0.335898 -0.35768 -0.377213 -0.394189 -0.40834 -0.419451 -0.427344 -0.431799 -0.432974 -0.431126 -0.425773 -0.417128 -0.405346 -0.390604 -0.373118 -0.353197 -0.331175 -0.307387 -0.282189 -0.255976 -0.229151 -0.202134 -0.175354 -0.149205 -0.12409 -0.100399 -0.0785008 -0.0587423 -0.0414407 -0.0268776 -0.0152835 -0.00684613 -0.00172051 -1.88536e-26 0 -0.00239371 -0.00836945 -0.0179875 -0.0310414 -0.0473609 -0.066693 -0.0887356 -0.113143 -0.139532 -0.167486 -0.196562 -0.226323 -0.256288 -0.285947 -0.31483 -0.342474 -0.368433 -0.392294 -0.413676 -0.432244 -0.447705 -0.45982 -0.468406 -0.473199 -0.474386 -0.472206 -0.466159 -0.456525 -0.443476 -0.427215 -0.408001 -0.386165 -0.362055 -0.336033 -0.30847 -0.279777 -0.25042 -0.220884 -0.191612 -0.163037 -0.135597 -0.109714 -0.0857885 -0.064198 -0.0452882 -0.0293703 -0.0166994 -0.00748793 -0.0018809 -2.05585e-26 0 -0.00254043 -0.00896912 -0.0192411 -0.033237 -0.0507426 -0.0714847 -0.0951383 -0.121332 -0.149655 -0.179658 -0.210865 -0.242805 -0.27496 -0.306781 -0.33776 -0.367398 -0.395216 -0.420769 -0.443651 -0.463497 -0.480016 -0.492949 -0.502088 -0.507138 -0.50833 -0.505865 -0.499239 -0.48878 -0.474671 -0.457144 -0.436486 -0.413035 -0.387159 -0.359251 -0.329735 -0.299063 -0.2677 -0.236119 -0.204815 -0.17427 -0.144943 -0.117282 -0.091713 -0.0686362 -0.0484201 -0.0314001 -0.0178527 -0.00800035 -0.00201086 -2.19443e-26 0 -0.00267884 -0.00940179 -0.0201962 -0.0349164 -0.053334 -0.0751614 -0.100057 -0.127629 -0.157443 -0.189027 -0.221879 -0.255498 -0.289338 -0.322817 -0.3554 -0.38656 -0.415794 -0.442634 -0.466657 -0.487479 -0.504781 -0.518308 -0.527852 -0.533085 -0.534266 -0.531551 -0.524455 -0.513338 -0.498395 -0.479878 -0.458091 -0.433384 -0.406146 -0.3768 -0.345797 -0.313608 -0.280698 -0.247573 -0.214753 -0.182729 -0.151985 -0.122987 -0.0961822 -0.0719873 -0.0507876 -0.0329356 -0.0187254 -0.00839113 -0.00211 -2.29892e-26 0 -0.00276442 -0.0096866 -0.0208364 -0.0360495 -0.05509 -0.077661 -0.103409 -0.131929 -0.162771 -0.195444 -0.229427 -0.264201 -0.299196 -0.333808 -0.367485 -0.399679 -0.429869 -0.45757 -0.482342 -0.503807 -0.521631 -0.535539 -0.545324 -0.550643 -0.551786 -0.548842 -0.541377 -0.529768 -0.514219 -0.494994 -0.472421 -0.446858 -0.418698 -0.388385 -0.356386 -0.323177 -0.289244 -0.255115 -0.221305 -0.1883 -0.156611 -0.12674 -0.099126 -0.0741988 -0.0523531 -0.0339525 -0.019304 -0.00865062 -0.00217621 -2.36767e-26 0 -0.00279839 -0.00982024 -0.0211498 -0.0366162 -0.0559809 -0.0789424 -0.105141 -0.134165 -0.165554 -0.198809 -0.233395 -0.268784 -0.304391 -0.339605 -0.373863 -0.406571 -0.437219 -0.465342 -0.490492 -0.512268 -0.530329 -0.544385 -0.554232 -0.559523 -0.560592 -0.557414 -0.549648 -0.537684 -0.521727 -0.502052 -0.479008 -0.452963 -0.424318 -0.393512 -0.361015 -0.327317 -0.292912 -0.258336 -0.2241 -0.190676 -0.158576 -0.128319 -0.100373 -0.0751422 -0.0530263 -0.0343925 -0.0195549 -0.00876312 -0.00220562 -2.39961e-26 0 -0.00278412 -0.00979462 -0.0211151 -0.0365746 -0.0559352 -0.078896 -0.105098 -0.134129 -0.165528 -0.198797 -0.233401 -0.268811 -0.304444 -0.339691 -0.373938 -0.406653 -0.437339 -0.465498 -0.490669 -0.51244 -0.530477 -0.544503 -0.554308 -0.559557 -0.560607 -0.557376 -0.549553 -0.537528 -0.521498 -0.501753 -0.478653 -0.45256 -0.423888 -0.39306 -0.360557 -0.326869 -0.292473 -0.257925 -0.223747 -0.190396 -0.158336 -0.128101 -0.100207 -0.0750251 -0.0529486 -0.0343449 -0.0195286 -0.00875147 -0.00220278 -2.39423e-26 0 -0.00272751 -0.00962242 -0.0207686 -0.0360016 -0.05509 -0.077739 -0.103595 -0.132251 -0.163252 -0.196103 -0.230275 -0.265243 -0.300423 -0.335173 -0.368953 -0.401242 -0.43151 -0.459236 -0.483967 -0.505318 -0.522957 -0.536606 -0.546053 -0.550943 -0.551778 -0.548433 -0.540597 -0.528632 -0.512731 -0.493191 -0.470378 -0.444628 -0.416355 -0.385996 -0.354046 -0.320949 -0.287159 -0.253212 -0.219643 -0.186931 -0.155511 -0.125833 -0.0984009 -0.0736864 -0.0520132 -0.0337451 -0.0191907 -0.00860117 -0.00216397 -2.3516e-26 0 -0.00262858 -0.00929754 -0.0200907 -0.0348531 -0.053363 -0.0753364 -0.100431 -0.128251 -0.158353 -0.190257 -0.223445 -0.257407 -0.291558 -0.325257 -0.358042 -0.389385 -0.418714 -0.445537 -0.469443 -0.490059 -0.507049 -0.520129 -0.529098 -0.533626 -0.534289 -0.530836 -0.523106 -0.511384 -0.495859 -0.476829 -0.454657 -0.429661 -0.402244 -0.372835 -0.341887 -0.309872 -0.277256 -0.244487 -0.212055 -0.180466 -0.150178 -0.121556 -0.0950596 -0.0711782 -0.0502534 -0.0326117 -0.0185505 -0.00831579 -0.00209235 -2.27235e-26 0 -0.00248868 -0.00882714 -0.0190981 -0.0331595 -0.0508037 -0.071762 -0.0957082 -0.122265 -0.151007 -0.181474 -0.213173 -0.245615 -0.278169 -0.310346 -0.341653 -0.371532 -0.399444 -0.424951 -0.447679 -0.46724 -0.48329 -0.49558 -0.503912 -0.507982 -0.508438 -0.504864 -0.497357 -0.486057 -0.471149 -0.452924 -0.431741 -0.40789 -0.381759 -0.353759 -0.324319 -0.293888 -0.262902 -0.231836 -0.201099 -0.171132 -0.142411 -0.115324 -0.0902222 -0.0675382 -0.0476961 -0.0309621 -0.0176176 -0.00789968 -0.00198801 -2.15775e-26 0 -0.00230983 -0.00821745 -0.0178065 -0.0309488 -0.0474551 -0.0670758 -0.0895065 -0.114393 -0.141336 -0.169901 -0.199624 -0.230026 -0.260515 -0.29068 -0.320017 -0.347946 -0.374007 -0.397834 -0.419035 -0.437195 -0.452031 -0.46333 -0.470882 -0.47442 -0.474648 -0.470926 -0.463755 -0.453046 -0.438988 -0.421852 -0.401988 -0.379657 -0.355222 -0.329068 -0.3016 -0.273235 -0.244372 -0.21546 -0.186909 -0.159073 -0.132378 -0.107233 -0.0839179 -0.0628248 -0.0443814 -0.0288214 -0.0164063 -0.0073592 -0.00185247 -2.01009e-26 0 -0.0020982 -0.00747727 -0.0162311 -0.0282517 -0.043368 -0.06135 -0.0819201 -0.104754 -0.129485 -0.155709 -0.182993 -0.210873 -0.238886 -0.266579 -0.293455 -0.319001 -0.342836 -0.364617 -0.383913 -0.400353 -0.413737 -0.423853 -0.4305 -0.433457 -0.433454 -0.429558 -0.422816 -0.41284 -0.399841 -0.384071 -0.365849 -0.345399 -0.323044 -0.299148 -0.274083 -0.248231 -0.221955 -0.195667 -0.169729 -0.144477 -0.12024 -0.097413 -0.0762667 -0.0571286 -0.0403613 -0.026223 -0.0149352 -0.00670266 -0.00168782 -1.83155e-26 0 -0.00185528 -0.00663294 -0.0144186 -0.025124 -0.0386036 -0.0546673 -0.073065 -0.0935025 -0.115647 -0.139132 -0.163569 -0.188514 -0.213607 -0.238392 -0.26238 -0.285155 -0.306414 -0.325774 -0.342806 -0.357274 -0.368973 -0.377722 -0.383348 -0.385684 -0.385452 -0.381344 -0.374912 -0.365515 -0.353578 -0.339529 -0.323515 -0.305498 -0.285692 -0.264461 -0.242196 -0.219266 -0.195993 -0.172745 -0.149847 -0.127561 -0.106179 -0.0860406 -0.0674001 -0.0505186 -0.0356994 -0.0232072 -0.0132271 -0.00594021 -0.00149661 -1.62136e-26 0 -0.00158394 -0.00568843 -0.0123925 -0.0216278 -0.0332778 -0.0471777 -0.0631148 -0.0808337 -0.100048 -0.120436 -0.141662 -0.163313 -0.18508 -0.206552 -0.227284 -0.246945 -0.265269 -0.281867 -0.296371 -0.308619 -0.318424 -0.325636 -0.330113 -0.331821 -0.331152 -0.326628 -0.319715 -0.310464 -0.299485 -0.286991 -0.273313 -0.258919 -0.243188 -0.225455 -0.206428 -0.18679 -0.166889 -0.147051 -0.127538 -0.108585 -0.0904181 -0.0732856 -0.0574417 -0.0430867 -0.0304643 -0.0198211 -0.0113087 -0.00508367 -0.00128184 -1.38316e-26 0 -0.00129114 -0.00465444 -0.0101773 -0.017813 -0.0274701 -0.0390069 -0.0522511 -0.0669922 -0.0829874 -0.0999634 -0.117634 -0.13565 -0.153738 -0.171552 -0.188705 -0.204932 -0.219997 -0.23355 -0.245311 -0.255137 -0.26288 -0.268426 -0.271662 -0.272627 -0.271204 -0.266307 -0.259923 -0.25216 -0.242868 -0.232129 -0.220001 -0.207133 -0.194274 -0.181683 -0.167224 -0.151294 -0.135092 -0.118986 -0.103183 -0.0878683 -0.0731938 -0.0593468 -0.0465561 -0.0349591 -0.0247407 -0.0161176 -0.00920985 -0.00414639 -0.00104683 -1.12773e-26 0 -0.000982632 -0.00356032 -0.00781773 -0.0137363 -0.0212502 -0.0302579 -0.0406243 -0.0521806 -0.0647245 -0.0780361 -0.0918802 -0.105973 -0.120085 -0.133946 -0.147243 -0.159747 -0.171263 -0.181522 -0.190317 -0.197532 -0.203063 -0.206849 -0.208819 -0.209007 -0.206906 -0.202297 -0.197112 -0.190719 -0.183162 -0.174585 -0.164995 -0.154717 -0.14385 -0.133332 -0.124159 -0.113255 -0.101074 -0.0889665 -0.0771333 -0.0657017 -0.0547779 -0.0444596 -0.0349235 -0.0262678 -0.0186211 -0.0121549 -0.00696353 -0.00314298 -0.000795254 -8.55071e-27 0 -0.000663254 -0.00242545 -0.00536117 -0.00947491 -0.0147333 -0.0210751 -0.0284026 -0.0365928 -0.0454965 -0.0549478 -0.0647684 -0.0747278 -0.0846448 -0.0943286 -0.103557 -0.112133 -0.119902 -0.126679 -0.132346 -0.136815 -0.140033 -0.141984 -0.142701 -0.142045 -0.139324 -0.135312 -0.131143 -0.126089 -0.120367 -0.114052 -0.107209 -0.10005 -0.0925745 -0.0849053 -0.0779269 -0.072746 -0.0653043 -0.0574257 -0.049777 -0.0424345 -0.0354448 -0.0288365 -0.0227121 -0.0171431 -0.0121994 -0.00799612 -0.00460503 -0.00208915 -0.000531049 -5.69122e-27 0 -0.000338895 -0.00127288 -0.00286089 -0.00511921 -0.00805028 -0.0116288 -0.0158011 -0.0204985 -0.0256263 -0.0310704 -0.0367109 -0.0423837 -0.0479587 -0.0533215 -0.0583329 -0.062853 -0.0667756 -0.0699848 -0.0724495 -0.0741153 -0.0749712 -0.0750642 -0.0744263 -0.0730152 -0.0696199 -0.0661191 -0.0629507 -0.0593842 -0.0555914 -0.0516352 -0.0476045 -0.0436089 -0.0396711 -0.0358193 -0.0321382 -0.0299493 -0.0281722 -0.0247843 -0.0214953 -0.0183979 -0.0154818 -0.0127135 -0.0101138 -0.00773143 -0.00557613 -0.00370518 -0.00217147 -0.0010015 -0.000258396 -2.74747e-27 0 -2.90021e-05 -0.000139211 -0.000371205 -0.00076025 -0.00133385 -0.00209901 -0.00305379 -0.00418551 -0.00544855 -0.00679245 -0.00816238 -0.00947062 -0.0106219 -0.0115825 -0.0122967 -0.0126784 -0.012694 -0.0123006 -0.0115127 -0.0103382 -0.00879932 -0.00695674 -0.00489647 -0.00266839 0.000726293 0.0039793 0.00632295 0.00838096 0.0102168 0.0117224 0.0128895 0.0136734 0.0140401 0.0140008 0.0136133 0.0126174 0.00986102 0.00847794 0.00729052 0.00604829 0.00481537 0.00366893 0.00267535 0.00182136 0.00114968 0.000653737 0.000301545 0.000102503 1.80177e-05 1.61972e-28 0 0.000245515 0.000954914 0.00208132 0.00356863 0.00536207 0.00741208 0.00967956 0.0121317 0.0147561 0.0175362 0.0204641 0.0235429 0.0268254 0.0302797 0.0338727 0.0376302 0.0415436 0.0455421 0.0495559 0.0535612 0.0574796 0.0612156 0.0646635 0.0676993 0.0707496 0.0735632 0.0752851 0.075977 0.0758525 0.0749242 0.0732427 0.0707984 0.0675902 0.0636902 0.0591913 0.054162 0.047793 0.0416503 0.0359935 0.0304211 0.0250493 0.0200075 0.015426 0.0113528 0.00786612 0.00500765 0.00277824 0.00121356 0.000302409 3.11705e-27 0 0.000518587 0.00203954 0.00450809 0.00784684 0.0119722 0.0167972 0.0222396 0.0282187 0.0346601 0.0414922 0.0486502 0.0560574 0.0637012 0.0714999 0.0793377 0.0871411 0.0948975 0.102477 0.109674 0.116411 0.122638 0.128198 0.132957 0.136768 0.139789 0.142037 0.142923 0.142301 0.14031 0.137059 0.132661 0.127085 0.120397 0.112727 0.104225 0.0950575 0.0848039 0.0741178 0.06411 0.0543164 0.0448994 0.0360488 0.0279489 0.0207232 0.0144741 0.00929345 0.00522337 0.00231677 0.000588517 6.05668e-27 0 0.000783136 0.00309235 0.00686328 0.0119985 0.0183869 0.0259059 0.03443 0.0438292 0.0539744 0.0647373 0.0759872 0.0875899 0.0994611 0.111469 0.123426 0.135155 0.146573 0.157572 0.167913 0.177355 0.185748 0.193017 0.199029 0.203596 0.206752 0.208462 0.208358 0.206526 0.202781 0.197339 0.190274 0.181639 0.171573 0.160256 0.147892 0.134724 0.120512 0.105438 0.0912329 0.0773729 0.0640586 0.0515384 0.040045 0.0297768 0.0208615 0.0134406 0.00759796 0.00339022 0.000868318 8.91342e-27 0 0.00103415 0.00409629 0.00910813 0.0159566 0.0245037 0.0345936 0.046059 0.0587233 0.0724038 0.0869157 0.102069 0.117669 0.133558 0.149567 0.165442 0.180932 0.19583 0.209998 0.22326 0.235298 0.245867 0.254825 0.261985 0.267224 0.270504 0.271713 0.270825 0.267705 0.262274 0.25469 0.245045 0.233474 0.220168 0.205367 0.189332 0.172375 0.154352 0.135114 0.116934 0.099227 0.0822249 0.0662317 0.0515243 0.0383715 0.0269314 0.0173869 0.00986169 0.00441487 0.00113639 1.16348e-26 0 0.00126943 0.00504167 0.0112079 0.0196593 0.0302273 0.0427248 0.0569453 0.0726682 0.0896607 0.107684 0.126491 0.145832 0.165472 0.18519 0.204721 0.223734 0.241915 0.259042 0.274921 0.289296 0.301887 0.312429 0.320706 0.326587 0.330059 0.330776 0.329186 0.324802 0.317697 0.308022 0.295939 0.28165 0.265381 0.24739 0.227974 0.207505 0.185847 0.162674 0.140812 0.119537 0.0991142 0.0798984 0.0622075 0.0463744 0.032591 0.0210707 0.0119726 0.0053727 0.00138807 1.4175e-26 0 0.00148504 0.00590651 0.0131299 0.0230491 0.0354684 0.0501723 0.0669189 0.0854463 0.105476 0.126718 0.148874 0.17164 0.194716 0.217815 0.24064 0.262864 0.284081 0.303955 0.322231 0.33867 0.353003 0.364943 0.374252 0.380751 0.384346 0.384684 0.382429 0.37683 0.368214 0.35672 0.342521 0.325819 0.306854 0.285938 0.263423 0.239739 0.214559 0.187687 0.162503 0.137989 0.114464 0.0923261 0.0719285 0.0536608 0.0377479 0.0244309 0.0139021 0.0062461 0.00161847 1.64925e-26 0 0.00167772 0.00667415 0.014844 0.0260732 0.0401453 0.05682 0.0758239 0.0968582 0.119603 0.143722 0.16887 0.194693 0.22084 0.246977 0.272698 0.297712 0.321618 0.343981 0.364441 0.38272 0.398564 0.4117 0.421878 0.428899 0.432569 0.432656 0.429758 0.42316 0.413243 0.400154 0.384082 0.365219 0.343818 0.320256 0.294954 0.268396 0.239817 0.209785 0.181686 0.154304 0.128039 0.103323 0.0805375 0.0601174 0.042321 0.0274141 0.0156186 0.00702406 0.00182198 1.8551e-26 0 0.00184428 0.00733565 0.0163277 0.0286847 0.0441853 0.0625643 0.0835217 0.106726 0.131821 0.158431 0.186168 0.214634 0.243437 0.272189 0.300453 0.327819 0.35396 0.378435 0.4008 0.420701 0.437842 0.451979 0.462863 0.470287 0.473964 0.473868 0.470457 0.463017 0.451957 0.437405 0.419581 0.398758 0.375262 0.349468 0.321814 0.29278 0.260995 0.228603 0.198036 0.168233 0.139631 0.112719 0.087903 0.0656444 0.0462393 0.0299728 0.017088 0.00769546 0.0019975 2.03186e-26 0 0.00198196 0.00788692 0.0175746 0.0308435 0.0475259 0.0673162 0.0898924 0.114896 0.14194 0.170616 0.200499 0.231154 0.262154 0.293069 0.323421 0.352778 0.38071 0.406829 0.430738 0.451969 0.470162 0.485093 0.496528 0.504255 0.507909 0.507653 0.503772 0.495557 0.483498 0.467748 0.448535 0.426151 0.400944 0.373316 0.343747 0.312586 0.277758 0.243854 0.211304 0.179548 0.149062 0.120372 0.0939144 0.0701578 0.0494409 0.0320654 0.0182839 0.00824583 0.00214394 2.17674e-26 0 0.00208851 0.00830978 0.018531 0.0325161 0.0501155 0.0710022 0.0948374 0.121242 0.149804 0.180088 0.211641 0.243996 0.276703 0.309292 0.341254 0.372133 0.401469 0.42885 0.453872 0.476055 0.495015 0.51053 0.522361 0.530284 0.533899 0.533473 0.52917 0.520349 0.507516 0.490833 0.470543 0.446955 0.420435 0.391406 0.360402 0.327281 0.290115 0.255349 0.221311 0.188081 0.15619 0.126153 0.098474 0.0735881 0.0518767 0.0336628 0.0191954 0.00866682 0.00225615 2.28739e-26 0 0.00216223 0.00860241 0.0191879 0.0336771 0.0519145 0.0735658 0.0982806 0.125665 0.155291 0.186701 0.219421 0.252964 0.286857 0.320606 0.353678 0.385595 0.415882 0.444104 0.469855 0.492651 0.512087 0.527945 0.539984 0.547964 0.551483 0.550908 0.546275 0.537012 0.523624 0.506283 0.485244 0.460827 0.43341 0.403442 0.371461 0.336056 0.298298 0.26292 0.227908 0.193717 0.160905 0.129968 0.101499 0.0758771 0.0535092 0.0347438 0.0198173 0.0089515 0.00233231 2.36207e-26 0 0.00220198 0.00876046 0.019544 0.0343196 0.0528959 0.074968 0.100169 0.128099 0.158316 0.190353 0.223721 0.257919 0.292463 0.326838 0.360499 0.392955 0.42372 0.45235 0.478435 0.501489 0.521095 0.537039 0.54909 0.557003 0.560391 0.559671 0.554763 0.545203 0.531465 0.513734 0.492273 0.467407 0.439524 0.409114 0.376265 0.338305 0.301801 0.266152 0.230753 0.196179 0.162994 0.131674 0.102875 0.0769402 0.0542829 0.0352726 0.020122 0.00909275 0.0023711 2.39961e-26 0 0.00220684 0.00877938 0.0196019 0.0344429 0.05303 0.0751633 0.100439 0.128454 0.158766 0.190903 0.224371 0.258663 0.293293 0.327736 0.361445 0.393923 0.424682 0.453276 0.4793 0.502264 0.521755 0.537566 0.549469 0.557215 0.560492 0.559713 0.554755 0.545201 0.531458 0.513721 0.492254 0.467384 0.439515 0.409095 0.374332 0.336785 0.301387 0.265843 0.230513 0.196003 0.162873 0.1316 0.102834 0.0769257 0.0542865 0.0352946 0.0201287 0.00909674 0.00237353 2.39941e-26 0 0.00218231 0.00868207 0.0193772 0.0340455 0.0524715 0.0743683 0.0993857 0.127119 0.15713 0.188946 0.222074 0.256007 0.290258 0.324299 0.357585 0.389618 0.419911 0.448023 0.473551 0.496005 0.514989 0.530297 0.541708 0.548979 0.551805 0.550869 0.545839 0.536344 0.522727 0.505194 0.484004 0.459489 0.432061 0.40112 0.364991 0.330654 0.296113 0.261208 0.226514 0.192624 0.160082 0.129393 0.101116 0.0756478 0.0534011 0.0347352 0.0198039 0.00895274 0.00233781 2.36