<?xml version="1.0"?>
<VTKFile type="PolyData">
	<PolyData>
		<Piece NumberOfPoints="2601" NumberOfPolys="2500">
			<Points>
				<DataArray type="Float32" NumberOfComponents="3" format="ascii">
 0 0 0 0.02 0 0 0.04 0 0 0.06 0 0 0.08 0 0 0.1 0 0 0.12 0 0 0.14 0 0 0.16 0 0 0.18 0 0 0.2 0 0 0.22 0 0 0.24 0 0 0.26 0 0 0.28 0 0 0.3 0 0 0.32 0 0 0.34 0 0 0.36 0 0 0.38 0 0 0.4 0 0 0.42 0 0 0.44 0 0 0.46 0 0 0.48 0 0 0.5 0 0 0.52 0 0 0.54 0 0 0.56 0 0 0.58 0 0 0.6 0 0 0.62 0 0 0.64 0 0 0.66 0 0 0.68 0 0 0.7 0 0 0.72 0 0 0.74 0 0 0.76 0 0 0.78 0 0 0.8 0 0 0.82 0 0 0.84 0 0 0.86 0 0 0.88 0 0 0.9 0 0 0.92 0 0 0.94 0 0 0.96 0 0 0.98 0 0 1 0 0 0 0.02 0 0.02 0.02 0 0.04 0.02 0 0.06 0.02 0 0.08 0.02 0 0.1 0.02 0 0.12 0.02 0 0.14 0.02 0 0.16 0.02 0 0.18 0.02 0 0.2 0.02 0 0.22 0.02 0 0.24 0.02 0 0.26 0.02 0 0.28 0.02 0 0.3 0.02 0 0.32 0.02 0 0.34 0.02 0 0.36 0.02 0 0.38 0.02 0 0.4 0.02 0 0.42 0.02 0 0.44 0.02 0 0.46 0.02 0 0.48 0.02 0 0.5 0.02 0 0.52 0.02 0 0.54 0.02 0 0.56 0.02 0 0.58 0.02 0 0.6 0.02 0 0.62 0.02 0 0.64 0.02 0 0.66 0.02 0 0.68 0.02 0 0.7 0.02 0 0.72 0.02 0 0.74 0.02 0 0.76 0.02 0 0.78 0.02 0 0.8 0.02 0 0.82 0.02 0 0.84 0.02 0 0.86 0.02 0 0.88 0.02 0 0.9 0.02 0 0.92 0.02 0 0.94 0.02 0 0.96 0.02 0 0.98 0.02 0 1 0.02 0 0 0.04 0 0.02 0.04 0 0.04 0.04 0 0.06 0.04 0 0.08 0.04 0 0.1 0.04 0 0.12 0.04 0 0.14 0.04 0 0.16 0.04 0 0.18 0.04 0 0.2 0.04 0 0.22 0.04 0 0.24 0.04 0 0.26 0.04 0 0.28 0.04 0 0.3 0.04 0 0.32 0.04 0 0.34 0.04 0 0.36 0.04 0 0.38 0.04 0 0.4 0.04 0 0.42 0.04 0 0.44 0.04 0 0.46 0.04 0 0.48 0.04 0 0.5 0.04 0 0.52 0.04 0 0.54 0.04 0 0.56 0.04 0 0.58 0.04 0 0.6 0.04 0 0.62 0.04 0 0.64 0.04 0 0.66 0.04 0 0.68 0.04 0 0.7 0.04 0 0.72 0.04 0 0.74 0.04 0 0.76 0.04 0 0.78 0.04 0 0.8 0.04 0 0.82 0.04 0 0.84 0.04 0 0.86 0.04 0 0.88 0.04 0 0.9 0.04 0 0.92 0.04 0 0.94 0.04 0 0.96 0.04 0 0.98 0.04 0 1 0.04 0 0 0.06 0 0.02 0.06 0 0.04 0.06 0 0.06 0.06 0 0.08 0.06 0 0.1 0.06 0 0.12 0.06 0 0.14 0.06 0 0.16 0.06 0 0.18 0.06 0 0.2 0.06 0 0.22 0.06 0 0.24 0.06 0 0.26 0.06 0 0.28 0.06 0 0.3 0.06 0 0.32 0.06 0 0.34 0.06 0 0.36 0.06 0 0.38 0.06 0 0.4 0.06 0 0.42 0.06 0 0.44 0.06 0 0.46 0.06 0 0.48 0.06 0 0.5 0.06 0 0.52 0.06 0 0.54 0.06 0 0.56 0.06 0 0.58 0.06 0 0.6 0.06 0 0.62 0.06 0 0.64 0.06 0 0.66 0.06 0 0.68 0.06 0 0.7 0.06 0 0.72 0.06 0 0.74 0.06 0 0.76 0.06 0 0.78 0.06 0 0.8 0.06 0 0.82 0.06 0 0.84 0.06 0 0.86 0.06 0 0.88 0.06 0 0.9 0.06 0 0.92 0.06 0 0.94 0.06 0 0.96 0.06 0 0.98 0.06 0 1 0.06 0 0 0.08 0 0.02 0.08 0 0.04 0.08 0 0.06 0.08 0 0.08 0.08 0 0.1 0.08 0 0.12 0.08 0 0.14 0.08 0 0.16 0.08 0 0.18 0.08 0 0.2 0.08 0 0.22 0.08 0 0.24 0.08 0 0.26 0.08 0 0.28 0.08 0 0.3 0.08 0 0.32 0.08 0 0.34 0.08 0 0.36 0.08 0 0.38 0.08 0 0.4 0.08 0 0.42 0.08 0 0.44 0.08 0 0.46 0.08 0 0.48 0.08 0 0.5 0.08 0 0.52 0.08 0 0.54 0.08 0 0.56 0.08 0 0.58 0.08 0 0.6 0.08 0 0.62 0.08 0 0.64 0.08 0 0.66 0.08 0 0.68 0.08 0 0.7 0.08 0 0.72 0.08 0 0.74 0.08 0 0.76 0.08 0 0.78 0.08 0 0.8 0.08 0 0.82 0.08 0 0.84 0.08 0 0.86 0.08 0 0.88 0.08 0 0.9 0.08 0 0.92 0.08 0 0.94 0.08 0 0.96 0.08 0 0.98 0.08 0 1 0.08 0 0 0.1 0 0.02 0.1 0 0.04 0.1 0 0.06 0.1 0 0.08 0.1 0 0.1 0.1 0 0.12 0.1 0 0.14 0.1 0 0.16 0.1 0 0.18 0.1 0 0.2 0.1 0 0.22 0.1 0 0.24 0.1 0 0.26 0.1 0 0.28 0.1 0 0.3 0.1 0 0.32 0.1 0 0.34 0.1 0 0.36 0.1 0 0.38 0.1 0 0.4 0.1 0 0.42 0.1 0 0.44 0.1 0 0.46 0.1 0 0.48 0.1 0 0.5 0.1 0 0.52 0.1 0 0.54 0.1 0 0.56 0.1 0 0.58 0.1 0 0.6 0.1 0 0.62 0.1 0 0.64 0.1 0 0.66 0.1 0 0.68 0.1 0 0.7 0.1 0 0.72 0.1 0 0.74 0.1 0 0.76 0.1 0 0.78 0.1 0 0.8 0.1 0 0.82 0.1 0 0.84 0.1 0 0.86 0.1 0 0.88 0.1 0 0.9 0.1 0 0.92 0.1 0 0.94 0.1 0 0.96 0.1 0 0.98 0.1 0 1 0.1 0 0 0.12 0 0.02 0.12 0 0.04 0.12 0 0.06 0.12 0 0.08 0.12 0 0.1 0.12 0 0.12 0.12 0 0.14 0.12 0 0.16 0.12 0 0.18 0.12 0 0.2 0.12 0 0.22 0.12 0 0.24 0.12 0 0.26 0.12 0 0.28 0.12 0 0.3 0.12 0 0.32 0.12 0 0.34 0.12 0 0.36 0.12 0 0.38 0.12 0 0.4 0.12 0 0.42 0.12 0 0.44 0.12 0 0.46 0.12 0 0.48 0.12 0 0.5 0.12 0 0.52 0.12 0 0.54 0.12 0 0.56 0.12 0 0.58 0.12 0 0.6 0.12 0 0.62 0.12 0 0.64 0.12 0 0.66 0.12 0 0.68 0.12 0 0.7 0.12 0 0.72 0.12 0 0.74 0.12 0 0.76 0.12 0 0.78 0.12 0 0.8 0.12 0 0.82 0.12 0 0.84 0.12 0 0.86 0.12 0 0.88 0.12 0 0.9 0.12 0 0.92 0.12 0 0.94 0.12 0 0.96 0.12 0 0.98 0.12 0 1 0.12 0 0 0.14 0 0.02 0.14 0 0.04 0.14 0 0.06 0.14 0 0.08 0.14 0 0.1 0.14 0 0.12 0.14 0 0.14 0.14 0 0.16 0.14 0 0.18 0.14 0 0.2 0.14 0 0.22 0.14 0 0.24 0.14 0 0.26 0.14 0 0.28 0.14 0 0.3 0.14 0 0.32 0.14 0 0.34 0.14 0 0.36 0.14 0 0.38 0.14 0 0.4 0.14 0 0.42 0.14 0 0.44 0.14 0 0.46 0.14 0 0.48 0.14 0 0.5 0.14 0 0.52 0.14 0 0.54 0.14 0 0.56 0.14 0 0.58 0.14 0 0.6 0.14 0 0.62 0.14 0 0.64 0.14 0 0.66 0.14 0 0.68 0.14 0 0.7 0.14 0 0.72 0.14 0 0.74 0.14 0 0.76 0.14 0 0.78 0.14 0 0.8 0.14 0 0.82 0.14 0 0.84 0.14 0 0.86 0.14 0 0.88 0.14 0 0.9 0.14 0 0.92 0.14 0 0.94 0.14 0 0.96 0.14 0 0.98 0.14 0 1 0.14 0 0 0.16 0 0.02 0.16 0 0.04 0.16 0 0.06 0.16 0 0.08 0.16 0 0.1 0.16 0 0.12 0.16 0 0.14 0.16 0 0.16 0.16 0 0.18 0.16 0 0.2 0.16 0 0.22 0.16 0 0.24 0.16 0 0.26 0.16 0 0.28 0.16 0 0.3 0.16 0 0.32 0.16 0 0.34 0.16 0 0.36 0.16 0 0.38 0.16 0 0.4 0.16 0 0.42 0.16 0 0.44 0.16 0 0.46 0.16 0 0.48 0.16 0 0.5 0.16 0 0.52 0.16 0 0.54 0.16 0 0.56 0.16 0 0.58 0.16 0 0.6 0.16 0 0.62 0.16 0 0.64 0.16 0 0.66 0.16 0 0.68 0.16 0 0.7 0.16 0 0.72 0.16 0 0.74 0.16 0 0.76 0.16 0 0.78 0.16 0 0.8 0.16 0 0.82 0.16 0 0.84 0.16 0 0.86 0.16 0 0.88 0.16 0 0.9 0.16 0 0.92 0.16 0 0.94 0.16 0 0.96 0.16 0 0.98 0.16 0 1 0.16 0 0 0.18 0 0.02 0.18 0 0.04 0.18 0 0.06 0.18 0 0.08 0.18 0 0.1 0.18 0 0.12 0.18 0 0.14 0.18 0 0.16 0.18 0 0.18 0.18 0 0.2 0.18 0 0.22 0.18 0 0.24 0.18 0 0.26 0.18 0 0.28 0.18 0 0.3 0.18 0 0.32 0.18 0 0.34 0.18 0 0.36 0.18 0 0.38 0.18 0 0.4 0.18 0 0.42 0.18 0 0.44 0.18 0 0.46 0.18 0 0.48 0.18 0 0.5 0.18 0 0.52 0.18 0 0.54 0.18 0 0.56 0.18 0 0.58 0.18 0 0.6 0.18 0 0.62 0.18 0 0.64 0.18 0 0.66 0.18 0 0.68 0.18 0 0.7 0.18 0 0.72 0.18 0 0.74 0.18 0 0.76 0.18 0 0.78 0.18 0 0.8 0.18 0 0.82 0.18 0 0.84 0.18 0 0.86 0.18 0 0.88 0.18 0 0.9 0.18 0 0.92 0.18 0 0.94 0.18 0 0.96 0.18 0 0.98 0.18 0 1 0.18 0 0 0.2 0 0.02 0.2 0 0.04 0.2 0 0.06 0.2 0 0.08 0.2 0 0.1 0.2 0 0.12 0.2 0 0.14 0.2 0 0.16 0.2 0 0.18 0.2 0 0.2 0.2 0 0.22 0.2 0 0.24 0.2 0 0.26 0.2 0 0.28 0.2 0 0.3 0.2 0 0.32 0.2 0 0.34 0.2 0 0.36 0.2 0 0.38 0.2 0 0.4 0.2 0 0.42 0.2 0 0.44 0.2 0 0.46 0.2 0 0.48 0.2 0 0.5 0.2 0 0.52 0.2 0 0.54 0.2 0 0.56 0.2 0 0.58 0.2 0 0.6 0.2 0 0.62 0.2 0 0.64 0.2 0 0.66 0.2 0 0.68 0.2 0 0.7 0.2 0 0.72 0.2 0 0.74 0.2 0 0.76 0.2 0 0.78 0.2 0 0.8 0.2 0 0.82 0.2 0 0.84 0.2 0 0.86 0.2 0 0.88 0.2 0 0.9 0.2 0 0.92 0.2 0 0.94 0.2 0 0.96 0.2 0 0.98 0.2 0 1 0.2 0 0 0.22 0 0.02 0.22 0 0.04 0.22 0 0.06 0.22 0 0.08 0.22 0 0.1 0.22 0 0.12 0.22 0 0.14 0.22 0 0.16 0.22 0 0.18 0.22 0 0.2 0.22 0 0.22 0.22 0 0.24 0.22 0 0.26 0.22 0 0.28 0.22 0 0.3 0.22 0 0.32 0.22 0 0.34 0.22 0 0.36 0.22 0 0.38 0.22 0 0.4 0.22 0 0.42 0.22 0 0.44 0.22 0 0.46 0.22 0 0.48 0.22 0 0.5 0.22 0 0.52 0.22 0 0.54 0.22 0 0.56 0.22 0 0.58 0.22 0 0.6 0.22 0 0.62 0.22 0 0.64 0.22 0 0.66 0.22 0 0.68 0.22 0 0.7 0.22 0 0.72 0.22 0 0.74 0.22 0 0.76 0.22 0 0.78 0.22 0 0.8 0.22 0 0.82 0.22 0 0.84 0.22 0 0.86 0.22 0 0.88 0.22 0 0.9 0.22 0 0.92 0.22 0 0.94 0.22 0 0.96 0.22 0 0.98 0.22 0 1 0.22 0 0 0.24 0 0.02 0.24 0 0.04 0.24 0 0.06 0.24 0 0.08 0.24 0 0.1 0.24 0 0.12 0.24 0 0.14 0.24 0 0.16 0.24 0 0.18 0.24 0 0.2 0.24 0 0.22 0.24 0 0.24 0.24 0 0.26 0.24 0 0.28 0.24 0 0.3 0.24 0 0.32 0.24 0 0.34 0.24 0 0.36 0.24 0 0.38 0.24 0 0.4 0.24 0 0.42 0.24 0 0.44 0.24 0 0.46 0.24 0 0.48 0.24 0 0.5 0.24 0 0.52 0.24 0 0.54 0.24 0 0.56 0.24 0 0.58 0.24 0 0.6 0.24 0 0.62 0.24 0 0.64 0.24 0 0.66 0.24 0 0.68 0.24 0 0.7 0.24 0 0.72 0.24 0 0.74 0.24 0 0.76 0.24 0 0.78 0.24 0 0.8 0.24 0 0.82 0.24 0 0.84 0.24 0 0.86 0.24 0 0.88 0.24 0 0.9 0.24 0 0.92 0.24 0 0.94 0.24 0 0.96 0.24 0 0.98 0.24 0 1 0.24 0 0 0.26 0 0.02 0.26 0 0.04 0.26 0 0.06 0.26 0 0.08 0.26 0 0.1 0.26 0 0.12 0.26 0 0.14 0.26 0 0.16 0.26 0 0.18 0.26 0 0.2 0.26 0 0.22 0.26 0 0.24 0.26 0 0.26 0.26 0 0.28 0.26 0 0.3 0.26 0 0.32 0.26 0 0.34 0.26 0 0.36 0.26 0 0.38 0.26 0 0.4 0.26 0 0.42 0.26 0 0.44 0.26 0 0.46 0.26 0 0.48 0.26 0 0.5 0.26 0 0.52 0.26 0 0.54 0.26 0 0.56 0.26 0 0.58 0.26 0 0.6 0.26 0 0.62 0.26 0 0.64 0.26 0 0.66 0.26 0 0.68 0.26 0 0.7 0.26 0 0.72 0.26 0 0.74 0.26 0 0.76 0.26 0 0.78 0.26 0 0.8 0.26 0 0.82 0.26 0 0.84 0.26 0 0.86 0.26 0 0.88 0.26 0 0.9 0.26 0 0.92 0.26 0 0.94 0.26 0 0.96 0.26 0 0.98 0.26 0 1 0.26 0 0 0.28 0 0.02 0.28 0 0.04 0.28 0 0.06 0.28 0 0.08 0.28 0 0.1 0.28 0 0.12 0.28 0 0.14 0.28 0 0.16 0.28 0 0.18 0.28 0 0.2 0.28 0 0.22 0.28 0 0.24 0.28 0 0.26 0.28 0 0.28 0.28 0 0.3 0.28 0 0.32 0.28 0 0.34 0.28 0 0.36 0.28 0 0.38 0.28 0 0.4 0.28 0 0.42 0.28 0 0.44 0.28 0 0.46 0.28 0 0.48 0.28 0 0.5 0.28 0 0.52 0.28 0 0.54 0.28 0 0.56 0.28 0 0.58 0.28 0 0.6 0.28 0 0.62 0.28 0 0.64 0.28 0 0.66 0.28 0 0.68 0.28 0 0.7 0.28 0 0.72 0.28 0 0.74 0.28 0 0.76 0.28 0 0.78 0.28 0 0.8 0.28 0 0.82 0.28 0 0.84 0.28 0 0.86 0.28 0 0.88 0.28 0 0.9 0.28 0 0.92 0.28 0 0.94 0.28 0 0.96 0.28 0 0.98 0.28 0 1 0.28 0 0 0.3 0 0.02 0.3 0 0.04 0.3 0 0.06 0.3 0 0.08 0.3 0 0.1 0.3 0 0.12 0.3 0 0.14 0.3 0 0.16 0.3 0 0.18 0.3 0 0.2 0.3 0 0.22 0.3 0 0.24 0.3 0 0.26 0.3 0 0.28 0.3 0 0.3 0.3 0 0.32 0.3 0 0.34 0.3 0 0.36 0.3 0 0.38 0.3 0 0.4 0.3 0 0.42 0.3 0 0.44 0.3 0 0.46 0.3 0 0.48 0.3 0 0.5 0.3 0 0.52 0.3 0 0.54 0.3 0 0.56 0.3 0 0.58 0.3 0 0.6 0.3 0 0.62 0.3 0 0.64 0.3 0 0.66 0.3 0 0.68 0.3 0 0.7 0.3 0 0.72 0.3 0 0.74 0.3 0 0.76 0.3 0 0.78 0.3 0 0.8 0.3 0 0.82 0.3 0 0.84 0.3 0 0.86 0.3 0 0.88 0.3 0 0.9 0.3 0 0.92 0.3 0 0.94 0.3 0 0.96 0.3 0 0.98 0.3 0 1 0.3 0 0 0.32 0 0.02 0.32 0 0.04 0.32 0 0.06 0.32 0 0.08 0.32 0 0.1 0.32 0 0.12 0.32 0 0.14 0.32 0 0.16 0.32 0 0.18 0.32 0 0.2 0.32 0 0.22 0.32 0 0.24 0.32 0 0.26 0.32 0 0.28 0.32 0 0.3 0.32 0 0.32 0.32 0 0.34 0.32 0 0.36 0.32 0 0.38 0.32 0 0.4 0.32 0 0.42 0.32 0 0.44 0.32 0 0.46 0.32 0 0.48 0.32 0 0.5 0.32 0 0.52 0.32 0 0.54 0.32 0 0.56 0.32 0 0.58 0.32 0 0.6 0.32 0 0.62 0.32 0 0.64 0.32 0 0.66 0.32 0 0.68 0.32 0 0.7 0.32 0 0.72 0.32 0 0.74 0.32 0 0.76 0.32 0 0.78 0.32 0 0.8 0.32 0 0.82 0.32 0 0.84 0.32 0 0.86 0.32 0 0.88 0.32 0 0.9 0.32 0 0.92 0.32 0 0.94 0.
[...]
			<PointData Scalars="VitesseX">
				<DataArray Name="VitesseX" type="Float32" format="ascii">
 0 0 0 0 0 0 0 0 0 0 0 0 0 0 0 0 0 0 0 0 0 0 0 0 0 0 0 0 0 0 0 0 0 0 0 0 0 0 0 0 0 0 0 0 0 0 0 0 0 0 0 0 0.000151496 0.000604494 0.00135614 0.00238747 0.00365975 0.00526035 0.00699774 0.00897595 0.0110826 0.0133027 0.0155959 0.0179267 0.0202571 0.0225467 0.0247564 0.0268475 0.0287827 0.0305263 0.0320445 0.0333059 0.0342814 0.0349419 0.0352541 0.0352089 0.0351269 0.0348287 0.0344133 0.0337371 0.0328032 0.0316272 0.0302281 0.0286286 0.0268534 0.0249299 0.0228886 0.0207624 0.0185848 0.0163902 0.0142131 0.012088 0.0100483 0.00812639 0.00635302 0.00475729 0.00336667 0.00220278 0.00127552 0.000596251 0.00017415 1.49574e-27 0 0.000284541 0.00113467 0.00254308 0.00448179 0.00690812 0.00983552 0.0131469 0.0168103 0.0207672 0.0249527 0.0292984 0.0337333 0.0381861 0.042583 0.0468518 0.050922 0.054726 0.0581997 0.061284 0.0639251 0.0660763 0.0677015 0.0687831 0.0693266 0.0694844 0.0691122 0.0683004 0.0669646 0.0651172 0.0627887 0.0600173 0.0568471 0.0533262 0.0495094 0.0454575 0.0412365 0.0369133 0.0325554 0.0282322 0.0240122 0.0199618 0.0161455 0.0126244 0.00945611 0.00669446 0.00438086 0.00253928 0.00118941 0.000349432 2.96788e-27 0 0.000413324 0.00164803 0.00369181 0.00650599 0.0100468 0.0142518 0.0190531 0.0243729 0.0301248 0.0362159 0.042548 0.0490192 0.0555274 0.0619669 0.0682336 0.074227 0.0798503 0.0850129 0.0896316 0.0936326 0.0969538 0.0995471 0.101379 0.102431 0.102767 0.10231 0.101123 0.0991528 0.0964254 0.0929856 0.0888891 0.0841996 0.0789889 0.0733389 0.0673401 0.0610894 0.0546864 0.0482313 0.0418272 0.0355761 0.0295761 0.0239228 0.0187068 0.0140132 0.00992075 0.00649139 0.00376194 0.00176268 0.000518306 4.39322e-27 0 0.000535925 0.00213702 0.00478257 0.00842424 0.013005 0.0184495 0.0246697 0.031565 0.0390244 0.0469285 0.0551512 0.0635615 0.0720282 0.0804158 0.0885899 0.0964217 0.103787 0.110571 0.116665 0.121975 0.126418 0.129927 0.13245 0.133949 0.134438 0.133898 0.132363 0.129793 0.126233 0.12174 0.116386 0.110252 0.103434 0.09604 0.088188 0.0800047 0.0716208 0.0631674 0.0547805 0.0465938 0.0387359 0.0313319 0.0245005 0.0183526 0.0129909 0.00849766 0.00492262 0.00230525 0.000675377 5.74926e-27 0 0.000650504 0.0025931 0.00579805 0.0102132 0.0157669 0.0223695 0.0299147 0.0382812 0.0473354 0.0569333 0.0669225 0.0771453 0.0874438 0.0976544 0.107614 0.117168 0.126166 0.134467 0.141942 0.148472 0.153956 0.158309 0.161461 0.163364 0.163994 0.163378 0.161525 0.158401 0.154068 0.148596 0.14207 0.13459 0.126273 0.117251 0.107669 0.0976809 0.0874461 0.0771252 0.0668848 0.0568887 0.0472938 0.0382531 0.0299114 0.0224037 0.0158547 0.0103665 0.00600173 0.00280787 0.000822309 7.01464e-27 0 0.000755215 0.00300911 0.00672712 0.011849 0.0182923 0.0259534 0.0347093 0.0444202 0.0549315 0.0660766 0.0776798 0.0895585 0.10153 0.113406 0.124997 0.136124 0.146611 0.156296 0.165026 0.172667 0.179097 0.184214 0.187937 0.190205 0.190966 0.190284 0.188148 0.184523 0.17949 0.173128 0.165534 0.156826 0.147142 0.136636 0.125475 0.113837 0.10191 0.0898819 0.0779469 0.0662962 0.0551129 0.0445755 0.0348526 0.0261012 0.0184659 0.0120677 0.00698181 0.00326251 0.00095278 8.16934e-27 0 0.0008486 0.00338008 0.00755512 0.0133063 0.0205412 0.0291436 0.0389759 0.0498814 0.0616871 0.0742065 0.0872426 0.100591 0.114048 0.127402 0.14044 0.152962 0.164771 0.175686 0.18553 0.194159 0.201431 0.207222 0.211447 0.214043 0.214929 0.214195 0.211816 0.207753 0.202101 0.194948 0.186405 0.176604 0.165703 0.153877 0.141311 0.128208 0.11478 0.101235 0.0877909 0.0746665 0.0620686 0.0501981 0.0392451 0.0293862 0.0207831 0.0135744 0.00784745 0.00366208 0.00106543 9.19524e-27 0 0.000928797 0.00369945 0.00826766 0.0145597 0.0224743 0.0318846 0.0426402 0.0545699 0.0674849 0.0811817 0.0954454 0.110053 0.124783 0.139404 0.153683 0.167403 0.180348 0.192323 0.203122 0.212583 0.22057 0.22695 0.23162 0.234506 0.235508 0.234729 0.232146 0.22771 0.221531 0.213703 0.204348 0.193614 0.181673 0.168716 0.154945 0.140578 0.125848 0.110991 0.0962532 0.081865 0.0680507 0.0550323 0.0430198 0.0322069 0.02277 0.0148631 0.00858537 0.00400062 0.0011591 1.0076e-26 0 0.000994781 0.00396146 0.00885188 0.0155867 0.0240575 0.0341282 0.0456381 0.0584042 0.0722249 0.0868828 0.102149 0.117785 0.133555 0.149211 0.164507 0.179212 0.193081 0.205907 0.217492 0.227653 0.236235 0.243102 0.248141 0.251269 0.252373 0.251565 0.24882 0.244082 0.237473 0.229095 0.219078 0.207581 0.194788 0.180901 0.166141 0.15074 0.134949 0.119018 0.103207 0.0877732 0.0729617 0.0590007 0.046117 0.0345191 0.0243959 0.0159143 0.00918453 0.00427323 0.00123263 1.07979e-26 0 0.0010452 0.00416149 0.00929753 0.0163695 0.0252632 0.0358358 0.0479184 0.0613193 0.075827 0.0912141 0.107241 0.123658 0.140217 0.156661 0.172731 0.188177 0.202754 0.216238 0.228426 0.239128 0.248173 0.255418 0.260745 0.264067 0.265261 0.264437 0.261576 0.256613 0.249682 0.240888 0.23037 0.218293 0.204848 0.190248 0.174727 0.158534 0.141928 0.125172 0.108541 0.0923072 0.0767246 0.0620394 0.0484879 0.0362872 0.0256361 0.0167123 0.00963622 0.00447612 0.0012852 1.13495e-26 0 0.0010792 0.00429613 0.00959701 0.0168948 0.0260712 0.0369786 0.0494428 0.0632662 0.078231 0.0941033 0.110636 0.127573 0.144659 0.161629 0.178217 0.194163 0.209216 0.223149 0.23575 0.246821 0.256186 0.263695 0.269228 0.272693 0.273964 0.273142 0.270213 0.265107 0.257963 0.248894 0.238044 0.22558 0.211699 0.196619 0.180584 0.163849 0.146683 0.129362 0.112169 0.095387 0.0792818 0.0641063 0.0500961 0.0374838 0.026472 0.0172457 0.00993406 0.00460662 0.00131633 1.17223e-26 0 0.001096 0.00436188 0.00974165 0.0171459 0.026454 0.0375157 0.0501546 0.0641704 0.0793431 0.0954362 0.112201 0.129378 0.146709 0.163937 0.180781 0.196973 0.212267 0.226435 0.239259 0.250536 0.260086 0.267758 0.273426 0.276997 0.278345 0.277547 0.274605 0.269439 0.262196 0.252999 0.241987 0.229331 0.215229 0.199908 0.183613 0.166604 0.149151 0.131533 0.114045 0.0969711 0.0805889 0.0651615 0.0509232 0.0380925 0.0268918 0.0175073 0.0100741 0.00466321 0.00132591 1.19102e-26 0 0.00109581 0.00436063 0.00973786 0.0171376 0.0264388 0.0374914 0.0501187 0.0641211 0.0792788 0.0953561 0.112105 0.129267 0.146598 0.163824 0.180656 0.196838 0.212133 0.226308 0.239143 0.250433 0.259997 0.267686 0.273377 0.276969 0.278339 0.277573 0.274663 0.269518 0.262292 0.253109 0.242104 0.229447 0.215337 0.200007 0.183701 0.166678 0.149212 0.131583 0.11408 0.0969932 0.0805933 0.0651515 0.0509126 0.0380885 0.026879 0.0174872 0.0100515 0.00464439 0.0013139 1.19105e-26 0 0.00107826 0.00429014 0.00957896 0.0168555 0.0260001 0.0368647 0.0492757 0.0630368 0.0779326 0.0937319 0.110192 0.127066 0.14411 0.161042 0.177583 0.193498 0.208553 0.222512 0.235153 0.246279 0.255719 0.263323 0.268964 0.272542 0.273943 0.273273 0.27051 0.265525 0.25848 0.249491 0.238692 0.226248 0.21236 0.197253 0.181173 0.164374 0.147139 0.129741 0.112468 0.0956086 0.0794287 0.06419 0.0501444 0.0375067 0.026462 0.017203 0.00987529 0.00455379 0.00128135 1.17232e-26 0 0.0010437 0.00415186 0.00926857 0.0163066 0.0251496 0.0356539 0.0476513 0.0609524 0.0753491 0.0906195 0.106528 0.122849 0.139327 0.15569 0.171684 0.187087 0.201664 0.215181 0.227426 0.238218 0.247391 0.254792 0.260297 0.263807 0.265224 0.264652 0.262067 0.257306 0.25054 0.241875 0.231441 0.219399 0.205948 0.191306 0.175712 0.159419 0.142697 0.12581 0.109047 0.092687 0.0769916 0.0622084 0.0485802 0.0363274 0.0256334 0.0166494 0.00954396 0.00439171 0.00122873 1.13511e-26 0 0.000992636 0.00394793 0.0088115 0.0154994 0.0239003 0.0338773 0.0452704 0.0578998 0.0715686 0.0860674 0.101172 0.116675 0.132323 0.147859 0.163058 0.177705 0.191566 0.204426 0.216089 0.226385 0.235145 0.242226 0.247511 0.250903 0.252319 0.251866 0.249515 0.245069 0.238702 0.23051 0.220613 0.209166 0.196359 0.182406 0.167537 0.151997 0.136043 0.119933 0.103936 0.0883244 0.0733537 0.0592596 0.0462635 0.0345839 0.0243969 0.0158355 0.00906416 0.00416142 0.00115715 1.08003e-26 0 0.00092591 0.00368161 0.00821498 0.0144466 0.022272 0.0315629 0.0421705 0.0539273 0.0666504 0.0801456 0.0942127 0.108644 0.123208 0.137675 0.151839 0.165495 0.178423 0.190423 0.201328 0.210962 0.219172 0.225825 0.230809 0.234036 0.235443 0.23508 0.232908 0.228785 0.222888 0.215323 0.206197 0.195624 0.183723 0.170692 0.15678 0.142229 0.127287 0.112199 0.0972195 0.082595 0.0685739 0.0553867 0.043229 0.0323013 0.022772 0.0147759 0.00844496 0.0038672 0.00106809 1.00794e-26 0 0.00084459 0.0033572 0.00748866 0.0131653 0.0202906 0.0287478 0.0384007 0.0490974 0.0606718 0.0729476 0.0857521 0.0988828 0.112129 0.125299 0.138204 0.150649 0.162441 0.173402 0.183372 0.192194 0.199727 0.205849 0.210463 0.213494 0.214878 0.214529 0.21249 0.208707 0.203325 0.196446 0.188166 0.178636 0.167985 0.15626 0.143592 0.130268 0.116568 0.102731 0.0889953 0.0755911 0.0627368 0.050653 0.0395232 0.0295194 0.0207988 0.0134907 0.00769781 0.00351443 0.000963424 9.19973e-27 0 0.00074994 0.00297989 0.00664425 0.0116759 0.0179882 0.025477 0.0340212 0.0434868 0.0537276 0.0645884 0.07592 0.08754 0.0992627 0.110927 0.122368 0.133405 0.143871 0.153622 0.162502 0.170373 0.177114 0.182617 0.186808 0.189622 0.190948 0.190656 0.188895 0.185597 0.180856 0.174759 0.167376 0.15884 0.149348 0.139084 0.128054 0.116276 0.104048 0.0916766 0.0793937 0.0674118 0.0559299 0.0451334 0.0352031 0.0262813 0.0185067 0.0119949 0.0068342 0.003109 0.000845196 8.17512e-27 0 0.000643411 0.00255529 0.00569455 0.0100021 0.0154017 0.0218025 0.0291012 0.0371843 0.0459275 0.055199 0.0648735 0.0747964 0.0848114 0.0947849 0.104579 0.114038 0.123017 0.131399 0.139048 0.145847 0.151692 0.156502 0.160239 0.162782 0.164002 0.163826 0.162401 0.159651 0.15564 0.150448 0.144133 0.136795 0.12858 0.119667 0.110253 0.100358 0.0899038 0.0792055 0.0685636 0.0581878 0.0482495 0.0389141 0.030337 0.0226356 0.0159282 0.010313 0.0058675 0.00265804 0.000715687 7.02167e-27 0 0.000526692 0.00208998 0.00465412 0.00816864 0.01257 0.0177826 0.0237212 0.0302919 0.0373958 0.0449279 0.0527888 0.060855 0.0690028 0.0771249 0.085111 0.0928407 0.100195 0.107074 0.113374 0.118997 0.123857 0.127918 0.131146 0.133356 0.134462 0.134425 0.133363 0.131203 0.127992 0.123798 0.118671 0.112684 0.105944 0.0985739 0.0907342 0.0826649 0.07429 0.0655014 0.0566726 0.0480617 0.039823 0.0320944 0.0249998 0.0186396 0.0131053 0.00847554 0.00481317 0.00217023 0.000577476 5.75746e-27 0 0.000401687 0.00159176 0.00353959 0.0062038 0.00953565 0.0134763 0.0179597 0.0229156 0.0282705 0.0339418 0.0398599 0.0459383 0.0520869 0.0582226 0.0642635 0.070128 0.0757286 0.0809903 0.0858317 0.090177 0.0939657 0.0972275 0.0999374 0.10181 0.102791 0.102914 0.102231 0.100701 0.0983422 0.0952161 0.0913611 0.0868262 0.0816926 0.0760426 0.0699763 0.0636778 0.0573627 0.0507551 0.0439021 0.0371891 0.0307786 0.0247726 0.0192735 0.0143551 0.0100812 0.00651061 0.00368893 0.00165487 0.000433506 4.40238e-27 0 0.000270398 0.00106852 0.00236905 0.00414064 0.00634772 0.00894899 0.0119016 0.0151622 0.0186821 0.0224084 0.0262933 0.0302841 0.0343319 0.0383841 0.0423806 0.0462746 0.0500224 0.0535698 0.0568603 0.0598434 0.0624867 0.0648534 0.0670228 0.0686242 0.0695052 0.0697954 0.0695061 0.0686266 0.0671607 0.0651549 0.0626341 0.0596248 0.0561826 0.0523608 0.0482193 0.0438527 0.0394723 0.0351434 0.0304412 0.0257364 0.0212534 0.0170672 0.0132493 0.00984873 0.00690248 0.00444736 0.00251205 0.0011203 0.000287481 2.97778e-27 0 0.000134792 0.000528144 0.00116056 0.00201052 0.0030563 0.00427613 0.00564926 0.00715674 0.00877966 0.0105011 0.0122939 0.0141357 0.0160173 0.0179237 0.0198181 0.0216845 0.0235269 0.0253099 0.027005 0.0285899 0.0300537 0.0314282 0.0328214 0.0341938 0.0351227 0.0355824 0.0356925 0.0354743 0.0349331 0.0340878 0.0329451 0.0315112 0.029816 0.0278854 0.0257493 0.0234497 0.0210797 0.0188843 0.0164949 0.0138811 0.011396 0.00909842 0.00702017 0.00519074 0.00361846 0.00231804 0.00129998 0.000573962 0.000143441 1.50509e-27 0 -3.22353e-06 -2.18621e-05 -6.90544e-05 -0.000155426 -0.000287955 -0.000469508 -0.000698927 -0.000970561 -0.00127184 -0.00159361 -0.00193012 -0.00226699 -0.00258302 -0.00285831 -0.0030956 -0.00327896 -0.00336671 -0.00336421 -0.00327091 -0.00308274 -0.00278843 -0.00236432 -0.0017682 -0.000913424 0.000114401 0.000756283 0.00128598 0.00175798 0.00216225 0.00250385 0.00276309 0.00292952 0.00301015 0.00300109 0.00290421 0.00272645 0.00248777 0.00234091 0.00226572 0.0018053 0.00136025 0.00098854 0.000684289 0.000453807 0.000279689 0.000155379 7.10096e-05 2.31165e-05 3.37676e-06 4.70949e-30 0 -0.000148231 -0.000579557 -0.00130569 -0.00232658 -0.00363445 -0.00521346 -0.00704055 -0.00908516 -0.011308 -0.0136681 -0.0161273 -0.0186381 -0.0211469 -0.0235992 -0.0259557 -0.028177 -0.0301992 -0.0319684 -0.0334641 -0.0346566 -0.0355128 -0.0359905 -0.0360538 -0.0356525 -0.0349138 -0.0341373 -0.033176 -0.0320062 -0.030651 -0.0291219 -0.0274648 -0.0257054 -0.0238504 -0.0219331 -0.0199888 -0.0180401 -0.0161088 -0.0141664 -0.0120676 -0.0103206 -0.00870657 -0.00714143 -0.00566251 -0.00429043 -0.00306349 -0.00200932 -0.00115796 -0.000526538 -0.000134513 -1.49123e-27 0 -0.000305157 -0.0011454 -0.00253926 -0.00447813 -0.00694033 -0.00989188 -0.013288 -0.017074 -0.0211853 -0.0255496 -0.0300887 -0.0347335 -0.0393978 -0.0439879 -0.0484244 -0.0526383 -0.0565528 -0.0600759 -0.0631341 -0.0656831 -0.0676695 -0.0690403 -0.0697508 -0.069816 -0.0693345 -0.0684543 -0.0670891 -0.0652451 -0.062955 -0.0602656 -0.0572411 -0.0539158 -0.0503173 -0.0465117 -0.0425623 -0.038517 -0.0344314 -0.0303518 -0.0261939 -0.0222716 -0.018618 -0.0151449 -0.0119098 -0.00895994 -0.00635388 -0.00414026 -0.00236733 -0.00106746 -0.000270175 -2.96121e-27 0 -0.00046677 -0.00170809 -0.00375002 -0.00657673 -0.0101543 -0.0144319 -0.0193438 -0.0248116 -0.0307452 -0.0370451 -0.0435971 -0.0503031 -0.0570482 -0.0637043 -0.0701552 -0.0762951 -0.0820217 -0.0872361 -0.0918249 -0.0956903 -0.0987794 -0.101032 -0.102415 -0.102919 -0.102653 -0.101664 -0.0999185 -0.0974313 -0.0942509 -0.090454 -0.0861104 -0.0812589 -0.0759633 -0.0703297 -0.0644377 -0.0583682 -0.0522052 -0.0460346 -0.0398342 -0.0338287 -0.0282086 -0.0228947 -0.0179621 -0.0134836 -0.00954155 -0.00620488 -0.00353831 -0.00159127 -0.000401568 -4.38493e-27 0 -0.000627529 -0.00225489 -0.00491601 -0.00858746 -0.0132245 -0.0187609 -0.0251117 -0.0321759 -0.0398386 -0.0479733 -0.056443 -0.0651048 -0.0738203 -0.0824381 -0.0908054 -0.0987802 -0.106229 -0.113029 -0.119062 -0.124211 -0.128373 -0.13148 -0.133515 -0.134423 -0.13435 -0.13326 -0.131158 -0.128065 -0.124056 -0.119208 -0.113577 -0.107249 -0.100343 -0.0929648 -0.0852197 -0.0772227 -0.0690877 -0.0609321 -0.0527616 -0.0448007 -0.0373262 -0.0302681 -0.0237238 -0.0177906 -0.012577 -0.00817079 -0.00465286 -0.0020897 -0.000526631 -5.74029e-27 0 -0.000783082 -0.00277414 -0.00601562 -0.010476 -0.0161004 -0.0228091 -0.0304996 -0.0390502 -0.0483227 -0.0581654 -0.0684183 -0.0789056 -0.0894565 -0.0998979 -0.110049 -0.119737 -0.128798 -0.137081 -0.14445 -0.150776 -0.155944 -0.159881 -0.162542 -0.16384 -0.163932 -0.162755 -0.160319 -0.156675 -0.151892 -0.146039 -0.139204 -0.131515 -0.123114 -0.114107 -0.104631 -0.0948284 -0.0848442 -0.0748257 -0.0647987 -0.0550318 -0.0458348 -0.0371518 -0.0291049 -0.0218134 -0.0154122 -0.0100065 -0.00569361 -0.00255491 -0.000643363 -7.00576e-27 0 -0.000929679 -0.00325537 -0.00702863 -0.0122098 -0.0187346 -0.026511 -0.0354212 -0.0453249 -0.0560629 -0.0674605 -0.0793321 -0.0914864 -0.103712 -0.115811 -0.127586 -0.138836 -0.149371 -0.159016 -0.167611 -0.175014 -0.181106 -0.185797 -0.18902 -0.190683 -0.190932 -0.189677 -0.186945 -0.182793 -0.177289 -0.170525 -0.162625 -0.153724 -0.143954 -0.13346 -0.122405 -0.110953 -0.0992758 -0.0875459 -0.0757912 -0.0643758 -0.0536077 -0.0434404 -0.0340217 -0.0254888 -0.0180018 -0.011683 -0.00664426 -0.00297967 -0.000749904 -8.16115e-27 0 -0.0010639 -0.00368923 -0.00793675 -0.0137592 -0.021083 -0.0298061 -0.0397972 -0.0508998 -0.0629362 -0.0757116 -0.089019 -0.102646 -0.116359 -0.129932 -0.143145 -0.155779 -0.167622 -0.17848 -0.188175 -0.196546 -0.20346 -0.208816 -0.212539 -0.214524 -0.214902 -0.213596 -0.210602 -0.205998 -0.199865 -0.192316 -0.183476 -0.173491 -0.162506 -0.150693 -0.138233 -0.125314 -0.112132 -0.0988795 -0.085566 -0.0726903 -0.0605265 -0.0490347 -0.0383966 -0.0287587 -0.0203054 -0.013174 -0.00748971 -0.00335735 -0.000844588 -9.18797e-27 0 -0.00118276 -0.00406748 -0.00872373 -0.0150973 -0.0231066 -0.0326405 -0.0435568 -0.0556853 -0.0688328 -0.0827872 -0.097323 -0.11221 -0.1272 -0.142036 -0.156482 -0.170301 -0.183267 -0.195166 -0.205805 -0.21501 -0.222638 -0.228572 -0.232729 -0.234992 -0.235485 -0.234136 -0.230921 -0.225941 -0.219285 -0.211065 -0.201417 -0.190492 -0.178462 -0.165516 -0.151849 -0.137671 -0.123195 -0.10863 -0.0939583 -0.0798492 -0.0664837 -0.0538458 -0.0421597 -0.0315716 -0.0222867 -0.014456 -0.0082164 -0.003682 -0.000925945 -1.00698e-26 0 -0.00128341 -0.00438304 -0.0093756 -0.0162011 -0.0247713 -0.0349675 -0.0466388 -0.0596043 -0.0736581 -0.0885744 -0.104113 -0.120028 -0.136056 -0.151926 -0.167384 -0.182177 -0.196062 -0.208814 -0.220228 -0.230122 -0.238339 -0.244752 -0.24927 -0.251766 -0.252359 -0.250982 -0.247597 -0.242318 -0.235233 -0.226467 -0.21616 -0.204467 -0.191583 -0.177708 -0.163051 -0.147837 -0.132298 -0.116635 -0.100843 -0.0857471 -0.0713865 -0.057803 -0.0452525 -0.0338833 -0.0239142 -0.0155087 -0.00881284 -0.00394839 -0.000992692 -1.0793e-26 0 -0.00136294 -0.00463002 -0.00988079 -0.0170517 -0.026049 -0.0367484 -0.0489927 -0.0625931 -0.0773343 -0.0929801 -0.109279 -0.125973 -0.14279 -0.159447 -0.175673 -0.19121 -0.2058 -0.219207 -0.231218 -0.241641 -0.25031 -0.257093 -0.261892 -0.264576 -0.265255 -0.263868 -0.260362 -0.254862 -0.247461 -0.238284 -0.227476 -0.215211 -0.201681 -0.187095 -0.17168 -0.155671 -0.139309 -0.122755 -0.106124 -0.0902907 -0.0751584 -0.0608479 -0.0476279 -0.0356578 -0.0251625 -0.0163155 -0.00926973 -0.00415229 -0.00104376 -1.13461e-26 0 -0.00141962 -0.00480382 -0.0102302 -0.0176342 -0.026918 -0.0379535 -0.0505795 -0.0646026 -0.0798014 -0.0959328 -0.112738 -0.129952 -0.147295 -0.164477 -0.181222 -0.197255 -0.212316 -0.226168 -0.238587 -0.249372 -0.258355 -0.265396 -0.270394 -0.273219 -0.273968 -0.27259 -0.269015 -0.263379 -0.255777 -0.246331 -0.235195 -0.222545 -0.208579 -0.193513 -0.177583 -0.161035 -0.144105 -0.126861 -0.109734 -0.093406 -0.0777398 -0.0629343 -0.0492492 -0.0368668 -0.0260118 -0.0168637 -0.00957991 -0.00429052 -0.00107832 -1.17202e-26 0 -0.00145271 -0.00490072 -0.0104165 -0.017936 -0.027359 -0.0385554 -0.0513624 -0.065585 -0.0809993 -0.0973594 -0.114403 -0.131862 -0.149454 -0.166887 -0.183883 -0.200166 -0.215462 -0.229536 -0.242168 -0.25315 -0.26231 -0.2695 -0.274626 -0.277551 -0.27836 -0.277008 -0.273422 -0.267738 -0.260051 -0.250485 -0.239194 -0.226357 -0.212174 -0.196867 -0.180675 -0.163847 -0.146591 -0.128901 -0.111637 -0.0950422 -0.0790912 -0.0640286 -0.0500912 -0.0374915 -0.0264487 -0.0171446 -0.00973855 -0.00436095 -0.00109586 -1.19093e-26 0 -0.00145572 -0.00492052 -0.0104416 -0.0179637 -0.0273863 -0.0385793 -0.0513811 -0.0655975 -0.0810053 -0.0973587 -0.114395 -0.131848 -0.149433 -0.166859 -0.18385 -0.200129 -0.215424 -0.229499 -0.242132 -0.253118 -0.262281 -0.269476 -0.274611 -0.277545 -0.278363 -0.277045 -0.273493 -0.267841 -0.260181 -0.250639 -0.239367 -0.226542 -0.212365 -0.19706 -0.180863 -0.164014 -0.146607 -0.128866 -0.111746 -0.0951316 -0.0791605 -0.064087 -0.0501243 -0.0375115 -0.02646 -0.0171503 -0.00974163 -0.00436197 -0.00109602 -1.19105e-26 0 -0.0014277 -0.0048581 -0.0102957 -0.0176975 -0.026965 -0.0379706 -0.050556 -0.0645314 -0.079678 -0.0957546 -0.112503 -0.129662 -0.146953 -0.16409 -0.180801 -0.196818 -0.21187 -0.225727 -0.23817 -0.248995 -0.25803 -0.265137 -0.270221 -0.273144 -0.273983 -0.272766 -0.26935 -0.263859 -0.256382 -0.247041 -0.235984 -0.223386 -0.209445 -0.194381 -0.178424 -0.161744 -0.144309 -0.126995 -0.110191 -0.0937975 -0.0780349 -0.063173 -0.0493987 -0.0369623 -0.0260679 -0.0168931 -0.00959502 -0.00429553 -0.0010791 