<?xml version="1.0"?>
<VTKFile type="PolyData">
	<PolyData>
		<Piece NumberOfPoints="2601" NumberOfPolys="2500">
			<Points>
				<DataArray type="Float32" NumberOfComponents="3" format="ascii">
 0 0 0 0.02 0 0 0.04 0 0 0.06 0 0 0.08 0 0 0.1 0 0 0.12 0 0 0.14 0 0 0.16 0 0 0.18 0 0 0.2 0 0 0.22 0 0 0.24 0 0 0.26 0 0 0.28 0 0 0.3 0 0 0.32 0 0 0.34 0 0 0.36 0 0 0.38 0 0 0.4 0 0 0.42 0 0 0.44 0 0 0.46 0 0 0.48 0 0 0.5 0 0 0.52 0 0 0.54 0 0 0.56 0 0 0.58 0 0 0.6 0 0 0.62 0 0 0.64 0 0 0.66 0 0 0.68 0 0 0.7 0 0 0.72 0 0 0.74 0 0 0.76 0 0 0.78 0 0 0.8 0 0 0.82 0 0 0.84 0 0 0.86 0 0 0.88 0 0 0.9 0 0 0.92 0 0 0.94 0 0 0.96 0 0 0.98 0 0 1 0 0 0 0.02 0 0.02 0.02 0 0.04 0.02 0 0.06 0.02 0 0.08 0.02 0 0.1 0.02 0 0.12 0.02 0 0.14 0.02 0 0.16 0.02 0 0.18 0.02 0 0.2 0.02 0 0.22 0.02 0 0.24 0.02 0 0.26 0.02 0 0.28 0.02 0 0.3 0.02 0 0.32 0.02 0 0.34 0.02 0 0.36 0.02 0 0.38 0.02 0 0.4 0.02 0 0.42 0.02 0 0.44 0.02 0 0.46 0.02 0 0.48 0.02 0 0.5 0.02 0 0.52 0.02 0 0.54 0.02 0 0.56 0.02 0 0.58 0.02 0 0.6 0.02 0 0.62 0.02 0 0.64 0.02 0 0.66 0.02 0 0.68 0.02 0 0.7 0.02 0 0.72 0.02 0 0.74 0.02 0 0.76 0.02 0 0.78 0.02 0 0.8 0.02 0 0.82 0.02 0 0.84 0.02 0 0.86 0.02 0 0.88 0.02 0 0.9 0.02 0 0.92 0.02 0 0.94 0.02 0 0.96 0.02 0 0.98 0.02 0 1 0.02 0 0 0.04 0 0.02 0.04 0 0.04 0.04 0 0.06 0.04 0 0.08 0.04 0 0.1 0.04 0 0.12 0.04 0 0.14 0.04 0 0.16 0.04 0 0.18 0.04 0 0.2 0.04 0 0.22 0.04 0 0.24 0.04 0 0.26 0.04 0 0.28 0.04 0 0.3 0.04 0 0.32 0.04 0 0.34 0.04 0 0.36 0.04 0 0.38 0.04 0 0.4 0.04 0 0.42 0.04 0 0.44 0.04 0 0.46 0.04 0 0.48 0.04 0 0.5 0.04 0 0.52 0.04 0 0.54 0.04 0 0.56 0.04 0 0.58 0.04 0 0.6 0.04 0 0.62 0.04 0 0.64 0.04 0 0.66 0.04 0 0.68 0.04 0 0.7 0.04 0 0.72 0.04 0 0.74 0.04 0 0.76 0.04 0 0.78 0.04 0 0.8 0.04 0 0.82 0.04 0 0.84 0.04 0 0.86 0.04 0 0.88 0.04 0 0.9 0.04 0 0.92 0.04 0 0.94 0.04 0 0.96 0.04 0 0.98 0.04 0 1 0.04 0 0 0.06 0 0.02 0.06 0 0.04 0.06 0 0.06 0.06 0 0.08 0.06 0 0.1 0.06 0 0.12 0.06 0 0.14 0.06 0 0.16 0.06 0 0.18 0.06 0 0.2 0.06 0 0.22 0.06 0 0.24 0.06 0 0.26 0.06 0 0.28 0.06 0 0.3 0.06 0 0.32 0.06 0 0.34 0.06 0 0.36 0.06 0 0.38 0.06 0 0.4 0.06 0 0.42 0.06 0 0.44 0.06 0 0.46 0.06 0 0.48 0.06 0 0.5 0.06 0 0.52 0.06 0 0.54 0.06 0 0.56 0.06 0 0.58 0.06 0 0.6 0.06 0 0.62 0.06 0 0.64 0.06 0 0.66 0.06 0 0.68 0.06 0 0.7 0.06 0 0.72 0.06 0 0.74 0.06 0 0.76 0.06 0 0.78 0.06 0 0.8 0.06 0 0.82 0.06 0 0.84 0.06 0 0.86 0.06 0 0.88 0.06 0 0.9 0.06 0 0.92 0.06 0 0.94 0.06 0 0.96 0.06 0 0.98 0.06 0 1 0.06 0 0 0.08 0 0.02 0.08 0 0.04 0.08 0 0.06 0.08 0 0.08 0.08 0 0.1 0.08 0 0.12 0.08 0 0.14 0.08 0 0.16 0.08 0 0.18 0.08 0 0.2 0.08 0 0.22 0.08 0 0.24 0.08 0 0.26 0.08 0 0.28 0.08 0 0.3 0.08 0 0.32 0.08 0 0.34 0.08 0 0.36 0.08 0 0.38 0.08 0 0.4 0.08 0 0.42 0.08 0 0.44 0.08 0 0.46 0.08 0 0.48 0.08 0 0.5 0.08 0 0.52 0.08 0 0.54 0.08 0 0.56 0.08 0 0.58 0.08 0 0.6 0.08 0 0.62 0.08 0 0.64 0.08 0 0.66 0.08 0 0.68 0.08 0 0.7 0.08 0 0.72 0.08 0 0.74 0.08 0 0.76 0.08 0 0.78 0.08 0 0.8 0.08 0 0.82 0.08 0 0.84 0.08 0 0.86 0.08 0 0.88 0.08 0 0.9 0.08 0 0.92 0.08 0 0.94 0.08 0 0.96 0.08 0 0.98 0.08 0 1 0.08 0 0 0.1 0 0.02 0.1 0 0.04 0.1 0 0.06 0.1 0 0.08 0.1 0 0.1 0.1 0 0.12 0.1 0 0.14 0.1 0 0.16 0.1 0 0.18 0.1 0 0.2 0.1 0 0.22 0.1 0 0.24 0.1 0 0.26 0.1 0 0.28 0.1 0 0.3 0.1 0 0.32 0.1 0 0.34 0.1 0 0.36 0.1 0 0.38 0.1 0 0.4 0.1 0 0.42 0.1 0 0.44 0.1 0 0.46 0.1 0 0.48 0.1 0 0.5 0.1 0 0.52 0.1 0 0.54 0.1 0 0.56 0.1 0 0.58 0.1 0 0.6 0.1 0 0.62 0.1 0 0.64 0.1 0 0.66 0.1 0 0.68 0.1 0 0.7 0.1 0 0.72 0.1 0 0.74 0.1 0 0.76 0.1 0 0.78 0.1 0 0.8 0.1 0 0.82 0.1 0 0.84 0.1 0 0.86 0.1 0 0.88 0.1 0 0.9 0.1 0 0.92 0.1 0 0.94 0.1 0 0.96 0.1 0 0.98 0.1 0 1 0.1 0 0 0.12 0 0.02 0.12 0 0.04 0.12 0 0.06 0.12 0 0.08 0.12 0 0.1 0.12 0 0.12 0.12 0 0.14 0.12 0 0.16 0.12 0 0.18 0.12 0 0.2 0.12 0 0.22 0.12 0 0.24 0.12 0 0.26 0.12 0 0.28 0.12 0 0.3 0.12 0 0.32 0.12 0 0.34 0.12 0 0.36 0.12 0 0.38 0.12 0 0.4 0.12 0 0.42 0.12 0 0.44 0.12 0 0.46 0.12 0 0.48 0.12 0 0.5 0.12 0 0.52 0.12 0 0.54 0.12 0 0.56 0.12 0 0.58 0.12 0 0.6 0.12 0 0.62 0.12 0 0.64 0.12 0 0.66 0.12 0 0.68 0.12 0 0.7 0.12 0 0.72 0.12 0 0.74 0.12 0 0.76 0.12 0 0.78 0.12 0 0.8 0.12 0 0.82 0.12 0 0.84 0.12 0 0.86 0.12 0 0.88 0.12 0 0.9 0.12 0 0.92 0.12 0 0.94 0.12 0 0.96 0.12 0 0.98 0.12 0 1 0.12 0 0 0.14 0 0.02 0.14 0 0.04 0.14 0 0.06 0.14 0 0.08 0.14 0 0.1 0.14 0 0.12 0.14 0 0.14 0.14 0 0.16 0.14 0 0.18 0.14 0 0.2 0.14 0 0.22 0.14 0 0.24 0.14 0 0.26 0.14 0 0.28 0.14 0 0.3 0.14 0 0.32 0.14 0 0.34 0.14 0 0.36 0.14 0 0.38 0.14 0 0.4 0.14 0 0.42 0.14 0 0.44 0.14 0 0.46 0.14 0 0.48 0.14 0 0.5 0.14 0 0.52 0.14 0 0.54 0.14 0 0.56 0.14 0 0.58 0.14 0 0.6 0.14 0 0.62 0.14 0 0.64 0.14 0 0.66 0.14 0 0.68 0.14 0 0.7 0.14 0 0.72 0.14 0 0.74 0.14 0 0.76 0.14 0 0.78 0.14 0 0.8 0.14 0 0.82 0.14 0 0.84 0.14 0 0.86 0.14 0 0.88 0.14 0 0.9 0.14 0 0.92 0.14 0 0.94 0.14 0 0.96 0.14 0 0.98 0.14 0 1 0.14 0 0 0.16 0 0.02 0.16 0 0.04 0.16 0 0.06 0.16 0 0.08 0.16 0 0.1 0.16 0 0.12 0.16 0 0.14 0.16 0 0.16 0.16 0 0.18 0.16 0 0.2 0.16 0 0.22 0.16 0 0.24 0.16 0 0.26 0.16 0 0.28 0.16 0 0.3 0.16 0 0.32 0.16 0 0.34 0.16 0 0.36 0.16 0 0.38 0.16 0 0.4 0.16 0 0.42 0.16 0 0.44 0.16 0 0.46 0.16 0 0.48 0.16 0 0.5 0.16 0 0.52 0.16 0 0.54 0.16 0 0.56 0.16 0 0.58 0.16 0 0.6 0.16 0 0.62 0.16 0 0.64 0.16 0 0.66 0.16 0 0.68 0.16 0 0.7 0.16 0 0.72 0.16 0 0.74 0.16 0 0.76 0.16 0 0.78 0.16 0 0.8 0.16 0 0.82 0.16 0 0.84 0.16 0 0.86 0.16 0 0.88 0.16 0 0.9 0.16 0 0.92 0.16 0 0.94 0.16 0 0.96 0.16 0 0.98 0.16 0 1 0.16 0 0 0.18 0 0.02 0.18 0 0.04 0.18 0 0.06 0.18 0 0.08 0.18 0 0.1 0.18 0 0.12 0.18 0 0.14 0.18 0 0.16 0.18 0 0.18 0.18 0 0.2 0.18 0 0.22 0.18 0 0.24 0.18 0 0.26 0.18 0 0.28 0.18 0 0.3 0.18 0 0.32 0.18 0 0.34 0.18 0 0.36 0.18 0 0.38 0.18 0 0.4 0.18 0 0.42 0.18 0 0.44 0.18 0 0.46 0.18 0 0.48 0.18 0 0.5 0.18 0 0.52 0.18 0 0.54 0.18 0 0.56 0.18 0 0.58 0.18 0 0.6 0.18 0 0.62 0.18 0 0.64 0.18 0 0.66 0.18 0 0.68 0.18 0 0.7 0.18 0 0.72 0.18 0 0.74 0.18 0 0.76 0.18 0 0.78 0.18 0 0.8 0.18 0 0.82 0.18 0 0.84 0.18 0 0.86 0.18 0 0.88 0.18 0 0.9 0.18 0 0.92 0.18 0 0.94 0.18 0 0.96 0.18 0 0.98 0.18 0 1 0.18 0 0 0.2 0 0.02 0.2 0 0.04 0.2 0 0.06 0.2 0 0.08 0.2 0 0.1 0.2 0 0.12 0.2 0 0.14 0.2 0 0.16 0.2 0 0.18 0.2 0 0.2 0.2 0 0.22 0.2 0 0.24 0.2 0 0.26 0.2 0 0.28 0.2 0 0.3 0.2 0 0.32 0.2 0 0.34 0.2 0 0.36 0.2 0 0.38 0.2 0 0.4 0.2 0 0.42 0.2 0 0.44 0.2 0 0.46 0.2 0 0.48 0.2 0 0.5 0.2 0 0.52 0.2 0 0.54 0.2 0 0.56 0.2 0 0.58 0.2 0 0.6 0.2 0 0.62 0.2 0 0.64 0.2 0 0.66 0.2 0 0.68 0.2 0 0.7 0.2 0 0.72 0.2 0 0.74 0.2 0 0.76 0.2 0 0.78 0.2 0 0.8 0.2 0 0.82 0.2 0 0.84 0.2 0 0.86 0.2 0 0.88 0.2 0 0.9 0.2 0 0.92 0.2 0 0.94 0.2 0 0.96 0.2 0 0.98 0.2 0 1 0.2 0 0 0.22 0 0.02 0.22 0 0.04 0.22 0 0.06 0.22 0 0.08 0.22 0 0.1 0.22 0 0.12 0.22 0 0.14 0.22 0 0.16 0.22 0 0.18 0.22 0 0.2 0.22 0 0.22 0.22 0 0.24 0.22 0 0.26 0.22 0 0.28 0.22 0 0.3 0.22 0 0.32 0.22 0 0.34 0.22 0 0.36 0.22 0 0.38 0.22 0 0.4 0.22 0 0.42 0.22 0 0.44 0.22 0 0.46 0.22 0 0.48 0.22 0 0.5 0.22 0 0.52 0.22 0 0.54 0.22 0 0.56 0.22 0 0.58 0.22 0 0.6 0.22 0 0.62 0.22 0 0.64 0.22 0 0.66 0.22 0 0.68 0.22 0 0.7 0.22 0 0.72 0.22 0 0.74 0.22 0 0.76 0.22 0 0.78 0.22 0 0.8 0.22 0 0.82 0.22 0 0.84 0.22 0 0.86 0.22 0 0.88 0.22 0 0.9 0.22 0 0.92 0.22 0 0.94 0.22 0 0.96 0.22 0 0.98 0.22 0 1 0.22 0 0 0.24 0 0.02 0.24 0 0.04 0.24 0 0.06 0.24 0 0.08 0.24 0 0.1 0.24 0 0.12 0.24 0 0.14 0.24 0 0.16 0.24 0 0.18 0.24 0 0.2 0.24 0 0.22 0.24 0 0.24 0.24 0 0.26 0.24 0 0.28 0.24 0 0.3 0.24 0 0.32 0.24 0 0.34 0.24 0 0.36 0.24 0 0.38 0.24 0 0.4 0.24 0 0.42 0.24 0 0.44 0.24 0 0.46 0.24 0 0.48 0.24 0 0.5 0.24 0 0.52 0.24 0 0.54 0.24 0 0.56 0.24 0 0.58 0.24 0 0.6 0.24 0 0.62 0.24 0 0.64 0.24 0 0.66 0.24 0 0.68 0.24 0 0.7 0.24 0 0.72 0.24 0 0.74 0.24 0 0.76 0.24 0 0.78 0.24 0 0.8 0.24 0 0.82 0.24 0 0.84 0.24 0 0.86 0.24 0 0.88 0.24 0 0.9 0.24 0 0.92 0.24 0 0.94 0.24 0 0.96 0.24 0 0.98 0.24 0 1 0.24 0 0 0.26 0 0.02 0.26 0 0.04 0.26 0 0.06 0.26 0 0.08 0.26 0 0.1 0.26 0 0.12 0.26 0 0.14 0.26 0 0.16 0.26 0 0.18 0.26 0 0.2 0.26 0 0.22 0.26 0 0.24 0.26 0 0.26 0.26 0 0.28 0.26 0 0.3 0.26 0 0.32 0.26 0 0.34 0.26 0 0.36 0.26 0 0.38 0.26 0 0.4 0.26 0 0.42 0.26 0 0.44 0.26 0 0.46 0.26 0 0.48 0.26 0 0.5 0.26 0 0.52 0.26 0 0.54 0.26 0 0.56 0.26 0 0.58 0.26 0 0.6 0.26 0 0.62 0.26 0 0.64 0.26 0 0.66 0.26 0 0.68 0.26 0 0.7 0.26 0 0.72 0.26 0 0.74 0.26 0 0.76 0.26 0 0.78 0.26 0 0.8 0.26 0 0.82 0.26 0 0.84 0.26 0 0.86 0.26 0 0.88 0.26 0 0.9 0.26 0 0.92 0.26 0 0.94 0.26 0 0.96 0.26 0 0.98 0.26 0 1 0.26 0 0 0.28 0 0.02 0.28 0 0.04 0.28 0 0.06 0.28 0 0.08 0.28 0 0.1 0.28 0 0.12 0.28 0 0.14 0.28 0 0.16 0.28 0 0.18 0.28 0 0.2 0.28 0 0.22 0.28 0 0.24 0.28 0 0.26 0.28 0 0.28 0.28 0 0.3 0.28 0 0.32 0.28 0 0.34 0.28 0 0.36 0.28 0 0.38 0.28 0 0.4 0.28 0 0.42 0.28 0 0.44 0.28 0 0.46 0.28 0 0.48 0.28 0 0.5 0.28 0 0.52 0.28 0 0.54 0.28 0 0.56 0.28 0 0.58 0.28 0 0.6 0.28 0 0.62 0.28 0 0.64 0.28 0 0.66 0.28 0 0.68 0.28 0 0.7 0.28 0 0.72 0.28 0 0.74 0.28 0 0.76 0.28 0 0.78 0.28 0 0.8 0.28 0 0.82 0.28 0 0.84 0.28 0 0.86 0.28 0 0.88 0.28 0 0.9 0.28 0 0.92 0.28 0 0.94 0.28 0 0.96 0.28 0 0.98 0.28 0 1 0.28 0 0 0.3 0 0.02 0.3 0 0.04 0.3 0 0.06 0.3 0 0.08 0.3 0 0.1 0.3 0 0.12 0.3 0 0.14 0.3 0 0.16 0.3 0 0.18 0.3 0 0.2 0.3 0 0.22 0.3 0 0.24 0.3 0 0.26 0.3 0 0.28 0.3 0 0.3 0.3 0 0.32 0.3 0 0.34 0.3 0 0.36 0.3 0 0.38 0.3 0 0.4 0.3 0 0.42 0.3 0 0.44 0.3 0 0.46 0.3 0 0.48 0.3 0 0.5 0.3 0 0.52 0.3 0 0.54 0.3 0 0.56 0.3 0 0.58 0.3 0 0.6 0.3 0 0.62 0.3 0 0.64 0.3 0 0.66 0.3 0 0.68 0.3 0 0.7 0.3 0 0.72 0.3 0 0.74 0.3 0 0.76 0.3 0 0.78 0.3 0 0.8 0.3 0 0.82 0.3 0 0.84 0.3 0 0.86 0.3 0 0.88 0.3 0 0.9 0.3 0 0.92 0.3 0 0.94 0.3 0 0.96 0.3 0 0.98 0.3 0 1 0.3 0 0 0.32 0 0.02 0.32 0 0.04 0.32 0 0.06 0.32 0 0.08 0.32 0 0.1 0.32 0 0.12 0.32 0 0.14 0.32 0 0.16 0.32 0 0.18 0.32 0 0.2 0.32 0 0.22 0.32 0 0.24 0.32 0 0.26 0.32 0 0.28 0.32 0 0.3 0.32 0 0.32 0.32 0 0.34 0.32 0 0.36 0.32 0 0.38 0.32 0 0.4 0.32 0 0.42 0.32 0 0.44 0.32 0 0.46 0.32 0 0.48 0.32 0 0.5 0.32 0 0.52 0.32 0 0.54 0.32 0 0.56 0.32 0 0.58 0.32 0 0.6 0.32 0 0.62 0.32 0 0.64 0.32 0 0.66 0.32 0 0.68 0.32 0 0.7 0.32 0 0.72 0.32 0 0.74 0.32 0 0.76 0.32 0 0.78 0.32 0 0.8 0.32 0 0.82 0.32 0 0.84 0.32 0 0.86 0.32 0 0.88 0.32 0 0.9 0.32 0 0.92 0.32 0 0.94 0.
[...]
			<PointData Scalars="VitesseX">
				<DataArray Name="VitesseX" type="Float32" format="ascii">
 0 0 0 0 0 0 0 0 0 0 0 0 0 0 0 0 0 0 0 0 0 0 0 0 0 0 0 0 0 0 0 0 0 0 0 0 0 0 0 0 0 0 0 0 0 0 0 0 0 0 0 0 0.000241425 0.000964648 0.00214207 0.00376525 0.00577148 0.008326 0.0111415 0.0142382 0.0175745 0.0210988 0.024754 0.0284806 0.0322187 0.0359063 0.0394823 0.0428867 0.0460616 0.0489512 0.0515012 0.0536634 0.0553925 0.0566407 0.0573553 0.0574593 0.057408 0.0566881 0.0559919 0.0548946 0.0533759 0.0514635 0.0491873 0.046585 0.0436977 0.0405691 0.0372485 0.0337887 0.0302453 0.0266746 0.023133 0.0196762 0.0163585 0.0132323 0.0103476 0.00775078 0.00548344 0.0035783 0.00205282 0.000941911 0.000262231 2.43395e-27 0 0.000459403 0.0018337 0.00408245 0.00720747 0.011161 0.0158359 0.0211666 0.0270702 0.0334514 0.0402071 0.047229 0.0544044 0.0616204 0.0687595 0.0757059 0.0823474 0.0885758 0.0942885 0.09939 0.103792 0.107417 0.110197 0.112069 0.112972 0.113232 0.112488 0.111145 0.10898 0.105982 0.102199 0.0976949 0.0925409 0.0868159 0.080609 0.0740183 0.0671482 0.0601097 0.0530153 0.0459786 0.0391105 0.0325185 0.0263071 0.0205753 0.0154148 0.0109074 0.00711926 0.00410211 0.00189432 0.000529595 4.82951e-27 0 0.000670256 0.00267459 0.00597051 0.0105354 0.016265 0.0230725 0.0308479 0.0394654 0.0487866 0.0586621 0.0689346 0.0794409 0.0900178 0.100495 0.110704 0.120482 0.129674 0.138132 0.145719 0.152312 0.1578 0.162093 0.165113 0.166797 0.167329 0.16652 0.164584 0.161396 0.156971 0.151387 0.144734 0.137116 0.128646 0.119458 0.109699 0.099524 0.0890967 0.0785821 0.0681532 0.0579744 0.0482043 0.0389981 0.0305025 0.0228528 0.0161699 0.0105531 0.00608016 0.00281192 0.000789525 7.14889e-27 0 0.000870524 0.00347343 0.0077627 0.0136741 0.0211087 0.0299457 0.0400421 0.0512353 0.0633464 0.0761824 0.0895401 0.103208 0.116978 0.130628 0.14394 0.156706 0.168723 0.179803 0.189768 0.19846 0.20574 0.211489 0.215613 0.218034 0.218819 0.217934 0.215462 0.211313 0.205541 0.198249 0.189562 0.179603 0.168521 0.156497 0.14372 0.130398 0.116742 0.102964 0.0892994 0.0759622 0.0631603 0.051097 0.0399645 0.0299399 0.0211815 0.0138206 0.00795993 0.00367915 0.00103604 9.35552e-27 0 0.00105691 0.00421816 0.00942457 0.0165993 0.0256236 0.0363511 0.0486087 0.0621998 0.0769079 0.0924998 0.10873 0.125343 0.142087 0.158696 0.174903 0.190458 0.205117 0.21865 0.230844 0.241506 0.250467 0.257585 0.262745 0.265852 0.266879 0.265919 0.262967 0.257938 0.250921 0.242048 0.231467 0.219324 0.205806 0.191132 0.175537 0.159274 0.142598 0.12577 0.109077 0.0927838 0.0771441 0.0624068 0.0488066 0.0365598 0.0258596 0.0168676 0.00971002 0.00448391 0.00125975 1.14146e-26 0 0.00122784 0.00489479 0.0109404 0.0192673 0.0297402 0.0421896 0.056415 0.0721889 0.0892607 0.107361 0.126206 0.1455 0.164954 0.184259 0.203108 0.221209 0.238281 0.254058 0.268293 0.280761 0.291265 0.299641 0.30575 0.309485 0.310743 0.309718 0.306343 0.300522 0.292389 0.282089 0.269783 0.255647 0.239905 0.222813 0.204642 0.18569 0.166255 0.146635 0.127169 0.10817 0.0899314 0.0727457 0.0568864 0.0426056 0.0301287 0.0196449 0.0113022 0.00521338 0.00145979 1.32935e-26 0 0.00138044 0.00549818 0.012287 0.0216361 0.0333935 0.0473689 0.0633376 0.0810445 0.100209 0.12053 0.14169 0.16336 0.185216 0.206913 0.228104 0.248467 0.267685 0.285461 0.301517 0.315592 0.327484 0.336992 0.343946 0.34824 0.349715 0.348637 0.344902 0.338397 0.329291 0.317727 0.303885 0.287978 0.270262 0.251019 0.230558 0.20921 0.187314 0.165214 0.143283 0.121873 0.101318 0.0819491 0.0640752 0.0479812 0.033921 0.0221088 0.0127117 0.00585644 0.00163378 1.49627e-26 0 0.00151101 0.00601645 0.0134426 0.0236675 0.0365246 0.0518055 0.0692647 0.0886237 0.109577 0.131796 0.154935 0.178636 0.202546 0.22629 0.24949 0.271793 0.292853 0.312355 0.329978 0.345428 0.358491 0.368966 0.376672 0.381481 0.383182 0.382073 0.378043 0.370964 0.361033 0.348398 0.333258 0.315849 0.296445 0.275353 0.252909 0.22948 0.205454 0.181211 0.157153 0.133666 0.111118 0.0898689 0.070259 0.052602 0.0371772 0.0242208 0.013917 0.00640367 0.00177958 1.63958e-26 0 0.00161806 0.00644088 0.014388 0.0253281 0.039082 0.0554267 0.0740995 0.0948031 0.117211 0.140974 0.165724 0.191078 0.216662 0.242075 0.266915 0.290808 0.313376 0.334271 0.353166 0.36977 0.383829 0.395121 0.40346 0.408705 0.410613 0.40949 0.405234 0.397694 0.387092 0.373587 0.357388 0.338747 0.317958 0.295355 0.271299 0.246185 0.220421 0.194407 0.168577 0.143368 0.119176 0.0963786 0.0753393 0.056395 0.0398464 0.0259486 0.0148998 0.00684724 0.00189549 1.75704e-26 0 0.00169977 0.00676436 0.0151076 0.0265903 0.0410237 0.0581732 0.077763 0.0994818 0.122988 0.147917 0.173882 0.200484 0.227332 0.25401 0.280097 0.305193 0.328905 0.35087 0.370754 0.388252 0.403093 0.415037 0.423884 0.429482 0.431571 0.430458 0.426052 0.418176 0.407074 0.392914 0.375913 0.356335 0.33449 0.310728 0.285434 0.259021 0.231918 0.204547 0.177374 0.150846 0.125376 0.10138 0.0792373 0.059301 0.0418873 0.0272657 0.0156455 0.00718093 0.00198029 1.8468e-26 0 0.00175476 0.00698151 0.0155894 0.0274333 0.0423176 0.0599998 0.0801952 0.102583 0.126813 0.152508 0.179274 0.206699 0.234383 0.2619 0.288822 0.314722 0.339201 0.361893 0.382462 0.400587 0.415977 0.428386 0.437603 0.443471 0.445722 0.444647 0.440174 0.432098 0.420679 0.406092 0.388565 0.368369 0.345821 0.32128 0.295142 0.267834 0.239798 0.211485 0.183383 0.155949 0.129614 0.1048 0.0818951 0.0612766 0.0432692 0.0281524 0.0161434 0.00740017 0.00203311 1.90745e-26 0 0.00178163 0.00708563 0.0158165 0.0278245 0.0429095 0.0608247 0.0812816 0.103956 0.128493 0.154516 0.181624 0.209406 0.237461 0.265376 0.292691 0.318977 0.343844 0.366926 0.387878 0.406369 0.422099 0.434812 0.444298 0.450393 0.452835 0.451837 0.447387 0.439249 0.427693 0.412909 0.395133 0.37464 0.351751 0.326825 0.300264 0.272495 0.24397 0.215155 0.186541 0.158608 0.131809 0.10657 0.0832798 0.0622951 0.043973 0.0285965 0.0163865 0.00750218 0.00205352 1.93806e-26 0 0.00178114 0.00708244 0.0158068 0.0278032 0.0428707 0.0607621 0.081189 0.103828 0.128326 0.154306 0.181371 0.209113 0.237143 0.265047 0.292342 0.31861 0.343476 0.366577 0.387559 0.406086 0.421857 0.434619 0.444158 0.45031 0.452816 0.451889 0.447519 0.439443 0.427917 0.413147 0.395379 0.374886 0.351991 0.327056 0.300481 0.272692 0.244145 0.215304 0.186656 0.158681 0.131835 0.106565 0.0832686 0.0622908 0.0439575 0.0285743 0.0163635 0.00748299 0.00204101 1.93815e-26 0 0.00175234 0.00696611 0.0155433 0.0273335 0.0421377 0.059712 0.0797724 0.102001 0.126053 0.151559 0.178131 0.205371 0.232925 0.26034 0.287145 0.312962 0.337433 0.360194 0.380881 0.399162 0.414747 0.427391 0.436883 0.443049 0.445648 0.444904 0.44084 0.433097 0.42192 0.4075 0.390084 0.369941 0.347395 0.322814 0.296594 0.269162 0.240977 0.212492 0.184197 0.156567 0.130042 0.105071 0.0820706 0.0613827 0.0433009 0.0281315 0.0160964 0.00735051 0.00199727 1.90773e-26 0 0.00169587 0.00673975 0.0150341 0.0264311 0.0407366 0.0577138 0.0770879 0.0985523 0.121774 0.146398 0.17205 0.19836 0.224984 0.251464 0.277351 0.302318 0.326016 0.348073 0.368132 0.385878 0.401044 0.413391 0.422697 0.428788 0.431451 0.43087 0.427129 0.419807 0.40912 0.395252 0.378447 0.358967 0.337136 0.31331 0.287878 0.261251 0.233882 0.206219 0.178736 0.151906 0.126152 0.101897 0.0795551 0.059481 0.0419616 0.0272432 0.0155746 0.00710195 0.00192227 1.84729e-26 0 0.00161262 0.00640686 0.0142868 0.0251094 0.0386881 0.0547965 0.0731738 0.0935295 0.115549 0.138895 0.163216 0.18819 0.213444 0.238551 0.263119 0.286851 0.309401 0.330396 0.349508 0.366455 0.380983 0.392843 0.401822 0.407749 0.410449 0.410053 0.406726 0.399979 0.389988 0.376908 0.360982 0.342466 0.321684 0.298981 0.274728 0.249323 0.223197 0.196777 0.170519 0.14489 0.120305 0.0971498 0.0758121 0.0566575 0.0399603 0.0259299 0.0148101 0.00674284 0.00181763 1.75778e-26 0 0.0015039 0.00597261 0.0133132 0.0233892 0.0360244 0.0510065 0.0680919 0.0870114 0.107473 0.129167 0.151767 0.175 0.19848 0.221814 0.244684 0.266808 0.287846 0.307447 0.325319 0.341216 0.354876 0.366067 0.374586 0.380265 0.382975 0.382786 0.37995 0.373923 0.364824 0.352765 0.337973 0.320706 0.301287 0.280052 0.25735 0.233558 0.209078 0.184316 0.159689 0.135643 0.112592 0.0908992 0.0709063 0.0529566 0.0373222 0.0242112 0.0138149 0.00627913 0.0016852 1.64062e-26 0 0.00137148 0.00544412 0.0121292 0.0212988 0.0327893 0.0464049 0.0619239 0.0791021 0.0976773 0.117369 0.137886 0.158988 0.18032 0.201525 0.222338 0.242498 0.261685 0.279591 0.295954 0.310551 0.323134 0.333485 0.341418 0.34677 0.349468 0.3495 0.347209 0.341968 0.333874 0.323062 0.309705 0.294 0.276259 0.256819 0.236015 0.214199 0.191738 0.169009 0.146407 0.124321 0.103146 0.0832425 0.0649052 0.0484407 0.0341158 0.0221253 0.0126074 0.00571912 0.00152744 1.49765e-26 0 0.00121737 0.00482979 0.0107541 0.0188728 0.029037 0.0410698 0.0547707 0.069928 0.0863155 0.103688 0.121792 0.140418 0.159259 0.178006 0.196429 0.2143 0.231327 0.247259 0.26187 0.274937 0.286247 0.295605 0.302838 0.307796 0.310476 0.310713 0.308814 0.304122 0.296916 0.287453 0.275891 0.26233 0.246828 0.229602 0.211045 0.191543 0.171448 0.151102 0.130862 0.111088 0.0921151 0.0742966 0.0579027 0.0431868 0.0303932 0.0196949 0.0112068 0.00507237 0.00134727 1.33112e-26 0 0.0010439 0.00413818 0.00920628 0.0161431 0.0248163 0.0350741 0.0467428 0.0596356 0.073569 0.0883411 0.103744 0.119593 0.135637 0.151628 0.167364 0.182658 0.197262 0.210962 0.223582 0.234915 0.244783 0.25301 0.259445 0.263975 0.266619 0.267005 0.265324 0.261286 0.255142 0.247076 0.23727 0.225896 0.213028 0.198609 0.182773 0.165936 0.148522 0.130871 0.113304 0.0961409 0.0796737 0.0642102 0.050008 0.0372683 0.0262016 0.0169564 0.00963519 0.0043496 0.00114784 1.14362e-26 0 0.000853902 0.00338031 0.00750998 0.0131502 0.0201882 0.0284995 0.0379469 0.0483793 0.0596394 0.0715744 0.0840279 0.0968438 0.109831 0.122803 0.135595 0.148056 0.159994 0.17124 0.181655 0.191074 0.199346 0.206323 0.211892 0.216018 0.218569 0.219161 0.217938 0.214868 0.210023 0.203549 0.195543 0.186156 0.175645 0.164159 0.151497 0.137732 0.12331 0.10863 0.0940034 0.0797122 0.0660132 0.0531396 0.0413414 0.0307758 0.0216082 0.01396 0.00791893 0.00356293 0.000932773 9.38096e-27 0 0.000650584 0.00256995 0.00569585 0.00994823 0.0152364 0.0214633 0.0285273 0.0363272 0.0447439 0.0536596 0.0629554 0.0725278 0.0822478 0.0919874 0.101619 0.111014 0.120051 0.128629 0.136644 0.143969 0.150492 0.156104 0.160775 0.164607 0.167107 0.167976 0.167328 0.165307 0.161856 0.157116 0.151118 0.143957 0.135851 0.127082 0.117647 0.107307 0.0961853 0.0847216 0.073261 0.0620592 0.0513267 0.0412532 0.0320414 0.0238144 0.0166883 0.0107572 0.00608617 0.00272581 0.000706249 7.17794e-27 0 0.000436976 0.00171812 0.00378793 0.00658223 0.0100354 0.0140812 0.0186523 0.023684 0.0291138 0.0348669 0.0408585 0.0470335 0.0533239 0.0596653 0.0659821 0.0721748 0.0781804 0.0839703 0.0894732 0.0945951 0.0992612 0.103405 0.107033 0.110458 0.113018 0.114164 0.114142 0.113186 0.111188 0.108277 0.10445 0.0997441 0.0942739 0.0882623 0.0819263 0.0751166 0.0675443 0.0595135 0.0513994 0.0434563 0.0358533 0.0287407 0.0222525 0.0164899 0.0115166 0.00739771 0.00416676 0.00185311 0.000473061 4.86217e-27 0 0.000216012 0.000835683 0.00181308 0.00310444 0.0046678 0.00646766 0.00847099 0.0106572 0.0129993 0.0154761 0.0180615 0.0207383 0.0234958 0.0263381 0.0292486 0.0321737 0.0350947 0.0380406 0.0409809 0.0438622 0.0466406 0.0492753 0.0517407 0.0542926 0.0570352 0.058514 0.0591591 0.0592693 0.0587853 0.0577743 0.0562047 0.0540738 0.0514234 0.0483669 0.0450832 0.0416996 0.0378378 0.0333956 0.0287595 0.0241943 0.0198352 0.0157863 0.0121246 0.00891468 0.00617307 0.00393208 0.00219073 0.000960181 0.000238713 2.47002e-27 0 -1.01829e-05 -6.47212e-05 -0.000195864 -0.000427278 -0.000780249 -0.00125809 -0.00185718 -0.00256255 -0.00335715 -0.0042116 -0.0050892 -0.00596722 -0.00679614 -0.00750225 -0.00804963 -0.00843545 -0.00864173 -0.00860518 -0.00827796 -0.00766442 -0.00677972 -0.0056468 -0.00428454 -0.00254053 -7.4355e-05 0.00183132 0.00316908 0.00441287 0.00549585 0.00641631 0.00714135 0.00763327 0.00788162 0.00790412 0.00776977 0.00770297 0.00754236 0.00677791 0.00569302 0.0045735 0.00352265 0.00259163 0.00181764 0.00120787 0.000742409 0.000413514 0.000189236 6.15883e-05 9.25471e-06 2.30069e-29 0 -0.000249547 -0.000977519 -0.00221348 -0.00396281 -0.0062235 -0.00897064 -0.0121654 -0.0157572 -0.0196796 -0.0238504 -0.0281735 -0.0325887 -0.0369889 -0.0412386 -0.0452406 -0.0489256 -0.0522331 -0.0550853 -0.0573788 -0.0590381 -0.0600412 -0.0603875 -0.060046 -0.0588726 -0.0569777 -0.0549604 -0.0529043 -0.0505187 -0.0478687 -0.0450307 -0.0420243 -0.0389333 -0.0358146 -0.0326819 -0.0295605 -0.0263141 -0.0229031 -0.019943 -0.0174602 -0.0151171 -0.0128426 -0.01064 -0.00851536 -0.00651623 -0.00469773 -0.00311034 -0.00181174 -0.000833562 -0.000215514 -2.42136e-27 0 -0.000501186 -0.00189773 -0.00422207 -0.00746752 -0.011606 -0.016586 -0.022335 -0.028759 -0.0357454 -0.0431689 -0.0508784 -0.0587537 -0.0666468 -0.0743796 -0.0817778 -0.0887081 -0.0950588 -0.100716 -0.105572 -0.10949 -0.112358 -0.114145 -0.114807 -0.114334 -0.112856 -0.1108 -0.108069 -0.104569 -0.100406 -0.0956801 -0.090433 -0.0847798 -0.0788282 -0.0726364 -0.0662856 -0.0597407 -0.0529112 -0.0462795 -0.0402636 -0.0345097 -0.028958 -0.0236648 -0.0186905 -0.014121 -0.010055 -0.00658127 -0.00378206 -0.0017143 -0.000436346 -4.81311e-27 0 -0.000755501 -0.00280493 -0.00618815 -0.0108852 -0.0168438 -0.0239839 -0.032198 -0.041352 -0.0512946 -0.0618526 -0.0728355 -0.084049 -0.0953114 -0.106402 -0.117081 -0.127155 -0.136457 -0.144821 -0.152107 -0.158181 -0.162908 -0.166163 -0.167837 -0.168097 -0.167022 -0.164842 -0.161466 -0.156918 -0.151332 -0.144859 -0.137514 -0.129341 -0.120612 -0.111428 -0.101906 -0.0921127 -0.0820129 -0.0718433 -0.0623705 -0.0533128 -0.0445825 -0.0362901 -0.0285531 -0.0214913 -0.0152491 -0.00994491 -0.00568982 -0.00256732 -0.000650172 -7.12815e-27 0 -0.00100382 -0.003679 -0.00807526 -0.0141538 -0.0218408 -0.0310288 -0.0415795 -0.0533244 -0.0660713 -0.079605 -0.0936918 -0.108083 -0.122538 -0.136802 -0.150597 -0.163665 -0.175778 -0.186728 -0.19633 -0.204429 -0.210875 -0.215528 -0.218305 -0.219268 -0.218609 -0.216248 -0.212292 -0.206816 -0.199929 -0.191709 -0.182255 -0.171752 -0.160424 -0.148417 -0.135892 -0.122994 -0.109757 -0.0962497 -0.0834433 -0.0712321 -0.0594717 -0.0483188 -0.0379484 -0.0285124 -0.020198 -0.0131481 -0.00750504 -0.0033791 -0.000853705 -9.33272e-27 0 -0.00123992 -0.00450449 -0.00984808 -0.0172158 -0.0265132 -0.0376083 -0.0503342 -0.0644908 -0.0798482 -0.0961512 -0.113123 -0.130477 -0.147901 -0.165111 -0.181801 -0.197658 -0.212402 -0.22578 -0.237567 -0.247573 -0.255636 -0.261626 -0.26546 -0.267045 -0.266738 -0.264253 -0.2598 -0.253425 -0.245224 -0.235329 -0.223933 -0.211288 -0.197551 -0.182925 -0.167617 -0.151835 -0.135688 -0.119149 -0.103214 -0.0880093 -0.0733925 -0.0595617 -0.0467293 -0.0350746 -0.0248224 -0.016141 -0.00920054 -0.00413661 -0.00104374 -1.13917e-26 0 -0.00146013 -0.00526513 -0.0114747 -0.0200179 -0.0307832 -0.0436164 -0.0583239 -0.0746754 -0.0924077 -0.11123 -0.130826 -0.150872 -0.17101 -0.190901 -0.21021 -0.228597 -0.245741 -0.261345 -0.275146 -0.286924 -0.296494 -0.303717 -0.308497 -0.310652 -0.310621 -0.308073 -0.303138 -0.295913 -0.286526 -0.275188 -0.262119 -0.247493 -0.231538 -0.214495 -0.196619 -0.178174 -0.159352 -0.140059 -0.1213 -0.103363 -0.0861235 -0.0698446 -0.0547584 -0.0410742 -0.0290487 -0.0188762 -0.0107497 -0.00482837 -0.00121722 -1.32722e-26 0 -0.0016597 -0.00594672 -0.012926 -0.0225143 -0.0345827 -0.0489569 -0.0654198 -0.0837146 -0.103549 -0.1246 -0.146518 -0.168948 -0.191498 -0.213769 -0.235397 -0.256017 -0.27528 -0.29286 -0.30846 -0.321823 -0.332748 -0.341078 -0.346702 -0.349404 -0.349608 -0.346996 -0.341636 -0.3337 -0.323354 -0.310779 -0.296184 -0.279795 -0.261868 -0.242677 -0.222511 -0.20167 -0.180392 -0.158584 -0.137345 -0.117012 -0.0974619 -0.0790086 -0.0619103 -0.0464171 -0.0328113 -0.0213103 -0.0121281 -0.00544373 -0.00137141 -1.49439e-26 0 -0.00183415 -0.00653686 -0.0141786 -0.024664 -0.0378492 -0.0535425 -0.0715068 -0.0914626 -0.113093 -0.136048 -0.159951 -0.184417 -0.209022 -0.233336 -0.25696 -0.279507 -0.30059 -0.319855 -0.336997 -0.351737 -0.363839 -0.373135 -0.379498 -0.382684 -0.383098 -0.380446 -0.374765 -0.36626 -0.355093 -0.34145 -0.325552 -0.307653 -0.288033 -0.266994 -0.244855 -0.221942 -0.198499 -0.174496 -0.151169 -0.128772 -0.107235 -0.0869119 -0.0680738 -0.051019 -0.0360512 -0.0234052 -0.013314 -0.00597289 -0.00150394 -1.63799e-26 0 -0.0019806 -0.00702585 -0.0152112 -0.0264309 -0.0405285 -0.0572978 -0.0764855 -0.0977938 -0.120886 -0.145391 -0.170909 -0.197032 -0.22331 -0.249286 -0.274537 -0.298669 -0.321261 -0.341926 -0.360344 -0.376216 -0.389288 -0.399374 -0.40635 -0.409951 -0.410548 -0.407902 -0.401982 -0.393026 -0.381192 -0.366677 -0.34972 -0.330592 -0.309591 -0.287041 -0.263285 -0.238658 -0.213375 -0.187578 -0.162585 -0.138479 -0.115296 -0.093431 -0.0731523 -0.0548074 -0.0387166 -0.0251275 -0.0142886 -0.00640751 -0.00161272 -1.75578e-26 0 -0.00209643 -0.00740518 -0.0160062 -0.0277852 -0.0425759 -0.0601609 -0.0802744 -0.102605 -0.126801 -0.152475 -0.179213 -0.206589 -0.234134 -0.261368 -0.287853 -0.313178 -0.336923 -0.358678 -0.378085 -0.394832 -0.408662 -0.419368 -0.426826 -0.43077 -0.431527 -0.428909 -0.422827 -0.413542 -0.401211 -0.386044 -0.368291 -0.348233 -0.326182 -0.30248 -0.277484 -0.251528 -0.224779 -0.197658 -0.171418 -0.145982 -0.12152 -0.0984628 -0.0770659 -0.0577231 -0.0407653 -0.0264498 -0.0150364 -0.0067407 -0.00169602 -1.84591e-26 0 -0.00217951 -0.00766817 -0.0165499 -0.028704 -0.0439571 -0.0620842 -0.0828111 -0.105817 -0.130742 -0.157188 -0.184729 -0.212931 -0.241315 -0.269385 -0.296693 -0.32282 -0.347338 -0.369822 -0.389903 -0.407263 -0.421633 -0.432793 -0.440608 -0.444816 -0.445706 -0.443137 -0.436977 -0.427498 -0.414862 -0.399281 -0.381007 -0.360331 -0.337574 -0.313089 -0.28724 -0.260346 -0.232524 -0.204601 -0.177525 -0.151152 -0.125794 -0.101911 -0.0797483 -0.0597203 -0.0421647 -0.0273508 -0.0155456 -0.0069671 -0.0017525 -1.90693e-26 0 -0.00222813 -0.00780907 -0.0168297 -0.0291648 -0.0446364 -0.0630154 -0.0840233 -0.107336 -0.132588 -0.15938 -0.187283 -0.215858 -0.244624 -0.27308 -0.300776 -0.3273 -0.352212 -0.375077 -0.395523 -0.413229 -0.427918 -0.439366 -0.447432 -0.451846 -0.452857 -0.450379 -0.444236 -0.434711 -0.421967 -0.406213 -0.387703 -0.366731 -0.343624 -0.318739 -0.292427 -0.264951 -0.23653 -0.208334 -0.180798 -0.153908 -0.128058 -0.103722 -0.0811556 -0.0607675 -0.0428927 -0.0278159 -0.0158083 -0.00708317 -0.00178127 -1.93784e-26 0 -0.00224145 -0.00783058 -0.0168562 -0.0291931 -0.0446628 -0.063036 -0.0840345 -0.107334 -0.132571 -0.159344 -0.187227 -0.215783 -0.24453 -0.272968 -0.300653 -0.327177 -0.352091 -0.37496 -0.395417 -0.413139 -0.427847 -0.439322 -0.447407 -0.451836 -0.452866 -0.45048 -0.444422 -0.434973 -0.422297 -0.4066 -0.388132 -0.367188 -0.344093 -0.319191 -0.292782 -0.265045 -0.236648 -0.208641 -0.181055 -0.154108 -0.128225 -0.103832 -0.0812307 -0.0608216 -0.0429221 -0.0278291 -0.0158165 -0.00708586 -0.00178168 -1.93815e-26 0 -0.00221427 -0.00772381 -0.0166053 -0.0287387 -0.0439477 -0.0620062 -0.0826408 -0.105534 -0.130327 -0.15663 -0.184023 -0.212079 -0.240329 -0.268276 -0.295502 -0.321595 -0.346111 -0.368629 -0.38879 -0.406275 -0.420811 -0.432184 -0.440215 -0.44466 -0.44576 -0.443616 -0.437845 -0.42871 -0.416374 -0.401035 -0.38294 -0.362374 -0.33965 -0.315063 -0.288814 -0.26123 -0.233448 -0.205923 -0.178674 -0.152068 -0.126535 -0.102427 -0.0801101 -0.0599737 -0.0423108 -0.0274236 -0.0155853 -0.00698026 -0.00175455 -1.90786e-26 0 -0.00214686 -0.00749346 -0.0160903 -0.0278291 -0.0425386 -0.06 -0.0799488 -0.102078 -0.126043 -0.151466 -0.177944 -0.205066 -0.232379 -0.259399 -0.28574 -0.310994 -0.334724 -0.356534 -0.376072 -0.393036 -0.407176 -0.418258 -0.426098 -0.430482 -0.431617 -0.429655 -0.424182 -0.415434 -0.403575 -0.388793 -0.371325 -0.351437 -0.329398 -0.305404 -0.279674 -0.253093 -0.226