<?xml version="1.0"?>
<VTKFile type="PolyData">
	<PolyData>
		<Piece NumberOfPoints="2601" NumberOfPolys="2500">
			<Points>
				<DataArray type="Float32" NumberOfComponents="3" format="ascii">
 0 0 0 0.02 0 0 0.04 0 0 0.06 0 0 0.08 0 0 0.1 0 0 0.12 0 0 0.14 0 0 0.16 0 0 0.18 0 0 0.2 0 0 0.22 0 0 0.24 0 0 0.26 0 0 0.28 0 0 0.3 0 0 0.32 0 0 0.34 0 0 0.36 0 0 0.38 0 0 0.4 0 0 0.42 0 0 0.44 0 0 0.46 0 0 0.48 0 0 0.5 0 0 0.52 0 0 0.54 0 0 0.56 0 0 0.58 0 0 0.6 0 0 0.62 0 0 0.64 0 0 0.66 0 0 0.68 0 0 0.7 0 0 0.72 0 0 0.74 0 0 0.76 0 0 0.78 0 0 0.8 0 0 0.82 0 0 0.84 0 0 0.86 0 0 0.88 0 0 0.9 0 0 0.92 0 0 0.94 0 0 0.96 0 0 0.98 0 0 1 0 0 0 0.02 0 0.02 0.02 0 0.04 0.02 0 0.06 0.02 0 0.08 0.02 0 0.1 0.02 0 0.12 0.02 0 0.14 0.02 0 0.16 0.02 0 0.18 0.02 0 0.2 0.02 0 0.22 0.02 0 0.24 0.02 0 0.26 0.02 0 0.28 0.02 0 0.3 0.02 0 0.32 0.02 0 0.34 0.02 0 0.36 0.02 0 0.38 0.02 0 0.4 0.02 0 0.42 0.02 0 0.44 0.02 0 0.46 0.02 0 0.48 0.02 0 0.5 0.02 0 0.52 0.02 0 0.54 0.02 0 0.56 0.02 0 0.58 0.02 0 0.6 0.02 0 0.62 0.02 0 0.64 0.02 0 0.66 0.02 0 0.68 0.02 0 0.7 0.02 0 0.72 0.02 0 0.74 0.02 0 0.76 0.02 0 0.78 0.02 0 0.8 0.02 0 0.82 0.02 0 0.84 0.02 0 0.86 0.02 0 0.88 0.02 0 0.9 0.02 0 0.92 0.02 0 0.94 0.02 0 0.96 0.02 0 0.98 0.02 0 1 0.02 0 0 0.04 0 0.02 0.04 0 0.04 0.04 0 0.06 0.04 0 0.08 0.04 0 0.1 0.04 0 0.12 0.04 0 0.14 0.04 0 0.16 0.04 0 0.18 0.04 0 0.2 0.04 0 0.22 0.04 0 0.24 0.04 0 0.26 0.04 0 0.28 0.04 0 0.3 0.04 0 0.32 0.04 0 0.34 0.04 0 0.36 0.04 0 0.38 0.04 0 0.4 0.04 0 0.42 0.04 0 0.44 0.04 0 0.46 0.04 0 0.48 0.04 0 0.5 0.04 0 0.52 0.04 0 0.54 0.04 0 0.56 0.04 0 0.58 0.04 0 0.6 0.04 0 0.62 0.04 0 0.64 0.04 0 0.66 0.04 0 0.68 0.04 0 0.7 0.04 0 0.72 0.04 0 0.74 0.04 0 0.76 0.04 0 0.78 0.04 0 0.8 0.04 0 0.82 0.04 0 0.84 0.04 0 0.86 0.04 0 0.88 0.04 0 0.9 0.04 0 0.92 0.04 0 0.94 0.04 0 0.96 0.04 0 0.98 0.04 0 1 0.04 0 0 0.06 0 0.02 0.06 0 0.04 0.06 0 0.06 0.06 0 0.08 0.06 0 0.1 0.06 0 0.12 0.06 0 0.14 0.06 0 0.16 0.06 0 0.18 0.06 0 0.2 0.06 0 0.22 0.06 0 0.24 0.06 0 0.26 0.06 0 0.28 0.06 0 0.3 0.06 0 0.32 0.06 0 0.34 0.06 0 0.36 0.06 0 0.38 0.06 0 0.4 0.06 0 0.42 0.06 0 0.44 0.06 0 0.46 0.06 0 0.48 0.06 0 0.5 0.06 0 0.52 0.06 0 0.54 0.06 0 0.56 0.06 0 0.58 0.06 0 0.6 0.06 0 0.62 0.06 0 0.64 0.06 0 0.66 0.06 0 0.68 0.06 0 0.7 0.06 0 0.72 0.06 0 0.74 0.06 0 0.76 0.06 0 0.78 0.06 0 0.8 0.06 0 0.82 0.06 0 0.84 0.06 0 0.86 0.06 0 0.88 0.06 0 0.9 0.06 0 0.92 0.06 0 0.94 0.06 0 0.96 0.06 0 0.98 0.06 0 1 0.06 0 0 0.08 0 0.02 0.08 0 0.04 0.08 0 0.06 0.08 0 0.08 0.08 0 0.1 0.08 0 0.12 0.08 0 0.14 0.08 0 0.16 0.08 0 0.18 0.08 0 0.2 0.08 0 0.22 0.08 0 0.24 0.08 0 0.26 0.08 0 0.28 0.08 0 0.3 0.08 0 0.32 0.08 0 0.34 0.08 0 0.36 0.08 0 0.38 0.08 0 0.4 0.08 0 0.42 0.08 0 0.44 0.08 0 0.46 0.08 0 0.48 0.08 0 0.5 0.08 0 0.52 0.08 0 0.54 0.08 0 0.56 0.08 0 0.58 0.08 0 0.6 0.08 0 0.62 0.08 0 0.64 0.08 0 0.66 0.08 0 0.68 0.08 0 0.7 0.08 0 0.72 0.08 0 0.74 0.08 0 0.76 0.08 0 0.78 0.08 0 0.8 0.08 0 0.82 0.08 0 0.84 0.08 0 0.86 0.08 0 0.88 0.08 0 0.9 0.08 0 0.92 0.08 0 0.94 0.08 0 0.96 0.08 0 0.98 0.08 0 1 0.08 0 0 0.1 0 0.02 0.1 0 0.04 0.1 0 0.06 0.1 0 0.08 0.1 0 0.1 0.1 0 0.12 0.1 0 0.14 0.1 0 0.16 0.1 0 0.18 0.1 0 0.2 0.1 0 0.22 0.1 0 0.24 0.1 0 0.26 0.1 0 0.28 0.1 0 0.3 0.1 0 0.32 0.1 0 0.34 0.1 0 0.36 0.1 0 0.38 0.1 0 0.4 0.1 0 0.42 0.1 0 0.44 0.1 0 0.46 0.1 0 0.48 0.1 0 0.5 0.1 0 0.52 0.1 0 0.54 0.1 0 0.56 0.1 0 0.58 0.1 0 0.6 0.1 0 0.62 0.1 0 0.64 0.1 0 0.66 0.1 0 0.68 0.1 0 0.7 0.1 0 0.72 0.1 0 0.74 0.1 0 0.76 0.1 0 0.78 0.1 0 0.8 0.1 0 0.82 0.1 0 0.84 0.1 0 0.86 0.1 0 0.88 0.1 0 0.9 0.1 0 0.92 0.1 0 0.94 0.1 0 0.96 0.1 0 0.98 0.1 0 1 0.1 0 0 0.12 0 0.02 0.12 0 0.04 0.12 0 0.06 0.12 0 0.08 0.12 0 0.1 0.12 0 0.12 0.12 0 0.14 0.12 0 0.16 0.12 0 0.18 0.12 0 0.2 0.12 0 0.22 0.12 0 0.24 0.12 0 0.26 0.12 0 0.28 0.12 0 0.3 0.12 0 0.32 0.12 0 0.34 0.12 0 0.36 0.12 0 0.38 0.12 0 0.4 0.12 0 0.42 0.12 0 0.44 0.12 0 0.46 0.12 0 0.48 0.12 0 0.5 0.12 0 0.52 0.12 0 0.54 0.12 0 0.56 0.12 0 0.58 0.12 0 0.6 0.12 0 0.62 0.12 0 0.64 0.12 0 0.66 0.12 0 0.68 0.12 0 0.7 0.12 0 0.72 0.12 0 0.74 0.12 0 0.76 0.12 0 0.78 0.12 0 0.8 0.12 0 0.82 0.12 0 0.84 0.12 0 0.86 0.12 0 0.88 0.12 0 0.9 0.12 0 0.92 0.12 0 0.94 0.12 0 0.96 0.12 0 0.98 0.12 0 1 0.12 0 0 0.14 0 0.02 0.14 0 0.04 0.14 0 0.06 0.14 0 0.08 0.14 0 0.1 0.14 0 0.12 0.14 0 0.14 0.14 0 0.16 0.14 0 0.18 0.14 0 0.2 0.14 0 0.22 0.14 0 0.24 0.14 0 0.26 0.14 0 0.28 0.14 0 0.3 0.14 0 0.32 0.14 0 0.34 0.14 0 0.36 0.14 0 0.38 0.14 0 0.4 0.14 0 0.42 0.14 0 0.44 0.14 0 0.46 0.14 0 0.48 0.14 0 0.5 0.14 0 0.52 0.14 0 0.54 0.14 0 0.56 0.14 0 0.58 0.14 0 0.6 0.14 0 0.62 0.14 0 0.64 0.14 0 0.66 0.14 0 0.68 0.14 0 0.7 0.14 0 0.72 0.14 0 0.74 0.14 0 0.76 0.14 0 0.78 0.14 0 0.8 0.14 0 0.82 0.14 0 0.84 0.14 0 0.86 0.14 0 0.88 0.14 0 0.9 0.14 0 0.92 0.14 0 0.94 0.14 0 0.96 0.14 0 0.98 0.14 0 1 0.14 0 0 0.16 0 0.02 0.16 0 0.04 0.16 0 0.06 0.16 0 0.08 0.16 0 0.1 0.16 0 0.12 0.16 0 0.14 0.16 0 0.16 0.16 0 0.18 0.16 0 0.2 0.16 0 0.22 0.16 0 0.24 0.16 0 0.26 0.16 0 0.28 0.16 0 0.3 0.16 0 0.32 0.16 0 0.34 0.16 0 0.36 0.16 0 0.38 0.16 0 0.4 0.16 0 0.42 0.16 0 0.44 0.16 0 0.46 0.16 0 0.48 0.16 0 0.5 0.16 0 0.52 0.16 0 0.54 0.16 0 0.56 0.16 0 0.58 0.16 0 0.6 0.16 0 0.62 0.16 0 0.64 0.16 0 0.66 0.16 0 0.68 0.16 0 0.7 0.16 0 0.72 0.16 0 0.74 0.16 0 0.76 0.16 0 0.78 0.16 0 0.8 0.16 0 0.82 0.16 0 0.84 0.16 0 0.86 0.16 0 0.88 0.16 0 0.9 0.16 0 0.92 0.16 0 0.94 0.16 0 0.96 0.16 0 0.98 0.16 0 1 0.16 0 0 0.18 0 0.02 0.18 0 0.04 0.18 0 0.06 0.18 0 0.08 0.18 0 0.1 0.18 0 0.12 0.18 0 0.14 0.18 0 0.16 0.18 0 0.18 0.18 0 0.2 0.18 0 0.22 0.18 0 0.24 0.18 0 0.26 0.18 0 0.28 0.18 0 0.3 0.18 0 0.32 0.18 0 0.34 0.18 0 0.36 0.18 0 0.38 0.18 0 0.4 0.18 0 0.42 0.18 0 0.44 0.18 0 0.46 0.18 0 0.48 0.18 0 0.5 0.18 0 0.52 0.18 0 0.54 0.18 0 0.56 0.18 0 0.58 0.18 0 0.6 0.18 0 0.62 0.18 0 0.64 0.18 0 0.66 0.18 0 0.68 0.18 0 0.7 0.18 0 0.72 0.18 0 0.74 0.18 0 0.76 0.18 0 0.78 0.18 0 0.8 0.18 0 0.82 0.18 0 0.84 0.18 0 0.86 0.18 0 0.88 0.18 0 0.9 0.18 0 0.92 0.18 0 0.94 0.18 0 0.96 0.18 0 0.98 0.18 0 1 0.18 0 0 0.2 0 0.02 0.2 0 0.04 0.2 0 0.06 0.2 0 0.08 0.2 0 0.1 0.2 0 0.12 0.2 0 0.14 0.2 0 0.16 0.2 0 0.18 0.2 0 0.2 0.2 0 0.22 0.2 0 0.24 0.2 0 0.26 0.2 0 0.28 0.2 0 0.3 0.2 0 0.32 0.2 0 0.34 0.2 0 0.36 0.2 0 0.38 0.2 0 0.4 0.2 0 0.42 0.2 0 0.44 0.2 0 0.46 0.2 0 0.48 0.2 0 0.5 0.2 0 0.52 0.2 0 0.54 0.2 0 0.56 0.2 0 0.58 0.2 0 0.6 0.2 0 0.62 0.2 0 0.64 0.2 0 0.66 0.2 0 0.68 0.2 0 0.7 0.2 0 0.72 0.2 0 0.74 0.2 0 0.76 0.2 0 0.78 0.2 0 0.8 0.2 0 0.82 0.2 0 0.84 0.2 0 0.86 0.2 0 0.88 0.2 0 0.9 0.2 0 0.92 0.2 0 0.94 0.2 0 0.96 0.2 0 0.98 0.2 0 1 0.2 0 0 0.22 0 0.02 0.22 0 0.04 0.22 0 0.06 0.22 0 0.08 0.22 0 0.1 0.22 0 0.12 0.22 0 0.14 0.22 0 0.16 0.22 0 0.18 0.22 0 0.2 0.22 0 0.22 0.22 0 0.24 0.22 0 0.26 0.22 0 0.28 0.22 0 0.3 0.22 0 0.32 0.22 0 0.34 0.22 0 0.36 0.22 0 0.38 0.22 0 0.4 0.22 0 0.42 0.22 0 0.44 0.22 0 0.46 0.22 0 0.48 0.22 0 0.5 0.22 0 0.52 0.22 0 0.54 0.22 0 0.56 0.22 0 0.58 0.22 0 0.6 0.22 0 0.62 0.22 0 0.64 0.22 0 0.66 0.22 0 0.68 0.22 0 0.7 0.22 0 0.72 0.22 0 0.74 0.22 0 0.76 0.22 0 0.78 0.22 0 0.8 0.22 0 0.82 0.22 0 0.84 0.22 0 0.86 0.22 0 0.88 0.22 0 0.9 0.22 0 0.92 0.22 0 0.94 0.22 0 0.96 0.22 0 0.98 0.22 0 1 0.22 0 0 0.24 0 0.02 0.24 0 0.04 0.24 0 0.06 0.24 0 0.08 0.24 0 0.1 0.24 0 0.12 0.24 0 0.14 0.24 0 0.16 0.24 0 0.18 0.24 0 0.2 0.24 0 0.22 0.24 0 0.24 0.24 0 0.26 0.24 0 0.28 0.24 0 0.3 0.24 0 0.32 0.24 0 0.34 0.24 0 0.36 0.24 0 0.38 0.24 0 0.4 0.24 0 0.42 0.24 0 0.44 0.24 0 0.46 0.24 0 0.48 0.24 0 0.5 0.24 0 0.52 0.24 0 0.54 0.24 0 0.56 0.24 0 0.58 0.24 0 0.6 0.24 0 0.62 0.24 0 0.64 0.24 0 0.66 0.24 0 0.68 0.24 0 0.7 0.24 0 0.72 0.24 0 0.74 0.24 0 0.76 0.24 0 0.78 0.24 0 0.8 0.24 0 0.82 0.24 0 0.84 0.24 0 0.86 0.24 0 0.88 0.24 0 0.9 0.24 0 0.92 0.24 0 0.94 0.24 0 0.96 0.24 0 0.98 0.24 0 1 0.24 0 0 0.26 0 0.02 0.26 0 0.04 0.26 0 0.06 0.26 0 0.08 0.26 0 0.1 0.26 0 0.12 0.26 0 0.14 0.26 0 0.16 0.26 0 0.18 0.26 0 0.2 0.26 0 0.22 0.26 0 0.24 0.26 0 0.26 0.26 0 0.28 0.26 0 0.3 0.26 0 0.32 0.26 0 0.34 0.26 0 0.36 0.26 0 0.38 0.26 0 0.4 0.26 0 0.42 0.26 0 0.44 0.26 0 0.46 0.26 0 0.48 0.26 0 0.5 0.26 0 0.52 0.26 0 0.54 0.26 0 0.56 0.26 0 0.58 0.26 0 0.6 0.26 0 0.62 0.26 0 0.64 0.26 0 0.66 0.26 0 0.68 0.26 0 0.7 0.26 0 0.72 0.26 0 0.74 0.26 0 0.76 0.26 0 0.78 0.26 0 0.8 0.26 0 0.82 0.26 0 0.84 0.26 0 0.86 0.26 0 0.88 0.26 0 0.9 0.26 0 0.92 0.26 0 0.94 0.26 0 0.96 0.26 0 0.98 0.26 0 1 0.26 0 0 0.28 0 0.02 0.28 0 0.04 0.28 0 0.06 0.28 0 0.08 0.28 0 0.1 0.28 0 0.12 0.28 0 0.14 0.28 0 0.16 0.28 0 0.18 0.28 0 0.2 0.28 0 0.22 0.28 0 0.24 0.28 0 0.26 0.28 0 0.28 0.28 0 0.3 0.28 0 0.32 0.28 0 0.34 0.28 0 0.36 0.28 0 0.38 0.28 0 0.4 0.28 0 0.42 0.28 0 0.44 0.28 0 0.46 0.28 0 0.48 0.28 0 0.5 0.28 0 0.52 0.28 0 0.54 0.28 0 0.56 0.28 0 0.58 0.28 0 0.6 0.28 0 0.62 0.28 0 0.64 0.28 0 0.66 0.28 0 0.68 0.28 0 0.7 0.28 0 0.72 0.28 0 0.74 0.28 0 0.76 0.28 0 0.78 0.28 0 0.8 0.28 0 0.82 0.28 0 0.84 0.28 0 0.86 0.28 0 0.88 0.28 0 0.9 0.28 0 0.92 0.28 0 0.94 0.28 0 0.96 0.28 0 0.98 0.28 0 1 0.28 0 0 0.3 0 0.02 0.3 0 0.04 0.3 0 0.06 0.3 0 0.08 0.3 0 0.1 0.3 0 0.12 0.3 0 0.14 0.3 0 0.16 0.3 0 0.18 0.3 0 0.2 0.3 0 0.22 0.3 0 0.24 0.3 0 0.26 0.3 0 0.28 0.3 0 0.3 0.3 0 0.32 0.3 0 0.34 0.3 0 0.36 0.3 0 0.38 0.3 0 0.4 0.3 0 0.42 0.3 0 0.44 0.3 0 0.46 0.3 0 0.48 0.3 0 0.5 0.3 0 0.52 0.3 0 0.54 0.3 0 0.56 0.3 0 0.58 0.3 0 0.6 0.3 0 0.62 0.3 0 0.64 0.3 0 0.66 0.3 0 0.68 0.3 0 0.7 0.3 0 0.72 0.3 0 0.74 0.3 0 0.76 0.3 0 0.78 0.3 0 0.8 0.3 0 0.82 0.3 0 0.84 0.3 0 0.86 0.3 0 0.88 0.3 0 0.9 0.3 0 0.92 0.3 0 0.94 0.3 0 0.96 0.3 0 0.98 0.3 0 1 0.3 0 0 0.32 0 0.02 0.32 0 0.04 0.32 0 0.06 0.32 0 0.08 0.32 0 0.1 0.32 0 0.12 0.32 0 0.14 0.32 0 0.16 0.32 0 0.18 0.32 0 0.2 0.32 0 0.22 0.32 0 0.24 0.32 0 0.26 0.32 0 0.28 0.32 0 0.3 0.32 0 0.32 0.32 0 0.34 0.32 0 0.36 0.32 0 0.38 0.32 0 0.4 0.32 0 0.42 0.32 0 0.44 0.32 0 0.46 0.32 0 0.48 0.32 0 0.5 0.32 0 0.52 0.32 0 0.54 0.32 0 0.56 0.32 0 0.58 0.32 0 0.6 0.32 0 0.62 0.32 0 0.64 0.32 0 0.66 0.32 0 0.68 0.32 0 0.7 0.32 0 0.72 0.32 0 0.74 0.32 0 0.76 0.32 0 0.78 0.32 0 0.8 0.32 0 0.82 0.32 0 0.84 0.32 0 0.86 0.32 0 0.88 0.32 0 0.9 0.32 0 0.92 0.32 0 0.94 0.
[...]
			<PointData Scalars="VitesseX">
				<DataArray Name="VitesseX" type="Float32" format="ascii">
 0 0 0 0 0 0 0 0 0 0 0 0 0 0 0 0 0 0 0 0 0 0 0 0 0 0 0 0 0 0 0 0 0 0 0 0 0 0 0 0 0 0 0 0 0 0 0 0 0 0 0 0 0.00041794 0.00166367 0.0037492 0.00660829 0.0101899 0.0144311 0.0192649 0.0246137 0.0303921 0.0365075 0.042862 0.0493535 0.0558797 0.0623335 0.0686101 0.0746082 0.0802305 0.085378 0.0899659 0.0939393 0.0972342 0.09973 0.101353 0.102028 0.102538 0.101174 0.0998073 0.0978615 0.0951136 0.0916852 0.0876284 0.0829908 0.0778458 0.0722777 0.0663688 0.0602096 0.0539001 0.0475412 0.0412335 0.0350729 0.029163 0.0235941 0.0184531 0.0138204 0.00976811 0.00635846 0.00364286 0.00165337 0.00043845 4.33733e-27 0 0.000808416 0.00322413 0.00723028 0.0127354 0.0196483 0.0278567 0.0372285 0.0476138 0.0588471 0.0707495 0.0831318 0.0957974 0.108551 0.121184 0.133493 0.145283 0.156365 0.166561 0.175705 0.183647 0.190264 0.195452 0.199082 0.201032 0.201727 0.200576 0.198187 0.194404 0.189081 0.182311 0.174226 0.164991 0.154768 0.143697 0.131968 0.119751 0.107217 0.0945713 0.0820333 0.0697962 0.0580297 0.0469479 0.03672 0.0275036 0.0194411 0.0126567 0.00725387 0.00331415 0.000895569 8.60624e-27 0 0.00118607 0.00473621 0.0105905 0.0186487 0.0287764 0.0408082 0.0545504 0.0697833 0.0862652 0.103736 0.121919 0.14053 0.159287 0.177885 0.196025 0.213424 0.229806 0.244912 0.258501 0.270357 0.280288 0.288126 0.293746 0.297012 0.298091 0.296874 0.293521 0.287952 0.280159 0.270278 0.25844 0.244802 0.229612 0.21315 0.195696 0.177566 0.159006 0.140263 0.121658 0.103513 0.0860943 0.0696414 0.0544645 0.0407917 0.028832 0.0187688 0.0107553 0.00491283 0.00132889 1.27394e-26 0 0.00154513 0.0061646 0.013778 0.0242589 0.037433 0.0530849 0.070962 0.0907789 0.112222 0.134957 0.158626 0.182863 0.207305 0.23156 0.255237 0.27797 0.299403 0.319197 0.337041 0.352653 0.365785 0.376218 0.383781 0.388328 0.389837 0.388529 0.384306 0.377085 0.366952 0.354084 0.33868 0.320964 0.301193 0.279653 0.256729 0.232862 0.208468 0.183885 0.159483 0.135678 0.112833 0.0912928 0.0713916 0.0534613 0.0377802 0.0245876 0.014084 0.00642802 0.00173414 1.66716e-26 0 0.00188131 0.00749436 0.0167456 0.0294796 0.0454845 0.0644974 0.0862106 0.110277 0.13632 0.163934 0.192692 0.22215 0.251874 0.281389 0.310221 0.337928 0.364077 0.38826 0.410096 0.429243 0.445398 0.458295 0.467722 0.473509 0.475465 0.474083 0.469093 0.46037 0.448096 0.432468 0.413726 0.392166 0.368118 0.341933 0.314009 0.284815 0.254907 0.22478 0.194914 0.165791 0.137873 0.111566 0.0872273 0.0653082 0.0461421 0.03002 0.0171866 0.00783545 0.00210607 2.03405e-26 0 0.00218685 0.0087057 0.0194474 0.0342302 0.0528068 0.0748704 0.100061 0.127978 0.158188 0.190225 0.223599 0.257797 0.292322 0.326622 0.360146 0.392387 0.422843 0.45104 0.476537 0.498933 0.517877 0.53306 0.544231 0.551194 0.55361 0.552186 0.546536 0.536481 0.522286 0.50417 0.482409 0.45734 0.429364 0.398918 0.366454 0.332471 0.297558 0.262329 0.227415 0.193388 0.16079 0.130094 0.101717 0.0761456 0.0537869 0.0349823 0.0200165 0.00911519 0.00244055 2.36883e-26 0 0.00245762 0.00977986 0.0218416 0.0384372 0.0592876 0.084042 0.112295 0.143606 0.177489 0.213433 0.250888 0.289278 0.328051 0.366588 0.404272 0.440535 0.474816 0.506584 0.535346 0.560649 0.582097 0.599345 0.612103 0.620153 0.623036 0.621606 0.615409 0.604216 0.58835 0.568055 0.543636 0.51547 0.484003 0.449742 0.413223 0.375001 0.335684 0.295934 0.256498 0.21806 0.181242 0.146604 0.114628 0.0858001 0.0605934 0.0393964 0.0225304 0.0102488 0.00273396 2.6662e-26 0 0.00268986 0.0107001 0.0238909 0.0420337 0.0648242 0.0918598 0.12271 0.156906 0.19393 0.233219 0.274165 0.31614 0.358544 0.400704 0.441944 0.48165 0.519209 0.554046 0.585618 0.613435 0.637058 0.65611 0.670271 0.679298 0.682643 0.68125 0.674628 0.662503 0.645249 0.623117 0.596444 0.56564 0.531188 0.493641 0.45361 0.411724 0.368631 0.325018 0.281688 0.239424 0.198934 0.160867 0.125762 0.09412 0.0664542 0.043193 0.024689 0.0112193 0.00298269 2.92151e-26 0 0.00287986 0.0114519 0.0255639 0.0449589 0.0693115 0.0982077 0.131187 0.167747 0.20733 0.249331 0.293106 0.337988 0.383337 0.428437 0.472566 0.515072 0.555307 0.592656 0.626542 0.65644 0.681879 0.702451 0.71781 0.727691 0.731491 0.730177 0.72327 0.710435 0.692087 0.668485 0.639991 0.607045 0.570162 0.529929 0.487002 0.442078 0.395868 0.349084 0.302558 0.257132 0.213594 0.172669 0.134953 0.100977 0.0712774 0.0463121 0.0264584 0.0120117 0.00318341 3.13076e-26 0 0.0030246 0.0120236 0.0268275 0.0471725 0.0727072 0.103008 0.137598 0.175947 0.217459 0.261496 0.307386 0.354434 0.401977 0.449272 0.495568 0.540186 0.582453 0.621726 0.657402 0.688927 0.715807 0.737604 0.753946 0.764554 0.768794 0.767612 0.760579 0.747275 0.728152 0.703475 0.673624 0.639061 0.600331 0.55805 0.512896 0.465612 0.416977 0.367744 0.318758 0.270887 0.224978 0.181822 0.14206 0.106265 0.0749881 0.048705 0.0278109 0.0126138 0.00333334 3.29068e-26 0 0.00312173 0.0124042 0.0276691 0.0486407 0.0749561 0.106183 0.141832 0.181344 0.224099 0.26944 0.316677 0.365107 0.414057 0.462775 0.51049 0.556509 0.600143 0.640731 0.677655 0.710338 0.738255 0.760959 0.77807 0.789286 0.793958 0.792959 0.785964 0.772442 0.752877 0.727539 0.69681 0.661168 0.621183 0.577501 0.530836 0.481954 0.431652 0.380715 0.330022 0.280459 0.232898 0.188172 0.146971 0.109904 0.0775289 0.0503347 0.0287255 0.0130164 0.00343038 3.3988e-26 0 0.00316821 0.0125823 0.0280561 0.0493036 0.0759515 0.10756 0.143622 0.183562 0.22676 0.272559 0.32028 0.369223 0.418716 0.468014 0.516338 0.562998 0.607301 0.648583 0.686214 0.719607 0.748234 0.771637 0.789422 0.801267 0.806542 0.805812 0.799011 0.785521 0.765859 0.740295 0.709204 0.673064 0.632454 0.588042 0.540565 0.490817 0.439613 0.387766 0.336165 0.285689 0.237216 0.191613 0.149608 0.111836 0.078861 0.0511763 0.0291885 0.0132135 0.00347324 3.45345e-26 0 0.00316686 0.0125747 0.0280348 0.0492571 0.075859 0.107396 0.143358 0.183174 0.226228 0.271878 0.31945 0.368253 0.41762 0.466819 0.515072 0.561698 0.606003 0.647331 0.685044 0.718551 0.747334 0.770925 0.788918 0.800975 0.806482 0.805881 0.799231 0.785869 0.766327 0.740872 0.70987 0.673791 0.633204 0.588774 0.541243 0.491412 0.440118 0.388192 0.336535 0.286021 0.237489 0.1918 0.149717 0.111884 0.0788706 0.0511644 0.029168 0.0131937 0.00345996 3.45381e-26 0 0.00311491 0.0123638 0.0275562 0.0483907 0.0744804 0.105397 0.140644 0.179657 0.221837 0.266558 0.31317 0.361 0.409399 0.457666 0.505039 0.550858 0.594456 0.635175 0.672387 0.705528 0.734084 0.757585 0.775616 0.787834 0.793669 0.793423 0.787439 0.774742 0.755909 0.731187 0.700928 0.665588 0.625718 0.58197 0.535084 0.485863 0.435149 0.383782 0.332668 0.282703 0.234704 0.189499 0.147856 0.110436 0.0778029 0.0504374 0.0287298 0.01298 0.00339482 3.39988e-26 0 0.00301371 0.0119583 0.0266392 0.0467382 0.0718876 0.101696 0.135664 0.173248 0.213874 0.256945 0.301843 0.347927 0.394575 0.441131 0.486864 0.531145 0.573348 0.61282 0.648959 0.681232 0.709134 0.7322 0.750017 0.762235 0.768347 0.768411 0.763078 0.751164 0.733266 0.709609 0.680526 0.646453 0.607924 0.565564 0.520094 0.4723 0.423012 0.373062 0.32334 0.274735 0.228046 0.184081 0.143578 0.107188 0.0754728 0.0488961 0.0278299 0.0125591 0.0032762 3.29255e-26 0 0.00286498 0.0113635 0.0252892 0.0443183 0.0681418 0.0963665 0.128509 0.164055 0.20247 0.243192 0.285647 0.329238 0.373383 0.417478 0.460839 0.502891 0.543026 0.580628 0.615141 0.646056 0.672891 0.695187 0.712533 0.724583 0.730917 0.731326 0.726782 0.715886 0.699239 0.677045 0.649612 0.617352 0.58077 0.540468 0.497131 0.451511 0.404414 0.356648 0.309074 0.262564 0.217885 0.175813 0.137073 0.102284 0.0719731 0.0465956 0.0264972 0.0119426 0.00310702 3.1335e-26 0 0.00267099 0.0105863 0.0235222 0.0411858 0.0633134 0.089497 0.11929 0.152224 0.187802 0.225515 0.264838 0.305235 0.346167 0.387096 0.427389 0.466541 0.503974 0.539119 0.57148 0.600578 0.62594 0.647126 0.663749 0.675472 0.681955 0.682751 0.679132 0.669475 0.654386 0.634034 0.608703 0.578769 0.544707 0.507085 0.466546 0.423803 0.379625 0.334787 0.29009 0.246379 0.204389 0.164846 0.128447 0.0957899 0.0673603 0.043574 0.0247541 0.0111414 0.00289028 2.92526e-26 0 0.00243456 0.00963808 0.0213668 0.0374095 0.0574773 0.0811924 0.108154 0.137936 0.1701 0.204194 0.239756 0.276309 0.313371 0.350471 0.387048 0.422667 0.456808 0.488967 0.518687 0.545512 0.569006 0.588774 0.604444 0.615684 0.622208 0.623516 0.620837 0.612655 0.599416 0.58127 0.558465 0.531343 0.500337 0.465972 0.428849 0.389625 0.349028 0.307803 0.266679 0.226434 0.187768 0.151361 0.117851 0.0878173 0.0617105 0.0398812 0.0226296 0.0101688 0.00262951 2.67105e-26 0 0.00215966 0.00852689 0.0188775 0.033044 0.050722 0.0715823 0.0952705 0.121418 0.149648 0.179575 0.210804 0.242924 0.275515 0.308183 0.340462 0.371987 0.402313 0.430982 0.457577 0.4817 0.502988 0.521065 0.535562 0.546159 0.552612 0.554635 0.552812 0.546358 0.535244 0.519648 0.499767 0.475889 0.448401 0.417801 0.384649 0.349539 0.313129 0.276122 0.239194 0.203036 0.168281 0.135562 0.105458 0.0785073 0.0551145 0.0355772 0.0201586 0.00904103 0.00232901 2.37487e-26 0 0.00185012 0.0072707 0.0161028 0.0281521 0.0431517 0.0608148 0.080844 0.102934 0.126777 0.152054 0.178447 0.205618 0.233214 0.260915 0.288389 0.315316 0.341326 0.366029 0.389069 0.410152 0.428941 0.445057 0.458164 0.467985 0.47436 0.477099 0.476263 0.471713 0.462939 0.450166 0.433534 0.41327 0.389719 0.363345 0.334653 0.304177 0.272502 0.240259 0.208067 0.176544 0.146232 0.117697 0.091463 0.0680008 0.0476733 0.0307306 0.0173808 0.00777564 0.0019942 2.04142e-26 0 0.00150828 0.00590696 0.0130756 0.0228076 0.0348814 0.0490595 0.0651059 0.0827823 0.10185 0.122075 0.1432 0.164957 0.187091 0.209368 0.231596 0.253484 0.274749 0.295098 0.31426 0.332007 0.348 0.361914 0.373466 0.382422 0.388684 0.392151 0.392455 0.389926 0.383634 0.373856 0.360695 0.344354 0.325138 0.303419 0.27963 0.254246 0.22778 0.200781 0.173799 0.147375 0.121964 0.0980467 0.0760794 0.0564629 0.0395112 0.0254195 0.0143408 0.00639543 0.00163164 1.67614e-26 0 0.00113752 0.00446037 0.00983839 0.0170942 0.0260424 0.036505 0.0483073 0.0612821 0.0752693 0.0900963 0.105574 0.121528 0.137817 0.15432 0.170933 0.187446 0.203651 0.219341 0.234338 0.248464 0.261428 0.272952 0.282825 0.290822 0.29691 0.301047 0.30297 0.302198 0.298583 0.291914 0.282396 0.270212 0.255608 0.238884 0.220387 0.200504 0.179654 0.158305 0.136929 0.115987 0.0958558 0.0769166 0.0595482 0.044079 0.0307604 0.0197277 0.0110877 0.00492112 0.0012475 1.28472e-26 0 0.000753307 0.0029435 0.00644045 0.0110987 0.0167756 0.0233513 0.0307166 0.0387765 0.0474309 0.0565751 0.0661202 0.0760027 0.0861904 0.0966715 0.107404 0.11827 0.129161 0.139954 0.150542 0.160827 0.1706 0.179575 0.187616 0.194555 0.200474 0.205384 0.208926 0.21014 0.209017 0.20555 0.199804 0.191964 0.182203 0.170739 0.157825 0.143757 0.128858 0.113485 0.0980335 0.0828785 0.0683174 0.0546381 0.0421296 0.0310407 0.0215532 0.0137442 0.00767515 0.0033801 0.000847003 8.73222e-27 0 0.000361035 0.00137807 0.00293575 0.0049149 0.00722691 0.00980527 0.0126076 0.0155914 0.0187285 0.0220162 0.0254626 0.0291047 0.0330196 0.0372998 0.0419653 0.0470039 0.0524051 0.0581539 0.0641776 0.0704624 0.0768966 0.0831893 0.0892696 0.095051 0.100751 0.106787 0.111858 0.114983 0.116327 0.115992 0.11415 0.110801 0.106058 0.100046 0.0929233 0.084886 0.0761674 0.0670122 0.0577166 0.0485662 0.0397832 0.0315633 0.0240972 0.0175509 0.0120347 0.00756641 0.00415765 0.00179835 0.000438211 4.48873e-27 0 -3.6523e-05 -0.000211067 -0.000626568 -0.00136167 -0.00245884 -0.00392665 -0.00576744 -0.00795021 -0.0104039 -0.0130463 -0.0157787 -0.0184576 -0.0209007 -0.0229209 -0.024417 -0.0252943 -0.0254611 -0.0248398 -0.0234621 -0.0212836 -0.018288 -0.0147225 -0.0106847 -0.00621779 -0.00111694 0.00635472 0.0127093 0.0177361 0.0216387 0.0246236 0.0267365 0.0279793 0.0283624 0.0279175 0.0267035 0.0248179 0.0224002 0.0196011 0.0166026 0.0135886 0.0107037 0.00805462 0.00573308 0.00382084 0.00235673 0.00129661 0.000595339 0.000200036 3.20448e-05 1.85163e-28 0 -0.00045256 -0.00182075 -0.00420303 -0.00763774 -0.0121213 -0.0176325 -0.0241074 -0.0314226 -0.0394313 -0.0479723 -0.0568517 -0.065818 -0.0745872 -0.0828903 -0.0905255 -0.0972965 -0.103016 -0.10753 -0.110796 -0.112715 -0.113201 -0.112369 -0.110301 -0.107035 -0.102436 -0.095602 -0.0881048 -0.0806093 -0.0737474 -0.0673215 -0.0611647 -0.0552839 -0.049739 -0.0445903 -0.0398719 -0.0355779 -0.0316644 -0.0280689 -0.0247239 -0.0215547 -0.0185045 -0.0155523 -0.0127001 -0.00995431 -0.00734716 -0.00498254 -0.00296567 -0.00139422 -0.00036737 -4.20494e-27 0 -0.000878647 -0.00343145 -0.0077478 -0.0138321 -0.0216581 -0.0311493 -0.0421582 -0.0544982 -0.0679546 -0.0822831 -0.0971937 -0.11233 -0.127305 -0.141776 -0.155445 -0.168013 -0.179194 -0.188754 -0.196571 -0.202518 -0.206417 -0.208189 -0.208095 -0.2059 -0.201652 -0.195587 -0.187452 -0.177953 -0.167999 -0.158067 -0.147876 -0.137403 -0.126767 -0.116114 -0.105558 -0.0951767 -0.0850154 -0.0751097 -0.0654977 -0.0562148 -0.0473009 -0.0388215 -0.0308648 -0.0235233 -0.016902 -0.0111648 -0.00647387 -0.00296318 -0.000762024 -8.54805e-27 0 -0.00130072 -0.00500529 -0.0111938 -0.0198562 -0.0309216 -0.0442419 -0.0596167 -0.0768017 -0.0955183 -0.115443 -0.136178 -0.157269 -0.178233 -0.198663 -0.218166 -0.236337 -0.252803 -0.267242 -0.279453 -0.289257 -0.29645 -0.30089 -0.302556 -0.301675 -0.297878 -0.291891 -0.283064 -0.272069 -0.259447 -0.246116 -0.232022 -0.217111 -0.201563 -0.18559 -0.169376 -0.153082 -0.136847 -0.120808 -0.105102 -0.0898703 -0.0752533 -0.0614049 -0.0484922 -0.0366871 -0.0261677 -0.017159 -0.00987666 -0.00448449 -0.00114552 -1.26867e-26 0 -0.00170776 -0.0065095 -0.0144919 -0.0256125 -0.0397387 -0.0566833 -0.076194 -0.0979758 -0.121692 -0.146933 -0.173189 -0.199926 -0.22657 -0.252655 -0.277695 -0.301189 -0.32268 -0.341762 -0.358163 -0.371634 -0.381932 -0.388899 -0.392311 -0.392684 -0.389495 -0.383398 -0.373829 -0.36139 -0.346495 -0.329989 -0.312206 -0.293128 -0.272945 -0.251927 -0.230331 -0.208394 -0.186349 -0.164448 -0.142916 -0.121997 -0.101928 -0.0829526 -0.0653099 -0.0492449 -0.0350059 -0.0228757 -0.0131204 -0.00593623 -0.00150996 -1.66121e-26 0 -0.00208904 -0.00792402 -0.0175887 -0.0309868 -0.0479602 -0.0682715 -0.091628 -0.117688 -0.14606 -0.176252 -0.207643 -0.239623 -0.271549 -0.302893 -0.333084 -0.361536 -0.387712 -0.41113 -0.43146 -0.448389 -0.461607 -0.470922 -0.476137 -0.477525 -0.475028 -0.468779 -0.458481 -0.444707 -0.427836 -0.408568 -0.387362 -0.364365 -0.339831 -0.314081 -0.287438 -0.260215 -0.23272 -0.205323 -0.178333 -0.152083 -0.126904 -0.103124 -0.081052 -0.0609973 -0.0432753 -0.0282237 -0.0161535 -0.00729355 -0.0018494 -2.02782e-26 0 -0.00244078 -0.00922876 -0.020417 -0.0358914 -0.0554511 -0.0788234 -0.105674 -0.135624 -0.168232 -0.202928 -0.238987 -0.275728 -0.312454 -0.348576 -0.383451 -0.416413 -0.446859 -0.474237 -0.498167 -0.518284 -0.534221 -0.545755 -0.552694 -0.554959 -0.553146 -0.546728 -0.535775 -0.520801 -0.502159 -0.48053 -0.456294 -0.429729 -0.401198 -0.371084 -0.339781 -0.307701 -0.275209 -0.242776 -0.210787 -0.179652 -0.149787 -0.121602 -0.0954707 -0.0717577 -0.0508437 -0.0331185 -0.018929 -0.00853354 -0.00215898 -2.36276e-26 0 -0.00276068 -0.0103901 -0.0229331 -0.0402452 -0.062094 -0.0881707 -0.118107 -0.15149 -0.187847 -0.226531 -0.266717 -0.307664 -0.348634 -0.388976 -0.427989 -0.464945 -0.499179 -0.530081 -0.557222 -0.580191 -0.598571 -0.612111 -0.620641 -0.623686 -0.622576 -0.616063 -0.604558 -0.588512 -0.568286 -0.544537 -0.517656 -0.487981 -0.455925 -0.421939 -0.386496 -0.350085 -0.313142 -0.276214 -0.239765 -0.204268 -0.170217 -0.138097 -0.10834 -0.0813553 -0.05759 -0.0374822 -0.0214023 -0.00963599 -0.00243415 -2.6607e-26 0 -0.00303804 -0.0113907 -0.0250951 -0.0439795 -0.067782 -0.0961624 -0.128723 -0.165031 -0.204585 -0.246677 -0.290386 -0.334918 -0.379509 -0.423445 -0.465988 -0.50636 -0.543842 -0.577776 -0.607693 -0.633143 -0.653665 -0.668973 -0.678894 -0.682789 -0.682154 -0.675662 -0.66372 -0.646771 -0.625238 -0.59968 -0.570523 -0.538176 -0.503108 -0.465821 -0.426835 -0.386702 -0.345925 -0.305116 -0.264815 -0.225547 -0.187876 -0.152351 -0.119457 -0.0896381 -0.0634059 -0.0412441 -0.0235311 -0.0105824 -0.00267059 -2.9169e-26 0 -0.00326774 -0.0122148 -0.0268683 -0.0470336 -0.0724228 -0.10267 -0.137353 -0.176023 -0.21817 -0.263035 -0.309609 -0.357052 -0.404583 -0.451434 -0.496842 -0.54 -0.58014 -0.616567 -0.648777 -0.676301 -0.698635 -0.715453 -0.726557 -0.731295 -0.730976 -0.724584 -0.712317 -0.694702 -0.672161 -0.645161 -0.614163 -0.579637 -0.542102 -0.502096 -0.460194 -0.416999 -0.373059 -0.329042 -0.285552 -0.24316 -0.202488 -0.164141 -0.128647 -0.0964744 -0.0681986 -0.0443438 -0.0252811 -0.0113591 -0.00286478 -3.1272e-26 0 -0.00344703 -0.0128485 -0.0282234 -0.0493574 -0.0759417 -0.107588 -0.143856 -0.184288 -0.228375 -0.275334 -0.324074 -0.373706 -0.423453 -0.472492 -0.520062 -0.565333 -0.607503 -0.645845 -0.679823 -0.708968 -0.732756 -0.750814 -0.762905 -0.768376 -0.768318 -0.762063 -0.749617 -0.731557 -0.708283 -0.680234 -0.647878 -0.611717 -0.572301 -0.530218 -0.486089 -0.440531 -0.394136 -0.347633 -0.301661 -0.256836 -0.213828 -0.173283 -0.135766 -0.101764 -0.0719 -0.0467324 -0.026627 -0.0119559 -0.00301375 -3.28817e-26 0 -0.00357281 -0.0132813 -0.0291379 -0.0509133 -0.0782825 -0.11084 -0.14813 -0.189689 -0.235028 -0.283366 -0.33354 -0.38461 -0.435807 -0.486282 -0.53528 -0.581962 -0.625502 -0.665163 -0.70036 -0.730635 -0.755482 -0.774483 -0.787351 -0.793421 -0.793574 -0.78752 -0.775058 -0.756774 -0.733065 -0.704368 -0.671148 -0.633926 -0.593271 -0.549796 -0.504137 -0.456937 -0.408836 -0.360605 -0.312897 -0.266365 -0.221721 -0.179634 -0.140699 -0.105426 -0.0744559 -0.0483728 -0.0275486 -0.0123635 -0.00311505 -3.39729e-26 0 -0.00364225 -0.0135018 -0.0295852 -0.0516511 -0.0793628 -0.112302 -0.15 -0.191994 -0.237829 -0.286759 -0.337571 -0.389266 -0.441079 -0.492182 -0.541812 -0.589147 -0.633365 -0.67373 -0.709608 -0.740537 -0.766072 -0.785766 -0.799274 -0.805946 -0.806349 -0.800552 -0.788231 -0.769989 -0.74619 -0.717265 -0.683685 -0.645978 -0.604721 -0.56053 -0.514052 -0.465966 -0.416934 -0.367752 -0.319081 -0.2716 -0.226047 -0.183095 -0.143362 -0.107389 -0.075819 -0.0492399 -0.0280316 -0.012575 -0.00316706 -3.45282e-26 0 -0.00365718 -0.0135237 -0.0296086 -0.0516681 -0.0793619 -0.112264 -0.14989 -0.191784 -0.237533 -0.286446 -0.337295 -0.388999 -0.440788 -0.491863 -0.541446 -0.588747 -0.632968 -0.673363 -0.709286 -0.740233 -0.765791 -0.78554 -0.799131 -0.805918 -0.8064 -0.800792 -0.788653 -0.770603 -0.746984 -0.718207 -0.684743 -0.64711 -0.605883 -0.561677 -0.515151 -0.466995 -0.417885 -0.368588 -0.319796 -0.272197 -0.22653 -0.183455 -0.143601 -0.107545 -0.07592 -0.0492939 -0.0280558 -0.0125829 -0.00316833 -3.45381e-26 0 -0.00361307 -0.0133229 -0.0291397 -0.0508199 -0.0780253 -0.11033 -0.147232 -0.188288 -0.233117 -0.281107 -0.331105 -0.381949 -0.432838 -0.483027 -0.531765 -0.578282 -0.621815 -0.661637 -0.697118 -0.727716 -0.752992 -0.772575 -0.786147 -0.793107 -0.793854 -0.788833 -0.777308 -0.759916 -0.736983 -0.7089 -0.676123 -0.639165 -0.598597 -0.555036 -0.50914 -0.461601 -0.413115 -0.364383 -0.316129 -0.269055 -0.223879 -0.181255 -0.14182 -0.106178 -0.0749353 -0.0486343 -0.0276685 -0.0124033 -0.00312134 -3.40021e-26 0 -0.00351221 -0.0129123 -0.0282134 -0.0491782 -0.0754783 -0.106698 -0.142326 -0.181914 -0.2251 -0.271366 -0.319724 -0.368963 -0.418199 -0.466738 -0.513898 -0.558929 -0.601096 -0.639718 -0.674172 -0.703916 -0.728505 -0.747584 -0.760867 -0.7678 -0.768704 -0.764114 -0.753209 -0.736595 -0.71458 -0.687539 -0.655909 -0.62019 -0.580936 -0.538749 -0.494272 -0.448184 -0.401142 -0.353816 -0.306947 -0.261222 -0.217323 -0.175902 -0.137593 -0.102993 -0.072679 -0.0471577 -0.0268207 -0.0120196 -0.00302379 -3.2929e-26 0 -0.00335594 -0.0122979 -0.0268438 -0.0467675 -0.0717577 -0.10142 -0.135248 -0.172762 -0.213635 -0.25741 -0.303313 -0.350215 -0.397085 -0.443247 -0.488106 -0.530972 -0.571146 -0.607962 -0.640821 -0.669205 -0.692686 -0.71093 -