<?xml version="1.0"?>
<VTKFile type="PolyData">
	<PolyData>
		<Piece NumberOfPoints="2601" NumberOfPolys="2500">
			<Points>
				<DataArray type="Float32" NumberOfComponents="3" format="ascii">
 0 0 0 0.02 0 0 0.04 0 0 0.06 0 0 0.08 0 0 0.1 0 0 0.12 0 0 0.14 0 0 0.16 0 0 0.18 0 0 0.2 0 0 0.22 0 0 0.24 0 0 0.26 0 0 0.28 0 0 0.3 0 0 0.32 0 0 0.34 0 0 0.36 0 0 0.38 0 0 0.4 0 0 0.42 0 0 0.44 0 0 0.46 0 0 0.48 0 0 0.5 0 0 0.52 0 0 0.54 0 0 0.56 0 0 0.58 0 0 0.6 0 0 0.62 0 0 0.64 0 0 0.66 0 0 0.68 0 0 0.7 0 0 0.72 0 0 0.74 0 0 0.76 0 0 0.78 0 0 0.8 0 0 0.82 0 0 0.84 0 0 0.86 0 0 0.88 0 0 0.9 0 0 0.92 0 0 0.94 0 0 0.96 0 0 0.98 0 0 1 0 0 0 0.02 0 0.02 0.02 0 0.04 0.02 0 0.06 0.02 0 0.08 0.02 0 0.1 0.02 0 0.12 0.02 0 0.14 0.02 0 0.16 0.02 0 0.18 0.02 0 0.2 0.02 0 0.22 0.02 0 0.24 0.02 0 0.26 0.02 0 0.28 0.02 0 0.3 0.02 0 0.32 0.02 0 0.34 0.02 0 0.36 0.02 0 0.38 0.02 0 0.4 0.02 0 0.42 0.02 0 0.44 0.02 0 0.46 0.02 0 0.48 0.02 0 0.5 0.02 0 0.52 0.02 0 0.54 0.02 0 0.56 0.02 0 0.58 0.02 0 0.6 0.02 0 0.62 0.02 0 0.64 0.02 0 0.66 0.02 0 0.68 0.02 0 0.7 0.02 0 0.72 0.02 0 0.74 0.02 0 0.76 0.02 0 0.78 0.02 0 0.8 0.02 0 0.82 0.02 0 0.84 0.02 0 0.86 0.02 0 0.88 0.02 0 0.9 0.02 0 0.92 0.02 0 0.94 0.02 0 0.96 0.02 0 0.98 0.02 0 1 0.02 0 0 0.04 0 0.02 0.04 0 0.04 0.04 0 0.06 0.04 0 0.08 0.04 0 0.1 0.04 0 0.12 0.04 0 0.14 0.04 0 0.16 0.04 0 0.18 0.04 0 0.2 0.04 0 0.22 0.04 0 0.24 0.04 0 0.26 0.04 0 0.28 0.04 0 0.3 0.04 0 0.32 0.04 0 0.34 0.04 0 0.36 0.04 0 0.38 0.04 0 0.4 0.04 0 0.42 0.04 0 0.44 0.04 0 0.46 0.04 0 0.48 0.04 0 0.5 0.04 0 0.52 0.04 0 0.54 0.04 0 0.56 0.04 0 0.58 0.04 0 0.6 0.04 0 0.62 0.04 0 0.64 0.04 0 0.66 0.04 0 0.68 0.04 0 0.7 0.04 0 0.72 0.04 0 0.74 0.04 0 0.76 0.04 0 0.78 0.04 0 0.8 0.04 0 0.82 0.04 0 0.84 0.04 0 0.86 0.04 0 0.88 0.04 0 0.9 0.04 0 0.92 0.04 0 0.94 0.04 0 0.96 0.04 0 0.98 0.04 0 1 0.04 0 0 0.06 0 0.02 0.06 0 0.04 0.06 0 0.06 0.06 0 0.08 0.06 0 0.1 0.06 0 0.12 0.06 0 0.14 0.06 0 0.16 0.06 0 0.18 0.06 0 0.2 0.06 0 0.22 0.06 0 0.24 0.06 0 0.26 0.06 0 0.28 0.06 0 0.3 0.06 0 0.32 0.06 0 0.34 0.06 0 0.36 0.06 0 0.38 0.06 0 0.4 0.06 0 0.42 0.06 0 0.44 0.06 0 0.46 0.06 0 0.48 0.06 0 0.5 0.06 0 0.52 0.06 0 0.54 0.06 0 0.56 0.06 0 0.58 0.06 0 0.6 0.06 0 0.62 0.06 0 0.64 0.06 0 0.66 0.06 0 0.68 0.06 0 0.7 0.06 0 0.72 0.06 0 0.74 0.06 0 0.76 0.06 0 0.78 0.06 0 0.8 0.06 0 0.82 0.06 0 0.84 0.06 0 0.86 0.06 0 0.88 0.06 0 0.9 0.06 0 0.92 0.06 0 0.94 0.06 0 0.96 0.06 0 0.98 0.06 0 1 0.06 0 0 0.08 0 0.02 0.08 0 0.04 0.08 0 0.06 0.08 0 0.08 0.08 0 0.1 0.08 0 0.12 0.08 0 0.14 0.08 0 0.16 0.08 0 0.18 0.08 0 0.2 0.08 0 0.22 0.08 0 0.24 0.08 0 0.26 0.08 0 0.28 0.08 0 0.3 0.08 0 0.32 0.08 0 0.34 0.08 0 0.36 0.08 0 0.38 0.08 0 0.4 0.08 0 0.42 0.08 0 0.44 0.08 0 0.46 0.08 0 0.48 0.08 0 0.5 0.08 0 0.52 0.08 0 0.54 0.08 0 0.56 0.08 0 0.58 0.08 0 0.6 0.08 0 0.62 0.08 0 0.64 0.08 0 0.66 0.08 0 0.68 0.08 0 0.7 0.08 0 0.72 0.08 0 0.74 0.08 0 0.76 0.08 0 0.78 0.08 0 0.8 0.08 0 0.82 0.08 0 0.84 0.08 0 0.86 0.08 0 0.88 0.08 0 0.9 0.08 0 0.92 0.08 0 0.94 0.08 0 0.96 0.08 0 0.98 0.08 0 1 0.08 0 0 0.1 0 0.02 0.1 0 0.04 0.1 0 0.06 0.1 0 0.08 0.1 0 0.1 0.1 0 0.12 0.1 0 0.14 0.1 0 0.16 0.1 0 0.18 0.1 0 0.2 0.1 0 0.22 0.1 0 0.24 0.1 0 0.26 0.1 0 0.28 0.1 0 0.3 0.1 0 0.32 0.1 0 0.34 0.1 0 0.36 0.1 0 0.38 0.1 0 0.4 0.1 0 0.42 0.1 0 0.44 0.1 0 0.46 0.1 0 0.48 0.1 0 0.5 0.1 0 0.52 0.1 0 0.54 0.1 0 0.56 0.1 0 0.58 0.1 0 0.6 0.1 0 0.62 0.1 0 0.64 0.1 0 0.66 0.1 0 0.68 0.1 0 0.7 0.1 0 0.72 0.1 0 0.74 0.1 0 0.76 0.1 0 0.78 0.1 0 0.8 0.1 0 0.82 0.1 0 0.84 0.1 0 0.86 0.1 0 0.88 0.1 0 0.9 0.1 0 0.92 0.1 0 0.94 0.1 0 0.96 0.1 0 0.98 0.1 0 1 0.1 0 0 0.12 0 0.02 0.12 0 0.04 0.12 0 0.06 0.12 0 0.08 0.12 0 0.1 0.12 0 0.12 0.12 0 0.14 0.12 0 0.16 0.12 0 0.18 0.12 0 0.2 0.12 0 0.22 0.12 0 0.24 0.12 0 0.26 0.12 0 0.28 0.12 0 0.3 0.12 0 0.32 0.12 0 0.34 0.12 0 0.36 0.12 0 0.38 0.12 0 0.4 0.12 0 0.42 0.12 0 0.44 0.12 0 0.46 0.12 0 0.48 0.12 0 0.5 0.12 0 0.52 0.12 0 0.54 0.12 0 0.56 0.12 0 0.58 0.12 0 0.6 0.12 0 0.62 0.12 0 0.64 0.12 0 0.66 0.12 0 0.68 0.12 0 0.7 0.12 0 0.72 0.12 0 0.74 0.12 0 0.76 0.12 0 0.78 0.12 0 0.8 0.12 0 0.82 0.12 0 0.84 0.12 0 0.86 0.12 0 0.88 0.12 0 0.9 0.12 0 0.92 0.12 0 0.94 0.12 0 0.96 0.12 0 0.98 0.12 0 1 0.12 0 0 0.14 0 0.02 0.14 0 0.04 0.14 0 0.06 0.14 0 0.08 0.14 0 0.1 0.14 0 0.12 0.14 0 0.14 0.14 0 0.16 0.14 0 0.18 0.14 0 0.2 0.14 0 0.22 0.14 0 0.24 0.14 0 0.26 0.14 0 0.28 0.14 0 0.3 0.14 0 0.32 0.14 0 0.34 0.14 0 0.36 0.14 0 0.38 0.14 0 0.4 0.14 0 0.42 0.14 0 0.44 0.14 0 0.46 0.14 0 0.48 0.14 0 0.5 0.14 0 0.52 0.14 0 0.54 0.14 0 0.56 0.14 0 0.58 0.14 0 0.6 0.14 0 0.62 0.14 0 0.64 0.14 0 0.66 0.14 0 0.68 0.14 0 0.7 0.14 0 0.72 0.14 0 0.74 0.14 0 0.76 0.14 0 0.78 0.14 0 0.8 0.14 0 0.82 0.14 0 0.84 0.14 0 0.86 0.14 0 0.88 0.14 0 0.9 0.14 0 0.92 0.14 0 0.94 0.14 0 0.96 0.14 0 0.98 0.14 0 1 0.14 0 0 0.16 0 0.02 0.16 0 0.04 0.16 0 0.06 0.16 0 0.08 0.16 0 0.1 0.16 0 0.12 0.16 0 0.14 0.16 0 0.16 0.16 0 0.18 0.16 0 0.2 0.16 0 0.22 0.16 0 0.24 0.16 0 0.26 0.16 0 0.28 0.16 0 0.3 0.16 0 0.32 0.16 0 0.34 0.16 0 0.36 0.16 0 0.38 0.16 0 0.4 0.16 0 0.42 0.16 0 0.44 0.16 0 0.46 0.16 0 0.48 0.16 0 0.5 0.16 0 0.52 0.16 0 0.54 0.16 0 0.56 0.16 0 0.58 0.16 0 0.6 0.16 0 0.62 0.16 0 0.64 0.16 0 0.66 0.16 0 0.68 0.16 0 0.7 0.16 0 0.72 0.16 0 0.74 0.16 0 0.76 0.16 0 0.78 0.16 0 0.8 0.16 0 0.82 0.16 0 0.84 0.16 0 0.86 0.16 0 0.88 0.16 0 0.9 0.16 0 0.92 0.16 0 0.94 0.16 0 0.96 0.16 0 0.98 0.16 0 1 0.16 0 0 0.18 0 0.02 0.18 0 0.04 0.18 0 0.06 0.18 0 0.08 0.18 0 0.1 0.18 0 0.12 0.18 0 0.14 0.18 0 0.16 0.18 0 0.18 0.18 0 0.2 0.18 0 0.22 0.18 0 0.24 0.18 0 0.26 0.18 0 0.28 0.18 0 0.3 0.18 0 0.32 0.18 0 0.34 0.18 0 0.36 0.18 0 0.38 0.18 0 0.4 0.18 0 0.42 0.18 0 0.44 0.18 0 0.46 0.18 0 0.48 0.18 0 0.5 0.18 0 0.52 0.18 0 0.54 0.18 0 0.56 0.18 0 0.58 0.18 0 0.6 0.18 0 0.62 0.18 0 0.64 0.18 0 0.66 0.18 0 0.68 0.18 0 0.7 0.18 0 0.72 0.18 0 0.74 0.18 0 0.76 0.18 0 0.78 0.18 0 0.8 0.18 0 0.82 0.18 0 0.84 0.18 0 0.86 0.18 0 0.88 0.18 0 0.9 0.18 0 0.92 0.18 0 0.94 0.18 0 0.96 0.18 0 0.98 0.18 0 1 0.18 0 0 0.2 0 0.02 0.2 0 0.04 0.2 0 0.06 0.2 0 0.08 0.2 0 0.1 0.2 0 0.12 0.2 0 0.14 0.2 0 0.16 0.2 0 0.18 0.2 0 0.2 0.2 0 0.22 0.2 0 0.24 0.2 0 0.26 0.2 0 0.28 0.2 0 0.3 0.2 0 0.32 0.2 0 0.34 0.2 0 0.36 0.2 0 0.38 0.2 0 0.4 0.2 0 0.42 0.2 0 0.44 0.2 0 0.46 0.2 0 0.48 0.2 0 0.5 0.2 0 0.52 0.2 0 0.54 0.2 0 0.56 0.2 0 0.58 0.2 0 0.6 0.2 0 0.62 0.2 0 0.64 0.2 0 0.66 0.2 0 0.68 0.2 0 0.7 0.2 0 0.72 0.2 0 0.74 0.2 0 0.76 0.2 0 0.78 0.2 0 0.8 0.2 0 0.82 0.2 0 0.84 0.2 0 0.86 0.2 0 0.88 0.2 0 0.9 0.2 0 0.92 0.2 0 0.94 0.2 0 0.96 0.2 0 0.98 0.2 0 1 0.2 0 0 0.22 0 0.02 0.22 0 0.04 0.22 0 0.06 0.22 0 0.08 0.22 0 0.1 0.22 0 0.12 0.22 0 0.14 0.22 0 0.16 0.22 0 0.18 0.22 0 0.2 0.22 0 0.22 0.22 0 0.24 0.22 0 0.26 0.22 0 0.28 0.22 0 0.3 0.22 0 0.32 0.22 0 0.34 0.22 0 0.36 0.22 0 0.38 0.22 0 0.4 0.22 0 0.42 0.22 0 0.44 0.22 0 0.46 0.22 0 0.48 0.22 0 0.5 0.22 0 0.52 0.22 0 0.54 0.22 0 0.56 0.22 0 0.58 0.22 0 0.6 0.22 0 0.62 0.22 0 0.64 0.22 0 0.66 0.22 0 0.68 0.22 0 0.7 0.22 0 0.72 0.22 0 0.74 0.22 0 0.76 0.22 0 0.78 0.22 0 0.8 0.22 0 0.82 0.22 0 0.84 0.22 0 0.86 0.22 0 0.88 0.22 0 0.9 0.22 0 0.92 0.22 0 0.94 0.22 0 0.96 0.22 0 0.98 0.22 0 1 0.22 0 0 0.24 0 0.02 0.24 0 0.04 0.24 0 0.06 0.24 0 0.08 0.24 0 0.1 0.24 0 0.12 0.24 0 0.14 0.24 0 0.16 0.24 0 0.18 0.24 0 0.2 0.24 0 0.22 0.24 0 0.24 0.24 0 0.26 0.24 0 0.28 0.24 0 0.3 0.24 0 0.32 0.24 0 0.34 0.24 0 0.36 0.24 0 0.38 0.24 0 0.4 0.24 0 0.42 0.24 0 0.44 0.24 0 0.46 0.24 0 0.48 0.24 0 0.5 0.24 0 0.52 0.24 0 0.54 0.24 0 0.56 0.24 0 0.58 0.24 0 0.6 0.24 0 0.62 0.24 0 0.64 0.24 0 0.66 0.24 0 0.68 0.24 0 0.7 0.24 0 0.72 0.24 0 0.74 0.24 0 0.76 0.24 0 0.78 0.24 0 0.8 0.24 0 0.82 0.24 0 0.84 0.24 0 0.86 0.24 0 0.88 0.24 0 0.9 0.24 0 0.92 0.24 0 0.94 0.24 0 0.96 0.24 0 0.98 0.24 0 1 0.24 0 0 0.26 0 0.02 0.26 0 0.04 0.26 0 0.06 0.26 0 0.08 0.26 0 0.1 0.26 0 0.12 0.26 0 0.14 0.26 0 0.16 0.26 0 0.18 0.26 0 0.2 0.26 0 0.22 0.26 0 0.24 0.26 0 0.26 0.26 0 0.28 0.26 0 0.3 0.26 0 0.32 0.26 0 0.34 0.26 0 0.36 0.26 0 0.38 0.26 0 0.4 0.26 0 0.42 0.26 0 0.44 0.26 0 0.46 0.26 0 0.48 0.26 0 0.5 0.26 0 0.52 0.26 0 0.54 0.26 0 0.56 0.26 0 0.58 0.26 0 0.6 0.26 0 0.62 0.26 0 0.64 0.26 0 0.66 0.26 0 0.68 0.26 0 0.7 0.26 0 0.72 0.26 0 0.74 0.26 0 0.76 0.26 0 0.78 0.26 0 0.8 0.26 0 0.82 0.26 0 0.84 0.26 0 0.86 0.26 0 0.88 0.26 0 0.9 0.26 0 0.92 0.26 0 0.94 0.26 0 0.96 0.26 0 0.98 0.26 0 1 0.26 0 0 0.28 0 0.02 0.28 0 0.04 0.28 0 0.06 0.28 0 0.08 0.28 0 0.1 0.28 0 0.12 0.28 0 0.14 0.28 0 0.16 0.28 0 0.18 0.28 0 0.2 0.28 0 0.22 0.28 0 0.24 0.28 0 0.26 0.28 0 0.28 0.28 0 0.3 0.28 0 0.32 0.28 0 0.34 0.28 0 0.36 0.28 0 0.38 0.28 0 0.4 0.28 0 0.42 0.28 0 0.44 0.28 0 0.46 0.28 0 0.48 0.28 0 0.5 0.28 0 0.52 0.28 0 0.54 0.28 0 0.56 0.28 0 0.58 0.28 0 0.6 0.28 0 0.62 0.28 0 0.64 0.28 0 0.66 0.28 0 0.68 0.28 0 0.7 0.28 0 0.72 0.28 0 0.74 0.28 0 0.76 0.28 0 0.78 0.28 0 0.8 0.28 0 0.82 0.28 0 0.84 0.28 0 0.86 0.28 0 0.88 0.28 0 0.9 0.28 0 0.92 0.28 0 0.94 0.28 0 0.96 0.28 0 0.98 0.28 0 1 0.28 0 0 0.3 0 0.02 0.3 0 0.04 0.3 0 0.06 0.3 0 0.08 0.3 0 0.1 0.3 0 0.12 0.3 0 0.14 0.3 0 0.16 0.3 0 0.18 0.3 0 0.2 0.3 0 0.22 0.3 0 0.24 0.3 0 0.26 0.3 0 0.28 0.3 0 0.3 0.3 0 0.32 0.3 0 0.34 0.3 0 0.36 0.3 0 0.38 0.3 0 0.4 0.3 0 0.42 0.3 0 0.44 0.3 0 0.46 0.3 0 0.48 0.3 0 0.5 0.3 0 0.52 0.3 0 0.54 0.3 0 0.56 0.3 0 0.58 0.3 0 0.6 0.3 0 0.62 0.3 0 0.64 0.3 0 0.66 0.3 0 0.68 0.3 0 0.7 0.3 0 0.72 0.3 0 0.74 0.3 0 0.76 0.3 0 0.78 0.3 0 0.8 0.3 0 0.82 0.3 0 0.84 0.3 0 0.86 0.3 0 0.88 0.3 0 0.9 0.3 0 0.92 0.3 0 0.94 0.3 0 0.96 0.3 0 0.98 0.3 0 1 0.3 0 0 0.32 0 0.02 0.32 0 0.04 0.32 0 0.06 0.32 0 0.08 0.32 0 0.1 0.32 0 0.12 0.32 0 0.14 0.32 0 0.16 0.32 0 0.18 0.32 0 0.2 0.32 0 0.22 0.32 0 0.24 0.32 0 0.26 0.32 0 0.28 0.32 0 0.3 0.32 0 0.32 0.32 0 0.34 0.32 0 0.36 0.32 0 0.38 0.32 0 0.4 0.32 0 0.42 0.32 0 0.44 0.32 0 0.46 0.32 0 0.48 0.32 0 0.5 0.32 0 0.52 0.32 0 0.54 0.32 0 0.56 0.32 0 0.58 0.32 0 0.6 0.32 0 0.62 0.32 0 0.64 0.32 0 0.66 0.32 0 0.68 0.32 0 0.7 0.32 0 0.72 0.32 0 0.74 0.32 0 0.76 0.32 0 0.78 0.32 0 0.8 0.32 0 0.82 0.32 0 0.84 0.32 0 0.86 0.32 0 0.88 0.32 0 0.9 0.32 0 0.92 0.32 0 0.94 0.
[...]
			<PointData Scalars="VitesseX">
				<DataArray Name="VitesseX" type="Float32" format="ascii">
 0 0 0 0 0 0 0 0 0 0 0 0 0 0 0 0 0 0 0 0 0 0 0 0 0 0 0 0 0 0 0 0 0 0 0 0 0 0 0 0 0 0 0 0 0 0 0 0 0 0 -0 0 -0.000766942 -0.00218876 -0.00436857 -0.0072724 -0.0108551 -0.0150612 -0.0198257 -0.0250755 -0.0307298 -0.0367011 -0.0428964 -0.0492303 -0.0556025 -0.0619022 -0.0680325 -0.0738978 -0.0794046 -0.0844639 -0.0889946 -0.0929264 -0.0961756 -0.0987646 -0.100641 -0.101674 -0.106308 -0.109482 -0.109781 -0.108413 -0.105787 -0.102318 -0.0981884 -0.0932433 -0.0876407 -0.0816165 -0.0751505 -0.0683624 -0.0613744 -0.0543027 -0.0472607 -0.0403493 -0.033621 -0.0270308 -0.0213268 -0.0159662 -0.0112945 -0.00740145 -0.00425203 -0.00193115 -0.000492692 -6.42085e-27 0 -0.00149845 -0.00430685 -0.00862359 -0.014383 -0.0214967 -0.029855 -0.0393283 -0.0497684 -0.0610109 -0.0728773 -0.0851796 -0.0977467 -0.110379 -0.122858 -0.134996 -0.146606 -0.157425 -0.167421 -0.176405 -0.184319 -0.190909 -0.196059 -0.199732 -0.201744 -0.204797 -0.206882 -0.206174 -0.203065 -0.198086 -0.191533 -0.183578 -0.174222 -0.163688 -0.152274 -0.140066 -0.127283 -0.114135 -0.100844 -0.0876271 -0.0746933 -0.0622517 -0.0504924 -0.03954 -0.0296014 -0.0207437 -0.0135383 -0.00773227 -0.00348796 -0.000883438 -1.05975e-26 0 -0.00218848 -0.006327 -0.0126975 -0.0212009 -0.0317053 -0.0440483 -0.0580399 -0.0734648 -0.0900851 -0.107642 -0.12586 -0.144472 -0.163195 -0.181609 -0.199749 -0.217276 -0.233393 -0.248133 -0.261449 -0.273035 -0.282699 -0.290289 -0.295692 -0.298637 -0.300964 -0.301934 -0.299894 -0.294935 -0.287468 -0.27775 -0.265986 -0.252293 -0.23694 -0.220274 -0.202511 -0.18394 -0.164857 -0.145584 -0.12643 -0.107694 -0.0896756 -0.0726663 -0.0569357 -0.0426821 -0.0299325 -0.0194585 -0.01109 -0.00498932 -0.00126026 -1.46116e-26 0 -0.00279146 -0.00815097 -0.0164301 -0.0275052 -0.0412104 -0.0573389 -0.075645 -0.0958427 -0.117623 -0.140652 -0.164355 -0.188808 -0.213723 -0.238135 -0.261733 -0.284289 -0.305462 -0.324919 -0.342357 -0.357503 -0.370119 -0.380009 -0.387027 -0.390826 -0.392782 -0.392745 -0.389274 -0.382388 -0.372397 -0.359563 -0.344094 -0.326204 -0.306238 -0.284565 -0.261522 -0.237462 -0.212763 -0.187836 -0.163079 -0.138868 -0.115588 -0.0936113 -0.0732913 -0.0549405 -0.0387293 -0.0250398 -0.0142726 -0.00641199 -0.00161734 -1.84012e-26 0 -0.00330549 -0.00978267 -0.0198307 -0.0333019 -0.0499982 -0.0696688 -0.0920238 -0.116742 -0.142921 -0.171208 -0.20119 -0.23116 -0.261153 -0.290783 -0.319601 -0.347155 -0.373009 -0.396755 -0.41802 -0.436469 -0.451815 -0.463821 -0.472307 -0.476863 -0.478606 -0.477648 -0.472754 -0.463944 -0.451478 -0.435635 -0.416659 -0.394821 -0.37051 -0.344163 -0.3162 -0.287038 -0.257126 -0.226959 -0.197014 -0.167739 -0.139593 -0.113022 -0.0884508 -0.0662705 -0.0468127 -0.0302892 -0.0172339 -0.00773395 -0.00194915 -2.19076e-26 0 -0.00373394 -0.0112164 -0.022878 -0.0385377 -0.0579632 -0.0809651 -0.106776 -0.135672 -0.167688 -0.200623 -0.234654 -0.269435 -0.304417 -0.338987 -0.372603 -0.404731 -0.434862 -0.462517 -0.48726 -0.508701 -0.526508 -0.540407 -0.550192 -0.555397 -0.556987 -0.555194 -0.548924 -0.538256 -0.52344 -0.504788 -0.482563 -0.457081 -0.428785 -0.398169 -0.365723 -0.331922 -0.297279 -0.262364 -0.227725 -0.19387 -0.161326 -0.130601 -0.102186 -0.0765362 -0.0540534 -0.0350664 -0.0199081 -0.00893477 -0.00225054 -2.50765e-26 0 -0.00410513 -0.0124751 -0.0255357 -0.0431103 -0.0651453 -0.0915152 -0.121501 -0.153973 -0.18899 -0.225969 -0.264346 -0.303581 -0.343039 -0.382022 -0.419918 -0.45612 -0.49005 -0.521169 -0.548984 -0.573057 -0.593016 -0.608557 -0.619453 -0.625191 -0.626645 -0.624092 -0.61653 -0.604134 -0.587165 -0.565954 -0.54079 -0.512037 -0.480187 -0.445772 -0.409348 -0.371443 -0.332622 -0.293522 -0.254751 -0.21687 -0.180459 -0.146084 -0.114288 -0.0855837 -0.0604297 -0.0392237 -0.0222803 -0.00999577 -0.00251682 -2.78589e-26 0 -0.00440605 -0.0135251 -0.0278716 -0.047427 -0.0719686 -0.100779 -0.133143 -0.168792 -0.207225 -0.247839 -0.289993 -0.333085 -0.376412 -0.419206 -0.46079 -0.500496 -0.537687 -0.571769 -0.602201 -0.628506 -0.650279 -0.667191 -0.678997 -0.68515 -0.686466 -0.683228 -0.674493 -0.660549 -0.641666 -0.618191 -0.590454 -0.558863 -0.523944 -0.486261 -0.446426 -0.405012 -0.36263 -0.319969 -0.277688 -0.236391 -0.196703 -0.159235 -0.124572 -0.0932758 -0.0658517 -0.0427397 -0.0243362 -0.0109028 -0.00274384 -3.02123e-26 0 -0.00462217 -0.0144151 -0.0299873 -0.0511695 -0.077382 -0.108015 -0.142707 -0.180992 -0.222274 -0.265902 -0.311183 -0.357466 -0.403991 -0.449929 -0.49455 -0.537134 -0.576995 -0.613494 -0.646052 -0.674159 -0.697384 -0.715378 -0.727885 -0.734332 -0.735499 -0.731655 -0.721899 -0.706623 -0.686111 -0.660718 -0.630814 -0.596855 -0.559402 -0.519036 -0.476401 -0.432129 -0.386853 -0.341308 -0.296192 -0.25214 -0.209813 -0.169854 -0.132883 -0.0994952 -0.0702373 -0.0455828 -0.0259595 -0.0116311 -0.00292805 -3.2101e-26 0 -0.00478286 -0.0150131 -0.0314305 -0.0538348 -0.081356 -0.113536 -0.150069 -0.1904 -0.233892 -0.279857 -0.327563 -0.376318 -0.425316 -0.473681 -0.52064 -0.565433 -0.607335 -0.645673 -0.679837 -0.709292 -0.733589 -0.752365 -0.765353 -0.771969 -0.772971 -0.76861 -0.758014 -0.74165 -0.719821 -0.692896 -0.661275 -0.625449 -0.586025 -0.543608 -0.498825 -0.452379 -0.404928 -0.357218 -0.309982 -0.263877 -0.219588 -0.177779 -0.139091 -0.104146 -0.0735194 -0.0477114 -0.027148 -0.0121723 -0.00306655 -3.34966e-26 0 -0.00490105 -0.0152665 -0.0322223 -0.0557115 -0.0840153 -0.117297 -0.155107 -0.196855 -0.241882 -0.289471 -0.33886 -0.389329 -0.440037 -0.490076 -0.538642 -0.584944 -0.628231 -0.667804 -0.703033 -0.733369 -0.758344 -0.777587 -0.790827 -0.797478 -0.798286 -0.793466 -0.782172 -0.764947 -0.74211 -0.714044 -0.681196 -0.644098 -0.60335 -0.559563 -0.513367 -0.465469 -0.416572 -0.36745 -0.318844 -0.27142 -0.225876 -0.182886 -0.143101 -0.107157 -0.0756472 -0.0490932 -0.0279334 -0.01253 -0.0031572 -3.43786e-26 0 -0.0049402 -0.0157381 -0.0331314 -0.0566111 -0.0853453 -0.119215 -0.157709 -0.200222 -0.24608 -0.294551 -0.344855 -0.396254 -0.447886 -0.498824 -0.548245 -0.59534 -0.63934 -0.67953 -0.715266 -0.745986 -0.771225 -0.790609 -0.803873 -0.810446 -0.811051 -0.805662 -0.793695 -0.775746 -0.752145 -0.723296 -0.689672 -0.65182 -0.610328 -0.565823 -0.518963 -0.470417 -0.420885 -0.371177 -0.322029 -0.27411 -0.228111 -0.184701 -0.144532 -0.108236 -0.0764112 -0.0495877 -0.0282135 -0.0126675 -0.00319084 -3.47341e-26 0 -0.00501715 -0.0159667 -0.0333013 -0.0565265 -0.0852404 -0.119108 -0.157608 -0.200133 -0.246009 -0.294505 -0.344839 -0.39627 -0.447935 -0.498904 -0.548354 -0.595471 -0.639485 -0.679679 -0.715411 -0.746114 -0.77133 -0.790697 -0.803946 -0.810504 -0.811076 -0.805512 -0.793347 -0.775202 -0.751408 -0.722379 -0.6886 -0.650625 -0.609051 -0.564514 -0.517671 -0.469189 -0.419727 -0.370073 -0.321013 -0.273227 -0.227377 -0.184118 -0.144088 -0.107914 -0.0761894 -0.049446 -0.0281337 -0.0126191 -0.00318142 -3.45581e-26 0 -0.0048108 -0.0156036 -0.0328086 -0.05563 -0.0839515 -0.117383 -0.155406 -0.197421 -0.24276 -0.290695 -0.340449 -0.391282 -0.442332 -0.492675 -0.541491 -0.587969 -0.631342 -0.670898 -0.705968 -0.73604 -0.760664 -0.779463 -0.792164 -0.798216 -0.798319 -0.792519 -0.780224 -0.762063 -0.738374 -0.709569 -0.676134 -0.638619 -0.597612 -0.553746 -0.507683 -0.460087 -0.411581 -0.362874 -0.314713 -0.267814 -0.222882 -0.180499 -0.141281 -0.105835 -0.0747375 -0.0485129 -0.0276073 -0.0123832 -0.00312369 -3.38537e-26 0 -0.00461517 -0.0150961 -0.0317451 -0.0538477 -0.0813288 -0.113791 -0.150731 -0.191566 -0.235643 -0.28225 -0.330626 -0.380043 -0.429656 -0.478562 -0.525956 -0.571048 -0.61308 -0.651318 -0.68518 -0.714179 -0.737851 -0.755812 -0.767794 -0.773292 -0.772984 -0.767034 -0.754799 -0.736908 -0.71369 -0.685548 -0.652972 -0.616505 -0.576711 -0.534197 -0.489603 -0.443599 -0.396808 -0.349878 -0.303442 -0.258177 -0.214836 -0.174008 -0.136228 -0.102078 -0.0721052 -0.046817 -0.0266487 -0.0119557 -0.00301736 -3.26317e-26 0 -0.0044364 -0.0144192 -0.030174 -0.0512268 -0.0774438 -0.108439 -0.143733 -0.182767 -0.224914 -0.269486 -0.315751 -0.363001 -0.410421 -0.457141 -0.502387 -0.54538 -0.585368 -0.621702 -0.653878 -0.681365 -0.703676 -0.720452 -0.731461 -0.736266 -0.735506 -0.729459 -0.717439 -0.700062 -0.67765 -0.650591 -0.619378 -0.58455 -0.546638 -0.50619 -0.463772 -0.420047 -0.375646 -0.331215 -0.287318 -0.244464 -0.203373 -0.164742 -0.129006 -0.0966974 -0.0683312 -0.0443833 -0.0252719 -0.0113413 -0.00286238 -3.09106e-26 0 -0.00418213 -0.0134814 -0.028119 -0.0478046 -0.072357 -0.101413 -0.134525 -0.171168 -0.210748 -0.252614 -0.296069 -0.340437 -0.384937 -0.428744 -0.471121 -0.511338 -0.548669 -0.582617 -0.612628 -0.638126 -0.658648 -0.673902 -0.683728 -0.687729 -0.686502 -0.680359 -0.66869 -0.652062 -0.630789 -0.605239 -0.575886 -0.54324 -0.507797 -0.470057 -0.430565 -0.389849 -0.348496 -0.3072 -0.266519 -0.226841 -0.188723 -0.152844 -0.119725 -0.0897754 -0.0634718 -0.041248 -0.0234977 -0.0105493 -0.00266105 -2.87172e-26 0 -0.00384702 -0.0123135 -0.0256206 -0.0436165 -0.0661113 -0.0927807 -0.123209 -0.15691 -0.193331 -0.231863 -0.271854 -0.312665 -0.353565 -0.393788 -0.432646 -0.469484 -0.503684 -0.534749 -0.562067 -0.585064 -0.603395 -0.61688 -0.625344 -0.628423 -0.626722 -0.620512 -0.609384 -0.593784 -0.574001 -0.550378 -0.523356 -0.493382 -0.460892 -0.426387 -0.390423 -0.353423 -0.315822 -0.27827 -0.241379 -0.205513 -0.17103 -0.138508 -0.108527 -0.0814173 -0.0576008 -0.0374585 -0.0213529 -0.00959188 -0.00241838 -2.60877e-26 0 -0.00342128 -0.0109357 -0.0227545 -0.0388062 -0.0589127 -0.0827903 -0.110071 -0.140317 -0.173026 -0.207642 -0.243565 -0.280204 -0.316893 -0.352942 -0.387728 -0.420644 -0.451199 -0.478814 -0.502878 -0.522941 -0.538809 -0.550329 -0.557262 -0.559307 -0.5571 -0.550864 -0.540431 -0.526089 -0.508098 -0.486768 -0.462502 -0.435687 -0.406707 -0.376002 -0.344026 -0.311273 -0.278081 -0.244909 -0.212348 -0.180818 -0.150562 -0.121983 -0.0955866 -0.0717522 -0.0508084 -0.0330727 -0.0188701 -0.00848353 -0.00214013 -2.30621e-26 0 -0.00291657 -0.00937693 -0.0195564 -0.0334523 -0.0509007 -0.0716542 -0.0954049 -0.121769 -0.150302 -0.180505 -0.21184 -0.243772 -0.275709 -0.307038 -0.337204 -0.365645 -0.39196 -0.415565 -0.435927 -0.452763 -0.465984 -0.475362 -0.48062 -0.481535 -0.478841 -0.472505 -0.462905 -0.45002 -0.434089 -0.415378 -0.394244 -0.371007 -0.345989 -0.319567 -0.292133 -0.264081 -0.235804 -0.207595 -0.179901 -0.153168 -0.127617 -0.103468 -0.0811066 -0.0609313 -0.0431999 -0.0281581 -0.0160875 -0.00724127 -0.00182849 -1.96677e-26 0 -0.00235901 -0.00768109 -0.0160665 -0.0275828 -0.0421113 -0.0594522 -0.079346 -0.101466 -0.125426 -0.150792 -0.177091 -0.20385 -0.230553 -0.256668 -0.281711 -0.305181 -0.326755 -0.345945 -0.362301 -0.375696 -0.386105 -0.39316 -0.3966 -0.396324 -0.393202 -0.386671 -0.378021 -0.366761 -0.353113 -0.337291 -0.319609 -0.300304 -0.279638 -0.257913 -0.235453 -0.21259 -0.189636 -0.166858 -0.144527 -0.123016 -0.102552 -0.0832395 -0.0653195 -0.049125 -0.0348939 -0.0227908 -0.0130479 -0.00588423 -0.00148811 -1.59179e-26 0 -0.00176865 -0.0058843 -0.012386 -0.0213595 -0.032752 -0.0464179 -0.0621506 -0.0796872 -0.0987109 -0.118859 -0.139727 -0.160908 -0.181968 -0.202464 -0.221998 -0.240134 -0.256627 -0.271092 -0.283196 -0.292977 -0.300348 -0.304883 -0.306476 -0.305049 -0.301632 -0.294717 -0.287119 -0.277615 -0.266419 -0.253693 -0.23971 -0.224622 -0.208621 -0.191934 -0.174808 -0.157503 -0.14026 -0.123305 -0.106747 -0.0908326 -0.0757782 -0.0616272 -0.0484598 -0.0365204 -0.0260209 -0.0170544 -0.00979839 -0.00443334 -0.00112426 -1.18936e-26 0 -0.00117107 -0.00402321 -0.00860258 -0.0149499 -0.0230714 -0.0328779 -0.0442283 -0.056927 -0.0707312 -0.0853564 -0.100474 -0.115749 -0.130837 -0.145388 -0.159094 -0.171591 -0.182717 -0.192209 -0.199869 -0.205818 -0.209895 -0.211775 -0.211565 -0.209132 -0.205788 -0.198094 -0.191627 -0.183969 -0.175336 -0.165848 -0.155733 -0.14506 -0.133953 -0.122561 -0.111054 -0.0996125 -0.0883964 -0.0775556 -0.0671038 -0.0571 -0.0477217 -0.038967 -0.0307843 -0.0233156 -0.0167204 -0.0110386 -0.00638955 -0.00291119 -0.000742657 -7.73541e-27 0 -0.00060448 -0.00217173 -0.00478006 -0.00846239 -0.0132443 -0.0190948 -0.0259356 -0.0336337 -0.0420258 -0.050908 -0.0600407 -0.0691719 -0.0780484 -0.0864134 -0.0940561 -0.100692 -0.106227 -0.110566 -0.11361 -0.115461 -0.116046 -0.115232 -0.11318 -0.109918 -0.107302 -0.0981175 -0.0928226 -0.0871309 -0.0811826 -0.0750597 -0.0688931 -0.0627383 -0.0566593 -0.0507358 -0.0450622 -0.0397269 -0.0347896 -0.0302818 -0.0261701 -0.0223335 -0.018827 -0.0156166 -0.0125709 -0.00970758 -0.00713522 -0.00483647 -0.00287319 -0.00134022 -0.000348534 -3.45523e-27 0 -0.000102985 -0.000444365 -0.00106717 -0.00207471 -0.00346898 -0.00528396 -0.0075056 -0.0100942 -0.012953 -0.0159609 -0.0189736 -0.0218309 -0.0243714 -0.0264353 -0.0279029 -0.0286065 -0.028421 -0.0274639 -0.0257534 -0.0233256 -0.0202561 -0.0166366 -0.012569 -0.00799343 -0.0053747 0.00551378 0.0114387 0.0137838 0.0154549 0.0175988 0.0196559 0.0212563 0.0222601 0.0226094 0.0222949 0.0213421 0.0198155 0.0178142 0.0154703 0.0130029 0.0105211 0.00809566 0.00592186 0.00410887 0.00259429 0.00145322 0.000689711 0.000248546 4.91664e-05 5.29381e-28 0 0.000296862 0.00113182 0.00246255 0.00416348 0.00618062 0.00842527 0.0108485 0.0134249 0.0161579 0.0190765 0.0222306 0.025684 0.0295053 0.0337549 0.0384684 0.0436561 0.0495234 0.0558064 0.0623055 0.0690285 0.0758222 0.0824027 0.0887338 0.0950023 0.100664 0.106156 0.11143 0.114978 0.115399 0.111849 0.108488 0.10529 0.101158 0.0958795 0.0895306 0.0822607 0.074259 0.0657474 0.0569734 0.0482188 0.0397608 0.0317246 0.0243619 0.0178988 0.0123322 0.00776271 0.00428268 0.00187383 0.000483449 4.67731e-27 0 0.000696777 0.00271908 0.00594683 0.0103892 0.0157732 0.0220323 0.029046 0.0367149 0.0449589 0.0537186 0.0629489 0.0726162 0.0826939 0.0931474 0.103921 0.114917 0.126253 0.137718 0.148913 0.159779 0.170141 0.179578 0.188008 0.195421 0.201146 0.205649 0.208873 0.210299 0.209671 0.205269 0.196617 0.187964 0.178599 0.167729 0.155431 0.141962 0.127622 0.112737 0.0976628 0.0827637 0.0684381 0.0549111 0.042477 0.0314577 0.0219318 0.0140075 0.00785582 0.00350774 0.000932945 8.88022e-27 0 0.00107998 0.00425365 0.0093735 0.0164761 0.0250584 0.0352213 0.0467043 0.0593345 0.0729505 0.0874032 0.102554 0.118272 0.134438 0.150918 0.167563 0.184191 0.20074 0.217185 0.232864 0.247644 0.261347 0.273436 0.283729 0.292168 0.298276 0.302191 0.303889 0.302919 0.29932 0.292904 0.282085 0.26792 0.253359 0.237039 0.218976 0.199516 0.179061 0.158035 0.136893 0.116092 0.0960983 0.0772882 0.0599794 0.0445686 0.0312308 0.020077 0.0113433 0.0051076 0.00137519 1.29848e-26 0 0.00144691 0.00571991 0.0126619 0.0222205 0.0339423 0.047846 0.0636074 0.0809877 0.099747 0.11965 0.140467 0.161971 0.183955 0.206187 0.228425 0.250412 0.2719 0.293006 0.312859 0.33129 0.34809 0.362693 0.374774 0.384193 0.390637 0.394069 0.394373 0.391241 0.384844 0.375261 0.362036 0.343654 0.324123 0.302618 0.279086 0.253957 0.227723 0.200898 0.174027 0.147656 0.122301 0.098498 0.0765819 0.0570175 0.0400724 0.0258607 0.0146763 0.00664246 0.00179853 1.69026e-26 0 0.00179047 0.0070906 0.0157401 0.0275814 0.0422911 0.0596907 0.0794713 0.101316 0.124911 0.149938 0.176081 0.203023 0.230469 0.258095 0.285567 0.312554 0.338709 0.364051 0.387717 0.409489 0.429064 0.445956 0.45975 0.470141 0.476835 0.479896 0.479096 0.474109 0.465204 0.452582 0.436136 0.413822 0.389693 0.363377 0.334775 0.304399 0.272824 0.240639 0.208473 0.176952 0.146637 0.118208 0.0920269 0.0686093 0.048308 0.0312605 0.0177952 0.00808404 0.00219722 2.05659e-26 0 0.00210628 0.00834978 0.0185666 0.0325701 0.050097 0.0705798 0.0940554 0.120009 0.148055 0.177801 0.208846 0.24079 0.273259 0.30584 0.338107 0.36966 0.400088 0.429238 0.456354 0.481088 0.503099 0.521988 0.537298 0.548622 0.555532 0.558192 0.556437 0.549885 0.538878 0.523572 0.503774 0.477208 0.449019 0.418345 0.385159 0.350046 0.313654 0.276634 0.239688 0.203521 0.168728 0.136113 0.106075 0.0791668 0.0558119 0.0361806 0.0206445 0.00940523 0.00256542 2.3911e-26 0 0.00238922 0.00947916 0.0211021 0.0370289 0.0569891 0.080337 0.10713 0.136773 0.168817 0.2028 0.238249 0.274683 0.311658 0.348678 0.385232 0.420851 0.455062 0.487594 0.517741 0.545022 0.569131 0.58968 0.606189 0.618284 0.625412 0.627646 0.62492 0.616845 0.603865 0.586167 0.563237 0.532856 0.501247 0.466749 0.429535 0.390258 0.349628 0.308356 0.267205 0.226953 0.188235 0.151937 0.118503 0.0885267 0.0624867 0.0405528 0.0231715 0.0105797 0.00289575 2.68817e-26 0 0.00263479 0.0104605 0.0233066 0.0409125 0.0629606 0.0888514 0.118495 0.151348 0.186873 0.224548 0.263832 0.304175 0.345068 0.385943 0.426211 0.465338 0.502794 0.538222 0.570945 0.600353 0.626178 0.648064 0.665503 0.678139 0.685375 0.687249 0.683674 0.674265 0.65955 0.639747 0.613381 0.580223 0.545728 0.50791 0.467234 0.424409 0.38019 0.335325 0.290624 0.246908 0.20487 0.16544 0.129119 0.0965409 0.0682267 0.0443175 0.0253472 0.0115861 0.00317624 2.94308e-26 0 0.0028391 0.0112773 0.0251421 0.0441574 0.0680549 0.0961861 0.127979 0.16351 0.201946 0.242707 0.285198 0.328808 0.37297 0.417057 0.460409 0.502434 0.542554 0.580346 0.61515 0.646251 0.673396 0.696272 0.714361 0.727319 0.734538 0.736061 0.73176 0.721227 0.705074 0.683352 0.653083 0.618524 0.581566 0.54105 0.49759 0.451924 0.404834 0.357097 0.309557 0.263058 0.218371 0.176415 0.13776 0.103083 0.072928 0.0474003 0.0271409 0.0124178 0.00340546 3.15202e-26 0 0.00299902 0.0119168 0.0265788 0.0467062 0.0719983 0.101831 0.13546 0.173074 0.213803 0.256999 0.302017 0.3482 0.394932 0.441536 0.487294 0.531567 0.573731 0.613318 0.64967 0.682012 0.710076 0.733583 0.752027 0.765075 0.772139 0.773313 0.76841 0.756972 0.739691 0.71554 0.682298 0.647134 0.608301 0.565782 0.520254 0.472477 0.423256 0.373384 0.323736 0.275129 0.228511 0.18469 0.144294 0.10804 0.0764909 0.0497383 0.0285089 0.0130616 0.00358742 3.31168e-26 0 0.00311211 0.0123693 0.0275957 0.048515 0.0747862 0.105951 0.141071 0.179902 0.222265 0.267205 0.314034 0.362053 0.410616 0.459003 0.506452 0.552286 0.595848 0.636634 0.67398 0.707085 0.735659 0.759439 0.777937 0.790839 0.797598 0.798415 0.793037 0.780924 0.76248 0.734674 0.701651 0.665812 0.625703 0.58185 0.534965 0.485817 0.435221 0.38398 0.332979 0.282982 0.235153 0.190146 0.14862 0.111326 0.078828 0.0512946 0.0294279 0.0134963 0.00371307 3.41937e-26 0 0.00317663 0.0126281 0.0281788 0.0495554 0.0763996 0.108299 0.144339 0.183914 0.227206 0.273171 0.321063 0.370157 0.419779 0.469187 0.517585 0.564269 0.608561 0.649935 0.687713 0.721088 0.749751 0.773448 0.791706 0.804224 0.810526 0.810949 0.805197 0.792576 0.771788 0.741483 0.709591 0.673215 0.632504 0.588085 0.540663 0.491001 0.439908 0.388183 0.336709 0.286225 0.237964 0.192512 0.150544 0.112824 0.0798655 0.0520229 0.0298704 0.0137119 0.00377743 3.47341e-26 0 0.00319122 0.012687 0.0283122 0.0497962 0.076781 0.108825 0.145307 0.185322 0.22853 0.27472 0.322888 0.372256 0.422132 0.471762 0.520334 0.567133 0.611465 0.652797 0.690444 0.723599 0.751945 0.775234 0.793001 0.804956 0.810704 0.810963 0.805226 0.791383 0.766613 0.739828 0.708312 0.671948 0.631282 0.586944 0.539628 0.490091 0.439137 0.387554 0.336214 0.2859 0.237755 0.192387 0.1505 0.112838 0.0798335 0.0520268 0.0298819 0.0137237 0.0037839 3.47294e-26 0 0.00317092 0.0126056 0.028129 0.0494726 0.0762916 0.108114 0.144429 0.184423 0.227438 0.273111 0.320963 0.370014 0.419547 0.468798 0.516947 0.56327 0.607064 0.647782 0.68473 0.717097 0.744538 0.7668 0.783405 0.794031 0.798437 0.798008 0.791275 0.773441 0.752549 0.726682 0.695631 0.659849 0.619868 0.576302 0.529832 0.481204 0.431191 0.380572 0.330097 0.28086 0.233633 0.189063 0.147952 0.110978 0.0784875 0.0511638 0.0294012 0.013512 0.00372986 3.41794e-26 0 0.00308701 0.012273 0.0273886 0.0481726 0.0742945 0.105299 0.140658 0.179877 0.222051 0.266139 0.312759 0.360553 0.408791 0.45673 0.503562 0.548574 0.591073 0.630522 0.66623 0.697402 0.723689 0.744846 0.760388 0.769968 0.77344 