<?xml version="1.0"?>
<VTKFile type="PolyData">
	<PolyData>
		<Piece NumberOfPoints="2601" NumberOfPolys="2500">
			<Points>
				<DataArray type="Float32" NumberOfComponents="3" format="ascii">
 0 0 0 0.02 0 0 0.04 0 0 0.06 0 0 0.08 0 0 0.1 0 0 0.12 0 0 0.14 0 0 0.16 0 0 0.18 0 0 0.2 0 0 0.22 0 0 0.24 0 0 0.26 0 0 0.28 0 0 0.3 0 0 0.32 0 0 0.34 0 0 0.36 0 0 0.38 0 0 0.4 0 0 0.42 0 0 0.44 0 0 0.46 0 0 0.48 0 0 0.5 0 0 0.52 0 0 0.54 0 0 0.56 0 0 0.58 0 0 0.6 0 0 0.62 0 0 0.64 0 0 0.66 0 0 0.68 0 0 0.7 0 0 0.72 0 0 0.74 0 0 0.76 0 0 0.78 0 0 0.8 0 0 0.82 0 0 0.84 0 0 0.86 0 0 0.88 0 0 0.9 0 0 0.92 0 0 0.94 0 0 0.96 0 0 0.98 0 0 1 0 0 0 0.02 0 0.02 0.02 0 0.04 0.02 0 0.06 0.02 0 0.08 0.02 0 0.1 0.02 0 0.12 0.02 0 0.14 0.02 0 0.16 0.02 0 0.18 0.02 0 0.2 0.02 0 0.22 0.02 0 0.24 0.02 0 0.26 0.02 0 0.28 0.02 0 0.3 0.02 0 0.32 0.02 0 0.34 0.02 0 0.36 0.02 0 0.38 0.02 0 0.4 0.02 0 0.42 0.02 0 0.44 0.02 0 0.46 0.02 0 0.48 0.02 0 0.5 0.02 0 0.52 0.02 0 0.54 0.02 0 0.56 0.02 0 0.58 0.02 0 0.6 0.02 0 0.62 0.02 0 0.64 0.02 0 0.66 0.02 0 0.68 0.02 0 0.7 0.02 0 0.72 0.02 0 0.74 0.02 0 0.76 0.02 0 0.78 0.02 0 0.8 0.02 0 0.82 0.02 0 0.84 0.02 0 0.86 0.02 0 0.88 0.02 0 0.9 0.02 0 0.92 0.02 0 0.94 0.02 0 0.96 0.02 0 0.98 0.02 0 1 0.02 0 0 0.04 0 0.02 0.04 0 0.04 0.04 0 0.06 0.04 0 0.08 0.04 0 0.1 0.04 0 0.12 0.04 0 0.14 0.04 0 0.16 0.04 0 0.18 0.04 0 0.2 0.04 0 0.22 0.04 0 0.24 0.04 0 0.26 0.04 0 0.28 0.04 0 0.3 0.04 0 0.32 0.04 0 0.34 0.04 0 0.36 0.04 0 0.38 0.04 0 0.4 0.04 0 0.42 0.04 0 0.44 0.04 0 0.46 0.04 0 0.48 0.04 0 0.5 0.04 0 0.52 0.04 0 0.54 0.04 0 0.56 0.04 0 0.58 0.04 0 0.6 0.04 0 0.62 0.04 0 0.64 0.04 0 0.66 0.04 0 0.68 0.04 0 0.7 0.04 0 0.72 0.04 0 0.74 0.04 0 0.76 0.04 0 0.78 0.04 0 0.8 0.04 0 0.82 0.04 0 0.84 0.04 0 0.86 0.04 0 0.88 0.04 0 0.9 0.04 0 0.92 0.04 0 0.94 0.04 0 0.96 0.04 0 0.98 0.04 0 1 0.04 0 0 0.06 0 0.02 0.06 0 0.04 0.06 0 0.06 0.06 0 0.08 0.06 0 0.1 0.06 0 0.12 0.06 0 0.14 0.06 0 0.16 0.06 0 0.18 0.06 0 0.2 0.06 0 0.22 0.06 0 0.24 0.06 0 0.26 0.06 0 0.28 0.06 0 0.3 0.06 0 0.32 0.06 0 0.34 0.06 0 0.36 0.06 0 0.38 0.06 0 0.4 0.06 0 0.42 0.06 0 0.44 0.06 0 0.46 0.06 0 0.48 0.06 0 0.5 0.06 0 0.52 0.06 0 0.54 0.06 0 0.56 0.06 0 0.58 0.06 0 0.6 0.06 0 0.62 0.06 0 0.64 0.06 0 0.66 0.06 0 0.68 0.06 0 0.7 0.06 0 0.72 0.06 0 0.74 0.06 0 0.76 0.06 0 0.78 0.06 0 0.8 0.06 0 0.82 0.06 0 0.84 0.06 0 0.86 0.06 0 0.88 0.06 0 0.9 0.06 0 0.92 0.06 0 0.94 0.06 0 0.96 0.06 0 0.98 0.06 0 1 0.06 0 0 0.08 0 0.02 0.08 0 0.04 0.08 0 0.06 0.08 0 0.08 0.08 0 0.1 0.08 0 0.12 0.08 0 0.14 0.08 0 0.16 0.08 0 0.18 0.08 0 0.2 0.08 0 0.22 0.08 0 0.24 0.08 0 0.26 0.08 0 0.28 0.08 0 0.3 0.08 0 0.32 0.08 0 0.34 0.08 0 0.36 0.08 0 0.38 0.08 0 0.4 0.08 0 0.42 0.08 0 0.44 0.08 0 0.46 0.08 0 0.48 0.08 0 0.5 0.08 0 0.52 0.08 0 0.54 0.08 0 0.56 0.08 0 0.58 0.08 0 0.6 0.08 0 0.62 0.08 0 0.64 0.08 0 0.66 0.08 0 0.68 0.08 0 0.7 0.08 0 0.72 0.08 0 0.74 0.08 0 0.76 0.08 0 0.78 0.08 0 0.8 0.08 0 0.82 0.08 0 0.84 0.08 0 0.86 0.08 0 0.88 0.08 0 0.9 0.08 0 0.92 0.08 0 0.94 0.08 0 0.96 0.08 0 0.98 0.08 0 1 0.08 0 0 0.1 0 0.02 0.1 0 0.04 0.1 0 0.06 0.1 0 0.08 0.1 0 0.1 0.1 0 0.12 0.1 0 0.14 0.1 0 0.16 0.1 0 0.18 0.1 0 0.2 0.1 0 0.22 0.1 0 0.24 0.1 0 0.26 0.1 0 0.28 0.1 0 0.3 0.1 0 0.32 0.1 0 0.34 0.1 0 0.36 0.1 0 0.38 0.1 0 0.4 0.1 0 0.42 0.1 0 0.44 0.1 0 0.46 0.1 0 0.48 0.1 0 0.5 0.1 0 0.52 0.1 0 0.54 0.1 0 0.56 0.1 0 0.58 0.1 0 0.6 0.1 0 0.62 0.1 0 0.64 0.1 0 0.66 0.1 0 0.68 0.1 0 0.7 0.1 0 0.72 0.1 0 0.74 0.1 0 0.76 0.1 0 0.78 0.1 0 0.8 0.1 0 0.82 0.1 0 0.84 0.1 0 0.86 0.1 0 0.88 0.1 0 0.9 0.1 0 0.92 0.1 0 0.94 0.1 0 0.96 0.1 0 0.98 0.1 0 1 0.1 0 0 0.12 0 0.02 0.12 0 0.04 0.12 0 0.06 0.12 0 0.08 0.12 0 0.1 0.12 0 0.12 0.12 0 0.14 0.12 0 0.16 0.12 0 0.18 0.12 0 0.2 0.12 0 0.22 0.12 0 0.24 0.12 0 0.26 0.12 0 0.28 0.12 0 0.3 0.12 0 0.32 0.12 0 0.34 0.12 0 0.36 0.12 0 0.38 0.12 0 0.4 0.12 0 0.42 0.12 0 0.44 0.12 0 0.46 0.12 0 0.48 0.12 0 0.5 0.12 0 0.52 0.12 0 0.54 0.12 0 0.56 0.12 0 0.58 0.12 0 0.6 0.12 0 0.62 0.12 0 0.64 0.12 0 0.66 0.12 0 0.68 0.12 0 0.7 0.12 0 0.72 0.12 0 0.74 0.12 0 0.76 0.12 0 0.78 0.12 0 0.8 0.12 0 0.82 0.12 0 0.84 0.12 0 0.86 0.12 0 0.88 0.12 0 0.9 0.12 0 0.92 0.12 0 0.94 0.12 0 0.96 0.12 0 0.98 0.12 0 1 0.12 0 0 0.14 0 0.02 0.14 0 0.04 0.14 0 0.06 0.14 0 0.08 0.14 0 0.1 0.14 0 0.12 0.14 0 0.14 0.14 0 0.16 0.14 0 0.18 0.14 0 0.2 0.14 0 0.22 0.14 0 0.24 0.14 0 0.26 0.14 0 0.28 0.14 0 0.3 0.14 0 0.32 0.14 0 0.34 0.14 0 0.36 0.14 0 0.38 0.14 0 0.4 0.14 0 0.42 0.14 0 0.44 0.14 0 0.46 0.14 0 0.48 0.14 0 0.5 0.14 0 0.52 0.14 0 0.54 0.14 0 0.56 0.14 0 0.58 0.14 0 0.6 0.14 0 0.62 0.14 0 0.64 0.14 0 0.66 0.14 0 0.68 0.14 0 0.7 0.14 0 0.72 0.14 0 0.74 0.14 0 0.76 0.14 0 0.78 0.14 0 0.8 0.14 0 0.82 0.14 0 0.84 0.14 0 0.86 0.14 0 0.88 0.14 0 0.9 0.14 0 0.92 0.14 0 0.94 0.14 0 0.96 0.14 0 0.98 0.14 0 1 0.14 0 0 0.16 0 0.02 0.16 0 0.04 0.16 0 0.06 0.16 0 0.08 0.16 0 0.1 0.16 0 0.12 0.16 0 0.14 0.16 0 0.16 0.16 0 0.18 0.16 0 0.2 0.16 0 0.22 0.16 0 0.24 0.16 0 0.26 0.16 0 0.28 0.16 0 0.3 0.16 0 0.32 0.16 0 0.34 0.16 0 0.36 0.16 0 0.38 0.16 0 0.4 0.16 0 0.42 0.16 0 0.44 0.16 0 0.46 0.16 0 0.48 0.16 0 0.5 0.16 0 0.52 0.16 0 0.54 0.16 0 0.56 0.16 0 0.58 0.16 0 0.6 0.16 0 0.62 0.16 0 0.64 0.16 0 0.66 0.16 0 0.68 0.16 0 0.7 0.16 0 0.72 0.16 0 0.74 0.16 0 0.76 0.16 0 0.78 0.16 0 0.8 0.16 0 0.82 0.16 0 0.84 0.16 0 0.86 0.16 0 0.88 0.16 0 0.9 0.16 0 0.92 0.16 0 0.94 0.16 0 0.96 0.16 0 0.98 0.16 0 1 0.16 0 0 0.18 0 0.02 0.18 0 0.04 0.18 0 0.06 0.18 0 0.08 0.18 0 0.1 0.18 0 0.12 0.18 0 0.14 0.18 0 0.16 0.18 0 0.18 0.18 0 0.2 0.18 0 0.22 0.18 0 0.24 0.18 0 0.26 0.18 0 0.28 0.18 0 0.3 0.18 0 0.32 0.18 0 0.34 0.18 0 0.36 0.18 0 0.38 0.18 0 0.4 0.18 0 0.42 0.18 0 0.44 0.18 0 0.46 0.18 0 0.48 0.18 0 0.5 0.18 0 0.52 0.18 0 0.54 0.18 0 0.56 0.18 0 0.58 0.18 0 0.6 0.18 0 0.62 0.18 0 0.64 0.18 0 0.66 0.18 0 0.68 0.18 0 0.7 0.18 0 0.72 0.18 0 0.74 0.18 0 0.76 0.18 0 0.78 0.18 0 0.8 0.18 0 0.82 0.18 0 0.84 0.18 0 0.86 0.18 0 0.88 0.18 0 0.9 0.18 0 0.92 0.18 0 0.94 0.18 0 0.96 0.18 0 0.98 0.18 0 1 0.18 0 0 0.2 0 0.02 0.2 0 0.04 0.2 0 0.06 0.2 0 0.08 0.2 0 0.1 0.2 0 0.12 0.2 0 0.14 0.2 0 0.16 0.2 0 0.18 0.2 0 0.2 0.2 0 0.22 0.2 0 0.24 0.2 0 0.26 0.2 0 0.28 0.2 0 0.3 0.2 0 0.32 0.2 0 0.34 0.2 0 0.36 0.2 0 0.38 0.2 0 0.4 0.2 0 0.42 0.2 0 0.44 0.2 0 0.46 0.2 0 0.48 0.2 0 0.5 0.2 0 0.52 0.2 0 0.54 0.2 0 0.56 0.2 0 0.58 0.2 0 0.6 0.2 0 0.62 0.2 0 0.64 0.2 0 0.66 0.2 0 0.68 0.2 0 0.7 0.2 0 0.72 0.2 0 0.74 0.2 0 0.76 0.2 0 0.78 0.2 0 0.8 0.2 0 0.82 0.2 0 0.84 0.2 0 0.86 0.2 0 0.88 0.2 0 0.9 0.2 0 0.92 0.2 0 0.94 0.2 0 0.96 0.2 0 0.98 0.2 0 1 0.2 0 0 0.22 0 0.02 0.22 0 0.04 0.22 0 0.06 0.22 0 0.08 0.22 0 0.1 0.22 0 0.12 0.22 0 0.14 0.22 0 0.16 0.22 0 0.18 0.22 0 0.2 0.22 0 0.22 0.22 0 0.24 0.22 0 0.26 0.22 0 0.28 0.22 0 0.3 0.22 0 0.32 0.22 0 0.34 0.22 0 0.36 0.22 0 0.38 0.22 0 0.4 0.22 0 0.42 0.22 0 0.44 0.22 0 0.46 0.22 0 0.48 0.22 0 0.5 0.22 0 0.52 0.22 0 0.54 0.22 0 0.56 0.22 0 0.58 0.22 0 0.6 0.22 0 0.62 0.22 0 0.64 0.22 0 0.66 0.22 0 0.68 0.22 0 0.7 0.22 0 0.72 0.22 0 0.74 0.22 0 0.76 0.22 0 0.78 0.22 0 0.8 0.22 0 0.82 0.22 0 0.84 0.22 0 0.86 0.22 0 0.88 0.22 0 0.9 0.22 0 0.92 0.22 0 0.94 0.22 0 0.96 0.22 0 0.98 0.22 0 1 0.22 0 0 0.24 0 0.02 0.24 0 0.04 0.24 0 0.06 0.24 0 0.08 0.24 0 0.1 0.24 0 0.12 0.24 0 0.14 0.24 0 0.16 0.24 0 0.18 0.24 0 0.2 0.24 0 0.22 0.24 0 0.24 0.24 0 0.26 0.24 0 0.28 0.24 0 0.3 0.24 0 0.32 0.24 0 0.34 0.24 0 0.36 0.24 0 0.38 0.24 0 0.4 0.24 0 0.42 0.24 0 0.44 0.24 0 0.46 0.24 0 0.48 0.24 0 0.5 0.24 0 0.52 0.24 0 0.54 0.24 0 0.56 0.24 0 0.58 0.24 0 0.6 0.24 0 0.62 0.24 0 0.64 0.24 0 0.66 0.24 0 0.68 0.24 0 0.7 0.24 0 0.72 0.24 0 0.74 0.24 0 0.76 0.24 0 0.78 0.24 0 0.8 0.24 0 0.82 0.24 0 0.84 0.24 0 0.86 0.24 0 0.88 0.24 0 0.9 0.24 0 0.92 0.24 0 0.94 0.24 0 0.96 0.24 0 0.98 0.24 0 1 0.24 0 0 0.26 0 0.02 0.26 0 0.04 0.26 0 0.06 0.26 0 0.08 0.26 0 0.1 0.26 0 0.12 0.26 0 0.14 0.26 0 0.16 0.26 0 0.18 0.26 0 0.2 0.26 0 0.22 0.26 0 0.24 0.26 0 0.26 0.26 0 0.28 0.26 0 0.3 0.26 0 0.32 0.26 0 0.34 0.26 0 0.36 0.26 0 0.38 0.26 0 0.4 0.26 0 0.42 0.26 0 0.44 0.26 0 0.46 0.26 0 0.48 0.26 0 0.5 0.26 0 0.52 0.26 0 0.54 0.26 0 0.56 0.26 0 0.58 0.26 0 0.6 0.26 0 0.62 0.26 0 0.64 0.26 0 0.66 0.26 0 0.68 0.26 0 0.7 0.26 0 0.72 0.26 0 0.74 0.26 0 0.76 0.26 0 0.78 0.26 0 0.8 0.26 0 0.82 0.26 0 0.84 0.26 0 0.86 0.26 0 0.88 0.26 0 0.9 0.26 0 0.92 0.26 0 0.94 0.26 0 0.96 0.26 0 0.98 0.26 0 1 0.26 0 0 0.28 0 0.02 0.28 0 0.04 0.28 0 0.06 0.28 0 0.08 0.28 0 0.1 0.28 0 0.12 0.28 0 0.14 0.28 0 0.16 0.28 0 0.18 0.28 0 0.2 0.28 0 0.22 0.28 0 0.24 0.28 0 0.26 0.28 0 0.28 0.28 0 0.3 0.28 0 0.32 0.28 0 0.34 0.28 0 0.36 0.28 0 0.38 0.28 0 0.4 0.28 0 0.42 0.28 0 0.44 0.28 0 0.46 0.28 0 0.48 0.28 0 0.5 0.28 0 0.52 0.28 0 0.54 0.28 0 0.56 0.28 0 0.58 0.28 0 0.6 0.28 0 0.62 0.28 0 0.64 0.28 0 0.66 0.28 0 0.68 0.28 0 0.7 0.28 0 0.72 0.28 0 0.74 0.28 0 0.76 0.28 0 0.78 0.28 0 0.8 0.28 0 0.82 0.28 0 0.84 0.28 0 0.86 0.28 0 0.88 0.28 0 0.9 0.28 0 0.92 0.28 0 0.94 0.28 0 0.96 0.28 0 0.98 0.28 0 1 0.28 0 0 0.3 0 0.02 0.3 0 0.04 0.3 0 0.06 0.3 0 0.08 0.3 0 0.1 0.3 0 0.12 0.3 0 0.14 0.3 0 0.16 0.3 0 0.18 0.3 0 0.2 0.3 0 0.22 0.3 0 0.24 0.3 0 0.26 0.3 0 0.28 0.3 0 0.3 0.3 0 0.32 0.3 0 0.34 0.3 0 0.36 0.3 0 0.38 0.3 0 0.4 0.3 0 0.42 0.3 0 0.44 0.3 0 0.46 0.3 0 0.48 0.3 0 0.5 0.3 0 0.52 0.3 0 0.54 0.3 0 0.56 0.3 0 0.58 0.3 0 0.6 0.3 0 0.62 0.3 0 0.64 0.3 0 0.66 0.3 0 0.68 0.3 0 0.7 0.3 0 0.72 0.3 0 0.74 0.3 0 0.76 0.3 0 0.78 0.3 0 0.8 0.3 0 0.82 0.3 0 0.84 0.3 0 0.86 0.3 0 0.88 0.3 0 0.9 0.3 0 0.92 0.3 0 0.94 0.3 0 0.96 0.3 0 0.98 0.3 0 1 0.3 0 0 0.32 0 0.02 0.32 0 0.04 0.32 0 0.06 0.32 0 0.08 0.32 0 0.1 0.32 0 0.12 0.32 0 0.14 0.32 0 0.16 0.32 0 0.18 0.32 0 0.2 0.32 0 0.22 0.32 0 0.24 0.32 0 0.26 0.32 0 0.28 0.32 0 0.3 0.32 0 0.32 0.32 0 0.34 0.32 0 0.36 0.32 0 0.38 0.32 0 0.4 0.32 0 0.42 0.32 0 0.44 0.32 0 0.46 0.32 0 0.48 0.32 0 0.5 0.32 0 0.52 0.32 0 0.54 0.32 0 0.56 0.32 0 0.58 0.32 0 0.6 0.32 0 0.62 0.32 0 0.64 0.32 0 0.66 0.32 0 0.68 0.32 0 0.7 0.32 0 0.72 0.32 0 0.74 0.32 0 0.76 0.32 0 0.78 0.32 0 0.8 0.32 0 0.82 0.32 0 0.84 0.32 0 0.86 0.32 0 0.88 0.32 0 0.9 0.32 0 0.92 0.32 0 0.94 0.
[...]
			<PointData Scalars="VitesseX">
				<DataArray Name="VitesseX" type="Float32" format="ascii">
 0 0 0 0 0 0 0 0 0 0 0 0 0 0 0 0 0 0 0 0 0 0 0 0 0 0 0 0 0 0 0 0 0 0 0 0 0 0 0 0 0 0 0 0 0 0 0 0 0 0 0 0 0.000498604 0.00199871 0.00447718 0.00787125 0.0121194 0.017155 0.0228982 0.0292583 0.0361349 0.0434189 0.050995 0.0587428 0.0665415 0.074265 0.0817887 0.0889928 0.0957614 0.101984 0.107557 0.112383 0.116394 0.119536 0.121703 0.122794 0.1232 0.122322 0.120812 0.118472 0.11521 0.111106 0.106208 0.100544 0.0942403 0.0874555 0.0802855 0.0728331 0.0652074 0.0575167 0.0498837 0.0424402 0.0352982 0.0285523 0.0223268 0.016717 0.011809 0.00767877 0.00439019 0.00199371 0.000516384 5.24984e-27 0 0.000972564 0.00389122 0.00869362 0.0152931 0.023577 0.0334107 0.0446371 0.0570794 0.0705425 0.084815 0.0996726 0.114882 0.130211 0.145412 0.160243 0.17447 0.187869 0.200226 0.211345 0.221045 0.229171 0.235586 0.240183 0.242859 0.243729 0.242691 0.239908 0.235299 0.228878 0.220765 0.211087 0.200002 0.187689 0.174326 0.16004 0.145061 0.129759 0.114381 0.0991955 0.0843923 0.0701703 0.0567854 0.0444416 0.0332669 0.0234991 0.015281 0.00873838 0.00397198 0.00105541 1.04169e-26 0 0.00143167 0.00571308 0.0127624 0.022454 0.0346244 0.0490718 0.0655674 0.0838546 0.103649 0.124643 0.146508 0.168903 0.191493 0.213914 0.235807 0.256832 0.27666 0.294979 0.311501 0.325962 0.338133 0.347817 0.354852 0.359108 0.360492 0.359275 0.355342 0.348607 0.339193 0.327254 0.312976 0.296584 0.278343 0.25854 0.23749 0.215533 0.19296 0.170023 0.14727 0.125169 0.104026 0.0841434 0.0658191 0.0493288 0.0348415 0.022651 0.012949 0.00588269 0.00156051 1.54196e-26 0 0.00186892 0.00744271 0.0166226 0.0292428 0.0450876 0.0638917 0.0853658 0.109183 0.134974 0.162337 0.190848 0.220062 0.249548 0.27883 0.307436 0.334929 0.36088 0.384883 0.406562 0.425577 0.441627 0.454457 0.463859 0.469668 0.471599 0.470226 0.46525 0.456548 0.444339 0.428808 0.410196 0.388794 0.364938 0.339013 0.311441 0.28266 0.253122 0.22326 0.193513 0.16436 0.136448 0.110276 0.0861937 0.0645502 0.0456392 0.0296607 0.0169494 0.007692 0.00203288 2.01789e-26 0 0.00227458 0.0090532 0.0202151 0.0355596 0.0547971 0.0776343 0.103743 0.132721 0.16411 0.19742 0.232134 0.267712 0.30363 0.339308 0.374172 0.407693 0.439353 0.46866 0.495157 0.518431 0.538116 0.553899 0.565528 0.572808 0.5753 0.573811 0.567895 0.55739 0.54261 0.523773 0.501153 0.475103 0.446035 0.414408 0.380734 0.345563 0.309466 0.273004 0.23676 0.201226 0.166989 0.134817 0.105283 0.078801 0.0557005 0.0362083 0.0206819 0.00937625 0.0024685 2.46193e-26 0 0.00264416 0.0105195 0.0234833 0.0412747 0.0636199 0.090169 0.120527 0.154225 0.19073 0.229464 0.269817 0.311162 0.352905 0.394371 0.434905 0.4739 0.510757 0.544904 0.575812 0.602998 0.626033 0.644549 0.658247 0.666895 0.669956 0.66841 0.661681 0.649583 0.63248 0.610639 0.584391 0.554128 0.520319 0.483504 0.444271 0.403255 0.361138 0.318591 0.276328 0.234978 0.195088 0.157419 0.122814 0.0918426 0.0648678 0.0421783 0.0240879 0.0109117 0.00286331 2.86707e-26 0 0.00297207 0.0118198 0.0263648 0.0463535 0.0714657 0.101333 0.135491 0.173376 0.21437 0.257826 0.303076 0.34944 0.396264 0.442805 0.488344 0.532184 0.573645 0.612101 0.646961 0.677682 0.703773 0.72481 0.740439 0.750388 0.754033 0.752528 0.745173 0.73174 0.712629 0.688139 0.658663 0.624659 0.586642 0.545212 0.501037 0.454825 0.407334 0.359335 0.311668 0.265076 0.220188 0.177694 0.138537 0.103502 0.0730385 0.0474865 0.0271142 0.0122744 0.00321197 3.22693e-26 0 0.00325316 0.0129279 0.0288387 0.0507115 0.0782217 0.11094 0.148291 0.189648 0.234364 0.281764 0.331143 0.381754 0.432876 0.483702 0.53347 0.58144 0.626871 0.669067 0.707378 0.741201 0.769996 0.793291 0.810693 0.821895 0.826162 0.824791 0.817029 0.802557 0.781826 0.755138 0.722914 0.685685 0.644033 0.598611 0.55016 0.499461 0.447332 0.394612 0.342245 0.291089 0.241862 0.195254 0.152179 0.113598 0.0801068 0.0520656 0.0297152 0.0134433 0.00350931 3.53588e-26 0 0.00348311 0.0138354 0.0308603 0.0542841 0.0837497 0.11871 0.158563 0.20268 0.250392 0.300977 0.35367 0.407699 0.462322 0.516672 0.569908 0.621263 0.669956 0.715241 0.756417 0.792834 0.823905 0.84912 0.868053 0.880366 0.885258 0.884038 0.876011 0.860787 0.838841 0.810476 0.776108 0.736279 0.691639 0.642914 0.59091 0.536479 0.480505 0.423871 0.367597 0.312632 0.259784 0.209787 0.163497 0.121971 0.0859575 0.055833 0.0318513 0.0144002 0.00375083 3.78912e-26 0 0.00365757 0.0145256 0.0323985 0.0570031 0.0878841 0.12448 0.166195 0.212378 0.26232 0.315271 0.370448 0.427043 0.484289 0.541296 0.597168 0.651104 0.702293 0.749955 0.793352 0.8318 0.86468 0.891445 0.91164 0.9249 0.93038 0.929339 0.921193 0.905462 0.882674 0.853135 0.817246 0.775535 0.72867 0.677429 0.622673 0.565327 0.506343 0.446654 0.387322 0.329373 0.273691 0.221056 0.172292 0.12848 0.0904878 0.0587304 0.03349 0.0151304 0.00393281 3.98269e-26 0 0.00377464 0.0149861 0.0334282 0.0587825 0.0905617 0.128218 0.171137 0.218641 0.270006 0.324473 0.38125 0.439509 0.498457 0.557191 0.61479 0.670435 0.723297 0.772576 0.817514 0.857405 0.891602 0.919535 0.940718 0.954766 0.960817 0.96001 0.951935 0.935971 0.912695 0.882431 0.845607 0.802736 0.754454 0.701556 0.644932 0.585559 0.524455 0.46261 0.401122 0.341064 0.283378 0.228891 0.178414 0.133007 0.0936225 0.0607211 0.0346064 0.0156226 0.00405251 4.11361e-26 0 0.00383091 0.0152047 0.0338832 0.059521 0.0916526 0.129714 0.173076 0.221058 0.272943 0.327974 0.385352 0.444243 0.50385 0.563277 0.621597 0.678002 0.731662 0.781776 0.82758 0.868356 0.903448 0.932267 0.95431 0.969169 0.976016 0.975568 0.967775 0.951896 0.928536 0.898021 0.860805 0.817442 0.768544 0.714859 0.657293 0.59684 0.53456 0.471496 0.408784 0.347517 0.288687 0.233175 0.181759 0.135472 0.0953091 0.0617734 0.0351831 0.0158695 0.00410816 4.17986e-26 0 0.0038295 0.0151951 0.0338326 0.0594189 0.0914726 0.129429 0.172659 0.220491 0.27222 0.327089 0.3843 0.443023 0.502466 0.561758 0.619981 0.676337 0.730004 0.780182 0.826104 0.867046 0.902341 0.931393 0.953688 0.968811 0.975948 0.975647 0.968053 0.952349 0.929149 0.89876 0.861624 0.81832 0.769513 0.715911 0.658369 0.597878 0.535499 0.472297 0.40943 0.348006 0.289046 0.233454 0.181982 0.135631 0.0953894 0.0617949 0.0351766 0.0158554 0.00409698 4.18044e-26 0 0.00376664 0.0149277 0.0332282 0.058335 0.0897672 0.126964 0.169311 0.216158 0.266817 0.320545 0.376562 0.434066 0.492291 0.550422 0.60756 0.662934 0.715743 0.765204 0.810564 0.851105 0.886162 0.915134 0.937504 0.952854 0.960456 0.960613 0.953933 0.939123 0.916848 0.887391 0.851167 0.808729 0.760773 0.708039 0.651331 0.591616 0.529947 0.467394 0.405123 0.344267 0.285855 0.230805 0.179872 0.134014 0.0941967 0.0609735 0.0346769 0.0156117 0.00402457 4.11536e-26 0 0.00364423 0.0144181 0.0320974 0.0563211 0.0866243 0.122462 0.163245 0.208352 0.257116 0.308818 0.362715 0.418058 0.474126 0.530171 0.585316 0.638829 0.689939 0.737901 0.781992 0.821516 0.855822 0.884312 0.906464 0.92185 0.929851 0.930389 0.924558 0.910752 0.889663 0.861537 0.826758 0.785848 0.739476 0.688413 0.633452 0.57549 0.515559 0.454709 0.394082 0.334819 0.277925 0.22433 0.174788 0.130187 0.0914606 0.0591607 0.0336171 0.0151173 0.00388807 3.98568e-26 0 0.00346339 0.0136869 0.030456 0.0534073 0.0820925 0.115996 0.154561 0.197195 0.243257 0.292073 0.342965 0.395254 0.44827 0.501319 0.553566 0.604336 0.652919 0.698624 0.740765 0.778677 0.811729 0.839338 0.860991 0.876256 0.884635 0.885591 0.88076 0.868215 0.848684 0.822378 0.789628 0.750917 0.706871 0.658258 0.605868 0.550547 0.493274 0.435064 0.377015 0.320248 0.265737 0.214408 0.167003 0.124342 0.0873057 0.0564299 0.0320346 0.0143873 0.00369105 3.79343e-26 0 0.00322428 0.0127417 0.0283293 0.0496375 0.0762449 0.107671 0.143395 0.182849 0.225436 0.270559 0.317622 0.366013 0.415101 0.464235 0.512667 0.559826 0.605107 0.647883 0.687487 0.723265 0.754604 0.78095 0.801815 0.816789 0.825514 0.826947 0.82326 0.812227 0.794587 0.770532 0.740347 0.704466 0.663463 0.618057 0.569032 0.517193 0.463448 0.408769 0.354188 0.300786 0.249492 0.201208 0.15665 0.116574 0.0817991 0.0528249 0.0299553 0.0134338 0.00343698 3.54164e-26 0 0.00293109 0.0115942 0.0257506 0.0450724 0.069175 0.0976199 0.12991 0.165519 0.203927 0.244625 0.28709 0.330751 0.375016 0.419311 0.463069 0.505863 0.547175 0.586404 0.622925 0.656116 0.685363 0.710123 0.729939 0.744436 0.753299 0.755595 0.752868 0.743677 0.728251 0.706839 0.679699 0.64722 0.609917 0.568438 0.523534 0.475965 0.426561 0.376243 0.325961 0.276739 0.229446 0.184941 0.143895 0.107011 0.0750295 0.0484038 0.0274128 0.0122727 0.0031303 3.23423e-26 0 0.00259564 0.010262 0.0227584 0.0397844 0.0609977 0.085993 0.114306 0.145476 0.179074 0.214671 0.251789 0.289887 0.328444 0.367083 0.405504 0.443346 0.480075 0.515174 0.548091 0.578239 0.605045 0.62795 0.646498 0.660359 0.669251 0.672502 0.670778 0.663623 0.650695 0.632294 0.608639 0.580078 0.547069 0.510179 0.470095 0.427516 0.383202 0.338003 0.292783 0.248486 0.205915 0.16586 0.128942 0.0958058 0.0671059 0.0432376 0.0244485 0.0109232 0.00277602 2.876e-26 0 0.00222124 0.00876571 0.0194001 0.0338574 0.0518384 0.0729623 0.096822 0.123036 0.151262 0.181127 0.212173 0.243942 0.276116 0.308578 0.341205 0.373546 0.40506 0.435396 0.464168 0.490839 0.514845 0.535665 0.552789 0.565885 0.574737 0.578941 0.578329 0.573328 0.563124 0.548052 0.528279 0.504097 0.475906 0.444192 0.409553 0.372616 0.334062 0.294661 0.25518 0.216476 0.179269 0.144265 0.112028 0.0831389 0.0581552 0.0374089 0.0211101 0.00940759 0.00238089 2.47267e-26 0 0.00181166 0.0071292 0.0157303 0.0273883 0.041832 0.0587307 0.0777366 0.0985485 0.120904 0.144458 0.168809 0.193714 0.219139 0.245135 0.271488 0.297744 0.323482 0.348491 0.372513 0.395238 0.416123 0.434616 0.45022 0.462489 0.471247 0.476344 0.477022 0.474188 0.466909 0.455428 0.439871 0.420468 0.39755 0.371514 0.34286 0.312131 0.279921 0.246906 0.213755 0.181218 0.149929 0.1205 0.0934247 0.0692128 0.0483202 0.0310106 0.0174506 0.00774983 0.00195072 2.03065e-26 0 0.0013732 0.00537682 0.0118068 0.0204751 0.0311351 0.0435203 0.057346 0.0723895 0.0884452 0.105211 0.122465 0.140255 0.158707 0.177859 0.197448 0.217111 0.236643 0.25593 0.274747 0.292964 0.310351 0.326307 0.340274 0.351737 0.36041 0.366188 0.368608 0.367681 0.363546 0.355861 0.344792 0.330503 0.313237 0.293294 0.27107 0.247016 0.221633 0.195491 0.169166 0.143273 0.118363 0.0949413 0.0734266 0.0542487 0.0377569 0.0241446 0.0135303 0.0059793 0.00149414 1.55699e-26 0 0.000912764 0.00353613 0.00769182 0.0132171 0.0199152 0.0275726 0.0359678 0.0449563 0.0543829 0.0640645 0.0740526 0.084588 0.09582 0.10774 0.120165 0.132912 0.145936 0.159193 0.172553 0.185912 0.199247 0.212323 0.224524 0.235212 0.243935 0.250419 0.254377 0.255728 0.254599 0.250908 0.244537 0.235622 0.224299 0.210766 0.195316 0.178299 0.160119 0.141234 0.122113 0.103241 0.0850686 0.0679939 0.0523511 0.0384834 0.0266335 0.0169214 0.00941224 0.00412417 0.00101929 1.05922e-26 0 0.00043756 0.00163731 0.00345094 0.0057316 0.0083453 0.0111304 0.0139272 0.0166605 0.0192642 0.0217607 0.0244384 0.0275783 0.0313352 0.0357335 0.0407472 0.0463927 0.0527429 0.059821 0.0675893 0.0759948 0.0849883 0.0945668 0.104572 0.114421 0.123524 0.130826 0.136118 0.139826 0.141915 0.142191 0.140694 0.137333 0.132145 0.125235 0.116793 0.107065 0.09635 0.0849892 0.0733378 0.0617525 0.0505717 0.0400825 0.0305307 0.0221662 0.0151264 0.00945623 0.00516273 0.0022144 0.000533192 5.45566e-27 0 -4.63696e-05 -0.000290961 -0.000858249 -0.00186689 -0.00339858 -0.00556202 -0.00844993 -0.0120596 -0.0163123 -0.0209623 -0.0256204 -0.0299961 -0.0338817 -0.0371493 -0.0396489 -0.0411921 -0.0415963 -0.0407403 -0.0385846 -0.0351281 -0.0304021 -0.0244398 -0.0172015 -0.00858462 0.00101952 0.00884072 0.0155607 0.0216961 0.0270681 0.0315323 0.0349387 0.0371977 0.0382319 0.0380543 0.0367422 0.0344366 0.0313312 0.0276438 0.0236089 0.0194613 0.0154145 0.0116453 0.00830851 0.00555445 0.00341833 0.00186909 0.000852441 0.000283776 4.51947e-05 2.53223e-28 0 -0.000537889 -0.00222161 -0.00517055 -0.00945408 -0.0151152 -0.0222189 -0.0307793 -0.0406793 -0.0516703 -0.0633503 -0.0753068 -0.0871952 -0.0987219 -0.109621 -0.119575 -0.128251 -0.13536 -0.140671 -0.144045 -0.145414 -0.144802 -0.142067 -0.137186 -0.130028 -0.121645 -0.113588 -0.10537 -0.0967892 -0.0881228 -0.079524 -0.071206 -0.0633468 -0.0560915 -0.0495313 -0.0436987 -0.0385531 -0.0340142 -0.0299886 -0.0263664 -0.0230377 -0.0199107 -0.0169196 -0.0140031 -0.0111172 -0.00832506 -0.00573478 -0.00346225 -0.00164448 -0.000439245 -4.94069e-27 0 -0.00103055 -0.00413292 -0.00942319 -0.0169246 -0.0266504 -0.0386294 -0.0527765 -0.0688117 -0.0863371 -0.104877 -0.123995 -0.143268 -0.162287 -0.180652 -0.197893 -0.213547 -0.227218 -0.238582 -0.247404 -0.253513 -0.256663 -0.257083 -0.254531 -0.249229 -0.242111 -0.233869 -0.224276 -0.213399 -0.201545 -0.188917 -0.175803 -0.162449 -0.149095 -0.135924 -0.123065 -0.110577 -0.0984993 -0.0868616 -0.0756801 -0.0649703 -0.0547605 -0.0450902 -0.0359965 -0.0275449 -0.0198939 -0.0132244 -0.00771095 -0.00354345 -0.000915993 -1.01635e-26 0 -0.00151096 -0.00599553 -0.0135457 -0.0241596 -0.0378323 -0.0545547 -0.0740984 -0.096006 -0.119789 -0.144938 -0.170959 -0.197359 -0.223588 -0.24913 -0.273386 -0.295769 -0.31578 -0.333001 -0.347095 -0.357805 -0.36495 -0.368223 -0.368294 -0.364917 -0.358746 -0.350265 -0.339401 -0.326387 -0.311503 -0.295009 -0.277285 -0.258653 -0.239412 -0.219841 -0.20016 -0.180544 -0.161144 -0.142111 -0.123585 -0.105704 -0.0886087 -0.0724407 -0.0573428 -0.0434856 -0.0311163 -0.0204868 -0.0118293 -0.00538409 -0.00137747 -1.52882e-26 0 -0.0019711 -0.00777415 -0.0174721 -0.0310483 -0.048497 -0.0697595 -0.0944039 -0.121836 -0.151527 -0.182935 -0.215492 -0.248634 -0.281672 -0.313995 -0.34489 -0.373657 -0.399698 -0.422501 -0.441652 -0.456827 -0.467794 -0.474384 -0.47653 -0.475144 -0.469774 -0.461062 -0.44907 -0.434057 -0.416308 -0.396186 -0.374118 -0.350484 -0.325658 -0.300004 -0.273829 -0.247387 -0.220993 -0.194896 -0.169354 -0.144618 -0.120936 -0.0985527 -0.0777145 -0.058691 -0.0418167 -0.0274104 -0.0157546 -0.00713751 -0.00181638 -2.0098e-26 0 -0.00240629 -0.0094359 -0.0211386 -0.0374857 -0.0584888 -0.0840063 -0.113364 -0.1459 -0.181069 -0.218287 -0.256909 -0.296297 -0.335654 -0.374258 -0.41131 -0.446019 -0.477693 -0.505739 -0.529664 -0.549079 -0.563715 -0.57343 -0.577845 -0.57797 -0.573464 -0.564582 -0.551582 -0.534723 -0.514348 -0.490895 -0.464806 -0.436522 -0.406489 -0.375146 -0.342885 -0.310071 -0.277109 -0.244392 -0.212271 -0.181102 -0.151236 -0.123018 -0.0967857 -0.0729186 -0.0518311 -0.0338884 -0.0194253 -0.00877649 -0.00222695 -2.45457e-26 0 -0.00280677 -0.010956 -0.0244879 -0.0433731 -0.0676582 -0.0970589 -0.130652 -0.167803 -0.207943 -0.250433 -0.294559 -0.339608 -0.384695 -0.428991 -0.471637 -0.511766 -0.548601 -0.581472 -0.609809 -0.633169 -0.651226 -0.66378 -0.670497 -0.67176 -0.668174 -0.659193 -0.645308 -0.626818 -0.604118 -0.577662 -0.547927 -0.515412 -0.48063 -0.444087 -0.406257 -0.367608 -0.328619 -0.289827 -0.251662 -0.214582 -0.17903 -0.145443 -0.114255 -0.0859513 -0.061005 -0.0398185 -0.0227833 -0.0102753 -0.0026039 -2.85989e-26 0 -0.00316381 -0.0123095 -0.0274667 -0.0486193 -0.0758592 -0.108692 -0.145988 -0.187182 -0.231709 -0.278857 -0.327838 -0.377875 -0.428014 -0.477337 -0.52493 -0.569871 -0.611309 -0.648498 -0.680804 -0.70772 -0.728864 -0.743977 -0.752806 -0.755069 -0.752394 -0.743386 -0.728783 -0.708916 -0.684203 -0.655116 -0.622172 -0.58592 -0.546923 -0.505751 -0.462956 -0.4191 -0.374721 -0.330489 -0.286907 -0.244524 -0.203872 -0.165474 -0.129858 -0.0975906 -0.0691922 -0.0451065 -0.0257752 -0.0116095 -0.00293991 -3.22024e-26 0 -0.00347283 -0.0134745 -0.0300267 -0.0531394 -0.0829469 -0.118695 -0.159133 -0.203755 -0.251995 -0.303091 -0.356194 -0.410477 -0.46492 -0.518529 -0.570343 -0.619399 -0.664791 -0.705708 -0.741455 -0.771469 -0.795315 -0.812685 -0.823402 -0.826621 -0.824763 -0.81583 -0.800694 -0.779718 -0.753334 -0.72204 -0.686381 -0.64694 -0.604329 -0.559173 -0.512092 -0.463728 -0.414692 -0.365731 -0.317446 -0.270455 -0.225372 -0.182807 -0.143358 -0.107654 -0.0762626 -0.049669 -0.0283547 -0.0127586 -0.00322799 -3.53001e-26 0 -0.00372883 -0.0144319 -0.0321257 -0.0568554 -0.0887801 -0.126882 -0.16986 -0.217269 -0.268513 -0.322793 -0.37921 -0.43689 -0.494799 -0.551887 -0.60714 -0.659551 -0.708177 -0.752164 -0.790767 -0.823372 -0.849498 -0.868798 -0.881056 -0.885454 -0.884054 -0.875384 -0.859903 -0.838103 -0.810428 -0.777389 -0.739547 -0.69751 -0.651939 -0.603507 -0.552889 -0.500791 -0.44789 -0.394994 -0.342795 -0.291969 -0.243201 -0.197171 -0.154539 -0.115981 -0.0821047 -0.0534346 -0.0304822 -0.0137069 -0.00346366 -3.78449e-26 0 -0.00392758 -0.0151657 -0.033728 -0.0596975 -0.093237 -0.133092 -0.177976 -0.227479 -0.280983 -0.337654 -0.396549 -0.45675 -0.517213 -0.57687 -0.634702 -0.689662 -0.740759 -0.787107 -0.827933 -0.862581 -0.890532 -0.911404 -0.92495 -0.930394 -0.929426 -0.921101 -0.905474 -0.883156 -0.854588 -0.820283 -0.780815 -0.736821 -0.688994 -0.638045 -0.584693 -0.529695 -0.473782 -0.417813 -0.362555 -0.308728 -0.257077 -0.208336 -0.16322 -0.122438 -0.0866271 -0.056344 -0.0321231 -0.0144384 -0.00364403 -3.97951e-26 0 -0.00406573 -0.0156637 -0.0348051 -0.0616069 -0.0962289 -0.137213 -0.183328 -0.234184 -0.289151 -0.347377 -0.40789 -0.469737 -0.531848 -0.593136 -0.652609 -0.709232 -0.761991 -0.809965 -0.852347 -0.888459 -0.917753 -0.939818 -0.954381 -0.960712 -0.960154 -0.952245 -0.936678 -0.91415 -0.885092 -0.850018 -0.809515 -0.764234 -0.714893 -0.662227 -0.606991 -0.549978 -0.491961 -0.433831 -0.376416 -0.32047 -0.266784 -0.216131 -0.169267 -0.126924 -0.0897588 -0.0583516 -0.0332514 -0.0149374 -0.00376654 -4.11172e-26 0 -0.00413994 -0.015911 -0.0353183 -0.0624986 -0.0976145 -0.139064 -0.185635 -0.23699 -0.292497 -0.351304 -0.412442 -0.474941 -0.537703 -0.599626 -0.659741 -0.717052 -0.770583 -0.819408 -0.862704 -0.899769 -0.930032 -0.953057 -0.968545 -0.97583 -0.975741 -0.968308 -0.952996 -0.93056 -0.901424 -0.866099 -0.825172 -0.779304 -0.729218 -0.675667 -0.61943 -0.561323 -0.502142 -0.442799 -0.384162 -0.327011 -0.27217 -0.220437 -0.172587 -0.129369 -0.0914505 -0.0594254 -0.0338492 -0.0151965 -0.00382958 -4.17905e-26 0 -0.00415307 -0.015928 -0.0353299 -0.0625063 -0.097654 -0.139097 -0.185599 -0.236857 -0.292246 -0.350927 -0.411961 -0.474383 -0.537081 -0.598909 -0.658888 -0.716074 -0.769526 -0.818341 -0.861699 -0.898886 -0.929315 -0.952535 -0.968233 -0.975756 -0.975851 -0.968731 -0.953698 -0.931526 -0.902625 -0.867498 -0.826725 -0.780958 -0.730919 -0.677362 -0.621069 -0.562863 -0.503546 -0.444029 -0.385204 -0.327865 -0.272848 -0.220945 -0.172949 -0.129617 -0.0916004 -0.0595046 -0.0338838 -0.0152057 -0.00383106 -4.18044e-26 0 -0.00409943 -0.0156827 -0.0347465 -0.0614229 -0.0959626 -0.136709 -0.182354 -0.232635 -0.286954 -0.344495 -0.404345 -0.465581 -0.527164 -0.587931 -0.646883 -0.703069 -0.7556 -0.803638 -0.846393 -0.883163 -0.913364 -0.936538 -0.952357 -0.96021 -0.960719 -0.954414 -0.940199 -0.918886 -0.890866 -0.856623 -0.816722 -0.771806 -0.72259 -0.669819 -0.614273 -0.556776 -0.498131 -0.439243 -0.38102 -0.324263 -0.269806 -0.218426 -0.170922 -0.128051 -0.0904488 -0.0587246 -0.0334208 -0.0149893 -0.00377468 -4.11576e-26 0 -0.00398201 -0.0151915 -0.0336148 -0.059344 -0.0926963 -0.132152 -0.176265 -0.224809 -0.277235 -0.332763 -0.390517 -0.449621 -0.509081 -0.567816 -0.624865 -0.679251 -0.730099 -0.776609 -0.81805 -0.853775 -0.883213 -0.905911 -0.921539 -0.929522 -0.930316 -0.924605 -0.911187 -0.890866 -0.864007 -0.83107 -0.792597 -0.749208 -0.701594 -0.650475 -0.596614 -0.540816 -0.483871 -0.426665 -0.370095 -0.314944 -0.262013 -0.212076 -0.165918 -0.124262 -0.0877407 -0.0569478 -0.032401 -0.0145278 -0.00365722 -3.98604e-26 0 -0.00380265 -0.0144627 -0.0319557 -0.0563128 -0.0878979 -0.125485 -0.167422 -0.213496 -0.263235 -0.315908 -0.37069 -0.426754 -0.483179 -0.538946 -0.593148 -0.64489 -0.693311 -0.737612 -0.777112 -0.811201 -0.839357 -0.861158 -0.87628 -0.884185 -0.885211 -0.880109 -0.867646 -0.84