<?xml version="1.0"?>
<VTKFile type="PolyData">
	<PolyData>
		<Piece NumberOfPoints="2601" NumberOfPolys="2500">
			<Points>
				<DataArray type="Float32" NumberOfComponents="3" format="ascii">
 0 0 0 0.02 0 0 0.04 0 0 0.06 0 0 0.08 0 0 0.1 0 0 0.12 0 0 0.14 0 0 0.16 0 0 0.18 0 0 0.2 0 0 0.22 0 0 0.24 0 0 0.26 0 0 0.28 0 0 0.3 0 0 0.32 0 0 0.34 0 0 0.36 0 0 0.38 0 0 0.4 0 0 0.42 0 0 0.44 0 0 0.46 0 0 0.48 0 0 0.5 0 0 0.52 0 0 0.54 0 0 0.56 0 0 0.58 0 0 0.6 0 0 0.62 0 0 0.64 0 0 0.66 0 0 0.68 0 0 0.7 0 0 0.72 0 0 0.74 0 0 0.76 0 0 0.78 0 0 0.8 0 0 0.82 0 0 0.84 0 0 0.86 0 0 0.88 0 0 0.9 0 0 0.92 0 0 0.94 0 0 0.96 0 0 0.98 0 0 1 0 0 0 0.02 0 0.02 0.02 0 0.04 0.02 0 0.06 0.02 0 0.08 0.02 0 0.1 0.02 0 0.12 0.02 0 0.14 0.02 0 0.16 0.02 0 0.18 0.02 0 0.2 0.02 0 0.22 0.02 0 0.24 0.02 0 0.26 0.02 0 0.28 0.02 0 0.3 0.02 0 0.32 0.02 0 0.34 0.02 0 0.36 0.02 0 0.38 0.02 0 0.4 0.02 0 0.42 0.02 0 0.44 0.02 0 0.46 0.02 0 0.48 0.02 0 0.5 0.02 0 0.52 0.02 0 0.54 0.02 0 0.56 0.02 0 0.58 0.02 0 0.6 0.02 0 0.62 0.02 0 0.64 0.02 0 0.66 0.02 0 0.68 0.02 0 0.7 0.02 0 0.72 0.02 0 0.74 0.02 0 0.76 0.02 0 0.78 0.02 0 0.8 0.02 0 0.82 0.02 0 0.84 0.02 0 0.86 0.02 0 0.88 0.02 0 0.9 0.02 0 0.92 0.02 0 0.94 0.02 0 0.96 0.02 0 0.98 0.02 0 1 0.02 0 0 0.04 0 0.02 0.04 0 0.04 0.04 0 0.06 0.04 0 0.08 0.04 0 0.1 0.04 0 0.12 0.04 0 0.14 0.04 0 0.16 0.04 0 0.18 0.04 0 0.2 0.04 0 0.22 0.04 0 0.24 0.04 0 0.26 0.04 0 0.28 0.04 0 0.3 0.04 0 0.32 0.04 0 0.34 0.04 0 0.36 0.04 0 0.38 0.04 0 0.4 0.04 0 0.42 0.04 0 0.44 0.04 0 0.46 0.04 0 0.48 0.04 0 0.5 0.04 0 0.52 0.04 0 0.54 0.04 0 0.56 0.04 0 0.58 0.04 0 0.6 0.04 0 0.62 0.04 0 0.64 0.04 0 0.66 0.04 0 0.68 0.04 0 0.7 0.04 0 0.72 0.04 0 0.74 0.04 0 0.76 0.04 0 0.78 0.04 0 0.8 0.04 0 0.82 0.04 0 0.84 0.04 0 0.86 0.04 0 0.88 0.04 0 0.9 0.04 0 0.92 0.04 0 0.94 0.04 0 0.96 0.04 0 0.98 0.04 0 1 0.04 0 0 0.06 0 0.02 0.06 0 0.04 0.06 0 0.06 0.06 0 0.08 0.06 0 0.1 0.06 0 0.12 0.06 0 0.14 0.06 0 0.16 0.06 0 0.18 0.06 0 0.2 0.06 0 0.22 0.06 0 0.24 0.06 0 0.26 0.06 0 0.28 0.06 0 0.3 0.06 0 0.32 0.06 0 0.34 0.06 0 0.36 0.06 0 0.38 0.06 0 0.4 0.06 0 0.42 0.06 0 0.44 0.06 0 0.46 0.06 0 0.48 0.06 0 0.5 0.06 0 0.52 0.06 0 0.54 0.06 0 0.56 0.06 0 0.58 0.06 0 0.6 0.06 0 0.62 0.06 0 0.64 0.06 0 0.66 0.06 0 0.68 0.06 0 0.7 0.06 0 0.72 0.06 0 0.74 0.06 0 0.76 0.06 0 0.78 0.06 0 0.8 0.06 0 0.82 0.06 0 0.84 0.06 0 0.86 0.06 0 0.88 0.06 0 0.9 0.06 0 0.92 0.06 0 0.94 0.06 0 0.96 0.06 0 0.98 0.06 0 1 0.06 0 0 0.08 0 0.02 0.08 0 0.04 0.08 0 0.06 0.08 0 0.08 0.08 0 0.1 0.08 0 0.12 0.08 0 0.14 0.08 0 0.16 0.08 0 0.18 0.08 0 0.2 0.08 0 0.22 0.08 0 0.24 0.08 0 0.26 0.08 0 0.28 0.08 0 0.3 0.08 0 0.32 0.08 0 0.34 0.08 0 0.36 0.08 0 0.38 0.08 0 0.4 0.08 0 0.42 0.08 0 0.44 0.08 0 0.46 0.08 0 0.48 0.08 0 0.5 0.08 0 0.52 0.08 0 0.54 0.08 0 0.56 0.08 0 0.58 0.08 0 0.6 0.08 0 0.62 0.08 0 0.64 0.08 0 0.66 0.08 0 0.68 0.08 0 0.7 0.08 0 0.72 0.08 0 0.74 0.08 0 0.76 0.08 0 0.78 0.08 0 0.8 0.08 0 0.82 0.08 0 0.84 0.08 0 0.86 0.08 0 0.88 0.08 0 0.9 0.08 0 0.92 0.08 0 0.94 0.08 0 0.96 0.08 0 0.98 0.08 0 1 0.08 0 0 0.1 0 0.02 0.1 0 0.04 0.1 0 0.06 0.1 0 0.08 0.1 0 0.1 0.1 0 0.12 0.1 0 0.14 0.1 0 0.16 0.1 0 0.18 0.1 0 0.2 0.1 0 0.22 0.1 0 0.24 0.1 0 0.26 0.1 0 0.28 0.1 0 0.3 0.1 0 0.32 0.1 0 0.34 0.1 0 0.36 0.1 0 0.38 0.1 0 0.4 0.1 0 0.42 0.1 0 0.44 0.1 0 0.46 0.1 0 0.48 0.1 0 0.5 0.1 0 0.52 0.1 0 0.54 0.1 0 0.56 0.1 0 0.58 0.1 0 0.6 0.1 0 0.62 0.1 0 0.64 0.1 0 0.66 0.1 0 0.68 0.1 0 0.7 0.1 0 0.72 0.1 0 0.74 0.1 0 0.76 0.1 0 0.78 0.1 0 0.8 0.1 0 0.82 0.1 0 0.84 0.1 0 0.86 0.1 0 0.88 0.1 0 0.9 0.1 0 0.92 0.1 0 0.94 0.1 0 0.96 0.1 0 0.98 0.1 0 1 0.1 0 0 0.12 0 0.02 0.12 0 0.04 0.12 0 0.06 0.12 0 0.08 0.12 0 0.1 0.12 0 0.12 0.12 0 0.14 0.12 0 0.16 0.12 0 0.18 0.12 0 0.2 0.12 0 0.22 0.12 0 0.24 0.12 0 0.26 0.12 0 0.28 0.12 0 0.3 0.12 0 0.32 0.12 0 0.34 0.12 0 0.36 0.12 0 0.38 0.12 0 0.4 0.12 0 0.42 0.12 0 0.44 0.12 0 0.46 0.12 0 0.48 0.12 0 0.5 0.12 0 0.52 0.12 0 0.54 0.12 0 0.56 0.12 0 0.58 0.12 0 0.6 0.12 0 0.62 0.12 0 0.64 0.12 0 0.66 0.12 0 0.68 0.12 0 0.7 0.12 0 0.72 0.12 0 0.74 0.12 0 0.76 0.12 0 0.78 0.12 0 0.8 0.12 0 0.82 0.12 0 0.84 0.12 0 0.86 0.12 0 0.88 0.12 0 0.9 0.12 0 0.92 0.12 0 0.94 0.12 0 0.96 0.12 0 0.98 0.12 0 1 0.12 0 0 0.14 0 0.02 0.14 0 0.04 0.14 0 0.06 0.14 0 0.08 0.14 0 0.1 0.14 0 0.12 0.14 0 0.14 0.14 0 0.16 0.14 0 0.18 0.14 0 0.2 0.14 0 0.22 0.14 0 0.24 0.14 0 0.26 0.14 0 0.28 0.14 0 0.3 0.14 0 0.32 0.14 0 0.34 0.14 0 0.36 0.14 0 0.38 0.14 0 0.4 0.14 0 0.42 0.14 0 0.44 0.14 0 0.46 0.14 0 0.48 0.14 0 0.5 0.14 0 0.52 0.14 0 0.54 0.14 0 0.56 0.14 0 0.58 0.14 0 0.6 0.14 0 0.62 0.14 0 0.64 0.14 0 0.66 0.14 0 0.68 0.14 0 0.7 0.14 0 0.72 0.14 0 0.74 0.14 0 0.76 0.14 0 0.78 0.14 0 0.8 0.14 0 0.82 0.14 0 0.84 0.14 0 0.86 0.14 0 0.88 0.14 0 0.9 0.14 0 0.92 0.14 0 0.94 0.14 0 0.96 0.14 0 0.98 0.14 0 1 0.14 0 0 0.16 0 0.02 0.16 0 0.04 0.16 0 0.06 0.16 0 0.08 0.16 0 0.1 0.16 0 0.12 0.16 0 0.14 0.16 0 0.16 0.16 0 0.18 0.16 0 0.2 0.16 0 0.22 0.16 0 0.24 0.16 0 0.26 0.16 0 0.28 0.16 0 0.3 0.16 0 0.32 0.16 0 0.34 0.16 0 0.36 0.16 0 0.38 0.16 0 0.4 0.16 0 0.42 0.16 0 0.44 0.16 0 0.46 0.16 0 0.48 0.16 0 0.5 0.16 0 0.52 0.16 0 0.54 0.16 0 0.56 0.16 0 0.58 0.16 0 0.6 0.16 0 0.62 0.16 0 0.64 0.16 0 0.66 0.16 0 0.68 0.16 0 0.7 0.16 0 0.72 0.16 0 0.74 0.16 0 0.76 0.16 0 0.78 0.16 0 0.8 0.16 0 0.82 0.16 0 0.84 0.16 0 0.86 0.16 0 0.88 0.16 0 0.9 0.16 0 0.92 0.16 0 0.94 0.16 0 0.96 0.16 0 0.98 0.16 0 1 0.16 0 0 0.18 0 0.02 0.18 0 0.04 0.18 0 0.06 0.18 0 0.08 0.18 0 0.1 0.18 0 0.12 0.18 0 0.14 0.18 0 0.16 0.18 0 0.18 0.18 0 0.2 0.18 0 0.22 0.18 0 0.24 0.18 0 0.26 0.18 0 0.28 0.18 0 0.3 0.18 0 0.32 0.18 0 0.34 0.18 0 0.36 0.18 0 0.38 0.18 0 0.4 0.18 0 0.42 0.18 0 0.44 0.18 0 0.46 0.18 0 0.48 0.18 0 0.5 0.18 0 0.52 0.18 0 0.54 0.18 0 0.56 0.18 0 0.58 0.18 0 0.6 0.18 0 0.62 0.18 0 0.64 0.18 0 0.66 0.18 0 0.68 0.18 0 0.7 0.18 0 0.72 0.18 0 0.74 0.18 0 0.76 0.18 0 0.78 0.18 0 0.8 0.18 0 0.82 0.18 0 0.84 0.18 0 0.86 0.18 0 0.88 0.18 0 0.9 0.18 0 0.92 0.18 0 0.94 0.18 0 0.96 0.18 0 0.98 0.18 0 1 0.18 0 0 0.2 0 0.02 0.2 0 0.04 0.2 0 0.06 0.2 0 0.08 0.2 0 0.1 0.2 0 0.12 0.2 0 0.14 0.2 0 0.16 0.2 0 0.18 0.2 0 0.2 0.2 0 0.22 0.2 0 0.24 0.2 0 0.26 0.2 0 0.28 0.2 0 0.3 0.2 0 0.32 0.2 0 0.34 0.2 0 0.36 0.2 0 0.38 0.2 0 0.4 0.2 0 0.42 0.2 0 0.44 0.2 0 0.46 0.2 0 0.48 0.2 0 0.5 0.2 0 0.52 0.2 0 0.54 0.2 0 0.56 0.2 0 0.58 0.2 0 0.6 0.2 0 0.62 0.2 0 0.64 0.2 0 0.66 0.2 0 0.68 0.2 0 0.7 0.2 0 0.72 0.2 0 0.74 0.2 0 0.76 0.2 0 0.78 0.2 0 0.8 0.2 0 0.82 0.2 0 0.84 0.2 0 0.86 0.2 0 0.88 0.2 0 0.9 0.2 0 0.92 0.2 0 0.94 0.2 0 0.96 0.2 0 0.98 0.2 0 1 0.2 0 0 0.22 0 0.02 0.22 0 0.04 0.22 0 0.06 0.22 0 0.08 0.22 0 0.1 0.22 0 0.12 0.22 0 0.14 0.22 0 0.16 0.22 0 0.18 0.22 0 0.2 0.22 0 0.22 0.22 0 0.24 0.22 0 0.26 0.22 0 0.28 0.22 0 0.3 0.22 0 0.32 0.22 0 0.34 0.22 0 0.36 0.22 0 0.38 0.22 0 0.4 0.22 0 0.42 0.22 0 0.44 0.22 0 0.46 0.22 0 0.48 0.22 0 0.5 0.22 0 0.52 0.22 0 0.54 0.22 0 0.56 0.22 0 0.58 0.22 0 0.6 0.22 0 0.62 0.22 0 0.64 0.22 0 0.66 0.22 0 0.68 0.22 0 0.7 0.22 0 0.72 0.22 0 0.74 0.22 0 0.76 0.22 0 0.78 0.22 0 0.8 0.22 0 0.82 0.22 0 0.84 0.22 0 0.86 0.22 0 0.88 0.22 0 0.9 0.22 0 0.92 0.22 0 0.94 0.22 0 0.96 0.22 0 0.98 0.22 0 1 0.22 0 0 0.24 0 0.02 0.24 0 0.04 0.24 0 0.06 0.24 0 0.08 0.24 0 0.1 0.24 0 0.12 0.24 0 0.14 0.24 0 0.16 0.24 0 0.18 0.24 0 0.2 0.24 0 0.22 0.24 0 0.24 0.24 0 0.26 0.24 0 0.28 0.24 0 0.3 0.24 0 0.32 0.24 0 0.34 0.24 0 0.36 0.24 0 0.38 0.24 0 0.4 0.24 0 0.42 0.24 0 0.44 0.24 0 0.46 0.24 0 0.48 0.24 0 0.5 0.24 0 0.52 0.24 0 0.54 0.24 0 0.56 0.24 0 0.58 0.24 0 0.6 0.24 0 0.62 0.24 0 0.64 0.24 0 0.66 0.24 0 0.68 0.24 0 0.7 0.24 0 0.72 0.24 0 0.74 0.24 0 0.76 0.24 0 0.78 0.24 0 0.8 0.24 0 0.82 0.24 0 0.84 0.24 0 0.86 0.24 0 0.88 0.24 0 0.9 0.24 0 0.92 0.24 0 0.94 0.24 0 0.96 0.24 0 0.98 0.24 0 1 0.24 0 0 0.26 0 0.02 0.26 0 0.04 0.26 0 0.06 0.26 0 0.08 0.26 0 0.1 0.26 0 0.12 0.26 0 0.14 0.26 0 0.16 0.26 0 0.18 0.26 0 0.2 0.26 0 0.22 0.26 0 0.24 0.26 0 0.26 0.26 0 0.28 0.26 0 0.3 0.26 0 0.32 0.26 0 0.34 0.26 0 0.36 0.26 0 0.38 0.26 0 0.4 0.26 0 0.42 0.26 0 0.44 0.26 0 0.46 0.26 0 0.48 0.26 0 0.5 0.26 0 0.52 0.26 0 0.54 0.26 0 0.56 0.26 0 0.58 0.26 0 0.6 0.26 0 0.62 0.26 0 0.64 0.26 0 0.66 0.26 0 0.68 0.26 0 0.7 0.26 0 0.72 0.26 0 0.74 0.26 0 0.76 0.26 0 0.78 0.26 0 0.8 0.26 0 0.82 0.26 0 0.84 0.26 0 0.86 0.26 0 0.88 0.26 0 0.9 0.26 0 0.92 0.26 0 0.94 0.26 0 0.96 0.26 0 0.98 0.26 0 1 0.26 0 0 0.28 0 0.02 0.28 0 0.04 0.28 0 0.06 0.28 0 0.08 0.28 0 0.1 0.28 0 0.12 0.28 0 0.14 0.28 0 0.16 0.28 0 0.18 0.28 0 0.2 0.28 0 0.22 0.28 0 0.24 0.28 0 0.26 0.28 0 0.28 0.28 0 0.3 0.28 0 0.32 0.28 0 0.34 0.28 0 0.36 0.28 0 0.38 0.28 0 0.4 0.28 0 0.42 0.28 0 0.44 0.28 0 0.46 0.28 0 0.48 0.28 0 0.5 0.28 0 0.52 0.28 0 0.54 0.28 0 0.56 0.28 0 0.58 0.28 0 0.6 0.28 0 0.62 0.28 0 0.64 0.28 0 0.66 0.28 0 0.68 0.28 0 0.7 0.28 0 0.72 0.28 0 0.74 0.28 0 0.76 0.28 0 0.78 0.28 0 0.8 0.28 0 0.82 0.28 0 0.84 0.28 0 0.86 0.28 0 0.88 0.28 0 0.9 0.28 0 0.92 0.28 0 0.94 0.28 0 0.96 0.28 0 0.98 0.28 0 1 0.28 0 0 0.3 0 0.02 0.3 0 0.04 0.3 0 0.06 0.3 0 0.08 0.3 0 0.1 0.3 0 0.12 0.3 0 0.14 0.3 0 0.16 0.3 0 0.18 0.3 0 0.2 0.3 0 0.22 0.3 0 0.24 0.3 0 0.26 0.3 0 0.28 0.3 0 0.3 0.3 0 0.32 0.3 0 0.34 0.3 0 0.36 0.3 0 0.38 0.3 0 0.4 0.3 0 0.42 0.3 0 0.44 0.3 0 0.46 0.3 0 0.48 0.3 0 0.5 0.3 0 0.52 0.3 0 0.54 0.3 0 0.56 0.3 0 0.58 0.3 0 0.6 0.3 0 0.62 0.3 0 0.64 0.3 0 0.66 0.3 0 0.68 0.3 0 0.7 0.3 0 0.72 0.3 0 0.74 0.3 0 0.76 0.3 0 0.78 0.3 0 0.8 0.3 0 0.82 0.3 0 0.84 0.3 0 0.86 0.3 0 0.88 0.3 0 0.9 0.3 0 0.92 0.3 0 0.94 0.3 0 0.96 0.3 0 0.98 0.3 0 1 0.3 0 0 0.32 0 0.02 0.32 0 0.04 0.32 0 0.06 0.32 0 0.08 0.32 0 0.1 0.32 0 0.12 0.32 0 0.14 0.32 0 0.16 0.32 0 0.18 0.32 0 0.2 0.32 0 0.22 0.32 0 0.24 0.32 0 0.26 0.32 0 0.28 0.32 0 0.3 0.32 0 0.32 0.32 0 0.34 0.32 0 0.36 0.32 0 0.38 0.32 0 0.4 0.32 0 0.42 0.32 0 0.44 0.32 0 0.46 0.32 0 0.48 0.32 0 0.5 0.32 0 0.52 0.32 0 0.54 0.32 0 0.56 0.32 0 0.58 0.32 0 0.6 0.32 0 0.62 0.32 0 0.64 0.32 0 0.66 0.32 0 0.68 0.32 0 0.7 0.32 0 0.72 0.32 0 0.74 0.32 0 0.76 0.32 0 0.78 0.32 0 0.8 0.32 0 0.82 0.32 0 0.84 0.32 0 0.86 0.32 0 0.88 0.32 0 0.9 0.32 0 0.92 0.32 0 0.94 0.
[...]
			<PointData Scalars="VitesseX">
				<DataArray Name="VitesseX" type="Float32" format="ascii">
 0 0 0 0 0 0 0 0 0 0 0 0 0 0 0 0 0 0 0 0 0 0 0 0 0 0 0 0 0 0 0 0 0 0 0 0 0 0 0 0 0 0 0 0 0 0 0 0 0 0 0 0 0.000321137 0.00127845 0.00287484 0.00497947 0.00782168 0.0110981 0.0148191 0.0189318 0.0233706 0.0280639 0.0329366 0.0379102 0.0429063 0.0478428 0.0526396 0.0572183 0.0615035 0.065418 0.0688992 0.0718921 0.0743441 0.0761588 0.0772663 0.0776172 0.0779025 0.0765925 0.0755877 0.0741029 0.0720521 0.0694724 0.0663998 0.062887 0.0589904 0.0547686 0.0502877 0.0456193 0.0408366 0.0360151 0.0312342 0.0265687 0.0220908 0.0178713 0.0139769 0.0104692 0.00740325 0.00482477 0.00277058 0.00126906 0.000346485 3.28594e-27 0 0.000616107 0.00245543 0.00550851 0.00970305 0.0149823 0.0212465 0.0283969 0.0363178 0.0448821 0.0539526 0.0633847 0.0730279 0.0827322 0.0923401 0.101696 0.110652 0.119063 0.126793 0.133711 0.139709 0.144687 0.148553 0.151201 0.152531 0.153034 0.151943 0.150077 0.147156 0.143098 0.137996 0.131913 0.124957 0.117239 0.108866 0.0999719 0.0907004 0.081201 0.0716209 0.0621124 0.0528368 0.043935 0.0355464 0.0278037 0.0208288 0.0147307 0.00960139 0.00551631 0.00253362 0.000671286 6.52005e-27 0 0.000901547 0.00359531 0.0080497 0.0141796 0.0218867 0.0310446 0.0415045 0.053098 0.0656397 0.0789302 0.0927586 0.106906 0.121155 0.135277 0.149044 0.162239 0.174654 0.18609 0.196366 0.205313 0.21279 0.218665 0.222834 0.225184 0.225969 0.22489 0.222279 0.217995 0.212017 0.204473 0.195479 0.185189 0.173772 0.161385 0.148215 0.13448 0.120403 0.106203 0.0921077 0.0783519 0.0651513 0.0527125 0.0412311 0.0308877 0.0218436 0.0142363 0.00817819 0.00375721 0.00103569 9.65132e-27 0 0.00117324 0.00468029 0.0104617 0.0184257 0.0284405 0.0403426 0.0539395 0.0690131 0.0853232 0.102612 0.120606 0.139023 0.157585 0.175992 0.19395 0.21118 0.22741 0.242386 0.25587 0.267649 0.277536 0.285364 0.291 0.29433 0.295435 0.294303 0.291016 0.28547 0.277708 0.26787 0.256119 0.242649 0.227701 0.21149 0.194246 0.176254 0.157805 0.139197 0.120732 0.102699 0.0853926 0.069086 0.054035 0.040476 0.0286202 0.0186486 0.010709 0.00491661 0.00135412 1.26303e-26 0 0.00142678 0.00568584 0.0127087 0.0223805 0.0345426 0.0489969 0.0655099 0.0838174 0.103629 0.124632 0.146499 0.168886 0.191459 0.213857 0.235722 0.256716 0.276511 0.294799 0.311292 0.32573 0.337887 0.347564 0.354599 0.35886 0.360285 0.359091 0.355196 0.348492 0.339097 0.327157 0.312857 0.296436 0.27819 0.258393 0.237333 0.215355 0.192815 0.170082 0.147524 0.125483 0.104331 0.0844009 0.0660065 0.0494366 0.0349491 0.0227654 0.0130665 0.00599304 0.0016455 1.54101e-26 0 0.00165842 0.00660334 0.0147564 0.0259828 0.0400984 0.0568731 0.0760362 0.0972817 0.120274 0.144652 0.170036 0.196032 0.222254 0.248285 0.273709 0.298136 0.321188 0.342506 0.361757 0.378639 0.392888 0.404271 0.412604 0.417736 0.419484 0.41823 0.413804 0.406065 0.395192 0.381355 0.364759 0.345674 0.324421 0.301339 0.276787 0.251161 0.224874 0.198358 0.172047 0.146341 0.121664 0.0984126 0.0769542 0.0576259 0.0407288 0.0265209 0.0152134 0.00696976 0.00190673 1.79465e-26 0 0.00186313 0.00741779 0.0165728 0.0291763 0.0450209 0.063848 0.085354 0.109196 0.134998 0.162358 0.190852 0.220038 0.249489 0.278737 0.307315 0.334789 0.360735 0.384751 0.406464 0.425535 0.441662 0.454581 0.464093 0.470024 0.472089 0.470792 0.46591 0.457275 0.445113 0.429605 0.410988 0.389551 0.365639 0.339641 0.311977 0.283095 0.253463 0.223567 0.193904 0.16493 0.137111 0.110896 0.0867037 0.0649146 0.0458685 0.0298567 0.0171167 0.00783246 0.0021346 2.01998e-26 0 0.00203916 0.00811622 0.0181291 0.0319104 0.0492325 0.069812 0.0933167 0.119373 0.147571 0.177473 0.208618 0.240526 0.272733 0.30473 0.336006 0.366091 0.394522 0.420861 0.4447 0.465673 0.48343 0.497681 0.508216 0.514859 0.51725 0.515952 0.510715 0.501331 0.488075 0.47114 0.450788 0.427337 0.401161 0.372678 0.342346 0.310662 0.278144 0.245324 0.212758 0.180957 0.150423 0.121651 0.0950986 0.0711864 0.0502871 0.0327206 0.0187475 0.00856866 0.00232649 2.21344e-26 0 0.00218338 0.00868742 0.0194005 0.0341417 0.0526662 0.0746702 0.0997979 0.12765 0.157791 0.189755 0.223051 0.257169 0.291615 0.325849 0.359325 0.391544 0.422008 0.450259 0.475845 0.498367 0.517479 0.532871 0.544295 0.551559 0.554268 0.55299 0.547485 0.537509 0.52338 0.505305 0.483559 0.458488 0.430482 0.399977 0.36746 0.333463 0.298552 0.263302 0.228325 0.194179 0.161396 0.130508 0.102007 0.0763424 0.0539151 0.0350681 0.0200808 0.00916764 0.00248019 2.37199e-26 0 0.00229334 0.00912213 0.0203664 0.0358343 0.055267 0.0783446 0.104693 0.133895 0.165495 0.199007 0.233918 0.269698 0.305831 0.341754 0.376896 0.410737 0.442759 0.472463 0.499388 0.523122 0.543302 0.559604 0.571755 0.579542 0.582546 0.581322 0.575657 0.565265 0.550495 0.531566 0.508763 0.482446 0.453029 0.420974 0.386793 0.351043 0.314317 0.277213 0.240371 0.204395 0.169861 0.137331 0.107322 0.080303 0.0566964 0.036863 0.0210962 0.00962064 0.00259389 2.49316e-26 0 0.00236725 0.00941329 0.0210113 0.0369605 0.0569928 0.0807756 0.107923 0.138006 0.170557 0.20508 0.241048 0.277914 0.315154 0.352191 0.388438 0.423372 0.456436 0.487111 0.514954 0.539544 0.560495 0.577462 0.590161 0.598363 0.601635 0.6005 0.594797 0.58418 0.569023 0.549549 0.526052 0.4989 0.468523 0.435407 0.400086 0.363133 0.325158 0.286776 0.24865 0.211424 0.175684 0.142015 0.110963 0.0830083 0.0585889 0.038078 0.0217786 0.00992114 0.00266627 2.57505e-26 0 0.00240302 0.00955084 0.0213091 0.0374704 0.0577592 0.0818383 0.109318 0.139763 0.172703 0.207636 0.244032 0.281345 0.319046 0.356564 0.393325 0.428771 0.462332 0.493518 0.521886 0.546994 0.568447 0.585892 0.599025 0.607607 0.611216 0.610222 0.604601 0.593954 0.578671 0.558977 0.535174 0.507631 0.476786 0.443138 0.407227 0.369632 0.330974 0.291886 0.253055 0.215147 0.178763 0.144488 0.112872 0.0844184 0.0595646 0.0386955 0.0221182 0.010065 0.00269661 2.6164e-26 0 0.00240213 0.00954525 0.0212927 0.0374353 0.057696 0.0817367 0.109167 0.139554 0.172428 0.207286 0.243602 0.280836 0.318465 0.355924 0.392667 0.428089 0.461633 0.492841 0.521256 0.546439 0.567986 0.585532 0.598769 0.607457 0.611186 0.610282 0.604768 0.594209 0.578996 0.559351 0.535585 0.508063 0.477222 0.443566 0.407638 0.370023 0.331332 0.292186 0.253281 0.215296 0.178849 0.144537 0.112897 0.0844186 0.0595511 0.0386742 0.0220951 0.0100453 0.00268379 2.61659e-26 0 0.002363 0.00938686 0.0209331 0.036792 0.0566884 0.0802882 0.107208 0.137023 0.169271 0.203461 0.239079 0.275603 0.312524 0.349333 0.385427 0.420221 0.453211 0.483947 0.511981 0.536877 0.558218 0.57564 0.58884 0.597584 0.60149 0.600854 0.595798 0.585709 0.570996 0.551859 0.528608 0.501597 0.471255 0.438079 0.40263 0.365503 0.327302 0.288636 0.250181 0.212609 0.176554 0.142624 0.11137 0.0832581 0.0586987 0.0380979 0.0217489 0.00987598 0.00263058 2.57561e-26 0 0.00228656 0.00908 0.0202414 0.0355639 0.0547782 0.0775584 0.103535 0.132294 0.163392 0.196359 0.230706 0.265933 0.301554 0.337127 0.371994 0.405608 0.43753 0.467323 0.494553 0.518769 0.539563 0.55659 0.569564 0.578255 0.582309 0.581903 0.577303 0.567789 0.553773 0.535429 0.513047 0.486967 0.457596 0.425433 0.391028 0.354966 0.317859 0.28031 0.242959 0.20645 0.171394 0.1384 0.108025 0.0807296 0.0568993 0.0369118 0.0210563 0.00955018 0.00253624 2.49414e-26 0 0.00217398 0.00862936 0.0192292 0.0337729 0.0519992 0.0735911 0.0982 0.125436 0.15488 0.186094 0.218619 0.251987 0.285759 0.319493 0.352569 0.384487 0.414849 0.443247 0.469235 0.492379 0.512302 0.528686 0.541265 0.54979 0.553953 0.553801 0.549763 0.541008 0.527937 0.510696 0.489554 0.464837 0.436927 0.4063 0.373474 0.339024 0.30356 0.267669 0.231975 0.197097 0.163597 0.132053 0.103013 0.076948 0.0542286 0.0351532 0.0200363 0.00907586 0.00240281 2.37346e-26 0 0.00202708 0.00804266 0.0179143 0.0314491 0.0483924 0.0684424 0.0912819 0.116552 0.14387 0.172832 0.203014 0.233985 0.265379 0.29673 0.327478 0.357198 0.385531 0.412079 0.436404 0.45811 0.476868 0.492392 0.504402 0.512635 0.516861 0.517 0.513637 0.505823 0.493934 0.478091 0.45854 0.435577 0.409556 0.380926 0.350197 0.317919 0.284647 0.250947 0.217434 0.184699 0.153273 0.123678 0.0964251 0.0719868 0.0507067 0.0328486 0.0187054 0.00846091 0.00223257 2.21548e-26 0 0.00184827 0.00732919 0.016314 0.0286188 0.043998 0.06218 0.0828838 0.105786 0.130541 0.156785 0.184138 0.212214 0.24071 0.26918 0.297118 0.324179 0.35003 0.37429 0.396571 0.416522 0.433847 0.44828 0.459534 0.467365 0.471613 0.472083 0.469502 0.462805 0.452321 0.438144 0.420501 0.399648 0.375913 0.349718 0.32155 0.291929 0.261379 0.230408 0.199578 0.169469 0.140587 0.113397 0.0883593 0.0659104 0.0463834 0.0300333 0.0170856 0.00771561 0.00202837 2.02267e-26 0 0.00164006 0.00649845 0.01445 0.0253188 0.0388824 0.0549063 0.0731463 0.0933172 0.115111 0.138211 0.162291 0.187026 0.21215 0.237278 0.261968 0.28594 0.308891 0.330483 0.350379 0.36828 0.383915 0.397027 0.407361 0.414688 0.418887 0.419831 0.418022 0.412648 0.403775 0.391507 0.376048 0.357616 0.336516 0.313148 0.28797 0.261459 0.23409 0.206338 0.17868 0.151653 0.125741 0.101372 0.0789385 0.058826 0.0413599 0.0267648 0.0152041 0.00685245 0.00179339 1.79805e-26 0 0.00140566 0.00556349 0.0123544 0.0216072 0.0331359 0.0467512 0.062238 0.0793488 0.097824 0.117405 0.137824 0.158825 0.180164 0.201535 0.222584 0.243075 0.262757 0.281353 0.298555 0.314126 0.327838 0.339439 0.348709 0.355435 0.359536 0.361007 0.360029 0.356144 0.349069 0.338919 0.325872 0.310125 0.291965 0.271772 0.249968 0.226977 0.203215 0.179096 0.155047 0.131524 0.108972 0.0877909 0.0683059 0.0508483 0.0357136 0.0230841 0.0130908 0.00588525 0.00153231 1.54514e-26 0 0.00114935 0.00454055 0.0100538 0.0175407 0.0268571 0.0378502 0.0503316 0.0640994 0.0789553 0.0947 0.111128 0.128049 0.145256 0.162519 0.179581 0.196258 0.212359 0.227651 0.241885 0.25489 0.266475 0.276414 0.284505 0.290544 0.29452 0.296488 0.296393 0.293987 0.288754 0.280897 0.270543 0.257802 0.2429 0.226206 0.208122 0.189014 0.169228 0.149115 0.129042 0.109393 0.090548 0.0728676 0.0566288 0.042098 0.029521 0.0190447 0.0107783 0.00483036 0.00125004 1.26802e-26 0 0.000874837 0.00344101 0.0075829 0.01319 0.0201546 0.0283451 0.0376109 0.04781 0.058806 0.0704574 0.0826281 0.0951847 0.107972 0.120836 0.133627 0.146226 0.158477 0.170191 0.1812 0.191413 0.200699 0.208857 0.215694 0.221015 0.224887 0.227262 0.22783 0.226328 0.222716 0.217259 0.210043 0.200968 0.189895 0.177101 0.163066 0.148153 0.132654 0.116859 0.101065 0.0855981 0.0707495 0.0568353 0.04409 0.0327073 0.0228806 0.0147212 0.00830541 0.00370616 0.000951577 9.71078e-27 0 0.000585454 0.00227799 0.00498669 0.00863582 0.0131357 0.0183809 0.0242757 0.0307406 0.0376978 0.0450708 0.0527818 0.0607464 0.0688856 0.077137 0.0854526 0.0937754 0.101977 0.109933 0.117564 0.124836 0.131648 0.13784 0.143276 0.147857 0.151666 0.154407 0.155395 0.154785 0.152812 0.149683 0.145478 0.14017 0.133465 0.125115 0.115476 0.105027 0.0940652 0.0828299 0.0715581 0.0604999 0.0498797 0.0399458 0.0308838 0.022822 0.0158995 0.0101848 0.00571385 0.00253171 0.000641865 6.58868e-27 0 0.000282469 0.00107696 0.00232138 0.0039543 0.00590209 0.00810848 0.0105372 0.0131641 0.0159601 0.0189103 0.0220102 0.0252384 0.0285974 0.0321136 0.0358202 0.0397231 0.0437715 0.047894 0.0520631 0.0562936 0.0605261 0.0646462 0.0685547 0.0722013 0.0757247 0.0792057 0.080839 0.0815843 0.0814848 0.0807388 0.0793003 0.0773072 0.0746996 0.0710086 0.0660749 0.0603107 0.0540666 0.0475635 0.0409823 0.0344971 0.0282699 0.0224636 0.0172173 0.0125999 0.00868645 0.00550368 0.00304686 0.00132743 0.000328009 3.36568e-27 0 -2.26377e-05 -0.000127642 -0.00037092 -0.000798359 -0.00144221 -0.00231201 -0.00338907 -0.00466405 -0.006105 -0.00765714 -0.009244 -0.010803 -0.0122743 -0.0135587 -0.0145404 -0.0151276 -0.0152875 -0.0150352 -0.0143793 -0.0132589 -0.0116275 -0.00956576 -0.00716572 -0.00438899 -0.00128545 0.00278203 0.00520546 0.00752627 0.00952654 0.0112973 0.0127243 0.0139614 0.0150986 0.0158134 0.0156673 0.0147082 0.0132884 0.0116153 0.00981748 0.00799824 0.00625171 0.00465833 0.00330426 0.00219925 0.00135336 0.000751408 0.000346011 0.000114052 1.81105e-05 7.44248e-29 0 -0.000343963 -0.0013526 -0.00308568 -0.00556538 -0.00878344 -0.012703 -0.0172849 -0.0224595 -0.0281224 -0.0341465 -0.0403915 -0.0467092 -0.0529838 -0.0590475 -0.064702 -0.0697713 -0.0741419 -0.0777524 -0.0805605 -0.0825026 -0.083477 -0.0835003 -0.0824864 -0.0803702 -0.0775085 -0.0737939 -0.0703865 -0.0665121 -0.0624121 -0.0580617 -0.0536366 -0.0491046 -0.0443205 -0.0394394 -0.0349465 -0.031091 -0.027664 -0.0244845 -0.0214771 -0.018608 -0.0158564 -0.0132096 -0.010652 -0.00823067 -0.00599326 -0.00400398 -0.00235553 -0.00109532 -0.000286143 -3.25487e-27 0 -0.000677614 -0.00258774 -0.00579181 -0.0102834 -0.0160264 -0.0229596 -0.0309935 -0.0399895 -0.0497844 -0.0601921 -0.0710049 -0.0819912 -0.0929635 -0.103702 -0.113936 -0.123412 -0.131927 -0.139345 -0.145558 -0.150466 -0.153953 -0.155901 -0.156329 -0.155107 -0.152654 -0.149079 -0.144715 -0.139362 -0.133219 -0.126345 -0.118933 -0.111073 -0.102674 -0.0937322 -0.0847525 -0.0761942 -0.0680099 -0.0600531 -0.0523119 -0.0448227 -0.0376354 -0.0308091 -0.0243975 -0.0185033 -0.0132279 -0.00868708 -0.00501594 -0.00228579 -0.000585074 -6.49252e-27 0 -0.00101048 -0.00380096 -0.00842816 -0.0148717 -0.0230695 -0.0329259 -0.0442845 -0.0569636 -0.0707446 -0.0853781 -0.100592 -0.116094 -0.131592 -0.146826 -0.161474 -0.175206 -0.187732 -0.198846 -0.20838 -0.216168 -0.222071 -0.225985 -0.227754 -0.227657 -0.225661 -0.22193 -0.216702 -0.209957 -0.201901 -0.192679 -0.182416 -0.171243 -0.15917 -0.14626 -0.132993 -0.119916 -0.107141 -0.0945583 -0.0822261 -0.070254 -0.0587607 -0.0478833 -0.0377292 -0.0284665 -0.0202449 -0.0132304 -0.00759521 -0.0034386 -0.000873928 -9.61659e-27 0 -0.00133383 -0.00496254 -0.0109514 -0.0192611 -0.0298008 -0.0424187 -0.0569284 -0.0730984 -0.0906563 -0.109295 -0.12868 -0.148468 -0.168276 -0.187765 -0.206582 -0.224344 -0.240689 -0.25532 -0.268025 -0.2786 -0.286851 -0.29266 -0.295887 -0.296706 -0.295188 -0.291328 -0.285413 -0.277425 -0.26754 -0.255965 -0.242864 -0.22844 -0.212842 -0.196225 -0.17896 -0.161582 -0.144443 -0.12746 -0.110751 -0.0945034 -0.078902 -0.0641617 -0.0504368 -0.0379651 -0.0269336 -0.0175604 -0.010052 -0.00453614 -0.00114873 -1.25913e-26 0 -0.00163824 -0.00605363 -0.0133233 -0.0233772 -0.036088 -0.0512791 -0.0687188 -0.0881325 -0.109201 -0.131563 -0.154827 -0.178601 -0.202439 -0.225904 -0.248588 -0.27008 -0.289976 -0.307899 -0.323561 -0.336746 -0.347227 -0.35484 -0.359457 -0.361072 -0.360031 -0.356122 -0.349506 -0.340308 -0.328704 -0.314921 -0.299205 -0.281827 -0.263023 -0.242978 -0.221967 -0.200552 -0.179328 -0.158239 -0.137435 -0.117185 -0.0977379 -0.0793844 -0.0623212 -0.0468484 -0.0331876 -0.0216061 -0.0123447 -0.00556051 -0.00140537 -1.53701e-26 0 -0.00191811 -0.00706238 -0.015499 -0.027139 -0.0418277 -0.0593572 -0.0794632 -0.101829 -0.126089 -0.151835 -0.178625 -0.206017 -0.233515 -0.260624 -0.286852 -0.311741 -0.334849 -0.355776 -0.374155 -0.389718 -0.402252 -0.411542 -0.41747 -0.419799 -0.419252 -0.415217 -0.407927 -0.397619 -0.384495 -0.368798 -0.350809 -0.330818 -0.309088 -0.285839 -0.261342 -0.236222 -0.211241 -0.186399 -0.161852 -0.137939 -0.114974 -0.0933173 -0.0731973 -0.0549736 -0.0389067 -0.0253037 -0.0144385 -0.00649504 -0.00163969 -1.79088e-26 0 -0.00217312 -0.00796448 -0.0174379 -0.0304835 -0.0469264 -0.066529 -0.0889945 -0.11397 -0.141051 -0.169786 -0.199691 -0.230283 -0.261019 -0.29135 -0.320735 -0.348659 -0.374638 -0.398241 -0.41906 -0.436757 -0.451121 -0.461937 -0.469034 -0.472067 -0.471891 -0.467756 -0.459952 -0.448741 -0.434326 -0.416965 -0.396957 -0.37462 -0.350256 -0.324109 -0.296467 -0.268024 -0.239676 -0.211496 -0.183618 -0.156445 -0.130351 -0.105742 -0.082891 -0.0622115 -0.0440016 -0.028597 -0.0163026 -0.00732619 -0.00184796 -2.01663e-26 0 -0.00239577 -0.00874291 -0.0191066 -0.0333589 -0.0513034 -0.0726778 -0.0971574 -0.124359 -0.153844 -0.185127 -0.217687 -0.25101 -0.284513 -0.317601 -0.349686 -0.380208 -0.408672 -0.434593 -0.457521 -0.477092 -0.493042 -0.505166 -0.513274 -0.516969 -0.51708 -0.512962 -0.504769 -0.492817 -0.477321 -0.458551 -0.436819 -0.412466 -0.385829 -0.357175 -0.326814 -0.295499 -0.264272 -0.233201 -0.202435 -0.172433 -0.143641 -0.116466 -0.0912509 -0.0684509 -0.0483934 -0.0314348 -0.0179074 -0.00804151 -0.00202702 -2.21064e-26 0 -0.0025809 -0.00938575 -0.0204791 -0.0357175 -0.0548861 -0.0777024 -0.103819 -0.132827 -0.164262 -0.19761 -0.232323 -0.267862 -0.303618 -0.338954 -0.37325 -0.405904 -0.436383 -0.464192 -0.488866 -0.510005 -0.527278 -0.540477 -0.549443 -0.553742 -0.554121 -0.550076 -0.541606 -0.529082 -0.51273 -0.492827 -0.469699 -0.443708 -0.415215 -0.384514 -0.351904 -0.318282 -0.284705 -0.2512 -0.218021 -0.185665 -0.15464 -0.125325 -0.0981502 -0.0735963 -0.0520108 -0.0337702 -0.0192272 -0.00862942 -0.00217406 -2.36979e-26 0 -0.00272636 -0.00988234 -0.0215322 -0.0375195 -0.0576151 -0.08152 -0.10887 -0.139236 -0.172135 -0.207033 -0.243362 -0.280566 -0.318022 -0.355064 -0.391044 -0.425331 -0.457356 -0.486614 -0.512626 -0.534972 -0.553305 -0.567367 -0.57701 -0.581818 -0.582435 -0.578489 -0.569852 -0.556933 -0.539963 -0.519228 -0.495063 -0.467842 -0.43793 -0.405639 -0.371283 -0.335928 -0.300533 -0.265132 -0.230087 -0.195916 -0.163165 -0.132182 -0.103481 -0.0775661 -0.0547953 -0.035565 -0.0202413 -0.00908057 -0.00228672 -2.4916e-26 0 -0.00282958 -0.0102241 -0.0222479 -0.0387347 -0.0594446 -0.0840676 -0.112227 -0.143483 -0.177338 -0.213245 -0.250626 -0.288917 -0.32749 -0.365668 -0.402779 -0.438172 -0.471253 -0.501501 -0.528437 -0.551628 -0.570715 -0.585411 -0.595557 -0.600762 -0.601576 -0.597754 -0.589066 -0.57594 -0.558603 -0.537344 -0.512505 -0.484458 -0.453556 -0.420133 -0.3846 -0.348127 -0.311497 -0.274792 -0.238459 -0.203008 -0.169047 -0.136913 -0.107156 -0.0802971 -0.0567046 -0.0367921 -0.0209339 -0.0093878 -0.00236322 -2.57413e-26 0 -0.00288829 -0.0104028 -0.0226077 -0.0393289 -0.0603198 -0.0852637 -0.113778 -0.145418 -0.179681 -0.216015 -0.25384 -0.292593 -0.331665 -0.370372 -0.408031 -0.443979 -0.477606 -0.508374 -0.535815 -0.559494 -0.579045 -0.594174 -0.604686 -0.610232 -0.611239 -0.607578 -0.598952 -0.585801 -0.568349 -0.54688 -0.521732 -0.493261 -0.461809 -0.427731 -0.391654 -0.354755 -0.317487 -0.28007 -0.243011 -0.206855 -0.172202 -0.139442 -0.109118 -0.0817466 -0.0577092 -0.0374322 -0.0212942 -0.00954634 -0.00240234 -2.61602e-26 0 -0.00290317 -0.0104254 -0.0226342 -0.0393545 -0.0603383 -0.0852683 -0.113762 -0.145374 -0.179602 -0.215894 -0.253665 -0.292362 -0.331405 -0.370109 -0.40778 -0.443754 -0.477413 -0.5082 -0.535654 -0.559355 -0.578935 -0.594102 -0.604643 -0.610216 -0.611256 -0.607741 -0.599246 -0.586209 -0.568856 -0.547458 -0.522328 -0.493794 -0.462216 -0.428032 -0.392127 -0.355399 -0.318097 -0.280593 -0.243449 -0.207251 -0.172488 -0.139644 -0.109267 -0.0818472 -0.0577686 -0.0374627 -0.0213091 -0.00955125 -0.0024031 -2.61659e-26 0 -0.00287109 -0.0102768 -0.0222858 -0.0387236 -0.0593444 -0.0838353 -0.11182 -0.142862 -0.176469 -0.212098 -0.249168 -0.287144 -0.325482 -0.363512 -0.400556 -0.435969 -0.469134 -0.499487 -0.526559 -0.549958 -0.569327 -0.584375 -0.594882 -0.600516 -0.601684 -0.598562 -0.590497 -0.577911 -0.561025 -0.54008 -0.515348 -0.487151 -0.455921 -0.422298 -0.387156 -0.351024 -0.314187 -0.277129 -0.240434 -0.20469 -0.170312 -0.137843 -0.107839 -0.0807573 -0.0569832 -0.0369418 -0.0210056 -0.00941163 -0.00236694 -2.57583e-26 0 -0.00279288 -0.00996491 -0.0215847 -0.037482 -0.0574178 -0.0810888 -0.108131 -0.138124 -0.170593 -0.205018 -0.240824 -0.277504 -0.314533 -0.351271 -0.387089 -0.421375 -0.453527 -0.482977 -0.509248 -0.531969 -0.550809 -0.565483 -0.575774 -0.581363 -0.582605 -0.579763 -0.572127 -0.56008 -0.543823 -0.523559 -0.499543 -0.472142 -0.441903 -0.409558 -0.375683 -0.34067 -0.304918 -0.268948 -0.233322 -0.198606 -0.16522 -0.133701 -0.104585 -0.0783031 -0.0552412 -0.0358076 -0.0203565 -0.00911871 -0.00229267 -2.4944e-26 0 -0.00266681 -0.00949421 -0.0205416 -0.