<?xml version="1.0"?>
<VTKFile type="PolyData">
	<PolyData>
		<Piece NumberOfPoints="2601" NumberOfPolys="2500">
			<Points>
				<DataArray type="Float32" NumberOfComponents="3" format="ascii">
 0 0 0 0.02 0 0 0.04 0 0 0.06 0 0 0.08 0 0 0.1 0 0 0.12 0 0 0.14 0 0 0.16 0 0 0.18 0 0 0.2 0 0 0.22 0 0 0.24 0 0 0.26 0 0 0.28 0 0 0.3 0 0 0.32 0 0 0.34 0 0 0.36 0 0 0.38 0 0 0.4 0 0 0.42 0 0 0.44 0 0 0.46 0 0 0.48 0 0 0.5 0 0 0.52 0 0 0.54 0 0 0.56 0 0 0.58 0 0 0.6 0 0 0.62 0 0 0.64 0 0 0.66 0 0 0.68 0 0 0.7 0 0 0.72 0 0 0.74 0 0 0.76 0 0 0.78 0 0 0.8 0 0 0.82 0 0 0.84 0 0 0.86 0 0 0.88 0 0 0.9 0 0 0.92 0 0 0.94 0 0 0.96 0 0 0.98 0 0 1 0 0 0 0.02 0 0.02 0.02 0 0.04 0.02 0 0.06 0.02 0 0.08 0.02 0 0.1 0.02 0 0.12 0.02 0 0.14 0.02 0 0.16 0.02 0 0.18 0.02 0 0.2 0.02 0 0.22 0.02 0 0.24 0.02 0 0.26 0.02 0 0.28 0.02 0 0.3 0.02 0 0.32 0.02 0 0.34 0.02 0 0.36 0.02 0 0.38 0.02 0 0.4 0.02 0 0.42 0.02 0 0.44 0.02 0 0.46 0.02 0 0.48 0.02 0 0.5 0.02 0 0.52 0.02 0 0.54 0.02 0 0.56 0.02 0 0.58 0.02 0 0.6 0.02 0 0.62 0.02 0 0.64 0.02 0 0.66 0.02 0 0.68 0.02 0 0.7 0.02 0 0.72 0.02 0 0.74 0.02 0 0.76 0.02 0 0.78 0.02 0 0.8 0.02 0 0.82 0.02 0 0.84 0.02 0 0.86 0.02 0 0.88 0.02 0 0.9 0.02 0 0.92 0.02 0 0.94 0.02 0 0.96 0.02 0 0.98 0.02 0 1 0.02 0 0 0.04 0 0.02 0.04 0 0.04 0.04 0 0.06 0.04 0 0.08 0.04 0 0.1 0.04 0 0.12 0.04 0 0.14 0.04 0 0.16 0.04 0 0.18 0.04 0 0.2 0.04 0 0.22 0.04 0 0.24 0.04 0 0.26 0.04 0 0.28 0.04 0 0.3 0.04 0 0.32 0.04 0 0.34 0.04 0 0.36 0.04 0 0.38 0.04 0 0.4 0.04 0 0.42 0.04 0 0.44 0.04 0 0.46 0.04 0 0.48 0.04 0 0.5 0.04 0 0.52 0.04 0 0.54 0.04 0 0.56 0.04 0 0.58 0.04 0 0.6 0.04 0 0.62 0.04 0 0.64 0.04 0 0.66 0.04 0 0.68 0.04 0 0.7 0.04 0 0.72 0.04 0 0.74 0.04 0 0.76 0.04 0 0.78 0.04 0 0.8 0.04 0 0.82 0.04 0 0.84 0.04 0 0.86 0.04 0 0.88 0.04 0 0.9 0.04 0 0.92 0.04 0 0.94 0.04 0 0.96 0.04 0 0.98 0.04 0 1 0.04 0 0 0.06 0 0.02 0.06 0 0.04 0.06 0 0.06 0.06 0 0.08 0.06 0 0.1 0.06 0 0.12 0.06 0 0.14 0.06 0 0.16 0.06 0 0.18 0.06 0 0.2 0.06 0 0.22 0.06 0 0.24 0.06 0 0.26 0.06 0 0.28 0.06 0 0.3 0.06 0 0.32 0.06 0 0.34 0.06 0 0.36 0.06 0 0.38 0.06 0 0.4 0.06 0 0.42 0.06 0 0.44 0.06 0 0.46 0.06 0 0.48 0.06 0 0.5 0.06 0 0.52 0.06 0 0.54 0.06 0 0.56 0.06 0 0.58 0.06 0 0.6 0.06 0 0.62 0.06 0 0.64 0.06 0 0.66 0.06 0 0.68 0.06 0 0.7 0.06 0 0.72 0.06 0 0.74 0.06 0 0.76 0.06 0 0.78 0.06 0 0.8 0.06 0 0.82 0.06 0 0.84 0.06 0 0.86 0.06 0 0.88 0.06 0 0.9 0.06 0 0.92 0.06 0 0.94 0.06 0 0.96 0.06 0 0.98 0.06 0 1 0.06 0 0 0.08 0 0.02 0.08 0 0.04 0.08 0 0.06 0.08 0 0.08 0.08 0 0.1 0.08 0 0.12 0.08 0 0.14 0.08 0 0.16 0.08 0 0.18 0.08 0 0.2 0.08 0 0.22 0.08 0 0.24 0.08 0 0.26 0.08 0 0.28 0.08 0 0.3 0.08 0 0.32 0.08 0 0.34 0.08 0 0.36 0.08 0 0.38 0.08 0 0.4 0.08 0 0.42 0.08 0 0.44 0.08 0 0.46 0.08 0 0.48 0.08 0 0.5 0.08 0 0.52 0.08 0 0.54 0.08 0 0.56 0.08 0 0.58 0.08 0 0.6 0.08 0 0.62 0.08 0 0.64 0.08 0 0.66 0.08 0 0.68 0.08 0 0.7 0.08 0 0.72 0.08 0 0.74 0.08 0 0.76 0.08 0 0.78 0.08 0 0.8 0.08 0 0.82 0.08 0 0.84 0.08 0 0.86 0.08 0 0.88 0.08 0 0.9 0.08 0 0.92 0.08 0 0.94 0.08 0 0.96 0.08 0 0.98 0.08 0 1 0.08 0 0 0.1 0 0.02 0.1 0 0.04 0.1 0 0.06 0.1 0 0.08 0.1 0 0.1 0.1 0 0.12 0.1 0 0.14 0.1 0 0.16 0.1 0 0.18 0.1 0 0.2 0.1 0 0.22 0.1 0 0.24 0.1 0 0.26 0.1 0 0.28 0.1 0 0.3 0.1 0 0.32 0.1 0 0.34 0.1 0 0.36 0.1 0 0.38 0.1 0 0.4 0.1 0 0.42 0.1 0 0.44 0.1 0 0.46 0.1 0 0.48 0.1 0 0.5 0.1 0 0.52 0.1 0 0.54 0.1 0 0.56 0.1 0 0.58 0.1 0 0.6 0.1 0 0.62 0.1 0 0.64 0.1 0 0.66 0.1 0 0.68 0.1 0 0.7 0.1 0 0.72 0.1 0 0.74 0.1 0 0.76 0.1 0 0.78 0.1 0 0.8 0.1 0 0.82 0.1 0 0.84 0.1 0 0.86 0.1 0 0.88 0.1 0 0.9 0.1 0 0.92 0.1 0 0.94 0.1 0 0.96 0.1 0 0.98 0.1 0 1 0.1 0 0 0.12 0 0.02 0.12 0 0.04 0.12 0 0.06 0.12 0 0.08 0.12 0 0.1 0.12 0 0.12 0.12 0 0.14 0.12 0 0.16 0.12 0 0.18 0.12 0 0.2 0.12 0 0.22 0.12 0 0.24 0.12 0 0.26 0.12 0 0.28 0.12 0 0.3 0.12 0 0.32 0.12 0 0.34 0.12 0 0.36 0.12 0 0.38 0.12 0 0.4 0.12 0 0.42 0.12 0 0.44 0.12 0 0.46 0.12 0 0.48 0.12 0 0.5 0.12 0 0.52 0.12 0 0.54 0.12 0 0.56 0.12 0 0.58 0.12 0 0.6 0.12 0 0.62 0.12 0 0.64 0.12 0 0.66 0.12 0 0.68 0.12 0 0.7 0.12 0 0.72 0.12 0 0.74 0.12 0 0.76 0.12 0 0.78 0.12 0 0.8 0.12 0 0.82 0.12 0 0.84 0.12 0 0.86 0.12 0 0.88 0.12 0 0.9 0.12 0 0.92 0.12 0 0.94 0.12 0 0.96 0.12 0 0.98 0.12 0 1 0.12 0 0 0.14 0 0.02 0.14 0 0.04 0.14 0 0.06 0.14 0 0.08 0.14 0 0.1 0.14 0 0.12 0.14 0 0.14 0.14 0 0.16 0.14 0 0.18 0.14 0 0.2 0.14 0 0.22 0.14 0 0.24 0.14 0 0.26 0.14 0 0.28 0.14 0 0.3 0.14 0 0.32 0.14 0 0.34 0.14 0 0.36 0.14 0 0.38 0.14 0 0.4 0.14 0 0.42 0.14 0 0.44 0.14 0 0.46 0.14 0 0.48 0.14 0 0.5 0.14 0 0.52 0.14 0 0.54 0.14 0 0.56 0.14 0 0.58 0.14 0 0.6 0.14 0 0.62 0.14 0 0.64 0.14 0 0.66 0.14 0 0.68 0.14 0 0.7 0.14 0 0.72 0.14 0 0.74 0.14 0 0.76 0.14 0 0.78 0.14 0 0.8 0.14 0 0.82 0.14 0 0.84 0.14 0 0.86 0.14 0 0.88 0.14 0 0.9 0.14 0 0.92 0.14 0 0.94 0.14 0 0.96 0.14 0 0.98 0.14 0 1 0.14 0 0 0.16 0 0.02 0.16 0 0.04 0.16 0 0.06 0.16 0 0.08 0.16 0 0.1 0.16 0 0.12 0.16 0 0.14 0.16 0 0.16 0.16 0 0.18 0.16 0 0.2 0.16 0 0.22 0.16 0 0.24 0.16 0 0.26 0.16 0 0.28 0.16 0 0.3 0.16 0 0.32 0.16 0 0.34 0.16 0 0.36 0.16 0 0.38 0.16 0 0.4 0.16 0 0.42 0.16 0 0.44 0.16 0 0.46 0.16 0 0.48 0.16 0 0.5 0.16 0 0.52 0.16 0 0.54 0.16 0 0.56 0.16 0 0.58 0.16 0 0.6 0.16 0 0.62 0.16 0 0.64 0.16 0 0.66 0.16 0 0.68 0.16 0 0.7 0.16 0 0.72 0.16 0 0.74 0.16 0 0.76 0.16 0 0.78 0.16 0 0.8 0.16 0 0.82 0.16 0 0.84 0.16 0 0.86 0.16 0 0.88 0.16 0 0.9 0.16 0 0.92 0.16 0 0.94 0.16 0 0.96 0.16 0 0.98 0.16 0 1 0.16 0 0 0.18 0 0.02 0.18 0 0.04 0.18 0 0.06 0.18 0 0.08 0.18 0 0.1 0.18 0 0.12 0.18 0 0.14 0.18 0 0.16 0.18 0 0.18 0.18 0 0.2 0.18 0 0.22 0.18 0 0.24 0.18 0 0.26 0.18 0 0.28 0.18 0 0.3 0.18 0 0.32 0.18 0 0.34 0.18 0 0.36 0.18 0 0.38 0.18 0 0.4 0.18 0 0.42 0.18 0 0.44 0.18 0 0.46 0.18 0 0.48 0.18 0 0.5 0.18 0 0.52 0.18 0 0.54 0.18 0 0.56 0.18 0 0.58 0.18 0 0.6 0.18 0 0.62 0.18 0 0.64 0.18 0 0.66 0.18 0 0.68 0.18 0 0.7 0.18 0 0.72 0.18 0 0.74 0.18 0 0.76 0.18 0 0.78 0.18 0 0.8 0.18 0 0.82 0.18 0 0.84 0.18 0 0.86 0.18 0 0.88 0.18 0 0.9 0.18 0 0.92 0.18 0 0.94 0.18 0 0.96 0.18 0 0.98 0.18 0 1 0.18 0 0 0.2 0 0.02 0.2 0 0.04 0.2 0 0.06 0.2 0 0.08 0.2 0 0.1 0.2 0 0.12 0.2 0 0.14 0.2 0 0.16 0.2 0 0.18 0.2 0 0.2 0.2 0 0.22 0.2 0 0.24 0.2 0 0.26 0.2 0 0.28 0.2 0 0.3 0.2 0 0.32 0.2 0 0.34 0.2 0 0.36 0.2 0 0.38 0.2 0 0.4 0.2 0 0.42 0.2 0 0.44 0.2 0 0.46 0.2 0 0.48 0.2 0 0.5 0.2 0 0.52 0.2 0 0.54 0.2 0 0.56 0.2 0 0.58 0.2 0 0.6 0.2 0 0.62 0.2 0 0.64 0.2 0 0.66 0.2 0 0.68 0.2 0 0.7 0.2 0 0.72 0.2 0 0.74 0.2 0 0.76 0.2 0 0.78 0.2 0 0.8 0.2 0 0.82 0.2 0 0.84 0.2 0 0.86 0.2 0 0.88 0.2 0 0.9 0.2 0 0.92 0.2 0 0.94 0.2 0 0.96 0.2 0 0.98 0.2 0 1 0.2 0 0 0.22 0 0.02 0.22 0 0.04 0.22 0 0.06 0.22 0 0.08 0.22 0 0.1 0.22 0 0.12 0.22 0 0.14 0.22 0 0.16 0.22 0 0.18 0.22 0 0.2 0.22 0 0.22 0.22 0 0.24 0.22 0 0.26 0.22 0 0.28 0.22 0 0.3 0.22 0 0.32 0.22 0 0.34 0.22 0 0.36 0.22 0 0.38 0.22 0 0.4 0.22 0 0.42 0.22 0 0.44 0.22 0 0.46 0.22 0 0.48 0.22 0 0.5 0.22 0 0.52 0.22 0 0.54 0.22 0 0.56 0.22 0 0.58 0.22 0 0.6 0.22 0 0.62 0.22 0 0.64 0.22 0 0.66 0.22 0 0.68 0.22 0 0.7 0.22 0 0.72 0.22 0 0.74 0.22 0 0.76 0.22 0 0.78 0.22 0 0.8 0.22 0 0.82 0.22 0 0.84 0.22 0 0.86 0.22 0 0.88 0.22 0 0.9 0.22 0 0.92 0.22 0 0.94 0.22 0 0.96 0.22 0 0.98 0.22 0 1 0.22 0 0 0.24 0 0.02 0.24 0 0.04 0.24 0 0.06 0.24 0 0.08 0.24 0 0.1 0.24 0 0.12 0.24 0 0.14 0.24 0 0.16 0.24 0 0.18 0.24 0 0.2 0.24 0 0.22 0.24 0 0.24 0.24 0 0.26 0.24 0 0.28 0.24 0 0.3 0.24 0 0.32 0.24 0 0.34 0.24 0 0.36 0.24 0 0.38 0.24 0 0.4 0.24 0 0.42 0.24 0 0.44 0.24 0 0.46 0.24 0 0.48 0.24 0 0.5 0.24 0 0.52 0.24 0 0.54 0.24 0 0.56 0.24 0 0.58 0.24 0 0.6 0.24 0 0.62 0.24 0 0.64 0.24 0 0.66 0.24 0 0.68 0.24 0 0.7 0.24 0 0.72 0.24 0 0.74 0.24 0 0.76 0.24 0 0.78 0.24 0 0.8 0.24 0 0.82 0.24 0 0.84 0.24 0 0.86 0.24 0 0.88 0.24 0 0.9 0.24 0 0.92 0.24 0 0.94 0.24 0 0.96 0.24 0 0.98 0.24 0 1 0.24 0 0 0.26 0 0.02 0.26 0 0.04 0.26 0 0.06 0.26 0 0.08 0.26 0 0.1 0.26 0 0.12 0.26 0 0.14 0.26 0 0.16 0.26 0 0.18 0.26 0 0.2 0.26 0 0.22 0.26 0 0.24 0.26 0 0.26 0.26 0 0.28 0.26 0 0.3 0.26 0 0.32 0.26 0 0.34 0.26 0 0.36 0.26 0 0.38 0.26 0 0.4 0.26 0 0.42 0.26 0 0.44 0.26 0 0.46 0.26 0 0.48 0.26 0 0.5 0.26 0 0.52 0.26 0 0.54 0.26 0 0.56 0.26 0 0.58 0.26 0 0.6 0.26 0 0.62 0.26 0 0.64 0.26 0 0.66 0.26 0 0.68 0.26 0 0.7 0.26 0 0.72 0.26 0 0.74 0.26 0 0.76 0.26 0 0.78 0.26 0 0.8 0.26 0 0.82 0.26 0 0.84 0.26 0 0.86 0.26 0 0.88 0.26 0 0.9 0.26 0 0.92 0.26 0 0.94 0.26 0 0.96 0.26 0 0.98 0.26 0 1 0.26 0 0 0.28 0 0.02 0.28 0 0.04 0.28 0 0.06 0.28 0 0.08 0.28 0 0.1 0.28 0 0.12 0.28 0 0.14 0.28 0 0.16 0.28 0 0.18 0.28 0 0.2 0.28 0 0.22 0.28 0 0.24 0.28 0 0.26 0.28 0 0.28 0.28 0 0.3 0.28 0 0.32 0.28 0 0.34 0.28 0 0.36 0.28 0 0.38 0.28 0 0.4 0.28 0 0.42 0.28 0 0.44 0.28 0 0.46 0.28 0 0.48 0.28 0 0.5 0.28 0 0.52 0.28 0 0.54 0.28 0 0.56 0.28 0 0.58 0.28 0 0.6 0.28 0 0.62 0.28 0 0.64 0.28 0 0.66 0.28 0 0.68 0.28 0 0.7 0.28 0 0.72 0.28 0 0.74 0.28 0 0.76 0.28 0 0.78 0.28 0 0.8 0.28 0 0.82 0.28 0 0.84 0.28 0 0.86 0.28 0 0.88 0.28 0 0.9 0.28 0 0.92 0.28 0 0.94 0.28 0 0.96 0.28 0 0.98 0.28 0 1 0.28 0 0 0.3 0 0.02 0.3 0 0.04 0.3 0 0.06 0.3 0 0.08 0.3 0 0.1 0.3 0 0.12 0.3 0 0.14 0.3 0 0.16 0.3 0 0.18 0.3 0 0.2 0.3 0 0.22 0.3 0 0.24 0.3 0 0.26 0.3 0 0.28 0.3 0 0.3 0.3 0 0.32 0.3 0 0.34 0.3 0 0.36 0.3 0 0.38 0.3 0 0.4 0.3 0 0.42 0.3 0 0.44 0.3 0 0.46 0.3 0 0.48 0.3 0 0.5 0.3 0 0.52 0.3 0 0.54 0.3 0 0.56 0.3 0 0.58 0.3 0 0.6 0.3 0 0.62 0.3 0 0.64 0.3 0 0.66 0.3 0 0.68 0.3 0 0.7 0.3 0 0.72 0.3 0 0.74 0.3 0 0.76 0.3 0 0.78 0.3 0 0.8 0.3 0 0.82 0.3 0 0.84 0.3 0 0.86 0.3 0 0.88 0.3 0 0.9 0.3 0 0.92 0.3 0 0.94 0.3 0 0.96 0.3 0 0.98 0.3 0 1 0.3 0 0 0.32 0 0.02 0.32 0 0.04 0.32 0 0.06 0.32 0 0.08 0.32 0 0.1 0.32 0 0.12 0.32 0 0.14 0.32 0 0.16 0.32 0 0.18 0.32 0 0.2 0.32 0 0.22 0.32 0 0.24 0.32 0 0.26 0.32 0 0.28 0.32 0 0.3 0.32 0 0.32 0.32 0 0.34 0.32 0 0.36 0.32 0 0.38 0.32 0 0.4 0.32 0 0.42 0.32 0 0.44 0.32 0 0.46 0.32 0 0.48 0.32 0 0.5 0.32 0 0.52 0.32 0 0.54 0.32 0 0.56 0.32 0 0.58 0.32 0 0.6 0.32 0 0.62 0.32 0 0.64 0.32 0 0.66 0.32 0 0.68 0.32 0 0.7 0.32 0 0.72 0.32 0 0.74 0.32 0 0.76 0.32 0 0.78 0.32 0 0.8 0.32 0 0.82 0.32 0 0.84 0.32 0 0.86 0.32 0 0.88 0.32 0 0.9 0.32 0 0.92 0.32 0 0.94 0.
[...]
			<PointData Scalars="VitesseX">
				<DataArray Name="VitesseX" type="Float32" format="ascii">
 0 0 0 0 0 0 0 0 0 0 0 0 0 0 0 0 0 0 0 0 0 0 0 0 0 0 0 0 0 0 0 0 0 0 0 0 0 0 0 0 0 0 0 0 0 0 0 0 0 0 -0 0 -8.96062e-05 -0.000336629 -0.00074017 -0.00129391 -0.00198916 -0.002815 -0.00375847 -0.00480474 -0.00593737 -0.00713855 -0.00838942 -0.00966929 -0.0109599 -0.0122404 -0.0134918 -0.0146931 -0.0158217 -0.016864 -0.0178032 -0.0186243 -0.0193142 -0.0198622 -0.0202595 -0.0204985 -0.0206208 -0.0205917 -0.0203801 -0.0199985 -0.0194608 -0.0187771 -0.0179578 -0.0170157 -0.0159674 -0.0148309 -0.0136231 -0.0123629 -0.0110707 -0.00976705 -0.00847275 -0.00720831 -0.00599384 -0.00484866 -0.00379103 -0.00283782 -0.0020038 -0.00129851 -0.000737032 -0.000330168 -8.31396e-05 -9.3088e-28 0 -0.000175157 -0.000663732 -0.00146312 -0.00256086 -0.00393977 -0.00557824 -0.00745063 -0.00952725 -0.0117779 -0.0141688 -0.016657 -0.0191965 -0.0217576 -0.024298 -0.0267773 -0.0291567 -0.0313986 -0.0334676 -0.0353313 -0.0369601 -0.0383285 -0.0394149 -0.0402021 -0.0406744 -0.0408515 -0.0407255 -0.0402736 -0.0395021 -0.0384259 -0.0370641 -0.0354355 -0.0335688 -0.031496 -0.0292472 -0.0268595 -0.0243701 -0.0218185 -0.0192454 -0.0166915 -0.0141971 -0.0118018 -0.00954341 -0.00745791 -0.00557841 -0.00393461 -0.0025516 -0.00144848 -0.000647813 -0.000162857 -1.79372e-27 0 -0.000256695 -0.000978631 -0.0021611 -0.00378543 -0.00582662 -0.00825778 -0.0110401 -0.0141197 -0.0174481 -0.0209773 -0.0246522 -0.028416 -0.0322092 -0.0359712 -0.0396428 -0.0431662 -0.0464858 -0.0495492 -0.052308 -0.0547188 -0.0567434 -0.05835 -0.0595133 -0.0602095 -0.0604503 -0.0602358 -0.0595459 -0.0583892 -0.0567859 -0.0547621 -0.0523485 -0.0495851 -0.0465166 -0.0431907 -0.0396605 -0.0359814 -0.0322115 -0.0284106 -0.0246388 -0.0209554 -0.0174184 -0.0140839 -0.0110047 -0.00822949 -0.00580238 -0.0037612 -0.00213696 -0.000955278 -0.000240007 -2.62848e-27 0 -0.000334116 -0.00127861 -0.00281982 -0.00494764 -0.0076424 -0.0108213 -0.0144502 -0.0184746 -0.0228312 -0.0274516 -0.0322631 -0.037191 -0.0421576 -0.0470831 -0.0518902 -0.0565029 -0.0608482 -0.0648577 -0.0684679 -0.0716218 -0.0742697 -0.0763698 -0.0778892 -0.0787962 -0.0790996 -0.0788017 -0.0778821 -0.0763555 -0.0742479 -0.0715916 -0.0684286 -0.0648101 -0.0607933 -0.0564421 -0.0518252 -0.0470149 -0.0420868 -0.037119 -0.0321901 -0.027377 -0.0227557 -0.0183989 -0.0143756 -0.0107494 -0.00757787 -0.00491098 -0.00279013 -0.00124779 -0.000313375 -3.42203e-27 0 -0.000407116 -0.00156353 -0.00345936 -0.00605912 -0.00932174 -0.0131977 -0.0176265 -0.0225384 -0.0278562 -0.0334963 -0.0393698 -0.0453856 -0.0514483 -0.0574607 -0.0633281 -0.0689577 -0.0742604 -0.0791524 -0.0835563 -0.0874026 -0.0906307 -0.0931898 -0.0950398 -0.0961411 -0.0965027 -0.0961265 -0.0949904 -0.0931165 -0.0905358 -0.0872876 -0.0834232 -0.0790049 -0.0741021 -0.068794 -0.0631635 -0.0572981 -0.0512899 -0.0452345 -0.0392272 -0.0333616 -0.0277298 -0.0224206 -0.0175177 -0.0130985 -0.00923321 -0.00598299 -0.00339875 -0.00152099 -0.000381807 -4.16192e-27 0 -0.000476036 -0.00182255 -0.00402631 -0.00705136 -0.0108514 -0.0153668 -0.0205267 -0.0262497 -0.032446 -0.0390179 -0.0458618 -0.0528713 -0.0599354 -0.0669403 -0.0737757 -0.0803335 -0.0865097 -0.0922066 -0.0973341 -0.101811 -0.105568 -0.108544 -0.110694 -0.111971 -0.112384 -0.111936 -0.110601 -0.108408 -0.105393 -0.101603 -0.0970985 -0.0919505 -0.0862366 -0.0800523 -0.073498 -0.0666709 -0.0596776 -0.0526305 -0.0456403 -0.0388156 -0.0322632 -0.0260862 -0.0203818 -0.0152401 -0.0107425 -0.00696043 -0.00395366 -0.00176998 -0.000444221 -4.8365e-27 0 -0.000534442 -0.00204898 -0.0045277 -0.00793302 -0.0122115 -0.0172958 -0.023106 -0.0295506 -0.0365282 -0.0439288 -0.0516357 -0.059529 -0.0674833 -0.0753707 -0.0830667 -0.0904493 -0.0974016 -0.103813 -0.109583 -0.11462 -0.118844 -0.12219 -0.124605 -0.126036 -0.126493 -0.125976 -0.124458 -0.121976 -0.118571 -0.114295 -0.109218 -0.103419 -0.0969903 -0.0900352 -0.0826645 -0.0749875 -0.06712 -0.0591914 -0.0513297 -0.0436539 -0.0362849 -0.0293383 -0.0229231 -0.0171404 -0.0120819 -0.00782798 -0.0044462 -0.00199022 -0.000499595 -5.43516e-27 0 -0.000584673 -0.00224231 -0.00495846 -0.00869075 -0.0133805 -0.0189539 -0.0253232 -0.0323882 -0.0400375 -0.0481506 -0.0565994 -0.0652525 -0.0739721 -0.0826176 -0.0910525 -0.099143 -0.106761 -0.113786 -0.120106 -0.125624 -0.130251 -0.133912 -0.136553 -0.138113 -0.138608 -0.138032 -0.136357 -0.133626 -0.129884 -0.125191 -0.119622 -0.113264 -0.106218 -0.0985961 -0.0905169 -0.0821051 -0.0734915 -0.0648145 -0.0562068 -0.0478008 -0.039732 -0.0321259 -0.0251016 -0.0187698 -0.0132306 -0.00857202 -0.00486864 -0.00217924 -0.000547146 -5.94848e-27 0 -0.000625075 -0.00240067 -0.00531162 -0.00931219 -0.0143394 -0.0203142 -0.0271424 -0.0347167 -0.0429175 -0.0516155 -0.0606733 -0.0699497 -0.0792972 -0.0885645 -0.0976054 -0.106277 -0.114441 -0.12197 -0.128743 -0.134651 -0.139604 -0.143523 -0.146347 -0.148014 -0.148538 -0.147912 -0.146106 -0.143169 -0.13915 -0.134114 -0.12814 -0.121324 -0.113771 -0.105602 -0.096943 -0.0879305 -0.0787042 -0.0694092 -0.0601909 -0.0511914 -0.0425504 -0.0344055 -0.0268834 -0.0201026 -0.0141703 -0.00918087 -0.00521435 -0.00233394 -0.000585976 -6.36838e-27 0 -0.000655521 -0.00252142 -0.0055813 -0.0097871 -0.0150726 -0.0213548 -0.0285346 -0.036499 -0.0451224 -0.0542686 -0.063793 -0.0735474 -0.0833762 -0.0931209 -0.102627 -0.111745 -0.120325 -0.128235 -0.13535 -0.141556 -0.146758 -0.150873 -0.153836 -0.155581 -0.156126 -0.155458 -0.153549 -0.150453 -0.146219 -0.140917 -0.134632 -0.127463 -0.119523 -0.110936 -0.101837 -0.0923686 -0.0826747 -0.0729089 -0.0632256 -0.053772 -0.044696 -0.0361411 -0.0282404 -0.021118 -0.0148864 -0.00964496 -0.0054779 -0.00245189 -0.000615678 -6.68824e-27 0 -0.000675721 -0.00260251 -0.00576304 -0.0101077 -0.0155684 -0.022059 -0.0294775 -0.037707 -0.0466176 -0.0560687 -0.0659107 -0.0759903 -0.0861467 -0.0962148 -0.106035 -0.115451 -0.124312 -0.132481 -0.139827 -0.146235 -0.151603 -0.155847 -0.1589 -0.160696 -0.161251 -0.160553 -0.158571 -0.155362 -0.150978 -0.145493 -0.138997 -0.131588 -0.123385 -0.114516 -0.10512 -0.0953432 -0.085336 -0.0752561 -0.0652616 -0.0555044 -0.0461367 -0.0373057 -0.0291512 -0.0217998 -0.0153676 -0.00995696 -0.00565515 -0.00253123 -0.000635717 -6.90303e-27 0 -0.000685334 -0.00264255 -0.00585381 -0.0102689 -0.0158186 -0.0224157 -0.0299564 -0.0383218 -0.0473801 -0.056988 -0.0669937 -0.0772409 -0.0875644 -0.0977948 -0.107773 -0.117341 -0.126347 -0.134647 -0.142109 -0.148616 -0.154063 -0.158367 -0.161462 -0.163279 -0.163834 -0.163113 -0.161084 -0.157811 -0.153343 -0.147761 -0.141152 -0.133617 -0.125279 -0.116267 -0.106721 -0.0967894 -0.0866264 -0.0763913 -0.0662451 -0.056342 -0.0468347 -0.0378703 -0.029591 -0.0221296 -0.015601 -0.0101086 -0.00574144 -0.00256987 -0.00064543 -7.00936e-27 0 -0.000684143 -0.00264054 -0.00585111 -0.0102657 -0.0158152 -0.0224123 -0.0299534 -0.0383198 -0.0473794 -0.0569895 -0.066998 -0.077248 -0.0875701 -0.0978018 -0.107784 -0.117357 -0.126365 -0.134667 -0.142131 -0.148637 -0.154083 -0.158385 -0.161477 -0.163288 -0.163838 -0.163111 -0.161079 -0.157801 -0.15333 -0.147744 -0.141131 -0.133594 -0.125252 -0.116237 -0.10669 -0.096761 -0.0865989 -0.0763643 -0.0662191 -0.0563197 -0.0468184 -0.0378591 -0.029582 -0.022121 -0.0155954 -0.0101053 -0.0057396 -0.00256905 -0.000645222 -7.00557e-27 0 -0.000672276 -0.00259739 -0.00575771 -0.0101043 -0.0155692 -0.022067 -0.0294954 -0.0377377 -0.0466641 -0.0561339 -0.0659982 -0.076092 -0.08626 -0.0963427 -0.106178 -0.115606 -0.124478 -0.132653 -0.139999 -0.146397 -0.151749 -0.155969 -0.158991 -0.160748 -0.161259 -0.160529 -0.158517 -0.15528 -0.150869 -0.145363 -0.138847 -0.131423 -0.123209 -0.114335 -0.104939 -0.0951675 -0.0851717 -0.0751073 -0.0651291 -0.0553918 -0.0460479 -0.0372397 -0.0290999 -0.02176 -0.0153416 -0.0099414 -0.00564684 -0.00252763 -0.000634836 -6.89171e-27 0 -0.000649835 -0.00251317 -0.00557314 -0.00978274 -0.0150765 -0.0213718 -0.0285697 -0.036557 -0.0452079 -0.0543858 -0.0639438 -0.0737232 -0.0835777 -0.0933501 -0.102879 -0.112011 -0.120606 -0.128523 -0.135633 -0.141825 -0.147 -0.151076 -0.153988 -0.15567 -0.156144 -0.155414 -0.153453 -0.150306 -0.146024 -0.140685 -0.134369 -0.127175 -0.119219 -0.110624 -0.101526 -0.0920682 -0.0823946 -0.0726572 -0.0630062 -0.0535875 -0.0445483 -0.0360292 -0.0281579 -0.0210578 -0.0148455 -0.00962056 -0.00546501 -0.00244639 -0.000614455 -6.66955e-27 0 -0.000617183 -0.00238939 -0.00530088 -0.00930739 -0.014347 -0.0203411 -0.0271958 -0.0348032 -0.0430438 -0.051788 -0.0608845 -0.0701999 -0.0795894 -0.0888956 -0.0979665 -0.106662 -0.114846 -0.122379 -0.129142 -0.135028 -0.139945 -0.143814 -0.146569 -0.148145 -0.148572 -0.147837 -0.145942 -0.142921 -0.13883 -0.133746 -0.127742 -0.120904 -0.113337 -0.105161 -0.096507 -0.0875112 -0.0783127 -0.0690552 -0.0598828 -0.0509342 -0.0423439 -0.034248 -0.0267702 -0.0200223 -0.0141148 -0.00914776 -0.00519695 -0.00232658 -0.000584396 -6.34224e-27 0 -0.000574822 -0.00222796 -0.00494514 -0.00868573 -0.0133923 -0.0189915 -0.0253957 -0.0325044 -0.0402057 -0.0483772 -0.0568744 -0.06558 -0.0743559 -0.0830493 -0.0915216 -0.0996454 -0.107288 -0.114316 -0.120624 -0.126111 -0.130692 -0.134292 -0.136843 -0.138276 -0.138624 -0.13788 -0.136062 -0.1332 -0.129351 -0.124577 -0.11896 -0.11261 -0.105605 -0.0980143 -0.0899549 -0.081568 -0.0729906 -0.0643602 -0.0558114 -0.0474734 -0.0394703 -0.0319243 -0.0249561 -0.0186675 -0.0131607 -0.0085304 -0.00484684 -0.00217009 -0.00054513 -5.91423e-27 0 -0.000523522 -0.00203136 -0.00451183 -0.00792813 -0.0122276 -0.0173438 -0.0231971 -0.0296957 -0.0367365 -0.0442042 -0.0519753 -0.0599364 -0.0679582 -0.0759021 -0.0836468 -0.0910715 -0.0980467 -0.104459 -0.110211 -0.115211 -0.11938 -0.122646 -0.12493 -0.126181 -0.126461 -0.125776 -0.124097 -0.121465 -0.11793 -0.113544 -0.108371 -0.102523 -0.0961004 -0.0892137 -0.0819388 -0.0743256 -0.0665119 -0.0586456 -0.0508554 -0.0432596 -0.0359701 -0.0290955 -0.0227473 -0.0170178 -0.0119995 -0.00777819 -0.00442017 -0.00197936 -0.000497274 -5.39256e-27 0 -0.000464389 -0.00180376 -0.00400807 -0.00704547 -0.0108708 -0.0154247 -0.0206361 -0.0264225 -0.0326917 -0.0393393 -0.0462634 -0.053356 -0.0604976 -0.0675676 -0.0744624 -0.0810705 -0.0872665 -0.0929615 -0.0980647 -0.102495 -0.106181 -0.109042 -0.111008 -0.112099 -0.112344 -0.111717 -0.110203 -0.10784 -0.104677 -0.100762 -0.0961544 -0.0909362 -0.0851926 -0.0790163 -0.0725397 -0.0658601 -0.0589742 -0.0520026 -0.0450946 -0.0383599 -0.031899 -0.0258072 -0.020178 -0.0150987 -0.0106488 -0.00690308 -0.00392364 -0.00175738 -0.000441579 -4.78688e-27 0 -0.000398022 -0.00154823 -0.00344247 -0.00605419 -0.009345 -0.0132643 -0.0177514 -0.0227354 -0.0281371 -0.0338641 -0.0398305 -0.0459415 -0.0520914 -0.0581794 -0.0641141 -0.0697948 -0.0751182 -0.0800055 -0.0843786 -0.0881673 -0.0913022 -0.0937006 -0.0953525 -0.0962746 -0.0964592 -0.0958887 -0.094561 -0.092504 -0.0897599 -0.0863749 -0.0824039 -0.0779107 -0.072979 -0.0676696 -0.0620656 -0.0562943 -0.0504687 -0.0445338 -0.0386204 -0.0328545 -0.0273239 -0.0221094 -0.0172878 -0.0129395 -0.00912869 -0.00591857 -0.00336506 -0.00150764 -0.00037892 -4.10667e-27 0 -0.000325422 -0.00126844 -0.00282375 -0.00497016 -0.00767572 -0.0108997 -0.0145923 -0.0186956 -0.0231444 -0.0278616 -0.0327763 -0.0378092 -0.0428712 -0.0478819 -0.0527635 -0.0574275 -0.0617946 -0.0657969 -0.0693694 -0.0724522 -0.0749783 -0.0768946 -0.078211 -0.0789372 -0.0790505 -0.078542 -0.077419 -0.0757023 -0.0734214 -0.0706198 -0.0673453 -0.0636435 -0.0595968 -0.0552499 -0.0506655 -0.0459117 -0.0411119 -0.0363478 -0.0315346 -0.0268288 -0.0223159 -0.0180616 -0.0141258 -0.0105761 -0.00746352 -0.00484019 -0.0027532 -0.00123406 -0.000310282 -3.36196e-27 0 -0.000248179 -0.000969456 -0.00216146 -0.00380889 -0.00588816 -0.00836829 -0.0112104 -0.0143694 -0.0177953 -0.0214283 -0.0252124 -0.0290869 -0.0329817 -0.0368322 -0.0405781 -0.044151 -0.0474893 -0.050539 -0.0532496 -0.0555746 -0.0574661 -0.0588974 -0.0598553 -0.060359 -0.0603955 -0.0599544 -0.0590499 -0.0576995 -0.0559175 -0.0537447 -0.0512173 -0.0483666 -0.0452662 -0.0419455 -0.038453 -0.0348376 -0.0311535 -0.0275419 -0.0239462 -0.0203772 -0.0169531 -0.0137256 -0.0107396 -0.00804443 -0.00567967 -0.00368529 -0.00209767 -0.000940958 -0.000236745 -2.56445e-27 0 -0.000167509 -0.000656382 -0.00146663 -0.00258957 -0.00400993 -0.00570699 -0.00765447 -0.00982125 -0.0121723 -0.0146656 -0.0172591 -0.019913 -0.022579 -0.025208 -0.0277571 -0.0301803 -0.0324351 -0.0344831 -0.0362899 -0.0378253 -0.0390631 -0.0399868 -0.0405797 -0.0408383 -0.0407882 -0.0404179 -0.0397428 -0.038775 -0.0375204 -0.0360106 -0.0342713 -0.0323225 -0.0302136 -0.0279714 -0.0256225 -0.0232019 -0.0207392 -0.018295 -0.0159662 -0.0135997 -0.0113198 -0.00917103 -0.00718182 -0.00538375 -0.00380528 -0.00247202 -0.00140881 -0.000632939 -0.000159464 -1.72667e-27 0 -8.47387e-05 -0.000334674 -0.000751372 -0.00133257 -0.00207162 -0.00295916 -0.00398133 -0.00512153 -0.00636035 -0.00767485 -0.00903917 -0.0104313 -0.0118264 -0.0131951 -0.0145108 -0.015749 -0.016887 -0.0179029 -0.0187782 -0.0194976 -0.0200504 -0.020436 -0.0206621 -0.0206856 -0.0205274 -0.0202262 -0.019793 -0.019222 -0.0185172 -0.017695 -0.0167717 -0.0157576 -0.0146748 -0.0135471 -0.0123794 -0.0111892 -0.00999078 -0.00879827 -0.00770269 -0.00659804 -0.00550173 -0.00446788 -0.00350863 -0.00263763 -0.00187076 -0.00121943 -0.000697484 -0.00031486 -7.96545e-05 -8.61757e-28 0 -1.95836e-06 -1.02373e-05 -2.82845e-05 -5.92548e-05 -0.000105784 -0.000169598 -0.000249774 -0.000345411 -0.000452894 -0.000567939 -0.000682034 -0.000791797 -0.000894496 -0.000981656 -0.00104425 -0.00107736 -0.00108059 -0.00104731 -0.000975839 -0.000866003 -0.000721101 -0.000552098 -0.000376485 -0.000187577 0.000181138 0.000306006 0.000491068 0.00065647 0.000799212 0.000921459 0.00101678 0.00108122 0.00111584 0.00111221 0.00107806 0.00101598 0.00093067 0.000831602 0.000690389 0.000524356 0.000413503 0.000312629 0.000224162 0.000152138 9.44798e-05 5.31623e-05 2.52102e-05 8.37118e-06 1.39125e-06 1.18166e-29 0 7.88116e-05 0.000312144 0.000693008 0.00121196 0.00185797 0.00261914 0.0034826 0.00443403 0.00546017 0.00654691 0.00768448 0.0088575 0.0100502 0.0112481 0.0124383 0.0136091 0.0147419 0.0158236 0.0168399 0.0177746 0.0186095 0.0193246 0.0199036 0.0203335 0.0206928 0.0207995 0.0207518 0.0205191 0.0201042 0.0195273 0.0187985 0.0179202 0.016907 0.0157723 0.0145372 0.0132239 0.011857 0.0104635 0.00905426 0.00763996 0.0063226 0.00508813 0.00395364 0.0029395 0.00205889 0.00132556 0.000747802 0.000331929 8.28437e-05 8.88113e-28 0 0.000158592 0.000630065 0.00140379 0.00246421 0.00379186 0.00536392 0.00715495 0.00913693 0.0112794 0.0135504 0.0159197 0.0183553 0.0208225 0.0232846 0.0257077 0.0280619 0.0303131 0.0324244 0.0343678 0.0361109 0.0376225 0.0388727 0.0398415 0.0405048 0.0409029 0.0409448 0.0406691 0.0400463 0.0390881 0.0378317 0.0362959 0.0344912 0.0324482 0.0302002 0.0277843 0.0252416 0.022616 0.0199534 0.0172882 0.0146347 0.0121318 0.00978388 0.00762167 0.00568128 0.00399176 0.00257781 0.00145918 0.000650848 0.000163418 1.75268e-27 0 0.000235847 0.000937959 0.0020922 0.00367713 0.00566511 0.00802283 0.0107125 0.0136919 0.0169154 0.0203342 0.0238976 0.0275568 0.0312573 0.0349443 0.0385641 0.0420628 0.045391 0.0485 0.0513384 0.0538623 0.0560282 0.0577975 0.0591424 0.0600331 0.060483 0.0604504 0.0599447 0.0589372 0.057458 0.0555492 0.0532285 0.0505235 0.0474829 0.0441569 0.0405985 0.0368671 0.0330247 0.0291367 0.0252582 0.0214022 0.0177509 0.0143263 0.0111704 0.00833419 0.00586192 0.00378962 0.00214794 0.000959904 0.000241651 2.59048e-27 0 0.000309384 0.001231 0.00274741 0.00483165 0.00744825 0.010554 0.0140993 0.0180284 0.0222807 0.0267909 0.0314929 0.0363169 0.0411915 0.0460439 0.0508014 0.055392 0.0597465 0.0637995 0.0674873 0.0707529 0.0735411 0.0758046 0.0775069 0.0786144 0.0791187 0.0790099 0.0782775 0.0769044 0.0749338 0.0723987 0.0693252 0.0657613 0.0617694 0.0574153 0.0527696 0.0479083 0.0429106 0.0378595 0.0328313 0.0278356 0.0230913 0.0186439 0.0145439 0.0108564 0.00764023 0.0049424 0.00280342 0.00125402 0.000316222 3.38773e-27 0 0.000378162 0.00150459 0.00335915 0.00590961 0.00911323 0.0129176 0.0172621 0.0220782 0.0272913 0.0328211 0.0385858 0.0444967 0.0504677 0.0564076 0.0622249 0.0678343 0.0731497 0.078088 0.0825677 0.0865189 0.0898872 0.0926114 0.0946467 0.0959551 0.0965162 0.0963278 0.0953818 0.0936713 0.0912371 0.0881088 0.0843294 0.0799643 0.0750932 0.0697895 0.0641376 0.0582265 0.0521515 0.0460137 0.039907 0.0338328 0.0280691 0.0226689 0.0176892 0.0132084 0.00929875 0.00601797 0.00341529 0.00152854 0.000385886 4.13166e-27 0 0.000440987 0.00175442 0.00391778 0.00689406 0.0106339 0.0150765 0.0201511 0.0257775 0.0318684 0.0383295 0.0450632 0.0519667 0.0589391 0.0658734 0.0726591 0.0791945 0.0853832 0.0911291 0.0963373 0.100925 0.10482 0.107959 0.110295 0.111783 0.112388 0.112128 0.110991 0.10897 0.106103 0.102432 0.0980138 0.0929301 0.0872672 0.081098 0.0745269 0.0676565 0.0605976 0.0534679 0.0463703 0.0392957 0.0326062 0.026338 0.0205568 0.0153531 0.0108114 0.00699909 0.00397359 0.00177937 0.000449414 4.81048e-27 0 0.000496764 0.00197656 0.00441455 0.00776952 0.0119863 0.0169968 0.0227209 0.0290684 0.0359402 0.0432298 0.0508258 0.0586122 0.0664733 0.0742907 0.0819388 0.0892986 0.0962601 0.102717 0.108569 0.113721 0.118086 0.121597 0.124199 0.125845 0.126491 0.126166 0.124858 0.122553 0.119301 0.115151 0.110174 0.104458 0.0980806 0.0911344 0.0837387 0.0760126 0.0680805 0.0600741 0.0520961 0.0441363 0.0366317 0.0295939 0.0231019 0.017257 0.0121544 0.00787041 0.00446965 0.00200241 0.000505936 5.41356e-27 0 0.000544702 0.00216765 0.00484165 0.00852227 0.0131493 0.0186482 0.0249311 0.031899 0.0394427 0.0474451 0.055783 0.0643287 0.072953 0.0815267 0.0899156 0.0979866 0.105614 0.112681 0.119081 0.12471 0.129478 0.133308 0.136138 0.13792 0.138606 0.138221 0.136761 0.134212 0.13063 0.126072 0.120615 0.114342 0.107342 0.0997319 0.091634 0.0831774 0.0744981 0.0657408 0.056996 0.048281 0.0400828 0.0323855 0.0252844 0.0188903 0.0133067 0.00861827 0.00489568 0.00219395 0.000554657 5.93142e-27 0 0.000584123 0.00232524 0.0051924 0.0091405 0.0141046 0.0200048 0.0267472 0.034225 0.0423211 0.0509094 0.059857 0.0690266 0.0782791 0.0874713 0.0964642 0.105118 0.113295 0.120865 0.127713 0.133733 0.138827 0.142915 0.14593 0.147821 0.148536 0.148099 0.146515 0.143765 0.139911 0.135018 0.129161 0.122425 0.114921 0.106768 0.0980957 0.0890413 0.0797509 0.0703808 0.0609838 0.0516642 0.0429056 0.0346692 0.0270704 0.0202276 0.0142504 0.00923084 0.00524489 0.00235105 0.000594639 6.35583e-27 0 0.00061429 0.00244582 0.00546131 0.00961455 0.0148372 0.0210455 0.0281406 0.03601 0.0445303 0.0535685 0.0629843 0.0726325 0.0823666 0.092036 0.101488 0.110584 0.119177 0.127134 0.134328 0.140645 0.145987 0.150268 0.15342 0.15539 0.156122 0.155645 0.153963 0.151056 0.146994 0.14184 0.135672 0.128589 0.1207 0.112133 0.103021 0.0935109 0.0837557 0.0739161 0.0639792 0.0542393 0.0450551 0.0364092 0.0284317 0.0212478 0.0149707 0.00969849 0.00551183 0.00247116 0.000625234 6.68009e-27 0 0.000634791 0.0025276 0.00564418 0.00993701 0.0153357 0.021754 0.0290895 0.0372261 0.0460358 0.0553808 0.0651159 0.0750902 0.0851521 0.0951456 0.104913 0.114305 0.123175 0.13139 0.138815 0.145333 0.150841 0.155248 0.158487 0.160506 0.161247 0.160739 0.158988 0.155972 0.151766 0.146433 0.140056 0.132735 0.124587 0.115739 0.106332 0.0965149 0.0864494 0.0762765 0.0659361 0.0559688 0.0464984 0.0375785 0.0293458 0.0219341 0.0154559 0.0100138 0.00569234 0.00255239 0.000645953 6.89908e-27 0 0.000645307 0.00256954 0.00573844 0.0101029 0.0155924 0.0221191 0.0295791 0.0378543 0.0468141 0.0563183 0.0662186 0.0763615 0.0865923 0.0967519 0.10668 0.116224 0.125236 0.133574 0.141111 0.147726 0.153314 0.157778 0.161055 0.163092 0.16383 0.163298 0.161503 0.158426 0.154139 0.148711 0.142225 0.134783 0.126503 0.117515 0.10796 0.0979924 0.0877776 0.0773927 0.0668529 0.0568056 0.0471998 0.0381489 0.0297924 0.022