<?xml version="1.0"?>
<VTKFile type="PolyData">
	<PolyData>
		<Piece NumberOfPoints="2601" NumberOfPolys="2500">
			<Points>
				<DataArray type="Float32" NumberOfComponents="3" format="ascii">
 0 0 0 0.02 0 0 0.04 0 0 0.06 0 0 0.08 0 0 0.1 0 0 0.12 0 0 0.14 0 0 0.16 0 0 0.18 0 0 0.2 0 0 0.22 0 0 0.24 0 0 0.26 0 0 0.28 0 0 0.3 0 0 0.32 0 0 0.34 0 0 0.36 0 0 0.38 0 0 0.4 0 0 0.42 0 0 0.44 0 0 0.46 0 0 0.48 0 0 0.5 0 0 0.52 0 0 0.54 0 0 0.56 0 0 0.58 0 0 0.6 0 0 0.62 0 0 0.64 0 0 0.66 0 0 0.68 0 0 0.7 0 0 0.72 0 0 0.74 0 0 0.76 0 0 0.78 0 0 0.8 0 0 0.82 0 0 0.84 0 0 0.86 0 0 0.88 0 0 0.9 0 0 0.92 0 0 0.94 0 0 0.96 0 0 0.98 0 0 1 0 0 0 0.02 0 0.02 0.02 0 0.04 0.02 0 0.06 0.02 0 0.08 0.02 0 0.1 0.02 0 0.12 0.02 0 0.14 0.02 0 0.16 0.02 0 0.18 0.02 0 0.2 0.02 0 0.22 0.02 0 0.24 0.02 0 0.26 0.02 0 0.28 0.02 0 0.3 0.02 0 0.32 0.02 0 0.34 0.02 0 0.36 0.02 0 0.38 0.02 0 0.4 0.02 0 0.42 0.02 0 0.44 0.02 0 0.46 0.02 0 0.48 0.02 0 0.5 0.02 0 0.52 0.02 0 0.54 0.02 0 0.56 0.02 0 0.58 0.02 0 0.6 0.02 0 0.62 0.02 0 0.64 0.02 0 0.66 0.02 0 0.68 0.02 0 0.7 0.02 0 0.72 0.02 0 0.74 0.02 0 0.76 0.02 0 0.78 0.02 0 0.8 0.02 0 0.82 0.02 0 0.84 0.02 0 0.86 0.02 0 0.88 0.02 0 0.9 0.02 0 0.92 0.02 0 0.94 0.02 0 0.96 0.02 0 0.98 0.02 0 1 0.02 0 0 0.04 0 0.02 0.04 0 0.04 0.04 0 0.06 0.04 0 0.08 0.04 0 0.1 0.04 0 0.12 0.04 0 0.14 0.04 0 0.16 0.04 0 0.18 0.04 0 0.2 0.04 0 0.22 0.04 0 0.24 0.04 0 0.26 0.04 0 0.28 0.04 0 0.3 0.04 0 0.32 0.04 0 0.34 0.04 0 0.36 0.04 0 0.38 0.04 0 0.4 0.04 0 0.42 0.04 0 0.44 0.04 0 0.46 0.04 0 0.48 0.04 0 0.5 0.04 0 0.52 0.04 0 0.54 0.04 0 0.56 0.04 0 0.58 0.04 0 0.6 0.04 0 0.62 0.04 0 0.64 0.04 0 0.66 0.04 0 0.68 0.04 0 0.7 0.04 0 0.72 0.04 0 0.74 0.04 0 0.76 0.04 0 0.78 0.04 0 0.8 0.04 0 0.82 0.04 0 0.84 0.04 0 0.86 0.04 0 0.88 0.04 0 0.9 0.04 0 0.92 0.04 0 0.94 0.04 0 0.96 0.04 0 0.98 0.04 0 1 0.04 0 0 0.06 0 0.02 0.06 0 0.04 0.06 0 0.06 0.06 0 0.08 0.06 0 0.1 0.06 0 0.12 0.06 0 0.14 0.06 0 0.16 0.06 0 0.18 0.06 0 0.2 0.06 0 0.22 0.06 0 0.24 0.06 0 0.26 0.06 0 0.28 0.06 0 0.3 0.06 0 0.32 0.06 0 0.34 0.06 0 0.36 0.06 0 0.38 0.06 0 0.4 0.06 0 0.42 0.06 0 0.44 0.06 0 0.46 0.06 0 0.48 0.06 0 0.5 0.06 0 0.52 0.06 0 0.54 0.06 0 0.56 0.06 0 0.58 0.06 0 0.6 0.06 0 0.62 0.06 0 0.64 0.06 0 0.66 0.06 0 0.68 0.06 0 0.7 0.06 0 0.72 0.06 0 0.74 0.06 0 0.76 0.06 0 0.78 0.06 0 0.8 0.06 0 0.82 0.06 0 0.84 0.06 0 0.86 0.06 0 0.88 0.06 0 0.9 0.06 0 0.92 0.06 0 0.94 0.06 0 0.96 0.06 0 0.98 0.06 0 1 0.06 0 0 0.08 0 0.02 0.08 0 0.04 0.08 0 0.06 0.08 0 0.08 0.08 0 0.1 0.08 0 0.12 0.08 0 0.14 0.08 0 0.16 0.08 0 0.18 0.08 0 0.2 0.08 0 0.22 0.08 0 0.24 0.08 0 0.26 0.08 0 0.28 0.08 0 0.3 0.08 0 0.32 0.08 0 0.34 0.08 0 0.36 0.08 0 0.38 0.08 0 0.4 0.08 0 0.42 0.08 0 0.44 0.08 0 0.46 0.08 0 0.48 0.08 0 0.5 0.08 0 0.52 0.08 0 0.54 0.08 0 0.56 0.08 0 0.58 0.08 0 0.6 0.08 0 0.62 0.08 0 0.64 0.08 0 0.66 0.08 0 0.68 0.08 0 0.7 0.08 0 0.72 0.08 0 0.74 0.08 0 0.76 0.08 0 0.78 0.08 0 0.8 0.08 0 0.82 0.08 0 0.84 0.08 0 0.86 0.08 0 0.88 0.08 0 0.9 0.08 0 0.92 0.08 0 0.94 0.08 0 0.96 0.08 0 0.98 0.08 0 1 0.08 0 0 0.1 0 0.02 0.1 0 0.04 0.1 0 0.06 0.1 0 0.08 0.1 0 0.1 0.1 0 0.12 0.1 0 0.14 0.1 0 0.16 0.1 0 0.18 0.1 0 0.2 0.1 0 0.22 0.1 0 0.24 0.1 0 0.26 0.1 0 0.28 0.1 0 0.3 0.1 0 0.32 0.1 0 0.34 0.1 0 0.36 0.1 0 0.38 0.1 0 0.4 0.1 0 0.42 0.1 0 0.44 0.1 0 0.46 0.1 0 0.48 0.1 0 0.5 0.1 0 0.52 0.1 0 0.54 0.1 0 0.56 0.1 0 0.58 0.1 0 0.6 0.1 0 0.62 0.1 0 0.64 0.1 0 0.66 0.1 0 0.68 0.1 0 0.7 0.1 0 0.72 0.1 0 0.74 0.1 0 0.76 0.1 0 0.78 0.1 0 0.8 0.1 0 0.82 0.1 0 0.84 0.1 0 0.86 0.1 0 0.88 0.1 0 0.9 0.1 0 0.92 0.1 0 0.94 0.1 0 0.96 0.1 0 0.98 0.1 0 1 0.1 0 0 0.12 0 0.02 0.12 0 0.04 0.12 0 0.06 0.12 0 0.08 0.12 0 0.1 0.12 0 0.12 0.12 0 0.14 0.12 0 0.16 0.12 0 0.18 0.12 0 0.2 0.12 0 0.22 0.12 0 0.24 0.12 0 0.26 0.12 0 0.28 0.12 0 0.3 0.12 0 0.32 0.12 0 0.34 0.12 0 0.36 0.12 0 0.38 0.12 0 0.4 0.12 0 0.42 0.12 0 0.44 0.12 0 0.46 0.12 0 0.48 0.12 0 0.5 0.12 0 0.52 0.12 0 0.54 0.12 0 0.56 0.12 0 0.58 0.12 0 0.6 0.12 0 0.62 0.12 0 0.64 0.12 0 0.66 0.12 0 0.68 0.12 0 0.7 0.12 0 0.72 0.12 0 0.74 0.12 0 0.76 0.12 0 0.78 0.12 0 0.8 0.12 0 0.82 0.12 0 0.84 0.12 0 0.86 0.12 0 0.88 0.12 0 0.9 0.12 0 0.92 0.12 0 0.94 0.12 0 0.96 0.12 0 0.98 0.12 0 1 0.12 0 0 0.14 0 0.02 0.14 0 0.04 0.14 0 0.06 0.14 0 0.08 0.14 0 0.1 0.14 0 0.12 0.14 0 0.14 0.14 0 0.16 0.14 0 0.18 0.14 0 0.2 0.14 0 0.22 0.14 0 0.24 0.14 0 0.26 0.14 0 0.28 0.14 0 0.3 0.14 0 0.32 0.14 0 0.34 0.14 0 0.36 0.14 0 0.38 0.14 0 0.4 0.14 0 0.42 0.14 0 0.44 0.14 0 0.46 0.14 0 0.48 0.14 0 0.5 0.14 0 0.52 0.14 0 0.54 0.14 0 0.56 0.14 0 0.58 0.14 0 0.6 0.14 0 0.62 0.14 0 0.64 0.14 0 0.66 0.14 0 0.68 0.14 0 0.7 0.14 0 0.72 0.14 0 0.74 0.14 0 0.76 0.14 0 0.78 0.14 0 0.8 0.14 0 0.82 0.14 0 0.84 0.14 0 0.86 0.14 0 0.88 0.14 0 0.9 0.14 0 0.92 0.14 0 0.94 0.14 0 0.96 0.14 0 0.98 0.14 0 1 0.14 0 0 0.16 0 0.02 0.16 0 0.04 0.16 0 0.06 0.16 0 0.08 0.16 0 0.1 0.16 0 0.12 0.16 0 0.14 0.16 0 0.16 0.16 0 0.18 0.16 0 0.2 0.16 0 0.22 0.16 0 0.24 0.16 0 0.26 0.16 0 0.28 0.16 0 0.3 0.16 0 0.32 0.16 0 0.34 0.16 0 0.36 0.16 0 0.38 0.16 0 0.4 0.16 0 0.42 0.16 0 0.44 0.16 0 0.46 0.16 0 0.48 0.16 0 0.5 0.16 0 0.52 0.16 0 0.54 0.16 0 0.56 0.16 0 0.58 0.16 0 0.6 0.16 0 0.62 0.16 0 0.64 0.16 0 0.66 0.16 0 0.68 0.16 0 0.7 0.16 0 0.72 0.16 0 0.74 0.16 0 0.76 0.16 0 0.78 0.16 0 0.8 0.16 0 0.82 0.16 0 0.84 0.16 0 0.86 0.16 0 0.88 0.16 0 0.9 0.16 0 0.92 0.16 0 0.94 0.16 0 0.96 0.16 0 0.98 0.16 0 1 0.16 0 0 0.18 0 0.02 0.18 0 0.04 0.18 0 0.06 0.18 0 0.08 0.18 0 0.1 0.18 0 0.12 0.18 0 0.14 0.18 0 0.16 0.18 0 0.18 0.18 0 0.2 0.18 0 0.22 0.18 0 0.24 0.18 0 0.26 0.18 0 0.28 0.18 0 0.3 0.18 0 0.32 0.18 0 0.34 0.18 0 0.36 0.18 0 0.38 0.18 0 0.4 0.18 0 0.42 0.18 0 0.44 0.18 0 0.46 0.18 0 0.48 0.18 0 0.5 0.18 0 0.52 0.18 0 0.54 0.18 0 0.56 0.18 0 0.58 0.18 0 0.6 0.18 0 0.62 0.18 0 0.64 0.18 0 0.66 0.18 0 0.68 0.18 0 0.7 0.18 0 0.72 0.18 0 0.74 0.18 0 0.76 0.18 0 0.78 0.18 0 0.8 0.18 0 0.82 0.18 0 0.84 0.18 0 0.86 0.18 0 0.88 0.18 0 0.9 0.18 0 0.92 0.18 0 0.94 0.18 0 0.96 0.18 0 0.98 0.18 0 1 0.18 0 0 0.2 0 0.02 0.2 0 0.04 0.2 0 0.06 0.2 0 0.08 0.2 0 0.1 0.2 0 0.12 0.2 0 0.14 0.2 0 0.16 0.2 0 0.18 0.2 0 0.2 0.2 0 0.22 0.2 0 0.24 0.2 0 0.26 0.2 0 0.28 0.2 0 0.3 0.2 0 0.32 0.2 0 0.34 0.2 0 0.36 0.2 0 0.38 0.2 0 0.4 0.2 0 0.42 0.2 0 0.44 0.2 0 0.46 0.2 0 0.48 0.2 0 0.5 0.2 0 0.52 0.2 0 0.54 0.2 0 0.56 0.2 0 0.58 0.2 0 0.6 0.2 0 0.62 0.2 0 0.64 0.2 0 0.66 0.2 0 0.68 0.2 0 0.7 0.2 0 0.72 0.2 0 0.74 0.2 0 0.76 0.2 0 0.78 0.2 0 0.8 0.2 0 0.82 0.2 0 0.84 0.2 0 0.86 0.2 0 0.88 0.2 0 0.9 0.2 0 0.92 0.2 0 0.94 0.2 0 0.96 0.2 0 0.98 0.2 0 1 0.2 0 0 0.22 0 0.02 0.22 0 0.04 0.22 0 0.06 0.22 0 0.08 0.22 0 0.1 0.22 0 0.12 0.22 0 0.14 0.22 0 0.16 0.22 0 0.18 0.22 0 0.2 0.22 0 0.22 0.22 0 0.24 0.22 0 0.26 0.22 0 0.28 0.22 0 0.3 0.22 0 0.32 0.22 0 0.34 0.22 0 0.36 0.22 0 0.38 0.22 0 0.4 0.22 0 0.42 0.22 0 0.44 0.22 0 0.46 0.22 0 0.48 0.22 0 0.5 0.22 0 0.52 0.22 0 0.54 0.22 0 0.56 0.22 0 0.58 0.22 0 0.6 0.22 0 0.62 0.22 0 0.64 0.22 0 0.66 0.22 0 0.68 0.22 0 0.7 0.22 0 0.72 0.22 0 0.74 0.22 0 0.76 0.22 0 0.78 0.22 0 0.8 0.22 0 0.82 0.22 0 0.84 0.22 0 0.86 0.22 0 0.88 0.22 0 0.9 0.22 0 0.92 0.22 0 0.94 0.22 0 0.96 0.22 0 0.98 0.22 0 1 0.22 0 0 0.24 0 0.02 0.24 0 0.04 0.24 0 0.06 0.24 0 0.08 0.24 0 0.1 0.24 0 0.12 0.24 0 0.14 0.24 0 0.16 0.24 0 0.18 0.24 0 0.2 0.24 0 0.22 0.24 0 0.24 0.24 0 0.26 0.24 0 0.28 0.24 0 0.3 0.24 0 0.32 0.24 0 0.34 0.24 0 0.36 0.24 0 0.38 0.24 0 0.4 0.24 0 0.42 0.24 0 0.44 0.24 0 0.46 0.24 0 0.48 0.24 0 0.5 0.24 0 0.52 0.24 0 0.54 0.24 0 0.56 0.24 0 0.58 0.24 0 0.6 0.24 0 0.62 0.24 0 0.64 0.24 0 0.66 0.24 0 0.68 0.24 0 0.7 0.24 0 0.72 0.24 0 0.74 0.24 0 0.76 0.24 0 0.78 0.24 0 0.8 0.24 0 0.82 0.24 0 0.84 0.24 0 0.86 0.24 0 0.88 0.24 0 0.9 0.24 0 0.92 0.24 0 0.94 0.24 0 0.96 0.24 0 0.98 0.24 0 1 0.24 0 0 0.26 0 0.02 0.26 0 0.04 0.26 0 0.06 0.26 0 0.08 0.26 0 0.1 0.26 0 0.12 0.26 0 0.14 0.26 0 0.16 0.26 0 0.18 0.26 0 0.2 0.26 0 0.22 0.26 0 0.24 0.26 0 0.26 0.26 0 0.28 0.26 0 0.3 0.26 0 0.32 0.26 0 0.34 0.26 0 0.36 0.26 0 0.38 0.26 0 0.4 0.26 0 0.42 0.26 0 0.44 0.26 0 0.46 0.26 0 0.48 0.26 0 0.5 0.26 0 0.52 0.26 0 0.54 0.26 0 0.56 0.26 0 0.58 0.26 0 0.6 0.26 0 0.62 0.26 0 0.64 0.26 0 0.66 0.26 0 0.68 0.26 0 0.7 0.26 0 0.72 0.26 0 0.74 0.26 0 0.76 0.26 0 0.78 0.26 0 0.8 0.26 0 0.82 0.26 0 0.84 0.26 0 0.86 0.26 0 0.88 0.26 0 0.9 0.26 0 0.92 0.26 0 0.94 0.26 0 0.96 0.26 0 0.98 0.26 0 1 0.26 0 0 0.28 0 0.02 0.28 0 0.04 0.28 0 0.06 0.28 0 0.08 0.28 0 0.1 0.28 0 0.12 0.28 0 0.14 0.28 0 0.16 0.28 0 0.18 0.28 0 0.2 0.28 0 0.22 0.28 0 0.24 0.28 0 0.26 0.28 0 0.28 0.28 0 0.3 0.28 0 0.32 0.28 0 0.34 0.28 0 0.36 0.28 0 0.38 0.28 0 0.4 0.28 0 0.42 0.28 0 0.44 0.28 0 0.46 0.28 0 0.48 0.28 0 0.5 0.28 0 0.52 0.28 0 0.54 0.28 0 0.56 0.28 0 0.58 0.28 0 0.6 0.28 0 0.62 0.28 0 0.64 0.28 0 0.66 0.28 0 0.68 0.28 0 0.7 0.28 0 0.72 0.28 0 0.74 0.28 0 0.76 0.28 0 0.78 0.28 0 0.8 0.28 0 0.82 0.28 0 0.84 0.28 0 0.86 0.28 0 0.88 0.28 0 0.9 0.28 0 0.92 0.28 0 0.94 0.28 0 0.96 0.28 0 0.98 0.28 0 1 0.28 0 0 0.3 0 0.02 0.3 0 0.04 0.3 0 0.06 0.3 0 0.08 0.3 0 0.1 0.3 0 0.12 0.3 0 0.14 0.3 0 0.16 0.3 0 0.18 0.3 0 0.2 0.3 0 0.22 0.3 0 0.24 0.3 0 0.26 0.3 0 0.28 0.3 0 0.3 0.3 0 0.32 0.3 0 0.34 0.3 0 0.36 0.3 0 0.38 0.3 0 0.4 0.3 0 0.42 0.3 0 0.44 0.3 0 0.46 0.3 0 0.48 0.3 0 0.5 0.3 0 0.52 0.3 0 0.54 0.3 0 0.56 0.3 0 0.58 0.3 0 0.6 0.3 0 0.62 0.3 0 0.64 0.3 0 0.66 0.3 0 0.68 0.3 0 0.7 0.3 0 0.72 0.3 0 0.74 0.3 0 0.76 0.3 0 0.78 0.3 0 0.8 0.3 0 0.82 0.3 0 0.84 0.3 0 0.86 0.3 0 0.88 0.3 0 0.9 0.3 0 0.92 0.3 0 0.94 0.3 0 0.96 0.3 0 0.98 0.3 0 1 0.3 0 0 0.32 0 0.02 0.32 0 0.04 0.32 0 0.06 0.32 0 0.08 0.32 0 0.1 0.32 0 0.12 0.32 0 0.14 0.32 0 0.16 0.32 0 0.18 0.32 0 0.2 0.32 0 0.22 0.32 0 0.24 0.32 0 0.26 0.32 0 0.28 0.32 0 0.3 0.32 0 0.32 0.32 0 0.34 0.32 0 0.36 0.32 0 0.38 0.32 0 0.4 0.32 0 0.42 0.32 0 0.44 0.32 0 0.46 0.32 0 0.48 0.32 0 0.5 0.32 0 0.52 0.32 0 0.54 0.32 0 0.56 0.32 0 0.58 0.32 0 0.6 0.32 0 0.62 0.32 0 0.64 0.32 0 0.66 0.32 0 0.68 0.32 0 0.7 0.32 0 0.72 0.32 0 0.74 0.32 0 0.76 0.32 0 0.78 0.32 0 0.8 0.32 0 0.82 0.32 0 0.84 0.32 0 0.86 0.32 0 0.88 0.32 0 0.9 0.32 0 0.92 0.32 0 0.94 0.
[...]
			<PointData Scalars="VitesseX">
				<DataArray Name="VitesseX" type="Float32" format="ascii">
 -0 -0 -0 -0 -0 -0 -0 -0 -0 -0 -0 -0 -0 -0 -0 -0 -0 -0 -0 -0 -0 -0 -0 -0 -0 -0 -0 -0 -0 -0 -0 -0 -0 -0 -0 -0 -0 -0 -0 -0 -0 -0 -0 -0 -0 -0 -0 -0 -0 -0 -0 -0 -0.000488061 -0.00194455 -0.00434649 -0.00765601 -0.0118209 -0.0167755 -0.0224417 -0.02873 -0.0355414 -0.0427685 -0.0502971 -0.0580087 -0.0657815 -0.0734931 -0.0810217 -0.0882487 -0.0950601 -0.101348 -0.107015 -0.111969 -0.116134 -0.119444 -0.121846 -0.123302 -0.12379 -0.123302 -0.121846 -0.119444 -0.116134 -0.111969 -0.107015 -0.101348 -0.0950601 -0.0882487 -0.0810217 -0.0734931 -0.0657815 -0.0580087 -0.0502971 -0.0427685 -0.0355414 -0.02873 -0.0224417 -0.0167755 -0.0118209 -0.00765601 -0.00434649 -0.00194455 -0.000488061 -5.29522e-27 -0 -0.000968425 -0.00385843 -0.00862443 -0.0151913 -0.0234554 -0.0332865 -0.0445294 -0.057007 -0.0705224 -0.0848624 -0.099801 -0.115102 -0.130526 -0.145827 -0.160766 -0.175106 -0.188621 -0.201099 -0.212342 -0.222173 -0.230437 -0.237004 -0.24177 -0.24466 -0.245628 -0.24466 -0.24177 -0.237004 -0.230437 -0.222173 -0.212342 -0.201099 -0.188621 -0.175106 -0.160766 -0.145827 -0.130526 -0.115102 -0.099801 -0.0848624 -0.0705224 -0.057007 -0.0445294 -0.0332865 -0.0234554 -0.0151913 -0.00862443 -0.00385843 -0.000968425 -1.05069e-26 -0 -0.00143352 -0.00571146 -0.0127664 -0.022487 -0.03472 -0.0492725 -0.0659149 -0.0843849 -0.104391 -0.125618 -0.147731 -0.170381 -0.193211 -0.215861 -0.237974 -0.259201 -0.279207 -0.297677 -0.31432 -0.328872 -0.341105 -0.350826 -0.357881 -0.362159 -0.363592 -0.362159 -0.357881 -0.350826 -0.341105 -0.328872 -0.31432 -0.297677 -0.279207 -0.259201 -0.237974 -0.215861 -0.193211 -0.170381 -0.147731 -0.125618 -0.104391 -0.0843849 -0.0659149 -0.0492725 -0.03472 -0.022487 -0.0127664 -0.00571146 -0.00143352 -1.5553e-26 -0 -0.001876 -0.00747442 -0.016707 -0.029428 -0.045437 -0.0644814 -0.0862609 -0.110432 -0.136614 -0.164393 -0.193331 -0.222973 -0.25285 -0.282491 -0.31143 -0.339209 -0.36539 -0.389562 -0.411341 -0.430385 -0.446394 -0.459116 -0.468348 -0.473946 -0.475822 -0.473946 -0.468348 -0.459116 -0.446394 -0.430385 -0.411341 -0.389562 -0.36539 -0.339209 -0.31143 -0.282491 -0.25285 -0.222973 -0.193331 -0.164393 -0.136614 -0.110432 -0.0862609 -0.0644814 -0.045437 -0.029428 -0.016707 -0.00747442 -0.001876 -2.03537e-26 -0 -0.0022889 -0.0091195 -0.0203841 -0.035905 -0.0554375 -0.0786734 -0.105247 -0.134738 -0.166682 -0.200575 -0.235882 -0.272048 -0.308501 -0.344666 -0.379974 -0.413867 -0.445811 -0.475302 -0.501875 -0.525111 -0.544644 -0.560165 -0.571429 -0.57826 -0.580549 -0.57826 -0.571429 -0.560165 -0.544644 -0.525111 -0.501875 -0.475302 -0.445811 -0.413867 -0.379974 -0.344666 -0.308501 -0.272048 -0.235882 -0.200575 -0.166682 -0.134738 -0.105247 -0.0786734 -0.0554375 -0.035905 -0.0203841 -0.0091195 -0.0022889 -2.48334e-26 -0 -0.0026657 -0.0106208 -0.0237397 -0.0418157 -0.0645636 -0.0916248 -0.122572 -0.156918 -0.194121 -0.233593 -0.274714 -0.316833 -0.359287 -0.401406 -0.442526 -0.481998 -0.519201 -0.553547 -0.584494 -0.611556 -0.634303 -0.652379 -0.665498 -0.673453 -0.676119 -0.673453 -0.665498 -0.652379 -0.634303 -0.611556 -0.584494 -0.553547 -0.519201 -0.481998 -0.442526 -0.401406 -0.359287 -0.316833 -0.274714 -0.233593 -0.194121 -0.156918 -0.122572 -0.0916248 -0.0645636 -0.0418157 -0.0237397 -0.0106208 -0.0026657 -2.89215e-26 -0 -0.00300046 -0.0119545 -0.026721 -0.047067 -0.0726716 -0.103131 -0.137965 -0.176624 -0.218499 -0.262928 -0.309212 -0.356621 -0.404406 -0.451815 -0.498099 -0.542528 -0.584403 -0.623062 -0.657896 -0.688355 -0.71396 -0.734306 -0.749072 -0.758026 -0.761027 -0.758026 -0.749072 -0.734306 -0.71396 -0.688355 -0.657896 -0.623062 -0.584403 -0.542528 -0.498099 -0.451815 -0.404406 -0.356621 -0.309212 -0.262928 -0.218499 -0.176624 -0.137965 -0.103131 -0.0726716 -0.047067 -0.026721 -0.0119545 -0.00300046 -3.25535e-26 -0 -0.0032879 -0.0130998 -0.0292808 -0.051576 -0.0796335 -0.113011 -0.151182 -0.193545 -0.239431 -0.288117 -0.338835 -0.390785 -0.443148 -0.495098 -0.545816 -0.594502 -0.640388 -0.682751 -0.720922 -0.754299 -0.782357 -0.804652 -0.820833 -0.830645 -0.833933 -0.830645 -0.820833 -0.804652 -0.782357 -0.754299 -0.720922 -0.682751 -0.640388 -0.594502 -0.545816 -0.495098 -0.443148 -0.390785 -0.338835 -0.288117 -0.239431 -0.193545 -0.151182 -0.113011 -0.0796335 -0.051576 -0.0292808 -0.0130998 -0.0032879 -3.56721e-26 -0 -0.00352349 -0.0140384 -0.0313789 -0.0552716 -0.0853395 -0.121109 -0.162015 -0.207413 -0.256587 -0.308761 -0.363113 -0.418786 -0.474901 -0.530574 -0.584926 -0.6371 -0.686274 -0.731672 -0.772579 -0.808348 -0.838416 -0.862308 -0.879649 -0.890164 -0.893687 -0.890164 -0.879649 -0.862308 -0.838416 -0.808348 -0.772579 -0.731672 -0.686274 -0.6371 -0.584926 -0.530574 -0.474901 -0.418786 -0.363113 -0.308761 -0.256587 -0.207413 -0.162015 -0.121109 -0.0853395 -0.0552716 -0.0313789 -0.0140384 -0.00352349 -3.82282e-26 -0 -0.00370352 -0.0147557 -0.0329821 -0.0580955 -0.0896997 -0.127296 -0.170292 -0.21801 -0.269696 -0.324537 -0.381666 -0.440183 -0.499165 -0.557682 -0.614811 -0.669651 -0.721337 -0.769055 -0.812051 -0.849648 -0.881252 -0.906365 -0.924592 -0.935644 -nan -nan -nan -nan -nan -nan -nan -nan -nan -nan -nan -0.557682 -0.499165 -0.440183 -0.381666 -0.324537 -0.269696 -0.21801 -0.170292 -0.127296 -0.0896997 -0.0580955 -0.0329821 -0.0147557 -0.00370352 -4.01813e-26 -0 -0.00382513 -0.0152402 -0.0340652 -0.0600032 -0.0926453 -0.131476 -0.175884 -0.225169 -0.278553 -0.335194 -0.394199 -0.454637 -0.515556 -0.575995 -0.635 -0.691641 -0.745025 -0.794309 -0.838717 -0.877548 -0.91019 -0.936128 -nan -nan -nan -nan -nan -nan -nan -nan -nan -nan -nan -nan -nan -nan -nan -0.454637 -0.394199 -0.335194 -0.278553 -0.225169 -0.175884 -0.131476 -0.0926453 -0.0600032 -0.0340652 -0.0152402 -0.00382513 -4.15008e-26 -0 -0.00388642 -0.0154844 -0.034611 -0.0609647 -0.0941297 -0.133583 -0.178703 -0.228777 -0.283016 -0.340565 -0.400515 -0.461922 -0.523817 -0.585224 -0.645175 -0.702723 -0.756962 -0.807037 -0.852156 -0.89161 -0.924775 -0.951128 -nan -nan -0.984262 -0.975484 -0.959695 -0.937411 -0.909005 -0.874849 -0.835439 -0.790968 -0.741568 -0.687945 -0.631484 -nan -nan -nan -nan -nan -0.283016 -0.228777 -0.178703 -0.133583 -0.0941297 -0.0609647 -0.034611 -0.0154844 -0.00388642 -4.21658e-26 -0 -0.00388642 -0.0154844 -0.034611 -0.0609647 -0.0941297 -0.133583 -0.178703 -0.228777 -0.283016 -0.340565 -0.400515 -0.461922 -0.523817 -0.585224 -0.645175 -0.702723 -0.756962 -0.807037 -0.852156 -0.89161 -nan -nan -0.981923 -0.986837 -0.981791 -0.97074 -0.953759 -0.930757 -0.901903 -0.867551 -0.828016 -0.783716 -0.734697 -0.68117 -0.625114 -0.566725 -0.506941 -nan -nan -nan -0.283016 -0.228777 -0.178703 -0.133583 -0.0941297 -0.0609647 -0.034611 -0.0154844 -0.00388642 -4.21658e-26 -0 -0.00382513 -0.0152402 -0.0340652 -0.0600032 -0.0926453 -0.131476 -0.175884 -0.225169 -0.278553 -0.335194 -0.394199 -0.454637 -0.515556 -0.575995 -0.635 -0.691641 -0.745025 -0.794309 -0.838717 -0.877548 -nan -nan -0.967047 -0.971491 -0.965426 -0.952742 -0.934647 -0.910989 -0.881871 -0.847604 -0.808382 -0.764758 -0.71666 -0.664151 -0.609346 -0.552362 -0.494044 -0.435426 -0.377487 -0.321527 -nan -nan -nan -0.131476 -0.0926453 -0.0600032 -0.0340652 -0.0152402 -0.00382513 -4.15008e-26 -0 -0.00370352 -0.0147557 -0.0329821 -0.0580955 -0.0896997 -0.127296 -0.170292 -0.21801 -0.269696 -0.324537 -0.381666 -0.440183 -0.499165 -0.557682 -0.614811 -0.669651 -0.721337 -0.769055 -nan -nan -0.905039 -0.924862 -0.937012 -0.940869 -0.934513 -0.921042 -0.902265 -0.878253 -0.849184 -0.815316 -0.776843 -0.734346 -0.687715 -0.637046 -0.584247 -0.529475 -0.473504 -0.417291 -0.361758 -0.307691 -nan -nan -nan -0.127296 -0.0896997 -0.0580955 -0.0329821 -0.0147557 -0.00370352 -4.01813e-26 -0 -0.00352349 -0.0140384 -0.0313789 -0.0552716 -0.0853395 -0.121109 -0.162015 -0.207413 -0.256587 -0.308761 -0.363113 -0.418786 -0.474901 -0.530574 -0.584926 -0.6371 -0.686274 -0.731672 -nan -nan -0.863246 -0.881248 -0.892307 -0.895461 -0.889122 -0.87555 -0.856638 -0.83274 -0.804158 -0.771128 -0.733864 -0.692943 -0.648385 -0.600347 -0.550187 -0.498415 -0.44562 -0.392663 -0.340388 -0.289509 -0.24078 -0.195508 -0.153411 -nan -nan -0.0552716 -0.0313789 -0.0140384 -0.00352349 -3.82282e-26 -0 -0.0032879 -0.0130998 -0.0292808 -0.051576 -0.0796335 -0.113011 -0.151182 -0.193545 -0.239431 -0.288117 -0.338835 -0.390785 -0.443148 -0.495098 -0.545816 -0.594502 -nan -nan -0.754627 -0.784778 -0.807607 -0.823897 -0.833654 -0.835987 -0.829778 -0.816582 -0.798055 -0.774781 -0.74716 -0.71549 -0.679994 -0.641173 -0.599314 -0.55459 -0.507673 -0.459654 -0.410822 -0.361928 -0.313721 -0.266831 -0.22193 -0.179853 -0.14118 -nan -nan -0.051576 -0.0292808 -0.0130998 -0.0032879 -3.56721e-26 -0 -0.00300046 -0.0119545 -0.026721 -0.047067 -0.0726716 -0.103131 -0.137965 -0.176624 -0.218499 -0.262928 -0.309212 -0.356621 -0.404406 -0.451815 -0.498099 -0.542528 -nan -nan -0.69294 -0.719215 -0.739501 -0.753788 -0.762005 -0.763389 -0.757323 -0.74481 -0.727099 -0.70492 -0.678762 -0.648972 -0.615817 -0.579726 -0.541159 -0.500278 -0.457324 -0.413758 -0.369615 -0.325523 -0.282123 -0.239947 -0.199574 -0.161563 -0.126612 -0.095104 -0.0672532 -nan -nan -0.0119545 -0.00300046 -3.25535e-26 -0 -0.0026657 -0.0106208 -0.0237397 -0.0418157 -0.0645636 -0.0916248 -0.122572 -0.156918 -0.194121 -0.233593 -0.274714 -0.316833 -0.359287 -0.401406 -nan -nan -0.556788 -0.588983 -0.620019 -0.642786 -0.660192 -0.672118 -0.678537 -0.678821 -0.672846 -0.661209 -0.644648 -0.623951 -0.59972 -0.57236 -0.542107 -0.509358 -0.47466 -0.43815 -0.39987 -0.361401 -0.322611 -0.283996 -0.246079 -0.209288 -0.174098 -0.140977 -0.110382 -0.0829337 -0.0587544 -nan -nan -0.0106208 -0.0026657 -2.89215e-26 -0 -0.0022889 -0.0091195 -0.0203841 -0.035905 -0.0554375 -0.0786734 -0.105247 -0.134738 -0.166682 -0.200575 -0.235882 -0.272048 -0.308501 -0.344666 -nan -nan -0.484173 -0.511545 -0.537974 -0.556775 -0.570867 -0.580167 -0.584612 -0.583629 -0.577295 -0.566498 -0.551752 -0.532924 -0.510978 -0.486529 -0.45977 -0.430998 -0.400736 -0.369103 -0.336144 -0.303344 -0.270495 -0.237946 -0.206097 -0.175268 -0.145815 -0.118105 -0.0925035 -0.0694094 -0.0492589 -0.0320124 -0.018239 -nan -nan -2.48334e-26 -0 -0.001876 -0.00747442 -0.016707 -0.029428 -0.045437 -0.0644814 -0.0862609 -0.110432 -0.136614 -0.164393 -0.193331 -0.222973 -nan -nan -0.350145 -0.37951 -0.405613 -0.427659 -0.447915 -0.46238 -0.472748 -0.479041 -0.481301 -0.479111 -0.472858 -0.46287 -0.449422 -0.433039 -0.413716 -0.392551 -0.369818 -0.345643 -0.320423 -0.294205 -0.267146 -0.240464 -0.214053 -0.188079 -0.162806 -0.138439 -0.115215 -0.0933835 -0.0732119 -0.0549714 -0.0390613 -0.0254463 -0.01451 -nan -nan -2.03537e-26 -0 -0.00143352 -0.00571146 -0.0127664 -0.022487 -0.03472 -0.0492725 -0.0659149 -0.0843849 -0.104391 -0.125618 -0.147731 -0.170381 -nan -nan -0.280927 -0.304585 -0.32459 -0.340721 -0.353466 -0.362956 -0.36899 -0.371658 -0.371143 -0.367302 -0.36095 -0.351929 -0.339785 -0.325745 -0.309289 -0.291744 -0.273457 -0.254384 -0.23475 -0.214552 -0.193934 -0.173704 -0.154122 -0.13513 -0.116833 -0.0993148 -0.0826869 -0.0670825 -0.0526587 -0.0395932 -0.0280866 -0.0184 -0.010485 -0.0047201 -0.00119197 -nan -0 -0.000968425 -0.00385843 -0.00862443 -0.0151913 -0.0234554 -0.0332865 -0.0445294 -0.057007 -0.0705224 -0.0848624 -nan -nan -0.170406 -0.190207 -0.209519 -0.226463 -0.240377 -0.251495 -0.256711 -0.260947 -0.262352 -0.260949 -0.256886 -0.250327 -0.243136 -0.23529 -0.224813 -0.212511 -0.19916 -0.185633 -0.172109 -0.158499 -0.144889 -0.131199 -0.117432 -0.104076 -0.091608 -0.0799303 -0.0689232 -0.0585597 -0.0488254 -0.0397326 -0.0313253 -0.0236799 -0.0168982 -0.0111589 -0.00639878 -0.00292699 -0.000746952 -nan -0 -0.000488061 -0.00194455 -0.00434649 -0.00765601 -0.0118209 -0.0167755 -0.0224417 -0.02873 -0.0355414 -0.0427685 -nan -nan -0.111027 -0.123693 -0.135431 -0.144062 -0.151314 -0.158758 -0.15894 -0.158494 -0.155773 -0.150384 -0.141887 -0.130539 -0.121323 -0.114156 -0.104207 -0.0940256 -0.0847485 -0.0758369 -0.0673597 -0.0594675 -0.0521846 -0.0453152 -0.0387154 -0.0326139 -0.0274586 -0.0232947 -0.0197596 -0.0167153 -0.0140252 -0.0115806 -0.00931275 -0.00719677 -0.00524791 -0.00351495 -0.00210939 -0.000958797 -0.000246511 -1.90404e-28 0 8.05392e-16 3.20887e-15 7.17252e-15 1.26338e-14 1.95067e-14 2.76827e-14 3.70329e-14 4.74099e-14 5.865e-14 7.05759e-14 -nan -nan -0.0493949 -0.0542015 -0.058171 -0.0612136 -0.0623397 -0.0630049 -0.0623726 -0.0589622 -0.0539816 -0.0468233 -0.03533 -0.0137989 0.00259315 0.0143975 0.0223862 0.02751 0.0320854 0.0361303 0.0392814 0.0412678 0.0421409 0.0420773 0.0412779 0.0398205 0.0374569 0.0340364 0.0299983 0.0256373 0.0212096 0.0169387 0.0130247 0.00957516 0.00665647 0.00429499 0.0024276 0.00121619 0.00040572 4.48348e-27 0 0.000488061 0.00194455 0.00434649 0.00765601 0.0118209 0.0167755 0.0224417 0.02873 0.0355414 0.0427685 -nan -nan 0.0168494 0.0193258 0.022531 0.0265086 0.0311277 0.0366048 0.0436595 0.0507072 0.059182 0.0688522 0.0794318 0.0894138 0.157979 0.141563 0.145327 0.14752 0.148451 0.147943 0.145689 0.141787 0.136358 0.129424 0.121226 0.112087 0.102083 0.091199 0.0796055 0.0679182 0.0564719 0.0455907 0.0355509 0.0265799 0.0188344 0.0124092 0.00731771 0.00360743 0.00122538 8.79572e-27 0 0.000968425 0.00385843 0.00862443 0.0151913 0.0234554 0.0332865 0.0445294 0.057007 0.0705224 0.0848624 0.099801 0.115102 -nan -nan 0.105141 0.115711 0.12702 0.138737 0.149158 0.16179 0.172529 0.184783 0.197573 0.209435 0.275292 0.262356 0.264787 0.264809 0.262427 0.257496 0.250101 0.240582 0.22899 0.215327 0.199901 0.183172 0.165541 0.147209 0.128281 0.109456 0.0911762 0.0738626 0.0578848 0.0435476 0.0310833 0.0206532 0.0123557 0.00631439 0.00219678 1.33201e-26 0 0.00143352 0.00571146 0.0127664 0.022487 0.03472 0.0492725 0.0659149 0.0843849 0.104391 0.125618 0.147731 0.170381 -nan -nan 0.181062 0.198497 0.216162 0.233528 0.25044 0.268765 0.284882 0.297186 0.311062 0.3234 0.389814 0.379035 0.379942 0.377569 0.371975 0.362924 0.350855 0.336084 0.318546 0.298392 0.276017 0.251987 0.226913 0.20124 0.175316 0.149628 0.124794 0.101304 0.0796108 0.0600974 0.0430686 0.028751 0.0172973 0.00885814 0.00320031 1.7954e-26 0 0.001876 0.00747442 0.016707 0.029428 0.045437 0.0644814 0.0862609 0.110432 0.136614 0.164393 0.193331 0.222973 0.25285 0.282491 -nan -nan 0.307052 0.329829 0.351254 0.371432 0.391926 0.407594 0.423298 0.436163 0.499185 0.488929 0.488198 0.483566 0.475129 0.462671 0.446467 0.426741 0.40356 0.377241 0.34829 0.317372 0.285225 0.252565 0.220003 0.187783 0.156752 0.127427 0.100329 0.0759129 0.0545496 0.0365281 0.0220546 0.0112617 0.00417953 2.24056e-26 0 0.0022889 0.0091195 0.0203841 0.035905 0.0554375 0.0786734 0.105247 0.134738 0.166682 0.200575 0.235882 0.272048 0.308501 0.344666 -nan -nan 0.387904 0.415998 0.442707 0.467128 0.531318 0.549964 0.564997 0.576075 0.58649 0.588197 0.587584 0.581844 0.57112 0.55557 0.535498 0.511089 0.482622 0.450553 0.415494 0.378204 0.339521 0.300383 0.261561 0.2233 0.186513 0.151785 0.119678 0.0907078 0.0653103 0.0438324 0.0265312 0.0135586 0.00498853 2.62655e-26 0 0.0026657 0.0106208 0.0237397 0.0418157 0.0645636 0.0916248 0.122572 0.156918 0.194121 0.233593 0.274714 0.316833 0.359287 0.401406 0.442526 0.481998 -nan 0.50068 0.567443 0.596075 0.620883 0.641789 0.65857 0.670914 0.679467 0.681644 0.679694 0.672131 0.658979 0.640356 0.616528 0.58775 0.554422 0.517103 0.476496 0.433441 0.388869 0.34385 0.299281 0.25559 0.213578 0.173949 0.137305 0.104209 0.0751499 0.0505257 0.0306419 0.0156958 0.00561256 2.99274e-26 0 0.00300046 0.0119545 0.026721 0.047067 0.0726716 0.103131 0.137965 0.176624 0.218499 0.262928 0.309212 0.356621 0.404406 0.451815 0.498099 0.542528 -nan 0.605674 0.640841 0.67276 0.70055 0.723771 0.742114 0.755328 0.763368 0.765383 0.76221 0.752686 0.737067 0.7155 0.68819 0.655455 0.617779 0.575799 0.53029 0.482158 0.432416 0.382212 0.332568 0.284117 0.237514 0.193559 0.152906 0.11617 0.0838765 0.056469 0.0342972 0.0176065 0.00625304 3.3199e-26 0 0.0032879 0.0130998 0.0292808 0.051576 0.0796335 0.113011 0.151182 0.193545 0.239431 0.288117 0.338835 0.390785 0.443148 0.495098 0.545816 0.594502 0.640388 0.665398 0.704219 0.739059 0.76929 0.794421 0.814068 0.827932 0.835403 0.836995 0.832726 0.821557 0.803812 0.77964 0.749276 0.713106 0.67168 0.625702 0.576008 0.523564 0.469441 0.414842 0.360898 0.308409 0.257927 0.210306 0.166251 0.126408 0.091348 0.061556 0.0374235 0.0192419 0.00704354 3.61312e-26 0 0.00352349 0.0140384 0.0313789 0.0552716 0.0853395 0.121109 0.162015 0.207413 0.256587 0.308761 0.363113 0.418786 0.474901 0.530574 0.584926 0.6371 -nan 0.7152 0.756767 0.793908 0.826006 0.852552 0.873137 0.887447 0.894544 0.895605 0.890316 0.877719 0.858148 0.831755 0.798825 0.759799 0.715283 0.666032 0.612932 0.556995 0.499343 0.441215 0.383824 0.328075 0.274471 0.223904 0.177108 0.134753 0.0974482 0.0657149 0.0399799 0.0205729 0.00763573 3.85414e-26 0 0.00370352 0.0147557 0.0329821 0.0580955 0.0896997 0.127296 0.170292 0.21801 0.269696 0.324537 0.381666 0.440183 0.499165 0.557682 0.614811 0.669651 -nan 0.753937 0.797549 0.83637 0.869784 0.89728 0.918445 0.932972 0.93988 0.940387 0.934208 0.920369 0.899253 0.871046 0.836074 0.794815 0.747914 0.696165 0.64049 0.581937 0.521654 0.46091 0.400966 0.342776 0.28685 0.234092 0.185257 0.141033 0.102053 0.0688632 0.0419195 0.0215792 0.00800458 4.03694e-26 0 0.00382513 0.0152402 0.0340652 0.0600032 0.0926453 0.131476 0.175884 0.225169 0.278553 0.335194 0.394199 0.454637 0.515556 0.575995 0.635 0.691641 0.731266 0.780677 0.825686 0.865607 0.89984 0.92788 0.94932 0.963851 0.970507 0.970477 0.963541 0.948709 0.926419 0.896878 0.86044 0.817614 0.769073 0.715641 0.658267 0.598023 0.536064 0.473686 0.412144 0.35234 0.2949 0.240718 0.190554 0.145116 0.10505 0.0709164 0.043189 0.0222401 0.00824709 4.16037e-26 0 0.00388642 0.0154844 0.034611 0.0609647 0.0941297 0.133583 0.178703 0.228777 0.283016 0.340565 0.400515 0.461922 0.523817 0.585224 0.645175 0.702723 0.744764 0.794959 0.840594 0.880983 0.915523 0.943717 0.965162 0.97954 0.985936 0.985095 0.977348 0.961626 0.938404 0.907915 0.87053 0.826781 0.777363 0.723114 0.665002 0.604105 0.541575 0.478713 0.416716 0.356294 0.29828 0.243529 0.192814 0.146863 0.106334 0.0718004 0.0437388 0.022526 0.00834959 4.22169e-26 0 0.00388642 0.0154844 0.034611 0.0609647 0.0941297 0.133583 0.178703 0.228777 0.283016 0.340565 0.400515 0.461922 0.523817 0.585224 0.645175 0.702723 0.745432 0.795588 0.841179 0.881509 0.915977 0.944081 0.96541 0.979641 0.985817 0.984871 0.97692 0.960982 0.937559 0.906887 0.869347 0.825481 0.775997 0.721742 0.663693 0.602935 0.540617 0.478025 0.416313 0.356028 0.29813 0.24344 0.192752 0.146807 0.106273 0.0717317 0.0436696 0.0224683 0.00830594 4.2196e-26 0 0.00382513 0.0152402 0.0340652 0.0600032 0.0926453 0.131476 0.175884 0.225169 0.278553 0.335194 0.394199 0.454637 0.515556 0.575995 0.635 0.691641 0.736161 0.785457 0.830184 0.869664 0.903312 0.930624 0.951191 0.964691 0.970233 0.968913 0.960713 0.944681 0.921308 0.890838 0.853662 0.810337 0.761571 0.708202 0.651194 0.591611 0.530611 0.469368 0.408965 0.349918 0.293139 0.239441 0.189625 0.144437 0.104552 0.0705571 0.0429387 0.0220678 0.00802823 4.15245e-26 0 0.00370352 0.0147557 0.0329821 0.0580955 0.0896997 0.127296 0.170292 0.21801 0.269696 0.324537 0.381666 0.440183 0.499165 0.557682 0.614811 0.669651 0.714346 0.761969 0.80514 0.843208 0.8756 0.90183 0.921493 0.934294 0.9394 0.937808 0.929566 0.913729 0.89079 0.861017 0.824821 0.782751 0.735502 0.683884 0.628819 0.571325 0.512588 0.453638 0.395332 0.338406 0.283628 0.231795 0.183666 0.139963 0.101349 0.0684078 0.041631 0.0213817 0.0076041 4.02105e-26 0 0.00352349 0.0140384 0.0313789 0.0552716 0.0853395 0.121109 0.162015 0.207413 0.256587 0.308761 0.363113 0.418786 0.474901 0.530574 0.584926 0.6371 0.680424 0.725723 0.766775 0.802954 0.833708 0.858564 0.877125 0.889114 0.893788 0.892008 0.883883 0.868525 0.846436 0.817896 0.783308 0.743205 0.698256 0.649233 0.5