<?xml version="1.0"?>
<VTKFile type="PolyData">
	<PolyData>
		<Piece NumberOfPoints="2601" NumberOfPolys="2500">
			<Points>
				<DataArray type="Float32" NumberOfComponents="3" format="ascii">
 0 0 0 0.02 0 0 0.04 0 0 0.06 0 0 0.08 0 0 0.1 0 0 0.12 0 0 0.14 0 0 0.16 0 0 0.18 0 0 0.2 0 0 0.22 0 0 0.24 0 0 0.26 0 0 0.28 0 0 0.3 0 0 0.32 0 0 0.34 0 0 0.36 0 0 0.38 0 0 0.4 0 0 0.42 0 0 0.44 0 0 0.46 0 0 0.48 0 0 0.5 0 0 0.52 0 0 0.54 0 0 0.56 0 0 0.58 0 0 0.6 0 0 0.62 0 0 0.64 0 0 0.66 0 0 0.68 0 0 0.7 0 0 0.72 0 0 0.74 0 0 0.76 0 0 0.78 0 0 0.8 0 0 0.82 0 0 0.84 0 0 0.86 0 0 0.88 0 0 0.9 0 0 0.92 0 0 0.94 0 0 0.96 0 0 0.98 0 0 1 0 0 0 0.02 0 0.02 0.02 0 0.04 0.02 0 0.06 0.02 0 0.08 0.02 0 0.1 0.02 0 0.12 0.02 0 0.14 0.02 0 0.16 0.02 0 0.18 0.02 0 0.2 0.02 0 0.22 0.02 0 0.24 0.02 0 0.26 0.02 0 0.28 0.02 0 0.3 0.02 0 0.32 0.02 0 0.34 0.02 0 0.36 0.02 0 0.38 0.02 0 0.4 0.02 0 0.42 0.02 0 0.44 0.02 0 0.46 0.02 0 0.48 0.02 0 0.5 0.02 0 0.52 0.02 0 0.54 0.02 0 0.56 0.02 0 0.58 0.02 0 0.6 0.02 0 0.62 0.02 0 0.64 0.02 0 0.66 0.02 0 0.68 0.02 0 0.7 0.02 0 0.72 0.02 0 0.74 0.02 0 0.76 0.02 0 0.78 0.02 0 0.8 0.02 0 0.82 0.02 0 0.84 0.02 0 0.86 0.02 0 0.88 0.02 0 0.9 0.02 0 0.92 0.02 0 0.94 0.02 0 0.96 0.02 0 0.98 0.02 0 1 0.02 0 0 0.04 0 0.02 0.04 0 0.04 0.04 0 0.06 0.04 0 0.08 0.04 0 0.1 0.04 0 0.12 0.04 0 0.14 0.04 0 0.16 0.04 0 0.18 0.04 0 0.2 0.04 0 0.22 0.04 0 0.24 0.04 0 0.26 0.04 0 0.28 0.04 0 0.3 0.04 0 0.32 0.04 0 0.34 0.04 0 0.36 0.04 0 0.38 0.04 0 0.4 0.04 0 0.42 0.04 0 0.44 0.04 0 0.46 0.04 0 0.48 0.04 0 0.5 0.04 0 0.52 0.04 0 0.54 0.04 0 0.56 0.04 0 0.58 0.04 0 0.6 0.04 0 0.62 0.04 0 0.64 0.04 0 0.66 0.04 0 0.68 0.04 0 0.7 0.04 0 0.72 0.04 0 0.74 0.04 0 0.76 0.04 0 0.78 0.04 0 0.8 0.04 0 0.82 0.04 0 0.84 0.04 0 0.86 0.04 0 0.88 0.04 0 0.9 0.04 0 0.92 0.04 0 0.94 0.04 0 0.96 0.04 0 0.98 0.04 0 1 0.04 0 0 0.06 0 0.02 0.06 0 0.04 0.06 0 0.06 0.06 0 0.08 0.06 0 0.1 0.06 0 0.12 0.06 0 0.14 0.06 0 0.16 0.06 0 0.18 0.06 0 0.2 0.06 0 0.22 0.06 0 0.24 0.06 0 0.26 0.06 0 0.28 0.06 0 0.3 0.06 0 0.32 0.06 0 0.34 0.06 0 0.36 0.06 0 0.38 0.06 0 0.4 0.06 0 0.42 0.06 0 0.44 0.06 0 0.46 0.06 0 0.48 0.06 0 0.5 0.06 0 0.52 0.06 0 0.54 0.06 0 0.56 0.06 0 0.58 0.06 0 0.6 0.06 0 0.62 0.06 0 0.64 0.06 0 0.66 0.06 0 0.68 0.06 0 0.7 0.06 0 0.72 0.06 0 0.74 0.06 0 0.76 0.06 0 0.78 0.06 0 0.8 0.06 0 0.82 0.06 0 0.84 0.06 0 0.86 0.06 0 0.88 0.06 0 0.9 0.06 0 0.92 0.06 0 0.94 0.06 0 0.96 0.06 0 0.98 0.06 0 1 0.06 0 0 0.08 0 0.02 0.08 0 0.04 0.08 0 0.06 0.08 0 0.08 0.08 0 0.1 0.08 0 0.12 0.08 0 0.14 0.08 0 0.16 0.08 0 0.18 0.08 0 0.2 0.08 0 0.22 0.08 0 0.24 0.08 0 0.26 0.08 0 0.28 0.08 0 0.3 0.08 0 0.32 0.08 0 0.34 0.08 0 0.36 0.08 0 0.38 0.08 0 0.4 0.08 0 0.42 0.08 0 0.44 0.08 0 0.46 0.08 0 0.48 0.08 0 0.5 0.08 0 0.52 0.08 0 0.54 0.08 0 0.56 0.08 0 0.58 0.08 0 0.6 0.08 0 0.62 0.08 0 0.64 0.08 0 0.66 0.08 0 0.68 0.08 0 0.7 0.08 0 0.72 0.08 0 0.74 0.08 0 0.76 0.08 0 0.78 0.08 0 0.8 0.08 0 0.82 0.08 0 0.84 0.08 0 0.86 0.08 0 0.88 0.08 0 0.9 0.08 0 0.92 0.08 0 0.94 0.08 0 0.96 0.08 0 0.98 0.08 0 1 0.08 0 0 0.1 0 0.02 0.1 0 0.04 0.1 0 0.06 0.1 0 0.08 0.1 0 0.1 0.1 0 0.12 0.1 0 0.14 0.1 0 0.16 0.1 0 0.18 0.1 0 0.2 0.1 0 0.22 0.1 0 0.24 0.1 0 0.26 0.1 0 0.28 0.1 0 0.3 0.1 0 0.32 0.1 0 0.34 0.1 0 0.36 0.1 0 0.38 0.1 0 0.4 0.1 0 0.42 0.1 0 0.44 0.1 0 0.46 0.1 0 0.48 0.1 0 0.5 0.1 0 0.52 0.1 0 0.54 0.1 0 0.56 0.1 0 0.58 0.1 0 0.6 0.1 0 0.62 0.1 0 0.64 0.1 0 0.66 0.1 0 0.68 0.1 0 0.7 0.1 0 0.72 0.1 0 0.74 0.1 0 0.76 0.1 0 0.78 0.1 0 0.8 0.1 0 0.82 0.1 0 0.84 0.1 0 0.86 0.1 0 0.88 0.1 0 0.9 0.1 0 0.92 0.1 0 0.94 0.1 0 0.96 0.1 0 0.98 0.1 0 1 0.1 0 0 0.12 0 0.02 0.12 0 0.04 0.12 0 0.06 0.12 0 0.08 0.12 0 0.1 0.12 0 0.12 0.12 0 0.14 0.12 0 0.16 0.12 0 0.18 0.12 0 0.2 0.12 0 0.22 0.12 0 0.24 0.12 0 0.26 0.12 0 0.28 0.12 0 0.3 0.12 0 0.32 0.12 0 0.34 0.12 0 0.36 0.12 0 0.38 0.12 0 0.4 0.12 0 0.42 0.12 0 0.44 0.12 0 0.46 0.12 0 0.48 0.12 0 0.5 0.12 0 0.52 0.12 0 0.54 0.12 0 0.56 0.12 0 0.58 0.12 0 0.6 0.12 0 0.62 0.12 0 0.64 0.12 0 0.66 0.12 0 0.68 0.12 0 0.7 0.12 0 0.72 0.12 0 0.74 0.12 0 0.76 0.12 0 0.78 0.12 0 0.8 0.12 0 0.82 0.12 0 0.84 0.12 0 0.86 0.12 0 0.88 0.12 0 0.9 0.12 0 0.92 0.12 0 0.94 0.12 0 0.96 0.12 0 0.98 0.12 0 1 0.12 0 0 0.14 0 0.02 0.14 0 0.04 0.14 0 0.06 0.14 0 0.08 0.14 0 0.1 0.14 0 0.12 0.14 0 0.14 0.14 0 0.16 0.14 0 0.18 0.14 0 0.2 0.14 0 0.22 0.14 0 0.24 0.14 0 0.26 0.14 0 0.28 0.14 0 0.3 0.14 0 0.32 0.14 0 0.34 0.14 0 0.36 0.14 0 0.38 0.14 0 0.4 0.14 0 0.42 0.14 0 0.44 0.14 0 0.46 0.14 0 0.48 0.14 0 0.5 0.14 0 0.52 0.14 0 0.54 0.14 0 0.56 0.14 0 0.58 0.14 0 0.6 0.14 0 0.62 0.14 0 0.64 0.14 0 0.66 0.14 0 0.68 0.14 0 0.7 0.14 0 0.72 0.14 0 0.74 0.14 0 0.76 0.14 0 0.78 0.14 0 0.8 0.14 0 0.82 0.14 0 0.84 0.14 0 0.86 0.14 0 0.88 0.14 0 0.9 0.14 0 0.92 0.14 0 0.94 0.14 0 0.96 0.14 0 0.98 0.14 0 1 0.14 0 0 0.16 0 0.02 0.16 0 0.04 0.16 0 0.06 0.16 0 0.08 0.16 0 0.1 0.16 0 0.12 0.16 0 0.14 0.16 0 0.16 0.16 0 0.18 0.16 0 0.2 0.16 0 0.22 0.16 0 0.24 0.16 0 0.26 0.16 0 0.28 0.16 0 0.3 0.16 0 0.32 0.16 0 0.34 0.16 0 0.36 0.16 0 0.38 0.16 0 0.4 0.16 0 0.42 0.16 0 0.44 0.16 0 0.46 0.16 0 0.48 0.16 0 0.5 0.16 0 0.52 0.16 0 0.54 0.16 0 0.56 0.16 0 0.58 0.16 0 0.6 0.16 0 0.62 0.16 0 0.64 0.16 0 0.66 0.16 0 0.68 0.16 0 0.7 0.16 0 0.72 0.16 0 0.74 0.16 0 0.76 0.16 0 0.78 0.16 0 0.8 0.16 0 0.82 0.16 0 0.84 0.16 0 0.86 0.16 0 0.88 0.16 0 0.9 0.16 0 0.92 0.16 0 0.94 0.16 0 0.96 0.16 0 0.98 0.16 0 1 0.16 0 0 0.18 0 0.02 0.18 0 0.04 0.18 0 0.06 0.18 0 0.08 0.18 0 0.1 0.18 0 0.12 0.18 0 0.14 0.18 0 0.16 0.18 0 0.18 0.18 0 0.2 0.18 0 0.22 0.18 0 0.24 0.18 0 0.26 0.18 0 0.28 0.18 0 0.3 0.18 0 0.32 0.18 0 0.34 0.18 0 0.36 0.18 0 0.38 0.18 0 0.4 0.18 0 0.42 0.18 0 0.44 0.18 0 0.46 0.18 0 0.48 0.18 0 0.5 0.18 0 0.52 0.18 0 0.54 0.18 0 0.56 0.18 0 0.58 0.18 0 0.6 0.18 0 0.62 0.18 0 0.64 0.18 0 0.66 0.18 0 0.68 0.18 0 0.7 0.18 0 0.72 0.18 0 0.74 0.18 0 0.76 0.18 0 0.78 0.18 0 0.8 0.18 0 0.82 0.18 0 0.84 0.18 0 0.86 0.18 0 0.88 0.18 0 0.9 0.18 0 0.92 0.18 0 0.94 0.18 0 0.96 0.18 0 0.98 0.18 0 1 0.18 0 0 0.2 0 0.02 0.2 0 0.04 0.2 0 0.06 0.2 0 0.08 0.2 0 0.1 0.2 0 0.12 0.2 0 0.14 0.2 0 0.16 0.2 0 0.18 0.2 0 0.2 0.2 0 0.22 0.2 0 0.24 0.2 0 0.26 0.2 0 0.28 0.2 0 0.3 0.2 0 0.32 0.2 0 0.34 0.2 0 0.36 0.2 0 0.38 0.2 0 0.4 0.2 0 0.42 0.2 0 0.44 0.2 0 0.46 0.2 0 0.48 0.2 0 0.5 0.2 0 0.52 0.2 0 0.54 0.2 0 0.56 0.2 0 0.58 0.2 0 0.6 0.2 0 0.62 0.2 0 0.64 0.2 0 0.66 0.2 0 0.68 0.2 0 0.7 0.2 0 0.72 0.2 0 0.74 0.2 0 0.76 0.2 0 0.78 0.2 0 0.8 0.2 0 0.82 0.2 0 0.84 0.2 0 0.86 0.2 0 0.88 0.2 0 0.9 0.2 0 0.92 0.2 0 0.94 0.2 0 0.96 0.2 0 0.98 0.2 0 1 0.2 0 0 0.22 0 0.02 0.22 0 0.04 0.22 0 0.06 0.22 0 0.08 0.22 0 0.1 0.22 0 0.12 0.22 0 0.14 0.22 0 0.16 0.22 0 0.18 0.22 0 0.2 0.22 0 0.22 0.22 0 0.24 0.22 0 0.26 0.22 0 0.28 0.22 0 0.3 0.22 0 0.32 0.22 0 0.34 0.22 0 0.36 0.22 0 0.38 0.22 0 0.4 0.22 0 0.42 0.22 0 0.44 0.22 0 0.46 0.22 0 0.48 0.22 0 0.5 0.22 0 0.52 0.22 0 0.54 0.22 0 0.56 0.22 0 0.58 0.22 0 0.6 0.22 0 0.62 0.22 0 0.64 0.22 0 0.66 0.22 0 0.68 0.22 0 0.7 0.22 0 0.72 0.22 0 0.74 0.22 0 0.76 0.22 0 0.78 0.22 0 0.8 0.22 0 0.82 0.22 0 0.84 0.22 0 0.86 0.22 0 0.88 0.22 0 0.9 0.22 0 0.92 0.22 0 0.94 0.22 0 0.96 0.22 0 0.98 0.22 0 1 0.22 0 0 0.24 0 0.02 0.24 0 0.04 0.24 0 0.06 0.24 0 0.08 0.24 0 0.1 0.24 0 0.12 0.24 0 0.14 0.24 0 0.16 0.24 0 0.18 0.24 0 0.2 0.24 0 0.22 0.24 0 0.24 0.24 0 0.26 0.24 0 0.28 0.24 0 0.3 0.24 0 0.32 0.24 0 0.34 0.24 0 0.36 0.24 0 0.38 0.24 0 0.4 0.24 0 0.42 0.24 0 0.44 0.24 0 0.46 0.24 0 0.48 0.24 0 0.5 0.24 0 0.52 0.24 0 0.54 0.24 0 0.56 0.24 0 0.58 0.24 0 0.6 0.24 0 0.62 0.24 0 0.64 0.24 0 0.66 0.24 0 0.68 0.24 0 0.7 0.24 0 0.72 0.24 0 0.74 0.24 0 0.76 0.24 0 0.78 0.24 0 0.8 0.24 0 0.82 0.24 0 0.84 0.24 0 0.86 0.24 0 0.88 0.24 0 0.9 0.24 0 0.92 0.24 0 0.94 0.24 0 0.96 0.24 0 0.98 0.24 0 1 0.24 0 0 0.26 0 0.02 0.26 0 0.04 0.26 0 0.06 0.26 0 0.08 0.26 0 0.1 0.26 0 0.12 0.26 0 0.14 0.26 0 0.16 0.26 0 0.18 0.26 0 0.2 0.26 0 0.22 0.26 0 0.24 0.26 0 0.26 0.26 0 0.28 0.26 0 0.3 0.26 0 0.32 0.26 0 0.34 0.26 0 0.36 0.26 0 0.38 0.26 0 0.4 0.26 0 0.42 0.26 0 0.44 0.26 0 0.46 0.26 0 0.48 0.26 0 0.5 0.26 0 0.52 0.26 0 0.54 0.26 0 0.56 0.26 0 0.58 0.26 0 0.6 0.26 0 0.62 0.26 0 0.64 0.26 0 0.66 0.26 0 0.68 0.26 0 0.7 0.26 0 0.72 0.26 0 0.74 0.26 0 0.76 0.26 0 0.78 0.26 0 0.8 0.26 0 0.82 0.26 0 0.84 0.26 0 0.86 0.26 0 0.88 0.26 0 0.9 0.26 0 0.92 0.26 0 0.94 0.26 0 0.96 0.26 0 0.98 0.26 0 1 0.26 0 0 0.28 0 0.02 0.28 0 0.04 0.28 0 0.06 0.28 0 0.08 0.28 0 0.1 0.28 0 0.12 0.28 0 0.14 0.28 0 0.16 0.28 0 0.18 0.28 0 0.2 0.28 0 0.22 0.28 0 0.24 0.28 0 0.26 0.28 0 0.28 0.28 0 0.3 0.28 0 0.32 0.28 0 0.34 0.28 0 0.36 0.28 0 0.38 0.28 0 0.4 0.28 0 0.42 0.28 0 0.44 0.28 0 0.46 0.28 0 0.48 0.28 0 0.5 0.28 0 0.52 0.28 0 0.54 0.28 0 0.56 0.28 0 0.58 0.28 0 0.6 0.28 0 0.62 0.28 0 0.64 0.28 0 0.66 0.28 0 0.68 0.28 0 0.7 0.28 0 0.72 0.28 0 0.74 0.28 0 0.76 0.28 0 0.78 0.28 0 0.8 0.28 0 0.82 0.28 0 0.84 0.28 0 0.86 0.28 0 0.88 0.28 0 0.9 0.28 0 0.92 0.28 0 0.94 0.28 0 0.96 0.28 0 0.98 0.28 0 1 0.28 0 0 0.3 0 0.02 0.3 0 0.04 0.3 0 0.06 0.3 0 0.08 0.3 0 0.1 0.3 0 0.12 0.3 0 0.14 0.3 0 0.16 0.3 0 0.18 0.3 0 0.2 0.3 0 0.22 0.3 0 0.24 0.3 0 0.26 0.3 0 0.28 0.3 0 0.3 0.3 0 0.32 0.3 0 0.34 0.3 0 0.36 0.3 0 0.38 0.3 0 0.4 0.3 0 0.42 0.3 0 0.44 0.3 0 0.46 0.3 0 0.48 0.3 0 0.5 0.3 0 0.52 0.3 0 0.54 0.3 0 0.56 0.3 0 0.58 0.3 0 0.6 0.3 0 0.62 0.3 0 0.64 0.3 0 0.66 0.3 0 0.68 0.3 0 0.7 0.3 0 0.72 0.3 0 0.74 0.3 0 0.76 0.3 0 0.78 0.3 0 0.8 0.3 0 0.82 0.3 0 0.84 0.3 0 0.86 0.3 0 0.88 0.3 0 0.9 0.3 0 0.92 0.3 0 0.94 0.3 0 0.96 0.3 0 0.98 0.3 0 1 0.3 0 0 0.32 0 0.02 0.32 0 0.04 0.32 0 0.06 0.32 0 0.08 0.32 0 0.1 0.32 0 0.12 0.32 0 0.14 0.32 0 0.16 0.32 0 0.18 0.32 0 0.2 0.32 0 0.22 0.32 0 0.24 0.32 0 0.26 0.32 0 0.28 0.32 0 0.3 0.32 0 0.32 0.32 0 0.34 0.32 0 0.36 0.32 0 0.38 0.32 0 0.4 0.32 0 0.42 0.32 0 0.44 0.32 0 0.46 0.32 0 0.48 0.32 0 0.5 0.32 0 0.52 0.32 0 0.54 0.32 0 0.56 0.32 0 0.58 0.32 0 0.6 0.32 0 0.62 0.32 0 0.64 0.32 0 0.66 0.32 0 0.68 0.32 0 0.7 0.32 0 0.72 0.32 0 0.74 0.32 0 0.76 0.32 0 0.78 0.32 0 0.8 0.32 0 0.82 0.32 0 0.84 0.32 0 0.86 0.32 0 0.88 0.32 0 0.9 0.32 0 0.92 0.32 0 0.94 0.
[...]
			<PointData Scalars="VitesseX">
				<DataArray Name="VitesseX" type="Float32" format="ascii">
 -0 -0 -0 -0 -0 -0 0 0 0 0 0 0 0 0 0 0 0 0 0 0 0 0 0 0 0 0 0 0 0 0 0 0 0 0 0 0 0 0 0 0 0 0 0 0 0 0 0 0 0 0 -0 -0 -0.00045653 -0.00181892 -nan -nan -0.0133954 -0.0182614 -0.0238153 -0.0298586 -0.0363517 -0.0431687 -0.0502254 -0.0574225 -0.0646565 -0.071782 -0.0786962 -0.0852855 -0.0914622 -0.0971226 -0.10219 -0.106558 -0.110188 -0.112996 -0.115003 -0.115947 -0.128246 -0.133723 -0.13677 -0.137149 -0.134969 -0.131095 -0.125888 -0.119622 -0.112458 -0.104399 -0.0955171 -0.0858996 -0.0761114 -0.0672937 -0.0591647 -0.0504634 -0.0427068 -0.0346491 -0.0274881 -0.0207559 -0.014839 -0.00974755 -0.00560466 -0.00253977 -0.000641955 -8.94064e-27 -0 -0.000905861 -0.00360916 -nan -nan -0.0264721 -0.0362019 -0.0471904 -0.0592062 -0.0720992 -0.085656 -0.099682 -0.113992 -0.128366 -0.142526 -0.156257 -0.169345 -0.181616 -0.19286 -0.202898 -0.211545 -0.218719 -0.224291 -0.228223 -0.230089 -0.237515 -0.242735 -0.245713 -0.244516 -0.239905 -0.232464 -0.222795 -0.211585 -0.198818 -0.184621 -0.169534 -0.153419 -0.136336 -0.119882 -0.105538 -0.0890484 -0.074712 -0.06056 -0.0477785 -0.035938 -0.0255281 -0.0166695 -0.00953522 -0.00430122 -0.00108437 -1.36095e-26 -0 -nan -nan -0.016526 -0.0266332 -0.0390624 -0.0534876 -0.0697428 -0.0875481 -0.106656 -0.126762 -0.147555 -0.168768 -0.190078 -0.211066 -0.231404 -0.250797 -0.268989 -0.285666 -0.300534 -0.313343 -0.323954 -0.332177 -0.337768 -0.340532 -0.347918 -0.354053 -0.353675 -0.348765 -0.340267 -0.328934 -0.315204 -0.299135 -0.280993 -0.261257 -0.240237 -0.218251 -0.195642 -0.172722 -0.149738 -0.12682 -0.105858 -0.0858292 -0.0672397 -0.0505289 -0.0358104 -0.023322 -0.0133133 -0.00599375 -0.00150972 -1.80713e-26 -0 -nan -nan -0.021468 -0.0347464 -0.0509657 -0.0698511 -0.0911228 -0.114443 -0.139486 -0.165844 -0.193091 -0.220892 -0.248834 -0.276382 -0.30309 -0.328558 -0.35238 -0.374103 -0.39344 -0.409896 -0.423617 -0.434391 -0.441963 -0.445635 -0.451347 -0.455251 -0.453217 -0.446251 -0.435105 -0.420413 -0.40264 -0.381963 -0.358686 -0.333356 -0.306441 -0.278314 -0.249424 -0.220265 -0.191297 -0.162925 -0.135489 -0.109892 -0.085717 -0.0642834 -0.0455213 -0.029605 -0.0168816 -0.00759133 -0.00191147 -2.2258e-26 -nan -0.00533127 -0.0136587 -0.02605 -0.042228 -0.0619869 -0.0850212 -0.110978 -0.139467 -0.170088 -0.202349 -0.235714 -0.269747 -0.30389 -0.33747 -0.369967 -0.400906 -0.429911 -0.456156 -0.479999 -0.500257 -0.517063 -0.530135 -0.539261 -0.543711 -0.547902 -0.549946 -0.546176 -0.537078 -0.523267 -0.505301 -0.48368 -0.458652 -0.430556 -0.400016 -0.367619 -0.333794 -0.299075 -0.264053 -0.229285 -0.195292 -0.162611 -0.131722 -0.103001 -0.0771907 -0.054505 -0.0354251 -0.0201862 -0.00906952 -0.00228345 -2.61061e-26 -nan -0.0061081 -0.0157914 -0.0301644 -0.0489723 -0.0719575 -0.0987945 -0.129088 -0.162376 -0.198125 -0.235735 -0.274602 -0.314219 -0.353947 -0.393007 -0.430983 -0.466608 -0.500516 -0.531404 -0.558992 -0.582769 -0.602411 -0.617577 -0.628102 -0.633223 -0.636293 -0.636594 -0.631023 -0.619771 -0.603357 -0.582287 -0.557086 -0.528043 -0.495525 -0.460243 -0.422864 -0.383878 -0.343885 -0.303564 -0.263552 -0.224435 -0.186829 -0.151322 -0.11843 -0.0885123 -0.0626737 -0.0406919 -0.0231765 -0.0104059 -0.00261995 -2.95585e-26 0 -0.00678515 -0.0176326 -0.0337656 -0.0549405 -0.0808482 -0.111094 -0.145213 -0.182657 -0.222829 -0.265109 -0.308821 -0.353415 -0.39812 -0.442273 -0.485649 -0.525852 -0.56387 -0.598675 -0.629682 -0.656391 -0.678413 -0.695383 -0.707099 -0.712767 -0.714982 -0.713696 -0.706332 -0.693003 -0.674137 -0.650207 -0.621749 -0.589087 -0.552628 -0.513142 -0.471358 -0.427819 -0.383187 -0.338214 -0.293601 -0.249993 -0.20807 -0.168491 -0.131872 -0.0984532 -0.0696348 -0.0453248 -0.025806 -0.0115802 -0.00291581 -3.25645e-26 0 -0.0073382 -0.0191934 -0.0368437 -0.0600262 -0.088406 -0.121533 -0.158877 -0.199866 -0.243867 -0.290112 -0.338184 -0.387149 -0.436683 -0.485252 -0.532184 -0.576855 -0.618592 -0.656722 -0.690654 -0.719846 -0.743869 -0.762334 -0.775014 -0.781097 -0.782633 -0.779937 -0.770886 -0.755621 -0.734521 -0.708033 -0.676696 -0.640879 -0.60102 -0.557928 -0.512379 -0.464967 -0.416398 -0.367486 -0.318985 -0.271585 -0.226018 -0.182999 -0.143209 -0.107259 -0.0757134 -0.0492741 -0.0280336 -0.0125748 -0.00316647 -3.50795e-26 0 -0.00777066 -0.0204214 -0.0392761 -0.0640579 -0.0944164 -0.129894 -0.169902 -0.213804 -0.260936 -0.310876 -0.363216 -0.41615 -0.468781 -0.520763 -0.571124 -0.619056 -0.6638 -0.704642 -0.740945 -0.772134 -0.797745 -0.817378 -0.830782 -0.837145 -0.83812 -0.834201 -0.823631 -0.806639 -0.783579 -0.754888 -0.721109 -0.682654 -0.639986 -0.593936 -0.545317 -0.494765 -0.443021 -0.39094 -0.339322 -0.288885 -0.240403 -0.19463 -0.152294 -0.114067 -0.0805384 -0.0523363 -0.0298245 -0.0133748 -0.00336801 -3.70651e-26 0 -0.0080545 -0.0212509 -0.0409743 -0.066947 -0.0987781 -0.135929 -0.17803 -0.224645 -0.273878 -0.326563 -0.382258 -0.437908 -0.493527 -0.548279 -0.601297 -0.651729 -0.698771 -0.741669 -0.779753 -0.812422 -0.839188 -0.859645 -0.873529 -0.880032 -0.880531 -0.875579 -0.863705 -0.845247 -0.820552 -0.790063 -0.754328 -0.713792 -0.668945 -0.620629 -0.569679 -0.516766 -0.462653 -0.408223 -0.354302 -0.30163 -0.251004 -0.203206 -0.158996 -0.11908 -0.0840879 -0.0546511 -0.0311505 -0.013968 -0.00351721 -3.84894e-26 0 -0.00815028 -0.0216592 -0.0419656 -0.0688052 -0.101654 -0.140238 -0.183752 -0.230944 -0.282919 -0.339059 -0.395656 -0.453095 -0.51068 -0.56735 -0.622198 -0.674337 -0.722931 -0.767202 -0.806452 -0.840066 -0.867543 -0.888473 -0.902585 -0.909091 -0.90917 -0.903375 -0.890442 -0.870822 -0.844865 -0.813021 -0.775848 -0.733823 -0.687469 -0.637612 -0.585087 -0.530626 -0.474986 -0.419062 -0.363693 -0.309622 -0.257656 -0.208593 -0.16321 -0.122234 -0.0863185 -0.0561616 -0.0319925 -0.014345 -0.00361172 -3.93287e-26 0 -0.00812197 -0.0217782 -0.0423601 -0.0695444 -0.102977 -0.142128 -0.18652 -0.236207 -0.289725 -0.345317 -0.40272 -0.461233 -0.519891 -0.577596 -0.633419 -0.686453 -0.73584 -0.780787 -0.820583 -0.854606 -0.882348 -0.903403 -0.917499 -0.923871 -0.92347 -0.916628 -0.902565 -0.881853 -0.854838 -0.821972 -0.783815 -0.740877 -0.693696 -0.643068 -0.589822 -0.534723 -0.478509 -0.422071 -0.366241 -0.311757 -0.259415 -0.210005 -0.164301 -0.123036 -0.0868721 -0.0564848 -0.032205 -0.014442 -0.00363379 -3.95688e-26 0 -0.00800115 -0.0216107 -0.0421447 -0.0692247 -0.102605 -0.141638 -0.186111 -0.236423 -0.289651 -0.345163 -0.402571 -0.461103 -0.519781 -0.577505 -0.633345 -0.686392 -0.735789 -0.780743 -0.820541 -0.854566 -0.882308 -0.903366 -0.917466 -0.923867 -0.923434 -0.916233 -0.90178 -0.880697 -0.853339 -0.820165 -0.781742 -0.738597 -0.691298 -0.640608 -0.587347 -0.532322 -0.476252 -0.420008 -0.364413 -0.310187 -0.258107 -0.208951 -0.163481 -0.122425 -0.0864425 -0.0561176 -0.032022 -0.0143793 -0.00361707 -3.92064e-26 0 -0.00777616 -0.0210857 -0.0412339 -0.0680229 -0.10095 -0.139697 -0.184017 -0.233547 -0.285854 -0.340703 -0.397447 -0.455299 -0.513273 -0.570278 -0.625387 -0.677695 -0.726346 -0.770554 -0.809613 -0.842914 -0.869957 -0.890357 -0.90385 -0.909734 -0.908858 -0.901325 -0.886643 -0.865466 -0.838151 -0.805149 -0.767024 -0.724329 -0.677645 -0.627701 -0.575283 -0.521203 -0.466187 -0.411057 -0.356612 -0.303543 -0.252593 -0.20451 -0.160029 -0.119857 -0.0846411 -0.0549515 -0.0313504 -0.0140902 -0.00354411 -3.82488e-26 0 -0.00745118 -0.0203082 -0.0397511 -0.0656863 -0.0978289 -0.135311 -0.178389 -0.226875 -0.277597 -0.330948 -0.386145 -0.442408 -0.498766 -0.554155 -0.607663 -0.658403 -0.705536 -0.748294 -0.785991 -0.818035 -0.843946 -0.863355 -0.876018 -0.881283 -0.879991 -0.87226 -0.857596 -0.836651 -0.80979 -0.777466 -0.740239 -0.698674 -0.653352 -0.604947 -0.554188 -0.501872 -0.448753 -0.3956 -0.343161 -0.292086 -0.243074 -0.196832 -0.154051 -0.115405 -0.0815145 -0.0529329 -0.030174 -0.0135767 -0.00341661 -3.67123e-26 0 -0.00701771 -0.0192531 -0.0377806 -0.0624825 -0.0930281 -0.12886 -0.170417 -0.21665 -0.265139 -0.316194 -0.369013 -0.422839 -0.47673 -0.529661 -0.580748 -0.629135 -0.674012 -0.71464 -0.750359 -0.780608 -0.804891 -0.822892 -0.834457 -0.838996 -0.837285 -0.829453 -0.814995 -0.794564 -0.768536 -0.737377 -0.701627 -0.661851 -0.61862 -0.572567 -0.524369 -0.474675 -0.424222 -0.373867 -0.324259 -0.275986 -0.229691 -0.18603 -0.145635 -0.109132 -0.0771078 -0.0500863 -0.0285258 -0.0128464 -0.00323649 -3.46202e-26 0 -0.00649306 -0.0179056 -0.0352616 -0.0583699 -0.0869015 -0.120833 -0.160079 -0.203125 -0.248679 -0.296677 -0.346328 -0.396908 -0.447517 -0.497175 -0.545031 -0.590253 -0.63207 -0.669799 -0.702855 -0.730765 -0.753101 -0.769531 -0.779865 -0.783568 -0.781389 -0.77351 -0.759432 -0.739792 -0.714977 -0.685449 -0.651723 -0.614353 -0.573903 -0.530948 -0.486098 -0.439933 -0.393033 -0.346202 -0.300194 -0.255488 -0.212645 -0.172265 -0.134904 -0.101132 -0.0714859 -0.0464543 -0.0264663 -0.0119266 -0.00300636 -3.20011e-26 0 -0.00588481 -0.0162956 -0.03221 -0.0533808 -0.0796326 -0.111152 -0.147111 -0.186401 -0.228372 -0.272602 -0.318345 -0.364911 -0.411453 -0.457066 -0.500959 -0.542363 -0.580568 -0.614942 -0.644936 -0.670103 -0.690076 -0.70455 -0.713321 -0.715934 -0.71317 -0.70531 -0.691835 -0.673289 -0.650059 -0.62259 -0.591378 -0.556966 -0.519904 -0.480709 -0.439902 -0.398026 -0.35556 -0.313089 -0.271342 -0.230905 -0.192199 -0.155745 -0.122022 -0.0915242 -0.064733 -0.042091 -0.0239941 -0.0108043 -0.00272945 -2.88891e-26 0 -0.00519649 -0.0144574 -0.0286711 -0.0476304 -0.0712709 -0.0997514 -0.131948 -0.167069 -0.204868 -0.244715 -0.285915 -0.327823 -0.369657 -0.410585 -0.449888 -0.486871 -0.520896 -0.551387 -0.577838 -0.599813 -0.616935 -0.628974 -0.635824 -0.637139 -0.633704 -0.625937 -0.613283 -0.596119 -0.574811 -0.549811 -0.52159 -0.490649 -0.457493 -0.422624 -0.38651 -0.349574 -0.312236 -0.274928 -0.238191 -0.202617 -0.16867 -0.136724 -0.107184 -0.0804555 -0.0569514 -0.0370626 -0.0211447 -0.00950763 -0.00240893 -2.53296e-26 0 -0.00443884 -0.0124207 -0.0247067 -0.0411942 -0.0618961 -0.0868036 -0.114929 -0.145505 -0.178606 -0.213522 -0.249613 -0.286281 -0.322827 -0.358485 -0.392594 -0.42453 -0.453721 -0.479658 -0.501916 -0.520151 -0.53409 -0.543564 -0.548458 -0.548434 -0.544256 -0.53658 -0.524852 -0.509287 -0.4903 -0.468224 -0.443436 -0.416444 -0.387691 -0.357642 -0.326734 -0.295325 -0.263708 -0.232208 -0.201172 -0.171074 -0.142421 -0.115495 -0.0906216 -0.0680959 -0.0482603 -0.0314455 -0.0179616 -0.0080842 -0.0020497 -2.13819e-26 0 -0.00362659 -0.0102215 -0.0204163 -0.0341647 -0.0515586 -0.0725231 -0.0962396 -0.121785 -0.14972 -0.179203 -0.209654 -0.240526 -0.271208 -0.301024 -0.329398 -0.355792 -0.379724 -0.400773 -0.418588 -0.432886 -0.443467 -0.450231 -0.452984 -0.45138 -0.44616 -0.438647 -0.427931 -0.414175 -0.397808 -0.378989 -0.358066 -0.335466 -0.311574 -0.286816 -0.261555 -0.236122 -0.210731 -0.185565 -0.160807 -0.13677 -0.113861 -0.0923878 -0.0725903 -0.0546371 -0.038794 -0.0253265 -0.0144937 -0.00653483 -0.00165439 -1.71385e-26 0 -0.00277615 -0.00790507 -0.0159046 -0.0267304 -0.0404499 -0.0571501 -0.0762429 -0.0964764 -0.118859 -0.142492 -0.166874 -0.191522 -0.215918 -0.239493 -0.261765 -0.282284 -0.300656 -0.316553 -0.329718 -0.339924 -0.347045 -0.350978 -0.351353 -0.347766 -0.341331 -0.333802 -0.324333 -0.312572 -0.298853 -0.283483 -0.266783 -0.248963 -0.230325 -0.21124 -0.192024 -0.172934 -0.154138 -0.135712 -0.117683 -0.100167 -0.0834274 -0.0677651 -0.0533707 -0.0402876 -0.0286983 -0.018799 -0.0107937 -0.00488129 -0.00123598 -1.26826e-26 0 -0.00190796 -0.00552635 -0.0112566 -0.0190753 -0.0289427 -0.041029 -0.055247 -0.0701607 -0.0866727 -0.104112 -0.122072 -0.140144 -0.157918 -0.174929 -0.190781 -0.205115 -0.217628 -0.228077 -0.23627 -0.242031 -0.245531 -0.246611 -0.244916 -0.239625 -0.232001 -0.223551 -0.215414 -0.205747 -0.194947 -0.183285 -0.170955 -0.158178 -0.145145 -0.132081 -0.119225 -0.106776 -0.0948507 -0.0834438 -0.0724502 -0.0617987 -0.0515828 -0.0420133 -0.0332641 -0.0252731 -0.0181332 -0.0119675 -0.00692186 -0.00315182 -0.000803945 -8.09365e-27 0 -0.00105127 -0.00315208 -0.00656356 -0.0113185 -0.0173353 -0.0246194 -0.0335381 -0.0431394 -0.053535 -0.0645281 -0.0758007 -0.0870233 -0.0978981 -0.108072 -0.117245 -0.125151 -0.131572 -0.136349 -0.139356 -0.140614 -0.140348 -0.138351 -0.134796 -0.128722 -0.121212 -0.10952 -0.10269 -0.0951562 -0.0874387 -0.0796776 -0.0719689 -0.0644442 -0.0572433 -0.0504838 -0.0442621 -0.0386901 -0.0338266 -0.029609 -0.0258273 -0.0222542 -0.0187952 -0.0155306 -0.0125768 -0.00981849 -0.00725146 -0.00492498 -0.00292506 -0.00136236 -0.000353388 -3.07222e-27 0 -0.000289358 -0.000940281 -0.00206111 -0.00371211 -0.00589383 -0.00848182 -0.0118941 -0.0160172 -0.0200808 -0.024412 -0.0287682 -0.0329578 -0.0367546 -0.0399235 -0.0422608 -0.043594 -0.0437956 -0.0427949 -0.0405808 -0.0372405 -0.0328396 -0.0275225 -0.0216704 -0.0153102 -0.0163733 0.00692427 0.012692 0.0178207 0.0222056 0.0259057 0.0288596 0.0309761 0.0321907 0.0324841 0.0318706 0.0303911 0.0280632 0.0250034 0.0215011 0.0179087 0.0144986 0.0113402 0.00840491 0.00584281 0.00376426 0.00219107 0.00110573 0.000437805 0.000102864 1.20483e-27 0 0.000257926 0.000996671 0.0021444 0.00362108 0.00533503 0.00717771 0.00908992 0.0111189 0.0133392 0.015734 0.0183496 0.0212909 0.0246725 0.0285988 0.033165 0.0384416 0.0444622 0.0512146 0.0585984 0.0666454 0.0750845 0.0837077 0.0923842 0.100857 0.10964 0.124307 0.128331 0.130675 0.131698 0.131347 0.129545 0.126247 0.121467 0.115278 0.107801 0.0992186 0.0896775 0.0793733 0.0686444 0.0579501 0.0477107 0.0381588 0.0293734 0.0215184 0.0148315 0.00939174 0.00523434 0.0023456 0.000659503 5.6609e-27 0 0.000728363 0.00284222 0.00623645 0.0107981 0.0164091 0.0229326 0.0302001 0.0379718 0.0463064 0.0553958 0.0649344 0.0749512 0.0854414 0.0963884 0.107772 0.119553 0.131668 0.144026 0.156505 0.169104 0.18135 0.193299 0.204805 0.215526 0.226422 0.238064 0.240861 0.241065 0.239063 0.234854 0.228429 0.219828 0.209161 0.1966 0.182372 0.166762 0.150096 0.132664 0.114864 0.097239 0.0803228 0.0645177 0.0500158 0.0369857 0.0257878 0.0165615 0.00939374 0.00430526 0.00125347 1.03308e-26 0 0.00115413 0.004559 0.0101 0.0176331 0.0269972 0.0380253 0.0505393 0.064073 0.0784025 0.0938687 0.1102 0.127147 0.1446 0.162418 0.180465 0.198594 0.216645 0.234448 0.251827 0.2688 0.284683 0.299735 0.313695 0.326188 0.338001 0.348186 0.349558 0.34763 0.342698 0.334769 0.323882 0.31016 0.293808 0.275097 0.254355 0.231964 0.208385 0.184041 0.159431 0.135147 0.111816 0.0899986 0.0699966 0.052004 0.036451 0.0235587 0.0134672 0.00623406 0.00183959 1.49396e-26 0 0.00158205 0.00625279 0.013876 0.0242771 0.0372483 0.0525637 0.0699893 0.0890883 0.109421 0.13084 0.153709 0.177294 0.201412 0.225808 0.250227 0.274418 0.298125 0.321099 0.343113 0.364156 0.383437 0.40127 0.417293 0.43119 0.444446 0.45273 0.452649 0.448677 0.440941 0.42945 0.414307 0.395718 0.373976 0.34944 0.322532 0.293738 0.263592 0.232686 0.201633 0.171061 0.141679 0.114181 0.0889746 0.0663046 0.0466333 0.0302551 0.0173674 0.00808103 0.00239858 1.93592e-26 0 0.00197172 0.00781538 0.0173834 0.0304744 0.0468407 0.0661938 0.0882084 0.112527 0.138657 0.165951 0.194647 0.224455 0.254866 0.285471 0.315901 0.345799 0.374818 0.402626 0.428931 0.453698 0.476078 0.496326 0.51406 0.529183 0.545961 0.549916 0.548543 0.542633 0.532214 0.517348 0.498213 0.47509 0.448338 0.418394 0.385771 0.351047 0.314822 0.277829 0.240797 0.204406 0.169428 0.136675 0.106646 0.0796403 0.0561516 0.0365334 0.0210338 0.0098115 0.0029165 2.3498e-26 0 0.00234044 0.0092791 0.0206517 0.0362317 0.0557361 0.0788304 0.105139 0.134264 0.165591 0.198693 0.232779 0.268016 0.304212 0.340544 0.376512 0.411661 0.445553 0.477775 0.507971 0.536062 0.56116 0.58345 0.602501 0.61956 0.635886 0.638434 0.635827 0.628027 0.615061 0.597058 0.574262 0.547001 0.515692 0.480843 0.443046 0.402962 0.361254 0.318752 0.276306 0.234655 0.194621 0.157116 0.122725 0.0917929 0.064841 0.0422801 0.0244005 0.0114042 0.00338919 2.72877e-26 0 0.00266538 0.0105799 0.0235699 0.0413864 0.0637142 0.0901781 0.120349 0.153762 0.189815 0.227982 0.267128 0.307275 0.348633 0.390131 0.431091 0.470962 0.509219 0.545373 0.579012 0.609985 0.637385 0.661321 0.681637 0.703787 0.715516 0.717078 0.713192 0.703525 0.68819 0.667352 0.641282 0.610339 0.574991 0.535812 0.493459 0.448665 0.402148 0.354809 0.307604 0.261336 0.216861 0.175177 0.136947 0.102554 0.0725488 0.0473891 0.0274024 0.0128334 0.00381549 3.06589e-26 0 0.00295442 0.0117285 0.0261368 0.0459109 0.0707075 0.100117 0.133669 0.170829 0.211008 0.253512 0.297618 0.342327 0.387579 0.433495 0.478809 0.522792 0.564832 0.60437 0.640949 0.67433 0.703608 0.728742 0.75278 0.776533 0.783651 0.784356 0.779365 0.76804 0.750597 0.727246 0.698299 0.664162 0.625345 0.582469 0.536245 0.487455 0.436866 0.385436 0.33421 0.284034 0.235805 0.190595 0.149118 0.111763 0.0791485 0.0517663 0.0299816 0.014067 0.00418848 3.35524e-26 0 0.003193 0.0126833 0.028279 0.0496956 0.0765661 0.108449 0.144836 0.185159 0.228791 0.274956 0.323081 0.372272 0.421037 0.470061 0.518917 0.56633 0.611515 0.653844 0.69282 0.728094 0.758837 0.786968 0.8181 0.83324 0.839349 0.839287 0.833269 0.820553 0.801349 0.775901 0.74455 0.707754 0.666076 0.620174 0.5708 0.518778 0.464893 0.410171 0.355718 0.302403 0.25116 0.20313 0.159056 0.119293 0.0845637 0.0553686 0.0321038 0.0150768 0.00449078 3.59222e-26 0 0.00338544 0.0134484 0.02999 0.0527129 0.0812316 0.115079 0.153717 0.19654 0.242881 0.291984 0.343115 0.395647 0.448277 0.499922 0.550962 0.600922 0.648542 0.693019 0.733812 0.770364 0.804473 0.840871 0.862905 0.876115 0.881817 0.881113 0.874152 0.860215 0.839552 0.81243 0.779215 0.740385 0.696529 0.648337 0.596592 0.542149 0.485797 0.428642 0.371808 0.316165 0.262691 0.212574 0.166583 0.125005 0.0886977 0.0581406 0.0337504 0.0158667 0.004727 3.77335e-26 0 0.00352241 0.0139972 0.0312228 0.0548935 0.0846097 0.119887 0.160162 0.204803 0.253115 0.304349 0.357683 0.412374 0.46768 0.522188 0.575378 0.626665 0.675532 0.721316 0.763553 0.80496 0.844603 0.872106 0.891998 0.905109 0.910396 0.909156 0.901414 0.886511 0.864742 0.836394 0.801851 0.761605 0.716264 0.66654 0.613237 0.557226 0.499295 0.440592 0.38224 0.325119 0.270239 0.218784 0.171551 0.128796 0.0914537 0.0599985 0.0348714 0.0164233 0.0049051 3.89562e-26 0 0.00360675 0.0143327 0.0319742 0.0562209 0.0866656 0.122813 0.164085 0.209836 0.259352 0.311866 0.366537 0.422562 0.479161 0.535374 0.590176 0.642769 0.69264 0.740291 0.787382 0.827693 0.860549 0.887004 0.906854 0.919792 0.924756 0.922583 0.914059 0.898345 0.875749 0.846558 0.811172 0.77011 0.724001 0.673567 0.619604 0.562958 0.504467 0.445231 0.386327 0.328694 0.273388 0.221467 0.173688 0.13049 0.0927119 0.060865 0.0354062 0.0166984 0.00500319 3.95688e-26 0 0.00363383 0.0144423 0.032222 0.0566612 0.0873502 0.123789 0.165395 0.211513 0.261421 0.314341 0.369449 0.425925 0.482934 0.539491 0.594555 0.647614 0.699463 0.74667 0.789888 0.828131 0.86073 0.887141 0.906931 0.919785 0.924395 0.922257 0.913546 0.897636 0.874844 0.845474 0.80995 0.76881 0.722686 0.672293 0.618414 0.561856 0.503528 0.444477 0.385712 0.328235 0.273154 0.221392 0.173596 0.13047 0.0927183 0.0608871 0.035433 0.0167216 0.00501768 3.95616e-26 0 0.00363027 0.0144271 0.0321836 0.0565832 0.0872119 0.123567 0.165067 0.211056 0.260811 0.313555 0.368463 0.424738 0.48157 0.537921 0.592738 0.645215 0.689618 0.736253 0.7787 0.816192 0.848095 0.873873 0.893092 0.905435 0.909609 0.907278 0.898392 0.882408 0.859683 0.830551 0.795446 0.754891 0.7095 0.659956 0.607034 0.551452 0.49421 0.436318 0.378679 0.322329 0.268377 0.217637 0.170618 0.128265 0.0911811 0.0598988 0.034873 0.0164678 0.00494845 3.89344e-26 0 0.00354748 0.0140968 0.0314435 0.0552787 0.0851986 0.120712 0.161247 0.206163 0.254756 0.306263 0.359865 0.414773 0.470254 0.525263 0.578814 0.62988 0.668706 0.713903 0.754877 0.791027 0.821752 0.846537 0.864966 0.876734 0.880507 0.878066 0.869184 0.853462 0.831269 0.80293 0.768864 0.729562 0.68561 0.637679 0.586473 0.532719 0.4774