<?xml version="1.0"?>
<VTKFile type="PolyData">
	<PolyData>
		<Piece NumberOfPoints="2601" NumberOfPolys="2500">
			<Points>
				<DataArray type="Float32" NumberOfComponents="3" format="ascii">
 0 0 0 0.02 0 0 0.04 0 0 0.06 0 0 0.08 0 0 0.1 0 0 0.12 0 0 0.14 0 0 0.16 0 0 0.18 0 0 0.2 0 0 0.22 0 0 0.24 0 0 0.26 0 0 0.28 0 0 0.3 0 0 0.32 0 0 0.34 0 0 0.36 0 0 0.38 0 0 0.4 0 0 0.42 0 0 0.44 0 0 0.46 0 0 0.48 0 0 0.5 0 0 0.52 0 0 0.54 0 0 0.56 0 0 0.58 0 0 0.6 0 0 0.62 0 0 0.64 0 0 0.66 0 0 0.68 0 0 0.7 0 0 0.72 0 0 0.74 0 0 0.76 0 0 0.78 0 0 0.8 0 0 0.82 0 0 0.84 0 0 0.86 0 0 0.88 0 0 0.9 0 0 0.92 0 0 0.94 0 0 0.96 0 0 0.98 0 0 1 0 0 0 0.02 0 0.02 0.02 0 0.04 0.02 0 0.06 0.02 0 0.08 0.02 0 0.1 0.02 0 0.12 0.02 0 0.14 0.02 0 0.16 0.02 0 0.18 0.02 0 0.2 0.02 0 0.22 0.02 0 0.24 0.02 0 0.26 0.02 0 0.28 0.02 0 0.3 0.02 0 0.32 0.02 0 0.34 0.02 0 0.36 0.02 0 0.38 0.02 0 0.4 0.02 0 0.42 0.02 0 0.44 0.02 0 0.46 0.02 0 0.48 0.02 0 0.5 0.02 0 0.52 0.02 0 0.54 0.02 0 0.56 0.02 0 0.58 0.02 0 0.6 0.02 0 0.62 0.02 0 0.64 0.02 0 0.66 0.02 0 0.68 0.02 0 0.7 0.02 0 0.72 0.02 0 0.74 0.02 0 0.76 0.02 0 0.78 0.02 0 0.8 0.02 0 0.82 0.02 0 0.84 0.02 0 0.86 0.02 0 0.88 0.02 0 0.9 0.02 0 0.92 0.02 0 0.94 0.02 0 0.96 0.02 0 0.98 0.02 0 1 0.02 0 0 0.04 0 0.02 0.04 0 0.04 0.04 0 0.06 0.04 0 0.08 0.04 0 0.1 0.04 0 0.12 0.04 0 0.14 0.04 0 0.16 0.04 0 0.18 0.04 0 0.2 0.04 0 0.22 0.04 0 0.24 0.04 0 0.26 0.04 0 0.28 0.04 0 0.3 0.04 0 0.32 0.04 0 0.34 0.04 0 0.36 0.04 0 0.38 0.04 0 0.4 0.04 0 0.42 0.04 0 0.44 0.04 0 0.46 0.04 0 0.48 0.04 0 0.5 0.04 0 0.52 0.04 0 0.54 0.04 0 0.56 0.04 0 0.58 0.04 0 0.6 0.04 0 0.62 0.04 0 0.64 0.04 0 0.66 0.04 0 0.68 0.04 0 0.7 0.04 0 0.72 0.04 0 0.74 0.04 0 0.76 0.04 0 0.78 0.04 0 0.8 0.04 0 0.82 0.04 0 0.84 0.04 0 0.86 0.04 0 0.88 0.04 0 0.9 0.04 0 0.92 0.04 0 0.94 0.04 0 0.96 0.04 0 0.98 0.04 0 1 0.04 0 0 0.06 0 0.02 0.06 0 0.04 0.06 0 0.06 0.06 0 0.08 0.06 0 0.1 0.06 0 0.12 0.06 0 0.14 0.06 0 0.16 0.06 0 0.18 0.06 0 0.2 0.06 0 0.22 0.06 0 0.24 0.06 0 0.26 0.06 0 0.28 0.06 0 0.3 0.06 0 0.32 0.06 0 0.34 0.06 0 0.36 0.06 0 0.38 0.06 0 0.4 0.06 0 0.42 0.06 0 0.44 0.06 0 0.46 0.06 0 0.48 0.06 0 0.5 0.06 0 0.52 0.06 0 0.54 0.06 0 0.56 0.06 0 0.58 0.06 0 0.6 0.06 0 0.62 0.06 0 0.64 0.06 0 0.66 0.06 0 0.68 0.06 0 0.7 0.06 0 0.72 0.06 0 0.74 0.06 0 0.76 0.06 0 0.78 0.06 0 0.8 0.06 0 0.82 0.06 0 0.84 0.06 0 0.86 0.06 0 0.88 0.06 0 0.9 0.06 0 0.92 0.06 0 0.94 0.06 0 0.96 0.06 0 0.98 0.06 0 1 0.06 0 0 0.08 0 0.02 0.08 0 0.04 0.08 0 0.06 0.08 0 0.08 0.08 0 0.1 0.08 0 0.12 0.08 0 0.14 0.08 0 0.16 0.08 0 0.18 0.08 0 0.2 0.08 0 0.22 0.08 0 0.24 0.08 0 0.26 0.08 0 0.28 0.08 0 0.3 0.08 0 0.32 0.08 0 0.34 0.08 0 0.36 0.08 0 0.38 0.08 0 0.4 0.08 0 0.42 0.08 0 0.44 0.08 0 0.46 0.08 0 0.48 0.08 0 0.5 0.08 0 0.52 0.08 0 0.54 0.08 0 0.56 0.08 0 0.58 0.08 0 0.6 0.08 0 0.62 0.08 0 0.64 0.08 0 0.66 0.08 0 0.68 0.08 0 0.7 0.08 0 0.72 0.08 0 0.74 0.08 0 0.76 0.08 0 0.78 0.08 0 0.8 0.08 0 0.82 0.08 0 0.84 0.08 0 0.86 0.08 0 0.88 0.08 0 0.9 0.08 0 0.92 0.08 0 0.94 0.08 0 0.96 0.08 0 0.98 0.08 0 1 0.08 0 0 0.1 0 0.02 0.1 0 0.04 0.1 0 0.06 0.1 0 0.08 0.1 0 0.1 0.1 0 0.12 0.1 0 0.14 0.1 0 0.16 0.1 0 0.18 0.1 0 0.2 0.1 0 0.22 0.1 0 0.24 0.1 0 0.26 0.1 0 0.28 0.1 0 0.3 0.1 0 0.32 0.1 0 0.34 0.1 0 0.36 0.1 0 0.38 0.1 0 0.4 0.1 0 0.42 0.1 0 0.44 0.1 0 0.46 0.1 0 0.48 0.1 0 0.5 0.1 0 0.52 0.1 0 0.54 0.1 0 0.56 0.1 0 0.58 0.1 0 0.6 0.1 0 0.62 0.1 0 0.64 0.1 0 0.66 0.1 0 0.68 0.1 0 0.7 0.1 0 0.72 0.1 0 0.74 0.1 0 0.76 0.1 0 0.78 0.1 0 0.8 0.1 0 0.82 0.1 0 0.84 0.1 0 0.86 0.1 0 0.88 0.1 0 0.9 0.1 0 0.92 0.1 0 0.94 0.1 0 0.96 0.1 0 0.98 0.1 0 1 0.1 0 0 0.12 0 0.02 0.12 0 0.04 0.12 0 0.06 0.12 0 0.08 0.12 0 0.1 0.12 0 0.12 0.12 0 0.14 0.12 0 0.16 0.12 0 0.18 0.12 0 0.2 0.12 0 0.22 0.12 0 0.24 0.12 0 0.26 0.12 0 0.28 0.12 0 0.3 0.12 0 0.32 0.12 0 0.34 0.12 0 0.36 0.12 0 0.38 0.12 0 0.4 0.12 0 0.42 0.12 0 0.44 0.12 0 0.46 0.12 0 0.48 0.12 0 0.5 0.12 0 0.52 0.12 0 0.54 0.12 0 0.56 0.12 0 0.58 0.12 0 0.6 0.12 0 0.62 0.12 0 0.64 0.12 0 0.66 0.12 0 0.68 0.12 0 0.7 0.12 0 0.72 0.12 0 0.74 0.12 0 0.76 0.12 0 0.78 0.12 0 0.8 0.12 0 0.82 0.12 0 0.84 0.12 0 0.86 0.12 0 0.88 0.12 0 0.9 0.12 0 0.92 0.12 0 0.94 0.12 0 0.96 0.12 0 0.98 0.12 0 1 0.12 0 0 0.14 0 0.02 0.14 0 0.04 0.14 0 0.06 0.14 0 0.08 0.14 0 0.1 0.14 0 0.12 0.14 0 0.14 0.14 0 0.16 0.14 0 0.18 0.14 0 0.2 0.14 0 0.22 0.14 0 0.24 0.14 0 0.26 0.14 0 0.28 0.14 0 0.3 0.14 0 0.32 0.14 0 0.34 0.14 0 0.36 0.14 0 0.38 0.14 0 0.4 0.14 0 0.42 0.14 0 0.44 0.14 0 0.46 0.14 0 0.48 0.14 0 0.5 0.14 0 0.52 0.14 0 0.54 0.14 0 0.56 0.14 0 0.58 0.14 0 0.6 0.14 0 0.62 0.14 0 0.64 0.14 0 0.66 0.14 0 0.68 0.14 0 0.7 0.14 0 0.72 0.14 0 0.74 0.14 0 0.76 0.14 0 0.78 0.14 0 0.8 0.14 0 0.82 0.14 0 0.84 0.14 0 0.86 0.14 0 0.88 0.14 0 0.9 0.14 0 0.92 0.14 0 0.94 0.14 0 0.96 0.14 0 0.98 0.14 0 1 0.14 0 0 0.16 0 0.02 0.16 0 0.04 0.16 0 0.06 0.16 0 0.08 0.16 0 0.1 0.16 0 0.12 0.16 0 0.14 0.16 0 0.16 0.16 0 0.18 0.16 0 0.2 0.16 0 0.22 0.16 0 0.24 0.16 0 0.26 0.16 0 0.28 0.16 0 0.3 0.16 0 0.32 0.16 0 0.34 0.16 0 0.36 0.16 0 0.38 0.16 0 0.4 0.16 0 0.42 0.16 0 0.44 0.16 0 0.46 0.16 0 0.48 0.16 0 0.5 0.16 0 0.52 0.16 0 0.54 0.16 0 0.56 0.16 0 0.58 0.16 0 0.6 0.16 0 0.62 0.16 0 0.64 0.16 0 0.66 0.16 0 0.68 0.16 0 0.7 0.16 0 0.72 0.16 0 0.74 0.16 0 0.76 0.16 0 0.78 0.16 0 0.8 0.16 0 0.82 0.16 0 0.84 0.16 0 0.86 0.16 0 0.88 0.16 0 0.9 0.16 0 0.92 0.16 0 0.94 0.16 0 0.96 0.16 0 0.98 0.16 0 1 0.16 0 0 0.18 0 0.02 0.18 0 0.04 0.18 0 0.06 0.18 0 0.08 0.18 0 0.1 0.18 0 0.12 0.18 0 0.14 0.18 0 0.16 0.18 0 0.18 0.18 0 0.2 0.18 0 0.22 0.18 0 0.24 0.18 0 0.26 0.18 0 0.28 0.18 0 0.3 0.18 0 0.32 0.18 0 0.34 0.18 0 0.36 0.18 0 0.38 0.18 0 0.4 0.18 0 0.42 0.18 0 0.44 0.18 0 0.46 0.18 0 0.48 0.18 0 0.5 0.18 0 0.52 0.18 0 0.54 0.18 0 0.56 0.18 0 0.58 0.18 0 0.6 0.18 0 0.62 0.18 0 0.64 0.18 0 0.66 0.18 0 0.68 0.18 0 0.7 0.18 0 0.72 0.18 0 0.74 0.18 0 0.76 0.18 0 0.78 0.18 0 0.8 0.18 0 0.82 0.18 0 0.84 0.18 0 0.86 0.18 0 0.88 0.18 0 0.9 0.18 0 0.92 0.18 0 0.94 0.18 0 0.96 0.18 0 0.98 0.18 0 1 0.18 0 0 0.2 0 0.02 0.2 0 0.04 0.2 0 0.06 0.2 0 0.08 0.2 0 0.1 0.2 0 0.12 0.2 0 0.14 0.2 0 0.16 0.2 0 0.18 0.2 0 0.2 0.2 0 0.22 0.2 0 0.24 0.2 0 0.26 0.2 0 0.28 0.2 0 0.3 0.2 0 0.32 0.2 0 0.34 0.2 0 0.36 0.2 0 0.38 0.2 0 0.4 0.2 0 0.42 0.2 0 0.44 0.2 0 0.46 0.2 0 0.48 0.2 0 0.5 0.2 0 0.52 0.2 0 0.54 0.2 0 0.56 0.2 0 0.58 0.2 0 0.6 0.2 0 0.62 0.2 0 0.64 0.2 0 0.66 0.2 0 0.68 0.2 0 0.7 0.2 0 0.72 0.2 0 0.74 0.2 0 0.76 0.2 0 0.78 0.2 0 0.8 0.2 0 0.82 0.2 0 0.84 0.2 0 0.86 0.2 0 0.88 0.2 0 0.9 0.2 0 0.92 0.2 0 0.94 0.2 0 0.96 0.2 0 0.98 0.2 0 1 0.2 0 0 0.22 0 0.02 0.22 0 0.04 0.22 0 0.06 0.22 0 0.08 0.22 0 0.1 0.22 0 0.12 0.22 0 0.14 0.22 0 0.16 0.22 0 0.18 0.22 0 0.2 0.22 0 0.22 0.22 0 0.24 0.22 0 0.26 0.22 0 0.28 0.22 0 0.3 0.22 0 0.32 0.22 0 0.34 0.22 0 0.36 0.22 0 0.38 0.22 0 0.4 0.22 0 0.42 0.22 0 0.44 0.22 0 0.46 0.22 0 0.48 0.22 0 0.5 0.22 0 0.52 0.22 0 0.54 0.22 0 0.56 0.22 0 0.58 0.22 0 0.6 0.22 0 0.62 0.22 0 0.64 0.22 0 0.66 0.22 0 0.68 0.22 0 0.7 0.22 0 0.72 0.22 0 0.74 0.22 0 0.76 0.22 0 0.78 0.22 0 0.8 0.22 0 0.82 0.22 0 0.84 0.22 0 0.86 0.22 0 0.88 0.22 0 0.9 0.22 0 0.92 0.22 0 0.94 0.22 0 0.96 0.22 0 0.98 0.22 0 1 0.22 0 0 0.24 0 0.02 0.24 0 0.04 0.24 0 0.06 0.24 0 0.08 0.24 0 0.1 0.24 0 0.12 0.24 0 0.14 0.24 0 0.16 0.24 0 0.18 0.24 0 0.2 0.24 0 0.22 0.24 0 0.24 0.24 0 0.26 0.24 0 0.28 0.24 0 0.3 0.24 0 0.32 0.24 0 0.34 0.24 0 0.36 0.24 0 0.38 0.24 0 0.4 0.24 0 0.42 0.24 0 0.44 0.24 0 0.46 0.24 0 0.48 0.24 0 0.5 0.24 0 0.52 0.24 0 0.54 0.24 0 0.56 0.24 0 0.58 0.24 0 0.6 0.24 0 0.62 0.24 0 0.64 0.24 0 0.66 0.24 0 0.68 0.24 0 0.7 0.24 0 0.72 0.24 0 0.74 0.24 0 0.76 0.24 0 0.78 0.24 0 0.8 0.24 0 0.82 0.24 0 0.84 0.24 0 0.86 0.24 0 0.88 0.24 0 0.9 0.24 0 0.92 0.24 0 0.94 0.24 0 0.96 0.24 0 0.98 0.24 0 1 0.24 0 0 0.26 0 0.02 0.26 0 0.04 0.26 0 0.06 0.26 0 0.08 0.26 0 0.1 0.26 0 0.12 0.26 0 0.14 0.26 0 0.16 0.26 0 0.18 0.26 0 0.2 0.26 0 0.22 0.26 0 0.24 0.26 0 0.26 0.26 0 0.28 0.26 0 0.3 0.26 0 0.32 0.26 0 0.34 0.26 0 0.36 0.26 0 0.38 0.26 0 0.4 0.26 0 0.42 0.26 0 0.44 0.26 0 0.46 0.26 0 0.48 0.26 0 0.5 0.26 0 0.52 0.26 0 0.54 0.26 0 0.56 0.26 0 0.58 0.26 0 0.6 0.26 0 0.62 0.26 0 0.64 0.26 0 0.66 0.26 0 0.68 0.26 0 0.7 0.26 0 0.72 0.26 0 0.74 0.26 0 0.76 0.26 0 0.78 0.26 0 0.8 0.26 0 0.82 0.26 0 0.84 0.26 0 0.86 0.26 0 0.88 0.26 0 0.9 0.26 0 0.92 0.26 0 0.94 0.26 0 0.96 0.26 0 0.98 0.26 0 1 0.26 0 0 0.28 0 0.02 0.28 0 0.04 0.28 0 0.06 0.28 0 0.08 0.28 0 0.1 0.28 0 0.12 0.28 0 0.14 0.28 0 0.16 0.28 0 0.18 0.28 0 0.2 0.28 0 0.22 0.28 0 0.24 0.28 0 0.26 0.28 0 0.28 0.28 0 0.3 0.28 0 0.32 0.28 0 0.34 0.28 0 0.36 0.28 0 0.38 0.28 0 0.4 0.28 0 0.42 0.28 0 0.44 0.28 0 0.46 0.28 0 0.48 0.28 0 0.5 0.28 0 0.52 0.28 0 0.54 0.28 0 0.56 0.28 0 0.58 0.28 0 0.6 0.28 0 0.62 0.28 0 0.64 0.28 0 0.66 0.28 0 0.68 0.28 0 0.7 0.28 0 0.72 0.28 0 0.74 0.28 0 0.76 0.28 0 0.78 0.28 0 0.8 0.28 0 0.82 0.28 0 0.84 0.28 0 0.86 0.28 0 0.88 0.28 0 0.9 0.28 0 0.92 0.28 0 0.94 0.28 0 0.96 0.28 0 0.98 0.28 0 1 0.28 0 0 0.3 0 0.02 0.3 0 0.04 0.3 0 0.06 0.3 0 0.08 0.3 0 0.1 0.3 0 0.12 0.3 0 0.14 0.3 0 0.16 0.3 0 0.18 0.3 0 0.2 0.3 0 0.22 0.3 0 0.24 0.3 0 0.26 0.3 0 0.28 0.3 0 0.3 0.3 0 0.32 0.3 0 0.34 0.3 0 0.36 0.3 0 0.38 0.3 0 0.4 0.3 0 0.42 0.3 0 0.44 0.3 0 0.46 0.3 0 0.48 0.3 0 0.5 0.3 0 0.52 0.3 0 0.54 0.3 0 0.56 0.3 0 0.58 0.3 0 0.6 0.3 0 0.62 0.3 0 0.64 0.3 0 0.66 0.3 0 0.68 0.3 0 0.7 0.3 0 0.72 0.3 0 0.74 0.3 0 0.76 0.3 0 0.78 0.3 0 0.8 0.3 0 0.82 0.3 0 0.84 0.3 0 0.86 0.3 0 0.88 0.3 0 0.9 0.3 0 0.92 0.3 0 0.94 0.3 0 0.96 0.3 0 0.98 0.3 0 1 0.3 0 0 0.32 0 0.02 0.32 0 0.04 0.32 0 0.06 0.32 0 0.08 0.32 0 0.1 0.32 0 0.12 0.32 0 0.14 0.32 0 0.16 0.32 0 0.18 0.32 0 0.2 0.32 0 0.22 0.32 0 0.24 0.32 0 0.26 0.32 0 0.28 0.32 0 0.3 0.32 0 0.32 0.32 0 0.34 0.32 0 0.36 0.32 0 0.38 0.32 0 0.4 0.32 0 0.42 0.32 0 0.44 0.32 0 0.46 0.32 0 0.48 0.32 0 0.5 0.32 0 0.52 0.32 0 0.54 0.32 0 0.56 0.32 0 0.58 0.32 0 0.6 0.32 0 0.62 0.32 0 0.64 0.32 0 0.66 0.32 0 0.68 0.32 0 0.7 0.32 0 0.72 0.32 0 0.74 0.32 0 0.76 0.32 0 0.78 0.32 0 0.8 0.32 0 0.82 0.32 0 0.84 0.32 0 0.86 0.32 0 0.88 0.32 0 0.9 0.32 0 0.92 0.32 0 0.94 0.
[...]
			<PointData Scalars="VitesseX">
				<DataArray Name="VitesseX" type="Float32" format="ascii">
 0 0 0 0 0 0 0 0 0 0 0 0 0 0 0 0 0 0 0 0 0 0 0 0 0 0 0 0 0 0 0 0 0 0 0 0 0 0 0 0 0 0 0 0 0 0 0 0 0 0 -0 0 -6.68798e-05 -0.00025456 -0.000561833 -0.000983878 -0.00151407 -0.00214407 -0.00286399 -0.00366249 -0.00452702 -0.00544397 -0.00639828 -0.00737621 -0.00836183 -0.00933975 -0.0102953 -0.0112122 -0.0120741 -0.0128703 -0.0135877 -0.0142149 -0.014742 -0.0151607 -0.0154641 -0.0156482 -0.0157334 -0.0157014 -0.0155341 -0.0152396 -0.0148269 -0.0143035 -0.0136774 -0.0129583 -0.0121587 -0.0112919 -0.0103712 -0.00941084 -0.00842631 -0.00743327 -0.00644751 -0.00548464 -0.00455993 -0.00368808 -0.00288295 -0.00215735 -0.00152259 -0.00098683 -0.000560149 -0.000250784 -6.31031e-05 -7.0154e-28 0 -0.000131139 -0.000502609 -0.00111153 -0.00194837 -0.00300003 -0.00425001 -0.00567874 -0.00726378 -0.00898161 -0.0108057 -0.0127023 -0.0146422 -0.0165979 -0.0185377 -0.020431 -0.0222481 -0.0239604 -0.0255407 -0.0269644 -0.0282088 -0.0292543 -0.0300846 -0.0306862 -0.031049 -0.0311809 -0.0310783 -0.030728 -0.0301352 -0.0293108 -0.0282691 -0.0270249 -0.0255996 -0.0240171 -0.0223009 -0.0204789 -0.0185798 -0.0166335 -0.014671 -0.0127233 -0.0108212 -0.00899476 -0.00727293 -0.00568298 -0.00425015 -0.00299707 -0.00194304 -0.00110321 -0.000493357 -0.00012398 -1.36081e-27 0 -0.000192608 -0.000741729 -0.00164257 -0.00288099 -0.00443841 -0.00629289 -0.00841358 -0.0107617 -0.0133018 -0.0159957 -0.0188012 -0.0216745 -0.0245704 -0.0274428 -0.0302463 -0.0329369 -0.0354721 -0.0378118 -0.0399192 -0.0417611 -0.0433083 -0.0445364 -0.045426 -0.0459608 -0.0461438 -0.0459759 -0.0454453 -0.0445592 -0.043333 -0.0417863 -0.0399428 -0.0378328 -0.0354901 -0.0329513 -0.0302568 -0.027449 -0.0245721 -0.0216716 -0.0187936 -0.0159832 -0.0132847 -0.0107409 -0.00839193 -0.00627502 -0.00442371 -0.00286696 -0.0016287 -0.000728199 -0.000182902 -1.99875e-27 0 -0.000251002 -0.000968962 -0.00214513 -0.00376886 -0.00581797 -0.00824186 -0.0110104 -0.0140812 -0.0174061 -0.0209326 -0.0246053 -0.028367 -0.0321582 -0.0359186 -0.0395888 -0.0431109 -0.0464293 -0.0494915 -0.0522493 -0.0546591 -0.0566829 -0.0582887 -0.0594513 -0.0601484 -0.0603813 -0.0601516 -0.0594475 -0.0582806 -0.0566703 -0.0546417 -0.0522266 -0.049464 -0.0463975 -0.0430758 -0.0395513 -0.0358793 -0.0321174 -0.0283254 -0.0245632 -0.0208895 -0.0173624 -0.0140375 -0.0109672 -0.00820011 -0.00578014 -0.00374538 -0.00212754 -0.000951628 -0.000238942 -2.60531e-27 0 -0.000306264 -0.00118537 -0.00262803 -0.00460876 -0.00709638 -0.0100527 -0.0134313 -0.017179 -0.021237 -0.0255413 -0.0300242 -0.0346157 -0.0392432 -0.0438328 -0.0483121 -0.0526104 -0.0566597 -0.060396 -0.0637603 -0.0666995 -0.0691671 -0.0711245 -0.0725408 -0.0733882 -0.0736672 -0.0733797 -0.0725124 -0.0710821 -0.0691121 -0.0666327 -0.0636831 -0.0603105 -0.0565679 -0.0525154 -0.0482166 -0.0437385 -0.0391514 -0.0345281 -0.0299416 -0.0254633 -0.0211638 -0.0171109 -0.0133682 -0.00999516 -0.00704504 -0.00456455 -0.00259261 -0.00116023 -0.000291216 -3.17096e-27 0 -0.000357555 -0.00138087 -0.00305886 -0.00536433 -0.0082617 -0.0117055 -0.0156414 -0.0200077 -0.0247354 -0.0297502 -0.0349731 -0.0403225 -0.0457137 -0.0510604 -0.0562784 -0.0612851 -0.0660014 -0.0703525 -0.0742699 -0.0776916 -0.0805636 -0.082841 -0.0844879 -0.0854713 -0.0857917 -0.0854509 -0.0844337 -0.0827616 -0.0804618 -0.07757 -0.0741327 -0.0702039 -0.0658437 -0.0611225 -0.0561169 -0.0509041 -0.0455642 -0.0401827 -0.0348447 -0.029633 -0.0246295 -0.0199129 -0.0155575 -0.011632 -0.00819855 -0.00531161 -0.00301673 -0.00135037 -0.000338903 -3.6868e-27 0 -0.000401522 -0.00155277 -0.00344049 -0.00603572 -0.00929765 -0.0131749 -0.0176066 -0.0225228 -0.0278462 -0.0334927 -0.0393735 -0.0453967 -0.0514668 -0.0574866 -0.0633611 -0.0689974 -0.0743062 -0.0792035 -0.0836118 -0.0874617 -0.0906922 -0.0932531 -0.095104 -0.0962068 -0.0965627 -0.096172 -0.0950183 -0.0931286 -0.0905331 -0.0872725 -0.0833992 -0.0789743 -0.0740671 -0.0687564 -0.0631265 -0.0572637 -0.051256 -0.0452007 -0.039196 -0.0333332 -0.027705 -0.0223996 -0.0175005 -0.0130849 -0.00922254 -0.00597483 -0.00339326 -0.00151872 -0.000381222 -4.1447e-27 0 -0.000439337 -0.00169978 -0.00376834 -0.00661262 -0.0101879 -0.0144378 -0.0192954 -0.0246843 -0.0305196 -0.0367091 -0.0431554 -0.0497576 -0.0564111 -0.063009 -0.0694473 -0.0756239 -0.0814411 -0.0868068 -0.0916364 -0.0958544 -0.0993931 -0.102196 -0.104221 -0.105425 -0.105812 -0.105378 -0.104107 -0.10203 -0.0991797 -0.0956023 -0.0913545 -0.0865034 -0.0811255 -0.0753058 -0.0691357 -0.062711 -0.0561315 -0.0495027 -0.0429274 -0.036506 -0.0303422 -0.0245321 -0.0191669 -0.014331 -0.0101009 -0.0065438 -0.0037163 -0.00166325 -0.000417552 -4.53746e-27 0 -0.000469901 -0.00182022 -0.00403711 -0.00708567 -0.0109179 -0.0154735 -0.0206807 -0.0264575 -0.0327128 -0.039348 -0.0462582 -0.0533355 -0.0604675 -0.0675396 -0.0744402 -0.0810602 -0.0872944 -0.0930456 -0.0982204 -0.102738 -0.106527 -0.109528 -0.111694 -0.112982 -0.113392 -0.112922 -0.111554 -0.109322 -0.106263 -0.102425 -0.0978695 -0.0926688 -0.0869047 -0.0806674 -0.074055 -0.0671711 -0.0601227 -0.0530211 -0.0459779 -0.0391015 -0.0324997 -0.0262769 -0.0205305 -0.0153508 -0.0108199 -0.00700956 -0.00398075 -0.00178158 -0.000447265 -4.85889e-27 0 -0.000493032 -0.0019121 -0.00424237 -0.00744718 -0.0114761 -0.0162657 -0.0217405 -0.0278142 -0.0343912 -0.0413676 -0.0486331 -0.0560743 -0.063573 -0.0710086 -0.0782638 -0.0852237 -0.091776 -0.0978185 -0.103256 -0.108002 -0.111982 -0.115134 -0.117408 -0.118757 -0.119185 -0.118685 -0.117241 -0.114889 -0.111668 -0.107629 -0.102838 -0.097369 -0.0913091 -0.0847534 -0.0778045 -0.0705713 -0.0631652 -0.0557032 -0.0483034 -0.0410792 -0.0341439 -0.0276066 -0.0215698 -0.0161283 -0.0113681 -0.0073648 -0.00418247 -0.00187185 -0.000469993 -5.10393e-27 0 -0.000508447 -0.00197389 -0.00438077 -0.00769128 -0.0118534 -0.0168015 -0.0224578 -0.0287331 -0.0355284 -0.0427365 -0.0502434 -0.0579318 -0.0656795 -0.0733613 -0.0808557 -0.0880437 -0.0948109 -0.101051 -0.106666 -0.111566 -0.115674 -0.118926 -0.121271 -0.12266 -0.123097 -0.122577 -0.121079 -0.118644 -0.11531 -0.111134 -0.106182 -0.100531 -0.094271 -0.0875 -0.0803237 -0.0728545 -0.0652082 -0.0575051 -0.0498662 -0.0424087 -0.0352493 -0.0285003 -0.0222685 -0.0166511 -0.011737 -0.0076039 -0.00431828 -0.00193263 -0.000485308 -5.26872e-27 0 -0.000515889 -0.00200456 -0.00445006 -0.00781408 -0.0120438 -0.0170726 -0.0228215 -0.0291997 -0.0361068 -0.0434335 -0.0510642 -0.0588794 -0.0667537 -0.0745593 -0.0821741 -0.089478 -0.0963549 -0.102695 -0.108399 -0.113375 -0.117545 -0.120845 -0.123222 -0.124629 -0.125069 -0.124533 -0.123003 -0.120521 -0.117126 -0.112877 -0.107841 -0.102096 -0.0957328 -0.0888526 -0.0815618 -0.0739742 -0.0662079 -0.0583851 -0.0506287 -0.0430579 -0.0357898 -0.0289373 -0.0226092 -0.0169066 -0.0119175 -0.00772115 -0.00438495 -0.00196248 -0.000492806 -5.35065e-27 0 -0.000515189 -0.00200337 -0.00444845 -0.00781215 -0.0120417 -0.0170706 -0.0228196 -0.0291983 -0.0361062 -0.0434341 -0.0510664 -0.0588834 -0.0667568 -0.0745631 -0.0821806 -0.0894869 -0.0963653 -0.102707 -0.108411 -0.113387 -0.117556 -0.120855 -0.123231 -0.124634 -0.125072 -0.124532 -0.122999 -0.120515 -0.117118 -0.112867 -0.107829 -0.102082 -0.0957179 -0.088836 -0.0815446 -0.0739579 -0.0661924 -0.0583698 -0.0506138 -0.043045 -0.0357803 -0.028931 -0.0226042 -0.0169016 -0.0119143 -0.0077192 -0.00438389 -0.001962 -0.000492685 -5.34844e-27 0 -0.00050644 -0.0019709 -0.00437764 -0.00768921 -0.0118538 -0.0168061 -0.0224681 -0.0287509 -0.0355554 -0.0427746 -0.0502945 -0.0579911 -0.0657455 -0.073436 -0.080939 -0.0881338 -0.0949071 -0.101151 -0.106765 -0.111659 -0.115758 -0.118996 -0.121322 -0.122688 -0.123102 -0.122562 -0.121047 -0.118595 -0.115246 -0.111057 -0.106095 -0.100435 -0.0941688 -0.0873943 -0.0802181 -0.0727524 -0.065113 -0.0574189 -0.0497891 -0.042343 -0.0351973 -0.0284616 -0.0222385 -0.0166279 -0.0117218 -0.00759484 -0.00431345 -0.00193054 -0.000484794 -5.26213e-27 0 -0.000489719 -0.00190728 -0.00423758 -0.00744457 -0.0114782 -0.0162754 -0.0217608 -0.0278479 -0.0344409 -0.0414358 -0.0487204 -0.0561764 -0.0636902 -0.071142 -0.0784099 -0.0853784 -0.0919392 -0.0979859 -0.10342 -0.108157 -0.112121 -0.115251 -0.117494 -0.118805 -0.119195 -0.118658 -0.117183 -0.114802 -0.111553 -0.107492 -0.102684 -0.0972008 -0.0911315 -0.0845711 -0.0776231 -0.0703961 -0.0630019 -0.055557 -0.0481758 -0.0409716 -0.0340574 -0.0275411 -0.0215216 -0.0160933 -0.0113443 -0.0073506 -0.00417497 -0.00186865 -0.000469265 -5.09304e-27 0 -0.000465297 -0.00181363 -0.0040308 -0.00708279 -0.0109222 -0.015489 -0.0207116 -0.0265078 -0.0327863 -0.0394485 -0.0463807 -0.0534808 -0.0606375 -0.067732 -0.0746499 -0.0812841 -0.0875295 -0.0932824 -0.0984512 -0.102956 -0.106724 -0.109695 -0.111821 -0.113054 -0.113411 -0.112874 -0.111452 -0.109169 -0.106068 -0.102203 -0.0976315 -0.0924208 -0.0866496 -0.0804097 -0.0738003 -0.0669262 -0.0598942 -0.0528147 -0.0457983 -0.0389514 -0.0323791 -0.0261849 -0.0204645 -0.0153041 -0.0107876 -0.0069903 -0.00397063 -0.0017773 -0.000446344 -4.8436e-27 0 -0.000433552 -0.00169139 -0.00376052 -0.00660959 -0.0101946 -0.0144595 -0.0193374 -0.0247518 -0.0306173 -0.0368406 -0.0433152 -0.0499481 -0.0566342 -0.0632598 -0.0697201 -0.0759162 -0.0817473 -0.0871142 -0.091936 -0.0961362 -0.0996482 -0.102415 -0.104385 -0.105512 -0.105814 -0.105282 -0.103928 -0.101775 -0.0988628 -0.0952374 -0.0909599 -0.086111 -0.0807581 -0.0749623 -0.0688065 -0.0623971 -0.055839 -0.0492375 -0.0426961 -0.0363146 -0.0301895 -0.0244145 -0.019082 -0.0142715 -0.0100603 -0.00651958 -0.00370361 -0.00165792 -0.000416389 -4.51738e-27 0 -0.000395043 -0.00154246 -0.00343119 -0.00603279 -0.0093069 -0.0132027 -0.0176594 -0.0226071 -0.0279672 -0.0336522 -0.0395707 -0.0456336 -0.0517427 -0.0577951 -0.0636982 -0.069359 -0.0746801 -0.0795776 -0.0839754 -0.087804 -0.0910025 -0.0935147 -0.0952855 -0.0962813 -0.0965404 -0.0960513 -0.0948052 -0.0928283 -0.0901587 -0.0868346 -0.082906 -0.0784501 -0.0735425 -0.0682674 -0.062697 -0.0568758 -0.0508996 -0.0448812 -0.0389184 -0.033103 -0.0275213 -0.022258 -0.017398 -0.0130135 -0.00917465 -0.00594588 -0.00337812 -0.00151239 -0.000379872 -4.11981e-27 0 -0.000350557 -0.00136982 -0.00304815 -0.00536078 -0.00827282 -0.011739 -0.015705 -0.0201081 -0.0248787 -0.0299371 -0.0352064 -0.0406043 -0.0460403 -0.0514248 -0.0566773 -0.0617128 -0.0664404 -0.0707903 -0.0746934 -0.078088 -0.0809181 -0.0831243 -0.0846633 -0.0855377 -0.0857657 -0.0853197 -0.0841991 -0.0824286 -0.0800434 -0.0770798 -0.0735834 -0.0696137 -0.0652362 -0.0605178 -0.0555507 -0.0504235 -0.0451513 -0.0398148 -0.034525 -0.0293663 -0.0244164 -0.0197499 -0.0154385 -0.0115496 -0.00814413 -0.00527823 -0.00299926 -0.00134299 -0.000337365 -3.6579e-27 0 -0.000300585 -0.00117586 -0.00261783 -0.00460571 -0.00710975 -0.0100912 -0.0135038 -0.0172936 -0.021401 -0.0257555 -0.0302921 -0.034939 -0.039617 -0.0442507 -0.0487691 -0.0530965 -0.0571576 -0.060891 -0.0642373 -0.0671427 -0.0695537 -0.071415 -0.072717 -0.073459 -0.0736392 -0.073237 -0.072259 -0.070723 -0.0686588 -0.0661009 -0.06309 -0.0596738 -0.0559153 -0.0518631 -0.0475786 -0.0431469 -0.0386657 -0.034117 -0.0295861 -0.0251664 -0.0209264 -0.0169291 -0.0132341 -0.00990251 -0.00698421 -0.00452703 -0.002573 -0.00115238 -0.000289539 -3.13878e-27 0 -0.000245895 -0.000963445 -0.00214692 -0.00377956 -0.00583675 -0.00828713 -0.0110928 -0.0142097 -0.0175884 -0.0211712 -0.0249039 -0.0287266 -0.0325734 -0.0363836 -0.0400971 -0.0436486 -0.0469796 -0.0500376 -0.0527735 -0.0551412 -0.057091 -0.0585873 -0.0596337 -0.0602245 -0.0603503 -0.0599964 -0.0591745 -0.0578983 -0.0561882 -0.0540762 -0.0515972 -0.0487858 -0.0457026 -0.042384 -0.0388791 -0.0352389 -0.0315434 -0.0278711 -0.0241789 -0.0205685 -0.0171051 -0.0138403 -0.0108215 -0.00809917 -0.00571355 -0.00370414 -0.00210604 -0.000943568 -0.000237143 -2.57032e-27 0 -0.000187616 -0.000736326 -0.00164271 -0.00289449 -0.00447337 -0.00635548 -0.00851123 -0.0109065 -0.0135035 -0.0162579 -0.019127 -0.0220649 -0.0250199 -0.0279441 -0.0307912 -0.0335105 -0.0360566 -0.0383885 -0.0404678 -0.0422591 -0.0437267 -0.04485 -0.0456212 -0.0460427 -0.04611 -0.0458091 -0.0451536 -0.0441563 -0.0428272 -0.041195 -0.0392861 -0.0371255 -0.0347644 -0.0322291 -0.0295568 -0.0267864 -0.0239584 -0.0211581 -0.0183874 -0.0156448 -0.0130127 -0.0105316 -0.00823733 -0.00616709 -0.00435219 -0.00282276 -0.00160572 -0.000719831 -0.000181005 -1.96144e-27 0 -0.000126657 -0.000498275 -0.00111349 -0.00196499 -0.00304076 -0.0043248 -0.00579711 -0.00743433 -0.00921014 -0.0110934 -0.0130532 -0.0150594 -0.017076 -0.0190676 -0.0210016 -0.0228442 -0.024564 -0.0261321 -0.0275226 -0.0287123 -0.0296811 -0.0304168 -0.0309035 -0.0311402 -0.0311427 -0.0308976 -0.0304172 -0.0297111 -0.0287841 -0.0276571 -0.0263493 -0.0248769 -0.0232731 -0.0215612 -0.0197619 -0.0179029 -0.0160086 -0.0141164 -0.0122964 -0.0104717 -0.0087131 -0.00705554 -0.00552201 -0.00413662 -0.00292171 -0.00189671 -0.00107993 -0.000484699 -0.000122006 -1.32173e-27 0 -6.401e-05 -0.000253352 -0.000568277 -0.00100627 -0.00156198 -0.0022279 -0.00299363 -0.00384682 -0.00477326 -0.00575604 -0.00677707 -0.00782004 -0.00886644 -0.00989559 -0.0108884 -0.011827 -0.0126947 -0.0134755 -0.0141558 -0.0147237 -0.0151708 -0.0154961 -0.0156983 -0.0157549 -0.0156784 -0.0154883 -0.0151918 -0.0147876 -0.0142784 -0.0136749 -0.0129889 -0.0122285 -0.0114088 -0.0105472 -0.00964993 -0.00873019 -0.00780016 -0.00687066 -0.00599322 -0.00512771 -0.00427251 -0.00346585 -0.00271831 -0.00204072 -0.00144516 -0.000940555 -0.000536959 -0.000241877 -6.10753e-05 -6.61282e-28 0 -1.1347e-06 -5.93275e-06 -1.64282e-05 -3.44065e-05 -6.15686e-05 -9.87121e-05 -0.00014544 -0.000201173 -0.000263806 -0.000330775 -0.000397253 -0.00046131 -0.000521398 -0.000572375 -0.000608889 -0.000628497 -0.000630529 -0.000611233 -0.000569606 -0.00050548 -0.000420799 -0.000322384 -0.000220914 -0.00011042 4.6306e-05 0.000178047 0.000286031 0.000382147 0.000464822 0.000535548 0.000591018 0.000628529 0.000648575 0.000646509 0.000626593 0.000590495 0.000540888 0.000482755 0.000403786 0.000306599 0.000241393 0.000182439 0.000130716 8.86418e-05 5.49986e-05 3.09232e-05 1.46815e-05 4.87567e-06 8.09716e-07 6.79596e-30 0 6.05941e-05 0.000240331 0.000534446 0.000936307 0.00143784 0.00203026 0.00270351 0.00344677 0.00424925 0.00509944 0.00598836 0.0069034 0.00783143 0.00876058 0.00968002 0.010579 0.0114433 0.0122623 0.0130247 0.0137183 0.0143303 0.0148466 0.0152563 0.0155504 0.0157486 0.0158218 0.0157498 0.0155424 0.0152012 0.0147395 0.0141662 0.0134845 0.012705 0.0118394 0.0109027 0.00991135 0.00888325 0.00783754 0.00678636 0.0057372 0.00475184 0.00382781 0.00297779 0.00221659 0.00155468 0.00100228 0.000566242 0.000251801 6.29233e-05 6.76466e-28 0 0.000121501 0.000483045 0.00107708 0.00189227 0.00291415 0.00412555 0.00550684 0.00703657 0.00869084 0.0104446 0.0122737 0.0141523 0.0160528 0.0179466 0.0198063 0.0216082 0.0233259 0.0249308 0.0264008 0.027712 0.0288412 0.0297671 0.030475 0.0309482 0.0311952 0.0312035 0.0309562 0.0304506 0.0296954 0.0287147 0.0275245 0.0261355 0.0245701 0.0228545 0.0210161 0.0190858 0.0170964 0.0150819 0.013071 0.0110774 0.00918728 0.00741314 0.00577844 0.00431005 0.00303034 0.00195823 0.00110921 0.000495098 0.000124294 1.33679e-27 0 0.000180481 0.000718103 0.00160259 0.00281813 0.00434399 0.00615497 0.00822215 0.010513 0.0129922 0.0156216 0.0183618 0.0211739 0.0240156 0.0268438 0.0296163 0.032292 0.0348322 0.0371982 0.0393519 0.0412597 0.0428893 0.0442123 0.045208 0.0458554 0.0461541 0.046097 0.0456748 0.0448764 0.0437224 0.0422424 0.0404532 0.0383773 0.0360504 0.0335116 0.0308007 0.0279622 0.0250431 0.0220922 0.0191535 0.0162452 0.0134785 0.0108821 0.00848847 0.00633595 0.00445835 0.00288344 0.00163491 0.000730819 0.000183839 1.97652e-27 0 0.00023659 0.000941799 0.00210273 0.00369931 0.00570485 0.00808661 0.0108066 0.0138221 0.0170862 0.0205485 0.0241571 0.0278579 0.0315951 0.0353124 0.0389533 0.0424623 0.045785 0.0488715 0.0516753 0.0541502 0.0562557 0.0579568 0.0592261 0.0600394 0.0603878 0.0602679 0.0596746 0.0585977 0.0570669 0.0551087 0.0527462 0.0500153 0.0469625 0.0436391 0.0400979 0.0363963 0.0325942 0.0287537 0.0249351 0.0211592 0.017558 0.0141802 0.0110652 0.00826238 0.0058164 0.0037636 0.00213518 0.000955127 0.000240573 2.58525e-27 0 0.000289068 0.00115062 0.0025696 0.00452193 0.00697535 0.00989007 0.0132197 0.0169118 0.0209088 0.0251489 0.0295683 0.0340983 0.0386717 0.0432187 0.0476684 0.0519547 0.0560105 0.0597725 0.063181 0.0661819 0.0687311 0.0707846 0.0723089 0.0732763 0.0736714 0.0734916 0.072737 0.0714019 0.0695171 0.067108 0.0642084 0.0608665 0.0571415 0.0530923 0.0487813 0.0442768 0.039651 0.0349796 0.0303369 0.0257416 0.0213615 0.0172554 0.0134681 0.010059 0.00708312 0.00458482 0.00260211 0.00116448 0.000293557 3.15327e-27 0 0.000337005 0.00134127 0.00299588 0.00527306 0.00813548 0.011537 0.0154234 0.0197335 0.0243999 0.0293502 0.0345089 0.0397961 0.0451334 0.0504385 0.055627 0.0606204 0.0653436 0.0697225 0.0736866 0.0771726 0.0801243 0.0824962 0.0842516 0.085358 0.0857931 0.0855575 0.0846574 0.0830855 0.0808727 0.0780505 0.0746635 0.0707711 0.0664396 0.0617284 0.0567144 0.0514763 0.0460983 0.0406687 0.0352704 0.0299172 0.0248293 0.0200594 0.0156593 0.0116977 0.00823858 0.005334 0.00302817 0.00135571 0.000341882 3.6716e-27 0 0.000379571 0.00151077 0.00337487 0.00594088 0.00916701 0.0130014 0.017383 0.0222427 0.0275045 0.0330865 0.0389026 0.0448632 0.0508786 0.0568572 0.0627033 0.0683259 0.0736397 0.0785632 0.0830195 0.0869359 0.0902477 0.0929041 0.0948636 0.0960921 0.096562 0.0962775 0.0952475 0.0934615 0.0909556 0.0877684 0.0839535 0.0795757 0.0746989 0.0693939 0.0637501 0.0578582 0.0518126 0.045712 0.0396437 0.033619 0.027907 0.0225484 0.0176046 0.0131526 0.00926461 0.0059994 0.00340671 0.00152571 0.000384865 4.13209e-27 0 0.000416141 0.00165649 0.00370061 0.0065149 0.0100537 0.0142603 0.0190678 0.0244002 0.030174 0.0362991 0.0426806 0.0492202 0.0558178 0.0623736 0.0687845 0.0749493 0.0807716 0.0861621 0.0910372 0.0953197 0.0989405 0.101842 0.103976 0.105309 0.10581 0.105483 0.104339 0.102368 0.0996113 0.0961125 0.0919303 0.0871288 0.0817769 0.0759645 0.0697838 0.0633331 0.0567156 0.0500399 0.0433907 0.03679 0.0305466 0.0246832 0.0192732 0.0144009 0.0101451 0.00657057 0.00373183 0.00167171 0.000421883 4.52751e-27 0 0.000446188 0.00177643 0.00396799 0.00698611 0.0107817 0.015294 0.0204513 0.026172 0.0323663 0.0389376 0.0457836 0.0527985 0.0598749 0.0669031 0.0737751 0.0803846 0.0866256 0.0924001 0.097619 0.102201 0.106072 0.109172 0.111449 0.112866 0.11339 0.113027 0.11179 0.109666 0.106703 0.102949 0.0984612 0.0933077 0.0875718 0.0813442 0.0747237 0.0678155 0.0607301 0.0535845 0.0464473 0.0393802 0.0327067 0.0264304 0.0206392 0.0154232 0.0108663 0.00703849 0.00399832 0.00179142 0.00045225 4.85158e-27 0 0.000469171 0.00186825 0.00417282 0.00734712 0.0113395 0.0160862 0.0215117 0.0275303 0.0340472 0.0409607 0.0481628 0.0555421 0.0629853 0.0703769 0.0776003 0.0845469 0.0911066 0.097176 0.102659 0.107469 0.111531 0.11478 0.117163 0.118643 0.119182 0.118791 0.11748 0.115239 0.112118 0.108165 0.103441 0.0980223 0.0919926 0.0854478 0.0784915 0.0712343 0.0637924 0.0562882 0.0487553 0.041353 0.0343528 0.0277626 0.021681 0.0162036 0.0114169 0.00739578 0.004202 0.00188295 0.000475482 5.09918e-27 0 0.000484768 0.0019305 0.0043119 0.00759229 0.0117184 0.0166245 0.0222325 0.0284538 0.0351904 0.0423367 0.0497812 0.0574082 0.0651006 0.0727387 0.0802023 0.0873753 0.0941477 0.100415 0.106075 0.111039 0.115229 0.118576 0.121029 0.122548 0.123094 0.122683 0.12132 0.118998 0.115767 0.111679 0.106797 0.101197 0.0949689 0.0882098 0.0810273 0.073535 0.0658543 0.0581021 0.0502734 0.0426799 0.0354598 0.0286589 0.0223818 0.0167291 0.0117881 0.00763683 0.00433969 0.00194483 0.000491206 5.26642e-27 0 0.000492735 0.00196222 0.00438306 0.0077178 0.0119125 0.0169005 0.0226025 0.0289281 0.0357779 0.0430441 0.0506134 0.0583677 0.0661878 0.0739519 0.0815375 0.088