<?xml version="1.0"?>
<VTKFile type="PolyData">
	<PolyData>
		<Piece NumberOfPoints="2601" NumberOfPolys="2500">
			<Points>
				<DataArray type="Float32" NumberOfComponents="3" format="ascii">
 0 0 0 0.02 0 0 0.04 0 0 0.06 0 0 0.08 0 0 0.1 0 0 0.12 0 0 0.14 0 0 0.16 0 0 0.18 0 0 0.2 0 0 0.22 0 0 0.24 0 0 0.26 0 0 0.28 0 0 0.3 0 0 0.32 0 0 0.34 0 0 0.36 0 0 0.38 0 0 0.4 0 0 0.42 0 0 0.44 0 0 0.46 0 0 0.48 0 0 0.5 0 0 0.52 0 0 0.54 0 0 0.56 0 0 0.58 0 0 0.6 0 0 0.62 0 0 0.64 0 0 0.66 0 0 0.68 0 0 0.7 0 0 0.72 0 0 0.74 0 0 0.76 0 0 0.78 0 0 0.8 0 0 0.82 0 0 0.84 0 0 0.86 0 0 0.88 0 0 0.9 0 0 0.92 0 0 0.94 0 0 0.96 0 0 0.98 0 0 1 0 0 0 0.02 0 0.02 0.02 0 0.04 0.02 0 0.06 0.02 0 0.08 0.02 0 0.1 0.02 0 0.12 0.02 0 0.14 0.02 0 0.16 0.02 0 0.18 0.02 0 0.2 0.02 0 0.22 0.02 0 0.24 0.02 0 0.26 0.02 0 0.28 0.02 0 0.3 0.02 0 0.32 0.02 0 0.34 0.02 0 0.36 0.02 0 0.38 0.02 0 0.4 0.02 0 0.42 0.02 0 0.44 0.02 0 0.46 0.02 0 0.48 0.02 0 0.5 0.02 0 0.52 0.02 0 0.54 0.02 0 0.56 0.02 0 0.58 0.02 0 0.6 0.02 0 0.62 0.02 0 0.64 0.02 0 0.66 0.02 0 0.68 0.02 0 0.7 0.02 0 0.72 0.02 0 0.74 0.02 0 0.76 0.02 0 0.78 0.02 0 0.8 0.02 0 0.82 0.02 0 0.84 0.02 0 0.86 0.02 0 0.88 0.02 0 0.9 0.02 0 0.92 0.02 0 0.94 0.02 0 0.96 0.02 0 0.98 0.02 0 1 0.02 0 0 0.04 0 0.02 0.04 0 0.04 0.04 0 0.06 0.04 0 0.08 0.04 0 0.1 0.04 0 0.12 0.04 0 0.14 0.04 0 0.16 0.04 0 0.18 0.04 0 0.2 0.04 0 0.22 0.04 0 0.24 0.04 0 0.26 0.04 0 0.28 0.04 0 0.3 0.04 0 0.32 0.04 0 0.34 0.04 0 0.36 0.04 0 0.38 0.04 0 0.4 0.04 0 0.42 0.04 0 0.44 0.04 0 0.46 0.04 0 0.48 0.04 0 0.5 0.04 0 0.52 0.04 0 0.54 0.04 0 0.56 0.04 0 0.58 0.04 0 0.6 0.04 0 0.62 0.04 0 0.64 0.04 0 0.66 0.04 0 0.68 0.04 0 0.7 0.04 0 0.72 0.04 0 0.74 0.04 0 0.76 0.04 0 0.78 0.04 0 0.8 0.04 0 0.82 0.04 0 0.84 0.04 0 0.86 0.04 0 0.88 0.04 0 0.9 0.04 0 0.92 0.04 0 0.94 0.04 0 0.96 0.04 0 0.98 0.04 0 1 0.04 0 0 0.06 0 0.02 0.06 0 0.04 0.06 0 0.06 0.06 0 0.08 0.06 0 0.1 0.06 0 0.12 0.06 0 0.14 0.06 0 0.16 0.06 0 0.18 0.06 0 0.2 0.06 0 0.22 0.06 0 0.24 0.06 0 0.26 0.06 0 0.28 0.06 0 0.3 0.06 0 0.32 0.06 0 0.34 0.06 0 0.36 0.06 0 0.38 0.06 0 0.4 0.06 0 0.42 0.06 0 0.44 0.06 0 0.46 0.06 0 0.48 0.06 0 0.5 0.06 0 0.52 0.06 0 0.54 0.06 0 0.56 0.06 0 0.58 0.06 0 0.6 0.06 0 0.62 0.06 0 0.64 0.06 0 0.66 0.06 0 0.68 0.06 0 0.7 0.06 0 0.72 0.06 0 0.74 0.06 0 0.76 0.06 0 0.78 0.06 0 0.8 0.06 0 0.82 0.06 0 0.84 0.06 0 0.86 0.06 0 0.88 0.06 0 0.9 0.06 0 0.92 0.06 0 0.94 0.06 0 0.96 0.06 0 0.98 0.06 0 1 0.06 0 0 0.08 0 0.02 0.08 0 0.04 0.08 0 0.06 0.08 0 0.08 0.08 0 0.1 0.08 0 0.12 0.08 0 0.14 0.08 0 0.16 0.08 0 0.18 0.08 0 0.2 0.08 0 0.22 0.08 0 0.24 0.08 0 0.26 0.08 0 0.28 0.08 0 0.3 0.08 0 0.32 0.08 0 0.34 0.08 0 0.36 0.08 0 0.38 0.08 0 0.4 0.08 0 0.42 0.08 0 0.44 0.08 0 0.46 0.08 0 0.48 0.08 0 0.5 0.08 0 0.52 0.08 0 0.54 0.08 0 0.56 0.08 0 0.58 0.08 0 0.6 0.08 0 0.62 0.08 0 0.64 0.08 0 0.66 0.08 0 0.68 0.08 0 0.7 0.08 0 0.72 0.08 0 0.74 0.08 0 0.76 0.08 0 0.78 0.08 0 0.8 0.08 0 0.82 0.08 0 0.84 0.08 0 0.86 0.08 0 0.88 0.08 0 0.9 0.08 0 0.92 0.08 0 0.94 0.08 0 0.96 0.08 0 0.98 0.08 0 1 0.08 0 0 0.1 0 0.02 0.1 0 0.04 0.1 0 0.06 0.1 0 0.08 0.1 0 0.1 0.1 0 0.12 0.1 0 0.14 0.1 0 0.16 0.1 0 0.18 0.1 0 0.2 0.1 0 0.22 0.1 0 0.24 0.1 0 0.26 0.1 0 0.28 0.1 0 0.3 0.1 0 0.32 0.1 0 0.34 0.1 0 0.36 0.1 0 0.38 0.1 0 0.4 0.1 0 0.42 0.1 0 0.44 0.1 0 0.46 0.1 0 0.48 0.1 0 0.5 0.1 0 0.52 0.1 0 0.54 0.1 0 0.56 0.1 0 0.58 0.1 0 0.6 0.1 0 0.62 0.1 0 0.64 0.1 0 0.66 0.1 0 0.68 0.1 0 0.7 0.1 0 0.72 0.1 0 0.74 0.1 0 0.76 0.1 0 0.78 0.1 0 0.8 0.1 0 0.82 0.1 0 0.84 0.1 0 0.86 0.1 0 0.88 0.1 0 0.9 0.1 0 0.92 0.1 0 0.94 0.1 0 0.96 0.1 0 0.98 0.1 0 1 0.1 0 0 0.12 0 0.02 0.12 0 0.04 0.12 0 0.06 0.12 0 0.08 0.12 0 0.1 0.12 0 0.12 0.12 0 0.14 0.12 0 0.16 0.12 0 0.18 0.12 0 0.2 0.12 0 0.22 0.12 0 0.24 0.12 0 0.26 0.12 0 0.28 0.12 0 0.3 0.12 0 0.32 0.12 0 0.34 0.12 0 0.36 0.12 0 0.38 0.12 0 0.4 0.12 0 0.42 0.12 0 0.44 0.12 0 0.46 0.12 0 0.48 0.12 0 0.5 0.12 0 0.52 0.12 0 0.54 0.12 0 0.56 0.12 0 0.58 0.12 0 0.6 0.12 0 0.62 0.12 0 0.64 0.12 0 0.66 0.12 0 0.68 0.12 0 0.7 0.12 0 0.72 0.12 0 0.74 0.12 0 0.76 0.12 0 0.78 0.12 0 0.8 0.12 0 0.82 0.12 0 0.84 0.12 0 0.86 0.12 0 0.88 0.12 0 0.9 0.12 0 0.92 0.12 0 0.94 0.12 0 0.96 0.12 0 0.98 0.12 0 1 0.12 0 0 0.14 0 0.02 0.14 0 0.04 0.14 0 0.06 0.14 0 0.08 0.14 0 0.1 0.14 0 0.12 0.14 0 0.14 0.14 0 0.16 0.14 0 0.18 0.14 0 0.2 0.14 0 0.22 0.14 0 0.24 0.14 0 0.26 0.14 0 0.28 0.14 0 0.3 0.14 0 0.32 0.14 0 0.34 0.14 0 0.36 0.14 0 0.38 0.14 0 0.4 0.14 0 0.42 0.14 0 0.44 0.14 0 0.46 0.14 0 0.48 0.14 0 0.5 0.14 0 0.52 0.14 0 0.54 0.14 0 0.56 0.14 0 0.58 0.14 0 0.6 0.14 0 0.62 0.14 0 0.64 0.14 0 0.66 0.14 0 0.68 0.14 0 0.7 0.14 0 0.72 0.14 0 0.74 0.14 0 0.76 0.14 0 0.78 0.14 0 0.8 0.14 0 0.82 0.14 0 0.84 0.14 0 0.86 0.14 0 0.88 0.14 0 0.9 0.14 0 0.92 0.14 0 0.94 0.14 0 0.96 0.14 0 0.98 0.14 0 1 0.14 0 0 0.16 0 0.02 0.16 0 0.04 0.16 0 0.06 0.16 0 0.08 0.16 0 0.1 0.16 0 0.12 0.16 0 0.14 0.16 0 0.16 0.16 0 0.18 0.16 0 0.2 0.16 0 0.22 0.16 0 0.24 0.16 0 0.26 0.16 0 0.28 0.16 0 0.3 0.16 0 0.32 0.16 0 0.34 0.16 0 0.36 0.16 0 0.38 0.16 0 0.4 0.16 0 0.42 0.16 0 0.44 0.16 0 0.46 0.16 0 0.48 0.16 0 0.5 0.16 0 0.52 0.16 0 0.54 0.16 0 0.56 0.16 0 0.58 0.16 0 0.6 0.16 0 0.62 0.16 0 0.64 0.16 0 0.66 0.16 0 0.68 0.16 0 0.7 0.16 0 0.72 0.16 0 0.74 0.16 0 0.76 0.16 0 0.78 0.16 0 0.8 0.16 0 0.82 0.16 0 0.84 0.16 0 0.86 0.16 0 0.88 0.16 0 0.9 0.16 0 0.92 0.16 0 0.94 0.16 0 0.96 0.16 0 0.98 0.16 0 1 0.16 0 0 0.18 0 0.02 0.18 0 0.04 0.18 0 0.06 0.18 0 0.08 0.18 0 0.1 0.18 0 0.12 0.18 0 0.14 0.18 0 0.16 0.18 0 0.18 0.18 0 0.2 0.18 0 0.22 0.18 0 0.24 0.18 0 0.26 0.18 0 0.28 0.18 0 0.3 0.18 0 0.32 0.18 0 0.34 0.18 0 0.36 0.18 0 0.38 0.18 0 0.4 0.18 0 0.42 0.18 0 0.44 0.18 0 0.46 0.18 0 0.48 0.18 0 0.5 0.18 0 0.52 0.18 0 0.54 0.18 0 0.56 0.18 0 0.58 0.18 0 0.6 0.18 0 0.62 0.18 0 0.64 0.18 0 0.66 0.18 0 0.68 0.18 0 0.7 0.18 0 0.72 0.18 0 0.74 0.18 0 0.76 0.18 0 0.78 0.18 0 0.8 0.18 0 0.82 0.18 0 0.84 0.18 0 0.86 0.18 0 0.88 0.18 0 0.9 0.18 0 0.92 0.18 0 0.94 0.18 0 0.96 0.18 0 0.98 0.18 0 1 0.18 0 0 0.2 0 0.02 0.2 0 0.04 0.2 0 0.06 0.2 0 0.08 0.2 0 0.1 0.2 0 0.12 0.2 0 0.14 0.2 0 0.16 0.2 0 0.18 0.2 0 0.2 0.2 0 0.22 0.2 0 0.24 0.2 0 0.26 0.2 0 0.28 0.2 0 0.3 0.2 0 0.32 0.2 0 0.34 0.2 0 0.36 0.2 0 0.38 0.2 0 0.4 0.2 0 0.42 0.2 0 0.44 0.2 0 0.46 0.2 0 0.48 0.2 0 0.5 0.2 0 0.52 0.2 0 0.54 0.2 0 0.56 0.2 0 0.58 0.2 0 0.6 0.2 0 0.62 0.2 0 0.64 0.2 0 0.66 0.2 0 0.68 0.2 0 0.7 0.2 0 0.72 0.2 0 0.74 0.2 0 0.76 0.2 0 0.78 0.2 0 0.8 0.2 0 0.82 0.2 0 0.84 0.2 0 0.86 0.2 0 0.88 0.2 0 0.9 0.2 0 0.92 0.2 0 0.94 0.2 0 0.96 0.2 0 0.98 0.2 0 1 0.2 0 0 0.22 0 0.02 0.22 0 0.04 0.22 0 0.06 0.22 0 0.08 0.22 0 0.1 0.22 0 0.12 0.22 0 0.14 0.22 0 0.16 0.22 0 0.18 0.22 0 0.2 0.22 0 0.22 0.22 0 0.24 0.22 0 0.26 0.22 0 0.28 0.22 0 0.3 0.22 0 0.32 0.22 0 0.34 0.22 0 0.36 0.22 0 0.38 0.22 0 0.4 0.22 0 0.42 0.22 0 0.44 0.22 0 0.46 0.22 0 0.48 0.22 0 0.5 0.22 0 0.52 0.22 0 0.54 0.22 0 0.56 0.22 0 0.58 0.22 0 0.6 0.22 0 0.62 0.22 0 0.64 0.22 0 0.66 0.22 0 0.68 0.22 0 0.7 0.22 0 0.72 0.22 0 0.74 0.22 0 0.76 0.22 0 0.78 0.22 0 0.8 0.22 0 0.82 0.22 0 0.84 0.22 0 0.86 0.22 0 0.88 0.22 0 0.9 0.22 0 0.92 0.22 0 0.94 0.22 0 0.96 0.22 0 0.98 0.22 0 1 0.22 0 0 0.24 0 0.02 0.24 0 0.04 0.24 0 0.06 0.24 0 0.08 0.24 0 0.1 0.24 0 0.12 0.24 0 0.14 0.24 0 0.16 0.24 0 0.18 0.24 0 0.2 0.24 0 0.22 0.24 0 0.24 0.24 0 0.26 0.24 0 0.28 0.24 0 0.3 0.24 0 0.32 0.24 0 0.34 0.24 0 0.36 0.24 0 0.38 0.24 0 0.4 0.24 0 0.42 0.24 0 0.44 0.24 0 0.46 0.24 0 0.48 0.24 0 0.5 0.24 0 0.52 0.24 0 0.54 0.24 0 0.56 0.24 0 0.58 0.24 0 0.6 0.24 0 0.62 0.24 0 0.64 0.24 0 0.66 0.24 0 0.68 0.24 0 0.7 0.24 0 0.72 0.24 0 0.74 0.24 0 0.76 0.24 0 0.78 0.24 0 0.8 0.24 0 0.82 0.24 0 0.84 0.24 0 0.86 0.24 0 0.88 0.24 0 0.9 0.24 0 0.92 0.24 0 0.94 0.24 0 0.96 0.24 0 0.98 0.24 0 1 0.24 0 0 0.26 0 0.02 0.26 0 0.04 0.26 0 0.06 0.26 0 0.08 0.26 0 0.1 0.26 0 0.12 0.26 0 0.14 0.26 0 0.16 0.26 0 0.18 0.26 0 0.2 0.26 0 0.22 0.26 0 0.24 0.26 0 0.26 0.26 0 0.28 0.26 0 0.3 0.26 0 0.32 0.26 0 0.34 0.26 0 0.36 0.26 0 0.38 0.26 0 0.4 0.26 0 0.42 0.26 0 0.44 0.26 0 0.46 0.26 0 0.48 0.26 0 0.5 0.26 0 0.52 0.26 0 0.54 0.26 0 0.56 0.26 0 0.58 0.26 0 0.6 0.26 0 0.62 0.26 0 0.64 0.26 0 0.66 0.26 0 0.68 0.26 0 0.7 0.26 0 0.72 0.26 0 0.74 0.26 0 0.76 0.26 0 0.78 0.26 0 0.8 0.26 0 0.82 0.26 0 0.84 0.26 0 0.86 0.26 0 0.88 0.26 0 0.9 0.26 0 0.92 0.26 0 0.94 0.26 0 0.96 0.26 0 0.98 0.26 0 1 0.26 0 0 0.28 0 0.02 0.28 0 0.04 0.28 0 0.06 0.28 0 0.08 0.28 0 0.1 0.28 0 0.12 0.28 0 0.14 0.28 0 0.16 0.28 0 0.18 0.28 0 0.2 0.28 0 0.22 0.28 0 0.24 0.28 0 0.26 0.28 0 0.28 0.28 0 0.3 0.28 0 0.32 0.28 0 0.34 0.28 0 0.36 0.28 0 0.38 0.28 0 0.4 0.28 0 0.42 0.28 0 0.44 0.28 0 0.46 0.28 0 0.48 0.28 0 0.5 0.28 0 0.52 0.28 0 0.54 0.28 0 0.56 0.28 0 0.58 0.28 0 0.6 0.28 0 0.62 0.28 0 0.64 0.28 0 0.66 0.28 0 0.68 0.28 0 0.7 0.28 0 0.72 0.28 0 0.74 0.28 0 0.76 0.28 0 0.78 0.28 0 0.8 0.28 0 0.82 0.28 0 0.84 0.28 0 0.86 0.28 0 0.88 0.28 0 0.9 0.28 0 0.92 0.28 0 0.94 0.28 0 0.96 0.28 0 0.98 0.28 0 1 0.28 0 0 0.3 0 0.02 0.3 0 0.04 0.3 0 0.06 0.3 0 0.08 0.3 0 0.1 0.3 0 0.12 0.3 0 0.14 0.3 0 0.16 0.3 0 0.18 0.3 0 0.2 0.3 0 0.22 0.3 0 0.24 0.3 0 0.26 0.3 0 0.28 0.3 0 0.3 0.3 0 0.32 0.3 0 0.34 0.3 0 0.36 0.3 0 0.38 0.3 0 0.4 0.3 0 0.42 0.3 0 0.44 0.3 0 0.46 0.3 0 0.48 0.3 0 0.5 0.3 0 0.52 0.3 0 0.54 0.3 0 0.56 0.3 0 0.58 0.3 0 0.6 0.3 0 0.62 0.3 0 0.64 0.3 0 0.66 0.3 0 0.68 0.3 0 0.7 0.3 0 0.72 0.3 0 0.74 0.3 0 0.76 0.3 0 0.78 0.3 0 0.8 0.3 0 0.82 0.3 0 0.84 0.3 0 0.86 0.3 0 0.88 0.3 0 0.9 0.3 0 0.92 0.3 0 0.94 0.3 0 0.96 0.3 0 0.98 0.3 0 1 0.3 0 0 0.32 0 0.02 0.32 0 0.04 0.32 0 0.06 0.32 0 0.08 0.32 0 0.1 0.32 0 0.12 0.32 0 0.14 0.32 0 0.16 0.32 0 0.18 0.32 0 0.2 0.32 0 0.22 0.32 0 0.24 0.32 0 0.26 0.32 0 0.28 0.32 0 0.3 0.32 0 0.32 0.32 0 0.34 0.32 0 0.36 0.32 0 0.38 0.32 0 0.4 0.32 0 0.42 0.32 0 0.44 0.32 0 0.46 0.32 0 0.48 0.32 0 0.5 0.32 0 0.52 0.32 0 0.54 0.32 0 0.56 0.32 0 0.58 0.32 0 0.6 0.32 0 0.62 0.32 0 0.64 0.32 0 0.66 0.32 0 0.68 0.32 0 0.7 0.32 0 0.72 0.32 0 0.74 0.32 0 0.76 0.32 0 0.78 0.32 0 0.8 0.32 0 0.82 0.32 0 0.84 0.32 0 0.86 0.32 0 0.88 0.32 0 0.9 0.32 0 0.92 0.32 0 0.94 0.
[...]
			<PointData Scalars="VitesseX">
				<DataArray Name="VitesseX" type="Float32" format="ascii">
 0 0 0 0 0 0 0 0 0 0 0 0 0 0 0 0 0 0 0 0 0 0 0 0 0 0 0 0 0 0 0 0 0 0 0 0 0 0 0 0 0 0 0 0 0 0 0 0 0 0 0 0 0.00021976 0.000877733 0.00195812 0.00341312 0.00535474 0.00758207 0.0101497 0.0129723 0.016011 0.0192199 0.0225467 0.0259369 0.0293357 0.0326861 0.0359323 0.0390194 0.0418943 0.0445059 0.0468059 0.0487474 0.0502887 0.0513893 0.0520015 0.0520574 0.0519704 0.0513802 0.0507547 0.0497597 0.0483828 0.0466491 0.0445858 0.0422269 0.0396094 0.0367732 0.033763 0.0306268 0.0274149 0.0241782 0.0209677 0.0178341 0.0148265 0.0119926 0.00937768 0.00702406 0.0049699 0.00324463 0.00185821 0.000854414 0.000241601 2.20622e-27 0 0.000417113 0.00166457 0.0036999 0.00651618 0.0101399 0.0143843 0.0192259 0.0245877 0.0303825 0.0365167 0.0428913 0.049404 0.0559516 0.0624275 0.0687261 0.0747455 0.0803869 0.0855571 0.0901691 0.0941432 0.0974083 0.0999017 0.101572 0.102376 0.102597 0.101955 0.100745 0.098782 0.0960629 0.0926327 0.0885486 0.0838755 0.0786848 0.073058 0.0670837 0.0608564 0.0544765 0.0480468 0.041669 0.0354438 0.0294688 0.023839 0.0186441 0.0139679 0.00988507 0.00645516 0.00372328 0.00172019 0.000481653 4.37765e-27 0 0.000608077 0.00242593 0.00540408 0.00955777 0.0147585 0.0209355 0.0279908 0.0358099 0.044267 0.0532264 0.0625451 0.0720746 0.0816665 0.0911662 0.10042 0.109282 0.117609 0.125268 0.132135 0.138097 0.143055 0.146927 0.149649 0.151171 0.15165 0.150929 0.149177 0.146285 0.142273 0.137209 0.131176 0.124267 0.116587 0.108258 0.0994115 0.0901885 0.0807368 0.0712091 0.061758 0.0525331 0.0436787 0.0353356 0.0276368 0.0207059 0.0146531 0.00956786 0.00551837 0.00255808 0.000718962 6.48003e-27 0 0.000789757 0.00314936 0.00703973 0.0124015 0.0191445 0.0271597 0.0363172 0.0464695 0.0574541 0.069096 0.0812103 0.0936053 0.10609 0.118466 0.130533 0.142103 0.152992 0.163028 0.172053 0.179921 0.186506 0.191705 0.195433 0.197624 0.198334 0.197531 0.195285 0.191518 0.186283 0.179672 0.171792 0.162759 0.152711 0.14181 0.13023 0.118154 0.105775 0.0932935 0.0809115 0.0688257 0.057225 0.0462939 0.0362069 0.0271252 0.0191932 0.0125293 0.00722381 0.0033469 0.000949466 8.48021e-27 0 0.000959407 0.00382415 0.00854526 0.0150511 0.0232343 0.0329624 0.0440785 0.0564043 0.0697432 0.0838836 0.0986022 0.113667 0.12885 0.143908 0.1586 0.1727 0.185985 0.198247 0.209293 0.218948 0.227061 0.233502 0.238168 0.240978 0.241906 0.241024 0.238334 0.233761 0.227395 0.219352 0.209753 0.198737 0.186481 0.173179 0.159045 0.144304 0.12919 0.113945 0.0988214 0.084059 0.0698885 0.056536 0.0442144 0.0331204 0.0234304 0.0152902 0.00881124 0.00407864 0.00115499 1.03466e-26 0 0.00111418 0.00443749 0.00991871 0.0174687 0.0269651 0.0382544 0.051155 0.0654606 0.0809437 0.0973597 0.11445 0.131949 0.149589 0.167093 0.184182 0.200591 0.216064 0.230361 0.243258 0.25455 0.264061 0.27164 0.277164 0.280538 0.281672 0.280722 0.277641 0.272344 0.264961 0.255619 0.244453 0.23163 0.217359 0.201866 0.1854 0.168223 0.150607 0.132835 0.115201 0.0979886 0.0814659 0.065897 0.0515302 0.0385949 0.0272964 0.0178063 0.010255 0.00474167 0.00133832 1.20498e-26 0 0.00125151 0.00498443 0.0111395 0.0196165 0.030278 0.0429519 0.0574344 0.0734944 0.0908773 0.109309 0.128502 0.148156 0.167977 0.187651 0.206865 0.225326 0.242746 0.258856 0.273401 0.286148 0.296915 0.305515 0.311797 0.315673 0.317001 0.315998 0.312582 0.306659 0.298385 0.287887 0.275327 0.260901 0.244839 0.227399 0.208857 0.18951 0.169671 0.149653 0.129787 0.110392 0.0917729 0.0742278 0.0580378 0.0434613 0.0307297 0.0200375 0.0115326 0.00532585 0.00149765 1.35629e-26 0 0.00136975 0.00545447 0.0121877 0.0214595 0.0331191 0.0469781 0.0628142 0.0803748 0.0993822 0.119538 0.140529 0.162028 0.183714 0.205246 0.226283 0.246506 0.265595 0.283272 0.299233 0.31322 0.325046 0.33452 0.341482 0.345816 0.347342 0.346301 0.34261 0.336161 0.327131 0.315656 0.301916 0.286125 0.268531 0.249415 0.22908 0.207854 0.186085 0.164125 0.142336 0.121064 0.100642 0.0813953 0.0636342 0.0476432 0.0336767 0.0219493 0.0126243 0.00582254 0.00163098 1.48619e-26 0 0.00146684 0.00583956 0.0130457 0.0229668 0.035441 0.0502666 0.0672056 0.0859884 0.106319 0.127879 0.150333 0.173335 0.196542 0.219591 0.242118 0.263785 0.284237 0.303171 0.320289 0.335322 0.348045 0.358254 0.365783 0.370505 0.372209 0.371149 0.367246 0.360373 0.350729 0.338459 0.323753 0.30684 0.287989 0.267502 0.245707 0.222955 0.199617 0.176057 0.152665 0.129836 0.10793 0.0872845 0.0682304 0.0510747 0.0360913 0.0235123 0.0135138 0.00622466 0.00173674 1.59266e-26 0 0.00154097 0.00613318 0.0136991 0.0241133 0.0372052 0.0527627 0.0705361 0.0902428 0.111573 0.134193 0.157754 0.181893 0.20625 0.230449 0.25411 0.276867 0.298358 0.318262 0.336274 0.352115 0.365543 0.376336 0.384315 0.389347 0.391209 0.390151 0.386103 0.37892 0.368818 0.355949 0.340512 0.322746 0.302936 0.2814 0.258482 0.234553 0.210005 0.185219 0.160613 0.136593 0.113533 0.0918048 0.0717544 0.0537023 0.0379363 0.0247027 0.0141879 0.00652659 0.00181379 1.67402e-26 0 0.00159089 0.00633041 0.014137 0.0248799 0.0383824 0.0544252 0.0727507 0.0930679 0.115058 0.138379 0.16267 0.187559 0.212679 0.237643 0.262062 0.285548 0.307738 0.328302 0.346933 0.363337 0.377256 0.388462 0.396769 0.402037 0.404038 0.403008 0.39889 0.391517 0.381119 0.36786 0.351944 0.333618 0.31317 0.290925 0.267241 0.242503 0.217116 0.191481 0.166036 0.141198 0.117357 0.0948924 0.074154 0.0554863 0.039184 0.0255028 0.0146369 0.00672427 0.00186138 1.729e-26 0 0.00161535 0.00642539 0.0143445 0.025238 0.0389252 0.0551831 0.0737503 0.0943325 0.116608 0.140232 0.164841 0.190061 0.215524 0.240854 0.265634 0.289473 0.312017 0.332934 0.351908 0.368638 0.382854 0.394327 0.402867 0.40833 0.410489 0.409522 0.405415 0.397977 0.387446 0.374003 0.357858 0.33926 0.318502 0.295909 0.271841 0.246687 0.220862 0.194777 0.168874 0.143588 0.119328 0.096484 0.0754014 0.0564032 0.0398172 0.0259016 0.0148548 0.0068152 0.00187915 1.75674e-26 0 0.00161494 0.00642275 0.0143365 0.0252204 0.0388931 0.0551312 0.0736736 0.0942265 0.116469 0.140058 0.164633 0.189819 0.215269 0.240592 0.265351 0.289173 0.311718 0.332652 0.351649 0.368407 0.382656 0.394168 0.402753 0.408262 0.410474 0.409568 0.405533 0.398142 0.387632 0.374205 0.358067 0.339471 0.318708 0.296105 0.272022 0.246851 0.221003 0.194895 0.168965 0.143646 0.119346 0.0964743 0.0753888 0.0563993 0.0398015 0.0258794 0.0148318 0.00679608 0.00186669 1.75681e-26 0 0.00158889 0.00631766 0.0140986 0.0247966 0.038232 0.0541845 0.0723973 0.092582 0.114424 0.137589 0.161721 0.186458 0.211479 0.236363 0.260681 0.2841 0.30629 0.326912 0.345637 0.362169 0.376244 0.387643 0.396179 0.401694 0.403979 0.403236 0.399469 0.392367 0.382156 0.36904 0.353219 0.33494 0.314497 0.292212 0.26845 0.243606 0.218086 0.192306 0.1667 0.141699 0.117699 0.0951031 0.0742883 0.0555652 0.0392008 0.0254738 0.0145863 0.00667351 0.0018255 1.72922e-26 0 0.00153775 0.00611274 0.0136378 0.0239803 0.0369653 0.0523788 0.0699724 0.0894675 0.110561 0.132931 0.156235 0.180142 0.204318 0.228351 0.251845 0.2745 0.295989 0.315968 0.334122 0.350165 0.363859 0.374982 0.383339 0.388777 0.391111 0.390516 0.387043 0.380315 0.370535 0.357911 0.342636 0.324956 0.305158 0.28356 0.260515 0.236404 0.211627 0.186594 0.161729 0.137453 0.114156 0.0922148 0.0719998 0.0538362 0.0379847 0.0246659 0.0141104 0.00644567 0.00175576 1.67442e-26 0 0.00146232 0.0058112 0.0129613 0.0227842 0.0351122 0.0497412 0.0664347 0.0849287 0.104937 0.126153 0.148254 0.170957 0.193893 0.216682 0.238989 0.260526 0.280968 0.299983 0.317277 0.332596 0.345705 0.35638 0.364434 0.369715 0.372074 0.371649 0.368554 0.362347 0.353184 0.341263 0.326776 0.309966 0.291118 0.270538 0.248565 0.225563 0.201918 0.178011 0.154261 0.131078 0.10884 0.0879005 0.0686015 0.0512731 0.036167 0.0234728 0.0134144 0.00611749 0.00165896 1.59326e-26 0 0.0013638 0.00541778 0.0120794 0.0212265 0.0327007 0.0463109 0.0618365 0.0790325 0.0976334 0.117356 0.137902 0.159023 0.180356 0.201546 0.222319 0.242397 0.261462 0.279212 0.295383 0.309747 0.322066 0.33213 0.33976 0.344809 0.347171 0.346931 0.344281 0.338719 0.330349 0.31935 0.305894 0.290218 0.272604 0.253353 0.232786 0.211245 0.189091 0.166689 0.144421 0.122678 0.101834 0.0822242 0.0641475 0.0479138 0.0337721 0.0219118 0.0125097 0.00569454 0.00153685 1.48702e-26 0 0.00124378 0.00493878 0.0110064 0.0193323 0.0297698 0.0421438 0.0562524 0.0718741 0.088769 0.106681 0.125344 0.144534 0.16392 0.183188 0.202097 0.220395 0.237781 0.253992 0.268799 0.281978 0.293313 0.302611 0.309705 0.314456 0.316807 0.316749 0.314497 0.309495 0.301954 0.292077 0.28001 0.265883 0.24987 0.232269 0.213425 0.193674 0.173352 0.152796 0.132361 0.112398 0.0932574 0.0752706 0.0587011 0.0438185 0.0308645 0.0200197 0.0114131 0.00518453 0.00139179 1.35739e-26 0 0.0011041 0.0043819 0.00975983 0.0171332 0.0263691 0.0373085 0.0497726 0.0635679 0.0784841 0.0942975 0.110783 0.12773 0.144855 0.161897 0.178643 0.194869 0.210307 0.224724 0.237934 0.249723 0.2599 0.268291 0.274747 0.279146 0.281474 0.281535 0.279478 0.274936 0.268218 0.259521 0.249012 0.236796 0.222947 0.207509 0.190764 0.173123 0.154944 0.136548 0.118256 0.100394 0.0832533 0.067155 0.0523485 0.0390537 0.0274891 0.0178157 0.0101418 0.00459612 0.00122644 1.20639e-26 0 0.000946886 0.00375521 0.00835803 0.0146625 0.0225509 0.0318836 0.0425051 0.0542483 0.0669432 0.0804017 0.0944436 0.108876 0.123467 0.13801 0.152322 0.16621 0.179457 0.19186 0.203261 0.213477 0.222343 0.229704 0.235439 0.239472 0.241749 0.241891 0.240184 0.236413 0.230758 0.223358 0.214314 0.203796 0.19206 0.179182 0.165042 0.149885 0.134151 0.118197 0.102327 0.0868296 0.0719694 0.0580061 0.0451858 0.033685 0.0236878 0.0153321 0.00871631 0.003939 0.00104372 1.0364e-26 0 0.000774689 0.00306849 0.00682159 0.0119533 0.0183634 0.0259369 0.0345481 0.0440612 0.0543324 0.0652172 0.0765817 0.0882658 0.100092 0.111901 0.123543 0.13486 0.14569 0.155881 0.16529 0.173771 0.181189 0.187416 0.192385 0.196062 0.198211 0.198578 0.197346 0.194474 0.190001 0.184054 0.176688 0.168028 0.158302 0.14779 0.136504 0.124252 0.111282 0.0980294 0.0848242 0.0719292 0.059573 0.0479637 0.037326 0.0277983 0.0195238 0.0126162 0.00716038 0.00322425 0.000846989 8.50065e-27 0 0.000590367 0.00233377 0.00517675 0.00905033 0.0138743 0.0195603 0.0260174 0.0331474 0.0408415 0.0489879 0.0574874 0.066231 0.0751003 0.0839825 0.0927531 0.101291 0.109499 0.11728 0.124518 0.131102 0.13693 0.141915 0.146124 0.149511 0.151579 0.152178 0.151483 0.149552 0.146337 0.141961 0.136457 0.129894 0.122417 0.114268 0.105675 0.0965433 0.0866561 0.0763527 0.0660179 0.0559218 0.0462543 0.0371891 0.028894 0.0214869 0.0150642 0.00971443 0.005499 0.00246444 0.000640235 6.50323e-27 0 0.000396745 0.00156196 0.0034491 0.00600281 0.00916423 0.0128728 0.0170672 0.0216856 0.0266729 0.0319581 0.0374621 0.0431253 0.048889 0.0546942 0.0604525 0.0660778 0.0715374 0.0767857 0.081736 0.0863132 0.0904532 0.0941088 0.0973939 0.100468 0.102529 0.103383 0.103258 0.102287 0.100389 0.0976697 0.0941409 0.0898306 0.0848194 0.07925 0.0733093 0.0672013 0.0606333 0.0534917 0.0462002 0.0390559 0.032225 0.0258427 0.0200183 0.0148453 0.0103759 0.00667027 0.00375963 0.00167333 0.000427955 4.40324e-27 0 0.000196619 0.000763571 0.00166195 0.00285306 0.00430098 0.00597287 0.00783979 0.00987687 0.0120654 0.0143844 0.0167986 0.0192946 0.0218614 0.0244936 0.0271628 0.0298231 0.0324766 0.0351388 0.037762 0.0403032 0.0427284 0.0450149 0.0471829 0.0495099 0.0517826 0.052931 0.0534103 0.0534034 0.0528788 0.0518769 0.0503913 0.0484179 0.0459898 0.0431663 0.0400317 0.0368509 0.0336051 0.0297981 0.025678 0.0215946 0.0177041 0.0140941 0.0108371 0.0079777 0.00553267 0.00352921 0.00196905 0.000864497 0.000215278 2.23359e-27 0 -7.76142e-06 -5.03995e-05 -0.000156545 -0.000347608 -0.000637599 -0.00103207 -0.00152579 -0.00210712 -0.0027592 -0.00346118 -0.00418778 -0.00491029 -0.00559016 -0.0061749 -0.00663672 -0.00697953 -0.00717087 -0.0071419 -0.00687721 -0.0063888 -0.0056802 -0.00475443 -0.00361059 -0.00209058 9.12592e-05 0.00154975 0.00266022 0.00367752 0.00456458 0.00531401 0.00590254 0.00630368 0.00650573 0.00650188 0.00631171 0.00608488 0.00602449 0.00564906 0.00476875 0.00380929 0.00291741 0.00213452 0.00149402 0.00099119 0.000610302 0.000339521 0.000155366 5.0451e-05 7.52294e-06 1.58706e-29 0 -0.00022427 -0.000877431 -0.0019855 -0.00355399 -0.00557509 -0.00802729 -0.0108741 -0.0140699 -0.0175586 -0.0212671 -0.0251143 -0.0290454 -0.0329663 -0.0367594 -0.0403486 -0.0436822 -0.0466981 -0.0493006 -0.0513974 -0.0529582 -0.0539507 -0.0543559 -0.0541386 -0.0531811 -0.0515759 -0.0499327 -0.0481677 -0.0461205 -0.0438164 -0.0413234 -0.0386693 -0.0359023 -0.0330883 -0.0302696 -0.0274673 -0.0246447 -0.0216404 -0.0186235 -0.0162184 -0.0140391 -0.0119164 -0.00985571 -0.00787316 -0.00600954 -0.00432083 -0.00285481 -0.00165821 -0.00076069 -0.000196103 -2.19621e-27 0 -0.000453449 -0.00171306 -0.00380907 -0.00673291 -0.0104562 -0.0149312 -0.0200922 -0.0258568 -0.0321246 -0.0387827 -0.0456959 -0.0527673 -0.0598593 -0.0668066 -0.0734718 -0.0797425 -0.0855162 -0.0906845 -0.0951145 -0.0986968 -0.101373 -0.103085 -0.103783 -0.103481 -0.102273 -0.100552 -0.0981839 -0.0951243 -0.0914444 -0.0872413 -0.0825642 -0.0774821 -0.0720957 -0.0664889 -0.0607279 -0.0548625 -0.0488461 -0.0425821 -0.0368942 -0.0316205 -0.0265255 -0.0216596 -0.0170939 -0.0129004 -0.00917696 -0.00600042 -0.00344382 -0.00155899 -0.000396224 -4.36389e-27 0 -0.000685443 -0.00253791 -0.00559421 -0.00983215 -0.0152039 -0.021636 -0.0290318 -0.0372726 -0.0462209 -0.0557231 -0.0656061 -0.0757057 -0.0858526 -0.0958483 -0.105488 -0.114602 -0.123041 -0.130661 -0.137318 -0.142881 -0.147219 -0.150232 -0.151881 -0.152237 -0.15138 -0.14954 -0.146599 -0.142584 -0.137605 -0.131815 -0.12524 -0.117892 -0.11001 -0.101691 -0.0930404 -0.0841796 -0.0751657 -0.0658648 -0.0569593 -0.0486707 -0.0406901 -0.0331007 -0.0260304 -0.0195792 -0.0138845 -0.00904824 -0.00517235 -0.00233203 -0.00059003 -6.4627e-27 0 -0.00091292 -0.00333427 -0.00730769 -0.0127967 -0.019734 -0.0280226 -0.0375372 -0.0481274 -0.0596198 -0.0718214 -0.0845229 -0.0974988 -0.110545 -0.123426 -0.135889 -0.147714 -0.158698 -0.168652 -0.177408 -0.184814 -0.190722 -0.195037 -0.197679 -0.198645 -0.19815 -0.196145 -0.19267 -0.187796 -0.181636 -0.17427 -0.165769 -0.156297 -0.146062 -0.135189 -0.123826 -0.112138 -0.100245 -0.0880921 -0.0761344 -0.0649258 -0.0541844 -0.0439977 -0.0345427 -0.0259412 -0.0183682 -0.0119506 -0.00681728 -0.00306758 -0.00077453 -8.46124e-27 0 -0.00113056 -0.00408646 -0.008918 -0.0155745 -0.023971 -0.033989 -0.0454773 -0.0582551 -0.0721154 -0.086829 -0.102147 -0.117811 -0.133551 -0.149107 -0.1642 -0.178552 -0.191917 -0.204068 -0.214799 -0.223931 -0.231317 -0.236845 -0.240428 -0.241961 -0.24179 -0.239656 -0.235722 -0.230043 -0.222706 -0.213812 -0.20353 -0.192105 -0.179672 -0.166414 -0.152525 -0.138205 -0.123633 -0.108819 -0.0940642 -0.0801291 -0.0667923 -0.0541784 -0.0424966 -0.0318859 -0.0225568 -0.0146622 -0.0083538 -0.00375411 -0.000946779 -1.03277e-26 0 -0.00133358 -0.00478009 -0.0103961 -0.0181185 -0.0278461 -0.03944 -0.0527254 -0.0674942 -0.0835091 -0.100508 -0.118209 -0.136321 -0.15452 -0.172505 -0.189978 -0.20663 -0.222171 -0.236337 -0.24889 -0.259623 -0.268371 -0.275005 -0.279437 -0.281512 -0.281578 -0.279376 -0.275012 -0.268569 -0.260153 -0.249937 -0.238138 -0.224913 -0.210463 -0.195008 -0.17878 -0.16202 -0.144966 -0.127664 -0.110381 -0.0940054 -0.078312 -0.0634845 -0.049767 -0.03732 -0.026385 -0.0171401 -0.00975749 -0.00438103 -0.001104 -1.20321e-26 0 -0.00151776 -0.00540187 -0.0117165 -0.0203865 -0.0312955 -0.0442868 -0.0591644 -0.0756965 -0.0936191 -0.112641 -0.13245 -0.152723 -0.173113 -0.19326 -0.212836 -0.231517 -0.248982 -0.264939 -0.279118 -0.291288 -0.301263 -0.308897 -0.314086 -0.316649 -0.31692 -0.314661 -0.309911 -0.302812 -0.293508 -0.282173 -0.268993 -0.254167 -0.237927 -0.220523 -0.202217 -0.183283 -0.163986 -0.144382 -0.124871 -0.106339 -0.0885665 -0.0717742 -0.0562409 -0.042158 -0.0297929 -0.019345 -0.0110064 -0.00493864 -0.00124374 -1.35473e-26 0 -0.00167916 -0.00594122 -0.012857 -0.0223405 -0.0342622 -0.04845 -0.0646899 -0.0827298 -0.102283 -0.123034 -0.144645 -0.166766 -0.189021 -0.211028 -0.232416 -0.252837 -0.271948 -0.289436 -0.305015 -0.31843 -0.329469 -0.337972 -0.343825 -0.34682 -0.347276 -0.344974 -0.339922 -0.332299 -0.322247 -0.309943 -0.295578 -0.279382 -0.261608 -0.242529 -0.222436 -0.201632 -0.180393 -0.158752 -0.137353 -0.116974 -0.097404 -0.0789208 -0.0618177 -0.0463237 -0.0327261 -0.021242 -0.0120806 -0.00541812 -0.00136384 -1.48488e-26 0 -0.00181497 -0.00638864 -0.0137979 -0.0239475 -0.0366971 -0.0518613 -0.069212 -0.0884802 -0.109361 -0.131521 -0.154598 -0.178226 -0.202005 -0.225521 -0.248388 -0.270241 -0.290716 -0.309472 -0.3262 -0.340632 -0.352549 -0.36177 -0.368176 -0.371541 -0.372161 -0.36985 -0.364572 -0.35653 -0.345869 -0.332767 -0.317436 -0.300122 -0.281094 -0.260646 -0.239092 -0.216754 -0.193906 -0.170555 -0.14765 -0.125749 -0.10469 -0.0848137 -0.0664104 -0.0497517 -0.0351384 -0.0228012 -0.0129632 -0.00581187 -0.00146241 -1.59162e-26 0 -0.00192265 -0.00673626 -0.0145232 -0.0251806 -0.0385594 -0.0544645 -0.0726565 -0.0928542 -0.114739 -0.137963 -0.162149 -0.186917 -0.21185 -0.236514 -0.260499 -0.283435 -0.304956 -0.324692 -0.34231 -0.357534 -0.370133 -0.379913 -0.38675 -0.390417 -0.391179 -0.388884 -0.383451 -0.375104 -0.363985 -0.350284 -0.334224 -0.316061 -0.29608 -0.274587 -0.251913 -0.228392 -0.20427 -0.179618 -0.155614 -0.132524 -0.110312 -0.0893601 -0.0699471 -0.0523883 -0.0369914 -0.0239977 -0.0136401 -0.00611358 -0.00153787 -1.67329e-26 0 -0.00200014 -0.00697792 -0.0150202 -0.0260187 -0.0398179 -0.0562161 -0.0749665 -0.09578 -0.118329 -0.142256 -0.167175 -0.192698 -0.218396 -0.243824 -0.268557 -0.292217 -0.314434 -0.33483 -0.353062 -0.36884 -0.38192 -0.392099 -0.399253 -0.403152 -0.404031 -0.401774 -0.396264 -0.387737 -0.376337 -0.362256 -0.345722 -0.326997 -0.306374 -0.284172 -0.260731 -0.236378 -0.211294 -0.185818 -0.161118 -0.13719 -0.114181 -0.0924875 -0.0723722 -0.0541921 -0.038256 -0.0248124 -0.0141007 -0.00631849 -0.00158902 -1.72857e-26 0 -0.00204553 -0.00710838 -0.0152778 -0.0264419 -0.0404413 -0.0570706 -0.0760795 -0.0971753 -0.120028 -0.144274 -0.169526 -0.195392 -0.221444 -0.247228 -0.272318 -0.296333 -0.318903 -0.339641 -0.358199 -0.374285 -0.387644 -0.398074 -0.405448 -0.409528 -0.410512 -0.408327 -0.402826 -0.394251 -0.382749 -0.368508 -0.351759 -0.332765 -0.311825 -0.289264 -0.265423 -0.240595 -0.214875 -0.18909 -0.164061 -0.13967 -0.116223 -0.0941333 -0.0736438 -0.0551344 -0.0389121 -0.0252323 -0.0143378 -0.00642337 -0.00161504 -1.75656e-26 0 -0.00205708 -0.00712953 -0.015304 -0.0264702 -0.0404685 -0.0570932 -0.0760943 -0.0971797 -0.120019 -0.144251 -0.169488 -0.195338 -0.221375 -0.247146 -0.272222 -0.296236 -0.318808 -0.339549 -0.358114 -0.374209 -0.387578 -0.398032 -0.405428 -0.409519 -0.410519 -0.40841 -0.402979 -0.39447 -0.383025 -0.368833 -0.35212 -0.33315 -0.312223 -0.28966 -0.265774 -0.240767 -0.214882 -0.189304 -0.164281 -0.139838 -0.116344 -0.0942195 -0.0737063 -0.0551787 -0.0389364 -0.0252436 -0.0143445 -0.00642558 -0.00161539 -1.75681e-26 0 -0.00203091 -0.00703387 -0.0150788 -0.026062 -0.0398258 -0.0561677 -0.0748421 -0.0955623 -0.118005 -0.141814 -0.166612 -0.192014 -0.217603 -0.242937 -0.267592 -0.291217 -0.313434 -0.333854 -0.352146 -0.368017 -0.381219 -0.391575 -0.398919 -0.403017 -0.404073 -0.402168 -0.396984 -0.388749 -0.377605 -0.363732 -0.347352 -0.328726 -0.308144 -0.285906 -0.262239 -0.237267 -0.211836 -0.186799 -0.16209 -0.137955 -0.114773 -0.0929181 -0.0726747 -0.0543999 -0.0383758 -0.0248725 -0.0141333 -0.00632931 -0.0015907 -1.72934e-26 0 -0.00196319 -0.00682492 -0.0146133 -0.0252405 -0.0385536 -0.0543568 -0.0724126 -0.0924445 -0.11414 -0.137157 -0.16113 -0.185689 -0.210433 -0.234938 -0.258789 -0.281651 -0.303159 -0.322935 -0.34066 -0.356044 -0.368878 -0.37897 -0.386133 -0.390166 -0.39125 -0.3895 -0.38458 -0.37669 -0.365973 -0.