<?xml version="1.0"?>
<VTKFile type="PolyData">
	<PolyData>
		<Piece NumberOfPoints="2601" NumberOfPolys="2500">
			<Points>
				<DataArray type="Float32" NumberOfComponents="3" format="ascii">
 0 0 0 0.02 0 0 0.04 0 0 0.06 0 0 0.08 0 0 0.1 0 0 0.12 0 0 0.14 0 0 0.16 0 0 0.18 0 0 0.2 0 0 0.22 0 0 0.24 0 0 0.26 0 0 0.28 0 0 0.3 0 0 0.32 0 0 0.34 0 0 0.36 0 0 0.38 0 0 0.4 0 0 0.42 0 0 0.44 0 0 0.46 0 0 0.48 0 0 0.5 0 0 0.52 0 0 0.54 0 0 0.56 0 0 0.58 0 0 0.6 0 0 0.62 0 0 0.64 0 0 0.66 0 0 0.68 0 0 0.7 0 0 0.72 0 0 0.74 0 0 0.76 0 0 0.78 0 0 0.8 0 0 0.82 0 0 0.84 0 0 0.86 0 0 0.88 0 0 0.9 0 0 0.92 0 0 0.94 0 0 0.96 0 0 0.98 0 0 1 0 0 0 0.02 0 0.02 0.02 0 0.04 0.02 0 0.06 0.02 0 0.08 0.02 0 0.1 0.02 0 0.12 0.02 0 0.14 0.02 0 0.16 0.02 0 0.18 0.02 0 0.2 0.02 0 0.22 0.02 0 0.24 0.02 0 0.26 0.02 0 0.28 0.02 0 0.3 0.02 0 0.32 0.02 0 0.34 0.02 0 0.36 0.02 0 0.38 0.02 0 0.4 0.02 0 0.42 0.02 0 0.44 0.02 0 0.46 0.02 0 0.48 0.02 0 0.5 0.02 0 0.52 0.02 0 0.54 0.02 0 0.56 0.02 0 0.58 0.02 0 0.6 0.02 0 0.62 0.02 0 0.64 0.02 0 0.66 0.02 0 0.68 0.02 0 0.7 0.02 0 0.72 0.02 0 0.74 0.02 0 0.76 0.02 0 0.78 0.02 0 0.8 0.02 0 0.82 0.02 0 0.84 0.02 0 0.86 0.02 0 0.88 0.02 0 0.9 0.02 0 0.92 0.02 0 0.94 0.02 0 0.96 0.02 0 0.98 0.02 0 1 0.02 0 0 0.04 0 0.02 0.04 0 0.04 0.04 0 0.06 0.04 0 0.08 0.04 0 0.1 0.04 0 0.12 0.04 0 0.14 0.04 0 0.16 0.04 0 0.18 0.04 0 0.2 0.04 0 0.22 0.04 0 0.24 0.04 0 0.26 0.04 0 0.28 0.04 0 0.3 0.04 0 0.32 0.04 0 0.34 0.04 0 0.36 0.04 0 0.38 0.04 0 0.4 0.04 0 0.42 0.04 0 0.44 0.04 0 0.46 0.04 0 0.48 0.04 0 0.5 0.04 0 0.52 0.04 0 0.54 0.04 0 0.56 0.04 0 0.58 0.04 0 0.6 0.04 0 0.62 0.04 0 0.64 0.04 0 0.66 0.04 0 0.68 0.04 0 0.7 0.04 0 0.72 0.04 0 0.74 0.04 0 0.76 0.04 0 0.78 0.04 0 0.8 0.04 0 0.82 0.04 0 0.84 0.04 0 0.86 0.04 0 0.88 0.04 0 0.9 0.04 0 0.92 0.04 0 0.94 0.04 0 0.96 0.04 0 0.98 0.04 0 1 0.04 0 0 0.06 0 0.02 0.06 0 0.04 0.06 0 0.06 0.06 0 0.08 0.06 0 0.1 0.06 0 0.12 0.06 0 0.14 0.06 0 0.16 0.06 0 0.18 0.06 0 0.2 0.06 0 0.22 0.06 0 0.24 0.06 0 0.26 0.06 0 0.28 0.06 0 0.3 0.06 0 0.32 0.06 0 0.34 0.06 0 0.36 0.06 0 0.38 0.06 0 0.4 0.06 0 0.42 0.06 0 0.44 0.06 0 0.46 0.06 0 0.48 0.06 0 0.5 0.06 0 0.52 0.06 0 0.54 0.06 0 0.56 0.06 0 0.58 0.06 0 0.6 0.06 0 0.62 0.06 0 0.64 0.06 0 0.66 0.06 0 0.68 0.06 0 0.7 0.06 0 0.72 0.06 0 0.74 0.06 0 0.76 0.06 0 0.78 0.06 0 0.8 0.06 0 0.82 0.06 0 0.84 0.06 0 0.86 0.06 0 0.88 0.06 0 0.9 0.06 0 0.92 0.06 0 0.94 0.06 0 0.96 0.06 0 0.98 0.06 0 1 0.06 0 0 0.08 0 0.02 0.08 0 0.04 0.08 0 0.06 0.08 0 0.08 0.08 0 0.1 0.08 0 0.12 0.08 0 0.14 0.08 0 0.16 0.08 0 0.18 0.08 0 0.2 0.08 0 0.22 0.08 0 0.24 0.08 0 0.26 0.08 0 0.28 0.08 0 0.3 0.08 0 0.32 0.08 0 0.34 0.08 0 0.36 0.08 0 0.38 0.08 0 0.4 0.08 0 0.42 0.08 0 0.44 0.08 0 0.46 0.08 0 0.48 0.08 0 0.5 0.08 0 0.52 0.08 0 0.54 0.08 0 0.56 0.08 0 0.58 0.08 0 0.6 0.08 0 0.62 0.08 0 0.64 0.08 0 0.66 0.08 0 0.68 0.08 0 0.7 0.08 0 0.72 0.08 0 0.74 0.08 0 0.76 0.08 0 0.78 0.08 0 0.8 0.08 0 0.82 0.08 0 0.84 0.08 0 0.86 0.08 0 0.88 0.08 0 0.9 0.08 0 0.92 0.08 0 0.94 0.08 0 0.96 0.08 0 0.98 0.08 0 1 0.08 0 0 0.1 0 0.02 0.1 0 0.04 0.1 0 0.06 0.1 0 0.08 0.1 0 0.1 0.1 0 0.12 0.1 0 0.14 0.1 0 0.16 0.1 0 0.18 0.1 0 0.2 0.1 0 0.22 0.1 0 0.24 0.1 0 0.26 0.1 0 0.28 0.1 0 0.3 0.1 0 0.32 0.1 0 0.34 0.1 0 0.36 0.1 0 0.38 0.1 0 0.4 0.1 0 0.42 0.1 0 0.44 0.1 0 0.46 0.1 0 0.48 0.1 0 0.5 0.1 0 0.52 0.1 0 0.54 0.1 0 0.56 0.1 0 0.58 0.1 0 0.6 0.1 0 0.62 0.1 0 0.64 0.1 0 0.66 0.1 0 0.68 0.1 0 0.7 0.1 0 0.72 0.1 0 0.74 0.1 0 0.76 0.1 0 0.78 0.1 0 0.8 0.1 0 0.82 0.1 0 0.84 0.1 0 0.86 0.1 0 0.88 0.1 0 0.9 0.1 0 0.92 0.1 0 0.94 0.1 0 0.96 0.1 0 0.98 0.1 0 1 0.1 0 0 0.12 0 0.02 0.12 0 0.04 0.12 0 0.06 0.12 0 0.08 0.12 0 0.1 0.12 0 0.12 0.12 0 0.14 0.12 0 0.16 0.12 0 0.18 0.12 0 0.2 0.12 0 0.22 0.12 0 0.24 0.12 0 0.26 0.12 0 0.28 0.12 0 0.3 0.12 0 0.32 0.12 0 0.34 0.12 0 0.36 0.12 0 0.38 0.12 0 0.4 0.12 0 0.42 0.12 0 0.44 0.12 0 0.46 0.12 0 0.48 0.12 0 0.5 0.12 0 0.52 0.12 0 0.54 0.12 0 0.56 0.12 0 0.58 0.12 0 0.6 0.12 0 0.62 0.12 0 0.64 0.12 0 0.66 0.12 0 0.68 0.12 0 0.7 0.12 0 0.72 0.12 0 0.74 0.12 0 0.76 0.12 0 0.78 0.12 0 0.8 0.12 0 0.82 0.12 0 0.84 0.12 0 0.86 0.12 0 0.88 0.12 0 0.9 0.12 0 0.92 0.12 0 0.94 0.12 0 0.96 0.12 0 0.98 0.12 0 1 0.12 0 0 0.14 0 0.02 0.14 0 0.04 0.14 0 0.06 0.14 0 0.08 0.14 0 0.1 0.14 0 0.12 0.14 0 0.14 0.14 0 0.16 0.14 0 0.18 0.14 0 0.2 0.14 0 0.22 0.14 0 0.24 0.14 0 0.26 0.14 0 0.28 0.14 0 0.3 0.14 0 0.32 0.14 0 0.34 0.14 0 0.36 0.14 0 0.38 0.14 0 0.4 0.14 0 0.42 0.14 0 0.44 0.14 0 0.46 0.14 0 0.48 0.14 0 0.5 0.14 0 0.52 0.14 0 0.54 0.14 0 0.56 0.14 0 0.58 0.14 0 0.6 0.14 0 0.62 0.14 0 0.64 0.14 0 0.66 0.14 0 0.68 0.14 0 0.7 0.14 0 0.72 0.14 0 0.74 0.14 0 0.76 0.14 0 0.78 0.14 0 0.8 0.14 0 0.82 0.14 0 0.84 0.14 0 0.86 0.14 0 0.88 0.14 0 0.9 0.14 0 0.92 0.14 0 0.94 0.14 0 0.96 0.14 0 0.98 0.14 0 1 0.14 0 0 0.16 0 0.02 0.16 0 0.04 0.16 0 0.06 0.16 0 0.08 0.16 0 0.1 0.16 0 0.12 0.16 0 0.14 0.16 0 0.16 0.16 0 0.18 0.16 0 0.2 0.16 0 0.22 0.16 0 0.24 0.16 0 0.26 0.16 0 0.28 0.16 0 0.3 0.16 0 0.32 0.16 0 0.34 0.16 0 0.36 0.16 0 0.38 0.16 0 0.4 0.16 0 0.42 0.16 0 0.44 0.16 0 0.46 0.16 0 0.48 0.16 0 0.5 0.16 0 0.52 0.16 0 0.54 0.16 0 0.56 0.16 0 0.58 0.16 0 0.6 0.16 0 0.62 0.16 0 0.64 0.16 0 0.66 0.16 0 0.68 0.16 0 0.7 0.16 0 0.72 0.16 0 0.74 0.16 0 0.76 0.16 0 0.78 0.16 0 0.8 0.16 0 0.82 0.16 0 0.84 0.16 0 0.86 0.16 0 0.88 0.16 0 0.9 0.16 0 0.92 0.16 0 0.94 0.16 0 0.96 0.16 0 0.98 0.16 0 1 0.16 0 0 0.18 0 0.02 0.18 0 0.04 0.18 0 0.06 0.18 0 0.08 0.18 0 0.1 0.18 0 0.12 0.18 0 0.14 0.18 0 0.16 0.18 0 0.18 0.18 0 0.2 0.18 0 0.22 0.18 0 0.24 0.18 0 0.26 0.18 0 0.28 0.18 0 0.3 0.18 0 0.32 0.18 0 0.34 0.18 0 0.36 0.18 0 0.38 0.18 0 0.4 0.18 0 0.42 0.18 0 0.44 0.18 0 0.46 0.18 0 0.48 0.18 0 0.5 0.18 0 0.52 0.18 0 0.54 0.18 0 0.56 0.18 0 0.58 0.18 0 0.6 0.18 0 0.62 0.18 0 0.64 0.18 0 0.66 0.18 0 0.68 0.18 0 0.7 0.18 0 0.72 0.18 0 0.74 0.18 0 0.76 0.18 0 0.78 0.18 0 0.8 0.18 0 0.82 0.18 0 0.84 0.18 0 0.86 0.18 0 0.88 0.18 0 0.9 0.18 0 0.92 0.18 0 0.94 0.18 0 0.96 0.18 0 0.98 0.18 0 1 0.18 0 0 0.2 0 0.02 0.2 0 0.04 0.2 0 0.06 0.2 0 0.08 0.2 0 0.1 0.2 0 0.12 0.2 0 0.14 0.2 0 0.16 0.2 0 0.18 0.2 0 0.2 0.2 0 0.22 0.2 0 0.24 0.2 0 0.26 0.2 0 0.28 0.2 0 0.3 0.2 0 0.32 0.2 0 0.34 0.2 0 0.36 0.2 0 0.38 0.2 0 0.4 0.2 0 0.42 0.2 0 0.44 0.2 0 0.46 0.2 0 0.48 0.2 0 0.5 0.2 0 0.52 0.2 0 0.54 0.2 0 0.56 0.2 0 0.58 0.2 0 0.6 0.2 0 0.62 0.2 0 0.64 0.2 0 0.66 0.2 0 0.68 0.2 0 0.7 0.2 0 0.72 0.2 0 0.74 0.2 0 0.76 0.2 0 0.78 0.2 0 0.8 0.2 0 0.82 0.2 0 0.84 0.2 0 0.86 0.2 0 0.88 0.2 0 0.9 0.2 0 0.92 0.2 0 0.94 0.2 0 0.96 0.2 0 0.98 0.2 0 1 0.2 0 0 0.22 0 0.02 0.22 0 0.04 0.22 0 0.06 0.22 0 0.08 0.22 0 0.1 0.22 0 0.12 0.22 0 0.14 0.22 0 0.16 0.22 0 0.18 0.22 0 0.2 0.22 0 0.22 0.22 0 0.24 0.22 0 0.26 0.22 0 0.28 0.22 0 0.3 0.22 0 0.32 0.22 0 0.34 0.22 0 0.36 0.22 0 0.38 0.22 0 0.4 0.22 0 0.42 0.22 0 0.44 0.22 0 0.46 0.22 0 0.48 0.22 0 0.5 0.22 0 0.52 0.22 0 0.54 0.22 0 0.56 0.22 0 0.58 0.22 0 0.6 0.22 0 0.62 0.22 0 0.64 0.22 0 0.66 0.22 0 0.68 0.22 0 0.7 0.22 0 0.72 0.22 0 0.74 0.22 0 0.76 0.22 0 0.78 0.22 0 0.8 0.22 0 0.82 0.22 0 0.84 0.22 0 0.86 0.22 0 0.88 0.22 0 0.9 0.22 0 0.92 0.22 0 0.94 0.22 0 0.96 0.22 0 0.98 0.22 0 1 0.22 0 0 0.24 0 0.02 0.24 0 0.04 0.24 0 0.06 0.24 0 0.08 0.24 0 0.1 0.24 0 0.12 0.24 0 0.14 0.24 0 0.16 0.24 0 0.18 0.24 0 0.2 0.24 0 0.22 0.24 0 0.24 0.24 0 0.26 0.24 0 0.28 0.24 0 0.3 0.24 0 0.32 0.24 0 0.34 0.24 0 0.36 0.24 0 0.38 0.24 0 0.4 0.24 0 0.42 0.24 0 0.44 0.24 0 0.46 0.24 0 0.48 0.24 0 0.5 0.24 0 0.52 0.24 0 0.54 0.24 0 0.56 0.24 0 0.58 0.24 0 0.6 0.24 0 0.62 0.24 0 0.64 0.24 0 0.66 0.24 0 0.68 0.24 0 0.7 0.24 0 0.72 0.24 0 0.74 0.24 0 0.76 0.24 0 0.78 0.24 0 0.8 0.24 0 0.82 0.24 0 0.84 0.24 0 0.86 0.24 0 0.88 0.24 0 0.9 0.24 0 0.92 0.24 0 0.94 0.24 0 0.96 0.24 0 0.98 0.24 0 1 0.24 0 0 0.26 0 0.02 0.26 0 0.04 0.26 0 0.06 0.26 0 0.08 0.26 0 0.1 0.26 0 0.12 0.26 0 0.14 0.26 0 0.16 0.26 0 0.18 0.26 0 0.2 0.26 0 0.22 0.26 0 0.24 0.26 0 0.26 0.26 0 0.28 0.26 0 0.3 0.26 0 0.32 0.26 0 0.34 0.26 0 0.36 0.26 0 0.38 0.26 0 0.4 0.26 0 0.42 0.26 0 0.44 0.26 0 0.46 0.26 0 0.48 0.26 0 0.5 0.26 0 0.52 0.26 0 0.54 0.26 0 0.56 0.26 0 0.58 0.26 0 0.6 0.26 0 0.62 0.26 0 0.64 0.26 0 0.66 0.26 0 0.68 0.26 0 0.7 0.26 0 0.72 0.26 0 0.74 0.26 0 0.76 0.26 0 0.78 0.26 0 0.8 0.26 0 0.82 0.26 0 0.84 0.26 0 0.86 0.26 0 0.88 0.26 0 0.9 0.26 0 0.92 0.26 0 0.94 0.26 0 0.96 0.26 0 0.98 0.26 0 1 0.26 0 0 0.28 0 0.02 0.28 0 0.04 0.28 0 0.06 0.28 0 0.08 0.28 0 0.1 0.28 0 0.12 0.28 0 0.14 0.28 0 0.16 0.28 0 0.18 0.28 0 0.2 0.28 0 0.22 0.28 0 0.24 0.28 0 0.26 0.28 0 0.28 0.28 0 0.3 0.28 0 0.32 0.28 0 0.34 0.28 0 0.36 0.28 0 0.38 0.28 0 0.4 0.28 0 0.42 0.28 0 0.44 0.28 0 0.46 0.28 0 0.48 0.28 0 0.5 0.28 0 0.52 0.28 0 0.54 0.28 0 0.56 0.28 0 0.58 0.28 0 0.6 0.28 0 0.62 0.28 0 0.64 0.28 0 0.66 0.28 0 0.68 0.28 0 0.7 0.28 0 0.72 0.28 0 0.74 0.28 0 0.76 0.28 0 0.78 0.28 0 0.8 0.28 0 0.82 0.28 0 0.84 0.28 0 0.86 0.28 0 0.88 0.28 0 0.9 0.28 0 0.92 0.28 0 0.94 0.28 0 0.96 0.28 0 0.98 0.28 0 1 0.28 0 0 0.3 0 0.02 0.3 0 0.04 0.3 0 0.06 0.3 0 0.08 0.3 0 0.1 0.3 0 0.12 0.3 0 0.14 0.3 0 0.16 0.3 0 0.18 0.3 0 0.2 0.3 0 0.22 0.3 0 0.24 0.3 0 0.26 0.3 0 0.28 0.3 0 0.3 0.3 0 0.32 0.3 0 0.34 0.3 0 0.36 0.3 0 0.38 0.3 0 0.4 0.3 0 0.42 0.3 0 0.44 0.3 0 0.46 0.3 0 0.48 0.3 0 0.5 0.3 0 0.52 0.3 0 0.54 0.3 0 0.56 0.3 0 0.58 0.3 0 0.6 0.3 0 0.62 0.3 0 0.64 0.3 0 0.66 0.3 0 0.68 0.3 0 0.7 0.3 0 0.72 0.3 0 0.74 0.3 0 0.76 0.3 0 0.78 0.3 0 0.8 0.3 0 0.82 0.3 0 0.84 0.3 0 0.86 0.3 0 0.88 0.3 0 0.9 0.3 0 0.92 0.3 0 0.94 0.3 0 0.96 0.3 0 0.98 0.3 0 1 0.3 0 0 0.32 0 0.02 0.32 0 0.04 0.32 0 0.06 0.32 0 0.08 0.32 0 0.1 0.32 0 0.12 0.32 0 0.14 0.32 0 0.16 0.32 0 0.18 0.32 0 0.2 0.32 0 0.22 0.32 0 0.24 0.32 0 0.26 0.32 0 0.28 0.32 0 0.3 0.32 0 0.32 0.32 0 0.34 0.32 0 0.36 0.32 0 0.38 0.32 0 0.4 0.32 0 0.42 0.32 0 0.44 0.32 0 0.46 0.32 0 0.48 0.32 0 0.5 0.32 0 0.52 0.32 0 0.54 0.32 0 0.56 0.32 0 0.58 0.32 0 0.6 0.32 0 0.62 0.32 0 0.64 0.32 0 0.66 0.32 0 0.68 0.32 0 0.7 0.32 0 0.72 0.32 0 0.74 0.32 0 0.76 0.32 0 0.78 0.32 0 0.8 0.32 0 0.82 0.32 0 0.84 0.32 0 0.86 0.32 0 0.88 0.32 0 0.9 0.32 0 0.92 0.32 0 0.94 0.
[...]
			<PointData Scalars="VitesseX">
				<DataArray Name="VitesseX" type="Float32" format="ascii">
 0 0 0 0 0 0 0 0 0 0 0 0 0 0 0 0 0 0 0 0 0 0 0 0 0 0 0 0 0 0 0 0 0 0 0 0 0 0 0 0 0 0 0 0 0 0 0 0 0 0 0 0 0.00028276 0.00112637 0.00251814 0.00444933 0.00686738 0.00976114 0.0130433 0.0166638 0.0205696 0.0246979 0.028982 0.0333529 0.0377411 0.0420744 0.0462817 0.0502937 0.0540433 0.0574647 0.0604958 0.0630861 0.0651888 0.0667289 0.0676405 0.0678623 0.0679319 0.0669253 0.0660821 0.0647865 0.0629946 0.0607379 0.0580516 0.054981 0.0515736 0.0478817 0.0439635 0.039881 0.0356993 0.0314844 0.0273048 0.0232256 0.0193104 0.0156211 0.0122165 0.00915084 0.00647238 0.00422055 0.00242407 0.00111115 0.000305142 2.87269e-27 0 0.000540306 0.00215015 0.00482188 0.00850658 0.0131338 0.0186267 0.0248962 0.0318406 0.0393479 0.0472976 0.0555627 0.0640111 0.0725107 0.0809235 0.0891135 0.0969495 0.104305 0.111059 0.117099 0.122325 0.126648 0.129986 0.132255 0.133372 0.133734 0.132797 0.131186 0.128632 0.125094 0.120631 0.115316 0.109237 0.102483 0.0951593 0.0873825 0.0792772 0.0709702 0.0625924 0.0542849 0.0461778 0.0383966 0.0310643 0.0242972 0.0182029 0.0128766 0.00839796 0.00483095 0.0022254 0.000618197 5.70007e-27 0 0.000789352 0.00314264 0.00704753 0.0124144 0.0191631 0.0271826 0.0363425 0.0464948 0.0574768 0.0691133 0.0812193 0.093603 0.106073 0.11843 0.130473 0.142013 0.152867 0.162861 0.171835 0.179641 0.186154 0.191261 0.194868 0.196885 0.197538 0.196572 0.194282 0.190524 0.185304 0.178712 0.170858 0.161874 0.151887 0.141046 0.12953 0.117523 0.105214 0.0927991 0.080483 0.0684644 0.056929 0.0460589 0.0360264 0.0269903 0.019092 0.0124504 0.00716131 0.00329953 0.000918257 8.43755e-27 0 0.00102617 0.00409026 0.00915358 0.016123 0.0248878 0.0353054 0.047207 0.0604013 0.0746778 0.0898097 0.105558 0.121675 0.137914 0.154016 0.169723 0.184789 0.198978 0.212065 0.223843 0.234125 0.242745 0.249562 0.25446 0.25734 0.258285 0.257256 0.254355 0.249478 0.242679 0.234072 0.223806 0.212061 0.198998 0.18481 0.169732 0.154004 0.137882 0.121619 0.105476 0.0897237 0.0746048 0.0603579 0.0472087 0.0353652 0.0250126 0.0163076 0.00937663 0.00431748 0.00120089 1.10419e-26 0 0.00124717 0.00497301 0.0111168 0.0195788 0.0302209 0.0428702 0.0573224 0.073346 0.090686 0.109069 0.128205 0.147795 0.167543 0.187135 0.206258 0.224615 0.241919 0.257901 0.272308 0.284913 0.295517 0.303948 0.310067 0.313759 0.314988 0.313895 0.310448 0.304547 0.296298 0.28583 0.273328 0.259009 0.243069 0.225753 0.207344 0.188137 0.16845 0.148585 0.128861 0.109612 0.0911374 0.0737285 0.0576614 0.0431899 0.0305406 0.0199056 0.0114398 0.00526245 0.0014596 1.34721e-26 0 0.00144964 0.00577504 0.0129068 0.0227284 0.0350795 0.0497595 0.0665317 0.0851278 0.105253 0.126591 0.148808 0.171558 0.1945 0.217271 0.239507 0.260867 0.281018 0.299648 0.316464 0.331203 0.34363 0.35355 0.360798 0.365242 0.366746 0.365592 0.361666 0.35485 0.345295 0.333157 0.318637 0.301966 0.283396 0.263222 0.241767 0.219378 0.196426 0.173265 0.150263 0.127812 0.106262 0.0859562 0.0672163 0.0503386 0.0355872 0.0231866 0.0133177 0.00611948 0.00169139 1.56897e-26 0 0.00162908 0.00648723 0.0144956 0.0255224 0.0393873 0.055865 0.07469 0.0955618 0.118151 0.142102 0.167045 0.19259 0.218361 0.243949 0.268947 0.292972 0.315655 0.336642 0.355609 0.372255 0.386313 0.397578 0.405849 0.41097 0.412739 0.411536 0.407199 0.399589 0.3889 0.375293 0.358983 0.340228 0.319324 0.296606 0.272441 0.247217 0.221352 0.195249 0.16933 0.144026 0.119736 0.0968461 0.0757218 0.0566979 0.0400725 0.0260991 0.0149814 0.00687574 0.00189329 1.76597e-26 0 0.00178307 0.00709834 0.0158577 0.0279161 0.0430756 0.0610896 0.0816677 0.104482 0.129173 0.155356 0.182625 0.210559 0.238746 0.266743 0.294105 0.320415 0.345273 0.368286 0.389116 0.407409 0.422867 0.435278 0.444437 0.450179 0.452227 0.451008 0.446344 0.438068 0.426417 0.411561 0.393729 0.373199 0.350298 0.325396 0.298896 0.27123 0.242848 0.214199 0.185758 0.157993 0.131339 0.106222 0.0830416 0.0621671 0.0439262 0.0285978 0.0164056 0.00752026 0.0020629 1.93511e-26 0 0.00190927 0.00759843 0.0169712 0.029871 0.0460852 0.0653493 0.0873529 0.111746 0.138145 0.16614 0.195299 0.225174 0.255327 0.285286 0.314575 0.342752 0.369398 0.394073 0.416404 0.436052 0.4527 0.466092 0.47601 0.482284 0.484594 0.483377 0.478464 0.469658 0.457231 0.441363 0.422299 0.400335 0.375818 0.349139 0.320735 0.291064 0.260605 0.229842 0.199306 0.169501 0.140891 0.113935 0.0890595 0.0666599 0.047088 0.0306441 0.0175686 0.00804377 0.00219829 2.07373e-26 0 0.00200554 0.00797928 0.0178179 0.0313553 0.0483671 0.0685753 0.0916538 0.117236 0.144921 0.17428 0.204862 0.236198 0.267833 0.299276 0.330025 0.359624 0.387621 0.413567 0.437066 0.45777 0.475351 0.489526 0.500063 0.506776 0.509324 0.508135 0.503063 0.493878 0.480875 0.464246 0.444247 0.42119 0.395437 0.367399 0.33753 0.306317 0.274266 0.241896 0.209758 0.178375 0.148248 0.119869 0.0936837 0.0701067 0.0495088 0.0322065 0.0184529 0.00843878 0.00229795 2.17966e-26 0 0.00207029 0.00823461 0.0183838 0.0323447 0.0498844 0.0707149 0.0945 0.120862 0.14939 0.179642 0.211156 0.243452 0.276063 0.308486 0.340215 0.370766 0.39966 0.426463 0.450773 0.47222 0.490467 0.505211 0.516206 0.52326 0.52602 0.524892 0.519766 0.510365 0.497006 0.479887 0.459275 0.435491 0.408908 0.379948 0.349077 0.316798 0.283646 0.250164 0.216917 0.184457 0.153298 0.123938 0.0968453 0.0724556 0.051152 0.0332615 0.0190454 0.00869973 0.00236083 2.25125e-26 0 0.00210177 0.0083561 0.0186478 0.0327979 0.0505679 0.0716648 0.0957475 0.122435 0.151311 0.181933 0.213835 0.246536 0.279567 0.312432 0.344621 0.375626 0.404968 0.432228 0.456995 0.478888 0.497559 0.512694 0.524036 0.531388 0.534406 0.533386 0.528309 0.51886 0.505367 0.488035 0.467143 0.443014 0.416024 0.386603 0.355225 0.322399 0.288665 0.254569 0.220705 0.187655 0.155939 0.126064 0.0984981 0.0736734 0.0519944 0.0337941 0.0193378 0.00882322 0.00238635 2.28739e-26 0 0.00210109 0.00835167 0.0186344 0.032769 0.0505157 0.0715809 0.0956237 0.122263 0.151086 0.181651 0.213493 0.246137 0.279116 0.311967 0.344134 0.375108 0.404445 0.431723 0.456534 0.478485 0.497219 0.512423 0.52384 0.531272 0.534381 0.533444 0.528462 0.51909 0.505651 0.488346 0.467468 0.44334 0.416344 0.386914 0.355525 0.322685 0.288926 0.254792 0.220879 0.187764 0.155988 0.126077 0.0984953 0.0736654 0.0519793 0.0337721 0.0193148 0.0088038 0.00237372 2.28752e-26 0 0.00206698 0.00821372 0.0183216 0.0322105 0.0496428 0.0703283 0.0939318 0.12008 0.148367 0.17836 0.209607 0.241643 0.274034 0.306315 0.337904 0.368331 0.397188 0.424062 0.448541 0.470222 0.48875 0.503827 0.515202 0.522668 0.525913 0.525201 0.520601 0.511638 0.498637 0.481766 0.461323 0.437616 0.41103 0.382011 0.35104 0.318622 0.285287 0.251577 0.218075 0.185346 0.153928 0.124357 0.0971209 0.0726258 0.0512198 0.0332596 0.0190066 0.00865233 0.00232513 2.25166e-26 0 0.00200023 0.00794602 0.0177189 0.0311411 0.0479803 0.0679548 0.0907401 0.115976 0.143272 0.172212 0.20236 0.233275 0.264576 0.295749 0.326246 0.355654 0.383587 0.409645 0.433401 0.45446 0.472494 0.487226 0.498403 0.505806 0.509153 0.508635 0.504419 0.495952 0.483553 0.467356 0.447656 0.424752 0.399015 0.370884 0.34083 0.309353 0.276979 0.244236 0.21169 0.179902 0.149378 0.120638 0.0941762 0.0703984 0.0496425 0.0322176 0.0183968 0.00836402 0.00224016 2.18038e-26 0 0.00190189 0.00755254 0.016835 0.0295768 0.0455544 0.064498 0.0860986 0.110016 0.13588 0.1633 0.191864 0.221161 0.250859 0.280429 0.309351 0.337286 0.363869 0.388694 0.411338 0.431448 0.448729 0.462909 0.473721 0.480951 0.484365 0.484068 0.480338 0.472537 0.460969 0.445731 0.427097 0.405357 0.380869 0.354064 0.325401 0.295357 0.264434 0.233143 0.202041 0.171672 0.14252 0.115064 0.0897754 0.0670779 0.0472942 0.0306742 0.0175005 0.00794556 0.00212065 2.07481e-26 0 0.0017735 0.00703962 0.0156848 0.0275444 0.0424061 0.060014 0.0800808 0.102293 0.126308 0.151765 0.178287 0.205502 0.233099 0.260592 0.287497 0.313529 0.338339 0.361526 0.382704 0.401568 0.417848 0.431255 0.44154 0.448494 0.45194 0.451891 0.448741 0.441769 0.43125 0.417235 0.399975 0.379738 0.356872 0.331802 0.304968 0.276823 0.247839 0.218488 0.189294 0.160795 0.133458 0.107716 0.0840011 0.0627254 0.0441964 0.0286525 0.0163321 0.00740381 0.00196863 1.93662e-26 0 0.00161717 0.00641578 0.0142876 0.0250783 0.0385881 0.0545784 0.0727817 0.0929281 0.114705 0.137789 0.161842 0.186553 0.211601 0.236566 0.261036 0.284752 0.307384 0.328556 0.347953 0.365295 0.380317 0.39275 0.40236 0.408944 0.412389 0.412617 0.41014 0.404152 0.394884 0.382335 0.366726 0.348298 0.327397 0.304442 0.279849 0.254033 0.227428 0.200481 0.173658 0.147456 0.122335 0.0987046 0.0769359 0.0574027 0.0404136 0.0261932 0.0149121 0.0067481 0.00178676 1.76797e-26 0 0.00143524 0.00569018 0.0126622 0.0222088 0.0341454 0.0482583 0.0643083 0.0820647 0.101253 0.121593 0.142794 0.164599 0.186699 0.208735 0.230383 0.251399 0.271485 0.290317 0.30763 0.323182 0.336711 0.347983 0.356784 0.362917 0.366323 0.366898 0.365131 0.360267 0.352396 0.341519 0.327826 0.311505 0.292891 0.272403 0.250429 0.22734 0.203524 0.179386 0.155358 0.131863 0.109336 0.0881715 0.0686853 0.0512044 0.0360209 0.0233298 0.0132633 0.00598956 0.00157821 1.57151e-26 0 0.00123045 0.00487337 0.0108323 0.0189758 0.0291398 0.0411424 0.0547869 0.0698725 0.0861664 0.103438 0.121443 0.139981 0.158776 0.17754 0.196015 0.21399 0.231217 0.247418 0.262371 0.275881 0.287709 0.297653 0.305519 0.311128 0.314469 0.31547 0.314286 0.310376 0.303738 0.294627 0.283228 0.269585 0.253771 0.236149 0.217155 0.197154 0.176496 0.155541 0.134665 0.11425 0.0946651 0.0762807 0.0593795 0.0442271 0.0310795 0.0201026 0.0114118 0.00514061 0.00134677 1.35031e-26 0 0.00100623 0.00397943 0.00883052 0.0154384 0.0236648 0.0333643 0.0443803 0.0565495 0.0696871 0.0836133 0.098133 0.113095 0.128282 0.143472 0.158471 0.17311 0.18719 0.200492 0.212849 0.2241 0.23405 0.242525 0.249356 0.254399 0.257699 0.259007 0.258146 0.25496 0.249552 0.242246 0.233217 0.222576 0.210248 0.196109 0.180508 0.163935 0.146759 0.129309 0.111907 0.0948874 0.078549 0.0632225 0.0491629 0.0365715 0.0256611 0.016568 0.0093874 0.00421556 0.00109686 1.10787e-26 0 0.000766274 0.00302227 0.00668313 0.0116454 0.0178038 0.0250476 0.0332613 0.0423149 0.0520824 0.0624387 0.0732355 0.084377 0.0957053 0.107066 0.118341 0.129396 0.140068 0.150215 0.159739 0.168526 0.176433 0.183322 0.189054 0.19357 0.19689 0.198422 0.198025 0.195918 0.192072 0.186723 0.179963 0.171991 0.162972 0.152693 0.140979 0.128184 0.114775 0.1011 0.0874377 0.0740673 0.0612378 0.0492031 0.0381934 0.0283568 0.0198542 0.0127875 0.00722443 0.00323029 0.000832842 8.48085e-27 0 0.000513986 0.00201332 0.00442066 0.00765834 0.0116534 0.0163275 0.0216026 0.0273968 0.0336391 0.0402513 0.0471506 0.0542754 0.0615408 0.0688849 0.0762568 0.0835557 0.0906684 0.0975282 0.104104 0.110317 0.116056 0.121219 0.125701 0.129592 0.13303 0.134848 0.135165 0.13428 0.132142 0.12892 0.124602 0.11934 0.113366 0.106739 0.0991306 0.0904257 0.0810373 0.0713514 0.0616377 0.0521185 0.0429922 0.034436 0.0266432 0.0197145 0.0137511 0.00882075 0.00495872 0.00220171 0.00055989 5.7499e-27 0 0.000251962 0.000964876 0.00208044 0.00354647 0.00531705 0.00734509 0.00959067 0.0120286 0.0146297 0.0173724 0.0202505 0.0232311 0.0263137 0.029527 0.0328733 0.0363177 0.0397983 0.043301 0.0468596 0.0504349 0.0539485 0.0573209 0.0604738 0.0634861 0.0667477 0.0692145 0.0702801 0.0706784 0.0703237 0.0693519 0.0676639 0.0652999 0.0624443 0.0593131 0.055692 0.0512484 0.0460687 0.0405305 0.0349113 0.0293849 0.0240922 0.0191524 0.0146936 0.0107773 0.00744424 0.00472816 0.00262645 0.00114774 0.000284247 2.929e-27 0 -1.60463e-05 -9.6642e-05 -0.000283672 -0.000613203 -0.00110351 -0.00176417 -0.0025873 -0.00356573 -0.00467257 -0.00586129 -0.00707432 -0.00828602 -0.00943141 -0.0104177 -0.0111644 -0.0116326 -0.0118298 -0.0117406 -0.0112818 -0.0104006 -0.00914319 -0.00755604 -0.0056971 -0.00346561 -0.000658891 0.00236158 0.00420216 0.00596348 0.0074788 0.00879054 0.00981362 0.0105009 0.0109166 0.0112583 0.0115127 0.0113119 0.0104191 0.00911921 0.00767649 0.00622252 0.00483804 0.00358984 0.00253014 0.00168318 0.00103404 0.000575422 0.000264156 8.65196e-05 1.31745e-05 4.38858e-29 0 -0.000298518 -0.0011705 -0.00265838 -0.00477885 -0.00751969 -0.0108547 -0.0147456 -0.0191331 -0.0239272 -0.0290264 -0.034314 -0.0396948 -0.0450482 -0.0502203 -0.0550488 -0.0594271 -0.0632849 -0.0665589 -0.0691786 -0.0710217 -0.0720114 -0.0722017 -0.0715562 -0.0699112 -0.0675146 -0.0646359 -0.0619532 -0.058832 -0.0554728 -0.0518932 -0.048169 -0.0444315 -0.0406852 -0.0367848 -0.0327304 -0.0287827 -0.0253721 -0.0224173 -0.0196642 -0.017027 -0.0144844 -0.01203 -0.00966971 -0.0074342 -0.00538754 -0.00358202 -0.00209778 -0.000970612 -0.000252394 -2.85306e-27 0 -0.000592933 -0.00225333 -0.00502875 -0.00890837 -0.0138626 -0.0198337 -0.0267428 -0.0344699 -0.042879 -0.0518144 -0.0610994 -0.0705591 -0.0800298 -0.0893008 -0.0981418 -0.106368 -0.11383 -0.120405 -0.125993 -0.130479 -0.133732 -0.135629 -0.136162 -0.135288 -0.133322 -0.130524 -0.127007 -0.122592 -0.117448 -0.111641 -0.105294 -0.0985729 -0.0914945 -0.084054 -0.076268 -0.0682746 -0.0606243 -0.0534796 -0.0465955 -0.0399271 -0.0335151 -0.0274147 -0.0216811 -0.0164125 -0.011712 -0.0076785 -0.00442378 -0.00201071 -0.000513246 -5.67818e-27 0 -0.000888638 -0.00331935 -0.00734047 -0.0129292 -0.0200323 -0.0285576 -0.0383736 -0.0493237 -0.0612203 -0.0738542 -0.0869941 -0.100391 -0.113829 -0.12705 -0.139764 -0.151709 -0.162666 -0.172454 -0.180907 -0.187893 -0.193258 -0.19687 -0.198615 -0.1987 -0.197194 -0.194271 -0.189985 -0.184352 -0.177543 -0.169659 -0.160785 -0.151107 -0.14075 -0.12984 -0.118417 -0.106569 -0.094821 -0.0836 -0.0727147 -0.062135 -0.0519686 -0.0423302 -0.0333276 -0.0251184 -0.0178439 -0.0116505 -0.00667782 -0.00301796 -0.00076558 -8.40977e-27 0 -0.0011761 -0.0043428 -0.00955506 -0.016778 -0.0259241 -0.0368654 -0.049439 -0.0634446 -0.0786471 -0.0947874 -0.111581 -0.12873 -0.145926 -0.162879 -0.179258 -0.194735 -0.209026 -0.221882 -0.233091 -0.242471 -0.24986 -0.255137 -0.258185 -0.259098 -0.25804 -0.254921 -0.249998 -0.243316 -0.234941 -0.224975 -0.213636 -0.20112 -0.187659 -0.173434 -0.158549 -0.143088 -0.127426 -0.112302 -0.0976084 -0.0833008 -0.069555 -0.0565462 -0.0444295 -0.0334146 -0.0236873 -0.0154337 -0.00882218 -0.0039767 -0.0010058 -1.10111e-26 0 -0.00144784 -0.00530535 -0.0116387 -0.0203841 -0.0314318 -0.0446241 -0.0597617 -0.076607 -0.0948853 -0.114289 -0.134483 -0.155124 -0.175826 -0.19624 -0.216014 -0.234776 -0.252175 -0.267904 -0.281708 -0.293368 -0.302692 -0.309544 -0.313813 -0.315436 -0.314785 -0.31159 -0.306067 -0.298289 -0.288382 -0.276503 -0.262917 -0.247843 -0.231538 -0.214234 -0.196116 -0.177258 -0.157923 -0.13912 -0.120872 -0.103088 -0.0859993 -0.0698419 -0.0548086 -0.041168 -0.0291503 -0.0189689 -0.0108241 -0.00487127 -0.00123017 -1.34409e-26 0 -0.00169933 -0.00619429 -0.0135491 -0.0236827 -0.0364607 -0.0517013 -0.0691744 -0.0886061 -0.109682 -0.132053 -0.155337 -0.179147 -0.203052 -0.22663 -0.249485 -0.271219 -0.291442 -0.309798 -0.32598 -0.339735 -0.350853 -0.359166 -0.364568 -0.366821 -0.36657 -0.363291 -0.357184 -0.34839 -0.337114 -0.323584 -0.308013 -0.29065 -0.271768 -0.251645 -0.230539 -0.208562 -0.185874 -0.163681 -0.14218 -0.121203 -0.10105 -0.082011 -0.064303 -0.0482581 -0.0341463 -0.0222012 -0.0126538 -0.0056879 -0.00143498 -1.56603e-26 0 -0.00192753 -0.00699022 -0.0152524 -0.0266172 -0.0409316 -0.0579884 -0.0775296 -0.0992498 -0.122801 -0.147795 -0.173812 -0.200423 -0.227157 -0.253554 -0.27916 -0.303533 -0.326249 -0.346929 -0.365232 -0.380858 -0.393584 -0.403223 -0.409637 -0.412546 -0.412581 -0.409218 -0.402629 -0.393042 -0.380637 -0.365635 -0.348287 -0.328867 -0.307675 -0.285034 -0.261251 -0.236497 -0.210879 -0.18569 -0.161247 -0.137389 -0.114474 -0.0928626 -0.0727661 -0.0545755 -0.0385955 -0.0250783 -0.0142822 -0.00641446 -0.00161702 -1.76337e-26 0 -0.0021271 -0.00767752 -0.0167199 -0.029142 -0.0447724 -0.0633828 -0.0846912 -0.108366 -0.134029 -0.161263 -0.189611 -0.218613 -0.247763 -0.276564 -0.304538 -0.331194 -0.356067 -0.378757 -0.398892 -0.416135 -0.430237 -0.441021 -0.448323 -0.451817 -0.452104 -0.448722 -0.441777 -0.431528 -0.418162 -0.401909 -0.383037 -0.361846 -0.338667 -0.313854 -0.28775 -0.260569 -0.232433 -0.204678 -0.177691 -0.151352 -0.126046 -0.102213 -0.0800611 -0.0600207 -0.0424272 -0.0275547 -0.0156835 -0.00703948 -0.00177352 -1.93293e-26 0 -0.00229363 -0.00824605 -0.0179283 -0.031215 -0.0479194 -0.0677958 -0.0905425 -0.115806 -0.143186 -0.172238 -0.20248 -0.233425 -0.26454 -0.295298 -0.325197 -0.353718 -0.380378 -0.404738 -0.426384 -0.444977 -0.460236 -0.471954 -0.479985 -0.483983 -0.484494 -0.481153 -0.47395 -0.463183 -0.449045 -0.431779 -0.41167 -0.389036 -0.364233 -0.337637 -0.309602 -0.280359 -0.250122 -0.220307 -0.191237 -0.162862 -0.13559 -0.109914 -0.0860711 -0.0645075 -0.0455821 -0.0295918 -0.0168356 -0.00755299 -0.00190199 -2.07201e-26 0 -0.00242483 -0.00868602 -0.0188569 -0.0328013 -0.0503204 -0.0711546 -0.0949874 -0.121449 -0.150122 -0.180543 -0.212211 -0.244619 -0.277217 -0.309457 -0.340818 -0.370757 -0.398768 -0.424396 -0.447219 -0.466872 -0.483051 -0.495513 -0.504122 -0.50854 -0.509246 -0.505971 -0.498598 -0.487464 -0.472764 -0.454748 -0.433712 -0.40999 -0.383951 -0.355985 -0.326442 -0.295534 -0.263726 -0.232409 -0.20173 -0.171771 -0.142981 -0.115862 -0.0907052 -0.0679648 -0.0480101 -0.0311574 -0.0177203 -0.00794683 -0.00200039 -2.17844e-26 0 -0.00251838 -0.00898979 -0.0194897 -0.0338741 -0.0519349 -0.0734034 -0.0979528 -0.125203 -0.154725 -0.186044 -0.218647 -0.252015 -0.285588 -0.318807 -0.351144 -0.382038 -0.410968 -0.437465 -0.461096 -0.481481 -0.498308 -0.51132 -0.520363 -0.525112 -0.52598 -0.522782 -0.515337 -0.503998 -0.488958 -0.470468 -0.448829 -0.424384 -0.39751 -0.368602 -0.337992 -0.305872 -0.2731 -0.240811 -0.209003 -0.177931 -0.148101 -0.119964 -0.0938908 -0.0703385 -0.049672 -0.0322258 -0.0183238 -0.00821482 -0.00206717 -2.25053e-26 0 -0.00257227 -0.00915045 -0.0198114 -0.0344051 -0.0527179 -0.0744755 -0.0993462 -0.126945 -0.15684 -0.188552 -0.221563 -0.255351 -0.289357 -0.323024 -0.355825 -0.387193 -0.416596 -0.443555 -0.467633 -0.488443 -0.505665 -0.519036 -0.528382 -0.533399 -0.534424 -0.531349 -0.523942 -0.512561 -0.497404 -0.47872 -0.456809 -0.432017 -0.404719 -0.375288 -0.344037 -0.311288 -0.278168 -0.245368 -0.212926 -0.181245 -0.150862 -0.122157 -0.0955788 -0.0715907 -0.0505404 -0.0327792 -0.0186364 -0.00835268 -0.00210126 -2.28709e-26 0 -0.00258677 -0.0091726 -0.0198382 -0.0344326 -0.0527415 -0.0744899 -0.0993462 -0.126926 -0.156796 -0.188481 -0.221462 -0.255218 -0.289187 -0.32283 -0.355625 -0.386999 -0.416416 -0.443396 -0.467498 -0.488334 -0.505582 -0.518983 -0.528349 -0.533386 -0.534438 -0.531486 -0.524189 -0.512904 -0.497833 -0.479218 -0.457358 -0.432588 -0.405264 -0.375711 -0.344232 -0.311524 -0.278621 -0.245786 -0.213261 -0.181516 -0.151091 -0.122321 -0.09569 -0.0716655 -0.0505798 -0.0327969 -0.0186478 -0.00835642 -0.00210184 -2.28752e-26 0 -0.00255883 -0.00904441 -0.0195375 -0.0338882 -0.0518843 -0.0732549 -0.0976737 -0.124763 -0.1541 -0.185217 -0.217608 -0.250761 -0.28412 -0.317182 -0.349427 -0.380285 -0.409241 -0.435825 -0.459599 -0.480176 -0.497234 -0.510519 -0.519838 -0.524912 -0.526063 -0.523433 -0.5165 -0.505605 -0.49095 -0.472767 -0.45134 -0.42698 -0.39999 -0.370661 -0.339463 -0.307415 -0.275098 -0.242669 -0.210538 -0.179176 -0.149118 -0.120703 -0.0944073 -0.0706896 -0.049875 -0.0323285 -0.0183789 -0.00823313 -0.00207003 -2.25183e-26 0 -0.0024874 -0.00877208 -0.0189269 -0.0328081 -0.0502098 -0.0708691 -0.0944706 -0.12065 -0.148998 -0.179066 -0.210368 -0.24241 -0.274645 -0.306612 -0.3378 -0.36765 -0.395682 -0.421445 -0.444514 -0.464503 -0.481093 -0.494041 -0.503157 -0.508174 -0.509379 -0.50698 -0.500416 -0.489995 -0.475911 -0.458388 -0.437677 -0.414037 -0.387719 -0.359107 -0.329015 -0.298213 -0.266917 -0.235441 -0.204257 -0.173833 -0.14463 -0.117048 -0.091541 -0.0685333 -0.0483461 -0.031