<?xml version="1.0"?>
<VTKFile type="PolyData">
	<PolyData>
		<Piece NumberOfPoints="2601" NumberOfPolys="2500">
			<Points>
				<DataArray type="Float32" NumberOfComponents="3" format="ascii">
 0 0 0 0.02 0 0 0.04 0 0 0.06 0 0 0.08 0 0 0.1 0 0 0.12 0 0 0.14 0 0 0.16 0 0 0.18 0 0 0.2 0 0 0.22 0 0 0.24 0 0 0.26 0 0 0.28 0 0 0.3 0 0 0.32 0 0 0.34 0 0 0.36 0 0 0.38 0 0 0.4 0 0 0.42 0 0 0.44 0 0 0.46 0 0 0.48 0 0 0.5 0 0 0.52 0 0 0.54 0 0 0.56 0 0 0.58 0 0 0.6 0 0 0.62 0 0 0.64 0 0 0.66 0 0 0.68 0 0 0.7 0 0 0.72 0 0 0.74 0 0 0.76 0 0 0.78 0 0 0.8 0 0 0.82 0 0 0.84 0 0 0.86 0 0 0.88 0 0 0.9 0 0 0.92 0 0 0.94 0 0 0.96 0 0 0.98 0 0 1 0 0 0 0.02 0 0.02 0.02 0 0.04 0.02 0 0.06 0.02 0 0.08 0.02 0 0.1 0.02 0 0.12 0.02 0 0.14 0.02 0 0.16 0.02 0 0.18 0.02 0 0.2 0.02 0 0.22 0.02 0 0.24 0.02 0 0.26 0.02 0 0.28 0.02 0 0.3 0.02 0 0.32 0.02 0 0.34 0.02 0 0.36 0.02 0 0.38 0.02 0 0.4 0.02 0 0.42 0.02 0 0.44 0.02 0 0.46 0.02 0 0.48 0.02 0 0.5 0.02 0 0.52 0.02 0 0.54 0.02 0 0.56 0.02 0 0.58 0.02 0 0.6 0.02 0 0.62 0.02 0 0.64 0.02 0 0.66 0.02 0 0.68 0.02 0 0.7 0.02 0 0.72 0.02 0 0.74 0.02 0 0.76 0.02 0 0.78 0.02 0 0.8 0.02 0 0.82 0.02 0 0.84 0.02 0 0.86 0.02 0 0.88 0.02 0 0.9 0.02 0 0.92 0.02 0 0.94 0.02 0 0.96 0.02 0 0.98 0.02 0 1 0.02 0 0 0.04 0 0.02 0.04 0 0.04 0.04 0 0.06 0.04 0 0.08 0.04 0 0.1 0.04 0 0.12 0.04 0 0.14 0.04 0 0.16 0.04 0 0.18 0.04 0 0.2 0.04 0 0.22 0.04 0 0.24 0.04 0 0.26 0.04 0 0.28 0.04 0 0.3 0.04 0 0.32 0.04 0 0.34 0.04 0 0.36 0.04 0 0.38 0.04 0 0.4 0.04 0 0.42 0.04 0 0.44 0.04 0 0.46 0.04 0 0.48 0.04 0 0.5 0.04 0 0.52 0.04 0 0.54 0.04 0 0.56 0.04 0 0.58 0.04 0 0.6 0.04 0 0.62 0.04 0 0.64 0.04 0 0.66 0.04 0 0.68 0.04 0 0.7 0.04 0 0.72 0.04 0 0.74 0.04 0 0.76 0.04 0 0.78 0.04 0 0.8 0.04 0 0.82 0.04 0 0.84 0.04 0 0.86 0.04 0 0.88 0.04 0 0.9 0.04 0 0.92 0.04 0 0.94 0.04 0 0.96 0.04 0 0.98 0.04 0 1 0.04 0 0 0.06 0 0.02 0.06 0 0.04 0.06 0 0.06 0.06 0 0.08 0.06 0 0.1 0.06 0 0.12 0.06 0 0.14 0.06 0 0.16 0.06 0 0.18 0.06 0 0.2 0.06 0 0.22 0.06 0 0.24 0.06 0 0.26 0.06 0 0.28 0.06 0 0.3 0.06 0 0.32 0.06 0 0.34 0.06 0 0.36 0.06 0 0.38 0.06 0 0.4 0.06 0 0.42 0.06 0 0.44 0.06 0 0.46 0.06 0 0.48 0.06 0 0.5 0.06 0 0.52 0.06 0 0.54 0.06 0 0.56 0.06 0 0.58 0.06 0 0.6 0.06 0 0.62 0.06 0 0.64 0.06 0 0.66 0.06 0 0.68 0.06 0 0.7 0.06 0 0.72 0.06 0 0.74 0.06 0 0.76 0.06 0 0.78 0.06 0 0.8 0.06 0 0.82 0.06 0 0.84 0.06 0 0.86 0.06 0 0.88 0.06 0 0.9 0.06 0 0.92 0.06 0 0.94 0.06 0 0.96 0.06 0 0.98 0.06 0 1 0.06 0 0 0.08 0 0.02 0.08 0 0.04 0.08 0 0.06 0.08 0 0.08 0.08 0 0.1 0.08 0 0.12 0.08 0 0.14 0.08 0 0.16 0.08 0 0.18 0.08 0 0.2 0.08 0 0.22 0.08 0 0.24 0.08 0 0.26 0.08 0 0.28 0.08 0 0.3 0.08 0 0.32 0.08 0 0.34 0.08 0 0.36 0.08 0 0.38 0.08 0 0.4 0.08 0 0.42 0.08 0 0.44 0.08 0 0.46 0.08 0 0.48 0.08 0 0.5 0.08 0 0.52 0.08 0 0.54 0.08 0 0.56 0.08 0 0.58 0.08 0 0.6 0.08 0 0.62 0.08 0 0.64 0.08 0 0.66 0.08 0 0.68 0.08 0 0.7 0.08 0 0.72 0.08 0 0.74 0.08 0 0.76 0.08 0 0.78 0.08 0 0.8 0.08 0 0.82 0.08 0 0.84 0.08 0 0.86 0.08 0 0.88 0.08 0 0.9 0.08 0 0.92 0.08 0 0.94 0.08 0 0.96 0.08 0 0.98 0.08 0 1 0.08 0 0 0.1 0 0.02 0.1 0 0.04 0.1 0 0.06 0.1 0 0.08 0.1 0 0.1 0.1 0 0.12 0.1 0 0.14 0.1 0 0.16 0.1 0 0.18 0.1 0 0.2 0.1 0 0.22 0.1 0 0.24 0.1 0 0.26 0.1 0 0.28 0.1 0 0.3 0.1 0 0.32 0.1 0 0.34 0.1 0 0.36 0.1 0 0.38 0.1 0 0.4 0.1 0 0.42 0.1 0 0.44 0.1 0 0.46 0.1 0 0.48 0.1 0 0.5 0.1 0 0.52 0.1 0 0.54 0.1 0 0.56 0.1 0 0.58 0.1 0 0.6 0.1 0 0.62 0.1 0 0.64 0.1 0 0.66 0.1 0 0.68 0.1 0 0.7 0.1 0 0.72 0.1 0 0.74 0.1 0 0.76 0.1 0 0.78 0.1 0 0.8 0.1 0 0.82 0.1 0 0.84 0.1 0 0.86 0.1 0 0.88 0.1 0 0.9 0.1 0 0.92 0.1 0 0.94 0.1 0 0.96 0.1 0 0.98 0.1 0 1 0.1 0 0 0.12 0 0.02 0.12 0 0.04 0.12 0 0.06 0.12 0 0.08 0.12 0 0.1 0.12 0 0.12 0.12 0 0.14 0.12 0 0.16 0.12 0 0.18 0.12 0 0.2 0.12 0 0.22 0.12 0 0.24 0.12 0 0.26 0.12 0 0.28 0.12 0 0.3 0.12 0 0.32 0.12 0 0.34 0.12 0 0.36 0.12 0 0.38 0.12 0 0.4 0.12 0 0.42 0.12 0 0.44 0.12 0 0.46 0.12 0 0.48 0.12 0 0.5 0.12 0 0.52 0.12 0 0.54 0.12 0 0.56 0.12 0 0.58 0.12 0 0.6 0.12 0 0.62 0.12 0 0.64 0.12 0 0.66 0.12 0 0.68 0.12 0 0.7 0.12 0 0.72 0.12 0 0.74 0.12 0 0.76 0.12 0 0.78 0.12 0 0.8 0.12 0 0.82 0.12 0 0.84 0.12 0 0.86 0.12 0 0.88 0.12 0 0.9 0.12 0 0.92 0.12 0 0.94 0.12 0 0.96 0.12 0 0.98 0.12 0 1 0.12 0 0 0.14 0 0.02 0.14 0 0.04 0.14 0 0.06 0.14 0 0.08 0.14 0 0.1 0.14 0 0.12 0.14 0 0.14 0.14 0 0.16 0.14 0 0.18 0.14 0 0.2 0.14 0 0.22 0.14 0 0.24 0.14 0 0.26 0.14 0 0.28 0.14 0 0.3 0.14 0 0.32 0.14 0 0.34 0.14 0 0.36 0.14 0 0.38 0.14 0 0.4 0.14 0 0.42 0.14 0 0.44 0.14 0 0.46 0.14 0 0.48 0.14 0 0.5 0.14 0 0.52 0.14 0 0.54 0.14 0 0.56 0.14 0 0.58 0.14 0 0.6 0.14 0 0.62 0.14 0 0.64 0.14 0 0.66 0.14 0 0.68 0.14 0 0.7 0.14 0 0.72 0.14 0 0.74 0.14 0 0.76 0.14 0 0.78 0.14 0 0.8 0.14 0 0.82 0.14 0 0.84 0.14 0 0.86 0.14 0 0.88 0.14 0 0.9 0.14 0 0.92 0.14 0 0.94 0.14 0 0.96 0.14 0 0.98 0.14 0 1 0.14 0 0 0.16 0 0.02 0.16 0 0.04 0.16 0 0.06 0.16 0 0.08 0.16 0 0.1 0.16 0 0.12 0.16 0 0.14 0.16 0 0.16 0.16 0 0.18 0.16 0 0.2 0.16 0 0.22 0.16 0 0.24 0.16 0 0.26 0.16 0 0.28 0.16 0 0.3 0.16 0 0.32 0.16 0 0.34 0.16 0 0.36 0.16 0 0.38 0.16 0 0.4 0.16 0 0.42 0.16 0 0.44 0.16 0 0.46 0.16 0 0.48 0.16 0 0.5 0.16 0 0.52 0.16 0 0.54 0.16 0 0.56 0.16 0 0.58 0.16 0 0.6 0.16 0 0.62 0.16 0 0.64 0.16 0 0.66 0.16 0 0.68 0.16 0 0.7 0.16 0 0.72 0.16 0 0.74 0.16 0 0.76 0.16 0 0.78 0.16 0 0.8 0.16 0 0.82 0.16 0 0.84 0.16 0 0.86 0.16 0 0.88 0.16 0 0.9 0.16 0 0.92 0.16 0 0.94 0.16 0 0.96 0.16 0 0.98 0.16 0 1 0.16 0 0 0.18 0 0.02 0.18 0 0.04 0.18 0 0.06 0.18 0 0.08 0.18 0 0.1 0.18 0 0.12 0.18 0 0.14 0.18 0 0.16 0.18 0 0.18 0.18 0 0.2 0.18 0 0.22 0.18 0 0.24 0.18 0 0.26 0.18 0 0.28 0.18 0 0.3 0.18 0 0.32 0.18 0 0.34 0.18 0 0.36 0.18 0 0.38 0.18 0 0.4 0.18 0 0.42 0.18 0 0.44 0.18 0 0.46 0.18 0 0.48 0.18 0 0.5 0.18 0 0.52 0.18 0 0.54 0.18 0 0.56 0.18 0 0.58 0.18 0 0.6 0.18 0 0.62 0.18 0 0.64 0.18 0 0.66 0.18 0 0.68 0.18 0 0.7 0.18 0 0.72 0.18 0 0.74 0.18 0 0.76 0.18 0 0.78 0.18 0 0.8 0.18 0 0.82 0.18 0 0.84 0.18 0 0.86 0.18 0 0.88 0.18 0 0.9 0.18 0 0.92 0.18 0 0.94 0.18 0 0.96 0.18 0 0.98 0.18 0 1 0.18 0 0 0.2 0 0.02 0.2 0 0.04 0.2 0 0.06 0.2 0 0.08 0.2 0 0.1 0.2 0 0.12 0.2 0 0.14 0.2 0 0.16 0.2 0 0.18 0.2 0 0.2 0.2 0 0.22 0.2 0 0.24 0.2 0 0.26 0.2 0 0.28 0.2 0 0.3 0.2 0 0.32 0.2 0 0.34 0.2 0 0.36 0.2 0 0.38 0.2 0 0.4 0.2 0 0.42 0.2 0 0.44 0.2 0 0.46 0.2 0 0.48 0.2 0 0.5 0.2 0 0.52 0.2 0 0.54 0.2 0 0.56 0.2 0 0.58 0.2 0 0.6 0.2 0 0.62 0.2 0 0.64 0.2 0 0.66 0.2 0 0.68 0.2 0 0.7 0.2 0 0.72 0.2 0 0.74 0.2 0 0.76 0.2 0 0.78 0.2 0 0.8 0.2 0 0.82 0.2 0 0.84 0.2 0 0.86 0.2 0 0.88 0.2 0 0.9 0.2 0 0.92 0.2 0 0.94 0.2 0 0.96 0.2 0 0.98 0.2 0 1 0.2 0 0 0.22 0 0.02 0.22 0 0.04 0.22 0 0.06 0.22 0 0.08 0.22 0 0.1 0.22 0 0.12 0.22 0 0.14 0.22 0 0.16 0.22 0 0.18 0.22 0 0.2 0.22 0 0.22 0.22 0 0.24 0.22 0 0.26 0.22 0 0.28 0.22 0 0.3 0.22 0 0.32 0.22 0 0.34 0.22 0 0.36 0.22 0 0.38 0.22 0 0.4 0.22 0 0.42 0.22 0 0.44 0.22 0 0.46 0.22 0 0.48 0.22 0 0.5 0.22 0 0.52 0.22 0 0.54 0.22 0 0.56 0.22 0 0.58 0.22 0 0.6 0.22 0 0.62 0.22 0 0.64 0.22 0 0.66 0.22 0 0.68 0.22 0 0.7 0.22 0 0.72 0.22 0 0.74 0.22 0 0.76 0.22 0 0.78 0.22 0 0.8 0.22 0 0.82 0.22 0 0.84 0.22 0 0.86 0.22 0 0.88 0.22 0 0.9 0.22 0 0.92 0.22 0 0.94 0.22 0 0.96 0.22 0 0.98 0.22 0 1 0.22 0 0 0.24 0 0.02 0.24 0 0.04 0.24 0 0.06 0.24 0 0.08 0.24 0 0.1 0.24 0 0.12 0.24 0 0.14 0.24 0 0.16 0.24 0 0.18 0.24 0 0.2 0.24 0 0.22 0.24 0 0.24 0.24 0 0.26 0.24 0 0.28 0.24 0 0.3 0.24 0 0.32 0.24 0 0.34 0.24 0 0.36 0.24 0 0.38 0.24 0 0.4 0.24 0 0.42 0.24 0 0.44 0.24 0 0.46 0.24 0 0.48 0.24 0 0.5 0.24 0 0.52 0.24 0 0.54 0.24 0 0.56 0.24 0 0.58 0.24 0 0.6 0.24 0 0.62 0.24 0 0.64 0.24 0 0.66 0.24 0 0.68 0.24 0 0.7 0.24 0 0.72 0.24 0 0.74 0.24 0 0.76 0.24 0 0.78 0.24 0 0.8 0.24 0 0.82 0.24 0 0.84 0.24 0 0.86 0.24 0 0.88 0.24 0 0.9 0.24 0 0.92 0.24 0 0.94 0.24 0 0.96 0.24 0 0.98 0.24 0 1 0.24 0 0 0.26 0 0.02 0.26 0 0.04 0.26 0 0.06 0.26 0 0.08 0.26 0 0.1 0.26 0 0.12 0.26 0 0.14 0.26 0 0.16 0.26 0 0.18 0.26 0 0.2 0.26 0 0.22 0.26 0 0.24 0.26 0 0.26 0.26 0 0.28 0.26 0 0.3 0.26 0 0.32 0.26 0 0.34 0.26 0 0.36 0.26 0 0.38 0.26 0 0.4 0.26 0 0.42 0.26 0 0.44 0.26 0 0.46 0.26 0 0.48 0.26 0 0.5 0.26 0 0.52 0.26 0 0.54 0.26 0 0.56 0.26 0 0.58 0.26 0 0.6 0.26 0 0.62 0.26 0 0.64 0.26 0 0.66 0.26 0 0.68 0.26 0 0.7 0.26 0 0.72 0.26 0 0.74 0.26 0 0.76 0.26 0 0.78 0.26 0 0.8 0.26 0 0.82 0.26 0 0.84 0.26 0 0.86 0.26 0 0.88 0.26 0 0.9 0.26 0 0.92 0.26 0 0.94 0.26 0 0.96 0.26 0 0.98 0.26 0 1 0.26 0 0 0.28 0 0.02 0.28 0 0.04 0.28 0 0.06 0.28 0 0.08 0.28 0 0.1 0.28 0 0.12 0.28 0 0.14 0.28 0 0.16 0.28 0 0.18 0.28 0 0.2 0.28 0 0.22 0.28 0 0.24 0.28 0 0.26 0.28 0 0.28 0.28 0 0.3 0.28 0 0.32 0.28 0 0.34 0.28 0 0.36 0.28 0 0.38 0.28 0 0.4 0.28 0 0.42 0.28 0 0.44 0.28 0 0.46 0.28 0 0.48 0.28 0 0.5 0.28 0 0.52 0.28 0 0.54 0.28 0 0.56 0.28 0 0.58 0.28 0 0.6 0.28 0 0.62 0.28 0 0.64 0.28 0 0.66 0.28 0 0.68 0.28 0 0.7 0.28 0 0.72 0.28 0 0.74 0.28 0 0.76 0.28 0 0.78 0.28 0 0.8 0.28 0 0.82 0.28 0 0.84 0.28 0 0.86 0.28 0 0.88 0.28 0 0.9 0.28 0 0.92 0.28 0 0.94 0.28 0 0.96 0.28 0 0.98 0.28 0 1 0.28 0 0 0.3 0 0.02 0.3 0 0.04 0.3 0 0.06 0.3 0 0.08 0.3 0 0.1 0.3 0 0.12 0.3 0 0.14 0.3 0 0.16 0.3 0 0.18 0.3 0 0.2 0.3 0 0.22 0.3 0 0.24 0.3 0 0.26 0.3 0 0.28 0.3 0 0.3 0.3 0 0.32 0.3 0 0.34 0.3 0 0.36 0.3 0 0.38 0.3 0 0.4 0.3 0 0.42 0.3 0 0.44 0.3 0 0.46 0.3 0 0.48 0.3 0 0.5 0.3 0 0.52 0.3 0 0.54 0.3 0 0.56 0.3 0 0.58 0.3 0 0.6 0.3 0 0.62 0.3 0 0.64 0.3 0 0.66 0.3 0 0.68 0.3 0 0.7 0.3 0 0.72 0.3 0 0.74 0.3 0 0.76 0.3 0 0.78 0.3 0 0.8 0.3 0 0.82 0.3 0 0.84 0.3 0 0.86 0.3 0 0.88 0.3 0 0.9 0.3 0 0.92 0.3 0 0.94 0.3 0 0.96 0.3 0 0.98 0.3 0 1 0.3 0 0 0.32 0 0.02 0.32 0 0.04 0.32 0 0.06 0.32 0 0.08 0.32 0 0.1 0.32 0 0.12 0.32 0 0.14 0.32 0 0.16 0.32 0 0.18 0.32 0 0.2 0.32 0 0.22 0.32 0 0.24 0.32 0 0.26 0.32 0 0.28 0.32 0 0.3 0.32 0 0.32 0.32 0 0.34 0.32 0 0.36 0.32 0 0.38 0.32 0 0.4 0.32 0 0.42 0.32 0 0.44 0.32 0 0.46 0.32 0 0.48 0.32 0 0.5 0.32 0 0.52 0.32 0 0.54 0.32 0 0.56 0.32 0 0.58 0.32 0 0.6 0.32 0 0.62 0.32 0 0.64 0.32 0 0.66 0.32 0 0.68 0.32 0 0.7 0.32 0 0.72 0.32 0 0.74 0.32 0 0.76 0.32 0 0.78 0.32 0 0.8 0.32 0 0.82 0.32 0 0.84 0.32 0 0.86 0.32 0 0.88 0.32 0 0.9 0.32 0 0.92 0.32 0 0.94 0.
[...]
			<PointData Scalars="VitesseX">
				<DataArray Name="VitesseX" type="Float32" format="ascii">
 0 0 0 0 0 0 0 0 0 0 0 0 0 0 0 0 0 0 0 0 0 0 0 0 0 0 0 0 0 0 0 0 0 0 0 0 0 0 0 0 0 0 0 0 0 0 0 0 0 0 0 0 0.00012777 0.000509948 0.00114206 0.00200737 0.00307458 0.00443831 0.00581744 0.00757226 0.00937183 0.0112442 0.0131791 0.0151424 0.0171019 0.0190238 0.0208748 0.022622 0.0242336 0.0256793 0.0269305 0.0279613 0.0287471 0.0292613 0.0294787 0.029425 0.0293683 0.0291424 0.0287961 0.0282298 0.0274482 0.0264641 0.0252934 0.0239549 0.0224694 0.0208598 0.0191516 0.0173725 0.0155504 0.0137139 0.0118921 0.0101137 0.00840678 0.00679838 0.00531425 0.00397877 0.00281542 0.0018435 0.00106961 0.000502355 0.000148936 1.25155e-27 0 0.000238718 0.00095189 0.00213196 0.00375293 0.00575088 0.00825631 0.0110458 0.0141238 0.0174456 0.0209576 0.0246021 0.0283192 0.0320483 0.0357275 0.0392957 0.0426938 0.0458648 0.0487553 0.0513156 0.0535011 0.0552751 0.0566137 0.0575117 0.057981 0.0581247 0.0578283 0.0571496 0.0560304 0.0544835 0.0525342 0.0502146 0.0475612 0.0446145 0.0414204 0.0380301 0.0344985 0.0308814 0.0272351 0.0236178 0.0200868 0.0166977 0.0135044 0.0105581 0.0079071 0.0055977 0.00366675 0.00213036 0.00100318 0.000299557 2.48337e-27 0 0.000346154 0.00137995 0.00309103 0.0054467 0.00842144 0.0119477 0.0159719 0.0204295 0.0252481 0.0303495 0.0356511 0.0410672 0.0465117 0.0518961 0.0571331 0.0621384 0.0668313 0.0711365 0.0749857 0.0783195 0.0810888 0.0832562 0.0847958 0.0856902 0.0859793 0.0856051 0.0846108 0.082959 0.0806742 0.0777939 0.0743644 0.070439 0.0660776 0.0613493 0.0563302 0.0511009 0.0457441 0.0403437 0.034986 0.0297561 0.0247363 0.0200066 0.0156427 0.0117161 0.00829452 0.00543262 0.00315632 0.00148719 0.00044471 3.67602e-27 0 0.00044851 0.00178805 0.00400296 0.00705418 0.0108904 0.0154492 0.0206569 0.0264294 0.0326734 0.0392887 0.0461695 0.0532059 0.0602878 0.0673018 0.0741357 0.080682 0.0868375 0.0925059 0.0975987 0.102037 0.105753 0.108691 0.110808 0.11207 0.112485 0.112035 0.110746 0.10859 0.105607 0.101843 0.0973601 0.0922252 0.0865184 0.0803304 0.0737611 0.0669155 0.059902 0.0528307 0.045815 0.0389666 0.0323933 0.0261997 0.020485 0.0153426 0.0108603 0.00711052 0.00412937 0.00194476 0.000576313 4.81069e-27 0 0.000544252 0.00216938 0.00485236 0.00854768 0.0131958 0.0187218 0.0250365 0.0320385 0.0396159 0.0476479 0.0560072 0.0645615 0.0731781 0.0817204 0.0900527 0.0980447 0.105571 0.112514 0.118766 0.124228 0.128816 0.132457 0.135096 0.136691 0.13722 0.1367 0.135141 0.132519 0.128887 0.124302 0.118836 0.112574 0.105612 0.098062 0.0900456 0.0816905 0.0731295 0.064497 0.0559319 0.047571 0.0395458 0.031984 0.0250068 0.0187277 0.013253 0.00867271 0.0050334 0.00236816 0.000705494 5.86949e-27 0 0.000631806 0.00251772 0.00562888 0.00991494 0.015307 0.0217183 0.0290462 0.0371738 0.0459716 0.0553003 0.0650125 0.0749552 0.0849752 0.0949144 0.104615 0.113925 0.1227 0.130803 0.138106 0.144497 0.149874 0.154151 0.157262 0.159157 0.159793 0.159212 0.157411 0.154366 0.150146 0.144814 0.138452 0.131162 0.123056 0.114263 0.104925 0.0951909 0.085216 0.0751568 0.0651754 0.0554319 0.0460793 0.0372668 0.0291354 0.021817 0.0154343 0.010094 0.00585382 0.0027507 0.000817314 6.8357e-27 0 0.000709983 0.00282826 0.00632196 0.0111349 0.0171898 0.0243898 0.0326198 0.0417489 0.0516321 0.0621132 0.0730273 0.084203 0.0954686 0.106647 0.11756 0.12804 0.137922 0.147053 0.155287 0.162502 0.16858 0.173418 0.176945 0.17911 0.179846 0.179216 0.177207 0.173793 0.169051 0.163056 0.155899 0.147693 0.138568 0.128671 0.118159 0.1072 0.095969 0.0846412 0.0733988 0.0624243 0.0518901 0.0419641 0.0328051 0.0245612 0.0173696 0.011352 0.00657775 0.00308642 0.000913496 7.69412e-27 0 0.000777185 0.00309581 0.00691895 0.0121852 0.01881 0.0266874 0.0356919 0.0456802 0.0564942 0.0679634 0.0799076 0.0921398 0.104473 0.116713 0.128667 0.14015 0.150983 0.161001 0.170033 0.177944 0.184619 0.189945 0.193839 0.196239 0.197068 0.196396 0.19421 0.19048 0.185293 0.178729 0.170891 0.161903 0.151908 0.141065 0.129545 0.117531 0.105213 0.0927905 0.080467 0.0684369 0.0568863 0.0460015 0.0359578 0.0269171 0.0190287 0.0124272 0.0071941 0.00337028 0.000993152 8.43118e-27 0 0.00083246 0.00331538 0.00740867 0.0130463 0.0201377 0.0285695 0.0382071 0.0488978 0.0604724 0.0727488 0.0855346 0.0986303 0.111836 0.124946 0.137751 0.15006 0.161667 0.172398 0.182087 0.19058 0.197749 0.203479 0.207676 0.210273 0.211182 0.21048 0.208153 0.204166 0.198617 0.19159 0.183197 0.173569 0.16286 0.151239 0.138892 0.126013 0.112808 0.0994896 0.0862722 0.07337 0.060987 0.049315 0.038544 0.0288479 0.0203859 0.0133035 0.00769367 0.00359815 0.00105531 9.03523e-27 0 0.000874704 0.00348306 0.00778242 0.0137031 0.0211497 0.0300031 0.0401222 0.0513465 0.0634989 0.0763884 0.0898138 0.103566 0.117436 0.131206 0.144661 0.157591 0.169791 0.181073 0.191265 0.200208 0.20776 0.213801 0.218235 0.220988 0.221967 0.221247 0.218818 0.21464 0.208817 0.20144 0.192624 0.18251 0.171255 0.159039 0.146057 0.132515 0.11863 0.104624 0.0907215 0.0771512 0.0641263 0.0518509 0.0405231 0.0303237 0.0214207 0.0139681 0.00806918 0.00376685 0.00109929 9.49679e-27 0 0.000903195 0.003596 0.00803383 0.0141443 0.0218288 0.0309642 0.0414048 0.0529852 0.065523 0.0788216 0.0926738 0.106864 0.121177 0.135391 0.149282 0.162629 0.175229 0.186885 0.19742 0.20667 0.214486 0.220744 0.225346 0.228213 0.229251 0.228527 0.226037 0.221735 0.215731 0.20812 0.199024 0.188583 0.176963 0.164347 0.150935 0.136942 0.122591 0.108114 0.0937446 0.0797179 0.0662569 0.053573 0.0418639 0.0313219 0.0221177 0.0144114 0.00831536 0.00387425 0.00112474 9.80866e-27 0 0.000917321 0.00365143 0.00815608 0.014357 0.0221537 0.031421 0.042011 0.0537564 0.0664725 0.0799605 0.0940112 0.108407 0.122929 0.137362 0.151467 0.165024 0.177826 0.189677 0.200396 0.209814 0.217781 0.224169 0.228877 0.231826 0.232918 0.232209 0.229703 0.225347 0.219259 0.211538 0.202304 0.191701 0.179895 0.167076 0.153446 0.139223 0.124636 0.109914 0.0953004 0.0810339 0.0673436 0.05445 0.0425504 0.0318282 0.022467 0.0146277 0.00842902 0.00391919 0.00113164 9.96592e-27 0 0.000917185 0.00365056 0.0081534 0.0143512 0.0221431 0.0314038 0.0419858 0.0537218 0.0664273 0.0799044 0.0939443 0.10833 0.122852 0.137282 0.151381 0.164931 0.177732 0.189589 0.200315 0.209742 0.21772 0.224121 0.228843 0.231807 0.232915 0.232229 0.229744 0.225404 0.219329 0.21162 0.202391 0.191787 0.179976 0.167148 0.153508 0.139276 0.124679 0.109948 0.0953241 0.081048 0.0673459 0.0544423 0.0425423 0.031825 0.0224564 0.0146096 0.00840677 0.00390076 0.00112002 9.96611e-27 0 0.000902537 0.00359178 0.00802109 0.0141165 0.0217786 0.0308838 0.0412868 0.0528234 0.0653126 0.07856 0.0923618 0.106509 0.120793 0.134978 0.148836 0.162165 0.174765 0.186439 0.197001 0.206289 0.214159 0.220486 0.225163 0.22811 0.229238 0.228624 0.22625 0.222036 0.216106 0.208555 0.199494 0.189066 0.17744 0.164802 0.151354 0.137315 0.122913 0.10838 0.0939521 0.0798706 0.0663579 0.0536293 0.0418948 0.0313348 0.0221054 0.0143697 0.00825547 0.00382184 0.00109075 9.80925e-27 0 0.000873644 0.00347628 0.00776204 0.0136587 0.0210696 0.0298748 0.0399339 0.0510879 0.0631623 0.0759696 0.0893129 0.102999 0.116812 0.130524 0.143927 0.156827 0.169025 0.180328 0.190559 0.199568 0.207211 0.213363 0.217923 0.220809 0.221945 0.221407 0.219172 0.21514 0.209439 0.202157 0.193401 0.18331 0.172049 0.159799 0.14676 0.133144 0.119173 0.105071 0.0910743 0.0774133 0.0643084 0.051965 0.0405832 0.0303471 0.0214115 0.0139054 0.00797501 0.00368296 0.00104428 9.49785e-27 0 0.000830948 0.00330583 0.00738019 0.0129846 0.0200266 0.0283921 0.0379474 0.0485416 0.0600094 0.0721741 0.0848488 0.0978505 0.11097 0.123996 0.136735 0.149002 0.160602 0.171354 0.1811 0.189688 0.196981 0.202863 0.207234 0.210018 0.211152 0.210705 0.208645 0.204862 0.199488 0.192604 0.184306 0.174718 0.163999 0.152328 0.139896 0.12691 0.113584 0.100135 0.0867844 0.0737534 0.0612565 0.0494912 0.0386412 0.0288871 0.0203767 0.0132236 0.00757119 0.00348691 0.000981644 9.0368e-27 0 0.000775135 0.00308311 0.00688147 0.0121047 0.0186661 0.0264589 0.0353587 0.0452248 0.0559036 0.0672313 0.0790398 0.0911476 0.103363 0.115497 0.127371 0.138808 0.149628 0.159663 0.16877 0.176801 0.183631 0.18915 0.193269 0.195915 0.197035 0.196639 0.194704 0.191172 0.186173 0.179802 0.172144 0.163302 0.153377 0.142498 0.130873 0.118716 0.106239 0.0936454 0.0811466 0.0689487 0.0572501 0.0462445 0.0360982 0.026976 0.0190178 0.0123373 0.00705189 0.00323735 0.00090428 8.43339e-27 0 0.000707106 0.00281176 0.00627404 0.0110333 0.01701 0.0241063 0.0322088 0.0411897 0.0509092 0.0612188 0.0719713 0.0829939 0.0941112 0.105162 0.115985 0.126409 0.136276 0.145444 0.153766 0.161114 0.167374 0.172447 0.176256 0.17874 0.179828 0.179444 0.177657 0.17444 0.169885 0.164064 0.157066 0.149037 0.140108 0.130346 0.119806 0.108688 0.0972517 0.0857062 0.0742496 0.0630725 0.0523543 0.042277 0.0329935 0.0246466 0.0173665 0.0112625 0.00642646 0.00293895 0.000813961 7.6971e-27 0 0.000627922 0.00249611 0.00556776 0.00978786 0.0150849 0.021372 0.0285481 0.0365006 0.045106 0.0542336 0.0637549 0.0735162 0.0833621 0.093154 0.102752 0.112003 0.120763 0.128914 0.136321 0.142873 0.148468 0.153023 0.156481 0.158775 0.159795 0.15948 0.157938 0.155124 0.151109 0.145955 0.139733 0.132554 0.124554 0.115902 0.106717 0.0969447 0.0867597 0.0764413 0.0662017 0.0562169 0.0466485 0.0376522 0.0293751 0.0219352 0.015448 0.0100119 0.00570418 0.00259703 0.000712513 6.83952e-27 0 0.000538794 0.0021409 0.00477337 0.00838791 0.0129217 0.0182994 0.024435 0.0312323 0.0385863 0.046386 0.0545223 0.0628656 0.0712847 0.0796633 0.087881 0.0958099 0.10333 0.110333 0.11671 0.122364 0.12721 0.131193 0.134262 0.136305 0.137236 0.137024 0.135762 0.133402 0.129997 0.125607 0.120288 0.114124 0.107225 0.0997094 0.0917691 0.0835465 0.0748984 0.0659921 0.0571271 0.048488 0.0402147 0.0324427 0.0253 0.018883 0.0132907 0.00860637 0.00489586 0.00221816 0.00060184 5.87411e-27 0 0.000441137 0.00175166 0.00390294 0.00685432 0.010553 0.0149371 0.0199351 0.0254684 0.0314528 0.0377991 0.0444197 0.051211 0.0580688 0.0648999 0.0716051 0.0780852 0.0842451 0.0899923 0.09524 0.0999085 0.103931 0.107296 0.109922 0.111672 0.112506 0.112412 0.111453 0.109584 0.106847 0.103292 0.0989675 0.0939363 0.0882842 0.0820983 0.0755022 0.0686921 0.0617686 0.0545079 0.0471655 0.040005 0.0331577 0.0267307 0.0208306 0.0155375 0.0109285 0.00706977 0.00401461 0.00180989 0.000484073 4.81603e-27 0 0.000336541 0.00133476 0.00297044 0.00521109 0.00801544 0.0113354 0.0151164 0.019299 0.0238204 0.0286109 0.033608 0.0387372 0.0439232 0.0490934 0.0541739 0.0590973 0.0637917 0.0681871 0.0722168 0.0758188 0.0789513 0.0816518 0.0838264 0.0852729 0.0860013 0.0860318 0.0853945 0.0840504 0.0820256 0.0793645 0.0761022 0.0722847 0.0679782 0.0632471 0.0581721 0.052862 0.0475282 0.0421324 0.0364669 0.0308977 0.0255824 0.0206005 0.016036 0.0119508 0.00839794 0.0054259 0.00307524 0.00137953 0.000362012 3.68195e-27 0 0.000226675 0.000896889 0.00199118 0.00348513 0.00534895 0.00754957 0.0100518 0.0128159 0.0158015 0.0189631 0.0222588 0.025643 0.0290725 0.032499 0.035872 0.0391536 0.0423013 0.045267 0.0480048 0.0504721 0.0526495 0.0546066 0.0563249 0.0575101 0.0581448 0.0583077 0.0580024 0.0572039 0.0559256 0.0542023 0.0520554 0.0495123 0.0466192 0.0434213 0.0399685 0.0363215 0.0325946 0.0289954 0.0251883 0.0213055 0.0176053 0.0141505 0.0109932 0.00817934 0.00573783 0.00369978 0.00209152 0.000933257 0.000239365 2.4897e-27 0 0.000113206 0.000444803 0.000980246 0.001703 0.00259591 0.00364157 0.00482258 0.00612065 0.0075192 0.00900198 0.0105469 0.0121333 0.0137503 0.0153805 0.0169966 0.0185861 0.0201394 0.0216293 0.0230318 0.0243265 0.0255068 0.0266184 0.0277374 0.0287399 0.0293763 0.0296726 0.0297012 0.0294592 0.0289526 0.0282007 0.0272066 0.0259797 0.0245473 0.0229324 0.0211584 0.0192563 0.0172706 0.0153644 0.0134947 0.0113765 0.00935199 0.00748008 0.00578045 0.0042814 0.00298931 0.00191824 0.00107785 0.000476833 0.000119267 1.25711e-27 0 -2.21229e-06 -1.50954e-05 -4.78874e-05 -0.000108139 -0.000200825 -0.000328053 -0.000488968 -0.000679287 -0.000891327 -0.00111739 -0.00135254 -0.00158935 -0.00181192 -0.0020066 -0.00217361 -0.00230063 -0.00236407 -0.00236637 -0.00230931 -0.00218849 -0.0019915 -0.00169102 -0.00124982 -0.000620426 9.3343e-05 0.00053509 0.00091035 0.00124421 0.00152689 0.00176693 0.00194706 0.00205858 0.00211213 0.00210508 0.00203627 0.00191194 0.00173812 0.00156764 0.00154377 0.00126253 0.000950395 0.000691801 0.000478685 0.00031709 0.000195188 0.00010871 4.96612e-05 1.61945e-05 2.35287e-06 2.8547e-30 0 -0.000122844 -0.000480543 -0.00108116 -0.00192329 -0.00299955 -0.00429636 -0.00579458 -0.00746953 -0.00928963 -0.0112209 -0.0132334 -0.0152896 -0.0173472 -0.0193632 -0.0213052 -0.0231404 -0.0248216 -0.0263079 -0.0275822 -0.0286177 -0.0293832 -0.0298419 -0.0299631 -0.0297188 -0.029216 -0.0286549 -0.027924 -0.0270076 -0.0259313 -0.0246994 -0.0233493 -0.0219058 -0.0203692 -0.0187657 -0.0171251 -0.0154666 -0.0138145 -0.0121811 -0.0104655 -0.00889161 -0.00747384 -0.0061111 -0.00483112 -0.00365216 -0.00260151 -0.00170224 -0.000978486 -0.000443642 -0.000113003 -1.2484e-27 0 -0.000254396 -0.000952743 -0.0021111 -0.00372103 -0.00576339 -0.00820918 -0.0110211 -0.0141538 -0.0175545 -0.0211631 -0.0249192 -0.0287622 -0.032623 -0.0364287 -0.0401144 -0.043624 -0.0468905 -0.0498374 -0.0524165 -0.0545863 -0.0562989 -0.0575078 -0.0581797 -0.0583222 -0.0580206 -0.0573664 -0.0562984 -0.05482 -0.0529635 -0.0507608 -0.0482631 -0.0455042 -0.0425072 -0.0393224 -0.0360033 -0.0325942 -0.0291455 -0.0257028 -0.0222479 -0.0188853 -0.015762 -0.0128054 -0.010057 -0.00755822 -0.00535386 -0.00348505 -0.00199021 -0.000896226 -0.000226516 -2.47864e-27 0 -0.000391263 -0.00142387 -0.00312263 -0.00547441 -0.00844992 -0.0120057 -0.0160869 -0.0206281 -0.0255549 -0.0307852 -0.0362256 -0.041795 -0.0473988 -0.0529347 -0.0583078 -0.0634321 -0.0682221 -0.072584 -0.0764327 -0.0797055 -0.0823411 -0.0842916 -0.0855268 -0.0860345 -0.0859023 -0.0851528 -0.0837641 -0.0817511 -0.0791496 -0.0760157 -0.0724085 -0.06837 -0.0639516 -0.0592343 -0.0542884 -0.0491859 -0.0440002 -0.038803 -0.033618 -0.0285375 -0.0237777 -0.0192855 -0.0151188 -0.0113421 -0.00802056 -0.0052124 -0.00296987 -0.00133448 -0.000336462 -3.67016e-27 0 -0.0005282 -0.00188344 -0.00409836 -0.00715522 -0.0110165 -0.0156259 -0.0209119 -0.0267903 -0.0331655 -0.0399328 -0.046978 -0.0541873 -0.0614435 -0.0686213 -0.0755977 -0.0822568 -0.08849 -0.0941875 -0.0992523 -0.103591 -0.107113 -0.109783 -0.111562 -0.112409 -0.112426 -0.111589 -0.109901 -0.107379 -0.104079 -0.100065 -0.0953877 -0.0901187 -0.08435 -0.0781718 -0.0716751 -0.0649572 -0.0581162 -0.051252 -0.044415 -0.0377047 -0.0313985 -0.0254505 -0.0199365 -0.0149443 -0.0105594 -0.00685663 -0.00390226 -0.00175148 -0.000441103 -4.80436e-27 0 -0.000661337 -0.00232127 -0.00502037 -0.00873532 -0.0134215 -0.0190118 -0.0254195 -0.0325429 -0.0402669 -0.0484654 -0.0570058 -0.0657434 -0.0745376 -0.0832438 -0.0917146 -0.0998074 -0.107388 -0.11433 -0.120519 -0.125843 -0.130215 -0.133576 -0.135867 -0.137035 -0.137178 -0.136266 -0.134298 -0.131309 -0.12736 -0.12251 -0.11683 -0.110422 -0.1034 -0.0958597 -0.0879161 -0.0796886 -0.0712996 -0.0628761 -0.054487 -0.046256 -0.0385108 -0.0312058 -0.0244353 -0.0183081 -0.0129301 -0.00839158 -0.00477285 -0.00214067 -0.000538765 -5.86324e-27 0 -0.000787541 -0.00272819 -0.00587144 -0.0101876 -0.0156256 -0.0221087 -0.0295376 -0.0377945 -0.0467465 -0.0562483 -0.0661452 -0.076279 -0.0864773 -0.0965747 -0.106407 -0.115807 -0.124621 -0.132702 -0.139916 -0.146145 -0.151291 -0.155274 -0.158034 -0.159501 -0.15977 -0.15879 -0.15657 -0.153156 -0.148606 -0.142994 -0.136417 -0.128986 -0.12082 -0.112036 -0.102772 -0.0931658 -0.0833632 -0.0735132 -0.0636884 -0.0540643 -0.0450073 -0.0364627 -0.0285451 -0.0213807 -0.0150953 -0.00979334 -0.00556801 -0.00249599 -0.000627898 -6.82995e-27 0 -0.000903741 -0.00309606 -0.00663584 -0.011487 -0.017592 -0.0248664 -0.0332001 -0.0424613 -0.0525016 -0.0631585 -0.0742595 -0.0856296 -0.0970749 -0.108406 -0.119443 -0.130004 -0.139914 -0.149009 -0.157142 -0.16418 -0.17001 -0.174545 -0.17772 -0.179454 -0.17983 -0.178801 -0.176359 -0.172567 -0.167488 -0.161212 -0.153845 -0.145506 -0.136322 -0.126434 -0.115994 -0.105163 -0.0941036 -0.0829839 -0.0718666 -0.0610115 -0.0507884 -0.04114 -0.0322018 -0.0241139 -0.0170209 -0.0110399 -0.00627501 -0.00281191 -0.000707108 -7.68902e-27 0 -0.00100669 -0.00341766 -0.00729957 -0.0126109 -0.0192878 -0.0272398 -0.0363478 -0.0464686 -0.0574405 -0.0690861 -0.0812174 -0.0936435 -0.10616 -0.118551 -0.130622 -0.142177 -0.153027 -0.162994 -0.171916 -0.17965 -0.186074 -0.19109 -0.194624 -0.196586 -0.197054 -0.195985 -0.193355 -0.189244 -0.183722 -0.176881 -0.168835 -0.159713 -0.149657 -0.138822 -0.127373 -0.115488 -0.103348 -0.091135 -0.07888 -0.0669882 -0.0557647 -0.0451651 -0.0353487 -0.0264648 -0.0186767 -0.0121115 -0.00688254 -0.00308342 -0.000775163 -8.42678e-27 0 -0.00109314 -0.00368676 -0.0078506 -0.0135395 -0.0206845 -0.0291897 -0.0389295 -0.0497518 -0.0614839 -0.0739368 -0.0869094 -0.100198 -0.113585 -0.126845 -0.139763 -0.152135 -0.163755 -0.174436 -0.184007 -0.192315 -0.199229 -0.204642 -0.208473 -0.210626 -0.211174 -0.210075 -0.2073 -0.202934 -0.19705 -0.18975 -0.181154 -0.171389 -0.160619 -0.149008 -0.136732 -0.123982 -0.110953 -0.097834 -0.08462 -0.071905 -0.0598588 -0.0484714 -0.0379341 -0.0283962 -0.0200364 -0.0129911 -0.00738107 -0.00330615 -0.000830988 -9.03173e-27 0 -0.00116238 -0.0038982 -0.0082789 -0.0142567 -0.0217582 -0.0306837 -0.040903 -0.0522577 -0.0645668 -0.0776325 -0.0912442 -0.105188 -0.119236 -0.133156 -0.146719 -0.159713 -0.171925 -0.183154 -0.193224 -0.201971 -0.209261 -0.21498 -0.219044 -0.221348 -0.221964 -0.220852 -0.217972 -0.213416 -0.207265 -0.19962 -0.190602 -0.180355 -0.169041 -0.156834 -0.143923 -0.13051 -0.116797 -0.102961 -0.0890134 -0.0756913 -0.0630057 -0.0510076 -0.039916 -0.0298772 -0.0210786 -0.013665 -0.00776281 -0.00347657 -0.000873686 -9.49436e-27 0 -0.00121312 -0.00404796 -0.00857662 -0.0147497 -0.0224905 -0.0316967 -0.0422357 -0.0539451 -0.066639 -0.0801135 -0.0941517 -0.108533 -0.123023 -0.137384 -0.151383 -0.164793 -0.177401 -0.189004 -0.199412 -0.20846 -0.21601 -0.221941 -0.226167 -0.228584 -0.229255 -0.228144 -0.225201 -0.220528 -0.214204 -0.20633 -0.197034 -0.186463 -0.174782 -0.162174 -0.148833 -0.134969 -0.120788 -0.106405 -0.0920017 -0.0782851 -0.0651548 -0.0527411 -0.0412661 -0.030885 -0.0217869 -0.0141224 -0.00802178 -0.00359205 -0.000902581 -9.80721e-27 0 -0.0012382 -0.00413283 -0.00873747 -0.0150081 -0.0228657 -0.0322067 -0.0428981 -0.0547763 -0.0676531 -0.0813222 -0.0955636 -0.110154 -0.124856 -0.139428 -0.153638 -0.167258 -0.180064 -0.191854 -0.202438 -0.211648 -0.219341 -0.225393 -0.229719 -0.232213 -0.23293 -0.231835 -0.228876 -0.224158 -0.217758 -0.20978 -0.200352 -0.189623 -0.17776 -0.164949 -0.151391 -0.137296 -0.122862 -0.108098 -0.0935568 -0.0796413 -0.0662741 -0.0536448 -0.0419638 -0.0314036 -0.0221502 -0.0143563 -0.00815391 -0.00365078 -0.000917224 -9.96528e-27 0 -0.00123857 -0.00415144 -0.00876208 -0.0150353 -0.0228922 -0.0322295 -0.0429157 -0.0547884 -0.06766 -0.081324 -0.0955606 -0.110146 -0.124843 -0.139411 -0.153616 -0.167233 -0.180039 -0.191829 -0.202415 -0.211626 -0.219321 -0.225376 -0.229708 -0.232209 -0.232932 -0.231861 -0.228926 -0.22423 -0.21785 -0.209889 -0.200474 -0.189754 -0.177896 -0.165086 -0.151525 -0.137421 -0.122908 -0.108024 -0.0936287 -0.0797082 -0.0663245 -0.0536852 -0.0419864 -0.0314175 -0.0221581 -0.0143604 -0.00815607 -0.0036515 -0.000917334 -9.96611e-27 0 -0.00124763 -0.00409714 -0.00864306 -0.014817 -0.0225452 -0.0317263 -0.0422323 -0.0539049 -0.06656 -0.0799949 -0.0939935 -0.108336 -0.12279 -0.137117 -0.15109 -0.164487 -0.17709 -0.188697 -0.199122 -0.208198 -0.215783 -0.22176 -0.226043 -0.228528 -0.229265 -0.228267 -0.225435 -0.220865 -0.214631 -0.206833 -0.197595 -0.187062 -0.1754 -0.162792 -0.149437 -0.135509 -0.120984 -0.106397 -0.0923058 -0.07857