<?xml version="1.0"?>
<VTKFile type="PolyData">
	<PolyData>
		<Piece NumberOfPoints="2601" NumberOfPolys="2500">
			<Points>
				<DataArray type="Float32" NumberOfComponents="3" format="ascii">
 0 0 0 0.02 0 0 0.04 0 0 0.06 0 0 0.08 0 0 0.1 0 0 0.12 0 0 0.14 0 0 0.16 0 0 0.18 0 0 0.2 0 0 0.22 0 0 0.24 0 0 0.26 0 0 0.28 0 0 0.3 0 0 0.32 0 0 0.34 0 0 0.36 0 0 0.38 0 0 0.4 0 0 0.42 0 0 0.44 0 0 0.46 0 0 0.48 0 0 0.5 0 0 0.52 0 0 0.54 0 0 0.56 0 0 0.58 0 0 0.6 0 0 0.62 0 0 0.64 0 0 0.66 0 0 0.68 0 0 0.7 0 0 0.72 0 0 0.74 0 0 0.76 0 0 0.78 0 0 0.8 0 0 0.82 0 0 0.84 0 0 0.86 0 0 0.88 0 0 0.9 0 0 0.92 0 0 0.94 0 0 0.96 0 0 0.98 0 0 1 0 0 0 0.02 0 0.02 0.02 0 0.04 0.02 0 0.06 0.02 0 0.08 0.02 0 0.1 0.02 0 0.12 0.02 0 0.14 0.02 0 0.16 0.02 0 0.18 0.02 0 0.2 0.02 0 0.22 0.02 0 0.24 0.02 0 0.26 0.02 0 0.28 0.02 0 0.3 0.02 0 0.32 0.02 0 0.34 0.02 0 0.36 0.02 0 0.38 0.02 0 0.4 0.02 0 0.42 0.02 0 0.44 0.02 0 0.46 0.02 0 0.48 0.02 0 0.5 0.02 0 0.52 0.02 0 0.54 0.02 0 0.56 0.02 0 0.58 0.02 0 0.6 0.02 0 0.62 0.02 0 0.64 0.02 0 0.66 0.02 0 0.68 0.02 0 0.7 0.02 0 0.72 0.02 0 0.74 0.02 0 0.76 0.02 0 0.78 0.02 0 0.8 0.02 0 0.82 0.02 0 0.84 0.02 0 0.86 0.02 0 0.88 0.02 0 0.9 0.02 0 0.92 0.02 0 0.94 0.02 0 0.96 0.02 0 0.98 0.02 0 1 0.02 0 0 0.04 0 0.02 0.04 0 0.04 0.04 0 0.06 0.04 0 0.08 0.04 0 0.1 0.04 0 0.12 0.04 0 0.14 0.04 0 0.16 0.04 0 0.18 0.04 0 0.2 0.04 0 0.22 0.04 0 0.24 0.04 0 0.26 0.04 0 0.28 0.04 0 0.3 0.04 0 0.32 0.04 0 0.34 0.04 0 0.36 0.04 0 0.38 0.04 0 0.4 0.04 0 0.42 0.04 0 0.44 0.04 0 0.46 0.04 0 0.48 0.04 0 0.5 0.04 0 0.52 0.04 0 0.54 0.04 0 0.56 0.04 0 0.58 0.04 0 0.6 0.04 0 0.62 0.04 0 0.64 0.04 0 0.66 0.04 0 0.68 0.04 0 0.7 0.04 0 0.72 0.04 0 0.74 0.04 0 0.76 0.04 0 0.78 0.04 0 0.8 0.04 0 0.82 0.04 0 0.84 0.04 0 0.86 0.04 0 0.88 0.04 0 0.9 0.04 0 0.92 0.04 0 0.94 0.04 0 0.96 0.04 0 0.98 0.04 0 1 0.04 0 0 0.06 0 0.02 0.06 0 0.04 0.06 0 0.06 0.06 0 0.08 0.06 0 0.1 0.06 0 0.12 0.06 0 0.14 0.06 0 0.16 0.06 0 0.18 0.06 0 0.2 0.06 0 0.22 0.06 0 0.24 0.06 0 0.26 0.06 0 0.28 0.06 0 0.3 0.06 0 0.32 0.06 0 0.34 0.06 0 0.36 0.06 0 0.38 0.06 0 0.4 0.06 0 0.42 0.06 0 0.44 0.06 0 0.46 0.06 0 0.48 0.06 0 0.5 0.06 0 0.52 0.06 0 0.54 0.06 0 0.56 0.06 0 0.58 0.06 0 0.6 0.06 0 0.62 0.06 0 0.64 0.06 0 0.66 0.06 0 0.68 0.06 0 0.7 0.06 0 0.72 0.06 0 0.74 0.06 0 0.76 0.06 0 0.78 0.06 0 0.8 0.06 0 0.82 0.06 0 0.84 0.06 0 0.86 0.06 0 0.88 0.06 0 0.9 0.06 0 0.92 0.06 0 0.94 0.06 0 0.96 0.06 0 0.98 0.06 0 1 0.06 0 0 0.08 0 0.02 0.08 0 0.04 0.08 0 0.06 0.08 0 0.08 0.08 0 0.1 0.08 0 0.12 0.08 0 0.14 0.08 0 0.16 0.08 0 0.18 0.08 0 0.2 0.08 0 0.22 0.08 0 0.24 0.08 0 0.26 0.08 0 0.28 0.08 0 0.3 0.08 0 0.32 0.08 0 0.34 0.08 0 0.36 0.08 0 0.38 0.08 0 0.4 0.08 0 0.42 0.08 0 0.44 0.08 0 0.46 0.08 0 0.48 0.08 0 0.5 0.08 0 0.52 0.08 0 0.54 0.08 0 0.56 0.08 0 0.58 0.08 0 0.6 0.08 0 0.62 0.08 0 0.64 0.08 0 0.66 0.08 0 0.68 0.08 0 0.7 0.08 0 0.72 0.08 0 0.74 0.08 0 0.76 0.08 0 0.78 0.08 0 0.8 0.08 0 0.82 0.08 0 0.84 0.08 0 0.86 0.08 0 0.88 0.08 0 0.9 0.08 0 0.92 0.08 0 0.94 0.08 0 0.96 0.08 0 0.98 0.08 0 1 0.08 0 0 0.1 0 0.02 0.1 0 0.04 0.1 0 0.06 0.1 0 0.08 0.1 0 0.1 0.1 0 0.12 0.1 0 0.14 0.1 0 0.16 0.1 0 0.18 0.1 0 0.2 0.1 0 0.22 0.1 0 0.24 0.1 0 0.26 0.1 0 0.28 0.1 0 0.3 0.1 0 0.32 0.1 0 0.34 0.1 0 0.36 0.1 0 0.38 0.1 0 0.4 0.1 0 0.42 0.1 0 0.44 0.1 0 0.46 0.1 0 0.48 0.1 0 0.5 0.1 0 0.52 0.1 0 0.54 0.1 0 0.56 0.1 0 0.58 0.1 0 0.6 0.1 0 0.62 0.1 0 0.64 0.1 0 0.66 0.1 0 0.68 0.1 0 0.7 0.1 0 0.72 0.1 0 0.74 0.1 0 0.76 0.1 0 0.78 0.1 0 0.8 0.1 0 0.82 0.1 0 0.84 0.1 0 0.86 0.1 0 0.88 0.1 0 0.9 0.1 0 0.92 0.1 0 0.94 0.1 0 0.96 0.1 0 0.98 0.1 0 1 0.1 0 0 0.12 0 0.02 0.12 0 0.04 0.12 0 0.06 0.12 0 0.08 0.12 0 0.1 0.12 0 0.12 0.12 0 0.14 0.12 0 0.16 0.12 0 0.18 0.12 0 0.2 0.12 0 0.22 0.12 0 0.24 0.12 0 0.26 0.12 0 0.28 0.12 0 0.3 0.12 0 0.32 0.12 0 0.34 0.12 0 0.36 0.12 0 0.38 0.12 0 0.4 0.12 0 0.42 0.12 0 0.44 0.12 0 0.46 0.12 0 0.48 0.12 0 0.5 0.12 0 0.52 0.12 0 0.54 0.12 0 0.56 0.12 0 0.58 0.12 0 0.6 0.12 0 0.62 0.12 0 0.64 0.12 0 0.66 0.12 0 0.68 0.12 0 0.7 0.12 0 0.72 0.12 0 0.74 0.12 0 0.76 0.12 0 0.78 0.12 0 0.8 0.12 0 0.82 0.12 0 0.84 0.12 0 0.86 0.12 0 0.88 0.12 0 0.9 0.12 0 0.92 0.12 0 0.94 0.12 0 0.96 0.12 0 0.98 0.12 0 1 0.12 0 0 0.14 0 0.02 0.14 0 0.04 0.14 0 0.06 0.14 0 0.08 0.14 0 0.1 0.14 0 0.12 0.14 0 0.14 0.14 0 0.16 0.14 0 0.18 0.14 0 0.2 0.14 0 0.22 0.14 0 0.24 0.14 0 0.26 0.14 0 0.28 0.14 0 0.3 0.14 0 0.32 0.14 0 0.34 0.14 0 0.36 0.14 0 0.38 0.14 0 0.4 0.14 0 0.42 0.14 0 0.44 0.14 0 0.46 0.14 0 0.48 0.14 0 0.5 0.14 0 0.52 0.14 0 0.54 0.14 0 0.56 0.14 0 0.58 0.14 0 0.6 0.14 0 0.62 0.14 0 0.64 0.14 0 0.66 0.14 0 0.68 0.14 0 0.7 0.14 0 0.72 0.14 0 0.74 0.14 0 0.76 0.14 0 0.78 0.14 0 0.8 0.14 0 0.82 0.14 0 0.84 0.14 0 0.86 0.14 0 0.88 0.14 0 0.9 0.14 0 0.92 0.14 0 0.94 0.14 0 0.96 0.14 0 0.98 0.14 0 1 0.14 0 0 0.16 0 0.02 0.16 0 0.04 0.16 0 0.06 0.16 0 0.08 0.16 0 0.1 0.16 0 0.12 0.16 0 0.14 0.16 0 0.16 0.16 0 0.18 0.16 0 0.2 0.16 0 0.22 0.16 0 0.24 0.16 0 0.26 0.16 0 0.28 0.16 0 0.3 0.16 0 0.32 0.16 0 0.34 0.16 0 0.36 0.16 0 0.38 0.16 0 0.4 0.16 0 0.42 0.16 0 0.44 0.16 0 0.46 0.16 0 0.48 0.16 0 0.5 0.16 0 0.52 0.16 0 0.54 0.16 0 0.56 0.16 0 0.58 0.16 0 0.6 0.16 0 0.62 0.16 0 0.64 0.16 0 0.66 0.16 0 0.68 0.16 0 0.7 0.16 0 0.72 0.16 0 0.74 0.16 0 0.76 0.16 0 0.78 0.16 0 0.8 0.16 0 0.82 0.16 0 0.84 0.16 0 0.86 0.16 0 0.88 0.16 0 0.9 0.16 0 0.92 0.16 0 0.94 0.16 0 0.96 0.16 0 0.98 0.16 0 1 0.16 0 0 0.18 0 0.02 0.18 0 0.04 0.18 0 0.06 0.18 0 0.08 0.18 0 0.1 0.18 0 0.12 0.18 0 0.14 0.18 0 0.16 0.18 0 0.18 0.18 0 0.2 0.18 0 0.22 0.18 0 0.24 0.18 0 0.26 0.18 0 0.28 0.18 0 0.3 0.18 0 0.32 0.18 0 0.34 0.18 0 0.36 0.18 0 0.38 0.18 0 0.4 0.18 0 0.42 0.18 0 0.44 0.18 0 0.46 0.18 0 0.48 0.18 0 0.5 0.18 0 0.52 0.18 0 0.54 0.18 0 0.56 0.18 0 0.58 0.18 0 0.6 0.18 0 0.62 0.18 0 0.64 0.18 0 0.66 0.18 0 0.68 0.18 0 0.7 0.18 0 0.72 0.18 0 0.74 0.18 0 0.76 0.18 0 0.78 0.18 0 0.8 0.18 0 0.82 0.18 0 0.84 0.18 0 0.86 0.18 0 0.88 0.18 0 0.9 0.18 0 0.92 0.18 0 0.94 0.18 0 0.96 0.18 0 0.98 0.18 0 1 0.18 0 0 0.2 0 0.02 0.2 0 0.04 0.2 0 0.06 0.2 0 0.08 0.2 0 0.1 0.2 0 0.12 0.2 0 0.14 0.2 0 0.16 0.2 0 0.18 0.2 0 0.2 0.2 0 0.22 0.2 0 0.24 0.2 0 0.26 0.2 0 0.28 0.2 0 0.3 0.2 0 0.32 0.2 0 0.34 0.2 0 0.36 0.2 0 0.38 0.2 0 0.4 0.2 0 0.42 0.2 0 0.44 0.2 0 0.46 0.2 0 0.48 0.2 0 0.5 0.2 0 0.52 0.2 0 0.54 0.2 0 0.56 0.2 0 0.58 0.2 0 0.6 0.2 0 0.62 0.2 0 0.64 0.2 0 0.66 0.2 0 0.68 0.2 0 0.7 0.2 0 0.72 0.2 0 0.74 0.2 0 0.76 0.2 0 0.78 0.2 0 0.8 0.2 0 0.82 0.2 0 0.84 0.2 0 0.86 0.2 0 0.88 0.2 0 0.9 0.2 0 0.92 0.2 0 0.94 0.2 0 0.96 0.2 0 0.98 0.2 0 1 0.2 0 0 0.22 0 0.02 0.22 0 0.04 0.22 0 0.06 0.22 0 0.08 0.22 0 0.1 0.22 0 0.12 0.22 0 0.14 0.22 0 0.16 0.22 0 0.18 0.22 0 0.2 0.22 0 0.22 0.22 0 0.24 0.22 0 0.26 0.22 0 0.28 0.22 0 0.3 0.22 0 0.32 0.22 0 0.34 0.22 0 0.36 0.22 0 0.38 0.22 0 0.4 0.22 0 0.42 0.22 0 0.44 0.22 0 0.46 0.22 0 0.48 0.22 0 0.5 0.22 0 0.52 0.22 0 0.54 0.22 0 0.56 0.22 0 0.58 0.22 0 0.6 0.22 0 0.62 0.22 0 0.64 0.22 0 0.66 0.22 0 0.68 0.22 0 0.7 0.22 0 0.72 0.22 0 0.74 0.22 0 0.76 0.22 0 0.78 0.22 0 0.8 0.22 0 0.82 0.22 0 0.84 0.22 0 0.86 0.22 0 0.88 0.22 0 0.9 0.22 0 0.92 0.22 0 0.94 0.22 0 0.96 0.22 0 0.98 0.22 0 1 0.22 0 0 0.24 0 0.02 0.24 0 0.04 0.24 0 0.06 0.24 0 0.08 0.24 0 0.1 0.24 0 0.12 0.24 0 0.14 0.24 0 0.16 0.24 0 0.18 0.24 0 0.2 0.24 0 0.22 0.24 0 0.24 0.24 0 0.26 0.24 0 0.28 0.24 0 0.3 0.24 0 0.32 0.24 0 0.34 0.24 0 0.36 0.24 0 0.38 0.24 0 0.4 0.24 0 0.42 0.24 0 0.44 0.24 0 0.46 0.24 0 0.48 0.24 0 0.5 0.24 0 0.52 0.24 0 0.54 0.24 0 0.56 0.24 0 0.58 0.24 0 0.6 0.24 0 0.62 0.24 0 0.64 0.24 0 0.66 0.24 0 0.68 0.24 0 0.7 0.24 0 0.72 0.24 0 0.74 0.24 0 0.76 0.24 0 0.78 0.24 0 0.8 0.24 0 0.82 0.24 0 0.84 0.24 0 0.86 0.24 0 0.88 0.24 0 0.9 0.24 0 0.92 0.24 0 0.94 0.24 0 0.96 0.24 0 0.98 0.24 0 1 0.24 0 0 0.26 0 0.02 0.26 0 0.04 0.26 0 0.06 0.26 0 0.08 0.26 0 0.1 0.26 0 0.12 0.26 0 0.14 0.26 0 0.16 0.26 0 0.18 0.26 0 0.2 0.26 0 0.22 0.26 0 0.24 0.26 0 0.26 0.26 0 0.28 0.26 0 0.3 0.26 0 0.32 0.26 0 0.34 0.26 0 0.36 0.26 0 0.38 0.26 0 0.4 0.26 0 0.42 0.26 0 0.44 0.26 0 0.46 0.26 0 0.48 0.26 0 0.5 0.26 0 0.52 0.26 0 0.54 0.26 0 0.56 0.26 0 0.58 0.26 0 0.6 0.26 0 0.62 0.26 0 0.64 0.26 0 0.66 0.26 0 0.68 0.26 0 0.7 0.26 0 0.72 0.26 0 0.74 0.26 0 0.76 0.26 0 0.78 0.26 0 0.8 0.26 0 0.82 0.26 0 0.84 0.26 0 0.86 0.26 0 0.88 0.26 0 0.9 0.26 0 0.92 0.26 0 0.94 0.26 0 0.96 0.26 0 0.98 0.26 0 1 0.26 0 0 0.28 0 0.02 0.28 0 0.04 0.28 0 0.06 0.28 0 0.08 0.28 0 0.1 0.28 0 0.12 0.28 0 0.14 0.28 0 0.16 0.28 0 0.18 0.28 0 0.2 0.28 0 0.22 0.28 0 0.24 0.28 0 0.26 0.28 0 0.28 0.28 0 0.3 0.28 0 0.32 0.28 0 0.34 0.28 0 0.36 0.28 0 0.38 0.28 0 0.4 0.28 0 0.42 0.28 0 0.44 0.28 0 0.46 0.28 0 0.48 0.28 0 0.5 0.28 0 0.52 0.28 0 0.54 0.28 0 0.56 0.28 0 0.58 0.28 0 0.6 0.28 0 0.62 0.28 0 0.64 0.28 0 0.66 0.28 0 0.68 0.28 0 0.7 0.28 0 0.72 0.28 0 0.74 0.28 0 0.76 0.28 0 0.78 0.28 0 0.8 0.28 0 0.82 0.28 0 0.84 0.28 0 0.86 0.28 0 0.88 0.28 0 0.9 0.28 0 0.92 0.28 0 0.94 0.28 0 0.96 0.28 0 0.98 0.28 0 1 0.28 0 0 0.3 0 0.02 0.3 0 0.04 0.3 0 0.06 0.3 0 0.08 0.3 0 0.1 0.3 0 0.12 0.3 0 0.14 0.3 0 0.16 0.3 0 0.18 0.3 0 0.2 0.3 0 0.22 0.3 0 0.24 0.3 0 0.26 0.3 0 0.28 0.3 0 0.3 0.3 0 0.32 0.3 0 0.34 0.3 0 0.36 0.3 0 0.38 0.3 0 0.4 0.3 0 0.42 0.3 0 0.44 0.3 0 0.46 0.3 0 0.48 0.3 0 0.5 0.3 0 0.52 0.3 0 0.54 0.3 0 0.56 0.3 0 0.58 0.3 0 0.6 0.3 0 0.62 0.3 0 0.64 0.3 0 0.66 0.3 0 0.68 0.3 0 0.7 0.3 0 0.72 0.3 0 0.74 0.3 0 0.76 0.3 0 0.78 0.3 0 0.8 0.3 0 0.82 0.3 0 0.84 0.3 0 0.86 0.3 0 0.88 0.3 0 0.9 0.3 0 0.92 0.3 0 0.94 0.3 0 0.96 0.3 0 0.98 0.3 0 1 0.3 0 0 0.32 0 0.02 0.32 0 0.04 0.32 0 0.06 0.32 0 0.08 0.32 0 0.1 0.32 0 0.12 0.32 0 0.14 0.32 0 0.16 0.32 0 0.18 0.32 0 0.2 0.32 0 0.22 0.32 0 0.24 0.32 0 0.26 0.32 0 0.28 0.32 0 0.3 0.32 0 0.32 0.32 0 0.34 0.32 0 0.36 0.32 0 0.38 0.32 0 0.4 0.32 0 0.42 0.32 0 0.44 0.32 0 0.46 0.32 0 0.48 0.32 0 0.5 0.32 0 0.52 0.32 0 0.54 0.32 0 0.56 0.32 0 0.58 0.32 0 0.6 0.32 0 0.62 0.32 0 0.64 0.32 0 0.66 0.32 0 0.68 0.32 0 0.7 0.32 0 0.72 0.32 0 0.74 0.32 0 0.76 0.32 0 0.78 0.32 0 0.8 0.32 0 0.82 0.32 0 0.84 0.32 0 0.86 0.32 0 0.88 0.32 0 0.9 0.32 0 0.92 0.32 0 0.94 0.
[...]
			<PointData Scalars="VitesseX">
				<DataArray Name="VitesseX" type="Float32" format="ascii">
 0 0 0 0 0 0 0 0 0 0 0 0 0 0 0 0 0 0 0 0 0 0 0 0 0 0 0 0 0 0 0 0 0 0 0 0 0 0 0 0 0 0 0 0 0 0 0 0 0 0 -0 0 -0.000881711 -0.00242475 -0.00476239 -0.00785835 -0.0116646 -0.0161222 -0.0211624 -0.0267073 -0.0326713 -0.0389614 -0.0454794 -0.0521388 -0.0588361 -0.0654548 -0.0718942 -0.0780533 -0.0838325 -0.0891392 -0.0938928 -0.0980244 -0.101473 -0.104175 -0.106073 -0.10709 -0.11237 -0.118011 -0.118856 -0.117505 -0.114694 -0.110917 -0.106417 -0.10107 -0.094999 -0.0884486 -0.0814479 -0.0740983 -0.0665229 -0.058829 -0.0511007 -0.043293 -0.0351744 -0.0292209 -0.0229758 -0.0172343 -0.0123149 -0.00806868 -0.00464824 -0.00211039 -0.000539397 -7.13541e-27 0 -0.00172458 -0.00477144 -0.009398 -0.0155334 -0.0230834 -0.031932 -0.0419439 -0.0529655 -0.0648266 -0.0773424 -0.0903167 -0.103575 -0.116908 -0.130076 -0.142869 -0.155076 -0.166505 -0.176984 -0.186369 -0.194455 -0.201188 -0.206556 -0.21045 -0.212487 -0.216891 -0.220144 -0.219793 -0.216723 -0.211466 -0.204486 -0.196046 -0.18608 -0.174839 -0.16267 -0.149646 -0.136005 -0.121975 -0.107793 -0.0936901 -0.0798826 -0.0665559 -0.0538396 -0.0421672 -0.0314171 -0.0222776 -0.0145133 -0.00830373 -0.00374653 -0.000950202 -1.15138e-26 0 -0.00251369 -0.00700162 -0.0138351 -0.0229124 -0.0340955 -0.0472115 -0.0620549 -0.0783907 -0.0959595 -0.114483 -0.133673 -0.153271 -0.172969 -0.192424 -0.211332 -0.229265 -0.246196 -0.261828 -0.275933 -0.287987 -0.298051 -0.305951 -0.311556 -0.314536 -0.317746 -0.319664 -0.317984 -0.312948 -0.305132 -0.294895 -0.282491 -0.268003 -0.251718 -0.234046 -0.215199 -0.195488 -0.175231 -0.154769 -0.134434 -0.114541 -0.0954103 -0.0773458 -0.0605632 -0.0452466 -0.0319426 -0.0207308 -0.011827 -0.00532322 -0.00134591 -1.57155e-26 0 -0.00324898 -0.00909953 -0.0180191 -0.0298702 -0.0444696 -0.0615918 -0.0809725 -0.102311 -0.125276 -0.149511 -0.174641 -0.200331 -0.226223 -0.251663 -0.276784 -0.30046 -0.322564 -0.342934 -0.361189 -0.377025 -0.390196 -0.400495 -0.407775 -0.411627 -0.414151 -0.414811 -0.411599 -0.40456 -0.394131 -0.380645 -0.364387 -0.345527 -0.324404 -0.301487 -0.277109 -0.251645 -0.225498 -0.199105 -0.172889 -0.147249 -0.122594 -0.0993185 -0.0777876 -0.0582733 -0.0408576 -0.0266316 -0.0151637 -0.00681602 -0.00172044 -1.96764e-26 0 -0.00388477 -0.0109591 -0.0217765 -0.0361781 -0.0539471 -0.074812 -0.0984563 -0.124507 -0.152564 -0.182113 -0.212685 -0.244592 -0.27666 -0.307565 -0.33781 -0.36673 -0.393844 -0.418727 -0.440989 -0.460281 -0.476303 -0.488807 -0.49761 -0.502237 -0.504326 -0.503845 -0.49907 -0.490002 -0.476991 -0.46037 -0.440436 -0.41744 -0.391778 -0.363965 -0.334435 -0.303626 -0.272014 -0.240128 -0.208473 -0.177521 -0.147759 -0.11966 -0.0936747 -0.0701974 -0.0492369 -0.0320777 -0.0182626 -0.00820177 -0.00206803 -2.3336e-26 0 -0.0044113 -0.0125694 -0.0250846 -0.041781 -0.0624335 -0.086749 -0.114316 -0.144654 -0.177557 -0.21292 -0.248911 -0.28538 -0.322167 -0.358499 -0.393806 -0.427526 -0.459127 -0.488109 -0.514013 -0.536435 -0.555027 -0.569502 -0.579652 -0.584942 -0.586722 -0.585203 -0.578902 -0.567858 -0.552379 -0.532806 -0.50946 -0.482652 -0.452822 -0.420537 -0.386314 -0.350648 -0.314082 -0.277223 -0.24065 -0.204898 -0.170524 -0.138068 -0.108052 -0.0809479 -0.0571576 -0.0369412 -0.0210827 -0.00945897 -0.00238337 -2.66386e-26 0 -0.00482829 -0.0139384 -0.027987 -0.0467854 -0.070003 -0.0972594 -0.128522 -0.163465 -0.20084 -0.239815 -0.280226 -0.321512 -0.363014 -0.403989 -0.443793 -0.481792 -0.51738 -0.549993 -0.579115 -0.60429 -0.625128 -0.641313 -0.65261 -0.658443 -0.659972 -0.657518 -0.649775 -0.636874 -0.619107 -0.596839 -0.570408 -0.54017 -0.506618 -0.470356 -0.43197 -0.39201 -0.351073 -0.309834 -0.268937 -0.228969 -0.190545 -0.154264 -0.120706 -0.0904066 -0.0638444 -0.041284 -0.0235461 -0.0105681 -0.00266159 -2.95332e-26 0 -0.00516902 -0.0150924 -0.0304052 -0.0509347 -0.0765611 -0.106285 -0.140551 -0.179537 -0.220205 -0.263006 -0.307391 -0.352741 -0.398318 -0.443303 -0.486986 -0.528666 -0.567677 -0.603397 -0.63526 -0.662766 -0.685494 -0.703101 -0.715335 -0.721586 -0.722888 -0.719597 -0.710539 -0.695955 -0.676143 -0.65149 -0.622351 -0.589127 -0.552359 -0.512677 -0.470724 -0.427096 -0.382436 -0.337476 -0.292911 -0.249371 -0.20752 -0.168002 -0.131444 -0.0984357 -0.0695049 -0.0451048 -0.0256319 -0.0115122 -0.00289843 -3.19752e-26 0 -0.00538502 -0.0159355 -0.0324123 -0.0544289 -0.0816306 -0.114523 -0.15208 -0.192627 -0.23618 -0.28216 -0.329845 -0.378561 -0.427509 -0.475806 -0.522684 -0.56739 -0.609204 -0.647456 -0.681542 -0.710928 -0.735164 -0.753888 -0.766838 -0.77338 -0.774462 -0.770435 -0.760221 -0.744177 -0.72261 -0.695923 -0.664502 -0.62879 -0.589364 -0.546873 -0.501997 -0.455383 -0.407704 -0.359736 -0.312213 -0.2658 -0.221193 -0.179074 -0.140104 -0.104914 -0.0740724 -0.048078 -0.0273406 -0.0122799 -0.00309022 -3.39262e-26 0 -0.0055908 -0.0166691 -0.0340291 -0.0567856 -0.0855948 -0.121146 -0.160026 -0.20263 -0.248517 -0.296971 -0.347219 -0.398546 -0.450104 -0.500958 -0.550299 -0.597326 -0.64128 -0.681457 -0.717218 -0.748005 -0.773349 -0.792875 -0.806311 -0.813016 -0.813875 -0.809217 -0.798033 -0.780787 -0.757795 -0.729469 -0.696228 -0.658561 -0.617082 -0.572432 -0.525319 -0.476447 -0.426498 -0.376278 -0.326551 -0.278004 -0.231357 -0.187311 -0.146552 -0.109741 -0.0774784 -0.0502875 -0.0286138 -0.0128437 -0.00323398 -3.53561e-26 0 -0.00567252 -0.0170365 -0.0349745 -0.0593655 -0.089817 -0.125388 -0.165398 -0.209498 -0.257013 -0.307188 -0.359219 -0.412359 -0.465724 -0.518344 -0.569375 -0.617987 -0.663391 -0.704856 -0.741724 -0.773417 -0.799455 -0.819457 -0.833145 -0.839879 -0.840503 -0.835321 -0.823376 -0.805209 -0.781146 -0.751609 -0.717045 -0.677984 -0.635074 -0.588961 -0.540339 -0.489958 -0.438523 -0.386844 -0.335702 -0.285795 -0.237852 -0.192585 -0.150689 -0.112844 -0.0796705 -0.051711 -0.029427 -0.0132051 -0.00332745 -3.62431e-26 0 -0.00576407 -0.0172843 -0.0351749 -0.0601562 -0.0915136 -0.127453 -0.168172 -0.213086 -0.261486 -0.312598 -0.365601 -0.419727 -0.474069 -0.527637 -0.579567 -0.629009 -0.675158 -0.717267 -0.754664 -0.786766 -0.813084 -0.833232 -0.846933 -0.853555 -0.853903 -0.848043 -0.835312 -0.816319 -0.791407 -0.761008 -0.725603 -0.685745 -0.642063 -0.595201 -0.545861 -0.494795 -0.442726 -0.390466 -0.338793 -0.288399 -0.240011 -0.194335 -0.152066 -0.113878 -0.0803979 -0.05218 -0.0296919 -0.0133365 -0.00335972 -3.65745e-26 0 -0.00566682 -0.0172657 -0.0355695 -0.0605659 -0.0914285 -0.127327 -0.168049 -0.212974 -0.26139 -0.312525 -0.365555 -0.419709 -0.474079 -0.527675 -0.579631 -0.629096 -0.675263 -0.717383 -0.754782 -0.786876 -0.813175 -0.833297 -0.846972 -0.853589 -0.853929 -0.847857 -0.834886 -0.81565 -0.790502 -0.759878 -0.724278 -0.684276 -0.640502 -0.593614 -0.544302 -0.493259 -0.441232 -0.389082 -0.337555 -0.287331 -0.239124 -0.193628 -0.151525 -0.113481 -0.0801221 -0.0520029 -0.029592 -0.0132979 -0.00335016 -3.63466e-26 0 -0.00557214 -0.0167736 -0.0346457 -0.0597731 -0.0900611 -0.125486 -0.165708 -0.210099 -0.257952 -0.308499 -0.36092 -0.414446 -0.46817 -0.521109 -0.572399 -0.621191 -0.666681 -0.708122 -0.744848 -0.776277 -0.80191 -0.821411 -0.834513 -0.840623 -0.840507 -0.834178 -0.821038 -0.801749 -0.776671 -0.746246 -0.710983 -0.671456 -0.628289 -0.582135 -0.533668 -0.483561 -0.432478 -0.381257 -0.330721 -0.281508 -0.234292 -0.189739 -0.148507 -0.111244 -0.0785578 -0.0509965 -0.0290239 -0.0130381 -0.00328739 -3.55648e-26 0 -0.00534314 -0.0161183 -0.0336016 -0.0579778 -0.087259 -0.12166 -0.160744 -0.203896 -0.250425 -0.29958 -0.350557 -0.402602 -0.454821 -0.506254 -0.556055 -0.60339 -0.647472 -0.687573 -0.723025 -0.753255 -0.777843 -0.79646 -0.808826 -0.814374 -0.813849 -0.807307 -0.794185 -0.77514 -0.750527 -0.720781 -0.686406 -0.647964 -0.606064 -0.56135 -0.514481 -0.466118 -0.416869 -0.367444 -0.31865 -0.271206 -0.225733 -0.182835 -0.143132 -0.107246 -0.0757557 -0.0491901 -0.0280023 -0.0125658 -0.00317166 -3.42423e-26 0 -0.00502205 -0.0153729 -0.0322422 -0.0552343 -0.0831044 -0.115957 -0.153308 -0.194566 -0.239069 -0.286089 -0.334852 -0.384626 -0.434546 -0.483688 -0.531233 -0.576378 -0.618344 -0.656411 -0.689968 -0.71855 -0.741745 -0.759174 -0.77055 -0.775372 -0.774352 -0.767696 -0.754786 -0.736273 -0.712504 -0.683898 -0.650949 -0.614202 -0.574225 -0.531629 -0.487058 -0.441166 -0.394537 -0.347788 -0.301568 -0.256593 -0.213576 -0.173018 -0.13548 -0.101548 -0.0717569 -0.0466102 -0.0265423 -0.0119128 -0.00300903 -3.24e-26 0 -0.00465942 -0.0144598 -0.0302716 -0.0515665 -0.0776554 -0.108461 -0.143514 -0.182257 -0.224063 -0.268243 -0.31406 -0.360811 -0.40767 -0.453753 -0.498274 -0.540471 -0.579628 -0.615081 -0.646311 -0.672889 -0.694309 -0.710183 -0.720298 -0.724238 -0.722673 -0.715985 -0.703456 -0.685723 -0.663134 -0.636104 -0.605115 -0.570666 -0.533269 -0.493471 -0.451878 -0.409129 -0.365808 -0.322487 -0.279677 -0.237951 -0.19801 -0.160438 -0.125666 -0.0942333 -0.0666208 -0.0432951 -0.0246657 -0.011075 -0.00280067 -3.0066e-26 0 -0.00424396 -0.0132786 -0.0277258 -0.0470647 -0.0709658 -0.0992394 -0.131459 -0.167105 -0.205589 -0.246269 -0.28845 -0.331466 -0.374543 -0.416857 -0.457676 -0.496303 -0.532117 -0.564517 -0.593014 -0.617085 -0.636258 -0.650213 -0.658828 -0.66179 -0.659686 -0.65295 -0.640954 -0.62425 -0.603176 -0.578133 -0.549579 -0.517949 -0.483727 -0.447425 -0.409518 -0.370565 -0.331174 -0.291914 -0.253218 -0.215486 -0.179308 -0.145285 -0.113839 -0.0854138 -0.0604251 -0.039295 -0.0224009 -0.0100637 -0.0025451 -2.72771e-26 0 -0.00376051 -0.0118038 -0.024682 -0.0418959 -0.0632657 -0.0885992 -0.117509 -0.149528 -0.184121 -0.220697 -0.258618 -0.297265 -0.33593 -0.37387 -0.410425 -0.444962 -0.476898 -0.505668 -0.530832 -0.551857 -0.568355 -0.580134 -0.587139 -0.589029 -0.586369 -0.579574 -0.568282 -0.552884 -0.533672 -0.511005 -0.485307 -0.45696 -0.426418 -0.394154 -0.360571 -0.326089 -0.291233 -0.256593 -0.22259 -0.1895 -0.157729 -0.127797 -0.100184 -0.0752252 -0.0532646 -0.0346706 -0.0197824 -0.00889444 -0.00224478 -2.40782e-26 0 -0.00321262 -0.0101169 -0.021241 -0.0361274 -0.0546902 -0.076746 -0.101946 -0.129891 -0.160106 -0.192061 -0.225182 -0.258906 -0.292599 -0.325599 -0.357315 -0.387177 -0.41463 -0.439191 -0.46051 -0.478115 -0.491668 -0.501181 -0.506492 -0.507128 -0.503847 -0.497052 -0.486644 -0.472778 -0.455717 -0.435789 -0.41336 -0.388753 -0.362348 -0.334539 -0.30576 -0.276337 -0.246616 -0.217119 -0.188302 -0.160379 -0.133562 -0.108261 -0.0849148 -0.0638249 -0.0452495 -0.029493 -0.0168502 -0.00758505 -0.00191553 -2.05113e-26 0 -0.00261768 -0.00827837 -0.017493 -0.0298117 -0.0452769 -0.0637196 -0.0848571 -0.10834 -0.133756 -0.160639 -0.188485 -0.216788 -0.244994 -0.272526 -0.298866 -0.323524 -0.346033 -0.36603 -0.383194 -0.397094 -0.407606 -0.414797 -0.418232 -0.417457 -0.413621 -0.40666 -0.397277 -0.385133 -0.370459 -0.35357 -0.334741 -0.31425 -0.292405 -0.269525 -0.245947 -0.22202 -0.197959 -0.174119 -0.150923 -0.128583 -0.107189 -0.0869696 -0.0682691 -0.0513896 -0.0365041 -0.023842 -0.0136494 -0.00615568 -0.00155694 -1.66008e-26 0 -0.00199548 -0.00632476 -0.013509 -0.0231432 -0.0352873 -0.049846 -0.0666103 -0.0852828 -0.10552 -0.126931 -0.149084 -0.171542 -0.193838 -0.215485 -0.236049 -0.255121 -0.272316 -0.287448 -0.300189 -0.310196 -0.317606 -0.32226 -0.323661 -0.321552 -0.317238 -0.309814 -0.301572 -0.291291 -0.279197 -0.265572 -0.250611 -0.234539 -0.217585 -0.199996 -0.18203 -0.163946 -0.145958 -0.128229 -0.11104 -0.0946244 -0.0790064 -0.0642259 -0.0505072 -0.0381118 -0.0271643 -0.0178052 -0.0102294 -0.00462833 -0.00117382 -1.23734e-26 0 -0.00136223 -0.00434258 -0.00938233 -0.016294 -0.0249879 -0.0354971 -0.0476593 -0.0612566 -0.0760239 -0.0916486 -0.107782 -0.124062 -0.140112 -0.155544 -0.17001 -0.18319 -0.194781 -0.204762 -0.212819 -0.218729 -0.222739 -0.224622 -0.224099 -0.220955 -0.216593 -0.20802 -0.200997 -0.192663 -0.183312 -0.173099 -0.162198 -0.150766 -0.138959 -0.126942 -0.114893 -0.102984 -0.0913681 -0.0800978 -0.0692609 -0.0590505 -0.0494618 -0.0403834 -0.0318955 -0.0241987 -0.0173758 -0.0114766 -0.00664353 -0.00302692 -0.000772281 -7.96085e-27 0 -0.000731156 -0.00241803 -0.00529752 -0.00938976 -0.0145286 -0.0208842 -0.0283079 -0.0366632 -0.0457622 -0.0553791 -0.0652569 -0.0751163 -0.084681 -0.0936616 -0.101806 -0.108893 -0.114712 -0.119239 -0.122337 -0.123938 -0.124262 -0.123178 -0.120712 -0.116873 -0.113957 -0.1028 -0.097 -0.0907086 -0.0841769 -0.077481 -0.0707585 -0.0641103 -0.0576231 -0.0513858 -0.045488 -0.0400053 -0.0349859 -0.0304221 -0.0262149 -0.0224249 -0.0190237 -0.0158181 -0.0127258 -0.00987099 -0.00728922 -0.00495227 -0.00294468 -0.00137392 -0.000357275 -3.41551e-27 0 -0.000151746 -0.000591699 -0.00142345 -0.00265781 -0.0041837 -0.00629367 -0.00886172 -0.0118275 -0.0151046 -0.0185573 -0.0220191 -0.0253086 -0.0282419 -0.0306343 -0.0323284 -0.0332111 -0.0331849 -0.0321166 -0.0301331 -0.0273048 -0.023749 -0.0194981 -0.0148096 -0.00980802 -0.00956027 0.00493966 0.00932952 0.0132654 0.0168678 0.0199812 0.0224758 0.0242734 0.0253397 0.0256607 0.0252429 0.0241236 0.0223769 0.0201079 0.0175277 0.0147599 0.0118772 0.0091225 0.00672847 0.00466333 0.00294093 0.00166121 0.000798849 0.000295376 6.11259e-05 6.83146e-28 0 0.000294569 0.00112177 0.00237532 0.00395069 0.00598253 0.00816312 0.0104859 0.0129444 0.0155466 0.0183289 0.0213522 0.0246933 0.0284375 0.0326644 0.0374351 0.0427732 0.0486404 0.0552502 0.0622776 0.069582 0.0770881 0.0845787 0.09178 0.0986413 0.105272 0.11148 0.116611 0.117888 0.118094 0.117494 0.115717 0.112631 0.108239 0.102607 0.095843 0.0881009 0.0795745 0.07049 0.0611295 0.0518013 0.0426589 0.0339874 0.0261372 0.0191841 0.013183 0.00830425 0.00458818 0.00201593 0.000530231 4.99103e-27 0 0.000717403 0.00280331 0.00613984 0.0105484 0.0160786 0.0225184 0.0296768 0.0374983 0.0459042 0.0548364 0.064255 0.074133 0.0844525 0.0951875 0.106301 0.11773 0.12935 0.141295 0.153198 0.164874 0.17617 0.186759 0.196422 0.204773 0.211307 0.216215 0.219769 0.220752 0.217848 0.213441 0.207397 0.199453 0.189649 0.178134 0.165118 0.150866 0.135685 0.119908 0.10391 0.088128 0.0728505 0.0583996 0.0452074 0.0334714 0.023293 0.0148878 0.00836581 0.00375502 0.00101981 9.39294e-27 0 0.00111906 0.00441113 0.00975687 0.016944 0.0259044 0.0364074 0.0482763 0.0613284 0.0753979 0.0903328 0.105993 0.122247 0.138977 0.15605 0.173328 0.190659 0.207845 0.224892 0.241458 0.257255 0.272051 0.28548 0.297275 0.30682 0.31359 0.318008 0.319851 0.31907 0.314458 0.306216 0.295998 0.283317 0.268242 0.251014 0.231944 0.2114 0.189795 0.167565 0.145185 0.123164 0.101973 0.0819672 0.0636325 0.04729 0.0330989 0.0212979 0.0120579 0.0054604 0.00150203 1.37021e-26 0 0.00150623 0.00595414 0.0132136 0.0230622 0.035344 0.0497342 0.0661094 0.0841723 0.103668 0.124353 0.14599 0.168347 0.191209 0.21434 0.237499 0.260444 0.282912 0.304769 0.325708 0.345303 0.363298 0.379311 0.392983 0.403709 0.410949 0.414963 0.415509 0.412553 0.405957 0.394157 0.379967 0.362753 0.342652 0.319993 0.295183 0.268683 0.241003 0.212674 0.184266 0.156345 0.129563 0.10431 0.0811157 0.0604142 0.042429 0.0274124 0.0155927 0.0070974 0.00196344 1.78186e-26 0 0.00186879 0.00740049 0.0164492 0.0287894 0.0441945 0.0623063 0.082852 0.105626 0.130227 0.156324 0.183587 0.211685 0.240315 0.269138 0.297811 0.326006 0.353389 0.379713 0.404679 0.427714 0.448581 0.466901 0.482237 0.494063 0.501783 0.505397 0.5049 0.500037 0.490808 0.475777 0.457871 0.43641 0.411621 0.383916 0.353785 0.321771 0.288473 0.254504 0.220523 0.187145 0.155187 0.125077 0.0973802 0.0726325 0.0511345 0.0331258 0.0189045 0.00863704 0.00239749 2.167e-26 0 0.00220263 0.00873235 0.01943 0.0340637 0.0523384 0.0739254 0.0982444 0.125374 0.154681 0.185765 0.21821 0.251597 0.285537 0.319595 0.353331 0.386333 0.418194 0.448577 0.477174 0.50327 0.526654 0.546979 0.563752 0.576507 0.584571 0.587803 0.586204 0.579602 0.567864 0.549784 0.52844 0.503093 0.474038 0.441759 0.406811 0.369816 0.331447 0.29239 0.253381 0.215081 0.178444 0.143945 0.112172 0.0837511 0.0590627 0.0383392 0.021934 0.0100515 0.00279871 2.51885e-26 0 0.00250183 0.00992674 0.0221069 0.0388008 0.0596582 0.0843443 0.112014 0.143101 0.176638 0.212206 0.249313 0.287455 0.326165 0.364924 0.403196 0.440491 0.476331 0.510307 0.542091 0.570846 0.596371 0.618373 0.63633 0.649814 0.658104 0.660979 0.658385 0.650174 0.635843 0.615005 0.590585 0.561779 0.528952 0.492638 0.453455 0.412087 0.369273 0.325754 0.282334 0.239717 0.198975 0.160617 0.125267 0.0936127 0.0660894 0.0429609 0.024624 0.0113131 0.00315935 2.83144e-26 0 0.00276204 0.0109655 0.0244354 0.0429186 0.066047 0.0934869 0.124327 0.158546 0.195762 0.235243 0.276416 0.318703 0.361571 0.404421 0.446631 0.48764 0.526904 0.563957 0.598436 0.629421 0.6567 0.680031 0.698888 0.712875 0.721254 0.723774 0.720311 0.710632 0.693417 0.670515 0.643466 0.611696 0.575644 0.535891 0.493103 0.448019 0.401429 0.354123 0.306959 0.260686 0.216466 0.174836 0.136463 0.102074 0.0721295 0.0469357 0.0269325 0.0123916 0.00346951 3.09961e-26 0 0.00297909 0.0118323 0.0263787 0.0463525 0.0713838 0.101087 0.134662 0.171513 0.211761 0.254517 0.299097 0.344858 0.391204 0.437471 0.482961 0.52705 0.569134 0.608702 0.645338 0.678103 0.706741 0.731036 0.750489 0.764733 0.773044 0.775197 0.770994 0.759701 0.739925 0.715647 0.686366 0.652103 0.61337 0.570789 0.525068 0.476984 0.427365 0.377028 0.326875 0.277684 0.230659 0.186387 0.145586 0.109004 0.0770862 0.0502043 0.0288344 0.0132785 0.00372201 3.31937e-26 0 0.00314969 0.0125139 0.027908 0.0490551 0.0755847 0.107051 0.142926 0.182178 0.224396 0.269735 0.31701 0.365515 0.414605 0.463562 0.511622 0.558109 0.60237 0.643855 0.682096 0.716152 0.745731 0.77063 0.790365 0.804607 0.812675 0.814441 0.809551 0.795941 0.775009 0.749473 0.71844 0.682261 0.641492 0.596785 0.548878 0.498571 0.446712 0.394137 0.341759 0.290443 0.241339 0.195095 0.1525 0.114294 0.0808577 0.0526942 0.0302945 0.0139678 0.00391822 3.48733e-26 0 0.00327116 0.0129998 0.0289993 0.0509863 0.0785868 0.11133 0.148743 0.189711 0.23348 0.280665 0.329882 0.38036 0.431416 0.482291 0.532171 0.580336 0.626098 0.668876 0.708151 0.742996 0.773086 0.798216 0.817921 0.831897 0.839537 0.840884 0.834858 0.819073 0.798214 0.77164 0.739376 0.701884 0.659747 0.613636 0.564303 0.512558 0.459259 0.405247 0.351392 0.298756 0.248336 0.200828 0.157092 0.117844 0.0833668 0.0543577 0.0312758 0.0144353 0.00405617 3.60063e-26 0 0.00334163 0.0132824 0.0296357 0.0521156 0.0803447 0.113851 0.152119 0.194385 0.239446 0.287217 0.33752 0.389166 0.441379 0.493369 0.544288 0.593387 0.639949 0.683376 0.723106 0.758229 0.788394 0.813386 0.832752 0.846201 0.853226 0.853945 0.845147 0.829525 0.808237 0.780899 0.747876 0.709669 0.666869 0.620145 0.570239 0.517951 0.46413 0.409615 0.355189 0.302138 0.251263 0.203282 0.159109 0.119435 0.0845017 0.0551355 0.0317495 0.0146679 0.00412713 3.65745e-26 0 0.00335975 0.0133554 0.0298013 0.0524112 0.0808072 0.114526 0.153028 0.195694 0.241609 0.289678 0.3398 0.391694 0.444212 0.496481 0.547625 0.596884 0.643524 0.686938 0.72654 0.76143 0.791241 0.815753 0.834514 0.847236 0.853611 0.852647 0.843729 0.828615 0.807173 0.779693 0.746586 0.708354 0.665583 0.618931 0.569132 0.516974 0.463298 0.408929 0.354638 0.301772 0.251026 0.203134 0.159028 0.11937 0.0844802 0.0551442 0.0317672 0.0146829 0.00413438 3.65691e-26 0 0.00334377 0.0132904 0.0296533 0.0521465 0.0803941 0.113942 0.152254 0.194687 0.24055 0.28868 0.33846 0.389852 0.442022 0.493952 0.54472 0.593548 0.639692 0.682533 0.721448 0.755544 0.784415 0.807806 0.82523 0.836415 0.840553 0.838201 0.829518 0.814377 0.793055 0.765867 0.733211 0.695566 0.653504 0.60766 0.558754 0.507553 0.454887 0.401466 0.348272 0.296441 0.246636 0.19964 0.156311 0.117256 0.0830491 0.0542394 0.0312623 0.0144586 0.00407551 3.59898e-26 0 0.00325826 0.0129515 0.0288986 0.050822 0.0783561 0.111056 0.14842 0.189808 0.234504 0.281957 0.330913 0.380416 0.431048 0.481626 0.531043 0.578526 0.623343 0.664885 0.702525 0.735382 0.763048 0.785206 0.801003 0.810708 0.813445 0.811036 0.802353 0.787497 0.766739