<?xml version="1.0"?>
<VTKFile type="PolyData">
	<PolyData>
		<Piece NumberOfPoints="2601" NumberOfPolys="2500">
			<Points>
				<DataArray type="Float32" NumberOfComponents="3" format="ascii">
 0 0 0 0.02 0 0 0.04 0 0 0.06 0 0 0.08 0 0 0.1 0 0 0.12 0 0 0.14 0 0 0.16 0 0 0.18 0 0 0.2 0 0 0.22 0 0 0.24 0 0 0.26 0 0 0.28 0 0 0.3 0 0 0.32 0 0 0.34 0 0 0.36 0 0 0.38 0 0 0.4 0 0 0.42 0 0 0.44 0 0 0.46 0 0 0.48 0 0 0.5 0 0 0.52 0 0 0.54 0 0 0.56 0 0 0.58 0 0 0.6 0 0 0.62 0 0 0.64 0 0 0.66 0 0 0.68 0 0 0.7 0 0 0.72 0 0 0.74 0 0 0.76 0 0 0.78 0 0 0.8 0 0 0.82 0 0 0.84 0 0 0.86 0 0 0.88 0 0 0.9 0 0 0.92 0 0 0.94 0 0 0.96 0 0 0.98 0 0 1 0 0 0 0.02 0 0.02 0.02 0 0.04 0.02 0 0.06 0.02 0 0.08 0.02 0 0.1 0.02 0 0.12 0.02 0 0.14 0.02 0 0.16 0.02 0 0.18 0.02 0 0.2 0.02 0 0.22 0.02 0 0.24 0.02 0 0.26 0.02 0 0.28 0.02 0 0.3 0.02 0 0.32 0.02 0 0.34 0.02 0 0.36 0.02 0 0.38 0.02 0 0.4 0.02 0 0.42 0.02 0 0.44 0.02 0 0.46 0.02 0 0.48 0.02 0 0.5 0.02 0 0.52 0.02 0 0.54 0.02 0 0.56 0.02 0 0.58 0.02 0 0.6 0.02 0 0.62 0.02 0 0.64 0.02 0 0.66 0.02 0 0.68 0.02 0 0.7 0.02 0 0.72 0.02 0 0.74 0.02 0 0.76 0.02 0 0.78 0.02 0 0.8 0.02 0 0.82 0.02 0 0.84 0.02 0 0.86 0.02 0 0.88 0.02 0 0.9 0.02 0 0.92 0.02 0 0.94 0.02 0 0.96 0.02 0 0.98 0.02 0 1 0.02 0 0 0.04 0 0.02 0.04 0 0.04 0.04 0 0.06 0.04 0 0.08 0.04 0 0.1 0.04 0 0.12 0.04 0 0.14 0.04 0 0.16 0.04 0 0.18 0.04 0 0.2 0.04 0 0.22 0.04 0 0.24 0.04 0 0.26 0.04 0 0.28 0.04 0 0.3 0.04 0 0.32 0.04 0 0.34 0.04 0 0.36 0.04 0 0.38 0.04 0 0.4 0.04 0 0.42 0.04 0 0.44 0.04 0 0.46 0.04 0 0.48 0.04 0 0.5 0.04 0 0.52 0.04 0 0.54 0.04 0 0.56 0.04 0 0.58 0.04 0 0.6 0.04 0 0.62 0.04 0 0.64 0.04 0 0.66 0.04 0 0.68 0.04 0 0.7 0.04 0 0.72 0.04 0 0.74 0.04 0 0.76 0.04 0 0.78 0.04 0 0.8 0.04 0 0.82 0.04 0 0.84 0.04 0 0.86 0.04 0 0.88 0.04 0 0.9 0.04 0 0.92 0.04 0 0.94 0.04 0 0.96 0.04 0 0.98 0.04 0 1 0.04 0 0 0.06 0 0.02 0.06 0 0.04 0.06 0 0.06 0.06 0 0.08 0.06 0 0.1 0.06 0 0.12 0.06 0 0.14 0.06 0 0.16 0.06 0 0.18 0.06 0 0.2 0.06 0 0.22 0.06 0 0.24 0.06 0 0.26 0.06 0 0.28 0.06 0 0.3 0.06 0 0.32 0.06 0 0.34 0.06 0 0.36 0.06 0 0.38 0.06 0 0.4 0.06 0 0.42 0.06 0 0.44 0.06 0 0.46 0.06 0 0.48 0.06 0 0.5 0.06 0 0.52 0.06 0 0.54 0.06 0 0.56 0.06 0 0.58 0.06 0 0.6 0.06 0 0.62 0.06 0 0.64 0.06 0 0.66 0.06 0 0.68 0.06 0 0.7 0.06 0 0.72 0.06 0 0.74 0.06 0 0.76 0.06 0 0.78 0.06 0 0.8 0.06 0 0.82 0.06 0 0.84 0.06 0 0.86 0.06 0 0.88 0.06 0 0.9 0.06 0 0.92 0.06 0 0.94 0.06 0 0.96 0.06 0 0.98 0.06 0 1 0.06 0 0 0.08 0 0.02 0.08 0 0.04 0.08 0 0.06 0.08 0 0.08 0.08 0 0.1 0.08 0 0.12 0.08 0 0.14 0.08 0 0.16 0.08 0 0.18 0.08 0 0.2 0.08 0 0.22 0.08 0 0.24 0.08 0 0.26 0.08 0 0.28 0.08 0 0.3 0.08 0 0.32 0.08 0 0.34 0.08 0 0.36 0.08 0 0.38 0.08 0 0.4 0.08 0 0.42 0.08 0 0.44 0.08 0 0.46 0.08 0 0.48 0.08 0 0.5 0.08 0 0.52 0.08 0 0.54 0.08 0 0.56 0.08 0 0.58 0.08 0 0.6 0.08 0 0.62 0.08 0 0.64 0.08 0 0.66 0.08 0 0.68 0.08 0 0.7 0.08 0 0.72 0.08 0 0.74 0.08 0 0.76 0.08 0 0.78 0.08 0 0.8 0.08 0 0.82 0.08 0 0.84 0.08 0 0.86 0.08 0 0.88 0.08 0 0.9 0.08 0 0.92 0.08 0 0.94 0.08 0 0.96 0.08 0 0.98 0.08 0 1 0.08 0 0 0.1 0 0.02 0.1 0 0.04 0.1 0 0.06 0.1 0 0.08 0.1 0 0.1 0.1 0 0.12 0.1 0 0.14 0.1 0 0.16 0.1 0 0.18 0.1 0 0.2 0.1 0 0.22 0.1 0 0.24 0.1 0 0.26 0.1 0 0.28 0.1 0 0.3 0.1 0 0.32 0.1 0 0.34 0.1 0 0.36 0.1 0 0.38 0.1 0 0.4 0.1 0 0.42 0.1 0 0.44 0.1 0 0.46 0.1 0 0.48 0.1 0 0.5 0.1 0 0.52 0.1 0 0.54 0.1 0 0.56 0.1 0 0.58 0.1 0 0.6 0.1 0 0.62 0.1 0 0.64 0.1 0 0.66 0.1 0 0.68 0.1 0 0.7 0.1 0 0.72 0.1 0 0.74 0.1 0 0.76 0.1 0 0.78 0.1 0 0.8 0.1 0 0.82 0.1 0 0.84 0.1 0 0.86 0.1 0 0.88 0.1 0 0.9 0.1 0 0.92 0.1 0 0.94 0.1 0 0.96 0.1 0 0.98 0.1 0 1 0.1 0 0 0.12 0 0.02 0.12 0 0.04 0.12 0 0.06 0.12 0 0.08 0.12 0 0.1 0.12 0 0.12 0.12 0 0.14 0.12 0 0.16 0.12 0 0.18 0.12 0 0.2 0.12 0 0.22 0.12 0 0.24 0.12 0 0.26 0.12 0 0.28 0.12 0 0.3 0.12 0 0.32 0.12 0 0.34 0.12 0 0.36 0.12 0 0.38 0.12 0 0.4 0.12 0 0.42 0.12 0 0.44 0.12 0 0.46 0.12 0 0.48 0.12 0 0.5 0.12 0 0.52 0.12 0 0.54 0.12 0 0.56 0.12 0 0.58 0.12 0 0.6 0.12 0 0.62 0.12 0 0.64 0.12 0 0.66 0.12 0 0.68 0.12 0 0.7 0.12 0 0.72 0.12 0 0.74 0.12 0 0.76 0.12 0 0.78 0.12 0 0.8 0.12 0 0.82 0.12 0 0.84 0.12 0 0.86 0.12 0 0.88 0.12 0 0.9 0.12 0 0.92 0.12 0 0.94 0.12 0 0.96 0.12 0 0.98 0.12 0 1 0.12 0 0 0.14 0 0.02 0.14 0 0.04 0.14 0 0.06 0.14 0 0.08 0.14 0 0.1 0.14 0 0.12 0.14 0 0.14 0.14 0 0.16 0.14 0 0.18 0.14 0 0.2 0.14 0 0.22 0.14 0 0.24 0.14 0 0.26 0.14 0 0.28 0.14 0 0.3 0.14 0 0.32 0.14 0 0.34 0.14 0 0.36 0.14 0 0.38 0.14 0 0.4 0.14 0 0.42 0.14 0 0.44 0.14 0 0.46 0.14 0 0.48 0.14 0 0.5 0.14 0 0.52 0.14 0 0.54 0.14 0 0.56 0.14 0 0.58 0.14 0 0.6 0.14 0 0.62 0.14 0 0.64 0.14 0 0.66 0.14 0 0.68 0.14 0 0.7 0.14 0 0.72 0.14 0 0.74 0.14 0 0.76 0.14 0 0.78 0.14 0 0.8 0.14 0 0.82 0.14 0 0.84 0.14 0 0.86 0.14 0 0.88 0.14 0 0.9 0.14 0 0.92 0.14 0 0.94 0.14 0 0.96 0.14 0 0.98 0.14 0 1 0.14 0 0 0.16 0 0.02 0.16 0 0.04 0.16 0 0.06 0.16 0 0.08 0.16 0 0.1 0.16 0 0.12 0.16 0 0.14 0.16 0 0.16 0.16 0 0.18 0.16 0 0.2 0.16 0 0.22 0.16 0 0.24 0.16 0 0.26 0.16 0 0.28 0.16 0 0.3 0.16 0 0.32 0.16 0 0.34 0.16 0 0.36 0.16 0 0.38 0.16 0 0.4 0.16 0 0.42 0.16 0 0.44 0.16 0 0.46 0.16 0 0.48 0.16 0 0.5 0.16 0 0.52 0.16 0 0.54 0.16 0 0.56 0.16 0 0.58 0.16 0 0.6 0.16 0 0.62 0.16 0 0.64 0.16 0 0.66 0.16 0 0.68 0.16 0 0.7 0.16 0 0.72 0.16 0 0.74 0.16 0 0.76 0.16 0 0.78 0.16 0 0.8 0.16 0 0.82 0.16 0 0.84 0.16 0 0.86 0.16 0 0.88 0.16 0 0.9 0.16 0 0.92 0.16 0 0.94 0.16 0 0.96 0.16 0 0.98 0.16 0 1 0.16 0 0 0.18 0 0.02 0.18 0 0.04 0.18 0 0.06 0.18 0 0.08 0.18 0 0.1 0.18 0 0.12 0.18 0 0.14 0.18 0 0.16 0.18 0 0.18 0.18 0 0.2 0.18 0 0.22 0.18 0 0.24 0.18 0 0.26 0.18 0 0.28 0.18 0 0.3 0.18 0 0.32 0.18 0 0.34 0.18 0 0.36 0.18 0 0.38 0.18 0 0.4 0.18 0 0.42 0.18 0 0.44 0.18 0 0.46 0.18 0 0.48 0.18 0 0.5 0.18 0 0.52 0.18 0 0.54 0.18 0 0.56 0.18 0 0.58 0.18 0 0.6 0.18 0 0.62 0.18 0 0.64 0.18 0 0.66 0.18 0 0.68 0.18 0 0.7 0.18 0 0.72 0.18 0 0.74 0.18 0 0.76 0.18 0 0.78 0.18 0 0.8 0.18 0 0.82 0.18 0 0.84 0.18 0 0.86 0.18 0 0.88 0.18 0 0.9 0.18 0 0.92 0.18 0 0.94 0.18 0 0.96 0.18 0 0.98 0.18 0 1 0.18 0 0 0.2 0 0.02 0.2 0 0.04 0.2 0 0.06 0.2 0 0.08 0.2 0 0.1 0.2 0 0.12 0.2 0 0.14 0.2 0 0.16 0.2 0 0.18 0.2 0 0.2 0.2 0 0.22 0.2 0 0.24 0.2 0 0.26 0.2 0 0.28 0.2 0 0.3 0.2 0 0.32 0.2 0 0.34 0.2 0 0.36 0.2 0 0.38 0.2 0 0.4 0.2 0 0.42 0.2 0 0.44 0.2 0 0.46 0.2 0 0.48 0.2 0 0.5 0.2 0 0.52 0.2 0 0.54 0.2 0 0.56 0.2 0 0.58 0.2 0 0.6 0.2 0 0.62 0.2 0 0.64 0.2 0 0.66 0.2 0 0.68 0.2 0 0.7 0.2 0 0.72 0.2 0 0.74 0.2 0 0.76 0.2 0 0.78 0.2 0 0.8 0.2 0 0.82 0.2 0 0.84 0.2 0 0.86 0.2 0 0.88 0.2 0 0.9 0.2 0 0.92 0.2 0 0.94 0.2 0 0.96 0.2 0 0.98 0.2 0 1 0.2 0 0 0.22 0 0.02 0.22 0 0.04 0.22 0 0.06 0.22 0 0.08 0.22 0 0.1 0.22 0 0.12 0.22 0 0.14 0.22 0 0.16 0.22 0 0.18 0.22 0 0.2 0.22 0 0.22 0.22 0 0.24 0.22 0 0.26 0.22 0 0.28 0.22 0 0.3 0.22 0 0.32 0.22 0 0.34 0.22 0 0.36 0.22 0 0.38 0.22 0 0.4 0.22 0 0.42 0.22 0 0.44 0.22 0 0.46 0.22 0 0.48 0.22 0 0.5 0.22 0 0.52 0.22 0 0.54 0.22 0 0.56 0.22 0 0.58 0.22 0 0.6 0.22 0 0.62 0.22 0 0.64 0.22 0 0.66 0.22 0 0.68 0.22 0 0.7 0.22 0 0.72 0.22 0 0.74 0.22 0 0.76 0.22 0 0.78 0.22 0 0.8 0.22 0 0.82 0.22 0 0.84 0.22 0 0.86 0.22 0 0.88 0.22 0 0.9 0.22 0 0.92 0.22 0 0.94 0.22 0 0.96 0.22 0 0.98 0.22 0 1 0.22 0 0 0.24 0 0.02 0.24 0 0.04 0.24 0 0.06 0.24 0 0.08 0.24 0 0.1 0.24 0 0.12 0.24 0 0.14 0.24 0 0.16 0.24 0 0.18 0.24 0 0.2 0.24 0 0.22 0.24 0 0.24 0.24 0 0.26 0.24 0 0.28 0.24 0 0.3 0.24 0 0.32 0.24 0 0.34 0.24 0 0.36 0.24 0 0.38 0.24 0 0.4 0.24 0 0.42 0.24 0 0.44 0.24 0 0.46 0.24 0 0.48 0.24 0 0.5 0.24 0 0.52 0.24 0 0.54 0.24 0 0.56 0.24 0 0.58 0.24 0 0.6 0.24 0 0.62 0.24 0 0.64 0.24 0 0.66 0.24 0 0.68 0.24 0 0.7 0.24 0 0.72 0.24 0 0.74 0.24 0 0.76 0.24 0 0.78 0.24 0 0.8 0.24 0 0.82 0.24 0 0.84 0.24 0 0.86 0.24 0 0.88 0.24 0 0.9 0.24 0 0.92 0.24 0 0.94 0.24 0 0.96 0.24 0 0.98 0.24 0 1 0.24 0 0 0.26 0 0.02 0.26 0 0.04 0.26 0 0.06 0.26 0 0.08 0.26 0 0.1 0.26 0 0.12 0.26 0 0.14 0.26 0 0.16 0.26 0 0.18 0.26 0 0.2 0.26 0 0.22 0.26 0 0.24 0.26 0 0.26 0.26 0 0.28 0.26 0 0.3 0.26 0 0.32 0.26 0 0.34 0.26 0 0.36 0.26 0 0.38 0.26 0 0.4 0.26 0 0.42 0.26 0 0.44 0.26 0 0.46 0.26 0 0.48 0.26 0 0.5 0.26 0 0.52 0.26 0 0.54 0.26 0 0.56 0.26 0 0.58 0.26 0 0.6 0.26 0 0.62 0.26 0 0.64 0.26 0 0.66 0.26 0 0.68 0.26 0 0.7 0.26 0 0.72 0.26 0 0.74 0.26 0 0.76 0.26 0 0.78 0.26 0 0.8 0.26 0 0.82 0.26 0 0.84 0.26 0 0.86 0.26 0 0.88 0.26 0 0.9 0.26 0 0.92 0.26 0 0.94 0.26 0 0.96 0.26 0 0.98 0.26 0 1 0.26 0 0 0.28 0 0.02 0.28 0 0.04 0.28 0 0.06 0.28 0 0.08 0.28 0 0.1 0.28 0 0.12 0.28 0 0.14 0.28 0 0.16 0.28 0 0.18 0.28 0 0.2 0.28 0 0.22 0.28 0 0.24 0.28 0 0.26 0.28 0 0.28 0.28 0 0.3 0.28 0 0.32 0.28 0 0.34 0.28 0 0.36 0.28 0 0.38 0.28 0 0.4 0.28 0 0.42 0.28 0 0.44 0.28 0 0.46 0.28 0 0.48 0.28 0 0.5 0.28 0 0.52 0.28 0 0.54 0.28 0 0.56 0.28 0 0.58 0.28 0 0.6 0.28 0 0.62 0.28 0 0.64 0.28 0 0.66 0.28 0 0.68 0.28 0 0.7 0.28 0 0.72 0.28 0 0.74 0.28 0 0.76 0.28 0 0.78 0.28 0 0.8 0.28 0 0.82 0.28 0 0.84 0.28 0 0.86 0.28 0 0.88 0.28 0 0.9 0.28 0 0.92 0.28 0 0.94 0.28 0 0.96 0.28 0 0.98 0.28 0 1 0.28 0 0 0.3 0 0.02 0.3 0 0.04 0.3 0 0.06 0.3 0 0.08 0.3 0 0.1 0.3 0 0.12 0.3 0 0.14 0.3 0 0.16 0.3 0 0.18 0.3 0 0.2 0.3 0 0.22 0.3 0 0.24 0.3 0 0.26 0.3 0 0.28 0.3 0 0.3 0.3 0 0.32 0.3 0 0.34 0.3 0 0.36 0.3 0 0.38 0.3 0 0.4 0.3 0 0.42 0.3 0 0.44 0.3 0 0.46 0.3 0 0.48 0.3 0 0.5 0.3 0 0.52 0.3 0 0.54 0.3 0 0.56 0.3 0 0.58 0.3 0 0.6 0.3 0 0.62 0.3 0 0.64 0.3 0 0.66 0.3 0 0.68 0.3 0 0.7 0.3 0 0.72 0.3 0 0.74 0.3 0 0.76 0.3 0 0.78 0.3 0 0.8 0.3 0 0.82 0.3 0 0.84 0.3 0 0.86 0.3 0 0.88 0.3 0 0.9 0.3 0 0.92 0.3 0 0.94 0.3 0 0.96 0.3 0 0.98 0.3 0 1 0.3 0 0 0.32 0 0.02 0.32 0 0.04 0.32 0 0.06 0.32 0 0.08 0.32 0 0.1 0.32 0 0.12 0.32 0 0.14 0.32 0 0.16 0.32 0 0.18 0.32 0 0.2 0.32 0 0.22 0.32 0 0.24 0.32 0 0.26 0.32 0 0.28 0.32 0 0.3 0.32 0 0.32 0.32 0 0.34 0.32 0 0.36 0.32 0 0.38 0.32 0 0.4 0.32 0 0.42 0.32 0 0.44 0.32 0 0.46 0.32 0 0.48 0.32 0 0.5 0.32 0 0.52 0.32 0 0.54 0.32 0 0.56 0.32 0 0.58 0.32 0 0.6 0.32 0 0.62 0.32 0 0.64 0.32 0 0.66 0.32 0 0.68 0.32 0 0.7 0.32 0 0.72 0.32 0 0.74 0.32 0 0.76 0.32 0 0.78 0.32 0 0.8 0.32 0 0.82 0.32 0 0.84 0.32 0 0.86 0.32 0 0.88 0.32 0 0.9 0.32 0 0.92 0.32 0 0.94 0.
[...]
			<PointData Scalars="VitesseX">
				<DataArray Name="VitesseX" type="Float32" format="ascii">
 0 0 0 0 0 0 0 0 0 0 0 0 0 0 0 0 0 0 0 0 0 0 0 0 0 0 0 0 0 0 0 0 0 0 0 0 0 0 0 0 0 0 0 0 0 0 0 0 0 0 0 0 7.90984e-05 0.00031628 0.000706957 0.00125559 0.00194598 0.002711 0.00370404 0.00474327 0.0058287 0.00700335 0.00820235 0.00941004 0.0106093 0.0117784 0.0128964 0.0139423 0.0148951 0.0157366 0.0164507 0.0170198 0.0174231 0.0176468 0.0177172 0.0177025 0.017699 0.0175894 0.0173813 0.0170391 0.0165672 0.0159731 0.0152665 0.0144584 0.0135616 0.01259 0.011559 0.0104851 0.0093852 0.00827659 0.00717679 0.00610316 0.00507263 0.00410152 0.00320531 0.00239862 0.0016959 0.00111154 0.000648209 0.000308914 9.59387e-05 7.55404e-28 0 0.000145136 0.0005793 0.00129421 0.00229727 0.00355472 0.00500414 0.006748 0.00863114 0.0106555 0.0127918 0.0150042 0.017255 0.0195068 0.0217217 0.0238622 0.0258922 0.0277765 0.0294824 0.0309815 0.0322531 0.0332871 0.0340821 0.03464 0.0349594 0.0350648 0.0349027 0.0344928 0.0338154 0.0328804 0.031703 0.030302 0.0286996 0.0269203 0.0249921 0.0229461 0.0208149 0.0186318 0.0164313 0.0142482 0.012117 0.0100715 0.00814392 0.00636519 0.00476442 0.00337048 0.00221201 0.00129443 0.000619704 0.000194246 1.49889e-27 0 0.00020919 0.000834188 0.00186463 0.00330579 0.00510863 0.00724805 0.00968882 0.0123884 0.0153037 0.0183868 0.0215871 0.0248522 0.0281293 0.0313646 0.0345058 0.037503 0.0403097 0.0428838 0.0451881 0.0471904 0.0488632 0.0501837 0.0511333 0.0516975 0.0518837 0.0516667 0.0510636 0.0500627 0.0486805 0.0469394 0.0448673 0.042496 0.0398622 0.037008 0.0339792 0.0308239 0.0275915 0.024333 0.0211003 0.0179446 0.0149155 0.0120613 0.00942749 0.00705722 0.00499291 0.00327645 0.00192014 0.000920084 0.000288008 2.21875e-27 0 0.000270503 0.00107802 0.00241323 0.00426441 0.00658383 0.0093384 0.0124838 0.0159686 0.0197363 0.0237261 0.0278738 0.0321132 0.0363778 0.0406001 0.0447136 0.0486543 0.0523613 0.0557773 0.0588498 0.0615315 0.0637813 0.0655647 0.0668542 0.0676297 0.0678869 0.067617 0.0668318 0.0655244 0.063718 0.0614418 0.0587318 0.0556292 0.0521825 0.0484474 0.0444834 0.0403533 0.0361221 0.0318564 0.0276243 0.023493 0.0195275 0.0157909 0.0123428 0.00923948 0.00653592 0.00428649 0.00251077 0.00120526 0.000380445 2.9036e-27 0 0.000328219 0.00130779 0.00292806 0.00515844 0.00796342 0.0112978 0.0151078 0.0193323 0.0239037 0.0287493 0.0337922 0.0389529 0.0441508 0.0493041 0.0543313 0.0591537 0.0636961 0.0678874 0.0716621 0.0749612 0.0777332 0.0799347 0.0815314 0.0824983 0.0828207 0.0825018 0.0815485 0.0799563 0.0777553 0.0749808 0.0716758 0.067891 0.0636864 0.0591292 0.0542922 0.0492521 0.0440882 0.0388819 0.0337164 0.0286739 0.0238338 0.019273 0.0150642 0.011276 0.00797448 0.0052255 0.00305805 0.00146643 0.000460698 3.54267e-27 0 0.000381075 0.00151881 0.00339584 0.00598184 0.00923539 0.0131044 0.017527 0.0224328 0.0277438 0.033376 0.0392403 0.0452444 0.0512948 0.0572962 0.0631536 0.0687754 0.0740737 0.0789654 0.0833738 0.0872301 0.0904734 0.0930519 0.0949257 0.0960663 0.0964494 0.0960863 0.0949812 0.0931304 0.0905705 0.087342 0.0834944 0.0790876 0.0741918 0.0688844 0.0632502 0.057379 0.0513634 0.045298 0.0392799 0.0334051 0.027766 0.0224521 0.0175484 0.0131343 0.0092857 0.00607861 0.00355328 0.0017012 0.00053382 4.12586e-27 0 0.000428376 0.00170673 0.00381518 0.00672009 0.0103751 0.014722 0.0196915 0.0252049 0.0311746 0.0375065 0.0441005 0.0508531 0.0576594 0.0644122 0.0710045 0.0773334 0.0832997 0.0888104 0.093778 0.0981282 0.10179 0.104702 0.106822 0.108118 0.108557 0.108157 0.10692 0.104841 0.101963 0.0983312 0.0940016 0.0890423 0.0835318 0.0775577 0.0712151 0.064605 0.0578325 0.0510034 0.0442265 0.0376114 0.0312615 0.0252779 0.0197559 0.0147849 0.010449 0.00683269 0.00398865 0.0019059 0.000595577 4.64397e-27 0 0.000469086 0.00186876 0.00417688 0.00735664 0.0113574 0.0161154 0.0215552 0.0275904 0.0341257 0.0410578 0.0482777 0.0556718 0.0631257 0.0705222 0.0777442 0.0846797 0.0912199 0.0972644 0.102713 0.107483 0.111501 0.114702 0.117036 0.118465 0.118953 0.118522 0.117172 0.114898 0.111747 0.107769 0.103027 0.0975937 0.0915564 0.0850109 0.0780613 0.0708168 0.063392 0.0559049 0.0484772 0.0412266 0.0342654 0.0277055 0.0216519 0.0162017 0.0114462 0.00747651 0.00435744 0.00207756 0.000645984 5.08886e-27 0 0.000502538 0.00200177 0.00447374 0.00787894 0.0121631 0.017258 0.0230829 0.0295453 0.0365433 0.0439666 0.0516984 0.0596174 0.0676015 0.0755253 0.0832632 0.0906977 0.0977068 0.104183 0.110026 0.115143 0.119455 0.122893 0.125403 0.126944 0.127475 0.127019 0.125578 0.123144 0.119771 0.115511 0.11043 0.10461 0.0981408 0.0911265 0.0836779 0.0759123 0.0679534 0.0599282 0.0519651 0.0441913 0.0367297 0.0296968 0.0232064 0.0173626 0.012262 0.00800074 0.00465415 0.0022138 0.000684607 5.45349e-27 0 0.000528105 0.00210339 0.00470048 0.00827774 0.012778 0.0181298 0.024248 0.0310359 0.0383864 0.0461836 0.0543053 0.0626243 0.0710124 0.0793385 0.08747 0.0952813 0.102649 0.109457 0.115602 0.120985 0.125524 0.129145 0.131792 0.13342 0.133986 0.133514 0.132004 0.129451 0.125909 0.121434 0.116096 0.10998 0.103182 0.095809 0.0879781 0.0798136 0.0714461 0.0630079 0.054634 0.04646 0.0386145 0.0312201 0.0243953 0.0182495 0.0128839 0.00839798 0.00487463 0.00231293 0.000711116 5.73211e-27 0 0.00054536 0.00217192 0.00485328 0.00854628 0.0131919 0.0187161 0.0250312 0.0320374 0.0396241 0.0476722 0.0560554 0.0646428 0.0733024 0.0818986 0.090295 0.0983605 0.105969 0.113003 0.119352 0.124917 0.129611 0.133358 0.1361 0.13779 0.138384 0.137904 0.136352 0.133719 0.130065 0.125445 0.119934 0.113619 0.106599 0.0989842 0.0908956 0.0824612 0.073816 0.0650966 0.0564437 0.0479971 0.0398903 0.0322513 0.0251996 0.0188489 0.0133028 0.00866273 0.00501617 0.00237392 0.000725294 5.92033e-27 0 0.000553971 0.00220591 0.00492863 0.00867803 0.013394 0.0190012 0.0254109 0.0325216 0.0402215 0.0483898 0.0568987 0.0656156 0.0744071 0.0831375 0.0916663 0.0998594 0.10759 0.114739 0.121196 0.126858 0.131637 0.135455 0.138252 0.139983 0.1406 0.140121 0.138553 0.135885 0.132177 0.127487 0.12189 0.115475 0.108342 0.100605 0.0923843 0.0838127 0.0750267 0.0661636 0.0573673 0.0487801 0.0405382 0.0327739 0.0256081 0.0191517 0.0135125 0.00879147 0.00507762 0.0023963 0.000727054 6.01521e-27 0 0.000553921 0.00220559 0.00492765 0.00867588 0.0133901 0.018995 0.0254017 0.032509 0.0402051 0.0483694 0.0568744 0.0655877 0.0743792 0.0831091 0.0916351 0.0998259 0.107557 0.114708 0.121168 0.126833 0.131615 0.135438 0.13824 0.139976 0.140599 0.140129 0.138568 0.135907 0.132204 0.127518 0.121924 0.115509 0.108375 0.100633 0.0924082 0.083833 0.0750423 0.0661747 0.0573748 0.0487843 0.0405387 0.0327708 0.0256047 0.0191503 0.0135073 0.00878073 0.00505833 0.00237975 0.000716435 6.01527e-27 0 0.000545118 0.00217037 0.00484857 0.00853601 0.0131733 0.0186863 0.0249876 0.0319777 0.0395466 0.047576 0.0559409 0.0645135 0.073162 0.0817473 0.0901327 0.0981916 0.105801 0.11284 0.1192 0.12478 0.129493 0.133266 0.136035 0.137755 0.138381 0.137942 0.136434 0.133837 0.130211 0.125613 0.120116 0.113807 0.106783 0.099158 0.0910539 0.0826012 0.0739346 0.0651937 0.0565188 0.0480517 0.039926 0.0322703 0.025209 0.0188516 0.0132943 0.00863545 0.00496197 0.00232552 0.00069402 5.9205e-27 0 0.000527716 0.0021009 0.00469296 0.00826136 0.0127484 0.0180824 0.0241786 0.0309407 0.0382625 0.0460295 0.0541216 0.0624172 0.0707844 0.079089 0.0872028 0.0950034 0.102369 0.109184 0.115344 0.120753 0.125325 0.128987 0.13168 0.133358 0.133982 0.133578 0.132141 0.129646 0.126152 0.121714 0.116399 0.110292 0.103489 0.0960998 0.0882441 0.080049 0.071647 0.063173 0.0547625 0.0465538 0.0386783 0.0312588 0.0244144 0.0182549 0.012875 0.00835539 0.00478971 0.00223431 0.000660543 5.73241e-27 0 0.000501981 0.00199824 0.00446321 0.00785616 0.0121221 0.0171926 0.0229871 0.0294141 0.0363729 0.0437548 0.0514471 0.0593318 0.0672838 0.0751776 0.0828921 0.0903101 0.0973155 0.1038 0.109665 0.114815 0.119173 0.122668 0.125244 0.126856 0.12747 0.127107 0.125754 0.123394 0.120086 0.115884 0.11085 0.105056 0.098587 0.0915505 0.0840643 0.0762528 0.0682439 0.0601663 0.0521516 0.0443284 0.0368247 0.0297579 0.0232385 0.0173729 0.012251 0.00794506 0.00454512 0.00210829 0.000617206 5.45397e-27 0 0.000468321 0.00186401 0.00416286 0.00732662 0.0113038 0.0160305 0.0214315 0.0274217 0.0339071 0.0407869 0.047958 0.0553064 0.0627167 0.0700755 0.077269 0.0841861 0.090722 0.0967753 0.10225 0.107061 0.111136 0.114409 0.116829 0.118355 0.118951 0.118606 0.117329 0.11512 0.112032 0.10812 0.103447 0.0980839 0.0921015 0.0855668 0.0785796 0.0712733 0.0637798 0.0562231 0.0487266 0.0414116 0.0343954 0.0277913 0.0216994 0.0162183 0.0114324 0.00741188 0.00423245 0.00195063 0.000565253 5.08955e-27 0 0.000427281 0.00170037 0.00379671 0.00668108 0.0103064 0.0146143 0.0195361 0.0249943 0.0309035 0.0371719 0.0437067 0.0504031 0.0571556 0.0638628 0.0704218 0.0767306 0.0826931 0.0882179 0.0932167 0.097614 0.101342 0.104344 0.106576 0.107998 0.10856 0.108242 0.107082 0.105076 0.102263 0.0986907 0.0944124 0.0894998 0.0840475 0.0781464 0.0718415 0.0651849 0.0583251 0.051405 0.0445423 0.0378483 0.0314286 0.0253891 0.0198209 0.0148107 0.0104364 0.0067651 0.00385656 0.0017653 0.000505671 4.64491e-27 0 0.000379504 0.00150994 0.00337077 0.00593027 0.00914629 0.0129668 0.0173312 0.0221707 0.0274096 0.0329678 0.038762 0.0446998 0.0506881 0.0566377 0.062458 0.0680597 0.0733565 0.0782652 0.0827107 0.0866251 0.0899491 0.0926383 0.0946545 0.0959442 0.0964567 0.09619 0.0951783 0.0934122 0.090927 0.0877617 0.0839636 0.0795913 0.0747188 0.0694404 0.0638654 0.058039 0.051961 0.045787 0.0396634 0.0336938 0.0279714 0.0225894 0.0176325 0.0131721 0.00927867 0.00601269 0.00342254 0.0015564 0.000439204 4.12702e-27 0 0.000325725 0.00129564 0.00289165 0.00508602 0.00784205 0.011115 0.0148528 0.0189967 0.0234822 0.0282415 0.0332026 0.038287 0.0434161 0.0485141 0.0535034 0.058308 0.0628555 0.0670727 0.0708963 0.0742678 0.0771388 0.0794808 0.0812421 0.082368 0.08283 0.0826257 0.081779 0.0802826 0.0781654 0.0754605 0.0722088 0.0684608 0.064274 0.0597203 0.0548863 0.0498839 0.0447543 0.0394544 0.0341652 0.0290127 0.0240784 0.0194378 0.015168 0.0113276 0.00797671 0.00516627 0.00293682 0.00132793 0.00036702 3.54405e-27 0 0.000266797 0.0010608 0.00236659 0.00416103 0.00641367 0.00908766 0.01214 0.0155227 0.0191836 0.0230677 0.0271161 0.0312661 0.0354543 0.0396188 0.0436968 0.0476276 0.0513522 0.0548107 0.0579517 0.0607275 0.0631046 0.0650681 0.0665467 0.0674909 0.0678964 0.0677585 0.0670921 0.0658903 0.0641753 0.0619743 0.0593206 0.0562571 0.0528296 0.0490942 0.0451134 0.0409632 0.0367629 0.0324915 0.0281327 0.0238772 0.0198077 0.0159826 0.0124655 0.00930598 0.00655077 0.00423983 0.00240723 0.00108339 0.00029151 2.90519e-27 0 0.000203668 0.000809182 0.00180399 0.00316979 0.00488305 0.00691537 0.00923382 0.0118021 0.0145808 0.0175274 0.0205986 0.0237477 0.0269282 0.0300922 0.0331918 0.0361845 0.0390254 0.0416689 0.0440754 0.0462096 0.0480567 0.0496128 0.0507959 0.0515505 0.0518934 0.0518244 0.0513513 0.050464 0.0491791 0.0475177 0.045504 0.043172 0.0405575 0.0377029 0.0346536 0.0314589 0.0281939 0.024971 0.0216554 0.0183661 0.0152247 0.0122772 0.00956842 0.00713972 0.00502292 0.00324822 0.00184225 0.000825835 0.000215943 2.22051e-27 0 0.000137339 0.000544872 0.00121295 0.0021283 0.00327468 0.00463246 0.00617969 0.00789226 0.00974416 0.0117072 0.0137527 0.0158506 0.0179726 0.0200861 0.0221588 0.0241656 0.0260774 0.0278633 0.0294963 0.0309521 0.0322261 0.0333372 0.0342216 0.0347937 0.035075 0.0350777 0.0348056 0.0342472 0.033413 0.0323188 0.0309782 0.0294138 0.0276533 0.0257241 0.0236557 0.0214813 0.0192395 0.0170162 0.0148248 0.0125644 0.0104022 0.00837939 0.00652249 0.00486213 0.00341667 0.00220684 0.00124973 0.000558167 0.000142459 1.50064e-27 0 6.88417e-05 0.000271991 0.000602812 0.00105319 0.00161413 0.00227521 0.00302593 0.00385467 0.00474934 0.00569772 0.00668589 0.0076997 0.00872879 0.0097589 0.0107733 0.0117623 0.0127146 0.0136134 0.0144446 0.0151946 0.015861 0.0164748 0.0170398 0.0174627 0.0177057 0.0177834 0.0177138 0.0174932 0.0171232 0.016615 0.0159711 0.0152007 0.014322 0.0133481 0.0122925 0.0111741 0.0100112 0.00883711 0.00773656 0.00656182 0.00541559 0.00434957 0.00337456 0.00250799 0.00175708 0.00113173 0.00063848 0.000283648 7.10475e-05 7.5666e-28 0 -7.83121e-07 -5.40273e-06 -1.72559e-05 -3.91546e-05 -7.29675e-05 -0.000119521 -0.000178072 -0.000247411 -0.00032528 -0.000408089 -0.000493757 -0.000580394 -0.000661825 -0.000732752 -0.000793119 -0.000838722 -0.000862026 -0.000864589 -0.00084749 -0.000810143 -0.00074542 -0.000631817 -0.000452118 -0.000211472 4.01362e-05 0.000197127 0.000335201 0.000460308 0.000564037 0.000651788 0.000717831 0.000756496 0.00077422 0.000771256 0.000745235 0.000699366 0.000636341 0.000559777 0.000515971 0.000450466 0.000342133 0.000250462 0.000173909 0.000114894 7.07521e-05 3.96113e-05 1.80605e-05 5.89257e-06 8.51893e-07 8.07105e-31 0 -7.25268e-05 -0.000284871 -0.000639251 -0.00113304 -0.00176063 -0.00251339 -0.00337993 -0.00434604 -0.00539514 -0.00650825 -0.00766653 -0.00885177 -0.0100418 -0.0112128 -0.012347 -0.0134247 -0.0144213 -0.0153216 -0.0161123 -0.0167771 -0.0172965 -0.0176482 -0.0178158 -0.0177998 -0.0176417 -0.0174108 -0.0170619 -0.0165892 -0.0160091 -0.0153251 -0.0145508 -0.013704 -0.0127908 -0.0118229 -0.0108184 -0.00979063 -0.00875265 -0.0077193 -0.00668916 -0.00567138 -0.0047377 -0.00385315 -0.00302967 -0.00227967 -0.00161633 -0.00105309 -0.000602278 -0.000271582 -6.87661e-05 -7.54256e-28 0 -0.000151117 -0.00056681 -0.00125708 -0.00221431 -0.00342549 -0.00487249 -0.00653293 -0.00838026 -0.0103841 -0.0125105 -0.0147235 -0.0169887 -0.0192678 -0.0215206 -0.0237101 -0.025801 -0.0277542 -0.0295347 -0.0311159 -0.0324677 -0.0335611 -0.0343701 -0.034877 -0.0350839 -0.035028 -0.0347344 -0.0341816 -0.0333718 -0.0323241 -0.0310537 -0.029585 -0.0279431 -0.0261471 -0.0242232 -0.0222041 -0.0201186 -0.0179967 -0.0158694 -0.01376 -0.0116859 -0.00973208 -0.00788984 -0.00618221 -0.00463633 -0.00327703 -0.00212887 -0.00121275 -0.000544689 -0.000137282 -1.49713e-27 0 -0.000236093 -0.000849277 -0.00186297 -0.00326725 -0.00504208 -0.00716009 -0.00958805 -0.0122872 -0.015214 -0.0183199 -0.0215532 -0.0248629 -0.0281953 -0.0314938 -0.0347035 -0.0377727 -0.0406513 -0.0432864 -0.0456296 -0.047647 -0.0493008 -0.05056 -0.0514045 -0.0518264 -0.0518575 -0.0515031 -0.0507541 -0.0496211 -0.0481244 -0.0462893 -0.0441492 -0.0417363 -0.039084 -0.0362339 -0.0332309 -0.0301206 -0.0269494 -0.0237645 -0.0206051 -0.0174998 -0.0145634 -0.0117974 -0.00923493 -0.00691877 -0.00488567 -0.0031708 -0.00180386 -0.00080914 -0.00020364 -2.21658e-27 0 -0.000323075 -0.00112809 -0.00244854 -0.00427614 -0.00658544 -0.00934042 -0.0124973 -0.0160056 -0.019809 -0.023845 -0.0280488 -0.0323515 -0.0366843 -0.0409761 -0.0451555 -0.0491547 -0.0529096 -0.0563569 -0.0594321 -0.062084 -0.064275 -0.0659664 -0.0671341 -0.0677593 -0.0678674 -0.0674567 -0.0665234 -0.0650831 -0.063161 -0.0607906 -0.0580098 -0.0548609 -0.0513928 -0.0476609 -0.0437221 -0.039637 -0.0354672 -0.0312761 -0.0271179 -0.0230281 -0.0191585 -0.0155151 -0.0121399 -0.00909102 -0.0064166 -0.00416222 -0.00236638 -0.00106076 -0.000266787 -2.90128e-27 0 -0.0004078 -0.00139715 -0.00300456 -0.00522539 -0.00803142 -0.0113791 -0.0152147 -0.0194768 -0.0240969 -0.0290001 -0.0341081 -0.0393365 -0.0446018 -0.0498189 -0.0549025 -0.0597691 -0.0643399 -0.0685415 -0.0723002 -0.0755541 -0.0782534 -0.0803507 -0.0818185 -0.08263 -0.0828068 -0.0823454 -0.0812421 -0.0795158 -0.0771979 -0.0743263 -0.0709454 -0.0671098 -0.062881 -0.0583257 -0.0535138 -0.0485189 -0.0434169 -0.0382863 -0.0331949 -0.0281857 -0.0234466 -0.018985 -0.0148516 -0.0111189 -0.00784572 -0.00508763 -0.00289154 -0.00129557 -0.000325715 -3.54038e-27 0 -0.000488975 -0.00164995 -0.00352119 -0.00609974 -0.00935707 -0.0132438 -0.0176973 -0.0226459 -0.0280101 -0.0337033 -0.0396334 -0.0457071 -0.0518236 -0.057884 -0.0637916 -0.0694495 -0.0747656 -0.0796542 -0.0840353 -0.0878378 -0.0909996 -0.0934705 -0.095215 -0.096198 -0.0964412 -0.0959354 -0.0946765 -0.0926903 -0.0900107 -0.0866807 -0.0827538 -0.0782938 -0.0733732 -0.0680681 -0.06246 -0.0566348 -0.0506816 -0.0446927 -0.038746 -0.0328928 -0.0273616 -0.0221533 -0.0173277 -0.0129704 -0.00915056 -0.00593258 -0.00337104 -0.00150991 -0.000379496 -4.12375e-27 0 -0.000565595 -0.00188067 -0.00398858 -0.0068846 -0.010541 -0.0149047 -0.0199056 -0.0254627 -0.0314867 -0.0378804 -0.0445405 -0.0513635 -0.0582362 -0.0650451 -0.0716833 -0.0780441 -0.0840231 -0.0895236 -0.0944575 -0.0987451 -0.102318 -0.105121 -0.107112 -0.108249 -0.108552 -0.108009 -0.106613 -0.104396 -0.101396 -0.0976607 -0.0932523 -0.0882412 -0.0827071 -0.0767377 -0.0704232 -0.0638601 -0.0571496 -0.0503964 -0.0436826 -0.0370761 -0.0308431 -0.0249705 -0.0195294 -0.0146165 -0.0103106 -0.00668363 -0.00379718 -0.00170045 -0.000427284 -4.64211e-27 0 -0.00063565 -0.00208425 -0.00439748 -0.00756637 -0.0115637 -0.016335 -0.0218041 -0.0278823 -0.0344715 -0.0414655 -0.0487512 -0.0562145 -0.0637359 -0.0711887 -0.0784541 -0.0854175 -0.0919659 -0.0979933 -0.103403 -0.108109 -0.112036 -0.115124 -0.117327 -0.118597 -0.11895 -0.118376 -0.116863 -0.11445 -0.111177 -0.107097 -0.102278 -0.0967962 -0.0907368 -0.0841952 -0.077272 -0.0700739 -0.0627122 -0.0553018 -0.0479188 -0.0406707 -0.0338372 -0.0273929 -0.0214225 -0.0160314 -0.0113075 -0.00732898 -0.00416325 -0.00186414 -0.000468334 -5.08725e-27 0 -0.000695491 -0.00225603 -0.00473975 -0.00813287 -0.0124082 -0.0175114 -0.0233623 -0.029866 -0.0369169 -0.0444015 -0.0521988 -0.0601863 -0.0682359 -0.0762157 -0.0839959 -0.0914532 -0.0984681 -0.104928 -0.110729 -0.115779 -0.119998 -0.123321 -0.125698 -0.127076 -0.127473 -0.126875 -0.125269 -0.122697 -0.119202 -0.114842 -0.109688 -0.103819 -0.0973285 -0.0903165 -0.082893 -0.0751733 -0.0672776 -0.0593278 -0.0513803 -0.0436222 -0.0362974 -0.0293828 -0.0229775 -0.0171929 -0.0121255 -0.00785846 -0.00446351 -0.00199835 -0.000501996 -5.45219e-27 0 -0.000738127 -0.0023919 -0.00500857 -0.00857366 -0.01306 -0.0184144 -0.0245549 -0.0313817 -0.0387838 -0.0466416 -0.0548284 -0.0632151 -0.0716672 -0.0800472 -0.0882196 -0.0960545 -0.103426 -0.110217 -0.116318 -0.121631 -0.126075 -0.129579 -0.13209 -0.133554 -0.133986 -0.133373 -0.131698 -0.129008 -0.125346 -0.120773 -0.115362 -0.109197 -0.102376 -0.0950056 -0.0872002 -0.0790819 -0.0707774 -0.0624111 -0.0540128 -0.0458885 -0.0381854 -0.030909 -0.0241701 -0.0180828 -0.0127518 -0.00826367 -0.00469325 -0.002101 -0.000527731 -5.73119e-27 0 -0.000765144 -0.00248925 -0.00519855 -0.00888038 -0.0135076 -0.0190289 -0.0253623 -0.0324049 -0.040042 -0.0481498 -0.0565977 -0.0652523 -0.0739746 -0.082623 -0.0910594 -0.0991479 -0.106761 -0.113776 -0.12008 -0.125573 -0.130169 -0.133797 -0.136402 -0.137927 -0.138386 -0.137766 -0.136049 -0.133281 -0.12951 -0.124795 -0.119212 -0.112849 -0.105806 -0.0981934 -0.0901297 -0.0817412 -0.0731587 -0.064496 -0.0557851 -0.0474356 -0.0394709 -0.0319445 -0.0249795 -0.0186867 -0.0131764 -0.00853825 -0.00484884 -0.00217047 -0.000545135 -5.91978e-27 0 -0.00080112 -0.00254546 -0.00530547 -0.00904643 -0.013742 -0.0193427 -0.0257685 -0.0329153 -0.0406663 -0.0488956 -0.0574708 -0.0662562 -0.0751107 -0.0838906 -0.0924564 -0.100671 -0.108405 -0.115534 -0.121944 -0.12753 -0.132207 -0.135902 -0.13856 -0.140123 -0.140604 -0.139986 -0.138252 -0.135452 -0.131629 -0.126847 -0.121181 -0.11472 -0.107566 -0.0998317 -0.091637 -0.0831112 -0.0743849 -0.0655314 -0.0566867 -0.0482368 -0.0401334 -0.0324739 -0.0253923 -0.0189947 -0.0133927 -0.00867787 -0.00492785 -0.00220568 -0.000553935 -6.01497e-27 0 -0.000808169 -0.0025591 -0.00532786 -0.00907114 -0.0137638 -0.019359 -0.0257797 -0.0329228 -0.0406709 -0.048898 -0.0574711 -0.0662548 -0.0751076 -0.0838858 -0.0924499 -0.100663 -0.108396 -0.115525 -0.121935 -0.127523 -0.1322 -0.135896 -0.138556 -0.140122 -0.140605 -0.139996 -0.138271 -0.135478 -0.131663 -0.126887 -0.121226 -0.114769 -0.107617 -0.0998823 -0.0916868 -0.0831596 -0.0744185 -0.0654756 -0.056706 -0.0