<?xml version="1.0"?>
<VTKFile type="PolyData">
	<PolyData>
		<Piece NumberOfPoints="2601" NumberOfPolys="2500">
			<Points>
				<DataArray type="Float32" NumberOfComponents="3" format="ascii">
 0 0 0 0.02 0 0 0.04 0 0 0.06 0 0 0.08 0 0 0.1 0 0 0.12 0 0 0.14 0 0 0.16 0 0 0.18 0 0 0.2 0 0 0.22 0 0 0.24 0 0 0.26 0 0 0.28 0 0 0.3 0 0 0.32 0 0 0.34 0 0 0.36 0 0 0.38 0 0 0.4 0 0 0.42 0 0 0.44 0 0 0.46 0 0 0.48 0 0 0.5 0 0 0.52 0 0 0.54 0 0 0.56 0 0 0.58 0 0 0.6 0 0 0.62 0 0 0.64 0 0 0.66 0 0 0.68 0 0 0.7 0 0 0.72 0 0 0.74 0 0 0.76 0 0 0.78 0 0 0.8 0 0 0.82 0 0 0.84 0 0 0.86 0 0 0.88 0 0 0.9 0 0 0.92 0 0 0.94 0 0 0.96 0 0 0.98 0 0 1 0 0 0 0.02 0 0.02 0.02 0 0.04 0.02 0 0.06 0.02 0 0.08 0.02 0 0.1 0.02 0 0.12 0.02 0 0.14 0.02 0 0.16 0.02 0 0.18 0.02 0 0.2 0.02 0 0.22 0.02 0 0.24 0.02 0 0.26 0.02 0 0.28 0.02 0 0.3 0.02 0 0.32 0.02 0 0.34 0.02 0 0.36 0.02 0 0.38 0.02 0 0.4 0.02 0 0.42 0.02 0 0.44 0.02 0 0.46 0.02 0 0.48 0.02 0 0.5 0.02 0 0.52 0.02 0 0.54 0.02 0 0.56 0.02 0 0.58 0.02 0 0.6 0.02 0 0.62 0.02 0 0.64 0.02 0 0.66 0.02 0 0.68 0.02 0 0.7 0.02 0 0.72 0.02 0 0.74 0.02 0 0.76 0.02 0 0.78 0.02 0 0.8 0.02 0 0.82 0.02 0 0.84 0.02 0 0.86 0.02 0 0.88 0.02 0 0.9 0.02 0 0.92 0.02 0 0.94 0.02 0 0.96 0.02 0 0.98 0.02 0 1 0.02 0 0 0.04 0 0.02 0.04 0 0.04 0.04 0 0.06 0.04 0 0.08 0.04 0 0.1 0.04 0 0.12 0.04 0 0.14 0.04 0 0.16 0.04 0 0.18 0.04 0 0.2 0.04 0 0.22 0.04 0 0.24 0.04 0 0.26 0.04 0 0.28 0.04 0 0.3 0.04 0 0.32 0.04 0 0.34 0.04 0 0.36 0.04 0 0.38 0.04 0 0.4 0.04 0 0.42 0.04 0 0.44 0.04 0 0.46 0.04 0 0.48 0.04 0 0.5 0.04 0 0.52 0.04 0 0.54 0.04 0 0.56 0.04 0 0.58 0.04 0 0.6 0.04 0 0.62 0.04 0 0.64 0.04 0 0.66 0.04 0 0.68 0.04 0 0.7 0.04 0 0.72 0.04 0 0.74 0.04 0 0.76 0.04 0 0.78 0.04 0 0.8 0.04 0 0.82 0.04 0 0.84 0.04 0 0.86 0.04 0 0.88 0.04 0 0.9 0.04 0 0.92 0.04 0 0.94 0.04 0 0.96 0.04 0 0.98 0.04 0 1 0.04 0 0 0.06 0 0.02 0.06 0 0.04 0.06 0 0.06 0.06 0 0.08 0.06 0 0.1 0.06 0 0.12 0.06 0 0.14 0.06 0 0.16 0.06 0 0.18 0.06 0 0.2 0.06 0 0.22 0.06 0 0.24 0.06 0 0.26 0.06 0 0.28 0.06 0 0.3 0.06 0 0.32 0.06 0 0.34 0.06 0 0.36 0.06 0 0.38 0.06 0 0.4 0.06 0 0.42 0.06 0 0.44 0.06 0 0.46 0.06 0 0.48 0.06 0 0.5 0.06 0 0.52 0.06 0 0.54 0.06 0 0.56 0.06 0 0.58 0.06 0 0.6 0.06 0 0.62 0.06 0 0.64 0.06 0 0.66 0.06 0 0.68 0.06 0 0.7 0.06 0 0.72 0.06 0 0.74 0.06 0 0.76 0.06 0 0.78 0.06 0 0.8 0.06 0 0.82 0.06 0 0.84 0.06 0 0.86 0.06 0 0.88 0.06 0 0.9 0.06 0 0.92 0.06 0 0.94 0.06 0 0.96 0.06 0 0.98 0.06 0 1 0.06 0 0 0.08 0 0.02 0.08 0 0.04 0.08 0 0.06 0.08 0 0.08 0.08 0 0.1 0.08 0 0.12 0.08 0 0.14 0.08 0 0.16 0.08 0 0.18 0.08 0 0.2 0.08 0 0.22 0.08 0 0.24 0.08 0 0.26 0.08 0 0.28 0.08 0 0.3 0.08 0 0.32 0.08 0 0.34 0.08 0 0.36 0.08 0 0.38 0.08 0 0.4 0.08 0 0.42 0.08 0 0.44 0.08 0 0.46 0.08 0 0.48 0.08 0 0.5 0.08 0 0.52 0.08 0 0.54 0.08 0 0.56 0.08 0 0.58 0.08 0 0.6 0.08 0 0.62 0.08 0 0.64 0.08 0 0.66 0.08 0 0.68 0.08 0 0.7 0.08 0 0.72 0.08 0 0.74 0.08 0 0.76 0.08 0 0.78 0.08 0 0.8 0.08 0 0.82 0.08 0 0.84 0.08 0 0.86 0.08 0 0.88 0.08 0 0.9 0.08 0 0.92 0.08 0 0.94 0.08 0 0.96 0.08 0 0.98 0.08 0 1 0.08 0 0 0.1 0 0.02 0.1 0 0.04 0.1 0 0.06 0.1 0 0.08 0.1 0 0.1 0.1 0 0.12 0.1 0 0.14 0.1 0 0.16 0.1 0 0.18 0.1 0 0.2 0.1 0 0.22 0.1 0 0.24 0.1 0 0.26 0.1 0 0.28 0.1 0 0.3 0.1 0 0.32 0.1 0 0.34 0.1 0 0.36 0.1 0 0.38 0.1 0 0.4 0.1 0 0.42 0.1 0 0.44 0.1 0 0.46 0.1 0 0.48 0.1 0 0.5 0.1 0 0.52 0.1 0 0.54 0.1 0 0.56 0.1 0 0.58 0.1 0 0.6 0.1 0 0.62 0.1 0 0.64 0.1 0 0.66 0.1 0 0.68 0.1 0 0.7 0.1 0 0.72 0.1 0 0.74 0.1 0 0.76 0.1 0 0.78 0.1 0 0.8 0.1 0 0.82 0.1 0 0.84 0.1 0 0.86 0.1 0 0.88 0.1 0 0.9 0.1 0 0.92 0.1 0 0.94 0.1 0 0.96 0.1 0 0.98 0.1 0 1 0.1 0 0 0.12 0 0.02 0.12 0 0.04 0.12 0 0.06 0.12 0 0.08 0.12 0 0.1 0.12 0 0.12 0.12 0 0.14 0.12 0 0.16 0.12 0 0.18 0.12 0 0.2 0.12 0 0.22 0.12 0 0.24 0.12 0 0.26 0.12 0 0.28 0.12 0 0.3 0.12 0 0.32 0.12 0 0.34 0.12 0 0.36 0.12 0 0.38 0.12 0 0.4 0.12 0 0.42 0.12 0 0.44 0.12 0 0.46 0.12 0 0.48 0.12 0 0.5 0.12 0 0.52 0.12 0 0.54 0.12 0 0.56 0.12 0 0.58 0.12 0 0.6 0.12 0 0.62 0.12 0 0.64 0.12 0 0.66 0.12 0 0.68 0.12 0 0.7 0.12 0 0.72 0.12 0 0.74 0.12 0 0.76 0.12 0 0.78 0.12 0 0.8 0.12 0 0.82 0.12 0 0.84 0.12 0 0.86 0.12 0 0.88 0.12 0 0.9 0.12 0 0.92 0.12 0 0.94 0.12 0 0.96 0.12 0 0.98 0.12 0 1 0.12 0 0 0.14 0 0.02 0.14 0 0.04 0.14 0 0.06 0.14 0 0.08 0.14 0 0.1 0.14 0 0.12 0.14 0 0.14 0.14 0 0.16 0.14 0 0.18 0.14 0 0.2 0.14 0 0.22 0.14 0 0.24 0.14 0 0.26 0.14 0 0.28 0.14 0 0.3 0.14 0 0.32 0.14 0 0.34 0.14 0 0.36 0.14 0 0.38 0.14 0 0.4 0.14 0 0.42 0.14 0 0.44 0.14 0 0.46 0.14 0 0.48 0.14 0 0.5 0.14 0 0.52 0.14 0 0.54 0.14 0 0.56 0.14 0 0.58 0.14 0 0.6 0.14 0 0.62 0.14 0 0.64 0.14 0 0.66 0.14 0 0.68 0.14 0 0.7 0.14 0 0.72 0.14 0 0.74 0.14 0 0.76 0.14 0 0.78 0.14 0 0.8 0.14 0 0.82 0.14 0 0.84 0.14 0 0.86 0.14 0 0.88 0.14 0 0.9 0.14 0 0.92 0.14 0 0.94 0.14 0 0.96 0.14 0 0.98 0.14 0 1 0.14 0 0 0.16 0 0.02 0.16 0 0.04 0.16 0 0.06 0.16 0 0.08 0.16 0 0.1 0.16 0 0.12 0.16 0 0.14 0.16 0 0.16 0.16 0 0.18 0.16 0 0.2 0.16 0 0.22 0.16 0 0.24 0.16 0 0.26 0.16 0 0.28 0.16 0 0.3 0.16 0 0.32 0.16 0 0.34 0.16 0 0.36 0.16 0 0.38 0.16 0 0.4 0.16 0 0.42 0.16 0 0.44 0.16 0 0.46 0.16 0 0.48 0.16 0 0.5 0.16 0 0.52 0.16 0 0.54 0.16 0 0.56 0.16 0 0.58 0.16 0 0.6 0.16 0 0.62 0.16 0 0.64 0.16 0 0.66 0.16 0 0.68 0.16 0 0.7 0.16 0 0.72 0.16 0 0.74 0.16 0 0.76 0.16 0 0.78 0.16 0 0.8 0.16 0 0.82 0.16 0 0.84 0.16 0 0.86 0.16 0 0.88 0.16 0 0.9 0.16 0 0.92 0.16 0 0.94 0.16 0 0.96 0.16 0 0.98 0.16 0 1 0.16 0 0 0.18 0 0.02 0.18 0 0.04 0.18 0 0.06 0.18 0 0.08 0.18 0 0.1 0.18 0 0.12 0.18 0 0.14 0.18 0 0.16 0.18 0 0.18 0.18 0 0.2 0.18 0 0.22 0.18 0 0.24 0.18 0 0.26 0.18 0 0.28 0.18 0 0.3 0.18 0 0.32 0.18 0 0.34 0.18 0 0.36 0.18 0 0.38 0.18 0 0.4 0.18 0 0.42 0.18 0 0.44 0.18 0 0.46 0.18 0 0.48 0.18 0 0.5 0.18 0 0.52 0.18 0 0.54 0.18 0 0.56 0.18 0 0.58 0.18 0 0.6 0.18 0 0.62 0.18 0 0.64 0.18 0 0.66 0.18 0 0.68 0.18 0 0.7 0.18 0 0.72 0.18 0 0.74 0.18 0 0.76 0.18 0 0.78 0.18 0 0.8 0.18 0 0.82 0.18 0 0.84 0.18 0 0.86 0.18 0 0.88 0.18 0 0.9 0.18 0 0.92 0.18 0 0.94 0.18 0 0.96 0.18 0 0.98 0.18 0 1 0.18 0 0 0.2 0 0.02 0.2 0 0.04 0.2 0 0.06 0.2 0 0.08 0.2 0 0.1 0.2 0 0.12 0.2 0 0.14 0.2 0 0.16 0.2 0 0.18 0.2 0 0.2 0.2 0 0.22 0.2 0 0.24 0.2 0 0.26 0.2 0 0.28 0.2 0 0.3 0.2 0 0.32 0.2 0 0.34 0.2 0 0.36 0.2 0 0.38 0.2 0 0.4 0.2 0 0.42 0.2 0 0.44 0.2 0 0.46 0.2 0 0.48 0.2 0 0.5 0.2 0 0.52 0.2 0 0.54 0.2 0 0.56 0.2 0 0.58 0.2 0 0.6 0.2 0 0.62 0.2 0 0.64 0.2 0 0.66 0.2 0 0.68 0.2 0 0.7 0.2 0 0.72 0.2 0 0.74 0.2 0 0.76 0.2 0 0.78 0.2 0 0.8 0.2 0 0.82 0.2 0 0.84 0.2 0 0.86 0.2 0 0.88 0.2 0 0.9 0.2 0 0.92 0.2 0 0.94 0.2 0 0.96 0.2 0 0.98 0.2 0 1 0.2 0 0 0.22 0 0.02 0.22 0 0.04 0.22 0 0.06 0.22 0 0.08 0.22 0 0.1 0.22 0 0.12 0.22 0 0.14 0.22 0 0.16 0.22 0 0.18 0.22 0 0.2 0.22 0 0.22 0.22 0 0.24 0.22 0 0.26 0.22 0 0.28 0.22 0 0.3 0.22 0 0.32 0.22 0 0.34 0.22 0 0.36 0.22 0 0.38 0.22 0 0.4 0.22 0 0.42 0.22 0 0.44 0.22 0 0.46 0.22 0 0.48 0.22 0 0.5 0.22 0 0.52 0.22 0 0.54 0.22 0 0.56 0.22 0 0.58 0.22 0 0.6 0.22 0 0.62 0.22 0 0.64 0.22 0 0.66 0.22 0 0.68 0.22 0 0.7 0.22 0 0.72 0.22 0 0.74 0.22 0 0.76 0.22 0 0.78 0.22 0 0.8 0.22 0 0.82 0.22 0 0.84 0.22 0 0.86 0.22 0 0.88 0.22 0 0.9 0.22 0 0.92 0.22 0 0.94 0.22 0 0.96 0.22 0 0.98 0.22 0 1 0.22 0 0 0.24 0 0.02 0.24 0 0.04 0.24 0 0.06 0.24 0 0.08 0.24 0 0.1 0.24 0 0.12 0.24 0 0.14 0.24 0 0.16 0.24 0 0.18 0.24 0 0.2 0.24 0 0.22 0.24 0 0.24 0.24 0 0.26 0.24 0 0.28 0.24 0 0.3 0.24 0 0.32 0.24 0 0.34 0.24 0 0.36 0.24 0 0.38 0.24 0 0.4 0.24 0 0.42 0.24 0 0.44 0.24 0 0.46 0.24 0 0.48 0.24 0 0.5 0.24 0 0.52 0.24 0 0.54 0.24 0 0.56 0.24 0 0.58 0.24 0 0.6 0.24 0 0.62 0.24 0 0.64 0.24 0 0.66 0.24 0 0.68 0.24 0 0.7 0.24 0 0.72 0.24 0 0.74 0.24 0 0.76 0.24 0 0.78 0.24 0 0.8 0.24 0 0.82 0.24 0 0.84 0.24 0 0.86 0.24 0 0.88 0.24 0 0.9 0.24 0 0.92 0.24 0 0.94 0.24 0 0.96 0.24 0 0.98 0.24 0 1 0.24 0 0 0.26 0 0.02 0.26 0 0.04 0.26 0 0.06 0.26 0 0.08 0.26 0 0.1 0.26 0 0.12 0.26 0 0.14 0.26 0 0.16 0.26 0 0.18 0.26 0 0.2 0.26 0 0.22 0.26 0 0.24 0.26 0 0.26 0.26 0 0.28 0.26 0 0.3 0.26 0 0.32 0.26 0 0.34 0.26 0 0.36 0.26 0 0.38 0.26 0 0.4 0.26 0 0.42 0.26 0 0.44 0.26 0 0.46 0.26 0 0.48 0.26 0 0.5 0.26 0 0.52 0.26 0 0.54 0.26 0 0.56 0.26 0 0.58 0.26 0 0.6 0.26 0 0.62 0.26 0 0.64 0.26 0 0.66 0.26 0 0.68 0.26 0 0.7 0.26 0 0.72 0.26 0 0.74 0.26 0 0.76 0.26 0 0.78 0.26 0 0.8 0.26 0 0.82 0.26 0 0.84 0.26 0 0.86 0.26 0 0.88 0.26 0 0.9 0.26 0 0.92 0.26 0 0.94 0.26 0 0.96 0.26 0 0.98 0.26 0 1 0.26 0 0 0.28 0 0.02 0.28 0 0.04 0.28 0 0.06 0.28 0 0.08 0.28 0 0.1 0.28 0 0.12 0.28 0 0.14 0.28 0 0.16 0.28 0 0.18 0.28 0 0.2 0.28 0 0.22 0.28 0 0.24 0.28 0 0.26 0.28 0 0.28 0.28 0 0.3 0.28 0 0.32 0.28 0 0.34 0.28 0 0.36 0.28 0 0.38 0.28 0 0.4 0.28 0 0.42 0.28 0 0.44 0.28 0 0.46 0.28 0 0.48 0.28 0 0.5 0.28 0 0.52 0.28 0 0.54 0.28 0 0.56 0.28 0 0.58 0.28 0 0.6 0.28 0 0.62 0.28 0 0.64 0.28 0 0.66 0.28 0 0.68 0.28 0 0.7 0.28 0 0.72 0.28 0 0.74 0.28 0 0.76 0.28 0 0.78 0.28 0 0.8 0.28 0 0.82 0.28 0 0.84 0.28 0 0.86 0.28 0 0.88 0.28 0 0.9 0.28 0 0.92 0.28 0 0.94 0.28 0 0.96 0.28 0 0.98 0.28 0 1 0.28 0 0 0.3 0 0.02 0.3 0 0.04 0.3 0 0.06 0.3 0 0.08 0.3 0 0.1 0.3 0 0.12 0.3 0 0.14 0.3 0 0.16 0.3 0 0.18 0.3 0 0.2 0.3 0 0.22 0.3 0 0.24 0.3 0 0.26 0.3 0 0.28 0.3 0 0.3 0.3 0 0.32 0.3 0 0.34 0.3 0 0.36 0.3 0 0.38 0.3 0 0.4 0.3 0 0.42 0.3 0 0.44 0.3 0 0.46 0.3 0 0.48 0.3 0 0.5 0.3 0 0.52 0.3 0 0.54 0.3 0 0.56 0.3 0 0.58 0.3 0 0.6 0.3 0 0.62 0.3 0 0.64 0.3 0 0.66 0.3 0 0.68 0.3 0 0.7 0.3 0 0.72 0.3 0 0.74 0.3 0 0.76 0.3 0 0.78 0.3 0 0.8 0.3 0 0.82 0.3 0 0.84 0.3 0 0.86 0.3 0 0.88 0.3 0 0.9 0.3 0 0.92 0.3 0 0.94 0.3 0 0.96 0.3 0 0.98 0.3 0 1 0.3 0 0 0.32 0 0.02 0.32 0 0.04 0.32 0 0.06 0.32 0 0.08 0.32 0 0.1 0.32 0 0.12 0.32 0 0.14 0.32 0 0.16 0.32 0 0.18 0.32 0 0.2 0.32 0 0.22 0.32 0 0.24 0.32 0 0.26 0.32 0 0.28 0.32 0 0.3 0.32 0 0.32 0.32 0 0.34 0.32 0 0.36 0.32 0 0.38 0.32 0 0.4 0.32 0 0.42 0.32 0 0.44 0.32 0 0.46 0.32 0 0.48 0.32 0 0.5 0.32 0 0.52 0.32 0 0.54 0.32 0 0.56 0.32 0 0.58 0.32 0 0.6 0.32 0 0.62 0.32 0 0.64 0.32 0 0.66 0.32 0 0.68 0.32 0 0.7 0.32 0 0.72 0.32 0 0.74 0.32 0 0.76 0.32 0 0.78 0.32 0 0.8 0.32 0 0.82 0.32 0 0.84 0.32 0 0.86 0.32 0 0.88 0.32 0 0.9 0.32 0 0.92 0.32 0 0.94 0.
[...]
			<PointData Scalars="VitesseX">
				<DataArray Name="VitesseX" type="Float32" format="ascii">
 0 0 0 0 0 0 0 0 0 0 0 0 0 0 0 0 0 0 0 0 0 0 0 0 0 0 0 0 0 0 0 0 0 0 0 0 0 0 0 0 0 0 0 0 0 0 0 0 0 0 0 0 5.16489e-17 2.05781e-16 4.59966e-16 8.10194e-16 1.25094e-15 1.77526e-15 2.37488e-15 3.04035e-15 3.76116e-15 4.52596e-15 5.32267e-15 6.13875e-15 6.96131e-15 7.77738e-15 8.5741e-15 9.33889e-15 1.00597e-14 1.07252e-14 1.13248e-14 1.18491e-14 1.22899e-14 1.26401e-14 1.28943e-14 1.30484e-14 1.31001e-14 1.30484e-14 1.28943e-14 1.26401e-14 1.22899e-14 1.18491e-14 1.13248e-14 1.07252e-14 1.00597e-14 9.33889e-15 8.5741e-15 7.77738e-15 6.96131e-15 6.13875e-15 5.32267e-15 4.52596e-15 3.76116e-15 3.04035e-15 2.37488e-15 1.77526e-15 1.25094e-15 8.10194e-16 4.59966e-16 2.05781e-16 5.16489e-17 5.60365e-40 0 1.02483e-16 4.08317e-16 9.12678e-16 1.60761e-15 2.48216e-15 3.52253e-15 4.71231e-15 6.03275e-15 7.46301e-15 8.98054e-15 1.05614e-14 1.21807e-14 1.38128e-14 1.54321e-14 1.7013e-14 1.85305e-14 1.99608e-14 2.12812e-14 2.2471e-14 2.35113e-14 2.43859e-14 2.50808e-14 2.55852e-14 2.5891e-14 2.59935e-14 2.5891e-14 2.55852e-14 2.50808e-14 2.43859e-14 2.35113e-14 2.2471e-14 2.12812e-14 1.99608e-14 1.85305e-14 1.7013e-14 1.54321e-14 1.38128e-14 1.21807e-14 1.05614e-14 8.98054e-15 7.46301e-15 6.03275e-15 4.71231e-15 3.52253e-15 2.48216e-15 1.60761e-15 9.12678e-16 4.08317e-16 1.02483e-16 1.11189e-39 0 1.51701e-16 6.04413e-16 1.351e-15 2.37968e-15 3.67423e-15 5.21424e-15 6.97542e-15 8.93e-15 1.10472e-14 1.32935e-14 1.56336e-14 1.80305e-14 2.04465e-14 2.28435e-14 2.51835e-14 2.74299e-14 2.9547e-14 3.15016e-14 3.32628e-14 3.48028e-14 3.60974e-14 3.7126e-14 3.78726e-14 3.83253e-14 3.8477e-14 3.83253e-14 3.78726e-14 3.7126e-14 3.60974e-14 3.48028e-14 3.32628e-14 3.15016e-14 2.9547e-14 2.74299e-14 2.51835e-14 2.28435e-14 2.04465e-14 1.80305e-14 1.56336e-14 1.32935e-14 1.10472e-14 8.93e-15 6.97542e-15 5.21424e-15 3.67423e-15 2.37968e-15 1.351e-15 6.04413e-16 1.51701e-16 1.64589e-39 0 1.98527e-16 7.90978e-16 1.76801e-15 3.11421e-15 4.80836e-15 6.82372e-15 9.12853e-15 1.16864e-14 1.44571e-14 1.73968e-14 2.04592e-14 2.3596e-14 2.67577e-14 2.98946e-14 3.2957e-14 3.58967e-14 3.86673e-14 4.12252e-14 4.353e-14 4.55454e-14 4.72395e-14 4.85857e-14 4.95628e-14 5.01552e-14 5.03537e-14 5.01552e-14 4.95628e-14 4.85857e-14 4.72395e-14 4.55454e-14 4.353e-14 4.12252e-14 3.86673e-14 3.58967e-14 3.2957e-14 2.98946e-14 2.67577e-14 2.3596e-14 2.04592e-14 1.73968e-14 1.44571e-14 1.16864e-14 9.12853e-15 6.82372e-15 4.80836e-15 3.11421e-15 1.76801e-15 7.90978e-16 1.98527e-16 2.15392e-39 0 2.42222e-16 9.65068e-16 2.15714e-15 3.79963e-15 5.86665e-15 8.32559e-15 1.11377e-14 1.42586e-14 1.7639e-14 2.12257e-14 2.49622e-14 2.87894e-14 3.2647e-14 3.64742e-14 4.02106e-14 4.37973e-14 4.71778e-14 5.02987e-14 5.31108e-14 5.55697e-14 5.76367e-14 5.92792e-14 6.04713e-14 6.11941e-14 6.14364e-14 6.11941e-14 6.04713e-14 5.92792e-14 5.76367e-14 5.55697e-14 5.31108e-14 5.02987e-14 4.71778e-14 4.37973e-14 4.02106e-14 3.64742e-14 3.2647e-14 2.87894e-14 2.49622e-14 2.12257e-14 1.7639e-14 1.42586e-14 1.11377e-14 8.32559e-15 5.86665e-15 3.79963e-15 2.15714e-15 9.65068e-16 2.42222e-16 2.62799e-39 0 2.82097e-16 1.12394e-15 2.51225e-15 4.42513e-15 6.83242e-15 9.69616e-15 1.29712e-14 1.66058e-14 2.05428e-14 2.47199e-14 2.90715e-14 3.35287e-14 3.80214e-14 4.24786e-14 4.68301e-14 5.10073e-14 5.49443e-14 5.85789e-14 6.18539e-14 6.47177e-14 6.71249e-14 6.90378e-14 7.04261e-14 7.1268e-14 7.15501e-14 7.1268e-14 7.04261e-14 6.90378e-14 6.71249e-14 6.47177e-14 6.18539e-14 5.85789e-14 5.49443e-14 5.10073e-14 4.68301e-14 4.24786e-14 3.80214e-14 3.35287e-14 2.90715e-14 2.47199e-14 2.05428e-14 1.66058e-14 1.29712e-14 9.69616e-15 6.83242e-15 4.42513e-15 2.51225e-15 1.12394e-15 2.82097e-16 3.06061e-39 0 3.17523e-16 1.26508e-15 2.82774e-15 4.98085e-15 7.69045e-15 1.09138e-14 1.46001e-14 1.86912e-14 2.31226e-14 2.78243e-14 3.27223e-14 3.77393e-14 4.27961e-14 4.78131e-14 5.27111e-14 5.74129e-14 6.18442e-14 6.59353e-14 6.96216e-14 7.2845e-14 7.55546e-14 7.77077e-14 7.92703e-14 8.02179e-14 8.05354e-14 8.02179e-14 7.92703e-14 7.77077e-14 7.55546e-14 7.2845e-14 6.96216e-14 6.59353e-14 6.18442e-14 5.74129e-14 5.27111e-14 4.78131e-14 4.27961e-14 3.77393e-14 3.27223e-14 2.78243e-14 2.31226e-14 1.86912e-14 1.46001e-14 1.09138e-14 7.69045e-15 4.98085e-15 2.82774e-15 1.26508e-15 3.17523e-16 3.44497e-39 0 3.47941e-16 1.38628e-15 3.09864e-15 5.45801e-15 8.42719e-15 1.19593e-14 1.59988e-14 2.04818e-14 2.53377e-14 3.04899e-14 3.58571e-14 4.13547e-14 4.6896e-14 5.23936e-14 5.77608e-14 6.2913e-14 6.77689e-14 7.22519e-14 7.62913e-14 7.98235e-14 8.27926e-14 8.5152e-14 8.68644e-14 8.79027e-14 8.82507e-14 8.79027e-14 8.68644e-14 8.5152e-14 8.27926e-14 7.98235e-14 7.62913e-14 7.22519e-14 6.77689e-14 6.2913e-14 5.77608e-14 5.23936e-14 4.6896e-14 4.13547e-14 3.58571e-14 3.04899e-14 2.53377e-14 2.04818e-14 1.59988e-14 1.19593e-14 8.42719e-15 5.45801e-15 3.09864e-15 1.38628e-15 3.47941e-16 3.77499e-39 0 3.72873e-16 1.48561e-15 3.32066e-15 5.84909e-15 9.03103e-15 1.28163e-14 1.71452e-14 2.19494e-14 2.71532e-14 3.26746e-14 3.84264e-14 4.43179e-14 5.02562e-14 5.61478e-14 6.18996e-14 6.74209e-14 7.26247e-14 7.7429e-14 8.17579e-14 8.55431e-14 8.8725e-14 9.12535e-14 9.30885e-14 9.42013e-14 9.45741e-14 9.42013e-14 9.30885e-14 9.12535e-14 8.8725e-14 8.55431e-14 8.17579e-14 7.7429e-14 7.26247e-14 6.74209e-14 6.18996e-14 5.61478e-14 5.02562e-14 4.43179e-14 3.84264e-14 3.26746e-14 2.71532e-14 2.19494e-14 1.71452e-14 1.28163e-14 9.03103e-15 5.84909e-15 3.32066e-15 1.48561e-15 3.72873e-16 4.04548e-39 0 3.91923e-16 1.56151e-15 3.49032e-15 6.14794e-15 9.49244e-15 1.34711e-14 1.80211e-14 2.30708e-14 2.85405e-14 3.4344e-14 4.03896e-14 4.65822e-14 5.28239e-14 5.90165e-14 6.50621e-14 7.08656e-14 7.63353e-14 8.1385e-14 8.5935e-14 8.99137e-14 9.32582e-14 9.59158e-14 9.78446e-14 9.90142e-14 9.94061e-14 9.90142e-14 9.78446e-14 9.59158e-14 9.32582e-14 8.99137e-14 8.5935e-14 8.1385e-14 7.63353e-14 7.08656e-14 6.50621e-14 5.90165e-14 5.28239e-14 4.65822e-14 4.03896e-14 3.4344e-14 2.85405e-14 2.30708e-14 1.80211e-14 1.34711e-14 9.49244e-15 6.14794e-15 3.49032e-15 1.56151e-15 3.91923e-16 4.25218e-39 0 4.04793e-16 1.61279e-15 3.60494e-15 6.34982e-15 9.80415e-15 1.39135e-14 1.86129e-14 2.38284e-14 2.94777e-14 3.54718e-14 4.17159e-14 4.81118e-14 5.45586e-14 6.09545e-14 6.71987e-14 7.31927e-14 7.8842e-14 8.40575e-14 8.8757e-14 9.28663e-14 9.63206e-14 9.90655e-14 1.01058e-13 1.02266e-13 1.0267e-13 1.02266e-13 1.01058e-13 9.90655e-14 9.63206e-14 9.28663e-14 8.8757e-14 8.40575e-14 7.8842e-14 7.31927e-14 6.71987e-14 6.09545e-14 5.45586e-14 4.81118e-14 4.17159e-14 3.54718e-14 2.94777e-14 2.38284e-14 1.86129e-14 1.39135e-14 9.80415e-15 6.34982e-15 3.60494e-15 1.61279e-15 4.04793e-16 4.39181e-39 0 4.1128e-16 1.63863e-15 3.6627e-15 6.45157e-15 9.96125e-15 1.41364e-14 1.89112e-14 2.42102e-14 2.99501e-14 3.60401e-14 4.23844e-14 4.88828e-14 5.54328e-14 6.19312e-14 6.82754e-14 7.43655e-14 8.01053e-14 8.54044e-14 9.01791e-14 9.43543e-14 9.7864e-14 1.00653e-13 1.02677e-13 1.03904e-13 1.04316e-13 1.03904e-13 1.02677e-13 1.00653e-13 9.7864e-14 9.43543e-14 9.01791e-14 8.54044e-14 8.01053e-14 7.43655e-14 6.82754e-14 6.19312e-14 5.54328e-14 4.88828e-14 4.23844e-14 3.60401e-14 2.99501e-14 2.42102e-14 1.89112e-14 1.41364e-14 9.96125e-15 6.45157e-15 3.6627e-15 1.63863e-15 4.1128e-16 4.46218e-39 0 4.1128e-16 1.63863e-15 3.6627e-15 6.45157e-15 9.96125e-15 1.41364e-14 1.89112e-14 2.42102e-14 2.99501e-14 3.60401e-14 4.23844e-14 4.88828e-14 5.54328e-14 6.19312e-14 6.82754e-14 7.43655e-14 8.01053e-14 8.54044e-14 9.01791e-14 9.43543e-14 9.7864e-14 1.00653e-13 1.02677e-13 1.03904e-13 1.04316e-13 1.03904e-13 1.02677e-13 1.00653e-13 9.7864e-14 9.43543e-14 9.01791e-14 8.54044e-14 8.01053e-14 7.43655e-14 6.82754e-14 6.19312e-14 5.54328e-14 4.88828e-14 4.23844e-14 3.60401e-14 2.99501e-14 2.42102e-14 1.89112e-14 1.41364e-14 9.96125e-15 6.45157e-15 3.6627e-15 1.63863e-15 4.1128e-16 4.46218e-39 0 4.04793e-16 1.61279e-15 3.60494e-15 6.34982e-15 9.80415e-15 1.39135e-14 1.86129e-14 2.38284e-14 2.94777e-14 3.54718e-14 4.17159e-14 4.81118e-14 5.45586e-14 6.09545e-14 6.71987e-14 7.31927e-14 7.8842e-14 8.40575e-14 8.8757e-14 9.28663e-14 9.63206e-14 9.90655e-14 1.01058e-13 1.02266e-13 1.0267e-13 1.02266e-13 1.01058e-13 9.90655e-14 9.63206e-14 9.28663e-14 8.8757e-14 8.40575e-14 7.8842e-14 7.31927e-14 6.71987e-14 6.09545e-14 5.45586e-14 4.81118e-14 4.17159e-14 3.54718e-14 2.94777e-14 2.38284e-14 1.86129e-14 1.39135e-14 9.80415e-15 6.34982e-15 3.60494e-15 1.61279e-15 4.04793e-16 4.39181e-39 0 3.91923e-16 1.56151e-15 3.49032e-15 6.14794e-15 9.49244e-15 1.34711e-14 1.80211e-14 2.30708e-14 2.85405e-14 3.4344e-14 4.03896e-14 4.65822e-14 5.28239e-14 5.90165e-14 6.50621e-14 7.08656e-14 7.63353e-14 8.1385e-14 8.5935e-14 8.99137e-14 9.32582e-14 9.59158e-14 9.78446e-14 9.90142e-14 9.94061e-14 9.90142e-14 9.78446e-14 9.59158e-14 9.32582e-14 8.99137e-14 8.5935e-14 8.1385e-14 7.63353e-14 7.08656e-14 6.50621e-14 5.90165e-14 5.28239e-14 4.65822e-14 4.03896e-14 3.4344e-14 2.85405e-14 2.30708e-14 1.80211e-14 1.34711e-14 9.49244e-15 6.14794e-15 3.49032e-15 1.56151e-15 3.91923e-16 4.25218e-39 0 3.72873e-16 1.48561e-15 3.32066e-15 5.84909e-15 9.03103e-15 1.28163e-14 1.71452e-14 2.19494e-14 2.71532e-14 3.26746e-14 3.84264e-14 4.43179e-14 5.02562e-14 5.61478e-14 6.18996e-14 6.74209e-14 7.26247e-14 7.7429e-14 8.17579e-14 8.55431e-14 8.8725e-14 9.12535e-14 9.30885e-14 9.42013e-14 9.45741e-14 9.42013e-14 9.30885e-14 9.12535e-14 8.8725e-14 8.55431e-14 8.17579e-14 7.7429e-14 7.26247e-14 6.74209e-14 6.18996e-14 5.61478e-14 5.02562e-14 4.43179e-14 3.84264e-14 3.26746e-14 2.71532e-14 2.19494e-14 1.71452e-14 1.28163e-14 9.03103e-15 5.84909e-15 3.32066e-15 1.48561e-15 3.72873e-16 4.04548e-39 0 3.47941e-16 1.38628e-15 3.09864e-15 5.45801e-15 8.42719e-15 1.19593e-14 1.59988e-14 2.04818e-14 2.53377e-14 3.04899e-14 3.58571e-14 4.13547e-14 4.6896e-14 5.23936e-14 5.77608e-14 6.2913e-14 6.77689e-14 7.22519e-14 7.62913e-14 7.98235e-14 8.27926e-14 8.5152e-14 8.68644e-14 8.79027e-14 8.82507e-14 8.79027e-14 8.68644e-14 8.5152e-14 8.27926e-14 7.98235e-14 7.62913e-14 7.22519e-14 6.77689e-14 6.2913e-14 5.77608e-14 5.23936e-14 4.6896e-14 4.13547e-14 3.58571e-14 3.04899e-14 2.53377e-14 2.04818e-14 1.59988e-14 1.19593e-14 8.42719e-15 5.45801e-15 3.09864e-15 1.38628e-15 3.47941e-16 3.77499e-39 0 3.17523e-16 1.26508e-15 2.82774e-15 4.98085e-15 7.69045e-15 1.09138e-14 1.46001e-14 1.86912e-14 2.31226e-14 2.78243e-14 3.27223e-14 3.77393e-14 4.27961e-14 4.78131e-14 5.27111e-14 5.74129e-14 6.18442e-14 6.59353e-14 6.96216e-14 7.2845e-14 7.55546e-14 7.77077e-14 7.92703e-14 8.02179e-14 8.05354e-14 8.02179e-14 7.92703e-14 7.77077e-14 7.55546e-14 7.2845e-14 6.96216e-14 6.59353e-14 6.18442e-14 5.74129e-14 5.27111e-14 4.78131e-14 4.27961e-14 3.77393e-14 3.27223e-14 2.78243e-14 2.31226e-14 1.86912e-14 1.46001e-14 1.09138e-14 7.69045e-15 4.98085e-15 2.82774e-15 1.26508e-15 3.17523e-16 3.44497e-39 0 2.82097e-16 1.12394e-15 2.51225e-15 4.42513e-15 6.83242e-15 9.69616e-15 1.29712e-14 1.66058e-14 2.05428e-14 2.47199e-14 2.90715e-14 3.35287e-14 3.80214e-14 4.24786e-14 4.68301e-14 5.10073e-14 5.49443e-14 5.85789e-14 6.18539e-14 6.47177e-14 6.71249e-14 6.90378e-14 7.04261e-14 7.1268e-14 7.15501e-14 7.1268e-14 7.04261e-14 6.90378e-14 6.71249e-14 6.47177e-14 6.18539e-14 5.85789e-14 5.49443e-14 5.10073e-14 4.68301e-14 4.24786e-14 3.80214e-14 3.35287e-14 2.90715e-14 2.47199e-14 2.05428e-14 1.66058e-14 1.29712e-14 9.69616e-15 6.83242e-15 4.42513e-15 2.51225e-15 1.12394e-15 2.82097e-16 3.06061e-39 0 2.42222e-16 9.65068e-16 2.15714e-15 3.79963e-15 5.86665e-15 8.32559e-15 1.11377e-14 1.42586e-14 1.7639e-14 2.12257e-14 2.49622e-14 2.87894e-14 3.2647e-14 3.64742e-14 4.02106e-14 4.37973e-14 4.71778e-14 5.02987e-14 5.31108e-14 5.55697e-14 5.76367e-14 5.92792e-14 6.04713e-14 6.11941e-14 6.14364e-14 6.11941e-14 6.04713e-14 5.92792e-14 5.76367e-14 5.55697e-14 5.31108e-14 5.02987e-14 4.71778e-14 4.37973e-14 4.02106e-14 3.64742e-14 3.2647e-14 2.87894e-14 2.49622e-14 2.12257e-14 1.7639e-14 1.42586e-14 1.11377e-14 8.32559e-15 5.86665e-15 3.79963e-15 2.15714e-15 9.65068e-16 2.42222e-16 2.62799e-39 0 1.98527e-16 7.90978e-16 1.76801e-15 3.11421e-15 4.80836e-15 6.82372e-15 9.12853e-15 1.16864e-14 1.44571e-14 1.73968e-14 2.04592e-14 2.3596e-14 2.67577e-14 2.98946e-14 3.2957e-14 3.58967e-14 3.86673e-14 4.12252e-14 4.353e-14 4.55454e-14 4.72395e-14 4.85857e-14 4.95628e-14 5.01552e-14 5.03537e-14 5.01552e-14 4.95628e-14 4.85857e-14 4.72395e-14 4.55454e-14 4.353e-14 4.12252e-14 3.86673e-14 3.58967e-14 3.2957e-14 2.98946e-14 2.67577e-14 2.3596e-14 2.04592e-14 1.73968e-14 1.44571e-14 1.16864e-14 9.12853e-15 6.82372e-15 4.80836e-15 3.11421e-15 1.76801e-15 7.90978e-16 1.98527e-16 2.15392e-39 0 1.51701e-16 6.04413e-16 1.351e-15 2.37968e-15 3.67423e-15 5.21424e-15 6.97542e-15 8.93e-15 1.10472e-14 1.32935e-14 1.56336e-14 1.80305e-14 2.04465e-14 2.28435e-14 2.51835e-14 2.74299e-14 2.9547e-14 3.15016e-14 3.32628e-14 3.48028e-14 3.60974e-14 3.7126e-14 3.78726e-14 3.83253e-14 3.8477e-14 3.83253e-14 3.78726e-14 3.7126e-14 3.60974e-14 3.48028e-14 3.32628e-14 3.15016e-14 2.9547e-14 2.74299e-14 2.51835e-14 2.28435e-14 2.04465e-14 1.80305e-14 1.56336e-14 1.32935e-14 1.10472e-14 8.93e-15 6.97542e-15 5.21424e-15 3.67423e-15 2.37968e-15 1.351e-15 6.04413e-16 1.51701e-16 1.64589e-39 0 1.02483e-16 4.08317e-16 9.12678e-16 1.60761e-15 2.48216e-15 3.52253e-15 4.71231e-15 6.03275e-15 7.46301e-15 8.98054e-15 1.05614e-14 1.21807e-14 1.38128e-14 1.54321e-14 1.7013e-14 1.85305e-14 1.99608e-14 2.12812e-14 2.2471e-14 2.35113e-14 2.43859e-14 2.50808e-14 2.55852e-14 2.5891e-14 2.59935e-14 2.5891e-14 2.55852e-14 2.50808e-14 2.43859e-14 2.35113e-14 2.2471e-14 2.12812e-14 1.99608e-14 1.85305e-14 1.7013e-14 1.54321e-14 1.38128e-14 1.21807e-14 1.05614e-14 8.98054e-15 7.46301e-15 6.03275e-15 4.71231e-15 3.52253e-15 2.48216e-15 1.60761e-15 9.12678e-16 4.08317e-16 1.02483e-16 1.11189e-39 0 5.16489e-17 2.05781e-16 4.59966e-16 8.10194e-16 1.25094e-15 1.77526e-15 2.37488e-15 3.04035e-15 3.76116e-15 4.52596e-15 5.32267e-15 6.13875e-15 6.96131e-15 7.77738e-15 8.5741e-15 9.33889e-15 1.00597e-14 1.07252e-14 1.13248e-14 1.18491e-14 1.22899e-14 1.26401e-14 1.28943e-14 1.30484e-14 1.31001e-14 1.30484e-14 1.28943e-14 1.26401e-14 1.22899e-14 1.18491e-14 1.13248e-14 1.07252e-14 1.00597e-14 9.33889e-15 8.5741e-15 7.77738e-15 6.96131e-15 6.13875e-15 5.32267e-15 4.52596e-15 3.76116e-15 3.04035e-15 2.37488e-15 1.77526e-15 1.25094e-15 8.10194e-16 4.59966e-16 2.05781e-16 5.16489e-17 5.60365e-40 0 -8.53673e-29 -3.41035e-28 -7.64933e-28 -1.35244e-27 -2.09597e-27 -2.98496e-27 -4.00532e-27 -5.14063e-27 -6.37185e-27 -7.68019e-27 -9.04639e-27 -1.04462e-26 -1.18536e-26 -1.32485e-26 -1.46117e-26 -1.59161e-26 -1.71349e-26 -1.82566e-26 -1.92647e-26 -2.01427e-26 -2.08613e-26 -2.1363e-26 -2.16262e-26 -2.16855e-26 -2.15888e-26 -2.14271e-26 -2.11071e-26 -2.06319e-26 -2.00118e-26 -1.92472e-26 -1.83539e-26 -1.7354e-26 -1.6254e-26 -1.50654e-26 -1.38165e-26 -1.25251e-26 -1.12101e-26 -9.89201e-27 -8.54232e-27 -7.18134e-27 -5.98711e-27 -4.85949e-27 -3.81203e-27 -2.86129e-27 -2.02366e-27 -1.31503e-27 -7.49756e-28 -3.36868e-28 -8.4947e-29 -9.24333e-52 0 -5.16489e-17 -2.05781e-16 -4.59966e-16 -8.10194e-16 -1.25094e-15 -1.77526e-15 -2.37488e-15 -3.04035e-15 -3.76116e-15 -4.52596e-15 -5.32267e-15 -6.13875e-15 -6.96131e-15 -7.77738e-15 -8.5741e-15 -9.33889e-15 -1.00597e-14 -1.07252e-14 -1.13248e-14 -1.18491e-14 -1.22899e-14 -1.26401e-14 -1.28943e-14 -1.30484e-14 -1.31001e-14 -1.30484e-14 -1.28943e-14 -1.26401e-14 -1.22899e-14 -1.18491e-14 -1.13248e-14 -1.07252e-14 -1.00597e-14 -9.33889e-15 -8.5741e-15 -7.77738e-15 -6.96131e-15 -6.13875e-15 -5.32267e-15 -4.52596e-15 -3.76116e-15 -3.04035e-15 -2.37488e-15 -1.77526e-15 -1.25094e-15 -8.10194e-16 -4.59966e-16 -2.05781e-16 -5.16489e-17 -5.60365e-40 0 -1.02483e-16 -4.08317e-16 -9.12678e-16 -1.60761e-15 -2.48216e-15 -3.52253e-15 -4.71231e-15 -6.03275e-15 -7.46301e-15 -8.98054e-15 -1.05614e-14 -1.21807e-14 -1.38128e-14 -1.54321e-14 -1.7013e-14 -1.85305e-14 -1.99608e-14 -2.12812e-14 -2.2471e-14 -2.35113e-14 -2.43859e-14 -2.50808e-14 -2.55852e-14 -2.5891e-14 -2.59935e-14 -2.5891e-14 -2.55852e-14 -2.50808e-14 -2.43859e-14 -2.35113e-14 -2.2471e-14 -2.12812e-14 -1.99608e-14 -1.85305e-14 -1.7013e-14 -1.54321e-14 -1.38128e-14 -1.21807e-14 -1.05614e-14 -8.98054e-15 -7.46301e-15 -6.03275e-15 -4.71231e-15 -3.52253e-15 -2.48216e-15 -1.60761e-15 -9.12678e-16 -4.08317e-16 -1.02483e-16 -1.11189e-39 0 -1.51701e-16 -6.04413e-16 -1.351e-15 -2.37968e-15 -3.67423e-15 -5.21424e-15 -6.97542e-15 -8.93e-15 -1.10472e-14 -1.32935e-14 -1.56336e-14 -1.80305e-14 -2.04465e-14 -2.28435e-14 -2.51835e-14 -2.74299e-14 -2.9547e-14 -3.15016e-14 -3.32628e-14 -3.48028e-14 -3.60974e-14 -3.7126e-14 -3.78726e-14 -3.83253e-14 -3.8477e-14 -3.83253e-14 -3.78726e-14 -3.7126e-14 -3.60974e-14 -3.48028e-14 -3.32628e-14 -3.15016e-14 -2.9547e-14 -2.74299e-14 -2.51835e-14 -2.28435e-14 -2.04465e-14 -1.80305e-14 -1.56336e-14 -1.32935e-14 -1.10472e-14 -8.93e-15 -6.97542e-15 -5.21424e-15 -3.67423e-15 -2.37968e-15 -1.351e-15 -6.04413e-16 -1.51701e-16 -1.64589e-39 0 -1.98527e-16 -7.90978e-16 -1.76801e-15 -3.11421e-15 -4.80836e-15 -6.82372e-15 -9.12853e-15 -1.16864e-14 -1.44571e-14 -1.73968e-14 -2.04592e-14 -2.3596e-14 -2.67577e-14 -2.98946e-14 -3.2957e-14 -3.58967e-14 -3.86673e-14 -4.12252e-14 -4.353e-14 -4.55454e-14 -4.72395e-14 -4.85857e-14 -4.95628e-14 -5.01552e-14 -5.03537e-14 -5.01552e-14 -4.95628e-14 -4.85857e-14 -4.72395e-14 -4.55454e-14 -4.353e-14 -4.12252e-14 -3.86673e-14 -3.58967e-14 -3.2957e-14 -2.98946e-14 -2.67577e-14 -2.3596e-14 -2.04592e-14 -1.73968e-14 -1.44571e-14 -1.16864e-14 -9.12853e-15 -6.82372e-15 -4.80836e-15 -3.11421e-15 -1.76801e-15 -7.90978e-16 -1.98527e-16 -2.15392e-39 0 -2.42222e-16 -9.65068e-16 -2.15714e-15 -3.79963e-15 -5.86665e-15 -8.32559e-15 -1.11377e-14 -1.42586e-14 -1.7639e-14 -2.12257e-14 -2.49622e-14 -2.87894e-14 -3.2647e-14 -3.64742e-14 -4.02106e-14 -4.37973e-14 -4.71778e-14 -5.02987e-14 -5.31108e-14 -5.55697e-14 -5.76367e-14 -5.92792e-14 -6.04713e-14 -6.11941e-14 -6.14364e-14 -6.11941e-14 -6.04713e-14 -5.92792e-14 -5.76367e-14 -5.55697e-14 -5.31108e-14 -5.02987e-14 -4.71778e-14 -4.37973e-14 -4.02106e-14 -3.64742e-14 -3.2647e-14 -2.87894e-14 -2.49622e-14 -2.12257e-14 -1.7639e-14 -1.42586e-14 -1.11377e-14 -8.32559e-15 -5.86665e-15 -3.79963e-15 -2.15714e-15 -9.65068e-16 -2.42222e-16 -2.62799e-39 0 -2.82097e-16 -1.12394e-15 -2.51225e-15 -4.42513e-15 -6.83242e-15 -9.69616e-15 -1.29712e-14 -1.66058e-14 -2.05428e-14 -2.47199e-14 -2.90715e-14 -3.35287e-14 -3.80214e-14 -4.24786e-14 -4.68301e-14 -5.10073e-14 -5.49443e-14 -5.85789e-14 -6.18539e-14 -6.47177e-14 -6.71249e-14 -6.90378e-14 -7.04261e-14 -7.1268e-14 -7.15501e-14 -7.1268e-14 -7.04261e-14 -6.90378e-14 -6.71249e-14 -6.47177e-14 -6.18539e-14 -5.85789e-14 -5.49443e-14 -5.10073e-14 -4.68301e-14 -4.24786e-14 -3.80214e-14 -3.35287e-14 -2.90715e-14 -2.47199e-14 -2.05428e-14 -1.66058e-14 -1.29712e-14 -9.69616e-15 -6.83242e-15 -4.42513e-15 -2.51225e-15 -1.12394e-15 -2.82097e-16 -3.06061e-39 0 -3.17523e-16 -1.26508e-15 -2.82774e-15 -4.98085e-15 -7.69045e-15 -1.09138e-14 -1.46001e-14 -1.86912e-14 -2.31226e-14 -2.78243e-14 -3.27223e-14 -3.77393e-14 -4.27961e-14 -4.78131e-14 -5.27111e-14 -5.74129e-14 -6.18442e-14 -6.59353e-14 -6.96216e-14 -7.2845e-14 -7.55546e-14 -7.77077e-14 -7.92703e-14 -8.02179e-14 -8.05354e-14 -8.02179e-14 -7.92703e-14 -7.77077e-14 -7.55546e-14 -7.2845e-14 -6.96216e-14 -6.59353e-14 -6.18442e-14 -5.74129e-14 -5.27111e-14 -4.78131e-14 -4.27961e-14 -3.77393e-14 -3.27223e-14 -2.78243e-14 -2.31226e-14 -1.86912e-14 -1.46001e-14 -1.09138e-14 -7.69045e-15 -4.98085e-15 -2.82774e-15 -1.26508e-15 -3.17523e-16 -3.44497e-39 0 -3.47941e-16 -1.38628e-15 -3.09864e-15 -5.45801e-15 -8.42719e-15 -1.19593e-14 -1.59988e-14 -2.04818e-14 -2.53377e-14 -3.04899e-14 -3.58571e-14 -4.13547e-14 -4.6896e-14 -5.23936e-14 -5.77608e-14 -6.2913e-14 -6.77689e-14 -7.22519e-14 -7.62913e-14 -7.98235e-14 -8.27926e-14 -8.5152e-14 -8.68644e-14 -8.79027e-14 -