<?xml version="1.0"?>
<VTKFile type="PolyData">
	<PolyData>
		<Piece NumberOfPoints="2601" NumberOfPolys="2500">
			<Points>
				<DataArray type="Float32" NumberOfComponents="3" format="ascii">
 0 0 0 0.02 0 0 0.04 0 0 0.06 0 0 0.08 0 0 0.1 0 0 0.12 0 0 0.14 0 0 0.16 0 0 0.18 0 0 0.2 0 0 0.22 0 0 0.24 0 0 0.26 0 0 0.28 0 0 0.3 0 0 0.32 0 0 0.34 0 0 0.36 0 0 0.38 0 0 0.4 0 0 0.42 0 0 0.44 0 0 0.46 0 0 0.48 0 0 0.5 0 0 0.52 0 0 0.54 0 0 0.56 0 0 0.58 0 0 0.6 0 0 0.62 0 0 0.64 0 0 0.66 0 0 0.68 0 0 0.7 0 0 0.72 0 0 0.74 0 0 0.76 0 0 0.78 0 0 0.8 0 0 0.82 0 0 0.84 0 0 0.86 0 0 0.88 0 0 0.9 0 0 0.92 0 0 0.94 0 0 0.96 0 0 0.98 0 0 1 0 0 0 0.02 0 0.02 0.02 0 0.04 0.02 0 0.06 0.02 0 0.08 0.02 0 0.1 0.02 0 0.12 0.02 0 0.14 0.02 0 0.16 0.02 0 0.18 0.02 0 0.2 0.02 0 0.22 0.02 0 0.24 0.02 0 0.26 0.02 0 0.28 0.02 0 0.3 0.02 0 0.32 0.02 0 0.34 0.02 0 0.36 0.02 0 0.38 0.02 0 0.4 0.02 0 0.42 0.02 0 0.44 0.02 0 0.46 0.02 0 0.48 0.02 0 0.5 0.02 0 0.52 0.02 0 0.54 0.02 0 0.56 0.02 0 0.58 0.02 0 0.6 0.02 0 0.62 0.02 0 0.64 0.02 0 0.66 0.02 0 0.68 0.02 0 0.7 0.02 0 0.72 0.02 0 0.74 0.02 0 0.76 0.02 0 0.78 0.02 0 0.8 0.02 0 0.82 0.02 0 0.84 0.02 0 0.86 0.02 0 0.88 0.02 0 0.9 0.02 0 0.92 0.02 0 0.94 0.02 0 0.96 0.02 0 0.98 0.02 0 1 0.02 0 0 0.04 0 0.02 0.04 0 0.04 0.04 0 0.06 0.04 0 0.08 0.04 0 0.1 0.04 0 0.12 0.04 0 0.14 0.04 0 0.16 0.04 0 0.18 0.04 0 0.2 0.04 0 0.22 0.04 0 0.24 0.04 0 0.26 0.04 0 0.28 0.04 0 0.3 0.04 0 0.32 0.04 0 0.34 0.04 0 0.36 0.04 0 0.38 0.04 0 0.4 0.04 0 0.42 0.04 0 0.44 0.04 0 0.46 0.04 0 0.48 0.04 0 0.5 0.04 0 0.52 0.04 0 0.54 0.04 0 0.56 0.04 0 0.58 0.04 0 0.6 0.04 0 0.62 0.04 0 0.64 0.04 0 0.66 0.04 0 0.68 0.04 0 0.7 0.04 0 0.72 0.04 0 0.74 0.04 0 0.76 0.04 0 0.78 0.04 0 0.8 0.04 0 0.82 0.04 0 0.84 0.04 0 0.86 0.04 0 0.88 0.04 0 0.9 0.04 0 0.92 0.04 0 0.94 0.04 0 0.96 0.04 0 0.98 0.04 0 1 0.04 0 0 0.06 0 0.02 0.06 0 0.04 0.06 0 0.06 0.06 0 0.08 0.06 0 0.1 0.06 0 0.12 0.06 0 0.14 0.06 0 0.16 0.06 0 0.18 0.06 0 0.2 0.06 0 0.22 0.06 0 0.24 0.06 0 0.26 0.06 0 0.28 0.06 0 0.3 0.06 0 0.32 0.06 0 0.34 0.06 0 0.36 0.06 0 0.38 0.06 0 0.4 0.06 0 0.42 0.06 0 0.44 0.06 0 0.46 0.06 0 0.48 0.06 0 0.5 0.06 0 0.52 0.06 0 0.54 0.06 0 0.56 0.06 0 0.58 0.06 0 0.6 0.06 0 0.62 0.06 0 0.64 0.06 0 0.66 0.06 0 0.68 0.06 0 0.7 0.06 0 0.72 0.06 0 0.74 0.06 0 0.76 0.06 0 0.78 0.06 0 0.8 0.06 0 0.82 0.06 0 0.84 0.06 0 0.86 0.06 0 0.88 0.06 0 0.9 0.06 0 0.92 0.06 0 0.94 0.06 0 0.96 0.06 0 0.98 0.06 0 1 0.06 0 0 0.08 0 0.02 0.08 0 0.04 0.08 0 0.06 0.08 0 0.08 0.08 0 0.1 0.08 0 0.12 0.08 0 0.14 0.08 0 0.16 0.08 0 0.18 0.08 0 0.2 0.08 0 0.22 0.08 0 0.24 0.08 0 0.26 0.08 0 0.28 0.08 0 0.3 0.08 0 0.32 0.08 0 0.34 0.08 0 0.36 0.08 0 0.38 0.08 0 0.4 0.08 0 0.42 0.08 0 0.44 0.08 0 0.46 0.08 0 0.48 0.08 0 0.5 0.08 0 0.52 0.08 0 0.54 0.08 0 0.56 0.08 0 0.58 0.08 0 0.6 0.08 0 0.62 0.08 0 0.64 0.08 0 0.66 0.08 0 0.68 0.08 0 0.7 0.08 0 0.72 0.08 0 0.74 0.08 0 0.76 0.08 0 0.78 0.08 0 0.8 0.08 0 0.82 0.08 0 0.84 0.08 0 0.86 0.08 0 0.88 0.08 0 0.9 0.08 0 0.92 0.08 0 0.94 0.08 0 0.96 0.08 0 0.98 0.08 0 1 0.08 0 0 0.1 0 0.02 0.1 0 0.04 0.1 0 0.06 0.1 0 0.08 0.1 0 0.1 0.1 0 0.12 0.1 0 0.14 0.1 0 0.16 0.1 0 0.18 0.1 0 0.2 0.1 0 0.22 0.1 0 0.24 0.1 0 0.26 0.1 0 0.28 0.1 0 0.3 0.1 0 0.32 0.1 0 0.34 0.1 0 0.36 0.1 0 0.38 0.1 0 0.4 0.1 0 0.42 0.1 0 0.44 0.1 0 0.46 0.1 0 0.48 0.1 0 0.5 0.1 0 0.52 0.1 0 0.54 0.1 0 0.56 0.1 0 0.58 0.1 0 0.6 0.1 0 0.62 0.1 0 0.64 0.1 0 0.66 0.1 0 0.68 0.1 0 0.7 0.1 0 0.72 0.1 0 0.74 0.1 0 0.76 0.1 0 0.78 0.1 0 0.8 0.1 0 0.82 0.1 0 0.84 0.1 0 0.86 0.1 0 0.88 0.1 0 0.9 0.1 0 0.92 0.1 0 0.94 0.1 0 0.96 0.1 0 0.98 0.1 0 1 0.1 0 0 0.12 0 0.02 0.12 0 0.04 0.12 0 0.06 0.12 0 0.08 0.12 0 0.1 0.12 0 0.12 0.12 0 0.14 0.12 0 0.16 0.12 0 0.18 0.12 0 0.2 0.12 0 0.22 0.12 0 0.24 0.12 0 0.26 0.12 0 0.28 0.12 0 0.3 0.12 0 0.32 0.12 0 0.34 0.12 0 0.36 0.12 0 0.38 0.12 0 0.4 0.12 0 0.42 0.12 0 0.44 0.12 0 0.46 0.12 0 0.48 0.12 0 0.5 0.12 0 0.52 0.12 0 0.54 0.12 0 0.56 0.12 0 0.58 0.12 0 0.6 0.12 0 0.62 0.12 0 0.64 0.12 0 0.66 0.12 0 0.68 0.12 0 0.7 0.12 0 0.72 0.12 0 0.74 0.12 0 0.76 0.12 0 0.78 0.12 0 0.8 0.12 0 0.82 0.12 0 0.84 0.12 0 0.86 0.12 0 0.88 0.12 0 0.9 0.12 0 0.92 0.12 0 0.94 0.12 0 0.96 0.12 0 0.98 0.12 0 1 0.12 0 0 0.14 0 0.02 0.14 0 0.04 0.14 0 0.06 0.14 0 0.08 0.14 0 0.1 0.14 0 0.12 0.14 0 0.14 0.14 0 0.16 0.14 0 0.18 0.14 0 0.2 0.14 0 0.22 0.14 0 0.24 0.14 0 0.26 0.14 0 0.28 0.14 0 0.3 0.14 0 0.32 0.14 0 0.34 0.14 0 0.36 0.14 0 0.38 0.14 0 0.4 0.14 0 0.42 0.14 0 0.44 0.14 0 0.46 0.14 0 0.48 0.14 0 0.5 0.14 0 0.52 0.14 0 0.54 0.14 0 0.56 0.14 0 0.58 0.14 0 0.6 0.14 0 0.62 0.14 0 0.64 0.14 0 0.66 0.14 0 0.68 0.14 0 0.7 0.14 0 0.72 0.14 0 0.74 0.14 0 0.76 0.14 0 0.78 0.14 0 0.8 0.14 0 0.82 0.14 0 0.84 0.14 0 0.86 0.14 0 0.88 0.14 0 0.9 0.14 0 0.92 0.14 0 0.94 0.14 0 0.96 0.14 0 0.98 0.14 0 1 0.14 0 0 0.16 0 0.02 0.16 0 0.04 0.16 0 0.06 0.16 0 0.08 0.16 0 0.1 0.16 0 0.12 0.16 0 0.14 0.16 0 0.16 0.16 0 0.18 0.16 0 0.2 0.16 0 0.22 0.16 0 0.24 0.16 0 0.26 0.16 0 0.28 0.16 0 0.3 0.16 0 0.32 0.16 0 0.34 0.16 0 0.36 0.16 0 0.38 0.16 0 0.4 0.16 0 0.42 0.16 0 0.44 0.16 0 0.46 0.16 0 0.48 0.16 0 0.5 0.16 0 0.52 0.16 0 0.54 0.16 0 0.56 0.16 0 0.58 0.16 0 0.6 0.16 0 0.62 0.16 0 0.64 0.16 0 0.66 0.16 0 0.68 0.16 0 0.7 0.16 0 0.72 0.16 0 0.74 0.16 0 0.76 0.16 0 0.78 0.16 0 0.8 0.16 0 0.82 0.16 0 0.84 0.16 0 0.86 0.16 0 0.88 0.16 0 0.9 0.16 0 0.92 0.16 0 0.94 0.16 0 0.96 0.16 0 0.98 0.16 0 1 0.16 0 0 0.18 0 0.02 0.18 0 0.04 0.18 0 0.06 0.18 0 0.08 0.18 0 0.1 0.18 0 0.12 0.18 0 0.14 0.18 0 0.16 0.18 0 0.18 0.18 0 0.2 0.18 0 0.22 0.18 0 0.24 0.18 0 0.26 0.18 0 0.28 0.18 0 0.3 0.18 0 0.32 0.18 0 0.34 0.18 0 0.36 0.18 0 0.38 0.18 0 0.4 0.18 0 0.42 0.18 0 0.44 0.18 0 0.46 0.18 0 0.48 0.18 0 0.5 0.18 0 0.52 0.18 0 0.54 0.18 0 0.56 0.18 0 0.58 0.18 0 0.6 0.18 0 0.62 0.18 0 0.64 0.18 0 0.66 0.18 0 0.68 0.18 0 0.7 0.18 0 0.72 0.18 0 0.74 0.18 0 0.76 0.18 0 0.78 0.18 0 0.8 0.18 0 0.82 0.18 0 0.84 0.18 0 0.86 0.18 0 0.88 0.18 0 0.9 0.18 0 0.92 0.18 0 0.94 0.18 0 0.96 0.18 0 0.98 0.18 0 1 0.18 0 0 0.2 0 0.02 0.2 0 0.04 0.2 0 0.06 0.2 0 0.08 0.2 0 0.1 0.2 0 0.12 0.2 0 0.14 0.2 0 0.16 0.2 0 0.18 0.2 0 0.2 0.2 0 0.22 0.2 0 0.24 0.2 0 0.26 0.2 0 0.28 0.2 0 0.3 0.2 0 0.32 0.2 0 0.34 0.2 0 0.36 0.2 0 0.38 0.2 0 0.4 0.2 0 0.42 0.2 0 0.44 0.2 0 0.46 0.2 0 0.48 0.2 0 0.5 0.2 0 0.52 0.2 0 0.54 0.2 0 0.56 0.2 0 0.58 0.2 0 0.6 0.2 0 0.62 0.2 0 0.64 0.2 0 0.66 0.2 0 0.68 0.2 0 0.7 0.2 0 0.72 0.2 0 0.74 0.2 0 0.76 0.2 0 0.78 0.2 0 0.8 0.2 0 0.82 0.2 0 0.84 0.2 0 0.86 0.2 0 0.88 0.2 0 0.9 0.2 0 0.92 0.2 0 0.94 0.2 0 0.96 0.2 0 0.98 0.2 0 1 0.2 0 0 0.22 0 0.02 0.22 0 0.04 0.22 0 0.06 0.22 0 0.08 0.22 0 0.1 0.22 0 0.12 0.22 0 0.14 0.22 0 0.16 0.22 0 0.18 0.22 0 0.2 0.22 0 0.22 0.22 0 0.24 0.22 0 0.26 0.22 0 0.28 0.22 0 0.3 0.22 0 0.32 0.22 0 0.34 0.22 0 0.36 0.22 0 0.38 0.22 0 0.4 0.22 0 0.42 0.22 0 0.44 0.22 0 0.46 0.22 0 0.48 0.22 0 0.5 0.22 0 0.52 0.22 0 0.54 0.22 0 0.56 0.22 0 0.58 0.22 0 0.6 0.22 0 0.62 0.22 0 0.64 0.22 0 0.66 0.22 0 0.68 0.22 0 0.7 0.22 0 0.72 0.22 0 0.74 0.22 0 0.76 0.22 0 0.78 0.22 0 0.8 0.22 0 0.82 0.22 0 0.84 0.22 0 0.86 0.22 0 0.88 0.22 0 0.9 0.22 0 0.92 0.22 0 0.94 0.22 0 0.96 0.22 0 0.98 0.22 0 1 0.22 0 0 0.24 0 0.02 0.24 0 0.04 0.24 0 0.06 0.24 0 0.08 0.24 0 0.1 0.24 0 0.12 0.24 0 0.14 0.24 0 0.16 0.24 0 0.18 0.24 0 0.2 0.24 0 0.22 0.24 0 0.24 0.24 0 0.26 0.24 0 0.28 0.24 0 0.3 0.24 0 0.32 0.24 0 0.34 0.24 0 0.36 0.24 0 0.38 0.24 0 0.4 0.24 0 0.42 0.24 0 0.44 0.24 0 0.46 0.24 0 0.48 0.24 0 0.5 0.24 0 0.52 0.24 0 0.54 0.24 0 0.56 0.24 0 0.58 0.24 0 0.6 0.24 0 0.62 0.24 0 0.64 0.24 0 0.66 0.24 0 0.68 0.24 0 0.7 0.24 0 0.72 0.24 0 0.74 0.24 0 0.76 0.24 0 0.78 0.24 0 0.8 0.24 0 0.82 0.24 0 0.84 0.24 0 0.86 0.24 0 0.88 0.24 0 0.9 0.24 0 0.92 0.24 0 0.94 0.24 0 0.96 0.24 0 0.98 0.24 0 1 0.24 0 0 0.26 0 0.02 0.26 0 0.04 0.26 0 0.06 0.26 0 0.08 0.26 0 0.1 0.26 0 0.12 0.26 0 0.14 0.26 0 0.16 0.26 0 0.18 0.26 0 0.2 0.26 0 0.22 0.26 0 0.24 0.26 0 0.26 0.26 0 0.28 0.26 0 0.3 0.26 0 0.32 0.26 0 0.34 0.26 0 0.36 0.26 0 0.38 0.26 0 0.4 0.26 0 0.42 0.26 0 0.44 0.26 0 0.46 0.26 0 0.48 0.26 0 0.5 0.26 0 0.52 0.26 0 0.54 0.26 0 0.56 0.26 0 0.58 0.26 0 0.6 0.26 0 0.62 0.26 0 0.64 0.26 0 0.66 0.26 0 0.68 0.26 0 0.7 0.26 0 0.72 0.26 0 0.74 0.26 0 0.76 0.26 0 0.78 0.26 0 0.8 0.26 0 0.82 0.26 0 0.84 0.26 0 0.86 0.26 0 0.88 0.26 0 0.9 0.26 0 0.92 0.26 0 0.94 0.26 0 0.96 0.26 0 0.98 0.26 0 1 0.26 0 0 0.28 0 0.02 0.28 0 0.04 0.28 0 0.06 0.28 0 0.08 0.28 0 0.1 0.28 0 0.12 0.28 0 0.14 0.28 0 0.16 0.28 0 0.18 0.28 0 0.2 0.28 0 0.22 0.28 0 0.24 0.28 0 0.26 0.28 0 0.28 0.28 0 0.3 0.28 0 0.32 0.28 0 0.34 0.28 0 0.36 0.28 0 0.38 0.28 0 0.4 0.28 0 0.42 0.28 0 0.44 0.28 0 0.46 0.28 0 0.48 0.28 0 0.5 0.28 0 0.52 0.28 0 0.54 0.28 0 0.56 0.28 0 0.58 0.28 0 0.6 0.28 0 0.62 0.28 0 0.64 0.28 0 0.66 0.28 0 0.68 0.28 0 0.7 0.28 0 0.72 0.28 0 0.74 0.28 0 0.76 0.28 0 0.78 0.28 0 0.8 0.28 0 0.82 0.28 0 0.84 0.28 0 0.86 0.28 0 0.88 0.28 0 0.9 0.28 0 0.92 0.28 0 0.94 0.28 0 0.96 0.28 0 0.98 0.28 0 1 0.28 0 0 0.3 0 0.02 0.3 0 0.04 0.3 0 0.06 0.3 0 0.08 0.3 0 0.1 0.3 0 0.12 0.3 0 0.14 0.3 0 0.16 0.3 0 0.18 0.3 0 0.2 0.3 0 0.22 0.3 0 0.24 0.3 0 0.26 0.3 0 0.28 0.3 0 0.3 0.3 0 0.32 0.3 0 0.34 0.3 0 0.36 0.3 0 0.38 0.3 0 0.4 0.3 0 0.42 0.3 0 0.44 0.3 0 0.46 0.3 0 0.48 0.3 0 0.5 0.3 0 0.52 0.3 0 0.54 0.3 0 0.56 0.3 0 0.58 0.3 0 0.6 0.3 0 0.62 0.3 0 0.64 0.3 0 0.66 0.3 0 0.68 0.3 0 0.7 0.3 0 0.72 0.3 0 0.74 0.3 0 0.76 0.3 0 0.78 0.3 0 0.8 0.3 0 0.82 0.3 0 0.84 0.3 0 0.86 0.3 0 0.88 0.3 0 0.9 0.3 0 0.92 0.3 0 0.94 0.3 0 0.96 0.3 0 0.98 0.3 0 1 0.3 0 0 0.32 0 0.02 0.32 0 0.04 0.32 0 0.06 0.32 0 0.08 0.32 0 0.1 0.32 0 0.12 0.32 0 0.14 0.32 0 0.16 0.32 0 0.18 0.32 0 0.2 0.32 0 0.22 0.32 0 0.24 0.32 0 0.26 0.32 0 0.28 0.32 0 0.3 0.32 0 0.32 0.32 0 0.34 0.32 0 0.36 0.32 0 0.38 0.32 0 0.4 0.32 0 0.42 0.32 0 0.44 0.32 0 0.46 0.32 0 0.48 0.32 0 0.5 0.32 0 0.52 0.32 0 0.54 0.32 0 0.56 0.32 0 0.58 0.32 0 0.6 0.32 0 0.62 0.32 0 0.64 0.32 0 0.66 0.32 0 0.68 0.32 0 0.7 0.32 0 0.72 0.32 0 0.74 0.32 0 0.76 0.32 0 0.78 0.32 0 0.8 0.32 0 0.82 0.32 0 0.84 0.32 0 0.86 0.32 0 0.88 0.32 0 0.9 0.32 0 0.92 0.32 0 0.94 0.
[...]
			<PointData Scalars="VitesseX">
				<DataArray Name="VitesseX" type="Float32" format="ascii">
 0 0 0 0 0 0 0 0 0 0 0 0 0 0 0 0 0 0 0 0 0 0 0 0 0 0 0 0 0 0 0 0 0 0 0 0 0 0 0 0 0 0 0 0 0 0 0 0 0 0 -0 0 -4.49969e-05 -0.000173599 -0.000384615 -0.000674729 -0.00103938 -0.00147283 -0.00196826 -0.00251788 -0.00311303 -0.00374433 -0.00440155 -0.00507495 -0.00575368 -0.00642714 -0.007085 -0.00771625 -0.00831003 -0.00885853 -0.00935279 -0.00978492 -0.0101481 -0.0104366 -0.010646 -0.0107723 -0.010826 -0.0107975 -0.0106786 -0.0104737 -0.0101881 -0.00982667 -0.00939505 -0.0089 -0.00834991 -0.00775371 -0.00712063 -0.00646055 -0.00578405 -0.00510184 -0.00442476 -0.00376349 -0.00312853 -0.00252993 -0.00197719 -0.00147907 -0.00104339 -0.000676184 -0.000383853 -0.000171793 -4.31944e-05 -4.76712e-28 0 -8.85276e-05 -0.000343255 -0.000761583 -0.00133695 -0.00206033 -0.00292036 -0.00390359 -0.00499448 -0.0061739 -0.0074266 -0.00873567 -0.0100727 -0.0114194 -0.0127553 -0.0140592 -0.0153108 -0.0164902 -0.0175788 -0.0185596 -0.019417 -0.0201375 -0.0207097 -0.0211247 -0.021375 -0.0214639 -0.0213887 -0.0211441 -0.0207334 -0.020164 -0.0194453 -0.0185881 -0.0176065 -0.0165169 -0.0153356 -0.0140818 -0.0127751 -0.0114361 -0.0100862 -0.00874664 -0.00743854 -0.00618259 -0.00499866 -0.00390548 -0.00292038 -0.00205889 -0.00133441 -0.000757691 -0.00033886 -8.5122e-05 -9.31024e-28 0 -0.000130321 -0.000507024 -0.00112601 -0.00197761 -0.00304894 -0.00432423 -0.00578222 -0.0073975 -0.0091459 -0.0110004 -0.012932 -0.0149103 -0.0169042 -0.0188821 -0.0208127 -0.0226657 -0.0244118 -0.0260235 -0.0274753 -0.0287444 -0.0298107 -0.0306574 -0.0312711 -0.0316407 -0.0317666 -0.0316478 -0.0312798 -0.0306679 -0.0298221 -0.0287561 -0.0274863 -0.0260333 -0.0244202 -0.0226724 -0.0208176 -0.0188849 -0.0169049 -0.0149089 -0.0129283 -0.0109944 -0.00913771 -0.00738752 -0.00577149 -0.0043152 -0.00304167 -0.00197088 -0.00111944 -0.00050061 -0.000125707 -1.37071e-27 0 -0.000170027 -0.000662591 -0.00147168 -0.00258803 -0.00399439 -0.00566146 -0.00756643 -0.00967974 -0.0119682 -0.0143957 -0.016924 -0.0195137 -0.0221238 -0.0247128 -0.02724 -0.0296654 -0.0319508 -0.0340601 -0.03596 -0.0376205 -0.0390155 -0.0401228 -0.0409252 -0.0414078 -0.0415693 -0.0414092 -0.0409231 -0.0401187 -0.0390093 -0.0376121 -0.0359491 -0.0340469 -0.0319356 -0.0296487 -0.0272221 -0.0246941 -0.0221044 -0.0194939 -0.016904 -0.0143752 -0.0119474 -0.00965892 -0.00754584 -0.00564157 -0.00397626 -0.00257614 -0.00146311 -0.000654505 -0.000164311 -1.78886e-27 0 -0.000207599 -0.000810256 -0.00180057 -0.00316173 -0.00487238 -0.00690597 -0.00923053 -0.0118095 -0.0146022 -0.0175648 -0.0206504 -0.023811 -0.0269964 -0.030156 -0.0332401 -0.0361998 -0.0389885 -0.041562 -0.0438799 -0.0459054 -0.0476066 -0.0489569 -0.0499348 -0.0505221 -0.0507168 -0.050518 -0.049921 -0.0489365 -0.0475804 -0.0458736 -0.0438432 -0.0415215 -0.0389449 -0.0361547 -0.0331948 -0.0301114 -0.0269529 -0.0237695 -0.0206113 -0.0175278 -0.0145675 -0.0117771 -0.00920061 -0.00687864 -0.00484797 -0.00314068 -0.00178362 -0.00079815 -0.000200326 -2.17888e-27 0 -0.000242119 -0.000943656 -0.00209601 -0.0036807 -0.00567309 -0.00804183 -0.0107496 -0.0137538 -0.0170072 -0.0204583 -0.0240529 -0.0277347 -0.0314454 -0.0351259 -0.0387183 -0.0421656 -0.0454135 -0.0484107 -0.0511097 -0.053468 -0.0554485 -0.0570199 -0.0581576 -0.0588399 -0.0590646 -0.0588303 -0.0581316 -0.056982 -0.0554 -0.0534102 -0.0510445 -0.0483402 -0.045339 -0.0420888 -0.0386417 -0.0350519 -0.0313746 -0.0276685 -0.0239921 -0.0204028 -0.016957 -0.0137089 -0.0107098 -0.00800694 -0.00564308 -0.00365564 -0.00207597 -0.00092911 -0.000233183 -2.53462e-27 0 -0.000272049 -0.0010614 -0.00235803 -0.00414185 -0.00638478 -0.00905149 -0.0121 -0.0154823 -0.019145 -0.0230305 -0.0270775 -0.0312226 -0.0354002 -0.0395436 -0.0435877 -0.0474684 -0.0511243 -0.0544977 -0.0575352 -0.060189 -0.0624171 -0.0641847 -0.065464 -0.0662301 -0.0664807 -0.0662137 -0.0654232 -0.0641256 -0.0623416 -0.0600993 -0.0574345 -0.0543891 -0.0510111 -0.0473542 -0.0434764 -0.0394381 -0.0353004 -0.0311298 -0.0269935 -0.022955 -0.0190782 -0.0154239 -0.0120497 -0.00900874 -0.0063491 -0.00411291 -0.00233557 -0.0010452 -0.000262352 -2.8505e-27 0 -0.00029777 -0.00116225 -0.00258309 -0.00453801 -0.00699619 -0.00991893 -0.0132602 -0.0169673 -0.0209818 -0.0252405 -0.0296762 -0.0342193 -0.038798 -0.0433391 -0.047771 -0.0520236 -0.0560297 -0.059726 -0.063054 -0.0659618 -0.0684027 -0.0703382 -0.0717381 -0.0725758 -0.0728488 -0.0725536 -0.0716841 -0.0702592 -0.0683015 -0.0658423 -0.0629205 -0.0595823 -0.0558804 -0.0518731 -0.0476235 -0.0431981 -0.0386656 -0.0340986 -0.0295683 -0.0251443 -0.0208978 -0.0168952 -0.0131992 -0.00986828 -0.00695492 -0.00450531 -0.00255835 -0.00114487 -0.000287392 -3.12153e-27 0 -0.000318658 -0.00124488 -0.00276759 -0.00486281 -0.00749753 -0.0106302 -0.0142116 -0.0181852 -0.0224883 -0.0270531 -0.0318075 -0.0366772 -0.0415847 -0.0464519 -0.0512019 -0.0557598 -0.0600532 -0.0640147 -0.0675807 -0.0706953 -0.0733097 -0.0753824 -0.0768813 -0.0777773 -0.0780682 -0.0777493 -0.0768146 -0.0752848 -0.0731844 -0.070547 -0.0674144 -0.0638361 -0.0598685 -0.0555739 -0.0510197 -0.0462776 -0.0414216 -0.0365284 -0.031675 -0.0269365 -0.0223874 -0.0180996 -0.0141404 -0.010572 -0.007451 -0.00482665 -0.0027408 -0.0012265 -0.000307892 -3.34344e-27 0 -0.000334519 -0.00130795 -0.00290851 -0.005111 -0.00788074 -0.0111741 -0.0149391 -0.0191166 -0.0236405 -0.0284396 -0.0334381 -0.0385576 -0.043717 -0.048834 -0.0538276 -0.0586191 -0.0631317 -0.0672944 -0.0710418 -0.0743144 -0.0770613 -0.0792387 -0.0808125 -0.0817525 -0.0820565 -0.0817189 -0.0807334 -0.0791227 -0.0769124 -0.074138 -0.0708437 -0.0670815 -0.0629105 -0.0583965 -0.0536104 -0.0486271 -0.0435242 -0.0383821 -0.0332822 -0.0283033 -0.0235235 -0.0190183 -0.0148583 -0.011109 -0.00782952 -0.00507189 -0.00288005 -0.00128881 -0.000323567 -3.51274e-27 0 -0.000345132 -0.00135042 -0.00300358 -0.00527862 -0.00813971 -0.0115418 -0.0154313 -0.0197469 -0.0244206 -0.0293785 -0.0345424 -0.0398315 -0.0451622 -0.050448 -0.0556057 -0.0605543 -0.0652148 -0.0695138 -0.0733838 -0.0767632 -0.079599 -0.0818462 -0.0834697 -0.0844386 -0.0847505 -0.0843997 -0.0833789 -0.0817123 -0.0794263 -0.0765586 -0.0731547 -0.0692677 -0.0649591 -0.0602969 -0.0553539 -0.0502078 -0.0449386 -0.0396296 -0.034364 -0.0292235 -0.0242886 -0.0196368 -0.0153416 -0.0114706 -0.00808451 -0.00523714 -0.00297389 -0.00133081 -0.000334131 -3.62675e-27 0 -0.000350323 -0.00137159 -0.00305126 -0.00536297 -0.00827035 -0.0117276 -0.0156804 -0.0200663 -0.0248161 -0.029855 -0.0351034 -0.0404794 -0.0458962 -0.0512669 -0.0565077 -0.0615359 -0.0662717 -0.0706398 -0.0745714 -0.0780037 -0.0808827 -0.083164 -0.0848115 -0.0857939 -0.0861084 -0.0857485 -0.0847074 -0.0830104 -0.0806842 -0.0777677 -0.074307 -0.0703558 -0.0659772 -0.0612398 -0.0562179 -0.0509898 -0.0456374 -0.040245 -0.0348974 -0.0296773 -0.0246662 -0.0199421 -0.0155799 -0.011649 -0.00821049 -0.00531889 -0.00302035 -0.0013516 -0.000339353 -3.68368e-27 0 -0.000349987 -0.00137102 -0.00305049 -0.00536205 -0.00826935 -0.0117267 -0.0156795 -0.0200656 -0.0248159 -0.0298554 -0.0351044 -0.0404809 -0.0458973 -0.0512686 -0.0565109 -0.0615402 -0.0662767 -0.0706455 -0.0745774 -0.0780096 -0.0808883 -0.083169 -0.0848157 -0.0857965 -0.0861094 -0.0857479 -0.0847059 -0.0830077 -0.0806805 -0.0777632 -0.0743016 -0.0703496 -0.0659703 -0.0612322 -0.05621 -0.0509823 -0.0456303 -0.0402379 -0.0348904 -0.0296713 -0.0246617 -0.0199391 -0.0155775 -0.0116466 -0.00820897 -0.00531797 -0.00301985 -0.00135138 -0.000339296 -3.68264e-27 0 -0.000344165 -0.00134897 -0.00300206 -0.00527759 -0.00813988 -0.0115439 -0.0154362 -0.0197554 -0.0244335 -0.0293967 -0.0345668 -0.0398596 -0.0451932 -0.0504834 -0.0556457 -0.0605974 -0.0652609 -0.0695621 -0.0734317 -0.0768084 -0.0796395 -0.0818802 -0.083495 -0.0844533 -0.0847528 -0.0843929 -0.0833642 -0.0816897 -0.0793964 -0.0765228 -0.0731138 -0.0692226 -0.0649112 -0.0602473 -0.0553043 -0.0501598 -0.0448939 -0.039589 -0.0343276 -0.0291924 -0.0242639 -0.0196184 -0.0153275 -0.0114596 -0.00807737 -0.00523286 -0.00297161 -0.00132982 -0.000333888 -3.62363e-27 0 -0.000332922 -0.00130562 -0.00290618 -0.0051097 -0.0078817 -0.0111787 -0.0149487 -0.0191326 -0.0236642 -0.0284722 -0.0334795 -0.0386063 -0.0437732 -0.0488979 -0.0538976 -0.0586933 -0.06321 -0.0673748 -0.0711204 -0.0743891 -0.0771285 -0.0792953 -0.0808549 -0.0817773 -0.0820617 -0.0817066 -0.0807067 -0.0790816 -0.0768582 -0.0740738 -0.0707712 -0.0670024 -0.062827 -0.0583108 -0.0535249 -0.0485446 -0.0434472 -0.0383131 -0.0332219 -0.0282523 -0.0234826 -0.0189873 -0.0148355 -0.0110925 -0.00781826 -0.00506518 -0.00287651 -0.0012873 -0.000323218 -3.50756e-27 0 -0.00031644 -0.00124169 -0.00276452 -0.00486135 -0.00749947 -0.0106375 -0.0142262 -0.018209 -0.0225232 -0.0271009 -0.0318658 -0.0367464 -0.041666 -0.0465439 -0.0513023 -0.055867 -0.0601658 -0.0641279 -0.0676913 -0.0708 -0.0734046 -0.0754635 -0.0769431 -0.0778138 -0.0780773 -0.077727 -0.0767664 -0.0752119 -0.0730912 -0.0704408 -0.0673009 -0.0637184 -0.0597479 -0.0554523 -0.0508996 -0.0461622 -0.0413139 -0.036431 -0.0315901 -0.0268655 -0.0223303 -0.0180561 -0.0141092 -0.01055 -0.00743572 -0.00481755 -0.00273602 -0.00122448 -0.000307454 -3.33616e-27 0 -0.000294974 -0.0011582 -0.0025793 -0.00453648 -0.0069993 -0.00992915 -0.0132801 -0.0169993 -0.0210283 -0.025303 -0.0297522 -0.0343101 -0.0389043 -0.0434587 -0.0479015 -0.0521635 -0.056176 -0.0598729 -0.0631974 -0.0660968 -0.0685253 -0.0704436 -0.0718181 -0.072619 -0.0728496 -0.0725096 -0.071601 -0.0701402 -0.0681528 -0.0656702 -0.0627331 -0.0593946 -0.0557041 -0.0517095 -0.0474678 -0.0430498 -0.0385275 -0.0339733 -0.0294589 -0.0250538 -0.0208256 -0.0168395 -0.0131591 -0.00984015 -0.00693573 -0.00449387 -0.00255236 -0.00114235 -0.000286845 -3.11196e-27 0 -0.00026889 -0.00105643 -0.00235353 -0.00414036 -0.00638907 -0.00906457 -0.012125 -0.0155223 -0.0192026 -0.0231062 -0.0271713 -0.0313354 -0.0355315 -0.0396906 -0.0437485 -0.047641 -0.0513026 -0.0546762 -0.0577089 -0.0603527 -0.0625658 -0.0643103 -0.0655509 -0.0662676 -0.0664715 -0.0661593 -0.0653252 -0.0639865 -0.0621675 -0.0598949 -0.0572035 -0.0541427 -0.0507629 -0.0471208 -0.0432711 -0.0392541 -0.0351317 -0.0309786 -0.0268621 -0.0228459 -0.0189912 -0.0153569 -0.0120012 -0.008975 -0.0063265 -0.00409924 -0.00232841 -0.0010422 -0.000261713 -2.83866e-27 0 -0.000238689 -0.000938294 -0.00209082 -0.00367892 -0.00567828 -0.0080577 -0.0107798 -0.0138016 -0.0170754 -0.0205471 -0.0241638 -0.0278687 -0.0316008 -0.0352994 -0.0389081 -0.0423692 -0.0456226 -0.0486193 -0.0513116 -0.0536572 -0.0556179 -0.057155 -0.0582415 -0.0588744 -0.059054 -0.0587708 -0.0580234 -0.0568274 -0.0552049 -0.0531811 -0.0507872 -0.0480632 -0.0450535 -0.0418039 -0.0383727 -0.034822 -0.0311785 -0.0274942 -0.0238407 -0.0202764 -0.016856 -0.0136317 -0.0106534 -0.00796798 -0.00561738 -0.00363986 -0.0020677 -0.000925611 -0.000232455 -2.52091e-27 0 -0.000204746 -0.0008055 -0.00179553 -0.00316015 -0.00487862 -0.00692418 -0.00926493 -0.0118639 -0.0146803 -0.0176666 -0.0207778 -0.0239646 -0.0271742 -0.0303548 -0.0334575 -0.036431 -0.0392253 -0.0417976 -0.044107 -0.0461166 -0.0477907 -0.0490954 -0.0500196 -0.0505589 -0.0507052 -0.0504527 -0.0498035 -0.0487693 -0.0473686 -0.0456245 -0.043565 -0.0412222 -0.038638 -0.035848 -0.0328944 -0.0298305 -0.0267203 -0.0235745 -0.0204428 -0.0173871 -0.014455 -0.011691 -0.00913707 -0.00683481 -0.00481921 -0.00312293 -0.00177434 -0.000794409 -0.000199531 -2.1636e-27 0 -0.000167585 -0.000660048 -0.00147226 -0.00259231 -0.00400307 -0.00568283 -0.00760544 -0.00974066 -0.0120548 -0.014509 -0.0170658 -0.0196845 -0.022321 -0.0249338 -0.0274817 -0.029921 -0.0322124 -0.0343198 -0.0362093 -0.03785 -0.0392094 -0.0402654 -0.0410131 -0.0414469 -0.0415562 -0.0413377 -0.0407958 -0.0399402 -0.0387836 -0.037347 -0.0356537 -0.033728 -0.0316086 -0.0293229 -0.0269057 -0.0243925 -0.0218312 -0.0192772 -0.0167218 -0.014223 -0.0118254 -0.00956551 -0.00747683 -0.00559382 -0.00394476 -0.00255662 -0.00145293 -0.000650662 -0.00016346 -1.77224e-27 0 -0.000127919 -0.000504417 -0.00112603 -0.00198391 -0.0030652 -0.00435336 -0.0058281 -0.00746615 -0.00924162 -0.0111249 -0.0130866 -0.0150956 -0.0171176 -0.0191202 -0.0210716 -0.0229381 -0.0246895 -0.0262975 -0.027736 -0.0289812 -0.0300096 -0.0308073 -0.0313651 -0.0316825 -0.031752 -0.0315708 -0.0311433 -0.030479 -0.029585 -0.0284785 -0.0271777 -0.0257004 -0.0240784 -0.0223321 -0.0204877 -0.0185728 -0.0166154 -0.0146635 -0.0127355 -0.010834 -0.00900874 -0.00728834 -0.00569825 -0.00426409 -0.00300782 -0.00194996 -0.00110854 -0.000496635 -0.000124808 -1.35299e-27 0 -8.63705e-05 -0.000341157 -0.000762468 -0.00134478 -0.00207959 -0.00295577 -0.00395964 -0.00507527 -0.00628486 -0.00756778 -0.00890327 -0.0102706 -0.0116463 -0.0130067 -0.01433 -0.0155937 -0.0167767 -0.0178596 -0.0188247 -0.0196562 -0.0203404 -0.0208688 -0.021229 -0.0214207 -0.0214471 -0.0213052 -0.0209983 -0.0205341 -0.0199164 -0.0191574 -0.01827 -0.0172662 -0.0161661 -0.0149868 -0.0137437 -0.0124559 -0.0111416 -0.00982341 -0.00854327 -0.00727286 -0.00604908 -0.00489564 -0.00382922 -0.0028666 -0.00202321 -0.00131247 -0.000746594 -0.000334754 -8.41862e-05 -9.12448e-28 0 -4.3612e-05 -0.000172988 -0.00038762 -0.000685284 -0.00106203 -0.00151251 -0.00202966 -0.00260522 -0.00322974 -0.00389225 -0.00458112 -0.00528542 -0.00599298 -0.00669066 -0.00736614 -0.00800778 -0.00860448 -0.00914575 -0.00962239 -0.0100264 -0.0103517 -0.0105968 -0.0107584 -0.0108245 -0.0108014 -0.0106984 -0.0105177 -0.0102608 -0.00992962 -0.00953028 -0.00907045 -0.00855604 -0.00799622 -0.00740246 -0.00678048 -0.00613958 -0.00548883 -0.00483618 -0.00420805 -0.00359433 -0.00299232 -0.00242461 -0.00189919 -0.00142383 -0.00100672 -0.0006542 -0.000372808 -0.000167573 -4.22325e-05 -4.57555e-28 0 -5.3335e-07 -2.79988e-06 -7.75507e-06 -1.62525e-05 -2.91e-05 -4.66851e-05 -6.88233e-05 -9.52346e-05 -0.000124927 -0.00015667 -0.000188205 -0.000218617 -0.000247145 -0.000271349 -0.00028866 -0.000297992 -0.000298955 -0.000289772 -0.000269962 -0.000239437 -0.000199186 -0.00015271 -0.000105228 -5.28581e-05 4.82611e-05 8.38977e-05 0.000135256 0.000180728 0.00021981 0.00025317 0.000279371 0.000297127 0.000306569 0.000305572 0.000296094 0.000278976 0.000255481 0.000227899 0.000191624 0.00014564 0.000114556 8.65639e-05 6.19951e-05 4.20159e-05 2.60534e-05 1.46394e-05 6.95273e-06 2.3073e-06 3.82112e-07 3.22283e-30 0 4.20034e-05 0.000166842 0.000371634 0.00065221 0.00100333 0.00141901 0.00189236 0.00241584 0.00298161 0.00358124 0.00420745 0.00485103 0.00550241 0.00615261 0.00679331 0.00741613 0.00801118 0.00857064 0.00908633 0.00955008 0.00995362 0.0102885 0.010548 0.010727 0.0108464 0.0108553 0.0107815 0.0106177 0.0103659 0.0100335 0.00962689 0.00914969 0.00860901 0.00801333 0.0073726 0.00669778 0.00600057 0.00529331 0.00458579 0.00388381 0.00321973 0.00259632 0.00202224 0.00150719 0.00105861 0.000683424 0.000386675 0.000172269 4.31051e-05 4.6475e-28 0 8.39478e-05 0.000333977 0.000745268 0.00131041 0.00201971 0.0028615 0.00382225 0.00488696 0.00603896 0.00726044 0.00853393 0.00984074 0.0111613 0.0124754 0.0137633 0.0150077 0.0161898 0.0172902 0.0182932 0.0191824 0.0199426 0.0205603 0.0210255 0.0213285 0.0214788 0.0214497 0.0212532 0.0208838 0.0203471 0.0196571 0.0188255 0.0178613 0.0167796 0.0155986 0.0143369 0.0130154 0.0116559 0.0102812 0.00891206 0.00756081 0.00627408 0.00506527 0.00395082 0.0029488 0.00207469 0.00134159 0.000760451 0.000339672 8.52651e-05 9.19572e-28 0 0.00012456 0.000495821 0.00110708 0.00194781 0.00300401 0.00425849 0.00569129 0.00727987 0.00899954 0.0108236 0.0127241 0.0146734 0.0166417 0.0185987 0.0205146 0.0223606 0.0241092 0.0257334 0.0272074 0.0285078 0.0296133 0.0305051 0.031169 0.0315923 0.0317762 0.0317074 0.0313901 0.0308195 0.0300078 0.0289733 0.0277294 0.0262925 0.0246867 0.0229389 0.0210761 0.0191289 0.0171288 0.0151086 0.0130995 0.0111197 0.00922982 0.00745461 0.00581735 0.00434411 0.0030581 0.00197868 0.00112234 0.000501826 0.000126144 1.36012e-27 0 0.00016319 0.000649829 0.00145138 0.00255438 0.00394071 0.00558798 0.00747004 0.00955723 0.011817 0.0142142 0.0167122 0.019273 0.0218575 0.0244262 0.0269395 0.0293588 0.0316462 0.0337672 0.0356891 0.0373807 0.0388144 0.039967 0.0408199 0.0413579 0.0415751 0.0414668 0.0410326 0.0402708 0.0391987 0.0378349 0.0361969 0.0343096 0.0322045 0.0299166 0.027482 0.0249397 0.0223307 0.0196972 0.0170809 0.0145045 0.0120404 0.00972669 0.00759239 0.00567112 0.00399346 0.00258476 0.00146671 0.000656118 0.000165076 1.77931e-27 0 0.000199297 0.000793576 0.00177274 0.00312056 0.00481507 0.00682904 0.00913049 0.0116832 0.0144472 0.0173794 0.0204352 0.0235665 0.0267263 0.0298658 0.032936 0.0358901 0.038682 0.0412677 0.0436064 0.0456615 0.0474016 0.0487974 0.0498265 0.050471 0.050721 0.0505739 0.0500296 0.04909 0.0477741 0.0461007 0.0440939 0.0417864 0.0392179 0.0364293 0.0334635 0.0303673 0.0271902 0.0239838 0.0207995 0.0176616 0.0146615 0.0118458 0.009248 0.00690894 0.00486603 0.00315028 0.00178809 0.000800117 0.000201424 2.17046e-27 0 0.000232277 0.0009248 0.00206612 0.00363744 0.00561332 0.00796211 0.0106465 0.0136242 0.0168486 0.0202693 0.0238337 0.0274861 0.0311713 0.0348321 0.0384106 0.0418518 0.0451032 0.0481135 0.0508347 0.0532236 0.0552416 0.0568579 0.0580471 0.0587882 0.0590658 0.0588838 0.0582399 0.0571376 0.0555968 0.05364 0.0512979 0.0486105 0.0456225 0.0423769 0.038926 0.0353241 0.0316284 0.0278993 0.024195 0.0205398 0.0170519 0.0137785 0.0107581 0.00803809 0.00566207 0.00366623 0.00208135 0.000931612 0.000234582 2.5274e-27 0 0.000261568 0.00104144 0.00232688 0.00409688 0.0063229 0.00896936 0.0119943 0.0153499 0.0189836 0.0228386 0.0268551 0.0309707 0.0351225 0.0392464 0.0432771 0.0471514 0.0508099 0.0541958 0.0572562 0.0599415 0.0622079 0.0640208 0.0653516 0.0661777 0.0664804 0.0662664 0.0655338 0.0642853 0.0625438 0.0603362 0.0576987 0.0546754 0.0513117 0.0476572 0.0437729 0.0397205 0.0355646 0.0313723 0.027207 0.0230928 0.0191741 0.0154945 0.0120991 0.00904083 0.00636904 0.00412453 0.00234189 0.00104849 0.000264067 2.84451e-27 0 0.000286726 0.00114167 0.00255094 0.00449167 0.00693265 0.00983494 0.0131525 0.0168329 0.0208185 0.0250468 0.0294519 0.0339655 0.0385179 0.0430391 0.0474581 0.0517052 0.0557138 0.0594219 0.0627716 0.0657099 0.0681898 0.0701717 0.071624 0.0725229 0.0728483 0.0726056 0.071796 0.0704213 0.0685076 0.0660856 0.0631947 0.0598797 0.0561898 0.0521858 0.0479311 0.0434932 0.0389427 0.0343533 0.0297897 0.025281 0.0209949 0.0169669 0.0132497 0.00990139 0.00697583 0.00451796 0.00256565 0.00114885 0.000289435 3.1168e-27 0 0.00030738 0.00122404 0.00273477 0.00481558 0.00743297 0.0105452 0.014103 0.0180501 0.0223245 0.0268592 0.0315833 0.0364235 0.0413049 0.0461514 0.0508879 0.0554407 0.0597372 0.0637098 0.0672969 0.0704421 0.0730956 0.075215 0.0767663 0.0777244 0.0780677 0.077801 0.0769278 0.0754494 0.0733946 0.0707964 0.0676955 0.0641393 0.0601849 0.0558947 0.0513367 0.046583 0.0417095 0.0367953 0.0319002 0.0270701 0.0224856 0.0181724 0.0141919 0.0106063 0.00747293 0.00484032 0.00274906 0.00123114 0.00031024 3.33997e-27 0 0.000323173 0.00128708 0.00287549 0.00506354 0.00781602 0.0110891 0.0148309 0.0189823 0.0234779 0.0282473 0.0332159 0.0383061 0.0434394 0.0485355 0.0535141 0.0582993 0.0628153 0.0669908 0.0707599 0.0740631 0.0768487 0.079072 0.0806979 0.0817001 0.0820556 0.0817702 0.0808478 0.0792893 0.0771262 0.0743923 0.07113 0.067391 0.0632342 0.0587253 0.0539356 0.048941 0.0438211 0.0386592 0.0335006 0.0284339 0.0236226 0.0190922 0.014911 0.0111445 0.00785256 0.00508652 0.00288924 0.00129404 0.000326151 3.51049e-27 0 0.000333875 0.00132979 0.00297088 0.00523166 0.00807577 0.011458 0.0153247 0.0196148 0.0242607 0.0291895 0.0343239 0.0395839 0.0448879 0.0501532 0.0552967 0.0602381 0.0649011 0.069213 0.0731045 0.0765142 0.0793886 0.0816812 0.083356 0.0843868 0.0847497 0.0844506 0.083494 0.0818806 0.0796433 0.0768169 0.0734458 0.0695829 0.0652893 0.0606327 0.0556867 0.0505297 0.0452443 0.039913 0.034562 