<?xml version="1.0"?>
<VTKFile type="PolyData">
	<PolyData>
		<Piece NumberOfPoints="2601" NumberOfPolys="2500">
			<Points>
				<DataArray type="Float32" NumberOfComponents="3" format="ascii">
 0 0 0 0.02 0 0 0.04 0 0 0.06 0 0 0.08 0 0 0.1 0 0 0.12 0 0 0.14 0 0 0.16 0 0 0.18 0 0 0.2 0 0 0.22 0 0 0.24 0 0 0.26 0 0 0.28 0 0 0.3 0 0 0.32 0 0 0.34 0 0 0.36 0 0 0.38 0 0 0.4 0 0 0.42 0 0 0.44 0 0 0.46 0 0 0.48 0 0 0.5 0 0 0.52 0 0 0.54 0 0 0.56 0 0 0.58 0 0 0.6 0 0 0.62 0 0 0.64 0 0 0.66 0 0 0.68 0 0 0.7 0 0 0.72 0 0 0.74 0 0 0.76 0 0 0.78 0 0 0.8 0 0 0.82 0 0 0.84 0 0 0.86 0 0 0.88 0 0 0.9 0 0 0.92 0 0 0.94 0 0 0.96 0 0 0.98 0 0 1 0 0 0 0.02 0 0.02 0.02 0 0.04 0.02 0 0.06 0.02 0 0.08 0.02 0 0.1 0.02 0 0.12 0.02 0 0.14 0.02 0 0.16 0.02 0 0.18 0.02 0 0.2 0.02 0 0.22 0.02 0 0.24 0.02 0 0.26 0.02 0 0.28 0.02 0 0.3 0.02 0 0.32 0.02 0 0.34 0.02 0 0.36 0.02 0 0.38 0.02 0 0.4 0.02 0 0.42 0.02 0 0.44 0.02 0 0.46 0.02 0 0.48 0.02 0 0.5 0.02 0 0.52 0.02 0 0.54 0.02 0 0.56 0.02 0 0.58 0.02 0 0.6 0.02 0 0.62 0.02 0 0.64 0.02 0 0.66 0.02 0 0.68 0.02 0 0.7 0.02 0 0.72 0.02 0 0.74 0.02 0 0.76 0.02 0 0.78 0.02 0 0.8 0.02 0 0.82 0.02 0 0.84 0.02 0 0.86 0.02 0 0.88 0.02 0 0.9 0.02 0 0.92 0.02 0 0.94 0.02 0 0.96 0.02 0 0.98 0.02 0 1 0.02 0 0 0.04 0 0.02 0.04 0 0.04 0.04 0 0.06 0.04 0 0.08 0.04 0 0.1 0.04 0 0.12 0.04 0 0.14 0.04 0 0.16 0.04 0 0.18 0.04 0 0.2 0.04 0 0.22 0.04 0 0.24 0.04 0 0.26 0.04 0 0.28 0.04 0 0.3 0.04 0 0.32 0.04 0 0.34 0.04 0 0.36 0.04 0 0.38 0.04 0 0.4 0.04 0 0.42 0.04 0 0.44 0.04 0 0.46 0.04 0 0.48 0.04 0 0.5 0.04 0 0.52 0.04 0 0.54 0.04 0 0.56 0.04 0 0.58 0.04 0 0.6 0.04 0 0.62 0.04 0 0.64 0.04 0 0.66 0.04 0 0.68 0.04 0 0.7 0.04 0 0.72 0.04 0 0.74 0.04 0 0.76 0.04 0 0.78 0.04 0 0.8 0.04 0 0.82 0.04 0 0.84 0.04 0 0.86 0.04 0 0.88 0.04 0 0.9 0.04 0 0.92 0.04 0 0.94 0.04 0 0.96 0.04 0 0.98 0.04 0 1 0.04 0 0 0.06 0 0.02 0.06 0 0.04 0.06 0 0.06 0.06 0 0.08 0.06 0 0.1 0.06 0 0.12 0.06 0 0.14 0.06 0 0.16 0.06 0 0.18 0.06 0 0.2 0.06 0 0.22 0.06 0 0.24 0.06 0 0.26 0.06 0 0.28 0.06 0 0.3 0.06 0 0.32 0.06 0 0.34 0.06 0 0.36 0.06 0 0.38 0.06 0 0.4 0.06 0 0.42 0.06 0 0.44 0.06 0 0.46 0.06 0 0.48 0.06 0 0.5 0.06 0 0.52 0.06 0 0.54 0.06 0 0.56 0.06 0 0.58 0.06 0 0.6 0.06 0 0.62 0.06 0 0.64 0.06 0 0.66 0.06 0 0.68 0.06 0 0.7 0.06 0 0.72 0.06 0 0.74 0.06 0 0.76 0.06 0 0.78 0.06 0 0.8 0.06 0 0.82 0.06 0 0.84 0.06 0 0.86 0.06 0 0.88 0.06 0 0.9 0.06 0 0.92 0.06 0 0.94 0.06 0 0.96 0.06 0 0.98 0.06 0 1 0.06 0 0 0.08 0 0.02 0.08 0 0.04 0.08 0 0.06 0.08 0 0.08 0.08 0 0.1 0.08 0 0.12 0.08 0 0.14 0.08 0 0.16 0.08 0 0.18 0.08 0 0.2 0.08 0 0.22 0.08 0 0.24 0.08 0 0.26 0.08 0 0.28 0.08 0 0.3 0.08 0 0.32 0.08 0 0.34 0.08 0 0.36 0.08 0 0.38 0.08 0 0.4 0.08 0 0.42 0.08 0 0.44 0.08 0 0.46 0.08 0 0.48 0.08 0 0.5 0.08 0 0.52 0.08 0 0.54 0.08 0 0.56 0.08 0 0.58 0.08 0 0.6 0.08 0 0.62 0.08 0 0.64 0.08 0 0.66 0.08 0 0.68 0.08 0 0.7 0.08 0 0.72 0.08 0 0.74 0.08 0 0.76 0.08 0 0.78 0.08 0 0.8 0.08 0 0.82 0.08 0 0.84 0.08 0 0.86 0.08 0 0.88 0.08 0 0.9 0.08 0 0.92 0.08 0 0.94 0.08 0 0.96 0.08 0 0.98 0.08 0 1 0.08 0 0 0.1 0 0.02 0.1 0 0.04 0.1 0 0.06 0.1 0 0.08 0.1 0 0.1 0.1 0 0.12 0.1 0 0.14 0.1 0 0.16 0.1 0 0.18 0.1 0 0.2 0.1 0 0.22 0.1 0 0.24 0.1 0 0.26 0.1 0 0.28 0.1 0 0.3 0.1 0 0.32 0.1 0 0.34 0.1 0 0.36 0.1 0 0.38 0.1 0 0.4 0.1 0 0.42 0.1 0 0.44 0.1 0 0.46 0.1 0 0.48 0.1 0 0.5 0.1 0 0.52 0.1 0 0.54 0.1 0 0.56 0.1 0 0.58 0.1 0 0.6 0.1 0 0.62 0.1 0 0.64 0.1 0 0.66 0.1 0 0.68 0.1 0 0.7 0.1 0 0.72 0.1 0 0.74 0.1 0 0.76 0.1 0 0.78 0.1 0 0.8 0.1 0 0.82 0.1 0 0.84 0.1 0 0.86 0.1 0 0.88 0.1 0 0.9 0.1 0 0.92 0.1 0 0.94 0.1 0 0.96 0.1 0 0.98 0.1 0 1 0.1 0 0 0.12 0 0.02 0.12 0 0.04 0.12 0 0.06 0.12 0 0.08 0.12 0 0.1 0.12 0 0.12 0.12 0 0.14 0.12 0 0.16 0.12 0 0.18 0.12 0 0.2 0.12 0 0.22 0.12 0 0.24 0.12 0 0.26 0.12 0 0.28 0.12 0 0.3 0.12 0 0.32 0.12 0 0.34 0.12 0 0.36 0.12 0 0.38 0.12 0 0.4 0.12 0 0.42 0.12 0 0.44 0.12 0 0.46 0.12 0 0.48 0.12 0 0.5 0.12 0 0.52 0.12 0 0.54 0.12 0 0.56 0.12 0 0.58 0.12 0 0.6 0.12 0 0.62 0.12 0 0.64 0.12 0 0.66 0.12 0 0.68 0.12 0 0.7 0.12 0 0.72 0.12 0 0.74 0.12 0 0.76 0.12 0 0.78 0.12 0 0.8 0.12 0 0.82 0.12 0 0.84 0.12 0 0.86 0.12 0 0.88 0.12 0 0.9 0.12 0 0.92 0.12 0 0.94 0.12 0 0.96 0.12 0 0.98 0.12 0 1 0.12 0 0 0.14 0 0.02 0.14 0 0.04 0.14 0 0.06 0.14 0 0.08 0.14 0 0.1 0.14 0 0.12 0.14 0 0.14 0.14 0 0.16 0.14 0 0.18 0.14 0 0.2 0.14 0 0.22 0.14 0 0.24 0.14 0 0.26 0.14 0 0.28 0.14 0 0.3 0.14 0 0.32 0.14 0 0.34 0.14 0 0.36 0.14 0 0.38 0.14 0 0.4 0.14 0 0.42 0.14 0 0.44 0.14 0 0.46 0.14 0 0.48 0.14 0 0.5 0.14 0 0.52 0.14 0 0.54 0.14 0 0.56 0.14 0 0.58 0.14 0 0.6 0.14 0 0.62 0.14 0 0.64 0.14 0 0.66 0.14 0 0.68 0.14 0 0.7 0.14 0 0.72 0.14 0 0.74 0.14 0 0.76 0.14 0 0.78 0.14 0 0.8 0.14 0 0.82 0.14 0 0.84 0.14 0 0.86 0.14 0 0.88 0.14 0 0.9 0.14 0 0.92 0.14 0 0.94 0.14 0 0.96 0.14 0 0.98 0.14 0 1 0.14 0 0 0.16 0 0.02 0.16 0 0.04 0.16 0 0.06 0.16 0 0.08 0.16 0 0.1 0.16 0 0.12 0.16 0 0.14 0.16 0 0.16 0.16 0 0.18 0.16 0 0.2 0.16 0 0.22 0.16 0 0.24 0.16 0 0.26 0.16 0 0.28 0.16 0 0.3 0.16 0 0.32 0.16 0 0.34 0.16 0 0.36 0.16 0 0.38 0.16 0 0.4 0.16 0 0.42 0.16 0 0.44 0.16 0 0.46 0.16 0 0.48 0.16 0 0.5 0.16 0 0.52 0.16 0 0.54 0.16 0 0.56 0.16 0 0.58 0.16 0 0.6 0.16 0 0.62 0.16 0 0.64 0.16 0 0.66 0.16 0 0.68 0.16 0 0.7 0.16 0 0.72 0.16 0 0.74 0.16 0 0.76 0.16 0 0.78 0.16 0 0.8 0.16 0 0.82 0.16 0 0.84 0.16 0 0.86 0.16 0 0.88 0.16 0 0.9 0.16 0 0.92 0.16 0 0.94 0.16 0 0.96 0.16 0 0.98 0.16 0 1 0.16 0 0 0.18 0 0.02 0.18 0 0.04 0.18 0 0.06 0.18 0 0.08 0.18 0 0.1 0.18 0 0.12 0.18 0 0.14 0.18 0 0.16 0.18 0 0.18 0.18 0 0.2 0.18 0 0.22 0.18 0 0.24 0.18 0 0.26 0.18 0 0.28 0.18 0 0.3 0.18 0 0.32 0.18 0 0.34 0.18 0 0.36 0.18 0 0.38 0.18 0 0.4 0.18 0 0.42 0.18 0 0.44 0.18 0 0.46 0.18 0 0.48 0.18 0 0.5 0.18 0 0.52 0.18 0 0.54 0.18 0 0.56 0.18 0 0.58 0.18 0 0.6 0.18 0 0.62 0.18 0 0.64 0.18 0 0.66 0.18 0 0.68 0.18 0 0.7 0.18 0 0.72 0.18 0 0.74 0.18 0 0.76 0.18 0 0.78 0.18 0 0.8 0.18 0 0.82 0.18 0 0.84 0.18 0 0.86 0.18 0 0.88 0.18 0 0.9 0.18 0 0.92 0.18 0 0.94 0.18 0 0.96 0.18 0 0.98 0.18 0 1 0.18 0 0 0.2 0 0.02 0.2 0 0.04 0.2 0 0.06 0.2 0 0.08 0.2 0 0.1 0.2 0 0.12 0.2 0 0.14 0.2 0 0.16 0.2 0 0.18 0.2 0 0.2 0.2 0 0.22 0.2 0 0.24 0.2 0 0.26 0.2 0 0.28 0.2 0 0.3 0.2 0 0.32 0.2 0 0.34 0.2 0 0.36 0.2 0 0.38 0.2 0 0.4 0.2 0 0.42 0.2 0 0.44 0.2 0 0.46 0.2 0 0.48 0.2 0 0.5 0.2 0 0.52 0.2 0 0.54 0.2 0 0.56 0.2 0 0.58 0.2 0 0.6 0.2 0 0.62 0.2 0 0.64 0.2 0 0.66 0.2 0 0.68 0.2 0 0.7 0.2 0 0.72 0.2 0 0.74 0.2 0 0.76 0.2 0 0.78 0.2 0 0.8 0.2 0 0.82 0.2 0 0.84 0.2 0 0.86 0.2 0 0.88 0.2 0 0.9 0.2 0 0.92 0.2 0 0.94 0.2 0 0.96 0.2 0 0.98 0.2 0 1 0.2 0 0 0.22 0 0.02 0.22 0 0.04 0.22 0 0.06 0.22 0 0.08 0.22 0 0.1 0.22 0 0.12 0.22 0 0.14 0.22 0 0.16 0.22 0 0.18 0.22 0 0.2 0.22 0 0.22 0.22 0 0.24 0.22 0 0.26 0.22 0 0.28 0.22 0 0.3 0.22 0 0.32 0.22 0 0.34 0.22 0 0.36 0.22 0 0.38 0.22 0 0.4 0.22 0 0.42 0.22 0 0.44 0.22 0 0.46 0.22 0 0.48 0.22 0 0.5 0.22 0 0.52 0.22 0 0.54 0.22 0 0.56 0.22 0 0.58 0.22 0 0.6 0.22 0 0.62 0.22 0 0.64 0.22 0 0.66 0.22 0 0.68 0.22 0 0.7 0.22 0 0.72 0.22 0 0.74 0.22 0 0.76 0.22 0 0.78 0.22 0 0.8 0.22 0 0.82 0.22 0 0.84 0.22 0 0.86 0.22 0 0.88 0.22 0 0.9 0.22 0 0.92 0.22 0 0.94 0.22 0 0.96 0.22 0 0.98 0.22 0 1 0.22 0 0 0.24 0 0.02 0.24 0 0.04 0.24 0 0.06 0.24 0 0.08 0.24 0 0.1 0.24 0 0.12 0.24 0 0.14 0.24 0 0.16 0.24 0 0.18 0.24 0 0.2 0.24 0 0.22 0.24 0 0.24 0.24 0 0.26 0.24 0 0.28 0.24 0 0.3 0.24 0 0.32 0.24 0 0.34 0.24 0 0.36 0.24 0 0.38 0.24 0 0.4 0.24 0 0.42 0.24 0 0.44 0.24 0 0.46 0.24 0 0.48 0.24 0 0.5 0.24 0 0.52 0.24 0 0.54 0.24 0 0.56 0.24 0 0.58 0.24 0 0.6 0.24 0 0.62 0.24 0 0.64 0.24 0 0.66 0.24 0 0.68 0.24 0 0.7 0.24 0 0.72 0.24 0 0.74 0.24 0 0.76 0.24 0 0.78 0.24 0 0.8 0.24 0 0.82 0.24 0 0.84 0.24 0 0.86 0.24 0 0.88 0.24 0 0.9 0.24 0 0.92 0.24 0 0.94 0.24 0 0.96 0.24 0 0.98 0.24 0 1 0.24 0 0 0.26 0 0.02 0.26 0 0.04 0.26 0 0.06 0.26 0 0.08 0.26 0 0.1 0.26 0 0.12 0.26 0 0.14 0.26 0 0.16 0.26 0 0.18 0.26 0 0.2 0.26 0 0.22 0.26 0 0.24 0.26 0 0.26 0.26 0 0.28 0.26 0 0.3 0.26 0 0.32 0.26 0 0.34 0.26 0 0.36 0.26 0 0.38 0.26 0 0.4 0.26 0 0.42 0.26 0 0.44 0.26 0 0.46 0.26 0 0.48 0.26 0 0.5 0.26 0 0.52 0.26 0 0.54 0.26 0 0.56 0.26 0 0.58 0.26 0 0.6 0.26 0 0.62 0.26 0 0.64 0.26 0 0.66 0.26 0 0.68 0.26 0 0.7 0.26 0 0.72 0.26 0 0.74 0.26 0 0.76 0.26 0 0.78 0.26 0 0.8 0.26 0 0.82 0.26 0 0.84 0.26 0 0.86 0.26 0 0.88 0.26 0 0.9 0.26 0 0.92 0.26 0 0.94 0.26 0 0.96 0.26 0 0.98 0.26 0 1 0.26 0 0 0.28 0 0.02 0.28 0 0.04 0.28 0 0.06 0.28 0 0.08 0.28 0 0.1 0.28 0 0.12 0.28 0 0.14 0.28 0 0.16 0.28 0 0.18 0.28 0 0.2 0.28 0 0.22 0.28 0 0.24 0.28 0 0.26 0.28 0 0.28 0.28 0 0.3 0.28 0 0.32 0.28 0 0.34 0.28 0 0.36 0.28 0 0.38 0.28 0 0.4 0.28 0 0.42 0.28 0 0.44 0.28 0 0.46 0.28 0 0.48 0.28 0 0.5 0.28 0 0.52 0.28 0 0.54 0.28 0 0.56 0.28 0 0.58 0.28 0 0.6 0.28 0 0.62 0.28 0 0.64 0.28 0 0.66 0.28 0 0.68 0.28 0 0.7 0.28 0 0.72 0.28 0 0.74 0.28 0 0.76 0.28 0 0.78 0.28 0 0.8 0.28 0 0.82 0.28 0 0.84 0.28 0 0.86 0.28 0 0.88 0.28 0 0.9 0.28 0 0.92 0.28 0 0.94 0.28 0 0.96 0.28 0 0.98 0.28 0 1 0.28 0 0 0.3 0 0.02 0.3 0 0.04 0.3 0 0.06 0.3 0 0.08 0.3 0 0.1 0.3 0 0.12 0.3 0 0.14 0.3 0 0.16 0.3 0 0.18 0.3 0 0.2 0.3 0 0.22 0.3 0 0.24 0.3 0 0.26 0.3 0 0.28 0.3 0 0.3 0.3 0 0.32 0.3 0 0.34 0.3 0 0.36 0.3 0 0.38 0.3 0 0.4 0.3 0 0.42 0.3 0 0.44 0.3 0 0.46 0.3 0 0.48 0.3 0 0.5 0.3 0 0.52 0.3 0 0.54 0.3 0 0.56 0.3 0 0.58 0.3 0 0.6 0.3 0 0.62 0.3 0 0.64 0.3 0 0.66 0.3 0 0.68 0.3 0 0.7 0.3 0 0.72 0.3 0 0.74 0.3 0 0.76 0.3 0 0.78 0.3 0 0.8 0.3 0 0.82 0.3 0 0.84 0.3 0 0.86 0.3 0 0.88 0.3 0 0.9 0.3 0 0.92 0.3 0 0.94 0.3 0 0.96 0.3 0 0.98 0.3 0 1 0.3 0 0 0.32 0 0.02 0.32 0 0.04 0.32 0 0.06 0.32 0 0.08 0.32 0 0.1 0.32 0 0.12 0.32 0 0.14 0.32 0 0.16 0.32 0 0.18 0.32 0 0.2 0.32 0 0.22 0.32 0 0.24 0.32 0 0.26 0.32 0 0.28 0.32 0 0.3 0.32 0 0.32 0.32 0 0.34 0.32 0 0.36 0.32 0 0.38 0.32 0 0.4 0.32 0 0.42 0.32 0 0.44 0.32 0 0.46 0.32 0 0.48 0.32 0 0.5 0.32 0 0.52 0.32 0 0.54 0.32 0 0.56 0.32 0 0.58 0.32 0 0.6 0.32 0 0.62 0.32 0 0.64 0.32 0 0.66 0.32 0 0.68 0.32 0 0.7 0.32 0 0.72 0.32 0 0.74 0.32 0 0.76 0.32 0 0.78 0.32 0 0.8 0.32 0 0.82 0.32 0 0.84 0.32 0 0.86 0.32 0 0.88 0.32 0 0.9 0.32 0 0.92 0.32 0 0.94 0.
[...]
			<PointData Scalars="VitesseX">
				<DataArray Name="VitesseX" type="Float32" format="ascii">
 0 0 0 0 0 0 0 0 0 0 0 0 0 0 0 0 0 0 0 0 0 0 0 0 0 0 0 0 0 0 0 0 0 0 0 0 0 0 0 0 0 0 0 0 0 0 0 0 0 0 0 0 0.000493858 0.00197664 0.00443466 0.00779929 0.0120101 0.0170011 0.0226932 0.0289959 0.0358096 0.0430265 0.0505319 0.0582066 0.065931 0.0735799 0.0810297 0.0881615 0.0948604 0.101016 0.106527 0.111293 0.115257 0.118355 0.120473 0.121518 0.121927 0.121004 0.119499 0.11719 0.113966 0.109905 0.105037 0.0994171 0.0931973 0.086502 0.0794127 0.0720448 0.0645042 0.0568959 0.0493457 0.0419814 0.0349151 0.0282425 0.0220856 0.0165371 0.0116826 0.00759734 0.00434454 0.00197468 0.000523296 5.1928e-27 0 0.000962305 0.00385018 0.00860551 0.0151403 0.0233434 0.0330819 0.0441991 0.0565193 0.069849 0.0839789 0.098687 0.113742 0.128914 0.143959 0.158636 0.172713 0.185969 0.198192 0.209186 0.218773 0.226799 0.233127 0.237654 0.240269 0.24112 0.240063 0.2373 0.232743 0.226393 0.21837 0.208802 0.197843 0.185665 0.172412 0.158218 0.143416 0.128324 0.113153 0.0981396 0.0834895 0.0694232 0.0561773 0.0439492 0.0329092 0.0232485 0.0151198 0.0086481 0.00393289 0.00104687 1.03037e-26 0 0.00141587 0.00565307 0.0126299 0.022224 0.0342723 0.048577 0.0649078 0.0830091 0.1026 0.123376 0.145013 0.167174 0.189525 0.211708 0.233367 0.254167 0.273782 0.291901 0.30824 0.322537 0.334566 0.344129 0.351067 0.355246 0.356608 0.355382 0.35148 0.34482 0.335507 0.323697 0.309572 0.293361 0.275322 0.255736 0.234921 0.213188 0.190783 0.168072 0.145614 0.123803 0.102918 0.0832505 0.0651245 0.0488105 0.0344695 0.0224135 0.0128164 0.00582555 0.00154832 1.52521e-26 0 0.0018484 0.00736378 0.016448 0.0289397 0.044627 0.063244 0.0844968 0.108062 0.133578 0.160647 0.188849 0.217747 0.246912 0.275876 0.304172 0.331367 0.357037 0.380779 0.402223 0.421029 0.436901 0.449584 0.45887 0.464595 0.466495 0.465126 0.460201 0.451596 0.439516 0.424151 0.405739 0.384567 0.360971 0.335331 0.308064 0.279595 0.250365 0.220789 0.191301 0.162483 0.134944 0.109092 0.0852966 0.0638896 0.0451494 0.0293544 0.0167772 0.00761787 0.00201733 1.99596e-26 0 0.00225013 0.0089567 0.0200005 0.0351802 0.0542428 0.0768477 0.102665 0.131319 0.162361 0.1953 0.229628 0.264811 0.300334 0.335622 0.370108 0.403268 0.434587 0.463579 0.489792 0.512816 0.532289 0.547902 0.559403 0.566597 0.569055 0.567578 0.561729 0.551347 0.536733 0.518097 0.495719 0.469949 0.441192 0.409905 0.376601 0.341817 0.306111 0.270036 0.234134 0.198923 0.16508 0.133327 0.104165 0.0779926 0.055142 0.0358355 0.0204721 0.00928598 0.00244955 2.43519e-26 0 0.0026157 0.0104072 0.0232356 0.0408426 0.0629556 0.0892163 0.119225 0.152535 0.188626 0.226929 0.266843 0.307747 0.349048 0.390077 0.430182 0.468761 0.505221 0.538998 0.569569 0.596456 0.619238 0.63755 0.651097 0.659651 0.662672 0.661136 0.654481 0.642519 0.625613 0.604023 0.578066 0.548126 0.514682 0.478261 0.439449 0.398883 0.357228 0.315139 0.273313 0.232347 0.192842 0.155637 0.121486 0.0908994 0.0642366 0.0417533 0.0238456 0.0108066 0.00284104 2.83593e-26 0 0.00294001 0.0116925 0.0260846 0.0458644 0.0707015 0.100222 0.133981 0.171444 0.212004 0.255014 0.299806 0.345696 0.39204 0.438098 0.48314 0.526497 0.567507 0.605546 0.640025 0.670394 0.696177 0.716964 0.732408 0.742242 0.745839 0.744329 0.737037 0.723739 0.704838 0.680633 0.651504 0.617882 0.580281 0.539304 0.495605 0.449891 0.402922 0.355448 0.308286 0.262159 0.217683 0.17565 0.136999 0.10242 0.0723207 0.0470129 0.0268436 0.0121564 0.00318665 3.19189e-26 0 0.00321804 0.0127909 0.0285314 0.0501682 0.0773588 0.1097 0.146656 0.187598 0.23187 0.278793 0.327664 0.377746 0.428363 0.478697 0.527932 0.57536 0.620271 0.661986 0.699859 0.733288 0.76174 0.784757 0.801948 0.813002 0.817204 0.815818 0.808103 0.79376 0.773233 0.746829 0.714979 0.678186 0.637007 0.592099 0.544187 0.494039 0.442477 0.390337 0.33854 0.287912 0.239151 0.193002 0.150459 0.112391 0.0792994 0.0515383 0.0294197 0.0133141 0.0034813 3.49749e-26 0 0.00344535 0.0136876 0.0305298 0.0536882 0.0828179 0.117418 0.156874 0.200549 0.247775 0.297844 0.350007 0.403471 0.457518 0.51131 0.56398 0.61477 0.662916 0.707686 0.748388 0.784378 0.81508 0.839991 0.858688 0.870837 0.87565 0.874432 0.866479 0.851392 0.829652 0.801557 0.767542 0.728158 0.684029 0.635867 0.58446 0.530639 0.475279 0.419264 0.363605 0.309228 0.256903 0.207382 0.161628 0.12065 0.0850686 0.0552638 0.0315347 0.0142616 0.00372051 3.74797e-26 0 0.00361815 0.0143699 0.0320482 0.0563713 0.0869324 0.123159 0.164451 0.210161 0.259595 0.312005 0.366613 0.422616 0.479252 0.535647 0.590916 0.644264 0.694888 0.742018 0.784922 0.822925 0.855414 0.881854 0.901795 0.914881 0.92028 0.919247 0.911194 0.895632 0.873071 0.843808 0.808262 0.766974 0.720612 0.669947 0.615824 0.559137 0.500816 0.441785 0.383111 0.325793 0.270675 0.218543 0.170311 0.127064 0.0895392 0.0581334 0.0331564 0.0149844 0.00390064 3.93944e-26 0 0.00373395 0.0148252 0.0330622 0.0581453 0.0895981 0.126868 0.169345 0.216365 0.267207 0.321112 0.377292 0.434933 0.493254 0.55136 0.608342 0.663388 0.715676 0.764411 0.808843 0.848273 0.882063 0.909653 0.930568 0.944427 0.950386 0.949579 0.941596 0.925814 0.902796 0.872851 0.836385 0.793917 0.746119 0.693781 0.63779 0.5791 0.518698 0.457549 0.396744 0.337346 0.280263 0.226306 0.176359 0.131527 0.092635 0.0601027 0.0342602 0.0154713 0.00401894 4.06893e-26 0 0.00378952 0.0150409 0.0335198 0.0588838 0.0906787 0.128345 0.171262 0.218754 0.270101 0.324555 0.381327 0.439595 0.498573 0.557374 0.615078 0.670881 0.723959 0.77352 0.818806 0.859111 0.893785 0.92225 0.944012 0.958673 0.96542 0.964965 0.957254 0.941545 0.918448 0.888278 0.851467 0.808526 0.760088 0.706943 0.64999 0.590214 0.528651 0.466309 0.4043 0.343725 0.28553 0.230555 0.179668 0.133956 0.0942971 0.06114 0.0348292 0.015715 0.00407367 4.13446e-26 0 0.00378808 0.015033 0.0334714 0.0587825 0.090499 0.128061 0.170846 0.218184 0.26937 0.323661 0.380271 0.438379 0.497203 0.555875 0.613482 0.669234 0.722315 0.771933 0.817333 0.857798 0.892675 0.921374 0.943391 0.958315 0.965351 0.96504 0.957518 0.941975 0.91902 0.888963 0.852244 0.809415 0.761087 0.708003 0.651053 0.591218 0.529544 0.467068 0.404915 0.344193 0.285875 0.230832 0.179893 0.134107 0.0943697 0.0611566 0.0348209 0.0157001 0.00406211 4.13502e-26 0 0.0037259 0.0147726 0.0328707 0.0577096 0.0888111 0.125624 0.167534 0.213894 0.264021 0.317187 0.372623 0.429534 0.487156 0.544675 0.601204 0.655981 0.708209 0.757113 0.80195 0.842012 0.876646 0.905265 0.927361 0.94252 0.950022 0.95016 0.943531 0.928861 0.906811 0.877662 0.841828 0.799871 0.752432 0.700216 0.64408 0.584999 0.524014 0.462177 0.400621 0.340458 0.282691 0.228209 0.177807 0.132502 0.093182 0.0603386 0.0343237 0.0154576 0.00398978 4.07064e-26 0 0.00360491 0.0142675 0.0317513 0.0557169 0.0857027 0.12117 0.161531 0.206167 0.254422 0.305594 0.358942 0.413716 0.469199 0.524652 0.579214 0.632158 0.682719 0.730152 0.773736 0.812786 0.846663 0.874783 0.896645 0.911835 0.919734 0.920257 0.914468 0.900787 0.879898 0.852054 0.817639 0.777178 0.731333 0.680807 0.626394 0.569039 0.509761 0.449601 0.389674 0.331089 0.274842 0.221815 0.172781 0.128715 0.0904695 0.0585404 0.0332722 0.0149668 0.00385392 3.94234e-26 0 0.00342637 0.0135389 0.0301276 0.0528352 0.0812202 0.114772 0.152935 0.195129 0.240723 0.28905 0.339427 0.391176 0.44364 0.496158 0.54789 0.598157 0.64624 0.69144 0.733082 0.770517 0.803134 0.830367 0.851714 0.866754 0.874993 0.875924 0.871119 0.858691 0.839346 0.813293 0.780876 0.742577 0.699034 0.650957 0.599103 0.544358 0.487703 0.430147 0.372768 0.316658 0.262782 0.212006 0.165085 0.122932 0.0863544 0.055834 0.0317034 0.0142426 0.0036581 3.75217e-26 0 0.00319183 0.0126029 0.028024 0.0491072 0.0754345 0.106532 0.141887 0.180948 0.223118 0.267792 0.314378 0.362285 0.410911 0.459652 0.507708 0.55447 0.599297 0.641545 0.680594 0.71584 0.746707 0.77266 0.793213 0.807953 0.816513 0.817899 0.814208 0.803262 0.78579 0.761971 0.732098 0.696599 0.656055 0.611165 0.56266 0.511356 0.45819 0.404123 0.35017 0.297389 0.2467 0.198942 0.154845 0.11525 0.080903 0.0522631 0.0296429 0.0132973 0.00340578 3.5031e-26 0 0.00290192 0.011468 0.0254734 0.0445908 0.0684382 0.0965843 0.128555 0.163826 0.201861 0.242154 0.284215 0.327538 0.371543 0.415672 0.45924 0.501723 0.54258 0.581241 0.61713 0.649681 0.678352 0.702648 0.722121 0.736383 0.745092 0.747309 0.74458 0.735426 0.720123 0.698921 0.672071 0.639948 0.603062 0.562065 0.51765 0.470569 0.421698 0.371941 0.322237 0.273589 0.226856 0.182838 0.142228 0.105791 0.074203 0.0478849 0.0271242 0.0121466 0.00310138 3.19901e-26 0 0.0025674 0.0101505 0.0225147 0.0393592 0.0603434 0.0850849 0.113135 0.144019 0.177295 0.212566 0.249449 0.287464 0.326065 0.364781 0.403092 0.440607 0.476887 0.51142 0.543664 0.573086 0.599183 0.621498 0.639629 0.653222 0.661944 0.665112 0.663377 0.656238 0.643394 0.625169 0.601772 0.573529 0.540889 0.504429 0.464787 0.422649 0.378814 0.334116 0.289413 0.245634 0.203566 0.163952 0.127437 0.0947088 0.066362 0.0427698 0.0241883 0.0108096 0.00274997 2.84466e-26 0 0.00219658 0.00867077 0.0191934 0.0334951 0.0512824 0.072205 0.0958573 0.12184 0.149818 0.179507 0.210581 0.242575 0.275024 0.307588 0.339972 0.371932 0.403112 0.433053 0.461246 0.487192 0.510411 0.530477 0.547037 0.559791 0.56844 0.572547 0.571921 0.566931 0.556797 0.541864 0.522302 0.498391 0.470513 0.439162 0.404905 0.368356 0.330219 0.291254 0.252223 0.213969 0.177198 0.142583 0.110709 0.082181 0.0575054 0.0369999 0.0208825 0.00930829 0.00235801 2.4457e-26 0 0.0017915 0.00705198 0.0155628 0.0270914 0.0413901 0.0581372 0.0769927 0.097643 0.119868 0.143475 0.168139 0.193455 0.219091 0.244893 0.270846 0.296819 0.322434 0.34731 0.371044 0.393206 0.413327 0.430974 0.445802 0.45757 0.466066 0.471047 0.471704 0.468896 0.461674 0.45029 0.43489 0.415705 0.393036 0.367289 0.338948 0.308542 0.276679 0.24403 0.211258 0.179099 0.148172 0.119071 0.0923104 0.0684077 0.0477742 0.0306666 0.0172596 0.00766677 0.00193148 2.0085e-26 0 0.00135782 0.00531952 0.0116812 0.0202531 0.0308128 0.0431011 0.0568422 0.0718126 0.0879102 0.104984 0.122715 0.140801 0.159136 0.177856 0.197066 0.216593 0.236168 0.255517 0.274398 0.292425 0.309224 0.324382 0.33745 0.348171 0.356447 0.362078 0.364488 0.363596 0.359499 0.351862 0.340889 0.326756 0.309671 0.289938 0.267951 0.244148 0.219038 0.193186 0.167163 0.141572 0.116948 0.0937872 0.0725329 0.0536074 0.0373231 0.0238717 0.0133795 0.00591428 0.00147923 1.54001e-26 0 0.000902408 0.00349958 0.00760972 0.013081 0.0197194 0.027335 0.0357213 0.0447546 0.054424 0.0645849 0.0749728 0.0854972 0.0963468 0.107851 0.120052 0.132763 0.14583 0.1592 0.17277 0.186338 0.199585 0.21209 0.223425 0.233205 0.241316 0.247592 0.251586 0.252967 0.251815 0.248112 0.241774 0.232943 0.221727 0.208324 0.19303 0.176188 0.158202 0.139527 0.120629 0.101979 0.0840144 0.0671314 0.0516895 0.0380143 0.0263182 0.0167241 0.00930412 0.00407783 0.00100889 1.04766e-26 0 0.000432455 0.00162114 0.00341347 0.00567835 0.00827994 0.0110848 0.0139563 0.0168777 0.0198937 0.022873 0.0256998 0.0286016 0.0319755 0.0361276 0.0410612 0.0467035 0.0530648 0.0601768 0.0680544 0.0767135 0.0860042 0.0956093 0.105144 0.114075 0.12241 0.12954 0.134868 0.138462 0.140429 0.140636 0.139107 0.135748 0.13059 0.123731 0.115363 0.10573 0.0951285 0.0838978 0.0723882 0.0609431 0.0498897 0.039522 0.0301087 0.0218743 0.0149341 0.00933823 0.00509975 0.00218829 0.00052736 5.39658e-27 0 -4.58484e-05 -0.000286589 -0.000845658 -0.00183767 -0.00333307 -0.00540808 -0.00812621 -0.0114085 -0.0151791 -0.0194921 -0.0242015 -0.0288326 -0.0329362 -0.0362707 -0.0387509 -0.0402694 -0.04067 -0.039837 -0.0376903 -0.0341618 -0.0292582 -0.0230425 -0.0157692 -0.00767481 0.00137418 0.0091354 0.0156813 0.0216143 0.0268689 0.0312263 0.0345246 0.0367082 0.0376995 0.0374922 0.036174 0.0338858 0.0308133 0.0271752 0.0231994 0.019108 0.0151087 0.0113923 0.00812974 0.00544283 0.00335227 0.00183295 0.00083629 0.000278754 4.43203e-05 2.53145e-28 0 -0.000532936 -0.00219878 -0.00510868 -0.0093403 -0.0149148 -0.0218545 -0.0301406 -0.0396155 -0.0501638 -0.0616696 -0.0737281 -0.0857474 -0.0972972 -0.108121 -0.117978 -0.126583 -0.133654 -0.138973 -0.142371 -0.143736 -0.143096 -0.140307 -0.135328 -0.128203 -0.120039 -0.112118 -0.104078 -0.0956323 -0.0870658 -0.0786199 -0.0704662 -0.0627491 -0.0556141 -0.04916 -0.0434082 -0.0383218 -0.0338281 -0.029834 -0.0262371 -0.0229368 -0.0198398 -0.0168621 -0.0139369 -0.0110463 -0.00826281 -0.0056885 -0.00343171 -0.00162877 -0.000434891 -4.88618e-27 0 -0.00102264 -0.00409134 -0.00931969 -0.0167306 -0.02631 -0.0380356 -0.0518009 -0.0673714 -0.0845542 -0.103013 -0.122168 -0.141411 -0.160288 -0.178463 -0.195532 -0.211048 -0.224619 -0.235918 -0.244695 -0.250767 -0.253867 -0.254212 -0.251533 -0.246207 -0.239264 -0.231184 -0.221722 -0.210983 -0.19927 -0.186844 -0.173941 -0.160796 -0.147635 -0.134638 -0.121928 -0.109575 -0.0976185 -0.0860936 -0.0750227 -0.0644243 -0.0543169 -0.0447241 -0.0356873 -0.027293 -0.0197052 -0.0130967 -0.00763406 -0.00350711 -0.000906334 -1.00738e-26 0 -0.00150088 -0.00593541 -0.0134023 -0.0238852 -0.0373408 -0.0537049 -0.0727816 -0.0942474 -0.117785 -0.142863 -0.168807 -0.195023 -0.22098 -0.246236 -0.270241 -0.29241 -0.312241 -0.329309 -0.343277 -0.353885 -0.360932 -0.364093 -0.364086 -0.360716 -0.354676 -0.346348 -0.335627 -0.322759 -0.308065 -0.291822 -0.274357 -0.255991 -0.237004 -0.217664 -0.198198 -0.17879 -0.159588 -0.14075 -0.122419 -0.104727 -0.0878022 -0.0717756 -0.0567972 -0.0430575 -0.0308058 -0.0202805 -0.0117072 -0.00532772 -0.00136256 -1.51381e-26 0 -0.00195821 -0.00769956 -0.0172892 -0.0306907 -0.047837 -0.0686264 -0.0927676 -0.119822 -0.149323 -0.180609 -0.212971 -0.245806 -0.278473 -0.310419 -0.340976 -0.369453 -0.395237 -0.417819 -0.436778 -0.451789 -0.462619 -0.469097 -0.47118 -0.4698 -0.464539 -0.455957 -0.444108 -0.429281 -0.411789 -0.391952 -0.370185 -0.346859 -0.322335 -0.296967 -0.271076 -0.244917 -0.218797 -0.192975 -0.167706 -0.143231 -0.119783 -0.0976007 -0.0769381 -0.0580923 -0.0413912 -0.0271293 -0.0155897 -0.0070622 -0.00179673 -1.98835e-26 0 -0.00239056 -0.0093479 -0.0209178 -0.0370408 -0.0576364 -0.0825767 -0.111453 -0.143683 -0.178675 -0.215696 -0.254017 -0.293007 -0.331904 -0.370036 -0.406668 -0.441019 -0.472374 -0.500139 -0.523817 -0.543027 -0.557497 -0.56708 -0.571426 -0.571548 -0.567131 -0.55837 -0.545522 -0.528896 -0.508821 -0.485678 -0.459919 -0.431979 -0.402297 -0.3713 -0.339394 -0.306937 -0.274322 -0.241952 -0.210171 -0.179325 -0.149751 -0.121786 -0.0957916 -0.0721648 -0.051298 -0.0335365 -0.0192204 -0.00868356 -0.00220345 -2.42783e-26 0 -0.00278963 -0.0108552 -0.0242304 -0.0428347 -0.066588 -0.0953445 -0.128542 -0.165435 -0.205371 -0.247588 -0.291326 -0.335897 -0.380445 -0.424189 -0.466331 -0.506024 -0.542474 -0.575006 -0.603045 -0.626154 -0.64402 -0.65644 -0.663096 -0.664355 -0.660836 -0.651976 -0.63827 -0.620037 -0.597647 -0.571524 -0.542149 -0.510023 -0.475643 -0.439503 -0.402093 -0.363868 -0.325292 -0.286909 -0.249142 -0.212437 -0.177226 -0.143952 -0.11307 -0.0850608 -0.0603727 -0.0394014 -0.0225416 -0.0101661 -0.00257681 -2.82874e-26 0 -0.00314532 -0.0121971 -0.0271737 -0.0479797 -0.0745525 -0.10673 -0.143751 -0.184719 -0.228975 -0.275774 -0.3243 -0.373797 -0.423339 -0.472046 -0.519058 -0.563482 -0.604468 -0.641267 -0.673235 -0.699869 -0.7208 -0.735773 -0.74454 -0.746791 -0.744161 -0.735278 -0.72087 -0.70127 -0.676874 -0.648142 -0.615596 -0.579777 -0.541226 -0.500506 -0.458188 -0.414814 -0.370905 -0.327133 -0.284001 -0.242041 -0.201783 -0.16376 -0.128507 -0.0965764 -0.0684702 -0.0446312 -0.0255009 -0.0114856 -0.00290891 -3.18514e-26 0 -0.00345305 -0.0133518 -0.0296998 -0.0523928 -0.0814023 -0.116544 -0.156816 -0.201225 -0.249127 -0.299799 -0.352397 -0.406095 -0.459896 -0.512842 -0.564016 -0.612489 -0.657371 -0.697853 -0.733234 -0.762943 -0.786552 -0.803762 -0.814393 -0.817597 -0.815761 -0.806955 -0.792019 -0.771318 -0.745262 -0.714347 -0.679121 -0.640147 -0.598013 -0.55335 -0.506794 -0.458961 -0.410442 -0.361986 -0.314197 -0.267677 -0.22304 -0.180901 -0.141861 -0.10653 -0.0754621 -0.0491435 -0.0280529 -0.012623 -0.00319337 -3.49159e-26 0 -0.00370803 -0.0143006 -0.0317675 -0.0560013 -0.0870214 -0.124607 -0.167503 -0.214676 -0.265526 -0.319319 -0.375189 -0.432259 -0.489504 -0.545899 -0.600469 -0.652247 -0.700313 -0.743822 -0.782026 -0.814304 -0.840172 -0.859289 -0.87144 -0.875807 -0.874425 -0.86588 -0.850605 -0.829082 -0.801744 -0.769104 -0.731717 -0.690171 -0.645104 -0.597194 -0.547137 -0.49561 -0.443265 -0.390915 -0.339253 -0.288942 -0.240665 -0.195106 -0.15292 -0.114764 -0.081239 -0.0528675 -0.0301575 -0.0135624 -0.00342629 -3.74338e-26 0 -0.00390608 -0.0150277 -0.0333426 -0.058744 -0.0913068 -0.13076 -0.175609 -0.224842 -0.277895 -0.334033 -0.39235 -0.45193 -0.511721 -0.570668 -0.627794 -0.682089 -0.732588 -0.778419 -0.818812 -0.853109 -0.880785 -0.901456 -0.914877 -0.920272 -0.919318 -0.911112 -0.895692 -0.873649 -0.845425 -0.811531 -0.77253 -0.729043 -0.681741 -0.631336 -0.57857 -0.524176 -0.468856 -0.413468 -0.358779 -0.305504 -0.254382 -0.206152 -0.161509 -0.121148 -0.0857105 -0.0557448 -0.0317805 -0.014285 -0.00360456 -3.93628e-26 0 -0.00404391 -0.0155211 -0.034399 -0.060572 -0.0941722 -0.134879 -0.180978 -0.231531 -0.286007 -0.343658 -0.40357 -0.464793 -0.52624 -0.586822 -0.645576 -0.70151 -0.753645 -0.801072 -0.842991 -0.878726 -0.907726 -0.929576 -0.944 -0.950268 -0.949718 -0.941918 -0.926549 -0.904293 -0.875583 -0.840925 -0.800895 -0.756134 -0.707332 -0.655227 -0.600596 -0.544213 -0.486816 -0.429294 -0.372472 -0.317104 -0.263978 -0.21387 -0.167497 -0.125582 -0.0888065 -0.05773 -0.0328968 -0.0147773 -0.00372574 -4.06705e-26 0 -0.00411823 -0.0157667 -0.034901 -0.0614118 -0.0954793 -0.136759 -0.183344 -0.234366 -0.289356 -0.347557 -0.408065 -0.469935 -0.532063 -0.593314 -0.652725 -0.709338 -0.762219 -0.81047 -0.853275 -0.889936 -0.919884 -0.942679 -0.958017 -0.965228 -0.965138 -0.957798 -0.942674 -0.920509 -0.89172 -0.856809 -0.816358 -0.771012 -0.721473 -0.668496 -0.612877 -0.555412 -0.496868 -0.438147 -0.380117 -0.323563 -0.269306 -0.218138 -0.170785 -0.127997 -0.0904777 -0.058791 -0.0334871 -0.0150328 -0.00378817 -4.13364e-26 0 -0.00413188 -0.0157846 -0.0349114 -0.0613998 -0.0954709 -0.136818 -0.183373 -0.234285 -0.289141 -0.347202 -0.407578 -0.469346 -0.531411 -0.592614 -0.65195 -0.708462 -0.76126 -0.80948 -0.852325 -0.889089 -0.919187 -0.942165 -0.957707 -0.965154 -0.965248 -0.958214 -0.943365 -0.921459 -0.892901 -0.858185 -0.817883 -0.772635 -0.723141 -0.670162 -0.614488 -0.55692 -0.498239 -0.439349 -0.381137 -0.324403 -0.269977 -0.218642 -0.171142 -0.128241 -0.0906236 -0.0588678 -0.0335202 -0.0150418 -0.00378966 -4.13502e-26 0 -0.00407925 -0.0155434 -0.0343398 -0.0603418 -0.0937816 -0.134464 -0.180213 -0.230157 -0.283946 -0.340869 -0.400057 -0.460622 -0.521543 -0.581697 -0.640054 -0.695644 -0.747574 -0.795033 -0.837269 -0.873601 -0.903452 -0.926365 -0.942012 -0.949782 -0.950283 -0.94405 -0.930006 -0.908947 -0.881257 -0.847412 -0.80797 -0.76356 -0.714875 -0.662673 -0.607738 -0.550865 -0.492848 -0.434585 -0.376979 -0.32083 -0.266961 -0.216131 -0.169118 -0.126686 -0.0894802 -0.0580941 -0.0330617 -0.014828 -0.00373392 -4.07103e-26 0 -0.00396328 -0.0150593 -0.0332321 -0.0583334 -0.09057 -0.129932 -0.174219 -0.222453 -0.274367 -0.329296 -0.386402 -0.44484 -0.503642 -0.561743 -0.618194 -0.67203 -0.722345 -0.768343 -0.809305 -0.844598 -0.87368 -0.896107 -0.911548 -0.919432 -0.920211 -0.914563 -0.901306 -0.881223 -0.854677 -0.82212 -0.784084 -0.741178 -0.694073 -0.643506 -0.590237 -0.535046 -0.478717 -0.422128 -0.366167 -0.311609 -0.259244 -0.20983 -0.164148 -0.122932 -0.0867997 -0.0563365 -0.0320533 -0.0143716 -0.00361767 -3.94271e-26 0 -0.00378574 -0.0143403 -0.0316069 -0.0554133 -0.0858972 -0.123271 -0.165472 -0.211285 -0.260545 -0.312652 -0.366818 -0.422243 -0.478025 -0.533168 -0.586781 -0.637965 -0.685881 -0.729732 -0.768804 -0.802509 -0.830337 -0.85187 -0.8668 -0.874597 -0.875598 -0.870551 -0.858236 -0.839399 -0.814374 -