<?xml version="1.0"?>
<VTKFile type="PolyData">
	<PolyData>
		<Piece NumberOfPoints="2601" NumberOfPolys="2500">
			<Points>
				<DataArray type="Float32" NumberOfComponents="3" format="ascii">
 0 0 0 0.02 0 0 0.04 0 0 0.06 0 0 0.08 0 0 0.1 0 0 0.12 0 0 0.14 0 0 0.16 0 0 0.18 0 0 0.2 0 0 0.22 0 0 0.24 0 0 0.26 0 0 0.28 0 0 0.3 0 0 0.32 0 0 0.34 0 0 0.36 0 0 0.38 0 0 0.4 0 0 0.42 0 0 0.44 0 0 0.46 0 0 0.48 0 0 0.5 0 0 0.52 0 0 0.54 0 0 0.56 0 0 0.58 0 0 0.6 0 0 0.62 0 0 0.64 0 0 0.66 0 0 0.68 0 0 0.7 0 0 0.72 0 0 0.74 0 0 0.76 0 0 0.78 0 0 0.8 0 0 0.82 0 0 0.84 0 0 0.86 0 0 0.88 0 0 0.9 0 0 0.92 0 0 0.94 0 0 0.96 0 0 0.98 0 0 1 0 0 0 0.02 0 0.02 0.02 0 0.04 0.02 0 0.06 0.02 0 0.08 0.02 0 0.1 0.02 0 0.12 0.02 0 0.14 0.02 0 0.16 0.02 0 0.18 0.02 0 0.2 0.02 0 0.22 0.02 0 0.24 0.02 0 0.26 0.02 0 0.28 0.02 0 0.3 0.02 0 0.32 0.02 0 0.34 0.02 0 0.36 0.02 0 0.38 0.02 0 0.4 0.02 0 0.42 0.02 0 0.44 0.02 0 0.46 0.02 0 0.48 0.02 0 0.5 0.02 0 0.52 0.02 0 0.54 0.02 0 0.56 0.02 0 0.58 0.02 0 0.6 0.02 0 0.62 0.02 0 0.64 0.02 0 0.66 0.02 0 0.68 0.02 0 0.7 0.02 0 0.72 0.02 0 0.74 0.02 0 0.76 0.02 0 0.78 0.02 0 0.8 0.02 0 0.82 0.02 0 0.84 0.02 0 0.86 0.02 0 0.88 0.02 0 0.9 0.02 0 0.92 0.02 0 0.94 0.02 0 0.96 0.02 0 0.98 0.02 0 1 0.02 0 0 0.04 0 0.02 0.04 0 0.04 0.04 0 0.06 0.04 0 0.08 0.04 0 0.1 0.04 0 0.12 0.04 0 0.14 0.04 0 0.16 0.04 0 0.18 0.04 0 0.2 0.04 0 0.22 0.04 0 0.24 0.04 0 0.26 0.04 0 0.28 0.04 0 0.3 0.04 0 0.32 0.04 0 0.34 0.04 0 0.36 0.04 0 0.38 0.04 0 0.4 0.04 0 0.42 0.04 0 0.44 0.04 0 0.46 0.04 0 0.48 0.04 0 0.5 0.04 0 0.52 0.04 0 0.54 0.04 0 0.56 0.04 0 0.58 0.04 0 0.6 0.04 0 0.62 0.04 0 0.64 0.04 0 0.66 0.04 0 0.68 0.04 0 0.7 0.04 0 0.72 0.04 0 0.74 0.04 0 0.76 0.04 0 0.78 0.04 0 0.8 0.04 0 0.82 0.04 0 0.84 0.04 0 0.86 0.04 0 0.88 0.04 0 0.9 0.04 0 0.92 0.04 0 0.94 0.04 0 0.96 0.04 0 0.98 0.04 0 1 0.04 0 0 0.06 0 0.02 0.06 0 0.04 0.06 0 0.06 0.06 0 0.08 0.06 0 0.1 0.06 0 0.12 0.06 0 0.14 0.06 0 0.16 0.06 0 0.18 0.06 0 0.2 0.06 0 0.22 0.06 0 0.24 0.06 0 0.26 0.06 0 0.28 0.06 0 0.3 0.06 0 0.32 0.06 0 0.34 0.06 0 0.36 0.06 0 0.38 0.06 0 0.4 0.06 0 0.42 0.06 0 0.44 0.06 0 0.46 0.06 0 0.48 0.06 0 0.5 0.06 0 0.52 0.06 0 0.54 0.06 0 0.56 0.06 0 0.58 0.06 0 0.6 0.06 0 0.62 0.06 0 0.64 0.06 0 0.66 0.06 0 0.68 0.06 0 0.7 0.06 0 0.72 0.06 0 0.74 0.06 0 0.76 0.06 0 0.78 0.06 0 0.8 0.06 0 0.82 0.06 0 0.84 0.06 0 0.86 0.06 0 0.88 0.06 0 0.9 0.06 0 0.92 0.06 0 0.94 0.06 0 0.96 0.06 0 0.98 0.06 0 1 0.06 0 0 0.08 0 0.02 0.08 0 0.04 0.08 0 0.06 0.08 0 0.08 0.08 0 0.1 0.08 0 0.12 0.08 0 0.14 0.08 0 0.16 0.08 0 0.18 0.08 0 0.2 0.08 0 0.22 0.08 0 0.24 0.08 0 0.26 0.08 0 0.28 0.08 0 0.3 0.08 0 0.32 0.08 0 0.34 0.08 0 0.36 0.08 0 0.38 0.08 0 0.4 0.08 0 0.42 0.08 0 0.44 0.08 0 0.46 0.08 0 0.48 0.08 0 0.5 0.08 0 0.52 0.08 0 0.54 0.08 0 0.56 0.08 0 0.58 0.08 0 0.6 0.08 0 0.62 0.08 0 0.64 0.08 0 0.66 0.08 0 0.68 0.08 0 0.7 0.08 0 0.72 0.08 0 0.74 0.08 0 0.76 0.08 0 0.78 0.08 0 0.8 0.08 0 0.82 0.08 0 0.84 0.08 0 0.86 0.08 0 0.88 0.08 0 0.9 0.08 0 0.92 0.08 0 0.94 0.08 0 0.96 0.08 0 0.98 0.08 0 1 0.08 0 0 0.1 0 0.02 0.1 0 0.04 0.1 0 0.06 0.1 0 0.08 0.1 0 0.1 0.1 0 0.12 0.1 0 0.14 0.1 0 0.16 0.1 0 0.18 0.1 0 0.2 0.1 0 0.22 0.1 0 0.24 0.1 0 0.26 0.1 0 0.28 0.1 0 0.3 0.1 0 0.32 0.1 0 0.34 0.1 0 0.36 0.1 0 0.38 0.1 0 0.4 0.1 0 0.42 0.1 0 0.44 0.1 0 0.46 0.1 0 0.48 0.1 0 0.5 0.1 0 0.52 0.1 0 0.54 0.1 0 0.56 0.1 0 0.58 0.1 0 0.6 0.1 0 0.62 0.1 0 0.64 0.1 0 0.66 0.1 0 0.68 0.1 0 0.7 0.1 0 0.72 0.1 0 0.74 0.1 0 0.76 0.1 0 0.78 0.1 0 0.8 0.1 0 0.82 0.1 0 0.84 0.1 0 0.86 0.1 0 0.88 0.1 0 0.9 0.1 0 0.92 0.1 0 0.94 0.1 0 0.96 0.1 0 0.98 0.1 0 1 0.1 0 0 0.12 0 0.02 0.12 0 0.04 0.12 0 0.06 0.12 0 0.08 0.12 0 0.1 0.12 0 0.12 0.12 0 0.14 0.12 0 0.16 0.12 0 0.18 0.12 0 0.2 0.12 0 0.22 0.12 0 0.24 0.12 0 0.26 0.12 0 0.28 0.12 0 0.3 0.12 0 0.32 0.12 0 0.34 0.12 0 0.36 0.12 0 0.38 0.12 0 0.4 0.12 0 0.42 0.12 0 0.44 0.12 0 0.46 0.12 0 0.48 0.12 0 0.5 0.12 0 0.52 0.12 0 0.54 0.12 0 0.56 0.12 0 0.58 0.12 0 0.6 0.12 0 0.62 0.12 0 0.64 0.12 0 0.66 0.12 0 0.68 0.12 0 0.7 0.12 0 0.72 0.12 0 0.74 0.12 0 0.76 0.12 0 0.78 0.12 0 0.8 0.12 0 0.82 0.12 0 0.84 0.12 0 0.86 0.12 0 0.88 0.12 0 0.9 0.12 0 0.92 0.12 0 0.94 0.12 0 0.96 0.12 0 0.98 0.12 0 1 0.12 0 0 0.14 0 0.02 0.14 0 0.04 0.14 0 0.06 0.14 0 0.08 0.14 0 0.1 0.14 0 0.12 0.14 0 0.14 0.14 0 0.16 0.14 0 0.18 0.14 0 0.2 0.14 0 0.22 0.14 0 0.24 0.14 0 0.26 0.14 0 0.28 0.14 0 0.3 0.14 0 0.32 0.14 0 0.34 0.14 0 0.36 0.14 0 0.38 0.14 0 0.4 0.14 0 0.42 0.14 0 0.44 0.14 0 0.46 0.14 0 0.48 0.14 0 0.5 0.14 0 0.52 0.14 0 0.54 0.14 0 0.56 0.14 0 0.58 0.14 0 0.6 0.14 0 0.62 0.14 0 0.64 0.14 0 0.66 0.14 0 0.68 0.14 0 0.7 0.14 0 0.72 0.14 0 0.74 0.14 0 0.76 0.14 0 0.78 0.14 0 0.8 0.14 0 0.82 0.14 0 0.84 0.14 0 0.86 0.14 0 0.88 0.14 0 0.9 0.14 0 0.92 0.14 0 0.94 0.14 0 0.96 0.14 0 0.98 0.14 0 1 0.14 0 0 0.16 0 0.02 0.16 0 0.04 0.16 0 0.06 0.16 0 0.08 0.16 0 0.1 0.16 0 0.12 0.16 0 0.14 0.16 0 0.16 0.16 0 0.18 0.16 0 0.2 0.16 0 0.22 0.16 0 0.24 0.16 0 0.26 0.16 0 0.28 0.16 0 0.3 0.16 0 0.32 0.16 0 0.34 0.16 0 0.36 0.16 0 0.38 0.16 0 0.4 0.16 0 0.42 0.16 0 0.44 0.16 0 0.46 0.16 0 0.48 0.16 0 0.5 0.16 0 0.52 0.16 0 0.54 0.16 0 0.56 0.16 0 0.58 0.16 0 0.6 0.16 0 0.62 0.16 0 0.64 0.16 0 0.66 0.16 0 0.68 0.16 0 0.7 0.16 0 0.72 0.16 0 0.74 0.16 0 0.76 0.16 0 0.78 0.16 0 0.8 0.16 0 0.82 0.16 0 0.84 0.16 0 0.86 0.16 0 0.88 0.16 0 0.9 0.16 0 0.92 0.16 0 0.94 0.16 0 0.96 0.16 0 0.98 0.16 0 1 0.16 0 0 0.18 0 0.02 0.18 0 0.04 0.18 0 0.06 0.18 0 0.08 0.18 0 0.1 0.18 0 0.12 0.18 0 0.14 0.18 0 0.16 0.18 0 0.18 0.18 0 0.2 0.18 0 0.22 0.18 0 0.24 0.18 0 0.26 0.18 0 0.28 0.18 0 0.3 0.18 0 0.32 0.18 0 0.34 0.18 0 0.36 0.18 0 0.38 0.18 0 0.4 0.18 0 0.42 0.18 0 0.44 0.18 0 0.46 0.18 0 0.48 0.18 0 0.5 0.18 0 0.52 0.18 0 0.54 0.18 0 0.56 0.18 0 0.58 0.18 0 0.6 0.18 0 0.62 0.18 0 0.64 0.18 0 0.66 0.18 0 0.68 0.18 0 0.7 0.18 0 0.72 0.18 0 0.74 0.18 0 0.76 0.18 0 0.78 0.18 0 0.8 0.18 0 0.82 0.18 0 0.84 0.18 0 0.86 0.18 0 0.88 0.18 0 0.9 0.18 0 0.92 0.18 0 0.94 0.18 0 0.96 0.18 0 0.98 0.18 0 1 0.18 0 0 0.2 0 0.02 0.2 0 0.04 0.2 0 0.06 0.2 0 0.08 0.2 0 0.1 0.2 0 0.12 0.2 0 0.14 0.2 0 0.16 0.2 0 0.18 0.2 0 0.2 0.2 0 0.22 0.2 0 0.24 0.2 0 0.26 0.2 0 0.28 0.2 0 0.3 0.2 0 0.32 0.2 0 0.34 0.2 0 0.36 0.2 0 0.38 0.2 0 0.4 0.2 0 0.42 0.2 0 0.44 0.2 0 0.46 0.2 0 0.48 0.2 0 0.5 0.2 0 0.52 0.2 0 0.54 0.2 0 0.56 0.2 0 0.58 0.2 0 0.6 0.2 0 0.62 0.2 0 0.64 0.2 0 0.66 0.2 0 0.68 0.2 0 0.7 0.2 0 0.72 0.2 0 0.74 0.2 0 0.76 0.2 0 0.78 0.2 0 0.8 0.2 0 0.82 0.2 0 0.84 0.2 0 0.86 0.2 0 0.88 0.2 0 0.9 0.2 0 0.92 0.2 0 0.94 0.2 0 0.96 0.2 0 0.98 0.2 0 1 0.2 0 0 0.22 0 0.02 0.22 0 0.04 0.22 0 0.06 0.22 0 0.08 0.22 0 0.1 0.22 0 0.12 0.22 0 0.14 0.22 0 0.16 0.22 0 0.18 0.22 0 0.2 0.22 0 0.22 0.22 0 0.24 0.22 0 0.26 0.22 0 0.28 0.22 0 0.3 0.22 0 0.32 0.22 0 0.34 0.22 0 0.36 0.22 0 0.38 0.22 0 0.4 0.22 0 0.42 0.22 0 0.44 0.22 0 0.46 0.22 0 0.48 0.22 0 0.5 0.22 0 0.52 0.22 0 0.54 0.22 0 0.56 0.22 0 0.58 0.22 0 0.6 0.22 0 0.62 0.22 0 0.64 0.22 0 0.66 0.22 0 0.68 0.22 0 0.7 0.22 0 0.72 0.22 0 0.74 0.22 0 0.76 0.22 0 0.78 0.22 0 0.8 0.22 0 0.82 0.22 0 0.84 0.22 0 0.86 0.22 0 0.88 0.22 0 0.9 0.22 0 0.92 0.22 0 0.94 0.22 0 0.96 0.22 0 0.98 0.22 0 1 0.22 0 0 0.24 0 0.02 0.24 0 0.04 0.24 0 0.06 0.24 0 0.08 0.24 0 0.1 0.24 0 0.12 0.24 0 0.14 0.24 0 0.16 0.24 0 0.18 0.24 0 0.2 0.24 0 0.22 0.24 0 0.24 0.24 0 0.26 0.24 0 0.28 0.24 0 0.3 0.24 0 0.32 0.24 0 0.34 0.24 0 0.36 0.24 0 0.38 0.24 0 0.4 0.24 0 0.42 0.24 0 0.44 0.24 0 0.46 0.24 0 0.48 0.24 0 0.5 0.24 0 0.52 0.24 0 0.54 0.24 0 0.56 0.24 0 0.58 0.24 0 0.6 0.24 0 0.62 0.24 0 0.64 0.24 0 0.66 0.24 0 0.68 0.24 0 0.7 0.24 0 0.72 0.24 0 0.74 0.24 0 0.76 0.24 0 0.78 0.24 0 0.8 0.24 0 0.82 0.24 0 0.84 0.24 0 0.86 0.24 0 0.88 0.24 0 0.9 0.24 0 0.92 0.24 0 0.94 0.24 0 0.96 0.24 0 0.98 0.24 0 1 0.24 0 0 0.26 0 0.02 0.26 0 0.04 0.26 0 0.06 0.26 0 0.08 0.26 0 0.1 0.26 0 0.12 0.26 0 0.14 0.26 0 0.16 0.26 0 0.18 0.26 0 0.2 0.26 0 0.22 0.26 0 0.24 0.26 0 0.26 0.26 0 0.28 0.26 0 0.3 0.26 0 0.32 0.26 0 0.34 0.26 0 0.36 0.26 0 0.38 0.26 0 0.4 0.26 0 0.42 0.26 0 0.44 0.26 0 0.46 0.26 0 0.48 0.26 0 0.5 0.26 0 0.52 0.26 0 0.54 0.26 0 0.56 0.26 0 0.58 0.26 0 0.6 0.26 0 0.62 0.26 0 0.64 0.26 0 0.66 0.26 0 0.68 0.26 0 0.7 0.26 0 0.72 0.26 0 0.74 0.26 0 0.76 0.26 0 0.78 0.26 0 0.8 0.26 0 0.82 0.26 0 0.84 0.26 0 0.86 0.26 0 0.88 0.26 0 0.9 0.26 0 0.92 0.26 0 0.94 0.26 0 0.96 0.26 0 0.98 0.26 0 1 0.26 0 0 0.28 0 0.02 0.28 0 0.04 0.28 0 0.06 0.28 0 0.08 0.28 0 0.1 0.28 0 0.12 0.28 0 0.14 0.28 0 0.16 0.28 0 0.18 0.28 0 0.2 0.28 0 0.22 0.28 0 0.24 0.28 0 0.26 0.28 0 0.28 0.28 0 0.3 0.28 0 0.32 0.28 0 0.34 0.28 0 0.36 0.28 0 0.38 0.28 0 0.4 0.28 0 0.42 0.28 0 0.44 0.28 0 0.46 0.28 0 0.48 0.28 0 0.5 0.28 0 0.52 0.28 0 0.54 0.28 0 0.56 0.28 0 0.58 0.28 0 0.6 0.28 0 0.62 0.28 0 0.64 0.28 0 0.66 0.28 0 0.68 0.28 0 0.7 0.28 0 0.72 0.28 0 0.74 0.28 0 0.76 0.28 0 0.78 0.28 0 0.8 0.28 0 0.82 0.28 0 0.84 0.28 0 0.86 0.28 0 0.88 0.28 0 0.9 0.28 0 0.92 0.28 0 0.94 0.28 0 0.96 0.28 0 0.98 0.28 0 1 0.28 0 0 0.3 0 0.02 0.3 0 0.04 0.3 0 0.06 0.3 0 0.08 0.3 0 0.1 0.3 0 0.12 0.3 0 0.14 0.3 0 0.16 0.3 0 0.18 0.3 0 0.2 0.3 0 0.22 0.3 0 0.24 0.3 0 0.26 0.3 0 0.28 0.3 0 0.3 0.3 0 0.32 0.3 0 0.34 0.3 0 0.36 0.3 0 0.38 0.3 0 0.4 0.3 0 0.42 0.3 0 0.44 0.3 0 0.46 0.3 0 0.48 0.3 0 0.5 0.3 0 0.52 0.3 0 0.54 0.3 0 0.56 0.3 0 0.58 0.3 0 0.6 0.3 0 0.62 0.3 0 0.64 0.3 0 0.66 0.3 0 0.68 0.3 0 0.7 0.3 0 0.72 0.3 0 0.74 0.3 0 0.76 0.3 0 0.78 0.3 0 0.8 0.3 0 0.82 0.3 0 0.84 0.3 0 0.86 0.3 0 0.88 0.3 0 0.9 0.3 0 0.92 0.3 0 0.94 0.3 0 0.96 0.3 0 0.98 0.3 0 1 0.3 0 0 0.32 0 0.02 0.32 0 0.04 0.32 0 0.06 0.32 0 0.08 0.32 0 0.1 0.32 0 0.12 0.32 0 0.14 0.32 0 0.16 0.32 0 0.18 0.32 0 0.2 0.32 0 0.22 0.32 0 0.24 0.32 0 0.26 0.32 0 0.28 0.32 0 0.3 0.32 0 0.32 0.32 0 0.34 0.32 0 0.36 0.32 0 0.38 0.32 0 0.4 0.32 0 0.42 0.32 0 0.44 0.32 0 0.46 0.32 0 0.48 0.32 0 0.5 0.32 0 0.52 0.32 0 0.54 0.32 0 0.56 0.32 0 0.58 0.32 0 0.6 0.32 0 0.62 0.32 0 0.64 0.32 0 0.66 0.32 0 0.68 0.32 0 0.7 0.32 0 0.72 0.32 0 0.74 0.32 0 0.76 0.32 0 0.78 0.32 0 0.8 0.32 0 0.82 0.32 0 0.84 0.32 0 0.86 0.32 0 0.88 0.32 0 0.9 0.32 0 0.92 0.32 0 0.94 0.
[...]
			<PointData Scalars="VitesseX">
				<DataArray Name="VitesseX" type="Float32" format="ascii">
 0 0 0 0 0 0 0 0 0 0 0 0 0 0 0 0 0 0 0 0 0 0 0 0 0 0 0 0 0 0 0 0 0 0 0 0 0 0 0 0 0 0 0 0 0 0 0 0 0 0 -0 0 -0.00101938 -0.00269224 -0.00519027 -0.00847453 -0.0124939 -0.0171857 -0.0224773 -0.0282876 -0.034528 -0.041103 -0.0479107 -0.0548631 -0.0618503 -0.0687464 -0.0754474 -0.0818495 -0.0878492 -0.0933491 -0.098269 -0.102541 -0.106108 -0.108896 -0.110867 -0.111856 -0.119045 -0.123893 -0.126642 -0.126574 -0.124453 -0.120691 -0.115689 -0.109903 -0.103313 -0.0959924 -0.0882458 -0.0800753 -0.0714715 -0.0629208 -0.0553114 -0.0468028 -0.0384188 -0.0314811 -0.0249278 -0.0188649 -0.0134302 -0.00883342 -0.00509106 -0.00231041 -0.000587528 -7.93629e-27 0 -0.00199834 -0.00530316 -0.010248 -0.0167567 -0.0247284 -0.0340394 -0.0445462 -0.0560891 -0.0684926 -0.0815654 -0.0951023 -0.108925 -0.122815 -0.136526 -0.149851 -0.162581 -0.174506 -0.185433 -0.195204 -0.20368 -0.210722 -0.216135 -0.21996 -0.221935 -0.228245 -0.233621 -0.233813 -0.230788 -0.225219 -0.217789 -0.208835 -0.198245 -0.18627 -0.173304 -0.159436 -0.144907 -0.129967 -0.114849 -0.0997068 -0.0846494 -0.069367 -0.0567102 -0.0445034 -0.0335738 -0.0237922 -0.0155375 -0.00889909 -0.00401368 -0.00101616 -1.24806e-26 0 -0.00291955 -0.00778818 -0.015088 -0.0247081 -0.0365002 -0.0502816 -0.0658412 -0.0829445 -0.101335 -0.120731 -0.140828 -0.161356 -0.181983 -0.202328 -0.22206 -0.240864 -0.258447 -0.274546 -0.28876 -0.301251 -0.31179 -0.319882 -0.325587 -0.328526 -0.333303 -0.33672 -0.335549 -0.330592 -0.322458 -0.311693 -0.298656 -0.283391 -0.266192 -0.247515 -0.227601 -0.206768 -0.185357 -0.163731 -0.142241 -0.121216 -0.100934 -0.0814815 -0.0635518 -0.0478477 -0.0337885 -0.0219948 -0.0125645 -0.0056533 -0.00142873 -1.68365e-26 0 -0.00376696 -0.0101057 -0.0196309 -0.0322019 -0.0476316 -0.065687 -0.0860927 -0.108533 -0.132653 -0.158064 -0.184359 -0.211185 -0.238122 -0.264695 -0.290478 -0.314783 -0.337851 -0.359318 -0.378169 -0.394457 -0.408053 -0.418651 -0.42611 -0.42993 -0.433498 -0.435357 -0.432629 -0.425577 -0.414779 -0.400688 -0.383682 -0.363909 -0.341698 -0.31758 -0.291926 -0.265121 -0.237592 -0.209803 -0.182202 -0.15521 -0.129256 -0.104735 -0.0818055 -0.0609794 -0.0432451 -0.0281064 -0.0160306 -0.00720409 -0.00181881 -2.09371e-26 0 -0.00453163 -0.012238 -0.0238484 -0.0391861 -0.0580113 -0.0800274 -0.104892 -0.132227 -0.161615 -0.192602 -0.2247 -0.257488 -0.290429 -0.322579 -0.354327 -0.384454 -0.412647 -0.43847 -0.461545 -0.481511 -0.498063 -0.510936 -0.519958 -0.52456 -0.527315 -0.527724 -0.523311 -0.514141 -0.500691 -0.483374 -0.462587 -0.438548 -0.411628 -0.382435 -0.351441 -0.319092 -0.285892 -0.252401 -0.21915 -0.186637 -0.155376 -0.125862 -0.0985377 -0.0733087 -0.0518844 -0.0337732 -0.0192444 -0.00864221 -0.00218031 -2.47187e-26 0 -0.00521253 -0.0141444 -0.0276186 -0.0454292 -0.0673053 -0.0929145 -0.121851 -0.153664 -0.187864 -0.223927 -0.261337 -0.299173 -0.337898 -0.376244 -0.413092 -0.448165 -0.480996 -0.511074 -0.537929 -0.561139 -0.58035 -0.595257 -0.605659 -0.610932 -0.613099 -0.612181 -0.606089 -0.594841 -0.57883 -0.558461 -0.534147 -0.506165 -0.47493 -0.441107 -0.405253 -0.367871 -0.329534 -0.290885 -0.252531 -0.215035 -0.178981 -0.144944 -0.113457 -0.0849855 -0.0599072 -0.0389357 -0.0221572 -0.00994547 -0.00250761 -2.81224e-26 0 -0.00575752 -0.0157197 -0.0307913 -0.0507572 -0.0753312 -0.104121 -0.136721 -0.172583 -0.211143 -0.251506 -0.294097 -0.337957 -0.38137 -0.424065 -0.465492 -0.505005 -0.541981 -0.575832 -0.606026 -0.632089 -0.653623 -0.670293 -0.68187 -0.687689 -0.689399 -0.687292 -0.679591 -0.666363 -0.647963 -0.624792 -0.597271 -0.56574 -0.530655 -0.492719 -0.452558 -0.410731 -0.367867 -0.324681 -0.281845 -0.239975 -0.199719 -0.161711 -0.126553 -0.0948017 -0.0669323 -0.0433849 -0.0247246 -0.0110937 -0.0027957 -3.10956e-26 0 -0.00616862 -0.0169887 -0.0334218 -0.0552499 -0.0821499 -0.113697 -0.14944 -0.188921 -0.231937 -0.277227 -0.323582 -0.370914 -0.418435 -0.465296 -0.510763 -0.554109 -0.594644 -0.631724 -0.664762 -0.693241 -0.716727 -0.73486 -0.747391 -0.753628 -0.754958 -0.751791 -0.742604 -0.727567 -0.707012 -0.681349 -0.65101 -0.616386 -0.577973 -0.536501 -0.492651 -0.447032 -0.400319 -0.353284 -0.306652 -0.261084 -0.217276 -0.175911 -0.137647 -0.103095 -0.0728029 -0.0472073 -0.0269175 -0.0120692 -0.0030402 -3.35929e-26 0 -0.00645871 -0.0179619 -0.0355019 -0.0588733 -0.0876477 -0.121534 -0.159394 -0.201906 -0.249113 -0.297423 -0.347215 -0.398042 -0.44908 -0.499397 -0.548196 -0.594693 -0.638145 -0.677856 -0.713199 -0.743622 -0.768661 -0.787939 -0.801193 -0.807716 -0.808708 -0.804619 -0.794115 -0.777488 -0.755065 -0.727272 -0.694555 -0.657343 -0.616177 -0.5718 -0.524936 -0.476234 -0.426406 -0.376265 -0.32658 -0.278043 -0.231386 -0.187328 -0.146571 -0.109769 -0.0775102 -0.0502946 -0.0286471 -0.0128568 -0.00323742 -3.55766e-26 0 -0.00663604 -0.0186442 -0.0370735 -0.0616428 -0.0919813 -0.126974 -0.167554 -0.214008 -0.262362 -0.313025 -0.365493 -0.419052 -0.47282 -0.525811 -0.577179 -0.626095 -0.671773 -0.71348 -0.750557 -0.782424 -0.808599 -0.828692 -0.842431 -0.849106 -0.849786 -0.844914 -0.833294 -0.815338 -0.791381 -0.761864 -0.727246 -0.687996 -0.6447 -0.598095 -0.548928 -0.497899 -0.445734 -0.393278 -0.341328 -0.290595 -0.241834 -0.19579 -0.15319 -0.114721 -0.0810033 -0.0525794 -0.029929 -0.0134443 -0.00338443 -3.70171e-26 0 -0.00673372 -0.0191119 -0.0380544 -0.063292 -0.0948132 -0.132462 -0.175148 -0.221589 -0.27134 -0.323794 -0.378134 -0.433596 -0.489258 -0.544095 -0.597229 -0.647797 -0.69498 -0.738022 -0.776238 -0.809034 -0.835912 -0.856481 -0.870463 -0.877154 -0.877534 -0.872013 -0.859501 -0.84051 -0.815388 -0.784588 -0.748585 -0.707881 -0.663109 -0.614982 -0.564254 -0.511687 -0.458002 -0.404057 -0.350665 -0.298544 -0.24846 -0.201163 -0.157399 -0.117875 -0.0832307 -0.0540285 -0.0307722 -0.0138226 -0.00347901 -3.78926e-26 0 -0.00671492 -0.0192276 -0.0384279 -0.0640735 -0.0963052 -0.135025 -0.178288 -0.225399 -0.276066 -0.32951 -0.384875 -0.441376 -0.498065 -0.553895 -0.607967 -0.659398 -0.707352 -0.751055 -0.789811 -0.823016 -0.850168 -0.870874 -0.884857 -0.891429 -0.891462 -0.885126 -0.871697 -0.851779 -0.825722 -0.793985 -0.757059 -0.715478 -0.669886 -0.620978 -0.569509 -0.516265 -0.461963 -0.407456 -0.353554 -0.300972 -0.250467 -0.202787 -0.158669 -0.11882 -0.0838913 -0.054452 -0.031034 -0.0139372 -0.00350754 -3.81894e-26 0 -0.00662721 -0.0190797 -0.0383458 -0.0643647 -0.0970009 -0.13531 -0.178163 -0.225258 -0.275938 -0.329401 -0.38479 -0.441315 -0.498026 -0.553879 -0.607971 -0.659419 -0.707385 -0.751095 -0.789853 -0.823057 -0.850204 -0.870904 -0.884878 -0.891452 -0.891461 -0.884849 -0.871125 -0.85092 -0.824587 -0.792594 -0.755444 -0.713686 -0.667982 -0.619023 -0.567546 -0.514335 -0.460131 -0.405771 -0.352053 -0.29968 -0.249395 -0.201927 -0.158005 -0.118329 -0.0835479 -0.0542307 -0.0308668 -0.0138753 -0.00349518 -3.79018e-26 0 -0.00646907 -0.0187366 -0.0375903 -0.0629695 -0.0954126 -0.133439 -0.175692 -0.222221 -0.272314 -0.325165 -0.379918 -0.435787 -0.491822 -0.546985 -0.600376 -0.651116 -0.698369 -0.741368 -0.779422 -0.811931 -0.838403 -0.858454 -0.871819 -0.877867 -0.877439 -0.87056 -0.856655 -0.836379 -0.810097 -0.778278 -0.741441 -0.700154 -0.655075 -0.606887 -0.556266 -0.503946 -0.450706 -0.397383 -0.344742 -0.293452 -0.244226 -0.197765 -0.154774 -0.11593 -0.0818682 -0.0531489 -0.0302517 -0.0136065 -0.00342804 -3.70338e-26 0 -0.00624057 -0.0180721 -0.0362945 -0.0610161 -0.0925467 -0.129395 -0.170455 -0.215694 -0.26441 -0.315814 -0.369067 -0.423395 -0.477865 -0.531462 -0.583304 -0.632528 -0.678316 -0.719917 -0.756656 -0.787955 -0.813323 -0.832392 -0.844962 -0.85044 -0.849614 -0.842532 -0.828621 -0.808557 -0.782716 -0.751562 -0.71562 -0.675467 -0.631729 -0.585069 -0.536138 -0.485626 -0.434203 -0.3827 -0.331956 -0.282563 -0.235179 -0.190465 -0.149094 -0.111703 -0.0789022 -0.0512355 -0.0291691 -0.013118 -0.00330761 -3.55999e-26 0 -0.00590926 -0.0171315 -0.0345876 -0.0584582 -0.0883823 -0.123362 -0.162608 -0.205873 -0.252478 -0.301661 -0.35261 -0.404578 -0.456657 -0.507872 -0.557371 -0.604317 -0.647923 -0.68746 -0.72222 -0.751701 -0.77552 -0.793332 -0.80491 -0.809689 -0.808405 -0.801164 -0.787433 -0.767879 -0.742876 -0.712873 -0.678386 -0.639981 -0.598262 -0.553853 -0.50739 -0.459515 -0.41082 -0.362011 -0.3139 -0.267175 -0.222387 -0.180135 -0.141046 -0.105708 -0.0746931 -0.0485184 -0.0276308 -0.0124171 -0.00313525 -3.36252e-26 0 -0.00547277 -0.0159614 -0.0324233 -0.0549121 -0.0827674 -0.11543 -0.152264 -0.192905 -0.236699 -0.282924 -0.330808 -0.37963 -0.428523 -0.476554 -0.5229 -0.566763 -0.607406 -0.644186 -0.676459 -0.703783 -0.725764 -0.742055 -0.752387 -0.756271 -0.754459 -0.747129 -0.733783 -0.715038 -0.691258 -0.662875 -0.63038 -0.594308 -0.555229 -0.513743 -0.470462 -0.425963 -0.380796 -0.335557 -0.290901 -0.247525 -0.206046 -0.16693 -0.130751 -0.0980343 -0.0693033 -0.0450381 -0.0256599 -0.0115231 -0.00291292 -3.11434e-26 0 -0.00496301 -0.0145692 -0.0297288 -0.0503771 -0.0758117 -0.105661 -0.13952 -0.176922 -0.217254 -0.259833 -0.303933 -0.34887 -0.393828 -0.437939 -0.480442 -0.520616 -0.557773 -0.591311 -0.620678 -0.645425 -0.66513 -0.679475 -0.688245 -0.691047 -0.688582 -0.681307 -0.66855 -0.650887 -0.628677 -0.602339 -0.572345 -0.539177 -0.503342 -0.465405 -0.42594 -0.385502 -0.344568 -0.303643 -0.263243 -0.22395 -0.186404 -0.151055 -0.118367 -0.0887989 -0.062814 -0.040847 -0.0232861 -0.0104619 -0.00264689 -2.81953e-26 0 -0.00439554 -0.0129548 -0.0265111 -0.0449815 -0.0677358 -0.0943973 -0.124805 -0.158436 -0.194726 -0.23305 -0.272736 -0.313146 -0.353533 -0.393108 -0.43118 -0.467091 -0.500215 -0.529983 -0.555885 -0.577453 -0.594381 -0.60643 -0.613426 -0.61504 -0.611926 -0.604684 -0.592651 -0.576305 -0.555989 -0.532105 -0.505098 -0.475387 -0.443398 -0.40962 -0.374564 -0.338768 -0.302697 -0.266744 -0.231298 -0.196791 -0.163769 -0.132754 -0.104082 -0.0781428 -0.0553241 -0.0360086 -0.0205454 -0.00923777 -0.00233668 -2.483e-26 0 -0.00376613 -0.0111379 -0.0228527 -0.0388701 -0.058685 -0.0818417 -0.108391 -0.137789 -0.169533 -0.203065 -0.237778 -0.273089 -0.308327 -0.342781 -0.375821 -0.406828 -0.435255 -0.460615 -0.482477 -0.500503 -0.514462 -0.524092 -0.529197 -0.529493 -0.525711 -0.518446 -0.507274 -0.492485 -0.474389 -0.453345 -0.429738 -0.403917 -0.376275 -0.347215 -0.317152 -0.286546 -0.255847 -0.225421 -0.195523 -0.166411 -0.138516 -0.11231 -0.0881174 -0.0662304 -0.0469486 -0.030597 -0.0174798 -0.00786837 -0.00198868 -2.11026e-26 0 -0.00307877 -0.0091567 -0.0188586 -0.0322044 -0.0488004 -0.0680442 -0.0903365 -0.115075 -0.14182 -0.170079 -0.199314 -0.228996 -0.258535 -0.287309 -0.314767 -0.34038 -0.363694 -0.384291 -0.401814 -0.416163 -0.426986 -0.434005 -0.437103 -0.435896 -0.431304 -0.424036 -0.413947 -0.400958 -0.385348 -0.367423 -0.347501 -0.325915 -0.303025 -0.279138 -0.254564 -0.22966 -0.204797 -0.180336 -0.156456 -0.133256 -0.110999 -0.0900425 -0.0707198 -0.0532462 -0.037817 -0.0246956 -0.0141362 -0.00637482 -0.00161234 -1.70583e-26 0 -0.00234911 -0.00705693 -0.0146258 -0.0251347 -0.0383202 -0.0533914 -0.0711086 -0.0908333 -0.112193 -0.13477 -0.158106 -0.181731 -0.205148 -0.227828 -0.24931 -0.269162 -0.287018 -0.302525 -0.315516 -0.326003 -0.33345 -0.337695 -0.338746 -0.335932 -0.330553 -0.322872 -0.313998 -0.302967 -0.290052 -0.275513 -0.259613 -0.242616 -0.22479 -0.206406 -0.187727 -0.168957 -0.150355 -0.132228 -0.114722 -0.0978313 -0.081611 -0.0662916 -0.0521612 -0.0393917 -0.0280708 -0.0183953 -0.0105662 -0.00477996 -0.0012122 -1.27105e-26 0 -0.00160003 -0.00489326 -0.0102478 -0.017778 -0.027403 -0.0382526 -0.0511815 -0.06563 -0.0813071 -0.0978797 -0.114974 -0.1322 -0.149158 -0.165423 -0.180621 -0.194416 -0.206526 -0.216672 -0.224907 -0.231071 -0.234766 -0.236252 -0.235402 -0.231266 -0.225493 -0.216501 -0.208935 -0.199961 -0.189892 -0.178928 -0.167273 -0.155123 -0.142671 -0.130104 -0.117606 -0.105316 -0.0933437 -0.0818598 -0.0709962 -0.0606893 -0.0508096 -0.0414227 -0.032734 -0.0248832 -0.0178624 -0.0117951 -0.00682581 -0.00310927 -0.000793291 -8.11434e-27 0 -0.000861111 -0.00273409 -0.00583877 -0.0102892 -0.0161935 -0.0228103 -0.0308032 -0.0397924 -0.0495753 -0.0599074 -0.0705062 -0.0810743 -0.0913162 -0.100911 -0.109579 -0.117079 -0.123219 -0.127836 -0.130977 -0.132511 -0.132383 -0.130933 -0.128071 -0.123325 -0.119068 -0.106496 -0.100251 -0.0933884 -0.0862811 -0.0790356 -0.0717863 -0.0646701 -0.0578052 -0.0512932 -0.0452225 -0.0396568 -0.0345875 -0.0300056 -0.0259812 -0.0224225 -0.019071 -0.0158128 -0.0127423 -0.00994416 -0.00734573 -0.0049917 -0.00296743 -0.00138378 -0.00035955 -3.27423e-27 0 -0.000203034 -0.000719255 -0.00163833 -0.00303492 -0.00510802 -0.00745555 -0.0104032 -0.013771 -0.0174702 -0.0213647 -0.0252893 -0.0290306 -0.0323883 -0.0351541 -0.0371471 -0.0382199 -0.0382779 -0.0372934 -0.0351684 -0.0320238 -0.0279695 -0.0232275 -0.0179023 -0.0122578 -0.014308 0.00577524 0.0108379 0.0153959 0.0193902 0.0228137 0.0255563 0.0275222 0.0286617 0.0289616 0.0284357 0.0271272 0.0251365 0.0226348 0.019684 0.0164155 0.0131562 0.0101896 0.00754643 0.00520322 0.00331471 0.00189658 0.000931325 0.000355309 7.7808e-05 9.00807e-28 0 0.000281469 0.00108056 0.00231983 0.00394445 0.00574827 0.00778404 0.00987614 0.0121725 0.0146 0.0171986 0.020037 0.0232025 0.0267952 0.0309085 0.0356218 0.0409875 0.0470147 0.0536175 0.0609688 0.0687281 0.0767895 0.0849782 0.0930218 0.100759 0.108524 0.116902 0.122343 0.124297 0.125087 0.124647 0.122849 0.119634 0.115022 0.109086 0.101942 0.0937466 0.0847044 0.0750929 0.0651561 0.0550977 0.0452798 0.036124 0.0278012 0.0203576 0.0139989 0.00883483 0.00489668 0.00216777 0.000586283 5.31069e-27 0 0.000727396 0.00284062 0.00622934 0.0107809 0.0163157 0.0227892 0.0299568 0.0378645 0.0463546 0.0553769 0.0648946 0.0748854 0.0853378 0.0962317 0.107539 0.119215 0.131186 0.143319 0.155707 0.167882 0.179853 0.191356 0.201998 0.211776 0.219991 0.225986 0.230779 0.23097 0.228863 0.224704 0.218453 0.210135 0.199853 0.187772 0.174112 0.159139 0.143168 0.126564 0.109747 0.0930277 0.076803 0.0615902 0.0477146 0.0353065 0.0245624 0.0157227 0.00886595 0.00401267 0.00112202 9.87089e-27 0 0.00114463 0.00451274 0.00998215 0.0174009 0.026585 0.0372934 0.0493676 0.0627554 0.0771716 0.0924745 0.108522 0.125182 0.142336 0.15985 0.177586 0.1954 0.213133 0.230595 0.247812 0.264198 0.279807 0.294294 0.307228 0.31847 0.326931 0.332236 0.335523 0.333992 0.329102 0.321351 0.310788 0.297522 0.281746 0.263716 0.243752 0.22223 0.199574 0.176234 0.15276 0.129608 0.107224 0.0861874 0.0669711 0.0497941 0.0348326 0.0224405 0.0127484 0.00582416 0.00165 1.43502e-26 0 0.00155164 0.00613237 0.0136032 0.0237895 0.0364891 0.0513366 0.0681442 0.0866479 0.106761 0.128082 0.150385 0.17343 0.197 0.220847 0.244725 0.268391 0.2916 0.314102 0.33586 0.356178 0.375094 0.392249 0.407195 0.419646 0.42851 0.433384 0.435106 0.431732 0.424158 0.412957 0.398273 0.380296 0.359296 0.33562 0.309681 0.28196 0.25298 0.223287 0.193492 0.164247 0.13605 0.109518 0.0852553 0.0635646 0.0446197 0.0288626 0.0164712 0.00756067 0.00215459 1.86357e-26 0 0.00193045 0.00764582 0.0169939 0.0297721 0.045743 0.0645367 0.0858311 0.109036 0.134559 0.16155 0.189747 0.218809 0.248423 0.278234 0.307886 0.337042 0.365369 0.392547 0.418497 0.442415 0.464287 0.48379 0.500467 0.513971 0.523242 0.527781 0.52803 0.522649 0.512467 0.497996 0.479443 0.457064 0.431201 0.402279 0.370802 0.337339 0.302508 0.266938 0.231287 0.196399 0.162825 0.131209 0.102271 0.0763953 0.0537559 0.0348707 0.0199663 0.00919605 0.0026257 2.26471e-26 0 0.00228102 0.00904374 0.0201242 0.0352941 0.0542706 0.0766938 0.102187 0.130023 0.160198 0.192408 0.226039 0.260649 0.295834 0.331139 0.366103 0.400296 0.433302 0.464728 0.494456 0.52159 0.546054 0.567577 0.585701 0.600079 0.609671 0.613923 0.61273 0.605274 0.592603 0.575097 0.552989 0.526587 0.496297 0.462619 0.42613 0.387479 0.347363 0.306487 0.265551 0.225564 0.18713 0.150914 0.117738 0.0880721 0.0620857 0.0403602 0.0231696 0.0107018 0.00306062 2.63149e-26 0 0.00259486 0.0102967 0.0229324 0.0402537 0.061945 0.0876321 0.116847 0.148894 0.183287 0.220144 0.258671 0.298277 0.338478 0.378727 0.418462 0.457166 0.494345 0.529536 0.562575 0.592499 0.619171 0.642374 0.66165 0.676681 0.686466 0.690454 0.687689 0.678271 0.66332 0.643067 0.617767 0.587781 0.553572 0.515698 0.474801 0.431594 0.386843 0.341314 0.295748 0.251289 0.208584 0.16833 0.131425 0.0984092 0.0694607 0.0452319 0.026021 0.0120475 0.00345374 2.95754e-26 0 0.00286879 0.0113897 0.0253814 0.0445794 0.0686447 0.0971733 0.12963 0.1655 0.203932 0.244391 0.287156 0.331123 0.375703 0.420265 0.464152 0.506771 0.547553 0.585971 0.621812 0.654068 0.682548 0.707071 0.727193 0.742622 0.752472 0.756151 0.751706 0.740615 0.72363 0.700944 0.672857 0.639774 0.602205 0.560755 0.516113 0.469045 0.420369 0.3709 0.32142 0.273178 0.226858 0.183188 0.14313 0.107272 0.0757835 0.0494089 0.0284641 0.0132049 0.00379585 3.23721e-26 0 0.00309766 0.0123035 0.0274301 0.0481994 0.074251 0.105151 0.140357 0.179358 0.221448 0.265142 0.311074 0.358674 0.406927 0.455103 0.502461 0.548337 0.592098 0.633162 0.671262 0.705368 0.735237 0.760711 0.781359 0.796914 0.806843 0.809813 0.80391 0.791445 0.772731 0.747991 0.717568 0.681911 0.641568 0.597183 0.549488 0.499289 0.447445 0.39481 0.342196 0.29091 0.241672 0.195253 0.152655 0.114508 0.0809635 0.052841 0.030475 0.014156 0.00407431 3.46635e-26 0 0.00327852 0.0130254 0.0290489 0.0510606 0.0786844 0.111462 0.148852 0.190244 0.235116 0.281797 0.330096 0.38051 0.43167 0.482702 0.532792 0.581217 0.62729 0.670381 0.710171 0.745626 0.776452 0.802498 0.823338 0.838862 0.849579 0.85033 0.84342 0.829786 0.809648 0.783273 0.751032 0.713396 0.670941 0.624341 0.574359 0.52183 0.467639 0.412637 0.357741 0.304215 0.252804 0.204351 0.159854 0.119972 0.0849046 0.0554659 0.0320235 0.0148926 0.0042913 3.64153e-26 0 0.00340828 0.0135439 0.0302122 0.053118 0.0818742 0.116009 0.154971 0.198109 0.244825 0.294104 0.34462 0.396403 0.449553 0.502635 0.554673 0.604898 0.65258 0.697051 0.737945 0.774234 0.805579 0.831808 0.852553 0.869105 0.878637 0.877393 0.869731 0.855161 0.833951 0.80639 0.772861 0.733855 0.689967 0.641895 0.590422 0.536391 0.480695 0.424133 0.367807 0.312879 0.26009 0.210368 0.164659 0.123587 0.0875368 0.0572227 0.0330646 0.015396 0.00444677 3.75971e-26 0 0.00348512 0.0138513 0.0309032 0.0543417 0.0837738 0.118719 0.158618 0.202818 0.250647 0.301388 0.353849 0.40672 0.460428 0.514596 0.567764 0.619011 0.667573 0.712758 0.754158 0.790758 0.822174 0.848224 0.870121 0.887397 0.892594 0.890316 0.88188 0.866515 0.844498 0.816121 0.781788 0.742011 0.697406 0.648672 0.596584 0.541976 0.48573 0.42858 0.371785 0.316376 0.263104 0.212976 0.166843 0.125208 0.0887422 0.0580482 0.0335674 0.0156441 0.00452473 3.81894e-26 0 0.00350758 0.0139417 0.0311071 0.0547039 0.0843371 0.119524 0.159699 0.204227 0.252413 0.303501 0.356634 0.410611 0.4645 0.518439 0.571754 0.623202 0.67189 0.717102 0.7584 0.794789 0.826 0.853506 0.875277 0.887919 0.892184 0.88994 0.881293 0.865721 0.843509 0.814968 0.78052 0.74069 0.696092 0.647418 0.595429 0.540949 0.484846 0.427836 0.371232 0.31597 0.262826 0.21286 0.166848 0.125182 0.0887416 0.0580662 0.0335893 0.0156608 0.00453289 3.81832e-26 0 0.00349776 0.0139002 0.0310092 0.0545225 0.0840441 0.119091 0.159102 0.203444 0.251452 0.30235 0.355221 0.409242 0.463102 0.516588 0.56959 0.62055 0.668764 0.713463 0.754073 0.789468 0.818891 0.843529 0.86216 0.874054 0.877824 0.875426 0.866594 0.850957 0.828834 0.800551 0.766533 0.727294 0.68342 0.635584 0.584523 0.531054 0.475939 0.420033 0.364557 0.310336 0.258193 0.209162 0.163961 0.123038 0.087261 0.0571226 0.0330584 0.0154216 0.00446771 3.75781e-26 0 0.00341199 0.0135604 0.0302528 0.0531949 0.0819999 0.116196 0.155236 0.198497 0.245341 0.295044 0.34665 0.399376 0.452547 0.505424 0.556466 0.605078 0.651766 0.694444 0.730358 0.763583 0.793248 0.817199 0.834986 0.846328 0.849642 0.847175 0.838342 0.822971 0.801388 0.773905 0.740909 0.702905 