<?xml version="1.0"?>
<VTKFile type="PolyData">
	<PolyData>
		<Piece NumberOfPoints="2601" NumberOfPolys="2500">
			<Points>
				<DataArray type="Float32" NumberOfComponents="3" format="ascii">
 0 0 0 0.02 0 0 0.04 0 0 0.06 0 0 0.08 0 0 0.1 0 0 0.12 0 0 0.14 0 0 0.16 0 0 0.18 0 0 0.2 0 0 0.22 0 0 0.24 0 0 0.26 0 0 0.28 0 0 0.3 0 0 0.32 0 0 0.34 0 0 0.36 0 0 0.38 0 0 0.4 0 0 0.42 0 0 0.44 0 0 0.46 0 0 0.48 0 0 0.5 0 0 0.52 0 0 0.54 0 0 0.56 0 0 0.58 0 0 0.6 0 0 0.62 0 0 0.64 0 0 0.66 0 0 0.68 0 0 0.7 0 0 0.72 0 0 0.74 0 0 0.76 0 0 0.78 0 0 0.8 0 0 0.82 0 0 0.84 0 0 0.86 0 0 0.88 0 0 0.9 0 0 0.92 0 0 0.94 0 0 0.96 0 0 0.98 0 0 1 0 0 0 0.02 0 0.02 0.02 0 0.04 0.02 0 0.06 0.02 0 0.08 0.02 0 0.1 0.02 0 0.12 0.02 0 0.14 0.02 0 0.16 0.02 0 0.18 0.02 0 0.2 0.02 0 0.22 0.02 0 0.24 0.02 0 0.26 0.02 0 0.28 0.02 0 0.3 0.02 0 0.32 0.02 0 0.34 0.02 0 0.36 0.02 0 0.38 0.02 0 0.4 0.02 0 0.42 0.02 0 0.44 0.02 0 0.46 0.02 0 0.48 0.02 0 0.5 0.02 0 0.52 0.02 0 0.54 0.02 0 0.56 0.02 0 0.58 0.02 0 0.6 0.02 0 0.62 0.02 0 0.64 0.02 0 0.66 0.02 0 0.68 0.02 0 0.7 0.02 0 0.72 0.02 0 0.74 0.02 0 0.76 0.02 0 0.78 0.02 0 0.8 0.02 0 0.82 0.02 0 0.84 0.02 0 0.86 0.02 0 0.88 0.02 0 0.9 0.02 0 0.92 0.02 0 0.94 0.02 0 0.96 0.02 0 0.98 0.02 0 1 0.02 0 0 0.04 0 0.02 0.04 0 0.04 0.04 0 0.06 0.04 0 0.08 0.04 0 0.1 0.04 0 0.12 0.04 0 0.14 0.04 0 0.16 0.04 0 0.18 0.04 0 0.2 0.04 0 0.22 0.04 0 0.24 0.04 0 0.26 0.04 0 0.28 0.04 0 0.3 0.04 0 0.32 0.04 0 0.34 0.04 0 0.36 0.04 0 0.38 0.04 0 0.4 0.04 0 0.42 0.04 0 0.44 0.04 0 0.46 0.04 0 0.48 0.04 0 0.5 0.04 0 0.52 0.04 0 0.54 0.04 0 0.56 0.04 0 0.58 0.04 0 0.6 0.04 0 0.62 0.04 0 0.64 0.04 0 0.66 0.04 0 0.68 0.04 0 0.7 0.04 0 0.72 0.04 0 0.74 0.04 0 0.76 0.04 0 0.78 0.04 0 0.8 0.04 0 0.82 0.04 0 0.84 0.04 0 0.86 0.04 0 0.88 0.04 0 0.9 0.04 0 0.92 0.04 0 0.94 0.04 0 0.96 0.04 0 0.98 0.04 0 1 0.04 0 0 0.06 0 0.02 0.06 0 0.04 0.06 0 0.06 0.06 0 0.08 0.06 0 0.1 0.06 0 0.12 0.06 0 0.14 0.06 0 0.16 0.06 0 0.18 0.06 0 0.2 0.06 0 0.22 0.06 0 0.24 0.06 0 0.26 0.06 0 0.28 0.06 0 0.3 0.06 0 0.32 0.06 0 0.34 0.06 0 0.36 0.06 0 0.38 0.06 0 0.4 0.06 0 0.42 0.06 0 0.44 0.06 0 0.46 0.06 0 0.48 0.06 0 0.5 0.06 0 0.52 0.06 0 0.54 0.06 0 0.56 0.06 0 0.58 0.06 0 0.6 0.06 0 0.62 0.06 0 0.64 0.06 0 0.66 0.06 0 0.68 0.06 0 0.7 0.06 0 0.72 0.06 0 0.74 0.06 0 0.76 0.06 0 0.78 0.06 0 0.8 0.06 0 0.82 0.06 0 0.84 0.06 0 0.86 0.06 0 0.88 0.06 0 0.9 0.06 0 0.92 0.06 0 0.94 0.06 0 0.96 0.06 0 0.98 0.06 0 1 0.06 0 0 0.08 0 0.02 0.08 0 0.04 0.08 0 0.06 0.08 0 0.08 0.08 0 0.1 0.08 0 0.12 0.08 0 0.14 0.08 0 0.16 0.08 0 0.18 0.08 0 0.2 0.08 0 0.22 0.08 0 0.24 0.08 0 0.26 0.08 0 0.28 0.08 0 0.3 0.08 0 0.32 0.08 0 0.34 0.08 0 0.36 0.08 0 0.38 0.08 0 0.4 0.08 0 0.42 0.08 0 0.44 0.08 0 0.46 0.08 0 0.48 0.08 0 0.5 0.08 0 0.52 0.08 0 0.54 0.08 0 0.56 0.08 0 0.58 0.08 0 0.6 0.08 0 0.62 0.08 0 0.64 0.08 0 0.66 0.08 0 0.68 0.08 0 0.7 0.08 0 0.72 0.08 0 0.74 0.08 0 0.76 0.08 0 0.78 0.08 0 0.8 0.08 0 0.82 0.08 0 0.84 0.08 0 0.86 0.08 0 0.88 0.08 0 0.9 0.08 0 0.92 0.08 0 0.94 0.08 0 0.96 0.08 0 0.98 0.08 0 1 0.08 0 0 0.1 0 0.02 0.1 0 0.04 0.1 0 0.06 0.1 0 0.08 0.1 0 0.1 0.1 0 0.12 0.1 0 0.14 0.1 0 0.16 0.1 0 0.18 0.1 0 0.2 0.1 0 0.22 0.1 0 0.24 0.1 0 0.26 0.1 0 0.28 0.1 0 0.3 0.1 0 0.32 0.1 0 0.34 0.1 0 0.36 0.1 0 0.38 0.1 0 0.4 0.1 0 0.42 0.1 0 0.44 0.1 0 0.46 0.1 0 0.48 0.1 0 0.5 0.1 0 0.52 0.1 0 0.54 0.1 0 0.56 0.1 0 0.58 0.1 0 0.6 0.1 0 0.62 0.1 0 0.64 0.1 0 0.66 0.1 0 0.68 0.1 0 0.7 0.1 0 0.72 0.1 0 0.74 0.1 0 0.76 0.1 0 0.78 0.1 0 0.8 0.1 0 0.82 0.1 0 0.84 0.1 0 0.86 0.1 0 0.88 0.1 0 0.9 0.1 0 0.92 0.1 0 0.94 0.1 0 0.96 0.1 0 0.98 0.1 0 1 0.1 0 0 0.12 0 0.02 0.12 0 0.04 0.12 0 0.06 0.12 0 0.08 0.12 0 0.1 0.12 0 0.12 0.12 0 0.14 0.12 0 0.16 0.12 0 0.18 0.12 0 0.2 0.12 0 0.22 0.12 0 0.24 0.12 0 0.26 0.12 0 0.28 0.12 0 0.3 0.12 0 0.32 0.12 0 0.34 0.12 0 0.36 0.12 0 0.38 0.12 0 0.4 0.12 0 0.42 0.12 0 0.44 0.12 0 0.46 0.12 0 0.48 0.12 0 0.5 0.12 0 0.52 0.12 0 0.54 0.12 0 0.56 0.12 0 0.58 0.12 0 0.6 0.12 0 0.62 0.12 0 0.64 0.12 0 0.66 0.12 0 0.68 0.12 0 0.7 0.12 0 0.72 0.12 0 0.74 0.12 0 0.76 0.12 0 0.78 0.12 0 0.8 0.12 0 0.82 0.12 0 0.84 0.12 0 0.86 0.12 0 0.88 0.12 0 0.9 0.12 0 0.92 0.12 0 0.94 0.12 0 0.96 0.12 0 0.98 0.12 0 1 0.12 0 0 0.14 0 0.02 0.14 0 0.04 0.14 0 0.06 0.14 0 0.08 0.14 0 0.1 0.14 0 0.12 0.14 0 0.14 0.14 0 0.16 0.14 0 0.18 0.14 0 0.2 0.14 0 0.22 0.14 0 0.24 0.14 0 0.26 0.14 0 0.28 0.14 0 0.3 0.14 0 0.32 0.14 0 0.34 0.14 0 0.36 0.14 0 0.38 0.14 0 0.4 0.14 0 0.42 0.14 0 0.44 0.14 0 0.46 0.14 0 0.48 0.14 0 0.5 0.14 0 0.52 0.14 0 0.54 0.14 0 0.56 0.14 0 0.58 0.14 0 0.6 0.14 0 0.62 0.14 0 0.64 0.14 0 0.66 0.14 0 0.68 0.14 0 0.7 0.14 0 0.72 0.14 0 0.74 0.14 0 0.76 0.14 0 0.78 0.14 0 0.8 0.14 0 0.82 0.14 0 0.84 0.14 0 0.86 0.14 0 0.88 0.14 0 0.9 0.14 0 0.92 0.14 0 0.94 0.14 0 0.96 0.14 0 0.98 0.14 0 1 0.14 0 0 0.16 0 0.02 0.16 0 0.04 0.16 0 0.06 0.16 0 0.08 0.16 0 0.1 0.16 0 0.12 0.16 0 0.14 0.16 0 0.16 0.16 0 0.18 0.16 0 0.2 0.16 0 0.22 0.16 0 0.24 0.16 0 0.26 0.16 0 0.28 0.16 0 0.3 0.16 0 0.32 0.16 0 0.34 0.16 0 0.36 0.16 0 0.38 0.16 0 0.4 0.16 0 0.42 0.16 0 0.44 0.16 0 0.46 0.16 0 0.48 0.16 0 0.5 0.16 0 0.52 0.16 0 0.54 0.16 0 0.56 0.16 0 0.58 0.16 0 0.6 0.16 0 0.62 0.16 0 0.64 0.16 0 0.66 0.16 0 0.68 0.16 0 0.7 0.16 0 0.72 0.16 0 0.74 0.16 0 0.76 0.16 0 0.78 0.16 0 0.8 0.16 0 0.82 0.16 0 0.84 0.16 0 0.86 0.16 0 0.88 0.16 0 0.9 0.16 0 0.92 0.16 0 0.94 0.16 0 0.96 0.16 0 0.98 0.16 0 1 0.16 0 0 0.18 0 0.02 0.18 0 0.04 0.18 0 0.06 0.18 0 0.08 0.18 0 0.1 0.18 0 0.12 0.18 0 0.14 0.18 0 0.16 0.18 0 0.18 0.18 0 0.2 0.18 0 0.22 0.18 0 0.24 0.18 0 0.26 0.18 0 0.28 0.18 0 0.3 0.18 0 0.32 0.18 0 0.34 0.18 0 0.36 0.18 0 0.38 0.18 0 0.4 0.18 0 0.42 0.18 0 0.44 0.18 0 0.46 0.18 0 0.48 0.18 0 0.5 0.18 0 0.52 0.18 0 0.54 0.18 0 0.56 0.18 0 0.58 0.18 0 0.6 0.18 0 0.62 0.18 0 0.64 0.18 0 0.66 0.18 0 0.68 0.18 0 0.7 0.18 0 0.72 0.18 0 0.74 0.18 0 0.76 0.18 0 0.78 0.18 0 0.8 0.18 0 0.82 0.18 0 0.84 0.18 0 0.86 0.18 0 0.88 0.18 0 0.9 0.18 0 0.92 0.18 0 0.94 0.18 0 0.96 0.18 0 0.98 0.18 0 1 0.18 0 0 0.2 0 0.02 0.2 0 0.04 0.2 0 0.06 0.2 0 0.08 0.2 0 0.1 0.2 0 0.12 0.2 0 0.14 0.2 0 0.16 0.2 0 0.18 0.2 0 0.2 0.2 0 0.22 0.2 0 0.24 0.2 0 0.26 0.2 0 0.28 0.2 0 0.3 0.2 0 0.32 0.2 0 0.34 0.2 0 0.36 0.2 0 0.38 0.2 0 0.4 0.2 0 0.42 0.2 0 0.44 0.2 0 0.46 0.2 0 0.48 0.2 0 0.5 0.2 0 0.52 0.2 0 0.54 0.2 0 0.56 0.2 0 0.58 0.2 0 0.6 0.2 0 0.62 0.2 0 0.64 0.2 0 0.66 0.2 0 0.68 0.2 0 0.7 0.2 0 0.72 0.2 0 0.74 0.2 0 0.76 0.2 0 0.78 0.2 0 0.8 0.2 0 0.82 0.2 0 0.84 0.2 0 0.86 0.2 0 0.88 0.2 0 0.9 0.2 0 0.92 0.2 0 0.94 0.2 0 0.96 0.2 0 0.98 0.2 0 1 0.2 0 0 0.22 0 0.02 0.22 0 0.04 0.22 0 0.06 0.22 0 0.08 0.22 0 0.1 0.22 0 0.12 0.22 0 0.14 0.22 0 0.16 0.22 0 0.18 0.22 0 0.2 0.22 0 0.22 0.22 0 0.24 0.22 0 0.26 0.22 0 0.28 0.22 0 0.3 0.22 0 0.32 0.22 0 0.34 0.22 0 0.36 0.22 0 0.38 0.22 0 0.4 0.22 0 0.42 0.22 0 0.44 0.22 0 0.46 0.22 0 0.48 0.22 0 0.5 0.22 0 0.52 0.22 0 0.54 0.22 0 0.56 0.22 0 0.58 0.22 0 0.6 0.22 0 0.62 0.22 0 0.64 0.22 0 0.66 0.22 0 0.68 0.22 0 0.7 0.22 0 0.72 0.22 0 0.74 0.22 0 0.76 0.22 0 0.78 0.22 0 0.8 0.22 0 0.82 0.22 0 0.84 0.22 0 0.86 0.22 0 0.88 0.22 0 0.9 0.22 0 0.92 0.22 0 0.94 0.22 0 0.96 0.22 0 0.98 0.22 0 1 0.22 0 0 0.24 0 0.02 0.24 0 0.04 0.24 0 0.06 0.24 0 0.08 0.24 0 0.1 0.24 0 0.12 0.24 0 0.14 0.24 0 0.16 0.24 0 0.18 0.24 0 0.2 0.24 0 0.22 0.24 0 0.24 0.24 0 0.26 0.24 0 0.28 0.24 0 0.3 0.24 0 0.32 0.24 0 0.34 0.24 0 0.36 0.24 0 0.38 0.24 0 0.4 0.24 0 0.42 0.24 0 0.44 0.24 0 0.46 0.24 0 0.48 0.24 0 0.5 0.24 0 0.52 0.24 0 0.54 0.24 0 0.56 0.24 0 0.58 0.24 0 0.6 0.24 0 0.62 0.24 0 0.64 0.24 0 0.66 0.24 0 0.68 0.24 0 0.7 0.24 0 0.72 0.24 0 0.74 0.24 0 0.76 0.24 0 0.78 0.24 0 0.8 0.24 0 0.82 0.24 0 0.84 0.24 0 0.86 0.24 0 0.88 0.24 0 0.9 0.24 0 0.92 0.24 0 0.94 0.24 0 0.96 0.24 0 0.98 0.24 0 1 0.24 0 0 0.26 0 0.02 0.26 0 0.04 0.26 0 0.06 0.26 0 0.08 0.26 0 0.1 0.26 0 0.12 0.26 0 0.14 0.26 0 0.16 0.26 0 0.18 0.26 0 0.2 0.26 0 0.22 0.26 0 0.24 0.26 0 0.26 0.26 0 0.28 0.26 0 0.3 0.26 0 0.32 0.26 0 0.34 0.26 0 0.36 0.26 0 0.38 0.26 0 0.4 0.26 0 0.42 0.26 0 0.44 0.26 0 0.46 0.26 0 0.48 0.26 0 0.5 0.26 0 0.52 0.26 0 0.54 0.26 0 0.56 0.26 0 0.58 0.26 0 0.6 0.26 0 0.62 0.26 0 0.64 0.26 0 0.66 0.26 0 0.68 0.26 0 0.7 0.26 0 0.72 0.26 0 0.74 0.26 0 0.76 0.26 0 0.78 0.26 0 0.8 0.26 0 0.82 0.26 0 0.84 0.26 0 0.86 0.26 0 0.88 0.26 0 0.9 0.26 0 0.92 0.26 0 0.94 0.26 0 0.96 0.26 0 0.98 0.26 0 1 0.26 0 0 0.28 0 0.02 0.28 0 0.04 0.28 0 0.06 0.28 0 0.08 0.28 0 0.1 0.28 0 0.12 0.28 0 0.14 0.28 0 0.16 0.28 0 0.18 0.28 0 0.2 0.28 0 0.22 0.28 0 0.24 0.28 0 0.26 0.28 0 0.28 0.28 0 0.3 0.28 0 0.32 0.28 0 0.34 0.28 0 0.36 0.28 0 0.38 0.28 0 0.4 0.28 0 0.42 0.28 0 0.44 0.28 0 0.46 0.28 0 0.48 0.28 0 0.5 0.28 0 0.52 0.28 0 0.54 0.28 0 0.56 0.28 0 0.58 0.28 0 0.6 0.28 0 0.62 0.28 0 0.64 0.28 0 0.66 0.28 0 0.68 0.28 0 0.7 0.28 0 0.72 0.28 0 0.74 0.28 0 0.76 0.28 0 0.78 0.28 0 0.8 0.28 0 0.82 0.28 0 0.84 0.28 0 0.86 0.28 0 0.88 0.28 0 0.9 0.28 0 0.92 0.28 0 0.94 0.28 0 0.96 0.28 0 0.98 0.28 0 1 0.28 0 0 0.3 0 0.02 0.3 0 0.04 0.3 0 0.06 0.3 0 0.08 0.3 0 0.1 0.3 0 0.12 0.3 0 0.14 0.3 0 0.16 0.3 0 0.18 0.3 0 0.2 0.3 0 0.22 0.3 0 0.24 0.3 0 0.26 0.3 0 0.28 0.3 0 0.3 0.3 0 0.32 0.3 0 0.34 0.3 0 0.36 0.3 0 0.38 0.3 0 0.4 0.3 0 0.42 0.3 0 0.44 0.3 0 0.46 0.3 0 0.48 0.3 0 0.5 0.3 0 0.52 0.3 0 0.54 0.3 0 0.56 0.3 0 0.58 0.3 0 0.6 0.3 0 0.62 0.3 0 0.64 0.3 0 0.66 0.3 0 0.68 0.3 0 0.7 0.3 0 0.72 0.3 0 0.74 0.3 0 0.76 0.3 0 0.78 0.3 0 0.8 0.3 0 0.82 0.3 0 0.84 0.3 0 0.86 0.3 0 0.88 0.3 0 0.9 0.3 0 0.92 0.3 0 0.94 0.3 0 0.96 0.3 0 0.98 0.3 0 1 0.3 0 0 0.32 0 0.02 0.32 0 0.04 0.32 0 0.06 0.32 0 0.08 0.32 0 0.1 0.32 0 0.12 0.32 0 0.14 0.32 0 0.16 0.32 0 0.18 0.32 0 0.2 0.32 0 0.22 0.32 0 0.24 0.32 0 0.26 0.32 0 0.28 0.32 0 0.3 0.32 0 0.32 0.32 0 0.34 0.32 0 0.36 0.32 0 0.38 0.32 0 0.4 0.32 0 0.42 0.32 0 0.44 0.32 0 0.46 0.32 0 0.48 0.32 0 0.5 0.32 0 0.52 0.32 0 0.54 0.32 0 0.56 0.32 0 0.58 0.32 0 0.6 0.32 0 0.62 0.32 0 0.64 0.32 0 0.66 0.32 0 0.68 0.32 0 0.7 0.32 0 0.72 0.32 0 0.74 0.32 0 0.76 0.32 0 0.78 0.32 0 0.8 0.32 0 0.82 0.32 0 0.84 0.32 0 0.86 0.32 0 0.88 0.32 0 0.9 0.32 0 0.92 0.32 0 0.94 0.
[...]
			<PointData Scalars="VitesseX">
				<DataArray Name="VitesseX" type="Float32" format="ascii">
 0 0 0 0 0 0 0 0 0 0 0 0 0 0 0 0 0 0 0 0 0 0 0 0 0 0 0 0 0 0 0 0 0 0 0 0 0 0 0 0 0 0 0 0 0 0 0 0 0 0 -0 0 -0.000188724 -0.000674282 -0.00146039 -0.00253478 -0.00388067 -0.005477 -0.00729879 -0.0093175 -0.0115015 -0.0138165 -0.0162262 -0.0186893 -0.021175 -0.0236414 -0.0260368 -0.0283424 -0.0305321 -0.0325391 -0.0343441 -0.0359216 -0.0372467 -0.0382986 -0.0390605 -0.039515 -0.0398423 -0.0398946 -0.0395475 -0.0388442 -0.0378287 -0.0365246 -0.0349529 -0.0331349 -0.0311062 -0.0289058 -0.0265641 -0.024117 -0.0216053 -0.0190694 -0.01655 -0.0140873 -0.0117207 -0.00948821 -0.00742568 -0.00556629 -0.00393728 -0.00253124 -0.00144562 -0.000649599 -0.000164049 -1.88769e-27 0 -0.000365009 -0.00132275 -0.0028777 -0.00500577 -0.00767384 -0.0108403 -0.0144561 -0.0184605 -0.0227975 -0.0273839 -0.0321809 -0.0371166 -0.0420551 -0.0469459 -0.0517177 -0.0562956 -0.0606075 -0.0645857 -0.0681675 -0.0712966 -0.0739235 -0.076007 -0.0775142 -0.0784091 -0.078788 -0.07862 -0.0778063 -0.0763586 -0.0743132 -0.0717107 -0.0685818 -0.0649861 -0.0609914 -0.0566515 -0.0520403 -0.0472289 -0.0422942 -0.0373155 -0.0323722 -0.0275421 -0.0229022 -0.0185263 -0.0144844 -0.0108411 -0.00765369 -0.00496815 -0.00281086 -0.00126107 -0.000317465 -3.54461e-27 0 -0.000530432 -0.00194289 -0.00424082 -0.00738938 -0.011344 -0.0160521 -0.0214445 -0.0273962 -0.0338151 -0.0406195 -0.0477021 -0.0549547 -0.0622627 -0.0695079 -0.0765767 -0.0833576 -0.0897439 -0.0956347 -0.100937 -0.105567 -0.109452 -0.112531 -0.114755 -0.116069 -0.116542 -0.116179 -0.114894 -0.112697 -0.10963 -0.105749 -0.101107 -0.0957855 -0.0898737 -0.0834611 -0.0766523 -0.0695536 -0.0622765 -0.0549377 -0.0476537 -0.0405382 -0.0337037 -0.0272587 -0.0213055 -0.0159392 -0.011245 -0.00729486 -0.00413987 -0.00185237 -0.000465878 -5.14636e-27 0 -0.000685826 -0.00252914 -0.00553517 -0.00967724 -0.014891 -0.0210543 -0.0280678 -0.0358378 -0.0442444 -0.0531559 -0.0624324 -0.0719323 -0.0815049 -0.0909948 -0.100253 -0.109133 -0.117495 -0.125206 -0.132144 -0.1382 -0.143277 -0.147297 -0.150197 -0.151902 -0.152474 -0.15193 -0.150183 -0.147258 -0.14321 -0.138102 -0.132011 -0.125041 -0.117301 -0.108914 -0.100016 -0.0907428 -0.0812408 -0.0716614 -0.0621562 -0.0528724 -0.0439563 -0.0355486 -0.0277823 -0.0207809 -0.014656 -0.00950367 -0.00540248 -0.00241365 -0.000606956 -6.66786e-27 0 -0.000827451 -0.00307389 -0.00677454 -0.0118517 -0.0181737 -0.0256715 -0.0342306 -0.0437172 -0.0539825 -0.0648654 -0.0761946 -0.0877969 -0.0994877 -0.111077 -0.122381 -0.133222 -0.143427 -0.152836 -0.161297 -0.168679 -0.174865 -0.179758 -0.183281 -0.185343 -0.186006 -0.185291 -0.183104 -0.179491 -0.174518 -0.168257 -0.160807 -0.152292 -0.142845 -0.132616 -0.121768 -0.110468 -0.0988929 -0.0872272 -0.0756546 -0.0643532 -0.0535004 -0.0432667 -0.0338134 -0.0252904 -0.0178336 -0.0115614 -0.00657119 -0.00293759 -0.000738489 -8.08527e-27 0 -0.00096712 -0.00361313 -0.00791496 -0.0137865 -0.0211475 -0.0298841 -0.0398594 -0.0509171 -0.0628834 -0.0755701 -0.0887773 -0.102303 -0.11593 -0.129437 -0.142611 -0.155241 -0.167129 -0.178084 -0.187934 -0.196522 -0.203715 -0.209398 -0.213485 -0.215864 -0.216606 -0.215732 -0.21314 -0.208897 -0.203073 -0.195751 -0.187046 -0.177111 -0.166107 -0.1542 -0.141573 -0.128425 -0.11496 -0.101395 -0.0879398 -0.0748025 -0.0621878 -0.0502929 -0.0393049 -0.0293974 -0.0207281 -0.0134359 -0.00763549 -0.00341741 -0.000858365 -9.37637e-27 0 -0.00108867 -0.00406863 -0.00889423 -0.0155028 -0.0237923 -0.0336328 -0.0448698 -0.0573268 -0.0708079 -0.0851008 -0.0999799 -0.115217 -0.130568 -0.145781 -0.160617 -0.174839 -0.18822 -0.200549 -0.21163 -0.221287 -0.22937 -0.23575 -0.240331 -0.242985 -0.24379 -0.24276 -0.239785 -0.234957 -0.228355 -0.220082 -0.21027 -0.199085 -0.186706 -0.17332 -0.159128 -0.144339 -0.129193 -0.113945 -0.0988216 -0.0840587 -0.0698838 -0.0565181 -0.0441712 -0.0330376 -0.0232944 -0.0150981 -0.00857925 -0.00384193 -0.000964565 -1.05209e-26 0 -0.00119905 -0.00444827 -0.00973456 -0.0169789 -0.0260676 -0.0368582 -0.0491811 -0.0628427 -0.0776278 -0.0933034 -0.109622 -0.126332 -0.143167 -0.159848 -0.176112 -0.1917 -0.206362 -0.219866 -0.232 -0.24257 -0.251416 -0.258394 -0.263393 -0.266276 -0.267133 -0.265969 -0.262664 -0.257331 -0.250058 -0.240963 -0.230192 -0.21792 -0.204339 -0.18966 -0.174108 -0.157923 -0.141366 -0.124685 -0.108131 -0.0919789 -0.0764691 -0.0618456 -0.0483366 -0.0361544 -0.0254923 -0.016522 -0.00938777 -0.00420394 -0.00105571 -1.15009e-26 0 -0.00128167 -0.00475814 -0.0104237 -0.0181902 -0.0279356 -0.0395071 -0.0527228 -0.0673748 -0.0832323 -0.100045 -0.117546 -0.135467 -0.153519 -0.171404 -0.18884 -0.205547 -0.22126 -0.235729 -0.248729 -0.260046 -0.269505 -0.276964 -0.282301 -0.285369 -0.286267 -0.284985 -0.281403 -0.27565 -0.267822 -0.258048 -0.246486 -0.233318 -0.218751 -0.203014 -0.186351 -0.169021 -0.15129 -0.133431 -0.115725 -0.0984417 -0.0818414 -0.0661924 -0.0517361 -0.0386989 -0.0272875 -0.0176853 -0.0100484 -0.00449967 -0.00113027 -1.23009e-26 0 -0.00134181 -0.00499393 -0.0109497 -0.0191161 -0.029365 -0.0415357 -0.0554368 -0.0708496 -0.0875308 -0.105217 -0.123627 -0.142477 -0.161464 -0.180273 -0.198608 -0.216173 -0.232694 -0.247897 -0.261547 -0.273429 -0.283355 -0.291175 -0.296767 -0.299968 -0.300889 -0.299503 -0.295696 -0.289611 -0.281348 -0.271044 -0.258869 -0.245016 -0.229699 -0.213159 -0.195653 -0.177449 -0.158824 -0.140073 -0.121486 -0.103342 -0.0859181 -0.0694905 -0.0543166 -0.0406315 -0.0286517 -0.0185698 -0.0105509 -0.00472461 -0.00118719 -1.29084e-26 0 -0.00138089 -0.00515146 -0.0113035 -0.0197411 -0.0303323 -0.042911 -0.0572796 -0.0732117 -0.0904559 -0.108739 -0.127771 -0.147257 -0.166885 -0.186334 -0.205275 -0.223412 -0.240468 -0.256166 -0.270256 -0.282518 -0.292756 -0.300811 -0.30656 -0.309841 -0.310762 -0.3093 -0.305327 -0.299002 -0.290428 -0.279754 -0.267157 -0.252832 -0.237005 -0.21992 -0.201845 -0.183056 -0.163839 -0.144495 -0.125323 -0.106611 -0.0886394 -0.0716901 -0.0560375 -0.0419215 -0.0295634 -0.0191615 -0.0108872 -0.00487527 -0.00122538 -1.33139e-26 0 -0.00139845 -0.00522776 -0.0114787 -0.0200544 -0.0308212 -0.0436104 -0.0582213 -0.0744235 -0.0919612 -0.110557 -0.129914 -0.149736 -0.169705 -0.189465 -0.208708 -0.227142 -0.244475 -0.260426 -0.274737 -0.287181 -0.297561 -0.305717 -0.311529 -0.314836 -0.31574 -0.314207 -0.310118 -0.30364 -0.294878 -0.283992 -0.271162 -0.256579 -0.240486 -0.223125 -0.20476 -0.185682 -0.166176 -0.146546 -0.1271 -0.108125 -0.0899028 -0.0727135 -0.0568334 -0.0425205 -0.0299886 -0.0194388 -0.0110452 -0.00494608 -0.00124301 -1.35108e-26 0 -0.00139404 -0.00522041 -0.0114689 -0.0200429 -0.0308089 -0.0435986 -0.0582111 -0.0744165 -0.091959 -0.110561 -0.129928 -0.149766 -0.169726 -0.189484 -0.208745 -0.227199 -0.244543 -0.260498 -0.274811 -0.287256 -0.297631 -0.305778 -0.311577 -0.314866 -0.315752 -0.314198 -0.310095 -0.303601 -0.294822 -0.283922 -0.271078 -0.256483 -0.240374 -0.223002 -0.204639 -0.185565 -0.166062 -0.146436 -0.126997 -0.108038 -0.0898377 -0.0726627 -0.0567898 -0.0424873 -0.0299669 -0.0194257 -0.0110381 -0.00494291 -0.00124218 -1.34962e-26 0 -0.00136807 -0.00513253 -0.0112839 -0.0197284 -0.0303357 -0.0429406 -0.0573455 -0.0733239 -0.0906236 -0.10897 -0.128072 -0.147629 -0.167301 -0.186788 -0.205789 -0.223979 -0.241063 -0.256776 -0.270867 -0.283098 -0.293276 -0.301245 -0.306879 -0.310024 -0.310788 -0.309208 -0.305127 -0.298694 -0.290014 -0.279254 -0.266586 -0.2522 -0.236332 -0.219227 -0.201155 -0.182391 -0.16322 -0.143929 -0.12482 -0.106184 -0.0883032 -0.0714385 -0.0558411 -0.0417705 -0.0294648 -0.0191023 -0.0108555 -0.0048615 -0.00122178 -1.32702e-26 0 -0.00132064 -0.00496332 -0.0109197 -0.0191003 -0.0293799 -0.041599 -0.0555663 -0.0710624 -0.0878428 -0.105642 -0.124176 -0.143122 -0.1622 -0.18111 -0.199532 -0.217155 -0.23371 -0.248938 -0.262575 -0.274395 -0.284226 -0.291904 -0.297305 -0.300281 -0.300949 -0.299341 -0.295343 -0.28907 -0.280625 -0.270174 -0.257879 -0.243928 -0.228547 -0.211978 -0.19448 -0.176322 -0.157776 -0.139127 -0.120662 -0.102648 -0.0853643 -0.0690738 -0.0540021 -0.0403964 -0.0284966 -0.018477 -0.0105016 -0.00470356 -0.00118218 -1.28367e-26 0 -0.00125251 -0.00471612 -0.0103839 -0.0181726 -0.027964 -0.0396069 -0.0529196 -0.0676927 -0.0836932 -0.100667 -0.118334 -0.136392 -0.154586 -0.172617 -0.190167 -0.206953 -0.222728 -0.237227 -0.250184 -0.261414 -0.270739 -0.278005 -0.283087 -0.285837 -0.286394 -0.284745 -0.280879 -0.27485 -0.26677 -0.256795 -0.245077 -0.231788 -0.217142 -0.201369 -0.18472 -0.167454 -0.149827 -0.132114 -0.114584 -0.0974861 -0.0810721 -0.0656042 -0.051305 -0.0383892 -0.0270773 -0.0175594 -0.00998196 -0.00447153 -0.00112398 -1.22029e-26 0 -0.00116474 -0.0043947 -0.00968495 -0.01696 -0.0261112 -0.036997 -0.0494482 -0.0632692 -0.0782414 -0.0941295 -0.11064 -0.127542 -0.144576 -0.161438 -0.177839 -0.193538 -0.208287 -0.221809 -0.233888 -0.244346 -0.253016 -0.259754 -0.264437 -0.266907 -0.267322 -0.265567 -0.261778 -0.255986 -0.248337 -0.239014 -0.228148 -0.215848 -0.202245 -0.187554 -0.172029 -0.155927 -0.139498 -0.122997 -0.106677 -0.0907672 -0.0754917 -0.0610931 -0.0477915 -0.0357692 -0.025229 -0.0163639 -0.00930459 -0.00416899 -0.00104809 -1.13765e-26 0 -0.00105915 -0.00400366 -0.00883415 -0.0154831 -0.0238509 -0.0338094 -0.0452049 -0.0578588 -0.0715709 -0.0861242 -0.101234 -0.116717 -0.132322 -0.147749 -0.16275 -0.177116 -0.1906 -0.202927 -0.213934 -0.223447 -0.231316 -0.237412 -0.2416 -0.243686 -0.243818 -0.242029 -0.238403 -0.232979 -0.225875 -0.21721 -0.207136 -0.195911 -0.183725 -0.17061 -0.156574 -0.141922 -0.126955 -0.111927 -0.0970709 -0.0825997 -0.0687158 -0.0556128 -0.0435116 -0.0325739 -0.0229803 -0.014909 -0.00848005 -0.00380067 -0.0009557 -1.03646e-26 0 -0.000938216 -0.00355342 -0.00784742 -0.0137627 -0.0212163 -0.0300947 -0.0402598 -0.0515505 -0.0637876 -0.0767723 -0.090266 -0.104089 -0.11801 -0.131764 -0.145143 -0.157945 -0.169925 -0.180871 -0.190625 -0.199033 -0.205963 -0.211291 -0.214834 -0.216462 -0.216457 -0.214865 -0.21158 -0.206676 -0.200278 -0.19248 -0.183388 -0.173211 -0.162153 -0.150485 -0.138381 -0.125623 -0.112392 -0.0990808 -0.085928 -0.0731238 -0.0608435 -0.0492513 -0.0385425 -0.0288627 -0.0203696 -0.0132179 -0.00752124 -0.00337229 -0.000848252 -9.18733e-27 0 -0.000802878 -0.00304916 -0.00674182 -0.0118348 -0.0182581 -0.0259154 -0.0346883 -0.0444405 -0.0550143 -0.0662324 -0.077901 -0.089848 -0.101868 -0.113737 -0.125287 -0.13632 -0.146603 -0.155992 -0.164335 -0.171499 -0.177367 -0.181789 -0.184585 -0.18587 -0.185825 -0.184373 -0.181442 -0.177118 -0.171516 -0.164734 -0.156874 -0.148088 -0.138513 -0.128286 -0.117699 -0.107076 -0.0960169 -0.0846592 -0.0734185 -0.0624809 -0.0519967 -0.0421066 -0.0329584 -0.0246921 -0.0174357 -0.0113172 -0.00644323 -0.00289058 -0.000727427 -7.87438e-27 0 -0.000655174 -0.00249717 -0.00553377 -0.00973018 -0.0150267 -0.0213467 -0.0285935 -0.0366547 -0.0453986 -0.0546761 -0.0643321 -0.0742155 -0.0841468 -0.0939453 -0.103472 -0.112551 -0.120991 -0.128671 -0.135465 -0.14126 -0.145949 -0.14937 -0.151489 -0.15243 -0.152269 -0.150944 -0.148404 -0.144727 -0.140008 -0.134342 -0.127824 -0.120568 -0.112713 -0.104333 -0.0955472 -0.0866284 -0.0779567 -0.0688819 -0.0597424 -0.0508482 -0.0423272 -0.034289 -0.0268457 -0.0201259 -0.014222 -0.00923602 -0.00526293 -0.00236307 -0.00059512 -6.43872e-27 0 -0.000498914 -0.00190885 -0.00424233 -0.00747585 -0.011567 -0.0164578 -0.0220735 -0.0283222 -0.0351024 -0.042297 -0.0497816 -0.0574382 -0.0651249 -0.0726919 -0.0800269 -0.0869949 -0.0934473 -0.0992838 -0.104404 -0.108723 -0.112159 -0.114619 -0.116097 -0.116617 -0.116307 -0.115115 -0.113002 -0.110028 -0.106267 -0.10181 -0.0967328 -0.0911117 -0.0850834 -0.0786902 -0.0720184 -0.0651561 -0.0584268 -0.0519587 -0.0451084 -0.0384001 -0.0319779 -0.0259231 -0.0203101 -0.0152415 -0.010781 -0.00700743 -0.00399884 -0.00179804 -0.000453405 -4.9023e-27 0 -0.0003366 -0.00129511 -0.00289022 -0.00511146 -0.00793368 -0.0113181 -0.0152138 -0.0195566 -0.0242736 -0.0292802 -0.0344774 -0.0397821 -0.0451013 -0.0503215 -0.0553489 -0.0600879 -0.0644459 -0.0683444 -0.0717146 -0.0744995 -0.0766542 -0.0781402 -0.0789363 -0.0789981 -0.0785076 -0.0774438 -0.0757806 -0.073553 -0.0708146 -0.0676442 -0.0640891 -0.0601961 -0.0560851 -0.0517671 -0.0473048 -0.0427472 -0.0381712 -0.0340376 -0.0297329 -0.0253271 -0.0211096 -0.017136 -0.0134481 -0.0101104 -0.00716601 -0.00466734 -0.00267071 -0.00120438 -0.000304508 -3.28925e-27 0 -0.000170901 -0.000667633 -0.00150318 -0.00267988 -0.00418909 -0.00601435 -0.0081292 -0.0104974 -0.0130761 -0.0158151 -0.0186475 -0.021524 -0.024394 -0.0271857 -0.0298342 -0.0322812 -0.0344826 -0.0363867 -0.0379554 -0.0391598 -0.0399831 -0.0404324 -0.0405262 -0.0401883 -0.0394265 -0.0384742 -0.0372964 -0.0358579 -0.0342014 -0.0323718 -0.0303973 -0.0283055 -0.0261704 -0.0239971 -0.0218064 -0.0196241 -0.0174546 -0.0154966 -0.013825 -0.0118209 -0.00988642 -0.00806507 -0.00636477 -0.00481249 -0.00343439 -0.00225246 -0.0012993 -0.000591429 -0.000150764 -1.62449e-27 0 -7.71498e-06 -3.93234e-05 -0.000107823 -0.000224954 -0.000399201 -0.000636816 -0.000936495 -0.00129104 -0.00169104 -0.00211984 -0.00254526 -0.00295204 -0.00332539 -0.00364331 -0.00387624 -0.00399581 -0.00400204 -0.00387957 -0.00361751 -0.00321776 -0.00269201 -0.00207038 -0.00139473 -0.00068615 0.000747369 0.00115996 0.00184904 0.00247637 0.0030215 0.00349138 0.00385228 0.00409553 0.00421909 0.00420948 0.00408509 0.00385597 0.00354442 0.00313647 0.0024019 0.00192703 0.0015287 0.00115732 0.000833454 0.000567682 0.000354348 0.000200214 9.41275e-05 3.13217e-05 5.25328e-06 4.59304e-29 0 0.000147378 0.000580297 0.00127969 0.00222183 0.00338189 0.00473441 0.00625562 0.00792201 0.00971051 0.0116011 0.0135869 0.015656 0.0177835 0.0199462 0.0221344 0.0243397 0.026532 0.0286789 0.0307653 0.0327561 0.0346095 0.0362767 0.0377092 0.0388783 0.0400721 0.040641 0.0409092 0.0407548 0.040207 0.0393226 0.0380813 0.0364956 0.0346033 0.0324154 0.0299774 0.0273384 0.0245553 0.0216827 0.0185897 0.0156479 0.0129213 0.0103627 0.00801978 0.0059385 0.00413809 0.00265117 0.00148771 0.000655681 0.000163009 1.72708e-27 0 0.000301048 0.00119273 0.0026491 0.00463489 0.00710881 0.0100244 0.013334 0.0169864 0.0209295 0.0251062 0.0294676 0.033973 0.0385579 0.0431649 0.0477415 0.0522275 0.0565696 0.0607106 0.0645825 0.0681285 0.0712804 0.0739711 0.0761464 0.0777593 0.0789359 0.0794095 0.0792614 0.0783512 0.0767516 0.0745601 0.0717658 0.0683966 0.0645214 0.0601901 0.0554795 0.0504743 0.0452684 0.0399546 0.0344725 0.029117 0.0241098 0.0194065 0.0150837 0.011219 0.00786142 0.00506452 0.00286029 0.00127224 0.00031989 3.38986e-27 0 0.000450108 0.00178596 0.00397579 0.00697303 0.0107205 0.015152 0.0201953 0.0257721 0.0318001 0.038192 0.0448629 0.0517285 0.0586956 0.0656676 0.0725518 0.0792556 0.0856784 0.0917299 0.0973248 0.10237 0.106775 0.110457 0.113354 0.115396 0.116629 0.116949 0.116343 0.114693 0.112112 0.108666 0.104357 0.0992571 0.0934622 0.0870552 0.0801483 0.0728597 0.065318 0.0576584 0.0498505 0.0421329 0.0349225 0.0281482 0.0219136 0.0163258 0.0114637 0.00740013 0.0041892 0.00187038 0.00047264 5.00274e-27 0 0.000593253 0.00235083 0.00523911 0.00919973 0.0141604 0.0200362 0.0267316 0.0341425 0.0421569 0.0506572 0.059526 0.068639 0.0778764 0.0870989 0.0961728 0.104985 0.113399 0.121275 0.128494 0.134953 0.140551 0.145176 0.148757 0.15121 0.15253 0.152677 0.15161 0.149271 0.145754 0.141086 0.135321 0.128569 0.120938 0.112551 0.103553 0.0940964 0.0843402 0.0744585 0.0644494 0.0544901 0.045189 0.0364502 0.0284018 0.0211782 0.0148868 0.00962068 0.005454 0.00244002 0.000618497 6.53794e-27 0 0.000725423 0.00287847 0.00641926 0.01128 0.0173746 0.0246005 0.0328405 0.0419658 0.0518372 0.0623078 0.0732252 0.0844385 0.0957965 0.107124 0.118246 0.12901 0.13927 0.14886 0.157622 0.165409 0.172091 0.177588 0.181802 0.184635 0.186023 0.186012 0.184532 0.181542 0.177112 0.171284 0.164151 0.155853 0.146529 0.136325 0.125403 0.113936 0.102118 0.0901601 0.0780587 0.0659935 0.0547488 0.0441824 0.0344463 0.0257003 0.0180777 0.0116925 0.00663549 0.00297162 0.000754993 7.97052e-27 0 0.00084586 0.00336058 0.00749773 0.0131813 0.0203127 0.0287732 0.038426 0.0491195 0.0606894 0.0729615 0.0857537 0.0988857 0.112174 0.125423 0.138421 0.150971 0.162898 0.174032 0.184197 0.193207 0.200914 0.207211 0.211988 0.215149 0.216596 0.216431 0.214575 0.210965 0.205679 0.198794 0.19044 0.180779 0.169941 0.158083 0.145401 0.132096 0.118393 0.104537 0.0904559 0.0764622 0.0634525 0.0512239 0.0399526 0.0298216 0.0209868 0.0135821 0.00771405 0.00345763 0.000879387 9.27754e-27 0 0.000953636 0.00378991 0.00845766 0.0148738 0.0229286 0.032489 0.0434006 0.0554915 0.0685749 0.0824521 0.0969149 0.111754 0.126756 0.141706 0.156373 0.170522 0.183938 0.196431 0.207812 0.217895 0.226514 0.233522 0.238801 0.242257 0.243779 0.24346 0.241253 0.237078 0.231038 0.223244 0.213842 0.20296 0.190755 0.177402 0.163134 0.148189 0.132814 0.117277 0.101385 0.0857352 0.0711652 0.0574652 0.0448348 0.0334777 0.0235685 0.0152596 0.00867225 0.00389052 0.000990011 1.04387e-26 0 0.00104653 0.00416138 0.00928408 0.016331 0.0251814 0.0356895 0.0476863 0.0609821 0.0753704 0.0906312 0.106534 0.122844 0.139324 0.155729 0.171818 0.187345 0.202054 0.215722 0.228146 0.239136 0.248512 0.25612 0.261828 0.265539 0.267125 0.266666 0.264154 0.259493 0.252819 0.244256 0.233924 0.221946 0.208536 0.193907 0.178296 0.161953 0.145154 0.128169 0.110662 0.0936722 0.0777678 0.0628091 0.0490158 0.0366112 0.0257823 0.0166988 0.00949536 0.00426238 0.00108572 1.14359e-26 0 0.00112279 0.00446704 0.0099641 0.0175304 0.0270358 0.038325 0.0512163 0.0655055 0.0809697 0.0973712 0.114461 0.131982 0.149681 0.167289 0.184534 0.201174 0.216946 0.231588 0.244875 0.256607 0.266596 0.274681 0.280729 0.284634 0.286253 0.285679 0.282916 0.277856 0.270659 0.261434 0.250301 0.237445 0.223068 0.207398 0.190687 0.173204 0.155245 0.137047 0.118147 0.100141 0.0831579 0.0671731 0.0524289 0.0391716 0.0275931 0.0178771 0.0101703 0.00456738 0.00116443 1.2253e-26 0 0.00118142 0.00470152 0.0104871 0.0184531 0.0284631 0.0403542 0.0539354 0.0689911 0.0852856 0.102567 0.120572 0.139027 0.157663 0.176197 0.19434 0.211818 0.228384 0.243765 0.257711 0.270014 0.280469 0.288906 0.295198 0.299235 0.300869 0.300199 0.297234 0.291863 0.284248 0.274501 0.262771 0.249241 0.234124 0.21766 0.200111 0.181759 0.162927 0.143718 0.123762 0.105046 0.0872495 0.0704891 0.0550222 0.041119 0.0289725 0.0187759 0.0106866 0.00480059 0.00122469 1.28773e-26 0 0.00122151 0.00486154 0.010846 0.019085 0.0294411 0.0417457 0.0558014 0.0713848 0.088251 0.106138 0.124773 0.14387 0.163148 0.182315 0.20107 0.219129 0.236217 0.252079 0.266463 0.279145 0.289902 0.298562 0.305002 0.309114 0.310743 0.309996 0.306882 0.301286 0.293376 0.283274 0.271135 0.257146 0.241528 0.224527 0.206414 0.187484 0.168065 0.147953 0.127494 0.108319 0.0899803 0.0727061 0.0567575 0.042424 0.0298992 0.019381 0.011036 0.00495821 0.00126553 1.32987e-26 0 0.00124244 0.00494661 0.0110401 0.0194163 0.0299548 0.042478 0.0567854 0.0726494 0.08982 0.10803 0.126998 0.146434 0.166051 0.185548 0.204618 0.222973 0.240332 0.256432 0.271019 0.283869 0.294759 0.303508 0.309998 0.314122 0.315722 0.314902 0.311684 0.305946 0.297866 0.287568 0.275208 0.26098 0.245106 0.227836 0.209446 0.190243 0.17049 0.149613 0.129222 0.109843 0.0912616 0.0737546 0.0575862 0.0430518 0.0303495 0.019678 0.0112101 0.00503682 0.00128626 1.35108e-26 0 0.00124375 0.00495123 0.0110527 0.019439 0.0299906 0.0425307 0.0568585 0.0727461 0.0899427 0.10818 0.127175 0.146636 0.166275 0.185788 0.204869 0.223228 0.240582 0.25667 0.271238 0.284066 0.294925 0.303636 0.310086 0.314166 0.315725 0.314897 0.311678 0.305936 0.297855 0.287555 0.275194 0.260966 0.245092 0.227823 0.209437 0.190251 0.170203 0.149082 0.129128 0.109786 0.0912217 0.0737287 0.0575742 0.0430451 0.0303479 0.0196797 0.0112129 0.00503763 0.00128698 1.35102e-26 0 0.00122704 0.00488345 0.0109012 0.019181 0.0295941 0.0419709 0.05611