<?xml version="1.0"?>
<VTKFile type="PolyData">
	<PolyData>
		<Piece NumberOfPoints="2601" NumberOfPolys="2500">
			<Points>
				<DataArray type="Float32" NumberOfComponents="3" format="ascii">
 0 0 0 0.02 0 0 0.04 0 0 0.06 0 0 0.08 0 0 0.1 0 0 0.12 0 0 0.14 0 0 0.16 0 0 0.18 0 0 0.2 0 0 0.22 0 0 0.24 0 0 0.26 0 0 0.28 0 0 0.3 0 0 0.32 0 0 0.34 0 0 0.36 0 0 0.38 0 0 0.4 0 0 0.42 0 0 0.44 0 0 0.46 0 0 0.48 0 0 0.5 0 0 0.52 0 0 0.54 0 0 0.56 0 0 0.58 0 0 0.6 0 0 0.62 0 0 0.64 0 0 0.66 0 0 0.68 0 0 0.7 0 0 0.72 0 0 0.74 0 0 0.76 0 0 0.78 0 0 0.8 0 0 0.82 0 0 0.84 0 0 0.86 0 0 0.88 0 0 0.9 0 0 0.92 0 0 0.94 0 0 0.96 0 0 0.98 0 0 1 0 0 0 0.02 0 0.02 0.02 0 0.04 0.02 0 0.06 0.02 0 0.08 0.02 0 0.1 0.02 0 0.12 0.02 0 0.14 0.02 0 0.16 0.02 0 0.18 0.02 0 0.2 0.02 0 0.22 0.02 0 0.24 0.02 0 0.26 0.02 0 0.28 0.02 0 0.3 0.02 0 0.32 0.02 0 0.34 0.02 0 0.36 0.02 0 0.38 0.02 0 0.4 0.02 0 0.42 0.02 0 0.44 0.02 0 0.46 0.02 0 0.48 0.02 0 0.5 0.02 0 0.52 0.02 0 0.54 0.02 0 0.56 0.02 0 0.58 0.02 0 0.6 0.02 0 0.62 0.02 0 0.64 0.02 0 0.66 0.02 0 0.68 0.02 0 0.7 0.02 0 0.72 0.02 0 0.74 0.02 0 0.76 0.02 0 0.78 0.02 0 0.8 0.02 0 0.82 0.02 0 0.84 0.02 0 0.86 0.02 0 0.88 0.02 0 0.9 0.02 0 0.92 0.02 0 0.94 0.02 0 0.96 0.02 0 0.98 0.02 0 1 0.02 0 0 0.04 0 0.02 0.04 0 0.04 0.04 0 0.06 0.04 0 0.08 0.04 0 0.1 0.04 0 0.12 0.04 0 0.14 0.04 0 0.16 0.04 0 0.18 0.04 0 0.2 0.04 0 0.22 0.04 0 0.24 0.04 0 0.26 0.04 0 0.28 0.04 0 0.3 0.04 0 0.32 0.04 0 0.34 0.04 0 0.36 0.04 0 0.38 0.04 0 0.4 0.04 0 0.42 0.04 0 0.44 0.04 0 0.46 0.04 0 0.48 0.04 0 0.5 0.04 0 0.52 0.04 0 0.54 0.04 0 0.56 0.04 0 0.58 0.04 0 0.6 0.04 0 0.62 0.04 0 0.64 0.04 0 0.66 0.04 0 0.68 0.04 0 0.7 0.04 0 0.72 0.04 0 0.74 0.04 0 0.76 0.04 0 0.78 0.04 0 0.8 0.04 0 0.82 0.04 0 0.84 0.04 0 0.86 0.04 0 0.88 0.04 0 0.9 0.04 0 0.92 0.04 0 0.94 0.04 0 0.96 0.04 0 0.98 0.04 0 1 0.04 0 0 0.06 0 0.02 0.06 0 0.04 0.06 0 0.06 0.06 0 0.08 0.06 0 0.1 0.06 0 0.12 0.06 0 0.14 0.06 0 0.16 0.06 0 0.18 0.06 0 0.2 0.06 0 0.22 0.06 0 0.24 0.06 0 0.26 0.06 0 0.28 0.06 0 0.3 0.06 0 0.32 0.06 0 0.34 0.06 0 0.36 0.06 0 0.38 0.06 0 0.4 0.06 0 0.42 0.06 0 0.44 0.06 0 0.46 0.06 0 0.48 0.06 0 0.5 0.06 0 0.52 0.06 0 0.54 0.06 0 0.56 0.06 0 0.58 0.06 0 0.6 0.06 0 0.62 0.06 0 0.64 0.06 0 0.66 0.06 0 0.68 0.06 0 0.7 0.06 0 0.72 0.06 0 0.74 0.06 0 0.76 0.06 0 0.78 0.06 0 0.8 0.06 0 0.82 0.06 0 0.84 0.06 0 0.86 0.06 0 0.88 0.06 0 0.9 0.06 0 0.92 0.06 0 0.94 0.06 0 0.96 0.06 0 0.98 0.06 0 1 0.06 0 0 0.08 0 0.02 0.08 0 0.04 0.08 0 0.06 0.08 0 0.08 0.08 0 0.1 0.08 0 0.12 0.08 0 0.14 0.08 0 0.16 0.08 0 0.18 0.08 0 0.2 0.08 0 0.22 0.08 0 0.24 0.08 0 0.26 0.08 0 0.28 0.08 0 0.3 0.08 0 0.32 0.08 0 0.34 0.08 0 0.36 0.08 0 0.38 0.08 0 0.4 0.08 0 0.42 0.08 0 0.44 0.08 0 0.46 0.08 0 0.48 0.08 0 0.5 0.08 0 0.52 0.08 0 0.54 0.08 0 0.56 0.08 0 0.58 0.08 0 0.6 0.08 0 0.62 0.08 0 0.64 0.08 0 0.66 0.08 0 0.68 0.08 0 0.7 0.08 0 0.72 0.08 0 0.74 0.08 0 0.76 0.08 0 0.78 0.08 0 0.8 0.08 0 0.82 0.08 0 0.84 0.08 0 0.86 0.08 0 0.88 0.08 0 0.9 0.08 0 0.92 0.08 0 0.94 0.08 0 0.96 0.08 0 0.98 0.08 0 1 0.08 0 0 0.1 0 0.02 0.1 0 0.04 0.1 0 0.06 0.1 0 0.08 0.1 0 0.1 0.1 0 0.12 0.1 0 0.14 0.1 0 0.16 0.1 0 0.18 0.1 0 0.2 0.1 0 0.22 0.1 0 0.24 0.1 0 0.26 0.1 0 0.28 0.1 0 0.3 0.1 0 0.32 0.1 0 0.34 0.1 0 0.36 0.1 0 0.38 0.1 0 0.4 0.1 0 0.42 0.1 0 0.44 0.1 0 0.46 0.1 0 0.48 0.1 0 0.5 0.1 0 0.52 0.1 0 0.54 0.1 0 0.56 0.1 0 0.58 0.1 0 0.6 0.1 0 0.62 0.1 0 0.64 0.1 0 0.66 0.1 0 0.68 0.1 0 0.7 0.1 0 0.72 0.1 0 0.74 0.1 0 0.76 0.1 0 0.78 0.1 0 0.8 0.1 0 0.82 0.1 0 0.84 0.1 0 0.86 0.1 0 0.88 0.1 0 0.9 0.1 0 0.92 0.1 0 0.94 0.1 0 0.96 0.1 0 0.98 0.1 0 1 0.1 0 0 0.12 0 0.02 0.12 0 0.04 0.12 0 0.06 0.12 0 0.08 0.12 0 0.1 0.12 0 0.12 0.12 0 0.14 0.12 0 0.16 0.12 0 0.18 0.12 0 0.2 0.12 0 0.22 0.12 0 0.24 0.12 0 0.26 0.12 0 0.28 0.12 0 0.3 0.12 0 0.32 0.12 0 0.34 0.12 0 0.36 0.12 0 0.38 0.12 0 0.4 0.12 0 0.42 0.12 0 0.44 0.12 0 0.46 0.12 0 0.48 0.12 0 0.5 0.12 0 0.52 0.12 0 0.54 0.12 0 0.56 0.12 0 0.58 0.12 0 0.6 0.12 0 0.62 0.12 0 0.64 0.12 0 0.66 0.12 0 0.68 0.12 0 0.7 0.12 0 0.72 0.12 0 0.74 0.12 0 0.76 0.12 0 0.78 0.12 0 0.8 0.12 0 0.82 0.12 0 0.84 0.12 0 0.86 0.12 0 0.88 0.12 0 0.9 0.12 0 0.92 0.12 0 0.94 0.12 0 0.96 0.12 0 0.98 0.12 0 1 0.12 0 0 0.14 0 0.02 0.14 0 0.04 0.14 0 0.06 0.14 0 0.08 0.14 0 0.1 0.14 0 0.12 0.14 0 0.14 0.14 0 0.16 0.14 0 0.18 0.14 0 0.2 0.14 0 0.22 0.14 0 0.24 0.14 0 0.26 0.14 0 0.28 0.14 0 0.3 0.14 0 0.32 0.14 0 0.34 0.14 0 0.36 0.14 0 0.38 0.14 0 0.4 0.14 0 0.42 0.14 0 0.44 0.14 0 0.46 0.14 0 0.48 0.14 0 0.5 0.14 0 0.52 0.14 0 0.54 0.14 0 0.56 0.14 0 0.58 0.14 0 0.6 0.14 0 0.62 0.14 0 0.64 0.14 0 0.66 0.14 0 0.68 0.14 0 0.7 0.14 0 0.72 0.14 0 0.74 0.14 0 0.76 0.14 0 0.78 0.14 0 0.8 0.14 0 0.82 0.14 0 0.84 0.14 0 0.86 0.14 0 0.88 0.14 0 0.9 0.14 0 0.92 0.14 0 0.94 0.14 0 0.96 0.14 0 0.98 0.14 0 1 0.14 0 0 0.16 0 0.02 0.16 0 0.04 0.16 0 0.06 0.16 0 0.08 0.16 0 0.1 0.16 0 0.12 0.16 0 0.14 0.16 0 0.16 0.16 0 0.18 0.16 0 0.2 0.16 0 0.22 0.16 0 0.24 0.16 0 0.26 0.16 0 0.28 0.16 0 0.3 0.16 0 0.32 0.16 0 0.34 0.16 0 0.36 0.16 0 0.38 0.16 0 0.4 0.16 0 0.42 0.16 0 0.44 0.16 0 0.46 0.16 0 0.48 0.16 0 0.5 0.16 0 0.52 0.16 0 0.54 0.16 0 0.56 0.16 0 0.58 0.16 0 0.6 0.16 0 0.62 0.16 0 0.64 0.16 0 0.66 0.16 0 0.68 0.16 0 0.7 0.16 0 0.72 0.16 0 0.74 0.16 0 0.76 0.16 0 0.78 0.16 0 0.8 0.16 0 0.82 0.16 0 0.84 0.16 0 0.86 0.16 0 0.88 0.16 0 0.9 0.16 0 0.92 0.16 0 0.94 0.16 0 0.96 0.16 0 0.98 0.16 0 1 0.16 0 0 0.18 0 0.02 0.18 0 0.04 0.18 0 0.06 0.18 0 0.08 0.18 0 0.1 0.18 0 0.12 0.18 0 0.14 0.18 0 0.16 0.18 0 0.18 0.18 0 0.2 0.18 0 0.22 0.18 0 0.24 0.18 0 0.26 0.18 0 0.28 0.18 0 0.3 0.18 0 0.32 0.18 0 0.34 0.18 0 0.36 0.18 0 0.38 0.18 0 0.4 0.18 0 0.42 0.18 0 0.44 0.18 0 0.46 0.18 0 0.48 0.18 0 0.5 0.18 0 0.52 0.18 0 0.54 0.18 0 0.56 0.18 0 0.58 0.18 0 0.6 0.18 0 0.62 0.18 0 0.64 0.18 0 0.66 0.18 0 0.68 0.18 0 0.7 0.18 0 0.72 0.18 0 0.74 0.18 0 0.76 0.18 0 0.78 0.18 0 0.8 0.18 0 0.82 0.18 0 0.84 0.18 0 0.86 0.18 0 0.88 0.18 0 0.9 0.18 0 0.92 0.18 0 0.94 0.18 0 0.96 0.18 0 0.98 0.18 0 1 0.18 0 0 0.2 0 0.02 0.2 0 0.04 0.2 0 0.06 0.2 0 0.08 0.2 0 0.1 0.2 0 0.12 0.2 0 0.14 0.2 0 0.16 0.2 0 0.18 0.2 0 0.2 0.2 0 0.22 0.2 0 0.24 0.2 0 0.26 0.2 0 0.28 0.2 0 0.3 0.2 0 0.32 0.2 0 0.34 0.2 0 0.36 0.2 0 0.38 0.2 0 0.4 0.2 0 0.42 0.2 0 0.44 0.2 0 0.46 0.2 0 0.48 0.2 0 0.5 0.2 0 0.52 0.2 0 0.54 0.2 0 0.56 0.2 0 0.58 0.2 0 0.6 0.2 0 0.62 0.2 0 0.64 0.2 0 0.66 0.2 0 0.68 0.2 0 0.7 0.2 0 0.72 0.2 0 0.74 0.2 0 0.76 0.2 0 0.78 0.2 0 0.8 0.2 0 0.82 0.2 0 0.84 0.2 0 0.86 0.2 0 0.88 0.2 0 0.9 0.2 0 0.92 0.2 0 0.94 0.2 0 0.96 0.2 0 0.98 0.2 0 1 0.2 0 0 0.22 0 0.02 0.22 0 0.04 0.22 0 0.06 0.22 0 0.08 0.22 0 0.1 0.22 0 0.12 0.22 0 0.14 0.22 0 0.16 0.22 0 0.18 0.22 0 0.2 0.22 0 0.22 0.22 0 0.24 0.22 0 0.26 0.22 0 0.28 0.22 0 0.3 0.22 0 0.32 0.22 0 0.34 0.22 0 0.36 0.22 0 0.38 0.22 0 0.4 0.22 0 0.42 0.22 0 0.44 0.22 0 0.46 0.22 0 0.48 0.22 0 0.5 0.22 0 0.52 0.22 0 0.54 0.22 0 0.56 0.22 0 0.58 0.22 0 0.6 0.22 0 0.62 0.22 0 0.64 0.22 0 0.66 0.22 0 0.68 0.22 0 0.7 0.22 0 0.72 0.22 0 0.74 0.22 0 0.76 0.22 0 0.78 0.22 0 0.8 0.22 0 0.82 0.22 0 0.84 0.22 0 0.86 0.22 0 0.88 0.22 0 0.9 0.22 0 0.92 0.22 0 0.94 0.22 0 0.96 0.22 0 0.98 0.22 0 1 0.22 0 0 0.24 0 0.02 0.24 0 0.04 0.24 0 0.06 0.24 0 0.08 0.24 0 0.1 0.24 0 0.12 0.24 0 0.14 0.24 0 0.16 0.24 0 0.18 0.24 0 0.2 0.24 0 0.22 0.24 0 0.24 0.24 0 0.26 0.24 0 0.28 0.24 0 0.3 0.24 0 0.32 0.24 0 0.34 0.24 0 0.36 0.24 0 0.38 0.24 0 0.4 0.24 0 0.42 0.24 0 0.44 0.24 0 0.46 0.24 0 0.48 0.24 0 0.5 0.24 0 0.52 0.24 0 0.54 0.24 0 0.56 0.24 0 0.58 0.24 0 0.6 0.24 0 0.62 0.24 0 0.64 0.24 0 0.66 0.24 0 0.68 0.24 0 0.7 0.24 0 0.72 0.24 0 0.74 0.24 0 0.76 0.24 0 0.78 0.24 0 0.8 0.24 0 0.82 0.24 0 0.84 0.24 0 0.86 0.24 0 0.88 0.24 0 0.9 0.24 0 0.92 0.24 0 0.94 0.24 0 0.96 0.24 0 0.98 0.24 0 1 0.24 0 0 0.26 0 0.02 0.26 0 0.04 0.26 0 0.06 0.26 0 0.08 0.26 0 0.1 0.26 0 0.12 0.26 0 0.14 0.26 0 0.16 0.26 0 0.18 0.26 0 0.2 0.26 0 0.22 0.26 0 0.24 0.26 0 0.26 0.26 0 0.28 0.26 0 0.3 0.26 0 0.32 0.26 0 0.34 0.26 0 0.36 0.26 0 0.38 0.26 0 0.4 0.26 0 0.42 0.26 0 0.44 0.26 0 0.46 0.26 0 0.48 0.26 0 0.5 0.26 0 0.52 0.26 0 0.54 0.26 0 0.56 0.26 0 0.58 0.26 0 0.6 0.26 0 0.62 0.26 0 0.64 0.26 0 0.66 0.26 0 0.68 0.26 0 0.7 0.26 0 0.72 0.26 0 0.74 0.26 0 0.76 0.26 0 0.78 0.26 0 0.8 0.26 0 0.82 0.26 0 0.84 0.26 0 0.86 0.26 0 0.88 0.26 0 0.9 0.26 0 0.92 0.26 0 0.94 0.26 0 0.96 0.26 0 0.98 0.26 0 1 0.26 0 0 0.28 0 0.02 0.28 0 0.04 0.28 0 0.06 0.28 0 0.08 0.28 0 0.1 0.28 0 0.12 0.28 0 0.14 0.28 0 0.16 0.28 0 0.18 0.28 0 0.2 0.28 0 0.22 0.28 0 0.24 0.28 0 0.26 0.28 0 0.28 0.28 0 0.3 0.28 0 0.32 0.28 0 0.34 0.28 0 0.36 0.28 0 0.38 0.28 0 0.4 0.28 0 0.42 0.28 0 0.44 0.28 0 0.46 0.28 0 0.48 0.28 0 0.5 0.28 0 0.52 0.28 0 0.54 0.28 0 0.56 0.28 0 0.58 0.28 0 0.6 0.28 0 0.62 0.28 0 0.64 0.28 0 0.66 0.28 0 0.68 0.28 0 0.7 0.28 0 0.72 0.28 0 0.74 0.28 0 0.76 0.28 0 0.78 0.28 0 0.8 0.28 0 0.82 0.28 0 0.84 0.28 0 0.86 0.28 0 0.88 0.28 0 0.9 0.28 0 0.92 0.28 0 0.94 0.28 0 0.96 0.28 0 0.98 0.28 0 1 0.28 0 0 0.3 0 0.02 0.3 0 0.04 0.3 0 0.06 0.3 0 0.08 0.3 0 0.1 0.3 0 0.12 0.3 0 0.14 0.3 0 0.16 0.3 0 0.18 0.3 0 0.2 0.3 0 0.22 0.3 0 0.24 0.3 0 0.26 0.3 0 0.28 0.3 0 0.3 0.3 0 0.32 0.3 0 0.34 0.3 0 0.36 0.3 0 0.38 0.3 0 0.4 0.3 0 0.42 0.3 0 0.44 0.3 0 0.46 0.3 0 0.48 0.3 0 0.5 0.3 0 0.52 0.3 0 0.54 0.3 0 0.56 0.3 0 0.58 0.3 0 0.6 0.3 0 0.62 0.3 0 0.64 0.3 0 0.66 0.3 0 0.68 0.3 0 0.7 0.3 0 0.72 0.3 0 0.74 0.3 0 0.76 0.3 0 0.78 0.3 0 0.8 0.3 0 0.82 0.3 0 0.84 0.3 0 0.86 0.3 0 0.88 0.3 0 0.9 0.3 0 0.92 0.3 0 0.94 0.3 0 0.96 0.3 0 0.98 0.3 0 1 0.3 0 0 0.32 0 0.02 0.32 0 0.04 0.32 0 0.06 0.32 0 0.08 0.32 0 0.1 0.32 0 0.12 0.32 0 0.14 0.32 0 0.16 0.32 0 0.18 0.32 0 0.2 0.32 0 0.22 0.32 0 0.24 0.32 0 0.26 0.32 0 0.28 0.32 0 0.3 0.32 0 0.32 0.32 0 0.34 0.32 0 0.36 0.32 0 0.38 0.32 0 0.4 0.32 0 0.42 0.32 0 0.44 0.32 0 0.46 0.32 0 0.48 0.32 0 0.5 0.32 0 0.52 0.32 0 0.54 0.32 0 0.56 0.32 0 0.58 0.32 0 0.6 0.32 0 0.62 0.32 0 0.64 0.32 0 0.66 0.32 0 0.68 0.32 0 0.7 0.32 0 0.72 0.32 0 0.74 0.32 0 0.76 0.32 0 0.78 0.32 0 0.8 0.32 0 0.82 0.32 0 0.84 0.32 0 0.86 0.32 0 0.88 0.32 0 0.9 0.32 0 0.92 0.32 0 0.94 0.
[...]
			<PointData Scalars="VitesseX">
				<DataArray Name="VitesseX" type="Float32" format="ascii">
 0 0 0 0 0 0 0 0 0 0 0 0 0 0 0 0 0 0 0 0 0 0 0 0 0 0 0 0 0 0 0 0 0 0 0 0 0 0 0 0 0 0 0 0 0 0 0 0 0 0 0 0 0.000389066 0.0015465 0.00347851 0.00614674 0.00948814 0.0134408 0.0179434 0.022924 0.0283031 0.0339943 0.0399064 0.0459447 0.0520137 0.0580141 0.0638485 0.0694226 0.0746461 0.079425 0.0836834 0.0873732 0.0904193 0.0927106 0.0941843 0.0947576 0.095286 0.0938197 0.0925278 0.0907059 0.0881753 0.0850119 0.0812547 0.0769533 0.0721841 0.0670216 0.0615408 0.055829 0.0499789 0.0440812 0.0382288 0.0325187 0.0270393 0.0218758 0.0171093 0.0128145 0.00905847 0.00589843 0.00338108 0.00152582 0.000407309 4.02152e-27 0 0.000751161 0.0029869 0.00671455 0.0118301 0.0182543 0.0258824 0.034591 0.0442403 0.0546761 0.0657322 0.0772325 0.0889939 0.100834 0.112561 0.123984 0.134924 0.145203 0.154659 0.163133 0.170489 0.176618 0.18141 0.18474 0.186494 0.187146 0.185986 0.183745 0.180213 0.175235 0.168948 0.161478 0.152952 0.143485 0.13324 0.122373 0.111033 0.0994067 0.0876852 0.0760564 0.0646969 0.0537951 0.0435242 0.0340435 0.0255005 0.0180279 0.0117404 0.00673321 0.00308091 0.000834919 7.97961e-27 0 0.00110138 0.00438802 0.00982928 0.0173109 0.0267152 0.0378883 0.0506498 0.0647956 0.0801006 0.0963223 0.113204 0.13048 0.147887 0.165144 0.181972 0.198108 0.213296 0.227296 0.239886 0.250864 0.26005 0.267295 0.272476 0.275456 0.276448 0.275259 0.272127 0.266957 0.259704 0.250488 0.239459 0.226808 0.212759 0.197549 0.18144 0.164654 0.147426 0.130042 0.112803 0.0959748 0.0797959 0.0645564 0.0504923 0.0378203 0.0267362 0.0174101 0.00998346 0.00456752 0.00124237 1.18118e-26 0 0.00143249 0.00571881 0.0127842 0.0225118 0.0347411 0.0492723 0.0658708 0.0842717 0.104183 0.125292 0.147267 0.169765 0.192447 0.21495 0.236911 0.25799 0.277856 0.296197 0.312723 0.327175 0.339322 0.348963 0.355937 0.360108 0.361494 0.360229 0.356283 0.349568 0.340155 0.328201 0.313874 0.297384 0.278996 0.259035 0.237868 0.215844 0.193269 0.170477 0.147862 0.125794 0.104608 0.0846249 0.0661817 0.049566 0.0350339 0.022808 0.0130737 0.00597674 0.00162187 1.54577e-26 0 0.00174336 0.0069519 0.0155355 0.0273528 0.0422081 0.0598586 0.0800192 0.102368 0.126553 0.152196 0.178898 0.206244 0.233829 0.261213 0.287954 0.313643 0.337879 0.360282 0.380502 0.398222 0.413162 0.425077 0.433771 0.439086 0.440877 0.439542 0.434876 0.426759 0.415351 0.400833 0.383429 0.363402 0.341046 0.316708 0.29082 0.26385 0.236219 0.208345 0.180692 0.153724 0.127839 0.103404 0.0808576 0.0605475 0.0427865 0.0278464 0.0159534 0.0072854 0.00197008 1.88596e-26 0 0.002028 0.0080751 0.018041 0.0317588 0.0490008 0.0694839 0.0928768 0.118807 0.146867 0.176621 0.207611 0.239358 0.271399 0.303221 0.334314 0.364206 0.392432 0.418553 0.442161 0.462885 0.480402 0.494427 0.504727 0.511123 0.513329 0.511945 0.506657 0.497294 0.484094 0.467263 0.447055 0.423787 0.397815 0.369526 0.339376 0.307891 0.275611 0.243055 0.210771 0.179295 0.149091 0.120594 0.0942871 0.0705911 0.0498721 0.0324467 0.0185784 0.00847434 0.00228276 2.19637e-26 0 0.00227918 0.0090713 0.0202617 0.0356616 0.0550139 0.0779993 0.104245 0.133333 0.164809 0.198191 0.232965 0.2686 0.304579 0.34033 0.375279 0.408899 0.440671 0.470102 0.496734 0.520151 0.539985 0.555915 0.567679 0.575074 0.577701 0.576299 0.570487 0.560054 0.545295 0.526434 0.503757 0.477615 0.448418 0.41662 0.382714 0.34725 0.310837 0.274085 0.237639 0.202109 0.168036 0.135916 0.106255 0.0795371 0.0561787 0.0365372 0.0209089 0.00952654 0.0025565 2.47211e-26 0 0.00249456 0.00992492 0.022163 0.0390003 0.0601541 0.0852718 0.113944 0.145716 0.1801 0.216572 0.254574 0.293526 0.332867 0.371974 0.410221 0.447035 0.48185 0.514128 0.54337 0.569119 0.590972 0.608572 0.621631 0.629927 0.63297 0.631588 0.625369 0.614056 0.597993 0.577415 0.552638 0.524041 0.492074 0.457248 0.420112 0.381249 0.341303 0.300939 0.260885 0.221834 0.184398 0.149133 0.116572 0.0872437 0.0616066 0.0400535 0.0229087 0.0104265 0.00278807 2.70884e-26 0 0.00267081 0.0106225 0.023715 0.0417215 0.06434 0.0911812 0.121812 0.155757 0.192501 0.231487 0.272114 0.313761 0.355834 0.397671 0.438603 0.478021 0.515324 0.54994 0.581333 0.609014 0.632554 0.651562 0.665722 0.674802 0.678263 0.676946 0.670446 0.658454 0.641364 0.619416 0.592946 0.562357 0.528126 0.4908 0.450992 0.409336 0.366496 0.323169 0.280138 0.238165 0.19793 0.160044 0.125079 0.09359 0.0660704 0.0429403 0.0245467 0.0111605 0.00297454 2.90286e-26 0 0.0028051 0.0111529 0.0248932 0.0437789 0.0674921 0.0956327 0.127746 0.163337 0.201862 0.242733 0.285326 0.328994 0.373119 0.417008 0.459963 0.501353 0.540548 0.576952 0.610005 0.639195 0.664051 0.684176 0.699241 0.70899 0.712855 0.711652 0.705012 0.692558 0.674719 0.65175 0.624 0.591901 0.555961 0.516757 0.474914 0.431098 0.386019 0.340408 0.295079 0.250839 0.20842 0.168484 0.131644 0.0984778 0.0695004 0.0451526 0.0257974 0.0117175 0.00311346 3.05115e-26 0 0.00289526 0.0115076 0.0256745 0.045143 0.0695778 0.0985713 0.13166 0.168331 0.208019 0.250115 0.293981 0.338957 0.384408 0.429634 0.473916 0.516611 0.557074 0.594697 0.628895 0.659128 0.684924 0.705878 0.721646 0.731946 0.736194 0.735147 0.72852 0.715839 0.697562 0.673953 0.645371 0.612263 0.575158 0.53466 0.491417 0.446126 0.399532 0.352368 0.305458 0.259644 0.215693 0.174318 0.136166 0.101831 0.0718438 0.0466563 0.0266416 0.0120891 0.00320299 3.15139e-26 0 0.00293856 0.0116729 0.0260331 0.0457579 0.070503 0.0998549 0.133342 0.170439 0.210572 0.253129 0.297473 0.342944 0.388913 0.434684 0.479537 0.522827 0.563915 0.602172 0.637003 0.667874 0.694314 0.715902 0.73227 0.743116 0.747877 0.747058 0.74059 0.727921 0.70954 0.685701 0.656765 0.623182 0.585494 0.544313 0.500317 0.454229 0.406813 0.358817 0.311076 0.264424 0.219631 0.177455 0.138575 0.103599 0.073065 0.0474287 0.0270667 0.01227 0.003242 3.20204e-26 0 0.00293731 0.0116658 0.0260129 0.0457144 0.0704228 0.0997212 0.133135 0.170136 0.210154 0.252584 0.296798 0.342145 0.387999 0.433681 0.478469 0.521731 0.562827 0.601114 0.636006 0.666984 0.693567 0.715317 0.731857 0.74288 0.74783 0.74712 0.740791 0.728243 0.709974 0.686232 0.657368 0.623829 0.586156 0.54496 0.50092 0.454767 0.407274 0.359206 0.311404 0.264691 0.219835 0.177592 0.138647 0.103627 0.0730641 0.0474123 0.0270447 0.0122499 0.00322879 3.20233e-26 0 0.00288923 0.0114706 0.0255689 0.0449202 0.0691695 0.0979057 0.130663 0.166928 0.206142 0.247719 0.29105 0.335504 0.38047 0.425296 0.469276 0.51181 0.552244 0.589951 0.62438 0.65502 0.681384 0.703036 0.719594 0.730741 0.735963 0.735569 0.729832 0.71789 0.700267 0.677191 0.648997 0.616125 0.579106 0.538541 0.495107 0.449536 0.402595 0.355059 0.307771 0.261555 0.217172 0.175383 0.136872 0.10225 0.0720552 0.0467281 0.026633 0.0120492 0.00316718 3.15228e-26 0 0.00279547 0.0110941 0.0247219 0.04341 0.0668 0.0945001 0.126072 0.161016 0.198799 0.238857 0.280609 0.323456 0.366811 0.410059 0.452537 0.493661 0.532788 0.56933 0.60277 0.632602 0.658354 0.679591 0.695925 0.707042 0.712486 0.712379 0.707238 0.696014 0.679245 0.65714 0.630017 0.598307 0.562519 0.523233 0.481109 0.436875 0.391279 0.345074 0.299082 0.254128 0.21095 0.170292 0.132853 0.0992166 0.0698817 0.0452916 0.0257946 0.0116566 0.00305585 3.05271e-26 0 0.00265757 0.0105431 0.0234817 0.0411938 0.0633394 0.0895635 0.119448 0.152515 0.188258 0.22615 0.265651 0.306196 0.347238 0.388209 0.428517 0.467574 0.504772 0.539586 0.571518 0.600088 0.624839 0.645338 0.661209 0.672145 0.677756 0.677982 0.673577 0.663286 0.647667 0.626905 0.601307 0.571275 0.537285 0.499896 0.459735 0.417502 0.373949 0.329799 0.285817 0.242806 0.201491 0.162587 0.126777 0.0946363 0.0666239 0.0431519 0.0245551 0.0110826 0.00289744 2.90517e-26 0 0.00247785 0.00982468 0.0218606 0.0383034 0.0588529 0.0831925 0.110912 0.141567 0.174691 0.209802 0.246407 0.283995 0.32206 0.360106 0.397591 0.433957 0.468645 0.501186 0.531117 0.557985 0.58135 0.600801 0.615982 0.626595 0.632331 0.632924 0.62937 0.620232 0.606064 0.587018 0.563383 0.535511 0.503844 0.468922 0.431342 0.391757 0.350887 0.309452 0.268167 0.227766 0.188944 0.152394 0.118755 0.0885953 0.0623426 0.0403453 0.0229354 0.0103373 0.00269472 2.71202e-26 0 0.00225879 0.00894839 0.0198817 0.0347877 0.0534318 0.0754959 0.1006 0.128342 0.158307 0.190066 0.223182 0.257206 0.291687 0.32621 0.360259 0.393342 0.424977 0.454735 0.482199 0.506949 0.528575 0.546695 0.560967 0.571125 0.576941 0.577958 0.575319 0.567562 0.555131 0.538149 0.51687 0.491602 0.462755 0.430835 0.396405 0.360066 0.322488 0.28437 0.246395 0.209233 0.173504 0.139865 0.108919 0.0811984 0.0570967 0.0369166 0.0209623 0.00943294 0.00245091 2.47624e-26 0 0.00200363 0.00792858 0.0175713 0.0307207 0.0471647 0.066592 0.0886686 0.113045 0.139362 0.167254 0.196349 0.226264 0.256606 0.287044 0.317104 0.346374 0.374459 0.400967 0.425534 0.447793 0.467362 0.483881 0.497054 0.506637 0.512415 0.514074 0.512252 0.50612 0.495654 0.481021 0.462433 0.440175 0.41462 0.386218 0.355471 0.322936 0.289218 0.254973 0.220857 0.187488 0.155407 0.125199 0.0974206 0.0725533 0.0509632 0.0329203 0.0186676 0.00838435 0.00216998 2.20154e-26 0 0.00171709 0.00677538 0.0149761 0.0261768 0.0401473 0.0566172 0.0753033 0.0959158 0.11816 0.141735 0.166339 0.191663 0.217381 0.243221 0.268808 0.293807 0.317889 0.340726 0.362025 0.381458 0.398676 0.413358 0.425271 0.434156 0.439834 0.442146 0.441263 0.43692 0.428628 0.416589 0.40098 0.382055 0.360165 0.335705 0.309121 0.280908 0.251584 0.221732 0.19197 0.162878 0.134932 0.108621 0.0844347 0.062802 0.0440559 0.0284239 0.0160889 0.00720833 0.00185716 1.89227e-26 0 0.0014028 0.00550365 0.0121563 0.0212214 0.0324857 0.0457247 0.0607153 0.0772298 0.0950387 0.113915 0.13363 0.153956 0.174639 0.195457 0.216146 0.23646 0.256145 0.274961 0.292672 0.30898 0.323592 0.336251 0.346746 0.35481 0.360346 0.3633 0.363485 0.361056 0.355093 0.345838 0.33344 0.318133 0.300234 0.280088 0.258068 0.234596 0.210131 0.18515 0.160191 0.135801 0.112398 0.0903852 0.070165 0.0521023 0.0364872 0.0234963 0.013267 0.00592532 0.00151854 1.55347e-26 0 0.00106298 0.00414714 0.0091533 0.0159263 0.024295 0.0340868 0.0451378 0.0572846 0.0703669 0.0842392 0.0987499 0.113739 0.129029 0.14447 0.159916 0.175214 0.190202 0.204712 0.218558 0.231497 0.243288 0.253757 0.262694 0.26984 0.275211 0.278713 0.280374 0.279671 0.27621 0.269851 0.260831 0.249372 0.235744 0.220219 0.203098 0.184721 0.165477 0.145764 0.126006 0.106683 0.0881674 0.0707808 0.0548338 0.0406173 0.0283685 0.018213 0.0102478 0.00455542 0.00115978 1.19045e-26 0 0.000702166 0.0027378 0.00600473 0.0103713 0.0157039 0.0218884 0.0288183 0.036397 0.0445435 0.0531759 0.0622178 0.0715915 0.0812172 0.0910324 0.100991 0.11104 0.121108 0.131082 0.140835 0.150215 0.159014 0.167124 0.174401 0.180564 0.185793 0.189859 0.193057 0.194304 0.193153 0.189759 0.184238 0.176814 0.167677 0.15702 0.145059 0.132055 0.118315 0.104169 0.0899335 0.0759783 0.0626224 0.0501163 0.0386795 0.0285253 0.0198277 0.0126611 0.00708059 0.00312445 0.000786011 8.08759e-27 0 0.00033569 0.00128721 0.00275651 0.00463967 0.00684838 0.00932187 0.012014 0.0148962 0.017949 0.0211645 0.0245535 0.0281362 0.0319417 0.0359872 0.040309 0.0449484 0.0499272 0.0552019 0.0607056 0.0663884 0.0720834 0.077679 0.0831198 0.0881956 0.093114 0.098196 0.102696 0.105748 0.107005 0.10663 0.10479 0.101561 0.0970821 0.0914648 0.0848473 0.0774129 0.0693872 0.0610157 0.0525259 0.0441609 0.0361632 0.0287174 0.0219565 0.0160159 0.0110015 0.00693338 0.00381781 0.0016558 0.000405118 4.15071e-27 0 -3.27119e-05 -0.000183912 -0.000544614 -0.00118188 -0.00213652 -0.00341954 -0.00502099 -0.00691614 -0.00904987 -0.0113338 -0.0136685 -0.0159477 -0.0180427 -0.0198431 -0.021237 -0.0220924 -0.0222942 -0.021801 -0.0206244 -0.0187148 -0.016176 -0.0131888 -0.00981065 -0.00592922 -0.00166023 0.00441229 0.0092897 0.0140456 0.0183031 0.021562 0.0236459 0.0247639 0.0250484 0.0245674 0.0233949 0.021644 0.0194593 0.0169901 0.01437 0.0117246 0.00920447 0.00692112 0.00493002 0.00328531 0.00202684 0.0011205 0.00051505 0.000172707 2.79137e-05 1.47831e-28 0 -0.000421122 -0.0016792 -0.00386378 -0.00700749 -0.0111044 -0.0161271 -0.0220192 -0.0286812 -0.0359676 -0.0437142 -0.0517459 -0.0598617 -0.0678366 -0.0754589 -0.0825348 -0.0888603 -0.0942385 -0.0985172 -0.101661 -0.103535 -0.104133 -0.103641 -0.102063 -0.0991581 -0.0952733 -0.0899257 -0.0845676 -0.0782885 -0.071346 -0.064366 -0.0580563 -0.0524747 -0.0473888 -0.0427159 -0.038417 -0.0344421 -0.0307363 -0.0272566 -0.023974 -0.0208614 -0.0178665 -0.0149593 -0.0121564 -0.0094828 -0.00696807 -0.0047012 -0.00278711 -0.00130514 -0.000343039 -3.93882e-27 0 -0.000820491 -0.00317905 -0.00715979 -0.0127609 -0.0199531 -0.0286645 -0.0387718 -0.0500961 -0.0624302 -0.075534 -0.0891492 -0.102992 -0.11674 -0.13008 -0.142736 -0.154425 -0.164868 -0.173826 -0.181202 -0.186816 -0.190508 -0.192314 -0.192453 -0.190659 -0.187158 -0.18208 -0.175877 -0.168255 -0.159249 -0.14917 -0.138766 -0.128719 -0.118893 -0.109136 -0.0994243 -0.089778 -0.0802438 -0.0708877 -0.0617809 -0.052988 -0.0445498 -0.0365208 -0.0289925 -0.0220605 -0.0158244 -0.0104328 -0.00604132 -0.00276113 -0.000709959 -7.93575e-27 0 -0.00121668 -0.00464731 -0.0103648 -0.0183555 -0.0285543 -0.0408289 -0.0549917 -0.0708095 -0.0880092 -0.106279 -0.125282 -0.144659 -0.163979 -0.182842 -0.200894 -0.217764 -0.233091 -0.246569 -0.258003 -0.26721 -0.273955 -0.278191 -0.279929 -0.279432 -0.276319 -0.271123 -0.263962 -0.254896 -0.243911 -0.231199 -0.217214 -0.202831 -0.188392 -0.173684 -0.158688 -0.143505 -0.128301 -0.113239 -0.0984779 -0.0841729 -0.0704473 -0.0574425 -0.0453284 -0.0342644 -0.0244153 -0.015991 -0.00919748 -0.00417425 -0.00106498 -1.17647e-26 0 -0.00160017 -0.00605051 -0.0134319 -0.0237066 -0.0367562 -0.0523993 -0.0704043 -0.0904785 -0.112287 -0.135461 -0.159585 -0.184216 -0.208824 -0.232924 -0.256094 -0.277885 -0.297861 -0.31564 -0.330923 -0.343517 -0.353183 -0.359771 -0.363168 -0.363764 -0.361224 -0.355986 -0.347988 -0.337429 -0.324377 -0.309098 -0.291992 -0.273688 -0.254807 -0.235298 -0.215225 -0.19476 -0.174145 -0.153645 -0.133493 -0.113929 -0.0951555 -0.0773998 -0.0609104 -0.045904 -0.0326081 -0.0212917 -0.0122058 -0.00552038 -0.00140207 -1.5404e-26 0 -0.00195955 -0.0073688 -0.0163154 -0.0287129 -0.0444089 -0.0631862 -0.084758 -0.108786 -0.134885 -0.162625 -0.19152 -0.22104 -0.250568 -0.279543 -0.307473 -0.333848 -0.35816 -0.379961 -0.398872 -0.414654 -0.427065 -0.435884 -0.440956 -0.442468 -0.440529 -0.435176 -0.426374 -0.414462 -0.399523 -0.381783 -0.361717 -0.339896 -0.316932 -0.292932 -0.268104 -0.24271 -0.217045 -0.191466 -0.16627 -0.141785 -0.118284 -0.0960783 -0.0754928 -0.0567952 -0.0402722 -0.02625 -0.015019 -0.00677734 -0.00171622 -1.88037e-26 0 -0.00228986 -0.00858747 -0.0189539 -0.0332835 -0.0513883 -0.0730107 -0.0978248 -0.125446 -0.155444 -0.187338 -0.220575 -0.254545 -0.288549 -0.321958 -0.354217 -0.384765 -0.413035 -0.438512 -0.460762 -0.479506 -0.494455 -0.505342 -0.512012 -0.514335 -0.512992 -0.507421 -0.497859 -0.484696 -0.468051 -0.448134 -0.425319 -0.400246 -0.373628 -0.345607 -0.316473 -0.286598 -0.256327 -0.226105 -0.196292 -0.1673 -0.139468 -0.113184 -0.0888454 -0.0667661 -0.0472861 -0.0307867 -0.0175919 -0.00792514 -0.00200321 -2.19099e-26 0 -0.00259139 -0.00967388 -0.0213021 -0.0373429 -0.0575801 -0.0817197 -0.109397 -0.140191 -0.173632 -0.2092 -0.246282 -0.284191 -0.322157 -0.359492 -0.395581 -0.429825 -0.461606 -0.490354 -0.515576 -0.536947 -0.554163 -0.56692 -0.575064 -0.578118 -0.577414 -0.571756 -0.561584 -0.547268 -0.529003 -0.507096 -0.481868 -0.453961 -0.424101 -0.392521 -0.359592 -0.325746 -0.291386 -0.257021 -0.223087 -0.190075 -0.158376 -0.128447 -0.100758 -0.0756595 -0.0535392 -0.0348281 -0.0198801 -0.00894456 -0.00225827 -2.46726e-26 0 -0.00285342 -0.0106104 -0.0233209 -0.0408276 -0.0628864 -0.0891722 -0.119288 -0.152781 -0.189153 -0.227855 -0.268224 -0.309502 -0.350853 -0.391542 -0.430904 -0.468309 -0.5031 -0.53466 -0.562451 -0.586091 -0.60527 -0.619661 -0.629071 -0.63298 -0.632682 -0.6271 -0.616475 -0.601223 -0.581573 -0.557873 -0.530543 -0.500253 -0.467626 -0.433012 -0.396835 -0.35957 -0.321681 -0.283736 -0.246238 -0.209753 -0.174713 -0.141631 -0.111041 -0.0833345 -0.0589324 -0.0383098 -0.0218478 -0.00982012 -0.00247743 -2.70479e-26 0 -0.00307056 -0.0113822 -0.0249782 -0.0436801 -0.0672202 -0.0952475 -0.127338 -0.163014 -0.201756 -0.242999 -0.286043 -0.330064 -0.374172 -0.417589 -0.459616 -0.499604 -0.536861 -0.570732 -0.600648 -0.626175 -0.646992 -0.662766 -0.673259 -0.677949 -0.677998 -0.672532 -0.661588 -0.645619 -0.624879 -0.599741 -0.570694 -0.538451 -0.503579 -0.466495 -0.427648 -0.387558 -0.346747 -0.305834 -0.265385 -0.226027 -0.188221 -0.152528 -0.119535 -0.0896687 -0.06338 -0.0411776 -0.0234672 -0.0105401 -0.0026575 -2.89973e-26 0 -0.0032404 -0.0119766 -0.0262462 -0.0458533 -0.0705109 -0.0998473 -0.133418 -0.170724 -0.211236 -0.254381 -0.299443 -0.345542 -0.391735 -0.437213 -0.481263 -0.52321 -0.562348 -0.597995 -0.629563 -0.656562 -0.678664 -0.695546 -0.70693 -0.7123 -0.712656 -0.707334 -0.696192 -0.679717 -0.658194 -0.632018 -0.601724 -0.568018 -0.53145 -0.492466 -0.451551 -0.409271 -0.366192 -0.322975 -0.280247 -0.238651 -0.198693 -0.160972 -0.126106 -0.0945597 -0.0668099 -0.0433863 -0.0247131 -0.0110935 -0.00279558 -3.04892e-26 0 -0.00335995 -0.0123834 -0.0271035 -0.047311 -0.0727048 -0.102898 -0.137431 -0.175789 -0.217439 -0.261813 -0.308201 -0.355678 -0.403255 -0.450102 -0.495502 -0.538751 -0.579151 -0.616015 -0.648729 -0.676769 -0.699782 -0.717469 -0.729533 -0.735465 -0.736096 -0.730987 -0.719791 -0.703032 -0.681026 -0.654197 -0.623138 -0.588497 -0.550793 -0.510508 -0.468171 -0.424377 -0.379726 -0.33491 -0.290614 -0.247441 -0.205967 -0.166832 -0.130652 -0.0979275 -0.0691654 -0.0449014 -0.0255655 -0.0114709 -0.00288942 -3.15005e-26 0 -0.00342653 -0.0125922 -0.027526 -0.0480083 -0.0737283 -0.10429 -0.139223 -0.178006 -0.220102 -0.264975 -0.311932 -0.36003 -0.408238 -0.455706 -0.501729 -0.545588 -0.58661 -0.62411 -0.657464 -0.686136 -0.709728 -0.727957 -0.74055 -0.747014 -0.747941 -0.743094 -0.732008 -0.715236 -0.693079 -0.666008 -0.634665 -0.59961 -0.561339 -0.520371 -0.477272 -0.432661 -0.387158 -0.341465 -0.296318 -0.252258 -0.209931 -0.170015 -0.133103 -0.0997219 -0.070411 -0.0457 -0.0260112 -0.0116664 -0.00293754 -3.20148e-26 0 -0.0034416 -0.0126144 -0.0275502 -0.0480275 -0.0737338 -0.104271 -0.139163 -0.177877 -0.219882 -0.26468 -0.311607 -0.359721 -0.407958 -0.45543 -0.501441 -0.545284 -0.586294 -0.623805 -0.657189 -0.685918 -0.709553 -0.727806 -0.740447 -0.74698 -0.747957 -0.743287 -0.732352 -0.715716 -0.693686 -0.666775 -0.635579 -0.60061 -0.562367 -0.521378 -0.478232 -0.433558 -0.387977 -0.342196 -0.296954 -0.252783 -0.210347 -0.170334 -0.133322 -0.0998546 -0.0704911 -0.0457481 -0.0260329 -0.0116735 -0.00293866 -3.20233e-26 0 -0.00340103 -0.0124288 -0.0271161 -0.0472419 -0.0724966 -0.102487 -0.136742 -0.17472 -0.215893 -0.259812 -0.305853 -0.353127 -0.400578 -0.447269 -0.492514 -0.535642 -0.575994 -0.612945 -0.645887 -0.67429 -0.697717 -0.715845 -0.728456 -0.735107 -0.736231 -0.731993 -0.721556 -0.705478 -0.684083 -0.657866 -0.627356 -0.593048 -0.555445 -0.515076 -0.472526 -0.428433 -0.383422 -0.338216 -0.293477 -0.249789 -0.207827 -0.168254 -0.131648 -0.0985606 -0.0695546 -0.0451295 -0.0256703 -0.0115057 -0.00289489 -3.15258e-26 0 -0.0033068 -0.0120468 -0.026255 -0.0457155 -0.0701279 -0.0991119 -0.132213 -0.168896 -0.208606 -0.250945 -0.295343 -0.341007 -0.386945 -0.432161 -0.475951 -0.517694 -0.556766 -0.592569 -0.624538 -0.652151 -0.674989 -0.692709 -0.705079 -0.711678 -0.712844 -0.708888 -0.698941 -0.683564 -0.663073 -0.637902 -0.608525 -0.575401 -0.539017 -0.49992 -0.458679 -0.415914 -0.372249 -0.328381 -0.284909 -0.242457 -0.201704 -0.163263 -0.127713 -0.0955898 -0.0674431 -0.0437544 -0.0248816 -0.0111491 -0.00280432 -3.05304e-26 0 -0.00316018 -0.0114742 -0.0249801 -0.0434718 -0.0666636 -0.0941956 -0.125639 -0.160479 -0.198131 -0.238239 -0.280277 -0.323561 -0.367251 -0.410319 -0.452