<?xml version="1.0"?>
<VTKFile type="PolyData">
	<PolyData>
		<Piece NumberOfPoints="2601" NumberOfPolys="2500">
			<Points>
				<DataArray type="Float32" NumberOfComponents="3" format="ascii">
 0 0 0 0.02 0 0 0.04 0 0 0.06 0 0 0.08 0 0 0.1 0 0 0.12 0 0 0.14 0 0 0.16 0 0 0.18 0 0 0.2 0 0 0.22 0 0 0.24 0 0 0.26 0 0 0.28 0 0 0.3 0 0 0.32 0 0 0.34 0 0 0.36 0 0 0.38 0 0 0.4 0 0 0.42 0 0 0.44 0 0 0.46 0 0 0.48 0 0 0.5 0 0 0.52 0 0 0.54 0 0 0.56 0 0 0.58 0 0 0.6 0 0 0.62 0 0 0.64 0 0 0.66 0 0 0.68 0 0 0.7 0 0 0.72 0 0 0.74 0 0 0.76 0 0 0.78 0 0 0.8 0 0 0.82 0 0 0.84 0 0 0.86 0 0 0.88 0 0 0.9 0 0 0.92 0 0 0.94 0 0 0.96 0 0 0.98 0 0 1 0 0 0 0.02 0 0.02 0.02 0 0.04 0.02 0 0.06 0.02 0 0.08 0.02 0 0.1 0.02 0 0.12 0.02 0 0.14 0.02 0 0.16 0.02 0 0.18 0.02 0 0.2 0.02 0 0.22 0.02 0 0.24 0.02 0 0.26 0.02 0 0.28 0.02 0 0.3 0.02 0 0.32 0.02 0 0.34 0.02 0 0.36 0.02 0 0.38 0.02 0 0.4 0.02 0 0.42 0.02 0 0.44 0.02 0 0.46 0.02 0 0.48 0.02 0 0.5 0.02 0 0.52 0.02 0 0.54 0.02 0 0.56 0.02 0 0.58 0.02 0 0.6 0.02 0 0.62 0.02 0 0.64 0.02 0 0.66 0.02 0 0.68 0.02 0 0.7 0.02 0 0.72 0.02 0 0.74 0.02 0 0.76 0.02 0 0.78 0.02 0 0.8 0.02 0 0.82 0.02 0 0.84 0.02 0 0.86 0.02 0 0.88 0.02 0 0.9 0.02 0 0.92 0.02 0 0.94 0.02 0 0.96 0.02 0 0.98 0.02 0 1 0.02 0 0 0.04 0 0.02 0.04 0 0.04 0.04 0 0.06 0.04 0 0.08 0.04 0 0.1 0.04 0 0.12 0.04 0 0.14 0.04 0 0.16 0.04 0 0.18 0.04 0 0.2 0.04 0 0.22 0.04 0 0.24 0.04 0 0.26 0.04 0 0.28 0.04 0 0.3 0.04 0 0.32 0.04 0 0.34 0.04 0 0.36 0.04 0 0.38 0.04 0 0.4 0.04 0 0.42 0.04 0 0.44 0.04 0 0.46 0.04 0 0.48 0.04 0 0.5 0.04 0 0.52 0.04 0 0.54 0.04 0 0.56 0.04 0 0.58 0.04 0 0.6 0.04 0 0.62 0.04 0 0.64 0.04 0 0.66 0.04 0 0.68 0.04 0 0.7 0.04 0 0.72 0.04 0 0.74 0.04 0 0.76 0.04 0 0.78 0.04 0 0.8 0.04 0 0.82 0.04 0 0.84 0.04 0 0.86 0.04 0 0.88 0.04 0 0.9 0.04 0 0.92 0.04 0 0.94 0.04 0 0.96 0.04 0 0.98 0.04 0 1 0.04 0 0 0.06 0 0.02 0.06 0 0.04 0.06 0 0.06 0.06 0 0.08 0.06 0 0.1 0.06 0 0.12 0.06 0 0.14 0.06 0 0.16 0.06 0 0.18 0.06 0 0.2 0.06 0 0.22 0.06 0 0.24 0.06 0 0.26 0.06 0 0.28 0.06 0 0.3 0.06 0 0.32 0.06 0 0.34 0.06 0 0.36 0.06 0 0.38 0.06 0 0.4 0.06 0 0.42 0.06 0 0.44 0.06 0 0.46 0.06 0 0.48 0.06 0 0.5 0.06 0 0.52 0.06 0 0.54 0.06 0 0.56 0.06 0 0.58 0.06 0 0.6 0.06 0 0.62 0.06 0 0.64 0.06 0 0.66 0.06 0 0.68 0.06 0 0.7 0.06 0 0.72 0.06 0 0.74 0.06 0 0.76 0.06 0 0.78 0.06 0 0.8 0.06 0 0.82 0.06 0 0.84 0.06 0 0.86 0.06 0 0.88 0.06 0 0.9 0.06 0 0.92 0.06 0 0.94 0.06 0 0.96 0.06 0 0.98 0.06 0 1 0.06 0 0 0.08 0 0.02 0.08 0 0.04 0.08 0 0.06 0.08 0 0.08 0.08 0 0.1 0.08 0 0.12 0.08 0 0.14 0.08 0 0.16 0.08 0 0.18 0.08 0 0.2 0.08 0 0.22 0.08 0 0.24 0.08 0 0.26 0.08 0 0.28 0.08 0 0.3 0.08 0 0.32 0.08 0 0.34 0.08 0 0.36 0.08 0 0.38 0.08 0 0.4 0.08 0 0.42 0.08 0 0.44 0.08 0 0.46 0.08 0 0.48 0.08 0 0.5 0.08 0 0.52 0.08 0 0.54 0.08 0 0.56 0.08 0 0.58 0.08 0 0.6 0.08 0 0.62 0.08 0 0.64 0.08 0 0.66 0.08 0 0.68 0.08 0 0.7 0.08 0 0.72 0.08 0 0.74 0.08 0 0.76 0.08 0 0.78 0.08 0 0.8 0.08 0 0.82 0.08 0 0.84 0.08 0 0.86 0.08 0 0.88 0.08 0 0.9 0.08 0 0.92 0.08 0 0.94 0.08 0 0.96 0.08 0 0.98 0.08 0 1 0.08 0 0 0.1 0 0.02 0.1 0 0.04 0.1 0 0.06 0.1 0 0.08 0.1 0 0.1 0.1 0 0.12 0.1 0 0.14 0.1 0 0.16 0.1 0 0.18 0.1 0 0.2 0.1 0 0.22 0.1 0 0.24 0.1 0 0.26 0.1 0 0.28 0.1 0 0.3 0.1 0 0.32 0.1 0 0.34 0.1 0 0.36 0.1 0 0.38 0.1 0 0.4 0.1 0 0.42 0.1 0 0.44 0.1 0 0.46 0.1 0 0.48 0.1 0 0.5 0.1 0 0.52 0.1 0 0.54 0.1 0 0.56 0.1 0 0.58 0.1 0 0.6 0.1 0 0.62 0.1 0 0.64 0.1 0 0.66 0.1 0 0.68 0.1 0 0.7 0.1 0 0.72 0.1 0 0.74 0.1 0 0.76 0.1 0 0.78 0.1 0 0.8 0.1 0 0.82 0.1 0 0.84 0.1 0 0.86 0.1 0 0.88 0.1 0 0.9 0.1 0 0.92 0.1 0 0.94 0.1 0 0.96 0.1 0 0.98 0.1 0 1 0.1 0 0 0.12 0 0.02 0.12 0 0.04 0.12 0 0.06 0.12 0 0.08 0.12 0 0.1 0.12 0 0.12 0.12 0 0.14 0.12 0 0.16 0.12 0 0.18 0.12 0 0.2 0.12 0 0.22 0.12 0 0.24 0.12 0 0.26 0.12 0 0.28 0.12 0 0.3 0.12 0 0.32 0.12 0 0.34 0.12 0 0.36 0.12 0 0.38 0.12 0 0.4 0.12 0 0.42 0.12 0 0.44 0.12 0 0.46 0.12 0 0.48 0.12 0 0.5 0.12 0 0.52 0.12 0 0.54 0.12 0 0.56 0.12 0 0.58 0.12 0 0.6 0.12 0 0.62 0.12 0 0.64 0.12 0 0.66 0.12 0 0.68 0.12 0 0.7 0.12 0 0.72 0.12 0 0.74 0.12 0 0.76 0.12 0 0.78 0.12 0 0.8 0.12 0 0.82 0.12 0 0.84 0.12 0 0.86 0.12 0 0.88 0.12 0 0.9 0.12 0 0.92 0.12 0 0.94 0.12 0 0.96 0.12 0 0.98 0.12 0 1 0.12 0 0 0.14 0 0.02 0.14 0 0.04 0.14 0 0.06 0.14 0 0.08 0.14 0 0.1 0.14 0 0.12 0.14 0 0.14 0.14 0 0.16 0.14 0 0.18 0.14 0 0.2 0.14 0 0.22 0.14 0 0.24 0.14 0 0.26 0.14 0 0.28 0.14 0 0.3 0.14 0 0.32 0.14 0 0.34 0.14 0 0.36 0.14 0 0.38 0.14 0 0.4 0.14 0 0.42 0.14 0 0.44 0.14 0 0.46 0.14 0 0.48 0.14 0 0.5 0.14 0 0.52 0.14 0 0.54 0.14 0 0.56 0.14 0 0.58 0.14 0 0.6 0.14 0 0.62 0.14 0 0.64 0.14 0 0.66 0.14 0 0.68 0.14 0 0.7 0.14 0 0.72 0.14 0 0.74 0.14 0 0.76 0.14 0 0.78 0.14 0 0.8 0.14 0 0.82 0.14 0 0.84 0.14 0 0.86 0.14 0 0.88 0.14 0 0.9 0.14 0 0.92 0.14 0 0.94 0.14 0 0.96 0.14 0 0.98 0.14 0 1 0.14 0 0 0.16 0 0.02 0.16 0 0.04 0.16 0 0.06 0.16 0 0.08 0.16 0 0.1 0.16 0 0.12 0.16 0 0.14 0.16 0 0.16 0.16 0 0.18 0.16 0 0.2 0.16 0 0.22 0.16 0 0.24 0.16 0 0.26 0.16 0 0.28 0.16 0 0.3 0.16 0 0.32 0.16 0 0.34 0.16 0 0.36 0.16 0 0.38 0.16 0 0.4 0.16 0 0.42 0.16 0 0.44 0.16 0 0.46 0.16 0 0.48 0.16 0 0.5 0.16 0 0.52 0.16 0 0.54 0.16 0 0.56 0.16 0 0.58 0.16 0 0.6 0.16 0 0.62 0.16 0 0.64 0.16 0 0.66 0.16 0 0.68 0.16 0 0.7 0.16 0 0.72 0.16 0 0.74 0.16 0 0.76 0.16 0 0.78 0.16 0 0.8 0.16 0 0.82 0.16 0 0.84 0.16 0 0.86 0.16 0 0.88 0.16 0 0.9 0.16 0 0.92 0.16 0 0.94 0.16 0 0.96 0.16 0 0.98 0.16 0 1 0.16 0 0 0.18 0 0.02 0.18 0 0.04 0.18 0 0.06 0.18 0 0.08 0.18 0 0.1 0.18 0 0.12 0.18 0 0.14 0.18 0 0.16 0.18 0 0.18 0.18 0 0.2 0.18 0 0.22 0.18 0 0.24 0.18 0 0.26 0.18 0 0.28 0.18 0 0.3 0.18 0 0.32 0.18 0 0.34 0.18 0 0.36 0.18 0 0.38 0.18 0 0.4 0.18 0 0.42 0.18 0 0.44 0.18 0 0.46 0.18 0 0.48 0.18 0 0.5 0.18 0 0.52 0.18 0 0.54 0.18 0 0.56 0.18 0 0.58 0.18 0 0.6 0.18 0 0.62 0.18 0 0.64 0.18 0 0.66 0.18 0 0.68 0.18 0 0.7 0.18 0 0.72 0.18 0 0.74 0.18 0 0.76 0.18 0 0.78 0.18 0 0.8 0.18 0 0.82 0.18 0 0.84 0.18 0 0.86 0.18 0 0.88 0.18 0 0.9 0.18 0 0.92 0.18 0 0.94 0.18 0 0.96 0.18 0 0.98 0.18 0 1 0.18 0 0 0.2 0 0.02 0.2 0 0.04 0.2 0 0.06 0.2 0 0.08 0.2 0 0.1 0.2 0 0.12 0.2 0 0.14 0.2 0 0.16 0.2 0 0.18 0.2 0 0.2 0.2 0 0.22 0.2 0 0.24 0.2 0 0.26 0.2 0 0.28 0.2 0 0.3 0.2 0 0.32 0.2 0 0.34 0.2 0 0.36 0.2 0 0.38 0.2 0 0.4 0.2 0 0.42 0.2 0 0.44 0.2 0 0.46 0.2 0 0.48 0.2 0 0.5 0.2 0 0.52 0.2 0 0.54 0.2 0 0.56 0.2 0 0.58 0.2 0 0.6 0.2 0 0.62 0.2 0 0.64 0.2 0 0.66 0.2 0 0.68 0.2 0 0.7 0.2 0 0.72 0.2 0 0.74 0.2 0 0.76 0.2 0 0.78 0.2 0 0.8 0.2 0 0.82 0.2 0 0.84 0.2 0 0.86 0.2 0 0.88 0.2 0 0.9 0.2 0 0.92 0.2 0 0.94 0.2 0 0.96 0.2 0 0.98 0.2 0 1 0.2 0 0 0.22 0 0.02 0.22 0 0.04 0.22 0 0.06 0.22 0 0.08 0.22 0 0.1 0.22 0 0.12 0.22 0 0.14 0.22 0 0.16 0.22 0 0.18 0.22 0 0.2 0.22 0 0.22 0.22 0 0.24 0.22 0 0.26 0.22 0 0.28 0.22 0 0.3 0.22 0 0.32 0.22 0 0.34 0.22 0 0.36 0.22 0 0.38 0.22 0 0.4 0.22 0 0.42 0.22 0 0.44 0.22 0 0.46 0.22 0 0.48 0.22 0 0.5 0.22 0 0.52 0.22 0 0.54 0.22 0 0.56 0.22 0 0.58 0.22 0 0.6 0.22 0 0.62 0.22 0 0.64 0.22 0 0.66 0.22 0 0.68 0.22 0 0.7 0.22 0 0.72 0.22 0 0.74 0.22 0 0.76 0.22 0 0.78 0.22 0 0.8 0.22 0 0.82 0.22 0 0.84 0.22 0 0.86 0.22 0 0.88 0.22 0 0.9 0.22 0 0.92 0.22 0 0.94 0.22 0 0.96 0.22 0 0.98 0.22 0 1 0.22 0 0 0.24 0 0.02 0.24 0 0.04 0.24 0 0.06 0.24 0 0.08 0.24 0 0.1 0.24 0 0.12 0.24 0 0.14 0.24 0 0.16 0.24 0 0.18 0.24 0 0.2 0.24 0 0.22 0.24 0 0.24 0.24 0 0.26 0.24 0 0.28 0.24 0 0.3 0.24 0 0.32 0.24 0 0.34 0.24 0 0.36 0.24 0 0.38 0.24 0 0.4 0.24 0 0.42 0.24 0 0.44 0.24 0 0.46 0.24 0 0.48 0.24 0 0.5 0.24 0 0.52 0.24 0 0.54 0.24 0 0.56 0.24 0 0.58 0.24 0 0.6 0.24 0 0.62 0.24 0 0.64 0.24 0 0.66 0.24 0 0.68 0.24 0 0.7 0.24 0 0.72 0.24 0 0.74 0.24 0 0.76 0.24 0 0.78 0.24 0 0.8 0.24 0 0.82 0.24 0 0.84 0.24 0 0.86 0.24 0 0.88 0.24 0 0.9 0.24 0 0.92 0.24 0 0.94 0.24 0 0.96 0.24 0 0.98 0.24 0 1 0.24 0 0 0.26 0 0.02 0.26 0 0.04 0.26 0 0.06 0.26 0 0.08 0.26 0 0.1 0.26 0 0.12 0.26 0 0.14 0.26 0 0.16 0.26 0 0.18 0.26 0 0.2 0.26 0 0.22 0.26 0 0.24 0.26 0 0.26 0.26 0 0.28 0.26 0 0.3 0.26 0 0.32 0.26 0 0.34 0.26 0 0.36 0.26 0 0.38 0.26 0 0.4 0.26 0 0.42 0.26 0 0.44 0.26 0 0.46 0.26 0 0.48 0.26 0 0.5 0.26 0 0.52 0.26 0 0.54 0.26 0 0.56 0.26 0 0.58 0.26 0 0.6 0.26 0 0.62 0.26 0 0.64 0.26 0 0.66 0.26 0 0.68 0.26 0 0.7 0.26 0 0.72 0.26 0 0.74 0.26 0 0.76 0.26 0 0.78 0.26 0 0.8 0.26 0 0.82 0.26 0 0.84 0.26 0 0.86 0.26 0 0.88 0.26 0 0.9 0.26 0 0.92 0.26 0 0.94 0.26 0 0.96 0.26 0 0.98 0.26 0 1 0.26 0 0 0.28 0 0.02 0.28 0 0.04 0.28 0 0.06 0.28 0 0.08 0.28 0 0.1 0.28 0 0.12 0.28 0 0.14 0.28 0 0.16 0.28 0 0.18 0.28 0 0.2 0.28 0 0.22 0.28 0 0.24 0.28 0 0.26 0.28 0 0.28 0.28 0 0.3 0.28 0 0.32 0.28 0 0.34 0.28 0 0.36 0.28 0 0.38 0.28 0 0.4 0.28 0 0.42 0.28 0 0.44 0.28 0 0.46 0.28 0 0.48 0.28 0 0.5 0.28 0 0.52 0.28 0 0.54 0.28 0 0.56 0.28 0 0.58 0.28 0 0.6 0.28 0 0.62 0.28 0 0.64 0.28 0 0.66 0.28 0 0.68 0.28 0 0.7 0.28 0 0.72 0.28 0 0.74 0.28 0 0.76 0.28 0 0.78 0.28 0 0.8 0.28 0 0.82 0.28 0 0.84 0.28 0 0.86 0.28 0 0.88 0.28 0 0.9 0.28 0 0.92 0.28 0 0.94 0.28 0 0.96 0.28 0 0.98 0.28 0 1 0.28 0 0 0.3 0 0.02 0.3 0 0.04 0.3 0 0.06 0.3 0 0.08 0.3 0 0.1 0.3 0 0.12 0.3 0 0.14 0.3 0 0.16 0.3 0 0.18 0.3 0 0.2 0.3 0 0.22 0.3 0 0.24 0.3 0 0.26 0.3 0 0.28 0.3 0 0.3 0.3 0 0.32 0.3 0 0.34 0.3 0 0.36 0.3 0 0.38 0.3 0 0.4 0.3 0 0.42 0.3 0 0.44 0.3 0 0.46 0.3 0 0.48 0.3 0 0.5 0.3 0 0.52 0.3 0 0.54 0.3 0 0.56 0.3 0 0.58 0.3 0 0.6 0.3 0 0.62 0.3 0 0.64 0.3 0 0.66 0.3 0 0.68 0.3 0 0.7 0.3 0 0.72 0.3 0 0.74 0.3 0 0.76 0.3 0 0.78 0.3 0 0.8 0.3 0 0.82 0.3 0 0.84 0.3 0 0.86 0.3 0 0.88 0.3 0 0.9 0.3 0 0.92 0.3 0 0.94 0.3 0 0.96 0.3 0 0.98 0.3 0 1 0.3 0 0 0.32 0 0.02 0.32 0 0.04 0.32 0 0.06 0.32 0 0.08 0.32 0 0.1 0.32 0 0.12 0.32 0 0.14 0.32 0 0.16 0.32 0 0.18 0.32 0 0.2 0.32 0 0.22 0.32 0 0.24 0.32 0 0.26 0.32 0 0.28 0.32 0 0.3 0.32 0 0.32 0.32 0 0.34 0.32 0 0.36 0.32 0 0.38 0.32 0 0.4 0.32 0 0.42 0.32 0 0.44 0.32 0 0.46 0.32 0 0.48 0.32 0 0.5 0.32 0 0.52 0.32 0 0.54 0.32 0 0.56 0.32 0 0.58 0.32 0 0.6 0.32 0 0.62 0.32 0 0.64 0.32 0 0.66 0.32 0 0.68 0.32 0 0.7 0.32 0 0.72 0.32 0 0.74 0.32 0 0.76 0.32 0 0.78 0.32 0 0.8 0.32 0 0.82 0.32 0 0.84 0.32 0 0.86 0.32 0 0.88 0.32 0 0.9 0.32 0 0.92 0.32 0 0.94 0.
[...]
			<PointData Scalars="VitesseX">
				<DataArray Name="VitesseX" type="Float32" format="ascii">
 0 0 0 0 0 0 0 0 0 0 0 0 0 0 0 0 0 0 0 0 0 0 0 0 0 0 0 0 0 0 0 0 0 0 0 0 0 0 0 0 0 0 0 0 0 0 0 0 0 0 0 0 0.000442877 0.00176987 0.00395339 0.00700302 0.0107967 0.0152888 0.0204096 0.0260776 0.0322023 0.0386858 0.0454244 0.05231 0.0592343 0.0660836 0.0727469 0.0791165 0.0850891 0.0905613 0.0954418 0.0996612 0.103173 0.105852 0.107608 0.108379 0.108854 0.107613 0.10619 0.104152 0.101235 0.0975622 0.0932274 0.0882919 0.0828128 0.0768866 0.0706043 0.0640547 0.0573425 0.0505784 0.0438689 0.0373161 0.0310273 0.0251022 0.0196323 0.0147028 0.0103905 0.00676168 0.00387186 0.00176112 0.000467295 4.61464e-27 0 0.000858661 0.00343237 0.0076812 0.0135252 0.0208638 0.0295776 0.0395268 0.0505524 0.0624791 0.0751175 0.0882674 0.10172 0.11527 0.128695 0.14178 0.154316 0.166105 0.176956 0.186691 0.195158 0.20221 0.207749 0.21165 0.213783 0.214516 0.213382 0.210865 0.206837 0.201201 0.194063 0.185488 0.175632 0.164704 0.152901 0.140392 0.127385 0.114064 0.100614 0.0872669 0.0742462 0.0617495 0.0499533 0.0390684 0.0292602 0.0206799 0.0134595 0.00770949 0.00351763 0.000946773 9.15649e-27 0 0.00126129 0.00503787 0.0112565 0.0198182 0.0305773 0.043358 0.0579544 0.0741333 0.0916384 0.110195 0.129511 0.149284 0.169217 0.188987 0.208276 0.226783 0.244216 0.260298 0.274773 0.28741 0.298006 0.306381 0.312399 0.315928 0.317087 0.315851 0.312309 0.306387 0.298099 0.287602 0.275054 0.260634 0.244523 0.226968 0.208326 0.18894 0.169146 0.149214 0.129425 0.110105 0.0915726 0.0741092 0.0579498 0.0433969 0.0306682 0.0199581 0.0114301 0.00521382 0.00140336 1.35539e-26 0 0.00164437 0.00655504 0.0146483 0.0257876 0.0397869 0.0564165 0.0754071 0.0964552 0.11923 0.143377 0.168522 0.194273 0.22025 0.246034 0.271212 0.295396 0.318206 0.339283 0.358293 0.374938 0.388949 0.400098 0.408196 0.413091 0.414716 0.413376 0.408915 0.401247 0.390483 0.376805 0.360428 0.34161 0.320636 0.297815 0.273469 0.247984 0.221893 0.195663 0.169676 0.144326 0.12002 0.0971254 0.0759618 0.0568766 0.0401856 0.0261446 0.0149666 0.00682099 0.0018306 1.77375e-26 0 0.002002 0.00796984 0.0178056 0.0313417 0.0483507 0.0685522 0.0916156 0.117174 0.144831 0.17416 0.204711 0.236012 0.267605 0.298984 0.329646 0.359121 0.386952 0.412702 0.435966 0.456378 0.473615 0.487395 0.497488 0.503713 0.505824 0.504409 0.499142 0.489886 0.476853 0.460247 0.440325 0.4174 0.391837 0.364038 0.334413 0.303397 0.271497 0.239304 0.207428 0.176382 0.146633 0.118649 0.0928222 0.0694811 0.0490804 0.0319216 0.018264 0.00831445 0.00222291 2.16409e-26 0 0.00232616 0.0092586 0.0206799 0.0363947 0.0561378 0.0795768 0.106326 0.135968 0.16805 0.202084 0.237547 0.273894 0.310597 0.34707 0.382727 0.417028 0.449442 0.479463 0.506623 0.530494 0.5507 0.566916 0.578871 0.586355 0.588966 0.587514 0.581555 0.570898 0.555831 0.536589 0.513461 0.486808 0.457054 0.424678 0.390192 0.354117 0.316996 0.279422 0.24213 0.205805 0.171026 0.138348 0.108219 0.0810105 0.0572136 0.0372001 0.0212731 0.00967361 0.00257637 2.52025e-26 0 0.00261419 0.0104013 0.0232264 0.0408673 0.0630283 0.089309 0.119295 0.152538 0.188541 0.226752 0.266574 0.307395 0.348628 0.389617 0.429703 0.468284 0.504764 0.538581 0.569207 0.596165 0.619029 0.637434 0.651076 0.659718 0.662832 0.66138 0.654848 0.642994 0.626167 0.604618 0.578674 0.548733 0.515269 0.47882 0.439981 0.399365 0.357592 0.315288 0.273211 0.232159 0.192847 0.155927 0.121926 0.0912774 0.0644553 0.0418969 0.0239475 0.0108786 0.00288705 2.83663e-26 0 0.00286123 0.01138 0.0254044 0.0446835 0.0688844 0.097601 0.13038 0.166728 0.206091 0.247866 0.291409 0.336051 0.381153 0.425996 0.469861 0.512097 0.552056 0.589126 0.622733 0.652355 0.677525 0.697841 0.712969 0.722645 0.726258 0.72485 0.71787 0.705037 0.686751 0.663264 0.634933 0.602195 0.565562 0.52562 0.483024 0.438471 0.392663 0.346285 0.30012 0.255 0.211752 0.171135 0.133762 0.100126 0.0706918 0.0459378 0.026245 0.011911 0.00315092 3.10825e-26 0 0.00306332 0.0121794 0.0271769 0.0477903 0.0736605 0.104364 0.139427 0.178314 0.220421 0.265094 0.311645 0.359365 0.40758 0.455527 0.502447 0.547647 0.590443 0.63018 0.666249 0.698087 0.725193 0.747131 0.763538 0.774126 0.778229 0.776917 0.769644 0.756068 0.736637 0.711612 0.681361 0.646354 0.607137 0.564337 0.51865 0.470836 0.421679 0.371923 0.322395 0.273938 0.227432 0.183738 0.143555 0.107425 0.075827 0.0492597 0.0281295 0.0127548 0.00336427 3.33086e-26 0 0.00321724 0.0127857 0.0285223 0.050144 0.0772794 0.109492 0.146284 0.187078 0.231225 0.278036 0.326799 0.376785 0.427302 0.477562 0.526773 0.574216 0.619175 0.660969 0.698954 0.732541 0.761199 0.784461 0.80194 0.813324 0.817911 0.816755 0.80937 0.795308 0.775065 0.748917 0.717239 0.680524 0.639345 0.594361 0.546302 0.495966 0.444199 0.391814 0.339678 0.288649 0.239619 0.193527 0.151147 0.113063 0.0797821 0.0518107 0.0295714 0.0133967 0.003524 3.50101e-26 0 0.00332052 0.0131903 0.0294177 0.0517049 0.0796764 0.112887 0.150803 0.192804 0.238225 0.286375 0.336536 0.387969 0.43997 0.49174 0.542459 0.591397 0.63782 0.681026 0.720353 0.755189 0.784981 0.809241 0.827557 0.839606 0.844674 0.843732 0.836412 0.822138 0.801441 0.774609 0.742022 0.704185 0.661695 0.615231 0.565552 0.513478 0.459888 0.405657 0.351701 0.298889 0.248109 0.20034 0.156414 0.116953 0.0824965 0.0535515 0.0305484 0.0138268 0.00362779 3.61605e-26 0 0.00336974 0.0133799 0.0298298 0.0524107 0.0807304 0.114325 0.152638 0.195052 0.240914 0.289537 0.340207 0.392184 0.444759 0.497145 0.548512 0.598132 0.645268 0.689214 0.729302 0.764914 0.79548 0.820501 0.839553 0.852296 0.858043 0.857413 0.850324 0.836107 0.815324 0.78826 0.7553 0.716953 0.67382 0.626598 0.576064 0.523066 0.468498 0.413253 0.358287 0.304498 0.25276 0.20406 0.159264 0.119033 0.0839282 0.0544553 0.0310456 0.0140386 0.00367419 3.67422e-26 0 0.00336832 0.0133721 0.0298085 0.0523554 0.0806104 0.114112 0.152304 0.194576 0.240284 0.288747 0.339258 0.391084 0.443524 0.495802 0.547095 0.59668 0.643826 0.687824 0.728006 0.763751 0.794482 0.8197 0.838976 0.851957 0.857972 0.857484 0.850562 0.836489 0.815839 0.788887 0.756016 0.71773 0.674628 0.627399 0.576823 0.523755 0.4691 0.413761 0.358718 0.304875 0.253078 0.204298 0.159411 0.119105 0.0839507 0.0544496 0.0310276 0.0140195 0.00366101 3.67463e-26 0 0.00331295 0.0131482 0.029295 0.0514114 0.0791172 0.111962 0.149388 0.190801 0.235571 0.28304 0.332519 0.383301 0.434703 0.485983 0.536336 0.585062 0.631447 0.674799 0.714465 0.749826 0.780316 0.805443 0.824772 0.83794 0.844329 0.844232 0.83805 0.824709 0.804827 0.778662 0.746584 0.70908 0.66674 0.620245 0.570366 0.51795 0.463905 0.409148 0.354666 0.301402 0.250176 0.201907 0.15748 0.117599 0.0828368 0.0536886 0.0305676 0.0137951 0.00359295 3.6173e-26 0 0.00320528 0.0127165 0.0283058 0.049627 0.0763559 0.108017 0.144074 0.183957 0.227066 0.27277 0.320415 0.369331 0.418865 0.468321 0.516925 0.564011 0.608895 0.65092 0.689455 0.723895 0.753694 0.778368 0.797482 0.810667 0.817378 0.81762 0.812153 0.799659 0.780782 0.755758 0.724934 0.688778 0.647861 0.602845 0.554478 0.503585 0.451057 0.397797 0.344771 0.292941 0.243128 0.196186 0.152964 0.114172 0.0803763 0.0520588 0.0296153 0.0133498 0.00346808 3.50316e-26 0 0.00304715 0.0120813 0.0268478 0.047056 0.0723773 0.102342 0.136446 0.174155 0.214902 0.258099 0.303141 0.349404 0.396271 0.443102 0.489172 0.533861 0.576534 0.616579 0.653392 0.686392 0.715061 0.738927 0.757559 0.770587 0.777557 0.778165 0.77355 0.762149 0.744617 0.721162 0.692108 0.657889 0.619045 0.576212 0.530106 0.481524 0.431322 0.38038 0.329628 0.280007 0.232336 0.187435 0.146088 0.10898 0.0766709 0.0496208 0.0282023 0.0126966 0.00328957 3.33402e-26 0 0.00284073 0.0112497 0.0249549 0.0437429 0.0672429 0.0950253 0.126625 0.161546 0.19927 0.239266 0.280981 0.323844 0.367283 0.410727 0.453517 0.495098 0.534891 0.572341 0.606875 0.637949 0.665071 0.687778 0.705655 0.718343 0.725502 0.726508 0.722868 0.712784 0.696911 0.675425 0.648619 0.616892 0.580741 0.540763 0.497637 0.452112 0.405006 0.357163 0.309463 0.262812 0.217995 0.175798 0.136959 0.102111 0.0717809 0.0464147 0.0263521 0.0118467 0.00306061 3.11253e-26 0 0.00258905 0.0102266 0.0226797 0.0397346 0.061031 0.0861816 0.114762 0.14633 0.180426 0.216578 0.254292 0.293056 0.332355 0.371703 0.410529 0.448354 0.484669 0.518964 0.550693 0.579358 0.604507 0.625707 0.64257 0.654756 0.66199 0.663565 0.660872 0.652357 0.638437 0.619292 0.595171 0.566435 0.533544 0.497048 0.457569 0.415805 0.372518 0.328506 0.284585 0.241614 0.200332 0.16147 0.12572 0.0936645 0.0657848 0.0424929 0.0240957 0.0108145 0.00278505 2.84216e-26 0 0.00229619 0.0090356 0.0200517 0.0350911 0.0538394 0.0759475 0.101046 0.128752 0.158672 0.1904 0.223503 0.25753 0.29204 0.326657 0.360915 0.394405 0.426682 0.457274 0.485681 0.511471 0.534255 0.553648 0.569286 0.580832 0.588012 0.590357 0.588551 0.581845 0.57014 0.553674 0.532644 0.507355 0.478227 0.445764 0.410533 0.373167 0.334363 0.294851 0.255379 0.216742 0.179619 0.144682 0.112551 0.0837712 0.0587767 0.0379188 0.0214701 0.00961727 0.00246752 2.52711e-26 0 0.00196412 0.00771374 0.0171047 0.0298843 0.0457779 0.0644848 0.0856962 0.109095 0.134362 0.161146 0.189074 0.217783 0.246942 0.276269 0.305439 0.334078 0.361779 0.38815 0.412784 0.43533 0.455442 0.472773 0.486982 0.497727 0.504784 0.507937 0.507148 0.502399 0.493135 0.479635 0.462047 0.440614 0.415693 0.387745 0.357284 0.324873 0.291132 0.256722 0.222301 0.188582 0.156181 0.125695 0.0976719 0.0726038 0.0508719 0.0327666 0.0185178 0.00827371 0.00211347 2.17243e-26 0 0.00159564 0.0062762 0.0138832 0.0241951 0.0369737 0.0519772 0.0689589 0.0876791 0.107871 0.129241 0.151499 0.174402 0.197745 0.221339 0.24496 0.268279 0.290948 0.312703 0.333213 0.352178 0.369326 0.384353 0.396935 0.406738 0.41362 0.417622 0.418019 0.415372 0.408745 0.398439 0.384559 0.367295 0.346945 0.32392 0.298675 0.271693 0.243511 0.214712 0.185864 0.157575 0.130382 0.104806 0.0813173 0.0603376 0.0421941 0.0271188 0.0152868 0.00680829 0.00172983 1.78387e-26 0 0.00120567 0.00473861 0.0104373 0.0181115 0.0275684 0.0386244 0.0511063 0.0648291 0.0795794 0.0951492 0.111363 0.1281 0.145272 0.16278 0.180452 0.198053 0.21533 0.232145 0.248217 0.263324 0.277274 0.289791 0.300565 0.30932 0.315994 0.320759 0.3229 0.322087 0.318312 0.311331 0.301345 0.288505 0.273045 0.255287 0.235622 0.214468 0.19226 0.169487 0.146639 0.124206 0.102628 0.0823432 0.06374 0.0471622 0.0328818 0.0210657 0.0118284 0.00524301 0.00132357 1.36752e-26 0 0.000800995 0.0031242 0.00682141 0.01173 0.0177113 0.0246423 0.0324084 0.0408731 0.0499124 0.0594169 0.0693203 0.0796236 0.0903532 0.101483 0.112903 0.12448 0.136112 0.147732 0.15913 0.170189 0.18075 0.19057 0.19937 0.206964 0.213466 0.219126 0.22289 0.224142 0.222989 0.219453 0.213527 0.205348 0.195061 0.182873 0.169097 0.154083 0.138179 0.121768 0.105249 0.0889959 0.0733537 0.0586582 0.045215 0.0332892 0.0230865 0.0147033 0.00820028 0.00360533 0.000900082 9.29835e-27 0 0.000383742 0.00145837 0.00308933 0.0051517 0.00755767 0.0102428 0.0131309 0.0161729 0.0193365 0.0226028 0.0260221 0.0297155 0.0338146 0.038354 0.0433124 0.0486968 0.0545162 0.060762 0.0673268 0.0741506 0.0811464 0.0881292 0.0948416 0.101175 0.107618 0.114394 0.119552 0.122794 0.124329 0.124185 0.122462 0.119078 0.114132 0.107744 0.100107 0.0914713 0.0821086 0.0723027 0.0623463 0.0525024 0.0430175 0.0341225 0.0260336 0.0189365 0.0129614 0.00813256 0.00446052 0.00192412 0.000467229 4.78501e-27 0 -3.95501e-05 -0.000235208 -0.00070267 -0.00152367 -0.00273619 -0.00437546 -0.00644091 -0.00889312 -0.011682 -0.0147314 -0.0178716 -0.0208744 -0.0235132 -0.0256797 -0.0272783 -0.0281815 -0.0282837 -0.0275071 -0.02587 -0.0233801 -0.0200538 -0.0159953 -0.0114356 -0.00646427 -0.000272187 0.00797016 0.0142441 0.0193327 0.0236162 0.0270442 0.0295348 0.0310334 0.0315285 0.0310579 0.0297021 0.0276002 0.0249248 0.0218652 0.0186062 0.0153031 0.0120977 0.00912182 0.00649794 0.00432841 0.00266537 0.0014609 0.000669525 0.000225102 3.56437e-05 2.15936e-28 0 -0.000479413 -0.00194544 -0.0045023 -0.00818756 -0.0130159 -0.0189682 -0.0259568 -0.0338691 -0.0425816 -0.0519112 -0.0615718 -0.0712338 -0.0805987 -0.089458 -0.0975979 -0.104781 -0.110802 -0.115498 -0.118805 -0.120633 -0.121014 -0.119912 -0.117493 -0.11377 -0.108026 -0.0997456 -0.0919592 -0.0847518 -0.077655 -0.0706669 -0.0639117 -0.0575074 -0.0515418 -0.0460675 -0.0411024 -0.0366205 -0.0325566 -0.0288228 -0.0253445 -0.0220722 -0.0189651 -0.0159887 -0.0131153 -0.0103288 -0.00765899 -0.00522101 -0.00312026 -0.00147084 -0.000389571 -4.42107e-27 0 -0.000928051 -0.00365143 -0.00825999 -0.0147701 -0.023162 -0.0333351 -0.0451436 -0.0584143 -0.0729452 -0.0884345 -0.104485 -0.120682 -0.136659 -0.152103 -0.166674 -0.180035 -0.191886 -0.201965 -0.210133 -0.216246 -0.220213 -0.221926 -0.221649 -0.219037 -0.213663 -0.206146 -0.196915 -0.187526 -0.177617 -0.167097 -0.156127 -0.144878 -0.13351 -0.122173 -0.110976 -0.099997 -0.0892726 -0.0788265 -0.0686968 -0.0589369 -0.0496006 -0.0407486 -0.0324485 -0.0247719 -0.0178295 -0.0118007 -0.00685153 -0.00314059 -0.000807823 -9.07413e-27 0 -0.00137148 -0.00531447 -0.0119156 -0.0211714 -0.0329945 -0.0472328 -0.0636904 -0.0821424 -0.102297 -0.123727 -0.145939 -0.168449 -0.190818 -0.212627 -0.233415 -0.25275 -0.270237 -0.28553 -0.298407 -0.308647 -0.316097 -0.3206 -0.322188 -0.320904 -0.316093 -0.308729 -0.29869 -0.287308 -0.274681 -0.260741 -0.245674 -0.229724 -0.213124 -0.1961 -0.178852 -0.161561 -0.144364 -0.127394 -0.110802 -0.0947396 -0.0793502 -0.0647872 -0.0512114 -0.0387823 -0.0276903 -0.0181792 -0.0104708 -0.00475829 -0.00121511 -1.3495e-26 0 -0.00179744 -0.0069051 -0.0154142 -0.0272708 -0.0423407 -0.0604312 -0.0813047 -0.104681 -0.130173 -0.157231 -0.185278 -0.213783 -0.242218 -0.270065 -0.296754 -0.321763 -0.344598 -0.364862 -0.382231 -0.396404 -0.407161 -0.414358 -0.4177 -0.417727 -0.413605 -0.406192 -0.395518 -0.382451 -0.367238 -0.350038 -0.331091 -0.310674 -0.289099 -0.266669 -0.24367 -0.22036 -0.196981 -0.173781 -0.151017 -0.12893 -0.107755 -0.0877323 -0.0691136 -0.0521448 -0.0370927 -0.0242605 -0.013921 -0.00629969 -0.00160367 -1.76735e-26 0 -0.00219651 -0.00840218 -0.0186889 -0.0329604 -0.0510493 -0.0727244 -0.0977077 -0.125669 -0.156127 -0.188414 -0.22188 -0.255956 -0.290034 -0.323492 -0.355673 -0.385964 -0.413788 -0.438695 -0.460274 -0.47814 -0.492018 -0.501711 -0.506921 -0.507965 -0.504656 -0.497128 -0.485819 -0.471289 -0.453756 -0.433525 -0.410961 -0.386409 -0.360218 -0.332756 -0.304388 -0.275462 -0.246294 -0.217262 -0.18871 -0.160968 -0.134363 -0.109221 -0.085875 -0.0646532 -0.0458926 -0.0299509 -0.0171482 -0.00774289 -0.00196574 -2.15734e-26 0 -0.00256618 -0.00977728 -0.0216785 -0.0381483 -0.0589834 -0.0839159 -0.112635 -0.144769 -0.179744 -0.216778 -0.255163 -0.294295 -0.333496 -0.37205 -0.409223 -0.444323 -0.476707 -0.505869 -0.531309 -0.552575 -0.569347 -0.581385 -0.588407 -0.590354 -0.5878 -0.580174 -0.568239 -0.552365 -0.532819 -0.509921 -0.484087 -0.455758 -0.425363 -0.393322 -0.360054 -0.325997 -0.291527 -0.257149 -0.223283 -0.190345 -0.158753 -0.128912 -0.101231 -0.0761078 -0.0539479 -0.035159 -0.0201001 -0.00906355 -0.00229555 -2.51366e-26 0 -0.00290048 -0.011001 -0.0243356 -0.0427527 -0.0660157 -0.0938249 -0.125845 -0.161671 -0.200641 -0.241868 -0.284597 -0.328187 -0.371906 -0.414958 -0.456544 -0.495907 -0.532365 -0.565338 -0.594236 -0.618556 -0.637947 -0.652131 -0.660841 -0.663555 -0.6617 -0.654106 -0.641618 -0.624552 -0.603232 -0.578029 -0.549365 -0.517714 -0.483573 -0.447437 -0.409798 -0.371163 -0.331971 -0.292809 -0.254184 -0.216593 -0.180538 -0.146496 -0.114939 -0.0863255 -0.0611294 -0.0398032 -0.0227312 -0.010239 -0.00258858 -2.83059e-26 0 -0.00318969 -0.0120548 -0.0266181 -0.0466995 -0.0720326 -0.102291 -0.137121 -0.176096 -0.21848 -0.263281 -0.30971 -0.357089 -0.404649 -0.451534 -0.496888 -0.539911 -0.579888 -0.616167 -0.648073 -0.675054 -0.696729 -0.712784 -0.722958 -0.72647 -0.725193 -0.717753 -0.704829 -0.686775 -0.663959 -0.636789 -0.605723 -0.571262 -0.533926 -0.494265 -0.452846 -0.410251 -0.366977 -0.32367 -0.28092 -0.239296 -0.199374 -0.161697 -0.126784 -0.0951433 -0.0673209 -0.0438102 -0.0250005 -0.0112492 -0.00284021 -3.10314e-26 0 -0.00342922 -0.0129221 -0.0284888 -0.0499246 -0.0769371 -0.109177 -0.146277 -0.187806 -0.232968 -0.280671 -0.330095 -0.380536 -0.431207 -0.4812 -0.529617 -0.57564 -0.618521 -0.657541 -0.691962 -0.721167 -0.744736 -0.762349 -0.77374 -0.77816 -0.777269 -0.770071 -0.756849 -0.73805 -0.714056 -0.685304 -0.652282 -0.615517 -0.575572 -0.533034 -0.488508 -0.44264 -0.395985 -0.349239 -0.303068 -0.258098 -0.214969 -0.174276 -0.136583 -0.102434 -0.0724328 -0.0471144 -0.0268686 -0.0120777 -0.00304672 -3.32693e-26 0 -0.00361588 -0.0135884 -0.0299171 -0.0523759 -0.0806505 -0.114371 -0.153163 -0.196604 -0.243865 -0.293758 -0.345421 -0.398159 -0.451166 -0.503493 -0.554225 -0.60253 -0.647635 -0.688783 -0.725189 -0.756153 -0.781207 -0.800056 -0.81245 -0.817668 -0.817123 -0.810205 -0.796844 -0.777557 -0.752734 -0.722826 -0.688341 -0.649832 -0.607889 -0.563133 -0.516211 -0.467814 -0.418537 -0.369117 -0.320284 -0.272709 -0.227082 -0.184039 -0.144181 -0.108085 -0.0763896 -0.0496624 -0.0283043 -0.0127129 -0.00320521 -3.49825e-26 0 -0.00374652 -0.0140427 -0.0308796 -0.0540142 -0.083114 -0.117791 -0.157666 -0.202339 -0.250987 -0.302328 -0.355455 -0.409696 -0.464218 -0.518072 -0.570344 -0.62017 -0.666766 -0.709369 -0.747173 -0.779414 -0.80555 -0.8253 -0.83846 -0.844342 -0.844093 -0.837474 -0.82413 -0.804626 -0.779342 -0.748731 -0.713312 -0.673654 -0.630367 -0.584101 -0.535535 -0.48539 -0.43429 -0.383002 -0.332307 -0.282907 -0.235525 -0.19083 -0.14945 -0.111993 -0.0791206 -0.0514142 -0.0292873 -0.0131466 -0.00331307 -3.61439e-26 0 -0.00381818 -0.014273 -0.0313475 -0.0547848 -0.0842366 -0.1193 -0.159588 -0.204746 -0.253994 -0.305973 -0.359718 -0.414584 -0.469725 -0.524207 -0.577144 -0.627657 -0.674944 -0.718263 -0.756838 -0.789889 -0.816816 -0.837278 -0.851105 -0.857682 -0.857756 -0.851459 -0.838278 -0.818817 -0.793439 -0.76259 -0.726786 -0.686603 -0.642663 -0.59563 -0.546199 -0.49511 -0.44301 -0.390687 -0.338955 -0.288535 -0.240168 -0.194543 -0.152303 -0.114093 -0.0805823 -0.0523425 -0.0298033 -0.0133722 -0.00336849 -3.67352e-26 0 -0.00383306 -0.0142949 -0.0313706 -0.0547985 -0.0842219 -0.119223 -0.159411 -0.204476 -0.253729 -0.30576 -0.359506 -0.414349 -0.469463 -0.523891 -0.576768 -0.627216 -0.674412 -0.717635 -0.756174 -0.789286 -0.816358 -0.836978 -0.850935 -0.857651 -0.857831 -0.851748 -0.83877 -0.819508 -0.794315 -0.763626 -0.727948 -0.68785 -0.643953 -0.596919 -0.547447 -0.496277 -0.444073 -0.391625 -0.339759 -0.289205 -0.240698 -0.194933 -0.152561 -0.11426 -0.0806954 -0.0524021 -0.0298296 -0.0133806 -0.00336986 -3.67463e-26 0 -0.00378623 -0.014082 -0.0308729 -0.053896 -0.0827909 -0.117124 -0.1565 -0.200649 -0.249002 -0.300196 -0.353045 -0.406939 -0.46112 -0.514648 -0.566639 -0.61622 -0.662591 -0.705048 -0.742931 -0.775583 -0.802417 -0.823 -0.837057 -0.844037 -0.844527 -0.839073 -0.826756 -0.808202 -0.783748 -0.753812 -0.718887 -0.679529 -0.636349 -0.590006 -0.541212 -0.490681 -0.439088 -0.387231 -0.335931 -0.285916 -0.237913 -0.19262 -0.15069 -0.112817 -0.0796561 -0.0517049 -0.0294199 -0.0131905 -0.00332011 -3.61766e-26 0 -0.00368019 -0.013648 -0.0298927 -0.0521567 -0.0800855 -0.113233 -0.151192 -0.19371 -0.240353 -0.289936 -0.341127 -0.393271 -0.445692 -0.497493 -0.547804 -0.59577 -0.640628 -0.681677 -0.71828 -0.749884 -0.775968 -0.796099 -0.809979 -0.817074 -0.817803 -0.812833 -0.801187 -0.783478 -0.760021 -0.731212 -0.697523 -0.65949 -0.617707 -0.572823 -0.525531 -0.476504 -0.426416 -0.376058 -0.326231 -0.277635 -0.230978 -0.186959 -0.146226 -0.109453 -0.0772661 -0.05014 -0.0285214 -0.0127836 -0.00321641 -3.50354e-26 0 -0.00351638 -0.0129994 -0.0284444 -0.0496064 -0.0761481 -0.107627 -0.143588 -0.183801 -0.227932 -0.275101 -0.32391 -0.373537 -0.423394 -0.472659 -0.520502 -0.566107 -0.60876 -0.647783 -0.68258 -0.712642 -0.737507 -0.756791 -0.7702 -0.777216 -0.