<?xml version="1.0"?>
<VTKFile type="PolyData">
	<PolyData>
		<Piece NumberOfPoints="2601" NumberOfPolys="2500">
			<Points>
				<DataArray type="Float32" NumberOfComponents="3" format="ascii">
 0 0 0 0.02 0 0 0.04 0 0 0.06 0 0 0.08 0 0 0.1 0 0 0.12 0 0 0.14 0 0 0.16 0 0 0.18 0 0 0.2 0 0 0.22 0 0 0.24 0 0 0.26 0 0 0.28 0 0 0.3 0 0 0.32 0 0 0.34 0 0 0.36 0 0 0.38 0 0 0.4 0 0 0.42 0 0 0.44 0 0 0.46 0 0 0.48 0 0 0.5 0 0 0.52 0 0 0.54 0 0 0.56 0 0 0.58 0 0 0.6 0 0 0.62 0 0 0.64 0 0 0.66 0 0 0.68 0 0 0.7 0 0 0.72 0 0 0.74 0 0 0.76 0 0 0.78 0 0 0.8 0 0 0.82 0 0 0.84 0 0 0.86 0 0 0.88 0 0 0.9 0 0 0.92 0 0 0.94 0 0 0.96 0 0 0.98 0 0 1 0 0 0 0.02 0 0.02 0.02 0 0.04 0.02 0 0.06 0.02 0 0.08 0.02 0 0.1 0.02 0 0.12 0.02 0 0.14 0.02 0 0.16 0.02 0 0.18 0.02 0 0.2 0.02 0 0.22 0.02 0 0.24 0.02 0 0.26 0.02 0 0.28 0.02 0 0.3 0.02 0 0.32 0.02 0 0.34 0.02 0 0.36 0.02 0 0.38 0.02 0 0.4 0.02 0 0.42 0.02 0 0.44 0.02 0 0.46 0.02 0 0.48 0.02 0 0.5 0.02 0 0.52 0.02 0 0.54 0.02 0 0.56 0.02 0 0.58 0.02 0 0.6 0.02 0 0.62 0.02 0 0.64 0.02 0 0.66 0.02 0 0.68 0.02 0 0.7 0.02 0 0.72 0.02 0 0.74 0.02 0 0.76 0.02 0 0.78 0.02 0 0.8 0.02 0 0.82 0.02 0 0.84 0.02 0 0.86 0.02 0 0.88 0.02 0 0.9 0.02 0 0.92 0.02 0 0.94 0.02 0 0.96 0.02 0 0.98 0.02 0 1 0.02 0 0 0.04 0 0.02 0.04 0 0.04 0.04 0 0.06 0.04 0 0.08 0.04 0 0.1 0.04 0 0.12 0.04 0 0.14 0.04 0 0.16 0.04 0 0.18 0.04 0 0.2 0.04 0 0.22 0.04 0 0.24 0.04 0 0.26 0.04 0 0.28 0.04 0 0.3 0.04 0 0.32 0.04 0 0.34 0.04 0 0.36 0.04 0 0.38 0.04 0 0.4 0.04 0 0.42 0.04 0 0.44 0.04 0 0.46 0.04 0 0.48 0.04 0 0.5 0.04 0 0.52 0.04 0 0.54 0.04 0 0.56 0.04 0 0.58 0.04 0 0.6 0.04 0 0.62 0.04 0 0.64 0.04 0 0.66 0.04 0 0.68 0.04 0 0.7 0.04 0 0.72 0.04 0 0.74 0.04 0 0.76 0.04 0 0.78 0.04 0 0.8 0.04 0 0.82 0.04 0 0.84 0.04 0 0.86 0.04 0 0.88 0.04 0 0.9 0.04 0 0.92 0.04 0 0.94 0.04 0 0.96 0.04 0 0.98 0.04 0 1 0.04 0 0 0.06 0 0.02 0.06 0 0.04 0.06 0 0.06 0.06 0 0.08 0.06 0 0.1 0.06 0 0.12 0.06 0 0.14 0.06 0 0.16 0.06 0 0.18 0.06 0 0.2 0.06 0 0.22 0.06 0 0.24 0.06 0 0.26 0.06 0 0.28 0.06 0 0.3 0.06 0 0.32 0.06 0 0.34 0.06 0 0.36 0.06 0 0.38 0.06 0 0.4 0.06 0 0.42 0.06 0 0.44 0.06 0 0.46 0.06 0 0.48 0.06 0 0.5 0.06 0 0.52 0.06 0 0.54 0.06 0 0.56 0.06 0 0.58 0.06 0 0.6 0.06 0 0.62 0.06 0 0.64 0.06 0 0.66 0.06 0 0.68 0.06 0 0.7 0.06 0 0.72 0.06 0 0.74 0.06 0 0.76 0.06 0 0.78 0.06 0 0.8 0.06 0 0.82 0.06 0 0.84 0.06 0 0.86 0.06 0 0.88 0.06 0 0.9 0.06 0 0.92 0.06 0 0.94 0.06 0 0.96 0.06 0 0.98 0.06 0 1 0.06 0 0 0.08 0 0.02 0.08 0 0.04 0.08 0 0.06 0.08 0 0.08 0.08 0 0.1 0.08 0 0.12 0.08 0 0.14 0.08 0 0.16 0.08 0 0.18 0.08 0 0.2 0.08 0 0.22 0.08 0 0.24 0.08 0 0.26 0.08 0 0.28 0.08 0 0.3 0.08 0 0.32 0.08 0 0.34 0.08 0 0.36 0.08 0 0.38 0.08 0 0.4 0.08 0 0.42 0.08 0 0.44 0.08 0 0.46 0.08 0 0.48 0.08 0 0.5 0.08 0 0.52 0.08 0 0.54 0.08 0 0.56 0.08 0 0.58 0.08 0 0.6 0.08 0 0.62 0.08 0 0.64 0.08 0 0.66 0.08 0 0.68 0.08 0 0.7 0.08 0 0.72 0.08 0 0.74 0.08 0 0.76 0.08 0 0.78 0.08 0 0.8 0.08 0 0.82 0.08 0 0.84 0.08 0 0.86 0.08 0 0.88 0.08 0 0.9 0.08 0 0.92 0.08 0 0.94 0.08 0 0.96 0.08 0 0.98 0.08 0 1 0.08 0 0 0.1 0 0.02 0.1 0 0.04 0.1 0 0.06 0.1 0 0.08 0.1 0 0.1 0.1 0 0.12 0.1 0 0.14 0.1 0 0.16 0.1 0 0.18 0.1 0 0.2 0.1 0 0.22 0.1 0 0.24 0.1 0 0.26 0.1 0 0.28 0.1 0 0.3 0.1 0 0.32 0.1 0 0.34 0.1 0 0.36 0.1 0 0.38 0.1 0 0.4 0.1 0 0.42 0.1 0 0.44 0.1 0 0.46 0.1 0 0.48 0.1 0 0.5 0.1 0 0.52 0.1 0 0.54 0.1 0 0.56 0.1 0 0.58 0.1 0 0.6 0.1 0 0.62 0.1 0 0.64 0.1 0 0.66 0.1 0 0.68 0.1 0 0.7 0.1 0 0.72 0.1 0 0.74 0.1 0 0.76 0.1 0 0.78 0.1 0 0.8 0.1 0 0.82 0.1 0 0.84 0.1 0 0.86 0.1 0 0.88 0.1 0 0.9 0.1 0 0.92 0.1 0 0.94 0.1 0 0.96 0.1 0 0.98 0.1 0 1 0.1 0 0 0.12 0 0.02 0.12 0 0.04 0.12 0 0.06 0.12 0 0.08 0.12 0 0.1 0.12 0 0.12 0.12 0 0.14 0.12 0 0.16 0.12 0 0.18 0.12 0 0.2 0.12 0 0.22 0.12 0 0.24 0.12 0 0.26 0.12 0 0.28 0.12 0 0.3 0.12 0 0.32 0.12 0 0.34 0.12 0 0.36 0.12 0 0.38 0.12 0 0.4 0.12 0 0.42 0.12 0 0.44 0.12 0 0.46 0.12 0 0.48 0.12 0 0.5 0.12 0 0.52 0.12 0 0.54 0.12 0 0.56 0.12 0 0.58 0.12 0 0.6 0.12 0 0.62 0.12 0 0.64 0.12 0 0.66 0.12 0 0.68 0.12 0 0.7 0.12 0 0.72 0.12 0 0.74 0.12 0 0.76 0.12 0 0.78 0.12 0 0.8 0.12 0 0.82 0.12 0 0.84 0.12 0 0.86 0.12 0 0.88 0.12 0 0.9 0.12 0 0.92 0.12 0 0.94 0.12 0 0.96 0.12 0 0.98 0.12 0 1 0.12 0 0 0.14 0 0.02 0.14 0 0.04 0.14 0 0.06 0.14 0 0.08 0.14 0 0.1 0.14 0 0.12 0.14 0 0.14 0.14 0 0.16 0.14 0 0.18 0.14 0 0.2 0.14 0 0.22 0.14 0 0.24 0.14 0 0.26 0.14 0 0.28 0.14 0 0.3 0.14 0 0.32 0.14 0 0.34 0.14 0 0.36 0.14 0 0.38 0.14 0 0.4 0.14 0 0.42 0.14 0 0.44 0.14 0 0.46 0.14 0 0.48 0.14 0 0.5 0.14 0 0.52 0.14 0 0.54 0.14 0 0.56 0.14 0 0.58 0.14 0 0.6 0.14 0 0.62 0.14 0 0.64 0.14 0 0.66 0.14 0 0.68 0.14 0 0.7 0.14 0 0.72 0.14 0 0.74 0.14 0 0.76 0.14 0 0.78 0.14 0 0.8 0.14 0 0.82 0.14 0 0.84 0.14 0 0.86 0.14 0 0.88 0.14 0 0.9 0.14 0 0.92 0.14 0 0.94 0.14 0 0.96 0.14 0 0.98 0.14 0 1 0.14 0 0 0.16 0 0.02 0.16 0 0.04 0.16 0 0.06 0.16 0 0.08 0.16 0 0.1 0.16 0 0.12 0.16 0 0.14 0.16 0 0.16 0.16 0 0.18 0.16 0 0.2 0.16 0 0.22 0.16 0 0.24 0.16 0 0.26 0.16 0 0.28 0.16 0 0.3 0.16 0 0.32 0.16 0 0.34 0.16 0 0.36 0.16 0 0.38 0.16 0 0.4 0.16 0 0.42 0.16 0 0.44 0.16 0 0.46 0.16 0 0.48 0.16 0 0.5 0.16 0 0.52 0.16 0 0.54 0.16 0 0.56 0.16 0 0.58 0.16 0 0.6 0.16 0 0.62 0.16 0 0.64 0.16 0 0.66 0.16 0 0.68 0.16 0 0.7 0.16 0 0.72 0.16 0 0.74 0.16 0 0.76 0.16 0 0.78 0.16 0 0.8 0.16 0 0.82 0.16 0 0.84 0.16 0 0.86 0.16 0 0.88 0.16 0 0.9 0.16 0 0.92 0.16 0 0.94 0.16 0 0.96 0.16 0 0.98 0.16 0 1 0.16 0 0 0.18 0 0.02 0.18 0 0.04 0.18 0 0.06 0.18 0 0.08 0.18 0 0.1 0.18 0 0.12 0.18 0 0.14 0.18 0 0.16 0.18 0 0.18 0.18 0 0.2 0.18 0 0.22 0.18 0 0.24 0.18 0 0.26 0.18 0 0.28 0.18 0 0.3 0.18 0 0.32 0.18 0 0.34 0.18 0 0.36 0.18 0 0.38 0.18 0 0.4 0.18 0 0.42 0.18 0 0.44 0.18 0 0.46 0.18 0 0.48 0.18 0 0.5 0.18 0 0.52 0.18 0 0.54 0.18 0 0.56 0.18 0 0.58 0.18 0 0.6 0.18 0 0.62 0.18 0 0.64 0.18 0 0.66 0.18 0 0.68 0.18 0 0.7 0.18 0 0.72 0.18 0 0.74 0.18 0 0.76 0.18 0 0.78 0.18 0 0.8 0.18 0 0.82 0.18 0 0.84 0.18 0 0.86 0.18 0 0.88 0.18 0 0.9 0.18 0 0.92 0.18 0 0.94 0.18 0 0.96 0.18 0 0.98 0.18 0 1 0.18 0 0 0.2 0 0.02 0.2 0 0.04 0.2 0 0.06 0.2 0 0.08 0.2 0 0.1 0.2 0 0.12 0.2 0 0.14 0.2 0 0.16 0.2 0 0.18 0.2 0 0.2 0.2 0 0.22 0.2 0 0.24 0.2 0 0.26 0.2 0 0.28 0.2 0 0.3 0.2 0 0.32 0.2 0 0.34 0.2 0 0.36 0.2 0 0.38 0.2 0 0.4 0.2 0 0.42 0.2 0 0.44 0.2 0 0.46 0.2 0 0.48 0.2 0 0.5 0.2 0 0.52 0.2 0 0.54 0.2 0 0.56 0.2 0 0.58 0.2 0 0.6 0.2 0 0.62 0.2 0 0.64 0.2 0 0.66 0.2 0 0.68 0.2 0 0.7 0.2 0 0.72 0.2 0 0.74 0.2 0 0.76 0.2 0 0.78 0.2 0 0.8 0.2 0 0.82 0.2 0 0.84 0.2 0 0.86 0.2 0 0.88 0.2 0 0.9 0.2 0 0.92 0.2 0 0.94 0.2 0 0.96 0.2 0 0.98 0.2 0 1 0.2 0 0 0.22 0 0.02 0.22 0 0.04 0.22 0 0.06 0.22 0 0.08 0.22 0 0.1 0.22 0 0.12 0.22 0 0.14 0.22 0 0.16 0.22 0 0.18 0.22 0 0.2 0.22 0 0.22 0.22 0 0.24 0.22 0 0.26 0.22 0 0.28 0.22 0 0.3 0.22 0 0.32 0.22 0 0.34 0.22 0 0.36 0.22 0 0.38 0.22 0 0.4 0.22 0 0.42 0.22 0 0.44 0.22 0 0.46 0.22 0 0.48 0.22 0 0.5 0.22 0 0.52 0.22 0 0.54 0.22 0 0.56 0.22 0 0.58 0.22 0 0.6 0.22 0 0.62 0.22 0 0.64 0.22 0 0.66 0.22 0 0.68 0.22 0 0.7 0.22 0 0.72 0.22 0 0.74 0.22 0 0.76 0.22 0 0.78 0.22 0 0.8 0.22 0 0.82 0.22 0 0.84 0.22 0 0.86 0.22 0 0.88 0.22 0 0.9 0.22 0 0.92 0.22 0 0.94 0.22 0 0.96 0.22 0 0.98 0.22 0 1 0.22 0 0 0.24 0 0.02 0.24 0 0.04 0.24 0 0.06 0.24 0 0.08 0.24 0 0.1 0.24 0 0.12 0.24 0 0.14 0.24 0 0.16 0.24 0 0.18 0.24 0 0.2 0.24 0 0.22 0.24 0 0.24 0.24 0 0.26 0.24 0 0.28 0.24 0 0.3 0.24 0 0.32 0.24 0 0.34 0.24 0 0.36 0.24 0 0.38 0.24 0 0.4 0.24 0 0.42 0.24 0 0.44 0.24 0 0.46 0.24 0 0.48 0.24 0 0.5 0.24 0 0.52 0.24 0 0.54 0.24 0 0.56 0.24 0 0.58 0.24 0 0.6 0.24 0 0.62 0.24 0 0.64 0.24 0 0.66 0.24 0 0.68 0.24 0 0.7 0.24 0 0.72 0.24 0 0.74 0.24 0 0.76 0.24 0 0.78 0.24 0 0.8 0.24 0 0.82 0.24 0 0.84 0.24 0 0.86 0.24 0 0.88 0.24 0 0.9 0.24 0 0.92 0.24 0 0.94 0.24 0 0.96 0.24 0 0.98 0.24 0 1 0.24 0 0 0.26 0 0.02 0.26 0 0.04 0.26 0 0.06 0.26 0 0.08 0.26 0 0.1 0.26 0 0.12 0.26 0 0.14 0.26 0 0.16 0.26 0 0.18 0.26 0 0.2 0.26 0 0.22 0.26 0 0.24 0.26 0 0.26 0.26 0 0.28 0.26 0 0.3 0.26 0 0.32 0.26 0 0.34 0.26 0 0.36 0.26 0 0.38 0.26 0 0.4 0.26 0 0.42 0.26 0 0.44 0.26 0 0.46 0.26 0 0.48 0.26 0 0.5 0.26 0 0.52 0.26 0 0.54 0.26 0 0.56 0.26 0 0.58 0.26 0 0.6 0.26 0 0.62 0.26 0 0.64 0.26 0 0.66 0.26 0 0.68 0.26 0 0.7 0.26 0 0.72 0.26 0 0.74 0.26 0 0.76 0.26 0 0.78 0.26 0 0.8 0.26 0 0.82 0.26 0 0.84 0.26 0 0.86 0.26 0 0.88 0.26 0 0.9 0.26 0 0.92 0.26 0 0.94 0.26 0 0.96 0.26 0 0.98 0.26 0 1 0.26 0 0 0.28 0 0.02 0.28 0 0.04 0.28 0 0.06 0.28 0 0.08 0.28 0 0.1 0.28 0 0.12 0.28 0 0.14 0.28 0 0.16 0.28 0 0.18 0.28 0 0.2 0.28 0 0.22 0.28 0 0.24 0.28 0 0.26 0.28 0 0.28 0.28 0 0.3 0.28 0 0.32 0.28 0 0.34 0.28 0 0.36 0.28 0 0.38 0.28 0 0.4 0.28 0 0.42 0.28 0 0.44 0.28 0 0.46 0.28 0 0.48 0.28 0 0.5 0.28 0 0.52 0.28 0 0.54 0.28 0 0.56 0.28 0 0.58 0.28 0 0.6 0.28 0 0.62 0.28 0 0.64 0.28 0 0.66 0.28 0 0.68 0.28 0 0.7 0.28 0 0.72 0.28 0 0.74 0.28 0 0.76 0.28 0 0.78 0.28 0 0.8 0.28 0 0.82 0.28 0 0.84 0.28 0 0.86 0.28 0 0.88 0.28 0 0.9 0.28 0 0.92 0.28 0 0.94 0.28 0 0.96 0.28 0 0.98 0.28 0 1 0.28 0 0 0.3 0 0.02 0.3 0 0.04 0.3 0 0.06 0.3 0 0.08 0.3 0 0.1 0.3 0 0.12 0.3 0 0.14 0.3 0 0.16 0.3 0 0.18 0.3 0 0.2 0.3 0 0.22 0.3 0 0.24 0.3 0 0.26 0.3 0 0.28 0.3 0 0.3 0.3 0 0.32 0.3 0 0.34 0.3 0 0.36 0.3 0 0.38 0.3 0 0.4 0.3 0 0.42 0.3 0 0.44 0.3 0 0.46 0.3 0 0.48 0.3 0 0.5 0.3 0 0.52 0.3 0 0.54 0.3 0 0.56 0.3 0 0.58 0.3 0 0.6 0.3 0 0.62 0.3 0 0.64 0.3 0 0.66 0.3 0 0.68 0.3 0 0.7 0.3 0 0.72 0.3 0 0.74 0.3 0 0.76 0.3 0 0.78 0.3 0 0.8 0.3 0 0.82 0.3 0 0.84 0.3 0 0.86 0.3 0 0.88 0.3 0 0.9 0.3 0 0.92 0.3 0 0.94 0.3 0 0.96 0.3 0 0.98 0.3 0 1 0.3 0 0 0.32 0 0.02 0.32 0 0.04 0.32 0 0.06 0.32 0 0.08 0.32 0 0.1 0.32 0 0.12 0.32 0 0.14 0.32 0 0.16 0.32 0 0.18 0.32 0 0.2 0.32 0 0.22 0.32 0 0.24 0.32 0 0.26 0.32 0 0.28 0.32 0 0.3 0.32 0 0.32 0.32 0 0.34 0.32 0 0.36 0.32 0 0.38 0.32 0 0.4 0.32 0 0.42 0.32 0 0.44 0.32 0 0.46 0.32 0 0.48 0.32 0 0.5 0.32 0 0.52 0.32 0 0.54 0.32 0 0.56 0.32 0 0.58 0.32 0 0.6 0.32 0 0.62 0.32 0 0.64 0.32 0 0.66 0.32 0 0.68 0.32 0 0.7 0.32 0 0.72 0.32 0 0.74 0.32 0 0.76 0.32 0 0.78 0.32 0 0.8 0.32 0 0.82 0.32 0 0.84 0.32 0 0.86 0.32 0 0.88 0.32 0 0.9 0.32 0 0.92 0.32 0 0.94 0.
[...]
			<PointData Scalars="VitesseX">
				<DataArray Name="VitesseX" type="Float32" format="ascii">
 0 0 0 0 0 0 0 0 0 0 0 0 0 0 0 0 0 0 0 0 0 0 0 0 0 0 0 0 0 0 0 0 0 0 0 0 0 0 0 0 0 0 0 0 0 0 0 0 0 0 -0 0 -0.000301949 -0.00102546 -0.00218499 -0.00376246 -0.00573326 -0.00806664 -0.0107262 -0.0136704 -0.0168532 -0.0202249 -0.0237328 -0.0273239 -0.0309301 -0.0345137 -0.0380128 -0.0413767 -0.0445552 -0.047463 -0.0500749 -0.0523631 -0.0542849 -0.0558091 -0.0569118 -0.0575629 -0.0582284 -0.0585075 -0.05811 -0.0571321 -0.055679 -0.0537947 -0.0515152 -0.048861 -0.0458863 -0.0426616 -0.0392242 -0.0356266 -0.0319304 -0.0281958 -0.0244833 -0.0208521 -0.017361 -0.0140663 -0.0110215 -0.00827502 -0.00586186 -0.00379318 -0.00215189 -0.000968121 -0.00024526 -2.90088e-27 0 -0.000579411 -0.0020026 -0.00429255 -0.00741412 -0.0113189 -0.0159462 -0.0212236 -0.0270688 -0.0333791 -0.0400878 -0.0470151 -0.0541473 -0.0614337 -0.0685674 -0.0755062 -0.08216 -0.0884249 -0.0942024 -0.0994017 -0.103941 -0.107749 -0.110766 -0.112944 -0.114222 -0.114858 -0.114762 -0.113677 -0.111631 -0.108697 -0.10494 -0.1004 -0.0951645 -0.0893406 -0.0830076 -0.076273 -0.0692397 -0.0620215 -0.0547354 -0.0474982 -0.040424 -0.0336258 -0.0272126 -0.0212873 -0.0159454 -0.0112692 -0.00731593 -0.00414246 -0.00185718 -0.000468345 -5.30451e-27 0 -0.00083501 -0.00292905 -0.00630919 -0.010924 -0.0167026 -0.0235627 -0.0314141 -0.0401579 -0.0495619 -0.0594766 -0.069791 -0.080351 -0.0909893 -0.101531 -0.111812 -0.121671 -0.130951 -0.139507 -0.147204 -0.15392 -0.159549 -0.164004 -0.167213 -0.169084 -0.169803 -0.169374 -0.167585 -0.164443 -0.160019 -0.154399 -0.147656 -0.13991 -0.131301 -0.121955 -0.112027 -0.101672 -0.0910512 -0.0803375 -0.069701 -0.0593073 -0.0493213 -0.0399016 -0.0311987 -0.0233522 -0.0164862 -0.010703 -0.00607507 -0.0027169 -0.000684047 -7.62599e-27 0 -0.0010736 -0.00380437 -0.00821982 -0.0142659 -0.021895 -0.0309666 -0.0412411 -0.0525836 -0.0648435 -0.077832 -0.091346 -0.105183 -0.119122 -0.132935 -0.146404 -0.159318 -0.171472 -0.182672 -0.192743 -0.201525 -0.208879 -0.21469 -0.218867 -0.221286 -0.222111 -0.221381 -0.21889 -0.21467 -0.208803 -0.201387 -0.192529 -0.182381 -0.17111 -0.158895 -0.145931 -0.132419 -0.118569 -0.104605 -0.0907469 -0.0772084 -0.0642026 -0.0519352 -0.0406006 -0.0303802 -0.0214369 -0.0139091 -0.0079098 -0.00353309 -0.000888985 -9.82915e-27 0 -0.00129219 -0.00461796 -0.010044 -0.0175142 -0.0268171 -0.0377864 -0.0502905 -0.0641381 -0.0791129 -0.0949802 -0.111491 -0.128397 -0.145428 -0.162302 -0.178754 -0.194523 -0.209359 -0.223026 -0.235306 -0.246007 -0.25496 -0.262025 -0.267092 -0.270006 -0.270931 -0.269917 -0.266753 -0.261505 -0.25427 -0.245161 -0.234315 -0.221912 -0.208152 -0.193256 -0.177461 -0.161008 -0.144152 -0.127164 -0.110311 -0.0938505 -0.0780395 -0.0631265 -0.049347 -0.0369201 -0.0260447 -0.0168929 -0.00960625 -0.00429311 -0.00107995 -1.18796e-26 0 -0.00151429 -0.00543643 -0.0117827 -0.0204133 -0.0311963 -0.0439752 -0.0585517 -0.0746979 -0.0921607 -0.110666 -0.129922 -0.149639 -0.169499 -0.189174 -0.208353 -0.226729 -0.244012 -0.259925 -0.274217 -0.286661 -0.297062 -0.305259 -0.311125 -0.314474 -0.315483 -0.314204 -0.310408 -0.304204 -0.295704 -0.285035 -0.272363 -0.257896 -0.241859 -0.224511 -0.206132 -0.187002 -0.167408 -0.147669 -0.128094 -0.108978 -0.0906186 -0.0733026 -0.057302 -0.0428702 -0.0302379 -0.0196086 -0.0111484 -0.00498919 -0.00125398 -1.37453e-26 0 -0.00170702 -0.0061212 -0.0132419 -0.0229425 -0.0350859 -0.0494831 -0.0659087 -0.0841054 -0.103787 -0.124645 -0.146348 -0.16857 -0.190951 -0.213118 -0.234722 -0.255417 -0.274872 -0.292778 -0.30885 -0.322835 -0.334514 -0.343706 -0.35027 -0.353991 -0.355064 -0.353535 -0.349156 -0.342079 -0.332429 -0.320358 -0.306061 -0.289768 -0.271724 -0.25219 -0.2315 -0.21 -0.187983 -0.165806 -0.143822 -0.122358 -0.101746 -0.0823064 -0.0643426 -0.0481381 -0.0339517 -0.022014 -0.0125144 -0.0056068 -0.00140817 -1.53972e-26 0 -0.00185635 -0.00669596 -0.0144826 -0.0251166 -0.0384339 -0.054226 -0.0722454 -0.0922093 -0.113804 -0.136688 -0.160501 -0.18488 -0.209433 -0.233747 -0.257438 -0.280126 -0.301448 -0.321062 -0.338657 -0.353955 -0.366717 -0.376751 -0.383904 -0.387932 -0.389045 -0.387278 -0.382373 -0.374523 -0.363861 -0.350559 -0.334835 -0.316938 -0.297147 -0.275767 -0.25315 -0.229648 -0.205565 -0.181294 -0.157257 -0.133787 -0.111251 -0.0899989 -0.0703596 -0.0526419 -0.0371282 -0.0240719 -0.0136831 -0.00613006 -0.00153985 -1.68092e-26 0 -0.00199341 -0.00715647 -0.0154997 -0.0269017 -0.0411847 -0.0581248 -0.0774565 -0.0988761 -0.122046 -0.146601 -0.172152 -0.198308 -0.224647 -0.250724 -0.276126 -0.300445 -0.323289 -0.344297 -0.36313 -0.379507 -0.39316 -0.403869 -0.411485 -0.415756 -0.4169 -0.414928 -0.409579 -0.40108 -0.389575 -0.375255 -0.358352 -0.339136 -0.31791 -0.295005 -0.27078 -0.245604 -0.219836 -0.193899 -0.168193 -0.143086 -0.118987 -0.096261 -0.0752597 -0.0563116 -0.039718 -0.0257503 -0.0146365 -0.00655695 -0.00164767 -1.79593e-26 0 -0.00209 -0.00750515 -0.0162756 -0.0282667 -0.0432913 -0.0611141 -0.0814556 -0.103996 -0.12838 -0.154221 -0.181109 -0.208633 -0.236345 -0.263775 -0.290488 -0.316056 -0.340065 -0.362142 -0.381921 -0.3991 -0.413416 -0.424636 -0.432596 -0.437036 -0.438189 -0.436034 -0.430325 -0.421309 -0.409143 -0.394028 -0.376214 -0.355986 -0.333662 -0.309584 -0.284125 -0.257679 -0.230636 -0.203422 -0.17645 -0.150114 -0.124831 -0.100995 -0.0789665 -0.0590899 -0.0416804 -0.027023 -0.0153596 -0.00688086 -0.00172973 -1.88294e-26 0 -0.00214863 -0.00773676 -0.0167964 -0.0291879 -0.0447181 -0.0631442 -0.0841772 -0.107486 -0.132703 -0.159428 -0.187234 -0.215696 -0.244348 -0.272706 -0.300331 -0.326741 -0.351525 -0.374308 -0.394721 -0.412437 -0.427189 -0.438741 -0.446912 -0.45144 -0.452568 -0.450265 -0.44428 -0.434884 -0.422235 -0.406554 -0.388103 -0.367176 -0.344102 -0.319235 -0.292955 -0.26567 -0.237777 -0.209714 -0.181914 -0.154769 -0.128699 -0.104126 -0.0814217 -0.0609328 -0.0429844 -0.0278699 -0.0158413 -0.00709673 -0.00178476 -1.94059e-26 0 -0.00217294 -0.00784656 -0.0170519 -0.0296479 -0.0454392 -0.0641795 -0.0855749 -0.109288 -0.134945 -0.162137 -0.190429 -0.219389 -0.248542 -0.2774 -0.305464 -0.33229 -0.357476 -0.380623 -0.401354 -0.419332 -0.434277 -0.445959 -0.454199 -0.458738 -0.459815 -0.45737 -0.451169 -0.441508 -0.428546 -0.412521 -0.39371 -0.3724 -0.348923 -0.323649 -0.296961 -0.269263 -0.240963 -0.21251 -0.184337 -0.156836 -0.13042 -0.105508 -0.0825055 -0.0617511 -0.043567 -0.0282506 -0.0160584 -0.00719406 -0.00180972 -1.96796e-26 0 -0.00216325 -0.00783051 -0.0170306 -0.029623 -0.0454128 -0.0641541 -0.0855532 -0.109273 -0.134939 -0.162144 -0.190452 -0.219431 -0.248614 -0.277462 -0.305526 -0.332385 -0.357606 -0.38077 -0.401503 -0.419476 -0.434406 -0.446066 -0.454281 -0.45879 -0.459835 -0.457351 -0.451115 -0.441417 -0.428412 -0.412348 -0.393504 -0.372155 -0.348652 -0.32337 -0.296681 -0.268988 -0.240698 -0.212254 -0.184106 -0.156655 -0.130288 -0.105399 -0.0824012 -0.061677 -0.0435181 -0.0282209 -0.016042 -0.00718682 -0.0018072 -1.96463e-26 0 -0.00212039 -0.00769482 -0.0167526 -0.0291583 -0.0447221 -0.0632027 -0.0843113 -0.107716 -0.133046 -0.159897 -0.187841 -0.21645 -0.245225 -0.273673 -0.301374 -0.327882 -0.352741 -0.375543 -0.395937 -0.413595 -0.428221 -0.439593 -0.447531 -0.451794 -0.452611 -0.450064 -0.443834 -0.434201 -0.421318 -0.405437 -0.386835 -0.36578 -0.342619 -0.317712 -0.291444 -0.264231 -0.236437 -0.208488 -0.180828 -0.153865 -0.127997 -0.103568 -0.0809693 -0.060603 -0.0427669 -0.0277384 -0.01577 -0.00706574 -0.00177682 -1.93065e-26 0 -0.00204443 -0.00743708 -0.016208 -0.0282289 -0.0433176 -0.0612418 -0.0817216 -0.104435 -0.129022 -0.15509 -0.182221 -0.209989 -0.237883 -0.265492 -0.29239 -0.318094 -0.342171 -0.364254 -0.384 -0.401058 -0.415152 -0.426084 -0.433659 -0.437645 -0.438294 -0.43568 -0.42955 -0.42013 -0.407567 -0.392116 -0.374047 -0.353612 -0.331156 -0.307025 -0.281596 -0.255253 -0.228382 -0.201395 -0.174681 -0.14863 -0.123649 -0.100086 -0.0782683 -0.0585675 -0.0413384 -0.0268173 -0.0152494 -0.00683355 -0.00171862 -1.86655e-26 0 -0.00193651 -0.00706269 -0.0154092 -0.0268574 -0.0412367 -0.0583266 -0.0778611 -0.0995328 -0.122997 -0.14788 -0.173786 -0.200255 -0.226874 -0.253235 -0.27889 -0.303375 -0.326304 -0.347343 -0.366121 -0.382294 -0.395643 -0.405946 -0.413029 -0.416658 -0.417119 -0.414426 -0.408485 -0.399422 -0.387375 -0.372594 -0.35534 -0.335847 -0.314445 -0.291469 -0.267275 -0.242233 -0.216704 -0.191079 -0.165745 -0.141035 -0.117332 -0.0949967 -0.0743051 -0.0556048 -0.0392549 -0.0254717 -0.014488 -0.00649382 -0.00163342 -1.77324e-26 0 -0.00179828 -0.0065772 -0.0143687 -0.0250662 -0.0385135 -0.0545056 -0.0727937 -0.0930901 -0.115072 -0.138387 -0.162661 -0.187428 -0.212372 -0.237076 -0.261072 -0.283955 -0.305405 -0.325065 -0.342544 -0.357584 -0.369962 -0.379475 -0.385951 -0.389161 -0.389431 -0.386628 -0.380945 -0.372355 -0.361003 -0.347133 -0.330985 -0.312753 -0.292748 -0.271286 -0.248708 -0.225359 -0.201578 -0.177726 -0.154161 -0.131199 -0.109152 -0.0883812 -0.0691583 -0.0517759 -0.0365486 -0.0237223 -0.0134976 -0.00605175 -0.00152256 -1.65179e-26 0 -0.00163327 -0.00598697 -0.0131017 -0.0228839 -0.0351916 -0.0498375 -0.0665958 -0.0852033 -0.105363 -0.12675 -0.149003 -0.171727 -0.19461 -0.217253 -0.239215 -0.260158 -0.27979 -0.297736 -0.313635 -0.327291 -0.338488 -0.347047 -0.352811 -0.355553 -0.355625 -0.352608 -0.347044 -0.338798 -0.328167 -0.31549 -0.30093 -0.284488 -0.266338 -0.246783 -0.226186 -0.2049 -0.183241 -0.161538 -0.140115 -0.119258 -0.0992336 -0.0803601 -0.0629101 -0.047119 -0.0332622 -0.0215963 -0.0122935 -0.00551419 -0.00138774 -1.50364e-26 0 -0.00144481 -0.00531119 -0.0116374 -0.0203461 -0.0313181 -0.0443929 -0.0593666 -0.0760015 -0.094029 -0.113154 -0.133043 -0.153384 -0.173855 -0.194074 -0.213664 -0.232359 -0.249851 -0.265755 -0.279828 -0.291868 -0.301687 -0.309131 -0.314063 -0.316247 -0.315933 -0.312547 -0.306978 -0.29923 -0.289439 -0.27783 -0.264602 -0.250254 -0.234928 -0.218154 -0.200034 -0.181176 -0.161986 -0.142775 -0.123829 -0.105405 -0.0877365 -0.0710553 -0.0556438 -0.0416956 -0.0294439 -0.0191269 -0.0108945 -0.00488947 -0.00123107 -1.33187e-26 0 -0.00123443 -0.00455618 -0.0100004 -0.0175075 -0.0269785 -0.0382777 -0.0512302 -0.0656306 -0.081249 -0.0978232 -0.115054 -0.13269 -0.150423 -0.167902 -0.184827 -0.200973 -0.216027 -0.229643 -0.241659 -0.251879 -0.260144 -0.266323 -0.270277 -0.271709 -0.270762 -0.267748 -0.262841 -0.256013 -0.24739 -0.237147 -0.225359 -0.212466 -0.198771 -0.184855 -0.170378 -0.154531 -0.138144 -0.121736 -0.105576 -0.0898755 -0.0748315 -0.0606196 -0.0474926 -0.0356075 -0.0251588 -0.0163529 -0.00932231 -0.00418734 -0.001055 -1.14017e-26 0 -0.00100583 -0.00372945 -0.00821221 -0.0144112 -0.0222457 -0.0316022 -0.0423403 -0.0542894 -0.0672562 -0.0810214 -0.0953276 -0.109967 -0.124676 -0.139144 -0.153131 -0.166446 -0.178801 -0.18993 -0.199685 -0.207907 -0.214465 -0.219252 -0.222103 -0.2228 -0.221713 -0.219062 -0.21478 -0.208874 -0.201531 -0.192923 -0.183113 -0.172391 -0.160828 -0.148731 -0.13691 -0.125162 -0.112075 -0.0987452 -0.0856263 -0.0728988 -0.0607204 -0.0492171 -0.0385808 -0.0289492 -0.0204737 -0.0133189 -0.00760174 -0.00341874 -0.000862269 -9.30979e-27 0 -0.000765043 -0.00285116 -0.00630329 -0.0110972 -0.0171764 -0.0244562 -0.0328275 -0.0421551 -0.0522774 -0.0630234 -0.0741836 -0.0855833 -0.0970218 -0.10825 -0.11906 -0.129293 -0.13873 -0.147167 -0.15448 -0.160548 -0.165279 -0.168601 -0.170387 -0.170546 -0.169299 -0.166888 -0.163219 -0.158323 -0.152373 -0.145525 -0.137828 -0.129517 -0.120652 -0.111321 -0.101748 -0.0929147 -0.0840937 -0.0741501 -0.0642908 -0.0547463 -0.045629 -0.037014 -0.0290381 -0.0218198 -0.0154577 -0.0100707 -0.00575986 -0.00259572 -0.000655901 -7.0729e-27 0 -0.000516098 -0.00193878 -0.00431092 -0.00762633 -0.0118572 -0.016947 -0.0228194 -0.0293783 -0.0365064 -0.0440753 -0.0519278 -0.0599152 -0.0678968 -0.0757074 -0.0831752 -0.0901654 -0.0965266 -0.102134 -0.106889 -0.110711 -0.113549 -0.115381 -0.116158 -0.115755 -0.114214 -0.111989 -0.108996 -0.105201 -0.100755 -0.0957797 -0.0903073 -0.0845118 -0.0784459 -0.0721697 -0.0657382 -0.0593799 -0.0542689 -0.048295 -0.0418808 -0.0356819 -0.0297772 -0.024207 -0.0190292 -0.0143415 -0.0101929 -0.00665948 -0.00382588 -0.00173122 -0.000439127 -4.72597e-27 0 -0.000263067 -0.00101038 -0.00227608 -0.00406884 -0.00638902 -0.00920877 -0.0124904 -0.0161783 -0.0201995 -0.0244702 -0.0288918 -0.0333493 -0.0377603 -0.0420304 -0.0460406 -0.0496937 -0.0528937 -0.0555916 -0.0577174 -0.0592344 -0.0601306 -0.0604253 -0.0601552 -0.0592203 -0.0572009 -0.055172 -0.0529358 -0.0503409 -0.0474927 -0.0444716 -0.0413116 -0.0381188 -0.0349343 -0.031773 -0.0286724 -0.0256279 -0.0232104 -0.0214865 -0.0187086 -0.0159847 -0.0134095 -0.0109863 -0.00870773 -0.00662912 -0.0047608 -0.00314067 -0.00182944 -0.000838804 -0.000215326 -2.30412e-27 0 -1.80698e-05 -8.87801e-05 -0.000239446 -0.000494066 -0.000871358 -0.00137924 -0.00201784 -0.00277428 -0.00362102 -0.00452858 -0.00545111 -0.00631216 -0.00709002 -0.00774754 -0.00823035 -0.00849282 -0.00848783 -0.00822467 -0.00768272 -0.00686169 -0.00578947 -0.00451296 -0.00309625 -0.00158606 0.00163297 0.00256949 0.00408016 0.00543242 0.00664927 0.0076746 0.00845633 0.00898621 0.00923589 0.00922263 0.00895322 0.00846914 0.00770191 0.00594961 0.00491166 0.00406667 0.00323477 0.00245515 0.00178011 0.00121186 0.0007615 0.000433335 0.000200205 6.71381e-05 1.1543e-05 1.04897e-28 0 0.000206983 0.000810883 0.00177655 0.00306289 0.00462737 0.00643187 0.00844281 0.0106318 0.0129762 0.015452 0.0180485 0.0207904 0.0236565 0.0266195 0.0296733 0.0328152 0.0360211 0.0392402 0.0424393 0.04558 0.0485943 0.0514058 0.0539305 0.0560885 0.0585206 0.0599561 0.0609011 0.0610953 0.0607088 0.0597323 0.058127 0.0559856 0.0533238 0.0501447 0.0465168 0.0425244 0.0382522 0.0332831 0.0284623 0.0240589 0.0198323 0.0158632 0.012243 0.00903635 0.00627354 0.00400314 0.00223255 0.000977856 0.000243007 2.53991e-27 0 0.000430355 0.00170255 0.00377037 0.0065764 0.0100543 0.014136 0.0187504 0.0238303 0.029308 0.0351157 0.0411827 0.0474704 0.0539242 0.060448 0.0669756 0.0734657 0.0798224 0.0859349 0.0917329 0.0971378 0.102046 0.106349 0.109946 0.11275 0.114994 0.116305 0.116623 0.115731 0.113817 0.110912 0.107053 0.10233 0.0967891 0.0904948 0.0835661 0.0761377 0.0683543 0.0600094 0.0515406 0.0436643 0.0361203 0.0290276 0.0225212 0.0167222 0.0116905 0.00751572 0.00423681 0.00187966 0.000474477 4.95553e-27 0 0.000647834 0.00256629 0.00570234 0.00998178 0.0153157 0.0216066 0.0287487 0.0366337 0.0451493 0.0541814 0.0636113 0.0733454 0.0832745 0.0932518 0.103142 0.11285 0.122254 0.13119 0.139493 0.147048 0.153777 0.159519 0.164152 0.167583 0.169841 0.170875 0.170489 0.168561 0.165213 0.16047 0.154445 0.147229 0.13889 0.12958 0.119463 0.108721 0.0975621 0.0858605 0.0738209 0.0625919 0.0518488 0.0417435 0.032453 0.0241517 0.016932 0.0109176 0.00617898 0.00275579 0.000700507 7.30124e-27 0 0.000855472 0.00338915 0.00754308 0.0132269 0.0203304 0.0287279 0.0382807 0.0488411 0.0602549 0.0723614 0.0849939 0.0980084 0.111241 0.124507 0.137605 0.150358 0.162634 0.174248 0.184975 0.194618 0.203028 0.21011 0.215729 0.219753 0.222106 0.22284 0.221795 0.218849 0.214097 0.207594 0.199473 0.189845 0.178839 0.166654 0.153505 0.139621 0.125266 0.110374 0.0949508 0.0805431 0.06677 0.0538107 0.0418818 0.0312081 0.0219152 0.0141539 0.00802598 0.00359124 0.000916795 9.53485e-27 0 0.00104865 0.0041581 0.00926372 0.0162608 0.0250196 0.0353882 0.047197 0.0602615 0.0743873 0.0893701 0.104999 0.121069 0.13738 0.15372 0.169819 0.18543 0.200359 0.214416 0.227382 0.238996 0.249049 0.257413 0.263929 0.268466 0.270877 0.271351 0.26969 0.265758 0.259656 0.251472 0.241347 0.22945 0.215987 0.201169 0.185231 0.168439 0.151111 0.133197 0.114593 0.0972372 0.0806504 0.0650404 0.0506597 0.0377806 0.0265585 0.0171718 0.00975136 0.00437097 0.00111961 1.16194e-26 0 0.00122502 0.00486345 0.0108374 0.019036 0.0293099 0.0414834 0.0553582 0.0707163 0.0873257 0.104942 0.123313 0.142182 0.161304 0.180429 0.199267 0.21751 0.234877 0.251147 0.26609 0.279457 0.291012 0.300547 0.307888 0.312905 0.315427 0.315625 0.313374 0.308491 0.301128 0.291426 0.279542 0.265671 0.250016 0.232799 0.214309 0.194856 0.174813 0.154 0.132437 0.112415 0.0932742 0.0752574 0.0586492 0.0437661 0.0307891 0.0199244 0.0113294 0.00508324 0.00130461 1.35212e-26 0 0.00138249 0.00550147 0.0122398 0.0215094 0.0331343 0.0469179 0.0626364 0.0800418 0.0988681 0.118835 0.139651 0.161018 0.18265 0.204237 0.225484 0.246067 0.265636 0.283895 0.300592 0.315477 0.328308 0.338856 0.34693 0.352382 0.355013 0.354958 0.352169 0.346451 0.338018 0.327014 0.313584 0.297949 0.280308 0.260922 0.240137 0.218312 0.195856 0.172315 0.148217 0.125846 0.104446 0.0843036 0.0657258 0.049071 0.0345416 0.0223678 0.0127322 0.0057186 0.00146865 1.52105e-26 0 0.00151808 0.00604089 0.0134488 0.0236423 0.0364331 0.0516071 0.0689181 0.0880925 0.108834 0.130832 0.153759 0.177282 0.20108 0.224804 0.248096 0.270654 0.292116 0.312113 0.330341 0.346532 0.360435 0.371825 0.380502 0.386303 0.388993 0.388725 0.385486 0.379082 0.369743 0.357593 0.342766 0.325517 0.30612 0.284885 0.262157 0.238319 0.213792 0.187741 0.161681 0.137328 0.113996 0.0920391 0.0717802 0.0536128 0.0377572 0.0244635 0.0139371 0.00626517 0.00161071 1.66613e-26 0 0.00162995 0.00648356 0.0144458 0.0254017 0.039155 0.0554778 0.0741055 0.0947427 0.117069 0.140745 0.165418 0.190723 0.216307 0.241795 0.266795 0.290939 0.313911 0.335319 0.35481 0.372092 0.386871 0.398926 0.408068 0.414124 0.416842 0.416392 0.412782 0.405789 0.395639 0.382484 0.366521 0.347993 0.327193 0.304451 0.280133 0.25466 0.228385 0.200047 0.172623 0.146666 0.121776 0.0983453 0.07672 0.057321 0.0403858 0.0261785 0.0149248 0.00671279 0.00172823 1.78503e-26 0 0.00171635 0.00682827 0.0152191 0.0267604 0.041258 0.05847 0.0781178 0.0998893 0.123445 0.148423 0.174447 0.201131 0.228097 0.254944 0.281257 0.306649 0.330743 0.353183 0.373626 0.391734 0.407166 0.419705 0.429179 0.435407 0.438123 0.437515 0.433595 0.426111 0.415335 0.401422 0.384581 0.36507 0.343195 0.319302 0.293775 0.267077 0.239281 0.209156 0.18089 0.153725 0.127666 0.103125 0.0804706 0.0601388 0.0423864 0.0274861 0.0156787 0.00705452 0.00181816 1.87584e-26 0 0.00177587 0.00706848 0.0157683 0.0276976 0.0427098 0.0605375 0.0808931 0.103452 0.127862 0.153744 0.180707 0.208346 0.236266 0.264049 0.29126 0.317499 0.342371 0.365507 0.386552 0.405174 0.421015 0.433852 0.443518 0.449827 0.452506 0.451757 0.447597 0.439763 0.428544 0.414103 0.396656 0.376473 0.353867 0.329197 0.302865 0.275336 0.245967 0.215155 0.186365 0.158406 0.131575 0.106306 0.0829777 0.0620239 0.0437275 0.0283653 0.0161842 0.00728486 0.00187922 1.93714e-26 0 0.00180753 0.00719408 0.0160519 0.0281988 0.043488 0.0616487 0.0823887 0.105377 0.130253 0.156629 0.184102 0.212257 0.24069 0.26897 0.296652 0.323325 0.348586 0.372059 0.393388 0.41224 0.428246 0.441182 0.450884 0.457165 0.45976 0.458875 0.454537 0.446472 0.434982 0.420236 0.402456 0.381915 0.358934 0.333875 0.307167 0.279117 0.248215 0.217806 0.188796 0.160504 0.133348 0.107764 0.0841541 0.062917 0.0443688 0.0287916 0.0164243 0.00739906 0.00191044 1.96796e-26 0 0.00181059 0.00720499 0.0160768 0.0282543 0.0435705 0.0617694 0.0825556 0.105598 0.130532 0.15697 0.184505 0.212717 0.2412 0.26952 0.297227 0.32391 0.349163 0.37261 0.393897 0.412694 0.428626 0.441475 0.451084 0.457267 0.459768 0.458869 0.454529 0.446459 0.434964 0.420214 0.402431 0.381888 0.358905 0.333853 0.307167 0.278321 0.246931 0.217558 0.18863 0.160381 0.133263 0.107695 0.0841293 0.062908 0.0443668 0.0287971 0.0164178 0.00740152 0.00191216 1.96783e-26 0 0.00178857 0.00711578 0.0158841 0.0279358 0.0430537 0.0610409 0.0815894 0.104371 0.129026 0.155166 0.182386 0.210268 0.238404 0.266363 0.293696 0.319993 0.34485 0.367895 0.388782 0.407181 0.422724 0.435198 0.444457 0.450319 0.452561 0.451569 0.447229 0.439221 0.427849 0.413283 0.395743 0.375499 0.352868 0.328239 0.301731 0.271642 0.242428 0.213817 0.1854