<?xml version="1.0"?>
<VTKFile type="PolyData">
	<PolyData>
		<Piece NumberOfPoints="2601" NumberOfPolys="2500">
			<Points>
				<DataArray type="Float32" NumberOfComponents="3" format="ascii">
 0 0 0 0.02 0 0 0.04 0 0 0.06 0 0 0.08 0 0 0.1 0 0 0.12 0 0 0.14 0 0 0.16 0 0 0.18 0 0 0.2 0 0 0.22 0 0 0.24 0 0 0.26 0 0 0.28 0 0 0.3 0 0 0.32 0 0 0.34 0 0 0.36 0 0 0.38 0 0 0.4 0 0 0.42 0 0 0.44 0 0 0.46 0 0 0.48 0 0 0.5 0 0 0.52 0 0 0.54 0 0 0.56 0 0 0.58 0 0 0.6 0 0 0.62 0 0 0.64 0 0 0.66 0 0 0.68 0 0 0.7 0 0 0.72 0 0 0.74 0 0 0.76 0 0 0.78 0 0 0.8 0 0 0.82 0 0 0.84 0 0 0.86 0 0 0.88 0 0 0.9 0 0 0.92 0 0 0.94 0 0 0.96 0 0 0.98 0 0 1 0 0 0 0.02 0 0.02 0.02 0 0.04 0.02 0 0.06 0.02 0 0.08 0.02 0 0.1 0.02 0 0.12 0.02 0 0.14 0.02 0 0.16 0.02 0 0.18 0.02 0 0.2 0.02 0 0.22 0.02 0 0.24 0.02 0 0.26 0.02 0 0.28 0.02 0 0.3 0.02 0 0.32 0.02 0 0.34 0.02 0 0.36 0.02 0 0.38 0.02 0 0.4 0.02 0 0.42 0.02 0 0.44 0.02 0 0.46 0.02 0 0.48 0.02 0 0.5 0.02 0 0.52 0.02 0 0.54 0.02 0 0.56 0.02 0 0.58 0.02 0 0.6 0.02 0 0.62 0.02 0 0.64 0.02 0 0.66 0.02 0 0.68 0.02 0 0.7 0.02 0 0.72 0.02 0 0.74 0.02 0 0.76 0.02 0 0.78 0.02 0 0.8 0.02 0 0.82 0.02 0 0.84 0.02 0 0.86 0.02 0 0.88 0.02 0 0.9 0.02 0 0.92 0.02 0 0.94 0.02 0 0.96 0.02 0 0.98 0.02 0 1 0.02 0 0 0.04 0 0.02 0.04 0 0.04 0.04 0 0.06 0.04 0 0.08 0.04 0 0.1 0.04 0 0.12 0.04 0 0.14 0.04 0 0.16 0.04 0 0.18 0.04 0 0.2 0.04 0 0.22 0.04 0 0.24 0.04 0 0.26 0.04 0 0.28 0.04 0 0.3 0.04 0 0.32 0.04 0 0.34 0.04 0 0.36 0.04 0 0.38 0.04 0 0.4 0.04 0 0.42 0.04 0 0.44 0.04 0 0.46 0.04 0 0.48 0.04 0 0.5 0.04 0 0.52 0.04 0 0.54 0.04 0 0.56 0.04 0 0.58 0.04 0 0.6 0.04 0 0.62 0.04 0 0.64 0.04 0 0.66 0.04 0 0.68 0.04 0 0.7 0.04 0 0.72 0.04 0 0.74 0.04 0 0.76 0.04 0 0.78 0.04 0 0.8 0.04 0 0.82 0.04 0 0.84 0.04 0 0.86 0.04 0 0.88 0.04 0 0.9 0.04 0 0.92 0.04 0 0.94 0.04 0 0.96 0.04 0 0.98 0.04 0 1 0.04 0 0 0.06 0 0.02 0.06 0 0.04 0.06 0 0.06 0.06 0 0.08 0.06 0 0.1 0.06 0 0.12 0.06 0 0.14 0.06 0 0.16 0.06 0 0.18 0.06 0 0.2 0.06 0 0.22 0.06 0 0.24 0.06 0 0.26 0.06 0 0.28 0.06 0 0.3 0.06 0 0.32 0.06 0 0.34 0.06 0 0.36 0.06 0 0.38 0.06 0 0.4 0.06 0 0.42 0.06 0 0.44 0.06 0 0.46 0.06 0 0.48 0.06 0 0.5 0.06 0 0.52 0.06 0 0.54 0.06 0 0.56 0.06 0 0.58 0.06 0 0.6 0.06 0 0.62 0.06 0 0.64 0.06 0 0.66 0.06 0 0.68 0.06 0 0.7 0.06 0 0.72 0.06 0 0.74 0.06 0 0.76 0.06 0 0.78 0.06 0 0.8 0.06 0 0.82 0.06 0 0.84 0.06 0 0.86 0.06 0 0.88 0.06 0 0.9 0.06 0 0.92 0.06 0 0.94 0.06 0 0.96 0.06 0 0.98 0.06 0 1 0.06 0 0 0.08 0 0.02 0.08 0 0.04 0.08 0 0.06 0.08 0 0.08 0.08 0 0.1 0.08 0 0.12 0.08 0 0.14 0.08 0 0.16 0.08 0 0.18 0.08 0 0.2 0.08 0 0.22 0.08 0 0.24 0.08 0 0.26 0.08 0 0.28 0.08 0 0.3 0.08 0 0.32 0.08 0 0.34 0.08 0 0.36 0.08 0 0.38 0.08 0 0.4 0.08 0 0.42 0.08 0 0.44 0.08 0 0.46 0.08 0 0.48 0.08 0 0.5 0.08 0 0.52 0.08 0 0.54 0.08 0 0.56 0.08 0 0.58 0.08 0 0.6 0.08 0 0.62 0.08 0 0.64 0.08 0 0.66 0.08 0 0.68 0.08 0 0.7 0.08 0 0.72 0.08 0 0.74 0.08 0 0.76 0.08 0 0.78 0.08 0 0.8 0.08 0 0.82 0.08 0 0.84 0.08 0 0.86 0.08 0 0.88 0.08 0 0.9 0.08 0 0.92 0.08 0 0.94 0.08 0 0.96 0.08 0 0.98 0.08 0 1 0.08 0 0 0.1 0 0.02 0.1 0 0.04 0.1 0 0.06 0.1 0 0.08 0.1 0 0.1 0.1 0 0.12 0.1 0 0.14 0.1 0 0.16 0.1 0 0.18 0.1 0 0.2 0.1 0 0.22 0.1 0 0.24 0.1 0 0.26 0.1 0 0.28 0.1 0 0.3 0.1 0 0.32 0.1 0 0.34 0.1 0 0.36 0.1 0 0.38 0.1 0 0.4 0.1 0 0.42 0.1 0 0.44 0.1 0 0.46 0.1 0 0.48 0.1 0 0.5 0.1 0 0.52 0.1 0 0.54 0.1 0 0.56 0.1 0 0.58 0.1 0 0.6 0.1 0 0.62 0.1 0 0.64 0.1 0 0.66 0.1 0 0.68 0.1 0 0.7 0.1 0 0.72 0.1 0 0.74 0.1 0 0.76 0.1 0 0.78 0.1 0 0.8 0.1 0 0.82 0.1 0 0.84 0.1 0 0.86 0.1 0 0.88 0.1 0 0.9 0.1 0 0.92 0.1 0 0.94 0.1 0 0.96 0.1 0 0.98 0.1 0 1 0.1 0 0 0.12 0 0.02 0.12 0 0.04 0.12 0 0.06 0.12 0 0.08 0.12 0 0.1 0.12 0 0.12 0.12 0 0.14 0.12 0 0.16 0.12 0 0.18 0.12 0 0.2 0.12 0 0.22 0.12 0 0.24 0.12 0 0.26 0.12 0 0.28 0.12 0 0.3 0.12 0 0.32 0.12 0 0.34 0.12 0 0.36 0.12 0 0.38 0.12 0 0.4 0.12 0 0.42 0.12 0 0.44 0.12 0 0.46 0.12 0 0.48 0.12 0 0.5 0.12 0 0.52 0.12 0 0.54 0.12 0 0.56 0.12 0 0.58 0.12 0 0.6 0.12 0 0.62 0.12 0 0.64 0.12 0 0.66 0.12 0 0.68 0.12 0 0.7 0.12 0 0.72 0.12 0 0.74 0.12 0 0.76 0.12 0 0.78 0.12 0 0.8 0.12 0 0.82 0.12 0 0.84 0.12 0 0.86 0.12 0 0.88 0.12 0 0.9 0.12 0 0.92 0.12 0 0.94 0.12 0 0.96 0.12 0 0.98 0.12 0 1 0.12 0 0 0.14 0 0.02 0.14 0 0.04 0.14 0 0.06 0.14 0 0.08 0.14 0 0.1 0.14 0 0.12 0.14 0 0.14 0.14 0 0.16 0.14 0 0.18 0.14 0 0.2 0.14 0 0.22 0.14 0 0.24 0.14 0 0.26 0.14 0 0.28 0.14 0 0.3 0.14 0 0.32 0.14 0 0.34 0.14 0 0.36 0.14 0 0.38 0.14 0 0.4 0.14 0 0.42 0.14 0 0.44 0.14 0 0.46 0.14 0 0.48 0.14 0 0.5 0.14 0 0.52 0.14 0 0.54 0.14 0 0.56 0.14 0 0.58 0.14 0 0.6 0.14 0 0.62 0.14 0 0.64 0.14 0 0.66 0.14 0 0.68 0.14 0 0.7 0.14 0 0.72 0.14 0 0.74 0.14 0 0.76 0.14 0 0.78 0.14 0 0.8 0.14 0 0.82 0.14 0 0.84 0.14 0 0.86 0.14 0 0.88 0.14 0 0.9 0.14 0 0.92 0.14 0 0.94 0.14 0 0.96 0.14 0 0.98 0.14 0 1 0.14 0 0 0.16 0 0.02 0.16 0 0.04 0.16 0 0.06 0.16 0 0.08 0.16 0 0.1 0.16 0 0.12 0.16 0 0.14 0.16 0 0.16 0.16 0 0.18 0.16 0 0.2 0.16 0 0.22 0.16 0 0.24 0.16 0 0.26 0.16 0 0.28 0.16 0 0.3 0.16 0 0.32 0.16 0 0.34 0.16 0 0.36 0.16 0 0.38 0.16 0 0.4 0.16 0 0.42 0.16 0 0.44 0.16 0 0.46 0.16 0 0.48 0.16 0 0.5 0.16 0 0.52 0.16 0 0.54 0.16 0 0.56 0.16 0 0.58 0.16 0 0.6 0.16 0 0.62 0.16 0 0.64 0.16 0 0.66 0.16 0 0.68 0.16 0 0.7 0.16 0 0.72 0.16 0 0.74 0.16 0 0.76 0.16 0 0.78 0.16 0 0.8 0.16 0 0.82 0.16 0 0.84 0.16 0 0.86 0.16 0 0.88 0.16 0 0.9 0.16 0 0.92 0.16 0 0.94 0.16 0 0.96 0.16 0 0.98 0.16 0 1 0.16 0 0 0.18 0 0.02 0.18 0 0.04 0.18 0 0.06 0.18 0 0.08 0.18 0 0.1 0.18 0 0.12 0.18 0 0.14 0.18 0 0.16 0.18 0 0.18 0.18 0 0.2 0.18 0 0.22 0.18 0 0.24 0.18 0 0.26 0.18 0 0.28 0.18 0 0.3 0.18 0 0.32 0.18 0 0.34 0.18 0 0.36 0.18 0 0.38 0.18 0 0.4 0.18 0 0.42 0.18 0 0.44 0.18 0 0.46 0.18 0 0.48 0.18 0 0.5 0.18 0 0.52 0.18 0 0.54 0.18 0 0.56 0.18 0 0.58 0.18 0 0.6 0.18 0 0.62 0.18 0 0.64 0.18 0 0.66 0.18 0 0.68 0.18 0 0.7 0.18 0 0.72 0.18 0 0.74 0.18 0 0.76 0.18 0 0.78 0.18 0 0.8 0.18 0 0.82 0.18 0 0.84 0.18 0 0.86 0.18 0 0.88 0.18 0 0.9 0.18 0 0.92 0.18 0 0.94 0.18 0 0.96 0.18 0 0.98 0.18 0 1 0.18 0 0 0.2 0 0.02 0.2 0 0.04 0.2 0 0.06 0.2 0 0.08 0.2 0 0.1 0.2 0 0.12 0.2 0 0.14 0.2 0 0.16 0.2 0 0.18 0.2 0 0.2 0.2 0 0.22 0.2 0 0.24 0.2 0 0.26 0.2 0 0.28 0.2 0 0.3 0.2 0 0.32 0.2 0 0.34 0.2 0 0.36 0.2 0 0.38 0.2 0 0.4 0.2 0 0.42 0.2 0 0.44 0.2 0 0.46 0.2 0 0.48 0.2 0 0.5 0.2 0 0.52 0.2 0 0.54 0.2 0 0.56 0.2 0 0.58 0.2 0 0.6 0.2 0 0.62 0.2 0 0.64 0.2 0 0.66 0.2 0 0.68 0.2 0 0.7 0.2 0 0.72 0.2 0 0.74 0.2 0 0.76 0.2 0 0.78 0.2 0 0.8 0.2 0 0.82 0.2 0 0.84 0.2 0 0.86 0.2 0 0.88 0.2 0 0.9 0.2 0 0.92 0.2 0 0.94 0.2 0 0.96 0.2 0 0.98 0.2 0 1 0.2 0 0 0.22 0 0.02 0.22 0 0.04 0.22 0 0.06 0.22 0 0.08 0.22 0 0.1 0.22 0 0.12 0.22 0 0.14 0.22 0 0.16 0.22 0 0.18 0.22 0 0.2 0.22 0 0.22 0.22 0 0.24 0.22 0 0.26 0.22 0 0.28 0.22 0 0.3 0.22 0 0.32 0.22 0 0.34 0.22 0 0.36 0.22 0 0.38 0.22 0 0.4 0.22 0 0.42 0.22 0 0.44 0.22 0 0.46 0.22 0 0.48 0.22 0 0.5 0.22 0 0.52 0.22 0 0.54 0.22 0 0.56 0.22 0 0.58 0.22 0 0.6 0.22 0 0.62 0.22 0 0.64 0.22 0 0.66 0.22 0 0.68 0.22 0 0.7 0.22 0 0.72 0.22 0 0.74 0.22 0 0.76 0.22 0 0.78 0.22 0 0.8 0.22 0 0.82 0.22 0 0.84 0.22 0 0.86 0.22 0 0.88 0.22 0 0.9 0.22 0 0.92 0.22 0 0.94 0.22 0 0.96 0.22 0 0.98 0.22 0 1 0.22 0 0 0.24 0 0.02 0.24 0 0.04 0.24 0 0.06 0.24 0 0.08 0.24 0 0.1 0.24 0 0.12 0.24 0 0.14 0.24 0 0.16 0.24 0 0.18 0.24 0 0.2 0.24 0 0.22 0.24 0 0.24 0.24 0 0.26 0.24 0 0.28 0.24 0 0.3 0.24 0 0.32 0.24 0 0.34 0.24 0 0.36 0.24 0 0.38 0.24 0 0.4 0.24 0 0.42 0.24 0 0.44 0.24 0 0.46 0.24 0 0.48 0.24 0 0.5 0.24 0 0.52 0.24 0 0.54 0.24 0 0.56 0.24 0 0.58 0.24 0 0.6 0.24 0 0.62 0.24 0 0.64 0.24 0 0.66 0.24 0 0.68 0.24 0 0.7 0.24 0 0.72 0.24 0 0.74 0.24 0 0.76 0.24 0 0.78 0.24 0 0.8 0.24 0 0.82 0.24 0 0.84 0.24 0 0.86 0.24 0 0.88 0.24 0 0.9 0.24 0 0.92 0.24 0 0.94 0.24 0 0.96 0.24 0 0.98 0.24 0 1 0.24 0 0 0.26 0 0.02 0.26 0 0.04 0.26 0 0.06 0.26 0 0.08 0.26 0 0.1 0.26 0 0.12 0.26 0 0.14 0.26 0 0.16 0.26 0 0.18 0.26 0 0.2 0.26 0 0.22 0.26 0 0.24 0.26 0 0.26 0.26 0 0.28 0.26 0 0.3 0.26 0 0.32 0.26 0 0.34 0.26 0 0.36 0.26 0 0.38 0.26 0 0.4 0.26 0 0.42 0.26 0 0.44 0.26 0 0.46 0.26 0 0.48 0.26 0 0.5 0.26 0 0.52 0.26 0 0.54 0.26 0 0.56 0.26 0 0.58 0.26 0 0.6 0.26 0 0.62 0.26 0 0.64 0.26 0 0.66 0.26 0 0.68 0.26 0 0.7 0.26 0 0.72 0.26 0 0.74 0.26 0 0.76 0.26 0 0.78 0.26 0 0.8 0.26 0 0.82 0.26 0 0.84 0.26 0 0.86 0.26 0 0.88 0.26 0 0.9 0.26 0 0.92 0.26 0 0.94 0.26 0 0.96 0.26 0 0.98 0.26 0 1 0.26 0 0 0.28 0 0.02 0.28 0 0.04 0.28 0 0.06 0.28 0 0.08 0.28 0 0.1 0.28 0 0.12 0.28 0 0.14 0.28 0 0.16 0.28 0 0.18 0.28 0 0.2 0.28 0 0.22 0.28 0 0.24 0.28 0 0.26 0.28 0 0.28 0.28 0 0.3 0.28 0 0.32 0.28 0 0.34 0.28 0 0.36 0.28 0 0.38 0.28 0 0.4 0.28 0 0.42 0.28 0 0.44 0.28 0 0.46 0.28 0 0.48 0.28 0 0.5 0.28 0 0.52 0.28 0 0.54 0.28 0 0.56 0.28 0 0.58 0.28 0 0.6 0.28 0 0.62 0.28 0 0.64 0.28 0 0.66 0.28 0 0.68 0.28 0 0.7 0.28 0 0.72 0.28 0 0.74 0.28 0 0.76 0.28 0 0.78 0.28 0 0.8 0.28 0 0.82 0.28 0 0.84 0.28 0 0.86 0.28 0 0.88 0.28 0 0.9 0.28 0 0.92 0.28 0 0.94 0.28 0 0.96 0.28 0 0.98 0.28 0 1 0.28 0 0 0.3 0 0.02 0.3 0 0.04 0.3 0 0.06 0.3 0 0.08 0.3 0 0.1 0.3 0 0.12 0.3 0 0.14 0.3 0 0.16 0.3 0 0.18 0.3 0 0.2 0.3 0 0.22 0.3 0 0.24 0.3 0 0.26 0.3 0 0.28 0.3 0 0.3 0.3 0 0.32 0.3 0 0.34 0.3 0 0.36 0.3 0 0.38 0.3 0 0.4 0.3 0 0.42 0.3 0 0.44 0.3 0 0.46 0.3 0 0.48 0.3 0 0.5 0.3 0 0.52 0.3 0 0.54 0.3 0 0.56 0.3 0 0.58 0.3 0 0.6 0.3 0 0.62 0.3 0 0.64 0.3 0 0.66 0.3 0 0.68 0.3 0 0.7 0.3 0 0.72 0.3 0 0.74 0.3 0 0.76 0.3 0 0.78 0.3 0 0.8 0.3 0 0.82 0.3 0 0.84 0.3 0 0.86 0.3 0 0.88 0.3 0 0.9 0.3 0 0.92 0.3 0 0.94 0.3 0 0.96 0.3 0 0.98 0.3 0 1 0.3 0 0 0.32 0 0.02 0.32 0 0.04 0.32 0 0.06 0.32 0 0.08 0.32 0 0.1 0.32 0 0.12 0.32 0 0.14 0.32 0 0.16 0.32 0 0.18 0.32 0 0.2 0.32 0 0.22 0.32 0 0.24 0.32 0 0.26 0.32 0 0.28 0.32 0 0.3 0.32 0 0.32 0.32 0 0.34 0.32 0 0.36 0.32 0 0.38 0.32 0 0.4 0.32 0 0.42 0.32 0 0.44 0.32 0 0.46 0.32 0 0.48 0.32 0 0.5 0.32 0 0.52 0.32 0 0.54 0.32 0 0.56 0.32 0 0.58 0.32 0 0.6 0.32 0 0.62 0.32 0 0.64 0.32 0 0.66 0.32 0 0.68 0.32 0 0.7 0.32 0 0.72 0.32 0 0.74 0.32 0 0.76 0.32 0 0.78 0.32 0 0.8 0.32 0 0.82 0.32 0 0.84 0.32 0 0.86 0.32 0 0.88 0.32 0 0.9 0.32 0 0.92 0.32 0 0.94 0.
[...]
			<PointData Scalars="VitesseX">
				<DataArray Name="VitesseX" type="Float32" format="ascii">
 -0 -0 -0 -0 -0 -0 -0 -0 -0 -0 -0 -0 -0 -0 -0 -0 -0 -0 -0 -0 -0 -0 -0 -0 -0 -0 -0 -0 -0 -0 -0 -0 -0 -0 -0 -0 -0 -0 -0 -0 -0 -0 -0 -0 -0 -0 -0 -0 -0 -0 -0 -0 -0.00048465 -0.00193096 -0.00431611 -0.0076025 -0.0117383 -0.0166583 -0.0222848 -0.0285292 -0.035293 -0.0424695 -0.0499456 -0.0576032 -0.0653218 -0.0729794 -0.0804555 -0.087632 -0.0943957 -0.10064 -0.106267 -0.111187 -0.115322 -0.118609 -0.120994 -0.12244 -0.122925 -0.12244 -0.120994 -0.118609 -0.115322 -0.111187 -0.106267 -0.10064 -0.0943957 -0.087632 -0.0804555 -0.0729794 -0.0653218 -0.0576032 -0.0499456 -0.0424695 -0.035293 -0.0285292 -0.0222848 -0.0166583 -0.0117383 -0.0076025 -0.00431611 -0.00193096 -0.00048465 -5.25821e-27 -0 -0.000961657 -0.00383146 -0.00856416 -0.0150851 -0.0232915 -0.0330538 -0.0442182 -0.0566086 -0.0700295 -0.0842693 -0.0991035 -0.114298 -0.129613 -0.144808 -0.159642 -0.173882 -0.187303 -0.199693 -0.210858 -0.22062 -0.228826 -0.235347 -0.24008 -0.24295 -0.243911 -0.24295 -0.24008 -0.235347 -0.228826 -0.22062 -0.210858 -0.199693 -0.187303 -0.173882 -0.159642 -0.144808 -0.129613 -0.114298 -0.0991035 -0.0842693 -0.0700295 -0.0566086 -0.0442182 -0.0330538 -0.0232915 -0.0150851 -0.00856416 -0.00383146 -0.000961657 -1.04335e-26 -0 -0.0014235 -0.00567154 -0.0126771 -0.0223298 -0.0344773 -0.0489281 -0.0654542 -0.0837951 -0.103662 -0.12474 -0.146698 -0.16919 -0.191861 -0.214353 -0.236311 -0.25739 -0.277256 -0.295597 -0.312123 -0.326574 -0.338721 -0.348374 -0.35538 -0.359628 -0.361051 -0.359628 -0.35538 -0.348374 -0.338721 -0.326574 -0.312123 -0.295597 -0.277256 -0.25739 -0.236311 -0.214353 -0.191861 -0.16919 -0.146698 -0.12474 -0.103662 -0.0837951 -0.0654542 -0.0489281 -0.0344773 -0.0223298 -0.0126771 -0.00567154 -0.0014235 -1.54443e-26 -0 -0.00186289 -0.00742218 -0.0165902 -0.0292224 -0.0451194 -0.0640307 -0.085658 -0.10966 -0.135659 -0.163244 -0.19198 -0.221414 -0.251083 -0.280517 -0.309253 -0.336838 -0.362837 -0.386839 -0.408466 -0.427377 -0.443275 -0.455907 -0.465075 -0.470634 -0.472497 -0.470634 -0.465075 -0.455907 -0.443275 -0.427377 -0.408466 -0.386839 -0.362837 -0.336838 -0.309253 -0.280517 -0.251083 -0.221414 -0.19198 -0.163244 -0.135659 -0.10966 -0.085658 -0.0640307 -0.0451194 -0.0292224 -0.0165902 -0.00742218 -0.00186289 -2.02114e-26 -0 -0.0022729 -0.00905576 -0.0202416 -0.0356541 -0.05505 -0.0781236 -0.104511 -0.133796 -0.165517 -0.199173 -0.234234 -0.270146 -0.306345 -0.342257 -0.377318 -0.410975 -0.442695 -0.47198 -0.498368 -0.521441 -0.540837 -0.55625 -0.567435 -nan -nan -0.62431 -0.615656 -0.602843 -0.585911 -0.564984 -0.540262 -0.512004 -0.48054 -nan -nan -0.342257 -0.306345 -0.270146 -0.234234 -0.199173 -0.165517 -0.133796 -0.104511 -0.0781236 -0.05505 -0.0356541 -0.0202416 -0.00905576 -0.0022729 -2.46599e-26 -0 -0.00264707 -0.0105465 -0.0235738 -0.0415235 -0.0641124 -0.0909844 -0.121716 -0.155821 -0.192764 -0.231961 -0.272794 -0.314618 -0.356775 -0.3986 -0.439433 -0.47863 -0.515572 -0.549678 -0.580409 -0.607281 -0.62987 -0.64782 -0.660847 -nan -nan -0.712697 -0.702536 -0.687481 -0.667786 -0.643659 -0.615318 -0.583011 -0.547087 -0.508217 -0.467166 -nan -nan -0.314618 -0.272794 -0.231961 -0.192764 -0.155821 -0.121716 -0.0909844 -0.0641124 -0.0415235 -0.0235738 -0.0105465 -0.00264707 -2.87194e-26 -0 -0.00297949 -0.011871 -0.0265342 -0.046738 -0.0721637 -0.10241 -0.137001 -0.17539 -0.216972 -0.261091 -0.307051 -0.354128 -0.40158 -0.448657 -0.494617 -0.538736 -0.580318 -0.618707 -0.653298 -0.683544 -0.70897 -nan -nan -0.785807 -0.790118 -0.78626 -0.775912 -0.759059 -0.737388 -0.710916 -0.679777 -0.64426 -0.604719 -0.561828 -0.516395 -0.468889 -0.420084 -0.370645 -nan -nan -0.216972 -0.17539 -0.137001 -0.10241 -0.0721637 -0.046738 -0.0265342 -0.011871 -0.00297949 -3.2326e-26 -0 -0.00326493 -0.0130082 -0.0290762 -0.0512155 -0.0790769 -0.112221 -0.150125 -0.192192 -0.237757 -0.286103 -0.336467 -0.388054 -0.440051 -0.491638 -0.542001 -0.590347 -0.635912 -0.677979 -0.715883 -0.749027 -0.776889 -nan -nan -0.845503 -0.852729 -0.849138 -0.838099 -0.81956 -0.796117 -0.767439 -0.733807 -0.695612 -0.653073 -0.606645 -0.557331 -0.506352 -0.453492 -0.400202 -nan -nan -0.237757 -0.192192 -0.150125 -0.112221 -0.0790769 -0.0512155 -0.0290762 -0.0130082 -0.00326493 -3.54228e-26 -0 -0.00349887 -0.0139403 -0.0311596 -0.0548853 -0.0847431 -0.120262 -0.160882 -0.205963 -0.254794 -0.306603 -0.360576 -0.415859 -0.471582 -0.526865 -0.580838 -0.632648 -0.681478 -0.726559 -0.767179 -nan -nan -0.870992 -0.881761 -0.898018 -0.90444 -0.900203 -0.888326 -0.869353 -0.844282 -0.813352 -0.777121 -0.736112 -0.690402 -0.640589 -0.588272 -0.53396 -0.478959 -0.423688 -0.367613 -0.312974 -0.260363 -nan -nan -0.120262 -0.0847431 -0.0548853 -0.0311596 -0.0139403 -0.00349887 -3.7961e-26 -0 -0.00367763 -0.0146525 -0.0327516 -0.0576895 -0.0890728 -0.126407 -0.169102 -0.216486 -0.267811 -0.322268 -0.378998 -0.437106 -0.495676 -0.553784 -0.610514 -0.664971 -0.716296 -0.76368 -0.806376 -nan -nan -0.915672 -0.927039 -0.940528 -0.943135 -0.937928 -0.924864 -0.904739 -0.878304 -0.845878 -0.807989 -0.765258 -0.717705 -0.665832 -0.611353 -0.554601 -0.496431 -0.437916 -0.380986 -0.325256 -0.270582 -nan -nan -0.126407 -0.0890728 -0.0576895 -0.0327516 -0.0146525 -0.00367763 -3.99005e-26 -0 -0.0037984 -0.0151337 -0.0338271 -0.0595839 -0.0919977 -0.130558 -0.174655 -0.223595 -0.276606 -0.332851 -0.391444 -0.45146 -0.511953 -0.571969 -0.630562 -0.686807 -0.739818 -nan -nan -0.897222 -0.924726 -0.945903 -0.958593 -0.968121 -0.968255 -0.962117 -0.947946 -0.926767 -0.899224 -0.86567 -0.82659 -0.782708 -0.733977 -0.680798 -0.624981 -0.566899 -0.507386 -0.447476 -0.388203 -0.33145 -0.276593 -0.22387 -0.175107 -nan -nan -0.0595839 -0.0338271 -0.0151337 -0.0037984 -4.12108e-26 -0 -0.00385926 -0.0153762 -0.0343691 -0.0605386 -0.0934719 -0.13265 -0.177454 -0.227178 -0.281038 -0.338184 -0.397716 -0.458694 -0.520156 -0.581134 -0.640666 -0.697812 -0.751672 -nan -nan -0.912176 -0.940318 -0.961436 -0.974996 -0.980121 -0.977765 -0.969112 -0.953395 -0.931054 -0.902582 -0.868299 -0.828601 -0.784283 -0.735258 -0.681809 -0.625729 -0.567457 -0.507796 -0.447771 -0.388341 -0.330409 -0.275806 -0.223927 -0.175119 -nan -nan -0.0605386 -0.0343691 -0.0153762 -0.00385926 -4.18711e-26 -0 -0.00385926 -0.0153762 -0.0343691 -0.0605386 -0.0934719 -0.13265 -0.177454 -0.227178 -0.281038 -0.338184 -0.397716 -0.458694 -0.520156 -0.581134 -0.640666 -nan -nan -0.835748 -0.87688 -0.911929 -0.940164 -0.961256 -0.975101 -0.979159 -0.97589 -0.966083 -0.949515 -0.926504 -0.8975 -0.86286 -0.822896 -0.77844 -0.729522 -0.676344 -0.620445 -0.562531 -0.503308 -0.443779 -0.384857 -0.327388 -0.272304 -0.221206 -0.173574 -0.129912 -0.0916828 -nan -nan -0.0153762 -0.00385926 -4.18711e-26 -0 -0.0037984 -0.0151337 -0.0338271 -0.0595839 -0.0919977 -0.130558 -0.174655 -0.223595 -0.276606 -0.332851 -0.391444 -0.45146 -0.511953 -0.571969 -0.630562 -nan -nan -0.823746 -0.864493 -0.898827 -0.926292 -0.94671 -0.960069 -0.963183 -0.959301 -0.948642 -0.931482 -0.908112 -0.878961 -0.844422 -0.80473 -0.760705 -0.712582 -0.660463 -0.605512 -0.548837 -0.490967 -0.432866 -0.37538 -0.319325 -0.265566 -0.214947 -0.168781 -0.126755 -0.0894525 -nan -nan -0.0151337 -0.0037984 -4.12108e-26 -0 -0.00367763 -0.0146525 -0.0327516 -0.0576895 -0.0890728 -0.126407 -0.169102 -0.216486 -0.267811 -0.322268 -0.378998 -0.437106 -0.495676 -nan -nan -0.704975 -0.754345 -0.79968 -0.8388 -0.87168 -0.89796 -0.917349 -0.929902 -0.93228 -0.928094 -0.916957 -0.899554 -0.876202 -0.847334 -0.813372 -0.774504 -0.731494 -0.684803 -0.634458 -0.581256 -0.526667 -0.471026 -0.415243 -0.36008 -0.306312 -0.254751 -0.206172 -0.16132 -0.121271 -0.0858357 -0.0556869 -0.03168 -nan -nan -3.99005e-26 -0 -0.00349887 -0.0139403 -0.0311596 -0.0548853 -0.0847431 -0.120262 -0.160882 -0.205963 -0.254794 -0.306603 -0.360576 -0.415859 -0.471582 -nan -nan -0.671936 -0.720411 -0.763174 -0.800055 -0.831042 -0.855684 -0.87369 -0.885139 -0.886824 -0.882565 -0.871297 -0.85402 -0.831095 -0.80296 -0.770073 -0.732599 -0.691213 -0.646585 -0.598688 -0.548036 -0.496352 -0.443779 -0.391167 -0.339181 -0.288537 -0.239984 -0.19424 -0.151991 -0.114217 -0.0809113 -0.0524996 -0.0298686 -nan -nan -3.7961e-26 -0 -0.00326493 -0.0130082 -0.0290762 -0.0512155 -0.0790769 -0.112221 -0.150125 -0.192192 -0.237757 -0.286103 -0.336467 -nan -nan -0.532283 -0.582285 -0.630247 -0.675453 -0.714889 -0.749068 -0.777646 -0.800201 -0.816473 -0.826494 -0.827525 -0.823279 -0.812176 -0.795377 -0.773281 -0.746331 -0.715023 -0.679522 -0.640399 -0.598465 -0.553657 -0.506337 -0.458334 -0.409623 -0.360986 -0.312977 -0.266248 -0.221463 -0.179274 -0.140296 -0.105107 -0.0745296 -0.0484887 -0.027578 -0.01237 -0.00311388 -3.23755e-26 -0 -0.00297949 -0.011871 -0.0265342 -0.046738 -0.0721637 -0.10241 -0.137001 -0.17539 -0.216972 -0.261091 -0.307051 -nan -nan -0.488675 -0.533889 -0.579447 -0.620155 -0.655895 -0.686803 -0.712453 -0.732482 -0.74667 -0.754835 -0.75542 -0.751023 -0.740322 -0.724328 -0.703439 -0.678113 -0.648887 -0.615925 -0.579723 -0.541113 -0.500004 -0.456772 -0.413169 -0.369065 -0.325138 -0.281854 -0.239772 -0.199466 -0.161502 -0.126425 -0.0947532 -0.0671389 -0.0437479 -0.0248852 -0.0111758 -0.00281607 -2.91115e-26 -0 -0.00264707 -0.0105465 -0.0235738 -0.0415235 -0.0641124 -0.0909844 -0.121716 -0.155821 -0.192764 -nan -nan -0.350774 -0.395377 -0.438932 -0.478937 -0.519965 -0.555822 -0.587349 -0.614417 -0.636637 -0.653714 -0.66547 -0.671481 -0.671426 -0.666668 -0.656457 -0.641599 -0.622402 -0.599157 -0.572472 -0.542613 -0.509984 -0.475312 -0.438598 -0.400213 -0.361518 -0.322697 -0.284151 -0.246264 -0.209491 -0.174303 -0.141169 -0.110549 -0.0828862 -0.0585854 -0.0382463 -0.0217974 -0.00978619 -0.00246489 -2.49381e-26 -0 -0.0022729 -0.00905576 -0.0202416 -0.0356541 -0.05505 -0.0781236 -0.104511 -0.133796 -0.165517 -nan -nan -0.306117 -0.345084 -0.382875 -0.417835 -0.452449 -0.482702 -0.509309 -0.531972 -0.550401 -0.564301 -0.573556 -0.577522 -0.576943 -0.57195 -0.56223 -0.548501 -0.531192 -0.510445 -0.486759 -0.46051 -0.432038 -0.401932 -0.370287 -0.337376 -0.304163 -0.271204 -0.238636 -0.206742 -0.175864 -0.14636 -0.118593 -0.0929299 -0.0697306 -0.0493453 -0.0321854 -0.0184038 -0.00825653 -0.00208461 -2.09136e-26 -0 -0.00186289 -0.00742218 -0.0165902 -0.0292224 -0.0451194 -0.0640307 -0.085658 -nan -nan -0.191611 -0.224472 -0.257769 -0.290449 -0.321798 -0.351369 -0.37956 -0.404062 -0.42537 -0.443161 -0.457225 -0.467377 -0.473571 -0.474954 -0.473597 -0.468324 -0.459251 -0.446646 -0.431162 -0.413205 -0.392908 -0.370706 -0.346907 -0.321955 -0.295976 -0.269081 -0.241991 -0.215362 -0.189269 -0.163876 -0.139386 -0.11604 -0.0940904 -0.0737984 -0.0554346 -0.039272 -0.0255593 -0.0146614 -0.00658874 -0.00166328 -1.60503e-26 -0 -0.0014235 -0.00567154 -0.0126771 -0.0223298 -0.0344773 -0.0489281 -0.0654542 -nan -nan -0.152932 -0.179542 -0.206278 -0.232216 -0.256928 -0.280821 -0.302212 -0.320767 -0.336585 -0.349317 -0.35875 -0.364835 -0.366958 -0.366416 -0.363034 -0.357255 -0.348994 -0.337828 -0.324074 -0.308897 -0.2923 -0.274514 -0.255816 -0.236512 -0.21669 -0.196336 -0.175918 -0.15602 -0.136798 -0.118326 -0.100629 -0.0838301 -0.0680664 -0.0534902 -0.0402743 -0.0286077 -0.0186853 -0.0107537 -0.00484308 -0.00123164 -1.16497e-26 -0 -0.000961657 -0.00383146 -0.00856416 -0.0150851 -0.0232915 -nan -nan -0.0752585 -0.093132 -0.112709 -0.132601 -0.152286 -0.17122 -0.188965 -0.206715 -0.221347 -0.233713 -0.243835 -0.251391 -0.256188 -0.25753 -0.256773 -0.253129 -0.247174 -0.240406 -0.232784 -0.223108 -0.211416 -0.199167 -0.186496 -0.173408 -0.160123 -0.146805 -0.133489 -0.120117 -0.106852 -0.0940769 -0.0820259 -0.0707764 -0.0601613 -0.0501857 -0.0408667 -0.032245 -0.0243923 -0.0174104 -0.0114242 -0.00661448 -0.00298883 -0.000762362 -6.20736e-27 -0 -0.00048465 -0.00193096 -0.00431611 -0.0076025 -0.0117383 -nan -nan -0.0471742 -0.0587241 -0.0712833 -0.0840318 -0.0964032 -0.108227 -0.118686 -0.129243 -0.138343 -0.145192 -0.149996 -0.15258 -0.153009 -0.151183 -0.146572 -0.138795 -0.128424 -0.119707 -0.112149 -0.103247 -0.094011 -0.0854177 -0.0770802 -0.0689678 -0.0613194 -0.0541831 -0.0475845 -0.0414356 -0.0356681 -0.0303867 -0.0257712 -0.0219291 -0.018614 -0.015663 -0.0129792 -0.010491 -0.00816512 -0.00601074 -0.00407288 -0.00242067 -0.00112504 -0.000299036 -1.92277e-27 0 7.99763e-16 3.18644e-15 7.12239e-15 1.25455e-14 1.93704e-14 -nan -nan -0.0186317 -0.0235552 -0.0289746 -0.0343304 -0.039336 -0.0439994 -0.0476211 -0.0507677 -0.0538204 -0.0554666 -0.0546547 -0.0527274 -0.0492047 -0.0440444 -0.0373343 -0.0287866 -0.013975 0.00529276 0.0140319 0.0209464 0.026251 0.0306384 0.0343618 0.0372419 0.0390898 0.0399472 0.0397392 0.0385843 0.0366922 0.0342224 0.0311808 0.0275328 0.0234175 0.0192347 0.0151933 0.0114746 0.00821699 0.00550654 0.00337829 0.00182424 0.000809468 0.000228032 2.16266e-27 0 0.00048465 0.00193096 0.00431611 0.0076025 0.0117383 0.0166583 -nan -nan 0.0111186 0.0128074 0.0145103 0.0165843 0.0191191 0.0222321 0.0258872 0.0298707 0.03462 0.0409079 0.0480873 0.0562053 0.0650608 0.0744043 0.0843767 0.0960378 0.131358 0.137841 0.14231 0.144926 0.146013 0.145436 0.143134 0.139207 0.133808 0.126843 0.118455 0.108955 0.0986928 0.0879287 0.0767917 0.065339 0.0541122 0.043456 0.0336463 0.024917 0.0174367 0.0113056 0.00656015 0.00319334 0.000964409 6.48334e-27 0 0.000961657 0.00383146 0.00856416 0.0150851 0.0232915 0.0330538 -nan -nan 0.044916 0.0535691 0.0627061 0.0723213 0.0824971 0.0931935 0.104419 0.116051 0.127783 0.13959 0.151469 0.163845 0.176206 0.188225 0.200007 0.21078 0.252487 0.257726 0.26054 0.260788 0.258752 0.254126 0.246942 0.237513 0.226011 0.212429 0.196974 0.180047 0.162141 0.143742 0.125169 0.106584 0.0885273 0.0714413 0.0557044 0.0416331 0.0294686 0.0193718 0.0114271 0.00565316 0.00185637 1.12267e-26 0 0.0014235 0.00567154 0.0126771 0.0223298 0.0344773 0.0489281 0.0654542 0.0837951 -nan -nan 0.112697 0.129642 0.147 0.16477 0.182781 0.201167 0.218946 0.236517 0.253442 0.26932 0.284883 0.299399 0.313574 0.324857 0.369008 0.373853 0.374656 0.372522 0.367235 0.358725 0.34704 0.332428 0.315067 0.295096 0.272832 0.248771 0.22352 0.197724 0.171914 0.146495 0.121857 0.0985948 0.0771578 0.0579349 0.0412352 0.0272804 0.0162069 0.00807297 0.00276544 1.60553e-26 0 0.00186289 0.00742218 0.0165902 0.0292224 0.0451194 0.0640307 0.085658 0.10966 -nan -nan 0.157885 0.181886 0.206456 0.231362 0.256365 0.281225 0.305536 0.329159 0.351648 0.371869 0.389845 0.4065 0.422509 0.434543 0.479705 0.48321 0.482321 0.478043 0.469924 0.457914 0.442007 0.422468 0.399539 0.373496 0.344775 0.313968 0.281786 0.248988 0.216324 0.18442 0.15353 0.124423 0.0975925 0.0734874 0.0524789 0.034847 0.0207824 0.0103901 0.00362434 2.06763e-26 0 0.0022729 0.00905576 0.0202416 0.0356541 0.05505 0.0781236 0.104511 0.133796 0.165517 0.199173 -nan -nan 0.265546 0.296858 0.328033 0.358576 0.388394 0.416469 0.443662 0.467919 0.527018 0.545597 0.560586 0.571347 0.5796 0.583346 0.581981 0.576269 0.565689 0.550357 0.530419 0.50622 0.478069 0.446354 0.411621 0.374555 0.335956 0.29668 0.257665 0.219682 0.183013 0.148479 0.116647 0.0880045 0.062983 0.0419225 0.0250616 0.0125549 0.00441964 2.50112e-26 0 0.00264707 0.0105465 0.0235738 0.0415235 0.0641124 0.0909844 0.121716 0.155821 0.192764 0.231961 -nan -nan 0.317304 0.354832 0.392196 0.428793 0.463958 0.497052 0.563099 0.591669 0.616323 0.637067 0.653684 0.665733 0.673772 0.676303 0.673891 0.6663 0.653146 0.634583 0.610861 0.582344 0.549395 0.512498 0.47229 0.42954 0.385131 0.340002 0.295221 0.251692 0.209826 0.170372 0.133988 0.101222 0.0725576 0.0483784 0.0289677 0.014527 0.00515857 2.89821e-26 0 0.00297949 0.011871 0.0265342 0.046738 0.0721637 0.10241 0.137001 0.17539 0.216972 0.261091 0.307051 0.354128 -nan -nan 0.452732 0.494063 0.533554 0.601417 0.636299 0.668073 0.695696 0.718724 0.736851 0.749757 0.757724 0.759245 0.75582 0.746267 0.730649 0.709144 0.682014 0.649617 0.612382 0.570876 0.525813 0.478039 0.42851 0.378235 0.32838 0.279965 0.233535 0.189756 0.149356 0.112943 0.0810408 0.0540826 0.0324123 0.016268 0.00579671 3.25024e-26 0 0.00326493 0.0130082 0.0290762 0.0512155 0.0790769 0.112221 0.150125 0.192192 0.237757 0.286103 0.336467 0.388054 -nan -nan 0.50335 0.549334 0.592137 0.660938 0.699516 0.73417 0.764208 0.789122 0.808526 0.822097 0.829775 0.83026 0.825895 0.814639 0.796907 0.772854 0.742748 0.706975 0.666034 0.620563 0.571342 0.51928 0.465397 0.410761 0.356614 0.304064 0.253753 0.206304 0.162498 0.122979 0.0883107 0.0589758 0.0353603 0.0177442 0.00629932 3.55611e-26 0 0.00349887 0.0139403 0.0311596 0.0548853 0.0847431 0.120262 0.160882 0.205963 0.254794 0.306603 0.360576 0.415859 0.471582 0.526865 -nan -nan 0.666062 0.710527 0.751901 0.788867 0.820777 0.847105 0.867434 0.881438 0.888707 0.888673 0.883236 0.870534 0.850978 0.82474 0.79211 0.753512 0.709502 0.660775 0.608159 0.552613 0.49521 0.437058 0.379466 0.323596 0.270147 0.219739 0.173185 0.131154 0.0942453 0.0629773 0.0377739 0.0189486 0.00671061 3.8073e-26 0 0.00367763 0.0146525 0.0327516 0.0576895 0.0890728 0.126407 0.169102 0.216486 0.267811 0.322268 0.378998 0.437106 0.495676 0.553784 -nan -nan 0.701793 0.749124 0.792557 0.831219 0.864461 0.89175 0.912659 0.926867 0.933774 0.933355 0.926997 0.913058 0.891973 0.863942 0.829292 0.788482 0.742101 0.690881 0.635685 0.577516 0.517487 0.456731 0.396607 0.338292 0.282467 0.22983 0.181209 0.137293 0.0987086 0.0659964 0.0396044 0.0198702 0.00703034 3.99897e-26 0 0.0037984 0.0151337 0.0338271 0.0595839 0.0919977 0.130558 0.174655 0.223595 0.276606 0.332851 0.391444 0.45146 0.511953 0.571969 0.630562 0.686807 -nan -nan 0.820638 0.860407 0.894476 0.922314 0.9435 0.957721 0.964237 0.963472 0.956326 0.941405 0.919156 0.889803 0.853703 0.811338 0.76332 0.710406 0.653488 0.593601 0.531884 0.469483 0.407803 0.347988 0.290601 0.236504 0.186508 0.141331 0.101623 0.0679485 0.0407695 0.0204449 0.00722088 4.1284e-26 0 0.00385926 0.0153762 0.0343691 0.0605386 0.0934719 0.13265 0.177454 0.227178 0.281038 0.338184 0.397716 0.458694 0.520156 0.581134 0.640666 0.697812 -nan -nan 0.835553 0.87582 0.910215 0.938213 0.959395 0.97347 0.979518 0.978327 0.97033 0.954531 0.931357 0.90106 0.864017 0.820726 0.771812 0.718046 0.660337 0.599731 0.537376 0.474413 0.412263 0.352025 0.294082 0.239448 0.188898 0.143172 0.10295 0.068819 0.0412665 0.0206654 0.00727169 4.19352e-26 0 0.00385926 0.0153762 0.0343691 0.0605386 0.0934719 0.13265 0.177454 0.227178 0.281038 0.338184 0.397716 0.458694 0.520156 0.581134 0.640666 0.697812 -nan -nan 0.836023 0.876236 0.91056 0.938478 0.95958 0.97356 0.979473 0.978212 0.970014 0.953999 0.930617 0.90014 0.862954 0.81955 0.770559 0.716762 0.659084 0.59858 0.536392 0.473671 0.411784 0.351803 0.294049 0.239532 0.189038 0.143323 0.103074 0.0688939 0.0412853 0.0206401 0.00722737 4.19306e-26 0 0.0037984 0.0151337 0.0338271 0.0595839 0.0919977 0.130558 0.174655 0.223595 0.276606 0.332851 0.391444 0.45146 0.511953 0.571969 0.630562 0.686807 -nan -nan 0.824985 0.864367 0.897905 0.925086 0.945489 0.958805 0.964065 0.962526 0.954055 0.93795 0.914642 0.884392 0.847574 0.804687 0.756371 0.703412 0.646724 0.58734 0.526366 0.464977 0.404407 0.345585 0.288972 0.235497 0.185946 0.141055 0.101499 0.0678765 0.0406945 0.0203513 0.00712445 4.1269e-26 0 0.00367763 0.0146525 0.0327516 0.0576895 0.0890728 0.126407 0.169102 0.216486 0.267811 0.322268 0.378998 0.437106 0.495676 0.553784 0.610514 0.664971 -nan -nan 0.800194 0.83815 0.870417 0.896507 0.916021 0.928657 0.933439 0.931727 0.923228 0.907361 0.884526 0.854983 0.819114 0.777427 0.730571 0.679311 0.624525 0.567205 0.508397 0.449283 0.390957 0.334092 0.279417 0.227792 0.179949 0.136592 0.0983654 0.0658453 0.0395237 0.0197961 0.00692639 3.99572e-26 0 0.00349887 0.0139403 0.0311596 0.0548853 0.0847431 0.120262 0.160882 0.205963 0.254794 0.306603 0.360576 0.415859 0.471582 0.526865 0.580838 0.632648 -nan -nan 0.762183 0.798202 0.828787 0.853477 0.871896 0.883749 0.888095 0.886303 0.877968 0.86261 0.840633 0.8