<?xml version="1.0"?>
<VTKFile type="PolyData">
	<PolyData>
		<Piece NumberOfPoints="2601" NumberOfPolys="2500">
			<Points>
				<DataArray type="Float32" NumberOfComponents="3" format="ascii">
 0 0 0 0.02 0 0 0.04 0 0 0.06 0 0 0.08 0 0 0.1 0 0 0.12 0 0 0.14 0 0 0.16 0 0 0.18 0 0 0.2 0 0 0.22 0 0 0.24 0 0 0.26 0 0 0.28 0 0 0.3 0 0 0.32 0 0 0.34 0 0 0.36 0 0 0.38 0 0 0.4 0 0 0.42 0 0 0.44 0 0 0.46 0 0 0.48 0 0 0.5 0 0 0.52 0 0 0.54 0 0 0.56 0 0 0.58 0 0 0.6 0 0 0.62 0 0 0.64 0 0 0.66 0 0 0.68 0 0 0.7 0 0 0.72 0 0 0.74 0 0 0.76 0 0 0.78 0 0 0.8 0 0 0.82 0 0 0.84 0 0 0.86 0 0 0.88 0 0 0.9 0 0 0.92 0 0 0.94 0 0 0.96 0 0 0.98 0 0 1 0 0 0 0.02 0 0.02 0.02 0 0.04 0.02 0 0.06 0.02 0 0.08 0.02 0 0.1 0.02 0 0.12 0.02 0 0.14 0.02 0 0.16 0.02 0 0.18 0.02 0 0.2 0.02 0 0.22 0.02 0 0.24 0.02 0 0.26 0.02 0 0.28 0.02 0 0.3 0.02 0 0.32 0.02 0 0.34 0.02 0 0.36 0.02 0 0.38 0.02 0 0.4 0.02 0 0.42 0.02 0 0.44 0.02 0 0.46 0.02 0 0.48 0.02 0 0.5 0.02 0 0.52 0.02 0 0.54 0.02 0 0.56 0.02 0 0.58 0.02 0 0.6 0.02 0 0.62 0.02 0 0.64 0.02 0 0.66 0.02 0 0.68 0.02 0 0.7 0.02 0 0.72 0.02 0 0.74 0.02 0 0.76 0.02 0 0.78 0.02 0 0.8 0.02 0 0.82 0.02 0 0.84 0.02 0 0.86 0.02 0 0.88 0.02 0 0.9 0.02 0 0.92 0.02 0 0.94 0.02 0 0.96 0.02 0 0.98 0.02 0 1 0.02 0 0 0.04 0 0.02 0.04 0 0.04 0.04 0 0.06 0.04 0 0.08 0.04 0 0.1 0.04 0 0.12 0.04 0 0.14 0.04 0 0.16 0.04 0 0.18 0.04 0 0.2 0.04 0 0.22 0.04 0 0.24 0.04 0 0.26 0.04 0 0.28 0.04 0 0.3 0.04 0 0.32 0.04 0 0.34 0.04 0 0.36 0.04 0 0.38 0.04 0 0.4 0.04 0 0.42 0.04 0 0.44 0.04 0 0.46 0.04 0 0.48 0.04 0 0.5 0.04 0 0.52 0.04 0 0.54 0.04 0 0.56 0.04 0 0.58 0.04 0 0.6 0.04 0 0.62 0.04 0 0.64 0.04 0 0.66 0.04 0 0.68 0.04 0 0.7 0.04 0 0.72 0.04 0 0.74 0.04 0 0.76 0.04 0 0.78 0.04 0 0.8 0.04 0 0.82 0.04 0 0.84 0.04 0 0.86 0.04 0 0.88 0.04 0 0.9 0.04 0 0.92 0.04 0 0.94 0.04 0 0.96 0.04 0 0.98 0.04 0 1 0.04 0 0 0.06 0 0.02 0.06 0 0.04 0.06 0 0.06 0.06 0 0.08 0.06 0 0.1 0.06 0 0.12 0.06 0 0.14 0.06 0 0.16 0.06 0 0.18 0.06 0 0.2 0.06 0 0.22 0.06 0 0.24 0.06 0 0.26 0.06 0 0.28 0.06 0 0.3 0.06 0 0.32 0.06 0 0.34 0.06 0 0.36 0.06 0 0.38 0.06 0 0.4 0.06 0 0.42 0.06 0 0.44 0.06 0 0.46 0.06 0 0.48 0.06 0 0.5 0.06 0 0.52 0.06 0 0.54 0.06 0 0.56 0.06 0 0.58 0.06 0 0.6 0.06 0 0.62 0.06 0 0.64 0.06 0 0.66 0.06 0 0.68 0.06 0 0.7 0.06 0 0.72 0.06 0 0.74 0.06 0 0.76 0.06 0 0.78 0.06 0 0.8 0.06 0 0.82 0.06 0 0.84 0.06 0 0.86 0.06 0 0.88 0.06 0 0.9 0.06 0 0.92 0.06 0 0.94 0.06 0 0.96 0.06 0 0.98 0.06 0 1 0.06 0 0 0.08 0 0.02 0.08 0 0.04 0.08 0 0.06 0.08 0 0.08 0.08 0 0.1 0.08 0 0.12 0.08 0 0.14 0.08 0 0.16 0.08 0 0.18 0.08 0 0.2 0.08 0 0.22 0.08 0 0.24 0.08 0 0.26 0.08 0 0.28 0.08 0 0.3 0.08 0 0.32 0.08 0 0.34 0.08 0 0.36 0.08 0 0.38 0.08 0 0.4 0.08 0 0.42 0.08 0 0.44 0.08 0 0.46 0.08 0 0.48 0.08 0 0.5 0.08 0 0.52 0.08 0 0.54 0.08 0 0.56 0.08 0 0.58 0.08 0 0.6 0.08 0 0.62 0.08 0 0.64 0.08 0 0.66 0.08 0 0.68 0.08 0 0.7 0.08 0 0.72 0.08 0 0.74 0.08 0 0.76 0.08 0 0.78 0.08 0 0.8 0.08 0 0.82 0.08 0 0.84 0.08 0 0.86 0.08 0 0.88 0.08 0 0.9 0.08 0 0.92 0.08 0 0.94 0.08 0 0.96 0.08 0 0.98 0.08 0 1 0.08 0 0 0.1 0 0.02 0.1 0 0.04 0.1 0 0.06 0.1 0 0.08 0.1 0 0.1 0.1 0 0.12 0.1 0 0.14 0.1 0 0.16 0.1 0 0.18 0.1 0 0.2 0.1 0 0.22 0.1 0 0.24 0.1 0 0.26 0.1 0 0.28 0.1 0 0.3 0.1 0 0.32 0.1 0 0.34 0.1 0 0.36 0.1 0 0.38 0.1 0 0.4 0.1 0 0.42 0.1 0 0.44 0.1 0 0.46 0.1 0 0.48 0.1 0 0.5 0.1 0 0.52 0.1 0 0.54 0.1 0 0.56 0.1 0 0.58 0.1 0 0.6 0.1 0 0.62 0.1 0 0.64 0.1 0 0.66 0.1 0 0.68 0.1 0 0.7 0.1 0 0.72 0.1 0 0.74 0.1 0 0.76 0.1 0 0.78 0.1 0 0.8 0.1 0 0.82 0.1 0 0.84 0.1 0 0.86 0.1 0 0.88 0.1 0 0.9 0.1 0 0.92 0.1 0 0.94 0.1 0 0.96 0.1 0 0.98 0.1 0 1 0.1 0 0 0.12 0 0.02 0.12 0 0.04 0.12 0 0.06 0.12 0 0.08 0.12 0 0.1 0.12 0 0.12 0.12 0 0.14 0.12 0 0.16 0.12 0 0.18 0.12 0 0.2 0.12 0 0.22 0.12 0 0.24 0.12 0 0.26 0.12 0 0.28 0.12 0 0.3 0.12 0 0.32 0.12 0 0.34 0.12 0 0.36 0.12 0 0.38 0.12 0 0.4 0.12 0 0.42 0.12 0 0.44 0.12 0 0.46 0.12 0 0.48 0.12 0 0.5 0.12 0 0.52 0.12 0 0.54 0.12 0 0.56 0.12 0 0.58 0.12 0 0.6 0.12 0 0.62 0.12 0 0.64 0.12 0 0.66 0.12 0 0.68 0.12 0 0.7 0.12 0 0.72 0.12 0 0.74 0.12 0 0.76 0.12 0 0.78 0.12 0 0.8 0.12 0 0.82 0.12 0 0.84 0.12 0 0.86 0.12 0 0.88 0.12 0 0.9 0.12 0 0.92 0.12 0 0.94 0.12 0 0.96 0.12 0 0.98 0.12 0 1 0.12 0 0 0.14 0 0.02 0.14 0 0.04 0.14 0 0.06 0.14 0 0.08 0.14 0 0.1 0.14 0 0.12 0.14 0 0.14 0.14 0 0.16 0.14 0 0.18 0.14 0 0.2 0.14 0 0.22 0.14 0 0.24 0.14 0 0.26 0.14 0 0.28 0.14 0 0.3 0.14 0 0.32 0.14 0 0.34 0.14 0 0.36 0.14 0 0.38 0.14 0 0.4 0.14 0 0.42 0.14 0 0.44 0.14 0 0.46 0.14 0 0.48 0.14 0 0.5 0.14 0 0.52 0.14 0 0.54 0.14 0 0.56 0.14 0 0.58 0.14 0 0.6 0.14 0 0.62 0.14 0 0.64 0.14 0 0.66 0.14 0 0.68 0.14 0 0.7 0.14 0 0.72 0.14 0 0.74 0.14 0 0.76 0.14 0 0.78 0.14 0 0.8 0.14 0 0.82 0.14 0 0.84 0.14 0 0.86 0.14 0 0.88 0.14 0 0.9 0.14 0 0.92 0.14 0 0.94 0.14 0 0.96 0.14 0 0.98 0.14 0 1 0.14 0 0 0.16 0 0.02 0.16 0 0.04 0.16 0 0.06 0.16 0 0.08 0.16 0 0.1 0.16 0 0.12 0.16 0 0.14 0.16 0 0.16 0.16 0 0.18 0.16 0 0.2 0.16 0 0.22 0.16 0 0.24 0.16 0 0.26 0.16 0 0.28 0.16 0 0.3 0.16 0 0.32 0.16 0 0.34 0.16 0 0.36 0.16 0 0.38 0.16 0 0.4 0.16 0 0.42 0.16 0 0.44 0.16 0 0.46 0.16 0 0.48 0.16 0 0.5 0.16 0 0.52 0.16 0 0.54 0.16 0 0.56 0.16 0 0.58 0.16 0 0.6 0.16 0 0.62 0.16 0 0.64 0.16 0 0.66 0.16 0 0.68 0.16 0 0.7 0.16 0 0.72 0.16 0 0.74 0.16 0 0.76 0.16 0 0.78 0.16 0 0.8 0.16 0 0.82 0.16 0 0.84 0.16 0 0.86 0.16 0 0.88 0.16 0 0.9 0.16 0 0.92 0.16 0 0.94 0.16 0 0.96 0.16 0 0.98 0.16 0 1 0.16 0 0 0.18 0 0.02 0.18 0 0.04 0.18 0 0.06 0.18 0 0.08 0.18 0 0.1 0.18 0 0.12 0.18 0 0.14 0.18 0 0.16 0.18 0 0.18 0.18 0 0.2 0.18 0 0.22 0.18 0 0.24 0.18 0 0.26 0.18 0 0.28 0.18 0 0.3 0.18 0 0.32 0.18 0 0.34 0.18 0 0.36 0.18 0 0.38 0.18 0 0.4 0.18 0 0.42 0.18 0 0.44 0.18 0 0.46 0.18 0 0.48 0.18 0 0.5 0.18 0 0.52 0.18 0 0.54 0.18 0 0.56 0.18 0 0.58 0.18 0 0.6 0.18 0 0.62 0.18 0 0.64 0.18 0 0.66 0.18 0 0.68 0.18 0 0.7 0.18 0 0.72 0.18 0 0.74 0.18 0 0.76 0.18 0 0.78 0.18 0 0.8 0.18 0 0.82 0.18 0 0.84 0.18 0 0.86 0.18 0 0.88 0.18 0 0.9 0.18 0 0.92 0.18 0 0.94 0.18 0 0.96 0.18 0 0.98 0.18 0 1 0.18 0 0 0.2 0 0.02 0.2 0 0.04 0.2 0 0.06 0.2 0 0.08 0.2 0 0.1 0.2 0 0.12 0.2 0 0.14 0.2 0 0.16 0.2 0 0.18 0.2 0 0.2 0.2 0 0.22 0.2 0 0.24 0.2 0 0.26 0.2 0 0.28 0.2 0 0.3 0.2 0 0.32 0.2 0 0.34 0.2 0 0.36 0.2 0 0.38 0.2 0 0.4 0.2 0 0.42 0.2 0 0.44 0.2 0 0.46 0.2 0 0.48 0.2 0 0.5 0.2 0 0.52 0.2 0 0.54 0.2 0 0.56 0.2 0 0.58 0.2 0 0.6 0.2 0 0.62 0.2 0 0.64 0.2 0 0.66 0.2 0 0.68 0.2 0 0.7 0.2 0 0.72 0.2 0 0.74 0.2 0 0.76 0.2 0 0.78 0.2 0 0.8 0.2 0 0.82 0.2 0 0.84 0.2 0 0.86 0.2 0 0.88 0.2 0 0.9 0.2 0 0.92 0.2 0 0.94 0.2 0 0.96 0.2 0 0.98 0.2 0 1 0.2 0 0 0.22 0 0.02 0.22 0 0.04 0.22 0 0.06 0.22 0 0.08 0.22 0 0.1 0.22 0 0.12 0.22 0 0.14 0.22 0 0.16 0.22 0 0.18 0.22 0 0.2 0.22 0 0.22 0.22 0 0.24 0.22 0 0.26 0.22 0 0.28 0.22 0 0.3 0.22 0 0.32 0.22 0 0.34 0.22 0 0.36 0.22 0 0.38 0.22 0 0.4 0.22 0 0.42 0.22 0 0.44 0.22 0 0.46 0.22 0 0.48 0.22 0 0.5 0.22 0 0.52 0.22 0 0.54 0.22 0 0.56 0.22 0 0.58 0.22 0 0.6 0.22 0 0.62 0.22 0 0.64 0.22 0 0.66 0.22 0 0.68 0.22 0 0.7 0.22 0 0.72 0.22 0 0.74 0.22 0 0.76 0.22 0 0.78 0.22 0 0.8 0.22 0 0.82 0.22 0 0.84 0.22 0 0.86 0.22 0 0.88 0.22 0 0.9 0.22 0 0.92 0.22 0 0.94 0.22 0 0.96 0.22 0 0.98 0.22 0 1 0.22 0 0 0.24 0 0.02 0.24 0 0.04 0.24 0 0.06 0.24 0 0.08 0.24 0 0.1 0.24 0 0.12 0.24 0 0.14 0.24 0 0.16 0.24 0 0.18 0.24 0 0.2 0.24 0 0.22 0.24 0 0.24 0.24 0 0.26 0.24 0 0.28 0.24 0 0.3 0.24 0 0.32 0.24 0 0.34 0.24 0 0.36 0.24 0 0.38 0.24 0 0.4 0.24 0 0.42 0.24 0 0.44 0.24 0 0.46 0.24 0 0.48 0.24 0 0.5 0.24 0 0.52 0.24 0 0.54 0.24 0 0.56 0.24 0 0.58 0.24 0 0.6 0.24 0 0.62 0.24 0 0.64 0.24 0 0.66 0.24 0 0.68 0.24 0 0.7 0.24 0 0.72 0.24 0 0.74 0.24 0 0.76 0.24 0 0.78 0.24 0 0.8 0.24 0 0.82 0.24 0 0.84 0.24 0 0.86 0.24 0 0.88 0.24 0 0.9 0.24 0 0.92 0.24 0 0.94 0.24 0 0.96 0.24 0 0.98 0.24 0 1 0.24 0 0 0.26 0 0.02 0.26 0 0.04 0.26 0 0.06 0.26 0 0.08 0.26 0 0.1 0.26 0 0.12 0.26 0 0.14 0.26 0 0.16 0.26 0 0.18 0.26 0 0.2 0.26 0 0.22 0.26 0 0.24 0.26 0 0.26 0.26 0 0.28 0.26 0 0.3 0.26 0 0.32 0.26 0 0.34 0.26 0 0.36 0.26 0 0.38 0.26 0 0.4 0.26 0 0.42 0.26 0 0.44 0.26 0 0.46 0.26 0 0.48 0.26 0 0.5 0.26 0 0.52 0.26 0 0.54 0.26 0 0.56 0.26 0 0.58 0.26 0 0.6 0.26 0 0.62 0.26 0 0.64 0.26 0 0.66 0.26 0 0.68 0.26 0 0.7 0.26 0 0.72 0.26 0 0.74 0.26 0 0.76 0.26 0 0.78 0.26 0 0.8 0.26 0 0.82 0.26 0 0.84 0.26 0 0.86 0.26 0 0.88 0.26 0 0.9 0.26 0 0.92 0.26 0 0.94 0.26 0 0.96 0.26 0 0.98 0.26 0 1 0.26 0 0 0.28 0 0.02 0.28 0 0.04 0.28 0 0.06 0.28 0 0.08 0.28 0 0.1 0.28 0 0.12 0.28 0 0.14 0.28 0 0.16 0.28 0 0.18 0.28 0 0.2 0.28 0 0.22 0.28 0 0.24 0.28 0 0.26 0.28 0 0.28 0.28 0 0.3 0.28 0 0.32 0.28 0 0.34 0.28 0 0.36 0.28 0 0.38 0.28 0 0.4 0.28 0 0.42 0.28 0 0.44 0.28 0 0.46 0.28 0 0.48 0.28 0 0.5 0.28 0 0.52 0.28 0 0.54 0.28 0 0.56 0.28 0 0.58 0.28 0 0.6 0.28 0 0.62 0.28 0 0.64 0.28 0 0.66 0.28 0 0.68 0.28 0 0.7 0.28 0 0.72 0.28 0 0.74 0.28 0 0.76 0.28 0 0.78 0.28 0 0.8 0.28 0 0.82 0.28 0 0.84 0.28 0 0.86 0.28 0 0.88 0.28 0 0.9 0.28 0 0.92 0.28 0 0.94 0.28 0 0.96 0.28 0 0.98 0.28 0 1 0.28 0 0 0.3 0 0.02 0.3 0 0.04 0.3 0 0.06 0.3 0 0.08 0.3 0 0.1 0.3 0 0.12 0.3 0 0.14 0.3 0 0.16 0.3 0 0.18 0.3 0 0.2 0.3 0 0.22 0.3 0 0.24 0.3 0 0.26 0.3 0 0.28 0.3 0 0.3 0.3 0 0.32 0.3 0 0.34 0.3 0 0.36 0.3 0 0.38 0.3 0 0.4 0.3 0 0.42 0.3 0 0.44 0.3 0 0.46 0.3 0 0.48 0.3 0 0.5 0.3 0 0.52 0.3 0 0.54 0.3 0 0.56 0.3 0 0.58 0.3 0 0.6 0.3 0 0.62 0.3 0 0.64 0.3 0 0.66 0.3 0 0.68 0.3 0 0.7 0.3 0 0.72 0.3 0 0.74 0.3 0 0.76 0.3 0 0.78 0.3 0 0.8 0.3 0 0.82 0.3 0 0.84 0.3 0 0.86 0.3 0 0.88 0.3 0 0.9 0.3 0 0.92 0.3 0 0.94 0.3 0 0.96 0.3 0 0.98 0.3 0 1 0.3 0 0 0.32 0 0.02 0.32 0 0.04 0.32 0 0.06 0.32 0 0.08 0.32 0 0.1 0.32 0 0.12 0.32 0 0.14 0.32 0 0.16 0.32 0 0.18 0.32 0 0.2 0.32 0 0.22 0.32 0 0.24 0.32 0 0.26 0.32 0 0.28 0.32 0 0.3 0.32 0 0.32 0.32 0 0.34 0.32 0 0.36 0.32 0 0.38 0.32 0 0.4 0.32 0 0.42 0.32 0 0.44 0.32 0 0.46 0.32 0 0.48 0.32 0 0.5 0.32 0 0.52 0.32 0 0.54 0.32 0 0.56 0.32 0 0.58 0.32 0 0.6 0.32 0 0.62 0.32 0 0.64 0.32 0 0.66 0.32 0 0.68 0.32 0 0.7 0.32 0 0.72 0.32 0 0.74 0.32 0 0.76 0.32 0 0.78 0.32 0 0.8 0.32 0 0.82 0.32 0 0.84 0.32 0 0.86 0.32 0 0.88 0.32 0 0.9 0.32 0 0.92 0.32 0 0.94 0.
[...]
			<PointData Scalars="VitesseX">
				<DataArray Name="VitesseX" type="Float32" format="ascii">
 -0 -0 -0 -0 -0 -0 -0 -0 -0 -0 -nan -nan 0 0 0 0 0 0 0 0 0 0 0 0 0 0 0 0 0 0 0 0 0 0 0 0 0 0 0 0 0 0 0 0 0 0 0 0 0 0 -0 -0 -0.000463603 -0.0018471 -0.00412867 -0.00727234 -0.0112285 -0.0159348 -0.021317 -nan -nan -0.0442396 -0.0513029 -0.0586845 -0.0659788 -0.0732311 -0.0802132 -0.0869131 -0.0931436 -0.0988813 -0.103965 -0.108391 -0.112012 -0.11488 -0.116524 -0.125981 -0.137068 -0.142273 -0.143923 -0.143732 -0.141272 -0.134748 -0.128234 -0.121963 -0.114664 -0.107576 -0.0998687 -0.0901613 -0.0808752 -0.0723905 -0.0624687 -0.0535986 -0.0450485 -0.0368541 -0.0290482 -0.0219905 -0.0156958 -0.0102721 -0.00590295 -0.00266228 -0.000673509 -9.5277e-27 -0 -0.000919894 -0.00366507 -0.00819223 -0.01443 -0.02228 -0.0316183 -0.0422979 -nan -nan -0.0877209 -0.101873 -0.116447 -0.130988 -0.145369 -0.159271 -0.172559 -0.184946 -0.196316 -0.206409 -0.215152 -0.222349 -0.228006 -0.231284 -0.237463 -0.247847 -0.253632 -0.254901 -0.253083 -0.247779 -0.2369 -0.225511 -0.214379 -0.201566 -0.188979 -0.175495 -0.15868 -0.141397 -0.124779 -0.109113 -0.0933421 -0.0776113 -0.0631336 -0.0496264 -0.0373354 -0.0265144 -0.017289 -0.00988896 -0.00444919 -0.00112223 -1.42495e-26 -0 -0.00136168 -0.00542524 -0.0121266 -0.0213601 -0.03298 -nan -nan -0.0899385 -0.109202 -0.129742 -0.1508 -0.172356 -0.193935 -0.215248 -0.235873 -0.255539 -0.273899 -0.290734 -0.305664 -0.318567 -0.329243 -0.337588 -0.342464 -0.348107 -0.358011 -0.362728 -0.362649 -0.358332 -0.35016 -0.338592 -0.324387 -0.307935 -0.289304 -0.269017 -0.247579 -0.224891 -0.200769 -0.176162 -0.154091 -0.130376 -0.10879 -0.0882804 -0.0694247 -0.0520662 -0.0369025 -0.0240289 -0.0137161 -0.00616499 -0.00155303 -1.8752e-26 -0 -0.00178199 -0.00709985 -0.0158697 -0.0279533 -0.04316 -nan -nan -0.117492 -0.14287 -0.16968 -0.19733 -0.225547 -0.253843 -0.281793 -0.308823 -0.334552 -0.358617 -0.380687 -0.400278 -0.417183 -0.431177 -0.441802 -0.44815 -0.456253 -0.465409 -0.467313 -0.464948 -0.4576 -0.446165 -0.431101 -0.412852 -0.391696 -0.367889 -0.341921 -0.314339 -0.285511 -0.255876 -0.225938 -0.196273 -0.166263 -0.138849 -0.112087 -0.0881096 -0.065975 -0.0467098 -0.0303896 -0.017326 -0.00778317 -0.00195935 -2.29682e-26 -0 -0.00217419 -0.00866249 -0.0193626 -nan -nan -0.0877172 -0.114029 -0.143155 -0.174193 -0.206911 -0.240709 -0.27518 -0.309802 -0.344 -0.377088 -0.40857 -0.437967 -0.464881 -0.488312 -0.508761 -0.525895 -0.539018 -0.546893 -0.555334 -0.562185 -0.562914 -0.558877 -0.549387 -0.53525 -0.516872 -0.49473 -0.469185 -0.440509 -0.409262 -0.376135 -0.341548 -0.30604 -0.270201 -0.234635 -0.199863 -0.166582 -0.134667 -0.105185 -0.0789087 -0.0557933 -0.0362713 -0.0206633 -0.009279 -0.00233507 -2.68367e-26 -0 -0.00253211 -0.0100885 -0.02255 -nan -nan -0.10187 -0.132643 -0.166519 -0.202719 -0.240866 -0.280347 -0.320652 -0.361129 -0.400963 -0.439457 -0.476206 -0.509879 -0.541167 -0.568789 -0.59287 -0.612537 -0.62781 -0.637329 -0.645592 -0.650584 -0.650194 -0.64441 -0.632799 -0.616047 -0.594534 -0.568779 -0.539191 -0.506059 -0.470017 -0.431867 -0.392072 -0.351243 -0.310054 -0.26919 -0.229238 -0.190834 -0.154798 -0.120828 -0.0905669 -0.0640036 -0.0415819 -0.0236773 -0.0106296 -0.00267456 -3.03004e-26 -0 -0.0028501 -nan -nan -0.0570557 -0.0834473 -0.114395 -0.149099 -0.187266 -0.228169 -0.27124 -0.315758 -0.361142 -0.406614 -0.451481 -0.494244 -0.535663 -0.573802 -0.609255 -0.640609 -0.667605 -0.689782 -0.706877 -0.717934 -0.72588 -0.729249 -0.727752 -0.720198 -0.706533 -0.687314 -0.662915 -0.633891 -0.600675 -0.563573 -0.523292 -0.480707 -0.436329 -0.390827 -0.344948 -0.299449 -0.254969 -0.212207 -0.171829 -0.134643 -0.100879 -0.0712268 -0.0462403 -0.0263228 -0.0118144 -0.00297264 -3.33067e-26 -0 -0.00312313 -nan -nan -0.0621637 -0.0912128 -0.125132 -0.163282 -0.205143 -0.250026 -0.297287 -0.346073 -0.395741 -0.445699 -0.494329 -0.541655 -0.587388 -0.629687 -0.668294 -0.702597 -0.732098 -0.7563 -0.774893 -0.787151 -0.794899 -0.79685 -0.794297 -0.785027 -0.769441 -0.747972 -0.720998 -0.689101 -0.65273 -0.612211 -0.568305 -0.521935 -0.473665 -0.424208 -0.374367 -0.324958 -0.276664 -0.230237 -0.186409 -0.145871 -0.10944 -0.0773055 -0.0501798 -0.0285601 -0.0128152 -0.00322471 -3.58092e-26 -0 -nan -0.0215284 -0.0409163 -0.0664109 -0.097547 -0.133916 -0.174833 -0.219678 -0.267788 -0.318455 -0.370803 -0.423777 -0.478103 -0.53062 -0.581733 -0.63034 -0.675657 -0.717001 -0.753703 -0.785214 -0.811021 -0.830779 -0.84392 -0.851391 -0.852393 -0.848674 -0.837859 -0.820549 -0.797107 -0.767922 -0.733595 -0.694591 -0.651259 -0.604391 -0.554941 -0.503528 -0.450889 -0.397874 -0.345337 -0.293997 -0.244645 -0.198057 -0.154974 -0.116079 -0.0820238 -0.0533447 -0.0303554 -0.013617 -0.00342688 -3.77705e-26 -0 -nan -0.0224215 -0.0428317 -0.0696274 -0.102335 -0.140471 -0.183416 -0.230574 -0.281185 -0.334375 -0.38907 -0.445644 -0.503064 -0.558687 -0.612443 -0.663554 -0.711191 -0.754608 -0.793106 -0.826102 -0.853072 -0.873646 -0.887369 -0.894479 -0.894891 -0.889983 -0.87785 -0.859066 -0.833978 -0.802992 -0.766718 -0.725647 -0.680147 -0.631019 -0.579237 -0.525471 -0.47047 -0.415115 -0.36028 -0.306707 -0.255214 -0.206605 -0.161653 -0.121069 -0.085676 -0.0556841 -0.0316809 -0.014208 -0.00357605 -3.91626e-26 0 -0.00883254 -0.023002 -0.04404 -0.0716301 -0.105295 -0.144589 -0.188952 -0.237909 -0.290387 -0.345019 -0.402614 -0.462028 -0.520588 -0.578081 -0.633685 -0.686514 -0.735713 -0.780503 -0.820168 -0.854103 -0.881779 -0.902812 -0.916825 -0.923566 -0.92348 -0.917574 -0.904353 -0.884389 -0.858027 -0.825685 -0.787981 -0.745438 -0.698449 -0.647796 -0.59446 -0.539165 -0.482655 -0.425829 -0.369559 -0.3146 -0.261781 -0.211921 -0.165811 -0.124184 -0.08771 -0.057025 -0.0325147 -0.0145794 -0.00366993 -3.9966e-26 0 -0.00888348 -0.023185 -0.0444396 -0.0723729 -0.10659 -0.146548 -0.191838 -0.241565 -0.294705 -0.350894 -0.410872 -0.470479 -0.530017 -0.588545 -0.645123 -0.698837 -0.748815 -0.794262 -0.834452 -0.868769 -0.896688 -0.91782 -0.931872 -0.938051 -0.937285 -0.930096 -0.915688 -0.894609 -0.867185 -0.833837 -0.795177 -0.751753 -0.703983 -0.652611 -0.598602 -0.542725 -0.4857 -0.42843 -0.371759 -0.316437 -0.263286 -0.213118 -0.166728 -0.124853 -0.088158 -0.0573686 -0.0327036 -0.0146588 -0.0036885 -4.01675e-26 0 -0.008738 -0.0229284 -0.0440784 -0.0719548 -0.106179 -0.146171 -0.1915 -0.241099 -0.294842 -0.352012 -0.410787 -0.470231 -0.529779 -0.588325 -0.644922 -0.698652 -0.748646 -0.794105 -0.834308 -0.868636 -0.896569 -0.917714 -0.931808 -0.937912 -0.936984 -0.929349 -0.914519 -0.893042 -0.865252 -0.83158 -0.792631 -0.74899 -0.701114 -0.649704 -0.595707 -0.539941 -0.483095 -0.42607 -0.369677 -0.314653 -0.261803 -0.211923 -0.165798 -0.12416 -0.087671 -0.0570651 -0.0325426 -0.014586 -0.0036694 -3.97614e-26 0 -0.0084685 -0.0223611 -0.0431492 -0.0706298 -0.104394 -0.143782 -0.188058 -0.237442 -0.290963 -0.347808 -0.405518 -0.464237 -0.523044 -0.580829 -0.636651 -0.689593 -0.738794 -0.78346 -0.822881 -0.856448 -0.883655 -0.904123 -0.917611 -0.923103 -0.921922 -0.913906 -0.898845 -0.877266 -0.849505 -0.816005 -0.777353 -0.734158 -0.686908 -0.636259 -0.583131 -0.528359 -0.47261 -0.41676 -0.361569 -0.307751 -0.256076 -0.20731 -0.16221 -0.121489 -0.0857957 -0.0557153 -0.0318139 -0.0142844 -0.00359294 -3.87509e-26 0 -0.00810445 -0.0215073 -0.0416042 -0.06825 -0.101015 -0.139356 -0.182389 -0.230591 -0.283003 -0.337908 -0.393953 -0.451041 -0.508182 -0.564298 -0.618462 -0.66978 -0.717408 -0.76057 -0.798579 -0.830845 -0.856887 -0.876343 -0.888997 -0.893774 -0.892344 -0.88405 -0.869016 -0.847701 -0.820431 -0.787647 -0.749909 -0.707837 -0.661951 -0.612869 -0.56143 -0.508467 -0.454678 -0.400872 -0.347746 -0.295983 -0.246305 -0.199429 -0.156072 -0.116916 -0.0825829 -0.0536302 -0.0306357 -0.0137617 -0.00346091 -3.71509e-26 0 -0.00763156 -0.0203493 -0.0394828 -0.0648833 -0.0960959 -0.132743 -0.174368 -0.22066 -0.270795 -0.322845 -0.376432 -0.431028 -0.485635 -0.539224 -0.5909 -0.639798 -0.685106 -0.72608 -0.76206 -0.792487 -0.816905 -0.834981 -0.846513 -0.850429 -0.848778 -0.840354 -0.825566 -0.804809 -0.778419 -0.746846 -0.710618 -0.670348 -0.626576 -0.579857 -0.53093 -0.480591 -0.429566 -0.378643 -0.328414 -0.279524 -0.232631 -0.188394 -0.147473 -0.110505 -0.0780779 -0.0507185 -0.0289562 -0.013026 -0.00327571 -3.49884e-26 0 -0.00706106 -0.0189147 -0.0368009 -0.0605838 -0.0898284 -0.124236 -0.163109 -0.206455 -0.254144 -0.302927 -0.353275 -0.404563 -0.455814 -0.506065 -0.554464 -0.600194 -0.642467 -0.680531 -0.713778 -0.741744 -0.764067 -0.780469 -0.790732 -0.793771 -0.791918 -0.783459 -0.769085 -0.74914 -0.723979 -0.694063 -0.659905 -0.622081 -0.581126 -0.537563 -0.492033 -0.445185 -0.397689 -0.350409 -0.303869 -0.258621 -0.215257 -0.174368 -0.136539 -0.102352 -0.0723467 -0.0470139 -0.0267914 -0.0120703 -0.00304041 -3.23009e-26 0 -0.00640544 -0.0172246 -0.0335965 -0.0553928 -0.0822962 -0.113912 -0.149687 -0.189804 -0.233392 -0.278342 -0.324694 -0.371896 -0.418984 -0.465077 -0.509383 -0.551151 -0.58966 -0.624269 -0.654424 -0.679661 -0.699624 -0.714056 -0.722691 -0.724864 -0.722561 -0.714175 -0.700403 -0.681534 -0.657942 -0.630105 -0.598525 -0.563722 -0.526232 -0.48654 -0.445169 -0.402666 -0.359548 -0.316631 -0.274487 -0.233596 -0.194448 -0.157562 -0.123434 -0.0925772 -0.0654745 -0.0425722 -0.0242689 -0.0109536 -0.00275878 -2.91327e-26 0 -0.00567356 -0.0153034 -0.0299209 -0.0494029 -0.0735617 -0.101893 -0.134294 -0.170668 -0.209372 -0.249798 -0.291503 -0.333959 -0.376237 -0.417548 -0.457161 -0.494389 -0.528592 -0.559218 -0.585764 -0.607801 -0.624984 -0.637057 -0.643608 -0.644862 -0.641769 -0.633577 -0.620629 -0.60316 -0.581505 -0.556126 -0.527544 -0.496261 -0.462788 -0.427563 -0.390997 -0.353558 -0.315637 -0.277831 -0.240721 -0.204836 -0.170523 -0.138235 -0.108358 -0.081329 -0.057565 -0.0374595 -0.0213709 -0.00965575 -0.00243511 -2.55281e-26 0 -0.00487248 -0.0131808 -0.0258341 -0.0427321 -0.0637597 -0.0884173 -0.116763 -0.148716 -0.182506 -0.217835 -0.254322 -0.291453 -0.328349 -0.364326 -0.398726 -0.430929 -0.460367 -0.48649 -0.508847 -0.527106 -0.541003 -0.550366 -0.55467 -0.554858 -0.550876 -0.542871 -0.530869 -0.515113 -0.495811 -0.473296 -0.448123 -0.420814 -0.391814 -0.361547 -0.330363 -0.298578 -0.266511 -0.234551 -0.20314 -0.172783 -0.143854 -0.116684 -0.091543 -0.0687797 -0.0487388 -0.0317536 -0.018136 -0.0081654 -0.00207222 -2.15324e-26 0 -0.00401094 -0.0108883 -0.0214035 -0.0354934 -0.0530774 -0.0737426 -0.0975598 -0.124535 -0.15299 -0.182783 -0.213559 -0.244819 -0.275787 -0.305872 -0.334498 -0.361125 -0.385266 -0.406462 -0.424344 -0.438627 -0.449074 -0.455485 -0.457568 -0.456313 -0.451359 -0.443526 -0.432548 -0.418628 -0.401938 -0.382769 -0.361488 -0.338559 -0.314459 -0.289566 -0.264198 -0.238568 -0.212882 -0.187347 -0.162236 -0.137942 -0.114858 -0.0932434 -0.0732481 -0.0551223 -0.0391309 -0.0255413 -0.0146141 -0.00658803 -0.00167447 -1.71833e-26 0 -0.00310116 -0.00846082 -0.0167026 -0.0278016 -0.0417041 -0.0580975 -0.0769838 -0.0985116 -0.121364 -0.145233 -0.169887 -0.194839 -0.219465 -0.243259 -0.265731 -0.286425 -0.304942 -0.320945 -0.334157 -0.344357 -0.35134 -0.354604 -0.354683 -0.351054 -0.344767 -0.337272 -0.327493 -0.315395 -0.301401 -0.285869 -0.268879 -0.250737 -0.231922 -0.212777 -0.193574 -0.17448 -0.155572 -0.136907 -0.118586 -0.100841 -0.0839857 -0.0682741 -0.0537582 -0.0405698 -0.0288912 -0.0189199 -0.0108604 -0.00491072 -0.00124629 -1.25758e-26 0 -0.00215897 -0.00594016 -0.011814 -0.0197895 -0.0298383 -0.0417647 -0.0553881 -0.0710886 -0.0882875 -0.10589 -0.12408 -0.142401 -0.16038 -0.177597 -0.193655 -0.208187 -0.220878 -0.231469 -0.239764 -0.245624 -0.248825 -0.249519 -0.247326 -0.241431 -0.233281 -0.225547 -0.217095 -0.207059 -0.195975 -0.184126 -0.171655 -0.158675 -0.145465 -0.132384 -0.119644 -0.107344 -0.0954888 -0.0840063 -0.0728301 -0.0620044 -0.0517106 -0.0421561 -0.0333718 -0.0253434 -0.0181732 -0.0119857 -0.00692709 -0.00315132 -0.000800732 -7.71107e-27 0 -0.0012051 -0.00338121 -0.0068415 -0.011625 -0.0177307 -0.0250905 -0.0334892 -0.0432706 -0.0543284 -0.0654463 -0.0769322 -0.0883915 -0.0994912 -0.109902 -0.119314 -0.127452 -0.134089 -0.139054 -0.14222 -0.143505 -0.143022 -0.140827 -0.136781 -0.129787 -0.120089 -0.110066 -0.102819 -0.0948959 -0.0869511 -0.0790627 -0.071268 -0.0636629 -0.0563747 -0.0495981 -0.0435238 -0.0382091 -0.033576 -0.029456 -0.025638 -0.0219806 -0.0184927 -0.0152876 -0.012404 -0.00968682 -0.0071566 -0.00486406 -0.00289377 -0.001353 -0.000354031 -3.05789e-27 0 -0.000287621 -0.000904045 -0.00199611 -0.00362327 -0.00581512 -0.00857419 -0.0119112 -0.0158584 -0.0203037 -0.0248431 -0.0294166 -0.0338293 -0.0378415 -0.0412264 -0.0437754 -0.0452934 -0.0456788 -0.0448432 -0.0427533 -0.0394189 -0.0349811 -0.0296819 -0.0235748 -0.01669 -0.0126091 0.00847626 0.0143967 0.0196504 0.0241131 0.0278488 0.030811 0.0329263 0.0341316 0.0343997 0.0336528 0.0318729 0.0292016 0.0258917 0.0222753 0.0186569 0.0152065 0.0119334 0.0088385 0.00616782 0.00399218 0.00233701 0.00118148 0.00046688 0.000110443 1.20333e-27 0 0.0002746 0.00101975 0.00214691 0.00358027 0.00525136 0.00710424 0.00911059 0.0112308 0.0131466 0.0151326 0.0176902 0.0205242 0.0238008 0.027634 0.0321203 0.0373291 0.0432922 0.0499957 0.0573768 0.0653215 0.0737325 0.08231 0.0909004 0.0993269 0.094138 0.126849 0.131119 0.133709 0.134835 0.134481 0.132665 0.129304 0.124428 0.118129 0.1105 0.101618 0.0916728 0.080997 0.0700177 0.0591739 0.0488102 0.0390763 0.0300516 0.0220409 0.0152057 0.00964468 0.00539617 0.00244173 0.000712942 5.63885e-27 0 0.000705118 0.00277456 0.00611835 0.0106301 0.0161962 0.0226933 0.0300016 0.0380928 0.0465822 0.0552223 0.0647032 0.0747481 0.0852582 0.0962276 0.107636 0.119441 0.131575 0.143936 0.156394 0.168782 0.181092 0.192734 0.203891 0.214438 0.220929 0.24216 0.2451 0.245337 0.243414 0.239196 0.232705 0.223988 0.213154 0.200389 0.185946 0.170037 0.152936 0.135048 0.116875 0.0989757 0.0818477 0.0657861 0.050973 0.0377474 0.0263568 0.0169658 0.00966704 0.00447943 0.00135282 1.03978e-26 0 0.00116853 0.00459658 0.0101617 0.0177203 0.0271121 0.0381678 0.0507008 0.0644802 0.0792653 0.0947408 0.110756 0.127799 0.145339 0.163239 0.181367 0.199576 0.217697 0.235531 0.252872 0.269587 0.285533 0.300073 0.313629 0.325849 0.344952 0.353848 0.355037 0.353142 0.348241 0.340261 0.329271 0.315388 0.298815 0.27983 0.258784 0.236051 0.212021 0.187174 0.16208 0.137405 0.113768 0.0916137 0.071245 0.0530007 0.0372121 0.0241187 0.0138547 0.00648314 0.00197944 1.50962e-26 0 0.0015811 0.00626184 0.0139134 0.0243645 0.0374105 0.0528224 0.070357 0.089751 0.11071 0.132682 0.155126 0.178581 0.202865 0.227439 0.252058 0.276434 0.300295 0.323362 0.34535 0.366168 0.385458 0.4027 0.418351 0.431911 0.455341 0.45978 0.459258 0.455385 0.44763 0.436066 0.420787 0.401993 0.379981 0.355116 0.327826 0.29861 0.267988 0.236544 0.204904 0.173838 0.144053 0.116148 0.0905417 0.067536 0.0475771 0.0309512 0.0178602 0.00840038 0.00257329 1.95978e-26 0 0.00199492 0.0078957 0.0175474 0.0307463 0.0472474 0.0667685 0.0889982 0.113609 0.140244 0.168309 0.19709 0.226581 0.257162 0.288032 0.318746 0.34891 0.378152 0.406106 0.432416 0.457016 0.479336 0.498973 0.516236 0.537827 0.555138 0.558067 0.556337 0.550492 0.540044 0.525081 0.505769 0.482393 0.455322 0.424998 0.391932 0.356692 0.31994 0.282371 0.244664 0.207688 0.172216 0.138995 0.108539 0.0811046 0.0572741 0.0373554 0.0216093 0.0101839 0.00312252 2.38126e-26 0 0.00235626 0.00935012 0.0208212 0.0365408 0.056224 0.079539 0.106114 0.135535 0.16735 0.20107 0.236191 0.271636 0.307456 0.343962 0.380304 0.415818 0.45002 0.482458 0.512712 0.540725 0.565719 0.587084 0.608715 0.637314 0.64574 0.64774 0.644917 0.637097 0.624037 0.605886 0.582865 0.555307 0.523633 0.48835 0.450047 0.409354 0.36705 0.323925 0.280737 0.238412 0.197801 0.159771 0.124918 0.0934744 0.0661295 0.0432211 0.0250489 0.0118164 0.00361364 2.76679e-26 0 0.00269929 0.0107051 0.0238378 0.0418446 0.0644047 0.0911414 0.12163 0.155404 0.191963 0.230774 0.271089 0.312483 0.35382 0.394665 0.435863 0.476165 0.51481 0.551248 0.584999 0.61599 0.64298 0.667854 0.703106 0.718726 0.726346 0.727334 0.723492 0.713792 0.698299 0.677248 0.650899 0.61961 0.583846 0.544175 0.501255 0.455767 0.408577 0.360557 0.31255 0.265525 0.220397 0.178134 0.139407 0.104441 0.0739954 0.0484387 0.028119 0.0132792 0.00405111 3.10976e-26 0 0.00298423 0.011851 0.0264177 0.0464137 0.0714895 0.101227 0.135152 0.172741 0.213433 0.256632 0.301573 0.347597 0.394363 0.440144 0.484789 0.529016 0.571495 0.611392 0.64816 0.681274 0.712062 0.751949 0.7753 0.788241 0.79549 0.795474 0.790608 0.779276 0.761713 0.738138 0.708873 0.674339 0.635052 0.591624 0.544766 0.495205 0.44387 0.391699 0.339607 0.288603 0.239657 0.193804 0.151781 0.113822 0.0807295 0.0529152 0.0307628 0.0145477 0.00443303 3.40427e-26 0 0.00323749 0.0128508 0.0286404 0.0503181 0.0775135 0.109779 0.146595 0.187391 0.231552 0.27841 0.32724 0.377257 0.4279 0.478452 0.52718 0.57393 0.619248 0.661918 0.700724 0.739171 0.784309 0.812658 0.832054 0.845259 0.851994 0.851376 0.845416 0.832635 0.813293 0.787606 0.755923 0.718703 0.676507 0.63 0.579934 0.52707 0.472384 0.41687 0.361491 0.307285 0.25528 0.206535 0.161848 0.121501 0.0862509 0.0565851 0.0329225 0.0155775 0.00474512 3.64548e-26 0 0.00342774 0.0136157 0.0303644 0.0533753 0.082258 0.116539 0.155669 0.199035 0.245972 0.295771 0.347681 0.400855 0.45457 0.508143 0.560729 0.610695 0.65753 0.702257 0.750729 0.796617 0.829529 0.85567 0.875557 0.888896 0.895132 0.894012 0.887103 0.873074 0.852232 0.824838 0.791259 0.751968 0.707554 0.658712 0.606226 0.550875 0.493686 0.43569 0.377867 0.321284 0.267032 0.216158 0.169474 0.127356 0.0904911 0.0594216 0.0345969 0.016371 0.00497937 3.82978e-26 0 0.00357475 0.0141987 0.0316615 0.0556511 0.085764 0.121511 0.162325 0.207565 0.256529 0.308468 0.362596 0.418068 0.474079 0.52985 0.584413 0.636545 0.688095 0.74213 0.787101 0.825562 0.858323 0.885 0.905164 0.918477 0.924222 0.922668 0.914963 0.89996 0.877996 0.849353 0.814416 0.773676 0.727741 0.677326 0.623236 0.566256 0.507458 0.447879 0.388489 0.330392 0.27475 0.222557 0.174556 0.131251 0.0933307 0.0613493 0.035766 0.016946 0.00515317 3.95426e-26 0 0.0036586 0.0145365 0.0324259 0.0570121 0.0878838 0.124538 0.166392 0.212788 0.263007 0.316273 0.371768 0.428636 0.486051 0.543188 0.599013 0.652116 0.710178 0.757599 0.801465 0.840267 0.873364 0.900211 0.920373 0.93355 0.938687 0.936606 0.928082 0.912255 0.889445 0.859936 0.824125 0.782529 0.73578 0.684605 0.629806 0.57217 0.51276 0.452597 0.392646 0.334029 0.277959 0.22535 0.176776 0.132978 0.0946151 0.0622412 0.0363268 0.0172448 0.00526487 4.01675e-26 0 0.0036885 0.0146588 0.0327035 0.0575058 0.0886492 0.125626 0.167847 0.214647 0.265299 0.319018 0.374974 0.432297 0.490163 0.547734 0.603952 0.657832 0.70974 0.757844 0.801702 0.840493 0.873568 0.900377 0.920483 0.933588 0.938569 0.9364 0.927696 0.911678 0.888669 0.858971 0.823008 0.78132 0.734544 0.683394 0.628634 0.571132 0.511869 0.451832 0.392044 0.333624 0.277754 0.225315 0.176738 0.132972 0.0946371 0.062279 0.0363675 0.0172789 0.00528635 4.01622e-26 0 0.00368861 0.0146595 0.0327046 0.0575068 0.0886365 0.12558 0.167745 0.214466 0.265017 0.318613 0.374426 0.431592 0.489272 0.546671 0.602701 0.657107 0.700891 0.747384 0.790482 0.828525 0.860901 0.887067 0.906589 0.91916 0.923662 0.921339 0.912444 0.896342 0.873389 0.843918 0.808363 0.767252 0.721191 0.670887 0.617049 0.56056 0.502409 0.443494 0.384862 0.32767 0.272906 0.221362 0.173683 0.130712 0.093057 0.0612619 0.0357918 0.0170195 0.00521713 3.95263e-26 0 -nan -nan 0.031916 0.0561341 0.0865608 0.122689 0.163932 0.209628 0.259056 0.311443 0.365979 0.421817 0.478131 0.534119 0.588808 0.6426 0.68086 0.72476 0.766401 0.803084 0.834263 0.859417 0.878129 0.89011 0.894222 0.891793 0.88289 0.867046 0.844623 0.815944 0.781417 0.74154 0.696926 0.648224 0.596117 0.541498 0.485341 0.428453 0.371862 0.316723 0.263882 0.213998 0.167957 0.126431 0.0900283 0.0592835 0.0346485 0.0164861 0.00