<?xml version="1.0"?>
<VTKFile type="PolyData">
	<PolyData>
		<Piece NumberOfPoints="1206" NumberOfPolys="1000">
			<Points>
				<DataArray type="Float32" NumberOfComponents="3" format="ascii">
 0 0 0 0.02 0 0 0.04 0 0 0.06 0 0 0.08 0 0 0.1 0 0 0 0.005 0 0.02 0.005 0 0.04 0.005 0 0.06 0.005 0 0.08 0.005 0 0.1 0.005 0 0 0.01 0 0.02 0.01 0 0.04 0.01 0 0.06 0.01 0 0.08 0.01 0 0.1 0.01 0 0 0.015 0 0.02 0.015 0 0.04 0.015 0 0.06 0.015 0 0.08 0.015 0 0.1 0.015 0 0 0.02 0 0.02 0.02 0 0.04 0.02 0 0.06 0.02 0 0.08 0.02 0 0.1 0.02 0 0 0.025 0 0.02 0.025 0 0.04 0.025 0 0.06 0.025 0 0.08 0.025 0 0.1 0.025 0 0 0.03 0 0.02 0.03 0 0.04 0.03 0 0.06 0.03 0 0.08 0.03 0 0.1 0.03 0 0 0.035 0 0.02 0.035 0 0.04 0.035 0 0.06 0.035 0 0.08 0.035 0 0.1 0.035 0 0 0.04 0 0.02 0.04 0 0.04 0.04 0 0.06 0.04 0 0.08 0.04 0 0.1 0.04 0 0 0.045 0 0.02 0.045 0 0.04 0.045 0 0.06 0.045 0 0.08 0.045 0 0.1 0.045 0 0 0.05 0 0.02 0.05 0 0.04 0.05 0 0.06 0.05 0 0.08 0.05 0 0.1 0.05 0 0 0.055 0 0.02 0.055 0 0.04 0.055 0 0.06 0.055 0 0.08 0.055 0 0.1 0.055 0 0 0.06 0 0.02 0.06 0 0.04 0.06 0 0.06 0.06 0 0.08 0.06 0 0.1 0.06 0 0 0.065 0 0.02 0.065 0 0.04 0.065 0 0.06 0.065 0 0.08 0.065 0 0.1 0.065 0 0 0.07 0 0.02 0.07 0 0.04 0.07 0 0.06 0.07 0 0.08 0.07 0 0.1 0.07 0 0 0.075 0 0.02 0.075 0 0.04 0.075 0 0.06 0.075 0 0.08 0.075 0 0.1 0.075 0 0 0.08 0 0.02 0.08 0 0.04 0.08 0 0.06 0.08 0 0.08 0.08 0 0.1 0.08 0 0 0.085 0 0.02 0.085 0 0.04 0.085 0 0.06 0.085 0 0.08 0.085 0 0.1 0.085 0 0 0.09 0 0.02 0.09 0 0.04 0.09 0 0.06 0.09 0 0.08 0.09 0 0.1 0.09 0 0 0.095 0 0.02 0.095 0 0.04 0.095 0 0.06 0.095 0 0.08 0.095 0 0.1 0.095 0 0 0.1 0 0.02 0.1 0 0.04 0.1 0 0.06 0.1 0 0.08 0.1 0 0.1 0.1 0 0 0.105 0 0.02 0.105 0 0.04 0.105 0 0.06 0.105 0 0.08 0.105 0 0.1 0.105 0 0 0.11 0 0.02 0.11 0 0.04 0.11 0 0.06 0.11 0 0.08 0.11 0 0.1 0.11 0 0 0.115 0 0.02 0.115 0 0.04 0.115 0 0.06 0.115 0 0.08 0.115 0 0.1 0.115 0 0 0.12 0 0.02 0.12 0 0.04 0.12 0 0.06 0.12 0 0.08 0.12 0 0.1 0.12 0 0 0.125 0 0.02 0.125 0 0.04 0.125 0 0.06 0.125 0 0.08 0.125 0 0.1 0.125 0 0 0.13 0 0.02 0.13 0 0.04 0.13 0 0.06 0.13 0 0.08 0.13 0 0.1 0.13 0 0 0.135 0 0.02 0.135 0 0.04 0.135 0 0.06 0.135 0 0.08 0.135 0 0.1 0.135 0 0 0.14 0 0.02 0.14 0 0.04 0.14 0 0.06 0.14 0 0.08 0.14 0 0.1 0.14 0 0 0.145 0 0.02 0.145 0 0.04 0.145 0 0.06 0.145 0 0.08 0.145 0 0.1 0.145 0 0 0.15 0 0.02 0.15 0 0.04 0.15 0 0.06 0.15 0 0.08 0.15 0 0.1 0.15 0 0 0.155 0 0.02 0.155 0 0.04 0.155 0 0.06 0.155 0 0.08 0.155 0 0.1 0.155 0 0 0.16 0 0.02 0.16 0 0.04 0.16 0 0.06 0.16 0 0.08 0.16 0 0.1 0.16 0 0 0.165 0 0.02 0.165 0 0.04 0.165 0 0.06 0.165 0 0.08 0.165 0 0.1 0.165 0 0 0.17 0 0.02 0.17 0 0.04 0.17 0 0.06 0.17 0 0.08 0.17 0 0.1 0.17 0 0 0.175 0 0.02 0.175 0 0.04 0.175 0 0.06 0.175 0 0.08 0.175 0 0.1 0.175 0 0 0.18 0 0.02 0.18 0 0.04 0.18 0 0.06 0.18 0 0.08 0.18 0 0.1 0.18 0 0 0.185 0 0.02 0.185 0 0.04 0.185 0 0.06 0.185 0 0.08 0.185 0 0.1 0.185 0 0 0.19 0 0.02 0.19 0 0.04 0.19 0 0.06 0.19 0 0.08 0.19 0 0.1 0.19 0 0 0.195 0 0.02 0.195 0 0.04 0.195 0 0.06 0.195 0 0.08 0.195 0 0.1 0.195 0 0 0.2 0 0.02 0.2 0 0.04 0.2 0 0.06 0.2 0 0.08 0.2 0 0.1 0.2 0 0 0.205 0 0.02 0.205 0 0.04 0.205 0 0.06 0.205 0 0.08 0.205 0 0.1 0.205 0 0 0.21 0 0.02 0.21 0 0.04 0.21 0 0.06 0.21 0 0.08 0.21 0 0.1 0.21 0 0 0.215 0 0.02 0.215 0 0.04 0.215 0 0.06 0.215 0 0.08 0.215 0 0.1 0.215 0 0 0.22 0 0.02 0.22 0 0.04 0.22 0 0.06 0.22 0 0.08 0.22 0 0.1 0.22 0 0 0.225 0 0.02 0.225 0 0.04 0.225 0 0.06 0.225 0 0.08 0.225 0 0.1 0.225 0 0 0.23 0 0.02 0.23 0 0.04 0.23 0 0.06 0.23 0 0.08 0.23 0 0.1 0.23 0 0 0.235 0 0.02 0.235 0 0.04 0.235 0 0.06 0.235 0 0.08 0.235 0 0.1 0.235 0 0 0.24 0 0.02 0.24 0 0.04 0.24 0 0.06 0.24 0 0.08 0.24 0 0.1 0.24 0 0 0.245 0 0.02 0.245 0 0.04 0.245 0 0.06 0.245 0 0.08 0.245 0 0.1 0.245 0 0 0.25 0 0.02 0.25 0 0.04 0.25 0 0.06 0.25 0 0.08 0.25 0 0.1 0.25 0 0 0.255 0 0.02 0.255 0 0.04 0.255 0 0.06 0.255 0 0.08 0.255 0 0.1 0.255 0 0 0.26 0 0.02 0.26 0 0.04 0.26 0 0.06 0.26 0 0.08 0.26 0 0.1 0.26 0 0 0.265 0 0.02 0.265 0 0.04 0.265 0 0.06 0.265 0 0.08 0.265 0 0.1 0.265 0 0 0.27 0 0.02 0.27 0 0.04 0.27 0 0.06 0.27 0 0.08 0.27 0 0.1 0.27 0 0 0.275 0 0.02 0.275 0 0.04 0.275 0 0.06 0.275 0 0.08 0.275 0 0.1 0.275 0 0 0.28 0 0.02 0.28 0 0.04 0.28 0 0.06 0.28 0 0.08 0.28 0 0.1 0.28 0 0 0.285 0 0.02 0.285 0 0.04 0.285 0 0.06 0.285 0 0.08 0.285 0 0.1 0.285 0 0 0.29 0 0.02 0.29 0 0.04 0.29 0 0.06 0.29 0 0.08 0.29 0 0.1 0.29 0 0 0.295 0 0.02 0.295 0 0.04 0.295 0 0.06 0.295 0 0.08 0.295 0 0.1 0.295 0 0 0.3 0 0.02 0.3 0 0.04 0.3 0 0.06 0.3 0 0.08 0.3 0 0.1 0.3 0 0 0.305 0 0.02 0.305 0 0.04 0.305 0 0.06 0.305 0 0.08 0.305 0 0.1 0.305 0 0 0.31 0 0.02 0.31 0 0.04 0.31 0 0.06 0.31 0 0.08 0.31 0 0.1 0.31 0 0 0.315 0 0.02 0.315 0 0.04 0.315 0 0.06 0.315 0 0.08 0.315 0 0.1 0.315 0 0 0.32 0 0.02 0.32 0 0.04 0.32 0 0.06 0.32 0 0.08 0.32 0 0.1 0.32 0 0 0.325 0 0.02 0.325 0 0.04 0.325 0 0.06 0.325 0 0.08 0.325 0 0.1 0.325 0 0 0.33 0 0.02 0.33 0 0.04 0.33 0 0.06 0.33 0 0.08 0.33 0 0.1 0.33 0 0 0.335 0 0.02 0.335 0 0.04 0.335 0 0.06 0.335 0 0.08 0.335 0 0.1 0.335 0 0 0.34 0 0.02 0.34 0 0.04 0.34 0 0.06 0.34 0 0.08 0.34 0 0.1 0.34 0 0 0.345 0 0.02 0.345 0 0.04 0.345 0 0.06 0.345 0 0.08 0.345 0 0.1 0.345 0 0 0.35 0 0.02 0.35 0 0.04 0.35 0 0.06 0.35 0 0.08 0.35 0 0.1 0.35 0 0 0.355 0 0.02 0.355 0 0.04 0.355 0 0.06 0.355 0 0.08 0.355 0 0.1 0.355 0 0 0.36 0 0.02 0.36 0 0.04 0.36 0 0.06 0.36 0 0.08 0.36 0 0.1 0.36 0 0 0.365 0 0.02 0.365 0 0.04 0.365 0 0.06 0.365 0 0.08 0.365 0 0.1 0.365 0 0 0.37 0 0.02 0.37 0 0.04 0.37 0 0.06 0.37 0 0.08 0.37 0 0.1 0.37 0 0 0.375 0 0.02 0.375 0 0.04 0.375 0 0.06 0.375 0 0.08 0.375 0 0.1 0.375 0 0 0.38 0 0.02 0.38 0 0.04 0.38 0 0.06 0.38 0 0.08 0.38 0 0.1 0.38 0 0 0.385 0 0.02 0.385 0 0.04 0.385 0 0.06 0.385 0 0.08 0.385 0 0.1 0.385 0 0 0.39 0 0.02 0.39 0 0.04 0.39 0 0.06 0.39 0 0.08 0.39 0 0.1 0.39 0 0 0.395 0 0.02 0.395 0 0.04 0.395 0 0.06 0.395 0 0.08 0.395 0 0.1 0.395 0 0 0.4 0 0.02 0.4 0 0.04 0.4 0 0.06 0.4 0 0.08 0.4 0 0.1 0.4 0 0 0.405 0 0.02 0.405 0 0.04 0.405 0 0.06 0.405 0 0.08 0.405 0 0.1 0.405 0 0 0.41 0 0.02 0.41 0 0.04 0.41 0 0.06 0.41 0 0.08 0.41 0 0.1 0.41 0 0 0.415 0 0.02 0.415 0 0.04 0.415 0 0.06 0.415 0 0.08 0.415 0 0.1 0.415 0 0 0.42 0 0.02 0.42 0 0.04 0.42 0 0.06 0.42 0 0.08 0.42 0 0.1 0.42 0 0 0.425 0 0.02 0.425 0 0.04 0.425 0 0.06 0.425 0 0.08 0.425 0 0.1 0.425 0 0 0.43 0 0.02 0.43 0 0.04 0.43 0 0.06 0.43 0 0.08 0.43 0 0.1 0.43 0 0 0.435 0 0.02 0.435 0 0.04 0.435 0 0.06 0.435 0 0.08 0.435 0 0.1 0.435 0 0 0.44 0 0.02 0.44 0 0.04 0.44 0 0.06 0.44 0 0.08 0.44 0 0.1 0.44 0 0 0.445 0 0.02 0.445 0 0.04 0.445 0 0.06 0.445 0 0.08 0.445 0 0.1 0.445 0 0 0.45 0 0.02 0.45 0 0.04 0.45 0 0.06 0.45 0 0.08 0.45 0 0.1 0.45 0 0 0.455 0 0.02 0.455 0 0.04 0.455 0 0.06 0.455 0 0.08 0.455 0 0.1 0.455 0 0 0.46 0 0.02 0.46 0 0.04 0.46 0 0.06 0.46 0 0.08 0.46 0 0.1 0.46 0 0 0.465 0 0.02 0.465 0 0.04 0.465 0 0.06 0.465 0 0.08 0.465 0 0.1 0.465 0 0 0.47 0 0.02 0.47 0 0.04 0.47 0 0.06 0.47 0 0.08 0.47 0 0.1 0.47 0 0 0.475 0 0.02 0.475 0 0.04 0.475 0 0.06 0.475 0 0.08 0.475 0 0.1 0.475 0 0 0.48 0 0.02 0.48 0 0.04 0.48 0 0.06 0.48 0 0.08 0.48 0 0.1 0.48 0 0 0.485 0 0.02 0.485 0 0.04 0.485 0 0.06 0.485 0 0.08 0.485 0 0.1 0.485 0 0 0.49 0 0.02 0.49 0 0.04 0.49 0 0.06 0.49 0 0.08 0.49 0 0.1 0.49 0 0 0.495 0 0.02 0.495 0 0.04 0.495 0 0.06 0.495 0 0.08 0.495 0 0.1 0.495 0 0 0.5 0 0.02 0.5 0 0.04 0.5 0 0.06 0.5 0 0.08 0.5 0 0.1 0.5 0 0 0.505 0 0.02 0.505 0 0.04 0.505 0 0.06 0.505 0 0.08 0.505 0 0.1 0.505 0 0 0.51 0 0.02 0.51 0 0.04 0.51 0 0.06 0.51 0 0.08 0.51 0 0.1 0.51 0 0 0.515 0 0.02 0.515 0 0.04 0.515 0 0.06 0.515 0 0.08 0.515 0 0.1 0.515 0 0 0.52 0 0.02 0.52 0 0.04 0.52 0 0.06 0.52 0 0.08 0.52 0 0.1 0.52 0 0 0.525 0 0.02 0.525 0 0.04 0.525 0 0.06 0.525 0 0.08 0.525 0 0.1 0.525 0 0 0.53 0 0.02 0.53 0 0.04 0.53 0 0.06 0.53 0 0.08 0.53 0 0.1 0.53 0 0 0.535 0 0.02 0.535 0 0.04 0.535 0 0.06 0.535 0 0.08 0.535 0 0.1 0.535 0 0 0.54 0 0.02 0.54 0 0.04 0.54 0 0.06 0.54 0 0.08 0.54 0 0.1 0.54 0 0 0.545 0 0.02 0.545 0 0.04 0.545 0 0.06 0.545 0 0.08 0.545 0 0.1 0.545 0 0 0.55 0 0.02 0.55 0 0.04 0.55 0 0.06 0.55 0 0.08 0.55 0 0.1 0.55 0 0 0.555 0 0.02 0.555 0 0.04 0.555 0 0.06 0.555 0 0.08 0.555 0 0.1 0.555 0 0 0.56 0 0.02 0.56 0 0.04 0.56 0 0.06 0.56 0 0.08 0.56 0 0.1 0.56 0 0 0.565 0 0.02 0.565 0 0.04 0.565 0 0.06 0.565 0 0.08 0.565 0 0.1 0.565 0 0 0.57 0 0.02 0.57 0 0.04 0.57 0 0.06 0.57 0 0.08 0.57 0 0.1 0.57 0 0 0.575 0 0.02 0.575 0 0.04 0.575 0 0.06 0.575 0 0.08 0.575 0 0.1 0.575 0 0 0.58 0 0.02 0.58 0 0.04 0.58 0 0.06 0.58 0 0.08 0.58 0 0.1 0.58 0 0 0.585 0 0.02 0.585 0 0.04 0.585 0 0.06 0.585 0 0.08 0.585 0 0.1 0.585 0 0 0.59 0 0.02 0.59 0 0.04 0.59 0 0.06 0.59 0 0.08 0.59 0 0.1 0.59 0 0 0.595 0 0.02 0.595 0 0.04 0.595 0 0.06 0.595 0 0.08 0.595 0 0.1 0.595 0 0 0.6 0 0.02 0.6 0 0.04 0.6 0 0.06 0.6 0 0.08 0.6 0 0.1 0.6 0 0 0.605 0 0.02 0.605 0 0.04 0.605 0 0.06 0.605 0 0.08 0.605 0 0.1 0.605 0 0 0.61 0 0.02 0.61 0 0.04 0.61 0 0.06 0.61 0 0.08 0.61 0 0.1 0.61 0 0 0.615 0 0.02 0.615 0 0.04 0.615 0 0.06 0.615 0 0.08 0.615 0 0.1 0.615 0 0 0.62 0 0.02 0.62 0 0.04 0.62 0 0.06 0.62 0 0.08 0.62 0 0.1 0.62 0 0 0.625 0 0.02 0.625 0 0.04 0.625 0 0.06 0.625 0 0.08 0.625 0 0.1 0.625 0 0 0.63 0 0.02 0.63 0 0.04 0.63 0 0.06 0.63 0 0.08 0.63 0 0.1 0.63 0 0 0.635 0 0.02 0.635 0 0.04 0.635 0 0.06 0.635 0 0.08 0.635 0 0.1 0.635 0 0 0.64 0 0.02 0.64 0 0.04 0.64 0 0.06 0.64 0 0.08 0.64 0 0.1 0.64 0 0 0.645 0 0.02 0.645 0 0.04 0.645 0 0.06 0.645 0 0.08 0.645 0 0.1 0.645 0 0 0.65 0 0.02 0.65 0 0.04 0.65 0 0.06 0.65 0 0.08 0.65 0 0.1 0.65 0 0 0.655 0 0.02 0.655 0 0.04 0.655 0 0.06 0.655 0 0.08 0.655 0 0.1 0.655 0 0 0.66 0 0.02 0.66 0 0.04 0.66 0 0.06 0.66 0 0.08 0.66 0 0.1 0.66 0 0 0.665 0 0.02 0.665 0 0.04 0.665 0 0.06 0.665 0 0.08 0.665 0 0.1 0.665 0 0 0.67 0 0.02 0.67 0 0.04 0.67 0 0.06 0.67 0 0.08 0.67 0 0.1 0.67 0 0 0.675 0 0.02 0.675 0 0.04 0.675 0 0.06 0.675 0 0.08 0.675 0 0.1 0.675 0 0 0.68 0 0.02 0.68 0 0.04 0.68 0 0.06 0.68 0 0.08 0.68 0 0.1 0.68 0 0 0.685 0 0.02 0.685 0 0.04 0.685 0 0.06 0.685 0 0.08 0.685 0 0.1 0.685 0 0 0.69 0 0.02 0.69 0 0.04 0.69 0 0.06 0.69 0 0.08 0.69 0 0.1 
[...]
			<CellData Scalars="Density">
				<DataArray Name="Density" type="Float32" format="ascii">
 1 1 1 1 1 1 1 1 1 1 1 1 1 1 1 1 1 1 1 1 1 1 1 1 1 1 1 1 1 1 1 1 1 1 1 1 1 1 1 1 1 1 1 1 1 1 1 1 1 1 1 1 1 1 1 1 1 1 1 1 1 1 1 1 1 1 1 1 1 1 1 1 1 1 1 1 1 1 1 1 1 1 1 1 1 1 1 1 1 1 1 1 1 1 1 1 1 1 1 1 1 1 1 1 1 1 1 1 1 1 1 1 1 1 1 1 1 1 1 1 1 1 1 1 1 1 1 1 1 1 1 1 1 1 1 1 1 1 1 1 1 1 1 1 1 1 1 1 1 1 1 1 1 1 1 1 1 1 1 1 1 1 1 1 1 1 1 1 1 1 1 1 1 1 1 0.999999 0.999999 0.999999 0.999999 0.999999 0.999998 0.999998 0.999998 0.999998 0.999998 0.999994 0.999994 0.999994 0.999994 0.999994 0.999982 0.999982 0.999982 0.999982 0.999983 0.999951 0.999951 0.999952 0.999952 0.999954 0.999871 0.999866 0.999872 0.999877 0.999884 0.999689 0.999666 0.999691 0.999712 0.999737 0.999333 0.999265 0.999339 0.9994 0.999451 0.998702 0.998552 0.998723 0.998845 0.998912 0.99767 0.997398 0.997725 0.997883 0.997926 0.996075 0.995654 0.99615 0.996228 0.99624 0.993745 0.993186 0.993741 0.993577 0.993713 0.9905 0.989841 0.990424 0.98993 0.990334 0.98621 0.985444 0.986124 0.985304 0.98603 0.980845 0.979928 0.980786 0.979681 0.980725 0.974434 0.973324 0.974417 0.973065 0.974386 0.967037 0.965715 0.967059 0.965496 0.967038 0.958718 0.957204 0.958763 0.957033 0.958732 0.949514 0.94788 0.949592 0.947745 0.949519 0.939515 0.937825 0.939612 0.937698 0.939499 0.928802 0.927128 0.928925 0.926982 0.928762 0.917475 0.915883 0.917626 0.915694 0.917412 0.905637 0.904177 0.905817 0.903937 0.905554 0.893381 0.892089 0.893589 0.891801 0.893284 0.880793 0.879689 0.881029 0.879374 0.880691 0.867946 0.867038 0.86821 0.866731 0.867854 0.854896 0.854188 0.855193 0.853931 0.854848 0.841667 0.841174 0.842013 0.84101 0.841711 0.828195 0.827987 0.828684 0.827958 0.828312 0.814413 0.814653 0.815317 0.814817 0.814826 0.800633 0.801457 0.802085 0.801584 0.801432 0.78711 0.788569 0.789028 0.788346 0.788246 0.774034 0.77595 0.776085 0.775177 0.775207 0.761341 0.763334 0.763157 0.762185 0.762283 0.748964 0.75071 0.750333 0.749422 0.749426 0.736804 0.738087 0.737678 0.736892 0.736672 0.724765 0.7254 0.72498 0.724565 0.724125 0.712633 0.712532 0.711974 0.712291 0.711897 0.700633 0.699874 0.698842 0.700122 0.699968 0.688905 0.687635 0.685919 0.688195 0.688191 0.677339 0.675738 0.673344 0.676455 0.67647 0.66577 0.664196 0.661199 0.664888 0.664806 0.654146 0.652952 0.649491 0.653495 0.65325 0.642621 0.641845 0.638181 0.642232 0.641831 0.631249 0.630814 0.627203 0.63109 0.63058 0.620072 0.619877 0.616486 0.620079 0.619518 0.609091 0.609051 0.605982 0.609215 0.60865 0.598322 0.598374 0.595681 0.598524 0.597977 0.58778 0.587886 0.585586 0.588028 0.587502 0.577457 0.577606 0.575709 0.577744 0.577225 0.567353 0.567545 0.566073 0.567687 0.567154 0.557469 0.557707 0.556696 0.557866 0.557296 0.547823 0.548104 0.547582 0.548287 0.54766 0.538438 0.538711 0.538671 0.538959 0.538268 0.529327 0.529508 0.529871 0.529862 0.52914 0.520508 0.520578 0.521228 0.521006 0.520281 0.511972 0.511972 0.512819 0.512412 0.511694 0.503726 0.503679 0.504673 0.504103 0.503417 0.49579 0.495702 0.496818 0.496096 0.495431 0.488181 0.488045 0.489284 0.488425 0.487748 0.480921 0.480739 0.482097 0.481129 0.480401 0.474024 0.473843 0.475309 0.474241 0.473438 0.4675 0.467354 0.468912 0.467779 0.46691 0.461364 0.461269 0.462918 0.461752 0.460859 0.455658 0.455618 0.45735 0.456171 0.455311 0.450396 0.450451 0.452251 0.451027 0.450268 0.445587 0.445942 0.447737 0.446343 0.445702 0.441238 0.442158 0.443729 0.442216 0.441598 0.437521 0.438821 0.440014 0.43866 0.437973 0.434443 0.435834 0.436647 0.435619 0.434852 0.431949 0.433212 0.433603 0.433058 0.432259 0.42996 0.430985 0.430833 0.430899 0.430157 0.428333 0.429155 0.428584 0.429099 0.428442 0.426975 0.427659 0.426942 0.427603 0.427028 0.425855 0.426417 0.425727 0.42636 0.425873 0.424953 0.425394 0.424803 0.425344 0.424943 0.424242 0.424566 0.424104 0.424529 0.42421 0.423688 0.423911 0.423588 0.423885 0.423642 0.423257 0.4234 0.423221 0.42338 0.423208 0.42292 0.422988 0.422938 0.422971 0.422875 0.422651 0.42267 0.422707 0.422655 0.422611 0.422425 0.422429 0.422499 0.422425 0.422384 0.422228 0.42223 0.422282 0.422242 0.422183 0.422042 0.422048 0.422062 0.422068 0.421997 0.421841 0.421853 0.421848 0.421875 0.421802 0.421601 0.421617 0.421606 0.421634 0.421571 0.421295 0.421306 0.421293 0.421315 0.421271 0.420877 0.420875 0.420863 0.420881 0.420861 0.420295 0.420271 0.420264 0.420278 0.420284 0.419486 0.419442 0.419444 0.41945 0.419481 0.418397 0.418334 0.41835 0.418342 0.418395 0.416978 0.4169 0.416936 0.416914 0.416991 0.415215 0.415153 0.415185 0.415168 0.415248 0.413185 0.413091 0.413166 0.41314 0.413197 0.410851 0.410867 0.410919 0.410882 0.410917 0.408383 0.408618 0.408494 0.408537 0.408538 0.40605 0.406377 0.40614 0.406261 0.406215 0.40416 0.404258 0.404045 0.404223 0.404172 0.40263 0.402505 0.40249 0.40267 0.402367 0.401553 0.401778 0.401772 0.401751 0.401566 0.376033 0.376426 0.376537 0.376464 0.37592 0.306618 0.306968 0.307084 0.306981 0.306527 0.264052 0.264089 0.26409 0.26407 0.264007 0.263811 0.263804 0.263791 0.263786 0.263776 0.264134 0.264125 0.264108 0.264107 0.2641 0.264632 0.26462 0.264605 0.264604 0.264602 0.265192 0.26518 0.265168 0.265163 0.265163 0.265738 0.265726 0.26571 0.265709 0.265714 0.26623 0.266218 0.266198 0.266201 0.266204 0.266646 0.266635 0.266612 0.266619 0.266618 0.266981 0.266971 0.266945 0.266955 0.266948 0.267238 0.267228 0.267198 0.267212 0.267199 0.267424 0.267418 0.267383 0.2674 0.26738 0.267553 0.267552 0.267512 0.267529 0.267505 0.267641 0.267641 0.267598 0.267615 0.267587 0.267699 0.2677 0.267654 0.267671 0.267637 0.267738 0.267735 0.267687 0.267705 0.267665 0.267763 0.267756 0.267704 0.267727 0.267677 0.267779 0.267765 0.267709 0.267745 0.267678 0.267794 0.267773 0.267706 0.267767 0.267668 0.267817 0.267787 0.267679 0.267791 0.267638 0.267847 0.267803 0.267629 0.267827 0.267607 0.267858 0.267794 0.267549 0.267854 0.267601 0.267861 0.267714 0.267444 0.267786 0.267596 0.267891 0.267563 0.267384 0.267568 0.267642 0.267945 0.267302 0.267396 0.267199 0.267759 0.267939 0.266798 0.267397 0.266533 0.267766 0.267689 0.265994 0.267192 0.265556 0.267574 0.266732 0.264574 0.266071 0.263968 0.266694 0.264196 0.262442 0.263125 0.261723 0.264307 0.257332 0.257073 0.254628 0.256175 0.257664 0.243311 0.247456 0.241926 0.24653 0.243342 0.216826 0.223869 0.217508 0.224397 0.216041 0.184155 0.190084 0.18692 0.192608 0.183261 0.144476 0.146103 0.14603 0.148419 0.145481 0.128542 0.128681 0.128905 0.129083 0.128927 0.125577 0.125604 0.125628 0.125636 0.125629 0.125091 0.125094 0.125095 0.125096 0.125095 0.125014 0.125014 0.125014 0.125014 0.125014 0.125002 0.125002 0.125002 0.125002 0.125002 0.125 0.125 0.125 0.125 0.125 0.125 0.125 0.125 0.125 0.125 0.125 0.125 0.125 0.125 0.125 0.125 0.125 0.125 0.125 0.125 0.125 0.125 0.125 0.125 0.125 0.125 0.125 0.125 0.125 0.125 0.125 0.125 0.125 0.125 0.125 0.125 0.125 0.125 0.125 0.125 0.125 0.125 0.125 0.125 0.125 0.125 0.125 0.125 0.125 0.125 0.125 0.125 0.125 0.125 0.125 0.125 0.125 0.125 0.125 0.125 0.125 0.125 0.125 0.125 0.125 0.125 0.125 0.125 0.125 0.125 0.125 0.125 0.125 0.125 0.125 0.125 0.125 0.125 0.125 0.125 0.125 0.125 0.125 0.125 0.125 0.125 0.125 0.125 0.125 0.125 0.125 0.125 0.125 0.125 0.125 0.125 0.125 0.125 0.125 0.125 0.125 0.125 0.125 0.125 0.125 0.125 0.125 0.125 0.125 0.125 0.125 0.125 0.125 0.125 0.125 0.125 0.125 0.125 0.125 0.125 0.125 0.125 0.125 0.125 0.125
				</DataArray>
				<DataArray Name="Energy" type="Float32" format="ascii">
 2.5 2.5 2.5 2.5 2.5 2.5 2.5 2.5 2.5 2.5 2.5 2.5 2.5 2.5 2.5 2.5 2.5 2.5 2.5 2.5 2.5 2.5 2.5 2.5 2.5 2.5 2.5 2.5 2.5 2.5 2.5 2.5 2.5 2.5 2.5 2.5 2.5 2.5 2.5 2.5 2.5 2.5 2.5 2.5 2.5 2.5 2.5 2.5 2.5 2.5 2.5 2.5 2.5 2.5 2.5 2.5 2.5 2.5 2.5 2.5 2.5 2.5 2.5 2.5 2.5 2.5 2.5 2.5 2.5 2.5 2.5 2.5 2.5 2.5 2.5 2.5 2.5 2.5 2.5 2.5 2.5 2.5 2.5 2.5 2.5 2.5 2.5 2.5 2.5 2.5 2.5 2.5 2.5 2.5 2.5 2.5 2.5 2.5 2.5 2.5 2.5 2.5 2.5 2.5 2.5 2.5 2.5 2.5 2.5 2.5 2.5 2.5 2.5 2.5 2.5 2.5 2.5 2.5 2.5 2.5 2.5 2.5 2.5 2.5 2.5 2.5 2.5 2.5 2.5 2.5 2.5 2.5 2.5 2.5 2.5 2.5 2.5 2.5 2.5 2.5 2.5 2.5 2.5 2.5 2.5 2.5 2.5 2.5 2.5 2.5 2.5 2.5 2.5 2.5 2.5 2.5 2.5 2.5 2.5 2.5 2.5 2.5 2.5 2.5 2.5 2.5 2.5 2.5 2.5 2.5 2.5 2.5 2.5 2.5 2.5 2.5 2.5 2.5 2.5 2.5 2.5 2.5 2.5 2.5 2.5 2.49999 2.49999 2.49999 2.49999 2.49999 2.49998 2.49998 2.49998 2.49998 2.49998 2.49995 2.49995 2.49995 2.49995 2.49995 2.49987 2.49987 2.49987 2.49988 2.49988 2.49969 2.49967 2.49969 2.49971 2.49974 2.49933 2.49926 2.49934 2.4994 2.49945 2.4987 2.49855 2.49872 2.49884 2.49891 2.49767 2.4974 2.49772 2.49788 2.49792 2.49607 2.49565 2.49615 2.49622 2.49623 2.49373 2.49317 2.49373 2.49356 2.4937 2.49047 2.4898 2.49039 2.48989 2.4903 2.48615 2.48537 2.48606 2.48523 2.48596 2.48073 2.47979 2.48067 2.47954 2.4806 2.47423 2.47308 2.47422 2.47282 2.47418 2.4667 2.46532 2.46673 2.4651 2.4667 2.45819 2.45659 2.45825 2.45642 2.4582 2.44873 2.44698 2.44883 2.44684 2.44873 2.43839 2.43655 2.43851 2.43642 2.43837 2.42724 2.42538 2.4274 2.42523 2.42719 2.41536 2.41356 2.41557 2.41336 2.41529 2.40286 2.40116 2.40311 2.40091 2.40277 2.38982 2.38826 2.39012 2.38796 2.38971 2.37631 2.37493 2.37666 2.37459 2.37619 2.36241 2.36121 2.36281 2.36088 2.3623 2.34817 2.34715 2.34862 2.34688 2.34811 2.33359 2.33279 2.33413 2.33263 2.33363 2.31859 2.31811 2.31933 2.3181 2.31872 2.3031 2.30313 2.30435 2.30333 2.30357 2.28748 2.28819 2.2894 2.28833 2.28839 2.27203 2.27348 2.27451 2.27318 2.27331 2.25696 2.25893 2.25959 2.25796 2.25825 2.24219 2.24422 2.24453 2.24282 2.24317 2.22763 2.22935 2.22944 2.22781 2.228 2.21318 2.21433 2.2144 2.21293 2.2128 2.19869 2.19906 2.1991 2.19815 2.19771 2.18393 2.18343 2.18324 2.18328 2.18285 2.16921 2.16795 2.16708 2.16839 2.16821 2.15468 2.15286 2.15105 2.15365 2.1536 2.14017 2.13805 2.13531 2.139 2.13891 2.12549 2.12353 2.11996 2.12443 2.12413 2.11062 2.10922 2.10499 2.10992 2.10936 2.09577 2.0949 2.09038 2.09544 2.09463 2.08098 2.08054 2.07604 2.08097 2.07998 2.06628 2.06616 2.06189 2.06652 2.06544 2.05169 2.05179 2.0479 2.05213 2.051 2.03724 2.03749 2.03405 2.03782 2.03668 2.02295 2.02331 2.02036 2.02364 2.02248 2.00882 2.00928 2.00683 2.00961 2.00841 1.99486 1.99541 1.99352 1.99574 1.9945 1.98107 1.98171 1.98045 1.98207 1.98074 1.96749 1.96821 1.96763 1.9686 1.96718 1.95416 1.95487 1.95496 1.95537 1.95384 1.9411 1.94168 1.94234 1.94233 1.94075 1.92835 1.92879 1.92984 1.92953 1.92795 1.91591 1.91626 1.91759 1.91701 1.91543 1.90379 1.90408 1.90565 1.9048 1.90326 1.89205 1.89228 1.89406 1.89296 1.89143 1.88071 1.88087 1.88287 1.88155 1.87997 1.86983 1.86992 1.87214 1.87063 1.86896 1.85944 1.85953 1.86196 1.86028 1.85848 1.84956 1.84973 1.85233 1.85053 1.84863 1.84023 1.84051 1.84328 1.8414 1.83949 1.83154 1.83197 1.83489 1.83294 1.83111 1.82353 1.82426 1.82723 1.82516 1.82349 1.81626 1.81761 1.82042 1.81813 1.81662 1.80982 1.812 1.8143 1.812 1.81049 1.80448 1.80701 1.80862 1.80677 1.80517 1.80012 1.80259 1.8035 1.80233 1.80068 1.79662 1.79881 1.79896 1.79865 1.79702 1.79384 1.79574 1.79515 1.79565 1.7941 1.7916 1.7933 1.79233 1.79325 1.79176 1.78983 1.79135 1.79037 1.79132 1.78993 1.78852 1.78982 1.78894 1.78979 1.78857 1.7876 1.78866 1.78793 1.78862 1.78761 1.78702 1.78785 1.7873 1.78779 1.78699 1.7867 1.78734 1.78698 1.78727 1.78665 1.7866 1.78706 1.78691 1.787 1.78653 1.78667 1.78698 1.78699 1.78693 1.7866 1.78688 1.7871 1.78719 1.78707 1.78681 1.78722 1.78739 1.78748 1.7874 1.78714 1.78767 1.78783 1.78786 1.78786 1.78759 1.78826 1.78841 1.78838 1.78844 1.78818 1.78901 1.78915 1.78912 1.78919 1.78894 1.78998 1.79013 1.7901 1.79016 1.78993 1.79131 1.79146 1.79144 1.79148 1.79127 1.79314 1.79332 1.7933 1.79332 1.79311 1.7957 1.79591 1.79589 1.79592 1.79568 1.79921 1.7995 1.79945 1.7995 1.7992 1.80392 1.80429 1.80421 1.80428 1.80392 1.80999 1.81045 1.81034 1.81046 1.81003 1.81752 1.81804 1.81794 1.81808 1.81763 1.82637 1.82696 1.82691 1.82703 1.82665 1.83681 1.83701 1.83704 1.83703 1.83681 1.84796 1.84752 1.84776 1.84756 1.84753 1.85838 1.85762 1.85807 1.85774 1.858 1.86726 1.86686 1.86753 1.86696 1.86731 1.87441 1.87391 1.8744 1.87391 1.87479 1.87888 1.8781 1.87852 1.878 1.87902 2.0072 2.00486 2.00453 2.00464 2.00735 2.46184 2.45878 2.45782 2.45848 2.46193 2.8587 2.8581 2.85793 2.85799 2.85856 2.86106 2.86094 2.86099 2.86087 2.86091 2.85725 2.85717 2.85718 2.8571 2.8571 2.85172 2.85167 2.85168 2.8516 2.85159 2.84566 2.84562 2.84565 2.84554 2.84553 2.83976 2.8397 2.83975 2.83962 2.83965 2.83445 2.83437 2.83445 2.83428 2.83433 2.82991 2.8298 2.82994 2.82972 2.8298 2.82622 2.82609 2.82628 2.82602 2.8261 2.82335 2.82319 2.82343 2.82311 2.82321 2.82118 2.821 2.82129 2.82093 2.82103 2.8196 2.8194 2.81973 2.81932 2.81944 2.8185 2.81827 2.81862 2.81818 2.81832 2.81774 2.81749 2.81784 2.81738 2.81756 2.81726 2.81695 2.81732 2.81684 2.81705 2.81696 2.81658 2.81699 2.81647 2.81673 2.81678 2.81632 2.81681 2.81624 2.81653 2.81671 2.81616 2.81676 2.81612 2.81642 2.81675 2.81607 2.81679 2.81609 2.81632 2.81687 2.81605 2.81689 2.81615 2.81627 2.817 2.816 2.81701 2.81625 2.81635 2.81712 2.81576 2.81713 2.81609 2.81652 2.81737 2.81528 2.81745 2.81546 2.8169 2.81778 2.81444 2.81811 2.81428 2.81762 2.81807 2.81274 2.81887 2.81203 2.81813 2.81788 2.81003 2.81944 2.80865 2.81827 2.81535 2.80503 2.81705 2.80287 2.8164 2.80792 2.79786 2.80934 2.79511 2.80972 2.78543 2.77877 2.78056 2.77519 2.78843 2.7342 2.74415 2.73304 2.73996 2.7364 2.61634 2.64399 2.62146 2.64515 2.61484 2.43144 2.46398 2.44733 2.47647 2.42821 2.15188 2.16576 2.16391 2.18285 2.15937 2.02523 2.02642 2.028 2.0296 2.02809 2.00377 2.00395 2.00411 2.00417 2.00411 2.00058 2.0006 2.00061 2.00061 2.00061 2.00009 2.00009 2.00009 2.00009 2.00009 2.00001 2.00001 2.00001 2.00001 2.00001 2 2 2 2 2 2 2 2 2 2 2 2 2 2 2 2 2 2 2 2 2 2 2 2 2 2 2 2 2 2 2 2 2 2 2 2 2 2 2 2 2 2 2 2 2 2 2 2 2 2 2 2 2 2 2 2 2 2 2 2 2 2 2 2 2 2 2 2 2 2 2 2 2 2 2 2 2 2 2 2 2 2 2 2 2 2 2 2 2 2 2 2 2 2 2 2 2 2 2 2 2 2 2 2 2 2 2 2 2 2 2 2 2 2 2 2 2 2 2 2 2 2 2 2 2
				</DataArray>
				<DataArray Name="F1" type="Float32" format="ascii">
 1 1 1 1 1 1 1 1 1 1 1 1 1 1 1 1 1 1 1 1 1 1 1 1 1 1 1 1 1 1 1 1 1 1 1 1 1 1 1 1 1 1 1 1 1 1 1 1 1 1 1 1 1 1 1 1 1 1 1 1 1 1 1 1 1 1 1 1 1 1 1 1 1 1 1 1 1 1 1 1 1 1 1 1 1 1 1 1 1 1 1 1 1 1 1 1 1 1 1 1 1 1 1 1 1 1 1 1 1 1 1 1 1 1 1 1 1 1 1 1 1 1 1 1 1 1 1 1 1 1 1 1 1 1 1 1 1 1 1 1 1 1 1 1 1 1 1 1 1 1 1 1 1 1 1 1 1 1 1 1 1 1 1 1 1 1 1 1 1 1 1 1 1 1 1 1 1 1 1 1 1 1 1 1 1 1 1 1 1 1 1 1 1 1 1 1 1 1 1 1 1 1 1 1 1 1 1 1 1 1 1 1 1 1 1 1 1 1 1 1 1 1 1 1 1 1 1 1 1 1 1 1 1 1 1 1 1 1 1 1 1 1 1 1 1 1 1 1 1 1 1 1 1 1 1 1 1 1 1 1 1 1 1 1 1 1 1 1 1 1 1 1 1 1 1 1 1 1 1 1 1 1 1 1 1 1 1 1 1 1 1 1 1 1 1 1 1 1 1 1 1 1 1 1 1 1 1 1 1 1 1 1 1 1 1 1 1 1 1 1 1 1 1 1 1 1 1 1 1 1 1 1 1 1 1 1 1 1 1 1 1 1 1 1 1 1 1 1 1 1 1 1 1 1 1 1 1 1 1 1 1 1 1 1 1 1 1 1 1 1 1 1 1 1 1 1 1 1 1 1 1 1 1 1 1 1 1 1 1 1 1 1 1 1 1 1 1 1 1 1 1 1 1 1 1 1 1 1 1 1 1 1 1 1 1 1 1 1 1 1 1 1 1 1 1 1 1 1 1 1 1 1 1 1 1 1 1 1 1 1 1 1 1 1 1 1 1 1 1 1 1 1 1 1 1 1 1 1 1 1 1 1 1 1 1 1 1 1 1 1 1 1 1 1 1 1 1 1 1 1 1 1 1 1 1 1 1 1 1 1 1 1 1 1 1 1 1 1 1 1 1 1 1 1 1 1 1 1 1 1 1 1 1 1 1 1 1 1 1 1 1 1 1 1 1 1 1 1 1 1 1 1 1 1 1 1 1 1 1 1 1 1 1 1 1 1 1 1 1 1 1 1 1 1 1 1 1 1 1 1 1 1 1 1 1 1 1 1 1 1 1 1 1 1 1 1 1 1 1 1 1 1 1 1 1 1 1 1 1 1 1 1 1 1 1 1 1 1 1 1 1 1 1 1 1 1 1 1 1 1 1 1 1 1 1 1 1 1 1 1 1 1 1 1 1 1 1 1 1 1 1 1 1 1 1 1 1 1 1 1 1 1 1 1 1 1 1 1 1 1 1 1 1 1 1 1 1 1 1 1 1 1 1 1 1 1 1 1 1 1 1 1 1 1 1 0.817153 0.819159 0.820179 0.819278 0.816899 0.313802 0.316046 0.317128 0.316183 0.313602 0.00351103 0.00380573 0.00395327 0.00382513 0.00349119 1.44011e-13 1.54636e-13 7.12809e-13 1.08208e-12 0 0 0 0 0 0 0 0 0 0 0 0 0 0 0 0 0 0 0 0 0 0 0 0 0 0 0 0 0 0 0 0 0 0 0 0 0 0 0 0 0 0 0 0 0 0 0 0 0 0 0 0 0 0 0 0 0 0 0 0 0 0 0 0 0 0 0 0 0 0 0 0 0 0 0 0 0 0 0 0 0 0 0 0 0 0 0 0 0 0 0 0 0 0 0 0 0 0 0 0 0 0 0 0 0 0 0 0 0 0 0 0 0 0 0 0 0 0 0 0 0 0 0 0 0 0 0 0 0 0 0 0 0 0 0 0 0 0 0 0 0 0 0 0 0 0 0 0 0 0 0 0 0 0 0 0 0 0 0 0 0 0 0 0 0 0 0 0 0 0 0 0 0 0 0 0 0 0 0 0 0 0 0 0 0 0 0 0 0 0 0 0 0 0 0 0 0 0 0 0 0 0 0 0 0 0 0 0 0 0 0 0 0 0 0 0 0 0 0 0 0 0 0 0 0 0 0 0 0 0 0 0 0 0 0 0 0 0 0 0 0 0 0 0 0 0 0 0 0 0 0 0 0 0 0 0 0 0 0 0 0 0 0 0 0 0 0 0 0 0 0 0 0 0 0 0 0 0 0 0 0 0 0 0 0 0 0 0 0 0 0 0 0 0 0 0 0 0 0 0 0 0 0 0 0 0
				</DataArray>
				<DataArray Name="F2" type="Float32" format="ascii">
 0 0 0 0 0 0 0 0 0 0 0 0 0 0 0 0 0 0 0 0 0 0 0 0 0 0 0 0 0 0 0 0 0 0 0 0 0 0 0 0 0 0 0 0 0 0 0 0 0 0 0 0 0 0 0 0 0 0 0 0 0 0 0 0 0 0 0 0 0 0 0 0 0 0 0 0 0 0 0 0 0 0 0 0 0 0 0 0 0 0 0 0 0 0 0 0 0 0 0 0 0 0 0 0 0 0 0 0 0 0 0 0 0 0 0 0 0 0 0 0 0 0 0 0 0 0 0 0 0 0 0 0 0 0 0 0 0 0 0 0 0 0 0 0 0 0 0 0 0 0 0 0 0 0 0 0 0 0 0 0 0 0 0 0 0 0 0 0 0 0 0 0 0 0 0 0 0 0 0 0 0 0 0 0 0 0 0 0 0 0 0 0 0 0 0 0 0 0 0 0 0 0 0 0 0 0 0 0 0 0 0 0 0 0 0 0 0 0 0 0 0 0 0 0 0 0 0 0 0 0 0 0 0 0 0 0 0 0 0 0 0 0 0 0 0 0 0 0 0 0 0 0 0 0 0 0 0 0 0 0 0 0 0 0 0 0 0 0 0 0 0 0 0 0 0 0 0 0 0 0 0 0 0 0 0 0 0 0 0 0 0 0 0 0 0 0 0 0 0 0 0 0 0 0 0 0 0 0 0 0 0 0 0 0 0 0 0 0 0 0 0 0 0 0 0 0 0 0 0 0 0 0 0 0 0 0 0 0 0 0 0 0 0 0 0 0 0 0 0 0 0 0 0 0 0 0 0 0 0 0 0 0 0 0 0 0 0 0 0 0 0 0 0 0 0 0 0 0 0 0 0 0 0 0 0 0 0 0 0 0 0 0 0 0 0 0 0 0 0 0 0 0 0 0 0 0 0 0 0 0 0 0 0 0 0 0 0 0 0 0 0 0 0 0 0 0 0 0 0 0 0 0 0 0 0 0 0 0 0 0 0 0 0 0 0 0 0 0 0 0 0 0 0 0 0 0 0 0 0 0 0 0 0 0 0 0 0 0 0 0 0 0 0 0 0 0 0 0 0 0 0 0 0 0 0 0 0 0 0 0 0 0 0 0 0 0 0 0 0 0 0 0 0 0 0 0 0 0 0 0 0 0 0 0 0 0 0 0 0 0 0 0 0 0 0 0 0 0 0 0 0 0 0 0 0 0 0 0 0 0 0 0 0 0 0 0 0 0 0 0 0 0 0 0 0 0 0 0 0 0 0 0 0 0 0 0 0 0 0 0 0 0 0 0 0 0 0 0 0 0 0 0 0 0 0 0 0 0 0 0 0 0 0 0 0 0 0 0 0 0 0 0 0 0 0 0 0 0 0 0 0 0 0 0 0 0 0 0 0 0 0 0 0 0 0 0 0 0 0 0 0 0 0 0 0 0 0 0 0 0 0 0 0 0 0 0 0 0 0 0 0 0 0 0 0 0 0 0 0 0 0 0 0 0 0 0 0 0 0 0 0 1.50924e-15 7.70958e-16 0 1.20781e-14 0.182847 0.180841 0.179821 0.180722 0.183101 0.686198 0.683954 0.682872 0.683817 0.686398 0.996489 0.996194 0.996047 0.996175 0.996509 1 1 1 1 1 1 1 1 1 1 1 1 1 1 1 1 1 1 1 1 1 1 1 1 1 1 1 1 1 1 1 1 1 1 1 1 1 1 1 1 1 1 1 1 1 1 1 1 1 1 1 1 1 1 1 1 1 1 1 1 1 1 1 1 1 1 1 1 1 1 1 1 1 1 1 1 1 1 1 1 1 1 1 1 1 1 1 1 1 1 1 1 1 1 1 1 1 1 1 1 1 1 1 1 1 1 1 1 1 1 1 1 1 1 1 1 1 1 1 1 1 1 1 1 1 1 1 1 1 1 1 1 1 1 1 1 1 1 1 1 1 1 1 1 1 1 1 1 1 1 1 1 1 1 1 1 1 1 1 1 1 1 1 1 1 1 1 1 1 1 1 1 1 1 1 1 1 1 1 1 1 1 1 1 1 1 1 1 1 1 1 1 1 1 1 1 1 1 1 1 1 1 1 1 1 1 1 1 1 1 1 1 1 1 1 1 1 1 1 1 1 1 1 1 1 1 1 1 1 1 1 1 1 1 1 1 1 1 1 1 1 1 1 1 1 1 1 1 1 1 1 1 1 1 1 1 1 1 1 1 1 1 1 1 1 1 1 1 1 1 1 1 1 1 1 1 1 1 1 1 1 1 1 1 1 1 1 1 1 1 1 1 1 1 1 1 1 1 1 1 1 1 1 1 1 1 1 1 1 1
				</DataArray>
				<DataArray Name="F3" type="Float32" format="ascii">