<?xml version="1.0"?>
<VTKFile type="PolyData">
	<PolyData>
		<Piece NumberOfPoints="1206" NumberOfPolys="1000">
			<Points>
				<DataArray type="Float32" NumberOfComponents="3" format="ascii">
 0 0 0 0.02 0 0 0.04 0 0 0.06 0 0 0.08 0 0 0.1 0 0 0 0.005 0 0.02 0.005 0 0.04 0.005 0 0.06 0.005 0 0.08 0.005 0 0.1 0.005 0 0 0.01 0 0.02 0.01 0 0.04 0.01 0 0.06 0.01 0 0.08 0.01 0 0.1 0.01 0 0 0.015 0 0.02 0.015 0 0.04 0.015 0 0.06 0.015 0 0.08 0.015 0 0.1 0.015 0 0 0.02 0 0.02 0.02 0 0.04 0.02 0 0.06 0.02 0 0.08 0.02 0 0.1 0.02 0 0 0.025 0 0.02 0.025 0 0.04 0.025 0 0.06 0.025 0 0.08 0.025 0 0.1 0.025 0 0 0.03 0 0.02 0.03 0 0.04 0.03 0 0.06 0.03 0 0.08 0.03 0 0.1 0.03 0 0 0.035 0 0.02 0.035 0 0.04 0.035 0 0.06 0.035 0 0.08 0.035 0 0.1 0.035 0 0 0.04 0 0.02 0.04 0 0.04 0.04 0 0.06 0.04 0 0.08 0.04 0 0.1 0.04 0 0 0.045 0 0.02 0.045 0 0.04 0.045 0 0.06 0.045 0 0.08 0.045 0 0.1 0.045 0 0 0.05 0 0.02 0.05 0 0.04 0.05 0 0.06 0.05 0 0.08 0.05 0 0.1 0.05 0 0 0.055 0 0.02 0.055 0 0.04 0.055 0 0.06 0.055 0 0.08 0.055 0 0.1 0.055 0 0 0.06 0 0.02 0.06 0 0.04 0.06 0 0.06 0.06 0 0.08 0.06 0 0.1 0.06 0 0 0.065 0 0.02 0.065 0 0.04 0.065 0 0.06 0.065 0 0.08 0.065 0 0.1 0.065 0 0 0.07 0 0.02 0.07 0 0.04 0.07 0 0.06 0.07 0 0.08 0.07 0 0.1 0.07 0 0 0.075 0 0.02 0.075 0 0.04 0.075 0 0.06 0.075 0 0.08 0.075 0 0.1 0.075 0 0 0.08 0 0.02 0.08 0 0.04 0.08 0 0.06 0.08 0 0.08 0.08 0 0.1 0.08 0 0 0.085 0 0.02 0.085 0 0.04 0.085 0 0.06 0.085 0 0.08 0.085 0 0.1 0.085 0 0 0.09 0 0.02 0.09 0 0.04 0.09 0 0.06 0.09 0 0.08 0.09 0 0.1 0.09 0 0 0.095 0 0.02 0.095 0 0.04 0.095 0 0.06 0.095 0 0.08 0.095 0 0.1 0.095 0 0 0.1 0 0.02 0.1 0 0.04 0.1 0 0.06 0.1 0 0.08 0.1 0 0.1 0.1 0 0 0.105 0 0.02 0.105 0 0.04 0.105 0 0.06 0.105 0 0.08 0.105 0 0.1 0.105 0 0 0.11 0 0.02 0.11 0 0.04 0.11 0 0.06 0.11 0 0.08 0.11 0 0.1 0.11 0 0 0.115 0 0.02 0.115 0 0.04 0.115 0 0.06 0.115 0 0.08 0.115 0 0.1 0.115 0 0 0.12 0 0.02 0.12 0 0.04 0.12 0 0.06 0.12 0 0.08 0.12 0 0.1 0.12 0 0 0.125 0 0.02 0.125 0 0.04 0.125 0 0.06 0.125 0 0.08 0.125 0 0.1 0.125 0 0 0.13 0 0.02 0.13 0 0.04 0.13 0 0.06 0.13 0 0.08 0.13 0 0.1 0.13 0 0 0.135 0 0.02 0.135 0 0.04 0.135 0 0.06 0.135 0 0.08 0.135 0 0.1 0.135 0 0 0.14 0 0.02 0.14 0 0.04 0.14 0 0.06 0.14 0 0.08 0.14 0 0.1 0.14 0 0 0.145 0 0.02 0.145 0 0.04 0.145 0 0.06 0.145 0 0.08 0.145 0 0.1 0.145 0 0 0.15 0 0.02 0.15 0 0.04 0.15 0 0.06 0.15 0 0.08 0.15 0 0.1 0.15 0 0 0.155 0 0.02 0.155 0 0.04 0.155 0 0.06 0.155 0 0.08 0.155 0 0.1 0.155 0 0 0.16 0 0.02 0.16 0 0.04 0.16 0 0.06 0.16 0 0.08 0.16 0 0.1 0.16 0 0 0.165 0 0.02 0.165 0 0.04 0.165 0 0.06 0.165 0 0.08 0.165 0 0.1 0.165 0 0 0.17 0 0.02 0.17 0 0.04 0.17 0 0.06 0.17 0 0.08 0.17 0 0.1 0.17 0 0 0.175 0 0.02 0.175 0 0.04 0.175 0 0.06 0.175 0 0.08 0.175 0 0.1 0.175 0 0 0.18 0 0.02 0.18 0 0.04 0.18 0 0.06 0.18 0 0.08 0.18 0 0.1 0.18 0 0 0.185 0 0.02 0.185 0 0.04 0.185 0 0.06 0.185 0 0.08 0.185 0 0.1 0.185 0 0 0.19 0 0.02 0.19 0 0.04 0.19 0 0.06 0.19 0 0.08 0.19 0 0.1 0.19 0 0 0.195 0 0.02 0.195 0 0.04 0.195 0 0.06 0.195 0 0.08 0.195 0 0.1 0.195 0 0 0.2 0 0.02 0.2 0 0.04 0.2 0 0.06 0.2 0 0.08 0.2 0 0.1 0.2 0 0 0.205 0 0.02 0.205 0 0.04 0.205 0 0.06 0.205 0 0.08 0.205 0 0.1 0.205 0 0 0.21 0 0.02 0.21 0 0.04 0.21 0 0.06 0.21 0 0.08 0.21 0 0.1 0.21 0 0 0.215 0 0.02 0.215 0 0.04 0.215 0 0.06 0.215 0 0.08 0.215 0 0.1 0.215 0 0 0.22 0 0.02 0.22 0 0.04 0.22 0 0.06 0.22 0 0.08 0.22 0 0.1 0.22 0 0 0.225 0 0.02 0.225 0 0.04 0.225 0 0.06 0.225 0 0.08 0.225 0 0.1 0.225 0 0 0.23 0 0.02 0.23 0 0.04 0.23 0 0.06 0.23 0 0.08 0.23 0 0.1 0.23 0 0 0.235 0 0.02 0.235 0 0.04 0.235 0 0.06 0.235 0 0.08 0.235 0 0.1 0.235 0 0 0.24 0 0.02 0.24 0 0.04 0.24 0 0.06 0.24 0 0.08 0.24 0 0.1 0.24 0 0 0.245 0 0.02 0.245 0 0.04 0.245 0 0.06 0.245 0 0.08 0.245 0 0.1 0.245 0 0 0.25 0 0.02 0.25 0 0.04 0.25 0 0.06 0.25 0 0.08 0.25 0 0.1 0.25 0 0 0.255 0 0.02 0.255 0 0.04 0.255 0 0.06 0.255 0 0.08 0.255 0 0.1 0.255 0 0 0.26 0 0.02 0.26 0 0.04 0.26 0 0.06 0.26 0 0.08 0.26 0 0.1 0.26 0 0 0.265 0 0.02 0.265 0 0.04 0.265 0 0.06 0.265 0 0.08 0.265 0 0.1 0.265 0 0 0.27 0 0.02 0.27 0 0.04 0.27 0 0.06 0.27 0 0.08 0.27 0 0.1 0.27 0 0 0.275 0 0.02 0.275 0 0.04 0.275 0 0.06 0.275 0 0.08 0.275 0 0.1 0.275 0 0 0.28 0 0.02 0.28 0 0.04 0.28 0 0.06 0.28 0 0.08 0.28 0 0.1 0.28 0 0 0.285 0 0.02 0.285 0 0.04 0.285 0 0.06 0.285 0 0.08 0.285 0 0.1 0.285 0 0 0.29 0 0.02 0.29 0 0.04 0.29 0 0.06 0.29 0 0.08 0.29 0 0.1 0.29 0 0 0.295 0 0.02 0.295 0 0.04 0.295 0 0.06 0.295 0 0.08 0.295 0 0.1 0.295 0 0 0.3 0 0.02 0.3 0 0.04 0.3 0 0.06 0.3 0 0.08 0.3 0 0.1 0.3 0 0 0.305 0 0.02 0.305 0 0.04 0.305 0 0.06 0.305 0 0.08 0.305 0 0.1 0.305 0 0 0.31 0 0.02 0.31 0 0.04 0.31 0 0.06 0.31 0 0.08 0.31 0 0.1 0.31 0 0 0.315 0 0.02 0.315 0 0.04 0.315 0 0.06 0.315 0 0.08 0.315 0 0.1 0.315 0 0 0.32 0 0.02 0.32 0 0.04 0.32 0 0.06 0.32 0 0.08 0.32 0 0.1 0.32 0 0 0.325 0 0.02 0.325 0 0.04 0.325 0 0.06 0.325 0 0.08 0.325 0 0.1 0.325 0 0 0.33 0 0.02 0.33 0 0.04 0.33 0 0.06 0.33 0 0.08 0.33 0 0.1 0.33 0 0 0.335 0 0.02 0.335 0 0.04 0.335 0 0.06 0.335 0 0.08 0.335 0 0.1 0.335 0 0 0.34 0 0.02 0.34 0 0.04 0.34 0 0.06 0.34 0 0.08 0.34 0 0.1 0.34 0 0 0.345 0 0.02 0.345 0 0.04 0.345 0 0.06 0.345 0 0.08 0.345 0 0.1 0.345 0 0 0.35 0 0.02 0.35 0 0.04 0.35 0 0.06 0.35 0 0.08 0.35 0 0.1 0.35 0 0 0.355 0 0.02 0.355 0 0.04 0.355 0 0.06 0.355 0 0.08 0.355 0 0.1 0.355 0 0 0.36 0 0.02 0.36 0 0.04 0.36 0 0.06 0.36 0 0.08 0.36 0 0.1 0.36 0 0 0.365 0 0.02 0.365 0 0.04 0.365 0 0.06 0.365 0 0.08 0.365 0 0.1 0.365 0 0 0.37 0 0.02 0.37 0 0.04 0.37 0 0.06 0.37 0 0.08 0.37 0 0.1 0.37 0 0 0.375 0 0.02 0.375 0 0.04 0.375 0 0.06 0.375 0 0.08 0.375 0 0.1 0.375 0 0 0.38 0 0.02 0.38 0 0.04 0.38 0 0.06 0.38 0 0.08 0.38 0 0.1 0.38 0 0 0.385 0 0.02 0.385 0 0.04 0.385 0 0.06 0.385 0 0.08 0.385 0 0.1 0.385 0 0 0.39 0 0.02 0.39 0 0.04 0.39 0 0.06 0.39 0 0.08 0.39 0 0.1 0.39 0 0 0.395 0 0.02 0.395 0 0.04 0.395 0 0.06 0.395 0 0.08 0.395 0 0.1 0.395 0 0 0.4 0 0.02 0.4 0 0.04 0.4 0 0.06 0.4 0 0.08 0.4 0 0.1 0.4 0 0 0.405 0 0.02 0.405 0 0.04 0.405 0 0.06 0.405 0 0.08 0.405 0 0.1 0.405 0 0 0.41 0 0.02 0.41 0 0.04 0.41 0 0.06 0.41 0 0.08 0.41 0 0.1 0.41 0 0 0.415 0 0.02 0.415 0 0.04 0.415 0 0.06 0.415 0 0.08 0.415 0 0.1 0.415 0 0 0.42 0 0.02 0.42 0 0.04 0.42 0 0.06 0.42 0 0.08 0.42 0 0.1 0.42 0 0 0.425 0 0.02 0.425 0 0.04 0.425 0 0.06 0.425 0 0.08 0.425 0 0.1 0.425 0 0 0.43 0 0.02 0.43 0 0.04 0.43 0 0.06 0.43 0 0.08 0.43 0 0.1 0.43 0 0 0.435 0 0.02 0.435 0 0.04 0.435 0 0.06 0.435 0 0.08 0.435 0 0.1 0.435 0 0 0.44 0 0.02 0.44 0 0.04 0.44 0 0.06 0.44 0 0.08 0.44 0 0.1 0.44 0 0 0.445 0 0.02 0.445 0 0.04 0.445 0 0.06 0.445 0 0.08 0.445 0 0.1 0.445 0 0 0.45 0 0.02 0.45 0 0.04 0.45 0 0.06 0.45 0 0.08 0.45 0 0.1 0.45 0 0 0.455 0 0.02 0.455 0 0.04 0.455 0 0.06 0.455 0 0.08 0.455 0 0.1 0.455 0 0 0.46 0 0.02 0.46 0 0.04 0.46 0 0.06 0.46 0 0.08 0.46 0 0.1 0.46 0 0 0.465 0 0.02 0.465 0 0.04 0.465 0 0.06 0.465 0 0.08 0.465 0 0.1 0.465 0 0 0.47 0 0.02 0.47 0 0.04 0.47 0 0.06 0.47 0 0.08 0.47 0 0.1 0.47 0 0 0.475 0 0.02 0.475 0 0.04 0.475 0 0.06 0.475 0 0.08 0.475 0 0.1 0.475 0 0 0.48 0 0.02 0.48 0 0.04 0.48 0 0.06 0.48 0 0.08 0.48 0 0.1 0.48 0 0 0.485 0 0.02 0.485 0 0.04 0.485 0 0.06 0.485 0 0.08 0.485 0 0.1 0.485 0 0 0.49 0 0.02 0.49 0 0.04 0.49 0 0.06 0.49 0 0.08 0.49 0 0.1 0.49 0 0 0.495 0 0.02 0.495 0 0.04 0.495 0 0.06 0.495 0 0.08 0.495 0 0.1 0.495 0 0 0.5 0 0.02 0.5 0 0.04 0.5 0 0.06 0.5 0 0.08 0.5 0 0.1 0.5 0 0 0.505 0 0.02 0.505 0 0.04 0.505 0 0.06 0.505 0 0.08 0.505 0 0.1 0.505 0 0 0.51 0 0.02 0.51 0 0.04 0.51 0 0.06 0.51 0 0.08 0.51 0 0.1 0.51 0 0 0.515 0 0.02 0.515 0 0.04 0.515 0 0.06 0.515 0 0.08 0.515 0 0.1 0.515 0 0 0.52 0 0.02 0.52 0 0.04 0.52 0 0.06 0.52 0 0.08 0.52 0 0.1 0.52 0 0 0.525 0 0.02 0.525 0 0.04 0.525 0 0.06 0.525 0 0.08 0.525 0 0.1 0.525 0 0 0.53 0 0.02 0.53 0 0.04 0.53 0 0.06 0.53 0 0.08 0.53 0 0.1 0.53 0 0 0.535 0 0.02 0.535 0 0.04 0.535 0 0.06 0.535 0 0.08 0.535 0 0.1 0.535 0 0 0.54 0 0.02 0.54 0 0.04 0.54 0 0.06 0.54 0 0.08 0.54 0 0.1 0.54 0 0 0.545 0 0.02 0.545 0 0.04 0.545 0 0.06 0.545 0 0.08 0.545 0 0.1 0.545 0 0 0.55 0 0.02 0.55 0 0.04 0.55 0 0.06 0.55 0 0.08 0.55 0 0.1 0.55 0 0 0.555 0 0.02 0.555 0 0.04 0.555 0 0.06 0.555 0 0.08 0.555 0 0.1 0.555 0 0 0.56 0 0.02 0.56 0 0.04 0.56 0 0.06 0.56 0 0.08 0.56 0 0.1 0.56 0 0 0.565 0 0.02 0.565 0 0.04 0.565 0 0.06 0.565 0 0.08 0.565 0 0.1 0.565 0 0 0.57 0 0.02 0.57 0 0.04 0.57 0 0.06 0.57 0 0.08 0.57 0 0.1 0.57 0 0 0.575 0 0.02 0.575 0 0.04 0.575 0 0.06 0.575 0 0.08 0.575 0 0.1 0.575 0 0 0.58 0 0.02 0.58 0 0.04 0.58 0 0.06 0.58 0 0.08 0.58 0 0.1 0.58 0 0 0.585 0 0.02 0.585 0 0.04 0.585 0 0.06 0.585 0 0.08 0.585 0 0.1 0.585 0 0 0.59 0 0.02 0.59 0 0.04 0.59 0 0.06 0.59 0 0.08 0.59 0 0.1 0.59 0 0 0.595 0 0.02 0.595 0 0.04 0.595 0 0.06 0.595 0 0.08 0.595 0 0.1 0.595 0 0 0.6 0 0.02 0.6 0 0.04 0.6 0 0.06 0.6 0 0.08 0.6 0 0.1 0.6 0 0 0.605 0 0.02 0.605 0 0.04 0.605 0 0.06 0.605 0 0.08 0.605 0 0.1 0.605 0 0 0.61 0 0.02 0.61 0 0.04 0.61 0 0.06 0.61 0 0.08 0.61 0 0.1 0.61 0 0 0.615 0 0.02 0.615 0 0.04 0.615 0 0.06 0.615 0 0.08 0.615 0 0.1 0.615 0 0 0.62 0 0.02 0.62 0 0.04 0.62 0 0.06 0.62 0 0.08 0.62 0 0.1 0.62 0 0 0.625 0 0.02 0.625 0 0.04 0.625 0 0.06 0.625 0 0.08 0.625 0 0.1 0.625 0 0 0.63 0 0.02 0.63 0 0.04 0.63 0 0.06 0.63 0 0.08 0.63 0 0.1 0.63 0 0 0.635 0 0.02 0.635 0 0.04 0.635 0 0.06 0.635 0 0.08 0.635 0 0.1 0.635 0 0 0.64 0 0.02 0.64 0 0.04 0.64 0 0.06 0.64 0 0.08 0.64 0 0.1 0.64 0 0 0.645 0 0.02 0.645 0 0.04 0.645 0 0.06 0.645 0 0.08 0.645 0 0.1 0.645 0 0 0.65 0 0.02 0.65 0 0.04 0.65 0 0.06 0.65 0 0.08 0.65 0 0.1 0.65 0 0 0.655 0 0.02 0.655 0 0.04 0.655 0 0.06 0.655 0 0.08 0.655 0 0.1 0.655 0 0 0.66 0 0.02 0.66 0 0.04 0.66 0 0.06 0.66 0 0.08 0.66 0 0.1 0.66 0 0 0.665 0 0.02 0.665 0 0.04 0.665 0 0.06 0.665 0 0.08 0.665 0 0.1 0.665 0 0 0.67 0 0.02 0.67 0 0.04 0.67 0 0.06 0.67 0 0.08 0.67 0 0.1 0.67 0 0 0.675 0 0.02 0.675 0 0.04 0.675 0 0.06 0.675 0 0.08 0.675 0 0.1 0.675 0 0 0.68 0 0.02 0.68 0 0.04 0.68 0 0.06 0.68 0 0.08 0.68 0 0.1 0.68 0 0 0.685 0 0.02 0.685 0 0.04 0.685 0 0.06 0.685 0 0.08 0.685 0 0.1 0.685 0 0 0.69 0 0.02 0.69 0 0.04 0.69 0 0.06 0.69 0 0.08 0.69 0 0.1 
[...]
			<CellData Scalars="Density">
				<DataArray Name="Density" type="Float32" format="ascii">
 1 1 1 1 1 1 1 1 1 1 1 1 1 1 1 1 1 1 1 1 1 1 1 1 1 1 1 1 1 1 1 1 1 1 1 1 1 1 1 1 1 1 1 1 1 1 1 1 1 1 1 1 1 1 1 1 1 1 1 1 1 1 1 1 1 1 1 1 1 1 1 1 1 1 1 1 1 1 1 1 1 1 1 1 1 1 1 1 1 1 1 1 1 1 1 1 1 1 1 1 1 1 1 1 1 1 1 1 1 1 1 1 1 1 1 1 1 1 1 1 1 1 1 1 1 1 1 1 1 1 1 1 1 1 1 1 1 1 1 1 1 1 1 1 1 1 1 1 1 1 1 1 1 1 1 1 1 1 1 1 1 1 1 1 1 1 1 1 1 1 1 1 1 1 1 1 1 1 1 1 1 1 1 1 1 1 1 1 1 1 0.999999 0.999999 0.999999 0.999999 0.999999 0.999997 0.999997 0.999997 0.999997 0.999997 0.999991 0.999991 0.999991 0.999992 0.999992 0.999977 0.999977 0.999977 0.999977 0.999978 0.999939 0.999939 0.99994 0.999941 0.999942 0.999848 0.999847 0.999849 0.999846 0.999851 0.999648 0.999643 0.999639 0.999616 0.999637 0.999249 0.999225 0.999196 0.999121 0.999192 0.998534 0.998462 0.998374 0.998189 0.998366 0.997369 0.997206 0.997002 0.996621 0.996988 0.995621 0.995325 0.994934 0.994247 0.994902 0.993138 0.992714 0.992106 0.991005 0.992012 0.989677 0.989194 0.988513 0.986983 0.988292 0.984823 0.984215 0.983988 0.982361 0.983709 0.978349 0.977178 0.978097 0.977133 0.978129 0.97057 0.968449 0.970647 0.970825 0.971278 0.961924 0.958863 0.962033 0.963042 0.962928 0.95251 0.948793 0.952623 0.953912 0.953201 0.942455 0.938315 0.94251 0.943748 0.942516 0.931776 0.927536 0.931837 0.932846 0.931155 0.920466 0.916497 0.920684 0.921245 0.919115 0.90848 0.905066 0.908715 0.908716 0.906479 0.895819 0.893355 0.89562 0.894877 0.893522 0.882373 0.881232 0.882098 0.88089 0.880448 0.868165 0.868163 0.868312 0.867 0.867079 0.853611 0.854383 0.85456 0.853232 0.853498 0.839245 0.840529 0.840913 0.839562 0.839949 0.825268 0.826774 0.827123 0.825838 0.826284 0.811703 0.812948 0.812995 0.812097 0.812531 0.798375 0.798986 0.798477 0.798332 0.798744 0.785058 0.785157 0.783958 0.784644 0.785121 0.771621 0.771578 0.769813 0.771103 0.771678 0.758231 0.758173 0.756056 0.757674 0.758342 0.74492 0.744872 0.74255 0.744342 0.745135 0.731719 0.731724 0.729238 0.731158 0.732092 0.718612 0.718761 0.716137 0.718187 0.719143 0.705602 0.706001 0.703304 0.705481 0.706244 0.692719 0.693428 0.690823 0.693003 0.693419 0.679974 0.681022 0.678721 0.680608 0.680675 0.667356 0.668775 0.666933 0.668284 0.668079 0.654984 0.656709 0.655341 0.6561 0.655725 0.642867 0.644796 0.643784 0.64404 0.643616 0.631027 0.633064 0.632184 0.632058 0.631775 0.619472 0.62155 0.620666 0.620202 0.620172 0.608209 0.61022 0.609381 0.608602 0.608777 0.597241 0.599022 0.598316 0.597322 0.597572 0.586548 0.587951 0.587459 0.586353 0.586492 0.576042 0.577009 0.576809 0.575708 0.57554 0.565777 0.566225 0.566374 0.565419 0.564753 0.555561 0.555625 0.556216 0.555436 0.554308 0.5456 0.545376 0.546393 0.54568 0.544259 0.535891 0.535555 0.536855 0.536115 0.534588 0.52644 0.526153 0.527578 0.526766 0.525268 0.51723 0.517104 0.518562 0.517673 0.516288 0.508296 0.50843 0.509787 0.508883 0.507657 0.499724 0.500192 0.50119 0.500436 0.499397 0.491569 0.492313 0.492633 0.49233 0.491536 0.483928 0.484722 0.48428 0.484576 0.484062 0.47674 0.477462 0.476504 0.477212 0.476908 0.469934 0.47059 0.469361 0.470266 0.470135 0.463561 0.464143 0.462751 0.463762 0.46378 0.457641 0.458149 0.45666 0.457742 0.457849 0.452178 0.452633 0.45112 0.452248 0.452404 0.447185 0.447623 0.446165 0.447295 0.447465 0.442678 0.443139 0.441809 0.44288 0.443032 0.438673 0.439191 0.438041 0.438991 0.439098 0.435186 0.435782 0.434828 0.435614 0.435659 0.432246 0.432901 0.432116 0.432742 0.432708 0.429842 0.430518 0.429854 0.430366 0.430192 0.427935 0.42859 0.427992 0.42845 0.428117 0.426442 0.427051 0.426492 0.426942 0.426506 0.425277 0.425817 0.425317 0.425751 0.425289 0.424377 0.424822 0.424406 0.424802 0.424374 0.423691 0.42403 0.423709 0.42404 0.423688 0.423173 0.423411 0.423179 0.423432 0.423177 0.42278 0.422934 0.422774 0.42295 0.422797 0.422475 0.422565 0.422456 0.422574 0.422506 0.422222 0.422267 0.422196 0.422263 0.422261 0.421996 0.42201 0.421974 0.421993 0.422036 0.421771 0.421764 0.421755 0.421745 0.421812 0.421517 0.421497 0.421504 0.421486 0.421557 0.421201 0.421176 0.421193 0.421177 0.421238 0.420787 0.420754 0.420774 0.420765 0.420817 0.420216 0.420179 0.420197 0.420197 0.420239 0.419423 0.419386 0.419401 0.419413 0.41944 0.418353 0.418314 0.418329 0.418352 0.418361 0.41696 0.41692 0.416938 0.416968 0.416962 0.415225 0.415185 0.415207 0.41524 0.415224 0.413172 0.413138 0.413163 0.413197 0.413173 0.41086 0.410838 0.410867 0.410901 0.410868 0.408418 0.408402 0.408439 0.408478 0.408449 0.405994 0.405996 0.406039 0.406081 0.406062 0.403754 0.403807 0.403845 0.403876 0.403851 0.402039 0.402076 0.402071 0.402111 0.402078 0.400911 0.400918 0.400808 0.400845 0.400815 0.379185 0.380731 0.381963 0.381909 0.381043 0.310506 0.312277 0.313792 0.313787 0.312793 0.26458 0.264876 0.265243 0.265338 0.265071 0.26364 0.26357 0.263512 0.263618 0.2636 0.264061 0.263934 0.263848 0.263961 0.263932 0.264577 0.26444 0.264349 0.264448 0.264457 0.265168 0.26508 0.264956 0.265048 0.265033 0.265724 0.265663 0.265526 0.265621 0.265586 0.266222 0.266179 0.266024 0.266132 0.266069 0.266641 0.266611 0.266427 0.266563 0.266466 0.266973 0.26695 0.266732 0.266912 0.266773 0.267221 0.267206 0.266948 0.267185 0.266995 0.267398 0.267391 0.267089 0.267395 0.26714 0.267518 0.267521 0.267173 0.267554 0.267225 0.267595 0.267608 0.267219 0.267678 0.267264 0.267635 0.267667 0.267244 0.267777 0.267269 0.267635 0.267707 0.267249 0.267854 0.267253 0.267607 0.267737 0.267253 0.267933 0.267213 0.267574 0.267765 0.267265 0.268038 0.267175 0.267572 0.267793 0.267237 0.268133 0.267123 0.267568 0.267809 0.267139 0.268194 0.267055 0.267533 0.267801 0.267017 0.268226 0.267031 0.267512 0.267682 0.266919 0.268166 0.267073 0.267564 0.267418 0.266909 0.267895 0.267207 0.267712 0.266942 0.266923 0.267398 0.267362 0.267663 0.265982 0.266743 0.266475 0.267347 0.267118 0.264607 0.266086 0.265155 0.266851 0.265455 0.262508 0.263763 0.263001 0.265147 0.260929 0.258884 0.257626 0.258967 0.260634 0.249731 0.251654 0.246157 0.250959 0.24959 0.228599 0.236809 0.2274 0.235209 0.228156 0.197729 0.210331 0.201363 0.208771 0.197127 0.161765 0.169605 0.165562 0.169299 0.161855 0.134591 0.13538 0.134997 0.135647 0.134891 0.126654 0.126711 0.126751 0.126777 0.126737 0.125264 0.125273 0.125278 0.12528 0.125278 0.125042 0.125043 0.125043 0.125043 0.125043 0.125007 0.125007 0.125007 0.125007 0.125007 0.125001 0.125001 0.125001 0.125001 0.125001 0.125 0.125 0.125 0.125 0.125 0.125 0.125 0.125 0.125 0.125 0.125 0.125 0.125 0.125 0.125 0.125 0.125 0.125 0.125 0.125 0.125 0.125 0.125 0.125 0.125 0.125 0.125 0.125 0.125 0.125 0.125 0.125 0.125 0.125 0.125 0.125 0.125 0.125 0.125 0.125 0.125 0.125 0.125 0.125 0.125 0.125 0.125 0.125 0.125 0.125 0.125 0.125 0.125 0.125 0.125 0.125 0.125 0.125 0.125 0.125 0.125 0.125 0.125 0.125 0.125 0.125 0.125 0.125 0.125 0.125 0.125 0.125 0.125 0.125 0.125 0.125 0.125 0.125 0.125 0.125 0.125 0.125 0.125 0.125 0.125 0.125 0.125 0.125 0.125 0.125 0.125 0.125 0.125 0.125 0.125 0.125 0.125 0.125 0.125 0.125 0.125 0.125 0.125 0.125 0.125 0.125 0.125 0.125 0.125 0.125 0.125 0.125 0.125 0.125 0.125 0.125 0.125 0.125 0.125 0.125 0.125 0.125 0.125 0.125 0.125 0.125 0.125 0.125 0.125 0.125 0.125 0.125 0.125 0.125 0.125 0.125 0.125 0.125 0.125 0.125
				</DataArray>
				<DataArray Name="Energy" type="Float32" format="ascii">
 2.5 2.5 2.5 2.5 2.5 2.5 2.5 2.5 2.5 2.5 2.5 2.5 2.5 2.5 2.5 2.5 2.5 2.5 2.5 2.5 2.5 2.5 2.5 2.5 2.5 2.5 2.5 2.5 2.5 2.5 2.5 2.5 2.5 2.5 2.5 2.5 2.5 2.5 2.5 2.5 2.5 2.5 2.5 2.5 2.5 2.5 2.5 2.5 2.5 2.5 2.5 2.5 2.5 2.5 2.5 2.5 2.5 2.5 2.5 2.5 2.5 2.5 2.5 2.5 2.5 2.5 2.5 2.5 2.5 2.5 2.5 2.5 2.5 2.5 2.5 2.5 2.5 2.5 2.5 2.5 2.5 2.5 2.5 2.5 2.5 2.5 2.5 2.5 2.5 2.5 2.5 2.5 2.5 2.5 2.5 2.5 2.5 2.5 2.5 2.5 2.5 2.5 2.5 2.5 2.5 2.5 2.5 2.5 2.5 2.5 2.5 2.5 2.5 2.5 2.5 2.5 2.5 2.5 2.5 2.5 2.5 2.5 2.5 2.5 2.5 2.5 2.5 2.5 2.5 2.5 2.5 2.5 2.5 2.5 2.5 2.5 2.5 2.5 2.5 2.5 2.5 2.5 2.5 2.5 2.5 2.5 2.5 2.5 2.5 2.5 2.5 2.5 2.5 2.5 2.5 2.5 2.5 2.5 2.5 2.5 2.5 2.5 2.5 2.5 2.5 2.5 2.5 2.5 2.5 2.5 2.5 2.5 2.5 2.5 2.5 2.5 2.5 2.5 2.5 2.5 2.5 2.5 2.5 2.5 2.5 2.5 2.5 2.5 2.5 2.5 2.5 2.5 2.5 2.5 2.5 2.5 2.5 2.5 2.5 2.5 2.49999 2.49999 2.49999 2.49999 2.49999 2.49998 2.49998 2.49998 2.49998 2.49998 2.49994 2.49994 2.49994 2.49994 2.49994 2.49985 2.49985 2.49985 2.49985 2.49985 2.49965 2.49964 2.49964 2.49962 2.49964 2.49925 2.49922 2.4992 2.49912 2.49919 2.49853 2.49846 2.49837 2.49819 2.49836 2.49737 2.4972 2.497 2.49662 2.49698 2.49561 2.49532 2.49493 2.49423 2.49489 2.49312 2.4927 2.49209 2.49098 2.49199 2.48964 2.48915 2.48847 2.48692 2.48825 2.48475 2.48413 2.48391 2.48226 2.48363 2.47819 2.477 2.47795 2.47696 2.47799 2.47029 2.46811 2.47038 2.47054 2.47103 2.46146 2.4583 2.46159 2.46258 2.4625 2.45181 2.44794 2.45194 2.4532 2.45251 2.44143 2.43709 2.44151 2.44271 2.44147 2.43035 2.42586 2.43044 2.43138 2.42965 2.41852 2.41428 2.41879 2.41924 2.41703 2.40588 2.40219 2.40617 2.406 2.40369 2.39241 2.38972 2.39223 2.39123 2.38991 2.37797 2.3767 2.37772 2.37619 2.37589 2.36257 2.36249 2.36282 2.36116 2.3614 2.34666 2.34739 2.34786 2.34613 2.34655 2.33081 2.33213 2.33286 2.33106 2.3316 2.31524 2.31686 2.31752 2.31579 2.31639 2.29997 2.30134 2.30159 2.30033 2.30093 2.28481 2.28548 2.28504 2.28468 2.28531 2.2695 2.26964 2.26836 2.26896 2.26973 2.25389 2.25394 2.25196 2.25327 2.25419 2.23818 2.23829 2.23585 2.23757 2.2386 2.22241 2.22261 2.21984 2.22183 2.22297 2.20661 2.20695 2.20389 2.20613 2.20735 2.19077 2.19135 2.18805 2.19054 2.19166 2.17489 2.17583 2.1724 2.17508 2.17587 2.159 2.16036 2.15701 2.15972 2.16004 2.14311 2.14494 2.14192 2.14428 2.14416 2.12722 2.12955 2.12705 2.12878 2.1283 2.11147 2.11423 2.11227 2.11331 2.11258 2.0959 2.09893 2.09737 2.09782 2.097 2.08053 2.0837 2.08227 2.08224 2.08161 2.06537 2.06859 2.06715 2.06668 2.06636 2.05044 2.05355 2.0522 2.05131 2.05122 2.03574 2.03852 2.03737 2.03623 2.03617 2.02126 2.02349 2.02268 2.0214 2.02111 2.00687 2.00849 2.00814 2.00687 2.00608 1.99266 1.99361 1.9938 1.99271 1.99114 1.97839 1.97886 1.97969 1.97884 1.97659 1.96436 1.96446 1.96586 1.96512 1.96248 1.95055 1.95051 1.95226 1.95151 1.94879 1.93698 1.93701 1.93891 1.93806 1.93548 1.92367 1.92389 1.92582 1.92488 1.92252 1.91065 1.91121 1.91296 1.91203 1.90994 1.89805 1.89905 1.90025 1.89959 1.89779 1.88598 1.88731 1.88758 1.88759 1.88611 1.87458 1.87599 1.87524 1.87606 1.87492 1.86377 1.86514 1.86367 1.86506 1.86418 1.85352 1.85484 1.85287 1.8546 1.85399 1.84391 1.84513 1.84281 1.84477 1.84441 1.83497 1.83609 1.83355 1.83566 1.83544 1.82673 1.82777 1.82517 1.82736 1.82722 1.81921 1.82025 1.81773 1.8199 1.81978 1.81246 1.81355 1.81125 1.8133 1.81314 1.80653 1.80771 1.80572 1.80755 1.8073 1.80145 1.80274 1.80107 1.80263 1.80228 1.79728 1.79865 1.79724 1.79854 1.79804 1.79399 1.79536 1.79414 1.79526 1.79454 1.79151 1.79281 1.7917 1.79274 1.79179 1.78968 1.79088 1.78985 1.79086 1.7898 1.78839 1.78943 1.78853 1.78948 1.78844 1.78753 1.78838 1.78764 1.7885 1.78757 1.78703 1.78769 1.78712 1.78783 1.78707 1.78682 1.78731 1.78689 1.78744 1.78687 1.78684 1.78718 1.7869 1.78729 1.7869 1.78705 1.78728 1.78709 1.78737 1.78712 1.7874 1.78756 1.78744 1.78761 1.78747 1.7879 1.78801 1.78796 1.78803 1.78796 1.78857 1.78864 1.78864 1.78866 1.78863 1.78947 1.78952 1.78953 1.78953 1.78952 1.79071 1.79076 1.79077 1.79076 1.79075 1.79245 1.7925 1.7925 1.79247 1.79247 1.79491 1.79497 1.79494 1.79489 1.79491 1.79832 1.79839 1.79833 1.79827 1.7983 1.80295 1.80302 1.80294 1.80286 1.8029 1.80901 1.80908 1.80898 1.80887 1.80894 1.81661 1.81665 1.81654 1.81641 1.81649 1.82568 1.82568 1.82555 1.82542 1.8255 1.83593 1.83588 1.83574 1.83561 1.83567 1.84684 1.84674 1.84661 1.8465 1.84655 1.85768 1.85753 1.85746 1.85738 1.85739 1.86814 1.86771 1.86751 1.8674 1.86738 1.87606 1.87572 1.87579 1.87583 1.87578 1.88107 1.88073 1.88099 1.88115 1.88108 1.98957 1.98108 1.9744 1.97496 1.97926 2.42995 2.41568 2.40386 2.40415 2.4116 2.85164 2.84795 2.84406 2.84334 2.846 2.86163 2.86219 2.8627 2.86185 2.86181 2.85729 2.85801 2.85879 2.85811 2.858 2.85157 2.85217 2.85321 2.85262 2.85249 2.84543 2.84571 2.84703 2.84645 2.84645 2.83951 2.83949 2.84111 2.84043 2.84068 2.83424 2.83398 2.83596 2.83503 2.83562 2.82984 2.82941 2.83176 2.83047 2.83147 2.82635 2.8258 2.82857 2.82679 2.82828 2.8237 2.82309 2.8263 2.82394 2.82599 2.82179 2.82115 2.82481 2.82179 2.82447 2.82047 2.81981 2.82392 2.82018 2.82356 2.81961 2.81893 2.8235 2.81898 2.8231 2.81913 2.81836 2.82341 2.81804 2.82296 2.8189 2.81799 2.82353 2.81727 2.82297 2.81885 2.81772 2.82381 2.81663 2.82305 2.81898 2.8175 2.82425 2.81616 2.82317 2.81936 2.8173 2.82464 2.81574 2.82323 2.81985 2.81704 2.82482 2.81525 2.82317 2.82034 2.81666 2.82483 2.81471 2.82314 2.8209 2.81595 2.82475 2.81391 2.8233 2.82164 2.81468 2.82483 2.81248 2.82369 2.82272 2.81269 2.82503 2.81028 2.82423 2.82316 2.80898 2.82465 2.80654 2.82415 2.82228 2.80376 2.82305 2.80137 2.8229 2.81747 2.7958 2.816 2.79325 2.81733 2.8032 2.78283 2.79564 2.77888 2.80246 2.76328 2.75624 2.75231 2.74938 2.7627 2.67593 2.69742 2.67065 2.68634 2.67327 2.51741 2.57221 2.533 2.56058 2.51258 2.28252 2.33275 2.30538 2.32839 2.28166 2.07218 2.07975 2.07547 2.0814 2.07423 2.01118 2.01162 2.01187 2.01209 2.01177 2.00171 2.00176 2.0018 2.00181 2.0018 2.00027 2.00027 2.00028 2.00028 2.00028 2.00004 2.00004 2.00004 2.00004 2.00004 2.00001 2.00001 2.00001 2.00001 2.00001 2 2 2 2 2 2 2 2 2 2 2 2 2 2 2 2 2 2 2 2 2 2 2 2 2 2 2 2 2 2 2 2 2 2 2 2 2 2 2 2 2 2 2 2 2 2 2 2 2 2 2 2 2 2 2 2 2 2 2 2 2 2 2 2 2 2 2 2 2 2 2 2 2 2 2 2 2 2 2 2 2 2 2 2 2 2 2 2 2 2 2 2 2 2 2 2 2 2 2 2 2 2 2 2 2 2 2 2 2 2 2 2 2 2 2 2 2 2 2 2 2 2 2 2 2 2 2 2 2 2 2 2 2 2 2 2 2 2 2 2
				</DataArray>
				<DataArray Name="F1" type="Float32" format="ascii">
 1 1 1 1 1 1 1 1 1 1 1 1 1 1 1 1 1 1 1 1 1 1 1 1 1 1 1 1 1 1 1 1 1 1 1 1 1 1 1 1 1 1 1 1 1 1 1 1 1 1 1 1 1 1 1 1 1 1 1 1 1 1 1 1 1 1 1 1 1 1 1 1 1 1 1 1 1 1 1 1 1 1 1 1 1 1 1 1 1 1 1 1 1 1 1 1 1 1 1 1 1 1 1 1 1 1 1 1 1 1 1 1 1 1 1 1 1 1 1 1 1 1 1 1 1 1 1 1 1 1 1 1 1 1 1 1 1 1 1 1 1 1 1 1 1 1 1 1 1 1 1 1 1 1 1 1 1 1 1 1 1 1 1 1 1 1 1 1 1 1 1 1 1 1 1 1 1 1 1 1 1 1 1 1 1 1 1 1 1 1 1 1 1 1 1 1 1 1 1 1 1 1 1 1 1 1 1 1 1 1 1 1 1 1 1 1 1 1 1 1 1 1 1 1 1 1 1 1 1 1 1 1 1 1 1 1 1 1 1 1 1 1 1 1 1 1 1 1 1 1 1 1 1 1 1 1 1 1 1 1 1 1 1 1 1 1 1 1 1 1 1 1 1 1 1 1 1 1 1 1 1 1 1 1 1 1 1 1 1 1 1 1 1 1 1 1 1 1 1 1 1 1 1 1 1 1 1 1 1 1 1 1 1 1 1 1 1 1 1 1 1 1 1 1 1 1 1 1 1 1 1 1 1 1 1 1 1 1 1 1 1 1 1 1 1 1 1 1 1 1 1 1 1 1 1 1 1 1 1 1 1 1 1 1 1 1 1 1 1 1 1 1 1 1 1 1 1 1 1 1 1 1 1 1 1 1 1 1 1 1 1 1 1 1 1 1 1 1 1 1 1 1 1 1 1 1 1 1 1 1 1 1 1 1 1 1 1 1 1 1 1 1 1 1 1 1 1 1 1 1 1 1 1 1 1 1 1 1 1 1 1 1 1 1 1 1 1 1 1 1 1 1 1 1 1 1 1 1 1 1 1 1 1 1 1 1 1 1 1 1 1 1 1 1 1 1 1 1 1 1 1 1 1 1 1 1 1 1 1 1 1 1 1 1 1 1 1 1 1 1 1 1 1 1 1 1 1 1 1 1 1 1 1 1 1 1 1 1 1 1 1 1 1 1 1 1 1 1 1 1 1 1 1 1 1 1 1 1 1 1 1 1 1 1 1 1 1 1 1 1 1 1 1 1 1 1 1 1 1 1 1 1 1 1 1 1 1 1 1 1 1 1 1 1 1 1 1 1 1 1 1 1 1 1 1 1 1 1 1 1 1 1 1 1 1 1 1 1 1 1 1 1 1 1 1 1 1 1 1 1 1 1 1 1 1 1 1 1 1 1 1 1 1 1 1 1 1 1 1 1 1 1 1 1 1 1 1 1 1 1 1 1 1 1 1 1 1 1 1 1 1 1 1 1 1 1 1 1 1 1 1 1 1 1 1 0.844485 0.855866 0.865674 0.865033 0.858886 0.344631 0.358098 0.369669 0.369064 0.361936 0.00858254 0.0115588 0.014559 0.0144253 0.0125892 3.53552e-11 1.01324e-10 8.23019e-16 3.84213e-12 0 0 0 0 0 0 0 0 0 0 0 0 0 0 0 0 0 0 0 0 0 0 0 0 0 0 0 0 0 0 0 0 0 0 0 0 0 0 0 0 0 0 0 0 0 0 0 0 0 0 0 0 0 0 0 0 0 0 0 0 0 0 0 0 0 0 0 0 0 0 0 0 0 0 0 0 0 0 0 0 0 0 0 0 0 0 0 0 0 0 0 0 0 0 0 0 0 0 0 0 0 0 0 0 0 0 0 0 0 0 0 0 0 0 0 0 0 0 0 0 0 0 0 0 0 0 0 0 0 0 0 0 0 0 0 0 0 0 0 0 0 0 0 0 0 0 0 0 0 0 0 0 0 0 0 0 0 0 0 0 0 0 0 0 0 0 0 0 0 0 0 0 0 0 0 0 0 0 0 0 0 0 0 0 0 0 0 0 0 0 0 0 0 0 0 0 0 0 0 0 0 0 0 0 0 0 0 0 0 0 0 0 0 0 0 0 0 0 0 0 0 0 0 0 0 0 0 0 0 0 0 0 0 0 0 0 0 0 0 0 0 0 0 0 0 0 0 0 0 0 0 0 0 0 0 0 0 0 0 0 0 0 0 0 0 0 0 0 0 0 0 0 0 0 0 0 0 0 0 0 0 0 0 0 0 0 0 0 0 0 0 0 0 0 0 0 0 0 0 0 0 0 0 0 0 0 0 0 0 0 0 0 0 0 0 0
				</DataArray>
				<DataArray Name="F2" type="Float32" format="ascii">
 0 0 0 0 0 0 0 0 0 0 0 0 0 0 0 0 0 0 0 0 0 0 0 0 0 0 0 0 0 0 0 0 0 0 0 0 0 0 0 0 0 0 0 0 0 0 0 0 0 0 0 0 0 0 0 0 0 0 0 0 0 0 0 0 0 0 0 0 0 0 0 0 0 0 0 0 0 0 0 0 0 0 0 0 0 0 0 0 0 0 0 0 0 0 0 0 0 0 0 0 0 0 0 0 0 0 0 0 0 0 0 0 0 0 0 0 0 0 0 0 0 0 0 0 0 0 0 0 0 0 0 0 0 0 0 0 0 0 0 0 0 0 0 0 0 0 0 0 0 0 0 0 0 0 0 0 0 0 0 0 0 0 0 0 0 0 0 0 0 0 0 0 0 0 0 0 0 0 0 0 0 0 0 0 0 0 0 0 0 0 0 0 0 0 0 0 0 0 0 0 0 0 0 0 0 0 0 0 0 0 0 0 0 0 0 0 0 0 0 0 0 0 0 0 0 0 0 0 0 0 0 0 0 0 0 0 0 0 0 0 0 0 0 0 0 0 0 0 0 0 0 0 0 0 0 0 0 0 0 0 0 0 0 0 0 0 0 0 0 0 0 0 0 0 0 0 0 0 0 0 0 0 0 0 0 0 0 0 0 0 0 0 0 0 0 0 0 0 0 0 0 0 0 0 0 0 0 0 0 0 0 0 0 0 0 0 0 0 0 0 0 0 0 0 0 0 0 0 0 0 0 0 0 0 0 0 0 0 0 0 0 0 0 0 0 0 0 0 0 0 0 0 0 0 0 0 0 0 0 0 0 0 0 0 0 0 0 0 0 0 0 0 0 0 0 0 0 0 0 0 0 0 0 0 0 0 0 0 0 0 0 0 0 0 0 0 0 0 0 0 0 0 0 0 0 0 0 0 0 0 0 0 0 0 0 0 0 0 0 0 0 0 0 0 0 0 0 0 0 0 0 0 0 0 0 0 0 0 0 0 0 0 0 0 0 0 0 0 0 0 0 0 0 0 0 0 0 0 0 0 0 0 0 0 0 0 0 0 0 0 0 0 0 0 0 0 0 0 0 0 0 0 0 0 0 0 0 0 0 0 0 0 0 0 0 0 0 0 0 0 0 0 0 0 0 0 0 0 0 0 0 0 0 0 0 0 0 0 0 0 0 0 0 0 0 0 0 0 0 0 0 0 0 0 0 0 0 0 0 0 0 0 0 0 0 0 0 0 0 0 0 0 0 0 0 0 0 0 0 0 0 0 0 0 0 0 0 0 0 0 0 0 0 0 0 0 0 0 0 0 0 0 0 0 0 0 0 0 0 0 0 0 0 0 0 0 0 0 0 0 0 0 0 0 0 0 0 0 0 0 0 0 0 0 0 0 0 0 0 0 0 0 0 0 0 0 0 0 0 0 0 0 0 0 0 0 0 0 0 0 0 0 0 0 0 0 0 0 0 0 0 0 0 0 0 0 0 0 0 0 0 0 0 0 0 0.155515 0.144134 0.134326 0.134967 0.141114 0.655369 0.641902 0.630331 0.630936 0.638064 0.991417 0.988441 0.985441 0.985575 0.987411 1 1 1 1 1 1 1 1 1 1 1 1 1 1 1 1 1 1 1 1 1 1 1 1 1 1 1 1 1 1 1 1 1 1 1 1 1 1 1 1 1 1 1 1 1 1 1 1 1 1 1 1 1 1 1 1 1 1 1 1 1 1 1 1 1 1 1 1 1 1 1 1 1 1 1 1 1 1 1 1 1 1 1 1 1 1 1 1 1 1 1 1 1 1 1 1 1 1 1 1 1 1 1 1 1 1 1 1 1 1 1 1 1 1 1 1 1 1 1 1 1 1 1 1 1 1 1 1 1 1 1 1 1 1 1 1 1 1 1 1 1 1 1 1 1 1 1 1 1 1 1 1 1 1 1 1 1 1 1 1 1 1 1 1 1 1 1 1 1 1 1 1 1 1 1 1 1 1 1 1 1 1 1 1 1 1 1 1 1 1 1 1 1 1 1 1 1 1 1 1 1 1 1 1 1 1 1 1 1 1 1 1 1 1 1 1 1 1 1 1 1 1 1 1 1 1 1 1 1 1 1 1 1 1 1 1 1 1 1 1 1 1 1 1 1 1 1 1 1 1 1 1 1 1 1 1 1 1 1 1 1 1 1 1 1 1 1 1 1 1 1 1 1 1 1 1 1 1 1 1 1 1 1 1 1 1 1 1 1 1 1 1 1 1 1 1 1 1 1 1 1 1 1 1 1 1 1 1 1 1 1 1 1 1 1 1 1 1 1 1
				</DataArray>
				<DataArray Name="F3" type="Float32" format="ascii">