<?xml version="1.0"?>
<VTKFile type="PolyData">
	<PolyData>
		<Piece NumberOfPoints="1206" NumberOfPolys="1000">
			<Points>
				<DataArray type="Float32" NumberOfComponents="3" format="ascii">
 0 0 0 0.02 0 0 0.04 0 0 0.06 0 0 0.08 0 0 0.1 0 0 0 0.005 0 0.02 0.005 0 0.04 0.005 0 0.06 0.005 0 0.08 0.005 0 0.1 0.005 0 0 0.01 0 0.02 0.01 0 0.04 0.01 0 0.06 0.01 0 0.08 0.01 0 0.1 0.01 0 0 0.015 0 0.02 0.015 0 0.04 0.015 0 0.06 0.015 0 0.08 0.015 0 0.1 0.015 0 0 0.02 0 0.02 0.02 0 0.04 0.02 0 0.06 0.02 0 0.08 0.02 0 0.1 0.02 0 0 0.025 0 0.02 0.025 0 0.04 0.025 0 0.06 0.025 0 0.08 0.025 0 0.1 0.025 0 0 0.03 0 0.02 0.03 0 0.04 0.03 0 0.06 0.03 0 0.08 0.03 0 0.1 0.03 0 0 0.035 0 0.02 0.035 0 0.04 0.035 0 0.06 0.035 0 0.08 0.035 0 0.1 0.035 0 0 0.04 0 0.02 0.04 0 0.04 0.04 0 0.06 0.04 0 0.08 0.04 0 0.1 0.04 0 0 0.045 0 0.02 0.045 0 0.04 0.045 0 0.06 0.045 0 0.08 0.045 0 0.1 0.045 0 0 0.05 0 0.02 0.05 0 0.04 0.05 0 0.06 0.05 0 0.08 0.05 0 0.1 0.05 0 0 0.055 0 0.02 0.055 0 0.04 0.055 0 0.06 0.055 0 0.08 0.055 0 0.1 0.055 0 0 0.06 0 0.02 0.06 0 0.04 0.06 0 0.06 0.06 0 0.08 0.06 0 0.1 0.06 0 0 0.065 0 0.02 0.065 0 0.04 0.065 0 0.06 0.065 0 0.08 0.065 0 0.1 0.065 0 0 0.07 0 0.02 0.07 0 0.04 0.07 0 0.06 0.07 0 0.08 0.07 0 0.1 0.07 0 0 0.075 0 0.02 0.075 0 0.04 0.075 0 0.06 0.075 0 0.08 0.075 0 0.1 0.075 0 0 0.08 0 0.02 0.08 0 0.04 0.08 0 0.06 0.08 0 0.08 0.08 0 0.1 0.08 0 0 0.085 0 0.02 0.085 0 0.04 0.085 0 0.06 0.085 0 0.08 0.085 0 0.1 0.085 0 0 0.09 0 0.02 0.09 0 0.04 0.09 0 0.06 0.09 0 0.08 0.09 0 0.1 0.09 0 0 0.095 0 0.02 0.095 0 0.04 0.095 0 0.06 0.095 0 0.08 0.095 0 0.1 0.095 0 0 0.1 0 0.02 0.1 0 0.04 0.1 0 0.06 0.1 0 0.08 0.1 0 0.1 0.1 0 0 0.105 0 0.02 0.105 0 0.04 0.105 0 0.06 0.105 0 0.08 0.105 0 0.1 0.105 0 0 0.11 0 0.02 0.11 0 0.04 0.11 0 0.06 0.11 0 0.08 0.11 0 0.1 0.11 0 0 0.115 0 0.02 0.115 0 0.04 0.115 0 0.06 0.115 0 0.08 0.115 0 0.1 0.115 0 0 0.12 0 0.02 0.12 0 0.04 0.12 0 0.06 0.12 0 0.08 0.12 0 0.1 0.12 0 0 0.125 0 0.02 0.125 0 0.04 0.125 0 0.06 0.125 0 0.08 0.125 0 0.1 0.125 0 0 0.13 0 0.02 0.13 0 0.04 0.13 0 0.06 0.13 0 0.08 0.13 0 0.1 0.13 0 0 0.135 0 0.02 0.135 0 0.04 0.135 0 0.06 0.135 0 0.08 0.135 0 0.1 0.135 0 0 0.14 0 0.02 0.14 0 0.04 0.14 0 0.06 0.14 0 0.08 0.14 0 0.1 0.14 0 0 0.145 0 0.02 0.145 0 0.04 0.145 0 0.06 0.145 0 0.08 0.145 0 0.1 0.145 0 0 0.15 0 0.02 0.15 0 0.04 0.15 0 0.06 0.15 0 0.08 0.15 0 0.1 0.15 0 0 0.155 0 0.02 0.155 0 0.04 0.155 0 0.06 0.155 0 0.08 0.155 0 0.1 0.155 0 0 0.16 0 0.02 0.16 0 0.04 0.16 0 0.06 0.16 0 0.08 0.16 0 0.1 0.16 0 0 0.165 0 0.02 0.165 0 0.04 0.165 0 0.06 0.165 0 0.08 0.165 0 0.1 0.165 0 0 0.17 0 0.02 0.17 0 0.04 0.17 0 0.06 0.17 0 0.08 0.17 0 0.1 0.17 0 0 0.175 0 0.02 0.175 0 0.04 0.175 0 0.06 0.175 0 0.08 0.175 0 0.1 0.175 0 0 0.18 0 0.02 0.18 0 0.04 0.18 0 0.06 0.18 0 0.08 0.18 0 0.1 0.18 0 0 0.185 0 0.02 0.185 0 0.04 0.185 0 0.06 0.185 0 0.08 0.185 0 0.1 0.185 0 0 0.19 0 0.02 0.19 0 0.04 0.19 0 0.06 0.19 0 0.08 0.19 0 0.1 0.19 0 0 0.195 0 0.02 0.195 0 0.04 0.195 0 0.06 0.195 0 0.08 0.195 0 0.1 0.195 0 0 0.2 0 0.02 0.2 0 0.04 0.2 0 0.06 0.2 0 0.08 0.2 0 0.1 0.2 0 0 0.205 0 0.02 0.205 0 0.04 0.205 0 0.06 0.205 0 0.08 0.205 0 0.1 0.205 0 0 0.21 0 0.02 0.21 0 0.04 0.21 0 0.06 0.21 0 0.08 0.21 0 0.1 0.21 0 0 0.215 0 0.02 0.215 0 0.04 0.215 0 0.06 0.215 0 0.08 0.215 0 0.1 0.215 0 0 0.22 0 0.02 0.22 0 0.04 0.22 0 0.06 0.22 0 0.08 0.22 0 0.1 0.22 0 0 0.225 0 0.02 0.225 0 0.04 0.225 0 0.06 0.225 0 0.08 0.225 0 0.1 0.225 0 0 0.23 0 0.02 0.23 0 0.04 0.23 0 0.06 0.23 0 0.08 0.23 0 0.1 0.23 0 0 0.235 0 0.02 0.235 0 0.04 0.235 0 0.06 0.235 0 0.08 0.235 0 0.1 0.235 0 0 0.24 0 0.02 0.24 0 0.04 0.24 0 0.06 0.24 0 0.08 0.24 0 0.1 0.24 0 0 0.245 0 0.02 0.245 0 0.04 0.245 0 0.06 0.245 0 0.08 0.245 0 0.1 0.245 0 0 0.25 0 0.02 0.25 0 0.04 0.25 0 0.06 0.25 0 0.08 0.25 0 0.1 0.25 0 0 0.255 0 0.02 0.255 0 0.04 0.255 0 0.06 0.255 0 0.08 0.255 0 0.1 0.255 0 0 0.26 0 0.02 0.26 0 0.04 0.26 0 0.06 0.26 0 0.08 0.26 0 0.1 0.26 0 0 0.265 0 0.02 0.265 0 0.04 0.265 0 0.06 0.265 0 0.08 0.265 0 0.1 0.265 0 0 0.27 0 0.02 0.27 0 0.04 0.27 0 0.06 0.27 0 0.08 0.27 0 0.1 0.27 0 0 0.275 0 0.02 0.275 0 0.04 0.275 0 0.06 0.275 0 0.08 0.275 0 0.1 0.275 0 0 0.28 0 0.02 0.28 0 0.04 0.28 0 0.06 0.28 0 0.08 0.28 0 0.1 0.28 0 0 0.285 0 0.02 0.285 0 0.04 0.285 0 0.06 0.285 0 0.08 0.285 0 0.1 0.285 0 0 0.29 0 0.02 0.29 0 0.04 0.29 0 0.06 0.29 0 0.08 0.29 0 0.1 0.29 0 0 0.295 0 0.02 0.295 0 0.04 0.295 0 0.06 0.295 0 0.08 0.295 0 0.1 0.295 0 0 0.3 0 0.02 0.3 0 0.04 0.3 0 0.06 0.3 0 0.08 0.3 0 0.1 0.3 0 0 0.305 0 0.02 0.305 0 0.04 0.305 0 0.06 0.305 0 0.08 0.305 0 0.1 0.305 0 0 0.31 0 0.02 0.31 0 0.04 0.31 0 0.06 0.31 0 0.08 0.31 0 0.1 0.31 0 0 0.315 0 0.02 0.315 0 0.04 0.315 0 0.06 0.315 0 0.08 0.315 0 0.1 0.315 0 0 0.32 0 0.02 0.32 0 0.04 0.32 0 0.06 0.32 0 0.08 0.32 0 0.1 0.32 0 0 0.325 0 0.02 0.325 0 0.04 0.325 0 0.06 0.325 0 0.08 0.325 0 0.1 0.325 0 0 0.33 0 0.02 0.33 0 0.04 0.33 0 0.06 0.33 0 0.08 0.33 0 0.1 0.33 0 0 0.335 0 0.02 0.335 0 0.04 0.335 0 0.06 0.335 0 0.08 0.335 0 0.1 0.335 0 0 0.34 0 0.02 0.34 0 0.04 0.34 0 0.06 0.34 0 0.08 0.34 0 0.1 0.34 0 0 0.345 0 0.02 0.345 0 0.04 0.345 0 0.06 0.345 0 0.08 0.345 0 0.1 0.345 0 0 0.35 0 0.02 0.35 0 0.04 0.35 0 0.06 0.35 0 0.08 0.35 0 0.1 0.35 0 0 0.355 0 0.02 0.355 0 0.04 0.355 0 0.06 0.355 0 0.08 0.355 0 0.1 0.355 0 0 0.36 0 0.02 0.36 0 0.04 0.36 0 0.06 0.36 0 0.08 0.36 0 0.1 0.36 0 0 0.365 0 0.02 0.365 0 0.04 0.365 0 0.06 0.365 0 0.08 0.365 0 0.1 0.365 0 0 0.37 0 0.02 0.37 0 0.04 0.37 0 0.06 0.37 0 0.08 0.37 0 0.1 0.37 0 0 0.375 0 0.02 0.375 0 0.04 0.375 0 0.06 0.375 0 0.08 0.375 0 0.1 0.375 0 0 0.38 0 0.02 0.38 0 0.04 0.38 0 0.06 0.38 0 0.08 0.38 0 0.1 0.38 0 0 0.385 0 0.02 0.385 0 0.04 0.385 0 0.06 0.385 0 0.08 0.385 0 0.1 0.385 0 0 0.39 0 0.02 0.39 0 0.04 0.39 0 0.06 0.39 0 0.08 0.39 0 0.1 0.39 0 0 0.395 0 0.02 0.395 0 0.04 0.395 0 0.06 0.395 0 0.08 0.395 0 0.1 0.395 0 0 0.4 0 0.02 0.4 0 0.04 0.4 0 0.06 0.4 0 0.08 0.4 0 0.1 0.4 0 0 0.405 0 0.02 0.405 0 0.04 0.405 0 0.06 0.405 0 0.08 0.405 0 0.1 0.405 0 0 0.41 0 0.02 0.41 0 0.04 0.41 0 0.06 0.41 0 0.08 0.41 0 0.1 0.41 0 0 0.415 0 0.02 0.415 0 0.04 0.415 0 0.06 0.415 0 0.08 0.415 0 0.1 0.415 0 0 0.42 0 0.02 0.42 0 0.04 0.42 0 0.06 0.42 0 0.08 0.42 0 0.1 0.42 0 0 0.425 0 0.02 0.425 0 0.04 0.425 0 0.06 0.425 0 0.08 0.425 0 0.1 0.425 0 0 0.43 0 0.02 0.43 0 0.04 0.43 0 0.06 0.43 0 0.08 0.43 0 0.1 0.43 0 0 0.435 0 0.02 0.435 0 0.04 0.435 0 0.06 0.435 0 0.08 0.435 0 0.1 0.435 0 0 0.44 0 0.02 0.44 0 0.04 0.44 0 0.06 0.44 0 0.08 0.44 0 0.1 0.44 0 0 0.445 0 0.02 0.445 0 0.04 0.445 0 0.06 0.445 0 0.08 0.445 0 0.1 0.445 0 0 0.45 0 0.02 0.45 0 0.04 0.45 0 0.06 0.45 0 0.08 0.45 0 0.1 0.45 0 0 0.455 0 0.02 0.455 0 0.04 0.455 0 0.06 0.455 0 0.08 0.455 0 0.1 0.455 0 0 0.46 0 0.02 0.46 0 0.04 0.46 0 0.06 0.46 0 0.08 0.46 0 0.1 0.46 0 0 0.465 0 0.02 0.465 0 0.04 0.465 0 0.06 0.465 0 0.08 0.465 0 0.1 0.465 0 0 0.47 0 0.02 0.47 0 0.04 0.47 0 0.06 0.47 0 0.08 0.47 0 0.1 0.47 0 0 0.475 0 0.02 0.475 0 0.04 0.475 0 0.06 0.475 0 0.08 0.475 0 0.1 0.475 0 0 0.48 0 0.02 0.48 0 0.04 0.48 0 0.06 0.48 0 0.08 0.48 0 0.1 0.48 0 0 0.485 0 0.02 0.485 0 0.04 0.485 0 0.06 0.485 0 0.08 0.485 0 0.1 0.485 0 0 0.49 0 0.02 0.49 0 0.04 0.49 0 0.06 0.49 0 0.08 0.49 0 0.1 0.49 0 0 0.495 0 0.02 0.495 0 0.04 0.495 0 0.06 0.495 0 0.08 0.495 0 0.1 0.495 0 0 0.5 0 0.02 0.5 0 0.04 0.5 0 0.06 0.5 0 0.08 0.5 0 0.1 0.5 0 0 0.505 0 0.02 0.505 0 0.04 0.505 0 0.06 0.505 0 0.08 0.505 0 0.1 0.505 0 0 0.51 0 0.02 0.51 0 0.04 0.51 0 0.06 0.51 0 0.08 0.51 0 0.1 0.51 0 0 0.515 0 0.02 0.515 0 0.04 0.515 0 0.06 0.515 0 0.08 0.515 0 0.1 0.515 0 0 0.52 0 0.02 0.52 0 0.04 0.52 0 0.06 0.52 0 0.08 0.52 0 0.1 0.52 0 0 0.525 0 0.02 0.525 0 0.04 0.525 0 0.06 0.525 0 0.08 0.525 0 0.1 0.525 0 0 0.53 0 0.02 0.53 0 0.04 0.53 0 0.06 0.53 0 0.08 0.53 0 0.1 0.53 0 0 0.535 0 0.02 0.535 0 0.04 0.535 0 0.06 0.535 0 0.08 0.535 0 0.1 0.535 0 0 0.54 0 0.02 0.54 0 0.04 0.54 0 0.06 0.54 0 0.08 0.54 0 0.1 0.54 0 0 0.545 0 0.02 0.545 0 0.04 0.545 0 0.06 0.545 0 0.08 0.545 0 0.1 0.545 0 0 0.55 0 0.02 0.55 0 0.04 0.55 0 0.06 0.55 0 0.08 0.55 0 0.1 0.55 0 0 0.555 0 0.02 0.555 0 0.04 0.555 0 0.06 0.555 0 0.08 0.555 0 0.1 0.555 0 0 0.56 0 0.02 0.56 0 0.04 0.56 0 0.06 0.56 0 0.08 0.56 0 0.1 0.56 0 0 0.565 0 0.02 0.565 0 0.04 0.565 0 0.06 0.565 0 0.08 0.565 0 0.1 0.565 0 0 0.57 0 0.02 0.57 0 0.04 0.57 0 0.06 0.57 0 0.08 0.57 0 0.1 0.57 0 0 0.575 0 0.02 0.575 0 0.04 0.575 0 0.06 0.575 0 0.08 0.575 0 0.1 0.575 0 0 0.58 0 0.02 0.58 0 0.04 0.58 0 0.06 0.58 0 0.08 0.58 0 0.1 0.58 0 0 0.585 0 0.02 0.585 0 0.04 0.585 0 0.06 0.585 0 0.08 0.585 0 0.1 0.585 0 0 0.59 0 0.02 0.59 0 0.04 0.59 0 0.06 0.59 0 0.08 0.59 0 0.1 0.59 0 0 0.595 0 0.02 0.595 0 0.04 0.595 0 0.06 0.595 0 0.08 0.595 0 0.1 0.595 0 0 0.6 0 0.02 0.6 0 0.04 0.6 0 0.06 0.6 0 0.08 0.6 0 0.1 0.6 0 0 0.605 0 0.02 0.605 0 0.04 0.605 0 0.06 0.605 0 0.08 0.605 0 0.1 0.605 0 0 0.61 0 0.02 0.61 0 0.04 0.61 0 0.06 0.61 0 0.08 0.61 0 0.1 0.61 0 0 0.615 0 0.02 0.615 0 0.04 0.615 0 0.06 0.615 0 0.08 0.615 0 0.1 0.615 0 0 0.62 0 0.02 0.62 0 0.04 0.62 0 0.06 0.62 0 0.08 0.62 0 0.1 0.62 0 0 0.625 0 0.02 0.625 0 0.04 0.625 0 0.06 0.625 0 0.08 0.625 0 0.1 0.625 0 0 0.63 0 0.02 0.63 0 0.04 0.63 0 0.06 0.63 0 0.08 0.63 0 0.1 0.63 0 0 0.635 0 0.02 0.635 0 0.04 0.635 0 0.06 0.635 0 0.08 0.635 0 0.1 0.635 0 0 0.64 0 0.02 0.64 0 0.04 0.64 0 0.06 0.64 0 0.08 0.64 0 0.1 0.64 0 0 0.645 0 0.02 0.645 0 0.04 0.645 0 0.06 0.645 0 0.08 0.645 0 0.1 0.645 0 0 0.65 0 0.02 0.65 0 0.04 0.65 0 0.06 0.65 0 0.08 0.65 0 0.1 0.65 0 0 0.655 0 0.02 0.655 0 0.04 0.655 0 0.06 0.655 0 0.08 0.655 0 0.1 0.655 0 0 0.66 0 0.02 0.66 0 0.04 0.66 0 0.06 0.66 0 0.08 0.66 0 0.1 0.66 0 0 0.665 0 0.02 0.665 0 0.04 0.665 0 0.06 0.665 0 0.08 0.665 0 0.1 0.665 0 0 0.67 0 0.02 0.67 0 0.04 0.67 0 0.06 0.67 0 0.08 0.67 0 0.1 0.67 0 0 0.675 0 0.02 0.675 0 0.04 0.675 0 0.06 0.675 0 0.08 0.675 0 0.1 0.675 0 0 0.68 0 0.02 0.68 0 0.04 0.68 0 0.06 0.68 0 0.08 0.68 0 0.1 0.68 0 0 0.685 0 0.02 0.685 0 0.04 0.685 0 0.06 0.685 0 0.08 0.685 0 0.1 0.685 0 0 0.69 0 0.02 0.69 0 0.04 0.69 0 0.06 0.69 0 0.08 0.69 0 0.1 
[...]
			<CellData Scalars="Density">
				<DataArray Name="Density" type="Float32" format="ascii">
 1 1 1 1 1 1 1 1 1 1 1 1 1 1 1 1 1 1 1 1 1 1 1 1 1 1 1 1 1 1 1 1 1 1 1 1 1 1 1 1 1 1 1 1 1 1 1 1 1 1 1 1 1 1 1 1 1 1 1 1 1 1 1 1 1 1 1 1 1 1 1 1 1 1 1 1 1 1 1 1 1 1 1 1 1 1 1 1 1 1 1 1 1 1 1 1 1 1 1 1 1 1 1 1 1 1 1 1 1 1 1 1 1 1 1 1 1 1 1 1 1 1 1 1 1 1 1 1 1 1 1 1 1 1 1 1 1 1 1 1 1 1 1 1 1 1 1 1 1 1 1 1 1 1 1 1 1 1 1 1 1 1 1 1 1 1 1 1 1 1 1 1 1 1 1 1 1 1 1 1 1 1 1 1 1 1 1 1 1 1 0.999999 0.999999 0.999999 0.999999 0.999999 0.999997 0.999997 0.999997 0.999997 0.999997 0.999993 0.999993 0.999993 0.999993 0.999993 0.99998 0.99998 0.99998 0.99998 0.99998 0.999944 0.999944 0.999945 0.999946 0.999948 0.999853 0.999848 0.999854 0.999861 0.999869 0.999645 0.999619 0.999648 0.999674 0.999695 0.999234 0.999159 0.999245 0.999306 0.999337 0.998497 0.998334 0.998527 0.99862 0.998641 0.997272 0.996984 0.997328 0.997395 0.997388 0.99537 0.99493 0.995394 0.99532 0.995374 0.992596 0.99201 0.992561 0.992248 0.992506 0.988777 0.988028 0.988727 0.988135 0.988674 0.983833 0.982881 0.983792 0.982906 0.983761 0.977739 0.976547 0.977718 0.976536 0.977704 0.970526 0.969082 0.970526 0.969061 0.97051 0.962253 0.960576 0.962268 0.960555 0.962238 0.952963 0.951124 0.953007 0.951108 0.952949 0.94275 0.940823 0.942827 0.940814 0.942729 0.931708 0.92976 0.931817 0.929754 0.93168 0.919957 0.918059 0.920103 0.918043 0.919917 0.907613 0.905828 0.907795 0.905789 0.907557 0.894791 0.893175 0.895009 0.893101 0.894719 0.881597 0.880195 0.881848 0.880076 0.881511 0.868115 0.866965 0.868401 0.866801 0.868031 0.854414 0.853545 0.854736 0.85335 0.854359 0.840533 0.839966 0.840895 0.839765 0.8405 0.826453 0.826229 0.826927 0.826089 0.826373 0.812167 0.812379 0.812965 0.812342 0.812281 0.79799 0.798642 0.799165 0.798566 0.798373 0.784072 0.785106 0.785509 0.784844 0.784671 0.770436 0.771707 0.771948 0.771215 0.771086 0.75706 0.758379 0.758487 0.757716 0.757583 0.743912 0.745099 0.745159 0.744391 0.744146 0.730941 0.731876 0.731998 0.731295 0.730782 0.718114 0.718776 0.718969 0.718476 0.717625 0.705418 0.705807 0.705881 0.705774 0.704746 0.692866 0.692965 0.692636 0.693101 0.692182 0.680449 0.680349 0.679518 0.680581 0.679856 0.66814 0.66801 0.666769 0.668274 0.667684 0.655991 0.655895 0.65437 0.656146 0.655645 0.644013 0.643953 0.642265 0.644182 0.643733 0.632231 0.632185 0.630411 0.632403 0.631985 0.620656 0.620607 0.618776 0.620811 0.620423 0.609286 0.609226 0.607354 0.609421 0.609069 0.598124 0.598053 0.596148 0.598235 0.597917 0.587175 0.5871 0.58517 0.587267 0.586981 0.576448 0.576376 0.574431 0.576523 0.576266 0.565951 0.56589 0.563943 0.566017 0.565782 0.555695 0.555649 0.553717 0.555758 0.555541 0.545696 0.545666 0.543768 0.545759 0.545554 0.535968 0.535956 0.534115 0.536034 0.535835 0.526522 0.52653 0.52478 0.526593 0.526397 0.517373 0.517401 0.515788 0.517452 0.517254 0.508536 0.508586 0.507165 0.508626 0.508421 0.500025 0.500102 0.498935 0.500132 0.499915 0.491862 0.491969 0.491118 0.491992 0.491753 0.484068 0.484212 0.483727 0.484231 0.483955 0.476681 0.476845 0.476731 0.476863 0.476524 0.469723 0.469851 0.470044 0.469881 0.46942 0.463214 0.463295 0.46374 0.463391 0.462785 0.457147 0.457242 0.457918 0.457429 0.456679 0.451522 0.451733 0.452594 0.451992 0.451134 0.446314 0.446858 0.447782 0.447102 0.446173 0.44175 0.44262 0.443428 0.442764 0.441807 0.437894 0.438948 0.439454 0.438985 0.438049 0.434711 0.435749 0.435759 0.435715 0.434879 0.432096 0.433011 0.432527 0.432956 0.43222 0.429929 0.430748 0.429986 0.430728 0.429994 0.428123 0.428868 0.428028 0.428903 0.428135 0.42664 0.427313 0.426529 0.427392 0.426626 0.42545 0.426035 0.425374 0.426122 0.425432 0.424517 0.425008 0.424504 0.42508 0.424506 0.423792 0.424201 0.423873 0.424249 0.423794 0.423234 0.423556 0.42341 0.423593 0.423248 0.422813 0.423031 0.423039 0.423073 0.422833 0.422492 0.422639 0.422751 0.422675 0.422512 0.422234 0.422342 0.422496 0.422377 0.422248 0.42201 0.422095 0.422238 0.422131 0.422017 0.421795 0.421865 0.421968 0.421895 0.421797 0.421562 0.421617 0.421682 0.421642 0.421561 0.421273 0.421313 0.42135 0.421335 0.421274 0.420887 0.420913 0.420933 0.420933 0.420891 0.420369 0.420382 0.420383 0.420382 0.420364 0.419662 0.419654 0.41964 0.419638 0.419638 0.418705 0.418674 0.418638 0.418641 0.418654 0.417419 0.417371 0.417324 0.417333 0.417355 0.415733 0.415694 0.415635 0.415648 0.415691 0.413649 0.413669 0.41355 0.413567 0.413665 0.411258 0.411361 0.411147 0.411172 0.411341 0.408754 0.408891 0.408635 0.408668 0.408838 0.406338 0.406357 0.406306 0.406279 0.406353 0.404114 0.404054 0.404107 0.404188 0.404066 0.402229 0.402085 0.402501 0.402512 0.402042 0.401083 0.401235 0.40134 0.401262 0.401124 0.381081 0.381447 0.381896 0.381691 0.381114 0.312543 0.312888 0.31325 0.313063 0.312579 0.26499 0.265083 0.265167 0.26511 0.265006 0.263645 0.26365 0.263649 0.26367 0.263636 0.264021 0.264025 0.264019 0.264007 0.264005 0.264544 0.264545 0.264536 0.264541 0.264562 0.265175 0.26517 0.265153 0.265145 0.265161 0.26576 0.265747 0.265728 0.265727 0.265738 0.266275 0.266259 0.266238 0.26624 0.266249 0.266703 0.266686 0.266663 0.266669 0.266672 0.26704 0.267024 0.266998 0.267008 0.267004 0.267291 0.26728 0.267248 0.267261 0.267249 0.267471 0.267465 0.267427 0.267443 0.267424 0.267595 0.267593 0.26755 0.267567 0.267541 0.267678 0.267677 0.267631 0.267649 0.267615 0.267734 0.267729 0.267683 0.267699 0.267659 0.267769 0.267759 0.267712 0.267732 0.267676 0.267792 0.267774 0.267722 0.267756 0.267676 0.267815 0.267787 0.267715 0.267777 0.267657 0.26784 0.267801 0.267682 0.267801 0.267628 0.267852 0.267802 0.267625 0.267833 0.267623 0.267849 0.267755 0.267534 0.267807 0.267621 0.267858 0.267647 0.26746 0.267656 0.267632 0.267908 0.267456 0.267445 0.267374 0.267726 0.267925 0.267095 0.26747 0.266884 0.267786 0.267821 0.266482 0.267409 0.266079 0.267702 0.267239 0.265367 0.266726 0.264798 0.267212 0.265575 0.263678 0.265004 0.263018 0.265609 0.261082 0.259876 0.259048 0.259135 0.261351 0.250816 0.252865 0.24896 0.251941 0.250999 0.229441 0.235089 0.229278 0.234969 0.229091 0.200179 0.206096 0.201821 0.207792 0.198995 0.159665 0.162653 0.16182 0.165391 0.160047 0.132342 0.132623 0.132941 0.133476 0.132989 0.126221 0.126273 0.126329 0.126354 0.12633 0.125193 0.1252 0.125204 0.125205 0.125204 0.12503 0.12503 0.125031 0.125031 0.125031 0.125005 0.125005 0.125005 0.125005 0.125005 0.125001 0.125001 0.125001 0.125001 0.125001 0.125 0.125 0.125 0.125 0.125 0.125 0.125 0.125 0.125 0.125 0.125 0.125 0.125 0.125 0.125 0.125 0.125 0.125 0.125 0.125 0.125 0.125 0.125 0.125 0.125 0.125 0.125 0.125 0.125 0.125 0.125 0.125 0.125 0.125 0.125 0.125 0.125 0.125 0.125 0.125 0.125 0.125 0.125 0.125 0.125 0.125 0.125 0.125 0.125 0.125 0.125 0.125 0.125 0.125 0.125 0.125 0.125 0.125 0.125 0.125 0.125 0.125 0.125 0.125 0.125 0.125 0.125 0.125 0.125 0.125 0.125 0.125 0.125 0.125 0.125 0.125 0.125 0.125 0.125 0.125 0.125 0.125 0.125 0.125 0.125 0.125 0.125 0.125 0.125 0.125 0.125 0.125 0.125 0.125 0.125 0.125 0.125 0.125 0.125 0.125 0.125 0.125 0.125 0.125 0.125 0.125 0.125 0.125 0.125 0.125 0.125 0.125 0.125 0.125 0.125 0.125 0.125 0.125 0.125 0.125 0.125 0.125 0.125 0.125 0.125 0.125 0.125 0.125 0.125 0.125 0.125 0.125 0.125 0.125 0.125 0.125 0.125 0.125 0.125 0.125
				</DataArray>
				<DataArray Name="Energy" type="Float32" format="ascii">
 2.5 2.5 2.5 2.5 2.5 2.5 2.5 2.5 2.5 2.5 2.5 2.5 2.5 2.5 2.5 2.5 2.5 2.5 2.5 2.5 2.5 2.5 2.5 2.5 2.5 2.5 2.5 2.5 2.5 2.5 2.5 2.5 2.5 2.5 2.5 2.5 2.5 2.5 2.5 2.5 2.5 2.5 2.5 2.5 2.5 2.5 2.5 2.5 2.5 2.5 2.5 2.5 2.5 2.5 2.5 2.5 2.5 2.5 2.5 2.5 2.5 2.5 2.5 2.5 2.5 2.5 2.5 2.5 2.5 2.5 2.5 2.5 2.5 2.5 2.5 2.5 2.5 2.5 2.5 2.5 2.5 2.5 2.5 2.5 2.5 2.5 2.5 2.5 2.5 2.5 2.5 2.5 2.5 2.5 2.5 2.5 2.5 2.5 2.5 2.5 2.5 2.5 2.5 2.5 2.5 2.5 2.5 2.5 2.5 2.5 2.5 2.5 2.5 2.5 2.5 2.5 2.5 2.5 2.5 2.5 2.5 2.5 2.5 2.5 2.5 2.5 2.5 2.5 2.5 2.5 2.5 2.5 2.5 2.5 2.5 2.5 2.5 2.5 2.5 2.5 2.5 2.5 2.5 2.5 2.5 2.5 2.5 2.5 2.5 2.5 2.5 2.5 2.5 2.5 2.5 2.5 2.5 2.5 2.5 2.5 2.5 2.5 2.5 2.5 2.5 2.5 2.5 2.5 2.5 2.5 2.5 2.5 2.5 2.5 2.5 2.5 2.5 2.5 2.5 2.5 2.5 2.5 2.5 2.5 2.5 2.5 2.5 2.5 2.5 2.5 2.5 2.5 2.5 2.5 2.5 2.5 2.5 2.5 2.5 2.5 2.49999 2.49999 2.49999 2.49999 2.49999 2.49998 2.49998 2.49998 2.49998 2.49998 2.49994 2.49994 2.49994 2.49995 2.49995 2.49985 2.49985 2.49985 2.49986 2.49987 2.49964 2.49962 2.49965 2.49967 2.49969 2.49923 2.49916 2.49924 2.49931 2.49934 2.4985 2.49833 2.49853 2.49862 2.49864 2.49727 2.49698 2.49733 2.49739 2.49739 2.49536 2.49492 2.49539 2.49531 2.49537 2.49258 2.49199 2.49254 2.49223 2.49249 2.48874 2.48798 2.48869 2.48808 2.48863 2.48375 2.48278 2.48371 2.4828 2.48368 2.47758 2.47636 2.47756 2.47635 2.47755 2.47026 2.46876 2.47026 2.46873 2.47024 2.46181 2.46005 2.46184 2.46003 2.46179 2.45228 2.45033 2.45234 2.45031 2.45226 2.44174 2.43966 2.44184 2.43965 2.44171 2.43027 2.42813 2.43042 2.42812 2.43024 2.41798 2.41585 2.41817 2.41583 2.41793 2.40496 2.40291 2.40521 2.40287 2.40489 2.39134 2.38942 2.39164 2.38934 2.39125 2.37719 2.37547 2.37756 2.37534 2.37709 2.36261 2.36113 2.36304 2.36095 2.3625 2.34765 2.34645 2.34814 2.34624 2.34758 2.33234 2.33146 2.33291 2.33125 2.33229 2.31665 2.31616 2.31738 2.31601 2.31654 2.30056 2.30059 2.30171 2.30055 2.30068 2.28445 2.28501 2.28607 2.28491 2.28488 2.26848 2.26951 2.27041 2.26918 2.26915 2.25268 2.25399 2.2547 2.25339 2.25337 2.23701 2.23839 2.23893 2.2376 2.23752 2.22144 2.22269 2.22316 2.22185 2.22158 2.20592 2.20689 2.20741 2.20624 2.20556 2.19041 2.1911 2.19164 2.1908 2.18966 2.17491 2.17529 2.1756 2.1753 2.17397 2.15943 2.15947 2.15919 2.15968 2.1585 2.14395 2.14377 2.14281 2.1441 2.14315 2.12844 2.12827 2.12678 2.12864 2.12782 2.11296 2.11289 2.11104 2.11324 2.11248 2.09755 2.09756 2.09548 2.09789 2.09715 2.08224 2.0823 2.08007 2.08262 2.08187 2.06705 2.06713 2.06476 2.06743 2.06669 2.05197 2.05206 2.04958 2.05236 2.05163 2.03701 2.03711 2.03454 2.03739 2.03669 2.02219 2.02229 2.01965 2.02256 2.02188 2.00752 2.00764 2.00495 2.00788 2.00722 1.99301 1.99317 1.99044 1.99338 1.99273 1.9787 1.97889 1.97615 1.97908 1.97844 1.96461 1.96483 1.96212 1.96501 1.96436 1.95076 1.95103 1.94838 1.95118 1.95054 1.9372 1.93751 1.93497 1.93764 1.93698 1.92395 1.9243 1.92195 1.92442 1.92374 1.91104 1.91144 1.90936 1.91154 1.91083 1.89851 1.89896 1.89726 1.89905 1.89831 1.8864 1.88691 1.88569 1.88699 1.88621 1.87477 1.87535 1.87469 1.87542 1.87456 1.86369 1.8643 1.8642 1.86438 1.86339 1.85321 1.85376 1.85412 1.85387 1.85266 1.84337 1.84387 1.84461 1.84409 1.84264 1.83417 1.83474 1.83583 1.83511 1.83343 1.82562 1.82646 1.82781 1.82693 1.82508 1.81778 1.8192 1.82057 1.8196 1.81766 1.81105 1.81292 1.81399 1.81315 1.81119 1.80543 1.80751 1.80801 1.80759 1.8057 1.80086 1.80289 1.80259 1.80288 1.80114 1.79719 1.79904 1.79805 1.79901 1.79739 1.79423 1.79594 1.79461 1.79596 1.79433 1.79187 1.79342 1.79205 1.7935 1.79188 1.79004 1.79142 1.79019 1.79154 1.79001 1.7887 1.78987 1.78889 1.78999 1.78867 1.78779 1.78876 1.78806 1.78886 1.78777 1.78723 1.78803 1.78762 1.78811 1.78724 1.78696 1.78759 1.78746 1.78767 1.78699 1.78695 1.78739 1.78748 1.78748 1.78698 1.78714 1.78746 1.78768 1.78754 1.78716 1.78748 1.78775 1.788 1.78783 1.78749 1.78797 1.7882 1.78841 1.78827 1.78797 1.78862 1.78882 1.78898 1.78889 1.78861 1.78947 1.78966 1.78978 1.78971 1.78947 1.79063 1.7908 1.79091 1.79085 1.79063 1.79223 1.79241 1.79251 1.79245 1.79224 1.79452 1.79472 1.79482 1.79473 1.79452 1.79774 1.79795 1.7981 1.79797 1.79772 1.80219 1.8024 1.80261 1.80244 1.80214 1.80813 1.8083 1.8086 1.80838 1.80803 1.81578 1.8158 1.81632 1.81607 1.81555 1.82508 1.82487 1.82579 1.82554 1.8247 1.83557 1.83524 1.83647 1.83627 1.83518 1.84655 1.84629 1.84739 1.84726 1.84636 1.85736 1.8573 1.85766 1.85758 1.85749 1.86728 1.86751 1.8671 1.86691 1.86751 1.87555 1.87553 1.87443 1.87451 1.87587 1.88051 1.88032 1.87907 1.87928 1.88074 1.97956 1.97793 1.97542 1.97637 1.97956 2.4141 2.41151 2.40862 2.40996 2.4138 2.84771 2.8467 2.84575 2.84614 2.8474 2.86239 2.86227 2.86214 2.86204 2.86224 2.85823 2.85816 2.85818 2.85814 2.85822 2.85237 2.85233 2.85248 2.85247 2.85247 2.84608 2.84606 2.84623 2.84616 2.84613 2.83999 2.83996 2.8401 2.83997 2.83995 2.83448 2.83444 2.83459 2.8344 2.83439 2.8298 2.82974 2.82992 2.82969 2.82969 2.82603 2.82594 2.82616 2.82588 2.82591 2.82314 2.823 2.82327 2.82294 2.82299 2.82099 2.82083 2.82114 2.82076 2.82084 2.81947 2.81928 2.81961 2.81919 2.81929 2.81842 2.8182 2.81856 2.8181 2.81822 2.81773 2.81746 2.81785 2.81735 2.81751 2.8173 2.81695 2.81738 2.81685 2.81704 2.81704 2.81661 2.81708 2.81653 2.81673 2.81693 2.8164 2.81689 2.81635 2.81651 2.81692 2.81628 2.81678 2.81626 2.81635 2.81696 2.81618 2.81673 2.81629 2.81633 2.81699 2.81599 2.81671 2.81619 2.8164 2.81709 2.81562 2.81684 2.81575 2.81659 2.81737 2.81499 2.81725 2.81486 2.8171 2.81762 2.8138 2.81797 2.81325 2.81764 2.81767 2.81175 2.81866 2.81051 2.81783 2.81635 2.80792 2.81768 2.80603 2.81702 2.8115 2.80214 2.81344 2.79979 2.81253 2.7974 2.7891 2.79486 2.78629 2.79963 2.7617 2.76441 2.75912 2.76068 2.76417 2.67525 2.69468 2.67727 2.69352 2.67576 2.5265 2.55491 2.53606 2.56234 2.52226 2.26685 2.28836 2.28186 2.30593 2.27005 2.05506 2.05773 2.0598 2.06461 2.05998 2.00815 2.00851 2.0089 2.0091 2.00891 2.00125 2.00129 2.00132 2.00132 2.00132 2.00019 2.0002 2.0002 2.0002 2.0002 2.00003 2.00003 2.00003 2.00003 2.00003 2 2 2 2 2 2 2 2 2 2 2 2 2 2 2 2 2 2 2 2 2 2 2 2 2 2 2 2 2 2 2 2 2 2 2 2 2 2 2 2 2 2 2 2 2 2 2 2 2 2 2 2 2 2 2 2 2 2 2 2 2 2 2 2 2 2 2 2 2 2 2 2 2 2 2 2 2 2 2 2 2 2 2 2 2 2 2 2 2 2 2 2 2 2 2 2 2 2 2 2 2 2 2 2 2 2 2 2 2 2 2 2 2 2 2 2 2 2 2 2 2 2 2 2 2 2 2 2 2 2 2 2 2 2 2 2 2 2 2 2 2 2 2 2 2
				</DataArray>
				<DataArray Name="F1" type="Float32" format="ascii">
 1 1 1 1 1 1 1 1 1 1 1 1 1 1 1 1 1 1 1 1 1 1 1 1 1 1 1 1 1 1 1 1 1 1 1 1 1 1 1 1 1 1 1 1 1 1 1 1 1 1 1 1 1 1 1 1 1 1 1 1 1 1 1 1 1 1 1 1 1 1 1 1 1 1 1 1 1 1 1 1 1 1 1 1 1 1 1 1 1 1 1 1 1 1 1 1 1 1 1 1 1 1 1 1 1 1 1 1 1 1 1 1 1 1 1 1 1 1 1 1 1 1 1 1 1 1 1 1 1 1 1 1 1 1 1 1 1 1 1 1 1 1 1 1 1 1 1 1 1 1 1 1 1 1 1 1 1 1 1 1 1 1 1 1 1 1 1 1 1 1 1 1 1 1 1 1 1 1 1 1 1 1 1 1 1 1 1 1 1 1 1 1 1 1 1 1 1 1 1 1 1 1 1 1 1 1 1 1 1 1 1 1 1 1 1 1 1 1 1 1 1 1 1 1 1 1 1 1 1 1 1 1 1 1 1 1 1 1 1 1 1 1 1 1 1 1 1 1 1 1 1 1 1 1 1 1 1 1 1 1 1 1 1 1 1 1 1 1 1 1 1 1 1 1 1 1 1 1 1 1 1 1 1 1 1 1 1 1 1 1 1 1 1 1 1 1 1 1 1 1 1 1 1 1 1 1 1 1 1 1 1 1 1 1 1 1 1 1 1 1 1 1 1 1 1 1 1 1 1 1 1 1 1 1 1 1 1 1 1 1 1 1 1 1 1 1 1 1 1 1 1 1 1 1 1 1 1 1 1 1 1 1 1 1 1 1 1 1 1 1 1 1 1 1 1 1 1 1 1 1 1 1 1 1 1 1 1 1 1 1 1 1 1 1 1 1 1 1 1 1 1 1 1 1 1 1 1 1 1 1 1 1 1 1 1 1 1 1 1 1 1 1 1 1 1 1 1 1 1 1 1 1 1 1 1 1 1 1 1 1 1 1 1 1 1 1 1 1 1 1 1 1 1 1 1 1 1 1 1 1 1 1 1 1 1 1 1 1 1 1 1 1 1 1 1 1 1 1 1 1 1 1 1 1 1 1 1 1 1 1 1 1 1 1 1 1 1 1 1 1 1 1 1 1 1 1 1 1 1 1 1 1 1 1 1 1 1 1 1 1 1 1 1 1 1 1 1 1 1 1 1 1 1 1 1 1 1 1 1 1 1 1 1 1 1 1 1 1 1 1 1 1 1 1 1 1 1 1 1 1 1 1 1 1 1 1 1 1 1 1 1 1 1 1 1 1 1 1 1 1 1 1 1 1 1 1 1 1 1 1 1 1 1 1 1 1 1 1 1 1 1 1 1 1 1 1 1 1 1 1 1 1 1 1 1 1 1 1 1 1 1 1 1 1 1 1 1 1 1 1 1 1 1 1 1 1 1 1 1 1 1 1 1 1 1 1 1 1 1 1 1 1 1 1 1 1 1 1 1 1 1 1 1 1 1 0.857833 0.859783 0.861589 0.860529 0.858055 0.359529 0.361752 0.363704 0.36253 0.359852 0.0118146 0.012384 0.0128871 0.0125787 0.011905 6.40163e-11 5.28737e-11 1.69866e-12 0 0 0 0 0 0 0 0 0 0 0 0 0 0 0 0 0 0 0 0 0 0 0 0 0 0 0 0 0 0 0 0 0 0 0 0 0 0 0 0 0 0 0 0 0 0 0 0 0 0 0 0 0 0 0 0 0 0 0 0 0 0 0 0 0 0 0 0 0 0 0 0 0 0 0 0 0 0 0 0 0 0 0 0 0 0 0 0 0 0 0 0 0 0 0 0 0 0 0 0 0 0 0 0 0 0 0 0 0 0 0 0 0 0 0 0 0 0 0 0 0 0 0 0 0 0 0 0 0 0 0 0 0 0 0 0 0 0 0 0 0 0 0 0 0 0 0 0 0 0 0 0 0 0 0 0 0 0 0 0 0 0 0 0 0 0 0 0 0 0 0 0 0 0 0 0 0 0 0 0 0 0 0 0 0 0 0 0 0 0 0 0 0 0 0 0 0 0 0 0 0 0 0 0 0 0 0 0 0 0 0 0 0 0 0 0 0 0 0 0 0 0 0 0 0 0 0 0 0 0 0 0 0 0 0 0 0 0 0 0 0 0 0 0 0 0 0 0 0 0 0 0 0 0 0 0 0 0 0 0 0 0 0 0 0 0 0 0 0 0 0 0 0 0 0 0 0 0 0 0 0 0 0 0 0 0 0 0 0 0 0 0 0 0 0 0 0 0 0 0 0 0 0 0 0 0 0 0 0 0 0 0 0 0 0 0 0
				</DataArray>
				<DataArray Name="F2" type="Float32" format="ascii">
 0 0 0 0 0 0 0 0 0 0 0 0 0 0 0 0 0 0 0 0 0 0 0 0 0 0 0 0 0 0 0 0 0 0 0 0 0 0 0 0 0 0 0 0 0 0 0 0 0 0 0 0 0 0 0 0 0 0 0 0 0 0 0 0 0 0 0 0 0 0 0 0 0 0 0 0 0 0 0 0 0 0 0 0 0 0 0 0 0 0 0 0 0 0 0 0 0 0 0 0 0 0 0 0 0 0 0 0 0 0 0 0 0 0 0 0 0 0 0 0 0 0 0 0 0 0 0 0 0 0 0 0 0 0 0 0 0 0 0 0 0 0 0 0 0 0 0 0 0 0 0 0 0 0 0 0 0 0 0 0 0 0 0 0 0 0 0 0 0 0 0 0 0 0 0 0 0 0 0 0 0 0 0 0 0 0 0 0 0 0 0 0 0 0 0 0 0 0 0 0 0 0 0 0 0 0 0 0 0 0 0 0 0 0 0 0 0 0 0 0 0 0 0 0 0 0 0 0 0 0 0 0 0 0 0 0 0 0 0 0 0 0 0 0 0 0 0 0 0 0 0 0 0 0 0 0 0 0 0 0 0 0 0 0 0 0 0 0 0 0 0 0 0 0 0 0 0 0 0 0 0 0 0 0 0 0 0 0 0 0 0 0 0 0 0 0 0 0 0 0 0 0 0 0 0 0 0 0 0 0 0 0 0 0 0 0 0 0 0 0 0 0 0 0 0 0 0 0 0 0 0 0 0 0 0 0 0 0 0 0 0 0 0 0 0 0 0 0 0 0 0 0 0 0 0 0 0 0 0 0 0 0 0 0 0 0 0 0 0 0 0 0 0 0 0 0 0 0 0 0 0 0 0 0 0 0 0 0 0 0 0 0 0 0 0 0 0 0 0 0 0 0 0 0 0 0 0 0 0 0 0 0 0 0 0 0 0 0 0 0 0 0 0 0 0 0 0 0 0 0 0 0 0 0 0 0 0 0 0 0 0 0 0 0 0 0 0 0 0 0 0 0 0 0 0 0 0 0 0 0 0 0 0 0 0 0 0 0 0 0 0 0 0 0 0 0 0 0 0 0 0 0 0 0 0 0 0 0 0 0 0 0 0 0 0 0 0 0 0 0 0 0 0 0 0 0 0 0 0 0 0 0 0 0 0 0 0 0 0 0 0 0 0 0 0 0 0 0 0 0 0 0 0 0 0 0 0 0 0 0 0 0 0 0 0 0 0 0 0 0 0 0 0 0 0 0 0 0 0 0 0 0 0 0 0 0 0 0 0 0 0 0 0 0 0 0 0 0 0 0 0 0 0 0 0 0 0 0 0 0 0 0 0 0 0 0 0 0 0 0 0 0 0 0 0 0 0 0 0 0 0 0 0 0 0 0 0 0 0 0 0 0 0 0 0 0 0 0 0 0 0 0 0 0 0 0 0 0 0 0 0 0 0 0 0 0 0 0 0 0 0 0 0 0 0 0 0 0 0 0 0 4.02425e-14 0 0 2.43819e-15 0.142167 0.140217 0.138411 0.139471 0.141945 0.640471 0.638248 0.636296 0.63747 0.640148 0.988185 0.987616 0.987113 0.987421 0.988095 1 1 1 1 1 1 1 1 1 1 1 1 1 1 1 1 1 1 1 1 1 1 1 1 1 1 1 1 1 1 1 1 1 1 1 1 1 1 1 1 1 1 1 1 1 1 1 1 1 1 1 1 1 1 1 1 1 1 1 1 1 1 1 1 1 1 1 1 1 1 1 1 1 1 1 1 1 1 1 1 1 1 1 1 1 1 1 1 1 1 1 1 1 1 1 1 1 1 1 1 1 1 1 1 1 1 1 1 1 1 1 1 1 1 1 1 1 1 1 1 1 1 1 1 1 1 1 1 1 1 1 1 1 1 1 1 1 1 1 1 1 1 1 1 1 1 1 1 1 1 1 1 1 1 1 1 1 1 1 1 1 1 1 1 1 1 1 1 1 1 1 1 1 1 1 1 1 1 1 1 1 1 1 1 1 1 1 1 1 1 1 1 1 1 1 1 1 1 1 1 1 1 1 1 1 1 1 1 1 1 1 1 1 1 1 1 1 1 1 1 1 1 1 1 1 1 1 1 1 1 1 1 1 1 1 1 1 1 1 1 1 1 1 1 1 1 1 1 1 1 1 1 1 1 1 1 1 1 1 1 1 1 1 1 1 1 1 1 1 1 1 1 1 1 1 1 1 1 1 1 1 1 1 1 1 1 1 1 1 1 1 1 1 1 1 1 1 1 1 1 1 1 1 1 1 1 1 1 1 1 1 1 1 1 1 1 1 1 1 1
				</DataArray>
				<DataArray Name="F3" type="Float32" format="ascii">