<?xml version="1.0"?>
<VTKFile type="PolyData">
	<PolyData>
		<Piece NumberOfPoints="1206" NumberOfPolys="1000">
			<Points>
				<DataArray type="Float32" NumberOfComponents="3" format="ascii">
 0 0 0 0.02 0 0 0.04 0 0 0.06 0 0 0.08 0 0 0.1 0 0 0 0.005 0 0.02 0.005 0 0.04 0.005 0 0.06 0.005 0 0.08 0.005 0 0.1 0.005 0 0 0.01 0 0.02 0.01 0 0.04 0.01 0 0.06 0.01 0 0.08 0.01 0 0.1 0.01 0 0 0.015 0 0.02 0.015 0 0.04 0.015 0 0.06 0.015 0 0.08 0.015 0 0.1 0.015 0 0 0.02 0 0.02 0.02 0 0.04 0.02 0 0.06 0.02 0 0.08 0.02 0 0.1 0.02 0 0 0.025 0 0.02 0.025 0 0.04 0.025 0 0.06 0.025 0 0.08 0.025 0 0.1 0.025 0 0 0.03 0 0.02 0.03 0 0.04 0.03 0 0.06 0.03 0 0.08 0.03 0 0.1 0.03 0 0 0.035 0 0.02 0.035 0 0.04 0.035 0 0.06 0.035 0 0.08 0.035 0 0.1 0.035 0 0 0.04 0 0.02 0.04 0 0.04 0.04 0 0.06 0.04 0 0.08 0.04 0 0.1 0.04 0 0 0.045 0 0.02 0.045 0 0.04 0.045 0 0.06 0.045 0 0.08 0.045 0 0.1 0.045 0 0 0.05 0 0.02 0.05 0 0.04 0.05 0 0.06 0.05 0 0.08 0.05 0 0.1 0.05 0 0 0.055 0 0.02 0.055 0 0.04 0.055 0 0.06 0.055 0 0.08 0.055 0 0.1 0.055 0 0 0.06 0 0.02 0.06 0 0.04 0.06 0 0.06 0.06 0 0.08 0.06 0 0.1 0.06 0 0 0.065 0 0.02 0.065 0 0.04 0.065 0 0.06 0.065 0 0.08 0.065 0 0.1 0.065 0 0 0.07 0 0.02 0.07 0 0.04 0.07 0 0.06 0.07 0 0.08 0.07 0 0.1 0.07 0 0 0.075 0 0.02 0.075 0 0.04 0.075 0 0.06 0.075 0 0.08 0.075 0 0.1 0.075 0 0 0.08 0 0.02 0.08 0 0.04 0.08 0 0.06 0.08 0 0.08 0.08 0 0.1 0.08 0 0 0.085 0 0.02 0.085 0 0.04 0.085 0 0.06 0.085 0 0.08 0.085 0 0.1 0.085 0 0 0.09 0 0.02 0.09 0 0.04 0.09 0 0.06 0.09 0 0.08 0.09 0 0.1 0.09 0 0 0.095 0 0.02 0.095 0 0.04 0.095 0 0.06 0.095 0 0.08 0.095 0 0.1 0.095 0 0 0.1 0 0.02 0.1 0 0.04 0.1 0 0.06 0.1 0 0.08 0.1 0 0.1 0.1 0 0 0.105 0 0.02 0.105 0 0.04 0.105 0 0.06 0.105 0 0.08 0.105 0 0.1 0.105 0 0 0.11 0 0.02 0.11 0 0.04 0.11 0 0.06 0.11 0 0.08 0.11 0 0.1 0.11 0 0 0.115 0 0.02 0.115 0 0.04 0.115 0 0.06 0.115 0 0.08 0.115 0 0.1 0.115 0 0 0.12 0 0.02 0.12 0 0.04 0.12 0 0.06 0.12 0 0.08 0.12 0 0.1 0.12 0 0 0.125 0 0.02 0.125 0 0.04 0.125 0 0.06 0.125 0 0.08 0.125 0 0.1 0.125 0 0 0.13 0 0.02 0.13 0 0.04 0.13 0 0.06 0.13 0 0.08 0.13 0 0.1 0.13 0 0 0.135 0 0.02 0.135 0 0.04 0.135 0 0.06 0.135 0 0.08 0.135 0 0.1 0.135 0 0 0.14 0 0.02 0.14 0 0.04 0.14 0 0.06 0.14 0 0.08 0.14 0 0.1 0.14 0 0 0.145 0 0.02 0.145 0 0.04 0.145 0 0.06 0.145 0 0.08 0.145 0 0.1 0.145 0 0 0.15 0 0.02 0.15 0 0.04 0.15 0 0.06 0.15 0 0.08 0.15 0 0.1 0.15 0 0 0.155 0 0.02 0.155 0 0.04 0.155 0 0.06 0.155 0 0.08 0.155 0 0.1 0.155 0 0 0.16 0 0.02 0.16 0 0.04 0.16 0 0.06 0.16 0 0.08 0.16 0 0.1 0.16 0 0 0.165 0 0.02 0.165 0 0.04 0.165 0 0.06 0.165 0 0.08 0.165 0 0.1 0.165 0 0 0.17 0 0.02 0.17 0 0.04 0.17 0 0.06 0.17 0 0.08 0.17 0 0.1 0.17 0 0 0.175 0 0.02 0.175 0 0.04 0.175 0 0.06 0.175 0 0.08 0.175 0 0.1 0.175 0 0 0.18 0 0.02 0.18 0 0.04 0.18 0 0.06 0.18 0 0.08 0.18 0 0.1 0.18 0 0 0.185 0 0.02 0.185 0 0.04 0.185 0 0.06 0.185 0 0.08 0.185 0 0.1 0.185 0 0 0.19 0 0.02 0.19 0 0.04 0.19 0 0.06 0.19 0 0.08 0.19 0 0.1 0.19 0 0 0.195 0 0.02 0.195 0 0.04 0.195 0 0.06 0.195 0 0.08 0.195 0 0.1 0.195 0 0 0.2 0 0.02 0.2 0 0.04 0.2 0 0.06 0.2 0 0.08 0.2 0 0.1 0.2 0 0 0.205 0 0.02 0.205 0 0.04 0.205 0 0.06 0.205 0 0.08 0.205 0 0.1 0.205 0 0 0.21 0 0.02 0.21 0 0.04 0.21 0 0.06 0.21 0 0.08 0.21 0 0.1 0.21 0 0 0.215 0 0.02 0.215 0 0.04 0.215 0 0.06 0.215 0 0.08 0.215 0 0.1 0.215 0 0 0.22 0 0.02 0.22 0 0.04 0.22 0 0.06 0.22 0 0.08 0.22 0 0.1 0.22 0 0 0.225 0 0.02 0.225 0 0.04 0.225 0 0.06 0.225 0 0.08 0.225 0 0.1 0.225 0 0 0.23 0 0.02 0.23 0 0.04 0.23 0 0.06 0.23 0 0.08 0.23 0 0.1 0.23 0 0 0.235 0 0.02 0.235 0 0.04 0.235 0 0.06 0.235 0 0.08 0.235 0 0.1 0.235 0 0 0.24 0 0.02 0.24 0 0.04 0.24 0 0.06 0.24 0 0.08 0.24 0 0.1 0.24 0 0 0.245 0 0.02 0.245 0 0.04 0.245 0 0.06 0.245 0 0.08 0.245 0 0.1 0.245 0 0 0.25 0 0.02 0.25 0 0.04 0.25 0 0.06 0.25 0 0.08 0.25 0 0.1 0.25 0 0 0.255 0 0.02 0.255 0 0.04 0.255 0 0.06 0.255 0 0.08 0.255 0 0.1 0.255 0 0 0.26 0 0.02 0.26 0 0.04 0.26 0 0.06 0.26 0 0.08 0.26 0 0.1 0.26 0 0 0.265 0 0.02 0.265 0 0.04 0.265 0 0.06 0.265 0 0.08 0.265 0 0.1 0.265 0 0 0.27 0 0.02 0.27 0 0.04 0.27 0 0.06 0.27 0 0.08 0.27 0 0.1 0.27 0 0 0.275 0 0.02 0.275 0 0.04 0.275 0 0.06 0.275 0 0.08 0.275 0 0.1 0.275 0 0 0.28 0 0.02 0.28 0 0.04 0.28 0 0.06 0.28 0 0.08 0.28 0 0.1 0.28 0 0 0.285 0 0.02 0.285 0 0.04 0.285 0 0.06 0.285 0 0.08 0.285 0 0.1 0.285 0 0 0.29 0 0.02 0.29 0 0.04 0.29 0 0.06 0.29 0 0.08 0.29 0 0.1 0.29 0 0 0.295 0 0.02 0.295 0 0.04 0.295 0 0.06 0.295 0 0.08 0.295 0 0.1 0.295 0 0 0.3 0 0.02 0.3 0 0.04 0.3 0 0.06 0.3 0 0.08 0.3 0 0.1 0.3 0 0 0.305 0 0.02 0.305 0 0.04 0.305 0 0.06 0.305 0 0.08 0.305 0 0.1 0.305 0 0 0.31 0 0.02 0.31 0 0.04 0.31 0 0.06 0.31 0 0.08 0.31 0 0.1 0.31 0 0 0.315 0 0.02 0.315 0 0.04 0.315 0 0.06 0.315 0 0.08 0.315 0 0.1 0.315 0 0 0.32 0 0.02 0.32 0 0.04 0.32 0 0.06 0.32 0 0.08 0.32 0 0.1 0.32 0 0 0.325 0 0.02 0.325 0 0.04 0.325 0 0.06 0.325 0 0.08 0.325 0 0.1 0.325 0 0 0.33 0 0.02 0.33 0 0.04 0.33 0 0.06 0.33 0 0.08 0.33 0 0.1 0.33 0 0 0.335 0 0.02 0.335 0 0.04 0.335 0 0.06 0.335 0 0.08 0.335 0 0.1 0.335 0 0 0.34 0 0.02 0.34 0 0.04 0.34 0 0.06 0.34 0 0.08 0.34 0 0.1 0.34 0 0 0.345 0 0.02 0.345 0 0.04 0.345 0 0.06 0.345 0 0.08 0.345 0 0.1 0.345 0 0 0.35 0 0.02 0.35 0 0.04 0.35 0 0.06 0.35 0 0.08 0.35 0 0.1 0.35 0 0 0.355 0 0.02 0.355 0 0.04 0.355 0 0.06 0.355 0 0.08 0.355 0 0.1 0.355 0 0 0.36 0 0.02 0.36 0 0.04 0.36 0 0.06 0.36 0 0.08 0.36 0 0.1 0.36 0 0 0.365 0 0.02 0.365 0 0.04 0.365 0 0.06 0.365 0 0.08 0.365 0 0.1 0.365 0 0 0.37 0 0.02 0.37 0 0.04 0.37 0 0.06 0.37 0 0.08 0.37 0 0.1 0.37 0 0 0.375 0 0.02 0.375 0 0.04 0.375 0 0.06 0.375 0 0.08 0.375 0 0.1 0.375 0 0 0.38 0 0.02 0.38 0 0.04 0.38 0 0.06 0.38 0 0.08 0.38 0 0.1 0.38 0 0 0.385 0 0.02 0.385 0 0.04 0.385 0 0.06 0.385 0 0.08 0.385 0 0.1 0.385 0 0 0.39 0 0.02 0.39 0 0.04 0.39 0 0.06 0.39 0 0.08 0.39 0 0.1 0.39 0 0 0.395 0 0.02 0.395 0 0.04 0.395 0 0.06 0.395 0 0.08 0.395 0 0.1 0.395 0 0 0.4 0 0.02 0.4 0 0.04 0.4 0 0.06 0.4 0 0.08 0.4 0 0.1 0.4 0 0 0.405 0 0.02 0.405 0 0.04 0.405 0 0.06 0.405 0 0.08 0.405 0 0.1 0.405 0 0 0.41 0 0.02 0.41 0 0.04 0.41 0 0.06 0.41 0 0.08 0.41 0 0.1 0.41 0 0 0.415 0 0.02 0.415 0 0.04 0.415 0 0.06 0.415 0 0.08 0.415 0 0.1 0.415 0 0 0.42 0 0.02 0.42 0 0.04 0.42 0 0.06 0.42 0 0.08 0.42 0 0.1 0.42 0 0 0.425 0 0.02 0.425 0 0.04 0.425 0 0.06 0.425 0 0.08 0.425 0 0.1 0.425 0 0 0.43 0 0.02 0.43 0 0.04 0.43 0 0.06 0.43 0 0.08 0.43 0 0.1 0.43 0 0 0.435 0 0.02 0.435 0 0.04 0.435 0 0.06 0.435 0 0.08 0.435 0 0.1 0.435 0 0 0.44 0 0.02 0.44 0 0.04 0.44 0 0.06 0.44 0 0.08 0.44 0 0.1 0.44 0 0 0.445 0 0.02 0.445 0 0.04 0.445 0 0.06 0.445 0 0.08 0.445 0 0.1 0.445 0 0 0.45 0 0.02 0.45 0 0.04 0.45 0 0.06 0.45 0 0.08 0.45 0 0.1 0.45 0 0 0.455 0 0.02 0.455 0 0.04 0.455 0 0.06 0.455 0 0.08 0.455 0 0.1 0.455 0 0 0.46 0 0.02 0.46 0 0.04 0.46 0 0.06 0.46 0 0.08 0.46 0 0.1 0.46 0 0 0.465 0 0.02 0.465 0 0.04 0.465 0 0.06 0.465 0 0.08 0.465 0 0.1 0.465 0 0 0.47 0 0.02 0.47 0 0.04 0.47 0 0.06 0.47 0 0.08 0.47 0 0.1 0.47 0 0 0.475 0 0.02 0.475 0 0.04 0.475 0 0.06 0.475 0 0.08 0.475 0 0.1 0.475 0 0 0.48 0 0.02 0.48 0 0.04 0.48 0 0.06 0.48 0 0.08 0.48 0 0.1 0.48 0 0 0.485 0 0.02 0.485 0 0.04 0.485 0 0.06 0.485 0 0.08 0.485 0 0.1 0.485 0 0 0.49 0 0.02 0.49 0 0.04 0.49 0 0.06 0.49 0 0.08 0.49 0 0.1 0.49 0 0 0.495 0 0.02 0.495 0 0.04 0.495 0 0.06 0.495 0 0.08 0.495 0 0.1 0.495 0 0 0.5 0 0.02 0.5 0 0.04 0.5 0 0.06 0.5 0 0.08 0.5 0 0.1 0.5 0 0 0.505 0 0.02 0.505 0 0.04 0.505 0 0.06 0.505 0 0.08 0.505 0 0.1 0.505 0 0 0.51 0 0.02 0.51 0 0.04 0.51 0 0.06 0.51 0 0.08 0.51 0 0.1 0.51 0 0 0.515 0 0.02 0.515 0 0.04 0.515 0 0.06 0.515 0 0.08 0.515 0 0.1 0.515 0 0 0.52 0 0.02 0.52 0 0.04 0.52 0 0.06 0.52 0 0.08 0.52 0 0.1 0.52 0 0 0.525 0 0.02 0.525 0 0.04 0.525 0 0.06 0.525 0 0.08 0.525 0 0.1 0.525 0 0 0.53 0 0.02 0.53 0 0.04 0.53 0 0.06 0.53 0 0.08 0.53 0 0.1 0.53 0 0 0.535 0 0.02 0.535 0 0.04 0.535 0 0.06 0.535 0 0.08 0.535 0 0.1 0.535 0 0 0.54 0 0.02 0.54 0 0.04 0.54 0 0.06 0.54 0 0.08 0.54 0 0.1 0.54 0 0 0.545 0 0.02 0.545 0 0.04 0.545 0 0.06 0.545 0 0.08 0.545 0 0.1 0.545 0 0 0.55 0 0.02 0.55 0 0.04 0.55 0 0.06 0.55 0 0.08 0.55 0 0.1 0.55 0 0 0.555 0 0.02 0.555 0 0.04 0.555 0 0.06 0.555 0 0.08 0.555 0 0.1 0.555 0 0 0.56 0 0.02 0.56 0 0.04 0.56 0 0.06 0.56 0 0.08 0.56 0 0.1 0.56 0 0 0.565 0 0.02 0.565 0 0.04 0.565 0 0.06 0.565 0 0.08 0.565 0 0.1 0.565 0 0 0.57 0 0.02 0.57 0 0.04 0.57 0 0.06 0.57 0 0.08 0.57 0 0.1 0.57 0 0 0.575 0 0.02 0.575 0 0.04 0.575 0 0.06 0.575 0 0.08 0.575 0 0.1 0.575 0 0 0.58 0 0.02 0.58 0 0.04 0.58 0 0.06 0.58 0 0.08 0.58 0 0.1 0.58 0 0 0.585 0 0.02 0.585 0 0.04 0.585 0 0.06 0.585 0 0.08 0.585 0 0.1 0.585 0 0 0.59 0 0.02 0.59 0 0.04 0.59 0 0.06 0.59 0 0.08 0.59 0 0.1 0.59 0 0 0.595 0 0.02 0.595 0 0.04 0.595 0 0.06 0.595 0 0.08 0.595 0 0.1 0.595 0 0 0.6 0 0.02 0.6 0 0.04 0.6 0 0.06 0.6 0 0.08 0.6 0 0.1 0.6 0 0 0.605 0 0.02 0.605 0 0.04 0.605 0 0.06 0.605 0 0.08 0.605 0 0.1 0.605 0 0 0.61 0 0.02 0.61 0 0.04 0.61 0 0.06 0.61 0 0.08 0.61 0 0.1 0.61 0 0 0.615 0 0.02 0.615 0 0.04 0.615 0 0.06 0.615 0 0.08 0.615 0 0.1 0.615 0 0 0.62 0 0.02 0.62 0 0.04 0.62 0 0.06 0.62 0 0.08 0.62 0 0.1 0.62 0 0 0.625 0 0.02 0.625 0 0.04 0.625 0 0.06 0.625 0 0.08 0.625 0 0.1 0.625 0 0 0.63 0 0.02 0.63 0 0.04 0.63 0 0.06 0.63 0 0.08 0.63 0 0.1 0.63 0 0 0.635 0 0.02 0.635 0 0.04 0.635 0 0.06 0.635 0 0.08 0.635 0 0.1 0.635 0 0 0.64 0 0.02 0.64 0 0.04 0.64 0 0.06 0.64 0 0.08 0.64 0 0.1 0.64 0 0 0.645 0 0.02 0.645 0 0.04 0.645 0 0.06 0.645 0 0.08 0.645 0 0.1 0.645 0 0 0.65 0 0.02 0.65 0 0.04 0.65 0 0.06 0.65 0 0.08 0.65 0 0.1 0.65 0 0 0.655 0 0.02 0.655 0 0.04 0.655 0 0.06 0.655 0 0.08 0.655 0 0.1 0.655 0 0 0.66 0 0.02 0.66 0 0.04 0.66 0 0.06 0.66 0 0.08 0.66 0 0.1 0.66 0 0 0.665 0 0.02 0.665 0 0.04 0.665 0 0.06 0.665 0 0.08 0.665 0 0.1 0.665 0 0 0.67 0 0.02 0.67 0 0.04 0.67 0 0.06 0.67 0 0.08 0.67 0 0.1 0.67 0 0 0.675 0 0.02 0.675 0 0.04 0.675 0 0.06 0.675 0 0.08 0.675 0 0.1 0.675 0 0 0.68 0 0.02 0.68 0 0.04 0.68 0 0.06 0.68 0 0.08 0.68 0 0.1 0.68 0 0 0.685 0 0.02 0.685 0 0.04 0.685 0 0.06 0.685 0 0.08 0.685 0 0.1 0.685 0 0 0.69 0 0.02 0.69 0 0.04 0.69 0 0.06 0.69 0 0.08 0.69 0 0.1 
[...]
			<CellData Scalars="Density">
				<DataArray Name="Density" type="Float32" format="ascii">
 1 1 1 1 1 1 1 1 1 1 1 1 1 1 1 1 1 1 1 1 1 1 1 1 1 1 1 1 1 1 1 1 1 1 1 1 1 1 1 1 1 1 1 1 1 1 1 1 1 1 1 1 1 1 1 1 1 1 1 1 1 1 1 1 1 1 1 1 1 1 1 1 1 1 1 1 1 1 1 1 1 1 1 1 1 1 1 1 1 1 1 1 1 1 1 1 1 1 1 1 1 1 1 1 1 1 1 1 1 1 1 1 1 1 1 1 1 1 1 1 1 1 1 1 1 1 1 1 1 1 1 1 1 1 1 1 1 1 1 1 1 1 1 1 1 1 1 1 1 1 1 1 1 1 1 1 1 1 1 1 1 1 1 1 1 1 1 1 1 1 1 1 1 1 1 1 1 1 1 1 1 1 1 1 1 1 1 1 1 1 0.999999 0.999999 0.999999 0.999999 0.999999 0.999997 0.999997 0.999997 0.999997 0.999997 0.999992 0.999992 0.999992 0.999992 0.999993 0.999979 0.999979 0.999979 0.999979 0.99998 0.999942 0.999942 0.999943 0.999944 0.999946 0.999848 0.999842 0.999849 0.999855 0.999864 0.999632 0.999605 0.999635 0.999661 0.999687 0.999208 0.999129 0.999218 0.999286 0.999329 0.998454 0.99828 0.998483 0.998598 0.998638 0.99721 0.996901 0.997272 0.997383 0.997386 0.995291 0.994817 0.995335 0.995315 0.995341 0.992503 0.991877 0.992469 0.992191 0.992409 0.988665 0.987896 0.988599 0.98801 0.988522 0.98369 0.982745 0.983628 0.982727 0.983574 0.977564 0.976406 0.97753 0.976327 0.977502 0.97033 0.968937 0.970325 0.968843 0.970306 0.962053 0.960435 0.962069 0.960347 0.962043 0.95278 0.951001 0.952827 0.950926 0.952772 0.942599 0.940733 0.942677 0.940666 0.942581 0.9316 0.929718 0.931708 0.929645 0.931571 0.919899 0.918075 0.920043 0.917976 0.919855 0.907611 0.905904 0.907788 0.905763 0.907548 0.894844 0.893307 0.895054 0.893112 0.894763 0.881698 0.880367 0.881941 0.880119 0.881604 0.868258 0.867157 0.868533 0.866871 0.868164 0.85459 0.853732 0.854902 0.853443 0.854527 0.840735 0.840134 0.841093 0.839885 0.840749 0.826674 0.826374 0.827136 0.826211 0.82672 0.812327 0.812455 0.813128 0.812477 0.812565 0.797976 0.798637 0.799252 0.798663 0.79852 0.783893 0.785089 0.785573 0.784867 0.784716 0.770178 0.771748 0.772013 0.771158 0.77108 0.756837 0.758495 0.758545 0.757598 0.757535 0.743809 0.745259 0.74519 0.744249 0.744056 0.73101 0.732058 0.731995 0.731193 0.730688 0.718351 0.718899 0.718823 0.718436 0.717514 0.705718 0.705707 0.705345 0.705721 0.70475 0.693179 0.692703 0.691798 0.693054 0.692351 0.680803 0.680088 0.678567 0.680566 0.680109 0.668509 0.667796 0.665716 0.668249 0.667941 0.656338 0.65576 0.653283 0.656119 0.655829 0.644313 0.643909 0.641222 0.644186 0.643865 0.632464 0.6322 0.629443 0.632424 0.632065 0.620821 0.620649 0.617905 0.620851 0.620472 0.609395 0.609279 0.606585 0.609475 0.609091 0.598191 0.598113 0.595487 0.598312 0.597926 0.587213 0.587164 0.584629 0.587372 0.586982 0.576463 0.57644 0.574037 0.576658 0.576261 0.565949 0.565952 0.563732 0.566174 0.56577 0.555677 0.555707 0.553733 0.555926 0.555516 0.545653 0.545712 0.544054 0.545922 0.545508 0.535888 0.535979 0.534706 0.536176 0.535756 0.526392 0.526521 0.52569 0.526702 0.526273 0.517194 0.517364 0.517005 0.517529 0.51708 0.508323 0.508485 0.508555 0.508658 0.508211 0.499804 0.499905 0.500285 0.500077 0.49968 0.491665 0.491708 0.492305 0.491849 0.491488 0.483908 0.483904 0.484686 0.484025 0.483583 0.476546 0.476496 0.477457 0.476659 0.476084 0.469591 0.46951 0.470648 0.469758 0.469039 0.463045 0.462982 0.464297 0.463336 0.462498 0.456933 0.456973 0.458452 0.457403 0.456492 0.451282 0.451555 0.453135 0.451973 0.451036 0.446058 0.446799 0.448319 0.447077 0.44614 0.44152 0.442682 0.443949 0.442751 0.441808 0.437701 0.439048 0.439963 0.438993 0.438045 0.43458 0.435865 0.436265 0.435772 0.43487 0.432055 0.433121 0.432888 0.433029 0.432248 0.429964 0.43085 0.43013 0.430738 0.430066 0.4282 0.428984 0.428068 0.428862 0.428241 0.426736 0.427416 0.426523 0.427325 0.426729 0.425556 0.426107 0.425342 0.426069 0.425518 0.424626 0.425051 0.424447 0.425047 0.424578 0.423904 0.424223 0.42379 0.42423 0.42386 0.423346 0.423583 0.423326 0.423589 0.423312 0.422923 0.423079 0.422988 0.423084 0.422895 0.422596 0.422686 0.422726 0.422689 0.422572 0.422332 0.422386 0.422493 0.422396 0.422305 0.422103 0.422144 0.42225 0.422164 0.422073 0.421887 0.42192 0.421987 0.421947 0.421856 0.421652 0.421683 0.421715 0.421709 0.421624 0.421367 0.421396 0.421405 0.421415 0.421339 0.420991 0.421009 0.421006 0.421018 0.420962 0.42046 0.420456 0.42045 0.420456 0.420432 0.419712 0.419682 0.419685 0.419676 0.419683 0.418684 0.418629 0.41865 0.418629 0.418661 0.417324 0.417252 0.417289 0.41726 0.417315 0.415621 0.415535 0.415587 0.415545 0.415622 0.413581 0.413491 0.413549 0.413492 0.413577 0.411245 0.411189 0.411209 0.411181 0.411222 0.408786 0.408676 0.408796 0.408718 0.408727 0.405732 0.406482 0.406022 0.406261 0.406289 0.403905 0.404278 0.403899 0.404142 0.404037 0.402512 0.402396 0.40257 0.402408 0.402225 0.401431 0.401353 0.401409 0.401563 0.401203 0.38136 0.381757 0.381837 0.38181 0.381264 0.312705 0.313079 0.313173 0.313098 0.312672 0.265057 0.265139 0.265157 0.265135 0.265034 0.263679 0.263678 0.263667 0.263669 0.26366 0.264036 0.264029 0.264014 0.264017 0.264016 0.264534 0.264522 0.264511 0.264509 0.264515 0.26514 0.265127 0.26512 0.265117 0.265122 0.265714 0.265702 0.265695 0.265696 0.265697 0.266225 0.266214 0.266206 0.266208 0.266205 0.266651 0.266639 0.266629 0.266633 0.266625 0.266987 0.266977 0.26696 0.266969 0.266956 0.267241 0.267235 0.267209 0.267223 0.267205 0.267425 0.267423 0.26739 0.267406 0.267385 0.267555 0.267555 0.267517 0.267534 0.267509 0.267645 0.267644 0.267603 0.26762 0.267591 0.267706 0.267701 0.267658 0.267675 0.267641 0.267745 0.267736 0.267693 0.267715 0.267672 0.267772 0.26776 0.267717 0.26775 0.26768 0.267799 0.267782 0.26772 0.26778 0.267673 0.267831 0.267804 0.267704 0.267814 0.267658 0.267853 0.267813 0.267663 0.26785 0.26766 0.267856 0.267773 0.267589 0.267825 0.267662 0.267876 0.267671 0.267531 0.267682 0.267686 0.267931 0.26749 0.267526 0.267419 0.267772 0.267943 0.267126 0.267543 0.26694 0.26782 0.267833 0.266518 0.267469 0.266163 0.267732 0.267246 0.265407 0.266769 0.2649 0.267231 0.265583 0.263735 0.265068 0.263142 0.26563 0.261107 0.259901 0.259137 0.259248 0.261369 0.250952 0.252873 0.249171 0.252084 0.251082 0.229579 0.234982 0.229467 0.234918 0.229214 0.20032 0.206001 0.201891 0.207497 0.199288 0.159667 0.162563 0.161655 0.164907 0.159988 0.132309 0.132574 0.132836 0.133291 0.132848 0.126213 0.126257 0.126304 0.126325 0.126303 0.125191 0.125197 0.1252 0.125201 0.1252 0.12503 0.12503 0.12503 0.12503 0.12503 0.125004 0.125005 0.125005 0.125005 0.125005 0.125001 0.125001 0.125001 0.125001 0.125001 0.125 0.125 0.125 0.125 0.125 0.125 0.125 0.125 0.125 0.125 0.125 0.125 0.125 0.125 0.125 0.125 0.125 0.125 0.125 0.125 0.125 0.125 0.125 0.125 0.125 0.125 0.125 0.125 0.125 0.125 0.125 0.125 0.125 0.125 0.125 0.125 0.125 0.125 0.125 0.125 0.125 0.125 0.125 0.125 0.125 0.125 0.125 0.125 0.125 0.125 0.125 0.125 0.125 0.125 0.125 0.125 0.125 0.125 0.125 0.125 0.125 0.125 0.125 0.125 0.125 0.125 0.125 0.125 0.125 0.125 0.125 0.125 0.125 0.125 0.125 0.125 0.125 0.125 0.125 0.125 0.125 0.125 0.125 0.125 0.125 0.125 0.125 0.125 0.125 0.125 0.125 0.125 0.125 0.125 0.125 0.125 0.125 0.125 0.125 0.125 0.125 0.125 0.125 0.125 0.125 0.125 0.125 0.125 0.125 0.125 0.125 0.125 0.125 0.125 0.125 0.125 0.125 0.125 0.125 0.125 0.125 0.125 0.125 0.125 0.125 0.125 0.125 0.125 0.125 0.125 0.125 0.125 0.125 0.125 0.125 0.125 0.125 0.125 0.125 0.125
				</DataArray>
				<DataArray Name="Energy" type="Float32" format="ascii">
 2.5 2.5 2.5 2.5 2.5 2.5 2.5 2.5 2.5 2.5 2.5 2.5 2.5 2.5 2.5 2.5 2.5 2.5 2.5 2.5 2.5 2.5 2.5 2.5 2.5 2.5 2.5 2.5 2.5 2.5 2.5 2.5 2.5 2.5 2.5 2.5 2.5 2.5 2.5 2.5 2.5 2.5 2.5 2.5 2.5 2.5 2.5 2.5 2.5 2.5 2.5 2.5 2.5 2.5 2.5 2.5 2.5 2.5 2.5 2.5 2.5 2.5 2.5 2.5 2.5 2.5 2.5 2.5 2.5 2.5 2.5 2.5 2.5 2.5 2.5 2.5 2.5 2.5 2.5 2.5 2.5 2.5 2.5 2.5 2.5 2.5 2.5 2.5 2.5 2.5 2.5 2.5 2.5 2.5 2.5 2.5 2.5 2.5 2.5 2.5 2.5 2.5 2.5 2.5 2.5 2.5 2.5 2.5 2.5 2.5 2.5 2.5 2.5 2.5 2.5 2.5 2.5 2.5 2.5 2.5 2.5 2.5 2.5 2.5 2.5 2.5 2.5 2.5 2.5 2.5 2.5 2.5 2.5 2.5 2.5 2.5 2.5 2.5 2.5 2.5 2.5 2.5 2.5 2.5 2.5 2.5 2.5 2.5 2.5 2.5 2.5 2.5 2.5 2.5 2.5 2.5 2.5 2.5 2.5 2.5 2.5 2.5 2.5 2.5 2.5 2.5 2.5 2.5 2.5 2.5 2.5 2.5 2.5 2.5 2.5 2.5 2.5 2.5 2.5 2.5 2.5 2.5 2.5 2.5 2.5 2.5 2.5 2.5 2.5 2.5 2.5 2.5 2.5 2.5 2.5 2.5 2.5 2.5 2.5 2.5 2.49999 2.49999 2.49999 2.49999 2.49999 2.49998 2.49998 2.49998 2.49998 2.49998 2.49994 2.49994 2.49994 2.49994 2.49995 2.49985 2.49984 2.49985 2.49986 2.49986 2.49963 2.4996 2.49963 2.49966 2.49969 2.49921 2.49913 2.49922 2.49929 2.49933 2.49845 2.49828 2.49848 2.4986 2.49864 2.49721 2.4969 2.49727 2.49738 2.49738 2.49528 2.49481 2.49533 2.49531 2.49533 2.49249 2.49185 2.49245 2.49217 2.49239 2.48862 2.48784 2.48856 2.48796 2.48848 2.48361 2.48264 2.48354 2.48262 2.48349 2.47741 2.47621 2.47737 2.47613 2.47734 2.47006 2.46861 2.47006 2.46851 2.47003 2.46161 2.45991 2.46163 2.45982 2.46159 2.45209 2.4502 2.45216 2.45012 2.45208 2.44159 2.43957 2.44169 2.4395 2.44156 2.43016 2.42808 2.4303 2.42801 2.43012 2.41792 2.41586 2.41811 2.41576 2.41786 2.40496 2.40299 2.40521 2.40284 2.40488 2.39139 2.38956 2.39169 2.38935 2.39129 2.3773 2.37565 2.37765 2.37539 2.37719 2.36276 2.36133 2.36318 2.36102 2.36265 2.34784 2.34665 2.34833 2.34634 2.34777 2.33257 2.33164 2.33314 2.33137 2.33258 2.31691 2.31631 2.31763 2.31614 2.31695 2.30077 2.30065 2.30192 2.30069 2.30102 2.28446 2.28498 2.28621 2.285 2.28508 2.26832 2.26948 2.27056 2.26918 2.26925 2.25245 2.25405 2.25488 2.25331 2.25344 2.23686 2.23855 2.23912 2.23745 2.23756 2.22145 2.2229 2.22333 2.2217 2.22158 2.20615 2.20712 2.20756 2.20614 2.20556 2.19083 2.19123 2.19161 2.19077 2.18962 2.17538 2.17514 2.17508 2.17526 2.17405 2.15989 2.15914 2.1583 2.15965 2.15876 2.14444 2.14348 2.14177 2.14413 2.14349 2.12895 2.12805 2.12556 2.12866 2.12815 2.11345 2.11276 2.10972 2.11326 2.11272 2.09798 2.09754 2.0942 2.09796 2.09732 2.08258 2.08234 2.07888 2.08271 2.08198 2.06729 2.0672 2.06371 2.06755 2.06675 2.05212 2.05215 2.04866 2.05249 2.05165 2.0371 2.03721 2.03376 2.03756 2.03668 2.02223 2.02241 2.01903 2.02278 2.02185 2.00752 2.00777 2.00452 2.00815 2.00718 1.99299 1.99329 1.99027 1.99369 1.99269 1.97866 1.97901 1.97631 1.97941 1.97837 1.96453 1.96494 1.96267 1.96533 1.96427 1.95064 1.95111 1.94939 1.95148 1.9504 1.937 1.93755 1.93646 1.93789 1.93678 1.92368 1.92429 1.92389 1.92461 1.92346 1.91072 1.91133 1.91153 1.91165 1.91051 1.89818 1.89869 1.89934 1.89902 1.89795 1.88612 1.88655 1.88752 1.88682 1.88578 1.87454 1.8749 1.87617 1.87515 1.87395 1.86348 1.86379 1.86535 1.86412 1.86269 1.85299 1.85326 1.85513 1.85375 1.85209 1.84307 1.84342 1.84557 1.84407 1.84223 1.83378 1.83438 1.83678 1.83512 1.83317 1.8252 1.82629 1.82877 1.82694 1.82497 1.81738 1.81923 1.8215 1.81961 1.81764 1.81073 1.81311 1.81487 1.81319 1.81122 1.80521 1.80772 1.8088 1.80765 1.80572 1.80075 1.80308 1.80326 1.80298 1.80116 1.79718 1.79922 1.79852 1.79912 1.79745 1.79428 1.79613 1.79489 1.796 1.79443 1.79195 1.79364 1.79224 1.79351 1.79202 1.79015 1.79162 1.79031 1.79152 1.79015 1.78884 1.79005 1.78894 1.78999 1.78879 1.78795 1.78891 1.78805 1.78887 1.78788 1.7874 1.78815 1.78758 1.78813 1.78734 1.78714 1.78771 1.78743 1.7877 1.78708 1.78713 1.78753 1.78749 1.78754 1.78708 1.78731 1.78759 1.78772 1.78761 1.78726 1.78765 1.78787 1.78805 1.7879 1.78759 1.78813 1.78833 1.78847 1.78838 1.78808 1.78879 1.78897 1.78904 1.78902 1.78874 1.78966 1.78984 1.78987 1.78989 1.78961 1.79085 1.79103 1.79104 1.79106 1.7908 1.79251 1.79269 1.7927 1.79271 1.79246 1.79483 1.79504 1.79504 1.79503 1.79478 1.79807 1.79835 1.79832 1.79832 1.79802 1.80251 1.80289 1.80283 1.80286 1.80247 1.80839 1.80888 1.80877 1.80886 1.80837 1.81585 1.81641 1.81627 1.81641 1.81586 1.82483 1.82539 1.82527 1.82541 1.82491 1.83504 1.83552 1.83551 1.83556 1.83526 1.84599 1.84626 1.84644 1.84632 1.84634 1.85786 1.85749 1.85793 1.85751 1.8577 1.86775 1.86703 1.86761 1.86712 1.86764 1.87552 1.87473 1.87522 1.87471 1.87554 1.88047 1.87946 1.88 1.87938 1.88033 1.97934 1.97686 1.97678 1.97667 1.97913 2.4138 2.41075 2.41009 2.41051 2.41363 2.84767 2.84666 2.84638 2.84657 2.84757 2.86231 2.86216 2.86223 2.86213 2.86222 2.85829 2.85822 2.85823 2.85817 2.85819 2.85248 2.85246 2.85247 2.85241 2.85239 2.84612 2.8461 2.84613 2.84605 2.84603 2.83995 2.8399 2.83997 2.83985 2.83987 2.83441 2.83433 2.83445 2.83429 2.83433 2.82971 2.82961 2.82978 2.82957 2.82961 2.82592 2.8258 2.82602 2.82576 2.82581 2.82302 2.82287 2.82313 2.82282 2.82289 2.82087 2.8207 2.821 2.82064 2.82073 2.81934 2.81915 2.81948 2.81908 2.81919 2.81829 2.81808 2.81843 2.81799 2.81813 2.81761 2.81734 2.81771 2.81724 2.81741 2.81717 2.81685 2.81723 2.81676 2.81695 2.81691 2.81652 2.81694 2.81647 2.81666 2.81679 2.81634 2.81677 2.81631 2.81645 2.8168 2.81624 2.81667 2.81625 2.81632 2.81685 2.81617 2.81665 2.81629 2.81633 2.8169 2.81599 2.81665 2.81618 2.8164 2.81702 2.81564 2.8168 2.81576 2.81658 2.81732 2.81504 2.81722 2.81493 2.81706 2.81755 2.81386 2.81787 2.81337 2.81755 2.81756 2.81184 2.81851 2.81074 2.8177 2.81621 2.80804 2.81743 2.80634 2.81681 2.81135 2.80235 2.81321 2.80025 2.81222 2.79731 2.78923 2.79467 2.78678 2.79921 2.76202 2.76454 2.75941 2.76139 2.76397 2.67567 2.69434 2.67772 2.69355 2.67582 2.52713 2.55445 2.53626 2.56113 2.52341 2.26687 2.28769 2.28076 2.30284 2.26954 2.05481 2.05735 2.059 2.06313 2.05891 2.0081 2.0084 2.00873 2.0089 2.00873 2.00123 2.00127 2.00129 2.0013 2.00129 2.00019 2.00019 2.00019 2.00019 2.00019 2.00003 2.00003 2.00003 2.00003 2.00003 2 2 2 2 2 2 2 2 2 2 2 2 2 2 2 2 2 2 2 2 2 2 2 2 2 2 2 2 2 2 2 2 2 2 2 2 2 2 2 2 2 2 2 2 2 2 2 2 2 2 2 2 2 2 2 2 2 2 2 2 2 2 2 2 2 2 2 2 2 2 2 2 2 2 2 2 2 2 2 2 2 2 2 2 2 2 2 2 2 2 2 2 2 2 2 2 2 2 2 2 2 2 2 2 2 2 2 2 2 2 2 2 2 2 2 2 2 2 2 2 2 2 2 2 2 2 2 2 2 2 2 2 2 2 2 2 2 2 2 2 2 2 2 2 2
				</DataArray>
				<DataArray Name="F1" type="Float32" format="ascii">
 1 1 1 1 1 1 1 1 1 1 1 1 1 1 1 1 1 1 1 1 1 1 1 1 1 1 1 1 1 1 1 1 1 1 1 1 1 1 1 1 1 1 1 1 1 1 1 1 1 1 1 1 1 1 1 1 1 1 1 1 1 1 1 1 1 1 1 1 1 1 1 1 1 1 1 1 1 1 1 1 1 1 1 1 1 1 1 1 1 1 1 1 1 1 1 1 1 1 1 1 1 1 1 1 1 1 1 1 1 1 1 1 1 1 1 1 1 1 1 1 1 1 1 1 1 1 1 1 1 1 1 1 1 1 1 1 1 1 1 1 1 1 1 1 1 1 1 1 1 1 1 1 1 1 1 1 1 1 1 1 1 1 1 1 1 1 1 1 1 1 1 1 1 1 1 1 1 1 1 1 1 1 1 1 1 1 1 1 1 1 1 1 1 1 1 1 1 1 1 1 1 1 1 1 1 1 1 1 1 1 1 1 1 1 1 1 1 1 1 1 1 1 1 1 1 1 1 1 1 1 1 1 1 1 1 1 1 1 1 1 1 1 1 1 1 1 1 1 1 1 1 1 1 1 1 1 1 1 1 1 1 1 1 1 1 1 1 1 1 1 1 1 1 1 1 1 1 1 1 1 1 1 1 1 1 1 1 1 1 1 1 1 1 1 1 1 1 1 1 1 1 1 1 1 1 1 1 1 1 1 1 1 1 1 1 1 1 1 1 1 1 1 1 1 1 1 1 1 1 1 1 1 1 1 1 1 1 1 1 1 1 1 1 1 1 1 1 1 1 1 1 1 1 1 1 1 1 1 1 1 1 1 1 1 1 1 1 1 1 1 1 1 1 1 1 1 1 1 1 1 1 1 1 1 1 1 1 1 1 1 1 1 1 1 1 1 1 1 1 1 1 1 1 1 1 1 1 1 1 1 1 1 1 1 1 1 1 1 1 1 1 1 1 1 1 1 1 1 1 1 1 1 1 1 1 1 1 1 1 1 1 1 1 1 1 1 1 1 1 1 1 1 1 1 1 1 1 1 1 1 1 1 1 1 1 1 1 1 1 1 1 1 1 1 1 1 1 1 1 1 1 1 1 1 1 1 1 1 1 1 1 1 1 1 1 1 1 1 1 1 1 1 1 1 1 1 1 1 1 1 1 1 1 1 1 1 1 1 1 1 1 1 1 1 1 1 1 1 1 1 1 1 1 1 1 1 1 1 1 1 1 1 1 1 1 1 1 1 1 1 1 1 1 1 1 1 1 1 1 1 1 1 1 1 1 1 1 1 1 1 1 1 1 1 1 1 1 1 1 1 1 1 1 1 1 1 1 1 1 1 1 1 1 1 1 1 1 1 1 1 1 1 1 1 1 1 1 1 1 1 1 1 1 1 1 1 1 1 1 1 1 1 1 1 1 1 1 1 1 1 1 1 1 1 1 1 1 1 1 1 1 1 1 1 1 1 1 1 1 1 1 1 1 1 1 1 1 1 1 1 1 1 1 1 1 0.858226 0.860135 0.861047 0.860259 0.858114 0.359882 0.362005 0.363002 0.362159 0.35981 0.0118906 0.0124296 0.0126871 0.0124717 0.0118794 2.68769e-11 3.26338e-11 3.40185e-11 4.17765e-11 2.28171e-11 0 0 0 0 0 0 0 0 0 0 0 0 0 0 0 0 0 0 0 0 0 0 0 0 0 0 0 0 0 0 0 0 0 0 0 0 0 0 0 0 0 0 0 0 0 0 0 0 0 0 0 0 0 0 0 0 0 0 0 0 0 0 0 0 0 0 0 0 0 0 0 0 0 0 0 0 0 0 0 0 0 0 0 0 0 0 0 0 0 0 0 0 0 0 0 0 0 0 0 0 0 0 0 0 0 0 0 0 0 0 0 0 0 0 0 0 0 0 0 0 0 0 0 0 0 0 0 0 0 0 0 0 0 0 0 0 0 0 0 0 0 0 0 0 0 0 0 0 0 0 0 0 0 0 0 0 0 0 0 0 0 0 0 0 0 0 0 0 0 0 0 0 0 0 0 0 0 0 0 0 0 0 0 0 0 0 0 0 0 0 0 0 0 0 0 0 0 0 0 0 0 0 0 0 0 0 0 0 0 0 0 0 0 0 0 0 0 0 0 0 0 0 0 0 0 0 0 0 0 0 0 0 0 0 0 0 0 0 0 0 0 0 0 0 0 0 0 0 0 0 0 0 0 0 0 0 0 0 0 0 0 0 0 0 0 0 0 0 0 0 0 0 0 0 0 0 0 0 0 0 0 0 0 0 0 0 0 0 0 0 0 0 0 0 0 0 0 0 0 0 0 0 0 0 0 0 0 0 0 0 0 0 0 0 0
				</DataArray>
				<DataArray Name="F2" type="Float32" format="ascii">
 0 0 0 0 0 0 0 0 0 0 0 0 0 0 0 0 0 0 0 0 0 0 0 0 0 0 0 0 0 0 0 0 0 0 0 0 0 0 0 0 0 0 0 0 0 0 0 0 0 0 0 0 0 0 0 0 0 0 0 0 0 0 0 0 0 0 0 0 0 0 0 0 0 0 0 0 0 0 0 0 0 0 0 0 0 0 0 0 0 0 0 0 0 0 0 0 0 0 0 0 0 0 0 0 0 0 0 0 0 0 0 0 0 0 0 0 0 0 0 0 0 0 0 0 0 0 0 0 0 0 0 0 0 0 0 0 0 0 0 0 0 0 0 0 0 0 0 0 0 0 0 0 0 0 0 0 0 0 0 0 0 0 0 0 0 0 0 0 0 0 0 0 0 0 0 0 0 0 0 0 0 0 0 0 0 0 0 0 0 0 0 0 0 0 0 0 0 0 0 0 0 0 0 0 0 0 0 0 0 0 0 0 0 0 0 0 0 0 0 0 0 0 0 0 0 0 0 0 0 0 0 0 0 0 0 0 0 0 0 0 0 0 0 0 0 0 0 0 0 0 0 0 0 0 0 0 0 0 0 0 0 0 0 0 0 0 0 0 0 0 0 0 0 0 0 0 0 0 0 0 0 0 0 0 0 0 0 0 0 0 0 0 0 0 0 0 0 0 0 0 0 0 0 0 0 0 0 0 0 0 0 0 0 0 0 0 0 0 0 0 0 0 0 0 0 0 0 0 0 0 0 0 0 0 0 0 0 0 0 0 0 0 0 0 0 0 0 0 0 0 0 0 0 0 0 0 0 0 0 0 0 0 0 0 0 0 0 0 0 0 0 0 0 0 0 0 0 0 0 0 0 0 0 0 0 0 0 0 0 0 0 0 0 0 0 0 0 0 0 0 0 0 0 0 0 0 0 0 0 0 0 0 0 0 0 0 0 0 0 0 0 0 0 0 0 0 0 0 0 0 0 0 0 0 0 0 0 0 0 0 0 0 0 0 0 0 0 0 0 0 0 0 0 0 0 0 0 0 0 0 0 0 0 0 0 0 0 0 0 0 0 0 0 0 0 0 0 0 0 0 0 0 0 0 0 0 0 0 0 0 0 0 0 0 0 0 0 0 0 0 0 0 0 0 0 0 0 0 0 0 0 0 0 0 0 0 0 0 0 0 0 0 0 0 0 0 0 0 0 0 0 0 0 0 0 0 0 0 0 0 0 0 0 0 0 0 0 0 0 0 0 0 0 0 0 0 0 0 0 0 0 0 0 0 0 0 0 0 0 0 0 0 0 0 0 0 0 0 0 0 0 0 0 0 0 0 0 0 0 0 0 0 0 0 0 0 0 0 0 0 0 0 0 0 0 0 0 0 0 0 0 0 0 0 0 0 0 0 0 0 0 0 0 0 0 0 0 0 0 0 0 0 0 0 0 0 0 0 0 0 0 0 0 0 0 0 0 0 0 0 2.04505e-16 0 0 0 0 0 0 0 0 0 0 0 0 0 0 0.141774 0.139865 0.138953 0.139741 0.141886 0.640118 0.637995 0.636998 0.637841 0.64019 0.988109 0.98757 0.987313 0.987528 0.988121 1 1 1 1 1 1 1 1 1 1 1 1 1 1 1 1 1 1 1 1 1 1 1 1 1 1 1 1 1 1 1 1 1 1 1 1 1 1 1 1 1 1 1 1 1 1 1 1 1 1 1 1 1 1 1 1 1 1 1 1 1 1 1 1 1 1 1 1 1 1 1 1 1 1 1 1 1 1 1 1 1 1 1 1 1 1 1 1 1 1 1 1 1 1 1 1 1 1 1 1 1 1 1 1 1 1 1 1 1 1 1 1 1 1 1 1 1 1 1 1 1 1 1 1 1 1 1 1 1 1 1 1 1 1 1 1 1 1 1 1 1 1 1 1 1 1 1 1 1 1 1 1 1 1 1 1 1 1 1 1 1 1 1 1 1 1 1 1 1 1 1 1 1 1 1 1 1 1 1 1 1 1 1 1 1 1 1 1 1 1 1 1 1 1 1 1 1 1 1 1 1 1 1 1 1 1 1 1 1 1 1 1 1 1 1 1 1 1 1 1 1 1 1 1 1 1 1 1 1 1 1 1 1 1 1 1 1 1 1 1 1 1 1 1 1 1 1 1 1 1 1 1 1 1 1 1 1 1 1 1 1 1 1 1 1 1 1 1 1 1 1 1 1 1 1 1 1 1 1 1 1 1 1 1 1 1 1 1 1 1 1 1 1 1 1 1 1 1 1 1 1 1 1 1 1 1 1 1 1 1 1 1 1 1 1 1 1 1 1 1
				</DataArray>
				<DataArray Name="F3" type="Float32" format="ascii">