<?xml version="1.0"?>
<VTKFile type="PolyData">
	<PolyData>
		<Piece NumberOfPoints="2601" NumberOfPolys="2500">
			<Points>
				<DataArray type="Float32" NumberOfComponents="3" format="ascii">
 0 0 0 0.02 0 0 0.04 0 0 0.06 0 0 0.08 0 0 0.1 0 0 0.12 0 0 0.14 0 0 0.16 0 0 0.18 0 0 0.2 0 0 0.22 0 0 0.24 0 0 0.26 0 0 0.28 0 0 0.3 0 0 0.32 0 0 0.34 0 0 0.36 0 0 0.38 0 0 0.4 0 0 0.42 0 0 0.44 0 0 0.46 0 0 0.48 0 0 0.5 0 0 0.52 0 0 0.54 0 0 0.56 0 0 0.58 0 0 0.6 0 0 0.62 0 0 0.64 0 0 0.66 0 0 0.68 0 0 0.7 0 0 0.72 0 0 0.74 0 0 0.76 0 0 0.78 0 0 0.8 0 0 0.82 0 0 0.84 0 0 0.86 0 0 0.88 0 0 0.9 0 0 0.92 0 0 0.94 0 0 0.96 0 0 0.98 0 0 1 0 0 0 0.02 0 0.02 0.02 0 0.04 0.02 0 0.06 0.02 0 0.08 0.02 0 0.1 0.02 0 0.12 0.02 0 0.14 0.02 0 0.16 0.02 0 0.18 0.02 0 0.2 0.02 0 0.22 0.02 0 0.24 0.02 0 0.26 0.02 0 0.28 0.02 0 0.3 0.02 0 0.32 0.02 0 0.34 0.02 0 0.36 0.02 0 0.38 0.02 0 0.4 0.02 0 0.42 0.02 0 0.44 0.02 0 0.46 0.02 0 0.48 0.02 0 0.5 0.02 0 0.52 0.02 0 0.54 0.02 0 0.56 0.02 0 0.58 0.02 0 0.6 0.02 0 0.62 0.02 0 0.64 0.02 0 0.66 0.02 0 0.68 0.02 0 0.7 0.02 0 0.72 0.02 0 0.74 0.02 0 0.76 0.02 0 0.78 0.02 0 0.8 0.02 0 0.82 0.02 0 0.84 0.02 0 0.86 0.02 0 0.88 0.02 0 0.9 0.02 0 0.92 0.02 0 0.94 0.02 0 0.96 0.02 0 0.98 0.02 0 1 0.02 0 0 0.04 0 0.02 0.04 0 0.04 0.04 0 0.06 0.04 0 0.08 0.04 0 0.1 0.04 0 0.12 0.04 0 0.14 0.04 0 0.16 0.04 0 0.18 0.04 0 0.2 0.04 0 0.22 0.04 0 0.24 0.04 0 0.26 0.04 0 0.28 0.04 0 0.3 0.04 0 0.32 0.04 0 0.34 0.04 0 0.36 0.04 0 0.38 0.04 0 0.4 0.04 0 0.42 0.04 0 0.44 0.04 0 0.46 0.04 0 0.48 0.04 0 0.5 0.04 0 0.52 0.04 0 0.54 0.04 0 0.56 0.04 0 0.58 0.04 0 0.6 0.04 0 0.62 0.04 0 0.64 0.04 0 0.66 0.04 0 0.68 0.04 0 0.7 0.04 0 0.72 0.04 0 0.74 0.04 0 0.76 0.04 0 0.78 0.04 0 0.8 0.04 0 0.82 0.04 0 0.84 0.04 0 0.86 0.04 0 0.88 0.04 0 0.9 0.04 0 0.92 0.04 0 0.94 0.04 0 0.96 0.04 0 0.98 0.04 0 1 0.04 0 0 0.06 0 0.02 0.06 0 0.04 0.06 0 0.06 0.06 0 0.08 0.06 0 0.1 0.06 0 0.12 0.06 0 0.14 0.06 0 0.16 0.06 0 0.18 0.06 0 0.2 0.06 0 0.22 0.06 0 0.24 0.06 0 0.26 0.06 0 0.28 0.06 0 0.3 0.06 0 0.32 0.06 0 0.34 0.06 0 0.36 0.06 0 0.38 0.06 0 0.4 0.06 0 0.42 0.06 0 0.44 0.06 0 0.46 0.06 0 0.48 0.06 0 0.5 0.06 0 0.52 0.06 0 0.54 0.06 0 0.56 0.06 0 0.58 0.06 0 0.6 0.06 0 0.62 0.06 0 0.64 0.06 0 0.66 0.06 0 0.68 0.06 0 0.7 0.06 0 0.72 0.06 0 0.74 0.06 0 0.76 0.06 0 0.78 0.06 0 0.8 0.06 0 0.82 0.06 0 0.84 0.06 0 0.86 0.06 0 0.88 0.06 0 0.9 0.06 0 0.92 0.06 0 0.94 0.06 0 0.96 0.06 0 0.98 0.06 0 1 0.06 0 0 0.08 0 0.02 0.08 0 0.04 0.08 0 0.06 0.08 0 0.08 0.08 0 0.1 0.08 0 0.12 0.08 0 0.14 0.08 0 0.16 0.08 0 0.18 0.08 0 0.2 0.08 0 0.22 0.08 0 0.24 0.08 0 0.26 0.08 0 0.28 0.08 0 0.3 0.08 0 0.32 0.08 0 0.34 0.08 0 0.36 0.08 0 0.38 0.08 0 0.4 0.08 0 0.42 0.08 0 0.44 0.08 0 0.46 0.08 0 0.48 0.08 0 0.5 0.08 0 0.52 0.08 0 0.54 0.08 0 0.56 0.08 0 0.58 0.08 0 0.6 0.08 0 0.62 0.08 0 0.64 0.08 0 0.66 0.08 0 0.68 0.08 0 0.7 0.08 0 0.72 0.08 0 0.74 0.08 0 0.76 0.08 0 0.78 0.08 0 0.8 0.08 0 0.82 0.08 0 0.84 0.08 0 0.86 0.08 0 0.88 0.08 0 0.9 0.08 0 0.92 0.08 0 0.94 0.08 0 0.96 0.08 0 0.98 0.08 0 1 0.08 0 0 0.1 0 0.02 0.1 0 0.04 0.1 0 0.06 0.1 0 0.08 0.1 0 0.1 0.1 0 0.12 0.1 0 0.14 0.1 0 0.16 0.1 0 0.18 0.1 0 0.2 0.1 0 0.22 0.1 0 0.24 0.1 0 0.26 0.1 0 0.28 0.1 0 0.3 0.1 0 0.32 0.1 0 0.34 0.1 0 0.36 0.1 0 0.38 0.1 0 0.4 0.1 0 0.42 0.1 0 0.44 0.1 0 0.46 0.1 0 0.48 0.1 0 0.5 0.1 0 0.52 0.1 0 0.54 0.1 0 0.56 0.1 0 0.58 0.1 0 0.6 0.1 0 0.62 0.1 0 0.64 0.1 0 0.66 0.1 0 0.68 0.1 0 0.7 0.1 0 0.72 0.1 0 0.74 0.1 0 0.76 0.1 0 0.78 0.1 0 0.8 0.1 0 0.82 0.1 0 0.84 0.1 0 0.86 0.1 0 0.88 0.1 0 0.9 0.1 0 0.92 0.1 0 0.94 0.1 0 0.96 0.1 0 0.98 0.1 0 1 0.1 0 0 0.12 0 0.02 0.12 0 0.04 0.12 0 0.06 0.12 0 0.08 0.12 0 0.1 0.12 0 0.12 0.12 0 0.14 0.12 0 0.16 0.12 0 0.18 0.12 0 0.2 0.12 0 0.22 0.12 0 0.24 0.12 0 0.26 0.12 0 0.28 0.12 0 0.3 0.12 0 0.32 0.12 0 0.34 0.12 0 0.36 0.12 0 0.38 0.12 0 0.4 0.12 0 0.42 0.12 0 0.44 0.12 0 0.46 0.12 0 0.48 0.12 0 0.5 0.12 0 0.52 0.12 0 0.54 0.12 0 0.56 0.12 0 0.58 0.12 0 0.6 0.12 0 0.62 0.12 0 0.64 0.12 0 0.66 0.12 0 0.68 0.12 0 0.7 0.12 0 0.72 0.12 0 0.74 0.12 0 0.76 0.12 0 0.78 0.12 0 0.8 0.12 0 0.82 0.12 0 0.84 0.12 0 0.86 0.12 0 0.88 0.12 0 0.9 0.12 0 0.92 0.12 0 0.94 0.12 0 0.96 0.12 0 0.98 0.12 0 1 0.12 0 0 0.14 0 0.02 0.14 0 0.04 0.14 0 0.06 0.14 0 0.08 0.14 0 0.1 0.14 0 0.12 0.14 0 0.14 0.14 0 0.16 0.14 0 0.18 0.14 0 0.2 0.14 0 0.22 0.14 0 0.24 0.14 0 0.26 0.14 0 0.28 0.14 0 0.3 0.14 0 0.32 0.14 0 0.34 0.14 0 0.36 0.14 0 0.38 0.14 0 0.4 0.14 0 0.42 0.14 0 0.44 0.14 0 0.46 0.14 0 0.48 0.14 0 0.5 0.14 0 0.52 0.14 0 0.54 0.14 0 0.56 0.14 0 0.58 0.14 0 0.6 0.14 0 0.62 0.14 0 0.64 0.14 0 0.66 0.14 0 0.68 0.14 0 0.7 0.14 0 0.72 0.14 0 0.74 0.14 0 0.76 0.14 0 0.78 0.14 0 0.8 0.14 0 0.82 0.14 0 0.84 0.14 0 0.86 0.14 0 0.88 0.14 0 0.9 0.14 0 0.92 0.14 0 0.94 0.14 0 0.96 0.14 0 0.98 0.14 0 1 0.14 0 0 0.16 0 0.02 0.16 0 0.04 0.16 0 0.06 0.16 0 0.08 0.16 0 0.1 0.16 0 0.12 0.16 0 0.14 0.16 0 0.16 0.16 0 0.18 0.16 0 0.2 0.16 0 0.22 0.16 0 0.24 0.16 0 0.26 0.16 0 0.28 0.16 0 0.3 0.16 0 0.32 0.16 0 0.34 0.16 0 0.36 0.16 0 0.38 0.16 0 0.4 0.16 0 0.42 0.16 0 0.44 0.16 0 0.46 0.16 0 0.48 0.16 0 0.5 0.16 0 0.52 0.16 0 0.54 0.16 0 0.56 0.16 0 0.58 0.16 0 0.6 0.16 0 0.62 0.16 0 0.64 0.16 0 0.66 0.16 0 0.68 0.16 0 0.7 0.16 0 0.72 0.16 0 0.74 0.16 0 0.76 0.16 0 0.78 0.16 0 0.8 0.16 0 0.82 0.16 0 0.84 0.16 0 0.86 0.16 0 0.88 0.16 0 0.9 0.16 0 0.92 0.16 0 0.94 0.16 0 0.96 0.16 0 0.98 0.16 0 1 0.16 0 0 0.18 0 0.02 0.18 0 0.04 0.18 0 0.06 0.18 0 0.08 0.18 0 0.1 0.18 0 0.12 0.18 0 0.14 0.18 0 0.16 0.18 0 0.18 0.18 0 0.2 0.18 0 0.22 0.18 0 0.24 0.18 0 0.26 0.18 0 0.28 0.18 0 0.3 0.18 0 0.32 0.18 0 0.34 0.18 0 0.36 0.18 0 0.38 0.18 0 0.4 0.18 0 0.42 0.18 0 0.44 0.18 0 0.46 0.18 0 0.48 0.18 0 0.5 0.18 0 0.52 0.18 0 0.54 0.18 0 0.56 0.18 0 0.58 0.18 0 0.6 0.18 0 0.62 0.18 0 0.64 0.18 0 0.66 0.18 0 0.68 0.18 0 0.7 0.18 0 0.72 0.18 0 0.74 0.18 0 0.76 0.18 0 0.78 0.18 0 0.8 0.18 0 0.82 0.18 0 0.84 0.18 0 0.86 0.18 0 0.88 0.18 0 0.9 0.18 0 0.92 0.18 0 0.94 0.18 0 0.96 0.18 0 0.98 0.18 0 1 0.18 0 0 0.2 0 0.02 0.2 0 0.04 0.2 0 0.06 0.2 0 0.08 0.2 0 0.1 0.2 0 0.12 0.2 0 0.14 0.2 0 0.16 0.2 0 0.18 0.2 0 0.2 0.2 0 0.22 0.2 0 0.24 0.2 0 0.26 0.2 0 0.28 0.2 0 0.3 0.2 0 0.32 0.2 0 0.34 0.2 0 0.36 0.2 0 0.38 0.2 0 0.4 0.2 0 0.42 0.2 0 0.44 0.2 0 0.46 0.2 0 0.48 0.2 0 0.5 0.2 0 0.52 0.2 0 0.54 0.2 0 0.56 0.2 0 0.58 0.2 0 0.6 0.2 0 0.62 0.2 0 0.64 0.2 0 0.66 0.2 0 0.68 0.2 0 0.7 0.2 0 0.72 0.2 0 0.74 0.2 0 0.76 0.2 0 0.78 0.2 0 0.8 0.2 0 0.82 0.2 0 0.84 0.2 0 0.86 0.2 0 0.88 0.2 0 0.9 0.2 0 0.92 0.2 0 0.94 0.2 0 0.96 0.2 0 0.98 0.2 0 1 0.2 0 0 0.22 0 0.02 0.22 0 0.04 0.22 0 0.06 0.22 0 0.08 0.22 0 0.1 0.22 0 0.12 0.22 0 0.14 0.22 0 0.16 0.22 0 0.18 0.22 0 0.2 0.22 0 0.22 0.22 0 0.24 0.22 0 0.26 0.22 0 0.28 0.22 0 0.3 0.22 0 0.32 0.22 0 0.34 0.22 0 0.36 0.22 0 0.38 0.22 0 0.4 0.22 0 0.42 0.22 0 0.44 0.22 0 0.46 0.22 0 0.48 0.22 0 0.5 0.22 0 0.52 0.22 0 0.54 0.22 0 0.56 0.22 0 0.58 0.22 0 0.6 0.22 0 0.62 0.22 0 0.64 0.22 0 0.66 0.22 0 0.68 0.22 0 0.7 0.22 0 0.72 0.22 0 0.74 0.22 0 0.76 0.22 0 0.78 0.22 0 0.8 0.22 0 0.82 0.22 0 0.84 0.22 0 0.86 0.22 0 0.88 0.22 0 0.9 0.22 0 0.92 0.22 0 0.94 0.22 0 0.96 0.22 0 0.98 0.22 0 1 0.22 0 0 0.24 0 0.02 0.24 0 0.04 0.24 0 0.06 0.24 0 0.08 0.24 0 0.1 0.24 0 0.12 0.24 0 0.14 0.24 0 0.16 0.24 0 0.18 0.24 0 0.2 0.24 0 0.22 0.24 0 0.24 0.24 0 0.26 0.24 0 0.28 0.24 0 0.3 0.24 0 0.32 0.24 0 0.34 0.24 0 0.36 0.24 0 0.38 0.24 0 0.4 0.24 0 0.42 0.24 0 0.44 0.24 0 0.46 0.24 0 0.48 0.24 0 0.5 0.24 0 0.52 0.24 0 0.54 0.24 0 0.56 0.24 0 0.58 0.24 0 0.6 0.24 0 0.62 0.24 0 0.64 0.24 0 0.66 0.24 0 0.68 0.24 0 0.7 0.24 0 0.72 0.24 0 0.74 0.24 0 0.76 0.24 0 0.78 0.24 0 0.8 0.24 0 0.82 0.24 0 0.84 0.24 0 0.86 0.24 0 0.88 0.24 0 0.9 0.24 0 0.92 0.24 0 0.94 0.24 0 0.96 0.24 0 0.98 0.24 0 1 0.24 0 0 0.26 0 0.02 0.26 0 0.04 0.26 0 0.06 0.26 0 0.08 0.26 0 0.1 0.26 0 0.12 0.26 0 0.14 0.26 0 0.16 0.26 0 0.18 0.26 0 0.2 0.26 0 0.22 0.26 0 0.24 0.26 0 0.26 0.26 0 0.28 0.26 0 0.3 0.26 0 0.32 0.26 0 0.34 0.26 0 0.36 0.26 0 0.38 0.26 0 0.4 0.26 0 0.42 0.26 0 0.44 0.26 0 0.46 0.26 0 0.48 0.26 0 0.5 0.26 0 0.52 0.26 0 0.54 0.26 0 0.56 0.26 0 0.58 0.26 0 0.6 0.26 0 0.62 0.26 0 0.64 0.26 0 0.66 0.26 0 0.68 0.26 0 0.7 0.26 0 0.72 0.26 0 0.74 0.26 0 0.76 0.26 0 0.78 0.26 0 0.8 0.26 0 0.82 0.26 0 0.84 0.26 0 0.86 0.26 0 0.88 0.26 0 0.9 0.26 0 0.92 0.26 0 0.94 0.26 0 0.96 0.26 0 0.98 0.26 0 1 0.26 0 0 0.28 0 0.02 0.28 0 0.04 0.28 0 0.06 0.28 0 0.08 0.28 0 0.1 0.28 0 0.12 0.28 0 0.14 0.28 0 0.16 0.28 0 0.18 0.28 0 0.2 0.28 0 0.22 0.28 0 0.24 0.28 0 0.26 0.28 0 0.28 0.28 0 0.3 0.28 0 0.32 0.28 0 0.34 0.28 0 0.36 0.28 0 0.38 0.28 0 0.4 0.28 0 0.42 0.28 0 0.44 0.28 0 0.46 0.28 0 0.48 0.28 0 0.5 0.28 0 0.52 0.28 0 0.54 0.28 0 0.56 0.28 0 0.58 0.28 0 0.6 0.28 0 0.62 0.28 0 0.64 0.28 0 0.66 0.28 0 0.68 0.28 0 0.7 0.28 0 0.72 0.28 0 0.74 0.28 0 0.76 0.28 0 0.78 0.28 0 0.8 0.28 0 0.82 0.28 0 0.84 0.28 0 0.86 0.28 0 0.88 0.28 0 0.9 0.28 0 0.92 0.28 0 0.94 0.28 0 0.96 0.28 0 0.98 0.28 0 1 0.28 0 0 0.3 0 0.02 0.3 0 0.04 0.3 0 0.06 0.3 0 0.08 0.3 0 0.1 0.3 0 0.12 0.3 0 0.14 0.3 0 0.16 0.3 0 0.18 0.3 0 0.2 0.3 0 0.22 0.3 0 0.24 0.3 0 0.26 0.3 0 0.28 0.3 0 0.3 0.3 0 0.32 0.3 0 0.34 0.3 0 0.36 0.3 0 0.38 0.3 0 0.4 0.3 0 0.42 0.3 0 0.44 0.3 0 0.46 0.3 0 0.48 0.3 0 0.5 0.3 0 0.52 0.3 0 0.54 0.3 0 0.56 0.3 0 0.58 0.3 0 0.6 0.3 0 0.62 0.3 0 0.64 0.3 0 0.66 0.3 0 0.68 0.3 0 0.7 0.3 0 0.72 0.3 0 0.74 0.3 0 0.76 0.3 0 0.78 0.3 0 0.8 0.3 0 0.82 0.3 0 0.84 0.3 0 0.86 0.3 0 0.88 0.3 0 0.9 0.3 0 0.92 0.3 0 0.94 0.3 0 0.96 0.3 0 0.98 0.3 0 1 0.3 0 0 0.32 0 0.02 0.32 0 0.04 0.32 0 0.06 0.32 0 0.08 0.32 0 0.1 0.32 0 0.12 0.32 0 0.14 0.32 0 0.16 0.32 0 0.18 0.32 0 0.2 0.32 0 0.22 0.32 0 0.24 0.32 0 0.26 0.32 0 0.28 0.32 0 0.3 0.32 0 0.32 0.32 0 0.34 0.32 0 0.36 0.32 0 0.38 0.32 0 0.4 0.32 0 0.42 0.32 0 0.44 0.32 0 0.46 0.32 0 0.48 0.32 0 0.5 0.32 0 0.52 0.32 0 0.54 0.32 0 0.56 0.32 0 0.58 0.32 0 0.6 0.32 0 0.62 0.32 0 0.64 0.32 0 0.66 0.32 0 0.68 0.32 0 0.7 0.32 0 0.72 0.32 0 0.74 0.32 0 0.76 0.32 0 0.78 0.32 0 0.8 0.32 0 0.82 0.32 0 0.84 0.32 0 0.86 0.32 0 0.88 0.32 0 0.9 0.32 0 0.92 0.32 0 0.94 0.
[...]
			<PointData Scalars="VitesseX">
				<DataArray Name="VitesseX" type="Float32" format="ascii">
 0 0 0 0 0 0 0 0 0 0 0 0 0 0 0 0 0 0 0 0 0 0 0 0 0 0 0 0 0 0 0 0 0 0 0 0 0 0 0 0 0 0 0 0 0 0 0 0 0 0 -0 0 -0.000338269 -0.00134785 -0.00301287 -0.00530713 -0.00819453 -0.0116295 -0.015558 -0.019918 -0.0246407 -0.0296516 -0.0348716 -0.0402179 -0.0456063 -0.0509523 -0.0561713 -0.0611808 -0.0659018 -0.0702597 -0.0741858 -0.0776183 -0.0805028 -0.0827941 -0.0844621 -0.0854633 -0.0857959 -0.085458 -0.0844339 -0.0827624 -0.0804626 -0.077571 -0.0741333 -0.0702037 -0.0658442 -0.0611235 -0.056116 -0.0509004 -0.0455594 -0.0401764 -0.0348357 -0.0296219 -0.0246171 -0.0199 -0.015545 -0.0116208 -0.00818904 -0.00530406 -0.00301138 -0.00134721 -0.000338179 -3.67077e-27 0 -0.000671352 -0.00267582 -0.00598272 -0.0105409 -0.0162793 -0.0231079 -0.0309192 -0.0395898 -0.0489828 -0.0589493 -0.0693313 -0.0799623 -0.0906746 -0.1013 -0.111669 -0.121617 -0.130985 -0.139626 -0.147403 -0.154194 -0.15989 -0.164403 -0.167686 -0.169624 -0.170236 -0.169545 -0.167464 -0.164114 -0.159522 -0.153761 -0.146922 -0.139113 -0.130458 -0.121092 -0.111162 -0.100825 -0.0902439 -0.0795819 -0.0690047 -0.0586798 -0.0487692 -0.0394281 -0.0308032 -0.0230302 -0.0162317 -0.010515 -0.0059709 -0.00267146 -0.000670769 -7.28405e-27 0 -0.000993927 -0.00396238 -0.00886086 -0.0156146 -0.0241187 -0.0342405 -0.0458208 -0.0586766 -0.0726044 -0.087383 -0.102777 -0.118538 -0.134417 -0.150165 -0.165528 -0.180261 -0.19413 -0.206915 -0.218412 -0.228442 -0.236845 -0.24349 -0.24832 -0.25114 -0.251985 -0.250939 -0.247794 -0.242793 -0.235958 -0.2274 -0.217253 -0.205678 -0.192859 -0.178996 -0.164307 -0.14902 -0.133379 -0.117621 -0.101991 -0.0867342 -0.0720902 -0.0582874 -0.0455419 -0.0340539 -0.0240044 -0.0155525 -0.00883266 -0.00395215 -0.000992562 -1.07829e-26 0 -0.00130092 -0.00518737 -0.0116023 -0.0204488 -0.0315907 -0.0448545 -0.0600318 -0.076883 -0.0951405 -0.114514 -0.134693 -0.155351 -0.176159 -0.196792 -0.216916 -0.236207 -0.254359 -0.271081 -0.286109 -0.299206 -0.310165 -0.318815 -0.325096 -0.328727 -0.329753 -0.328356 -0.324158 -0.317559 -0.308567 -0.297327 -0.284018 -0.268851 -0.252066 -0.233925 -0.214713 -0.194727 -0.174285 -0.153696 -0.133274 -0.113343 -0.0942127 -0.0761807 -0.0595288 -0.044518 -0.0313848 -0.0203371 -0.0115516 -0.00516914 -0.00129849 -1.4112e-26 0 -0.0015875 -0.00633146 -0.0141637 -0.0249674 -0.0385774 -0.0547824 -0.0733281 -0.0939218 -0.116236 -0.139913 -0.164576 -0.189819 -0.215242 -0.240447 -0.265022 -0.288572 -0.310721 -0.331113 -0.349425 -0.365368 -0.378692 -0.38919 -0.396801 -0.401161 -0.402314 -0.400571 -0.395352 -0.387234 -0.376204 -0.362441 -0.346166 -0.327637 -0.307146 -0.285015 -0.261587 -0.237226 -0.212318 -0.187237 -0.162362 -0.138087 -0.114788 -0.0928261 -0.0725436 -0.0542578 -0.0382564 -0.0247936 -0.014085 -0.00630333 -0.00158376 -1.72186e-26 0 -0.00184915 -0.00737661 -0.0165047 -0.0290991 -0.0449686 -0.0638678 -0.0855005 -0.109525 -0.135557 -0.163182 -0.191954 -0.2214 -0.25105 -0.28044 -0.309088 -0.33653 -0.362325 -0.386062 -0.407362 -0.425887 -0.441347 -0.453505 -0.4623 -0.467295 -0.468524 -0.466436 -0.460247 -0.450712 -0.437795 -0.421707 -0.402708 -0.3811 -0.357224 -0.331452 -0.304185 -0.275844 -0.246876 -0.217715 -0.188795 -0.160576 -0.133492 -0.107961 -0.0843812 -0.0631197 -0.0445113 -0.0288517 -0.0163929 -0.00733692 -0.00184387 -2.00535e-26 0 -0.00208174 -0.00830632 -0.0185884 -0.0327788 -0.0506637 -0.0719673 -0.0963569 -0.123446 -0.152801 -0.183952 -0.216396 -0.249596 -0.283018 -0.316143 -0.34842 -0.379327 -0.408364 -0.435067 -0.459008 -0.479808 -0.497143 -0.510744 -0.520561 -0.526079 -0.527338 -0.524908 -0.517819 -0.50699 -0.492367 -0.474191 -0.452755 -0.4284 -0.401511 -0.372506 -0.341836 -0.309971 -0.277414 -0.244648 -0.212156 -0.180454 -0.150028 -0.121347 -0.0948551 -0.0709643 -0.0500508 -0.0324476 -0.0184391 -0.00825373 -0.00207476 -2.25718e-26 0 -0.00228161 -0.00910594 -0.020382 -0.0359485 -0.0555728 -0.0789537 -0.105726 -0.135465 -0.167695 -0.201897 -0.237517 -0.273961 -0.310645 -0.346995 -0.382402 -0.416291 -0.448113 -0.477355 -0.503548 -0.526279 -0.545192 -0.559999 -0.570658 -0.576581 -0.577831 -0.575059 -0.567157 -0.555182 -0.539062 -0.519066 -0.495517 -0.468792 -0.439312 -0.407534 -0.373948 -0.339072 -0.303453 -0.267613 -0.232078 -0.19741 -0.164139 -0.132774 -0.1038 -0.0776679 -0.0547878 -0.0355248 -0.0201915 -0.00903941 -0.00227281 -2.47335e-26 0 -0.00244561 -0.00976285 -0.021857 -0.0385582 -0.0596187 -0.084717 -0.113461 -0.145394 -0.180005 -0.216734 -0.254984 -0.294116 -0.333498 -0.372512 -0.4105 -0.44684 -0.48094 -0.51225 -0.540271 -0.56456 -0.584737 -0.600494 -0.611804 -0.617998 -0.619206 -0.616098 -0.607488 -0.594532 -0.57715 -0.555632 -0.530328 -0.501645 -0.470035 -0.435987 -0.400021 -0.362691 -0.324584 -0.286251 -0.248249 -0.211178 -0.175602 -0.142063 -0.111077 -0.0831254 -0.0586478 -0.0380349 -0.0216225 -0.00968167 -0.0024349 -2.65044e-26 0 -0.00257116 -0.0102667 -0.0229904 -0.0405666 -0.0627375 -0.0891661 -0.11944 -0.153076 -0.189536 -0.228229 -0.268525 -0.309745 -0.351219 -0.392292 -0.432266 -0.470483 -0.506321 -0.539203 -0.568604 -0.594056 -0.615158 -0.63159 -0.643349 -0.649674 -0.650812 -0.647372 -0.638171 -0.624413 -0.606022 -0.583305 -0.556636 -0.526442 -0.4932 -0.457419 -0.419644 -0.38046 -0.340477 -0.30027 -0.260416 -0.221542 -0.184237 -0.149067 -0.11657 -0.0872514 -0.0615705 -0.0399386 -0.0227096 -0.0101705 -0.00255851 -2.78562e-26 0 -0.00265628 -0.0106095 -0.0237642 -0.0419423 -0.06488 -0.0922305 -0.123567 -0.158389 -0.19614 -0.236205 -0.277928 -0.320601 -0.363525 -0.406017 -0.447352 -0.486849 -0.523868 -0.557804 -0.588108 -0.614299 -0.635971 -0.652798 -0.664796 -0.671108 -0.672166 -0.668526 -0.658934 -0.644642 -0.625572 -0.602046 -0.574452 -0.543232 -0.508878 -0.471918 -0.432922 -0.392484 -0.351229 -0.309751 -0.268648 -0.228557 -0.190082 -0.153809 -0.120291 -0.0900459 -0.06355 -0.0412276 -0.0234455 -0.0105012 -0.00264208 -2.87677e-26 0 -0.00270008 -0.0107894 -0.0241775 -0.0426892 -0.0660603 -0.0939402 -0.125894 -0.161412 -0.199923 -0.240798 -0.283365 -0.326885 -0.370644 -0.413938 -0.456031 -0.496218 -0.533834 -0.568261 -0.598942 -0.625396 -0.647212 -0.664063 -0.676005 -0.682009 -0.682884 -0.678663 -0.668593 -0.653746 -0.634096 -0.609977 -0.581787 -0.549979 -0.515048 -0.477529 -0.437994 -0.397036 -0.355285 -0.31333 -0.271774 -0.231251 -0.192359 -0.155689 -0.121798 -0.0912074 -0.0643962 -0.0417956 -0.0237803 -0.0106568 -0.00268276 -2.92243e-26 0 -0.0027001 -0.0107897 -0.0241787 -0.0426931 -0.0660693 -0.0939573 -0.125922 -0.161455 -0.199985 -0.240882 -0.283469 -0.327006 -0.370777 -0.414086 -0.456184 -0.496366 -0.533967 -0.568377 -0.599039 -0.625468 -0.647262 -0.664093 -0.676018 -0.682011 -0.682884 -0.678649 -0.668556 -0.653678 -0.633991 -0.609834 -0.581607 -0.54977 -0.514815 -0.477287 -0.437752 -0.396801 -0.355072 -0.313144 -0.271614 -0.231121 -0.192267 -0.155625 -0.121755 -0.0911817 -0.0643829 -0.0417897 -0.0237782 -0.0106563 -0.00268273 -2.92187e-26 0 -0.00265952 -0.0106352 -0.0238492 -0.0421383 -0.0652496 -0.0928405 -0.124481 -0.159668 -0.197834 -0.238347 -0.280526 -0.323628 -0.366948 -0.409765 -0.451338 -0.490975 -0.527995 -0.561792 -0.591816 -0.617592 -0.638723 -0.654898 -0.666247 -0.671476 -0.672079 -0.667408 -0.657181 -0.642232 -0.622598 -0.598616 -0.570687 -0.539261 -0.504832 -0.467926 -0.429093 -0.388909 -0.347992 -0.3069 -0.266217 -0.226555 -0.188502 -0.15262 -0.119443 -0.0894813 -0.0632078 -0.0410455 -0.023366 -0.0104771 -0.00263901 -2.87512e-26 0 -0.00257564 -0.0103024 -0.0231087 -0.0408404 -0.0632553 -0.0900228 -0.120727 -0.154879 -0.191928 -0.231258 -0.2722 -0.314033 -0.356066 -0.397589 -0.437897 -0.476301 -0.512136 -0.544818 -0.573818 -0.598675 -0.619007 -0.634521 -0.64537 -0.6502 -0.650695 -0.645761 -0.635626 -0.620901 -0.601673 -0.578278 -0.551108 -0.520603 -0.487239 -0.451519 -0.413981 -0.375177 -0.335686 -0.296043 -0.25682 -0.218584 -0.181897 -0.147311 -0.115323 -0.0864219 -0.0610683 -0.0396718 -0.0225936 -0.0101354 -0.00255405 -2.78291e-26 0 -0.00245176 -0.00981182 -0.0220194 -0.0389338 -0.060329 -0.0858924 -0.115228 -0.14787 -0.183288 -0.220887 -0.260024 -0.300006 -0.340152 -0.379796 -0.41825 -0.454829 -0.488921 -0.519959 -0.547436 -0.570912 -0.590036 -0.604535 -0.614593 -0.618752 -0.619058 -0.613899 -0.603993 -0.589698 -0.571157 -0.5487 -0.522706 -0.493593 -0.461813 -0.427847 -0.3922 -0.355391 -0.317966 -0.280418 -0.243279 -0.207091 -0.172367 -0.139631 -0.109352 -0.0819789 -0.0579533 -0.037666 -0.0214621 -0.00963317 -0.00242874 -2.64671e-26 0 -0.00228933 -0.00916741 -0.0205857 -0.0364199 -0.0564639 -0.0804283 -0.107943 -0.138573 -0.171816 -0.207107 -0.243837 -0.281349 -0.319002 -0.356152 -0.392142 -0.426336 -0.45815 -0.487046 -0.512555 -0.534276 -0.551873 -0.565102 -0.574184 -0.577582 -0.577668 -0.572335 -0.562788 -0.549123 -0.531539 -0.510354 -0.485927 -0.458655 -0.428959 -0.397285 -0.364094 -0.329868 -0.295111 -0.260264 -0.225817 -0.192263 -0.160068 -0.129704 -0.101621 -0.0762221 -0.0539118 -0.0350594 -0.0199893 -0.00897828 -0.00226504 -2.46869e-26 0 -0.00209092 -0.00837933 -0.0188304 -0.0333384 -0.051721 -0.0737168 -0.0989885 -0.127135 -0.157692 -0.190135 -0.223896 -0.258354 -0.292934 -0.327024 -0.359994 -0.39127 -0.420306 -0.446604 -0.46974 -0.489346 -0.505119 -0.516848 -0.524786 -0.527352 -0.527177 -0.521733 -0.512668 -0.499822 -0.483449 -0.463849 -0.44136 -0.416345 -0.389195 -0.360312 -0.330108 -0.299013 -0.26748 -0.235896 -0.2047 -0.174322 -0.145186 -0.117697 -0.0922576 -0.0692416 -0.0490071 -0.031893 -0.0181983 -0.00818093 -0.00206551 -2.25168e-26 0 -0.00185964 -0.00746 -0.0167811 -0.0297379 -0.0461751 -0.0658638 -0.0885041 -0.113736 -0.14114 -0.170238 -0.200514 -0.231395 -0.262368 -0.292869 -0.322313 -0.350184 -0.375985 -0.399275 -0.419668 -0.436833 -0.450516 -0.460581 -0.467065 -0.469024 -0.468247 -0.462951 -0.454422 -0.442572 -0.427644 -0.40992 -0.389707 -0.367336 -0.343151 -0.317512 -0.290776 -0.263311 -0.23551 -0.207698 -0.180259 -0.153556 -0.127951 -0.103783 -0.0814026 -0.0611447 -0.0433164 -0.0282167 -0.0161172 -0.00725357 -0.00183328 -1.99912e-26 0 -0.00159915 -0.00642394 -0.01447 -0.0256753 -0.0399138 -0.0569931 -0.0766556 -0.0985878 -0.12242 -0.14773 -0.17406 -0.200897 -0.22779 -0.254232 -0.279696 -0.303728 -0.325889 -0.345799 -0.36312 -0.377566 -0.38893 -0.397165 -0.402026 -0.403398 -0.401926 -0.396864 -0.388972 -0.378276 -0.365005 -0.349415 -0.331783 -0.312396 -0.291553 -0.269559 -0.246716 -0.223325 -0.199702 -0.176116 -0.152881 -0.130291 -0.108632 -0.0881823 -0.0692306 -0.052061 -0.036929 -0.0240881 -0.0137787 -0.00621071 -0.001572 -1.71502e-26 0 -0.00131354 -0.00528748 -0.0119338 -0.0212145 -0.0330357 -0.0472447 -0.0636299 -0.0819287 -0.101828 -0.122967 -0.144952 -0.16734 -0.189742 -0.211715 -0.232809 -0.252633 -0.270814 -0.28703 -0.300997 -0.31249 -0.321342 -0.327577 -0.330757 -0.331428 -0.329309 -0.324514 -0.317355 -0.307955 -0.296524 -0.283293 -0.2685 -0.252392 -0.235213 -0.21721 -0.198621 -0.179682 -0.160621 -0.141652 -0.123001 -0.104893 -0.0875367 -0.0711465 -0.0559397 -0.0421365 -0.0299453 -0.0195721 -0.0112195 -0.00506872 -0.00128574 -1.40389e-26 0 -0.00100733 -0.00406856 -0.00921238 -0.016426 -0.0256497 -0.0367726 -0.0496328 -0.0640224 -0.0796895 -0.0963401 -0.113649 -0.131256 -0.148826 -0.165994 -0.182396 -0.197705 -0.211623 -0.223885 -0.234271 -0.242619 -0.248816 -0.252874 -0.25443 -0.254202 -0.251564 -0.247038 -0.240696 -0.232711 -0.223277 -0.212591 -0.200856 -0.188267 -0.175017 -0.161288 -0.147249 -0.133067 -0.118882 -0.104843 -0.0910912 -0.0777649 -0.0650015 -0.0529422 -0.0417312 -0.0315239 -0.0224751 -0.0147399 -0.00847993 -0.00384549 -0.000979028 -1.07064e-26 0 -0.000685322 -0.0027864 -0.0063487 -0.0113855 -0.0178721 -0.0257421 -0.0348852 -0.0451516 -0.0563542 -0.0682692 -0.0806453 -0.0932088 -0.105686 -0.117794 -0.129255 -0.139814 -0.149245 -0.157356 -0.16399 -0.169044 -0.172501 -0.174156 -0.174352 -0.172862 -0.169935 -0.165656 -0.160201 -0.153731 -0.146417 -0.138425 -0.129914 -0.121032 -0.111914 -0.102675 -0.0934123 -0.0842112 -0.0751443 -0.0662712 -0.0576477 -0.0493307 -0.0413796 -0.0338558 -0.0268296 -0.0203905 -0.0146363 -0.00966756 -0.00560311 -0.00256025 -0.000656665 -7.20546e-27 0 -0.000352608 -0.00146123 -0.00338794 -0.00617231 -0.00982594 -0.0143273 -0.0196201 -0.0256145 -0.0321907 -0.0391982 -0.0464634 -0.053799 -0.0609993 -0.0678684 -0.0742183 -0.0798685 -0.0846695 -0.0885025 -0.0912843 -0.0929411 -0.0934881 -0.0929731 -0.0914112 -0.0889315 -0.0856395 -0.0816494 -0.077141 -0.0722632 -0.0671631 -0.0619729 -0.0568056 -0.0517604 -0.0469107 -0.0423043 -0.0379675 -0.033906 -0.0301097 -0.0265552 -0.0232111 -0.02005 -0.0170497 -0.0141917 -0.0114743 -0.00891528 -0.00655348 -0.00443568 -0.0026345 -0.00123322 -0.000323731 -3.59146e-27 0 -1.4428e-05 -0.00011396 -0.000376827 -0.000868871 -0.00163811 -0.00270868 -0.00407853 -0.00571965 -0.00758102 -0.00958684 -0.0116436 -0.0136495 -0.0154734 -0.0170075 -0.0181563 -0.0188133 -0.0189084 -0.0183971 -0.0172587 -0.0155006 -0.0131709 -0.0103522 -0.00713557 -0.00363975 -4.7295e-07 0.00364112 0.00714117 0.0103619 0.0131818 0.0155045 0.017257 0.0183959 0.0189077 0.0188115 0.018155 0.0170105 0.0154714 0.013644 0.0116458 0.00959037 0.00758278 0.00571967 0.00407752 0.00270973 0.00163791 0.000868846 0.000376967 0.000113963 1.44279e-05 7.85627e-29 0 0.000323732 0.00123322 0.00263462 0.00443588 0.00655291 0.00891615 0.0114733 0.0141911 0.0170513 0.0200542 0.023215 0.0265499 0.0301041 0.0339087 0.0379688 0.0423034 0.0469102 0.0517627 0.0568077 0.061974 0.0671659 0.072268 0.0771452 0.0816524 0.0856396 0.0889319 0.0914155 0.0929808 0.0934997 0.0929473 0.0912843 0.0885004 0.0846685 0.079867 0.0742168 0.0678687 0.0609986 0.0537969 0.0464643 0.0392004 0.0321922 0.0256145 0.019619 0.014328 0.00982576 0.00617208 0.00338812 0.00146124 0.000352608 3.74674e-27 0 0.000656665 0.00256024 0.0056032 0.00966781 0.014635 0.0203904 0.0268281 0.0338538 0.0413813 0.0493355 0.0576534 0.0662694 0.0751342 0.0842088 0.0934158 0.102675 0.111912 0.121033 0.12992 0.138431 0.14642 0.153735 0.160204 0.165659 0.169936 0.172863 0.174355 0.174158 0.172504 0.169046 0.163993 0.157357 0.149246 0.139814 0.129253 0.117792 0.105687 0.0932102 0.0806454 0.0682702 0.0563547 0.0451511 0.0348841 0.0257425 0.0178724 0.0113854 0.00634895 0.00278642 0.000685321 7.35528e-27 0 0.000979028 0.00384549 0.00848 0.0147401 0.0224734 0.0315223 0.0417295 0.0529402 0.0650025 0.0777689 0.0910982 0.104847 0.118874 0.133059 0.147249 0.16129 0.175022 0.188266 0.200853 0.2126 0.223285 0.23271 0.240692 0.247037 0.251564 0.254203 0.254433 0.252875 0.248813 0.242613 0.234269 0.223883 0.211622 0.197706 0.182396 0.165994 0.148832 0.131262 0.113649 0.0963397 0.0796886 0.0640213 0.0496319 0.036773 0.0256504 0.0164262 0.00921273 0.0040686 0.00100732 1.08474e-26 0 0.00128574 0.00506872 0.0112195 0.0195723 0.0299434 0.0421345 0.055939 0.0711446 0.0875364 0.104897 0.123011 0.14166 0.160619 0.179672 0.198613 0.21721 0.235219 0.25239 0.268493 0.283296 0.29653 0.307953 0.317354 0.324516 0.329309 0.33143 0.33076 0.327582 0.321346 0.312488 0.300994 0.287029 0.270815 0.252632 0.232807 0.211713 0.189752 0.167352 0.144952 0.122965 0.101826 0.0819271 0.0636295 0.047245 0.0330363 0.0212148 0.0119343 0.00528755 0.00131354 1.41681e-26 0 0.001572 0.00621071 0.0137787 0.0240882 0.0369272 0.0520595 0.0692326 0.0881798 0.108628 0.130293 0.152888 0.176126 0.199707 0.223316 0.246707 0.26956 0.291554 0.312395 0.331781 0.349414 0.365004 0.378276 0.388975 0.396867 0.401924 0.403402 0.402032 0.397177 0.38894 0.377569 0.363119 0.345801 0.325892 0.303726 0.279693 0.254228 0.227802 0.200911 0.174061 0.147727 0.122416 0.0985854 0.0766554 0.0569931 0.0399139 0.0256756 0.0144707 0.00642403 0.00159915 1.72654e-26 0 0.00183328 0.00725357 0.0161172 0.0282168 0.0433152 0.0611416 0.081401 0.103778 0.127944 0.153556 0.180261 0.207704 0.235517 0.263312 0.29077 0.317514 0.343158 0.367338 0.389704 0.409916 0.427641 0.442566 0.454419 0.46295 0.468247 0.469028 0.467073 0.460594 0.450522 0.436832 0.419665 0.399275 0.375985 0.350183 0.322312 0.292868 0.26238 0.231408 0.200515 0.170234 0.141135 0.113733 0.0885042 0.0658639 0.0461755 0.0297387 0.0167819 0.00746012 0.00185964 2.00904e-26 0 0.00206551 0.00818093 0.0181983 0.0318932 0.0490069 0.0692375 0.0922524 0.117694 0.145182 0.174321 0.204699 0.235897 0.267486 0.299019 0.330104 0.360308 0.389203 0.416356 0.441365 0.463849 0.483447 0.499819 0.512666 0.521733 0.527178 0.527355 0.524793 0.516855 0.50512 0.489344 0.469742 0.446606 0.420304 0.391269 0.359993 0.327023 0.292942 0.258363 0.223897 0.19013 0.157686 0.127132 0.098989 0.0737172 0.0517215 0.0333395 0.0188314 0.00837948 0.00209092 2.2599e-26 0 0.00226504 0.00897828 0.0199893 0.0350595 0.053912 0.0762187 0.101616 0.129708 0.16007 0.19226 0.225815 0.260263 0.295113 0.329873 0.364095 0.397279 0.428958 0.458663 0.485937 0.510358 0.531542 0.549128 0.562791 0.572337 0.577669 0.577584 0.574188 0.565103 0.551872 0.534275 0.512556 0.487047 0.45815 0.426336 0.392142 0.356156 0.319006 0.281349 0.243838 0.207102 0.17181 0.13857 0.107945 0.0804291 0.0564642 0.0364211 0.0205868 0.00916758 0.00228933 2.47518e-26 0 0.00242874 0.00963317 0.0214621 0.037666 0.0579536 0.0819772 0.109345 0.139631 0.172374 0.207092 0.243279 0.280418 0.317966 0.355391 0.392201 0.427845 0.461808 0.49359 0.522707 0.548703 0.571161 0.589704 0.603997 0.613902 0.619059 0.618753 0.614594 0.604534 0.590035 0.57091 0.547433 0.51996 0.488924 0.45483 0.41825 0.379807 0.34016 0.300005 0.260024 0.220882 0.183282 0.147865 0.115226 0.0858933 0.0603308 0.0389357 0.0220206 0.00981199 0.00245176 2.65151e-26 0 0.00255405 0.0101354 0.0225936 0.0396718 0.0610685 0.0864217 0.115318 0.147307 0.181901 0.218583 0.256816 0.296045 0.335685 0.375173 0.41398 0.451517 0.487234 0.5206 0.551107 0.578277 0.601672 0.620902 0.635627 0.645762 0.650696 0.6502 0.645369 0.634521 0.619005 0.598673 0.573819 0.544821 0.512137 0.476301 0.437907 0.397603 0.356071 0.314036 0.272199 0.231253 0.191924 0.154874 0.120722 0.0900237 0.0632589 0.040843 0.02311 0.0103026 0.00257564 2.78611e-26 0 0.00263901 0.0104771 0.023366 0.0410455 0.0632079 0.0894815 0.119441 0.152616 0.1885 0.226553 0.266212 0.306897 0.347991 0.388909 0.42909 0.467923 0.504832 0.539261 0.570686 0.598614 0.622595 0.642231 0.65718 0.667407 0.672079 0.671476 0.666248 0.654897 0.638722 0.617593 0.591818 0.561793 0.527995 0.490975 0.451345 0.409771 0.36695 0.32363 0.280522 0.238342 0.197831 0.159666 0.124479 0.0928423 0.0652538 0.042141 0.0238504 0.0106354 0.00265952 2.8769e-26 0 0.00268273 0.0106563 0.0237782 0.0417897 0.0643829 0.091182 0.121755 0.155622 0.19226 0.231116 0.27161 0.313142 0.355074 0.396805 0.437753 0.477287 0.514815 0.549768 0.581608 0.609833 0.63399 0.653677 0.668556 0.67865 0.682884 0.682011 0.676018 0.664093 0.647264 0.625472 0.599041 0.568377 0.533966 0.496363 0.456183 0.41409 0.370782 0.327004 0.283464 0.240879 0.199983 0.161455 0.125921 0.0939592 0.0660723 0.0426949 0.0241797 0.0107897 0.00270009 2.92243e-26 0 0.00268276 0.0106568 0.0237803 0.0417956 0.0643963 0.0912076 0.121798 0.155688 0.192355 0.231243 0.271769 0.31333 0.355287 0.397038 0.437997 0.47753 0.515047 0.549978 0.581788 0.609977 0.634096 0.653746 0.668592 0.678663 0.682885 0.682009 0.676006 0.664064 0.647214 0.625398 0.598943 0.568258 0.533831 0.496219 0.456036 0.413945 0.370646 0.326883 0.283362 0.240799 0.199921 0.161412 0.125894 0.0939413 0.0660611 0.04269 0.0241782 0.0107894 0.00270007 2.92199e-26 0 0.00264208 0.0105012 0.0234455 0.0412276 0.06355 0.0900461 0.120291 0.153809 0.190081 0.228553 0.268644 0.30975 0.351229 0.392484 0.432924 0.471919 0.508876 0.543231 0.574452 0.602046 0.625572 0.644642 0.658934 0.668525 0.672166 0.671108 0.664797 0.6528 0.635971 0.614297 0.588106 0.557805 0.523874 0.486858 0.447357 0.406019 0.363524 0.3206 0.277929 0.236206 0.19614 0.158392 0.123568 0.0922308 0.0648803 0.041943 0.0237646 0.0106095 0.00265628 2.8756e-26 0 0.00255851 0.0101705 0.0227096 0.0399386 0.0615705 0.0872515 0.116571 0.149067 0.184237 0.221541 0.260414 0.300268 