<?xml version="1.0"?>
<VTKFile type="PolyData">
	<PolyData>
		<Piece NumberOfPoints="2601" NumberOfPolys="2500">
			<Points>
				<DataArray type="Float32" NumberOfComponents="3" format="ascii">
 0 0 0 0.02 0 0 0.04 0 0 0.06 0 0 0.08 0 0 0.1 0 0 0.12 0 0 0.14 0 0 0.16 0 0 0.18 0 0 0.2 0 0 0.22 0 0 0.24 0 0 0.26 0 0 0.28 0 0 0.3 0 0 0.32 0 0 0.34 0 0 0.36 0 0 0.38 0 0 0.4 0 0 0.42 0 0 0.44 0 0 0.46 0 0 0.48 0 0 0.5 0 0 0.52 0 0 0.54 0 0 0.56 0 0 0.58 0 0 0.6 0 0 0.62 0 0 0.64 0 0 0.66 0 0 0.68 0 0 0.7 0 0 0.72 0 0 0.74 0 0 0.76 0 0 0.78 0 0 0.8 0 0 0.82 0 0 0.84 0 0 0.86 0 0 0.88 0 0 0.9 0 0 0.92 0 0 0.94 0 0 0.96 0 0 0.98 0 0 1 0 0 0 0.02 0 0.02 0.02 0 0.04 0.02 0 0.06 0.02 0 0.08 0.02 0 0.1 0.02 0 0.12 0.02 0 0.14 0.02 0 0.16 0.02 0 0.18 0.02 0 0.2 0.02 0 0.22 0.02 0 0.24 0.02 0 0.26 0.02 0 0.28 0.02 0 0.3 0.02 0 0.32 0.02 0 0.34 0.02 0 0.36 0.02 0 0.38 0.02 0 0.4 0.02 0 0.42 0.02 0 0.44 0.02 0 0.46 0.02 0 0.48 0.02 0 0.5 0.02 0 0.52 0.02 0 0.54 0.02 0 0.56 0.02 0 0.58 0.02 0 0.6 0.02 0 0.62 0.02 0 0.64 0.02 0 0.66 0.02 0 0.68 0.02 0 0.7 0.02 0 0.72 0.02 0 0.74 0.02 0 0.76 0.02 0 0.78 0.02 0 0.8 0.02 0 0.82 0.02 0 0.84 0.02 0 0.86 0.02 0 0.88 0.02 0 0.9 0.02 0 0.92 0.02 0 0.94 0.02 0 0.96 0.02 0 0.98 0.02 0 1 0.02 0 0 0.04 0 0.02 0.04 0 0.04 0.04 0 0.06 0.04 0 0.08 0.04 0 0.1 0.04 0 0.12 0.04 0 0.14 0.04 0 0.16 0.04 0 0.18 0.04 0 0.2 0.04 0 0.22 0.04 0 0.24 0.04 0 0.26 0.04 0 0.28 0.04 0 0.3 0.04 0 0.32 0.04 0 0.34 0.04 0 0.36 0.04 0 0.38 0.04 0 0.4 0.04 0 0.42 0.04 0 0.44 0.04 0 0.46 0.04 0 0.48 0.04 0 0.5 0.04 0 0.52 0.04 0 0.54 0.04 0 0.56 0.04 0 0.58 0.04 0 0.6 0.04 0 0.62 0.04 0 0.64 0.04 0 0.66 0.04 0 0.68 0.04 0 0.7 0.04 0 0.72 0.04 0 0.74 0.04 0 0.76 0.04 0 0.78 0.04 0 0.8 0.04 0 0.82 0.04 0 0.84 0.04 0 0.86 0.04 0 0.88 0.04 0 0.9 0.04 0 0.92 0.04 0 0.94 0.04 0 0.96 0.04 0 0.98 0.04 0 1 0.04 0 0 0.06 0 0.02 0.06 0 0.04 0.06 0 0.06 0.06 0 0.08 0.06 0 0.1 0.06 0 0.12 0.06 0 0.14 0.06 0 0.16 0.06 0 0.18 0.06 0 0.2 0.06 0 0.22 0.06 0 0.24 0.06 0 0.26 0.06 0 0.28 0.06 0 0.3 0.06 0 0.32 0.06 0 0.34 0.06 0 0.36 0.06 0 0.38 0.06 0 0.4 0.06 0 0.42 0.06 0 0.44 0.06 0 0.46 0.06 0 0.48 0.06 0 0.5 0.06 0 0.52 0.06 0 0.54 0.06 0 0.56 0.06 0 0.58 0.06 0 0.6 0.06 0 0.62 0.06 0 0.64 0.06 0 0.66 0.06 0 0.68 0.06 0 0.7 0.06 0 0.72 0.06 0 0.74 0.06 0 0.76 0.06 0 0.78 0.06 0 0.8 0.06 0 0.82 0.06 0 0.84 0.06 0 0.86 0.06 0 0.88 0.06 0 0.9 0.06 0 0.92 0.06 0 0.94 0.06 0 0.96 0.06 0 0.98 0.06 0 1 0.06 0 0 0.08 0 0.02 0.08 0 0.04 0.08 0 0.06 0.08 0 0.08 0.08 0 0.1 0.08 0 0.12 0.08 0 0.14 0.08 0 0.16 0.08 0 0.18 0.08 0 0.2 0.08 0 0.22 0.08 0 0.24 0.08 0 0.26 0.08 0 0.28 0.08 0 0.3 0.08 0 0.32 0.08 0 0.34 0.08 0 0.36 0.08 0 0.38 0.08 0 0.4 0.08 0 0.42 0.08 0 0.44 0.08 0 0.46 0.08 0 0.48 0.08 0 0.5 0.08 0 0.52 0.08 0 0.54 0.08 0 0.56 0.08 0 0.58 0.08 0 0.6 0.08 0 0.62 0.08 0 0.64 0.08 0 0.66 0.08 0 0.68 0.08 0 0.7 0.08 0 0.72 0.08 0 0.74 0.08 0 0.76 0.08 0 0.78 0.08 0 0.8 0.08 0 0.82 0.08 0 0.84 0.08 0 0.86 0.08 0 0.88 0.08 0 0.9 0.08 0 0.92 0.08 0 0.94 0.08 0 0.96 0.08 0 0.98 0.08 0 1 0.08 0 0 0.1 0 0.02 0.1 0 0.04 0.1 0 0.06 0.1 0 0.08 0.1 0 0.1 0.1 0 0.12 0.1 0 0.14 0.1 0 0.16 0.1 0 0.18 0.1 0 0.2 0.1 0 0.22 0.1 0 0.24 0.1 0 0.26 0.1 0 0.28 0.1 0 0.3 0.1 0 0.32 0.1 0 0.34 0.1 0 0.36 0.1 0 0.38 0.1 0 0.4 0.1 0 0.42 0.1 0 0.44 0.1 0 0.46 0.1 0 0.48 0.1 0 0.5 0.1 0 0.52 0.1 0 0.54 0.1 0 0.56 0.1 0 0.58 0.1 0 0.6 0.1 0 0.62 0.1 0 0.64 0.1 0 0.66 0.1 0 0.68 0.1 0 0.7 0.1 0 0.72 0.1 0 0.74 0.1 0 0.76 0.1 0 0.78 0.1 0 0.8 0.1 0 0.82 0.1 0 0.84 0.1 0 0.86 0.1 0 0.88 0.1 0 0.9 0.1 0 0.92 0.1 0 0.94 0.1 0 0.96 0.1 0 0.98 0.1 0 1 0.1 0 0 0.12 0 0.02 0.12 0 0.04 0.12 0 0.06 0.12 0 0.08 0.12 0 0.1 0.12 0 0.12 0.12 0 0.14 0.12 0 0.16 0.12 0 0.18 0.12 0 0.2 0.12 0 0.22 0.12 0 0.24 0.12 0 0.26 0.12 0 0.28 0.12 0 0.3 0.12 0 0.32 0.12 0 0.34 0.12 0 0.36 0.12 0 0.38 0.12 0 0.4 0.12 0 0.42 0.12 0 0.44 0.12 0 0.46 0.12 0 0.48 0.12 0 0.5 0.12 0 0.52 0.12 0 0.54 0.12 0 0.56 0.12 0 0.58 0.12 0 0.6 0.12 0 0.62 0.12 0 0.64 0.12 0 0.66 0.12 0 0.68 0.12 0 0.7 0.12 0 0.72 0.12 0 0.74 0.12 0 0.76 0.12 0 0.78 0.12 0 0.8 0.12 0 0.82 0.12 0 0.84 0.12 0 0.86 0.12 0 0.88 0.12 0 0.9 0.12 0 0.92 0.12 0 0.94 0.12 0 0.96 0.12 0 0.98 0.12 0 1 0.12 0 0 0.14 0 0.02 0.14 0 0.04 0.14 0 0.06 0.14 0 0.08 0.14 0 0.1 0.14 0 0.12 0.14 0 0.14 0.14 0 0.16 0.14 0 0.18 0.14 0 0.2 0.14 0 0.22 0.14 0 0.24 0.14 0 0.26 0.14 0 0.28 0.14 0 0.3 0.14 0 0.32 0.14 0 0.34 0.14 0 0.36 0.14 0 0.38 0.14 0 0.4 0.14 0 0.42 0.14 0 0.44 0.14 0 0.46 0.14 0 0.48 0.14 0 0.5 0.14 0 0.52 0.14 0 0.54 0.14 0 0.56 0.14 0 0.58 0.14 0 0.6 0.14 0 0.62 0.14 0 0.64 0.14 0 0.66 0.14 0 0.68 0.14 0 0.7 0.14 0 0.72 0.14 0 0.74 0.14 0 0.76 0.14 0 0.78 0.14 0 0.8 0.14 0 0.82 0.14 0 0.84 0.14 0 0.86 0.14 0 0.88 0.14 0 0.9 0.14 0 0.92 0.14 0 0.94 0.14 0 0.96 0.14 0 0.98 0.14 0 1 0.14 0 0 0.16 0 0.02 0.16 0 0.04 0.16 0 0.06 0.16 0 0.08 0.16 0 0.1 0.16 0 0.12 0.16 0 0.14 0.16 0 0.16 0.16 0 0.18 0.16 0 0.2 0.16 0 0.22 0.16 0 0.24 0.16 0 0.26 0.16 0 0.28 0.16 0 0.3 0.16 0 0.32 0.16 0 0.34 0.16 0 0.36 0.16 0 0.38 0.16 0 0.4 0.16 0 0.42 0.16 0 0.44 0.16 0 0.46 0.16 0 0.48 0.16 0 0.5 0.16 0 0.52 0.16 0 0.54 0.16 0 0.56 0.16 0 0.58 0.16 0 0.6 0.16 0 0.62 0.16 0 0.64 0.16 0 0.66 0.16 0 0.68 0.16 0 0.7 0.16 0 0.72 0.16 0 0.74 0.16 0 0.76 0.16 0 0.78 0.16 0 0.8 0.16 0 0.82 0.16 0 0.84 0.16 0 0.86 0.16 0 0.88 0.16 0 0.9 0.16 0 0.92 0.16 0 0.94 0.16 0 0.96 0.16 0 0.98 0.16 0 1 0.16 0 0 0.18 0 0.02 0.18 0 0.04 0.18 0 0.06 0.18 0 0.08 0.18 0 0.1 0.18 0 0.12 0.18 0 0.14 0.18 0 0.16 0.18 0 0.18 0.18 0 0.2 0.18 0 0.22 0.18 0 0.24 0.18 0 0.26 0.18 0 0.28 0.18 0 0.3 0.18 0 0.32 0.18 0 0.34 0.18 0 0.36 0.18 0 0.38 0.18 0 0.4 0.18 0 0.42 0.18 0 0.44 0.18 0 0.46 0.18 0 0.48 0.18 0 0.5 0.18 0 0.52 0.18 0 0.54 0.18 0 0.56 0.18 0 0.58 0.18 0 0.6 0.18 0 0.62 0.18 0 0.64 0.18 0 0.66 0.18 0 0.68 0.18 0 0.7 0.18 0 0.72 0.18 0 0.74 0.18 0 0.76 0.18 0 0.78 0.18 0 0.8 0.18 0 0.82 0.18 0 0.84 0.18 0 0.86 0.18 0 0.88 0.18 0 0.9 0.18 0 0.92 0.18 0 0.94 0.18 0 0.96 0.18 0 0.98 0.18 0 1 0.18 0 0 0.2 0 0.02 0.2 0 0.04 0.2 0 0.06 0.2 0 0.08 0.2 0 0.1 0.2 0 0.12 0.2 0 0.14 0.2 0 0.16 0.2 0 0.18 0.2 0 0.2 0.2 0 0.22 0.2 0 0.24 0.2 0 0.26 0.2 0 0.28 0.2 0 0.3 0.2 0 0.32 0.2 0 0.34 0.2 0 0.36 0.2 0 0.38 0.2 0 0.4 0.2 0 0.42 0.2 0 0.44 0.2 0 0.46 0.2 0 0.48 0.2 0 0.5 0.2 0 0.52 0.2 0 0.54 0.2 0 0.56 0.2 0 0.58 0.2 0 0.6 0.2 0 0.62 0.2 0 0.64 0.2 0 0.66 0.2 0 0.68 0.2 0 0.7 0.2 0 0.72 0.2 0 0.74 0.2 0 0.76 0.2 0 0.78 0.2 0 0.8 0.2 0 0.82 0.2 0 0.84 0.2 0 0.86 0.2 0 0.88 0.2 0 0.9 0.2 0 0.92 0.2 0 0.94 0.2 0 0.96 0.2 0 0.98 0.2 0 1 0.2 0 0 0.22 0 0.02 0.22 0 0.04 0.22 0 0.06 0.22 0 0.08 0.22 0 0.1 0.22 0 0.12 0.22 0 0.14 0.22 0 0.16 0.22 0 0.18 0.22 0 0.2 0.22 0 0.22 0.22 0 0.24 0.22 0 0.26 0.22 0 0.28 0.22 0 0.3 0.22 0 0.32 0.22 0 0.34 0.22 0 0.36 0.22 0 0.38 0.22 0 0.4 0.22 0 0.42 0.22 0 0.44 0.22 0 0.46 0.22 0 0.48 0.22 0 0.5 0.22 0 0.52 0.22 0 0.54 0.22 0 0.56 0.22 0 0.58 0.22 0 0.6 0.22 0 0.62 0.22 0 0.64 0.22 0 0.66 0.22 0 0.68 0.22 0 0.7 0.22 0 0.72 0.22 0 0.74 0.22 0 0.76 0.22 0 0.78 0.22 0 0.8 0.22 0 0.82 0.22 0 0.84 0.22 0 0.86 0.22 0 0.88 0.22 0 0.9 0.22 0 0.92 0.22 0 0.94 0.22 0 0.96 0.22 0 0.98 0.22 0 1 0.22 0 0 0.24 0 0.02 0.24 0 0.04 0.24 0 0.06 0.24 0 0.08 0.24 0 0.1 0.24 0 0.12 0.24 0 0.14 0.24 0 0.16 0.24 0 0.18 0.24 0 0.2 0.24 0 0.22 0.24 0 0.24 0.24 0 0.26 0.24 0 0.28 0.24 0 0.3 0.24 0 0.32 0.24 0 0.34 0.24 0 0.36 0.24 0 0.38 0.24 0 0.4 0.24 0 0.42 0.24 0 0.44 0.24 0 0.46 0.24 0 0.48 0.24 0 0.5 0.24 0 0.52 0.24 0 0.54 0.24 0 0.56 0.24 0 0.58 0.24 0 0.6 0.24 0 0.62 0.24 0 0.64 0.24 0 0.66 0.24 0 0.68 0.24 0 0.7 0.24 0 0.72 0.24 0 0.74 0.24 0 0.76 0.24 0 0.78 0.24 0 0.8 0.24 0 0.82 0.24 0 0.84 0.24 0 0.86 0.24 0 0.88 0.24 0 0.9 0.24 0 0.92 0.24 0 0.94 0.24 0 0.96 0.24 0 0.98 0.24 0 1 0.24 0 0 0.26 0 0.02 0.26 0 0.04 0.26 0 0.06 0.26 0 0.08 0.26 0 0.1 0.26 0 0.12 0.26 0 0.14 0.26 0 0.16 0.26 0 0.18 0.26 0 0.2 0.26 0 0.22 0.26 0 0.24 0.26 0 0.26 0.26 0 0.28 0.26 0 0.3 0.26 0 0.32 0.26 0 0.34 0.26 0 0.36 0.26 0 0.38 0.26 0 0.4 0.26 0 0.42 0.26 0 0.44 0.26 0 0.46 0.26 0 0.48 0.26 0 0.5 0.26 0 0.52 0.26 0 0.54 0.26 0 0.56 0.26 0 0.58 0.26 0 0.6 0.26 0 0.62 0.26 0 0.64 0.26 0 0.66 0.26 0 0.68 0.26 0 0.7 0.26 0 0.72 0.26 0 0.74 0.26 0 0.76 0.26 0 0.78 0.26 0 0.8 0.26 0 0.82 0.26 0 0.84 0.26 0 0.86 0.26 0 0.88 0.26 0 0.9 0.26 0 0.92 0.26 0 0.94 0.26 0 0.96 0.26 0 0.98 0.26 0 1 0.26 0 0 0.28 0 0.02 0.28 0 0.04 0.28 0 0.06 0.28 0 0.08 0.28 0 0.1 0.28 0 0.12 0.28 0 0.14 0.28 0 0.16 0.28 0 0.18 0.28 0 0.2 0.28 0 0.22 0.28 0 0.24 0.28 0 0.26 0.28 0 0.28 0.28 0 0.3 0.28 0 0.32 0.28 0 0.34 0.28 0 0.36 0.28 0 0.38 0.28 0 0.4 0.28 0 0.42 0.28 0 0.44 0.28 0 0.46 0.28 0 0.48 0.28 0 0.5 0.28 0 0.52 0.28 0 0.54 0.28 0 0.56 0.28 0 0.58 0.28 0 0.6 0.28 0 0.62 0.28 0 0.64 0.28 0 0.66 0.28 0 0.68 0.28 0 0.7 0.28 0 0.72 0.28 0 0.74 0.28 0 0.76 0.28 0 0.78 0.28 0 0.8 0.28 0 0.82 0.28 0 0.84 0.28 0 0.86 0.28 0 0.88 0.28 0 0.9 0.28 0 0.92 0.28 0 0.94 0.28 0 0.96 0.28 0 0.98 0.28 0 1 0.28 0 0 0.3 0 0.02 0.3 0 0.04 0.3 0 0.06 0.3 0 0.08 0.3 0 0.1 0.3 0 0.12 0.3 0 0.14 0.3 0 0.16 0.3 0 0.18 0.3 0 0.2 0.3 0 0.22 0.3 0 0.24 0.3 0 0.26 0.3 0 0.28 0.3 0 0.3 0.3 0 0.32 0.3 0 0.34 0.3 0 0.36 0.3 0 0.38 0.3 0 0.4 0.3 0 0.42 0.3 0 0.44 0.3 0 0.46 0.3 0 0.48 0.3 0 0.5 0.3 0 0.52 0.3 0 0.54 0.3 0 0.56 0.3 0 0.58 0.3 0 0.6 0.3 0 0.62 0.3 0 0.64 0.3 0 0.66 0.3 0 0.68 0.3 0 0.7 0.3 0 0.72 0.3 0 0.74 0.3 0 0.76 0.3 0 0.78 0.3 0 0.8 0.3 0 0.82 0.3 0 0.84 0.3 0 0.86 0.3 0 0.88 0.3 0 0.9 0.3 0 0.92 0.3 0 0.94 0.3 0 0.96 0.3 0 0.98 0.3 0 1 0.3 0 0 0.32 0 0.02 0.32 0 0.04 0.32 0 0.06 0.32 0 0.08 0.32 0 0.1 0.32 0 0.12 0.32 0 0.14 0.32 0 0.16 0.32 0 0.18 0.32 0 0.2 0.32 0 0.22 0.32 0 0.24 0.32 0 0.26 0.32 0 0.28 0.32 0 0.3 0.32 0 0.32 0.32 0 0.34 0.32 0 0.36 0.32 0 0.38 0.32 0 0.4 0.32 0 0.42 0.32 0 0.44 0.32 0 0.46 0.32 0 0.48 0.32 0 0.5 0.32 0 0.52 0.32 0 0.54 0.32 0 0.56 0.32 0 0.58 0.32 0 0.6 0.32 0 0.62 0.32 0 0.64 0.32 0 0.66 0.32 0 0.68 0.32 0 0.7 0.32 0 0.72 0.32 0 0.74 0.32 0 0.76 0.32 0 0.78 0.32 0 0.8 0.32 0 0.82 0.32 0 0.84 0.32 0 0.86 0.32 0 0.88 0.32 0 0.9 0.32 0 0.92 0.32 0 0.94 0.
[...]
			<PointData Scalars="VitesseX">
				<DataArray Name="VitesseX" type="Float32" format="ascii">
 0 0 0 0 0 0 0 0 0 0 0 0 0 0 0 0 0 0 0 0 0 0 0 0 0 0 0 0 0 0 0 0 0 0 0 0 0 0 0 0 0 0 0 0 0 0 0 0 0 0 -0 0 -0.000476638 -0.00189925 -0.00424549 -0.0074785 -0.0115474 -0.0163881 -0.0219242 -0.0280685 -0.034724 -0.0417856 -0.049142 -0.056676 -0.0642691 -0.0718028 -0.0791571 -0.0862161 -0.0928683 -0.0990087 -0.10454 -0.109376 -0.113439 -0.116666 -0.119018 -0.120426 -0.12089 -0.120414 -0.118963 -0.116604 -0.11336 -0.109282 -0.104436 -0.0988979 -0.0927545 -0.0861028 -0.0790477 -0.0717002 -0.0641765 -0.056594 -0.049071 -0.0417269 -0.0346773 -0.0280329 -0.0218985 -0.0163707 -0.0115365 -0.0074724 -0.00424254 -0.00189797 -0.000476459 -5.17272e-27 0 -0.000946055 -0.00377127 -0.00843297 -0.0148596 -0.0229514 -0.0325816 -0.0435988 -0.0558291 -0.0690788 -0.0831378 -0.0977826 -0.112777 -0.127884 -0.142868 -0.157487 -0.171509 -0.18471 -0.196882 -0.207832 -0.217386 -0.225395 -0.231733 -0.236343 -0.239044 -0.239864 -0.238883 -0.235906 -0.23116 -0.224667 -0.21653 -0.206878 -0.195866 -0.183665 -0.170468 -0.156483 -0.141926 -0.12703 -0.112023 -0.0971349 -0.0826034 -0.0686551 -0.0555081 -0.0433687 -0.0324275 -0.0228568 -0.0148082 -0.00840948 -0.00376263 -0.000944897 -1.02647e-26 0 -0.00140071 -0.00558541 -0.0124927 -0.0220184 -0.0340159 -0.0482983 -0.0646413 -0.0827868 -0.102447 -0.123308 -0.145038 -0.167282 -0.189688 -0.211905 -0.233574 -0.254346 -0.273889 -0.291894 -0.308074 -0.322173 -0.333971 -0.343282 -0.350044 -0.353954 -0.355041 -0.353547 -0.349013 -0.341903 -0.332217 -0.32011 -0.305777 -0.289445 -0.271371 -0.251838 -0.231153 -0.209636 -0.187628 -0.165464 -0.143478 -0.122021 -0.101427 -0.0820143 -0.0640878 -0.0479278 -0.0337888 -0.0218951 -0.0124366 -0.00556508 -0.001398 -1.51956e-26 0 -0.00183346 -0.00731328 -0.0163613 -0.0288436 -0.0445695 -0.0632954 -0.0847277 -0.108528 -0.134316 -0.161682 -0.190185 -0.219358 -0.248735 -0.27786 -0.306252 -0.333457 -0.359036 -0.382582 -0.40372 -0.422115 -0.437479 -0.449574 -0.458336 -0.463348 -0.464602 -0.462591 -0.456497 -0.447084 -0.434312 -0.418389 -0.399571 -0.378158 -0.354487 -0.328929 -0.30188 -0.273761 -0.245015 -0.216074 -0.187369 -0.159359 -0.132475 -0.107133 -0.083729 -0.0626272 -0.0441603 -0.0286216 -0.0162606 -0.00727703 -0.00182863 -1.98874e-26 0 -0.0022375 -0.00892762 -0.0199779 -0.0352275 -0.0544459 -0.0773366 -0.103541 -0.132645 -0.164185 -0.197654 -0.232513 -0.268184 -0.304095 -0.339691 -0.374378 -0.407595 -0.438808 -0.467516 -0.49326 -0.515633 -0.534286 -0.548929 -0.559503 -0.565493 -0.566819 -0.564282 -0.556661 -0.545042 -0.52934 -0.509815 -0.486782 -0.460607 -0.431704 -0.400524 -0.36755 -0.33329 -0.298285 -0.263054 -0.228116 -0.194027 -0.16131 -0.13047 -0.101983 -0.0762944 -0.053808 -0.0348818 -0.0198214 -0.00887165 -0.00223006 -2.42658e-26 0 -0.00260646 -0.010403 -0.0232853 -0.0410695 -0.0634893 -0.0902004 -0.120785 -0.15476 -0.191581 -0.230657 -0.271353 -0.312991 -0.354897 -0.396425 -0.436876 -0.475592 -0.511946 -0.545353 -0.575279 -0.60125 -0.62286 -0.639776 -0.651944 -0.658766 -0.660081 -0.657006 -0.64792 -0.634227 -0.6158 -0.592944 -0.566031 -0.53549 -0.501804 -0.465496 -0.427127 -0.387286 -0.346599 -0.305665 -0.265077 -0.22548 -0.187479 -0.151656 -0.118563 -0.0887142 -0.0625802 -0.0405774 -0.0230629 -0.010324 -0.00259597 -2.82612e-26 0 -0.00293452 -0.0117161 -0.0262315 -0.0462776 -0.0715572 -0.101684 -0.136189 -0.174524 -0.216076 -0.260173 -0.306097 -0.353074 -0.400342 -0.447171 -0.492764 -0.536376 -0.577297 -0.614867 -0.648483 -0.677613 -0.701801 -0.720678 -0.734197 -0.741682 -0.742917 -0.739286 -0.72883 -0.71323 -0.692324 -0.666462 -0.636067 -0.601626 -0.56368 -0.52282 -0.479673 -0.434898 -0.389198 -0.343236 -0.29767 -0.253224 -0.21057 -0.170359 -0.133207 -0.0996916 -0.070339 -0.0456188 -0.0259345 -0.0116114 -0.00292064 -3.18102e-26 0 -0.00321652 -0.0128462 -0.0287699 -0.0507695 -0.0785225 -0.111607 -0.149509 -0.191626 -0.237283 -0.285737 -0.336196 -0.387803 -0.439716 -0.491129 -0.541161 -0.588989 -0.633831 -0.67496 -0.711715 -0.743513 -0.769859 -0.790353 -0.80496 -0.812919 -0.814021 -0.809814 -0.798107 -0.780798 -0.757701 -0.729207 -0.695786 -0.657971 -0.61636 -0.571595 -0.524364 -0.475381 -0.425412 -0.375178 -0.325386 -0.276823 -0.230221 -0.186285 -0.145687 -0.109054 -0.0769627 -0.049927 -0.028391 -0.0127138 -0.00319901 -3.48563e-26 0 -0.00344802 -0.0137755 -0.0308606 -0.0544746 -0.0842755 -0.119814 -0.160537 -0.205798 -0.254869 -0.306949 -0.361179 -0.416633 -0.4724 -0.527609 -0.581306 -0.632603 -0.680657 -0.724685 -0.763977 -0.79791 -0.825958 -0.847697 -0.863115 -0.871342 -0.872272 -0.867468 -0.854655 -0.83586 -0.810895 -0.780186 -0.744241 -0.703636 -0.65901 -0.611053 -0.560494 -0.508096 -0.454674 -0.400988 -0.347787 -0.295907 -0.246123 -0.199184 -0.155805 -0.116655 -0.0823473 -0.0534345 -0.030394 -0.013614 -0.00342671 -3.73511e-26 0 -0.00362538 -0.0144894 -0.0324706 -0.0573344 -0.0887257 -0.126174 -0.169098 -0.216816 -0.268559 -0.323475 -0.380654 -0.439111 -0.497881 -0.556038 -0.612568 -0.666532 -0.717037 -0.763257 -0.804444 -0.839945 -0.869211 -0.891804 -0.907744 -0.916019 -0.916752 -0.911331 -0.897577 -0.877546 -0.851066 -0.818595 -0.78067 -0.737902 -0.690963 -0.640574 -0.587499 -0.532533 -0.476526 -0.420263 -0.364523 -0.310176 -0.258027 -0.208855 -0.163404 -0.122374 -0.0864083 -0.0560862 -0.0319121 -0.0142979 -0.0036002 -3.92549e-26 0 -0.0037458 -0.0149765 -0.0335744 -0.0593039 -0.0918028 -0.130588 -0.175058 -0.224508 -0.278136 -0.335055 -0.394314 -0.454884 -0.515758 -0.575968 -0.634456 -0.690243 -0.7424 -0.790069 -0.832478 -0.868953 -0.898934 -0.921976 -0.938143 -0.946243 -0.946803 -0.941016 -0.926636 -0.905775 -0.878266 -0.84459 -0.80531 -0.761061 -0.71254 -0.660494 -0.605711 -0.549005 -0.491253 -0.433254 -0.375806 -0.319801 -0.266062 -0.215388 -0.168542 -0.126244 -0.0891574 -0.0578817 -0.03294 -0.0147609 -0.00371753 -4.05375e-26 0 -0.00380826 -0.015236 -0.0341768 -0.0604018 -0.0935504 -0.133135 -0.178545 -0.229056 -0.283847 -0.342003 -0.402543 -0.464399 -0.526538 -0.587951 -0.647551 -0.704326 -0.75732 -0.805653 -0.848536 -0.885287 -0.915341 -0.93826 -0.954197 -0.961596 -0.961782 -0.954842 -0.939624 -0.91781 -0.88935 -0.854741 -0.814561 -0.769456 -0.720129 -0.667329 -0.611844 -0.554486 -0.49613 -0.437559 -0.379578 -0.323068 -0.268849 -0.217717 -0.170434 -0.127723 -0.0902525 -0.0586292 -0.0333883 -0.0149726 -0.00377385 -4.11783e-26 0 -0.00380831 -0.0152368 -0.0341804 -0.0604123 -0.0935746 -0.133181 -0.178623 -0.229177 -0.284019 -0.342231 -0.402827 -0.464733 -0.526913 -0.588353 -0.647961 -0.704724 -0.757687 -0.805972 -0.848794 -0.885479 -0.915469 -0.93833 -0.954225 -0.9616 -0.961777 -0.9548 -0.939514 -0.917611 -0.889048 -0.854333 -0.814054 -0.768868 -0.719484 -0.666655 -0.611172 -0.553843 -0.495543 -0.437043 -0.379146 -0.322725 -0.268591 -0.217534 -0.170315 -0.127652 -0.0902151 -0.0586127 -0.0333827 -0.0149714 -0.00377376 -4.11673e-26 0 -0.00375221 -0.0150275 -0.0337431 -0.0596918 -0.0925318 -0.13179 -0.176863 -0.227033 -0.281473 -0.339263 -0.399409 -0.460821 -0.522468 -0.583312 -0.642257 -0.698282 -0.750427 -0.797812 -0.839658 -0.875298 -0.904191 -0.925927 -0.940824 -0.946707 -0.946461 -0.938573 -0.922971 -0.900829 -0.872226 -0.837676 -0.797765 -0.753139 -0.704495 -0.652567 -0.598121 -0.541938 -0.484863 -0.427627 -0.371016 -0.315862 -0.262949 -0.213038 -0.166865 -0.125128 -0.0884803 -0.0575212 -0.0327832 -0.0147134 -0.00371147 -4.05046e-26 0 -0.00363426 -0.0145604 -0.0327064 -0.057879 -0.089753 -0.127874 -0.17166 -0.22041 -0.273321 -0.329489 -0.387944 -0.447612 -0.507488 -0.566546 -0.623716 -0.677999 -0.72846 -0.774246 -0.814603 -0.848894 -0.876602 -0.897345 -0.911495 -0.916699 -0.916287 -0.907811 -0.892252 -0.870322 -0.842205 -0.808413 -0.769523 -0.726164 -0.679013 -0.628778 -0.576187 -0.521988 -0.466988 -0.411864 -0.357375 -0.304303 -0.253391 -0.205363 -0.160917 -0.120723 -0.0854095 -0.0555561 -0.0316822 -0.0142287 -0.00359138 -3.9201e-26 0 -0.00346022 -0.013873 -0.0311842 -0.0552219 -0.0856855 -0.122147 -0.164053 -0.210731 -0.261407 -0.315207 -0.371189 -0.428308 -0.485597 -0.542049 -0.596628 -0.648367 -0.696365 -0.739802 -0.777961 -0.810239 -0.836155 -0.85536 -0.868322 -0.87235 -0.871691 -0.862672 -0.847359 -0.825936 -0.798706 -0.76617 -0.728888 -0.687463 -0.642541 -0.594791 -0.544896 -0.493552 -0.441514 -0.389399 -0.337922 -0.2878 -0.239723 -0.194362 -0.15237 -0.114374 -0.0809672 -0.0527018 -0.0300762 -0.0135181 -0.00341451 -3.72771e-26 0 -0.00323183 -0.0129686 -0.029176 -0.0517074 -0.0802919 -0.114535 -0.153921 -0.197817 -0.245487 -0.296101 -0.34876 -0.402461 -0.45629 -0.50927 -0.560416 -0.608809 -0.653591 -0.693989 -0.729333 -0.759064 -0.782746 -0.800069 -0.811592 -0.814316 -0.813384 -0.803888 -0.789014 -0.768384 -0.742421 -0.711615 -0.6765 -0.637642 -0.59565 -0.551141 -0.504738 -0.457077 -0.408843 -0.360584 -0.312961 -0.266612 -0.222158 -0.180208 -0.141356 -0.106179 -0.0752228 -0.0490032 -0.0279902 -0.0125929 -0.00318362 -3.47638e-26 0 -0.00295272 -0.0118614 -0.0267136 -0.0473907 -0.073657 -0.105159 -0.141424 -0.181869 -0.22581 -0.272472 -0.321009 -0.370478 -0.420028 -0.468726 -0.515654 -0.55995 -0.600815 -0.637536 -0.669495 -0.696188 -0.717231 -0.732455 -0.741921 -0.743924 -0.741967 -0.732535 -0.718152 -0.698587 -0.674254 -0.645621 -0.613193 -0.577495 -0.539084 -0.498513 -0.456339 -0.413131 -0.369486 -0.325872 -0.282885 -0.24107 -0.200971 -0.163122 -0.12805 -0.0962667 -0.0682663 -0.0445182 -0.0254569 -0.0114673 -0.00290231 -3.17011e-26 0 -0.00262726 -0.0105689 -0.0238357 -0.0423401 -0.0658856 -0.0941646 -0.126758 -0.16314 -0.202687 -0.244691 -0.288373 -0.332862 -0.37738 -0.421055 -0.463047 -0.502563 -0.538875 -0.571336 -0.599396 -0.622611 -0.640652 -0.65352 -0.660635 -0.662016 -0.658843 -0.649627 -0.635903 -0.617658 -0.595291 -0.569243 -0.53998 -0.507981 -0.473736 -0.437736 -0.400465 -0.362409 -0.324055 -0.285806 -0.248162 -0.211575 -0.176495 -0.143374 -0.112659 -0.0847932 -0.060207 -0.0393171 -0.022516 -0.0101589 -0.00257497 -2.81376e-26 0 -0.0022606 -0.00911157 -0.0205878 -0.0366352 -0.0571003 -0.0817268 -0.110155 -0.141924 -0.176482 -0.213196 -0.251365 -0.290206 -0.32902 -0.36701 -0.403425 -0.437554 -0.468749 -0.496439 -0.520147 -0.539498 -0.554224 -0.564474 -0.569134 -0.56975 -0.565405 -0.556477 -0.543574 -0.526883 -0.506779 -0.483683 -0.458013 -0.430191 -0.400638 -0.369772 -0.337996 -0.305706 -0.273265 -0.241017 -0.209339 -0.178587 -0.149112 -0.121271 -0.0954259 -0.0719384 -0.0511713 -0.0334814 -0.0192136 -0.00868811 -0.00220672 -2.41302e-26 0 -0.00185849 -0.00751236 -0.0170211 -0.030366 -0.0474396 -0.0680414 -0.0918764 -0.118557 -0.147609 -0.178484 -0.210569 -0.243185 -0.27571 -0.307444 -0.337729 -0.365949 -0.391542 -0.414024 -0.432997 -0.44816 -0.459332 -0.466653 -0.468964 -0.468484 -0.463184 -0.454559 -0.442617 -0.427683 -0.410116 -0.390291 -0.368579 -0.345345 -0.320937 -0.295692 -0.269915 -0.24391 -0.217917 -0.192206 -0.167027 -0.142627 -0.119253 -0.0971624 -0.0766202 -0.0579044 -0.0413012 -0.027103 -0.0156015 -0.00707791 -0.00180334 -1.97423e-26 0 -0.00142729 -0.00579651 -0.013192 -0.0236315 -0.0370562 -0.0533248 -0.0722115 -0.0934068 -0.116523 -0.141104 -0.16663 -0.192542 -0.218292 -0.243295 -0.266996 -0.288876 -0.308472 -0.325391 -0.33932 -0.350034 -0.357549 -0.361327 -0.362096 -0.359536 -0.35387 -0.345478 -0.334623 -0.321626 -0.306821 -0.290536 -0.273092 -0.254785 -0.23589 -0.216658 -0.197299 -0.17798 -0.158881 -0.140142 -0.12189 -0.104259 -0.0873887 -0.0714261 -0.0565382 -0.0429117 -0.030752 -0.020282 -0.0117364 -0.00535349 -0.00137114 -1.50437e-26 0 -0.000973773 -0.00399109 -0.00916085 -0.0165382 -0.0261142 -0.0378095 -0.0514713 -0.0668726 -0.0837172 -0.101647 -0.120246 -0.139073 -0.157674 -0.175578 -0.192341 -0.207551 -0.220847 -0.231934 -0.240586 -0.246735 -0.250089 -0.25095 -0.249288 -0.245202 -0.239027 -0.230944 -0.221293 -0.210383 -0.198519 -0.185984 -0.173045 -0.159939 -0.146841 -0.133913 -0.121265 -0.108973 -0.0970892 -0.0856428 -0.0746393 -0.0640893 -0.0540199 -0.0444681 -0.0354962 -0.0271966 -0.0196898 -0.0131259 -0.00767921 -0.0035419 -0.000916905 -1.01086e-26 0 -0.000505097 -0.00212459 -0.0049913 -0.00919786 -0.0147864 -0.021741 -0.0299838 -0.0393741 -0.0497103 -0.0607377 -0.0721515 -0.0836256 -0.0948117 -0.105361 -0.114942 -0.123254 -0.130046 -0.135133 -0.138372 -0.139647 -0.139131 -0.136714 -0.132671 -0.127171 -0.120452 -0.112749 -0.104404 -0.0957071 -0.0869272 -0.0783037 -0.0700419 -0.0623057 -0.0552019 -0.0487867 -0.0430686 -0.0380103 -0.0335479 -0.029595 -0.026041 -0.0227694 -0.0196883 -0.0167243 -0.0138337 -0.0110116 -0.00829175 -0.00574862 -0.00349417 -0.00167167 -0.000447784 -5.01527e-27 0 -2.86468e-05 -0.000226453 -0.000749163 -0.00172657 -0.00325181 -0.00537319 -0.00808909 -0.0113465 -0.0150413 -0.0190246 -0.0231078 -0.0270757 -0.0307001 -0.0337524 -0.0360188 -0.037315 -0.0374983 -0.0364751 -0.0342101 -0.0307287 -0.0261184 -0.0205245 -0.0141429 -0.00721214 1.52807e-07 0.00721247 0.0141413 0.0205244 0.0261195 0.0307294 0.0342109 0.0364754 0.0375008 0.0373167 0.0360143 0.0337488 0.0307033 0.027082 0.0231079 0.0190221 0.0150408 0.0113461 0.00808939 0.00537335 0.00325182 0.00172657 0.000749164 0.000226453 2.86468e-05 1.55981e-28 0 0.000447784 0.00167167 0.00349417 0.00574862 0.00829175 0.0110117 0.013834 0.0167241 0.0196882 0.0227684 0.0260394 0.0295986 0.0335533 0.0380105 0.0430649 0.0487845 0.0552022 0.0623086 0.0700456 0.078305 0.0869278 0.0957078 0.104403 0.112747 0.120452 0.127171 0.13267 0.136715 0.139133 0.139648 0.138373 0.135132 0.130048 0.123259 0.114941 0.105356 0.0948114 0.0836312 0.0721532 0.0607353 0.0497098 0.0393737 0.0299841 0.0217413 0.0147864 0.00919786 0.0049913 0.00212459 0.000505097 5.32356e-27 0 0.000916905 0.0035419 0.00767921 0.0131259 0.0196898 0.0271966 0.0354965 0.0444681 0.0540204 0.0640896 0.0746374 0.0856432 0.0970941 0.108976 0.121265 0.133912 0.146841 0.15994 0.173046 0.185984 0.198518 0.210383 0.221292 0.230941 0.239025 0.245203 0.249287 0.250951 0.250092 0.246738 0.240587 0.231934 0.220846 0.207553 0.192344 0.175574 0.15767 0.139076 0.120249 0.101646 0.0837167 0.0668724 0.0514717 0.03781 0.0261142 0.0165381 0.00916085 0.00399109 0.000973773 1.04061e-26 0 0.00137114 0.00535349 0.0117364 0.020282 0.030752 0.0429117 0.0565383 0.0714262 0.0873892 0.10426 0.12189 0.140141 0.158884 0.177984 0.197299 0.21666 0.235895 0.254787 0.273091 0.290535 0.306821 0.321627 0.334623 0.345477 0.353868 0.359536 0.362096 0.361328 0.357551 0.350037 0.339321 0.325392 0.308471 0.288875 0.266996 0.243294 0.218289 0.192542 0.166633 0.141103 0.116522 0.0934072 0.0722123 0.0533255 0.0370564 0.0236315 0.013192 0.00579651 0.00142729 1.53236e-26 0 0.00180334 0.00707791 0.0156015 0.027103 0.0413012 0.0579044 0.0766203 0.0971624 0.119254 0.142627 0.167028 0.192206 0.217917 0.243912 0.269917 0.295694 0.320941 0.345346 0.36858 0.390291 0.410115 0.42768 0.442615 0.45456 0.463184 0.468483 0.468964 0.466653 0.459331 0.448159 0.432998 0.414025 0.391542 0.365946 0.337728 0.307445 0.275708 0.243184 0.21057 0.178479 0.147605 0.118558 0.0918779 0.0680426 0.0474399 0.030366 0.0170211 0.00751236 0.00185849 1.99989e-26 0 0.00220672 0.00868811 0.0192136 0.0334814 0.0511713 0.0719384 0.0954259 0.121271 0.149112 0.178587 0.20934 0.241017 0.273264 0.305707 0.337998 0.369775 0.40064 0.430189 0.458011 0.483683 0.506779 0.526877 0.543571 0.556478 0.565405 0.569749 0.569134 0.564473 0.554222 0.539494 0.520145 0.496438 0.468749 0.437553 0.403423 0.367011 0.329018 0.290204 0.251364 0.213188 0.176478 0.141927 0.110157 0.0817285 0.0571008 0.0366352 0.0205878 0.00911157 0.0022606 2.43587e-26 0 0.00257497 0.0101589 0.022516 0.0393171 0.060207 0.0847932 0.112659 0.143374 0.176494 0.211574 0.248163 0.285808 0.324054 0.362407 0.400465 0.437736 0.473737 0.507981 0.539979 0.569242 0.59529 0.617656 0.635902 0.649626 0.658842 0.662015 0.660634 0.653519 0.640652 0.62261 0.599394 0.571336 0.538876 0.502563 0.46304 0.421049 0.377379 0.332859 0.288369 0.244682 0.202683 0.163144 0.126762 0.0941671 0.0658864 0.0423401 0.0238357 0.0105689 0.00262726 2.83346e-26 0 0.00290231 0.0114673 0.0254569 0.0445182 0.0682663 0.0962667 0.12805 0.163122 0.200971 0.241069 0.282884 0.325872 0.369486 0.413128 0.456336 0.498508 0.539082 0.577496 0.613192 0.645621 0.674253 0.698585 0.71815 0.732533 0.741966 0.743924 0.74192 0.732454 0.717228 0.696187 0.669493 0.637535 0.600817 0.559951 0.515644 0.468715 0.420026 0.370475 0.321005 0.272461 0.225804 0.181874 0.141429 0.105162 0.073658 0.0473907 0.0267136 0.0118614 0.00295272 3.18643e-26 0 0.00318362 0.0125929 0.0279902 0.0490032 0.0752228 0.106179 0.141356 0.180208 0.222158 0.266612 0.31296 0.360584 0.408843 0.457074 0.504732 0.551135 0.595647 0.637639 0.676493 0.71161 0.742418 0.768381 0.789012 0.803887 0.813384 0.814316 0.811592 0.800067 0.782743 0.759061 0.729332 0.693989 0.653592 0.60881 0.560404 0.509257 0.456289 0.402458 0.348755 0.296088 0.24548 0.197823 0.153927 0.114539 0.080293 0.0517074 0.029176 0.0129686 0.00323183 3.48927e-26 0 0.00341451 0.0135181 0.0300762 0.0527018 0.0809672 0.114374 0.15237 0.194362 0.239723 0.2878 0.337921 0.389399 0.441515 0.493553 0.544893 0.594788 0.642538 0.687458 0.72888 0.766163 0.7987 0.825932 0.847357 0.862672 0.871691 0.87235 0.868321 0.855358 0.836153 0.810237 0.77796 0.739802 0.696365 0.648368 0.596613 0.542035 0.485596 0.428303 0.37119 0.315202 0.261405 0.21074 0.16406 0.122151 0.0856867 0.0552219 0.0311842 0.013873 0.00346022 3.73724e-26 0 0.00359138 0.0142287 0.0316822 0.0555561 0.0854095 0.120723 0.160917 0.205363 0.253391 0.304303 0.357374 0.411864 0.466988 0.52199 0.576187 0.628778 0.679014 0.726163 0.76952 0.808411 0.842203 0.87032 0.892251 0.907811 0.916287 0.916699 0.911494 0.897344 0.876601 0.848892 0.814603 0.774245 0.728461 0.678 0.623701 0.566533 0.507486 0.447606 0.387953 0.329496 0.273324 0.22042 0.171667 0.127878 0.0897541 0.057879 0.0327064 0.0145604 0.00363426 3.92647e-26 0 0.00371147 0.0147134 0.0327832 0.0575212 0.0884803 0.125128 0.166865 0.213038 0.262949 0.315862 0.371016 0.427627 0.484863 0.541939 0.598122 0.652569 0.704496 0.75314 0.797765 0.837676 0.872226 0.900829 0.922971 0.938573 0.946461 0.946707 0.940823 0.925926 0.904189 0.875296 0.839657 0.797812 0.750428 0.698283 0.642245 0.583303 0.522466 0.460813 0.399416 0.339269 0.281478 0.227044 0.176871 0.131793 0.0925326 0.0596918 0.0337431 0.0150275 0.00375221 4.054e-26 0 0.00377376 0.0149714 0.0333827 0.0586127 0.0902151 0.127652 0.170315 0.217534 0.268591 0.322725 0.379146 0.437043 0.495543 0.553843 0.611172 0.666655 0.719484 0.768868 0.814054 0.854333 0.889047 0.917611 0.939514 0.9548 0.961777 0.9616 0.954224 0.938329 0.915468 0.885479 0.848794 0.805972 0.757688 0.704725 0.647952 0.588349 0.526912 0.464723 0.402826 0.342231 0.284024 0.229188 0.17863 0.133184 0.093575 0.0604123 0.0341804 0.0152368 0.00380831 4.11783e-26 0 0.00377385 0.0149726 0.0333883 0.0586292 0.0902525 0.127723 0.170434 0.217717 0.268849 0.323068 0.379578 0.437559 0.49613 0.554486 0.611844 0.667329 0.720129 0.769456 0.814561 0.854741 0.88935 0.91781 0.939624 0.954842 0.961782 0.961597 0.954197 0.938259 0.91534 0.885287 0.848536 0.805654 0.757321 0.704327 0.647547 0.587952 0.526536 0.464398 0.402545 0.342002 0.283853 0.229066 0.178551 0.133137 0.0935507 0.0604018 0.0341768 0.015236 0.00380826 4.11697e-26 0 0.00371753 0.0147609 0.03294 0.0578817 0.0891574 0.126244 0.168542 0.215388 0.266062 0.319801 0.375806 0.433254 0.491253 0.549005 0.605711 0.660494 0.71254 0.761061 0.80531 0.84459 0.878266 0.905775 0.926636 0.941016 0.946803 0.946243 0.938142 0.921975 0.898934 0.868954 0.832478 0.79007 0.742401 0.690243 0.634459 0.575971 0.515755 0.454889 0.394321 0.335057 0.278142 0.224516 0.175063 0.130589 0.091803 0.0593039 0.0335744 0.0149765 0.0037458 4.05142e-26 0 0.0036002 0.0142979 0.0319121 0.0560862 0.0864083 0.122374 0.163404 0.208855 0.258027 0.310176 0.364523 0.420263 0.476526 0.532533 0.587499 0.640574 0.690963 0.737902 0.78067 0.818595 0.851066 0.877546 0.897577 0.911331 0.916752 0.916019 0.907743 0.891803 0.86921 0.839945 0.804444 0.763258 0.