<?xml version="1.0"?>
<VTKFile type="PolyData">
	<PolyData>
		<Piece NumberOfPoints="2601" NumberOfPolys="2500">
			<Points>
				<DataArray type="Float32" NumberOfComponents="3" format="ascii">
 0 0 0 0.02 0 0 0.04 0 0 0.06 0 0 0.08 0 0 0.1 0 0 0.12 0 0 0.14 0 0 0.16 0 0 0.18 0 0 0.2 0 0 0.22 0 0 0.24 0 0 0.26 0 0 0.28 0 0 0.3 0 0 0.32 0 0 0.34 0 0 0.36 0 0 0.38 0 0 0.4 0 0 0.42 0 0 0.44 0 0 0.46 0 0 0.48 0 0 0.5 0 0 0.52 0 0 0.54 0 0 0.56 0 0 0.58 0 0 0.6 0 0 0.62 0 0 0.64 0 0 0.66 0 0 0.68 0 0 0.7 0 0 0.72 0 0 0.74 0 0 0.76 0 0 0.78 0 0 0.8 0 0 0.82 0 0 0.84 0 0 0.86 0 0 0.88 0 0 0.9 0 0 0.92 0 0 0.94 0 0 0.96 0 0 0.98 0 0 1 0 0 0 0.02 0 0.02 0.02 0 0.04 0.02 0 0.06 0.02 0 0.08 0.02 0 0.1 0.02 0 0.12 0.02 0 0.14 0.02 0 0.16 0.02 0 0.18 0.02 0 0.2 0.02 0 0.22 0.02 0 0.24 0.02 0 0.26 0.02 0 0.28 0.02 0 0.3 0.02 0 0.32 0.02 0 0.34 0.02 0 0.36 0.02 0 0.38 0.02 0 0.4 0.02 0 0.42 0.02 0 0.44 0.02 0 0.46 0.02 0 0.48 0.02 0 0.5 0.02 0 0.52 0.02 0 0.54 0.02 0 0.56 0.02 0 0.58 0.02 0 0.6 0.02 0 0.62 0.02 0 0.64 0.02 0 0.66 0.02 0 0.68 0.02 0 0.7 0.02 0 0.72 0.02 0 0.74 0.02 0 0.76 0.02 0 0.78 0.02 0 0.8 0.02 0 0.82 0.02 0 0.84 0.02 0 0.86 0.02 0 0.88 0.02 0 0.9 0.02 0 0.92 0.02 0 0.94 0.02 0 0.96 0.02 0 0.98 0.02 0 1 0.02 0 0 0.04 0 0.02 0.04 0 0.04 0.04 0 0.06 0.04 0 0.08 0.04 0 0.1 0.04 0 0.12 0.04 0 0.14 0.04 0 0.16 0.04 0 0.18 0.04 0 0.2 0.04 0 0.22 0.04 0 0.24 0.04 0 0.26 0.04 0 0.28 0.04 0 0.3 0.04 0 0.32 0.04 0 0.34 0.04 0 0.36 0.04 0 0.38 0.04 0 0.4 0.04 0 0.42 0.04 0 0.44 0.04 0 0.46 0.04 0 0.48 0.04 0 0.5 0.04 0 0.52 0.04 0 0.54 0.04 0 0.56 0.04 0 0.58 0.04 0 0.6 0.04 0 0.62 0.04 0 0.64 0.04 0 0.66 0.04 0 0.68 0.04 0 0.7 0.04 0 0.72 0.04 0 0.74 0.04 0 0.76 0.04 0 0.78 0.04 0 0.8 0.04 0 0.82 0.04 0 0.84 0.04 0 0.86 0.04 0 0.88 0.04 0 0.9 0.04 0 0.92 0.04 0 0.94 0.04 0 0.96 0.04 0 0.98 0.04 0 1 0.04 0 0 0.06 0 0.02 0.06 0 0.04 0.06 0 0.06 0.06 0 0.08 0.06 0 0.1 0.06 0 0.12 0.06 0 0.14 0.06 0 0.16 0.06 0 0.18 0.06 0 0.2 0.06 0 0.22 0.06 0 0.24 0.06 0 0.26 0.06 0 0.28 0.06 0 0.3 0.06 0 0.32 0.06 0 0.34 0.06 0 0.36 0.06 0 0.38 0.06 0 0.4 0.06 0 0.42 0.06 0 0.44 0.06 0 0.46 0.06 0 0.48 0.06 0 0.5 0.06 0 0.52 0.06 0 0.54 0.06 0 0.56 0.06 0 0.58 0.06 0 0.6 0.06 0 0.62 0.06 0 0.64 0.06 0 0.66 0.06 0 0.68 0.06 0 0.7 0.06 0 0.72 0.06 0 0.74 0.06 0 0.76 0.06 0 0.78 0.06 0 0.8 0.06 0 0.82 0.06 0 0.84 0.06 0 0.86 0.06 0 0.88 0.06 0 0.9 0.06 0 0.92 0.06 0 0.94 0.06 0 0.96 0.06 0 0.98 0.06 0 1 0.06 0 0 0.08 0 0.02 0.08 0 0.04 0.08 0 0.06 0.08 0 0.08 0.08 0 0.1 0.08 0 0.12 0.08 0 0.14 0.08 0 0.16 0.08 0 0.18 0.08 0 0.2 0.08 0 0.22 0.08 0 0.24 0.08 0 0.26 0.08 0 0.28 0.08 0 0.3 0.08 0 0.32 0.08 0 0.34 0.08 0 0.36 0.08 0 0.38 0.08 0 0.4 0.08 0 0.42 0.08 0 0.44 0.08 0 0.46 0.08 0 0.48 0.08 0 0.5 0.08 0 0.52 0.08 0 0.54 0.08 0 0.56 0.08 0 0.58 0.08 0 0.6 0.08 0 0.62 0.08 0 0.64 0.08 0 0.66 0.08 0 0.68 0.08 0 0.7 0.08 0 0.72 0.08 0 0.74 0.08 0 0.76 0.08 0 0.78 0.08 0 0.8 0.08 0 0.82 0.08 0 0.84 0.08 0 0.86 0.08 0 0.88 0.08 0 0.9 0.08 0 0.92 0.08 0 0.94 0.08 0 0.96 0.08 0 0.98 0.08 0 1 0.08 0 0 0.1 0 0.02 0.1 0 0.04 0.1 0 0.06 0.1 0 0.08 0.1 0 0.1 0.1 0 0.12 0.1 0 0.14 0.1 0 0.16 0.1 0 0.18 0.1 0 0.2 0.1 0 0.22 0.1 0 0.24 0.1 0 0.26 0.1 0 0.28 0.1 0 0.3 0.1 0 0.32 0.1 0 0.34 0.1 0 0.36 0.1 0 0.38 0.1 0 0.4 0.1 0 0.42 0.1 0 0.44 0.1 0 0.46 0.1 0 0.48 0.1 0 0.5 0.1 0 0.52 0.1 0 0.54 0.1 0 0.56 0.1 0 0.58 0.1 0 0.6 0.1 0 0.62 0.1 0 0.64 0.1 0 0.66 0.1 0 0.68 0.1 0 0.7 0.1 0 0.72 0.1 0 0.74 0.1 0 0.76 0.1 0 0.78 0.1 0 0.8 0.1 0 0.82 0.1 0 0.84 0.1 0 0.86 0.1 0 0.88 0.1 0 0.9 0.1 0 0.92 0.1 0 0.94 0.1 0 0.96 0.1 0 0.98 0.1 0 1 0.1 0 0 0.12 0 0.02 0.12 0 0.04 0.12 0 0.06 0.12 0 0.08 0.12 0 0.1 0.12 0 0.12 0.12 0 0.14 0.12 0 0.16 0.12 0 0.18 0.12 0 0.2 0.12 0 0.22 0.12 0 0.24 0.12 0 0.26 0.12 0 0.28 0.12 0 0.3 0.12 0 0.32 0.12 0 0.34 0.12 0 0.36 0.12 0 0.38 0.12 0 0.4 0.12 0 0.42 0.12 0 0.44 0.12 0 0.46 0.12 0 0.48 0.12 0 0.5 0.12 0 0.52 0.12 0 0.54 0.12 0 0.56 0.12 0 0.58 0.12 0 0.6 0.12 0 0.62 0.12 0 0.64 0.12 0 0.66 0.12 0 0.68 0.12 0 0.7 0.12 0 0.72 0.12 0 0.74 0.12 0 0.76 0.12 0 0.78 0.12 0 0.8 0.12 0 0.82 0.12 0 0.84 0.12 0 0.86 0.12 0 0.88 0.12 0 0.9 0.12 0 0.92 0.12 0 0.94 0.12 0 0.96 0.12 0 0.98 0.12 0 1 0.12 0 0 0.14 0 0.02 0.14 0 0.04 0.14 0 0.06 0.14 0 0.08 0.14 0 0.1 0.14 0 0.12 0.14 0 0.14 0.14 0 0.16 0.14 0 0.18 0.14 0 0.2 0.14 0 0.22 0.14 0 0.24 0.14 0 0.26 0.14 0 0.28 0.14 0 0.3 0.14 0 0.32 0.14 0 0.34 0.14 0 0.36 0.14 0 0.38 0.14 0 0.4 0.14 0 0.42 0.14 0 0.44 0.14 0 0.46 0.14 0 0.48 0.14 0 0.5 0.14 0 0.52 0.14 0 0.54 0.14 0 0.56 0.14 0 0.58 0.14 0 0.6 0.14 0 0.62 0.14 0 0.64 0.14 0 0.66 0.14 0 0.68 0.14 0 0.7 0.14 0 0.72 0.14 0 0.74 0.14 0 0.76 0.14 0 0.78 0.14 0 0.8 0.14 0 0.82 0.14 0 0.84 0.14 0 0.86 0.14 0 0.88 0.14 0 0.9 0.14 0 0.92 0.14 0 0.94 0.14 0 0.96 0.14 0 0.98 0.14 0 1 0.14 0 0 0.16 0 0.02 0.16 0 0.04 0.16 0 0.06 0.16 0 0.08 0.16 0 0.1 0.16 0 0.12 0.16 0 0.14 0.16 0 0.16 0.16 0 0.18 0.16 0 0.2 0.16 0 0.22 0.16 0 0.24 0.16 0 0.26 0.16 0 0.28 0.16 0 0.3 0.16 0 0.32 0.16 0 0.34 0.16 0 0.36 0.16 0 0.38 0.16 0 0.4 0.16 0 0.42 0.16 0 0.44 0.16 0 0.46 0.16 0 0.48 0.16 0 0.5 0.16 0 0.52 0.16 0 0.54 0.16 0 0.56 0.16 0 0.58 0.16 0 0.6 0.16 0 0.62 0.16 0 0.64 0.16 0 0.66 0.16 0 0.68 0.16 0 0.7 0.16 0 0.72 0.16 0 0.74 0.16 0 0.76 0.16 0 0.78 0.16 0 0.8 0.16 0 0.82 0.16 0 0.84 0.16 0 0.86 0.16 0 0.88 0.16 0 0.9 0.16 0 0.92 0.16 0 0.94 0.16 0 0.96 0.16 0 0.98 0.16 0 1 0.16 0 0 0.18 0 0.02 0.18 0 0.04 0.18 0 0.06 0.18 0 0.08 0.18 0 0.1 0.18 0 0.12 0.18 0 0.14 0.18 0 0.16 0.18 0 0.18 0.18 0 0.2 0.18 0 0.22 0.18 0 0.24 0.18 0 0.26 0.18 0 0.28 0.18 0 0.3 0.18 0 0.32 0.18 0 0.34 0.18 0 0.36 0.18 0 0.38 0.18 0 0.4 0.18 0 0.42 0.18 0 0.44 0.18 0 0.46 0.18 0 0.48 0.18 0 0.5 0.18 0 0.52 0.18 0 0.54 0.18 0 0.56 0.18 0 0.58 0.18 0 0.6 0.18 0 0.62 0.18 0 0.64 0.18 0 0.66 0.18 0 0.68 0.18 0 0.7 0.18 0 0.72 0.18 0 0.74 0.18 0 0.76 0.18 0 0.78 0.18 0 0.8 0.18 0 0.82 0.18 0 0.84 0.18 0 0.86 0.18 0 0.88 0.18 0 0.9 0.18 0 0.92 0.18 0 0.94 0.18 0 0.96 0.18 0 0.98 0.18 0 1 0.18 0 0 0.2 0 0.02 0.2 0 0.04 0.2 0 0.06 0.2 0 0.08 0.2 0 0.1 0.2 0 0.12 0.2 0 0.14 0.2 0 0.16 0.2 0 0.18 0.2 0 0.2 0.2 0 0.22 0.2 0 0.24 0.2 0 0.26 0.2 0 0.28 0.2 0 0.3 0.2 0 0.32 0.2 0 0.34 0.2 0 0.36 0.2 0 0.38 0.2 0 0.4 0.2 0 0.42 0.2 0 0.44 0.2 0 0.46 0.2 0 0.48 0.2 0 0.5 0.2 0 0.52 0.2 0 0.54 0.2 0 0.56 0.2 0 0.58 0.2 0 0.6 0.2 0 0.62 0.2 0 0.64 0.2 0 0.66 0.2 0 0.68 0.2 0 0.7 0.2 0 0.72 0.2 0 0.74 0.2 0 0.76 0.2 0 0.78 0.2 0 0.8 0.2 0 0.82 0.2 0 0.84 0.2 0 0.86 0.2 0 0.88 0.2 0 0.9 0.2 0 0.92 0.2 0 0.94 0.2 0 0.96 0.2 0 0.98 0.2 0 1 0.2 0 0 0.22 0 0.02 0.22 0 0.04 0.22 0 0.06 0.22 0 0.08 0.22 0 0.1 0.22 0 0.12 0.22 0 0.14 0.22 0 0.16 0.22 0 0.18 0.22 0 0.2 0.22 0 0.22 0.22 0 0.24 0.22 0 0.26 0.22 0 0.28 0.22 0 0.3 0.22 0 0.32 0.22 0 0.34 0.22 0 0.36 0.22 0 0.38 0.22 0 0.4 0.22 0 0.42 0.22 0 0.44 0.22 0 0.46 0.22 0 0.48 0.22 0 0.5 0.22 0 0.52 0.22 0 0.54 0.22 0 0.56 0.22 0 0.58 0.22 0 0.6 0.22 0 0.62 0.22 0 0.64 0.22 0 0.66 0.22 0 0.68 0.22 0 0.7 0.22 0 0.72 0.22 0 0.74 0.22 0 0.76 0.22 0 0.78 0.22 0 0.8 0.22 0 0.82 0.22 0 0.84 0.22 0 0.86 0.22 0 0.88 0.22 0 0.9 0.22 0 0.92 0.22 0 0.94 0.22 0 0.96 0.22 0 0.98 0.22 0 1 0.22 0 0 0.24 0 0.02 0.24 0 0.04 0.24 0 0.06 0.24 0 0.08 0.24 0 0.1 0.24 0 0.12 0.24 0 0.14 0.24 0 0.16 0.24 0 0.18 0.24 0 0.2 0.24 0 0.22 0.24 0 0.24 0.24 0 0.26 0.24 0 0.28 0.24 0 0.3 0.24 0 0.32 0.24 0 0.34 0.24 0 0.36 0.24 0 0.38 0.24 0 0.4 0.24 0 0.42 0.24 0 0.44 0.24 0 0.46 0.24 0 0.48 0.24 0 0.5 0.24 0 0.52 0.24 0 0.54 0.24 0 0.56 0.24 0 0.58 0.24 0 0.6 0.24 0 0.62 0.24 0 0.64 0.24 0 0.66 0.24 0 0.68 0.24 0 0.7 0.24 0 0.72 0.24 0 0.74 0.24 0 0.76 0.24 0 0.78 0.24 0 0.8 0.24 0 0.82 0.24 0 0.84 0.24 0 0.86 0.24 0 0.88 0.24 0 0.9 0.24 0 0.92 0.24 0 0.94 0.24 0 0.96 0.24 0 0.98 0.24 0 1 0.24 0 0 0.26 0 0.02 0.26 0 0.04 0.26 0 0.06 0.26 0 0.08 0.26 0 0.1 0.26 0 0.12 0.26 0 0.14 0.26 0 0.16 0.26 0 0.18 0.26 0 0.2 0.26 0 0.22 0.26 0 0.24 0.26 0 0.26 0.26 0 0.28 0.26 0 0.3 0.26 0 0.32 0.26 0 0.34 0.26 0 0.36 0.26 0 0.38 0.26 0 0.4 0.26 0 0.42 0.26 0 0.44 0.26 0 0.46 0.26 0 0.48 0.26 0 0.5 0.26 0 0.52 0.26 0 0.54 0.26 0 0.56 0.26 0 0.58 0.26 0 0.6 0.26 0 0.62 0.26 0 0.64 0.26 0 0.66 0.26 0 0.68 0.26 0 0.7 0.26 0 0.72 0.26 0 0.74 0.26 0 0.76 0.26 0 0.78 0.26 0 0.8 0.26 0 0.82 0.26 0 0.84 0.26 0 0.86 0.26 0 0.88 0.26 0 0.9 0.26 0 0.92 0.26 0 0.94 0.26 0 0.96 0.26 0 0.98 0.26 0 1 0.26 0 0 0.28 0 0.02 0.28 0 0.04 0.28 0 0.06 0.28 0 0.08 0.28 0 0.1 0.28 0 0.12 0.28 0 0.14 0.28 0 0.16 0.28 0 0.18 0.28 0 0.2 0.28 0 0.22 0.28 0 0.24 0.28 0 0.26 0.28 0 0.28 0.28 0 0.3 0.28 0 0.32 0.28 0 0.34 0.28 0 0.36 0.28 0 0.38 0.28 0 0.4 0.28 0 0.42 0.28 0 0.44 0.28 0 0.46 0.28 0 0.48 0.28 0 0.5 0.28 0 0.52 0.28 0 0.54 0.28 0 0.56 0.28 0 0.58 0.28 0 0.6 0.28 0 0.62 0.28 0 0.64 0.28 0 0.66 0.28 0 0.68 0.28 0 0.7 0.28 0 0.72 0.28 0 0.74 0.28 0 0.76 0.28 0 0.78 0.28 0 0.8 0.28 0 0.82 0.28 0 0.84 0.28 0 0.86 0.28 0 0.88 0.28 0 0.9 0.28 0 0.92 0.28 0 0.94 0.28 0 0.96 0.28 0 0.98 0.28 0 1 0.28 0 0 0.3 0 0.02 0.3 0 0.04 0.3 0 0.06 0.3 0 0.08 0.3 0 0.1 0.3 0 0.12 0.3 0 0.14 0.3 0 0.16 0.3 0 0.18 0.3 0 0.2 0.3 0 0.22 0.3 0 0.24 0.3 0 0.26 0.3 0 0.28 0.3 0 0.3 0.3 0 0.32 0.3 0 0.34 0.3 0 0.36 0.3 0 0.38 0.3 0 0.4 0.3 0 0.42 0.3 0 0.44 0.3 0 0.46 0.3 0 0.48 0.3 0 0.5 0.3 0 0.52 0.3 0 0.54 0.3 0 0.56 0.3 0 0.58 0.3 0 0.6 0.3 0 0.62 0.3 0 0.64 0.3 0 0.66 0.3 0 0.68 0.3 0 0.7 0.3 0 0.72 0.3 0 0.74 0.3 0 0.76 0.3 0 0.78 0.3 0 0.8 0.3 0 0.82 0.3 0 0.84 0.3 0 0.86 0.3 0 0.88 0.3 0 0.9 0.3 0 0.92 0.3 0 0.94 0.3 0 0.96 0.3 0 0.98 0.3 0 1 0.3 0 0 0.32 0 0.02 0.32 0 0.04 0.32 0 0.06 0.32 0 0.08 0.32 0 0.1 0.32 0 0.12 0.32 0 0.14 0.32 0 0.16 0.32 0 0.18 0.32 0 0.2 0.32 0 0.22 0.32 0 0.24 0.32 0 0.26 0.32 0 0.28 0.32 0 0.3 0.32 0 0.32 0.32 0 0.34 0.32 0 0.36 0.32 0 0.38 0.32 0 0.4 0.32 0 0.42 0.32 0 0.44 0.32 0 0.46 0.32 0 0.48 0.32 0 0.5 0.32 0 0.52 0.32 0 0.54 0.32 0 0.56 0.32 0 0.58 0.32 0 0.6 0.32 0 0.62 0.32 0 0.64 0.32 0 0.66 0.32 0 0.68 0.32 0 0.7 0.32 0 0.72 0.32 0 0.74 0.32 0 0.76 0.32 0 0.78 0.32 0 0.8 0.32 0 0.82 0.32 0 0.84 0.32 0 0.86 0.32 0 0.88 0.32 0 0.9 0.32 0 0.92 0.32 0 0.94 0.
[...]
			<PointData Scalars="VitesseX">
				<DataArray Name="VitesseX" type="Float32" format="ascii">
 0 0 0 0 0 0 0 0 0 0 0 0 0 0 0 0 0 0 0 0 0 0 0 0 0 0 0 0 0 0 0 0 0 0 0 0 0 0 0 0 0 0 0 0 0 0 0 0 0 0 0 0 0.000412881 0.00164475 0.0036765 0.00647548 0.00999749 0.0141869 0.0189775 0.0242939 0.0300522 0.0361617 0.0425265 0.0490462 0.0556176 0.0621378 0.0685053 0.074619 0.0803828 0.0857059 0.0905044 0.0947028 0.0982346 0.101044 0.103087 0.104341 0.104753 0.104349 0.103129 0.101091 0.0982945 0.0947731 0.0905826 0.0857893 0.0804685 0.0747044 0.0685878 0.0622154 0.0556876 0.0491082 0.0425801 0.0362061 0.0300875 0.0243207 0.0189969 0.0142 0.0100057 0.00648006 0.00367871 0.00164571 0.000413015 4.48072e-27 0 0.00081887 0.00326102 0.00728849 0.0128348 0.0198116 0.0281083 0.0375935 0.0481178 0.0595158 0.0716088 0.0842073 0.0971141 0.110125 0.123038 0.135655 0.147777 0.159212 0.169782 0.179321 0.187678 0.194721 0.200338 0.20444 0.207002 0.207849 0.207122 0.20477 0.200769 0.195268 0.188322 0.180038 0.170547 0.159998 0.148559 0.136411 0.123747 0.110768 0.0976821 0.0846948 0.072011 0.0598347 0.0483592 0.0377665 0.0282241 0.0198826 0.0128734 0.00730612 0.00326751 0.000819739 8.89011e-27 0 0.00121162 0.00482372 0.0107802 0.0189802 0.0292925 0.0415526 0.0555663 0.0711128 0.0879484 0.10581 0.124419 0.143485 0.162706 0.181789 0.200443 0.218373 0.235298 0.250955 0.265098 0.277503 0.287975 0.296346 0.302482 0.306371 0.307657 0.306673 0.303261 0.297383 0.289295 0.279055 0.266826 0.252798 0.237193 0.220258 0.202264 0.183497 0.164255 0.144853 0.125592 0.106778 0.0887154 0.0716934 0.0559821 0.0418308 0.0294629 0.0190727 0.0108222 0.00483897 0.00121365 1.31585e-26 0 0.00158495 0.00630831 0.0140966 0.024815 0.0382907 0.0543079 0.0726126 0.0929164 0.114901 0.138225 0.162526 0.187427 0.212533 0.237465 0.261847 0.285295 0.307442 0.327945 0.346483 0.362763 0.376527 0.387554 0.395665 0.400875 0.402602 0.401437 0.397055 0.389426 0.378908 0.365564 0.349601 0.33127 0.31086 0.288696 0.265132 0.240545 0.215328 0.189895 0.164642 0.139971 0.116285 0.0939634 0.0733624 0.0548094 0.0385977 0.0249814 0.0141721 0.00633548 0.00158857 1.72187e-26 0 0.001933 0.0076915 0.0171857 0.0302473 0.0466646 0.0661736 0.088464 0.113185 0.13995 0.168344 0.197929 0.228248 0.258819 0.289187 0.3189 0.347487 0.374507 0.399539 0.422193 0.442112 0.458979 0.472522 0.482519 0.489018 0.491185 0.489915 0.484667 0.475443 0.462695 0.446484 0.427059 0.404728 0.379842 0.352798 0.324028 0.293995 0.263182 0.2321 0.201231 0.171069 0.142109 0.114818 0.0896334 0.0669554 0.0471429 0.0305063 0.0173029 0.00773343 0.00193858 2.10069e-26 0 0.00225031 0.00895164 0.0199989 0.0351918 0.0542826 0.0769627 0.102871 0.131599 0.1627 0.195693 0.23007 0.265304 0.300836 0.336143 0.370704 0.403972 0.435436 0.464608 0.491035 0.514298 0.534029 0.549907 0.561671 0.5694 0.57201 0.570703 0.564711 0.554075 0.539332 0.520536 0.497979 0.472014 0.443052 0.411554 0.378025 0.343007 0.307067 0.270804 0.234783 0.19958 0.16578 0.13393 0.104539 0.0780771 0.0549639 0.0355604 0.0201653 0.00901076 0.00225817 2.44637e-26 0 0.00253192 0.010069 0.022492 0.0395708 0.0610249 0.0865054 0.115606 0.147869 0.182793 0.21984 0.258443 0.298013 0.337923 0.377593 0.416442 0.453858 0.489268 0.522126 0.55192 0.578181 0.60049 0.618485 0.631866 0.640744 0.643804 0.642519 0.635921 0.624079 0.607607 0.586552 0.561238 0.532063 0.499487 0.464031 0.426267 0.386806 0.346289 0.305399 0.26477 0.225058 0.186927 0.150996 0.117844 0.0879998 0.0619376 0.0400639 0.0227142 0.0101473 0.00254231 2.75349e-26 0 0.00277341 0.0110262 0.0246258 0.0433153 0.066785 0.0946513 0.126469 0.161739 0.199913 0.240406 0.282602 0.325861 0.369496 0.412884 0.455393 0.496357 0.535151 0.57118 0.603885 0.632747 0.657309 0.677171 0.691998 0.701918 0.705435 0.704218 0.697171 0.684346 0.666439 0.643487 0.61584 0.58393 0.548261 0.509406 0.467995 0.4247 0.380229 0.335336 0.290718 0.2471 0.205216 0.165749 0.129338 0.0965671 0.067954 0.043946 0.0249092 0.0111252 0.00278652 3.01724e-26 0 0.002971 0.0118082 0.026367 0.0463668 0.0714727 0.101273 0.135291 0.172991 0.213791 0.257068 0.302166 0.348406 0.395058 0.44146 0.486944 0.530799 0.572362 0.610997 0.646105 0.677137 0.70359 0.725034 0.741108 0.751946 0.755931 0.75482 0.747495 0.733925 0.714902 0.690445 0.660925 0.626799 0.588608 0.546969 0.502558 0.456097 0.408354 0.360144 0.312218 0.26536 0.22036 0.177956 0.138842 0.103643 0.0729182 0.0471453 0.0267159 0.011929 0.00298695 3.23349e-26 0 0.00312161 0.0124029 0.0276882 0.048677 0.0750144 0.106266 0.141931 0.181449 0.22421 0.269565 0.31683 0.365297 0.414209 0.462874 0.510599 0.556645 0.600318 0.640956 0.677929 0.710653 0.738606 0.761324 0.778424 0.790037 0.794498 0.793519 0.786098 0.772032 0.75223 0.726682 0.695779 0.659995 0.619895 0.576131 0.529416 0.480512 0.43023 0.379437 0.328934 0.279549 0.232118 0.187426 0.146205 0.109118 0.0767521 0.0496115 0.0281058 0.012546 0.00314045 3.39888e-26 0 0.00322345 0.0128053 0.0285828 0.050241 0.077412 0.109646 0.146424 0.187169 0.231255 0.27801 0.326735 0.376706 0.427143 0.477337 0.526581 0.574116 0.619231 0.661236 0.699478 0.733353 0.762321 0.785902 0.803688 0.815811 0.820553 0.819702 0.812371 0.798064 0.777832 0.751627 0.719852 0.682992 0.641625 0.596426 0.548137 0.497551 0.445513 0.392919 0.340609 0.289445 0.240307 0.19401 0.151312 0.112904 0.0793951 0.0513057 0.0290569 0.0129665 0.00324461 3.5108e-26 0 0.00327266 0.0129918 0.0289806 0.0509093 0.0783985 0.110989 0.148153 0.189311 0.233832 0.281044 0.330249 0.380726 0.431697 0.482449 0.53229 0.580464 0.626253 0.668954 0.707922 0.742554 0.772294 0.796648 0.815194 0.827979 0.833591 0.833013 0.826186 0.812016 0.791832 0.765514 0.733464 0.696167 0.654213 0.608285 0.559145 0.507612 0.454558 0.400909 0.347523 0.295286 0.245109 0.197837 0.15425 0.115055 0.0808755 0.0522391 0.029571 0.013189 0.00329843 3.56753e-26 0 0.0032726 0.012991 0.0289769 0.0508984 0.0783737 0.110942 0.148074 0.189191 0.233662 0.280818 0.329967 0.380389 0.431311 0.482025 0.531849 0.580027 0.625832 0.668568 0.707593 0.74229 0.7721 0.796521 0.815125 0.827954 0.833588 0.833015 0.826205 0.812063 0.791916 0.765641 0.733635 0.696378 0.654457 0.608552 0.559416 0.507874 0.4548 0.401122 0.347707 0.295437 0.245224 0.197919 0.154303 0.115085 0.0808913 0.0522462 0.0295734 0.0131895 0.00329847 3.56818e-26 0 0.0032189 0.0127696 0.0284648 0.0499695 0.0769016 0.108804 0.145159 0.185399 0.228908 0.275042 0.323129 0.372472 0.422328 0.472012 0.520879 0.568179 0.613207 0.655304 0.693834 0.728195 0.757831 0.782244 0.801 0.814051 0.820361 0.820136 0.814456 0.801102 0.781847 0.756458 0.725306 0.688865 0.647713 0.602525 0.554045 0.503106 0.450582 0.397402 0.344459 0.292626 0.242829 0.195917 0.152675 0.113809 0.0799446 0.0515984 0.0291839 0.0130049 0.00324943 3.51274e-26 0 0.00311499 0.0123509 0.0275157 0.0482783 0.0742629 0.105024 0.140061 0.178826 0.220731 0.265157 0.311469 0.358999 0.407048 0.454956 0.502127 0.547834 0.591397 0.632198 0.66962 0.703079 0.732032 0.75599 0.774523 0.787501 0.794236 0.794146 0.789008 0.776285 0.757863 0.733478 0.703472 0.6683 0.628519 0.584778 0.537808 0.488414 0.437454 0.385829 0.334414 0.284067 0.235695 0.190127 0.148135 0.110397 0.0775249 0.0500218 0.0282831 0.0125994 0.00314714 3.40208e-26 0 0.00296184 0.0117363 0.0261285 0.045816 0.0704345 0.0995574 0.132707 0.169368 0.208985 0.250981 0.294762 0.339707 0.38517 0.430533 0.475245 0.518626 0.560044 0.598913 0.634649 0.666696 0.694536 0.717696 0.735752 0.748488 0.755604 0.755736 0.751525 0.739798 0.722666 0.699802 0.671515 0.638228 0.600469 0.558858 0.514094 0.466953 0.418265 0.368907 0.319729 0.271557 0.225267 0.181661 0.141489 0.105396 0.0739766 0.047708 0.0269592 0.0120022 0.00299612 3.23793e-26 0 0.00276185 0.0109354 0.0243251 0.0426212 0.0654764 0.0924892 0.123214 0.157171 0.193855 0.232735 0.273271 0.314899 0.357039 0.399131 0.440669 0.481026 0.519646 0.555976 0.589478 0.619632 0.64595 0.667979 0.68531 0.697639 0.705076 0.705462 0.702287 0.69178 0.676238 0.655278 0.629171 0.5983 0.563162 0.524339 0.482491 0.438342 0.392676 0.346331 0.30014 0.254877 0.211374 0.170396 0.132652 0.0987607 0.0692805 0.0446515 0.0252145 0.0112172 0.00279804 3.02287e-26 0 0.00251815 0.0099608 0.0221335 0.0387439 0.0594665 0.0839305 0.111729 0.142429 0.175578 0.210705 0.247334 0.284966 0.323097 0.361239 0.398937 0.435632 0.470843 0.50407 0.534827 0.562635 0.587045 0.607629 0.624001 0.635822 0.643331 0.644261 0.641982 0.633031 0.61933 0.600623 0.57712 0.549162 0.517201 0.48177 0.443481 0.403002 0.361074 0.318464 0.275955 0.234288 0.194237 0.156511 0.121772 0.0906051 0.0635132 0.0409007 0.0230764 0.0102565 0.002556 2.76025e-26 0 0.00223455 0.00882766 0.0195884 0.0342453 0.0524991 0.0740156 0.0984328 0.125372 0.154442 0.185238 0.217357 0.250378 0.283881 0.317449 0.350699 0.383155 0.414404 0.444013 0.471553 0.496601 0.518751 0.537602 0.552797 0.564014 0.571314 0.573213 0.571496 0.564511 0.552836 0.536704 0.516194 0.491606 0.463329 0.431841 0.397695 0.361507 0.323944 0.285721 0.247553 0.210108 0.174115 0.14022 0.109022 0.0810538 0.0567632 0.0365149 0.0205787 0.00913541 0.00227382 2.4542e-26 0 0.00191548 0.00755368 0.0167295 0.0291958 0.0446838 0.0629002 0.0835352 0.106269 0.130778 0.156734 0.183812 0.211679 0.240002 0.268458 0.296721 0.324423 0.351222 0.37676 0.400663 0.42258 0.442152 0.459013 0.472834 0.48331 0.490341 0.49318 0.492147 0.487216 0.47778 0.464512 0.447351 0.426527 0.402381 0.37533 0.345859 0.314516 0.281891 0.248628 0.215381 0.182728 0.151336 0.121785 0.0945987 0.0702532 0.0491354 0.0315632 0.0177609 0.00787159 0.00195595 2.10949e-26 0 0.00156595 0.0061588 0.0136019 0.0236749 0.0361431 0.0507591 0.0672698 0.0854196 0.104959 0.125641 0.147228 0.169479 0.192157 0.215036 0.237854 0.26036 0.282287 0.303362 0.323278 0.341747 0.35846 0.3731 0.385369 0.39498 0.401704 0.405407 0.405212 0.402376 0.395403 0.385239 0.371694 0.354951 0.335321 0.313127 0.288784 0.262764 0.23558 0.207775 0.179943 0.152585 0.126263 0.101494 0.0787294 0.058374 0.0407506 0.0261237 0.0146674 0.00648499 0.00160738 1.73154e-26 0 0.00119145 0.00466485 0.0102546 0.0177692 0.0270115 0.0377835 0.0498925 0.063152 0.0773911 0.0924505 0.108182 0.124443 0.141097 0.15801 0.17502 0.191964 0.208677 0.224967 0.240603 0.255361 0.268983 0.281207 0.291773 0.300416 0.306893 0.311041 0.312346 0.311138 0.307075 0.300101 0.290398 0.278024 0.263208 0.246215 0.227371 0.207067 0.18573 0.163811 0.141802 0.120142 0.0992841 0.079666 0.0616662 0.0456049 0.0317423 0.0202828 0.0113472 0.0049975 0.00123363 1.32626e-26 0 0.000797844 0.00309528 0.00674038 0.0115719 0.0174331 0.0241781 0.0316772 0.0398172 0.0485095 0.0576847 0.0672883 0.0772808 0.087625 0.0982837 0.109206 0.120326 0.131566 0.142818 0.153943 0.164778 0.175124 0.184783 0.193526 0.201113 0.207306 0.211841 0.214616 0.215234 0.213954 0.210411 0.204715 0.196943 0.187186 0.17565 0.162591 0.148307 0.133132 0.117426 0.10156 0.0859125 0.0708309 0.0566525 0.0436786 0.0321493 0.0222543 0.0141326 0.00785245 0.00343257 0.000840569 9.00027e-27 0 0.000391339 0.00147482 0.00311479 0.0051815 0.00756061 0.0101605 0.0129167 0.0157912 0.0187804 0.0219056 0.0252091 0.0287531 0.0326062 0.0368298 0.0414767 0.0465866 0.0521733 0.0582274 0.0646751 0.071435 0.0783805 0.0853613 0.0921808 0.0986235 0.104471 0.109471 0.113448 0.116216 0.11765 0.117545 0.116046 0.112956 0.108434 0.102543 0.0954651 0.0874122 0.0786196 0.0693464 0.0598598 0.0504445 0.04135 0.0328145 0.0250504 0.0182192 0.0124354 0.00777012 0.00423851 0.0018149 0.000434399 4.59534e-27 0 -2.15194e-05 -0.000170009 -0.000562084 -0.00129555 -0.00244092 -0.00403501 -0.00607601 -0.00852585 -0.0113029 -0.0142944 -0.0173602 -0.0203393 -0.0230533 -0.0253394 -0.0270453 -0.028023 -0.0281708 -0.0274027 -0.0257203 -0.0231123 -0.0196493 -0.015436 -0.0106324 -0.00542167 -6.72152e-07 0.00542758 0.0106463 0.0154455 0.0196412 0.0230962 0.0257068 0.0274056 0.0281789 0.0280376 0.0270509 0.0253429 0.0230531 0.0203371 0.0173612 0.0142974 0.0113054 0.00852717 0.00607668 0.00403434 0.00244002 0.00129558 0.000562356 0.000170025 2.15195e-05 1.1712e-28 0 -0.000434399 -0.00181489 -0.00423823 -0.00777005 -0.0124366 -0.0182193 -0.02505 -0.0328141 -0.0413457 -0.0504413 -0.0598609 -0.0693483 -0.0786215 -0.087409 -0.0954598 -0.102526 -0.108414 -0.112946 -0.116059 -0.117564 -0.117666 -0.116213 -0.113438 -0.109467 -0.10447 -0.0986154 -0.0921731 -0.0853603 -0.0783901 -0.0714405 -0.0646777 -0.0582274 -0.0521751 -0.0465804 -0.0414716 -0.0368281 -0.0326064 -0.028754 -0.0252081 -0.0219031 -0.0187782 -0.0157894 -0.012916 -0.0101613 -0.0075614 -0.00518155 -0.00311451 -0.0014748 -0.000391339 -4.36386e-27 0 -0.000840569 -0.00343256 -0.00785215 -0.0141325 -0.0222558 -0.032149 -0.0436781 -0.0566541 -0.0708281 -0.0859088 -0.101561 -0.117426 -0.133136 -0.148307 -0.162587 -0.17564 -0.187173 -0.196928 -0.204713 -0.210429 -0.213974 -0.215245 -0.214612 -0.211839 -0.207304 -0.20111 -0.193527 -0.184785 -0.175124 -0.164772 -0.153941 -0.142819 -0.131571 -0.120326 -0.109204 -0.0982844 -0.0876266 -0.0772809 -0.067287 -0.0576818 -0.0485074 -0.0398162 -0.0316761 -0.0241784 -0.0174339 -0.0115722 -0.00674008 -0.00309525 -0.000797844 -8.77692e-27 0 -0.00123363 -0.00499748 -0.0113468 -0.0202825 -0.0317437 -0.0456038 -0.0616661 -0.0796688 -0.0992839 -0.120136 -0.1418 -0.163814 -0.185732 -0.207071 -0.227372 -0.246212 -0.263207 -0.278023 -0.290382 -0.300089 -0.307084 -0.311144 -0.312347 -0.311037 -0.306892 -0.300419 -0.291776 -0.281207 -0.268978 -0.255357 -0.240604 -0.224969 -0.208683 -0.191967 -0.175022 -0.158015 -0.141102 -0.124443 -0.108179 -0.0924472 -0.07739 -0.0631522 -0.0498914 -0.0377836 -0.0270126 -0.0177696 -0.0102543 -0.00466481 -0.00119145 -1.30524e-26 0 -0.00160738 -0.00648497 -0.014667 -0.0261229 -0.0407502 -0.0583713 -0.0787295 -0.101494 -0.126263 -0.152581 -0.179941 -0.207779 -0.235581 -0.262768 -0.28879 -0.313131 -0.335324 -0.354958 -0.371687 -0.385244 -0.395437 -0.402395 -0.405216 -0.405406 -0.401704 -0.394981 -0.38537 -0.3731 -0.358459 -0.341749 -0.323281 -0.30336 -0.282289 -0.260361 -0.237857 -0.215045 -0.192169 -0.169481 -0.147225 -0.125638 -0.104958 -0.085421 -0.0672694 -0.0507589 -0.0361444 -0.0236754 -0.0136015 -0.00615875 -0.00156595 -1.71227e-26 0 -0.00195595 -0.00787157 -0.0177604 -0.0315616 -0.0491333 -0.0702497 -0.0945983 -0.121785 -0.151339 -0.182732 -0.215378 -0.24863 -0.281897 -0.31452 -0.345866 -0.375338 -0.402388 -0.426529 -0.447353 -0.464527 -0.477807 -0.487227 -0.49215 -0.493182 -0.49034 -0.48331 -0.472836 -0.459015 -0.442155 -0.422589 -0.400672 -0.376761 -0.351225 -0.324428 -0.296722 -0.268466 -0.240015 -0.211681 -0.18381 -0.156731 -0.130777 -0.106272 -0.0835361 -0.0628998 -0.0446852 -0.0291965 -0.0167292 -0.00755363 -0.00191548 -2.09233e-26 0 -0.00227382 -0.0091354 -0.0205782 -0.0365128 -0.0567606 -0.0810515 -0.109022 -0.140221 -0.174116 -0.210111 -0.247554 -0.28572 -0.323947 -0.361511 -0.397701 -0.431849 -0.463336 -0.49161 -0.516194 -0.536699 -0.552833 -0.56451 -0.571497 -0.573215 -0.571314 -0.564015 -0.5528 -0.537604 -0.518752 -0.496607 -0.471559 -0.444018 -0.414408 -0.38316 -0.350695 -0.317451 -0.283892 -0.250377 -0.217353 -0.185234 -0.15444 -0.125377 -0.0984354 -0.0740157 -0.0525008 -0.0342461 -0.019588 -0.00882759 -0.00223455 -2.43941e-26 0 -0.002556 -0.0102565 -0.0230759 -0.0408983 -0.0635119 -0.0906061 -0.121772 -0.15651 -0.194233 -0.234287 -0.27596 -0.318462 -0.36107 -0.403003 -0.443482 -0.481777 -0.517209 -0.549168 -0.57712 -0.600623 -0.619332 -0.633034 -0.641983 -0.644262 -0.643332 -0.635822 -0.624001 -0.607629 -0.587045 -0.562637 -0.534828 -0.504072 -0.470846 -0.435639 -0.398928 -0.361237 -0.323111 -0.284963 -0.247327 -0.210701 -0.175577 -0.142436 -0.111733 -0.0839311 -0.0594686 -0.038745 -0.0221332 -0.00996071 -0.00251815 -2.748e-26 0 -0.00279804 -0.0112172 -0.025214 -0.044649 -0.0692803 -0.0987628 -0.132649 -0.170396 -0.211374 -0.254878 -0.300147 -0.34634 -0.392679 -0.438339 -0.482487 -0.524337 -0.56316 -0.598295 -0.629164 -0.655278 -0.676246 -0.691785 -0.702286 -0.705461 -0.705075 -0.697638 -0.68531 -0.667979 -0.645951 -0.619634 -0.589479 -0.555977 -0.519649 -0.481033 -0.440663 -0.399132 -0.357051 -0.314897 -0.273264 -0.232731 -0.193855 -0.157179 -0.123219 -0.09249 -0.0654789 -0.0426225 -0.0243248 -0.0109353 -0.00276185 -3.01319e-26 0 -0.00299613 -0.0120023 -0.0269589 -0.0477055 -0.0739749 -0.105393 -0.14148 -0.181661 -0.225268 -0.271559 -0.319735 -0.368914 -0.418275 -0.466963 -0.514098 -0.558856 -0.600464 -0.638221 -0.671507 -0.699797 -0.722667 -0.7398 -0.751524 -0.755736 -0.755604 -0.748487 -0.735751 -0.717695 -0.694537 -0.666696 -0.634648 -0.598912 -0.560044 -0.518627 -0.475248 -0.430543 -0.38518 -0.339704 -0.294757 -0.250979 -0.208986 -0.169375 -0.132712 -0.099558 -0.070437 -0.0458177 -0.0261283 -0.0117361 -0.00296184 -3.23078e-26 0 -0.00314714 -0.0125994 -0.0282829 -0.0500198 -0.0775218 -0.110392 -0.148128 -0.190128 -0.235698 -0.284068 -0.334415 -0.385829 -0.437455 -0.488421 -0.537815 -0.584784 -0.628525 -0.668306 -0.703476 -0.733479 -0.757864 -0.776285 -0.789008 -0.794146 -0.794236 -0.787501 -0.774521 -0.755988 -0.732029 -0.703076 -0.669618 -0.632196 -0.591394 -0.547827 -0.502128 -0.454969 -0.407055 -0.358996 -0.311465 -0.265157 -0.220733 -0.178833 -0.140065 -0.105024 -0.0742653 -0.0482803 -0.0275155 -0.0123507 -0.00311498 -3.39729e-26 0 -0.00324943 -0.0130049 -0.0291839 -0.0515973 -0.0799426 -0.113808 -0.152672 -0.195918 -0.242832 -0.292625 -0.344459 -0.397402 -0.450578 -0.503102 -0.554041 -0.602519 -0.647713 -0.688868 -0.725311 -0.756463 -0.781849 -0.801103 -0.814457 -0.820136 -0.820361 -0.814051 -0.800999 -0.782241 -0.757828 -0.728191 -0.69383 -0.655301 -0.613205 -0.568176 -0.520883 -0.472023 -0.422332 -0.372468 -0.323123 -0.275039 -0.228911 -0.185404 -0.145162 -0.108804 -0.076904 -0.0499718 -0.0284648 -0.0127695 -0.00321889 -3.51008e-26 0 -0.00329847 -0.0131895 -0.0295734 -0.0522459 -0.0808909 -0.115085 -0.154303 -0.197922 -0.245228 -0.295433 -0.347705 -0.401121 -0.454801 -0.507875 -0.559414 -0.608547 -0.654453 -0.696376 -0.733635 -0.765645 -0.791915 -0.812063 -0.826206 -0.833015 -0.833588 -0.827953 -0.815124 -0.796519 -0.772097 -0.742286 -0.707589 -0.668566 -0.625832 -0.580033 -0.531861 -0.482034 -0.431312 -0.380386 -0.329961 -0.280815 -0.233665 -0.189193 -0.148075 -0.110941 -0.0783765 -0.0509011 -0.0289769 -0.0129909 -0.0032726 -3.56735e-26 0 -0.00329843 -0.013189 -0.029571 -0.052239 -0.0808754 -0.115055 -0.154251 -0.197842 -0.245115 -0.295285 -0.34752 -0.400904 -0.454555 -0.507611 -0.559144 -0.608284 -0.654211 -0.696165 -0.733465 -0.765518 -0.791831 -0.812016 -0.826187 -0.833013 -0.83359 -0.827978 -0.815192 -0.796646 -0.772291 -0.74255 -0.707918 -0.66895 -0.626253 -0.580471 -0.532299 -0.482454 -0.431696 -0.380727 -0.330248 -0.281042 -0.233835 -0.189309 -0.148151 -0.110988 -0.0784018 -0.0509123 -0.0289807 -0.0129917 -0.00327266 -3.56818e-26 0 -0.00324461 -0.0129665 -0.0290569 -0.0513057 -0.0793949 -0.112903 -0.151312 -0.194013 -0.240313 -0.28945 -0.340614 -0.39292 -0.445508 -0.497546 -0.548133 -0.596426 -0.641625 -0.682991 -0.719854 -0.751632 -0.777832 -0.798064 -0.812372 -0.819702 -0.820553 -0.815809 -0.803686 -0.785898 -0.762317 -0.733348 -0.699474 -0.661238 -0.619241 -0.574126 -0.526586 -0.477339 -0.427142 -0.376707 -0.326736 -0.278011 -0.231258 -0.187169 -0.146423 -0.109646 -0.0774155 -0.0502437 -0.0285828 -0.0128052 -0.00322345 -3.51255e-26 0 -0.00314045 -0.012546 -0.0281058 -0.0496115 -0.0767519 -0.109118 -0.146205 -0.187427 -0.23212 -0.279552 -0.328941 -0.379444 -0.430233 -0.48051 -0.529412 -0.57613 -0.619895 -0.659993 -0.695779 -0.726684 -0.75223 -0.772032 -0.786099 -0.793519 -0.794498 -0.790035 -0.778424 -0.761324 -0.738605 -0.710655 -0.677934 -0.640966 -0.600329 -0.556652 -0.510602 -0.462873 -0.414207 -0.365296 -0.316829 -0.269567 -0.224214 -0.181451 -0.141932 -0.106266 -0.075017 -0.0486789 -0.0276883 -0.0124028 -0.00312161 -3.40135e-26 0 -0.00298695 -0.011929 -0.0267159 -0.0471453 -0.0729182 -0.103643 -0.138842 -0.177956 -0.22036 -0.265361 -0.312221 -0.360148 -0.408359 -0.456101 -0.502559 -0.54697 -0.588609 -0.626797 -0.660923 -0.690444 -0.714902 -0.