<?xml version="1.0"?>
<VTKFile type="PolyData">
	<PolyData>
		<Piece NumberOfPoints="2601" NumberOfPolys="2500">
			<Points>
				<DataArray type="Float32" NumberOfComponents="3" format="ascii">
 0 0 0 0.02 0 0 0.04 0 0 0.06 0 0 0.08 0 0 0.1 0 0 0.12 0 0 0.14 0 0 0.16 0 0 0.18 0 0 0.2 0 0 0.22 0 0 0.24 0 0 0.26 0 0 0.28 0 0 0.3 0 0 0.32 0 0 0.34 0 0 0.36 0 0 0.38 0 0 0.4 0 0 0.42 0 0 0.44 0 0 0.46 0 0 0.48 0 0 0.5 0 0 0.52 0 0 0.54 0 0 0.56 0 0 0.58 0 0 0.6 0 0 0.62 0 0 0.64 0 0 0.66 0 0 0.68 0 0 0.7 0 0 0.72 0 0 0.74 0 0 0.76 0 0 0.78 0 0 0.8 0 0 0.82 0 0 0.84 0 0 0.86 0 0 0.88 0 0 0.9 0 0 0.92 0 0 0.94 0 0 0.96 0 0 0.98 0 0 1 0 0 0 0.02 0 0.02 0.02 0 0.04 0.02 0 0.06 0.02 0 0.08 0.02 0 0.1 0.02 0 0.12 0.02 0 0.14 0.02 0 0.16 0.02 0 0.18 0.02 0 0.2 0.02 0 0.22 0.02 0 0.24 0.02 0 0.26 0.02 0 0.28 0.02 0 0.3 0.02 0 0.32 0.02 0 0.34 0.02 0 0.36 0.02 0 0.38 0.02 0 0.4 0.02 0 0.42 0.02 0 0.44 0.02 0 0.46 0.02 0 0.48 0.02 0 0.5 0.02 0 0.52 0.02 0 0.54 0.02 0 0.56 0.02 0 0.58 0.02 0 0.6 0.02 0 0.62 0.02 0 0.64 0.02 0 0.66 0.02 0 0.68 0.02 0 0.7 0.02 0 0.72 0.02 0 0.74 0.02 0 0.76 0.02 0 0.78 0.02 0 0.8 0.02 0 0.82 0.02 0 0.84 0.02 0 0.86 0.02 0 0.88 0.02 0 0.9 0.02 0 0.92 0.02 0 0.94 0.02 0 0.96 0.02 0 0.98 0.02 0 1 0.02 0 0 0.04 0 0.02 0.04 0 0.04 0.04 0 0.06 0.04 0 0.08 0.04 0 0.1 0.04 0 0.12 0.04 0 0.14 0.04 0 0.16 0.04 0 0.18 0.04 0 0.2 0.04 0 0.22 0.04 0 0.24 0.04 0 0.26 0.04 0 0.28 0.04 0 0.3 0.04 0 0.32 0.04 0 0.34 0.04 0 0.36 0.04 0 0.38 0.04 0 0.4 0.04 0 0.42 0.04 0 0.44 0.04 0 0.46 0.04 0 0.48 0.04 0 0.5 0.04 0 0.52 0.04 0 0.54 0.04 0 0.56 0.04 0 0.58 0.04 0 0.6 0.04 0 0.62 0.04 0 0.64 0.04 0 0.66 0.04 0 0.68 0.04 0 0.7 0.04 0 0.72 0.04 0 0.74 0.04 0 0.76 0.04 0 0.78 0.04 0 0.8 0.04 0 0.82 0.04 0 0.84 0.04 0 0.86 0.04 0 0.88 0.04 0 0.9 0.04 0 0.92 0.04 0 0.94 0.04 0 0.96 0.04 0 0.98 0.04 0 1 0.04 0 0 0.06 0 0.02 0.06 0 0.04 0.06 0 0.06 0.06 0 0.08 0.06 0 0.1 0.06 0 0.12 0.06 0 0.14 0.06 0 0.16 0.06 0 0.18 0.06 0 0.2 0.06 0 0.22 0.06 0 0.24 0.06 0 0.26 0.06 0 0.28 0.06 0 0.3 0.06 0 0.32 0.06 0 0.34 0.06 0 0.36 0.06 0 0.38 0.06 0 0.4 0.06 0 0.42 0.06 0 0.44 0.06 0 0.46 0.06 0 0.48 0.06 0 0.5 0.06 0 0.52 0.06 0 0.54 0.06 0 0.56 0.06 0 0.58 0.06 0 0.6 0.06 0 0.62 0.06 0 0.64 0.06 0 0.66 0.06 0 0.68 0.06 0 0.7 0.06 0 0.72 0.06 0 0.74 0.06 0 0.76 0.06 0 0.78 0.06 0 0.8 0.06 0 0.82 0.06 0 0.84 0.06 0 0.86 0.06 0 0.88 0.06 0 0.9 0.06 0 0.92 0.06 0 0.94 0.06 0 0.96 0.06 0 0.98 0.06 0 1 0.06 0 0 0.08 0 0.02 0.08 0 0.04 0.08 0 0.06 0.08 0 0.08 0.08 0 0.1 0.08 0 0.12 0.08 0 0.14 0.08 0 0.16 0.08 0 0.18 0.08 0 0.2 0.08 0 0.22 0.08 0 0.24 0.08 0 0.26 0.08 0 0.28 0.08 0 0.3 0.08 0 0.32 0.08 0 0.34 0.08 0 0.36 0.08 0 0.38 0.08 0 0.4 0.08 0 0.42 0.08 0 0.44 0.08 0 0.46 0.08 0 0.48 0.08 0 0.5 0.08 0 0.52 0.08 0 0.54 0.08 0 0.56 0.08 0 0.58 0.08 0 0.6 0.08 0 0.62 0.08 0 0.64 0.08 0 0.66 0.08 0 0.68 0.08 0 0.7 0.08 0 0.72 0.08 0 0.74 0.08 0 0.76 0.08 0 0.78 0.08 0 0.8 0.08 0 0.82 0.08 0 0.84 0.08 0 0.86 0.08 0 0.88 0.08 0 0.9 0.08 0 0.92 0.08 0 0.94 0.08 0 0.96 0.08 0 0.98 0.08 0 1 0.08 0 0 0.1 0 0.02 0.1 0 0.04 0.1 0 0.06 0.1 0 0.08 0.1 0 0.1 0.1 0 0.12 0.1 0 0.14 0.1 0 0.16 0.1 0 0.18 0.1 0 0.2 0.1 0 0.22 0.1 0 0.24 0.1 0 0.26 0.1 0 0.28 0.1 0 0.3 0.1 0 0.32 0.1 0 0.34 0.1 0 0.36 0.1 0 0.38 0.1 0 0.4 0.1 0 0.42 0.1 0 0.44 0.1 0 0.46 0.1 0 0.48 0.1 0 0.5 0.1 0 0.52 0.1 0 0.54 0.1 0 0.56 0.1 0 0.58 0.1 0 0.6 0.1 0 0.62 0.1 0 0.64 0.1 0 0.66 0.1 0 0.68 0.1 0 0.7 0.1 0 0.72 0.1 0 0.74 0.1 0 0.76 0.1 0 0.78 0.1 0 0.8 0.1 0 0.82 0.1 0 0.84 0.1 0 0.86 0.1 0 0.88 0.1 0 0.9 0.1 0 0.92 0.1 0 0.94 0.1 0 0.96 0.1 0 0.98 0.1 0 1 0.1 0 0 0.12 0 0.02 0.12 0 0.04 0.12 0 0.06 0.12 0 0.08 0.12 0 0.1 0.12 0 0.12 0.12 0 0.14 0.12 0 0.16 0.12 0 0.18 0.12 0 0.2 0.12 0 0.22 0.12 0 0.24 0.12 0 0.26 0.12 0 0.28 0.12 0 0.3 0.12 0 0.32 0.12 0 0.34 0.12 0 0.36 0.12 0 0.38 0.12 0 0.4 0.12 0 0.42 0.12 0 0.44 0.12 0 0.46 0.12 0 0.48 0.12 0 0.5 0.12 0 0.52 0.12 0 0.54 0.12 0 0.56 0.12 0 0.58 0.12 0 0.6 0.12 0 0.62 0.12 0 0.64 0.12 0 0.66 0.12 0 0.68 0.12 0 0.7 0.12 0 0.72 0.12 0 0.74 0.12 0 0.76 0.12 0 0.78 0.12 0 0.8 0.12 0 0.82 0.12 0 0.84 0.12 0 0.86 0.12 0 0.88 0.12 0 0.9 0.12 0 0.92 0.12 0 0.94 0.12 0 0.96 0.12 0 0.98 0.12 0 1 0.12 0 0 0.14 0 0.02 0.14 0 0.04 0.14 0 0.06 0.14 0 0.08 0.14 0 0.1 0.14 0 0.12 0.14 0 0.14 0.14 0 0.16 0.14 0 0.18 0.14 0 0.2 0.14 0 0.22 0.14 0 0.24 0.14 0 0.26 0.14 0 0.28 0.14 0 0.3 0.14 0 0.32 0.14 0 0.34 0.14 0 0.36 0.14 0 0.38 0.14 0 0.4 0.14 0 0.42 0.14 0 0.44 0.14 0 0.46 0.14 0 0.48 0.14 0 0.5 0.14 0 0.52 0.14 0 0.54 0.14 0 0.56 0.14 0 0.58 0.14 0 0.6 0.14 0 0.62 0.14 0 0.64 0.14 0 0.66 0.14 0 0.68 0.14 0 0.7 0.14 0 0.72 0.14 0 0.74 0.14 0 0.76 0.14 0 0.78 0.14 0 0.8 0.14 0 0.82 0.14 0 0.84 0.14 0 0.86 0.14 0 0.88 0.14 0 0.9 0.14 0 0.92 0.14 0 0.94 0.14 0 0.96 0.14 0 0.98 0.14 0 1 0.14 0 0 0.16 0 0.02 0.16 0 0.04 0.16 0 0.06 0.16 0 0.08 0.16 0 0.1 0.16 0 0.12 0.16 0 0.14 0.16 0 0.16 0.16 0 0.18 0.16 0 0.2 0.16 0 0.22 0.16 0 0.24 0.16 0 0.26 0.16 0 0.28 0.16 0 0.3 0.16 0 0.32 0.16 0 0.34 0.16 0 0.36 0.16 0 0.38 0.16 0 0.4 0.16 0 0.42 0.16 0 0.44 0.16 0 0.46 0.16 0 0.48 0.16 0 0.5 0.16 0 0.52 0.16 0 0.54 0.16 0 0.56 0.16 0 0.58 0.16 0 0.6 0.16 0 0.62 0.16 0 0.64 0.16 0 0.66 0.16 0 0.68 0.16 0 0.7 0.16 0 0.72 0.16 0 0.74 0.16 0 0.76 0.16 0 0.78 0.16 0 0.8 0.16 0 0.82 0.16 0 0.84 0.16 0 0.86 0.16 0 0.88 0.16 0 0.9 0.16 0 0.92 0.16 0 0.94 0.16 0 0.96 0.16 0 0.98 0.16 0 1 0.16 0 0 0.18 0 0.02 0.18 0 0.04 0.18 0 0.06 0.18 0 0.08 0.18 0 0.1 0.18 0 0.12 0.18 0 0.14 0.18 0 0.16 0.18 0 0.18 0.18 0 0.2 0.18 0 0.22 0.18 0 0.24 0.18 0 0.26 0.18 0 0.28 0.18 0 0.3 0.18 0 0.32 0.18 0 0.34 0.18 0 0.36 0.18 0 0.38 0.18 0 0.4 0.18 0 0.42 0.18 0 0.44 0.18 0 0.46 0.18 0 0.48 0.18 0 0.5 0.18 0 0.52 0.18 0 0.54 0.18 0 0.56 0.18 0 0.58 0.18 0 0.6 0.18 0 0.62 0.18 0 0.64 0.18 0 0.66 0.18 0 0.68 0.18 0 0.7 0.18 0 0.72 0.18 0 0.74 0.18 0 0.76 0.18 0 0.78 0.18 0 0.8 0.18 0 0.82 0.18 0 0.84 0.18 0 0.86 0.18 0 0.88 0.18 0 0.9 0.18 0 0.92 0.18 0 0.94 0.18 0 0.96 0.18 0 0.98 0.18 0 1 0.18 0 0 0.2 0 0.02 0.2 0 0.04 0.2 0 0.06 0.2 0 0.08 0.2 0 0.1 0.2 0 0.12 0.2 0 0.14 0.2 0 0.16 0.2 0 0.18 0.2 0 0.2 0.2 0 0.22 0.2 0 0.24 0.2 0 0.26 0.2 0 0.28 0.2 0 0.3 0.2 0 0.32 0.2 0 0.34 0.2 0 0.36 0.2 0 0.38 0.2 0 0.4 0.2 0 0.42 0.2 0 0.44 0.2 0 0.46 0.2 0 0.48 0.2 0 0.5 0.2 0 0.52 0.2 0 0.54 0.2 0 0.56 0.2 0 0.58 0.2 0 0.6 0.2 0 0.62 0.2 0 0.64 0.2 0 0.66 0.2 0 0.68 0.2 0 0.7 0.2 0 0.72 0.2 0 0.74 0.2 0 0.76 0.2 0 0.78 0.2 0 0.8 0.2 0 0.82 0.2 0 0.84 0.2 0 0.86 0.2 0 0.88 0.2 0 0.9 0.2 0 0.92 0.2 0 0.94 0.2 0 0.96 0.2 0 0.98 0.2 0 1 0.2 0 0 0.22 0 0.02 0.22 0 0.04 0.22 0 0.06 0.22 0 0.08 0.22 0 0.1 0.22 0 0.12 0.22 0 0.14 0.22 0 0.16 0.22 0 0.18 0.22 0 0.2 0.22 0 0.22 0.22 0 0.24 0.22 0 0.26 0.22 0 0.28 0.22 0 0.3 0.22 0 0.32 0.22 0 0.34 0.22 0 0.36 0.22 0 0.38 0.22 0 0.4 0.22 0 0.42 0.22 0 0.44 0.22 0 0.46 0.22 0 0.48 0.22 0 0.5 0.22 0 0.52 0.22 0 0.54 0.22 0 0.56 0.22 0 0.58 0.22 0 0.6 0.22 0 0.62 0.22 0 0.64 0.22 0 0.66 0.22 0 0.68 0.22 0 0.7 0.22 0 0.72 0.22 0 0.74 0.22 0 0.76 0.22 0 0.78 0.22 0 0.8 0.22 0 0.82 0.22 0 0.84 0.22 0 0.86 0.22 0 0.88 0.22 0 0.9 0.22 0 0.92 0.22 0 0.94 0.22 0 0.96 0.22 0 0.98 0.22 0 1 0.22 0 0 0.24 0 0.02 0.24 0 0.04 0.24 0 0.06 0.24 0 0.08 0.24 0 0.1 0.24 0 0.12 0.24 0 0.14 0.24 0 0.16 0.24 0 0.18 0.24 0 0.2 0.24 0 0.22 0.24 0 0.24 0.24 0 0.26 0.24 0 0.28 0.24 0 0.3 0.24 0 0.32 0.24 0 0.34 0.24 0 0.36 0.24 0 0.38 0.24 0 0.4 0.24 0 0.42 0.24 0 0.44 0.24 0 0.46 0.24 0 0.48 0.24 0 0.5 0.24 0 0.52 0.24 0 0.54 0.24 0 0.56 0.24 0 0.58 0.24 0 0.6 0.24 0 0.62 0.24 0 0.64 0.24 0 0.66 0.24 0 0.68 0.24 0 0.7 0.24 0 0.72 0.24 0 0.74 0.24 0 0.76 0.24 0 0.78 0.24 0 0.8 0.24 0 0.82 0.24 0 0.84 0.24 0 0.86 0.24 0 0.88 0.24 0 0.9 0.24 0 0.92 0.24 0 0.94 0.24 0 0.96 0.24 0 0.98 0.24 0 1 0.24 0 0 0.26 0 0.02 0.26 0 0.04 0.26 0 0.06 0.26 0 0.08 0.26 0 0.1 0.26 0 0.12 0.26 0 0.14 0.26 0 0.16 0.26 0 0.18 0.26 0 0.2 0.26 0 0.22 0.26 0 0.24 0.26 0 0.26 0.26 0 0.28 0.26 0 0.3 0.26 0 0.32 0.26 0 0.34 0.26 0 0.36 0.26 0 0.38 0.26 0 0.4 0.26 0 0.42 0.26 0 0.44 0.26 0 0.46 0.26 0 0.48 0.26 0 0.5 0.26 0 0.52 0.26 0 0.54 0.26 0 0.56 0.26 0 0.58 0.26 0 0.6 0.26 0 0.62 0.26 0 0.64 0.26 0 0.66 0.26 0 0.68 0.26 0 0.7 0.26 0 0.72 0.26 0 0.74 0.26 0 0.76 0.26 0 0.78 0.26 0 0.8 0.26 0 0.82 0.26 0 0.84 0.26 0 0.86 0.26 0 0.88 0.26 0 0.9 0.26 0 0.92 0.26 0 0.94 0.26 0 0.96 0.26 0 0.98 0.26 0 1 0.26 0 0 0.28 0 0.02 0.28 0 0.04 0.28 0 0.06 0.28 0 0.08 0.28 0 0.1 0.28 0 0.12 0.28 0 0.14 0.28 0 0.16 0.28 0 0.18 0.28 0 0.2 0.28 0 0.22 0.28 0 0.24 0.28 0 0.26 0.28 0 0.28 0.28 0 0.3 0.28 0 0.32 0.28 0 0.34 0.28 0 0.36 0.28 0 0.38 0.28 0 0.4 0.28 0 0.42 0.28 0 0.44 0.28 0 0.46 0.28 0 0.48 0.28 0 0.5 0.28 0 0.52 0.28 0 0.54 0.28 0 0.56 0.28 0 0.58 0.28 0 0.6 0.28 0 0.62 0.28 0 0.64 0.28 0 0.66 0.28 0 0.68 0.28 0 0.7 0.28 0 0.72 0.28 0 0.74 0.28 0 0.76 0.28 0 0.78 0.28 0 0.8 0.28 0 0.82 0.28 0 0.84 0.28 0 0.86 0.28 0 0.88 0.28 0 0.9 0.28 0 0.92 0.28 0 0.94 0.28 0 0.96 0.28 0 0.98 0.28 0 1 0.28 0 0 0.3 0 0.02 0.3 0 0.04 0.3 0 0.06 0.3 0 0.08 0.3 0 0.1 0.3 0 0.12 0.3 0 0.14 0.3 0 0.16 0.3 0 0.18 0.3 0 0.2 0.3 0 0.22 0.3 0 0.24 0.3 0 0.26 0.3 0 0.28 0.3 0 0.3 0.3 0 0.32 0.3 0 0.34 0.3 0 0.36 0.3 0 0.38 0.3 0 0.4 0.3 0 0.42 0.3 0 0.44 0.3 0 0.46 0.3 0 0.48 0.3 0 0.5 0.3 0 0.52 0.3 0 0.54 0.3 0 0.56 0.3 0 0.58 0.3 0 0.6 0.3 0 0.62 0.3 0 0.64 0.3 0 0.66 0.3 0 0.68 0.3 0 0.7 0.3 0 0.72 0.3 0 0.74 0.3 0 0.76 0.3 0 0.78 0.3 0 0.8 0.3 0 0.82 0.3 0 0.84 0.3 0 0.86 0.3 0 0.88 0.3 0 0.9 0.3 0 0.92 0.3 0 0.94 0.3 0 0.96 0.3 0 0.98 0.3 0 1 0.3 0 0 0.32 0 0.02 0.32 0 0.04 0.32 0 0.06 0.32 0 0.08 0.32 0 0.1 0.32 0 0.12 0.32 0 0.14 0.32 0 0.16 0.32 0 0.18 0.32 0 0.2 0.32 0 0.22 0.32 0 0.24 0.32 0 0.26 0.32 0 0.28 0.32 0 0.3 0.32 0 0.32 0.32 0 0.34 0.32 0 0.36 0.32 0 0.38 0.32 0 0.4 0.32 0 0.42 0.32 0 0.44 0.32 0 0.46 0.32 0 0.48 0.32 0 0.5 0.32 0 0.52 0.32 0 0.54 0.32 0 0.56 0.32 0 0.58 0.32 0 0.6 0.32 0 0.62 0.32 0 0.64 0.32 0 0.66 0.32 0 0.68 0.32 0 0.7 0.32 0 0.72 0.32 0 0.74 0.32 0 0.76 0.32 0 0.78 0.32 0 0.8 0.32 0 0.82 0.32 0 0.84 0.32 0 0.86 0.32 0 0.88 0.32 0 0.9 0.32 0 0.92 0.32 0 0.94 0.
[...]
			<PointData Scalars="VitesseX">
				<DataArray Name="VitesseX" type="Float32" format="ascii">
 0 0 0 0 0 0 0 0 0 0 0 0 0 0 0 0 0 0 0 0 0 0 0 0 0 0 0 0 0 0 0 0 0 0 0 0 0 0 0 0 0 0 0 0 0 0 0 0 0 0 -0 0 -6.19329e-05 -0.000246759 -0.000551564 -0.000971544 -0.00150008 -0.00212883 -0.00284789 -0.00364591 -0.00451031 -0.00542746 -0.00638288 -0.0073615 -0.00834788 -0.00932649 -0.0102819 -0.011199 -0.0120633 -0.0128613 -0.0135802 -0.0142089 -0.0147373 -0.0151572 -0.0154621 -0.0156466 -0.0157084 -0.0156465 -0.0154612 -0.0151561 -0.014736 -0.0142073 -0.0135784 -0.0128594 -0.0120614 -0.011197 -0.01028 -0.00932473 -0.00834629 -0.0073601 -0.00638167 -0.00542646 -0.00450952 -0.00364531 -0.00284745 -0.00212854 -0.00149989 -0.000971441 -0.000551514 -0.000246737 -6.19299e-05 -6.71966e-28 0 -0.000122894 -0.000489672 -0.00109458 -0.00192811 -0.00297715 -0.00422517 -0.0056525 -0.00723661 -0.00895252 -0.0107731 -0.0126697 -0.0146123 -0.0165702 -0.0185126 -0.0204087 -0.0222287 -0.0239438 -0.0255269 -0.0269531 -0.0281998 -0.0292474 -0.0300794 -0.0306837 -0.0310479 -0.0311691 -0.0310454 -0.030676 -0.0300697 -0.029235 -0.0281852 -0.0269369 -0.0255096 -0.0239261 -0.0222111 -0.0203917 -0.0184966 -0.0165557 -0.0145995 -0.0126588 -0.0107641 -0.00894535 -0.00723118 -0.00564861 -0.00422257 -0.00297556 -0.00192725 -0.00109418 -0.000489526 -0.000122875 -1.33335e-27 0 -0.00018192 -0.000724889 -0.00162042 -0.00285448 -0.00440766 -0.00625551 -0.00836891 -0.0107145 -0.0132553 -0.0159512 -0.0187595 -0.0216358 -0.0245347 -0.0274106 -0.0302179 -0.0329122 -0.035451 -0.0377942 -0.0399048 -0.0417495 -0.0432993 -0.0445297 -0.0454233 -0.0459605 -0.0461381 -0.0459541 -0.0454052 -0.0445063 -0.0432695 -0.0417145 -0.0398659 -0.0377527 -0.0354084 -0.0328698 -0.0301769 -0.0273722 -0.0244999 -0.0216051 -0.0187331 -0.0159294 -0.0132381 -0.0107015 -0.00835956 -0.00624926 -0.00440383 -0.0028524 -0.00161948 -0.000724547 -0.000181874 -1.97372e-27 0 -0.00023808 -0.000948705 -0.00212081 -0.00373606 -0.00576909 -0.00818792 -0.0109544 -0.014025 -0.0173511 -0.0208802 -0.0245565 -0.0283217 -0.0321164 -0.0358808 -0.0395552 -0.0430816 -0.046404 -0.0494702 -0.0522316 -0.0546447 -0.0566716 -0.0582803 -0.0594487 -0.0601492 -0.0603795 -0.0601376 -0.0594164 -0.0582382 -0.0566181 -0.0545818 -0.0521616 -0.0493955 -0.0463272 -0.0430051 -0.0394814 -0.0358116 -0.0320537 -0.0282663 -0.0245089 -0.0208409 -0.01732 -0.0140014 -0.0109376 -0.00817665 -0.00576219 -0.00373232 -0.00211912 -0.000948095 -0.000237999 -2.58297e-27 0 -0.000290488 -0.00115759 -0.00258785 -0.00455895 -0.00703998 -0.00999192 -0.0133683 -0.0171158 -0.0211752 -0.0254824 -0.0299693 -0.0345646 -0.0391956 -0.0437896 -0.0482735 -0.0525763 -0.0566301 -0.0603708 -0.0637392 -0.0666823 -0.0691537 -0.0711145 -0.0725388 -0.0733903 -0.0736687 -0.0733719 -0.0724886 -0.0710488 -0.0690702 -0.0665841 -0.0636299 -0.0602542 -0.0565102 -0.052457 -0.0481583 -0.0436816 -0.0390977 -0.0344781 -0.0298951 -0.0254212 -0.0211267 -0.0170791 -0.013342 -0.00997434 -0.00702923 -0.00455313 -0.00258522 -0.00115665 -0.000290363 -3.15149e-27 0 -0.000338319 -0.00134825 -0.00301418 -0.00531018 -0.00820027 -0.0116391 -0.0155724 -0.0199381 -0.0246674 -0.0296853 -0.0349125 -0.0402659 -0.0456607 -0.0510121 -0.0562351 -0.0612469 -0.0659681 -0.0703242 -0.0742463 -0.0776724 -0.0805487 -0.0828299 -0.0844868 -0.085475 -0.0857959 -0.0854483 -0.0844156 -0.082736 -0.0804293 -0.0775319 -0.0740899 -0.0701575 -0.0657968 -0.0610765 -0.0560707 -0.050858 -0.0455209 -0.0401424 -0.0348067 -0.029598 -0.0245982 -0.0198858 -0.0155349 -0.011614 -0.00818496 -0.00530189 -0.00301044 -0.00134692 -0.000338143 -3.6703e-27 0 -0.000380818 -0.00151768 -0.00339308 -0.00597789 -0.00923168 -0.0131034 -0.017532 -0.0224476 -0.0277726 -0.0334226 -0.0393083 -0.0453358 -0.0514098 -0.0574348 -0.0633149 -0.0689567 -0.0742708 -0.0791733 -0.0835868 -0.0874415 -0.0906767 -0.0932417 -0.0951044 -0.0962125 -0.0965701 -0.0961762 -0.0950095 -0.0931158 -0.0905166 -0.0872531 -0.083377 -0.0789496 -0.0740408 -0.0687277 -0.0630939 -0.0572278 -0.051222 -0.04517 -0.0391662 -0.0333055 -0.0276797 -0.0223773 -0.0174817 -0.0130698 -0.00921115 -0.0059668 -0.00338808 -0.00151592 -0.000380585 -4.13122e-27 0 -0.000417315 -0.0016632 -0.00371856 -0.00655156 -0.010118 -0.0143618 -0.0192162 -0.0246046 -0.0304417 -0.0366353 -0.0430872 -0.0496944 -0.0563524 -0.0629563 -0.0694007 -0.0755836 -0.0814069 -0.0867786 -0.0916136 -0.0958356 -0.0993781 -0.102186 -0.104224 -0.105434 -0.105821 -0.105386 -0.104103 -0.102024 -0.0991728 -0.095594 -0.0913446 -0.0864919 -0.0811122 -0.0752903 -0.0691176 -0.0626907 -0.0561114 -0.0494818 -0.042905 -0.0364851 -0.0303227 -0.0245145 -0.0191517 -0.0143187 -0.0100916 -0.00653737 -0.00371219 -0.00166097 -0.000417021 -4.52697e-27 0 -0.000447234 -0.00178252 -0.0039855 -0.00702214 -0.0108451 -0.0153944 -0.0205984 -0.026375 -0.0326328 -0.0392729 -0.0461898 -0.0532729 -0.0604102 -0.0674891 -0.0743966 -0.0810234 -0.0872644 -0.0930203 -0.0982001 -0.102722 -0.106516 -0.109521 -0.111702 -0.112993 -0.113404 -0.112933 -0.111553 -0.109321 -0.106261 -0.102423 -0.0978671 -0.0926651 -0.0868993 -0.0806604 -0.0740462 -0.0671605 -0.0601119 -0.0530095 -0.0459641 -0.0390869 -0.0324855 -0.0262636 -0.0205186 -0.0153411 -0.0108126 -0.00700461 -0.00397765 -0.00177981 -0.000446877 -4.85129e-27 0 -0.000470105 -0.00187376 -0.00418968 -0.0073822 -0.0114016 -0.016185 -0.0216568 -0.0277309 -0.0343113 -0.0412937 -0.048567 -0.0560149 -0.0635194 -0.0709621 -0.0782243 -0.0851908 -0.0917507 -0.0977998 -0.103243 -0.107993 -0.111977 -0.115132 -0.11742 -0.118771 -0.119197 -0.118698 -0.117241 -0.114891 -0.11167 -0.107633 -0.102841 -0.0973719 -0.0913108 -0.0847533 -0.0778023 -0.0705665 -0.0631602 -0.0556978 -0.0482954 -0.0410698 -0.0341341 -0.027597 -0.0215609 -0.0161209 -0.0113625 -0.00736117 -0.00418028 -0.00187054 -0.000469682 -5.09908e-27 0 -0.000485565 -0.00193548 -0.00432789 -0.00762608 -0.0117788 -0.016721 -0.0223748 -0.0286512 -0.0354508 -0.0426658 -0.0501814 -0.057877 -0.0656307 -0.0733206 -0.0808238 -0.08802 -0.0947951 -0.101042 -0.106662 -0.111565 -0.115676 -0.118929 -0.121288 -0.122677 -0.123111 -0.122594 -0.121086 -0.118655 -0.115327 -0.111155 -0.106205 -0.100555 -0.0942947 -0.0875219 -0.0803429 -0.0728702 -0.0652221 -0.0575161 -0.0498719 -0.0424108 -0.0352491 -0.0284988 -0.0222658 -0.0166481 -0.0117344 -0.00760221 -0.00431725 -0.00193186 -0.00048509 -5.26641e-27 0 -0.000493387 -0.00196683 -0.00439834 -0.00775084 -0.0119723 -0.0169968 -0.0227452 -0.029127 -0.0360411 -0.0433775 -0.0510194 -0.0588442 -0.0667277 -0.0745454 -0.0821721 -0.0894854 -0.0963694 -0.102715 -0.108421 -0.113398 -0.117568 -0.120865 -0.123252 -0.124652 -0.125084 -0.124543 -0.122999 -0.120517 -0.117126 -0.112878 -0.107842 -0.102098 -0.0957353 -0.0888545 -0.0815635 -0.0739755 -0.0662102 -0.0583871 -0.050628 -0.0430552 -0.0357862 -0.0289347 -0.0226077 -0.0169049 -0.0119163 -0.0077208 -0.00438502 -0.00196238 -0.000492807 -5.35065e-27 0 -0.000493387 -0.00196683 -0.00439836 -0.00775088 -0.0119724 -0.0169969 -0.0227454 -0.0291273 -0.0360415 -0.0433781 -0.0510203 -0.0588454 -0.0667289 -0.0745468 -0.0821731 -0.0894864 -0.0963705 -0.102716 -0.108422 -0.113399 -0.117568 -0.120865 -0.123252 -0.124652 -0.125084 -0.124543 -0.122998 -0.120517 -0.117125 -0.112877 -0.107841 -0.102096 -0.0957334 -0.0888524 -0.0815611 -0.0739734 -0.0662085 -0.0583861 -0.0506273 -0.0430544 -0.0357854 -0.0289339 -0.0226074 -0.0169049 -0.0119163 -0.00772075 -0.004385 -0.00196238 -0.000492807 -5.35046e-27 0 -0.000485675 -0.00193634 -0.00433076 -0.00763273 -0.0117913 -0.0167415 -0.0224058 -0.0286947 -0.0355086 -0.0427387 -0.0502694 -0.0579802 -0.0657487 -0.0734504 -0.0809618 -0.0881629 -0.0949387 -0.101182 -0.106792 -0.111682 -0.115775 -0.119007 -0.121342 -0.122701 -0.123111 -0.122565 -0.121033 -0.11858 -0.115232 -0.111044 -0.106081 -0.100424 -0.0941596 -0.0873874 -0.080213 -0.0727487 -0.0651114 -0.0574185 -0.0497893 -0.0423427 -0.035195 -0.0284578 -0.0222368 -0.0166291 -0.0117228 -0.00759604 -0.00431457 -0.00193105 -0.000484987 -5.26586e-27 0 -0.000470256 -0.00187495 -0.00419365 -0.00739139 -0.0114189 -0.0162134 -0.0216997 -0.0277913 -0.0343914 -0.0413951 -0.0486894 -0.0561579 -0.0636826 -0.0711417 -0.0784158 -0.0853889 -0.0919496 -0.0979932 -0.103424 -0.108155 -0.112114 -0.115239 -0.117494 -0.118805 -0.119197 -0.118657 -0.117166 -0.114782 -0.111533 -0.107471 -0.102662 -0.0971809 -0.0911148 -0.0845583 -0.077614 -0.0703899 -0.0629992 -0.0555556 -0.0481742 -0.0409703 -0.0340556 -0.0275379 -0.0215189 -0.0160931 -0.0113458 -0.00735223 -0.0041764 -0.00186936 -0.000469532 -5.09817e-27 0 -0.000447442 -0.00178416 -0.00399093 -0.00703473 -0.0108688 -0.0154335 -0.0206573 -0.0264577 -0.0327426 -0.0394117 -0.0463582 -0.0534701 -0.0606339 -0.0677351 -0.074659 -0.0812951 -0.0875372 -0.0932851 -0.0984481 -0.102945 -0.106704 -0.109668 -0.111804 -0.11304 -0.113403 -0.112877 -0.111448 -0.10917 -0.106071 -0.102199 -0.0976185 -0.0924007 -0.0866279 -0.0803906 -0.073786 -0.0669167 -0.05989 -0.0528136 -0.0457968 -0.0389495 -0.0323772 -0.026182 -0.0204605 -0.0153026 -0.0107893 -0.00699224 -0.00397227 -0.00177817 -0.00044667 -4.85004e-27 0 -0.000417575 -0.00166525 -0.00372538 -0.00656736 -0.0101477 -0.0144109 -0.0192901 -0.0247083 -0.0305795 -0.0368092 -0.0432981 -0.049942 -0.056633 -0.0632645 -0.0697296 -0.0759243 -0.081749 -0.0871108 -0.0919247 -0.0961146 -0.0996146 -0.102371 -0.104352 -0.105493 -0.105821 -0.105316 -0.103971 -0.101834 -0.0989322 -0.0953118 -0.0910313 -0.0861584 -0.0807699 -0.07495 -0.0687894 -0.0623835 -0.055832 -0.0492351 -0.0426945 -0.0363119 -0.0301859 -0.0244114 -0.0190782 -0.0142699 -0.0100623 -0.00652176 -0.0037054 -0.00165892 -0.00041676 -4.5254e-27 0 -0.000381127 -0.00152012 -0.00340118 -0.00599664 -0.00926702 -0.0131617 -0.0176198 -0.0225708 -0.0279363 -0.0336296 -0.0395591 -0.0456299 -0.0517433 -0.0578009 -0.0637052 -0.069361 -0.0746768 -0.0795678 -0.0839563 -0.0877729 -0.0909576 -0.0934615 -0.0952565 -0.0962836 -0.0965699 -0.0960923 -0.0948523 -0.0928897 -0.0902301 -0.0869171 -0.0830038 -0.0785525 -0.0736331 -0.0683225 -0.0627031 -0.0568618 -0.0508893 -0.0448765 -0.0389156 -0.033099 -0.0275165 -0.0222544 -0.0173942 -0.0130117 -0.00917607 -0.0059482 -0.00337999 -0.00151347 -0.000380275 -4.12937e-27 0 -0.000338672 -0.00135104 -0.00302344 -0.00533158 -0.00824061 -0.0117057 -0.0156726 -0.0200788 -0.0248542 -0.0299216 -0.0351991 -0.0406016 -0.0460414 -0.0514305 -0.0566812 -0.0617088 -0.0664319 -0.0707749 -0.0746685 -0.0780511 -0.0808698 -0.0830813 -0.0846607 -0.085557 -0.0857957 -0.0853528 -0.0842361 -0.0824774 -0.0801016 -0.0771476 -0.0736629 -0.0697029 -0.0653301 -0.0606125 -0.0556231 -0.0504389 -0.0451399 -0.0398064 -0.0345199 -0.0293618 -0.0244113 -0.0197449 -0.0154347 -0.0115474 -0.00814476 -0.00528059 -0.00300118 -0.00134412 -0.000337788 -3.66821e-27 0 -0.00029088 -0.00116068 -0.00259811 -0.00458267 -0.00708467 -0.0100657 -0.0134794 -0.0172717 -0.0213821 -0.025744 -0.0302868 -0.0349365 -0.0396173 -0.044253 -0.048768 -0.0530884 -0.0571443 -0.0608707 -0.0642077 -0.0671026 -0.0695103 -0.0713938 -0.0727318 -0.0734824 -0.0736685 -0.0732667 -0.0722897 -0.0707619 -0.0687064 -0.0661573 -0.0631557 -0.0597493 -0.0559918 -0.0519416 -0.0476612 -0.0432161 -0.0386745 -0.0341049 -0.0295767 -0.025159 -0.0209193 -0.0169227 -0.0132306 -0.00990034 -0.00698455 -0.00452945 -0.00257493 -0.00115354 -0.000289969 -3.14919e-27 0 -0.000238504 -0.000952055 -0.00213191 -0.00376171 -0.00581745 -0.0082678 -0.0110747 -0.0141937 -0.0175747 -0.021163 -0.0249003 -0.0287245 -0.0325725 -0.0363821 -0.0400903 -0.0436358 -0.0469607 -0.0500115 -0.0527391 -0.0551002 -0.0570581 -0.0585832 -0.059658 -0.0602503 -0.0603794 -0.0600247 -0.0592016 -0.0579279 -0.0562239 -0.0541189 -0.0516475 -0.0488484 -0.0457654 -0.0424466 -0.0389427 -0.0353071 -0.031595 -0.0278619 -0.0241638 -0.0205568 -0.0170952 -0.0138319 -0.0108168 -0.00809642 -0.00571371 -0.00370663 -0.00210796 -0.000944722 -0.000237571 -2.58052e-27 0 -0.00018237 -0.000728443 -0.0016322 -0.00288167 -0.00445892 -0.0063402 -0.00849641 -0.0108934 -0.0134924 -0.016251 -0.019124 -0.0220628 -0.0250184 -0.0279421 -0.0307853 -0.0335002 -0.0360417 -0.0383685 -0.0404433 -0.0422329 -0.0437097 -0.0448516 -0.0456456 -0.0460693 -0.0461381 -0.0458355 -0.0451779 -0.0441777 -0.0428519 -0.0412238 -0.0393206 -0.0371723 -0.0348122 -0.0322771 -0.0296053 -0.0268368 -0.0240132 -0.0211758 -0.0183668 -0.0156278 -0.0129996 -0.0105215 -0.00823132 -0.0061641 -0.00435231 -0.0028251 -0.00160763 -0.000720966 -0.00018142 -1.97115e-27 0 -0.000123363 -0.000493374 -0.00110684 -0.00195642 -0.00303052 -0.00431334 -0.00578524 -0.00742283 -0.00919949 -0.0110855 -0.013049 -0.0150566 -0.0170741 -0.0190665 -0.0209999 -0.0228411 -0.0245592 -0.0261254 -0.0275143 -0.0287037 -0.0296754 -0.0304154 -0.0309155 -0.0311629 -0.0311691 -0.030923 -0.0304399 -0.0297282 -0.0288012 -0.0276754 -0.0263697 -0.0249053 -0.0233051 -0.0215937 -0.0197961 -0.0179387 -0.0160485 -0.0141522 -0.012277 -0.0104498 -0.00869683 -0.00704369 -0.00551497 -0.00413384 -0.00292186 -0.00189878 -0.00108184 -0.000485794 -0.000122402 -1.33071e-27 0 -6.24138e-05 -0.000250555 -0.000564131 -0.00100056 -0.00155477 -0.0022192 -0.00298394 -0.00383677 -0.00476343 -0.00574766 -0.00677172 -0.00781699 -0.00886443 -0.00989444 -0.010888 -0.011827 -0.0126944 -0.0134752 -0.0141561 -0.0147262 -0.015177 -0.0155028 -0.0156996 -0.0157673 -0.0157077 -0.0155228 -0.0152201 -0.014807 -0.0142922 -0.0136857 -0.012998 -0.0122408 -0.0114258 -0.0105649 -0.00967006 -0.00875336 -0.00782672 -0.00690191 -0.00599065 -0.00510451 -0.00425497 -0.00345325 -0.00271055 -0.00203762 -0.00144487 -0.000942272 -0.000538868 -0.000242913 -6.14455e-05 -6.69307e-28 0 -4.83438e-07 -3.81591e-06 -1.26278e-05 -2.91505e-05 -5.49484e-05 -9.08011e-05 -0.000136695 -0.000191758 -0.000254299 -0.000321566 -0.000390517 -0.000457713 -0.000519035 -0.000570667 -0.000609068 -0.000631225 -0.0006345 -0.00061737 -0.000579212 -0.000520496 -0.000442606 -0.000347961 -0.000239818 -0.000122262 3.68625e-08 0.000122195 0.000239645 0.000347967 0.000442503 0.000520279 0.000579183 0.000617357 0.000634492 0.000631153 0.000609107 0.000570643 0.000518972 0.000457681 0.000390598 0.000321598 0.00025427 0.00019182 0.000136738 9.08015e-05 5.49489e-05 2.91389e-05 1.26265e-05 3.81779e-06 4.83415e-07 2.63351e-30 0 6.14455e-05 0.000242915 0.000538869 0.000942252 0.00144487 0.00203762 0.0027106 0.00345333 0.00425494 0.00510458 0.00599077 0.00690183 0.00782671 0.00875339 0.00967021 0.0105649 0.0114257 0.0122408 0.012998 0.0136856 0.0142921 0.0148069 0.0152201 0.0155228 0.0157077 0.0157672 0.0156992 0.0155025 0.015177 0.0147261 0.0141562 0.0134754 0.0126946 0.0118269 0.0108879 0.0098943 0.00886433 0.00781698 0.00677163 0.00574754 0.0047634 0.00383682 0.00298397 0.00221921 0.00155477 0.00100056 0.000564129 0.000250558 6.24138e-05 6.74512e-28 0 0.000122402 0.000485795 0.00108184 0.00189876 0.00292185 0.00413381 0.00551501 0.00704379 0.00869688 0.0104497 0.012277 0.0141522 0.0160485 0.0179388 0.0197962 0.0215939 0.0233053 0.0249054 0.0263698 0.0276754 0.0288012 0.0297283 0.0304401 0.0309231 0.0311691 0.0311627 0.0309151 0.0304151 0.0296756 0.0287038 0.0275145 0.0261256 0.0245593 0.022841 0.0209998 0.0190665 0.017074 0.0150567 0.013049 0.0110854 0.00919946 0.00742287 0.00578525 0.00431334 0.00303051 0.00195642 0.00110684 0.000493377 0.000123363 1.33573e-27 0 0.00018142 0.000720966 0.00160764 0.00282508 0.0043523 0.00616409 0.00823137 0.0105217 0.0129997 0.0156277 0.0183668 0.0211759 0.0240131 0.0268369 0.0296054 0.0322774 0.0348124 0.0371724 0.0393212 0.0412246 0.0428525 0.0441779 0.045178 0.0458355 0.0461381 0.046069 0.0456454 0.0448516 0.0437097 0.0422327 0.0404433 0.0383686 0.0360416 0.0334998 0.0307854 0.0279425 0.0250186 0.0220626 0.0191238 0.0162511 0.0134925 0.0108934 0.0084964 0.00634018 0.0044589 0.00288167 0.00163219 0.000728447 0.00018237 1.97588e-27 0 0.000237571 0.000944722 0.00210797 0.00370659 0.00571366 0.00809642 0.0108168 0.0138321 0.0170954 0.0205568 0.0241639 0.0278619 0.0315949 0.0353071 0.0389427 0.0424466 0.0457652 0.0488483 0.051648 0.0541197 0.0562244 0.0579279 0.0592014 0.0600246 0.0603793 0.0602502 0.059658 0.0585832 0.057058 0.0550999 0.0527393 0.0500119 0.0469606 0.0436355 0.0400904 0.0363824 0.0325727 0.0287242 0.0249001 0.0211631 0.0175748 0.0141937 0.0110747 0.00826776 0.00581742 0.00376171 0.00213191 0.000952058 0.000238504 2.58485e-27 0 0.000289969 0.00115354 0.00257493 0.0045294 0.00698445 0.00990034 0.0132306 0.0169228 0.0209196 0.0251591 0.0295765 0.0341047 0.0386744 0.0432161 0.0476612 0.0519416 0.0559915 0.0597491 0.0631557 0.0661572 0.0687063 0.0707617 0.0722894 0.0732665 0.0736685 0.0734825 0.0727318 0.0713938 0.0695101 0.0671029 0.0642083 0.060871 0.0571446 0.0530884 0.0487679 0.0442531 0.0396173 0.0349365 0.0302868 0.0257439 0.021382 0.0172717 0.0134794 0.0100657 0.00708463 0.00458265 0.0025981 0.00116069 0.00029088 3.15305e-27 0 0.000337788 0.00134412 0.00300119 0.00528053 0.00814465 0.0115474 0.0154346 0.0197451 0.0244117 0.0293621 0.0345197 0.0398061 0.0451399 0.050439 0.0556231 0.0606125 0.06533 0.0697029 0.0736629 0.0771472 0.0801017 0.0824776 0.084236 0.0853527 0.0857957 0.085557 0.0846607 0.0830814 0.0808698 0.0780514 0.0746688 0.0707751 0.0664325 0.0617091 0.0566812 0.0514304 0.0460412 0.0406014 0.0351991 0.0299213 0.024854 0.0200788 0.0156726 0.0117056 0.00824056 0.00533156 0.00302343 0.00135104 0.000338673 3.67154e-27 0 0.000380275 0.00151347 0.00338 0.00594817 0.00917599 0.0130116 0.0173941 0.0222545 0.0275168 0.0330994 0.0389157 0.0448763 0.0508891 0.0568618 0.062703 0.0683224 0.073633 0.0785524 0.0830037 0.0869168 0.0902307 0.0928902 0.0948524 0.0960923 0.0965698 0.0962836 0.0952565 0.0934615 0.0909576 0.0877729 0.0839565 0.0795679 0.074677 0.0693612 0.0637054 0.057801 0.051743 0.0456297 0.0395593 0.0336293 0.027936 0.0225708 0.0176197 0.0131616 0.00926696 0.00599663 0.00340118 0.00152012 0.000381128 4.13213e-27 0 0.00041676 0.00165892 0.0037054 0.00652176 0.0100622 0.0142699 0.0190782 0.0244114 0.030186 0.0363122 0.0426949 0.0492351 0.0558319 0.0623836 0.0687895 0.07495 0.0807698 0.0861583 0.0910311 0.0953118 0.0989325 0.101834 0.103971 0.105316 0.105821 0.105493 0.104352 0.102371 0.0996146 0.0961147 0.0919245 0.0871104 0.0817489 0.0759243 0.0697297 0.0632647 0.0566329 0.0499419 0.0432987 0.0368095 0.0305795 0.0247083 0.0192901 0.0144108 0.0101477 0.00656735 0.00372539 0.00166526 0.000417576 4.52758e-27 0 0.00044667 0.00177817 0.00397227 0.00699225 0.0107892 0.0153024 0.0204604 0.0261818 0.0323771 0.0389497 0.0457975 0.0528142 0.0598903 0.0669172 0.0737865 0.0803906 0.0866278 0.0924006 0.0976185 0.102199 0.106071 0.10917 0.111448 0.112877 0.113403 0.11304 0.111804 0.109668 0.106704 0.102945 0.0984481 0.0932848 0.087537 0.0812952 0.0746592 0.067735 0.0606338 0.0534701 0.0463583 0.0394118 0.0327427 0.0264577 0.0206573 0.0154335 0.0108688 0.00703473 0.00399094 0.00178416 0.000447442 4.85165e-27 0 0.000469532 0.00186936 0.0041764 0.00735224 0.0113457 0.0160929 0.0215188 0.0275378 0.0340556 0.0409705 0.0481748 0.0555564 0.0629998 0.0703904 0.0776144 0.0845584 0.0911146 0.0971807 0.102662 0.107471 0.111533 0.114782 0.117165 0.118657 0.119197 0.118805 0.117494 0.115239 0.112115 0.108156 0.103424 0.097993 0.0919494 0.085389 0.078416 0.0711417 0.0636825 0.0561587 0.0486899 0.041395 0.0343915 0.0277913 0.0216997 0.0162134 0.0114189 0.00739138 0.00419366 0.00187496 0.000470256 5.09924e-27 0 0.000484987 0.00193105 0.00431457 0.00759605 0.0117228 0.0166289 0.0222367 0.028458 0.0351951 0.0423426 0.0497892 0.0574188 0.0651118 0.0727492 0.0802135 0.0873875 0.0941595 0.100424 0.106081 0.111044 0.115232 0.11858 0.121033 0.122565 0.123111 0.122701 0.121342 0.119007 0.115775 0.111683 0.106792 0.101181 0.0949386 0.0881628 0.0809618 0.0734504 0.0657487 0.0579809 0.05027 0.042739 0.0355087 0.0286947 0.0224058 0.0167416 0.0117913 0.00763272 0.00433077 0.00193635 0.000485675 5.26645e-27 0 0.000492807 0.00196238 0.004385 0.00772075 0.0119163 0.0169047 0.0226071 0.0289337 0.0357852 0.0430541 0.0506271 0.0583859 0.0662084 0.0739736