<?xml version="1.0"?>
<VTKFile type="PolyData">
	<PolyData>
		<Piece NumberOfPoints="2601" NumberOfPolys="2500">
			<Points>
				<DataArray type="Float32" NumberOfComponents="3" format="ascii">
 0 0 0 0.02 0 0 0.04 0 0 0.06 0 0 0.08 0 0 0.1 0 0 0.12 0 0 0.14 0 0 0.16 0 0 0.18 0 0 0.2 0 0 0.22 0 0 0.24 0 0 0.26 0 0 0.28 0 0 0.3 0 0 0.32 0 0 0.34 0 0 0.36 0 0 0.38 0 0 0.4 0 0 0.42 0 0 0.44 0 0 0.46 0 0 0.48 0 0 0.5 0 0 0.52 0 0 0.54 0 0 0.56 0 0 0.58 0 0 0.6 0 0 0.62 0 0 0.64 0 0 0.66 0 0 0.68 0 0 0.7 0 0 0.72 0 0 0.74 0 0 0.76 0 0 0.78 0 0 0.8 0 0 0.82 0 0 0.84 0 0 0.86 0 0 0.88 0 0 0.9 0 0 0.92 0 0 0.94 0 0 0.96 0 0 0.98 0 0 1 0 0 0 0.02 0 0.02 0.02 0 0.04 0.02 0 0.06 0.02 0 0.08 0.02 0 0.1 0.02 0 0.12 0.02 0 0.14 0.02 0 0.16 0.02 0 0.18 0.02 0 0.2 0.02 0 0.22 0.02 0 0.24 0.02 0 0.26 0.02 0 0.28 0.02 0 0.3 0.02 0 0.32 0.02 0 0.34 0.02 0 0.36 0.02 0 0.38 0.02 0 0.4 0.02 0 0.42 0.02 0 0.44 0.02 0 0.46 0.02 0 0.48 0.02 0 0.5 0.02 0 0.52 0.02 0 0.54 0.02 0 0.56 0.02 0 0.58 0.02 0 0.6 0.02 0 0.62 0.02 0 0.64 0.02 0 0.66 0.02 0 0.68 0.02 0 0.7 0.02 0 0.72 0.02 0 0.74 0.02 0 0.76 0.02 0 0.78 0.02 0 0.8 0.02 0 0.82 0.02 0 0.84 0.02 0 0.86 0.02 0 0.88 0.02 0 0.9 0.02 0 0.92 0.02 0 0.94 0.02 0 0.96 0.02 0 0.98 0.02 0 1 0.02 0 0 0.04 0 0.02 0.04 0 0.04 0.04 0 0.06 0.04 0 0.08 0.04 0 0.1 0.04 0 0.12 0.04 0 0.14 0.04 0 0.16 0.04 0 0.18 0.04 0 0.2 0.04 0 0.22 0.04 0 0.24 0.04 0 0.26 0.04 0 0.28 0.04 0 0.3 0.04 0 0.32 0.04 0 0.34 0.04 0 0.36 0.04 0 0.38 0.04 0 0.4 0.04 0 0.42 0.04 0 0.44 0.04 0 0.46 0.04 0 0.48 0.04 0 0.5 0.04 0 0.52 0.04 0 0.54 0.04 0 0.56 0.04 0 0.58 0.04 0 0.6 0.04 0 0.62 0.04 0 0.64 0.04 0 0.66 0.04 0 0.68 0.04 0 0.7 0.04 0 0.72 0.04 0 0.74 0.04 0 0.76 0.04 0 0.78 0.04 0 0.8 0.04 0 0.82 0.04 0 0.84 0.04 0 0.86 0.04 0 0.88 0.04 0 0.9 0.04 0 0.92 0.04 0 0.94 0.04 0 0.96 0.04 0 0.98 0.04 0 1 0.04 0 0 0.06 0 0.02 0.06 0 0.04 0.06 0 0.06 0.06 0 0.08 0.06 0 0.1 0.06 0 0.12 0.06 0 0.14 0.06 0 0.16 0.06 0 0.18 0.06 0 0.2 0.06 0 0.22 0.06 0 0.24 0.06 0 0.26 0.06 0 0.28 0.06 0 0.3 0.06 0 0.32 0.06 0 0.34 0.06 0 0.36 0.06 0 0.38 0.06 0 0.4 0.06 0 0.42 0.06 0 0.44 0.06 0 0.46 0.06 0 0.48 0.06 0 0.5 0.06 0 0.52 0.06 0 0.54 0.06 0 0.56 0.06 0 0.58 0.06 0 0.6 0.06 0 0.62 0.06 0 0.64 0.06 0 0.66 0.06 0 0.68 0.06 0 0.7 0.06 0 0.72 0.06 0 0.74 0.06 0 0.76 0.06 0 0.78 0.06 0 0.8 0.06 0 0.82 0.06 0 0.84 0.06 0 0.86 0.06 0 0.88 0.06 0 0.9 0.06 0 0.92 0.06 0 0.94 0.06 0 0.96 0.06 0 0.98 0.06 0 1 0.06 0 0 0.08 0 0.02 0.08 0 0.04 0.08 0 0.06 0.08 0 0.08 0.08 0 0.1 0.08 0 0.12 0.08 0 0.14 0.08 0 0.16 0.08 0 0.18 0.08 0 0.2 0.08 0 0.22 0.08 0 0.24 0.08 0 0.26 0.08 0 0.28 0.08 0 0.3 0.08 0 0.32 0.08 0 0.34 0.08 0 0.36 0.08 0 0.38 0.08 0 0.4 0.08 0 0.42 0.08 0 0.44 0.08 0 0.46 0.08 0 0.48 0.08 0 0.5 0.08 0 0.52 0.08 0 0.54 0.08 0 0.56 0.08 0 0.58 0.08 0 0.6 0.08 0 0.62 0.08 0 0.64 0.08 0 0.66 0.08 0 0.68 0.08 0 0.7 0.08 0 0.72 0.08 0 0.74 0.08 0 0.76 0.08 0 0.78 0.08 0 0.8 0.08 0 0.82 0.08 0 0.84 0.08 0 0.86 0.08 0 0.88 0.08 0 0.9 0.08 0 0.92 0.08 0 0.94 0.08 0 0.96 0.08 0 0.98 0.08 0 1 0.08 0 0 0.1 0 0.02 0.1 0 0.04 0.1 0 0.06 0.1 0 0.08 0.1 0 0.1 0.1 0 0.12 0.1 0 0.14 0.1 0 0.16 0.1 0 0.18 0.1 0 0.2 0.1 0 0.22 0.1 0 0.24 0.1 0 0.26 0.1 0 0.28 0.1 0 0.3 0.1 0 0.32 0.1 0 0.34 0.1 0 0.36 0.1 0 0.38 0.1 0 0.4 0.1 0 0.42 0.1 0 0.44 0.1 0 0.46 0.1 0 0.48 0.1 0 0.5 0.1 0 0.52 0.1 0 0.54 0.1 0 0.56 0.1 0 0.58 0.1 0 0.6 0.1 0 0.62 0.1 0 0.64 0.1 0 0.66 0.1 0 0.68 0.1 0 0.7 0.1 0 0.72 0.1 0 0.74 0.1 0 0.76 0.1 0 0.78 0.1 0 0.8 0.1 0 0.82 0.1 0 0.84 0.1 0 0.86 0.1 0 0.88 0.1 0 0.9 0.1 0 0.92 0.1 0 0.94 0.1 0 0.96 0.1 0 0.98 0.1 0 1 0.1 0 0 0.12 0 0.02 0.12 0 0.04 0.12 0 0.06 0.12 0 0.08 0.12 0 0.1 0.12 0 0.12 0.12 0 0.14 0.12 0 0.16 0.12 0 0.18 0.12 0 0.2 0.12 0 0.22 0.12 0 0.24 0.12 0 0.26 0.12 0 0.28 0.12 0 0.3 0.12 0 0.32 0.12 0 0.34 0.12 0 0.36 0.12 0 0.38 0.12 0 0.4 0.12 0 0.42 0.12 0 0.44 0.12 0 0.46 0.12 0 0.48 0.12 0 0.5 0.12 0 0.52 0.12 0 0.54 0.12 0 0.56 0.12 0 0.58 0.12 0 0.6 0.12 0 0.62 0.12 0 0.64 0.12 0 0.66 0.12 0 0.68 0.12 0 0.7 0.12 0 0.72 0.12 0 0.74 0.12 0 0.76 0.12 0 0.78 0.12 0 0.8 0.12 0 0.82 0.12 0 0.84 0.12 0 0.86 0.12 0 0.88 0.12 0 0.9 0.12 0 0.92 0.12 0 0.94 0.12 0 0.96 0.12 0 0.98 0.12 0 1 0.12 0 0 0.14 0 0.02 0.14 0 0.04 0.14 0 0.06 0.14 0 0.08 0.14 0 0.1 0.14 0 0.12 0.14 0 0.14 0.14 0 0.16 0.14 0 0.18 0.14 0 0.2 0.14 0 0.22 0.14 0 0.24 0.14 0 0.26 0.14 0 0.28 0.14 0 0.3 0.14 0 0.32 0.14 0 0.34 0.14 0 0.36 0.14 0 0.38 0.14 0 0.4 0.14 0 0.42 0.14 0 0.44 0.14 0 0.46 0.14 0 0.48 0.14 0 0.5 0.14 0 0.52 0.14 0 0.54 0.14 0 0.56 0.14 0 0.58 0.14 0 0.6 0.14 0 0.62 0.14 0 0.64 0.14 0 0.66 0.14 0 0.68 0.14 0 0.7 0.14 0 0.72 0.14 0 0.74 0.14 0 0.76 0.14 0 0.78 0.14 0 0.8 0.14 0 0.82 0.14 0 0.84 0.14 0 0.86 0.14 0 0.88 0.14 0 0.9 0.14 0 0.92 0.14 0 0.94 0.14 0 0.96 0.14 0 0.98 0.14 0 1 0.14 0 0 0.16 0 0.02 0.16 0 0.04 0.16 0 0.06 0.16 0 0.08 0.16 0 0.1 0.16 0 0.12 0.16 0 0.14 0.16 0 0.16 0.16 0 0.18 0.16 0 0.2 0.16 0 0.22 0.16 0 0.24 0.16 0 0.26 0.16 0 0.28 0.16 0 0.3 0.16 0 0.32 0.16 0 0.34 0.16 0 0.36 0.16 0 0.38 0.16 0 0.4 0.16 0 0.42 0.16 0 0.44 0.16 0 0.46 0.16 0 0.48 0.16 0 0.5 0.16 0 0.52 0.16 0 0.54 0.16 0 0.56 0.16 0 0.58 0.16 0 0.6 0.16 0 0.62 0.16 0 0.64 0.16 0 0.66 0.16 0 0.68 0.16 0 0.7 0.16 0 0.72 0.16 0 0.74 0.16 0 0.76 0.16 0 0.78 0.16 0 0.8 0.16 0 0.82 0.16 0 0.84 0.16 0 0.86 0.16 0 0.88 0.16 0 0.9 0.16 0 0.92 0.16 0 0.94 0.16 0 0.96 0.16 0 0.98 0.16 0 1 0.16 0 0 0.18 0 0.02 0.18 0 0.04 0.18 0 0.06 0.18 0 0.08 0.18 0 0.1 0.18 0 0.12 0.18 0 0.14 0.18 0 0.16 0.18 0 0.18 0.18 0 0.2 0.18 0 0.22 0.18 0 0.24 0.18 0 0.26 0.18 0 0.28 0.18 0 0.3 0.18 0 0.32 0.18 0 0.34 0.18 0 0.36 0.18 0 0.38 0.18 0 0.4 0.18 0 0.42 0.18 0 0.44 0.18 0 0.46 0.18 0 0.48 0.18 0 0.5 0.18 0 0.52 0.18 0 0.54 0.18 0 0.56 0.18 0 0.58 0.18 0 0.6 0.18 0 0.62 0.18 0 0.64 0.18 0 0.66 0.18 0 0.68 0.18 0 0.7 0.18 0 0.72 0.18 0 0.74 0.18 0 0.76 0.18 0 0.78 0.18 0 0.8 0.18 0 0.82 0.18 0 0.84 0.18 0 0.86 0.18 0 0.88 0.18 0 0.9 0.18 0 0.92 0.18 0 0.94 0.18 0 0.96 0.18 0 0.98 0.18 0 1 0.18 0 0 0.2 0 0.02 0.2 0 0.04 0.2 0 0.06 0.2 0 0.08 0.2 0 0.1 0.2 0 0.12 0.2 0 0.14 0.2 0 0.16 0.2 0 0.18 0.2 0 0.2 0.2 0 0.22 0.2 0 0.24 0.2 0 0.26 0.2 0 0.28 0.2 0 0.3 0.2 0 0.32 0.2 0 0.34 0.2 0 0.36 0.2 0 0.38 0.2 0 0.4 0.2 0 0.42 0.2 0 0.44 0.2 0 0.46 0.2 0 0.48 0.2 0 0.5 0.2 0 0.52 0.2 0 0.54 0.2 0 0.56 0.2 0 0.58 0.2 0 0.6 0.2 0 0.62 0.2 0 0.64 0.2 0 0.66 0.2 0 0.68 0.2 0 0.7 0.2 0 0.72 0.2 0 0.74 0.2 0 0.76 0.2 0 0.78 0.2 0 0.8 0.2 0 0.82 0.2 0 0.84 0.2 0 0.86 0.2 0 0.88 0.2 0 0.9 0.2 0 0.92 0.2 0 0.94 0.2 0 0.96 0.2 0 0.98 0.2 0 1 0.2 0 0 0.22 0 0.02 0.22 0 0.04 0.22 0 0.06 0.22 0 0.08 0.22 0 0.1 0.22 0 0.12 0.22 0 0.14 0.22 0 0.16 0.22 0 0.18 0.22 0 0.2 0.22 0 0.22 0.22 0 0.24 0.22 0 0.26 0.22 0 0.28 0.22 0 0.3 0.22 0 0.32 0.22 0 0.34 0.22 0 0.36 0.22 0 0.38 0.22 0 0.4 0.22 0 0.42 0.22 0 0.44 0.22 0 0.46 0.22 0 0.48 0.22 0 0.5 0.22 0 0.52 0.22 0 0.54 0.22 0 0.56 0.22 0 0.58 0.22 0 0.6 0.22 0 0.62 0.22 0 0.64 0.22 0 0.66 0.22 0 0.68 0.22 0 0.7 0.22 0 0.72 0.22 0 0.74 0.22 0 0.76 0.22 0 0.78 0.22 0 0.8 0.22 0 0.82 0.22 0 0.84 0.22 0 0.86 0.22 0 0.88 0.22 0 0.9 0.22 0 0.92 0.22 0 0.94 0.22 0 0.96 0.22 0 0.98 0.22 0 1 0.22 0 0 0.24 0 0.02 0.24 0 0.04 0.24 0 0.06 0.24 0 0.08 0.24 0 0.1 0.24 0 0.12 0.24 0 0.14 0.24 0 0.16 0.24 0 0.18 0.24 0 0.2 0.24 0 0.22 0.24 0 0.24 0.24 0 0.26 0.24 0 0.28 0.24 0 0.3 0.24 0 0.32 0.24 0 0.34 0.24 0 0.36 0.24 0 0.38 0.24 0 0.4 0.24 0 0.42 0.24 0 0.44 0.24 0 0.46 0.24 0 0.48 0.24 0 0.5 0.24 0 0.52 0.24 0 0.54 0.24 0 0.56 0.24 0 0.58 0.24 0 0.6 0.24 0 0.62 0.24 0 0.64 0.24 0 0.66 0.24 0 0.68 0.24 0 0.7 0.24 0 0.72 0.24 0 0.74 0.24 0 0.76 0.24 0 0.78 0.24 0 0.8 0.24 0 0.82 0.24 0 0.84 0.24 0 0.86 0.24 0 0.88 0.24 0 0.9 0.24 0 0.92 0.24 0 0.94 0.24 0 0.96 0.24 0 0.98 0.24 0 1 0.24 0 0 0.26 0 0.02 0.26 0 0.04 0.26 0 0.06 0.26 0 0.08 0.26 0 0.1 0.26 0 0.12 0.26 0 0.14 0.26 0 0.16 0.26 0 0.18 0.26 0 0.2 0.26 0 0.22 0.26 0 0.24 0.26 0 0.26 0.26 0 0.28 0.26 0 0.3 0.26 0 0.32 0.26 0 0.34 0.26 0 0.36 0.26 0 0.38 0.26 0 0.4 0.26 0 0.42 0.26 0 0.44 0.26 0 0.46 0.26 0 0.48 0.26 0 0.5 0.26 0 0.52 0.26 0 0.54 0.26 0 0.56 0.26 0 0.58 0.26 0 0.6 0.26 0 0.62 0.26 0 0.64 0.26 0 0.66 0.26 0 0.68 0.26 0 0.7 0.26 0 0.72 0.26 0 0.74 0.26 0 0.76 0.26 0 0.78 0.26 0 0.8 0.26 0 0.82 0.26 0 0.84 0.26 0 0.86 0.26 0 0.88 0.26 0 0.9 0.26 0 0.92 0.26 0 0.94 0.26 0 0.96 0.26 0 0.98 0.26 0 1 0.26 0 0 0.28 0 0.02 0.28 0 0.04 0.28 0 0.06 0.28 0 0.08 0.28 0 0.1 0.28 0 0.12 0.28 0 0.14 0.28 0 0.16 0.28 0 0.18 0.28 0 0.2 0.28 0 0.22 0.28 0 0.24 0.28 0 0.26 0.28 0 0.28 0.28 0 0.3 0.28 0 0.32 0.28 0 0.34 0.28 0 0.36 0.28 0 0.38 0.28 0 0.4 0.28 0 0.42 0.28 0 0.44 0.28 0 0.46 0.28 0 0.48 0.28 0 0.5 0.28 0 0.52 0.28 0 0.54 0.28 0 0.56 0.28 0 0.58 0.28 0 0.6 0.28 0 0.62 0.28 0 0.64 0.28 0 0.66 0.28 0 0.68 0.28 0 0.7 0.28 0 0.72 0.28 0 0.74 0.28 0 0.76 0.28 0 0.78 0.28 0 0.8 0.28 0 0.82 0.28 0 0.84 0.28 0 0.86 0.28 0 0.88 0.28 0 0.9 0.28 0 0.92 0.28 0 0.94 0.28 0 0.96 0.28 0 0.98 0.28 0 1 0.28 0 0 0.3 0 0.02 0.3 0 0.04 0.3 0 0.06 0.3 0 0.08 0.3 0 0.1 0.3 0 0.12 0.3 0 0.14 0.3 0 0.16 0.3 0 0.18 0.3 0 0.2 0.3 0 0.22 0.3 0 0.24 0.3 0 0.26 0.3 0 0.28 0.3 0 0.3 0.3 0 0.32 0.3 0 0.34 0.3 0 0.36 0.3 0 0.38 0.3 0 0.4 0.3 0 0.42 0.3 0 0.44 0.3 0 0.46 0.3 0 0.48 0.3 0 0.5 0.3 0 0.52 0.3 0 0.54 0.3 0 0.56 0.3 0 0.58 0.3 0 0.6 0.3 0 0.62 0.3 0 0.64 0.3 0 0.66 0.3 0 0.68 0.3 0 0.7 0.3 0 0.72 0.3 0 0.74 0.3 0 0.76 0.3 0 0.78 0.3 0 0.8 0.3 0 0.82 0.3 0 0.84 0.3 0 0.86 0.3 0 0.88 0.3 0 0.9 0.3 0 0.92 0.3 0 0.94 0.3 0 0.96 0.3 0 0.98 0.3 0 1 0.3 0 0 0.32 0 0.02 0.32 0 0.04 0.32 0 0.06 0.32 0 0.08 0.32 0 0.1 0.32 0 0.12 0.32 0 0.14 0.32 0 0.16 0.32 0 0.18 0.32 0 0.2 0.32 0 0.22 0.32 0 0.24 0.32 0 0.26 0.32 0 0.28 0.32 0 0.3 0.32 0 0.32 0.32 0 0.34 0.32 0 0.36 0.32 0 0.38 0.32 0 0.4 0.32 0 0.42 0.32 0 0.44 0.32 0 0.46 0.32 0 0.48 0.32 0 0.5 0.32 0 0.52 0.32 0 0.54 0.32 0 0.56 0.32 0 0.58 0.32 0 0.6 0.32 0 0.62 0.32 0 0.64 0.32 0 0.66 0.32 0 0.68 0.32 0 0.7 0.32 0 0.72 0.32 0 0.74 0.32 0 0.76 0.32 0 0.78 0.32 0 0.8 0.32 0 0.82 0.32 0 0.84 0.32 0 0.86 0.32 0 0.88 0.32 0 0.9 0.32 0 0.92 0.32 0 0.94 0.
[...]
			<PointData Scalars="VitesseX">
				<DataArray Name="VitesseX" type="Float32" format="ascii">
 0 0 0 0 0 0 0 0 0 0 0 0 0 0 0 0 0 0 0 0 0 0 0 0 0 0 0 0 0 0 0 0 0 0 0 0 0 0 0 0 0 0 0 0 0 0 0 0 0 0 0 0 0.000399651 0.00159205 0.0035587 0.00626802 0.00967722 0.0137324 0.0183696 0.0235157 0.0290896 0.0350036 0.0411645 0.0474754 0.0538364 0.0601478 0.0663113 0.0722291 0.0778081 0.0829605 0.0876051 0.0916687 0.0950872 0.0978064 0.0997833 0.100997 0.101396 0.101004 0.0998224 0.0978506 0.0951432 0.0917346 0.0876785 0.0830387 0.0778885 0.0723091 0.0663886 0.0602205 0.053902 0.0475335 0.0412148 0.0350452 0.0291227 0.0235409 0.0183878 0.0137447 0.00968488 0.00627231 0.00356077 0.00159296 0.000399776 4.33711e-27 0 0.000792642 0.00315662 0.00705517 0.012424 0.0191777 0.0272092 0.0363913 0.0465793 0.0576132 0.0693199 0.0815159 0.0940104 0.106605 0.119106 0.131319 0.143053 0.154121 0.164352 0.173584 0.181672 0.188488 0.193924 0.197892 0.200368 0.201187 0.20048 0.198201 0.194327 0.189001 0.182276 0.174256 0.165069 0.154858 0.143786 0.132027 0.11977 0.107208 0.0945425 0.0819727 0.0696967 0.057912 0.0468055 0.0365533 0.0273177 0.0192443 0.0124602 0.00707169 0.0031627 0.000793456 8.60518e-27 0 0.00117283 0.0046694 0.0104354 0.0183733 0.0283563 0.0402251 0.0537918 0.0688427 0.0851416 0.102434 0.120449 0.138908 0.157516 0.17599 0.194048 0.211404 0.227787 0.242941 0.256628 0.268633 0.278766 0.286864 0.292798 0.296553 0.297797 0.296836 0.293529 0.287836 0.280002 0.270088 0.258248 0.244667 0.229562 0.21317 0.195754 0.17759 0.158967 0.140189 0.121548 0.10334 0.0858602 0.0693866 0.0541815 0.0404858 0.028516 0.01846 0.0104748 0.00468369 0.00117473 1.27368e-26 0 0.00153422 0.00610663 0.0136461 0.0240223 0.0370683 0.0525752 0.0702971 0.0899548 0.111241 0.133823 0.15735 0.181459 0.205766 0.229903 0.253508 0.276205 0.297643 0.317487 0.335428 0.351181 0.364496 0.375162 0.383004 0.388032 0.3897 0.388557 0.384307 0.376915 0.366727 0.353804 0.338349 0.320602 0.300846 0.279392 0.256585 0.232789 0.208384 0.183771 0.159333 0.135458 0.112537 0.0909357 0.0709996 0.0530451 0.0373559 0.0241782 0.0137168 0.00613209 0.00153762 1.66669e-26 0 0.00187116 0.00744576 0.0166369 0.029282 0.0451766 0.064065 0.0856471 0.109583 0.135499 0.162992 0.191638 0.220994 0.250593 0.279995 0.30876 0.336434 0.362588 0.386816 0.408739 0.428012 0.444328 0.457424 0.467086 0.473354 0.475445 0.474193 0.4691 0.460159 0.447808 0.432106 0.413298 0.391678 0.367588 0.341411 0.313565 0.2845 0.254681 0.224602 0.194731 0.165544 0.137521 0.111113 0.0867427 0.0647975 0.0456247 0.0295247 0.0167467 0.00748504 0.00187639 2.03338e-26 0 0.00217835 0.00866583 0.0193607 0.0340698 0.0525537 0.0745137 0.0996 0.127418 0.157534 0.189483 0.222771 0.256889 0.291294 0.325479 0.358939 0.391145 0.421601 0.449835 0.475407 0.497915 0.516999 0.53235 0.543715 0.551167 0.553683 0.552384 0.546566 0.536253 0.521965 0.503758 0.481914 0.456775 0.428739 0.398251 0.3658 0.331911 0.297131 0.262042 0.227186 0.193125 0.16042 0.129602 0.101163 0.0755578 0.0531921 0.0344152 0.0195166 0.00872122 0.00218572 2.36799e-26 0 0.00245099 0.00974775 0.0217748 0.0383105 0.0590835 0.0837566 0.111936 0.143179 0.177 0.212877 0.25026 0.288579 0.327226 0.365639 0.403252 0.439473 0.473749 0.505549 0.534378 0.559783 0.581359 0.598754 0.611678 0.620233 0.623178 0.62189 0.615481 0.603992 0.588024 0.567626 0.543111 0.514862 0.483327 0.449008 0.412459 0.374271 0.335065 0.295498 0.256188 0.217765 0.180873 0.146109 0.114033 0.0851567 0.0599388 0.0387725 0.0219829 0.00982111 0.00246072 2.66527e-26 0 0.00268479 0.0106746 0.0238412 0.0419372 0.0646631 0.0916479 0.122461 0.156618 0.19359 0.232807 0.273673 0.315567 0.357827 0.399841 0.441 0.480658 0.51821 0.553078 0.58472 0.61264 0.636395 0.655589 0.669902 0.679456 0.682837 0.681606 0.674754 0.662305 0.644942 0.622702 0.595923 0.565024 0.530493 0.492884 0.452807 0.410911 0.367881 0.324445 0.281277 0.239078 0.198557 0.160376 0.12515 0.0934429 0.0657584 0.0425281 0.0241068 0.0107674 0.00269707 2.92057e-26 0 0.0028761 0.011432 0.0255277 0.0448932 0.0692049 0.0980643 0.131011 0.167526 0.207044 0.248961 0.292642 0.337427 0.382611 0.427547 0.471588 0.514048 0.554281 0.59167 0.62564 0.655653 0.681229 0.70195 0.717461 0.727894 0.731719 0.73058 0.72345 0.710272 0.691821 0.668118 0.639522 0.606477 0.569503 0.529198 0.486218 0.441261 0.395067 0.348424 0.30206 0.256727 0.213195 0.172177 0.134338 0.100286 0.0705593 0.0456227 0.0258546 0.0115451 0.00289104 3.1299e-26 0 0.00302194 0.012008 0.0268076 0.0471317 0.0726375 0.102906 0.13745 0.175728 0.21715 0.261084 0.306868 0.353815 0.401191 0.448321 0.494536 0.539119 0.581395 0.620726 0.656496 0.688143 0.71516 0.737105 0.753605 0.764781 0.769054 0.768035 0.760801 0.747135 0.727921 0.703157 0.673215 0.63856 0.599737 0.557374 0.512167 0.464849 0.416202 0.367065 0.31821 0.270435 0.224556 0.181328 0.141454 0.105577 0.0742658 0.0480075 0.0271989 0.012142 0.00303959 3.28997e-26 0 0.00312055 0.0123977 0.0276743 0.0486474 0.0749617 0.106183 0.141807 0.181277 0.223984 0.269279 0.316481 0.364889 0.413745 0.462357 0.510046 0.55607 0.599743 0.640396 0.677388 0.710145 0.738143 0.760916 0.778074 0.789739 0.794277 0.793377 0.786219 0.772309 0.75267 0.727265 0.696474 0.660769 0.620718 0.576966 0.530236 0.481292 0.430949 0.380077 0.329481 0.27999 0.232462 0.187684 0.146385 0.109233 0.0768194 0.0496449 0.0281185 0.0125487 0.00314037 3.39831e-26 0 0.00316827 0.0125789 0.0280613 0.0492987 0.0759245 0.107495 0.1435 0.183376 0.226512 0.272258 0.319933 0.368839 0.418219 0.46738 0.515653 0.562301 0.606627 0.647951 0.685646 0.719132 0.747869 0.771381 0.789261 0.801554 0.806906 0.806262 0.79957 0.785782 0.766176 0.740651 0.709584 0.673451 0.632829 0.588374 0.54082 0.490964 0.439644 0.387752 0.336123 0.285604 0.23708 0.191366 0.149213 0.111305 0.0782462 0.050545 0.0286146 0.0127636 0.00319241 3.4532e-26 0 0.00316821 0.0125782 0.028058 0.0492887 0.075902 0.107452 0.143428 0.183267 0.226358 0.272052 0.319677 0.368531 0.417866 0.466996 0.515258 0.561911 0.606245 0.6476 0.685348 0.718893 0.747694 0.771266 0.789199 0.801531 0.806904 0.806265 0.799588 0.785825 0.766253 0.740767 0.709739 0.673643 0.633049 0.588609 0.54106 0.491205 0.439868 0.387946 0.336287 0.285738 0.237184 0.191443 0.149264 0.111334 0.0782616 0.0505517 0.0286167 0.0127641 0.00319244 3.45381e-26 0 0.00311629 0.0123643 0.0275638 0.048393 0.0744833 0.105393 0.140621 0.179617 0.221784 0.266495 0.3131 0.360917 0.409228 0.457366 0.504705 0.55051 0.594097 0.634835 0.672103 0.705318 0.733944 0.757499 0.775568 0.788105 0.794108 0.793802 0.788186 0.775171 0.756448 0.731805 0.701596 0.666284 0.626427 0.582674 0.535763 0.486492 0.435698 0.384281 0.333088 0.282971 0.234826 0.189474 0.147665 0.110085 0.0773365 0.0499195 0.0282375 0.0125847 0.00314489 3.40012e-26 0 0.00301574 0.0119592 0.0266461 0.0467584 0.0719336 0.101742 0.135697 0.17327 0.213889 0.256955 0.301846 0.347912 0.394481 0.440912 0.486607 0.530864 0.573041 0.612525 0.648719 0.681057 0.709016 0.732123 0.749966 0.762428 0.768824 0.768648 0.763547 0.751143 0.733224 0.709545 0.680443 0.646358 0.607829 0.565482 0.520032 0.472248 0.42296 0.373053 0.323349 0.274671 0.227908 0.183857 0.143261 0.106777 0.074991 0.0483918 0.027365 0.0121921 0.00304586 3.29297e-26 0 0.00286753 0.0113646 0.0253043 0.0443773 0.0682321 0.0964568 0.12859 0.16413 0.202539 0.243261 0.285707 0.329274 0.373345 0.417325 0.460647 0.502648 0.542747 0.580359 0.61492 0.645891 0.672765 0.695092 0.712466 0.724686 0.731432 0.731472 0.72725 0.715807 0.699128 0.676909 0.649456 0.617189 0.580618 0.540341 0.497035 0.451444 0.404359 0.356636 0.309105 0.262543 0.217795 0.175646 0.136817 0.101928 0.0715509 0.0461496 0.0260825 0.0116138 0.00289965 3.13405e-26 0 0.00267397 0.0105896 0.0235595 0.0412869 0.0634368 0.0896215 0.11941 0.152339 0.187913 0.225623 0.264934 0.305295 0.346151 0.386963 0.427219 0.466304 0.503693 0.538848 0.571243 0.600375 0.625772 0.647 0.663666 0.675483 0.682521 0.682811 0.679572 0.669304 0.654158 0.633774 0.608423 0.578493 0.544457 0.506879 0.466391 0.423693 0.379549 0.334752 0.290106 0.24637 0.20433 0.164728 0.128252 0.0954972 0.0670009 0.043189 0.0243928 0.0108536 0.00270787 2.92585e-26 0 0.00243809 0.00964639 0.0214391 0.0375358 0.057623 0.0813429 0.108302 0.138082 0.170239 0.204321 0.239854 0.276351 0.313337 0.350319 0.386857 0.422409 0.456499 0.48865 0.518382 0.545239 0.568787 0.58861 0.604338 0.61565 0.622784 0.623533 0.621212 0.612406 0.599041 0.580836 0.55801 0.530901 0.499939 0.465639 0.42859 0.389446 0.348912 0.307738 0.266667 0.226407 0.187714 0.151272 0.117712 0.0875968 0.0614146 0.0395564 0.0223223 0.00992342 0.00247355 2.67161e-26 0 0.00216358 0.0085497 0.0189761 0.0331829 0.0508821 0.0717512 0.0954407 0.121584 0.149797 0.17969 0.210861 0.242899 0.275416 0.307973 0.3402 0.371652 0.401908 0.430558 0.457179 0.48136 0.502708 0.520848 0.535433 0.546152 0.553077 0.55475 0.552976 0.546039 0.534618 0.51891 0.498993 0.475146 0.44775 0.417268 0.384236 0.34925 0.312946 0.276016 0.239153 0.202985 0.168223 0.135494 0.105363 0.0783459 0.0548775 0.0353094 0.0199039 0.00883802 0.00220038 2.37532e-26 0 0.00185475 0.00731665 0.0162095 0.0282966 0.0433199 0.060997 0.0810278 0.103103 0.126905 0.152116 0.178411 0.205465 0.23297 0.260578 0.287975 0.314824 0.340776 0.365483 0.388588 0.409739 0.428584 0.444793 0.458044 0.468039 0.474697 0.477269 0.47616 0.4712 0.461962 0.449027 0.432339 0.412118 0.388718 0.36253 0.334024 0.303729 0.272217 0.240089 0.207989 0.176474 0.146166 0.117637 0.0913926 0.0678865 0.0474915 0.0305149 0.0171758 0.0076145 0.00189267 2.04162e-26 0 0.00151643 0.00596656 0.0131826 0.0229538 0.0350554 0.0492493 0.0652896 0.0829298 0.101925 0.122033 0.143017 0.16464 0.186679 0.208889 0.231019 0.252837 0.274075 0.294452 0.313694 0.331509 0.347587 0.361641 0.373383 0.382537 0.388896 0.392289 0.392 0.38908 0.382232 0.372272 0.359077 0.342825 0.323787 0.302292 0.278749 0.253607 0.227361 0.200527 0.173668 0.147278 0.121885 0.0979866 0.0760266 0.056384 0.0393727 0.0252484 0.0141809 0.00627217 0.00155525 1.67575e-26 0 0.00115393 0.00452056 0.00994295 0.0172385 0.0262186 0.0366929 0.0484744 0.0613832 0.0752504 0.089917 0.105236 0.121064 0.137273 0.153713 0.170227 0.186662 0.202849 0.218589 0.233682 0.2479 0.260986 0.272696 0.282783 0.290998 0.297104 0.300959 0.302048 0.300763 0.296666 0.289797 0.280329 0.26833 0.253969 0.237506 0.219283 0.199675 0.179088 0.157956 0.136732 0.115858 0.0957639 0.0768554 0.0595057 0.0440208 0.0306515 0.0195936 0.0109666 0.00483221 0.00119345 1.28343e-26 0 0.000772944 0.00300134 0.00654162 0.0112406 0.0169486 0.023526 0.0308471 0.0388019 0.0473013 0.056273 0.0656623 0.0754251 0.0855235 0.0959094 0.106533 0.11733 0.128218 0.139084 0.149807 0.160222 0.170138 0.17936 0.187681 0.194868 0.200695 0.204918 0.207449 0.207887 0.206537 0.202976 0.197371 0.189794 0.180343 0.169185 0.156565 0.142784 0.128162 0.113041 0.0977751 0.0827192 0.0682138 0.0545759 0.042091 0.0309942 0.0214667 0.01364 0.00758356 0.00331734 0.000812975 8.7084e-27 0 0.000379468 0.00143285 0.0030324 0.00505548 0.00739343 0.00995919 0.0126903 0.0155492 0.0185285 0.0216447 0.0249358 0.0284602 0.0322745 0.036429 0.0409804 0.0459584 0.0513734 0.0572089 0.0634015 0.0698728 0.0764897 0.0831124 0.0895698 0.0956459 0.101139 0.10581 0.109499 0.112035 0.11329 0.113089 0.111538 0.108484 0.10408 0.0983993 0.0915813 0.0838321 0.0753887 0.0664954 0.0574077 0.0483835 0.0396727 0.0314995 0.0240591 0.0175097 0.011962 0.00748108 0.00408528 0.00175147 0.000419812 4.4445e-27 0 -2.01612e-05 -0.00015927 -0.000526624 -0.00121388 -0.00228731 -0.00378076 -0.0056927 -0.00798717 -0.0105893 -0.0133934 -0.0162681 -0.0190561 -0.021598 -0.0237461 -0.0253446 -0.0262622 -0.0263991 -0.0256775 -0.0241014 -0.0216541 -0.0184124 -0.0144698 -0.00996545 -0.00508016 -1.25852e-06 0.00508495 0.00997564 0.0144736 0.0184084 0.0216469 0.0240901 0.0256778 0.0263936 0.0262672 0.025352 0.023749 0.0216004 0.019055 0.0162666 0.0133942 0.0105919 0.00798881 0.00569336 0.0037801 0.00228673 0.00121386 0.000526899 0.00015929 2.01613e-05 1.09733e-28 0 -0.000419812 -0.00175146 -0.00408501 -0.00748098 -0.0119627 -0.0175106 -0.0240587 -0.0314976 -0.0396701 -0.0483829 -0.0574086 -0.0664993 -0.0753871 -0.0838262 -0.0915714 -0.0983842 -0.104078 -0.108483 -0.111553 -0.113101 -0.113296 -0.112032 -0.10949 -0.105806 -0.101139 -0.0956404 -0.0895644 -0.0831162 -0.0764971 -0.0698746 -0.063405 -0.0572113 -0.0513801 -0.0459605 -0.0409785 -0.0364288 -0.0322728 -0.0284601 -0.0249368 -0.0216435 -0.0185266 -0.0155486 -0.0126893 -0.00995936 -0.00739408 -0.0050557 -0.00303213 -0.00143282 -0.000379468 -4.22761e-27 0 -0.000812975 -0.00331733 -0.00758326 -0.0136399 -0.021468 -0.0309949 -0.0420916 -0.054576 -0.0682111 -0.0827179 -0.0977764 -0.113045 -0.128163 -0.142778 -0.156557 -0.169164 -0.180328 -0.189791 -0.197384 -0.202994 -0.206551 -0.207893 -0.207442 -0.204914 -0.200692 -0.194864 -0.187682 -0.179364 -0.170137 -0.160217 -0.149807 -0.139089 -0.128223 -0.117334 -0.106535 -0.0959118 -0.0855251 -0.0754258 -0.0656616 -0.0562717 -0.0473004 -0.0388022 -0.0308463 -0.023526 -0.0169495 -0.0112411 -0.00654133 -0.00300131 -0.000772944 -8.49914e-27 0 -0.00119345 -0.00483219 -0.0109662 -0.0195935 -0.030653 -0.0440207 -0.0595061 -0.0768575 -0.0957609 -0.115856 -0.136735 -0.157957 -0.179091 -0.199674 -0.219277 -0.237489 -0.253945 -0.268316 -0.280329 -0.28981 -0.296681 -0.300766 -0.302044 -0.300956 -0.297103 -0.291001 -0.282788 -0.272698 -0.260982 -0.247894 -0.233686 -0.218596 -0.202852 -0.186665 -0.170229 -0.153715 -0.137275 -0.121066 -0.105234 -0.0899154 -0.07525 -0.061384 -0.0484741 -0.0366931 -0.0262203 -0.0172393 -0.00994263 -0.00452051 -0.00115393 -1.26374e-26 0 -0.00155525 -0.00627215 -0.0141805 -0.0252477 -0.0393728 -0.056382 -0.076027 -0.0979897 -0.121884 -0.147272 -0.173667 -0.200529 -0.227364 -0.253612 -0.27875 -0.302286 -0.323769 -0.342812 -0.35906 -0.372265 -0.382239 -0.389084 -0.391998 -0.392285 -0.388898 -0.382538 -0.373383 -0.361642 -0.347587 -0.331507 -0.313699 -0.294459 -0.274079 -0.252845 -0.231029 -0.208893 -0.186683 -0.164644 -0.143015 -0.122031 -0.101925 -0.0829308 -0.0652891 -0.0492496 -0.0350576 -0.0229547 -0.0131822 -0.00596651 -0.00151643 -1.6577e-26 0 -0.00189267 -0.00761448 -0.0171753 -0.0305135 -0.0474896 -0.0678837 -0.0913929 -0.117638 -0.146168 -0.176471 -0.207986 -0.240091 -0.272217 -0.303734 -0.334032 -0.362535 -0.388717 -0.41212 -0.432334 -0.449041 -0.462 -0.471221 -0.476161 -0.477265 -0.474699 -0.468037 -0.458042 -0.444794 -0.428586 -0.409738 -0.388589 -0.365485 -0.34078 -0.314832 -0.287984 -0.260579 -0.232972 -0.205471 -0.178409 -0.152112 -0.126905 -0.103104 -0.0810268 -0.0609973 -0.0433223 -0.0282975 -0.0162092 -0.00731659 -0.00185475 -2.02555e-26 0 -0.00220038 -0.00883802 -0.0199035 -0.0353076 -0.0548754 -0.078344 -0.105361 -0.135493 -0.168228 -0.20299 -0.239152 -0.276017 -0.312948 -0.34925 -0.384242 -0.417277 -0.447759 -0.475153 -0.499002 -0.518932 -0.534648 -0.546052 -0.552977 -0.55475 -0.553078 -0.546153 -0.535434 -0.520849 -0.502708 -0.481359 -0.457177 -0.430556 -0.401908 -0.371652 -0.340201 -0.307965 -0.275414 -0.242906 -0.210857 -0.179685 -0.149796 -0.121586 -0.0954385 -0.0717504 -0.050885 -0.033184 -0.0189759 -0.00854962 -0.00216358 -2.36147e-26 0 -0.00247355 -0.00992344 -0.0223219 -0.0395543 -0.0614134 -0.0875977 -0.117711 -0.151273 -0.187717 -0.226411 -0.266672 -0.307739 -0.348914 -0.389447 -0.428592 -0.465644 -0.499946 -0.530908 -0.558014 -0.580837 -0.59904 -0.612405 -0.621213 -0.623534 -0.622785 -0.615652 -0.604339 -0.588609 -0.568786 -0.545241 -0.518383 -0.488649 -0.4565 -0.422408 -0.386854 -0.350314 -0.31334 -0.276357 -0.239849 -0.204316 -0.170239 -0.138085 -0.108299 -0.0813403 -0.0576258 -0.0375372 -0.0214388 -0.00964629 -0.00243809 -2.66013e-26 0 -0.00270787 -0.0108536 -0.0243924 -0.0431868 -0.0670005 -0.095499 -0.128249 -0.164729 -0.204328 -0.246365 -0.290111 -0.334756 -0.379546 -0.423691 -0.466388 -0.50688 -0.544464 -0.578502 -0.60843 -0.633774 -0.654158 -0.669305 -0.679572 -0.682811 -0.682521 -0.675482 -0.663664 -0.646998 -0.625771 -0.600374 -0.571242 -0.538848 -0.503693 -0.466301 -0.427212 -0.386957 -0.346155 -0.305298 -0.264927 -0.225616 -0.187911 -0.152341 -0.119406 -0.0896173 -0.0634394 -0.0412886 -0.0235594 -0.0105895 -0.00267396 -2.91678e-26 0 -0.00289965 -0.0116138 -0.0260823 -0.0461476 -0.0715488 -0.101923 -0.136808 -0.175648 -0.217796 -0.262536 -0.309102 -0.356642 -0.404362 -0.451441 -0.497032 -0.540338 -0.580617 -0.617188 -0.649452 -0.676901 -0.699121 -0.715802 -0.727247 -0.731472 -0.731431 -0.724684 -0.712465 -0.695091 -0.672763 -0.645887 -0.614917 -0.580358 -0.542744 -0.502641 -0.460638 -0.417315 -0.373342 -0.329276 -0.285699 -0.243252 -0.202536 -0.164133 -0.128586 -0.0964512 -0.0682346 -0.0443793 -0.0253042 -0.0113644 -0.00286752 -3.12735e-26 0 -0.00304586 -0.0121921 -0.027365 -0.0483901 -0.0749865 -0.10677 -0.143254 -0.183858 -0.227912 -0.27467 -0.323343 -0.373053 -0.422971 -0.472258 -0.520037 -0.565485 -0.607827 -0.646354 -0.680437 -0.709539 -0.733219 -0.75114 -0.763546 -0.768648 -0.768824 -0.762428 -0.749967 -0.732122 -0.709014 -0.681054 -0.648715 -0.612522 -0.573037 -0.530856 -0.486607 -0.440909 -0.394475 -0.347912 -0.301841 -0.25695 -0.213887 -0.173274 -0.135691 -0.101734 -0.0719362 -0.0467608 -0.0266461 -0.0119591 -0.00301573 -3.28849e-26 0 -0.0031449 -0.0125848 -0.0282375 -0.0499183 -0.0773324 -0.11008 -0.14766 -0.189472 -0.23483 -0.282971 -0.333086 -0.38428 -0.435702 -0.4865 -0.535775 -0.582684 -0.626431 -0.666286 -0.701599 -0.731807 -0.75645 -0.775172 -0.788186 -0.793802 -0.794108 -0.788105 -0.775568 -0.757498 -0.733942 -0.705315 -0.672099 -0.63483 -0.59409 -0.550498 -0.504709 -0.457367 -0.40922 -0.360915 -0.313098 -0.266494 -0.221783 -0.179623 -0.140619 -0.105387 -0.0744861 -0.0483958 -0.0275639 -0.0123642 -0.00311628 -3.39763e-26 0 -0.00319244 -0.0127641 -0.0286168 -0.0505509 -0.0782595 -0.111333 -0.14926 -0.19144 -0.237186 -0.285737 -0.336287 -0.387948 -0.439867 -0.491204 -0.541066 -0.588611 -0.633047 -0.673642 -0.709739 -0.740768 -0.766254 -0.785826 -0.799588 -0.806265 -0.806904 -0.801531 -0.789198 -0.771265 -0.747691 -0.71889 -0.685343 -0.647594 -0.606236 -0.561903 -0.515263 -0.466992 -0.417857 -0.368529 -0.319679 -0.272054 -0.226359 -0.183275 -0.143431 -0.10745 -0.0759052 -0.0492919 -0.0280581 -0.0125781 -0.00316821 -3.45303e-26 0 -0.00319241 -0.0127636 -0.0286146 -0.0505447 -0.0782456 -0.111306 -0.149214 -0.191367 -0.237082 -0.285602 -0.336119 -0.38775 -0.439644 -0.490966 -0.540821 -0.588373 -0.632827 -0.67345 -0.709582 -0.740651 -0.766176 -0.785782 -0.79957 -0.806262 -0.806906 -0.801553 -0.78926 -0.771379 -0.747867 -0.719128 -0.685641 -0.647942 -0.606619 -0.562304 -0.515661 -0.467376 -0.41821 -0.368835 -0.319932 -0.272257 -0.226514 -0.183382 -0.143503 -0.107494 -0.0759281 -0.0493021 -0.0280615 -0.0125788 -0.00316826 -3.45381e-26 0 -0.00314037 -0.0125487 -0.0281185 -0.0496449 -0.0768194 -0.109234 -0.146385 -0.187685 -0.232466 -0.279993 -0.32948 -0.380075 -0.430947 -0.481289 -0.530234 -0.576967 -0.620717 -0.660768 -0.696473 -0.727266 -0.752671 -0.772309 -0.786219 -0.793377 -0.794277 -0.789738 -0.778073 -0.760913 -0.738138 -0.71014 -0.677381 -0.640389 -0.599746 -0.55608 -0.510052 -0.462357 -0.413741 -0.364886 -0.316478 -0.269277 -0.223986 -0.181278 -0.141807 -0.106182 -0.0749645 -0.0486503 -0.0276744 -0.0123977 -0.00312055 -3.39994e-26 0 -0.00303959 -0.012142 -0.0271989 -0.0480075 -0.0742657 -0.105577 -0.141454 -0.181328 -0.22456 -0.27044 -0.318214 -0.367069 -0.416204 -0.464847 -0.512164 -0.557374 -0.599736 -0.638557 -0.673214 -0.703158 -0.727922 -0.747135 -0.760802 -0.768036 -0.769054 -0.76478 -0.753604 -0.737104 -0.715158 -0.688141 -0.656495 -0.620728 -0.581403 -0.539126 -0.494541 -0.448322 -0.40119 -0.353815 -0.306867 -0.261084 -0.217152 -0.175728 -0.137449 -0.102905 -0.0726388 -0.0471334 -0.0268078 -0.0120079 -0.00302194 -3.29229e-26 0 -0.00289104 -0.0115451 -0.0258546 -0.0456227 -0.0705593 -0.100285 -0.134338 -0.172177 -0.213197 -0.25673 -0.302061 -0.348428 -0.395072 -0.441265 -0.48622 -0.5292 -0.569502 -0.606474 -0.63952 -0.668