<?xml version="1.0"?>
<VTKFile type="PolyData">
	<PolyData>
		<Piece NumberOfPoints="2601" NumberOfPolys="2500">
			<Points>
				<DataArray type="Float32" NumberOfComponents="3" format="ascii">
 0 0 0 0.02 0 0 0.04 0 0 0.06 0 0 0.08 0 0 0.1 0 0 0.12 0 0 0.14 0 0 0.16 0 0 0.18 0 0 0.2 0 0 0.22 0 0 0.24 0 0 0.26 0 0 0.28 0 0 0.3 0 0 0.32 0 0 0.34 0 0 0.36 0 0 0.38 0 0 0.4 0 0 0.42 0 0 0.44 0 0 0.46 0 0 0.48 0 0 0.5 0 0 0.52 0 0 0.54 0 0 0.56 0 0 0.58 0 0 0.6 0 0 0.62 0 0 0.64 0 0 0.66 0 0 0.68 0 0 0.7 0 0 0.72 0 0 0.74 0 0 0.76 0 0 0.78 0 0 0.8 0 0 0.82 0 0 0.84 0 0 0.86 0 0 0.88 0 0 0.9 0 0 0.92 0 0 0.94 0 0 0.96 0 0 0.98 0 0 1 0 0 0 0.02 0 0.02 0.02 0 0.04 0.02 0 0.06 0.02 0 0.08 0.02 0 0.1 0.02 0 0.12 0.02 0 0.14 0.02 0 0.16 0.02 0 0.18 0.02 0 0.2 0.02 0 0.22 0.02 0 0.24 0.02 0 0.26 0.02 0 0.28 0.02 0 0.3 0.02 0 0.32 0.02 0 0.34 0.02 0 0.36 0.02 0 0.38 0.02 0 0.4 0.02 0 0.42 0.02 0 0.44 0.02 0 0.46 0.02 0 0.48 0.02 0 0.5 0.02 0 0.52 0.02 0 0.54 0.02 0 0.56 0.02 0 0.58 0.02 0 0.6 0.02 0 0.62 0.02 0 0.64 0.02 0 0.66 0.02 0 0.68 0.02 0 0.7 0.02 0 0.72 0.02 0 0.74 0.02 0 0.76 0.02 0 0.78 0.02 0 0.8 0.02 0 0.82 0.02 0 0.84 0.02 0 0.86 0.02 0 0.88 0.02 0 0.9 0.02 0 0.92 0.02 0 0.94 0.02 0 0.96 0.02 0 0.98 0.02 0 1 0.02 0 0 0.04 0 0.02 0.04 0 0.04 0.04 0 0.06 0.04 0 0.08 0.04 0 0.1 0.04 0 0.12 0.04 0 0.14 0.04 0 0.16 0.04 0 0.18 0.04 0 0.2 0.04 0 0.22 0.04 0 0.24 0.04 0 0.26 0.04 0 0.28 0.04 0 0.3 0.04 0 0.32 0.04 0 0.34 0.04 0 0.36 0.04 0 0.38 0.04 0 0.4 0.04 0 0.42 0.04 0 0.44 0.04 0 0.46 0.04 0 0.48 0.04 0 0.5 0.04 0 0.52 0.04 0 0.54 0.04 0 0.56 0.04 0 0.58 0.04 0 0.6 0.04 0 0.62 0.04 0 0.64 0.04 0 0.66 0.04 0 0.68 0.04 0 0.7 0.04 0 0.72 0.04 0 0.74 0.04 0 0.76 0.04 0 0.78 0.04 0 0.8 0.04 0 0.82 0.04 0 0.84 0.04 0 0.86 0.04 0 0.88 0.04 0 0.9 0.04 0 0.92 0.04 0 0.94 0.04 0 0.96 0.04 0 0.98 0.04 0 1 0.04 0 0 0.06 0 0.02 0.06 0 0.04 0.06 0 0.06 0.06 0 0.08 0.06 0 0.1 0.06 0 0.12 0.06 0 0.14 0.06 0 0.16 0.06 0 0.18 0.06 0 0.2 0.06 0 0.22 0.06 0 0.24 0.06 0 0.26 0.06 0 0.28 0.06 0 0.3 0.06 0 0.32 0.06 0 0.34 0.06 0 0.36 0.06 0 0.38 0.06 0 0.4 0.06 0 0.42 0.06 0 0.44 0.06 0 0.46 0.06 0 0.48 0.06 0 0.5 0.06 0 0.52 0.06 0 0.54 0.06 0 0.56 0.06 0 0.58 0.06 0 0.6 0.06 0 0.62 0.06 0 0.64 0.06 0 0.66 0.06 0 0.68 0.06 0 0.7 0.06 0 0.72 0.06 0 0.74 0.06 0 0.76 0.06 0 0.78 0.06 0 0.8 0.06 0 0.82 0.06 0 0.84 0.06 0 0.86 0.06 0 0.88 0.06 0 0.9 0.06 0 0.92 0.06 0 0.94 0.06 0 0.96 0.06 0 0.98 0.06 0 1 0.06 0 0 0.08 0 0.02 0.08 0 0.04 0.08 0 0.06 0.08 0 0.08 0.08 0 0.1 0.08 0 0.12 0.08 0 0.14 0.08 0 0.16 0.08 0 0.18 0.08 0 0.2 0.08 0 0.22 0.08 0 0.24 0.08 0 0.26 0.08 0 0.28 0.08 0 0.3 0.08 0 0.32 0.08 0 0.34 0.08 0 0.36 0.08 0 0.38 0.08 0 0.4 0.08 0 0.42 0.08 0 0.44 0.08 0 0.46 0.08 0 0.48 0.08 0 0.5 0.08 0 0.52 0.08 0 0.54 0.08 0 0.56 0.08 0 0.58 0.08 0 0.6 0.08 0 0.62 0.08 0 0.64 0.08 0 0.66 0.08 0 0.68 0.08 0 0.7 0.08 0 0.72 0.08 0 0.74 0.08 0 0.76 0.08 0 0.78 0.08 0 0.8 0.08 0 0.82 0.08 0 0.84 0.08 0 0.86 0.08 0 0.88 0.08 0 0.9 0.08 0 0.92 0.08 0 0.94 0.08 0 0.96 0.08 0 0.98 0.08 0 1 0.08 0 0 0.1 0 0.02 0.1 0 0.04 0.1 0 0.06 0.1 0 0.08 0.1 0 0.1 0.1 0 0.12 0.1 0 0.14 0.1 0 0.16 0.1 0 0.18 0.1 0 0.2 0.1 0 0.22 0.1 0 0.24 0.1 0 0.26 0.1 0 0.28 0.1 0 0.3 0.1 0 0.32 0.1 0 0.34 0.1 0 0.36 0.1 0 0.38 0.1 0 0.4 0.1 0 0.42 0.1 0 0.44 0.1 0 0.46 0.1 0 0.48 0.1 0 0.5 0.1 0 0.52 0.1 0 0.54 0.1 0 0.56 0.1 0 0.58 0.1 0 0.6 0.1 0 0.62 0.1 0 0.64 0.1 0 0.66 0.1 0 0.68 0.1 0 0.7 0.1 0 0.72 0.1 0 0.74 0.1 0 0.76 0.1 0 0.78 0.1 0 0.8 0.1 0 0.82 0.1 0 0.84 0.1 0 0.86 0.1 0 0.88 0.1 0 0.9 0.1 0 0.92 0.1 0 0.94 0.1 0 0.96 0.1 0 0.98 0.1 0 1 0.1 0 0 0.12 0 0.02 0.12 0 0.04 0.12 0 0.06 0.12 0 0.08 0.12 0 0.1 0.12 0 0.12 0.12 0 0.14 0.12 0 0.16 0.12 0 0.18 0.12 0 0.2 0.12 0 0.22 0.12 0 0.24 0.12 0 0.26 0.12 0 0.28 0.12 0 0.3 0.12 0 0.32 0.12 0 0.34 0.12 0 0.36 0.12 0 0.38 0.12 0 0.4 0.12 0 0.42 0.12 0 0.44 0.12 0 0.46 0.12 0 0.48 0.12 0 0.5 0.12 0 0.52 0.12 0 0.54 0.12 0 0.56 0.12 0 0.58 0.12 0 0.6 0.12 0 0.62 0.12 0 0.64 0.12 0 0.66 0.12 0 0.68 0.12 0 0.7 0.12 0 0.72 0.12 0 0.74 0.12 0 0.76 0.12 0 0.78 0.12 0 0.8 0.12 0 0.82 0.12 0 0.84 0.12 0 0.86 0.12 0 0.88 0.12 0 0.9 0.12 0 0.92 0.12 0 0.94 0.12 0 0.96 0.12 0 0.98 0.12 0 1 0.12 0 0 0.14 0 0.02 0.14 0 0.04 0.14 0 0.06 0.14 0 0.08 0.14 0 0.1 0.14 0 0.12 0.14 0 0.14 0.14 0 0.16 0.14 0 0.18 0.14 0 0.2 0.14 0 0.22 0.14 0 0.24 0.14 0 0.26 0.14 0 0.28 0.14 0 0.3 0.14 0 0.32 0.14 0 0.34 0.14 0 0.36 0.14 0 0.38 0.14 0 0.4 0.14 0 0.42 0.14 0 0.44 0.14 0 0.46 0.14 0 0.48 0.14 0 0.5 0.14 0 0.52 0.14 0 0.54 0.14 0 0.56 0.14 0 0.58 0.14 0 0.6 0.14 0 0.62 0.14 0 0.64 0.14 0 0.66 0.14 0 0.68 0.14 0 0.7 0.14 0 0.72 0.14 0 0.74 0.14 0 0.76 0.14 0 0.78 0.14 0 0.8 0.14 0 0.82 0.14 0 0.84 0.14 0 0.86 0.14 0 0.88 0.14 0 0.9 0.14 0 0.92 0.14 0 0.94 0.14 0 0.96 0.14 0 0.98 0.14 0 1 0.14 0 0 0.16 0 0.02 0.16 0 0.04 0.16 0 0.06 0.16 0 0.08 0.16 0 0.1 0.16 0 0.12 0.16 0 0.14 0.16 0 0.16 0.16 0 0.18 0.16 0 0.2 0.16 0 0.22 0.16 0 0.24 0.16 0 0.26 0.16 0 0.28 0.16 0 0.3 0.16 0 0.32 0.16 0 0.34 0.16 0 0.36 0.16 0 0.38 0.16 0 0.4 0.16 0 0.42 0.16 0 0.44 0.16 0 0.46 0.16 0 0.48 0.16 0 0.5 0.16 0 0.52 0.16 0 0.54 0.16 0 0.56 0.16 0 0.58 0.16 0 0.6 0.16 0 0.62 0.16 0 0.64 0.16 0 0.66 0.16 0 0.68 0.16 0 0.7 0.16 0 0.72 0.16 0 0.74 0.16 0 0.76 0.16 0 0.78 0.16 0 0.8 0.16 0 0.82 0.16 0 0.84 0.16 0 0.86 0.16 0 0.88 0.16 0 0.9 0.16 0 0.92 0.16 0 0.94 0.16 0 0.96 0.16 0 0.98 0.16 0 1 0.16 0 0 0.18 0 0.02 0.18 0 0.04 0.18 0 0.06 0.18 0 0.08 0.18 0 0.1 0.18 0 0.12 0.18 0 0.14 0.18 0 0.16 0.18 0 0.18 0.18 0 0.2 0.18 0 0.22 0.18 0 0.24 0.18 0 0.26 0.18 0 0.28 0.18 0 0.3 0.18 0 0.32 0.18 0 0.34 0.18 0 0.36 0.18 0 0.38 0.18 0 0.4 0.18 0 0.42 0.18 0 0.44 0.18 0 0.46 0.18 0 0.48 0.18 0 0.5 0.18 0 0.52 0.18 0 0.54 0.18 0 0.56 0.18 0 0.58 0.18 0 0.6 0.18 0 0.62 0.18 0 0.64 0.18 0 0.66 0.18 0 0.68 0.18 0 0.7 0.18 0 0.72 0.18 0 0.74 0.18 0 0.76 0.18 0 0.78 0.18 0 0.8 0.18 0 0.82 0.18 0 0.84 0.18 0 0.86 0.18 0 0.88 0.18 0 0.9 0.18 0 0.92 0.18 0 0.94 0.18 0 0.96 0.18 0 0.98 0.18 0 1 0.18 0 0 0.2 0 0.02 0.2 0 0.04 0.2 0 0.06 0.2 0 0.08 0.2 0 0.1 0.2 0 0.12 0.2 0 0.14 0.2 0 0.16 0.2 0 0.18 0.2 0 0.2 0.2 0 0.22 0.2 0 0.24 0.2 0 0.26 0.2 0 0.28 0.2 0 0.3 0.2 0 0.32 0.2 0 0.34 0.2 0 0.36 0.2 0 0.38 0.2 0 0.4 0.2 0 0.42 0.2 0 0.44 0.2 0 0.46 0.2 0 0.48 0.2 0 0.5 0.2 0 0.52 0.2 0 0.54 0.2 0 0.56 0.2 0 0.58 0.2 0 0.6 0.2 0 0.62 0.2 0 0.64 0.2 0 0.66 0.2 0 0.68 0.2 0 0.7 0.2 0 0.72 0.2 0 0.74 0.2 0 0.76 0.2 0 0.78 0.2 0 0.8 0.2 0 0.82 0.2 0 0.84 0.2 0 0.86 0.2 0 0.88 0.2 0 0.9 0.2 0 0.92 0.2 0 0.94 0.2 0 0.96 0.2 0 0.98 0.2 0 1 0.2 0 0 0.22 0 0.02 0.22 0 0.04 0.22 0 0.06 0.22 0 0.08 0.22 0 0.1 0.22 0 0.12 0.22 0 0.14 0.22 0 0.16 0.22 0 0.18 0.22 0 0.2 0.22 0 0.22 0.22 0 0.24 0.22 0 0.26 0.22 0 0.28 0.22 0 0.3 0.22 0 0.32 0.22 0 0.34 0.22 0 0.36 0.22 0 0.38 0.22 0 0.4 0.22 0 0.42 0.22 0 0.44 0.22 0 0.46 0.22 0 0.48 0.22 0 0.5 0.22 0 0.52 0.22 0 0.54 0.22 0 0.56 0.22 0 0.58 0.22 0 0.6 0.22 0 0.62 0.22 0 0.64 0.22 0 0.66 0.22 0 0.68 0.22 0 0.7 0.22 0 0.72 0.22 0 0.74 0.22 0 0.76 0.22 0 0.78 0.22 0 0.8 0.22 0 0.82 0.22 0 0.84 0.22 0 0.86 0.22 0 0.88 0.22 0 0.9 0.22 0 0.92 0.22 0 0.94 0.22 0 0.96 0.22 0 0.98 0.22 0 1 0.22 0 0 0.24 0 0.02 0.24 0 0.04 0.24 0 0.06 0.24 0 0.08 0.24 0 0.1 0.24 0 0.12 0.24 0 0.14 0.24 0 0.16 0.24 0 0.18 0.24 0 0.2 0.24 0 0.22 0.24 0 0.24 0.24 0 0.26 0.24 0 0.28 0.24 0 0.3 0.24 0 0.32 0.24 0 0.34 0.24 0 0.36 0.24 0 0.38 0.24 0 0.4 0.24 0 0.42 0.24 0 0.44 0.24 0 0.46 0.24 0 0.48 0.24 0 0.5 0.24 0 0.52 0.24 0 0.54 0.24 0 0.56 0.24 0 0.58 0.24 0 0.6 0.24 0 0.62 0.24 0 0.64 0.24 0 0.66 0.24 0 0.68 0.24 0 0.7 0.24 0 0.72 0.24 0 0.74 0.24 0 0.76 0.24 0 0.78 0.24 0 0.8 0.24 0 0.82 0.24 0 0.84 0.24 0 0.86 0.24 0 0.88 0.24 0 0.9 0.24 0 0.92 0.24 0 0.94 0.24 0 0.96 0.24 0 0.98 0.24 0 1 0.24 0 0 0.26 0 0.02 0.26 0 0.04 0.26 0 0.06 0.26 0 0.08 0.26 0 0.1 0.26 0 0.12 0.26 0 0.14 0.26 0 0.16 0.26 0 0.18 0.26 0 0.2 0.26 0 0.22 0.26 0 0.24 0.26 0 0.26 0.26 0 0.28 0.26 0 0.3 0.26 0 0.32 0.26 0 0.34 0.26 0 0.36 0.26 0 0.38 0.26 0 0.4 0.26 0 0.42 0.26 0 0.44 0.26 0 0.46 0.26 0 0.48 0.26 0 0.5 0.26 0 0.52 0.26 0 0.54 0.26 0 0.56 0.26 0 0.58 0.26 0 0.6 0.26 0 0.62 0.26 0 0.64 0.26 0 0.66 0.26 0 0.68 0.26 0 0.7 0.26 0 0.72 0.26 0 0.74 0.26 0 0.76 0.26 0 0.78 0.26 0 0.8 0.26 0 0.82 0.26 0 0.84 0.26 0 0.86 0.26 0 0.88 0.26 0 0.9 0.26 0 0.92 0.26 0 0.94 0.26 0 0.96 0.26 0 0.98 0.26 0 1 0.26 0 0 0.28 0 0.02 0.28 0 0.04 0.28 0 0.06 0.28 0 0.08 0.28 0 0.1 0.28 0 0.12 0.28 0 0.14 0.28 0 0.16 0.28 0 0.18 0.28 0 0.2 0.28 0 0.22 0.28 0 0.24 0.28 0 0.26 0.28 0 0.28 0.28 0 0.3 0.28 0 0.32 0.28 0 0.34 0.28 0 0.36 0.28 0 0.38 0.28 0 0.4 0.28 0 0.42 0.28 0 0.44 0.28 0 0.46 0.28 0 0.48 0.28 0 0.5 0.28 0 0.52 0.28 0 0.54 0.28 0 0.56 0.28 0 0.58 0.28 0 0.6 0.28 0 0.62 0.28 0 0.64 0.28 0 0.66 0.28 0 0.68 0.28 0 0.7 0.28 0 0.72 0.28 0 0.74 0.28 0 0.76 0.28 0 0.78 0.28 0 0.8 0.28 0 0.82 0.28 0 0.84 0.28 0 0.86 0.28 0 0.88 0.28 0 0.9 0.28 0 0.92 0.28 0 0.94 0.28 0 0.96 0.28 0 0.98 0.28 0 1 0.28 0 0 0.3 0 0.02 0.3 0 0.04 0.3 0 0.06 0.3 0 0.08 0.3 0 0.1 0.3 0 0.12 0.3 0 0.14 0.3 0 0.16 0.3 0 0.18 0.3 0 0.2 0.3 0 0.22 0.3 0 0.24 0.3 0 0.26 0.3 0 0.28 0.3 0 0.3 0.3 0 0.32 0.3 0 0.34 0.3 0 0.36 0.3 0 0.38 0.3 0 0.4 0.3 0 0.42 0.3 0 0.44 0.3 0 0.46 0.3 0 0.48 0.3 0 0.5 0.3 0 0.52 0.3 0 0.54 0.3 0 0.56 0.3 0 0.58 0.3 0 0.6 0.3 0 0.62 0.3 0 0.64 0.3 0 0.66 0.3 0 0.68 0.3 0 0.7 0.3 0 0.72 0.3 0 0.74 0.3 0 0.76 0.3 0 0.78 0.3 0 0.8 0.3 0 0.82 0.3 0 0.84 0.3 0 0.86 0.3 0 0.88 0.3 0 0.9 0.3 0 0.92 0.3 0 0.94 0.3 0 0.96 0.3 0 0.98 0.3 0 1 0.3 0 0 0.32 0 0.02 0.32 0 0.04 0.32 0 0.06 0.32 0 0.08 0.32 0 0.1 0.32 0 0.12 0.32 0 0.14 0.32 0 0.16 0.32 0 0.18 0.32 0 0.2 0.32 0 0.22 0.32 0 0.24 0.32 0 0.26 0.32 0 0.28 0.32 0 0.3 0.32 0 0.32 0.32 0 0.34 0.32 0 0.36 0.32 0 0.38 0.32 0 0.4 0.32 0 0.42 0.32 0 0.44 0.32 0 0.46 0.32 0 0.48 0.32 0 0.5 0.32 0 0.52 0.32 0 0.54 0.32 0 0.56 0.32 0 0.58 0.32 0 0.6 0.32 0 0.62 0.32 0 0.64 0.32 0 0.66 0.32 0 0.68 0.32 0 0.7 0.32 0 0.72 0.32 0 0.74 0.32 0 0.76 0.32 0 0.78 0.32 0 0.8 0.32 0 0.82 0.32 0 0.84 0.32 0 0.86 0.32 0 0.88 0.32 0 0.9 0.32 0 0.92 0.32 0 0.94 0.
[...]
			<PointData Scalars="VitesseX">
				<DataArray Name="VitesseX" type="Float32" format="ascii">
 0 0 0 0 0 0 0 0 0 0 0 0 0 0 0 0 0 0 0 0 0 0 0 0 0 0 0 0 0 0 0 0 0 0 0 0 0 0 0 0 0 0 0 0 0 0 0 0 0 0 -0 0 -0.00024483 -0.000975518 -0.00218056 -0.003841 -0.00593067 -0.00841664 -0.0112597 -0.014415 -0.0178329 -0.0214592 -0.0252369 -0.0291061 -0.0330059 -0.036875 -0.0406522 -0.0442778 -0.0476947 -0.0508489 -0.0536908 -0.0561753 -0.0582635 -0.0599223 -0.061129 -0.0618551 -0.0620972 -0.0618524 -0.0611141 -0.0599056 -0.0582423 -0.0561504 -0.053663 -0.0508194 -0.0476644 -0.0442476 -0.0406231 -0.0368477 -0.0329813 -0.0290844 -0.0252181 -0.0214436 -0.0178205 -0.0144056 -0.0112529 -0.00841203 -0.00592779 -0.00383939 -0.00217978 -0.00097518 -0.000244783 -2.65667e-27 0 -0.000485877 -0.00193637 -0.00432909 -0.00762685 -0.011778 -0.0167174 -0.0223673 -0.0286384 -0.0354317 -0.0426397 -0.0501483 -0.0578376 -0.0655864 -0.0732729 -0.0807747 -0.0879728 -0.0947531 -0.101009 -0.10664 -0.11156 -0.115689 -0.118963 -0.121344 -0.122758 -0.123214 -0.122717 -0.121226 -0.118811 -0.115496 -0.111333 -0.106388 -0.100739 -0.0944762 -0.0876972 -0.0805087 -0.0730237 -0.0653606 -0.0576382 -0.0499771 -0.0424985 -0.0353197 -0.0285536 -0.0223065 -0.0166768 -0.0117531 -0.00761328 -0.0043229 -0.00193409 -0.000485572 -5.27164e-27 0 -0.000719303 -0.0028671 -0.00641073 -0.0112956 -0.0174456 -0.0247644 -0.0331368 -0.0424307 -0.0524991 -0.0631822 -0.0743106 -0.0857058 -0.0971873 -0.108575 -0.119687 -0.130347 -0.140384 -0.149641 -0.15797 -0.16524 -0.171336 -0.176164 -0.179674 -0.18174 -0.182385 -0.181637 -0.179396 -0.175799 -0.170872 -0.164694 -0.157362 -0.148993 -0.139718 -0.129684 -0.119048 -0.107976 -0.0966435 -0.0852255 -0.0738986 -0.0628423 -0.0522296 -0.0422268 -0.0329907 -0.0246667 -0.0173857 -0.0112631 -0.00639597 -0.00286174 -0.000718588 -7.80371e-27 0 -0.000941435 -0.0037531 -0.00839284 -0.0147898 -0.0228448 -0.032432 -0.0434006 -0.0555775 -0.0687697 -0.0827678 -0.097349 -0.112278 -0.127318 -0.142234 -0.156786 -0.170741 -0.183878 -0.195987 -0.206877 -0.216376 -0.224334 -0.230628 -0.235202 -0.237873 -0.238677 -0.237683 -0.234707 -0.229971 -0.223499 -0.215392 -0.205782 -0.194819 -0.182677 -0.169546 -0.155632 -0.141153 -0.126337 -0.111411 -0.0966058 -0.0821547 -0.0682838 -0.0552097 -0.0431372 -0.0322558 -0.022737 -0.0147313 -0.00836633 -0.00374355 -0.000940164 -1.02129e-26 0 -0.00114877 -0.00458038 -0.0102442 -0.0180544 -0.0278906 -0.0395994 -0.0529969 -0.0678715 -0.0839872 -0.101088 -0.1189 -0.137135 -0.155504 -0.173719 -0.191485 -0.208518 -0.224546 -0.239315 -0.25259 -0.264162 -0.273847 -0.281497 -0.287052 -0.29027 -0.291202 -0.289968 -0.286285 -0.280472 -0.272543 -0.262627 -0.250882 -0.237494 -0.222674 -0.206655 -0.189686 -0.172032 -0.153973 -0.135783 -0.117741 -0.100131 -0.0832289 -0.0672976 -0.052586 -0.0393246 -0.0277225 -0.0179634 -0.010203 -0.00456565 -0.00114681 -1.2461e-26 0 -0.00133805 -0.0053359 -0.0119355 -0.0210378 -0.0325032 -0.0461534 -0.0617743 -0.0791188 -0.0979114 -0.117852 -0.138623 -0.159885 -0.1813 -0.202533 -0.223237 -0.243083 -0.261751 -0.278944 -0.29439 -0.307845 -0.319096 -0.327968 -0.334404 -0.338104 -0.339132 -0.337664 -0.333316 -0.326503 -0.317232 -0.305652 -0.291951 -0.276344 -0.259077 -0.240422 -0.220669 -0.200125 -0.179114 -0.157955 -0.136969 -0.116488 -0.0968294 -0.0783 -0.0611881 -0.0457617 -0.0322637 -0.0209082 -0.011877 -0.00531513 -0.00133529 -1.45125e-26 0 -0.00150627 -0.00600774 -0.0134401 -0.0236931 -0.0366102 -0.0519911 -0.0695946 -0.089142 -0.110323 -0.132798 -0.156208 -0.180169 -0.204299 -0.228222 -0.251545 -0.273893 -0.294907 -0.314252 -0.331619 -0.346735 -0.359362 -0.369306 -0.376509 -0.380618 -0.381711 -0.380018 -0.375058 -0.367339 -0.356859 -0.34379 -0.328341 -0.310756 -0.291312 -0.270316 -0.248094 -0.224988 -0.201365 -0.177578 -0.153988 -0.130966 -0.108871 -0.0880433 -0.0688079 -0.0514655 -0.0362891 -0.0235197 -0.013362 -0.00598022 -0.00150263 -1.6335e-26 0 -0.00165081 -0.00658531 -0.0147344 -0.0259783 -0.0401465 -0.0570201 -0.0763344 -0.0977831 -0.121025 -0.145689 -0.171377 -0.197669 -0.224143 -0.250385 -0.275962 -0.30046 -0.323486 -0.344673 -0.363684 -0.380217 -0.394012 -0.404859 -0.412703 -0.417138 -0.418268 -0.41636 -0.410853 -0.402338 -0.390805 -0.376442 -0.359482 -0.340192 -0.318876 -0.29587 -0.27153 -0.246232 -0.220374 -0.194344 -0.16853 -0.14334 -0.119164 -0.0963743 -0.0753256 -0.0563463 -0.0397353 -0.0257564 -0.0146347 -0.00655049 -0.0016462 -1.78995e-26 0 -0.00176936 -0.00705949 -0.0157978 -0.0278575 -0.0430566 -0.0611612 -0.0818871 -0.104906 -0.129851 -0.156322 -0.183894 -0.21211 -0.240517 -0.268669 -0.296098 -0.322362 -0.347038 -0.369733 -0.390084 -0.407765 -0.4225 -0.434066 -0.442415 -0.447087 -0.448228 -0.446114 -0.440134 -0.430945 -0.418529 -0.40309 -0.38488 -0.364186 -0.341334 -0.316682 -0.290613 -0.263524 -0.235846 -0.207991 -0.180367 -0.153414 -0.127547 -0.103162 -0.0806388 -0.0603276 -0.0425481 -0.0275835 -0.015675 -0.007017 -0.00176376 -1.91814e-26 0 -0.00186008 -0.00742281 -0.0166137 -0.0293009 -0.0452948 -0.0643493 -0.0861655 -0.110398 -0.13666 -0.164531 -0.19356 -0.223263 -0.253161 -0.282783 -0.311637 -0.339259 -0.365201 -0.389041 -0.410402 -0.428944 -0.444376 -0.456467 -0.465177 -0.469991 -0.471118 -0.468809 -0.462441 -0.452708 -0.439593 -0.423314 -0.404135 -0.382357 -0.358327 -0.332421 -0.305034 -0.276592 -0.247538 -0.218299 -0.18931 -0.161029 -0.133887 -0.1083 -0.084664 -0.0633467 -0.0446835 -0.028972 -0.0164667 -0.00737245 -0.00185346 -2.01602e-26 0 -0.00192152 -0.00766953 -0.0171691 -0.030286 -0.0468255 -0.0665339 -0.0891019 -0.114172 -0.141346 -0.170186 -0.200223 -0.230951 -0.261876 -0.292509 -0.322342 -0.350889 -0.377681 -0.402286 -0.424316 -0.443421 -0.459298 -0.471709 -0.480628 -0.485488 -0.486582 -0.484153 -0.47753 -0.467435 -0.453852 -0.437007 -0.417171 -0.394662 -0.369835 -0.343079 -0.314803 -0.28544 -0.255452 -0.225278 -0.195365 -0.166182 -0.13818 -0.11178 -0.0873902 -0.0653912 -0.0461295 -0.029912 -0.0170023 -0.00761285 -0.00191409 -2.08205e-26 0 -0.00195296 -0.00779761 -0.0174613 -0.0308108 -0.0476502 -0.0677222 -0.0907126 -0.116258 -0.143951 -0.173343 -0.203951 -0.235257 -0.26676 -0.297954 -0.328315 -0.357344 -0.384566 -0.409541 -0.431871 -0.451199 -0.467224 -0.479704 -0.488634 -0.493366 -0.494363 -0.491633 -0.484724 -0.474292 -0.460342 -0.443107 -0.422868 -0.399948 -0.374707 -0.347533 -0.318846 -0.289081 -0.258699 -0.228143 -0.197863 -0.168325 -0.13998 -0.113258 -0.0885661 -0.0662887 -0.046777 -0.0303422 -0.0172532 -0.00772814 -0.00194389 -2.11518e-26 0 -0.00195297 -0.0077977 -0.0174618 -0.0308123 -0.0476538 -0.0677288 -0.0907231 -0.116275 -0.143976 -0.173375 -0.203989 -0.235308 -0.266817 -0.29801 -0.328372 -0.3574 -0.384619 -0.409589 -0.431911 -0.451229 -0.467245 -0.479716 -0.488639 -0.493367 -0.494363 -0.491628 -0.484711 -0.474267 -0.460302 -0.443052 -0.422799 -0.399867 -0.374618 -0.347441 -0.318753 -0.288992 -0.258619 -0.228071 -0.197802 -0.168278 -0.139943 -0.113234 -0.0885512 -0.0662791 -0.0467717 -0.0303399 -0.0172524 -0.00772794 -0.00194388 -2.11489e-26 0 -0.00192322 -0.00768299 -0.0172137 -0.0303891 -0.0470198 -0.0668539 -0.0895819 -0.114846 -0.14224 -0.171314 -0.201589 -0.232547 -0.263683 -0.294496 -0.324458 -0.353072 -0.379868 -0.404408 -0.426294 -0.44518 -0.460775 -0.472846 -0.481418 -0.485737 -0.486558 -0.483612 -0.476645 -0.466202 -0.452318 -0.435228 -0.415213 -0.392593 -0.367723 -0.340987 -0.31279 -0.283561 -0.25375 -0.223778 -0.194087 -0.165132 -0.137345 -0.111151 -0.0869449 -0.0650951 -0.0459495 -0.0298163 -0.0169607 -0.00760019 -0.00191248 -2.08118e-26 0 -0.00186243 -0.00744145 -0.0166756 -0.0294444 -0.0455658 -0.0647965 -0.0868374 -0.111342 -0.137913 -0.166115 -0.195485 -0.225506 -0.255694 -0.285571 -0.314609 -0.342328 -0.36827 -0.392009 -0.413164 -0.4314 -0.446437 -0.45805 -0.466274 -0.470344 -0.471086 -0.468028 -0.461156 -0.450913 -0.437354 -0.420714 -0.401266 -0.379321 -0.355224 -0.329343 -0.302075 -0.273825 -0.245026 -0.216089 -0.187427 -0.159479 -0.132664 -0.107378 -0.0840103 -0.0629136 -0.0444208 -0.0288323 -0.0164059 -0.00735405 -0.00185112 -2.0146e-26 0 -0.00177259 -0.00708508 -0.0158828 -0.0280543 -0.0434284 -0.061775 -0.0828098 -0.106201 -0.131569 -0.158496 -0.18653 -0.215189 -0.244004 -0.272495 -0.300172 -0.32657 -0.35125 -0.373809 -0.393878 -0.411139 -0.425331 -0.436244 -0.443927 -0.447585 -0.448187 -0.445047 -0.438367 -0.428471 -0.41544 -0.399502 -0.380921 -0.359993 -0.337047 -0.312434 -0.286524 -0.259702 -0.232376 -0.204931 -0.177761 -0.151273 -0.125859 -0.101891 -0.0797349 -0.0597287 -0.042185 -0.0273902 -0.015591 -0.00699158 -0.00176053 -1.91619e-26 0 -0.00165486 -0.00661744 -0.0148411 -0.0262253 -0.0406129 -0.0577904 -0.0774928 -0.0994089 -0.123181 -0.148417 -0.17468 -0.201525 -0.228522 -0.255191 -0.281078 -0.305741 -0.328772 -0.349792 -0.368451 -0.384461 -0.397577 -0.407606 -0.41461 -0.417786 -0.418224 -0.415034 -0.408639 -0.399232 -0.386923 -0.371929 -0.354499 -0.334913 -0.313478 -0.29052 -0.266382 -0.241418 -0.216004 -0.190487 -0.16524 -0.140638 -0.117032 -0.0947684 -0.0741825 -0.0555889 -0.039277 -0.0255126 -0.0145288 -0.00651844 -0.00164213 -1.78751e-26 0 -0.00151109 -0.00604592 -0.0135668 -0.0239863 -0.0371635 -0.0529054 -0.0709703 -0.0910721 -0.112881 -0.136038 -0.160136 -0.184755 -0.2095 -0.233931 -0.257623 -0.280169 -0.301191 -0.320336 -0.33729 -0.351789 -0.363613 -0.372587 -0.378787 -0.381423 -0.381667 -0.378467 -0.372441 -0.363658 -0.352254 -0.33843 -0.322418 -0.304478 -0.284889 -0.263947 -0.241963 -0.219257 -0.196162 -0.172989 -0.150072 -0.127748 -0.106331 -0.0861291 -0.0674417 -0.0505599 -0.0357428 -0.0232291 -0.0132358 -0.00594203 -0.00149778 -1.63062e-26 0 -0.00134355 -0.00537952 -0.0120802 -0.0213725 -0.0331348 -0.0471972 -0.0633451 -0.0813222 -0.100832 -0.121549 -0.14311 -0.165129 -0.18724 -0.209053 -0.230179 -0.250255 -0.268939 -0.285907 -0.300885 -0.313639 -0.323973 -0.33174 -0.337024 -0.339072 -0.339092 -0.335926 -0.330347 -0.322313 -0.31198 -0.299534 -0.285186 -0.269168 -0.251731 -0.233136 -0.213654 -0.193565 -0.173161 -0.152706 -0.132492 -0.112805 -0.0939208 -0.0761066 -0.0596238 -0.0447249 -0.0316379 -0.0205755 -0.0117325 -0.00527141 -0.00132974 -1.44799e-26 0 -0.00115488 -0.00462876 -0.0104046 -0.0184252 -0.0285902 -0.0407557 -0.0547375 -0.0703131 -0.0872234 -0.105181 -0.123868 -0.142946 -0.162088 -0.180948 -0.199185 -0.216478 -0.232523 -0.247047 -0.259812 -0.270613 -0.279285 -0.285728 -0.289934 -0.291466 -0.291118 -0.288108 -0.283022 -0.27585 -0.266738 -0.255855 -0.243389 -0.229541 -0.214527 -0.198572 -0.181902 -0.164751 -0.147363 -0.129956 -0.11277 -0.0960401 -0.0799973 -0.0648613 -0.0508502 -0.0381723 -0.027026 -0.0175937 -0.0100424 -0.0045171 -0.00114065 -1.24252e-26 0 -0.000948051 -0.00380549 -0.00856644 -0.0151909 -0.0236015 -0.0336827 -0.0452834 -0.0582185 -0.0722703 -0.087194 -0.102721 -0.118565 -0.134444 -0.150061 -0.165126 -0.179365 -0.192526 -0.204377 -0.21472 -0.223388 -0.230255 -0.235263 -0.238298 -0.239307 -0.23855 -0.235742 -0.231211 -0.225 -0.217241 -0.208083 -0.197685 -0.18622 -0.173864 -0.160798 -0.147206 -0.133269 -0.119177 -0.105099 -0.091221 -0.0777227 -0.0647812 -0.0525685 -0.0412549 -0.0310051 -0.0219811 -0.0143305 -0.00819228 -0.00369092 -0.000933485 -1.01746e-26 0 -0.000726326 -0.00292268 -0.0065948 -0.0117207 -0.0182474 -0.0260898 -0.0351319 -0.0452293 -0.0562086 -0.0678726 -0.080004 -0.0923715 -0.104743 -0.116877 -0.128536 -0.139502 -0.149574 -0.158563 -0.166315 -0.172708 -0.177653 -0.181128 -0.182965 -0.183375 -0.182244 -0.179652 -0.175732 -0.170566 -0.164269 -0.156968 -0.148796 -0.139888 -0.130381 -0.120411 -0.110112 -0.099614 -0.0890448 -0.0785267 -0.0681842 -0.0581383 -0.0485105 -0.0394223 -0.0309919 -0.0233386 -0.016583 -0.0108374 -0.00621112 -0.00280585 -0.000711498 -7.76361e-27 0 -0.000493198 -0.00199426 -0.00452074 -0.00806933 -0.0126124 -0.0180968 -0.0244435 -0.0315506 -0.039292 -0.0475224 -0.0560771 -0.06478 -0.0734545 -0.0819196 -0.0899961 -0.0975191 -0.104339 -0.11032 -0.115359 -0.119374 -0.122317 -0.12415 -0.124844 -0.124517 -0.1231 -0.120721 -0.117459 -0.113404 -0.108656 -0.103318 -0.0974914 -0.0912756 -0.0847648 -0.0780475 -0.071206 -0.0643153 -0.0574441 -0.0506587 -0.0440225 -0.0375964 -0.0314436 -0.0256302 -0.0202228 -0.0152923 -0.0109158 -0.0071694 -0.00413016 -0.00187582 -0.000478183 -5.23047e-27 0 -0.000252342 -0.00103488 -0.00237698 -0.00429436 -0.00678543 -0.00982974 -0.0133867 -0.0173984 -0.0217875 -0.0264621 -0.0313118 -0.036222 -0.0410729 -0.0457414 -0.0501119 -0.0540772 -0.0575394 -0.0604181 -0.0626579 -0.0642298 -0.06509 -0.0652798 -0.0647976 -0.0636953 -0.0620374 -0.0598771 -0.05731 -0.0544167 -0.0512804 -0.0479791 -0.0445842 -0.0411547 -0.0377403 -0.0343814 -0.0311071 -0.0279361 -0.024879 -0.0219401 -0.0191215 -0.0164245 -0.0138513 -0.0114112 -0.00911834 -0.0069937 -0.00506957 -0.0033845 -0.00198227 -0.000915463 -0.000237215 -2.61512e-27 0 -7.55677e-06 -5.96635e-05 -0.000197334 -0.000455349 -0.00085845 -0.00141922 -0.0021362 -0.00299613 -0.00397158 -0.00502532 -0.0061018 -0.00714821 -0.00810905 -0.00891442 -0.00951408 -0.00986066 -0.00991126 -0.00964206 -0.00904305 -0.00812423 -0.00690742 -0.00543024 -0.00374357 -0.00190866 3.41892e-07 0.00190868 0.00374351 0.0054356 0.00691733 0.00813302 0.00904736 0.00964246 0.00991005 0.00985922 0.00951468 0.00891424 0.00810706 0.00714981 0.00610235 0.00502409 0.00397285 0.00299715 0.00213635 0.00141911 0.000858865 0.000455041 0.000197434 5.96781e-05 7.55645e-06 4.11548e-29 0 0.000237214 0.000915473 0.00198239 0.0033841 0.00506965 0.00699359 0.00911821 0.0114122 0.013853 0.0164239 0.0191203 0.0219417 0.0248788 0.0279357 0.0311076 0.0343808 0.0377394 0.0411558 0.0445883 0.0479852 0.0512867 0.0544202 0.0573112 0.0598784 0.0620377 0.0636948 0.0647969 0.0652862 0.0650972 0.0642335 0.0626608 0.0604194 0.0575376 0.0540761 0.0501125 0.0457417 0.0410723 0.0362216 0.0313113 0.0264614 0.0217885 0.0173991 0.0133869 0.00982946 0.00678579 0.0042941 0.00237703 0.0010349 0.000252342 2.69646e-27 0 0.000478183 0.00187582 0.00413025 0.00716898 0.0109155 0.0152922 0.0202225 0.025631 0.0314458 0.0375976 0.0440191 0.0506586 0.0574466 0.064315 0.071206 0.0780473 0.0847645 0.0912772 0.0974957 0.103322 0.108659 0.113405 0.117459 0.120722 0.1231 0.124517 0.124847 0.124154 0.122319 0.119374 0.11536 0.110321 0.104337 0.097519 0.0899959 0.0819188 0.0734543 0.0647791 0.0560763 0.0475219 0.0392925 0.0315509 0.0244434 0.0180964 0.0126126 0.0080691 0.00452079 0.0019943 0.000493198 5.30895e-27 0 0.000711498 0.00280585 0.00621118 0.010837 0.0165824 0.0233387 0.0309915 0.039423 0.0485131 0.0581411 0.0681819 0.0785245 0.0890462 0.0996137 0.110111 0.12041 0.13038 0.139888 0.148799 0.156972 0.164269 0.170563 0.17573 0.179651 0.182243 0.183375 0.182967 0.181131 0.177654 0.172708 0.166315 0.158561 0.149571 0.139503 0.128536 0.116875 0.104742 0.0923719 0.080006 0.0678734 0.0562088 0.0452291 0.0351316 0.0260895 0.0182476 0.0117206 0.0065949 0.00292274 0.000726327 7.83748e-27 0 0.000933485 0.00369092 0.00819233 0.0143302 0.0219805 0.0310052 0.0412542 0.0525688 0.0647828 0.0777263 0.0912218 0.105094 0.119173 0.133269 0.147206 0.160797 0.173862 0.186219 0.197686 0.208084 0.217239 0.224995 0.231209 0.235741 0.238548 0.239307 0.238298 0.235262 0.230256 0.223388 0.214723 0.204379 0.192526 0.179366 0.165125 0.150059 0.134443 0.118565 0.102722 0.0871945 0.0722702 0.0582177 0.0452827 0.0336826 0.0236019 0.015191 0.00856661 0.00380557 0.000948054 1.02423e-26 0 0.00114065 0.0045171 0.0100425 0.0175935 0.027025 0.0381711 0.0508488 0.0648611 0.0799987 0.0960451 0.112773 0.12995 0.147357 0.164751 0.181903 0.198572 0.214527 0.22954 0.243389 0.255856 0.266735 0.275845 0.283018 0.288106 0.291118 0.291466 0.289933 0.285727 0.279292 0.270616 0.259813 0.247051 0.232526 0.21648 0.199186 0.180947 0.162087 0.142945 0.123867 0.10518 0.0872231 0.0703118 0.0547365 0.0407557 0.0285908 0.0184255 0.0104048 0.00462888 0.00115488 1.24855e-26 0 0.00132974 0.00527141 0.0117325 0.0205756 0.0316362 0.0447233 0.0596243 0.0761064 0.0939209 0.112808 0.132496 0.152705 0.173155 0.193562 0.213654 0.233136 0.251731 0.269168 0.285186 0.299534 0.31198 0.322312 0.330345 0.335925 0.339093 0.339072 0.337025 0.331735 0.323973 0.313641 0.300882 0.285907 0.268939 0.250258 0.230181 0.209052 0.187238 0.165127 0.143106 0.121546 0.100832 0.0813205 0.0633438 0.0471972 0.0331356 0.0213729 0.0120805 0.00537967 0.00134356 1.45319e-26 0 0.00149778 0.00594203 0.0132358 0.0232292 0.0357412 0.0505587 0.0674424 0.0861273 0.10633 0.127752 0.150081 0.172994 0.196157 0.219251 0.241963 0.263947 0.284888 0.304477 0.322418 0.33843 0.352254 0.363659 0.372441 0.378467 0.381666 0.381423 0.378789 0.372582 0.363608 0.351791 0.337293 0.320337 0.301192 0.280169 0.257622 0.23393 0.209501 0.184762 0.160136 0.136034 0.112881 0.0910701 0.0709688 0.0529055 0.0371645 0.0239868 0.0135672 0.0060461 0.0015111 1.63493e-26 0 0.00164213 0.00651844 0.0145288 0.0255127 0.0392757 0.0555856 0.0741798 0.0947659 0.117031 0.140641 0.165249 0.190497 0.216007 0.241415 0.266384 0.290525 0.313477 0.334911 0.354498 0.371928 0.386923 0.399232 0.408639 0.415034 0.418224 0.417786 0.414611 0.407606 0.397579 0.384466 0.368455 0.349792 0.328774 0.305741 0.281076 0.255189 0.228523 0.201538 0.174688 0.148416 0.123181 0.0994069 0.0774914 0.0577907 0.0406141 0.0262259 0.0148415 0.00661765 0.00165487 1.79091e-26 0 0.00176053 0.00699158 0.015591 0.0273904 0.0421844 0.059725 0.0797303 0.101887 0.125855 0.151273 0.177764 0.204937 0.232384 0.259703 0.286525 0.31244 0.337051 0.359992 0.380918 0.399501 0.41544 0.428471 0.438368 0.445047 0.448188 0.447585 0.443928 0.436247 0.425335 0.411143 0.393878 0.373808 0.351251 0.326571 0.300172 0.272494 0.244005 0.215192 0.186533 0.158497 0.131569 0.106199 0.0828088 0.0617757 0.0434299 0.0280551 0.0158833 0.00708529 0.0017726 1.9187e-26 0 0.00185112 0.00735405 0.0164059 0.0288324 0.0444208 0.062911 0.0840065 0.107377 0.132662 0.15948 0.187427 0.216089 0.24503 0.273827 0.302075 0.329345 0.355226 0.37932 0.401267 0.420718 0.437361 0.450919 0.461161 0.46803 0.471086 0.470344 0.466276 0.458052 0.446438 0.4314 0.413163 0.392008 0.368269 0.342327 0.314609 0.285572 0.255702 0.225508 0.195483 0.166117 0.137913 0.111341 0.0868367 0.0647967 0.0455671 0.0294454 0.0166762 0.00744165 0.00186243 2.01628e-26 0 0.00191248 0.00760019 0.0169607 0.0298164 0.0459497 0.0650941 0.0869417 0.111151 0.137347 0.165132 0.194087 0.223778 0.253749 0.283561 0.312789 0.340984 0.367719 0.392592 0.415215 0.435232 0.452323 0.466207 0.476648 0.483614 0.486558 0.485738 0.481419 0.472847 0.460776 0.44518 0.426293 0.404407 0.379869 0.353073 0.324458 0.294496 0.263686 0.232549 0.201592 0.171316 0.14224 0.114847 0.0895814 0.0668529 0.0470203 0.0303898 0.0172141 0.00768314 0.00192322 2.08212e-26 0 0.00194388 0.00772794 0.0172524 0.0303399 0.0467719 0.0662793 0.0885486 0.11323 0.139943 0.168276 0.197801 0.228072 0.258618 0.288991 0.318753 0.347439 0.374616 0.399867 0.422799 0.443052 0.460302 0.474267 0.484711 0.491628 0.494363 0.493367 0.488639 0.479716 0.467244 0.451228 0.43191 0.40959 0.38462 0.3574 0.328372 0.29801 0.266814 0.235306 0.203992 0.173376 0.143976 0.116276 0.0907235 0.0677278 0.0476538 0.0308127 0.017462 0.00779778 0.00195297 2.11518e-26 0 0.00194389 0.00772814 0.0172532 0.0303422 0.046777 0.0662889 0.0885657 0.113257 0.13998 0.168326 0.197863 0.228145 0.258701 0.289082 0.318847 0.347533 0.374705 0.399947 0.422867 0.443107 0.460342 0.474292 0.484724 0.491633 0.494363 0.493366 0.488634 0.479704 0.467224 0.451199 0.431872 0.409543 0.384566 0.357343 0.328314 0.297955 0.266762 0.235261 0.203952 0.173342 0.143951 0.116259 0.0907133 0.067722 0.04765 0.0308109 0.0174614 0.00779763 0.00195296 2.11496e-26 0 0.00191409 0.00761285 0.0170023 0.029912 0.0461295 0.0653913 0.0873902 0.11178 0.138181 0.166186 0.195368 0.22528 0.255453 0.285441 0.314803 0.34308 0.369838 0.394664 0.417171 0.437007 0.453853 0.467436 0.47753 0.484153 0.486581 0.485488 0.480628 0.47171 0.459298 0.44342 0.424317 0.402288 0.37768 0.350889 0.322346 0.292514 0.261879 0.230952 0.200223 0.170185 0.141347 0