<?xml version="1.0"?>
<VTKFile type="PolyData">
	<PolyData>
		<Piece NumberOfPoints="2601" NumberOfPolys="2500">
			<Points>
				<DataArray type="Float32" NumberOfComponents="3" format="ascii">
 0 0 0 0.02 0 0 0.04 0 0 0.06 0 0 0.08 0 0 0.1 0 0 0.12 0 0 0.14 0 0 0.16 0 0 0.18 0 0 0.2 0 0 0.22 0 0 0.24 0 0 0.26 0 0 0.28 0 0 0.3 0 0 0.32 0 0 0.34 0 0 0.36 0 0 0.38 0 0 0.4 0 0 0.42 0 0 0.44 0 0 0.46 0 0 0.48 0 0 0.5 0 0 0.52 0 0 0.54 0 0 0.56 0 0 0.58 0 0 0.6 0 0 0.62 0 0 0.64 0 0 0.66 0 0 0.68 0 0 0.7 0 0 0.72 0 0 0.74 0 0 0.76 0 0 0.78 0 0 0.8 0 0 0.82 0 0 0.84 0 0 0.86 0 0 0.88 0 0 0.9 0 0 0.92 0 0 0.94 0 0 0.96 0 0 0.98 0 0 1 0 0 0 0.02 0 0.02 0.02 0 0.04 0.02 0 0.06 0.02 0 0.08 0.02 0 0.1 0.02 0 0.12 0.02 0 0.14 0.02 0 0.16 0.02 0 0.18 0.02 0 0.2 0.02 0 0.22 0.02 0 0.24 0.02 0 0.26 0.02 0 0.28 0.02 0 0.3 0.02 0 0.32 0.02 0 0.34 0.02 0 0.36 0.02 0 0.38 0.02 0 0.4 0.02 0 0.42 0.02 0 0.44 0.02 0 0.46 0.02 0 0.48 0.02 0 0.5 0.02 0 0.52 0.02 0 0.54 0.02 0 0.56 0.02 0 0.58 0.02 0 0.6 0.02 0 0.62 0.02 0 0.64 0.02 0 0.66 0.02 0 0.68 0.02 0 0.7 0.02 0 0.72 0.02 0 0.74 0.02 0 0.76 0.02 0 0.78 0.02 0 0.8 0.02 0 0.82 0.02 0 0.84 0.02 0 0.86 0.02 0 0.88 0.02 0 0.9 0.02 0 0.92 0.02 0 0.94 0.02 0 0.96 0.02 0 0.98 0.02 0 1 0.02 0 0 0.04 0 0.02 0.04 0 0.04 0.04 0 0.06 0.04 0 0.08 0.04 0 0.1 0.04 0 0.12 0.04 0 0.14 0.04 0 0.16 0.04 0 0.18 0.04 0 0.2 0.04 0 0.22 0.04 0 0.24 0.04 0 0.26 0.04 0 0.28 0.04 0 0.3 0.04 0 0.32 0.04 0 0.34 0.04 0 0.36 0.04 0 0.38 0.04 0 0.4 0.04 0 0.42 0.04 0 0.44 0.04 0 0.46 0.04 0 0.48 0.04 0 0.5 0.04 0 0.52 0.04 0 0.54 0.04 0 0.56 0.04 0 0.58 0.04 0 0.6 0.04 0 0.62 0.04 0 0.64 0.04 0 0.66 0.04 0 0.68 0.04 0 0.7 0.04 0 0.72 0.04 0 0.74 0.04 0 0.76 0.04 0 0.78 0.04 0 0.8 0.04 0 0.82 0.04 0 0.84 0.04 0 0.86 0.04 0 0.88 0.04 0 0.9 0.04 0 0.92 0.04 0 0.94 0.04 0 0.96 0.04 0 0.98 0.04 0 1 0.04 0 0 0.06 0 0.02 0.06 0 0.04 0.06 0 0.06 0.06 0 0.08 0.06 0 0.1 0.06 0 0.12 0.06 0 0.14 0.06 0 0.16 0.06 0 0.18 0.06 0 0.2 0.06 0 0.22 0.06 0 0.24 0.06 0 0.26 0.06 0 0.28 0.06 0 0.3 0.06 0 0.32 0.06 0 0.34 0.06 0 0.36 0.06 0 0.38 0.06 0 0.4 0.06 0 0.42 0.06 0 0.44 0.06 0 0.46 0.06 0 0.48 0.06 0 0.5 0.06 0 0.52 0.06 0 0.54 0.06 0 0.56 0.06 0 0.58 0.06 0 0.6 0.06 0 0.62 0.06 0 0.64 0.06 0 0.66 0.06 0 0.68 0.06 0 0.7 0.06 0 0.72 0.06 0 0.74 0.06 0 0.76 0.06 0 0.78 0.06 0 0.8 0.06 0 0.82 0.06 0 0.84 0.06 0 0.86 0.06 0 0.88 0.06 0 0.9 0.06 0 0.92 0.06 0 0.94 0.06 0 0.96 0.06 0 0.98 0.06 0 1 0.06 0 0 0.08 0 0.02 0.08 0 0.04 0.08 0 0.06 0.08 0 0.08 0.08 0 0.1 0.08 0 0.12 0.08 0 0.14 0.08 0 0.16 0.08 0 0.18 0.08 0 0.2 0.08 0 0.22 0.08 0 0.24 0.08 0 0.26 0.08 0 0.28 0.08 0 0.3 0.08 0 0.32 0.08 0 0.34 0.08 0 0.36 0.08 0 0.38 0.08 0 0.4 0.08 0 0.42 0.08 0 0.44 0.08 0 0.46 0.08 0 0.48 0.08 0 0.5 0.08 0 0.52 0.08 0 0.54 0.08 0 0.56 0.08 0 0.58 0.08 0 0.6 0.08 0 0.62 0.08 0 0.64 0.08 0 0.66 0.08 0 0.68 0.08 0 0.7 0.08 0 0.72 0.08 0 0.74 0.08 0 0.76 0.08 0 0.78 0.08 0 0.8 0.08 0 0.82 0.08 0 0.84 0.08 0 0.86 0.08 0 0.88 0.08 0 0.9 0.08 0 0.92 0.08 0 0.94 0.08 0 0.96 0.08 0 0.98 0.08 0 1 0.08 0 0 0.1 0 0.02 0.1 0 0.04 0.1 0 0.06 0.1 0 0.08 0.1 0 0.1 0.1 0 0.12 0.1 0 0.14 0.1 0 0.16 0.1 0 0.18 0.1 0 0.2 0.1 0 0.22 0.1 0 0.24 0.1 0 0.26 0.1 0 0.28 0.1 0 0.3 0.1 0 0.32 0.1 0 0.34 0.1 0 0.36 0.1 0 0.38 0.1 0 0.4 0.1 0 0.42 0.1 0 0.44 0.1 0 0.46 0.1 0 0.48 0.1 0 0.5 0.1 0 0.52 0.1 0 0.54 0.1 0 0.56 0.1 0 0.58 0.1 0 0.6 0.1 0 0.62 0.1 0 0.64 0.1 0 0.66 0.1 0 0.68 0.1 0 0.7 0.1 0 0.72 0.1 0 0.74 0.1 0 0.76 0.1 0 0.78 0.1 0 0.8 0.1 0 0.82 0.1 0 0.84 0.1 0 0.86 0.1 0 0.88 0.1 0 0.9 0.1 0 0.92 0.1 0 0.94 0.1 0 0.96 0.1 0 0.98 0.1 0 1 0.1 0 0 0.12 0 0.02 0.12 0 0.04 0.12 0 0.06 0.12 0 0.08 0.12 0 0.1 0.12 0 0.12 0.12 0 0.14 0.12 0 0.16 0.12 0 0.18 0.12 0 0.2 0.12 0 0.22 0.12 0 0.24 0.12 0 0.26 0.12 0 0.28 0.12 0 0.3 0.12 0 0.32 0.12 0 0.34 0.12 0 0.36 0.12 0 0.38 0.12 0 0.4 0.12 0 0.42 0.12 0 0.44 0.12 0 0.46 0.12 0 0.48 0.12 0 0.5 0.12 0 0.52 0.12 0 0.54 0.12 0 0.56 0.12 0 0.58 0.12 0 0.6 0.12 0 0.62 0.12 0 0.64 0.12 0 0.66 0.12 0 0.68 0.12 0 0.7 0.12 0 0.72 0.12 0 0.74 0.12 0 0.76 0.12 0 0.78 0.12 0 0.8 0.12 0 0.82 0.12 0 0.84 0.12 0 0.86 0.12 0 0.88 0.12 0 0.9 0.12 0 0.92 0.12 0 0.94 0.12 0 0.96 0.12 0 0.98 0.12 0 1 0.12 0 0 0.14 0 0.02 0.14 0 0.04 0.14 0 0.06 0.14 0 0.08 0.14 0 0.1 0.14 0 0.12 0.14 0 0.14 0.14 0 0.16 0.14 0 0.18 0.14 0 0.2 0.14 0 0.22 0.14 0 0.24 0.14 0 0.26 0.14 0 0.28 0.14 0 0.3 0.14 0 0.32 0.14 0 0.34 0.14 0 0.36 0.14 0 0.38 0.14 0 0.4 0.14 0 0.42 0.14 0 0.44 0.14 0 0.46 0.14 0 0.48 0.14 0 0.5 0.14 0 0.52 0.14 0 0.54 0.14 0 0.56 0.14 0 0.58 0.14 0 0.6 0.14 0 0.62 0.14 0 0.64 0.14 0 0.66 0.14 0 0.68 0.14 0 0.7 0.14 0 0.72 0.14 0 0.74 0.14 0 0.76 0.14 0 0.78 0.14 0 0.8 0.14 0 0.82 0.14 0 0.84 0.14 0 0.86 0.14 0 0.88 0.14 0 0.9 0.14 0 0.92 0.14 0 0.94 0.14 0 0.96 0.14 0 0.98 0.14 0 1 0.14 0 0 0.16 0 0.02 0.16 0 0.04 0.16 0 0.06 0.16 0 0.08 0.16 0 0.1 0.16 0 0.12 0.16 0 0.14 0.16 0 0.16 0.16 0 0.18 0.16 0 0.2 0.16 0 0.22 0.16 0 0.24 0.16 0 0.26 0.16 0 0.28 0.16 0 0.3 0.16 0 0.32 0.16 0 0.34 0.16 0 0.36 0.16 0 0.38 0.16 0 0.4 0.16 0 0.42 0.16 0 0.44 0.16 0 0.46 0.16 0 0.48 0.16 0 0.5 0.16 0 0.52 0.16 0 0.54 0.16 0 0.56 0.16 0 0.58 0.16 0 0.6 0.16 0 0.62 0.16 0 0.64 0.16 0 0.66 0.16 0 0.68 0.16 0 0.7 0.16 0 0.72 0.16 0 0.74 0.16 0 0.76 0.16 0 0.78 0.16 0 0.8 0.16 0 0.82 0.16 0 0.84 0.16 0 0.86 0.16 0 0.88 0.16 0 0.9 0.16 0 0.92 0.16 0 0.94 0.16 0 0.96 0.16 0 0.98 0.16 0 1 0.16 0 0 0.18 0 0.02 0.18 0 0.04 0.18 0 0.06 0.18 0 0.08 0.18 0 0.1 0.18 0 0.12 0.18 0 0.14 0.18 0 0.16 0.18 0 0.18 0.18 0 0.2 0.18 0 0.22 0.18 0 0.24 0.18 0 0.26 0.18 0 0.28 0.18 0 0.3 0.18 0 0.32 0.18 0 0.34 0.18 0 0.36 0.18 0 0.38 0.18 0 0.4 0.18 0 0.42 0.18 0 0.44 0.18 0 0.46 0.18 0 0.48 0.18 0 0.5 0.18 0 0.52 0.18 0 0.54 0.18 0 0.56 0.18 0 0.58 0.18 0 0.6 0.18 0 0.62 0.18 0 0.64 0.18 0 0.66 0.18 0 0.68 0.18 0 0.7 0.18 0 0.72 0.18 0 0.74 0.18 0 0.76 0.18 0 0.78 0.18 0 0.8 0.18 0 0.82 0.18 0 0.84 0.18 0 0.86 0.18 0 0.88 0.18 0 0.9 0.18 0 0.92 0.18 0 0.94 0.18 0 0.96 0.18 0 0.98 0.18 0 1 0.18 0 0 0.2 0 0.02 0.2 0 0.04 0.2 0 0.06 0.2 0 0.08 0.2 0 0.1 0.2 0 0.12 0.2 0 0.14 0.2 0 0.16 0.2 0 0.18 0.2 0 0.2 0.2 0 0.22 0.2 0 0.24 0.2 0 0.26 0.2 0 0.28 0.2 0 0.3 0.2 0 0.32 0.2 0 0.34 0.2 0 0.36 0.2 0 0.38 0.2 0 0.4 0.2 0 0.42 0.2 0 0.44 0.2 0 0.46 0.2 0 0.48 0.2 0 0.5 0.2 0 0.52 0.2 0 0.54 0.2 0 0.56 0.2 0 0.58 0.2 0 0.6 0.2 0 0.62 0.2 0 0.64 0.2 0 0.66 0.2 0 0.68 0.2 0 0.7 0.2 0 0.72 0.2 0 0.74 0.2 0 0.76 0.2 0 0.78 0.2 0 0.8 0.2 0 0.82 0.2 0 0.84 0.2 0 0.86 0.2 0 0.88 0.2 0 0.9 0.2 0 0.92 0.2 0 0.94 0.2 0 0.96 0.2 0 0.98 0.2 0 1 0.2 0 0 0.22 0 0.02 0.22 0 0.04 0.22 0 0.06 0.22 0 0.08 0.22 0 0.1 0.22 0 0.12 0.22 0 0.14 0.22 0 0.16 0.22 0 0.18 0.22 0 0.2 0.22 0 0.22 0.22 0 0.24 0.22 0 0.26 0.22 0 0.28 0.22 0 0.3 0.22 0 0.32 0.22 0 0.34 0.22 0 0.36 0.22 0 0.38 0.22 0 0.4 0.22 0 0.42 0.22 0 0.44 0.22 0 0.46 0.22 0 0.48 0.22 0 0.5 0.22 0 0.52 0.22 0 0.54 0.22 0 0.56 0.22 0 0.58 0.22 0 0.6 0.22 0 0.62 0.22 0 0.64 0.22 0 0.66 0.22 0 0.68 0.22 0 0.7 0.22 0 0.72 0.22 0 0.74 0.22 0 0.76 0.22 0 0.78 0.22 0 0.8 0.22 0 0.82 0.22 0 0.84 0.22 0 0.86 0.22 0 0.88 0.22 0 0.9 0.22 0 0.92 0.22 0 0.94 0.22 0 0.96 0.22 0 0.98 0.22 0 1 0.22 0 0 0.24 0 0.02 0.24 0 0.04 0.24 0 0.06 0.24 0 0.08 0.24 0 0.1 0.24 0 0.12 0.24 0 0.14 0.24 0 0.16 0.24 0 0.18 0.24 0 0.2 0.24 0 0.22 0.24 0 0.24 0.24 0 0.26 0.24 0 0.28 0.24 0 0.3 0.24 0 0.32 0.24 0 0.34 0.24 0 0.36 0.24 0 0.38 0.24 0 0.4 0.24 0 0.42 0.24 0 0.44 0.24 0 0.46 0.24 0 0.48 0.24 0 0.5 0.24 0 0.52 0.24 0 0.54 0.24 0 0.56 0.24 0 0.58 0.24 0 0.6 0.24 0 0.62 0.24 0 0.64 0.24 0 0.66 0.24 0 0.68 0.24 0 0.7 0.24 0 0.72 0.24 0 0.74 0.24 0 0.76 0.24 0 0.78 0.24 0 0.8 0.24 0 0.82 0.24 0 0.84 0.24 0 0.86 0.24 0 0.88 0.24 0 0.9 0.24 0 0.92 0.24 0 0.94 0.24 0 0.96 0.24 0 0.98 0.24 0 1 0.24 0 0 0.26 0 0.02 0.26 0 0.04 0.26 0 0.06 0.26 0 0.08 0.26 0 0.1 0.26 0 0.12 0.26 0 0.14 0.26 0 0.16 0.26 0 0.18 0.26 0 0.2 0.26 0 0.22 0.26 0 0.24 0.26 0 0.26 0.26 0 0.28 0.26 0 0.3 0.26 0 0.32 0.26 0 0.34 0.26 0 0.36 0.26 0 0.38 0.26 0 0.4 0.26 0 0.42 0.26 0 0.44 0.26 0 0.46 0.26 0 0.48 0.26 0 0.5 0.26 0 0.52 0.26 0 0.54 0.26 0 0.56 0.26 0 0.58 0.26 0 0.6 0.26 0 0.62 0.26 0 0.64 0.26 0 0.66 0.26 0 0.68 0.26 0 0.7 0.26 0 0.72 0.26 0 0.74 0.26 0 0.76 0.26 0 0.78 0.26 0 0.8 0.26 0 0.82 0.26 0 0.84 0.26 0 0.86 0.26 0 0.88 0.26 0 0.9 0.26 0 0.92 0.26 0 0.94 0.26 0 0.96 0.26 0 0.98 0.26 0 1 0.26 0 0 0.28 0 0.02 0.28 0 0.04 0.28 0 0.06 0.28 0 0.08 0.28 0 0.1 0.28 0 0.12 0.28 0 0.14 0.28 0 0.16 0.28 0 0.18 0.28 0 0.2 0.28 0 0.22 0.28 0 0.24 0.28 0 0.26 0.28 0 0.28 0.28 0 0.3 0.28 0 0.32 0.28 0 0.34 0.28 0 0.36 0.28 0 0.38 0.28 0 0.4 0.28 0 0.42 0.28 0 0.44 0.28 0 0.46 0.28 0 0.48 0.28 0 0.5 0.28 0 0.52 0.28 0 0.54 0.28 0 0.56 0.28 0 0.58 0.28 0 0.6 0.28 0 0.62 0.28 0 0.64 0.28 0 0.66 0.28 0 0.68 0.28 0 0.7 0.28 0 0.72 0.28 0 0.74 0.28 0 0.76 0.28 0 0.78 0.28 0 0.8 0.28 0 0.82 0.28 0 0.84 0.28 0 0.86 0.28 0 0.88 0.28 0 0.9 0.28 0 0.92 0.28 0 0.94 0.28 0 0.96 0.28 0 0.98 0.28 0 1 0.28 0 0 0.3 0 0.02 0.3 0 0.04 0.3 0 0.06 0.3 0 0.08 0.3 0 0.1 0.3 0 0.12 0.3 0 0.14 0.3 0 0.16 0.3 0 0.18 0.3 0 0.2 0.3 0 0.22 0.3 0 0.24 0.3 0 0.26 0.3 0 0.28 0.3 0 0.3 0.3 0 0.32 0.3 0 0.34 0.3 0 0.36 0.3 0 0.38 0.3 0 0.4 0.3 0 0.42 0.3 0 0.44 0.3 0 0.46 0.3 0 0.48 0.3 0 0.5 0.3 0 0.52 0.3 0 0.54 0.3 0 0.56 0.3 0 0.58 0.3 0 0.6 0.3 0 0.62 0.3 0 0.64 0.3 0 0.66 0.3 0 0.68 0.3 0 0.7 0.3 0 0.72 0.3 0 0.74 0.3 0 0.76 0.3 0 0.78 0.3 0 0.8 0.3 0 0.82 0.3 0 0.84 0.3 0 0.86 0.3 0 0.88 0.3 0 0.9 0.3 0 0.92 0.3 0 0.94 0.3 0 0.96 0.3 0 0.98 0.3 0 1 0.3 0 0 0.32 0 0.02 0.32 0 0.04 0.32 0 0.06 0.32 0 0.08 0.32 0 0.1 0.32 0 0.12 0.32 0 0.14 0.32 0 0.16 0.32 0 0.18 0.32 0 0.2 0.32 0 0.22 0.32 0 0.24 0.32 0 0.26 0.32 0 0.28 0.32 0 0.3 0.32 0 0.32 0.32 0 0.34 0.32 0 0.36 0.32 0 0.38 0.32 0 0.4 0.32 0 0.42 0.32 0 0.44 0.32 0 0.46 0.32 0 0.48 0.32 0 0.5 0.32 0 0.52 0.32 0 0.54 0.32 0 0.56 0.32 0 0.58 0.32 0 0.6 0.32 0 0.62 0.32 0 0.64 0.32 0 0.66 0.32 0 0.68 0.32 0 0.7 0.32 0 0.72 0.32 0 0.74 0.32 0 0.76 0.32 0 0.78 0.32 0 0.8 0.32 0 0.82 0.32 0 0.84 0.32 0 0.86 0.32 0 0.88 0.32 0 0.9 0.32 0 0.92 0.32 0 0.94 0.
[...]
			<PointData Scalars="VitesseX">
				<DataArray Name="VitesseX" type="Float32" format="ascii">
 0 0 0 0 0 0 0 0 0 0 0 0 0 0 0 0 0 0 0 0 0 0 0 0 0 0 0 0 0 0 0 0 0 0 0 0 0 0 0 0 0 0 0 0 0 0 0 0 0 0 0 0 0.000490978 0.0019558 0.00437181 0.00770005 0.011888 0.0168693 0.0225654 0.0288866 0.0357332 0.0429974 0.050565 0.0583169 0.0661302 0.0738829 0.0814543 0.0887243 0.0955786 0.101909 0.107617 0.112611 0.116813 0.120157 0.122588 0.124085 0.124575 0.124097 0.122647 0.120224 0.116898 0.112711 0.107728 0.102028 0.0957002 0.0888453 0.0815711 0.0739925 0.0662292 0.0584045 0.0506408 0.0430601 0.0357831 0.0289246 0.0225929 0.0168878 0.0118995 0.00770653 0.00437493 0.00195716 0.000491168 5.32853e-27 0 0.000973675 0.00387716 0.00866544 0.0152587 0.023552 0.0334134 0.0446869 0.0571947 0.0707405 0.0851119 0.100084 0.115424 0.130886 0.146235 0.161233 0.175645 0.189243 0.201816 0.213166 0.223113 0.231501 0.238196 0.24309 0.246163 0.247175 0.246335 0.243555 0.238806 0.232277 0.224026 0.214182 0.202899 0.190357 0.176753 0.162303 0.147238 0.131796 0.116227 0.100774 0.0856809 0.0711916 0.0575363 0.0449317 0.0335773 0.0236525 0.0153134 0.00869037 0.00388634 0.000974904 1.05721e-26 0 0.00144055 0.00573435 0.0128148 0.0225606 0.0348152 0.0493828 0.0660323 0.0845015 0.104501 0.125718 0.147824 0.170474 0.19331 0.215984 0.238154 0.259469 0.279596 0.298223 0.315055 0.329829 0.342311 0.352299 0.359633 0.364318 0.365862 0.364753 0.360731 0.353769 0.34418 0.332028 0.317502 0.300831 0.282278 0.262138 0.240731 0.2184 0.195502 0.17241 0.149484 0.127088 0.105586 0.0853228 0.0666206 0.0497764 0.0350563 0.0226914 0.0128743 0.00575591 0.00144343 1.56477e-26 0 0.00188427 0.00749821 0.0167548 0.0294907 0.0455002 0.0645258 0.0862652 0.110376 0.136483 0.164178 0.193033 0.222605 0.25242 0.282036 0.311009 0.338879 0.365217 0.389612 0.411682 0.43108 0.447498 0.46067 0.470383 0.476681 0.47876 0.477488 0.472334 0.463317 0.450866 0.435043 0.416092 0.394313 0.370052 0.343692 0.315655 0.286392 0.256375 0.226097 0.196028 0.166648 0.138441 0.111858 0.0873261 0.0652351 0.0459343 0.029726 0.0168615 0.00753663 0.0018894 2.04756e-26 0 0.00229788 0.00914113 0.0204233 0.0359401 0.0554387 0.0786041 0.105067 0.134412 0.166182 0.199884 0.235 0.270991 0.307284 0.343347 0.378646 0.412623 0.444754 0.474542 0.501522 0.525268 0.545402 0.561598 0.57359 0.58147 0.584091 0.582757 0.576599 0.56572 0.550647 0.531438 0.508388 0.481864 0.452288 0.420125 0.385891 0.350142 0.313455 0.27644 0.23967 0.203737 0.169237 0.136724 0.106722 0.0797099 0.0561149 0.0363062 0.020589 0.0092004 0.00230578 2.49801e-26 0 0.00267489 0.0106374 0.0237628 0.0418072 0.0644743 0.091396 0.122143 0.15623 0.19313 0.232273 0.273059 0.314867 0.357031 0.398945 0.439992 0.479526 0.516941 0.55166 0.583141 0.610889 0.634462 0.653474 0.667611 0.677011 0.680193 0.678884 0.671874 0.659361 0.641952 0.6197 0.592948 0.562118 0.527696 0.490231 0.450329 0.408641 0.365839 0.322643 0.279723 0.23777 0.197489 0.159529 0.124502 0.0929727 0.065438 0.0423282 0.023998 0.010721 0.00268601 2.90904e-26 0 0.0030094 0.0119637 0.0267209 0.0469998 0.072465 0.1027 0.137222 0.175487 0.216902 0.260833 0.306611 0.353541 0.40088 0.447954 0.49408 0.538535 0.580641 0.619749 0.655254 0.686595 0.713272 0.734847 0.75096 0.761784 0.765549 0.764337 0.756651 0.742757 0.723337 0.698438 0.668439 0.633808 0.595095 0.55292 0.507969 0.460975 0.412703 0.363979 0.315554 0.268212 0.222752 0.179913 0.140389 0.104815 0.0737562 0.0476971 0.0270349 0.0120743 0.0030241 3.27422e-26 0 0.00329618 0.0130992 0.029251 0.0514365 0.0792852 0.112339 0.150067 0.191878 0.237124 0.285116 0.335127 0.386406 0.438142 0.489609 0.540069 0.588731 0.634861 0.677749 0.716733 0.751199 0.780595 0.804437 0.822321 0.834445 0.838816 0.837752 0.829588 0.814584 0.793509 0.766396 0.733654 0.695796 0.653419 0.607204 0.557904 0.506329 0.453324 0.399804 0.346602 0.294583 0.244628 0.197557 0.15413 0.115049 0.0809387 0.0523283 0.0296516 0.0132392 0.00331473 3.58785e-26 0 0.00353076 0.0140263 0.0313135 0.0550475 0.0848275 0.12016 0.160478 0.205149 0.253483 0.304746 0.358168 0.412953 0.46824 0.523262 0.577239 0.629329 0.678748 0.724743 0.766606 0.803677 0.835362 0.861137 0.880562 0.893835 0.898837 0.897961 0.889534 0.873707 0.851358 0.822499 0.787566 0.747101 0.701743 0.652221 0.599344 0.543985 0.487062 0.42956 0.372383 0.316469 0.262774 0.21218 0.165509 0.123516 0.0868733 0.0561492 0.031807 0.0141971 0.00355332 3.84501e-26 0 0.00370947 0.0147307 0.0328762 0.0577762 0.0890054 0.126043 0.168294 0.215093 0.265722 0.319415 0.37537 0.432764 0.490701 0.548384 0.605004 0.659683 0.711606 0.759986 0.80408 0.843196 0.876705 0.904049 0.924758 0.939012 0.944665 0.944005 0.935543 0.919191 0.895973 0.865869 0.829328 0.786914 0.739301 0.687258 0.631635 0.573351 0.513383 0.452779 0.392496 0.333532 0.276906 0.223554 0.174349 0.130083 0.0914657 0.0590991 0.033467 0.014933 0.00373612 4.04171e-26 0 0.00383033 0.0152073 0.0339342 0.0596239 0.0918336 0.130024 0.173578 0.221809 0.273979 0.329303 0.386961 0.446111 0.505836 0.565314 0.623722 0.680161 0.73379 0.783802 0.829426 0.869944 0.904699 0.933111 0.954684 0.969589 0.975628 0.97515 0.966887 0.950314 0.926648 0.89582 0.858283 0.814615 0.765509 0.711764 0.654262 0.593961 0.531873 0.469093 0.406623 0.345503 0.286802 0.231501 0.180508 0.134643 0.0946433 0.0611313 0.0346055 0.0154354 0.00386026 4.17488e-26 0 0.00388825 0.0154245 0.0343933 0.0603884 0.0929524 0.131534 0.175506 0.224177 0.276807 0.332615 0.390783 0.450474 0.510777 0.570865 0.629937 0.687091 0.741493 0.792334 0.838842 0.880293 0.91602 0.945427 0.967997 0.983784 0.991045 0.990969 0.983458 0.96714 0.94362 0.912732 0.874925 0.830776 0.78099 0.726381 0.667858 0.606406 0.543071 0.478978 0.415172 0.352716 0.292726 0.236216 0.184122 0.137283 0.0964536 0.0622673 0.0352281 0.0157033 0.00392469 4.24244e-26 0 0.00388814 0.0154231 0.0343871 0.0603705 0.0929132 0.131459 0.175375 0.223976 0.276524 0.332237 0.390312 0.449912 0.510136 0.570162 0.6292 0.686352 0.740786 0.791689 0.838286 0.879844 0.915688 0.945207 0.967876 0.983738 0.99104 0.990972 0.983486 0.967214 0.943755 0.912939 0.875205 0.831124 0.781391 0.726816 0.668305 0.606846 0.543485 0.479348 0.415488 0.352969 0.292915 0.236347 0.184206 0.137334 0.0964807 0.0622792 0.0352319 0.0157041 0.00392474 4.24336e-26 0 0.00382386 0.0151566 0.0337675 0.0592419 0.0911186 0.128845 0.171799 0.219314 0.270672 0.325119 0.38188 0.440144 0.499056 0.557811 0.615662 0.671742 0.725244 0.775383 0.821405 0.86259 0.898272 0.927844 0.950774 0.966974 0.975243 0.975616 0.96971 0.954486 0.932208 0.902537 0.865892 0.822828 0.774028 0.720297 0.662542 0.60176 0.539006 0.47541 0.412045 0.349978 0.290344 0.234176 0.18242 0.13592 0.0954189 0.0615435 0.034784 0.0154893 0.00386704 4.17761e-26 0 0.00370005 0.0146566 0.0326317 0.0572146 0.0879497 0.124294 0.165653 0.211382 0.260792 0.313172 0.367777 0.423845 0.480572 0.537183 0.592982 0.647144 0.698901 0.747502 0.79222 0.832361 0.867271 0.896352 0.919076 0.935243 0.944142 0.944689 0.939496 0.925045 0.903795 0.875349 0.840101 0.798577 0.751433 0.69944 0.643482 0.584527 0.52361 0.461837 0.400266 0.339937 0.281966 0.227365 0.177067 0.131892 0.0925599 0.0596775 0.0337164 0.0150081 0.00374552 4.04624e-26 0 0.00351775 0.0139241 0.0309756 0.0542714 0.0833679 0.117742 0.15683 0.200023 0.246678 0.29613 0.347686 0.400641 0.454261 0.507809 0.560658 0.612038 0.661232 0.707539 0.750269 0.788759 0.822382 0.85056 0.872774 0.888699 0.898182 0.898983 0.895024 0.881803 0.862146 0.835554 0.802385 0.763131 0.718411 0.66896 0.615623 0.559335 0.501099 0.441988 0.383042 0.325258 0.26972 0.217413 0.169242 0.126 0.0883747 0.0569428 0.0321492 0.0143001 0.00356623 3.85129e-26 0 0.00327978 0.0129705 0.0288253 0.0504579 0.0774426 0.109288 0.145468 0.185417 0.228551 0.274262 0.321922 0.370897 0.420534 0.470152 0.519201 0.566981 0.612842 0.656135 0.69622 0.732481 0.76433 0.791212 0.81262 0.828109 0.83809 0.839176 0.836587 0.824855 0.807147 0.782865 0.752325 0.715973 0.674384 0.628245 0.578355 0.525602 0.470938 0.415388 0.359963 0.305602 0.253343 0.204127 0.158816 0.118165 0.0828222 0.0533241 0.0300811 0.0133685 0.00333094 3.59581e-26 0 0.00298987 0.0118104 0.0262141 0.0458342 0.0702675 0.099063 0.131741 0.167791 0.206695 0.24791 0.290889 0.335079 0.379922 0.424806 0.469266 0.512689 0.554495 0.594101 0.630934 0.664432 0.694046 0.719254 0.739571 0.754566 0.764464 0.766696 0.764771 0.755222 0.73967 0.718114 0.690707 0.657845 0.620045 0.577941 0.532271 0.483862 0.433606 0.382461 0.331393 0.281278 0.233091 0.187713 0.145951 0.108511 0.0759902 0.0488786 0.0275449 0.0122279 0.00304337 3.28379e-26 0 0.00265255 0.0104619 0.0231829 0.040473 0.061958 0.0872315 0.115869 0.147424 0.181451 0.217487 0.255072 0.293749 0.333055 0.372489 0.411643 0.450017 0.487109 0.522419 0.555447 0.585688 0.612642 0.635828 0.654793 0.669119 0.678802 0.682309 0.681022 0.673917 0.660798 0.64234 0.618521 0.589678 0.556266 0.518852 0.478104 0.434779 0.389695 0.343729 0.297788 0.252673 0.209283 0.168428 0.130849 0.0971892 0.0679863 0.0436764 0.0245803 0.0108965 0.00270805 2.92011e-26 0 0.00227307 0.00894618 0.0197793 0.0344579 0.0526434 0.0739782 0.098099 0.124635 0.153216 0.183469 0.215036 0.247558 0.280678 0.314021 0.347235 0.379949 0.411746 0.442221 0.470948 0.49749 0.521407 0.542265 0.559638 0.573128 0.582519 0.587253 0.586751 0.5822 0.571786 0.556748 0.536913 0.512554 0.484056 0.45191 0.416707 0.379126 0.339896 0.299802 0.259677 0.220237 0.182296 0.146578 0.11375 0.0843787 0.0589366 0.0377995 0.0212344 0.00939505 0.00233026 2.51046e-26 0 0.00185739 0.00728683 0.0160565 0.027883 0.0424684 0.0595101 0.0787108 0.0997801 0.122431 0.146393 0.171409 0.197231 0.223615 0.250314 0.277054 0.303583 0.329591 0.354766 0.378767 0.401231 0.421782 0.440034 0.455602 0.468107 0.477208 0.482878 0.48362 0.481391 0.474069 0.46268 0.447163 0.427681 0.404545 0.378164 0.349047 0.31778 0.284992 0.251375 0.217658 0.184484 0.152556 0.122509 0.0949224 0.0702811 0.0489842 0.0313407 0.0175598 0.0077474 0.00191594 2.06124e-26 0 0.00141201 0.00550982 0.0120732 0.0208521 0.0315937 0.0440551 0.0580096 0.0732506 0.0895835 0.106841 0.124879 0.143562 0.162766 0.182361 0.202207 0.222122 0.241933 0.261429 0.280353 0.298421 0.315326 0.33074 0.344317 0.355706 0.364578 0.370635 0.373534 0.372891 0.369234 0.361615 0.350681 0.336393 0.318984 0.298778 0.276191 0.251708 0.225851 0.199211 0.1724 0.145981 0.120535 0.0966011 0.0746647 0.0551194 0.0382863 0.024402 0.0136146 0.00597952 0.00147163 1.5795e-26 0 0.000943935 0.003643 0.00789201 0.0134764 0.0201914 0.0278569 0.0363217 0.0454648 0.0551894 0.0654374 0.0761775 0.0873951 0.0990865 0.111245 0.123844 0.136835 0.150151 0.163679 0.177248 0.190672 0.203711 0.216098 0.227533 0.23769 0.246258 0.252858 0.257282 0.259239 0.258504 0.255222 0.248977 0.240121 0.228719 0.215002 0.199289 0.181951 0.163406 0.144134 0.12462 0.105335 0.0867377 0.0692651 0.0532967 0.0391336 0.0270119 0.0170929 0.00946111 0.00411928 0.00100433 1.07279e-26 0 0.000460517 0.00171579 0.00357924 0.00587329 0.00844397 0.0111761 0.0139965 0.0168718 0.019807 0.0228542 0.0260975 0.0296435 0.0336125 0.0381188 0.0432574 0.0491052 0.0557092 0.0630633 0.0711019 0.0797102 0.0887241 0.0979366 0.107095 0.115915 0.124095 0.131255 0.137148 0.141524 0.144205 0.144891 0.143666 0.140395 0.135168 0.128159 0.119555 0.109607 0.0986439 0.0870143 0.0750733 0.0631884 0.0517002 0.0409332 0.0311567 0.0225766 0.0153388 0.00952883 0.00516484 0.00219605 0.000521386 5.49063e-27 0 -3.04258e-05 -0.000240109 -0.000793416 -0.00183037 -0.00345247 -0.00570937 -0.00859543 -0.0120554 -0.0159814 -0.0202108 -0.0245437 -0.028752 -0.0325915 -0.0358254 -0.0382348 -0.0396184 -0.0398208 -0.03874 -0.0363367 -0.0326416 -0.0277513 -0.021819 -0.015046 -0.00767507 -6.53589e-06 0.00765992 0.0150252 0.0218102 0.0277708 0.0326637 0.0363433 0.0387338 0.0398072 0.0396162 0.0382401 0.0358244 0.0325916 0.0287525 0.0245435 0.0202087 0.0159773 0.0120535 0.00859548 0.00571011 0.00345172 0.00182938 0.000793595 0.000240155 3.04255e-05 1.65636e-28 0 -0.000521387 -0.002196 -0.00516476 -0.00952969 -0.015339 -0.022576 -0.0311565 -0.0409358 -0.0517037 -0.0631888 -0.0750732 -0.0870135 -0.0986429 -0.109603 -0.119551 -0.128165 -0.13518 -0.140406 -0.143676 -0.144891 -0.144194 -0.141526 -0.137158 -0.131262 -0.124105 -0.115933 -0.107103 -0.0979319 -0.0887061 -0.0796942 -0.0710928 -0.0630633 -0.0557142 -0.0491028 -0.0432539 -0.038121 -0.0336134 -0.0296452 -0.0260991 -0.022858 -0.0198113 -0.0168733 -0.0139964 -0.0111753 -0.00844533 -0.00587429 -0.00357897 -0.00171575 -0.000460517 -5.16326e-27 0 -0.00100433 -0.00411924 -0.00946111 -0.0170935 -0.0270117 -0.0391331 -0.053296 -0.0692683 -0.0867402 -0.105335 -0.124621 -0.144134 -0.163402 -0.181943 -0.199289 -0.215007 -0.228722 -0.240127 -0.248985 -0.255225 -0.258503 -0.259245 -0.257285 -0.252863 -0.246265 -0.237696 -0.22753 -0.216095 -0.20371 -0.190669 -0.177245 -0.163676 -0.150146 -0.136831 -0.123843 -0.111247 -0.0990898 -0.0873986 -0.0761807 -0.0654427 -0.0551934 -0.0454657 -0.0363216 -0.0278565 -0.0201934 -0.0134774 -0.00789167 -0.00364296 -0.000943935 -1.0412e-26 0 -0.00147163 -0.00597948 -0.0136147 -0.0244024 -0.0382861 -0.0551187 -0.0746637 -0.0966045 -0.120536 -0.145982 -0.172402 -0.199211 -0.225847 -0.251702 -0.276191 -0.298777 -0.318981 -0.33639 -0.350676 -0.36161 -0.369237 -0.372904 -0.373542 -0.370636 -0.364578 -0.355706 -0.344315 -0.330741 -0.315328 -0.298422 -0.280352 -0.261422 -0.241925 -0.222119 -0.202206 -0.182364 -0.16277 -0.143566 -0.124883 -0.106847 -0.0895869 -0.0732516 -0.0580096 -0.0440548 -0.0315962 -0.0208529 -0.0120728 -0.0055098 -0.00141201 -1.54977e-26 0 -0.00191594 -0.00774738 -0.0175599 -0.031341 -0.048984 -0.0702801 -0.0949215 -0.122512 -0.152558 -0.184487 -0.217661 -0.251375 -0.284992 -0.317778 -0.349048 -0.378162 -0.404541 -0.42768 -0.447164 -0.462681 -0.474069 -0.481397 -0.483625 -0.482874 -0.477205 -0.468108 -0.455599 -0.440033 -0.421782 -0.401232 -0.378763 -0.354758 -0.329586 -0.30358 -0.277053 -0.250319 -0.22362 -0.197236 -0.171415 -0.146399 -0.122434 -0.0997812 -0.0787103 -0.0595102 -0.0424716 -0.0278834 -0.016056 -0.00728681 -0.00185739 -2.03399e-26 0 -0.00233026 -0.00939503 -0.0212344 -0.0377997 -0.0589363 -0.0843775 -0.113749 -0.14658 -0.182297 -0.220239 -0.259678 -0.299804 -0.339899 -0.379128 -0.41671 -0.45191 -0.484056 -0.512558 -0.536919 -0.556752 -0.571784 -0.582197 -0.586748 -0.58725 -0.582517 -0.573127 -0.559635 -0.542262 -0.521407 -0.497487 -0.470941 -0.442217 -0.411743 -0.379943 -0.347234 -0.314025 -0.280682 -0.247562 -0.215041 -0.183473 -0.153217 -0.124636 -0.0980983 -0.0739793 -0.0526478 -0.0344581 -0.0197786 -0.00894618 -0.00227307 -2.48619e-26 0 -0.00270805 -0.0108964 -0.0245804 -0.0436765 -0.0679859 -0.0971883 -0.130849 -0.168429 -0.209284 -0.252673 -0.297788 -0.343729 -0.389698 -0.434784 -0.478109 -0.518856 -0.556271 -0.589684 -0.618526 -0.642341 -0.660794 -0.673911 -0.681017 -0.682305 -0.6788 -0.669117 -0.654791 -0.635828 -0.612642 -0.585685 -0.555444 -0.522418 -0.487105 -0.450013 -0.411644 -0.372494 -0.33306 -0.293754 -0.255076 -0.217489 -0.181453 -0.147426 -0.115869 -0.0872338 -0.061963 -0.040473 -0.0231823 -0.0104619 -0.00265254 -2.8992e-26 0 -0.00304337 -0.0122279 -0.0275449 -0.0488786 -0.0759899 -0.10851 -0.14595 -0.187714 -0.233093 -0.281277 -0.331391 -0.382456 -0.433604 -0.483866 -0.532276 -0.577943 -0.620046 -0.657845 -0.690705 -0.71811 -0.739665 -0.755216 -0.764766 -0.766692 -0.764461 -0.754563 -0.739572 -0.719258 -0.694051 -0.66444 -0.630945 -0.594107 -0.554497 -0.512694 -0.469273 -0.424813 -0.379927 -0.335083 -0.290891 -0.247912 -0.206697 -0.167794 -0.131742 -0.0990673 -0.0702722 -0.0458338 -0.0262136 -0.0118103 -0.00298987 -3.26646e-26 0 -0.00333094 -0.0133685 -0.0300811 -0.053324 -0.0828219 -0.118164 -0.158816 -0.20413 -0.253347 -0.3056 -0.359956 -0.415376 -0.470929 -0.525601 -0.578355 -0.628242 -0.674379 -0.715969 -0.75232 -0.78286 -0.80714 -0.824848 -0.836582 -0.839176 -0.838091 -0.828111 -0.812626 -0.791218 -0.764333 -0.732485 -0.696227 -0.65614 -0.612847 -0.566988 -0.519208 -0.470158 -0.420538 -0.370899 -0.321923 -0.274265 -0.228556 -0.185422 -0.145468 -0.109294 -0.0774468 -0.050457 -0.0288248 -0.0129703 -0.00327978 -3.58213e-26 0 -0.00356623 -0.0143001 -0.0321492 -0.0569426 -0.0883741 -0.125999 -0.169242 -0.217418 -0.269727 -0.325257 -0.383031 -0.441968 -0.501084 -0.559334 -0.615623 -0.668957 -0.718406 -0.763129 -0.802385 -0.835554 -0.862145 -0.881801 -0.895023 -0.898985 -0.898186 -0.888704 -0.872778 -0.850562 -0.822379 -0.788754 -0.750268 -0.707541 -0.661236 -0.612042 -0.560662 -0.507811 -0.454262 -0.400641 -0.347686 -0.296133 -0.246685 -0.200029 -0.156827 -0.117746 -0.0833703 -0.0542704 -0.0309753 -0.013924 -0.00351775 -3.84117e-26 0 -0.00374553 -0.0150081 -0.0337164 -0.0596772 -0.0925591 -0.13189 -0.177066 -0.22737 -0.281974 -0.339938 -0.400258 -0.461815 -0.52359 -0.584527 -0.643488 -0.699445 -0.751433 -0.798578 -0.840102 -0.875351 -0.903796 -0.925045 -0.939497 -0.944689 -0.944142 -0.935245 -0.919075 -0.896349 -0.867265 -0.832358 -0.792222 -0.747503 -0.698903 -0.647147 -0.592984 -0.537184 -0.480572 -0.423845 -0.367777 -0.313176 -0.260801 -0.211388 -0.165652 -0.124296 -0.0879498 -0.057214 -0.0326315 -0.0146565 -0.00370005 -4.03947e-26 0 -0.00386704 -0.0154893 -0.0347839 -0.0615431 -0.0954183 -0.135918 -0.18242 -0.234179 -0.290351 -0.349979 -0.412041 -0.475395 -0.538987 -0.601755 -0.662544 -0.720304 -0.774036 -0.822832 -0.865895 -0.902539 -0.932209 -0.954486 -0.96971 -0.975616 -0.975243 -0.966974 -0.950773 -0.927841 -0.898266 -0.862588 -0.821406 -0.775384 -0.725245 -0.671742 -0.615663 -0.557812 -0.499058 -0.440145 -0.381883 -0.325129 -0.27068 -0.219316 -0.171804 -0.128848 -0.0911174 -0.0592413 -0.033767 -0.0151565 -0.00382386 -4.17386e-26 0 -0.00392474 -0.0157041 -0.0352318 -0.0622789 -0.0964803 -0.137333 -0.184206 -0.236348 -0.292917 -0.352968 -0.415485 -0.479338 -0.543471 -0.606846 -0.668303 -0.726813 -0.781394 -0.831128 -0.875207 -0.912939 -0.943756 -0.967215 -0.983486 -0.990972 -0.99104 -0.983738 -0.967876 -0.945205 -0.915684 -0.879844 -0.838291 -0.791692 -0.740788 -0.686353 -0.6292 -0.570162 -0.510137 -0.449915 -0.39032 -0.332248 -0.276529 -0.223969 -0.175375 -0.131461 -0.0929117 -0.06037 -0.0343867 -0.0154231 -0.00388814 -4.24219e-26 0 -0.00392469 -0.0157033 -0.035228 -0.0622671 -0.0964534 -0.137283 -0.184122 -0.236217 -0.292727 -0.352714 -0.415168 -0.478966 -0.543054 -0.606405 -0.667863 -0.726383 -0.780987 -0.830773 -0.874924 -0.912733 -0.943621 -0.967141 -0.983458 -0.990969 -0.991045 -0.983783 -0.967996 -0.945424 -0.916015 -0.880293 -0.83885 -0.792342 -0.741498 -0.687093 -0.629938 -0.570867 -0.51078 -0.450481 -0.390792 -0.332621 -0.276809 -0.224169 -0.175502 -0.131533 -0.0929514 -0.060388 -0.0343931 -0.0154245 -0.00388825 -4.24336e-26 0 -0.00386026 -0.0154354 -0.0346056 -0.0611313 -0.0946432 -0.134643 -0.180508 -0.231502 -0.286803 -0.345502 -0.406621 -0.469086 -0.531862 -0.593951 -0.654258 -0.711764 -0.765509 -0.81461 -0.858274 -0.895812 -0.926643 -0.950312 -0.966886 -0.97515 -0.975627 -0.969586 -0.95468 -0.933106 -0.904693 -0.869942 -0.829433 -0.783809 -0.733793 -0.680162 -0.623722 -0.565315 -0.505839 -0.446118 -0.386967 -0.329306 -0.273978 -0.221809 -0.173579 -0.130023 -0.0918328 -0.0596234 -0.0339339 -0.0152072 -0.00383033 -4.17735e-26 0 -0.00373612 -0.014933 -0.0334671 -0.0590991 -0.0914657 -0.130082 -0.174348 -0.223554 -0.276906 -0.333532 -0.392496 -0.452779 -0.513384 -0.573348 -0.631627 -0.687248 -0.739293 -0.786903 -0.829312 -0.865855 -0.895962 -0.919183 -0.93554 -0.944004 -0.944664 -0.93901 -0.924754 -0.904044 -0.8767 -0.843197 -0.804092 -0.759996 -0.71161 -0.659686 -0.605006 -0.548387 -0.490705 -0.432767 -0.375372 -0.319415 -0.265719 -0.215094 -0.168297 -0.126043 -0.0890047 -0.0577755 -0.0328758 -0.0147305 -0.00370947 -4.0452e-26 0 -0.00355332 -0.0141971 -0.031807 -0.0561492 -0.0868733 -0.123516 -0.165509 -0.21218 -0.262774 -0.31647 -0.372385 -0.429562 -0.487062 -0.543984 -0.599342 -0.652219 -0.701736 -0.747089 -0.787553 -0.822488 -0.851347 -0.873698 -0.88953 -0.897958 -0.898835 -0.8938