<?xml version="1.0"?>
<VTKFile type="PolyData">
	<PolyData>
		<Piece NumberOfPoints="2601" NumberOfPolys="2500">
			<Points>
				<DataArray type="Float32" NumberOfComponents="3" format="ascii">
 0 0 0 0.02 0 0 0.04 0 0 0.06 0 0 0.08 0 0 0.1 0 0 0.12 0 0 0.14 0 0 0.16 0 0 0.18 0 0 0.2 0 0 0.22 0 0 0.24 0 0 0.26 0 0 0.28 0 0 0.3 0 0 0.32 0 0 0.34 0 0 0.36 0 0 0.38 0 0 0.4 0 0 0.42 0 0 0.44 0 0 0.46 0 0 0.48 0 0 0.5 0 0 0.52 0 0 0.54 0 0 0.56 0 0 0.58 0 0 0.6 0 0 0.62 0 0 0.64 0 0 0.66 0 0 0.68 0 0 0.7 0 0 0.72 0 0 0.74 0 0 0.76 0 0 0.78 0 0 0.8 0 0 0.82 0 0 0.84 0 0 0.86 0 0 0.88 0 0 0.9 0 0 0.92 0 0 0.94 0 0 0.96 0 0 0.98 0 0 1 0 0 0 0.02 0 0.02 0.02 0 0.04 0.02 0 0.06 0.02 0 0.08 0.02 0 0.1 0.02 0 0.12 0.02 0 0.14 0.02 0 0.16 0.02 0 0.18 0.02 0 0.2 0.02 0 0.22 0.02 0 0.24 0.02 0 0.26 0.02 0 0.28 0.02 0 0.3 0.02 0 0.32 0.02 0 0.34 0.02 0 0.36 0.02 0 0.38 0.02 0 0.4 0.02 0 0.42 0.02 0 0.44 0.02 0 0.46 0.02 0 0.48 0.02 0 0.5 0.02 0 0.52 0.02 0 0.54 0.02 0 0.56 0.02 0 0.58 0.02 0 0.6 0.02 0 0.62 0.02 0 0.64 0.02 0 0.66 0.02 0 0.68 0.02 0 0.7 0.02 0 0.72 0.02 0 0.74 0.02 0 0.76 0.02 0 0.78 0.02 0 0.8 0.02 0 0.82 0.02 0 0.84 0.02 0 0.86 0.02 0 0.88 0.02 0 0.9 0.02 0 0.92 0.02 0 0.94 0.02 0 0.96 0.02 0 0.98 0.02 0 1 0.02 0 0 0.04 0 0.02 0.04 0 0.04 0.04 0 0.06 0.04 0 0.08 0.04 0 0.1 0.04 0 0.12 0.04 0 0.14 0.04 0 0.16 0.04 0 0.18 0.04 0 0.2 0.04 0 0.22 0.04 0 0.24 0.04 0 0.26 0.04 0 0.28 0.04 0 0.3 0.04 0 0.32 0.04 0 0.34 0.04 0 0.36 0.04 0 0.38 0.04 0 0.4 0.04 0 0.42 0.04 0 0.44 0.04 0 0.46 0.04 0 0.48 0.04 0 0.5 0.04 0 0.52 0.04 0 0.54 0.04 0 0.56 0.04 0 0.58 0.04 0 0.6 0.04 0 0.62 0.04 0 0.64 0.04 0 0.66 0.04 0 0.68 0.04 0 0.7 0.04 0 0.72 0.04 0 0.74 0.04 0 0.76 0.04 0 0.78 0.04 0 0.8 0.04 0 0.82 0.04 0 0.84 0.04 0 0.86 0.04 0 0.88 0.04 0 0.9 0.04 0 0.92 0.04 0 0.94 0.04 0 0.96 0.04 0 0.98 0.04 0 1 0.04 0 0 0.06 0 0.02 0.06 0 0.04 0.06 0 0.06 0.06 0 0.08 0.06 0 0.1 0.06 0 0.12 0.06 0 0.14 0.06 0 0.16 0.06 0 0.18 0.06 0 0.2 0.06 0 0.22 0.06 0 0.24 0.06 0 0.26 0.06 0 0.28 0.06 0 0.3 0.06 0 0.32 0.06 0 0.34 0.06 0 0.36 0.06 0 0.38 0.06 0 0.4 0.06 0 0.42 0.06 0 0.44 0.06 0 0.46 0.06 0 0.48 0.06 0 0.5 0.06 0 0.52 0.06 0 0.54 0.06 0 0.56 0.06 0 0.58 0.06 0 0.6 0.06 0 0.62 0.06 0 0.64 0.06 0 0.66 0.06 0 0.68 0.06 0 0.7 0.06 0 0.72 0.06 0 0.74 0.06 0 0.76 0.06 0 0.78 0.06 0 0.8 0.06 0 0.82 0.06 0 0.84 0.06 0 0.86 0.06 0 0.88 0.06 0 0.9 0.06 0 0.92 0.06 0 0.94 0.06 0 0.96 0.06 0 0.98 0.06 0 1 0.06 0 0 0.08 0 0.02 0.08 0 0.04 0.08 0 0.06 0.08 0 0.08 0.08 0 0.1 0.08 0 0.12 0.08 0 0.14 0.08 0 0.16 0.08 0 0.18 0.08 0 0.2 0.08 0 0.22 0.08 0 0.24 0.08 0 0.26 0.08 0 0.28 0.08 0 0.3 0.08 0 0.32 0.08 0 0.34 0.08 0 0.36 0.08 0 0.38 0.08 0 0.4 0.08 0 0.42 0.08 0 0.44 0.08 0 0.46 0.08 0 0.48 0.08 0 0.5 0.08 0 0.52 0.08 0 0.54 0.08 0 0.56 0.08 0 0.58 0.08 0 0.6 0.08 0 0.62 0.08 0 0.64 0.08 0 0.66 0.08 0 0.68 0.08 0 0.7 0.08 0 0.72 0.08 0 0.74 0.08 0 0.76 0.08 0 0.78 0.08 0 0.8 0.08 0 0.82 0.08 0 0.84 0.08 0 0.86 0.08 0 0.88 0.08 0 0.9 0.08 0 0.92 0.08 0 0.94 0.08 0 0.96 0.08 0 0.98 0.08 0 1 0.08 0 0 0.1 0 0.02 0.1 0 0.04 0.1 0 0.06 0.1 0 0.08 0.1 0 0.1 0.1 0 0.12 0.1 0 0.14 0.1 0 0.16 0.1 0 0.18 0.1 0 0.2 0.1 0 0.22 0.1 0 0.24 0.1 0 0.26 0.1 0 0.28 0.1 0 0.3 0.1 0 0.32 0.1 0 0.34 0.1 0 0.36 0.1 0 0.38 0.1 0 0.4 0.1 0 0.42 0.1 0 0.44 0.1 0 0.46 0.1 0 0.48 0.1 0 0.5 0.1 0 0.52 0.1 0 0.54 0.1 0 0.56 0.1 0 0.58 0.1 0 0.6 0.1 0 0.62 0.1 0 0.64 0.1 0 0.66 0.1 0 0.68 0.1 0 0.7 0.1 0 0.72 0.1 0 0.74 0.1 0 0.76 0.1 0 0.78 0.1 0 0.8 0.1 0 0.82 0.1 0 0.84 0.1 0 0.86 0.1 0 0.88 0.1 0 0.9 0.1 0 0.92 0.1 0 0.94 0.1 0 0.96 0.1 0 0.98 0.1 0 1 0.1 0 0 0.12 0 0.02 0.12 0 0.04 0.12 0 0.06 0.12 0 0.08 0.12 0 0.1 0.12 0 0.12 0.12 0 0.14 0.12 0 0.16 0.12 0 0.18 0.12 0 0.2 0.12 0 0.22 0.12 0 0.24 0.12 0 0.26 0.12 0 0.28 0.12 0 0.3 0.12 0 0.32 0.12 0 0.34 0.12 0 0.36 0.12 0 0.38 0.12 0 0.4 0.12 0 0.42 0.12 0 0.44 0.12 0 0.46 0.12 0 0.48 0.12 0 0.5 0.12 0 0.52 0.12 0 0.54 0.12 0 0.56 0.12 0 0.58 0.12 0 0.6 0.12 0 0.62 0.12 0 0.64 0.12 0 0.66 0.12 0 0.68 0.12 0 0.7 0.12 0 0.72 0.12 0 0.74 0.12 0 0.76 0.12 0 0.78 0.12 0 0.8 0.12 0 0.82 0.12 0 0.84 0.12 0 0.86 0.12 0 0.88 0.12 0 0.9 0.12 0 0.92 0.12 0 0.94 0.12 0 0.96 0.12 0 0.98 0.12 0 1 0.12 0 0 0.14 0 0.02 0.14 0 0.04 0.14 0 0.06 0.14 0 0.08 0.14 0 0.1 0.14 0 0.12 0.14 0 0.14 0.14 0 0.16 0.14 0 0.18 0.14 0 0.2 0.14 0 0.22 0.14 0 0.24 0.14 0 0.26 0.14 0 0.28 0.14 0 0.3 0.14 0 0.32 0.14 0 0.34 0.14 0 0.36 0.14 0 0.38 0.14 0 0.4 0.14 0 0.42 0.14 0 0.44 0.14 0 0.46 0.14 0 0.48 0.14 0 0.5 0.14 0 0.52 0.14 0 0.54 0.14 0 0.56 0.14 0 0.58 0.14 0 0.6 0.14 0 0.62 0.14 0 0.64 0.14 0 0.66 0.14 0 0.68 0.14 0 0.7 0.14 0 0.72 0.14 0 0.74 0.14 0 0.76 0.14 0 0.78 0.14 0 0.8 0.14 0 0.82 0.14 0 0.84 0.14 0 0.86 0.14 0 0.88 0.14 0 0.9 0.14 0 0.92 0.14 0 0.94 0.14 0 0.96 0.14 0 0.98 0.14 0 1 0.14 0 0 0.16 0 0.02 0.16 0 0.04 0.16 0 0.06 0.16 0 0.08 0.16 0 0.1 0.16 0 0.12 0.16 0 0.14 0.16 0 0.16 0.16 0 0.18 0.16 0 0.2 0.16 0 0.22 0.16 0 0.24 0.16 0 0.26 0.16 0 0.28 0.16 0 0.3 0.16 0 0.32 0.16 0 0.34 0.16 0 0.36 0.16 0 0.38 0.16 0 0.4 0.16 0 0.42 0.16 0 0.44 0.16 0 0.46 0.16 0 0.48 0.16 0 0.5 0.16 0 0.52 0.16 0 0.54 0.16 0 0.56 0.16 0 0.58 0.16 0 0.6 0.16 0 0.62 0.16 0 0.64 0.16 0 0.66 0.16 0 0.68 0.16 0 0.7 0.16 0 0.72 0.16 0 0.74 0.16 0 0.76 0.16 0 0.78 0.16 0 0.8 0.16 0 0.82 0.16 0 0.84 0.16 0 0.86 0.16 0 0.88 0.16 0 0.9 0.16 0 0.92 0.16 0 0.94 0.16 0 0.96 0.16 0 0.98 0.16 0 1 0.16 0 0 0.18 0 0.02 0.18 0 0.04 0.18 0 0.06 0.18 0 0.08 0.18 0 0.1 0.18 0 0.12 0.18 0 0.14 0.18 0 0.16 0.18 0 0.18 0.18 0 0.2 0.18 0 0.22 0.18 0 0.24 0.18 0 0.26 0.18 0 0.28 0.18 0 0.3 0.18 0 0.32 0.18 0 0.34 0.18 0 0.36 0.18 0 0.38 0.18 0 0.4 0.18 0 0.42 0.18 0 0.44 0.18 0 0.46 0.18 0 0.48 0.18 0 0.5 0.18 0 0.52 0.18 0 0.54 0.18 0 0.56 0.18 0 0.58 0.18 0 0.6 0.18 0 0.62 0.18 0 0.64 0.18 0 0.66 0.18 0 0.68 0.18 0 0.7 0.18 0 0.72 0.18 0 0.74 0.18 0 0.76 0.18 0 0.78 0.18 0 0.8 0.18 0 0.82 0.18 0 0.84 0.18 0 0.86 0.18 0 0.88 0.18 0 0.9 0.18 0 0.92 0.18 0 0.94 0.18 0 0.96 0.18 0 0.98 0.18 0 1 0.18 0 0 0.2 0 0.02 0.2 0 0.04 0.2 0 0.06 0.2 0 0.08 0.2 0 0.1 0.2 0 0.12 0.2 0 0.14 0.2 0 0.16 0.2 0 0.18 0.2 0 0.2 0.2 0 0.22 0.2 0 0.24 0.2 0 0.26 0.2 0 0.28 0.2 0 0.3 0.2 0 0.32 0.2 0 0.34 0.2 0 0.36 0.2 0 0.38 0.2 0 0.4 0.2 0 0.42 0.2 0 0.44 0.2 0 0.46 0.2 0 0.48 0.2 0 0.5 0.2 0 0.52 0.2 0 0.54 0.2 0 0.56 0.2 0 0.58 0.2 0 0.6 0.2 0 0.62 0.2 0 0.64 0.2 0 0.66 0.2 0 0.68 0.2 0 0.7 0.2 0 0.72 0.2 0 0.74 0.2 0 0.76 0.2 0 0.78 0.2 0 0.8 0.2 0 0.82 0.2 0 0.84 0.2 0 0.86 0.2 0 0.88 0.2 0 0.9 0.2 0 0.92 0.2 0 0.94 0.2 0 0.96 0.2 0 0.98 0.2 0 1 0.2 0 0 0.22 0 0.02 0.22 0 0.04 0.22 0 0.06 0.22 0 0.08 0.22 0 0.1 0.22 0 0.12 0.22 0 0.14 0.22 0 0.16 0.22 0 0.18 0.22 0 0.2 0.22 0 0.22 0.22 0 0.24 0.22 0 0.26 0.22 0 0.28 0.22 0 0.3 0.22 0 0.32 0.22 0 0.34 0.22 0 0.36 0.22 0 0.38 0.22 0 0.4 0.22 0 0.42 0.22 0 0.44 0.22 0 0.46 0.22 0 0.48 0.22 0 0.5 0.22 0 0.52 0.22 0 0.54 0.22 0 0.56 0.22 0 0.58 0.22 0 0.6 0.22 0 0.62 0.22 0 0.64 0.22 0 0.66 0.22 0 0.68 0.22 0 0.7 0.22 0 0.72 0.22 0 0.74 0.22 0 0.76 0.22 0 0.78 0.22 0 0.8 0.22 0 0.82 0.22 0 0.84 0.22 0 0.86 0.22 0 0.88 0.22 0 0.9 0.22 0 0.92 0.22 0 0.94 0.22 0 0.96 0.22 0 0.98 0.22 0 1 0.22 0 0 0.24 0 0.02 0.24 0 0.04 0.24 0 0.06 0.24 0 0.08 0.24 0 0.1 0.24 0 0.12 0.24 0 0.14 0.24 0 0.16 0.24 0 0.18 0.24 0 0.2 0.24 0 0.22 0.24 0 0.24 0.24 0 0.26 0.24 0 0.28 0.24 0 0.3 0.24 0 0.32 0.24 0 0.34 0.24 0 0.36 0.24 0 0.38 0.24 0 0.4 0.24 0 0.42 0.24 0 0.44 0.24 0 0.46 0.24 0 0.48 0.24 0 0.5 0.24 0 0.52 0.24 0 0.54 0.24 0 0.56 0.24 0 0.58 0.24 0 0.6 0.24 0 0.62 0.24 0 0.64 0.24 0 0.66 0.24 0 0.68 0.24 0 0.7 0.24 0 0.72 0.24 0 0.74 0.24 0 0.76 0.24 0 0.78 0.24 0 0.8 0.24 0 0.82 0.24 0 0.84 0.24 0 0.86 0.24 0 0.88 0.24 0 0.9 0.24 0 0.92 0.24 0 0.94 0.24 0 0.96 0.24 0 0.98 0.24 0 1 0.24 0 0 0.26 0 0.02 0.26 0 0.04 0.26 0 0.06 0.26 0 0.08 0.26 0 0.1 0.26 0 0.12 0.26 0 0.14 0.26 0 0.16 0.26 0 0.18 0.26 0 0.2 0.26 0 0.22 0.26 0 0.24 0.26 0 0.26 0.26 0 0.28 0.26 0 0.3 0.26 0 0.32 0.26 0 0.34 0.26 0 0.36 0.26 0 0.38 0.26 0 0.4 0.26 0 0.42 0.26 0 0.44 0.26 0 0.46 0.26 0 0.48 0.26 0 0.5 0.26 0 0.52 0.26 0 0.54 0.26 0 0.56 0.26 0 0.58 0.26 0 0.6 0.26 0 0.62 0.26 0 0.64 0.26 0 0.66 0.26 0 0.68 0.26 0 0.7 0.26 0 0.72 0.26 0 0.74 0.26 0 0.76 0.26 0 0.78 0.26 0 0.8 0.26 0 0.82 0.26 0 0.84 0.26 0 0.86 0.26 0 0.88 0.26 0 0.9 0.26 0 0.92 0.26 0 0.94 0.26 0 0.96 0.26 0 0.98 0.26 0 1 0.26 0 0 0.28 0 0.02 0.28 0 0.04 0.28 0 0.06 0.28 0 0.08 0.28 0 0.1 0.28 0 0.12 0.28 0 0.14 0.28 0 0.16 0.28 0 0.18 0.28 0 0.2 0.28 0 0.22 0.28 0 0.24 0.28 0 0.26 0.28 0 0.28 0.28 0 0.3 0.28 0 0.32 0.28 0 0.34 0.28 0 0.36 0.28 0 0.38 0.28 0 0.4 0.28 0 0.42 0.28 0 0.44 0.28 0 0.46 0.28 0 0.48 0.28 0 0.5 0.28 0 0.52 0.28 0 0.54 0.28 0 0.56 0.28 0 0.58 0.28 0 0.6 0.28 0 0.62 0.28 0 0.64 0.28 0 0.66 0.28 0 0.68 0.28 0 0.7 0.28 0 0.72 0.28 0 0.74 0.28 0 0.76 0.28 0 0.78 0.28 0 0.8 0.28 0 0.82 0.28 0 0.84 0.28 0 0.86 0.28 0 0.88 0.28 0 0.9 0.28 0 0.92 0.28 0 0.94 0.28 0 0.96 0.28 0 0.98 0.28 0 1 0.28 0 0 0.3 0 0.02 0.3 0 0.04 0.3 0 0.06 0.3 0 0.08 0.3 0 0.1 0.3 0 0.12 0.3 0 0.14 0.3 0 0.16 0.3 0 0.18 0.3 0 0.2 0.3 0 0.22 0.3 0 0.24 0.3 0 0.26 0.3 0 0.28 0.3 0 0.3 0.3 0 0.32 0.3 0 0.34 0.3 0 0.36 0.3 0 0.38 0.3 0 0.4 0.3 0 0.42 0.3 0 0.44 0.3 0 0.46 0.3 0 0.48 0.3 0 0.5 0.3 0 0.52 0.3 0 0.54 0.3 0 0.56 0.3 0 0.58 0.3 0 0.6 0.3 0 0.62 0.3 0 0.64 0.3 0 0.66 0.3 0 0.68 0.3 0 0.7 0.3 0 0.72 0.3 0 0.74 0.3 0 0.76 0.3 0 0.78 0.3 0 0.8 0.3 0 0.82 0.3 0 0.84 0.3 0 0.86 0.3 0 0.88 0.3 0 0.9 0.3 0 0.92 0.3 0 0.94 0.3 0 0.96 0.3 0 0.98 0.3 0 1 0.3 0 0 0.32 0 0.02 0.32 0 0.04 0.32 0 0.06 0.32 0 0.08 0.32 0 0.1 0.32 0 0.12 0.32 0 0.14 0.32 0 0.16 0.32 0 0.18 0.32 0 0.2 0.32 0 0.22 0.32 0 0.24 0.32 0 0.26 0.32 0 0.28 0.32 0 0.3 0.32 0 0.32 0.32 0 0.34 0.32 0 0.36 0.32 0 0.38 0.32 0 0.4 0.32 0 0.42 0.32 0 0.44 0.32 0 0.46 0.32 0 0.48 0.32 0 0.5 0.32 0 0.52 0.32 0 0.54 0.32 0 0.56 0.32 0 0.58 0.32 0 0.6 0.32 0 0.62 0.32 0 0.64 0.32 0 0.66 0.32 0 0.68 0.32 0 0.7 0.32 0 0.72 0.32 0 0.74 0.32 0 0.76 0.32 0 0.78 0.32 0 0.8 0.32 0 0.82 0.32 0 0.84 0.32 0 0.86 0.32 0 0.88 0.32 0 0.9 0.32 0 0.92 0.32 0 0.94 0.
[...]
			<PointData Scalars="VitesseX">
				<DataArray Name="VitesseX" type="Float32" format="ascii">
 0 0 0 0 0 0 0 0 0 0 0 0 0 0 0 0 0 0 0 0 0 0 0 0 0 0 0 0 0 0 0 0 0 0 0 0 0 0 0 0 0 0 0 0 0 0 0 0 0 0 -0 0 -0.000365489 -0.00145632 -0.00325534 -0.00573426 -0.00885407 -0.0125656 -0.0168103 -0.0215213 -0.0266241 -0.0320384 -0.0376786 -0.0434552 -0.0492773 -0.0550537 -0.0606927 -0.0661054 -0.0712062 -0.0759148 -0.0801568 -0.0838653 -0.0869818 -0.0894572 -0.0912597 -0.0923409 -0.0926996 -0.0923347 -0.0912269 -0.0894202 -0.0869349 -0.0838102 -0.0800955 -0.0758494 -0.071139 -0.0660385 -0.0606281 -0.0549931 -0.0492226 -0.0434068 -0.0376367 -0.0320037 -0.0265965 -0.0215003 -0.0167951 -0.0125553 -0.00884766 -0.00573068 -0.00325361 -0.00145557 -0.000365384 -3.96622e-27 0 -0.000725388 -0.00289127 -0.0064646 -0.0113902 -0.0175913 -0.0249706 -0.0334121 -0.0427824 -0.0529334 -0.0637043 -0.0749241 -0.0864129 -0.0979891 -0.109472 -0.120676 -0.131425 -0.141547 -0.150883 -0.159285 -0.166619 -0.172771 -0.177645 -0.181189 -0.183279 -0.183933 -0.183186 -0.18093 -0.177307 -0.172342 -0.166115 -0.158723 -0.150284 -0.140932 -0.130812 -0.120085 -0.108917 -0.0974863 -0.0859688 -0.0745429 -0.0633898 -0.052684 -0.0425936 -0.0332767 -0.0248799 -0.0175357 -0.01136 -0.00645079 -0.00288619 -0.000724707 -7.87035e-27 0 -0.00107394 -0.00428156 -0.00957499 -0.0168736 -0.0260643 -0.0370036 -0.0495196 -0.0634147 -0.0784686 -0.0944421 -0.111081 -0.128116 -0.145277 -0.162296 -0.178898 -0.194819 -0.209804 -0.223616 -0.236036 -0.246867 -0.25594 -0.263112 -0.268325 -0.271361 -0.272259 -0.271126 -0.267712 -0.262299 -0.254906 -0.245651 -0.234682 -0.222173 -0.208321 -0.193342 -0.177473 -0.16096 -0.144065 -0.127045 -0.110163 -0.0936848 -0.0778683 -0.0629603 -0.0491941 -0.0367858 -0.0259308 -0.0168011 -0.00954205 -0.00426962 -0.00107235 -1.16509e-26 0 -0.00140567 -0.0056054 -0.0125379 -0.0220988 -0.0341413 -0.048478 -0.0648836 -0.0830992 -0.102836 -0.123778 -0.145592 -0.167922 -0.190412 -0.212714 -0.234462 -0.255309 -0.274922 -0.292988 -0.30922 -0.323361 -0.33519 -0.344523 -0.351297 -0.355203 -0.356283 -0.354767 -0.350203 -0.343056 -0.333325 -0.321167 -0.306777 -0.290384 -0.272245 -0.252646 -0.23189 -0.210303 -0.188225 -0.16599 -0.143935 -0.122411 -0.101752 -0.0822794 -0.0642964 -0.0480852 -0.0339009 -0.0219684 -0.0124787 -0.00558411 -0.00140283 -1.5248e-26 0 -0.00171534 -0.00684189 -0.0153065 -0.0269836 -0.041695 -0.0592126 -0.0792618 -0.101526 -0.12565 -0.151249 -0.177913 -0.205203 -0.232684 -0.25993 -0.286491 -0.311942 -0.335873 -0.357902 -0.37768 -0.394892 -0.409269 -0.420589 -0.428791 -0.433477 -0.434679 -0.432783 -0.427103 -0.418305 -0.406364 -0.391473 -0.373873 -0.353844 -0.3317 -0.307788 -0.282479 -0.256168 -0.22927 -0.202188 -0.175328 -0.149117 -0.12396 -0.100246 -0.0783458 -0.0586002 -0.0413203 -0.0267806 -0.0152146 -0.00680904 -0.00171097 -1.86047e-26 0 -0.00199808 -0.00797154 -0.0178372 -0.0314509 -0.0486063 -0.0690385 -0.0924276 -0.118404 -0.146553 -0.176423 -0.207534 -0.239372 -0.271426 -0.303199 -0.334165 -0.363822 -0.391694 -0.417334 -0.440336 -0.460332 -0.47701 -0.490113 -0.499584 -0.504946 -0.506212 -0.503938 -0.497195 -0.486853 -0.472863 -0.455452 -0.434904 -0.411543 -0.38574 -0.357895 -0.32844 -0.297831 -0.266552 -0.235068 -0.203846 -0.17338 -0.144141 -0.116579 -0.091121 -0.0681651 -0.0480722 -0.0311619 -0.0177067 -0.0079252 -0.00199193 -2.16679e-26 0 -0.00224944 -0.00897653 -0.0200901 -0.0354301 -0.0547661 -0.0778006 -0.104174 -0.133468 -0.165214 -0.198903 -0.233989 -0.269889 -0.306027 -0.34184 -0.376731 -0.410134 -0.44151 -0.470352 -0.496202 -0.51865 -0.537345 -0.551997 -0.562558 -0.568475 -0.569754 -0.5671 -0.559368 -0.547617 -0.531772 -0.512095 -0.488905 -0.462573 -0.433511 -0.402174 -0.369045 -0.334634 -0.299484 -0.264112 -0.229038 -0.194818 -0.161977 -0.131018 -0.102421 -0.0766295 -0.0540505 -0.0350434 -0.0199158 -0.00891512 -0.0022413 -2.43889e-26 0 -0.00246545 -0.00984101 -0.0220297 -0.0388587 -0.0600774 -0.085361 -0.114315 -0.14648 -0.18134 -0.218334 -0.25686 -0.296275 -0.335943 -0.375247 -0.413524 -0.450152 -0.484536 -0.51612 -0.544399 -0.568926 -0.589317 -0.605259 -0.616715 -0.623053 -0.624304 -0.621269 -0.612643 -0.599638 -0.582164 -0.560511 -0.535031 -0.506129 -0.474264 -0.43993 -0.403657 -0.365999 -0.327546 -0.288862 -0.250509 -0.213095 -0.177188 -0.143338 -0.112067 -0.08386 -0.059161 -0.0383641 -0.0218073 -0.00976331 -0.00245517 -2.67246e-26 0 -0.00264271 -0.0105513 -0.0236253 -0.0416826 -0.0644568 -0.0916007 -0.122691 -0.157235 -0.194677 -0.234411 -0.275789 -0.318116 -0.360707 -0.402895 -0.443966 -0.483247 -0.520094 -0.553913 -0.584159 -0.610358 -0.632101 -0.649056 -0.661199 -0.667814 -0.669002 -0.665585 -0.656177 -0.642096 -0.623244 -0.599937 -0.572553 -0.54153 -0.50736 -0.470574 -0.431734 -0.391433 -0.350301 -0.308932 -0.267924 -0.227923 -0.189535 -0.153345 -0.119908 -0.0897431 -0.0633235 -0.0410717 -0.0233514 -0.0104565 -0.0026302 -2.86379e-26 0 -0.00277843 -0.0110963 -0.0248519 -0.0438572 -0.067835 -0.0964217 -0.129172 -0.165565 -0.205015 -0.246881 -0.290478 -0.33507 -0.37993 -0.424352 -0.467576 -0.50889 -0.547616 -0.583126 -0.614853 -0.642296 -0.665026 -0.682699 -0.695311 -0.702046 -0.703144 -0.699346 -0.689282 -0.67432 -0.654364 -0.629751 -0.600884 -0.568223 -0.532285 -0.493627 -0.452842 -0.410542 -0.367391 -0.324006 -0.281007 -0.23907 -0.198826 -0.160883 -0.125823 -0.0941869 -0.0664726 -0.0431239 -0.0245239 -0.010984 -0.00276366 -3.00984e-26 0 -0.00287048 -0.0114673 -0.0256899 -0.0453482 -0.0701587 -0.0997478 -0.133654 -0.171337 -0.212191 -0.255548 -0.300698 -0.34687 -0.393309 -0.439274 -0.483976 -0.526674 -0.566666 -0.603309 -0.63601 -0.664244 -0.687575 -0.705658 -0.718515 -0.725209 -0.72621 -0.722185 -0.711687 -0.696137 -0.675437 -0.649939 -0.620064 -0.586291 -0.549153 -0.509228 -0.46712 -0.423464 -0.378945 -0.334192 -0.289852 -0.24661 -0.205111 -0.165985 -0.129827 -0.0971962 -0.0686053 -0.0445135 -0.0253177 -0.0113408 -0.00285389 -3.10829e-26 0 -0.00291791 -0.0116626 -0.0261395 -0.0461619 -0.0714468 -0.101616 -0.136202 -0.174648 -0.216336 -0.260584 -0.306657 -0.353762 -0.401119 -0.447962 -0.493483 -0.536926 -0.577568 -0.614741 -0.647843 -0.676345 -0.699811 -0.717894 -0.730668 -0.73699 -0.737778 -0.733072 -0.72203 -0.705854 -0.684505 -0.658351 -0.627822 -0.59341 -0.555651 -0.515125 -0.472442 -0.428241 -0.383203 -0.337948 -0.293126 -0.249433 -0.207505 -0.167966 -0.13142 -0.0984271 -0.0695046 -0.045119 -0.0256759 -0.0115078 -0.00289769 -3.15759e-26 0 -0.00291793 -0.0116629 -0.026141 -0.0461667 -0.0714579 -0.101638 -0.136237 -0.174702 -0.216413 -0.260687 -0.306789 -0.353917 -0.40129 -0.448142 -0.493672 -0.537113 -0.57774 -0.614888 -0.64796 -0.676437 -0.699874 -0.717929 -0.730682 -0.736993 -0.737777 -0.733054 -0.721984 -0.705767 -0.684371 -0.658168 -0.627595 -0.593146 -0.55536 -0.514818 -0.472134 -0.427948 -0.382934 -0.337714 -0.292929 -0.249273 -0.207387 -0.167884 -0.131366 -0.0983948 -0.0694879 -0.0451115 -0.0256732 -0.0115072 -0.00289765 -3.15694e-26 0 -0.00287425 -0.0114973 -0.025789 -0.0455766 -0.0705892 -0.100458 -0.134721 -0.172829 -0.214164 -0.258042 -0.303725 -0.350401 -0.397297 -0.443645 -0.488622 -0.531466 -0.571464 -0.607946 -0.640318 -0.668068 -0.690765 -0.708082 -0.720186 -0.725606 -0.726093 -0.720853 -0.709618 -0.693303 -0.671945 -0.645919 -0.615661 -0.581656 -0.544432 -0.504561 -0.462645 -0.419294 -0.37517 -0.330874 -0.28702 -0.244276 -0.203273 -0.1646 -0.128837 -0.0965376 -0.0682062 -0.0443009 -0.025225 -0.0113127 -0.00285031 -3.10636e-26 0 -0.00278366 -0.011138 -0.0249899 -0.0441766 -0.0684387 -0.097421 -0.130676 -0.167671 -0.207806 -0.250414 -0.294769 -0.340077 -0.385592 -0.430545 -0.474146 -0.515665 -0.554384 -0.589658 -0.620916 -0.647663 -0.669492 -0.686088 -0.697642 -0.702615 -0.702985 -0.697426 -0.686279 -0.670189 -0.649257 -0.623853 -0.594405 -0.561386 -0.525313 -0.486735 -0.446223 -0.404363 -0.361791 -0.319077 -0.27681 -0.235618 -0.196102 -0.158835 -0.124364 -0.0932178 -0.0658862 -0.0428123 -0.0243885 -0.010943 -0.00275845 -3.00667e-26 0 -0.00264989 -0.0106085 -0.0238149 -0.042121 -0.0652853 -0.0929724 -0.124756 -0.160127 -0.198509 -0.239259 -0.281673 -0.324987 -0.368482 -0.4114 -0.453 -0.492565 -0.529395 -0.562886 -0.592492 -0.61774 -0.638248 -0.653729 -0.664421 -0.668633 -0.668801 -0.662964 -0.652052 -0.636413 -0.61621 -0.591811 -0.563624 -0.532104 -0.497745 -0.461062 -0.422597 -0.382904 -0.34257 -0.302119 -0.262125 -0.22315 -0.185763 -0.150512 -0.117894 -0.0884039 -0.0625125 -0.0406409 -0.0231642 -0.0104 -0.00262301 -2.85944e-26 0 -0.00247447 -0.0099128 -0.0222676 -0.0394089 -0.0611173 -0.0870822 -0.116905 -0.15011 -0.186151 -0.224417 -0.264242 -0.304895 -0.345693 -0.385932 -0.424889 -0.461867 -0.496235 -0.527413 -0.554887 -0.578222 -0.597069 -0.611168 -0.620794 -0.624149 -0.624083 -0.618021 -0.607487 -0.592514 -0.573335 -0.5503 -0.523803 -0.49427 -0.46216 -0.427951 -0.392141 -0.355249 -0.317808 -0.280279 -0.243198 -0.207084 -0.17244 -0.139764 -0.109524 -0.0821712 -0.0581383 -0.0378207 -0.0215713 -0.00969197 -0.00244611 -2.66702e-26 0 -0.00226015 -0.00906179 -0.0203727 -0.0360833 -0.0560001 -0.0798429 -0.107248 -0.137776 -0.170925 -0.206122 -0.242748 -0.280119 -0.317593 -0.354523 -0.390234 -0.424061 -0.455427 -0.483799 -0.5087 -0.529742 -0.546613 -0.559079 -0.567453 -0.569878 -0.569522 -0.563333 -0.553297 -0.539195 -0.521313 -0.499982 -0.475571 -0.448476 -0.419116 -0.387924 -0.355342 -0.321838 -0.287891 -0.253897 -0.220334 -0.187668 -0.156326 -0.126754 -0.0993877 -0.0746175 -0.0528318 -0.034396 -0.0196347 -0.00883014 -0.0022305 -2.43247e-26 0 -0.00201033 -0.00806893 -0.0181599 -0.0321966 -0.0500145 -0.0713688 -0.0959358 -0.123322 -0.153071 -0.184662 -0.21753 -0.251051 -0.284634 -0.317687 -0.349594 -0.379744 -0.407618 -0.432732 -0.454665 -0.47307 -0.487674 -0.498351 -0.505053 -0.506943 -0.505807 -0.499814 -0.49034 -0.477301 -0.46097 -0.441656 -0.419696 -0.395451 -0.369294 -0.34161 -0.31278 -0.283198 -0.253285 -0.223381 -0.193888 -0.16519 -0.13767 -0.111699 -0.0876481 -0.0658613 -0.0466768 -0.0304206 -0.0173848 -0.00782792 -0.00197956 -2.15952e-26 0 -0.00172894 -0.00694988 -0.0156643 -0.0278099 -0.043255 -0.0617936 -0.0831478 -0.106975 -0.132871 -0.160377 -0.188987 -0.218151 -0.247336 -0.276004 -0.303612 -0.329619 -0.353564 -0.375023 -0.393632 -0.409096 -0.421185 -0.42987 -0.434796 -0.436066 -0.43415 -0.428406 -0.419609 -0.407806 -0.393254 -0.376238 -0.357058 -0.336032 -0.313483 -0.289737 -0.265116 -0.23994 -0.214541 -0.189208 -0.164269 -0.140021 -0.116774 -0.094826 -0.0744853 -0.05604 -0.0397701 -0.0259571 -0.0148571 -0.00670095 -0.00169724 -1.8525e-26 0 -0.0014204 -0.0057223 -0.012925 -0.0229927 -0.0358282 -0.0512685 -0.0690855 -0.0889914 -0.110644 -0.133649 -0.15757 -0.181934 -0.206279 -0.230124 -0.253007 -0.274472 -0.294115 -0.311578 -0.326561 -0.338827 -0.348194 -0.354711 -0.357816 -0.358336 -0.355697 -0.350234 -0.342218 -0.331805 -0.319233 -0.304757 -0.288642 -0.271154 -0.252561 -0.233126 -0.213103 -0.19274 -0.172273 -0.15193 -0.131951 -0.112555 -0.0939628 -0.0764009 -0.0601063 -0.0453069 -0.0322202 -0.0210755 -0.012091 -0.00546689 -0.00138795 -1.51626e-26 0 -0.00108958 -0.00440554 -0.00998544 -0.0178208 -0.0278514 -0.0399596 -0.053971 -0.0696569 -0.086741 -0.1049 -0.123773 -0.142972 -0.162106 -0.18077 -0.198583 -0.215173 -0.230208 -0.2434 -0.254517 -0.263382 -0.269887 -0.273986 -0.275444 -0.274876 -0.271728 -0.266534 -0.259391 -0.250499 -0.240075 -0.228343 -0.215525 -0.201837 -0.187486 -0.172667 -0.157562 -0.142338 -0.127143 -0.112131 -0.0974427 -0.0832199 -0.0695981 -0.0567213 -0.0447444 -0.0338332 -0.0241458 -0.0158527 -0.00913031 -0.00414511 -0.00105655 -1.15615e-26 0 -0.000741695 -0.0030204 -0.00689193 -0.012376 -0.0194506 -0.0280456 -0.0380429 -0.0492765 -0.0615396 -0.0745853 -0.0881314 -0.101878 -0.115513 -0.12872 -0.141198 -0.15266 -0.162852 -0.171564 -0.178632 -0.183942 -0.187485 -0.188978 -0.188958 -0.187021 -0.183554 -0.17862 -0.172429 -0.165167 -0.157028 -0.148199 -0.138859 -0.129172 -0.119282 -0.109313 -0.0993657 -0.0895258 -0.0798621 -0.0704323 -0.0612875 -0.0524816 -0.0440619 -0.0360892 -0.0286378 -0.0218001 -0.015674 -0.0103709 -0.00602146 -0.00275636 -0.000708243 -7.7786e-27 0 -0.000382228 -0.00158871 -0.0036933 -0.00674422 -0.0107584 -0.0157147 -0.0215529 -0.0281723 -0.0354384 -0.0431837 -0.0512095 -0.0593055 -0.0672457 -0.0747991 -0.0817528 -0.087914 -0.0931074 -0.0971961 -0.100109 -0.101736 -0.102148 -0.101325 -0.0993556 -0.0963733 -0.0925028 -0.0878758 -0.0827027 -0.077156 -0.0714056 -0.0655988 -0.0598674 -0.0543214 -0.0490402 -0.0440741 -0.0394472 -0.0351602 -0.0311922 -0.0275084 -0.0240691 -0.0208347 -0.0177664 -0.0148383 -0.0120433 -0.00939886 -0.00693988 -0.00471714 -0.00281366 -0.0013225 -0.000348518 -3.87363e-27 0 -1.68441e-05 -0.000133064 -0.000439994 -0.00101426 -0.00191199 -0.00316157 -0.0047615 -0.00667776 -0.00885006 -0.0111919 -0.0135914 -0.0159254 -0.0180648 -0.0198598 -0.021189 -0.0219575 -0.0220719 -0.0214697 -0.0201392 -0.018091 -0.0153788 -0.0120868 -0.00832703 -0.00424785 -6.27839e-07 0.00424896 0.00833337 0.0120924 0.0153838 0.0180951 0.0201411 0.0214709 0.0220689 0.021957 0.0211915 0.0198558 0.0180587 0.0159281 0.0135962 0.0111946 0.00885022 0.0066765 0.00476088 0.00316276 0.00191078 0.00101447 0.000440115 0.000133063 1.68442e-05 9.17153e-29 0 0.000348518 0.0013225 0.00281376 0.0047174 0.00693847 0.00939938 0.0120431 0.0148368 0.0177665 0.0208375 0.0240747 0.0275133 0.0311863 0.035152 0.0394478 0.044076 0.0490393 0.0543205 0.0598691 0.0655989 0.071404 0.0771582 0.0827088 0.0878787 0.0925009 0.0963731 0.0993596 0.101328 0.102148 0.101738 0.10011 0.0971985 0.0931061 0.0879128 0.0817543 0.0747987 0.0672435 0.0593058 0.0512128 0.0431857 0.0354383 0.0281714 0.021552 0.0157163 0.0107574 0.00674428 0.00369346 0.00158871 0.000382228 4.05491e-27 0 0.000708243 0.00275635 0.00602152 0.0103711 0.0156725 0.0217996 0.0286378 0.0360875 0.0440614 0.0524844 0.0612942 0.070439 0.0798592 0.0895136 0.0993617 0.109316 0.119286 0.129171 0.138856 0.148198 0.157027 0.16517 0.172434 0.178624 0.183554 0.187021 0.188962 0.188983 0.187482 0.183937 0.178632 0.171566 0.162852 0.152659 0.141197 0.128721 0.115512 0.101876 0.0881328 0.074586 0.0615393 0.0492762 0.0380422 0.0280472 0.0194496 0.0123759 0.00689218 0.00302041 0.000741694 7.9535e-27 0 0.00105655 0.00414511 0.00913035 0.0158529 0.0241443 0.0338319 0.0447454 0.0567195 0.0695961 0.0832215 0.0974489 0.112139 0.127146 0.142328 0.157553 0.172666 0.187489 0.201835 0.215523 0.228346 0.240078 0.250506 0.259397 0.266536 0.27173 0.274878 0.275452 0.273999 0.269893 0.263381 0.254521 0.243404 0.230209 0.215173 0.198583 0.180771 0.162103 0.142967 0.123772 0.104899 0.08674 0.0696568 0.0539702 0.0399609 0.0278507 0.0178207 0.00998582 0.00440558 0.00108958 1.17262e-26 0 0.00138795 0.00546689 0.0120911 0.0210756 0.0322189 0.0453042 0.0601077 0.0764019 0.0939603 0.112554 0.131956 0.15194 0.172282 0.192739 0.213093 0.23312 0.25256 0.271152 0.288641 0.304758 0.319235 0.331812 0.342225 0.350237 0.355698 0.35834 0.357826 0.354728 0.348201 0.33883 0.326565 0.31158 0.294115 0.274471 0.253005 0.230127 0.20628 0.181929 0.157568 0.133646 0.110643 0.0889912 0.0690845 0.0512698 0.0358281 0.0229928 0.0129255 0.00572235 0.00142039 1.53135e-26 0 0.00169724 0.00670095 0.0148571 0.0259572 0.0397695 0.056036 0.0744827 0.0948246 0.11677 0.14002 0.16427 0.189216 0.214552 0.239945 0.265108 0.289731 0.313485 0.336036 0.357059 0.376235 0.393253 0.407805 0.419609 0.428406 0.43415 0.436072 0.434805 0.429878 0.421186 0.409094 0.393631 0.375023 0.353564 0.329617 0.303608 0.276012 0.247346 0.218149 0.188985 0.160373 0.132869 0.106974 0.0831467 0.0617956 0.0432563 0.0278106 0.015665 0.00694996 0.00172893 1.86593e-26 0 0.00197956 0.00782792 0.0173848 0.0304208 0.046677 0.0658578 0.0876437 0.111698 0.137667 0.165187 0.193885 0.223381 0.253292 0.283206 0.312779 0.341606 0.369294 0.395455 0.419701 0.441658 0.46097 0.477299 0.490338 0.499813 0.505807 0.506949 0.505059 0.498352 0.487672 0.473067 0.454664 0.432732 0.407619 0.379745 0.349592 0.317702 0.284652 0.251053 0.217527 0.184656 0.153067 0.123321 0.0959346 0.0713715 0.050017 0.0321978 0.0181609 0.00806904 0.00201033 2.1711e-26 0 0.0022305 0.00883014 0.0196347 0.0343961 0.0528321 0.0746143 0.0993837 0.126755 0.15632 0.187659 0.220332 0.253896 0.287891 0.321845 0.355348 0.38792 0.41911 0.448475 0.475575 0.499988 0.521317 0.539198 0.553301 0.563335 0.569522 0.56988 0.567456 0.559078 0.546611 0.529742 0.5087 0.483798 0.455428 0.424061 0.390232 0.354538 0.317611 0.280122 0.242743 0.206114 0.17092 0.137775 0.107246 0.0798454 0.0560022 0.0360846 0.0203738 0.00906193 0.00226015 2.44207e-26 0 0.00244611 0.00969197 0.0215713 0.0378207 0.0581383 0.0821692 0.109519 0.13976 0.172439 0.207082 0.243197 0.28028 0.317808 0.355252 0.392147 0.427951 0.462156 0.494267 0.523803 0.550304 0.57334 0.592519 0.607493 0.618025 0.624083 0.62415 0.620794 0.611167 0.597069 0.578222 0.554886 0.527413 0.496236 0.461866 0.424887 0.38594 0.345703 0.304898 0.264236 0.224408 0.186145 0.150108 0.116904 0.0870844 0.0611185 0.0394099 0.0222689 0.00991294 0.00247446 2.6746e-26 0 0.00262301 0.0104 0.0231642 0.0406409 0.0625127 0.0884034 0.117889 0.150508 0.185769 0.223152 0.262121 0.302121 0.342572 0.382904 0.422598 0.461063 0.497744 0.532103 0.563623 0.591812 0.616213 0.636415 0.652054 0.662966 0.668801 0.668633 0.66442 0.653729 0.638247 0.617738 0.592492 0.562889 0.529397 0.492564 0.453011 0.411412 0.368484 0.324988 0.281668 0.23925 0.198502 0.160125 0.124755 0.092974 0.0652853 0.0421216 0.0238161 0.0106086 0.00264988 2.86504e-26 0 0.00275845 0.010943 0.0243885 0.0428123 0.0658864 0.0932179 0.124362 0.15883 0.196099 0.235616 0.276805 0.319073 0.361794 0.404364 0.446221 0.486735 0.525315 0.561387 0.594405 0.623853 0.649257 0.670189 0.686278 0.697426 0.702985 0.702615 0.697642 0.686087 0.669491 0.647664 0.620918 0.58966 0.554385 0.515669 0.474159 0.430553 0.385596 0.340078 0.294762 0.250406 0.207799 0.167671 0.130677 0.097422 0.0684374 0.0441769 0.024991 0.0111381 0.00278366 3.01041e-26 0 0.00285031 0.0113127 0.025225 0.0443009 0.0682063 0.0965379 0.128837 0.164596 0.203269 0.244278 0.287019 0.330871 0.375172 0.419295 0.462645 0.504563 0.544431 0.581652 0.615659 0.645919 0.671945 0.693303 0.709618 0.720851 0.726093 0.725606 0.720186 0.708083 0.690766 0.668067 0.640319 0.607946 0.571464 0.531468 0.488623 0.443646 0.3973 0.350398 0.303718 0.258036 0.214159 0.172831 0.134723 0.10046 0.0705895 0.0455774 0.02579 0.0114974 0.00287425 3.10844e-26 0 0.00289765 0.0115072 0.0256732 0.0451115 0.069488 0.0983951 0.131366 0.167883 0.207384 0.249276 0.292934 0.337714 0.382933 0.427947 0.472135 0.514818 0.555359 0.593145 0.627596 0.658169 0.684372 0.705767 0.721984 0.733054 0.737777 0.736993 0.730683 0.71793 0.699875 0.676436 0.647961 0.614886 0.577737 0.537112 0.493677 0.448149 0.40129 0.353912 0.306784 0.260684 0.216413 0.174708 0.13624 0.101641 0.0714617 0.0461689 0.0261418 0.0116629 0.00291793 3.15759e-26 0 0.00289769 0.0115078 0.0256759 0.045119 0.0695047 0.0984273 0.131421 0.167967 0.207503 0.249433 0.293131 0.33795 0.3832 0.42824 0.472442 0.515124 0.555651 0.59341 0.627823 0.658351 0.684505 0.705854 0.72203 0.733071 0.737778 0.736991 0.730668 0.717895 0.699813 0.676344 0.647839 0.61474 0.57757 0.536932 0.493491 0.447965 0.401117 0.353757 0.306655 0.260583 0.216336 0.17465 0.136203 0.10162 0.0714516 0.0461646 0.0261402 0.0116626 0.00291791 3.15708e-26 0 0.00285389 0.0113408 0.0253177 0.0445135 0.0686053 0.0971963 0.129827 0.165985 0.205111 0.246609 0.289853 0.334196 0.378946 0.423464 0.467118 0.509226 0.549154 0.58629 0.620062 0.649937 0.675435 0.696135 0.711686 0.722184 0.726211 0.725211 0.718514 0.705659 0.687576 0.664243 0.63601 0.603315 0.566675 0.526679 0.483978 0.439274 0.393307 0.346869 0.3007 0.255547 0.212188 0.171335 0.133656 0.0997525 0.0701625 0.0453501 0.0256903 0.0114673 0.00287047 3.10693e-26 0 0.00276366 0.010984 0.0245239 0.0431239 0.0664726 0.0941868 0.125823 0.160884 0.198826 0.23907 0.281006 0.324005 0.367391 0.410543 0.452843 0.493631 0.532288 0.5682