<?xml version="1.0"?>
<VTKFile type="PolyData">
	<PolyData>
		<Piece NumberOfPoints="2601" NumberOfPolys="2500">
			<Points>
				<DataArray type="Float32" NumberOfComponents="3" format="ascii">
 0 0 0 0.02 0 0 0.04 0 0 0.06 0 0 0.08 0 0 0.1 0 0 0.12 0 0 0.14 0 0 0.16 0 0 0.18 0 0 0.2 0 0 0.22 0 0 0.24 0 0 0.26 0 0 0.28 0 0 0.3 0 0 0.32 0 0 0.34 0 0 0.36 0 0 0.38 0 0 0.4 0 0 0.42 0 0 0.44 0 0 0.46 0 0 0.48 0 0 0.5 0 0 0.52 0 0 0.54 0 0 0.56 0 0 0.58 0 0 0.6 0 0 0.62 0 0 0.64 0 0 0.66 0 0 0.68 0 0 0.7 0 0 0.72 0 0 0.74 0 0 0.76 0 0 0.78 0 0 0.8 0 0 0.82 0 0 0.84 0 0 0.86 0 0 0.88 0 0 0.9 0 0 0.92 0 0 0.94 0 0 0.96 0 0 0.98 0 0 1 0 0 0 0.02 0 0.02 0.02 0 0.04 0.02 0 0.06 0.02 0 0.08 0.02 0 0.1 0.02 0 0.12 0.02 0 0.14 0.02 0 0.16 0.02 0 0.18 0.02 0 0.2 0.02 0 0.22 0.02 0 0.24 0.02 0 0.26 0.02 0 0.28 0.02 0 0.3 0.02 0 0.32 0.02 0 0.34 0.02 0 0.36 0.02 0 0.38 0.02 0 0.4 0.02 0 0.42 0.02 0 0.44 0.02 0 0.46 0.02 0 0.48 0.02 0 0.5 0.02 0 0.52 0.02 0 0.54 0.02 0 0.56 0.02 0 0.58 0.02 0 0.6 0.02 0 0.62 0.02 0 0.64 0.02 0 0.66 0.02 0 0.68 0.02 0 0.7 0.02 0 0.72 0.02 0 0.74 0.02 0 0.76 0.02 0 0.78 0.02 0 0.8 0.02 0 0.82 0.02 0 0.84 0.02 0 0.86 0.02 0 0.88 0.02 0 0.9 0.02 0 0.92 0.02 0 0.94 0.02 0 0.96 0.02 0 0.98 0.02 0 1 0.02 0 0 0.04 0 0.02 0.04 0 0.04 0.04 0 0.06 0.04 0 0.08 0.04 0 0.1 0.04 0 0.12 0.04 0 0.14 0.04 0 0.16 0.04 0 0.18 0.04 0 0.2 0.04 0 0.22 0.04 0 0.24 0.04 0 0.26 0.04 0 0.28 0.04 0 0.3 0.04 0 0.32 0.04 0 0.34 0.04 0 0.36 0.04 0 0.38 0.04 0 0.4 0.04 0 0.42 0.04 0 0.44 0.04 0 0.46 0.04 0 0.48 0.04 0 0.5 0.04 0 0.52 0.04 0 0.54 0.04 0 0.56 0.04 0 0.58 0.04 0 0.6 0.04 0 0.62 0.04 0 0.64 0.04 0 0.66 0.04 0 0.68 0.04 0 0.7 0.04 0 0.72 0.04 0 0.74 0.04 0 0.76 0.04 0 0.78 0.04 0 0.8 0.04 0 0.82 0.04 0 0.84 0.04 0 0.86 0.04 0 0.88 0.04 0 0.9 0.04 0 0.92 0.04 0 0.94 0.04 0 0.96 0.04 0 0.98 0.04 0 1 0.04 0 0 0.06 0 0.02 0.06 0 0.04 0.06 0 0.06 0.06 0 0.08 0.06 0 0.1 0.06 0 0.12 0.06 0 0.14 0.06 0 0.16 0.06 0 0.18 0.06 0 0.2 0.06 0 0.22 0.06 0 0.24 0.06 0 0.26 0.06 0 0.28 0.06 0 0.3 0.06 0 0.32 0.06 0 0.34 0.06 0 0.36 0.06 0 0.38 0.06 0 0.4 0.06 0 0.42 0.06 0 0.44 0.06 0 0.46 0.06 0 0.48 0.06 0 0.5 0.06 0 0.52 0.06 0 0.54 0.06 0 0.56 0.06 0 0.58 0.06 0 0.6 0.06 0 0.62 0.06 0 0.64 0.06 0 0.66 0.06 0 0.68 0.06 0 0.7 0.06 0 0.72 0.06 0 0.74 0.06 0 0.76 0.06 0 0.78 0.06 0 0.8 0.06 0 0.82 0.06 0 0.84 0.06 0 0.86 0.06 0 0.88 0.06 0 0.9 0.06 0 0.92 0.06 0 0.94 0.06 0 0.96 0.06 0 0.98 0.06 0 1 0.06 0 0 0.08 0 0.02 0.08 0 0.04 0.08 0 0.06 0.08 0 0.08 0.08 0 0.1 0.08 0 0.12 0.08 0 0.14 0.08 0 0.16 0.08 0 0.18 0.08 0 0.2 0.08 0 0.22 0.08 0 0.24 0.08 0 0.26 0.08 0 0.28 0.08 0 0.3 0.08 0 0.32 0.08 0 0.34 0.08 0 0.36 0.08 0 0.38 0.08 0 0.4 0.08 0 0.42 0.08 0 0.44 0.08 0 0.46 0.08 0 0.48 0.08 0 0.5 0.08 0 0.52 0.08 0 0.54 0.08 0 0.56 0.08 0 0.58 0.08 0 0.6 0.08 0 0.62 0.08 0 0.64 0.08 0 0.66 0.08 0 0.68 0.08 0 0.7 0.08 0 0.72 0.08 0 0.74 0.08 0 0.76 0.08 0 0.78 0.08 0 0.8 0.08 0 0.82 0.08 0 0.84 0.08 0 0.86 0.08 0 0.88 0.08 0 0.9 0.08 0 0.92 0.08 0 0.94 0.08 0 0.96 0.08 0 0.98 0.08 0 1 0.08 0 0 0.1 0 0.02 0.1 0 0.04 0.1 0 0.06 0.1 0 0.08 0.1 0 0.1 0.1 0 0.12 0.1 0 0.14 0.1 0 0.16 0.1 0 0.18 0.1 0 0.2 0.1 0 0.22 0.1 0 0.24 0.1 0 0.26 0.1 0 0.28 0.1 0 0.3 0.1 0 0.32 0.1 0 0.34 0.1 0 0.36 0.1 0 0.38 0.1 0 0.4 0.1 0 0.42 0.1 0 0.44 0.1 0 0.46 0.1 0 0.48 0.1 0 0.5 0.1 0 0.52 0.1 0 0.54 0.1 0 0.56 0.1 0 0.58 0.1 0 0.6 0.1 0 0.62 0.1 0 0.64 0.1 0 0.66 0.1 0 0.68 0.1 0 0.7 0.1 0 0.72 0.1 0 0.74 0.1 0 0.76 0.1 0 0.78 0.1 0 0.8 0.1 0 0.82 0.1 0 0.84 0.1 0 0.86 0.1 0 0.88 0.1 0 0.9 0.1 0 0.92 0.1 0 0.94 0.1 0 0.96 0.1 0 0.98 0.1 0 1 0.1 0 0 0.12 0 0.02 0.12 0 0.04 0.12 0 0.06 0.12 0 0.08 0.12 0 0.1 0.12 0 0.12 0.12 0 0.14 0.12 0 0.16 0.12 0 0.18 0.12 0 0.2 0.12 0 0.22 0.12 0 0.24 0.12 0 0.26 0.12 0 0.28 0.12 0 0.3 0.12 0 0.32 0.12 0 0.34 0.12 0 0.36 0.12 0 0.38 0.12 0 0.4 0.12 0 0.42 0.12 0 0.44 0.12 0 0.46 0.12 0 0.48 0.12 0 0.5 0.12 0 0.52 0.12 0 0.54 0.12 0 0.56 0.12 0 0.58 0.12 0 0.6 0.12 0 0.62 0.12 0 0.64 0.12 0 0.66 0.12 0 0.68 0.12 0 0.7 0.12 0 0.72 0.12 0 0.74 0.12 0 0.76 0.12 0 0.78 0.12 0 0.8 0.12 0 0.82 0.12 0 0.84 0.12 0 0.86 0.12 0 0.88 0.12 0 0.9 0.12 0 0.92 0.12 0 0.94 0.12 0 0.96 0.12 0 0.98 0.12 0 1 0.12 0 0 0.14 0 0.02 0.14 0 0.04 0.14 0 0.06 0.14 0 0.08 0.14 0 0.1 0.14 0 0.12 0.14 0 0.14 0.14 0 0.16 0.14 0 0.18 0.14 0 0.2 0.14 0 0.22 0.14 0 0.24 0.14 0 0.26 0.14 0 0.28 0.14 0 0.3 0.14 0 0.32 0.14 0 0.34 0.14 0 0.36 0.14 0 0.38 0.14 0 0.4 0.14 0 0.42 0.14 0 0.44 0.14 0 0.46 0.14 0 0.48 0.14 0 0.5 0.14 0 0.52 0.14 0 0.54 0.14 0 0.56 0.14 0 0.58 0.14 0 0.6 0.14 0 0.62 0.14 0 0.64 0.14 0 0.66 0.14 0 0.68 0.14 0 0.7 0.14 0 0.72 0.14 0 0.74 0.14 0 0.76 0.14 0 0.78 0.14 0 0.8 0.14 0 0.82 0.14 0 0.84 0.14 0 0.86 0.14 0 0.88 0.14 0 0.9 0.14 0 0.92 0.14 0 0.94 0.14 0 0.96 0.14 0 0.98 0.14 0 1 0.14 0 0 0.16 0 0.02 0.16 0 0.04 0.16 0 0.06 0.16 0 0.08 0.16 0 0.1 0.16 0 0.12 0.16 0 0.14 0.16 0 0.16 0.16 0 0.18 0.16 0 0.2 0.16 0 0.22 0.16 0 0.24 0.16 0 0.26 0.16 0 0.28 0.16 0 0.3 0.16 0 0.32 0.16 0 0.34 0.16 0 0.36 0.16 0 0.38 0.16 0 0.4 0.16 0 0.42 0.16 0 0.44 0.16 0 0.46 0.16 0 0.48 0.16 0 0.5 0.16 0 0.52 0.16 0 0.54 0.16 0 0.56 0.16 0 0.58 0.16 0 0.6 0.16 0 0.62 0.16 0 0.64 0.16 0 0.66 0.16 0 0.68 0.16 0 0.7 0.16 0 0.72 0.16 0 0.74 0.16 0 0.76 0.16 0 0.78 0.16 0 0.8 0.16 0 0.82 0.16 0 0.84 0.16 0 0.86 0.16 0 0.88 0.16 0 0.9 0.16 0 0.92 0.16 0 0.94 0.16 0 0.96 0.16 0 0.98 0.16 0 1 0.16 0 0 0.18 0 0.02 0.18 0 0.04 0.18 0 0.06 0.18 0 0.08 0.18 0 0.1 0.18 0 0.12 0.18 0 0.14 0.18 0 0.16 0.18 0 0.18 0.18 0 0.2 0.18 0 0.22 0.18 0 0.24 0.18 0 0.26 0.18 0 0.28 0.18 0 0.3 0.18 0 0.32 0.18 0 0.34 0.18 0 0.36 0.18 0 0.38 0.18 0 0.4 0.18 0 0.42 0.18 0 0.44 0.18 0 0.46 0.18 0 0.48 0.18 0 0.5 0.18 0 0.52 0.18 0 0.54 0.18 0 0.56 0.18 0 0.58 0.18 0 0.6 0.18 0 0.62 0.18 0 0.64 0.18 0 0.66 0.18 0 0.68 0.18 0 0.7 0.18 0 0.72 0.18 0 0.74 0.18 0 0.76 0.18 0 0.78 0.18 0 0.8 0.18 0 0.82 0.18 0 0.84 0.18 0 0.86 0.18 0 0.88 0.18 0 0.9 0.18 0 0.92 0.18 0 0.94 0.18 0 0.96 0.18 0 0.98 0.18 0 1 0.18 0 0 0.2 0 0.02 0.2 0 0.04 0.2 0 0.06 0.2 0 0.08 0.2 0 0.1 0.2 0 0.12 0.2 0 0.14 0.2 0 0.16 0.2 0 0.18 0.2 0 0.2 0.2 0 0.22 0.2 0 0.24 0.2 0 0.26 0.2 0 0.28 0.2 0 0.3 0.2 0 0.32 0.2 0 0.34 0.2 0 0.36 0.2 0 0.38 0.2 0 0.4 0.2 0 0.42 0.2 0 0.44 0.2 0 0.46 0.2 0 0.48 0.2 0 0.5 0.2 0 0.52 0.2 0 0.54 0.2 0 0.56 0.2 0 0.58 0.2 0 0.6 0.2 0 0.62 0.2 0 0.64 0.2 0 0.66 0.2 0 0.68 0.2 0 0.7 0.2 0 0.72 0.2 0 0.74 0.2 0 0.76 0.2 0 0.78 0.2 0 0.8 0.2 0 0.82 0.2 0 0.84 0.2 0 0.86 0.2 0 0.88 0.2 0 0.9 0.2 0 0.92 0.2 0 0.94 0.2 0 0.96 0.2 0 0.98 0.2 0 1 0.2 0 0 0.22 0 0.02 0.22 0 0.04 0.22 0 0.06 0.22 0 0.08 0.22 0 0.1 0.22 0 0.12 0.22 0 0.14 0.22 0 0.16 0.22 0 0.18 0.22 0 0.2 0.22 0 0.22 0.22 0 0.24 0.22 0 0.26 0.22 0 0.28 0.22 0 0.3 0.22 0 0.32 0.22 0 0.34 0.22 0 0.36 0.22 0 0.38 0.22 0 0.4 0.22 0 0.42 0.22 0 0.44 0.22 0 0.46 0.22 0 0.48 0.22 0 0.5 0.22 0 0.52 0.22 0 0.54 0.22 0 0.56 0.22 0 0.58 0.22 0 0.6 0.22 0 0.62 0.22 0 0.64 0.22 0 0.66 0.22 0 0.68 0.22 0 0.7 0.22 0 0.72 0.22 0 0.74 0.22 0 0.76 0.22 0 0.78 0.22 0 0.8 0.22 0 0.82 0.22 0 0.84 0.22 0 0.86 0.22 0 0.88 0.22 0 0.9 0.22 0 0.92 0.22 0 0.94 0.22 0 0.96 0.22 0 0.98 0.22 0 1 0.22 0 0 0.24 0 0.02 0.24 0 0.04 0.24 0 0.06 0.24 0 0.08 0.24 0 0.1 0.24 0 0.12 0.24 0 0.14 0.24 0 0.16 0.24 0 0.18 0.24 0 0.2 0.24 0 0.22 0.24 0 0.24 0.24 0 0.26 0.24 0 0.28 0.24 0 0.3 0.24 0 0.32 0.24 0 0.34 0.24 0 0.36 0.24 0 0.38 0.24 0 0.4 0.24 0 0.42 0.24 0 0.44 0.24 0 0.46 0.24 0 0.48 0.24 0 0.5 0.24 0 0.52 0.24 0 0.54 0.24 0 0.56 0.24 0 0.58 0.24 0 0.6 0.24 0 0.62 0.24 0 0.64 0.24 0 0.66 0.24 0 0.68 0.24 0 0.7 0.24 0 0.72 0.24 0 0.74 0.24 0 0.76 0.24 0 0.78 0.24 0 0.8 0.24 0 0.82 0.24 0 0.84 0.24 0 0.86 0.24 0 0.88 0.24 0 0.9 0.24 0 0.92 0.24 0 0.94 0.24 0 0.96 0.24 0 0.98 0.24 0 1 0.24 0 0 0.26 0 0.02 0.26 0 0.04 0.26 0 0.06 0.26 0 0.08 0.26 0 0.1 0.26 0 0.12 0.26 0 0.14 0.26 0 0.16 0.26 0 0.18 0.26 0 0.2 0.26 0 0.22 0.26 0 0.24 0.26 0 0.26 0.26 0 0.28 0.26 0 0.3 0.26 0 0.32 0.26 0 0.34 0.26 0 0.36 0.26 0 0.38 0.26 0 0.4 0.26 0 0.42 0.26 0 0.44 0.26 0 0.46 0.26 0 0.48 0.26 0 0.5 0.26 0 0.52 0.26 0 0.54 0.26 0 0.56 0.26 0 0.58 0.26 0 0.6 0.26 0 0.62 0.26 0 0.64 0.26 0 0.66 0.26 0 0.68 0.26 0 0.7 0.26 0 0.72 0.26 0 0.74 0.26 0 0.76 0.26 0 0.78 0.26 0 0.8 0.26 0 0.82 0.26 0 0.84 0.26 0 0.86 0.26 0 0.88 0.26 0 0.9 0.26 0 0.92 0.26 0 0.94 0.26 0 0.96 0.26 0 0.98 0.26 0 1 0.26 0 0 0.28 0 0.02 0.28 0 0.04 0.28 0 0.06 0.28 0 0.08 0.28 0 0.1 0.28 0 0.12 0.28 0 0.14 0.28 0 0.16 0.28 0 0.18 0.28 0 0.2 0.28 0 0.22 0.28 0 0.24 0.28 0 0.26 0.28 0 0.28 0.28 0 0.3 0.28 0 0.32 0.28 0 0.34 0.28 0 0.36 0.28 0 0.38 0.28 0 0.4 0.28 0 0.42 0.28 0 0.44 0.28 0 0.46 0.28 0 0.48 0.28 0 0.5 0.28 0 0.52 0.28 0 0.54 0.28 0 0.56 0.28 0 0.58 0.28 0 0.6 0.28 0 0.62 0.28 0 0.64 0.28 0 0.66 0.28 0 0.68 0.28 0 0.7 0.28 0 0.72 0.28 0 0.74 0.28 0 0.76 0.28 0 0.78 0.28 0 0.8 0.28 0 0.82 0.28 0 0.84 0.28 0 0.86 0.28 0 0.88 0.28 0 0.9 0.28 0 0.92 0.28 0 0.94 0.28 0 0.96 0.28 0 0.98 0.28 0 1 0.28 0 0 0.3 0 0.02 0.3 0 0.04 0.3 0 0.06 0.3 0 0.08 0.3 0 0.1 0.3 0 0.12 0.3 0 0.14 0.3 0 0.16 0.3 0 0.18 0.3 0 0.2 0.3 0 0.22 0.3 0 0.24 0.3 0 0.26 0.3 0 0.28 0.3 0 0.3 0.3 0 0.32 0.3 0 0.34 0.3 0 0.36 0.3 0 0.38 0.3 0 0.4 0.3 0 0.42 0.3 0 0.44 0.3 0 0.46 0.3 0 0.48 0.3 0 0.5 0.3 0 0.52 0.3 0 0.54 0.3 0 0.56 0.3 0 0.58 0.3 0 0.6 0.3 0 0.62 0.3 0 0.64 0.3 0 0.66 0.3 0 0.68 0.3 0 0.7 0.3 0 0.72 0.3 0 0.74 0.3 0 0.76 0.3 0 0.78 0.3 0 0.8 0.3 0 0.82 0.3 0 0.84 0.3 0 0.86 0.3 0 0.88 0.3 0 0.9 0.3 0 0.92 0.3 0 0.94 0.3 0 0.96 0.3 0 0.98 0.3 0 1 0.3 0 0 0.32 0 0.02 0.32 0 0.04 0.32 0 0.06 0.32 0 0.08 0.32 0 0.1 0.32 0 0.12 0.32 0 0.14 0.32 0 0.16 0.32 0 0.18 0.32 0 0.2 0.32 0 0.22 0.32 0 0.24 0.32 0 0.26 0.32 0 0.28 0.32 0 0.3 0.32 0 0.32 0.32 0 0.34 0.32 0 0.36 0.32 0 0.38 0.32 0 0.4 0.32 0 0.42 0.32 0 0.44 0.32 0 0.46 0.32 0 0.48 0.32 0 0.5 0.32 0 0.52 0.32 0 0.54 0.32 0 0.56 0.32 0 0.58 0.32 0 0.6 0.32 0 0.62 0.32 0 0.64 0.32 0 0.66 0.32 0 0.68 0.32 0 0.7 0.32 0 0.72 0.32 0 0.74 0.32 0 0.76 0.32 0 0.78 0.32 0 0.8 0.32 0 0.82 0.32 0 0.84 0.32 0 0.86 0.32 0 0.88 0.32 0 0.9 0.32 0 0.92 0.32 0 0.94 0.
[...]
			<PointData Scalars="VitesseX">
				<DataArray Name="VitesseX" type="Float32" format="ascii">
 0 0 0 0 0 0 0 0 0 0 0 0 0 0 0 0 0 0 0 0 0 0 0 0 0 0 0 0 0 0 0 0 0 0 0 0 0 0 0 0 0 0 0 0 0 0 0 0 0 0 0 0 0.000224299 0.000893581 0.00199739 0.00351813 0.00543181 0.00770821 0.0103114 0.0132004 0.0163296 0.0196497 0.0231084 0.0266513 0.0302223 0.0337653 0.0372248 0.0405461 0.0436769 0.0465678 0.0491733 0.0514523 0.0533689 0.0548927 0.0559997 0.0566756 0.0568999 0.0566778 0.0560122 0.0549066 0.0533866 0.0514731 0.0491965 0.0465925 0.0437022 0.0405714 0.0372492 0.0337882 0.030243 0.0266696 0.0231243 0.0196628 0.01634 0.0132083 0.0103172 0.00771209 0.00543423 0.00351948 0.00199804 0.000893865 0.000224339 2.43388e-27 0 0.000444949 0.00177232 0.00396135 0.00697663 0.0107704 0.0152826 0.0204419 0.0261671 0.032368 0.0389471 0.045801 0.0528222 0.0598994 0.0669223 0.0737817 0.080369 0.0865807 0.0923192 0.0974942 0.102024 0.105837 0.108873 0.111084 0.112447 0.112902 0.112481 0.111183 0.109001 0.105999 0.102214 0.097706 0.092545 0.0868128 0.0805999 0.0740047 0.0671314 0.060089 0.0529896 0.0459448 0.0390657 0.032462 0.0262383 0.0204929 0.0153167 0.0107913 0.00698802 0.00396655 0.00177424 0.000445205 4.82917e-27 0 0.000658485 0.00262248 0.00586127 0.0103217 0.015933 0.022606 0.0302352 0.0387006 0.0478688 0.0575961 0.0677299 0.0781116 0.0885767 0.0989629 0.10911 0.118857 0.128051 0.136548 0.144215 0.150931 0.156589 0.1611 0.164391 0.166438 0.167121 0.166524 0.164625 0.161406 0.156979 0.151389 0.144725 0.137092 0.128609 0.119412 0.109646 0.0994658 0.0890329 0.0785147 0.0680759 0.0578815 0.048095 0.0388718 0.0303579 0.0226881 0.0159833 0.010349 0.00587367 0.00262698 0.000659085 7.14807e-27 0 0.000861545 0.00343068 0.00766721 0.0135007 0.0208382 0.029563 0.039537 0.0506031 0.0625875 0.0753025 0.0885492 0.102121 0.115802 0.129382 0.142652 0.155402 0.167434 0.178558 0.188601 0.197402 0.204825 0.210749 0.215081 0.217795 0.218703 0.217954 0.215498 0.211301 0.205527 0.198229 0.18952 0.179539 0.168442 0.156406 0.14362 0.130289 0.116625 0.102848 0.0891732 0.0758172 0.0629955 0.0509119 0.0397582 0.0297109 0.0209288 0.0135498 0.00768947 0.00343869 0.000862612 9.35404e-27 0 0.00105094 0.00418422 0.00935074 0.0164636 0.0254088 0.036044 0.0482006 0.0616872 0.0762922 0.0917874 0.107931 0.124471 0.141145 0.157699 0.173879 0.18943 0.204109 0.217687 0.229951 0.240706 0.249784 0.257038 0.262352 0.265707 0.266833 0.26596 0.262998 0.257899 0.25088 0.241996 0.231387 0.219219 0.205684 0.190997 0.175392 0.159117 0.142432 0.125606 0.108904 0.0925905 0.0769288 0.062169 0.0485456 0.0362747 0.02555 0.01654 0.00938532 0.00419658 0.00105258 1.14124e-26 0 0.00122368 0.00487125 0.0108854 0.0191636 0.0295728 0.0419468 0.0560894 0.071778 0.088767 0.106791 0.125569 0.14481 0.164208 0.18347 0.2023 0.220404 0.237499 0.253318 0.267612 0.280158 0.290755 0.299234 0.305459 0.309416 0.310752 0.309783 0.306374 0.300464 0.292319 0.281998 0.269661 0.255502 0.239745 0.22264 0.204459 0.185493 0.166045 0.146431 0.126959 0.107937 0.0896753 0.0724655 0.0565817 0.0422758 0.0297739 0.0192723 0.0109345 0.00488868 0.00122599 1.32907e-26 0 0.00137706 0.00548099 0.0122469 0.0215582 0.0332645 0.0471785 0.0630793 0.080717 0.0998155 0.120077 0.141186 0.162817 0.184627 0.206286 0.227467 0.247835 0.267075 0.284887 0.300991 0.315135 0.327093 0.336673 0.343721 0.348232 0.349769 0.348732 0.344942 0.338323 0.329191 0.317602 0.303739 0.287818 0.270089 0.250835 0.230363 0.209001 0.187092 0.164994 0.143051 0.121614 0.101034 0.0816392 0.0637396 0.0476197 0.0335341 0.0217038 0.0123125 0.00550408 0.00138012 1.49595e-26 0 0.00150866 0.00600388 0.0134141 0.0236097 0.0364258 0.0516567 0.0690602 0.0883632 0.109263 0.131435 0.154536 0.178209 0.20208 0.225789 0.248982 0.271291 0.292373 0.311898 0.32956 0.345085 0.358224 0.368765 0.376536 0.38154 0.383269 0.382189 0.378092 0.37088 0.360916 0.348252 0.333088 0.315659 0.29624 0.27514 0.252698 0.229273 0.205242 0.181001 0.156928 0.133408 0.110826 0.0895454 0.0699066 0.052222 0.0367711 0.023796 0.0134977 0.00603308 0.00151253 1.63925e-26 0 0.00161643 0.00643171 0.0143684 0.025286 0.0390071 0.0553109 0.0739382 0.0945962 0.116961 0.140688 0.165408 0.190743 0.216292 0.241673 0.266507 0.290402 0.312992 0.333925 0.352873 0.369538 0.383657 0.395002 0.403385 0.408812 0.410723 0.409626 0.405305 0.397624 0.386994 0.373465 0.357245 0.338587 0.317786 0.295173 0.271111 0.245989 0.220211 0.194201 0.16837 0.143131 0.118898 0.09606 0.0749855 0.0560103 0.039434 0.025516 0.0144713 0.00646733 0.00162113 1.75672e-26 0 0.00169867 0.00675778 0.0150948 0.0265606 0.0409677 0.0580837 0.0776365 0.0993179 0.122789 0.147688 0.173632 0.200222 0.22704 0.253686 0.279767 0.30487 0.32861 0.350622 0.370558 0.388109 0.402994 0.41497 0.423844 0.429619 0.4317 0.430608 0.426147 0.418128 0.407011 0.392837 0.375823 0.356235 0.334383 0.310614 0.285312 0.258884 0.23176 0.204389 0.177199 0.15063 0.125121 0.10108 0.0788967 0.058925 0.0414807 0.0268367 0.0152181 0.00679999 0.00170422 1.84653e-26 0 0.00175426 0.0069783 0.0155863 0.0274233 0.0422951 0.0599612 0.0801407 0.102515 0.126736 0.15243 0.179201 0.206642 0.234318 0.261823 0.288749 0.31467 0.339187 0.36193 0.382535 0.400682 0.416082 0.428483 0.437683 0.443686 0.44587 0.444803 0.440287 0.43207 0.420652 0.406065 0.388532 0.368328 0.345771 0.321223 0.295076 0.267756 0.23971 0.211401 0.183275 0.155787 0.129397 0.104526 0.0815781 0.06092 0.0428791 0.0277371 0.0157262 0.00702581 0.00176049 1.90726e-26 0 0.00178165 0.00708454 0.0158179 0.0278213 0.0428954 0.0607951 0.0812348 0.103893 0.128417 0.15443 0.181537 0.209323 0.237361 0.265235 0.292532 0.318832 0.343733 0.366853 0.387833 0.406344 0.422092 0.434819 0.444315 0.450565 0.453004 0.452017 0.447599 0.439362 0.427873 0.413139 0.395395 0.374912 0.352015 0.327071 0.300483 0.272684 0.24413 0.215298 0.186649 0.158644 0.131753 0.106414 0.0830384 0.0619991 0.0436287 0.0282148 0.0159926 0.00714278 0.00178925 1.93796e-26 0 0.00178164 0.00708441 0.0158172 0.0278193 0.0428913 0.0607872 0.0812216 0.103872 0.128388 0.154392 0.181488 0.209264 0.237296 0.265165 0.292459 0.31876 0.343663 0.366788 0.387778 0.406302 0.422061 0.434799 0.444304 0.450562 0.453004 0.452018 0.447605 0.439373 0.427888 0.413161 0.395422 0.374945 0.352057 0.327117 0.300528 0.272729 0.244171 0.215334 0.18668 0.158669 0.131772 0.106426 0.0830446 0.0620031 0.0436314 0.028216 0.015993 0.00714287 0.00178926 1.93815e-26 0 0.00175292 0.00696777 0.0155512 0.0273425 0.0421434 0.0597108 0.0797638 0.101987 0.126036 0.151544 0.178123 0.205377 0.232888 0.260245 0.287059 0.312911 0.337411 0.36019 0.380891 0.399191 0.414796 0.427453 0.436946 0.44324 0.445854 0.445023 0.440958 0.433034 0.421901 0.40755 0.390196 0.37011 0.347613 0.323061 0.296859 0.269432 0.241233 0.212745 0.184425 0.156735 0.130145 0.105091 0.0819806 0.0611884 0.0430423 0.0278238 0.0157638 0.00703721 0.00176193 1.90783e-26 0 0.00169673 0.00674246 0.0150437 0.0264427 0.0407461 0.0577173 0.0770844 0.0985432 0.121762 0.146387 0.172047 0.198367 0.224939 0.251369 0.277287 0.302291 0.326008 0.348076 0.368156 0.385932 0.401121 0.413472 0.422775 0.428976 0.431677 0.430919 0.427075 0.419466 0.408748 0.394906 0.378147 0.358729 0.336958 0.313187 0.287807 0.261233 0.233902 0.206278 0.178813 0.151959 0.126171 0.101873 0.0794622 0.0592987 0.041707 0.0269572 0.0152703 0.00681578 0.00170621 1.84747e-26 0 0.00161374 0.00641052 0.0142978 0.0251231 0.0387007 0.0548043 0.0731754 0.0935257 0.115542 0.138889 0.163217 0.188173 0.213383 0.238471 0.26308 0.286839 0.309397 0.33041 0.349556 0.366535 0.381074 0.392936 0.401914 0.407933 0.410695 0.410064 0.406583 0.399465 0.389383 0.376308 0.360436 0.342011 0.321324 0.298707 0.27453 0.249203 0.223147 0.196792 0.170583 0.144952 0.120338 0.0971482 0.0757613 0.056524 0.0397449 0.0256814 0.014543 0.00648897 0.00162385 1.75803e-26 0 0.00150527 0.00597713 0.0133251 0.0234044 0.0360393 0.0510178 0.0680983 0.0870134 0.107473 0.129167 0.151778 0.174974 0.198413 0.221752 0.24466 0.2668 0.287843 0.307474 0.325388 0.341304 0.354975 0.36617 0.374692 0.380445 0.383238 0.382758 0.379705 0.373202 0.363924 0.351832 0.337103 0.319964 0.300686 0.279581 0.256996 0.233308 0.20892 0.184249 0.159703 0.135692 0.112635 0.0909115 0.0708805 0.0528698 0.0371622 0.0240033 0.0135876 0.00606023 0.00151594 1.64091e-26 0 0.00137301 0.00544909 0.012141 0.0213135 0.0328038 0.0464171 0.0619331 0.0791089 0.0976825 0.117374 0.137905 0.158971 0.180262 0.201478 0.222319 0.242488 0.261685 0.279623 0.296026 0.310641 0.323236 0.333597 0.341539 0.34695 0.349738 0.349434 0.346866 0.341093 0.332775 0.321863 0.308516 0.292937 0.275373 0.256111 0.235469 0.213795 0.191457 0.168847 0.146347 0.124329 0.10318 0.0832595 0.0648957 0.0483874 0.0339973 0.0219495 0.0124192 0.0055363 0.00138418 1.49794e-26 0 0.00121904 0.00483469 0.0107641 0.0188835 0.0290452 0.0410749 0.0547768 0.0699368 0.086325 0.103698 0.121812 0.140405 0.15921 0.177966 0.196413 0.21429 0.231338 0.247299 0.261938 0.27503 0.286358 0.29573 0.302981 0.307979 0.310724 0.310623 0.308584 0.303646 0.296428 0.286876 0.275126 0.261357 0.245785 0.228667 0.210291 0.190968 0.171031 0.150831 0.13072 0.111037 0.0921253 0.074315 0.0579012 0.0431516 0.0303031 0.0195531 0.0110563 0.00492546 0.00123063 1.33138e-26 0 0.00104577 0.00414357 0.009216 0.0161525 0.0248227 0.0350752 0.0467422 0.0596415 0.0735797 0.0883529 0.103758 0.119579 0.135596 0.151589 0.167349 0.182649 0.197276 0.211017 0.223666 0.23503 0.244921 0.25317 0.259626 0.26416 0.266785 0.266967 0.265444 0.26146 0.255458 0.247424 0.237461 0.225721 0.212389 0.197685 0.181859 0.165187 0.14796 0.130485 0.113071 0.0960246 0.0796458 0.0642183 0.0500069 0.0372454 0.0261371 0.0168513 0.00952029 0.00423733 0.00105772 1.14383e-26 0 0.000855947 0.00338658 0.00752112 0.0131635 0.0202027 0.0285127 0.0379558 0.0483853 0.059647 0.0715806 0.0840272 0.0968197 0.109789 0.122763 0.135579 0.148061 0.160039 0.171344 0.18181 0.191275 0.199582 0.206587 0.212158 0.216179 0.218616 0.219161 0.218121 0.2152 0.21051 0.204128 0.196115 0.186592 0.17571 0.163651 0.150624 0.136861 0.122609 0.108128 0.0936836 0.0795321 0.0659336 0.0531279 0.0413385 0.0307609 0.021564 0.0138864 0.00783545 0.00348279 0.000868178 9.38256e-27 0 0.000652538 0.00257562 0.00570611 0.00996362 0.0152581 0.0214907 0.0285563 0.0363455 0.0447466 0.0536442 0.0629285 0.072484 0.0821941 0.091943 0.101609 0.111072 0.120213 0.128906 0.137028 0.144452 0.151053 0.156714 0.161324 0.164782 0.167019 0.167898 0.167408 0.16558 0.162292 0.157669 0.151738 0.144586 0.136327 0.127103 0.117077 0.106435 0.0953771 0.0841124 0.0728572 0.0618179 0.0512078 0.0412203 0.0320328 0.0238007 0.0166562 0.0107056 0.00602836 0.00267372 0.000664989 7.17878e-27 0 0.000438749 0.00172344 0.00379958 0.00660331 0.0100668 0.0141198 0.0186917 0.0237121 0.0291136 0.0348312 0.040801 0.0469633 0.0532537 0.0596095 0.0659707 0.0722662 0.0784262 0.0843721 0.0900259 0.0952993 0.1001 0.104338 0.107927 0.110779 0.112814 0.11397 0.114123 0.11337 0.111568 0.10878 0.105031 0.100366 0.0948622 0.0886169 0.0817478 0.0743908 0.0666953 0.0588182 0.050922 0.0431642 0.0357023 0.0286826 0.0222358 0.0164744 0.0114916 0.00735916 0.00412757 0.0018229 0.000451357 4.86167e-27 0 0.000217946 0.000843464 0.00183161 0.00313566 0.00471101 0.00651712 0.00851864 0.0106859 0.0129964 0.0154359 0.017991 0.0206556 0.0234216 0.0262798 0.029233 0.0322614 0.0353427 0.0384461 0.0415468 0.044594 0.0475277 0.0502876 0.0528086 0.0550209 0.0568542 0.0582275 0.0590977 0.0594043 0.0591227 0.0582349 0.0567282 0.0546293 0.0519682 0.0487995 0.0451929 0.041233 0.037016 0.0326444 0.028225 0.0238631 0.0196604 0.015713 0.0121026 0.00889819 0.0061518 0.00389992 0.00216304 0.00094374 0.000230648 2.46769e-27 0 -6.34477e-06 -5.00962e-05 -0.000165711 -0.000382387 -0.000720867 -0.0011915 -0.00179383 -0.0025163 -0.00333589 -0.00421953 -0.00512398 -0.00600381 -0.00680737 -0.00748468 -0.00798844 -0.00827796 -0.00832158 -0.00810617 -0.00760582 -0.00682808 -0.00580313 -0.00456077 -0.0031441 -0.0016038 -1.77315e-07 0.00160242 0.00314194 0.00455642 0.00579581 0.00682056 0.00759695 0.00809876 0.00832171 0.00827849 0.0079889 0.0074845 0.00680718 0.00600375 0.00512438 0.00421948 0.0033356 0.0025158 0.00179349 0.00119151 0.000720902 0.000382233 0.00016575 5.01118e-05 6.34459e-06 3.45555e-29 0 -0.000230649 -0.000943725 -0.00216298 -0.00390011 -0.00615188 -0.0088984 -0.0121033 -0.0157137 -0.0196614 -0.0238628 -0.0282239 -0.0326442 -0.0370162 -0.0412345 -0.0451925 -0.0487983 -0.0519681 -0.0546357 -0.0567466 -0.0582504 -0.0591286 -0.0594064 -0.0590981 -0.0582282 -0.0568545 -0.0550228 -0.0528121 -0.050292 -0.0475315 -0.0445976 -0.041551 -0.0384503 -0.0353428 -0.0322608 -0.0292333 -0.0262813 -0.0234176 -0.0206511 -0.0179879 -0.0154334 -0.0129959 -0.0106862 -0.0085188 -0.00651719 -0.004711 -0.00313584 -0.00183159 -0.000843445 -0.000217946 -2.3994e-27 0 -0.000451357 -0.00182288 -0.00412748 -0.00735942 -0.0114917 -0.0164747 -0.0222364 -0.0286838 -0.0357036 -0.0431647 -0.0509214 -0.0588175 -0.0666952 -0.074393 -0.0817487 -0.0886159 -0.0948622 -0.100368 -0.10504 -0.108796 -0.111576 -0.113369 -0.114121 -0.11397 -0.112814 -0.11078 -0.10793 -0.104343 -0.100104 -0.0953011 -0.0900302 -0.0843749 -0.0784266 -0.0722659 -0.0659692 -0.0596093 -0.0532513 -0.0469609 -0.0407999 -0.0348298 -0.0291126 -0.0237123 -0.0186919 -0.0141201 -0.0100669 -0.00660356 -0.00379959 -0.00172341 -0.000438749 -4.79577e-27 0 -0.000664989 -0.0026737 -0.00602823 -0.0107057 -0.0166561 -0.0238007 -0.0320333 -0.0412217 -0.0512095 -0.0618206 -0.0728573 -0.0841103 -0.0953765 -0.106434 -0.117077 -0.127103 -0.136327 -0.144586 -0.151737 -0.157673 -0.16229 -0.165569 -0.167407 -0.167899 -0.167019 -0.164783 -0.161326 -0.156719 -0.151056 -0.144446 -0.137026 -0.12891 -0.120213 -0.111071 -0.101606 -0.0919411 -0.0821958 -0.0724861 -0.0629308 -0.0536455 -0.044745 -0.036345 -0.0285566 -0.021491 -0.0152583 -0.009964 -0.00570619 -0.00257559 -0.000652538 -7.11676e-27 0 -0.000868178 -0.00348277 -0.00783526 -0.0138863 -0.0215636 -0.0307609 -0.0413392 -0.0531295 -0.0659345 -0.079534 -0.0936816 -0.108123 -0.122608 -0.136859 -0.150623 -0.163651 -0.17571 -0.186592 -0.196116 -0.204128 -0.210504 -0.215191 -0.218121 -0.219162 -0.218615 -0.21618 -0.212159 -0.206585 -0.199581 -0.191273 -0.181809 -0.171346 -0.160038 -0.148059 -0.135577 -0.122762 -0.109789 -0.0968199 -0.0840279 -0.0715809 -0.0596446 -0.0483834 -0.0379557 -0.0285132 -0.0202027 -0.0131639 -0.00752131 -0.00338655 -0.000855946 -9.32571e-27 0 -0.00105772 -0.00423732 -0.00952007 -0.0168508 -0.0261366 -0.0372453 -0.0500075 -0.0642195 -0.0796462 -0.0960259 -0.113075 -0.130486 -0.14796 -0.165186 -0.181858 -0.197684 -0.212389 -0.225721 -0.237462 -0.247424 -0.255458 -0.261459 -0.265443 -0.266967 -0.266784 -0.26416 -0.259626 -0.253169 -0.244922 -0.235035 -0.22367 -0.211016 -0.197274 -0.182648 -0.167347 -0.151588 -0.135596 -0.119579 -0.103759 -0.0883534 -0.0735766 -0.0596383 -0.0467416 -0.0350757 -0.0248223 -0.0161528 -0.00921633 -0.00414355 -0.00104577 -1.13877e-26 0 -0.00123063 -0.00492545 -0.0110561 -0.0195527 -0.0303032 -0.0431518 -0.0579012 -0.0743164 -0.0921279 -0.111037 -0.130725 -0.150835 -0.171029 -0.190966 -0.210288 -0.228666 -0.245785 -0.261357 -0.275127 -0.286876 -0.296428 -0.303646 -0.308584 -0.310624 -0.310725 -0.307979 -0.302982 -0.295731 -0.286356 -0.275032 -0.261943 -0.247299 -0.231335 -0.214291 -0.196415 -0.177964 -0.159211 -0.140404 -0.121812 -0.103699 -0.0863213 -0.0699328 -0.0547759 -0.0410753 -0.0290448 -0.0188839 -0.0107645 -0.00483468 -0.00121903 -1.32701e-26 0 -0.00138418 -0.0055363 -0.012419 -0.0219493 -0.0339974 -0.0483868 -0.0648956 -0.0832607 -0.103183 -0.12433 -0.146347 -0.168848 -0.191456 -0.213792 -0.235468 -0.256109 -0.275372 -0.292937 -0.308517 -0.321864 -0.332776 -0.341094 -0.346867 -0.349435 -0.349739 -0.34695 -0.341538 -0.333596 -0.323237 -0.310645 -0.296027 -0.27962 -0.261684 -0.242491 -0.222323 -0.201474 -0.18026 -0.158968 -0.137904 -0.117375 -0.0976781 -0.0791046 -0.0619324 -0.0464177 -0.0328035 -0.0213139 -0.0121415 -0.0054491 -0.001373 -1.49432e-26 0 -0.00151594 -0.00606023 -0.0135874 -0.0240027 -0.0371611 -0.052868 -0.0708804 -0.0909117 -0.112637 -0.135696 -0.159704 -0.184249 -0.208922 -0.233312 -0.256997 -0.279579 -0.300684 -0.319962 -0.337103 -0.351831 -0.363923 -0.373202 -0.379706 -0.382758 -0.383238 -0.380445 -0.37469 -0.36617 -0.354979 -0.341308 -0.325385 -0.30747 -0.287843 -0.266802 -0.24466 -0.221748 -0.198413 -0.174977 -0.15178 -0.129166 -0.107468 -0.0870098 -0.0680983 -0.0510185 -0.0360391 -0.0234047 -0.0133256 -0.00597714 -0.00150526 -1.63805e-26 0 -0.00162385 -0.00648898 -0.0145429 -0.0256807 -0.0397445 -0.0565247 -0.0757612 -0.0971483 -0.12034 -0.144954 -0.170583 -0.196788 -0.223142 -0.249207 -0.274538 -0.298711 -0.321322 -0.342006 -0.360434 -0.376309 -0.389382 -0.399464 -0.406583 -0.410064 -0.410695 -0.407933 -0.401914 -0.392938 -0.381079 -0.366538 -0.349557 -0.33041 -0.309398 -0.286839 -0.263077 -0.238467 -0.213384 -0.188179 -0.163222 -0.138888 -0.115538 -0.0935231 -0.0731758 -0.054805 -0.0387005 -0.0251234 -0.0142983 -0.00641054 -0.00161374 -1.75592e-26 0 -0.00170621 -0.00681578 -0.0152703 -0.0269568 -0.0417068 -0.0592992 -0.079461 -0.101872 -0.126171 -0.15196 -0.178813 -0.206273 -0.233894 -0.261226 -0.287807 -0.313194 -0.336962 -0.35873 -0.378149 -0.394908 -0.408747 -0.419465 -0.427074 -0.430918 -0.431677 -0.428977 -0.422777 -0.413474 -0.401123 -0.385933 -0.368156 -0.348076 -0.326007 -0.302289 -0.277284 -0.251367 -0.224936 -0.198367 -0.17205 -0.146386 -0.121759 -0.098541 -0.0770846 -0.0577178 -0.0407458 -0.0264429 -0.0150442 -0.0067425 -0.00169672 -1.84606e-26 0 -0.00176193 -0.00703721 -0.0157638 -0.0278236 -0.0430412 -0.0611874 -0.0819806 -0.105091 -0.130145 -0.156736 -0.184425 -0.212744 -0.24123 -0.269425 -0.296854 -0.323061 -0.347614 -0.370115 -0.3902 -0.40755 -0.421899 -0.433033 -0.440958 -0.445024 -0.445854 -0.443241 -0.436947 -0.427452 -0.414796 -0.399191 -0.380891 -0.36019 -0.337411 -0.312908 -0.287056 -0.260244 -0.232887 -0.205379 -0.178124 -0.151542 -0.126033 -0.101985 -0.0797635 -0.0597112 -0.042143 -0.0273425 -0.0155516 -0.0069678 -0.00175292 -1.90704e-26 0 -0.00178926 -0.00714287 -0.015993 -0.0282159 -0.0436307 -0.0620026 -0.0830459 -0.106427 -0.131772 -0.158669 -0.186681 -0.215336 -0.244171 -0.272727 -0.300526 -0.327113 -0.352055 -0.374947 -0.395425 -0.413163 -0.427888 -0.439374 -0.447606 -0.452018 -0.453004 -0.450562 -0.444304 -0.434799 -0.42206 -0.406302 -0.387779 -0.366789 -0.343662 -0.318757 -0.292456 -0.265161 -0.237296 -0.209267 -0.181488 -0.15439 -0.128386 -0.103871 -0.0812209 -0.0607875 -0.0428911 -0.0278193 -0.0158175 -0.00708443 -0.00178164 -1.9379e-26 0 -0.00178925 -0.00714278 -0.0159926 -0.0282148 -0.0436282 -0.0619978 -0.0830374 -0.106414 -0.131753 -0.158644 -0.18665 -0.2153 -0.244132 -0.272685 -0.300483 -0.32707 -0.352014 -0.374911 -0.395395 -0.41314 -0.427872 -0.439364 -0.447602 -0.452017 -0.453004 -0.450565 -0.444314 -0.434819 -0.422091 -0.406344 -0.387832 -0.366851 -0.343731 -0.318829 -0.292529 -0.265231 -0.237361 -0.209323 -0.181535 -0.154429 -0.128416 -0.103892 -0.0812344 -0.0607954 -0.0428954 -0.0278212 -0.015818 -0.00708454 -0.00178165 -1.93815e-26 0 -0.00176049 -0.00702581 -0.0157262 -0.0277372 -0.0428789 -0.0609191 -0.0815761 -0.104523 -0.129394 -0.155787 -0.183275 -0.2114 -0.23971 -0.267759 -0.295078 -0.321223 -0.345772 -0.368329 -0.388533 -0.406066 -0.420653 -0.432072 -0.440289 -0.444803 -0.44587 -0.443686 -0.437683 -0.428483 -0.416081 -0.400681 -0.382534 -0.361927 -0.339187 -0.314667 -0.288746 -0.261823 -0.234319 -0.206641 -0.179201 -0.152429 -0.126736 -0.102515 -0.0801405 -0.0599613 -0.042295 -0.0274232 -0.0155863 -0.0069783 -0.00175426 -1.90777e-26 0 -0.00170422 -0.00679999 -0.0152181 -0.0268367 -0.0414807 -0.0589245 -0.0788955 -0.101078 -0.125118 -0.150629 -0.177199 -0.204389 -0.231761 -0.258885 -0.285312 -0.310614 -0.334382 -0.356234 -0.375822 -0.392837 -0.407011 -0.418128 -0.426146 -0.430608 -0.4317 -0.429618 -0.423844 -0.41497 -0.402992 -0.388108 -0.370557 -0.35062 -0.32861 -0.304869 -0.279766 -0.253687 -0.22704