<?xml version="1.0"?>
<VTKFile type="PolyData">
	<PolyData>
		<Piece NumberOfPoints="2601" NumberOfPolys="2500">
			<Points>
				<DataArray type="Float32" NumberOfComponents="3" format="ascii">
 0 0 0 0.02 0 0 0.04 0 0 0.06 0 0 0.08 0 0 0.1 0 0 0.12 0 0 0.14 0 0 0.16 0 0 0.18 0 0 0.2 0 0 0.22 0 0 0.24 0 0 0.26 0 0 0.28 0 0 0.3 0 0 0.32 0 0 0.34 0 0 0.36 0 0 0.38 0 0 0.4 0 0 0.42 0 0 0.44 0 0 0.46 0 0 0.48 0 0 0.5 0 0 0.52 0 0 0.54 0 0 0.56 0 0 0.58 0 0 0.6 0 0 0.62 0 0 0.64 0 0 0.66 0 0 0.68 0 0 0.7 0 0 0.72 0 0 0.74 0 0 0.76 0 0 0.78 0 0 0.8 0 0 0.82 0 0 0.84 0 0 0.86 0 0 0.88 0 0 0.9 0 0 0.92 0 0 0.94 0 0 0.96 0 0 0.98 0 0 1 0 0 0 0.02 0 0.02 0.02 0 0.04 0.02 0 0.06 0.02 0 0.08 0.02 0 0.1 0.02 0 0.12 0.02 0 0.14 0.02 0 0.16 0.02 0 0.18 0.02 0 0.2 0.02 0 0.22 0.02 0 0.24 0.02 0 0.26 0.02 0 0.28 0.02 0 0.3 0.02 0 0.32 0.02 0 0.34 0.02 0 0.36 0.02 0 0.38 0.02 0 0.4 0.02 0 0.42 0.02 0 0.44 0.02 0 0.46 0.02 0 0.48 0.02 0 0.5 0.02 0 0.52 0.02 0 0.54 0.02 0 0.56 0.02 0 0.58 0.02 0 0.6 0.02 0 0.62 0.02 0 0.64 0.02 0 0.66 0.02 0 0.68 0.02 0 0.7 0.02 0 0.72 0.02 0 0.74 0.02 0 0.76 0.02 0 0.78 0.02 0 0.8 0.02 0 0.82 0.02 0 0.84 0.02 0 0.86 0.02 0 0.88 0.02 0 0.9 0.02 0 0.92 0.02 0 0.94 0.02 0 0.96 0.02 0 0.98 0.02 0 1 0.02 0 0 0.04 0 0.02 0.04 0 0.04 0.04 0 0.06 0.04 0 0.08 0.04 0 0.1 0.04 0 0.12 0.04 0 0.14 0.04 0 0.16 0.04 0 0.18 0.04 0 0.2 0.04 0 0.22 0.04 0 0.24 0.04 0 0.26 0.04 0 0.28 0.04 0 0.3 0.04 0 0.32 0.04 0 0.34 0.04 0 0.36 0.04 0 0.38 0.04 0 0.4 0.04 0 0.42 0.04 0 0.44 0.04 0 0.46 0.04 0 0.48 0.04 0 0.5 0.04 0 0.52 0.04 0 0.54 0.04 0 0.56 0.04 0 0.58 0.04 0 0.6 0.04 0 0.62 0.04 0 0.64 0.04 0 0.66 0.04 0 0.68 0.04 0 0.7 0.04 0 0.72 0.04 0 0.74 0.04 0 0.76 0.04 0 0.78 0.04 0 0.8 0.04 0 0.82 0.04 0 0.84 0.04 0 0.86 0.04 0 0.88 0.04 0 0.9 0.04 0 0.92 0.04 0 0.94 0.04 0 0.96 0.04 0 0.98 0.04 0 1 0.04 0 0 0.06 0 0.02 0.06 0 0.04 0.06 0 0.06 0.06 0 0.08 0.06 0 0.1 0.06 0 0.12 0.06 0 0.14 0.06 0 0.16 0.06 0 0.18 0.06 0 0.2 0.06 0 0.22 0.06 0 0.24 0.06 0 0.26 0.06 0 0.28 0.06 0 0.3 0.06 0 0.32 0.06 0 0.34 0.06 0 0.36 0.06 0 0.38 0.06 0 0.4 0.06 0 0.42 0.06 0 0.44 0.06 0 0.46 0.06 0 0.48 0.06 0 0.5 0.06 0 0.52 0.06 0 0.54 0.06 0 0.56 0.06 0 0.58 0.06 0 0.6 0.06 0 0.62 0.06 0 0.64 0.06 0 0.66 0.06 0 0.68 0.06 0 0.7 0.06 0 0.72 0.06 0 0.74 0.06 0 0.76 0.06 0 0.78 0.06 0 0.8 0.06 0 0.82 0.06 0 0.84 0.06 0 0.86 0.06 0 0.88 0.06 0 0.9 0.06 0 0.92 0.06 0 0.94 0.06 0 0.96 0.06 0 0.98 0.06 0 1 0.06 0 0 0.08 0 0.02 0.08 0 0.04 0.08 0 0.06 0.08 0 0.08 0.08 0 0.1 0.08 0 0.12 0.08 0 0.14 0.08 0 0.16 0.08 0 0.18 0.08 0 0.2 0.08 0 0.22 0.08 0 0.24 0.08 0 0.26 0.08 0 0.28 0.08 0 0.3 0.08 0 0.32 0.08 0 0.34 0.08 0 0.36 0.08 0 0.38 0.08 0 0.4 0.08 0 0.42 0.08 0 0.44 0.08 0 0.46 0.08 0 0.48 0.08 0 0.5 0.08 0 0.52 0.08 0 0.54 0.08 0 0.56 0.08 0 0.58 0.08 0 0.6 0.08 0 0.62 0.08 0 0.64 0.08 0 0.66 0.08 0 0.68 0.08 0 0.7 0.08 0 0.72 0.08 0 0.74 0.08 0 0.76 0.08 0 0.78 0.08 0 0.8 0.08 0 0.82 0.08 0 0.84 0.08 0 0.86 0.08 0 0.88 0.08 0 0.9 0.08 0 0.92 0.08 0 0.94 0.08 0 0.96 0.08 0 0.98 0.08 0 1 0.08 0 0 0.1 0 0.02 0.1 0 0.04 0.1 0 0.06 0.1 0 0.08 0.1 0 0.1 0.1 0 0.12 0.1 0 0.14 0.1 0 0.16 0.1 0 0.18 0.1 0 0.2 0.1 0 0.22 0.1 0 0.24 0.1 0 0.26 0.1 0 0.28 0.1 0 0.3 0.1 0 0.32 0.1 0 0.34 0.1 0 0.36 0.1 0 0.38 0.1 0 0.4 0.1 0 0.42 0.1 0 0.44 0.1 0 0.46 0.1 0 0.48 0.1 0 0.5 0.1 0 0.52 0.1 0 0.54 0.1 0 0.56 0.1 0 0.58 0.1 0 0.6 0.1 0 0.62 0.1 0 0.64 0.1 0 0.66 0.1 0 0.68 0.1 0 0.7 0.1 0 0.72 0.1 0 0.74 0.1 0 0.76 0.1 0 0.78 0.1 0 0.8 0.1 0 0.82 0.1 0 0.84 0.1 0 0.86 0.1 0 0.88 0.1 0 0.9 0.1 0 0.92 0.1 0 0.94 0.1 0 0.96 0.1 0 0.98 0.1 0 1 0.1 0 0 0.12 0 0.02 0.12 0 0.04 0.12 0 0.06 0.12 0 0.08 0.12 0 0.1 0.12 0 0.12 0.12 0 0.14 0.12 0 0.16 0.12 0 0.18 0.12 0 0.2 0.12 0 0.22 0.12 0 0.24 0.12 0 0.26 0.12 0 0.28 0.12 0 0.3 0.12 0 0.32 0.12 0 0.34 0.12 0 0.36 0.12 0 0.38 0.12 0 0.4 0.12 0 0.42 0.12 0 0.44 0.12 0 0.46 0.12 0 0.48 0.12 0 0.5 0.12 0 0.52 0.12 0 0.54 0.12 0 0.56 0.12 0 0.58 0.12 0 0.6 0.12 0 0.62 0.12 0 0.64 0.12 0 0.66 0.12 0 0.68 0.12 0 0.7 0.12 0 0.72 0.12 0 0.74 0.12 0 0.76 0.12 0 0.78 0.12 0 0.8 0.12 0 0.82 0.12 0 0.84 0.12 0 0.86 0.12 0 0.88 0.12 0 0.9 0.12 0 0.92 0.12 0 0.94 0.12 0 0.96 0.12 0 0.98 0.12 0 1 0.12 0 0 0.14 0 0.02 0.14 0 0.04 0.14 0 0.06 0.14 0 0.08 0.14 0 0.1 0.14 0 0.12 0.14 0 0.14 0.14 0 0.16 0.14 0 0.18 0.14 0 0.2 0.14 0 0.22 0.14 0 0.24 0.14 0 0.26 0.14 0 0.28 0.14 0 0.3 0.14 0 0.32 0.14 0 0.34 0.14 0 0.36 0.14 0 0.38 0.14 0 0.4 0.14 0 0.42 0.14 0 0.44 0.14 0 0.46 0.14 0 0.48 0.14 0 0.5 0.14 0 0.52 0.14 0 0.54 0.14 0 0.56 0.14 0 0.58 0.14 0 0.6 0.14 0 0.62 0.14 0 0.64 0.14 0 0.66 0.14 0 0.68 0.14 0 0.7 0.14 0 0.72 0.14 0 0.74 0.14 0 0.76 0.14 0 0.78 0.14 0 0.8 0.14 0 0.82 0.14 0 0.84 0.14 0 0.86 0.14 0 0.88 0.14 0 0.9 0.14 0 0.92 0.14 0 0.94 0.14 0 0.96 0.14 0 0.98 0.14 0 1 0.14 0 0 0.16 0 0.02 0.16 0 0.04 0.16 0 0.06 0.16 0 0.08 0.16 0 0.1 0.16 0 0.12 0.16 0 0.14 0.16 0 0.16 0.16 0 0.18 0.16 0 0.2 0.16 0 0.22 0.16 0 0.24 0.16 0 0.26 0.16 0 0.28 0.16 0 0.3 0.16 0 0.32 0.16 0 0.34 0.16 0 0.36 0.16 0 0.38 0.16 0 0.4 0.16 0 0.42 0.16 0 0.44 0.16 0 0.46 0.16 0 0.48 0.16 0 0.5 0.16 0 0.52 0.16 0 0.54 0.16 0 0.56 0.16 0 0.58 0.16 0 0.6 0.16 0 0.62 0.16 0 0.64 0.16 0 0.66 0.16 0 0.68 0.16 0 0.7 0.16 0 0.72 0.16 0 0.74 0.16 0 0.76 0.16 0 0.78 0.16 0 0.8 0.16 0 0.82 0.16 0 0.84 0.16 0 0.86 0.16 0 0.88 0.16 0 0.9 0.16 0 0.92 0.16 0 0.94 0.16 0 0.96 0.16 0 0.98 0.16 0 1 0.16 0 0 0.18 0 0.02 0.18 0 0.04 0.18 0 0.06 0.18 0 0.08 0.18 0 0.1 0.18 0 0.12 0.18 0 0.14 0.18 0 0.16 0.18 0 0.18 0.18 0 0.2 0.18 0 0.22 0.18 0 0.24 0.18 0 0.26 0.18 0 0.28 0.18 0 0.3 0.18 0 0.32 0.18 0 0.34 0.18 0 0.36 0.18 0 0.38 0.18 0 0.4 0.18 0 0.42 0.18 0 0.44 0.18 0 0.46 0.18 0 0.48 0.18 0 0.5 0.18 0 0.52 0.18 0 0.54 0.18 0 0.56 0.18 0 0.58 0.18 0 0.6 0.18 0 0.62 0.18 0 0.64 0.18 0 0.66 0.18 0 0.68 0.18 0 0.7 0.18 0 0.72 0.18 0 0.74 0.18 0 0.76 0.18 0 0.78 0.18 0 0.8 0.18 0 0.82 0.18 0 0.84 0.18 0 0.86 0.18 0 0.88 0.18 0 0.9 0.18 0 0.92 0.18 0 0.94 0.18 0 0.96 0.18 0 0.98 0.18 0 1 0.18 0 0 0.2 0 0.02 0.2 0 0.04 0.2 0 0.06 0.2 0 0.08 0.2 0 0.1 0.2 0 0.12 0.2 0 0.14 0.2 0 0.16 0.2 0 0.18 0.2 0 0.2 0.2 0 0.22 0.2 0 0.24 0.2 0 0.26 0.2 0 0.28 0.2 0 0.3 0.2 0 0.32 0.2 0 0.34 0.2 0 0.36 0.2 0 0.38 0.2 0 0.4 0.2 0 0.42 0.2 0 0.44 0.2 0 0.46 0.2 0 0.48 0.2 0 0.5 0.2 0 0.52 0.2 0 0.54 0.2 0 0.56 0.2 0 0.58 0.2 0 0.6 0.2 0 0.62 0.2 0 0.64 0.2 0 0.66 0.2 0 0.68 0.2 0 0.7 0.2 0 0.72 0.2 0 0.74 0.2 0 0.76 0.2 0 0.78 0.2 0 0.8 0.2 0 0.82 0.2 0 0.84 0.2 0 0.86 0.2 0 0.88 0.2 0 0.9 0.2 0 0.92 0.2 0 0.94 0.2 0 0.96 0.2 0 0.98 0.2 0 1 0.2 0 0 0.22 0 0.02 0.22 0 0.04 0.22 0 0.06 0.22 0 0.08 0.22 0 0.1 0.22 0 0.12 0.22 0 0.14 0.22 0 0.16 0.22 0 0.18 0.22 0 0.2 0.22 0 0.22 0.22 0 0.24 0.22 0 0.26 0.22 0 0.28 0.22 0 0.3 0.22 0 0.32 0.22 0 0.34 0.22 0 0.36 0.22 0 0.38 0.22 0 0.4 0.22 0 0.42 0.22 0 0.44 0.22 0 0.46 0.22 0 0.48 0.22 0 0.5 0.22 0 0.52 0.22 0 0.54 0.22 0 0.56 0.22 0 0.58 0.22 0 0.6 0.22 0 0.62 0.22 0 0.64 0.22 0 0.66 0.22 0 0.68 0.22 0 0.7 0.22 0 0.72 0.22 0 0.74 0.22 0 0.76 0.22 0 0.78 0.22 0 0.8 0.22 0 0.82 0.22 0 0.84 0.22 0 0.86 0.22 0 0.88 0.22 0 0.9 0.22 0 0.92 0.22 0 0.94 0.22 0 0.96 0.22 0 0.98 0.22 0 1 0.22 0 0 0.24 0 0.02 0.24 0 0.04 0.24 0 0.06 0.24 0 0.08 0.24 0 0.1 0.24 0 0.12 0.24 0 0.14 0.24 0 0.16 0.24 0 0.18 0.24 0 0.2 0.24 0 0.22 0.24 0 0.24 0.24 0 0.26 0.24 0 0.28 0.24 0 0.3 0.24 0 0.32 0.24 0 0.34 0.24 0 0.36 0.24 0 0.38 0.24 0 0.4 0.24 0 0.42 0.24 0 0.44 0.24 0 0.46 0.24 0 0.48 0.24 0 0.5 0.24 0 0.52 0.24 0 0.54 0.24 0 0.56 0.24 0 0.58 0.24 0 0.6 0.24 0 0.62 0.24 0 0.64 0.24 0 0.66 0.24 0 0.68 0.24 0 0.7 0.24 0 0.72 0.24 0 0.74 0.24 0 0.76 0.24 0 0.78 0.24 0 0.8 0.24 0 0.82 0.24 0 0.84 0.24 0 0.86 0.24 0 0.88 0.24 0 0.9 0.24 0 0.92 0.24 0 0.94 0.24 0 0.96 0.24 0 0.98 0.24 0 1 0.24 0 0 0.26 0 0.02 0.26 0 0.04 0.26 0 0.06 0.26 0 0.08 0.26 0 0.1 0.26 0 0.12 0.26 0 0.14 0.26 0 0.16 0.26 0 0.18 0.26 0 0.2 0.26 0 0.22 0.26 0 0.24 0.26 0 0.26 0.26 0 0.28 0.26 0 0.3 0.26 0 0.32 0.26 0 0.34 0.26 0 0.36 0.26 0 0.38 0.26 0 0.4 0.26 0 0.42 0.26 0 0.44 0.26 0 0.46 0.26 0 0.48 0.26 0 0.5 0.26 0 0.52 0.26 0 0.54 0.26 0 0.56 0.26 0 0.58 0.26 0 0.6 0.26 0 0.62 0.26 0 0.64 0.26 0 0.66 0.26 0 0.68 0.26 0 0.7 0.26 0 0.72 0.26 0 0.74 0.26 0 0.76 0.26 0 0.78 0.26 0 0.8 0.26 0 0.82 0.26 0 0.84 0.26 0 0.86 0.26 0 0.88 0.26 0 0.9 0.26 0 0.92 0.26 0 0.94 0.26 0 0.96 0.26 0 0.98 0.26 0 1 0.26 0 0 0.28 0 0.02 0.28 0 0.04 0.28 0 0.06 0.28 0 0.08 0.28 0 0.1 0.28 0 0.12 0.28 0 0.14 0.28 0 0.16 0.28 0 0.18 0.28 0 0.2 0.28 0 0.22 0.28 0 0.24 0.28 0 0.26 0.28 0 0.28 0.28 0 0.3 0.28 0 0.32 0.28 0 0.34 0.28 0 0.36 0.28 0 0.38 0.28 0 0.4 0.28 0 0.42 0.28 0 0.44 0.28 0 0.46 0.28 0 0.48 0.28 0 0.5 0.28 0 0.52 0.28 0 0.54 0.28 0 0.56 0.28 0 0.58 0.28 0 0.6 0.28 0 0.62 0.28 0 0.64 0.28 0 0.66 0.28 0 0.68 0.28 0 0.7 0.28 0 0.72 0.28 0 0.74 0.28 0 0.76 0.28 0 0.78 0.28 0 0.8 0.28 0 0.82 0.28 0 0.84 0.28 0 0.86 0.28 0 0.88 0.28 0 0.9 0.28 0 0.92 0.28 0 0.94 0.28 0 0.96 0.28 0 0.98 0.28 0 1 0.28 0 0 0.3 0 0.02 0.3 0 0.04 0.3 0 0.06 0.3 0 0.08 0.3 0 0.1 0.3 0 0.12 0.3 0 0.14 0.3 0 0.16 0.3 0 0.18 0.3 0 0.2 0.3 0 0.22 0.3 0 0.24 0.3 0 0.26 0.3 0 0.28 0.3 0 0.3 0.3 0 0.32 0.3 0 0.34 0.3 0 0.36 0.3 0 0.38 0.3 0 0.4 0.3 0 0.42 0.3 0 0.44 0.3 0 0.46 0.3 0 0.48 0.3 0 0.5 0.3 0 0.52 0.3 0 0.54 0.3 0 0.56 0.3 0 0.58 0.3 0 0.6 0.3 0 0.62 0.3 0 0.64 0.3 0 0.66 0.3 0 0.68 0.3 0 0.7 0.3 0 0.72 0.3 0 0.74 0.3 0 0.76 0.3 0 0.78 0.3 0 0.8 0.3 0 0.82 0.3 0 0.84 0.3 0 0.86 0.3 0 0.88 0.3 0 0.9 0.3 0 0.92 0.3 0 0.94 0.3 0 0.96 0.3 0 0.98 0.3 0 1 0.3 0 0 0.32 0 0.02 0.32 0 0.04 0.32 0 0.06 0.32 0 0.08 0.32 0 0.1 0.32 0 0.12 0.32 0 0.14 0.32 0 0.16 0.32 0 0.18 0.32 0 0.2 0.32 0 0.22 0.32 0 0.24 0.32 0 0.26 0.32 0 0.28 0.32 0 0.3 0.32 0 0.32 0.32 0 0.34 0.32 0 0.36 0.32 0 0.38 0.32 0 0.4 0.32 0 0.42 0.32 0 0.44 0.32 0 0.46 0.32 0 0.48 0.32 0 0.5 0.32 0 0.52 0.32 0 0.54 0.32 0 0.56 0.32 0 0.58 0.32 0 0.6 0.32 0 0.62 0.32 0 0.64 0.32 0 0.66 0.32 0 0.68 0.32 0 0.7 0.32 0 0.72 0.32 0 0.74 0.32 0 0.76 0.32 0 0.78 0.32 0 0.8 0.32 0 0.82 0.32 0 0.84 0.32 0 0.86 0.32 0 0.88 0.32 0 0.9 0.32 0 0.92 0.32 0 0.94 0.
[...]
			<PointData Scalars="VitesseX">
				<DataArray Name="VitesseX" type="Float32" format="ascii">
 0 0 0 0 0 0 0 0 0 0 0 0 0 0 0 0 0 0 0 0 0 0 0 0 0 0 0 0 0 0 0 0 0 0 0 0 0 0 0 0 0 0 0 0 0 0 0 0 0 0 0 0 0.000203317 0.000809996 0.00181055 0.00318905 0.00492374 0.00698725 0.009347 0.0119658 0.0148024 0.017812 0.0209473 0.0241588 0.0273958 0.0306075 0.0337434 0.036754 0.0395919 0.0422123 0.0445739 0.0466395 0.0483766 0.0497576 0.0507609 0.0513729 0.0515763 0.0513747 0.0507711 0.0497691 0.0483912 0.0466567 0.044593 0.0422326 0.0396127 0.0367748 0.0337635 0.0306263 0.0274128 0.0241739 0.0209603 0.0178228 0.0148109 0.0119723 0.00935171 0.00699043 0.00492573 0.00319016 0.00181108 0.000810229 0.000203349 2.20617e-27 0 0.000403334 0.0016066 0.00359096 0.0063244 0.00976362 0.0138542 0.0185315 0.0237219 0.0293436 0.0353082 0.041522 0.0478873 0.0543034 0.0606701 0.0668882 0.0728596 0.0784902 0.0836915 0.0883816 0.0924867 0.0959419 0.0986925 0.100695 0.101927 0.102338 0.101955 0.100776 0.0987971 0.0960749 0.0926431 0.0885557 0.083877 0.0786809 0.0730493 0.0670715 0.0608419 0.0544591 0.0480248 0.0416401 0.0354057 0.0294209 0.0237804 0.0185735 0.0138823 0.00978083 0.00633376 0.00359524 0.00160818 0.000403545 4.37738e-27 0 0.000596912 0.00237735 0.00531345 0.00935724 0.0144445 0.0204945 0.0274117 0.0350871 0.0433999 0.0522196 0.0614079 0.0708207 0.0803092 0.0897257 0.0989246 0.10776 0.116095 0.123796 0.130744 0.136829 0.141955 0.14604 0.14902 0.150868 0.151485 0.150938 0.149212 0.146292 0.142275 0.137206 0.131163 0.124243 0.116554 0.108217 0.0993654 0.0901389 0.080684 0.0711519 0.0616921 0.0524541 0.0435857 0.0352278 0.0275125 0.0205619 0.0144858 0.00937965 0.00532364 0.00238105 0.000597405 6.47935e-27 0 0.000781002 0.00311012 0.00695088 0.0122398 0.0188926 0.0268035 0.0358475 0.045882 0.0567494 0.0682793 0.0802913 0.0925975 0.105003 0.117316 0.129347 0.140906 0.151812 0.161895 0.170995 0.178969 0.185691 0.191055 0.194974 0.197422 0.198242 0.197552 0.195317 0.191509 0.186269 0.179648 0.171751 0.162701 0.152641 0.141731 0.130143 0.118062 0.10568 0.0931952 0.080804 0.0687022 0.0570846 0.0461357 0.0360292 0.0269251 0.018967 0.0122801 0.00696917 0.0031167 0.000781879 8.47899e-27 0 0.000952707 0.00379338 0.00847747 0.0149266 0.0230378 0.0326817 0.0437059 0.0559365 0.0691817 0.0832343 0.0978747 0.112874 0.127996 0.143007 0.157677 0.171775 0.185081 0.197387 0.208499 0.218242 0.226461 0.233026 0.237832 0.240855 0.24187 0.241061 0.238364 0.233734 0.227362 0.219301 0.209679 0.198645 0.186375 0.173063 0.15892 0.144171 0.129052 0.113807 0.0986746 0.0838942 0.0697048 0.0563324 0.0439893 0.0328713 0.0231537 0.0149894 0.00850588 0.00380353 0.000954057 1.03448e-26 0 0.00110933 0.00441639 0.00986918 0.0173754 0.0268148 0.0380365 0.050863 0.0650922 0.0805011 0.096849 0.113881 0.131331 0.148925 0.166392 0.183467 0.199881 0.215377 0.229712 0.242664 0.254026 0.26362 0.271291 0.276917 0.280479 0.281682 0.280779 0.277671 0.272302 0.264905 0.255538 0.244347 0.231507 0.217222 0.201718 0.185241 0.168055 0.150433 0.132664 0.115023 0.0977905 0.0812474 0.065657 0.0512674 0.0383068 0.02698 0.0174648 0.00990952 0.0044307 0.00111123 1.20474e-26 0 0.0012484 0.00496936 0.0111041 0.0195476 0.0301641 0.0427836 0.0572062 0.073205 0.0905293 0.108908 0.128057 0.147678 0.16746 0.187104 0.206311 0.224779 0.242219 0.25836 0.27295 0.285758 0.296581 0.305246 0.311613 0.315668 0.31705 0.316077 0.312619 0.306603 0.298306 0.287787 0.275209 0.260769 0.244696 0.227243 0.208691 0.189335 0.169485 0.149466 0.129589 0.110172 0.0915303 0.0739626 0.0577487 0.0431461 0.0303855 0.0196673 0.011158 0.00498833 0.00125091 1.35601e-26 0 0.00136773 0.00544363 0.0121628 0.021409 0.0330329 0.0468482 0.0626355 0.080147 0.0991079 0.119223 0.14018 0.161656 0.183311 0.204816 0.225849 0.246077 0.265187 0.28288 0.29888 0.312937 0.324826 0.334356 0.341373 0.345867 0.347417 0.346398 0.342655 0.336096 0.327039 0.31554 0.301778 0.28597 0.268364 0.249239 0.228902 0.207678 0.185909 0.16395 0.142146 0.120844 0.100392 0.0811183 0.0633309 0.0473127 0.0333166 0.0215621 0.0122315 0.00546761 0.00137091 1.48591e-26 0 0.00146546 0.00583174 0.0130287 0.0229304 0.0353762 0.0501662 0.0670658 0.0858088 0.106102 0.12763 0.15006 0.173047 0.196226 0.21925 0.241773 0.263439 0.283917 0.302886 0.320048 0.335136 0.347909 0.358162 0.365726 0.370597 0.372305 0.371262 0.367307 0.360316 0.35065 0.338362 0.323639 0.306716 0.287857 0.26736 0.245556 0.222796 0.199446 0.175888 0.152494 0.129638 0.107693 0.0870115 0.0679262 0.0507409 0.0357269 0.0231194 0.0131133 0.005861 0.00146932 1.5924e-26 0 0.00154005 0.0061276 0.0136881 0.0240877 0.037157 0.0526857 0.0704271 0.0901015 0.111401 0.133997 0.15754 0.181669 0.206003 0.230177 0.253833 0.276596 0.298117 0.318063 0.33612 0.352006 0.365467 0.376287 0.384288 0.389466 0.39132 0.390275 0.386184 0.378881 0.368768 0.35589 0.340445 0.322675 0.302861 0.281317 0.258389 0.234448 0.209881 0.185092 0.160471 0.136414 0.113316 0.0915494 0.0714624 0.0533769 0.0375785 0.0243145 0.0137894 0.00616229 0.00154461 1.6738e-26 0 0.00159047 0.00632769 0.0141342 0.0248709 0.0383626 0.0543915 0.072703 0.0930081 0.11499 0.138309 0.162606 0.187509 0.212624 0.237578 0.262002 0.285508 0.307735 0.32834 0.347001 0.363426 0.377351 0.38855 0.396842 0.402223 0.404166 0.403138 0.398988 0.391498 0.381105 0.367847 0.351928 0.333596 0.313141 0.29089 0.267198 0.242451 0.21705 0.191416 0.165952 0.141066 0.117174 0.0946595 0.0738835 0.055179 0.0388423 0.0251287 0.014249 0.00636672 0.00159559 1.72884e-26 0 0.00161536 0.00642448 0.0143457 0.0252353 0.0389135 0.0551584 0.0737113 0.0942793 0.116543 0.14016 0.164769 0.189993 0.215442 0.240738 0.265503 0.289356 0.311932 0.332879 0.351876 0.368623 0.382857 0.394343 0.40289 0.408483 0.410635 0.409673 0.405596 0.398079 0.387607 0.37421 0.358093 0.339505 0.318739 0.29613 0.272039 0.246861 0.221006 0.194904 0.168972 0.143625 0.119286 0.096352 0.0751935 0.0561479 0.0395161 0.0255587 0.0144892 0.00647233 0.0016216 1.75666e-26 0 0.00161535 0.00642439 0.0143452 0.0252338 0.0389103 0.0551525 0.0737013 0.0942642 0.116522 0.140132 0.164733 0.189948 0.215393 0.240686 0.26545 0.289304 0.311879 0.332831 0.351836 0.368592 0.382834 0.394328 0.402883 0.40848 0.410635 0.409673 0.4056 0.398086 0.387619 0.374227 0.358115 0.33953 0.318769 0.296164 0.272075 0.246896 0.221037 0.194932 0.168994 0.143643 0.119301 0.096362 0.0751977 0.0561505 0.0395182 0.0255596 0.0144895 0.00647241 0.00162161 1.75681e-26 0 0.00158937 0.00631902 0.0141053 0.0248045 0.0382379 0.0541858 0.0723933 0.0925737 0.114415 0.137581 0.161719 0.186468 0.211447 0.236282 0.260614 0.284063 0.306275 0.326912 0.345653 0.362203 0.376298 0.387709 0.396243 0.401864 0.404155 0.403329 0.399543 0.392296 0.382137 0.369073 0.353301 0.335065 0.314659 0.292403 0.268663 0.24383 0.218307 0.192523 0.166898 0.141846 0.117791 0.0951252 0.0742149 0.0553997 0.0389765 0.0252 0.0142799 0.00637608 0.00159677 1.72931e-26 0 0.00153845 0.00611502 0.0136461 0.0239908 0.036975 0.0523849 0.0699737 0.089465 0.110557 0.132928 0.156237 0.180144 0.204275 0.228273 0.251797 0.274479 0.295982 0.315976 0.334151 0.350223 0.363935 0.375063 0.383418 0.388949 0.391305 0.390544 0.386952 0.379988 0.370203 0.357597 0.34236 0.324729 0.304981 0.283431 0.260437 0.236375 0.211639 0.186644 0.161797 0.137506 0.11418 0.0922001 0.0719267 0.053684 0.0377645 0.0244136 0.0138323 0.00617525 0.00154624 1.67457e-26 0 0.00146325 0.00581432 0.0129707 0.0227965 0.0351244 0.0497502 0.0664391 0.0849292 0.104935 0.126152 0.148262 0.17094 0.193838 0.216619 0.238958 0.260515 0.280967 0.300004 0.31733 0.332675 0.345796 0.356474 0.364527 0.369888 0.372285 0.371639 0.368364 0.361839 0.352623 0.340707 0.32627 0.309536 0.290767 0.270267 0.24837 0.225436 0.201851 0.178018 0.154316 0.131134 0.108876 0.087905 0.0685629 0.0511633 0.0359826 0.0232552 0.0131722 0.00587878 0.00147156 1.59347e-26 0 0.00136494 0.00542165 0.0120897 0.0212403 0.0327152 0.0463233 0.0618453 0.0790378 0.0976364 0.117359 0.137917 0.159002 0.180299 0.2015 0.222299 0.24239 0.26147 0.279249 0.295456 0.309839 0.322168 0.332235 0.339869 0.344985 0.347396 0.346885 0.343987 0.338014 0.329521 0.31849 0.305086 0.289514 0.272022 0.252891 0.232437 0.210996 0.188928 0.166617 0.144431 0.122723 0.101876 0.0822392 0.064131 0.0478444 0.033637 0.0217321 0.0123054 0.00548992 0.00137372 1.48728e-26 0 0.00124507 0.00494315 0.011017 0.0193466 0.0297855 0.042158 0.0562644 0.0718835 0.0887762 0.106687 0.125359 0.144516 0.163873 0.183153 0.202084 0.220389 0.237798 0.254042 0.268876 0.282076 0.293424 0.30273 0.309833 0.314634 0.317029 0.316677 0.314207 0.30889 0.301261 0.291297 0.279141 0.264981 0.249042 0.231581 0.212888 0.193276 0.173074 0.15263 0.132296 0.112403 0.0932941 0.0752943 0.0586981 0.0437756 0.0307653 0.019869 0.0112456 0.0050148 0.00125425 1.35765e-26 0 0.00110551 0.00438635 0.0097695 0.0171452 0.0263812 0.0373201 0.0497844 0.0635791 0.0784941 0.0943064 0.110791 0.127712 0.144819 0.161869 0.178633 0.194861 0.210319 0.224775 0.238009 0.249822 0.260017 0.268424 0.274894 0.279317 0.281663 0.281493 0.279495 0.274929 0.268293 0.259556 0.248846 0.236324 0.222189 0.206673 0.190034 0.172554 0.154532 0.136279 0.118112 0.100336 0.0832595 0.0671762 0.052351 0.039026 0.0274149 0.0176955 0.0100096 0.00446092 0.00111504 1.20664e-26 0 0.000948466 0.00375998 0.00836673 0.0146709 0.022556 0.0318856 0.0425074 0.0542553 0.0669522 0.0804109 0.0944435 0.108853 0.123436 0.137986 0.152312 0.166206 0.179468 0.19191 0.203342 0.213586 0.222476 0.22986 0.235605 0.239597 0.241849 0.241892 0.240397 0.236666 0.231134 0.22377 0.214677 0.203994 0.191889 0.178561 0.164236 0.14916 0.133595 0.117816 0.102099 0.0867143 0.0719343 0.0580148 0.0451898 0.0336687 0.0236361 0.0152451 0.00861675 0.00383702 0.000958282 1.03661e-26 0 0.000776402 0.00307388 0.00683082 0.0119626 0.0183702 0.0259404 0.0345481 0.0440593 0.0543325 0.06522 0.0765734 0.0882399 0.100062 0.111877 0.123536 0.134876 0.145738 0.155971 0.165421 0.173941 0.181392 0.187645 0.192584 0.196106 0.198188 0.198546 0.197493 0.194718 0.190372 0.184503 0.177176 0.168501 0.158617 0.147687 0.1359 0.123462 0.110596 0.0975335 0.08451 0.0717531 0.0594972 0.0479557 0.0373273 0.0277876 0.0194887 0.0125566 0.0070891 0.00315293 0.000786453 8.50242e-27 0 0.000592027 0.00233885 0.00518595 0.00906293 0.0138898 0.019578 0.0260319 0.0331517 0.0408339 0.048972 0.0574606 0.0661941 0.0750644 0.083956 0.0927599 0.101365 0.109656 0.117519 0.124843 0.131511 0.137413 0.142445 0.146509 0.149517 0.151415 0.152069 0.151516 0.149726 0.146648 0.142372 0.13693 0.130405 0.122899 0.114539 0.105473 0.095866 0.0858969 0.0757513 0.0656206 0.0556888 0.0461434 0.0371569 0.0288881 0.0214759 0.0150385 0.00967255 0.00545072 0.00241945 0.000602257 6.50459e-27 0 0.000398241 0.00156644 0.00345803 0.0060176 0.0091854 0.0128987 0.0170932 0.0217044 0.0266691 0.0319253 0.0374114 0.0430677 0.0488389 0.0546605 0.0604686 0.0662021 0.0717896 0.077163 0.0822486 0.0869647 0.0912314 0.0949714 0.0981072 0.100563 0.102273 0.103188 0.103192 0.102399 0.100652 0.0980406 0.0945765 0.0903063 0.0852975 0.0796386 0.073435 0.0668074 0.0598874 0.0528138 0.0457297 0.0387735 0.0320833 0.0257888 0.0200052 0.0148334 0.0103562 0.0066387 0.00372751 0.00164815 0.0004086 4.40408e-27 0 0.000198097 0.000768818 0.00167433 0.00287474 0.00433139 0.0060084 0.00787368 0.0098993 0.0120632 0.0143484 0.0167409 0.0192282 0.021803 0.0244557 0.0271757 0.0299458 0.0327405 0.0355394 0.0383105 0.041006 0.0435785 0.045976 0.0481419 0.0500169 0.0515423 0.0526516 0.053311 0.053465 0.0531079 0.0522101 0.0507815 0.0488374 0.0464061 0.0435366 0.0402912 0.0367437 0.0329779 0.0290829 0.0251512 0.021274 0.0175392 0.0140302 0.0108188 0.0079651 0.00551538 0.00350277 0.00194664 0.000851204 0.000208533 2.23395e-27 0 -5.21276e-06 -4.11562e-05 -0.000136144 -0.000314182 -0.000592305 -0.00097899 -0.00147382 -0.00206749 -0.00274085 -0.00346705 -0.00421002 -0.0049326 -0.00559465 -0.00615197 -0.00656454 -0.00680186 -0.00684072 -0.00666145 -0.00624657 -0.00560964 -0.00476833 -0.00374822 -0.00258406 -0.00131781 2.8029e-08 0.00131658 0.00258141 0.00374339 0.00476368 0.00560577 0.00624247 0.00665567 0.00683846 0.0068025 0.00656446 0.00614987 0.00559318 0.0049329 0.0042103 0.00346684 0.00274101 0.00206724 0.00147374 0.000978974 0.000592419 0.000314111 0.000136177 4.11699e-05 5.21262e-06 2.83919e-29 0 -0.000208534 -0.000851192 -0.00194659 -0.00350288 -0.00551537 -0.00796511 -0.0108191 -0.0140308 -0.0175398 -0.0212737 -0.0251502 -0.0290832 -0.032978 -0.0367437 -0.0402904 -0.0435354 -0.0464066 -0.0488433 -0.0507918 -0.0522214 -0.0531138 -0.0534671 -0.053312 -0.0526523 -0.0515427 -0.0500184 -0.0481453 -0.0459798 -0.04358 -0.0410056 -0.0383095 -0.0355407 -0.032743 -0.0299453 -0.0271759 -0.0244568 -0.0218035 -0.0192277 -0.0167391 -0.0143472 -0.0120627 -0.0098999 -0.00787401 -0.00600849 -0.00433129 -0.00287486 -0.00167431 -0.000768801 -0.000198097 -2.17783e-27 0 -0.0004086 -0.00164814 -0.00372744 -0.00663889 -0.0103563 -0.0148336 -0.0200058 -0.0257895 -0.0320841 -0.0387726 -0.0457283 -0.0528138 -0.0598864 -0.0668074 -0.0734351 -0.0796383 -0.0852982 -0.0903083 -0.094585 -0.0980501 -0.100655 -0.102398 -0.103191 -0.103188 -0.102274 -0.100564 -0.0981095 -0.0949741 -0.0912343 -0.0869657 -0.0822502 -0.0771653 -0.0717911 -0.0662017 -0.0604687 -0.0546604 -0.0488401 -0.0430706 -0.0374122 -0.0319248 -0.0266684 -0.0217047 -0.0170936 -0.0128988 -0.00918545 -0.00601781 -0.00345805 -0.00156642 -0.000398241 -4.34993e-27 0 -0.000602257 -0.00241944 -0.00545061 -0.00967271 -0.0150386 -0.021476 -0.0288888 -0.0371581 -0.0461444 -0.05569 -0.0656211 -0.0757509 -0.0858968 -0.0958671 -0.105473 -0.11454 -0.1229 -0.130406 -0.136935 -0.142372 -0.146643 -0.14972 -0.151514 -0.15207 -0.151415 -0.149517 -0.146509 -0.142447 -0.137414 -0.131506 -0.124841 -0.117523 -0.109657 -0.101365 -0.0927597 -0.0839557 -0.0750656 -0.0661979 -0.0574641 -0.0489731 -0.0408329 -0.033151 -0.026032 -0.0195781 -0.0138898 -0.00906315 -0.00518605 -0.00233882 -0.000592026 -6.45363e-27 0 -0.000786453 -0.00315291 -0.00708893 -0.0125565 -0.0194885 -0.0277876 -0.037328 -0.0479574 -0.059499 -0.0717561 -0.0845083 -0.0975292 -0.110596 -0.123461 -0.1359 -0.147688 -0.158618 -0.168502 -0.177176 -0.184499 -0.190367 -0.194713 -0.197492 -0.198547 -0.198187 -0.196106 -0.192582 -0.187643 -0.181393 -0.17394 -0.16542 -0.155973 -0.145739 -0.134875 -0.123536 -0.111877 -0.100062 -0.0882416 -0.0765758 -0.065221 -0.0543312 -0.0440577 -0.0345477 -0.0259405 -0.01837 -0.0119628 -0.00683101 -0.00307386 -0.000776402 -8.45571e-27 0 -0.000958282 -0.003837 -0.00861656 -0.0152448 -0.0236357 -0.0336686 -0.0451901 -0.0580166 -0.0719368 -0.0867162 -0.102099 -0.117814 -0.133594 -0.149159 -0.164235 -0.17856 -0.191889 -0.203994 -0.214678 -0.223771 -0.231136 -0.236667 -0.240396 -0.241891 -0.241849 -0.239596 -0.235602 -0.229857 -0.222477 -0.21359 -0.203346 -0.191912 -0.179469 -0.166204 -0.152311 -0.137986 -0.123436 -0.108854 -0.0944462 -0.0804125 -0.0669506 -0.054253 -0.0425066 -0.0318858 -0.0225558 -0.0146712 -0.00836701 -0.00375996 -0.000948465 -1.03245e-26 0 -0.00111504 -0.00446091 -0.0100094 -0.0176951 -0.0274148 -0.0390264 -0.0523513 -0.0671772 -0.0832619 -0.100337 -0.118116 -0.136278 -0.154526 -0.172553 -0.190033 -0.206671 -0.222189 -0.236324 -0.248846 -0.259557 -0.268294 -0.27493 -0.279495 -0.281493 -0.281663 -0.279317 -0.274893 -0.268423 -0.260016 -0.249823 -0.238014 -0.224774 -0.210316 -0.19486 -0.178633 -0.16187 -0.144818 -0.127711 -0.110794 -0.0943081 -0.0784919 -0.0635762 -0.0497836 -0.0373203 -0.026381 -0.0171455 -0.00976983 -0.00438634 -0.00110551 -1.20306e-26 0 -0.00125425 -0.0050148 -0.0112455 -0.0198689 -0.0307661 -0.0437763 -0.0586983 -0.0752945 -0.0932954 -0.112403 -0.132297 -0.152632 -0.173071 -0.193273 -0.212886 -0.23158 -0.249041 -0.264981 -0.279141 -0.291297 -0.301262 -0.308891 -0.314208 -0.316678 -0.317029 -0.314634 -0.309833 -0.30273 -0.293424 -0.28208 -0.26888 -0.254038 -0.237794 -0.220391 -0.202087 -0.183152 -0.163873 -0.144515 -0.12536 -0.106689 -0.0887734 -0.07188 -0.0562636 -0.0421584 -0.0297853 -0.0193468 -0.0110174 -0.00494316 -0.00124507 -1.35468e-26 0 -0.00137372 -0.00548992 -0.0123053 -0.0217318 -0.0336369 -0.0478433 -0.0641308 -0.0822404 -0.101879 -0.122723 -0.144426 -0.166621 -0.188936 -0.210997 -0.232433 -0.252889 -0.272021 -0.289514 -0.305085 -0.31849 -0.329521 -0.338013 -0.343987 -0.346886 -0.347396 -0.344985 -0.339868 -0.332235 -0.32217 -0.309842 -0.295457 -0.279248 -0.261469 -0.242391 -0.222301 -0.201497 -0.180298 -0.159001 -0.137916 -0.117359 -0.0976335 -0.0790345 -0.0618448 -0.0463237 -0.0327152 -0.0212405 -0.0120901 -0.00542166 -0.00136494 -1.48493e-26 0 -0.00147156 -0.00587879 -0.0131721 -0.0232546 -0.0359819 -0.0511634 -0.0685634 -0.0879053 -0.108877 -0.131135 -0.154312 -0.178013 -0.201855 -0.22544 -0.248371 -0.270267 -0.290763 -0.309534 -0.326271 -0.340706 -0.352622 -0.361838 -0.368364 -0.371639 -0.372285 -0.369888 -0.364527 -0.356474 -0.345798 -0.332677 -0.317329 -0.300003 -0.280968 -0.260516 -0.238957 -0.216617 -0.193837 -0.17094 -0.148264 -0.126151 -0.104932 -0.0849268 -0.0664392 -0.0497507 -0.0351243 -0.0227967 -0.012971 -0.00581435 -0.00146325 -1.59174e-26 0 -0.00154624 -0.00617526 -0.0138322 -0.0244132 -0.0377642 -0.0536843 -0.071926 -0.0921999 -0.114179 -0.137506 -0.161797 -0.18664 -0.211635 -0.236373 -0.260441 -0.283437 -0.304981 -0.32473 -0.34236 -0.357592 -0.3702 -0.379988 -0.386952 -0.390544 -0.391305 -0.388949 -0.38342 -0.375065 -0.363936 -0.350223 -0.33415 -0.315975 -0.295982 -0.274479 -0.251795 -0.228273 -0.204275 -0.180145 -0.156241 -0.132927 -0.110555 -0.0894634 -0.069974 -0.0523854 -0.0369747 -0.023991 -0.0136464 -0.00611505 -0.00153845 -1.67341e-26 0 -0.00159677 -0.00637608 -0.01428 -0.0251998 -0.0389756 -0.0553988 -0.0742146 -0.0951242 -0.117791 -0.141847 -0.166898 -0.192522 -0.218303 -0.243826 -0.268663 -0.292404 -0.31466 -0.33507 -0.353301 -0.36907 -0.382135 -0.392296 -0.399543 -0.403329 -0.404155 -0.401864 -0.396244 -0.38771 -0.376298 -0.362202 -0.345652 -0.326912 -0.306275 -0.284061 -0.26061 -0.23628 -0.211447 -0.18647 -0.16172 -0.137579 -0.114412 -0.0925726 -0.0723934 -0.0541861 -0.0382375 -0.0248045 -0.0141056 -0.00631905 -0.00158936 -1.72866e-26 0 -0.00162161 -0.00647241 -0.0144895 -0.0255595 -0.0395176 -0.0561504 -0.0751991 -0.096362 -0.1193 -0.143643 -0.168995 -0.194933 -0.221037 -0.246894 -0.272071 -0.29616 -0.318768 -0.339531 -0.358115 -0.374228 -0.38762 -0.398086 -0.405599 -0.409673 -0.410635 -0.40848 -0.402883 -0.394328 -0.382834 -0.368593 -0.351837 -0.332831 -0.311877 -0.2893 -0.265447 -0.240683 -0.215394 -0.189951 -0.164732 -0.140131 -0.116521 -0.0942637 -0.0737013 -0.0551527 -0.0389101 -0.0252338 -0.0143453 -0.0064244 -0.00161535 -1.75661e-26 0 -0.0016216 -0.00647233 -0.0144892 -0.0255587 -0.0395157 -0.0561468 -0.0751926 -0.096352 -0.119286 -0.143624 -0.168972 -0.194906 -0.221008 -0.246862 -0.272039 -0.296128 -0.318737 -0.339503 -0.358092 -0.374211 -0.387608 -0.398079 -0.405596 -0.409673 -0.410635 -0.408483 -0.402891 -0.394343 -0.382857 -0.368625 -0.351876 -0.332878 -0.311929 -0.289354 -0.265501 -0.240735 -0.215442 -0.189993 -0.164768 -0.14016 -0.116543 -0.0942794 -0.0737113 -0.0551586 -0.0389134 -0.0252353 -0.0143458 -0.00642448 -0.00161536 -1.75681e-26 0 -0.00159558 -0.00636672 -0.014249 -0.0251287 -0.0388422 -0.0551783 -0.0738819 -0.0946573 -0.117173 -0.141066 -0.165952 -0.191416 -0.217052 -0.242453 -0.2672 -0.29089 -0.313141 -0.333597 -0.351929 -0.367848 -0.381106 -0.3915 -0.398989 -0.403138 -0.404166 -0.402223 -0.396843 -0.388551 -0.37735 -0.363424 -0.347 -0.328338 -0.307733 -0.285506 -0.262 -0.237579 -0.212625 -0.187508 -0.162606 -0.138309 -0.11499 -0.0930084 -0.0727031 -0.0543917 -0.0383626 -0.0248709 -0.0141342 -0.00632768 -0.00159047 -1.72926e-26 0 -0.00154461 -0.00616229 -0.0137894 -0.0243145 -0.0375785 -0.0533765 -0.0714614 -0.0915474 -0.113314 -0.136413 -0.160471 -0.185092 -0.209881 -0.234449 -0.258389 -0.281316 -0.302859 -0.322674 -0.340445 -0.35589 -0.368769 -0.378882 -0.386184 -0.390275 -0.39132 -0.389466 -0.384288 -0.376287 -0.365466 -0.352005 -0.3