<?xml version="1.0"?>
<VTKFile type="PolyData">
	<PolyData>
		<Piece NumberOfPoints="2601" NumberOfPolys="2500">
			<Points>
				<DataArray type="Float32" NumberOfComponents="3" format="ascii">
 0 0 0 0.02 0 0 0.04 0 0 0.06 0 0 0.08 0 0 0.1 0 0 0.12 0 0 0.14 0 0 0.16 0 0 0.18 0 0 0.2 0 0 0.22 0 0 0.24 0 0 0.26 0 0 0.28 0 0 0.3 0 0 0.32 0 0 0.34 0 0 0.36 0 0 0.38 0 0 0.4 0 0 0.42 0 0 0.44 0 0 0.46 0 0 0.48 0 0 0.5 0 0 0.52 0 0 0.54 0 0 0.56 0 0 0.58 0 0 0.6 0 0 0.62 0 0 0.64 0 0 0.66 0 0 0.68 0 0 0.7 0 0 0.72 0 0 0.74 0 0 0.76 0 0 0.78 0 0 0.8 0 0 0.82 0 0 0.84 0 0 0.86 0 0 0.88 0 0 0.9 0 0 0.92 0 0 0.94 0 0 0.96 0 0 0.98 0 0 1 0 0 0 0.02 0 0.02 0.02 0 0.04 0.02 0 0.06 0.02 0 0.08 0.02 0 0.1 0.02 0 0.12 0.02 0 0.14 0.02 0 0.16 0.02 0 0.18 0.02 0 0.2 0.02 0 0.22 0.02 0 0.24 0.02 0 0.26 0.02 0 0.28 0.02 0 0.3 0.02 0 0.32 0.02 0 0.34 0.02 0 0.36 0.02 0 0.38 0.02 0 0.4 0.02 0 0.42 0.02 0 0.44 0.02 0 0.46 0.02 0 0.48 0.02 0 0.5 0.02 0 0.52 0.02 0 0.54 0.02 0 0.56 0.02 0 0.58 0.02 0 0.6 0.02 0 0.62 0.02 0 0.64 0.02 0 0.66 0.02 0 0.68 0.02 0 0.7 0.02 0 0.72 0.02 0 0.74 0.02 0 0.76 0.02 0 0.78 0.02 0 0.8 0.02 0 0.82 0.02 0 0.84 0.02 0 0.86 0.02 0 0.88 0.02 0 0.9 0.02 0 0.92 0.02 0 0.94 0.02 0 0.96 0.02 0 0.98 0.02 0 1 0.02 0 0 0.04 0 0.02 0.04 0 0.04 0.04 0 0.06 0.04 0 0.08 0.04 0 0.1 0.04 0 0.12 0.04 0 0.14 0.04 0 0.16 0.04 0 0.18 0.04 0 0.2 0.04 0 0.22 0.04 0 0.24 0.04 0 0.26 0.04 0 0.28 0.04 0 0.3 0.04 0 0.32 0.04 0 0.34 0.04 0 0.36 0.04 0 0.38 0.04 0 0.4 0.04 0 0.42 0.04 0 0.44 0.04 0 0.46 0.04 0 0.48 0.04 0 0.5 0.04 0 0.52 0.04 0 0.54 0.04 0 0.56 0.04 0 0.58 0.04 0 0.6 0.04 0 0.62 0.04 0 0.64 0.04 0 0.66 0.04 0 0.68 0.04 0 0.7 0.04 0 0.72 0.04 0 0.74 0.04 0 0.76 0.04 0 0.78 0.04 0 0.8 0.04 0 0.82 0.04 0 0.84 0.04 0 0.86 0.04 0 0.88 0.04 0 0.9 0.04 0 0.92 0.04 0 0.94 0.04 0 0.96 0.04 0 0.98 0.04 0 1 0.04 0 0 0.06 0 0.02 0.06 0 0.04 0.06 0 0.06 0.06 0 0.08 0.06 0 0.1 0.06 0 0.12 0.06 0 0.14 0.06 0 0.16 0.06 0 0.18 0.06 0 0.2 0.06 0 0.22 0.06 0 0.24 0.06 0 0.26 0.06 0 0.28 0.06 0 0.3 0.06 0 0.32 0.06 0 0.34 0.06 0 0.36 0.06 0 0.38 0.06 0 0.4 0.06 0 0.42 0.06 0 0.44 0.06 0 0.46 0.06 0 0.48 0.06 0 0.5 0.06 0 0.52 0.06 0 0.54 0.06 0 0.56 0.06 0 0.58 0.06 0 0.6 0.06 0 0.62 0.06 0 0.64 0.06 0 0.66 0.06 0 0.68 0.06 0 0.7 0.06 0 0.72 0.06 0 0.74 0.06 0 0.76 0.06 0 0.78 0.06 0 0.8 0.06 0 0.82 0.06 0 0.84 0.06 0 0.86 0.06 0 0.88 0.06 0 0.9 0.06 0 0.92 0.06 0 0.94 0.06 0 0.96 0.06 0 0.98 0.06 0 1 0.06 0 0 0.08 0 0.02 0.08 0 0.04 0.08 0 0.06 0.08 0 0.08 0.08 0 0.1 0.08 0 0.12 0.08 0 0.14 0.08 0 0.16 0.08 0 0.18 0.08 0 0.2 0.08 0 0.22 0.08 0 0.24 0.08 0 0.26 0.08 0 0.28 0.08 0 0.3 0.08 0 0.32 0.08 0 0.34 0.08 0 0.36 0.08 0 0.38 0.08 0 0.4 0.08 0 0.42 0.08 0 0.44 0.08 0 0.46 0.08 0 0.48 0.08 0 0.5 0.08 0 0.52 0.08 0 0.54 0.08 0 0.56 0.08 0 0.58 0.08 0 0.6 0.08 0 0.62 0.08 0 0.64 0.08 0 0.66 0.08 0 0.68 0.08 0 0.7 0.08 0 0.72 0.08 0 0.74 0.08 0 0.76 0.08 0 0.78 0.08 0 0.8 0.08 0 0.82 0.08 0 0.84 0.08 0 0.86 0.08 0 0.88 0.08 0 0.9 0.08 0 0.92 0.08 0 0.94 0.08 0 0.96 0.08 0 0.98 0.08 0 1 0.08 0 0 0.1 0 0.02 0.1 0 0.04 0.1 0 0.06 0.1 0 0.08 0.1 0 0.1 0.1 0 0.12 0.1 0 0.14 0.1 0 0.16 0.1 0 0.18 0.1 0 0.2 0.1 0 0.22 0.1 0 0.24 0.1 0 0.26 0.1 0 0.28 0.1 0 0.3 0.1 0 0.32 0.1 0 0.34 0.1 0 0.36 0.1 0 0.38 0.1 0 0.4 0.1 0 0.42 0.1 0 0.44 0.1 0 0.46 0.1 0 0.48 0.1 0 0.5 0.1 0 0.52 0.1 0 0.54 0.1 0 0.56 0.1 0 0.58 0.1 0 0.6 0.1 0 0.62 0.1 0 0.64 0.1 0 0.66 0.1 0 0.68 0.1 0 0.7 0.1 0 0.72 0.1 0 0.74 0.1 0 0.76 0.1 0 0.78 0.1 0 0.8 0.1 0 0.82 0.1 0 0.84 0.1 0 0.86 0.1 0 0.88 0.1 0 0.9 0.1 0 0.92 0.1 0 0.94 0.1 0 0.96 0.1 0 0.98 0.1 0 1 0.1 0 0 0.12 0 0.02 0.12 0 0.04 0.12 0 0.06 0.12 0 0.08 0.12 0 0.1 0.12 0 0.12 0.12 0 0.14 0.12 0 0.16 0.12 0 0.18 0.12 0 0.2 0.12 0 0.22 0.12 0 0.24 0.12 0 0.26 0.12 0 0.28 0.12 0 0.3 0.12 0 0.32 0.12 0 0.34 0.12 0 0.36 0.12 0 0.38 0.12 0 0.4 0.12 0 0.42 0.12 0 0.44 0.12 0 0.46 0.12 0 0.48 0.12 0 0.5 0.12 0 0.52 0.12 0 0.54 0.12 0 0.56 0.12 0 0.58 0.12 0 0.6 0.12 0 0.62 0.12 0 0.64 0.12 0 0.66 0.12 0 0.68 0.12 0 0.7 0.12 0 0.72 0.12 0 0.74 0.12 0 0.76 0.12 0 0.78 0.12 0 0.8 0.12 0 0.82 0.12 0 0.84 0.12 0 0.86 0.12 0 0.88 0.12 0 0.9 0.12 0 0.92 0.12 0 0.94 0.12 0 0.96 0.12 0 0.98 0.12 0 1 0.12 0 0 0.14 0 0.02 0.14 0 0.04 0.14 0 0.06 0.14 0 0.08 0.14 0 0.1 0.14 0 0.12 0.14 0 0.14 0.14 0 0.16 0.14 0 0.18 0.14 0 0.2 0.14 0 0.22 0.14 0 0.24 0.14 0 0.26 0.14 0 0.28 0.14 0 0.3 0.14 0 0.32 0.14 0 0.34 0.14 0 0.36 0.14 0 0.38 0.14 0 0.4 0.14 0 0.42 0.14 0 0.44 0.14 0 0.46 0.14 0 0.48 0.14 0 0.5 0.14 0 0.52 0.14 0 0.54 0.14 0 0.56 0.14 0 0.58 0.14 0 0.6 0.14 0 0.62 0.14 0 0.64 0.14 0 0.66 0.14 0 0.68 0.14 0 0.7 0.14 0 0.72 0.14 0 0.74 0.14 0 0.76 0.14 0 0.78 0.14 0 0.8 0.14 0 0.82 0.14 0 0.84 0.14 0 0.86 0.14 0 0.88 0.14 0 0.9 0.14 0 0.92 0.14 0 0.94 0.14 0 0.96 0.14 0 0.98 0.14 0 1 0.14 0 0 0.16 0 0.02 0.16 0 0.04 0.16 0 0.06 0.16 0 0.08 0.16 0 0.1 0.16 0 0.12 0.16 0 0.14 0.16 0 0.16 0.16 0 0.18 0.16 0 0.2 0.16 0 0.22 0.16 0 0.24 0.16 0 0.26 0.16 0 0.28 0.16 0 0.3 0.16 0 0.32 0.16 0 0.34 0.16 0 0.36 0.16 0 0.38 0.16 0 0.4 0.16 0 0.42 0.16 0 0.44 0.16 0 0.46 0.16 0 0.48 0.16 0 0.5 0.16 0 0.52 0.16 0 0.54 0.16 0 0.56 0.16 0 0.58 0.16 0 0.6 0.16 0 0.62 0.16 0 0.64 0.16 0 0.66 0.16 0 0.68 0.16 0 0.7 0.16 0 0.72 0.16 0 0.74 0.16 0 0.76 0.16 0 0.78 0.16 0 0.8 0.16 0 0.82 0.16 0 0.84 0.16 0 0.86 0.16 0 0.88 0.16 0 0.9 0.16 0 0.92 0.16 0 0.94 0.16 0 0.96 0.16 0 0.98 0.16 0 1 0.16 0 0 0.18 0 0.02 0.18 0 0.04 0.18 0 0.06 0.18 0 0.08 0.18 0 0.1 0.18 0 0.12 0.18 0 0.14 0.18 0 0.16 0.18 0 0.18 0.18 0 0.2 0.18 0 0.22 0.18 0 0.24 0.18 0 0.26 0.18 0 0.28 0.18 0 0.3 0.18 0 0.32 0.18 0 0.34 0.18 0 0.36 0.18 0 0.38 0.18 0 0.4 0.18 0 0.42 0.18 0 0.44 0.18 0 0.46 0.18 0 0.48 0.18 0 0.5 0.18 0 0.52 0.18 0 0.54 0.18 0 0.56 0.18 0 0.58 0.18 0 0.6 0.18 0 0.62 0.18 0 0.64 0.18 0 0.66 0.18 0 0.68 0.18 0 0.7 0.18 0 0.72 0.18 0 0.74 0.18 0 0.76 0.18 0 0.78 0.18 0 0.8 0.18 0 0.82 0.18 0 0.84 0.18 0 0.86 0.18 0 0.88 0.18 0 0.9 0.18 0 0.92 0.18 0 0.94 0.18 0 0.96 0.18 0 0.98 0.18 0 1 0.18 0 0 0.2 0 0.02 0.2 0 0.04 0.2 0 0.06 0.2 0 0.08 0.2 0 0.1 0.2 0 0.12 0.2 0 0.14 0.2 0 0.16 0.2 0 0.18 0.2 0 0.2 0.2 0 0.22 0.2 0 0.24 0.2 0 0.26 0.2 0 0.28 0.2 0 0.3 0.2 0 0.32 0.2 0 0.34 0.2 0 0.36 0.2 0 0.38 0.2 0 0.4 0.2 0 0.42 0.2 0 0.44 0.2 0 0.46 0.2 0 0.48 0.2 0 0.5 0.2 0 0.52 0.2 0 0.54 0.2 0 0.56 0.2 0 0.58 0.2 0 0.6 0.2 0 0.62 0.2 0 0.64 0.2 0 0.66 0.2 0 0.68 0.2 0 0.7 0.2 0 0.72 0.2 0 0.74 0.2 0 0.76 0.2 0 0.78 0.2 0 0.8 0.2 0 0.82 0.2 0 0.84 0.2 0 0.86 0.2 0 0.88 0.2 0 0.9 0.2 0 0.92 0.2 0 0.94 0.2 0 0.96 0.2 0 0.98 0.2 0 1 0.2 0 0 0.22 0 0.02 0.22 0 0.04 0.22 0 0.06 0.22 0 0.08 0.22 0 0.1 0.22 0 0.12 0.22 0 0.14 0.22 0 0.16 0.22 0 0.18 0.22 0 0.2 0.22 0 0.22 0.22 0 0.24 0.22 0 0.26 0.22 0 0.28 0.22 0 0.3 0.22 0 0.32 0.22 0 0.34 0.22 0 0.36 0.22 0 0.38 0.22 0 0.4 0.22 0 0.42 0.22 0 0.44 0.22 0 0.46 0.22 0 0.48 0.22 0 0.5 0.22 0 0.52 0.22 0 0.54 0.22 0 0.56 0.22 0 0.58 0.22 0 0.6 0.22 0 0.62 0.22 0 0.64 0.22 0 0.66 0.22 0 0.68 0.22 0 0.7 0.22 0 0.72 0.22 0 0.74 0.22 0 0.76 0.22 0 0.78 0.22 0 0.8 0.22 0 0.82 0.22 0 0.84 0.22 0 0.86 0.22 0 0.88 0.22 0 0.9 0.22 0 0.92 0.22 0 0.94 0.22 0 0.96 0.22 0 0.98 0.22 0 1 0.22 0 0 0.24 0 0.02 0.24 0 0.04 0.24 0 0.06 0.24 0 0.08 0.24 0 0.1 0.24 0 0.12 0.24 0 0.14 0.24 0 0.16 0.24 0 0.18 0.24 0 0.2 0.24 0 0.22 0.24 0 0.24 0.24 0 0.26 0.24 0 0.28 0.24 0 0.3 0.24 0 0.32 0.24 0 0.34 0.24 0 0.36 0.24 0 0.38 0.24 0 0.4 0.24 0 0.42 0.24 0 0.44 0.24 0 0.46 0.24 0 0.48 0.24 0 0.5 0.24 0 0.52 0.24 0 0.54 0.24 0 0.56 0.24 0 0.58 0.24 0 0.6 0.24 0 0.62 0.24 0 0.64 0.24 0 0.66 0.24 0 0.68 0.24 0 0.7 0.24 0 0.72 0.24 0 0.74 0.24 0 0.76 0.24 0 0.78 0.24 0 0.8 0.24 0 0.82 0.24 0 0.84 0.24 0 0.86 0.24 0 0.88 0.24 0 0.9 0.24 0 0.92 0.24 0 0.94 0.24 0 0.96 0.24 0 0.98 0.24 0 1 0.24 0 0 0.26 0 0.02 0.26 0 0.04 0.26 0 0.06 0.26 0 0.08 0.26 0 0.1 0.26 0 0.12 0.26 0 0.14 0.26 0 0.16 0.26 0 0.18 0.26 0 0.2 0.26 0 0.22 0.26 0 0.24 0.26 0 0.26 0.26 0 0.28 0.26 0 0.3 0.26 0 0.32 0.26 0 0.34 0.26 0 0.36 0.26 0 0.38 0.26 0 0.4 0.26 0 0.42 0.26 0 0.44 0.26 0 0.46 0.26 0 0.48 0.26 0 0.5 0.26 0 0.52 0.26 0 0.54 0.26 0 0.56 0.26 0 0.58 0.26 0 0.6 0.26 0 0.62 0.26 0 0.64 0.26 0 0.66 0.26 0 0.68 0.26 0 0.7 0.26 0 0.72 0.26 0 0.74 0.26 0 0.76 0.26 0 0.78 0.26 0 0.8 0.26 0 0.82 0.26 0 0.84 0.26 0 0.86 0.26 0 0.88 0.26 0 0.9 0.26 0 0.92 0.26 0 0.94 0.26 0 0.96 0.26 0 0.98 0.26 0 1 0.26 0 0 0.28 0 0.02 0.28 0 0.04 0.28 0 0.06 0.28 0 0.08 0.28 0 0.1 0.28 0 0.12 0.28 0 0.14 0.28 0 0.16 0.28 0 0.18 0.28 0 0.2 0.28 0 0.22 0.28 0 0.24 0.28 0 0.26 0.28 0 0.28 0.28 0 0.3 0.28 0 0.32 0.28 0 0.34 0.28 0 0.36 0.28 0 0.38 0.28 0 0.4 0.28 0 0.42 0.28 0 0.44 0.28 0 0.46 0.28 0 0.48 0.28 0 0.5 0.28 0 0.52 0.28 0 0.54 0.28 0 0.56 0.28 0 0.58 0.28 0 0.6 0.28 0 0.62 0.28 0 0.64 0.28 0 0.66 0.28 0 0.68 0.28 0 0.7 0.28 0 0.72 0.28 0 0.74 0.28 0 0.76 0.28 0 0.78 0.28 0 0.8 0.28 0 0.82 0.28 0 0.84 0.28 0 0.86 0.28 0 0.88 0.28 0 0.9 0.28 0 0.92 0.28 0 0.94 0.28 0 0.96 0.28 0 0.98 0.28 0 1 0.28 0 0 0.3 0 0.02 0.3 0 0.04 0.3 0 0.06 0.3 0 0.08 0.3 0 0.1 0.3 0 0.12 0.3 0 0.14 0.3 0 0.16 0.3 0 0.18 0.3 0 0.2 0.3 0 0.22 0.3 0 0.24 0.3 0 0.26 0.3 0 0.28 0.3 0 0.3 0.3 0 0.32 0.3 0 0.34 0.3 0 0.36 0.3 0 0.38 0.3 0 0.4 0.3 0 0.42 0.3 0 0.44 0.3 0 0.46 0.3 0 0.48 0.3 0 0.5 0.3 0 0.52 0.3 0 0.54 0.3 0 0.56 0.3 0 0.58 0.3 0 0.6 0.3 0 0.62 0.3 0 0.64 0.3 0 0.66 0.3 0 0.68 0.3 0 0.7 0.3 0 0.72 0.3 0 0.74 0.3 0 0.76 0.3 0 0.78 0.3 0 0.8 0.3 0 0.82 0.3 0 0.84 0.3 0 0.86 0.3 0 0.88 0.3 0 0.9 0.3 0 0.92 0.3 0 0.94 0.3 0 0.96 0.3 0 0.98 0.3 0 1 0.3 0 0 0.32 0 0.02 0.32 0 0.04 0.32 0 0.06 0.32 0 0.08 0.32 0 0.1 0.32 0 0.12 0.32 0 0.14 0.32 0 0.16 0.32 0 0.18 0.32 0 0.2 0.32 0 0.22 0.32 0 0.24 0.32 0 0.26 0.32 0 0.28 0.32 0 0.3 0.32 0 0.32 0.32 0 0.34 0.32 0 0.36 0.32 0 0.38 0.32 0 0.4 0.32 0 0.42 0.32 0 0.44 0.32 0 0.46 0.32 0 0.48 0.32 0 0.5 0.32 0 0.52 0.32 0 0.54 0.32 0 0.56 0.32 0 0.58 0.32 0 0.6 0.32 0 0.62 0.32 0 0.64 0.32 0 0.66 0.32 0 0.68 0.32 0 0.7 0.32 0 0.72 0.32 0 0.74 0.32 0 0.76 0.32 0 0.78 0.32 0 0.8 0.32 0 0.82 0.32 0 0.84 0.32 0 0.86 0.32 0 0.88 0.32 0 0.9 0.32 0 0.92 0.32 0 0.94 0.
[...]
			<PointData Scalars="VitesseX">
				<DataArray Name="VitesseX" type="Float32" format="ascii">
 0 0 0 0 0 0 0 0 0 0 0 0 0 0 0 0 0 0 0 0 0 0 0 0 0 0 0 0 0 0 0 0 0 0 0 0 0 0 0 0 0 0 0 0 0 0 0 0 0 0 -0 0 -0.000464938 -0.00185263 -0.00414126 -0.00729488 -0.0112639 -0.0159857 -0.0213859 -0.0273793 -0.0338713 -0.0407595 -0.0479352 -0.0552842 -0.0626909 -0.0700395 -0.0772133 -0.084099 -0.0905879 -0.0965776 -0.101973 -0.10669 -0.110654 -0.113802 -0.116096 -0.117469 -0.117922 -0.117459 -0.116043 -0.113742 -0.110578 -0.106601 -0.101875 -0.0964721 -0.0904796 -0.0839912 -0.0771092 -0.0699419 -0.0626027 -0.0552061 -0.0478676 -0.0407036 -0.0338268 -0.0273454 -0.0213614 -0.0159691 -0.0112535 -0.00728908 -0.00413846 -0.00185141 -0.000464768 -5.04572e-27 0 -0.000922825 -0.00367862 -0.00822572 -0.0144943 -0.0223869 -0.0317801 -0.042526 -0.054455 -0.0673783 -0.0810908 -0.0953748 -0.11 -0.124735 -0.13935 -0.15361 -0.167287 -0.180164 -0.192037 -0.202719 -0.21204 -0.219854 -0.226038 -0.230536 -0.233173 -0.233977 -0.23302 -0.23012 -0.225493 -0.219161 -0.211225 -0.201812 -0.19107 -0.17917 -0.166297 -0.152654 -0.138454 -0.123922 -0.109282 -0.0947585 -0.0805823 -0.066975 -0.0541495 -0.042307 -0.0316334 -0.022297 -0.0144453 -0.00820337 -0.0036704 -0.000921723 -1.00126e-26 0 -0.00136631 -0.00544812 -0.0121854 -0.0214765 -0.0331783 -0.0471084 -0.0630482 -0.0807458 -0.0999203 -0.120267 -0.14146 -0.163155 -0.185008 -0.206678 -0.227812 -0.248073 -0.267137 -0.284701 -0.300485 -0.314241 -0.325752 -0.334839 -0.34144 -0.345258 -0.346328 -0.344872 -0.340457 -0.333527 -0.324083 -0.312278 -0.298299 -0.28237 -0.26474 -0.245688 -0.225509 -0.204518 -0.183048 -0.161424 -0.139975 -0.119042 -0.0989494 -0.0800107 -0.0625215 -0.0467559 -0.0329623 -0.0213592 -0.0121321 -0.00542878 -0.00136373 -1.48224e-26 0 -0.00178843 -0.00713343 -0.0159586 -0.0281331 -0.0434708 -0.0617341 -0.0826364 -0.105847 -0.130998 -0.157686 -0.185485 -0.213936 -0.242587 -0.270992 -0.298685 -0.32522 -0.350171 -0.37314 -0.393762 -0.411711 -0.426704 -0.43851 -0.447064 -0.451961 -0.453201 -0.451242 -0.445313 -0.43614 -0.42369 -0.408165 -0.389814 -0.36893 -0.345842 -0.320911 -0.294524 -0.267092 -0.239047 -0.21081 -0.182805 -0.155476 -0.129246 -0.104521 -0.0816861 -0.0610983 -0.0430815 -0.0279219 -0.0158628 -0.00709894 -0.00178383 -1.9399e-26 0 -0.00218253 -0.00870796 -0.0194858 -0.0343589 -0.0531021 -0.0754262 -0.100982 -0.129364 -0.160121 -0.19276 -0.226755 -0.261542 -0.296564 -0.331279 -0.36511 -0.397509 -0.427955 -0.45596 -0.481077 -0.502909 -0.521114 -0.53541 -0.545737 -0.551592 -0.552911 -0.550442 -0.54303 -0.53171 -0.516407 -0.497372 -0.474912 -0.449386 -0.421195 -0.39078 -0.358612 -0.325188 -0.291035 -0.25666 -0.222571 -0.189309 -0.157386 -0.127294 -0.0994992 -0.0744347 -0.0524953 -0.03403 -0.0193369 -0.00865471 -0.00217544 -2.36698e-26 0 -0.0025424 -0.0101469 -0.0227113 -0.0400558 -0.0619204 -0.0879692 -0.117795 -0.150926 -0.186832 -0.224936 -0.264621 -0.305224 -0.346091 -0.38659 -0.42604 -0.463801 -0.499262 -0.531853 -0.561052 -0.586396 -0.60749 -0.624009 -0.635897 -0.642569 -0.643886 -0.640898 -0.632064 -0.618729 -0.600772 -0.578492 -0.552252 -0.522469 -0.489613 -0.454196 -0.416764 -0.377893 -0.338195 -0.298253 -0.258648 -0.22001 -0.182928 -0.147972 -0.11568 -0.0865553 -0.0610556 -0.0395877 -0.0224998 -0.0100718 -0.00253242 -2.75671e-26 0 -0.00286238 -0.0114275 -0.0255843 -0.0451341 -0.0697867 -0.0991653 -0.132811 -0.170192 -0.210709 -0.253707 -0.298486 -0.344295 -0.390389 -0.436054 -0.480517 -0.523052 -0.562968 -0.599621 -0.632422 -0.660851 -0.684466 -0.702904 -0.716118 -0.723442 -0.724692 -0.721169 -0.711006 -0.695817 -0.67545 -0.650244 -0.620611 -0.587025 -0.550016 -0.510158 -0.468065 -0.424378 -0.379785 -0.334934 -0.290469 -0.247095 -0.20547 -0.166229 -0.129975 -0.0972694 -0.0686279 -0.0445075 -0.0253018 -0.0113279 -0.00284918 -3.10289e-26 0 -0.00313743 -0.0125296 -0.0280595 -0.0495136 -0.076577 -0.108838 -0.145795 -0.186861 -0.231378 -0.278622 -0.32782 -0.37814 -0.428759 -0.478892 -0.527682 -0.574328 -0.61807 -0.658196 -0.694062 -0.725099 -0.750824 -0.770846 -0.785131 -0.792925 -0.794054 -0.789979 -0.778605 -0.761756 -0.739257 -0.71149 -0.678908 -0.642035 -0.601451 -0.557785 -0.511705 -0.463911 -0.415151 -0.366127 -0.317534 -0.270139 -0.224658 -0.181779 -0.142158 -0.106409 -0.0750932 -0.0487122 -0.0276991 -0.0124036 -0.00312077 -3.40002e-26 0 -0.00336322 -0.0134358 -0.0300979 -0.0531254 -0.0821845 -0.116836 -0.156541 -0.20067 -0.248513 -0.299288 -0.35216 -0.406227 -0.4606 -0.514431 -0.566793 -0.616823 -0.663698 -0.706653 -0.744999 -0.778124 -0.805516 -0.826761 -0.841845 -0.84991 -0.85088 -0.846231 -0.833787 -0.815498 -0.791184 -0.761262 -0.726223 -0.686631 -0.643108 -0.596326 -0.546999 -0.495871 -0.443737 -0.391341 -0.339417 -0.28878 -0.24019 -0.194377 -0.152039 -0.11383 -0.08035 -0.052136 -0.029654 -0.0132821 -0.00334294 -3.64338e-26 0 -0.00353618 -0.0141318 -0.0316672 -0.0559125 -0.0865208 -0.123033 -0.164881 -0.211403 -0.261845 -0.315381 -0.371125 -0.428115 -0.485411 -0.542113 -0.597237 -0.649868 -0.699135 -0.744231 -0.784429 -0.81909 -0.847677 -0.869763 -0.885365 -0.893489 -0.894273 -0.889035 -0.87568 -0.856194 -0.830412 -0.798777 -0.761812 -0.720113 -0.674333 -0.625178 -0.573394 -0.519756 -0.465096 -0.410182 -0.355775 -0.302726 -0.251823 -0.203826 -0.159463 -0.119417 -0.0843161 -0.0547252 -0.031136 -0.0139497 -0.00351223 -3.8291e-26 0 -0.00365361 -0.0146066 -0.0327428 -0.0578311 -0.0895175 -0.12733 -0.170684 -0.21889 -0.271166 -0.326649 -0.384416 -0.44346 -0.502803 -0.561503 -0.618536 -0.672945 -0.723825 -0.770338 -0.811732 -0.847349 -0.876641 -0.899172 -0.915005 -0.922969 -0.92359 -0.918002 -0.904044 -0.883755 -0.856975 -0.82417 -0.785887 -0.742745 -0.695424 -0.644653 -0.591202 -0.535865 -0.479498 -0.422886 -0.366809 -0.312137 -0.259678 -0.210211 -0.164484 -0.123197 -0.0870009 -0.0564784 -0.0321394 -0.0144015 -0.00362672 -3.95422e-26 0 -0.00371447 -0.0148593 -0.0333288 -0.0588983 -0.0912152 -0.129803 -0.174067 -0.223304 -0.276708 -0.333388 -0.392397 -0.452686 -0.513256 -0.573126 -0.63124 -0.686612 -0.738309 -0.785473 -0.827335 -0.863229 -0.892602 -0.915025 -0.930647 -0.937948 -0.938215 -0.931529 -0.916767 -0.895562 -0.867864 -0.834155 -0.794998 -0.751023 -0.702915 -0.651406 -0.597264 -0.541285 -0.484323 -0.427145 -0.370538 -0.315366 -0.26243 -0.212509 -0.166348 -0.124653 -0.0880768 -0.0572117 -0.0325785 -0.0146087 -0.00368174 -4.01675e-26 0 -0.00371452 -0.01486 -0.0333321 -0.058908 -0.0912375 -0.129846 -0.17414 -0.223417 -0.276868 -0.3336 -0.392659 -0.452995 -0.513603 -0.573499 -0.631622 -0.686984 -0.738652 -0.785772 -0.827577 -0.863408 -0.892721 -0.915091 -0.930672 -0.937951 -0.938211 -0.931492 -0.916666 -0.895378 -0.867584 -0.833777 -0.794529 -0.750479 -0.702318 -0.650781 -0.59664 -0.540687 -0.483777 -0.426666 -0.370137 -0.315046 -0.262189 -0.212339 -0.166237 -0.124587 -0.088042 -0.0571962 -0.0325733 -0.0146076 -0.00368166 -4.0157e-26 0 -0.00365971 -0.0146552 -0.0329033 -0.0582002 -0.0902111 -0.128474 -0.172402 -0.221296 -0.274347 -0.330657 -0.389266 -0.44911 -0.509191 -0.5685 -0.625972 -0.680611 -0.73148 -0.777724 -0.818582 -0.853404 -0.881659 -0.902947 -0.917571 -0.923429 -0.923281 -0.915697 -0.900575 -0.879068 -0.851246 -0.817608 -0.778721 -0.735219 -0.687779 -0.637117 -0.583982 -0.529138 -0.473414 -0.417529 -0.362249 -0.308388 -0.256714 -0.207974 -0.162887 -0.122135 -0.0863561 -0.056135 -0.03199 -0.0143563 -0.00362095 -3.9511e-26 0 -0.00354464 -0.0141994 -0.0318915 -0.0564304 -0.0874978 -0.124649 -0.167318 -0.214825 -0.266379 -0.321104 -0.378059 -0.436198 -0.494549 -0.552115 -0.607854 -0.660794 -0.710022 -0.754707 -0.794117 -0.827625 -0.854731 -0.875057 -0.888956 -0.894161 -0.893853 -0.885712 -0.87064 -0.849347 -0.822006 -0.789112 -0.751224 -0.70896 -0.662977 -0.613965 -0.562641 -0.509732 -0.456024 -0.402191 -0.348975 -0.297142 -0.247414 -0.200504 -0.157097 -0.117846 -0.0833654 -0.0542204 -0.0309171 -0.0138837 -0.00350384 -3.82397e-26 0 -0.00337482 -0.0135285 -0.0304056 -0.0538361 -0.0835255 -0.119055 -0.159887 -0.205367 -0.254736 -0.307145 -0.361682 -0.41733 -0.473153 -0.528173 -0.581382 -0.631838 -0.678664 -0.721061 -0.758329 -0.78988 -0.815246 -0.834082 -0.846828 -0.850905 -0.850355 -0.841701 -0.826872 -0.806079 -0.779606 -0.74794 -0.711624 -0.671251 -0.627444 -0.580856 -0.532161 -0.482038 -0.431219 -0.380316 -0.33003 -0.28107 -0.234102 -0.189789 -0.14877 -0.11166 -0.0790365 -0.0514386 -0.0293514 -0.0131909 -0.00333133 -3.63634e-26 0 -0.00315201 -0.012646 -0.0284458 -0.0504056 -0.0782599 -0.111623 -0.149993 -0.192753 -0.239185 -0.288482 -0.339772 -0.392082 -0.444525 -0.496154 -0.546012 -0.593202 -0.63689 -0.676325 -0.710852 -0.739926 -0.763119 -0.780126 -0.791473 -0.794299 -0.793478 -0.78438 -0.769985 -0.749972 -0.724742 -0.694769 -0.660569 -0.6227 -0.58175 -0.53832 -0.493027 -0.446494 -0.399387 -0.352242 -0.305712 -0.260425 -0.216987 -0.175997 -0.138038 -0.103673 -0.0734372 -0.0478329 -0.0273175 -0.0122885 -0.00310612 -3.39122e-26 0 -0.0028797 -0.0115657 -0.0260429 -0.0461928 -0.071784 -0.10247 -0.137792 -0.177183 -0.219973 -0.265409 -0.312673 -0.36085 -0.409115 -0.456564 -0.502304 -0.545497 -0.585364 -0.621212 -0.652441 -0.678557 -0.699182 -0.714142 -0.723531 -0.725593 -0.723844 -0.714781 -0.700884 -0.681916 -0.658282 -0.630436 -0.598863 -0.564076 -0.526617 -0.487027 -0.445856 -0.403661 -0.361026 -0.318411 -0.276399 -0.23553 -0.196338 -0.159345 -0.125068 -0.0940104 -0.0666553 -0.0434599 -0.0248472 -0.0111907 -0.00283173 -3.09251e-26 0 -0.0025622 -0.0103047 -0.0232348 -0.0412643 -0.0641998 -0.0917404 -0.123478 -0.158901 -0.197401 -0.238289 -0.280813 -0.324128 -0.367481 -0.410027 -0.450948 -0.489476 -0.524902 -0.556597 -0.584024 -0.606751 -0.624453 -0.637118 -0.64423 -0.64568 -0.642762 -0.633913 -0.620667 -0.602997 -0.581287 -0.555967 -0.527485 -0.496307 -0.462915 -0.427785 -0.391392 -0.354214 -0.316738 -0.279355 -0.242552 -0.206778 -0.172476 -0.140092 -0.110064 -0.0828245 -0.0587972 -0.0383882 -0.0219792 -0.00991458 -0.00251244 -2.74495e-26 0 -0.0022045 -0.00888297 -0.020066 -0.0356979 -0.055627 -0.0796028 -0.107275 -0.138195 -0.171825 -0.207549 -0.244692 -0.282494 -0.320278 -0.357275 -0.392754 -0.426025 -0.456459 -0.483501 -0.506685 -0.525646 -0.540117 -0.550226 -0.554959 -0.555659 -0.551615 -0.54305 -0.53061 -0.514461 -0.494966 -0.47253 -0.447557 -0.420455 -0.391644 -0.361527 -0.330492 -0.298933 -0.267217 -0.235684 -0.204701 -0.174616 -0.145779 -0.118542 -0.0932608 -0.0702905 -0.0499864 -0.0326974 -0.0187585 -0.00848002 -0.00215324 -2.35408e-26 0 -0.00181224 -0.00732284 -0.0165863 -0.0295812 -0.0462009 -0.0662492 -0.0894386 -0.115392 -0.143649 -0.173674 -0.20488 -0.236606 -0.268252 -0.299142 -0.32864 -0.356145 -0.381114 -0.403076 -0.421643 -0.43652 -0.447516 -0.454817 -0.457185 -0.456896 -0.451882 -0.443628 -0.432132 -0.417704 -0.400686 -0.381446 -0.360341 -0.33772 -0.313926 -0.289288 -0.26411 -0.238683 -0.213249 -0.188086 -0.163441 -0.139552 -0.116664 -0.0950334 -0.0749229 -0.056605 -0.0403612 -0.0264768 -0.0152355 -0.00690944 -0.00175976 -1.92609e-26 0 -0.0013916 -0.00564897 -0.0128507 -0.023011 -0.0360704 -0.0518906 -0.0702516 -0.0908525 -0.113317 -0.137201 -0.162006 -0.18719 -0.212225 -0.236546 -0.259617 -0.280936 -0.300055 -0.31659 -0.330236 -0.340775 -0.348205 -0.352058 -0.352916 -0.350609 -0.345237 -0.337216 -0.326787 -0.314257 -0.299938 -0.284152 -0.267211 -0.249403 -0.230988 -0.21221 -0.193292 -0.174398 -0.155687 -0.137313 -0.119419 -0.102136 -0.0855905 -0.0699358 -0.0553388 -0.0419836 -0.030073 -0.0198244 -0.0114658 -0.00522742 -0.00133817 -1.46779e-26 0 -0.000949201 -0.00388777 -0.00891817 -0.016091 -0.0253956 -0.0367538 -0.050017 -0.0649648 -0.0813106 -0.0987058 -0.116752 -0.135023 -0.15308 -0.170474 -0.186775 -0.201586 -0.214558 -0.225402 -0.233902 -0.239978 -0.243385 -0.244333 -0.242884 -0.239055 -0.233199 -0.225482 -0.21623 -0.205739 -0.194293 -0.182171 -0.169627 -0.156891 -0.144136 -0.131513 -0.119135 -0.107095 -0.0954332 -0.0841675 -0.0733335 -0.0629564 -0.053047 -0.0436447 -0.034817 -0.0266567 -0.0192839 -0.0128447 -0.00750848 -0.00346035 -0.000895087 -9.86414e-27 0 -0.000492019 -0.00206703 -0.0048508 -0.00893051 -0.0143451 -0.0210782 -0.0290548 -0.0381383 -0.0481354 -0.0587977 -0.0698341 -0.0809311 -0.0917543 -0.101971 -0.111263 -0.119344 -0.125968 -0.130956 -0.13418 -0.135501 -0.135116 -0.132893 -0.129103 -0.123901 -0.117518 -0.110173 -0.102197 -0.0938672 -0.0854335 -0.0771293 -0.0691524 -0.0616564 -0.0547487 -0.0484837 -0.0428662 -0.0378747 -0.0334593 -0.0295132 -0.0259363 -0.0226521 -0.0195607 -0.0165843 -0.0136881 -0.0108703 -0.00816645 -0.00564906 -0.00342638 -0.00163607 -0.000437481 -4.89589e-27 0 -2.72588e-05 -0.000215466 -0.000712754 -0.00164252 -0.00309343 -0.00511166 -0.00769674 -0.0107977 -0.0143166 -0.0181087 -0.0219942 -0.0257691 -0.0292154 -0.0321166 -0.0342717 -0.0355056 -0.0356816 -0.0347096 -0.0325556 -0.029244 -0.0248579 -0.0195352 -0.013462 -0.00686497 -5.77649e-07 0.00686375 0.0134583 0.0195272 0.0248492 0.0292382 0.0325538 0.0347105 0.0356822 0.0355034 0.0342699 0.0321229 0.0292166 0.025763 0.0219968 0.018113 0.0143161 0.0107966 0.00769614 0.00511205 0.00309358 0.00164252 0.000712754 0.000215466 2.72588e-05 1.48417e-28 0 0.000437481 0.00163607 0.00342638 0.00564906 0.00816653 0.0108707 0.0136878 0.0165831 0.0195589 0.0226552 0.0259425 0.0295092 0.0334554 0.0378806 0.0428688 0.0484812 0.0547475 0.0616561 0.0691507 0.077126 0.08543 0.0938634 0.102195 0.110171 0.117516 0.123899 0.129099 0.132888 0.135109 0.135494 0.134176 0.130955 0.125969 0.119343 0.11126 0.101972 0.0917593 0.0809285 0.0698327 0.0588026 0.0481368 0.0381372 0.0290537 0.0210786 0.0143453 0.00893052 0.0048508 0.00206703 0.000492019 5.18924e-27 0 0.000895087 0.00346035 0.00750848 0.0128447 0.0192839 0.026657 0.0348168 0.0436438 0.0530454 0.0629575 0.073341 0.0841702 0.0954273 0.107095 0.119141 0.131514 0.144134 0.15689 0.169626 0.182168 0.19429 0.205736 0.21623 0.225481 0.233198 0.239054 0.242881 0.244332 0.243383 0.239974 0.233897 0.2254 0.214558 0.201586 0.186774 0.170473 0.153086 0.135024 0.11675 0.0987102 0.081312 0.064963 0.0500158 0.0367543 0.025396 0.0160911 0.00891816 0.00388777 0.000949201 1.01472e-26 0 0.00133817 0.00522742 0.0114658 0.0198244 0.030073 0.0419838 0.0553388 0.0699356 0.0855897 0.102135 0.119423 0.137318 0.155686 0.174393 0.193294 0.212215 0.230989 0.249401 0.26721 0.284152 0.299936 0.314255 0.326789 0.337218 0.345238 0.350609 0.352916 0.352057 0.348205 0.340775 0.330234 0.316588 0.300055 0.280936 0.259617 0.236544 0.212227 0.187191 0.162004 0.137203 0.113317 0.0908508 0.0702512 0.0518915 0.0360711 0.0230111 0.0128507 0.00564897 0.0013916 1.49443e-26 0 0.00175976 0.00690944 0.0152355 0.0264768 0.0403612 0.0566051 0.074923 0.0950338 0.116664 0.139551 0.163441 0.18809 0.213252 0.238681 0.264107 0.289289 0.313929 0.33772 0.36034 0.381448 0.40069 0.417704 0.432133 0.443633 0.451884 0.456896 0.457186 0.454818 0.447517 0.43652 0.421643 0.403075 0.381113 0.356144 0.32864 0.299142 0.26825 0.236604 0.204878 0.173674 0.143648 0.115392 0.0894397 0.0662509 0.0462019 0.0295814 0.0165862 0.00732284 0.00181224 1.95051e-26 0 0.00215324 0.00848002 0.0187585 0.0326974 0.0499864 0.0702906 0.093261 0.118543 0.14578 0.174615 0.2047 0.235685 0.26722 0.298935 0.330491 0.361525 0.391644 0.420456 0.447555 0.47253 0.494967 0.514458 0.530608 0.543052 0.551616 0.555659 0.554959 0.550228 0.540119 0.525645 0.506685 0.4835 0.456457 0.426023 0.392753 0.357275 0.320273 0.282494 0.244694 0.207547 0.171824 0.138197 0.107278 0.0796055 0.0556284 0.0356981 0.0200659 0.00888296 0.0022045 2.37582e-26 0 0.00251244 0.00991458 0.0219792 0.0383882 0.0587972 0.0828246 0.110064 0.140093 0.172477 0.206777 0.242551 0.279354 0.316739 0.354216 0.391394 0.427785 0.462914 0.496307 0.527483 0.555964 0.581285 0.602993 0.620665 0.633912 0.642761 0.645678 0.644227 0.637114 0.624453 0.60675 0.584022 0.556595 0.524899 0.489474 0.450947 0.410028 0.367479 0.324139 0.280821 0.238285 0.197399 0.158905 0.123484 0.0917442 0.0642017 0.0412647 0.0232348 0.0103047 0.0025622 2.76369e-26 0 0.00283173 0.0111907 0.0248472 0.0434599 0.0666553 0.0940104 0.125068 0.159345 0.196338 0.235531 0.276399 0.318411 0.361026 0.403661 0.445859 0.487028 0.526618 0.564079 0.598863 0.630437 0.658284 0.681915 0.70088 0.714778 0.723843 0.725591 0.723528 0.714138 0.699181 0.678555 0.652438 0.621208 0.585359 0.545492 0.502304 0.456567 0.409117 0.360869 0.312686 0.265405 0.21997 0.177187 0.137799 0.102475 0.0717863 0.0461933 0.0260428 0.0115657 0.0028797 3.10804e-26 0 0.00310612 0.0122885 0.0273175 0.0478329 0.0734372 0.103673 0.138038 0.175997 0.216987 0.260424 0.305712 0.352242 0.399385 0.446493 0.493028 0.538321 0.581751 0.622702 0.66057 0.694769 0.724743 0.749971 0.769983 0.784378 0.793478 0.794299 0.791474 0.780126 0.763118 0.739923 0.710847 0.676318 0.636882 0.593195 0.546009 0.496157 0.444527 0.392101 0.339785 0.288477 0.23918 0.192755 0.15 0.111629 0.0782626 0.0504061 0.0284457 0.012646 0.00315201 3.40348e-26 0 0.00333133 0.0131909 0.0293514 0.0514386 0.0790365 0.11166 0.14877 0.189789 0.234101 0.281068 0.330031 0.380315 0.431217 0.482035 0.532159 0.580856 0.627443 0.671251 0.711625 0.74794 0.779606 0.806079 0.826872 0.841701 0.850354 0.850905 0.846828 0.834081 0.815245 0.789877 0.758323 0.721053 0.678657 0.631834 0.581381 0.528174 0.473153 0.417349 0.361696 0.307138 0.254726 0.205366 0.159895 0.119062 0.0835283 0.0538367 0.0304056 0.0135285 0.00337482 3.64541e-26 0 0.00350384 0.0138837 0.0309171 0.0542204 0.0833654 0.117846 0.157097 0.200504 0.247413 0.29714 0.348975 0.402193 0.456024 0.509728 0.562636 0.613961 0.662972 0.708954 0.751217 0.789103 0.821998 0.849341 0.870636 0.885711 0.893853 0.89416 0.888955 0.875057 0.854731 0.827623 0.794111 0.7547 0.710017 0.660793 0.607855 0.552117 0.494545 0.43621 0.378069 0.321103 0.266376 0.214827 0.167328 0.124656 0.0875005 0.0564309 0.0318915 0.0141993 0.00354464 3.83003e-26 0 0.00362095 0.0143563 0.03199 0.056135 0.0863561 0.122135 0.162887 0.207974 0.256714 0.308387 0.362248 0.417529 0.473416 0.529138 0.583979 0.637112 0.687772 0.735212 0.778714 0.8176 0.85124 0.879063 0.900572 0.915695 0.923281 0.923429 0.917572 0.902948 0.881659 0.853401 0.818577 0.777717 0.731475 0.680609 0.625973 0.568502 0.509182 0.449109 0.389269 0.330661 0.274351 0.2213 0.172411 0.12848 0.0902136 0.0582005 0.0329033 0.0146552 0.00365971 3.95446e-26 0 0.00368166 0.0146076 0.0325733 0.0571962 0.088042 0.124587 0.166237 0.212339 0.262189 0.315046 0.370136 0.426664 0.483777 0.540688 0.59664 0.650781 0.702317 0.750479 0.79453 0.833777 0.867584 0.895378 0.916665 0.931491 0.93821 0.937951 0.930672 0.91509 0.89272 0.863406 0.827572 0.785766 0.738647 0.686982 0.631623 0.573501 0.513596 0.452991 0.392659 0.333603 0.276873 0.223423 0.17415 0.129853 0.0912397 0.0589082 0.0333321 0.01486 0.00371452 4.01675e-26 0 0.00368174 0.0146087 0.0325785 0.0572117 0.0880768 0.124653 0.166348 0.212509 0.26243 0.315366 0.370538 0.427144 0.484322 0.541285 0.597265 0.651406 0.702916 0.751024 0.794999 0.834155 0.867863 0.895561 0.916766 0.931529 0.938215 0.937948 0.930646 0.915025 0.892601 0.863226 0.827331 0.785469 0.738306 0.686611 0.631242 0.573128 0.513256 0.452686 0.392396 0.333387 0.27671 0.223313 0.174076 0.129808 0.0912168 0.0588984 0.0333288 0.0148593 0.00371447 4.01593e-26 0 0.00362672 0.0144015 0.0321394 0.0564784 0.0870009 0.123197 0.164484 0.210211 0.259678 0.312137 0.366809 0.422886 0.479498 0.535864 0.591201 0.644653 0.695424 0.742744 0.785886 0.824169 0.856974 0.883754 0.904044 0.918002 0.92359 0.922969 0.915005 0.899172 0.87664 0.847347 0.811729 0.770335 0.723823 0.672946 0.618538 0.561505 0.502813 0.443466 0.384417 0.326648 0.271168 0.218898 0.17069 0.127333 0.0895182 0.0578311 0.0327428 0.0146066 0.00365361 3.95201e-26 0 0.00351223 0.0139497 0.031136 0.0547252 0.0843161 0.119417 0.159463 0.203826 0.251823 0.302726 0.355775 0.410182 0.465096 0.519756 0.573394 0.625178 0.674332 0.720112 0.761811 0.798776 0.830412 0.856194 0.87568 0.889035 0.894273 0.893489 0.885365 0.869763 0.847677 0.819089 0.784428 0.744229 0.