<?xml version="1.0"?>
<VTKFile type="PolyData">
	<PolyData>
		<Piece NumberOfPoints="2601" NumberOfPolys="2500">
			<Points>
				<DataArray type="Float32" NumberOfComponents="3" format="ascii">
 0 0 0 0.02 0 0 0.04 0 0 0.06 0 0 0.08 0 0 0.1 0 0 0.12 0 0 0.14 0 0 0.16 0 0 0.18 0 0 0.2 0 0 0.22 0 0 0.24 0 0 0.26 0 0 0.28 0 0 0.3 0 0 0.32 0 0 0.34 0 0 0.36 0 0 0.38 0 0 0.4 0 0 0.42 0 0 0.44 0 0 0.46 0 0 0.48 0 0 0.5 0 0 0.52 0 0 0.54 0 0 0.56 0 0 0.58 0 0 0.6 0 0 0.62 0 0 0.64 0 0 0.66 0 0 0.68 0 0 0.7 0 0 0.72 0 0 0.74 0 0 0.76 0 0 0.78 0 0 0.8 0 0 0.82 0 0 0.84 0 0 0.86 0 0 0.88 0 0 0.9 0 0 0.92 0 0 0.94 0 0 0.96 0 0 0.98 0 0 1 0 0 0 0.02 0 0.02 0.02 0 0.04 0.02 0 0.06 0.02 0 0.08 0.02 0 0.1 0.02 0 0.12 0.02 0 0.14 0.02 0 0.16 0.02 0 0.18 0.02 0 0.2 0.02 0 0.22 0.02 0 0.24 0.02 0 0.26 0.02 0 0.28 0.02 0 0.3 0.02 0 0.32 0.02 0 0.34 0.02 0 0.36 0.02 0 0.38 0.02 0 0.4 0.02 0 0.42 0.02 0 0.44 0.02 0 0.46 0.02 0 0.48 0.02 0 0.5 0.02 0 0.52 0.02 0 0.54 0.02 0 0.56 0.02 0 0.58 0.02 0 0.6 0.02 0 0.62 0.02 0 0.64 0.02 0 0.66 0.02 0 0.68 0.02 0 0.7 0.02 0 0.72 0.02 0 0.74 0.02 0 0.76 0.02 0 0.78 0.02 0 0.8 0.02 0 0.82 0.02 0 0.84 0.02 0 0.86 0.02 0 0.88 0.02 0 0.9 0.02 0 0.92 0.02 0 0.94 0.02 0 0.96 0.02 0 0.98 0.02 0 1 0.02 0 0 0.04 0 0.02 0.04 0 0.04 0.04 0 0.06 0.04 0 0.08 0.04 0 0.1 0.04 0 0.12 0.04 0 0.14 0.04 0 0.16 0.04 0 0.18 0.04 0 0.2 0.04 0 0.22 0.04 0 0.24 0.04 0 0.26 0.04 0 0.28 0.04 0 0.3 0.04 0 0.32 0.04 0 0.34 0.04 0 0.36 0.04 0 0.38 0.04 0 0.4 0.04 0 0.42 0.04 0 0.44 0.04 0 0.46 0.04 0 0.48 0.04 0 0.5 0.04 0 0.52 0.04 0 0.54 0.04 0 0.56 0.04 0 0.58 0.04 0 0.6 0.04 0 0.62 0.04 0 0.64 0.04 0 0.66 0.04 0 0.68 0.04 0 0.7 0.04 0 0.72 0.04 0 0.74 0.04 0 0.76 0.04 0 0.78 0.04 0 0.8 0.04 0 0.82 0.04 0 0.84 0.04 0 0.86 0.04 0 0.88 0.04 0 0.9 0.04 0 0.92 0.04 0 0.94 0.04 0 0.96 0.04 0 0.98 0.04 0 1 0.04 0 0 0.06 0 0.02 0.06 0 0.04 0.06 0 0.06 0.06 0 0.08 0.06 0 0.1 0.06 0 0.12 0.06 0 0.14 0.06 0 0.16 0.06 0 0.18 0.06 0 0.2 0.06 0 0.22 0.06 0 0.24 0.06 0 0.26 0.06 0 0.28 0.06 0 0.3 0.06 0 0.32 0.06 0 0.34 0.06 0 0.36 0.06 0 0.38 0.06 0 0.4 0.06 0 0.42 0.06 0 0.44 0.06 0 0.46 0.06 0 0.48 0.06 0 0.5 0.06 0 0.52 0.06 0 0.54 0.06 0 0.56 0.06 0 0.58 0.06 0 0.6 0.06 0 0.62 0.06 0 0.64 0.06 0 0.66 0.06 0 0.68 0.06 0 0.7 0.06 0 0.72 0.06 0 0.74 0.06 0 0.76 0.06 0 0.78 0.06 0 0.8 0.06 0 0.82 0.06 0 0.84 0.06 0 0.86 0.06 0 0.88 0.06 0 0.9 0.06 0 0.92 0.06 0 0.94 0.06 0 0.96 0.06 0 0.98 0.06 0 1 0.06 0 0 0.08 0 0.02 0.08 0 0.04 0.08 0 0.06 0.08 0 0.08 0.08 0 0.1 0.08 0 0.12 0.08 0 0.14 0.08 0 0.16 0.08 0 0.18 0.08 0 0.2 0.08 0 0.22 0.08 0 0.24 0.08 0 0.26 0.08 0 0.28 0.08 0 0.3 0.08 0 0.32 0.08 0 0.34 0.08 0 0.36 0.08 0 0.38 0.08 0 0.4 0.08 0 0.42 0.08 0 0.44 0.08 0 0.46 0.08 0 0.48 0.08 0 0.5 0.08 0 0.52 0.08 0 0.54 0.08 0 0.56 0.08 0 0.58 0.08 0 0.6 0.08 0 0.62 0.08 0 0.64 0.08 0 0.66 0.08 0 0.68 0.08 0 0.7 0.08 0 0.72 0.08 0 0.74 0.08 0 0.76 0.08 0 0.78 0.08 0 0.8 0.08 0 0.82 0.08 0 0.84 0.08 0 0.86 0.08 0 0.88 0.08 0 0.9 0.08 0 0.92 0.08 0 0.94 0.08 0 0.96 0.08 0 0.98 0.08 0 1 0.08 0 0 0.1 0 0.02 0.1 0 0.04 0.1 0 0.06 0.1 0 0.08 0.1 0 0.1 0.1 0 0.12 0.1 0 0.14 0.1 0 0.16 0.1 0 0.18 0.1 0 0.2 0.1 0 0.22 0.1 0 0.24 0.1 0 0.26 0.1 0 0.28 0.1 0 0.3 0.1 0 0.32 0.1 0 0.34 0.1 0 0.36 0.1 0 0.38 0.1 0 0.4 0.1 0 0.42 0.1 0 0.44 0.1 0 0.46 0.1 0 0.48 0.1 0 0.5 0.1 0 0.52 0.1 0 0.54 0.1 0 0.56 0.1 0 0.58 0.1 0 0.6 0.1 0 0.62 0.1 0 0.64 0.1 0 0.66 0.1 0 0.68 0.1 0 0.7 0.1 0 0.72 0.1 0 0.74 0.1 0 0.76 0.1 0 0.78 0.1 0 0.8 0.1 0 0.82 0.1 0 0.84 0.1 0 0.86 0.1 0 0.88 0.1 0 0.9 0.1 0 0.92 0.1 0 0.94 0.1 0 0.96 0.1 0 0.98 0.1 0 1 0.1 0 0 0.12 0 0.02 0.12 0 0.04 0.12 0 0.06 0.12 0 0.08 0.12 0 0.1 0.12 0 0.12 0.12 0 0.14 0.12 0 0.16 0.12 0 0.18 0.12 0 0.2 0.12 0 0.22 0.12 0 0.24 0.12 0 0.26 0.12 0 0.28 0.12 0 0.3 0.12 0 0.32 0.12 0 0.34 0.12 0 0.36 0.12 0 0.38 0.12 0 0.4 0.12 0 0.42 0.12 0 0.44 0.12 0 0.46 0.12 0 0.48 0.12 0 0.5 0.12 0 0.52 0.12 0 0.54 0.12 0 0.56 0.12 0 0.58 0.12 0 0.6 0.12 0 0.62 0.12 0 0.64 0.12 0 0.66 0.12 0 0.68 0.12 0 0.7 0.12 0 0.72 0.12 0 0.74 0.12 0 0.76 0.12 0 0.78 0.12 0 0.8 0.12 0 0.82 0.12 0 0.84 0.12 0 0.86 0.12 0 0.88 0.12 0 0.9 0.12 0 0.92 0.12 0 0.94 0.12 0 0.96 0.12 0 0.98 0.12 0 1 0.12 0 0 0.14 0 0.02 0.14 0 0.04 0.14 0 0.06 0.14 0 0.08 0.14 0 0.1 0.14 0 0.12 0.14 0 0.14 0.14 0 0.16 0.14 0 0.18 0.14 0 0.2 0.14 0 0.22 0.14 0 0.24 0.14 0 0.26 0.14 0 0.28 0.14 0 0.3 0.14 0 0.32 0.14 0 0.34 0.14 0 0.36 0.14 0 0.38 0.14 0 0.4 0.14 0 0.42 0.14 0 0.44 0.14 0 0.46 0.14 0 0.48 0.14 0 0.5 0.14 0 0.52 0.14 0 0.54 0.14 0 0.56 0.14 0 0.58 0.14 0 0.6 0.14 0 0.62 0.14 0 0.64 0.14 0 0.66 0.14 0 0.68 0.14 0 0.7 0.14 0 0.72 0.14 0 0.74 0.14 0 0.76 0.14 0 0.78 0.14 0 0.8 0.14 0 0.82 0.14 0 0.84 0.14 0 0.86 0.14 0 0.88 0.14 0 0.9 0.14 0 0.92 0.14 0 0.94 0.14 0 0.96 0.14 0 0.98 0.14 0 1 0.14 0 0 0.16 0 0.02 0.16 0 0.04 0.16 0 0.06 0.16 0 0.08 0.16 0 0.1 0.16 0 0.12 0.16 0 0.14 0.16 0 0.16 0.16 0 0.18 0.16 0 0.2 0.16 0 0.22 0.16 0 0.24 0.16 0 0.26 0.16 0 0.28 0.16 0 0.3 0.16 0 0.32 0.16 0 0.34 0.16 0 0.36 0.16 0 0.38 0.16 0 0.4 0.16 0 0.42 0.16 0 0.44 0.16 0 0.46 0.16 0 0.48 0.16 0 0.5 0.16 0 0.52 0.16 0 0.54 0.16 0 0.56 0.16 0 0.58 0.16 0 0.6 0.16 0 0.62 0.16 0 0.64 0.16 0 0.66 0.16 0 0.68 0.16 0 0.7 0.16 0 0.72 0.16 0 0.74 0.16 0 0.76 0.16 0 0.78 0.16 0 0.8 0.16 0 0.82 0.16 0 0.84 0.16 0 0.86 0.16 0 0.88 0.16 0 0.9 0.16 0 0.92 0.16 0 0.94 0.16 0 0.96 0.16 0 0.98 0.16 0 1 0.16 0 0 0.18 0 0.02 0.18 0 0.04 0.18 0 0.06 0.18 0 0.08 0.18 0 0.1 0.18 0 0.12 0.18 0 0.14 0.18 0 0.16 0.18 0 0.18 0.18 0 0.2 0.18 0 0.22 0.18 0 0.24 0.18 0 0.26 0.18 0 0.28 0.18 0 0.3 0.18 0 0.32 0.18 0 0.34 0.18 0 0.36 0.18 0 0.38 0.18 0 0.4 0.18 0 0.42 0.18 0 0.44 0.18 0 0.46 0.18 0 0.48 0.18 0 0.5 0.18 0 0.52 0.18 0 0.54 0.18 0 0.56 0.18 0 0.58 0.18 0 0.6 0.18 0 0.62 0.18 0 0.64 0.18 0 0.66 0.18 0 0.68 0.18 0 0.7 0.18 0 0.72 0.18 0 0.74 0.18 0 0.76 0.18 0 0.78 0.18 0 0.8 0.18 0 0.82 0.18 0 0.84 0.18 0 0.86 0.18 0 0.88 0.18 0 0.9 0.18 0 0.92 0.18 0 0.94 0.18 0 0.96 0.18 0 0.98 0.18 0 1 0.18 0 0 0.2 0 0.02 0.2 0 0.04 0.2 0 0.06 0.2 0 0.08 0.2 0 0.1 0.2 0 0.12 0.2 0 0.14 0.2 0 0.16 0.2 0 0.18 0.2 0 0.2 0.2 0 0.22 0.2 0 0.24 0.2 0 0.26 0.2 0 0.28 0.2 0 0.3 0.2 0 0.32 0.2 0 0.34 0.2 0 0.36 0.2 0 0.38 0.2 0 0.4 0.2 0 0.42 0.2 0 0.44 0.2 0 0.46 0.2 0 0.48 0.2 0 0.5 0.2 0 0.52 0.2 0 0.54 0.2 0 0.56 0.2 0 0.58 0.2 0 0.6 0.2 0 0.62 0.2 0 0.64 0.2 0 0.66 0.2 0 0.68 0.2 0 0.7 0.2 0 0.72 0.2 0 0.74 0.2 0 0.76 0.2 0 0.78 0.2 0 0.8 0.2 0 0.82 0.2 0 0.84 0.2 0 0.86 0.2 0 0.88 0.2 0 0.9 0.2 0 0.92 0.2 0 0.94 0.2 0 0.96 0.2 0 0.98 0.2 0 1 0.2 0 0 0.22 0 0.02 0.22 0 0.04 0.22 0 0.06 0.22 0 0.08 0.22 0 0.1 0.22 0 0.12 0.22 0 0.14 0.22 0 0.16 0.22 0 0.18 0.22 0 0.2 0.22 0 0.22 0.22 0 0.24 0.22 0 0.26 0.22 0 0.28 0.22 0 0.3 0.22 0 0.32 0.22 0 0.34 0.22 0 0.36 0.22 0 0.38 0.22 0 0.4 0.22 0 0.42 0.22 0 0.44 0.22 0 0.46 0.22 0 0.48 0.22 0 0.5 0.22 0 0.52 0.22 0 0.54 0.22 0 0.56 0.22 0 0.58 0.22 0 0.6 0.22 0 0.62 0.22 0 0.64 0.22 0 0.66 0.22 0 0.68 0.22 0 0.7 0.22 0 0.72 0.22 0 0.74 0.22 0 0.76 0.22 0 0.78 0.22 0 0.8 0.22 0 0.82 0.22 0 0.84 0.22 0 0.86 0.22 0 0.88 0.22 0 0.9 0.22 0 0.92 0.22 0 0.94 0.22 0 0.96 0.22 0 0.98 0.22 0 1 0.22 0 0 0.24 0 0.02 0.24 0 0.04 0.24 0 0.06 0.24 0 0.08 0.24 0 0.1 0.24 0 0.12 0.24 0 0.14 0.24 0 0.16 0.24 0 0.18 0.24 0 0.2 0.24 0 0.22 0.24 0 0.24 0.24 0 0.26 0.24 0 0.28 0.24 0 0.3 0.24 0 0.32 0.24 0 0.34 0.24 0 0.36 0.24 0 0.38 0.24 0 0.4 0.24 0 0.42 0.24 0 0.44 0.24 0 0.46 0.24 0 0.48 0.24 0 0.5 0.24 0 0.52 0.24 0 0.54 0.24 0 0.56 0.24 0 0.58 0.24 0 0.6 0.24 0 0.62 0.24 0 0.64 0.24 0 0.66 0.24 0 0.68 0.24 0 0.7 0.24 0 0.72 0.24 0 0.74 0.24 0 0.76 0.24 0 0.78 0.24 0 0.8 0.24 0 0.82 0.24 0 0.84 0.24 0 0.86 0.24 0 0.88 0.24 0 0.9 0.24 0 0.92 0.24 0 0.94 0.24 0 0.96 0.24 0 0.98 0.24 0 1 0.24 0 0 0.26 0 0.02 0.26 0 0.04 0.26 0 0.06 0.26 0 0.08 0.26 0 0.1 0.26 0 0.12 0.26 0 0.14 0.26 0 0.16 0.26 0 0.18 0.26 0 0.2 0.26 0 0.22 0.26 0 0.24 0.26 0 0.26 0.26 0 0.28 0.26 0 0.3 0.26 0 0.32 0.26 0 0.34 0.26 0 0.36 0.26 0 0.38 0.26 0 0.4 0.26 0 0.42 0.26 0 0.44 0.26 0 0.46 0.26 0 0.48 0.26 0 0.5 0.26 0 0.52 0.26 0 0.54 0.26 0 0.56 0.26 0 0.58 0.26 0 0.6 0.26 0 0.62 0.26 0 0.64 0.26 0 0.66 0.26 0 0.68 0.26 0 0.7 0.26 0 0.72 0.26 0 0.74 0.26 0 0.76 0.26 0 0.78 0.26 0 0.8 0.26 0 0.82 0.26 0 0.84 0.26 0 0.86 0.26 0 0.88 0.26 0 0.9 0.26 0 0.92 0.26 0 0.94 0.26 0 0.96 0.26 0 0.98 0.26 0 1 0.26 0 0 0.28 0 0.02 0.28 0 0.04 0.28 0 0.06 0.28 0 0.08 0.28 0 0.1 0.28 0 0.12 0.28 0 0.14 0.28 0 0.16 0.28 0 0.18 0.28 0 0.2 0.28 0 0.22 0.28 0 0.24 0.28 0 0.26 0.28 0 0.28 0.28 0 0.3 0.28 0 0.32 0.28 0 0.34 0.28 0 0.36 0.28 0 0.38 0.28 0 0.4 0.28 0 0.42 0.28 0 0.44 0.28 0 0.46 0.28 0 0.48 0.28 0 0.5 0.28 0 0.52 0.28 0 0.54 0.28 0 0.56 0.28 0 0.58 0.28 0 0.6 0.28 0 0.62 0.28 0 0.64 0.28 0 0.66 0.28 0 0.68 0.28 0 0.7 0.28 0 0.72 0.28 0 0.74 0.28 0 0.76 0.28 0 0.78 0.28 0 0.8 0.28 0 0.82 0.28 0 0.84 0.28 0 0.86 0.28 0 0.88 0.28 0 0.9 0.28 0 0.92 0.28 0 0.94 0.28 0 0.96 0.28 0 0.98 0.28 0 1 0.28 0 0 0.3 0 0.02 0.3 0 0.04 0.3 0 0.06 0.3 0 0.08 0.3 0 0.1 0.3 0 0.12 0.3 0 0.14 0.3 0 0.16 0.3 0 0.18 0.3 0 0.2 0.3 0 0.22 0.3 0 0.24 0.3 0 0.26 0.3 0 0.28 0.3 0 0.3 0.3 0 0.32 0.3 0 0.34 0.3 0 0.36 0.3 0 0.38 0.3 0 0.4 0.3 0 0.42 0.3 0 0.44 0.3 0 0.46 0.3 0 0.48 0.3 0 0.5 0.3 0 0.52 0.3 0 0.54 0.3 0 0.56 0.3 0 0.58 0.3 0 0.6 0.3 0 0.62 0.3 0 0.64 0.3 0 0.66 0.3 0 0.68 0.3 0 0.7 0.3 0 0.72 0.3 0 0.74 0.3 0 0.76 0.3 0 0.78 0.3 0 0.8 0.3 0 0.82 0.3 0 0.84 0.3 0 0.86 0.3 0 0.88 0.3 0 0.9 0.3 0 0.92 0.3 0 0.94 0.3 0 0.96 0.3 0 0.98 0.3 0 1 0.3 0 0 0.32 0 0.02 0.32 0 0.04 0.32 0 0.06 0.32 0 0.08 0.32 0 0.1 0.32 0 0.12 0.32 0 0.14 0.32 0 0.16 0.32 0 0.18 0.32 0 0.2 0.32 0 0.22 0.32 0 0.24 0.32 0 0.26 0.32 0 0.28 0.32 0 0.3 0.32 0 0.32 0.32 0 0.34 0.32 0 0.36 0.32 0 0.38 0.32 0 0.4 0.32 0 0.42 0.32 0 0.44 0.32 0 0.46 0.32 0 0.48 0.32 0 0.5 0.32 0 0.52 0.32 0 0.54 0.32 0 0.56 0.32 0 0.58 0.32 0 0.6 0.32 0 0.62 0.32 0 0.64 0.32 0 0.66 0.32 0 0.68 0.32 0 0.7 0.32 0 0.72 0.32 0 0.74 0.32 0 0.76 0.32 0 0.78 0.32 0 0.8 0.32 0 0.82 0.32 0 0.84 0.32 0 0.86 0.32 0 0.88 0.32 0 0.9 0.32 0 0.92 0.32 0 0.94 0.
[...]
			<PointData Scalars="VitesseX">
				<DataArray Name="VitesseX" type="Float32" format="ascii">
 0 0 0 0 0 0 0 0 0 0 0 0 0 0 0 0 0 0 0 0 0 0 0 0 0 0 0 0 0 0 0 0 0 0 0 0 0 0 0 0 0 0 0 0 0 0 0 0 0 0 0 0 0.000137848 0.000549188 0.00122757 0.00216222 0.00333841 0.00473756 0.00633761 0.00811332 0.0100367 0.0120774 0.0142034 0.016381 0.0185759 0.0207536 0.0228798 0.024921 0.0268449 0.0286214 0.0302223 0.0316224 0.0327997 0.0337355 0.0344151 0.0348289 0.0349668 0.0348297 0.0344198 0.0337408 0.0328064 0.0316303 0.030231 0.0286307 0.0268545 0.0249305 0.022889 0.0207622 0.0185837 0.0163879 0.0142094 0.0120824 0.0100407 0.00811633 0.00633978 0.00473903 0.00333932 0.00216274 0.00122781 0.000549295 0.000137863 1.49571e-27 0 0.000273479 0.00108943 0.00243505 0.00428878 0.00662131 0.00939577 0.0125684 0.0160891 0.0199024 0.0239484 0.0281634 0.032481 0.036833 0.0411513 0.0453682 0.0494173 0.0532347 0.0567604 0.0599389 0.06272 0.0650598 0.0669215 0.0682754 0.0691047 0.0693819 0.0691174 0.0683128 0.0669696 0.065121 0.0627919 0.0600189 0.0568457 0.0533224 0.0495045 0.0454525 0.0412302 0.0369046 0.0325442 0.0282177 0.0239932 0.0199379 0.016116 0.0125876 0.00940867 0.00662923 0.00429309 0.00243702 0.00109015 0.000273576 2.96776e-27 0 0.000404761 0.00161226 0.00360354 0.00634644 0.00979749 0.0139021 0.0185953 0.0238033 0.0294441 0.0354288 0.0416636 0.0480505 0.0544884 0.060877 0.0671166 0.0731087 0.0787592 0.0839793 0.0886866 0.0928072 0.096276 0.099038 0.101049 0.102288 0.102702 0.10232 0.101138 0.0991537 0.0964232 0.0929804 0.0888793 0.0841846 0.0789702 0.0733186 0.0673192 0.0610669 0.0546607 0.0482026 0.0417942 0.0355366 0.0295295 0.023868 0.0186417 0.0139331 0.00981647 0.00635674 0.00360822 0.00161395 0.000404988 4.39291e-27 0 0.000529626 0.00210943 0.00471462 0.00830275 0.0128169 0.0181854 0.0243235 0.0311345 0.0385112 0.0463377 0.0544912 0.062844 0.0712637 0.0796196 0.0877818 0.0956215 0.103016 0.109849 0.116013 0.12141 0.125957 0.129579 0.13222 0.133855 0.134403 0.133913 0.132379 0.129787 0.126222 0.121723 0.11636 0.11022 0.103397 0.0960008 0.0881478 0.0799625 0.0715747 0.0631186 0.0547269 0.0465321 0.0386652 0.0312511 0.024407 0.0182413 0.0128511 0.00832129 0.00472302 0.00211245 0.000530028 5.74871e-27 0 0.000646107 0.00257312 0.00575078 0.0101269 0.0156318 0.0221782 0.0296626 0.0379669 0.0469607 0.0565029 0.066444 0.0766283 0.0868944 0.0970836 0.107039 0.116602 0.125623 0.133962 0.141487 0.148079 0.153633 0.158063 0.161296 0.163307 0.163983 0.1634 0.161542 0.158388 0.154047 0.148566 0.142029 0.134541 0.126218 0.117194 0.10761 0.0976192 0.0873801 0.077057 0.0668117 0.0568062 0.0472011 0.0381488 0.0297928 0.0222653 0.0156851 0.0101557 0.00576383 0.00257779 0.000646727 7.0138e-27 0 0.00075237 0.00299604 0.0066957 0.0117901 0.0181981 0.0258176 0.0345283 0.0441929 0.0546596 0.0657644 0.0773335 0.0891859 0.101134 0.112994 0.124583 0.135718 0.146224 0.155938 0.164706 0.17239 0.178868 0.184039 0.187818 0.190179 0.190976 0.190315 0.188167 0.184503 0.179459 0.173085 0.165479 0.156763 0.147073 0.136562 0.125398 0.113759 0.101828 0.089798 0.0778581 0.0661972 0.0550027 0.0444525 0.0347142 0.0259419 0.018274 0.0118312 0.00671424 0.00300262 0.000753243 8.16826e-27 0 0.000846744 0.00337154 0.00753451 0.0132662 0.0204751 0.0290463 0.0388441 0.0497145 0.0614866 0.0739761 0.0869879 0.100319 0.113759 0.1271 0.140139 0.152668 0.164494 0.175429 0.185303 0.193961 0.201265 0.207098 0.211368 0.214048 0.214957 0.214232 0.211834 0.207722 0.202058 0.194894 0.186342 0.176537 0.165632 0.153801 0.141232 0.128126 0.11469 0.101141 0.0876922 0.0745568 0.0619467 0.0500626 0.0390935 0.0292128 0.0205768 0.0133212 0.00755926 0.00338025 0.000847898 9.19394e-27 0 0.000927743 0.0036937 0.008254 0.014532 0.022427 0.0318132 0.042542 0.0544445 0.0673339 0.0810085 0.095255 0.109852 0.124568 0.139179 0.15346 0.167186 0.180143 0.192129 0.202956 0.212453 0.22047 0.226878 0.231575 0.234535 0.235548 0.234775 0.232169 0.227678 0.221487 0.21365 0.204289 0.19355 0.181604 0.16864 0.154863 0.140494 0.125763 0.110907 0.0961586 0.0817534 0.067924 0.0548909 0.0428616 0.0320267 0.0225574 0.0146023 0.00828557 0.00370472 0.000929199 1.00747e-26 0 0.000994094 0.00395748 0.00884284 0.0155674 0.0240231 0.034075 0.0455638 0.0583086 0.0721092 0.0867505 0.102004 0.117635 0.133394 0.149041 0.164337 0.179042 0.192927 0.205776 0.217386 0.227574 0.236181 0.243066 0.24812 0.251318 0.252424 0.251618 0.248852 0.244056 0.23744 0.229057 0.219037 0.207536 0.194738 0.180845 0.166076 0.15067 0.134873 0.11894 0.103123 0.0876728 0.0728402 0.0588612 0.0459592 0.034339 0.0241843 0.0156542 0.00888172 0.00397092 0.000995866 1.07966e-26 0 0.00104475 0.00415871 0.00929174 0.0163562 0.0252383 0.0357958 0.0478617 0.0612456 0.0757376 0.0911121 0.107131 0.123545 0.140095 0.156529 0.172599 0.188051 0.202644 0.216153 0.228364 0.239085 0.248148 0.255406 0.260741 0.26413 0.265319 0.264496 0.261619 0.256599 0.249666 0.240872 0.230353 0.218273 0.204825 0.190221 0.174693 0.158493 0.141878 0.125117 0.108477 0.092222 0.0766174 0.0619108 0.0483374 0.0361135 0.025432 0.0164605 0.00933829 0.00417465 0.00104685 1.13484e-26 0 0.00107899 0.00429476 0.00959531 0.0168898 0.0260605 0.0369605 0.049417 0.0632336 0.0781939 0.0940652 0.110601 0.127546 0.144631 0.161599 0.178193 0.19415 0.209223 0.223177 0.235794 0.246875 0.256244 0.263751 0.269275 0.27279 0.27403 0.273206 0.270268 0.265107 0.25797 0.248906 0.238057 0.225591 0.211705 0.196622 0.18058 0.163839 0.146665 0.12934 0.112138 0.0953318 0.079197 0.0639918 0.0499589 0.037322 0.0262808 0.0170082 0.00964809 0.00431269 0.00108134 1.17215e-26 0 0.001096 0.00436145 0.00974213 0.0171446 0.0264484 0.0375041 0.0501358 0.0641444 0.0793115 0.0954015 0.112166 0.129346 0.146672 0.163885 0.180723 0.196922 0.212233 0.226417 0.239254 0.250543 0.260103 0.26778 0.27345 0.277081 0.278419 0.277624 0.274699 0.269499 0.262289 0.253113 0.242116 0.229467 0.215367 0.200041 0.183733 0.166707 0.149236 0.131606 0.114101 0.0969979 0.0805742 0.0650988 0.0508184 0.0379592 0.0267256 0.0172933 0.00980816 0.00438345 0.00109887 1.19098e-26 0 0.001096 0.00436142 0.00974196 0.0171441 0.0264474 0.0375022 0.0501326 0.0641395 0.0793046 0.0953925 0.112154 0.129333 0.146659 0.163868 0.180705 0.196905 0.212216 0.226402 0.239242 0.250533 0.260095 0.267776 0.273448 0.277081 0.278419 0.277624 0.274701 0.269502 0.262293 0.253119 0.242123 0.229475 0.215376 0.20005 0.183742 0.166716 0.149246 0.131615 0.114108 0.0970025 0.0805781 0.0651009 0.050819 0.03796 0.0267263 0.0172937 0.00980825 0.00438348 0.00109888 1.19105e-26 0 0.00107848 0.00429077 0.00958203 0.0168592 0.026003 0.0368658 0.0492743 0.0630331 0.0779283 0.0937293 0.110192 0.127068 0.144091 0.161003 0.177554 0.193484 0.208552 0.222522 0.235177 0.246317 0.255766 0.263371 0.269007 0.272636 0.274028 0.273309 0.270529 0.265482 0.258453 0.249478 0.238696 0.226274 0.212409 0.197321 0.181256 0.164473 0.147244 0.129851 0.112574 0.0956912 0.0794815 0.0642057 0.0501112 0.0374234 0.0263424 0.017041 0.00966231 0.004317 0.00108188 1.17236e-26 0 0.00104402 0.00415292 0.00927244 0.0163117 0.0251546 0.0356577 0.0476534 0.060953 0.0753497 0.0906211 0.106534 0.122845 0.139301 0.155657 0.171666 0.18708 0.201667 0.215199 0.227465 0.238274 0.247453 0.254854 0.260353 0.263908 0.265316 0.26464 0.261979 0.257118 0.250335 0.241664 0.231239 0.219222 0.205803 0.191197 0.175637 0.159378 0.142684 0.125833 0.109088 0.0927228 0.0770132 0.06221 0.048551 0.0362547 0.0255174 0.0165059 0.009358 0.00418061 0.0010476 1.1352e-26 0 0.000993078 0.00394947 0.00881616 0.0155058 0.0239073 0.0338837 0.0452757 0.057904 0.0715728 0.0860709 0.10118 0.116669 0.132296 0.147832 0.163045 0.177701 0.191577 0.204458 0.216145 0.226454 0.235221 0.242303 0.247583 0.251012 0.25242 0.251818 0.249347 0.24477 0.238359 0.230146 0.220254 0.208839 0.196081 0.182184 0.167372 0.151886 0.135979 0.119919 0.103961 0.0883593 0.0733816 0.0592709 0.0462517 0.0345334 0.0243018 0.0157166 0.00890875 0.0039791 0.000996897 1.08016e-26 0 0.00092646 0.00368359 0.00822038 0.0144543 0.0222809 0.0315719 0.0421786 0.0539344 0.0666571 0.0801506 0.0942131 0.108632 0.123185 0.137655 0.15183 0.165495 0.178441 0.190469 0.201392 0.211042 0.219262 0.225919 0.230901 0.234154 0.235544 0.23503 0.232792 0.228576 0.222642 0.215018 0.205819 0.195187 0.183291 0.170322 0.15649 0.142021 0.127152 0.112132 0.0972067 0.0826165 0.0686057 0.0554059 0.0432291 0.0322708 0.0227046 0.0146804 0.0083195 0.00371497 0.000930493 1.00809e-26 0 0.000845214 0.00335948 0.00749446 0.0131737 0.0203009 0.0287586 0.038411 0.0491067 0.0606802 0.0729543 0.0857457 0.0988648 0.112111 0.125285 0.138199 0.150656 0.162467 0.173451 0.183442 0.192282 0.199828 0.205959 0.210568 0.213599 0.214953 0.214542 0.212576 0.208791 0.203432 0.196521 0.188161 0.178481 0.167636 0.1558 0.143164 0.129938 0.116339 0.102596 0.0889352 0.0755813 0.062757 0.0506737 0.0395292 0.0295022 0.0207516 0.0134139 0.00759954 0.00339242 0.000849433 9.20147e-27 0 0.000750617 0.00298223 0.00664985 0.0116842 0.0179986 0.0254881 0.0340323 0.043497 0.0537363 0.0645961 0.0759136 0.0875218 0.0992474 0.110916 0.122363 0.133415 0.143905 0.153675 0.162577 0.17047 0.177227 0.182738 0.186907 0.189673 0.190972 0.190678 0.189017 0.185729 0.181032 0.174946 0.167559 0.158986 0.149363 0.138845 0.127604 0.115828 0.103712 0.0914605 0.0792781 0.0673669 0.0559274 0.0451494 0.0352114 0.0262726 0.018474 0.0119372 0.00676022 0.00301651 0.000754996 8.17698e-27 0 0.000644158 0.00255776 0.00569984 0.0100093 0.0154102 0.0218121 0.0291113 0.0371936 0.045935 0.055206 0.0648684 0.0747805 0.0847989 0.0947775 0.104575 0.114044 0.123049 0.131452 0.139126 0.14595 0.151815 0.156623 0.16029 0.162754 0.16398 0.163815 0.162488 0.159752 0.155796 0.150632 0.144338 0.137008 0.128759 0.119725 0.110056 0.0999136 0.0894687 0.0788999 0.0683857 0.0581024 0.0482263 0.0389219 0.0303439 0.0226317 0.0159066 0.0102732 0.00581477 0.00259318 0.000648671 7.0236e-27 0 0.000527512 0.00209276 0.00465939 0.00817524 0.0125766 0.0177884 0.0237259 0.0302961 0.0373988 0.0449309 0.0527833 0.0608415 0.0689926 0.0771209 0.0851127 0.092852 0.100229 0.107133 0.113459 0.119109 0.123993 0.128026 0.131137 0.133266 0.1344 0.134377 0.133406 0.131271 0.12812 0.123964 0.118863 0.112893 0.10615 0.0987427 0.0907964 0.0824461 0.073835 0.0651127 0.05643 0.0479344 0.0397742 0.0320876 0.0250031 0.0186374 0.0130906 0.00844822 0.0047781 0.0021291 0.000532133 5.75947e-27 0 0.000402516 0.00159455 0.0035449 0.00621106 0.00954236 0.0134805 0.0179607 0.0229131 0.0282635 0.0339344 0.0398488 0.0459247 0.0520777 0.0582244 0.0642832 0.0701701 0.0758026 0.081099 0.0859805 0.0903704 0.0941979 0.0973969 0.099908 0.10168 0.10269 0.102841 0.102222 0.100738 0.0984426 0.0953618 0.091537 0.0870233 0.0818917 0.0762279 0.0701289 0.0637009 0.0570573 0.0503168 0.0435996 0.0370233 0.0307049 0.0247546 0.0192737 0.0143529 0.0100704 0.00649132 0.00366659 0.0016316 0.000407219 4.4045e-27 0 0.000271138 0.00107097 0.00237393 0.00414769 0.00635538 0.00895636 0.0119069 0.0151611 0.0186724 0.022392 0.0262719 0.0302647 0.0343206 0.0383878 0.0424171 0.0463568 0.0501562 0.0537629 0.0571237 0.0601865 0.0629013 0.0652194 0.0670951 0.0684875 0.0693657 0.0696856 0.0694413 0.0686293 0.0672326 0.0652794 0.0627929 0.0598066 0.0563673 0.0525358 0.0483793 0.0439735 0.0394003 0.0347455 0.0300971 0.0255409 0.0211616 0.017039 0.0132457 0.00984577 0.0068937 0.00443325 0.00249779 0.00110853 0.0002759 2.98003e-27 0 0.000135449 0.00053026 0.00116494 0.00201768 0.00306597 0.0042874 0.00565997 0.00716281 0.00877657 0.0104842 0.0122675 0.0141115 0.0160034 0.0179248 0.0198595 0.0217886 0.0236949 0.025556 0.0273446 0.0290345 0.0305969 0.0320009 0.0332157 0.0342106 0.0349562 0.0354228 0.0355901 0.0354454 0.0349812 0.0341886 0.0330808 0.0316714 0.02998 0.0280402 0.0258907 0.023575 0.0211422 0.0186444 0.0161355 0.0136685 0.0112947 0.00906217 0.00701405 0.00518698 0.00361039 0.00230638 0.0012901 0.000568125 0.000140246 1.50848e-27 0 -2.39562e-06 -1.89114e-05 -6.25663e-05 -0.000144417 -0.000272255 -0.000449967 -0.000677407 -0.000950287 -0.00125969 -0.0015935 -0.00193565 -0.00226801 -0.00257141 -0.00282725 -0.00301775 -0.00312833 -0.00314558 -0.00305967 -0.00286993 -0.00257835 -0.00219239 -0.00172385 -0.00118822 -0.000605789 9.59163e-08 0.000605283 0.00118615 0.0017222 0.00219261 0.00257787 0.00286876 0.0030592 0.0031443 0.00312729 0.0030179 0.00282731 0.00257126 0.00226753 0.00193522 0.0015934 0.00125986 0.000950051 0.000677229 0.000449972 0.000272281 0.000144335 6.25782e-05 1.89191e-05 2.39557e-06 1.30499e-29 0 -0.000140246 -0.000568118 -0.00129008 -0.00230646 -0.00361032 -0.00518696 -0.00701412 -0.0090623 -0.0112946 -0.0136686 -0.0161358 -0.0186437 -0.0211413 -0.0235746 -0.0258899 -0.0280405 -0.0299819 -0.0316727 -0.0330817 -0.034189 -0.0349812 -0.0354468 -0.0355915 -0.0354234 -0.0349567 -0.0342111 -0.0332174 -0.032001 -0.0305962 -0.0290351 -0.0273447 -0.0255565 -0.0236967 -0.0217899 -0.0198593 -0.0179246 -0.0160035 -0.0141127 -0.0122677 -0.0104837 -0.00877656 -0.00716292 -0.00566007 -0.00428739 -0.00306596 -0.00201772 -0.00116494 -0.00053025 -0.000135449 -1.48269e-27 0 -0.0002759 -0.00110852 -0.00249776 -0.0044333 -0.00689366 -0.00984581 -0.0132457 -0.0170391 -0.0211617 -0.0255409 -0.0300968 -0.0347446 -0.0393995 -0.0439732 -0.0483792 -0.0525364 -0.0563691 -0.0598114 -0.0627971 -0.0652816 -0.0672329 -0.0686292 -0.0694414 -0.0696857 -0.0693659 -0.0684879 -0.0670961 -0.0652197 -0.0629017 -0.0601874 -0.0571238 -0.0537612 -0.0501558 -0.0463579 -0.042417 -0.0383878 -0.0343208 -0.0302657 -0.0262732 -0.0223923 -0.0186721 -0.015161 -0.0119068 -0.00895633 -0.00635537 -0.00414774 -0.00237396 -0.00107096 -0.000271138 -2.95514e-27 0 -0.000407219 -0.00163159 -0.00366656 -0.00649139 -0.0100705 -0.014353 -0.0192739 -0.0247548 -0.0307052 -0.0370232 -0.0435992 -0.0503169 -0.0570564 -0.0636998 -0.0701296 -0.0762287 -0.0818918 -0.0870268 -0.0915442 -0.0953673 -0.0984435 -0.100737 -0.102221 -0.102841 -0.10269 -0.10168 -0.0999081 -0.0973972 -0.0941984 -0.0903694 -0.08598 -0.0810984 -0.0758021 -0.0701706 -0.0642832 -0.0582242 -0.0520774 -0.0459245 -0.0398497 -0.0339357 -0.0282635 -0.0229128 -0.0179606 -0.0134805 -0.00954237 -0.00621112 -0.00354496 -0.00159454 -0.000402516 -4.38108e-27 0 -0.000532133 -0.00212909 -0.00477803 -0.00844825 -0.0130907 -0.0186375 -0.0250036 -0.0320878 -0.0397743 -0.047935 -0.0564306 -0.0651129 -0.0738338 -0.0824451 -0.0907971 -0.0987432 -0.10615 -0.112893 -0.118866 -0.123967 -0.128119 -0.131268 -0.133405 -0.134377 -0.1344 -0.133266 -0.131137 -0.128025 -0.123991 -0.119107 -0.113459 -0.107134 -0.100229 -0.0928517 -0.0851117 -0.07712 -0.0689922 -0.060841 -0.0527824 -0.0449311 -0.0373991 -0.0302955 -0.0237256 -0.0177883 -0.0125766 -0.00817531 -0.00465947 -0.00209276 -0.000527512 -5.738e-27 0 -0.000648671 -0.00259317 -0.00581466 -0.010273 -0.0159066 -0.0226316 -0.0303443 -0.0389222 -0.0482263 -0.058103 -0.0683856 -0.0788989 -0.0894686 -0.0999129 -0.110056 -0.119725 -0.128759 -0.137008 -0.144337 -0.150632 -0.155795 -0.15975 -0.162487 -0.163815 -0.16398 -0.162754 -0.16029 -0.156621 -0.151813 -0.145949 -0.139125 -0.131451 -0.123049 -0.114044 -0.104574 -0.0947772 -0.0847984 -0.07478 -0.0648673 -0.0552053 -0.0459348 -0.0371928 -0.0291109 -0.0218119 -0.0154102 -0.0100093 -0.00569992 -0.00255776 -0.000644157 -7.00448e-27 0 -0.000754996 -0.0030165 -0.00676011 -0.011937 -0.0184737 -0.0262723 -0.0352119 -0.0451504 -0.0559276 -0.0673667 -0.0792783 -0.0914602 -0.103712 -0.115827 -0.127603 -0.138844 -0.149363 -0.158986 -0.167558 -0.174945 -0.181032 -0.185728 -0.189017 -0.190678 -0.190972 -0.189673 -0.186907 -0.182737 -0.177227 -0.17047 -0.162577 -0.153676 -0.143903 -0.133414 -0.122364 -0.110917 -0.0992469 -0.0875217 -0.0759139 -0.064596 -0.0537359 -0.0434959 -0.0340316 -0.0254879 -0.0179986 -0.0116843 -0.00664992 -0.00298223 -0.000750616 -8.16051e-27 0 -0.000849433 -0.00339241 -0.00759945 -0.0134138 -0.0207517 -0.0295023 -0.0395295 -0.0506741 -0.0627569 -0.0755811 -0.0889368 -0.102599 -0.11634 -0.129938 -0.143164 -0.155799 -0.167637 -0.178482 -0.188161 -0.19652 -0.203432 -0.208791 -0.212576 -0.214542 -0.214953 -0.213599 -0.210569 -0.205959 -0.199829 -0.192282 -0.183443 -0.173452 -0.162465 -0.150655 -0.138199 -0.125285 -0.11211 -0.0988652 -0.0857478 -0.0729554 -0.0606796 -0.0491054 -0.0384103 -0.0287583 -0.0203008 -0.0131738 -0.00749454 -0.00335949 -0.000845213 -9.18781e-27 0 -0.000930493 -0.00371498 -0.00831943 -0.0146802 -0.0227044 -0.0322704 -0.0432289 -0.0554061 -0.0686066 -0.0826161 -0.0972058 -0.112134 -0.127154 -0.142021 -0.15649 -0.170322 -0.183291 -0.195188 -0.205819 -0.215018 -0.222642 -0.228576 -0.232792 -0.23503 -0.235544 -0.234154 -0.230901 -0.225919 -0.219262 -0.211043 -0.201393 -0.190468 -0.17844 -0.165496 -0.151832 -0.137655 -0.123184 -0.108632 -0.0942142 -0.0801516 -0.0666563 -0.0539331 -0.0421778 -0.0315715 -0.0222808 -0.0144544 -0.00822048 -0.00368361 -0.000926459 -1.00702e-26 0 -0.000996897 -0.0039791 -0.0089087 -0.0157163 -0.0243013 -0.0345331 -0.0462518 -0.0592716 -0.0733841 -0.0883608 -0.103958 -0.119917 -0.13598 -0.151887 -0.167372 -0.182181 -0.19608 -0.20884 -0.220254 -0.230146 -0.238359 -0.24477 -0.249347 -0.251818 -0.25242 -0.251012 -0.247583 -0.242303 -0.235221 -0.226454 -0.216145 -0.204458 -0.191577 -0.177702 -0.163046 -0.147832 -0.132296 -0.116667 -0.101179 -0.086071 -0.0715718 -0.0579029 -0.0452749 -0.0338833 -0.0239072 -0.015506 -0.00881629 -0.00394948 -0.000993076 -1.07936e-26 0 -0.0010476 -0.00418061 -0.00935798 -0.0165057 -0.0255172 -0.0362547 -0.0485505 -0.0622097 -0.0770139 -0.0927244 -0.109086 -0.125829 -0.142683 -0.159379 -0.175638 -0.191196 -0.205803 -0.219221 -0.231238 -0.241665 -0.250336 -0.257119 -0.261979 -0.26464 -0.265316 -0.263908 -0.260353 -0.254854 -0.247454 -0.238274 -0.227465 -0.215199 -0.201668 -0.187081 -0.171665 -0.155655 -0.139301 -0.122844 -0.106534 -0.0906207 -0.075349 -0.0609523 -0.0476528 -0.0356573 -0.0251545 -0.0163118 -0.00927258 -0.00415294 -0.00104402 -1.13467e-26 0 -0.00108188 -0.004317 -0.00966232 -0.0170409 -0.026342 -0.0374233 -0.0501116 -0.0642059 -0.079481 -0.095691 -0.112574 -0.12985 -0.147242 -0.164473 -0.181257 -0.197323 -0.212409 -0.226273 -0.238695 -0.249479 -0.258454 -0.265483 -0.270529 -0.273309 -0.274028 -0.272636 -0.269007 -0.263372 -0.255767 -0.246317 -0.235177 -0.222523 -0.208553 -0.193485 -0.177553 -0.161002 -0.144089 -0.127067 -0.110193 -0.0937289 -0.0779281 -0.0630329 -0.049274 -0.0368654 -0.0260029 -0.0168593 -0.00958214 -0.00429078 -0.00107848 -1.17206e-26 0 -0.00109888 -0.00438348 -0.00980826 -0.0172936 -0.0267259 -0.0379597 -0.0508194 -0.0651016 -0.0805786 -0.0970022 -0.114108 -0.131616 -0.149245 -0.166716 -0.183742 -0.20005 -0.215377 -0.229476 -0.242124 -0.25312 -0.262293 -0.269502 -0.274701 -0.277624 -0.278419 -0.277081 -0.273448 -0.267776 -0.260096 -0.250533 -0.239243 -0.226403 -0.212216 -0.196904 -0.180705 -0.163868 -0.146658 -0.129333 -0.112154 -0.0953921 -0.0793046 -0.0641395 -0.0501325 -0.037502 -0.0264473 -0.0171442 -0.00974204 -0.00436142 -0.001096 -1.19096e-26 0 -0.00109887 -0.00438345 -0.00980816 -0.0172934 -0.0267255 -0.0379586 -0.0508172 -0.0650982 -0.0805739 -0.0969963 -0.114101 -0.131607 -0.149236 -0.166706 -0.183732 -0.20004 -0.215366 -0.229467 -0.242116 -0.253114 -0.262289 -0.269499 -0.274699 -0.277624 -0.278419 -0.277081 -0.27345 -0.267781 -0.260103 -0.250543 -0.239255 -0.226417 -0.212232 -0.196921 -0.180722 -0.163885 -0.146673 -0.129346 -0.112166 -0.0954014 -0.0793115 -0.0641445 -0.0501357 -0.037504 -0.0264484 -0.0171447 -0.00974218 -0.00436145 -0.001096 -1.19105e-26 0 -0.00108134 -0.00431269 -0.00964809 -0.0170082 -0.0262807 -0.0373217 -0.0499582 -0.0639905 -0.0791958 -0.0953307 -0.112137 -0.129339 -0.146664 -0.163837 -0.18058 -0.196621 -0.211705 -0.225591 -0.238057 -0.248907 -0.257971 -0.265108 -0.270268 -0.273206 -0.27403 -0.27279 -0.269275 -0.263752 -0.256244 -0.246874 -0.235793 -0.223176 -0.209222 -0.194149 -0.178193 -0.1616 -0.144632 -0.127546 -0.110601 -0.0940652 -0.0781939 -0.0632337 -0.049417 -0.0369605 -0.0260605 -0.0168899 -0.00959533 -0.00429476 -0.00107899 -1.1