<?xml version="1.0"?>
<VTKFile type="PolyData">
	<PolyData>
		<Piece NumberOfPoints="2601" NumberOfPolys="2500">
			<Points>
				<DataArray type="Float32" NumberOfComponents="3" format="ascii">
 0 0 0 0.02 0 0 0.04 0 0 0.06 0 0 0.08 0 0 0.1 0 0 0.12 0 0 0.14 0 0 0.16 0 0 0.18 0 0 0.2 0 0 0.22 0 0 0.24 0 0 0.26 0 0 0.28 0 0 0.3 0 0 0.32 0 0 0.34 0 0 0.36 0 0 0.38 0 0 0.4 0 0 0.42 0 0 0.44 0 0 0.46 0 0 0.48 0 0 0.5 0 0 0.52 0 0 0.54 0 0 0.56 0 0 0.58 0 0 0.6 0 0 0.62 0 0 0.64 0 0 0.66 0 0 0.68 0 0 0.7 0 0 0.72 0 0 0.74 0 0 0.76 0 0 0.78 0 0 0.8 0 0 0.82 0 0 0.84 0 0 0.86 0 0 0.88 0 0 0.9 0 0 0.92 0 0 0.94 0 0 0.96 0 0 0.98 0 0 1 0 0 0 0.02 0 0.02 0.02 0 0.04 0.02 0 0.06 0.02 0 0.08 0.02 0 0.1 0.02 0 0.12 0.02 0 0.14 0.02 0 0.16 0.02 0 0.18 0.02 0 0.2 0.02 0 0.22 0.02 0 0.24 0.02 0 0.26 0.02 0 0.28 0.02 0 0.3 0.02 0 0.32 0.02 0 0.34 0.02 0 0.36 0.02 0 0.38 0.02 0 0.4 0.02 0 0.42 0.02 0 0.44 0.02 0 0.46 0.02 0 0.48 0.02 0 0.5 0.02 0 0.52 0.02 0 0.54 0.02 0 0.56 0.02 0 0.58 0.02 0 0.6 0.02 0 0.62 0.02 0 0.64 0.02 0 0.66 0.02 0 0.68 0.02 0 0.7 0.02 0 0.72 0.02 0 0.74 0.02 0 0.76 0.02 0 0.78 0.02 0 0.8 0.02 0 0.82 0.02 0 0.84 0.02 0 0.86 0.02 0 0.88 0.02 0 0.9 0.02 0 0.92 0.02 0 0.94 0.02 0 0.96 0.02 0 0.98 0.02 0 1 0.02 0 0 0.04 0 0.02 0.04 0 0.04 0.04 0 0.06 0.04 0 0.08 0.04 0 0.1 0.04 0 0.12 0.04 0 0.14 0.04 0 0.16 0.04 0 0.18 0.04 0 0.2 0.04 0 0.22 0.04 0 0.24 0.04 0 0.26 0.04 0 0.28 0.04 0 0.3 0.04 0 0.32 0.04 0 0.34 0.04 0 0.36 0.04 0 0.38 0.04 0 0.4 0.04 0 0.42 0.04 0 0.44 0.04 0 0.46 0.04 0 0.48 0.04 0 0.5 0.04 0 0.52 0.04 0 0.54 0.04 0 0.56 0.04 0 0.58 0.04 0 0.6 0.04 0 0.62 0.04 0 0.64 0.04 0 0.66 0.04 0 0.68 0.04 0 0.7 0.04 0 0.72 0.04 0 0.74 0.04 0 0.76 0.04 0 0.78 0.04 0 0.8 0.04 0 0.82 0.04 0 0.84 0.04 0 0.86 0.04 0 0.88 0.04 0 0.9 0.04 0 0.92 0.04 0 0.94 0.04 0 0.96 0.04 0 0.98 0.04 0 1 0.04 0 0 0.06 0 0.02 0.06 0 0.04 0.06 0 0.06 0.06 0 0.08 0.06 0 0.1 0.06 0 0.12 0.06 0 0.14 0.06 0 0.16 0.06 0 0.18 0.06 0 0.2 0.06 0 0.22 0.06 0 0.24 0.06 0 0.26 0.06 0 0.28 0.06 0 0.3 0.06 0 0.32 0.06 0 0.34 0.06 0 0.36 0.06 0 0.38 0.06 0 0.4 0.06 0 0.42 0.06 0 0.44 0.06 0 0.46 0.06 0 0.48 0.06 0 0.5 0.06 0 0.52 0.06 0 0.54 0.06 0 0.56 0.06 0 0.58 0.06 0 0.6 0.06 0 0.62 0.06 0 0.64 0.06 0 0.66 0.06 0 0.68 0.06 0 0.7 0.06 0 0.72 0.06 0 0.74 0.06 0 0.76 0.06 0 0.78 0.06 0 0.8 0.06 0 0.82 0.06 0 0.84 0.06 0 0.86 0.06 0 0.88 0.06 0 0.9 0.06 0 0.92 0.06 0 0.94 0.06 0 0.96 0.06 0 0.98 0.06 0 1 0.06 0 0 0.08 0 0.02 0.08 0 0.04 0.08 0 0.06 0.08 0 0.08 0.08 0 0.1 0.08 0 0.12 0.08 0 0.14 0.08 0 0.16 0.08 0 0.18 0.08 0 0.2 0.08 0 0.22 0.08 0 0.24 0.08 0 0.26 0.08 0 0.28 0.08 0 0.3 0.08 0 0.32 0.08 0 0.34 0.08 0 0.36 0.08 0 0.38 0.08 0 0.4 0.08 0 0.42 0.08 0 0.44 0.08 0 0.46 0.08 0 0.48 0.08 0 0.5 0.08 0 0.52 0.08 0 0.54 0.08 0 0.56 0.08 0 0.58 0.08 0 0.6 0.08 0 0.62 0.08 0 0.64 0.08 0 0.66 0.08 0 0.68 0.08 0 0.7 0.08 0 0.72 0.08 0 0.74 0.08 0 0.76 0.08 0 0.78 0.08 0 0.8 0.08 0 0.82 0.08 0 0.84 0.08 0 0.86 0.08 0 0.88 0.08 0 0.9 0.08 0 0.92 0.08 0 0.94 0.08 0 0.96 0.08 0 0.98 0.08 0 1 0.08 0 0 0.1 0 0.02 0.1 0 0.04 0.1 0 0.06 0.1 0 0.08 0.1 0 0.1 0.1 0 0.12 0.1 0 0.14 0.1 0 0.16 0.1 0 0.18 0.1 0 0.2 0.1 0 0.22 0.1 0 0.24 0.1 0 0.26 0.1 0 0.28 0.1 0 0.3 0.1 0 0.32 0.1 0 0.34 0.1 0 0.36 0.1 0 0.38 0.1 0 0.4 0.1 0 0.42 0.1 0 0.44 0.1 0 0.46 0.1 0 0.48 0.1 0 0.5 0.1 0 0.52 0.1 0 0.54 0.1 0 0.56 0.1 0 0.58 0.1 0 0.6 0.1 0 0.62 0.1 0 0.64 0.1 0 0.66 0.1 0 0.68 0.1 0 0.7 0.1 0 0.72 0.1 0 0.74 0.1 0 0.76 0.1 0 0.78 0.1 0 0.8 0.1 0 0.82 0.1 0 0.84 0.1 0 0.86 0.1 0 0.88 0.1 0 0.9 0.1 0 0.92 0.1 0 0.94 0.1 0 0.96 0.1 0 0.98 0.1 0 1 0.1 0 0 0.12 0 0.02 0.12 0 0.04 0.12 0 0.06 0.12 0 0.08 0.12 0 0.1 0.12 0 0.12 0.12 0 0.14 0.12 0 0.16 0.12 0 0.18 0.12 0 0.2 0.12 0 0.22 0.12 0 0.24 0.12 0 0.26 0.12 0 0.28 0.12 0 0.3 0.12 0 0.32 0.12 0 0.34 0.12 0 0.36 0.12 0 0.38 0.12 0 0.4 0.12 0 0.42 0.12 0 0.44 0.12 0 0.46 0.12 0 0.48 0.12 0 0.5 0.12 0 0.52 0.12 0 0.54 0.12 0 0.56 0.12 0 0.58 0.12 0 0.6 0.12 0 0.62 0.12 0 0.64 0.12 0 0.66 0.12 0 0.68 0.12 0 0.7 0.12 0 0.72 0.12 0 0.74 0.12 0 0.76 0.12 0 0.78 0.12 0 0.8 0.12 0 0.82 0.12 0 0.84 0.12 0 0.86 0.12 0 0.88 0.12 0 0.9 0.12 0 0.92 0.12 0 0.94 0.12 0 0.96 0.12 0 0.98 0.12 0 1 0.12 0 0 0.14 0 0.02 0.14 0 0.04 0.14 0 0.06 0.14 0 0.08 0.14 0 0.1 0.14 0 0.12 0.14 0 0.14 0.14 0 0.16 0.14 0 0.18 0.14 0 0.2 0.14 0 0.22 0.14 0 0.24 0.14 0 0.26 0.14 0 0.28 0.14 0 0.3 0.14 0 0.32 0.14 0 0.34 0.14 0 0.36 0.14 0 0.38 0.14 0 0.4 0.14 0 0.42 0.14 0 0.44 0.14 0 0.46 0.14 0 0.48 0.14 0 0.5 0.14 0 0.52 0.14 0 0.54 0.14 0 0.56 0.14 0 0.58 0.14 0 0.6 0.14 0 0.62 0.14 0 0.64 0.14 0 0.66 0.14 0 0.68 0.14 0 0.7 0.14 0 0.72 0.14 0 0.74 0.14 0 0.76 0.14 0 0.78 0.14 0 0.8 0.14 0 0.82 0.14 0 0.84 0.14 0 0.86 0.14 0 0.88 0.14 0 0.9 0.14 0 0.92 0.14 0 0.94 0.14 0 0.96 0.14 0 0.98 0.14 0 1 0.14 0 0 0.16 0 0.02 0.16 0 0.04 0.16 0 0.06 0.16 0 0.08 0.16 0 0.1 0.16 0 0.12 0.16 0 0.14 0.16 0 0.16 0.16 0 0.18 0.16 0 0.2 0.16 0 0.22 0.16 0 0.24 0.16 0 0.26 0.16 0 0.28 0.16 0 0.3 0.16 0 0.32 0.16 0 0.34 0.16 0 0.36 0.16 0 0.38 0.16 0 0.4 0.16 0 0.42 0.16 0 0.44 0.16 0 0.46 0.16 0 0.48 0.16 0 0.5 0.16 0 0.52 0.16 0 0.54 0.16 0 0.56 0.16 0 0.58 0.16 0 0.6 0.16 0 0.62 0.16 0 0.64 0.16 0 0.66 0.16 0 0.68 0.16 0 0.7 0.16 0 0.72 0.16 0 0.74 0.16 0 0.76 0.16 0 0.78 0.16 0 0.8 0.16 0 0.82 0.16 0 0.84 0.16 0 0.86 0.16 0 0.88 0.16 0 0.9 0.16 0 0.92 0.16 0 0.94 0.16 0 0.96 0.16 0 0.98 0.16 0 1 0.16 0 0 0.18 0 0.02 0.18 0 0.04 0.18 0 0.06 0.18 0 0.08 0.18 0 0.1 0.18 0 0.12 0.18 0 0.14 0.18 0 0.16 0.18 0 0.18 0.18 0 0.2 0.18 0 0.22 0.18 0 0.24 0.18 0 0.26 0.18 0 0.28 0.18 0 0.3 0.18 0 0.32 0.18 0 0.34 0.18 0 0.36 0.18 0 0.38 0.18 0 0.4 0.18 0 0.42 0.18 0 0.44 0.18 0 0.46 0.18 0 0.48 0.18 0 0.5 0.18 0 0.52 0.18 0 0.54 0.18 0 0.56 0.18 0 0.58 0.18 0 0.6 0.18 0 0.62 0.18 0 0.64 0.18 0 0.66 0.18 0 0.68 0.18 0 0.7 0.18 0 0.72 0.18 0 0.74 0.18 0 0.76 0.18 0 0.78 0.18 0 0.8 0.18 0 0.82 0.18 0 0.84 0.18 0 0.86 0.18 0 0.88 0.18 0 0.9 0.18 0 0.92 0.18 0 0.94 0.18 0 0.96 0.18 0 0.98 0.18 0 1 0.18 0 0 0.2 0 0.02 0.2 0 0.04 0.2 0 0.06 0.2 0 0.08 0.2 0 0.1 0.2 0 0.12 0.2 0 0.14 0.2 0 0.16 0.2 0 0.18 0.2 0 0.2 0.2 0 0.22 0.2 0 0.24 0.2 0 0.26 0.2 0 0.28 0.2 0 0.3 0.2 0 0.32 0.2 0 0.34 0.2 0 0.36 0.2 0 0.38 0.2 0 0.4 0.2 0 0.42 0.2 0 0.44 0.2 0 0.46 0.2 0 0.48 0.2 0 0.5 0.2 0 0.52 0.2 0 0.54 0.2 0 0.56 0.2 0 0.58 0.2 0 0.6 0.2 0 0.62 0.2 0 0.64 0.2 0 0.66 0.2 0 0.68 0.2 0 0.7 0.2 0 0.72 0.2 0 0.74 0.2 0 0.76 0.2 0 0.78 0.2 0 0.8 0.2 0 0.82 0.2 0 0.84 0.2 0 0.86 0.2 0 0.88 0.2 0 0.9 0.2 0 0.92 0.2 0 0.94 0.2 0 0.96 0.2 0 0.98 0.2 0 1 0.2 0 0 0.22 0 0.02 0.22 0 0.04 0.22 0 0.06 0.22 0 0.08 0.22 0 0.1 0.22 0 0.12 0.22 0 0.14 0.22 0 0.16 0.22 0 0.18 0.22 0 0.2 0.22 0 0.22 0.22 0 0.24 0.22 0 0.26 0.22 0 0.28 0.22 0 0.3 0.22 0 0.32 0.22 0 0.34 0.22 0 0.36 0.22 0 0.38 0.22 0 0.4 0.22 0 0.42 0.22 0 0.44 0.22 0 0.46 0.22 0 0.48 0.22 0 0.5 0.22 0 0.52 0.22 0 0.54 0.22 0 0.56 0.22 0 0.58 0.22 0 0.6 0.22 0 0.62 0.22 0 0.64 0.22 0 0.66 0.22 0 0.68 0.22 0 0.7 0.22 0 0.72 0.22 0 0.74 0.22 0 0.76 0.22 0 0.78 0.22 0 0.8 0.22 0 0.82 0.22 0 0.84 0.22 0 0.86 0.22 0 0.88 0.22 0 0.9 0.22 0 0.92 0.22 0 0.94 0.22 0 0.96 0.22 0 0.98 0.22 0 1 0.22 0 0 0.24 0 0.02 0.24 0 0.04 0.24 0 0.06 0.24 0 0.08 0.24 0 0.1 0.24 0 0.12 0.24 0 0.14 0.24 0 0.16 0.24 0 0.18 0.24 0 0.2 0.24 0 0.22 0.24 0 0.24 0.24 0 0.26 0.24 0 0.28 0.24 0 0.3 0.24 0 0.32 0.24 0 0.34 0.24 0 0.36 0.24 0 0.38 0.24 0 0.4 0.24 0 0.42 0.24 0 0.44 0.24 0 0.46 0.24 0 0.48 0.24 0 0.5 0.24 0 0.52 0.24 0 0.54 0.24 0 0.56 0.24 0 0.58 0.24 0 0.6 0.24 0 0.62 0.24 0 0.64 0.24 0 0.66 0.24 0 0.68 0.24 0 0.7 0.24 0 0.72 0.24 0 0.74 0.24 0 0.76 0.24 0 0.78 0.24 0 0.8 0.24 0 0.82 0.24 0 0.84 0.24 0 0.86 0.24 0 0.88 0.24 0 0.9 0.24 0 0.92 0.24 0 0.94 0.24 0 0.96 0.24 0 0.98 0.24 0 1 0.24 0 0 0.26 0 0.02 0.26 0 0.04 0.26 0 0.06 0.26 0 0.08 0.26 0 0.1 0.26 0 0.12 0.26 0 0.14 0.26 0 0.16 0.26 0 0.18 0.26 0 0.2 0.26 0 0.22 0.26 0 0.24 0.26 0 0.26 0.26 0 0.28 0.26 0 0.3 0.26 0 0.32 0.26 0 0.34 0.26 0 0.36 0.26 0 0.38 0.26 0 0.4 0.26 0 0.42 0.26 0 0.44 0.26 0 0.46 0.26 0 0.48 0.26 0 0.5 0.26 0 0.52 0.26 0 0.54 0.26 0 0.56 0.26 0 0.58 0.26 0 0.6 0.26 0 0.62 0.26 0 0.64 0.26 0 0.66 0.26 0 0.68 0.26 0 0.7 0.26 0 0.72 0.26 0 0.74 0.26 0 0.76 0.26 0 0.78 0.26 0 0.8 0.26 0 0.82 0.26 0 0.84 0.26 0 0.86 0.26 0 0.88 0.26 0 0.9 0.26 0 0.92 0.26 0 0.94 0.26 0 0.96 0.26 0 0.98 0.26 0 1 0.26 0 0 0.28 0 0.02 0.28 0 0.04 0.28 0 0.06 0.28 0 0.08 0.28 0 0.1 0.28 0 0.12 0.28 0 0.14 0.28 0 0.16 0.28 0 0.18 0.28 0 0.2 0.28 0 0.22 0.28 0 0.24 0.28 0 0.26 0.28 0 0.28 0.28 0 0.3 0.28 0 0.32 0.28 0 0.34 0.28 0 0.36 0.28 0 0.38 0.28 0 0.4 0.28 0 0.42 0.28 0 0.44 0.28 0 0.46 0.28 0 0.48 0.28 0 0.5 0.28 0 0.52 0.28 0 0.54 0.28 0 0.56 0.28 0 0.58 0.28 0 0.6 0.28 0 0.62 0.28 0 0.64 0.28 0 0.66 0.28 0 0.68 0.28 0 0.7 0.28 0 0.72 0.28 0 0.74 0.28 0 0.76 0.28 0 0.78 0.28 0 0.8 0.28 0 0.82 0.28 0 0.84 0.28 0 0.86 0.28 0 0.88 0.28 0 0.9 0.28 0 0.92 0.28 0 0.94 0.28 0 0.96 0.28 0 0.98 0.28 0 1 0.28 0 0 0.3 0 0.02 0.3 0 0.04 0.3 0 0.06 0.3 0 0.08 0.3 0 0.1 0.3 0 0.12 0.3 0 0.14 0.3 0 0.16 0.3 0 0.18 0.3 0 0.2 0.3 0 0.22 0.3 0 0.24 0.3 0 0.26 0.3 0 0.28 0.3 0 0.3 0.3 0 0.32 0.3 0 0.34 0.3 0 0.36 0.3 0 0.38 0.3 0 0.4 0.3 0 0.42 0.3 0 0.44 0.3 0 0.46 0.3 0 0.48 0.3 0 0.5 0.3 0 0.52 0.3 0 0.54 0.3 0 0.56 0.3 0 0.58 0.3 0 0.6 0.3 0 0.62 0.3 0 0.64 0.3 0 0.66 0.3 0 0.68 0.3 0 0.7 0.3 0 0.72 0.3 0 0.74 0.3 0 0.76 0.3 0 0.78 0.3 0 0.8 0.3 0 0.82 0.3 0 0.84 0.3 0 0.86 0.3 0 0.88 0.3 0 0.9 0.3 0 0.92 0.3 0 0.94 0.3 0 0.96 0.3 0 0.98 0.3 0 1 0.3 0 0 0.32 0 0.02 0.32 0 0.04 0.32 0 0.06 0.32 0 0.08 0.32 0 0.1 0.32 0 0.12 0.32 0 0.14 0.32 0 0.16 0.32 0 0.18 0.32 0 0.2 0.32 0 0.22 0.32 0 0.24 0.32 0 0.26 0.32 0 0.28 0.32 0 0.3 0.32 0 0.32 0.32 0 0.34 0.32 0 0.36 0.32 0 0.38 0.32 0 0.4 0.32 0 0.42 0.32 0 0.44 0.32 0 0.46 0.32 0 0.48 0.32 0 0.5 0.32 0 0.52 0.32 0 0.54 0.32 0 0.56 0.32 0 0.58 0.32 0 0.6 0.32 0 0.62 0.32 0 0.64 0.32 0 0.66 0.32 0 0.68 0.32 0 0.7 0.32 0 0.72 0.32 0 0.74 0.32 0 0.76 0.32 0 0.78 0.32 0 0.8 0.32 0 0.82 0.32 0 0.84 0.32 0 0.86 0.32 0 0.88 0.32 0 0.9 0.32 0 0.92 0.32 0 0.94 0.
[...]
			<PointData Scalars="VitesseX">
				<DataArray Name="VitesseX" type="Float32" format="ascii">
 0 0 0 0 0 0 0 0 0 0 0 0 0 0 0 0 0 0 0 0 0 0 0 0 0 0 0 0 0 0 0 0 0 0 0 0 0 0 0 0 0 0 0 0 0 0 0 0 0 0 -0 0 -0.00048866 -0.00194717 -0.00435259 -0.00766718 -0.0118388 -0.0168016 -0.0224775 -0.0287768 -0.0356003 -0.0428401 -0.050382 -0.058106 -0.0658907 -0.0736143 -0.081154 -0.0883908 -0.0952105 -0.101505 -0.107176 -0.112133 -0.116299 -0.119607 -0.122019 -0.123457 -0.123938 -0.123448 -0.12196 -0.119541 -0.116215 -0.112035 -0.107066 -0.101388 -0.0950896 -0.0882704 -0.0810376 -0.0735051 -0.0657921 -0.0580187 -0.0503065 -0.0427776 -0.0355506 -0.028739 -0.0224502 -0.0167831 -0.0118272 -0.00766074 -0.00434949 -0.00194582 -0.000488472 -5.30323e-27 0 -0.000969923 -0.00386647 -0.00864593 -0.015235 -0.0235313 -0.0334051 -0.0447009 -0.0572405 -0.0708253 -0.0852398 -0.100255 -0.115628 -0.131116 -0.146478 -0.161465 -0.17584 -0.189373 -0.20185 -0.213074 -0.222867 -0.231075 -0.23757 -0.242301 -0.245046 -0.245912 -0.244884 -0.241836 -0.236968 -0.230309 -0.221966 -0.212071 -0.200781 -0.188273 -0.174745 -0.160408 -0.145487 -0.130217 -0.114834 -0.0995728 -0.0846772 -0.0703792 -0.0569027 -0.0444588 -0.0332429 -0.0234319 -0.0151809 -0.00862124 -0.00385739 -0.000968707 -1.05237e-26 0 -0.00143605 -0.00572648 -0.0128084 -0.0225751 -0.0348762 -0.0495203 -0.0662771 -0.0848821 -0.10504 -0.126429 -0.148708 -0.171513 -0.194484 -0.217262 -0.239474 -0.260767 -0.2808 -0.299254 -0.315837 -0.330285 -0.342373 -0.351912 -0.358859 -0.362802 -0.363986 -0.362394 -0.357757 -0.350465 -0.340531 -0.328118 -0.313423 -0.29668 -0.278153 -0.258132 -0.236929 -0.214875 -0.192319 -0.169601 -0.147067 -0.125075 -0.103967 -0.0840696 -0.065695 -0.0491306 -0.0346375 -0.0224455 -0.0127495 -0.00570512 -0.00143321 -1.5579e-26 0 -0.00187974 -0.00749807 -0.0167751 -0.0295734 -0.0456979 -0.0648984 -0.086874 -0.111277 -0.137719 -0.165777 -0.195001 -0.224908 -0.255025 -0.284882 -0.313986 -0.34187 -0.368087 -0.392216 -0.413876 -0.432723 -0.448461 -0.460848 -0.469858 -0.474868 -0.476294 -0.474112 -0.467892 -0.458235 -0.445137 -0.428811 -0.40952 -0.387571 -0.363308 -0.337113 -0.309392 -0.280574 -0.251116 -0.221456 -0.192039 -0.163334 -0.135782 -0.109811 -0.0858238 -0.0641959 -0.0452677 -0.0293401 -0.0166693 -0.00746001 -0.00187467 -2.03893e-26 0 -0.00229398 -0.00915331 -0.0204834 -0.0361196 -0.0558256 -0.0792971 -0.106167 -0.136009 -0.168348 -0.202664 -0.238403 -0.274971 -0.311786 -0.348273 -0.383826 -0.41787 -0.449855 -0.47927 -0.505645 -0.528562 -0.547664 -0.562655 -0.573539 -0.579476 -0.581061 -0.578268 -0.5705 -0.558579 -0.542477 -0.522458 -0.498847 -0.472019 -0.442397 -0.410444 -0.376654 -0.341548 -0.305682 -0.26958 -0.23378 -0.19885 -0.165325 -0.133721 -0.104528 -0.0782014 -0.055155 -0.0357563 -0.020319 -0.00909455 -0.00228617 -2.48782e-26 0 -0.00267226 -0.0106661 -0.023875 -0.0421105 -0.0650998 -0.0924895 -0.123852 -0.158689 -0.196444 -0.236508 -0.278232 -0.320914 -0.363874 -0.40644 -0.447898 -0.487572 -0.524822 -0.559047 -0.589699 -0.616296 -0.63842 -0.655732 -0.668264 -0.674976 -0.676636 -0.673217 -0.663966 -0.649917 -0.631019 -0.607586 -0.579999 -0.548698 -0.514177 -0.476973 -0.437659 -0.39684 -0.355158 -0.313218 -0.271634 -0.231066 -0.192131 -0.155425 -0.121514 -0.090927 -0.0641441 -0.0415933 -0.0236414 -0.0105832 -0.00266126 -2.89744e-26 0 -0.00300862 -0.0120126 -0.0268963 -0.0474518 -0.0733744 -0.104268 -0.13965 -0.17896 -0.221567 -0.26678 -0.313864 -0.362019 -0.410476 -0.458473 -0.505198 -0.549886 -0.591812 -0.630296 -0.664723 -0.694547 -0.719304 -0.738617 -0.752544 -0.759869 -0.761518 -0.757465 -0.746823 -0.730815 -0.709373 -0.682858 -0.651703 -0.616406 -0.577523 -0.535658 -0.491453 -0.445584 -0.398772 -0.351685 -0.305008 -0.259476 -0.215779 -0.174581 -0.136515 -0.102173 -0.0720938 -0.0467594 -0.0265842 -0.0119027 -0.00299406 -3.2613e-26 0 -0.00329776 -0.0131715 -0.0294997 -0.0520592 -0.0805193 -0.114448 -0.153315 -0.196505 -0.243323 -0.293006 -0.344741 -0.397643 -0.450862 -0.503558 -0.554832 -0.60384 -0.64978 -0.691906 -0.729542 -0.762093 -0.789053 -0.810013 -0.825056 -0.832824 -0.834375 -0.82969 -0.817772 -0.800005 -0.776314 -0.747099 -0.712839 -0.674085 -0.631446 -0.585582 -0.537196 -0.48702 -0.435841 -0.384381 -0.33338 -0.283637 -0.235899 -0.19089 -0.149297 -0.111763 -0.0788795 -0.0511737 -0.0291016 -0.0130325 -0.00327939 -3.57359e-26 0 -0.00353514 -0.0141246 -0.0316443 -0.0558602 -0.0864221 -0.122868 -0.164632 -0.211049 -0.261372 -0.314776 -0.370382 -0.427231 -0.484405 -0.540995 -0.596028 -0.648592 -0.697823 -0.742917 -0.783148 -0.817881 -0.846577 -0.868805 -0.88467 -0.892702 -0.894071 -0.888764 -0.875704 -0.856408 -0.830796 -0.799304 -0.762454 -0.720837 -0.675107 -0.625971 -0.574177 -0.520504 -0.46579 -0.410798 -0.356308 -0.303171 -0.252178 -0.204097 -0.159658 -0.119547 -0.084395 -0.054767 -0.0311539 -0.013955 -0.00351278 -3.82937e-26 0 -0.00371702 -0.0148568 -0.0332961 -0.0587951 -0.09099 -0.129398 -0.173423 -0.222364 -0.275431 -0.33175 -0.390387 -0.450322 -0.510581 -0.570201 -0.628146 -0.683449 -0.735194 -0.782535 -0.824707 -0.861044 -0.890982 -0.914079 -0.930456 -0.93857 -0.939674 -0.933766 -0.919718 -0.899146 -0.871971 -0.838664 -0.799777 -0.755936 -0.70783 -0.656199 -0.601824 -0.545518 -0.488156 -0.430526 -0.373438 -0.317776 -0.264363 -0.213997 -0.167438 -0.125404 -0.088554 -0.0574831 -0.0327092 -0.0146558 -0.00369059 -4.02454e-26 0 -0.00384054 -0.0153567 -0.0344292 -0.0608176 -0.0941511 -0.133934 -0.17955 -0.230273 -0.28528 -0.343662 -0.404443 -0.466557 -0.528985 -0.590722 -0.650685 -0.707867 -0.761313 -0.810146 -0.853573 -0.890909 -0.921579 -0.94513 -0.961705 -0.969715 -0.970476 -0.964197 -0.949503 -0.928074 -0.89984 -0.865293 -0.825011 -0.779648 -0.729918 -0.676586 -0.620459 -0.562371 -0.503222 -0.443816 -0.384981 -0.327623 -0.272585 -0.220682 -0.172697 -0.129366 -0.0913691 -0.0593222 -0.0337624 -0.0151302 -0.00381085 -4.15601e-26 0 -0.00390468 -0.0156235 -0.0350491 -0.0619485 -0.0959529 -0.136562 -0.18315 -0.234974 -0.291189 -0.350856 -0.41297 -0.476428 -0.540175 -0.603174 -0.664304 -0.722523 -0.776851 -0.826384 -0.870315 -0.907946 -0.938699 -0.962126 -0.978389 -0.985891 -0.985997 -0.978795 -0.963108 -0.940668 -0.911423 -0.875886 -0.834651 -0.788381 -0.737798 -0.683671 -0.626804 -0.568029 -0.508243 -0.448244 -0.388853 -0.330971 -0.275437 -0.223063 -0.17463 -0.130876 -0.092487 -0.0600855 -0.0342203 -0.0153467 -0.00386852 -4.22169e-26 0 -0.00390474 -0.0156243 -0.035053 -0.0619601 -0.0959794 -0.136613 -0.183236 -0.235107 -0.291377 -0.351107 -0.413284 -0.4768 -0.540596 -0.603626 -0.664767 -0.722975 -0.77727 -0.826751 -0.870616 -0.908173 -0.938853 -0.962216 -0.978428 -0.9859 -0.985998 -0.978764 -0.963014 -0.940484 -0.911134 -0.875486 -0.834147 -0.78779 -0.737144 -0.682983 -0.626113 -0.567365 -0.507635 -0.447708 -0.388403 -0.330612 -0.275166 -0.222871 -0.174504 -0.130801 -0.0924476 -0.060068 -0.0342144 -0.0153454 -0.00386843 -4.22054e-26 0 -0.00384738 -0.0154108 -0.0346079 -0.0612288 -0.0949247 -0.135211 -0.18147 -0.232965 -0.288847 -0.348171 -0.409917 -0.47297 -0.536255 -0.59872 -0.659226 -0.716724 -0.770225 -0.818827 -0.861728 -0.898246 -0.927826 -0.950048 -0.965102 -0.971451 -0.970477 -0.962596 -0.946384 -0.923577 -0.894153 -0.858641 -0.817646 -0.771833 -0.721917 -0.668653 -0.612822 -0.555227 -0.496729 -0.438088 -0.380088 -0.323588 -0.269386 -0.218261 -0.170964 -0.12821 -0.0906662 -0.058947 -0.0335987 -0.0150805 -0.00380452 -4.15257e-26 0 -0.00372651 -0.0149321 -0.0335459 -0.0593725 -0.0920806 -0.131205 -0.176149 -0.226197 -0.280521 -0.338195 -0.398222 -0.459506 -0.520991 -0.581642 -0.640345 -0.696073 -0.747862 -0.794835 -0.836221 -0.871362 -0.899731 -0.920936 -0.935171 -0.940968 -0.939677 -0.931435 -0.915159 -0.892546 -0.863594 -0.828833 -0.788858 -0.74432 -0.695911 -0.644358 -0.59041 -0.53483 -0.47844 -0.421955 -0.366121 -0.311747 -0.259592 -0.210393 -0.164865 -0.123692 -0.0875161 -0.0569309 -0.0324692 -0.0145833 -0.00368139 -4.01888e-26 0 -0.00354815 -0.0142278 -0.0319869 -0.0566523 -0.0879182 -0.125347 -0.168373 -0.216308 -0.268355 -0.323619 -0.381132 -0.439831 -0.498686 -0.55669 -0.612763 -0.665909 -0.715198 -0.759787 -0.798938 -0.83203 -0.858572 -0.878206 -0.891133 -0.895989 -0.894075 -0.88554 -0.869402 -0.847286 -0.819218 -0.785718 -0.747364 -0.704782 -0.658634 -0.609605 -0.558399 -0.50573 -0.452359 -0.398949 -0.346192 -0.294836 -0.245581 -0.199114 -0.1561 -0.11718 -0.0829596 -0.0540034 -0.030822 -0.0138546 -0.00350004 -3.8216e-26 0 -0.00331409 -0.013301 -0.0299296 -0.0530527 -0.0823958 -0.117557 -0.158007 -0.2031 -0.252079 -0.304094 -0.358219 -0.41344 -0.468768 -0.523236 -0.575813 -0.62555 -0.671563 -0.713056 -0.749338 -0.779832 -0.804091 -0.821798 -0.83316 -0.836945 -0.83438 -0.825624 -0.809823 -0.788501 -0.761713 -0.729962 -0.693804 -0.653831 -0.610661 -0.56493 -0.517284 -0.468373 -0.418887 -0.369425 -0.32061 -0.273115 -0.227572 -0.1846 -0.144806 -0.108775 -0.077068 -0.05021 -0.0286827 -0.0129058 -0.00326332 -3.56389e-26 0 -0.003028 -0.0121663 -0.0274063 -0.0486303 -0.0756001 -0.107955 -0.145213 -0.186778 -0.231947 -0.279924 -0.329839 -0.380742 -0.431699 -0.481796 -0.530066 -0.57562 -0.617633 -0.655368 -0.688189 -0.715577 -0.737135 -0.752592 -0.762154 -0.764756 -0.761522 -0.752621 -0.737353 -0.717107 -0.691972 -0.662432 -0.62901 -0.592255 -0.552734 -0.511023 -0.467699 -0.423337 -0.378542 -0.333839 -0.289771 -0.246922 -0.205843 -0.167077 -0.131158 -0.098609 -0.0699333 -0.0456102 -0.0260847 -0.0117516 -0.0029749 -3.24985e-26 0 -0.00269438 -0.0108415 -0.0244568 -0.0434549 -0.067638 -0.0966934 -0.130193 -0.1676 -0.208273 -0.251485 -0.296435 -0.342246 -0.388055 -0.433014 -0.476233 -0.516895 -0.554247 -0.58762 -0.616446 -0.640268 -0.658748 -0.671668 -0.679225 -0.680551 -0.676641 -0.667671 -0.653124 -0.634219 -0.611086 -0.584182 -0.553991 -0.521013 -0.485755 -0.448722 -0.410414 -0.371321 -0.331951 -0.292745 -0.254155 -0.216665 -0.180734 -0.146818 -0.115371 -0.0868405 -0.0616672 -0.0402761 -0.0230689 -0.0104101 -0.00263929 -2.88447e-26 0 -0.0023185 -0.00934762 -0.0211277 -0.0376079 -0.0586349 -0.0839488 -0.113182 -0.145865 -0.181429 -0.219224 -0.258528 -0.298554 -0.33852 -0.377653 -0.415156 -0.450293 -0.482395 -0.510872 -0.53523 -0.555084 -0.570159 -0.580293 -0.585674 -0.585649 -0.581065 -0.572108 -0.558453 -0.541134 -0.52032 -0.496437 -0.469924 -0.441223 -0.410772 -0.378999 -0.346322 -0.313136 -0.27984 -0.246784 -0.214317 -0.182816 -0.152637 -0.124141 -0.0976906 -0.073654 -0.0523994 -0.0342911 -0.0196823 -0.00890201 -0.00226175 -2.47358e-26 0 -0.00190626 -0.00770819 -0.0174715 -0.0311817 -0.0487327 -0.0699222 -0.0944491 -0.121916 -0.151838 -0.183647 -0.216717 -0.250354 -0.283872 -0.316583 -0.347793 -0.376861 -0.403207 -0.42633 -0.445819 -0.461364 -0.47276 -0.479905 -0.482973 -0.481542 -0.476298 -0.467434 -0.454829 -0.439313 -0.421098 -0.400571 -0.378121 -0.354129 -0.328957 -0.30295 -0.276429 -0.249694 -0.223027 -0.196677 -0.170884 -0.145907 -0.121994 -0.099401 -0.0783955 -0.0592568 -0.0422754 -0.0277495 -0.0159783 -0.00725103 -0.00184818 -2.02369e-26 0 -0.00146417 -0.00594908 -0.0135459 -0.0242776 -0.0380879 -0.054835 -0.0742889 -0.0961323 -0.119966 -0.145318 -0.17166 -0.198406 -0.224971 -0.250766 -0.275207 -0.297756 -0.317931 -0.335327 -0.349622 -0.360586 -0.368087 -0.372086 -0.372746 -0.36987 -0.36399 -0.355304 -0.343884 -0.330361 -0.31498 -0.298091 -0.280025 -0.261096 -0.241592 -0.221767 -0.201836 -0.181994 -0.162407 -0.143215 -0.12454 -0.10652 -0.0892871 -0.0729887 -0.0577895 -0.0438756 -0.0314547 -0.020754 -0.0120149 -0.00548297 -0.00140505 -1.54195e-26 0 -0.000999182 -0.00409804 -0.0094129 -0.0170048 -0.0268686 -0.0389259 -0.0530209 -0.0689205 -0.0863185 -0.104843 -0.124072 -0.143532 -0.162752 -0.181245 -0.198548 -0.214231 -0.227918 -0.239305 -0.248162 -0.254344 -0.257796 -0.258541 -0.25674 -0.252399 -0.245914 -0.237494 -0.227368 -0.215995 -0.203644 -0.190616 -0.177185 -0.163599 -0.15006 -0.136729 -0.123717 -0.111106 -0.0989382 -0.0872435 -0.0760185 -0.0652773 -0.055034 -0.0453215 -0.0361982 -0.0277532 -0.0201078 -0.0134149 -0.00785447 -0.00362553 -0.000939339 -1.03597e-26 0 -0.000518638 -0.00218431 -0.00513769 -0.00947806 -0.0152523 -0.0224467 -0.0309821 -0.0407128 -0.0514294 -0.0628654 -0.0747086 -0.0866055 -0.0982023 -0.109126 -0.119034 -0.127613 -0.134598 -0.139787 -0.143049 -0.144325 -0.143636 -0.14107 -0.136801 -0.130989 -0.12394 -0.115875 -0.107126 -0.0980273 -0.0888478 -0.0798444 -0.0712344 -0.0631863 -0.0558169 -0.0491905 -0.0433138 -0.0381541 -0.0336289 -0.0296505 -0.0260891 -0.0228337 -0.0197773 -0.0168371 -0.0139629 -0.0111443 -0.00841389 -0.00584789 -0.0035626 -0.00170788 -0.000458349 -5.13776e-27 0 -3.01149e-05 -0.000238165 -0.000788282 -0.00181773 -0.00342548 -0.00566325 -0.00852972 -0.0119683 -0.0158686 -0.0200717 -0.0243794 -0.0285604 -0.0323813 -0.0355886 -0.0379676 -0.0393182 -0.0394915 -0.0383916 -0.0359845 -0.0323012 -0.0274371 -0.0215473 -0.0148421 -0.00756538 9.12917e-08 0.00756595 0.014842 0.0215439 0.0274364 0.0323023 0.0359837 0.0383913 0.0394915 0.039318 0.0379668 0.0355877 0.0323812 0.0285601 0.0243788 0.0200716 0.0158687 0.0119683 0.00852972 0.00566325 0.00342548 0.00181773 0.000788282 0.000238165 3.01149e-05 1.63969e-28 0 0.000458349 0.00170788 0.0035626 0.00584789 0.00841389 0.0111443 0.0139629 0.0168371 0.0197774 0.0228337 0.0260888 0.0296502 0.0336286 0.0381531 0.0433124 0.0491889 0.0558169 0.0631861 0.0712338 0.0798437 0.0888465 0.0980254 0.107126 0.115876 0.12394 0.13099 0.136798 0.141063 0.143633 0.144324 0.143049 0.139788 0.134599 0.127614 0.119034 0.109125 0.0982017 0.0866053 0.0747079 0.0628651 0.0514295 0.0407129 0.0309821 0.0224467 0.0152523 0.00947806 0.00513769 0.00218431 0.000518638 5.46184e-27 0 0.000939339 0.00362553 0.00785447 0.0134149 0.0201078 0.0277532 0.0361982 0.0453215 0.055034 0.0652773 0.0760184 0.0872432 0.0989377 0.111105 0.123714 0.136725 0.150058 0.163597 0.177183 0.190612 0.203641 0.215994 0.227368 0.237495 0.245914 0.2524 0.256736 0.258536 0.257795 0.254343 0.248158 0.239298 0.227914 0.214229 0.198549 0.181245 0.16275 0.143532 0.124071 0.104843 0.0863186 0.0689207 0.053021 0.0389259 0.0268686 0.0170048 0.0094129 0.00409804 0.000999182 1.06724e-26 0 0.00140505 0.00548297 0.0120149 0.020754 0.0314547 0.0438756 0.0577895 0.0729887 0.0892871 0.10652 0.12454 0.143215 0.162406 0.181993 0.201832 0.22176 0.241586 0.26109 0.280019 0.298086 0.314978 0.330359 0.343884 0.355304 0.363991 0.369871 0.372741 0.372082 0.368089 0.360582 0.349609 0.335312 0.317921 0.29775 0.275205 0.250765 0.224969 0.198405 0.17166 0.145318 0.119966 0.0961326 0.074289 0.054835 0.0380879 0.0242776 0.0135459 0.00594908 0.00146417 1.57137e-26 0 0.00184818 0.00725103 0.0159783 0.0277495 0.0422754 0.0592568 0.0783955 0.099401 0.121994 0.145907 0.170884 0.196677 0.223027 0.249694 0.276428 0.302946 0.32895 0.354121 0.378115 0.400567 0.421096 0.439313 0.454829 0.467434 0.476298 0.481539 0.482968 0.479903 0.47276 0.461356 0.445804 0.426317 0.403197 0.376854 0.347788 0.316581 0.283871 0.250352 0.216716 0.183647 0.151838 0.121917 0.0944493 0.0699222 0.0487327 0.0311817 0.0174715 0.00770819 0.00190626 2.05067e-26 0 0.00226175 0.00890201 0.0196823 0.0342911 0.0523994 0.073654 0.0976906 0.124141 0.152637 0.182816 0.214317 0.246784 0.27984 0.313136 0.346322 0.378999 0.410769 0.441219 0.469921 0.496435 0.520319 0.541133 0.558453 0.572108 0.581063 0.585646 0.585672 0.580295 0.570156 0.555076 0.535225 0.510866 0.482388 0.450287 0.415149 0.377648 0.338517 0.298552 0.258529 0.219225 0.18143 0.145866 0.113183 0.0839488 0.0586349 0.0376079 0.0211277 0.00934762 0.0023185 2.4976e-26 0 0.00263929 0.0104101 0.0230689 0.0402761 0.0616672 0.0868405 0.115371 0.146818 0.180734 0.216665 0.254155 0.292745 0.331951 0.371321 0.410414 0.448723 0.485756 0.521015 0.553992 0.584183 0.611086 0.634219 0.653124 0.667672 0.67664 0.68055 0.679226 0.671669 0.658746 0.640265 0.616445 0.587618 0.554244 0.516892 0.476227 0.433004 0.38805 0.342245 0.296436 0.251487 0.208274 0.167601 0.130194 0.0966935 0.067638 0.0434549 0.0244568 0.0108415 0.00269438 2.90517e-26 0 0.0029749 0.0117516 0.0260847 0.0456102 0.0699333 0.098609 0.131158 0.167077 0.205843 0.246922 0.289771 0.333839 0.378542 0.423337 0.467699 0.511023 0.552735 0.592256 0.629011 0.662433 0.691973 0.717107 0.737354 0.752621 0.761522 0.764756 0.762155 0.752592 0.737135 0.715576 0.688187 0.655367 0.617633 0.575619 0.53006 0.481785 0.431694 0.380741 0.32984 0.279926 0.231949 0.18678 0.145214 0.107955 0.0756001 0.0486303 0.0274063 0.0121663 0.003028 3.267e-26 0 0.00326332 0.0129058 0.0286827 0.05021 0.077068 0.108775 0.144806 0.1846 0.227572 0.273115 0.32061 0.369425 0.418887 0.468373 0.517284 0.56493 0.610661 0.653831 0.693804 0.729962 0.761713 0.788501 0.809823 0.825623 0.83438 0.836945 0.83316 0.821798 0.804091 0.779831 0.749336 0.713055 0.671564 0.625549 0.575807 0.523224 0.468763 0.41344 0.358219 0.304097 0.252081 0.203102 0.158008 0.117557 0.0823958 0.0530527 0.0299296 0.013301 0.00331409 3.57743e-26 0 0.00350004 0.0138546 0.030822 0.0540034 0.0829596 0.11718 0.1561 0.199114 0.245581 0.294836 0.346192 0.398949 0.452359 0.50573 0.558399 0.609605 0.658634 0.704782 0.747364 0.785718 0.819218 0.847287 0.869402 0.885539 0.894075 0.895989 0.891133 0.878206 0.858573 0.832031 0.798937 0.759786 0.715198 0.665907 0.612756 0.556679 0.498682 0.439832 0.381132 0.323622 0.268357 0.21631 0.168374 0.125347 0.0879182 0.0566523 0.0319869 0.0142278 0.00354815 3.83161e-26 0 0.00368139 0.0145833 0.0324692 0.0569309 0.0875161 0.123692 0.164865 0.210393 0.259592 0.311747 0.366121 0.421955 0.47844 0.53483 0.59041 0.644358 0.695911 0.74432 0.788858 0.828833 0.863595 0.892547 0.915159 0.931434 0.939677 0.940968 0.935171 0.920936 0.899731 0.871362 0.83622 0.794834 0.747861 0.696069 0.640337 0.581629 0.520986 0.459507 0.398223 0.338198 0.280523 0.2262 0.176151 0.131205 0.0920806 0.0593725 0.0335459 0.0149321 0.00372651 4.02557e-26 0 0.00380452 0.0150805 0.0335987 0.058947 0.0906662 0.12821 0.170964 0.218261 0.269386 0.323588 0.380088 0.438088 0.496729 0.555227 0.612822 0.668653 0.721917 0.771833 0.817646 0.858641 0.894153 0.923577 0.946384 0.962596 0.970477 0.971451 0.965102 0.950048 0.927826 0.898246 0.861727 0.818826 0.770224 0.716719 0.659216 0.598705 0.536247 0.472969 0.409919 0.348174 0.288849 0.232968 0.181472 0.135211 0.0949247 0.0612288 0.0346079 0.0154108 0.00384738 4.15628e-26 0 0.00386843 0.0153454 0.0342144 0.060068 0.0924476 0.130801 0.174504 0.222871 0.275166 0.330612 0.388403 0.447708 0.507635 0.567365 0.626113 0.682983 0.737144 0.78779 0.834147 0.875487 0.911134 0.940484 0.963013 0.978764 0.985998 0.9859 0.978428 0.962216 0.938853 0.908172 0.870615 0.826751 0.777268 0.722969 0.664756 0.603616 0.540588 0.476796 0.413286 0.35111 0.29138 0.23511 0.183238 0.136613 0.0959794 0.0619601 0.035053 0.0156243 0.00390474 4.22169e-26 0 0.00386852 0.0153467 0.0342203 0.0600855 0.092487 0.130876 0.17463 0.223063 0.275437 0.330971 0.388853 0.448244 0.508243 0.568029 0.626804 0.683671 0.737798 0.788381 0.834651 0.875886 0.911423 0.940668 0.963108 0.978795 0.985997 0.985891 0.978388 0.962126 0.938698 0.907944 0.870314 0.826384 0.776849 0.722517 0.664292 0.603167 0.540171 0.476423 0.41297 0.350858 0.29119 0.234976 0.183151 0.136562 0.0959529 0.0619485 0.0350491 0.0156235 0.00390468 4.22079e-26 0 0.00381085 0.0151302 0.0337624 0.0593222 0.0913691 0.129366 0.172697 0.220682 0.272585 0.327623 0.384981 0.443816 0.503222 0.562371 0.620459 0.676586 0.729918 0.779648 0.825012 0.865293 0.899839 0.928073 0.949502 0.964197 0.970476 0.969715 0.961705 0.94513 0.921578 0.890908 0.853573 0.810145 0.761311 0.70786 0.650675 0.590719 0.528984 0.466555 0.404443 0.343663 0.285282 0.230275 0.17955 0.133934 0.0941511 0.0608176 0.0344292 0.0153567 0.00384054 4.15357e-26 0 0.00369059 0.0146558 0.0327092 0.0574831 0.088554 0.125404 0.167438 0.213997 0.264363 0.317776 0.373438 0.430526 0.488156 0.545518 0.601824 0.656199 0.70783 0.755936 0.799778 0.838664 0.87197 0.899144 0.919718 0.933766 0.939674 0.93857 0.930456 0.914079 0.890983 0.861043 0.824707 0.782533 0.73519 