<?xml version="1.0"?>
<VTKFile type="PolyData">
	<PolyData>
		<Piece NumberOfPoints="2601" NumberOfPolys="2500">
			<Points>
				<DataArray type="Float32" NumberOfComponents="3" format="ascii">
 0 0 0 0.02 0 0 0.04 0 0 0.06 0 0 0.08 0 0 0.1 0 0 0.12 0 0 0.14 0 0 0.16 0 0 0.18 0 0 0.2 0 0 0.22 0 0 0.24 0 0 0.26 0 0 0.28 0 0 0.3 0 0 0.32 0 0 0.34 0 0 0.36 0 0 0.38 0 0 0.4 0 0 0.42 0 0 0.44 0 0 0.46 0 0 0.48 0 0 0.5 0 0 0.52 0 0 0.54 0 0 0.56 0 0 0.58 0 0 0.6 0 0 0.62 0 0 0.64 0 0 0.66 0 0 0.68 0 0 0.7 0 0 0.72 0 0 0.74 0 0 0.76 0 0 0.78 0 0 0.8 0 0 0.82 0 0 0.84 0 0 0.86 0 0 0.88 0 0 0.9 0 0 0.92 0 0 0.94 0 0 0.96 0 0 0.98 0 0 1 0 0 0 0.02 0 0.02 0.02 0 0.04 0.02 0 0.06 0.02 0 0.08 0.02 0 0.1 0.02 0 0.12 0.02 0 0.14 0.02 0 0.16 0.02 0 0.18 0.02 0 0.2 0.02 0 0.22 0.02 0 0.24 0.02 0 0.26 0.02 0 0.28 0.02 0 0.3 0.02 0 0.32 0.02 0 0.34 0.02 0 0.36 0.02 0 0.38 0.02 0 0.4 0.02 0 0.42 0.02 0 0.44 0.02 0 0.46 0.02 0 0.48 0.02 0 0.5 0.02 0 0.52 0.02 0 0.54 0.02 0 0.56 0.02 0 0.58 0.02 0 0.6 0.02 0 0.62 0.02 0 0.64 0.02 0 0.66 0.02 0 0.68 0.02 0 0.7 0.02 0 0.72 0.02 0 0.74 0.02 0 0.76 0.02 0 0.78 0.02 0 0.8 0.02 0 0.82 0.02 0 0.84 0.02 0 0.86 0.02 0 0.88 0.02 0 0.9 0.02 0 0.92 0.02 0 0.94 0.02 0 0.96 0.02 0 0.98 0.02 0 1 0.02 0 0 0.04 0 0.02 0.04 0 0.04 0.04 0 0.06 0.04 0 0.08 0.04 0 0.1 0.04 0 0.12 0.04 0 0.14 0.04 0 0.16 0.04 0 0.18 0.04 0 0.2 0.04 0 0.22 0.04 0 0.24 0.04 0 0.26 0.04 0 0.28 0.04 0 0.3 0.04 0 0.32 0.04 0 0.34 0.04 0 0.36 0.04 0 0.38 0.04 0 0.4 0.04 0 0.42 0.04 0 0.44 0.04 0 0.46 0.04 0 0.48 0.04 0 0.5 0.04 0 0.52 0.04 0 0.54 0.04 0 0.56 0.04 0 0.58 0.04 0 0.6 0.04 0 0.62 0.04 0 0.64 0.04 0 0.66 0.04 0 0.68 0.04 0 0.7 0.04 0 0.72 0.04 0 0.74 0.04 0 0.76 0.04 0 0.78 0.04 0 0.8 0.04 0 0.82 0.04 0 0.84 0.04 0 0.86 0.04 0 0.88 0.04 0 0.9 0.04 0 0.92 0.04 0 0.94 0.04 0 0.96 0.04 0 0.98 0.04 0 1 0.04 0 0 0.06 0 0.02 0.06 0 0.04 0.06 0 0.06 0.06 0 0.08 0.06 0 0.1 0.06 0 0.12 0.06 0 0.14 0.06 0 0.16 0.06 0 0.18 0.06 0 0.2 0.06 0 0.22 0.06 0 0.24 0.06 0 0.26 0.06 0 0.28 0.06 0 0.3 0.06 0 0.32 0.06 0 0.34 0.06 0 0.36 0.06 0 0.38 0.06 0 0.4 0.06 0 0.42 0.06 0 0.44 0.06 0 0.46 0.06 0 0.48 0.06 0 0.5 0.06 0 0.52 0.06 0 0.54 0.06 0 0.56 0.06 0 0.58 0.06 0 0.6 0.06 0 0.62 0.06 0 0.64 0.06 0 0.66 0.06 0 0.68 0.06 0 0.7 0.06 0 0.72 0.06 0 0.74 0.06 0 0.76 0.06 0 0.78 0.06 0 0.8 0.06 0 0.82 0.06 0 0.84 0.06 0 0.86 0.06 0 0.88 0.06 0 0.9 0.06 0 0.92 0.06 0 0.94 0.06 0 0.96 0.06 0 0.98 0.06 0 1 0.06 0 0 0.08 0 0.02 0.08 0 0.04 0.08 0 0.06 0.08 0 0.08 0.08 0 0.1 0.08 0 0.12 0.08 0 0.14 0.08 0 0.16 0.08 0 0.18 0.08 0 0.2 0.08 0 0.22 0.08 0 0.24 0.08 0 0.26 0.08 0 0.28 0.08 0 0.3 0.08 0 0.32 0.08 0 0.34 0.08 0 0.36 0.08 0 0.38 0.08 0 0.4 0.08 0 0.42 0.08 0 0.44 0.08 0 0.46 0.08 0 0.48 0.08 0 0.5 0.08 0 0.52 0.08 0 0.54 0.08 0 0.56 0.08 0 0.58 0.08 0 0.6 0.08 0 0.62 0.08 0 0.64 0.08 0 0.66 0.08 0 0.68 0.08 0 0.7 0.08 0 0.72 0.08 0 0.74 0.08 0 0.76 0.08 0 0.78 0.08 0 0.8 0.08 0 0.82 0.08 0 0.84 0.08 0 0.86 0.08 0 0.88 0.08 0 0.9 0.08 0 0.92 0.08 0 0.94 0.08 0 0.96 0.08 0 0.98 0.08 0 1 0.08 0 0 0.1 0 0.02 0.1 0 0.04 0.1 0 0.06 0.1 0 0.08 0.1 0 0.1 0.1 0 0.12 0.1 0 0.14 0.1 0 0.16 0.1 0 0.18 0.1 0 0.2 0.1 0 0.22 0.1 0 0.24 0.1 0 0.26 0.1 0 0.28 0.1 0 0.3 0.1 0 0.32 0.1 0 0.34 0.1 0 0.36 0.1 0 0.38 0.1 0 0.4 0.1 0 0.42 0.1 0 0.44 0.1 0 0.46 0.1 0 0.48 0.1 0 0.5 0.1 0 0.52 0.1 0 0.54 0.1 0 0.56 0.1 0 0.58 0.1 0 0.6 0.1 0 0.62 0.1 0 0.64 0.1 0 0.66 0.1 0 0.68 0.1 0 0.7 0.1 0 0.72 0.1 0 0.74 0.1 0 0.76 0.1 0 0.78 0.1 0 0.8 0.1 0 0.82 0.1 0 0.84 0.1 0 0.86 0.1 0 0.88 0.1 0 0.9 0.1 0 0.92 0.1 0 0.94 0.1 0 0.96 0.1 0 0.98 0.1 0 1 0.1 0 0 0.12 0 0.02 0.12 0 0.04 0.12 0 0.06 0.12 0 0.08 0.12 0 0.1 0.12 0 0.12 0.12 0 0.14 0.12 0 0.16 0.12 0 0.18 0.12 0 0.2 0.12 0 0.22 0.12 0 0.24 0.12 0 0.26 0.12 0 0.28 0.12 0 0.3 0.12 0 0.32 0.12 0 0.34 0.12 0 0.36 0.12 0 0.38 0.12 0 0.4 0.12 0 0.42 0.12 0 0.44 0.12 0 0.46 0.12 0 0.48 0.12 0 0.5 0.12 0 0.52 0.12 0 0.54 0.12 0 0.56 0.12 0 0.58 0.12 0 0.6 0.12 0 0.62 0.12 0 0.64 0.12 0 0.66 0.12 0 0.68 0.12 0 0.7 0.12 0 0.72 0.12 0 0.74 0.12 0 0.76 0.12 0 0.78 0.12 0 0.8 0.12 0 0.82 0.12 0 0.84 0.12 0 0.86 0.12 0 0.88 0.12 0 0.9 0.12 0 0.92 0.12 0 0.94 0.12 0 0.96 0.12 0 0.98 0.12 0 1 0.12 0 0 0.14 0 0.02 0.14 0 0.04 0.14 0 0.06 0.14 0 0.08 0.14 0 0.1 0.14 0 0.12 0.14 0 0.14 0.14 0 0.16 0.14 0 0.18 0.14 0 0.2 0.14 0 0.22 0.14 0 0.24 0.14 0 0.26 0.14 0 0.28 0.14 0 0.3 0.14 0 0.32 0.14 0 0.34 0.14 0 0.36 0.14 0 0.38 0.14 0 0.4 0.14 0 0.42 0.14 0 0.44 0.14 0 0.46 0.14 0 0.48 0.14 0 0.5 0.14 0 0.52 0.14 0 0.54 0.14 0 0.56 0.14 0 0.58 0.14 0 0.6 0.14 0 0.62 0.14 0 0.64 0.14 0 0.66 0.14 0 0.68 0.14 0 0.7 0.14 0 0.72 0.14 0 0.74 0.14 0 0.76 0.14 0 0.78 0.14 0 0.8 0.14 0 0.82 0.14 0 0.84 0.14 0 0.86 0.14 0 0.88 0.14 0 0.9 0.14 0 0.92 0.14 0 0.94 0.14 0 0.96 0.14 0 0.98 0.14 0 1 0.14 0 0 0.16 0 0.02 0.16 0 0.04 0.16 0 0.06 0.16 0 0.08 0.16 0 0.1 0.16 0 0.12 0.16 0 0.14 0.16 0 0.16 0.16 0 0.18 0.16 0 0.2 0.16 0 0.22 0.16 0 0.24 0.16 0 0.26 0.16 0 0.28 0.16 0 0.3 0.16 0 0.32 0.16 0 0.34 0.16 0 0.36 0.16 0 0.38 0.16 0 0.4 0.16 0 0.42 0.16 0 0.44 0.16 0 0.46 0.16 0 0.48 0.16 0 0.5 0.16 0 0.52 0.16 0 0.54 0.16 0 0.56 0.16 0 0.58 0.16 0 0.6 0.16 0 0.62 0.16 0 0.64 0.16 0 0.66 0.16 0 0.68 0.16 0 0.7 0.16 0 0.72 0.16 0 0.74 0.16 0 0.76 0.16 0 0.78 0.16 0 0.8 0.16 0 0.82 0.16 0 0.84 0.16 0 0.86 0.16 0 0.88 0.16 0 0.9 0.16 0 0.92 0.16 0 0.94 0.16 0 0.96 0.16 0 0.98 0.16 0 1 0.16 0 0 0.18 0 0.02 0.18 0 0.04 0.18 0 0.06 0.18 0 0.08 0.18 0 0.1 0.18 0 0.12 0.18 0 0.14 0.18 0 0.16 0.18 0 0.18 0.18 0 0.2 0.18 0 0.22 0.18 0 0.24 0.18 0 0.26 0.18 0 0.28 0.18 0 0.3 0.18 0 0.32 0.18 0 0.34 0.18 0 0.36 0.18 0 0.38 0.18 0 0.4 0.18 0 0.42 0.18 0 0.44 0.18 0 0.46 0.18 0 0.48 0.18 0 0.5 0.18 0 0.52 0.18 0 0.54 0.18 0 0.56 0.18 0 0.58 0.18 0 0.6 0.18 0 0.62 0.18 0 0.64 0.18 0 0.66 0.18 0 0.68 0.18 0 0.7 0.18 0 0.72 0.18 0 0.74 0.18 0 0.76 0.18 0 0.78 0.18 0 0.8 0.18 0 0.82 0.18 0 0.84 0.18 0 0.86 0.18 0 0.88 0.18 0 0.9 0.18 0 0.92 0.18 0 0.94 0.18 0 0.96 0.18 0 0.98 0.18 0 1 0.18 0 0 0.2 0 0.02 0.2 0 0.04 0.2 0 0.06 0.2 0 0.08 0.2 0 0.1 0.2 0 0.12 0.2 0 0.14 0.2 0 0.16 0.2 0 0.18 0.2 0 0.2 0.2 0 0.22 0.2 0 0.24 0.2 0 0.26 0.2 0 0.28 0.2 0 0.3 0.2 0 0.32 0.2 0 0.34 0.2 0 0.36 0.2 0 0.38 0.2 0 0.4 0.2 0 0.42 0.2 0 0.44 0.2 0 0.46 0.2 0 0.48 0.2 0 0.5 0.2 0 0.52 0.2 0 0.54 0.2 0 0.56 0.2 0 0.58 0.2 0 0.6 0.2 0 0.62 0.2 0 0.64 0.2 0 0.66 0.2 0 0.68 0.2 0 0.7 0.2 0 0.72 0.2 0 0.74 0.2 0 0.76 0.2 0 0.78 0.2 0 0.8 0.2 0 0.82 0.2 0 0.84 0.2 0 0.86 0.2 0 0.88 0.2 0 0.9 0.2 0 0.92 0.2 0 0.94 0.2 0 0.96 0.2 0 0.98 0.2 0 1 0.2 0 0 0.22 0 0.02 0.22 0 0.04 0.22 0 0.06 0.22 0 0.08 0.22 0 0.1 0.22 0 0.12 0.22 0 0.14 0.22 0 0.16 0.22 0 0.18 0.22 0 0.2 0.22 0 0.22 0.22 0 0.24 0.22 0 0.26 0.22 0 0.28 0.22 0 0.3 0.22 0 0.32 0.22 0 0.34 0.22 0 0.36 0.22 0 0.38 0.22 0 0.4 0.22 0 0.42 0.22 0 0.44 0.22 0 0.46 0.22 0 0.48 0.22 0 0.5 0.22 0 0.52 0.22 0 0.54 0.22 0 0.56 0.22 0 0.58 0.22 0 0.6 0.22 0 0.62 0.22 0 0.64 0.22 0 0.66 0.22 0 0.68 0.22 0 0.7 0.22 0 0.72 0.22 0 0.74 0.22 0 0.76 0.22 0 0.78 0.22 0 0.8 0.22 0 0.82 0.22 0 0.84 0.22 0 0.86 0.22 0 0.88 0.22 0 0.9 0.22 0 0.92 0.22 0 0.94 0.22 0 0.96 0.22 0 0.98 0.22 0 1 0.22 0 0 0.24 0 0.02 0.24 0 0.04 0.24 0 0.06 0.24 0 0.08 0.24 0 0.1 0.24 0 0.12 0.24 0 0.14 0.24 0 0.16 0.24 0 0.18 0.24 0 0.2 0.24 0 0.22 0.24 0 0.24 0.24 0 0.26 0.24 0 0.28 0.24 0 0.3 0.24 0 0.32 0.24 0 0.34 0.24 0 0.36 0.24 0 0.38 0.24 0 0.4 0.24 0 0.42 0.24 0 0.44 0.24 0 0.46 0.24 0 0.48 0.24 0 0.5 0.24 0 0.52 0.24 0 0.54 0.24 0 0.56 0.24 0 0.58 0.24 0 0.6 0.24 0 0.62 0.24 0 0.64 0.24 0 0.66 0.24 0 0.68 0.24 0 0.7 0.24 0 0.72 0.24 0 0.74 0.24 0 0.76 0.24 0 0.78 0.24 0 0.8 0.24 0 0.82 0.24 0 0.84 0.24 0 0.86 0.24 0 0.88 0.24 0 0.9 0.24 0 0.92 0.24 0 0.94 0.24 0 0.96 0.24 0 0.98 0.24 0 1 0.24 0 0 0.26 0 0.02 0.26 0 0.04 0.26 0 0.06 0.26 0 0.08 0.26 0 0.1 0.26 0 0.12 0.26 0 0.14 0.26 0 0.16 0.26 0 0.18 0.26 0 0.2 0.26 0 0.22 0.26 0 0.24 0.26 0 0.26 0.26 0 0.28 0.26 0 0.3 0.26 0 0.32 0.26 0 0.34 0.26 0 0.36 0.26 0 0.38 0.26 0 0.4 0.26 0 0.42 0.26 0 0.44 0.26 0 0.46 0.26 0 0.48 0.26 0 0.5 0.26 0 0.52 0.26 0 0.54 0.26 0 0.56 0.26 0 0.58 0.26 0 0.6 0.26 0 0.62 0.26 0 0.64 0.26 0 0.66 0.26 0 0.68 0.26 0 0.7 0.26 0 0.72 0.26 0 0.74 0.26 0 0.76 0.26 0 0.78 0.26 0 0.8 0.26 0 0.82 0.26 0 0.84 0.26 0 0.86 0.26 0 0.88 0.26 0 0.9 0.26 0 0.92 0.26 0 0.94 0.26 0 0.96 0.26 0 0.98 0.26 0 1 0.26 0 0 0.28 0 0.02 0.28 0 0.04 0.28 0 0.06 0.28 0 0.08 0.28 0 0.1 0.28 0 0.12 0.28 0 0.14 0.28 0 0.16 0.28 0 0.18 0.28 0 0.2 0.28 0 0.22 0.28 0 0.24 0.28 0 0.26 0.28 0 0.28 0.28 0 0.3 0.28 0 0.32 0.28 0 0.34 0.28 0 0.36 0.28 0 0.38 0.28 0 0.4 0.28 0 0.42 0.28 0 0.44 0.28 0 0.46 0.28 0 0.48 0.28 0 0.5 0.28 0 0.52 0.28 0 0.54 0.28 0 0.56 0.28 0 0.58 0.28 0 0.6 0.28 0 0.62 0.28 0 0.64 0.28 0 0.66 0.28 0 0.68 0.28 0 0.7 0.28 0 0.72 0.28 0 0.74 0.28 0 0.76 0.28 0 0.78 0.28 0 0.8 0.28 0 0.82 0.28 0 0.84 0.28 0 0.86 0.28 0 0.88 0.28 0 0.9 0.28 0 0.92 0.28 0 0.94 0.28 0 0.96 0.28 0 0.98 0.28 0 1 0.28 0 0 0.3 0 0.02 0.3 0 0.04 0.3 0 0.06 0.3 0 0.08 0.3 0 0.1 0.3 0 0.12 0.3 0 0.14 0.3 0 0.16 0.3 0 0.18 0.3 0 0.2 0.3 0 0.22 0.3 0 0.24 0.3 0 0.26 0.3 0 0.28 0.3 0 0.3 0.3 0 0.32 0.3 0 0.34 0.3 0 0.36 0.3 0 0.38 0.3 0 0.4 0.3 0 0.42 0.3 0 0.44 0.3 0 0.46 0.3 0 0.48 0.3 0 0.5 0.3 0 0.52 0.3 0 0.54 0.3 0 0.56 0.3 0 0.58 0.3 0 0.6 0.3 0 0.62 0.3 0 0.64 0.3 0 0.66 0.3 0 0.68 0.3 0 0.7 0.3 0 0.72 0.3 0 0.74 0.3 0 0.76 0.3 0 0.78 0.3 0 0.8 0.3 0 0.82 0.3 0 0.84 0.3 0 0.86 0.3 0 0.88 0.3 0 0.9 0.3 0 0.92 0.3 0 0.94 0.3 0 0.96 0.3 0 0.98 0.3 0 1 0.3 0 0 0.32 0 0.02 0.32 0 0.04 0.32 0 0.06 0.32 0 0.08 0.32 0 0.1 0.32 0 0.12 0.32 0 0.14 0.32 0 0.16 0.32 0 0.18 0.32 0 0.2 0.32 0 0.22 0.32 0 0.24 0.32 0 0.26 0.32 0 0.28 0.32 0 0.3 0.32 0 0.32 0.32 0 0.34 0.32 0 0.36 0.32 0 0.38 0.32 0 0.4 0.32 0 0.42 0.32 0 0.44 0.32 0 0.46 0.32 0 0.48 0.32 0 0.5 0.32 0 0.52 0.32 0 0.54 0.32 0 0.56 0.32 0 0.58 0.32 0 0.6 0.32 0 0.62 0.32 0 0.64 0.32 0 0.66 0.32 0 0.68 0.32 0 0.7 0.32 0 0.72 0.32 0 0.74 0.32 0 0.76 0.32 0 0.78 0.32 0 0.8 0.32 0 0.82 0.32 0 0.84 0.32 0 0.86 0.32 0 0.88 0.32 0 0.9 0.32 0 0.92 0.32 0 0.94 0.
[...]
			<PointData Scalars="VitesseX">
				<DataArray Name="VitesseX" type="Float32" format="ascii">
 0 0 0 0 0 0 0 0 0 0 0 0 0 0 0 0 0 0 0 0 0 0 0 0 0 0 0 0 0 0 0 0 0 0 0 0 0 0 0 0 0 0 0 0 0 0 0 0 0 0 0 0 9.25871e-05 0.000368875 0.000824522 0.00145231 0.00224235 0.00318215 0.00425691 0.00544967 0.00674163 0.00811241 0.00954042 0.0110031 0.0124775 0.0139402 0.0153684 0.0167393 0.0180316 0.0192246 0.0202998 0.02124 0.0220306 0.0226589 0.0231151 0.0233925 0.0234851 0.0233928 0.0231172 0.0226612 0.0220336 0.0212436 0.0203037 0.0192289 0.0180359 0.0167436 0.0153725 0.0139441 0.012481 0.0110063 0.00954313 0.00811465 0.00674341 0.00545103 0.00425789 0.00318281 0.00224276 0.00145254 0.000824634 0.000368923 9.25938e-05 1.00458e-27 0 0.000183695 0.000731805 0.00163571 0.00288102 0.00444804 0.00631203 0.00844357 0.0108091 0.0133712 0.0160897 0.0189217 0.0218225 0.0247465 0.0276477 0.0304806 0.0332004 0.0357644 0.0381322 0.0402663 0.0421333 0.0437036 0.0449525 0.0458601 0.0464143 0.0465997 0.04642 0.0458771 0.0449742 0.0437312 0.0421658 0.0403025 0.0381706 0.035804 0.0332398 0.0305186 0.0276833 0.0247788 0.0218511 0.0189461 0.0161099 0.0133872 0.0108212 0.00845226 0.00631785 0.00445161 0.00288296 0.0016366 0.000732131 0.000183738 1.99329e-27 0 0.000271889 0.00108309 0.00242084 0.00426371 0.00658255 0.00934067 0.0124946 0.0159945 0.0197853 0.0238074 0.0279975 0.0322896 0.0366159 0.0409088 0.045101 0.0491264 0.0529217 0.056427 0.0595872 0.0623526 0.0646794 0.0665309 0.0678777 0.0687028 0.0689793 0.0687171 0.0679178 0.0665831 0.0647458 0.0624307 0.0596742 0.0565196 0.0530169 0.0492211 0.0451925 0.0409945 0.0366936 0.0323582 0.0280564 0.023856 0.0198239 0.0160237 0.0125155 0.00935465 0.00659111 0.00426836 0.00242295 0.00108385 0.000271991 2.95052e-27 0 0.000355781 0.00141719 0.00316753 0.00557861 0.00861221 0.0122203 0.016346 0.0209242 0.0258828 0.0311439 0.0366247 0.0422392 0.0478985 0.0535144 0.0589991 0.0642661 0.0692328 0.0738209 0.0779581 0.0815793 0.0846273 0.0870539 0.0888204 0.0899066 0.090271 0.0899327 0.0888923 0.0871479 0.084747 0.0817202 0.0781149 0.073988 0.0694047 0.0644372 0.0591642 0.0536691 0.0480388 0.0423631 0.036731 0.0312316 0.0259523 0.0209768 0.0163837 0.0122455 0.00862763 0.00558697 0.00317132 0.00141855 0.000355962 3.86118e-27 0 0.000434047 0.00172884 0.00386401 0.00680497 0.010505 0.0149056 0.0199372 0.0255204 0.0315675 0.0379834 0.0446674 0.0515145 0.0584164 0.0652657 0.0719559 0.0783812 0.0844409 0.0900397 0.0950894 0.0995103 0.103233 0.106198 0.108358 0.109691 0.110139 0.109732 0.10847 0.106345 0.10342 0.09973 0.095334 0.0903006 0.0847092 0.0786483 0.0722137 0.0655073 0.0586355 0.0517079 0.0448332 0.0381203 0.031676 0.0256025 0.019996 0.0149449 0.0105291 0.00681798 0.0038699 0.00173094 0.000434326 4.71093e-27 0 0.000505455 0.00201314 0.00449931 0.00792346 0.0122312 0.0173542 0.0232115 0.0297108 0.0367499 0.0442182 0.0519987 0.0599692 0.0680039 0.0759777 0.0837671 0.091249 0.0983059 0.104827 0.11071 0.115862 0.120202 0.12366 0.126182 0.127743 0.128269 0.127803 0.126341 0.12387 0.120469 0.116176 0.111059 0.105199 0.0986887 0.0916298 0.0841348 0.0763225 0.0683166 0.0602453 0.0522354 0.0444135 0.0369046 0.0298279 0.0232953 0.0174102 0.0122654 0.00794198 0.00450767 0.00201611 0.000505849 5.48638e-27 0 0.000568881 0.00226561 0.00506342 0.00891646 0.0137634 0.0195274 0.0261172 0.0334292 0.0413482 0.04975 0.058503 0.0674701 0.0765096 0.0854812 0.0942462 0.102666 0.110609 0.11795 0.124574 0.130377 0.135267 0.139166 0.142012 0.143779 0.144377 0.143861 0.142224 0.139448 0.135625 0.130798 0.125043 0.11845 0.111123 0.103177 0.0947396 0.0859438 0.0769293 0.0678406 0.0588207 0.050012 0.0415557 0.0335862 0.0262297 0.0196025 0.0138093 0.00894126 0.00507458 0.00226954 0.000569402 6.17532e-27 0 0.000623326 0.00248229 0.00554745 0.00976833 0.0150777 0.0213911 0.0286087 0.036617 0.0452899 0.0544916 0.0640778 0.0738987 0.0837994 0.0936265 0.103228 0.112453 0.121156 0.129202 0.136464 0.142827 0.148192 0.152471 0.155598 0.157545 0.158208 0.157652 0.155868 0.152832 0.148651 0.143368 0.137065 0.129843 0.121815 0.113109 0.103861 0.0942198 0.0843377 0.0743744 0.0644855 0.0548275 0.0455561 0.0368183 0.0287528 0.0214873 0.0151364 0.00980004 0.00556168 0.00248726 0.000623983 6.7669e-27 0 0.000667934 0.00265975 0.00594377 0.0104656 0.0161531 0.0229158 0.0306467 0.039224 0.0485129 0.0583679 0.068635 0.079154 0.0897586 0.100285 0.110571 0.120455 0.129781 0.138405 0.146191 0.153016 0.158771 0.163366 0.166726 0.168824 0.169543 0.168958 0.167058 0.163813 0.15934 0.153685 0.146936 0.1392 0.130598 0.121268 0.111356 0.10102 0.0904257 0.0797432 0.0691396 0.0587839 0.0488426 0.0394732 0.030825 0.0230349 0.0162258 0.0105048 0.0059613 0.00266581 0.000668733 7.2518e-27 0 0.000702001 0.00279521 0.00624614 0.0109974 0.0169729 0.0240776 0.032199 0.0412091 0.0509664 0.0613182 0.0721031 0.0831529 0.0942931 0.105352 0.116159 0.126546 0.13635 0.145416 0.153603 0.160782 0.166839 0.171677 0.17522 0.177437 0.178205 0.177601 0.175617 0.172216 0.167523 0.161587 0.1545 0.146372 0.137333 0.127525 0.117104 0.106237 0.0950971 0.0838621 0.0727104 0.0618191 0.0513631 0.041509 0.0324135 0.0242208 0.0170602 0.0110444 0.00626714 0.00280239 0.000702945 7.6224e-27 0 0.000725021 0.00288676 0.00645056 0.011357 0.0175273 0.0248634 0.0332491 0.0425521 0.0526265 0.0633147 0.0744502 0.0858592 0.0973615 0.108781 0.119942 0.130669 0.140794 0.150159 0.158616 0.166034 0.172294 0.177296 0.180961 0.183258 0.184056 0.183445 0.181411 0.177908 0.173072 0.16695 0.159637 0.151247 0.141913 0.131783 0.121017 0.109789 0.0982773 0.0866668 0.0751422 0.0638849 0.0530776 0.0428932 0.0334931 0.0250263 0.0176266 0.0114103 0.00647436 0.00289485 0.00072608 7.87286e-27 0 0.000736514 0.00293206 0.00655078 0.0115317 0.0177947 0.0252397 0.0337486 0.0431872 0.0534079 0.0642512 0.0755483 0.0871233 0.0987951 0.110385 0.121716 0.132608 0.142894 0.152412 0.161014 0.168565 0.174944 0.180049 0.183798 0.186161 0.187005 0.186404 0.184364 0.180825 0.17593 0.169726 0.162306 0.153789 0.144309 0.134017 0.123075 0.111659 0.0999525 0.0881445 0.0764222 0.064971 0.0539774 0.0436179 0.0340566 0.0254451 0.0179198 0.0115989 0.00658057 0.00294198 0.000737808 7.99924e-27 0 0.000736513 0.00293205 0.00655072 0.0115316 0.0177944 0.0252391 0.0337475 0.0431856 0.0534057 0.0642483 0.0755443 0.0871191 0.0987911 0.11038 0.12171 0.132603 0.142889 0.152407 0.16101 0.168561 0.174941 0.180047 0.183798 0.186161 0.187005 0.186404 0.184364 0.180826 0.175932 0.169727 0.162309 0.153792 0.144312 0.13402 0.123078 0.111663 0.0999564 0.0881477 0.0764244 0.0649732 0.0539794 0.0436189 0.034057 0.0254454 0.0179201 0.011599 0.00658061 0.00294199 0.000737809 7.99957e-27 0 0.000724792 0.00288496 0.00644456 0.0113431 0.0175014 0.0248206 0.0331845 0.0424614 0.0525063 0.0631627 0.0742647 0.0856422 0.0971161 0.10851 0.119653 0.130369 0.140492 0.149864 0.158339 0.165784 0.17208 0.177127 0.180842 0.183193 0.184056 0.183496 0.18153 0.17808 0.173293 0.167211 0.159928 0.151557 0.142232 0.132101 0.121324 0.110078 0.0985403 0.086898 0.075339 0.0640479 0.053207 0.0429906 0.0335621 0.025072 0.0176544 0.0114252 0.00648078 0.0028968 0.000726327 7.87383e-27 0 0.000701669 0.0027926 0.00623744 0.0109773 0.0169351 0.0240152 0.0321049 0.041077 0.0507913 0.0610966 0.0718336 0.0828371 0.0939346 0.104958 0.11574 0.12611 0.13591 0.144988 0.1532 0.160418 0.166528 0.171431 0.175048 0.177342 0.178204 0.177672 0.175782 0.172453 0.167828 0.161948 0.154902 0.146803 0.137776 0.127967 0.117531 0.106637 0.0954609 0.084183 0.072984 0.0620446 0.0515419 0.0416441 0.0325097 0.0242844 0.0170988 0.0110649 0.00627603 0.00280508 0.000703285 7.624e-27 0 0.000667475 0.00265613 0.00593173 0.0104378 0.0161008 0.0228295 0.0305167 0.0390415 0.0482708 0.0580612 0.0682627 0.0787175 0.0892632 0.0997407 0.10999 0.119852 0.129174 0.137814 0.145634 0.152514 0.158342 0.163026 0.166488 0.168693 0.169542 0.169057 0.167284 0.164139 0.159758 0.154179 0.147488 0.13979 0.131206 0.121873 0.111941 0.101569 0.0909254 0.0801837 0.0695157 0.059093 0.049087 0.0396581 0.030957 0.0231225 0.0162787 0.0105329 0.0059735 0.0026695 0.000669198 7.25403e-27 0 0.000622748 0.00247772 0.00553227 0.00973328 0.0150117 0.0212821 0.0284447 0.0363868 0.0449845 0.0541044 0.0636071 0.0733476 0.083175 0.0929395 0.102494 0.111692 0.12039 0.128455 0.135762 0.142194 0.147651 0.152043 0.155299 0.157381 0.158207 0.157777 0.156152 0.153242 0.149176 0.143989 0.137759 0.130584 0.122578 0.113869 0.104596 0.0949089 0.0849652 0.0749273 0.0649577 0.0552161 0.0458625 0.0370499 0.0289184 0.0215971 0.0152027 0.00983527 0.00557699 0.00249188 0.000624567 6.76972e-27 0 0.000568191 0.00226017 0.00504534 0.00887471 0.0136848 0.0193975 0.0259218 0.0331549 0.0409843 0.0492895 0.0579432 0.0668142 0.0757664 0.0846625 0.0933714 0.101759 0.109696 0.117061 0.123738 0.129624 0.134624 0.138657 0.141657 0.143585 0.144376 0.144012 0.142561 0.139935 0.13625 0.131537 0.125867 0.11933 0.112029 0.10408 0.0956119 0.0867618 0.0776739 0.0684975 0.0593815 0.0504737 0.0419204 0.0338614 0.0264261 0.019733 0.0138881 0.00898305 0.00509274 0.00227503 0.000570095 6.17872e-27 0 0.000504664 0.00200691 0.00447861 0.00787566 0.0121411 0.0172054 0.0229876 0.0293967 0.0363331 0.0436913 0.0513585 0.0592187 0.0671528 0.0750406 0.082766 0.0902105 0.097261 0.103809 0.109753 0.115 0.119466 0.123079 0.125777 0.127524 0.128269 0.127979 0.126727 0.124428 0.121183 0.11702 0.112001 0.106205 0.0997238 0.0926609 0.0851309 0.0772564 0.0691667 0.0609953 0.0528759 0.0449408 0.0373215 0.0301422 0.0235195 0.0175593 0.0123555 0.00798971 0.0045284 0.00202237 0.00050664 5.49031e-27 0 0.000433168 0.00172191 0.00384102 0.00675187 0.010405 0.0147404 0.0196884 0.0251714 0.0311045 0.0373978 0.0439559 0.0506805 0.0574709 0.0642255 0.070845 0.0772287 0.0832812 0.0889098 0.0940274 0.098554 0.102417 0.105553 0.10791 0.10945 0.110138 0.109931 0.108899 0.106965 0.104213 0.100666 0.0963788 0.0914162 0.0858573 0.0797917 0.0733181 0.0665429 0.0595778 0.0525392 0.0455432 0.0387048 0.0321381 0.0259509 0.0202445 0.0151101 0.0106289 0.00687088 0.00389287 0.00173788 0.000435204 4.71535e-27 0 0.000354827 0.00140967 0.00314261 0.00552105 0.00850376 0.0120412 0.0160763 0.0205458 0.0253809 0.030509 0.0358536 0.0413353 0.0468735 0.052387 0.0577954 0.0630177 0.0679767 0.0725974 0.0768086 0.0805445 0.0837452 0.0863576 0.0883367 0.0896489 0.0902705 0.0901518 0.0893584 0.0878215 0.0856073 0.0827347 0.0792469 0.0751966 0.0706482 0.0656754 0.0603599 0.05479 0.0490586 0.0432626 0.0374992 0.0318641 0.0264524 0.0213539 0.0166526 0.0124242 0.00873565 0.00564421 0.00319616 0.00142606 0.000356912 3.86604e-27 0 0.000270876 0.0010751 0.00239438 0.00420262 0.0064674 0.00915043 0.0122082 0.0155927 0.0192525 0.0231333 0.0271788 0.0313302 0.0355284 0.0397124 0.0438231 0.0478015 0.051589 0.0551292 0.0583684 0.0612558 0.063745 0.0657941 0.0673667 0.0684332 0.0689791 0.0689546 0.0684133 0.0672998 0.0656603 0.0635088 0.060876 0.057802 0.0543362 0.0505345 0.0464606 0.0421831 0.037775 0.0333119 0.0288707 0.0245265 0.020354 0.0164235 0.0128005 0.009544 0.00670568 0.00432905 0.00244927 0.00109181 0.000272998 2.95575e-27 0 0.000182639 0.000723474 0.00160813 0.00281734 0.00432802 0.00611373 0.00814504 0.0103903 0.0128159 0.0153875 0.0180689 0.0208228 0.0236132 0.0264018 0.0291498 0.0318203 0.0343764 0.0367809 0.0389975 0.0409921 0.0427321 0.0441871 0.0453304 0.0461388 0.0465968 0.0466765 0.0463916 0.0457243 0.0446865 0.0432908 0.0415554 0.039507 0.0371786 0.0346079 0.0318394 0.0289211 0.0259048 0.022844 0.0197938 0.0168079 0.0139391 0.0112375 0.00874902 0.00651499 0.00457091 0.00294617 0.00166401 0.000740418 0.000184787 1.99882e-27 0 9.15049e-05 0.000360336 0.000796263 0.00138708 0.00211939 0.002979 0.00395109 0.00502069 0.00617282 0.00739325 0.00866706 0.00997931 0.0113164 0.012664 0.014006 0.0153265 0.0166109 0.017842 0.0190019 0.0200731 0.0210377 0.0218775 0.0225754 0.0231151 0.023482 0.0236624 0.0236454 0.0234333 0.023016 0.0223989 0.0215899 0.0206003 0.0194459 0.0181468 0.0167269 0.0152132 0.0136353 0.0120242 0.010412 0.00883007 0.00730907 0.00587765 0.00456201 0.00338486 0.00236502 0.00151734 0.000852727 0.000377417 9.3669e-05 1.01034e-27 0 -1.08059e-06 -8.52972e-06 -2.82215e-05 -6.51474e-05 -0.00012282 -0.000202973 -0.000305567 -0.000428656 -0.000568287 -0.000718897 -0.000873196 -0.00102309 -0.00116006 -0.00127541 -0.00136146 -0.00141156 -0.00141881 -0.00138 -0.00129467 -0.00116337 -0.000989231 -0.00077769 -0.000536018 -0.000273288 5.48971e-08 0.000273063 0.000534944 0.000777624 0.000990003 0.00116341 0.00129471 0.00137977 0.00141787 0.00141065 0.00136149 0.0012755 0.00115997 0.00102296 0.000873032 0.000718796 0.000568319 0.000428595 0.000305535 0.000202979 0.000122816 6.51245e-05 2.82249e-05 8.53361e-06 1.08057e-06 5.88679e-30 0 -9.3669e-05 -0.000377413 -0.000852719 -0.00151738 -0.002365 -0.00338485 -0.00456204 -0.00587769 -0.007309 -0.00883006 -0.0104122 -0.0120243 -0.0136351 -0.0152131 -0.0167269 -0.0181475 -0.0194469 -0.020601 -0.0215904 -0.022399 -0.0230155 -0.0234335 -0.0236464 -0.0236627 -0.0234821 -0.0231152 -0.0225762 -0.0218774 -0.0210371 -0.0200731 -0.0190019 -0.0178419 -0.0166111 -0.0153267 -0.0140052 -0.0126635 -0.0113165 -0.00997939 -0.00866676 -0.00739312 -0.00617288 -0.00502069 -0.00395109 -0.00297899 -0.00211941 -0.0013871 -0.000796269 -0.000360331 -9.15049e-05 -9.98708e-28 0 -0.000184787 -0.000740415 -0.001664 -0.0029462 -0.00457088 -0.006515 -0.00874905 -0.0112375 -0.0139391 -0.0168078 -0.0197938 -0.022844 -0.0259046 -0.028921 -0.0318392 -0.034608 -0.0371787 -0.0395078 -0.041556 -0.0432907 -0.0446864 -0.0457244 -0.046392 -0.0466767 -0.0465969 -0.046139 -0.0453307 -0.0441871 -0.0427318 -0.0409924 -0.0389976 -0.0367802 -0.0343759 -0.0318204 -0.0291491 -0.0264008 -0.0236129 -0.0208229 -0.0180686 -0.0153874 -0.0128159 -0.0103902 -0.00814499 -0.00611371 -0.00432804 -0.00281736 -0.00160815 -0.000723469 -0.000182639 -1.9876e-27 0 -0.000272998 -0.00109181 -0.00244926 -0.00432909 -0.00670566 -0.00954404 -0.0128005 -0.0164236 -0.020354 -0.0245264 -0.0288703 -0.0333118 -0.037775 -0.0421831 -0.0464605 -0.0505346 -0.0543362 -0.0578024 -0.0608766 -0.0635093 -0.0656606 -0.0672997 -0.068413 -0.0689543 -0.0689789 -0.0684331 -0.0673664 -0.0657939 -0.063745 -0.0612562 -0.0583687 -0.0551288 -0.0515884 -0.0478015 -0.043823 -0.039712 -0.035528 -0.0313302 -0.0271789 -0.0231335 -0.0192525 -0.0155925 -0.012208 -0.00915039 -0.00646741 -0.00420264 -0.00239441 -0.00107509 -0.000270876 -2.94518e-27 0 -0.000356912 -0.00142605 -0.00319613 -0.00564422 -0.00873569 -0.0124242 -0.0166526 -0.0213541 -0.0264524 -0.0318642 -0.0374991 -0.0432625 -0.0490584 -0.0547897 -0.06036 -0.0656754 -0.0706483 -0.0751967 -0.0792469 -0.0827358 -0.0856088 -0.0878214 -0.0893574 -0.0901514 -0.0902703 -0.0896484 -0.0883363 -0.0863574 -0.0837453 -0.0805451 -0.0768092 -0.0725974 -0.0679767 -0.0630175 -0.0577949 -0.0523868 -0.0468736 -0.0413354 -0.0358536 -0.0305091 -0.0253809 -0.0205455 -0.0160761 -0.0120411 -0.00850377 -0.00552107 -0.00314263 -0.00140966 -0.000354827 -3.85635e-27 0 -0.000435204 -0.00173788 -0.00389282 -0.00687086 -0.0106289 -0.0151101 -0.0202446 -0.0259512 -0.0321382 -0.0387049 -0.0455428 -0.0525384 -0.0595774 -0.0665423 -0.0733178 -0.0797917 -0.0858572 -0.0914162 -0.0963784 -0.100667 -0.104214 -0.106964 -0.108898 -0.10993 -0.110138 -0.10945 -0.10791 -0.105553 -0.102417 -0.0985547 -0.0940274 -0.0889103 -0.0832821 -0.0772285 -0.0708447 -0.0642254 -0.0574708 -0.0506806 -0.0439559 -0.0373978 -0.0311045 -0.0251711 -0.0196882 -0.0147403 -0.010405 -0.00675187 -0.00384105 -0.00172191 -0.000433167 -4.70673e-27 0 -0.00050664 -0.00202237 -0.00452835 -0.00798967 -0.0123555 -0.0175592 -0.0235196 -0.0301425 -0.0373216 -0.0449407 -0.0528756 -0.0609953 -0.0691669 -0.0772561 -0.0851303 -0.0926606 -0.0997237 -0.106205 -0.112001 -0.117019 -0.121182 -0.124428 -0.126727 -0.127979 -0.128269 -0.127524 -0.125777 -0.123079 -0.119467 -0.115 -0.109753 -0.10381 -0.0972619 -0.0902108 -0.0827665 -0.075041 -0.0671524 -0.0592184 -0.0513581 -0.043691 -0.036333 -0.0293962 -0.0229873 -0.0172053 -0.0121411 -0.00787567 -0.00447865 -0.00200691 -0.000504664 -5.48288e-27 0 -0.000570095 -0.00227503 -0.0050927 -0.00898301 -0.0138882 -0.019733 -0.0264263 -0.0338619 -0.041921 -0.0504738 -0.0593818 -0.0684982 -0.0776742 -0.0867617 -0.0956116 -0.10408 -0.112029 -0.11933 -0.125867 -0.131536 -0.13625 -0.139935 -0.142562 -0.144012 -0.144376 -0.143585 -0.141657 -0.138657 -0.134624 -0.129624 -0.123738 -0.117061 -0.109696 -0.101759 -0.0933721 -0.0846628 -0.0757658 -0.0668142 -0.0579435 -0.0492895 -0.040984 -0.0331544 -0.0259215 -0.0193974 -0.0136848 -0.00887475 -0.00504539 -0.00226018 -0.000568191 -6.17256e-27 0 -0.000624567 -0.00249188 -0.00557695 -0.00983517 -0.0152027 -0.0215972 -0.0289185 -0.0370506 -0.0458638 -0.0552165 -0.0649575 -0.0749273 -0.0849648 -0.0949086 -0.104596 -0.113869 -0.122578 -0.130584 -0.137759 -0.143989 -0.149176 -0.153242 -0.156152 -0.157777 -0.158207 -0.157381 -0.155299 -0.152044 -0.147651 -0.142195 -0.135762 -0.128455 -0.12039 -0.111692 -0.102494 -0.0929394 -0.0831751 -0.0733483 -0.0636081 -0.0541049 -0.0449842 -0.0363864 -0.0284445 -0.021282 -0.0150116 -0.00973334 -0.00553233 -0.00247773 -0.000622747 -6.76486e-27 0 -0.000669198 -0.0026695 -0.00597347 -0.0105327 -0.0162785 -0.0231224 -0.030957 -0.0396583 -0.0490877 -0.059094 -0.069516 -0.0801836 -0.090925 -0.101569 -0.111941 -0.121873 -0.131206 -0.13979 -0.147488 -0.154179 -0.159758 -0.164139 -0.167284 -0.169056 -0.169542 -0.168693 -0.166488 -0.163026 -0.158342 -0.152514 -0.145634 -0.137813 -0.129175 -0.119852 -0.10999 -0.0997403 -0.0892636 -0.0787175 -0.0682627 -0.0580614 -0.0482705 -0.0390412 -0.0305166 -0.0228293 -0.0161008 -0.0104379 -0.0059318 -0.00265614 -0.000667475 -7.25043e-27 0 -0.000703285 -0.00280508 -0.00627602 -0.0110648 -0.0170986 -0.0242845 -0.0325096 -0.0416439 -0.0515419 -0.0620452 -0.0729851 -0.0841834 -0.0954608 -0.106638 -0.117532 -0.127968 -0.137776 -0.146802 -0.154903 -0.161948 -0.167828 -0.172453 -0.175782 -0.177672 -0.178204 -0.177342 -0.175048 -0.171431 -0.166528 -0.160418 -0.1532 -0.144987 -0.135911 -0.12611 -0.115739 -0.104958 -0.0939352 -0.0828372 -0.0718339 -0.0610966 -0.0507912 -0.041077 -0.0321049 -0.0240151 -0.0169351 -0.0109774 -0.00623749 -0.0027926 -0.000701669 -7.6216e-27 0 -0.000726326 -0.0028968 -0.00648078 -0.0114251 -0.0176543 -0.0250721 -0.0335624 -0.0429907 -0.053207 -0.064048 -0.0753397 -0.0868984 -0.0985394 -0.110077 -0.121325 -0.132102 -0.142232 -0.151557 -0.159928 -0.167211 -0.173292 -0.17808 -0.18153 -0.183496 -0.184056 -0.183193 -0.180842 -0.177127 -0.17208 -0.165784 -0.158339 -0.149864 -0.140492 -0.130369 -0.119653 -0.108511 -0.0971162 -0.0856424 -0.0742653 -0.0631627 -0.0525063 -0.0424614 -0.0331845 -0.0248205 -0.0175013 -0.0113432 -0.00644461 -0.00288497 -0.000724792 -7.87249e-27 0 -0.000737809 -0.00294199 -0.00658061 -0.0115989 -0.0179199 -0.0254452 -0.0340569 -0.043619 -0.0539795 -0.0649732 -0.0764243 -0.0881474 -0.0999557 -0.111662 -0.123078 -0.13402 -0.144312 -0.153792 -0.162309 -0.169727 -0.175932 -0.180826 -0.184364 -0.186404 -0.187005 -0.186161 -0.183798 -0.180047 -0.174941 -0.168562 -0.161011 -0.152408 -0.142889 -0.132603 -0.12171 -0.11038 -0.0987908 -0.0871192 -0.0755444 -0.0642481 -0.0534057 -0.0431856 -0.0337475 -0.025239 -0.0177943 -0.0115316 -0.00655075 -0.00293205 -0.000736513 -7.99915e-27 0 -0.000737808 -0.00294198 -0.00658058 -0.0115989 -0.0179197 -0.0254448 -0.0340562 -0.0436179 -0.053978 -0.0649713 -0.076422 -0.0881448 -0.0999527 -0.111659 -0.123075 -0.134016 -0.144309 -0.153789 -0.162306 -0.169726 -0.175931 -0.180825 -0.184364 -0.186404 -0.187005 -0.186161 -0.183799 -0.180049 -0.174944 -0.168565 -0.161015 -0.152412 -0.142894 -0.132608 -0.121715 -0.110385 -0.0987957 -0.0871237 -0.0755481 -0.064251 -0.0534079 -0.0431872 -0.0337485 -0.0252396 -0.0177947 -0.0115318 -0.0065508 -0.00293206 -0.000736514 -7.99957e-27 0 -0.00072608 -0.00289485 -0.00647436 -0.0114103 -0.0176266 -0.0250262 -0.033493 -0.0428933 -0.053078 -0.063885 -0.075142 -0.0866672 -0.0982774 -0.10979 -0.121018 -0.1