<?xml version="1.0"?>
<VTKFile type="PolyData">
	<PolyData>
		<Piece NumberOfPoints="2601" NumberOfPolys="2500">
			<Points>
				<DataArray type="Float32" NumberOfComponents="3" format="ascii">
 0 0 0 0.02 0 0 0.04 0 0 0.06 0 0 0.08 0 0 0.1 0 0 0.12 0 0 0.14 0 0 0.16 0 0 0.18 0 0 0.2 0 0 0.22 0 0 0.24 0 0 0.26 0 0 0.28 0 0 0.3 0 0 0.32 0 0 0.34 0 0 0.36 0 0 0.38 0 0 0.4 0 0 0.42 0 0 0.44 0 0 0.46 0 0 0.48 0 0 0.5 0 0 0.52 0 0 0.54 0 0 0.56 0 0 0.58 0 0 0.6 0 0 0.62 0 0 0.64 0 0 0.66 0 0 0.68 0 0 0.7 0 0 0.72 0 0 0.74 0 0 0.76 0 0 0.78 0 0 0.8 0 0 0.82 0 0 0.84 0 0 0.86 0 0 0.88 0 0 0.9 0 0 0.92 0 0 0.94 0 0 0.96 0 0 0.98 0 0 1 0 0 0 0.02 0 0.02 0.02 0 0.04 0.02 0 0.06 0.02 0 0.08 0.02 0 0.1 0.02 0 0.12 0.02 0 0.14 0.02 0 0.16 0.02 0 0.18 0.02 0 0.2 0.02 0 0.22 0.02 0 0.24 0.02 0 0.26 0.02 0 0.28 0.02 0 0.3 0.02 0 0.32 0.02 0 0.34 0.02 0 0.36 0.02 0 0.38 0.02 0 0.4 0.02 0 0.42 0.02 0 0.44 0.02 0 0.46 0.02 0 0.48 0.02 0 0.5 0.02 0 0.52 0.02 0 0.54 0.02 0 0.56 0.02 0 0.58 0.02 0 0.6 0.02 0 0.62 0.02 0 0.64 0.02 0 0.66 0.02 0 0.68 0.02 0 0.7 0.02 0 0.72 0.02 0 0.74 0.02 0 0.76 0.02 0 0.78 0.02 0 0.8 0.02 0 0.82 0.02 0 0.84 0.02 0 0.86 0.02 0 0.88 0.02 0 0.9 0.02 0 0.92 0.02 0 0.94 0.02 0 0.96 0.02 0 0.98 0.02 0 1 0.02 0 0 0.04 0 0.02 0.04 0 0.04 0.04 0 0.06 0.04 0 0.08 0.04 0 0.1 0.04 0 0.12 0.04 0 0.14 0.04 0 0.16 0.04 0 0.18 0.04 0 0.2 0.04 0 0.22 0.04 0 0.24 0.04 0 0.26 0.04 0 0.28 0.04 0 0.3 0.04 0 0.32 0.04 0 0.34 0.04 0 0.36 0.04 0 0.38 0.04 0 0.4 0.04 0 0.42 0.04 0 0.44 0.04 0 0.46 0.04 0 0.48 0.04 0 0.5 0.04 0 0.52 0.04 0 0.54 0.04 0 0.56 0.04 0 0.58 0.04 0 0.6 0.04 0 0.62 0.04 0 0.64 0.04 0 0.66 0.04 0 0.68 0.04 0 0.7 0.04 0 0.72 0.04 0 0.74 0.04 0 0.76 0.04 0 0.78 0.04 0 0.8 0.04 0 0.82 0.04 0 0.84 0.04 0 0.86 0.04 0 0.88 0.04 0 0.9 0.04 0 0.92 0.04 0 0.94 0.04 0 0.96 0.04 0 0.98 0.04 0 1 0.04 0 0 0.06 0 0.02 0.06 0 0.04 0.06 0 0.06 0.06 0 0.08 0.06 0 0.1 0.06 0 0.12 0.06 0 0.14 0.06 0 0.16 0.06 0 0.18 0.06 0 0.2 0.06 0 0.22 0.06 0 0.24 0.06 0 0.26 0.06 0 0.28 0.06 0 0.3 0.06 0 0.32 0.06 0 0.34 0.06 0 0.36 0.06 0 0.38 0.06 0 0.4 0.06 0 0.42 0.06 0 0.44 0.06 0 0.46 0.06 0 0.48 0.06 0 0.5 0.06 0 0.52 0.06 0 0.54 0.06 0 0.56 0.06 0 0.58 0.06 0 0.6 0.06 0 0.62 0.06 0 0.64 0.06 0 0.66 0.06 0 0.68 0.06 0 0.7 0.06 0 0.72 0.06 0 0.74 0.06 0 0.76 0.06 0 0.78 0.06 0 0.8 0.06 0 0.82 0.06 0 0.84 0.06 0 0.86 0.06 0 0.88 0.06 0 0.9 0.06 0 0.92 0.06 0 0.94 0.06 0 0.96 0.06 0 0.98 0.06 0 1 0.06 0 0 0.08 0 0.02 0.08 0 0.04 0.08 0 0.06 0.08 0 0.08 0.08 0 0.1 0.08 0 0.12 0.08 0 0.14 0.08 0 0.16 0.08 0 0.18 0.08 0 0.2 0.08 0 0.22 0.08 0 0.24 0.08 0 0.26 0.08 0 0.28 0.08 0 0.3 0.08 0 0.32 0.08 0 0.34 0.08 0 0.36 0.08 0 0.38 0.08 0 0.4 0.08 0 0.42 0.08 0 0.44 0.08 0 0.46 0.08 0 0.48 0.08 0 0.5 0.08 0 0.52 0.08 0 0.54 0.08 0 0.56 0.08 0 0.58 0.08 0 0.6 0.08 0 0.62 0.08 0 0.64 0.08 0 0.66 0.08 0 0.68 0.08 0 0.7 0.08 0 0.72 0.08 0 0.74 0.08 0 0.76 0.08 0 0.78 0.08 0 0.8 0.08 0 0.82 0.08 0 0.84 0.08 0 0.86 0.08 0 0.88 0.08 0 0.9 0.08 0 0.92 0.08 0 0.94 0.08 0 0.96 0.08 0 0.98 0.08 0 1 0.08 0 0 0.1 0 0.02 0.1 0 0.04 0.1 0 0.06 0.1 0 0.08 0.1 0 0.1 0.1 0 0.12 0.1 0 0.14 0.1 0 0.16 0.1 0 0.18 0.1 0 0.2 0.1 0 0.22 0.1 0 0.24 0.1 0 0.26 0.1 0 0.28 0.1 0 0.3 0.1 0 0.32 0.1 0 0.34 0.1 0 0.36 0.1 0 0.38 0.1 0 0.4 0.1 0 0.42 0.1 0 0.44 0.1 0 0.46 0.1 0 0.48 0.1 0 0.5 0.1 0 0.52 0.1 0 0.54 0.1 0 0.56 0.1 0 0.58 0.1 0 0.6 0.1 0 0.62 0.1 0 0.64 0.1 0 0.66 0.1 0 0.68 0.1 0 0.7 0.1 0 0.72 0.1 0 0.74 0.1 0 0.76 0.1 0 0.78 0.1 0 0.8 0.1 0 0.82 0.1 0 0.84 0.1 0 0.86 0.1 0 0.88 0.1 0 0.9 0.1 0 0.92 0.1 0 0.94 0.1 0 0.96 0.1 0 0.98 0.1 0 1 0.1 0 0 0.12 0 0.02 0.12 0 0.04 0.12 0 0.06 0.12 0 0.08 0.12 0 0.1 0.12 0 0.12 0.12 0 0.14 0.12 0 0.16 0.12 0 0.18 0.12 0 0.2 0.12 0 0.22 0.12 0 0.24 0.12 0 0.26 0.12 0 0.28 0.12 0 0.3 0.12 0 0.32 0.12 0 0.34 0.12 0 0.36 0.12 0 0.38 0.12 0 0.4 0.12 0 0.42 0.12 0 0.44 0.12 0 0.46 0.12 0 0.48 0.12 0 0.5 0.12 0 0.52 0.12 0 0.54 0.12 0 0.56 0.12 0 0.58 0.12 0 0.6 0.12 0 0.62 0.12 0 0.64 0.12 0 0.66 0.12 0 0.68 0.12 0 0.7 0.12 0 0.72 0.12 0 0.74 0.12 0 0.76 0.12 0 0.78 0.12 0 0.8 0.12 0 0.82 0.12 0 0.84 0.12 0 0.86 0.12 0 0.88 0.12 0 0.9 0.12 0 0.92 0.12 0 0.94 0.12 0 0.96 0.12 0 0.98 0.12 0 1 0.12 0 0 0.14 0 0.02 0.14 0 0.04 0.14 0 0.06 0.14 0 0.08 0.14 0 0.1 0.14 0 0.12 0.14 0 0.14 0.14 0 0.16 0.14 0 0.18 0.14 0 0.2 0.14 0 0.22 0.14 0 0.24 0.14 0 0.26 0.14 0 0.28 0.14 0 0.3 0.14 0 0.32 0.14 0 0.34 0.14 0 0.36 0.14 0 0.38 0.14 0 0.4 0.14 0 0.42 0.14 0 0.44 0.14 0 0.46 0.14 0 0.48 0.14 0 0.5 0.14 0 0.52 0.14 0 0.54 0.14 0 0.56 0.14 0 0.58 0.14 0 0.6 0.14 0 0.62 0.14 0 0.64 0.14 0 0.66 0.14 0 0.68 0.14 0 0.7 0.14 0 0.72 0.14 0 0.74 0.14 0 0.76 0.14 0 0.78 0.14 0 0.8 0.14 0 0.82 0.14 0 0.84 0.14 0 0.86 0.14 0 0.88 0.14 0 0.9 0.14 0 0.92 0.14 0 0.94 0.14 0 0.96 0.14 0 0.98 0.14 0 1 0.14 0 0 0.16 0 0.02 0.16 0 0.04 0.16 0 0.06 0.16 0 0.08 0.16 0 0.1 0.16 0 0.12 0.16 0 0.14 0.16 0 0.16 0.16 0 0.18 0.16 0 0.2 0.16 0 0.22 0.16 0 0.24 0.16 0 0.26 0.16 0 0.28 0.16 0 0.3 0.16 0 0.32 0.16 0 0.34 0.16 0 0.36 0.16 0 0.38 0.16 0 0.4 0.16 0 0.42 0.16 0 0.44 0.16 0 0.46 0.16 0 0.48 0.16 0 0.5 0.16 0 0.52 0.16 0 0.54 0.16 0 0.56 0.16 0 0.58 0.16 0 0.6 0.16 0 0.62 0.16 0 0.64 0.16 0 0.66 0.16 0 0.68 0.16 0 0.7 0.16 0 0.72 0.16 0 0.74 0.16 0 0.76 0.16 0 0.78 0.16 0 0.8 0.16 0 0.82 0.16 0 0.84 0.16 0 0.86 0.16 0 0.88 0.16 0 0.9 0.16 0 0.92 0.16 0 0.94 0.16 0 0.96 0.16 0 0.98 0.16 0 1 0.16 0 0 0.18 0 0.02 0.18 0 0.04 0.18 0 0.06 0.18 0 0.08 0.18 0 0.1 0.18 0 0.12 0.18 0 0.14 0.18 0 0.16 0.18 0 0.18 0.18 0 0.2 0.18 0 0.22 0.18 0 0.24 0.18 0 0.26 0.18 0 0.28 0.18 0 0.3 0.18 0 0.32 0.18 0 0.34 0.18 0 0.36 0.18 0 0.38 0.18 0 0.4 0.18 0 0.42 0.18 0 0.44 0.18 0 0.46 0.18 0 0.48 0.18 0 0.5 0.18 0 0.52 0.18 0 0.54 0.18 0 0.56 0.18 0 0.58 0.18 0 0.6 0.18 0 0.62 0.18 0 0.64 0.18 0 0.66 0.18 0 0.68 0.18 0 0.7 0.18 0 0.72 0.18 0 0.74 0.18 0 0.76 0.18 0 0.78 0.18 0 0.8 0.18 0 0.82 0.18 0 0.84 0.18 0 0.86 0.18 0 0.88 0.18 0 0.9 0.18 0 0.92 0.18 0 0.94 0.18 0 0.96 0.18 0 0.98 0.18 0 1 0.18 0 0 0.2 0 0.02 0.2 0 0.04 0.2 0 0.06 0.2 0 0.08 0.2 0 0.1 0.2 0 0.12 0.2 0 0.14 0.2 0 0.16 0.2 0 0.18 0.2 0 0.2 0.2 0 0.22 0.2 0 0.24 0.2 0 0.26 0.2 0 0.28 0.2 0 0.3 0.2 0 0.32 0.2 0 0.34 0.2 0 0.36 0.2 0 0.38 0.2 0 0.4 0.2 0 0.42 0.2 0 0.44 0.2 0 0.46 0.2 0 0.48 0.2 0 0.5 0.2 0 0.52 0.2 0 0.54 0.2 0 0.56 0.2 0 0.58 0.2 0 0.6 0.2 0 0.62 0.2 0 0.64 0.2 0 0.66 0.2 0 0.68 0.2 0 0.7 0.2 0 0.72 0.2 0 0.74 0.2 0 0.76 0.2 0 0.78 0.2 0 0.8 0.2 0 0.82 0.2 0 0.84 0.2 0 0.86 0.2 0 0.88 0.2 0 0.9 0.2 0 0.92 0.2 0 0.94 0.2 0 0.96 0.2 0 0.98 0.2 0 1 0.2 0 0 0.22 0 0.02 0.22 0 0.04 0.22 0 0.06 0.22 0 0.08 0.22 0 0.1 0.22 0 0.12 0.22 0 0.14 0.22 0 0.16 0.22 0 0.18 0.22 0 0.2 0.22 0 0.22 0.22 0 0.24 0.22 0 0.26 0.22 0 0.28 0.22 0 0.3 0.22 0 0.32 0.22 0 0.34 0.22 0 0.36 0.22 0 0.38 0.22 0 0.4 0.22 0 0.42 0.22 0 0.44 0.22 0 0.46 0.22 0 0.48 0.22 0 0.5 0.22 0 0.52 0.22 0 0.54 0.22 0 0.56 0.22 0 0.58 0.22 0 0.6 0.22 0 0.62 0.22 0 0.64 0.22 0 0.66 0.22 0 0.68 0.22 0 0.7 0.22 0 0.72 0.22 0 0.74 0.22 0 0.76 0.22 0 0.78 0.22 0 0.8 0.22 0 0.82 0.22 0 0.84 0.22 0 0.86 0.22 0 0.88 0.22 0 0.9 0.22 0 0.92 0.22 0 0.94 0.22 0 0.96 0.22 0 0.98 0.22 0 1 0.22 0 0 0.24 0 0.02 0.24 0 0.04 0.24 0 0.06 0.24 0 0.08 0.24 0 0.1 0.24 0 0.12 0.24 0 0.14 0.24 0 0.16 0.24 0 0.18 0.24 0 0.2 0.24 0 0.22 0.24 0 0.24 0.24 0 0.26 0.24 0 0.28 0.24 0 0.3 0.24 0 0.32 0.24 0 0.34 0.24 0 0.36 0.24 0 0.38 0.24 0 0.4 0.24 0 0.42 0.24 0 0.44 0.24 0 0.46 0.24 0 0.48 0.24 0 0.5 0.24 0 0.52 0.24 0 0.54 0.24 0 0.56 0.24 0 0.58 0.24 0 0.6 0.24 0 0.62 0.24 0 0.64 0.24 0 0.66 0.24 0 0.68 0.24 0 0.7 0.24 0 0.72 0.24 0 0.74 0.24 0 0.76 0.24 0 0.78 0.24 0 0.8 0.24 0 0.82 0.24 0 0.84 0.24 0 0.86 0.24 0 0.88 0.24 0 0.9 0.24 0 0.92 0.24 0 0.94 0.24 0 0.96 0.24 0 0.98 0.24 0 1 0.24 0 0 0.26 0 0.02 0.26 0 0.04 0.26 0 0.06 0.26 0 0.08 0.26 0 0.1 0.26 0 0.12 0.26 0 0.14 0.26 0 0.16 0.26 0 0.18 0.26 0 0.2 0.26 0 0.22 0.26 0 0.24 0.26 0 0.26 0.26 0 0.28 0.26 0 0.3 0.26 0 0.32 0.26 0 0.34 0.26 0 0.36 0.26 0 0.38 0.26 0 0.4 0.26 0 0.42 0.26 0 0.44 0.26 0 0.46 0.26 0 0.48 0.26 0 0.5 0.26 0 0.52 0.26 0 0.54 0.26 0 0.56 0.26 0 0.58 0.26 0 0.6 0.26 0 0.62 0.26 0 0.64 0.26 0 0.66 0.26 0 0.68 0.26 0 0.7 0.26 0 0.72 0.26 0 0.74 0.26 0 0.76 0.26 0 0.78 0.26 0 0.8 0.26 0 0.82 0.26 0 0.84 0.26 0 0.86 0.26 0 0.88 0.26 0 0.9 0.26 0 0.92 0.26 0 0.94 0.26 0 0.96 0.26 0 0.98 0.26 0 1 0.26 0 0 0.28 0 0.02 0.28 0 0.04 0.28 0 0.06 0.28 0 0.08 0.28 0 0.1 0.28 0 0.12 0.28 0 0.14 0.28 0 0.16 0.28 0 0.18 0.28 0 0.2 0.28 0 0.22 0.28 0 0.24 0.28 0 0.26 0.28 0 0.28 0.28 0 0.3 0.28 0 0.32 0.28 0 0.34 0.28 0 0.36 0.28 0 0.38 0.28 0 0.4 0.28 0 0.42 0.28 0 0.44 0.28 0 0.46 0.28 0 0.48 0.28 0 0.5 0.28 0 0.52 0.28 0 0.54 0.28 0 0.56 0.28 0 0.58 0.28 0 0.6 0.28 0 0.62 0.28 0 0.64 0.28 0 0.66 0.28 0 0.68 0.28 0 0.7 0.28 0 0.72 0.28 0 0.74 0.28 0 0.76 0.28 0 0.78 0.28 0 0.8 0.28 0 0.82 0.28 0 0.84 0.28 0 0.86 0.28 0 0.88 0.28 0 0.9 0.28 0 0.92 0.28 0 0.94 0.28 0 0.96 0.28 0 0.98 0.28 0 1 0.28 0 0 0.3 0 0.02 0.3 0 0.04 0.3 0 0.06 0.3 0 0.08 0.3 0 0.1 0.3 0 0.12 0.3 0 0.14 0.3 0 0.16 0.3 0 0.18 0.3 0 0.2 0.3 0 0.22 0.3 0 0.24 0.3 0 0.26 0.3 0 0.28 0.3 0 0.3 0.3 0 0.32 0.3 0 0.34 0.3 0 0.36 0.3 0 0.38 0.3 0 0.4 0.3 0 0.42 0.3 0 0.44 0.3 0 0.46 0.3 0 0.48 0.3 0 0.5 0.3 0 0.52 0.3 0 0.54 0.3 0 0.56 0.3 0 0.58 0.3 0 0.6 0.3 0 0.62 0.3 0 0.64 0.3 0 0.66 0.3 0 0.68 0.3 0 0.7 0.3 0 0.72 0.3 0 0.74 0.3 0 0.76 0.3 0 0.78 0.3 0 0.8 0.3 0 0.82 0.3 0 0.84 0.3 0 0.86 0.3 0 0.88 0.3 0 0.9 0.3 0 0.92 0.3 0 0.94 0.3 0 0.96 0.3 0 0.98 0.3 0 1 0.3 0 0 0.32 0 0.02 0.32 0 0.04 0.32 0 0.06 0.32 0 0.08 0.32 0 0.1 0.32 0 0.12 0.32 0 0.14 0.32 0 0.16 0.32 0 0.18 0.32 0 0.2 0.32 0 0.22 0.32 0 0.24 0.32 0 0.26 0.32 0 0.28 0.32 0 0.3 0.32 0 0.32 0.32 0 0.34 0.32 0 0.36 0.32 0 0.38 0.32 0 0.4 0.32 0 0.42 0.32 0 0.44 0.32 0 0.46 0.32 0 0.48 0.32 0 0.5 0.32 0 0.52 0.32 0 0.54 0.32 0 0.56 0.32 0 0.58 0.32 0 0.6 0.32 0 0.62 0.32 0 0.64 0.32 0 0.66 0.32 0 0.68 0.32 0 0.7 0.32 0 0.72 0.32 0 0.74 0.32 0 0.76 0.32 0 0.78 0.32 0 0.8 0.32 0 0.82 0.32 0 0.84 0.32 0 0.86 0.32 0 0.88 0.32 0 0.9 0.32 0 0.92 0.32 0 0.94 0.
[...]
			<PointData Scalars="VitesseX">
				<DataArray Name="VitesseX" type="Float32" format="ascii">
 0 0 0 0 0 0 0 0 0 0 0 0 0 0 0 0 0 0 0 0 0 0 0 0 0 0 0 0 0 0 0 0 0 0 0 0 0 0 0 0 0 0 0 0 0 0 0 0 0 0 -0 0 -0.000100207 -0.000399256 -0.000892435 -0.00157197 -0.00242716 -0.00344451 -0.00460799 -0.00589923 -0.00729788 -0.00878188 -0.0103278 -0.0119112 -0.0135072 -0.0150907 -0.0166365 -0.0181204 -0.0195188 -0.0208099 -0.0219732 -0.0229903 -0.0238452 -0.0245245 -0.0250179 -0.0253161 -0.025416 -0.0253157 -0.0250154 -0.0245216 -0.0238416 -0.0229861 -0.0219685 -0.0208049 -0.0195137 -0.0181153 -0.0166316 -0.0150861 -0.0135031 -0.0119076 -0.0103246 -0.00877926 -0.0072958 -0.00589765 -0.00460684 -0.00344374 -0.00242668 -0.0015717 -0.000892305 -0.000399199 -0.000100199 -1.08726e-27 0 -0.000198846 -0.000792336 -0.00177119 -0.00312007 -0.00481776 -0.00683754 -0.00914756 -0.0117114 -0.0144886 -0.0174353 -0.0205049 -0.0236488 -0.0268174 -0.0299609 -0.0330293 -0.0359743 -0.0387493 -0.0413105 -0.0436175 -0.0456339 -0.0473279 -0.0486728 -0.0496498 -0.0502369 -0.050431 -0.0502301 -0.0496299 -0.0486473 -0.0472955 -0.0455958 -0.0435751 -0.0412653 -0.0387029 -0.0359281 -0.0329847 -0.029919 -0.0267795 -0.0236154 -0.0204762 -0.0174116 -0.0144698 -0.0116972 -0.00913738 -0.00683072 -0.00481358 -0.0031178 -0.00177016 -0.000791954 -0.000198795 -2.1574e-27 0 -0.000294356 -0.00117299 -0.00262225 -0.00461949 -0.00713338 -0.0101244 -0.0135454 -0.0173424 -0.0214554 -0.0258195 -0.0303657 -0.0350216 -0.0397139 -0.0443687 -0.0489121 -0.0532721 -0.05738 -0.0611707 -0.0645843 -0.0675671 -0.070072 -0.0720597 -0.0735038 -0.0743677 -0.0746506 -0.0743509 -0.0734567 -0.0719985 -0.0699942 -0.0674756 -0.0644824 -0.061062 -0.0572683 -0.0531611 -0.0488048 -0.0442682 -0.0396228 -0.0349412 -0.0302966 -0.0257626 -0.0214103 -0.0173082 -0.0135209 -0.010108 -0.00712335 -0.00461405 -0.00261978 -0.00117209 -0.000294237 -3.19356e-27 0 -0.000385233 -0.00153523 -0.00343221 -0.00604666 -0.00933764 -0.0132534 -0.0177324 -0.0227038 -0.0280891 -0.0338032 -0.0397556 -0.0458515 -0.0519946 -0.0580884 -0.0640359 -0.0697427 -0.0751186 -0.0800785 -0.0845441 -0.0884451 -0.0917199 -0.0943172 -0.0962043 -0.0973283 -0.0976926 -0.0972976 -0.0961201 -0.094207 -0.0915799 -0.0882804 -0.0843608 -0.079883 -0.0749175 -0.0695425 -0.0638426 -0.0579073 -0.0518304 -0.0457064 -0.0396311 -0.0337005 -0.0280077 -0.0226422 -0.0176882 -0.0132239 -0.00931958 -0.00603687 -0.00342777 -0.00153363 -0.00038502 -4.17938e-27 0 -0.000470043 -0.00187333 -0.00418831 -0.00737908 -0.0113958 -0.0161754 -0.0216426 -0.0277112 -0.0342851 -0.0412605 -0.0485266 -0.0559677 -0.063466 -0.0709036 -0.078162 -0.0851258 -0.0916852 -0.097736 -0.103182 -0.107939 -0.11193 -0.115094 -0.117393 -0.118757 -0.119194 -0.118708 -0.117262 -0.114922 -0.111712 -0.107682 -0.102896 -0.0974307 -0.0913714 -0.0848136 -0.0778605 -0.070621 -0.0632096 -0.0557413 -0.0483325 -0.0411003 -0.0341582 -0.0276151 -0.0215738 -0.0161294 -0.0113676 -0.00736384 -0.00418142 -0.00187087 -0.000469715 -5.09929e-27 0 -0.000547449 -0.00218197 -0.00487862 -0.00859573 -0.0132753 -0.0188441 -0.0252143 -0.0322855 -0.0399457 -0.0480736 -0.0565404 -0.0652106 -0.0739469 -0.0826122 -0.0910679 -0.0991797 -0.106819 -0.113865 -0.120206 -0.125741 -0.130385 -0.134063 -0.136735 -0.138315 -0.138815 -0.138244 -0.13655 -0.133818 -0.130072 -0.125374 -0.119796 -0.113428 -0.106371 -0.0987337 -0.0906374 -0.0822087 -0.0735809 -0.0648874 -0.0562633 -0.0478451 -0.0397645 -0.0321483 -0.0251161 -0.0187785 -0.0132352 -0.00857404 -0.00486883 -0.00217849 -0.000546988 -5.93878e-27 0 -0.000616231 -0.00245628 -0.00549225 -0.00967742 -0.0149467 -0.0212175 -0.0283913 -0.0363546 -0.0449815 -0.0541352 -0.0636705 -0.0734344 -0.0832724 -0.0930299 -0.10255 -0.111683 -0.120281 -0.12821 -0.135345 -0.141571 -0.146792 -0.150925 -0.153927 -0.155693 -0.156247 -0.155597 -0.153679 -0.150595 -0.146372 -0.141078 -0.134795 -0.127625 -0.119679 -0.111084 -0.101972 -0.092488 -0.0827808 -0.0730006 -0.0632987 -0.0538286 -0.0447384 -0.0361706 -0.0282595 -0.0211295 -0.0148929 -0.00964839 -0.00547917 -0.00245167 -0.000615621 -6.68457e-27 0 -0.000675304 -0.00269193 -0.00601952 -0.0106071 -0.0163835 -0.0232583 -0.0311233 -0.0398543 -0.0493132 -0.0593498 -0.0698047 -0.0805099 -0.0912957 -0.101992 -0.112428 -0.122437 -0.131859 -0.140546 -0.148361 -0.155178 -0.160892 -0.165413 -0.168695 -0.170619 -0.171214 -0.170494 -0.16838 -0.164991 -0.160355 -0.154546 -0.147657 -0.139796 -0.131088 -0.121669 -0.111687 -0.101297 -0.090665 -0.0799533 -0.0693277 -0.0589566 -0.0490016 -0.0396185 -0.0309544 -0.0231455 -0.0163146 -0.01057 -0.00600283 -0.0026861 -0.000674534 -7.32489e-27 0 -0.000723737 -0.0028852 -0.00645213 -0.0113701 -0.0175631 -0.0249341 -0.0333673 -0.0427294 -0.0528723 -0.0636351 -0.0748464 -0.0863253 -0.0978897 -0.109358 -0.120544 -0.131272 -0.141371 -0.150679 -0.159049 -0.166349 -0.172465 -0.1773 -0.180808 -0.182856 -0.183482 -0.182699 -0.180419 -0.176777 -0.171799 -0.165566 -0.158177 -0.149749 -0.140415 -0.130322 -0.119627 -0.108497 -0.0971088 -0.0856357 -0.0742557 -0.0631484 -0.0524868 -0.0424377 -0.0331584 -0.0247945 -0.0174779 -0.0113242 -0.00643157 -0.00287809 -0.0007228 -7.84963e-27 0 -0.000760767 -0.00303305 -0.00678324 -0.0119544 -0.0184668 -0.0262186 -0.0350878 -0.0449346 -0.055603 -0.0669237 -0.0787157 -0.0907885 -0.10295 -0.11501 -0.126773 -0.138052 -0.148667 -0.158448 -0.167241 -0.174907 -0.181326 -0.186398 -0.190074 -0.192211 -0.192856 -0.192019 -0.189608 -0.185767 -0.180523 -0.173963 -0.16619 -0.157328 -0.147515 -0.136906 -0.125668 -0.113974 -0.102009 -0.0899578 -0.0780046 -0.0663376 -0.0551391 -0.0445838 -0.0348367 -0.0260508 -0.0183644 -0.0118994 -0.00675863 -0.00302462 -0.00075966 -8.25048e-27 0 -0.00078581 -0.00313315 -0.00700764 -0.0123508 -0.0190804 -0.0270914 -0.0362579 -0.0464352 -0.0574624 -0.0691636 -0.0813516 -0.0938293 -0.106398 -0.11886 -0.131015 -0.142668 -0.153631 -0.163731 -0.172808 -0.180718 -0.187337 -0.192562 -0.196347 -0.198536 -0.199188 -0.198318 -0.19582 -0.191846 -0.186423 -0.179642 -0.171612 -0.162456 -0.15232 -0.141362 -0.129756 -0.117681 -0.105327 -0.0928832 -0.0805409 -0.0684953 -0.0569338 -0.046036 -0.0359723 -0.0269006 -0.0189641 -0.0122883 -0.00697976 -0.00312367 -0.000784567 -8.52112e-27 0 -0.00079851 -0.00318422 -0.00712281 -0.0125554 -0.0193987 -0.0275462 -0.0368699 -0.0472229 -0.058441 -0.0703448 -0.0827437 -0.0954366 -0.108221 -0.120895 -0.133253 -0.145097 -0.156236 -0.166494 -0.175707 -0.18373 -0.190438 -0.195725 -0.199547 -0.201741 -0.202379 -0.201456 -0.198885 -0.194817 -0.189282 -0.18237 -0.174194 -0.164881 -0.154578 -0.143447 -0.131662 -0.119404 -0.106867 -0.0942413 -0.0817202 -0.0695019 -0.0577744 -0.0467197 -0.0365101 -0.0273058 -0.0192522 -0.0124768 -0.00708792 -0.00317258 -0.000796992 -8.65727e-27 0 -0.000798511 -0.00318422 -0.00712285 -0.0125555 -0.019399 -0.0275467 -0.0368707 -0.0472242 -0.0584428 -0.0703471 -0.0827472 -0.0954409 -0.108225 -0.1209 -0.133258 -0.145101 -0.15624 -0.166498 -0.17571 -0.183733 -0.190439 -0.195726 -0.199547 -0.201741 -0.202379 -0.201455 -0.198884 -0.194815 -0.189279 -0.182367 -0.174189 -0.164875 -0.154571 -0.14344 -0.131654 -0.119397 -0.106861 -0.0942359 -0.0817159 -0.0694983 -0.0577713 -0.0467173 -0.0365089 -0.0273053 -0.0192518 -0.0124766 -0.00708786 -0.00317257 -0.000796991 -8.65678e-27 0 -0.000786096 -0.0031354 -0.00701514 -0.0123682 -0.0191131 -0.0271452 -0.0363389 -0.0465491 -0.0576132 -0.069354 -0.0815826 -0.0940997 -0.106706 -0.119199 -0.131376 -0.14304 -0.154005 -0.164094 -0.173147 -0.181022 -0.187594 -0.192763 -0.196486 -0.198596 -0.199187 -0.19824 -0.19568 -0.191647 -0.186174 -0.179351 -0.171288 -0.162111 -0.151966 -0.141011 -0.129416 -0.117363 -0.105039 -0.0926292 -0.0803247 -0.0683173 -0.0567925 -0.0459293 -0.035897 -0.026851 -0.0189338 -0.0122722 -0.00697275 -0.00312154 -0.000784297 -8.51967e-27 0 -0.000761162 -0.00303617 -0.00679361 -0.0119785 -0.018512 -0.0262932 -0.0352002 -0.0450926 -0.0558127 -0.0671892 -0.0790372 -0.0911635 -0.103377 -0.11548 -0.127274 -0.13857 -0.149186 -0.158952 -0.167712 -0.175329 -0.181682 -0.186675 -0.190266 -0.192293 -0.192855 -0.191907 -0.189406 -0.185479 -0.18016 -0.173538 -0.165718 -0.156826 -0.147 -0.136395 -0.125174 -0.113511 -0.101589 -0.0895873 -0.0776885 -0.0660775 -0.0549336 -0.044429 -0.0347268 -0.0259782 -0.0183205 -0.0118759 -0.00674846 -0.00302154 -0.000759268 -8.24809e-27 0 -0.000724279 -0.00288948 -0.00646636 -0.0114031 -0.0176252 -0.0250365 -0.0335215 -0.0429461 -0.0531598 -0.0639988 -0.0752875 -0.0868413 -0.0984749 -0.110001 -0.121231 -0.131982 -0.142083 -0.15137 -0.159695 -0.166927 -0.172954 -0.177681 -0.181072 -0.18297 -0.183481 -0.182544 -0.18014 -0.176378 -0.171295 -0.164977 -0.157524 -0.149055 -0.139703 -0.129614 -0.118945 -0.107858 -0.0965276 -0.0851231 -0.0738186 -0.0627888 -0.052203 -0.0422239 -0.0330058 -0.0246937 -0.0174171 -0.0112919 -0.0064175 -0.00287382 -0.000722259 -7.84635e-27 0 -0.000675984 -0.0026973 -0.00603739 -0.0106485 -0.0164614 -0.0233869 -0.0313169 -0.0401261 -0.0496737 -0.0598046 -0.0703566 -0.0811578 -0.0920303 -0.102799 -0.113288 -0.123327 -0.132753 -0.141414 -0.149172 -0.155905 -0.161507 -0.165892 -0.169027 -0.170764 -0.171213 -0.1703 -0.168028 -0.164489 -0.159721 -0.153804 -0.146833 -0.13892 -0.13019 -0.120777 -0.110827 -0.100492 -0.0899334 -0.0793076 -0.0687767 -0.058503 -0.0486433 -0.0393486 -0.0307621 -0.0230181 -0.0162378 -0.0105291 -0.00598507 -0.00268072 -0.000673852 -7.3208e-27 0 -0.000617039 -0.00246267 -0.00551346 -0.00972653 -0.0150392 -0.0213703 -0.0286212 -0.0366772 -0.0454101 -0.0546768 -0.0643269 -0.0742043 -0.0841455 -0.0939882 -0.103572 -0.112739 -0.121342 -0.12924 -0.136308 -0.142434 -0.147522 -0.151495 -0.154322 -0.155868 -0.156246 -0.155369 -0.153262 -0.149998 -0.145618 -0.140194 -0.133815 -0.126583 -0.11861 -0.110021 -0.100948 -0.0915294 -0.0819098 -0.0722322 -0.0626426 -0.0532882 -0.0443115 -0.0358489 -0.0280306 -0.0209775 -0.0148012 -0.00959971 -0.005458 -0.00244526 -0.000614809 -6.67974e-27 0 -0.000548373 -0.00218927 -0.00490285 -0.00865177 -0.013381 -0.0190185 -0.0254769 -0.0326539 -0.0404351 -0.0486927 -0.0572906 -0.0660893 -0.0749437 -0.0837071 -0.0922348 -0.100387 -0.108031 -0.115042 -0.121307 -0.126728 -0.131221 -0.134716 -0.137188 -0.138518 -0.138814 -0.137985 -0.136074 -0.133135 -0.12921 -0.124363 -0.118675 -0.112236 -0.105147 -0.0975178 -0.0894651 -0.0811113 -0.0725835 -0.0640078 -0.0555126 -0.0472269 -0.0392758 -0.03178 -0.0248538 -0.0186041 -0.01313 -0.00851829 -0.00484459 -0.00217116 -0.000546058 -5.93331e-27 0 -0.000471067 -0.00188143 -0.00421517 -0.00744117 -0.0115128 -0.0163687 -0.0219336 -0.0281195 -0.034827 -0.0419456 -0.0493579 -0.0569414 -0.0645701 -0.072117 -0.0794558 -0.086465 -0.0930293 -0.099042 -0.104406 -0.109035 -0.112859 -0.11582 -0.117895 -0.118987 -0.119193 -0.118424 -0.116736 -0.114166 -0.110755 -0.10656 -0.101652 -0.0961067 -0.0900125 -0.0834633 -0.0765586 -0.0694022 -0.0621019 -0.0547645 -0.047499 -0.0404139 -0.0336155 -0.027206 -0.0212823 -0.0159357 -0.0112507 -0.00730188 -0.00415449 -0.00186272 -0.000468683 -5.09329e-27 0 -0.000386343 -0.001544 -0.00346128 -0.00611383 -0.00946426 -0.0134626 -0.0180473 -0.0231456 -0.028675 -0.034544 -0.0406556 -0.0469056 -0.0531888 -0.0594006 -0.0654358 -0.0711923 -0.0765742 -0.0814934 -0.0858696 -0.0896338 -0.0927276 -0.0951056 -0.0967496 -0.0975829 -0.097692 -0.0969942 -0.0955526 -0.0933903 -0.0905445 -0.0870657 -0.0830128 -0.0784491 -0.0734455 -0.0680796 -0.062432 -0.0565866 -0.05063 -0.0446479 -0.0387279 -0.0329569 -0.0274197 -0.0221987 -0.0173723 -0.013014 -0.00919267 -0.00596965 -0.00339858 -0.0015248 -0.000383901 -4.17296e-27 0 -0.000295534 -0.00118229 -0.00265307 -0.00469069 -0.0072676 -0.0103461 -0.0138792 -0.0178107 -0.0220763 -0.0266047 -0.0313197 -0.0361392 -0.0409801 -0.04576 -0.0503969 -0.0548104 -0.0589249 -0.0626723 -0.0659916 -0.0688297 -0.0711431 -0.0728987 -0.0740838 -0.0746442 -0.07465 -0.0740341 -0.0728577 -0.0711349 -0.0688985 -0.0661889 -0.0630528 -0.059541 -0.0557073 -0.0516092 -0.0473082 -0.0428667 -0.0383488 -0.0338177 -0.029338 -0.0249733 -0.0207862 -0.0168374 -0.0131853 -0.00988511 -0.00698844 -0.00454258 -0.00258878 -0.00116272 -0.000293049 -3.18684e-27 0 -0.000200073 -0.000802028 -0.00180329 -0.00319419 -0.00495748 -0.0070684 -0.00949513 -0.012199 -0.0151352 -0.0182531 -0.0214978 -0.0248118 -0.0281361 -0.0314106 -0.0345765 -0.0375768 -0.0403592 -0.0428759 -0.045085 -0.0469511 -0.0484461 -0.049551 -0.0502515 -0.0505372 -0.0504268 -0.0499068 -0.049009 -0.047751 -0.0461577 -0.0442592 -0.0420881 -0.0396819 -0.0370773 -0.0343117 -0.0314257 -0.0284589 -0.025452 -0.0224447 -0.0194772 -0.0165891 -0.0138195 -0.0112066 -0.00878768 -0.0065985 -0.00467297 -0.00304328 -0.00173785 -0.000782185 -0.000197557 -2.1505e-27 0 -0.000101465 -0.000409195 -0.000925336 -0.00164793 -0.00257035 -0.00368112 -0.00496418 -0.00639891 -0.00796058 -0.00962013 -0.0113456 -0.0131034 -0.0148588 -0.0165769 -0.0182229 -0.019764 -0.0211704 -0.0224164 -0.0234797 -0.0243433 -0.0249949 -0.0254285 -0.0256369 -0.0256318 -0.0254118 -0.0249904 -0.024383 -0.0236066 -0.022679 -0.0216199 -0.0204486 -0.0191856 -0.01785 -0.0164608 -0.0150354 -0.0135909 -0.0121435 -0.0107087 -0.0093015 -0.00793685 -0.00662973 -0.00539511 -0.00424862 -0.00320582 -0.00228268 -0.00149537 -0.000859206 -0.00038919 -9.89308e-05 -1.0803e-27 0 -1.26562e-06 -9.99008e-06 -3.30572e-05 -7.63097e-05 -0.000143846 -0.000237711 -0.000357845 -0.000501979 -0.000665762 -0.000841784 -0.00102224 -0.00119816 -0.00135836 -0.00149362 -0.00159436 -0.00165247 -0.00166092 -0.0016161 -0.00151608 -0.00136239 -0.00115858 -0.000910827 -0.000627752 -0.000320036 9.57912e-08 0.000319897 0.000627527 0.000910989 0.00115848 0.00136188 0.0015161 0.00161609 0.00166088 0.00165218 0.00159447 0.0014938 0.00135852 0.00119808 0.00102251 0.000841895 0.00066563 0.000502155 0.00035796 0.000237702 0.000143863 7.62794e-05 3.30554e-05 9.99475e-06 1.26556e-06 6.89421e-30 0 9.89307e-05 0.000389194 0.00085921 0.00149532 0.0022827 0.00320581 0.00424872 0.00539533 0.00662972 0.00793696 0.00930167 0.0107083 0.0121434 0.013591 0.0150356 0.0164607 0.0178498 0.0191856 0.0204487 0.0216198 0.022679 0.0236065 0.0243832 0.0249906 0.0254119 0.0256316 0.025636 0.0254279 0.024995 0.024343 0.02348 0.0224168 0.0211707 0.0197637 0.0182227 0.0165769 0.0148591 0.0131036 0.0113455 0.00961986 0.00796045 0.00639904 0.00496427 0.00368112 0.00257035 0.00164792 0.000925328 0.000409201 0.000101465 1.09392e-27 0 0.000197557 0.000782188 0.00173786 0.00304325 0.00467304 0.00659845 0.00878778 0.0112068 0.0138197 0.0165888 0.0194771 0.0224447 0.0254521 0.0284591 0.0314257 0.0343118 0.0370769 0.0396826 0.0420893 0.0442595 0.0461577 0.0477511 0.0490095 0.0499072 0.0504268 0.0505367 0.0502507 0.0495505 0.0484464 0.0469509 0.0450854 0.0428763 0.0403593 0.0375764 0.0345762 0.0314106 0.0281362 0.024812 0.0214978 0.0182529 0.0151351 0.0121991 0.00949516 0.0070684 0.00495746 0.00319418 0.00180328 0.000802037 0.000200073 2.16365e-27 0 0.000293049 0.00116272 0.00258879 0.00454254 0.00698852 0.00988513 0.0131855 0.0168377 0.0207866 0.0249731 0.0293378 0.0338175 0.0383486 0.042867 0.0473081 0.0516091 0.0557076 0.0595418 0.0630544 0.0661906 0.0688992 0.0711351 0.0728577 0.0740343 0.0746499 0.0746436 0.0740834 0.0728989 0.0711431 0.068829 0.0659915 0.0626725 0.058925 0.0548099 0.0503971 0.0457607 0.0409804 0.0361387 0.0313194 0.0266049 0.0220765 0.0178108 0.0138792 0.0103461 0.00726756 0.00469069 0.00265307 0.00118231 0.000295534 3.19922e-27 0 0.000383901 0.0015248 0.0033986 0.00596954 0.00919258 0.013014 0.0173723 0.022199 0.0274202 0.032957 0.0387276 0.0446476 0.0506298 0.0565866 0.0624316 0.0680792 0.073446 0.0784495 0.0830134 0.0870672 0.0905453 0.0933901 0.095552 0.096994 0.0976915 0.0975827 0.0967495 0.0951054 0.0927271 0.0896333 0.0858701 0.0814938 0.076574 0.071192 0.0654359 0.0594011 0.053189 0.0469051 0.0406553 0.0345441 0.028675 0.0231456 0.0180472 0.0134625 0.0094642 0.00611382 0.00346127 0.00154401 0.000386344 4.1843e-27 0 0.000468683 0.00186272 0.0041545 0.00730173 0.0112505 0.0159357 0.0212822 0.0272061 0.0336162 0.0404145 0.0474985 0.054764 0.062102 0.0694021 0.0765583 0.083463 0.0900124 0.0961068 0.101652 0.106561 0.110756 0.114166 0.116735 0.118424 0.119193 0.118987 0.117895 0.11582 0.112859 0.109036 0.104406 0.0990417 0.0930296 0.0864653 0.0794555 0.0721165 0.0645697 0.0569413 0.0493581 0.0419453 0.0348266 0.0281195 0.0219335 0.0163686 0.0115127 0.00744115 0.00421515 0.00188144 0.000471069 5.1034e-27 0 0.000546058 0.00217116 0.0048446 0.00851816 0.0131298 0.0186042 0.0248537 0.0317802 0.0392766 0.0472278 0.0555126 0.0640076 0.0725837 0.0811114 0.0894651 0.0975176 0.105147 0.112236 0.118675 0.124364 0.12921 0.133134 0.136073 0.137985 0.138814 0.138518 0.137187 0.134716 0.13122 0.126728 0.121308 0.115041 0.108031 0.100388 0.0922347 0.0837065 0.0749427 0.066089 0.0572907 0.0486916 0.0404343 0.0326538 0.0254767 0.0190184 0.0133809 0.00865174 0.00490282 0.00218928 0.000548374 5.94202e-27 0 0.000614808 0.00244526 0.00545802 0.00959965 0.0148009 0.0209773 0.0280303 0.0358491 0.0443122 0.0532895 0.0626433 0.0722318 0.0819095 0.0915295 0.100948 0.110021 0.11861 0.126583 0.133815 0.140194 0.145618 0.149998 0.153262 0.155369 0.156246 0.155868 0.154322 0.151495 0.147521 0.142433 0.136309 0.129241 0.121341 0.11274 0.103572 0.093988 0.0841446 0.0742038 0.0643278 0.0546766 0.0454096 0.0366772 0.028621 0.0213701 0.0150391 0.00972649 0.00551345 0.00246268 0.000617041 6.68696e-27 0 0.000673852 0.00268072 0.00598508 0.0105291 0.0162375 0.0230177 0.0307621 0.0393487 0.0486437 0.058504 0.0687779 0.0793077 0.0899329 0.100492 0.110827 0.120777 0.13019 0.13892 0.146833 0.153804 0.159721 0.164489 0.168028 0.1703 0.171213 0.170764 0.169027 0.165892 0.161507 0.155905 0.149173 0.141415 0.132753 0.123327 0.113288 0.102799 0.09203 0.0811579 0.0703585 0.059806 0.0496739 0.0401261 0.0313168 0.0233868 0.0164613 0.0106485 0.00603739 0.00269732 0.000675987 7.3265e-27 0 0.000722259 0.00287382 0.0064175 0.0112919 0.0174168 0.0246932 0.0330059 0.0422237 0.052203 0.0627892 0.0738194 0.0851242 0.0965279 0.107859 0.118946 0.129615 0.139703 0.149055 0.157524 0.164977 0.171295 0.176378 0.18014 0.182544 0.183481 0.18297 0.181072 0.177681 0.172954 0.166928 0.159696 0.15137 0.142083 0.131982 0.121231 0.110001 0.0984748 0.0868414 0.0752875 0.0639988 0.05316 0.0429461 0.0335215 0.0250365 0.0176251 0.0114031 0.00646637 0.0028895 0.000724281 7.85056e-27 0 0.000759268 0.00302154 0.00674846 0.011876 0.0183203 0.0259776 0.0347264 0.0444289 0.0549337 0.0660777 0.0776887 0.0895879 0.10159 0.113513 0.125175 0.136396 0.147001 0.156826 0.165718 0.173538 0.18016 0.185478 0.189406 0.191907 0.192855 0.192293 0.190266 0.186676 0.181683 0.175329 0.167712 0.158951 0.149185 0.13857 0.127274 0.115479 0.103377 0.0911648 0.0790373 0.067189 0.055813 0.0450926 0.0352003 0.0262932 0.018512 0.0119785 0.00679363 0.00303619 0.000761164 8.25091e-27 0 0.000784297 0.00312154 0.00697275 0.0122722 0.0189338 0.0268504 0.0358963 0.0459295 0.0567928 0.0683174 0.0803247 0.0926293 0.105039 0.117364 0.129417 0.141011 0.151966 0.162111 0.171288 0.179351 0.186174 0.191647 0.19568 0.19824 0.199187 0.198596 0.196486 0.192763 0.187595 0.181022 0.173147 0.164094 0.154004 0.14304 0.131376 0.119199 0.106706 0.0941003 0.0815831 0.0693546 0.0576136 0.0465491 0.0363389 0.0271453 0.0191131 0.0123682 0.00701516 0.00313542 0.000786097 8.52123e-27 0 0.000796991 0.00317257 0.00708786 0.0124766 0.0192519 0.027305 0.0365082 0.0467168 0.0577707 0.0694979 0.081716 0.0942358 0.106861 0.119397 0.131655 0.14344 0.154571 0.164875 0.174189 0.182367 0.189279 0.194815 0.198884 0.201455 0.202379 0.201741 0.199547 0.195726 0.19044 0.183733 0.17571 0.166497 0.15624 0.145101 0.133258 0.1209 0.108225 0.0954403 0.0827471 0.0703475 0.058443 0.0472242 0.0368707 0.0275467 0.019399 0.0125555 0.00712287 0.00318424 0.000798512 8.65727e-27 0 0.000796992 0.00317258 0.00708792 0.0124768 0.0192522 0.0273058 0.0365097 0.0467189 0.0577736 0.0695016 0.0817206 0.0942413 0.106867 0.119404 0.131661 0.143447 0.15457