<?xml version="1.0"?>
<VTKFile type="PolyData">
	<PolyData>
		<Piece NumberOfPoints="2601" NumberOfPolys="2500">
			<Points>
				<DataArray type="Float32" NumberOfComponents="3" format="ascii">
 0 0 0 0.02 0 0 0.04 0 0 0.06 0 0 0.08 0 0 0.1 0 0 0.12 0 0 0.14 0 0 0.16 0 0 0.18 0 0 0.2 0 0 0.22 0 0 0.24 0 0 0.26 0 0 0.28 0 0 0.3 0 0 0.32 0 0 0.34 0 0 0.36 0 0 0.38 0 0 0.4 0 0 0.42 0 0 0.44 0 0 0.46 0 0 0.48 0 0 0.5 0 0 0.52 0 0 0.54 0 0 0.56 0 0 0.58 0 0 0.6 0 0 0.62 0 0 0.64 0 0 0.66 0 0 0.68 0 0 0.7 0 0 0.72 0 0 0.74 0 0 0.76 0 0 0.78 0 0 0.8 0 0 0.82 0 0 0.84 0 0 0.86 0 0 0.88 0 0 0.9 0 0 0.92 0 0 0.94 0 0 0.96 0 0 0.98 0 0 1 0 0 0 0.02 0 0.02 0.02 0 0.04 0.02 0 0.06 0.02 0 0.08 0.02 0 0.1 0.02 0 0.12 0.02 0 0.14 0.02 0 0.16 0.02 0 0.18 0.02 0 0.2 0.02 0 0.22 0.02 0 0.24 0.02 0 0.26 0.02 0 0.28 0.02 0 0.3 0.02 0 0.32 0.02 0 0.34 0.02 0 0.36 0.02 0 0.38 0.02 0 0.4 0.02 0 0.42 0.02 0 0.44 0.02 0 0.46 0.02 0 0.48 0.02 0 0.5 0.02 0 0.52 0.02 0 0.54 0.02 0 0.56 0.02 0 0.58 0.02 0 0.6 0.02 0 0.62 0.02 0 0.64 0.02 0 0.66 0.02 0 0.68 0.02 0 0.7 0.02 0 0.72 0.02 0 0.74 0.02 0 0.76 0.02 0 0.78 0.02 0 0.8 0.02 0 0.82 0.02 0 0.84 0.02 0 0.86 0.02 0 0.88 0.02 0 0.9 0.02 0 0.92 0.02 0 0.94 0.02 0 0.96 0.02 0 0.98 0.02 0 1 0.02 0 0 0.04 0 0.02 0.04 0 0.04 0.04 0 0.06 0.04 0 0.08 0.04 0 0.1 0.04 0 0.12 0.04 0 0.14 0.04 0 0.16 0.04 0 0.18 0.04 0 0.2 0.04 0 0.22 0.04 0 0.24 0.04 0 0.26 0.04 0 0.28 0.04 0 0.3 0.04 0 0.32 0.04 0 0.34 0.04 0 0.36 0.04 0 0.38 0.04 0 0.4 0.04 0 0.42 0.04 0 0.44 0.04 0 0.46 0.04 0 0.48 0.04 0 0.5 0.04 0 0.52 0.04 0 0.54 0.04 0 0.56 0.04 0 0.58 0.04 0 0.6 0.04 0 0.62 0.04 0 0.64 0.04 0 0.66 0.04 0 0.68 0.04 0 0.7 0.04 0 0.72 0.04 0 0.74 0.04 0 0.76 0.04 0 0.78 0.04 0 0.8 0.04 0 0.82 0.04 0 0.84 0.04 0 0.86 0.04 0 0.88 0.04 0 0.9 0.04 0 0.92 0.04 0 0.94 0.04 0 0.96 0.04 0 0.98 0.04 0 1 0.04 0 0 0.06 0 0.02 0.06 0 0.04 0.06 0 0.06 0.06 0 0.08 0.06 0 0.1 0.06 0 0.12 0.06 0 0.14 0.06 0 0.16 0.06 0 0.18 0.06 0 0.2 0.06 0 0.22 0.06 0 0.24 0.06 0 0.26 0.06 0 0.28 0.06 0 0.3 0.06 0 0.32 0.06 0 0.34 0.06 0 0.36 0.06 0 0.38 0.06 0 0.4 0.06 0 0.42 0.06 0 0.44 0.06 0 0.46 0.06 0 0.48 0.06 0 0.5 0.06 0 0.52 0.06 0 0.54 0.06 0 0.56 0.06 0 0.58 0.06 0 0.6 0.06 0 0.62 0.06 0 0.64 0.06 0 0.66 0.06 0 0.68 0.06 0 0.7 0.06 0 0.72 0.06 0 0.74 0.06 0 0.76 0.06 0 0.78 0.06 0 0.8 0.06 0 0.82 0.06 0 0.84 0.06 0 0.86 0.06 0 0.88 0.06 0 0.9 0.06 0 0.92 0.06 0 0.94 0.06 0 0.96 0.06 0 0.98 0.06 0 1 0.06 0 0 0.08 0 0.02 0.08 0 0.04 0.08 0 0.06 0.08 0 0.08 0.08 0 0.1 0.08 0 0.12 0.08 0 0.14 0.08 0 0.16 0.08 0 0.18 0.08 0 0.2 0.08 0 0.22 0.08 0 0.24 0.08 0 0.26 0.08 0 0.28 0.08 0 0.3 0.08 0 0.32 0.08 0 0.34 0.08 0 0.36 0.08 0 0.38 0.08 0 0.4 0.08 0 0.42 0.08 0 0.44 0.08 0 0.46 0.08 0 0.48 0.08 0 0.5 0.08 0 0.52 0.08 0 0.54 0.08 0 0.56 0.08 0 0.58 0.08 0 0.6 0.08 0 0.62 0.08 0 0.64 0.08 0 0.66 0.08 0 0.68 0.08 0 0.7 0.08 0 0.72 0.08 0 0.74 0.08 0 0.76 0.08 0 0.78 0.08 0 0.8 0.08 0 0.82 0.08 0 0.84 0.08 0 0.86 0.08 0 0.88 0.08 0 0.9 0.08 0 0.92 0.08 0 0.94 0.08 0 0.96 0.08 0 0.98 0.08 0 1 0.08 0 0 0.1 0 0.02 0.1 0 0.04 0.1 0 0.06 0.1 0 0.08 0.1 0 0.1 0.1 0 0.12 0.1 0 0.14 0.1 0 0.16 0.1 0 0.18 0.1 0 0.2 0.1 0 0.22 0.1 0 0.24 0.1 0 0.26 0.1 0 0.28 0.1 0 0.3 0.1 0 0.32 0.1 0 0.34 0.1 0 0.36 0.1 0 0.38 0.1 0 0.4 0.1 0 0.42 0.1 0 0.44 0.1 0 0.46 0.1 0 0.48 0.1 0 0.5 0.1 0 0.52 0.1 0 0.54 0.1 0 0.56 0.1 0 0.58 0.1 0 0.6 0.1 0 0.62 0.1 0 0.64 0.1 0 0.66 0.1 0 0.68 0.1 0 0.7 0.1 0 0.72 0.1 0 0.74 0.1 0 0.76 0.1 0 0.78 0.1 0 0.8 0.1 0 0.82 0.1 0 0.84 0.1 0 0.86 0.1 0 0.88 0.1 0 0.9 0.1 0 0.92 0.1 0 0.94 0.1 0 0.96 0.1 0 0.98 0.1 0 1 0.1 0 0 0.12 0 0.02 0.12 0 0.04 0.12 0 0.06 0.12 0 0.08 0.12 0 0.1 0.12 0 0.12 0.12 0 0.14 0.12 0 0.16 0.12 0 0.18 0.12 0 0.2 0.12 0 0.22 0.12 0 0.24 0.12 0 0.26 0.12 0 0.28 0.12 0 0.3 0.12 0 0.32 0.12 0 0.34 0.12 0 0.36 0.12 0 0.38 0.12 0 0.4 0.12 0 0.42 0.12 0 0.44 0.12 0 0.46 0.12 0 0.48 0.12 0 0.5 0.12 0 0.52 0.12 0 0.54 0.12 0 0.56 0.12 0 0.58 0.12 0 0.6 0.12 0 0.62 0.12 0 0.64 0.12 0 0.66 0.12 0 0.68 0.12 0 0.7 0.12 0 0.72 0.12 0 0.74 0.12 0 0.76 0.12 0 0.78 0.12 0 0.8 0.12 0 0.82 0.12 0 0.84 0.12 0 0.86 0.12 0 0.88 0.12 0 0.9 0.12 0 0.92 0.12 0 0.94 0.12 0 0.96 0.12 0 0.98 0.12 0 1 0.12 0 0 0.14 0 0.02 0.14 0 0.04 0.14 0 0.06 0.14 0 0.08 0.14 0 0.1 0.14 0 0.12 0.14 0 0.14 0.14 0 0.16 0.14 0 0.18 0.14 0 0.2 0.14 0 0.22 0.14 0 0.24 0.14 0 0.26 0.14 0 0.28 0.14 0 0.3 0.14 0 0.32 0.14 0 0.34 0.14 0 0.36 0.14 0 0.38 0.14 0 0.4 0.14 0 0.42 0.14 0 0.44 0.14 0 0.46 0.14 0 0.48 0.14 0 0.5 0.14 0 0.52 0.14 0 0.54 0.14 0 0.56 0.14 0 0.58 0.14 0 0.6 0.14 0 0.62 0.14 0 0.64 0.14 0 0.66 0.14 0 0.68 0.14 0 0.7 0.14 0 0.72 0.14 0 0.74 0.14 0 0.76 0.14 0 0.78 0.14 0 0.8 0.14 0 0.82 0.14 0 0.84 0.14 0 0.86 0.14 0 0.88 0.14 0 0.9 0.14 0 0.92 0.14 0 0.94 0.14 0 0.96 0.14 0 0.98 0.14 0 1 0.14 0 0 0.16 0 0.02 0.16 0 0.04 0.16 0 0.06 0.16 0 0.08 0.16 0 0.1 0.16 0 0.12 0.16 0 0.14 0.16 0 0.16 0.16 0 0.18 0.16 0 0.2 0.16 0 0.22 0.16 0 0.24 0.16 0 0.26 0.16 0 0.28 0.16 0 0.3 0.16 0 0.32 0.16 0 0.34 0.16 0 0.36 0.16 0 0.38 0.16 0 0.4 0.16 0 0.42 0.16 0 0.44 0.16 0 0.46 0.16 0 0.48 0.16 0 0.5 0.16 0 0.52 0.16 0 0.54 0.16 0 0.56 0.16 0 0.58 0.16 0 0.6 0.16 0 0.62 0.16 0 0.64 0.16 0 0.66 0.16 0 0.68 0.16 0 0.7 0.16 0 0.72 0.16 0 0.74 0.16 0 0.76 0.16 0 0.78 0.16 0 0.8 0.16 0 0.82 0.16 0 0.84 0.16 0 0.86 0.16 0 0.88 0.16 0 0.9 0.16 0 0.92 0.16 0 0.94 0.16 0 0.96 0.16 0 0.98 0.16 0 1 0.16 0 0 0.18 0 0.02 0.18 0 0.04 0.18 0 0.06 0.18 0 0.08 0.18 0 0.1 0.18 0 0.12 0.18 0 0.14 0.18 0 0.16 0.18 0 0.18 0.18 0 0.2 0.18 0 0.22 0.18 0 0.24 0.18 0 0.26 0.18 0 0.28 0.18 0 0.3 0.18 0 0.32 0.18 0 0.34 0.18 0 0.36 0.18 0 0.38 0.18 0 0.4 0.18 0 0.42 0.18 0 0.44 0.18 0 0.46 0.18 0 0.48 0.18 0 0.5 0.18 0 0.52 0.18 0 0.54 0.18 0 0.56 0.18 0 0.58 0.18 0 0.6 0.18 0 0.62 0.18 0 0.64 0.18 0 0.66 0.18 0 0.68 0.18 0 0.7 0.18 0 0.72 0.18 0 0.74 0.18 0 0.76 0.18 0 0.78 0.18 0 0.8 0.18 0 0.82 0.18 0 0.84 0.18 0 0.86 0.18 0 0.88 0.18 0 0.9 0.18 0 0.92 0.18 0 0.94 0.18 0 0.96 0.18 0 0.98 0.18 0 1 0.18 0 0 0.2 0 0.02 0.2 0 0.04 0.2 0 0.06 0.2 0 0.08 0.2 0 0.1 0.2 0 0.12 0.2 0 0.14 0.2 0 0.16 0.2 0 0.18 0.2 0 0.2 0.2 0 0.22 0.2 0 0.24 0.2 0 0.26 0.2 0 0.28 0.2 0 0.3 0.2 0 0.32 0.2 0 0.34 0.2 0 0.36 0.2 0 0.38 0.2 0 0.4 0.2 0 0.42 0.2 0 0.44 0.2 0 0.46 0.2 0 0.48 0.2 0 0.5 0.2 0 0.52 0.2 0 0.54 0.2 0 0.56 0.2 0 0.58 0.2 0 0.6 0.2 0 0.62 0.2 0 0.64 0.2 0 0.66 0.2 0 0.68 0.2 0 0.7 0.2 0 0.72 0.2 0 0.74 0.2 0 0.76 0.2 0 0.78 0.2 0 0.8 0.2 0 0.82 0.2 0 0.84 0.2 0 0.86 0.2 0 0.88 0.2 0 0.9 0.2 0 0.92 0.2 0 0.94 0.2 0 0.96 0.2 0 0.98 0.2 0 1 0.2 0 0 0.22 0 0.02 0.22 0 0.04 0.22 0 0.06 0.22 0 0.08 0.22 0 0.1 0.22 0 0.12 0.22 0 0.14 0.22 0 0.16 0.22 0 0.18 0.22 0 0.2 0.22 0 0.22 0.22 0 0.24 0.22 0 0.26 0.22 0 0.28 0.22 0 0.3 0.22 0 0.32 0.22 0 0.34 0.22 0 0.36 0.22 0 0.38 0.22 0 0.4 0.22 0 0.42 0.22 0 0.44 0.22 0 0.46 0.22 0 0.48 0.22 0 0.5 0.22 0 0.52 0.22 0 0.54 0.22 0 0.56 0.22 0 0.58 0.22 0 0.6 0.22 0 0.62 0.22 0 0.64 0.22 0 0.66 0.22 0 0.68 0.22 0 0.7 0.22 0 0.72 0.22 0 0.74 0.22 0 0.76 0.22 0 0.78 0.22 0 0.8 0.22 0 0.82 0.22 0 0.84 0.22 0 0.86 0.22 0 0.88 0.22 0 0.9 0.22 0 0.92 0.22 0 0.94 0.22 0 0.96 0.22 0 0.98 0.22 0 1 0.22 0 0 0.24 0 0.02 0.24 0 0.04 0.24 0 0.06 0.24 0 0.08 0.24 0 0.1 0.24 0 0.12 0.24 0 0.14 0.24 0 0.16 0.24 0 0.18 0.24 0 0.2 0.24 0 0.22 0.24 0 0.24 0.24 0 0.26 0.24 0 0.28 0.24 0 0.3 0.24 0 0.32 0.24 0 0.34 0.24 0 0.36 0.24 0 0.38 0.24 0 0.4 0.24 0 0.42 0.24 0 0.44 0.24 0 0.46 0.24 0 0.48 0.24 0 0.5 0.24 0 0.52 0.24 0 0.54 0.24 0 0.56 0.24 0 0.58 0.24 0 0.6 0.24 0 0.62 0.24 0 0.64 0.24 0 0.66 0.24 0 0.68 0.24 0 0.7 0.24 0 0.72 0.24 0 0.74 0.24 0 0.76 0.24 0 0.78 0.24 0 0.8 0.24 0 0.82 0.24 0 0.84 0.24 0 0.86 0.24 0 0.88 0.24 0 0.9 0.24 0 0.92 0.24 0 0.94 0.24 0 0.96 0.24 0 0.98 0.24 0 1 0.24 0 0 0.26 0 0.02 0.26 0 0.04 0.26 0 0.06 0.26 0 0.08 0.26 0 0.1 0.26 0 0.12 0.26 0 0.14 0.26 0 0.16 0.26 0 0.18 0.26 0 0.2 0.26 0 0.22 0.26 0 0.24 0.26 0 0.26 0.26 0 0.28 0.26 0 0.3 0.26 0 0.32 0.26 0 0.34 0.26 0 0.36 0.26 0 0.38 0.26 0 0.4 0.26 0 0.42 0.26 0 0.44 0.26 0 0.46 0.26 0 0.48 0.26 0 0.5 0.26 0 0.52 0.26 0 0.54 0.26 0 0.56 0.26 0 0.58 0.26 0 0.6 0.26 0 0.62 0.26 0 0.64 0.26 0 0.66 0.26 0 0.68 0.26 0 0.7 0.26 0 0.72 0.26 0 0.74 0.26 0 0.76 0.26 0 0.78 0.26 0 0.8 0.26 0 0.82 0.26 0 0.84 0.26 0 0.86 0.26 0 0.88 0.26 0 0.9 0.26 0 0.92 0.26 0 0.94 0.26 0 0.96 0.26 0 0.98 0.26 0 1 0.26 0 0 0.28 0 0.02 0.28 0 0.04 0.28 0 0.06 0.28 0 0.08 0.28 0 0.1 0.28 0 0.12 0.28 0 0.14 0.28 0 0.16 0.28 0 0.18 0.28 0 0.2 0.28 0 0.22 0.28 0 0.24 0.28 0 0.26 0.28 0 0.28 0.28 0 0.3 0.28 0 0.32 0.28 0 0.34 0.28 0 0.36 0.28 0 0.38 0.28 0 0.4 0.28 0 0.42 0.28 0 0.44 0.28 0 0.46 0.28 0 0.48 0.28 0 0.5 0.28 0 0.52 0.28 0 0.54 0.28 0 0.56 0.28 0 0.58 0.28 0 0.6 0.28 0 0.62 0.28 0 0.64 0.28 0 0.66 0.28 0 0.68 0.28 0 0.7 0.28 0 0.72 0.28 0 0.74 0.28 0 0.76 0.28 0 0.78 0.28 0 0.8 0.28 0 0.82 0.28 0 0.84 0.28 0 0.86 0.28 0 0.88 0.28 0 0.9 0.28 0 0.92 0.28 0 0.94 0.28 0 0.96 0.28 0 0.98 0.28 0 1 0.28 0 0 0.3 0 0.02 0.3 0 0.04 0.3 0 0.06 0.3 0 0.08 0.3 0 0.1 0.3 0 0.12 0.3 0 0.14 0.3 0 0.16 0.3 0 0.18 0.3 0 0.2 0.3 0 0.22 0.3 0 0.24 0.3 0 0.26 0.3 0 0.28 0.3 0 0.3 0.3 0 0.32 0.3 0 0.34 0.3 0 0.36 0.3 0 0.38 0.3 0 0.4 0.3 0 0.42 0.3 0 0.44 0.3 0 0.46 0.3 0 0.48 0.3 0 0.5 0.3 0 0.52 0.3 0 0.54 0.3 0 0.56 0.3 0 0.58 0.3 0 0.6 0.3 0 0.62 0.3 0 0.64 0.3 0 0.66 0.3 0 0.68 0.3 0 0.7 0.3 0 0.72 0.3 0 0.74 0.3 0 0.76 0.3 0 0.78 0.3 0 0.8 0.3 0 0.82 0.3 0 0.84 0.3 0 0.86 0.3 0 0.88 0.3 0 0.9 0.3 0 0.92 0.3 0 0.94 0.3 0 0.96 0.3 0 0.98 0.3 0 1 0.3 0 0 0.32 0 0.02 0.32 0 0.04 0.32 0 0.06 0.32 0 0.08 0.32 0 0.1 0.32 0 0.12 0.32 0 0.14 0.32 0 0.16 0.32 0 0.18 0.32 0 0.2 0.32 0 0.22 0.32 0 0.24 0.32 0 0.26 0.32 0 0.28 0.32 0 0.3 0.32 0 0.32 0.32 0 0.34 0.32 0 0.36 0.32 0 0.38 0.32 0 0.4 0.32 0 0.42 0.32 0 0.44 0.32 0 0.46 0.32 0 0.48 0.32 0 0.5 0.32 0 0.52 0.32 0 0.54 0.32 0 0.56 0.32 0 0.58 0.32 0 0.6 0.32 0 0.62 0.32 0 0.64 0.32 0 0.66 0.32 0 0.68 0.32 0 0.7 0.32 0 0.72 0.32 0 0.74 0.32 0 0.76 0.32 0 0.78 0.32 0 0.8 0.32 0 0.82 0.32 0 0.84 0.32 0 0.86 0.32 0 0.88 0.32 0 0.9 0.32 0 0.92 0.32 0 0.94 0.
[...]
			<PointData Scalars="VitesseX">
				<DataArray Name="VitesseX" type="Float32" format="ascii">
 0 0 0 0 0 0 0 0 0 0 0 0 0 0 0 0 0 0 0 0 0 0 0 0 0 0 0 0 0 0 0 0 0 0 0 0 0 0 0 0 0 0 0 0 0 0 0 0 0 0 0 0 0.000436564 0.00173908 0.00388735 0.00684684 0.0105708 0.0150004 0.0200656 0.0256867 0.0317751 0.0382348 0.0449644 0.0518578 0.0588058 0.0656999 0.0724325 0.078897 0.0849915 0.0906201 0.0956942 0.100134 0.103869 0.10684 0.109001 0.110328 0.110764 0.110338 0.109047 0.106893 0.103936 0.100212 0.0957816 0.0907132 0.0850872 0.0789923 0.0725247 0.0657865 0.0588841 0.0519271 0.0450244 0.0382845 0.0318145 0.0257167 0.0200873 0.015015 0.0105799 0.00685196 0.00388982 0.00174015 0.000436714 4.73781e-27 0 0.000865817 0.00344789 0.0077061 0.01357 0.0209461 0.0297174 0.0397452 0.0508713 0.0629209 0.0757051 0.0890238 0.102669 0.116423 0.130075 0.143415 0.156231 0.168322 0.1795 0.189587 0.198426 0.205877 0.21182 0.216162 0.218877 0.219774 0.219012 0.216529 0.212301 0.206489 0.199146 0.190389 0.180354 0.169201 0.157106 0.14426 0.130868 0.117142 0.103304 0.089569 0.0761549 0.0632775 0.0511412 0.0399386 0.029847 0.0210256 0.0136132 0.00772582 0.00345514 0.000866789 9.40015e-27 0 0.00128105 0.00509993 0.0113973 0.0200663 0.0309679 0.0439281 0.0587416 0.0751751 0.0929709 0.111851 0.131521 0.151675 0.171993 0.192166 0.211887 0.230843 0.248739 0.265296 0.280254 0.293377 0.304458 0.313318 0.319816 0.323944 0.325308 0.324283 0.320685 0.314478 0.305933 0.295113 0.282186 0.267356 0.250858 0.232951 0.213923 0.194075 0.173725 0.153205 0.132833 0.112933 0.0938286 0.0758242 0.0592066 0.0442392 0.0311584 0.0201697 0.0114444 0.00511698 0.00128333 1.39133e-26 0 0.00167573 0.00666926 0.014903 0.0262335 0.0404781 0.0574083 0.0767556 0.0982152 0.121451 0.146102 0.171786 0.198104 0.224639 0.250992 0.276766 0.301555 0.324973 0.346656 0.366264 0.383488 0.398055 0.409732 0.418327 0.423864 0.425697 0.424496 0.419878 0.411826 0.40072 0.386623 0.369753 0.350376 0.328797 0.305361 0.280441 0.254436 0.227765 0.200864 0.174152 0.148054 0.122998 0.0993858 0.077594 0.0579691 0.0408213 0.0264195 0.0149874 0.00669964 0.00167978 1.82063e-26 0 0.00204367 0.00813127 0.018168 0.0319746 0.0493271 0.069946 0.0935033 0.119628 0.147913 0.177919 0.209183 0.241224 0.273532 0.305628 0.337036 0.367257 0.395827 0.4223 0.446264 0.467342 0.485197 0.499542 0.51014 0.517054 0.519359 0.518063 0.512538 0.502809 0.489353 0.472231 0.451708 0.428104 0.401793 0.373195 0.342769 0.311004 0.278411 0.245532 0.212876 0.180965 0.150327 0.121455 0.0948109 0.0708201 0.0498618 0.0322642 0.018299 0.00817815 0.00204992 2.22118e-26 0 0.0023791 0.0094631 0.0211409 0.0371993 0.0573758 0.0813438 0.108721 0.139078 0.17194 0.2068 0.243124 0.280355 0.317901 0.355214 0.391743 0.426913 0.460181 0.491034 0.518991 0.543612 0.564504 0.581328 0.593806 0.602036 0.604817 0.603501 0.597198 0.585988 0.570432 0.550586 0.526756 0.499314 0.468693 0.435385 0.399926 0.362887 0.324868 0.286505 0.248394 0.211147 0.175384 0.141683 0.110586 0.0825899 0.0581375 0.0376114 0.021327 0.00952919 0.00238789 2.58668e-26 0 0.00267676 0.0106439 0.0237753 0.0418256 0.0644976 0.0914223 0.12217 0.156256 0.193152 0.232291 0.273074 0.314882 0.35705 0.39897 0.440029 0.47958 0.51702 0.551771 0.583294 0.611091 0.63472 0.653795 0.667997 0.677457 0.680725 0.679451 0.67252 0.660048 0.642676 0.620451 0.593714 0.562882 0.528442 0.490949 0.451008 0.409266 0.366402 0.323139 0.280148 0.238125 0.197775 0.159752 0.124672 0.0930931 0.065518 0.0423769 0.0240236 0.0107315 0.00268838 2.9114e-26 0 0.002932 0.0116553 0.0260296 0.0457806 0.0705805 0.100023 0.133637 0.170894 0.211218 0.253991 0.298562 0.34426 0.390359 0.436202 0.481126 0.524425 0.565443 0.603549 0.638153 0.668712 0.694733 0.715792 0.731536 0.742115 0.745885 0.744702 0.737311 0.723816 0.704942 0.680721 0.651525 0.617806 0.580101 0.539014 0.495212 0.44941 0.402358 0.354855 0.307638 0.261476 0.217148 0.175379 0.136845 0.102164 0.071887 0.0464856 0.0263464 0.011766 0.00294666 3.19028e-26 0 0.00314082 0.0124814 0.0278686 0.0490025 0.0755286 0.10701 0.142943 0.182762 0.225853 0.271559 0.319189 0.368027 0.417305 0.466326 0.514388 0.560743 0.604688 0.645552 0.682705 0.715561 0.743595 0.766343 0.78342 0.794984 0.79927 0.798217 0.79055 0.776285 0.756248 0.730447 0.699276 0.663222 0.622854 0.578823 0.531846 0.482692 0.432172 0.381153 0.33043 0.28083 0.2332 0.188317 0.146914 0.10966 0.0771443 0.0498729 0.0282586 0.0126164 0.00315866 3.41894e-26 0 0.00329997 0.0131095 0.0292633 0.0514405 0.0792645 0.112275 0.149942 0.191673 0.236828 0.284721 0.33463 0.385814 0.437469 0.488874 0.539301 0.587967 0.634142 0.677124 0.716253 0.750909 0.780535 0.804647 0.82283 0.835231 0.840041 0.839143 0.831396 0.816624 0.795778 0.768841 0.736216 0.698415 0.656036 0.609756 0.560336 0.508591 0.455379 0.401623 0.348167 0.295884 0.245675 0.198361 0.154721 0.115463 0.0812069 0.0524852 0.0297302 0.0132694 0.00332104 3.59382e-26 0 0.00340759 0.0135345 0.0302077 0.0530909 0.0817931 0.115838 0.154676 0.197698 0.244245 0.29361 0.345054 0.397818 0.451078 0.504094 0.556122 0.606357 0.654052 0.698484 0.738963 0.774849 0.805561 0.830592 0.849513 0.862467 0.867586 0.866831 0.859205 0.844193 0.822906 0.795295 0.761759 0.722824 0.679115 0.631322 0.580233 0.526702 0.471619 0.415946 0.36057 0.3064 0.254377 0.205355 0.160144 0.119481 0.0840108 0.0542814 0.030738 0.0137147 0.00343124 3.71219e-26 0 0.00345946 0.0137305 0.0306246 0.053789 0.0828208 0.117234 0.156469 0.199914 0.246906 0.296737 0.348672 0.401953 0.455764 0.509358 0.562003 0.612897 0.661299 0.706477 0.747732 0.784421 0.815963 0.841834 0.861583 0.875261 0.881351 0.880904 0.873852 0.859009 0.837795 0.810083 0.776272 0.736886 0.692561 0.644004 0.592017 0.537478 0.481309 0.424499 0.367964 0.312641 0.259506 0.209444 0.163284 0.121779 0.0855896 0.0552753 0.0312846 0.0139509 0.00348827 3.7722e-26 0 0.00345939 0.0137295 0.0306201 0.0537761 0.0827919 0.117179 0.156377 0.199773 0.246707 0.296472 0.348339 0.401554 0.455313 0.508861 0.561481 0.612378 0.660809 0.70603 0.747341 0.784107 0.815731 0.841682 0.8615 0.87523 0.881348 0.880907 0.873874 0.859063 0.837893 0.81023 0.776469 0.737133 0.692846 0.644312 0.592337 0.537791 0.481601 0.424759 0.368186 0.31282 0.259641 0.209538 0.163345 0.121815 0.0856082 0.0552835 0.0312874 0.0139514 0.00348831 3.77292e-26 0 0.00340249 0.0134945 0.0300757 0.0527873 0.0812231 0.114899 0.153265 0.195723 0.241627 0.290296 0.341024 0.393085 0.445708 0.498153 0.549739 0.599705 0.647322 0.691861 0.732651 0.769069 0.800522 0.826482 0.846484 0.860469 0.867346 0.86728 0.861506 0.847559 0.827366 0.800663 0.767827 0.729367 0.685896 0.638115 0.586828 0.532908 0.477286 0.420958 0.364868 0.309951 0.257191 0.207483 0.161666 0.120493 0.084623 0.0546072 0.0308797 0.0137576 0.00343663 3.71435e-26 0 0.00329256 0.0130512 0.0290702 0.0509945 0.0784244 0.110888 0.147854 0.188742 0.232938 0.279792 0.32863 0.378765 0.429467 0.480027 0.529805 0.578084 0.624154 0.667319 0.706943 0.742415 0.773158 0.79865 0.818432 0.832355 0.839715 0.839794 0.834611 0.821338 0.802036 0.7764 0.744784 0.707674 0.665663 0.619425 0.569735 0.517445 0.463467 0.408771 0.354292 0.300938 0.249675 0.201382 0.156878 0.116891 0.082068 0.0529419 0.0299282 0.0133291 0.0033285 3.5974e-26 0 0.00313058 0.0124009 0.0276016 0.0483866 0.0743684 0.105094 0.140058 0.178711 0.220477 0.264751 0.310903 0.358295 0.406256 0.454112 0.501284 0.547106 0.590903 0.632021 0.669868 0.703855 0.733431 0.758091 0.777384 0.791062 0.798861 0.799172 0.795004 0.782799 0.764878 0.740858 0.711067 0.675952 0.636079 0.592097 0.544746 0.494846 0.44327 0.39096 0.338832 0.287762 0.238688 0.19246 0.149873 0.111621 0.0783266 0.0505002 0.0285304 0.0126983 0.0031689 3.4239e-26 0 0.00291908 0.0115537 0.025693 0.0450047 0.0691186 0.0976076 0.13 0.165788 0.204442 0.245411 0.288122 0.331999 0.376439 0.420819 0.464632 0.507265 0.548095 0.586527 0.622015 0.654006 0.681982 0.70546 0.724003 0.737261 0.745436 0.746009 0.742974 0.732072 0.715849 0.693854 0.66638 0.633833 0.596728 0.555682 0.511401 0.464658 0.416282 0.367161 0.318181 0.270173 0.224034 0.180577 0.140553 0.104623 0.0733714 0.0472737 0.0266876 0.0118687 0.00295953 3.19657e-26 0 0.00266137 0.0105228 0.0233743 0.0409017 0.0627571 0.0885457 0.117838 0.150176 0.185083 0.222074 0.260645 0.30029 0.340486 0.380673 0.420423 0.459184 0.496404 0.531557 0.564146 0.593667 0.619637 0.641598 0.659135 0.671888 0.680096 0.681376 0.679184 0.670013 0.655726 0.636131 0.611427 0.581973 0.548234 0.510776 0.470245 0.427367 0.382924 0.337744 0.292661 0.248447 0.205946 0.165919 0.129067 0.0960105 0.0672803 0.0433121 0.0244286 0.0108534 0.00270368 2.91897e-26 0 0.00236147 0.00932443 0.0206819 0.0361417 0.0553836 0.0780512 0.103763 0.132117 0.162704 0.195108 0.228903 0.263666 0.29896 0.334307 0.369352 0.403622 0.436649 0.467986 0.497183 0.523791 0.547375 0.567514 0.583819 0.595943 0.603939 0.606279 0.604672 0.597607 0.585469 0.568607 0.547077 0.521185 0.491343 0.458057 0.421916 0.383573 0.343735 0.30317 0.262666 0.222922 0.184707 0.148719 0.115601 0.0859206 0.0601488 0.038678 0.0217892 0.00966849 0.00240537 2.59543e-26 0 0.00202408 0.00797716 0.0176579 0.0307996 0.0471141 0.0662887 0.087996 0.111897 0.137656 0.164936 0.193396 0.222703 0.25251 0.282452 0.312224 0.341463 0.36978 0.396812 0.422175 0.445478 0.466342 0.484389 0.499255 0.510607 0.518323 0.521684 0.520795 0.515938 0.506196 0.492356 0.474354 0.452441 0.426965 0.398367 0.367166 0.333943 0.299332 0.264008 0.228683 0.194001 0.160649 0.129246 0.100365 0.0745085 0.0520885 0.0334452 0.018811 0.00833258 0.00206932 2.23102e-26 0 0.00165449 0.00650208 0.0143499 0.0249594 0.0380785 0.0534428 0.0707846 0.0898343 0.110334 0.132033 0.154683 0.178045 0.201873 0.225917 0.249935 0.273676 0.296842 0.319152 0.3403 0.359968 0.377822 0.39353 0.406762 0.417214 0.424612 0.428907 0.428905 0.426289 0.419151 0.408578 0.394405 0.376827 0.356125 0.332662 0.306874 0.27927 0.250405 0.220863 0.191254 0.162146 0.134154 0.107809 0.0835975 0.0619554 0.0432276 0.0276964 0.0155411 0.00686676 0.00170081 1.83145e-26 0 0.00125849 0.00492229 0.0108098 0.0187129 0.0284192 0.0397162 0.0523999 0.066275 0.0811673 0.0969173 0.113373 0.130395 0.147845 0.165583 0.183465 0.20132 0.218976 0.23623 0.252855 0.268598 0.283201 0.296367 0.307798 0.317237 0.324402 0.329094 0.330841 0.329786 0.325797 0.318586 0.308484 0.295527 0.279924 0.26196 0.241988 0.220425 0.197731 0.174406 0.150957 0.127864 0.105644 0.0847441 0.0655644 0.04846 0.0337068 0.0215225 0.0120312 0.00529419 0.00130565 1.40298e-26 0 0.000842306 0.00326257 0.00709339 0.0121586 0.0182883 0.0253251 0.0331318 0.0415908 0.0506162 0.0601411 0.0701155 0.0805039 0.0912766 0.102403 0.113847 0.125546 0.137416 0.14935 0.161197 0.172802 0.183965 0.194422 0.203931 0.212257 0.219128 0.224253 0.227492 0.228478 0.227356 0.223855 0.217944 0.209822 0.199565 0.187378 0.173526 0.158327 0.142145 0.125372 0.108427 0.0916931 0.0755686 0.0604178 0.0465511 0.0342363 0.0236766 0.0150209 0.00833662 0.00363968 0.000890074 9.52332e-27 0 0.000412477 0.00154908 0.00325947 0.00540065 0.00784768 0.0105001 0.0132902 0.0161804 0.0191745 0.0223005 0.0256119 0.0291799 0.0330847 0.0374074 0.0422174 0.0475621 0.0534572 0.0598938 0.0668044 0.0741223 0.0816884 0.0893107 0.0967948 0.103916 0.110428 0.116039 0.120555 0.123776 0.125587 0.125693 0.124257 0.121068 0.116318 0.110096 0.102569 0.0939581 0.0845225 0.0745445 0.0643423 0.054202 0.0444017 0.0352146 0.0268577 0.0195092 0.0132954 0.0082942 0.00451568 0.00192932 0.00046062 4.86596e-27 0 -2.40607e-05 -0.000190088 -0.000628368 -0.00144812 -0.00272825 -0.004511 -0.00679408 -0.00953404 -0.0126376 -0.0159805 -0.0194052 -0.0227333 -0.0257743 -0.0283367 -0.0302404 -0.0313326 -0.0314945 -0.0306449 -0.0287483 -0.0258184 -0.0219393 -0.0172424 -0.011887 -0.00606049 8.11769e-07 0.00606548 0.0118933 0.0172555 0.0219577 0.0258399 0.0287704 0.0306538 0.031493 0.0313305 0.0302383 0.0283346 0.0257729 0.0227307 0.0194066 0.0159832 0.0126379 0.00953407 0.00679538 0.00451123 0.00272671 0.00144839 0.000628674 0.000190101 2.40609e-05 1.30946e-28 0 -0.00046062 -0.00192931 -0.00451535 -0.00829387 -0.0132972 -0.0195089 -0.0268562 -0.0352149 -0.0444028 -0.0541995 -0.0643424 -0.0745502 -0.0845234 -0.0939607 -0.102574 -0.110101 -0.116325 -0.121071 -0.124243 -0.125657 -0.125558 -0.123771 -0.120555 -0.116039 -0.110428 -0.103908 -0.0967829 -0.0892961 -0.0816781 -0.0741214 -0.0667993 -0.0598771 -0.0534529 -0.047559 -0.0422173 -0.0374088 -0.0330858 -0.0291799 -0.0256114 -0.0222983 -0.0191718 -0.0161799 -0.0132893 -0.0104999 -0.00784903 -0.00540047 -0.00325917 -0.00154906 -0.000412477 -4.60715e-27 0 -0.000890074 -0.00363967 -0.00833624 -0.0150206 -0.0236786 -0.0342356 -0.0465499 -0.0604176 -0.07557 -0.0916932 -0.108424 -0.125374 -0.142146 -0.158329 -0.17353 -0.187384 -0.19957 -0.209826 -0.217945 -0.223835 -0.227335 -0.228471 -0.227489 -0.224249 -0.219128 -0.212254 -0.203929 -0.194408 -0.183955 -0.172809 -0.161195 -0.149336 -0.13741 -0.125539 -0.113845 -0.102405 -0.0912775 -0.080504 -0.0701144 -0.0601384 -0.0506127 -0.0415894 -0.0331313 -0.025325 -0.0182895 -0.0121584 -0.00709308 -0.00326254 -0.000842305 -9.2736e-27 0 -0.00130565 -0.00529417 -0.0120307 -0.021522 -0.0337085 -0.0484584 -0.0655637 -0.0847438 -0.105647 -0.127869 -0.150953 -0.174401 -0.197733 -0.220426 -0.24199 -0.261961 -0.279924 -0.295525 -0.308483 -0.318583 -0.325789 -0.329778 -0.330835 -0.329091 -0.324403 -0.31724 -0.307802 -0.296356 -0.283194 -0.268599 -0.252848 -0.236223 -0.218973 -0.201313 -0.183462 -0.165585 -0.147845 -0.130394 -0.113369 -0.0969142 -0.0811648 -0.0662727 -0.0523996 -0.0397164 -0.0284203 -0.0187128 -0.0108095 -0.00492225 -0.00125849 -1.37947e-26 0 -0.00170081 -0.00686673 -0.0155405 -0.0276956 -0.0432282 -0.0619526 -0.083597 -0.107809 -0.134157 -0.162154 -0.191256 -0.220858 -0.250405 -0.279274 -0.306876 -0.332661 -0.356124 -0.376823 -0.394401 -0.408574 -0.419147 -0.426289 -0.428907 -0.428909 -0.424612 -0.417216 -0.406763 -0.393525 -0.377819 -0.359968 -0.340297 -0.319151 -0.296841 -0.273666 -0.249933 -0.225922 -0.201872 -0.178043 -0.154679 -0.132031 -0.110332 -0.0898303 -0.0707839 -0.0534432 -0.0380796 -0.0249594 -0.0143495 -0.00650203 -0.00165449 -1.8099e-26 0 -0.00206932 -0.00833255 -0.0188103 -0.0334438 -0.0520876 -0.0745048 -0.100365 -0.129247 -0.160649 -0.194006 -0.228693 -0.264012 -0.299331 -0.333942 -0.367167 -0.398371 -0.426968 -0.45244 -0.47435 -0.492354 -0.506194 -0.515941 -0.520799 -0.521687 -0.518323 -0.510609 -0.499255 -0.484387 -0.466343 -0.44548 -0.42217 -0.396813 -0.369787 -0.341463 -0.312231 -0.282461 -0.252508 -0.222702 -0.193394 -0.164934 -0.137654 -0.111889 -0.0879927 -0.0662887 -0.0471151 -0.0307997 -0.0176575 -0.00797709 -0.00202408 -2.21183e-26 0 -0.00240538 -0.00966849 -0.0217884 -0.0386759 -0.0601467 -0.0859169 -0.115602 -0.148721 -0.184705 -0.222922 -0.262673 -0.303181 -0.34374 -0.383569 -0.421911 -0.458054 -0.491341 -0.521183 -0.547074 -0.568606 -0.58547 -0.597608 -0.604675 -0.60628 -0.60394 -0.595949 -0.583824 -0.567514 -0.547374 -0.523792 -0.497181 -0.467988 -0.436653 -0.403624 -0.369364 -0.33432 -0.298961 -0.263669 -0.228902 -0.195105 -0.162703 -0.132106 -0.103757 -0.0780504 -0.0553843 -0.0361417 -0.0206814 -0.00932436 -0.00236147 -2.5789e-26 0 -0.00270368 -0.0108535 -0.0244278 -0.0433095 -0.0672784 -0.0960087 -0.129068 -0.165923 -0.205945 -0.248445 -0.292659 -0.337744 -0.382929 -0.427372 -0.470246 -0.510772 -0.548228 -0.581967 -0.611423 -0.63613 -0.655726 -0.670014 -0.679185 -0.681375 -0.680095 -0.67189 -0.659138 -0.641598 -0.619638 -0.59367 -0.564148 -0.53156 -0.496399 -0.45918 -0.420433 -0.380681 -0.340486 -0.300293 -0.260643 -0.222071 -0.185087 -0.150167 -0.117831 -0.0885444 -0.0627574 -0.0409016 -0.0233738 -0.0105228 -0.00266136 -2.90527e-26 0 -0.00295954 -0.0118687 -0.0266869 -0.0472713 -0.0733701 -0.104621 -0.140551 -0.18058 -0.224034 -0.270172 -0.318179 -0.367158 -0.416279 -0.464659 -0.511408 -0.555691 -0.596734 -0.633833 -0.666378 -0.693853 -0.715849 -0.732072 -0.742974 -0.746009 -0.745436 -0.737259 -0.724002 -0.705462 -0.681986 -0.654009 -0.622014 -0.586529 -0.54809 -0.507265 -0.464648 -0.420827 -0.376437 -0.331998 -0.288118 -0.245408 -0.204448 -0.165781 -0.129993 -0.0976064 -0.0691191 -0.0450049 -0.0256925 -0.0115536 -0.00291908 -3.18576e-26 0 -0.00316891 -0.0126983 -0.02853 -0.0504988 -0.078326 -0.111618 -0.14987 -0.192463 -0.238687 -0.287761 -0.338831 -0.390958 -0.443266 -0.494841 -0.544745 -0.5921 -0.636088 -0.675963 -0.711071 -0.740858 -0.764878 -0.782801 -0.795005 -0.799172 -0.798862 -0.791062 -0.777383 -0.758091 -0.733431 -0.703854 -0.669869 -0.632021 -0.590896 -0.547111 -0.501304 -0.454121 -0.406256 -0.358294 -0.3109 -0.26475 -0.220483 -0.178704 -0.140051 -0.105093 -0.0743694 -0.0483873 -0.0276012 -0.0124007 -0.00313057 -3.41591e-26 0 -0.00332851 -0.0133291 -0.029928 -0.0529413 -0.0820678 -0.11689 -0.156877 -0.201384 -0.249673 -0.300936 -0.35429 -0.408769 -0.463464 -0.517441 -0.569729 -0.619421 -0.665664 -0.707684 -0.744791 -0.776401 -0.802036 -0.821338 -0.834611 -0.839794 -0.839714 -0.832353 -0.818429 -0.798648 -0.773157 -0.742417 -0.706945 -0.667314 -0.624146 -0.57809 -0.529822 -0.480034 -0.429469 -0.378762 -0.328626 -0.279793 -0.232946 -0.188742 -0.147851 -0.110889 -0.0784269 -0.0509955 -0.0290699 -0.013051 -0.00329255 -3.59205e-26 0 -0.00343663 -0.0137576 -0.0308796 -0.0546069 -0.0846229 -0.120493 -0.161668 -0.207486 -0.257189 -0.30995 -0.364867 -0.420956 -0.477283 -0.532904 -0.586824 -0.638113 -0.685896 -0.729373 -0.767833 -0.800664 -0.827368 -0.847561 -0.861507 -0.867279 -0.867345 -0.860467 -0.846482 -0.826482 -0.800525 -0.769073 -0.732652 -0.691854 -0.647317 -0.599715 -0.549753 -0.498158 -0.445704 -0.393077 -0.341019 -0.290298 -0.241637 -0.19573 -0.153269 -0.114904 -0.0812283 -0.0527887 -0.0300755 -0.0134944 -0.00340249 -3.71138e-26 0 -0.00348832 -0.0139515 -0.0312874 -0.0552833 -0.0856083 -0.121816 -0.163349 -0.209545 -0.259646 -0.312826 -0.368187 -0.424756 -0.481598 -0.537788 -0.592333 -0.64431 -0.692846 -0.73714 -0.776475 -0.810232 -0.837895 -0.859065 -0.873874 -0.880907 -0.881348 -0.87523 -0.8615 -0.841684 -0.815736 -0.784112 -0.747342 -0.706024 -0.660809 -0.61239 -0.561492 -0.508863 -0.455308 -0.401547 -0.348334 -0.296475 -0.246712 -0.199776 -0.156378 -0.117185 -0.0827988 -0.053778 -0.03062 -0.0137294 -0.00345938 -3.77199e-26 0 -0.00348827 -0.0139509 -0.0312847 -0.0552753 -0.0855899 -0.12178 -0.163286 -0.20945 -0.259514 -0.312651 -0.367969 -0.424498 -0.481306 -0.537475 -0.592014 -0.644 -0.692562 -0.736895 -0.776277 -0.810085 -0.837798 -0.859011 -0.873853 -0.880905 -0.88135 -0.87526 -0.861583 -0.841837 -0.81597 -0.784427 -0.747732 -0.706477 -0.661306 -0.612909 -0.562009 -0.509359 -0.455767 -0.401952 -0.34867 -0.29674 -0.246904 -0.199912 -0.156469 -0.117239 -0.0828283 -0.0537911 -0.0306246 -0.0137303 -0.00345946 -3.77292e-26 0 -0.00343124 -0.0137147 -0.030738 -0.0542814 -0.0840109 -0.119482 -0.160145 -0.205356 -0.25438 -0.306408 -0.360579 -0.415952 -0.471621 -0.5267 -0.580232 -0.631319 -0.679114 -0.722831 -0.761763 -0.795295 -0.822908 -0.844194 -0.859206 -0.866832 -0.867586 -0.862465 -0.849514 -0.830597 -0.805569 -0.774857 -0.738971 -0.698493 -0.654063 -0.606366 -0.556127 -0.504098 -0.45108 -0.397816 -0.345054 -0.293615 -0.244244 -0.197696 -0.154675 -0.115844 -0.0818005 -0.0530926 -0.0302076 -0.0135343 -0.00340759 -3.71414e-26 0 -0.00332104 -0.0132694 -0.0297302 -0.0524851 -0.0812069 -0.115463 -0.154721 -0.198362 -0.245676 -0.295887 -0.348172 -0.401629 -0.455383 -0.508592 -0.560335 -0.609755 -0.656035 -0.698418 -0.73622 -0.768841 -0.795776 -0.816624 -0.831397 -0.839144 -0.840042 -0.835232 -0.822833 -0.804654 -0.780546 -0.75092 -0.716263 -0.677132 -0.634146 -0.587969 -0.539302 -0.488875 -0.437468 -0.385811 -0.334631 -0.284725 -0.236831 -0.191674 -0.14994 -0.112279 -0.0792705 -0.0514418 -0.0292632 -0.0131093 -0.00329997 -3.59658e-26 0 -0.00315866 -0.0126164 -0.0282586 -0.0498729 -0.0771442 -0.10966 -0.146914 -0.188316 -0.233199 -0.280831 -0.330432 -0.381156 -0.432174 -0.482692 -0.531845 -0.578823 -0.622855 -0.663223 -0.699277 -0.730446 -0.756245 -0.