<?xml version="1.0"?>
<VTKFile type="PolyData">
	<PolyData>
		<Piece NumberOfPoints="2601" NumberOfPolys="2500">
			<Points>
				<DataArray type="Float32" NumberOfComponents="3" format="ascii">
 0 0 0 0.02 0 0 0.04 0 0 0.06 0 0 0.08 0 0 0.1 0 0 0.12 0 0 0.14 0 0 0.16 0 0 0.18 0 0 0.2 0 0 0.22 0 0 0.24 0 0 0.26 0 0 0.28 0 0 0.3 0 0 0.32 0 0 0.34 0 0 0.36 0 0 0.38 0 0 0.4 0 0 0.42 0 0 0.44 0 0 0.46 0 0 0.48 0 0 0.5 0 0 0.52 0 0 0.54 0 0 0.56 0 0 0.58 0 0 0.6 0 0 0.62 0 0 0.64 0 0 0.66 0 0 0.68 0 0 0.7 0 0 0.72 0 0 0.74 0 0 0.76 0 0 0.78 0 0 0.8 0 0 0.82 0 0 0.84 0 0 0.86 0 0 0.88 0 0 0.9 0 0 0.92 0 0 0.94 0 0 0.96 0 0 0.98 0 0 1 0 0 0 0.02 0 0.02 0.02 0 0.04 0.02 0 0.06 0.02 0 0.08 0.02 0 0.1 0.02 0 0.12 0.02 0 0.14 0.02 0 0.16 0.02 0 0.18 0.02 0 0.2 0.02 0 0.22 0.02 0 0.24 0.02 0 0.26 0.02 0 0.28 0.02 0 0.3 0.02 0 0.32 0.02 0 0.34 0.02 0 0.36 0.02 0 0.38 0.02 0 0.4 0.02 0 0.42 0.02 0 0.44 0.02 0 0.46 0.02 0 0.48 0.02 0 0.5 0.02 0 0.52 0.02 0 0.54 0.02 0 0.56 0.02 0 0.58 0.02 0 0.6 0.02 0 0.62 0.02 0 0.64 0.02 0 0.66 0.02 0 0.68 0.02 0 0.7 0.02 0 0.72 0.02 0 0.74 0.02 0 0.76 0.02 0 0.78 0.02 0 0.8 0.02 0 0.82 0.02 0 0.84 0.02 0 0.86 0.02 0 0.88 0.02 0 0.9 0.02 0 0.92 0.02 0 0.94 0.02 0 0.96 0.02 0 0.98 0.02 0 1 0.02 0 0 0.04 0 0.02 0.04 0 0.04 0.04 0 0.06 0.04 0 0.08 0.04 0 0.1 0.04 0 0.12 0.04 0 0.14 0.04 0 0.16 0.04 0 0.18 0.04 0 0.2 0.04 0 0.22 0.04 0 0.24 0.04 0 0.26 0.04 0 0.28 0.04 0 0.3 0.04 0 0.32 0.04 0 0.34 0.04 0 0.36 0.04 0 0.38 0.04 0 0.4 0.04 0 0.42 0.04 0 0.44 0.04 0 0.46 0.04 0 0.48 0.04 0 0.5 0.04 0 0.52 0.04 0 0.54 0.04 0 0.56 0.04 0 0.58 0.04 0 0.6 0.04 0 0.62 0.04 0 0.64 0.04 0 0.66 0.04 0 0.68 0.04 0 0.7 0.04 0 0.72 0.04 0 0.74 0.04 0 0.76 0.04 0 0.78 0.04 0 0.8 0.04 0 0.82 0.04 0 0.84 0.04 0 0.86 0.04 0 0.88 0.04 0 0.9 0.04 0 0.92 0.04 0 0.94 0.04 0 0.96 0.04 0 0.98 0.04 0 1 0.04 0 0 0.06 0 0.02 0.06 0 0.04 0.06 0 0.06 0.06 0 0.08 0.06 0 0.1 0.06 0 0.12 0.06 0 0.14 0.06 0 0.16 0.06 0 0.18 0.06 0 0.2 0.06 0 0.22 0.06 0 0.24 0.06 0 0.26 0.06 0 0.28 0.06 0 0.3 0.06 0 0.32 0.06 0 0.34 0.06 0 0.36 0.06 0 0.38 0.06 0 0.4 0.06 0 0.42 0.06 0 0.44 0.06 0 0.46 0.06 0 0.48 0.06 0 0.5 0.06 0 0.52 0.06 0 0.54 0.06 0 0.56 0.06 0 0.58 0.06 0 0.6 0.06 0 0.62 0.06 0 0.64 0.06 0 0.66 0.06 0 0.68 0.06 0 0.7 0.06 0 0.72 0.06 0 0.74 0.06 0 0.76 0.06 0 0.78 0.06 0 0.8 0.06 0 0.82 0.06 0 0.84 0.06 0 0.86 0.06 0 0.88 0.06 0 0.9 0.06 0 0.92 0.06 0 0.94 0.06 0 0.96 0.06 0 0.98 0.06 0 1 0.06 0 0 0.08 0 0.02 0.08 0 0.04 0.08 0 0.06 0.08 0 0.08 0.08 0 0.1 0.08 0 0.12 0.08 0 0.14 0.08 0 0.16 0.08 0 0.18 0.08 0 0.2 0.08 0 0.22 0.08 0 0.24 0.08 0 0.26 0.08 0 0.28 0.08 0 0.3 0.08 0 0.32 0.08 0 0.34 0.08 0 0.36 0.08 0 0.38 0.08 0 0.4 0.08 0 0.42 0.08 0 0.44 0.08 0 0.46 0.08 0 0.48 0.08 0 0.5 0.08 0 0.52 0.08 0 0.54 0.08 0 0.56 0.08 0 0.58 0.08 0 0.6 0.08 0 0.62 0.08 0 0.64 0.08 0 0.66 0.08 0 0.68 0.08 0 0.7 0.08 0 0.72 0.08 0 0.74 0.08 0 0.76 0.08 0 0.78 0.08 0 0.8 0.08 0 0.82 0.08 0 0.84 0.08 0 0.86 0.08 0 0.88 0.08 0 0.9 0.08 0 0.92 0.08 0 0.94 0.08 0 0.96 0.08 0 0.98 0.08 0 1 0.08 0 0 0.1 0 0.02 0.1 0 0.04 0.1 0 0.06 0.1 0 0.08 0.1 0 0.1 0.1 0 0.12 0.1 0 0.14 0.1 0 0.16 0.1 0 0.18 0.1 0 0.2 0.1 0 0.22 0.1 0 0.24 0.1 0 0.26 0.1 0 0.28 0.1 0 0.3 0.1 0 0.32 0.1 0 0.34 0.1 0 0.36 0.1 0 0.38 0.1 0 0.4 0.1 0 0.42 0.1 0 0.44 0.1 0 0.46 0.1 0 0.48 0.1 0 0.5 0.1 0 0.52 0.1 0 0.54 0.1 0 0.56 0.1 0 0.58 0.1 0 0.6 0.1 0 0.62 0.1 0 0.64 0.1 0 0.66 0.1 0 0.68 0.1 0 0.7 0.1 0 0.72 0.1 0 0.74 0.1 0 0.76 0.1 0 0.78 0.1 0 0.8 0.1 0 0.82 0.1 0 0.84 0.1 0 0.86 0.1 0 0.88 0.1 0 0.9 0.1 0 0.92 0.1 0 0.94 0.1 0 0.96 0.1 0 0.98 0.1 0 1 0.1 0 0 0.12 0 0.02 0.12 0 0.04 0.12 0 0.06 0.12 0 0.08 0.12 0 0.1 0.12 0 0.12 0.12 0 0.14 0.12 0 0.16 0.12 0 0.18 0.12 0 0.2 0.12 0 0.22 0.12 0 0.24 0.12 0 0.26 0.12 0 0.28 0.12 0 0.3 0.12 0 0.32 0.12 0 0.34 0.12 0 0.36 0.12 0 0.38 0.12 0 0.4 0.12 0 0.42 0.12 0 0.44 0.12 0 0.46 0.12 0 0.48 0.12 0 0.5 0.12 0 0.52 0.12 0 0.54 0.12 0 0.56 0.12 0 0.58 0.12 0 0.6 0.12 0 0.62 0.12 0 0.64 0.12 0 0.66 0.12 0 0.68 0.12 0 0.7 0.12 0 0.72 0.12 0 0.74 0.12 0 0.76 0.12 0 0.78 0.12 0 0.8 0.12 0 0.82 0.12 0 0.84 0.12 0 0.86 0.12 0 0.88 0.12 0 0.9 0.12 0 0.92 0.12 0 0.94 0.12 0 0.96 0.12 0 0.98 0.12 0 1 0.12 0 0 0.14 0 0.02 0.14 0 0.04 0.14 0 0.06 0.14 0 0.08 0.14 0 0.1 0.14 0 0.12 0.14 0 0.14 0.14 0 0.16 0.14 0 0.18 0.14 0 0.2 0.14 0 0.22 0.14 0 0.24 0.14 0 0.26 0.14 0 0.28 0.14 0 0.3 0.14 0 0.32 0.14 0 0.34 0.14 0 0.36 0.14 0 0.38 0.14 0 0.4 0.14 0 0.42 0.14 0 0.44 0.14 0 0.46 0.14 0 0.48 0.14 0 0.5 0.14 0 0.52 0.14 0 0.54 0.14 0 0.56 0.14 0 0.58 0.14 0 0.6 0.14 0 0.62 0.14 0 0.64 0.14 0 0.66 0.14 0 0.68 0.14 0 0.7 0.14 0 0.72 0.14 0 0.74 0.14 0 0.76 0.14 0 0.78 0.14 0 0.8 0.14 0 0.82 0.14 0 0.84 0.14 0 0.86 0.14 0 0.88 0.14 0 0.9 0.14 0 0.92 0.14 0 0.94 0.14 0 0.96 0.14 0 0.98 0.14 0 1 0.14 0 0 0.16 0 0.02 0.16 0 0.04 0.16 0 0.06 0.16 0 0.08 0.16 0 0.1 0.16 0 0.12 0.16 0 0.14 0.16 0 0.16 0.16 0 0.18 0.16 0 0.2 0.16 0 0.22 0.16 0 0.24 0.16 0 0.26 0.16 0 0.28 0.16 0 0.3 0.16 0 0.32 0.16 0 0.34 0.16 0 0.36 0.16 0 0.38 0.16 0 0.4 0.16 0 0.42 0.16 0 0.44 0.16 0 0.46 0.16 0 0.48 0.16 0 0.5 0.16 0 0.52 0.16 0 0.54 0.16 0 0.56 0.16 0 0.58 0.16 0 0.6 0.16 0 0.62 0.16 0 0.64 0.16 0 0.66 0.16 0 0.68 0.16 0 0.7 0.16 0 0.72 0.16 0 0.74 0.16 0 0.76 0.16 0 0.78 0.16 0 0.8 0.16 0 0.82 0.16 0 0.84 0.16 0 0.86 0.16 0 0.88 0.16 0 0.9 0.16 0 0.92 0.16 0 0.94 0.16 0 0.96 0.16 0 0.98 0.16 0 1 0.16 0 0 0.18 0 0.02 0.18 0 0.04 0.18 0 0.06 0.18 0 0.08 0.18 0 0.1 0.18 0 0.12 0.18 0 0.14 0.18 0 0.16 0.18 0 0.18 0.18 0 0.2 0.18 0 0.22 0.18 0 0.24 0.18 0 0.26 0.18 0 0.28 0.18 0 0.3 0.18 0 0.32 0.18 0 0.34 0.18 0 0.36 0.18 0 0.38 0.18 0 0.4 0.18 0 0.42 0.18 0 0.44 0.18 0 0.46 0.18 0 0.48 0.18 0 0.5 0.18 0 0.52 0.18 0 0.54 0.18 0 0.56 0.18 0 0.58 0.18 0 0.6 0.18 0 0.62 0.18 0 0.64 0.18 0 0.66 0.18 0 0.68 0.18 0 0.7 0.18 0 0.72 0.18 0 0.74 0.18 0 0.76 0.18 0 0.78 0.18 0 0.8 0.18 0 0.82 0.18 0 0.84 0.18 0 0.86 0.18 0 0.88 0.18 0 0.9 0.18 0 0.92 0.18 0 0.94 0.18 0 0.96 0.18 0 0.98 0.18 0 1 0.18 0 0 0.2 0 0.02 0.2 0 0.04 0.2 0 0.06 0.2 0 0.08 0.2 0 0.1 0.2 0 0.12 0.2 0 0.14 0.2 0 0.16 0.2 0 0.18 0.2 0 0.2 0.2 0 0.22 0.2 0 0.24 0.2 0 0.26 0.2 0 0.28 0.2 0 0.3 0.2 0 0.32 0.2 0 0.34 0.2 0 0.36 0.2 0 0.38 0.2 0 0.4 0.2 0 0.42 0.2 0 0.44 0.2 0 0.46 0.2 0 0.48 0.2 0 0.5 0.2 0 0.52 0.2 0 0.54 0.2 0 0.56 0.2 0 0.58 0.2 0 0.6 0.2 0 0.62 0.2 0 0.64 0.2 0 0.66 0.2 0 0.68 0.2 0 0.7 0.2 0 0.72 0.2 0 0.74 0.2 0 0.76 0.2 0 0.78 0.2 0 0.8 0.2 0 0.82 0.2 0 0.84 0.2 0 0.86 0.2 0 0.88 0.2 0 0.9 0.2 0 0.92 0.2 0 0.94 0.2 0 0.96 0.2 0 0.98 0.2 0 1 0.2 0 0 0.22 0 0.02 0.22 0 0.04 0.22 0 0.06 0.22 0 0.08 0.22 0 0.1 0.22 0 0.12 0.22 0 0.14 0.22 0 0.16 0.22 0 0.18 0.22 0 0.2 0.22 0 0.22 0.22 0 0.24 0.22 0 0.26 0.22 0 0.28 0.22 0 0.3 0.22 0 0.32 0.22 0 0.34 0.22 0 0.36 0.22 0 0.38 0.22 0 0.4 0.22 0 0.42 0.22 0 0.44 0.22 0 0.46 0.22 0 0.48 0.22 0 0.5 0.22 0 0.52 0.22 0 0.54 0.22 0 0.56 0.22 0 0.58 0.22 0 0.6 0.22 0 0.62 0.22 0 0.64 0.22 0 0.66 0.22 0 0.68 0.22 0 0.7 0.22 0 0.72 0.22 0 0.74 0.22 0 0.76 0.22 0 0.78 0.22 0 0.8 0.22 0 0.82 0.22 0 0.84 0.22 0 0.86 0.22 0 0.88 0.22 0 0.9 0.22 0 0.92 0.22 0 0.94 0.22 0 0.96 0.22 0 0.98 0.22 0 1 0.22 0 0 0.24 0 0.02 0.24 0 0.04 0.24 0 0.06 0.24 0 0.08 0.24 0 0.1 0.24 0 0.12 0.24 0 0.14 0.24 0 0.16 0.24 0 0.18 0.24 0 0.2 0.24 0 0.22 0.24 0 0.24 0.24 0 0.26 0.24 0 0.28 0.24 0 0.3 0.24 0 0.32 0.24 0 0.34 0.24 0 0.36 0.24 0 0.38 0.24 0 0.4 0.24 0 0.42 0.24 0 0.44 0.24 0 0.46 0.24 0 0.48 0.24 0 0.5 0.24 0 0.52 0.24 0 0.54 0.24 0 0.56 0.24 0 0.58 0.24 0 0.6 0.24 0 0.62 0.24 0 0.64 0.24 0 0.66 0.24 0 0.68 0.24 0 0.7 0.24 0 0.72 0.24 0 0.74 0.24 0 0.76 0.24 0 0.78 0.24 0 0.8 0.24 0 0.82 0.24 0 0.84 0.24 0 0.86 0.24 0 0.88 0.24 0 0.9 0.24 0 0.92 0.24 0 0.94 0.24 0 0.96 0.24 0 0.98 0.24 0 1 0.24 0 0 0.26 0 0.02 0.26 0 0.04 0.26 0 0.06 0.26 0 0.08 0.26 0 0.1 0.26 0 0.12 0.26 0 0.14 0.26 0 0.16 0.26 0 0.18 0.26 0 0.2 0.26 0 0.22 0.26 0 0.24 0.26 0 0.26 0.26 0 0.28 0.26 0 0.3 0.26 0 0.32 0.26 0 0.34 0.26 0 0.36 0.26 0 0.38 0.26 0 0.4 0.26 0 0.42 0.26 0 0.44 0.26 0 0.46 0.26 0 0.48 0.26 0 0.5 0.26 0 0.52 0.26 0 0.54 0.26 0 0.56 0.26 0 0.58 0.26 0 0.6 0.26 0 0.62 0.26 0 0.64 0.26 0 0.66 0.26 0 0.68 0.26 0 0.7 0.26 0 0.72 0.26 0 0.74 0.26 0 0.76 0.26 0 0.78 0.26 0 0.8 0.26 0 0.82 0.26 0 0.84 0.26 0 0.86 0.26 0 0.88 0.26 0 0.9 0.26 0 0.92 0.26 0 0.94 0.26 0 0.96 0.26 0 0.98 0.26 0 1 0.26 0 0 0.28 0 0.02 0.28 0 0.04 0.28 0 0.06 0.28 0 0.08 0.28 0 0.1 0.28 0 0.12 0.28 0 0.14 0.28 0 0.16 0.28 0 0.18 0.28 0 0.2 0.28 0 0.22 0.28 0 0.24 0.28 0 0.26 0.28 0 0.28 0.28 0 0.3 0.28 0 0.32 0.28 0 0.34 0.28 0 0.36 0.28 0 0.38 0.28 0 0.4 0.28 0 0.42 0.28 0 0.44 0.28 0 0.46 0.28 0 0.48 0.28 0 0.5 0.28 0 0.52 0.28 0 0.54 0.28 0 0.56 0.28 0 0.58 0.28 0 0.6 0.28 0 0.62 0.28 0 0.64 0.28 0 0.66 0.28 0 0.68 0.28 0 0.7 0.28 0 0.72 0.28 0 0.74 0.28 0 0.76 0.28 0 0.78 0.28 0 0.8 0.28 0 0.82 0.28 0 0.84 0.28 0 0.86 0.28 0 0.88 0.28 0 0.9 0.28 0 0.92 0.28 0 0.94 0.28 0 0.96 0.28 0 0.98 0.28 0 1 0.28 0 0 0.3 0 0.02 0.3 0 0.04 0.3 0 0.06 0.3 0 0.08 0.3 0 0.1 0.3 0 0.12 0.3 0 0.14 0.3 0 0.16 0.3 0 0.18 0.3 0 0.2 0.3 0 0.22 0.3 0 0.24 0.3 0 0.26 0.3 0 0.28 0.3 0 0.3 0.3 0 0.32 0.3 0 0.34 0.3 0 0.36 0.3 0 0.38 0.3 0 0.4 0.3 0 0.42 0.3 0 0.44 0.3 0 0.46 0.3 0 0.48 0.3 0 0.5 0.3 0 0.52 0.3 0 0.54 0.3 0 0.56 0.3 0 0.58 0.3 0 0.6 0.3 0 0.62 0.3 0 0.64 0.3 0 0.66 0.3 0 0.68 0.3 0 0.7 0.3 0 0.72 0.3 0 0.74 0.3 0 0.76 0.3 0 0.78 0.3 0 0.8 0.3 0 0.82 0.3 0 0.84 0.3 0 0.86 0.3 0 0.88 0.3 0 0.9 0.3 0 0.92 0.3 0 0.94 0.3 0 0.96 0.3 0 0.98 0.3 0 1 0.3 0 0 0.32 0 0.02 0.32 0 0.04 0.32 0 0.06 0.32 0 0.08 0.32 0 0.1 0.32 0 0.12 0.32 0 0.14 0.32 0 0.16 0.32 0 0.18 0.32 0 0.2 0.32 0 0.22 0.32 0 0.24 0.32 0 0.26 0.32 0 0.28 0.32 0 0.3 0.32 0 0.32 0.32 0 0.34 0.32 0 0.36 0.32 0 0.38 0.32 0 0.4 0.32 0 0.42 0.32 0 0.44 0.32 0 0.46 0.32 0 0.48 0.32 0 0.5 0.32 0 0.52 0.32 0 0.54 0.32 0 0.56 0.32 0 0.58 0.32 0 0.6 0.32 0 0.62 0.32 0 0.64 0.32 0 0.66 0.32 0 0.68 0.32 0 0.7 0.32 0 0.72 0.32 0 0.74 0.32 0 0.76 0.32 0 0.78 0.32 0 0.8 0.32 0 0.82 0.32 0 0.84 0.32 0 0.86 0.32 0 0.88 0.32 0 0.9 0.32 0 0.92 0.32 0 0.94 0.
[...]
			<PointData Scalars="VitesseX">
				<DataArray Name="VitesseX" type="Float32" format="ascii">
 0 0 0 0 0 0 0 0 0 0 0 0 0 0 0 0 0 0 0 0 0 0 0 0 0 0 0 0 0 0 0 0 0 0 0 0 0 0 0 0 0 0 0 0 0 0 0 0 0 0 -0 0 -0.000494015 -0.0019685 -0.0044003 -0.00775122 -0.0119685 -0.0169858 -0.0227239 -0.0290923 -0.0359906 -0.0433098 -0.0509344 -0.058743 -0.066613 -0.0744212 -0.0820436 -0.0893597 -0.0962541 -0.102618 -0.108351 -0.113362 -0.117573 -0.120918 -0.123357 -0.12481 -0.125297 -0.1248 -0.123296 -0.12085 -0.117488 -0.113261 -0.108238 -0.102498 -0.0961306 -0.0892367 -0.0819247 -0.0743097 -0.0665123 -0.0586538 -0.0508572 -0.0432459 -0.0359397 -0.0290536 -0.022696 -0.0169669 -0.0119568 -0.00774463 -0.00439713 -0.00196713 -0.000493823 -5.36136e-27 0 -0.000980555 -0.00390888 -0.00874079 -0.0154022 -0.0237897 -0.033772 -0.045192 -0.0578695 -0.0716037 -0.0861767 -0.101357 -0.116899 -0.132558 -0.148088 -0.16324 -0.177772 -0.191454 -0.204067 -0.215414 -0.225313 -0.233611 -0.240176 -0.244959 -0.247732 -0.248606 -0.247566 -0.244483 -0.239561 -0.232828 -0.224393 -0.214389 -0.202974 -0.19033 -0.176653 -0.16216 -0.147075 -0.131639 -0.116087 -0.10066 -0.0856019 -0.0711479 -0.0575243 -0.0449446 -0.0336062 -0.023688 -0.0153469 -0.00871555 -0.00389959 -0.000979312 -1.0639e-26 0 -0.0014518 -0.00578931 -0.012949 -0.0228231 -0.0352597 -0.0500649 -0.0670065 -0.0858165 -0.106196 -0.127821 -0.150346 -0.173403 -0.196626 -0.219654 -0.242111 -0.263638 -0.283891 -0.302547 -0.31931 -0.333916 -0.346134 -0.355776 -0.362797 -0.366779 -0.367974 -0.366362 -0.361671 -0.354296 -0.344251 -0.3317 -0.316843 -0.299916 -0.281185 -0.260945 -0.23951 -0.217216 -0.194414 -0.171449 -0.14867 -0.126438 -0.1051 -0.0849862 -0.0664115 -0.0496667 -0.0350157 -0.0226907 -0.0128888 -0.00576749 -0.00144889 -1.57498e-26 0 -0.00190035 -0.00758039 -0.0169594 -0.0298987 -0.0462009 -0.0656133 -0.0878315 -0.112504 -0.139238 -0.167606 -0.197153 -0.22739 -0.257839 -0.288025 -0.317449 -0.34564 -0.372144 -0.396537 -0.418433 -0.437484 -0.453391 -0.46591 -0.475015 -0.480075 -0.481511 -0.479301 -0.473006 -0.463239 -0.449994 -0.433486 -0.413981 -0.39179 -0.367261 -0.340779 -0.312755 -0.283623 -0.253845 -0.223863 -0.194127 -0.16511 -0.137259 -0.111006 -0.0867582 -0.0648952 -0.0457612 -0.0296602 -0.0168513 -0.00754148 -0.00189517 -2.06128e-26 0 -0.00231914 -0.00925386 -0.0207087 -0.0365173 -0.0564409 -0.0801719 -0.107339 -0.137511 -0.170208 -0.204904 -0.241039 -0.278011 -0.315232 -0.352122 -0.388067 -0.422485 -0.454821 -0.484557 -0.511218 -0.534383 -0.553689 -0.568839 -0.579836 -0.585829 -0.587424 -0.584594 -0.576731 -0.564673 -0.548388 -0.528145 -0.504271 -0.477147 -0.4472 -0.414897 -0.380739 -0.345251 -0.308995 -0.272503 -0.236315 -0.201007 -0.167119 -0.135173 -0.105664 -0.0790517 -0.0557553 -0.0361459 -0.0205406 -0.00919379 -0.00231116 -2.51509e-26 0 -0.00270158 -0.0107833 -0.0241378 -0.0425747 -0.0658182 -0.0935114 -0.125221 -0.160445 -0.198619 -0.239128 -0.281315 -0.324469 -0.367904 -0.41094 -0.452854 -0.492965 -0.530623 -0.565222 -0.596207 -0.62309 -0.645449 -0.662943 -0.675604 -0.682377 -0.684044 -0.680577 -0.671213 -0.656999 -0.637885 -0.614188 -0.586293 -0.554646 -0.519746 -0.482135 -0.442394 -0.401131 -0.358998 -0.316604 -0.274572 -0.233566 -0.19421 -0.157109 -0.122832 -0.0919139 -0.0648411 -0.0420458 -0.0238989 -0.0106986 -0.00269033 -2.92921e-26 0 -0.00304163 -0.0121447 -0.0271927 -0.0479754 -0.0741854 -0.105422 -0.141197 -0.180944 -0.224025 -0.269741 -0.317348 -0.366037 -0.41503 -0.463558 -0.510798 -0.555979 -0.598364 -0.637268 -0.672068 -0.702213 -0.727232 -0.746745 -0.760812 -0.768201 -0.769852 -0.765741 -0.754966 -0.738768 -0.71708 -0.690265 -0.658761 -0.623073 -0.583763 -0.54144 -0.496755 -0.450389 -0.403071 -0.355477 -0.308297 -0.262276 -0.218109 -0.176468 -0.137993 -0.10328 -0.0728759 -0.0472674 -0.0268735 -0.0120323 -0.00302676 -3.29705e-26 0 -0.00333396 -0.0133164 -0.0298251 -0.0526344 -0.0814106 -0.115716 -0.155017 -0.198689 -0.246028 -0.296265 -0.348576 -0.402065 -0.455874 -0.509154 -0.560994 -0.610542 -0.656986 -0.699572 -0.737616 -0.770515 -0.797758 -0.818933 -0.834125 -0.841957 -0.843505 -0.83875 -0.82668 -0.808701 -0.784734 -0.755186 -0.720543 -0.681359 -0.638251 -0.591887 -0.542976 -0.492257 -0.440527 -0.388515 -0.336965 -0.286689 -0.23844 -0.192948 -0.150909 -0.112972 -0.0797338 -0.0517289 -0.0294179 -0.0131743 -0.00331518 -3.61277e-26 0 -0.00357396 -0.0142801 -0.0319936 -0.0564783 -0.0873803 -0.124233 -0.166463 -0.213399 -0.264284 -0.318285 -0.374512 -0.431993 -0.489802 -0.54702 -0.602662 -0.655806 -0.705576 -0.751162 -0.791829 -0.826932 -0.855927 -0.87838 -0.894398 -0.902493 -0.903852 -0.898462 -0.885235 -0.865705 -0.839793 -0.807941 -0.770676 -0.728597 -0.682365 -0.632693 -0.580337 -0.526085 -0.470784 -0.415203 -0.36013 -0.306425 -0.254887 -0.206292 -0.161378 -0.120837 -0.0853075 -0.0553603 -0.0314922 -0.0141067 -0.0035511 -3.87135e-26 0 -0.00375785 -0.0150206 -0.0336641 -0.0594466 -0.0920006 -0.130838 -0.175356 -0.224846 -0.278507 -0.335457 -0.394751 -0.455354 -0.516284 -0.576566 -0.635153 -0.691067 -0.743381 -0.791238 -0.833865 -0.870586 -0.900836 -0.924162 -0.940693 -0.948867 -0.949952 -0.94395 -0.929718 -0.908894 -0.881399 -0.847709 -0.808383 -0.764054 -0.715418 -0.663224 -0.608261 -0.551349 -0.493373 -0.435128 -0.377431 -0.321176 -0.267195 -0.216293 -0.169238 -0.126754 -0.0895097 -0.0581049 -0.0330639 -0.014815 -0.00373083 -4.06866e-26 0 -0.00388274 -0.0155261 -0.0348102 -0.0614926 -0.0951988 -0.135427 -0.181556 -0.23285 -0.288476 -0.347514 -0.408977 -0.471785 -0.53491 -0.597334 -0.657964 -0.715778 -0.769812 -0.819177 -0.863071 -0.900801 -0.931785 -0.955568 -0.972293 -0.980356 -0.981089 -0.974708 -0.959821 -0.938127 -0.909558 -0.874612 -0.833874 -0.788005 -0.737726 -0.683813 -0.627079 -0.568366 -0.508585 -0.448547 -0.389087 -0.331121 -0.275498 -0.223045 -0.17455 -0.130757 -0.092354 -0.0599633 -0.0341282 -0.0152944 -0.00385239 -4.20156e-26 0 -0.00394762 -0.0157961 -0.0354377 -0.0626378 -0.0970239 -0.138091 -0.185205 -0.237615 -0.294464 -0.354805 -0.417619 -0.48179 -0.546252 -0.609955 -0.671766 -0.730631 -0.785558 -0.83563 -0.880032 -0.918056 -0.94912 -0.972771 -0.989173 -0.996716 -0.996779 -0.989456 -0.973557 -0.950835 -0.921239 -0.885288 -0.843583 -0.796796 -0.745656 -0.690939 -0.633458 -0.574054 -0.513632 -0.452998 -0.392979 -0.334487 -0.278367 -0.22544 -0.176495 -0.132278 -0.0934806 -0.060733 -0.0345903 -0.015513 -0.00391065 -4.26795e-26 0 -0.00394768 -0.0157969 -0.0354417 -0.0626498 -0.0970513 -0.138143 -0.185294 -0.237752 -0.294659 -0.355064 -0.417943 -0.482174 -0.546686 -0.610422 -0.672245 -0.731099 -0.785991 -0.83601 -0.880343 -0.918291 -0.949279 -0.972863 -0.989214 -0.996725 -0.996781 -0.989425 -0.97346 -0.950646 -0.920941 -0.884876 -0.843065 -0.796187 -0.744982 -0.690229 -0.632746 -0.57337 -0.513005 -0.452445 -0.392516 -0.334117 -0.278088 -0.225243 -0.176366 -0.132201 -0.09344 -0.060715 -0.0345842 -0.0155117 -0.00391056 -4.26677e-26 0 -0.00388974 -0.0155814 -0.0349929 -0.061913 -0.0959897 -0.136733 -0.183519 -0.235601 -0.29212 -0.35212 -0.414568 -0.478337 -0.542337 -0.605506 -0.666691 -0.72483 -0.77892 -0.828049 -0.871406 -0.908299 -0.938169 -0.960593 -0.975763 -0.982129 -0.981091 -0.973072 -0.956636 -0.933535 -0.903751 -0.86782 -0.826354 -0.780025 -0.729558 -0.675712 -0.61928 -0.561071 -0.501956 -0.442698 -0.384091 -0.327 -0.272232 -0.220573 -0.172781 -0.129576 -0.0916362 -0.0595802 -0.0339611 -0.0152437 -0.00384592 -4.19804e-26 0 -0.00376755 -0.0150975 -0.0339195 -0.060037 -0.0931157 -0.132685 -0.178144 -0.228765 -0.28371 -0.342045 -0.402758 -0.46474 -0.526923 -0.58826 -0.647624 -0.703973 -0.756332 -0.803814 -0.845636 -0.881135 -0.909778 -0.93117 -0.945511 -0.951316 -0.949955 -0.941567 -0.925061 -0.902153 -0.872843 -0.837669 -0.797232 -0.75219 -0.703245 -0.65113 -0.596602 -0.540433 -0.483449 -0.426373 -0.369958 -0.315019 -0.262322 -0.212612 -0.16661 -0.125006 -0.0884497 -0.057541 -0.0328188 -0.0147409 -0.00372143 -4.06287e-26 0 -0.00358726 -0.0143857 -0.0323439 -0.0572881 -0.08891 -0.126768 -0.170288 -0.218776 -0.271423 -0.327324 -0.385499 -0.444871 -0.504399 -0.563063 -0.61977 -0.67351 -0.723341 -0.76841 -0.807971 -0.841396 -0.868188 -0.887988 -0.901003 -0.905851 -0.903856 -0.895168 -0.878796 -0.856386 -0.827967 -0.794064 -0.755264 -0.712199 -0.665539 -0.615976 -0.564222 -0.510995 -0.457065 -0.4031 -0.349798 -0.297912 -0.24815 -0.201203 -0.157744 -0.11842 -0.0838415 -0.0545805 -0.0311531 -0.0140042 -0.00353809 -3.86342e-26 0 -0.00335065 -0.0134488 -0.0302645 -0.0536502 -0.0833292 -0.118895 -0.159814 -0.205431 -0.25498 -0.3076 -0.362353 -0.418212 -0.474177 -0.529269 -0.582443 -0.632737 -0.679256 -0.721194 -0.757851 -0.788647 -0.813129 -0.830978 -0.842406 -0.846168 -0.84351 -0.834595 -0.818559 -0.796948 -0.769818 -0.737681 -0.701099 -0.66067 -0.61702 -0.570791 -0.522636 -0.473211 -0.42321 -0.373238 -0.323923 -0.275943 -0.229935 -0.186524 -0.146322 -0.10992 -0.0778837 -0.0507447 -0.02899 -0.0130449 -0.00329876 -3.60286e-26 0 -0.00306144 -0.0123018 -0.027714 -0.0491803 -0.076461 -0.109192 -0.146886 -0.188938 -0.234638 -0.283178 -0.333679 -0.385176 -0.436725 -0.487399 -0.53622 -0.582286 -0.624761 -0.662898 -0.696055 -0.723708 -0.745456 -0.761028 -0.770634 -0.773195 -0.769857 -0.760791 -0.74529 -0.724763 -0.699302 -0.669397 -0.635578 -0.598401 -0.558439 -0.516273 -0.472487 -0.427662 -0.382405 -0.337247 -0.292733 -0.249453 -0.20796 -0.168803 -0.132521 -0.0996396 -0.0706692 -0.0460937 -0.0263633 -0.011878 -0.00300717 -3.28535e-26 0 -0.00272419 -0.0109626 -0.0247326 -0.0439491 -0.0684133 -0.0978097 -0.131706 -0.169557 -0.210714 -0.254441 -0.299924 -0.346277 -0.392624 -0.438105 -0.481821 -0.52294 -0.560702 -0.594428 -0.623545 -0.647591 -0.666225 -0.679229 -0.686805 -0.688074 -0.684048 -0.67491 -0.660133 -0.640959 -0.617518 -0.590275 -0.55972 -0.52636 -0.490706 -0.45327 -0.414555 -0.375057 -0.335286 -0.295686 -0.256713 -0.218853 -0.182567 -0.148316 -0.116556 -0.0877393 -0.0623109 -0.0407002 -0.0233141 -0.0105217 -0.00266789 -2.91596e-26 0 -0.0023442 -0.00945247 -0.0213673 -0.0380388 -0.059313 -0.084928 -0.114513 -0.14759 -0.183585 -0.221837 -0.261617 -0.302123 -0.342565 -0.382157 -0.420093 -0.455628 -0.488081 -0.516857 -0.541456 -0.561488 -0.576678 -0.586863 -0.592237 -0.592137 -0.587428 -0.578299 -0.564422 -0.546846 -0.525746 -0.501553 -0.474712 -0.445673 -0.414879 -0.382763 -0.349742 -0.316216 -0.282587 -0.249206 -0.216426 -0.184622 -0.154154 -0.125384 -0.0986777 -0.0744057 -0.05294 -0.034649 -0.0198902 -0.00899707 -0.00228621 -2.50054e-26 0 -0.00192746 -0.00779515 -0.0176713 -0.0315428 -0.0493036 -0.0707499 -0.0955775 -0.123384 -0.153677 -0.185881 -0.219359 -0.253408 -0.287332 -0.320434 -0.352008 -0.381406 -0.40804 -0.431402 -0.451077 -0.466753 -0.478221 -0.485383 -0.488417 -0.486894 -0.481515 -0.472477 -0.459659 -0.443903 -0.425427 -0.404623 -0.381887 -0.357605 -0.332147 -0.305859 -0.279064 -0.252061 -0.225135 -0.198536 -0.172504 -0.147298 -0.123167 -0.100367 -0.0791672 -0.0598482 -0.0427036 -0.028035 -0.0161452 -0.00732797 -0.0018681 -2.04571e-26 0 -0.00148053 -0.00601682 -0.0137029 -0.0245635 -0.0385431 -0.0554991 -0.075199 -0.0973214 -0.121461 -0.147139 -0.173817 -0.200901 -0.227798 -0.253908 -0.27864 -0.301446 -0.321841 -0.339413 -0.353836 -0.364879 -0.372409 -0.376389 -0.376986 -0.374002 -0.367977 -0.359118 -0.347495 -0.333751 -0.318139 -0.30101 -0.282705 -0.263543 -0.243813 -0.22377 -0.203636 -0.183604 -0.163836 -0.144475 -0.125641 -0.10747 -0.0900944 -0.0736601 -0.0583317 -0.0442962 -0.031763 -0.0209622 -0.0121382 -0.00554049 -0.00142012 -1.55867e-26 0 -0.00101046 -0.00414555 -0.00952471 -0.0172113 -0.0272015 -0.0394167 -0.0536997 -0.0698141 -0.0874487 -0.106226 -0.125714 -0.145434 -0.164905 -0.183634 -0.201149 -0.217014 -0.23085 -0.242346 -0.251271 -0.25748 -0.260916 -0.261605 -0.259713 -0.255246 -0.248609 -0.240016 -0.2297 -0.218129 -0.205576 -0.192351 -0.178734 -0.164972 -0.151271 -0.137791 -0.12465 -0.111927 -0.09966 -0.0878788 -0.0765774 -0.0657673 -0.0554595 -0.045685 -0.0365006 -0.0279951 -0.0202908 -0.0135422 -0.00793199 -0.00366267 -0.000949301 -1.04715e-26 0 -0.00052465 -0.00221086 -0.00520271 -0.00960222 -0.0154581 -0.0227573 -0.03142 -0.0412983 -0.0521789 -0.0637899 -0.075813 -0.0878872 -0.0996525 -0.110729 -0.120769 -0.129452 -0.136512 -0.141742 -0.145011 -0.146259 -0.145508 -0.142849 -0.13846 -0.132506 -0.125298 -0.117064 -0.108139 -0.0988648 -0.0895202 -0.0803648 -0.0716191 -0.0634549 -0.0559905 -0.0492888 -0.0433597 -0.0381676 -0.033627 -0.0296468 -0.0260936 -0.0228525 -0.0198117 -0.0168849 -0.0140193 -0.0112028 -0.00846791 -0.00589184 -0.00359295 -0.00172397 -0.000463039 -5.19224e-27 0 -3.07753e-05 -0.000243397 -0.000805649 -0.00185793 -0.00350158 -0.00578972 -0.00872124 -0.0122383 -0.0162279 -0.0205269 -0.024932 -0.0292062 -0.0331108 -0.0363866 -0.0388148 -0.0401915 -0.040365 -0.0392378 -0.0367754 -0.0330096 -0.0280377 -0.0220185 -0.015166 -0.00773001 -6.48267e-09 0.00773001 0.0151661 0.0220187 0.0280378 0.0330096 0.0367753 0.0392377 0.040365 0.0401915 0.0388148 0.0363866 0.0331108 0.0292062 0.024932 0.0205269 0.0162279 0.0122383 0.00872124 0.00578972 0.00350158 0.00185793 0.000805649 0.000243397 3.07753e-05 1.67583e-28 0 0.000463039 0.00172397 0.00359295 0.00589184 0.00846791 0.0112028 0.0140193 0.0168849 0.0198117 0.0228525 0.0260936 0.0296468 0.033627 0.0381676 0.0433597 0.0492888 0.0559905 0.0634549 0.0716191 0.0803648 0.0895201 0.0988647 0.108139 0.117064 0.125298 0.132507 0.138462 0.142852 0.14551 0.146262 0.145012 0.141743 0.136512 0.129452 0.120769 0.110729 0.0996525 0.0878872 0.075813 0.0637899 0.0521789 0.0412983 0.03142 0.0227573 0.0154581 0.00960222 0.00520271 0.00221086 0.00052465 5.52346e-27 0 0.000949301 0.00366267 0.00793199 0.0135422 0.0202908 0.0279951 0.0365006 0.045685 0.0554595 0.0657673 0.0765774 0.0878788 0.09966 0.111927 0.12465 0.137791 0.151271 0.164972 0.178734 0.192351 0.205576 0.218129 0.2297 0.240016 0.248609 0.255247 0.259715 0.261608 0.260918 0.257484 0.251274 0.242347 0.230851 0.217015 0.201149 0.183634 0.164905 0.145434 0.125714 0.106226 0.0874487 0.0698141 0.0536997 0.0394167 0.0272015 0.0172113 0.00952471 0.00414555 0.00101046 1.07911e-26 0 0.00142012 0.00554049 0.0121382 0.0209622 0.031763 0.0442962 0.0583317 0.0736601 0.0900944 0.10747 0.125641 0.144475 0.163836 0.183604 0.203636 0.22377 0.243813 0.263543 0.282705 0.30101 0.318139 0.333751 0.347495 0.359118 0.367977 0.374001 0.376984 0.376385 0.372405 0.364874 0.353834 0.339414 0.321843 0.301447 0.27864 0.253908 0.227798 0.200901 0.173817 0.147139 0.121461 0.0973214 0.075199 0.0554991 0.0385431 0.0245635 0.0137029 0.00601682 0.00148053 1.58875e-26 0 0.0018681 0.00732797 0.0161452 0.028035 0.0427036 0.0598482 0.0791672 0.100367 0.123167 0.147298 0.172504 0.198536 0.225135 0.252061 0.279064 0.305859 0.332147 0.357605 0.381887 0.404623 0.425427 0.443905 0.459659 0.472478 0.481514 0.486891 0.48841 0.485372 0.478209 0.466741 0.451069 0.431399 0.40804 0.381408 0.352009 0.320434 0.287332 0.253408 0.219359 0.185881 0.153677 0.123384 0.0955775 0.0707499 0.0493036 0.0315428 0.0176713 0.00779515 0.00192746 2.07328e-26 0 0.00228621 0.00899707 0.0198902 0.034649 0.05294 0.0744057 0.0986777 0.125384 0.154154 0.184622 0.216426 0.249206 0.282587 0.316216 0.349742 0.382763 0.414879 0.445673 0.474713 0.501555 0.525749 0.546849 0.564422 0.578299 0.587427 0.592135 0.592231 0.586853 0.576667 0.561481 0.541447 0.516849 0.488078 0.455627 0.420094 0.382157 0.342565 0.302123 0.261617 0.221837 0.183585 0.14759 0.114513 0.084928 0.059313 0.0380388 0.0213673 0.00945247 0.0023442 2.52509e-26 0 0.00266789 0.0105217 0.0233141 0.0407002 0.0623109 0.0877393 0.116556 0.148316 0.182567 0.218853 0.256713 0.295686 0.335286 0.375057 0.414555 0.45327 0.490706 0.52636 0.559723 0.59028 0.617522 0.640961 0.660134 0.67491 0.684047 0.688072 0.686801 0.679222 0.666218 0.647585 0.623538 0.594423 0.560698 0.522937 0.48182 0.438106 0.392624 0.346277 0.299924 0.254441 0.210714 0.169557 0.131706 0.0978097 0.0684133 0.0439491 0.0247326 0.0109626 0.00272419 2.93711e-26 0 0.00300717 0.011878 0.0263633 0.0460937 0.0706692 0.0996396 0.132521 0.168803 0.20796 0.249453 0.292733 0.337247 0.382405 0.427662 0.472487 0.516273 0.558439 0.598402 0.635582 0.669402 0.699305 0.724765 0.745291 0.760791 0.769857 0.773194 0.770632 0.761024 0.74545 0.723701 0.69605 0.662895 0.624759 0.582283 0.536218 0.487399 0.436725 0.385176 0.333679 0.283178 0.234638 0.188938 0.146886 0.109192 0.076461 0.0491803 0.027714 0.0123018 0.00306144 3.30289e-26 0 0.00329876 0.0130449 0.02899 0.0507447 0.0778837 0.10992 0.146322 0.186524 0.229935 0.275943 0.323923 0.373238 0.42321 0.473211 0.522636 0.570791 0.61702 0.660673 0.701103 0.737683 0.76982 0.796948 0.818558 0.834594 0.84351 0.846167 0.842406 0.830977 0.813128 0.788644 0.757847 0.721192 0.679256 0.632736 0.582441 0.529268 0.474177 0.418213 0.362353 0.3076 0.25498 0.205431 0.159814 0.118895 0.0833292 0.0536502 0.0302645 0.0134488 0.00335065 3.6167e-26 0 0.00353809 0.0140042 0.0311531 0.0545805 0.0838415 0.11842 0.157744 0.201203 0.24815 0.297912 0.349798 0.4031 0.457065 0.510995 0.564222 0.615976 0.66554 0.712203 0.755265 0.794064 0.827967 0.856386 0.878795 0.895168 0.903856 0.905851 0.901003 0.887988 0.868188 0.841395 0.807968 0.768408 0.72334 0.673509 0.619769 0.563063 0.504399 0.444871 0.385499 0.327324 0.271423 0.218776 0.170288 0.126768 0.08891 0.0572881 0.0323439 0.0143857 0.00358726 3.87364e-26 0 0.00372143 0.0147409 0.0328188 0.057541 0.0884497 0.125006 0.16661 0.212612 0.262322 0.315019 0.369958 0.426373 0.483449 0.540433 0.596602 0.651131 0.703246 0.752191 0.797232 0.837668 0.872843 0.902152 0.925061 0.941567 0.949955 0.951316 0.945511 0.93117 0.909778 0.881134 0.845635 0.803812 0.756332 0.703972 0.647623 0.58826 0.526924 0.464741 0.402758 0.342045 0.28371 0.228765 0.178144 0.132685 0.0931157 0.060037 0.0339195 0.0150975 0.00376755 4.06971e-26 0 0.00384592 0.0152437 0.0339611 0.0595802 0.0916362 0.129576 0.172781 0.220573 0.272232 0.327 0.384091 0.442698 0.501956 0.561071 0.61928 0.675713 0.729558 0.780025 0.826353 0.86782 0.90375 0.933535 0.956635 0.973072 0.981091 0.982129 0.975763 0.960593 0.938169 0.908299 0.871406 0.828048 0.778921 0.724829 0.66669 0.605506 0.542337 0.478337 0.414568 0.35212 0.29212 0.235601 0.183519 0.136733 0.0959897 0.061913 0.0349929 0.0155814 0.00388974 4.20184e-26 0 0.00391056 0.0155117 0.0345842 0.060715 0.09344 0.132201 0.176366 0.225243 0.278088 0.334117 0.392516 0.452445 0.513005 0.57337 0.632746 0.69023 0.744982 0.796186 0.843064 0.884876 0.920941 0.950646 0.97346 0.989425 0.996781 0.996725 0.989214 0.972863 0.949279 0.918291 0.880342 0.836009 0.785991 0.731098 0.672243 0.610422 0.546687 0.482175 0.417943 0.355064 0.294659 0.237752 0.185294 0.138143 0.0970513 0.0626498 0.0354417 0.0157969 0.00394768 4.26795e-26 0 0.00391065 0.015513 0.0345903 0.060733 0.0934806 0.132278 0.176495 0.22544 0.278367 0.334487 0.392979 0.452998 0.513632 0.574054 0.633458 0.690939 0.745656 0.796795 0.843583 0.885287 0.921238 0.950835 0.973557 0.989456 0.996779 0.996716 0.989173 0.972771 0.94912 0.918056 0.880031 0.835629 0.785558 0.73063 0.671765 0.609955 0.546252 0.481791 0.417619 0.354805 0.294464 0.237615 0.185205 0.138091 0.0970239 0.0626378 0.0354377 0.0157961 0.00394762 4.26703e-26 0 0.00385239 0.0152944 0.0341282 0.0599633 0.092354 0.130757 0.17455 0.223045 0.275498 0.331121 0.389087 0.448547 0.508585 0.568366 0.627079 0.683814 0.737727 0.788004 0.833873 0.874611 0.909558 0.938127 0.959821 0.974708 0.981089 0.980356 0.972293 0.955568 0.931785 0.9008 0.86307 0.819176 0.769812 0.715777 0.657963 0.597334 0.53491 0.471785 0.408977 0.347514 0.288476 0.23285 0.181556 0.135427 0.0951988 0.0614926 0.0348102 0.0155261 0.00388274 4.19907e-26 0 0.00373083 0.014815 0.0330639 0.0581049 0.0895097 0.126754 0.169238 0.216293 0.267195 0.321176 0.377431 0.435128 0.493373 0.551349 0.608261 0.663225 0.715419 0.764053 0.808382 0.847708 0.881398 0.908893 0.929718 0.94395 0.949952 0.948867 0.940693 0.924162 0.900835 0.870586 0.833863 0.791237 0.74338 0.691065 0.635152 0.57656