<?xml version="1.0"?>
<VTKFile type="PolyData">
	<PolyData>
		<Piece NumberOfPoints="2601" NumberOfPolys="2500">
			<Points>
				<DataArray type="Float32" NumberOfComponents="3" format="ascii">
 0 0 0 0.02 0 0 0.04 0 0 0.06 0 0 0.08 0 0 0.1 0 0 0.12 0 0 0.14 0 0 0.16 0 0 0.18 0 0 0.2 0 0 0.22 0 0 0.24 0 0 0.26 0 0 0.28 0 0 0.3 0 0 0.32 0 0 0.34 0 0 0.36 0 0 0.38 0 0 0.4 0 0 0.42 0 0 0.44 0 0 0.46 0 0 0.48 0 0 0.5 0 0 0.52 0 0 0.54 0 0 0.56 0 0 0.58 0 0 0.6 0 0 0.62 0 0 0.64 0 0 0.66 0 0 0.68 0 0 0.7 0 0 0.72 0 0 0.74 0 0 0.76 0 0 0.78 0 0 0.8 0 0 0.82 0 0 0.84 0 0 0.86 0 0 0.88 0 0 0.9 0 0 0.92 0 0 0.94 0 0 0.96 0 0 0.98 0 0 1 0 0 0 0.02 0 0.02 0.02 0 0.04 0.02 0 0.06 0.02 0 0.08 0.02 0 0.1 0.02 0 0.12 0.02 0 0.14 0.02 0 0.16 0.02 0 0.18 0.02 0 0.2 0.02 0 0.22 0.02 0 0.24 0.02 0 0.26 0.02 0 0.28 0.02 0 0.3 0.02 0 0.32 0.02 0 0.34 0.02 0 0.36 0.02 0 0.38 0.02 0 0.4 0.02 0 0.42 0.02 0 0.44 0.02 0 0.46 0.02 0 0.48 0.02 0 0.5 0.02 0 0.52 0.02 0 0.54 0.02 0 0.56 0.02 0 0.58 0.02 0 0.6 0.02 0 0.62 0.02 0 0.64 0.02 0 0.66 0.02 0 0.68 0.02 0 0.7 0.02 0 0.72 0.02 0 0.74 0.02 0 0.76 0.02 0 0.78 0.02 0 0.8 0.02 0 0.82 0.02 0 0.84 0.02 0 0.86 0.02 0 0.88 0.02 0 0.9 0.02 0 0.92 0.02 0 0.94 0.02 0 0.96 0.02 0 0.98 0.02 0 1 0.02 0 0 0.04 0 0.02 0.04 0 0.04 0.04 0 0.06 0.04 0 0.08 0.04 0 0.1 0.04 0 0.12 0.04 0 0.14 0.04 0 0.16 0.04 0 0.18 0.04 0 0.2 0.04 0 0.22 0.04 0 0.24 0.04 0 0.26 0.04 0 0.28 0.04 0 0.3 0.04 0 0.32 0.04 0 0.34 0.04 0 0.36 0.04 0 0.38 0.04 0 0.4 0.04 0 0.42 0.04 0 0.44 0.04 0 0.46 0.04 0 0.48 0.04 0 0.5 0.04 0 0.52 0.04 0 0.54 0.04 0 0.56 0.04 0 0.58 0.04 0 0.6 0.04 0 0.62 0.04 0 0.64 0.04 0 0.66 0.04 0 0.68 0.04 0 0.7 0.04 0 0.72 0.04 0 0.74 0.04 0 0.76 0.04 0 0.78 0.04 0 0.8 0.04 0 0.82 0.04 0 0.84 0.04 0 0.86 0.04 0 0.88 0.04 0 0.9 0.04 0 0.92 0.04 0 0.94 0.04 0 0.96 0.04 0 0.98 0.04 0 1 0.04 0 0 0.06 0 0.02 0.06 0 0.04 0.06 0 0.06 0.06 0 0.08 0.06 0 0.1 0.06 0 0.12 0.06 0 0.14 0.06 0 0.16 0.06 0 0.18 0.06 0 0.2 0.06 0 0.22 0.06 0 0.24 0.06 0 0.26 0.06 0 0.28 0.06 0 0.3 0.06 0 0.32 0.06 0 0.34 0.06 0 0.36 0.06 0 0.38 0.06 0 0.4 0.06 0 0.42 0.06 0 0.44 0.06 0 0.46 0.06 0 0.48 0.06 0 0.5 0.06 0 0.52 0.06 0 0.54 0.06 0 0.56 0.06 0 0.58 0.06 0 0.6 0.06 0 0.62 0.06 0 0.64 0.06 0 0.66 0.06 0 0.68 0.06 0 0.7 0.06 0 0.72 0.06 0 0.74 0.06 0 0.76 0.06 0 0.78 0.06 0 0.8 0.06 0 0.82 0.06 0 0.84 0.06 0 0.86 0.06 0 0.88 0.06 0 0.9 0.06 0 0.92 0.06 0 0.94 0.06 0 0.96 0.06 0 0.98 0.06 0 1 0.06 0 0 0.08 0 0.02 0.08 0 0.04 0.08 0 0.06 0.08 0 0.08 0.08 0 0.1 0.08 0 0.12 0.08 0 0.14 0.08 0 0.16 0.08 0 0.18 0.08 0 0.2 0.08 0 0.22 0.08 0 0.24 0.08 0 0.26 0.08 0 0.28 0.08 0 0.3 0.08 0 0.32 0.08 0 0.34 0.08 0 0.36 0.08 0 0.38 0.08 0 0.4 0.08 0 0.42 0.08 0 0.44 0.08 0 0.46 0.08 0 0.48 0.08 0 0.5 0.08 0 0.52 0.08 0 0.54 0.08 0 0.56 0.08 0 0.58 0.08 0 0.6 0.08 0 0.62 0.08 0 0.64 0.08 0 0.66 0.08 0 0.68 0.08 0 0.7 0.08 0 0.72 0.08 0 0.74 0.08 0 0.76 0.08 0 0.78 0.08 0 0.8 0.08 0 0.82 0.08 0 0.84 0.08 0 0.86 0.08 0 0.88 0.08 0 0.9 0.08 0 0.92 0.08 0 0.94 0.08 0 0.96 0.08 0 0.98 0.08 0 1 0.08 0 0 0.1 0 0.02 0.1 0 0.04 0.1 0 0.06 0.1 0 0.08 0.1 0 0.1 0.1 0 0.12 0.1 0 0.14 0.1 0 0.16 0.1 0 0.18 0.1 0 0.2 0.1 0 0.22 0.1 0 0.24 0.1 0 0.26 0.1 0 0.28 0.1 0 0.3 0.1 0 0.32 0.1 0 0.34 0.1 0 0.36 0.1 0 0.38 0.1 0 0.4 0.1 0 0.42 0.1 0 0.44 0.1 0 0.46 0.1 0 0.48 0.1 0 0.5 0.1 0 0.52 0.1 0 0.54 0.1 0 0.56 0.1 0 0.58 0.1 0 0.6 0.1 0 0.62 0.1 0 0.64 0.1 0 0.66 0.1 0 0.68 0.1 0 0.7 0.1 0 0.72 0.1 0 0.74 0.1 0 0.76 0.1 0 0.78 0.1 0 0.8 0.1 0 0.82 0.1 0 0.84 0.1 0 0.86 0.1 0 0.88 0.1 0 0.9 0.1 0 0.92 0.1 0 0.94 0.1 0 0.96 0.1 0 0.98 0.1 0 1 0.1 0 0 0.12 0 0.02 0.12 0 0.04 0.12 0 0.06 0.12 0 0.08 0.12 0 0.1 0.12 0 0.12 0.12 0 0.14 0.12 0 0.16 0.12 0 0.18 0.12 0 0.2 0.12 0 0.22 0.12 0 0.24 0.12 0 0.26 0.12 0 0.28 0.12 0 0.3 0.12 0 0.32 0.12 0 0.34 0.12 0 0.36 0.12 0 0.38 0.12 0 0.4 0.12 0 0.42 0.12 0 0.44 0.12 0 0.46 0.12 0 0.48 0.12 0 0.5 0.12 0 0.52 0.12 0 0.54 0.12 0 0.56 0.12 0 0.58 0.12 0 0.6 0.12 0 0.62 0.12 0 0.64 0.12 0 0.66 0.12 0 0.68 0.12 0 0.7 0.12 0 0.72 0.12 0 0.74 0.12 0 0.76 0.12 0 0.78 0.12 0 0.8 0.12 0 0.82 0.12 0 0.84 0.12 0 0.86 0.12 0 0.88 0.12 0 0.9 0.12 0 0.92 0.12 0 0.94 0.12 0 0.96 0.12 0 0.98 0.12 0 1 0.12 0 0 0.14 0 0.02 0.14 0 0.04 0.14 0 0.06 0.14 0 0.08 0.14 0 0.1 0.14 0 0.12 0.14 0 0.14 0.14 0 0.16 0.14 0 0.18 0.14 0 0.2 0.14 0 0.22 0.14 0 0.24 0.14 0 0.26 0.14 0 0.28 0.14 0 0.3 0.14 0 0.32 0.14 0 0.34 0.14 0 0.36 0.14 0 0.38 0.14 0 0.4 0.14 0 0.42 0.14 0 0.44 0.14 0 0.46 0.14 0 0.48 0.14 0 0.5 0.14 0 0.52 0.14 0 0.54 0.14 0 0.56 0.14 0 0.58 0.14 0 0.6 0.14 0 0.62 0.14 0 0.64 0.14 0 0.66 0.14 0 0.68 0.14 0 0.7 0.14 0 0.72 0.14 0 0.74 0.14 0 0.76 0.14 0 0.78 0.14 0 0.8 0.14 0 0.82 0.14 0 0.84 0.14 0 0.86 0.14 0 0.88 0.14 0 0.9 0.14 0 0.92 0.14 0 0.94 0.14 0 0.96 0.14 0 0.98 0.14 0 1 0.14 0 0 0.16 0 0.02 0.16 0 0.04 0.16 0 0.06 0.16 0 0.08 0.16 0 0.1 0.16 0 0.12 0.16 0 0.14 0.16 0 0.16 0.16 0 0.18 0.16 0 0.2 0.16 0 0.22 0.16 0 0.24 0.16 0 0.26 0.16 0 0.28 0.16 0 0.3 0.16 0 0.32 0.16 0 0.34 0.16 0 0.36 0.16 0 0.38 0.16 0 0.4 0.16 0 0.42 0.16 0 0.44 0.16 0 0.46 0.16 0 0.48 0.16 0 0.5 0.16 0 0.52 0.16 0 0.54 0.16 0 0.56 0.16 0 0.58 0.16 0 0.6 0.16 0 0.62 0.16 0 0.64 0.16 0 0.66 0.16 0 0.68 0.16 0 0.7 0.16 0 0.72 0.16 0 0.74 0.16 0 0.76 0.16 0 0.78 0.16 0 0.8 0.16 0 0.82 0.16 0 0.84 0.16 0 0.86 0.16 0 0.88 0.16 0 0.9 0.16 0 0.92 0.16 0 0.94 0.16 0 0.96 0.16 0 0.98 0.16 0 1 0.16 0 0 0.18 0 0.02 0.18 0 0.04 0.18 0 0.06 0.18 0 0.08 0.18 0 0.1 0.18 0 0.12 0.18 0 0.14 0.18 0 0.16 0.18 0 0.18 0.18 0 0.2 0.18 0 0.22 0.18 0 0.24 0.18 0 0.26 0.18 0 0.28 0.18 0 0.3 0.18 0 0.32 0.18 0 0.34 0.18 0 0.36 0.18 0 0.38 0.18 0 0.4 0.18 0 0.42 0.18 0 0.44 0.18 0 0.46 0.18 0 0.48 0.18 0 0.5 0.18 0 0.52 0.18 0 0.54 0.18 0 0.56 0.18 0 0.58 0.18 0 0.6 0.18 0 0.62 0.18 0 0.64 0.18 0 0.66 0.18 0 0.68 0.18 0 0.7 0.18 0 0.72 0.18 0 0.74 0.18 0 0.76 0.18 0 0.78 0.18 0 0.8 0.18 0 0.82 0.18 0 0.84 0.18 0 0.86 0.18 0 0.88 0.18 0 0.9 0.18 0 0.92 0.18 0 0.94 0.18 0 0.96 0.18 0 0.98 0.18 0 1 0.18 0 0 0.2 0 0.02 0.2 0 0.04 0.2 0 0.06 0.2 0 0.08 0.2 0 0.1 0.2 0 0.12 0.2 0 0.14 0.2 0 0.16 0.2 0 0.18 0.2 0 0.2 0.2 0 0.22 0.2 0 0.24 0.2 0 0.26 0.2 0 0.28 0.2 0 0.3 0.2 0 0.32 0.2 0 0.34 0.2 0 0.36 0.2 0 0.38 0.2 0 0.4 0.2 0 0.42 0.2 0 0.44 0.2 0 0.46 0.2 0 0.48 0.2 0 0.5 0.2 0 0.52 0.2 0 0.54 0.2 0 0.56 0.2 0 0.58 0.2 0 0.6 0.2 0 0.62 0.2 0 0.64 0.2 0 0.66 0.2 0 0.68 0.2 0 0.7 0.2 0 0.72 0.2 0 0.74 0.2 0 0.76 0.2 0 0.78 0.2 0 0.8 0.2 0 0.82 0.2 0 0.84 0.2 0 0.86 0.2 0 0.88 0.2 0 0.9 0.2 0 0.92 0.2 0 0.94 0.2 0 0.96 0.2 0 0.98 0.2 0 1 0.2 0 0 0.22 0 0.02 0.22 0 0.04 0.22 0 0.06 0.22 0 0.08 0.22 0 0.1 0.22 0 0.12 0.22 0 0.14 0.22 0 0.16 0.22 0 0.18 0.22 0 0.2 0.22 0 0.22 0.22 0 0.24 0.22 0 0.26 0.22 0 0.28 0.22 0 0.3 0.22 0 0.32 0.22 0 0.34 0.22 0 0.36 0.22 0 0.38 0.22 0 0.4 0.22 0 0.42 0.22 0 0.44 0.22 0 0.46 0.22 0 0.48 0.22 0 0.5 0.22 0 0.52 0.22 0 0.54 0.22 0 0.56 0.22 0 0.58 0.22 0 0.6 0.22 0 0.62 0.22 0 0.64 0.22 0 0.66 0.22 0 0.68 0.22 0 0.7 0.22 0 0.72 0.22 0 0.74 0.22 0 0.76 0.22 0 0.78 0.22 0 0.8 0.22 0 0.82 0.22 0 0.84 0.22 0 0.86 0.22 0 0.88 0.22 0 0.9 0.22 0 0.92 0.22 0 0.94 0.22 0 0.96 0.22 0 0.98 0.22 0 1 0.22 0 0 0.24 0 0.02 0.24 0 0.04 0.24 0 0.06 0.24 0 0.08 0.24 0 0.1 0.24 0 0.12 0.24 0 0.14 0.24 0 0.16 0.24 0 0.18 0.24 0 0.2 0.24 0 0.22 0.24 0 0.24 0.24 0 0.26 0.24 0 0.28 0.24 0 0.3 0.24 0 0.32 0.24 0 0.34 0.24 0 0.36 0.24 0 0.38 0.24 0 0.4 0.24 0 0.42 0.24 0 0.44 0.24 0 0.46 0.24 0 0.48 0.24 0 0.5 0.24 0 0.52 0.24 0 0.54 0.24 0 0.56 0.24 0 0.58 0.24 0 0.6 0.24 0 0.62 0.24 0 0.64 0.24 0 0.66 0.24 0 0.68 0.24 0 0.7 0.24 0 0.72 0.24 0 0.74 0.24 0 0.76 0.24 0 0.78 0.24 0 0.8 0.24 0 0.82 0.24 0 0.84 0.24 0 0.86 0.24 0 0.88 0.24 0 0.9 0.24 0 0.92 0.24 0 0.94 0.24 0 0.96 0.24 0 0.98 0.24 0 1 0.24 0 0 0.26 0 0.02 0.26 0 0.04 0.26 0 0.06 0.26 0 0.08 0.26 0 0.1 0.26 0 0.12 0.26 0 0.14 0.26 0 0.16 0.26 0 0.18 0.26 0 0.2 0.26 0 0.22 0.26 0 0.24 0.26 0 0.26 0.26 0 0.28 0.26 0 0.3 0.26 0 0.32 0.26 0 0.34 0.26 0 0.36 0.26 0 0.38 0.26 0 0.4 0.26 0 0.42 0.26 0 0.44 0.26 0 0.46 0.26 0 0.48 0.26 0 0.5 0.26 0 0.52 0.26 0 0.54 0.26 0 0.56 0.26 0 0.58 0.26 0 0.6 0.26 0 0.62 0.26 0 0.64 0.26 0 0.66 0.26 0 0.68 0.26 0 0.7 0.26 0 0.72 0.26 0 0.74 0.26 0 0.76 0.26 0 0.78 0.26 0 0.8 0.26 0 0.82 0.26 0 0.84 0.26 0 0.86 0.26 0 0.88 0.26 0 0.9 0.26 0 0.92 0.26 0 0.94 0.26 0 0.96 0.26 0 0.98 0.26 0 1 0.26 0 0 0.28 0 0.02 0.28 0 0.04 0.28 0 0.06 0.28 0 0.08 0.28 0 0.1 0.28 0 0.12 0.28 0 0.14 0.28 0 0.16 0.28 0 0.18 0.28 0 0.2 0.28 0 0.22 0.28 0 0.24 0.28 0 0.26 0.28 0 0.28 0.28 0 0.3 0.28 0 0.32 0.28 0 0.34 0.28 0 0.36 0.28 0 0.38 0.28 0 0.4 0.28 0 0.42 0.28 0 0.44 0.28 0 0.46 0.28 0 0.48 0.28 0 0.5 0.28 0 0.52 0.28 0 0.54 0.28 0 0.56 0.28 0 0.58 0.28 0 0.6 0.28 0 0.62 0.28 0 0.64 0.28 0 0.66 0.28 0 0.68 0.28 0 0.7 0.28 0 0.72 0.28 0 0.74 0.28 0 0.76 0.28 0 0.78 0.28 0 0.8 0.28 0 0.82 0.28 0 0.84 0.28 0 0.86 0.28 0 0.88 0.28 0 0.9 0.28 0 0.92 0.28 0 0.94 0.28 0 0.96 0.28 0 0.98 0.28 0 1 0.28 0 0 0.3 0 0.02 0.3 0 0.04 0.3 0 0.06 0.3 0 0.08 0.3 0 0.1 0.3 0 0.12 0.3 0 0.14 0.3 0 0.16 0.3 0 0.18 0.3 0 0.2 0.3 0 0.22 0.3 0 0.24 0.3 0 0.26 0.3 0 0.28 0.3 0 0.3 0.3 0 0.32 0.3 0 0.34 0.3 0 0.36 0.3 0 0.38 0.3 0 0.4 0.3 0 0.42 0.3 0 0.44 0.3 0 0.46 0.3 0 0.48 0.3 0 0.5 0.3 0 0.52 0.3 0 0.54 0.3 0 0.56 0.3 0 0.58 0.3 0 0.6 0.3 0 0.62 0.3 0 0.64 0.3 0 0.66 0.3 0 0.68 0.3 0 0.7 0.3 0 0.72 0.3 0 0.74 0.3 0 0.76 0.3 0 0.78 0.3 0 0.8 0.3 0 0.82 0.3 0 0.84 0.3 0 0.86 0.3 0 0.88 0.3 0 0.9 0.3 0 0.92 0.3 0 0.94 0.3 0 0.96 0.3 0 0.98 0.3 0 1 0.3 0 0 0.32 0 0.02 0.32 0 0.04 0.32 0 0.06 0.32 0 0.08 0.32 0 0.1 0.32 0 0.12 0.32 0 0.14 0.32 0 0.16 0.32 0 0.18 0.32 0 0.2 0.32 0 0.22 0.32 0 0.24 0.32 0 0.26 0.32 0 0.28 0.32 0 0.3 0.32 0 0.32 0.32 0 0.34 0.32 0 0.36 0.32 0 0.38 0.32 0 0.4 0.32 0 0.42 0.32 0 0.44 0.32 0 0.46 0.32 0 0.48 0.32 0 0.5 0.32 0 0.52 0.32 0 0.54 0.32 0 0.56 0.32 0 0.58 0.32 0 0.6 0.32 0 0.62 0.32 0 0.64 0.32 0 0.66 0.32 0 0.68 0.32 0 0.7 0.32 0 0.72 0.32 0 0.74 0.32 0 0.76 0.32 0 0.78 0.32 0 0.8 0.32 0 0.82 0.32 0 0.84 0.32 0 0.86 0.32 0 0.88 0.32 0 0.9 0.32 0 0.92 0.32 0 0.94 0.
[...]
			<PointData Scalars="VitesseX">
				<DataArray Name="VitesseX" type="Float32" format="ascii">
 0 0 0 0 0 0 0 0 0 0 0 0 0 0 0 0 0 0 0 0 0 0 0 0 0 0 0 0 0 0 0 0 0 0 0 0 0 0 0 0 0 0 0 0 0 0 0 0 0 0 -0 0 -0.000471151 -0.00187739 -0.00419661 -0.0073924 -0.0114144 -0.0161994 -0.0216718 -0.0277454 -0.0343242 -0.0413045 -0.0485761 -0.0560232 -0.0635289 -0.0709756 -0.0782451 -0.0852226 -0.0917979 -0.0978672 -0.103335 -0.108115 -0.112131 -0.115321 -0.117646 -0.119034 -0.119498 -0.119025 -0.117591 -0.115259 -0.112053 -0.108023 -0.103233 -0.0977581 -0.0916856 -0.0851107 -0.0781369 -0.0708741 -0.0634372 -0.055942 -0.0485058 -0.0412464 -0.034278 -0.0277102 -0.0216464 -0.0161822 -0.0114037 -0.00738641 -0.00419373 -0.00187613 -0.000470977 -5.11316e-27 0 -0.000935159 -0.00372782 -0.00833576 -0.0146883 -0.0226866 -0.0322055 -0.0430953 -0.055184 -0.0682803 -0.0821763 -0.0966513 -0.111472 -0.126404 -0.141214 -0.155663 -0.169522 -0.18257 -0.1946 -0.205423 -0.214867 -0.222783 -0.229048 -0.233612 -0.236263 -0.237101 -0.236113 -0.233179 -0.228489 -0.222072 -0.21403 -0.204491 -0.193606 -0.181547 -0.168504 -0.15468 -0.140292 -0.125568 -0.110733 -0.0960173 -0.0816532 -0.0678655 -0.0548699 -0.0428701 -0.0320547 -0.0225941 -0.014638 -0.00831281 -0.00371938 -0.000934029 -1.01465e-26 0 -0.00138457 -0.00552101 -0.0123485 -0.0217641 -0.0336227 -0.0477395 -0.0638929 -0.0818274 -0.101259 -0.121877 -0.143353 -0.165337 -0.187481 -0.209439 -0.230853 -0.251382 -0.270697 -0.288491 -0.304482 -0.318417 -0.330078 -0.339282 -0.345985 -0.349797 -0.350948 -0.349419 -0.344959 -0.337936 -0.328365 -0.316402 -0.302238 -0.286098 -0.268235 -0.248931 -0.228486 -0.207219 -0.185468 -0.163559 -0.141827 -0.120618 -0.100261 -0.081072 -0.0633516 -0.0473773 -0.0334008 -0.0216437 -0.0122938 -0.00550117 -0.00138192 -1.50206e-26 0 -0.00181233 -0.0072289 -0.0161724 -0.02851 -0.0440535 -0.0625616 -0.083744 -0.107266 -0.132753 -0.159798 -0.187966 -0.216794 -0.245825 -0.274606 -0.302663 -0.329545 -0.354823 -0.37809 -0.398979 -0.417158 -0.432343 -0.444298 -0.452995 -0.457845 -0.459235 -0.457144 -0.451165 -0.441869 -0.429252 -0.413521 -0.394929 -0.373771 -0.35038 -0.325122 -0.298391 -0.2706 -0.24219 -0.213584 -0.185212 -0.157526 -0.130952 -0.105903 -0.0827678 -0.0619085 -0.0436536 -0.0282932 -0.016074 -0.00719353 -0.00180762 -1.96584e-26 0 -0.0022117 -0.00882455 -0.0197469 -0.0348196 -0.0538143 -0.0764379 -0.102336 -0.131098 -0.162267 -0.19534 -0.229787 -0.265032 -0.300518 -0.335689 -0.369961 -0.402781 -0.43362 -0.461985 -0.487423 -0.509531 -0.527965 -0.542438 -0.552949 -0.558702 -0.560254 -0.557582 -0.55012 -0.538649 -0.523142 -0.503856 -0.481103 -0.455244 -0.426686 -0.395877 -0.363293 -0.329435 -0.294842 -0.26002 -0.225489 -0.191795 -0.159457 -0.128972 -0.100813 -0.0754194 -0.0531911 -0.034482 -0.0195941 -0.00876995 -0.00220445 -2.39863e-26 0 -0.00257639 -0.0102828 -0.0230159 -0.0405933 -0.0627515 -0.0891499 -0.119376 -0.15295 -0.189335 -0.227947 -0.268158 -0.309294 -0.3507 -0.391727 -0.431689 -0.469936 -0.505851 -0.538856 -0.568422 -0.594083 -0.615438 -0.632158 -0.644267 -0.650777 -0.652413 -0.649147 -0.640266 -0.626752 -0.608558 -0.585986 -0.559404 -0.529236 -0.495956 -0.460083 -0.422171 -0.382801 -0.342596 -0.302138 -0.262024 -0.222887 -0.185326 -0.149916 -0.117203 -0.0876977 -0.0618634 -0.0401127 -0.0227988 -0.0102058 -0.00256617 -2.79356e-26 0 -0.00290066 -0.0115806 -0.0259276 -0.0457402 -0.0707242 -0.100497 -0.134595 -0.172477 -0.213535 -0.257104 -0.302477 -0.348885 -0.395585 -0.441844 -0.48688 -0.52996 -0.570383 -0.607497 -0.640706 -0.669486 -0.693388 -0.712046 -0.725511 -0.732624 -0.734261 -0.730397 -0.720187 -0.704794 -0.684157 -0.658622 -0.628605 -0.594586 -0.557102 -0.516734 -0.474104 -0.42986 -0.384703 -0.339276 -0.294243 -0.250313 -0.208153 -0.168406 -0.131682 -0.0985506 -0.0695343 -0.045097 -0.0256377 -0.0114785 -0.00288714 -3.14437e-26 0 -0.0031794 -0.0126976 -0.0284363 -0.0501792 -0.077607 -0.110302 -0.147755 -0.189373 -0.234485 -0.282358 -0.332209 -0.383186 -0.434471 -0.485255 -0.534673 -0.581915 -0.626209 -0.666836 -0.703145 -0.734562 -0.760597 -0.780854 -0.795409 -0.802961 -0.804518 -0.800058 -0.788629 -0.771553 -0.748757 -0.720627 -0.687624 -0.650276 -0.609172 -0.564948 -0.518282 -0.469881 -0.420506 -0.370855 -0.321644 -0.273645 -0.227583 -0.184153 -0.144021 -0.107808 -0.0760834 -0.0493566 -0.0280665 -0.0125684 -0.00316233 -3.44548e-26 0 -0.00340822 -0.0136161 -0.0305025 -0.0538405 -0.0832916 -0.11841 -0.15865 -0.203373 -0.251858 -0.303312 -0.356887 -0.411662 -0.466753 -0.521284 -0.574322 -0.624991 -0.672458 -0.715949 -0.754767 -0.788295 -0.816014 -0.837507 -0.852868 -0.860688 -0.862083 -0.857038 -0.844522 -0.825983 -0.801346 -0.77103 -0.735536 -0.695432 -0.65135 -0.60397 -0.554015 -0.502237 -0.449447 -0.396383 -0.3438 -0.29252 -0.24331 -0.196911 -0.154028 -0.115324 -0.0814081 -0.0528249 -0.030047 -0.0134585 -0.00338744 -3.69209e-26 0 -0.00358352 -0.0143216 -0.0320935 -0.0566664 -0.0876886 -0.124694 -0.167109 -0.214259 -0.265382 -0.319638 -0.376127 -0.43387 -0.491926 -0.549371 -0.605212 -0.658519 -0.708411 -0.754073 -0.794767 -0.82985 -0.858779 -0.881122 -0.896992 -0.904906 -0.90606 -0.900451 -0.886995 -0.867237 -0.841105 -0.809048 -0.771597 -0.729353 -0.682982 -0.633196 -0.58075 -0.526429 -0.471078 -0.415462 -0.360365 -0.306643 -0.255091 -0.20648 -0.161547 -0.120983 -0.0854252 -0.0554475 -0.0315483 -0.0141348 -0.00355897 -3.88029e-26 0 -0.00370255 -0.014803 -0.0331843 -0.0586124 -0.0907289 -0.129055 -0.172998 -0.221859 -0.274845 -0.331081 -0.389628 -0.449461 -0.5096 -0.569079 -0.62686 -0.681977 -0.733511 -0.780614 -0.822526 -0.858582 -0.888226 -0.911021 -0.927097 -0.934925 -0.935763 -0.929807 -0.915737 -0.895165 -0.868021 -0.834777 -0.795988 -0.752282 -0.704347 -0.652921 -0.598783 -0.54274 -0.48566 -0.428324 -0.371536 -0.31617 -0.263043 -0.212944 -0.16663 -0.124811 -0.0881445 -0.0572233 -0.0325648 -0.0145926 -0.00367497 -4.00707e-26 0 -0.0037643 -0.0150595 -0.0337794 -0.059697 -0.0924552 -0.131572 -0.176444 -0.226357 -0.280495 -0.337958 -0.397778 -0.458894 -0.520292 -0.580977 -0.639875 -0.695989 -0.748372 -0.796156 -0.83856 -0.874912 -0.904651 -0.927344 -0.943139 -0.9505 -0.950731 -0.943914 -0.928911 -0.907386 -0.879284 -0.845098 -0.805398 -0.760821 -0.712064 -0.659869 -0.605012 -0.548299 -0.490595 -0.432677 -0.37534 -0.319458 -0.26584 -0.215276 -0.16852 -0.126285 -0.0892337 -0.0579655 -0.0330092 -0.0148022 -0.0037307 -4.07043e-26 0 -0.00376436 -0.0150602 -0.0337828 -0.0597073 -0.0924788 -0.131617 -0.176521 -0.226477 -0.280666 -0.338183 -0.398059 -0.459226 -0.520668 -0.581381 -0.64029 -0.696395 -0.748749 -0.796487 -0.838832 -0.875118 -0.904792 -0.927425 -0.943175 -0.950508 -0.950732 -0.943887 -0.928828 -0.907222 -0.879026 -0.84474 -0.804946 -0.760291 -0.711476 -0.65925 -0.60439 -0.547701 -0.490048 -0.432195 -0.374936 -0.319135 -0.265596 -0.215103 -0.168406 -0.126218 -0.0891979 -0.0579496 -0.0330038 -0.0148011 -0.00373062 -4.06935e-26 0 -0.00370892 -0.0148533 -0.0333503 -0.0589945 -0.0914475 -0.130242 -0.174785 -0.224365 -0.278166 -0.335276 -0.39472 -0.455425 -0.516358 -0.576513 -0.634802 -0.690215 -0.741801 -0.788692 -0.830116 -0.865411 -0.89404 -0.915596 -0.930256 -0.936538 -0.935764 -0.928318 -0.912837 -0.890983 -0.862731 -0.828588 -0.789134 -0.745008 -0.696898 -0.645532 -0.591668 -0.536083 -0.479611 -0.422989 -0.366979 -0.312411 -0.260063 -0.210689 -0.165016 -0.123734 -0.0874894 -0.0568737 -0.0324123 -0.0145463 -0.00366908 -4.00387e-26 0 -0.00359234 -0.0143915 -0.0323255 -0.0572026 -0.088701 -0.126372 -0.169643 -0.217823 -0.270114 -0.325627 -0.383406 -0.442397 -0.501589 -0.559992 -0.61654 -0.670246 -0.720183 -0.765508 -0.805474 -0.839447 -0.866916 -0.887499 -0.901377 -0.907135 -0.906063 -0.898284 -0.882758 -0.861106 -0.833324 -0.799917 -0.761454 -0.71856 -0.671904 -0.622188 -0.570136 -0.516488 -0.462039 -0.407489 -0.353559 -0.301035 -0.250651 -0.203126 -0.159152 -0.119389 -0.0844588 -0.0549334 -0.0313248 -0.0140673 -0.0035504 -3.87502e-26 0 -0.00342031 -0.013712 -0.0308207 -0.054576 -0.0846805 -0.120712 -0.162127 -0.208262 -0.25835 -0.311529 -0.366873 -0.423362 -0.480011 -0.535855 -0.589863 -0.641076 -0.688603 -0.731629 -0.769445 -0.80145 -0.827167 -0.846247 -0.858878 -0.863745 -0.862087 -0.85404 -0.838662 -0.817503 -0.790584 -0.7584 -0.721508 -0.680505 -0.63603 -0.58875 -0.539343 -0.488499 -0.436954 -0.385361 -0.334391 -0.284768 -0.237173 -0.192274 -0.150717 -0.113121 -0.080072 -0.052114 -0.029738 -0.0133651 -0.00337559 -3.68488e-26 0 -0.00319457 -0.0128179 -0.0288356 -0.0511019 -0.0793492 -0.11319 -0.152115 -0.195502 -0.242624 -0.292661 -0.344729 -0.397856 -0.451096 -0.503525 -0.554157 -0.60208 -0.646447 -0.68649 -0.721543 -0.75105 -0.774575 -0.79181 -0.802944 -0.806793 -0.804521 -0.796276 -0.781236 -0.760852 -0.735175 -0.704685 -0.669917 -0.631434 -0.589835 -0.545736 -0.499761 -0.452539 -0.404738 -0.356946 -0.309769 -0.263861 -0.219838 -0.178303 -0.139843 -0.105028 -0.0743977 -0.0484597 -0.0276766 -0.0124506 -0.00314737 -3.43646e-26 0 -0.00291867 -0.0117235 -0.0264013 -0.0468348 -0.0727909 -0.103922 -0.139764 -0.179743 -0.223183 -0.269318 -0.317319 -0.366275 -0.415293 -0.463501 -0.509976 -0.553863 -0.594372 -0.630792 -0.662513 -0.689031 -0.70996 -0.725037 -0.734447 -0.73717 -0.734266 -0.725892 -0.711379 -0.692045 -0.667973 -0.639622 -0.607496 -0.57212 -0.534043 -0.493818 -0.452006 -0.409168 -0.365888 -0.322681 -0.280076 -0.238641 -0.198915 -0.161428 -0.126699 -0.0952355 -0.0675244 -0.0440277 -0.0251729 -0.011338 -0.00286931 -3.13373e-26 0 -0.00259696 -0.0104458 -0.0235564 -0.0418419 -0.0651087 -0.0930544 -0.125268 -0.161231 -0.20033 -0.241864 -0.28507 -0.32911 -0.373159 -0.416407 -0.458007 -0.497176 -0.533189 -0.565405 -0.593277 -0.616363 -0.634333 -0.646972 -0.654458 -0.655961 -0.652418 -0.643989 -0.630183 -0.612153 -0.590019 -0.564217 -0.535213 -0.503481 -0.469517 -0.433803 -0.396822 -0.359062 -0.32101 -0.283099 -0.245772 -0.209499 -0.174731 -0.141914 -0.111491 -0.0838975 -0.0595598 -0.0388874 -0.0222662 -0.0100447 -0.00254574 -2.78151e-26 0 -0.00223449 -0.00900513 -0.0203455 -0.036202 -0.0564235 -0.0807586 -0.108854 -0.140258 -0.174425 -0.21073 -0.248488 -0.286944 -0.325353 -0.36298 -0.399065 -0.432904 -0.463855 -0.491352 -0.51492 -0.534184 -0.548877 -0.558837 -0.564232 -0.564441 -0.560256 -0.551851 -0.538917 -0.522423 -0.502534 -0.479651 -0.454198 -0.426593 -0.397267 -0.366629 -0.335074 -0.303001 -0.270804 -0.238819 -0.207392 -0.17689 -0.147663 -0.120066 -0.0944565 -0.0711916 -0.0506288 -0.0331193 -0.019002 -0.00859085 -0.00218174 -2.38539e-26 0 -0.00183699 -0.00742418 -0.0168195 -0.0300041 -0.0468724 -0.0672281 -0.0907821 -0.117153 -0.145875 -0.176406 -0.208148 -0.24044 -0.272628 -0.304059 -0.334074 -0.362058 -0.387459 -0.409795 -0.42867 -0.443784 -0.454934 -0.462018 -0.46519 -0.464051 -0.459236 -0.450929 -0.439013 -0.424269 -0.40689 -0.38725 -0.365721 -0.342657 -0.318421 -0.293345 -0.26773 -0.241869 -0.216056 -0.190537 -0.165541 -0.141326 -0.118137 -0.0962275 -0.0758631 -0.0573173 -0.0408717 -0.0268142 -0.0154314 -0.00699918 -0.00178299 -1.95167e-26 0 -0.0014107 -0.0057279 -0.0130339 -0.0233459 -0.0366062 -0.0526767 -0.0713366 -0.0922818 -0.115131 -0.139434 -0.164686 -0.190331 -0.215813 -0.240574 -0.264059 -0.285755 -0.305206 -0.32202 -0.335889 -0.346588 -0.353987 -0.358042 -0.358899 -0.356372 -0.350951 -0.342823 -0.332052 -0.319236 -0.304596 -0.288468 -0.271172 -0.252996 -0.234221 -0.215101 -0.195845 -0.176632 -0.157636 -0.139012 -0.120879 -0.103368 -0.0866172 -0.0707739 -0.0560042 -0.0424929 -0.0304421 -0.0200711 -0.0116107 -0.00529458 -0.00135575 -1.48722e-26 0 -0.000962359 -0.00394306 -0.00904852 -0.0163327 -0.0257871 -0.0373344 -0.0508255 -0.0660377 -0.0826804 -0.100399 -0.118792 -0.137411 -0.155809 -0.173529 -0.190129 -0.205204 -0.218398 -0.229418 -0.238044 -0.244135 -0.247631 -0.248551 -0.247041 -0.243103 -0.237105 -0.229242 -0.219723 -0.208983 -0.197271 -0.184866 -0.172043 -0.159027 -0.146004 -0.133138 -0.120551 -0.108316 -0.0964705 -0.085064 -0.0741103 -0.0636173 -0.0536028 -0.0441073 -0.0351932 -0.0269526 -0.0195045 -0.0129963 -0.00759995 -0.00350379 -0.000906721 -9.99405e-27 0 -0.00049902 -0.00209782 -0.00492628 -0.00907517 -0.0145861 -0.021444 -0.0295736 -0.0388369 -0.0490367 -0.0599207 -0.0711927 -0.0825202 -0.093569 -0.103989 -0.113459 -0.121683 -0.128413 -0.133457 -0.136688 -0.138048 -0.137553 -0.135283 -0.131396 -0.12604 -0.119501 -0.111983 -0.103798 -0.0952544 -0.0866067 -0.0780869 -0.0699078 -0.062232 -0.0551647 -0.0487614 -0.0430483 -0.0379995 -0.0335262 -0.0295519 -0.0259794 -0.0227036 -0.0196171 -0.0166499 -0.0137593 -0.0109419 -0.00823143 -0.00570137 -0.00346222 -0.00165492 -0.000442968 -4.95933e-27 0 -2.79979e-05 -0.000221397 -0.000732685 -0.00168925 -0.00318293 -0.00526172 -0.00792515 -0.0111213 -0.014749 -0.0186602 -0.022668 -0.0265576 -0.0301106 -0.0330914 -0.0353007 -0.0365551 -0.0367162 -0.0356948 -0.0334589 -0.0300362 -0.0255155 -0.0200419 -0.0138069 -0.00703757 5.55146e-08 0.00703702 0.0138035 0.0200341 0.0255037 0.0300271 0.0334588 0.0356963 0.0367144 0.0365545 0.0353055 0.0330897 0.0301023 0.0265579 0.0226744 0.0186608 0.0147469 0.0111204 0.00792519 0.00526211 0.00318298 0.00168925 0.000732685 0.000221397 2.79979e-05 1.52428e-28 0 0.000442968 0.00165492 0.00346222 0.00570136 0.00823145 0.0109422 0.0137595 0.016649 0.019616 0.0227024 0.0259836 0.0295564 0.0335203 0.0379922 0.0430505 0.048765 0.0551633 0.062232 0.0699094 0.0780846 0.086598 0.0952467 0.103793 0.111981 0.119499 0.126039 0.131395 0.135279 0.137543 0.138033 0.136682 0.133458 0.128412 0.12168 0.113463 0.103992 0.0935618 0.0825158 0.0711982 0.0599228 0.0490341 0.0388357 0.0295735 0.0214445 0.0145862 0.00907517 0.00492628 0.00209782 0.00049902 5.2606e-27 0 0.000906721 0.00350379 0.00759995 0.0129963 0.0195045 0.0269528 0.0351935 0.0441064 0.0536016 0.0636156 0.0741115 0.0850702 0.0964705 0.108308 0.120547 0.13314 0.146005 0.159024 0.172043 0.184868 0.197267 0.20898 0.219722 0.229239 0.237104 0.243102 0.247041 0.248551 0.247628 0.244122 0.238034 0.229417 0.218398 0.205202 0.190128 0.173532 0.155809 0.137405 0.118793 0.100402 0.0826794 0.0660371 0.0508254 0.0373351 0.0257873 0.0163327 0.00904852 0.00394306 0.000962359 1.02847e-26 0 0.00135575 0.00529458 0.0116107 0.0200711 0.0304421 0.042493 0.0560045 0.0707733 0.0866158 0.103366 0.120878 0.139016 0.157641 0.176629 0.195836 0.215097 0.234222 0.252995 0.271169 0.28847 0.304598 0.319236 0.332055 0.342824 0.350951 0.356371 0.358899 0.358042 0.353987 0.346584 0.335881 0.322017 0.305206 0.285754 0.264055 0.240576 0.215816 0.190326 0.164685 0.139438 0.115133 0.0922818 0.0713368 0.0526778 0.0366067 0.0233459 0.0130339 0.0057279 0.0014107 1.51458e-26 0 0.00178299 0.00699918 0.0154314 0.0268142 0.0408717 0.0573173 0.0758632 0.0962271 0.118135 0.141324 0.16554 0.190537 0.216061 0.241871 0.267724 0.293337 0.318418 0.342657 0.365718 0.387251 0.406892 0.424269 0.439017 0.450933 0.459239 0.464051 0.465191 0.462018 0.454934 0.443783 0.428667 0.409792 0.387459 0.362058 0.334072 0.304059 0.272628 0.240437 0.208144 0.17641 0.145878 0.117153 0.0907825 0.0672296 0.0468731 0.0300041 0.0168195 0.00742418 0.00183699 1.97675e-26 0 0.00218174 0.00859085 0.019002 0.0331193 0.0506288 0.0711916 0.0944565 0.120066 0.147662 0.176888 0.20739 0.238818 0.270805 0.303004 0.335073 0.366623 0.397263 0.426593 0.454197 0.479652 0.502534 0.522423 0.538917 0.551852 0.560258 0.564441 0.564232 0.558836 0.548876 0.534183 0.514916 0.491349 0.463854 0.432904 0.399065 0.362974 0.325351 0.286944 0.248484 0.210735 0.174428 0.140258 0.108855 0.0807607 0.0564245 0.0362021 0.0203455 0.00900513 0.00223449 2.40772e-26 0 0.00254574 0.0100447 0.0222662 0.0388874 0.0595598 0.0838975 0.111491 0.141914 0.17473 0.209498 0.245769 0.283097 0.321009 0.359063 0.396824 0.433801 0.469516 0.503483 0.535214 0.564218 0.590018 0.612151 0.630182 0.643989 0.652416 0.65596 0.654457 0.646971 0.634332 0.616362 0.593274 0.565401 0.533187 0.497175 0.458008 0.4164 0.37316 0.329115 0.285067 0.241871 0.200334 0.161232 0.12527 0.0930573 0.06511 0.041842 0.0235563 0.0104458 0.00259696 2.80075e-26 0 0.00286931 0.011338 0.0251729 0.0440277 0.0675244 0.0952355 0.126699 0.161428 0.198915 0.23864 0.280074 0.322678 0.365887 0.409167 0.452006 0.493817 0.534043 0.572121 0.607497 0.639623 0.667972 0.692044 0.711379 0.725891 0.734265 0.737168 0.734445 0.725036 0.70996 0.689032 0.662514 0.630792 0.59437 0.553862 0.509976 0.463499 0.415303 0.366284 0.317316 0.269326 0.223188 0.179745 0.139768 0.103925 0.0727926 0.0468349 0.0264013 0.0117234 0.00291867 3.14968e-26 0 0.00314737 0.0124506 0.0276766 0.0484597 0.0743977 0.105028 0.139843 0.178303 0.219838 0.263861 0.309768 0.356944 0.404736 0.452536 0.499758 0.545735 0.589835 0.631434 0.669916 0.704686 0.735175 0.760852 0.781236 0.796276 0.804522 0.806793 0.802943 0.79181 0.774576 0.75105 0.721542 0.686491 0.646448 0.60208 0.554158 0.503526 0.45111 0.397868 0.344726 0.292669 0.24263 0.195504 0.152119 0.113194 0.0793511 0.051102 0.0288355 0.0128179 0.00319457 3.44905e-26 0 0.00337559 0.0133651 0.029738 0.052114 0.080072 0.113121 0.150717 0.192274 0.237173 0.284767 0.33439 0.385361 0.436953 0.488494 0.539337 0.588745 0.636025 0.680498 0.7215 0.758393 0.790578 0.817499 0.83866 0.85404 0.862086 0.863744 0.858878 0.846247 0.827166 0.801448 0.769443 0.731629 0.688603 0.641077 0.589865 0.535856 0.480025 0.423374 0.36687 0.311535 0.258354 0.208264 0.162131 0.120717 0.0846825 0.0545762 0.0308207 0.013712 0.00342031 3.69418e-26 0 0.0035504 0.0140673 0.0313248 0.0549334 0.0844588 0.119389 0.159152 0.203126 0.250651 0.301034 0.353559 0.407489 0.46204 0.516487 0.570132 0.622182 0.671897 0.718551 0.761444 0.799908 0.833318 0.861102 0.882756 0.898283 0.906062 0.907135 0.901377 0.887499 0.866916 0.839446 0.805474 0.765508 0.720183 0.670247 0.616542 0.559993 0.501603 0.442407 0.383402 0.32563 0.270118 0.217827 0.169648 0.126377 0.0887029 0.0572027 0.0323254 0.0143915 0.00359234 3.88124e-26 0 0.00366908 0.0145463 0.0324123 0.0568737 0.0874894 0.123734 0.165016 0.210689 0.260063 0.312411 0.366978 0.422989 0.479612 0.536084 0.591668 0.645531 0.696896 0.745005 0.789131 0.828586 0.862729 0.890982 0.912836 0.928318 0.935764 0.936538 0.930256 0.915596 0.89404 0.86541 0.830116 0.788692 0.741801 0.690215 0.634804 0.576507 0.516363 0.45543 0.394713 0.335271 0.278165 0.224371 0.174791 0.130247 0.0914495 0.0589946 0.0333502 0.0148533 0.00370892 4.00732e-26 0 0.00373062 0.0148011 0.0330038 0.0579496 0.0891979 0.126218 0.168406 0.215103 0.265596 0.319135 0.374936 0.432195 0.490048 0.547702 0.604391 0.65925 0.711477 0.760291 0.804946 0.84474 0.879025 0.907222 0.928827 0.943887 0.950732 0.950508 0.943175 0.927425 0.904792 0.875118 0.838833 0.796486 0.748748 0.696395 0.640292 0.581373 0.520666 0.459229 0.39806 0.338186 0.280668 0.226483 0.176527 0.131622 0.0924805 0.0597074 0.0337828 0.0150602 0.00376436 4.07043e-26 0 0.0037307 0.0148022 0.0330092 0.0579655 0.0892337 0.126285 0.16852 0.215276 0.26584 0.319458 0.37534 0.432677 0.490595 0.548299 0.605012 0.659869 0.712065 0.760822 0.805398 0.845098 0.879284 0.907386 0.928911 0.943914 0.950731 0.9505 0.943139 0.927344 0.904652 0.874913 0.838561 0.796155 0.748371 0.695989 0.639877 0.580973 0.520291 0.458893 0.397781 0.337964 0.2805 0.226364 0.176448 0.131575 0.0924563 0.059697 0.0337793 0.0150595 0.0037643 4.06959e-26 0 0.00367497 0.0145926 0.0325648 0.0572233 0.0881445 0.124811 0.16663 0.212944 0.263043 0.31617 0.371536 0.428324 0.48566 0.54274 0.598783 0.652921 0.704346 0.752281 0.795987 0.834776 0.86802 0.895165 0.915737 0.929807 0.935763 0.934925 0.927097 0.911022 0.888227 0.858583 0.822527 0.780614 0.73351 0.681978 0.626861 0.569083 0.509604 0.44946 0.389626 0.33108 0.274849 0.221864 0.173002 0.129057 0.0907294 0.0586124 0.0331843 0.014803 0.00370255 4.0048e-26 0 0.00355897 0.0141348 0.0315483 0.0554475 0.0854252 0.120983 0.161547 0.20648 0.255091 0.306643 0.360365 0.415462 0.471078 0.526429 0.58075 0.633196 0.682982 0.729353 0.771597 0.809048 0.841105 0.867237 0.886995 0.900451 0.90606 0.904906 0.896993 0.881123 0.858781 0.829852 0.79