<?xml version="1.0"?>
<VTKFile type="PolyData">
	<PolyData>
		<Piece NumberOfPoints="2601" NumberOfPolys="2500">
			<Points>
				<DataArray type="Float32" NumberOfComponents="3" format="ascii">
 0 0 0 0.02 0 0 0.04 0 0 0.06 0 0 0.08 0 0 0.1 0 0 0.12 0 0 0.14 0 0 0.16 0 0 0.18 0 0 0.2 0 0 0.22 0 0 0.24 0 0 0.26 0 0 0.28 0 0 0.3 0 0 0.32 0 0 0.34 0 0 0.36 0 0 0.38 0 0 0.4 0 0 0.42 0 0 0.44 0 0 0.46 0 0 0.48 0 0 0.5 0 0 0.52 0 0 0.54 0 0 0.56 0 0 0.58 0 0 0.6 0 0 0.62 0 0 0.64 0 0 0.66 0 0 0.68 0 0 0.7 0 0 0.72 0 0 0.74 0 0 0.76 0 0 0.78 0 0 0.8 0 0 0.82 0 0 0.84 0 0 0.86 0 0 0.88 0 0 0.9 0 0 0.92 0 0 0.94 0 0 0.96 0 0 0.98 0 0 1 0 0 0 0.02 0 0.02 0.02 0 0.04 0.02 0 0.06 0.02 0 0.08 0.02 0 0.1 0.02 0 0.12 0.02 0 0.14 0.02 0 0.16 0.02 0 0.18 0.02 0 0.2 0.02 0 0.22 0.02 0 0.24 0.02 0 0.26 0.02 0 0.28 0.02 0 0.3 0.02 0 0.32 0.02 0 0.34 0.02 0 0.36 0.02 0 0.38 0.02 0 0.4 0.02 0 0.42 0.02 0 0.44 0.02 0 0.46 0.02 0 0.48 0.02 0 0.5 0.02 0 0.52 0.02 0 0.54 0.02 0 0.56 0.02 0 0.58 0.02 0 0.6 0.02 0 0.62 0.02 0 0.64 0.02 0 0.66 0.02 0 0.68 0.02 0 0.7 0.02 0 0.72 0.02 0 0.74 0.02 0 0.76 0.02 0 0.78 0.02 0 0.8 0.02 0 0.82 0.02 0 0.84 0.02 0 0.86 0.02 0 0.88 0.02 0 0.9 0.02 0 0.92 0.02 0 0.94 0.02 0 0.96 0.02 0 0.98 0.02 0 1 0.02 0 0 0.04 0 0.02 0.04 0 0.04 0.04 0 0.06 0.04 0 0.08 0.04 0 0.1 0.04 0 0.12 0.04 0 0.14 0.04 0 0.16 0.04 0 0.18 0.04 0 0.2 0.04 0 0.22 0.04 0 0.24 0.04 0 0.26 0.04 0 0.28 0.04 0 0.3 0.04 0 0.32 0.04 0 0.34 0.04 0 0.36 0.04 0 0.38 0.04 0 0.4 0.04 0 0.42 0.04 0 0.44 0.04 0 0.46 0.04 0 0.48 0.04 0 0.5 0.04 0 0.52 0.04 0 0.54 0.04 0 0.56 0.04 0 0.58 0.04 0 0.6 0.04 0 0.62 0.04 0 0.64 0.04 0 0.66 0.04 0 0.68 0.04 0 0.7 0.04 0 0.72 0.04 0 0.74 0.04 0 0.76 0.04 0 0.78 0.04 0 0.8 0.04 0 0.82 0.04 0 0.84 0.04 0 0.86 0.04 0 0.88 0.04 0 0.9 0.04 0 0.92 0.04 0 0.94 0.04 0 0.96 0.04 0 0.98 0.04 0 1 0.04 0 0 0.06 0 0.02 0.06 0 0.04 0.06 0 0.06 0.06 0 0.08 0.06 0 0.1 0.06 0 0.12 0.06 0 0.14 0.06 0 0.16 0.06 0 0.18 0.06 0 0.2 0.06 0 0.22 0.06 0 0.24 0.06 0 0.26 0.06 0 0.28 0.06 0 0.3 0.06 0 0.32 0.06 0 0.34 0.06 0 0.36 0.06 0 0.38 0.06 0 0.4 0.06 0 0.42 0.06 0 0.44 0.06 0 0.46 0.06 0 0.48 0.06 0 0.5 0.06 0 0.52 0.06 0 0.54 0.06 0 0.56 0.06 0 0.58 0.06 0 0.6 0.06 0 0.62 0.06 0 0.64 0.06 0 0.66 0.06 0 0.68 0.06 0 0.7 0.06 0 0.72 0.06 0 0.74 0.06 0 0.76 0.06 0 0.78 0.06 0 0.8 0.06 0 0.82 0.06 0 0.84 0.06 0 0.86 0.06 0 0.88 0.06 0 0.9 0.06 0 0.92 0.06 0 0.94 0.06 0 0.96 0.06 0 0.98 0.06 0 1 0.06 0 0 0.08 0 0.02 0.08 0 0.04 0.08 0 0.06 0.08 0 0.08 0.08 0 0.1 0.08 0 0.12 0.08 0 0.14 0.08 0 0.16 0.08 0 0.18 0.08 0 0.2 0.08 0 0.22 0.08 0 0.24 0.08 0 0.26 0.08 0 0.28 0.08 0 0.3 0.08 0 0.32 0.08 0 0.34 0.08 0 0.36 0.08 0 0.38 0.08 0 0.4 0.08 0 0.42 0.08 0 0.44 0.08 0 0.46 0.08 0 0.48 0.08 0 0.5 0.08 0 0.52 0.08 0 0.54 0.08 0 0.56 0.08 0 0.58 0.08 0 0.6 0.08 0 0.62 0.08 0 0.64 0.08 0 0.66 0.08 0 0.68 0.08 0 0.7 0.08 0 0.72 0.08 0 0.74 0.08 0 0.76 0.08 0 0.78 0.08 0 0.8 0.08 0 0.82 0.08 0 0.84 0.08 0 0.86 0.08 0 0.88 0.08 0 0.9 0.08 0 0.92 0.08 0 0.94 0.08 0 0.96 0.08 0 0.98 0.08 0 1 0.08 0 0 0.1 0 0.02 0.1 0 0.04 0.1 0 0.06 0.1 0 0.08 0.1 0 0.1 0.1 0 0.12 0.1 0 0.14 0.1 0 0.16 0.1 0 0.18 0.1 0 0.2 0.1 0 0.22 0.1 0 0.24 0.1 0 0.26 0.1 0 0.28 0.1 0 0.3 0.1 0 0.32 0.1 0 0.34 0.1 0 0.36 0.1 0 0.38 0.1 0 0.4 0.1 0 0.42 0.1 0 0.44 0.1 0 0.46 0.1 0 0.48 0.1 0 0.5 0.1 0 0.52 0.1 0 0.54 0.1 0 0.56 0.1 0 0.58 0.1 0 0.6 0.1 0 0.62 0.1 0 0.64 0.1 0 0.66 0.1 0 0.68 0.1 0 0.7 0.1 0 0.72 0.1 0 0.74 0.1 0 0.76 0.1 0 0.78 0.1 0 0.8 0.1 0 0.82 0.1 0 0.84 0.1 0 0.86 0.1 0 0.88 0.1 0 0.9 0.1 0 0.92 0.1 0 0.94 0.1 0 0.96 0.1 0 0.98 0.1 0 1 0.1 0 0 0.12 0 0.02 0.12 0 0.04 0.12 0 0.06 0.12 0 0.08 0.12 0 0.1 0.12 0 0.12 0.12 0 0.14 0.12 0 0.16 0.12 0 0.18 0.12 0 0.2 0.12 0 0.22 0.12 0 0.24 0.12 0 0.26 0.12 0 0.28 0.12 0 0.3 0.12 0 0.32 0.12 0 0.34 0.12 0 0.36 0.12 0 0.38 0.12 0 0.4 0.12 0 0.42 0.12 0 0.44 0.12 0 0.46 0.12 0 0.48 0.12 0 0.5 0.12 0 0.52 0.12 0 0.54 0.12 0 0.56 0.12 0 0.58 0.12 0 0.6 0.12 0 0.62 0.12 0 0.64 0.12 0 0.66 0.12 0 0.68 0.12 0 0.7 0.12 0 0.72 0.12 0 0.74 0.12 0 0.76 0.12 0 0.78 0.12 0 0.8 0.12 0 0.82 0.12 0 0.84 0.12 0 0.86 0.12 0 0.88 0.12 0 0.9 0.12 0 0.92 0.12 0 0.94 0.12 0 0.96 0.12 0 0.98 0.12 0 1 0.12 0 0 0.14 0 0.02 0.14 0 0.04 0.14 0 0.06 0.14 0 0.08 0.14 0 0.1 0.14 0 0.12 0.14 0 0.14 0.14 0 0.16 0.14 0 0.18 0.14 0 0.2 0.14 0 0.22 0.14 0 0.24 0.14 0 0.26 0.14 0 0.28 0.14 0 0.3 0.14 0 0.32 0.14 0 0.34 0.14 0 0.36 0.14 0 0.38 0.14 0 0.4 0.14 0 0.42 0.14 0 0.44 0.14 0 0.46 0.14 0 0.48 0.14 0 0.5 0.14 0 0.52 0.14 0 0.54 0.14 0 0.56 0.14 0 0.58 0.14 0 0.6 0.14 0 0.62 0.14 0 0.64 0.14 0 0.66 0.14 0 0.68 0.14 0 0.7 0.14 0 0.72 0.14 0 0.74 0.14 0 0.76 0.14 0 0.78 0.14 0 0.8 0.14 0 0.82 0.14 0 0.84 0.14 0 0.86 0.14 0 0.88 0.14 0 0.9 0.14 0 0.92 0.14 0 0.94 0.14 0 0.96 0.14 0 0.98 0.14 0 1 0.14 0 0 0.16 0 0.02 0.16 0 0.04 0.16 0 0.06 0.16 0 0.08 0.16 0 0.1 0.16 0 0.12 0.16 0 0.14 0.16 0 0.16 0.16 0 0.18 0.16 0 0.2 0.16 0 0.22 0.16 0 0.24 0.16 0 0.26 0.16 0 0.28 0.16 0 0.3 0.16 0 0.32 0.16 0 0.34 0.16 0 0.36 0.16 0 0.38 0.16 0 0.4 0.16 0 0.42 0.16 0 0.44 0.16 0 0.46 0.16 0 0.48 0.16 0 0.5 0.16 0 0.52 0.16 0 0.54 0.16 0 0.56 0.16 0 0.58 0.16 0 0.6 0.16 0 0.62 0.16 0 0.64 0.16 0 0.66 0.16 0 0.68 0.16 0 0.7 0.16 0 0.72 0.16 0 0.74 0.16 0 0.76 0.16 0 0.78 0.16 0 0.8 0.16 0 0.82 0.16 0 0.84 0.16 0 0.86 0.16 0 0.88 0.16 0 0.9 0.16 0 0.92 0.16 0 0.94 0.16 0 0.96 0.16 0 0.98 0.16 0 1 0.16 0 0 0.18 0 0.02 0.18 0 0.04 0.18 0 0.06 0.18 0 0.08 0.18 0 0.1 0.18 0 0.12 0.18 0 0.14 0.18 0 0.16 0.18 0 0.18 0.18 0 0.2 0.18 0 0.22 0.18 0 0.24 0.18 0 0.26 0.18 0 0.28 0.18 0 0.3 0.18 0 0.32 0.18 0 0.34 0.18 0 0.36 0.18 0 0.38 0.18 0 0.4 0.18 0 0.42 0.18 0 0.44 0.18 0 0.46 0.18 0 0.48 0.18 0 0.5 0.18 0 0.52 0.18 0 0.54 0.18 0 0.56 0.18 0 0.58 0.18 0 0.6 0.18 0 0.62 0.18 0 0.64 0.18 0 0.66 0.18 0 0.68 0.18 0 0.7 0.18 0 0.72 0.18 0 0.74 0.18 0 0.76 0.18 0 0.78 0.18 0 0.8 0.18 0 0.82 0.18 0 0.84 0.18 0 0.86 0.18 0 0.88 0.18 0 0.9 0.18 0 0.92 0.18 0 0.94 0.18 0 0.96 0.18 0 0.98 0.18 0 1 0.18 0 0 0.2 0 0.02 0.2 0 0.04 0.2 0 0.06 0.2 0 0.08 0.2 0 0.1 0.2 0 0.12 0.2 0 0.14 0.2 0 0.16 0.2 0 0.18 0.2 0 0.2 0.2 0 0.22 0.2 0 0.24 0.2 0 0.26 0.2 0 0.28 0.2 0 0.3 0.2 0 0.32 0.2 0 0.34 0.2 0 0.36 0.2 0 0.38 0.2 0 0.4 0.2 0 0.42 0.2 0 0.44 0.2 0 0.46 0.2 0 0.48 0.2 0 0.5 0.2 0 0.52 0.2 0 0.54 0.2 0 0.56 0.2 0 0.58 0.2 0 0.6 0.2 0 0.62 0.2 0 0.64 0.2 0 0.66 0.2 0 0.68 0.2 0 0.7 0.2 0 0.72 0.2 0 0.74 0.2 0 0.76 0.2 0 0.78 0.2 0 0.8 0.2 0 0.82 0.2 0 0.84 0.2 0 0.86 0.2 0 0.88 0.2 0 0.9 0.2 0 0.92 0.2 0 0.94 0.2 0 0.96 0.2 0 0.98 0.2 0 1 0.2 0 0 0.22 0 0.02 0.22 0 0.04 0.22 0 0.06 0.22 0 0.08 0.22 0 0.1 0.22 0 0.12 0.22 0 0.14 0.22 0 0.16 0.22 0 0.18 0.22 0 0.2 0.22 0 0.22 0.22 0 0.24 0.22 0 0.26 0.22 0 0.28 0.22 0 0.3 0.22 0 0.32 0.22 0 0.34 0.22 0 0.36 0.22 0 0.38 0.22 0 0.4 0.22 0 0.42 0.22 0 0.44 0.22 0 0.46 0.22 0 0.48 0.22 0 0.5 0.22 0 0.52 0.22 0 0.54 0.22 0 0.56 0.22 0 0.58 0.22 0 0.6 0.22 0 0.62 0.22 0 0.64 0.22 0 0.66 0.22 0 0.68 0.22 0 0.7 0.22 0 0.72 0.22 0 0.74 0.22 0 0.76 0.22 0 0.78 0.22 0 0.8 0.22 0 0.82 0.22 0 0.84 0.22 0 0.86 0.22 0 0.88 0.22 0 0.9 0.22 0 0.92 0.22 0 0.94 0.22 0 0.96 0.22 0 0.98 0.22 0 1 0.22 0 0 0.24 0 0.02 0.24 0 0.04 0.24 0 0.06 0.24 0 0.08 0.24 0 0.1 0.24 0 0.12 0.24 0 0.14 0.24 0 0.16 0.24 0 0.18 0.24 0 0.2 0.24 0 0.22 0.24 0 0.24 0.24 0 0.26 0.24 0 0.28 0.24 0 0.3 0.24 0 0.32 0.24 0 0.34 0.24 0 0.36 0.24 0 0.38 0.24 0 0.4 0.24 0 0.42 0.24 0 0.44 0.24 0 0.46 0.24 0 0.48 0.24 0 0.5 0.24 0 0.52 0.24 0 0.54 0.24 0 0.56 0.24 0 0.58 0.24 0 0.6 0.24 0 0.62 0.24 0 0.64 0.24 0 0.66 0.24 0 0.68 0.24 0 0.7 0.24 0 0.72 0.24 0 0.74 0.24 0 0.76 0.24 0 0.78 0.24 0 0.8 0.24 0 0.82 0.24 0 0.84 0.24 0 0.86 0.24 0 0.88 0.24 0 0.9 0.24 0 0.92 0.24 0 0.94 0.24 0 0.96 0.24 0 0.98 0.24 0 1 0.24 0 0 0.26 0 0.02 0.26 0 0.04 0.26 0 0.06 0.26 0 0.08 0.26 0 0.1 0.26 0 0.12 0.26 0 0.14 0.26 0 0.16 0.26 0 0.18 0.26 0 0.2 0.26 0 0.22 0.26 0 0.24 0.26 0 0.26 0.26 0 0.28 0.26 0 0.3 0.26 0 0.32 0.26 0 0.34 0.26 0 0.36 0.26 0 0.38 0.26 0 0.4 0.26 0 0.42 0.26 0 0.44 0.26 0 0.46 0.26 0 0.48 0.26 0 0.5 0.26 0 0.52 0.26 0 0.54 0.26 0 0.56 0.26 0 0.58 0.26 0 0.6 0.26 0 0.62 0.26 0 0.64 0.26 0 0.66 0.26 0 0.68 0.26 0 0.7 0.26 0 0.72 0.26 0 0.74 0.26 0 0.76 0.26 0 0.78 0.26 0 0.8 0.26 0 0.82 0.26 0 0.84 0.26 0 0.86 0.26 0 0.88 0.26 0 0.9 0.26 0 0.92 0.26 0 0.94 0.26 0 0.96 0.26 0 0.98 0.26 0 1 0.26 0 0 0.28 0 0.02 0.28 0 0.04 0.28 0 0.06 0.28 0 0.08 0.28 0 0.1 0.28 0 0.12 0.28 0 0.14 0.28 0 0.16 0.28 0 0.18 0.28 0 0.2 0.28 0 0.22 0.28 0 0.24 0.28 0 0.26 0.28 0 0.28 0.28 0 0.3 0.28 0 0.32 0.28 0 0.34 0.28 0 0.36 0.28 0 0.38 0.28 0 0.4 0.28 0 0.42 0.28 0 0.44 0.28 0 0.46 0.28 0 0.48 0.28 0 0.5 0.28 0 0.52 0.28 0 0.54 0.28 0 0.56 0.28 0 0.58 0.28 0 0.6 0.28 0 0.62 0.28 0 0.64 0.28 0 0.66 0.28 0 0.68 0.28 0 0.7 0.28 0 0.72 0.28 0 0.74 0.28 0 0.76 0.28 0 0.78 0.28 0 0.8 0.28 0 0.82 0.28 0 0.84 0.28 0 0.86 0.28 0 0.88 0.28 0 0.9 0.28 0 0.92 0.28 0 0.94 0.28 0 0.96 0.28 0 0.98 0.28 0 1 0.28 0 0 0.3 0 0.02 0.3 0 0.04 0.3 0 0.06 0.3 0 0.08 0.3 0 0.1 0.3 0 0.12 0.3 0 0.14 0.3 0 0.16 0.3 0 0.18 0.3 0 0.2 0.3 0 0.22 0.3 0 0.24 0.3 0 0.26 0.3 0 0.28 0.3 0 0.3 0.3 0 0.32 0.3 0 0.34 0.3 0 0.36 0.3 0 0.38 0.3 0 0.4 0.3 0 0.42 0.3 0 0.44 0.3 0 0.46 0.3 0 0.48 0.3 0 0.5 0.3 0 0.52 0.3 0 0.54 0.3 0 0.56 0.3 0 0.58 0.3 0 0.6 0.3 0 0.62 0.3 0 0.64 0.3 0 0.66 0.3 0 0.68 0.3 0 0.7 0.3 0 0.72 0.3 0 0.74 0.3 0 0.76 0.3 0 0.78 0.3 0 0.8 0.3 0 0.82 0.3 0 0.84 0.3 0 0.86 0.3 0 0.88 0.3 0 0.9 0.3 0 0.92 0.3 0 0.94 0.3 0 0.96 0.3 0 0.98 0.3 0 1 0.3 0 0 0.32 0 0.02 0.32 0 0.04 0.32 0 0.06 0.32 0 0.08 0.32 0 0.1 0.32 0 0.12 0.32 0 0.14 0.32 0 0.16 0.32 0 0.18 0.32 0 0.2 0.32 0 0.22 0.32 0 0.24 0.32 0 0.26 0.32 0 0.28 0.32 0 0.3 0.32 0 0.32 0.32 0 0.34 0.32 0 0.36 0.32 0 0.38 0.32 0 0.4 0.32 0 0.42 0.32 0 0.44 0.32 0 0.46 0.32 0 0.48 0.32 0 0.5 0.32 0 0.52 0.32 0 0.54 0.32 0 0.56 0.32 0 0.58 0.32 0 0.6 0.32 0 0.62 0.32 0 0.64 0.32 0 0.66 0.32 0 0.68 0.32 0 0.7 0.32 0 0.72 0.32 0 0.74 0.32 0 0.76 0.32 0 0.78 0.32 0 0.8 0.32 0 0.82 0.32 0 0.84 0.32 0 0.86 0.32 0 0.88 0.32 0 0.9 0.32 0 0.92 0.32 0 0.94 0.
[...]
			<PointData Scalars="VitesseX">
				<DataArray Name="VitesseX" type="Float32" format="ascii">
 0 0 0 0 0 0 0 0 0 0 0 0 0 0 0 0 0 0 0 0 0 0 0 0 0 0 0 0 0 0 0 0 0 0 0 0 0 0 0 0 0 0 0 0 0 0 0 0 0 0 0 0 0.000464768 0.00185141 0.00413846 0.00728908 0.0112535 0.0159691 0.0213614 0.0273453 0.0338267 0.0407035 0.0478674 0.0552059 0.0626024 0.0699416 0.0771089 0.083991 0.0904794 0.0964721 0.101874 0.106601 0.110578 0.113742 0.116043 0.117459 0.117922 0.117469 0.116096 0.113802 0.110654 0.10669 0.101974 0.0965776 0.090588 0.0840991 0.0772134 0.0700397 0.0626911 0.0552844 0.0479354 0.0407597 0.0338715 0.0273794 0.0213859 0.0159857 0.0112639 0.00729489 0.00414126 0.00185263 0.000464938 5.04398e-27 0 0.000921723 0.0036704 0.00820338 0.0144454 0.022297 0.0316334 0.0423069 0.0541493 0.0669746 0.0805818 0.0947578 0.109281 0.123921 0.138453 0.152653 0.166295 0.179168 0.191069 0.201811 0.211224 0.21916 0.225492 0.23012 0.23302 0.233977 0.233173 0.230536 0.226038 0.219854 0.21204 0.202719 0.192038 0.180165 0.167287 0.153611 0.139351 0.124736 0.110001 0.0953756 0.0810916 0.0673788 0.0544554 0.0425262 0.0317802 0.022387 0.0144943 0.00822572 0.00367862 0.000922825 1.00076e-26 0 0.00136373 0.00542879 0.0121321 0.0213593 0.0329624 0.0467559 0.0625214 0.0800104 0.0989489 0.119041 0.139974 0.161423 0.183046 0.204516 0.225506 0.245684 0.264737 0.282366 0.298295 0.312274 0.32408 0.333525 0.340456 0.344871 0.346327 0.345258 0.34144 0.33484 0.325754 0.314243 0.300487 0.284702 0.267139 0.248075 0.227814 0.20668 0.185009 0.163157 0.141461 0.120268 0.0999211 0.0807463 0.0630485 0.0471086 0.0331784 0.0214765 0.0121854 0.00544812 0.00136631 1.48123e-26 0 0.00178383 0.00709898 0.015863 0.0279221 0.0430817 0.0610985 0.0816862 0.104521 0.129245 0.155475 0.182803 0.210808 0.239045 0.26709 0.294522 0.320908 0.345839 0.368927 0.389811 0.408161 0.423687 0.436138 0.445311 0.45124 0.453201 0.451961 0.447065 0.438511 0.426706 0.411713 0.393765 0.373143 0.350174 0.325222 0.298687 0.270995 0.242589 0.213938 0.185487 0.157688 0.130999 0.105848 0.0826366 0.0617341 0.0434708 0.028133 0.0159586 0.00713342 0.00178842 1.93826e-26 0 0.00217545 0.0086548 0.0193372 0.0340305 0.0524959 0.0744353 0.0994997 0.127295 0.157387 0.189309 0.222571 0.25666 0.291035 0.325188 0.358613 0.390781 0.421196 0.449387 0.474914 0.497373 0.516408 0.531711 0.54303 0.550442 0.552911 0.551591 0.545737 0.53541 0.521115 0.502911 0.481079 0.455962 0.427957 0.39751 0.365111 0.331282 0.296567 0.261545 0.226758 0.192763 0.160123 0.129365 0.100982 0.0754261 0.0531019 0.0343587 0.0194857 0.00870793 0.00218252 2.36466e-26 0 0.00253243 0.0100719 0.0225003 0.0395885 0.0610566 0.0865564 0.115681 0.147973 0.18293 0.220011 0.258649 0.298254 0.338197 0.377898 0.416771 0.454204 0.489622 0.522478 0.552261 0.5785 0.600779 0.618734 0.632068 0.6409 0.643886 0.642569 0.635897 0.624008 0.60749 0.586395 0.56105 0.531852 0.499262 0.4638 0.426039 0.38659 0.346092 0.305226 0.264623 0.224938 0.186834 0.150927 0.117795 0.087969 0.0619199 0.0400554 0.0227111 0.0101468 0.0025424 2.75376e-26 0 0.0028492 0.0113282 0.0253026 0.0445086 0.0686293 0.0972712 0.129976 0.166231 0.205472 0.247097 0.290471 0.334936 0.379788 0.424383 0.468072 0.510166 0.550025 0.587034 0.620619 0.650251 0.675455 0.695822 0.711009 0.721171 0.724692 0.723445 0.716119 0.702905 0.684467 0.660851 0.632421 0.599619 0.562966 0.523049 0.480513 0.43605 0.390386 0.344295 0.298489 0.253709 0.210712 0.170194 0.132812 0.0991651 0.0697859 0.0451334 0.025584 0.0114274 0.00286237 3.09946e-26 0 0.0031208 0.012404 0.0277 0.0487137 0.075095 0.106411 0.14216 0.181779 0.224657 0.270139 0.317534 0.366128 0.415153 0.463913 0.511708 0.557788 0.601454 0.642037 0.67891 0.71149 0.739256 0.761754 0.778603 0.789977 0.794054 0.792928 0.785133 0.770851 0.750831 0.725107 0.694068 0.658199 0.61807 0.574326 0.527677 0.478886 0.428753 0.378136 0.327821 0.278624 0.231381 0.186864 0.145796 0.108838 0.0765763 0.0495127 0.028059 0.0125294 0.00313742 3.39635e-26 0 0.00334298 0.0132825 0.0296551 0.0521377 0.0803519 0.113831 0.15204 0.194376 0.240188 0.288779 0.339416 0.391341 0.443738 0.495872 0.547001 0.596328 0.64311 0.686633 0.726224 0.761262 0.791183 0.815495 0.833784 0.84623 0.85088 0.849911 0.841847 0.826766 0.805527 0.778139 0.745013 0.706664 0.663705 0.616826 0.566792 0.514426 0.460592 0.406219 0.352157 0.299289 0.248516 0.200674 0.156543 0.116836 0.0821836 0.0531242 0.0300972 0.0134355 0.0033632 3.63978e-26 0 0.00351227 0.0139502 0.0311372 0.0547269 0.0843174 0.119417 0.159463 0.203825 0.251821 0.302725 0.355774 0.410182 0.465098 0.519759 0.573398 0.625182 0.674337 0.720116 0.761815 0.798778 0.830413 0.856195 0.87568 0.889035 0.894273 0.893488 0.885364 0.869764 0.847682 0.8191 0.784443 0.744245 0.699148 0.649879 0.597243 0.542111 0.485403 0.428105 0.371119 0.315379 0.261847 0.211409 0.164885 0.123033 0.0865194 0.055911 0.0316664 0.0141315 0.00353616 3.82597e-26 0 0.00362676 0.014402 0.0321406 0.0564798 0.0870018 0.123198 0.164484 0.210211 0.259677 0.312135 0.366806 0.422885 0.479501 0.53587 0.591209 0.644662 0.695434 0.742753 0.785893 0.824175 0.856981 0.88376 0.904048 0.918004 0.92359 0.922968 0.915001 0.89917 0.876642 0.847357 0.811746 0.770359 0.723852 0.672975 0.618561 0.561515 0.502799 0.443448 0.384406 0.326644 0.271166 0.218895 0.170688 0.127331 0.0895162 0.0578294 0.0327419 0.0146063 0.00365358 3.95201e-26 0 0.00368178 0.0146091 0.0325795 0.0572129 0.0880776 0.124654 0.166348 0.212509 0.262429 0.315363 0.370535 0.427145 0.484327 0.541293 0.597275 0.651417 0.702926 0.751032 0.795005 0.834163 0.867873 0.895569 0.916771 0.931531 0.938215 0.937948 0.930646 0.915025 0.892604 0.863236 0.82735 0.785498 0.738345 0.686655 0.631283 0.57316 0.513271 0.452682 0.392384 0.333381 0.276706 0.223308 0.174072 0.129804 0.0912143 0.0588965 0.0333277 0.0148589 0.00371444 4.01593e-26 0 0.0036817 0.0146079 0.0325742 0.0571975 0.0880431 0.124588 0.166238 0.21234 0.262189 0.315042 0.370132 0.426667 0.483783 0.540696 0.596649 0.650791 0.702326 0.750485 0.794536 0.833788 0.867594 0.895385 0.916669 0.931493 0.938211 0.937951 0.930672 0.915092 0.892722 0.863413 0.827587 0.785787 0.738677 0.687017 0.631659 0.573538 0.513633 0.453004 0.392652 0.333591 0.276863 0.22342 0.174145 0.129848 0.0912369 0.0589063 0.0333309 0.0148596 0.00371449 4.01675e-26 0 0.00362098 0.0143566 0.0319909 0.0561365 0.0863581 0.122137 0.162889 0.207975 0.256712 0.308381 0.362244 0.417531 0.47342 0.529145 0.583986 0.637122 0.68778 0.735217 0.778725 0.817615 0.851252 0.879071 0.900578 0.915698 0.923281 0.923429 0.917571 0.902948 0.881659 0.853404 0.818589 0.777735 0.731495 0.680634 0.626002 0.568536 0.509224 0.449128 0.389267 0.330647 0.274338 0.221298 0.172407 0.128476 0.0902103 0.0581982 0.0329021 0.0146548 0.00365967 3.95446e-26 0 0.00350386 0.013884 0.0309179 0.0542222 0.0833682 0.117849 0.157099 0.200505 0.24741 0.297132 0.34897 0.402189 0.456022 0.509728 0.562639 0.613966 0.662974 0.708956 0.751228 0.789117 0.822008 0.849348 0.870642 0.885715 0.893854 0.894161 0.888957 0.875059 0.854734 0.827628 0.794124 0.754716 0.710032 0.660812 0.607879 0.552146 0.494581 0.43622 0.378067 0.321099 0.26637 0.214823 0.167322 0.124651 0.0874967 0.0564284 0.0318903 0.014199 0.0035446 3.83003e-26 0 0.00333135 0.0131911 0.0293522 0.0514405 0.0790398 0.111663 0.148772 0.189789 0.234094 0.281056 0.330021 0.380306 0.43121 0.482029 0.532159 0.580857 0.62744 0.671251 0.711633 0.747948 0.779611 0.806083 0.826875 0.841703 0.850355 0.850906 0.846831 0.834085 0.81525 0.789881 0.758333 0.721067 0.678667 0.631848 0.581396 0.528193 0.473177 0.417349 0.361689 0.307144 0.254728 0.205364 0.15989 0.119058 0.0835246 0.0538341 0.0304044 0.0135281 0.00337479 3.64541e-26 0 0.00310613 0.0122887 0.0273182 0.0478348 0.0734408 0.103676 0.138039 0.175995 0.216976 0.260409 0.305697 0.352227 0.399372 0.446483 0.493024 0.538318 0.581744 0.622701 0.660575 0.694775 0.724747 0.749976 0.769988 0.784381 0.793476 0.794296 0.791466 0.78012 0.763119 0.739924 0.710852 0.676328 0.636888 0.593204 0.546017 0.496164 0.444539 0.392095 0.339778 0.288482 0.239181 0.192754 0.149999 0.111628 0.0782596 0.0504037 0.0284446 0.0126457 0.00315199 3.40348e-26 0 0.00283173 0.0111909 0.0248479 0.043462 0.0666592 0.0940137 0.125068 0.159339 0.196322 0.235512 0.27638 0.318394 0.361012 0.403649 0.445853 0.487022 0.52661 0.564077 0.598868 0.630442 0.658288 0.681919 0.700879 0.714772 0.723842 0.725586 0.723522 0.714137 0.699187 0.678551 0.652434 0.621213 0.585359 0.545491 0.502301 0.456564 0.40912 0.360857 0.312676 0.265408 0.219972 0.177186 0.137801 0.102476 0.0717838 0.0461909 0.0260418 0.0115655 0.00287969 3.10804e-26 0 0.00251243 0.00991469 0.0219799 0.0383904 0.0588013 0.0828277 0.110063 0.140083 0.172458 0.206757 0.242532 0.279337 0.316725 0.354205 0.391387 0.427778 0.462907 0.496307 0.527487 0.555968 0.581287 0.602992 0.620656 0.633902 0.642759 0.645681 0.644232 0.637128 0.624467 0.606753 0.584024 0.5566 0.524898 0.489466 0.450938 0.410019 0.367478 0.324128 0.280811 0.238286 0.197399 0.158903 0.123485 0.091746 0.0641992 0.0412621 0.0232339 0.0103046 0.00256219 2.76369e-26 0 0.00215323 0.00848009 0.0187592 0.0326996 0.0499901 0.0702928 0.0932584 0.118531 0.14576 0.174596 0.204683 0.235671 0.267209 0.298925 0.330484 0.361519 0.391639 0.420458 0.447561 0.472533 0.494965 0.514451 0.530599 0.543045 0.551615 0.555661 0.554961 0.550229 0.54012 0.525653 0.506693 0.483506 0.456462 0.426019 0.39274 0.357262 0.320269 0.282488 0.244687 0.207545 0.171823 0.138197 0.10728 0.0796082 0.0556261 0.0356955 0.0200653 0.00888284 0.0022045 2.37582e-26 0 0.00175975 0.00690948 0.0152363 0.0264791 0.0403644 0.0566062 0.0749188 0.0950206 0.116646 0.139533 0.163428 0.18808 0.213245 0.238673 0.2641 0.289285 0.313926 0.337723 0.360344 0.381447 0.40068 0.417685 0.43211 0.443616 0.451879 0.4569 0.457192 0.454825 0.447532 0.436534 0.421646 0.403076 0.381116 0.356145 0.32863 0.299128 0.26824 0.236597 0.204872 0.173669 0.143646 0.115395 0.0894436 0.0662546 0.0461996 0.029579 0.0165858 0.00732275 0.00181224 1.95051e-26 0 0.00133815 0.00522744 0.0114665 0.0198267 0.0300759 0.041984 0.055333 0.0699218 0.0855736 0.102121 0.119415 0.137313 0.155682 0.174387 0.193289 0.212213 0.230988 0.249403 0.267212 0.28415 0.299928 0.314238 0.326767 0.337202 0.34523 0.350609 0.352929 0.352076 0.34824 0.340807 0.330256 0.316599 0.300051 0.280935 0.259613 0.236533 0.212211 0.187179 0.161997 0.137195 0.113316 0.0908561 0.0702569 0.0518952 0.0360681 0.0230089 0.0128503 0.00564889 0.0013916 1.49442e-26 0 0.000895071 0.00346037 0.00750928 0.012847 0.0192864 0.0266563 0.03481 0.0436304 0.0530325 0.0629492 0.0733379 0.0841701 0.0954271 0.107092 0.119139 0.131513 0.144134 0.156891 0.169627 0.182168 0.194286 0.205728 0.216221 0.225473 0.233195 0.239057 0.2429 0.244363 0.243417 0.240007 0.233931 0.225422 0.214559 0.201581 0.186771 0.170465 0.153067 0.135012 0.116742 0.0987003 0.0813108 0.0649698 0.0500229 0.0367579 0.0253924 0.0160889 0.00891777 0.0038877 0.000949207 1.01472e-26 0 0.000437467 0.00163609 0.0034272 0.0056513 0.00816852 0.0108693 0.0136806 0.0165716 0.01955 0.0226521 0.0259443 0.0295132 0.0334586 0.0378814 0.0428692 0.0484819 0.0547482 0.0616555 0.0691478 0.0771202 0.0854208 0.0938513 0.102185 0.110166 0.117517 0.123906 0.129126 0.132932 0.135147 0.135524 0.134198 0.130968 0.125973 0.119338 0.111259 0.101968 0.0917443 0.0809193 0.0698252 0.0587947 0.0481384 0.0381454 0.0290615 0.021082 0.0143413 0.00892834 0.00485034 0.00206698 0.000492029 5.18924e-27 0 -2.72708e-05 -0.000215424 -0.000711879 -0.00164035 -0.00309192 -0.00511344 -0.0077037 -0.0108068 -0.0143217 -0.0181079 -0.0219889 -0.025762 -0.0292087 -0.0321114 -0.0342686 -0.0355041 -0.0356817 -0.0347155 -0.0325672 -0.029261 -0.0248795 -0.0195604 -0.0134829 -0.00687237 1.57225e-06 0.00687439 0.0134902 0.0195761 0.0248869 0.029259 0.0325654 0.0347155 0.0356842 0.0355023 0.0342675 0.0321178 0.0292106 0.0257594 0.0219882 0.0181093 0.0143235 0.0108074 0.00770415 0.00511531 0.00308933 0.00164043 0.000712297 0.000215434 2.72709e-05 1.48418e-28 0 -0.000492029 -0.00206696 -0.00484987 -0.00892839 -0.014344 -0.0210803 -0.0290614 -0.0381452 -0.0481374 -0.0587941 -0.0698264 -0.0809217 -0.0917449 -0.101962 -0.111258 -0.119342 -0.125971 -0.130965 -0.134196 -0.135522 -0.135141 -0.132919 -0.12912 -0.123905 -0.117513 -0.110159 -0.102175 -0.0938348 -0.0854041 -0.0771218 -0.0691494 -0.0616563 -0.0547474 -0.0484819 -0.0428718 -0.0378786 -0.0334553 -0.0295132 -0.0259433 -0.0226503 -0.019548 -0.0165711 -0.01368 -0.010868 -0.00817124 -0.00565111 -0.00342679 -0.00163608 -0.000437467 -4.89589e-27 0 -0.000949207 -0.00388767 -0.00891718 -0.0160889 -0.0253949 -0.0367563 -0.0500233 -0.0649697 -0.0813101 -0.0987003 -0.116744 -0.135013 -0.153069 -0.170463 -0.186768 -0.201585 -0.214561 -0.225413 -0.233918 -0.239997 -0.243404 -0.244351 -0.242894 -0.239059 -0.233197 -0.225472 -0.216224 -0.205715 -0.194267 -0.182165 -0.16963 -0.156893 -0.144136 -0.131513 -0.119141 -0.10709 -0.0954223 -0.0841672 -0.0733355 -0.0629475 -0.053031 -0.0436306 -0.0348094 -0.026655 -0.0192889 -0.0128467 -0.00750889 -0.00346036 -0.000895071 -9.86414e-27 0 -0.0013916 -0.00564883 -0.0128496 -0.0230089 -0.0360699 -0.0518935 -0.0702578 -0.0908559 -0.113315 -0.137195 -0.161998 -0.187179 -0.212213 -0.236534 -0.259608 -0.280934 -0.300057 -0.316599 -0.330253 -0.340794 -0.348225 -0.352073 -0.352927 -0.350612 -0.345236 -0.337217 -0.32679 -0.314237 -0.299912 -0.284145 -0.267215 -0.249406 -0.230991 -0.212212 -0.193288 -0.174385 -0.155674 -0.137308 -0.119412 -0.10212 -0.0855747 -0.0699232 -0.0553328 -0.0419833 -0.0300781 -0.0198263 -0.0114662 -0.00522743 -0.00133815 -1.46779e-26 0 -0.00181224 -0.00732266 -0.0165851 -0.0295791 -0.0462006 -0.0662527 -0.0894451 -0.115394 -0.143645 -0.173668 -0.204872 -0.236598 -0.268243 -0.299131 -0.328629 -0.35614 -0.381115 -0.403081 -0.421655 -0.436535 -0.447533 -0.454828 -0.457192 -0.456897 -0.451883 -0.443633 -0.432133 -0.417695 -0.400684 -0.38145 -0.360343 -0.337724 -0.313929 -0.289284 -0.264099 -0.238671 -0.213236 -0.188074 -0.163427 -0.139529 -0.116645 -0.095022 -0.0749197 -0.0566077 -0.040367 -0.0264787 -0.0152359 -0.00690945 -0.00175975 -1.92609e-26 0 -0.0022045 -0.00888276 -0.0200647 -0.0356957 -0.0556268 -0.0796069 -0.107282 -0.138197 -0.171822 -0.207544 -0.244686 -0.282489 -0.320272 -0.357266 -0.392744 -0.426017 -0.456456 -0.483501 -0.506689 -0.525653 -0.540126 -0.550232 -0.55496 -0.555659 -0.551616 -0.543052 -0.530603 -0.514451 -0.494971 -0.472539 -0.447562 -0.420463 -0.391647 -0.36152 -0.330483 -0.298925 -0.267204 -0.235668 -0.204686 -0.17459 -0.145758 -0.118534 -0.0932608 -0.0702966 -0.0499932 -0.0326992 -0.0187588 -0.00848003 -0.00215323 -2.35408e-26 0 -0.0025622 -0.0103045 -0.0232335 -0.0412621 -0.0641996 -0.0917451 -0.123486 -0.158902 -0.197398 -0.238285 -0.280809 -0.324128 -0.36748 -0.410023 -0.450942 -0.489469 -0.524897 -0.556595 -0.584024 -0.606751 -0.624454 -0.637114 -0.644227 -0.645678 -0.642763 -0.63391 -0.620656 -0.602986 -0.581286 -0.555968 -0.527486 -0.496311 -0.462921 -0.427787 -0.391388 -0.354208 -0.316723 -0.279339 -0.242542 -0.206753 -0.172457 -0.140087 -0.110067 -0.0828337 -0.0588048 -0.03839 -0.0219795 -0.00991459 -0.00251243 -2.74495e-26 0 -0.00287969 -0.0115654 -0.0260415 -0.0461907 -0.0717839 -0.102475 -0.137801 -0.177185 -0.21997 -0.265406 -0.312673 -0.360855 -0.409122 -0.456569 -0.502305 -0.545494 -0.585361 -0.621209 -0.652439 -0.678555 -0.69918 -0.714137 -0.723528 -0.725592 -0.723844 -0.714774 -0.700874 -0.681915 -0.658289 -0.63044 -0.598862 -0.564077 -0.526622 -0.487033 -0.445855 -0.40365 -0.361008 -0.318398 -0.276396 -0.235509 -0.196319 -0.159342 -0.125071 -0.0940197 -0.0666622 -0.0434616 -0.0248475 -0.0111907 -0.00283173 -3.09251e-26 0 -0.00315199 -0.0126457 -0.0284444 -0.0504036 -0.07826 -0.111629 -0.150001 -0.192756 -0.239183 -0.28848 -0.339774 -0.392091 -0.44454 -0.496169 -0.546022 -0.593207 -0.636892 -0.676323 -0.710849 -0.739923 -0.763117 -0.780124 -0.791473 -0.794298 -0.793476 -0.784375 -0.769982 -0.749975 -0.724749 -0.694775 -0.660572 -0.622702 -0.581753 -0.538324 -0.493028 -0.446479 -0.399363 -0.352233 -0.305713 -0.260405 -0.216972 -0.175998 -0.13804 -0.10368 -0.0734428 -0.0478344 -0.0273179 -0.0122886 -0.00310613 -3.39122e-26 0 -0.0033748 -0.0135281 -0.0304043 -0.0538344 -0.0835257 -0.119061 -0.159895 -0.20537 -0.254733 -0.307144 -0.361685 -0.417343 -0.473175 -0.528197 -0.581402 -0.631853 -0.678673 -0.721064 -0.758328 -0.789877 -0.815242 -0.834079 -0.846826 -0.850905 -0.850354 -0.841701 -0.826874 -0.806083 -0.779611 -0.747945 -0.711629 -0.671254 -0.627449 -0.580862 -0.532169 -0.482026 -0.431195 -0.380311 -0.330037 -0.281051 -0.234089 -0.189792 -0.148772 -0.111664 -0.0790407 -0.0514398 -0.0293518 -0.0131909 -0.00333135 -3.63634e-26 0 -0.0035446 -0.014199 -0.0318903 -0.0564288 -0.087498 -0.124654 -0.167327 -0.214828 -0.266377 -0.321103 -0.378063 -0.436213 -0.494576 -0.552148 -0.607886 -0.660819 -0.710039 -0.754718 -0.794121 -0.827626 -0.854731 -0.875056 -0.888955 -0.894161 -0.893854 -0.885714 -0.870642 -0.849347 -0.822005 -0.789111 -0.751224 -0.708962 -0.662981 -0.613973 -0.562657 -0.50973 -0.456008 -0.402192 -0.348986 -0.297122 -0.247397 -0.200507 -0.157098 -0.117849 -0.0833687 -0.0542215 -0.0309175 -0.0138839 -0.00350386 -3.82397e-26 0 -0.00365967 -0.0146548 -0.0329021 -0.0581985 -0.0902111 -0.128477 -0.172409 -0.221299 -0.274344 -0.330654 -0.389267 -0.449122 -0.509216 -0.568535 -0.626009 -0.680643 -0.731503 -0.777738 -0.818588 -0.853406 -0.88166 -0.902948 -0.917572 -0.923429 -0.923281 -0.915699 -0.900578 -0.879071 -0.851249 -0.817611 -0.778727 -0.735225 -0.687788 -0.637132 -0.584004 -0.529145 -0.473407 -0.417532 -0.362258 -0.308362 -0.256692 -0.207977 -0.162888 -0.122138 -0.086359 -0.0561359 -0.0319905 -0.0143565 -0.00362097 -3.9511e-26 0 -0.00371449 -0.0148596 -0.0333309 -0.0589064 -0.0912372 -0.129848 -0.174146 -0.223421 -0.276866 -0.333596 -0.392657 -0.453002 -0.513625 -0.573534 -0.631663 -0.687023 -0.738683 -0.78579 -0.827585 -0.863411 -0.89272 -0.915089 -0.930671 -0.93795 -0.938211 -0.931493 -0.916668 -0.895383 -0.867592 -0.833787 -0.794541 -0.750492 -0.702332 -0.650799 -0.596659 -0.540693 -0.483772 -0.426667 -0.370144 -0.315024 -0.26217 -0.212341 -0.166236 -0.124589 -0.088045 -0.0571974 -0.0325738 -0.0146078 -0.00368169 -4.0157e-26 0 -0.00371444 -0.0148589 -0.0333277 -0.0588965 -0.0912142 -0.129804 -0.174073 -0.22331 -0.276708 -0.333385 -0.39239 -0.452687 -0.513272 -0.573157 -0.631281 -0.686655 -0.738347 -0.7855 -0.82735 -0.863234 -0.892601 -0.915023 -0.930645 -0.937947 -0.938214 -0.931531 -0.91677 -0.895568 -0.867872 -0.834167 -0.795013 -0.751039 -0.702933 -0.651421 -0.597275 -0.541288 -0.48432 -0.427146 -0.370545 -0.31536 -0.262423 -0.212509 -0.166346 -0.124655 -0.0880804 -0.0572133 -0.0325793 -0.0146089 -0.00368178 -4.01675e-26 0 -0.00365358 -0.0146063 -0.0327419 -0.0578293 -0.0895161 -0.127331 -0.170689 -0.218897 -0.271167 -0.326646 -0.384408 -0.443453 -0.502806 -0.56152 -0.618564 -0.672978 -0.723856 -0.770361 -0.811745 -0.847353 -0.876637 -0.899167 -0.915001 -0.922967 -0.923589 -0.918005 -0.90405 -0.883765 -0.856989 -0.824187 -0.785905 -0.742762 -0.695438 -0.644663 -0.591204 -0.535861 -0.479496 -0.422887 -0.366806 -0.312133 -0.259677 -0.210212 -0.164486 -0.123203 -0.0870049 -0.0564802 -0.0321402 -0.0144018 -0.00362676 -3.95422e-26 0 -0.00353616 -0.0141315 -0.0316664 -0.055911 -0.0865195 -0.123033 -0.164884 -0.211408 -0.261848 -0.315381 -0.371119 -0.428106 -0.485406 -0.542116 -0.597251 -0.649889 -0.69916 -0.744254 -0.784443 -0.819096 -0.847677 -0.869759 -0.885361 -0.893487 -0.894273 -0.889036 -0.875684 -0.856201 -0.830422 -0.79879 -0.761826 -0.720124 -0.674339 -0.62518 -0.573389 -0.519749 -0.465096 -0.410184 -0.35577 -0.302721 -0.251823 -0.203826 -0.159471 -0.119426 -0.0843201 -0.0547269 -0.0311367 -0.01395 -0.00351227 -3.8291e-26 0 -0.0033632 -0.0134355 -0.0300972 -0.0531242 -0.0821836 -0.116836 -0.156543 -0.200674 -0.248516 -0.299289 -0.352158 -0.40622 -0.460592 -0.514426 -0.566794 -0.616829 -0.663709 -0.706666 -0.745008 -0.77813 -0.805519 -0.826761 -0.841844 -0.849911 -0