<?xml version="1.0"?>
<VTKFile type="PolyData">
	<PolyData>
		<Piece NumberOfPoints="2601" NumberOfPolys="2500">
			<Points>
				<DataArray type="Float32" NumberOfComponents="3" format="ascii">
 0 0 0 0.02 0 0 0.04 0 0 0.06 0 0 0.08 0 0 0.1 0 0 0.12 0 0 0.14 0 0 0.16 0 0 0.18 0 0 0.2 0 0 0.22 0 0 0.24 0 0 0.26 0 0 0.28 0 0 0.3 0 0 0.32 0 0 0.34 0 0 0.36 0 0 0.38 0 0 0.4 0 0 0.42 0 0 0.44 0 0 0.46 0 0 0.48 0 0 0.5 0 0 0.52 0 0 0.54 0 0 0.56 0 0 0.58 0 0 0.6 0 0 0.62 0 0 0.64 0 0 0.66 0 0 0.68 0 0 0.7 0 0 0.72 0 0 0.74 0 0 0.76 0 0 0.78 0 0 0.8 0 0 0.82 0 0 0.84 0 0 0.86 0 0 0.88 0 0 0.9 0 0 0.92 0 0 0.94 0 0 0.96 0 0 0.98 0 0 1 0 0 0 0.02 0 0.02 0.02 0 0.04 0.02 0 0.06 0.02 0 0.08 0.02 0 0.1 0.02 0 0.12 0.02 0 0.14 0.02 0 0.16 0.02 0 0.18 0.02 0 0.2 0.02 0 0.22 0.02 0 0.24 0.02 0 0.26 0.02 0 0.28 0.02 0 0.3 0.02 0 0.32 0.02 0 0.34 0.02 0 0.36 0.02 0 0.38 0.02 0 0.4 0.02 0 0.42 0.02 0 0.44 0.02 0 0.46 0.02 0 0.48 0.02 0 0.5 0.02 0 0.52 0.02 0 0.54 0.02 0 0.56 0.02 0 0.58 0.02 0 0.6 0.02 0 0.62 0.02 0 0.64 0.02 0 0.66 0.02 0 0.68 0.02 0 0.7 0.02 0 0.72 0.02 0 0.74 0.02 0 0.76 0.02 0 0.78 0.02 0 0.8 0.02 0 0.82 0.02 0 0.84 0.02 0 0.86 0.02 0 0.88 0.02 0 0.9 0.02 0 0.92 0.02 0 0.94 0.02 0 0.96 0.02 0 0.98 0.02 0 1 0.02 0 0 0.04 0 0.02 0.04 0 0.04 0.04 0 0.06 0.04 0 0.08 0.04 0 0.1 0.04 0 0.12 0.04 0 0.14 0.04 0 0.16 0.04 0 0.18 0.04 0 0.2 0.04 0 0.22 0.04 0 0.24 0.04 0 0.26 0.04 0 0.28 0.04 0 0.3 0.04 0 0.32 0.04 0 0.34 0.04 0 0.36 0.04 0 0.38 0.04 0 0.4 0.04 0 0.42 0.04 0 0.44 0.04 0 0.46 0.04 0 0.48 0.04 0 0.5 0.04 0 0.52 0.04 0 0.54 0.04 0 0.56 0.04 0 0.58 0.04 0 0.6 0.04 0 0.62 0.04 0 0.64 0.04 0 0.66 0.04 0 0.68 0.04 0 0.7 0.04 0 0.72 0.04 0 0.74 0.04 0 0.76 0.04 0 0.78 0.04 0 0.8 0.04 0 0.82 0.04 0 0.84 0.04 0 0.86 0.04 0 0.88 0.04 0 0.9 0.04 0 0.92 0.04 0 0.94 0.04 0 0.96 0.04 0 0.98 0.04 0 1 0.04 0 0 0.06 0 0.02 0.06 0 0.04 0.06 0 0.06 0.06 0 0.08 0.06 0 0.1 0.06 0 0.12 0.06 0 0.14 0.06 0 0.16 0.06 0 0.18 0.06 0 0.2 0.06 0 0.22 0.06 0 0.24 0.06 0 0.26 0.06 0 0.28 0.06 0 0.3 0.06 0 0.32 0.06 0 0.34 0.06 0 0.36 0.06 0 0.38 0.06 0 0.4 0.06 0 0.42 0.06 0 0.44 0.06 0 0.46 0.06 0 0.48 0.06 0 0.5 0.06 0 0.52 0.06 0 0.54 0.06 0 0.56 0.06 0 0.58 0.06 0 0.6 0.06 0 0.62 0.06 0 0.64 0.06 0 0.66 0.06 0 0.68 0.06 0 0.7 0.06 0 0.72 0.06 0 0.74 0.06 0 0.76 0.06 0 0.78 0.06 0 0.8 0.06 0 0.82 0.06 0 0.84 0.06 0 0.86 0.06 0 0.88 0.06 0 0.9 0.06 0 0.92 0.06 0 0.94 0.06 0 0.96 0.06 0 0.98 0.06 0 1 0.06 0 0 0.08 0 0.02 0.08 0 0.04 0.08 0 0.06 0.08 0 0.08 0.08 0 0.1 0.08 0 0.12 0.08 0 0.14 0.08 0 0.16 0.08 0 0.18 0.08 0 0.2 0.08 0 0.22 0.08 0 0.24 0.08 0 0.26 0.08 0 0.28 0.08 0 0.3 0.08 0 0.32 0.08 0 0.34 0.08 0 0.36 0.08 0 0.38 0.08 0 0.4 0.08 0 0.42 0.08 0 0.44 0.08 0 0.46 0.08 0 0.48 0.08 0 0.5 0.08 0 0.52 0.08 0 0.54 0.08 0 0.56 0.08 0 0.58 0.08 0 0.6 0.08 0 0.62 0.08 0 0.64 0.08 0 0.66 0.08 0 0.68 0.08 0 0.7 0.08 0 0.72 0.08 0 0.74 0.08 0 0.76 0.08 0 0.78 0.08 0 0.8 0.08 0 0.82 0.08 0 0.84 0.08 0 0.86 0.08 0 0.88 0.08 0 0.9 0.08 0 0.92 0.08 0 0.94 0.08 0 0.96 0.08 0 0.98 0.08 0 1 0.08 0 0 0.1 0 0.02 0.1 0 0.04 0.1 0 0.06 0.1 0 0.08 0.1 0 0.1 0.1 0 0.12 0.1 0 0.14 0.1 0 0.16 0.1 0 0.18 0.1 0 0.2 0.1 0 0.22 0.1 0 0.24 0.1 0 0.26 0.1 0 0.28 0.1 0 0.3 0.1 0 0.32 0.1 0 0.34 0.1 0 0.36 0.1 0 0.38 0.1 0 0.4 0.1 0 0.42 0.1 0 0.44 0.1 0 0.46 0.1 0 0.48 0.1 0 0.5 0.1 0 0.52 0.1 0 0.54 0.1 0 0.56 0.1 0 0.58 0.1 0 0.6 0.1 0 0.62 0.1 0 0.64 0.1 0 0.66 0.1 0 0.68 0.1 0 0.7 0.1 0 0.72 0.1 0 0.74 0.1 0 0.76 0.1 0 0.78 0.1 0 0.8 0.1 0 0.82 0.1 0 0.84 0.1 0 0.86 0.1 0 0.88 0.1 0 0.9 0.1 0 0.92 0.1 0 0.94 0.1 0 0.96 0.1 0 0.98 0.1 0 1 0.1 0 0 0.12 0 0.02 0.12 0 0.04 0.12 0 0.06 0.12 0 0.08 0.12 0 0.1 0.12 0 0.12 0.12 0 0.14 0.12 0 0.16 0.12 0 0.18 0.12 0 0.2 0.12 0 0.22 0.12 0 0.24 0.12 0 0.26 0.12 0 0.28 0.12 0 0.3 0.12 0 0.32 0.12 0 0.34 0.12 0 0.36 0.12 0 0.38 0.12 0 0.4 0.12 0 0.42 0.12 0 0.44 0.12 0 0.46 0.12 0 0.48 0.12 0 0.5 0.12 0 0.52 0.12 0 0.54 0.12 0 0.56 0.12 0 0.58 0.12 0 0.6 0.12 0 0.62 0.12 0 0.64 0.12 0 0.66 0.12 0 0.68 0.12 0 0.7 0.12 0 0.72 0.12 0 0.74 0.12 0 0.76 0.12 0 0.78 0.12 0 0.8 0.12 0 0.82 0.12 0 0.84 0.12 0 0.86 0.12 0 0.88 0.12 0 0.9 0.12 0 0.92 0.12 0 0.94 0.12 0 0.96 0.12 0 0.98 0.12 0 1 0.12 0 0 0.14 0 0.02 0.14 0 0.04 0.14 0 0.06 0.14 0 0.08 0.14 0 0.1 0.14 0 0.12 0.14 0 0.14 0.14 0 0.16 0.14 0 0.18 0.14 0 0.2 0.14 0 0.22 0.14 0 0.24 0.14 0 0.26 0.14 0 0.28 0.14 0 0.3 0.14 0 0.32 0.14 0 0.34 0.14 0 0.36 0.14 0 0.38 0.14 0 0.4 0.14 0 0.42 0.14 0 0.44 0.14 0 0.46 0.14 0 0.48 0.14 0 0.5 0.14 0 0.52 0.14 0 0.54 0.14 0 0.56 0.14 0 0.58 0.14 0 0.6 0.14 0 0.62 0.14 0 0.64 0.14 0 0.66 0.14 0 0.68 0.14 0 0.7 0.14 0 0.72 0.14 0 0.74 0.14 0 0.76 0.14 0 0.78 0.14 0 0.8 0.14 0 0.82 0.14 0 0.84 0.14 0 0.86 0.14 0 0.88 0.14 0 0.9 0.14 0 0.92 0.14 0 0.94 0.14 0 0.96 0.14 0 0.98 0.14 0 1 0.14 0 0 0.16 0 0.02 0.16 0 0.04 0.16 0 0.06 0.16 0 0.08 0.16 0 0.1 0.16 0 0.12 0.16 0 0.14 0.16 0 0.16 0.16 0 0.18 0.16 0 0.2 0.16 0 0.22 0.16 0 0.24 0.16 0 0.26 0.16 0 0.28 0.16 0 0.3 0.16 0 0.32 0.16 0 0.34 0.16 0 0.36 0.16 0 0.38 0.16 0 0.4 0.16 0 0.42 0.16 0 0.44 0.16 0 0.46 0.16 0 0.48 0.16 0 0.5 0.16 0 0.52 0.16 0 0.54 0.16 0 0.56 0.16 0 0.58 0.16 0 0.6 0.16 0 0.62 0.16 0 0.64 0.16 0 0.66 0.16 0 0.68 0.16 0 0.7 0.16 0 0.72 0.16 0 0.74 0.16 0 0.76 0.16 0 0.78 0.16 0 0.8 0.16 0 0.82 0.16 0 0.84 0.16 0 0.86 0.16 0 0.88 0.16 0 0.9 0.16 0 0.92 0.16 0 0.94 0.16 0 0.96 0.16 0 0.98 0.16 0 1 0.16 0 0 0.18 0 0.02 0.18 0 0.04 0.18 0 0.06 0.18 0 0.08 0.18 0 0.1 0.18 0 0.12 0.18 0 0.14 0.18 0 0.16 0.18 0 0.18 0.18 0 0.2 0.18 0 0.22 0.18 0 0.24 0.18 0 0.26 0.18 0 0.28 0.18 0 0.3 0.18 0 0.32 0.18 0 0.34 0.18 0 0.36 0.18 0 0.38 0.18 0 0.4 0.18 0 0.42 0.18 0 0.44 0.18 0 0.46 0.18 0 0.48 0.18 0 0.5 0.18 0 0.52 0.18 0 0.54 0.18 0 0.56 0.18 0 0.58 0.18 0 0.6 0.18 0 0.62 0.18 0 0.64 0.18 0 0.66 0.18 0 0.68 0.18 0 0.7 0.18 0 0.72 0.18 0 0.74 0.18 0 0.76 0.18 0 0.78 0.18 0 0.8 0.18 0 0.82 0.18 0 0.84 0.18 0 0.86 0.18 0 0.88 0.18 0 0.9 0.18 0 0.92 0.18 0 0.94 0.18 0 0.96 0.18 0 0.98 0.18 0 1 0.18 0 0 0.2 0 0.02 0.2 0 0.04 0.2 0 0.06 0.2 0 0.08 0.2 0 0.1 0.2 0 0.12 0.2 0 0.14 0.2 0 0.16 0.2 0 0.18 0.2 0 0.2 0.2 0 0.22 0.2 0 0.24 0.2 0 0.26 0.2 0 0.28 0.2 0 0.3 0.2 0 0.32 0.2 0 0.34 0.2 0 0.36 0.2 0 0.38 0.2 0 0.4 0.2 0 0.42 0.2 0 0.44 0.2 0 0.46 0.2 0 0.48 0.2 0 0.5 0.2 0 0.52 0.2 0 0.54 0.2 0 0.56 0.2 0 0.58 0.2 0 0.6 0.2 0 0.62 0.2 0 0.64 0.2 0 0.66 0.2 0 0.68 0.2 0 0.7 0.2 0 0.72 0.2 0 0.74 0.2 0 0.76 0.2 0 0.78 0.2 0 0.8 0.2 0 0.82 0.2 0 0.84 0.2 0 0.86 0.2 0 0.88 0.2 0 0.9 0.2 0 0.92 0.2 0 0.94 0.2 0 0.96 0.2 0 0.98 0.2 0 1 0.2 0 0 0.22 0 0.02 0.22 0 0.04 0.22 0 0.06 0.22 0 0.08 0.22 0 0.1 0.22 0 0.12 0.22 0 0.14 0.22 0 0.16 0.22 0 0.18 0.22 0 0.2 0.22 0 0.22 0.22 0 0.24 0.22 0 0.26 0.22 0 0.28 0.22 0 0.3 0.22 0 0.32 0.22 0 0.34 0.22 0 0.36 0.22 0 0.38 0.22 0 0.4 0.22 0 0.42 0.22 0 0.44 0.22 0 0.46 0.22 0 0.48 0.22 0 0.5 0.22 0 0.52 0.22 0 0.54 0.22 0 0.56 0.22 0 0.58 0.22 0 0.6 0.22 0 0.62 0.22 0 0.64 0.22 0 0.66 0.22 0 0.68 0.22 0 0.7 0.22 0 0.72 0.22 0 0.74 0.22 0 0.76 0.22 0 0.78 0.22 0 0.8 0.22 0 0.82 0.22 0 0.84 0.22 0 0.86 0.22 0 0.88 0.22 0 0.9 0.22 0 0.92 0.22 0 0.94 0.22 0 0.96 0.22 0 0.98 0.22 0 1 0.22 0 0 0.24 0 0.02 0.24 0 0.04 0.24 0 0.06 0.24 0 0.08 0.24 0 0.1 0.24 0 0.12 0.24 0 0.14 0.24 0 0.16 0.24 0 0.18 0.24 0 0.2 0.24 0 0.22 0.24 0 0.24 0.24 0 0.26 0.24 0 0.28 0.24 0 0.3 0.24 0 0.32 0.24 0 0.34 0.24 0 0.36 0.24 0 0.38 0.24 0 0.4 0.24 0 0.42 0.24 0 0.44 0.24 0 0.46 0.24 0 0.48 0.24 0 0.5 0.24 0 0.52 0.24 0 0.54 0.24 0 0.56 0.24 0 0.58 0.24 0 0.6 0.24 0 0.62 0.24 0 0.64 0.24 0 0.66 0.24 0 0.68 0.24 0 0.7 0.24 0 0.72 0.24 0 0.74 0.24 0 0.76 0.24 0 0.78 0.24 0 0.8 0.24 0 0.82 0.24 0 0.84 0.24 0 0.86 0.24 0 0.88 0.24 0 0.9 0.24 0 0.92 0.24 0 0.94 0.24 0 0.96 0.24 0 0.98 0.24 0 1 0.24 0 0 0.26 0 0.02 0.26 0 0.04 0.26 0 0.06 0.26 0 0.08 0.26 0 0.1 0.26 0 0.12 0.26 0 0.14 0.26 0 0.16 0.26 0 0.18 0.26 0 0.2 0.26 0 0.22 0.26 0 0.24 0.26 0 0.26 0.26 0 0.28 0.26 0 0.3 0.26 0 0.32 0.26 0 0.34 0.26 0 0.36 0.26 0 0.38 0.26 0 0.4 0.26 0 0.42 0.26 0 0.44 0.26 0 0.46 0.26 0 0.48 0.26 0 0.5 0.26 0 0.52 0.26 0 0.54 0.26 0 0.56 0.26 0 0.58 0.26 0 0.6 0.26 0 0.62 0.26 0 0.64 0.26 0 0.66 0.26 0 0.68 0.26 0 0.7 0.26 0 0.72 0.26 0 0.74 0.26 0 0.76 0.26 0 0.78 0.26 0 0.8 0.26 0 0.82 0.26 0 0.84 0.26 0 0.86 0.26 0 0.88 0.26 0 0.9 0.26 0 0.92 0.26 0 0.94 0.26 0 0.96 0.26 0 0.98 0.26 0 1 0.26 0 0 0.28 0 0.02 0.28 0 0.04 0.28 0 0.06 0.28 0 0.08 0.28 0 0.1 0.28 0 0.12 0.28 0 0.14 0.28 0 0.16 0.28 0 0.18 0.28 0 0.2 0.28 0 0.22 0.28 0 0.24 0.28 0 0.26 0.28 0 0.28 0.28 0 0.3 0.28 0 0.32 0.28 0 0.34 0.28 0 0.36 0.28 0 0.38 0.28 0 0.4 0.28 0 0.42 0.28 0 0.44 0.28 0 0.46 0.28 0 0.48 0.28 0 0.5 0.28 0 0.52 0.28 0 0.54 0.28 0 0.56 0.28 0 0.58 0.28 0 0.6 0.28 0 0.62 0.28 0 0.64 0.28 0 0.66 0.28 0 0.68 0.28 0 0.7 0.28 0 0.72 0.28 0 0.74 0.28 0 0.76 0.28 0 0.78 0.28 0 0.8 0.28 0 0.82 0.28 0 0.84 0.28 0 0.86 0.28 0 0.88 0.28 0 0.9 0.28 0 0.92 0.28 0 0.94 0.28 0 0.96 0.28 0 0.98 0.28 0 1 0.28 0 0 0.3 0 0.02 0.3 0 0.04 0.3 0 0.06 0.3 0 0.08 0.3 0 0.1 0.3 0 0.12 0.3 0 0.14 0.3 0 0.16 0.3 0 0.18 0.3 0 0.2 0.3 0 0.22 0.3 0 0.24 0.3 0 0.26 0.3 0 0.28 0.3 0 0.3 0.3 0 0.32 0.3 0 0.34 0.3 0 0.36 0.3 0 0.38 0.3 0 0.4 0.3 0 0.42 0.3 0 0.44 0.3 0 0.46 0.3 0 0.48 0.3 0 0.5 0.3 0 0.52 0.3 0 0.54 0.3 0 0.56 0.3 0 0.58 0.3 0 0.6 0.3 0 0.62 0.3 0 0.64 0.3 0 0.66 0.3 0 0.68 0.3 0 0.7 0.3 0 0.72 0.3 0 0.74 0.3 0 0.76 0.3 0 0.78 0.3 0 0.8 0.3 0 0.82 0.3 0 0.84 0.3 0 0.86 0.3 0 0.88 0.3 0 0.9 0.3 0 0.92 0.3 0 0.94 0.3 0 0.96 0.3 0 0.98 0.3 0 1 0.3 0 0 0.32 0 0.02 0.32 0 0.04 0.32 0 0.06 0.32 0 0.08 0.32 0 0.1 0.32 0 0.12 0.32 0 0.14 0.32 0 0.16 0.32 0 0.18 0.32 0 0.2 0.32 0 0.22 0.32 0 0.24 0.32 0 0.26 0.32 0 0.28 0.32 0 0.3 0.32 0 0.32 0.32 0 0.34 0.32 0 0.36 0.32 0 0.38 0.32 0 0.4 0.32 0 0.42 0.32 0 0.44 0.32 0 0.46 0.32 0 0.48 0.32 0 0.5 0.32 0 0.52 0.32 0 0.54 0.32 0 0.56 0.32 0 0.58 0.32 0 0.6 0.32 0 0.62 0.32 0 0.64 0.32 0 0.66 0.32 0 0.68 0.32 0 0.7 0.32 0 0.72 0.32 0 0.74 0.32 0 0.76 0.32 0 0.78 0.32 0 0.8 0.32 0 0.82 0.32 0 0.84 0.32 0 0.86 0.32 0 0.88 0.32 0 0.9 0.32 0 0.92 0.32 0 0.94 0.
[...]
			<PointData Scalars="VitesseX">
				<DataArray Name="VitesseX" type="Float32" format="ascii">
 0 0 0 0 0 0 0 0 0 0 0 0 0 0 0 0 0 0 0 0 0 0 0 0 0 0 0 0 0 0 0 0 0 0 0 0 0 0 0 0 0 0 0 0 0 0 0 0 0 0 0 0 6.9622e-05 0.000277382 0.000620014 0.0010921 0.00168618 0.0023929 0.0032011 0.00409804 0.00506958 0.0061004 0.00717425 0.00827419 0.00938288 0.0104828 0.0115568 0.0125877 0.0135594 0.0144565 0.0152649 0.0159719 0.0165662 0.0170386 0.0173816 0.01759 0.0176596 0.0175901 0.0173828 0.01704 0.016568 0.0159739 0.0152672 0.0144589 0.0135618 0.0125901 0.0115591 0.010485 0.00938487 0.00827596 0.00717578 0.00610167 0.00507059 0.00409881 0.00320166 0.00239327 0.00168642 0.00109223 0.000620077 0.00027741 6.96258e-05 7.55397e-28 0 0.000138135 0.000550318 0.00123007 0.00216657 0.00334504 0.00474688 0.00634996 0.00812901 0.010056 0.0121005 0.0142304 0.0164121 0.0186112 0.0207931 0.0229235 0.0249688 0.0268968 0.0286771 0.0302817 0.0316852 0.0328656 0.0338041 0.0344859 0.0349015 0.0350407 0.0349047 0.0344955 0.0338163 0.0328812 0.0317036 0.0303021 0.0286989 0.0269192 0.0249911 0.022945 0.0208132 0.0186295 0.0164283 0.0142443 0.0121119 0.010065 0.00813587 0.00635488 0.00475017 0.00334706 0.00216767 0.00123057 0.000550503 0.00013816 1.49886e-27 0 0.000204461 0.000814515 0.00182057 0.00320655 0.00495057 0.00702505 0.00939726 0.0120298 0.0148812 0.0179065 0.0210582 0.0242866 0.0275407 0.0307695 0.0339224 0.0369496 0.0398035 0.0424391 0.0448149 0.0468934 0.048642 0.0500329 0.051044 0.051662 0.0518691 0.05167 0.0510668 0.0500624 0.0486795 0.0469376 0.0448641 0.0424915 0.0398573 0.0370032 0.0339741 0.030818 0.0275847 0.0243254 0.0210915 0.017934 0.014903 0.0120463 0.00940907 0.00703295 0.00495541 0.00320918 0.00182176 0.000814948 0.000204518 2.21867e-27 0 0.000267553 0.00106581 0.00238221 0.00419565 0.00647743 0.00919148 0.0122949 0.0157389 0.0194691 0.0234269 0.0275499 0.0317734 0.0360306 0.0402549 0.0443801 0.0483412 0.052076 0.0555255 0.0586355 0.061357 0.0636469 0.0654691 0.0667946 0.0676069 0.0678794 0.0676216 0.0668354 0.0655223 0.0637146 0.0614366 0.0587242 0.0556201 0.0521732 0.048438 0.0444735 0.0403423 0.0361099 0.0318434 0.02761 0.0234765 0.0195084 0.0157687 0.0123162 0.00920573 0.00648615 0.00420037 0.00238435 0.00106658 0.000267656 2.90346e-27 0 0.000326418 0.00130024 0.00290614 0.00511826 0.00790157 0.011212 0.0149973 0.0191978 0.0237474 0.0285745 0.0336032 0.0387545 0.043947 0.0490995 0.0541318 0.0589642 0.0635209 0.0677302 0.0715257 0.0748477 0.0776436 0.0798693 0.0814894 0.0824847 0.0828191 0.082508 0.0815527 0.0799523 0.0777492 0.0749719 0.071664 0.0678777 0.0636726 0.0591152 0.0542775 0.0492362 0.0440709 0.0388639 0.033697 0.0286519 0.0238087 0.0192443 0.0150306 0.0112342 0.00791516 0.00512562 0.00290947 0.00130143 0.000326576 3.54246e-27 0 0.000380128 0.00151412 0.0033841 0.00595985 0.00920052 0.0130548 0.0174618 0.0223521 0.0276487 0.0332683 0.0391226 0.0451198 0.0511652 0.0571642 0.0630237 0.068651 0.0739576 0.0788603 0.0832818 0.0871525 0.0904112 0.0930063 0.0948965 0.0960607 0.0964527 0.0960945 0.0949864 0.0931248 0.0905619 0.0873298 0.0834792 0.0790708 0.074174 0.0688663 0.0632316 0.0573592 0.051342 0.045276 0.0392565 0.0333787 0.0277362 0.0224183 0.0175092 0.0130865 0.00921989 0.00597032 0.00338882 0.00151579 0.00038035 4.12558e-27 0 0.000427837 0.00170407 0.00380856 0.00670714 0.0103538 0.0146908 0.0196495 0.0251519 0.0311113 0.0374342 0.0440212 0.050769 0.0575712 0.0643216 0.0709154 0.0772485 0.0832214 0.0887403 0.0937185 0.0980775 0.101748 0.104673 0.106805 0.108121 0.108565 0.108167 0.106924 0.104832 0.101951 0.0983155 0.0939835 0.0890228 0.0835117 0.0775375 0.0711945 0.0645832 0.0578085 0.0509786 0.0442008 0.0375823 0.0312287 0.0252407 0.0197131 0.0147333 0.0103798 0.00672116 0.00381487 0.00170629 0.000428131 4.64365e-27 0 0.000468793 0.00186711 0.00417282 0.00734837 0.0113433 0.0160942 0.021526 0.0275531 0.0340808 0.0410065 0.0482216 0.055613 0.063064 0.0704588 0.0776825 0.0846212 0.0911661 0.0972146 0.102671 0.107451 0.111477 0.114685 0.117026 0.118474 0.118965 0.118534 0.117179 0.114889 0.111736 0.107756 0.103011 0.0975771 0.0915388 0.0849922 0.0780407 0.0707944 0.0633685 0.0558819 0.0484521 0.0411964 0.0342313 0.0276669 0.0216074 0.0161486 0.0113765 0.0073663 0.00418087 0.00186992 0.000469164 5.0885e-27 0 0.000502352 0.00200066 0.00447116 0.00787342 0.0121533 0.0172428 0.0230616 0.029518 0.0365103 0.0439289 0.0516575 0.0595753 0.0675572 0.0754791 0.0832184 0.0906531 0.0976669 0.10415 0.11 0.115124 0.119442 0.122886 0.125399 0.126958 0.127489 0.127033 0.125587 0.123138 0.119764 0.115502 0.110421 0.104599 0.0981289 0.091113 0.0836622 0.0758947 0.0679344 0.0599085 0.0519428 0.044164 0.0366966 0.0296588 0.0231624 0.0173102 0.0121944 0.00789556 0.00448107 0.00200409 0.000502803 5.45312e-27 0 0.000527985 0.00210264 0.00469886 0.00827402 0.0127711 0.0181187 0.0242322 0.0310154 0.0383614 0.0461552 0.054275 0.0625936 0.0709797 0.0793031 0.0874356 0.0952493 0.102622 0.109436 0.115587 0.120977 0.12552 0.129144 0.131792 0.133438 0.134003 0.13353 0.132018 0.129449 0.125907 0.121432 0.116094 0.109977 0.103178 0.095803 0.0879702 0.0798039 0.0714343 0.0629947 0.0546185 0.0464385 0.0385856 0.0311849 0.0243535 0.0181996 0.0128205 0.0083006 0.00471073 0.0021067 0.000528518 5.73178e-27 0 0.000545304 0.00217155 0.00485277 0.00854484 0.0131888 0.018711 0.025024 0.0320282 0.0396136 0.0476614 0.0560458 0.0646355 0.0732949 0.0818901 0.0902889 0.0983588 0.105973 0.113012 0.119366 0.124934 0.129628 0.133375 0.136113 0.137816 0.138403 0.137921 0.136368 0.133721 0.130069 0.125452 0.119942 0.113627 0.106605 0.0989885 0.0908972 0.0824603 0.0738124 0.065092 0.0564369 0.0479835 0.0398685 0.0322209 0.0251618 0.0188031 0.013245 0.00857502 0.00486623 0.00217612 0.000545903 5.92009e-27 0 0.000553972 0.0022058 0.00492875 0.00867767 0.0133925 0.0189982 0.025406 0.0325148 0.0402131 0.0483807 0.0568898 0.0656076 0.0743974 0.0831236 0.0916517 0.0998474 0.107583 0.114737 0.121197 0.126863 0.131643 0.135462 0.138259 0.140006 0.14062 0.140143 0.138579 0.135901 0.132201 0.127519 0.121928 0.115515 0.108383 0.100644 0.0924209 0.0838447 0.0750522 0.0661855 0.0573841 0.0487878 0.0405354 0.0327585 0.0255802 0.0191144 0.0134633 0.00871564 0.0049456 0.00221142 0.000554703 6.01509e-27 0 0.000553971 0.0022058 0.00492872 0.0086776 0.0133924 0.018998 0.0254055 0.0325141 0.0402122 0.0483794 0.056888 0.0656056 0.0743956 0.0831216 0.0916494 0.0998449 0.10758 0.114734 0.121195 0.126861 0.131642 0.135462 0.138259 0.140006 0.14062 0.140143 0.13858 0.135902 0.132202 0.12752 0.121929 0.115517 0.108384 0.100645 0.092422 0.083846 0.0750537 0.0661867 0.0573852 0.0487889 0.0405364 0.032759 0.0255804 0.0191146 0.0134634 0.00871569 0.00494561 0.00221142 0.000554704 6.01527e-27 0 0.000545175 0.00217053 0.00484938 0.00853701 0.0131741 0.0186867 0.0249874 0.0319768 0.0395456 0.0475753 0.0559407 0.0645121 0.0731554 0.0817374 0.0901261 0.0981894 0.105802 0.112846 0.119209 0.124793 0.129508 0.13328 0.136047 0.13778 0.138403 0.137952 0.136436 0.133819 0.130194 0.1256 0.120108 0.113803 0.106787 0.0991688 0.0910711 0.0826235 0.073961 0.0652227 0.0565483 0.0480759 0.0399418 0.032276 0.0252008 0.0188289 0.0132607 0.0085834 0.00486986 0.00217722 0.000546043 5.92064e-27 0 0.000527797 0.00210116 0.00469394 0.00826265 0.0127497 0.0180834 0.0241791 0.0309407 0.0382625 0.0460299 0.0541225 0.0624146 0.0707767 0.0790808 0.0871987 0.0950031 0.102373 0.109195 0.11536 0.120772 0.125345 0.129006 0.131696 0.133385 0.134003 0.133572 0.132111 0.129584 0.12608 0.121637 0.116323 0.110221 0.103429 0.096053 0.0882118 0.0800304 0.07164 0.0631759 0.0547732 0.0465661 0.0386868 0.0312612 0.0244078 0.0182355 0.0128423 0.00831219 0.00471576 0.00210822 0.000528711 5.73269e-27 0 0.000502093 0.00199862 0.00446435 0.0078577 0.0121237 0.017194 0.0229881 0.0294147 0.0363734 0.0437554 0.0514467 0.0593282 0.0672772 0.0751715 0.08289 0.0903125 0.0973241 0.103816 0.109685 0.114841 0.119201 0.122695 0.125266 0.126886 0.127489 0.127091 0.125716 0.123324 0.120001 0.115783 0.110734 0.104933 0.0984731 0.0914558 0.0839934 0.0762054 0.068217 0.0601574 0.0521555 0.044339 0.036835 0.0297634 0.0232371 0.0173597 0.0122243 0.00791146 0.00448797 0.00200618 0.000503067 5.45438e-27 0 0.000468466 0.00186453 0.00416424 0.00732855 0.011306 0.0160325 0.0214332 0.0274229 0.0339081 0.0407876 0.0479552 0.0553011 0.062711 0.0700704 0.0772678 0.0841913 0.0907336 0.0967932 0.102275 0.107094 0.111172 0.114445 0.116858 0.118384 0.118965 0.118608 0.11734 0.115123 0.112035 0.108108 0.103404 0.0979969 0.091971 0.0854225 0.0784563 0.0711841 0.0637232 0.0561946 0.048719 0.0414161 0.0344047 0.0277979 0.021701 0.0162107 0.011414 0.00738621 0.00418952 0.00187253 0.000469495 5.09009e-27 0 0.000427446 0.00170099 0.00379833 0.00668353 0.0103093 0.0146173 0.0195389 0.0249967 0.0309055 0.0371738 0.0437046 0.0503982 0.0571509 0.0638588 0.0704212 0.076736 0.0827058 0.088238 0.0932466 0.0976526 0.101386 0.104387 0.106606 0.108014 0.108565 0.108255 0.107116 0.105109 0.102305 0.0987341 0.0944504 0.0895213 0.0840248 0.0780484 0.0716879 0.0650458 0.0582296 0.05135 0.0445179 0.0378434 0.0314349 0.0253962 0.0198241 0.0148071 0.0104243 0.00674478 0.00382513 0.00170939 0.000428523 4.64557e-27 0 0.000379681 0.00151059 0.00337239 0.00593281 0.0091496 0.0129707 0.0173352 0.0221744 0.0274129 0.0329703 0.0387607 0.0446955 0.0506839 0.0566346 0.062458 0.0680642 0.0733672 0.0782853 0.0827416 0.0866662 0.0899966 0.092679 0.0946691 0.0959392 0.0964524 0.096197 0.0952058 0.093442 0.0909674 0.0878081 0.0840126 0.0796402 0.0747599 0.0694497 0.0637951 0.0578874 0.0518227 0.0457001 0.0396186 0.0336769 0.0279718 0.022596 0.0176359 0.0131708 0.0092708 0.0059973 0.00340055 0.00151933 0.000380798 4.1278e-27 0 0.000325921 0.00129632 0.00289313 0.00508823 0.00784499 0.0111186 0.0148566 0.0190004 0.0234856 0.0282433 0.0332009 0.0382829 0.0434123 0.0485114 0.0535038 0.0583128 0.0628655 0.0670919 0.0709261 0.074308 0.0771837 0.0795065 0.0812375 0.082351 0.0828189 0.0826233 0.0817963 0.0803046 0.0781991 0.0755025 0.0722557 0.0685092 0.0643223 0.0597621 0.0549023 0.0498218 0.0446038 0.039334 0.0340984 0.0289824 0.02407 0.0194413 0.015171 0.0113276 0.00797158 0.00515554 0.00292245 0.00130535 0.000327072 3.54495e-27 0 0.000267014 0.00106156 0.00236811 0.0041631 0.00641609 0.00909015 0.0121424 0.0155249 0.0191852 0.0230678 0.0271138 0.0312623 0.035451 0.0396173 0.0436994 0.0476355 0.0513661 0.0548343 0.0579863 0.0607728 0.0631492 0.0650767 0.0665226 0.0674634 0.0678792 0.0677484 0.0670996 0.0659044 0.0642022 0.0620113 0.0593651 0.0563041 0.0528768 0.0491384 0.0451498 0.0409763 0.0366866 0.0323521 0.0280443 0.0238341 0.0197911 0.0159819 0.0124682 0.0093067 0.00654724 0.00423274 0.00239839 0.00107083 0.000268193 2.90621e-27 0 0.000203888 0.000809997 0.0018056 0.003172 0.00488544 0.00691745 0.00923528 0.0118026 0.0145798 0.0175252 0.0205952 0.0237441 0.0269256 0.0300929 0.0331998 0.0362006 0.0390502 0.0417057 0.0441263 0.046274 0.0481145 0.0496172 0.0507562 0.0515113 0.051869 0.0518066 0.0513474 0.0504687 0.0491974 0.0475475 0.0455441 0.0432173 0.0406037 0.0377461 0.0346913 0.0314902 0.0281961 0.0248647 0.0215519 0.0183131 0.0152027 0.0122724 0.00957024 0.00713998 0.00502017 0.00324349 0.00183664 0.000819449 0.000205088 2.22162e-27 0 0.000137538 0.000545607 0.00121447 0.00213056 0.00327717 0.00463473 0.00618113 0.00789217 0.00974184 0.0117032 0.013748 0.0158467 0.0179702 0.0200882 0.0221708 0.0241884 0.0261121 0.0279133 0.0295646 0.0310404 0.0323168 0.033372 0.0341872 0.0347466 0.0350403 0.0350498 0.034788 0.0342408 0.0334218 0.0323397 0.031011 0.0294551 0.0276967 0.0257648 0.0236919 0.0215132 0.0192661 0.0169897 0.0147236 0.0125066 0.0103771 0.00837123 0.00652266 0.00486161 0.00341448 0.00220339 0.00124606 0.000555188 0.000138753 1.50199e-27 0 6.90101e-05 0.000272554 0.000604033 0.00105521 0.00161665 0.00227801 0.00302814 0.00385543 0.00474786 0.00569345 0.00668012 0.0076952 0.00872618 0.00976084 0.010786 0.0117887 0.0127561 0.0136747 0.0145312 0.0153123 0.0160051 0.0165972 0.0170768 0.0174336 0.0176585 0.0177426 0.0176823 0.0174767 0.0171239 0.0166275 0.0159948 0.0152347 0.0143593 0.0133836 0.012325 0.0112026 0.0100375 0.00885154 0.00766704 0.00650617 0.00539042 0.00434002 0.00337361 0.0025075 0.00175552 0.00112886 0.00063596 0.000282212 7.02337e-05 7.58654e-28 0 -6.10983e-07 -4.82269e-06 -1.59568e-05 -3.68363e-05 -6.94472e-05 -0.000114766 -0.000172774 -0.000242368 -0.000321346 -0.000406542 -0.000493667 -0.000578356 -0.000655892 -0.000721194 -0.000769967 -0.000797928 -0.00080194 -0.00078029 -0.000732042 -0.00065782 -0.000559366 -0.000439731 -0.000303061 -0.000154517 3.33455e-08 0.000154408 0.000302466 0.000439721 0.00055982 0.000657882 0.000732146 0.000780315 0.000801856 0.00079767 0.000769854 0.000721225 0.000655893 0.000578419 0.000493644 0.000406427 0.000321344 0.000242348 0.000172764 0.000114769 6.94424e-05 3.68248e-05 1.59581e-05 4.82498e-06 6.10971e-07 3.32855e-30 0 -7.02338e-05 -0.00028221 -0.000635956 -0.00112888 -0.00175553 -0.00250751 -0.00337362 -0.00434004 -0.00539038 -0.00650613 -0.00766712 -0.00885164 -0.0100375 -0.0112026 -0.0123251 -0.0133837 -0.0143593 -0.0152349 -0.0159949 -0.0166275 -0.0171236 -0.0174769 -0.0176828 -0.0177428 -0.0176586 -0.0174336 -0.0170772 -0.0165971 -0.0160047 -0.0153123 -0.0145312 -0.0136747 -0.0127561 -0.0117888 -0.0107858 -0.00976073 -0.00872627 -0.00769517 -0.00668011 -0.00569357 -0.00474791 -0.00385542 -0.00302814 -0.002278 -0.00161666 -0.00105522 -0.000604038 -0.000272551 -6.90101e-05 -7.52075e-28 0 -0.000138753 -0.000555186 -0.00124606 -0.00220343 -0.00341449 -0.00486163 -0.00652267 -0.00837124 -0.010377 -0.0125065 -0.0147235 -0.0169898 -0.019266 -0.0215132 -0.0236919 -0.0257648 -0.0276969 -0.0294555 -0.0310113 -0.0323402 -0.033422 -0.034241 -0.0347884 -0.0350499 -0.0350404 -0.0347467 -0.0341872 -0.0333719 -0.0323166 -0.0310405 -0.0295647 -0.0279131 -0.026112 -0.0241886 -0.0221706 -0.0200879 -0.0179701 -0.0158468 -0.013748 -0.0117033 -0.00974194 -0.00789212 -0.0061811 -0.00463472 -0.00327718 -0.00213057 -0.00121448 -0.000545604 -0.000137538 -1.49564e-27 0 -0.000205088 -0.000819446 -0.00183663 -0.00324352 -0.00502017 -0.00714002 -0.00957025 -0.0122724 -0.0152027 -0.018313 -0.0215517 -0.0248646 -0.0281961 -0.0314902 -0.0346913 -0.0377461 -0.040604 -0.0432178 -0.0455447 -0.0475483 -0.0491978 -0.0504686 -0.0513473 -0.0518065 -0.0518689 -0.0515112 -0.0507559 -0.0496171 -0.0481145 -0.0462742 -0.0441264 -0.0417054 -0.03905 -0.0362007 -0.0331998 -0.0300928 -0.0269255 -0.0237441 -0.0205952 -0.0175254 -0.0145798 -0.0118025 -0.00923521 -0.00691743 -0.00488545 -0.00317201 -0.00180561 -0.000809994 -0.000203888 -2.21565e-27 0 -0.000268193 -0.00107082 -0.00239838 -0.00423274 -0.00654724 -0.00930673 -0.0124683 -0.0159819 -0.0197911 -0.023834 -0.0280442 -0.032352 -0.0366865 -0.0409762 -0.0451498 -0.0491384 -0.0528768 -0.0563045 -0.0593654 -0.0620121 -0.0642029 -0.0659042 -0.0670991 -0.067748 -0.0678791 -0.0674631 -0.0665223 -0.0650766 -0.0631493 -0.0607731 -0.0579865 -0.0548341 -0.0513659 -0.0476354 -0.0436993 -0.0396173 -0.0354511 -0.0312623 -0.0271138 -0.0230679 -0.0191852 -0.0155247 -0.0121423 -0.0090901 -0.00641609 -0.0041631 -0.00236812 -0.00106155 -0.000267014 -2.90073e-27 0 -0.000327072 -0.00130535 -0.00292242 -0.00515551 -0.00797161 -0.0113276 -0.0151711 -0.0194414 -0.02407 -0.0289823 -0.0340981 -0.0393335 -0.0446035 -0.0498216 -0.0549022 -0.0597621 -0.0643223 -0.0685094 -0.0722558 -0.075503 -0.0781995 -0.080304 -0.0817959 -0.082623 -0.0828187 -0.0823509 -0.0812375 -0.0795064 -0.0771839 -0.0743083 -0.0709261 -0.067092 -0.0628658 -0.0583127 -0.0535036 -0.0485114 -0.0434123 -0.038283 -0.0332009 -0.0282433 -0.0234855 -0.0190002 -0.0148565 -0.0111185 -0.00784497 -0.00508823 -0.00289315 -0.00129632 -0.000325921 -3.54008e-27 0 -0.000380798 -0.00151933 -0.00340051 -0.00599728 -0.0092708 -0.0131707 -0.017636 -0.0225961 -0.0279719 -0.0336767 -0.0396185 -0.0456999 -0.0518225 -0.0578873 -0.0637948 -0.0694496 -0.0747599 -0.0796402 -0.0840126 -0.0878077 -0.090967 -0.0934418 -0.0952057 -0.0961969 -0.0964523 -0.0959392 -0.0946691 -0.092679 -0.0899968 -0.0866662 -0.0827412 -0.0782853 -0.0733677 -0.0680643 -0.0624581 -0.0566347 -0.0506837 -0.0446953 -0.0387604 -0.0329701 -0.0274129 -0.0221742 -0.017335 -0.0129706 -0.00914957 -0.00593282 -0.00337241 -0.00151059 -0.00037968 -4.1236e-27 0 -0.000428523 -0.00170939 -0.00382511 -0.00674476 -0.0104243 -0.014807 -0.0198242 -0.0253965 -0.0314351 -0.0378433 -0.044518 -0.05135 -0.0582292 -0.0650457 -0.0716878 -0.0780482 -0.0840248 -0.0895214 -0.0944503 -0.0987337 -0.102305 -0.10511 -0.107117 -0.108255 -0.108565 -0.108014 -0.106605 -0.104387 -0.101386 -0.0976523 -0.0932463 -0.0882377 -0.0827056 -0.0767361 -0.0704214 -0.063859 -0.0571507 -0.0503982 -0.0437048 -0.0371737 -0.0309053 -0.0249965 -0.0195388 -0.0146172 -0.0103093 -0.00668356 -0.00379836 -0.00170099 -0.000427446 -4.64208e-27 0 -0.000469495 -0.00187253 -0.0041895 -0.00738616 -0.011414 -0.0162107 -0.0217011 -0.0277982 -0.0344052 -0.0414163 -0.0487189 -0.0561945 -0.0637231 -0.0711841 -0.0784564 -0.0854224 -0.0919708 -0.0979968 -0.103404 -0.108108 -0.112035 -0.115123 -0.11734 -0.118608 -0.118965 -0.118384 -0.116858 -0.114445 -0.111172 -0.107094 -0.102275 -0.0967929 -0.0907335 -0.0841914 -0.077268 -0.0700705 -0.0627111 -0.0553017 -0.047956 -0.0407879 -0.0339079 -0.0274228 -0.0214331 -0.0160325 -0.0113059 -0.00732859 -0.00416427 -0.00186453 -0.000468466 -5.08734e-27 0 -0.000503067 -0.00200618 -0.00448795 -0.00791136 -0.0122242 -0.0173596 -0.023237 -0.0297635 -0.0368352 -0.0443393 -0.0521556 -0.0601576 -0.0682172 -0.0762059 -0.0839937 -0.0914557 -0.0984729 -0.104933 -0.110734 -0.115783 -0.120001 -0.123324 -0.125716 -0.127091 -0.127489 -0.126886 -0.125266 -0.122695 -0.119201 -0.114841 -0.109685 -0.103815 -0.0973243 -0.0903127 -0.0828899 -0.0751713 -0.0672773 -0.0593285 -0.051447 -0.0437555 -0.0363732 -0.0294146 -0.022988 -0.0171939 -0.0121237 -0.00785775 -0.00446439 -0.00199862 -0.000502092 -5.45235e-27 0 -0.000528711 -0.00210822 -0.00471575 -0.00831212 -0.0128422 -0.0182357 -0.0244078 -0.0312612 -0.0386868 -0.0465663 -0.0547736 -0.0631762 -0.0716402 -0.0800307 -0.0882123 -0.0960533 -0.103428 -0.110221 -0.116323 -0.121637 -0.12608 -0.129584 -0.132111 -0.133572 -0.134003 -0.133385 -0.131696 -0.129006 -0.125345 -0.120772 -0.11536 -0.109195 -0.102374 -0.0950033 -0.0871985 -0.0790809 -0.0707774 -0.0624151 -0.0541228 -0.04603 -0.0382624 -0.0309407 -0.0241791 -0.0180834 -0.0127497 -0.0082627 -0.00469397 -0.00210116 -0.000527797 -5.73133e-27 0 -0.000546043 -0.00217722 -0.00486986 -0.00858336 -0.0132606 -0.018829 -0.0252011 -0.0322761 -0.0399418 -0.048076 -0.0565487 -0.0652231 -0.073961 -0.0826236 -0.0910716 -0.0991691 -0.106786 -0.113803 -0.120108 -0.1256 -0.130194 -0.133819 -0.136436 -0.137952 -0.138403 -0.13778 -0.136047 -0.13328 -0.129508 -0.124793 -0.119209 -0.112846 -0.105802 -0.0981893 -0.090126 -0.0817377 -0.0731561 -0.0645128 -0.0559411 -0.0475753 -0.0395455 -0.0319768 -0.0249874 -0.0186867 -0.0131741 -0.00853705 -0.0048494 -0.00217053 -0.000545175 -5.91989e-27 0 -0.000554704 -0.00221142 -0.00494561 -0.00871567 -0.0134633 -0.0191144 -0.0255803 -0.0327589 -0.0405364 -0.0487889 -0.0573851 -0.0661867 -0.0750537 -0.083846 -0.0924223 -0.100645 -0.108385 -0.115517 -0.121929 -0.12752 -0.132202 -0.135902 -0.13858 -0.140143 -0.14062 -0.140006 -0.138259 -0.135462 -0.131642 -0.126861 -0.121195 -0.114734 -0.10758 -0.0998447 -0.0916492 -0.0831214 -0.0743956 -0.0656058 -0.0568881 -0.0483793 -0.0402122 -0.0325141 -0.0254055 -0.0189979 -0.0133924 -0.00867762 -0.00492874 -0.0022058 -0.000553971 -6.01503e-27 0 -0.000554703 -0.00221142 -0.0049456 -0.00871564 -0.0134632 -0.0191142 -0.02558 -0.0327584 -0.0405356 -0.048788 -0.0573841 -0.0661855 -0.0750523 -0.0838445 -0.0924206 -0.100644 -0.108383 -0.115515 -0.121928 -0.127519 -0.132201 -0.135901 -0.138579 -0.140143 -0.14062 -0.140006 -0.138259 -0.135462 -0.131643 -0.126863 -0.121197 -0.114737 -0.107582 -0.0998472 -0.0916516 -0.0831238 -0.0743978 -0.0656078 -0.