<?xml version="1.0"?>
<VTKFile type="PolyData">
	<PolyData>
		<Piece NumberOfPoints="2601" NumberOfPolys="2500">
			<Points>
				<DataArray type="Float32" NumberOfComponents="3" format="ascii">
 0 0 0 0.02 0 0 0.04 0 0 0.06 0 0 0.08 0 0 0.1 0 0 0.12 0 0 0.14 0 0 0.16 0 0 0.18 0 0 0.2 0 0 0.22 0 0 0.24 0 0 0.26 0 0 0.28 0 0 0.3 0 0 0.32 0 0 0.34 0 0 0.36 0 0 0.38 0 0 0.4 0 0 0.42 0 0 0.44 0 0 0.46 0 0 0.48 0 0 0.5 0 0 0.52 0 0 0.54 0 0 0.56 0 0 0.58 0 0 0.6 0 0 0.62 0 0 0.64 0 0 0.66 0 0 0.68 0 0 0.7 0 0 0.72 0 0 0.74 0 0 0.76 0 0 0.78 0 0 0.8 0 0 0.82 0 0 0.84 0 0 0.86 0 0 0.88 0 0 0.9 0 0 0.92 0 0 0.94 0 0 0.96 0 0 0.98 0 0 1 0 0 0 0.02 0 0.02 0.02 0 0.04 0.02 0 0.06 0.02 0 0.08 0.02 0 0.1 0.02 0 0.12 0.02 0 0.14 0.02 0 0.16 0.02 0 0.18 0.02 0 0.2 0.02 0 0.22 0.02 0 0.24 0.02 0 0.26 0.02 0 0.28 0.02 0 0.3 0.02 0 0.32 0.02 0 0.34 0.02 0 0.36 0.02 0 0.38 0.02 0 0.4 0.02 0 0.42 0.02 0 0.44 0.02 0 0.46 0.02 0 0.48 0.02 0 0.5 0.02 0 0.52 0.02 0 0.54 0.02 0 0.56 0.02 0 0.58 0.02 0 0.6 0.02 0 0.62 0.02 0 0.64 0.02 0 0.66 0.02 0 0.68 0.02 0 0.7 0.02 0 0.72 0.02 0 0.74 0.02 0 0.76 0.02 0 0.78 0.02 0 0.8 0.02 0 0.82 0.02 0 0.84 0.02 0 0.86 0.02 0 0.88 0.02 0 0.9 0.02 0 0.92 0.02 0 0.94 0.02 0 0.96 0.02 0 0.98 0.02 0 1 0.02 0 0 0.04 0 0.02 0.04 0 0.04 0.04 0 0.06 0.04 0 0.08 0.04 0 0.1 0.04 0 0.12 0.04 0 0.14 0.04 0 0.16 0.04 0 0.18 0.04 0 0.2 0.04 0 0.22 0.04 0 0.24 0.04 0 0.26 0.04 0 0.28 0.04 0 0.3 0.04 0 0.32 0.04 0 0.34 0.04 0 0.36 0.04 0 0.38 0.04 0 0.4 0.04 0 0.42 0.04 0 0.44 0.04 0 0.46 0.04 0 0.48 0.04 0 0.5 0.04 0 0.52 0.04 0 0.54 0.04 0 0.56 0.04 0 0.58 0.04 0 0.6 0.04 0 0.62 0.04 0 0.64 0.04 0 0.66 0.04 0 0.68 0.04 0 0.7 0.04 0 0.72 0.04 0 0.74 0.04 0 0.76 0.04 0 0.78 0.04 0 0.8 0.04 0 0.82 0.04 0 0.84 0.04 0 0.86 0.04 0 0.88 0.04 0 0.9 0.04 0 0.92 0.04 0 0.94 0.04 0 0.96 0.04 0 0.98 0.04 0 1 0.04 0 0 0.06 0 0.02 0.06 0 0.04 0.06 0 0.06 0.06 0 0.08 0.06 0 0.1 0.06 0 0.12 0.06 0 0.14 0.06 0 0.16 0.06 0 0.18 0.06 0 0.2 0.06 0 0.22 0.06 0 0.24 0.06 0 0.26 0.06 0 0.28 0.06 0 0.3 0.06 0 0.32 0.06 0 0.34 0.06 0 0.36 0.06 0 0.38 0.06 0 0.4 0.06 0 0.42 0.06 0 0.44 0.06 0 0.46 0.06 0 0.48 0.06 0 0.5 0.06 0 0.52 0.06 0 0.54 0.06 0 0.56 0.06 0 0.58 0.06 0 0.6 0.06 0 0.62 0.06 0 0.64 0.06 0 0.66 0.06 0 0.68 0.06 0 0.7 0.06 0 0.72 0.06 0 0.74 0.06 0 0.76 0.06 0 0.78 0.06 0 0.8 0.06 0 0.82 0.06 0 0.84 0.06 0 0.86 0.06 0 0.88 0.06 0 0.9 0.06 0 0.92 0.06 0 0.94 0.06 0 0.96 0.06 0 0.98 0.06 0 1 0.06 0 0 0.08 0 0.02 0.08 0 0.04 0.08 0 0.06 0.08 0 0.08 0.08 0 0.1 0.08 0 0.12 0.08 0 0.14 0.08 0 0.16 0.08 0 0.18 0.08 0 0.2 0.08 0 0.22 0.08 0 0.24 0.08 0 0.26 0.08 0 0.28 0.08 0 0.3 0.08 0 0.32 0.08 0 0.34 0.08 0 0.36 0.08 0 0.38 0.08 0 0.4 0.08 0 0.42 0.08 0 0.44 0.08 0 0.46 0.08 0 0.48 0.08 0 0.5 0.08 0 0.52 0.08 0 0.54 0.08 0 0.56 0.08 0 0.58 0.08 0 0.6 0.08 0 0.62 0.08 0 0.64 0.08 0 0.66 0.08 0 0.68 0.08 0 0.7 0.08 0 0.72 0.08 0 0.74 0.08 0 0.76 0.08 0 0.78 0.08 0 0.8 0.08 0 0.82 0.08 0 0.84 0.08 0 0.86 0.08 0 0.88 0.08 0 0.9 0.08 0 0.92 0.08 0 0.94 0.08 0 0.96 0.08 0 0.98 0.08 0 1 0.08 0 0 0.1 0 0.02 0.1 0 0.04 0.1 0 0.06 0.1 0 0.08 0.1 0 0.1 0.1 0 0.12 0.1 0 0.14 0.1 0 0.16 0.1 0 0.18 0.1 0 0.2 0.1 0 0.22 0.1 0 0.24 0.1 0 0.26 0.1 0 0.28 0.1 0 0.3 0.1 0 0.32 0.1 0 0.34 0.1 0 0.36 0.1 0 0.38 0.1 0 0.4 0.1 0 0.42 0.1 0 0.44 0.1 0 0.46 0.1 0 0.48 0.1 0 0.5 0.1 0 0.52 0.1 0 0.54 0.1 0 0.56 0.1 0 0.58 0.1 0 0.6 0.1 0 0.62 0.1 0 0.64 0.1 0 0.66 0.1 0 0.68 0.1 0 0.7 0.1 0 0.72 0.1 0 0.74 0.1 0 0.76 0.1 0 0.78 0.1 0 0.8 0.1 0 0.82 0.1 0 0.84 0.1 0 0.86 0.1 0 0.88 0.1 0 0.9 0.1 0 0.92 0.1 0 0.94 0.1 0 0.96 0.1 0 0.98 0.1 0 1 0.1 0 0 0.12 0 0.02 0.12 0 0.04 0.12 0 0.06 0.12 0 0.08 0.12 0 0.1 0.12 0 0.12 0.12 0 0.14 0.12 0 0.16 0.12 0 0.18 0.12 0 0.2 0.12 0 0.22 0.12 0 0.24 0.12 0 0.26 0.12 0 0.28 0.12 0 0.3 0.12 0 0.32 0.12 0 0.34 0.12 0 0.36 0.12 0 0.38 0.12 0 0.4 0.12 0 0.42 0.12 0 0.44 0.12 0 0.46 0.12 0 0.48 0.12 0 0.5 0.12 0 0.52 0.12 0 0.54 0.12 0 0.56 0.12 0 0.58 0.12 0 0.6 0.12 0 0.62 0.12 0 0.64 0.12 0 0.66 0.12 0 0.68 0.12 0 0.7 0.12 0 0.72 0.12 0 0.74 0.12 0 0.76 0.12 0 0.78 0.12 0 0.8 0.12 0 0.82 0.12 0 0.84 0.12 0 0.86 0.12 0 0.88 0.12 0 0.9 0.12 0 0.92 0.12 0 0.94 0.12 0 0.96 0.12 0 0.98 0.12 0 1 0.12 0 0 0.14 0 0.02 0.14 0 0.04 0.14 0 0.06 0.14 0 0.08 0.14 0 0.1 0.14 0 0.12 0.14 0 0.14 0.14 0 0.16 0.14 0 0.18 0.14 0 0.2 0.14 0 0.22 0.14 0 0.24 0.14 0 0.26 0.14 0 0.28 0.14 0 0.3 0.14 0 0.32 0.14 0 0.34 0.14 0 0.36 0.14 0 0.38 0.14 0 0.4 0.14 0 0.42 0.14 0 0.44 0.14 0 0.46 0.14 0 0.48 0.14 0 0.5 0.14 0 0.52 0.14 0 0.54 0.14 0 0.56 0.14 0 0.58 0.14 0 0.6 0.14 0 0.62 0.14 0 0.64 0.14 0 0.66 0.14 0 0.68 0.14 0 0.7 0.14 0 0.72 0.14 0 0.74 0.14 0 0.76 0.14 0 0.78 0.14 0 0.8 0.14 0 0.82 0.14 0 0.84 0.14 0 0.86 0.14 0 0.88 0.14 0 0.9 0.14 0 0.92 0.14 0 0.94 0.14 0 0.96 0.14 0 0.98 0.14 0 1 0.14 0 0 0.16 0 0.02 0.16 0 0.04 0.16 0 0.06 0.16 0 0.08 0.16 0 0.1 0.16 0 0.12 0.16 0 0.14 0.16 0 0.16 0.16 0 0.18 0.16 0 0.2 0.16 0 0.22 0.16 0 0.24 0.16 0 0.26 0.16 0 0.28 0.16 0 0.3 0.16 0 0.32 0.16 0 0.34 0.16 0 0.36 0.16 0 0.38 0.16 0 0.4 0.16 0 0.42 0.16 0 0.44 0.16 0 0.46 0.16 0 0.48 0.16 0 0.5 0.16 0 0.52 0.16 0 0.54 0.16 0 0.56 0.16 0 0.58 0.16 0 0.6 0.16 0 0.62 0.16 0 0.64 0.16 0 0.66 0.16 0 0.68 0.16 0 0.7 0.16 0 0.72 0.16 0 0.74 0.16 0 0.76 0.16 0 0.78 0.16 0 0.8 0.16 0 0.82 0.16 0 0.84 0.16 0 0.86 0.16 0 0.88 0.16 0 0.9 0.16 0 0.92 0.16 0 0.94 0.16 0 0.96 0.16 0 0.98 0.16 0 1 0.16 0 0 0.18 0 0.02 0.18 0 0.04 0.18 0 0.06 0.18 0 0.08 0.18 0 0.1 0.18 0 0.12 0.18 0 0.14 0.18 0 0.16 0.18 0 0.18 0.18 0 0.2 0.18 0 0.22 0.18 0 0.24 0.18 0 0.26 0.18 0 0.28 0.18 0 0.3 0.18 0 0.32 0.18 0 0.34 0.18 0 0.36 0.18 0 0.38 0.18 0 0.4 0.18 0 0.42 0.18 0 0.44 0.18 0 0.46 0.18 0 0.48 0.18 0 0.5 0.18 0 0.52 0.18 0 0.54 0.18 0 0.56 0.18 0 0.58 0.18 0 0.6 0.18 0 0.62 0.18 0 0.64 0.18 0 0.66 0.18 0 0.68 0.18 0 0.7 0.18 0 0.72 0.18 0 0.74 0.18 0 0.76 0.18 0 0.78 0.18 0 0.8 0.18 0 0.82 0.18 0 0.84 0.18 0 0.86 0.18 0 0.88 0.18 0 0.9 0.18 0 0.92 0.18 0 0.94 0.18 0 0.96 0.18 0 0.98 0.18 0 1 0.18 0 0 0.2 0 0.02 0.2 0 0.04 0.2 0 0.06 0.2 0 0.08 0.2 0 0.1 0.2 0 0.12 0.2 0 0.14 0.2 0 0.16 0.2 0 0.18 0.2 0 0.2 0.2 0 0.22 0.2 0 0.24 0.2 0 0.26 0.2 0 0.28 0.2 0 0.3 0.2 0 0.32 0.2 0 0.34 0.2 0 0.36 0.2 0 0.38 0.2 0 0.4 0.2 0 0.42 0.2 0 0.44 0.2 0 0.46 0.2 0 0.48 0.2 0 0.5 0.2 0 0.52 0.2 0 0.54 0.2 0 0.56 0.2 0 0.58 0.2 0 0.6 0.2 0 0.62 0.2 0 0.64 0.2 0 0.66 0.2 0 0.68 0.2 0 0.7 0.2 0 0.72 0.2 0 0.74 0.2 0 0.76 0.2 0 0.78 0.2 0 0.8 0.2 0 0.82 0.2 0 0.84 0.2 0 0.86 0.2 0 0.88 0.2 0 0.9 0.2 0 0.92 0.2 0 0.94 0.2 0 0.96 0.2 0 0.98 0.2 0 1 0.2 0 0 0.22 0 0.02 0.22 0 0.04 0.22 0 0.06 0.22 0 0.08 0.22 0 0.1 0.22 0 0.12 0.22 0 0.14 0.22 0 0.16 0.22 0 0.18 0.22 0 0.2 0.22 0 0.22 0.22 0 0.24 0.22 0 0.26 0.22 0 0.28 0.22 0 0.3 0.22 0 0.32 0.22 0 0.34 0.22 0 0.36 0.22 0 0.38 0.22 0 0.4 0.22 0 0.42 0.22 0 0.44 0.22 0 0.46 0.22 0 0.48 0.22 0 0.5 0.22 0 0.52 0.22 0 0.54 0.22 0 0.56 0.22 0 0.58 0.22 0 0.6 0.22 0 0.62 0.22 0 0.64 0.22 0 0.66 0.22 0 0.68 0.22 0 0.7 0.22 0 0.72 0.22 0 0.74 0.22 0 0.76 0.22 0 0.78 0.22 0 0.8 0.22 0 0.82 0.22 0 0.84 0.22 0 0.86 0.22 0 0.88 0.22 0 0.9 0.22 0 0.92 0.22 0 0.94 0.22 0 0.96 0.22 0 0.98 0.22 0 1 0.22 0 0 0.24 0 0.02 0.24 0 0.04 0.24 0 0.06 0.24 0 0.08 0.24 0 0.1 0.24 0 0.12 0.24 0 0.14 0.24 0 0.16 0.24 0 0.18 0.24 0 0.2 0.24 0 0.22 0.24 0 0.24 0.24 0 0.26 0.24 0 0.28 0.24 0 0.3 0.24 0 0.32 0.24 0 0.34 0.24 0 0.36 0.24 0 0.38 0.24 0 0.4 0.24 0 0.42 0.24 0 0.44 0.24 0 0.46 0.24 0 0.48 0.24 0 0.5 0.24 0 0.52 0.24 0 0.54 0.24 0 0.56 0.24 0 0.58 0.24 0 0.6 0.24 0 0.62 0.24 0 0.64 0.24 0 0.66 0.24 0 0.68 0.24 0 0.7 0.24 0 0.72 0.24 0 0.74 0.24 0 0.76 0.24 0 0.78 0.24 0 0.8 0.24 0 0.82 0.24 0 0.84 0.24 0 0.86 0.24 0 0.88 0.24 0 0.9 0.24 0 0.92 0.24 0 0.94 0.24 0 0.96 0.24 0 0.98 0.24 0 1 0.24 0 0 0.26 0 0.02 0.26 0 0.04 0.26 0 0.06 0.26 0 0.08 0.26 0 0.1 0.26 0 0.12 0.26 0 0.14 0.26 0 0.16 0.26 0 0.18 0.26 0 0.2 0.26 0 0.22 0.26 0 0.24 0.26 0 0.26 0.26 0 0.28 0.26 0 0.3 0.26 0 0.32 0.26 0 0.34 0.26 0 0.36 0.26 0 0.38 0.26 0 0.4 0.26 0 0.42 0.26 0 0.44 0.26 0 0.46 0.26 0 0.48 0.26 0 0.5 0.26 0 0.52 0.26 0 0.54 0.26 0 0.56 0.26 0 0.58 0.26 0 0.6 0.26 0 0.62 0.26 0 0.64 0.26 0 0.66 0.26 0 0.68 0.26 0 0.7 0.26 0 0.72 0.26 0 0.74 0.26 0 0.76 0.26 0 0.78 0.26 0 0.8 0.26 0 0.82 0.26 0 0.84 0.26 0 0.86 0.26 0 0.88 0.26 0 0.9 0.26 0 0.92 0.26 0 0.94 0.26 0 0.96 0.26 0 0.98 0.26 0 1 0.26 0 0 0.28 0 0.02 0.28 0 0.04 0.28 0 0.06 0.28 0 0.08 0.28 0 0.1 0.28 0 0.12 0.28 0 0.14 0.28 0 0.16 0.28 0 0.18 0.28 0 0.2 0.28 0 0.22 0.28 0 0.24 0.28 0 0.26 0.28 0 0.28 0.28 0 0.3 0.28 0 0.32 0.28 0 0.34 0.28 0 0.36 0.28 0 0.38 0.28 0 0.4 0.28 0 0.42 0.28 0 0.44 0.28 0 0.46 0.28 0 0.48 0.28 0 0.5 0.28 0 0.52 0.28 0 0.54 0.28 0 0.56 0.28 0 0.58 0.28 0 0.6 0.28 0 0.62 0.28 0 0.64 0.28 0 0.66 0.28 0 0.68 0.28 0 0.7 0.28 0 0.72 0.28 0 0.74 0.28 0 0.76 0.28 0 0.78 0.28 0 0.8 0.28 0 0.82 0.28 0 0.84 0.28 0 0.86 0.28 0 0.88 0.28 0 0.9 0.28 0 0.92 0.28 0 0.94 0.28 0 0.96 0.28 0 0.98 0.28 0 1 0.28 0 0 0.3 0 0.02 0.3 0 0.04 0.3 0 0.06 0.3 0 0.08 0.3 0 0.1 0.3 0 0.12 0.3 0 0.14 0.3 0 0.16 0.3 0 0.18 0.3 0 0.2 0.3 0 0.22 0.3 0 0.24 0.3 0 0.26 0.3 0 0.28 0.3 0 0.3 0.3 0 0.32 0.3 0 0.34 0.3 0 0.36 0.3 0 0.38 0.3 0 0.4 0.3 0 0.42 0.3 0 0.44 0.3 0 0.46 0.3 0 0.48 0.3 0 0.5 0.3 0 0.52 0.3 0 0.54 0.3 0 0.56 0.3 0 0.58 0.3 0 0.6 0.3 0 0.62 0.3 0 0.64 0.3 0 0.66 0.3 0 0.68 0.3 0 0.7 0.3 0 0.72 0.3 0 0.74 0.3 0 0.76 0.3 0 0.78 0.3 0 0.8 0.3 0 0.82 0.3 0 0.84 0.3 0 0.86 0.3 0 0.88 0.3 0 0.9 0.3 0 0.92 0.3 0 0.94 0.3 0 0.96 0.3 0 0.98 0.3 0 1 0.3 0 0 0.32 0 0.02 0.32 0 0.04 0.32 0 0.06 0.32 0 0.08 0.32 0 0.1 0.32 0 0.12 0.32 0 0.14 0.32 0 0.16 0.32 0 0.18 0.32 0 0.2 0.32 0 0.22 0.32 0 0.24 0.32 0 0.26 0.32 0 0.28 0.32 0 0.3 0.32 0 0.32 0.32 0 0.34 0.32 0 0.36 0.32 0 0.38 0.32 0 0.4 0.32 0 0.42 0.32 0 0.44 0.32 0 0.46 0.32 0 0.48 0.32 0 0.5 0.32 0 0.52 0.32 0 0.54 0.32 0 0.56 0.32 0 0.58 0.32 0 0.6 0.32 0 0.62 0.32 0 0.64 0.32 0 0.66 0.32 0 0.68 0.32 0 0.7 0.32 0 0.72 0.32 0 0.74 0.32 0 0.76 0.32 0 0.78 0.32 0 0.8 0.32 0 0.82 0.32 0 0.84 0.32 0 0.86 0.32 0 0.88 0.32 0 0.9 0.32 0 0.92 0.32 0 0.94 0.
[...]
			<PointData Scalars="VitesseX">
				<DataArray Name="VitesseX" type="Float32" format="ascii">
 0 0 0 0 0 0 0 0 0 0 0 0 0 0 0 0 0 0 0 0 0 0 0 0 0 0 0 0 0 0 0 0 0 0 0 0 0 0 0 0 0 0 0 0 0 0 0 0 0 0 -0 0 -0.000323866 -0.00129046 -0.00288457 -0.00508113 -0.00784555 -0.0111343 -0.0148954 -0.0190697 -0.0235913 -0.0283887 -0.0333864 -0.0385049 -0.0436638 -0.0487821 -0.0537788 -0.0585749 -0.0630947 -0.067267 -0.0710259 -0.0743122 -0.0770739 -0.0792676 -0.0808649 -0.0818223 -0.0821429 -0.0818181 -0.0808387 -0.0792385 -0.0770369 -0.0742687 -0.0709775 -0.0672154 -0.0630416 -0.058522 -0.0537277 -0.0487342 -0.0436205 -0.0384665 -0.0333531 -0.0283612 -0.0235694 -0.0190531 -0.0148834 -0.0111262 -0.0078405 -0.0050783 -0.0028832 -0.00128986 -0.000323783 -3.51445e-27 0 -0.00064276 -0.00256182 -0.00572777 -0.0100916 -0.0155852 -0.0221224 -0.0296002 -0.0379007 -0.0468926 -0.0564335 -0.0663721 -0.0765491 -0.086804 -0.0969761 -0.106903 -0.116426 -0.125395 -0.133668 -0.141114 -0.147616 -0.153071 -0.157393 -0.160539 -0.16239 -0.162987 -0.16232 -0.160333 -0.157128 -0.152734 -0.147219 -0.140673 -0.133197 -0.124911 -0.115944 -0.106438 -0.0965403 -0.0864089 -0.0762 -0.0660723 -0.0561862 -0.0466965 -0.0377523 -0.0294939 -0.0220512 -0.0155415 -0.0100679 -0.00571693 -0.00255783 -0.000642226 -6.97383e-27 0 -0.00095159 -0.00379351 -0.00848305 -0.0149485 -0.0230895 -0.0327787 -0.0438638 -0.0561698 -0.0695017 -0.0836479 -0.0983832 -0.11347 -0.128669 -0.143744 -0.15845 -0.172554 -0.185831 -0.198071 -0.209079 -0.218683 -0.22673 -0.233095 -0.237729 -0.240414 -0.241255 -0.240238 -0.23724 -0.232457 -0.225918 -0.217728 -0.208016 -0.196938 -0.184666 -0.171394 -0.15733 -0.142694 -0.127718 -0.112629 -0.0976619 -0.0830528 -0.0690301 -0.0558129 -0.0436081 -0.0326076 -0.0229847 -0.0148916 -0.0084572 -0.00378414 -0.00095034 -1.03236e-26 0 -0.0012455 -0.00496621 -0.0111073 -0.0195759 -0.0302413 -0.0429375 -0.0574648 -0.0735939 -0.0910687 -0.109611 -0.128925 -0.148697 -0.168613 -0.188362 -0.207624 -0.226089 -0.243465 -0.259475 -0.273863 -0.286404 -0.2969 -0.305188 -0.311219 -0.314665 -0.31571 -0.314339 -0.310346 -0.304037 -0.295437 -0.284683 -0.271947 -0.257431 -0.241364 -0.223998 -0.205605 -0.186469 -0.166896 -0.14718 -0.127624 -0.108538 -0.0902181 -0.0729501 -0.0570037 -0.0426291 -0.0300526 -0.0194735 -0.0110609 -0.00494951 -0.00124328 -1.35109e-26 0 -0.00151986 -0.00606142 -0.0135591 -0.0239008 -0.0369281 -0.0524386 -0.0701889 -0.0898983 -0.111254 -0.133914 -0.157517 -0.181674 -0.206005 -0.230127 -0.253647 -0.276188 -0.297389 -0.31691 -0.334442 -0.34971 -0.362474 -0.372532 -0.379848 -0.383971 -0.385178 -0.383453 -0.378498 -0.370741 -0.360194 -0.34703 -0.331458 -0.313727 -0.294115 -0.272929 -0.2505 -0.227176 -0.203326 -0.179307 -0.155486 -0.132239 -0.109926 -0.0888939 -0.0694696 -0.0519577 -0.036634 -0.0237415 -0.013487 -0.00603566 -0.00151643 -1.64851e-26 0 -0.00177034 -0.00706186 -0.0157998 -0.027855 -0.0430443 -0.0611322 -0.0818355 -0.104826 -0.129738 -0.156173 -0.183706 -0.211882 -0.240255 -0.268382 -0.295797 -0.322061 -0.346752 -0.369475 -0.389867 -0.407607 -0.422418 -0.434069 -0.442532 -0.44724 -0.448564 -0.446487 -0.44062 -0.431512 -0.419164 -0.40378 -0.385605 -0.36493 -0.342079 -0.317409 -0.291304 -0.264169 -0.236433 -0.208505 -0.18081 -0.153784 -0.127845 -0.103393 -0.0808094 -0.0604466 -0.0426252 -0.0276283 -0.0156974 -0.00702553 -0.00176552 -1.91993e-26 0 -0.001993 -0.00795177 -0.017794 -0.0313763 -0.0484935 -0.0688816 -0.0922211 -0.118142 -0.146232 -0.176038 -0.207082 -0.238846 -0.270827 -0.302524 -0.333411 -0.362989 -0.390782 -0.416343 -0.439265 -0.459185 -0.475792 -0.48883 -0.498284 -0.503474 -0.504869 -0.502446 -0.495733 -0.485394 -0.47142 -0.454041 -0.433538 -0.410236 -0.384503 -0.356741 -0.327378 -0.296869 -0.265694 -0.234313 -0.203195 -0.172832 -0.14369 -0.116219 -0.0908448 -0.0679622 -0.0479319 -0.0310729 -0.0176573 -0.00790363 -0.00198662 -2.16103e-26 0 -0.00218433 -0.0087171 -0.0195104 -0.0344092 -0.0531901 -0.0755647 -0.101182 -0.129637 -0.160474 -0.193197 -0.227276 -0.262143 -0.297242 -0.332022 -0.365903 -0.398333 -0.42879 -0.456781 -0.481859 -0.503629 -0.521753 -0.535951 -0.546223 -0.551791 -0.553207 -0.550449 -0.542972 -0.531542 -0.516143 -0.497028 -0.474508 -0.44894 -0.420726 -0.390309 -0.358157 -0.324763 -0.290654 -0.256326 -0.222291 -0.189085 -0.157215 -0.127171 -0.0994175 -0.0743862 -0.0524708 -0.0340211 -0.0193359 -0.00865619 -0.00217628 -2.368e-26 0 -0.00234132 -0.00934578 -0.0209218 -0.0369057 -0.05706 -0.0810764 -0.108579 -0.13913 -0.172242 -0.20738 -0.243973 -0.281409 -0.319087 -0.356414 -0.39276 -0.427534 -0.460171 -0.490144 -0.516976 -0.540242 -0.559579 -0.574694 -0.585597 -0.59143 -0.592819 -0.589746 -0.5816 -0.56924 -0.552638 -0.532073 -0.507879 -0.480438 -0.450184 -0.417593 -0.383162 -0.347416 -0.310919 -0.274201 -0.237801 -0.202288 -0.168207 -0.136077 -0.106393 -0.0796175 -0.0561704 -0.0364264 -0.020707 -0.00927146 -0.00233152 -2.53755e-26 0 -0.0024615 -0.0098279 -0.022006 -0.0388266 -0.0600422 -0.0853294 -0.114293 -0.146472 -0.18135 -0.218364 -0.256912 -0.296343 -0.336021 -0.375313 -0.413558 -0.450129 -0.484431 -0.515913 -0.544073 -0.568456 -0.588683 -0.604454 -0.615791 -0.621773 -0.623085 -0.619716 -0.611007 -0.597887 -0.580325 -0.558616 -0.533117 -0.504232 -0.472415 -0.438165 -0.402001 -0.364475 -0.326175 -0.287657 -0.249481 -0.212237 -0.176495 -0.142798 -0.111664 -0.0835748 -0.0589728 -0.0382513 -0.0217488 -0.00973981 -0.00244992 -2.66699e-26 0 -0.00254297 -0.0101559 -0.0227459 -0.0401417 -0.0620897 -0.0882568 -0.118235 -0.151546 -0.187656 -0.225979 -0.26589 -0.30671 -0.347772 -0.388421 -0.427969 -0.465768 -0.501204 -0.533699 -0.562726 -0.587826 -0.608608 -0.624765 -0.636329 -0.642342 -0.643531 -0.639978 -0.630903 -0.617278 -0.599072 -0.576593 -0.550207 -0.52034 -0.487464 -0.452086 -0.414745 -0.376018 -0.336501 -0.296763 -0.257385 -0.218972 -0.182106 -0.147349 -0.115233 -0.0862549 -0.0608708 -0.0394869 -0.022454 -0.0100566 -0.00252996 -2.75426e-26 0 -0.00258486 -0.0103277 -0.0231404 -0.040854 -0.0632147 -0.0898855 -0.120451 -0.154424 -0.191258 -0.230353 -0.271067 -0.312695 -0.354553 -0.395974 -0.436246 -0.474708 -0.510727 -0.543702 -0.573105 -0.598471 -0.619406 -0.635598 -0.647093 -0.652919 -0.653833 -0.64986 -0.640294 -0.626143 -0.607386 -0.58434 -0.557383 -0.526948 -0.493513 -0.457588 -0.41972 -0.380483 -0.340476 -0.300268 -0.26044 -0.221601 -0.184327 -0.14918 -0.116697 -0.0873806 -0.0616891 -0.040035 -0.0227765 -0.0102062 -0.00256899 -2.79799e-26 0 -0.00258487 -0.0103279 -0.0231415 -0.0408574 -0.0632232 -0.0899016 -0.120476 -0.154462 -0.191314 -0.230428 -0.271159 -0.312801 -0.354673 -0.396101 -0.436379 -0.474844 -0.510854 -0.543812 -0.573196 -0.59854 -0.619454 -0.635627 -0.647106 -0.652923 -0.653834 -0.649851 -0.640266 -0.626089 -0.607302 -0.584222 -0.557234 -0.526773 -0.493318 -0.457382 -0.419516 -0.380285 -0.340292 -0.300106 -0.260299 -0.221487 -0.184245 -0.149125 -0.116661 -0.0873585 -0.0616773 -0.0400298 -0.0227746 -0.0102058 -0.00256896 -2.79749e-26 0 -0.00254597 -0.0101796 -0.0228243 -0.0403226 -0.0624316 -0.0888214 -0.119081 -0.152732 -0.18923 -0.227973 -0.26831 -0.309537 -0.350974 -0.391938 -0.431731 -0.469682 -0.505142 -0.537527 -0.566317 -0.591056 -0.611359 -0.626928 -0.637821 -0.643104 -0.643531 -0.639271 -0.629522 -0.615283 -0.596545 -0.573632 -0.546928 -0.516856 -0.48389 -0.44854 -0.411334 -0.372821 -0.333593 -0.294199 -0.255191 -0.217161 -0.180675 -0.146273 -0.114466 -0.0857426 -0.0605592 -0.0393207 -0.0223815 -0.0100346 -0.00252716 -2.75275e-26 0 -0.00246565 -0.00986077 -0.022115 -0.0390791 -0.0605202 -0.0861203 -0.115482 -0.148141 -0.183569 -0.221177 -0.26033 -0.300353 -0.340552 -0.380283 -0.418871 -0.455637 -0.489965 -0.521293 -0.54911 -0.572971 -0.592517 -0.607462 -0.61786 -0.622826 -0.623087 -0.618689 -0.608998 -0.594977 -0.57663 -0.554278 -0.528297 -0.499098 -0.467146 -0.43293 -0.396952 -0.359744 -0.321875 -0.283861 -0.246238 -0.209567 -0.174383 -0.141209 -0.110533 -0.082822 -0.0585159 -0.038008 -0.0216429 -0.00970771 -0.00244585 -2.6645e-26 0 -0.00234702 -0.00939087 -0.0210713 -0.0372519 -0.0577152 -0.0821606 -0.11021 -0.141421 -0.175285 -0.211235 -0.248659 -0.286907 -0.325307 -0.363241 -0.400051 -0.435081 -0.467749 -0.49751 -0.523876 -0.546432 -0.564834 -0.578815 -0.588432 -0.592873 -0.592821 -0.588326 -0.578823 -0.565217 -0.54753 -0.526074 -0.501212 -0.473343 -0.442904 -0.410357 -0.376179 -0.340872 -0.304968 -0.268952 -0.233318 -0.198597 -0.165285 -0.133873 -0.104826 -0.0785761 -0.0555382 -0.0360898 -0.0205605 -0.0092271 -0.0023259 -2.53413e-26 0 -0.00219148 -0.00877369 -0.019698 -0.0348435 -0.0540116 -0.0769244 -0.103229 -0.132511 -0.164291 -0.198029 -0.233148 -0.269018 -0.305035 -0.340598 -0.37505 -0.407801 -0.438293 -0.466011 -0.490506 -0.51139 -0.528338 -0.541114 -0.549774 -0.553598 -0.553207 -0.548659 -0.539471 -0.526472 -0.509702 -0.489463 -0.4661 -0.43999 -0.411538 -0.381175 -0.349343 -0.316501 -0.283133 -0.249695 -0.216634 -0.184425 -0.153531 -0.12439 -0.0974377 -0.0730718 -0.051673 -0.0335964 -0.0191512 -0.00860025 -0.00216919 -2.36373e-26 0 -0.00200149 -0.00801896 -0.0180167 -0.0318917 -0.0494678 -0.0704943 -0.0946494 -0.121552 -0.150758 -0.181767 -0.214045 -0.246995 -0.280065 -0.312695 -0.34426 -0.37422 -0.402054 -0.427295 -0.449528 -0.46839 -0.483598 -0.49495 -0.502497 -0.505619 -0.504869 -0.500311 -0.491558 -0.479347 -0.46374 -0.44502 -0.42351 -0.39956 -0.373541 -0.345844 -0.316866 -0.287018 -0.256728 -0.226399 -0.196445 -0.167275 -0.139298 -0.1129 -0.088479 -0.0663936 -0.0469809 -0.0305668 -0.0174372 -0.00783697 -0.00197817 -2.156e-26 0 -0.00178004 -0.00713858 -0.016054 -0.028443 -0.0441554 -0.0629715 -0.0846055 -0.108715 -0.134899 -0.162705 -0.191648 -0.221183 -0.250795 -0.279975 -0.308164 -0.334866 -0.35961 -0.381969 -0.401575 -0.418105 -0.431321 -0.441055 -0.447344 -0.449689 -0.448565 -0.444042 -0.435837 -0.424583 -0.410363 -0.39344 -0.37411 -0.352689 -0.329508 -0.304913 -0.279251 -0.252877 -0.226161 -0.199441 -0.173073 -0.147414 -0.122805 -0.0995872 -0.0780948 -0.0586463 -0.0415353 -0.0270485 -0.0154453 -0.0069492 -0.00175584 -1.91423e-26 0 -0.00153061 -0.00614644 -0.0138408 -0.024552 -0.0381581 -0.0544746 -0.0732556 -0.0942036 -0.116966 -0.141142 -0.166303 -0.19197 -0.217674 -0.242954 -0.267329 -0.290356 -0.311615 -0.330739 -0.347398 -0.361327 -0.372333 -0.380274 -0.38518 -0.386686 -0.38518 -0.380737 -0.373184 -0.363041 -0.35041 -0.335534 -0.318676 -0.300113 -0.280132 -0.259026 -0.237088 -0.214613 -0.191901 -0.16923 -0.146882 -0.125154 -0.104321 -0.0846642 -0.0664519 -0.0499543 -0.035422 -0.0230968 -0.0132068 -0.00595084 -0.00150568 -1.64226e-26 0 -0.00125713 -0.0050582 -0.011412 -0.0202799 -0.0315706 -0.0451374 -0.0607787 -0.0782454 -0.0972391 -0.117418 -0.138414 -0.159814 -0.181215 -0.202214 -0.222401 -0.241393 -0.258833 -0.274418 -0.287869 -0.298968 -0.307567 -0.313561 -0.316986 -0.317602 -0.315712 -0.311395 -0.304585 -0.295688 -0.284826 -0.272213 -0.25808 -0.242659 -0.226189 -0.208907 -0.191044 -0.172829 -0.15449 -0.136238 -0.118283 -0.100843 -0.0841314 -0.0683582 -0.0537272 -0.0404532 -0.0287368 -0.0187738 -0.0107569 -0.00485753 -0.00123162 -1.34439e-26 0 -0.000963926 -0.00389102 -0.0088059 -0.0156941 -0.0244968 -0.0351075 -0.0473717 -0.0610927 -0.0760311 -0.0919086 -0.108422 -0.125231 -0.142001 -0.1584 -0.174088 -0.18875 -0.202101 -0.21389 -0.223913 -0.231995 -0.238031 -0.241968 -0.24384 -0.243528 -0.241257 -0.237111 -0.23112 -0.223587 -0.214642 -0.204475 -0.193275 -0.181232 -0.168529 -0.155345 -0.141844 -0.128185 -0.114521 -0.100991 -0.0877269 -0.0748685 -0.0625567 -0.0509301 -0.0401243 -0.0302929 -0.0215853 -0.0141478 -0.00813425 -0.00368643 -0.000937955 -1.02535e-26 0 -0.000655604 -0.00266332 -0.0060637 -0.0108671 -0.0170484 -0.0245432 -0.0332464 -0.0430166 -0.0536768 -0.0650157 -0.0768014 -0.0887667 -0.100653 -0.112201 -0.123148 -0.133254 -0.1423 -0.150104 -0.156523 -0.161448 -0.164821 -0.166624 -0.166898 -0.165631 -0.162989 -0.15906 -0.153951 -0.147875 -0.140968 -0.133388 -0.125285 -0.1168 -0.108062 -0.099183 -0.0902637 -0.0813864 -0.072625 -0.0640439 -0.0556962 -0.0476408 -0.0399382 -0.0326529 -0.0258568 -0.0196339 -0.0140801 -0.00929175 -0.00538003 -0.00245592 -0.000629312 -6.9018e-27 0 -0.000337029 -0.00139446 -0.00322864 -0.00587507 -0.00934305 -0.0136113 -0.0186259 -0.024303 -0.03053 -0.0371654 -0.0440523 -0.050999 -0.0578247 -0.0643524 -0.0703925 -0.0757868 -0.0803894 -0.0840871 -0.0867976 -0.0884693 -0.0890998 -0.0887183 -0.0873773 -0.0851423 -0.082144 -0.0784784 -0.0742956 -0.0697487 -0.0649677 -0.0600763 -0.0551843 -0.0503829 -0.0457422 -0.041311 -0.0371183 -0.0331721 -0.0294646 -0.0259828 -0.0226977 -0.0195869 -0.0166305 -0.0138174 -0.0111504 -0.00864488 -0.00634022 -0.0042822 -0.00253765 -0.00118536 -0.000310544 -3.44175e-27 0 -1.3227e-05 -0.000104491 -0.000345605 -0.000797193 -0.00150338 -0.00248643 -0.00374434 -0.00525203 -0.00696273 -0.00880605 -0.0106989 -0.0125385 -0.0142123 -0.0156222 -0.0166701 -0.0172698 -0.0173545 -0.0168834 -0.0158374 -0.0142166 -0.0120726 -0.00948745 -0.00653936 -0.00333437 -8.84756e-08 0.00333612 0.00654501 0.00949835 0.012086 0.0142191 0.0158303 0.0168802 0.0173556 0.0172723 0.0166727 0.0156234 0.0142123 0.0125344 0.0106979 0.00880761 0.00696381 0.00525274 0.00374346 0.00248648 0.00150286 0.00079693 0.000345752 0.000104498 1.32269e-05 7.20201e-29 0 0.000310544 0.00118536 0.00253777 0.00428216 0.00633998 0.00864568 0.0111494 0.0138178 0.0166315 0.0195887 0.022699 0.0259758 0.0294604 0.0331737 0.0371183 0.0413142 0.0457448 0.050381 0.0551802 0.0600782 0.0649757 0.0697549 0.0742997 0.0784811 0.0821446 0.0851435 0.0873819 0.0887253 0.0891103 0.088475 0.0867968 0.0840865 0.0803893 0.0757877 0.0703952 0.0643534 0.0578285 0.050998 0.0440488 0.0371664 0.0305307 0.0243033 0.0186254 0.0136112 0.00934265 0.00587475 0.00322882 0.00139447 0.000337029 3.5841e-27 0 0.000629312 0.00245592 0.00538012 0.0092919 0.0140794 0.0196344 0.0258558 0.0326525 0.0399394 0.047643 0.0556984 0.0640388 0.0726175 0.0813857 0.0902645 0.099185 0.108062 0.116798 0.125282 0.133389 0.140971 0.147878 0.153954 0.159062 0.16299 0.165632 0.1669 0.166626 0.164825 0.161453 0.156527 0.150108 0.142302 0.133255 0.123149 0.112202 0.100655 0.088766 0.0767985 0.0650161 0.0536767 0.0430164 0.033246 0.0245433 0.0170485 0.0108668 0.00606394 0.00266335 0.000655603 7.03915e-27 0 0.000937955 0.00368642 0.00813433 0.0141481 0.0215839 0.0302924 0.0401233 0.0509282 0.0625591 0.0748726 0.0877301 0.100989 0.114511 0.128181 0.141847 0.155345 0.16853 0.181234 0.193274 0.204475 0.214639 0.223584 0.231122 0.237111 0.241256 0.243528 0.24384 0.24197 0.238033 0.231991 0.223906 0.213888 0.2021 0.188749 0.174087 0.158399 0.142002 0.12523 0.108419 0.0919082 0.0760299 0.0610919 0.0473715 0.0351073 0.024497 0.0156939 0.00880623 0.00389107 0.000963925 1.03828e-26 0 0.00123162 0.00485753 0.010757 0.018774 0.028735 0.0404516 0.0537265 0.0683563 0.0841331 0.100847 0.118287 0.13624 0.154483 0.172822 0.191043 0.208907 0.226192 0.242661 0.258079 0.272214 0.284824 0.29569 0.30459 0.311396 0.315711 0.317603 0.316989 0.313567 0.307572 0.298973 0.287868 0.274417 0.258837 0.241394 0.222401 0.202213 0.181214 0.159812 0.138411 0.117418 0.0972368 0.0782438 0.0607786 0.0451372 0.0315711 0.0202799 0.0114124 0.00505827 0.00125713 1.35624e-26 0 0.00150568 0.00595084 0.0132068 0.0230969 0.0354199 0.0499515 0.0664507 0.0846617 0.104321 0.125155 0.146886 0.169234 0.1919 0.214606 0.237083 0.259026 0.280133 0.300119 0.318678 0.335533 0.350412 0.363044 0.373188 0.380738 0.385179 0.386687 0.38519 0.380287 0.372346 0.36134 0.347402 0.330739 0.311617 0.290356 0.267329 0.242952 0.217672 0.191966 0.1663 0.141141 0.116962 0.0942012 0.0732557 0.0544745 0.0381589 0.0245524 0.0138413 0.00614654 0.00153061 1.65281e-26 0 0.00175584 0.0069492 0.0154453 0.0270485 0.0415335 0.0586428 0.0780953 0.0995879 0.122805 0.147415 0.173078 0.19945 0.226165 0.252873 0.279243 0.304908 0.329506 0.352694 0.374112 0.393438 0.410364 0.424583 0.435838 0.444043 0.448564 0.449689 0.447351 0.441069 0.431333 0.418108 0.401572 0.381969 0.359609 0.334865 0.308163 0.279973 0.250801 0.221185 0.191645 0.162704 0.134895 0.108712 0.0846056 0.0629716 0.0441565 0.0284439 0.0160547 0.0071387 0.00178004 1.92332e-26 0 0.00197817 0.00783697 0.0174372 0.0305668 0.0469799 0.0663889 0.0884769 0.1129 0.139294 0.167276 0.196451 0.226414 0.25674 0.28702 0.316859 0.345836 0.373543 0.399563 0.423509 0.445018 0.46374 0.479348 0.491559 0.500312 0.504869 0.50562 0.502501 0.494959 0.483603 0.468388 0.449526 0.427297 0.402056 0.37422 0.344259 0.312693 0.280079 0.247008 0.214046 0.181766 0.150753 0.121548 0.0946493 0.0704945 0.0494691 0.0318929 0.0180175 0.00801909 0.00200149 2.16353e-26 0 0.00216919 0.00860025 0.0191512 0.0335965 0.0516728 0.0730672 0.097432 0.124388 0.153528 0.184426 0.216636 0.249703 0.283147 0.316508 0.349341 0.381169 0.411539 0.439993 0.466106 0.489473 0.509711 0.526477 0.539475 0.548661 0.553209 0.553601 0.549779 0.541117 0.528338 0.511388 0.490508 0.466013 0.438293 0.407802 0.375049 0.340598 0.305047 0.26903 0.233152 0.198027 0.164285 0.132507 0.103229 0.0769247 0.0540128 0.0348449 0.0196989 0.00877384 0.00219148 2.36968e-26 0 0.0023259 0.0092271 0.0205605 0.0360899 0.0555383 0.0785731 0.104821 0.133872 0.165285 0.198596 0.233318 0.268953 0.304972 0.340876 0.376178 0.41035 0.4429 0.473345 0.501218 0.526085 0.54754 0.565223 0.578828 0.588329 0.592821 0.592875 0.588434 0.578816 0.564833 0.546431 0.523875 0.49751 0.467751 0.435083 0.400051 0.36325 0.325312 0.286903 0.248661 0.211232 0.175279 0.141417 0.110211 0.0821616 0.0577161 0.0372534 0.0210723 0.00939103 0.00234702 2.53853e-26 0 0.00244585 0.00970771 0.0216429 0.038008 0.0585161 0.0828208 0.110527 0.141203 0.174381 0.209565 0.246236 0.283862 0.321876 0.359745 0.396949 0.432924 0.467144 0.499098 0.528295 0.554279 0.576631 0.594978 0.609 0.61869 0.623087 0.622826 0.617859 0.607461 0.592516 0.57297 0.549107 0.521293 0.489966 0.455636 0.418873 0.380296 0.340557 0.300349 0.260332 0.221174 0.183564 0.148138 0.115485 0.0861221 0.0605207 0.0390805 0.0221161 0.00986093 0.00246565 2.66744e-26 0 0.00252716 0.0100346 0.0223815 0.0393207 0.0605594 0.0857424 0.114461 0.146267 0.180673 0.21716 0.255189 0.294198 0.333595 0.372821 0.411331 0.448539 0.48389 0.516854 0.546925 0.573631 0.596545 0.615284 0.629523 0.639271 0.643531 0.643104 0.637822 0.626928 0.611358 0.591056 0.566319 0.537528 0.50514 0.469682 0.43174 0.39195 0.35098 0.309542 0.268309 0.227969 0.189226 0.152729 0.119083 0.0888238 0.062433 0.0403243 0.0228254 0.0101797 0.00254597 2.75438e-26 0 0.00256896 0.0102058 0.0227746 0.0400298 0.0616775 0.0873588 0.11666 0.149119 0.184237 0.221483 0.260298 0.300106 0.340294 0.380283 0.419515 0.457382 0.493316 0.526772 0.557233 0.584221 0.607301 0.62609 0.640267 0.649851 0.653834 0.652923 0.647106 0.635627 0.619454 0.59854 0.573196 0.543811 0.510851 0.474848 0.43639 0.396111 0.354679 0.312803 0.271157 0.230426 0.191312 0.15446 0.120476 0.0899039 0.0632259 0.0408595 0.0231425 0.010328 0.00258487 2.79799e-26 0 0.00256899 0.0102062 0.0227765 0.040035 0.0616891 0.0873808 0.116697 0.149177 0.18432 0.221592 0.260434 0.300268 0.340477 0.380483 0.419723 0.457589 0.493512 0.526949 0.557383 0.584339 0.607386 0.626144 0.640294 0.649859 0.653833 0.652919 0.647093 0.635598 0.619406 0.59847 0.573104 0.5437 0.510727 0.474716 0.436256 0.395981 0.354557 0.312694 0.271064 0.230353 0.191258 0.154424 0.12045 0.0898873 0.0632171 0.0408554 0.0231411 0.0103277 0.00258485 2.7976e-26 0 0.00252996 0.0100566 0.022454 0.0394869 0.0608708 0.086255 0.115233 0.147348 0.182103 0.218966 0.257379 0.296762 0.336502 0.376019 0.414749 0.452086 0.487464 0.520341 0.550206 0.576589 0.599069 0.617275 0.630901 0.639977 0.64353 0.642342 0.636329 0.624766 0.60861 0.587825 0.562725 0.533699 0.50121 0.465777 0.427976 0.388423 0.34777 0.306707 0.265889 0.22598 0.187656 0.151547 0.118235 0.0882576 0.0620904 0.0401423 0.0227464 0.0101559 0.00254296 2.75319e-26 0 0.00244992 0.00973981 0.0217488 0.0382513 0.0589728 0.0835748 0.111664 0.142798 0.176494 0.212235 0.249477 