<?xml version="1.0"?>
<VTKFile type="PolyData">
	<PolyData>
		<Piece NumberOfPoints="2601" NumberOfPolys="2500">
			<Points>
				<DataArray type="Float32" NumberOfComponents="3" format="ascii">
 0 0 0 0.02 0 0 0.04 0 0 0.06 0 0 0.08 0 0 0.1 0 0 0.12 0 0 0.14 0 0 0.16 0 0 0.18 0 0 0.2 0 0 0.22 0 0 0.24 0 0 0.26 0 0 0.28 0 0 0.3 0 0 0.32 0 0 0.34 0 0 0.36 0 0 0.38 0 0 0.4 0 0 0.42 0 0 0.44 0 0 0.46 0 0 0.48 0 0 0.5 0 0 0.52 0 0 0.54 0 0 0.56 0 0 0.58 0 0 0.6 0 0 0.62 0 0 0.64 0 0 0.66 0 0 0.68 0 0 0.7 0 0 0.72 0 0 0.74 0 0 0.76 0 0 0.78 0 0 0.8 0 0 0.82 0 0 0.84 0 0 0.86 0 0 0.88 0 0 0.9 0 0 0.92 0 0 0.94 0 0 0.96 0 0 0.98 0 0 1 0 0 0 0.02 0 0.02 0.02 0 0.04 0.02 0 0.06 0.02 0 0.08 0.02 0 0.1 0.02 0 0.12 0.02 0 0.14 0.02 0 0.16 0.02 0 0.18 0.02 0 0.2 0.02 0 0.22 0.02 0 0.24 0.02 0 0.26 0.02 0 0.28 0.02 0 0.3 0.02 0 0.32 0.02 0 0.34 0.02 0 0.36 0.02 0 0.38 0.02 0 0.4 0.02 0 0.42 0.02 0 0.44 0.02 0 0.46 0.02 0 0.48 0.02 0 0.5 0.02 0 0.52 0.02 0 0.54 0.02 0 0.56 0.02 0 0.58 0.02 0 0.6 0.02 0 0.62 0.02 0 0.64 0.02 0 0.66 0.02 0 0.68 0.02 0 0.7 0.02 0 0.72 0.02 0 0.74 0.02 0 0.76 0.02 0 0.78 0.02 0 0.8 0.02 0 0.82 0.02 0 0.84 0.02 0 0.86 0.02 0 0.88 0.02 0 0.9 0.02 0 0.92 0.02 0 0.94 0.02 0 0.96 0.02 0 0.98 0.02 0 1 0.02 0 0 0.04 0 0.02 0.04 0 0.04 0.04 0 0.06 0.04 0 0.08 0.04 0 0.1 0.04 0 0.12 0.04 0 0.14 0.04 0 0.16 0.04 0 0.18 0.04 0 0.2 0.04 0 0.22 0.04 0 0.24 0.04 0 0.26 0.04 0 0.28 0.04 0 0.3 0.04 0 0.32 0.04 0 0.34 0.04 0 0.36 0.04 0 0.38 0.04 0 0.4 0.04 0 0.42 0.04 0 0.44 0.04 0 0.46 0.04 0 0.48 0.04 0 0.5 0.04 0 0.52 0.04 0 0.54 0.04 0 0.56 0.04 0 0.58 0.04 0 0.6 0.04 0 0.62 0.04 0 0.64 0.04 0 0.66 0.04 0 0.68 0.04 0 0.7 0.04 0 0.72 0.04 0 0.74 0.04 0 0.76 0.04 0 0.78 0.04 0 0.8 0.04 0 0.82 0.04 0 0.84 0.04 0 0.86 0.04 0 0.88 0.04 0 0.9 0.04 0 0.92 0.04 0 0.94 0.04 0 0.96 0.04 0 0.98 0.04 0 1 0.04 0 0 0.06 0 0.02 0.06 0 0.04 0.06 0 0.06 0.06 0 0.08 0.06 0 0.1 0.06 0 0.12 0.06 0 0.14 0.06 0 0.16 0.06 0 0.18 0.06 0 0.2 0.06 0 0.22 0.06 0 0.24 0.06 0 0.26 0.06 0 0.28 0.06 0 0.3 0.06 0 0.32 0.06 0 0.34 0.06 0 0.36 0.06 0 0.38 0.06 0 0.4 0.06 0 0.42 0.06 0 0.44 0.06 0 0.46 0.06 0 0.48 0.06 0 0.5 0.06 0 0.52 0.06 0 0.54 0.06 0 0.56 0.06 0 0.58 0.06 0 0.6 0.06 0 0.62 0.06 0 0.64 0.06 0 0.66 0.06 0 0.68 0.06 0 0.7 0.06 0 0.72 0.06 0 0.74 0.06 0 0.76 0.06 0 0.78 0.06 0 0.8 0.06 0 0.82 0.06 0 0.84 0.06 0 0.86 0.06 0 0.88 0.06 0 0.9 0.06 0 0.92 0.06 0 0.94 0.06 0 0.96 0.06 0 0.98 0.06 0 1 0.06 0 0 0.08 0 0.02 0.08 0 0.04 0.08 0 0.06 0.08 0 0.08 0.08 0 0.1 0.08 0 0.12 0.08 0 0.14 0.08 0 0.16 0.08 0 0.18 0.08 0 0.2 0.08 0 0.22 0.08 0 0.24 0.08 0 0.26 0.08 0 0.28 0.08 0 0.3 0.08 0 0.32 0.08 0 0.34 0.08 0 0.36 0.08 0 0.38 0.08 0 0.4 0.08 0 0.42 0.08 0 0.44 0.08 0 0.46 0.08 0 0.48 0.08 0 0.5 0.08 0 0.52 0.08 0 0.54 0.08 0 0.56 0.08 0 0.58 0.08 0 0.6 0.08 0 0.62 0.08 0 0.64 0.08 0 0.66 0.08 0 0.68 0.08 0 0.7 0.08 0 0.72 0.08 0 0.74 0.08 0 0.76 0.08 0 0.78 0.08 0 0.8 0.08 0 0.82 0.08 0 0.84 0.08 0 0.86 0.08 0 0.88 0.08 0 0.9 0.08 0 0.92 0.08 0 0.94 0.08 0 0.96 0.08 0 0.98 0.08 0 1 0.08 0 0 0.1 0 0.02 0.1 0 0.04 0.1 0 0.06 0.1 0 0.08 0.1 0 0.1 0.1 0 0.12 0.1 0 0.14 0.1 0 0.16 0.1 0 0.18 0.1 0 0.2 0.1 0 0.22 0.1 0 0.24 0.1 0 0.26 0.1 0 0.28 0.1 0 0.3 0.1 0 0.32 0.1 0 0.34 0.1 0 0.36 0.1 0 0.38 0.1 0 0.4 0.1 0 0.42 0.1 0 0.44 0.1 0 0.46 0.1 0 0.48 0.1 0 0.5 0.1 0 0.52 0.1 0 0.54 0.1 0 0.56 0.1 0 0.58 0.1 0 0.6 0.1 0 0.62 0.1 0 0.64 0.1 0 0.66 0.1 0 0.68 0.1 0 0.7 0.1 0 0.72 0.1 0 0.74 0.1 0 0.76 0.1 0 0.78 0.1 0 0.8 0.1 0 0.82 0.1 0 0.84 0.1 0 0.86 0.1 0 0.88 0.1 0 0.9 0.1 0 0.92 0.1 0 0.94 0.1 0 0.96 0.1 0 0.98 0.1 0 1 0.1 0 0 0.12 0 0.02 0.12 0 0.04 0.12 0 0.06 0.12 0 0.08 0.12 0 0.1 0.12 0 0.12 0.12 0 0.14 0.12 0 0.16 0.12 0 0.18 0.12 0 0.2 0.12 0 0.22 0.12 0 0.24 0.12 0 0.26 0.12 0 0.28 0.12 0 0.3 0.12 0 0.32 0.12 0 0.34 0.12 0 0.36 0.12 0 0.38 0.12 0 0.4 0.12 0 0.42 0.12 0 0.44 0.12 0 0.46 0.12 0 0.48 0.12 0 0.5 0.12 0 0.52 0.12 0 0.54 0.12 0 0.56 0.12 0 0.58 0.12 0 0.6 0.12 0 0.62 0.12 0 0.64 0.12 0 0.66 0.12 0 0.68 0.12 0 0.7 0.12 0 0.72 0.12 0 0.74 0.12 0 0.76 0.12 0 0.78 0.12 0 0.8 0.12 0 0.82 0.12 0 0.84 0.12 0 0.86 0.12 0 0.88 0.12 0 0.9 0.12 0 0.92 0.12 0 0.94 0.12 0 0.96 0.12 0 0.98 0.12 0 1 0.12 0 0 0.14 0 0.02 0.14 0 0.04 0.14 0 0.06 0.14 0 0.08 0.14 0 0.1 0.14 0 0.12 0.14 0 0.14 0.14 0 0.16 0.14 0 0.18 0.14 0 0.2 0.14 0 0.22 0.14 0 0.24 0.14 0 0.26 0.14 0 0.28 0.14 0 0.3 0.14 0 0.32 0.14 0 0.34 0.14 0 0.36 0.14 0 0.38 0.14 0 0.4 0.14 0 0.42 0.14 0 0.44 0.14 0 0.46 0.14 0 0.48 0.14 0 0.5 0.14 0 0.52 0.14 0 0.54 0.14 0 0.56 0.14 0 0.58 0.14 0 0.6 0.14 0 0.62 0.14 0 0.64 0.14 0 0.66 0.14 0 0.68 0.14 0 0.7 0.14 0 0.72 0.14 0 0.74 0.14 0 0.76 0.14 0 0.78 0.14 0 0.8 0.14 0 0.82 0.14 0 0.84 0.14 0 0.86 0.14 0 0.88 0.14 0 0.9 0.14 0 0.92 0.14 0 0.94 0.14 0 0.96 0.14 0 0.98 0.14 0 1 0.14 0 0 0.16 0 0.02 0.16 0 0.04 0.16 0 0.06 0.16 0 0.08 0.16 0 0.1 0.16 0 0.12 0.16 0 0.14 0.16 0 0.16 0.16 0 0.18 0.16 0 0.2 0.16 0 0.22 0.16 0 0.24 0.16 0 0.26 0.16 0 0.28 0.16 0 0.3 0.16 0 0.32 0.16 0 0.34 0.16 0 0.36 0.16 0 0.38 0.16 0 0.4 0.16 0 0.42 0.16 0 0.44 0.16 0 0.46 0.16 0 0.48 0.16 0 0.5 0.16 0 0.52 0.16 0 0.54 0.16 0 0.56 0.16 0 0.58 0.16 0 0.6 0.16 0 0.62 0.16 0 0.64 0.16 0 0.66 0.16 0 0.68 0.16 0 0.7 0.16 0 0.72 0.16 0 0.74 0.16 0 0.76 0.16 0 0.78 0.16 0 0.8 0.16 0 0.82 0.16 0 0.84 0.16 0 0.86 0.16 0 0.88 0.16 0 0.9 0.16 0 0.92 0.16 0 0.94 0.16 0 0.96 0.16 0 0.98 0.16 0 1 0.16 0 0 0.18 0 0.02 0.18 0 0.04 0.18 0 0.06 0.18 0 0.08 0.18 0 0.1 0.18 0 0.12 0.18 0 0.14 0.18 0 0.16 0.18 0 0.18 0.18 0 0.2 0.18 0 0.22 0.18 0 0.24 0.18 0 0.26 0.18 0 0.28 0.18 0 0.3 0.18 0 0.32 0.18 0 0.34 0.18 0 0.36 0.18 0 0.38 0.18 0 0.4 0.18 0 0.42 0.18 0 0.44 0.18 0 0.46 0.18 0 0.48 0.18 0 0.5 0.18 0 0.52 0.18 0 0.54 0.18 0 0.56 0.18 0 0.58 0.18 0 0.6 0.18 0 0.62 0.18 0 0.64 0.18 0 0.66 0.18 0 0.68 0.18 0 0.7 0.18 0 0.72 0.18 0 0.74 0.18 0 0.76 0.18 0 0.78 0.18 0 0.8 0.18 0 0.82 0.18 0 0.84 0.18 0 0.86 0.18 0 0.88 0.18 0 0.9 0.18 0 0.92 0.18 0 0.94 0.18 0 0.96 0.18 0 0.98 0.18 0 1 0.18 0 0 0.2 0 0.02 0.2 0 0.04 0.2 0 0.06 0.2 0 0.08 0.2 0 0.1 0.2 0 0.12 0.2 0 0.14 0.2 0 0.16 0.2 0 0.18 0.2 0 0.2 0.2 0 0.22 0.2 0 0.24 0.2 0 0.26 0.2 0 0.28 0.2 0 0.3 0.2 0 0.32 0.2 0 0.34 0.2 0 0.36 0.2 0 0.38 0.2 0 0.4 0.2 0 0.42 0.2 0 0.44 0.2 0 0.46 0.2 0 0.48 0.2 0 0.5 0.2 0 0.52 0.2 0 0.54 0.2 0 0.56 0.2 0 0.58 0.2 0 0.6 0.2 0 0.62 0.2 0 0.64 0.2 0 0.66 0.2 0 0.68 0.2 0 0.7 0.2 0 0.72 0.2 0 0.74 0.2 0 0.76 0.2 0 0.78 0.2 0 0.8 0.2 0 0.82 0.2 0 0.84 0.2 0 0.86 0.2 0 0.88 0.2 0 0.9 0.2 0 0.92 0.2 0 0.94 0.2 0 0.96 0.2 0 0.98 0.2 0 1 0.2 0 0 0.22 0 0.02 0.22 0 0.04 0.22 0 0.06 0.22 0 0.08 0.22 0 0.1 0.22 0 0.12 0.22 0 0.14 0.22 0 0.16 0.22 0 0.18 0.22 0 0.2 0.22 0 0.22 0.22 0 0.24 0.22 0 0.26 0.22 0 0.28 0.22 0 0.3 0.22 0 0.32 0.22 0 0.34 0.22 0 0.36 0.22 0 0.38 0.22 0 0.4 0.22 0 0.42 0.22 0 0.44 0.22 0 0.46 0.22 0 0.48 0.22 0 0.5 0.22 0 0.52 0.22 0 0.54 0.22 0 0.56 0.22 0 0.58 0.22 0 0.6 0.22 0 0.62 0.22 0 0.64 0.22 0 0.66 0.22 0 0.68 0.22 0 0.7 0.22 0 0.72 0.22 0 0.74 0.22 0 0.76 0.22 0 0.78 0.22 0 0.8 0.22 0 0.82 0.22 0 0.84 0.22 0 0.86 0.22 0 0.88 0.22 0 0.9 0.22 0 0.92 0.22 0 0.94 0.22 0 0.96 0.22 0 0.98 0.22 0 1 0.22 0 0 0.24 0 0.02 0.24 0 0.04 0.24 0 0.06 0.24 0 0.08 0.24 0 0.1 0.24 0 0.12 0.24 0 0.14 0.24 0 0.16 0.24 0 0.18 0.24 0 0.2 0.24 0 0.22 0.24 0 0.24 0.24 0 0.26 0.24 0 0.28 0.24 0 0.3 0.24 0 0.32 0.24 0 0.34 0.24 0 0.36 0.24 0 0.38 0.24 0 0.4 0.24 0 0.42 0.24 0 0.44 0.24 0 0.46 0.24 0 0.48 0.24 0 0.5 0.24 0 0.52 0.24 0 0.54 0.24 0 0.56 0.24 0 0.58 0.24 0 0.6 0.24 0 0.62 0.24 0 0.64 0.24 0 0.66 0.24 0 0.68 0.24 0 0.7 0.24 0 0.72 0.24 0 0.74 0.24 0 0.76 0.24 0 0.78 0.24 0 0.8 0.24 0 0.82 0.24 0 0.84 0.24 0 0.86 0.24 0 0.88 0.24 0 0.9 0.24 0 0.92 0.24 0 0.94 0.24 0 0.96 0.24 0 0.98 0.24 0 1 0.24 0 0 0.26 0 0.02 0.26 0 0.04 0.26 0 0.06 0.26 0 0.08 0.26 0 0.1 0.26 0 0.12 0.26 0 0.14 0.26 0 0.16 0.26 0 0.18 0.26 0 0.2 0.26 0 0.22 0.26 0 0.24 0.26 0 0.26 0.26 0 0.28 0.26 0 0.3 0.26 0 0.32 0.26 0 0.34 0.26 0 0.36 0.26 0 0.38 0.26 0 0.4 0.26 0 0.42 0.26 0 0.44 0.26 0 0.46 0.26 0 0.48 0.26 0 0.5 0.26 0 0.52 0.26 0 0.54 0.26 0 0.56 0.26 0 0.58 0.26 0 0.6 0.26 0 0.62 0.26 0 0.64 0.26 0 0.66 0.26 0 0.68 0.26 0 0.7 0.26 0 0.72 0.26 0 0.74 0.26 0 0.76 0.26 0 0.78 0.26 0 0.8 0.26 0 0.82 0.26 0 0.84 0.26 0 0.86 0.26 0 0.88 0.26 0 0.9 0.26 0 0.92 0.26 0 0.94 0.26 0 0.96 0.26 0 0.98 0.26 0 1 0.26 0 0 0.28 0 0.02 0.28 0 0.04 0.28 0 0.06 0.28 0 0.08 0.28 0 0.1 0.28 0 0.12 0.28 0 0.14 0.28 0 0.16 0.28 0 0.18 0.28 0 0.2 0.28 0 0.22 0.28 0 0.24 0.28 0 0.26 0.28 0 0.28 0.28 0 0.3 0.28 0 0.32 0.28 0 0.34 0.28 0 0.36 0.28 0 0.38 0.28 0 0.4 0.28 0 0.42 0.28 0 0.44 0.28 0 0.46 0.28 0 0.48 0.28 0 0.5 0.28 0 0.52 0.28 0 0.54 0.28 0 0.56 0.28 0 0.58 0.28 0 0.6 0.28 0 0.62 0.28 0 0.64 0.28 0 0.66 0.28 0 0.68 0.28 0 0.7 0.28 0 0.72 0.28 0 0.74 0.28 0 0.76 0.28 0 0.78 0.28 0 0.8 0.28 0 0.82 0.28 0 0.84 0.28 0 0.86 0.28 0 0.88 0.28 0 0.9 0.28 0 0.92 0.28 0 0.94 0.28 0 0.96 0.28 0 0.98 0.28 0 1 0.28 0 0 0.3 0 0.02 0.3 0 0.04 0.3 0 0.06 0.3 0 0.08 0.3 0 0.1 0.3 0 0.12 0.3 0 0.14 0.3 0 0.16 0.3 0 0.18 0.3 0 0.2 0.3 0 0.22 0.3 0 0.24 0.3 0 0.26 0.3 0 0.28 0.3 0 0.3 0.3 0 0.32 0.3 0 0.34 0.3 0 0.36 0.3 0 0.38 0.3 0 0.4 0.3 0 0.42 0.3 0 0.44 0.3 0 0.46 0.3 0 0.48 0.3 0 0.5 0.3 0 0.52 0.3 0 0.54 0.3 0 0.56 0.3 0 0.58 0.3 0 0.6 0.3 0 0.62 0.3 0 0.64 0.3 0 0.66 0.3 0 0.68 0.3 0 0.7 0.3 0 0.72 0.3 0 0.74 0.3 0 0.76 0.3 0 0.78 0.3 0 0.8 0.3 0 0.82 0.3 0 0.84 0.3 0 0.86 0.3 0 0.88 0.3 0 0.9 0.3 0 0.92 0.3 0 0.94 0.3 0 0.96 0.3 0 0.98 0.3 0 1 0.3 0 0 0.32 0 0.02 0.32 0 0.04 0.32 0 0.06 0.32 0 0.08 0.32 0 0.1 0.32 0 0.12 0.32 0 0.14 0.32 0 0.16 0.32 0 0.18 0.32 0 0.2 0.32 0 0.22 0.32 0 0.24 0.32 0 0.26 0.32 0 0.28 0.32 0 0.3 0.32 0 0.32 0.32 0 0.34 0.32 0 0.36 0.32 0 0.38 0.32 0 0.4 0.32 0 0.42 0.32 0 0.44 0.32 0 0.46 0.32 0 0.48 0.32 0 0.5 0.32 0 0.52 0.32 0 0.54 0.32 0 0.56 0.32 0 0.58 0.32 0 0.6 0.32 0 0.62 0.32 0 0.64 0.32 0 0.66 0.32 0 0.68 0.32 0 0.7 0.32 0 0.72 0.32 0 0.74 0.32 0 0.76 0.32 0 0.78 0.32 0 0.8 0.32 0 0.82 0.32 0 0.84 0.32 0 0.86 0.32 0 0.88 0.32 0 0.9 0.32 0 0.92 0.32 0 0.94 0.
[...]
			<PointData Scalars="VitesseX">
				<DataArray Name="VitesseX" type="Float32" format="ascii">
 0 0 0 0 0 0 0 0 0 0 0 0 0 0 0 0 0 0 0 0 0 0 0 0 0 0 0 0 0 0 0 0 0 0 0 0 0 0 0 0 0 0 0 0 0 0 0 0 0 0 -0 0 -0.000293584 -0.00116979 -0.00261483 -0.00460598 -0.00711187 -0.010093 -0.0135024 -0.0172863 -0.0213849 -0.0257337 -0.0302639 -0.0349038 -0.0395802 -0.0442199 -0.0487493 -0.0530969 -0.0571942 -0.0609764 -0.064384 -0.0673631 -0.0698667 -0.0718555 -0.0733032 -0.0741718 -0.0744627 -0.0741684 -0.0732816 -0.0718316 -0.0698363 -0.0673273 -0.0643441 -0.0609339 -0.0571505 -0.0530534 -0.0487073 -0.0441805 -0.0395446 -0.0348722 -0.0302366 -0.0257111 -0.021367 -0.0172726 -0.0134926 -0.0100864 -0.00710772 -0.00460366 -0.00261371 -0.0011693 -0.000293517 -3.18579e-27 0 -0.000582651 -0.00232216 -0.00519182 -0.00914712 -0.0141263 -0.0200511 -0.0268283 -0.034351 -0.0425002 -0.0511469 -0.060154 -0.0693776 -0.078672 -0.0878915 -0.0968887 -0.105521 -0.113652 -0.121152 -0.127903 -0.133798 -0.138746 -0.142667 -0.14552 -0.147204 -0.147749 -0.147146 -0.145351 -0.142449 -0.138468 -0.133472 -0.12754 -0.120764 -0.113254 -0.105125 -0.0965065 -0.0875333 -0.0783473 -0.0690907 -0.0599077 -0.0509436 -0.042339 -0.034229 -0.0267409 -0.0199925 -0.0140904 -0.0091276 -0.00518291 -0.00231889 -0.000582212 -6.32164e-27 0 -0.000862587 -0.00343852 -0.00768891 -0.0135485 -0.0209264 -0.0297069 -0.0397521 -0.0509034 -0.0629841 -0.0758025 -0.089155 -0.102826 -0.116601 -0.130262 -0.14359 -0.156374 -0.16841 -0.179507 -0.189489 -0.198199 -0.2055 -0.211277 -0.215482 -0.217929 -0.2187 -0.217784 -0.215079 -0.210753 -0.204832 -0.197414 -0.188615 -0.178575 -0.167452 -0.155421 -0.14267 -0.1294 -0.115818 -0.102136 -0.0885622 -0.0753135 -0.0625965 -0.05061 -0.039542 -0.0295664 -0.0208403 -0.0135018 -0.00766767 -0.00343082 -0.000861561 -9.35812e-27 0 -0.00112899 -0.00450133 -0.010067 -0.0177415 -0.0274062 -0.0389103 -0.0520731 -0.0666866 -0.0825191 -0.0993187 -0.116818 -0.134732 -0.152779 -0.170675 -0.188131 -0.204868 -0.220619 -0.235134 -0.248183 -0.259559 -0.269085 -0.27661 -0.282086 -0.285232 -0.286197 -0.284966 -0.281368 -0.275665 -0.267882 -0.258145 -0.246608 -0.233455 -0.218892 -0.203149 -0.186472 -0.16912 -0.151368 -0.133486 -0.115749 -0.0984368 -0.0818201 -0.0661576 -0.0516942 -0.0386569 -0.0272511 -0.0176574 -0.0100289 -0.00448761 -0.00112717 -1.22472e-26 0 -0.00137767 -0.00549384 -0.0122885 -0.0216597 -0.0334634 -0.047516 -0.0635969 -0.0814519 -0.100797 -0.121325 -0.142706 -0.164592 -0.186636 -0.208493 -0.229807 -0.250236 -0.269454 -0.287154 -0.303057 -0.316911 -0.328497 -0.337635 -0.344282 -0.348053 -0.349174 -0.347629 -0.343171 -0.336162 -0.326622 -0.314706 -0.300603 -0.284537 -0.266763 -0.247558 -0.227221 -0.206068 -0.184435 -0.162648 -0.141038 -0.119949 -0.0997067 -0.0806266 -0.063006 -0.047121 -0.0332218 -0.0215289 -0.0122293 -0.00547267 -0.00137485 -1.49433e-26 0 -0.00160469 -0.00640038 -0.0143186 -0.0252416 -0.0390027 -0.0553885 -0.0741421 -0.0949666 -0.117531 -0.141474 -0.166412 -0.191935 -0.217638 -0.24312 -0.267962 -0.291765 -0.314148 -0.334752 -0.35325 -0.369351 -0.382801 -0.393392 -0.401088 -0.4054 -0.406638 -0.404784 -0.399512 -0.391289 -0.380126 -0.366204 -0.349747 -0.331016 -0.310306 -0.287942 -0.264271 -0.239659 -0.214497 -0.189161 -0.164032 -0.139511 -0.115975 -0.0937891 -0.073299 -0.0548252 -0.0386583 -0.0250553 -0.0142344 -0.00637053 -0.00160073 -1.74035e-26 0 -0.00180649 -0.00720667 -0.016125 -0.0284305 -0.0439367 -0.0624038 -0.0835424 -0.107018 -0.132455 -0.159448 -0.187561 -0.216331 -0.2453 -0.274014 -0.302 -0.328805 -0.353999 -0.377178 -0.397975 -0.416057 -0.431144 -0.443001 -0.451605 -0.45637 -0.457684 -0.455529 -0.449504 -0.440177 -0.427549 -0.411828 -0.393266 -0.372159 -0.348838 -0.323668 -0.297041 -0.269366 -0.241082 -0.212606 -0.184368 -0.156814 -0.130367 -0.105438 -0.0824113 -0.0616483 -0.0434752 -0.0281812 -0.0160127 -0.00716712 -0.00180125 -1.9589e-26 0 -0.00197988 -0.00789998 -0.0176794 -0.0311763 -0.0481877 -0.0684515 -0.09165 -0.117415 -0.145337 -0.174965 -0.205822 -0.237397 -0.269186 -0.30069 -0.331385 -0.360774 -0.388382 -0.413765 -0.436521 -0.456289 -0.472761 -0.485682 -0.495039 -0.500161 -0.50151 -0.499065 -0.492362 -0.48206 -0.46815 -0.450863 -0.430479 -0.407323 -0.381757 -0.354179 -0.325018 -0.294724 -0.263773 -0.232618 -0.201727 -0.171587 -0.142659 -0.115389 -0.0901994 -0.0674828 -0.0475966 -0.0308574 -0.0175361 -0.00784995 -0.00197327 -2.14652e-26 0 -0.00212214 -0.00846939 -0.0189571 -0.0334357 -0.0516887 -0.0734359 -0.0983369 -0.125996 -0.155971 -0.18778 -0.220909 -0.254805 -0.288925 -0.32273 -0.355655 -0.387164 -0.416749 -0.443933 -0.468284 -0.489417 -0.507001 -0.520764 -0.530706 -0.536084 -0.537424 -0.534707 -0.527414 -0.516282 -0.501294 -0.482701 -0.460808 -0.435961 -0.40855 -0.378998 -0.347767 -0.315336 -0.282214 -0.248884 -0.215838 -0.183599 -0.152657 -0.123488 -0.0965413 -0.0722372 -0.0509576 -0.0330419 -0.0187807 -0.00840833 -0.00211409 -2.30022e-26 0 -0.00223102 -0.00890591 -0.0199383 -0.0351731 -0.0543845 -0.0772787 -0.103498 -0.132624 -0.164193 -0.197694 -0.232586 -0.268281 -0.304203 -0.339783 -0.374424 -0.40756 -0.438658 -0.467218 -0.492775 -0.514926 -0.533328 -0.5477 -0.55805 -0.563579 -0.564865 -0.561896 -0.554109 -0.542301 -0.526456 -0.50684 -0.48377 -0.457615 -0.428787 -0.397732 -0.364931 -0.33088 -0.296116 -0.261145 -0.226478 -0.192662 -0.160205 -0.129607 -0.101338 -0.0758372 -0.0535058 -0.0347003 -0.019727 -0.00883353 -0.0022215 -2.41757e-26 0 -0.0023048 -0.00920265 -0.0206072 -0.036361 -0.0562329 -0.0799199 -0.107051 -0.137196 -0.169872 -0.204552 -0.24067 -0.277611 -0.314778 -0.351582 -0.3874 -0.421652 -0.453779 -0.483254 -0.509603 -0.532412 -0.55133 -0.566067 -0.576638 -0.582212 -0.583403 -0.580277 -0.572166 -0.559909 -0.54349 -0.523182 -0.499316 -0.472279 -0.442492 -0.410415 -0.376547 -0.3414 -0.305527 -0.269443 -0.233677 -0.198795 -0.165317 -0.133751 -0.104586 -0.0782753 -0.0552315 -0.0358231 -0.0203675 -0.00912114 -0.00229412 -2.49671e-26 0 -0.00234267 -0.00935759 -0.0209621 -0.0370005 -0.0572413 -0.0813774 -0.109031 -0.139764 -0.173085 -0.208451 -0.24528 -0.28294 -0.320818 -0.358311 -0.394781 -0.42963 -0.462276 -0.492188 -0.51889 -0.541954 -0.561023 -0.575813 -0.586345 -0.591775 -0.592745 -0.58927 -0.580745 -0.568039 -0.551141 -0.530335 -0.505962 -0.478413 -0.448118 -0.415547 -0.381192 -0.345574 -0.309246 -0.272722 -0.236534 -0.201246 -0.167385 -0.135455 -0.105946 -0.0793174 -0.0559867 -0.0363273 -0.020663 -0.00925773 -0.00232964 -2.53639e-26 0 -0.00234269 -0.00935777 -0.020963 -0.0370032 -0.0572474 -0.0813885 -0.10905 -0.139793 -0.173127 -0.208507 -0.245348 -0.283019 -0.320909 -0.358408 -0.394885 -0.429732 -0.462369 -0.49227 -0.518959 -0.542007 -0.56106 -0.575835 -0.586355 -0.591778 -0.592745 -0.589263 -0.580724 -0.568 -0.551077 -0.530246 -0.505851 -0.478281 -0.447972 -0.415394 -0.381038 -0.345427 -0.30911 -0.2726 -0.236434 -0.201163 -0.16732 -0.135413 -0.10592 -0.0793012 -0.0559779 -0.0363234 -0.0206617 -0.00925742 -0.00232961 -2.53597e-26 0 -0.00230727 -0.00922211 -0.0206717 -0.0365099 -0.0565137 -0.080383 -0.107746 -0.138172 -0.171167 -0.206191 -0.242657 -0.279944 -0.317422 -0.354484 -0.390506 -0.424873 -0.457011 -0.486397 -0.512558 -0.535072 -0.553591 -0.567844 -0.577865 -0.582838 -0.583404 -0.579697 -0.571033 -0.558273 -0.541415 -0.520749 -0.496619 -0.469408 -0.439547 -0.407493 -0.373728 -0.338765 -0.303132 -0.267329 -0.231874 -0.197304 -0.164132 -0.132862 -0.103955 -0.0778539 -0.0549751 -0.0356864 -0.0203078 -0.00910301 -0.00229181 -2.49546e-26 0 -0.00223443 -0.00893288 -0.0200278 -0.0353805 -0.0547769 -0.0779275 -0.104473 -0.133995 -0.166015 -0.200003 -0.235389 -0.271569 -0.307926 -0.343868 -0.378788 -0.412084 -0.443203 -0.471633 -0.496908 -0.518635 -0.536476 -0.550169 -0.55975 -0.564444 -0.564867 -0.561053 -0.552458 -0.539909 -0.523418 -0.503271 -0.479804 -0.453393 -0.424453 -0.39342 -0.360768 -0.326984 -0.292576 -0.258021 -0.223811 -0.190462 -0.15846 -0.128293 -0.100407 -0.0752188 -0.0531303 -0.0345003 -0.0196399 -0.00880714 -0.00221816 -2.41552e-26 0 -0.00212682 -0.00850639 -0.01908 -0.0337202 -0.0522266 -0.0743255 -0.0996748 -0.127876 -0.158469 -0.190944 -0.224759 -0.25931 -0.294022 -0.328337 -0.361637 -0.39336 -0.422972 -0.449982 -0.473951 -0.494499 -0.511312 -0.524147 -0.533036 -0.537271 -0.537425 -0.533541 -0.525132 -0.512974 -0.497093 -0.477769 -0.455325 -0.430121 -0.402552 -0.373037 -0.342017 -0.30995 -0.277313 -0.24456 -0.21215 -0.180562 -0.150253 -0.121673 -0.0952523 -0.0713819 -0.0504382 -0.0327653 -0.0186603 -0.00837186 -0.00210947 -2.29741e-26 0 -0.00198576 -0.00794643 -0.0178334 -0.0315331 -0.0488622 -0.0695671 -0.0933289 -0.119774 -0.148468 -0.17893 -0.210648 -0.243048 -0.275584 -0.307726 -0.338889 -0.368544 -0.396182 -0.421344 -0.443623 -0.462657 -0.478162 -0.489921 -0.497959 -0.501647 -0.50151 -0.497593 -0.489484 -0.477889 -0.462852 -0.444641 -0.423563 -0.399958 -0.374194 -0.346661 -0.317765 -0.287928 -0.257587 -0.227159 -0.197071 -0.167755 -0.139628 -0.113098 -0.0885687 -0.0664022 -0.0469411 -0.0305084 -0.0173842 -0.00780395 -0.00196744 -2.14301e-26 0 -0.00181346 -0.00726182 -0.0163079 -0.0288538 -0.0447366 -0.0637273 -0.085535 -0.109816 -0.136169 -0.164149 -0.193274 -0.223025 -0.252891 -0.282358 -0.310901 -0.338021 -0.363253 -0.386172 -0.406399 -0.423609 -0.437551 -0.448032 -0.45507 -0.458134 -0.457685 -0.453775 -0.446072 -0.435205 -0.421232 -0.404407 -0.385016 -0.363374 -0.339817 -0.314701 -0.28839 -0.261262 -0.233709 -0.2061 -0.178815 -0.152242 -0.12675 -0.102706 -0.0804632 -0.0603569 -0.0426936 -0.0277652 -0.0158317 -0.00711231 -0.0017943 -1.95477e-26 0 -0.00161266 -0.00646336 -0.0145273 -0.0257246 -0.0399151 -0.0568982 -0.0764155 -0.098159 -0.121767 -0.146834 -0.172921 -0.199562 -0.226295 -0.252636 -0.278114 -0.302275 -0.324701 -0.345012 -0.362861 -0.377969 -0.390118 -0.399135 -0.405042 -0.407413 -0.406639 -0.402774 -0.395579 -0.385591 -0.372886 -0.357699 -0.340291 -0.320946 -0.299964 -0.277659 -0.254351 -0.230368 -0.206046 -0.181705 -0.157667 -0.134269 -0.111828 -0.0906612 -0.0710679 -0.0533443 -0.0377624 -0.0245785 -0.0140272 -0.00630778 -0.00159277 -1.73567e-26 0 -0.0013865 -0.00556365 -0.0125199 -0.0221947 -0.0344735 -0.0491874 -0.0661142 -0.0849862 -0.105486 -0.127257 -0.149909 -0.173033 -0.196216 -0.219023 -0.241041 -0.261866 -0.281134 -0.298505 -0.313691 -0.326455 -0.336603 -0.343999 -0.348665 -0.350284 -0.349175 -0.345396 -0.338801 -0.32983 -0.318576 -0.305251 -0.290089 -0.273339 -0.255261 -0.23612 -0.216186 -0.195731 -0.175035 -0.154356 -0.13396 -0.114116 -0.0950934 -0.0771489 -0.0605249 -0.0454731 -0.0322252 -0.0209987 -0.011999 -0.00540295 -0.00136601 -1.48918e-26 0 -0.00113855 -0.00457688 -0.0103172 -0.0183198 -0.0284979 -0.0407166 -0.0547937 -0.0705056 -0.0875847 -0.105728 -0.124599 -0.14385 -0.163125 -0.182048 -0.200266 -0.217433 -0.233241 -0.247404 -0.259681 -0.269881 -0.27785 -0.283493 -0.286828 -0.287647 -0.286198 -0.282545 -0.276631 -0.268799 -0.259155 -0.247888 -0.235201 -0.221304 -0.206409 -0.190736 -0.174495 -0.157899 -0.141163 -0.124485 -0.108065 -0.0921063 -0.0768132 -0.062383 -0.0490008 -0.0368666 -0.0261688 -0.0170822 -0.00977903 -0.00441201 -0.00111758 -1.21922e-26 0 -0.000872722 -0.00351861 -0.00795412 -0.0141612 -0.0220824 -0.0316194 -0.0426325 -0.0549458 -0.0683454 -0.0825854 -0.0973919 -0.112476 -0.127547 -0.142297 -0.156433 -0.169676 -0.181775 -0.192506 -0.201673 -0.209131 -0.214785 -0.21857 -0.220506 -0.220488 -0.218701 -0.215214 -0.210047 -0.203458 -0.195559 -0.186515 -0.176491 -0.165658 -0.154181 -0.142221 -0.129934 -0.117467 -0.104965 -0.0925634 -0.0803919 -0.0685852 -0.0572751 -0.046594 -0.0366776 -0.0276621 -0.0196888 -0.0128906 -0.00740224 -0.00335051 -0.000851381 -9.30049e-27 0 -0.000593203 -0.00240554 -0.00546779 -0.00978432 -0.0153283 -0.0220395 -0.0298227 -0.0385526 -0.0480718 -0.0581954 -0.0687157 -0.0794074 -0.090047 -0.100397 -0.110234 -0.119344 -0.127538 -0.134656 -0.140561 -0.145164 -0.148405 -0.150254 -0.150747 -0.149867 -0.14775 -0.144466 -0.140103 -0.13484 -0.128794 -0.122099 -0.114886 -0.107281 -0.0993982 -0.0913424 -0.0832074 -0.0750736 -0.0670135 -0.0590951 -0.0513763 -0.0439184 -0.0367834 -0.0300364 -0.023751 -0.0180049 -0.0128884 -0.00848993 -0.00490603 -0.00223514 -0.000571599 -6.26245e-27 0 -0.0003044 -0.00125523 -0.00289751 -0.00525839 -0.0083423 -0.0121281 -0.0165667 -0.0215852 -0.0270846 -0.0329437 -0.0390237 -0.0451653 -0.0512147 -0.0570105 -0.0623999 -0.0672384 -0.0714048 -0.0747935 -0.0773365 -0.0789951 -0.0797546 -0.0796252 -0.0786576 -0.0769011 -0.0744634 -0.0714223 -0.0679017 -0.0640288 -0.0599128 -0.055658 -0.051359 -0.0470949 -0.0429279 -0.0389038 -0.0350529 -0.0313879 -0.0279084 -0.0246095 -0.0214776 -0.0184989 -0.0156636 -0.0129695 -0.0104242 -0.00804746 -0.00587468 -0.00394958 -0.00232974 -0.00108343 -0.000282637 -3.12605e-27 0 -1.08685e-05 -8.58444e-05 -0.00028394 -0.000655117 -0.00123539 -0.00204303 -0.00307613 -0.00431483 -0.00572017 -0.00723516 -0.00879334 -0.0102997 -0.0116746 -0.0128359 -0.0136978 -0.0141929 -0.0142646 -0.0138728 -0.0130071 -0.0116792 -0.0099261 -0.00780084 -0.00537717 -0.0027421 1.0282e-06 0.00274281 0.00537978 0.00780711 0.00993417 0.0116874 0.0130112 0.0138728 0.0142624 0.0141932 0.0136997 0.0128367 0.0116764 0.0102984 0.0087893 0.00723622 0.00572131 0.00431517 0.00307583 0.00204281 0.00123519 0.00065469 0.00028408 8.5856e-05 1.08683e-05 5.91815e-29 0 0.000282637 0.00108343 0.00232986 0.00394923 0.00587425 0.00804743 0.0104237 0.0129698 0.0156644 0.0185001 0.0214735 0.0246065 0.0279095 0.031388 0.0350544 0.0389044 0.0429274 0.047093 0.0513577 0.0556608 0.0599181 0.0640344 0.0679043 0.0714238 0.0744633 0.0769014 0.0786592 0.079629 0.0797596 0.0790032 0.0773447 0.0747976 0.0714045 0.067239 0.0624003 0.0570117 0.0512158 0.0451661 0.0390228 0.0329445 0.0270855 0.0215856 0.0165666 0.012128 0.00834259 0.00525793 0.00289767 0.00125525 0.0003044 3.24303e-27 0 0.000571599 0.00223514 0.00490612 0.00848969 0.0128882 0.0180056 0.0237504 0.0300367 0.0367839 0.0439201 0.0513746 0.0590881 0.0670126 0.0750769 0.0832091 0.0913439 0.0993989 0.107281 0.114884 0.122098 0.128797 0.134844 0.140104 0.144467 0.147748 0.149868 0.15075 0.150257 0.148405 0.145168 0.140567 0.134659 0.127541 0.119345 0.110233 0.100397 0.0900476 0.0794109 0.0687174 0.0581959 0.0480718 0.0385527 0.0298228 0.0220394 0.0153288 0.0097839 0.00546798 0.00240558 0.000593203 6.37531e-27 0 0.000851381 0.00335051 0.00740231 0.0128905 0.0196883 0.0276625 0.0366767 0.0465939 0.0572758 0.0685873 0.0803927 0.0925564 0.104961 0.117469 0.129935 0.142222 0.154181 0.165659 0.176489 0.186512 0.195561 0.20346 0.210048 0.215214 0.2187 0.220488 0.220509 0.218572 0.214786 0.209133 0.20167 0.192499 0.181772 0.169675 0.156431 0.142296 0.127548 0.112482 0.0973962 0.0825855 0.0683445 0.0549451 0.0426323 0.031619 0.0220829 0.0141607 0.00795427 0.00351867 0.000872722 9.40672e-27 0 0.00111758 0.00441201 0.0097791 0.0170823 0.0261675 0.036866 0.0489989 0.06238 0.0768161 0.0921115 0.108068 0.124483 0.141155 0.157894 0.174495 0.190737 0.206409 0.221303 0.235201 0.247888 0.259155 0.268795 0.276626 0.282544 0.286197 0.287646 0.286828 0.283492 0.277852 0.269886 0.259686 0.247405 0.233241 0.217434 0.200264 0.182047 0.163123 0.143857 0.124606 0.105728 0.0875832 0.070504 0.0547928 0.0407158 0.0284983 0.0183192 0.0103173 0.00457696 0.00113855 1.22896e-26 0 0.00136601 0.00540295 0.011999 0.0209989 0.0322234 0.0454708 0.0605226 0.0771459 0.0950963 0.114122 0.133964 0.154359 0.175028 0.195724 0.216185 0.23612 0.255262 0.27334 0.29009 0.305252 0.318576 0.329828 0.338798 0.345394 0.349174 0.350284 0.348665 0.344005 0.336612 0.326465 0.3137 0.29851 0.281137 0.261868 0.241039 0.219021 0.196213 0.17304 0.149916 0.127258 0.105484 0.0849839 0.0661128 0.0491863 0.034474 0.022194 0.0125199 0.00556377 0.0013865 1.49785e-26 0 0.00159277 0.00630778 0.0140272 0.0245786 0.0377604 0.053341 0.071066 0.0906588 0.111829 0.134271 0.157672 0.181709 0.206045 0.230362 0.254348 0.277658 0.299965 0.320947 0.340291 0.357698 0.372886 0.385592 0.39558 0.402774 0.406639 0.407412 0.405039 0.399139 0.390126 0.377974 0.362861 0.34501 0.324702 0.302275 0.278113 0.252635 0.226293 0.199569 0.172927 0.146834 0.121764 0.0981561 0.0764138 0.0568969 0.0399155 0.025724 0.0145273 0.00646351 0.00161266 1.74314e-26 0 0.0017943 0.00711231 0.0158317 0.0277652 0.0426918 0.0603534 0.0804631 0.102706 0.12675 0.152242 0.178819 0.206107 0.233713 0.261258 0.288387 0.314699 0.339815 0.363374 0.385017 0.404406 0.421231 0.435205 0.446072 0.453775 0.457686 0.458133 0.455067 0.448032 0.437557 0.423613 0.406398 0.386171 0.363253 0.338021 0.310902 0.282359 0.252892 0.223028 0.193277 0.16415 0.136167 0.109813 0.0855332 0.0637258 0.044737 0.0288533 0.0163078 0.00726199 0.00181347 1.96096e-26 0 0.00196744 0.00780395 0.0173842 0.0305085 0.0469402 0.0663976 0.0885659 0.113099 0.139625 0.167753 0.197074 0.227169 0.257595 0.287928 0.317763 0.346659 0.374197 0.399961 0.423562 0.44464 0.462851 0.477889 0.489484 0.497594 0.501511 0.501648 0.497961 0.489926 0.478169 0.462661 0.443623 0.421345 0.396182 0.368543 0.33889 0.307726 0.275589 0.243047 0.210645 0.17893 0.148466 0.119771 0.0933276 0.0695657 0.0488624 0.0315325 0.0178334 0.00794662 0.00198576 2.1479e-26 0 0.00210947 0.00837186 0.0186603 0.0327653 0.050438 0.0713779 0.0952469 0.121673 0.150253 0.18056 0.212149 0.244563 0.277318 0.309953 0.342017 0.373036 0.402556 0.430125 0.455328 0.477776 0.497102 0.512982 0.525137 0.533543 0.537426 0.537272 0.533038 0.524151 0.511315 0.494499 0.47395 0.449981 0.422972 0.39336 0.361637 0.328338 0.294029 0.259312 0.224757 0.190944 0.158466 0.127873 0.0996746 0.0743249 0.0522266 0.0337194 0.0190799 0.00850658 0.00212682 2.30103e-26 0 0.00221816 0.00880714 0.0196399 0.0345004 0.0531304 0.0752166 0.100402 0.128294 0.158465 0.190462 0.22381 0.25802 0.292576 0.326986 0.360771 0.393418 0.424448 0.453393 0.479808 0.503279 0.523427 0.539917 0.552463 0.561055 0.564867 0.564445 0.55975 0.55017 0.536474 0.518633 0.496907 0.471631 0.443203 0.412084 0.378788 0.343872 0.307924 0.271567 0.235392 0.200002 0.166012 0.133991 0.104473 0.0779276 0.0547769 0.0353798 0.0200279 0.00893306 0.00223443 2.41794e-26 0 0.00229181 0.00910301 0.0203078 0.0356864 0.0549753 0.0778532 0.10395 0.132858 0.164134 0.197304 0.231873 0.267329 0.30313 0.338763 0.373729 0.407489 0.439543 0.469405 0.496616 0.520748 0.541414 0.558273 0.571034 0.579697 0.583404 0.582838 0.577864 0.567843 0.553589 0.535069 0.512557 0.486399 0.457012 0.424871 0.390504 0.354486 0.317419 0.279941 0.242659 0.206189 0.171165 0.138168 0.107745 0.0803831 0.0565138 0.0365098 0.020672 0.00922227 0.00230727 2.4968e-26 0 0.00232961 0.00925742 0.0206617 0.0363234 0.0559781 0.0793013 0.105917 0.135407 0.167318 0.201164 0.236434 0.272602 0.309108 0.345425 0.381037 0.415391 0.447971 0.47828 0.50585 0.530246 0.551077 0.567999 0.580725 0.589264 0.592745 0.591778 0.586355 0.575835 0.561061 0.542007 0.518959 0.492273 0.462369 0.42973 0.394888 0.358415 0.320914 0.283024 0.245349 0.208505 0.173126 0.139792 0.10905 0.081389 0.0572473 0.0370035 0.0209635 0.00935789 0.00234268 2.53639e-26 0 0.00232964 0.00925773 0.020663 0.0363273 0.0559868 0.0793178 0.105946 0.135452 0.16738 0.201246 0.236536 0.272723 0.309246 0.345575 0.381193 0.415547 0.448119 0.478413 0.505962 0.530334 0.551141 0.568039 0.580745 0.58927 0.592745 0.591775 0.586345 0.575813 0.561024 0.541955 0.518891 0.49219 0.462275 0.42963 0.394787 0.358318 0.320824 0.282943 0.245279 0.20845 0.173086 0.139765 0.109033 0.0813785 0.0572413 0.0370009 0.0209625 0.00935766 0.00234267 2.53606e-26 0 0.00229412 0.00912114 0.0203675 0.0358232 0.0552315 0.0782755 0.104587 0.13375 0.165314 0.198793 0.233679 0.269444 0.305527 0.341401 0.376547 0.410416 0.442491 0.472279 0.499318 0.523183 0.543491 0.559911 0.572167 0.580278 0.583403 0.582212 0.576638 0.566067 0.551331 0.532414 0.509603 0.483252 0.453779 0.421658 0.387408 0.351586 0.314781 0.277611 0.240668 0.204552 0.169873 0.137197 0.107052 0.0799208 0.0562334 0.0363613 0.0206075 0.00920267 0.0023048 2.49583e-26 0 0.0022215 0.008