<?xml version="1.0"?>
<VTKFile type="PolyData">
	<PolyData>
		<Piece NumberOfPoints="2601" NumberOfPolys="2500">
			<Points>
				<DataArray type="Float32" NumberOfComponents="3" format="ascii">
 0 0 0 0.02 0 0 0.04 0 0 0.06 0 0 0.08 0 0 0.1 0 0 0.12 0 0 0.14 0 0 0.16 0 0 0.18 0 0 0.2 0 0 0.22 0 0 0.24 0 0 0.26 0 0 0.28 0 0 0.3 0 0 0.32 0 0 0.34 0 0 0.36 0 0 0.38 0 0 0.4 0 0 0.42 0 0 0.44 0 0 0.46 0 0 0.48 0 0 0.5 0 0 0.52 0 0 0.54 0 0 0.56 0 0 0.58 0 0 0.6 0 0 0.62 0 0 0.64 0 0 0.66 0 0 0.68 0 0 0.7 0 0 0.72 0 0 0.74 0 0 0.76 0 0 0.78 0 0 0.8 0 0 0.82 0 0 0.84 0 0 0.86 0 0 0.88 0 0 0.9 0 0 0.92 0 0 0.94 0 0 0.96 0 0 0.98 0 0 1 0 0 0 0.02 0 0.02 0.02 0 0.04 0.02 0 0.06 0.02 0 0.08 0.02 0 0.1 0.02 0 0.12 0.02 0 0.14 0.02 0 0.16 0.02 0 0.18 0.02 0 0.2 0.02 0 0.22 0.02 0 0.24 0.02 0 0.26 0.02 0 0.28 0.02 0 0.3 0.02 0 0.32 0.02 0 0.34 0.02 0 0.36 0.02 0 0.38 0.02 0 0.4 0.02 0 0.42 0.02 0 0.44 0.02 0 0.46 0.02 0 0.48 0.02 0 0.5 0.02 0 0.52 0.02 0 0.54 0.02 0 0.56 0.02 0 0.58 0.02 0 0.6 0.02 0 0.62 0.02 0 0.64 0.02 0 0.66 0.02 0 0.68 0.02 0 0.7 0.02 0 0.72 0.02 0 0.74 0.02 0 0.76 0.02 0 0.78 0.02 0 0.8 0.02 0 0.82 0.02 0 0.84 0.02 0 0.86 0.02 0 0.88 0.02 0 0.9 0.02 0 0.92 0.02 0 0.94 0.02 0 0.96 0.02 0 0.98 0.02 0 1 0.02 0 0 0.04 0 0.02 0.04 0 0.04 0.04 0 0.06 0.04 0 0.08 0.04 0 0.1 0.04 0 0.12 0.04 0 0.14 0.04 0 0.16 0.04 0 0.18 0.04 0 0.2 0.04 0 0.22 0.04 0 0.24 0.04 0 0.26 0.04 0 0.28 0.04 0 0.3 0.04 0 0.32 0.04 0 0.34 0.04 0 0.36 0.04 0 0.38 0.04 0 0.4 0.04 0 0.42 0.04 0 0.44 0.04 0 0.46 0.04 0 0.48 0.04 0 0.5 0.04 0 0.52 0.04 0 0.54 0.04 0 0.56 0.04 0 0.58 0.04 0 0.6 0.04 0 0.62 0.04 0 0.64 0.04 0 0.66 0.04 0 0.68 0.04 0 0.7 0.04 0 0.72 0.04 0 0.74 0.04 0 0.76 0.04 0 0.78 0.04 0 0.8 0.04 0 0.82 0.04 0 0.84 0.04 0 0.86 0.04 0 0.88 0.04 0 0.9 0.04 0 0.92 0.04 0 0.94 0.04 0 0.96 0.04 0 0.98 0.04 0 1 0.04 0 0 0.06 0 0.02 0.06 0 0.04 0.06 0 0.06 0.06 0 0.08 0.06 0 0.1 0.06 0 0.12 0.06 0 0.14 0.06 0 0.16 0.06 0 0.18 0.06 0 0.2 0.06 0 0.22 0.06 0 0.24 0.06 0 0.26 0.06 0 0.28 0.06 0 0.3 0.06 0 0.32 0.06 0 0.34 0.06 0 0.36 0.06 0 0.38 0.06 0 0.4 0.06 0 0.42 0.06 0 0.44 0.06 0 0.46 0.06 0 0.48 0.06 0 0.5 0.06 0 0.52 0.06 0 0.54 0.06 0 0.56 0.06 0 0.58 0.06 0 0.6 0.06 0 0.62 0.06 0 0.64 0.06 0 0.66 0.06 0 0.68 0.06 0 0.7 0.06 0 0.72 0.06 0 0.74 0.06 0 0.76 0.06 0 0.78 0.06 0 0.8 0.06 0 0.82 0.06 0 0.84 0.06 0 0.86 0.06 0 0.88 0.06 0 0.9 0.06 0 0.92 0.06 0 0.94 0.06 0 0.96 0.06 0 0.98 0.06 0 1 0.06 0 0 0.08 0 0.02 0.08 0 0.04 0.08 0 0.06 0.08 0 0.08 0.08 0 0.1 0.08 0 0.12 0.08 0 0.14 0.08 0 0.16 0.08 0 0.18 0.08 0 0.2 0.08 0 0.22 0.08 0 0.24 0.08 0 0.26 0.08 0 0.28 0.08 0 0.3 0.08 0 0.32 0.08 0 0.34 0.08 0 0.36 0.08 0 0.38 0.08 0 0.4 0.08 0 0.42 0.08 0 0.44 0.08 0 0.46 0.08 0 0.48 0.08 0 0.5 0.08 0 0.52 0.08 0 0.54 0.08 0 0.56 0.08 0 0.58 0.08 0 0.6 0.08 0 0.62 0.08 0 0.64 0.08 0 0.66 0.08 0 0.68 0.08 0 0.7 0.08 0 0.72 0.08 0 0.74 0.08 0 0.76 0.08 0 0.78 0.08 0 0.8 0.08 0 0.82 0.08 0 0.84 0.08 0 0.86 0.08 0 0.88 0.08 0 0.9 0.08 0 0.92 0.08 0 0.94 0.08 0 0.96 0.08 0 0.98 0.08 0 1 0.08 0 0 0.1 0 0.02 0.1 0 0.04 0.1 0 0.06 0.1 0 0.08 0.1 0 0.1 0.1 0 0.12 0.1 0 0.14 0.1 0 0.16 0.1 0 0.18 0.1 0 0.2 0.1 0 0.22 0.1 0 0.24 0.1 0 0.26 0.1 0 0.28 0.1 0 0.3 0.1 0 0.32 0.1 0 0.34 0.1 0 0.36 0.1 0 0.38 0.1 0 0.4 0.1 0 0.42 0.1 0 0.44 0.1 0 0.46 0.1 0 0.48 0.1 0 0.5 0.1 0 0.52 0.1 0 0.54 0.1 0 0.56 0.1 0 0.58 0.1 0 0.6 0.1 0 0.62 0.1 0 0.64 0.1 0 0.66 0.1 0 0.68 0.1 0 0.7 0.1 0 0.72 0.1 0 0.74 0.1 0 0.76 0.1 0 0.78 0.1 0 0.8 0.1 0 0.82 0.1 0 0.84 0.1 0 0.86 0.1 0 0.88 0.1 0 0.9 0.1 0 0.92 0.1 0 0.94 0.1 0 0.96 0.1 0 0.98 0.1 0 1 0.1 0 0 0.12 0 0.02 0.12 0 0.04 0.12 0 0.06 0.12 0 0.08 0.12 0 0.1 0.12 0 0.12 0.12 0 0.14 0.12 0 0.16 0.12 0 0.18 0.12 0 0.2 0.12 0 0.22 0.12 0 0.24 0.12 0 0.26 0.12 0 0.28 0.12 0 0.3 0.12 0 0.32 0.12 0 0.34 0.12 0 0.36 0.12 0 0.38 0.12 0 0.4 0.12 0 0.42 0.12 0 0.44 0.12 0 0.46 0.12 0 0.48 0.12 0 0.5 0.12 0 0.52 0.12 0 0.54 0.12 0 0.56 0.12 0 0.58 0.12 0 0.6 0.12 0 0.62 0.12 0 0.64 0.12 0 0.66 0.12 0 0.68 0.12 0 0.7 0.12 0 0.72 0.12 0 0.74 0.12 0 0.76 0.12 0 0.78 0.12 0 0.8 0.12 0 0.82 0.12 0 0.84 0.12 0 0.86 0.12 0 0.88 0.12 0 0.9 0.12 0 0.92 0.12 0 0.94 0.12 0 0.96 0.12 0 0.98 0.12 0 1 0.12 0 0 0.14 0 0.02 0.14 0 0.04 0.14 0 0.06 0.14 0 0.08 0.14 0 0.1 0.14 0 0.12 0.14 0 0.14 0.14 0 0.16 0.14 0 0.18 0.14 0 0.2 0.14 0 0.22 0.14 0 0.24 0.14 0 0.26 0.14 0 0.28 0.14 0 0.3 0.14 0 0.32 0.14 0 0.34 0.14 0 0.36 0.14 0 0.38 0.14 0 0.4 0.14 0 0.42 0.14 0 0.44 0.14 0 0.46 0.14 0 0.48 0.14 0 0.5 0.14 0 0.52 0.14 0 0.54 0.14 0 0.56 0.14 0 0.58 0.14 0 0.6 0.14 0 0.62 0.14 0 0.64 0.14 0 0.66 0.14 0 0.68 0.14 0 0.7 0.14 0 0.72 0.14 0 0.74 0.14 0 0.76 0.14 0 0.78 0.14 0 0.8 0.14 0 0.82 0.14 0 0.84 0.14 0 0.86 0.14 0 0.88 0.14 0 0.9 0.14 0 0.92 0.14 0 0.94 0.14 0 0.96 0.14 0 0.98 0.14 0 1 0.14 0 0 0.16 0 0.02 0.16 0 0.04 0.16 0 0.06 0.16 0 0.08 0.16 0 0.1 0.16 0 0.12 0.16 0 0.14 0.16 0 0.16 0.16 0 0.18 0.16 0 0.2 0.16 0 0.22 0.16 0 0.24 0.16 0 0.26 0.16 0 0.28 0.16 0 0.3 0.16 0 0.32 0.16 0 0.34 0.16 0 0.36 0.16 0 0.38 0.16 0 0.4 0.16 0 0.42 0.16 0 0.44 0.16 0 0.46 0.16 0 0.48 0.16 0 0.5 0.16 0 0.52 0.16 0 0.54 0.16 0 0.56 0.16 0 0.58 0.16 0 0.6 0.16 0 0.62 0.16 0 0.64 0.16 0 0.66 0.16 0 0.68 0.16 0 0.7 0.16 0 0.72 0.16 0 0.74 0.16 0 0.76 0.16 0 0.78 0.16 0 0.8 0.16 0 0.82 0.16 0 0.84 0.16 0 0.86 0.16 0 0.88 0.16 0 0.9 0.16 0 0.92 0.16 0 0.94 0.16 0 0.96 0.16 0 0.98 0.16 0 1 0.16 0 0 0.18 0 0.02 0.18 0 0.04 0.18 0 0.06 0.18 0 0.08 0.18 0 0.1 0.18 0 0.12 0.18 0 0.14 0.18 0 0.16 0.18 0 0.18 0.18 0 0.2 0.18 0 0.22 0.18 0 0.24 0.18 0 0.26 0.18 0 0.28 0.18 0 0.3 0.18 0 0.32 0.18 0 0.34 0.18 0 0.36 0.18 0 0.38 0.18 0 0.4 0.18 0 0.42 0.18 0 0.44 0.18 0 0.46 0.18 0 0.48 0.18 0 0.5 0.18 0 0.52 0.18 0 0.54 0.18 0 0.56 0.18 0 0.58 0.18 0 0.6 0.18 0 0.62 0.18 0 0.64 0.18 0 0.66 0.18 0 0.68 0.18 0 0.7 0.18 0 0.72 0.18 0 0.74 0.18 0 0.76 0.18 0 0.78 0.18 0 0.8 0.18 0 0.82 0.18 0 0.84 0.18 0 0.86 0.18 0 0.88 0.18 0 0.9 0.18 0 0.92 0.18 0 0.94 0.18 0 0.96 0.18 0 0.98 0.18 0 1 0.18 0 0 0.2 0 0.02 0.2 0 0.04 0.2 0 0.06 0.2 0 0.08 0.2 0 0.1 0.2 0 0.12 0.2 0 0.14 0.2 0 0.16 0.2 0 0.18 0.2 0 0.2 0.2 0 0.22 0.2 0 0.24 0.2 0 0.26 0.2 0 0.28 0.2 0 0.3 0.2 0 0.32 0.2 0 0.34 0.2 0 0.36 0.2 0 0.38 0.2 0 0.4 0.2 0 0.42 0.2 0 0.44 0.2 0 0.46 0.2 0 0.48 0.2 0 0.5 0.2 0 0.52 0.2 0 0.54 0.2 0 0.56 0.2 0 0.58 0.2 0 0.6 0.2 0 0.62 0.2 0 0.64 0.2 0 0.66 0.2 0 0.68 0.2 0 0.7 0.2 0 0.72 0.2 0 0.74 0.2 0 0.76 0.2 0 0.78 0.2 0 0.8 0.2 0 0.82 0.2 0 0.84 0.2 0 0.86 0.2 0 0.88 0.2 0 0.9 0.2 0 0.92 0.2 0 0.94 0.2 0 0.96 0.2 0 0.98 0.2 0 1 0.2 0 0 0.22 0 0.02 0.22 0 0.04 0.22 0 0.06 0.22 0 0.08 0.22 0 0.1 0.22 0 0.12 0.22 0 0.14 0.22 0 0.16 0.22 0 0.18 0.22 0 0.2 0.22 0 0.22 0.22 0 0.24 0.22 0 0.26 0.22 0 0.28 0.22 0 0.3 0.22 0 0.32 0.22 0 0.34 0.22 0 0.36 0.22 0 0.38 0.22 0 0.4 0.22 0 0.42 0.22 0 0.44 0.22 0 0.46 0.22 0 0.48 0.22 0 0.5 0.22 0 0.52 0.22 0 0.54 0.22 0 0.56 0.22 0 0.58 0.22 0 0.6 0.22 0 0.62 0.22 0 0.64 0.22 0 0.66 0.22 0 0.68 0.22 0 0.7 0.22 0 0.72 0.22 0 0.74 0.22 0 0.76 0.22 0 0.78 0.22 0 0.8 0.22 0 0.82 0.22 0 0.84 0.22 0 0.86 0.22 0 0.88 0.22 0 0.9 0.22 0 0.92 0.22 0 0.94 0.22 0 0.96 0.22 0 0.98 0.22 0 1 0.22 0 0 0.24 0 0.02 0.24 0 0.04 0.24 0 0.06 0.24 0 0.08 0.24 0 0.1 0.24 0 0.12 0.24 0 0.14 0.24 0 0.16 0.24 0 0.18 0.24 0 0.2 0.24 0 0.22 0.24 0 0.24 0.24 0 0.26 0.24 0 0.28 0.24 0 0.3 0.24 0 0.32 0.24 0 0.34 0.24 0 0.36 0.24 0 0.38 0.24 0 0.4 0.24 0 0.42 0.24 0 0.44 0.24 0 0.46 0.24 0 0.48 0.24 0 0.5 0.24 0 0.52 0.24 0 0.54 0.24 0 0.56 0.24 0 0.58 0.24 0 0.6 0.24 0 0.62 0.24 0 0.64 0.24 0 0.66 0.24 0 0.68 0.24 0 0.7 0.24 0 0.72 0.24 0 0.74 0.24 0 0.76 0.24 0 0.78 0.24 0 0.8 0.24 0 0.82 0.24 0 0.84 0.24 0 0.86 0.24 0 0.88 0.24 0 0.9 0.24 0 0.92 0.24 0 0.94 0.24 0 0.96 0.24 0 0.98 0.24 0 1 0.24 0 0 0.26 0 0.02 0.26 0 0.04 0.26 0 0.06 0.26 0 0.08 0.26 0 0.1 0.26 0 0.12 0.26 0 0.14 0.26 0 0.16 0.26 0 0.18 0.26 0 0.2 0.26 0 0.22 0.26 0 0.24 0.26 0 0.26 0.26 0 0.28 0.26 0 0.3 0.26 0 0.32 0.26 0 0.34 0.26 0 0.36 0.26 0 0.38 0.26 0 0.4 0.26 0 0.42 0.26 0 0.44 0.26 0 0.46 0.26 0 0.48 0.26 0 0.5 0.26 0 0.52 0.26 0 0.54 0.26 0 0.56 0.26 0 0.58 0.26 0 0.6 0.26 0 0.62 0.26 0 0.64 0.26 0 0.66 0.26 0 0.68 0.26 0 0.7 0.26 0 0.72 0.26 0 0.74 0.26 0 0.76 0.26 0 0.78 0.26 0 0.8 0.26 0 0.82 0.26 0 0.84 0.26 0 0.86 0.26 0 0.88 0.26 0 0.9 0.26 0 0.92 0.26 0 0.94 0.26 0 0.96 0.26 0 0.98 0.26 0 1 0.26 0 0 0.28 0 0.02 0.28 0 0.04 0.28 0 0.06 0.28 0 0.08 0.28 0 0.1 0.28 0 0.12 0.28 0 0.14 0.28 0 0.16 0.28 0 0.18 0.28 0 0.2 0.28 0 0.22 0.28 0 0.24 0.28 0 0.26 0.28 0 0.28 0.28 0 0.3 0.28 0 0.32 0.28 0 0.34 0.28 0 0.36 0.28 0 0.38 0.28 0 0.4 0.28 0 0.42 0.28 0 0.44 0.28 0 0.46 0.28 0 0.48 0.28 0 0.5 0.28 0 0.52 0.28 0 0.54 0.28 0 0.56 0.28 0 0.58 0.28 0 0.6 0.28 0 0.62 0.28 0 0.64 0.28 0 0.66 0.28 0 0.68 0.28 0 0.7 0.28 0 0.72 0.28 0 0.74 0.28 0 0.76 0.28 0 0.78 0.28 0 0.8 0.28 0 0.82 0.28 0 0.84 0.28 0 0.86 0.28 0 0.88 0.28 0 0.9 0.28 0 0.92 0.28 0 0.94 0.28 0 0.96 0.28 0 0.98 0.28 0 1 0.28 0 0 0.3 0 0.02 0.3 0 0.04 0.3 0 0.06 0.3 0 0.08 0.3 0 0.1 0.3 0 0.12 0.3 0 0.14 0.3 0 0.16 0.3 0 0.18 0.3 0 0.2 0.3 0 0.22 0.3 0 0.24 0.3 0 0.26 0.3 0 0.28 0.3 0 0.3 0.3 0 0.32 0.3 0 0.34 0.3 0 0.36 0.3 0 0.38 0.3 0 0.4 0.3 0 0.42 0.3 0 0.44 0.3 0 0.46 0.3 0 0.48 0.3 0 0.5 0.3 0 0.52 0.3 0 0.54 0.3 0 0.56 0.3 0 0.58 0.3 0 0.6 0.3 0 0.62 0.3 0 0.64 0.3 0 0.66 0.3 0 0.68 0.3 0 0.7 0.3 0 0.72 0.3 0 0.74 0.3 0 0.76 0.3 0 0.78 0.3 0 0.8 0.3 0 0.82 0.3 0 0.84 0.3 0 0.86 0.3 0 0.88 0.3 0 0.9 0.3 0 0.92 0.3 0 0.94 0.3 0 0.96 0.3 0 0.98 0.3 0 1 0.3 0 0 0.32 0 0.02 0.32 0 0.04 0.32 0 0.06 0.32 0 0.08 0.32 0 0.1 0.32 0 0.12 0.32 0 0.14 0.32 0 0.16 0.32 0 0.18 0.32 0 0.2 0.32 0 0.22 0.32 0 0.24 0.32 0 0.26 0.32 0 0.28 0.32 0 0.3 0.32 0 0.32 0.32 0 0.34 0.32 0 0.36 0.32 0 0.38 0.32 0 0.4 0.32 0 0.42 0.32 0 0.44 0.32 0 0.46 0.32 0 0.48 0.32 0 0.5 0.32 0 0.52 0.32 0 0.54 0.32 0 0.56 0.32 0 0.58 0.32 0 0.6 0.32 0 0.62 0.32 0 0.64 0.32 0 0.66 0.32 0 0.68 0.32 0 0.7 0.32 0 0.72 0.32 0 0.74 0.32 0 0.76 0.32 0 0.78 0.32 0 0.8 0.32 0 0.82 0.32 0 0.84 0.32 0 0.86 0.32 0 0.88 0.32 0 0.9 0.32 0 0.92 0.32 0 0.94 0.
[...]
			<PointData Scalars="VitesseX">
				<DataArray Name="VitesseX" type="Float32" format="ascii">
 0 0 0 0 0 0 0 0 0 0 0 0 0 0 0 0 0 0 0 0 0 0 0 0 0 0 0 0 0 0 0 0 0 0 0 0 0 0 0 0 0 0 0 0 0 0 0 0 0 0 0 0 0.000244783 0.00097518 0.00217978 0.00383939 0.00592779 0.00841203 0.0112529 0.0144056 0.0178205 0.0214437 0.0252181 0.0290844 0.0329814 0.0368479 0.0406233 0.0442479 0.0476646 0.0508197 0.0536633 0.0561506 0.0582424 0.0599057 0.0611142 0.0618524 0.0620972 0.0618551 0.061129 0.0599223 0.0582635 0.0561754 0.0536909 0.0508491 0.0476948 0.044278 0.0406523 0.0368752 0.033006 0.0291062 0.025237 0.0214593 0.0178329 0.0144151 0.0112597 0.00841664 0.00593067 0.003841 0.00218056 0.000975518 0.00024483 2.65619e-27 0 0.000485572 0.00193409 0.0043229 0.00761328 0.0117531 0.0166767 0.0223065 0.0285536 0.0353198 0.0424986 0.0499773 0.0576385 0.065361 0.0730244 0.0805095 0.0876981 0.0944772 0.10074 0.106389 0.111333 0.115496 0.118812 0.121227 0.122717 0.123214 0.122758 0.121344 0.118963 0.115689 0.11156 0.106641 0.101009 0.0947536 0.0879732 0.0807752 0.0732734 0.0655868 0.057838 0.0501485 0.0426399 0.0354318 0.0286384 0.0223673 0.0167174 0.011778 0.00762685 0.00432909 0.00193637 0.000485877 5.27024e-27 0 0.000718589 0.00286174 0.00639597 0.0112631 0.0173857 0.0246666 0.0329907 0.0422268 0.0522297 0.0628425 0.073899 0.0852259 0.0966441 0.107976 0.119048 0.129685 0.139719 0.148993 0.157362 0.164694 0.170872 0.175799 0.179396 0.181637 0.182385 0.18174 0.179674 0.176164 0.171336 0.165239 0.157969 0.14964 0.140384 0.130346 0.119687 0.108575 0.0971875 0.0857061 0.074311 0.0631824 0.0524992 0.0424308 0.0331368 0.0247644 0.0174456 0.0112956 0.00641073 0.0028671 0.000719303 7.8009e-27 0 0.000940164 0.00374355 0.00836633 0.0147313 0.0227369 0.0322557 0.0431371 0.0552096 0.0682836 0.0821546 0.0966057 0.111411 0.126337 0.141153 0.155632 0.169545 0.182675 0.194818 0.205781 0.215391 0.223498 0.229971 0.234707 0.237683 0.238677 0.237873 0.235203 0.230629 0.224334 0.216375 0.206876 0.195986 0.183877 0.17074 0.156785 0.142234 0.127318 0.112278 0.0973489 0.0827676 0.0687695 0.0555773 0.0434005 0.0324319 0.0228448 0.0147898 0.00839284 0.0037531 0.000941435 1.02083e-26 0 0.00114681 0.00456565 0.010203 0.0179634 0.0277224 0.0393244 0.0525857 0.0672972 0.0832285 0.100131 0.11774 0.135782 0.153972 0.172031 0.189684 0.206653 0.222672 0.237492 0.250881 0.262627 0.272543 0.280472 0.286285 0.289968 0.291202 0.29027 0.287052 0.281498 0.273848 0.264163 0.252591 0.239316 0.224547 0.208519 0.191486 0.173719 0.155504 0.137135 0.118899 0.101087 0.0839866 0.067871 0.0529966 0.0395992 0.0278905 0.0180544 0.0102442 0.00458038 0.00114877 1.24546e-26 0 0.00133529 0.00531514 0.011877 0.0209083 0.0322636 0.0457614 0.0611876 0.0782993 0.0968289 0.116487 0.136968 0.157954 0.179113 0.200124 0.220668 0.240421 0.259077 0.276344 0.291951 0.305653 0.317232 0.326504 0.333316 0.337664 0.339132 0.338104 0.334404 0.327968 0.319095 0.307845 0.294391 0.278946 0.261752 0.243084 0.223239 0.202534 0.1813 0.159885 0.138623 0.117852 0.0979106 0.0791181 0.0617738 0.0461532 0.0325032 0.0210378 0.0119355 0.0053359 0.00133805 1.45044e-26 0 0.00150263 0.00598024 0.0133621 0.0235197 0.036289 0.0514653 0.0688073 0.0880427 0.108871 0.130966 0.153987 0.177578 0.201365 0.224989 0.248095 0.270318 0.291315 0.310757 0.328342 0.343792 0.356862 0.367341 0.375058 0.380018 0.381711 0.380617 0.376508 0.369305 0.359361 0.346732 0.331616 0.314249 0.294905 0.273892 0.251545 0.228223 0.2043 0.18017 0.156209 0.132798 0.110322 0.0891411 0.0695938 0.0519907 0.0366101 0.0236931 0.0134401 0.00600774 0.00150627 1.63255e-26 0 0.00164621 0.00655054 0.0146348 0.0257565 0.0397352 0.0563462 0.0753251 0.0963742 0.119164 0.14334 0.16853 0.194344 0.220376 0.246234 0.271533 0.295873 0.318879 0.340193 0.359482 0.376442 0.390805 0.402338 0.410853 0.41636 0.418268 0.417138 0.412703 0.404859 0.394011 0.380214 0.363682 0.344673 0.323485 0.300458 0.27596 0.250383 0.224142 0.197669 0.171379 0.14569 0.121025 0.0977822 0.0763331 0.0570195 0.0401465 0.0259784 0.0147344 0.00658532 0.00165081 1.78894e-26 0 0.00176377 0.00701709 0.0156753 0.0275837 0.0425481 0.0603274 0.0806385 0.103162 0.127547 0.153414 0.180366 0.207989 0.235848 0.263526 0.290613 0.316683 0.341335 0.364186 0.384879 0.403089 0.418527 0.430944 0.440134 0.446114 0.448228 0.447087 0.442416 0.434069 0.422502 0.407765 0.390086 0.369738 0.347043 0.322363 0.296098 0.268668 0.240515 0.212109 0.183894 0.156324 0.129852 0.104906 0.081886 0.0611604 0.0430566 0.0278577 0.0157979 0.00705952 0.00176936 1.91714e-26 0 0.00185347 0.00737258 0.0164671 0.0289724 0.0446834 0.0633463 0.0846638 0.1083 0.133887 0.161029 0.189311 0.218299 0.247537 0.276592 0.305037 0.332422 0.358329 0.382358 0.404132 0.423312 0.439591 0.452706 0.46244 0.468808 0.471118 0.469992 0.465177 0.456469 0.444378 0.428944 0.410403 0.389044 0.365204 0.339264 0.311643 0.282784 0.253159 0.223262 0.193559 0.164534 0.136665 0.1104 0.086165 0.0643484 0.0452945 0.0293012 0.0166139 0.00742286 0.00186008 2.01515e-26 0 0.0019141 0.00761302 0.0170028 0.0299124 0.0461293 0.0653906 0.0873896 0.11178 0.138181 0.166186 0.195368 0.22528 0.255452 0.285441 0.314807 0.343083 0.369838 0.394666 0.417173 0.437006 0.453852 0.467436 0.47753 0.484153 0.486581 0.485488 0.480628 0.47171 0.459298 0.443419 0.424317 0.402289 0.37768 0.350888 0.322346 0.292512 0.261875 0.230949 0.20022 0.170187 0.141351 0.114176 0.0891024 0.0665329 0.0468251 0.0302863 0.0171694 0.00766962 0.00192152 2.08144e-26 0 0.00194391 0.00772837 0.0172537 0.0303425 0.0467767 0.0662878 0.0885646 0.113256 0.13998 0.168326 0.197863 0.228144 0.258701 0.289085 0.318851 0.347534 0.374707 0.399951 0.422869 0.443107 0.460342 0.474292 0.484724 0.491633 0.494363 0.493366 0.488633 0.479704 0.467226 0.451197 0.431871 0.409544 0.384567 0.357343 0.328316 0.297954 0.266758 0.235256 0.203947 0.173341 0.143953 0.116259 0.0907123 0.0677216 0.0476497 0.0308111 0.0174617 0.00779773 0.00195296 2.11496e-26 0 0.0019439 0.00772821 0.0172528 0.03034 0.0467713 0.0662776 0.0885475 0.11323 0.139943 0.168277 0.197801 0.228068 0.258617 0.288995 0.318754 0.34744 0.374619 0.399868 0.422799 0.443053 0.460303 0.474267 0.484711 0.491628 0.494363 0.493367 0.488638 0.479715 0.467245 0.451225 0.431906 0.40959 0.384623 0.357403 0.328376 0.298011 0.266812 0.235303 0.203988 0.173373 0.143976 0.116275 0.0907218 0.0677275 0.0476533 0.0308127 0.0174623 0.00779785 0.00195297 2.11518e-26 0 0.00191251 0.00760048 0.0169611 0.0298162 0.0459488 0.0650926 0.0869412 0.111151 0.137348 0.165133 0.194085 0.223776 0.253749 0.283559 0.312789 0.340988 0.367723 0.392591 0.415213 0.435228 0.452318 0.466202 0.476644 0.483612 0.486558 0.485737 0.481418 0.472846 0.460775 0.445178 0.42629 0.404409 0.37987 0.353078 0.324465 0.2945 0.263687 0.232547 0.201588 0.171315 0.142241 0.114847 0.0895805 0.0668522 0.0470194 0.0303894 0.0172142 0.00768319 0.00192323 2.08212e-26 0 0.00185115 0.00735435 0.0164063 0.0288321 0.0444196 0.0629099 0.0840063 0.107378 0.132664 0.15948 0.187423 0.216089 0.245034 0.273827 0.302078 0.329348 0.355225 0.379322 0.401266 0.420714 0.437354 0.450912 0.461156 0.468028 0.471086 0.470344 0.466275 0.458051 0.446437 0.4314 0.413163 0.392007 0.368265 0.342329 0.314615 0.285577 0.255705 0.225509 0.195482 0.166115 0.137914 0.111343 0.0868374 0.0647931 0.0455641 0.0294448 0.0166761 0.00744166 0.00186244 2.01628e-26 0 0.00176056 0.00699185 0.0155913 0.0273898 0.0421832 0.0597241 0.07973 0.101887 0.125856 0.151272 0.177757 0.204931 0.232384 0.259708 0.28653 0.312435 0.337048 0.359993 0.38092 0.399501 0.415439 0.42847 0.438367 0.445047 0.448188 0.447585 0.443928 0.436246 0.425334 0.411141 0.393877 0.373807 0.35125 0.326568 0.30017 0.272494 0.244005 0.215194 0.186532 0.158496 0.13157 0.106204 0.0828106 0.0617707 0.0434262 0.0280547 0.0158833 0.00708529 0.0017726 1.9187e-26 0 0.00164216 0.00651869 0.014529 0.0255121 0.0392749 0.0555852 0.0741796 0.0947669 0.117032 0.140639 0.165242 0.190489 0.216005 0.24142 0.266383 0.290519 0.313478 0.334913 0.354497 0.371925 0.38692 0.399231 0.408639 0.415034 0.418224 0.417786 0.414611 0.407607 0.39758 0.384465 0.368454 0.349791 0.328773 0.305742 0.281074 0.255185 0.228517 0.201537 0.174689 0.148416 0.123183 0.099411 0.0774934 0.0577899 0.0406123 0.0262256 0.0148415 0.00661765 0.00165487 1.79091e-26 0 0.0014978 0.00594226 0.0132359 0.0232284 0.0357404 0.0505585 0.0674423 0.086128 0.106331 0.127749 0.150077 0.172993 0.196162 0.219258 0.241964 0.263948 0.284889 0.304478 0.322416 0.338426 0.352253 0.363659 0.372441 0.378467 0.381667 0.381422 0.378787 0.372587 0.363613 0.351792 0.337293 0.320337 0.301191 0.28017 0.257622 0.233929 0.209496 0.184757 0.160135 0.136033 0.112882 0.0910731 0.0709713 0.0529059 0.0371621 0.0239859 0.0135673 0.00604612 0.00151111 1.63493e-26 0 0.00132976 0.00527161 0.0117326 0.0205748 0.0316354 0.0447231 0.0596244 0.0761069 0.0939213 0.112804 0.132495 0.152711 0.173164 0.193569 0.213656 0.233136 0.251732 0.269167 0.285181 0.299532 0.31198 0.322313 0.330346 0.335926 0.339092 0.339071 0.337023 0.331741 0.323974 0.313641 0.300889 0.285909 0.268939 0.250258 0.230181 0.209053 0.187237 0.165124 0.143103 0.121544 0.10083 0.0813222 0.0633458 0.0471965 0.0331327 0.0213719 0.0120806 0.00537971 0.00134356 1.45319e-26 0 0.00114067 0.00451725 0.0100425 0.0175929 0.0270244 0.0381709 0.050849 0.0648614 0.0799986 0.0960408 0.112771 0.129959 0.147365 0.164755 0.181901 0.198568 0.214529 0.22954 0.243385 0.255855 0.266738 0.27585 0.283021 0.288107 0.291118 0.291466 0.289934 0.285729 0.279286 0.270614 0.259815 0.247052 0.232526 0.216479 0.199186 0.180948 0.162088 0.142944 0.123865 0.105178 0.0872221 0.0703134 0.0547378 0.0407554 0.0285895 0.018425 0.0104049 0.00462892 0.00115489 1.24855e-26 0 0.000933496 0.00369103 0.00819237 0.0143298 0.0219801 0.031005 0.0412543 0.0525687 0.0647822 0.0777224 0.0912211 0.1051 0.119177 0.13327 0.147205 0.160796 0.173867 0.186223 0.197685 0.208083 0.217242 0.225 0.231211 0.235742 0.238551 0.239307 0.238298 0.235263 0.230255 0.223389 0.214721 0.204378 0.192527 0.179366 0.165125 0.150059 0.134444 0.118566 0.10272 0.0871923 0.0722698 0.058218 0.0452833 0.0336825 0.0236012 0.0151907 0.00856674 0.00380562 0.000948063 1.02423e-26 0 0.000711506 0.00280593 0.0062112 0.0108367 0.0165821 0.0233385 0.0309915 0.0394225 0.048512 0.0581364 0.0681812 0.0785252 0.0890413 0.0996112 0.110111 0.12041 0.130382 0.139888 0.148795 0.156969 0.16427 0.170565 0.175731 0.179652 0.182244 0.183375 0.182965 0.181128 0.177653 0.172709 0.166315 0.15856 0.149571 0.139503 0.128536 0.116875 0.104743 0.0923727 0.0800053 0.0678712 0.0562076 0.0452287 0.0351321 0.0260896 0.0182472 0.0117204 0.00659501 0.00292278 0.000726335 7.83749e-27 0 0.000478188 0.00187586 0.00413024 0.00716873 0.0109152 0.0152922 0.0202224 0.0256303 0.0314445 0.0375955 0.0440211 0.0506578 0.0574417 0.0643129 0.0712054 0.0780471 0.084764 0.0912703 0.0974873 0.103319 0.108658 0.113404 0.117458 0.12072 0.123099 0.124517 0.124844 0.12415 0.122318 0.119374 0.11536 0.11032 0.104337 0.0975187 0.0899954 0.0819185 0.0734548 0.0647798 0.0560763 0.04752 0.0392905 0.0315501 0.0244437 0.0180966 0.0126122 0.00806893 0.0045209 0.00199433 0.000493204 5.30895e-27 0 0.000237217 0.000915488 0.00198235 0.00338393 0.00506946 0.00699373 0.0091181 0.0114115 0.0138515 0.0164249 0.019123 0.021941 0.0248803 0.0279365 0.0311078 0.0343819 0.0377407 0.0411459 0.0445751 0.0479788 0.0512826 0.0544179 0.0573095 0.0598767 0.0620375 0.0636958 0.0647972 0.0652782 0.0650888 0.0642297 0.0626598 0.0604184 0.057537 0.0540757 0.0501119 0.0457413 0.0410726 0.0362223 0.0313117 0.0264611 0.0217873 0.0173982 0.0133866 0.00982946 0.00678537 0.00429408 0.00237711 0.00103492 0.000252345 2.69646e-27 0 -7.55723e-06 -5.96725e-05 -0.00019738 -0.000455439 -0.000858531 -0.00141902 -0.00213644 -0.00299687 -0.00397296 -0.00502494 -0.00610212 -0.00714988 -0.00810745 -0.00891549 -0.00951384 -0.00985756 -0.00990917 -0.00964905 -0.00906045 -0.00813674 -0.00691336 -0.00543186 -0.00374404 -0.00190968 -3.8374e-07 0.00190873 0.00374239 0.00542739 0.00690558 0.00812477 0.00904522 0.00964217 0.00990953 0.0098589 0.00951398 0.00891345 0.00810716 0.0071504 0.00610299 0.00502483 0.00397216 0.00299633 0.00213579 0.00141892 0.000858307 0.000455105 0.000197448 5.96898e-05 7.55702e-06 4.11565e-29 0 -0.000252345 -0.00103491 -0.00237703 -0.00429436 -0.00678539 -0.00982958 -0.0133871 -0.0173991 -0.0217885 -0.0264609 -0.03131 -0.0362213 -0.0410724 -0.0457434 -0.0501124 -0.0540756 -0.0575382 -0.0604202 -0.0626691 -0.0642429 -0.0650973 -0.0652813 -0.0647973 -0.0636961 -0.0620379 -0.0598785 -0.0573125 -0.0544227 -0.0512847 -0.0479764 -0.04458 -0.0411534 -0.0377404 -0.0343816 -0.0311076 -0.0279367 -0.0248788 -0.0219398 -0.0191209 -0.0164233 -0.0138514 -0.0114118 -0.00911847 -0.0069938 -0.00506961 -0.00338421 -0.0019823 -0.000915467 -0.000237217 -2.61512e-27 0 -0.000493204 -0.00199431 -0.00452079 -0.00806923 -0.0126122 -0.0180967 -0.024444 -0.0315512 -0.0392926 -0.0475223 -0.0560764 -0.0647788 -0.0734543 -0.0819189 -0.0899958 -0.0975199 -0.104339 -0.11032 -0.115361 -0.119376 -0.122322 -0.124151 -0.124841 -0.124517 -0.1231 -0.120722 -0.11746 -0.113406 -0.108658 -0.103315 -0.0974858 -0.0912737 -0.0847647 -0.0780475 -0.071206 -0.0643154 -0.0574441 -0.0506588 -0.0440219 -0.0375955 -0.0314433 -0.0256304 -0.0202225 -0.0152923 -0.0109152 -0.00716897 -0.00413024 -0.00187584 -0.000478188 -5.23046e-27 0 -0.000726335 -0.00292276 -0.00659486 -0.0117205 -0.018247 -0.0260897 -0.0351324 -0.0452299 -0.0562091 -0.0678746 -0.0800056 -0.0923695 -0.104742 -0.116874 -0.128537 -0.139504 -0.149572 -0.158561 -0.166315 -0.172705 -0.177653 -0.181129 -0.182963 -0.183375 -0.182244 -0.179654 -0.175735 -0.170567 -0.164272 -0.156968 -0.148794 -0.13989 -0.130381 -0.120411 -0.110112 -0.0996141 -0.0890452 -0.0785269 -0.0681839 -0.0581381 -0.0485101 -0.0394224 -0.0309917 -0.0233388 -0.0165824 -0.0108371 -0.00621127 -0.0028059 -0.000711506 -7.76361e-27 0 -0.000948063 -0.00380559 -0.00856653 -0.0151906 -0.0236009 -0.0336825 -0.0452839 -0.0582191 -0.0722707 -0.0871944 -0.10272 -0.118562 -0.134442 -0.150059 -0.165124 -0.179365 -0.192527 -0.204379 -0.214722 -0.223392 -0.230259 -0.235264 -0.238297 -0.239307 -0.23855 -0.235745 -0.231213 -0.224998 -0.217243 -0.208085 -0.197685 -0.186222 -0.173864 -0.160798 -0.147205 -0.133269 -0.119177 -0.105099 -0.0912216 -0.0777229 -0.0647792 -0.052567 -0.0412544 -0.0310058 -0.0219806 -0.0143304 -0.00819257 -0.003691 -0.000933495 -1.01746e-26 0 -0.00115489 -0.0046289 -0.0104047 -0.0184247 -0.0285893 -0.0407555 -0.0547381 -0.0703138 -0.0872239 -0.10518 -0.123869 -0.142947 -0.162086 -0.180947 -0.199183 -0.216477 -0.232526 -0.247052 -0.259817 -0.270618 -0.279289 -0.285729 -0.289933 -0.291465 -0.291117 -0.288108 -0.283023 -0.27585 -0.266739 -0.255859 -0.24339 -0.229541 -0.214527 -0.198572 -0.181902 -0.164752 -0.147363 -0.129956 -0.112771 -0.0960411 -0.0799942 -0.0648572 -0.0508485 -0.038172 -0.0270249 -0.0175937 -0.0100429 -0.00451722 -0.00114066 -1.24252e-26 0 -0.00134357 -0.00537969 -0.0120804 -0.0213719 -0.0331336 -0.0471967 -0.0633458 -0.0813231 -0.100833 -0.121545 -0.143109 -0.165133 -0.187241 -0.209053 -0.23018 -0.250258 -0.268939 -0.28591 -0.30089 -0.313642 -0.323974 -0.331741 -0.337024 -0.339072 -0.339092 -0.335926 -0.330349 -0.322316 -0.31198 -0.299532 -0.285185 -0.269168 -0.251731 -0.233137 -0.213656 -0.193565 -0.173161 -0.152707 -0.132494 -0.112804 -0.0939159 -0.0761016 -0.0596236 -0.0447243 -0.0316355 -0.0205755 -0.0117331 -0.00527159 -0.00132976 -1.44799e-26 0 -0.00151111 -0.00604612 -0.0135671 -0.0239857 -0.037162 -0.0529045 -0.0709708 -0.0910731 -0.112882 -0.136033 -0.160135 -0.184765 -0.209504 -0.233928 -0.25762 -0.280168 -0.30119 -0.320336 -0.337293 -0.351793 -0.363614 -0.372588 -0.378788 -0.381423 -0.381667 -0.378467 -0.372441 -0.36366 -0.352254 -0.338428 -0.322417 -0.304477 -0.284889 -0.263949 -0.241964 -0.219256 -0.196163 -0.172993 -0.150078 -0.127748 -0.106325 -0.0861232 -0.0674419 -0.0505593 -0.0357399 -0.023229 -0.0132366 -0.00594225 -0.0014978 -1.63062e-26 0 -0.00165487 -0.00661766 -0.0148414 -0.0262247 -0.0406112 -0.057789 -0.0774933 -0.0994101 -0.123182 -0.148416 -0.174686 -0.201538 -0.228523 -0.255191 -0.281075 -0.305737 -0.328773 -0.349791 -0.368451 -0.384465 -0.39758 -0.407607 -0.414611 -0.417786 -0.418224 -0.415034 -0.408639 -0.399233 -0.386924 -0.371928 -0.354498 -0.334913 -0.313479 -0.290522 -0.266382 -0.24142 -0.216008 -0.190495 -0.165247 -0.140637 -0.117025 -0.0947628 -0.0741794 -0.0555856 -0.0392743 -0.0255126 -0.0145296 -0.00651869 -0.00164216 -1.78751e-26 0 -0.0017726 -0.0070853 -0.0158832 -0.0280539 -0.0434266 -0.0617732 -0.08281 -0.106203 -0.131571 -0.158496 -0.18653 -0.21519 -0.244005 -0.272498 -0.300175 -0.326573 -0.351255 -0.373806 -0.393871 -0.411139 -0.425336 -0.436248 -0.443928 -0.447585 -0.448188 -0.445046 -0.438368 -0.428474 -0.415443 -0.399503 -0.38092 -0.359993 -0.337049 -0.312435 -0.286525 -0.259706 -0.232383 -0.204935 -0.177762 -0.15127 -0.125849 -0.101884 -0.0797297 -0.0597243 -0.0421828 -0.0273902 -0.0155919 -0.00699187 -0.00176056 -1.91619e-26 0 -0.00186244 -0.00744167 -0.0166761 -0.0294443 -0.0455639 -0.0647942 -0.0868373 -0.111343 -0.137915 -0.166117 -0.195482 -0.225506 -0.2557 -0.285572 -0.31461 -0.342332 -0.368275 -0.39201 -0.413163 -0.431402 -0.446442 -0.458055 -0.466275 -0.470344 -0.471086 -0.46803 -0.461158 -0.450915 -0.437357 -0.420714 -0.401266 -0.379322 -0.355224 -0.329345 -0.302077 -0.273827 -0.24503 -0.216088 -0.187426 -0.159477 -0.132658 -0.107374 -0.0840058 -0.0629101 -0.0444191 -0.0288324 -0.0164069 -0.00735437 -0.00185115 -2.0146e-26 0 -0.00192323 -0.00768319 -0.0172142 -0.0303892 -0.0470181 -0.0668512 -0.0895814 -0.114847 -0.142241 -0.171316 -0.20159 -0.232548 -0.263683 -0.294495 -0.324458 -0.353074 -0.37987 -0.40441 -0.426296 -0.445183 -0.460778 -0.472848 -0.481418 -0.485737 -0.486558 -0.483613 -0.476645 -0.466201 -0.452317 -0.435227 -0.415213 -0.392592 -0.367722 -0.340986 -0.31279 -0.283561 -0.253749 -0.223778 -0.194086 -0.165131 -0.137344 -0.111149 -0.0869407 -0.0650929 -0.0459484 -0.0298164 -0.0169616 -0.00760052 -0.0019125 -2.08118e-26 0 -0.00195297 -0.00779785 -0.0174623 -0.0308125 -0.0476524 -0.0677261 -0.0907219 -0.116276 -0.143976 -0.173375 -0.20399 -0.235306 -0.266814 -0.298011 -0.328372 -0.3574 -0.38462 -0.40959 -0.43191 -0.451228 -0.467245 -0.479716 -0.488639 -0.493367 -0.494363 -0.491628 -0.48471 -0.474267 -0.460302 -0.443052 -0.422799 -0.399867 -0.374617 -0.34744 -0.318753 -0.288992 -0.258618 -0.228072 -0.1978 -0.168275 -0.139941 -0.113229 -0.0885472 -0.0662782 -0.0467713 -0.0303402 -0.0172532 -0.00772824 -0.0019439 -2.11489e-26 0 -0.00195296 -0.00779773 -0.0174617 -0.0308111 -0.0476492 -0.0677199 -0.0907109 -0.116259 -0.143952 -0.173343 -0.203951 -0.235259 -0.266762 -0.297957 -0.328317 -0.357344 -0.384568 -0.409544 -0.431872 -0.451199 -0.467224 -0.479704 -0.488634 -0.493366 -0.494363 -0.491633 -0.484724 -0.474292 -0.460342 -0.443107 -0.422868 -0.399948 -0.374706 -0.347534 -0.318847 -0.289082 -0.258701 -0.228144 -0.197862 -0.168324 -0.139979 -0.113256 -0.0885644 -0.0662883 -0.0467767 -0.0303425 -0.0172538 -0.00772837 -0.00194391 -2.11518e-26 0 -0.00192152 -0.00766962 -0.0171694 -0.0302863 -0.0468249 -0.0665318 -0.0891 -0.114172 -0.141348 -0.170187 -0.200222 -0.23095 -0.261877 -0.292514 -0.322347 -0.350891 -0.377682 -0.402289 -0.424318 -0.44342 -0.459298 -0.47171 -0.480628 -0.485488 -0.486581 -0.484153 -0.47753 -0.467436 -0.453852 -0.437007 -0.417171 -0.394664 -0.369838 -0.34308 -0.314803 -0.285441 -0.255452 -0.225279 -0.195367 -0.166186 -0.13818 -0.111779 -0.0873893 -0.0653908 -0.0461291 -0.0299123 -0.0170028 -0.00761302 -0.0019141 -2.08205e-26 0 -0.00186008 -0.00742286 -0.0166139 -0.0293012 -0.0452946 -0.0643478 -0.0861636 -0.110397 -0.136661 -0.164532 -0.19356 -0.223262 -0.25316 -0.282784 -0.311641 -0.339263 -0.365203 -0.389043 -0.410403 -0.428944 -0.444378 -0.456468 -0.465177 -0.469992 -0.471118 -0.468808 -0.46244 -0.452707 -0.439592 -0.423312 -0.404132 -0.382357 -0.358328 -0.332421 -0.305036 -0.276592 -0.247537 -0.218298 -0.18931 -0