<?xml version="1.0"?>
<VTKFile type="PolyData">
	<PolyData>
		<Piece NumberOfPoints="2601" NumberOfPolys="2500">
			<Points>
				<DataArray type="Float32" NumberOfComponents="3" format="ascii">
 0 0 0 0.02 0 0 0.04 0 0 0.06 0 0 0.08 0 0 0.1 0 0 0.12 0 0 0.14 0 0 0.16 0 0 0.18 0 0 0.2 0 0 0.22 0 0 0.24 0 0 0.26 0 0 0.28 0 0 0.3 0 0 0.32 0 0 0.34 0 0 0.36 0 0 0.38 0 0 0.4 0 0 0.42 0 0 0.44 0 0 0.46 0 0 0.48 0 0 0.5 0 0 0.52 0 0 0.54 0 0 0.56 0 0 0.58 0 0 0.6 0 0 0.62 0 0 0.64 0 0 0.66 0 0 0.68 0 0 0.7 0 0 0.72 0 0 0.74 0 0 0.76 0 0 0.78 0 0 0.8 0 0 0.82 0 0 0.84 0 0 0.86 0 0 0.88 0 0 0.9 0 0 0.92 0 0 0.94 0 0 0.96 0 0 0.98 0 0 1 0 0 0 0.02 0 0.02 0.02 0 0.04 0.02 0 0.06 0.02 0 0.08 0.02 0 0.1 0.02 0 0.12 0.02 0 0.14 0.02 0 0.16 0.02 0 0.18 0.02 0 0.2 0.02 0 0.22 0.02 0 0.24 0.02 0 0.26 0.02 0 0.28 0.02 0 0.3 0.02 0 0.32 0.02 0 0.34 0.02 0 0.36 0.02 0 0.38 0.02 0 0.4 0.02 0 0.42 0.02 0 0.44 0.02 0 0.46 0.02 0 0.48 0.02 0 0.5 0.02 0 0.52 0.02 0 0.54 0.02 0 0.56 0.02 0 0.58 0.02 0 0.6 0.02 0 0.62 0.02 0 0.64 0.02 0 0.66 0.02 0 0.68 0.02 0 0.7 0.02 0 0.72 0.02 0 0.74 0.02 0 0.76 0.02 0 0.78 0.02 0 0.8 0.02 0 0.82 0.02 0 0.84 0.02 0 0.86 0.02 0 0.88 0.02 0 0.9 0.02 0 0.92 0.02 0 0.94 0.02 0 0.96 0.02 0 0.98 0.02 0 1 0.02 0 0 0.04 0 0.02 0.04 0 0.04 0.04 0 0.06 0.04 0 0.08 0.04 0 0.1 0.04 0 0.12 0.04 0 0.14 0.04 0 0.16 0.04 0 0.18 0.04 0 0.2 0.04 0 0.22 0.04 0 0.24 0.04 0 0.26 0.04 0 0.28 0.04 0 0.3 0.04 0 0.32 0.04 0 0.34 0.04 0 0.36 0.04 0 0.38 0.04 0 0.4 0.04 0 0.42 0.04 0 0.44 0.04 0 0.46 0.04 0 0.48 0.04 0 0.5 0.04 0 0.52 0.04 0 0.54 0.04 0 0.56 0.04 0 0.58 0.04 0 0.6 0.04 0 0.62 0.04 0 0.64 0.04 0 0.66 0.04 0 0.68 0.04 0 0.7 0.04 0 0.72 0.04 0 0.74 0.04 0 0.76 0.04 0 0.78 0.04 0 0.8 0.04 0 0.82 0.04 0 0.84 0.04 0 0.86 0.04 0 0.88 0.04 0 0.9 0.04 0 0.92 0.04 0 0.94 0.04 0 0.96 0.04 0 0.98 0.04 0 1 0.04 0 0 0.06 0 0.02 0.06 0 0.04 0.06 0 0.06 0.06 0 0.08 0.06 0 0.1 0.06 0 0.12 0.06 0 0.14 0.06 0 0.16 0.06 0 0.18 0.06 0 0.2 0.06 0 0.22 0.06 0 0.24 0.06 0 0.26 0.06 0 0.28 0.06 0 0.3 0.06 0 0.32 0.06 0 0.34 0.06 0 0.36 0.06 0 0.38 0.06 0 0.4 0.06 0 0.42 0.06 0 0.44 0.06 0 0.46 0.06 0 0.48 0.06 0 0.5 0.06 0 0.52 0.06 0 0.54 0.06 0 0.56 0.06 0 0.58 0.06 0 0.6 0.06 0 0.62 0.06 0 0.64 0.06 0 0.66 0.06 0 0.68 0.06 0 0.7 0.06 0 0.72 0.06 0 0.74 0.06 0 0.76 0.06 0 0.78 0.06 0 0.8 0.06 0 0.82 0.06 0 0.84 0.06 0 0.86 0.06 0 0.88 0.06 0 0.9 0.06 0 0.92 0.06 0 0.94 0.06 0 0.96 0.06 0 0.98 0.06 0 1 0.06 0 0 0.08 0 0.02 0.08 0 0.04 0.08 0 0.06 0.08 0 0.08 0.08 0 0.1 0.08 0 0.12 0.08 0 0.14 0.08 0 0.16 0.08 0 0.18 0.08 0 0.2 0.08 0 0.22 0.08 0 0.24 0.08 0 0.26 0.08 0 0.28 0.08 0 0.3 0.08 0 0.32 0.08 0 0.34 0.08 0 0.36 0.08 0 0.38 0.08 0 0.4 0.08 0 0.42 0.08 0 0.44 0.08 0 0.46 0.08 0 0.48 0.08 0 0.5 0.08 0 0.52 0.08 0 0.54 0.08 0 0.56 0.08 0 0.58 0.08 0 0.6 0.08 0 0.62 0.08 0 0.64 0.08 0 0.66 0.08 0 0.68 0.08 0 0.7 0.08 0 0.72 0.08 0 0.74 0.08 0 0.76 0.08 0 0.78 0.08 0 0.8 0.08 0 0.82 0.08 0 0.84 0.08 0 0.86 0.08 0 0.88 0.08 0 0.9 0.08 0 0.92 0.08 0 0.94 0.08 0 0.96 0.08 0 0.98 0.08 0 1 0.08 0 0 0.1 0 0.02 0.1 0 0.04 0.1 0 0.06 0.1 0 0.08 0.1 0 0.1 0.1 0 0.12 0.1 0 0.14 0.1 0 0.16 0.1 0 0.18 0.1 0 0.2 0.1 0 0.22 0.1 0 0.24 0.1 0 0.26 0.1 0 0.28 0.1 0 0.3 0.1 0 0.32 0.1 0 0.34 0.1 0 0.36 0.1 0 0.38 0.1 0 0.4 0.1 0 0.42 0.1 0 0.44 0.1 0 0.46 0.1 0 0.48 0.1 0 0.5 0.1 0 0.52 0.1 0 0.54 0.1 0 0.56 0.1 0 0.58 0.1 0 0.6 0.1 0 0.62 0.1 0 0.64 0.1 0 0.66 0.1 0 0.68 0.1 0 0.7 0.1 0 0.72 0.1 0 0.74 0.1 0 0.76 0.1 0 0.78 0.1 0 0.8 0.1 0 0.82 0.1 0 0.84 0.1 0 0.86 0.1 0 0.88 0.1 0 0.9 0.1 0 0.92 0.1 0 0.94 0.1 0 0.96 0.1 0 0.98 0.1 0 1 0.1 0 0 0.12 0 0.02 0.12 0 0.04 0.12 0 0.06 0.12 0 0.08 0.12 0 0.1 0.12 0 0.12 0.12 0 0.14 0.12 0 0.16 0.12 0 0.18 0.12 0 0.2 0.12 0 0.22 0.12 0 0.24 0.12 0 0.26 0.12 0 0.28 0.12 0 0.3 0.12 0 0.32 0.12 0 0.34 0.12 0 0.36 0.12 0 0.38 0.12 0 0.4 0.12 0 0.42 0.12 0 0.44 0.12 0 0.46 0.12 0 0.48 0.12 0 0.5 0.12 0 0.52 0.12 0 0.54 0.12 0 0.56 0.12 0 0.58 0.12 0 0.6 0.12 0 0.62 0.12 0 0.64 0.12 0 0.66 0.12 0 0.68 0.12 0 0.7 0.12 0 0.72 0.12 0 0.74 0.12 0 0.76 0.12 0 0.78 0.12 0 0.8 0.12 0 0.82 0.12 0 0.84 0.12 0 0.86 0.12 0 0.88 0.12 0 0.9 0.12 0 0.92 0.12 0 0.94 0.12 0 0.96 0.12 0 0.98 0.12 0 1 0.12 0 0 0.14 0 0.02 0.14 0 0.04 0.14 0 0.06 0.14 0 0.08 0.14 0 0.1 0.14 0 0.12 0.14 0 0.14 0.14 0 0.16 0.14 0 0.18 0.14 0 0.2 0.14 0 0.22 0.14 0 0.24 0.14 0 0.26 0.14 0 0.28 0.14 0 0.3 0.14 0 0.32 0.14 0 0.34 0.14 0 0.36 0.14 0 0.38 0.14 0 0.4 0.14 0 0.42 0.14 0 0.44 0.14 0 0.46 0.14 0 0.48 0.14 0 0.5 0.14 0 0.52 0.14 0 0.54 0.14 0 0.56 0.14 0 0.58 0.14 0 0.6 0.14 0 0.62 0.14 0 0.64 0.14 0 0.66 0.14 0 0.68 0.14 0 0.7 0.14 0 0.72 0.14 0 0.74 0.14 0 0.76 0.14 0 0.78 0.14 0 0.8 0.14 0 0.82 0.14 0 0.84 0.14 0 0.86 0.14 0 0.88 0.14 0 0.9 0.14 0 0.92 0.14 0 0.94 0.14 0 0.96 0.14 0 0.98 0.14 0 1 0.14 0 0 0.16 0 0.02 0.16 0 0.04 0.16 0 0.06 0.16 0 0.08 0.16 0 0.1 0.16 0 0.12 0.16 0 0.14 0.16 0 0.16 0.16 0 0.18 0.16 0 0.2 0.16 0 0.22 0.16 0 0.24 0.16 0 0.26 0.16 0 0.28 0.16 0 0.3 0.16 0 0.32 0.16 0 0.34 0.16 0 0.36 0.16 0 0.38 0.16 0 0.4 0.16 0 0.42 0.16 0 0.44 0.16 0 0.46 0.16 0 0.48 0.16 0 0.5 0.16 0 0.52 0.16 0 0.54 0.16 0 0.56 0.16 0 0.58 0.16 0 0.6 0.16 0 0.62 0.16 0 0.64 0.16 0 0.66 0.16 0 0.68 0.16 0 0.7 0.16 0 0.72 0.16 0 0.74 0.16 0 0.76 0.16 0 0.78 0.16 0 0.8 0.16 0 0.82 0.16 0 0.84 0.16 0 0.86 0.16 0 0.88 0.16 0 0.9 0.16 0 0.92 0.16 0 0.94 0.16 0 0.96 0.16 0 0.98 0.16 0 1 0.16 0 0 0.18 0 0.02 0.18 0 0.04 0.18 0 0.06 0.18 0 0.08 0.18 0 0.1 0.18 0 0.12 0.18 0 0.14 0.18 0 0.16 0.18 0 0.18 0.18 0 0.2 0.18 0 0.22 0.18 0 0.24 0.18 0 0.26 0.18 0 0.28 0.18 0 0.3 0.18 0 0.32 0.18 0 0.34 0.18 0 0.36 0.18 0 0.38 0.18 0 0.4 0.18 0 0.42 0.18 0 0.44 0.18 0 0.46 0.18 0 0.48 0.18 0 0.5 0.18 0 0.52 0.18 0 0.54 0.18 0 0.56 0.18 0 0.58 0.18 0 0.6 0.18 0 0.62 0.18 0 0.64 0.18 0 0.66 0.18 0 0.68 0.18 0 0.7 0.18 0 0.72 0.18 0 0.74 0.18 0 0.76 0.18 0 0.78 0.18 0 0.8 0.18 0 0.82 0.18 0 0.84 0.18 0 0.86 0.18 0 0.88 0.18 0 0.9 0.18 0 0.92 0.18 0 0.94 0.18 0 0.96 0.18 0 0.98 0.18 0 1 0.18 0 0 0.2 0 0.02 0.2 0 0.04 0.2 0 0.06 0.2 0 0.08 0.2 0 0.1 0.2 0 0.12 0.2 0 0.14 0.2 0 0.16 0.2 0 0.18 0.2 0 0.2 0.2 0 0.22 0.2 0 0.24 0.2 0 0.26 0.2 0 0.28 0.2 0 0.3 0.2 0 0.32 0.2 0 0.34 0.2 0 0.36 0.2 0 0.38 0.2 0 0.4 0.2 0 0.42 0.2 0 0.44 0.2 0 0.46 0.2 0 0.48 0.2 0 0.5 0.2 0 0.52 0.2 0 0.54 0.2 0 0.56 0.2 0 0.58 0.2 0 0.6 0.2 0 0.62 0.2 0 0.64 0.2 0 0.66 0.2 0 0.68 0.2 0 0.7 0.2 0 0.72 0.2 0 0.74 0.2 0 0.76 0.2 0 0.78 0.2 0 0.8 0.2 0 0.82 0.2 0 0.84 0.2 0 0.86 0.2 0 0.88 0.2 0 0.9 0.2 0 0.92 0.2 0 0.94 0.2 0 0.96 0.2 0 0.98 0.2 0 1 0.2 0 0 0.22 0 0.02 0.22 0 0.04 0.22 0 0.06 0.22 0 0.08 0.22 0 0.1 0.22 0 0.12 0.22 0 0.14 0.22 0 0.16 0.22 0 0.18 0.22 0 0.2 0.22 0 0.22 0.22 0 0.24 0.22 0 0.26 0.22 0 0.28 0.22 0 0.3 0.22 0 0.32 0.22 0 0.34 0.22 0 0.36 0.22 0 0.38 0.22 0 0.4 0.22 0 0.42 0.22 0 0.44 0.22 0 0.46 0.22 0 0.48 0.22 0 0.5 0.22 0 0.52 0.22 0 0.54 0.22 0 0.56 0.22 0 0.58 0.22 0 0.6 0.22 0 0.62 0.22 0 0.64 0.22 0 0.66 0.22 0 0.68 0.22 0 0.7 0.22 0 0.72 0.22 0 0.74 0.22 0 0.76 0.22 0 0.78 0.22 0 0.8 0.22 0 0.82 0.22 0 0.84 0.22 0 0.86 0.22 0 0.88 0.22 0 0.9 0.22 0 0.92 0.22 0 0.94 0.22 0 0.96 0.22 0 0.98 0.22 0 1 0.22 0 0 0.24 0 0.02 0.24 0 0.04 0.24 0 0.06 0.24 0 0.08 0.24 0 0.1 0.24 0 0.12 0.24 0 0.14 0.24 0 0.16 0.24 0 0.18 0.24 0 0.2 0.24 0 0.22 0.24 0 0.24 0.24 0 0.26 0.24 0 0.28 0.24 0 0.3 0.24 0 0.32 0.24 0 0.34 0.24 0 0.36 0.24 0 0.38 0.24 0 0.4 0.24 0 0.42 0.24 0 0.44 0.24 0 0.46 0.24 0 0.48 0.24 0 0.5 0.24 0 0.52 0.24 0 0.54 0.24 0 0.56 0.24 0 0.58 0.24 0 0.6 0.24 0 0.62 0.24 0 0.64 0.24 0 0.66 0.24 0 0.68 0.24 0 0.7 0.24 0 0.72 0.24 0 0.74 0.24 0 0.76 0.24 0 0.78 0.24 0 0.8 0.24 0 0.82 0.24 0 0.84 0.24 0 0.86 0.24 0 0.88 0.24 0 0.9 0.24 0 0.92 0.24 0 0.94 0.24 0 0.96 0.24 0 0.98 0.24 0 1 0.24 0 0 0.26 0 0.02 0.26 0 0.04 0.26 0 0.06 0.26 0 0.08 0.26 0 0.1 0.26 0 0.12 0.26 0 0.14 0.26 0 0.16 0.26 0 0.18 0.26 0 0.2 0.26 0 0.22 0.26 0 0.24 0.26 0 0.26 0.26 0 0.28 0.26 0 0.3 0.26 0 0.32 0.26 0 0.34 0.26 0 0.36 0.26 0 0.38 0.26 0 0.4 0.26 0 0.42 0.26 0 0.44 0.26 0 0.46 0.26 0 0.48 0.26 0 0.5 0.26 0 0.52 0.26 0 0.54 0.26 0 0.56 0.26 0 0.58 0.26 0 0.6 0.26 0 0.62 0.26 0 0.64 0.26 0 0.66 0.26 0 0.68 0.26 0 0.7 0.26 0 0.72 0.26 0 0.74 0.26 0 0.76 0.26 0 0.78 0.26 0 0.8 0.26 0 0.82 0.26 0 0.84 0.26 0 0.86 0.26 0 0.88 0.26 0 0.9 0.26 0 0.92 0.26 0 0.94 0.26 0 0.96 0.26 0 0.98 0.26 0 1 0.26 0 0 0.28 0 0.02 0.28 0 0.04 0.28 0 0.06 0.28 0 0.08 0.28 0 0.1 0.28 0 0.12 0.28 0 0.14 0.28 0 0.16 0.28 0 0.18 0.28 0 0.2 0.28 0 0.22 0.28 0 0.24 0.28 0 0.26 0.28 0 0.28 0.28 0 0.3 0.28 0 0.32 0.28 0 0.34 0.28 0 0.36 0.28 0 0.38 0.28 0 0.4 0.28 0 0.42 0.28 0 0.44 0.28 0 0.46 0.28 0 0.48 0.28 0 0.5 0.28 0 0.52 0.28 0 0.54 0.28 0 0.56 0.28 0 0.58 0.28 0 0.6 0.28 0 0.62 0.28 0 0.64 0.28 0 0.66 0.28 0 0.68 0.28 0 0.7 0.28 0 0.72 0.28 0 0.74 0.28 0 0.76 0.28 0 0.78 0.28 0 0.8 0.28 0 0.82 0.28 0 0.84 0.28 0 0.86 0.28 0 0.88 0.28 0 0.9 0.28 0 0.92 0.28 0 0.94 0.28 0 0.96 0.28 0 0.98 0.28 0 1 0.28 0 0 0.3 0 0.02 0.3 0 0.04 0.3 0 0.06 0.3 0 0.08 0.3 0 0.1 0.3 0 0.12 0.3 0 0.14 0.3 0 0.16 0.3 0 0.18 0.3 0 0.2 0.3 0 0.22 0.3 0 0.24 0.3 0 0.26 0.3 0 0.28 0.3 0 0.3 0.3 0 0.32 0.3 0 0.34 0.3 0 0.36 0.3 0 0.38 0.3 0 0.4 0.3 0 0.42 0.3 0 0.44 0.3 0 0.46 0.3 0 0.48 0.3 0 0.5 0.3 0 0.52 0.3 0 0.54 0.3 0 0.56 0.3 0 0.58 0.3 0 0.6 0.3 0 0.62 0.3 0 0.64 0.3 0 0.66 0.3 0 0.68 0.3 0 0.7 0.3 0 0.72 0.3 0 0.74 0.3 0 0.76 0.3 0 0.78 0.3 0 0.8 0.3 0 0.82 0.3 0 0.84 0.3 0 0.86 0.3 0 0.88 0.3 0 0.9 0.3 0 0.92 0.3 0 0.94 0.3 0 0.96 0.3 0 0.98 0.3 0 1 0.3 0 0 0.32 0 0.02 0.32 0 0.04 0.32 0 0.06 0.32 0 0.08 0.32 0 0.1 0.32 0 0.12 0.32 0 0.14 0.32 0 0.16 0.32 0 0.18 0.32 0 0.2 0.32 0 0.22 0.32 0 0.24 0.32 0 0.26 0.32 0 0.28 0.32 0 0.3 0.32 0 0.32 0.32 0 0.34 0.32 0 0.36 0.32 0 0.38 0.32 0 0.4 0.32 0 0.42 0.32 0 0.44 0.32 0 0.46 0.32 0 0.48 0.32 0 0.5 0.32 0 0.52 0.32 0 0.54 0.32 0 0.56 0.32 0 0.58 0.32 0 0.6 0.32 0 0.62 0.32 0 0.64 0.32 0 0.66 0.32 0 0.68 0.32 0 0.7 0.32 0 0.72 0.32 0 0.74 0.32 0 0.76 0.32 0 0.78 0.32 0 0.8 0.32 0 0.82 0.32 0 0.84 0.32 0 0.86 0.32 0 0.88 0.32 0 0.9 0.32 0 0.92 0.32 0 0.94 0.
[...]
			<PointData Scalars="VitesseX">
				<DataArray Name="VitesseX" type="Float32" format="ascii">
 0 0 0 0 0 0 0 0 0 0 0 0 0 0 0 0 0 0 0 0 0 0 0 0 0 0 0 0 0 0 0 0 0 0 0 0 0 0 0 0 0 0 0 0 0 0 0 0 0 0 -0 0 -0.000458007 -0.00182501 -0.00407952 -0.00718613 -0.0110959 -0.0157474 -0.0210671 -0.0269711 -0.0333663 -0.0401518 -0.0472204 -0.0544597 -0.061756 -0.0689949 -0.0760615 -0.0828443 -0.0892362 -0.0951363 -0.100451 -0.105098 -0.109002 -0.112103 -0.114364 -0.115713 -0.116164 -0.115704 -0.114312 -0.112045 -0.108929 -0.105011 -0.100355 -0.0950332 -0.0891301 -0.0827386 -0.0759593 -0.068899 -0.0616693 -0.054383 -0.047154 -0.0400969 -0.0333226 -0.0269378 -0.0210431 -0.0157311 -0.0110858 -0.00718047 -0.00407679 -0.00182383 -0.000457843 -4.97049e-27 0 -0.000909064 -0.00362374 -0.00810295 -0.0142779 -0.0220525 -0.0313051 -0.0418902 -0.0536405 -0.0663702 -0.0798772 -0.0939469 -0.108353 -0.122867 -0.137263 -0.151308 -0.16478 -0.177464 -0.189159 -0.199681 -0.208863 -0.21656 -0.222652 -0.227089 -0.229671 -0.230488 -0.229529 -0.22668 -0.222124 -0.215887 -0.208071 -0.1988 -0.18822 -0.176498 -0.163818 -0.150379 -0.136391 -0.122077 -0.107655 -0.0933477 -0.0793828 -0.0659782 -0.0533437 -0.0416774 -0.0311627 -0.0219651 -0.0142304 -0.00808126 -0.00361577 -0.000907996 -9.86331e-27 0 -0.00134593 -0.0053668 -0.0120034 -0.0211555 -0.0326819 -0.0464031 -0.0621035 -0.079535 -0.098421 -0.118461 -0.139335 -0.160702 -0.182225 -0.203568 -0.224383 -0.244338 -0.263115 -0.280414 -0.295961 -0.30951 -0.32085 -0.329802 -0.336321 -0.340035 -0.34116 -0.339678 -0.335351 -0.328529 -0.319231 -0.307605 -0.29384 -0.278151 -0.260788 -0.242022 -0.222147 -0.201471 -0.180323 -0.159021 -0.137893 -0.117271 -0.0974779 -0.0788211 -0.061592 -0.0460608 -0.0324722 -0.0210416 -0.0119517 -0.00534804 -0.00134343 -1.46014e-26 0 -0.00176174 -0.00702688 -0.01572 -0.027712 -0.0428194 -0.0608079 -0.0813953 -0.104256 -0.129026 -0.155311 -0.182687 -0.210705 -0.238922 -0.266895 -0.294166 -0.320297 -0.344869 -0.36749 -0.3878 -0.405478 -0.420247 -0.431877 -0.440339 -0.445067 -0.44643 -0.444405 -0.438608 -0.429581 -0.417325 -0.40204 -0.383972 -0.363408 -0.340671 -0.316117 -0.290129 -0.26311 -0.235487 -0.207672 -0.180085 -0.153164 -0.127325 -0.102968 -0.0804728 -0.0601908 -0.0424416 -0.0275071 -0.0156271 -0.00699346 -0.00175729 -1.91097e-26 0 -0.00214995 -0.00857781 -0.0191942 -0.0338439 -0.0523051 -0.0742924 -0.0994615 -0.127414 -0.157704 -0.189846 -0.223322 -0.257576 -0.292063 -0.326246 -0.359557 -0.391459 -0.421439 -0.449015 -0.47375 -0.495251 -0.513182 -0.527265 -0.537495 -0.543108 -0.544635 -0.542051 -0.534819 -0.523683 -0.508624 -0.489888 -0.467777 -0.442645 -0.414887 -0.384936 -0.353257 -0.320337 -0.2867 -0.25284 -0.21926 -0.186496 -0.155049 -0.125404 -0.0980224 -0.0733301 -0.0517163 -0.033525 -0.0190498 -0.00852622 -0.00214309 -2.33168e-26 0 -0.00250444 -0.00999512 -0.0223711 -0.0394547 -0.0609895 -0.0866441 -0.116017 -0.148644 -0.184003 -0.221524 -0.260599 -0.300576 -0.340815 -0.380688 -0.419528 -0.456705 -0.491619 -0.523707 -0.552458 -0.577416 -0.598192 -0.614465 -0.626255 -0.632612 -0.634227 -0.631074 -0.62247 -0.609356 -0.591689 -0.569764 -0.543936 -0.514617 -0.482269 -0.447395 -0.410535 -0.372254 -0.333158 -0.293814 -0.254802 -0.216742 -0.180214 -0.145777 -0.113965 -0.0852722 -0.0601505 -0.0390007 -0.022166 -0.00992235 -0.00249478 -2.71559e-26 0 -0.00281963 -0.0112565 -0.0252007 -0.044456 -0.0687359 -0.0976687 -0.130803 -0.167613 -0.207509 -0.249846 -0.293935 -0.339031 -0.384413 -0.429367 -0.473138 -0.515012 -0.554309 -0.590394 -0.622689 -0.650683 -0.673941 -0.692106 -0.705223 -0.712174 -0.713799 -0.710073 -0.700185 -0.685252 -0.665218 -0.640418 -0.611255 -0.578196 -0.541761 -0.502517 -0.461068 -0.418046 -0.374131 -0.329951 -0.286153 -0.243428 -0.202424 -0.163766 -0.12805 -0.0958293 -0.0676117 -0.0438483 -0.0249269 -0.01116 -0.00280686 -3.05661e-26 0 -0.00309056 -0.012342 -0.0276384 -0.0487688 -0.0754222 -0.107193 -0.143586 -0.184023 -0.227855 -0.27437 -0.322808 -0.37234 -0.422174 -0.471523 -0.519551 -0.56547 -0.608529 -0.648033 -0.683345 -0.713908 -0.739246 -0.758973 -0.773159 -0.780546 -0.782102 -0.777807 -0.766743 -0.750181 -0.728056 -0.700739 -0.668677 -0.632384 -0.592432 -0.549439 -0.504065 -0.456999 -0.40898 -0.360689 -0.312825 -0.266138 -0.221333 -0.17909 -0.140056 -0.104836 -0.0739828 -0.0479917 -0.027289 -0.01222 -0.00307443 -3.34931e-26 0 -0.00331296 -0.0132345 -0.0296458 -0.0523254 -0.0809433 -0.115067 -0.154165 -0.197617 -0.244723 -0.294712 -0.346764 -0.399983 -0.45351 -0.506499 -0.558043 -0.607291 -0.653436 -0.695726 -0.733481 -0.766103 -0.793086 -0.814023 -0.829001 -0.836659 -0.838068 -0.833215 -0.821103 -0.803129 -0.779222 -0.749787 -0.715308 -0.676339 -0.633492 -0.587431 -0.538858 -0.488505 -0.437161 -0.385546 -0.334397 -0.284514 -0.236644 -0.191509 -0.149797 -0.112151 -0.079164 -0.0513659 -0.0292155 -0.0130856 -0.00329333 -3.58905e-26 0 -0.00348333 -0.0139199 -0.0311912 -0.0550697 -0.0852124 -0.121167 -0.162375 -0.208182 -0.257847 -0.310553 -0.365431 -0.421527 -0.477932 -0.53375 -0.588016 -0.639827 -0.68833 -0.732733 -0.772318 -0.806457 -0.834623 -0.856395 -0.871879 -0.879636 -0.880823 -0.875434 -0.862418 -0.84327 -0.817918 -0.786797 -0.750421 -0.709375 -0.664304 -0.615903 -0.564906 -0.512076 -0.458237 -0.404136 -0.350536 -0.298272 -0.248119 -0.200829 -0.157118 -0.11766 -0.0830742 -0.0539181 -0.0306762 -0.0137435 -0.00346013 -3.772e-26 0 -0.00359899 -0.0143876 -0.0322503 -0.0569585 -0.0881624 -0.125397 -0.168087 -0.215552 -0.267022 -0.321646 -0.378516 -0.436637 -0.49506 -0.552851 -0.609002 -0.662572 -0.712671 -0.758478 -0.79925 -0.834342 -0.86321 -0.88543 -0.901124 -0.90881 -0.909702 -0.903983 -0.890378 -0.870444 -0.844114 -0.811843 -0.774171 -0.731706 -0.685118 -0.635124 -0.582481 -0.527975 -0.472452 -0.416674 -0.361425 -0.307558 -0.255869 -0.207127 -0.162069 -0.121387 -0.0857212 -0.0556463 -0.0316651 -0.0141888 -0.00357294 -3.89527e-26 0 -0.00365895 -0.0146363 -0.032827 -0.0580086 -0.0898328 -0.127831 -0.171417 -0.219897 -0.272479 -0.328287 -0.386384 -0.445743 -0.505382 -0.564339 -0.621572 -0.676109 -0.727035 -0.773505 -0.81476 -0.850145 -0.879116 -0.901249 -0.916686 -0.923935 -0.924255 -0.917721 -0.903227 -0.882383 -0.855135 -0.821959 -0.783408 -0.7401 -0.692713 -0.641967 -0.588619 -0.533455 -0.477319 -0.420967 -0.365177 -0.310798 -0.258624 -0.209421 -0.163926 -0.122834 -0.0867884 -0.0563724 -0.0320992 -0.0143933 -0.0036272 -3.95688e-26 0 -0.003659 -0.014637 -0.0328302 -0.0580181 -0.0898546 -0.127873 -0.171489 -0.220007 -0.272635 -0.328493 -0.386641 -0.446047 -0.505727 -0.564711 -0.621954 -0.676484 -0.727384 -0.77381 -0.815011 -0.850335 -0.879245 -0.901323 -0.916719 -0.923942 -0.924255 -0.917695 -0.903149 -0.882232 -0.854898 -0.821631 -0.782994 -0.739614 -0.692174 -0.641399 -0.588048 -0.532906 -0.476815 -0.420523 -0.364805 -0.310502 -0.2584 -0.209262 -0.163822 -0.122772 -0.0867554 -0.0563577 -0.0320942 -0.0143922 -0.00362712 -3.95586e-26 0 -0.00360501 -0.0144351 -0.0324071 -0.0573195 -0.088842 -0.12652 -0.169777 -0.217921 -0.270159 -0.325611 -0.383327 -0.442272 -0.501449 -0.559882 -0.616514 -0.670366 -0.720515 -0.766119 -0.806426 -0.840794 -0.868702 -0.889752 -0.90411 -0.910335 -0.909703 -0.902576 -0.887638 -0.866493 -0.839115 -0.805996 -0.767693 -0.724828 -0.678075 -0.628136 -0.575753 -0.521679 -0.466728 -0.411625 -0.357113 -0.304003 -0.253051 -0.204994 -0.160542 -0.120369 -0.0851015 -0.0553155 -0.0315209 -0.014145 -0.00356737 -3.89224e-26 0 -0.00349166 -0.013986 -0.0314103 -0.055576 -0.086169 -0.122753 -0.16477 -0.211549 -0.262315 -0.316209 -0.3723 -0.429576 -0.487057 -0.543783 -0.598721 -0.650912 -0.699458 -0.743541 -0.782434 -0.815522 -0.84231 -0.86242 -0.876022 -0.881745 -0.880826 -0.873386 -0.858413 -0.837472 -0.810556 -0.778155 -0.740821 -0.69916 -0.653823 -0.605489 -0.554868 -0.502678 -0.449693 -0.396599 -0.344103 -0.292972 -0.243924 -0.19766 -0.154854 -0.116153 -0.0821604 -0.0534319 -0.0304648 -0.0136796 -0.00345203 -3.76703e-26 0 -0.00332438 -0.0133251 -0.0299463 -0.0530199 -0.0822555 -0.117242 -0.157451 -0.202236 -0.250853 -0.302471 -0.356189 -0.411026 -0.466029 -0.520263 -0.572726 -0.622491 -0.668692 -0.710541 -0.747349 -0.778531 -0.803623 -0.82228 -0.834679 -0.839547 -0.838073 -0.830382 -0.815564 -0.795111 -0.769042 -0.737838 -0.702035 -0.662218 -0.619003 -0.573034 -0.524978 -0.47551 -0.425347 -0.375126 -0.325503 -0.277186 -0.230844 -0.187127 -0.146667 -0.110068 -0.0779008 -0.0506937 -0.0289233 -0.0129973 -0.00328212 -3.58223e-26 0 -0.00310489 -0.0124556 -0.0280155 -0.04964 -0.0770679 -0.109921 -0.147705 -0.189815 -0.235542 -0.284099 -0.334627 -0.386189 -0.437872 -0.48878 -0.537958 -0.584521 -0.62765 -0.666601 -0.700726 -0.729485 -0.752449 -0.769319 -0.780273 -0.784165 -0.782106 -0.774233 -0.759756 -0.740067 -0.715215 -0.685667 -0.651934 -0.61457 -0.574151 -0.531271 -0.486544 -0.440594 -0.394065 -0.347535 -0.301598 -0.25689 -0.214013 -0.173561 -0.136108 -0.102208 -0.0723893 -0.0471437 -0.0269203 -0.0121085 -0.00306029 -3.34079e-26 0 -0.00283665 -0.0113914 -0.0256481 -0.0454896 -0.070688 -0.100904 -0.135687 -0.174479 -0.216621 -0.26138 -0.307948 -0.355449 -0.403022 -0.449822 -0.494954 -0.537592 -0.57697 -0.612401 -0.64329 -0.669152 -0.689603 -0.704379 -0.713662 -0.716467 -0.713803 -0.705815 -0.69186 -0.673199 -0.649916 -0.622454 -0.591296 -0.556953 -0.519959 -0.480847 -0.440165 -0.39847 -0.356333 -0.314255 -0.272757 -0.232395 -0.193693 -0.157172 -0.123341 -0.0926961 -0.0657119 -0.0428375 -0.0244874 -0.0110271 -0.00279 -3.04655e-26 0 -0.00252387 -0.0101491 -0.0228816 -0.040634 -0.0632161 -0.0903332 -0.121585 -0.156469 -0.194387 -0.234668 -0.276569 -0.319286 -0.362023 -0.403997 -0.444387 -0.482435 -0.517442 -0.548788 -0.575939 -0.59847 -0.616054 -0.628468 -0.635886 -0.637511 -0.634231 -0.626197 -0.612934 -0.59555 -0.574161 -0.549185 -0.521066 -0.490268 -0.457268 -0.422544 -0.386565 -0.349801 -0.312739 -0.275804 -0.239431 -0.204084 -0.1702 -0.138215 -0.108566 -0.0816806 -0.0579732 -0.0378425 -0.0216626 -0.00977007 -0.00247547 -2.7042e-26 0 -0.00217148 -0.0087484 -0.0197596 -0.0351497 -0.0547697 -0.0783746 -0.105621 -0.136068 -0.169189 -0.204382 -0.240983 -0.278267 -0.315517 -0.352022 -0.387047 -0.419913 -0.45 -0.476758 -0.499727 -0.518541 -0.53294 -0.542761 -0.548157 -0.548531 -0.544638 -0.536632 -0.524222 -0.50834 -0.489139 -0.467007 -0.442343 -0.415563 -0.387073 -0.357276 -0.326575 -0.295346 -0.263966 -0.232784 -0.202142 -0.172401 -0.143902 -0.116988 -0.0920151 -0.0693345 -0.0492947 -0.0322371 -0.0184901 -0.00835692 -0.00212162 -2.31917e-26 0 -0.00178504 -0.00721137 -0.0163313 -0.0291232 -0.0454822 -0.0652168 -0.0880453 -0.113598 -0.141423 -0.170999 -0.201748 -0.233036 -0.264235 -0.294714 -0.323836 -0.35101 -0.375702 -0.397444 -0.415854 -0.430634 -0.44159 -0.448618 -0.451861 -0.450932 -0.446431 -0.43853 -0.427121 -0.412945 -0.396188 -0.377206 -0.356359 -0.333999 -0.310464 -0.286074 -0.261136 -0.235949 -0.210782 -0.185872 -0.161474 -0.137842 -0.11521 -0.0938242 -0.0739477 -0.0558519 -0.0398127 -0.0261094 -0.0150198 -0.00680975 -0.001734 -1.89758e-26 0 -0.00137062 -0.00556226 -0.0126508 -0.0226497 -0.0355002 -0.0510677 -0.0691369 -0.0894137 -0.111529 -0.135047 -0.159485 -0.184309 -0.208985 -0.232976 -0.25575 -0.276812 -0.295719 -0.312095 -0.325639 -0.336133 -0.343443 -0.347527 -0.348524 -0.346249 -0.341161 -0.333442 -0.323151 -0.310855 -0.296765 -0.281203 -0.264472 -0.246861 -0.228639 -0.210047 -0.191284 -0.172551 -0.154019 -0.135815 -0.118076 -0.100954 -0.0845781 -0.0690881 -0.0546486 -0.0414451 -0.0296763 -0.0195556 -0.0113062 -0.00515279 -0.00131868 -1.44612e-26 0 -0.000934766 -0.00382711 -0.00877632 -0.0158313 -0.0249814 -0.0361509 -0.0491945 -0.0638974 -0.079978 -0.0970949 -0.114864 -0.132856 -0.150643 -0.167788 -0.183868 -0.198492 -0.211317 -0.222061 -0.230509 -0.236525 -0.240047 -0.241088 -0.239783 -0.236135 -0.230489 -0.223031 -0.213959 -0.203686 -0.192446 -0.180512 -0.168132 -0.155531 -0.142903 -0.130396 -0.118121 -0.10616 -0.0945731 -0.0833994 -0.0726349 -0.0623216 -0.0524918 -0.0431712 -0.034423 -0.0263414 -0.0190456 -0.0126791 -0.0074076 -0.00341202 -0.000882187 -9.71929e-27 0 -0.000484343 -0.0020333 -0.0047689 -0.00877587 -0.0140921 -0.0207025 -0.0285339 -0.0374535 -0.0472714 -0.0577439 -0.0685905 -0.0794934 -0.0901343 -0.100182 -0.10933 -0.117294 -0.123836 -0.12877 -0.131973 -0.133391 -0.133033 -0.130974 -0.127362 -0.122336 -0.116167 -0.109047 -0.101271 -0.0931338 -0.0848773 -0.076724 -0.0688656 -0.0614576 -0.0546106 -0.0483892 -0.0428052 -0.0378254 -0.0333918 -0.0294468 -0.0258671 -0.0225602 -0.0194587 -0.0164834 -0.0135902 -0.0107795 -0.00808831 -0.00558832 -0.00338556 -0.00161477 -0.000431373 -4.82511e-27 0 -2.64581e-05 -0.000209204 -0.000692259 -0.00159593 -0.00300697 -0.00497129 -0.00748904 -0.0105111 -0.0139413 -0.0176366 -0.0214224 -0.0250952 -0.0284487 -0.0312639 -0.033353 -0.0345409 -0.0346963 -0.0337339 -0.0316229 -0.0283899 -0.0241192 -0.0189461 -0.0130523 -0.00665333 -1.50182e-06 0.0066526 0.0130492 0.018939 0.0241079 0.0283756 0.0316091 0.0337238 0.0346949 0.0345429 0.0333517 0.0312619 0.0284537 0.0250957 0.0214162 0.0176397 0.0139448 0.0105105 0.00748767 0.00497147 0.00300728 0.00159595 0.000692257 0.000209204 2.64581e-05 1.44042e-28 0 0.000431373 0.00161477 0.00338556 0.00558832 0.00808851 0.0107798 0.0135893 0.0164823 0.0194608 0.0225652 0.0258633 0.0294426 0.0333955 0.037826 0.0428025 0.0483897 0.0546122 0.0614545 0.0688564 0.0767108 0.084865 0.0931261 0.101268 0.109046 0.116166 0.122335 0.12736 0.13097 0.133027 0.133381 0.131961 0.128757 0.123829 0.117294 0.10933 0.10018 0.0901348 0.0794964 0.0685882 0.0577444 0.0472748 0.0374535 0.0285323 0.0207026 0.0140926 0.00877592 0.0047689 0.0020333 0.000484343 5.10981e-27 0 0.000882187 0.00341202 0.0074076 0.0126791 0.0190458 0.0263417 0.0344222 0.0431694 0.0524919 0.0623272 0.0726362 0.0833925 0.0945717 0.106162 0.11812 0.130395 0.142904 0.155532 0.168128 0.180504 0.192439 0.203681 0.213958 0.223031 0.23049 0.236135 0.239783 0.241086 0.240045 0.236522 0.230504 0.222052 0.211309 0.198489 0.183868 0.167787 0.150641 0.13286 0.114865 0.0970925 0.079981 0.0638995 0.0491939 0.0361511 0.024982 0.0158314 0.00877631 0.00382711 0.000934766 9.99397e-27 0 0.00131868 0.00515279 0.0113062 0.0195556 0.0296764 0.0414454 0.0546483 0.0690861 0.0845769 0.100957 0.118082 0.135814 0.154013 0.172553 0.191285 0.210042 0.228638 0.246862 0.264471 0.281201 0.296763 0.310852 0.323153 0.333444 0.341163 0.346249 0.348527 0.347533 0.343446 0.336133 0.325638 0.312093 0.295715 0.276809 0.255749 0.232976 0.208984 0.184312 0.159486 0.135044 0.111532 0.089418 0.0691378 0.0510683 0.0355012 0.0226499 0.0126508 0.00556226 0.00137062 1.47197e-26 0 0.001734 0.00680975 0.0150198 0.0261094 0.0398127 0.0558522 0.0739474 0.093822 0.115207 0.137842 0.16148 0.185876 0.210777 0.235946 0.261137 0.28607 0.310458 0.333996 0.356359 0.377206 0.396187 0.412944 0.427123 0.438534 0.446433 0.450932 0.451865 0.448624 0.441596 0.430638 0.415855 0.397446 0.375702 0.35101 0.323834 0.294713 0.264234 0.233036 0.201747 0.170997 0.141426 0.113604 0.0880475 0.0652182 0.0454836 0.0291235 0.0163313 0.00721136 0.00178504 1.92128e-26 0 0.00212162 0.00835692 0.0184901 0.0322371 0.0492947 0.0693347 0.092015 0.116986 0.143898 0.172399 0.202143 0.232787 0.263966 0.29534 0.326572 0.357277 0.38707 0.41556 0.442341 0.467005 0.489141 0.508345 0.524228 0.536635 0.544638 0.548532 0.548158 0.542762 0.532942 0.518544 0.499729 0.47676 0.45 0.419911 0.387045 0.352021 0.315518 0.278262 0.240979 0.20438 0.169192 0.136075 0.105624 0.0783767 0.0547716 0.0351502 0.0197596 0.00874839 0.00217148 2.34027e-26 0 0.00247547 0.00977007 0.0216626 0.0378425 0.0579732 0.0816806 0.108566 0.138214 0.170196 0.204081 0.23943 0.275805 0.31274 0.349801 0.386563 0.422542 0.457269 0.490269 0.521066 0.549185 0.574162 0.595553 0.612938 0.626199 0.634231 0.63751 0.635885 0.628463 0.616045 0.598466 0.575939 0.548788 0.517441 0.482431 0.444383 0.403996 0.362023 0.319276 0.276563 0.234667 0.194391 0.156477 0.12159 0.0903363 0.0632184 0.0406347 0.0228816 0.0101491 0.00252387 2.72238e-26 0 0.00279 0.0110271 0.0244874 0.0428375 0.0657119 0.0926961 0.123341 0.157171 0.19369 0.232391 0.272754 0.314254 0.356334 0.398474 0.440167 0.480842 0.519954 0.556953 0.591296 0.622454 0.649916 0.673199 0.691859 0.705814 0.713803 0.716468 0.713665 0.704381 0.689599 0.669148 0.64329 0.6124 0.576967 0.537587 0.49495 0.449821 0.403022 0.355437 0.307941 0.26138 0.216625 0.174489 0.135694 0.100908 0.0706909 0.0454905 0.0256481 0.0113914 0.00283665 3.06162e-26 0 0.00306029 0.0121085 0.0269203 0.0471437 0.0723893 0.102208 0.136108 0.17356 0.214012 0.256886 0.301594 0.347533 0.394065 0.440595 0.486546 0.531269 0.574146 0.614568 0.651935 0.685668 0.715216 0.740067 0.759755 0.774232 0.782106 0.784166 0.780277 0.769325 0.752453 0.729485 0.700725 0.666598 0.627645 0.584515 0.537953 0.488778 0.437872 0.386176 0.334619 0.284099 0.235546 0.189826 0.147714 0.109926 0.0770714 0.049641 0.0280154 0.0124556 0.00310489 3.35268e-26 0 0.00328212 0.0129973 0.0289233 0.0506937 0.0779008 0.110068 0.146667 0.187127 0.230843 0.277184 0.3255 0.375123 0.425345 0.475509 0.524978 0.573034 0.619002 0.662218 0.702036 0.737839 0.769043 0.795111 0.815563 0.830382 0.838071 0.839546 0.834679 0.82228 0.803622 0.77853 0.747346 0.710537 0.668686 0.622484 0.572721 0.520262 0.466029 0.411014 0.356182 0.302471 0.250856 0.202248 0.157459 0.117248 0.0822592 0.0530209 0.0299463 0.0133251 0.00332438 3.59102e-26 0 0.00345203 0.0136796 0.0304648 0.0534319 0.0821604 0.116153 0.154855 0.19766 0.243924 0.292971 0.344102 0.396597 0.449691 0.502675 0.554866 0.605489 0.653823 0.699161 0.740822 0.778155 0.810556 0.837472 0.858413 0.873386 0.880826 0.881743 0.87602 0.862417 0.842308 0.815522 0.782432 0.743536 0.699453 0.650906 0.598717 0.543782 0.487058 0.429567 0.372294 0.316209 0.262317 0.21156 0.16478 0.122758 0.0861727 0.055577 0.0314103 0.013986 0.00349166 3.77291e-26 0 0.00356737 0.014145 0.0315209 0.0553155 0.0851015 0.120369 0.160542 0.204994 0.25305 0.304002 0.357112 0.411624 0.466727 0.521676 0.575749 0.628133 0.67807 0.724825 0.767688 0.80599 0.839111 0.86649 0.887636 0.902576 0.909703 0.910334 0.904109 0.889752 0.868703 0.840794 0.806424 0.766115 0.720511 0.670361 0.61651 0.559881 0.501451 0.442268 0.383323 0.32561 0.270158 0.217928 0.169786 0.126525 0.0888453 0.0573203 0.0324071 0.014435 0.00360501 3.8955e-26 0 0.00362712 0.0143922 0.0320942 0.0563577 0.0867554 0.122772 0.163822 0.209262 0.258399 0.310501 0.364804 0.420523 0.476815 0.532906 0.588048 0.641398 0.692173 0.739613 0.782993 0.821631 0.854898 0.882233 0.90315 0.917695 0.924255 0.923942 0.916719 0.901324 0.879245 0.850334 0.815008 0.773807 0.72738 0.676481 0.621952 0.564711 0.50573 0.446053 0.386644 0.328493 0.272632 0.22001 0.171497 0.127878 0.0898573 0.0580186 0.0328301 0.014637 0.003659 3.95688e-26 0 0.0036272 0.0143933 0.0320992 0.0563724 0.0867884 0.122834 0.163926 0.209421 0.258624 0.310798 0.365176 0.420967 0.477319 0.533456 0.58862 0.641967 0.692713 0.740101 0.783408 0.82196 0.855136 0.882383 0.903227 0.91772 0.924254 0.923935 0.916686 0.901249 0.879116 0.850144 0.814759 0.773503 0.727034 0.676107 0.62157 0.564339 0.505382 0.445753 0.386391 0.328287 0.27248 0.219901 0.171423 0.127836 0.0898349 0.0580088 0.032827 0.0146363 0.00365895 3.95608e-26 0 0.00357294 0.0141888 0.0316651 0.0556463 0.0857212 0.121387 0.162069 0.207127 0.255869 0.307558 0.361425 0.416674 0.472452 0.527975 0.582481 0.635124 0.685119 0.731708 0.774172 0.811844 0.844114 0.870443 0.890377 0.903983 0.909702 0.90881 0.901124 0.88543 0.86321 0.834341 0.799251 0.758479 0.712673 0.662572 0.609001 0.552851 0.495057 0.436641 0.378521 0.321646 0.267025 0.215557 0.168092 0.125401 0.0881641 0.0569586 0.0322503 0.0143876 0.00359899 3.89312e-26 0 0.00346013 0.0137435 0.0306762 0.0539181 0.0830742 0.11766 0.157118 0.200829 0.248119 0.298272 0.350536 0.404136 0.458238 0.512076 0.564905 0.615903 0.664304 0.709375 0.75042 0.786796 0.817917 0.84327 0.862418 0.875434 0.880824 0.879636 0.871879 0.856395 0.834623 0.806458 0.77231