<?xml version="1.0"?>
<VTKFile type="PolyData">
	<PolyData>
		<Piece NumberOfPoints="2601" NumberOfPolys="2500">
			<Points>
				<DataArray type="Float32" NumberOfComponents="3" format="ascii">
 0 0 0 0.02 0 0 0.04 0 0 0.06 0 0 0.08 0 0 0.1 0 0 0.12 0 0 0.14 0 0 0.16 0 0 0.18 0 0 0.2 0 0 0.22 0 0 0.24 0 0 0.26 0 0 0.28 0 0 0.3 0 0 0.32 0 0 0.34 0 0 0.36 0 0 0.38 0 0 0.4 0 0 0.42 0 0 0.44 0 0 0.46 0 0 0.48 0 0 0.5 0 0 0.52 0 0 0.54 0 0 0.56 0 0 0.58 0 0 0.6 0 0 0.62 0 0 0.64 0 0 0.66 0 0 0.68 0 0 0.7 0 0 0.72 0 0 0.74 0 0 0.76 0 0 0.78 0 0 0.8 0 0 0.82 0 0 0.84 0 0 0.86 0 0 0.88 0 0 0.9 0 0 0.92 0 0 0.94 0 0 0.96 0 0 0.98 0 0 1 0 0 0 0.02 0 0.02 0.02 0 0.04 0.02 0 0.06 0.02 0 0.08 0.02 0 0.1 0.02 0 0.12 0.02 0 0.14 0.02 0 0.16 0.02 0 0.18 0.02 0 0.2 0.02 0 0.22 0.02 0 0.24 0.02 0 0.26 0.02 0 0.28 0.02 0 0.3 0.02 0 0.32 0.02 0 0.34 0.02 0 0.36 0.02 0 0.38 0.02 0 0.4 0.02 0 0.42 0.02 0 0.44 0.02 0 0.46 0.02 0 0.48 0.02 0 0.5 0.02 0 0.52 0.02 0 0.54 0.02 0 0.56 0.02 0 0.58 0.02 0 0.6 0.02 0 0.62 0.02 0 0.64 0.02 0 0.66 0.02 0 0.68 0.02 0 0.7 0.02 0 0.72 0.02 0 0.74 0.02 0 0.76 0.02 0 0.78 0.02 0 0.8 0.02 0 0.82 0.02 0 0.84 0.02 0 0.86 0.02 0 0.88 0.02 0 0.9 0.02 0 0.92 0.02 0 0.94 0.02 0 0.96 0.02 0 0.98 0.02 0 1 0.02 0 0 0.04 0 0.02 0.04 0 0.04 0.04 0 0.06 0.04 0 0.08 0.04 0 0.1 0.04 0 0.12 0.04 0 0.14 0.04 0 0.16 0.04 0 0.18 0.04 0 0.2 0.04 0 0.22 0.04 0 0.24 0.04 0 0.26 0.04 0 0.28 0.04 0 0.3 0.04 0 0.32 0.04 0 0.34 0.04 0 0.36 0.04 0 0.38 0.04 0 0.4 0.04 0 0.42 0.04 0 0.44 0.04 0 0.46 0.04 0 0.48 0.04 0 0.5 0.04 0 0.52 0.04 0 0.54 0.04 0 0.56 0.04 0 0.58 0.04 0 0.6 0.04 0 0.62 0.04 0 0.64 0.04 0 0.66 0.04 0 0.68 0.04 0 0.7 0.04 0 0.72 0.04 0 0.74 0.04 0 0.76 0.04 0 0.78 0.04 0 0.8 0.04 0 0.82 0.04 0 0.84 0.04 0 0.86 0.04 0 0.88 0.04 0 0.9 0.04 0 0.92 0.04 0 0.94 0.04 0 0.96 0.04 0 0.98 0.04 0 1 0.04 0 0 0.06 0 0.02 0.06 0 0.04 0.06 0 0.06 0.06 0 0.08 0.06 0 0.1 0.06 0 0.12 0.06 0 0.14 0.06 0 0.16 0.06 0 0.18 0.06 0 0.2 0.06 0 0.22 0.06 0 0.24 0.06 0 0.26 0.06 0 0.28 0.06 0 0.3 0.06 0 0.32 0.06 0 0.34 0.06 0 0.36 0.06 0 0.38 0.06 0 0.4 0.06 0 0.42 0.06 0 0.44 0.06 0 0.46 0.06 0 0.48 0.06 0 0.5 0.06 0 0.52 0.06 0 0.54 0.06 0 0.56 0.06 0 0.58 0.06 0 0.6 0.06 0 0.62 0.06 0 0.64 0.06 0 0.66 0.06 0 0.68 0.06 0 0.7 0.06 0 0.72 0.06 0 0.74 0.06 0 0.76 0.06 0 0.78 0.06 0 0.8 0.06 0 0.82 0.06 0 0.84 0.06 0 0.86 0.06 0 0.88 0.06 0 0.9 0.06 0 0.92 0.06 0 0.94 0.06 0 0.96 0.06 0 0.98 0.06 0 1 0.06 0 0 0.08 0 0.02 0.08 0 0.04 0.08 0 0.06 0.08 0 0.08 0.08 0 0.1 0.08 0 0.12 0.08 0 0.14 0.08 0 0.16 0.08 0 0.18 0.08 0 0.2 0.08 0 0.22 0.08 0 0.24 0.08 0 0.26 0.08 0 0.28 0.08 0 0.3 0.08 0 0.32 0.08 0 0.34 0.08 0 0.36 0.08 0 0.38 0.08 0 0.4 0.08 0 0.42 0.08 0 0.44 0.08 0 0.46 0.08 0 0.48 0.08 0 0.5 0.08 0 0.52 0.08 0 0.54 0.08 0 0.56 0.08 0 0.58 0.08 0 0.6 0.08 0 0.62 0.08 0 0.64 0.08 0 0.66 0.08 0 0.68 0.08 0 0.7 0.08 0 0.72 0.08 0 0.74 0.08 0 0.76 0.08 0 0.78 0.08 0 0.8 0.08 0 0.82 0.08 0 0.84 0.08 0 0.86 0.08 0 0.88 0.08 0 0.9 0.08 0 0.92 0.08 0 0.94 0.08 0 0.96 0.08 0 0.98 0.08 0 1 0.08 0 0 0.1 0 0.02 0.1 0 0.04 0.1 0 0.06 0.1 0 0.08 0.1 0 0.1 0.1 0 0.12 0.1 0 0.14 0.1 0 0.16 0.1 0 0.18 0.1 0 0.2 0.1 0 0.22 0.1 0 0.24 0.1 0 0.26 0.1 0 0.28 0.1 0 0.3 0.1 0 0.32 0.1 0 0.34 0.1 0 0.36 0.1 0 0.38 0.1 0 0.4 0.1 0 0.42 0.1 0 0.44 0.1 0 0.46 0.1 0 0.48 0.1 0 0.5 0.1 0 0.52 0.1 0 0.54 0.1 0 0.56 0.1 0 0.58 0.1 0 0.6 0.1 0 0.62 0.1 0 0.64 0.1 0 0.66 0.1 0 0.68 0.1 0 0.7 0.1 0 0.72 0.1 0 0.74 0.1 0 0.76 0.1 0 0.78 0.1 0 0.8 0.1 0 0.82 0.1 0 0.84 0.1 0 0.86 0.1 0 0.88 0.1 0 0.9 0.1 0 0.92 0.1 0 0.94 0.1 0 0.96 0.1 0 0.98 0.1 0 1 0.1 0 0 0.12 0 0.02 0.12 0 0.04 0.12 0 0.06 0.12 0 0.08 0.12 0 0.1 0.12 0 0.12 0.12 0 0.14 0.12 0 0.16 0.12 0 0.18 0.12 0 0.2 0.12 0 0.22 0.12 0 0.24 0.12 0 0.26 0.12 0 0.28 0.12 0 0.3 0.12 0 0.32 0.12 0 0.34 0.12 0 0.36 0.12 0 0.38 0.12 0 0.4 0.12 0 0.42 0.12 0 0.44 0.12 0 0.46 0.12 0 0.48 0.12 0 0.5 0.12 0 0.52 0.12 0 0.54 0.12 0 0.56 0.12 0 0.58 0.12 0 0.6 0.12 0 0.62 0.12 0 0.64 0.12 0 0.66 0.12 0 0.68 0.12 0 0.7 0.12 0 0.72 0.12 0 0.74 0.12 0 0.76 0.12 0 0.78 0.12 0 0.8 0.12 0 0.82 0.12 0 0.84 0.12 0 0.86 0.12 0 0.88 0.12 0 0.9 0.12 0 0.92 0.12 0 0.94 0.12 0 0.96 0.12 0 0.98 0.12 0 1 0.12 0 0 0.14 0 0.02 0.14 0 0.04 0.14 0 0.06 0.14 0 0.08 0.14 0 0.1 0.14 0 0.12 0.14 0 0.14 0.14 0 0.16 0.14 0 0.18 0.14 0 0.2 0.14 0 0.22 0.14 0 0.24 0.14 0 0.26 0.14 0 0.28 0.14 0 0.3 0.14 0 0.32 0.14 0 0.34 0.14 0 0.36 0.14 0 0.38 0.14 0 0.4 0.14 0 0.42 0.14 0 0.44 0.14 0 0.46 0.14 0 0.48 0.14 0 0.5 0.14 0 0.52 0.14 0 0.54 0.14 0 0.56 0.14 0 0.58 0.14 0 0.6 0.14 0 0.62 0.14 0 0.64 0.14 0 0.66 0.14 0 0.68 0.14 0 0.7 0.14 0 0.72 0.14 0 0.74 0.14 0 0.76 0.14 0 0.78 0.14 0 0.8 0.14 0 0.82 0.14 0 0.84 0.14 0 0.86 0.14 0 0.88 0.14 0 0.9 0.14 0 0.92 0.14 0 0.94 0.14 0 0.96 0.14 0 0.98 0.14 0 1 0.14 0 0 0.16 0 0.02 0.16 0 0.04 0.16 0 0.06 0.16 0 0.08 0.16 0 0.1 0.16 0 0.12 0.16 0 0.14 0.16 0 0.16 0.16 0 0.18 0.16 0 0.2 0.16 0 0.22 0.16 0 0.24 0.16 0 0.26 0.16 0 0.28 0.16 0 0.3 0.16 0 0.32 0.16 0 0.34 0.16 0 0.36 0.16 0 0.38 0.16 0 0.4 0.16 0 0.42 0.16 0 0.44 0.16 0 0.46 0.16 0 0.48 0.16 0 0.5 0.16 0 0.52 0.16 0 0.54 0.16 0 0.56 0.16 0 0.58 0.16 0 0.6 0.16 0 0.62 0.16 0 0.64 0.16 0 0.66 0.16 0 0.68 0.16 0 0.7 0.16 0 0.72 0.16 0 0.74 0.16 0 0.76 0.16 0 0.78 0.16 0 0.8 0.16 0 0.82 0.16 0 0.84 0.16 0 0.86 0.16 0 0.88 0.16 0 0.9 0.16 0 0.92 0.16 0 0.94 0.16 0 0.96 0.16 0 0.98 0.16 0 1 0.16 0 0 0.18 0 0.02 0.18 0 0.04 0.18 0 0.06 0.18 0 0.08 0.18 0 0.1 0.18 0 0.12 0.18 0 0.14 0.18 0 0.16 0.18 0 0.18 0.18 0 0.2 0.18 0 0.22 0.18 0 0.24 0.18 0 0.26 0.18 0 0.28 0.18 0 0.3 0.18 0 0.32 0.18 0 0.34 0.18 0 0.36 0.18 0 0.38 0.18 0 0.4 0.18 0 0.42 0.18 0 0.44 0.18 0 0.46 0.18 0 0.48 0.18 0 0.5 0.18 0 0.52 0.18 0 0.54 0.18 0 0.56 0.18 0 0.58 0.18 0 0.6 0.18 0 0.62 0.18 0 0.64 0.18 0 0.66 0.18 0 0.68 0.18 0 0.7 0.18 0 0.72 0.18 0 0.74 0.18 0 0.76 0.18 0 0.78 0.18 0 0.8 0.18 0 0.82 0.18 0 0.84 0.18 0 0.86 0.18 0 0.88 0.18 0 0.9 0.18 0 0.92 0.18 0 0.94 0.18 0 0.96 0.18 0 0.98 0.18 0 1 0.18 0 0 0.2 0 0.02 0.2 0 0.04 0.2 0 0.06 0.2 0 0.08 0.2 0 0.1 0.2 0 0.12 0.2 0 0.14 0.2 0 0.16 0.2 0 0.18 0.2 0 0.2 0.2 0 0.22 0.2 0 0.24 0.2 0 0.26 0.2 0 0.28 0.2 0 0.3 0.2 0 0.32 0.2 0 0.34 0.2 0 0.36 0.2 0 0.38 0.2 0 0.4 0.2 0 0.42 0.2 0 0.44 0.2 0 0.46 0.2 0 0.48 0.2 0 0.5 0.2 0 0.52 0.2 0 0.54 0.2 0 0.56 0.2 0 0.58 0.2 0 0.6 0.2 0 0.62 0.2 0 0.64 0.2 0 0.66 0.2 0 0.68 0.2 0 0.7 0.2 0 0.72 0.2 0 0.74 0.2 0 0.76 0.2 0 0.78 0.2 0 0.8 0.2 0 0.82 0.2 0 0.84 0.2 0 0.86 0.2 0 0.88 0.2 0 0.9 0.2 0 0.92 0.2 0 0.94 0.2 0 0.96 0.2 0 0.98 0.2 0 1 0.2 0 0 0.22 0 0.02 0.22 0 0.04 0.22 0 0.06 0.22 0 0.08 0.22 0 0.1 0.22 0 0.12 0.22 0 0.14 0.22 0 0.16 0.22 0 0.18 0.22 0 0.2 0.22 0 0.22 0.22 0 0.24 0.22 0 0.26 0.22 0 0.28 0.22 0 0.3 0.22 0 0.32 0.22 0 0.34 0.22 0 0.36 0.22 0 0.38 0.22 0 0.4 0.22 0 0.42 0.22 0 0.44 0.22 0 0.46 0.22 0 0.48 0.22 0 0.5 0.22 0 0.52 0.22 0 0.54 0.22 0 0.56 0.22 0 0.58 0.22 0 0.6 0.22 0 0.62 0.22 0 0.64 0.22 0 0.66 0.22 0 0.68 0.22 0 0.7 0.22 0 0.72 0.22 0 0.74 0.22 0 0.76 0.22 0 0.78 0.22 0 0.8 0.22 0 0.82 0.22 0 0.84 0.22 0 0.86 0.22 0 0.88 0.22 0 0.9 0.22 0 0.92 0.22 0 0.94 0.22 0 0.96 0.22 0 0.98 0.22 0 1 0.22 0 0 0.24 0 0.02 0.24 0 0.04 0.24 0 0.06 0.24 0 0.08 0.24 0 0.1 0.24 0 0.12 0.24 0 0.14 0.24 0 0.16 0.24 0 0.18 0.24 0 0.2 0.24 0 0.22 0.24 0 0.24 0.24 0 0.26 0.24 0 0.28 0.24 0 0.3 0.24 0 0.32 0.24 0 0.34 0.24 0 0.36 0.24 0 0.38 0.24 0 0.4 0.24 0 0.42 0.24 0 0.44 0.24 0 0.46 0.24 0 0.48 0.24 0 0.5 0.24 0 0.52 0.24 0 0.54 0.24 0 0.56 0.24 0 0.58 0.24 0 0.6 0.24 0 0.62 0.24 0 0.64 0.24 0 0.66 0.24 0 0.68 0.24 0 0.7 0.24 0 0.72 0.24 0 0.74 0.24 0 0.76 0.24 0 0.78 0.24 0 0.8 0.24 0 0.82 0.24 0 0.84 0.24 0 0.86 0.24 0 0.88 0.24 0 0.9 0.24 0 0.92 0.24 0 0.94 0.24 0 0.96 0.24 0 0.98 0.24 0 1 0.24 0 0 0.26 0 0.02 0.26 0 0.04 0.26 0 0.06 0.26 0 0.08 0.26 0 0.1 0.26 0 0.12 0.26 0 0.14 0.26 0 0.16 0.26 0 0.18 0.26 0 0.2 0.26 0 0.22 0.26 0 0.24 0.26 0 0.26 0.26 0 0.28 0.26 0 0.3 0.26 0 0.32 0.26 0 0.34 0.26 0 0.36 0.26 0 0.38 0.26 0 0.4 0.26 0 0.42 0.26 0 0.44 0.26 0 0.46 0.26 0 0.48 0.26 0 0.5 0.26 0 0.52 0.26 0 0.54 0.26 0 0.56 0.26 0 0.58 0.26 0 0.6 0.26 0 0.62 0.26 0 0.64 0.26 0 0.66 0.26 0 0.68 0.26 0 0.7 0.26 0 0.72 0.26 0 0.74 0.26 0 0.76 0.26 0 0.78 0.26 0 0.8 0.26 0 0.82 0.26 0 0.84 0.26 0 0.86 0.26 0 0.88 0.26 0 0.9 0.26 0 0.92 0.26 0 0.94 0.26 0 0.96 0.26 0 0.98 0.26 0 1 0.26 0 0 0.28 0 0.02 0.28 0 0.04 0.28 0 0.06 0.28 0 0.08 0.28 0 0.1 0.28 0 0.12 0.28 0 0.14 0.28 0 0.16 0.28 0 0.18 0.28 0 0.2 0.28 0 0.22 0.28 0 0.24 0.28 0 0.26 0.28 0 0.28 0.28 0 0.3 0.28 0 0.32 0.28 0 0.34 0.28 0 0.36 0.28 0 0.38 0.28 0 0.4 0.28 0 0.42 0.28 0 0.44 0.28 0 0.46 0.28 0 0.48 0.28 0 0.5 0.28 0 0.52 0.28 0 0.54 0.28 0 0.56 0.28 0 0.58 0.28 0 0.6 0.28 0 0.62 0.28 0 0.64 0.28 0 0.66 0.28 0 0.68 0.28 0 0.7 0.28 0 0.72 0.28 0 0.74 0.28 0 0.76 0.28 0 0.78 0.28 0 0.8 0.28 0 0.82 0.28 0 0.84 0.28 0 0.86 0.28 0 0.88 0.28 0 0.9 0.28 0 0.92 0.28 0 0.94 0.28 0 0.96 0.28 0 0.98 0.28 0 1 0.28 0 0 0.3 0 0.02 0.3 0 0.04 0.3 0 0.06 0.3 0 0.08 0.3 0 0.1 0.3 0 0.12 0.3 0 0.14 0.3 0 0.16 0.3 0 0.18 0.3 0 0.2 0.3 0 0.22 0.3 0 0.24 0.3 0 0.26 0.3 0 0.28 0.3 0 0.3 0.3 0 0.32 0.3 0 0.34 0.3 0 0.36 0.3 0 0.38 0.3 0 0.4 0.3 0 0.42 0.3 0 0.44 0.3 0 0.46 0.3 0 0.48 0.3 0 0.5 0.3 0 0.52 0.3 0 0.54 0.3 0 0.56 0.3 0 0.58 0.3 0 0.6 0.3 0 0.62 0.3 0 0.64 0.3 0 0.66 0.3 0 0.68 0.3 0 0.7 0.3 0 0.72 0.3 0 0.74 0.3 0 0.76 0.3 0 0.78 0.3 0 0.8 0.3 0 0.82 0.3 0 0.84 0.3 0 0.86 0.3 0 0.88 0.3 0 0.9 0.3 0 0.92 0.3 0 0.94 0.3 0 0.96 0.3 0 0.98 0.3 0 1 0.3 0 0 0.32 0 0.02 0.32 0 0.04 0.32 0 0.06 0.32 0 0.08 0.32 0 0.1 0.32 0 0.12 0.32 0 0.14 0.32 0 0.16 0.32 0 0.18 0.32 0 0.2 0.32 0 0.22 0.32 0 0.24 0.32 0 0.26 0.32 0 0.28 0.32 0 0.3 0.32 0 0.32 0.32 0 0.34 0.32 0 0.36 0.32 0 0.38 0.32 0 0.4 0.32 0 0.42 0.32 0 0.44 0.32 0 0.46 0.32 0 0.48 0.32 0 0.5 0.32 0 0.52 0.32 0 0.54 0.32 0 0.56 0.32 0 0.58 0.32 0 0.6 0.32 0 0.62 0.32 0 0.64 0.32 0 0.66 0.32 0 0.68 0.32 0 0.7 0.32 0 0.72 0.32 0 0.74 0.32 0 0.76 0.32 0 0.78 0.32 0 0.8 0.32 0 0.82 0.32 0 0.84 0.32 0 0.86 0.32 0 0.88 0.32 0 0.9 0.32 0 0.92 0.32 0 0.94 0.
[...]
			<PointData Scalars="VitesseX">
				<DataArray Name="VitesseX" type="Float32" format="ascii">
 0 0 0 0 0 0 0 0 0 0 0 0 0 0 0 0 0 0 0 0 0 0 0 0 0 0 0 0 0 0 0 0 0 0 0 0 0 0 0 0 0 0 0 0 0 0 0 0 0 0 0 0 0.00037056 0.00147618 0.00329969 0.00581184 0.00897296 0.0127331 0.017033 0.0218047 0.0269731 0.0324568 0.0381696 0.0440214 0.0499196 0.0557718 0.0614867 0.0669737 0.0721465 0.0769237 0.0812299 0.0849973 0.0881663 0.0906869 0.0925193 0.093643 0.0940131 0.0936494 0.092553 0.0907249 0.0882145 0.0850539 0.081293 0.076991 0.0722157 0.0670426 0.0615532 0.0558343 0.049976 0.0440713 0.0382128 0.0324926 0.0270016 0.0218263 0.0170486 0.0127437 0.00897955 0.00581553 0.00330147 0.00147696 0.000370668 4.02133e-27 0 0.000734969 0.00292704 0.00654209 0.0115207 0.0177837 0.0252318 0.0337472 0.0431956 0.0534287 0.0642856 0.0755963 0.0871838 0.0988644 0.110457 0.121783 0.132662 0.142925 0.15241 0.160969 0.168465 0.174782 0.179817 0.183492 0.185781 0.186539 0.185877 0.183759 0.180164 0.175223 0.168984 0.161547 0.153026 0.143559 0.133293 0.122391 0.111028 0.0993821 0.0876412 0.075989 0.0646095 0.0536855 0.0433901 0.0338865 0.0253251 0.0178409 0.0115518 0.00655629 0.00293227 0.000735668 7.9787e-27 0 0.00108752 0.00433001 0.00967701 0.0170386 0.0262973 0.0373054 0.0498887 0.063849 0.0789672 0.0950067 0.111717 0.128838 0.146098 0.163232 0.179979 0.196073 0.211263 0.225312 0.237999 0.249124 0.258511 0.266011 0.271502 0.274967 0.276117 0.275209 0.272132 0.266846 0.259575 0.250375 0.239392 0.226797 0.212789 0.197592 0.181445 0.164607 0.147345 0.12994 0.112662 0.0957861 0.0795849 0.0643166 0.0502236 0.0375295 0.0264345 0.0171131 0.00971087 0.0043423 0.00108916 1.18096e-26 0 0.00142268 0.00566305 0.0126551 0.0222788 0.0343794 0.0487636 0.065203 0.083439 0.103186 0.124136 0.145962 0.168328 0.190876 0.213265 0.235158 0.256206 0.276083 0.29448 0.311107 0.325702 0.338035 0.347907 0.355159 0.359792 0.36133 0.36024 0.356281 0.349414 0.339952 0.327958 0.313619 0.297158 0.278837 0.258946 0.237803 0.215745 0.193126 0.170315 0.147666 0.125541 0.1043 0.0842824 0.065807 0.0491675 0.0346267 0.0224128 0.0127159 0.00568494 0.00142559 1.54537e-26 0 0.00173517 0.00690525 0.0154295 0.0271586 0.041903 0.0594259 0.0794489 0.101657 0.125703 0.151213 0.177792 0.205029 0.232492 0.259768 0.286449 0.312113 0.336364 0.358823 0.379139 0.396992 0.412098 0.424214 0.433143 0.438911 0.440837 0.439627 0.434878 0.426565 0.415089 0.400511 0.383057 0.363002 0.340661 0.316391 0.290579 0.263639 0.236005 0.208131 0.180451 0.153406 0.127442 0.102973 0.0803909 0.0600556 0.0422882 0.0273673 0.015524 0.00693902 0.00173966 1.88537e-26 0 0.00202009 0.00803713 0.0179567 0.0316014 0.0487496 0.0691245 0.092402 0.118216 0.146164 0.175813 0.206704 0.238364 0.27029 0.302007 0.333046 0.362915 0.391155 0.417327 0.441022 0.461868 0.479531 0.493726 0.504221 0.511071 0.513382 0.51211 0.506679 0.497081 0.483799 0.46689 0.446616 0.423293 0.397291 0.369024 0.338945 0.307536 0.275307 0.242794 0.2105 0.178943 0.148645 0.120093 0.0937457 0.0700224 0.0492985 0.0318984 0.0180908 0.00808475 0.00202642 2.19564e-26 0 0.00227298 0.00904099 0.0201969 0.0355374 0.0548114 0.0777065 0.103858 0.132856 0.164247 0.197547 0.232245 0.267809 0.303676 0.339319 0.374214 0.40781 0.439592 0.469069 0.495779 0.519304 0.539267 0.555344 0.567271 0.575126 0.577824 0.576541 0.570549 0.559846 0.544995 0.526044 0.503285 0.477075 0.447827 0.416008 0.38213 0.346741 0.310413 0.273757 0.23734 0.201748 0.167576 0.135374 0.105661 0.0789107 0.0555468 0.0359347 0.0203759 0.00910406 0.00228135 2.47129e-26 0 0.00248987 0.00990113 0.022115 0.0389046 0.059993 0.085037 0.113638 0.145345 0.179667 0.216074 0.254011 0.2929 0.332124 0.371116 0.409304 0.44609 0.480911 0.513231 0.542547 0.568397 0.590365 0.608095 0.621294 0.630059 0.633145 0.631895 0.625478 0.613869 0.597708 0.577037 0.552171 0.523498 0.491471 0.456603 0.419456 0.380633 0.340767 0.30053 0.260547 0.221463 0.183936 0.148575 0.115949 0.0865804 0.0609349 0.0394127 0.0223433 0.00998088 0.00250043 2.70801e-26 0 0.00266737 0.0106041 0.0236808 0.0416501 0.064213 0.0910012 0.121587 0.155489 0.192182 0.231104 0.271662 0.313242 0.355188 0.396897 0.437766 0.477153 0.514461 0.54912 0.580586 0.608364 0.632012 0.651142 0.665436 0.674998 0.678475 0.677293 0.6706 0.658297 0.641111 0.61907 0.59251 0.561841 0.52755 0.490183 0.450345 0.408688 0.365897 0.322695 0.279756 0.237777 0.197469 0.159487 0.124447 0.0929107 0.0653777 0.0422774 0.0239619 0.0107014 0.00268021 2.9021e-26 0 0.00280269 0.0111389 0.0248698 0.0437306 0.067405 0.0955054 0.127581 0.163128 0.201596 0.242399 0.284919 0.328516 0.372504 0.416257 0.459148 0.500507 0.539715 0.576169 0.609295 0.638577 0.663552 0.683807 0.698999 0.70923 0.713101 0.712013 0.705201 0.692427 0.67452 0.651481 0.623662 0.591493 0.555481 0.516206 0.474304 0.430465 0.385411 0.339906 0.294667 0.250434 0.207961 0.167939 0.131022 0.0978019 0.0688053 0.0444838 0.0252063 0.0112542 0.00281787 3.05051e-26 0 0.0028942 0.0115009 0.0256749 0.0451394 0.0695666 0.0985551 0.131638 0.168296 0.207965 0.250038 0.293883 0.338842 0.38421 0.429346 0.473607 0.516312 0.556812 0.594479 0.628734 0.659042 0.684915 0.705927 0.721718 0.73239 0.736493 0.735505 0.728736 0.71572 0.697401 0.673753 0.645133 0.611981 0.574824 0.534264 0.490954 0.445613 0.398993 0.351888 0.305047 0.259237 0.215248 0.173801 0.135571 0.101178 0.0711641 0.045997 0.0260567 0.0116306 0.00291123 3.15094e-26 0 0.0029386 0.0116701 0.0260377 0.0457522 0.0704757 0.0997979 0.133245 0.170295 0.210378 0.252886 0.297189 0.342626 0.388497 0.434158 0.47898 0.522271 0.563371 0.601664 0.63657 0.667543 0.694086 0.71576 0.732192 0.743419 0.748221 0.747452 0.741072 0.728144 0.70983 0.686051 0.657156 0.623594 0.585902 0.544688 0.500624 0.454451 0.406934 0.358893 0.311109 0.264362 0.219467 0.17717 0.138162 0.103078 0.0724737 0.0468241 0.0265134 0.0118289 0.00295936 3.20181e-26 0 0.00293856 0.0116695 0.026035 0.0457443 0.0704578 0.0997632 0.133188 0.170208 0.210253 0.252723 0.296983 0.342378 0.388215 0.433848 0.47866 0.521951 0.563062 0.601386 0.636333 0.667354 0.693948 0.715669 0.732142 0.743401 0.748219 0.747455 0.741087 0.72818 0.709895 0.686146 0.657283 0.623751 0.586079 0.544875 0.500814 0.454634 0.407106 0.359053 0.311245 0.264469 0.219547 0.177233 0.138204 0.1031 0.0724858 0.0468294 0.0265152 0.0118293 0.00295939 3.20233e-26 0 0.00289054 0.0114722 0.0255799 0.0449207 0.0691553 0.0978753 0.130616 0.166866 0.20607 0.247644 0.290971 0.335418 0.380322 0.425057 0.469017 0.511522 0.551951 0.589702 0.624202 0.654909 0.681324 0.703008 0.719585 0.731015 0.736368 0.735906 0.730453 0.718209 0.700677 0.677681 0.649558 0.616746 0.579757 0.539193 0.495728 0.450096 0.403077 0.355501 0.308149 0.261803 0.217282 0.175343 0.13667 0.101907 0.0716085 0.0462332 0.0261592 0.0116616 0.00291513 3.15249e-26 0 0.00279737 0.0110971 0.024731 0.0434099 0.0668004 0.0945047 0.126074 0.161013 0.198791 0.238851 0.280602 0.323438 0.366735 0.409897 0.452345 0.493421 0.532542 0.569131 0.60263 0.632512 0.658296 0.679554 0.695907 0.70725 0.712931 0.712588 0.707592 0.695905 0.679106 0.656992 0.629888 0.59821 0.562447 0.523183 0.481076 0.436837 0.391221 0.345033 0.299061 0.254065 0.210838 0.170112 0.132571 0.0988314 0.0694286 0.044814 0.0253491 0.0112973 0.00282326 3.05309e-26 0 0.00266 0.0105462 0.0234889 0.0412067 0.0633769 0.0896188 0.119505 0.152569 0.188308 0.226202 0.265697 0.306231 0.347228 0.388118 0.428365 0.467364 0.504562 0.539415 0.571392 0.599995 0.624769 0.64529 0.661188 0.672293 0.678263 0.678124 0.673904 0.663097 0.647433 0.62666 0.60108 0.571075 0.537116 0.499764 0.459647 0.417444 0.373894 0.329758 0.285794 0.242761 0.201419 0.162467 0.126575 0.0943214 0.06623 0.0427302 0.0241579 0.0107605 0.00268761 2.90567e-26 0 0.00248057 0.0098281 0.0218729 0.0383456 0.0589387 0.0832944 0.111014 0.141664 0.174785 0.209896 0.246494 0.284066 0.322105 0.360068 0.397464 0.433763 0.468451 0.501023 0.530987 0.557884 0.581275 0.600758 0.615984 0.62671 0.632913 0.63301 0.629666 0.61993 0.605666 0.586589 0.562957 0.535112 0.5035 0.468646 0.43114 0.391627 0.350804 0.309405 0.26814 0.227719 0.188891 0.152315 0.118614 0.0883449 0.0620025 0.0399806 0.0225892 0.010055 0.00250972 2.71254e-26 0 0.0022619 0.00895391 0.0199084 0.0348714 0.0535554 0.0756307 0.100733 0.128472 0.158434 0.19019 0.223294 0.257292 0.291748 0.326172 0.360128 0.393153 0.424783 0.454564 0.482059 0.50684 0.528502 0.546675 0.561021 0.571245 0.577575 0.577973 0.575579 0.567108 0.554496 0.537439 0.516135 0.490885 0.462122 0.430318 0.396005 0.359794 0.322325 0.284284 0.246356 0.209176 0.17345 0.139811 0.108822 0.0810071 0.056815 0.0366083 0.0206677 0.00919204 0.00229239 2.47674e-26 0 0.0020074 0.00793734 0.0176263 0.0308388 0.0473118 0.0667481 0.0888246 0.113198 0.13951 0.167393 0.196462 0.226332 0.256642 0.286967 0.316945 0.346171 0.374244 0.400775 0.42538 0.447673 0.467292 0.483895 0.497163 0.506817 0.512945 0.514166 0.512293 0.505546 0.494752 0.479987 0.461354 0.439116 0.413652 0.385386 0.3548 0.322446 0.288909 0.254809 0.220783 0.187423 0.155353 0.125153 0.0973518 0.072418 0.0507472 0.0326668 0.0184237 0.00818517 0.00203904 2.20194e-26 0 0.00172106 0.00679429 0.0150622 0.0263112 0.0403059 0.0567864 0.0754752 0.0960832 0.118313 0.141862 0.166418 0.191679 0.217346 0.243082 0.268593 0.293553 0.317631 0.340502 0.361843 0.381318 0.398611 0.41341 0.425419 0.43439 0.440278 0.44229 0.441046 0.436112 0.427336 0.41511 0.399461 0.380613 0.358859 0.33457 0.30818 0.280175 0.251082 0.221448 0.191843 0.1628 0.134875 0.108578 0.0843851 0.0627092 0.0438918 0.0282179 0.0158928 0.00705032 0.00175366 1.89246e-26 0 0.00140738 0.00554266 0.0122567 0.0213598 0.0326479 0.0459023 0.0608955 0.0773973 0.095176 0.114001 0.133638 0.153871 0.174473 0.195198 0.215826 0.236124 0.255833 0.274696 0.29245 0.308821 0.32354 0.336328 0.346925 0.355115 0.360718 0.363466 0.362984 0.359908 0.353329 0.34386 0.33145 0.316277 0.298579 0.278659 0.256876 0.23365 0.209441 0.184722 0.159989 0.135698 0.112336 0.0903443 0.0701275 0.0520354 0.036359 0.0233323 0.0131148 0.00580537 0.00144076 1.55316e-26 0 0.00107128 0.00420207 0.0092537 0.0160626 0.0244584 0.0342669 0.0453147 0.0574337 0.0704624 0.0842467 0.0986361 0.113499 0.128697 0.144076 0.159492 0.174802 0.189829 0.204392 0.218294 0.231319 0.243253 0.253863 0.26293 0.270237 0.275566 0.278816 0.279465 0.278036 0.273927 0.267356 0.258397 0.247141 0.233771 0.218526 0.201691 0.183603 0.164645 0.145213 0.125717 0.106543 0.0880954 0.0707389 0.0548012 0.0405673 0.0282706 0.0180876 0.0101336 0.00446997 0.00110526 1.18934e-26 0 0.000718037 0.00279356 0.00610059 0.010503 0.0158664 0.0220638 0.0289783 0.0365075 0.0445625 0.0530694 0.0619667 0.0712067 0.0807408 0.0905147 0.100473 0.110551 0.120656 0.130696 0.140538 0.150033 0.159018 0.167327 0.174751 0.181083 0.186144 0.189721 0.191749 0.19183 0.190349 0.186798 0.181444 0.174294 0.165465 0.15513 0.143498 0.130823 0.117399 0.103544 0.0895747 0.075802 0.0625386 0.0500693 0.0386475 0.0284858 0.0197523 0.0125661 0.00699633 0.0030652 0.000752451 8.06743e-27 0 0.000353211 0.00133933 0.00284721 0.0047691 0.00700862 0.00948776 0.0121482 0.0149546 0.017893 0.0209711 0.0242189 0.0276738 0.031375 0.0353726 0.0397012 0.0443815 0.0494174 0.0547848 0.0604254 0.0662641 0.0721864 0.0780657 0.0837517 0.0890554 0.0938056 0.0977956 0.100887 0.102939 0.10382 0.103438 0.101818 0.0988809 0.0947376 0.0894703 0.0832157 0.0761414 0.0684499 0.0603718 0.0521329 0.0439573 0.0360667 0.028665 0.0219248 0.0159818 0.0109376 0.0068545 0.00375238 0.00161321 0.000387893 4.11365e-27 0 -1.73302e-05 -0.000136889 -0.000452707 -0.00104366 -0.00196692 -0.00325085 -0.00489449 -0.0068655 -0.00910173 -0.0115136 -0.0139818 -0.0163782 -0.0185731 -0.0204219 -0.0217948 -0.0225848 -0.0227001 -0.0220819 -0.0207143 -0.018608 -0.0158273 -0.0124466 -0.00857155 -0.00436861 -9.22613e-07 0.0043718 0.00857639 0.0124444 0.015829 0.0186163 0.0207188 0.0220842 0.0226981 0.0225832 0.0217959 0.0204217 0.0185711 0.0163799 0.013983 0.0115126 0.00910077 0.00686552 0.00489542 0.00325132 0.00196638 0.00104329 0.000452928 0.000136911 1.73302e-05 9.43348e-29 0 -0.000387892 -0.0016132 -0.00375213 -0.00685465 -0.0109382 -0.0159814 -0.0219237 -0.0286649 -0.0360671 -0.0439585 -0.0521337 -0.0603689 -0.0684478 -0.0761406 -0.0832127 -0.0894724 -0.0947432 -0.098881 -0.101816 -0.103431 -0.103817 -0.102933 -0.100877 -0.0977928 -0.0938064 -0.0890531 -0.0837462 -0.0780666 -0.0721888 -0.0662633 -0.0604233 -0.0547806 -0.0494171 -0.0443826 -0.0397021 -0.0353742 -0.0313768 -0.0276726 -0.0242179 -0.020971 -0.0178931 -0.0149537 -0.0121478 -0.009488 -0.00700932 -0.00476963 -0.00284698 -0.0013393 -0.000353211 -3.9272e-27 0 -0.000752451 -0.00306519 -0.00699605 -0.012566 -0.0197529 -0.0284863 -0.0386469 -0.0500681 -0.0625372 -0.0758029 -0.0895783 -0.103541 -0.117392 -0.13082 -0.143493 -0.155129 -0.165472 -0.174297 -0.181448 -0.186797 -0.190352 -0.191836 -0.191746 -0.189719 -0.186142 -0.181079 -0.174742 -0.167323 -0.159023 -0.150033 -0.140535 -0.130694 -0.120656 -0.110548 -0.100471 -0.0905122 -0.0807386 -0.0712074 -0.0619676 -0.0530679 -0.0445617 -0.0365069 -0.0289781 -0.0220639 -0.0158677 -0.0105039 -0.00610033 -0.00279353 -0.000718037 -7.88753e-27 0 -0.00110526 -0.00446995 -0.0101333 -0.0180876 -0.0282719 -0.040568 -0.0548 -0.0707368 -0.0880939 -0.106544 -0.12572 -0.145216 -0.164638 -0.183594 -0.201683 -0.218517 -0.233774 -0.247147 -0.258404 -0.267359 -0.273925 -0.278036 -0.279466 -0.278811 -0.275561 -0.270235 -0.262934 -0.253866 -0.243251 -0.231317 -0.218291 -0.204392 -0.18983 -0.174804 -0.159496 -0.144077 -0.128695 -0.113502 -0.0986381 -0.0842441 -0.0704608 -0.0574341 -0.0453151 -0.0342671 -0.0244598 -0.0160636 -0.00925344 -0.00420202 -0.00107128 -1.17241e-26 0 -0.00144076 -0.00580535 -0.0131144 -0.0233322 -0.0363605 -0.0520356 -0.0701275 -0.0903439 -0.112333 -0.135696 -0.15999 -0.184726 -0.209441 -0.23364 -0.256863 -0.278643 -0.298572 -0.316282 -0.331456 -0.343865 -0.353328 -0.359914 -0.362989 -0.363463 -0.360711 -0.355119 -0.346935 -0.336326 -0.323534 -0.308819 -0.292449 -0.274698 -0.255834 -0.236127 -0.215831 -0.1952 -0.174472 -0.153872 -0.133637 -0.113997 -0.0951737 -0.0773975 -0.0608963 -0.045903 -0.0326495 -0.0213608 -0.0122565 -0.0055426 -0.00140738 -1.53764e-26 0 -0.00175366 -0.0070503 -0.0158924 -0.0282172 -0.0438913 -0.0627081 -0.0843869 -0.108579 -0.134872 -0.162798 -0.191845 -0.221449 -0.251086 -0.280175 -0.308172 -0.334559 -0.358845 -0.380605 -0.399457 -0.415113 -0.427342 -0.436121 -0.441048 -0.442287 -0.440274 -0.434397 -0.425423 -0.413406 -0.398608 -0.381317 -0.361843 -0.340504 -0.317629 -0.293549 -0.268589 -0.243077 -0.217347 -0.191679 -0.166414 -0.141858 -0.11831 -0.0960827 -0.0754769 -0.0567884 -0.0403083 -0.0263125 -0.0150621 -0.00679422 -0.00172106 -1.87864e-26 0 -0.00203904 -0.00818517 -0.0184233 -0.0326654 -0.0507452 -0.0724166 -0.0973531 -0.125156 -0.155355 -0.187422 -0.220785 -0.254809 -0.288909 -0.32245 -0.354806 -0.385392 -0.413655 -0.439109 -0.46134 -0.479984 -0.49476 -0.505551 -0.51229 -0.514163 -0.512948 -0.506819 -0.497162 -0.483893 -0.467292 -0.447673 -0.425379 -0.400776 -0.374242 -0.346166 -0.316939 -0.286959 -0.256643 -0.226332 -0.196453 -0.167387 -0.139506 -0.113196 -0.088828 -0.0667518 -0.047315 -0.0308404 -0.0176262 -0.00793725 -0.0020074 -2.19003e-26 0 -0.00229239 -0.00919205 -0.0206673 -0.0366067 -0.056814 -0.0810079 -0.108822 -0.139812 -0.173458 -0.209179 -0.246351 -0.28428 -0.322321 -0.359792 -0.396011 -0.430329 -0.462139 -0.490895 -0.516135 -0.537449 -0.554518 -0.567122 -0.57558 -0.577971 -0.577574 -0.571244 -0.56102 -0.546675 -0.528503 -0.506839 -0.482058 -0.454564 -0.424781 -0.393149 -0.360122 -0.326158 -0.291744 -0.257289 -0.223284 -0.190185 -0.158428 -0.12847 -0.100738 -0.0756359 -0.0535594 -0.0348734 -0.0199084 -0.00895381 -0.0022619 -2.46686e-26 0 -0.00250972 -0.010055 -0.0225889 -0.0399788 -0.0620021 -0.0883467 -0.118612 -0.152315 -0.188895 -0.227726 -0.268141 -0.309396 -0.350798 -0.391622 -0.431137 -0.468651 -0.503509 -0.535122 -0.562967 -0.586604 -0.605682 -0.61994 -0.629668 -0.633009 -0.632912 -0.62671 -0.615986 -0.60076 -0.581274 -0.557883 -0.530987 -0.501021 -0.468449 -0.43376 -0.397457 -0.360054 -0.322098 -0.28406 -0.246483 -0.209891 -0.17478 -0.141663 -0.111021 -0.0833008 -0.0589435 -0.038348 -0.021873 -0.00982799 -0.00248057 -2.70475e-26 0 -0.00268761 -0.0107605 -0.0241578 -0.0427286 -0.0662278 -0.0943177 -0.126569 -0.162468 -0.201421 -0.24277 -0.285809 -0.329761 -0.37389 -0.417441 -0.45964 -0.499761 -0.537117 -0.571077 -0.601085 -0.626667 -0.647436 -0.6631 -0.673906 -0.678124 -0.678263 -0.672293 -0.661187 -0.645289 -0.624769 -0.599997 -0.57139 -0.539411 -0.504559 -0.467359 -0.428357 -0.388113 -0.347226 -0.306224 -0.265687 -0.226197 -0.188305 -0.152568 -0.119513 -0.0896259 -0.0633825 -0.0412096 -0.0234891 -0.0105461 -0.00266 -2.89991e-26 0 -0.00282326 -0.0112973 -0.0253491 -0.0448127 -0.0694246 -0.098827 -0.132569 -0.170111 -0.210841 -0.254075 -0.299079 -0.345053 -0.391231 -0.436839 -0.481073 -0.523177 -0.56244 -0.598207 -0.629893 -0.656997 -0.679107 -0.695906 -0.707593 -0.712588 -0.712931 -0.707249 -0.695907 -0.679555 -0.658298 -0.63251 -0.602626 -0.569128 -0.532539 -0.493414 -0.452334 -0.409894 -0.366736 -0.323424 -0.280585 -0.238848 -0.198791 -0.161014 -0.12608 -0.0945113 -0.0668067 -0.0434133 -0.0247313 -0.011097 -0.00279736 -3.04924e-26 0 -0.00291513 -0.0116617 -0.0261592 -0.0462322 -0.071605 -0.101905 -0.136667 -0.175336 -0.217283 -0.261807 -0.308155 -0.355512 -0.403092 -0.450106 -0.495731 -0.539191 -0.579753 -0.616744 -0.649561 -0.677682 -0.700677 -0.718209 -0.730453 -0.735906 -0.736368 -0.731015 -0.719587 -0.70301 -0.681323 -0.654906 -0.6242 -0.5897 -0.551947 -0.511515 -0.46901 -0.425055 -0.38032 -0.335396 -0.29095 -0.247645 -0.206071 -0.166867 -0.130621 -0.0978809 -0.0691619 -0.0449243 -0.0255802 -0.0114721 -0.00289053 -3.15036e-26 0 -0.00295939 -0.0118293 -0.0265153 -0.046829 -0.0724831 -0.103096 -0.138195 -0.177223 -0.219549 -0.264473 -0.311243 -0.359052 -0.407111 -0.454642 -0.500822 -0.544879 -0.586081 -0.623752 -0.657283 -0.686145 -0.709894 -0.72818 -0.741087 -0.747455 -0.748219 -0.743401 -0.732142 -0.715668 -0.693946 -0.667353 -0.636331 -0.601383 -0.563056 -0.521941 -0.478658 -0.433851 -0.38821 -0.342356 -0.296966 -0.252726 -0.210256 -0.170209 -0.13319 -0.0997665 -0.0704629 -0.0457474 -0.0260353 -0.0116694 -0.00293856 -3.20166e-26 0 -0.00295936 -0.0118289 -0.0265135 -0.0468239 -0.0724719 -0.103074 -0.138158 -0.177166 -0.219467 -0.264364 -0.311108 -0.358893 -0.406933 -0.454452 -0.500628 -0.54469 -0.585905 -0.623598 -0.657157 -0.68605 -0.70983 -0.728143 -0.741072 -0.747452 -0.748221 -0.743419 -0.732191 -0.715759 -0.694085 -0.667542 -0.636568 -0.601659 -0.563361 -0.52226 -0.478978 -0.434159 -0.388492 -0.342613 -0.297181 -0.252886 -0.210378 -0.170297 -0.133245 -0.0997977 -0.0704785 -0.0457544 -0.026038 -0.01167 -0.0029386 -3.20233e-26 0 -0.00291123 -0.0116306 -0.0260567 -0.045997 -0.0711632 -0.101176 -0.13557 -0.1738 -0.215249 -0.25924 -0.305046 -0.351886 -0.398991 -0.445615 -0.490956 -0.534264 -0.574827 -0.611983 -0.645134 -0.673755 -0.697402 -0.715721 -0.728737 -0.735505 -0.736493 -0.73239 -0.721718 -0.705926 -0.684914 -0.65904 -0.62873 -0.594472 -0.556806 -0.516313 -0.473613 -0.42935 -0.38421 -0.338839 -0.29388 -0.250036 -0.207964 -0.168298 -0.131637 -0.0985542 -0.0695681 -0.045141 -0.0256752 -0.0115008 -0.0028942 -3.15234e-26 0 -0.00281787 -0.0112542 -0.0252063 -0.0444838 -0.0688052 -0.0978015 -0.131022 -0.16794 -0.207961 -0.250437 -0.294669 -0.339905 -0.38541 -0.430466 -0.474304 -0.516203 -0.555478 -0.591491 -0.623662 -0.651483 -0.674521 -0.692427 -0.705201 -0.712013 -0.713101 -0.709231 -0.698999 -0.683806 -0.663551 -0.638575 -0.60929 -0.576163 -0.539716 -0.500513 -0.459153 -0.41626 -0.372504 -0.328515 -0.284918 -0.242399 -0.201597 -0.163129 -0.127581 -0.0955054 -0.0674059 -0.0437316 -0.02487 -0.0111389 -0.00280269 -3.0525e-26 0 -0.00268021 -0.0107014 -0.0239619 -0.0422774 -0.0653777 -0.0929105 -0.124447 -0.159487 -0.197469 -0.237779 -0.279758 -0.322696 -0.3659 -0.408692 -0.450346 -0.4901