<?xml version="1.0"?>
<VTKFile type="PolyData">
	<PolyData>
		<Piece NumberOfPoints="2601" NumberOfPolys="2500">
			<Points>
				<DataArray type="Float32" NumberOfComponents="3" format="ascii">
 0 0 0 0.02 0 0 0.04 0 0 0.06 0 0 0.08 0 0 0.1 0 0 0.12 0 0 0.14 0 0 0.16 0 0 0.18 0 0 0.2 0 0 0.22 0 0 0.24 0 0 0.26 0 0 0.28 0 0 0.3 0 0 0.32 0 0 0.34 0 0 0.36 0 0 0.38 0 0 0.4 0 0 0.42 0 0 0.44 0 0 0.46 0 0 0.48 0 0 0.5 0 0 0.52 0 0 0.54 0 0 0.56 0 0 0.58 0 0 0.6 0 0 0.62 0 0 0.64 0 0 0.66 0 0 0.68 0 0 0.7 0 0 0.72 0 0 0.74 0 0 0.76 0 0 0.78 0 0 0.8 0 0 0.82 0 0 0.84 0 0 0.86 0 0 0.88 0 0 0.9 0 0 0.92 0 0 0.94 0 0 0.96 0 0 0.98 0 0 1 0 0 0 0.02 0 0.02 0.02 0 0.04 0.02 0 0.06 0.02 0 0.08 0.02 0 0.1 0.02 0 0.12 0.02 0 0.14 0.02 0 0.16 0.02 0 0.18 0.02 0 0.2 0.02 0 0.22 0.02 0 0.24 0.02 0 0.26 0.02 0 0.28 0.02 0 0.3 0.02 0 0.32 0.02 0 0.34 0.02 0 0.36 0.02 0 0.38 0.02 0 0.4 0.02 0 0.42 0.02 0 0.44 0.02 0 0.46 0.02 0 0.48 0.02 0 0.5 0.02 0 0.52 0.02 0 0.54 0.02 0 0.56 0.02 0 0.58 0.02 0 0.6 0.02 0 0.62 0.02 0 0.64 0.02 0 0.66 0.02 0 0.68 0.02 0 0.7 0.02 0 0.72 0.02 0 0.74 0.02 0 0.76 0.02 0 0.78 0.02 0 0.8 0.02 0 0.82 0.02 0 0.84 0.02 0 0.86 0.02 0 0.88 0.02 0 0.9 0.02 0 0.92 0.02 0 0.94 0.02 0 0.96 0.02 0 0.98 0.02 0 1 0.02 0 0 0.04 0 0.02 0.04 0 0.04 0.04 0 0.06 0.04 0 0.08 0.04 0 0.1 0.04 0 0.12 0.04 0 0.14 0.04 0 0.16 0.04 0 0.18 0.04 0 0.2 0.04 0 0.22 0.04 0 0.24 0.04 0 0.26 0.04 0 0.28 0.04 0 0.3 0.04 0 0.32 0.04 0 0.34 0.04 0 0.36 0.04 0 0.38 0.04 0 0.4 0.04 0 0.42 0.04 0 0.44 0.04 0 0.46 0.04 0 0.48 0.04 0 0.5 0.04 0 0.52 0.04 0 0.54 0.04 0 0.56 0.04 0 0.58 0.04 0 0.6 0.04 0 0.62 0.04 0 0.64 0.04 0 0.66 0.04 0 0.68 0.04 0 0.7 0.04 0 0.72 0.04 0 0.74 0.04 0 0.76 0.04 0 0.78 0.04 0 0.8 0.04 0 0.82 0.04 0 0.84 0.04 0 0.86 0.04 0 0.88 0.04 0 0.9 0.04 0 0.92 0.04 0 0.94 0.04 0 0.96 0.04 0 0.98 0.04 0 1 0.04 0 0 0.06 0 0.02 0.06 0 0.04 0.06 0 0.06 0.06 0 0.08 0.06 0 0.1 0.06 0 0.12 0.06 0 0.14 0.06 0 0.16 0.06 0 0.18 0.06 0 0.2 0.06 0 0.22 0.06 0 0.24 0.06 0 0.26 0.06 0 0.28 0.06 0 0.3 0.06 0 0.32 0.06 0 0.34 0.06 0 0.36 0.06 0 0.38 0.06 0 0.4 0.06 0 0.42 0.06 0 0.44 0.06 0 0.46 0.06 0 0.48 0.06 0 0.5 0.06 0 0.52 0.06 0 0.54 0.06 0 0.56 0.06 0 0.58 0.06 0 0.6 0.06 0 0.62 0.06 0 0.64 0.06 0 0.66 0.06 0 0.68 0.06 0 0.7 0.06 0 0.72 0.06 0 0.74 0.06 0 0.76 0.06 0 0.78 0.06 0 0.8 0.06 0 0.82 0.06 0 0.84 0.06 0 0.86 0.06 0 0.88 0.06 0 0.9 0.06 0 0.92 0.06 0 0.94 0.06 0 0.96 0.06 0 0.98 0.06 0 1 0.06 0 0 0.08 0 0.02 0.08 0 0.04 0.08 0 0.06 0.08 0 0.08 0.08 0 0.1 0.08 0 0.12 0.08 0 0.14 0.08 0 0.16 0.08 0 0.18 0.08 0 0.2 0.08 0 0.22 0.08 0 0.24 0.08 0 0.26 0.08 0 0.28 0.08 0 0.3 0.08 0 0.32 0.08 0 0.34 0.08 0 0.36 0.08 0 0.38 0.08 0 0.4 0.08 0 0.42 0.08 0 0.44 0.08 0 0.46 0.08 0 0.48 0.08 0 0.5 0.08 0 0.52 0.08 0 0.54 0.08 0 0.56 0.08 0 0.58 0.08 0 0.6 0.08 0 0.62 0.08 0 0.64 0.08 0 0.66 0.08 0 0.68 0.08 0 0.7 0.08 0 0.72 0.08 0 0.74 0.08 0 0.76 0.08 0 0.78 0.08 0 0.8 0.08 0 0.82 0.08 0 0.84 0.08 0 0.86 0.08 0 0.88 0.08 0 0.9 0.08 0 0.92 0.08 0 0.94 0.08 0 0.96 0.08 0 0.98 0.08 0 1 0.08 0 0 0.1 0 0.02 0.1 0 0.04 0.1 0 0.06 0.1 0 0.08 0.1 0 0.1 0.1 0 0.12 0.1 0 0.14 0.1 0 0.16 0.1 0 0.18 0.1 0 0.2 0.1 0 0.22 0.1 0 0.24 0.1 0 0.26 0.1 0 0.28 0.1 0 0.3 0.1 0 0.32 0.1 0 0.34 0.1 0 0.36 0.1 0 0.38 0.1 0 0.4 0.1 0 0.42 0.1 0 0.44 0.1 0 0.46 0.1 0 0.48 0.1 0 0.5 0.1 0 0.52 0.1 0 0.54 0.1 0 0.56 0.1 0 0.58 0.1 0 0.6 0.1 0 0.62 0.1 0 0.64 0.1 0 0.66 0.1 0 0.68 0.1 0 0.7 0.1 0 0.72 0.1 0 0.74 0.1 0 0.76 0.1 0 0.78 0.1 0 0.8 0.1 0 0.82 0.1 0 0.84 0.1 0 0.86 0.1 0 0.88 0.1 0 0.9 0.1 0 0.92 0.1 0 0.94 0.1 0 0.96 0.1 0 0.98 0.1 0 1 0.1 0 0 0.12 0 0.02 0.12 0 0.04 0.12 0 0.06 0.12 0 0.08 0.12 0 0.1 0.12 0 0.12 0.12 0 0.14 0.12 0 0.16 0.12 0 0.18 0.12 0 0.2 0.12 0 0.22 0.12 0 0.24 0.12 0 0.26 0.12 0 0.28 0.12 0 0.3 0.12 0 0.32 0.12 0 0.34 0.12 0 0.36 0.12 0 0.38 0.12 0 0.4 0.12 0 0.42 0.12 0 0.44 0.12 0 0.46 0.12 0 0.48 0.12 0 0.5 0.12 0 0.52 0.12 0 0.54 0.12 0 0.56 0.12 0 0.58 0.12 0 0.6 0.12 0 0.62 0.12 0 0.64 0.12 0 0.66 0.12 0 0.68 0.12 0 0.7 0.12 0 0.72 0.12 0 0.74 0.12 0 0.76 0.12 0 0.78 0.12 0 0.8 0.12 0 0.82 0.12 0 0.84 0.12 0 0.86 0.12 0 0.88 0.12 0 0.9 0.12 0 0.92 0.12 0 0.94 0.12 0 0.96 0.12 0 0.98 0.12 0 1 0.12 0 0 0.14 0 0.02 0.14 0 0.04 0.14 0 0.06 0.14 0 0.08 0.14 0 0.1 0.14 0 0.12 0.14 0 0.14 0.14 0 0.16 0.14 0 0.18 0.14 0 0.2 0.14 0 0.22 0.14 0 0.24 0.14 0 0.26 0.14 0 0.28 0.14 0 0.3 0.14 0 0.32 0.14 0 0.34 0.14 0 0.36 0.14 0 0.38 0.14 0 0.4 0.14 0 0.42 0.14 0 0.44 0.14 0 0.46 0.14 0 0.48 0.14 0 0.5 0.14 0 0.52 0.14 0 0.54 0.14 0 0.56 0.14 0 0.58 0.14 0 0.6 0.14 0 0.62 0.14 0 0.64 0.14 0 0.66 0.14 0 0.68 0.14 0 0.7 0.14 0 0.72 0.14 0 0.74 0.14 0 0.76 0.14 0 0.78 0.14 0 0.8 0.14 0 0.82 0.14 0 0.84 0.14 0 0.86 0.14 0 0.88 0.14 0 0.9 0.14 0 0.92 0.14 0 0.94 0.14 0 0.96 0.14 0 0.98 0.14 0 1 0.14 0 0 0.16 0 0.02 0.16 0 0.04 0.16 0 0.06 0.16 0 0.08 0.16 0 0.1 0.16 0 0.12 0.16 0 0.14 0.16 0 0.16 0.16 0 0.18 0.16 0 0.2 0.16 0 0.22 0.16 0 0.24 0.16 0 0.26 0.16 0 0.28 0.16 0 0.3 0.16 0 0.32 0.16 0 0.34 0.16 0 0.36 0.16 0 0.38 0.16 0 0.4 0.16 0 0.42 0.16 0 0.44 0.16 0 0.46 0.16 0 0.48 0.16 0 0.5 0.16 0 0.52 0.16 0 0.54 0.16 0 0.56 0.16 0 0.58 0.16 0 0.6 0.16 0 0.62 0.16 0 0.64 0.16 0 0.66 0.16 0 0.68 0.16 0 0.7 0.16 0 0.72 0.16 0 0.74 0.16 0 0.76 0.16 0 0.78 0.16 0 0.8 0.16 0 0.82 0.16 0 0.84 0.16 0 0.86 0.16 0 0.88 0.16 0 0.9 0.16 0 0.92 0.16 0 0.94 0.16 0 0.96 0.16 0 0.98 0.16 0 1 0.16 0 0 0.18 0 0.02 0.18 0 0.04 0.18 0 0.06 0.18 0 0.08 0.18 0 0.1 0.18 0 0.12 0.18 0 0.14 0.18 0 0.16 0.18 0 0.18 0.18 0 0.2 0.18 0 0.22 0.18 0 0.24 0.18 0 0.26 0.18 0 0.28 0.18 0 0.3 0.18 0 0.32 0.18 0 0.34 0.18 0 0.36 0.18 0 0.38 0.18 0 0.4 0.18 0 0.42 0.18 0 0.44 0.18 0 0.46 0.18 0 0.48 0.18 0 0.5 0.18 0 0.52 0.18 0 0.54 0.18 0 0.56 0.18 0 0.58 0.18 0 0.6 0.18 0 0.62 0.18 0 0.64 0.18 0 0.66 0.18 0 0.68 0.18 0 0.7 0.18 0 0.72 0.18 0 0.74 0.18 0 0.76 0.18 0 0.78 0.18 0 0.8 0.18 0 0.82 0.18 0 0.84 0.18 0 0.86 0.18 0 0.88 0.18 0 0.9 0.18 0 0.92 0.18 0 0.94 0.18 0 0.96 0.18 0 0.98 0.18 0 1 0.18 0 0 0.2 0 0.02 0.2 0 0.04 0.2 0 0.06 0.2 0 0.08 0.2 0 0.1 0.2 0 0.12 0.2 0 0.14 0.2 0 0.16 0.2 0 0.18 0.2 0 0.2 0.2 0 0.22 0.2 0 0.24 0.2 0 0.26 0.2 0 0.28 0.2 0 0.3 0.2 0 0.32 0.2 0 0.34 0.2 0 0.36 0.2 0 0.38 0.2 0 0.4 0.2 0 0.42 0.2 0 0.44 0.2 0 0.46 0.2 0 0.48 0.2 0 0.5 0.2 0 0.52 0.2 0 0.54 0.2 0 0.56 0.2 0 0.58 0.2 0 0.6 0.2 0 0.62 0.2 0 0.64 0.2 0 0.66 0.2 0 0.68 0.2 0 0.7 0.2 0 0.72 0.2 0 0.74 0.2 0 0.76 0.2 0 0.78 0.2 0 0.8 0.2 0 0.82 0.2 0 0.84 0.2 0 0.86 0.2 0 0.88 0.2 0 0.9 0.2 0 0.92 0.2 0 0.94 0.2 0 0.96 0.2 0 0.98 0.2 0 1 0.2 0 0 0.22 0 0.02 0.22 0 0.04 0.22 0 0.06 0.22 0 0.08 0.22 0 0.1 0.22 0 0.12 0.22 0 0.14 0.22 0 0.16 0.22 0 0.18 0.22 0 0.2 0.22 0 0.22 0.22 0 0.24 0.22 0 0.26 0.22 0 0.28 0.22 0 0.3 0.22 0 0.32 0.22 0 0.34 0.22 0 0.36 0.22 0 0.38 0.22 0 0.4 0.22 0 0.42 0.22 0 0.44 0.22 0 0.46 0.22 0 0.48 0.22 0 0.5 0.22 0 0.52 0.22 0 0.54 0.22 0 0.56 0.22 0 0.58 0.22 0 0.6 0.22 0 0.62 0.22 0 0.64 0.22 0 0.66 0.22 0 0.68 0.22 0 0.7 0.22 0 0.72 0.22 0 0.74 0.22 0 0.76 0.22 0 0.78 0.22 0 0.8 0.22 0 0.82 0.22 0 0.84 0.22 0 0.86 0.22 0 0.88 0.22 0 0.9 0.22 0 0.92 0.22 0 0.94 0.22 0 0.96 0.22 0 0.98 0.22 0 1 0.22 0 0 0.24 0 0.02 0.24 0 0.04 0.24 0 0.06 0.24 0 0.08 0.24 0 0.1 0.24 0 0.12 0.24 0 0.14 0.24 0 0.16 0.24 0 0.18 0.24 0 0.2 0.24 0 0.22 0.24 0 0.24 0.24 0 0.26 0.24 0 0.28 0.24 0 0.3 0.24 0 0.32 0.24 0 0.34 0.24 0 0.36 0.24 0 0.38 0.24 0 0.4 0.24 0 0.42 0.24 0 0.44 0.24 0 0.46 0.24 0 0.48 0.24 0 0.5 0.24 0 0.52 0.24 0 0.54 0.24 0 0.56 0.24 0 0.58 0.24 0 0.6 0.24 0 0.62 0.24 0 0.64 0.24 0 0.66 0.24 0 0.68 0.24 0 0.7 0.24 0 0.72 0.24 0 0.74 0.24 0 0.76 0.24 0 0.78 0.24 0 0.8 0.24 0 0.82 0.24 0 0.84 0.24 0 0.86 0.24 0 0.88 0.24 0 0.9 0.24 0 0.92 0.24 0 0.94 0.24 0 0.96 0.24 0 0.98 0.24 0 1 0.24 0 0 0.26 0 0.02 0.26 0 0.04 0.26 0 0.06 0.26 0 0.08 0.26 0 0.1 0.26 0 0.12 0.26 0 0.14 0.26 0 0.16 0.26 0 0.18 0.26 0 0.2 0.26 0 0.22 0.26 0 0.24 0.26 0 0.26 0.26 0 0.28 0.26 0 0.3 0.26 0 0.32 0.26 0 0.34 0.26 0 0.36 0.26 0 0.38 0.26 0 0.4 0.26 0 0.42 0.26 0 0.44 0.26 0 0.46 0.26 0 0.48 0.26 0 0.5 0.26 0 0.52 0.26 0 0.54 0.26 0 0.56 0.26 0 0.58 0.26 0 0.6 0.26 0 0.62 0.26 0 0.64 0.26 0 0.66 0.26 0 0.68 0.26 0 0.7 0.26 0 0.72 0.26 0 0.74 0.26 0 0.76 0.26 0 0.78 0.26 0 0.8 0.26 0 0.82 0.26 0 0.84 0.26 0 0.86 0.26 0 0.88 0.26 0 0.9 0.26 0 0.92 0.26 0 0.94 0.26 0 0.96 0.26 0 0.98 0.26 0 1 0.26 0 0 0.28 0 0.02 0.28 0 0.04 0.28 0 0.06 0.28 0 0.08 0.28 0 0.1 0.28 0 0.12 0.28 0 0.14 0.28 0 0.16 0.28 0 0.18 0.28 0 0.2 0.28 0 0.22 0.28 0 0.24 0.28 0 0.26 0.28 0 0.28 0.28 0 0.3 0.28 0 0.32 0.28 0 0.34 0.28 0 0.36 0.28 0 0.38 0.28 0 0.4 0.28 0 0.42 0.28 0 0.44 0.28 0 0.46 0.28 0 0.48 0.28 0 0.5 0.28 0 0.52 0.28 0 0.54 0.28 0 0.56 0.28 0 0.58 0.28 0 0.6 0.28 0 0.62 0.28 0 0.64 0.28 0 0.66 0.28 0 0.68 0.28 0 0.7 0.28 0 0.72 0.28 0 0.74 0.28 0 0.76 0.28 0 0.78 0.28 0 0.8 0.28 0 0.82 0.28 0 0.84 0.28 0 0.86 0.28 0 0.88 0.28 0 0.9 0.28 0 0.92 0.28 0 0.94 0.28 0 0.96 0.28 0 0.98 0.28 0 1 0.28 0 0 0.3 0 0.02 0.3 0 0.04 0.3 0 0.06 0.3 0 0.08 0.3 0 0.1 0.3 0 0.12 0.3 0 0.14 0.3 0 0.16 0.3 0 0.18 0.3 0 0.2 0.3 0 0.22 0.3 0 0.24 0.3 0 0.26 0.3 0 0.28 0.3 0 0.3 0.3 0 0.32 0.3 0 0.34 0.3 0 0.36 0.3 0 0.38 0.3 0 0.4 0.3 0 0.42 0.3 0 0.44 0.3 0 0.46 0.3 0 0.48 0.3 0 0.5 0.3 0 0.52 0.3 0 0.54 0.3 0 0.56 0.3 0 0.58 0.3 0 0.6 0.3 0 0.62 0.3 0 0.64 0.3 0 0.66 0.3 0 0.68 0.3 0 0.7 0.3 0 0.72 0.3 0 0.74 0.3 0 0.76 0.3 0 0.78 0.3 0 0.8 0.3 0 0.82 0.3 0 0.84 0.3 0 0.86 0.3 0 0.88 0.3 0 0.9 0.3 0 0.92 0.3 0 0.94 0.3 0 0.96 0.3 0 0.98 0.3 0 1 0.3 0 0 0.32 0 0.02 0.32 0 0.04 0.32 0 0.06 0.32 0 0.08 0.32 0 0.1 0.32 0 0.12 0.32 0 0.14 0.32 0 0.16 0.32 0 0.18 0.32 0 0.2 0.32 0 0.22 0.32 0 0.24 0.32 0 0.26 0.32 0 0.28 0.32 0 0.3 0.32 0 0.32 0.32 0 0.34 0.32 0 0.36 0.32 0 0.38 0.32 0 0.4 0.32 0 0.42 0.32 0 0.44 0.32 0 0.46 0.32 0 0.48 0.32 0 0.5 0.32 0 0.52 0.32 0 0.54 0.32 0 0.56 0.32 0 0.58 0.32 0 0.6 0.32 0 0.62 0.32 0 0.64 0.32 0 0.66 0.32 0 0.68 0.32 0 0.7 0.32 0 0.72 0.32 0 0.74 0.32 0 0.76 0.32 0 0.78 0.32 0 0.8 0.32 0 0.82 0.32 0 0.84 0.32 0 0.86 0.32 0 0.88 0.32 0 0.9 0.32 0 0.92 0.32 0 0.94 0.
[...]
			<PointData Scalars="VitesseX">
				<DataArray Name="VitesseX" type="Float32" format="ascii">
 0 0 0 0 0 0 0 0 0 0 0 0 0 0 0 0 0 0 0 0 0 0 0 0 0 0 0 0 0 0 0 0 0 0 0 0 0 0 0 0 0 0 0 0 0 0 0 0 0 0 0 0 0.000492986 0.00196379 0.00438968 0.00773153 0.0119365 0.0169382 0.0226577 0.0290046 0.0358792 0.0431731 0.0507716 0.0585552 0.0664003 0.0741847 0.081787 0.0890867 0.0959691 0.102326 0.108057 0.113071 0.117291 0.120648 0.12309 0.124593 0.125084 0.124605 0.123149 0.120716 0.117377 0.113172 0.108169 0.102445 0.0960918 0.0892089 0.0819049 0.0742952 0.0665001 0.0586435 0.050848 0.0432363 0.0359295 0.029043 0.0226853 0.0169569 0.0119482 0.00773806 0.00439283 0.00196517 0.000493177 5.35032e-27 0 0.000977654 0.00389299 0.00870083 0.015321 0.0236482 0.0335497 0.0448691 0.0574279 0.0710288 0.0854588 0.100492 0.115894 0.13142 0.14683 0.16189 0.17636 0.190014 0.202639 0.214035 0.224023 0.232446 0.239168 0.244083 0.247169 0.248186 0.247343 0.244552 0.239784 0.233229 0.224944 0.21506 0.203731 0.191138 0.177478 0.162969 0.147842 0.132337 0.116704 0.101187 0.0860324 0.0714836 0.0577723 0.045116 0.033715 0.0237495 0.0153761 0.00872597 0.00390225 0.000978893 1.06153e-26 0 0.00144644 0.00575775 0.0128671 0.0226526 0.0349571 0.049584 0.0663011 0.0848454 0.104926 0.126229 0.148425 0.171168 0.194096 0.216863 0.239123 0.260525 0.280734 0.299437 0.316339 0.331174 0.343707 0.353737 0.361103 0.365808 0.367358 0.366246 0.362209 0.355219 0.345591 0.333391 0.318806 0.302067 0.283438 0.263215 0.241721 0.219298 0.196306 0.173119 0.150099 0.12761 0.10602 0.0856735 0.0668944 0.0499808 0.0352002 0.0227845 0.0129271 0.00577949 0.00144934 1.57117e-26 0 0.00189197 0.00752879 0.0168231 0.0296109 0.0456854 0.0647882 0.0866158 0.110825 0.137037 0.164844 0.193817 0.223508 0.253445 0.283181 0.312271 0.340256 0.366701 0.391196 0.413357 0.432836 0.449322 0.46255 0.472304 0.47863 0.480718 0.479444 0.47427 0.465216 0.452715 0.43683 0.417804 0.395935 0.371574 0.345107 0.316955 0.287572 0.257431 0.227028 0.196836 0.167334 0.139011 0.112319 0.0876855 0.0655034 0.046123 0.0298481 0.0169306 0.00756752 0.00189713 2.05594e-26 0 0.00230726 0.00917837 0.0205065 0.0360863 0.055664 0.0789233 0.105494 0.134958 0.166855 0.200693 0.235951 0.272088 0.308529 0.344739 0.380181 0.414296 0.446558 0.476467 0.503558 0.527402 0.547621 0.563886 0.57593 0.583846 0.58648 0.585145 0.578963 0.568042 0.552909 0.533625 0.510483 0.483849 0.45415 0.421856 0.387483 0.351586 0.314747 0.277581 0.240659 0.204578 0.169935 0.137288 0.107162 0.0800382 0.0563458 0.0364554 0.0206735 0.00923812 0.00231522 2.50822e-26 0 0.0026858 0.0106807 0.0238595 0.0419771 0.064736 0.0917665 0.122637 0.156863 0.193912 0.233212 0.274162 0.316138 0.358474 0.400557 0.441771 0.481465 0.519032 0.553892 0.585503 0.613367 0.637039 0.656133 0.670332 0.679777 0.682973 0.681666 0.674632 0.66207 0.644592 0.622253 0.595394 0.564437 0.529875 0.492257 0.452191 0.410328 0.367349 0.323977 0.280879 0.238754 0.198305 0.160188 0.125017 0.0933563 0.0657075 0.0425023 0.0240966 0.0107649 0.00269701 2.92093e-26 0 0.00302167 0.0120123 0.0268294 0.0471905 0.0727586 0.103116 0.137776 0.176195 0.217778 0.261885 0.307844 0.354963 0.402493 0.449757 0.49607 0.540706 0.582983 0.622252 0.657904 0.689377 0.716167 0.737835 0.754019 0.764895 0.768679 0.767469 0.759757 0.74581 0.726314 0.701317 0.671199 0.636429 0.597559 0.555212 0.510075 0.462885 0.414412 0.365485 0.31686 0.269323 0.223674 0.18066 0.14097 0.105248 0.0740603 0.0478935 0.027146 0.0121239 0.00303648 3.28761e-26 0 0.00330962 0.0131524 0.0293697 0.0516449 0.0796057 0.112792 0.150672 0.19265 0.238078 0.286263 0.336473 0.387957 0.439901 0.491575 0.542238 0.5911 0.637417 0.680483 0.719629 0.754239 0.78376 0.807705 0.825669 0.83785 0.842245 0.841186 0.832994 0.817934 0.796777 0.769558 0.736688 0.698677 0.656128 0.609725 0.560222 0.508432 0.455207 0.401464 0.348039 0.295804 0.245643 0.198376 0.154769 0.115526 0.0812734 0.0525442 0.0297736 0.0132935 0.00332831 3.60251e-26 0 0.00354514 0.0140833 0.0314404 0.0552701 0.0851697 0.120644 0.161124 0.205974 0.254501 0.305968 0.359603 0.414606 0.470115 0.525358 0.579553 0.631854 0.681475 0.72766 0.769696 0.806924 0.838744 0.864632 0.884144 0.897481 0.90251 0.901643 0.893188 0.877304 0.85487 0.825899 0.790826 0.750197 0.704656 0.654933 0.601839 0.546251 0.489091 0.431351 0.373933 0.317785 0.263866 0.213061 0.166197 0.124029 0.087233 0.056381 0.031938 0.0142554 0.00356788 3.86073e-26 0 0.00372457 0.0147904 0.0330092 0.0580094 0.0893638 0.126551 0.16897 0.215956 0.266786 0.320692 0.376869 0.434491 0.492661 0.550575 0.607422 0.662323 0.714457 0.763037 0.807314 0.846595 0.880248 0.907712 0.928515 0.942839 0.948525 0.947874 0.939387 0.922979 0.899675 0.869455 0.832769 0.790184 0.742377 0.69012 0.63427 0.575747 0.515529 0.454673 0.394137 0.334923 0.278059 0.224485 0.175076 0.130624 0.0918449 0.0593431 0.0336049 0.0149944 0.00375144 4.05824e-26 0 0.00384592 0.0152689 0.0340714 0.0598643 0.0922033 0.130547 0.174274 0.222696 0.275073 0.330616 0.388503 0.447888 0.507851 0.567566 0.626209 0.682875 0.736724 0.786942 0.832756 0.873446 0.908352 0.936889 0.95856 0.973539 0.979613 0.979147 0.970861 0.954233 0.93048 0.899535 0.861851 0.81801 0.768705 0.714738 0.656999 0.596449 0.534104 0.471061 0.408329 0.34695 0.288 0.232466 0.181261 0.135204 0.0950365 0.0613845 0.0347483 0.0154989 0.00387609 4.19195e-26 0 0.00390406 0.0154869 0.034532 0.0606313 0.0933258 0.132061 0.176206 0.225068 0.277906 0.333933 0.392331 0.452259 0.5128 0.573126 0.632434 0.689819 0.744442 0.795493 0.842195 0.883822 0.919704 0.949243 0.971919 0.987785 0.995091 0.99503 0.987504 0.971133 0.94753 0.916526 0.878573 0.834251 0.784264 0.729429 0.670663 0.608956 0.545357 0.480996 0.416921 0.354202 0.293957 0.237206 0.184892 0.137857 0.0968557 0.0625261 0.0353738 0.015768 0.0039408 4.25979e-26 0 0.00390395 0.0154855 0.0345259 0.0606134 0.0932863 0.131986 0.176075 0.224865 0.277619 0.333551 0.391855 0.451689 0.51215 0.572414 0.631688 0.689071 0.743726 0.79484 0.841632 0.883368 0.919368 0.949021 0.971797 0.987738 0.995086 0.995033 0.987532 0.971208 0.947666 0.916734 0.878855 0.834602 0.78467 0.729872 0.671118 0.609402 0.545775 0.481369 0.41724 0.35446 0.294149 0.237339 0.184977 0.137909 0.0968836 0.0625382 0.0353777 0.0157688 0.00394085 4.26071e-26 0 0.00383939 0.0152178 0.0339035 0.0594799 0.0914831 0.129357 0.172479 0.220181 0.271738 0.326399 0.383381 0.441872 0.501015 0.560002 0.618083 0.674387 0.728107 0.778454 0.824668 0.86603 0.90187 0.931576 0.954616 0.9709 0.979222 0.979614 0.973705 0.958436 0.936082 0.906303 0.869519 0.826286 0.777292 0.723342 0.665348 0.60431 0.541289 0.477424 0.413792 0.351465 0.291576 0.235164 0.183187 0.136492 0.0958194 0.0618004 0.0349284 0.0155532 0.00388292 4.19471e-26 0 0.00371507 0.0147157 0.0327629 0.057444 0.0883007 0.124787 0.166306 0.212213 0.261815 0.314398 0.369214 0.425499 0.482447 0.53928 0.595299 0.649678 0.701645 0.750447 0.795354 0.835668 0.870733 0.899948 0.922782 0.939035 0.947993 0.94856 0.943368 0.928876 0.907558 0.879012 0.843631 0.801944 0.754611 0.702407 0.646217 0.587012 0.525835 0.463799 0.401969 0.341386 0.283166 0.228328 0.177812 0.132447 0.0929487 0.0599272 0.0338565 0.01507 0.00376091 4.0628e-26 0 0.00353201 0.0139803 0.0311 0.0544883 0.0836986 0.118206 0.157446 0.200805 0.24764 0.297282 0.349035 0.402193 0.45602 0.509776 0.562833 0.614418 0.663813 0.710312 0.753222 0.791878 0.825652 0.853962 0.876286 0.892297 0.901845 0.902666 0.898717 0.88546 0.865743 0.83906 0.805768 0.766361 0.721461 0.67181 0.618252 0.561728 0.503244 0.443879 0.384682 0.326649 0.270872 0.218338 0.169957 0.126532 0.088747 0.0571818 0.032283 0.0143592 0.00358089 3.86706e-26 0 0.00329307 0.0130227 0.0289408 0.0506589 0.0777469 0.109714 0.146034 0.186136 0.229437 0.27532 0.323159 0.37232 0.422147 0.471957 0.521198 0.569169 0.615216 0.658688 0.698943 0.735363 0.767356 0.794366 0.815882 0.831456 0.841505 0.842613 0.840044 0.828283 0.810523 0.786158 0.755505 0.719013 0.677258 0.630936 0.580841 0.527868 0.472973 0.417183 0.361516 0.306917 0.254431 0.204999 0.15949 0.118666 0.0831726 0.0535486 0.0302066 0.0134238 0.00334465 3.61054e-26 0 0.00300198 0.0118578 0.0263188 0.0460161 0.0705428 0.0994474 0.13225 0.168437 0.207487 0.248854 0.291992 0.336348 0.381361 0.426418 0.471053 0.514648 0.556623 0.596393 0.633383 0.667029 0.696779 0.722108 0.74253 0.75761 0.767573 0.769845 0.767931 0.758373 0.742777 0.721153 0.693649 0.660662 0.622712 0.580439 0.53458 0.485967 0.435497 0.384129 0.332836 0.282498 0.234099 0.188521 0.146575 0.108974 0.0763133 0.0490853 0.0276601 0.0122786 0.0030559 3.29726e-26 0 0.00266327 0.0105038 0.0232752 0.0406327 0.0621997 0.0875676 0.116312 0.147986 0.182136 0.218301 0.256024 0.294844 0.334298 0.373883 0.413189 0.451714 0.488955 0.524412 0.557582 0.587958 0.615037 0.638338 0.657403 0.671812 0.68156 0.685115 0.683841 0.67674 0.663589 0.645075 0.621173 0.592222 0.558679 0.521113 0.480196 0.436686 0.391409 0.34524 0.299095 0.253778 0.210196 0.16916 0.131414 0.0976069 0.0682772 0.0438622 0.0246836 0.0109417 0.00271922 2.9321e-26 0 0.00228224 0.00898187 0.0198575 0.0345922 0.0528456 0.074259 0.098468 0.125101 0.153782 0.184141 0.215821 0.24846 0.281703 0.315172 0.348514 0.381355 0.413279 0.443881 0.472733 0.499396 0.523427 0.544389 0.561857 0.575429 0.584884 0.589674 0.589188 0.584652 0.574216 0.559137 0.539234 0.514783 0.486173 0.453898 0.418549 0.380805 0.341406 0.301134 0.260829 0.221212 0.183101 0.147224 0.114248 0.0847449 0.059191 0.0379616 0.0213241 0.00943424 0.00233989 2.52077e-26 0 0.00186486 0.00731574 0.0161193 0.0279898 0.0426279 0.0597309 0.0789997 0.100142 0.122869 0.146911 0.172014 0.197926 0.224405 0.251204 0.278043 0.304671 0.33078 0.356062 0.380172 0.402742 0.423393 0.44174 0.457395 0.469978 0.479146 0.484869 0.485649 0.48343 0.476105 0.464694 0.449125 0.429568 0.406343 0.379857 0.350617 0.319209 0.28628 0.252511 0.218641 0.185315 0.153241 0.123058 0.0953447 0.0705907 0.0491984 0.0314767 0.0176346 0.0077799 0.00192388 2.06973e-26 0 0.00141767 0.00553146 0.0121197 0.02093 0.0317085 0.0442125 0.0582138 0.0735025 0.0898847 0.107197 0.125291 0.144036 0.163307 0.182973 0.202885 0.222869 0.242757 0.262337 0.281351 0.299511 0.316503 0.331999 0.345655 0.357118 0.366058 0.372168 0.375118 0.37449 0.370844 0.363222 0.352253 0.337915 0.320442 0.300155 0.277468 0.252869 0.226901 0.200137 0.173199 0.146655 0.12109 0.0970455 0.0750047 0.0553678 0.0384572 0.0245098 0.0136734 0.00600482 0.00147776 1.58602e-26 0 0.000947672 0.003657 0.00792132 0.013524 0.0202595 0.0279477 0.0364366 0.0456015 0.0553489 0.0656231 0.0763902 0.0876398 0.0993695 0.111564 0.124198 0.137232 0.150598 0.164182 0.177819 0.191318 0.204435 0.216892 0.228393 0.238619 0.247255 0.253915 0.25839 0.260382 0.259661 0.256398 0.250137 0.241259 0.229815 0.216042 0.200253 0.182832 0.164204 0.144836 0.125224 0.105844 0.0871569 0.0695981 0.0535494 0.039317 0.0271371 0.0171709 0.00950286 0.004137 0.00100855 1.07724e-26 0 0.000462277 0.00172191 0.00359085 0.0058896 0.00846396 0.0111984 0.0140193 0.0168906 0.0198218 0.0228657 0.0261054 0.029654 0.0336279 0.0381357 0.0432818 0.0491477 0.0557742 0.0631532 0.0712301 0.079892 0.0889722 0.098246 0.107463 0.11635 0.124596 0.131819 0.137769 0.14219 0.144899 0.145614 0.144401 0.141129 0.135887 0.128841 0.120191 0.110202 0.0991803 0.0874819 0.0754759 0.0635265 0.0519783 0.0411502 0.0313191 0.0226924 0.0154168 0.00957597 0.00518897 0.00220591 0.000523638 5.51375e-27 0 -3.06724e-05 -0.000241988 -0.000799722 -0.00184565 -0.00348113 -0.0057561 -0.00866563 -0.0121552 -0.0161125 -0.0203758 -0.0247422 -0.0289787 -0.0328491 -0.0361135 -0.0385415 -0.0399349 -0.0401389 -0.0390557 -0.0366436 -0.0329349 -0.0280037 -0.0220042 -0.0151637 -0.00773261 -3.08049e-06 0.00772409 0.0151512 0.021982 0.0279808 0.0329253 0.0366457 0.039055 0.0401365 0.0399299 0.0385464 0.0361255 0.0328558 0.0289818 0.0247415 0.0203744 0.0161102 0.0121516 0.00866563 0.0057569 0.00348138 0.00184487 0.000799799 0.000242029 3.06717e-05 1.66993e-28 0 -0.00052364 -0.00220588 -0.00518897 -0.00957649 -0.0154162 -0.0226917 -0.0313192 -0.0411534 -0.0519803 -0.0635294 -0.0754757 -0.0874781 -0.0991747 -0.110194 -0.120189 -0.128842 -0.135884 -0.141123 -0.144397 -0.145617 -0.144923 -0.142207 -0.137771 -0.131819 -0.124603 -0.116367 -0.107483 -0.0982581 -0.0889623 -0.0798845 -0.0712287 -0.0631598 -0.0557834 -0.0491512 -0.0432732 -0.0381245 -0.0336227 -0.0296527 -0.0261056 -0.0228658 -0.0198254 -0.0168944 -0.014019 -0.0111974 -0.0084644 -0.0058906 -0.0035907 -0.00172186 -0.000462277 -5.1837e-27 0 -0.00100855 -0.00413697 -0.0095029 -0.0171712 -0.0271365 -0.0393163 -0.0535492 -0.0696013 -0.0871598 -0.105846 -0.125224 -0.144834 -0.164201 -0.182829 -0.200252 -0.21604 -0.22981 -0.241251 -0.250131 -0.256385 -0.259665 -0.260395 -0.258395 -0.253924 -0.247258 -0.238629 -0.228402 -0.216891 -0.204422 -0.191309 -0.177818 -0.164191 -0.150608 -0.13723 -0.124188 -0.111557 -0.099367 -0.0876395 -0.07639 -0.0656245 -0.0553539 -0.0456045 -0.0364355 -0.0279463 -0.0202608 -0.0135252 -0.00792109 -0.00365695 -0.000947672 -1.04539e-26 0 -0.00147776 -0.00600479 -0.0136734 -0.0245099 -0.0384567 -0.0553669 -0.0750038 -0.0970485 -0.121093 -0.146656 -0.1732 -0.200139 -0.226899 -0.252871 -0.277469 -0.300154 -0.320439 -0.337912 -0.352249 -0.363215 -0.370847 -0.374498 -0.375126 -0.372175 -0.366055 -0.357121 -0.345658 -0.332001 -0.3165 -0.299507 -0.281352 -0.262341 -0.242758 -0.222863 -0.202875 -0.18297 -0.163307 -0.144036 -0.125292 -0.107201 -0.0898901 -0.0735044 -0.0582124 -0.0442112 -0.0317106 -0.0209313 -0.0121194 -0.00553142 -0.00141767 -1.55605e-26 0 -0.00192389 -0.00777987 -0.0176346 -0.0314767 -0.049198 -0.0705898 -0.0953438 -0.123061 -0.153242 -0.185314 -0.218641 -0.252513 -0.286282 -0.319213 -0.350621 -0.379859 -0.406344 -0.429571 -0.449125 -0.464692 -0.476107 -0.48343 -0.485648 -0.484865 -0.479145 -0.469982 -0.457398 -0.441742 -0.423394 -0.402742 -0.38017 -0.356058 -0.330774 -0.304661 -0.278035 -0.251205 -0.224407 -0.197927 -0.172017 -0.146918 -0.122873 -0.100143 -0.0789984 -0.0597306 -0.0426305 -0.0279907 -0.0161189 -0.00731571 -0.00186486 -2.04225e-26 0 -0.00233989 -0.00943422 -0.0213241 -0.0379616 -0.0591907 -0.0847443 -0.114248 -0.147227 -0.183101 -0.221209 -0.260826 -0.301133 -0.341408 -0.380809 -0.418552 -0.453899 -0.486175 -0.514786 -0.539235 -0.559135 -0.574211 -0.584647 -0.589184 -0.589671 -0.584883 -0.575429 -0.561856 -0.544389 -0.523427 -0.499392 -0.472725 -0.443871 -0.413268 -0.381344 -0.34851 -0.315174 -0.281705 -0.248463 -0.215826 -0.184148 -0.153785 -0.125102 -0.0984669 -0.0742602 -0.0528489 -0.0345923 -0.0198568 -0.00898185 -0.00228224 -2.49631e-26 0 -0.00271922 -0.0109417 -0.0246836 -0.0438622 -0.0682768 -0.0976067 -0.131416 -0.169165 -0.210196 -0.253773 -0.299087 -0.345234 -0.391408 -0.436685 -0.480193 -0.52111 -0.558677 -0.592221 -0.621171 -0.645071 -0.663584 -0.676736 -0.683839 -0.685113 -0.68156 -0.671812 -0.657401 -0.638335 -0.615032 -0.587949 -0.557572 -0.524401 -0.488945 -0.451708 -0.413189 -0.373886 -0.3343 -0.294848 -0.25603 -0.218307 -0.182139 -0.147988 -0.116311 -0.0875706 -0.0622047 -0.0406327 -0.0232745 -0.0105038 -0.00266327 -2.91102e-26 0 -0.00305591 -0.0122786 -0.0276601 -0.0490853 -0.076313 -0.108974 -0.146578 -0.188527 -0.234099 -0.28249 -0.332824 -0.384119 -0.435494 -0.485963 -0.534573 -0.580432 -0.622708 -0.660658 -0.693645 -0.721148 -0.742774 -0.758371 -0.767931 -0.769845 -0.767575 -0.757614 -0.742532 -0.722105 -0.696774 -0.667022 -0.633375 -0.596384 -0.556616 -0.514647 -0.471056 -0.426421 -0.381365 -0.336353 -0.291997 -0.248857 -0.20749 -0.168439 -0.13225 -0.0994518 -0.0705487 -0.0460161 -0.0263182 -0.0118578 -0.00300198 -3.27978e-26 0 -0.00334465 -0.0134238 -0.0302067 -0.0535485 -0.0831723 -0.118667 -0.159494 -0.205006 -0.254431 -0.306909 -0.361503 -0.417173 -0.472972 -0.527866 -0.580836 -0.630928 -0.677253 -0.71901 -0.755502 -0.786155 -0.810522 -0.828287 -0.840049 -0.842616 -0.841508 -0.831461 -0.815888 -0.794375 -0.76737 -0.735376 -0.698951 -0.658692 -0.615222 -0.569177 -0.521206 -0.471963 -0.422152 -0.372324 -0.323162 -0.275322 -0.22944 -0.186138 -0.146033 -0.109719 -0.0777512 -0.0506581 -0.0289403 -0.0130226 -0.00329307 -3.59675e-26 0 -0.00358089 -0.0143592 -0.0322831 -0.0571816 -0.0887467 -0.126532 -0.169961 -0.218344 -0.270872 -0.326645 -0.384673 -0.44387 -0.503246 -0.561733 -0.618253 -0.671807 -0.721458 -0.766358 -0.805767 -0.83906 -0.865749 -0.88547 -0.898725 -0.902666 -0.901845 -0.8923 -0.876289 -0.853968 -0.825662 -0.791889 -0.753231 -0.71032 -0.663822 -0.614426 -0.56284 -0.509782 -0.456023 -0.402195 -0.349037 -0.297286 -0.247645 -0.200809 -0.157444 -0.118211 -0.0837013 -0.0544872 -0.0310997 -0.0139801 -0.00353201 -3.85686e-26 0 -0.00376091 -0.01507 -0.0338565 -0.0599269 -0.0929482 -0.132446 -0.177814 -0.228331 -0.283164 -0.341387 -0.401968 -0.463789 -0.525832 -0.587015 -0.646223 -0.702413 -0.754613 -0.801946 -0.843632 -0.879013 -0.907561 -0.928879 -0.943368 -0.948559 -0.947992 -0.939035 -0.922781 -0.899946 -0.87073 -0.835667 -0.795356 -0.750451 -0.70165 -0.649682 -0.595303 -0.539282 -0.482448 -0.425499 -0.369217 -0.314403 -0.261822 -0.21222 -0.166307 -0.124791 -0.0883019 -0.0574431 -0.0327627 -0.0147157 -0.00371507 -4.05598e-26 0 -0.00388292 -0.0155532 -0.0349283 -0.0618001 -0.0958186 -0.13649 -0.183188 -0.235167 -0.291574 -0.351467 -0.41379 -0.477413 -0.541287 -0.604305 -0.665345 -0.723345 -0.777296 -0.826289 -0.869521 -0.906303 -0.936081 -0.958435 -0.973704 -0.979613 -0.979222 -0.970898 -0.954614 -0.931575 -0.901869 -0.866031 -0.82467 -0.778456 -0.728109 -0.674389 -0.618084 -0.560002 -0.501015 -0.441874 -0.383384 -0.326406 -0.271747 -0.220185 -0.172484 -0.129361 -0.0914823 -0.0594792 -0.0339031 -0.0152177 -0.00383939 -4.19092e-26 0 -0.00394085 -0.0157688 -0.0353776 -0.0625379 -0.0968829 -0.137908 -0.184978 -0.23734 -0.294148 -0.354459 -0.41723 -0.481353 -0.545777 -0.609409 -0.67112 -0.729869 -0.784667 -0.834601 -0.878857 -0.916736 -0.947667 -0.971208 -0.987532 -0.995033 -0.995086 -0.987737 -0.971796 -0.949021 -0.91937 -0.88337 -0.841634 -0.794841 -0.743727 -0.689072 -0.631688 -0.572415 -0.512151 -0.451691 -0.391861 -0.333562 -0.277625 -0.22486 -0.176075 -0.131987 -0.0932848 -0.060613 -0.0345254 -0.0154854 -0.00390395 -4.25953e-26 0 -0.0039408 -0.015768 -0.0353737 -0.0625259 -0.0968554 -0.137857 -0.184892 -0.237206 -0.293956 -0.354201 -0.416913 -0.480982 -0.545351 -0.608962 -0.670678 -0.729439 -0.784264 -0.834247 -0.878571 -0.916527 -0.947532 -0.971136 -0.987505 -0.99503 -0.995091 -0.987784 -0.971919 -0.949245 -0.919708 -0.883825 -0.842197 -0.795494 -0.744443 -0.689819 -0.632434 -0.573127 -0.512802 -0.452264 -0.392341 -0.333941 -0.277908 -0.225063 -0.176204 -0.132061 -0.0933248 -0.0606311 -0.0345319 -0.0154869 -0.00390405 -4.26071e-26 0 -0.00387609 -0.0154989 -0.0347483 -0.0613844 -0.0950364 -0.135204 -0.181261 -0.232467 -0.288001 -0.34695 -0.408328 -0.471058 -0.534097 -0.59644 -0.656996 -0.71474 -0.768707 -0.818006 -0.861842 -0.899529 -0.930479 -0.954234 -0.970863 -0.979148 -0.979613 -0.973536 -0.958558 -0.936888 -0.908353 -0.873446 -0.832755 -0.786939 -0.736721 -0.682873 -0.626206 -0.567565 -0.507853 -0.447895 -0.38851 -0.330619 -0.275068 -0.222694 -0.174275 -0.130545 -0.0922028 -0.0598642 -0.0340712 -0.0152688 -0.00384591 -4.19444e-26 0 -0.00375144 -0.0149944 -0.0336049 -0.0593432 -0.0918449 -0.130624 -0.175076 -0.224485 -0.278059 -0.334925 -0.394138 -0.454676 -0.515532 -0.575743 -0.634262 -0.690113 -0.742374 -0.79018 -0.832762 -0.869449 -0.89967 -0.922977 -0.939388 -0.947876 -0.948524 -0.942837 -0.928514 -0.907713 -0.880251 -0.846597 -0.807315 -0.763035 -0.714454 -0.662321 -0.607421 -0.550576 -0.492665 -0.434496 -0.376872 -0.320691 -0.266779 -0.215953 -0.168971 -0.12655 -0.0893633 -0.058009 -0.0330089 -0.0147903 -0.00372457 -4.06176e-26 0 -0.00356788 -0.0142554 -0.031938 -0.0563811 -0.0872331 -0.124029 -0.166197 -0.213061 -0.263865 -0.317787 -0.373935 -0.431353 -0.489096 -0.546253 -0.601839 -0.65493 -0.704651 -0.750193 -0.790823 -0.825894 -0.854863 -0.877299 -0.893186 -0.901642 -0.902509 -0.897482 