<?xml version="1.0"?>
<VTKFile type="PolyData">
	<PolyData>
		<Piece NumberOfPoints="2601" NumberOfPolys="2500">
			<Points>
				<DataArray type="Float32" NumberOfComponents="3" format="ascii">
 0 0 0 0.02 0 0 0.04 0 0 0.06 0 0 0.08 0 0 0.1 0 0 0.12 0 0 0.14 0 0 0.16 0 0 0.18 0 0 0.2 0 0 0.22 0 0 0.24 0 0 0.26 0 0 0.28 0 0 0.3 0 0 0.32 0 0 0.34 0 0 0.36 0 0 0.38 0 0 0.4 0 0 0.42 0 0 0.44 0 0 0.46 0 0 0.48 0 0 0.5 0 0 0.52 0 0 0.54 0 0 0.56 0 0 0.58 0 0 0.6 0 0 0.62 0 0 0.64 0 0 0.66 0 0 0.68 0 0 0.7 0 0 0.72 0 0 0.74 0 0 0.76 0 0 0.78 0 0 0.8 0 0 0.82 0 0 0.84 0 0 0.86 0 0 0.88 0 0 0.9 0 0 0.92 0 0 0.94 0 0 0.96 0 0 0.98 0 0 1 0 0 0 0.02 0 0.02 0.02 0 0.04 0.02 0 0.06 0.02 0 0.08 0.02 0 0.1 0.02 0 0.12 0.02 0 0.14 0.02 0 0.16 0.02 0 0.18 0.02 0 0.2 0.02 0 0.22 0.02 0 0.24 0.02 0 0.26 0.02 0 0.28 0.02 0 0.3 0.02 0 0.32 0.02 0 0.34 0.02 0 0.36 0.02 0 0.38 0.02 0 0.4 0.02 0 0.42 0.02 0 0.44 0.02 0 0.46 0.02 0 0.48 0.02 0 0.5 0.02 0 0.52 0.02 0 0.54 0.02 0 0.56 0.02 0 0.58 0.02 0 0.6 0.02 0 0.62 0.02 0 0.64 0.02 0 0.66 0.02 0 0.68 0.02 0 0.7 0.02 0 0.72 0.02 0 0.74 0.02 0 0.76 0.02 0 0.78 0.02 0 0.8 0.02 0 0.82 0.02 0 0.84 0.02 0 0.86 0.02 0 0.88 0.02 0 0.9 0.02 0 0.92 0.02 0 0.94 0.02 0 0.96 0.02 0 0.98 0.02 0 1 0.02 0 0 0.04 0 0.02 0.04 0 0.04 0.04 0 0.06 0.04 0 0.08 0.04 0 0.1 0.04 0 0.12 0.04 0 0.14 0.04 0 0.16 0.04 0 0.18 0.04 0 0.2 0.04 0 0.22 0.04 0 0.24 0.04 0 0.26 0.04 0 0.28 0.04 0 0.3 0.04 0 0.32 0.04 0 0.34 0.04 0 0.36 0.04 0 0.38 0.04 0 0.4 0.04 0 0.42 0.04 0 0.44 0.04 0 0.46 0.04 0 0.48 0.04 0 0.5 0.04 0 0.52 0.04 0 0.54 0.04 0 0.56 0.04 0 0.58 0.04 0 0.6 0.04 0 0.62 0.04 0 0.64 0.04 0 0.66 0.04 0 0.68 0.04 0 0.7 0.04 0 0.72 0.04 0 0.74 0.04 0 0.76 0.04 0 0.78 0.04 0 0.8 0.04 0 0.82 0.04 0 0.84 0.04 0 0.86 0.04 0 0.88 0.04 0 0.9 0.04 0 0.92 0.04 0 0.94 0.04 0 0.96 0.04 0 0.98 0.04 0 1 0.04 0 0 0.06 0 0.02 0.06 0 0.04 0.06 0 0.06 0.06 0 0.08 0.06 0 0.1 0.06 0 0.12 0.06 0 0.14 0.06 0 0.16 0.06 0 0.18 0.06 0 0.2 0.06 0 0.22 0.06 0 0.24 0.06 0 0.26 0.06 0 0.28 0.06 0 0.3 0.06 0 0.32 0.06 0 0.34 0.06 0 0.36 0.06 0 0.38 0.06 0 0.4 0.06 0 0.42 0.06 0 0.44 0.06 0 0.46 0.06 0 0.48 0.06 0 0.5 0.06 0 0.52 0.06 0 0.54 0.06 0 0.56 0.06 0 0.58 0.06 0 0.6 0.06 0 0.62 0.06 0 0.64 0.06 0 0.66 0.06 0 0.68 0.06 0 0.7 0.06 0 0.72 0.06 0 0.74 0.06 0 0.76 0.06 0 0.78 0.06 0 0.8 0.06 0 0.82 0.06 0 0.84 0.06 0 0.86 0.06 0 0.88 0.06 0 0.9 0.06 0 0.92 0.06 0 0.94 0.06 0 0.96 0.06 0 0.98 0.06 0 1 0.06 0 0 0.08 0 0.02 0.08 0 0.04 0.08 0 0.06 0.08 0 0.08 0.08 0 0.1 0.08 0 0.12 0.08 0 0.14 0.08 0 0.16 0.08 0 0.18 0.08 0 0.2 0.08 0 0.22 0.08 0 0.24 0.08 0 0.26 0.08 0 0.28 0.08 0 0.3 0.08 0 0.32 0.08 0 0.34 0.08 0 0.36 0.08 0 0.38 0.08 0 0.4 0.08 0 0.42 0.08 0 0.44 0.08 0 0.46 0.08 0 0.48 0.08 0 0.5 0.08 0 0.52 0.08 0 0.54 0.08 0 0.56 0.08 0 0.58 0.08 0 0.6 0.08 0 0.62 0.08 0 0.64 0.08 0 0.66 0.08 0 0.68 0.08 0 0.7 0.08 0 0.72 0.08 0 0.74 0.08 0 0.76 0.08 0 0.78 0.08 0 0.8 0.08 0 0.82 0.08 0 0.84 0.08 0 0.86 0.08 0 0.88 0.08 0 0.9 0.08 0 0.92 0.08 0 0.94 0.08 0 0.96 0.08 0 0.98 0.08 0 1 0.08 0 0 0.1 0 0.02 0.1 0 0.04 0.1 0 0.06 0.1 0 0.08 0.1 0 0.1 0.1 0 0.12 0.1 0 0.14 0.1 0 0.16 0.1 0 0.18 0.1 0 0.2 0.1 0 0.22 0.1 0 0.24 0.1 0 0.26 0.1 0 0.28 0.1 0 0.3 0.1 0 0.32 0.1 0 0.34 0.1 0 0.36 0.1 0 0.38 0.1 0 0.4 0.1 0 0.42 0.1 0 0.44 0.1 0 0.46 0.1 0 0.48 0.1 0 0.5 0.1 0 0.52 0.1 0 0.54 0.1 0 0.56 0.1 0 0.58 0.1 0 0.6 0.1 0 0.62 0.1 0 0.64 0.1 0 0.66 0.1 0 0.68 0.1 0 0.7 0.1 0 0.72 0.1 0 0.74 0.1 0 0.76 0.1 0 0.78 0.1 0 0.8 0.1 0 0.82 0.1 0 0.84 0.1 0 0.86 0.1 0 0.88 0.1 0 0.9 0.1 0 0.92 0.1 0 0.94 0.1 0 0.96 0.1 0 0.98 0.1 0 1 0.1 0 0 0.12 0 0.02 0.12 0 0.04 0.12 0 0.06 0.12 0 0.08 0.12 0 0.1 0.12 0 0.12 0.12 0 0.14 0.12 0 0.16 0.12 0 0.18 0.12 0 0.2 0.12 0 0.22 0.12 0 0.24 0.12 0 0.26 0.12 0 0.28 0.12 0 0.3 0.12 0 0.32 0.12 0 0.34 0.12 0 0.36 0.12 0 0.38 0.12 0 0.4 0.12 0 0.42 0.12 0 0.44 0.12 0 0.46 0.12 0 0.48 0.12 0 0.5 0.12 0 0.52 0.12 0 0.54 0.12 0 0.56 0.12 0 0.58 0.12 0 0.6 0.12 0 0.62 0.12 0 0.64 0.12 0 0.66 0.12 0 0.68 0.12 0 0.7 0.12 0 0.72 0.12 0 0.74 0.12 0 0.76 0.12 0 0.78 0.12 0 0.8 0.12 0 0.82 0.12 0 0.84 0.12 0 0.86 0.12 0 0.88 0.12 0 0.9 0.12 0 0.92 0.12 0 0.94 0.12 0 0.96 0.12 0 0.98 0.12 0 1 0.12 0 0 0.14 0 0.02 0.14 0 0.04 0.14 0 0.06 0.14 0 0.08 0.14 0 0.1 0.14 0 0.12 0.14 0 0.14 0.14 0 0.16 0.14 0 0.18 0.14 0 0.2 0.14 0 0.22 0.14 0 0.24 0.14 0 0.26 0.14 0 0.28 0.14 0 0.3 0.14 0 0.32 0.14 0 0.34 0.14 0 0.36 0.14 0 0.38 0.14 0 0.4 0.14 0 0.42 0.14 0 0.44 0.14 0 0.46 0.14 0 0.48 0.14 0 0.5 0.14 0 0.52 0.14 0 0.54 0.14 0 0.56 0.14 0 0.58 0.14 0 0.6 0.14 0 0.62 0.14 0 0.64 0.14 0 0.66 0.14 0 0.68 0.14 0 0.7 0.14 0 0.72 0.14 0 0.74 0.14 0 0.76 0.14 0 0.78 0.14 0 0.8 0.14 0 0.82 0.14 0 0.84 0.14 0 0.86 0.14 0 0.88 0.14 0 0.9 0.14 0 0.92 0.14 0 0.94 0.14 0 0.96 0.14 0 0.98 0.14 0 1 0.14 0 0 0.16 0 0.02 0.16 0 0.04 0.16 0 0.06 0.16 0 0.08 0.16 0 0.1 0.16 0 0.12 0.16 0 0.14 0.16 0 0.16 0.16 0 0.18 0.16 0 0.2 0.16 0 0.22 0.16 0 0.24 0.16 0 0.26 0.16 0 0.28 0.16 0 0.3 0.16 0 0.32 0.16 0 0.34 0.16 0 0.36 0.16 0 0.38 0.16 0 0.4 0.16 0 0.42 0.16 0 0.44 0.16 0 0.46 0.16 0 0.48 0.16 0 0.5 0.16 0 0.52 0.16 0 0.54 0.16 0 0.56 0.16 0 0.58 0.16 0 0.6 0.16 0 0.62 0.16 0 0.64 0.16 0 0.66 0.16 0 0.68 0.16 0 0.7 0.16 0 0.72 0.16 0 0.74 0.16 0 0.76 0.16 0 0.78 0.16 0 0.8 0.16 0 0.82 0.16 0 0.84 0.16 0 0.86 0.16 0 0.88 0.16 0 0.9 0.16 0 0.92 0.16 0 0.94 0.16 0 0.96 0.16 0 0.98 0.16 0 1 0.16 0 0 0.18 0 0.02 0.18 0 0.04 0.18 0 0.06 0.18 0 0.08 0.18 0 0.1 0.18 0 0.12 0.18 0 0.14 0.18 0 0.16 0.18 0 0.18 0.18 0 0.2 0.18 0 0.22 0.18 0 0.24 0.18 0 0.26 0.18 0 0.28 0.18 0 0.3 0.18 0 0.32 0.18 0 0.34 0.18 0 0.36 0.18 0 0.38 0.18 0 0.4 0.18 0 0.42 0.18 0 0.44 0.18 0 0.46 0.18 0 0.48 0.18 0 0.5 0.18 0 0.52 0.18 0 0.54 0.18 0 0.56 0.18 0 0.58 0.18 0 0.6 0.18 0 0.62 0.18 0 0.64 0.18 0 0.66 0.18 0 0.68 0.18 0 0.7 0.18 0 0.72 0.18 0 0.74 0.18 0 0.76 0.18 0 0.78 0.18 0 0.8 0.18 0 0.82 0.18 0 0.84 0.18 0 0.86 0.18 0 0.88 0.18 0 0.9 0.18 0 0.92 0.18 0 0.94 0.18 0 0.96 0.18 0 0.98 0.18 0 1 0.18 0 0 0.2 0 0.02 0.2 0 0.04 0.2 0 0.06 0.2 0 0.08 0.2 0 0.1 0.2 0 0.12 0.2 0 0.14 0.2 0 0.16 0.2 0 0.18 0.2 0 0.2 0.2 0 0.22 0.2 0 0.24 0.2 0 0.26 0.2 0 0.28 0.2 0 0.3 0.2 0 0.32 0.2 0 0.34 0.2 0 0.36 0.2 0 0.38 0.2 0 0.4 0.2 0 0.42 0.2 0 0.44 0.2 0 0.46 0.2 0 0.48 0.2 0 0.5 0.2 0 0.52 0.2 0 0.54 0.2 0 0.56 0.2 0 0.58 0.2 0 0.6 0.2 0 0.62 0.2 0 0.64 0.2 0 0.66 0.2 0 0.68 0.2 0 0.7 0.2 0 0.72 0.2 0 0.74 0.2 0 0.76 0.2 0 0.78 0.2 0 0.8 0.2 0 0.82 0.2 0 0.84 0.2 0 0.86 0.2 0 0.88 0.2 0 0.9 0.2 0 0.92 0.2 0 0.94 0.2 0 0.96 0.2 0 0.98 0.2 0 1 0.2 0 0 0.22 0 0.02 0.22 0 0.04 0.22 0 0.06 0.22 0 0.08 0.22 0 0.1 0.22 0 0.12 0.22 0 0.14 0.22 0 0.16 0.22 0 0.18 0.22 0 0.2 0.22 0 0.22 0.22 0 0.24 0.22 0 0.26 0.22 0 0.28 0.22 0 0.3 0.22 0 0.32 0.22 0 0.34 0.22 0 0.36 0.22 0 0.38 0.22 0 0.4 0.22 0 0.42 0.22 0 0.44 0.22 0 0.46 0.22 0 0.48 0.22 0 0.5 0.22 0 0.52 0.22 0 0.54 0.22 0 0.56 0.22 0 0.58 0.22 0 0.6 0.22 0 0.62 0.22 0 0.64 0.22 0 0.66 0.22 0 0.68 0.22 0 0.7 0.22 0 0.72 0.22 0 0.74 0.22 0 0.76 0.22 0 0.78 0.22 0 0.8 0.22 0 0.82 0.22 0 0.84 0.22 0 0.86 0.22 0 0.88 0.22 0 0.9 0.22 0 0.92 0.22 0 0.94 0.22 0 0.96 0.22 0 0.98 0.22 0 1 0.22 0 0 0.24 0 0.02 0.24 0 0.04 0.24 0 0.06 0.24 0 0.08 0.24 0 0.1 0.24 0 0.12 0.24 0 0.14 0.24 0 0.16 0.24 0 0.18 0.24 0 0.2 0.24 0 0.22 0.24 0 0.24 0.24 0 0.26 0.24 0 0.28 0.24 0 0.3 0.24 0 0.32 0.24 0 0.34 0.24 0 0.36 0.24 0 0.38 0.24 0 0.4 0.24 0 0.42 0.24 0 0.44 0.24 0 0.46 0.24 0 0.48 0.24 0 0.5 0.24 0 0.52 0.24 0 0.54 0.24 0 0.56 0.24 0 0.58 0.24 0 0.6 0.24 0 0.62 0.24 0 0.64 0.24 0 0.66 0.24 0 0.68 0.24 0 0.7 0.24 0 0.72 0.24 0 0.74 0.24 0 0.76 0.24 0 0.78 0.24 0 0.8 0.24 0 0.82 0.24 0 0.84 0.24 0 0.86 0.24 0 0.88 0.24 0 0.9 0.24 0 0.92 0.24 0 0.94 0.24 0 0.96 0.24 0 0.98 0.24 0 1 0.24 0 0 0.26 0 0.02 0.26 0 0.04 0.26 0 0.06 0.26 0 0.08 0.26 0 0.1 0.26 0 0.12 0.26 0 0.14 0.26 0 0.16 0.26 0 0.18 0.26 0 0.2 0.26 0 0.22 0.26 0 0.24 0.26 0 0.26 0.26 0 0.28 0.26 0 0.3 0.26 0 0.32 0.26 0 0.34 0.26 0 0.36 0.26 0 0.38 0.26 0 0.4 0.26 0 0.42 0.26 0 0.44 0.26 0 0.46 0.26 0 0.48 0.26 0 0.5 0.26 0 0.52 0.26 0 0.54 0.26 0 0.56 0.26 0 0.58 0.26 0 0.6 0.26 0 0.62 0.26 0 0.64 0.26 0 0.66 0.26 0 0.68 0.26 0 0.7 0.26 0 0.72 0.26 0 0.74 0.26 0 0.76 0.26 0 0.78 0.26 0 0.8 0.26 0 0.82 0.26 0 0.84 0.26 0 0.86 0.26 0 0.88 0.26 0 0.9 0.26 0 0.92 0.26 0 0.94 0.26 0 0.96 0.26 0 0.98 0.26 0 1 0.26 0 0 0.28 0 0.02 0.28 0 0.04 0.28 0 0.06 0.28 0 0.08 0.28 0 0.1 0.28 0 0.12 0.28 0 0.14 0.28 0 0.16 0.28 0 0.18 0.28 0 0.2 0.28 0 0.22 0.28 0 0.24 0.28 0 0.26 0.28 0 0.28 0.28 0 0.3 0.28 0 0.32 0.28 0 0.34 0.28 0 0.36 0.28 0 0.38 0.28 0 0.4 0.28 0 0.42 0.28 0 0.44 0.28 0 0.46 0.28 0 0.48 0.28 0 0.5 0.28 0 0.52 0.28 0 0.54 0.28 0 0.56 0.28 0 0.58 0.28 0 0.6 0.28 0 0.62 0.28 0 0.64 0.28 0 0.66 0.28 0 0.68 0.28 0 0.7 0.28 0 0.72 0.28 0 0.74 0.28 0 0.76 0.28 0 0.78 0.28 0 0.8 0.28 0 0.82 0.28 0 0.84 0.28 0 0.86 0.28 0 0.88 0.28 0 0.9 0.28 0 0.92 0.28 0 0.94 0.28 0 0.96 0.28 0 0.98 0.28 0 1 0.28 0 0 0.3 0 0.02 0.3 0 0.04 0.3 0 0.06 0.3 0 0.08 0.3 0 0.1 0.3 0 0.12 0.3 0 0.14 0.3 0 0.16 0.3 0 0.18 0.3 0 0.2 0.3 0 0.22 0.3 0 0.24 0.3 0 0.26 0.3 0 0.28 0.3 0 0.3 0.3 0 0.32 0.3 0 0.34 0.3 0 0.36 0.3 0 0.38 0.3 0 0.4 0.3 0 0.42 0.3 0 0.44 0.3 0 0.46 0.3 0 0.48 0.3 0 0.5 0.3 0 0.52 0.3 0 0.54 0.3 0 0.56 0.3 0 0.58 0.3 0 0.6 0.3 0 0.62 0.3 0 0.64 0.3 0 0.66 0.3 0 0.68 0.3 0 0.7 0.3 0 0.72 0.3 0 0.74 0.3 0 0.76 0.3 0 0.78 0.3 0 0.8 0.3 0 0.82 0.3 0 0.84 0.3 0 0.86 0.3 0 0.88 0.3 0 0.9 0.3 0 0.92 0.3 0 0.94 0.3 0 0.96 0.3 0 0.98 0.3 0 1 0.3 0 0 0.32 0 0.02 0.32 0 0.04 0.32 0 0.06 0.32 0 0.08 0.32 0 0.1 0.32 0 0.12 0.32 0 0.14 0.32 0 0.16 0.32 0 0.18 0.32 0 0.2 0.32 0 0.22 0.32 0 0.24 0.32 0 0.26 0.32 0 0.28 0.32 0 0.3 0.32 0 0.32 0.32 0 0.34 0.32 0 0.36 0.32 0 0.38 0.32 0 0.4 0.32 0 0.42 0.32 0 0.44 0.32 0 0.46 0.32 0 0.48 0.32 0 0.5 0.32 0 0.52 0.32 0 0.54 0.32 0 0.56 0.32 0 0.58 0.32 0 0.6 0.32 0 0.62 0.32 0 0.64 0.32 0 0.66 0.32 0 0.68 0.32 0 0.7 0.32 0 0.72 0.32 0 0.74 0.32 0 0.76 0.32 0 0.78 0.32 0 0.8 0.32 0 0.82 0.32 0 0.84 0.32 0 0.86 0.32 0 0.88 0.32 0 0.9 0.32 0 0.92 0.32 0 0.94 0.
[...]
			<PointData Scalars="VitesseX">
				<DataArray Name="VitesseX" type="Float32" format="ascii">
 0 0 0 0 0 0 0 0 0 0 0 0 0 0 0 0 0 0 0 0 0 0 0 0 0 0 0 0 0 0 0 0 0 0 0 0 0 0 0 0 0 0 0 0 0 0 0 0 0 0 0 0 0.000160043 0.000637608 0.00142521 0.00251034 0.00387588 0.00550027 0.00735789 0.00941944 0.0116524 0.0140217 0.0164898 0.019018 0.0215662 0.0240944 0.026563 0.0289328 0.0311666 0.0332291 0.0350879 0.0367136 0.0380806 0.0391673 0.0399565 0.0404375 0.0405976 0.0404385 0.0399629 0.0391744 0.0380896 0.0367242 0.0350997 0.0332417 0.0311795 0.0289457 0.0265754 0.0241061 0.0215767 0.0190273 0.0164979 0.0140284 0.0116578 0.00942349 0.00736081 0.00550225 0.00387711 0.00251103 0.00142554 0.000637752 0.000160063 1.73656e-27 0 0.000317505 0.00126478 0.00282697 0.00497899 0.00768679 0.0109075 0.0145904 0.0186774 0.023104 0.0278006 0.0326934 0.0377055 0.0427574 0.0477703 0.0526658 0.0573666 0.0617988 0.0658925 0.0695832 0.0728129 0.0755306 0.0776933 0.0792667 0.0802319 0.0805545 0.0802492 0.0793171 0.0777581 0.0756131 0.0729099 0.0696911 0.0660074 0.061917 0.0574843 0.0527794 0.0478768 0.0428539 0.0377907 0.0327666 0.027861 0.0231519 0.0187136 0.0146164 0.0109249 0.00769745 0.00498479 0.00282962 0.00126575 0.000317635 3.44563e-27 0 0.00046991 0.00187168 0.00418334 0.0073674 0.0113734 0.0161378 0.0215854 0.0276303 0.0341774 0.0411238 0.0483604 0.0557737 0.0632463 0.0706618 0.077905 0.0848613 0.0914217 0.0974829 0.102949 0.107735 0.111765 0.114975 0.117314 0.118757 0.11924 0.1188 0.117433 0.115131 0.111964 0.107969 0.103209 0.0977596 0.0917061 0.0851443 0.0781781 0.0709179 0.0634785 0.0559788 0.0485365 0.0412691 0.0342925 0.0277174 0.0216478 0.0161795 0.0113989 0.00738128 0.00418965 0.00187397 0.000470215 5.10024e-27 0 0.000614859 0.00244877 0.00547296 0.00963793 0.0148775 0.0211084 0.0282324 0.036137 0.044698 0.053781 0.0632437 0.0729378 0.0827097 0.0924079 0.101882 0.110983 0.119568 0.127503 0.134661 0.140931 0.146214 0.150425 0.153498 0.155406 0.156045 0.155485 0.153711 0.150706 0.146572 0.141352 0.13513 0.128002 0.120082 0.111494 0.102376 0.0928701 0.0831289 0.073308 0.0635613 0.0540431 0.0449057 0.0362942 0.028345 0.0211838 0.0149236 0.00966292 0.00548429 0.00245284 0.000615401 6.67432e-27 0 0.000750068 0.00298694 0.00667551 0.0117548 0.0181439 0.0257413 0.0344267 0.0440634 0.0545 0.0655728 0.0771087 0.0889271 0.100841 0.112666 0.12422 0.135321 0.145796 0.155479 0.164219 0.171877 0.178333 0.183484 0.187248 0.189598 0.190388 0.189725 0.187579 0.183923 0.178891 0.172534 0.164949 0.156258 0.146597 0.136119 0.124991 0.113388 0.101495 0.0895049 0.0776043 0.0659817 0.0548241 0.0443087 0.0346023 0.0258587 0.0182157 0.0117937 0.0066931 0.00299323 0.000750905 8.14308e-27 0 0.000873411 0.00347775 0.00777204 0.0136847 0.0211212 0.0299632 0.0400707 0.0512846 0.0634289 0.0763134 0.0897368 0.103489 0.117354 0.131116 0.144567 0.157492 0.16969 0.180969 0.191154 0.200083 0.207615 0.21363 0.218032 0.220795 0.221727 0.220978 0.218501 0.214256 0.208412 0.20102 0.192197 0.182082 0.170833 0.15863 0.145666 0.132147 0.118289 0.104315 0.0904441 0.0768968 0.0638913 0.0516346 0.0403213 0.0301306 0.0212235 0.01374 0.00779703 0.00348662 0.000874589 9.48339e-27 0 0.000982947 0.00391348 0.00874531 0.0153971 0.0237624 0.0337077 0.0450755 0.0576869 0.0713442 0.0858334 0.100929 0.116395 0.131988 0.147469 0.1626 0.177144 0.190873 0.203572 0.215043 0.225105 0.233598 0.240387 0.245363 0.248502 0.249569 0.248752 0.24599 0.241228 0.234667 0.226363 0.216443 0.205065 0.192407 0.178671 0.164075 0.148851 0.133243 0.117503 0.101878 0.0866163 0.0719644 0.0581563 0.0454116 0.0339322 0.0238996 0.0154712 0.00877867 0.00392523 0.000984503 1.06742e-26 0 0.00107695 0.00428727 0.00957998 0.0168652 0.0260259 0.0369157 0.0493621 0.0631694 0.0781208 0.0939827 0.110508 0.127441 0.144514 0.161465 0.178037 0.193968 0.209012 0.222932 0.235511 0.246549 0.255874 0.263335 0.268812 0.272283 0.273474 0.272608 0.269611 0.264413 0.257245 0.248162 0.237306 0.224847 0.210981 0.195928 0.179929 0.163238 0.146124 0.128862 0.111726 0.0949871 0.0789163 0.0637711 0.0497929 0.0372035 0.0262016 0.01696 0.00962255 0.00430213 0.00107892 1.16967e-26 0 0.00115395 0.00459327 0.0102629 0.0180658 0.0278761 0.0395369 0.0528634 0.0676456 0.0836518 0.100633 0.118324 0.136453 0.154733 0.172885 0.190634 0.207701 0.223821 0.238743 0.252233 0.264078 0.274091 0.282111 0.288008 0.291762 0.293067 0.292169 0.288992 0.283446 0.275789 0.266076 0.254457 0.241115 0.226261 0.210129 0.192977 0.175082 0.156728 0.138213 0.119832 0.101876 0.0846372 0.0683906 0.0533964 0.0398929 0.0280934 0.0181829 0.0103153 0.00461139 0.00115634 1.25349e-26 0 0.00121273 0.00482665 0.0107834 0.01898 0.0292839 0.0415298 0.0555238 0.0710451 0.0878505 0.105679 0.124255 0.14329 0.162485 0.181547 0.200192 0.218126 0.235068 0.250756 0.264946 0.277414 0.28796 0.296418 0.302648 0.30663 0.308037 0.307126 0.303827 0.298025 0.290007 0.27982 0.267626 0.253614 0.238006 0.221049 0.203014 0.184195 0.164888 0.145411 0.126071 0.107175 0.0890363 0.0719419 0.0561652 0.041958 0.029545 0.0191205 0.0108461 0.00484813 0.00121556 1.31756e-26 0 0.00125246 0.00498445 0.0111354 0.0195985 0.0302365 0.0428789 0.0573248 0.0733465 0.0906934 0.109096 0.12827 0.147919 0.167733 0.187414 0.206666 0.225184 0.242683 0.25889 0.273552 0.286439 0.297344 0.306095 0.312547 0.31668 0.31815 0.317243 0.313881 0.307922 0.299671 0.289177 0.276603 0.262145 0.24603 0.228517 0.209884 0.190433 0.170475 0.150339 0.130342 0.110803 0.0920457 0.074369 0.0580556 0.0433664 0.0305336 0.0197581 0.0112065 0.00500862 0.00125563 1.36087e-26 0 0.00127216 0.00506146 0.0113045 0.0198912 0.0306812 0.0435006 0.0581453 0.0743845 0.0919652 0.110615 0.130048 0.149963 0.170051 0.19001 0.20954 0.228337 0.246112 0.262588 0.277509 0.290641 0.301775 0.310732 0.317365 0.321645 0.323245 0.322378 0.319046 0.313049 0.304721 0.294105 0.281364 0.266697 0.250335 0.232539 0.213595 0.193811 0.173504 0.153009 0.132654 0.112765 0.0936666 0.0756701 0.0590647 0.0441139 0.0310548 0.0200917 0.0113935 0.00509111 0.00127603 1.38275e-26 0 0.00127216 0.00506141 0.0113042 0.0198905 0.0306797 0.0434977 0.0581404 0.0743769 0.0919546 0.110601 0.130029 0.149942 0.170028 0.189984 0.209512 0.22831 0.246085 0.262564 0.277489 0.290626 0.301764 0.310725 0.317361 0.321643 0.323245 0.322378 0.319048 0.313053 0.304727 0.294113 0.281375 0.26671 0.250349 0.232554 0.213613 0.193828 0.173519 0.153022 0.132665 0.112774 0.0936734 0.0756741 0.059066 0.0441151 0.0310558 0.0200921 0.0113936 0.00509115 0.00127603 1.38285e-26 0 0.00125178 0.00497908 0.0111175 0.0195573 0.0301592 0.0427513 0.0571326 0.0730766 0.0903359 0.108644 0.127719 0.147274 0.167004 0.186609 0.205804 0.224287 0.241779 0.258007 0.272719 0.285685 0.296698 0.305579 0.312182 0.316467 0.318146 0.317375 0.314231 0.308424 0.300318 0.289945 0.277461 0.263062 0.246974 0.229456 0.210796 0.191289 0.171253 0.151025 0.130928 0.111287 0.0924291 0.0746581 0.0582613 0.0435034 0.0306169 0.0198023 0.0112257 0.00501443 0.00125636 1.36116e-26 0 0.00121174 0.00481885 0.0107574 0.01892 0.0291711 0.0413436 0.0552431 0.0706507 0.0873276 0.105017 0.123449 0.142346 0.161414 0.18037 0.198935 0.216817 0.233748 0.249468 0.263732 0.276316 0.28702 0.295669 0.302118 0.306323 0.308031 0.30731 0.30431 0.298721 0.290903 0.280886 0.268819 0.254892 0.239324 0.222364 0.204287 0.185387 0.165973 0.14637 0.126891 0.107851 0.0895697 0.0723455 0.0564536 0.0421489 0.0296603 0.0191818 0.0108727 0.00485617 0.00121657 1.31804e-26 0 0.00115258 0.00458247 0.010227 0.0179828 0.02772 0.0392791 0.0524751 0.0671005 0.0829287 0.0997166 0.117213 0.135151 0.153254 0.171256 0.188892 0.205892 0.221998 0.236963 0.250556 0.262563 0.272792 0.281077 0.287278 0.291341 0.293059 0.292426 0.289656 0.284401 0.277022 0.267539 0.256096 0.242869 0.22807 0.211934 0.194724 0.17672 0.158218 0.139529 0.120959 0.102803 0.0853694 0.068944 0.0537906 0.0401547 0.0282518 0.018267 0.0103518 0.00462241 0.00115773 1.25416e-26 0 0.00107522 0.00427365 0.00953467 0.0167606 0.025829 0.0365905 0.0488724 0.0624819 0.0772086 0.0928268 0.109105 0.125798 0.14265 0.159411 0.17584 0.191688 0.206714 0.220689 0.233398 0.244641 0.25424 0.262035 0.267895 0.271758 0.273466 0.272938 0.270446 0.265616 0.258796 0.250001 0.239364 0.22705 0.213253 0.198194 0.182121 0.165295 0.147996 0.130514 0.113138 0.0961502 0.0798353 0.064465 0.0502882 0.0375325 0.0264001 0.0170653 0.00966829 0.00431595 0.00108066 1.17052e-26 0 0.000980885 0.00389723 0.00869134 0.0152725 0.0235277 0.0333199 0.0444918 0.0568679 0.0702573 0.0844561 0.099255 0.114435 0.129767 0.145022 0.159985 0.174429 0.188137 0.200902 0.212529 0.222836 0.231656 0.238844 0.244277 0.247885 0.249561 0.249154 0.246984 0.242661 0.236513 0.22855 0.21889 0.207683 0.195106 0.181363 0.166678 0.151294 0.135467 0.119465 0.103554 0.0879972 0.0730544 0.0589789 0.0459994 0.0343223 0.024135 0.0155962 0.00883298 0.00394163 0.000986572 1.06843e-26 0 0.000871048 0.00345913 0.00771025 0.013542 0.0208524 0.0295191 0.0394022 0.0503467 0.0621847 0.0747387 0.0878229 0.101246 0.11481 0.128315 0.141573 0.154386 0.166561 0.177916 0.18828 0.19749 0.205396 0.211869 0.216795 0.220099 0.22172 0.221451 0.219642 0.2159 0.210525 0.203522 0.194995 0.185074 0.173917 0.161704 0.148638 0.134936 0.120828 0.106555 0.0923581 0.0784738 0.0651377 0.0525743 0.040992 0.0305763 0.0214931 0.013883 0.00785902 0.00350534 0.000876951 9.49514e-27 0 0.000747441 0.00296624 0.00660685 0.0115963 0.0178452 0.0252478 0.0336839 0.0430213 0.0531178 0.0638253 0.0749856 0.0864366 0.0980159 0.109555 0.120895 0.131873 0.142324 0.152092 0.161032 0.169003 0.175876 0.181536 0.185884 0.18884 0.190382 0.190268 0.188849 0.185754 0.181242 0.175314 0.168056 0.15958 0.150019 0.13953 0.128287 0.11648 0.104311 0.0919891 0.0797262 0.0677291 0.0562059 0.0453504 0.0353453 0.0263528 0.0185145 0.011952 0.00676178 0.00301398 0.000753524 8.15629e-27 0 0.000612009 0.00242631 0.00539853 0.00946609 0.0145537 0.0205734 0.027427 0.0350072 0.0431995 0.0518858 0.0609419 0.0702389 0.0796487 0.0890383 0.0982815 0.107248 0.115809 0.123838 0.131215 0.137825 0.143561 0.148325 0.152031 0.154605 0.156033 0.156104 0.155087 0.152701 0.149125 0.144369 0.138499 0.131603 0.12379 0.115189 0.105945 0.0962172 0.0861755 0.075996 0.0658573 0.0559336 0.0464004 0.0374214 0.0291487 0.021718 0.0152466 0.00983404 0.00555855 0.00247528 0.000618237 6.68884e-27 0 0.000466883 0.00184782 0.00410431 0.00718495 0.0110295 0.0155696 0.0207301 0.0264306 0.0325865 0.0391112 0.0459157 0.0529084 0.0599973 0.0670865 0.0740853 0.0808995 0.0874349 0.0935981 0.0992989 0.104447 0.108959 0.112758 0.11577 0.117932 0.119215 0.119503 0.118883 0.117264 0.114682 0.111176 0.106788 0.101583 0.0956419 0.0890644 0.0819645 0.0744677 0.0667088 0.0588286 0.0509703 0.0432733 0.0358771 0.0289127 0.0224998 0.0167456 0.0117413 0.0075627 0.00426835 0.00189776 0.000473223 5.11588e-27 0 0.000314349 0.00123989 0.00274458 0.00478883 0.00732838 0.0103153 0.0136989 0.0174268 0.0214459 0.025703 0.0301457 0.0347196 0.0393712 0.0440457 0.0486889 0.0532412 0.0576469 0.0618502 0.0657869 0.0693954 0.0726175 0.0753951 0.0776716 0.0793956 0.0805261 0.0810147 0.0808301 0.0799933 0.0784545 0.0762585 0.0734257 0.0699948 0.0660198 0.0615692 0.0567238 0.0515741 0.0462178 0.0407579 0.0353002 0.0299475 0.0248014 0.0199579 0.0155035 0.0115142 0.00805392 0.00517373 0.00291155 0.00129052 0.000320768 3.46218e-27 0 0.000156809 0.000612094 0.0013408 0.00231553 0.00350871 0.00489357 0.00644464 0.00813845 0.00995435 0.0118738 0.0138811 0.0159608 0.0180994 0.0202818 0.0224935 0.0247123 0.0269197 0.0290964 0.0312085 0.0332243 0.0351098 0.0368275 0.0383377 0.0396017 0.040581 0.0412347 0.0415406 0.0414677 0.0410177 0.0401677 0.0389378 0.0373384 0.0353914 0.0331368 0.0306211 0.0278973 0.0250253 0.0220689 0.0190943 0.0161665 0.0133483 0.0106985 0.00826975 0.00610597 0.00424246 0.00270472 0.00150951 0.000663136 0.000163275 1.75377e-27 0 -3.22942e-06 -2.54946e-05 -8.4343e-05 -0.000194671 -0.000366993 -0.000606569 -0.000913152 -0.00128099 -0.00169812 -0.00214814 -0.00260903 -0.00305599 -0.00346508 -0.00381175 -0.00406838 -0.0042157 -0.00423995 -0.00412511 -0.00386873 -0.00347556 -0.00295493 -0.00232326 -0.00160162 -0.000816536 1.19199e-07 0.000815891 0.00159916 0.00231984 0.00295271 0.00347246 0.00386684 0.00412435 0.00423761 0.00421533 0.00406795 0.00381102 0.0034658 0.00305643 0.0026086 0.00214789 0.00169832 0.00128055 0.000912817 0.000606419 0.000367021 0.000194599 8.43595e-05 2.55044e-05 3.22934e-06 1.75911e-29 0 -0.000163275 -0.000663128 -0.00150949 -0.00270478 -0.00424242 -0.00610609 -0.00826987 -0.0106987 -0.0133483 -0.0161667 -0.0190942 -0.0220682 -0.0250249 -0.0278985 -0.0306217 -0.0331367 -0.0353909 -0.0373393 -0.0389417 -0.040172 -0.0410203 -0.0414696 -0.0415419 -0.0412353 -0.0405815 -0.0396024 -0.0383402 -0.0368301 -0.0351118 -0.0332258 -0.0312092 -0.0290982 -0.0269234 -0.0247128 -0.0224922 -0.0202818 -0.0180994 -0.015961 -0.0138812 -0.011874 -0.00995414 -0.00813868 -0.00644487 -0.0048936 -0.0035087 -0.00231562 -0.0013408 -0.000612082 -0.000156809 -1.71901e-27 0 -0.000320768 -0.00129051 -0.00291151 -0.00517381 -0.00805393 -0.0115142 -0.0155036 -0.0199581 -0.0248017 -0.0299475 -0.0352998 -0.040758 -0.046218 -0.0515744 -0.0567237 -0.0615686 -0.0660186 -0.0699967 -0.0734316 -0.0762638 -0.0784565 -0.0799934 -0.0808299 -0.0810147 -0.0805265 -0.0793961 -0.0776732 -0.075397 -0.0726196 -0.0693966 -0.065787 -0.06185 -0.0576493 -0.0532425 -0.0486879 -0.0440458 -0.0393714 -0.0347198 -0.030146 -0.0257035 -0.0214458 -0.0174267 -0.0136989 -0.0103153 -0.00732836 -0.0047889 -0.00274462 -0.00123988 -0.000314349 -3.42863e-27 0 -0.000473223 -0.00189775 -0.0042683 -0.00756281 -0.0117414 -0.0167457 -0.0225002 -0.0289131 -0.0358776 -0.043274 -0.0509707 -0.0588286 -0.0667078 -0.0744669 -0.0819644 -0.0890641 -0.0956422 -0.101584 -0.106793 -0.111183 -0.114685 -0.117262 -0.118881 -0.119502 -0.119214 -0.117932 -0.11577 -0.112758 -0.10896 -0.104445 -0.0992976 -0.0935984 -0.0874347 -0.0809 -0.0740855 -0.0670862 -0.0599967 -0.0529083 -0.0459158 -0.0391115 -0.0325864 -0.0264301 -0.02073 -0.0155696 -0.0110295 -0.00718505 -0.0041044 -0.00184781 -0.000466883 -5.0843e-27 0 -0.000618237 -0.00247527 -0.00555845 -0.0098341 -0.0152466 -0.021718 -0.0291492 -0.0374223 -0.0464011 -0.0559351 -0.0658587 -0.0759961 -0.0861748 -0.0962164 -0.105945 -0.115189 -0.12379 -0.131603 -0.1385 -0.144374 -0.149126 -0.152695 -0.155084 -0.156103 -0.156033 -0.154605 -0.152031 -0.148325 -0.143561 -0.137823 -0.131213 -0.123838 -0.115808 -0.107248 -0.0982825 -0.0890385 -0.0796479 -0.0702381 -0.0609407 -0.0518855 -0.0431993 -0.0350064 -0.0274267 -0.0205734 -0.0145537 -0.00946622 -0.00539866 -0.00242629 -0.000612009 -6.65989e-27 0 -0.000753524 -0.00301396 -0.00676164 -0.0119519 -0.0185143 -0.0263525 -0.0353459 -0.0453515 -0.0562063 -0.06773 -0.0797277 -0.0919896 -0.10431 -0.116479 -0.128287 -0.13953 -0.15002 -0.15958 -0.168055 -0.175314 -0.181241 -0.185751 -0.188848 -0.190268 -0.190382 -0.18884 -0.185883 -0.181537 -0.175877 -0.169003 -0.16103 -0.15209 -0.142322 -0.131872 -0.120897 -0.109556 -0.0980154 -0.0864358 -0.0749838 -0.063824 -0.0531174 -0.0430202 -0.0336833 -0.0252477 -0.0178452 -0.0115964 -0.00660699 -0.00296623 -0.000747441 -8.13052e-27 0 -0.000876951 -0.00350533 -0.00785889 -0.0138827 -0.0214928 -0.0305762 -0.0409924 -0.0525758 -0.0651385 -0.0784739 -0.0923602 -0.106556 -0.120827 -0.134935 -0.148637 -0.161704 -0.173917 -0.185074 -0.194994 -0.203522 -0.210526 -0.2159 -0.219641 -0.221451 -0.22172 -0.220099 -0.216795 -0.21187 -0.205396 -0.197488 -0.18828 -0.177917 -0.166559 -0.154384 -0.141574 -0.128316 -0.114809 -0.101246 -0.0878235 -0.0747388 -0.062184 -0.0503452 -0.0394013 -0.0295188 -0.0208524 -0.0135421 -0.00771037 -0.00345913 -0.000871047 -9.47293e-27 0 -0.000986572 -0.00394162 -0.00883287 -0.0155961 -0.0241353 -0.0343225 -0.0459995 -0.0589809 -0.073057 -0.0879974 -0.103556 -0.119468 -0.135467 -0.151292 -0.166677 -0.181362 -0.195106 -0.207682 -0.21889 -0.22855 -0.236513 -0.242661 -0.246984 -0.249154 -0.249561 -0.247885 -0.244277 -0.238843 -0.231654 -0.222835 -0.21253 -0.200903 -0.188136 -0.174428 -0.159985 -0.145021 -0.129766 -0.114436 -0.0992575 -0.0844578 -0.0702565 -0.056866 -0.0444907 -0.0333196 -0.0235276 -0.0152726 -0.00869146 -0.00389724 -0.000980884 -1.06659e-26 0 -0.00108066 -0.00431595 -0.0096682 -0.0170651 -0.0263999 -0.0375322 -0.0502882 -0.0644659 -0.0798369 -0.0961502 -0.113138 -0.130517 -0.147999 -0.165295 -0.18212 -0.198193 -0.213252 -0.22705 -0.239364 -0.250001 -0.258796 -0.265616 -0.270446 -0.272938 -0.273466 -0.271758 -0.267895 -0.262034 -0.254239 -0.244642 -0.233398 -0.220688 -0.206713 -0.191689 -0.175841 -0.15941 -0.142648 -0.125796 -0.109105 -0.0928278 -0.0772075 -0.06248 -0.0488712 -0.03659 -0.0258289 -0.0167607 -0.00953481 -0.00427366 -0.00107522 -1.16906e-26 0 -0.00115773 -0.00462241 -0.0103517 -0.0182665 -0.0282512 -0.0401546 -0.0537909 -0.0689441 -0.0853707 -0.102804 -0.120958 -0.139531 -0.15822 -0.176722 -0.194724 -0.211932 -0.228069 -0.24287 -0.256095 -0.267539 -0.277022 -0.284402 -0.289655 -0.292426 -0.293059 -0.291341 -0.287278 -0.281077 -0.272792 -0.262564 -0.250557 -0.236963 -0.221999 -0.205893 -0.188892 -0.171255 -0.153253 -0.135149 -0.117212 -0.0997169 -0.0829275 -0.0670989 -0.052474 -0.0392786 -0.0277199 -0.017983 -0.0102272 -0.0045825 -0.00115258 -1.25308e-26 0 -0.00121657 -0.00485618 -0.0108727 -0.0191815 -0.0296599 -0.0421484 -0.0564524 -0.0723449 -0.0895711 -0.107853 -0.126891 -0.14637 -0.165974 -0.185388 -0.204289 -0.222365 -0.239325 -0.254891 -0.268816 -0.280884 -0.290904 -0.298722 -0.30431 -0.307311 -0.308032 -0.306323 -0.302118 -0.295669 -0.287021 -0.276316 -0.263732 -0.249468 -0.233749 -0.216817 -0.198932 -0.180369 -0.161414 -0.142346 -0.12345 -0.105016 -0.0873265 -0.0706497 -0.0552424 -0.0413432 -0.0291709 -0.0189201 -0.0107576 -0.00481887 -0.00121174 -1.31732e-26 0 -0.00125636 -0.00501443 -0.0112257 -0.0198022 -0.0306162 -0.0435028 -0.0582611 -0.0746572 -0.0924284 -0.111288 -0.130929 -0.151025 -0.171252 -0.191286 -0.210794 -0.22946 -0.246977 -0.263061 -0.277459 -0.289944 -0.300319 -0.308425 -0.314232 -0.317375 -0.318146 -0.316468 -0.312181 -0.30558 -0.296698 -0.285685 -0.272719 -0.258007 -0.241779 -0.224287 -0.205803 -0.186609 -0.167002 -0.147274 -0.12772 -0.108643 -0.0903352 -0.0730764 -0.0571324 -0.042751 -0.030159 -0.0195574 -0.0111176 -0.00497909 -0.00125178 -1.36077e-26 0 -0.00127603 -0.00509115 -0.0113936 -0.0200921 -0.0310554 -0.0441149 -0.0590669 -0.0756748 -0.0936731 -0.112773 -0.132666 -0.153023 -0.173518 -0.193826 -0.213611 -0.232554 -0.250349 -0.26671 -0.281375 -0.294114 -0.304728 -0.313053 -0.319048 -0.322378 -0.323245 -0.321643 -0.317361 -0.310725 -0.301764 -0.290626 -0.27749 -0.262564 -0.246085 -0.22831 -0.209513 -0.189984 -0.170028 -0.149942 -0.130029 -0.110601 -0.0919544 -0.074377 -0.0581404 -0.0434976 -0.0306796 -0.0198906 -0.0113043 -0.00506142 -0.00127216 -1.38272e-26 0 -0.00127603 -0.00509111 -0.0113935 -0.0200917 -0.0310546 -0.0441132 -0.0590636 -0.0756697 -0.0936661 -0.112764 -0.132654 -0.15301 -0.173504 -0.19381 -0.213595 -0.232538 -0.250333 -0.266696 -0.281364 -0.294105 -0.304721 -0.313049 -0.319046 -0.322378 -0.323245 -0.321645 -0.317365 -0.310733 -0.301776 -0.290641 -0.277509 -0.262587 -0.246111 -0.228337 -0.20954 -0.19001 -0.170052 -0.149963 -0.130047 -0.110615 -0.0919652 -0.0743847 -0.0581453 -0.0435005 -0.0306812 -0.0198913 -0.0113046 -0.00506146 -0.00127216 -1.38285e-26 0 -0.00125563 -0.00500862 -0.0112065 -0.0197581 -0.0305335 -0.043366 -0.0580545 -0.0743673 -0.0920444 -0.110803 -0.130341 -0.150338 -0.170474 -0.190432 -0.209884 -0.228516 -0.24603 -0.262145 -0.276603 -0.289178 -0.299672 -0.307923 -0.313882 -0.317243 -0.318151 -0.31668 -0.312547 -0.306095 -0.297345 -0.286438 -0.273551 -0.258889 -0.242681 -0.225183 -0.206665 -0.187414 -0.167734 -0.147919 -0.12827 -0.109096 -0.0906933 -0.0733466 -0.0573248 -0.0428789 -0.0302366 -0.0195985 -0.0111354 -0.00498445 -0.00125246 -1.36114e-26 0 -0.00121556 -0.00484813 -0.0108461 -0.0191205 -0.029545 -0.0419578 -0.0561646 -0.0719408 -0.0890