<?xml version="1.0"?>
<VTKFile type="PolyData">
	<PolyData>
		<Piece NumberOfPoints="2601" NumberOfPolys="2500">
			<Points>
				<DataArray type="Float32" NumberOfComponents="3" format="ascii">
 0 0 0 0.02 0 0 0.04 0 0 0.06 0 0 0.08 0 0 0.1 0 0 0.12 0 0 0.14 0 0 0.16 0 0 0.18 0 0 0.2 0 0 0.22 0 0 0.24 0 0 0.26 0 0 0.28 0 0 0.3 0 0 0.32 0 0 0.34 0 0 0.36 0 0 0.38 0 0 0.4 0 0 0.42 0 0 0.44 0 0 0.46 0 0 0.48 0 0 0.5 0 0 0.52 0 0 0.54 0 0 0.56 0 0 0.58 0 0 0.6 0 0 0.62 0 0 0.64 0 0 0.66 0 0 0.68 0 0 0.7 0 0 0.72 0 0 0.74 0 0 0.76 0 0 0.78 0 0 0.8 0 0 0.82 0 0 0.84 0 0 0.86 0 0 0.88 0 0 0.9 0 0 0.92 0 0 0.94 0 0 0.96 0 0 0.98 0 0 1 0 0 0 0.02 0 0.02 0.02 0 0.04 0.02 0 0.06 0.02 0 0.08 0.02 0 0.1 0.02 0 0.12 0.02 0 0.14 0.02 0 0.16 0.02 0 0.18 0.02 0 0.2 0.02 0 0.22 0.02 0 0.24 0.02 0 0.26 0.02 0 0.28 0.02 0 0.3 0.02 0 0.32 0.02 0 0.34 0.02 0 0.36 0.02 0 0.38 0.02 0 0.4 0.02 0 0.42 0.02 0 0.44 0.02 0 0.46 0.02 0 0.48 0.02 0 0.5 0.02 0 0.52 0.02 0 0.54 0.02 0 0.56 0.02 0 0.58 0.02 0 0.6 0.02 0 0.62 0.02 0 0.64 0.02 0 0.66 0.02 0 0.68 0.02 0 0.7 0.02 0 0.72 0.02 0 0.74 0.02 0 0.76 0.02 0 0.78 0.02 0 0.8 0.02 0 0.82 0.02 0 0.84 0.02 0 0.86 0.02 0 0.88 0.02 0 0.9 0.02 0 0.92 0.02 0 0.94 0.02 0 0.96 0.02 0 0.98 0.02 0 1 0.02 0 0 0.04 0 0.02 0.04 0 0.04 0.04 0 0.06 0.04 0 0.08 0.04 0 0.1 0.04 0 0.12 0.04 0 0.14 0.04 0 0.16 0.04 0 0.18 0.04 0 0.2 0.04 0 0.22 0.04 0 0.24 0.04 0 0.26 0.04 0 0.28 0.04 0 0.3 0.04 0 0.32 0.04 0 0.34 0.04 0 0.36 0.04 0 0.38 0.04 0 0.4 0.04 0 0.42 0.04 0 0.44 0.04 0 0.46 0.04 0 0.48 0.04 0 0.5 0.04 0 0.52 0.04 0 0.54 0.04 0 0.56 0.04 0 0.58 0.04 0 0.6 0.04 0 0.62 0.04 0 0.64 0.04 0 0.66 0.04 0 0.68 0.04 0 0.7 0.04 0 0.72 0.04 0 0.74 0.04 0 0.76 0.04 0 0.78 0.04 0 0.8 0.04 0 0.82 0.04 0 0.84 0.04 0 0.86 0.04 0 0.88 0.04 0 0.9 0.04 0 0.92 0.04 0 0.94 0.04 0 0.96 0.04 0 0.98 0.04 0 1 0.04 0 0 0.06 0 0.02 0.06 0 0.04 0.06 0 0.06 0.06 0 0.08 0.06 0 0.1 0.06 0 0.12 0.06 0 0.14 0.06 0 0.16 0.06 0 0.18 0.06 0 0.2 0.06 0 0.22 0.06 0 0.24 0.06 0 0.26 0.06 0 0.28 0.06 0 0.3 0.06 0 0.32 0.06 0 0.34 0.06 0 0.36 0.06 0 0.38 0.06 0 0.4 0.06 0 0.42 0.06 0 0.44 0.06 0 0.46 0.06 0 0.48 0.06 0 0.5 0.06 0 0.52 0.06 0 0.54 0.06 0 0.56 0.06 0 0.58 0.06 0 0.6 0.06 0 0.62 0.06 0 0.64 0.06 0 0.66 0.06 0 0.68 0.06 0 0.7 0.06 0 0.72 0.06 0 0.74 0.06 0 0.76 0.06 0 0.78 0.06 0 0.8 0.06 0 0.82 0.06 0 0.84 0.06 0 0.86 0.06 0 0.88 0.06 0 0.9 0.06 0 0.92 0.06 0 0.94 0.06 0 0.96 0.06 0 0.98 0.06 0 1 0.06 0 0 0.08 0 0.02 0.08 0 0.04 0.08 0 0.06 0.08 0 0.08 0.08 0 0.1 0.08 0 0.12 0.08 0 0.14 0.08 0 0.16 0.08 0 0.18 0.08 0 0.2 0.08 0 0.22 0.08 0 0.24 0.08 0 0.26 0.08 0 0.28 0.08 0 0.3 0.08 0 0.32 0.08 0 0.34 0.08 0 0.36 0.08 0 0.38 0.08 0 0.4 0.08 0 0.42 0.08 0 0.44 0.08 0 0.46 0.08 0 0.48 0.08 0 0.5 0.08 0 0.52 0.08 0 0.54 0.08 0 0.56 0.08 0 0.58 0.08 0 0.6 0.08 0 0.62 0.08 0 0.64 0.08 0 0.66 0.08 0 0.68 0.08 0 0.7 0.08 0 0.72 0.08 0 0.74 0.08 0 0.76 0.08 0 0.78 0.08 0 0.8 0.08 0 0.82 0.08 0 0.84 0.08 0 0.86 0.08 0 0.88 0.08 0 0.9 0.08 0 0.92 0.08 0 0.94 0.08 0 0.96 0.08 0 0.98 0.08 0 1 0.08 0 0 0.1 0 0.02 0.1 0 0.04 0.1 0 0.06 0.1 0 0.08 0.1 0 0.1 0.1 0 0.12 0.1 0 0.14 0.1 0 0.16 0.1 0 0.18 0.1 0 0.2 0.1 0 0.22 0.1 0 0.24 0.1 0 0.26 0.1 0 0.28 0.1 0 0.3 0.1 0 0.32 0.1 0 0.34 0.1 0 0.36 0.1 0 0.38 0.1 0 0.4 0.1 0 0.42 0.1 0 0.44 0.1 0 0.46 0.1 0 0.48 0.1 0 0.5 0.1 0 0.52 0.1 0 0.54 0.1 0 0.56 0.1 0 0.58 0.1 0 0.6 0.1 0 0.62 0.1 0 0.64 0.1 0 0.66 0.1 0 0.68 0.1 0 0.7 0.1 0 0.72 0.1 0 0.74 0.1 0 0.76 0.1 0 0.78 0.1 0 0.8 0.1 0 0.82 0.1 0 0.84 0.1 0 0.86 0.1 0 0.88 0.1 0 0.9 0.1 0 0.92 0.1 0 0.94 0.1 0 0.96 0.1 0 0.98 0.1 0 1 0.1 0 0 0.12 0 0.02 0.12 0 0.04 0.12 0 0.06 0.12 0 0.08 0.12 0 0.1 0.12 0 0.12 0.12 0 0.14 0.12 0 0.16 0.12 0 0.18 0.12 0 0.2 0.12 0 0.22 0.12 0 0.24 0.12 0 0.26 0.12 0 0.28 0.12 0 0.3 0.12 0 0.32 0.12 0 0.34 0.12 0 0.36 0.12 0 0.38 0.12 0 0.4 0.12 0 0.42 0.12 0 0.44 0.12 0 0.46 0.12 0 0.48 0.12 0 0.5 0.12 0 0.52 0.12 0 0.54 0.12 0 0.56 0.12 0 0.58 0.12 0 0.6 0.12 0 0.62 0.12 0 0.64 0.12 0 0.66 0.12 0 0.68 0.12 0 0.7 0.12 0 0.72 0.12 0 0.74 0.12 0 0.76 0.12 0 0.78 0.12 0 0.8 0.12 0 0.82 0.12 0 0.84 0.12 0 0.86 0.12 0 0.88 0.12 0 0.9 0.12 0 0.92 0.12 0 0.94 0.12 0 0.96 0.12 0 0.98 0.12 0 1 0.12 0 0 0.14 0 0.02 0.14 0 0.04 0.14 0 0.06 0.14 0 0.08 0.14 0 0.1 0.14 0 0.12 0.14 0 0.14 0.14 0 0.16 0.14 0 0.18 0.14 0 0.2 0.14 0 0.22 0.14 0 0.24 0.14 0 0.26 0.14 0 0.28 0.14 0 0.3 0.14 0 0.32 0.14 0 0.34 0.14 0 0.36 0.14 0 0.38 0.14 0 0.4 0.14 0 0.42 0.14 0 0.44 0.14 0 0.46 0.14 0 0.48 0.14 0 0.5 0.14 0 0.52 0.14 0 0.54 0.14 0 0.56 0.14 0 0.58 0.14 0 0.6 0.14 0 0.62 0.14 0 0.64 0.14 0 0.66 0.14 0 0.68 0.14 0 0.7 0.14 0 0.72 0.14 0 0.74 0.14 0 0.76 0.14 0 0.78 0.14 0 0.8 0.14 0 0.82 0.14 0 0.84 0.14 0 0.86 0.14 0 0.88 0.14 0 0.9 0.14 0 0.92 0.14 0 0.94 0.14 0 0.96 0.14 0 0.98 0.14 0 1 0.14 0 0 0.16 0 0.02 0.16 0 0.04 0.16 0 0.06 0.16 0 0.08 0.16 0 0.1 0.16 0 0.12 0.16 0 0.14 0.16 0 0.16 0.16 0 0.18 0.16 0 0.2 0.16 0 0.22 0.16 0 0.24 0.16 0 0.26 0.16 0 0.28 0.16 0 0.3 0.16 0 0.32 0.16 0 0.34 0.16 0 0.36 0.16 0 0.38 0.16 0 0.4 0.16 0 0.42 0.16 0 0.44 0.16 0 0.46 0.16 0 0.48 0.16 0 0.5 0.16 0 0.52 0.16 0 0.54 0.16 0 0.56 0.16 0 0.58 0.16 0 0.6 0.16 0 0.62 0.16 0 0.64 0.16 0 0.66 0.16 0 0.68 0.16 0 0.7 0.16 0 0.72 0.16 0 0.74 0.16 0 0.76 0.16 0 0.78 0.16 0 0.8 0.16 0 0.82 0.16 0 0.84 0.16 0 0.86 0.16 0 0.88 0.16 0 0.9 0.16 0 0.92 0.16 0 0.94 0.16 0 0.96 0.16 0 0.98 0.16 0 1 0.16 0 0 0.18 0 0.02 0.18 0 0.04 0.18 0 0.06 0.18 0 0.08 0.18 0 0.1 0.18 0 0.12 0.18 0 0.14 0.18 0 0.16 0.18 0 0.18 0.18 0 0.2 0.18 0 0.22 0.18 0 0.24 0.18 0 0.26 0.18 0 0.28 0.18 0 0.3 0.18 0 0.32 0.18 0 0.34 0.18 0 0.36 0.18 0 0.38 0.18 0 0.4 0.18 0 0.42 0.18 0 0.44 0.18 0 0.46 0.18 0 0.48 0.18 0 0.5 0.18 0 0.52 0.18 0 0.54 0.18 0 0.56 0.18 0 0.58 0.18 0 0.6 0.18 0 0.62 0.18 0 0.64 0.18 0 0.66 0.18 0 0.68 0.18 0 0.7 0.18 0 0.72 0.18 0 0.74 0.18 0 0.76 0.18 0 0.78 0.18 0 0.8 0.18 0 0.82 0.18 0 0.84 0.18 0 0.86 0.18 0 0.88 0.18 0 0.9 0.18 0 0.92 0.18 0 0.94 0.18 0 0.96 0.18 0 0.98 0.18 0 1 0.18 0 0 0.2 0 0.02 0.2 0 0.04 0.2 0 0.06 0.2 0 0.08 0.2 0 0.1 0.2 0 0.12 0.2 0 0.14 0.2 0 0.16 0.2 0 0.18 0.2 0 0.2 0.2 0 0.22 0.2 0 0.24 0.2 0 0.26 0.2 0 0.28 0.2 0 0.3 0.2 0 0.32 0.2 0 0.34 0.2 0 0.36 0.2 0 0.38 0.2 0 0.4 0.2 0 0.42 0.2 0 0.44 0.2 0 0.46 0.2 0 0.48 0.2 0 0.5 0.2 0 0.52 0.2 0 0.54 0.2 0 0.56 0.2 0 0.58 0.2 0 0.6 0.2 0 0.62 0.2 0 0.64 0.2 0 0.66 0.2 0 0.68 0.2 0 0.7 0.2 0 0.72 0.2 0 0.74 0.2 0 0.76 0.2 0 0.78 0.2 0 0.8 0.2 0 0.82 0.2 0 0.84 0.2 0 0.86 0.2 0 0.88 0.2 0 0.9 0.2 0 0.92 0.2 0 0.94 0.2 0 0.96 0.2 0 0.98 0.2 0 1 0.2 0 0 0.22 0 0.02 0.22 0 0.04 0.22 0 0.06 0.22 0 0.08 0.22 0 0.1 0.22 0 0.12 0.22 0 0.14 0.22 0 0.16 0.22 0 0.18 0.22 0 0.2 0.22 0 0.22 0.22 0 0.24 0.22 0 0.26 0.22 0 0.28 0.22 0 0.3 0.22 0 0.32 0.22 0 0.34 0.22 0 0.36 0.22 0 0.38 0.22 0 0.4 0.22 0 0.42 0.22 0 0.44 0.22 0 0.46 0.22 0 0.48 0.22 0 0.5 0.22 0 0.52 0.22 0 0.54 0.22 0 0.56 0.22 0 0.58 0.22 0 0.6 0.22 0 0.62 0.22 0 0.64 0.22 0 0.66 0.22 0 0.68 0.22 0 0.7 0.22 0 0.72 0.22 0 0.74 0.22 0 0.76 0.22 0 0.78 0.22 0 0.8 0.22 0 0.82 0.22 0 0.84 0.22 0 0.86 0.22 0 0.88 0.22 0 0.9 0.22 0 0.92 0.22 0 0.94 0.22 0 0.96 0.22 0 0.98 0.22 0 1 0.22 0 0 0.24 0 0.02 0.24 0 0.04 0.24 0 0.06 0.24 0 0.08 0.24 0 0.1 0.24 0 0.12 0.24 0 0.14 0.24 0 0.16 0.24 0 0.18 0.24 0 0.2 0.24 0 0.22 0.24 0 0.24 0.24 0 0.26 0.24 0 0.28 0.24 0 0.3 0.24 0 0.32 0.24 0 0.34 0.24 0 0.36 0.24 0 0.38 0.24 0 0.4 0.24 0 0.42 0.24 0 0.44 0.24 0 0.46 0.24 0 0.48 0.24 0 0.5 0.24 0 0.52 0.24 0 0.54 0.24 0 0.56 0.24 0 0.58 0.24 0 0.6 0.24 0 0.62 0.24 0 0.64 0.24 0 0.66 0.24 0 0.68 0.24 0 0.7 0.24 0 0.72 0.24 0 0.74 0.24 0 0.76 0.24 0 0.78 0.24 0 0.8 0.24 0 0.82 0.24 0 0.84 0.24 0 0.86 0.24 0 0.88 0.24 0 0.9 0.24 0 0.92 0.24 0 0.94 0.24 0 0.96 0.24 0 0.98 0.24 0 1 0.24 0 0 0.26 0 0.02 0.26 0 0.04 0.26 0 0.06 0.26 0 0.08 0.26 0 0.1 0.26 0 0.12 0.26 0 0.14 0.26 0 0.16 0.26 0 0.18 0.26 0 0.2 0.26 0 0.22 0.26 0 0.24 0.26 0 0.26 0.26 0 0.28 0.26 0 0.3 0.26 0 0.32 0.26 0 0.34 0.26 0 0.36 0.26 0 0.38 0.26 0 0.4 0.26 0 0.42 0.26 0 0.44 0.26 0 0.46 0.26 0 0.48 0.26 0 0.5 0.26 0 0.52 0.26 0 0.54 0.26 0 0.56 0.26 0 0.58 0.26 0 0.6 0.26 0 0.62 0.26 0 0.64 0.26 0 0.66 0.26 0 0.68 0.26 0 0.7 0.26 0 0.72 0.26 0 0.74 0.26 0 0.76 0.26 0 0.78 0.26 0 0.8 0.26 0 0.82 0.26 0 0.84 0.26 0 0.86 0.26 0 0.88 0.26 0 0.9 0.26 0 0.92 0.26 0 0.94 0.26 0 0.96 0.26 0 0.98 0.26 0 1 0.26 0 0 0.28 0 0.02 0.28 0 0.04 0.28 0 0.06 0.28 0 0.08 0.28 0 0.1 0.28 0 0.12 0.28 0 0.14 0.28 0 0.16 0.28 0 0.18 0.28 0 0.2 0.28 0 0.22 0.28 0 0.24 0.28 0 0.26 0.28 0 0.28 0.28 0 0.3 0.28 0 0.32 0.28 0 0.34 0.28 0 0.36 0.28 0 0.38 0.28 0 0.4 0.28 0 0.42 0.28 0 0.44 0.28 0 0.46 0.28 0 0.48 0.28 0 0.5 0.28 0 0.52 0.28 0 0.54 0.28 0 0.56 0.28 0 0.58 0.28 0 0.6 0.28 0 0.62 0.28 0 0.64 0.28 0 0.66 0.28 0 0.68 0.28 0 0.7 0.28 0 0.72 0.28 0 0.74 0.28 0 0.76 0.28 0 0.78 0.28 0 0.8 0.28 0 0.82 0.28 0 0.84 0.28 0 0.86 0.28 0 0.88 0.28 0 0.9 0.28 0 0.92 0.28 0 0.94 0.28 0 0.96 0.28 0 0.98 0.28 0 1 0.28 0 0 0.3 0 0.02 0.3 0 0.04 0.3 0 0.06 0.3 0 0.08 0.3 0 0.1 0.3 0 0.12 0.3 0 0.14 0.3 0 0.16 0.3 0 0.18 0.3 0 0.2 0.3 0 0.22 0.3 0 0.24 0.3 0 0.26 0.3 0 0.28 0.3 0 0.3 0.3 0 0.32 0.3 0 0.34 0.3 0 0.36 0.3 0 0.38 0.3 0 0.4 0.3 0 0.42 0.3 0 0.44 0.3 0 0.46 0.3 0 0.48 0.3 0 0.5 0.3 0 0.52 0.3 0 0.54 0.3 0 0.56 0.3 0 0.58 0.3 0 0.6 0.3 0 0.62 0.3 0 0.64 0.3 0 0.66 0.3 0 0.68 0.3 0 0.7 0.3 0 0.72 0.3 0 0.74 0.3 0 0.76 0.3 0 0.78 0.3 0 0.8 0.3 0 0.82 0.3 0 0.84 0.3 0 0.86 0.3 0 0.88 0.3 0 0.9 0.3 0 0.92 0.3 0 0.94 0.3 0 0.96 0.3 0 0.98 0.3 0 1 0.3 0 0 0.32 0 0.02 0.32 0 0.04 0.32 0 0.06 0.32 0 0.08 0.32 0 0.1 0.32 0 0.12 0.32 0 0.14 0.32 0 0.16 0.32 0 0.18 0.32 0 0.2 0.32 0 0.22 0.32 0 0.24 0.32 0 0.26 0.32 0 0.28 0.32 0 0.3 0.32 0 0.32 0.32 0 0.34 0.32 0 0.36 0.32 0 0.38 0.32 0 0.4 0.32 0 0.42 0.32 0 0.44 0.32 0 0.46 0.32 0 0.48 0.32 0 0.5 0.32 0 0.52 0.32 0 0.54 0.32 0 0.56 0.32 0 0.58 0.32 0 0.6 0.32 0 0.62 0.32 0 0.64 0.32 0 0.66 0.32 0 0.68 0.32 0 0.7 0.32 0 0.72 0.32 0 0.74 0.32 0 0.76 0.32 0 0.78 0.32 0 0.8 0.32 0 0.82 0.32 0 0.84 0.32 0 0.86 0.32 0 0.88 0.32 0 0.9 0.32 0 0.92 0.32 0 0.94 0.
[...]
			<PointData Scalars="VitesseX">
				<DataArray Name="VitesseX" type="Float32" format="ascii">
 0 0 0 0 0 0 0 0 0 0 0 0 0 0 0 0 0 0 0 0 0 0 0 0 0 0 0 0 0 0 0 0 0 0 0 0 0 0 0 0 0 0 0 0 0 0 0 0 0 0 0 0 0.000302796 0.00120627 0.00269633 0.00474918 0.00733239 0.0104052 0.013919 0.0178186 0.0220423 0.0265238 0.0311923 0.0359745 0.0407946 0.0455771 0.050247 0.0547307 0.0589574 0.0628605 0.0663786 0.0694561 0.0720446 0.0741031 0.0755991 0.0765146 0.0768172 0.0765187 0.0756216 0.0741285 0.0720768 0.069494 0.0664207 0.0629054 0.0590036 0.0547767 0.0502915 0.0456188 0.0408323 0.0360079 0.0312212 0.0265477 0.0220613 0.017833 0.0139295 0.0104122 0.00733679 0.00475164 0.00269752 0.00120678 0.000302868 3.28581e-27 0 0.000600611 0.00239214 0.00534664 0.00941589 0.0145353 0.0206238 0.0275851 0.0353095 0.0436756 0.0525518 0.0617989 0.071272 0.0808209 0.0902971 0.0995541 0.108445 0.116831 0.12458 0.13157 0.137691 0.142846 0.146953 0.149948 0.151804 0.152421 0.151867 0.150126 0.147185 0.143141 0.138038 0.131956 0.124992 0.117254 0.108866 0.0999607 0.0906783 0.0811664 0.0715772 0.0620609 0.052768 0.043847 0.0354393 0.0276781 0.0206861 0.0145735 0.00943666 0.00535612 0.00239563 0.000601078 6.51944e-27 0 0.000888779 0.00353914 0.00790975 0.013928 0.0214979 0.0304991 0.0407892 0.0522061 0.0645704 0.0776885 0.0913552 0.105357 0.119472 0.133482 0.147172 0.160326 0.172738 0.184214 0.194573 0.203652 0.211308 0.217418 0.221885 0.224684 0.225616 0.224844 0.222308 0.217976 0.212018 0.204487 0.195502 0.185205 0.173756 0.161339 0.14815 0.134398 0.120303 0.106092 0.0919857 0.0782087 0.0649828 0.0525182 0.0410128 0.0306487 0.0215895 0.0139777 0.00793235 0.00354734 0.000889873 9.64981e-27 0 0.00116276 0.00462923 0.0103453 0.0182143 0.0281103 0.0398753 0.053323 0.0682418 0.0843974 0.101538 0.119395 0.137692 0.156137 0.174449 0.19235 0.209555 0.225797 0.240823 0.254395 0.266301 0.276352 0.284386 0.290276 0.294005 0.295249 0.294301 0.291031 0.285393 0.277632 0.267807 0.256072 0.24261 0.227635 0.211384 0.194115 0.176104 0.157638 0.139017 0.120532 0.102476 0.0851411 0.0688047 0.0537263 0.040145 0.0282753 0.0183038 0.0103859 0.00464384 0.00116471 1.26276e-26 0 0.00141826 0.00564529 0.012615 0.0222075 0.0342684 0.0486047 0.0649892 0.0831638 0.102844 0.123723 0.145476 0.167766 0.190239 0.212554 0.234375 0.255357 0.275173 0.293514 0.310093 0.324649 0.336951 0.346802 0.354042 0.35867 0.360219 0.35914 0.355208 0.348372 0.338949 0.326999 0.31271 0.296304 0.278042 0.258212 0.237132 0.215138 0.192583 0.169836 0.147251 0.125187 0.104004 0.0840421 0.0656181 0.0490252 0.0345256 0.0223468 0.012678 0.00566783 0.00142126 1.54061e-26 0 0.00165125 0.00657138 0.0146831 0.0258446 0.0398752 0.0565499 0.0756039 0.0967371 0.11962 0.143895 0.169187 0.195106 0.22124 0.247197 0.272587 0.297009 0.320085 0.341457 0.360788 0.377775 0.392149 0.403678 0.412174 0.417655 0.419504 0.418338 0.413828 0.405919 0.395001 0.38113 0.364523 0.345438 0.324179 0.301084 0.276521 0.250885 0.224588 0.198062 0.171721 0.145985 0.121275 0.0979902 0.076501 0.0571496 0.0402418 0.0260428 0.0147726 0.00660316 0.00165548 1.79415e-26 0 0.00185809 0.00739299 0.0165171 0.0290684 0.0448426 0.0635857 0.0849999 0.108748 0.13446 0.161736 0.190156 0.219282 0.248653 0.277831 0.306382 0.333855 0.359826 0.383893 0.405679 0.42484 0.441074 0.454119 0.463758 0.470025 0.472169 0.470954 0.465961 0.457124 0.444901 0.429342 0.41069 0.389237 0.36532 0.339323 0.311662 0.282782 0.253147 0.22325 0.193555 0.16454 0.136682 0.110429 0.0862033 0.0643898 0.0453338 0.0293337 0.0166366 0.00743508 0.00186367 2.01941e-26 0 0.00203552 0.00809724 0.0180883 0.0318281 0.0490922 0.0696016 0.0930295 0.119008 0.147132 0.176966 0.208052 0.239913 0.272045 0.303974 0.335228 0.365314 0.39377 0.420156 0.44406 0.465104 0.482954 0.497323 0.507974 0.51495 0.517383 0.516157 0.510786 0.50118 0.487863 0.470877 0.450489 0.427013 0.400819 0.37233 0.342002 0.310325 0.277812 0.245003 0.212412 0.180561 0.14998 0.121163 0.0945724 0.0706319 0.0497213 0.0321675 0.0182407 0.00815047 0.00204256 2.21286e-26 0 0.00218076 0.00867311 0.0193718 0.0340805 0.0525572 0.0745027 0.0995665 0.127355 0.157436 0.189344 0.222593 0.256673 0.291049 0.325216 0.358672 0.390892 0.421383 0.449673 0.475322 0.497928 0.517127 0.532611 0.544125 0.551718 0.554435 0.553228 0.547595 0.537391 0.523206 0.505077 0.483283 0.458165 0.430115 0.399582 0.367065 0.333085 0.298195 0.26298 0.227993 0.193798 0.160964 0.130023 0.101476 0.0757777 0.0533353 0.0344997 0.0195595 0.00873805 0.00218933 2.37145e-26 0 0.00229155 0.00911161 0.0203477 0.0357901 0.0551834 0.0782123 0.104508 0.133658 0.16521 0.198677 0.23355 0.269301 0.305367 0.341221 0.376344 0.410185 0.442228 0.471978 0.498973 0.522793 0.543055 0.559428 0.571642 0.579746 0.582741 0.58158 0.575808 0.565186 0.550379 0.531408 0.508565 0.482208 0.452748 0.420656 0.386457 0.350702 0.313977 0.276899 0.240055 0.204041 0.16946 0.136871 0.106806 0.0797462 0.0561188 0.0362933 0.0205723 0.00918856 0.00230167 2.4927e-26 0 0.00236645 0.00940826 0.0210082 0.0369477 0.0569619 0.0807244 0.107854 0.137926 0.170472 0.204995 0.240967 0.277847 0.315055 0.352052 0.388306 0.423249 0.456342 0.487081 0.514993 0.539635 0.560613 0.577583 0.590262 0.598703 0.601864 0.600763 0.594978 0.584124 0.568948 0.549453 0.525935 0.49876 0.468355 0.435214 0.399868 0.362893 0.324903 0.286539 0.248407 0.211126 0.175332 0.1416 0.110479 0.0824743 0.0580277 0.0375201 0.0212631 0.00949488 0.00237781 2.57473e-26 0 0.00240305 0.0095489 0.0213121 0.0374652 0.0577358 0.0817903 0.109243 0.139662 0.172579 0.207491 0.243872 0.281177 0.318828 0.356288 0.393022 0.428453 0.462051 0.493309 0.521745 0.546906 0.568393 0.585861 0.599007 0.607849 0.611474 0.61052 0.604964 0.594136 0.578918 0.559274 0.535504 0.507975 0.47712 0.443445 0.407495 0.369852 0.33115 0.292049 0.253175 0.21516 0.178655 0.144256 0.112528 0.0839826 0.0590709 0.0381817 0.02163 0.00965499 0.0024169 2.61624e-26 0 0.00240303 0.0095486 0.0213105 0.0374607 0.0577259 0.0817714 0.109211 0.139613 0.172511 0.2074 0.243757 0.281039 0.318672 0.356121 0.392847 0.428276 0.461885 0.493159 0.521615 0.546802 0.568318 0.585813 0.598982 0.607839 0.611473 0.610522 0.604974 0.594158 0.578954 0.559326 0.535574 0.508062 0.47722 0.443552 0.407601 0.369958 0.331251 0.292133 0.253243 0.215216 0.178696 0.144287 0.11255 0.0839952 0.0590776 0.0381847 0.0216311 0.00965521 0.00241692 2.61659e-26 0 0.002364 0.0093891 0.0209444 0.036801 0.0566866 0.0802697 0.107171 0.136968 0.169203 0.203388 0.239013 0.27555 0.312454 0.349189 0.385231 0.420043 0.453103 0.483906 0.511981 0.536894 0.558242 0.575669 0.588876 0.597832 0.601808 0.60109 0.59616 0.585826 0.571173 0.552112 0.528926 0.501974 0.471678 0.438532 0.403079 0.365914 0.327661 0.28897 0.250485 0.21284 0.176685 0.142626 0.111213 0.0829623 0.0583247 0.037678 0.0213316 0.00951563 0.00238042 2.57577e-26 0 0.002288 0.00908372 0.0202548 0.0355757 0.0547799 0.0775446 0.103503 0.132247 0.163338 0.196307 0.230665 0.265906 0.301522 0.336989 0.371805 0.405464 0.437459 0.467306 0.494557 0.518783 0.539592 0.556641 0.569632 0.578492 0.582665 0.582043 0.577452 0.567559 0.553487 0.535132 0.512761 0.486718 0.457417 0.425336 0.390994 0.354966 0.317868 0.280337 0.242997 0.206463 0.171373 0.138315 0.107837 0.0804318 0.0565339 0.0365134 0.0206677 0.00921735 0.00230528 2.49442e-26 0 0.00217585 0.00863451 0.0192435 0.0337841 0.0519991 0.0735797 0.0981768 0.125404 0.154849 0.18607 0.218606 0.25199 0.28574 0.319364 0.352407 0.384375 0.414797 0.443225 0.469226 0.492392 0.512353 0.528771 0.541358 0.550002 0.55434 0.553889 0.549862 0.540665 0.527488 0.510198 0.489048 0.464358 0.436525 0.406001 0.37329 0.338941 0.303536 0.267699 0.232033 0.197126 0.163596 0.132009 0.102893 0.076717 0.053903 0.0348016 0.0196903 0.00877752 0.00219429 2.37383e-26 0 0.00202932 0.00804851 0.0179265 0.0314544 0.048388 0.0684374 0.091277 0.116549 0.143871 0.172838 0.203026 0.234019 0.265363 0.296599 0.327336 0.357106 0.385477 0.412041 0.43639 0.458146 0.476954 0.492499 0.504508 0.51282 0.517279 0.51703 0.513651 0.505315 0.493257 0.477323 0.45774 0.434805 0.408879 0.380386 0.349809 0.317672 0.284517 0.250925 0.217479 0.184739 0.153285 0.123657 0.0963487 0.0718089 0.0504337 0.0325462 0.0184047 0.00819997 0.00204878 2.21588e-26 0 0.0018507 0.00733488 0.0163244 0.0286231 0.0440035 0.0621987 0.0829119 0.105819 0.130576 0.15682 0.184171 0.212266 0.240699 0.269054 0.296989 0.324089 0.349966 0.374248 0.396571 0.416582 0.433954 0.448404 0.459671 0.467543 0.472066 0.472054 0.469392 0.462071 0.451339 0.437024 0.419326 0.398511 0.374908 0.348906 0.320938 0.291499 0.261101 0.230278 0.199569 0.169496 0.140602 0.113387 0.0883124 0.0657915 0.0461812 0.0297829 0.0168313 0.00749382 0.00187105 2.02305e-26 0 0.00164279 0.00650478 0.0144624 0.0253348 0.0389144 0.0549618 0.0732132 0.0933834 0.115173 0.138267 0.162337 0.187075 0.212137 0.237161 0.261848 0.285845 0.308822 0.330446 0.350397 0.368354 0.384038 0.397192 0.407553 0.41491 0.419355 0.41974 0.417736 0.41163 0.402396 0.389939 0.374415 0.356053 0.335146 0.31204 0.287128 0.260846 0.233668 0.206084 0.178584 0.151639 0.12575 0.101367 0.0789079 0.0587482 0.0412068 0.0265548 0.0149948 0.00667021 0.00166391 1.79836e-26 0 0.00140885 0.00557123 0.0123697 0.0216412 0.0332009 0.0468405 0.0623336 0.0794384 0.0979049 0.117472 0.137871 0.158847 0.180128 0.201416 0.222461 0.242976 0.262688 0.281316 0.29859 0.314232 0.328003 0.339663 0.348974 0.355746 0.359976 0.360949 0.35948 0.354802 0.347205 0.336815 0.323717 0.308103 0.290222 0.270373 0.248901 0.226189 0.202651 0.178725 0.154855 0.131453 0.108961 0.0877816 0.0682845 0.0507947 0.0355938 0.0229138 0.0129242 0.00574213 0.00143062 1.54534e-26 0 0.00115256 0.00454887 0.0100792 0.0176003 0.0269529 0.0379626 0.050444 0.0642033 0.0790435 0.0947623 0.111158 0.128033 0.145181 0.162385 0.179449 0.196159 0.212296 0.22764 0.241973 0.255072 0.266726 0.276723 0.284862 0.290966 0.294953 0.296478 0.295643 0.292447 0.286634 0.278489 0.268033 0.255418 0.240845 0.224564 0.206864 0.188071 0.168535 0.148632 0.128754 0.109252 0.0904996 0.0728477 0.0566097 0.0420594 0.0294326 0.0189177 0.0106521 0.00472423 0.00117484 1.26796e-26 0 0.000877938 0.00345373 0.00762711 0.0132758 0.0202688 0.0284681 0.0377319 0.047918 0.058886 0.0704966 0.0826164 0.0951115 0.107847 0.120687 0.133493 0.14613 0.158441 0.170267 0.181446 0.191801 0.201164 0.209365 0.216226 0.221589 0.225317 0.227332 0.227241 0.225542 0.221636 0.215876 0.208238 0.198826 0.187794 0.175335 0.161681 0.147093 0.131861 0.116287 0.100695 0.0853855 0.0706611 0.0568033 0.0440675 0.0326772 0.0228163 0.0146282 0.00821451 0.00363256 0.000900628 9.7058e-27 0 0.00058931 0.00230304 0.00505187 0.00873594 0.013254 0.0185065 0.0243979 0.0308394 0.0377501 0.0450566 0.0526926 0.0605973 0.0687115 0.0769751 0.0853214 0.0936791 0.101969 0.110092 0.117947 0.125402 0.132348 0.138648 0.144146 0.148708 0.152204 0.154498 0.155477 0.15505 0.153266 0.149965 0.145273 0.13922 0.131904 0.123462 0.114063 0.103904 0.0932038 0.0821961 0.0711249 0.0602345 0.0497552 0.039898 0.0308567 0.0227969 0.0158501 0.0101134 0.00564978 0.00248435 0.000612287 6.57867e-27 0 0.000291215 0.00111491 0.00239424 0.00405251 0.00601979 0.00823622 0.0106544 0.0132403 0.0159743 0.0188496 0.02187 0.0250495 0.0284041 0.0319478 0.0356915 0.0396398 0.0437778 0.0480762 0.0524874 0.0569355 0.0613717 0.0656887 0.0697597 0.073471 0.0767035 0.0793122 0.08121 0.082313 0.0825019 0.0818038 0.0801352 0.0775379 0.0740553 0.0697623 0.0647625 0.0591838 0.0531743 0.0468945 0.0405106 0.0341961 0.0281125 0.0223997 0.017185 0.0125744 0.00864458 0.00544493 0.00299844 0.00129772 0.000314368 3.34744e-27 0 -1.1567e-05 -9.13475e-05 -0.000302136 -0.000696923 -0.00131354 -0.00217136 -0.00326915 -0.00458534 -0.00607789 -0.00768604 -0.00933577 -0.0109392 -0.0124033 -0.0136386 -0.0145583 -0.0150839 -0.0151595 -0.0147485 -0.013837 -0.0124416 -0.0105844 -0.00831734 -0.00572869 -0.00292032 -4.82976e-07 0.00291934 0.00572677 0.00830948 0.0105718 0.0124341 0.0138385 0.0147504 0.01516 0.0150834 0.0145569 0.0136393 0.0124055 0.0109401 0.00933371 0.00768235 0.00607651 0.00458529 0.00326907 0.00217129 0.00131355 0.000696465 0.000302303 9.137e-05 1.15667e-05 6.29813e-29 0 -0.000314368 -0.0012977 -0.00299828 -0.00544543 -0.00864468 -0.0125744 -0.017185 -0.0223995 -0.028114 -0.0342011 -0.0405138 -0.0468926 -0.0531722 -0.0591825 -0.0647633 -0.0697623 -0.0740536 -0.0775354 -0.0801327 -0.0818024 -0.0825056 -0.082318 -0.0812111 -0.0793119 -0.076704 -0.0734736 -0.0697629 -0.0656947 -0.0613871 -0.0569526 -0.0524879 -0.0480747 -0.0437766 -0.0396396 -0.0356927 -0.0319473 -0.0284025 -0.0250488 -0.0218707 -0.0188519 -0.0159756 -0.0132407 -0.0106545 -0.00823632 -0.00602 -0.00405303 -0.0023941 -0.00111489 -0.000291216 -3.22296e-27 0 -0.000612287 -0.00248433 -0.0056496 -0.0101137 -0.0158501 -0.0227968 -0.0308563 -0.0398972 -0.0497556 -0.0602393 -0.0711276 -0.082192 -0.0932018 -0.103902 -0.114062 -0.123463 -0.131903 -0.139217 -0.145276 -0.149971 -0.153269 -0.155053 -0.155481 -0.1545 -0.152204 -0.14871 -0.144146 -0.138647 -0.132354 -0.125407 -0.117944 -0.110091 -0.101967 -0.0936789 -0.085322 -0.0769743 -0.068711 -0.0605964 -0.0526917 -0.0450573 -0.0377507 -0.0308398 -0.0243985 -0.0185067 -0.0132538 -0.00873622 -0.00505178 -0.00230301 -0.00058931 -6.45857e-27 0 -0.000900628 -0.00363254 -0.00821427 -0.0146281 -0.0228161 -0.0326771 -0.0440674 -0.0568026 -0.0706613 -0.0853882 -0.100697 -0.116285 -0.13186 -0.147091 -0.161679 -0.175338 -0.187798 -0.198825 -0.208239 -0.215879 -0.221639 -0.225548 -0.227244 -0.227334 -0.225319 -0.22159 -0.216222 -0.209356 -0.201159 -0.191799 -0.181443 -0.170266 -0.15844 -0.146132 -0.133497 -0.120689 -0.107847 -0.0951097 -0.0826142 -0.070495 -0.058884 -0.0479176 -0.0377327 -0.0284683 -0.0202683 -0.013276 -0.00762709 -0.0034537 -0.000877938 -9.59275e-27 0 -0.00117484 -0.00472421 -0.0106518 -0.0189174 -0.0294327 -0.0420594 -0.0566096 -0.0728487 -0.0905008 -0.109252 -0.128757 -0.148636 -0.168535 -0.18807 -0.206863 -0.224566 -0.240851 -0.255419 -0.268031 -0.278485 -0.286633 -0.292449 -0.295644 -0.296479 -0.294959 -0.290964 -0.284849 -0.276713 -0.26673 -0.255078 -0.241976 -0.227642 -0.212297 -0.196161 -0.179452 -0.162387 -0.145182 -0.128035 -0.111158 -0.0947584 -0.079038 -0.0642017 -0.0504443 -0.0379629 -0.0269528 -0.0176008 -0.0100793 -0.00454882 -0.00115256 -1.2576e-26 0 -0.00143062 -0.00574211 -0.0129239 -0.0229139 -0.0355955 -0.0507954 -0.0682843 -0.0877818 -0.108961 -0.131452 -0.154857 -0.178727 -0.202651 -0.22619 -0.2489 -0.270372 -0.290223 -0.308106 -0.323719 -0.336817 -0.347206 -0.354803 -0.359482 -0.360951 -0.35998 -0.355749 -0.348969 -0.33966 -0.328014 -0.314242 -0.29859 -0.281316 -0.262688 -0.242978 -0.222461 -0.201414 -0.180128 -0.158852 -0.137874 -0.117465 -0.0978957 -0.0794357 -0.0623335 -0.0468411 -0.033201 -0.0216418 -0.0123699 -0.00557118 -0.00140885 -1.53612e-26 0 -0.00166391 -0.0066702 -0.0149945 -0.0265545 -0.0412071 -0.058747 -0.0789078 -0.101367 -0.125749 -0.151639 -0.178583 -0.206084 -0.233671 -0.260849 -0.287127 -0.312038 -0.335144 -0.356054 -0.374416 -0.389937 -0.402392 -0.411627 -0.417735 -0.41974 -0.419356 -0.414914 -0.407557 -0.397197 -0.384049 -0.36836 -0.350393 -0.330443 -0.308821 -0.285846 -0.261846 -0.237158 -0.212132 -0.187077 -0.16234 -0.138257 -0.115159 -0.0933791 -0.0732136 -0.0549627 -0.0389144 -0.0253355 -0.0144627 -0.00650473 -0.00164278 -1.79041e-26 0 -0.00187105 -0.00749382 -0.016831 -0.0297819 -0.0461793 -0.0657891 -0.088312 -0.113388 -0.140603 -0.169495 -0.199567 -0.230276 -0.261102 -0.291506 -0.320947 -0.348905 -0.374904 -0.398509 -0.419324 -0.43702 -0.451333 -0.462066 -0.469389 -0.472054 -0.472066 -0.467543 -0.459674 -0.448414 -0.433963 -0.416583 -0.396569 -0.374249 -0.349968 -0.324089 -0.296988 -0.269054 -0.240692 -0.212265 -0.184172 -0.156808 -0.130559 -0.105813 -0.0829126 -0.0621997 -0.0440034 -0.0286239 -0.0163249 -0.00733482 -0.0018507 -2.01646e-26 0 -0.00204878 -0.00819998 -0.0184046 -0.0325451 -0.0504333 -0.0718104 -0.0963484 -0.123657 -0.153286 -0.184738 -0.217477 -0.250921 -0.284511 -0.317674 -0.349822 -0.380398 -0.408889 -0.434804 -0.457732 -0.477322 -0.49326 -0.505315 -0.51365 -0.51703 -0.517279 -0.512823 -0.504513 -0.492505 -0.476957 -0.458145 -0.43639 -0.412043 -0.385481 -0.357104 -0.327333 -0.2966 -0.265359 -0.234018 -0.203024 -0.172826 -0.143855 -0.116544 -0.0912778 -0.0684386 -0.0483883 -0.0314555 -0.0179272 -0.00804847 -0.00202932 -2.21068e-26 0 -0.00219429 -0.00877753 -0.0196902 -0.0348005 -0.0539022 -0.0767159 -0.102891 -0.13201 -0.163598 -0.197127 -0.232032 -0.267695 -0.303531 -0.338936 -0.37329 -0.40601 -0.436542 -0.46437 -0.489052 -0.510205 -0.527493 -0.540665 -0.549861 -0.55389 -0.554341 -0.550005 -0.541363 -0.528774 -0.512354 -0.492393 -0.469227 -0.443226 -0.414797 -0.384371 -0.352404 -0.319363 -0.285743 -0.251995 -0.218601 -0.186056 -0.154837 -0.125404 -0.098178 -0.0735812 -0.0520001 -0.0337858 -0.0192443 -0.00863448 -0.00217585 -2.36999e-26 0 -0.00230528 -0.00921735 -0.0206676 -0.0365126 -0.0565315 -0.0804287 -0.107836 -0.138316 -0.171376 -0.206467 -0.242999 -0.280336 -0.317862 -0.35496 -0.390987 -0.425331 -0.457419 -0.486724 -0.512769 -0.53514 -0.553493 -0.567562 -0.577452 -0.582044 -0.582666 -0.578494 -0.569633 -0.556641 -0.539592 -0.518783 -0.494558 -0.467306 -0.437455 -0.405462 -0.371806 -0.336984 -0.301524 -0.265912 -0.230659 -0.196293 -0.163329 -0.132248 -0.103504 -0.0775462 -0.0547814 -0.0355779 -0.0202557 -0.0090837 -0.002288 -2.49185e-26 0 -0.00238042 -0.00951564 -0.0213316 -0.0376775 -0.0583227 -0.0829601 -0.11121 -0.142622 -0.176689 -0.212847 -0.250493 -0.288974 -0.327658 -0.365912 -0.403076 -0.438527 -0.471674 -0.501971 -0.528926 -0.552113 -0.571175 -0.585828 -0.59616 -0.60109 -0.601808 -0.597832 -0.588876 -0.575668 -0.558241 -0.536894 -0.511982 -0.483903 -0.453099 -0.420042 -0.385231 -0.349184 -0.312454 -0.275552 -0.239008 -0.203378 -0.169196 -0.136967 -0.107171 -0.080271 -0.0566882 -0.0368034 -0.0209454 -0.00938909 -0.002364 -2.57434e-26 0 -0.00241692 -0.00965523 -0.0216312 -0.0381845 -0.059076 -0.0839915 -0.112545 -0.144284 -0.178696 -0.21522 -0.253253 -0.292141 -0.331254 -0.369961 -0.407601 -0.443551 -0.47722 -0.508059 -0.535573 -0.559326 -0.578952 -0.594158 -0.604975 -0.610522 -0.611473 -0.607839 -0.598981 -0.585813 -0.568319 -0.5468 -0.521611 -0.493157 -0.461884 -0.428276 -0.392844 -0.356122 -0.318677 -0.28104 -0.243754 -0.207394 -0.172507 -0.139613 -0.109211 -0.081772 -0.0577268 -0.0374625 -0.0213112 -0.00954861 -0.00240302 -2.61614e-26 0 -0.0024169 -0.00965499 -0.0216301 -0.0381817 -0.0590699 -0.0839797 -0.112525 -0.144253 -0.178651 -0.21516 -0.253178 -0.292054 -0.331155 -0.369856 -0.407495 -0.443448 -0.477124 -0.507975 -0.535503 -0.559273 -0.578916 -0.594136 -0.604965 -0.61052 -0.611474 -0.607849 -0.599008 -0.585861 -0.568395 -0.546904 -0.521741 -0.493308 -0.462051 -0.428452 -0.39302 -0.356291 -0.318832 -0.281178 -0.24387 -0.207489 -0.172579 -0.139662 -0.109243 -0.0817902 -0.0577359 -0.0374662 -0.0213124 -0.00954891 -0.00240305 -2.61659e-26 0 -0.00237781 -0.00949488 -0.0212631 -0.0375202 -0.0580273 -0.0824724 -0.110475 -0.141593 -0.175326 -0.211125 -0.248407 -0.286539 -0.324903 -0.362895 -0.399867 -0.435214 -0.468357 -0.49876 -0.525935 -0.549453 -0.568947 -0.584123 -0.594978 -0.600763 -0.601864 -0.598703 -0.590263 -0.577584 -0.560613 -0.539635 -0.514993 -0.487081 -0.45634 -0.423246 -0.388307 -0.352055 -0.315056 -0.277846 -0.240965 -0.204993 -0.170473 -0.137926 -0.107855 -0.0807242 -0.0569621 -0.0369483 -0.0210082 -0.00940825 -0.00236645 -2.57567e-26 0 -0.00230167 -0.00918856 -0.0205723 -0.0362934 -0.0561187 -0.0797452 -0.106804 -0.136869 -0.169456 -0.204039 -0.240056 -0.276899 -0.313974 -0.3507 -0.386455 -0.420657 -0.452747 -0.482208 -0.508568 -0.531411 -0.550379 -0.565186 -0.575808 -0.581579 -0.582741 -0.579746 -0.571643 -0.55943 -0.543055 -0.522793 -0.498973 -0.471975 -0.442225 -0.410184 -0.376343 -0.341221 -0.305366 -0.2693 -0.233549 -0.198676 -0.165209 -0.133658 -0.104508 -0.0782123 -0.055184 -0.0357906 -0.0203476 -0.00911159 -0.00229155 -2.49403e-26 0 -0.0021893