<?xml version="1.0"?>
<VTKFile type="PolyData">
	<PolyData>
		<Piece NumberOfPoints="1206" NumberOfPolys="1000">
			<Points>
				<DataArray type="Float32" NumberOfComponents="3" format="ascii">
 0 0 0 0.005 0 0 0.01 0 0 0.015 0 0 0.02 0 0 0.025 0 0 0.03 0 0 0.035 0 0 0.04 0 0 0.045 0 0 0.05 0 0 0.055 0 0 0.06 0 0 0.065 0 0 0.07 0 0 0.075 0 0 0.08 0 0 0.085 0 0 0.09 0 0 0.095 0 0 0.1 0 0 0.105 0 0 0.11 0 0 0.115 0 0 0.12 0 0 0.125 0 0 0.13 0 0 0.135 0 0 0.14 0 0 0.145 0 0 0.15 0 0 0.155 0 0 0.16 0 0 0.165 0 0 0.17 0 0 0.175 0 0 0.18 0 0 0.185 0 0 0.19 0 0 0.195 0 0 0.2 0 0 0.205 0 0 0.21 0 0 0.215 0 0 0.22 0 0 0.225 0 0 0.23 0 0 0.235 0 0 0.24 0 0 0.245 0 0 0.25 0 0 0.255 0 0 0.26 0 0 0.265 0 0 0.27 0 0 0.275 0 0 0.28 0 0 0.285 0 0 0.29 0 0 0.295 0 0 0.3 0 0 0.305 0 0 0.31 0 0 0.315 0 0 0.32 0 0 0.325 0 0 0.33 0 0 0.335 0 0 0.34 0 0 0.345 0 0 0.35 0 0 0.355 0 0 0.36 0 0 0.365 0 0 0.37 0 0 0.375 0 0 0.38 0 0 0.385 0 0 0.39 0 0 0.395 0 0 0.4 0 0 0.405 0 0 0.41 0 0 0.415 0 0 0.420001 0 0 0.425007 0 0 0.43003 0 0 0.435105 0 0 0.440301 0 0 0.445715 0 0 0.451452 0 0 0.457617 0 0 0.464318 0 0 0.471683 0 0 0.479882 0 0 0.489138 0 0 0.499724 0 0 0.511797 0 0 0.52452 0 0 0.53681 0 0 0.548815 0 0 0.551115 0 0 0.553416 0 0 0.555715 0 0 0.558014 0 0 0.560312 0 0 0.562608 0 0 0.564902 0 0 0.567195 0 0 0.569489 0 0 0.571782 0 0 0.574092 0 0 0.576429 0 0 0.578831 0 0 0.58134 0 0 0.583943 0 0 0.586767 0 0 0.58982 0 0 0.593205 0 0 0.596945 0 0 0.601058 0 0 0.605506 0 0 0.610211 0 0 0.615078 0 0 0.620026 0 0 0.625008 0 0 0.630003 0 0 0.635001 0 0 0.64 0 0 0.645 0 0 0.65 0 0 0.655 0 0 0.66 0 0 0.665 0 0 0.67 0 0 0.675 0 0 0.68 0 0 0.685 0 0 0.69 0 0 0.695 0 0 0.7 0 0 0.705 0 0 0.71 0 0 0.715 0 0 0.72 0 0 0.725 0 0 0.73 0 0 0.735 0 0 0.74 0 0 0.745 0 0 0.75 0 0 0.755 0 0 0.76 0 0 0.765 0 0 0.77 0 0 0.775 0 0 0.78 0 0 0.785 0 0 0.79 0 0 0.795 0 0 0.8 0 0 0.805 0 0 0.81 0 0 0.815 0 0 0.82 0 0 0.825 0 0 0.83 0 0 0.835 0 0 0.84 0 0 0.845 0 0 0.85 0 0 0.855 0 0 0.86 0 0 0.865 0 0 0.87 0 0 0.875 0 0 0.88 0 0 0.885 0 0 0.89 0 0 0.895 0 0 0.9 0 0 0.905 0 0 0.91 0 0 0.915 0 0 0.92 0 0 0.925 0 0 0.93 0 0 0.935 0 0 0.94 0 0 0.945 0 0 0.95 0 0 0.955 0 0 0.96 0 0 0.965 0 0 0.97 0 0 0.975 0 0 0.98 0 0 0.985 0 0 0.99 0 0 0.995 0 0 1 0 0 0 0.02 0 0.005 0.02 0 0.01 0.02 0 0.015 0.02 0 0.02 0.02 0 0.025 0.02 0 0.03 0.02 0 0.035 0.02 0 0.04 0.02 0 0.045 0.02 0 0.05 0.02 0 0.055 0.02 0 0.06 0.02 0 0.065 0.02 0 0.07 0.02 0 0.075 0.02 0 0.08 0.02 0 0.085 0.02 0 0.09 0.02 0 0.095 0.02 0 0.1 0.02 0 0.105 0.02 0 0.11 0.02 0 0.115 0.02 0 0.12 0.02 0 0.125 0.02 0 0.13 0.02 0 0.135 0.02 0 0.14 0.02 0 0.145 0.02 0 0.15 0.02 0 0.155 0.02 0 0.16 0.02 0 0.165 0.02 0 0.17 0.02 0 0.175 0.02 0 0.18 0.02 0 0.185 0.02 0 0.19 0.02 0 0.195 0.02 0 0.2 0.02 0 0.205 0.02 0 0.21 0.02 0 0.215 0.02 0 0.22 0.02 0 0.225 0.02 0 0.23 0.02 0 0.235 0.02 0 0.24 0.02 0 0.245 0.02 0 0.25 0.02 0 0.255 0.02 0 0.26 0.02 0 0.265 0.02 0 0.27 0.02 0 0.275 0.02 0 0.28 0.02 0 0.285 0.02 0 0.29 0.02 0 0.295 0.02 0 0.3 0.02 0 0.305 0.02 0 0.31 0.02 0 0.315 0.02 0 0.32 0.02 0 0.325 0.02 0 0.33 0.02 0 0.335 0.02 0 0.34 0.02 0 0.345 0.02 0 0.35 0.02 0 0.355 0.02 0 0.36 0.02 0 0.365 0.02 0 0.37 0.02 0 0.375 0.02 0 0.38 0.02 0 0.385 0.02 0 0.39 0.02 0 0.395 0.02 0 0.4 0.02 0 0.405 0.02 0 0.41 0.02 0 0.415 0.02 0 0.420001 0.02 0 0.425007 0.02 0 0.43003 0.02 0 0.435105 0.02 0 0.440301 0.02 0 0.445715 0.02 0 0.451452 0.02 0 0.457617 0.02 0 0.464318 0.02 0 0.471683 0.02 0 0.479882 0.02 0 0.489138 0.02 0 0.499724 0.02 0 0.511797 0.02 0 0.52452 0.02 0 0.53681 0.02 0 0.548815 0.02 0 0.551115 0.02 0 0.553416 0.02 0 0.555715 0.02 0 0.558014 0.02 0 0.560312 0.02 0 0.562608 0.02 0 0.564902 0.02 0 0.567195 0.02 0 0.569489 0.02 0 0.571782 0.02 0 0.574092 0.02 0 0.576429 0.02 0 0.578831 0.02 0 0.58134 0.02 0 0.583943 0.02 0 0.586767 0.02 0 0.58982 0.02 0 0.593205 0.02 0 0.596945 0.02 0 0.601058 0.02 0 0.605506 0.02 0 0.610211 0.02 0 0.615078 0.02 0 0.620026 0.02 0 0.625008 0.02 0 0.630003 0.02 0 0.635001 0.02 0 0.64 0.02 0 0.645 0.02 0 0.65 0.02 0 0.655 0.02 0 0.66 0.02 0 0.665 0.02 0 0.67 0.02 0 0.675 0.02 0 0.68 0.02 0 0.685 0.02 0 0.69 0.02 0 0.695 0.02 0 0.7 0.02 0 0.705 0.02 0 0.71 0.02 0 0.715 0.02 0 0.72 0.02 0 0.725 0.02 0 0.73 0.02 0 0.735 0.02 0 0.74 0.02 0 0.745 0.02 0 0.75 0.02 0 0.755 0.02 0 0.76 0.02 0 0.765 0.02 0 0.77 0.02 0 0.775 0.02 0 0.78 0.02 0 0.785 0.02 0 0.79 0.02 0 0.795 0.02 0 0.8 0.02 0 0.805 0.02 0 0.81 0.02 0 0.815 0.02 0 0.82 0.02 0 0.825 0.02 0 0.83 0.02 0 0.835 0.02 0 0.84 0.02 0 0.845 0.02 0 0.85 0.02 0 0.855 0.02 0 0.86 0.02 0 0.865 0.02 0 0.87 0.02 0 0.875 0.02 0 0.88 0.02 0 0.885 0.02 0 0.89 0.02 0 0.895 0.02 0 0.9 0.02 0 0.905 0.02 0 0.91 0.02 0 0.915 0.02 0 0.92 0.02 0 0.925 0.02 0 0.93 0.02 0 0.935 0.02 0 0.94 0.02 0 0.945 0.02 0 0.95 0.02 0 0.955 0.02 0 0.96 0.02 0 0.965 0.02 0 0.97 0.02 0 0.975 0.02 0 0.98 0.02 0 0.985 0.02 0 0.99 0.02 0 0.995 0.02 0 1 0.02 0 0 0.04 0 0.005 0.04 0 0.01 0.04 0 0.015 0.04 0 0.02 0.04 0 0.025 0.04 0 0.03 0.04 0 0.035 0.04 0 0.04 0.04 0 0.045 0.04 0 0.05 0.04 0 0.055 0.04 0 0.06 0.04 0 0.065 0.04 0 0.07 0.04 0 0.075 0.04 0 0.08 0.04 0 0.085 0.04 0 0.09 0.04 0 0.095 0.04 0 0.1 0.04 0 0.105 0.04 0 0.11 0.04 0 0.115 0.04 0 0.12 0.04 0 0.125 0.04 0 0.13 0.04 0 0.135 0.04 0 0.14 0.04 0 0.145 0.04 0 0.15 0.04 0 0.155 0.04 0 0.16 0.04 0 0.165 0.04 0 0.17 0.04 0 0.175 0.04 0 0.18 0.04 0 0.185 0.04 0 0.19 0.04 0 0.195 0.04 0 0.2 0.04 0 0.205 0.04 0 0.21 0.04 0 0.215 0.04 0 0.22 0.04 0 0.225 0.04 0 0.23 0.04 0 0.235 0.04 0 0.24 0.04 0 0.245 0.04 0 0.25 0.04 0 0.255 0.04 0 0.26 0.04 0 0.265 0.04 0 0.27 0.04 0 0.275 0.04 0 0.28 0.04 0 0.285 0.04 0 0.29 0.04 0 0.295 0.04 0 0.3 0.04 0 0.305 0.04 0 0.31 0.04 0 0.315 0.04 0 0.32 0.04 0 0.325 0.04 0 0.33 0.04 0 0.335 0.04 0 0.34 0.04 0 0.345 0.04 0 0.35 0.04 0 0.355 0.04 0 0.36 0.04 0 0.365 0.04 0 0.37 0.04 0 0.375 0.04 0 0.38 0.04 0 0.385 0.04 0 0.39 0.04 0 0.395 0.04 0 0.4 0.04 0 0.405 0.04 0 0.41 0.04 0 0.415 0.04 0 0.420001 0.04 0 0.425007 0.04 0 0.43003 0.04 0 0.435105 0.04 0 0.440301 0.04 0 0.445715 0.04 0 0.451452 0.04 0 0.457617 0.04 0 0.464318 0.04 0 0.471683 0.04 0 0.479882 0.04 0 0.489138 0.04 0 0.499724 0.04 0 0.511797 0.04 0 0.52452 0.04 0 0.53681 0.04 0 0.548815 0.04 0 0.551115 0.04 0 0.553416 0.04 0 0.555715 0.04 0 0.558014 0.04 0 0.560312 0.04 0 0.562608 0.04 0 0.564902 0.04 0 0.567195 0.04 0 0.569489 0.04 0 0.571782 0.04 0 0.574092 0.04 0 0.576429 0.04 0 0.578831 0.04 0 0.58134 0.04 0 0.583943 0.04 0 0.586767 0.04 0 0.58982 0.04 0 0.593205 0.04 0 0.596945 0.04 0 0.601058 0.04 0 0.605506 0.04 0 0.610211 0.04 0 0.615078 0.04 0 0.620026 0.04 0 0.625008 0.04 0 0.630003 0.04 0 0.635001 0.04 0 0.64 0.04 0 0.645 0.04 0 0.65 0.04 0 0.655 0.04 0 0.66 0.04 0 0.665 0.04 0 0.67 0.04 0 0.675 0.04 0 0.68 0.04 0 0.685 0.04 0 0.69 0.04 0 0.695 0.04 0 0.7 0.04 0 0.705 0.04 0 0.71 0.04 0 0.715 0.04 0 0.72 0.04 0 0.725 0.04 0 0.73 0.04 0 0.735 0.04 0 0.74 0.04 0 0.745 0.04 0 0.75 0.04 0 0.755 0.04 0 0.76 0.04 0 0.765 0.04 0 0.77 0.04 0 0.775 0.04 0 0.78 0.04 0 0.785 0.04 0 0.79 0.04 0 0.795 0.04 0 0.8 0.04 0 0.805 0.04 0 0.81 0.04 0 0.815 0.04 0 0.82 0.04 0 0.825 0.04 0 0.83 0.04 0 0.835 0.04 0 0.84 0.04 0 0.845 0.04 0 0.85 0.04 0 0.855 0.04 0 0.86 0.04 0 0.865 0.04 0 0.87 0.04 0 0.875 0.04 0 0.88 0.04 0 0.885 0.04 0 0.89 0.04 0 0.895 0.04 0 0.9 0.04 0 0.905 0.04 0 0.91 0.04 0 0.915 0.04 0 0.92 0.04 0 0.925 0.04 0 0.93 0.04 0 0.935 0.04 0 0.94 0.04 0 0.945 0.04 0 0.95 0.04 0 0.955 0.04 0 0.96 0.04 0 0.965 0.04 0 0.97 0.04 0 0.975 0.04 0 0.98 0.04 0 0.985 0.04 0 0.99 0.04 0 0.995 0.04 0 1 0.04 0 0 0.06 0 0.005 0.06 0 0.01 0.06 0 0.015 0.06 0 0.02 0.06 0 0.025 0.06 0 0.03 0.06 0 0.035 0.06 0 0.04 0.06 0 0.045 0.06 0 0.05 0.06 0 0.055 0.06 0 0.06 0.06 0 0.065 0.06 0 0.07 0.06 0 0.075 0.06 0 0.08 0.06 0 0.085 0.06 0 0.09 0.06 0 0.095 0.06 0 0.1 0.06 0 0.105 0.06 0 0.11 0.06 0 0.115 0.06 0 0.12 0.06 0 0.125 0.06 0 0.13 0.06 0 0.135 0.06 0 0.14 0.06 0 0.145 0.06 0 0.15 0.06 0 0.155 0.06 0 0.16 0.06 0 0.165 0.06 0 0.17 0.06 0 0.175 0.06 0 0.18 0.06 0 0.185 0.06 0 0.19 0.06 0 0.195 0.06 0 0.2 0.06 0 0.205 0.06 0 0.21 0.06 0 0.215 0.06 0 0.22 0.06 0 0.225 0.06 0 0.23 0.06 0 0.235 0.06 0 0.24 0.06 0 0.245 0.06 0 0.25 0.06 0 0.255 0.06 0 0.26 0.06 0 0.265 0.06 0 0.27 0.06 0 0.275 0.06 0 0.28 0.06 0 0.285 0.06 0 0.29 0.06 0 0.295 0.06 0 0.3 0.06 0 0.305 0.06 0 0.31 0.06 0 0.315 0.06 0 0.32 0.06 0 0.325 0.06 0 0.33 0.06 0 0.335 0.06 0 0.34 0.06 0 0.345 0.06 0 0.35 0.06 0 0.355 0.06 0 0.36 0.06 0 0.365 0.06 0 0.37 0.06 0 0.375 0.06 0 0.38 0.06 0 0.385 0.06 0 0.39 0.06 0 0.395 0.06 0 0.4 0.06 0 0.405 0.06 0 0.41 0.06 0 0.415 0.06 0 0.420001 0.06 0 0.425007 0.06 0 0.43003 0.06 0 0.435105 0.06 0 0.440301 0.06 0 0.445715 0.06 0 0.451452 0.06 0 0.457617 0.06 0 0.464318 0.06 0 0.471683 0.06 0 0.479882 0.06 0 0.489138 0.06 0 0.499724 0.06 0 0.511797 0.06 0 0.52452 0.06 0 0.53681 0.06 0 0.548815 0.06 0 0.551115 0.06 0 0.553416 0.06 0 0.555715 0.06 0 0.558014 0.06 0 0.560312 0.06 0 0.562608 0.06 0 0.564902 0.06 0 0.567195 0.06 0 0.569489 0.06 0 0.571782 0.06 0 0.574092 0.06 0 0.576429 0.06 0 0.578831 0.06 0 0.58134 0.06 0 0.583943 0.06 0 0.586767 0.06 0 0.58982 0.06 0 0.593205 0.06 0 0.596945 0.06 0 0.601058 0.06 0 0.605506 0.06 0 0.610211 0.06 0 0.615078 0.06 0 0.620026 0.06 0 0.625008 0.06 0 0.630003 0.06 0 0.635001 0.06 0 0.64 0.06 0 0.645 0.06 0 0.65 0.06 0 0.655 0.06 0 0.66 0.06 0 0.665 0.06 0 0.67 0.06 0 0.675 0.06 0 0.68 0.06 0 0.685 0.06 0 0.69 0.06 0 0.695 0.06 0 0.7 0.06 0 0.705 0.06 0 0.71 0.06 0 0.715 0.06 0 0.72 0.06 0 0.725 0.06 0 0.73 0.06 0 0.735 0.06 0 0.74 0.06 0 0.745 0.06 0 0.75 0.06 0 0.755 0.06 0 0.76 0.06 0 0.765 0.06 0 0.77 0.06 0 0.775 0.06 0 0.78 0.06 0 0.785 0.06 0 0.79 0.06 0 0.795 0.06 0 0.8 0.06 0 0.805 0.06 0 0.81 0.06 0 0.815 0.06 0 0.82 0.06 0 0.825 0.06 0 0.83 0.06 0 0.835 0.06 0 0.84 0.06 0 0.845 0.06 0 0.85 0.06 0 0.855 0.06 0 0.86 0.06 0 0.865 0.06 0 0.87 0.06 0 0.875 0.06 0 0.88 0.06 0 0.885 0.06 0 0.89 0.06 0 0.895 0.06 0 0.9 0.06 0 0.905 0.06 0 0.91 0.06 0 0.915 0.06 0 0.92 0.06 0 0.925 0.06 0 
[...]
			<PointData Scalars="VitesseX">
				<DataArray Name="VitesseX" type="Float32" format="ascii">
 0 1.29558e-15 3.19878e-16 -9.58622e-16 2.54792e-15 -1.57562e-15 6.8956e-16 -6.34808e-16 -2.84399e-15 4.32776e-15 -8.31776e-16 -3.97305e-16 -5.7459e-15 -5.80648e-16 5.62286e-15 4.65105e-15 -9.82727e-15 1.45409e-15 6.66535e-15 1.11035e-14 -1.541e-14 1.16255e-15 -1.52535e-14 4.63899e-15 1.05962e-14 2.11821e-14 -2.46129e-14 2.19187e-14 -1.64759e-14 -6.82758e-15 2.11937e-14 1.49315e-14 -9.3593e-15 -1.00073e-14 1.29409e-14 5.63243e-15 -2.89379e-14 1.22985e-14 -9.50892e-15 1.46701e-14 -3.50935e-15 -1.14131e-14 8.8711e-15 -2.19185e-14 1.61656e-14 1.44456e-14 -2.3771e-14 1.21668e-14 4.85891e-15 7.13821e-15 -2.1923e-14 4.02851e-14 -1.68943e-14 3.72522e-14 4.94101e-15 3.02451e-15 -4.69229e-14 5.49582e-14 -1.74474e-15 -3.54118e-14 2.73973e-14 6.85102e-15 -1.96549e-14 4.78756e-14 -1.68122e-14 1.62087e-14 2.2586e-14 -3.24446e-14 1.86608e-14 2.45532e-14 -2.26482e-14 2.8566e-14 7.7225e-14 -6.8634e-14 8.0573e-14 6.6734e-13 1.13422e-11 1.57481e-10 1.98005e-09 2.22545e-08 2.22048e-07 1.94965e-06 1.49051e-05 9.79166e-05 0.000543595 0.00249774 0.00927776 0.027329 0.0637493 0.120907 0.195525 0.283372 0.382424 0.492652 0.614884 0.74921 0.889516 0.997825 0.977723 0.950331 0.937972 0.936647 0.935382 0.934097 0.93303 0.931684 0.930217 0.928628 0.927322 0.928463 0.925352 0.930323 0.900089 0.852103 0.87765 0.761159 0.734218 0.600408 0.495446 0.36122 0.23885 0.136052 0.0655894 0.0268813 0.00975728 0.00327806 0.00104629 0.000320757 9.47937e-05 2.70305e-05 7.43731e-06 1.97418e-06 5.05462e-07 1.24816e-07 2.9724e-08 6.82672e-09 1.5122e-09 3.23077e-10 6.66464e-11 1.32066e-11 2.57994e-12 4.60317e-13 1.1584e-13 2.38028e-14 3.77025e-14 2.0549e-14 -2.01718e-14 2.84887e-14 -8.36724e-14 7.92154e-14 3.48799e-14 -1.21594e-13 5.46553e-14 -3.61002e-14 8.77381e-14 -1.83677e-14 -3.42588e-14 1.07376e-13 -5.63133e-14 7.29197e-14 -1.64679e-14 1.16691e-13 4.24032e-14 -5.49682e-14 5.35818e-14 -4.64083e-14 -7.63304e-14 -9.64791e-15 -7.68006e-15 4.02153e-14 -5.66812e-14 -1.28139e-13 1.05765e-13 -2.08319e-14 -1.20717e-13 7.42192e-14 3.58849e-14 -1.04303e-13 3.4549e-14 5.47546e-14 -9.32091e-14 7.49486e-14 -9.92128e-14 2.24021e-14 -6.8325e-14 3.93757e-14 -8.9928e-14 3.90336e-14 -6.49907e-14 1.48559e-14 -2.50853e-14 -6.02443e-14 -1.99288e-14 -7.87023e-14 8.97371e-14 1.71871e-14 -1.20898e-13 1.22881e-13 4.86539e-14 -7.23734e-14 0 0 -5.18157e-16 -1.45967e-16 -1.57931e-15 -1.05921e-15 1.76919e-15 -9.23854e-16 -2.01273e-16 3.15255e-15 5.22987e-15 -6.12489e-15 -2.1361e-15 1.42158e-15 1.24083e-15 -1.42368e-16 7.44458e-15 -3.41771e-15 -5.62252e-15 1.03247e-14 -1.08582e-14 1.1401e-14 -1.28452e-14 -6.9681e-15 7.19181e-15 1.22155e-14 5.5737e-15 2.66678e-15 -1.03915e-16 -1.05885e-14 -7.50788e-15 1.87073e-14 3.47662e-15 1.11327e-14 -7.67908e-15 5.9572e-15 -2.69866e-14 2.16708e-14 1.62139e-15 -2.73942e-15 3.91608e-15 -1.92342e-15 -1.56324e-14 5.42365e-15 -9.21523e-16 8.10563e-15 -1.50053e-14 5.2046e-15 -3.54024e-15 2.95769e-15 1.53363e-14 -1.60889e-14 3.27213e-14 7.207e-15 -1.70734e-14 3.06256e-14 -3.92478e-15 8.55228e-15 1.57094e-14 -2.44867e-14 6.31924e-15 2.04065e-14 -8.41454e-15 1.8422e-14 -3.26682e-14 3.4839e-14 3.5102e-14 -2.99866e-14 2.03083e-14 -3.19e-14 1.25312e-14 2.50603e-14 1.52883e-14 1.83687e-14 5.51555e-14 2.92332e-14 6.73345e-13 1.13182e-11 1.5749e-10 1.98008e-09 2.22544e-08 2.22048e-07 1.94965e-06 1.49051e-05 9.79166e-05 0.000543595 0.00249774 0.00927776 0.027329 0.0637493 0.120907 0.195525 0.283372 0.382424 0.492652 0.614884 0.74921 0.889516 0.997825 0.977723 0.950331 0.937972 0.936647 0.935382 0.934097 0.93303 0.931684 0.930217 0.928628 0.927322 0.928463 0.925352 0.930323 0.900089 0.852103 0.87765 0.761159 0.734218 0.600408 0.495446 0.36122 0.23885 0.136052 0.0655894 0.0268813 0.00975728 0.00327806 0.00104629 0.000320757 9.47937e-05 2.70305e-05 7.43731e-06 1.97418e-06 5.05462e-07 1.24816e-07 2.97241e-08 6.8267e-09 1.51221e-09 3.23144e-10 6.65593e-11 1.33014e-11 2.56512e-12 4.824e-13 3.31719e-14 7.66035e-14 3.38252e-14 3.43279e-15 2.18611e-14 -6.22944e-14 5.56485e-14 5.93226e-15 -4.57598e-14 -9.68376e-15 6.45042e-15 2.81779e-14 6.09524e-14 -9.82535e-14 1.95019e-14 5.43236e-14 -2.91881e-14 5.45632e-14 1.1049e-13 -7.33426e-14 6.93448e-14 -4.21856e-14 3.78762e-14 -2.04212e-14 -6.44021e-15 -8.85689e-14 1.13363e-13 -1.11899e-13 3.85032e-14 -9.77367e-14 1.50356e-14 2.65122e-14 9.90662e-15 7.49724e-15 4.82926e-15 -5.40743e-14 2.32576e-14 -1.36624e-13 8.09871e-14 -6.17062e-14 -5.33324e-15 -2.49884e-15 9.13639e-15 -2.15488e-15 -9.57149e-14 -9.92319e-15 -3.43173e-14 1.23549e-14 -1.40704e-14 -4.22306e-14 -9.89124e-14 3.12541e-14 -2.23532e-14 -6.12371e-14 1.18756e-13 3.01066e-15 -6.54163e-14 9.42875e-14 0 0 -1.42591e-15 -1.25155e-15 3.22875e-16 -2.36589e-15 1.98822e-15 -2.37831e-15 3.22102e-16 5.81711e-15 9.37522e-16 2.04013e-16 2.85668e-15 6.6973e-15 -5.66388e-15 1.33644e-14 1.08589e-16 -8.57958e-15 -4.52519e-15 2.99507e-15 -3.6492e-15 1.04588e-14 -9.68587e-15 -9.64527e-16 1.61281e-16 6.03091e-15 -6.79716e-15 2.60382e-14 -7.97128e-15 2.26077e-15 5.90267e-15 9.33256e-15 -1.73228e-14 7.4677e-15 2.49515e-15 -6.59398e-15 -9.50231e-15 1.48642e-14 2.63097e-14 3.65663e-17 -6.26594e-15 -9.63722e-15 -2.02252e-14 1.76281e-14 1.67932e-14 -1.74491e-14 -1.64602e-14 -9.80696e-15 1.45718e-14 2.18541e-14 -1.4036e-14 5.76612e-15 2.59008e-14 1.06998e-14 -3.89678e-14 -9.0472e-15 4.03493e-14 2.91856e-16 -1.39075e-14 4.536e-14 -2.28098e-15 2.89235e-14 -5.0263e-14 4.09778e-14 -3.78787e-14 4.55777e-14 3.71026e-14 -1.86079e-14 -6.35542e-15 5.04017e-14 -2.48838e-14 4.56645e-14 -5.97102e-14 7.27264e-14 4.60007e-14 4.38384e-14 7.56547e-13 1.12122e-11 1.57516e-10 1.98005e-09 2.22545e-08 2.22048e-07 1.94965e-06 1.49051e-05 9.79166e-05 0.000543595 0.00249774 0.00927776 0.027329 0.0637493 0.120907 0.195525 0.283372 0.382424 0.492652 0.614884 0.74921 0.889516 0.997825 0.977723 0.950331 0.937972 0.936647 0.935382 0.934097 0.93303 0.931684 0.930217 0.928628 0.927322 0.928463 0.925352 0.930323 0.900089 0.852103 0.87765 0.761159 0.734218 0.600408 0.495446 0.36122 0.23885 0.136052 0.0655894 0.0268813 0.00975728 0.00327806 0.00104629 0.000320757 9.47937e-05 2.70305e-05 7.43731e-06 1.97418e-06 5.05462e-07 1.24816e-07 2.97241e-08 6.82673e-09 1.51223e-09 3.23174e-10 6.6654e-11 1.32815e-11 2.51558e-12 5.72511e-13 -5.99101e-14 1.29442e-13 -1.78515e-15 -4.23304e-15 8.27815e-14 -1.45097e-13 7.8103e-14 -2.52923e-15 -8.0411e-14 3.51663e-14 1.69374e-14 6.48761e-14 -1.2697e-14 2.93088e-15 -1.18897e-14 8.36921e-14 -8.88874e-14 9.89394e-14 1.36745e-13 -7.41201e-14 -6.05058e-14 7.55189e-14 1.22908e-13 -4.14279e-14 -4.01609e-14 -1.17828e-13 -3.11951e-14 -6.31202e-14 1.34418e-13 4.70064e-14 -9.10013e-14 3.29211e-14 1.40321e-14 2.50502e-14 -6.91988e-14 -2.03504e-14 -3.15357e-15 -1.7221e-13 5.74302e-14 -1.84397e-13 1.06602e-13 7.02091e-14 2.35491e-14 -1.24147e-13 7.75054e-15 -3.76214e-14 -9.16007e-14 4.0626e-15 3.60118e-14 -4.47817e-14 -8.05822e-15 -9.91893e-14 -2.35344e-14 -2.95716e-14 1.30019e-13 -1.02504e-13 8.637e-14 -6.06124e-14 0 0 9.00932e-16 1.19923e-15 -1.53535e-16 1.69521e-15 -1.77535e-15 -1.45548e-15 -1.95953e-15 3.0542e-15 3.89674e-15 7.9356e-15 -6.68969e-15 5.23392e-15 -2.854e-17 1.9332e-16 -5.93662e-15 2.93823e-15 -3.44998e-15 4.65259e-15 1.47041e-14 8.74888e-16 -3.59275e-15 -1.15585e-14 7.98101e-15 -7.74614e-15 -1.99467e-14 2.66777e-14 1.4067e-14 2.11902e-14 -4.56249e-15 -2.97109e-15 -2.4686e-14 1.65936e-14 5.23247e-16 -1.80104e-14 2.83518e-14 -1.91123e-14 9.01696e-15 2.41808e-14 -2.55523e-14 -4.81582e-15 3.01665e-14 2.28269e-15 -6.68898e-15 1.83169e-14 -5.34856e-14 1.44264e-14 2.38524e-14 8.49152e-15 -1.21765e-14 4.19716e-14 -2.37924e-14 2.0829e-14 -9.46037e-15 -3.62014e-14 1.97998e-14 -1.98674e-14 7.24294e-14 4.9794e-14 -6.99522e-14 2.337e-14 -4.19452e-14 -8.48587e-15 5.39184e-14 2.88774e-14 1.53066e-14 3.74082e-14 -1.74586e-15 6.02191e-14 4.71064e-15 2.25696e-14 -6.2988e-14 5.7931e-14 -1.80887e-15 5.90619e-14 7.95825e-13 1.11854e-11 1.57458e-10 1.98005e-09 2.22546e-08 2.22048e-07 1.94965e-06 1.49051e-05 9.79166e-05 0.000543595 0.00249774 0.00927776 0.027329 0.0637493 0.120907 0.195525 0.283372 0.382424 0.492652 0.614884 0.74921 0.889516 0.997825 0.977723 0.950331 0.937972 0.936647 0.935382 0.934097 0.93303 0.931684 0.930217 0.928628 0.927322 0.928463 0.925352 0.930323 0.900089 0.852103 0.87765 0.761159 0.734218 0.600408 0.495446 0.36122 0.23885 0.136052 0.0655894 0.0268813 0.00975728 0.00327806 0.00104629 0.000320757 9.47937e-05 2.70305e-05 7.43731e-06 1.97418e-06 5.05462e-07 1.24816e-07 2.9724e-08 6.82673e-09 1.51225e-09 3.23095e-10 6.68067e-11 1.32319e-11 2.51788e-12 5.83892e-13 1.09607e-14 1.0794e-14 3.00183e-14 -5.8832e-14 1.21198e-13 3.427e-15 -3.95319e-14 -7.73474e-14 3.63661e-14 7.23513e-14 1.16682e-13 -5.50359e-14 -4.48945e-14 9.4081e-14 -1.11661e-13 1.60646e-13 3.24515e-14 5.21002e-14 -2.08772e-14 -3.84021e-14 6.5497e-15 5.10352e-14 3.17441e-14 1.28571e-14 -5.07622e-14 -1.25552e-13 -1.97667e-13 1.98764e-14 2.67636e-13 -8.0332e-14 1.40226e-13 -3.45916e-14 -3.84934e-14 -4.41693e-14 -1.38057e-14 -3.53687e-14 2.16576e-14 -1.98985e-13 -2.31889e-14 -1.13722e-13 5.66831e-14 8.91593e-14 -7.70588e-15 -4.30155e-14 1.96709e-14 -9.9286e-14 -5.15389e-14 3.48588e-15 1.30155e-13 -8.05397e-14 4.34973e-14 -2.28455e-13 2.40373e-14 2.66691e-14 9.94193e-15 -4.01817e-14 -5.66798e-14 -1.82256e-14 0 0 9.36708e-16 1.11488e-15 -7.56004e-16 1.93044e-15 -9.26773e-16 3.02941e-15 -1.90446e-15 1.10598e-15 7.80742e-15 -1.93219e-15 -5.45717e-15 1.22176e-15 1.05888e-14 -1.19111e-14 -2.216e-15 9.89924e-15 -9.59348e-15 5.95508e-15 9.37153e-15 6.08599e-15 4.14459e-16 -1.22592e-14 2.29488e-15 -8.67873e-16 -1.69987e-14 2.73474e-14 -1.03538e-15 2.56844e-14 -1.57586e-14 6.94158e-15 -1.97947e-14 3.01443e-14 -1.5909e-14 -1.61215e-14 6.8021e-15 1.59005e-14 -9.10381e-15 2.05492e-14 -1.27749e-14 -2.19242e-15 7.64382e-14 -5.85545e-15 -1.98206e-14 4.82742e-14 -4.92754e-14 1.21136e-14 -5.09376e-15 -9.45021e-15 2.48838e-14 1.64707e-14 -4.89433e-14 4.65787e-14 1.49442e-14 -3.01307e-14 -5.33379e-14 6.12889e-16 4.55595e-14 1.59443e-14 1.25137e-14 -3.08882e-14 1.34252e-14 -9.57292e-15 5.49589e-14 4.86612e-14 8.20204e-15 2.59944e-14 6.47322e-14 -9.27671e-14 6.13413e-14 2.44266e-14 9.54315e-15 -5.77409e-14 4.52526e-14 2.4365e-14 7.18787e-13 1.12112e-11 1.5752e-10 1.98007e-09 2.22545e-08 2.22048e-07 1.94965e-06 1.49051e-05 9.79166e-05 0.000543595 0.00249774 0.00927776 0.027329 0.0637493 0.120907 0.195525 0.283372 0.382424 0.492652 0.614884 0.74921 0.889516 0.997825 0.977723 0.950331 0.937972 0.936647 0.935382 0.934097 0.93303 0.931684 0.930217 0.928628 0.927322 0.928463 0.925352 0.930323 0.900089 0.852103 0.87765 0.761159 0.734218 0.600408 0.495446 0.36122 0.23885 0.136052 0.0655894 0.0268813 0.00975728 0.00327806 0.00104629 0.000320757 9.47937e-05 2.70305e-05 7.43731e-06 1.97418e-06 5.05462e-07 1.24816e-07 2.97241e-08 6.8267e-09 1.51222e-09 3.23191e-10 6.66134e-11 1.33118e-11 2.49854e-12 5.07004e-13 7.49979e-14 -6.22181e-14 -2.71443e-15 1.33082e-13 9.56429e-14 5.19935e-14 4.61993e-14 -1.08881e-13 1.12609e-13 1.29392e-13 -1.01551e-13 6.62575e-14 -1.00884e-13 1.58395e-13 -1.09619e-13 1.4775e-13 -7.79236e-14 2.03931e-13 -1.88121e-13 -2.8033e-13 1.1058e-13 6.24518e-14 -2.23632e-14 6.25633e-14 -1.08631e-13 -8.70576e-14 -1.79663e-14 7.29716e-14 1.75e-13 9.06208e-14 -6.19594e-15 -8.36241e-14 -7.60709e-14 -7.87836e-14 9.06069e-14 -1.55823e-13 1.48442e-13 -2.44541e-13 -9.54512e-14 -4.81143e-14 -6.26108e-14 1.18697e-13 -3.8143e-15 3.22011e-14 -4.98267e-14 -4.87958e-14 1.28779e-13 3.08034e-14 1.68524e-13 -1.87231e-13 -1.61454e-13 -6.42401e-14 -2.22712e-14 4.84982e-14 2.44762e-14 -1.14402e-14 -2.21397e-13 5.25302e-14 0 0 -4.4837e-16 -2.05999e-15 1.64081e-15 4.0502e-16 5.5959e-16 6.75044e-15 5.221e-16 -1.41132e-15 3.56443e-15 -7.90956e-15 1.20533e-14 -3.21879e-15 6.84452e-15 8.42754e-15 -2.57969e-15 -6.22899e-15 -8.63824e-15 -5.38888e-15 1.48564e-14 -6.87214e-15 1.54955e-14 -4.64786e-15 -2.07943e-14 1.19835e-14 2.33628e-15 2.34696e-14 -2.40208e-14 1.82109e-14 -2.39864e-15 2.22695e-14 -1.68849e-14 1.04121e-14 -2.25234e-14 -8.38369e-15 -2.49832e-15 2.74746e-14 2.54336e-14 -1.12202e-14 1.98608e-14 -1.36902e-14 7.19447e-14 1.70038e-14 -1.27525e-14 2.49707e-14 1.9956e-14 -5.84197e-14 -9.50153e-15 6.76822e-15 2.25143e-14 -2.92148e-14 -2.36579e-14 4.15908e-14 4.22726e-14 -6.22634e-14 -5.47027e-14 -2.24831e-14 -5.80154e-14 7.02493e-14 1.12319e-13 -6.4085e-14 3.38948e-14 2.32826e-14 3.95357e-14 4.42329e-14 6.00089e-15 2.25156e-14 4.71841e-14 -1.22708e-13 6.29846e-14 2.22742e-14 2.36314e-14 -4.54035e-14 7.17929e-15 4.03895e-14 6.79667e-13 1.11817e-11 1.57657e-10 1.98004e-09 2.22545e-08 2.22048e-07 1.94965e-06 1.49051e-05 9.79166e-05 0.000543595 0.00249774 0.00927776 0.027329 0.0637493 0.120907 0.195525 0.283372 0.382424 0.492652 0.614884 0.74921 0.889516 0.997825 0.977723 0.950331 0.937972 0.936647 0.935382 0.934097 0.93303 0.931684 0.930217 0.928628 0.927322 0.928463 0.925352 0.930323 0.900089 0.852103 0.87765 0.761159 0.734218 0.600408 0.495446 0.36122 0.23885 0.136052 0.0655894 0.0268813 0.00975728 0.00327806 0.00104629 0.000320757 9.47937e-05 2.70305e-05 7.43731e-06 1.97418e-06 5.05462e-07 1.24816e-07 2.97242e-08 6.82673e-09 1.51218e-09 3.23329e-10 6.64491e-11 1.33265e-11 2.44171e-12 4.86537e-13 5.79813e-14 -1.65617e-14 -9.92102e-14 3.8901e-13 5.0516e-14 -4.02368e-14 1.32607e-13 -8.05526e-16 1.17982e-13 8.22795e-14 -3.60809e-13 2.79788e-13 -1.71427e-13 3.12783e-13 -9.27686e-14 1.40783e-13 -3.96178e-13 4.6536e-13 -2.9834e-13 -3.68655e-13 -9.45472e-15 2.02695e-13 1.14793e-13 1.07504e-14 -2.59644e-13 8.84381e-15 6.30653e-14 2.44346e-13 -4.98404e-14 5.03381e-13 -3.99333e-13 -1.06185e-13 -1.87431e-13 4.02551e-14 9.6559e-14 -2.78035e-13 2.35127e-13 -1.076e-13 -2.84823e-13 -3.90664e-14 -1.13675e-13 2.27154e-13 -3.15099e-14 -5.42523e-14 -2.19101e-14 8.49971e-14 1.81467e-13 5.32175e-14 1.52093e-13 -2.78723e-13 -2.48424e-13 -1.13084e-14 -5.31238e-15 1.24282e-13 -6.88856e-14 -3.05773e-14 2.23826e-14 -2.40525e-13 0
				</DataArray>
				<DataArray Name="VitesseY" type="Float32" format="ascii">