<?xml version="1.0"?>
<VTKFile type="PolyData">
	<PolyData>
		<Piece NumberOfPoints="1206" NumberOfPolys="1000">
			<Points>
				<DataArray type="Float32" NumberOfComponents="3" format="ascii">
 0 0 0 0.005 0 0 0.01 0 0 0.015 0 0 0.02 0 0 0.025 0 0 0.03 0 0 0.035 0 0 0.04 0 0 0.045 0 0 0.05 0 0 0.055 0 0 0.06 0 0 0.065 0 0 0.07 0 0 0.075 0 0 0.08 0 0 0.085 0 0 0.09 0 0 0.095 0 0 0.1 0 0 0.105 0 0 0.11 0 0 0.115 0 0 0.12 0 0 0.125 0 0 0.13 0 0 0.135 0 0 0.14 0 0 0.145 0 0 0.15 0 0 0.155 0 0 0.16 0 0 0.165 0 0 0.17 0 0 0.175 0 0 0.18 0 0 0.185 0 0 0.19 0 0 0.195 0 0 0.2 0 0 0.205 0 0 0.21 0 0 0.215 0 0 0.22 0 0 0.225 0 0 0.23 0 0 0.235 0 0 0.24 0 0 0.245 0 0 0.25 0 0 0.255 0 0 0.26 0 0 0.265 0 0 0.27 0 0 0.275 0 0 0.28 0 0 0.285 0 0 0.29 0 0 0.295 0 0 0.3 0 0 0.305 0 0 0.31 0 0 0.315 0 0 0.32 0 0 0.325 0 0 0.33 0 0 0.335 0 0 0.34 0 0 0.345 0 0 0.35 0 0 0.355 0 0 0.36 0 0 0.365001 0 0 0.370003 0 0 0.375011 0 0 0.380036 0 0 0.385096 0 0 0.390227 0 0 0.39547 0 0 0.400866 0 0 0.406453 0 0 0.412264 0 0 0.418329 0 0 0.424679 0 0 0.43135 0 0 0.438381 0 0 0.44582 0 0 0.453722 0 0 0.462156 0 0 0.471201 0 0 0.480952 0 0 0.491514 0 0 0.50297 0 0 0.515239 0 0 0.527727 0 0 0.539989 0 0 0.55204 0 0 0.563955 0 0 0.575809 0 0 0.587641 0 0 0.589925 0 0 0.592211 0 0 0.594496 0 0 0.596781 0 0 0.599065 0 0 0.601348 0 0 0.603628 0 0 0.605908 0 0 0.608188 0 0 0.610466 0 0 0.612743 0 0 0.615024 0 0 0.617304 0 0 0.619584 0 0 0.621864 0 0 0.624148 0 0 0.626435 0 0 0.628722 0 0 0.631009 0 0 0.633295 0 0 0.635583 0 0 0.637872 0 0 0.640159 0 0 0.642447 0 0 0.644743 0 0 0.647056 0 0 0.649446 0 0 0.651946 0 0 0.654549 0 0 0.657342 0 0 0.660359 0 0 0.663676 0 0 0.66733 0 0 0.671346 0 0 0.675697 0 0 0.680323 0 0 0.685136 0 0 0.690053 0 0 0.69502 0 0 0.700007 0 0 0.705003 0 0 0.710001 0 0 0.715 0 0 0.72 0 0 0.725 0 0 0.73 0 0 0.735 0 0 0.74 0 0 0.745 0 0 0.75 0 0 0.755 0 0 0.76 0 0 0.765 0 0 0.77 0 0 0.775 0 0 0.78 0 0 0.785 0 0 0.79 0 0 0.795 0 0 0.8 0 0 0.805 0 0 0.81 0 0 0.815 0 0 0.82 0 0 0.825 0 0 0.83 0 0 0.835 0 0 0.84 0 0 0.845 0 0 0.85 0 0 0.855 0 0 0.86 0 0 0.865 0 0 0.87 0 0 0.875 0 0 0.88 0 0 0.885 0 0 0.89 0 0 0.895 0 0 0.9 0 0 0.905 0 0 0.91 0 0 0.915 0 0 0.92 0 0 0.925 0 0 0.93 0 0 0.935 0 0 0.94 0 0 0.945 0 0 0.95 0 0 0.955 0 0 0.96 0 0 0.965 0 0 0.97 0 0 0.975 0 0 0.98 0 0 0.985 0 0 0.99 0 0 0.995 0 0 1 0 0 0 0.02 0 0.005 0.02 0 0.01 0.02 0 0.015 0.02 0 0.02 0.02 0 0.025 0.02 0 0.03 0.02 0 0.035 0.02 0 0.04 0.02 0 0.045 0.02 0 0.05 0.02 0 0.055 0.02 0 0.06 0.02 0 0.065 0.02 0 0.07 0.02 0 0.075 0.02 0 0.08 0.02 0 0.085 0.02 0 0.09 0.02 0 0.095 0.02 0 0.1 0.02 0 0.105 0.02 0 0.11 0.02 0 0.115 0.02 0 0.12 0.02 0 0.125 0.02 0 0.13 0.02 0 0.135 0.02 0 0.14 0.02 0 0.145 0.02 0 0.15 0.02 0 0.155 0.02 0 0.16 0.02 0 0.165 0.02 0 0.17 0.02 0 0.175 0.02 0 0.18 0.02 0 0.185 0.02 0 0.19 0.02 0 0.195 0.02 0 0.2 0.02 0 0.205 0.02 0 0.21 0.02 0 0.215 0.02 0 0.22 0.02 0 0.225 0.02 0 0.23 0.02 0 0.235 0.02 0 0.24 0.02 0 0.245 0.02 0 0.25 0.02 0 0.255 0.02 0 0.26 0.02 0 0.265 0.02 0 0.27 0.02 0 0.275 0.02 0 0.28 0.02 0 0.285 0.02 0 0.29 0.02 0 0.295 0.02 0 0.3 0.02 0 0.305 0.02 0 0.31 0.02 0 0.315 0.02 0 0.32 0.02 0 0.325 0.02 0 0.33 0.02 0 0.335 0.02 0 0.34 0.02 0 0.345 0.02 0 0.35 0.02 0 0.355 0.02 0 0.36 0.02 0 0.365001 0.02 0 0.370003 0.02 0 0.375011 0.02 0 0.380036 0.02 0 0.385096 0.02 0 0.390227 0.02 0 0.39547 0.02 0 0.400866 0.02 0 0.406453 0.02 0 0.412264 0.02 0 0.418329 0.02 0 0.424679 0.02 0 0.43135 0.02 0 0.438381 0.02 0 0.44582 0.02 0 0.453722 0.02 0 0.462156 0.02 0 0.471201 0.02 0 0.480952 0.02 0 0.491514 0.02 0 0.50297 0.02 0 0.515239 0.02 0 0.527727 0.02 0 0.539989 0.02 0 0.55204 0.02 0 0.563955 0.02 0 0.575809 0.02 0 0.587641 0.02 0 0.589925 0.02 0 0.592211 0.02 0 0.594496 0.02 0 0.596781 0.02 0 0.599065 0.02 0 0.601348 0.02 0 0.603628 0.02 0 0.605908 0.02 0 0.608188 0.02 0 0.610466 0.02 0 0.612743 0.02 0 0.615024 0.02 0 0.617304 0.02 0 0.619584 0.02 0 0.621864 0.02 0 0.624148 0.02 0 0.626435 0.02 0 0.628722 0.02 0 0.631009 0.02 0 0.633295 0.02 0 0.635583 0.02 0 0.637872 0.02 0 0.640159 0.02 0 0.642447 0.02 0 0.644743 0.02 0 0.647056 0.02 0 0.649446 0.02 0 0.651946 0.02 0 0.654549 0.02 0 0.657342 0.02 0 0.660359 0.02 0 0.663676 0.02 0 0.66733 0.02 0 0.671346 0.02 0 0.675697 0.02 0 0.680323 0.02 0 0.685136 0.02 0 0.690053 0.02 0 0.69502 0.02 0 0.700007 0.02 0 0.705003 0.02 0 0.710001 0.02 0 0.715 0.02 0 0.72 0.02 0 0.725 0.02 0 0.73 0.02 0 0.735 0.02 0 0.74 0.02 0 0.745 0.02 0 0.75 0.02 0 0.755 0.02 0 0.76 0.02 0 0.765 0.02 0 0.77 0.02 0 0.775 0.02 0 0.78 0.02 0 0.785 0.02 0 0.79 0.02 0 0.795 0.02 0 0.8 0.02 0 0.805 0.02 0 0.81 0.02 0 0.815 0.02 0 0.82 0.02 0 0.825 0.02 0 0.83 0.02 0 0.835 0.02 0 0.84 0.02 0 0.845 0.02 0 0.85 0.02 0 0.855 0.02 0 0.86 0.02 0 0.865 0.02 0 0.87 0.02 0 0.875 0.02 0 0.88 0.02 0 0.885 0.02 0 0.89 0.02 0 0.895 0.02 0 0.9 0.02 0 0.905 0.02 0 0.91 0.02 0 0.915 0.02 0 0.92 0.02 0 0.925 0.02 0 0.93 0.02 0 0.935 0.02 0 0.94 0.02 0 0.945 0.02 0 0.95 0.02 0 0.955 0.02 0 0.96 0.02 0 0.965 0.02 0 0.97 0.02 0 0.975 0.02 0 0.98 0.02 0 0.985 0.02 0 0.99 0.02 0 0.995 0.02 0 1 0.02 0 0 0.04 0 0.005 0.04 0 0.01 0.04 0 0.015 0.04 0 0.02 0.04 0 0.025 0.04 0 0.03 0.04 0 0.035 0.04 0 0.04 0.04 0 0.045 0.04 0 0.05 0.04 0 0.055 0.04 0 0.06 0.04 0 0.065 0.04 0 0.07 0.04 0 0.075 0.04 0 0.08 0.04 0 0.085 0.04 0 0.09 0.04 0 0.095 0.04 0 0.1 0.04 0 0.105 0.04 0 0.11 0.04 0 0.115 0.04 0 0.12 0.04 0 0.125 0.04 0 0.13 0.04 0 0.135 0.04 0 0.14 0.04 0 0.145 0.04 0 0.15 0.04 0 0.155 0.04 0 0.16 0.04 0 0.165 0.04 0 0.17 0.04 0 0.175 0.04 0 0.18 0.04 0 0.185 0.04 0 0.19 0.04 0 0.195 0.04 0 0.2 0.04 0 0.205 0.04 0 0.21 0.04 0 0.215 0.04 0 0.22 0.04 0 0.225 0.04 0 0.23 0.04 0 0.235 0.04 0 0.24 0.04 0 0.245 0.04 0 0.25 0.04 0 0.255 0.04 0 0.26 0.04 0 0.265 0.04 0 0.27 0.04 0 0.275 0.04 0 0.28 0.04 0 0.285 0.04 0 0.29 0.04 0 0.295 0.04 0 0.3 0.04 0 0.305 0.04 0 0.31 0.04 0 0.315 0.04 0 0.32 0.04 0 0.325 0.04 0 0.33 0.04 0 0.335 0.04 0 0.34 0.04 0 0.345 0.04 0 0.35 0.04 0 0.355 0.04 0 0.36 0.04 0 0.365001 0.04 0 0.370003 0.04 0 0.375011 0.04 0 0.380036 0.04 0 0.385096 0.04 0 0.390227 0.04 0 0.39547 0.04 0 0.400866 0.04 0 0.406453 0.04 0 0.412264 0.04 0 0.418329 0.04 0 0.424679 0.04 0 0.43135 0.04 0 0.438381 0.04 0 0.44582 0.04 0 0.453722 0.04 0 0.462156 0.04 0 0.471201 0.04 0 0.480952 0.04 0 0.491514 0.04 0 0.50297 0.04 0 0.515239 0.04 0 0.527727 0.04 0 0.539989 0.04 0 0.55204 0.04 0 0.563955 0.04 0 0.575809 0.04 0 0.587641 0.04 0 0.589925 0.04 0 0.592211 0.04 0 0.594496 0.04 0 0.596781 0.04 0 0.599065 0.04 0 0.601348 0.04 0 0.603628 0.04 0 0.605908 0.04 0 0.608188 0.04 0 0.610466 0.04 0 0.612743 0.04 0 0.615024 0.04 0 0.617304 0.04 0 0.619584 0.04 0 0.621864 0.04 0 0.624148 0.04 0 0.626435 0.04 0 0.628722 0.04 0 0.631009 0.04 0 0.633295 0.04 0 0.635583 0.04 0 0.637872 0.04 0 0.640159 0.04 0 0.642447 0.04 0 0.644743 0.04 0 0.647056 0.04 0 0.649446 0.04 0 0.651946 0.04 0 0.654549 0.04 0 0.657342 0.04 0 0.660359 0.04 0 0.663676 0.04 0 0.66733 0.04 0 0.671346 0.04 0 0.675697 0.04 0 0.680323 0.04 0 0.685136 0.04 0 0.690053 0.04 0 0.69502 0.04 0 0.700007 0.04 0 0.705003 0.04 0 0.710001 0.04 0 0.715 0.04 0 0.72 0.04 0 0.725 0.04 0 0.73 0.04 0 0.735 0.04 0 0.74 0.04 0 0.745 0.04 0 0.75 0.04 0 0.755 0.04 0 0.76 0.04 0 0.765 0.04 0 0.77 0.04 0 0.775 0.04 0 0.78 0.04 0 0.785 0.04 0 0.79 0.04 0 0.795 0.04 0 0.8 0.04 0 0.805 0.04 0 0.81 0.04 0 0.815 0.04 0 0.82 0.04 0 0.825 0.04 0 0.83 0.04 0 0.835 0.04 0 0.84 0.04 0 0.845 0.04 0 0.85 0.04 0 0.855 0.04 0 0.86 0.04 0 0.865 0.04 0 0.87 0.04 0 0.875 0.04 0 0.88 0.04 0 0.885 0.04 0 0.89 0.04 0 0.895 0.04 0 0.9 0.04 0 0.905 0.04 0 0.91 0.04 0 0.915 0.04 0 0.92 0.04 0 0.925 0.04 0 0.93 0.04 0 0.935 0.04 0 0.94 0.04 0 0.945 0.04 0 0.95 0.04 0 0.955 0.04 0 0.96 0.04 0 0.965 0.04 0 0.97 0.04 0 0.975 0.04 0 0.98 0.04 0 0.985 0.04 0 0.99 0.04 0 0.995 0.04 0 1 0.04 0 0 0.06 0 0.005 0.06 0 0.01 0.06 0 0.015 0.06 0 0.02 0.06 0 0.025 0.06 0 0.03 0.06 0 0.035 0.06 0 0.04 0.06 0 0.045 0.06 0 0.05 0.06 0 0.055 0.06 0 0.06 0.06 0 0.065 0.06 0 0.07 0.06 0 0.075 0.06 0 0.08 0.06 0 0.085 0.06 0 0.09 0.06 0 0.095 0.06 0 0.1 0.06 0 0.105 0.06 0 0.11 0.06 0 0.115 0.06 0 0.12 0.06 0 0.125 0.06 0 0.13 0.06 0 0.135 0.06 0 0.14 0.06 0 0.145 0.06 0 0.15 0.06 0 0.155 0.06 0 0.16 0.06 0 0.165 0.06 0 0.17 0.06 0 0.175 0.06 0 0.18 0.06 0 0.185 0.06 0 0.19 0.06 0 0.195 0.06 0 0.2 0.06 0 0.205 0.06 0 0.21 0.06 0 0.215 0.06 0 0.22 0.06 0 0.225 0.06 0 0.23 0.06 0 0.235 0.06 0 0.24 0.06 0 0.245 0.06 0 0.25 0.06 0 0.255 0.06 0 0.26 0.06 0 0.265 0.06 0 0.27 0.06 0 0.275 0.06 0 0.28 0.06 0 0.285 0.06 0 0.29 0.06 0 0.295 0.06 0 0.3 0.06 0 0.305 0.06 0 0.31 0.06 0 0.315 0.06 0 0.32 0.06 0 0.325 0.06 0 0.33 0.06 0 0.335 0.06 0 0.34 0.06 0 0.345 0.06 0 0.35 0.06 0 0.355 0.06 0 0.36 0.06 0 0.365001 0.06 0 0.370003 0.06 0 0.375011 0.06 0 0.380036 0.06 0 0.385096 0.06 0 0.390227 0.06 0 0.39547 0.06 0 0.400866 0.06 0 0.406453 0.06 0 0.412264 0.06 0 0.418329 0.06 0 0.424679 0.06 0 0.43135 0.06 0 0.438381 0.06 0 0.44582 0.06 0 0.453722 0.06 0 0.462156 0.06 0 0.471201 0.06 0 0.480952 0.06 0 0.491514 0.06 0 0.50297 0.06 0 0.515239 0.06 0 0.527727 0.06 0 0.539989 0.06 0 0.55204 0.06 0 0.563955 0.06 0 0.575809 0.06 0 0.587641 0.06 0 0.589925 0.06 0 0.592211 0.06 0 0.594496 0.06 0 0.596781 0.06 0 0.599065 0.06 0 0.601348 0.06 0 0.603628 0.06 0 0.605908 0.06 0 0.608188 0.06 0 0.610466 0.06 0 0.612743 0.06 0 0.615024 0.06 0 0.617304 0.06 0 0.619584 0.06 0 0.621864 0.06 0 0.624148 0.06 0 0.626435 0.06 0 0.628722 0.06 0 0.631009 0.06 0 0.633295 0.06 0 0.635583 0.06 0 0.637872 0.06 0 0.640159 0.06 0 0.642447 0.06 0 0.644743 0.06 0 0.647056 0.06 0 0.649446 0.06 0 0.651946 0.06 0 0.654549 0.06 0 0.657342 0.06 0 0.660359 0.06 0 0.663676 0.06 0 0.66733 0.06 0 0.671346 0.06 0 0.675697 0.06 0 0.680323 0.06 0 0.685136 0.06 0 0.690053 0.06 0 0.69502 0.06 0 0.700007 0.06 0 0.705003 0.06 0 0.710001 0.06 0 0.715 0.06 0 0.72 0.06 0 0.725 0.06 0 0.73 0.06 0 0.735 0.06 0 0.74 0.06 0 0.745 0.06 0 0.75 0.06 0 0.755 0.06 0 0.76 0.06 0 0.765 0.06 0 0.77 0.06 0 0.775 0.06 0 0.78 0.06
[...]
			<PointData Scalars="VitesseX">
				<DataArray Name="VitesseX" type="Float32" format="ascii">
 0 1.00089e-18 -2.42216e-15 2.26632e-15 8.21149e-16 -2.19119e-16 2.63273e-15 -1.23763e-15 -5.88412e-16 3.63462e-15 -2.54572e-15 6.40508e-15 -1.79445e-15 4.0757e-15 -1.05519e-14 1.10465e-14 4.18655e-15 1.40202e-14 -2.51654e-15 2.80566e-15 -7.63387e-15 4.4032e-16 6.61651e-15 -7.58695e-16 9.82362e-15 -1.15195e-14 1.394e-15 2.29114e-14 -1.17236e-14 1.78642e-14 -4.67498e-15 -4.21153e-15 6.92285e-15 1.34799e-14 1.85139e-14 7.89662e-15 -1.58134e-14 -2.08262e-15 -1.34173e-16 5.36671e-15 1.53362e-14 -1.43212e-14 2.0895e-14 3.83055e-15 2.19688e-16 1.36779e-14 1.94847e-14 -3.11665e-14 9.33312e-15 2.3855e-14 2.75447e-14 -3.27427e-14 -1.97094e-14 3.40665e-14 3.47475e-14 -3.63306e-14 4.29129e-14 2.93818e-14 1.73551e-14 3.80951e-14 3.33015e-14 5.11744e-14 2.54041e-13 1.99752e-12 1.88194e-11 1.65385e-10 1.34812e-09 1.01532e-08 7.03841e-08 4.47031e-07 2.58716e-06 1.35563e-05 6.3817e-05 0.000267386 0.000985913 0.00315801 0.00867629 0.0202779 0.0403953 0.0696552 0.106708 0.149522 0.19656 0.247039 0.300693 0.357537 0.417731 0.481525 0.549221 0.621131 0.697457 0.777977 0.860989 0.939638 0.988674 0.973891 0.956587 0.943472 0.93734 0.934828 0.933609 0.934598 0.935284 0.934794 0.934585 0.934237 0.933699 0.93314 0.932532 0.931986 0.931498 0.931145 0.930916 0.930866 0.93101 0.93221 0.933133 0.933497 0.933622 0.933642 0.933634 0.932415 0.932486 0.929429 0.923118 0.928136 0.898519 0.863759 0.858345 0.775811 0.720108 0.61658 0.513453 0.387279 0.267729 0.162627 0.0857652 0.0393433 0.0162445 0.00629593 0.00235675 0.000863676 0.00031141 0.000110606 3.86868e-05 1.33151e-05 4.50539e-06 1.49746e-06 4.88522e-07 1.5633e-07 4.90456e-08 1.50789e-08 4.5417e-09 1.33966e-09 3.87075e-10 1.09422e-10 3.02771e-11 8.2301e-12 2.26817e-12 5.19585e-13 2.74302e-14 3.4027e-14 7.91962e-14 8.96473e-14 -9.0676e-14 -3.35154e-14 2.70837e-14 6.56498e-14 4.27352e-14 -1.19303e-14 -4.55037e-14 1.09015e-14 -3.12198e-15 7.21249e-14 -3.10589e-14 -6.37293e-14 -5.67974e-14 2.72195e-14 -7.40433e-14 -9.24932e-14 -5.53205e-14 5.15194e-14 1.20087e-14 -3.65279e-14 -1.48561e-13 -1.02231e-13 -7.72844e-14 2.31906e-13 -1.40581e-13 -5.29469e-14 -1.14981e-13 -5.79652e-14 8.48781e-14 -8.53753e-14 -4.35829e-14 -6.59306e-14 -4.05769e-14 -6.67565e-14 -9.07335e-14 5.93383e-14 0 0 -2.38422e-16 1.2798e-15 1.17118e-15 -1.88044e-15 1.01846e-15 -2.2529e-16 1.65472e-15 -3.60868e-15 5.83782e-15 4.10561e-15 6.1757e-15 -2.41898e-15 -6.07796e-15 8.5228e-15 -1.90246e-15 1.0435e-14 -4.2923e-15 1.10956e-14 -6.80423e-15 9.88569e-15 -1.55158e-14 9.03038e-15 6.00205e-15 -1.26452e-14 5.51694e-15 -6.58317e-16 2.81068e-14 -6.99718e-15 2.57233e-14 -2.41161e-14 -2.79833e-15 2.42452e-14 8.89717e-15 -8.14047e-17 1.0533e-14 9.66053e-15 -1.8588e-14 1.33645e-14 1.39461e-14 -2.02442e-14 1.57411e-14 -1.34674e-15 -1.44985e-14 2.94273e-14 1.27758e-14 8.60366e-15 2.1926e-14 -1.89396e-14 -2.37171e-14 -1.37078e-15 4.55301e-14 -4.15534e-14 5.98263e-14 -6.15765e-15 -3.33515e-15 2.88473e-14 5.46393e-14 2.14455e-14 1.46128e-14 4.58612e-14 9.02971e-14 2.09264e-13 1.9452e-12 1.88575e-11 1.65395e-10 1.34813e-09 1.01532e-08 7.0384e-08 4.47031e-07 2.58716e-06 1.35563e-05 6.3817e-05 0.000267386 0.000985913 0.00315801 0.00867629 0.0202779 0.0403953 0.0696552 0.106708 0.149522 0.19656 0.247039 0.300693 0.357537 0.417731 0.481525 0.549221 0.621131 0.697457 0.777977 0.860989 0.939638 0.988674 0.973891 0.956587 0.943472 0.93734 0.934828 0.933609 0.934598 0.935284 0.934794 0.934585 0.934237 0.933699 0.93314 0.932532 0.931986 0.931498 0.931145 0.930916 0.930866 0.93101 0.93221 0.933133 0.933497 0.933622 0.933642 0.933634 0.932415 0.932486 0.929429 0.923118 0.928136 0.898519 0.863759 0.858345 0.775811 0.720108 0.61658 0.513453 0.387279 0.267729 0.162627 0.0857652 0.0393433 0.0162445 0.00629593 0.00235675 0.000863676 0.00031141 0.000110606 3.86868e-05 1.33151e-05 4.50539e-06 1.49746e-06 4.88522e-07 1.5633e-07 4.90455e-08 1.50789e-08 4.54166e-09 1.33973e-09 3.87006e-10 1.09448e-10 3.02905e-11 8.20462e-12 2.1645e-12 6.87267e-13 1.14079e-13 -5.34859e-14 6.86038e-14 -8.03426e-14 5.61341e-14 -2.84911e-14 7.40715e-14 -1.23733e-13 1.19226e-13 -1.83322e-14 2.26893e-14 6.85462e-14 -7.25674e-14 2.65569e-15 -5.42818e-14 -7.2898e-14 -3.21616e-14 -9.56103e-14 7.58101e-14 -4.90732e-14 4.84296e-15 -5.51312e-14 5.0846e-14 2.27426e-14 -8.80961e-14 -1.38746e-13 -6.00244e-14 5.62728e-14 8.26494e-15 -3.80208e-14 -6.0523e-14 -9.76069e-14 -2.36381e-14 3.66963e-14 -6.91457e-14 -1.26336e-13 -2.974e-14 -9.02245e-14 8.85339e-14 -5.00335e-14 0 0 1.26787e-15 1.38314e-15 -1.48453e-15 -1.38487e-15 2.252e-15 4.12682e-15 5.45625e-15 -5.35804e-16 5.00094e-16 3.7287e-15 5.09972e-15 7.16213e-15 -9.07255e-15 8.23769e-15 -4.2303e-15 1.36876e-14 -7.37144e-15 7.07333e-15 4.36857e-15 -7.81339e-15 8.5543e-16 -7.6171e-15 1.32478e-14 -1.36821e-14 -2.791e-15 2.52129e-14 9.88558e-15 2.08599e-14 -1.77393e-15 -1.28217e-14 4.34931e-15 2.11358e-14 8.82248e-15 1.45114e-14 -7.80105e-15 4.36516e-15 -1.57944e-14 4.2602e-14 -9.43043e-15 6.43703e-15 -4.64765e-15 -1.43053e-14 -1.75045e-14 3.24487e-15 3.47517e-14 8.39456e-16 3.3e-14 -2.2469e-14 -3.14558e-15 1.67125e-14 4.22466e-14 -2.61365e-14 9.04314e-15 1.46578e-14 3.09874e-14 3.26104e-14 3.81085e-14 2.89775e-14 2.88566e-14 3.51952e-14 7.84508e-14 1.57964e-13 1.92108e-12 1.8865e-11 1.65404e-10 1.34812e-09 1.01531e-08 7.03839e-08 4.47031e-07 2.58716e-06 1.35563e-05 6.3817e-05 0.000267386 0.000985913 0.00315801 0.00867629 0.0202779 0.0403953 0.0696552 0.106708 0.149522 0.19656 0.247039 0.300693 0.357537 0.417731 0.481525 0.549221 0.621131 0.697457 0.777977 0.860989 0.939638 0.988674 0.973891 0.956587 0.943472 0.93734 0.934828 0.933609 0.934598 0.935284 0.934794 0.934585 0.934237 0.933699 0.93314 0.932532 0.931986 0.931498 0.931145 0.930916 0.930866 0.93101 0.93221 0.933133 0.933497 0.933622 0.933642 0.933634 0.932415 0.932486 0.929429 0.923118 0.928136 0.898519 0.863759 0.858345 0.775811 0.720108 0.61658 0.513453 0.387279 0.267729 0.162627 0.0857652 0.0393433 0.0162445 0.00629593 0.00235675 0.000863676 0.00031141 0.000110606 3.86868e-05 1.33151e-05 4.50539e-06 1.49746e-06 4.88522e-07 1.5633e-07 4.90455e-08 1.5079e-08 4.54159e-09 1.33977e-09 3.86923e-10 1.09443e-10 3.03346e-11 8.27967e-12 2.31871e-12 4.9712e-13 1.42149e-13 9.28353e-14 -8.53475e-14 -1.76687e-13 8.90958e-14 -8.78956e-14 5.14141e-14 -3.74764e-15 8.94592e-14 -3.45105e-14 -8.02648e-14 6.15594e-14 4.34445e-14 3.23266e-14 -1.31873e-13 -7.2963e-14 6.96888e-16 -1.69343e-13 1.35975e-13 -6.64675e-14 1.39978e-13 -2.54243e-14 4.79741e-14 -6.20108e-15 6.26354e-14 -1.28337e-13 -1.34234e-13 2.58549e-14 1.54753e-14 -6.64118e-14 -1.39747e-13 -6.70898e-14 7.81544e-14 -1.74389e-14 -7.63233e-14 -1.21942e-13 -4.07092e-14 -6.24203e-14 1.20355e-13 7.0757e-14 0 0 -1.32539e-15 -1.0423e-15 -1.61475e-15 1.43236e-15 3.15604e-16 5.65992e-15 2.50181e-15 -4.52538e-16 2.70299e-15 -4.77891e-16 5.75696e-15 3.67899e-15 1.25047e-14 6.08819e-15 1.46204e-14 -1.16047e-14 -9.81319e-15 -3.59938e-15 5.43695e-15 -7.29201e-15 1.59333e-14 -4.03414e-15 4.33089e-16 -8.0202e-15 1.0079e-14 3.379e-14 4.30911e-15 2.22622e-14 -2.5394e-14 1.9428e-14 1.21691e-14 1.13254e-14 2.37483e-14 2.0264e-14 -1.2876e-14 -2.74039e-14 -1.57027e-14 1.9525e-14 -8.7433e-15 1.73897e-14 2.07808e-14 -2.42597e-14 -2.58431e-14 -6.83016e-15 2.87827e-14 2.20611e-14 -1.62631e-14 5.32876e-15 5.35288e-14 2.0237e-14 -2.29045e-14 7.71219e-15 2.74159e-14 3.86709e-14 7.27004e-15 6.41057e-14 -3.13405e-14 3.80137e-14 3.15266e-14 5.95857e-14 3.32425e-14 2.1041e-13 1.94015e-12 1.87605e-11 1.6538e-10 1.34816e-09 1.0153e-08 7.0384e-08 4.47031e-07 2.58716e-06 1.35563e-05 6.3817e-05 0.000267386 0.000985913 0.00315801 0.00867629 0.0202779 0.0403953 0.0696552 0.106708 0.149522 0.19656 0.247039 0.300693 0.357537 0.417731 0.481525 0.549221 0.621131 0.697457 0.777977 0.860989 0.939638 0.988674 0.973891 0.956587 0.943472 0.93734 0.934828 0.933609 0.934598 0.935284 0.934794 0.934585 0.934237 0.933699 0.93314 0.932532 0.931986 0.931498 0.931145 0.930916 0.930866 0.93101 0.93221 0.933133 0.933497 0.933622 0.933642 0.933634 0.932415 0.932486 0.929429 0.923118 0.928136 0.898519 0.863759 0.858345 0.775811 0.720108 0.61658 0.513453 0.387279 0.267729 0.162627 0.0857652 0.0393433 0.0162445 0.00629593 0.00235675 0.000863676 0.00031141 0.000110606 3.86868e-05 1.33151e-05 4.50539e-06 1.49746e-06 4.88522e-07 1.5633e-07 4.90455e-08 1.5079e-08 4.54161e-09 1.3397e-09 3.86952e-10 1.0944e-10 3.03477e-11 8.38563e-12 2.35687e-12 3.36412e-13 9.90526e-14 2.05585e-13 -1.51144e-13 1.21343e-14 1.36221e-13 -8.98274e-14 8.88181e-15 1.40348e-15 -3.9189e-14 1.2932e-13 -1.51673e-13 -6.00992e-14 -4.34307e-14 1.48967e-13 -1.06685e-14 -8.20003e-14 -4.38471e-14 7.1997e-14 1.70722e-14 -2.19584e-14 9.99444e-14 1.93547e-14 -4.43526e-14 -1.15935e-13 2.01366e-13 -8.07782e-14 -1.34694e-13 5.44474e-14 3.07941e-14 -2.08699e-13 -3.56641e-13 3.18642e-14 4.91143e-14 -6.28187e-14 -2.10722e-14 5.10321e-14 -1.28698e-13 -1.93509e-15 1.07396e-13 1.17277e-13 0 0 -4.06086e-15 -3.89213e-16 -2.34663e-15 5.78478e-16 -6.30406e-16 -5.79395e-16 -3.52029e-15 6.73346e-15 5.01084e-15 8.36994e-16 1.00822e-14 -2.51548e-15 3.94325e-15 -1.46568e-16 1.69353e-14 -1.22762e-14 -7.70048e-15 -3.7433e-16 -3.14361e-15 1.22539e-14 -4.00511e-15 8.09982e-15 8.18866e-15 -1.25504e-14 2.08762e-14 -2.54027e-15 4.73739e-15 -1.936e-15 2.17855e-14 2.18034e-14 1.2789e-14 1.18593e-14 8.39695e-15 -6.51464e-15 1.62295e-15 -1.49971e-14 -1.17074e-14 -2.2316e-14 2.06097e-16 7.81414e-15 6.06249e-14 -1.88013e-14 -2.67018e-14 2.3511e-14 -3.72023e-15 -1.10442e-14 8.95869e-15 3.16591e-14 -7.34559e-15 -1.08995e-15 3.37578e-14 5.73478e-15 9.40184e-14 3.16958e-14 4.96921e-14 1.70161e-14 -5.47239e-14 3.33167e-14 -3.40739e-14 7.26649e-14 8.69103e-14 4.40122e-13 1.80401e-12 1.86777e-11 1.65378e-10 1.34816e-09 1.0153e-08 7.0384e-08 4.47031e-07 2.58716e-06 1.35563e-05 6.3817e-05 0.000267386 0.000985913 0.00315801 0.00867629 0.0202779 0.0403953 0.0696552 0.106708 0.149522 0.19656 0.247039 0.300693 0.357537 0.417731 0.481525 0.549221 0.621131 0.697457 0.777977 0.860989 0.939638 0.988674 0.973891 0.956587 0.943472 0.93734 0.934828 0.933609 0.934598 0.935284 0.934794 0.934585 0.934237 0.933699 0.93314 0.932532 0.931986 0.931498 0.931145 0.930916 0.930866 0.93101 0.93221 0.933133 0.933497 0.933622 0.933642 0.933634 0.932415 0.932486 0.929429 0.923118 0.928136 0.898519 0.863759 0.858345 0.775811 0.720108 0.61658 0.513453 0.387279 0.267729 0.162627 0.0857652 0.0393433 0.0162445 0.00629593 0.00235675 0.000863676 0.00031141 0.000110606 3.86868e-05 1.33151e-05 4.50539e-06 1.49746e-06 4.88522e-07 1.5633e-07 4.90456e-08 1.5079e-08 4.54161e-09 1.33972e-09 3.87117e-10 1.09431e-10 3.03035e-11 8.16196e-12 2.31114e-12 5.47549e-13 4.48926e-14 2.7541e-13 -6.16054e-14 1.01128e-13 9.62969e-14 -4.94675e-14 -1.74927e-13 -6.61561e-14 2.99642e-14 -1.82506e-14 8.98005e-14 -5.28797e-14 -1.21878e-13 -1.11783e-14 1.80491e-13 -4.31665e-14 7.32746e-14 1.29416e-13 -1.05769e-14 3.07545e-14 -1.0028e-14 1.22822e-13 3.33798e-14 -1.03692e-13 -1.65709e-13 -1.21577e-14 -9.47819e-14 -1.12768e-13 3.14712e-14 -1.0326e-13 -1.57758e-13 2.12052e-14 -2.39135e-13 -7.40555e-14 2.35229e-14 2.95901e-14 1.01456e-13 -2.77249e-14 -2.63285e-14 4.53743e-14 0 0 -2.45734e-15 -9.09304e-16 -4.50887e-15 1.04516e-16 3.55939e-16 -1.14167e-15 -5.67878e-15 1.99294e-14 -2.42515e-15 -6.69762e-16 1.29036e-14 4.97882e-15 -1.90363e-14 -2.35916e-14 1.10207e-14 9.34873e-15 1.20874e-14 -4.11092e-15 7.99014e-15 -3.94026e-15 -6.6941e-15 -2.41052e-15 2.9244e-14 -1.31082e-15 -6.54094e-15 -1.95242e-14 -1.26745e-14 -4.40568e-15 5.72286e-14 2.26649e-14 1.13234e-14 1.77191e-15 -1.73722e-14 -5.85777e-15 2.26505e-16 -1.5905e-15 1.14953e-14 -2.53413e-14 -2.34875e-14 4.95474e-14 2.45895e-14 5.8947e-15 -3.89905e-15 8.53701e-15 -7.37606e-15 -6.22543e-14 4.14251e-14 5.49349e-14 -5.67508e-14 2.10573e-14 7.4015e-14 7.16957e-15 6.57053e-14 6.24281e-14 1.17159e-13 -4.37403e-14 -5.04465e-14 2.30251e-14 -6.46182e-14 3.81277e-14 1.34817e-13 6.10863e-13 1.67701e-12 1.86688e-11 1.65399e-10 1.34809e-09 1.0153e-08 7.0384e-08 4.47031e-07 2.58716e-06 1.35563e-05 6.3817e-05 0.000267386 0.000985913 0.00315801 0.00867629 0.0202779 0.0403953 0.0696552 0.106708 0.149522 0.19656 0.247039 0.300693 0.357537 0.417731 0.481525 0.549221 0.621131 0.697457 0.777977 0.860989 0.939638 0.988674 0.973891 0.956587 0.943472 0.93734 0.934828 0.933609 0.934598 0.935284 0.934794 0.934585 0.934237 0.933699 0.93314 0.932532 0.931986 0.931498 0.931145 0.930916 0.930866 0.93101 0.93221 0.933133 0.933497 0.933622 0.933642 0.933634 0.932415 0.932486 0.929429 0.923118 0.928136 0.898519 0.863759 0.858345 0.775811 0.720108 0.61658 0.513453 0.387279 0.267729 0.162627 0.0857652 0.0393433 0.0162445 0.00629593 0.00235675 0.000863676 0.00031141 0.000110606 3.86868e-05 1.33151e-05 4.50539e-06 1.49746e-06 4.88522e-07 1.5633e-07 4.90458e-08 1.5079e-08 4.54156e-09 1.33977e-09 3.87239e-10 1.09393e-10 3.02773e-11 7.93351e-12 2.48549e-12 5.61423e-13 -2.46629e-14 4.66517e-13 -4.9675e-14 7.41016e-14 -1.05598e-13 -7.20719e-14 -3.85755e-13 1.70712e-13 1.21854e-13 -3.39009e-13 2.31876e-13 1.13616e-14 7.17319e-14 -1.88892e-13 1.96001e-13 1.40053e-14 2.43258e-13 -5.83197e-15 -9.36926e-15 -2.18879e-14 -4.7998e-15 3.17924e-13 1.61775e-13 -6.9821e-14 -5.81155e-13 5.59608e-14 -1.4559e-13 -1.63037e-13 -1.24511e-13 1.01442e-13 1.24537e-13 -1.84902e-14 -2.88206e-13 -2.1589e-13 3.12963e-14 -9.99791e-14 3.97981e-13 -6.28851e-14 -2.94875e-13 1.57517e-13 0
				</DataArray>
				<DataArray Name="VitesseY" type="Float32" format="ascii">