<?xml version="1.0"?>
<VTKFile type="PolyData">
	<PolyData>
		<Piece NumberOfPoints="1206" NumberOfPolys="1000">
			<Points>
				<DataArray type="Float32" NumberOfComponents="3" format="ascii">
 0 0 0 0.005 0 0 0.01 0 0 0.015 0 0 0.02 0 0 0.025 0 0 0.03 0 0 0.035 0 0 0.04 0 0 0.045 0 0 0.05 0 0 0.055 0 0 0.06 0 0 0.065 0 0 0.07 0 0 0.075 0 0 0.08 0 0 0.085 0 0 0.09 0 0 0.095 0 0 0.1 0 0 0.105 0 0 0.11 0 0 0.115 0 0 0.12 0 0 0.125 0 0 0.13 0 0 0.135 0 0 0.14 0 0 0.145 0 0 0.15 0 0 0.155 0 0 0.16 0 0 0.165 0 0 0.17 0 0 0.175 0 0 0.18 0 0 0.185 0 0 0.19 0 0 0.195 0 0 0.2 0 0 0.205 0 0 0.21 0 0 0.215 0 0 0.22 0 0 0.225 0 0 0.23 0 0 0.235 0 0 0.24 0 0 0.245 0 0 0.250001 0 0 0.255003 0 0 0.260009 0 0 0.265022 0 0 0.27005 0 0 0.275105 0 0 0.280201 0 0 0.285355 0 0 0.29058 0 0 0.29589 0 0 0.301296 0 0 0.306805 0 0 0.312425 0 0 0.318162 0 0 0.324025 0 0 0.33002 0 0 0.336154 0 0 0.342436 0 0 0.348873 0 0 0.355476 0 0 0.362253 0 0 0.369216 0 0 0.376377 0 0 0.383748 0 0 0.391343 0 0 0.399179 0 0 0.407271 0 0 0.41564 0 0 0.424306 0 0 0.433293 0 0 0.442626 0 0 0.452334 0 0 0.462447 0 0 0.472999 0 0 0.484017 0 0 0.495521 0 0 0.507487 0 0 0.519765 0 0 0.532039 0 0 0.54421 0 0 0.556268 0 0 0.568227 0 0 0.580115 0 0 0.591962 0 0 0.603787 0 0 0.615603 0 0 0.627415 0 0 0.639225 0 0 0.651034 0 0 0.662843 0 0 0.674658 0 0 0.676938 0 0 0.679218 0 0 0.681498 0 0 0.683778 0 0 0.686057 0 0 0.688335 0 0 0.690611 0 0 0.692887 0 0 0.695165 0 0 0.697439 0 0 0.699715 0 0 0.701993 0 0 0.704271 0 0 0.706549 0 0 0.708826 0 0 0.711104 0 0 0.713385 0 0 0.715665 0 0 0.717944 0 0 0.72022 0 0 0.722497 0 0 0.724777 0 0 0.727057 0 0 0.729336 0 0 0.731615 0 0 0.733895 0 0 0.736176 0 0 0.738458 0 0 0.740739 0 0 0.743019 0 0 0.745298 0 0 0.747578 0 0 0.749857 0 0 0.752135 0 0 0.754413 0 0 0.756693 0 0 0.758975 0 0 0.761257 0 0 0.763539 0 0 0.76582 0 0 0.768102 0 0 0.770383 0 0 0.772664 0 0 0.774943 0 0 0.777224 0 0 0.779507 0 0 0.781789 0 0 0.784069 0 0 0.786349 0 0 0.788631 0 0 0.790911 0 0 0.79319 0 0 0.795469 0 0 0.79775 0 0 0.800032 0 0 0.802313 0 0 0.804603 0 0 0.806931 0 0 0.8093 0 0 0.811798 0 0 0.814441 0 0 0.817233 0 0 0.820276 0 0 0.82361 0 0 0.827285 0 0 0.831318 0 0 0.835684 0 0 0.840319 0 0 0.845136 0 0 0.850054 0 0 0.855021 0 0 0.860008 0 0 0.865003 0 0 0.870001 0 0 0.875 0 0 0.88 0 0 0.885 0 0 0.89 0 0 0.895 0 0 0.9 0 0 0.905 0 0 0.91 0 0 0.915 0 0 0.92 0 0 0.925 0 0 0.93 0 0 0.935 0 0 0.94 0 0 0.945 0 0 0.95 0 0 0.955 0 0 0.96 0 0 0.965 0 0 0.97 0 0 0.975 0 0 0.98 0 0 0.985 0 0 0.99 0 0 0.995 0 0 1 0 0 0 0.02 0 0.005 0.02 0 0.01 0.02 0 0.015 0.02 0 0.02 0.02 0 0.025 0.02 0 0.03 0.02 0 0.035 0.02 0 0.04 0.02 0 0.045 0.02 0 0.05 0.02 0 0.055 0.02 0 0.06 0.02 0 0.065 0.02 0 0.07 0.02 0 0.075 0.02 0 0.08 0.02 0 0.085 0.02 0 0.09 0.02 0 0.095 0.02 0 0.1 0.02 0 0.105 0.02 0 0.11 0.02 0 0.115 0.02 0 0.12 0.02 0 0.125 0.02 0 0.13 0.02 0 0.135 0.02 0 0.14 0.02 0 0.145 0.02 0 0.15 0.02 0 0.155 0.02 0 0.16 0.02 0 0.165 0.02 0 0.17 0.02 0 0.175 0.02 0 0.18 0.02 0 0.185 0.02 0 0.19 0.02 0 0.195 0.02 0 0.2 0.02 0 0.205 0.02 0 0.21 0.02 0 0.215 0.02 0 0.22 0.02 0 0.225 0.02 0 0.23 0.02 0 0.235 0.02 0 0.24 0.02 0 0.245 0.02 0 0.250001 0.02 0 0.255003 0.02 0 0.260009 0.02 0 0.265022 0.02 0 0.27005 0.02 0 0.275105 0.02 0 0.280201 0.02 0 0.285355 0.02 0 0.29058 0.02 0 0.29589 0.02 0 0.301296 0.02 0 0.306805 0.02 0 0.312425 0.02 0 0.318162 0.02 0 0.324025 0.02 0 0.33002 0.02 0 0.336154 0.02 0 0.342436 0.02 0 0.348873 0.02 0 0.355476 0.02 0 0.362253 0.02 0 0.369216 0.02 0 0.376377 0.02 0 0.383748 0.02 0 0.391343 0.02 0 0.399179 0.02 0 0.407271 0.02 0 0.41564 0.02 0 0.424306 0.02 0 0.433293 0.02 0 0.442626 0.02 0 0.452334 0.02 0 0.462447 0.02 0 0.472999 0.02 0 0.484017 0.02 0 0.495521 0.02 0 0.507487 0.02 0 0.519765 0.02 0 0.532039 0.02 0 0.54421 0.02 0 0.556268 0.02 0 0.568227 0.02 0 0.580115 0.02 0 0.591962 0.02 0 0.603787 0.02 0 0.615603 0.02 0 0.627415 0.02 0 0.639225 0.02 0 0.651034 0.02 0 0.662843 0.02 0 0.674658 0.02 0 0.676938 0.02 0 0.679218 0.02 0 0.681498 0.02 0 0.683778 0.02 0 0.686057 0.02 0 0.688335 0.02 0 0.690611 0.02 0 0.692887 0.02 0 0.695165 0.02 0 0.697439 0.02 0 0.699715 0.02 0 0.701993 0.02 0 0.704271 0.02 0 0.706549 0.02 0 0.708826 0.02 0 0.711104 0.02 0 0.713385 0.02 0 0.715665 0.02 0 0.717944 0.02 0 0.72022 0.02 0 0.722497 0.02 0 0.724777 0.02 0 0.727057 0.02 0 0.729336 0.02 0 0.731615 0.02 0 0.733895 0.02 0 0.736176 0.02 0 0.738458 0.02 0 0.740739 0.02 0 0.743019 0.02 0 0.745298 0.02 0 0.747578 0.02 0 0.749857 0.02 0 0.752135 0.02 0 0.754413 0.02 0 0.756693 0.02 0 0.758975 0.02 0 0.761257 0.02 0 0.763539 0.02 0 0.76582 0.02 0 0.768102 0.02 0 0.770383 0.02 0 0.772664 0.02 0 0.774943 0.02 0 0.777224 0.02 0 0.779507 0.02 0 0.781789 0.02 0 0.784069 0.02 0 0.786349 0.02 0 0.788631 0.02 0 0.790911 0.02 0 0.79319 0.02 0 0.795469 0.02 0 0.79775 0.02 0 0.800032 0.02 0 0.802313 0.02 0 0.804603 0.02 0 0.806931 0.02 0 0.8093 0.02 0 0.811798 0.02 0 0.814441 0.02 0 0.817233 0.02 0 0.820276 0.02 0 0.82361 0.02 0 0.827285 0.02 0 0.831318 0.02 0 0.835684 0.02 0 0.840319 0.02 0 0.845136 0.02 0 0.850054 0.02 0 0.855021 0.02 0 0.860008 0.02 0 0.865003 0.02 0 0.870001 0.02 0 0.875 0.02 0 0.88 0.02 0 0.885 0.02 0 0.89 0.02 0 0.895 0.02 0 0.9 0.02 0 0.905 0.02 0 0.91 0.02 0 0.915 0.02 0 0.92 0.02 0 0.925 0.02 0 0.93 0.02 0 0.935 0.02 0 0.94 0.02 0 0.945 0.02 0 0.95 0.02 0 0.955 0.02 0 0.96 0.02 0 0.965 0.02 0 0.97 0.02 0 0.975 0.02 0 0.98 0.02 0 0.985 0.02 0 0.99 0.02 0 0.995 0.02 0 1 0.02 0 0 0.04 0 0.005 0.04 0 0.01 0.04 0 0.015 0.04 0 0.02 0.04 0 0.025 0.04 0 0.03 0.04 0 0.035 0.04 0 0.04 0.04 0 0.045 0.04 0 0.05 0.04 0 0.055 0.04 0 0.06 0.04 0 0.065 0.04 0 0.07 0.04 0 0.075 0.04 0 0.08 0.04 0 0.085 0.04 0 0.09 0.04 0 0.095 0.04 0 0.1 0.04 0 0.105 0.04 0 0.11 0.04 0 0.115 0.04 0 0.12 0.04 0 0.125 0.04 0 0.13 0.04 0 0.135 0.04 0 0.14 0.04 0 0.145 0.04 0 0.15 0.04 0 0.155 0.04 0 0.16 0.04 0 0.165 0.04 0 0.17 0.04 0 0.175 0.04 0 0.18 0.04 0 0.185 0.04 0 0.19 0.04 0 0.195 0.04 0 0.2 0.04 0 0.205 0.04 0 0.21 0.04 0 0.215 0.04 0 0.22 0.04 0 0.225 0.04 0 0.23 0.04 0 0.235 0.04 0 0.24 0.04 0 0.245 0.04 0 0.250001 0.04 0 0.255003 0.04 0 0.260009 0.04 0 0.265022 0.04 0 0.27005 0.04 0 0.275105 0.04 0 0.280201 0.04 0 0.285355 0.04 0 0.29058 0.04 0 0.29589 0.04 0 0.301296 0.04 0 0.306805 0.04 0 0.312425 0.04 0 0.318162 0.04 0 0.324025 0.04 0 0.33002 0.04 0 0.336154 0.04 0 0.342436 0.04 0 0.348873 0.04 0 0.355476 0.04 0 0.362253 0.04 0 0.369216 0.04 0 0.376377 0.04 0 0.383748 0.04 0 0.391343 0.04 0 0.399179 0.04 0 0.407271 0.04 0 0.41564 0.04 0 0.424306 0.04 0 0.433293 0.04 0 0.442626 0.04 0 0.452334 0.04 0 0.462447 0.04 0 0.472999 0.04 0 0.484017 0.04 0 0.495521 0.04 0 0.507487 0.04 0 0.519765 0.04 0 0.532039 0.04 0 0.54421 0.04 0 0.556268 0.04 0 0.568227 0.04 0 0.580115 0.04 0 0.591962 0.04 0 0.603787 0.04 0 0.615603 0.04 0 0.627415 0.04 0 0.639225 0.04 0 0.651034 0.04 0 0.662843 0.04 0 0.674658 0.04 0 0.676938 0.04 0 0.679218 0.04 0 0.681498 0.04 0 0.683778 0.04 0 0.686057 0.04 0 0.688335 0.04 0 0.690611 0.04 0 0.692887 0.04 0 0.695165 0.04 0 0.697439 0.04 0 0.699715 0.04 0 0.701993 0.04 0 0.704271 0.04 0 0.706549 0.04 0 0.708826 0.04 0 0.711104 0.04 0 0.713385 0.04 0 0.715665 0.04 0 0.717944 0.04 0 0.72022 0.04 0 0.722497 0.04 0 0.724777 0.04 0 0.727057 0.04 0 0.729336 0.04 0 0.731615 0.04 0 0.733895 0.04 0 0.736176 0.04 0 0.738458 0.04 0 0.740739 0.04 0 0.743019 0.04 0 0.745298 0.04 0 0.747578 0.04 0 0.749857 0.04 0 0.752135 0.04 0 0.754413 0.04 0 0.756693 0.04 0 0.758975 0.04 0 0.761257 0.04 0 0.763539 0.04 0 0.76582 0.04 0 0.768102 0.04 0 0.770383 0.04 0 0.772664 0.04 0 0.774943 0.04 0 0.777224 0.04 0 0.779507 0.04 0 0.781789 0.04 0 0.784069 0.04 0 0.786349 0.04 0 0.788631 0.04 0 0.790911 0.04 0 0.79319 0.04 0 0.795469 0.04 0 0.79775 0.04 0 0.800032 0.04 0 0.802313 0.04 0 0.804603 0.04 0 0.806931 0.04 0 0.8093 0.04 0 0.811798 0.04 0 0.814441 0.04 0 0.817233 0.04 0 0.820276 0.04 0 0.82361 0.04 0 0.827285 0.04 0 0.831318 0.04 0 0.835684 0.04 0 0.840319 0.04 0 0.845136 0.04 0 0.850054 0.04 0 0.855021 0.04 0 0.860008 0.04 0 0.865003 0.04 0 0.870001 0.04 0 0.875 0.04 0 0.88 0.04 0 0.885 0.04 0 0.89 0.04 0 0.895 0.04 0 0.9 0.04 0 0.905 0.04 0 0.91 0.04 0 0.915 0.04 0 0.92 0.04 0 0.925 0.04 0 0.93 0.04 0 0.935 0.04 0 0.94 0.04 0 0.945 0.04 0 0.95 0.04 0 0.955 0.04 0 0.96 0.04 0 0.965 0.04 0 0.97 0.04 0 0.975 0.04 0 0.98 0.04 0 0.985 0.04 0 0.99 0.04 0 0.995 0.04 0 1 0.04 0 0 0.06 0 0.005 0.06 0 0.01 0.06 0 0.015 0.06 0 0.02 0.06 0 0.025 0.06 0 0.03 0.06 0 0.035 0.06 0 0.04 0.06 0 0.045 0.06 0 0.05 0.06 0 0.055 0.06 0 0.06 0.06 0 0.065 0.06 0 0.07 0.06 0 0.075 0.06 0 0.08 0.06 0 0.085 0.06 0 0.09 0.06 0 0.095 0.06 0 0.1 0.06 0 0.105 0.06 0 0.11 0.06 0 0.115 0.06 0 0.12 0.06 0 0.125 0.06 0 0.13 0.06 0 0.135 0.06 0 0.14 0.06 0 0.145 0.06 0 0.15 0.06 0 0.155 0.06 0 0.16 0.06 0 0.165 0.06 0 0.17 0.06 0 0.175 0.06 0 0.18 0.06 0 0.185 0.06 0 0.19 0.06 0 0.195 0.06 0 0.2 0.06 0 0.205 0.06 0 0.21 0.06 0 0.215 0.06 0 0.22 0.06 0 0.225 0.06 0 0.23 0.06 0 0.235 0.06 0 0.24 0.06 0 0.245 0.06 0 0.250001 0.06 0 0.255003 0.06 0 0.260009 0.06 0 0.265022 0.06 0 0.27005 0.06 0 0.275105 0.06 0 0.280201 0.06 0 0.285355 0.06 0 0.29058 0.06 0 0.29589 0.06 0 0.301296 0.06 0 0.306805 0.06 0 0.312425 0.06 0 0.318162 0.06 0 0.324025 0.06 0 0.33002 0.06 0 0.336154 0.06 0 0.342436 0.06 0 0.348873 0.06 0 0.355476 0.06 0 0.362253 0.06 0 0.369216 0.06 0 0.376377 0.06 0 0.383748 0.06 0 0.391343 0.06 0 0.399179 0.06 0 0.407271 0.06 0 0.41564 0.06 0 0.424306 0.06 0 0.433293 0.06 0 0.442626 0.06 0 0.452334 0.06 0 0.462447 0.06 0 0.472999 0.06 0 0.484017 0.06 0 0.495521 0.06 0 0.507487 0.06 0 0.519765 0.06 0 0.532039 0.06 0 0.54421 0.06 0 0.556268 0.06 0 0.568227 0.06 0 0.580115 0.06 0 0.591962 0.06 0 0.603787 0.06 0 0.615603 0.06 0 0.627415 0.06 0 0.639225 0.06 0 0.651034 0.06 0 0.662843 0.06 0 0.674658 0.06 0 0.676938 0.06 0 0.679218 0.06 0 0.681498 0.06 0 0.683778 0.06 0 0.686057 0.06 0 0.688335 0.06 0 0.690611 0.06 0 0.692887 0.06 0 0.695165 0.06 0 0.697439 0.06 0 0.699715 0.06 0 0.701993 0.06 0 0.
[...]
			<PointData Scalars="VitesseX">
				<DataArray Name="VitesseX" type="Float32" format="ascii">
 0 0 0 0 0 0 0 0 0 0 0 0 0 0 0 0 0 0 0 0 0 0 0 0 0 0 0 0 0 0 0 0 0 0 0 0 0 0 0 0 0 0 0 0 0 0 0 0 0 0 0 0 0 0 0 0 0 0 0 0 0 0 0 0 0 0 0 0 0 0 0 0 0 0 0 0 0 0 0 0 0 0 0 0 0 0 0 0 0 0 0 0 0 0 0 0 0 0 0 0 0 0 0 0 0 0 0 0 0 0 0 0 0 0 0 0 0 0 0 0 0 0 0 0 0 0 0 0 0 0 0 0 0 0 0 0 0 0 0 0 0 0 0 0 0 0 0 0 0 0 0 0 0 0 0 0 0 0 0 0 0 0 0 0 0 0 0 0 0 0 0 0 0 0 0 0 0 0 0 0 0 0 0 0 0 0 0 0 0 0 0 0 0 0 0 0 0 0 0 0 0 0 8.38081e-16 4.21167e-15 7.54628e-15 3.9133e-15 6.65501e-15 7.6589e-15 5.58e-15 7.48087e-15 7.44884e-15 7.33073e-15 2.3055e-15 6.53162e-15 1.05416e-14 8.33492e-15 8.61976e-15 9.06077e-15 7.25226e-15 1.41224e-14 1.05289e-14 -5.50509e-15 5.51922e-15 2.74603e-15 1.43161e-14 1.8128e-15 1.57715e-14 1.03823e-14 1.74573e-14 3.51332e-15 3.78886e-14 1.89751e-14 3.59934e-14 3.09719e-14 2.70789e-14 3.39408e-14 7.71207e-14 2.48986e-13 1.26902e-12 7.42358e-12 4.31913e-11 2.39613e-10 1.26476e-09 6.33767e-09 3.0086e-08 1.35003e-07 5.71133e-07 2.27129e-06 8.46225e-06 2.94225e-05 9.50331e-05 0.000283634 0.00077747 0.00194437 0.00440846 0.00901965 0.0166358 0.0277765 0.0423926 0.05995 0.0797351 0.101128 0.123708 0.14723 0.171567 0.196656 0.222472 0.249011 0.276282 0.304305 0.333103 0.362708 0.393157 0.424492 0.456757 0.490004 0.524286 0.559663 0.596194 0.633939 0.672952 0.713273 0.754901 0.797753 0.841552 0.885535 0.927667 0.962303 0.974519 0.965543 0.956495 0.947929 0.941526 0.937574 0.9355 0.934541 0.934116 0.933894 0.933737 0.933662 0.933921 0.933855 0.933786 0.933689 0.933563 0.933416 0.933253 0.933091 0.932938 0.932809 0.932707 0.932639 0.9326 0.932587 0.932599 0.932791 0.933373 0.933878 0.933649 0.933545 0.933418 0.933241 0.933115 0.932996 0.932947 0.932942 0.933302 0.934314 0.934291 0.934052 0.933711 0.93329 0.93293 0.932649 0.93242 0.932343 0.932419 0.933528 0.93414 0.933934 0.933519 0.93331 0.933161 0.933004 0.932974 0.933187 0.933281 0.933057 0.932763 0.932449 0.932232 0.931978 0.931798 0.931514 0.931468 0.932825 0.936445 0.935782 0.915578 0.928887 0.861793 0.812949 0.806977 0.700595 0.614098 0.502593 0.382239 0.261046 0.158281 0.0832083 0.0383494 0.0160305 0.00634456 0.00244844 0.000934966 0.000355473 0.000134873 5.11039e-05 1.93377e-05 7.30591e-06 2.75491e-06 1.03638e-06 3.88787e-07 1.45371e-07 5.41497e-08 2.00839e-08 7.41319e-09 2.72178e-09 9.93487e-10 3.60402e-10 1.29887e-10 4.6546e-11 1.65456e-11 5.92889e-12 1.99639e-12 7.85819e-13 1.99451e-13 7.64374e-14 1.47045e-14 -1.39881e-15 9.05101e-14 0 0 2.7524e-15 4.64212e-15 5.86884e-15 9.85176e-15 1.02556e-14 2.79135e-15 7.15692e-15 4.05145e-15 8.78227e-15 8.6804e-16 6.76771e-15 -1.54101e-15 1.38669e-14 2.38823e-15 7.00294e-15 1.00725e-14 8.62359e-15 6.33014e-15 4.60053e-15 -1.37023e-14 1.62042e-14 9.80646e-15 3.03105e-14 1.33273e-14 9.00985e-15 -1.73289e-14 3.09487e-14 1.31537e-14 6.27315e-14 1.63192e-14 1.74729e-14 2.59297e-14 3.08993e-14 5.13971e-14 4.0157e-14 2.58975e-13 1.2315e-12 7.41072e-12 4.32139e-11 2.39619e-10 1.26478e-09 6.33756e-09 3.00861e-08 1.35003e-07 5.71133e-07 2.27129e-06 8.46225e-06 2.94225e-05 9.50331e-05 0.000283634 0.00077747 0.00194437 0.00440846 0.00901965 0.0166358 0.0277765 0.0423926 0.05995 0.0797351 0.101128 0.123708 0.14723 0.171567 0.196656 0.222472 0.249011 0.276282 0.304305 0.333103 0.362708 0.393157 0.424492 0.456757 0.490004 0.524286 0.559663 0.596194 0.633939 0.672952 0.713273 0.754901 0.797753 0.841552 0.885535 0.927667 0.962303 0.974519 0.965543 0.956495 0.947929 0.941526 0.937574 0.9355 0.934541 0.934116 0.933894 0.933737 0.933662 0.933921 0.933855 0.933786 0.933689 0.933563 0.933416 0.933253 0.933091 0.932938 0.932809 0.932707 0.932639 0.9326 0.932587 0.932599 0.932791 0.933373 0.933878 0.933649 0.933545 0.933418 0.933241 0.933115 0.932996 0.932947 0.932942 0.933302 0.934314 0.934291 0.934052 0.933711 0.93329 0.93293 0.932649 0.93242 0.932343 0.932419 0.933528 0.93414 0.933934 0.933519 0.93331 0.933161 0.933004 0.932974 0.933187 0.933281 0.933057 0.932763 0.932449 0.932232 0.931978 0.931798 0.931514 0.931468 0.932825 0.936445 0.935782 0.915578 0.928887 0.861793 0.812949 0.806977 0.700595 0.614098 0.502593 0.382239 0.261046 0.158281 0.0832083 0.0383494 0.0160305 0.00634456 0.00244844 0.000934966 0.000355473 0.000134873 5.11039e-05 1.93377e-05 7.30591e-06 2.75491e-06 1.03638e-06 3.88788e-07 1.45371e-07 5.41497e-08 2.00838e-08 7.41324e-09 2.72175e-09 9.93547e-10 3.60461e-10 1.29829e-10 4.65893e-11 1.65773e-11 5.90087e-12 2.07091e-12 7.21212e-13 1.9761e-13 2.21895e-14 -2.11139e-14 4.65899e-14 1.17441e-14 0 0 4.53981e-15 5.41371e-15 4.6395e-15 9.99959e-15 8.93534e-15 1.11594e-14 4.62699e-15 2.53171e-15 6.06263e-15 6.1819e-16 1.00278e-14 -7.72203e-15 2.02623e-14 1.86122e-14 -1.45131e-14 -2.95034e-15 -6.93147e-15 8.6841e-15 5.6522e-15 2.76225e-15 1.25025e-14 3.20522e-15 2.8897e-14 1.11123e-14 1.00117e-14 3.28319e-16 -3.11313e-15 5.50884e-14 2.76262e-14 5.26603e-14 1.50685e-14 -8.83785e-17 4.14052e-14 9.07344e-14 6.40685e-14 1.93733e-13 1.2001e-12 7.41718e-12 4.31543e-11 2.39665e-10 1.26475e-09 6.33756e-09 3.00861e-08 1.35003e-07 5.71133e-07 2.27129e-06 8.46225e-06 2.94225e-05 9.50331e-05 0.000283634 0.00077747 0.00194437 0.00440846 0.00901965 0.0166358 0.0277765 0.0423926 0.05995 0.0797351 0.101128 0.123708 0.14723 0.171567 0.196656 0.222472 0.249011 0.276282 0.304305 0.333103 0.362708 0.393157 0.424492 0.456757 0.490004 0.524286 0.559663 0.596194 0.633939 0.672952 0.713273 0.754901 0.797753 0.841552 0.885535 0.927667 0.962303 0.974519 0.965543 0.956495 0.947929 0.941526 0.937574 0.9355 0.934541 0.934116 0.933894 0.933737 0.933662 0.933921 0.933855 0.933786 0.933689 0.933563 0.933416 0.933253 0.933091 0.932938 0.932809 0.932707 0.932639 0.9326 0.932587 0.932599 0.932791 0.933373 0.933878 0.933649 0.933545 0.933418 0.933241 0.933115 0.932996 0.932947 0.932942 0.933302 0.934314 0.934291 0.934052 0.933711 0.93329 0.93293 0.932649 0.93242 0.932343 0.932419 0.933528 0.93414 0.933934 0.933519 0.93331 0.933161 0.933004 0.932974 0.933187 0.933281 0.933057 0.932763 0.932449 0.932232 0.931978 0.931798 0.931514 0.931468 0.932825 0.936445 0.935782 0.915578 0.928887 0.861793 0.812949 0.806977 0.700595 0.614098 0.502593 0.382239 0.261046 0.158281 0.0832083 0.0383494 0.0160305 0.00634456 0.00244844 0.000934966 0.000355473 0.000134873 5.11039e-05 1.93377e-05 7.30591e-06 2.75491e-06 1.03638e-06 3.88787e-07 1.45371e-07 5.41497e-08 2.00839e-08 7.41317e-09 2.72189e-09 9.93478e-10 3.60432e-10 1.29926e-10 4.65221e-11 1.64665e-11 6.01482e-12 2.17404e-12 5.14107e-13 2.31428e-13 3.90705e-14 -1.33066e-13 6.11513e-14 -9.81449e-15 0 0 3.48136e-15 5.37434e-15 5.57226e-15 3.81574e-15 8.05601e-15 1.93132e-14 -5.76508e-16 -6.53906e-16 3.695e-15 1.27285e-14 5.33132e-16 -1.01362e-14 1.55361e-14 1.44157e-14 -1.62341e-14 -8.30603e-15 1.94099e-15 9.47247e-15 1.63399e-14 5.80208e-15 -1.06445e-14 -1.24783e-14 7.18751e-15 2.06141e-16 1.18431e-14 4.38672e-14 -2.16946e-14 5.83709e-14 3.07422e-14 5.88692e-14 5.14024e-14 -9.79153e-15 2.02817e-14 8.78387e-14 1.18266e-13 2.01491e-13 1.15357e-12 7.40233e-12 4.316e-11 2.39593e-10 1.26474e-09 6.3376e-09 3.0086e-08 1.35003e-07 5.71133e-07 2.27129e-06 8.46225e-06 2.94225e-05 9.50331e-05 0.000283634 0.00077747 0.00194437 0.00440846 0.00901965 0.0166358 0.0277765 0.0423926 0.05995 0.0797351 0.101128 0.123708 0.14723 0.171567 0.196656 0.222472 0.249011 0.276282 0.304305 0.333103 0.362708 0.393157 0.424492 0.456757 0.490004 0.524286 0.559663 0.596194 0.633939 0.672952 0.713273 0.754901 0.797753 0.841552 0.885535 0.927667 0.962303 0.974519 0.965543 0.956495 0.947929 0.941526 0.937574 0.9355 0.934541 0.934116 0.933894 0.933737 0.933662 0.933921 0.933855 0.933786 0.933689 0.933563 0.933416 0.933253 0.933091 0.932938 0.932809 0.932707 0.932639 0.9326 0.932587 0.932599 0.932791 0.933373 0.933878 0.933649 0.933545 0.933418 0.933241 0.933115 0.932996 0.932947 0.932942 0.933302 0.934314 0.934291 0.934052 0.933711 0.93329 0.93293 0.932649 0.93242 0.932343 0.932419 0.933528 0.93414 0.933934 0.933519 0.93331 0.933161 0.933004 0.932974 0.933187 0.933281 0.933057 0.932763 0.932449 0.932232 0.931978 0.931798 0.931514 0.931468 0.932825 0.936445 0.935782 0.915578 0.928887 0.861793 0.812949 0.806977 0.700595 0.614098 0.502593 0.382239 0.261046 0.158281 0.0832083 0.0383494 0.0160305 0.00634456 0.00244844 0.000934966 0.000355473 0.000134873 5.11039e-05 1.93377e-05 7.30591e-06 2.75491e-06 1.03638e-06 3.88787e-07 1.45371e-07 5.41498e-08 2.00839e-08 7.41327e-09 2.7219e-09 9.93475e-10 3.60327e-10 1.30036e-10 4.65808e-11 1.65451e-11 5.8962e-12 2.16539e-12 4.52496e-13 3.49216e-14 1.26949e-13 -6.46969e-14 1.11871e-13 -3.86497e-14 0 0 0 0 0 0 0 0 0 0 0 0 0 0 0 0 0 0 0 0 0 0 0 0 0 0 0 0 0 0 0 0 0 0 0 0 0 0 0 0 0 0 0 0 0 0 0 0 0 0 0 0 0 0 0 0 0 0 0 0 0 0 0 0 0 0 0 0 0 0 0 0 0 0 0 0 0 0 0 0 0 0 0 0 0 0 0 0 0 0 0 0 0 0 0 0 0 0 0 0 0 0 0 0 0 0 0 0 0 0 0 0 0 0 0 0 0 0 0 0 0 0 0 0 0 0 0 0 0 0 0 0 0 0 0 0 0 0 0 0 0 0 0 0 0 0 0 0 0 0 0 0 0 0 0 0 0 0 0 0 0 0 0 0 0 0 0 0 0 0 0 0 0 0 0 0 0 0 0 0 0 0 0 0 0 0 0 0 0 0 0 0 0 0 0 0 0 0 0 0 0 0
				</DataArray>
				<DataArray Name="VitesseY" type="Float32" format="ascii">
 0 0 0 0 0 0 0 0 0 0 0 0 0 0 0 0 0 0 0 0 0 0 0 0 0 0 0 0 0 0 0 0 0 0 0 0 0 0 0 0 0 0 0 0 0 0 0 0 0 0 0 0 0 0 0 0 0 0 0 0 0 0 0 0 0 0 0 0 0 0 0 0 0 0 0 0 0 0 0 0 0 0 0 0 0 0 0 0 0 0 0 0 0 0 0 0 0 0 0 0 0 0 0 0 0 0 0 0 0 0 0 0 0 0 0 0 0 0 0 0 0 0 0 0 0 0 0 0 0 0 0 0 0 0 0 0 0 0 0 0 0 0 0 0 0 0 0 0 0 0 0 0 0 0 0 0 0 0 0 0 0 0 0 0 0 0 0 0 0 0 0 0 0 0 0 0 0 0 0 0 0 0 0 0 0 0 0 0 0 0 0 0 0 0 0 0 0 0 0 0 0 0 1.68789e-15 2.00664e-15 3.26777e-15 3.14812e-15 1.86383e-15 2.4223e-15 2.35134e-15 1.65184e-15 2.85639e-15 3.78101e-15 2.60488e-15 3.74001e-16 -2.40964e-16 8.42395e-18 -5.17494e-16 -2.60358e-15 7.17572e-17 3.59422e-15 3.71075e-15 1.26974e-15 -2.81639e-16 9.94658e-16 3.11781e-15 2.00071e-15 -1.24542e-15 -2.68512e-15 -2.17462e-15 -1.52754e-15 1.13417e-15 5.78396e-15 8.26243e-15 9.23118e-15 1.53924e-15 -2.66723e-16 7.47552e-15 1.52688e-14 1.6638e-14 -1.8481e-15 -5.40199e-15 -3.7634e-15 -8.4654e-15 -1.97901e-14 -1.66248e-14 -7.08329e-15 -4.31987e-14 -3.98627e-14 8.78555e-15 2.77184e-14 1.68416e-14 -8.07614e-15 6.90593e-15 1.36153e-14 4.38459e-15 1.60214e-14 -6.47431e-15 -1.74861e-14 -1.32451e-16 1.09765e-15 -1.01203e-14 -2.11933e-15 -1.46602e-14 -3.90483e-14 -4.41736e-14 -3.76432e-14 -1.02679e-14 -6.59298e-17 -2.41114e-14 -5.22415e-14 -1.90915e-14 1.40122e-14 -1.76705e-14 -2.30004e-14 -5.89655e-15 -7.66702e-15 -4.99249e-16 1.73545e-14 1.90911e-16 -4.12505e-14 -1.68663e-14 2.58166e-14 2.06303e-14 -3.47168e-15 -2.55576e-14 4.9542e-15 3.98773e-14 3.39385e-14 -6.56136e-14 -2.38118e-13 -3.77074e-13 -4.10528e-13 -2.65151e-13 3.46621e-14 4.42831e-13 8.31331e-13 1.06395e-12 1.12365e-12 1.05674e-12 9.39106e-13 6.02411e-13 2.3207e-13 -3.62372e-13 -5.29761e-13 -8.87285e-13 -1.35816e-12 -1.72137e-12 -1.55166e-12 5.69127e-13 4.22819e-12 7.75224e-12 9.6728e-12 9.57935e-12 8.47236e-12 7.25176e-12 6.10518e-12 5.08211e-12 4.14522e-12 3.31584e-12 2.59825e-12 1.98947e-12 1.52635e-12 1.15913e-12 8.51151e-13 6.26454e-13 4.76524e-13 3.73203e-13 2.72615e-13 1.48483e-13 5.59233e-14 -2.91812e-15 -3.76377e-14 -5.96677e-14 -6.89144e-14 -4.29012e-14 4.06251e-14 1.44824e-13 2.26582e-13 2.90335e-13 3.34207e-13 4.12007e-13 5.27382e-13 6.50581e-13 7.73891e-13 9.27909e-13 1.03118e-12 1.09848e-12 1.21383e-12 1.31573e-12 1.41962e-12 1.49419e-12 1.57677e-12 1.65311e-12 1.65597e-12 1.70193e-12 1.75284e-12 1.72618e-12 1.60163e-12 1.4641e-12 1.41842e-12 1.26499e-12 1.10964e-12 9.18846e-13 6.94302e-13 4.84393e-13 2.58227e-13 1.24008e-13 4.07822e-14 -4.12275e-14 -8.38465e-14 -6.23263e-14 -6.88813e-14 -7.67267e-14 -7.66339e-14 -9.04613e-14 -6.75686e-14 -6.01501e-14 -8.17459e-14 -7.33203e-14 -6.91774e-14 -7.85261e-14 -7.02849e-14 -6.36035e-14 -6.97257e-14 -7.12729e-14 -5.22962e-14 -4.38364e-14 -5.12237e-14 -6.92849e-14 -9.03331e-14 -6.65068e-14 -4.25412e-14 2.45256e-16 4.81534e-14 1.79586e-14 6.77667e-15 -1.08918e-14 -3.30921e-14 -1.49059e-16 4.23538e-15 -7.52852e-15 0 0 3.54237e-15 3.9768e-15 2.32392e-15 3.39732e-15 7.16348e-15 6.37305e-15 5.77168e-15 6.03387e-15 4.1334e-15 1.9955e-15 2.62334e-15 3.94009e-15 3.36122e-15 2.28708e-15 1.08907e-15 2.85976e-15 8.49842e-16 -4.21707e-15 -7.81859e-15 -9.0059e-15 -6.64709e-15 -3.54309e-15 -2.40889e-17 8.19003e-15 1.24546e-14 5.31831e-15 1.23713e-15 6.64559e-15 1.25279e-14 1.34148e-14 5.4955e-15 -1.34386e-15 6.11817e-15 1.31239e-14 4.95365e-16 -1.39414e-14 -2.23326e-14 -1.63444e-14 -1.0381e-14 -4.68655e-15 6.7809e-15 -3.08645e-15 -1.65547e-14 -3.53657e-14 -3.28221e-14 -2.94817e-14 -4.23448e-14 -2.69617e-14 -5.89624e-15 -2.21135e-16 -1.8154e-14 -4.04273e-16 -1.36026e-16 -2.34218e-14 -2.14484e-15 1.50043e-14 1.2966e-14 4.35677e-15 1.88726e-15 6.85421e-15 1.55388e-14 3.4371e-14 4.48964e-14 3.81748e-14 2.58921e-14 -6.60657e-15 -1.5695e-14 2.24701e-14 2.4143e-15 -6.34014e-15 5.26484e-15 -4.25141e-15 6.91918e-17 3.01213e-15 -6.11519e-15 -5.53671e-15 3.45884e-15 2.16327e-14 1.37808e-14 1.01557e-15 2.34938e-14 5.49335e-14 3.27816e-14 -2.10604e-15 3.34207e-14 4.17201e-14 -1.09334e-13 -3.97308e-13 -6.07658e-13 -6.56311e-13 -4.51827e-13 6.50885e-14 7.241e-13 1.33221e-12 1.73649e-12 1.83033e-12 1.71366e-12 1.55248e-12 9.78442e-13 3.40073e-13 -6.1428e-13 -8.36475e-13 -1.37726e-12 -2.1674e-12 -2.79935e-12 -2.5191e-12 9.23002e-13 6.80479e-12 1.25342e-11 1.55966e-11 1.54196e-11 1.37304e-11 1.1812e-11 9.91184e-12 8.19843e-12 6.66494e-12 5.28527e-12 4.14216e-12 3.23229e-12 2.49241e-12 1.81585e-12 1.32572e-12 1.03055e-12 7.64102e-13 5.5437e-13 4.22189e-13 2.62661e-13 8.37713e-14 -3.66318e-14 -1.27075e-13 -9.84156e-14 -2.1151e-14 5.16645e-14 1.32502e-13 2.62589e-13 4.23754e-13 5.18608e-13 6.26898e-13 7.33327e-13 8.80905e-13 1.08161e-12 1.26908e-12 1.45768e-12 1.71611e-12 1.93868e-12 1.97891e-12 2.02109e-12 2.12969e-12 2.34224e-12 2.46987e-12 2.50427e-12 2.64768e-12 2.71355e-12 2.69734e-12 2.63349e-12 2.5942e-12 2.47808e-12 2.29144e-12 1.99473e-12 1.76933e-12 1.55352e-12 1.21457e-12 8.47539e-13 5.23707e-13 2.37542e-13 7.40779e-15 -4.30813e-14 -6.36785e-14 -8.69311e-14 -7.28967e-14 -7.95136e-14 -8.03268e-14 -5.78588e-14 -9.60238e-14 -1.01185e-13 -6.12761e-14 -6.23568e-14 -7.02889e-14 -6.53235e-14 -6.76453e-14 -6.91169e-14 -4.75229e-14 -3.27846e-14 -5.36738e-14 -5.24491e-14 -4.06501e-14 -1.50622e-14 3.57102e-14 1.21472e-14 -1.54098e-14 -3.94108e-14 -8.6435e-14 -4.4668e-14 -3.09729e-14 -3.00635e-14 -2.19152e-14 -7.73784e-14 -7.87434e-14 -7.46486e-14 0 0 2.79824e-15 2.98449e-15 4.52334e-15 2.98808e-15 -8.41654e-16 1.59575e-15 3.80284e-15 2.78062e-15 3.37378e-15 4.84861e-15 4.88497e-15 2.88388e-15 3.44426e-15 1.00903e-14 9.95433e-15 -4.39015e-16 -5.474e-15 -3.73433e-15 6.75478e-16 6.10107e-15 7.104e-15 1.39736e-15 -4.27549e-15 -1.31087e-14 -1.78679e-14 -5.89046e-15 -6.07983e-15 -9.43344e-15 -1.35395e-14 -1.39408e-14 2.23201e-15 1.93317e-15 -9.36761e-15 -3.93159e-15 2.44233e-14 2.85614e-14 1.27461e-14 6.86024e-16 -1.86231e-14 -2.77566e-14 -3.55706e-14 -3.33443e-14 -2.65188e-14 -2.03291e-14 -2.51057e-14 -3.86846e-14 -2.02529e-14 -1.63281e-14 -1.83781e-14 2.54151e-15 2.24183e-14 1.04849e-14 1.7196e-15 2.04463e-14 1.38413e-14 -9.37284e-15 -1.4088e-14 -2.34422e-15 1.68441e-14 2.42126e-14 3.52133e-14 3.24099e-14 2.6155e-14 -9.53427e-16 -3.80818e-14 -4.98279e-15 3.8945e-14 1.53134e-14 1.97937e-14 2.55619e-14 1.32783e-14 3.88866e-14 3.07938e-14 1.7163e-14 1.38623e-14 -1.89909e-14 -5.84709e-15 -9.55376e-15 -1.00843e-14 3.25718e-14 3.46534e-14 -2.12797e-14 -3.14582e-15 6.98506e-14 5.94224e-14 2.31739e-14 -1.22504e-13 -3.85501e-13 -6.21399e-13 -6.5845e-13 -4.24241e-13 5.83951e-14 7.21609e-13 1.34059e-12 1.7199e-12 1.83217e-12 1.72828e-12 1.52867e-12 9.67724e-13 3.40814e-13 -6.11246e-13 -9.19925e-13 -1.43871e-12 -2.21623e-12 -2.83635e-12 -2.57299e-12 8.66185e-13 6.81867e-12 1.25542e-11 1.56755e-11 1.54837e-11 1.36523e-11 1.16844e-11 9.84584e-12 8.20369e-12 6.65047e-12 5.31666e-12 4.19519e-12 3.24632e-12 2.49636e-12 1.85661e-12 1.39928e-12 1.06067e-12 8.334e-13 6.80669e-13 4.7094e-13 2.47973e-13 6.09165e-14 -4.61433e-14 -1.19899e-13 -1.6726e-13 -1.34076e-13 -5.16349e-14 3.97895e-14 1.78137e-13 3.64937e-13 4.87391e-13 5.67559e-13 7.21089e-13 9.11708e-13 1.10563e-12 1.30409e-12 1.54083e-12 1.72183e-12 1.86276e-12 2.03771e-12 2.15847e-12 2.29351e-12 2.41488e-12 2.51203e-12 2.60637e-12 2.63106e-12 2.72749e-12 2.8061e-12 2.75305e-12 2.60199e-12 2.40025e-12 2.28385e-12 2.02105e-12 1.79789e-12 1.44054e-12 1.07432e-12 8.1697e-13 4.93096e-13 2.50079e-13 4.56104e-14 -6.28298e-14 -1.07737e-13 -9.4862e-14 -9.26956e-14 -7.81234e-14 -7.97274e-14 -9.05723e-14 -8.1454e-14 -7.07472e-14 -7.68031e-14 -7.55717e-14 -6.36957e-14 -7.11551e-14 -8.47659e-14 -1.14337e-13 -1.22523e-13 -9.9953e-14 -4.67711e-14 -4.58136e-14 -4.22545e-14 -5.1342e-14 -1.26826e-13 -8.6363e-14 -5.11477e-14 -7.17195e-14 -2.38348e-14 -1.11411e-14 -5.06578e-14 -9.49346e-14 -9.03115e-14 -5.88128e-14 -8.16745e-14 -8.71042e-14 0 0 1.04872e-14 1.00294e-14 8.88148e-15 8.96218e-15 1.10048e-14 1.04031e-14 9.16957e-15 8.00669e-15 5.8422e-15 6.77138e-15 7.61081e-15 6.49369e-15 4.09422e-15 -4.78904e-15 -6.06341e-15 2.58403e-15 8.58107e-15 9.09217e-15 7.70508e-15 5.60175e-15 -4.30827e-16 -4.52161e-15 -8.22237e-15 -7.40447e-15 -4.84886e-15 -5.49732e-15 7.7695e-16 4.01523e-16 6.12734e-15 8.85465e-15 3.26823e-15 1.03197e-14 1.38523e-14 2.38951e-15 -1.31709e-14 -1.77713e-15 4.31266e-15 1.11914e-15 1.80578e-14 1.05695e-14 -1.3384e-15 4.01567e-15 2.9014e-15 -2.02664e-15 -6.43127e-15 5.49639e-16 -1.1504e-14 -1.88259e-14 -2.63299e-14 -2.51745e-14 1.46215e-15 -1.34557e-16 -1.01464e-14 9.91934e-16 1.68724e-15 5.22081e-15 4.69411e-16 -2.05054e-14 -2.73216e-14 -1.91703e-14 5.14023e-15 2.12502e-14 1.09482e-14 8.21779e-15 2.15827e-14 2.08687e-14 7.13471e-15 1.59312e-14 1.56766e-14 1.05878e-14 9.29544e-15 3.60671e-15 1.08602e-14 -6.16586e-15 -2.49193e-14 1.36608e-14 4.18741e-14 3.73717e-14 2.50858e-14 6.92223e-15 -1.71007e-14 1.63871e-14 5.37545e-14 -9.37759e-16 2.45373e-14 3.49839e-14 -9.87054e-14 -2.65276e-13 -3.9176e-13 -4.17923e-13 -2.69514e-13 5.93107e-14 4.49928e-13 8.12186e-13 1.06641e-12 1.13389e-12 1.06344e-12 9.61434e-13 6.03802e-13 2.15424e-13 -3.51707e-13 -4.69169e-13 -8.50957e-13 -1.36343e-12 -1.73486e-12 -1.5705e-12 5.15471e-13 4.18799e-12 7.70329e-12 9.58929e-12 9.54959e-12 8.52152e-12 7.34609e-12 6.16075e-12 5.07891e-12 4.13199e-12 3.31312e-12 2.56064e-12 2.0049e-12 1.56392e-12 1.06665e-12 8.33213e-13 6.59814e-13 4.54335e-13 3.93846e-13 3.12337e-13 1.88936e-13 1.0366e-13 6.77879e-14 -1.30901e-14 -4.41435e-14 -1.25264e-14 -4.34943e-14 8.48219e-14 2.16528e-13 2.45836e-13 3.06536e-13 3.63906e-13 4.22069e-13 5.51563e-13 6.97753e-13 7.8007e-13 8.4699e-13 1.03821e-12 1.20057e-12 1.26361e-12 1.35475e-12 1.42572e-12 1.53077e-12 1.60558e-12 1.67681e-12 1.6821e-12 1.69814e-12 1.79403e-12 1.80301e-12 1.7742e-12 1.67632e-12 1.4405e-12 1.09866e-12 9.3506e-13 8.99231e-13 7.39331e-13 5.46905e-13 4.02568e-13 1.48259e-13 -5.1377e-14 -6.40312e-14 -3.8516e-14 -5.95971e-14 -6.86962e-14 -2.18673e-14 -2.77114e-14 -3.47568e-14 -6.4295e-15 -2.79712e-14 -3.87789e-14 -6.36393e-14 -1.02171e-13 -6.30245e-14 -1.61848e-14 9.57072e-15 1.03728e-14 -1.06692e-14 -5.87987e-14 -4.43765e-14 -1.93779e-14 -8.28969e-15 4.04664e-14 1.30157e-15 8.06696e-15 6.29498e-14 4.89985e-15 -3.97544e-14 -1.78839e-14 -3.81563e-14 -6.96483e-14 -6.2231e-14 -9.63598e-15 1.31856e-15 0 0 0 0 0 0 0 0 0 0 0 0 0 0 0 0 0 0 0 0 0 0 0 0 0 0 0 0 0 0 0 0 0 0 0 0 0 0 0 0 0 0 0 0 0 0 0 0 0 0 0 0 0 0 0 0 0 0 0 0 0 0 0 0 0 0 0 0 0 0 0 0 0 0 0 0 0 0 0 0 0 0 0 0 0 0 0 0 0 0 0 0 0 0 0 0 0 0 0 0 0 0 0 0 0 0 0 0 0 0 0 0 0 0 0 0 0 0 0 0 0 0 0 0 0 0 0 0 0 0 0 0 0 0 0 0 0 0 0 0 0 0 0 0 0 0 0 0 0 0 0 0 0 0 0 0 0 0 0 0 0 0 0 0 0 0 0 0 0 0 0 0 0 0 0 0 0 0 0 0 0 0 0 0 0 0 0 0 0 0 0 0 0 0 0 0 0 0 0 0 0 0
				</DataArray>
			</PointData>
			<CellData Scalars="Density">
				<DataArray Name="Density" type="Float32" format="ascii">