<?xml version="1.0"?>
<VTKFile type="PolyData">
	<PolyData>
		<Piece NumberOfPoints="1206" NumberOfPolys="1000">
			<Points>
				<DataArray type="Float32" NumberOfComponents="3" format="ascii">
 0 0 0 0.005 0 0 0.01 0 0 0.015 0 0 0.02 0 0 0.025 0 0 0.03 0 0 0.035 0 0 0.04 0 0 0.045 0 0 0.05 0 0 0.055 0 0 0.06 0 0 0.065 0 0 0.07 0 0 0.075 0 0 0.08 0 0 0.085 0 0 0.09 0 0 0.095 0 0 0.1 0 0 0.105 0 0 0.11 0 0 0.115 0 0 0.12 0 0 0.125 0 0 0.13 0 0 0.135 0 0 0.14 0 0 0.145 0 0 0.15 0 0 0.155 0 0 0.16 0 0 0.165 0 0 0.17 0 0 0.175 0 0 0.18 0 0 0.185 0 0 0.19 0 0 0.195 0 0 0.2 0 0 0.205 0 0 0.21 0 0 0.215 0 0 0.22 0 0 0.225 0 0 0.23 0 0 0.235 0 0 0.24 0 0 0.245 0 0 0.25 0 0 0.255 0 0 0.260001 0 0 0.265002 0 0 0.270005 0 0 0.275014 0 0 0.280034 0 0 0.285076 0 0 0.290153 0 0 0.295283 0 0 0.300483 0 0 0.305768 0 0 0.311149 0 0 0.316638 0 0 0.322242 0 0 0.32797 0 0 0.33383 0 0 0.339829 0 0 0.345976 0 0 0.352279 0 0 0.358749 0 0 0.365396 0 0 0.372231 0 0 0.379266 0 0 0.386516 0 0 0.393995 0 0 0.401719 0 0 0.409708 0 0 0.41798 0 0 0.426561 0 0 0.435473 0 0 0.444746 0 0 0.454411 0 0 0.464501 0 0 0.475053 0 0 0.486098 0 0 0.497654 0 0 0.509686 0 0 0.522 0 0 0.534266 0 0 0.54642 0 0 0.558456 0 0 0.570395 0 0 0.582269 0 0 0.594108 0 0 0.605929 0 0 0.617744 0 0 0.629556 0 0 0.641366 0 0 0.653174 0 0 0.664985 0 0 0.667266 0 0 0.669548 0 0 0.671829 0 0 0.674111 0 0 0.676391 0 0 0.678671 0 0 0.680948 0 0 0.683225 0 0 0.685503 0 0 0.687779 0 0 0.690055 0 0 0.692335 0 0 0.694614 0 0 0.696892 0 0 0.699168 0 0 0.701444 0 0 0.703723 0 0 0.706001 0 0 0.708277 0 0 0.710552 0 0 0.71283 0 0 0.715112 0 0 0.717394 0 0 0.719675 0 0 0.721955 0 0 0.724233 0 0 0.726512 0 0 0.728791 0 0 0.73107 0 0 0.733347 0 0 0.735627 0 0 0.737911 0 0 0.740195 0 0 0.742477 0 0 0.744758 0 0 0.747039 0 0 0.749319 0 0 0.751598 0 0 0.753876 0 0 0.756153 0 0 0.758433 0 0 0.760718 0 0 0.763002 0 0 0.765284 0 0 0.767566 0 0 0.769849 0 0 0.772129 0 0 0.774409 0 0 0.77669 0 0 0.778975 0 0 0.781257 0 0 0.783534 0 0 0.785814 0 0 0.788125 0 0 0.790467 0 0 0.792918 0 0 0.795483 0 0 0.7982 0 0 0.80112 0 0 0.804319 0 0 0.807834 0 0 0.811708 0 0 0.815931 0 0 0.820455 0 0 0.825201 0 0 0.830082 0 0 0.835032 0 0 0.840012 0 0 0.845005 0 0 0.850002 0 0 0.855001 0 0 0.86 0 0 0.865 0 0 0.87 0 0 0.875 0 0 0.88 0 0 0.885 0 0 0.89 0 0 0.895 0 0 0.9 0 0 0.905 0 0 0.91 0 0 0.915 0 0 0.92 0 0 0.925 0 0 0.93 0 0 0.935 0 0 0.94 0 0 0.945 0 0 0.95 0 0 0.955 0 0 0.96 0 0 0.965 0 0 0.97 0 0 0.975 0 0 0.98 0 0 0.985 0 0 0.99 0 0 0.995 0 0 1 0 0 0 0.02 0 0.005 0.02 0 0.01 0.02 0 0.015 0.02 0 0.02 0.02 0 0.025 0.02 0 0.03 0.02 0 0.035 0.02 0 0.04 0.02 0 0.045 0.02 0 0.05 0.02 0 0.055 0.02 0 0.06 0.02 0 0.065 0.02 0 0.07 0.02 0 0.075 0.02 0 0.08 0.02 0 0.085 0.02 0 0.09 0.02 0 0.095 0.02 0 0.1 0.02 0 0.105 0.02 0 0.11 0.02 0 0.115 0.02 0 0.12 0.02 0 0.125 0.02 0 0.13 0.02 0 0.135 0.02 0 0.14 0.02 0 0.145 0.02 0 0.15 0.02 0 0.155 0.02 0 0.16 0.02 0 0.165 0.02 0 0.17 0.02 0 0.175 0.02 0 0.18 0.02 0 0.185 0.02 0 0.19 0.02 0 0.195 0.02 0 0.2 0.02 0 0.205 0.02 0 0.21 0.02 0 0.215 0.02 0 0.22 0.02 0 0.225 0.02 0 0.23 0.02 0 0.235 0.02 0 0.24 0.02 0 0.245 0.02 0 0.25 0.02 0 0.255 0.02 0 0.260001 0.02 0 0.265002 0.02 0 0.270005 0.02 0 0.275014 0.02 0 0.280034 0.02 0 0.285076 0.02 0 0.290153 0.02 0 0.295283 0.02 0 0.300483 0.02 0 0.305768 0.02 0 0.311149 0.02 0 0.316638 0.02 0 0.322242 0.02 0 0.32797 0.02 0 0.33383 0.02 0 0.339829 0.02 0 0.345976 0.02 0 0.352279 0.02 0 0.358749 0.02 0 0.365396 0.02 0 0.372231 0.02 0 0.379266 0.02 0 0.386516 0.02 0 0.393995 0.02 0 0.401719 0.02 0 0.409708 0.02 0 0.41798 0.02 0 0.426561 0.02 0 0.435473 0.02 0 0.444746 0.02 0 0.454411 0.02 0 0.464501 0.02 0 0.475053 0.02 0 0.486098 0.02 0 0.497654 0.02 0 0.509686 0.02 0 0.522 0.02 0 0.534266 0.02 0 0.54642 0.02 0 0.558456 0.02 0 0.570395 0.02 0 0.582269 0.02 0 0.594108 0.02 0 0.605929 0.02 0 0.617744 0.02 0 0.629556 0.02 0 0.641366 0.02 0 0.653174 0.02 0 0.664985 0.02 0 0.667266 0.02 0 0.669548 0.02 0 0.671829 0.02 0 0.674111 0.02 0 0.676391 0.02 0 0.678671 0.02 0 0.680948 0.02 0 0.683225 0.02 0 0.685503 0.02 0 0.687779 0.02 0 0.690055 0.02 0 0.692335 0.02 0 0.694614 0.02 0 0.696892 0.02 0 0.699168 0.02 0 0.701444 0.02 0 0.703723 0.02 0 0.706001 0.02 0 0.708277 0.02 0 0.710552 0.02 0 0.71283 0.02 0 0.715112 0.02 0 0.717394 0.02 0 0.719675 0.02 0 0.721955 0.02 0 0.724233 0.02 0 0.726512 0.02 0 0.728791 0.02 0 0.73107 0.02 0 0.733347 0.02 0 0.735627 0.02 0 0.737911 0.02 0 0.740195 0.02 0 0.742477 0.02 0 0.744758 0.02 0 0.747039 0.02 0 0.749319 0.02 0 0.751598 0.02 0 0.753876 0.02 0 0.756153 0.02 0 0.758433 0.02 0 0.760718 0.02 0 0.763002 0.02 0 0.765284 0.02 0 0.767566 0.02 0 0.769849 0.02 0 0.772129 0.02 0 0.774409 0.02 0 0.77669 0.02 0 0.778975 0.02 0 0.781257 0.02 0 0.783534 0.02 0 0.785814 0.02 0 0.788125 0.02 0 0.790467 0.02 0 0.792918 0.02 0 0.795483 0.02 0 0.7982 0.02 0 0.80112 0.02 0 0.804319 0.02 0 0.807834 0.02 0 0.811708 0.02 0 0.815931 0.02 0 0.820455 0.02 0 0.825201 0.02 0 0.830082 0.02 0 0.835032 0.02 0 0.840012 0.02 0 0.845005 0.02 0 0.850002 0.02 0 0.855001 0.02 0 0.86 0.02 0 0.865 0.02 0 0.87 0.02 0 0.875 0.02 0 0.88 0.02 0 0.885 0.02 0 0.89 0.02 0 0.895 0.02 0 0.9 0.02 0 0.905 0.02 0 0.91 0.02 0 0.915 0.02 0 0.92 0.02 0 0.925 0.02 0 0.93 0.02 0 0.935 0.02 0 0.94 0.02 0 0.945 0.02 0 0.95 0.02 0 0.955 0.02 0 0.96 0.02 0 0.965 0.02 0 0.97 0.02 0 0.975 0.02 0 0.98 0.02 0 0.985 0.02 0 0.99 0.02 0 0.995 0.02 0 1 0.02 0 0 0.04 0 0.005 0.04 0 0.01 0.04 0 0.015 0.04 0 0.02 0.04 0 0.025 0.04 0 0.03 0.04 0 0.035 0.04 0 0.04 0.04 0 0.045 0.04 0 0.05 0.04 0 0.055 0.04 0 0.06 0.04 0 0.065 0.04 0 0.07 0.04 0 0.075 0.04 0 0.08 0.04 0 0.085 0.04 0 0.09 0.04 0 0.095 0.04 0 0.1 0.04 0 0.105 0.04 0 0.11 0.04 0 0.115 0.04 0 0.12 0.04 0 0.125 0.04 0 0.13 0.04 0 0.135 0.04 0 0.14 0.04 0 0.145 0.04 0 0.15 0.04 0 0.155 0.04 0 0.16 0.04 0 0.165 0.04 0 0.17 0.04 0 0.175 0.04 0 0.18 0.04 0 0.185 0.04 0 0.19 0.04 0 0.195 0.04 0 0.2 0.04 0 0.205 0.04 0 0.21 0.04 0 0.215 0.04 0 0.22 0.04 0 0.225 0.04 0 0.23 0.04 0 0.235 0.04 0 0.24 0.04 0 0.245 0.04 0 0.25 0.04 0 0.255 0.04 0 0.260001 0.04 0 0.265002 0.04 0 0.270005 0.04 0 0.275014 0.04 0 0.280034 0.04 0 0.285076 0.04 0 0.290153 0.04 0 0.295283 0.04 0 0.300483 0.04 0 0.305768 0.04 0 0.311149 0.04 0 0.316638 0.04 0 0.322242 0.04 0 0.32797 0.04 0 0.33383 0.04 0 0.339829 0.04 0 0.345976 0.04 0 0.352279 0.04 0 0.358749 0.04 0 0.365396 0.04 0 0.372231 0.04 0 0.379266 0.04 0 0.386516 0.04 0 0.393995 0.04 0 0.401719 0.04 0 0.409708 0.04 0 0.41798 0.04 0 0.426561 0.04 0 0.435473 0.04 0 0.444746 0.04 0 0.454411 0.04 0 0.464501 0.04 0 0.475053 0.04 0 0.486098 0.04 0 0.497654 0.04 0 0.509686 0.04 0 0.522 0.04 0 0.534266 0.04 0 0.54642 0.04 0 0.558456 0.04 0 0.570395 0.04 0 0.582269 0.04 0 0.594108 0.04 0 0.605929 0.04 0 0.617744 0.04 0 0.629556 0.04 0 0.641366 0.04 0 0.653174 0.04 0 0.664985 0.04 0 0.667266 0.04 0 0.669548 0.04 0 0.671829 0.04 0 0.674111 0.04 0 0.676391 0.04 0 0.678671 0.04 0 0.680948 0.04 0 0.683225 0.04 0 0.685503 0.04 0 0.687779 0.04 0 0.690055 0.04 0 0.692335 0.04 0 0.694614 0.04 0 0.696892 0.04 0 0.699168 0.04 0 0.701444 0.04 0 0.703723 0.04 0 0.706001 0.04 0 0.708277 0.04 0 0.710552 0.04 0 0.71283 0.04 0 0.715112 0.04 0 0.717394 0.04 0 0.719675 0.04 0 0.721955 0.04 0 0.724233 0.04 0 0.726512 0.04 0 0.728791 0.04 0 0.73107 0.04 0 0.733347 0.04 0 0.735627 0.04 0 0.737911 0.04 0 0.740195 0.04 0 0.742477 0.04 0 0.744758 0.04 0 0.747039 0.04 0 0.749319 0.04 0 0.751598 0.04 0 0.753876 0.04 0 0.756153 0.04 0 0.758433 0.04 0 0.760718 0.04 0 0.763002 0.04 0 0.765284 0.04 0 0.767566 0.04 0 0.769849 0.04 0 0.772129 0.04 0 0.774409 0.04 0 0.77669 0.04 0 0.778975 0.04 0 0.781257 0.04 0 0.783534 0.04 0 0.785814 0.04 0 0.788125 0.04 0 0.790467 0.04 0 0.792918 0.04 0 0.795483 0.04 0 0.7982 0.04 0 0.80112 0.04 0 0.804319 0.04 0 0.807834 0.04 0 0.811708 0.04 0 0.815931 0.04 0 0.820455 0.04 0 0.825201 0.04 0 0.830082 0.04 0 0.835032 0.04 0 0.840012 0.04 0 0.845005 0.04 0 0.850002 0.04 0 0.855001 0.04 0 0.86 0.04 0 0.865 0.04 0 0.87 0.04 0 0.875 0.04 0 0.88 0.04 0 0.885 0.04 0 0.89 0.04 0 0.895 0.04 0 0.9 0.04 0 0.905 0.04 0 0.91 0.04 0 0.915 0.04 0 0.92 0.04 0 0.925 0.04 0 0.93 0.04 0 0.935 0.04 0 0.94 0.04 0 0.945 0.04 0 0.95 0.04 0 0.955 0.04 0 0.96 0.04 0 0.965 0.04 0 0.97 0.04 0 0.975 0.04 0 0.98 0.04 0 0.985 0.04 0 0.99 0.04 0 0.995 0.04 0 1 0.04 0 0 0.06 0 0.005 0.06 0 0.01 0.06 0 0.015 0.06 0 0.02 0.06 0 0.025 0.06 0 0.03 0.06 0 0.035 0.06 0 0.04 0.06 0 0.045 0.06 0 0.05 0.06 0 0.055 0.06 0 0.06 0.06 0 0.065 0.06 0 0.07 0.06 0 0.075 0.06 0 0.08 0.06 0 0.085 0.06 0 0.09 0.06 0 0.095 0.06 0 0.1 0.06 0 0.105 0.06 0 0.11 0.06 0 0.115 0.06 0 0.12 0.06 0 0.125 0.06 0 0.13 0.06 0 0.135 0.06 0 0.14 0.06 0 0.145 0.06 0 0.15 0.06 0 0.155 0.06 0 0.16 0.06 0 0.165 0.06 0 0.17 0.06 0 0.175 0.06 0 0.18 0.06 0 0.185 0.06 0 0.19 0.06 0 0.195 0.06 0 0.2 0.06 0 0.205 0.06 0 0.21 0.06 0 0.215 0.06 0 0.22 0.06 0 0.225 0.06 0 0.23 0.06 0 0.235 0.06 0 0.24 0.06 0 0.245 0.06 0 0.25 0.06 0 0.255 0.06 0 0.260001 0.06 0 0.265002 0.06 0 0.270005 0.06 0 0.275014 0.06 0 0.280034 0.06 0 0.285076 0.06 0 0.290153 0.06 0 0.295283 0.06 0 0.300483 0.06 0 0.305768 0.06 0 0.311149 0.06 0 0.316638 0.06 0 0.322242 0.06 0 0.32797 0.06 0 0.33383 0.06 0 0.339829 0.06 0 0.345976 0.06 0 0.352279 0.06 0 0.358749 0.06 0 0.365396 0.06 0 0.372231 0.06 0 0.379266 0.06 0 0.386516 0.06 0 0.393995 0.06 0 0.401719 0.06 0 0.409708 0.06 0 0.41798 0.06 0 0.426561 0.06 0 0.435473 0.06 0 0.444746 0.06 0 0.454411 0.06 0 0.464501 0.06 0 0.475053 0.06 0 0.486098 0.06 0 0.497654 0.06 0 0.509686 0.06 0 0.522 0.06 0 0.534266 0.06 0 0.54642 0.06 0 0.558456 0.06 0 0.570395 0.06 0 0.582269 0.06 0 0.594108 0.06 0 0.605929 0.06 0 0.617744 0.06 0 0.629556 0.06 0 0.641366 0.06 0 0.653174 0.06 0 0.664985 0.06 0 0.667266 0.06 0 0.669548 0.06 0 0.671829 0.06 0 0.674111 0.06 0 0.676391 0.06 0 0.678671 0.06 0 0.680948 0.06 0 0.683225 0.06 0 0.685503 0.06 0 0.687779 0.06 0 0.690055 0.06 0 0.692335 0.06 0 0.694614 0.06 0 0.696892 0.06 0 0.699168 0.06 0 0.701444 0.06 0 
[...]
			<PointData Scalars="VitesseX">
				<DataArray Name="VitesseX" type="Float32" format="ascii">
 0 0 0 0 0 0 0 0 0 0 0 0 0 0 0 0 0 0 0 0 0 0 0 0 0 0 0 0 0 0 0 0 0 0 0 0 0 0 0 0 0 0 0 0 0 0 0 0 0 0 0 0 0 0 0 0 0 0 0 0 0 0 0 0 0 0 0 0 0 0 0 0 0 0 0 0 0 0 0 0 0 0 0 0 0 0 0 0 0 0 0 0 0 0 0 0 0 0 0 0 0 0 0 0 0 0 0 0 0 0 0 0 0 0 0 0 0 0 0 0 0 0 0 0 0 0 0 0 0 0 0 0 0 0 0 0 0 0 0 0 0 0 0 0 0 0 0 0 0 0 0 0 0 0 0 0 0 0 0 0 0 0 0 0 0 0 0 0 0 0 0 0 0 0 0 0 0 0 0 0 0 0 0 0 0 0 0 0 0 0 0 0 0 0 0 0 0 0 0 0 0 0 -5.70386e-16 1.05405e-15 3.04111e-16 4.96289e-15 3.00495e-15 8.36735e-15 8.17098e-15 8.02084e-15 2.11676e-15 1.23681e-14 8.37545e-15 8.28207e-15 1.16e-14 9.6476e-15 4.21499e-15 1.3438e-14 1.45395e-14 -3.33917e-15 4.16744e-15 1.15129e-14 1.90855e-15 1.14553e-14 -9.17653e-16 9.77351e-15 1.42497e-14 2.09075e-15 1.87898e-14 1.8234e-14 -1.89486e-14 2.10617e-14 2.64573e-14 1.71844e-14 2.8012e-14 2.59658e-14 3.33338e-14 2.29298e-14 9.82666e-14 5.09436e-14 3.37991e-13 1.81543e-12 1.12404e-11 6.67439e-11 3.77914e-10 2.02975e-09 1.03245e-08 4.96227e-08 2.24804e-07 9.57188e-07 3.8181e-06 1.42142e-05 4.91727e-05 0.00015726 0.000462179 0.00123985 0.00301472 0.00660372 0.0129884 0.022973 0.0368179 0.0541527 0.07424 0.0963335 0.119882 0.144553 0.170168 0.196642 0.223939 0.252053 0.280992 0.31078 0.341446 0.373029 0.405572 0.439127 0.473748 0.509498 0.546442 0.584648 0.624188 0.665124 0.707503 0.75133 0.796512 0.842719 0.889034 0.932923 0.967214 0.97434 0.964407 0.954633 0.946132 0.940178 0.936756 0.935078 0.934341 0.93402 0.933826 0.933642 0.933549 0.934228 0.934012 0.933857 0.933675 0.933691 0.933672 0.933628 0.933557 0.933461 0.933346 0.933215 0.933076 0.932932 0.932793 0.932665 0.932559 0.932479 0.932431 0.932421 0.932471 0.932975 0.933906 0.933903 0.933716 0.933438 0.933103 0.932816 0.932602 0.932421 0.932393 0.932543 0.934016 0.934964 0.934547 0.933783 0.933222 0.932537 0.931954 0.931531 0.931312 0.931389 0.933013 0.934507 0.934021 0.933191 0.932779 0.932098 0.931782 0.931686 0.933551 0.934221 0.933526 0.933356 0.924993 0.933198 0.877758 0.846396 0.810549 0.753305 0.646291 0.56354 0.434061 0.314017 0.20136 0.113084 0.0551412 0.0239359 0.00965908 0.00375966 0.00144078 0.000548527 0.000208178 7.88466e-05 2.9807e-05 1.12448e-05 4.23168e-06 1.58783e-06 5.93754e-07 2.21149e-07 8.19969e-08 3.02485e-08 1.10958e-08 4.04509e-09 1.46476e-09 5.26602e-10 1.87867e-10 6.65276e-11 2.33463e-11 8.17694e-12 2.97258e-12 8.79856e-13 3.15822e-13 8.20198e-14 1.29133e-13 -9.8978e-14 1.08218e-13 9.93006e-14 3.31536e-15 -1.02459e-13 9.41914e-14 0 0 1.13599e-15 6.712e-16 1.85063e-15 5.51185e-15 5.92546e-15 2.5165e-15 1.04848e-14 1.06336e-14 3.79019e-15 3.89228e-15 7.98799e-15 9.58678e-15 1.29204e-14 4.66966e-15 1.12933e-14 9.37187e-15 -5.92888e-15 -3.4538e-15 9.18717e-15 2.16097e-14 -7.89385e-15 5.35366e-15 7.12439e-15 6.72284e-15 2.40688e-14 -5.14382e-15 1.32324e-14 2.86086e-14 -2.66637e-14 2.41608e-14 3.00146e-14 2.94071e-14 3.4784e-14 1.95851e-14 2.66428e-14 4.60586e-14 7.71434e-14 1.00994e-13 3.09461e-13 1.80356e-12 1.11783e-11 6.68136e-11 3.77802e-10 2.02983e-09 1.03244e-08 4.96227e-08 2.24804e-07 9.57188e-07 3.8181e-06 1.42142e-05 4.91727e-05 0.00015726 0.000462179 0.00123985 0.00301472 0.00660372 0.0129884 0.022973 0.0368179 0.0541527 0.07424 0.0963335 0.119882 0.144553 0.170168 0.196642 0.223939 0.252053 0.280992 0.31078 0.341446 0.373029 0.405572 0.439127 0.473748 0.509498 0.546442 0.584648 0.624188 0.665124 0.707503 0.75133 0.796512 0.842719 0.889034 0.932923 0.967214 0.97434 0.964407 0.954633 0.946132 0.940178 0.936756 0.935078 0.934341 0.93402 0.933826 0.933642 0.933549 0.934228 0.934012 0.933857 0.933675 0.933691 0.933672 0.933628 0.933557 0.933461 0.933346 0.933215 0.933076 0.932932 0.932793 0.932665 0.932559 0.932479 0.932431 0.932421 0.932471 0.932975 0.933906 0.933903 0.933716 0.933438 0.933103 0.932816 0.932602 0.932421 0.932393 0.932543 0.934016 0.934964 0.934547 0.933783 0.933222 0.932537 0.931954 0.931531 0.931312 0.931389 0.933013 0.934507 0.934021 0.933191 0.932779 0.932098 0.931782 0.931686 0.933551 0.934221 0.933526 0.933356 0.924993 0.933198 0.877758 0.846396 0.810549 0.753305 0.646291 0.56354 0.434061 0.314017 0.20136 0.113084 0.0551412 0.0239359 0.00965908 0.00375966 0.00144078 0.000548527 0.000208178 7.88466e-05 2.9807e-05 1.12448e-05 4.23168e-06 1.58783e-06 5.93754e-07 2.21149e-07 8.19969e-08 3.02485e-08 1.10958e-08 4.04506e-09 1.4649e-09 5.26524e-10 1.87958e-10 6.6551e-11 2.33549e-11 8.291e-12 2.96196e-12 9.59227e-13 2.06996e-13 -3.01342e-14 1.16048e-13 -4.74155e-14 1.07952e-13 9.02271e-15 8.77039e-14 2.06818e-15 8.30071e-14 0 0 3.5172e-16 2.20852e-15 3.87338e-15 1.72597e-15 9.23864e-15 2.67086e-15 7.45162e-15 6.97694e-15 7.13946e-15 9.52606e-15 3.86194e-15 1.74273e-14 5.54706e-15 1.99799e-15 8.68469e-15 8.98136e-15 -1.53186e-14 2.97374e-15 -4.45231e-15 1.36982e-14 1.12602e-14 -1.5029e-14 4.14567e-15 6.2851e-15 2.24783e-14 2.3574e-14 1.64109e-14 7.15739e-15 1.92873e-14 -5.27539e-15 2.22321e-14 5.17857e-14 5.38211e-14 1.6293e-15 2.68768e-14 4.06631e-14 5.8845e-15 1.40229e-13 3.09875e-13 1.76539e-12 1.11897e-11 6.68443e-11 3.77791e-10 2.0298e-09 1.03244e-08 4.96227e-08 2.24804e-07 9.57188e-07 3.8181e-06 1.42142e-05 4.91727e-05 0.00015726 0.000462179 0.00123985 0.00301472 0.00660372 0.0129884 0.022973 0.0368179 0.0541527 0.07424 0.0963335 0.119882 0.144553 0.170168 0.196642 0.223939 0.252053 0.280992 0.31078 0.341446 0.373029 0.405572 0.439127 0.473748 0.509498 0.546442 0.584648 0.624188 0.665124 0.707503 0.75133 0.796512 0.842719 0.889034 0.932923 0.967214 0.97434 0.964407 0.954633 0.946132 0.940178 0.936756 0.935078 0.934341 0.93402 0.933826 0.933642 0.933549 0.934228 0.934012 0.933857 0.933675 0.933691 0.933672 0.933628 0.933557 0.933461 0.933346 0.933215 0.933076 0.932932 0.932793 0.932665 0.932559 0.932479 0.932431 0.932421 0.932471 0.932975 0.933906 0.933903 0.933716 0.933438 0.933103 0.932816 0.932602 0.932421 0.932393 0.932543 0.934016 0.934964 0.934547 0.933783 0.933222 0.932537 0.931954 0.931531 0.931312 0.931389 0.933013 0.934507 0.934021 0.933191 0.932779 0.932098 0.931782 0.931686 0.933551 0.934221 0.933526 0.933356 0.924993 0.933198 0.877758 0.846396 0.810549 0.753305 0.646291 0.56354 0.434061 0.314017 0.20136 0.113084 0.0551412 0.0239359 0.00965908 0.00375966 0.00144078 0.000548527 0.000208178 7.88466e-05 2.9807e-05 1.12448e-05 4.23168e-06 1.58783e-06 5.93754e-07 2.21149e-07 8.1997e-08 3.02485e-08 1.10958e-08 4.045e-09 1.4649e-09 5.26614e-10 1.87849e-10 6.67099e-11 2.34042e-11 8.26838e-12 2.72372e-12 1.1585e-12 2.45215e-13 -1.00001e-13 -9.38017e-14 2.3716e-13 -2.26735e-13 2.67979e-14 1.31304e-13 2.19274e-13 -4.45185e-14 0 0 -1.20807e-15 2.66104e-15 5.90293e-15 -4.70004e-16 8.99367e-15 2.59044e-15 3.54349e-15 1.32358e-14 -5.23238e-16 1.62385e-14 1.33935e-16 1.19598e-14 1.49277e-15 5.38013e-15 -1.64985e-14 5.62038e-15 4.65413e-15 1.00586e-15 6.27543e-15 1.54946e-15 1.69547e-14 -1.81908e-14 -1.12677e-14 8.38646e-15 6.40201e-15 1.89024e-14 1.93483e-14 1.36416e-14 7.01223e-15 2.74977e-14 3.85697e-14 5.36042e-14 5.99361e-14 4.97021e-15 1.51279e-14 1.67568e-16 4.83075e-14 1.12418e-13 2.05825e-13 1.8327e-12 1.11671e-11 6.68116e-11 3.77841e-10 2.02973e-09 1.03245e-08 4.96227e-08 2.24804e-07 9.57188e-07 3.8181e-06 1.42142e-05 4.91727e-05 0.00015726 0.000462179 0.00123985 0.00301472 0.00660372 0.0129884 0.022973 0.0368179 0.0541527 0.07424 0.0963335 0.119882 0.144553 0.170168 0.196642 0.223939 0.252053 0.280992 0.31078 0.341446 0.373029 0.405572 0.439127 0.473748 0.509498 0.546442 0.584648 0.624188 0.665124 0.707503 0.75133 0.796512 0.842719 0.889034 0.932923 0.967214 0.97434 0.964407 0.954633 0.946132 0.940178 0.936756 0.935078 0.934341 0.93402 0.933826 0.933642 0.933549 0.934228 0.934012 0.933857 0.933675 0.933691 0.933672 0.933628 0.933557 0.933461 0.933346 0.933215 0.933076 0.932932 0.932793 0.932665 0.932559 0.932479 0.932431 0.932421 0.932471 0.932975 0.933906 0.933903 0.933716 0.933438 0.933103 0.932816 0.932602 0.932421 0.932393 0.932543 0.934016 0.934964 0.934547 0.933783 0.933222 0.932537 0.931954 0.931531 0.931312 0.931389 0.933013 0.934507 0.934021 0.933191 0.932779 0.932098 0.931782 0.931686 0.933551 0.934221 0.933526 0.933356 0.924993 0.933198 0.877758 0.846396 0.810549 0.753305 0.646291 0.56354 0.434061 0.314017 0.20136 0.113084 0.0551412 0.0239359 0.00965908 0.00375966 0.00144078 0.000548527 0.000208178 7.88466e-05 2.9807e-05 1.12448e-05 4.23168e-06 1.58783e-06 5.93754e-07 2.21149e-07 8.19969e-08 3.02486e-08 1.10959e-08 4.0451e-09 1.46458e-09 5.26854e-10 1.87761e-10 6.6612e-11 2.35012e-11 8.17014e-12 2.66442e-12 9.80509e-13 2.46558e-13 1.93781e-13 -7.04072e-14 2.11309e-13 -3.42228e-13 6.9155e-14 1.44367e-13 6.28327e-14 3.09622e-14 0 0 0 0 0 0 0 0 0 0 0 0 0 0 0 0 0 0 0 0 0 0 0 0 0 0 0 0 0 0 0 0 0 0 0 0 0 0 0 0 0 0 0 0 0 0 0 0 0 0 0 0 0 0 0 0 0 0 0 0 0 0 0 0 0 0 0 0 0 0 0 0 0 0 0 0 0 0 0 0 0 0 0 0 0 0 0 0 0 0 0 0 0 0 0 0 0 0 0 0 0 0 0 0 0 0 0 0 0 0 0 0 0 0 0 0 0 0 0 0 0 0 0 0 0 0 0 0 0 0 0 0 0 0 0 0 0 0 0 0 0 0 0 0 0 0 0 0 0 0 0 0 0 0 0 0 0 0 0 0 0 0 0 0 0 0 0 0 0 0 0 0 0 0 0 0 0 0 0 0 0 0 0 0 0 0 0 0 0 0 0 0 0 0 0 0 0 0 0 0 0 0
				</DataArray>
				<DataArray Name="VitesseY" type="Float32" format="ascii">
 0 0 0 0 0 0 0 0 0 0 0 0 0 0 0 0 0 0 0 0 0 0 0 0 0 0 0 0 0 0 0 0 0 0 0 0 0 0 0 0 0 0 0 0 0 0 0 0 0 0 0 0 0 0 0 0 0 0 0 0 0 0 0 0 0 0 0 0 0 0 0 0 0 0 0 0 0 0 0 0 0 0 0 0 0 0 0 0 0 0 0 0 0 0 0 0 0 0 0 0 0 0 0 0 0 0 0 0 0 0 0 0 0 0 0 0 0 0 0 0 0 0 0 0 0 0 0 0 0 0 0 0 0 0 0 0 0 0 0 0 0 0 0 0 0 0 0 0 0 0 0 0 0 0 0 0 0 0 0 0 0 0 0 0 0 0 0 0 0 0 0 0 0 0 0 0 0 0 0 0 0 0 0 0 0 0 0 0 0 0 0 0 0 0 0 0 0 0 0 0 0 0 1.85098e-15 2.28085e-15 2.33652e-15 2.84796e-15 3.29853e-15 3.02022e-15 3.00837e-15 3.41754e-15 2.62741e-15 2.11709e-15 1.69252e-15 1.94111e-15 2.77271e-15 1.42397e-15 -3.47594e-16 -9.23061e-16 4.23839e-15 4.2133e-15 3.65754e-16 1.77775e-15 -1.77967e-15 -3.10843e-15 -8.98195e-16 3.14912e-15 5.62322e-15 -2.39439e-15 -1.77313e-15 2.90827e-15 -9.0619e-15 -1.14956e-14 -3.5104e-15 3.5206e-16 8.78823e-15 3.91137e-15 -3.21554e-15 -3.22841e-15 1.59373e-14 2.45491e-14 2.86682e-15 -6.61571e-15 -1.62354e-14 -9.41755e-15 -1.10558e-14 -2.64535e-14 6.37075e-15 5.00755e-15 -3.5299e-14 -4.52476e-14 -7.09598e-15 2.6847e-14 7.40438e-15 -1.01883e-15 4.36236e-15 9.68304e-15 2.62423e-14 -1.44588e-15 -3.51167e-14 -1.19947e-14 1.10752e-14 -7.05543e-15 -1.01117e-14 7.27089e-17 -1.51591e-14 -3.47122e-14 -4.32073e-14 -1.90608e-14 -1.07069e-14 -2.47538e-14 -3.46375e-14 -3.40809e-14 -2.87751e-14 -2.94234e-14 -2.90054e-14 -3.95544e-14 -1.80865e-14 -9.30016e-15 -2.72624e-14 -2.9221e-14 -2.22361e-14 -4.70286e-15 6.28327e-15 6.83239e-15 4.41556e-15 -1.02618e-14 1.56266e-14 4.36094e-14 2.48323e-14 -1.00001e-13 -3.20269e-13 -4.88317e-13 -5.40502e-13 -3.92009e-13 -3.61202e-14 4.27643e-13 8.49467e-13 1.11216e-12 1.194e-12 1.13045e-12 8.98886e-13 6.62971e-13 2.83526e-13 1.66214e-13 -1.59071e-13 -6.3446e-13 -1.01658e-12 -8.59258e-13 1.24154e-12 4.88279e-12 8.41669e-12 1.02893e-11 1.01822e-11 9.12333e-12 7.88753e-12 6.72499e-12 5.69072e-12 4.75028e-12 3.97708e-12 3.33626e-12 2.7898e-12 2.35112e-12 1.93966e-12 1.57959e-12 1.32549e-12 1.1089e-12 9.18919e-13 8.13165e-13 7.48811e-13 6.76084e-13 6.20803e-13 6.09277e-13 6.5724e-13 6.84705e-13 6.47953e-13 6.1686e-13 6.22278e-13 6.46902e-13 6.80885e-13 7.20686e-13 8.00293e-13 9.29715e-13 1.03326e-12 1.0794e-12 1.10715e-12 1.14189e-12 1.1959e-12 1.2063e-12 1.20058e-12 1.22027e-12 1.24251e-12 1.20916e-12 1.15053e-12 1.10715e-12 9.80838e-13 8.19058e-13 6.34871e-13 5.28897e-13 3.87973e-13 2.28247e-13 1.10301e-13 -1.83986e-14 -1.25878e-13 -1.78238e-13 -1.6693e-13 -1.21766e-13 -1.00912e-13 -6.53963e-14 -3.43121e-14 -3.78878e-14 -5.14501e-14 -6.01179e-14 -4.6091e-14 -6.81433e-14 -1.05052e-13 -9.86435e-14 -8.1854e-14 -6.55402e-14 -6.53876e-14 -8.28887e-14 -8.44174e-14 -7.56425e-14 -8.45012e-14 -8.63268e-14 -5.86347e-14 -4.58412e-14 -4.84207e-14 -4.61861e-14 -3.65796e-14 -5.33711e-14 1.39561e-14 3.10304e-14 -7.66235e-14 -6.04313e-14 2.69686e-14 7.5418e-15 -4.15302e-14 -2.34243e-14 1.18839e-14 -3.73968e-15 2.36337e-14 0 0 3.56135e-15 3.63645e-15 3.78933e-15 3.6808e-15 4.22072e-15 3.84415e-15 3.13389e-15 3.9491e-15 5.65776e-15 4.51762e-15 2.69477e-15 2.64505e-15 2.4698e-15 2.76074e-15 5.17944e-15 6.38636e-15 -4.85089e-15 -9.89184e-15 -4.89177e-15 -2.62156e-15 1.19967e-15 -1.51309e-15 -3.35743e-15 -5.93002e-15 -6.89594e-15 1.78162e-15 -1.99904e-15 -5.2296e-15 7.3404e-15 8.61478e-15 2.13748e-15 2.259e-15 -1.37892e-15 3.49995e-15 7.34009e-15 1.15533e-14 -7.25352e-15 -8.53736e-15 1.85113e-14 1.80325e-14 9.07551e-15 4.13326e-15 -4.81666e-15 3.20418e-15 -1.69204e-14 -3.78196e-14 -2.45611e-14 -2.16529e-14 -3.66925e-14 -2.8242e-14 -7.98066e-15 -2.36016e-14 -1.59336e-14 -3.18952e-15 -2.12856e-14 -3.64013e-15 2.03014e-14 1.21541e-15 -1.24854e-14 -6.41402e-15 6.57323e-15 1.00713e-14 6.01464e-15 4.10553e-15 1.62204e-14 -1.3036e-16 -6.25051e-15 1.38668e-15 -1.21148e-14 1.07472e-15 2.17574e-14 -3.47602e-15 3.65462e-15 3.81883e-14 5.18799e-15 -1.8715e-14 9.75532e-15 3.84442e-14 4.77076e-14 2.50854e-14 1.21873e-14 5.51149e-14 3.85687e-14 -9.60647e-15 2.43079e-14 7.70639e-14 3.23203e-14 -1.94212e-13 -5.13617e-13 -8.00713e-13 -8.88544e-13 -6.27954e-13 -4.70674e-14 6.9669e-13 1.37367e-12 1.79593e-12 1.92248e-12 1.84188e-12 1.4618e-12 1.06388e-12 4.05559e-13 1.93506e-13 -2.59274e-13 -1.00079e-12 -1.63732e-12 -1.38889e-12 2.03634e-12 7.94829e-12 1.36274e-11 1.67153e-11 1.65791e-11 1.4761e-11 1.27849e-11 1.09264e-11 9.22783e-12 7.72725e-12 6.44217e-12 5.39998e-12 4.56616e-12 3.89819e-12 3.2741e-12 2.69727e-12 2.21399e-12 1.8367e-12 1.54941e-12 1.32769e-12 1.14725e-12 1.08431e-12 1.11511e-12 1.12378e-12 1.11204e-12 1.04817e-12 9.92711e-13 1.02184e-12 1.04131e-12 1.09182e-12 1.20862e-12 1.33372e-12 1.4398e-12 1.57735e-12 1.69906e-12 1.73051e-12 1.74162e-12 1.77933e-12 1.85135e-12 1.9485e-12 1.98654e-12 2.02711e-12 2.04383e-12 1.9883e-12 1.86069e-12 1.66966e-12 1.51077e-12 1.33367e-12 1.13975e-12 8.62973e-13 6.57711e-13 3.97112e-13 7.62443e-14 -6.51827e-14 -2.12261e-13 -2.28425e-13 -2.13164e-13 -2.21887e-13 -1.46511e-13 -1.00128e-13 -8.3382e-14 -7.12251e-14 -6.94969e-14 -7.9161e-14 -1.01559e-13 -7.49978e-14 -5.32728e-14 -9.41169e-14 -1.23759e-13 -1.20856e-13 -9.25015e-14 -5.13834e-14 -5.16321e-14 -5.55434e-14 -4.1221e-14 -4.8699e-14 -4.77131e-14 -4.35632e-14 -3.75738e-14 -1.09505e-14 -1.26367e-14 3.47074e-14 -6.72132e-15 -6.45683e-15 9.39034e-14 2.23923e-14 -9.63367e-14 -6.72693e-14 -5.52734e-15 -4.62848e-14 -8.30642e-14 -2.01923e-14 -2.42685e-14 0 0 2.20488e-15 2.31315e-15 3.0507e-15 2.51279e-15 2.11495e-15 3.24814e-15 3.3967e-15 1.12122e-15 -9.02301e-16 2.54399e-15 4.69323e-15 5.70326e-15 5.9327e-15 3.04291e-15 -7.16307e-16 -2.64676e-15 6.24264e-15 1.05185e-14 3.66046e-15 -4.13826e-15 -4.97073e-15 -2.61091e-15 -6.74763e-15 -4.72459e-15 -4.48065e-15 -6.20951e-15 5.40894e-15 4.16035e-15 -2.2347e-15 7.98729e-16 -2.25457e-15 1.23561e-15 1.52691e-14 1.06462e-14 2.27563e-15 -3.19646e-15 -3.59367e-15 -1.01702e-14 -2.73473e-14 -3.63029e-14 -3.40816e-14 -1.87141e-14 -4.66301e-15 -2.24293e-14 -2.76558e-14 -1.99267e-14 -3.39637e-14 -3.26652e-14 -1.9823e-14 -3.70491e-14 -3.67417e-14 -4.97394e-15 6.83299e-15 -4.93554e-15 -1.24021e-14 -6.05091e-15 -4.19603e-15 -2.73409e-15 -9.84558e-15 -1.43522e-15 1.46347e-14 6.13515e-15 2.33817e-15 2.73146e-14 2.14972e-14 1.79649e-14 7.82028e-15 -8.52696e-15 3.11699e-14 1.55449e-14 5.50289e-15 3.79889e-14 3.87594e-14 1.82445e-14 -5.02531e-15 -7.31546e-16 -1.19737e-14 -2.59425e-14 -1.50092e-14 5.11811e-15 2.17194e-14 -2.93024e-14 -1.16285e-14 7.35693e-14 6.43914e-14 3.95848e-14 6.1548e-15 -1.87105e-13 -5.43769e-13 -8.14758e-13 -8.71432e-13 -6.24885e-13 -4.77515e-14 6.99071e-13 1.38584e-12 1.80553e-12 1.93186e-12 1.83081e-12 1.48093e-12 1.09679e-12 4.18553e-13 1.9842e-13 -3.17071e-13 -1.1075e-12 -1.68474e-12 -1.34448e-12 2.03136e-12 7.91309e-12 1.36854e-11 1.67091e-11 1.64661e-11 1.47404e-11 1.28078e-11 1.09151e-11 9.19989e-12 7.70416e-12 6.44608e-12 5.40673e-12 4.56958e-12 3.86248e-12 3.24311e-12 2.68373e-12 2.18147e-12 1.84405e-12 1.62184e-12 1.38506e-12 1.24116e-12 1.13302e-12 1.05916e-12 1.10819e-12 1.22629e-12 1.22832e-12 1.12683e-12 1.1006e-12 1.13506e-12 1.18561e-12 1.22177e-12 1.33271e-12 1.46072e-12 1.58543e-12 1.73442e-12 1.80314e-12 1.85919e-12 1.89537e-12 1.96039e-12 1.96317e-12 1.95265e-12 2.02397e-12 2.06468e-12 2.00324e-12 1.90276e-12 1.77463e-12 1.4846e-12 1.26493e-12 9.51857e-13 7.27888e-13 5.84091e-13 3.88371e-13 2.85781e-13 5.8003e-14 -1.89251e-13 -3.02242e-13 -2.91037e-13 -1.81035e-13 -1.31092e-13 -1.02904e-13 -7.2411e-14 -8.05732e-14 -1.04534e-13 -9.84671e-14 -7.99107e-14 -9.17662e-14 -1.14414e-13 -7.47888e-14 -1.50702e-14 -2.85201e-14 -5.39099e-14 -7.00796e-14 -5.38499e-14 -3.78894e-14 -5.08241e-14 -4.70517e-14 -6.35445e-14 -4.54761e-14 -5.62258e-14 -7.03482e-14 -1.68732e-14 -5.74406e-14 -8.13578e-14 -9.13231e-14 -1.32349e-13 -6.87095e-14 -1.97571e-14 -2.99749e-14 -1.04257e-13 -1.42617e-13 -9.06739e-14 -8.82185e-14 -6.13574e-14 0 0 1.10923e-14 1.0729e-14 1.0782e-14 1.11081e-14 1.08933e-14 9.6959e-15 8.81692e-15 1.15615e-14 1.30581e-14 9.34028e-15 8.16141e-15 4.72805e-15 2.05472e-15 4.76288e-15 3.15496e-15 -2.0392e-15 -6.71645e-15 -6.63423e-15 2.5769e-15 9.91547e-15 9.10553e-15 7.30564e-15 6.75902e-15 1.54422e-15 -2.13307e-15 -5.58587e-15 -1.77947e-14 -1.40808e-14 -9.10387e-15 -7.03931e-15 8.23056e-15 9.38856e-15 -2.72543e-15 4.23714e-15 1.04701e-14 2.92437e-15 3.77953e-15 1.40681e-14 -1.76915e-15 -1.99023e-15 6.91265e-15 -2.2337e-14 -3.21273e-14 -1.94955e-14 -8.12675e-15 6.87399e-15 1.62229e-14 5.40661e-15 -4.05341e-16 -3.91852e-16 -2.0189e-14 -2.55751e-14 -1.35816e-14 -1.18239e-14 -5.46438e-15 -8.77443e-15 -1.78554e-14 -9.60745e-15 5.02906e-15 -7.87069e-15 -3.81868e-14 -1.38763e-14 2.62287e-14 1.92512e-14 2.12711e-14 6.86088e-15 -3.75741e-16 3.08674e-14 1.5188e-14 1.8149e-14 2.28939e-14 4.57724e-15 -7.23292e-15 -2.02654e-14 -1.31065e-15 -2.24203e-15 1.14044e-14 3.52662e-14 1.77559e-14 1.40577e-14 1.13839e-14 3.51556e-14 3.82693e-14 -5.79342e-15 6.56936e-15 2.60903e-14 1.05222e-14 -1.12126e-13 -3.18457e-13 -4.79137e-13 -5.2543e-13 -3.76358e-13 -3.02673e-14 4.29297e-13 8.47705e-13 1.11819e-12 1.19531e-12 1.14369e-12 9.34796e-13 7.08782e-13 2.73307e-13 1.31895e-13 -1.89235e-13 -6.25291e-13 -9.98807e-13 -8.34138e-13 1.29299e-12 4.8919e-12 8.39183e-12 1.03247e-11 1.02487e-11 9.12282e-12 7.85894e-12 6.71824e-12 5.6663e-12 4.70839e-12 3.97124e-12 3.37697e-12 2.83834e-12 2.40415e-12 2.02132e-12 1.72402e-12 1.46078e-12 1.19147e-12 9.3208e-13 8.38452e-13 7.77258e-13 7.50394e-13 7.55432e-13 7.36904e-13 7.297e-13 6.82628e-13 6.99907e-13 7.1122e-13 6.8462e-13 7.00403e-13 7.15094e-13 7.29974e-13 7.92194e-13 9.58218e-13 1.06429e-12 1.09088e-12 1.15539e-12 1.1789e-12 1.26117e-12 1.32203e-12 1.31819e-12 1.32653e-12 1.29645e-12 1.28134e-12 1.22385e-12 1.06128e-12 9.39009e-13 7.67209e-13 6.07518e-13 5.21089e-13 3.00174e-13 2.27049e-13 5.84417e-14 -1.12351e-13 -1.23861e-13 -1.20387e-13 -1.51867e-13 -1.60475e-13 -1.02123e-13 -8.97919e-14 -7.284e-14 -6.64989e-14 -3.06782e-14 -2.30724e-14 -4.92388e-14 -5.60714e-14 -2.53033e-14 -1.89273e-14 -5.95425e-14 -6.54861e-14 -7.69631e-14 -6.25503e-14 -8.02683e-14 -7.64339e-14 -1.03641e-16 3.84969e-14 1.17346e-16 -3.81561e-14 1.05396e-14 -2.1879e-14 -7.55333e-14 -3.51895e-14 -5.06713e-14 -1.00091e-13 -1.03227e-13 -9.32615e-14 -6.30494e-14 -5.34878e-14 -1.45613e-14 5.77134e-15 -3.24721e-14 -7.07967e-14 -1.17844e-13 0 0 0 0 0 0 0 0 0 0 0 0 0 0 0 0 0 0 0 0 0 0 0 0 0 0 0 0 0 0 0 0 0 0 0 0 0 0 0 0 0 0 0 0 0 0 0 0 0 0 0 0 0 0 0 0 0 0 0 0 0 0 0 0 0 0 0 0 0 0 0 0 0 0 0 0 0 0 0 0 0 0 0 0 0 0 0 0 0 0 0 0 0 0 0 0 0 0 0 0 0 0 0 0 0 0 0 0 0 0 0 0 0 0 0 0 0 0 0 0 0 0 0 0 0 0 0 0 0 0 0 0 0 0 0 0 0 0 0 0 0 0 0 0 0 0 0 0 0 0 0 0 0 0 0 0 0 0 0 0 0 0 0 0 0 0 0 0 0 0 0 0 0 0 0 0 0 0 0 0 0 0 0 0 0 0 0 0 0 0 0 0 0 0 0 0 0 0 0 0 0 0
				</DataArray>
			</PointData>
			<CellData Scalars="Density">
				<DataArray Name="Density" type="Float32" format="ascii">