<?xml version="1.0"?>
<VTKFile type="PolyData">
	<PolyData>
		<Piece NumberOfPoints="1206" NumberOfPolys="1000">
			<Points>
				<DataArray type="Float32" NumberOfComponents="3" format="ascii">
 0 0 0 0.005 0 0 0.01 0 0 0.015 0 0 0.02 0 0 0.025 0 0 0.03 0 0 0.035 0 0 0.04 0 0 0.045 0 0 0.05 0 0 0.055 0 0 0.06 0 0 0.065 0 0 0.07 0 0 0.075 0 0 0.08 0 0 0.085 0 0 0.09 0 0 0.095 0 0 0.1 0 0 0.105 0 0 0.11 0 0 0.115 0 0 0.12 0 0 0.125 0 0 0.13 0 0 0.135 0 0 0.14 0 0 0.145 0 0 0.15 0 0 0.155 0 0 0.16 0 0 0.165 0 0 0.17 0 0 0.175 0 0 0.18 0 0 0.185 0 0 0.19 0 0 0.195 0 0 0.2 0 0 0.205 0 0 0.21 0 0 0.215 0 0 0.22 0 0 0.225 0 0 0.23 0 0 0.235 0 0 0.24 0 0 0.245 0 0 0.25 0 0 0.255 0 0 0.26 0 0 0.265 0 0 0.27 0 0 0.275001 0 0 0.280003 0 0 0.285009 0 0 0.290022 0 0 0.295053 0 0 0.300113 0 0 0.305221 0 0 0.310394 0 0 0.315652 0 0 0.321008 0 0 0.326474 0 0 0.332062 0 0 0.337779 0 0 0.343635 0 0 0.349638 0 0 0.355799 0 0 0.362127 0 0 0.368634 0 0 0.375332 0 0 0.382232 0 0 0.389351 0 0 0.396703 0 0 0.404307 0 0 0.412182 0 0 0.420351 0 0 0.428836 0 0 0.437667 0 0 0.446874 0 0 0.456491 0 0 0.466556 0 0 0.477108 0 0 0.488183 0 0 0.499797 0 0 0.511899 0 0 0.524239 0 0 0.536495 0 0 0.548629 0 0 0.560641 0 0 0.572559 0 0 0.584421 0 0 0.596253 0 0 0.608071 0 0 0.619885 0 0 0.631697 0 0 0.643507 0 0 0.655316 0 0 0.657595 0 0 0.659876 0 0 0.662157 0 0 0.664439 0 0 0.66672 0 0 0.669 0 0 0.671278 0 0 0.673556 0 0 0.675836 0 0 0.678113 0 0 0.68039 0 0 0.682671 0 0 0.684951 0 0 0.687231 0 0 0.689508 0 0 0.691786 0 0 0.694066 0 0 0.696345 0 0 0.698622 0 0 0.700897 0 0 0.703174 0 0 0.705453 0 0 0.707731 0 0 0.71001 0 0 0.712288 0 0 0.714566 0 0 0.716848 0 0 0.719131 0 0 0.721413 0 0 0.723693 0 0 0.725972 0 0 0.728252 0 0 0.730531 0 0 0.732809 0 0 0.735086 0 0 0.737365 0 0 0.73965 0 0 0.741937 0 0 0.744223 0 0 0.746508 0 0 0.748791 0 0 0.751073 0 0 0.753352 0 0 0.755627 0 0 0.757902 0 0 0.76018 0 0 0.762465 0 0 0.764747 0 0 0.76703 0 0 0.769334 0 0 0.771654 0 0 0.774052 0 0 0.776567 0 0 0.779198 0 0 0.782031 0 0 0.785094 0 0 0.78846 0 0 0.792169 0 0 0.796238 0 0 0.800635 0 0 0.805293 0 0 0.810124 0 0 0.815049 0 0 0.820019 0 0 0.825007 0 0 0.830003 0 0 0.835001 0 0 0.84 0 0 0.845 0 0 0.85 0 0 0.855 0 0 0.86 0 0 0.865 0 0 0.87 0 0 0.875 0 0 0.88 0 0 0.885 0 0 0.89 0 0 0.895 0 0 0.9 0 0 0.905 0 0 0.91 0 0 0.915 0 0 0.92 0 0 0.925 0 0 0.93 0 0 0.935 0 0 0.94 0 0 0.945 0 0 0.95 0 0 0.955 0 0 0.96 0 0 0.965 0 0 0.97 0 0 0.975 0 0 0.98 0 0 0.985 0 0 0.99 0 0 0.995 0 0 1 0 0 0 0.02 0 0.005 0.02 0 0.01 0.02 0 0.015 0.02 0 0.02 0.02 0 0.025 0.02 0 0.03 0.02 0 0.035 0.02 0 0.04 0.02 0 0.045 0.02 0 0.05 0.02 0 0.055 0.02 0 0.06 0.02 0 0.065 0.02 0 0.07 0.02 0 0.075 0.02 0 0.08 0.02 0 0.085 0.02 0 0.09 0.02 0 0.095 0.02 0 0.1 0.02 0 0.105 0.02 0 0.11 0.02 0 0.115 0.02 0 0.12 0.02 0 0.125 0.02 0 0.13 0.02 0 0.135 0.02 0 0.14 0.02 0 0.145 0.02 0 0.15 0.02 0 0.155 0.02 0 0.16 0.02 0 0.165 0.02 0 0.17 0.02 0 0.175 0.02 0 0.18 0.02 0 0.185 0.02 0 0.19 0.02 0 0.195 0.02 0 0.2 0.02 0 0.205 0.02 0 0.21 0.02 0 0.215 0.02 0 0.22 0.02 0 0.225 0.02 0 0.23 0.02 0 0.235 0.02 0 0.24 0.02 0 0.245 0.02 0 0.25 0.02 0 0.255 0.02 0 0.26 0.02 0 0.265 0.02 0 0.27 0.02 0 0.275001 0.02 0 0.280003 0.02 0 0.285009 0.02 0 0.290022 0.02 0 0.295053 0.02 0 0.300113 0.02 0 0.305221 0.02 0 0.310394 0.02 0 0.315652 0.02 0 0.321008 0.02 0 0.326474 0.02 0 0.332062 0.02 0 0.337779 0.02 0 0.343635 0.02 0 0.349638 0.02 0 0.355799 0.02 0 0.362127 0.02 0 0.368634 0.02 0 0.375332 0.02 0 0.382232 0.02 0 0.389351 0.02 0 0.396703 0.02 0 0.404307 0.02 0 0.412182 0.02 0 0.420351 0.02 0 0.428836 0.02 0 0.437667 0.02 0 0.446874 0.02 0 0.456491 0.02 0 0.466556 0.02 0 0.477108 0.02 0 0.488183 0.02 0 0.499797 0.02 0 0.511899 0.02 0 0.524239 0.02 0 0.536495 0.02 0 0.548629 0.02 0 0.560641 0.02 0 0.572559 0.02 0 0.584421 0.02 0 0.596253 0.02 0 0.608071 0.02 0 0.619885 0.02 0 0.631697 0.02 0 0.643507 0.02 0 0.655316 0.02 0 0.657595 0.02 0 0.659876 0.02 0 0.662157 0.02 0 0.664439 0.02 0 0.66672 0.02 0 0.669 0.02 0 0.671278 0.02 0 0.673556 0.02 0 0.675836 0.02 0 0.678113 0.02 0 0.68039 0.02 0 0.682671 0.02 0 0.684951 0.02 0 0.687231 0.02 0 0.689508 0.02 0 0.691786 0.02 0 0.694066 0.02 0 0.696345 0.02 0 0.698622 0.02 0 0.700897 0.02 0 0.703174 0.02 0 0.705453 0.02 0 0.707731 0.02 0 0.71001 0.02 0 0.712288 0.02 0 0.714566 0.02 0 0.716848 0.02 0 0.719131 0.02 0 0.721413 0.02 0 0.723693 0.02 0 0.725972 0.02 0 0.728252 0.02 0 0.730531 0.02 0 0.732809 0.02 0 0.735086 0.02 0 0.737365 0.02 0 0.73965 0.02 0 0.741937 0.02 0 0.744223 0.02 0 0.746508 0.02 0 0.748791 0.02 0 0.751073 0.02 0 0.753352 0.02 0 0.755627 0.02 0 0.757902 0.02 0 0.76018 0.02 0 0.762465 0.02 0 0.764747 0.02 0 0.76703 0.02 0 0.769334 0.02 0 0.771654 0.02 0 0.774052 0.02 0 0.776567 0.02 0 0.779198 0.02 0 0.782031 0.02 0 0.785094 0.02 0 0.78846 0.02 0 0.792169 0.02 0 0.796238 0.02 0 0.800635 0.02 0 0.805293 0.02 0 0.810124 0.02 0 0.815049 0.02 0 0.820019 0.02 0 0.825007 0.02 0 0.830003 0.02 0 0.835001 0.02 0 0.84 0.02 0 0.845 0.02 0 0.85 0.02 0 0.855 0.02 0 0.86 0.02 0 0.865 0.02 0 0.87 0.02 0 0.875 0.02 0 0.88 0.02 0 0.885 0.02 0 0.89 0.02 0 0.895 0.02 0 0.9 0.02 0 0.905 0.02 0 0.91 0.02 0 0.915 0.02 0 0.92 0.02 0 0.925 0.02 0 0.93 0.02 0 0.935 0.02 0 0.94 0.02 0 0.945 0.02 0 0.95 0.02 0 0.955 0.02 0 0.96 0.02 0 0.965 0.02 0 0.97 0.02 0 0.975 0.02 0 0.98 0.02 0 0.985 0.02 0 0.99 0.02 0 0.995 0.02 0 1 0.02 0 0 0.04 0 0.005 0.04 0 0.01 0.04 0 0.015 0.04 0 0.02 0.04 0 0.025 0.04 0 0.03 0.04 0 0.035 0.04 0 0.04 0.04 0 0.045 0.04 0 0.05 0.04 0 0.055 0.04 0 0.06 0.04 0 0.065 0.04 0 0.07 0.04 0 0.075 0.04 0 0.08 0.04 0 0.085 0.04 0 0.09 0.04 0 0.095 0.04 0 0.1 0.04 0 0.105 0.04 0 0.11 0.04 0 0.115 0.04 0 0.12 0.04 0 0.125 0.04 0 0.13 0.04 0 0.135 0.04 0 0.14 0.04 0 0.145 0.04 0 0.15 0.04 0 0.155 0.04 0 0.16 0.04 0 0.165 0.04 0 0.17 0.04 0 0.175 0.04 0 0.18 0.04 0 0.185 0.04 0 0.19 0.04 0 0.195 0.04 0 0.2 0.04 0 0.205 0.04 0 0.21 0.04 0 0.215 0.04 0 0.22 0.04 0 0.225 0.04 0 0.23 0.04 0 0.235 0.04 0 0.24 0.04 0 0.245 0.04 0 0.25 0.04 0 0.255 0.04 0 0.26 0.04 0 0.265 0.04 0 0.27 0.04 0 0.275001 0.04 0 0.280003 0.04 0 0.285009 0.04 0 0.290022 0.04 0 0.295053 0.04 0 0.300113 0.04 0 0.305221 0.04 0 0.310394 0.04 0 0.315652 0.04 0 0.321008 0.04 0 0.326474 0.04 0 0.332062 0.04 0 0.337779 0.04 0 0.343635 0.04 0 0.349638 0.04 0 0.355799 0.04 0 0.362127 0.04 0 0.368634 0.04 0 0.375332 0.04 0 0.382232 0.04 0 0.389351 0.04 0 0.396703 0.04 0 0.404307 0.04 0 0.412182 0.04 0 0.420351 0.04 0 0.428836 0.04 0 0.437667 0.04 0 0.446874 0.04 0 0.456491 0.04 0 0.466556 0.04 0 0.477108 0.04 0 0.488183 0.04 0 0.499797 0.04 0 0.511899 0.04 0 0.524239 0.04 0 0.536495 0.04 0 0.548629 0.04 0 0.560641 0.04 0 0.572559 0.04 0 0.584421 0.04 0 0.596253 0.04 0 0.608071 0.04 0 0.619885 0.04 0 0.631697 0.04 0 0.643507 0.04 0 0.655316 0.04 0 0.657595 0.04 0 0.659876 0.04 0 0.662157 0.04 0 0.664439 0.04 0 0.66672 0.04 0 0.669 0.04 0 0.671278 0.04 0 0.673556 0.04 0 0.675836 0.04 0 0.678113 0.04 0 0.68039 0.04 0 0.682671 0.04 0 0.684951 0.04 0 0.687231 0.04 0 0.689508 0.04 0 0.691786 0.04 0 0.694066 0.04 0 0.696345 0.04 0 0.698622 0.04 0 0.700897 0.04 0 0.703174 0.04 0 0.705453 0.04 0 0.707731 0.04 0 0.71001 0.04 0 0.712288 0.04 0 0.714566 0.04 0 0.716848 0.04 0 0.719131 0.04 0 0.721413 0.04 0 0.723693 0.04 0 0.725972 0.04 0 0.728252 0.04 0 0.730531 0.04 0 0.732809 0.04 0 0.735086 0.04 0 0.737365 0.04 0 0.73965 0.04 0 0.741937 0.04 0 0.744223 0.04 0 0.746508 0.04 0 0.748791 0.04 0 0.751073 0.04 0 0.753352 0.04 0 0.755627 0.04 0 0.757902 0.04 0 0.76018 0.04 0 0.762465 0.04 0 0.764747 0.04 0 0.76703 0.04 0 0.769334 0.04 0 0.771654 0.04 0 0.774052 0.04 0 0.776567 0.04 0 0.779198 0.04 0 0.782031 0.04 0 0.785094 0.04 0 0.78846 0.04 0 0.792169 0.04 0 0.796238 0.04 0 0.800635 0.04 0 0.805293 0.04 0 0.810124 0.04 0 0.815049 0.04 0 0.820019 0.04 0 0.825007 0.04 0 0.830003 0.04 0 0.835001 0.04 0 0.84 0.04 0 0.845 0.04 0 0.85 0.04 0 0.855 0.04 0 0.86 0.04 0 0.865 0.04 0 0.87 0.04 0 0.875 0.04 0 0.88 0.04 0 0.885 0.04 0 0.89 0.04 0 0.895 0.04 0 0.9 0.04 0 0.905 0.04 0 0.91 0.04 0 0.915 0.04 0 0.92 0.04 0 0.925 0.04 0 0.93 0.04 0 0.935 0.04 0 0.94 0.04 0 0.945 0.04 0 0.95 0.04 0 0.955 0.04 0 0.96 0.04 0 0.965 0.04 0 0.97 0.04 0 0.975 0.04 0 0.98 0.04 0 0.985 0.04 0 0.99 0.04 0 0.995 0.04 0 1 0.04 0 0 0.06 0 0.005 0.06 0 0.01 0.06 0 0.015 0.06 0 0.02 0.06 0 0.025 0.06 0 0.03 0.06 0 0.035 0.06 0 0.04 0.06 0 0.045 0.06 0 0.05 0.06 0 0.055 0.06 0 0.06 0.06 0 0.065 0.06 0 0.07 0.06 0 0.075 0.06 0 0.08 0.06 0 0.085 0.06 0 0.09 0.06 0 0.095 0.06 0 0.1 0.06 0 0.105 0.06 0 0.11 0.06 0 0.115 0.06 0 0.12 0.06 0 0.125 0.06 0 0.13 0.06 0 0.135 0.06 0 0.14 0.06 0 0.145 0.06 0 0.15 0.06 0 0.155 0.06 0 0.16 0.06 0 0.165 0.06 0 0.17 0.06 0 0.175 0.06 0 0.18 0.06 0 0.185 0.06 0 0.19 0.06 0 0.195 0.06 0 0.2 0.06 0 0.205 0.06 0 0.21 0.06 0 0.215 0.06 0 0.22 0.06 0 0.225 0.06 0 0.23 0.06 0 0.235 0.06 0 0.24 0.06 0 0.245 0.06 0 0.25 0.06 0 0.255 0.06 0 0.26 0.06 0 0.265 0.06 0 0.27 0.06 0 0.275001 0.06 0 0.280003 0.06 0 0.285009 0.06 0 0.290022 0.06 0 0.295053 0.06 0 0.300113 0.06 0 0.305221 0.06 0 0.310394 0.06 0 0.315652 0.06 0 0.321008 0.06 0 0.326474 0.06 0 0.332062 0.06 0 0.337779 0.06 0 0.343635 0.06 0 0.349638 0.06 0 0.355799 0.06 0 0.362127 0.06 0 0.368634 0.06 0 0.375332 0.06 0 0.382232 0.06 0 0.389351 0.06 0 0.396703 0.06 0 0.404307 0.06 0 0.412182 0.06 0 0.420351 0.06 0 0.428836 0.06 0 0.437667 0.06 0 0.446874 0.06 0 0.456491 0.06 0 0.466556 0.06 0 0.477108 0.06 0 0.488183 0.06 0 0.499797 0.06 0 0.511899 0.06 0 0.524239 0.06 0 0.536495 0.06 0 0.548629 0.06 0 0.560641 0.06 0 0.572559 0.06 0 0.584421 0.06 0 0.596253 0.06 0 0.608071 0.06 0 0.619885 0.06 0 0.631697 0.06 0 0.643507 0.06 0 0.655316 0.06 0 0.657595 0.06 0 0.659876 0.06 0 0.662157 0.06 0 0.664439 0.06 0 0.66672 0.06 0 0.669 0.06 0 0.671278 0.06 0 0.673556 0.06 0 0.675836 0.06 0 0.678113 0.06 0 0.68039 0.06 0 0.682671 0.06 0 0.684951 0.06 0 0.687231 0.06 0 0.689508 0.06 0 0.691786 0.06 0 0.694066 0.06 0 0.696345 0.06 0 0.698622 0.06 0 0.700897 0.06 0 0.703174 0.
[...]
			<PointData Scalars="VitesseX">
				<DataArray Name="VitesseX" type="Float32" format="ascii">
 0 0 0 0 0 0 0 0 0 0 0 0 0 0 0 0 0 0 0 0 0 0 0 0 0 0 0 0 0 0 0 0 0 0 0 0 0 0 0 0 0 0 0 0 0 0 0 0 0 0 0 0 0 0 0 0 0 0 0 0 0 0 0 0 0 0 0 0 0 0 0 0 0 0 0 0 0 0 0 0 0 0 0 0 0 0 0 0 0 0 0 0 0 0 0 0 0 0 0 0 0 0 0 0 0 0 0 0 0 0 0 0 0 0 0 0 0 0 0 0 0 0 0 0 0 0 0 0 0 0 0 0 0 0 0 0 0 0 0 0 0 0 0 0 0 0 0 0 0 0 0 0 0 0 0 0 0 0 0 0 0 0 0 0 0 0 0 0 0 0 0 0 0 0 0 0 0 0 0 0 0 0 0 0 0 0 0 0 0 0 0 0 0 0 0 0 0 0 0 0 0 0 2.23762e-15 9.59571e-16 -1.2466e-15 3.22249e-15 2.02208e-15 2.11788e-15 5.31568e-15 4.33445e-15 7.98925e-15 7.24273e-15 1.12861e-14 5.128e-15 1.90102e-14 5.14633e-15 1.44261e-14 1.23789e-14 1.33276e-15 9.45092e-15 6.56139e-15 2.25609e-15 1.21739e-14 -6.16493e-15 -1.86504e-15 9.26519e-15 2.35345e-14 1.84517e-14 1.45873e-14 -7.36131e-15 1.6362e-14 -1.60169e-15 -3.09011e-15 8.955e-15 4.34493e-14 1.15128e-14 1.45132e-14 3.16911e-14 1.10216e-14 5.75301e-14 3.6723e-14 3.67028e-14 1.50782e-13 4.23655e-13 2.64212e-12 1.67832e-11 1.02447e-10 5.92779e-10 3.24612e-09 1.67895e-08 8.18177e-08 3.74629e-07 1.60668e-06 6.43071e-06 2.39199e-05 8.22792e-05 0.000260212 0.000751548 0.00196773 0.00463679 0.00978089 0.0184465 0.0312562 0.0481169 0.0683508 0.0911015 0.115663 0.141582 0.168611 0.19663 0.225589 0.255476 0.286302 0.318093 0.350888 0.384731 0.419678 0.45579 0.493137 0.531792 0.571836 0.61335 0.65641 0.701072 0.747348 0.79513 0.84403 0.892927 0.938636 0.971997 0.9734 0.962973 0.952595 0.944306 0.938921 0.936049 0.934728 0.934177 0.933945 0.933765 0.933528 0.933313 0.933418 0.933766 0.93426 0.934257 0.934192 0.934118 0.933987 0.933894 0.933796 0.933708 0.933628 0.933547 0.933463 0.933365 0.933247 0.933107 0.932941 0.932758 0.932566 0.932379 0.932213 0.932085 0.932012 0.931989 0.932258 0.93349 0.934594 0.933834 0.933487 0.933077 0.932485 0.93204 0.931664 0.93149 0.931525 0.933037 0.936091 0.935091 0.934579 0.933349 0.93222 0.930825 0.929851 0.92931 0.930611 0.932475 0.933936 0.936255 0.930141 0.93417 0.896836 0.842112 0.866629 0.760795 0.701545 0.601622 0.496555 0.367899 0.250651 0.148835 0.0772441 0.0351799 0.0146035 0.00576044 0.00221951 0.000846524 0.000321323 0.00012161 4.59091e-05 1.72848e-05 6.48766e-06 2.42633e-06 9.03652e-07 3.34955e-07 1.23492e-07 4.52577e-08 1.64771e-08 5.95583e-09 2.1363e-09 7.59854e-10 2.67968e-10 9.35941e-11 3.24199e-11 1.11503e-11 3.77769e-12 1.32936e-12 5.33922e-13 2.54073e-14 4.64389e-14 4.41696e-14 -6.22202e-14 7.4322e-14 9.41031e-15 -6.73948e-14 1.10797e-13 -1.03807e-13 1.01708e-13 -2.83091e-14 9.94291e-14 0 0 3.79874e-16 1.18183e-15 -1.43041e-15 -4.44199e-16 1.66996e-15 2.70817e-15 6.76715e-15 3.9875e-15 6.72353e-15 1.23148e-14 9.29286e-15 1.44182e-14 1.46593e-14 1.98605e-14 -8.52677e-15 -3.30199e-15 2.54163e-15 1.42654e-14 9.93567e-15 -4.9374e-15 2.02006e-14 -1.94904e-14 -4.5812e-15 -2.12351e-15 1.89253e-14 4.7161e-14 -9.32315e-15 7.30944e-15 -1.45103e-15 4.4339e-15 1.23306e-14 9.85629e-15 1.41666e-14 4.56426e-14 2.36312e-14 2.84493e-14 2.42164e-14 4.59868e-14 2.92748e-14 3.97687e-14 1.68718e-13 3.62608e-13 2.71855e-12 1.6766e-11 1.0237e-10 5.92833e-10 3.24609e-09 1.67894e-08 8.18176e-08 3.74629e-07 1.60668e-06 6.43071e-06 2.39199e-05 8.22792e-05 0.000260212 0.000751548 0.00196773 0.00463679 0.00978089 0.0184465 0.0312562 0.0481169 0.0683508 0.0911015 0.115663 0.141582 0.168611 0.19663 0.225589 0.255476 0.286302 0.318093 0.350888 0.384731 0.419678 0.45579 0.493137 0.531792 0.571836 0.61335 0.65641 0.701072 0.747348 0.79513 0.84403 0.892927 0.938636 0.971997 0.9734 0.962973 0.952595 0.944306 0.938921 0.936049 0.934728 0.934177 0.933945 0.933765 0.933528 0.933313 0.933418 0.933766 0.93426 0.934257 0.934192 0.934118 0.933987 0.933894 0.933796 0.933708 0.933628 0.933547 0.933463 0.933365 0.933247 0.933107 0.932941 0.932758 0.932566 0.932379 0.932213 0.932085 0.932012 0.931989 0.932258 0.93349 0.934594 0.933834 0.933487 0.933077 0.932485 0.93204 0.931664 0.93149 0.931525 0.933037 0.936091 0.935091 0.934579 0.933349 0.93222 0.930825 0.929851 0.92931 0.930611 0.932475 0.933936 0.936255 0.930141 0.93417 0.896836 0.842112 0.866629 0.760795 0.701545 0.601622 0.496555 0.367899 0.250651 0.148835 0.0772441 0.0351799 0.0146035 0.00576044 0.00221951 0.000846524 0.000321323 0.00012161 4.59091e-05 1.72848e-05 6.48766e-06 2.42633e-06 9.03652e-07 3.34955e-07 1.23492e-07 4.52577e-08 1.64772e-08 5.95588e-09 2.13625e-09 7.59921e-10 2.67931e-10 9.36583e-11 3.24804e-11 1.11002e-11 3.91385e-12 1.39328e-12 4.26609e-13 -3.26958e-14 -2.8056e-14 9.36743e-14 -1.07848e-15 1.31048e-14 1.62249e-14 -7.64405e-14 1.12472e-13 -5.69471e-15 9.72899e-14 1.06041e-13 9.7747e-15 0 0 -9.6201e-16 -7.41955e-16 -5.60857e-16 -1.33611e-15 3.84809e-15 -1.81782e-15 9.64338e-15 1.23939e-14 -1.08766e-16 1.12366e-14 5.54906e-15 1.60894e-14 1.25906e-14 1.3785e-14 -1.72035e-14 1.63947e-14 9.64306e-15 6.48211e-15 -1.1457e-14 1.62684e-14 -1.83873e-14 1.40147e-14 8.47598e-15 -1.10144e-14 8.37721e-15 2.82927e-14 -3.00077e-15 1.75868e-14 -6.19516e-15 2.03937e-14 1.62891e-14 6.76829e-15 -7.46273e-15 3.65006e-14 3.68952e-14 4.98799e-15 8.6059e-14 -5.12156e-15 2.41385e-14 8.74464e-14 1.37511e-13 3.63971e-13 2.71448e-12 1.67432e-11 1.02389e-10 5.92819e-10 3.24608e-09 1.67893e-08 8.18175e-08 3.74629e-07 1.60668e-06 6.43071e-06 2.39199e-05 8.22792e-05 0.000260212 0.000751548 0.00196773 0.00463679 0.00978089 0.0184465 0.0312562 0.0481169 0.0683508 0.0911015 0.115663 0.141582 0.168611 0.19663 0.225589 0.255476 0.286302 0.318093 0.350888 0.384731 0.419678 0.45579 0.493137 0.531792 0.571836 0.61335 0.65641 0.701072 0.747348 0.79513 0.84403 0.892927 0.938636 0.971997 0.9734 0.962973 0.952595 0.944306 0.938921 0.936049 0.934728 0.934177 0.933945 0.933765 0.933528 0.933313 0.933418 0.933766 0.93426 0.934257 0.934192 0.934118 0.933987 0.933894 0.933796 0.933708 0.933628 0.933547 0.933463 0.933365 0.933247 0.933107 0.932941 0.932758 0.932566 0.932379 0.932213 0.932085 0.932012 0.931989 0.932258 0.93349 0.934594 0.933834 0.933487 0.933077 0.932485 0.93204 0.931664 0.93149 0.931525 0.933037 0.936091 0.935091 0.934579 0.933349 0.93222 0.930825 0.929851 0.92931 0.930611 0.932475 0.933936 0.936255 0.930141 0.93417 0.896836 0.842112 0.866629 0.760795 0.701545 0.601622 0.496555 0.367899 0.250651 0.148835 0.0772441 0.0351799 0.0146035 0.00576044 0.00221951 0.000846524 0.000321323 0.00012161 4.59091e-05 1.72848e-05 6.48766e-06 2.42633e-06 9.03652e-07 3.34955e-07 1.23492e-07 4.52577e-08 1.64772e-08 5.95604e-09 2.13623e-09 7.59961e-10 2.67959e-10 9.36075e-11 3.25045e-11 1.1074e-11 3.91561e-12 1.2898e-12 2.32423e-13 2.16519e-15 1.42635e-13 2.88589e-14 2.48686e-14 5.68071e-14 -7.42528e-14 5.00675e-14 4.50349e-14 1.03861e-13 1.44256e-13 -2.5455e-14 1.06722e-14 0 0 -4.60997e-16 -1.8304e-15 -2.48353e-15 1.88535e-15 3.52736e-15 -4.17626e-15 9.66836e-15 1.08027e-14 -3.60874e-15 2.48494e-15 1.18873e-14 1.54417e-14 8.12067e-15 -4.82195e-15 2.50891e-15 2.36312e-14 -7.66091e-15 -9.72969e-15 -1.07766e-14 1.72994e-14 -2.71721e-14 2.69146e-14 3.02723e-14 4.42699e-15 -8.27644e-15 -3.44487e-15 2.23661e-14 1.8333e-15 1.41656e-14 -7.4398e-16 8.81702e-15 1.83257e-14 2.05192e-14 3.21213e-14 3.67251e-14 -9.26104e-16 5.9147e-15 6.41812e-14 1.39309e-15 8.46764e-14 9.28659e-14 4.2115e-13 2.61893e-12 1.68122e-11 1.02426e-10 5.92763e-10 3.24609e-09 1.67893e-08 8.18175e-08 3.74629e-07 1.60668e-06 6.43071e-06 2.39199e-05 8.22792e-05 0.000260212 0.000751548 0.00196773 0.00463679 0.00978089 0.0184465 0.0312562 0.0481169 0.0683508 0.0911015 0.115663 0.141582 0.168611 0.19663 0.225589 0.255476 0.286302 0.318093 0.350888 0.384731 0.419678 0.45579 0.493137 0.531792 0.571836 0.61335 0.65641 0.701072 0.747348 0.79513 0.84403 0.892927 0.938636 0.971997 0.9734 0.962973 0.952595 0.944306 0.938921 0.936049 0.934728 0.934177 0.933945 0.933765 0.933528 0.933313 0.933418 0.933766 0.93426 0.934257 0.934192 0.934118 0.933987 0.933894 0.933796 0.933708 0.933628 0.933547 0.933463 0.933365 0.933247 0.933107 0.932941 0.932758 0.932566 0.932379 0.932213 0.932085 0.932012 0.931989 0.932258 0.93349 0.934594 0.933834 0.933487 0.933077 0.932485 0.93204 0.931664 0.93149 0.931525 0.933037 0.936091 0.935091 0.934579 0.933349 0.93222 0.930825 0.929851 0.92931 0.930611 0.932475 0.933936 0.936255 0.930141 0.93417 0.896836 0.842112 0.866629 0.760795 0.701545 0.601622 0.496555 0.367899 0.250651 0.148835 0.0772441 0.0351799 0.0146035 0.00576044 0.00221951 0.000846524 0.000321323 0.00012161 4.59091e-05 1.72848e-05 6.48766e-06 2.42633e-06 9.03652e-07 3.34955e-07 1.23492e-07 4.52579e-08 1.64771e-08 5.9561e-09 2.1362e-09 7.60093e-10 2.67971e-10 9.35358e-11 3.2525e-11 1.11485e-11 3.62865e-12 1.25935e-12 2.95704e-13 5.14503e-14 2.07402e-13 6.37014e-14 -1.6371e-13 8.80086e-14 6.5613e-14 1.39123e-13 2.12272e-14 -1.61403e-15 3.40293e-14 -1.17737e-13 4.92794e-14 0 0 0 0 0 0 0 0 0 0 0 0 0 0 0 0 0 0 0 0 0 0 0 0 0 0 0 0 0 0 0 0 0 0 0 0 0 0 0 0 0 0 0 0 0 0 0 0 0 0 0 0 0 0 0 0 0 0 0 0 0 0 0 0 0 0 0 0 0 0 0 0 0 0 0 0 0 0 0 0 0 0 0 0 0 0 0 0 0 0 0 0 0 0 0 0 0 0 0 0 0 0 0 0 0 0 0 0 0 0 0 0 0 0 0 0 0 0 0 0 0 0 0 0 0 0 0 0 0 0 0 0 0 0 0 0 0 0 0 0 0 0 0 0 0 0 0 0 0 0 0 0 0 0 0 0 0 0 0 0 0 0 0 0 0 0 0 0 0 0 0 0 0 0 0 0 0 0 0 0 0 0 0 0 0 0 0 0 0 0 0 0 0 0 0 0 0 0 0 0 0 0
				</DataArray>
				<DataArray Name="VitesseY" type="Float32" format="ascii">
 0 0 0 0 0 0 0 0 0 0 0 0 0 0 0 0 0 0 0 0 0 0 0 0 0 0 0 0 0 0 0 0 0 0 0 0 0 0 0 0 0 0 0 0 0 0 0 0 0 0 0 0 0 0 0 0 0 0 0 0 0 0 0 0 0 0 0 0 0 0 0 0 0 0 0 0 0 0 0 0 0 0 0 0 0 0 0 0 0 0 0 0 0 0 0 0 0 0 0 0 0 0 0 0 0 0 0 0 0 0 0 0 0 0 0 0 0 0 0 0 0 0 0 0 0 0 0 0 0 0 0 0 0 0 0 0 0 0 0 0 0 0 0 0 0 0 0 0 0 0 0 0 0 0 0 0 0 0 0 0 0 0 0 0 0 0 0 0 0 0 0 0 0 0 0 0 0 0 0 0 0 0 0 0 0 0 0 0 0 0 0 0 0 0 0 0 0 0 0 0 0 0 2.62623e-15 2.74181e-15 1.8307e-15 1.59059e-15 2.67919e-15 2.45542e-15 2.58555e-15 2.20267e-15 3.47208e-16 8.81849e-16 2.52491e-15 2.53925e-15 4.83358e-15 4.1605e-15 1.88546e-15 2.32654e-15 2.60346e-16 1.29005e-16 2.4457e-15 -1.86901e-15 -2.77945e-15 -2.7849e-15 -5.4036e-15 -2.54243e-15 5.987e-16 3.23207e-16 2.16194e-15 -2.27818e-16 -6.66636e-15 -8.12391e-15 -1.05687e-14 -1.02636e-14 -2.30236e-15 3.39895e-15 6.94777e-17 -5.54253e-15 -1.7667e-14 -8.01972e-15 9.14852e-15 9.06402e-16 1.83421e-15 2.08408e-15 2.98319e-15 3.30136e-15 -3.82561e-17 2.33099e-15 -1.9812e-14 -2.54888e-14 -2.65274e-14 -3.46363e-14 -1.80208e-14 7.01586e-15 1.0624e-14 -1.33454e-14 -1.2385e-14 1.20851e-14 1.42148e-14 -6.9604e-15 -1.56003e-14 3.2101e-15 1.52332e-14 1.0307e-14 1.42792e-14 2.03839e-14 -1.5984e-14 -3.31997e-14 -1.00861e-14 8.11056e-15 -2.16967e-15 -5.12406e-14 -4.30972e-14 -4.14834e-15 -2.76744e-14 -4.50432e-14 -3.17823e-14 -3.13228e-14 -2.30984e-14 7.83524e-15 -8.07671e-15 -2.8016e-14 5.56168e-15 9.52974e-15 2.71224e-14 1.17284e-14 -3.25774e-15 1.44691e-14 4.58301e-14 2.48095e-14 -1.68455e-13 -4.18918e-13 -6.38391e-13 -7.15188e-13 -5.49729e-13 -1.4643e-13 3.8563e-13 8.45622e-13 1.12439e-12 1.19962e-12 1.01541e-12 8.16757e-13 7.88042e-13 7.07443e-13 4.61076e-13 -1.26844e-14 -4.36508e-13 -2.62565e-13 1.85943e-12 5.50128e-12 9.01703e-12 1.0912e-11 1.08054e-11 9.69701e-12 8.46773e-12 7.29741e-12 6.22331e-12 5.2703e-12 4.42067e-12 3.73231e-12 3.18751e-12 2.70456e-12 2.30391e-12 1.98481e-12 1.75683e-12 1.5713e-12 1.42812e-12 1.31106e-12 1.17765e-12 1.06267e-12 9.62694e-13 8.72613e-13 8.15498e-13 8.02266e-13 7.83046e-13 7.76535e-13 8.09213e-13 8.50073e-13 8.87805e-13 8.45699e-13 8.01704e-13 7.74738e-13 7.49887e-13 7.18776e-13 6.80384e-13 6.78736e-13 6.06824e-13 5.15298e-13 4.03339e-13 2.88852e-13 2.08551e-13 7.32426e-14 -9.23647e-14 -2.11429e-13 -3.81449e-13 -4.83966e-13 -5.03209e-13 -5.47418e-13 -5.4613e-13 -4.67878e-13 -3.8144e-13 -2.6309e-13 -1.60831e-13 -8.29898e-14 -4.46184e-14 -3.89159e-14 -3.92532e-14 -3.60851e-14 -4.74591e-14 -4.24291e-14 -2.89426e-14 -3.55068e-14 -3.92437e-14 -5.81602e-14 -6.94275e-14 -7.3863e-14 -7.47691e-14 -5.98983e-14 -5.77916e-14 -8.84732e-14 -9.4133e-14 -6.67479e-14 -4.42643e-14 -2.5876e-14 -2.45992e-14 -1.98306e-14 -5.42461e-14 -3.80549e-14 7.5554e-14 8.86413e-14 5.8141e-15 -1.22362e-14 -3.56026e-14 -6.46814e-14 -2.32192e-14 -2.95668e-14 -2.60824e-14 -2.03675e-14 -4.07168e-14 -1.92081e-14 1.15463e-14 0 0 4.5233e-15 4.1753e-15 5.01838e-15 4.16781e-15 2.20709e-15 2.53029e-15 3.08456e-15 3.7363e-15 5.03794e-15 5.49792e-15 4.59059e-15 6.37243e-15 5.32008e-15 8.46653e-15 8.7803e-15 -1.43842e-15 -2.94657e-15 -1.22497e-15 -1.57532e-15 1.71839e-15 2.99898e-15 1.62369e-15 1.2225e-16 -6.01462e-15 -1.33864e-14 -7.0461e-15 -7.6347e-15 -7.34374e-15 -1.72744e-15 -3.26679e-15 4.42133e-15 8.24984e-15 -6.77845e-15 -1.13331e-14 2.76824e-15 9.93074e-15 2.44199e-14 1.52793e-14 -6.6552e-15 6.19064e-16 4.86649e-15 -6.18937e-15 -3.27097e-15 1.11842e-14 -9.01826e-15 -1.71495e-14 1.06847e-14 -4.68994e-15 -3.77226e-14 -4.36983e-14 -1.9841e-14 -1.90676e-14 -2.75654e-14 -1.19148e-14 -7.52518e-15 -1.41161e-14 -1.9499e-14 -9.04767e-15 2.51135e-15 -4.13936e-15 -3.41524e-14 -4.35002e-14 -2.50021e-14 -3.10706e-14 -2.23352e-14 1.39354e-15 1.24573e-15 -1.98585e-14 -1.55002e-14 1.02024e-14 3.75085e-15 5.01764e-15 1.07716e-14 1.25521e-14 1.43379e-14 -8.05149e-15 8.7888e-15 2.77817e-14 3.73087e-14 3.46729e-14 -1.79815e-15 1.99396e-14 2.96795e-14 8.70164e-15 2.25452e-14 5.71503e-14 6.26272e-14 2.99593e-15 -2.48156e-13 -6.90222e-13 -1.05012e-12 -1.15798e-12 -8.7477e-13 -2.17953e-13 6.12435e-13 1.35845e-12 1.81635e-12 1.96231e-12 1.66644e-12 1.34685e-12 1.385e-12 1.23387e-12 7.10576e-13 -8.78689e-14 -7.35919e-13 -4.56455e-13 2.9679e-12 8.88989e-12 1.46599e-11 1.77276e-11 1.75707e-11 1.583e-11 1.38005e-11 1.18457e-11 1.00881e-11 8.53364e-12 7.22203e-12 6.11325e-12 5.17379e-12 4.38716e-12 3.7539e-12 3.25197e-12 2.86746e-12 2.61792e-12 2.41116e-12 2.21305e-12 2.00574e-12 1.73384e-12 1.54915e-12 1.41919e-12 1.3154e-12 1.26682e-12 1.22147e-12 1.25276e-12 1.31616e-12 1.36093e-12 1.36896e-12 1.35815e-12 1.30002e-12 1.32078e-12 1.2972e-12 1.23455e-12 1.16355e-12 1.02294e-12 1.00784e-12 9.02916e-13 6.93169e-13 5.17466e-13 2.93835e-13 3.62155e-14 -2.06284e-13 -3.29567e-13 -5.16502e-13 -6.62064e-13 -7.99297e-13 -8.27781e-13 -8.53925e-13 -8.38322e-13 -6.24322e-13 -4.17068e-13 -2.55365e-13 -1.55868e-13 -1.11574e-13 -6.56661e-14 -6.24871e-14 -8.08052e-14 -6.90135e-14 -6.73303e-14 -5.94731e-14 -4.66102e-14 -8.11315e-14 -9.30639e-14 -7.54167e-14 -6.07847e-14 -7.38186e-14 -1.05369e-13 -8.91154e-14 -2.60123e-14 -2.13883e-14 -4.65766e-14 -6.16618e-14 -7.33227e-14 -4.32953e-14 -4.55799e-14 1.03772e-14 4.42991e-14 -8.02776e-14 -1.34823e-13 -8.5125e-14 -7.31869e-14 -2.20581e-14 6.88779e-15 -4.81875e-14 -4.24025e-14 -4.78743e-14 -2.86674e-14 1.51184e-14 2.61025e-14 6.45044e-15 0 0 2.22154e-15 1.74587e-15 6.51457e-16 1.2695e-15 3.82149e-15 2.77033e-15 1.9829e-15 4.36639e-15 3.21083e-15 8.43072e-16 4.77811e-16 -1.78812e-15 -8.59928e-16 -6.13475e-15 -1.01665e-14 2.79563e-15 1.11265e-14 9.21221e-15 2.19947e-15 -1.25336e-15 -6.70134e-15 -6.65909e-15 6.34691e-15 1.38441e-14 1.61105e-14 2.60188e-15 -7.7555e-17 3.86098e-15 -3.1493e-16 4.1885e-15 1.25637e-15 -2.36346e-15 6.50116e-15 3.36515e-15 -9.83165e-15 -1.95073e-14 -2.44109e-14 -1.24623e-14 -4.62259e-15 -1.26007e-15 -1.44484e-15 2.05495e-15 -1.42063e-15 -2.25559e-14 -3.39111e-15 6.03194e-15 -2.64218e-14 -3.591e-14 -3.11574e-14 -3.10469e-14 -4.90781e-14 -3.8498e-14 -3.11129e-14 -4.46516e-14 -1.20209e-14 -7.44793e-16 -1.32383e-14 -9.23829e-15 -7.36155e-15 -1.85344e-14 -2.34716e-14 -1.01462e-14 -8.71792e-15 1.587e-14 4.43387e-14 3.45987e-14 -8.48993e-16 7.56839e-15 6.84767e-15 4.91713e-15 6.81752e-15 6.81412e-15 1.3894e-14 -6.16855e-15 -9.22888e-16 3.89934e-14 5.11237e-16 -2.02244e-14 -1.78713e-15 -1.1913e-14 4.62365e-15 -3.18979e-15 3.49014e-15 4.73846e-14 4.68992e-14 2.44135e-14 3.87071e-14 1.27419e-14 -2.62393e-13 -6.96799e-13 -1.04163e-12 -1.14718e-12 -8.72784e-13 -2.22274e-13 6.0903e-13 1.33878e-12 1.81964e-12 1.95235e-12 1.67956e-12 1.38333e-12 1.4314e-12 1.27839e-12 7.99205e-13 1.73173e-15 -6.13874e-13 -3.95443e-13 2.98594e-12 8.92309e-12 1.46473e-11 1.77352e-11 1.75408e-11 1.57424e-11 1.37839e-11 1.19143e-11 1.01951e-11 8.59223e-12 7.22229e-12 6.14374e-12 5.20973e-12 4.42409e-12 3.77455e-12 3.26029e-12 2.88452e-12 2.59023e-12 2.41432e-12 2.22638e-12 2.03158e-12 1.85095e-12 1.62441e-12 1.45593e-12 1.416e-12 1.41367e-12 1.40734e-12 1.42185e-12 1.45707e-12 1.49448e-12 1.47568e-12 1.40302e-12 1.36654e-12 1.2949e-12 1.24662e-12 1.2329e-12 1.16907e-12 1.11603e-12 1.02814e-12 8.88112e-13 6.88739e-13 4.86739e-13 2.78651e-13 5.72087e-14 -1.48829e-13 -2.82045e-13 -5.69415e-13 -7.2622e-13 -8.79811e-13 -9.95525e-13 -9.31203e-13 -8.02739e-13 -6.34423e-13 -4.62004e-13 -2.6952e-13 -1.42852e-13 -7.54011e-14 -6.1091e-14 -3.75037e-14 -2.78902e-14 -5.98934e-14 -8.98729e-14 -1.2215e-13 -1.50649e-13 -1.07344e-13 -4.81317e-14 -3.59655e-14 -5.58043e-14 -4.08939e-14 -5.15344e-15 -2.38884e-14 -5.0268e-14 -1.86838e-14 1.25059e-14 4.46318e-14 5.04129e-14 1.3721e-14 1.5413e-14 -4.65429e-14 -1.05886e-13 -5.5966e-14 -4.11153e-14 -3.9519e-14 -2.49893e-14 -8.58754e-14 -9.74134e-14 -5.38583e-14 -5.04462e-14 -3.02216e-14 -3.88377e-14 -4.3633e-14 -7.56073e-14 -8.82873e-14 0 0 1.11253e-14 1.14877e-14 1.19828e-14 1.15099e-14 9.6972e-15 1.01099e-14 1.05854e-14 7.67048e-15 7.37259e-15 6.66707e-15 6.61541e-15 1.01984e-14 7.951e-15 7.41939e-15 1.18319e-14 5.59483e-15 -5.2055e-15 -1.17968e-14 -8.52029e-15 -4.72561e-15 -1.25913e-15 -3.2222e-16 -4.70078e-15 -2.74517e-15 -5.28497e-15 -3.8216e-15 -2.91292e-15 -4.36185e-15 1.00731e-15 -3.70741e-15 -8.01009e-15 -3.23144e-15 -2.29641e-15 6.71358e-15 1.87327e-14 2.69377e-14 1.03146e-14 -4.2901e-15 -5.39602e-16 -1.02672e-14 -2.19896e-14 -2.24079e-14 -2.85024e-14 -1.38635e-14 -6.58203e-15 -2.0714e-14 -7.73668e-16 1.53021e-14 1.05896e-14 5.37619e-15 2.36343e-15 -2.26139e-14 -2.88797e-14 -1.5384e-14 -2.73651e-14 -2.3601e-14 -2.7999e-15 3.90456e-15 -7.30568e-15 -3.58811e-15 6.24206e-15 -8.53183e-15 -1.09341e-14 -3.93717e-15 -1.09853e-14 3.13666e-15 3.70817e-14 9.56857e-15 -2.05194e-15 1.88392e-14 2.34902e-14 3.79167e-15 -1.95847e-14 8.43835e-15 2.03609e-14 -2.04789e-14 -2.68489e-14 -1.23985e-14 9.0651e-16 1.3687e-14 2.83794e-14 4.58343e-14 6.5369e-15 -6.28534e-16 -4.88291e-15 2.7955e-15 4.41598e-14 2.582e-14 -1.34986e-13 -4.2154e-13 -6.38705e-13 -7.04216e-13 -5.50196e-13 -1.34576e-13 3.88679e-13 8.47947e-13 1.12109e-12 1.20437e-12 1.03537e-12 8.55605e-13 9.1109e-13 8.04416e-13 4.53279e-13 -3.55225e-14 -4.43239e-13 -3.10092e-13 1.85347e-12 5.54048e-12 9.04496e-12 1.09209e-11 1.07838e-11 9.71081e-12 8.47515e-12 7.30669e-12 6.23995e-12 5.22637e-12 4.42139e-12 3.76937e-12 3.21616e-12 2.76282e-12 2.327e-12 1.99498e-12 1.80238e-12 1.66904e-12 1.52612e-12 1.37785e-12 1.22894e-12 1.12222e-12 1.02393e-12 9.51525e-13 9.09593e-13 8.35384e-13 7.67768e-13 8.41169e-13 9.46023e-13 9.89483e-13 9.76574e-13 9.21946e-13 9.24173e-13 9.37179e-13 8.72257e-13 8.17399e-13 7.76671e-13 7.06062e-13 6.63474e-13 5.589e-13 4.60946e-13 3.84149e-13 2.03926e-13 3.27307e-14 -1.61253e-13 -2.35287e-13 -3.57188e-13 -5.35728e-13 -6.25515e-13 -5.56452e-13 -5.18534e-13 -5.09765e-13 -3.65457e-13 -2.32504e-13 -1.72428e-13 -1.46058e-13 -8.33347e-14 -3.52082e-14 -8.18233e-14 -9.98275e-14 -5.18534e-14 -2.93459e-14 -4.53089e-14 -3.44765e-14 -3.93012e-14 -1.08497e-13 -1.27876e-13 -9.44841e-14 -1.11824e-13 -8.90956e-14 -4.48981e-14 -3.69607e-14 -6.25351e-14 -6.86468e-14 -6.4592e-14 -8.51226e-14 -6.11467e-14 -3.91355e-14 -3.02822e-14 -5.03824e-14 -9.20724e-14 -7.87031e-14 -5.17343e-14 -4.14018e-14 -1.8953e-14 -4.69212e-14 -4.78226e-14 5.98889e-15 2.08703e-15 -2.13674e-14 -7.06199e-14 -8.92812e-14 -8.99898e-14 0 0 0 0 0 0 0 0 0 0 0 0 0 0 0 0 0 0 0 0 0 0 0 0 0 0 0 0 0 0 0 0 0 0 0 0 0 0 0 0 0 0 0 0 0 0 0 0 0 0 0 0 0 0 0 0 0 0 0 0 0 0 0 0 0 0 0 0 0 0 0 0 0 0 0 0 0 0 0 0 0 0 0 0 0 0 0 0 0 0 0 0 0 0 0 0 0 0 0 0 0 0 0 0 0 0 0 0 0 0 0 0 0 0 0 0 0 0 0 0 0 0 0 0 0 0 0 0 0 0 0 0 0 0 0 0 0 0 0 0 0 0 0 0 0 0 0 0 0 0 0 0 0 0 0 0 0 0 0 0 0 0 0 0 0 0 0 0 0 0 0 0 0 0 0 0 0 0 0 0 0 0 0 0 0 0 0 0 0 0 0 0 0 0 0 0 0 0 0 0 0 0
				</DataArray>
			</PointData>
			<CellData Scalars="Density">