<?xml version="1.0"?>
<VTKFile type="PolyData">
	<PolyData>
		<Piece NumberOfPoints="1206" NumberOfPolys="1000">
			<Points>
				<DataArray type="Float32" NumberOfComponents="3" format="ascii">
 0 0 0 0.005 0 0 0.01 0 0 0.015 0 0 0.02 0 0 0.025 0 0 0.03 0 0 0.035 0 0 0.04 0 0 0.045 0 0 0.05 0 0 0.055 0 0 0.06 0 0 0.065 0 0 0.07 0 0 0.075 0 0 0.08 0 0 0.085 0 0 0.09 0 0 0.095 0 0 0.1 0 0 0.105 0 0 0.11 0 0 0.115 0 0 0.12 0 0 0.125 0 0 0.13 0 0 0.135 0 0 0.14 0 0 0.145 0 0 0.15 0 0 0.155 0 0 0.16 0 0 0.165 0 0 0.17 0 0 0.175 0 0 0.18 0 0 0.185 0 0 0.19 0 0 0.195 0 0 0.2 0 0 0.205 0 0 0.21 0 0 0.215 0 0 0.22 0 0 0.225 0 0 0.23 0 0 0.235001 0 0 0.240002 0 0 0.245006 0 0 0.250014 0 0 0.255033 0 0 0.260072 0 0 0.265141 0 0 0.270257 0 0 0.275434 0 0 0.280684 0 0 0.286018 0 0 0.291446 0 0 0.296973 0 0 0.302607 0 0 0.308354 0 0 0.314219 0 0 0.32021 0 0 0.326333 0 0 0.332595 0 0 0.339003 0 0 0.345567 0 0 0.352293 0 0 0.359193 0 0 0.366275 0 0 0.373552 0 0 0.381036 0 0 0.388739 0 0 0.396677 0 0 0.404866 0 0 0.413322 0 0 0.422067 0 0 0.431121 0 0 0.440508 0 0 0.450255 0 0 0.460389 0 0 0.47094 0 0 0.481935 0 0 0.493391 0 0 0.505294 0 0 0.51753 0 0 0.529808 0 0 0.541993 0 0 0.554071 0 0 0.56605 0 0 0.577954 0 0 0.58981 0 0 0.60164 0 0 0.613458 0 0 0.625271 0 0 0.637081 0 0 0.648889 0 0 0.660698 0 0 0.67251 0 0 0.68432 0 0 0.686599 0 0 0.688878 0 0 0.691157 0 0 0.693436 0 0 0.695714 0 0 0.697991 0 0 0.700266 0 0 0.702542 0 0 0.704819 0 0 0.707095 0 0 0.709371 0 0 0.711652 0 0 0.713932 0 0 0.716211 0 0 0.718488 0 0 0.720766 0 0 0.723045 0 0 0.725324 0 0 0.727602 0 0 0.729878 0 0 0.732157 0 0 0.734439 0 0 0.73672 0 0 0.739001 0 0 0.741281 0 0 0.743559 0 0 0.745838 0 0 0.748118 0 0 0.750397 0 0 0.752674 0 0 0.754953 0 0 0.757235 0 0 0.759517 0 0 0.761797 0 0 0.764077 0 0 0.766358 0 0 0.768639 0 0 0.770919 0 0 0.7732 0 0 0.77548 0 0 0.777761 0 0 0.780042 0 0 0.782322 0 0 0.7846 0 0 0.786879 0 0 0.78916 0 0 0.791439 0 0 0.793718 0 0 0.795999 0 0 0.798282 0 0 0.800564 0 0 0.802844 0 0 0.805124 0 0 0.807404 0 0 0.809682 0 0 0.811959 0 0 0.814236 0 0 0.816519 0 0 0.818801 0 0 0.82109 0 0 0.823405 0 0 0.825743 0 0 0.828167 0 0 0.830729 0 0 0.833411 0 0 0.836321 0 0 0.839481 0 0 0.842967 0 0 0.846803 0 0 0.850993 0 0 0.855491 0 0 0.860219 0 0 0.86509 0 0 0.870036 0 0 0.875014 0 0 0.880005 0 0 0.885002 0 0 0.890001 0 0 0.895 0 0 0.9 0 0 0.905 0 0 0.91 0 0 0.915 0 0 0.92 0 0 0.925 0 0 0.93 0 0 0.935 0 0 0.94 0 0 0.945 0 0 0.95 0 0 0.955 0 0 0.96 0 0 0.965 0 0 0.97 0 0 0.975 0 0 0.98 0 0 0.985 0 0 0.99 0 0 0.995 0 0 1 0 0 0 0.02 0 0.005 0.02 0 0.01 0.02 0 0.015 0.02 0 0.02 0.02 0 0.025 0.02 0 0.03 0.02 0 0.035 0.02 0 0.04 0.02 0 0.045 0.02 0 0.05 0.02 0 0.055 0.02 0 0.06 0.02 0 0.065 0.02 0 0.07 0.02 0 0.075 0.02 0 0.08 0.02 0 0.085 0.02 0 0.09 0.02 0 0.095 0.02 0 0.1 0.02 0 0.105 0.02 0 0.11 0.02 0 0.115 0.02 0 0.12 0.02 0 0.125 0.02 0 0.13 0.02 0 0.135 0.02 0 0.14 0.02 0 0.145 0.02 0 0.15 0.02 0 0.155 0.02 0 0.16 0.02 0 0.165 0.02 0 0.17 0.02 0 0.175 0.02 0 0.18 0.02 0 0.185 0.02 0 0.19 0.02 0 0.195 0.02 0 0.2 0.02 0 0.205 0.02 0 0.21 0.02 0 0.215 0.02 0 0.22 0.02 0 0.225 0.02 0 0.23 0.02 0 0.235001 0.02 0 0.240002 0.02 0 0.245006 0.02 0 0.250014 0.02 0 0.255033 0.02 0 0.260072 0.02 0 0.265141 0.02 0 0.270257 0.02 0 0.275434 0.02 0 0.280684 0.02 0 0.286018 0.02 0 0.291446 0.02 0 0.296973 0.02 0 0.302607 0.02 0 0.308354 0.02 0 0.314219 0.02 0 0.32021 0.02 0 0.326333 0.02 0 0.332595 0.02 0 0.339003 0.02 0 0.345567 0.02 0 0.352293 0.02 0 0.359193 0.02 0 0.366275 0.02 0 0.373552 0.02 0 0.381036 0.02 0 0.388739 0.02 0 0.396677 0.02 0 0.404866 0.02 0 0.413322 0.02 0 0.422067 0.02 0 0.431121 0.02 0 0.440508 0.02 0 0.450255 0.02 0 0.460389 0.02 0 0.47094 0.02 0 0.481935 0.02 0 0.493391 0.02 0 0.505294 0.02 0 0.51753 0.02 0 0.529808 0.02 0 0.541993 0.02 0 0.554071 0.02 0 0.56605 0.02 0 0.577954 0.02 0 0.58981 0.02 0 0.60164 0.02 0 0.613458 0.02 0 0.625271 0.02 0 0.637081 0.02 0 0.648889 0.02 0 0.660698 0.02 0 0.67251 0.02 0 0.68432 0.02 0 0.686599 0.02 0 0.688878 0.02 0 0.691157 0.02 0 0.693436 0.02 0 0.695714 0.02 0 0.697991 0.02 0 0.700266 0.02 0 0.702542 0.02 0 0.704819 0.02 0 0.707095 0.02 0 0.709371 0.02 0 0.711652 0.02 0 0.713932 0.02 0 0.716211 0.02 0 0.718488 0.02 0 0.720766 0.02 0 0.723045 0.02 0 0.725324 0.02 0 0.727602 0.02 0 0.729878 0.02 0 0.732157 0.02 0 0.734439 0.02 0 0.73672 0.02 0 0.739001 0.02 0 0.741281 0.02 0 0.743559 0.02 0 0.745838 0.02 0 0.748118 0.02 0 0.750397 0.02 0 0.752674 0.02 0 0.754953 0.02 0 0.757235 0.02 0 0.759517 0.02 0 0.761797 0.02 0 0.764077 0.02 0 0.766358 0.02 0 0.768639 0.02 0 0.770919 0.02 0 0.7732 0.02 0 0.77548 0.02 0 0.777761 0.02 0 0.780042 0.02 0 0.782322 0.02 0 0.7846 0.02 0 0.786879 0.02 0 0.78916 0.02 0 0.791439 0.02 0 0.793718 0.02 0 0.795999 0.02 0 0.798282 0.02 0 0.800564 0.02 0 0.802844 0.02 0 0.805124 0.02 0 0.807404 0.02 0 0.809682 0.02 0 0.811959 0.02 0 0.814236 0.02 0 0.816519 0.02 0 0.818801 0.02 0 0.82109 0.02 0 0.823405 0.02 0 0.825743 0.02 0 0.828167 0.02 0 0.830729 0.02 0 0.833411 0.02 0 0.836321 0.02 0 0.839481 0.02 0 0.842967 0.02 0 0.846803 0.02 0 0.850993 0.02 0 0.855491 0.02 0 0.860219 0.02 0 0.86509 0.02 0 0.870036 0.02 0 0.875014 0.02 0 0.880005 0.02 0 0.885002 0.02 0 0.890001 0.02 0 0.895 0.02 0 0.9 0.02 0 0.905 0.02 0 0.91 0.02 0 0.915 0.02 0 0.92 0.02 0 0.925 0.02 0 0.93 0.02 0 0.935 0.02 0 0.94 0.02 0 0.945 0.02 0 0.95 0.02 0 0.955 0.02 0 0.96 0.02 0 0.965 0.02 0 0.97 0.02 0 0.975 0.02 0 0.98 0.02 0 0.985 0.02 0 0.99 0.02 0 0.995 0.02 0 1 0.02 0 0 0.04 0 0.005 0.04 0 0.01 0.04 0 0.015 0.04 0 0.02 0.04 0 0.025 0.04 0 0.03 0.04 0 0.035 0.04 0 0.04 0.04 0 0.045 0.04 0 0.05 0.04 0 0.055 0.04 0 0.06 0.04 0 0.065 0.04 0 0.07 0.04 0 0.075 0.04 0 0.08 0.04 0 0.085 0.04 0 0.09 0.04 0 0.095 0.04 0 0.1 0.04 0 0.105 0.04 0 0.11 0.04 0 0.115 0.04 0 0.12 0.04 0 0.125 0.04 0 0.13 0.04 0 0.135 0.04 0 0.14 0.04 0 0.145 0.04 0 0.15 0.04 0 0.155 0.04 0 0.16 0.04 0 0.165 0.04 0 0.17 0.04 0 0.175 0.04 0 0.18 0.04 0 0.185 0.04 0 0.19 0.04 0 0.195 0.04 0 0.2 0.04 0 0.205 0.04 0 0.21 0.04 0 0.215 0.04 0 0.22 0.04 0 0.225 0.04 0 0.23 0.04 0 0.235001 0.04 0 0.240002 0.04 0 0.245006 0.04 0 0.250014 0.04 0 0.255033 0.04 0 0.260072 0.04 0 0.265141 0.04 0 0.270257 0.04 0 0.275434 0.04 0 0.280684 0.04 0 0.286018 0.04 0 0.291446 0.04 0 0.296973 0.04 0 0.302607 0.04 0 0.308354 0.04 0 0.314219 0.04 0 0.32021 0.04 0 0.326333 0.04 0 0.332595 0.04 0 0.339003 0.04 0 0.345567 0.04 0 0.352293 0.04 0 0.359193 0.04 0 0.366275 0.04 0 0.373552 0.04 0 0.381036 0.04 0 0.388739 0.04 0 0.396677 0.04 0 0.404866 0.04 0 0.413322 0.04 0 0.422067 0.04 0 0.431121 0.04 0 0.440508 0.04 0 0.450255 0.04 0 0.460389 0.04 0 0.47094 0.04 0 0.481935 0.04 0 0.493391 0.04 0 0.505294 0.04 0 0.51753 0.04 0 0.529808 0.04 0 0.541993 0.04 0 0.554071 0.04 0 0.56605 0.04 0 0.577954 0.04 0 0.58981 0.04 0 0.60164 0.04 0 0.613458 0.04 0 0.625271 0.04 0 0.637081 0.04 0 0.648889 0.04 0 0.660698 0.04 0 0.67251 0.04 0 0.68432 0.04 0 0.686599 0.04 0 0.688878 0.04 0 0.691157 0.04 0 0.693436 0.04 0 0.695714 0.04 0 0.697991 0.04 0 0.700266 0.04 0 0.702542 0.04 0 0.704819 0.04 0 0.707095 0.04 0 0.709371 0.04 0 0.711652 0.04 0 0.713932 0.04 0 0.716211 0.04 0 0.718488 0.04 0 0.720766 0.04 0 0.723045 0.04 0 0.725324 0.04 0 0.727602 0.04 0 0.729878 0.04 0 0.732157 0.04 0 0.734439 0.04 0 0.73672 0.04 0 0.739001 0.04 0 0.741281 0.04 0 0.743559 0.04 0 0.745838 0.04 0 0.748118 0.04 0 0.750397 0.04 0 0.752674 0.04 0 0.754953 0.04 0 0.757235 0.04 0 0.759517 0.04 0 0.761797 0.04 0 0.764077 0.04 0 0.766358 0.04 0 0.768639 0.04 0 0.770919 0.04 0 0.7732 0.04 0 0.77548 0.04 0 0.777761 0.04 0 0.780042 0.04 0 0.782322 0.04 0 0.7846 0.04 0 0.786879 0.04 0 0.78916 0.04 0 0.791439 0.04 0 0.793718 0.04 0 0.795999 0.04 0 0.798282 0.04 0 0.800564 0.04 0 0.802844 0.04 0 0.805124 0.04 0 0.807404 0.04 0 0.809682 0.04 0 0.811959 0.04 0 0.814236 0.04 0 0.816519 0.04 0 0.818801 0.04 0 0.82109 0.04 0 0.823405 0.04 0 0.825743 0.04 0 0.828167 0.04 0 0.830729 0.04 0 0.833411 0.04 0 0.836321 0.04 0 0.839481 0.04 0 0.842967 0.04 0 0.846803 0.04 0 0.850993 0.04 0 0.855491 0.04 0 0.860219 0.04 0 0.86509 0.04 0 0.870036 0.04 0 0.875014 0.04 0 0.880005 0.04 0 0.885002 0.04 0 0.890001 0.04 0 0.895 0.04 0 0.9 0.04 0 0.905 0.04 0 0.91 0.04 0 0.915 0.04 0 0.92 0.04 0 0.925 0.04 0 0.93 0.04 0 0.935 0.04 0 0.94 0.04 0 0.945 0.04 0 0.95 0.04 0 0.955 0.04 0 0.96 0.04 0 0.965 0.04 0 0.97 0.04 0 0.975 0.04 0 0.98 0.04 0 0.985 0.04 0 0.99 0.04 0 0.995 0.04 0 1 0.04 0 0 0.06 0 0.005 0.06 0 0.01 0.06 0 0.015 0.06 0 0.02 0.06 0 0.025 0.06 0 0.03 0.06 0 0.035 0.06 0 0.04 0.06 0 0.045 0.06 0 0.05 0.06 0 0.055 0.06 0 0.06 0.06 0 0.065 0.06 0 0.07 0.06 0 0.075 0.06 0 0.08 0.06 0 0.085 0.06 0 0.09 0.06 0 0.095 0.06 0 0.1 0.06 0 0.105 0.06 0 0.11 0.06 0 0.115 0.06 0 0.12 0.06 0 0.125 0.06 0 0.13 0.06 0 0.135 0.06 0 0.14 0.06 0 0.145 0.06 0 0.15 0.06 0 0.155 0.06 0 0.16 0.06 0 0.165 0.06 0 0.17 0.06 0 0.175 0.06 0 0.18 0.06 0 0.185 0.06 0 0.19 0.06 0 0.195 0.06 0 0.2 0.06 0 0.205 0.06 0 0.21 0.06 0 0.215 0.06 0 0.22 0.06 0 0.225 0.06 0 0.23 0.06 0 0.235001 0.06 0 0.240002 0.06 0 0.245006 0.06 0 0.250014 0.06 0 0.255033 0.06 0 0.260072 0.06 0 0.265141 0.06 0 0.270257 0.06 0 0.275434 0.06 0 0.280684 0.06 0 0.286018 0.06 0 0.291446 0.06 0 0.296973 0.06 0 0.302607 0.06 0 0.308354 0.06 0 0.314219 0.06 0 0.32021 0.06 0 0.326333 0.06 0 0.332595 0.06 0 0.339003 0.06 0 0.345567 0.06 0 0.352293 0.06 0 0.359193 0.06 0 0.366275 0.06 0 0.373552 0.06 0 0.381036 0.06 0 0.388739 0.06 0 0.396677 0.06 0 0.404866 0.06 0 0.413322 0.06 0 0.422067 0.06 0 0.431121 0.06 0 0.440508 0.06 0 0.450255 0.06 0 0.460389 0.06 0 0.47094 0.06 0 0.481935 0.06 0 0.493391 0.06 0 0.505294 0.06 0 0.51753 0.06 0 0.529808 0.06 0 0.541993 0.06 0 0.554071 0.06 0 0.56605 0.06 0 0.577954 0.06 0 0.58981 0.06 0 0.60164 0.06 0 0.613458 0.06 0 0.625271 0.06 0 0.637081 0.06 0 0.648889 0.06 0 0.660698 0.06 0 0.67251 0.06 0 0.68432 0.06 0 0.686599 0.06 0 0.688878 0.06 0 0.691157 0.06 0 0.693436 0.06 0 0.695714 0.06 0 0.697991 0.06 0 0.700266 0.06 0 0.702542 0.06 
[...]
			<PointData Scalars="VitesseX">
				<DataArray Name="VitesseX" type="Float32" format="ascii">
 0 0 0 0 0 0 0 0 0 0 0 0 0 0 0 0 0 0 0 0 0 0 0 0 0 0 0 0 0 0 0 0 0 0 0 0 0 0 0 0 0 0 0 0 0 0 0 0 0 0 0 0 0 0 0 0 0 0 0 0 0 0 0 0 0 0 0 0 0 0 0 0 0 0 0 0 0 0 0 0 0 0 0 0 0 0 0 0 0 0 0 0 0 0 0 0 0 0 0 0 0 0 0 0 0 0 0 0 0 0 0 0 0 0 0 0 0 0 0 0 0 0 0 0 0 0 0 0 0 0 0 0 0 0 0 0 0 0 0 0 0 0 0 0 0 0 0 0 0 0 0 0 0 0 0 0 0 0 0 0 0 0 0 0 0 0 0 0 0 0 0 0 0 0 0 0 0 0 0 0 0 0 0 0 0 0 0 0 0 0 0 0 0 0 0 0 0 0 0 0 0 0 4.28673e-15 7.31358e-15 7.6042e-15 7.71162e-15 2.31675e-15 4.38393e-15 7.27801e-15 6.12074e-15 3.06283e-15 4.86479e-15 7.86029e-15 -3.8312e-15 8.99786e-15 1.29066e-14 6.68631e-15 8.62369e-15 1.1282e-14 8.94418e-15 1.1902e-14 3.60646e-15 1.54862e-14 2.98814e-15 6.50201e-15 4.21894e-15 7.84425e-15 2.88924e-14 3.98366e-14 4.95675e-14 3.62842e-14 2.636e-14 3.2986e-14 5.55807e-14 1.33556e-13 8.77796e-13 4.8758e-12 2.77102e-11 1.5086e-10 7.8412e-10 3.87627e-09 1.81989e-08 8.09708e-08 3.40604e-07 1.35098e-06 5.03741e-06 1.75956e-05 5.73423e-05 0.000173523 0.000484922 0.00124385 0.00291021 0.00617746 0.0118624 0.020635 0.0327299 0.0478678 0.0654461 0.0848236 0.105502 0.127164 0.149629 0.172804 0.196644 0.221132 0.246265 0.272051 0.298506 0.325651 0.353513 0.382121 0.41151 0.441719 0.472789 0.504765 0.537696 0.571633 0.60663 0.642737 0.680002 0.718456 0.758098 0.798853 0.840484 0.882356 0.922812 0.957373 0.973895 0.966484 0.958188 0.949665 0.942934 0.938495 0.936006 0.934786 0.934233 0.933967 0.933814 0.933742 0.933834 0.933883 0.933304 0.933198 0.933105 0.933028 0.932969 0.932931 0.932912 0.932913 0.932936 0.933174 0.933665 0.933721 0.933631 0.933533 0.933401 0.933321 0.93324 0.933199 0.933186 0.933232 0.93366 0.934208 0.933926 0.933844 0.93363 0.933429 0.933218 0.933071 0.93298 0.93296 0.933057 0.933829 0.934116 0.934034 0.933817 0.933713 0.933625 0.933522 0.933457 0.933377 0.933302 0.93318 0.933047 0.932872 0.932725 0.932582 0.932502 0.932472 0.932553 0.93331 0.93346 0.933149 0.932238 0.931603 0.93084 0.930302 0.929974 0.931222 0.936435 0.939303 0.925801 0.933784 0.879592 0.83719 0.845854 0.735602 0.677883 0.560403 0.4521 0.324929 0.211876 0.120341 0.0595356 0.0261207 0.0106053 0.0041396 0.00158838 0.000605222 0.00022994 8.72365e-05 3.30641e-05 1.25196e-05 4.73487e-06 1.78805e-06 6.73978e-07 2.53471e-07 9.50688e-08 3.5545e-08 1.32418e-08 4.9129e-09 1.81454e-09 6.66766e-10 2.43728e-10 8.85062e-11 3.20332e-11 1.14946e-11 4.10486e-12 1.54122e-12 5.2089e-13 1.08774e-13 0 0 3.75281e-15 4.77642e-15 7.06008e-15 6.22793e-15 8.77633e-15 5.93242e-15 7.2678e-15 1.38859e-15 2.35424e-15 6.03592e-15 1.00627e-14 -6.37102e-16 -5.91015e-15 3.0984e-15 1.04001e-14 1.50434e-14 1.32339e-14 6.51843e-15 7.2532e-15 -2.36538e-15 3.64445e-14 -6.83375e-15 3.1911e-15 1.90866e-14 2.51359e-14 3.02089e-14 2.22812e-14 4.60635e-14 2.77598e-14 5.02012e-14 4.86405e-14 5.44632e-14 1.20244e-13 8.38504e-13 4.89515e-12 2.76457e-11 1.5088e-10 7.84113e-10 3.87624e-09 1.81989e-08 8.09708e-08 3.40604e-07 1.35098e-06 5.03741e-06 1.75956e-05 5.73423e-05 0.000173523 0.000484922 0.00124385 0.00291021 0.00617746 0.0118624 0.020635 0.0327299 0.0478678 0.0654461 0.0848236 0.105502 0.127164 0.149629 0.172804 0.196644 0.221132 0.246265 0.272051 0.298506 0.325651 0.353513 0.382121 0.41151 0.441719 0.472789 0.504765 0.537696 0.571633 0.60663 0.642737 0.680002 0.718456 0.758098 0.798853 0.840484 0.882356 0.922812 0.957373 0.973895 0.966484 0.958188 0.949665 0.942934 0.938495 0.936006 0.934786 0.934233 0.933967 0.933814 0.933742 0.933834 0.933883 0.933304 0.933198 0.933105 0.933028 0.932969 0.932931 0.932912 0.932913 0.932936 0.933174 0.933665 0.933721 0.933631 0.933533 0.933401 0.933321 0.93324 0.933199 0.933186 0.933232 0.93366 0.934208 0.933926 0.933844 0.93363 0.933429 0.933218 0.933071 0.93298 0.93296 0.933057 0.933829 0.934116 0.934034 0.933817 0.933713 0.933625 0.933522 0.933457 0.933377 0.933302 0.93318 0.933047 0.932872 0.932725 0.932582 0.932502 0.932472 0.932553 0.93331 0.93346 0.933149 0.932238 0.931603 0.93084 0.930302 0.929974 0.931222 0.936435 0.939303 0.925801 0.933784 0.879592 0.83719 0.845854 0.735602 0.677883 0.560403 0.4521 0.324929 0.211876 0.120341 0.0595356 0.0261207 0.0106053 0.0041396 0.00158838 0.000605222 0.00022994 8.72365e-05 3.30641e-05 1.25196e-05 4.73487e-06 1.78805e-06 6.73978e-07 2.53471e-07 9.50689e-08 3.5545e-08 1.32417e-08 4.91294e-09 1.81452e-09 6.66801e-10 2.43728e-10 8.86207e-11 3.20055e-11 1.15253e-11 4.06192e-12 1.63125e-12 2.96286e-13 8.25288e-14 0 0 3.5176e-15 4.74332e-15 7.06257e-15 5.58132e-15 7.72429e-15 4.48076e-15 7.22879e-15 6.69079e-15 7.17564e-15 -1.78765e-15 3.04071e-15 1.7006e-14 -8.02399e-15 -8.25231e-15 1.59551e-14 7.07371e-15 -5.19505e-15 4.67883e-17 1.4286e-14 -6.81855e-15 2.95995e-14 1.3149e-14 1.75796e-14 4.77054e-15 3.09874e-14 3.42384e-14 2.73828e-14 1.78448e-14 3.41811e-14 3.43943e-14 9.47813e-14 5.46932e-14 1.60897e-13 7.72741e-13 4.83409e-12 2.77104e-11 1.50922e-10 7.84017e-10 3.87628e-09 1.81988e-08 8.09709e-08 3.40604e-07 1.35098e-06 5.03741e-06 1.75956e-05 5.73423e-05 0.000173523 0.000484922 0.00124385 0.00291021 0.00617746 0.0118624 0.020635 0.0327299 0.0478678 0.0654461 0.0848236 0.105502 0.127164 0.149629 0.172804 0.196644 0.221132 0.246265 0.272051 0.298506 0.325651 0.353513 0.382121 0.41151 0.441719 0.472789 0.504765 0.537696 0.571633 0.60663 0.642737 0.680002 0.718456 0.758098 0.798853 0.840484 0.882356 0.922812 0.957373 0.973895 0.966484 0.958188 0.949665 0.942934 0.938495 0.936006 0.934786 0.934233 0.933967 0.933814 0.933742 0.933834 0.933883 0.933304 0.933198 0.933105 0.933028 0.932969 0.932931 0.932912 0.932913 0.932936 0.933174 0.933665 0.933721 0.933631 0.933533 0.933401 0.933321 0.93324 0.933199 0.933186 0.933232 0.93366 0.934208 0.933926 0.933844 0.93363 0.933429 0.933218 0.933071 0.93298 0.93296 0.933057 0.933829 0.934116 0.934034 0.933817 0.933713 0.933625 0.933522 0.933457 0.933377 0.933302 0.93318 0.933047 0.932872 0.932725 0.932582 0.932502 0.932472 0.932553 0.93331 0.93346 0.933149 0.932238 0.931603 0.93084 0.930302 0.929974 0.931222 0.936435 0.939303 0.925801 0.933784 0.879592 0.83719 0.845854 0.735602 0.677883 0.560403 0.4521 0.324929 0.211876 0.120341 0.0595356 0.0261207 0.0106053 0.0041396 0.00158838 0.000605222 0.00022994 8.72365e-05 3.30641e-05 1.25196e-05 4.73487e-06 1.78805e-06 6.73978e-07 2.53471e-07 9.50689e-08 3.5545e-08 1.32419e-08 4.91283e-09 1.81456e-09 6.66735e-10 2.43707e-10 8.86147e-11 3.20956e-11 1.15316e-11 4.13029e-12 1.44918e-12 3.29542e-13 -5.05114e-14 0 0 1.1155e-15 5.93284e-15 8.88293e-15 6.22923e-15 -3.57288e-16 4.27429e-15 1.02243e-14 3.4272e-16 4.65587e-15 -3.83606e-15 1.96194e-15 3.89898e-15 5.69494e-15 3.44847e-15 5.08036e-15 1.50642e-14 -2.48889e-14 6.70571e-15 -4.0368e-15 -1.36e-14 1.54196e-14 2.26281e-14 3.69845e-14 -6.31674e-15 3.06756e-14 3.35093e-14 5.28085e-14 4.24043e-14 2.02889e-14 1.44192e-14 1.02642e-13 9.8924e-14 1.54284e-13 7.70425e-13 4.76396e-12 2.76964e-11 1.50913e-10 7.84029e-10 3.87633e-09 1.81988e-08 8.09709e-08 3.40603e-07 1.35098e-06 5.03741e-06 1.75956e-05 5.73423e-05 0.000173523 0.000484922 0.00124385 0.00291021 0.00617746 0.0118624 0.020635 0.0327299 0.0478678 0.0654461 0.0848236 0.105502 0.127164 0.149629 0.172804 0.196644 0.221132 0.246265 0.272051 0.298506 0.325651 0.353513 0.382121 0.41151 0.441719 0.472789 0.504765 0.537696 0.571633 0.60663 0.642737 0.680002 0.718456 0.758098 0.798853 0.840484 0.882356 0.922812 0.957373 0.973895 0.966484 0.958188 0.949665 0.942934 0.938495 0.936006 0.934786 0.934233 0.933967 0.933814 0.933742 0.933834 0.933883 0.933304 0.933198 0.933105 0.933028 0.932969 0.932931 0.932912 0.932913 0.932936 0.933174 0.933665 0.933721 0.933631 0.933533 0.933401 0.933321 0.93324 0.933199 0.933186 0.933232 0.93366 0.934208 0.933926 0.933844 0.93363 0.933429 0.933218 0.933071 0.93298 0.93296 0.933057 0.933829 0.934116 0.934034 0.933817 0.933713 0.933625 0.933522 0.933457 0.933377 0.933302 0.93318 0.933047 0.932872 0.932725 0.932582 0.932502 0.932472 0.932553 0.93331 0.93346 0.933149 0.932238 0.931603 0.93084 0.930302 0.929974 0.931222 0.936435 0.939303 0.925801 0.933784 0.879592 0.83719 0.845854 0.735602 0.677883 0.560403 0.4521 0.324929 0.211876 0.120341 0.0595356 0.0261207 0.0106053 0.0041396 0.00158838 0.000605222 0.00022994 8.72365e-05 3.30641e-05 1.25196e-05 4.73487e-06 1.78805e-06 6.73978e-07 2.53471e-07 9.50689e-08 3.5545e-08 1.32419e-08 4.91285e-09 1.81446e-09 6.66759e-10 2.43736e-10 8.83935e-11 3.23355e-11 1.15547e-11 4.23198e-12 1.18057e-12 6.11673e-13 -1.42116e-13 0 0 0 0 0 0 0 0 0 0 0 0 0 0 0 0 0 0 0 0 0 0 0 0 0 0 0 0 0 0 0 0 0 0 0 0 0 0 0 0 0 0 0 0 0 0 0 0 0 0 0 0 0 0 0 0 0 0 0 0 0 0 0 0 0 0 0 0 0 0 0 0 0 0 0 0 0 0 0 0 0 0 0 0 0 0 0 0 0 0 0 0 0 0 0 0 0 0 0 0 0 0 0 0 0 0 0 0 0 0 0 0 0 0 0 0 0 0 0 0 0 0 0 0 0 0 0 0 0 0 0 0 0 0 0 0 0 0 0 0 0 0 0 0 0 0 0 0 0 0 0 0 0 0 0 0 0 0 0 0 0 0 0 0 0 0 0 0 0 0 0 0 0 0 0 0 0 0 0 0 0 0 0 0 0 0 0 0 0 0 0 0 0 0 0 0 0 0 0 0 0 0
				</DataArray>
				<DataArray Name="VitesseY" type="Float32" format="ascii">
 0 0 0 0 0 0 0 0 0 0 0 0 0 0 0 0 0 0 0 0 0 0 0 0 0 0 0 0 0 0 0 0 0 0 0 0 0 0 0 0 0 0 0 0 0 0 0 0 0 0 0 0 0 0 0 0 0 0 0 0 0 0 0 0 0 0 0 0 0 0 0 0 0 0 0 0 0 0 0 0 0 0 0 0 0 0 0 0 0 0 0 0 0 0 0 0 0 0 0 0 0 0 0 0 0 0 0 0 0 0 0 0 0 0 0 0 0 0 0 0 0 0 0 0 0 0 0 0 0 0 0 0 0 0 0 0 0 0 0 0 0 0 0 0 0 0 0 0 0 0 0 0 0 0 0 0 0 0 0 0 0 0 0 0 0 0 0 0 0 0 0 0 0 0 0 0 0 0 0 0 0 0 0 0 0 0 0 0 0 0 0 0 0 0 0 0 0 0 0 0 0 0 1.79186e-15 1.5715e-15 2.77364e-15 2.96419e-15 1.6892e-15 1.1298e-15 2.33425e-15 3.30524e-15 2.30388e-15 1.26323e-15 2.03659e-15 2.85191e-16 -2.08778e-15 -1.4964e-15 -1.29199e-15 -3.54788e-15 -2.72084e-15 -1.23452e-15 -1.65704e-15 1.47342e-15 4.64192e-15 4.9402e-15 4.71338e-15 8.01577e-16 -4.34535e-15 5.45267e-16 1.61911e-15 5.74037e-15 1.42436e-14 1.37858e-14 1.39597e-14 1.31543e-14 -6.90202e-16 -7.12577e-15 6.79324e-15 6.76132e-15 -1.69396e-14 -1.29549e-14 -6.76823e-15 -1.11568e-14 -1.01696e-14 -1.11614e-14 -2.06918e-14 -2.17659e-14 -9.87962e-15 -8.67788e-15 1.33529e-14 2.07352e-14 -7.35823e-15 -9.55115e-16 4.98219e-15 -6.24994e-15 -4.19492e-15 -9.84568e-15 -9.9401e-15 5.49742e-15 1.49145e-14 2.453e-15 -1.72733e-15 -9.3934e-15 -1.15514e-14 -2.73679e-14 -1.99768e-14 1.41549e-14 5.38265e-15 -5.76691e-15 -5.4877e-16 -1.25717e-14 1.25619e-14 9.94153e-15 1.08645e-14 2.19153e-14 8.40438e-15 2.87494e-14 2.6164e-14 1.64819e-14 2.02812e-14 -4.28284e-15 8.80756e-15 3.47594e-14 2.37812e-14 -8.33496e-15 -2.42368e-14 3.47604e-14 3.67656e-14 -4.35908e-14 -1.71401e-13 -2.8712e-13 -3.05927e-13 -1.7957e-13 9.56925e-14 4.30976e-13 7.68393e-13 9.97954e-13 1.03864e-12 9.4873e-13 8.20053e-13 6.14538e-13 1.06407e-13 -3.76301e-13 -1.10398e-12 -1.23825e-12 -1.5398e-12 -1.9737e-12 -2.32938e-12 -2.14793e-12 -3.61128e-14 3.61447e-12 7.16107e-12 9.03661e-12 8.86274e-12 7.75385e-12 6.52225e-12 5.29061e-12 4.17513e-12 3.2125e-12 2.40879e-12 1.77583e-12 1.23943e-12 7.72576e-13 3.64753e-13 6.44597e-14 -1.73153e-13 -4.17351e-13 -5.63205e-13 -6.60465e-13 -7.5914e-13 -7.87094e-13 -8.03342e-13 -8.02244e-13 -7.691e-13 -7.69205e-13 -7.99929e-13 -7.73924e-13 -6.77561e-13 -6.00331e-13 -4.99794e-13 -3.59607e-13 -2.31578e-13 -1.18138e-13 -3.38691e-14 4.64219e-14 1.59647e-13 3.42423e-13 5.66638e-13 7.25523e-13 8.14566e-13 9.71551e-13 1.18977e-12 1.34824e-12 1.40392e-12 1.45443e-12 1.57485e-12 1.7018e-12 1.78131e-12 1.85016e-12 1.891e-12 1.94674e-12 1.92111e-12 1.87047e-12 1.87066e-12 1.7213e-12 1.55052e-12 1.4271e-12 1.21602e-12 9.74376e-13 7.3054e-13 5.03757e-13 2.46124e-13 9.83837e-14 1.03113e-14 -4.27663e-14 -3.78798e-14 -5.01571e-14 -4.7011e-14 -3.97246e-14 -4.06909e-14 -2.83164e-14 -3.34685e-14 -4.5298e-14 -4.91815e-14 -5.57077e-14 -5.1947e-14 -5.58703e-14 -3.76349e-14 -3.33387e-14 -6.21394e-14 -8.10776e-14 -9.0165e-14 -6.02508e-14 -3.79202e-15 3.3919e-15 -4.66431e-14 -3.73671e-14 6.45865e-15 -8.85669e-16 -1.76611e-14 -9.32271e-15 -3.66079e-14 0 0 4.61697e-15 4.23418e-15 2.20299e-15 1.37034e-15 3.98172e-15 6.63266e-15 5.95366e-15 3.85123e-15 3.3205e-15 4.4773e-15 4.55113e-15 7.63541e-15 7.07525e-15 1.59033e-16 -1.38787e-15 3.19478e-15 4.52558e-15 3.01467e-15 1.60901e-15 -4.29481e-15 -3.52645e-15 -1.08253e-15 -4.26755e-15 2.76975e-15 1.5749e-14 1.55573e-14 1.04292e-14 1.29676e-15 -1.02691e-14 -6.01814e-15 3.53986e-15 7.99487e-15 1.83076e-14 1.14986e-14 -7.43423e-15 -1.85926e-14 -6.07612e-15 -6.52997e-15 -2.20143e-14 -3.47467e-14 -3.87236e-14 -2.90017e-14 -3.47767e-14 -5.05946e-14 -2.15078e-14 1.72795e-14 -1.32214e-14 -2.56089e-14 7.74227e-15 1.07262e-14 6.05047e-15 1.27317e-14 9.59577e-15 8.33516e-15 1.47937e-14 1.07033e-14 -3.33146e-15 1.3146e-14 2.714e-14 1.92622e-14 1.34381e-14 2.09316e-14 2.83631e-14 3.41337e-14 1.56873e-14 3.54155e-15 -8.527e-15 1.63265e-14 1.75552e-14 -2.03924e-14 -4.22336e-15 8.54399e-15 -5.89868e-15 -3.47757e-14 -1.61306e-14 1.55858e-14 -1.48001e-14 -3.16948e-15 -2.14744e-14 -2.34534e-14 1.51536e-14 2.16096e-14 2.96438e-14 2.37358e-14 2.23468e-14 -8.54635e-14 -2.84805e-13 -4.6408e-13 -4.94801e-13 -2.91984e-13 1.28837e-13 7.11114e-13 1.24899e-12 1.60343e-12 1.70799e-12 1.55323e-12 1.31687e-12 1.0019e-12 1.61048e-13 -6.44355e-13 -1.79857e-12 -2.00135e-12 -2.4889e-12 -3.24051e-12 -3.82327e-12 -3.53271e-12 -1.22707e-13 5.78446e-12 1.14799e-11 1.45598e-11 1.43861e-11 1.2493e-11 1.04171e-11 8.48918e-12 6.78146e-12 5.23934e-12 3.89763e-12 2.80349e-12 1.90968e-12 1.19977e-12 5.42298e-13 -5.82216e-14 -4.61384e-13 -7.25348e-13 -9.89352e-13 -1.16838e-12 -1.29152e-12 -1.38278e-12 -1.43044e-12 -1.42784e-12 -1.35166e-12 -1.3209e-12 -1.27911e-12 -1.20149e-12 -1.13103e-12 -9.52534e-13 -7.78001e-13 -6.46981e-13 -4.82214e-13 -2.84279e-13 -7.94059e-14 1.57744e-13 3.92449e-13 5.53967e-13 7.49836e-13 1.03584e-12 1.37886e-12 1.69498e-12 1.94361e-12 2.11604e-12 2.30091e-12 2.50538e-12 2.62975e-12 2.71306e-12 2.83784e-12 2.96319e-12 3.09833e-12 3.18471e-12 3.26484e-12 3.1744e-12 3.01339e-12 2.81859e-12 2.59795e-12 2.37155e-12 2.02535e-12 1.68063e-12 1.23881e-12 8.20191e-13 4.31109e-13 1.78699e-13 1.01421e-14 -3.1831e-14 -7.02287e-14 -7.16534e-14 -6.28136e-14 -7.45615e-14 -7.16082e-14 -9.73222e-14 -1.00111e-13 -8.24823e-14 -6.33455e-14 -4.43139e-14 -5.02356e-14 -6.06718e-14 -9.54544e-14 -9.36502e-14 -4.52402e-14 -2.49695e-14 -1.7838e-14 -4.169e-14 -9.44196e-14 -9.28198e-14 -1.41124e-14 -1.69907e-15 -4.49258e-14 -4.06463e-14 -1.21291e-14 -5.41358e-14 -8.95683e-14 0 0 3.57576e-15 3.88657e-15 5.91523e-15 6.39536e-15 3.57942e-15 1.82831e-16 6.37721e-16 4.32013e-15 7.12014e-15 5.27791e-15 1.44686e-15 1.02121e-15 5.42235e-15 8.8801e-15 8.96943e-15 3.78102e-15 -4.05934e-15 -8.76511e-15 -7.2741e-15 -8.77984e-16 -4.28566e-15 -3.46496e-15 8.14143e-15 1.42444e-15 -1.38716e-14 -1.10333e-14 -3.79899e-15 -3.54443e-16 5.8428e-15 -5.96763e-16 -2.80195e-15 4.31024e-15 4.25272e-15 4.76961e-15 -8.07888e-15 4.03932e-15 1.81097e-14 5.03725e-15 5.13422e-15 2.67003e-15 -5.5477e-16 -2.41864e-14 -4.09509e-14 -1.13847e-14 -1.89684e-14 -2.55817e-14 -1.20311e-15 1.15245e-14 8.35295e-15 1.62897e-14 2.35243e-14 3.6647e-15 3.86208e-15 1.89662e-14 9.65673e-15 -3.4261e-15 3.16373e-15 1.48972e-14 3.48921e-14 4.18334e-14 1.97511e-14 2.1628e-14 1.5395e-14 -1.76922e-14 -1.32081e-15 5.87466e-15 2.1703e-14 2.47372e-14 1.65002e-15 2.55815e-14 2.65409e-14 -2.20856e-16 -5.35856e-15 7.74211e-15 2.76099e-14 -2.51307e-15 -1.80696e-15 1.64864e-14 2.97887e-14 3.66884e-14 2.60298e-14 2.52815e-14 2.39557e-14 4.22964e-14 1.79327e-14 -7.92079e-14 -2.71399e-13 -4.57107e-13 -4.95827e-13 -3.06393e-13 1.35942e-13 7.13763e-13 1.26766e-12 1.60709e-12 1.67167e-12 1.55343e-12 1.34692e-12 1.00391e-12 1.59448e-13 -6.5979e-13 -1.82144e-12 -1.99175e-12 -2.45146e-12 -3.19573e-12 -3.80404e-12 -3.50818e-12 -1.0184e-14 5.90665e-12 1.1612e-11 1.46191e-11 1.43387e-11 1.24999e-11 1.04493e-11 8.47649e-12 6.69324e-12 5.14812e-12 3.87147e-12 2.8047e-12 1.90749e-12 1.21835e-12 6.12589e-13 8.35096e-14 -3.50234e-13 -7.30834e-13 -9.84761e-13 -1.16022e-12 -1.3088e-12 -1.40529e-12 -1.44788e-12 -1.4351e-12 -1.42083e-12 -1.37997e-12 -1.33933e-12 -1.27485e-12 -1.19492e-12 -1.10331e-12 -9.28688e-13 -6.72952e-13 -4.49048e-13 -2.42509e-13 -6.22306e-14 7.39334e-14 2.84181e-13 5.24447e-13 8.79008e-13 1.13668e-12 1.31215e-12 1.61187e-12 1.9366e-12 2.14892e-12 2.30027e-12 2.43179e-12 2.61925e-12 2.86504e-12 3.02639e-12 3.16731e-12 3.23639e-12 3.21283e-12 3.13177e-12 3.13355e-12 3.0961e-12 2.75415e-12 2.56359e-12 2.43755e-12 2.10247e-12 1.80513e-12 1.28279e-12 8.02185e-13 4.48568e-13 2.24267e-13 7.89455e-14 -5.3453e-14 -8.06539e-14 -6.49916e-14 -8.92192e-14 -9.30081e-14 -9.08151e-14 -5.518e-14 -7.35447e-14 -9.09208e-14 -1.00882e-13 -1.18887e-13 -7.81815e-14 -5.9543e-14 -2.64374e-14 -8.19222e-15 -4.71523e-14 -5.11728e-14 -6.02663e-14 -5.58185e-14 -9.6718e-15 -3.278e-14 -1.17961e-13 -1.09147e-13 -4.18467e-14 -2.73329e-14 -8.44543e-14 -7.95409e-14 -6.86636e-14 0 0 9.82803e-15 9.21696e-15 8.10365e-15 8.09644e-15 9.04683e-15 1.03767e-14 1.08621e-14 6.26323e-15 1.03016e-15 1.7247e-15 5.00528e-15 1.72457e-15 -2.57287e-15 3.31977e-16 5.06309e-16 4.98512e-15 9.97779e-15 1.1284e-14 7.02366e-15 -5.75814e-15 -7.58655e-15 -9.68404e-15 -1.4109e-14 -5.15268e-15 7.36818e-15 4.23713e-15 3.00596e-15 1.21771e-14 8.66205e-15 6.61536e-15 5.75202e-15 1.17694e-14 2.11676e-14 1.83967e-14 1.31161e-14 -2.00295e-14 -3.98897e-14 -2.58914e-14 -9.65975e-15 6.98114e-15 9.36754e-15 1.58087e-14 1.72871e-14 -1.56494e-16 -3.16542e-15 -2.46833e-14 -4.14463e-14 -3.34932e-14 -4.42453e-15 2.48323e-15 -2.23891e-14 2.09021e-14 3.16591e-14 -1.29223e-14 -4.96059e-15 7.42238e-15 1.29028e-14 9.87243e-15 -1.35388e-14 8.18264e-15 3.56738e-14 6.46346e-15 -1.71685e-14 1.51139e-14 2.70431e-14 1.22799e-14 9.03757e-15 4.7489e-15 4.18496e-15 7.2684e-16 1.2458e-14 1.13238e-14 9.33107e-15 2.2556e-14 4.83705e-15 3.60579e-14 2.75169e-14 4.51038e-15 2.13171e-14 -5.6952e-15 -2.35976e-14 4.9336e-15 2.44458e-14 1.81933e-14 3.81676e-14 -2.76614e-14 -2.03505e-13 -3.28147e-13 -3.3106e-13 -1.83874e-13 9.31935e-14 4.32506e-13 7.6785e-13 9.86544e-13 1.05528e-12 9.55717e-13 8.00731e-13 6.19307e-13 8.91913e-14 -4.02943e-13 -1.0684e-12 -1.25662e-12 -1.59257e-12 -1.99391e-12 -2.3159e-12 -2.13855e-12 -3.66006e-14 3.66166e-12 7.17775e-12 9.04214e-12 8.94713e-12 7.76482e-12 6.47209e-12 5.29487e-12 4.23114e-12 3.2547e-12 2.39505e-12 1.75668e-12 1.22487e-12 7.40767e-13 3.59167e-13 3.52733e-14 -2.47889e-13 -4.53317e-13 -6.60436e-13 -8.00336e-13 -8.4764e-13 -8.64215e-13 -9.16371e-13 -8.7957e-13 -8.08772e-13 -7.54703e-13 -7.86117e-13 -8.43419e-13 -6.78826e-13 -5.86859e-13 -5.46313e-13 -3.73838e-13 -3.19662e-13 -1.97006e-13 -3.31168e-14 5.83567e-14 1.6638e-13 2.92652e-13 4.53191e-13 6.25456e-13 7.47753e-13 9.07609e-13 1.13961e-12 1.3308e-12 1.4601e-12 1.58498e-12 1.68282e-12 1.71356e-12 1.67766e-12 1.71951e-12 1.88675e-12 2.09389e-12 2.20932e-12 1.99774e-12 1.84504e-12 1.81521e-12 1.73618e-12 1.55163e-12 1.23576e-12 9.37008e-13 7.40182e-13 5.65728e-13 3.54146e-13 1.4127e-13 -3.72672e-14 1.22079e-14 1.05179e-15 -2.15737e-14 -7.15601e-15 -1.18662e-14 1.37582e-14 -4.38787e-14 -4.22074e-14 -3.3397e-14 -3.48131e-14 -2.0882e-14 -3.3585e-14 -1.48118e-14 -2.89049e-14 -3.987e-14 -1.22694e-14 5.20641e-15 3.4996e-14 1.11599e-14 -5.38151e-14 -1.77802e-14 1.92249e-14 1.49611e-14 1.33643e-14 3.03195e-14 4.55486e-14 4.39942e-14 8.07786e-14 0 0 0 0 0 0 0 0 0 0 0 0 0 0 0 0 0 0 0 0 0 0 0 0 0 0 0 0 0 0 0 0 0 0 0 0 0 0 0 0 0 0 0 0 0 0 0 0 0 0 0 0 0 0 0 0 0 0 0 0 0 0 0 0 0 0 0 0 0 0 0 0 0 0 0 0 0 0 0 0 0 0 0 0 0 0 0 0 0 0 0 0 0 0 0 0 0 0 0 0 0 0 0 0 0 0 0 0 0 0 0 0 0 0 0 0 0 0 0 0 0 0 0 0 0 0 0 0 0 0 0 0 0 0 0 0 0 0 0 0 0 0 0 0 0 0 0 0 0 0 0 0 0 0 0 0 0 0 0 0 0 0 0 0 0 0 0 0 0 0 0 0 0 0 0 0 0 0 0 0 0 0 0 0 0 0 0 0 0 0 0 0 0 0 0 0 0 0 0 0 0 0
				</DataArray>
			</PointData>
			<CellData Scalars="Density">
				<DataArray Name="Density" type="Float32" format="ascii">