<?xml version="1.0"?>
<VTKFile type="PolyData">
	<PolyData>
		<Piece NumberOfPoints="1206" NumberOfPolys="1000">
			<Points>
				<DataArray type="Float32" NumberOfComponents="3" format="ascii">
 0 0 0 0.005 0 0 0.01 0 0 0.015 0 0 0.02 0 0 0.025 0 0 0.03 0 0 0.035 0 0 0.04 0 0 0.045 0 0 0.05 0 0 0.055 0 0 0.06 0 0 0.065 0 0 0.07 0 0 0.075 0 0 0.08 0 0 0.085 0 0 0.09 0 0 0.095 0 0 0.1 0 0 0.105 0 0 0.11 0 0 0.115 0 0 0.12 0 0 0.125 0 0 0.13 0 0 0.135 0 0 0.14 0 0 0.145 0 0 0.15 0 0 0.155 0 0 0.16 0 0 0.165 0 0 0.17 0 0 0.175 0 0 0.18 0 0 0.185 0 0 0.19 0 0 0.195 0 0 0.2 0 0 0.205 0 0 0.21 0 0 0.215 0 0 0.22 0 0 0.225 0 0 0.23 0 0 0.235 0 0 0.24 0 0 0.245 0 0 0.25 0 0 0.255 0 0 0.26 0 0 0.265 0 0 0.27 0 0 0.275 0 0 0.28 0 0 0.285 0 0 0.29 0 0 0.295 0 0 0.3 0 0 0.305 0 0 0.31 0 0 0.315 0 0 0.32 0 0 0.325 0 0 0.33 0 0 0.335 0 0 0.34 0 0 0.345 0 0 0.35 0 0 0.355 0 0 0.36 0 0 0.365 0 0 0.37 0 0 0.375 0 0 0.38 0 0 0.385 0 0 0.39 0 0 0.395 0 0 0.4 0 0 0.405 0 0 0.41 0 0 0.415 0 0 0.42 0 0 0.425 0 0 0.43 0 0 0.435 0 0 0.44 0 0 0.445 0 0 0.45 0 0 0.455 0 0 0.46 0 0 0.465 0 0 0.47 0 0 0.475 0 0 0.480005 0 0 0.485065 0 0 0.490492 0 0 0.49737 0 0 0.508593 0 0 0.51113 0 0 0.514007 0 0 0.517324 0 0 0.52114 0 0 0.52544 0 0 0.530123 0 0 0.535025 0 0 0.540004 0 0 0.545001 0 0 0.55 0 0 0.555 0 0 0.56 0 0 0.565 0 0 0.57 0 0 0.575 0 0 0.58 0 0 0.585 0 0 0.59 0 0 0.595 0 0 0.6 0 0 0.605 0 0 0.61 0 0 0.615 0 0 0.62 0 0 0.625 0 0 0.63 0 0 0.635 0 0 0.64 0 0 0.645 0 0 0.65 0 0 0.655 0 0 0.66 0 0 0.665 0 0 0.67 0 0 0.675 0 0 0.68 0 0 0.685 0 0 0.69 0 0 0.695 0 0 0.7 0 0 0.705 0 0 0.71 0 0 0.715 0 0 0.72 0 0 0.725 0 0 0.73 0 0 0.735 0 0 0.74 0 0 0.745 0 0 0.75 0 0 0.755 0 0 0.76 0 0 0.765 0 0 0.77 0 0 0.775 0 0 0.78 0 0 0.785 0 0 0.79 0 0 0.795 0 0 0.8 0 0 0.805 0 0 0.81 0 0 0.815 0 0 0.82 0 0 0.825 0 0 0.83 0 0 0.835 0 0 0.84 0 0 0.845 0 0 0.85 0 0 0.855 0 0 0.86 0 0 0.865 0 0 0.87 0 0 0.875 0 0 0.88 0 0 0.885 0 0 0.89 0 0 0.895 0 0 0.9 0 0 0.905 0 0 0.91 0 0 0.915 0 0 0.92 0 0 0.925 0 0 0.93 0 0 0.935 0 0 0.94 0 0 0.945 0 0 0.95 0 0 0.955 0 0 0.96 0 0 0.965 0 0 0.97 0 0 0.975 0 0 0.98 0 0 0.985 0 0 0.99 0 0 0.995 0 0 1 0 0 0 0.02 0 0.005 0.02 0 0.01 0.02 0 0.015 0.02 0 0.02 0.02 0 0.025 0.02 0 0.03 0.02 0 0.035 0.02 0 0.04 0.02 0 0.045 0.02 0 0.05 0.02 0 0.055 0.02 0 0.06 0.02 0 0.065 0.02 0 0.07 0.02 0 0.075 0.02 0 0.08 0.02 0 0.085 0.02 0 0.09 0.02 0 0.095 0.02 0 0.1 0.02 0 0.105 0.02 0 0.11 0.02 0 0.115 0.02 0 0.12 0.02 0 0.125 0.02 0 0.13 0.02 0 0.135 0.02 0 0.14 0.02 0 0.145 0.02 0 0.15 0.02 0 0.155 0.02 0 0.16 0.02 0 0.165 0.02 0 0.17 0.02 0 0.175 0.02 0 0.18 0.02 0 0.185 0.02 0 0.19 0.02 0 0.195 0.02 0 0.2 0.02 0 0.205 0.02 0 0.21 0.02 0 0.215 0.02 0 0.22 0.02 0 0.225 0.02 0 0.23 0.02 0 0.235 0.02 0 0.24 0.02 0 0.245 0.02 0 0.25 0.02 0 0.255 0.02 0 0.26 0.02 0 0.265 0.02 0 0.27 0.02 0 0.275 0.02 0 0.28 0.02 0 0.285 0.02 0 0.29 0.02 0 0.295 0.02 0 0.3 0.02 0 0.305 0.02 0 0.31 0.02 0 0.315 0.02 0 0.32 0.02 0 0.325 0.02 0 0.33 0.02 0 0.335 0.02 0 0.34 0.02 0 0.345 0.02 0 0.35 0.02 0 0.355 0.02 0 0.36 0.02 0 0.365 0.02 0 0.37 0.02 0 0.375 0.02 0 0.38 0.02 0 0.385 0.02 0 0.39 0.02 0 0.395 0.02 0 0.4 0.02 0 0.405 0.02 0 0.41 0.02 0 0.415 0.02 0 0.42 0.02 0 0.425 0.02 0 0.43 0.02 0 0.435 0.02 0 0.44 0.02 0 0.445 0.02 0 0.45 0.02 0 0.455 0.02 0 0.46 0.02 0 0.465 0.02 0 0.47 0.02 0 0.475 0.02 0 0.480005 0.02 0 0.485065 0.02 0 0.490492 0.02 0 0.49737 0.02 0 0.508593 0.02 0 0.51113 0.02 0 0.514007 0.02 0 0.517324 0.02 0 0.52114 0.02 0 0.52544 0.02 0 0.530123 0.02 0 0.535025 0.02 0 0.540004 0.02 0 0.545001 0.02 0 0.55 0.02 0 0.555 0.02 0 0.56 0.02 0 0.565 0.02 0 0.57 0.02 0 0.575 0.02 0 0.58 0.02 0 0.585 0.02 0 0.59 0.02 0 0.595 0.02 0 0.6 0.02 0 0.605 0.02 0 0.61 0.02 0 0.615 0.02 0 0.62 0.02 0 0.625 0.02 0 0.63 0.02 0 0.635 0.02 0 0.64 0.02 0 0.645 0.02 0 0.65 0.02 0 0.655 0.02 0 0.66 0.02 0 0.665 0.02 0 0.67 0.02 0 0.675 0.02 0 0.68 0.02 0 0.685 0.02 0 0.69 0.02 0 0.695 0.02 0 0.7 0.02 0 0.705 0.02 0 0.71 0.02 0 0.715 0.02 0 0.72 0.02 0 0.725 0.02 0 0.73 0.02 0 0.735 0.02 0 0.74 0.02 0 0.745 0.02 0 0.75 0.02 0 0.755 0.02 0 0.76 0.02 0 0.765 0.02 0 0.77 0.02 0 0.775 0.02 0 0.78 0.02 0 0.785 0.02 0 0.79 0.02 0 0.795 0.02 0 0.8 0.02 0 0.805 0.02 0 0.81 0.02 0 0.815 0.02 0 0.82 0.02 0 0.825 0.02 0 0.83 0.02 0 0.835 0.02 0 0.84 0.02 0 0.845 0.02 0 0.85 0.02 0 0.855 0.02 0 0.86 0.02 0 0.865 0.02 0 0.87 0.02 0 0.875 0.02 0 0.88 0.02 0 0.885 0.02 0 0.89 0.02 0 0.895 0.02 0 0.9 0.02 0 0.905 0.02 0 0.91 0.02 0 0.915 0.02 0 0.92 0.02 0 0.925 0.02 0 0.93 0.02 0 0.935 0.02 0 0.94 0.02 0 0.945 0.02 0 0.95 0.02 0 0.955 0.02 0 0.96 0.02 0 0.965 0.02 0 0.97 0.02 0 0.975 0.02 0 0.98 0.02 0 0.985 0.02 0 0.99 0.02 0 0.995 0.02 0 1 0.02 0 0 0.04 0 0.005 0.04 0 0.01 0.04 0 0.015 0.04 0 0.02 0.04 0 0.025 0.04 0 0.03 0.04 0 0.035 0.04 0 0.04 0.04 0 0.045 0.04 0 0.05 0.04 0 0.055 0.04 0 0.06 0.04 0 0.065 0.04 0 0.07 0.04 0 0.075 0.04 0 0.08 0.04 0 0.085 0.04 0 0.09 0.04 0 0.095 0.04 0 0.1 0.04 0 0.105 0.04 0 0.11 0.04 0 0.115 0.04 0 0.12 0.04 0 0.125 0.04 0 0.13 0.04 0 0.135 0.04 0 0.14 0.04 0 0.145 0.04 0 0.15 0.04 0 0.155 0.04 0 0.16 0.04 0 0.165 0.04 0 0.17 0.04 0 0.175 0.04 0 0.18 0.04 0 0.185 0.04 0 0.19 0.04 0 0.195 0.04 0 0.2 0.04 0 0.205 0.04 0 0.21 0.04 0 0.215 0.04 0 0.22 0.04 0 0.225 0.04 0 0.23 0.04 0 0.235 0.04 0 0.24 0.04 0 0.245 0.04 0 0.25 0.04 0 0.255 0.04 0 0.26 0.04 0 0.265 0.04 0 0.27 0.04 0 0.275 0.04 0 0.28 0.04 0 0.285 0.04 0 0.29 0.04 0 0.295 0.04 0 0.3 0.04 0 0.305 0.04 0 0.31 0.04 0 0.315 0.04 0 0.32 0.04 0 0.325 0.04 0 0.33 0.04 0 0.335 0.04 0 0.34 0.04 0 0.345 0.04 0 0.35 0.04 0 0.355 0.04 0 0.36 0.04 0 0.365 0.04 0 0.37 0.04 0 0.375 0.04 0 0.38 0.04 0 0.385 0.04 0 0.39 0.04 0 0.395 0.04 0 0.4 0.04 0 0.405 0.04 0 0.41 0.04 0 0.415 0.04 0 0.42 0.04 0 0.425 0.04 0 0.43 0.04 0 0.435 0.04 0 0.44 0.04 0 0.445 0.04 0 0.45 0.04 0 0.455 0.04 0 0.46 0.04 0 0.465 0.04 0 0.47 0.04 0 0.475 0.04 0 0.480005 0.04 0 0.485065 0.04 0 0.490492 0.04 0 0.49737 0.04 0 0.508593 0.04 0 0.51113 0.04 0 0.514007 0.04 0 0.517324 0.04 0 0.52114 0.04 0 0.52544 0.04 0 0.530123 0.04 0 0.535025 0.04 0 0.540004 0.04 0 0.545001 0.04 0 0.55 0.04 0 0.555 0.04 0 0.56 0.04 0 0.565 0.04 0 0.57 0.04 0 0.575 0.04 0 0.58 0.04 0 0.585 0.04 0 0.59 0.04 0 0.595 0.04 0 0.6 0.04 0 0.605 0.04 0 0.61 0.04 0 0.615 0.04 0 0.62 0.04 0 0.625 0.04 0 0.63 0.04 0 0.635 0.04 0 0.64 0.04 0 0.645 0.04 0 0.65 0.04 0 0.655 0.04 0 0.66 0.04 0 0.665 0.04 0 0.67 0.04 0 0.675 0.04 0 0.68 0.04 0 0.685 0.04 0 0.69 0.04 0 0.695 0.04 0 0.7 0.04 0 0.705 0.04 0 0.71 0.04 0 0.715 0.04 0 0.72 0.04 0 0.725 0.04 0 0.73 0.04 0 0.735 0.04 0 0.74 0.04 0 0.745 0.04 0 0.75 0.04 0 0.755 0.04 0 0.76 0.04 0 0.765 0.04 0 0.77 0.04 0 0.775 0.04 0 0.78 0.04 0 0.785 0.04 0 0.79 0.04 0 0.795 0.04 0 0.8 0.04 0 0.805 0.04 0 0.81 0.04 0 0.815 0.04 0 0.82 0.04 0 0.825 0.04 0 0.83 0.04 0 0.835 0.04 0 0.84 0.04 0 0.845 0.04 0 0.85 0.04 0 0.855 0.04 0 0.86 0.04 0 0.865 0.04 0 0.87 0.04 0 0.875 0.04 0 0.88 0.04 0 0.885 0.04 0 0.89 0.04 0 0.895 0.04 0 0.9 0.04 0 0.905 0.04 0 0.91 0.04 0 0.915 0.04 0 0.92 0.04 0 0.925 0.04 0 0.93 0.04 0 0.935 0.04 0 0.94 0.04 0 0.945 0.04 0 0.95 0.04 0 0.955 0.04 0 0.96 0.04 0 0.965 0.04 0 0.97 0.04 0 0.975 0.04 0 0.98 0.04 0 0.985 0.04 0 0.99 0.04 0 0.995 0.04 0 1 0.04 0 0 0.06 0 0.005 0.06 0 0.01 0.06 0 0.015 0.06 0 0.02 0.06 0 0.025 0.06 0 0.03 0.06 0 0.035 0.06 0 0.04 0.06 0 0.045 0.06 0 0.05 0.06 0 0.055 0.06 0 0.06 0.06 0 0.065 0.06 0 0.07 0.06 0 0.075 0.06 0 0.08 0.06 0 0.085 0.06 0 0.09 0.06 0 0.095 0.06 0 0.1 0.06 0 0.105 0.06 0 0.11 0.06 0 0.115 0.06 0 0.12 0.06 0 0.125 0.06 0 0.13 0.06 0 0.135 0.06 0 0.14 0.06 0 0.145 0.06 0 0.15 0.06 0 0.155 0.06 0 0.16 0.06 0 0.165 0.06 0 0.17 0.06 0 0.175 0.06 0 0.18 0.06 0 0.185 0.06 0 0.19 0.06 0 0.195 0.06 0 0.2 0.06 0 0.205 0.06 0 0.21 0.06 0 0.215 0.06 0 0.22 0.06 0 0.225 0.06 0 0.23 0.06 0 0.235 0.06 0 0.24 0.06 0 0.245 0.06 0 0.25 0.06 0 0.255 0.06 0 0.26 0.06 0 0.265 0.06 0 0.27 0.06 0 0.275 0.06 0 0.28 0.06 0 0.285 0.06 0 0.29 0.06 0 0.295 0.06 0 0.3 0.06 0 0.305 0.06 0 0.31 0.06 0 0.315 0.06 0 0.32 0.06 0 0.325 0.06 0 0.33 0.06 0 0.335 0.06 0 0.34 0.06 0 0.345 0.06 0 0.35 0.06 0 0.355 0.06 0 0.36 0.06 0 0.365 0.06 0 0.37 0.06 0 0.375 0.06 0 0.38 0.06 0 0.385 0.06 0 0.39 0.06 0 0.395 0.06 0 0.4 0.06 0 0.405 0.06 0 0.41 0.06 0 0.415 0.06 0 0.42 0.06 0 0.425 0.06 0 0.43 0.06 0 0.435 0.06 0 0.44 0.06 0 0.445 0.06 0 0.45 0.06 0 0.455 0.06 0 0.46 0.06 0 0.465 0.06 0 0.47 0.06 0 0.475 0.06 0 0.480005 0.06 0 0.485065 0.06 0 0.490492 0.06 0 0.49737 0.06 0 0.508593 0.06 0 0.51113 0.06 0 0.514007 0.06 0 0.517324 0.06 0 0.52114 0.06 0 0.52544 0.06 0 0.530123 0.06 0 0.535025 0.06 0 0.540004 0.06 0 0.545001 0.06 0 0.55 0.06 0 0.555 0.06 0 0.56 0.06 0 0.565 0.06 0 0.57 0.06 0 0.575 0.06 0 0.58 0.06 0 0.585 0.06 0 0.59 0.06 0 0.595 0.06 0 0.6 0.06 0 0.605 0.06 0 0.61 0.06 0 0.615 0.06 0 0.62 0.06 0 0.625 0.06 0 0.63 0.06 0 0.635 0.06 0 0.64 0.06 0 0.645 0.06 0 0.65 0.06 0 0.655 0.06 0 0.66 0.06 0 0.665 0.06 0 0.67 0.06 0 0.675 0.06 0 0.68 0.06 0 0.685 0.06 0 0.69 0.06 0 0.695 0.06 0 0.7 0.06 0 0.705 0.06 0 0.71 0.06 0 0.715 0.06 0 0.72 0.06 0 0.725 0.06 0 0.73 0.06 0 0.735 0.06 0 0.74 0.06 0 0.745 0.06 0 0.75 0.06 0 0.755 0.06 0 0.76 0.06 0 0.765 0.06 0 0.77 0.06 0 0.775 0.06 0 0.78 0.06 0 0.785 0.06 0 0.79 0.06 0 0.795 0.06 0 0.8 0.06 0 0.805 0.06 0 0.81 0.06 0 0.815 0.06 0 0.82 0.06 0 0.825 0.06 0 0.83 0.06 0 0.835 0.06 0 0.84 0.06 0 0.845 0.06 0 0.85 0.06 0 0.855 0.06 0 0.86 0.06 0 0.865 0.06 0 0.87 0.06 0 0.875 0.06 0 0.88 0.06 0 0.885 0.06 0 0.89 0.06 0 0.895 0.06 0 0.9 0.06 0 0.905 0.06 0 0.91 0.06 0 0.915 0.06 0 0.92 0.06 0 0.925 0.06 0 0.93 0.06 0 0.935 0.06 0 0.94 0.06 0 0.945 0.06 0 0.95 0.06 0 0.955 0.06 0 0.96 0.06 0 0.965 0.06 0 0.97 0.06 0 0.975 0.06 0 0.98 0.06 0 0.985 0.06 0 0.99 0.06 0 0.995 0.06 0 1 0.06 0 0 0.08 0 0.005 0.08 0 0.01 0.08 0 0.015 0.08 0 0.02 0.08 0 0.025 0.08 0 0.03 0.08 0 0.035 0.08 0 0.04 0.08 0 0.045 0.08 0 0.05 0.08 0 0.055 0.08 0 0.06 0.08 0 0.065 0.08 0 0.07 0.08 0 0.075 0.08 0 0.08 0.08 0 0.085 0.08 0 0.09 0.08 0 0.
[...]
			<PointData Scalars="VitesseX">
				<DataArray Name="VitesseX" type="Float32" format="ascii">
 0 0 0 0 0 0 0 0 0 0 0 0 0 0 0 0 0 0 0 0 0 0 0 0 0 0 0 0 0 0 0 0 0 0 0 0 0 0 0 0 0 0 0 0 0 0 0 0 0 0 0 0 0 0 0 0 0 0 0 0 0 0 0 0 0 0 0 0 0 0 0 0 0 0 0 0 0 0 0 0 0 0 0 0 0 0 0 0 0 0 0 0 0 0 0 0 0 0 0 0 0 0 0 0 0 0 0 0 0 0 0 0 0 0 0 0 0 0 0 0 0 0 0 0 0 0 0 0 0 0 0 0 0 0 0 0 0 0 0 0 0 0 0 0 0 0 0 0 0 0 0 0 0 0 0 0 0 0 0 0 0 0 0 0 0 0 0 0 0 0 0 0 0 0 0 0 0 0 0 0 0 0 0 0 0 0 0 0 0 0 0 0 0 0 0 0 0 0 0 0 0 0 0 -1.02785e-15 1.95007e-15 -1.09656e-15 -1.10284e-15 3.45028e-15 -4.14901e-15 -1.1623e-16 4.18427e-15 -6.97379e-16 -4.68442e-15 7.29983e-15 -4.91603e-15 -3.08302e-15 5.38364e-15 -1.32506e-15 -3.4286e-15 2.45304e-15 2.30062e-15 -5.57587e-15 9.07659e-15 -9.77713e-15 0 1.18554e-14 0 -1.18554e-14 1.14154e-14 -2.31795e-14 2.36196e-14 -1.18554e-14 1.18554e-14 0 -1.18554e-14 1.18554e-14 -2.40596e-14 2.40596e-14 -1.18554e-14 1.18554e-14 -1.18554e-14 1.18554e-14 -2.26423e-14 1.85189e-14 4.1234e-15 0 -2.40596e-14 2.40596e-14 -2.40596e-14 2.40596e-14 0 0 0 -2.40596e-14 2.40596e-14 -5.8115e-16 1.1706e-15 -5.89452e-16 -4.88165e-14 4.88165e-14 0 0 -2.40596e-14 2.40596e-14 0 0 0 -2.40596e-14 2.40596e-14 1.97303e-15 -1.19042e-16 -4.61161e-14 4.42621e-14 0 1.99251e-15 -1.86004e-14 1.28518e-14 3.7561e-15 0 0 -2.40596e-14 4.65797e-14 -3.38268e-14 -1.10652e-14 -2.27716e-15 5.056e-14 -4.2704e-14 -5.06494e-15 4.6615e-14 -4.88165e-14 6.27353e-14 1.06154e-12 8.44696e-11 5.17051e-09 2.44598e-07 8.63186e-06 0.000216247 0.0035726 0.0350192 0.186103 0.569937 1.09998 0.990867 0.829738 0.627096 0.407715 0.21046 0.0760554 0.0179781 0.00316767 0.000477841 6.47946e-05 7.99806e-06 9.03032e-07 9.35587e-08 8.9186e-09 7.84059e-10 6.36962e-11 4.82383e-12 3.07665e-13 3.74488e-14 -3.68891e-14 3.50907e-14 -3.85813e-14 4.19313e-15 4.29939e-14 -4.55265e-14 3.87045e-14 -3.52425e-14 7.39039e-15 2.78542e-14 -3.87045e-14 3.87045e-14 -3.00432e-14 2.49369e-15 2.75416e-14 -3.87045e-14 4.55265e-14 -4.46405e-14 2.1417e-14 2.14739e-14 -7.62853e-14 2.72672e-14 4.63219e-14 1.20293e-14 -8.445e-15 -5.62552e-15 -3.71673e-14 2.68978e-14 1.63696e-15 -1.89145e-15 1.53317e-14 -4.1173e-14 3.4186e-14 -3.32219e-14 3.14591e-14 -3.99392e-14 4.35862e-14 -1.33037e-14 3.60084e-14 1.6315e-15 -7.01144e-15 2.77906e-14 -6.17588e-14 -2.76824e-14 1.45098e-14 8.1129e-15 -2.2298e-14 5.21711e-15 0 6.55423e-14 -3.84255e-14 -1.3275e-14 -1.3841e-14 0 5.69745e-14 -3.16728e-14 -2.12335e-14 -4.0684e-15 1.38172e-14 4.74674e-14 -4.63048e-14 1.34378e-14 -2.84451e-14 -6.36874e-17 5.33068e-14 -2.46411e-14 1.90212e-14 -4.76233e-14 -3.09109e-17 6.96901e-14 -5.61078e-14 -7.6822e-14 9.24097e-14 -1.4211e-14 -1.4935e-14 0 -5.86115e-15 5.86702e-14 -5.27967e-14 -8.30214e-18 0 0 1.74345e-16 8.92186e-16 -1.64444e-15 3.36742e-15 -2.00757e-15 1.97651e-15 -8.26593e-15 6.03051e-15 4.53296e-15 -5.92772e-15 3.18268e-15 -6.87219e-15 1.27773e-14 -1.66018e-14 7.51404e-15 1.12118e-14 -1.67328e-14 1.1529e-14 -6.00796e-15 -8.8303e-15 1.57681e-14 -4.14829e-15 0 -6.10206e-15 0 6.96232e-15 1.52878e-14 -3.32725e-14 1.10225e-14 6.10206e-15 -6.10206e-15 2.32626e-14 -1.60097e-14 -7.2529e-15 -1.20298e-14 1.36891e-14 2.57256e-14 -2.62665e-14 4.98365e-15 -6.10206e-15 -1.12019e-14 3.20679e-14 -2.03712e-14 1.14316e-15 1.07405e-14 -1.23785e-14 1.23785e-14 -1.23785e-14 0 0 0 3.3284e-14 -5.17601e-14 6.02614e-14 -1.85309e-14 -3.91214e-14 1.47215e-14 -1.35758e-14 3.16198e-14 -8.71029e-15 -2.02178e-14 3.23164e-14 -1.50931e-14 1.50931e-14 -1.44092e-16 -3.21723e-14 3.12298e-14 -2.60891e-14 6.66083e-14 -2.56578e-14 -4.45679e-14 2.97238e-14 -7.40753e-15 6.84363e-14 -4.25356e-14 -5.44058e-14 3.69871e-14 -3.17621e-14 5.10662e-14 2.50326e-16 -3.99127e-14 3.90632e-14 -6.56185e-14 4.65274e-14 1.96994e-14 -3.54601e-14 3.7086e-15 -1.326e-14 3.77808e-14 1.13112e-12 8.44521e-11 5.17047e-09 2.44598e-07 8.63186e-06 0.000216247 0.0035726 0.0350192 0.186103 0.569937 1.09998 0.990867 0.829738 0.627096 0.407715 0.21046 0.0760554 0.0179781 0.00316767 0.000477841 6.47946e-05 7.99806e-06 9.03032e-07 9.35587e-08 8.91856e-09 7.84071e-10 6.37152e-11 4.81059e-12 3.2573e-13 -2.27177e-14 2.50577e-14 -2.35537e-15 -6.63052e-14 1.01388e-13 -4.80323e-14 1.52816e-14 -6.03948e-15 -1.18916e-14 4.6118e-14 -5.11003e-14 1.92605e-14 -1.60864e-14 1.38883e-14 2.45781e-14 -4.21393e-14 3.68421e-14 -2.36883e-14 -3.35914e-14 8.88791e-14 -4.59248e-14 -1.58325e-14 -2.28113e-14 1.90963e-14 5.82688e-14 5.50904e-14 -1.14711e-13 5.33455e-14 -9.5743e-14 1.08144e-13 -1.99051e-14 -5.67648e-14 8.48552e-14 -9.87232e-14 5.6919e-14 -1.66382e-14 6.21511e-15 -2.61224e-14 -3.08573e-15 1.38814e-13 -1.20515e-14 -1.63628e-14 -5.20923e-14 -2.86725e-14 3.26541e-14 1.45652e-13 -1.22407e-13 -7.35481e-14 -4.4286e-14 7.86508e-14 -4.18541e-14 3.97514e-14 -4.59273e-15 -8.51337e-14 9.00807e-14 -3.10956e-14 2.98857e-14 -6.97257e-15 -8.00453e-14 8.99417e-14 -1.41923e-14 8.12867e-15 3.19232e-14 -1.13983e-13 8.26854e-14 -2.69338e-14 2.81238e-14 2.09972e-14 -1.12151e-13 7.82808e-14 -4.64877e-14 1.85462e-14 -1.1078e-14 -3.74391e-14 5.48508e-14 -1.81657e-15 1.97079e-14 -1.06862e-16 -7.29108e-14 7.4902e-14 1.84733e-15 0 0 2.42971e-16 -9.72574e-17 -1.30917e-15 8.81181e-16 2.0116e-16 3.86044e-15 -5.74179e-15 2.19018e-16 3.36355e-15 -2.65234e-15 -1.25182e-15 7.08948e-15 -4.40075e-15 -4.62721e-15 5.26861e-15 7.97602e-16 -4.99374e-15 4.74931e-16 3.72121e-15 -6.39264e-15 1.26192e-14 -1.23287e-14 0 1.23785e-14 0 -9.68028e-15 9.08054e-15 -2.32412e-14 2.38409e-14 -1.23785e-14 1.23785e-14 2.49064e-17 -1.24034e-14 1.23785e-14 -2.44083e-14 1.7853e-14 7.7082e-15 -1.31362e-14 -3.95294e-16 1.1789e-14 -2.38354e-14 2.5006e-14 4.65312e-15 -1.33066e-14 -1.01547e-14 -1.05604e-14 1.39284e-14 1.4859e-14 0 0 0 -1.40749e-14 1.46244e-14 4.17049e-14 -4.28272e-14 -3.02251e-14 -4.03219e-15 9.30617e-15 2.56048e-14 -1.06846e-14 -1.38045e-14 3.50854e-14 1.03215e-14 -1.03215e-14 -1.05844e-14 -2.4501e-14 2.45215e-14 8.91983e-15 4.17095e-14 -1.19217e-14 -4.62541e-14 -3.0184e-15 2.28303e-14 4.38467e-14 -3.6517e-14 -3.02163e-14 1.04933e-14 -5.26826e-15 4.54227e-14 3.24918e-14 -7.927e-14 -3.03294e-15 8.42716e-16 4.99741e-14 7.21342e-15 -3.6582e-14 1.24416e-14 -4.63259e-14 5.33912e-14 1.08377e-12 8.45251e-11 5.17053e-09 2.44598e-07 8.63186e-06 0.000216247 0.0035726 0.0350192 0.186103 0.569937 1.09998 0.990867 0.829738 0.627096 0.407715 0.21046 0.0760554 0.0179781 0.00316767 0.000477841 6.47946e-05 7.99806e-06 9.03032e-07 9.35587e-08 8.91863e-09 7.84028e-10 6.36734e-11 4.86892e-12 2.58777e-13 3.59884e-14 -4.11623e-14 6.00176e-14 -7.25116e-14 6.74118e-14 -1.10529e-14 -4.20037e-14 6.53546e-14 -6.76372e-16 -4.54686e-14 2.01235e-14 -3.93117e-14 3.93789e-14 -2.28249e-14 1.10968e-14 1.17078e-14 -2.04497e-14 2.31437e-14 -5.22477e-14 7.41183e-14 -4.0853e-16 -4.03994e-14 -2.55542e-14 5.09723e-14 -7.23359e-14 1.23925e-13 -5.64807e-14 1.27085e-14 3.93305e-14 4.61142e-14 -9.62936e-14 -1.7325e-14 5.16185e-14 -4.78817e-14 3.76268e-15 2.61776e-14 -6.19126e-14 3.92357e-14 -1.21575e-14 1.28937e-13 -3.94865e-14 -1.8686e-14 -6.52891e-14 3.28706e-14 4.16447e-14 1.10936e-13 -1.19972e-13 -3.19988e-14 -6.46433e-14 9.97697e-14 -6.02883e-14 3.38772e-14 -1.11826e-13 3.72892e-14 7.45133e-14 -1.31697e-14 -1.36097e-14 -1.95254e-14 -4.71368e-14 7.69848e-14 4.80864e-14 -1.10162e-13 1.07651e-13 -1.03654e-13 8.52598e-14 -5.41903e-14 4.16594e-15 2.16908e-14 -5.68974e-14 2.92256e-14 1.63238e-15 -6.82108e-14 9.69386e-14 4.26568e-14 -9.91515e-14 -3.14252e-15 0 3.73186e-14 1.76725e-14 -5.49753e-14 -3.53608e-17 0 0 -1.66893e-16 -9.2333e-16 2.42108e-15 -4.70493e-15 3.64416e-15 3.40943e-16 -1.59207e-16 -2.42748e-15 -2.25138e-15 8.07234e-15 -1.78156e-15 7.36972e-15 -1.64046e-14 6.39655e-15 5.10109e-16 -4.71162e-15 1.79602e-14 -1.42036e-14 1.46652e-14 -1.2972e-14 -2.81546e-15 1.17408e-14 -6.37694e-15 1.34144e-14 -7.30409e-15 -1.08593e-14 -1.29018e-14 -3.25127e-15 3.18935e-14 -2.03051e-14 1.28198e-14 -5.72452e-15 7.91586e-15 -1.72006e-15 -2.14919e-14 3.12296e-14 -2.32277e-14 2.17121e-14 -2.89339e-14 2.93e-14 -3.2895e-14 -5.72848e-16 3.02581e-14 8.0725e-15 -4.29451e-14 7.1936e-15 -3.36498e-15 2.51941e-14 0 0 1.80565e-14 -2.2623e-14 4.16487e-14 -3.71941e-14 -2.31257e-14 8.30685e-15 -3.78404e-14 3.66095e-14 -6.55744e-16 1.0841e-14 1.28567e-14 -1.19674e-14 2.08923e-14 -2.54146e-14 8.94549e-17 1.26567e-14 -1.16936e-14 2.64522e-14 -2.50178e-14 -1.627e-14 3.47589e-14 -2.67299e-14 5.02208e-14 -3.14657e-14 1.13894e-14 -8.5933e-15 -2.64938e-14 2.60749e-14 3.40596e-14 7.31897e-14 -1.07852e-13 -3.298e-14 4.66811e-14 5.35216e-14 -4.19014e-14 -1.53899e-14 1.87042e-14 -6.19463e-14 9.14318e-14 1.04442e-12 8.45637e-11 5.1706e-09 2.44598e-07 8.63186e-06 0.000216247 0.0035726 0.0350192 0.186103 0.569937 1.09998 0.990867 0.829738 0.627096 0.407715 0.21046 0.0760554 0.0179781 0.00316767 0.000477841 6.47946e-05 7.99806e-06 9.03032e-07 9.35587e-08 8.91869e-09 7.83961e-10 6.37338e-11 4.73104e-12 3.0408e-13 2.3295e-14 -7.17304e-14 5.88756e-14 1.36718e-14 1.50779e-15 -9.58656e-15 -4.57349e-14 5.9282e-14 4.66756e-14 -5.72946e-14 -3.30944e-15 -3.80278e-14 3.67413e-14 2.79432e-14 2.78077e-15 -7.5341e-15 -1.31592e-14 -1.1859e-14 -4.0562e-15 2.3419e-14 -1.11268e-14 -4.77122e-14 6.02061e-14 7.89665e-14 -1.58164e-13 1.05947e-13 -3.80415e-14 -7.96885e-14 2.08183e-13 -2.74069e-14 -5.25637e-14 2.52401e-14 -7.43623e-14 3.23012e-14 -1.7704e-14 -1.65529e-14 -1.23619e-14 1.58707e-14 6.51596e-14 5.24534e-14 -1.10563e-13 -3.65335e-14 1.75776e-14 6.89061e-14 -3.09744e-14 1.30068e-15 -5.40157e-14 1.68556e-13 -1.30262e-13 6.1773e-14 -1.12498e-14 2.58284e-14 -1.57297e-13 1.23247e-13 -7.63016e-14 1.54158e-14 3.09395e-15 -8.41846e-15 4.54301e-14 4.40354e-14 1.41962e-14 -1.31427e-13 8.89131e-14 -1.25199e-14 -1.4806e-14 1.33386e-14 4.10104e-15 -1.92672e-14 3.78256e-14 -9.74249e-14 5.04958e-14 -4.84508e-14 4.0636e-14 7.99928e-14 -3.53479e-14 -1.43719e-14 -5.03146e-14 1.22995e-14 1.68668e-13 -1.21165e-13 -5.62433e-14 0 0 0 0 0 0 0 0 0 0 0 0 0 0 0 0 0 0 0 0 0 0 0 0 0 0 0 0 0 0 0 0 0 0 0 0 0 0 0 0 0 0 0 0 0 0 0 0 0 0 0 0 0 0 0 0 0 0 0 0 0 0 0 0 0 0 0 0 0 0 0 0 0 0 0 0 0 0 0 0 0 0 0 0 0 0 0 0 0 0 0 0 0 0 0 0 0 0 0 0 0 0 0 0 0 0 0 0 0 0 0 0 0 0 0 0 0 0 0 0 0 0 0 0 0 0 0 0 0 0 0 0 0 0 0 0 0 0 0 0 0 0 0 0 0 0 0 0 0 0 0 0 0 0 0 0 0 0 0 0 0 0 0 0 0 0 0 0 0 0 0 0 0 0 0 0 0 0 0 0 0 0 0 0 0 0 0 0 0 0 0 0 0 0 0 0 0 0 0 0 0 0
				</DataArray>
				<DataArray Name="VitesseY" type="Float32" format="ascii">