<?xml version="1.0"?>
<VTKFile type="PolyData">
	<PolyData>
		<Piece NumberOfPoints="1206" NumberOfPolys="1000">
			<Points>
				<DataArray type="Float32" NumberOfComponents="3" format="ascii">
 0 0 0 0.005 0 0 0.01 0 0 0.015 0 0 0.02 0 0 0.025 0 0 0.03 0 0 0.035 0 0 0.04 0 0 0.045 0 0 0.05 0 0 0.055 0 0 0.06 0 0 0.065 0 0 0.07 0 0 0.075 0 0 0.08 0 0 0.085 0 0 0.09 0 0 0.095 0 0 0.1 0 0 0.105 0 0 0.11 0 0 0.115 0 0 0.12 0 0 0.125 0 0 0.13 0 0 0.135 0 0 0.14 0 0 0.145 0 0 0.15 0 0 0.155 0 0 0.16 0 0 0.165 0 0 0.17 0 0 0.175 0 0 0.18 0 0 0.185 0 0 0.19 0 0 0.195 0 0 0.2 0 0 0.205 0 0 0.21 0 0 0.215 0 0 0.22 0 0 0.225 0 0 0.23 0 0 0.235 0 0 0.24 0 0 0.245 0 0 0.25 0 0 0.255 0 0 0.26 0 0 0.265 0 0 0.27 0 0 0.275 0 0 0.28 0 0 0.285 0 0 0.29 0 0 0.295 0 0 0.3 0 0 0.305 0 0 0.31 0 0 0.315 0 0 0.32 0 0 0.325 0 0 0.33 0 0 0.335 0 0 0.34 0 0 0.345 0 0 0.35 0 0 0.355 0 0 0.36 0 0 0.365 0 0 0.37 0 0 0.375 0 0 0.38 0 0 0.385 0 0 0.39 0 0 0.395 0 0 0.4 0 0 0.405 0 0 0.41 0 0 0.415 0 0 0.42 0 0 0.425 0 0 0.43 0 0 0.435 0 0 0.44 0 0 0.445 0 0 0.45 0 0 0.455 0 0 0.46 0 0 0.465005 0 0 0.470036 0 0 0.475197 0 0 0.480761 0 0 0.487199 0 0 0.495214 0 0 0.505934 0 0 0.519352 0 0 0.521686 0 0 0.523977 0 0 0.526314 0 0 0.528768 0 0 0.531429 0 0 0.534384 0 0 0.537718 0 0 0.541484 0 0 0.545684 0 0 0.550254 0 0 0.555074 0 0 0.560018 0 0 0.565004 0 0 0.570001 0 0 0.575 0 0 0.58 0 0 0.585 0 0 0.59 0 0 0.595 0 0 0.6 0 0 0.605 0 0 0.61 0 0 0.615 0 0 0.62 0 0 0.625 0 0 0.63 0 0 0.635 0 0 0.64 0 0 0.645 0 0 0.65 0 0 0.655 0 0 0.66 0 0 0.665 0 0 0.67 0 0 0.675 0 0 0.68 0 0 0.685 0 0 0.69 0 0 0.695 0 0 0.7 0 0 0.705 0 0 0.71 0 0 0.715 0 0 0.72 0 0 0.725 0 0 0.73 0 0 0.735 0 0 0.74 0 0 0.745 0 0 0.75 0 0 0.755 0 0 0.76 0 0 0.765 0 0 0.77 0 0 0.775 0 0 0.78 0 0 0.785 0 0 0.79 0 0 0.795 0 0 0.8 0 0 0.805 0 0 0.81 0 0 0.815 0 0 0.82 0 0 0.825 0 0 0.83 0 0 0.835 0 0 0.84 0 0 0.845 0 0 0.85 0 0 0.855 0 0 0.86 0 0 0.865 0 0 0.87 0 0 0.875 0 0 0.88 0 0 0.885 0 0 0.89 0 0 0.895 0 0 0.9 0 0 0.905 0 0 0.91 0 0 0.915 0 0 0.92 0 0 0.925 0 0 0.93 0 0 0.935 0 0 0.94 0 0 0.945 0 0 0.95 0 0 0.955 0 0 0.96 0 0 0.965 0 0 0.97 0 0 0.975 0 0 0.98 0 0 0.985 0 0 0.99 0 0 0.995 0 0 1 0 0 0 0.02 0 0.005 0.02 0 0.01 0.02 0 0.015 0.02 0 0.02 0.02 0 0.025 0.02 0 0.03 0.02 0 0.035 0.02 0 0.04 0.02 0 0.045 0.02 0 0.05 0.02 0 0.055 0.02 0 0.06 0.02 0 0.065 0.02 0 0.07 0.02 0 0.075 0.02 0 0.08 0.02 0 0.085 0.02 0 0.09 0.02 0 0.095 0.02 0 0.1 0.02 0 0.105 0.02 0 0.11 0.02 0 0.115 0.02 0 0.12 0.02 0 0.125 0.02 0 0.13 0.02 0 0.135 0.02 0 0.14 0.02 0 0.145 0.02 0 0.15 0.02 0 0.155 0.02 0 0.16 0.02 0 0.165 0.02 0 0.17 0.02 0 0.175 0.02 0 0.18 0.02 0 0.185 0.02 0 0.19 0.02 0 0.195 0.02 0 0.2 0.02 0 0.205 0.02 0 0.21 0.02 0 0.215 0.02 0 0.22 0.02 0 0.225 0.02 0 0.23 0.02 0 0.235 0.02 0 0.24 0.02 0 0.245 0.02 0 0.25 0.02 0 0.255 0.02 0 0.26 0.02 0 0.265 0.02 0 0.27 0.02 0 0.275 0.02 0 0.28 0.02 0 0.285 0.02 0 0.29 0.02 0 0.295 0.02 0 0.3 0.02 0 0.305 0.02 0 0.31 0.02 0 0.315 0.02 0 0.32 0.02 0 0.325 0.02 0 0.33 0.02 0 0.335 0.02 0 0.34 0.02 0 0.345 0.02 0 0.35 0.02 0 0.355 0.02 0 0.36 0.02 0 0.365 0.02 0 0.37 0.02 0 0.375 0.02 0 0.38 0.02 0 0.385 0.02 0 0.39 0.02 0 0.395 0.02 0 0.4 0.02 0 0.405 0.02 0 0.41 0.02 0 0.415 0.02 0 0.42 0.02 0 0.425 0.02 0 0.43 0.02 0 0.435 0.02 0 0.44 0.02 0 0.445 0.02 0 0.45 0.02 0 0.455 0.02 0 0.46 0.02 0 0.465005 0.02 0 0.470036 0.02 0 0.475197 0.02 0 0.480761 0.02 0 0.487199 0.02 0 0.495214 0.02 0 0.505934 0.02 0 0.519352 0.02 0 0.521686 0.02 0 0.523977 0.02 0 0.526314 0.02 0 0.528768 0.02 0 0.531429 0.02 0 0.534384 0.02 0 0.537718 0.02 0 0.541484 0.02 0 0.545684 0.02 0 0.550254 0.02 0 0.555074 0.02 0 0.560018 0.02 0 0.565004 0.02 0 0.570001 0.02 0 0.575 0.02 0 0.58 0.02 0 0.585 0.02 0 0.59 0.02 0 0.595 0.02 0 0.6 0.02 0 0.605 0.02 0 0.61 0.02 0 0.615 0.02 0 0.62 0.02 0 0.625 0.02 0 0.63 0.02 0 0.635 0.02 0 0.64 0.02 0 0.645 0.02 0 0.65 0.02 0 0.655 0.02 0 0.66 0.02 0 0.665 0.02 0 0.67 0.02 0 0.675 0.02 0 0.68 0.02 0 0.685 0.02 0 0.69 0.02 0 0.695 0.02 0 0.7 0.02 0 0.705 0.02 0 0.71 0.02 0 0.715 0.02 0 0.72 0.02 0 0.725 0.02 0 0.73 0.02 0 0.735 0.02 0 0.74 0.02 0 0.745 0.02 0 0.75 0.02 0 0.755 0.02 0 0.76 0.02 0 0.765 0.02 0 0.77 0.02 0 0.775 0.02 0 0.78 0.02 0 0.785 0.02 0 0.79 0.02 0 0.795 0.02 0 0.8 0.02 0 0.805 0.02 0 0.81 0.02 0 0.815 0.02 0 0.82 0.02 0 0.825 0.02 0 0.83 0.02 0 0.835 0.02 0 0.84 0.02 0 0.845 0.02 0 0.85 0.02 0 0.855 0.02 0 0.86 0.02 0 0.865 0.02 0 0.87 0.02 0 0.875 0.02 0 0.88 0.02 0 0.885 0.02 0 0.89 0.02 0 0.895 0.02 0 0.9 0.02 0 0.905 0.02 0 0.91 0.02 0 0.915 0.02 0 0.92 0.02 0 0.925 0.02 0 0.93 0.02 0 0.935 0.02 0 0.94 0.02 0 0.945 0.02 0 0.95 0.02 0 0.955 0.02 0 0.96 0.02 0 0.965 0.02 0 0.97 0.02 0 0.975 0.02 0 0.98 0.02 0 0.985 0.02 0 0.99 0.02 0 0.995 0.02 0 1 0.02 0 0 0.04 0 0.005 0.04 0 0.01 0.04 0 0.015 0.04 0 0.02 0.04 0 0.025 0.04 0 0.03 0.04 0 0.035 0.04 0 0.04 0.04 0 0.045 0.04 0 0.05 0.04 0 0.055 0.04 0 0.06 0.04 0 0.065 0.04 0 0.07 0.04 0 0.075 0.04 0 0.08 0.04 0 0.085 0.04 0 0.09 0.04 0 0.095 0.04 0 0.1 0.04 0 0.105 0.04 0 0.11 0.04 0 0.115 0.04 0 0.12 0.04 0 0.125 0.04 0 0.13 0.04 0 0.135 0.04 0 0.14 0.04 0 0.145 0.04 0 0.15 0.04 0 0.155 0.04 0 0.16 0.04 0 0.165 0.04 0 0.17 0.04 0 0.175 0.04 0 0.18 0.04 0 0.185 0.04 0 0.19 0.04 0 0.195 0.04 0 0.2 0.04 0 0.205 0.04 0 0.21 0.04 0 0.215 0.04 0 0.22 0.04 0 0.225 0.04 0 0.23 0.04 0 0.235 0.04 0 0.24 0.04 0 0.245 0.04 0 0.25 0.04 0 0.255 0.04 0 0.26 0.04 0 0.265 0.04 0 0.27 0.04 0 0.275 0.04 0 0.28 0.04 0 0.285 0.04 0 0.29 0.04 0 0.295 0.04 0 0.3 0.04 0 0.305 0.04 0 0.31 0.04 0 0.315 0.04 0 0.32 0.04 0 0.325 0.04 0 0.33 0.04 0 0.335 0.04 0 0.34 0.04 0 0.345 0.04 0 0.35 0.04 0 0.355 0.04 0 0.36 0.04 0 0.365 0.04 0 0.37 0.04 0 0.375 0.04 0 0.38 0.04 0 0.385 0.04 0 0.39 0.04 0 0.395 0.04 0 0.4 0.04 0 0.405 0.04 0 0.41 0.04 0 0.415 0.04 0 0.42 0.04 0 0.425 0.04 0 0.43 0.04 0 0.435 0.04 0 0.44 0.04 0 0.445 0.04 0 0.45 0.04 0 0.455 0.04 0 0.46 0.04 0 0.465005 0.04 0 0.470036 0.04 0 0.475197 0.04 0 0.480761 0.04 0 0.487199 0.04 0 0.495214 0.04 0 0.505934 0.04 0 0.519352 0.04 0 0.521686 0.04 0 0.523977 0.04 0 0.526314 0.04 0 0.528768 0.04 0 0.531429 0.04 0 0.534384 0.04 0 0.537718 0.04 0 0.541484 0.04 0 0.545684 0.04 0 0.550254 0.04 0 0.555074 0.04 0 0.560018 0.04 0 0.565004 0.04 0 0.570001 0.04 0 0.575 0.04 0 0.58 0.04 0 0.585 0.04 0 0.59 0.04 0 0.595 0.04 0 0.6 0.04 0 0.605 0.04 0 0.61 0.04 0 0.615 0.04 0 0.62 0.04 0 0.625 0.04 0 0.63 0.04 0 0.635 0.04 0 0.64 0.04 0 0.645 0.04 0 0.65 0.04 0 0.655 0.04 0 0.66 0.04 0 0.665 0.04 0 0.67 0.04 0 0.675 0.04 0 0.68 0.04 0 0.685 0.04 0 0.69 0.04 0 0.695 0.04 0 0.7 0.04 0 0.705 0.04 0 0.71 0.04 0 0.715 0.04 0 0.72 0.04 0 0.725 0.04 0 0.73 0.04 0 0.735 0.04 0 0.74 0.04 0 0.745 0.04 0 0.75 0.04 0 0.755 0.04 0 0.76 0.04 0 0.765 0.04 0 0.77 0.04 0 0.775 0.04 0 0.78 0.04 0 0.785 0.04 0 0.79 0.04 0 0.795 0.04 0 0.8 0.04 0 0.805 0.04 0 0.81 0.04 0 0.815 0.04 0 0.82 0.04 0 0.825 0.04 0 0.83 0.04 0 0.835 0.04 0 0.84 0.04 0 0.845 0.04 0 0.85 0.04 0 0.855 0.04 0 0.86 0.04 0 0.865 0.04 0 0.87 0.04 0 0.875 0.04 0 0.88 0.04 0 0.885 0.04 0 0.89 0.04 0 0.895 0.04 0 0.9 0.04 0 0.905 0.04 0 0.91 0.04 0 0.915 0.04 0 0.92 0.04 0 0.925 0.04 0 0.93 0.04 0 0.935 0.04 0 0.94 0.04 0 0.945 0.04 0 0.95 0.04 0 0.955 0.04 0 0.96 0.04 0 0.965 0.04 0 0.97 0.04 0 0.975 0.04 0 0.98 0.04 0 0.985 0.04 0 0.99 0.04 0 0.995 0.04 0 1 0.04 0 0 0.06 0 0.005 0.06 0 0.01 0.06 0 0.015 0.06 0 0.02 0.06 0 0.025 0.06 0 0.03 0.06 0 0.035 0.06 0 0.04 0.06 0 0.045 0.06 0 0.05 0.06 0 0.055 0.06 0 0.06 0.06 0 0.065 0.06 0 0.07 0.06 0 0.075 0.06 0 0.08 0.06 0 0.085 0.06 0 0.09 0.06 0 0.095 0.06 0 0.1 0.06 0 0.105 0.06 0 0.11 0.06 0 0.115 0.06 0 0.12 0.06 0 0.125 0.06 0 0.13 0.06 0 0.135 0.06 0 0.14 0.06 0 0.145 0.06 0 0.15 0.06 0 0.155 0.06 0 0.16 0.06 0 0.165 0.06 0 0.17 0.06 0 0.175 0.06 0 0.18 0.06 0 0.185 0.06 0 0.19 0.06 0 0.195 0.06 0 0.2 0.06 0 0.205 0.06 0 0.21 0.06 0 0.215 0.06 0 0.22 0.06 0 0.225 0.06 0 0.23 0.06 0 0.235 0.06 0 0.24 0.06 0 0.245 0.06 0 0.25 0.06 0 0.255 0.06 0 0.26 0.06 0 0.265 0.06 0 0.27 0.06 0 0.275 0.06 0 0.28 0.06 0 0.285 0.06 0 0.29 0.06 0 0.295 0.06 0 0.3 0.06 0 0.305 0.06 0 0.31 0.06 0 0.315 0.06 0 0.32 0.06 0 0.325 0.06 0 0.33 0.06 0 0.335 0.06 0 0.34 0.06 0 0.345 0.06 0 0.35 0.06 0 0.355 0.06 0 0.36 0.06 0 0.365 0.06 0 0.37 0.06 0 0.375 0.06 0 0.38 0.06 0 0.385 0.06 0 0.39 0.06 0 0.395 0.06 0 0.4 0.06 0 0.405 0.06 0 0.41 0.06 0 0.415 0.06 0 0.42 0.06 0 0.425 0.06 0 0.43 0.06 0 0.435 0.06 0 0.44 0.06 0 0.445 0.06 0 0.45 0.06 0 0.455 0.06 0 0.46 0.06 0 0.465005 0.06 0 0.470036 0.06 0 0.475197 0.06 0 0.480761 0.06 0 0.487199 0.06 0 0.495214 0.06 0 0.505934 0.06 0 0.519352 0.06 0 0.521686 0.06 0 0.523977 0.06 0 0.526314 0.06 0 0.528768 0.06 0 0.531429 0.06 0 0.534384 0.06 0 0.537718 0.06 0 0.541484 0.06 0 0.545684 0.06 0 0.550254 0.06 0 0.555074 0.06 0 0.560018 0.06 0 0.565004 0.06 0 0.570001 0.06 0 0.575 0.06 0 0.58 0.06 0 0.585 0.06 0 0.59 0.06 0 0.595 0.06 0 0.6 0.06 0 0.605 0.06 0 0.61 0.06 0 0.615 0.06 0 0.62 0.06 0 0.625 0.06 0 0.63 0.06 0 0.635 0.06 0 0.64 0.06 0 0.645 0.06 0 0.65 0.06 0 0.655 0.06 0 0.66 0.06 0 0.665 0.06 0 0.67 0.06 0 0.675 0.06 0 0.68 0.06 0 0.685 0.06 0 0.69 0.06 0 0.695 0.06 0 0.7 0.06 0 0.705 0.06 0 0.71 0.06 0 0.715 0.06 0 0.72 0.06 0 0.725 0.06 0 0.73 0.06 0 0.735 0.06 0 0.74 0.06 0 0.745 0.06 0 0.75 0.06 0 0.755 0.06 0 0.76 0.06 0 0.765 0.06 0 0.77 0.06 0 0.775 0.06 0 0.78 0.06 0 0.785 0.06 0 0.79 0.06 0 0.795 0.06 0 0.8 0.06 0 0.805 0.06 0 0.81 0.06 0 0.815 0.06 0 0.82 0.06 0 0.825 0.06 0 0.83 0.06 0 0.835 0.06 0 0.84 0.06 0 0.845 0.06 0 0.85 0.06 0 0.855 0.06 0 0.86 0.06 0 0.865 0.06 0 0.87 0.06 0 0.875 0.06 0 0.88 0.06 0 0.885 0.06 0 0.89 0.06 0 0.895 0.06 0 0.9 0.06 0 0.905 0.06 0 0.91 0.06 0 0.915 0.06 0 0.92 0.06 0 0.925 0.06 0 0.93 0.06 0 0.935 0.06 0 0.94 0.06 0 0.945 0.06 0 0.95 0.06 0 0.955 0.06 0 0.96 0.06 0 0.965 0.06 0 0.97 0.06 0 0.975 0.06 0 0.98 0.06 0 0.985 0.06 0 0.99 0.06 0 0.995 0.06 0 1 0.06 0 0 0.08 0 0.005 0.08 0 0.01 0.08 0 0.015 0.08 0 0.02 0.08 0 0.025 0.08 0 0.03 0.08 0 0.035 0.08 0 0.04 0.08 0
[...]
			<PointData Scalars="VitesseX">
				<DataArray Name="VitesseX" type="Float32" format="ascii">
 0 -7.08846e-16 -8.46654e-16 -1.35206e-15 2.19872e-15 2.62152e-15 -2.74657e-15 -4.12803e-15 2.50526e-15 3.36e-15 1.2232e-15 -6.52115e-15 -5.21423e-15 1.37576e-14 -1.31996e-14 1.04367e-14 7.40572e-16 -1.27592e-14 1.27592e-14 0 -8.38888e-15 4.09356e-15 -2.90863e-17 4.43351e-15 -1.14344e-14 2.16984e-14 -2.21069e-14 8.83386e-16 3.31158e-15 -3.92779e-15 6.58299e-15 8.19815e-15 7.38122e-15 -2.14112e-14 -1.1845e-14 2.33225e-14 -2.33791e-14 1.15642e-14 1.99296e-14 -2.1636e-14 1.78436e-14 -5.83882e-15 -1.26452e-14 1.4845e-14 -1.56824e-14 8.88995e-15 -1.48293e-14 7.64635e-15 -1.20465e-14 2.03102e-14 1.56079e-14 0 -3.77629e-14 2.982e-14 1.06785e-14 -1.54599e-14 -4.33707e-14 4.59812e-14 -3.08882e-14 1.40889e-14 2.74712e-14 -4.54797e-14 4.49216e-14 0 0 -1.3296e-15 -3.62311e-14 3.33173e-14 6.8297e-15 -3.45229e-14 4.2387e-14 -5.92475e-14 4.54874e-14 -2.22329e-14 6.40053e-14 -2.69869e-14 6.87566e-15 -1.9681e-14 8.57565e-15 1.85592e-14 -8.63698e-14 5.01944e-14 2.40969e-14 -2.6776e-14 -1.5667e-14 1.20769e-13 2.77233e-12 9.72959e-11 2.86435e-09 6.9964e-08 1.39365e-06 2.21238e-05 0.000271409 0.00246616 0.0157026 0.0665896 0.188831 0.391132 0.665459 0.977199 0.955877 0.982624 0.981772 0.96107 0.906682 0.821713 0.697804 0.546633 0.380491 0.224518 0.104975 0.0367899 0.00998036 0.00229826 0.000477082 9.1313e-05 1.62397e-05 2.69286e-06 4.17204e-07 6.04864e-08 8.21647e-09 1.04696e-09 1.25198e-10 1.41192e-11 1.47808e-12 1.33363e-13 2.2442e-14 -2.36235e-14 -2.43205e-14 3.95517e-14 -5.54209e-14 6.08073e-14 4.37357e-16 -4.84006e-14 6.61333e-14 -5.59921e-14 3.45187e-14 -4.92433e-15 -1.43094e-14 4.7621e-15 -2.91325e-14 4.31013e-14 2.75112e-14 -2.78909e-15 -6.75714e-15 -5.00063e-15 2.56223e-15 2.51239e-14 1.46406e-14 -5.54345e-14 5.73057e-15 -3.04252e-15 9.81175e-15 -5.02394e-14 4.84893e-14 4.84674e-14 -4.82351e-14 7.31864e-14 -3.66336e-15 -2.07292e-14 5.59602e-14 -5.30986e-14 3.14026e-14 -1.21131e-13 8.99273e-14 -6.73654e-14 -3.93979e-14 2.69534e-15 3.66444e-14 -3.89668e-15 -3.02341e-14 1.43595e-14 -2.12239e-14 8.323e-16 4.90132e-14 6.56141e-14 -7.69262e-14 -4.40926e-14 1.00934e-13 -5.87251e-14 -2.64431e-14 1.73864e-14 -3.30163e-14 4.0533e-14 5.93389e-14 -5.5041e-14 3.24156e-14 -8.77589e-14 2.29014e-14 8.63918e-14 -5.56308e-14 -7.95131e-14 -3.17097e-14 8.75007e-14 -3.62915e-14 0 1.37334e-14 6.06748e-14 -7.43893e-14 0 0 0 0 -5.06614e-16 1.31471e-15 -1.95353e-15 6.37363e-16 -2.82636e-15 5.20208e-15 -4.8681e-15 5.30112e-15 -2.915e-15 -2.73967e-15 2.95214e-15 -1.04294e-14 1.34311e-14 -1.34743e-16 -1.01847e-14 1.23747e-14 -1.15507e-14 9.73103e-15 4.12651e-15 -1.28326e-14 1.64266e-16 4.96351e-15 -3.10168e-15 1.72944e-14 -2.57969e-14 -4.50283e-15 1.37804e-14 7.76828e-15 -8.11012e-15 2.4218e-14 -2.16366e-14 -9.08596e-15 1.2058e-14 -3.75389e-15 -1.06344e-14 7.80321e-15 9.95162e-15 -1.54325e-14 1.89901e-14 -6.81882e-15 -1.33026e-14 1.12388e-14 -3.12649e-15 7.3221e-15 -2.44137e-14 1.41382e-14 -1.1301e-14 2.35702e-14 7.80396e-15 -7.29187e-15 -1.58424e-14 4.16653e-14 -2.87985e-14 1.78033e-14 -3.78172e-14 1.06053e-14 -7.21444e-15 -8.07122e-15 3.55832e-14 -4.61986e-14 4.4229e-14 1.14848e-14 -9.43876e-15 -6.78829e-16 -2.88398e-14 1.92875e-14 3.91951e-14 -4.75706e-14 3.67819e-14 -3.70236e-14 3.28736e-14 6.18612e-16 -2.47002e-15 6.62254e-15 6.73406e-15 -2.10752e-14 1.72525e-14 -1.09896e-14 -2.17322e-14 -1.22671e-14 2.97636e-14 -3.25584e-14 3.71761e-14 1.1627e-13 2.77575e-12 9.72846e-11 2.86434e-09 6.9964e-08 1.39365e-06 2.21238e-05 0.000271409 0.00246616 0.0157026 0.0665896 0.188831 0.391132 0.665459 0.977199 0.955877 0.982624 0.981772 0.96107 0.906682 0.821713 0.697804 0.546633 0.380491 0.224518 0.104975 0.0367899 0.00998036 0.00229826 0.000477082 9.1313e-05 1.62397e-05 2.69286e-06 4.17204e-07 6.04864e-08 8.21653e-09 1.04694e-09 1.25225e-10 1.40807e-11 1.48587e-12 1.36834e-13 2.64309e-15 1.35371e-14 -7.51939e-14 7.78417e-14 -5.35227e-14 5.9548e-14 -1.734e-14 8.27969e-15 6.2429e-16 -1.57925e-14 2.0276e-14 1.09132e-14 -4.09915e-14 2.44953e-14 -2.83654e-14 3.12214e-14 1.48292e-14 4.0898e-14 -3.11291e-14 1.01667e-14 3.74867e-15 5.01933e-14 -9.41747e-14 -1.45414e-14 3.71745e-14 -5.16312e-14 5.35516e-14 -5.5014e-14 5.49487e-14 4.16168e-14 -1.75985e-14 5.27312e-14 -1.54013e-14 4.14772e-14 -2.50667e-14 3.42557e-14 -1.18351e-14 -5.03228e-14 -7.13618e-14 3.88937e-14 -1.25044e-14 -4.48503e-15 -1.64935e-14 4.3021e-14 -3.5087e-14 -3.52262e-14 3.24261e-14 -8.88572e-14 1.06238e-13 2.61319e-14 -6.50717e-14 2.95699e-14 -2.5078e-14 -1.62881e-14 -1.64721e-14 -1.07458e-14 3.2967e-14 5.77793e-14 -4.02245e-14 -1.29031e-14 -1.4319e-14 -4.96461e-15 -4.54427e-16 1.68465e-14 -3.83922e-14 -3.18647e-14 -1.6328e-14 4.1903e-14 -1.89765e-14 4.43204e-14 -6.13363e-14 5.86549e-14 -3.75049e-14 -1.06257e-14 0 0 5.44367e-16 2.34542e-16 2.19889e-15 -2.75972e-16 -3.3202e-15 -2.57763e-15 3.8061e-15 1.30555e-15 8.7093e-16 -3.93559e-15 -4.90501e-15 5.80105e-15 -6.93786e-15 1.01291e-14 -4.61544e-15 -1.40331e-15 1.38216e-14 -7.27373e-15 -5.14452e-15 5.18361e-15 -7.83786e-15 4.84037e-15 6.23139e-15 -5.76494e-15 6.33248e-15 -4.55933e-15 -1.45347e-14 2.57459e-14 -1.27895e-14 -7.5636e-15 2.18262e-14 -8.94309e-16 -7.37827e-15 1.29939e-14 -1.43827e-14 3.87294e-15 -2.14352e-14 1.49369e-14 -4.82086e-16 -4.44764e-15 3.44951e-15 -7.50123e-15 -5.88509e-15 1.12499e-14 -6.05921e-15 1.10947e-14 6.37361e-15 -1.82847e-14 1.09458e-14 0 5.16554e-15 1.50194e-14 2.0512e-14 -3.97771e-14 2.28865e-14 -7.37907e-15 1.11718e-14 -3.26436e-14 7.92491e-15 6.72821e-15 -1.80978e-14 2.01398e-14 2.53238e-14 -1.9595e-14 1.31598e-14 -4.02337e-14 3.73247e-14 3.15594e-14 -2.19003e-14 -1.13332e-14 -4.72999e-15 5.16324e-14 -1.84395e-14 -2.33546e-14 2.20146e-14 -1.64672e-14 4.0697e-15 2.48381e-14 -4.85605e-14 1.79235e-14 -3.03389e-15 1.71015e-14 -1.42759e-14 4.27459e-14 1.01865e-13 2.73598e-12 9.73369e-11 2.86426e-09 6.9964e-08 1.39365e-06 2.21238e-05 0.000271409 0.00246616 0.0157026 0.0665896 0.188831 0.391132 0.665459 0.977199 0.955877 0.982624 0.981772 0.96107 0.906682 0.821713 0.697804 0.546633 0.380491 0.224518 0.104975 0.0367899 0.00998036 0.00229826 0.000477082 9.1313e-05 1.62397e-05 2.69286e-06 4.17204e-07 6.04864e-08 8.21654e-09 1.04691e-09 1.25255e-10 1.40698e-11 1.49666e-12 1.13868e-13 -2.54126e-14 9.59286e-14 -4.23318e-14 -6.5017e-14 8.07205e-14 8.60553e-14 -3.72865e-14 -3.59037e-14 2.19795e-14 9.272e-15 2.04744e-14 -1.07822e-14 -5.91007e-14 -9.61847e-15 -1.75128e-14 -1.55419e-14 4.87019e-14 1.61e-15 6.27036e-14 -3.85865e-14 7.15014e-14 -7.62242e-15 -7.68779e-14 9.06764e-14 -8.29902e-14 -2.79146e-14 -1.893e-14 1.35758e-14 7.27069e-14 -1.43994e-14 2.33544e-14 -1.37785e-14 -9.5339e-16 5.00321e-14 5.98856e-14 -3.50981e-14 5.03181e-14 -7.02799e-14 -6.02782e-14 2.50359e-14 8.36614e-14 -8.32744e-14 -9.11632e-15 -6.24443e-14 1.13815e-13 -9.41686e-14 -5.50071e-14 -2.76909e-14 9.47042e-14 -6.06835e-14 2.16901e-14 7.82225e-14 -1.1897e-13 -2.29207e-15 1.1871e-14 -2.96152e-14 4.55768e-14 6.95654e-14 -8.60706e-14 -8.56164e-15 -8.67325e-14 1.19924e-13 -4.21914e-14 -4.99833e-14 3.69925e-14 -2.48103e-14 -1.95449e-14 -1.48728e-14 5.67162e-14 -9.88749e-15 -9.77205e-15 4.0928e-15 -5.06995e-14 6.04902e-14 0 0 -6.94673e-16 1.48227e-15 -5.92565e-16 1.41725e-15 -2.84159e-15 1.05901e-16 4.15845e-16 1.96669e-15 -7.70351e-15 3.49166e-15 1.2849e-15 -2.98782e-15 6.6348e-15 -4.95306e-16 7.37666e-16 9.61744e-16 -1.35507e-14 1.4516e-14 -7.58258e-15 -8.60782e-15 4.42044e-15 2.07204e-14 -7.40265e-15 4.46743e-15 2.79473e-15 2.75053e-15 -1.24418e-14 4.09547e-15 -1.97976e-14 1.07794e-14 6.6597e-15 3.13859e-14 -1.41758e-14 -2.50068e-14 6.01612e-15 -4.76358e-15 3.88462e-16 -1.23117e-14 2.46871e-14 -1.75409e-14 1.75174e-14 5.54389e-15 -2.27212e-14 8.26533e-16 4.98046e-15 4.76542e-15 1.53359e-14 -1.68073e-14 -4.45617e-15 1.65684e-14 6.48619e-15 3.09335e-14 -4.5807e-14 1.7605e-14 2.55984e-14 -2.95056e-14 4.32423e-14 -5.30813e-14 3.94723e-14 -3.49651e-14 -2.49811e-14 2.28041e-14 3.55635e-14 -1.86358e-14 -1.40468e-14 8.21555e-15 2.14098e-14 2.89556e-14 -1.90196e-14 -4.91753e-14 2.19202e-14 4.71729e-14 -6.90015e-14 8.10004e-14 7.99071e-16 -9.28797e-15 1.72043e-14 2.26086e-14 -1.24092e-14 -7.98326e-14 1.12923e-13 -1.57201e-14 -7.42497e-14 5.08802e-14 1.10962e-13 2.71042e-12 9.73462e-11 2.86427e-09 6.9964e-08 1.39365e-06 2.21238e-05 0.000271409 0.00246616 0.0157026 0.0665896 0.188831 0.391132 0.665459 0.977199 0.955877 0.982624 0.981772 0.96107 0.906682 0.821713 0.697804 0.546633 0.380491 0.224518 0.104975 0.0367899 0.00998036 0.00229826 0.000477082 9.1313e-05 1.62397e-05 2.69286e-06 4.17204e-07 6.04864e-08 8.21655e-09 1.04689e-09 1.2519e-10 1.41852e-11 1.51018e-12 5.68402e-14 -5.23714e-14 8.0165e-14 2.93277e-14 4.76563e-15 5.61298e-15 6.17411e-14 -2.97429e-14 -8.39179e-14 5.57124e-14 2.19846e-14 2.07117e-14 4.77707e-14 -1.2277e-13 4.52051e-14 -4.9045e-14 -3.53268e-14 -4.74202e-15 3.13363e-14 1.20868e-13 9.83235e-15 7.73066e-14 -9.37721e-14 -2.65645e-14 1.11631e-13 -1.23379e-13 -8.09479e-14 -1.83607e-14 8.06148e-14 4.74962e-14 -1.1994e-14 -3.27406e-14 -7.3068e-15 1.8056e-14 -3.63506e-14 1.41917e-13 7.60202e-15 5.19799e-14 -6.79175e-14 9.50208e-14 -1.08669e-13 8.57678e-14 -1.78151e-14 -4.69215e-14 -4.9074e-14 5.06748e-14 -2.19709e-14 -6.7308e-14 -4.57751e-14 -9.55211e-15 -8.60361e-14 9.39065e-14 -7.50721e-14 2.70823e-14 7.33896e-14 -7.62959e-14 6.13235e-15 -3.65154e-14 -1.06738e-14 4.74067e-14 -3.7502e-14 -6.68605e-14 1.60472e-13 -1.29594e-13 -7.46798e-14 1.48943e-13 -1.349e-14 -4.70737e-14 -5.87671e-14 6.0568e-14 3.41924e-14 -4.47596e-14 2.56207e-14 5.54502e-15 -2.93214e-14 0 0 3.53445e-16 7.92452e-16 6.14265e-16 -1.49182e-15 7.96843e-16 6.24359e-16 9.55134e-16 -1.78747e-15 -5.26998e-15 7.4796e-16 8.09355e-15 2.83499e-15 -1.87283e-16 7.54972e-15 -1.76423e-15 -1.54885e-14 -2.25362e-16 -5.95518e-15 2.52953e-14 -1.00156e-14 1.86157e-15 2.02626e-15 -1.21374e-14 2.20892e-14 1.10939e-15 -1.66213e-14 -4.42235e-15 2.74997e-16 -1.7154e-14 2.90487e-14 3.18577e-15 2.06982e-15 -3.93528e-15 -1.15074e-14 -1.30028e-14 5.93671e-15 5.271e-15 -1.28696e-14 2.14033e-14 -7.86467e-15 2.36847e-14 1.41788e-14 -3.18555e-14 -2.26912e-14 3.18223e-14 -4.01532e-14 3.17966e-14 6.71629e-15 -1.18122e-14 3.4127e-14 -2.86675e-14 1.14837e-14 -2.5821e-14 4.64571e-14 4.05806e-15 -3.4099e-14 1.29292e-14 1.25431e-14 3.70459e-15 -3.74343e-14 -4.5253e-14 4.7287e-14 1.39645e-14 1.54008e-14 -2.8732e-14 3.49528e-14 -9.94256e-15 3.05129e-14 -1.92689e-14 -3.96988e-15 1.5136e-14 -3.5074e-14 2.72203e-14 6.31047e-14 -1.97714e-14 8.37854e-14 1.09414e-14 -2.90188e-14 1.17016e-14 -1.29756e-13 1.1327e-13 2.52602e-14 -1.22413e-13 5.49382e-14 8.272e-14 2.80611e-12 9.72838e-11 2.86434e-09 6.9964e-08 1.39365e-06 2.21238e-05 0.000271409 0.00246616 0.0157026 0.0665896 0.188831 0.391132 0.665459 0.977199 0.955877 0.982624 0.981772 0.96107 0.906682 0.821713 0.697804 0.546633 0.380491 0.224518 0.104975 0.0367899 0.00998036 0.00229826 0.000477082 9.1313e-05 1.62397e-05 2.69286e-06 4.17204e-07 6.04862e-08 8.21659e-09 1.04692e-09 1.25173e-10 1.41367e-11 1.57692e-12 1.95398e-14 -6.13449e-14 2.67911e-14 3.17673e-14 1.70821e-13 -2.75927e-14 -1.23396e-13 1.36042e-14 -6.33816e-14 3.34232e-14 3.05459e-14 -1.4381e-14 2.6242e-14 1.10863e-14 6.39602e-14 -5.68849e-14 -1.89424e-14 -9.714e-14 8.5982e-14 1.06511e-13 9.36792e-14 5.05673e-14 -3.66432e-14 -1.28985e-13 1.40983e-14 -2.2353e-14 -1.11992e-13 8.78369e-14 -5.06927e-14 1.06012e-13 -4.6332e-14 -6.73013e-14 1.23941e-14 8.38763e-14 2.7485e-14 7.2045e-14 1.01499e-13 -1.8651e-13 8.15392e-14 1.214e-13 -5.10421e-14 -1.00167e-14 1.14391e-13 -3.62341e-14 -8.11728e-14 -1.40052e-13 2.52454e-14 -5.30803e-14 -5.54808e-14 2.02467e-14 -8.36902e-14 4.98788e-14 -1.3989e-13 1.14953e-13 8.69439e-14 5.92808e-14 5.28347e-14 -1.28189e-13 -7.5735e-14 3.49817e-14 -1.12318e-14 -4.08729e-14 5.27752e-14 -3.00555e-14 -7.24262e-14 3.69511e-14 -2.00234e-14 4.15491e-14 -5.42472e-14 8.5843e-14 3.76195e-15 3.00535e-14 -2.57267e-14 2.57359e-15 -1.00239e-13 0 0 2.47612e-15 -7.43986e-16 2.82995e-15 -2.6432e-16 1.98327e-15 -1.21219e-15 -5.84142e-15 7.34425e-15 -6.33311e-16 -6.30538e-15 2.76546e-15 1.21292e-14 7.09653e-15 -3.7134e-15 -3.52847e-15 -1.45971e-14 1.67852e-14 -1.96291e-14 3.60046e-14 -9.09023e-15 8.96531e-15 -2.80652e-14 -2.50017e-15 1.84827e-14 -3.5961e-15 -1.83756e-14 -3.14138e-15 1.96017e-14 -3.97559e-14 4.42147e-14 -3.53344e-15 -9.7665e-15 2.48535e-15 1.70254e-14 -3.59731e-14 2.70361e-14 -3.71476e-14 2.87842e-14 1.6972e-15 -9.67942e-15 2.70326e-14 1.62274e-14 -3.76713e-14 -3.39651e-14 3.58111e-14 -3.36499e-14 2.50385e-14 2.10333e-14 -1.96506e-14 3.51171e-14 -4.53926e-14 -1.4939e-14 2.74855e-14 4.64254e-14 -4.83742e-14 8.31871e-15 -1.35118e-14 4.95025e-14 -2.54543e-14 -3.51773e-14 -2.98218e-14 4.57089e-14 -1.55197e-14 4.77606e-14 -3.02275e-15 -5.54429e-15 6.68693e-15 -5.32717e-15 1.63192e-14 3.65677e-14 -8.22852e-15 -8.14888e-14 1.32094e-13 -1.35553e-14 -3.73437e-14 1.4662e-13 1.80831e-14 -7.95078e-14 -8.36125e-15 -1.06906e-13 6.9355e-14 8.07331e-14 -8.65374e-14 3.58857e-15 3.54738e-14 2.88416e-12 9.72757e-11 2.86435e-09 6.9964e-08 1.39365e-06 2.21238e-05 0.000271409 0.00246616 0.0157026 0.0665896 0.188831 0.391132 0.665459 0.977199 0.955877 0.982624 0.981772 0.96107 0.906682 0.821713 0.697804 0.546633 0.380491 0.224518 0.104975 0.0367899 0.00998036 0.00229826 0.000477082 9.1313e-05 1.62397e-05 2.69286e-06 4.17204e-07 6.04862e-08 8.21657e-09 1.04698e-09 1.25225e-10 1.40004e-11 1.63306e-12 1.26961e-14 -5.17549e-14 3.44489e-14 4.65005e-14 8.61032e-14 1.46565e-13 -2.56682e-13 4.73085e-14 -9.54769e-14 6.438e-14 1.14559e-14 -3.52081e-14 -9.15042e-14 2.17144e-13 -2.5913e-14 -2.31433e-14 -1.76716e-14 -8.96148e-14 2.78125e-14 1.52101e-13 6.50734e-14 8.45657e-14 2.3707e-14 -1.55681e-13 -4.01538e-14 -3.25322e-14 -1.7509e-14 7.73292e-14 -1.75711e-13 2.01038e-13 -1.32202e-13 -3.53943e-14 -2.01593e-14 1.57099e-13 1.2406e-13 8.61113e-14 -3.96512e-15 -3.2124e-13 1.37633e-13 1.64596e-13 2.01429e-14 -3.87315e-14 1.09456e-13 7.30612e-14 -2.78832e-13 -1.13754e-13 -8.81288e-15 -1.6774e-13 1.03457e-13 8.55425e-14 -1.03319e-13 8.44734e-15 -7.65225e-14 8.86487e-14 -3.90406e-15 3.0144e-13 7.31844e-14 -1.91213e-13 -6.60628e-14 -5.70737e-14 6.31623e-15 -6.03922e-14 -5.33956e-14 1.38626e-13 -4.25068e-14 -1.28511e-13 -7.82557e-14 1.38934e-13 -1.70844e-14 1.65632e-13 -1.69361e-13 2.66676e-13 -1.50978e-13 -1.06921e-13 2.65188e-16 0
				</DataArray>
				<DataArray Name="VitesseY" type="Float32" format="ascii">