<?xml version="1.0"?>
<VTKFile type="PolyData">
	<PolyData>
		<Piece NumberOfPoints="1206" NumberOfPolys="1000">
			<Points>
				<DataArray type="Float32" NumberOfComponents="3" format="ascii">
 0 0 0 0.005 0 0 0.01 0 0 0.015 0 0 0.02 0 0 0.025 0 0 0.03 0 0 0.035 0 0 0.04 0 0 0.045 0 0 0.05 0 0 0.055 0 0 0.06 0 0 0.065 0 0 0.07 0 0 0.075 0 0 0.08 0 0 0.085 0 0 0.09 0 0 0.095 0 0 0.1 0 0 0.105 0 0 0.11 0 0 0.115 0 0 0.12 0 0 0.125 0 0 0.13 0 0 0.135 0 0 0.14 0 0 0.145 0 0 0.15 0 0 0.155 0 0 0.16 0 0 0.165 0 0 0.17 0 0 0.175 0 0 0.18 0 0 0.185 0 0 0.19 0 0 0.195 0 0 0.2 0 0 0.205 0 0 0.21 0 0 0.215 0 0 0.22 0 0 0.225 0 0 0.23 0 0 0.235 0 0 0.24 0 0 0.245 0 0 0.25 0 0 0.255 0 0 0.26 0 0 0.265 0 0 0.27 0 0 0.275 0 0 0.28 0 0 0.285 0 0 0.29 0 0 0.295 0 0 0.300001 0 0 0.305003 0 0 0.310008 0 0 0.315022 0 0 0.320055 0 0 0.325122 0 0 0.330244 0 0 0.335445 0 0 0.340744 0 0 0.34616 0 0 0.351708 0 0 0.357399 0 0 0.363247 0 0 0.369262 0 0 0.375458 0 0 0.381848 0 0 0.388446 0 0 0.39527 0 0 0.402336 0 0 0.409666 0 0 0.417281 0 0 0.425208 0 0 0.433476 0 0 0.442117 0 0 0.451169 0 0 0.460673 0 0 0.470678 0 0 0.481232 0 0 0.49238 0 0 0.504132 0 0 0.516382 0 0 0.528742 0 0 0.540968 0 0 0.55305 0 0 0.56501 0 0 0.576892 0 0 0.588733 0 0 0.600555 0 0 0.612371 0 0 0.624185 0 0 0.636 0 0 0.63828 0 0 0.640561 0 0 0.642842 0 0 0.645122 0 0 0.647402 0 0 0.649681 0 0 0.651958 0 0 0.654234 0 0 0.656513 0 0 0.658789 0 0 0.661065 0 0 0.663345 0 0 0.665626 0 0 0.667907 0 0 0.670187 0 0 0.672468 0 0 0.67475 0 0 0.677031 0 0 0.679311 0 0 0.681589 0 0 0.683868 0 0 0.686149 0 0 0.688431 0 0 0.690712 0 0 0.692993 0 0 0.695272 0 0 0.697553 0 0 0.699834 0 0 0.702115 0 0 0.704395 0 0 0.706674 0 0 0.708954 0 0 0.711234 0 0 0.713511 0 0 0.715788 0 0 0.718066 0 0 0.720349 0 0 0.722639 0 0 0.724927 0 0 0.727214 0 0 0.729501 0 0 0.731782 0 0 0.734067 0 0 0.736394 0 0 0.738809 0 0 0.741323 0 0 0.743984 0 0 0.746825 0 0 0.749919 0 0 0.753317 0 0 0.757065 0 0 0.761167 0 0 0.765593 0 0 0.770271 0 0 0.775114 0 0 0.780045 0 0 0.785017 0 0 0.790007 0 0 0.795002 0 0 0.800001 0 0 0.805 0 0 0.81 0 0 0.815 0 0 0.82 0 0 0.825 0 0 0.83 0 0 0.835 0 0 0.84 0 0 0.845 0 0 0.85 0 0 0.855 0 0 0.86 0 0 0.865 0 0 0.87 0 0 0.875 0 0 0.88 0 0 0.885 0 0 0.89 0 0 0.895 0 0 0.9 0 0 0.905 0 0 0.91 0 0 0.915 0 0 0.92 0 0 0.925 0 0 0.93 0 0 0.935 0 0 0.94 0 0 0.945 0 0 0.95 0 0 0.955 0 0 0.96 0 0 0.965 0 0 0.97 0 0 0.975 0 0 0.98 0 0 0.985 0 0 0.99 0 0 0.995 0 0 1 0 0 0 0.02 0 0.005 0.02 0 0.01 0.02 0 0.015 0.02 0 0.02 0.02 0 0.025 0.02 0 0.03 0.02 0 0.035 0.02 0 0.04 0.02 0 0.045 0.02 0 0.05 0.02 0 0.055 0.02 0 0.06 0.02 0 0.065 0.02 0 0.07 0.02 0 0.075 0.02 0 0.08 0.02 0 0.085 0.02 0 0.09 0.02 0 0.095 0.02 0 0.1 0.02 0 0.105 0.02 0 0.11 0.02 0 0.115 0.02 0 0.12 0.02 0 0.125 0.02 0 0.13 0.02 0 0.135 0.02 0 0.14 0.02 0 0.145 0.02 0 0.15 0.02 0 0.155 0.02 0 0.16 0.02 0 0.165 0.02 0 0.17 0.02 0 0.175 0.02 0 0.18 0.02 0 0.185 0.02 0 0.19 0.02 0 0.195 0.02 0 0.2 0.02 0 0.205 0.02 0 0.21 0.02 0 0.215 0.02 0 0.22 0.02 0 0.225 0.02 0 0.23 0.02 0 0.235 0.02 0 0.24 0.02 0 0.245 0.02 0 0.25 0.02 0 0.255 0.02 0 0.26 0.02 0 0.265 0.02 0 0.27 0.02 0 0.275 0.02 0 0.28 0.02 0 0.285 0.02 0 0.29 0.02 0 0.295 0.02 0 0.300001 0.02 0 0.305003 0.02 0 0.310008 0.02 0 0.315022 0.02 0 0.320055 0.02 0 0.325122 0.02 0 0.330244 0.02 0 0.335445 0.02 0 0.340744 0.02 0 0.34616 0.02 0 0.351708 0.02 0 0.357399 0.02 0 0.363247 0.02 0 0.369262 0.02 0 0.375458 0.02 0 0.381848 0.02 0 0.388446 0.02 0 0.39527 0.02 0 0.402336 0.02 0 0.409666 0.02 0 0.417281 0.02 0 0.425208 0.02 0 0.433476 0.02 0 0.442117 0.02 0 0.451169 0.02 0 0.460673 0.02 0 0.470678 0.02 0 0.481232 0.02 0 0.49238 0.02 0 0.504132 0.02 0 0.516382 0.02 0 0.528742 0.02 0 0.540968 0.02 0 0.55305 0.02 0 0.56501 0.02 0 0.576892 0.02 0 0.588733 0.02 0 0.600555 0.02 0 0.612371 0.02 0 0.624185 0.02 0 0.636 0.02 0 0.63828 0.02 0 0.640561 0.02 0 0.642842 0.02 0 0.645122 0.02 0 0.647402 0.02 0 0.649681 0.02 0 0.651958 0.02 0 0.654234 0.02 0 0.656513 0.02 0 0.658789 0.02 0 0.661065 0.02 0 0.663345 0.02 0 0.665626 0.02 0 0.667907 0.02 0 0.670187 0.02 0 0.672468 0.02 0 0.67475 0.02 0 0.677031 0.02 0 0.679311 0.02 0 0.681589 0.02 0 0.683868 0.02 0 0.686149 0.02 0 0.688431 0.02 0 0.690712 0.02 0 0.692993 0.02 0 0.695272 0.02 0 0.697553 0.02 0 0.699834 0.02 0 0.702115 0.02 0 0.704395 0.02 0 0.706674 0.02 0 0.708954 0.02 0 0.711234 0.02 0 0.713511 0.02 0 0.715788 0.02 0 0.718066 0.02 0 0.720349 0.02 0 0.722639 0.02 0 0.724927 0.02 0 0.727214 0.02 0 0.729501 0.02 0 0.731782 0.02 0 0.734067 0.02 0 0.736394 0.02 0 0.738809 0.02 0 0.741323 0.02 0 0.743984 0.02 0 0.746825 0.02 0 0.749919 0.02 0 0.753317 0.02 0 0.757065 0.02 0 0.761167 0.02 0 0.765593 0.02 0 0.770271 0.02 0 0.775114 0.02 0 0.780045 0.02 0 0.785017 0.02 0 0.790007 0.02 0 0.795002 0.02 0 0.800001 0.02 0 0.805 0.02 0 0.81 0.02 0 0.815 0.02 0 0.82 0.02 0 0.825 0.02 0 0.83 0.02 0 0.835 0.02 0 0.84 0.02 0 0.845 0.02 0 0.85 0.02 0 0.855 0.02 0 0.86 0.02 0 0.865 0.02 0 0.87 0.02 0 0.875 0.02 0 0.88 0.02 0 0.885 0.02 0 0.89 0.02 0 0.895 0.02 0 0.9 0.02 0 0.905 0.02 0 0.91 0.02 0 0.915 0.02 0 0.92 0.02 0 0.925 0.02 0 0.93 0.02 0 0.935 0.02 0 0.94 0.02 0 0.945 0.02 0 0.95 0.02 0 0.955 0.02 0 0.96 0.02 0 0.965 0.02 0 0.97 0.02 0 0.975 0.02 0 0.98 0.02 0 0.985 0.02 0 0.99 0.02 0 0.995 0.02 0 1 0.02 0 0 0.04 0 0.005 0.04 0 0.01 0.04 0 0.015 0.04 0 0.02 0.04 0 0.025 0.04 0 0.03 0.04 0 0.035 0.04 0 0.04 0.04 0 0.045 0.04 0 0.05 0.04 0 0.055 0.04 0 0.06 0.04 0 0.065 0.04 0 0.07 0.04 0 0.075 0.04 0 0.08 0.04 0 0.085 0.04 0 0.09 0.04 0 0.095 0.04 0 0.1 0.04 0 0.105 0.04 0 0.11 0.04 0 0.115 0.04 0 0.12 0.04 0 0.125 0.04 0 0.13 0.04 0 0.135 0.04 0 0.14 0.04 0 0.145 0.04 0 0.15 0.04 0 0.155 0.04 0 0.16 0.04 0 0.165 0.04 0 0.17 0.04 0 0.175 0.04 0 0.18 0.04 0 0.185 0.04 0 0.19 0.04 0 0.195 0.04 0 0.2 0.04 0 0.205 0.04 0 0.21 0.04 0 0.215 0.04 0 0.22 0.04 0 0.225 0.04 0 0.23 0.04 0 0.235 0.04 0 0.24 0.04 0 0.245 0.04 0 0.25 0.04 0 0.255 0.04 0 0.26 0.04 0 0.265 0.04 0 0.27 0.04 0 0.275 0.04 0 0.28 0.04 0 0.285 0.04 0 0.29 0.04 0 0.295 0.04 0 0.300001 0.04 0 0.305003 0.04 0 0.310008 0.04 0 0.315022 0.04 0 0.320055 0.04 0 0.325122 0.04 0 0.330244 0.04 0 0.335445 0.04 0 0.340744 0.04 0 0.34616 0.04 0 0.351708 0.04 0 0.357399 0.04 0 0.363247 0.04 0 0.369262 0.04 0 0.375458 0.04 0 0.381848 0.04 0 0.388446 0.04 0 0.39527 0.04 0 0.402336 0.04 0 0.409666 0.04 0 0.417281 0.04 0 0.425208 0.04 0 0.433476 0.04 0 0.442117 0.04 0 0.451169 0.04 0 0.460673 0.04 0 0.470678 0.04 0 0.481232 0.04 0 0.49238 0.04 0 0.504132 0.04 0 0.516382 0.04 0 0.528742 0.04 0 0.540968 0.04 0 0.55305 0.04 0 0.56501 0.04 0 0.576892 0.04 0 0.588733 0.04 0 0.600555 0.04 0 0.612371 0.04 0 0.624185 0.04 0 0.636 0.04 0 0.63828 0.04 0 0.640561 0.04 0 0.642842 0.04 0 0.645122 0.04 0 0.647402 0.04 0 0.649681 0.04 0 0.651958 0.04 0 0.654234 0.04 0 0.656513 0.04 0 0.658789 0.04 0 0.661065 0.04 0 0.663345 0.04 0 0.665626 0.04 0 0.667907 0.04 0 0.670187 0.04 0 0.672468 0.04 0 0.67475 0.04 0 0.677031 0.04 0 0.679311 0.04 0 0.681589 0.04 0 0.683868 0.04 0 0.686149 0.04 0 0.688431 0.04 0 0.690712 0.04 0 0.692993 0.04 0 0.695272 0.04 0 0.697553 0.04 0 0.699834 0.04 0 0.702115 0.04 0 0.704395 0.04 0 0.706674 0.04 0 0.708954 0.04 0 0.711234 0.04 0 0.713511 0.04 0 0.715788 0.04 0 0.718066 0.04 0 0.720349 0.04 0 0.722639 0.04 0 0.724927 0.04 0 0.727214 0.04 0 0.729501 0.04 0 0.731782 0.04 0 0.734067 0.04 0 0.736394 0.04 0 0.738809 0.04 0 0.741323 0.04 0 0.743984 0.04 0 0.746825 0.04 0 0.749919 0.04 0 0.753317 0.04 0 0.757065 0.04 0 0.761167 0.04 0 0.765593 0.04 0 0.770271 0.04 0 0.775114 0.04 0 0.780045 0.04 0 0.785017 0.04 0 0.790007 0.04 0 0.795002 0.04 0 0.800001 0.04 0 0.805 0.04 0 0.81 0.04 0 0.815 0.04 0 0.82 0.04 0 0.825 0.04 0 0.83 0.04 0 0.835 0.04 0 0.84 0.04 0 0.845 0.04 0 0.85 0.04 0 0.855 0.04 0 0.86 0.04 0 0.865 0.04 0 0.87 0.04 0 0.875 0.04 0 0.88 0.04 0 0.885 0.04 0 0.89 0.04 0 0.895 0.04 0 0.9 0.04 0 0.905 0.04 0 0.91 0.04 0 0.915 0.04 0 0.92 0.04 0 0.925 0.04 0 0.93 0.04 0 0.935 0.04 0 0.94 0.04 0 0.945 0.04 0 0.95 0.04 0 0.955 0.04 0 0.96 0.04 0 0.965 0.04 0 0.97 0.04 0 0.975 0.04 0 0.98 0.04 0 0.985 0.04 0 0.99 0.04 0 0.995 0.04 0 1 0.04 0 0 0.06 0 0.005 0.06 0 0.01 0.06 0 0.015 0.06 0 0.02 0.06 0 0.025 0.06 0 0.03 0.06 0 0.035 0.06 0 0.04 0.06 0 0.045 0.06 0 0.05 0.06 0 0.055 0.06 0 0.06 0.06 0 0.065 0.06 0 0.07 0.06 0 0.075 0.06 0 0.08 0.06 0 0.085 0.06 0 0.09 0.06 0 0.095 0.06 0 0.1 0.06 0 0.105 0.06 0 0.11 0.06 0 0.115 0.06 0 0.12 0.06 0 0.125 0.06 0 0.13 0.06 0 0.135 0.06 0 0.14 0.06 0 0.145 0.06 0 0.15 0.06 0 0.155 0.06 0 0.16 0.06 0 0.165 0.06 0 0.17 0.06 0 0.175 0.06 0 0.18 0.06 0 0.185 0.06 0 0.19 0.06 0 0.195 0.06 0 0.2 0.06 0 0.205 0.06 0 0.21 0.06 0 0.215 0.06 0 0.22 0.06 0 0.225 0.06 0 0.23 0.06 0 0.235 0.06 0 0.24 0.06 0 0.245 0.06 0 0.25 0.06 0 0.255 0.06 0 0.26 0.06 0 0.265 0.06 0 0.27 0.06 0 0.275 0.06 0 0.28 0.06 0 0.285 0.06 0 0.29 0.06 0 0.295 0.06 0 0.300001 0.06 0 0.305003 0.06 0 0.310008 0.06 0 0.315022 0.06 0 0.320055 0.06 0 0.325122 0.06 0 0.330244 0.06 0 0.335445 0.06 0 0.340744 0.06 0 0.34616 0.06 0 0.351708 0.06 0 0.357399 0.06 0 0.363247 0.06 0 0.369262 0.06 0 0.375458 0.06 0 0.381848 0.06 0 0.388446 0.06 0 0.39527 0.06 0 0.402336 0.06 0 0.409666 0.06 0 0.417281 0.06 0 0.425208 0.06 0 0.433476 0.06 0 0.442117 0.06 0 0.451169 0.06 0 0.460673 0.06 0 0.470678 0.06 0 0.481232 0.06 0 0.49238 0.06 0 0.504132 0.06 0 0.516382 0.06 0 0.528742 0.06 0 0.540968 0.06 0 0.55305 0.06 0 0.56501 0.06 0 0.576892 0.06 0 0.588733 0.06 0 0.600555 0.06 0 0.612371 0.06 0 0.624185 0.06 0 0.636 0.06 0 0.63828 0.06 0 0.640561 0.06 0 0.642842 0.06 0 0.645122 0.06 0 0.647402 0.06 0 0.649681 0.06 0 0.651958 0.06 0 0.654234 0.06 0 0.656513 0.06 0 0.658789 0.06 0 0.661065 0.06 0 0.663345 0.06 0 0.665626 0.06 0 0.667907 0.06 0 0.670187 0.06 0 0.672468 0.06 0 0.67475 0.06 0 0.677031 0.06 0 0.679311 0.06 0 0.681589 0.06 0 0.683868 0.06 0 0.686149 0.06 0 0.688431 0.06 0 0.690712 0.06 0 0.692993 0.06 0 0.695272 0.06 0 0.697553 0.06 0 0.699834 0.06 0 0.702115 0.06 0 0.704395 0.0
[...]
			<PointData Scalars="VitesseX">
				<DataArray Name="VitesseX" type="Float32" format="ascii">
 0 0 0 0 0 0 0 0 0 0 0 0 0 0 0 0 0 0 0 0 0 0 0 0 0 0 0 0 0 0 0 0 0 0 0 0 0 0 0 0 0 0 0 0 0 0 0 0 0 0 0 0 0 0 0 0 0 0 0 0 0 0 0 0 0 0 0 0 0 0 0 0 0 0 0 0 0 0 0 0 0 0 0 0 0 0 0 0 0 0 0 0 0 0 0 0 0 0 0 0 0 0 0 0 0 0 0 0 0 0 0 0 0 0 0 0 0 0 0 0 0 0 0 0 0 0 0 0 0 0 0 0 0 0 0 0 0 0 0 0 0 0 0 0 0 0 0 0 0 0 0 0 0 0 0 0 0 0 0 0 0 0 0 0 0 0 0 0 0 0 0 0 0 0 0 0 0 0 0 0 0 0 0 0 0 0 0 0 0 0 0 0 0 0 0 0 0 0 0 0 0 0 -2.90782e-17 1.26438e-16 -2.93341e-16 3.63954e-15 2.71041e-15 3.33815e-15 6.28992e-16 5.84019e-15 1.4476e-15 4.65076e-15 3.03886e-15 -1.50468e-15 1.06139e-14 1.05975e-14 5.76886e-15 1.08729e-14 5.76808e-15 6.37066e-15 6.8476e-15 1.5115e-14 3.38009e-16 1.42979e-14 6.53036e-16 1.29784e-14 -2.24103e-15 1.95646e-14 -1.07426e-14 2.47348e-14 2.12753e-14 1.33187e-14 -7.72992e-15 3.04042e-14 -2.44254e-14 2.45344e-14 1.67587e-15 2.25286e-14 2.5581e-14 -1.67875e-14 4.00403e-15 3.50883e-14 -1.16538e-14 3.39966e-14 1.41517e-14 3.53286e-14 5.28664e-14 7.68899e-14 1.91267e-13 7.44828e-13 5.33523e-12 3.64893e-11 2.36e-10 1.43744e-09 8.23988e-09 4.43343e-08 2.23234e-07 1.04833e-06 4.57353e-06 1.84515e-05 6.84702e-05 0.000232214 0.000714406 0.00197715 0.00488145 0.0106835 0.0206951 0.0356841 0.0554924 0.0792434 0.105894 0.134635 0.164984 0.196697 0.229671 0.263877 0.29933 0.336068 0.374149 0.413647 0.454647 0.497246 0.54155 0.587673 0.635722 0.685787 0.737895 0.79191 0.847273 0.902251 0.951606 0.979515 0.970288 0.958898 0.94808 0.940759 0.936797 0.934977 0.934192 0.933929 0.93388 0.933289 0.933392 0.933529 0.933587 0.933575 0.933488 0.933371 0.933194 0.93302 0.932848 0.932733 0.932671 0.932792 0.933497 0.934199 0.93398 0.933953 0.933834 0.933711 0.933569 0.933447 0.933339 0.93323 0.933137 0.933054 0.932983 0.932921 0.932836 0.932712 0.932481 0.932134 0.931627 0.931041 0.930434 0.929979 0.929841 0.930379 0.934735 0.935511 0.934904 0.935209 0.928752 0.932485 0.919783 0.882255 0.894483 0.817299 0.770151 0.686653 0.597916 0.476506 0.357182 0.23869 0.140882 0.0721362 0.0324922 0.0133929 0.00526074 0.00201994 0.000767279 0.0002897 0.000108889 4.07512e-05 1.51794e-05 5.62419e-06 2.07133e-06 7.57693e-07 2.75081e-07 9.90443e-08 3.5342e-08 1.24897e-08 4.36877e-09 1.51165e-09 5.1719e-10 1.74821e-10 5.84733e-11 1.92678e-11 6.27209e-12 2.1611e-12 6.91392e-13 1.5315e-13 -4.72748e-14 -4.18756e-14 -4.9359e-15 -9.83616e-14 6.87442e-14 -1.09934e-13 -1.11141e-13 1.81514e-13 -7.81606e-14 4.40532e-14 8.30971e-14 -1.37411e-13 4.09609e-15 1.12008e-13 -8.42593e-14 -4.24505e-14 5.41907e-14 -9.06549e-15 -1.14355e-13 0 0 -1.77885e-16 1.23144e-15 -2.54813e-15 1.20203e-15 -9.55339e-16 -2.15176e-15 4.69174e-15 3.24693e-15 6.57297e-15 4.8662e-15 -6.25063e-16 4.63932e-15 1.08747e-14 -7.97865e-16 1.6284e-14 1.47344e-14 9.22103e-15 1.31041e-14 1.16301e-16 -8.3739e-15 3.9834e-15 1.74146e-14 1.0951e-14 8.83226e-15 -2.69293e-14 3.03468e-14 -2.33203e-14 1.34573e-14 1.12511e-14 3.49383e-14 -1.17383e-14 2.1906e-14 -9.9248e-15 1.001e-14 3.10979e-15 2.6357e-14 1.10918e-14 2.69068e-14 -6.80646e-16 2.59645e-14 8.92794e-15 2.43766e-14 4.65975e-15 3.63801e-14 7.00031e-14 5.59778e-14 1.67783e-13 7.85553e-13 5.31416e-12 3.65223e-11 2.35931e-10 1.43741e-09 8.23979e-09 4.43343e-08 2.23234e-07 1.04833e-06 4.57353e-06 1.84515e-05 6.84702e-05 0.000232214 0.000714406 0.00197715 0.00488145 0.0106835 0.0206951 0.0356841 0.0554924 0.0792434 0.105894 0.134635 0.164984 0.196697 0.229671 0.263877 0.29933 0.336068 0.374149 0.413647 0.454647 0.497246 0.54155 0.587673 0.635722 0.685787 0.737895 0.79191 0.847273 0.902251 0.951606 0.979515 0.970288 0.958898 0.94808 0.940759 0.936797 0.934977 0.934192 0.933929 0.93388 0.933289 0.933392 0.933529 0.933587 0.933575 0.933488 0.933371 0.933194 0.93302 0.932848 0.932733 0.932671 0.932792 0.933497 0.934199 0.93398 0.933953 0.933834 0.933711 0.933569 0.933447 0.933339 0.93323 0.933137 0.933054 0.932983 0.932921 0.932836 0.932712 0.932481 0.932134 0.931627 0.931041 0.930434 0.929979 0.929841 0.930379 0.934735 0.935511 0.934904 0.935209 0.928752 0.932485 0.919783 0.882255 0.894483 0.817299 0.770151 0.686653 0.597916 0.476506 0.357182 0.23869 0.140882 0.0721362 0.0324922 0.0133929 0.00526074 0.00201994 0.000767279 0.0002897 0.000108889 4.07512e-05 1.51794e-05 5.62419e-06 2.07133e-06 7.57693e-07 2.75082e-07 9.90442e-08 3.53419e-08 1.24898e-08 4.36883e-09 1.51168e-09 5.17302e-10 1.74835e-10 5.84546e-11 1.92507e-11 6.27435e-12 2.08488e-12 6.21503e-13 1.21026e-13 -4.18577e-14 -6.00955e-14 4.57308e-14 -3.65669e-14 -8.09636e-15 -1.70347e-13 -9.29925e-14 1.41193e-13 -8.06961e-14 5.80237e-14 8.76726e-14 -1.9488e-14 1.59159e-14 -2.95853e-14 1.85084e-14 2.81413e-14 4.98609e-14 -1.42246e-13 -8.71307e-14 0 0 3.404e-16 5.95125e-16 1.23289e-15 -2.40594e-15 -8.89823e-16 -1.79824e-15 5.03744e-15 4.21603e-16 4.16952e-15 5.23094e-15 3.57896e-15 8.59643e-15 -5.38837e-15 1.32494e-14 2.00173e-14 6.13812e-15 1.06954e-14 2.02891e-14 -1.96594e-15 -1.2148e-14 1.55888e-14 2.1158e-15 2.37151e-14 -4.51402e-15 -2.60974e-14 1.00773e-14 6.72604e-16 -1.11364e-14 1.10706e-14 2.02702e-14 1.10715e-14 -6.39155e-15 7.52213e-15 3.39599e-14 1.75955e-14 -2.02698e-15 -2.34069e-14 5.42261e-14 3.678e-14 4.16775e-15 3.95033e-14 1.88959e-14 -4.62727e-15 3.91014e-14 9.1689e-15 7.26193e-14 2.10654e-13 7.81117e-13 5.28255e-12 3.64983e-11 2.35968e-10 1.4374e-09 8.23969e-09 4.43342e-08 2.23234e-07 1.04833e-06 4.57353e-06 1.84515e-05 6.84702e-05 0.000232214 0.000714406 0.00197715 0.00488145 0.0106835 0.0206951 0.0356841 0.0554924 0.0792434 0.105894 0.134635 0.164984 0.196697 0.229671 0.263877 0.29933 0.336068 0.374149 0.413647 0.454647 0.497246 0.54155 0.587673 0.635722 0.685787 0.737895 0.79191 0.847273 0.902251 0.951606 0.979515 0.970288 0.958898 0.94808 0.940759 0.936797 0.934977 0.934192 0.933929 0.93388 0.933289 0.933392 0.933529 0.933587 0.933575 0.933488 0.933371 0.933194 0.93302 0.932848 0.932733 0.932671 0.932792 0.933497 0.934199 0.93398 0.933953 0.933834 0.933711 0.933569 0.933447 0.933339 0.93323 0.933137 0.933054 0.932983 0.932921 0.932836 0.932712 0.932481 0.932134 0.931627 0.931041 0.930434 0.929979 0.929841 0.930379 0.934735 0.935511 0.934904 0.935209 0.928752 0.932485 0.919783 0.882255 0.894483 0.817299 0.770151 0.686653 0.597916 0.476506 0.357182 0.23869 0.140882 0.0721362 0.0324922 0.0133929 0.00526074 0.00201994 0.000767279 0.0002897 0.000108889 4.07512e-05 1.51794e-05 5.62419e-06 2.07133e-06 7.57693e-07 2.75082e-07 9.90444e-08 3.53419e-08 1.24898e-08 4.36865e-09 1.51173e-09 5.17259e-10 1.74945e-10 5.8362e-11 1.9428e-11 6.23682e-12 2.30103e-12 2.55201e-13 1.44449e-13 -2.22249e-13 1.83556e-13 -2.15216e-13 1.11399e-13 -2.82332e-14 9.65756e-14 -6.33143e-14 -3.07023e-14 -7.69685e-14 3.65981e-14 -9.18526e-15 1.29386e-13 7.47304e-14 2.04315e-14 1.39164e-13 -1.09416e-13 -7.34778e-14 1.11019e-13 7.51468e-14 0 0 1.48289e-15 1.35848e-15 1.41784e-15 -3.67987e-15 2.91065e-15 6.01256e-16 -3.18447e-15 2.64668e-15 -1.82167e-15 5.63736e-15 6.28215e-15 -3.78272e-15 8.62556e-15 1.32202e-14 -5.13106e-15 1.33937e-14 1.16164e-14 3.53518e-14 -1.48307e-14 1.28945e-14 1.01014e-14 3.42438e-15 -1.19775e-14 6.90892e-15 -2.92989e-14 1.50671e-14 7.12831e-15 2.0033e-15 2.30962e-14 -1.10547e-14 -1.56596e-14 1.39663e-14 -1.8767e-14 3.04978e-14 4.47437e-14 2.01988e-14 -1.31756e-15 -2.76938e-14 4.32416e-14 6.2298e-14 1.12093e-14 6.61537e-14 -2.31897e-14 3.09132e-14 1.98374e-15 3.89851e-14 2.19647e-13 7.24673e-13 5.31502e-12 3.64402e-11 2.35994e-10 1.43749e-09 8.23969e-09 4.43342e-08 2.23234e-07 1.04833e-06 4.57353e-06 1.84515e-05 6.84702e-05 0.000232214 0.000714406 0.00197715 0.00488145 0.0106835 0.0206951 0.0356841 0.0554924 0.0792434 0.105894 0.134635 0.164984 0.196697 0.229671 0.263877 0.29933 0.336068 0.374149 0.413647 0.454647 0.497246 0.54155 0.587673 0.635722 0.685787 0.737895 0.79191 0.847273 0.902251 0.951606 0.979515 0.970288 0.958898 0.94808 0.940759 0.936797 0.934977 0.934192 0.933929 0.93388 0.933289 0.933392 0.933529 0.933587 0.933575 0.933488 0.933371 0.933194 0.93302 0.932848 0.932733 0.932671 0.932792 0.933497 0.934199 0.93398 0.933953 0.933834 0.933711 0.933569 0.933447 0.933339 0.93323 0.933137 0.933054 0.932983 0.932921 0.932836 0.932712 0.932481 0.932134 0.931627 0.931041 0.930434 0.929979 0.929841 0.930379 0.934735 0.935511 0.934904 0.935209 0.928752 0.932485 0.919783 0.882255 0.894483 0.817299 0.770151 0.686653 0.597916 0.476506 0.357182 0.23869 0.140882 0.0721362 0.0324922 0.0133929 0.00526074 0.00201994 0.000767279 0.0002897 0.000108889 4.07512e-05 1.51794e-05 5.62419e-06 2.07133e-06 7.57693e-07 2.75081e-07 9.90443e-08 3.53421e-08 1.24896e-08 4.36878e-09 1.51167e-09 5.17171e-10 1.75031e-10 5.84811e-11 1.95034e-11 6.34691e-12 2.31744e-12 9.2451e-14 2.62157e-14 -2.11101e-13 1.72516e-13 -2.58267e-13 2.65174e-14 7.6958e-14 1.75037e-13 -1.49416e-13 1.56266e-13 -4.0119e-14 -3.95396e-14 -9.50451e-15 1.79699e-13 -7.29901e-15 -1.05626e-14 5.4668e-14 -7.24748e-14 5.60976e-14 1.64435e-13 1.44278e-13 0 0 0 0 0 0 0 0 0 0 0 0 0 0 0 0 0 0 0 0 0 0 0 0 0 0 0 0 0 0 0 0 0 0 0 0 0 0 0 0 0 0 0 0 0 0 0 0 0 0 0 0 0 0 0 0 0 0 0 0 0 0 0 0 0 0 0 0 0 0 0 0 0 0 0 0 0 0 0 0 0 0 0 0 0 0 0 0 0 0 0 0 0 0 0 0 0 0 0 0 0 0 0 0 0 0 0 0 0 0 0 0 0 0 0 0 0 0 0 0 0 0 0 0 0 0 0 0 0 0 0 0 0 0 0 0 0 0 0 0 0 0 0 0 0 0 0 0 0 0 0 0 0 0 0 0 0 0 0 0 0 0 0 0 0 0 0 0 0 0 0 0 0 0 0 0 0 0 0 0 0 0 0 0 0 0 0 0 0 0 0 0 0 0 0 0 0 0 0 0 0 0
				</DataArray>
				<DataArray Name="VitesseY" type="Float32" format="ascii">
 0 0 0 0 0 0 0 0 0 0 0 0 0 0 0 0 0 0 0 0 0 0 0 0 0 0 0 0 0 0 0 0 0 0 0 0 0 0 0 0 0 0 0 0 0 0 0 0 0 0 0 0 0 0 0 0 0 0 0 0 0 0 0 0 0 0 0 0 0 0 0 0 0 0 0 0 0 0 0 0 0 0 0 0 0 0 0 0 0 0 0 0 0 0 0 0 0 0 0 0 0 0 0 0 0 0 0 0 0 0 0 0 0 0 0 0 0 0 0 0 0 0 0 0 0 0 0 0 0 0 0 0 0 0 0 0 0 0 0 0 0 0 0 0 0 0 0 0 0 0 0 0 0 0 0 0 0 0 0 0 0 0 0 0 0 0 0 0 0 0 0 0 0 0 0 0 0 0 0 0 0 0 0 0 0 0 0 0 0 0 0 0 0 0 0 0 0 0 0 0 0 0 1.2791e-15 1.43286e-15 1.20005e-15 1.33134e-15 1.55997e-15 1.7271e-15 7.78484e-16 -1.60742e-16 3.03646e-16 1.47793e-15 1.75635e-15 -1.11709e-15 7.52923e-16 3.64034e-15 2.76053e-15 1.84413e-15 -3.60521e-16 -2.15332e-15 -3.1984e-15 -2.39058e-15 -2.2369e-15 -5.82193e-16 5.69291e-16 -1.47004e-15 -6.97476e-15 -3.69071e-15 -4.27218e-15 -1.34953e-14 -7.66895e-15 -4.52846e-16 -3.62773e-15 1.80959e-15 -3.00492e-15 -1.58665e-14 -9.08002e-15 -2.11018e-15 3.95153e-15 -4.79149e-16 -9.02369e-15 8.44094e-16 1.34449e-15 -4.60043e-15 -7.69645e-15 -7.95103e-16 2.74673e-15 3.94813e-16 8.94001e-15 2.23156e-15 -7.89893e-15 -2.79161e-15 -2.46619e-15 -3.71355e-14 -4.80954e-14 -2.62009e-14 -1.7333e-14 -5.24305e-15 -2.67103e-14 -2.87271e-14 1.70215e-14 5.78351e-15 -2.16788e-14 -1.51847e-14 3.28549e-15 7.74122e-15 1.39111e-14 2.60683e-14 2.03949e-14 7.10765e-15 5.23633e-15 3.11747e-14 3.4739e-14 1.11148e-14 8.10553e-15 1.56822e-14 2.01569e-14 2.45997e-14 1.14411e-14 1.00755e-14 2.90588e-14 2.22485e-14 5.04185e-15 1.70558e-14 9.36052e-15 1.61982e-14 1.82773e-14 -1.51019e-15 1.51803e-16 3.20974e-14 4.0059e-14 -3.95902e-14 -2.92339e-13 -6.91986e-13 -1.06449e-12 -1.22118e-12 -1.01704e-12 -5.00018e-13 1.32187e-13 6.84215e-13 8.18581e-13 7.01478e-13 8.59958e-13 7.73709e-13 4.743e-13 2.0157e-14 -3.56356e-13 -2.07509e-13 1.90513e-12 5.55139e-12 9.11477e-12 1.10402e-11 1.094e-11 9.87954e-12 8.67649e-12 7.49515e-12 6.38708e-12 5.36036e-12 4.46168e-12 3.77054e-12 3.15974e-12 2.61599e-12 2.17769e-12 1.80337e-12 1.5043e-12 1.25751e-12 1.01609e-12 8.08618e-13 6.32381e-13 4.26628e-13 2.32981e-13 8.59909e-14 -5.7458e-14 -2.27802e-13 -3.6399e-13 -5.01602e-13 -6.56431e-13 -8.18515e-13 -9.95877e-13 -1.17895e-12 -1.42914e-12 -1.65922e-12 -1.85678e-12 -2.09335e-12 -2.26854e-12 -2.33173e-12 -2.49064e-12 -2.49989e-12 -2.43065e-12 -2.19299e-12 -1.93508e-12 -1.60362e-12 -1.2209e-12 -8.30782e-13 -4.91399e-13 -2.6045e-13 -1.16804e-13 -5.32431e-14 -3.79835e-14 -5.45367e-14 -4.44856e-14 -4.38522e-14 -3.47992e-14 -8.2101e-15 -2.69068e-14 -2.50806e-14 -1.4861e-14 -2.43869e-14 -2.43532e-14 -3.97237e-14 -2.99047e-14 -1.04543e-16 7.46749e-15 2.68805e-14 3.92825e-14 3.44582e-14 3.40299e-14 4.36476e-14 2.54746e-14 2.53007e-14 4.3834e-14 5.2436e-14 3.45877e-14 -1.1024e-14 -4.82648e-15 -2.21427e-14 3.84363e-15 1.18622e-14 -8.97738e-14 -4.97978e-14 7.00349e-15 -1.21131e-14 1.97579e-14 2.66849e-14 -1.79449e-14 -3.47237e-14 -2.89816e-14 -2.47835e-14 5.5836e-15 2.14097e-14 -5.208e-14 0 0 6.19517e-15 6.44984e-15 6.3412e-15 4.93239e-15 3.23498e-15 8.61288e-16 1.63181e-15 2.91459e-15 2.92787e-15 3.11765e-15 1.95966e-15 5.39436e-15 5.16102e-15 -6.29815e-16 1.40178e-16 4.53622e-15 8.60607e-15 1.3011e-14 1.39923e-14 5.59392e-15 6.41252e-16 6.04458e-16 2.69212e-15 6.50338e-15 4.56363e-15 -2.08626e-15 -1.96232e-15 1.50578e-15 -9.67328e-15 -1.40549e-14 -6.56258e-15 -1.50946e-14 -8.75356e-15 4.00387e-15 -6.03626e-15 -1.16587e-14 -2.05044e-14 -8.68574e-15 9.61638e-15 -3.58999e-15 -1.28227e-15 7.37005e-15 5.64272e-15 -3.40023e-15 -2.23991e-15 -8.46967e-16 -2.05601e-14 -9.5773e-15 5.50721e-15 3.28703e-15 -6.04356e-15 4.28557e-15 -1.29136e-14 -5.69631e-14 -3.90284e-14 -1.61172e-14 -2.63247e-14 -4.34386e-14 -3.49094e-14 -2.19886e-14 -1.04589e-14 -6.93475e-15 -1.95816e-14 -1.50452e-14 -1.91022e-14 -1.47776e-14 -1.42131e-14 -9.5223e-15 1.1303e-14 -1.50963e-14 -3.01084e-14 -5.60697e-15 -2.42426e-14 -3.017e-14 5.79446e-15 2.96829e-15 -1.6973e-14 -3.53155e-14 -3.42619e-14 -1.39119e-14 3.01014e-15 -2.42984e-14 -2.30667e-14 3.9587e-14 2.90857e-14 -2.47504e-15 1.41831e-14 3.75219e-14 6.96989e-14 -3.56547e-14 -4.72279e-13 -1.1412e-12 -1.73495e-12 -1.97532e-12 -1.65156e-12 -8.03089e-13 2.23131e-13 1.09953e-12 1.30386e-12 1.12736e-12 1.36225e-12 1.28419e-12 7.84523e-13 3.24137e-14 -5.60041e-13 -2.99798e-13 3.12712e-12 9.0644e-12 1.4786e-11 1.78517e-11 1.77055e-11 1.59469e-11 1.39772e-11 1.20557e-11 1.02467e-11 8.63874e-12 7.27649e-12 6.09765e-12 5.10152e-12 4.26496e-12 3.53849e-12 2.89528e-12 2.37789e-12 1.92246e-12 1.54701e-12 1.24695e-12 9.22216e-13 6.58392e-13 4.08492e-13 9.67572e-14 -1.09312e-13 -3.03069e-13 -6.03287e-13 -8.44767e-13 -1.07398e-12 -1.32936e-12 -1.65432e-12 -2.01814e-12 -2.28589e-12 -2.6033e-12 -2.96995e-12 -3.34765e-12 -3.69152e-12 -3.84649e-12 -4.08515e-12 -3.98032e-12 -3.82281e-12 -3.56693e-12 -3.17766e-12 -2.62674e-12 -1.9687e-12 -1.30166e-12 -7.77228e-13 -3.95039e-13 -1.92048e-13 -1.03632e-13 -5.9338e-14 -2.33841e-14 -2.96196e-14 -3.37636e-14 -4.77625e-14 -8.36124e-14 -7.71676e-14 -7.33358e-14 -7.6757e-14 -7.69707e-14 -5.81409e-14 -1.91683e-14 -5.55958e-14 -7.58866e-14 -3.88494e-14 -3.7968e-14 -1.54233e-14 2.09645e-14 2.02642e-14 1.90728e-15 1.62334e-14 -2.23953e-15 -5.73664e-14 -9.14549e-14 -8.02435e-14 -3.78128e-14 -3.58117e-14 9.48481e-15 -2.02579e-14 -6.25107e-14 2.84503e-14 -1.71374e-14 -8.46184e-14 -6.25148e-14 -8.96959e-14 -6.60909e-14 1.09857e-14 -4.65057e-15 -2.02107e-14 1.89156e-14 5.08906e-15 -4.51236e-14 1.80796e-15 0 0 1.87719e-16 -1.32035e-16 8.03338e-16 2.02141e-15 3.06277e-15 5.43089e-15 5.0263e-15 3.3098e-15 1.77259e-15 1.10283e-15 3.34301e-15 2.00389e-15 -8.71149e-16 4.28289e-15 7.92345e-15 2.30718e-15 -3.43651e-15 -5.72477e-15 -5.49004e-15 1.34367e-15 8.45115e-15 7.46919e-15 4.68036e-15 1.01159e-15 -4.7957e-16 1.55106e-15 2.19334e-15 -1.34068e-15 3.72317e-15 4.51272e-15 -1.12529e-15 6.05181e-15 -3.02405e-15 -5.42772e-15 1.41355e-14 1.62935e-14 9.39007e-15 -4.11797e-15 -6.22093e-15 1.09052e-14 1.07349e-14 8.27313e-15 6.41369e-15 1.3844e-14 -1.88379e-15 -1.43042e-14 2.02152e-14 1.88543e-14 -5.25476e-15 -1.70013e-14 -4.54243e-15 -7.27153e-15 -1.64552e-14 -1.68878e-14 -4.12527e-14 -4.35275e-14 -3.05091e-14 -3.36445e-14 -4.48131e-14 -2.8711e-14 -2.14654e-14 -2.6208e-14 -1.97053e-14 -3.48664e-14 -4.13313e-14 -4.22467e-14 -2.76576e-14 -1.3255e-14 -1.78254e-14 -7.2992e-15 -3.87108e-15 -2.55585e-14 -3.08706e-14 -1.76837e-15 -4.2462e-15 -5.20577e-15 1.87272e-14 4.89541e-14 2.55929e-14 -1.14441e-14 2.67437e-15 4.7901e-14 4.81913e-14 -4.30621e-14 -2.20828e-14 2.7082e-14 2.2391e-14 4.56067e-14 7.2723e-14 -3.56531e-14 -4.88632e-13 -1.14041e-12 -1.74013e-12 -1.9983e-12 -1.63368e-12 -7.89855e-13 2.15394e-13 1.08776e-12 1.32445e-12 1.16235e-12 1.38293e-12 1.24948e-12 7.94595e-13 2.80171e-14 -5.61579e-13 -2.60537e-13 3.21067e-12 9.09094e-12 1.48251e-11 1.79417e-11 1.77529e-11 1.60393e-11 1.40733e-11 1.20704e-11 1.02445e-11 8.63862e-12 7.22753e-12 6.10495e-12 5.15386e-12 4.28492e-12 3.5401e-12 2.91812e-12 2.46214e-12 2.07748e-12 1.66704e-12 1.29583e-12 9.39289e-13 6.00242e-13 2.71861e-13 2.39952e-14 -2.20733e-13 -4.85456e-13 -6.70146e-13 -9.06278e-13 -1.13729e-12 -1.35549e-12 -1.666e-12 -1.9698e-12 -2.3289e-12 -2.68853e-12 -2.97277e-12 -3.34612e-12 -3.64212e-12 -3.68015e-12 -3.89144e-12 -3.93057e-12 -3.89275e-12 -3.61678e-12 -3.2135e-12 -2.61232e-12 -1.96809e-12 -1.34925e-12 -7.9469e-13 -4.07682e-13 -2.05275e-13 -1.18687e-13 -7.42004e-14 -9.97891e-14 -1.08331e-13 -8.57043e-14 -8.20296e-14 -6.92158e-14 -7.56626e-14 -7.58602e-14 -5.93141e-14 -5.44706e-14 -5.70924e-14 -5.16131e-14 1.24031e-14 4.40209e-14 -2.30014e-14 -5.62534e-14 -7.8224e-14 -9.77553e-14 -9.28415e-14 -5.31033e-14 -3.24918e-14 3.07271e-14 4.83118e-14 -3.26866e-15 -5.371e-14 -8.05447e-14 -8.68567e-14 -1.60433e-13 -9.86303e-14 5.34532e-15 -1.17118e-14 -1.53929e-15 2.38153e-14 -2.76107e-15 -5.1841e-15 -1.578e-14 -4.08079e-14 2.1808e-15 6.03987e-14 1.71105e-14 -3.44128e-14 4.83786e-14 1.05674e-13 0 0 1.13874e-14 1.2196e-14 1.16511e-14 9.95757e-15 9.60212e-15 8.79639e-15 8.0121e-15 8.11079e-15 8.55184e-15 7.78194e-15 6.49381e-15 5.30601e-15 8.5452e-15 6.87373e-15 -2.94738e-15 -1.85428e-15 5.98091e-15 1.21102e-14 1.25951e-14 8.71279e-15 6.48176e-15 6.37179e-15 5.39253e-16 -1.709e-15 1.79396e-15 2.8661e-16 2.35122e-15 1.08467e-14 1.21204e-14 6.50545e-15 -2.48363e-15 -1.10646e-14 -3.59449e-15 -8.62931e-15 -2.23208e-14 -1.20637e-14 5.86626e-15 4.47802e-15 -1.23185e-14 -1.329e-14 -5.73303e-15 1.44106e-15 1.05171e-14 -3.47592e-15 8.27119e-15 1.05357e-14 -3.01386e-14 -4.06747e-14 -2.25e-14 -1.7161e-14 -3.76495e-14 -7.48997e-15 2.06872e-14 6.26816e-15 -4.77971e-16 -1.98607e-14 -3.82461e-14 -1.44297e-14 1.2204e-14 -2.26038e-15 -1.68202e-14 -1.33314e-14 2.7132e-15 1.47779e-14 2.08502e-15 -1.42547e-14 -2.74374e-14 -2.59685e-14 -1.68676e-14 -1.23706e-14 -2.04833e-14 9.10119e-16 2.84778e-14 -6.77339e-15 -1.92694e-14 -3.71324e-15 -1.19939e-14 -2.31304e-14 -1.7902e-14 -6.56308e-15 -8.78931e-15 -3.56821e-14 -1.22735e-14 1.84089e-14 6.73927e-15 1.27337e-14 1.92765e-14 4.04612e-14 5.42239e-14 -3.85332e-14 -3.08856e-13 -7.04189e-13 -1.07677e-12 -1.22889e-12 -1.02027e-12 -4.96695e-13 1.32191e-13 6.79027e-13 8.05156e-13 6.9236e-13 8.10621e-13 7.33741e-13 4.86894e-13 5.00302e-14 -3.611e-13 -1.49907e-13 1.95657e-12 5.6148e-12 9.20952e-12 1.10541e-11 1.09538e-11 9.91594e-12 8.67554e-12 7.47628e-12 6.3549e-12 5.29709e-12 4.47521e-12 3.74717e-12 3.0704e-12 2.62072e-12 2.16014e-12 1.76214e-12 1.426e-12 1.15328e-12 9.4877e-13 7.62577e-13 5.99933e-13 4.36473e-13 2.37214e-13 8.60222e-14 -6.08116e-14 -1.55158e-13 -2.90225e-13 -5.07297e-13 -6.4014e-13 -7.80799e-13 -9.66767e-13 -1.23752e-12 -1.47261e-12 -1.66804e-12 -1.92051e-12 -2.13277e-12 -2.29506e-12 -2.3121e-12 -2.49513e-12 -2.44834e-12 -2.35315e-12 -2.17859e-12 -1.92951e-12 -1.66512e-12 -1.24756e-12 -8.09066e-13 -4.63451e-13 -2.76702e-13 -1.31092e-13 -5.25196e-14 -8.20165e-14 -5.33669e-14 -1.17154e-14 -4.77011e-14 -5.26995e-14 -3.46692e-14 -2.65929e-14 -3.84121e-14 -5.47414e-14 -2.8809e-14 -3.10371e-14 -7.78865e-14 -9.38941e-14 -1.26074e-13 -8.14508e-14 -3.01678e-14 -4.45045e-14 -2.52304e-14 2.12035e-14 3.0195e-14 5.59273e-14 2.43706e-14 -2.99269e-14 -4.84858e-14 -2.47412e-14 2.08019e-15 -5.02455e-15 3.6564e-14 -2.01582e-14 -7.83032e-14 -6.31148e-14 -4.79733e-14 -1.72905e-14 -6.0676e-16 -1.72754e-14 5.67093e-15 2.26636e-14 -4.8531e-14 -1.35601e-13 -1.03973e-13 -1.09756e-14 -4.80367e-14 -7.46576e-14 0 0 0 0 0 0 0 0 0 0 0 0 0 0 0 0 0 0 0 0 0 0 0 0 0 0 0 0 0 0 0 0 0 0 0 0 0 0 0 0 0 0 0 0 0 0 0 0 0 0 0 0 0 0 0 0 0 0 0 0 0 0 0 0 0 0 0 0 0 0 0 0 0 0 0 0 0 0 0 0 0 0 0 0 0 0 0 0 0 0 0 0 0 0 0 0 0 0 0 0 0 0 0 0 0 0 0 0 0 0 0 0 0 0 0 0 0 0 0 0 0