<?xml version="1.0"?>
<VTKFile type="PolyData">
	<PolyData>
		<Piece NumberOfPoints="1206" NumberOfPolys="1000">
			<Points>
				<DataArray type="Float32" NumberOfComponents="3" format="ascii">
 0 0 0 0.02 0 0 0.04 0 0 0.06 0 0 0.08 0 0 0.1 0 0 0 0.005 0 0.02 0.005 0 0.04 0.005 0 0.06 0.005 0 0.08 0.005 0 0.1 0.005 0 0 0.01 0 0.02 0.01 0 0.04 0.01 0 0.06 0.01 0 0.08 0.01 0 0.1 0.01 0 0 0.015 0 0.02 0.015 0 0.04 0.015 0 0.06 0.015 0 0.08 0.015 0 0.1 0.015 0 0 0.02 0 0.02 0.02 0 0.04 0.02 0 0.06 0.02 0 0.08 0.02 0 0.1 0.02 0 0 0.025 0 0.02 0.025 0 0.04 0.025 0 0.06 0.025 0 0.08 0.025 0 0.1 0.025 0 0 0.03 0 0.02 0.03 0 0.04 0.03 0 0.06 0.03 0 0.08 0.03 0 0.1 0.03 0 0 0.035 0 0.02 0.035 0 0.04 0.035 0 0.06 0.035 0 0.08 0.035 0 0.1 0.035 0 0 0.04 0 0.02 0.04 0 0.04 0.04 0 0.06 0.04 0 0.08 0.04 0 0.1 0.04 0 0 0.045 0 0.02 0.045 0 0.04 0.045 0 0.06 0.045 0 0.08 0.045 0 0.1 0.045 0 0 0.05 0 0.02 0.05 0 0.04 0.05 0 0.06 0.05 0 0.08 0.05 0 0.1 0.05 0 0 0.055 0 0.02 0.055 0 0.04 0.055 0 0.06 0.055 0 0.08 0.055 0 0.1 0.055 0 0 0.06 0 0.02 0.06 0 0.04 0.06 0 0.06 0.06 0 0.08 0.06 0 0.1 0.06 0 0 0.065 0 0.02 0.065 0 0.04 0.065 0 0.06 0.065 0 0.08 0.065 0 0.1 0.065 0 0 0.07 0 0.02 0.07 0 0.04 0.07 0 0.06 0.07 0 0.08 0.07 0 0.1 0.07 0 0 0.075 0 0.02 0.075 0 0.04 0.075 0 0.06 0.075 0 0.08 0.075 0 0.1 0.075 0 0 0.08 0 0.02 0.08 0 0.04 0.08 0 0.06 0.08 0 0.08 0.08 0 0.1 0.08 0 0 0.085 0 0.02 0.085 0 0.04 0.085 0 0.06 0.085 0 0.08 0.085 0 0.1 0.085 0 0 0.09 0 0.02 0.09 0 0.04 0.09 0 0.06 0.09 0 0.08 0.09 0 0.1 0.09 0 0 0.095 0 0.02 0.095 0 0.04 0.095 0 0.06 0.095 0 0.08 0.095 0 0.1 0.095 0 0 0.1 0 0.02 0.1 0 0.04 0.1 0 0.06 0.1 0 0.08 0.1 0 0.1 0.1 0 0 0.105 0 0.02 0.105 0 0.04 0.105 0 0.06 0.105 0 0.08 0.105 0 0.1 0.105 0 0 0.11 0 0.02 0.11 0 0.04 0.11 0 0.06 0.11 0 0.08 0.11 0 0.1 0.11 0 0 0.115 0 0.02 0.115 0 0.04 0.115 0 0.06 0.115 0 0.08 0.115 0 0.1 0.115 0 0 0.12 0 0.02 0.12 0 0.04 0.12 0 0.06 0.12 0 0.08 0.12 0 0.1 0.12 0 0 0.125 0 0.02 0.125 0 0.04 0.125 0 0.06 0.125 0 0.08 0.125 0 0.1 0.125 0 0 0.13 0 0.02 0.13 0 0.04 0.13 0 0.06 0.13 0 0.08 0.13 0 0.1 0.13 0 0 0.135 0 0.02 0.135 0 0.04 0.135 0 0.06 0.135 0 0.08 0.135 0 0.1 0.135 0 0 0.14 0 0.02 0.14 0 0.04 0.14 0 0.06 0.14 0 0.08 0.14 0 0.1 0.14 0 0 0.145 0 0.02 0.145 0 0.04 0.145 0 0.06 0.145 0 0.08 0.145 0 0.1 0.145 0 0 0.15 0 0.02 0.15 0 0.04 0.15 0 0.06 0.15 0 0.08 0.15 0 0.1 0.15 0 0 0.155 0 0.02 0.155 0 0.04 0.155 0 0.06 0.155 0 0.08 0.155 0 0.1 0.155 0 0 0.16 0 0.02 0.16 0 0.04 0.16 0 0.06 0.16 0 0.08 0.16 0 0.1 0.16 0 0 0.165 0 0.02 0.165 0 0.04 0.165 0 0.06 0.165 0 0.08 0.165 0 0.1 0.165 0 0 0.17 0 0.02 0.17 0 0.04 0.17 0 0.06 0.17 0 0.08 0.17 0 0.1 0.17 0 0 0.175 0 0.02 0.175 0 0.04 0.175 0 0.06 0.175 0 0.08 0.175 0 0.1 0.175 0 0 0.18 0 0.02 0.18 0 0.04 0.18 0 0.06 0.18 0 0.08 0.18 0 0.1 0.18 0 0 0.185 0 0.02 0.185 0 0.04 0.185 0 0.06 0.185 0 0.08 0.185 0 0.1 0.185 0 0 0.19 0 0.02 0.19 0 0.04 0.19 0 0.06 0.19 0 0.08 0.19 0 0.1 0.19 0 0 0.195 0 0.02 0.195 0 0.04 0.195 0 0.06 0.195 0 0.08 0.195 0 0.1 0.195 0 0 0.2 0 0.02 0.2 0 0.04 0.2 0 0.06 0.2 0 0.08 0.2 0 0.1 0.2 0 0 0.205 0 0.02 0.205 0 0.04 0.205 0 0.06 0.205 0 0.08 0.205 0 0.1 0.205 0 0 0.21 0 0.02 0.21 0 0.04 0.21 0 0.06 0.21 0 0.08 0.21 0 0.1 0.21 0 0 0.215 0 0.02 0.215 0 0.04 0.215 0 0.06 0.215 0 0.08 0.215 0 0.1 0.215 0 0 0.22 0 0.02 0.22 0 0.04 0.22 0 0.06 0.22 0 0.08 0.22 0 0.1 0.22 0 0 0.225 0 0.02 0.225 0 0.04 0.225 0 0.06 0.225 0 0.08 0.225 0 0.1 0.225 0 0 0.23 0 0.02 0.23 0 0.04 0.23 0 0.06 0.23 0 0.08 0.23 0 0.1 0.23 0 0 0.235 0 0.02 0.235 0 0.04 0.235 0 0.06 0.235 0 0.08 0.235 0 0.1 0.235 0 0 0.24 0 0.02 0.24 0 0.04 0.24 0 0.06 0.24 0 0.08 0.24 0 0.1 0.24 0 0 0.245 0 0.02 0.245 0 0.04 0.245 0 0.06 0.245 0 0.08 0.245 0 0.1 0.245 0 0 0.25 0 0.02 0.25 0 0.04 0.25 0 0.06 0.25 0 0.08 0.25 0 0.1 0.25 0 0 0.255 0 0.02 0.255 0 0.04 0.255 0 0.06 0.255 0 0.08 0.255 0 0.1 0.255 0 0 0.26 0 0.02 0.26 0 0.04 0.26 0 0.06 0.26 0 0.08 0.26 0 0.1 0.26 0 0 0.265 0 0.02 0.265 0 0.04 0.265 0 0.06 0.265 0 0.08 0.265 0 0.1 0.265 0 0 0.27 0 0.02 0.27 0 0.04 0.27 0 0.06 0.27 0 0.08 0.27 0 0.1 0.27 0 0 0.275 0 0.02 0.275 0 0.04 0.275 0 0.06 0.275 0 0.08 0.275 0 0.1 0.275 0 0 0.28 0 0.02 0.28 0 0.04 0.28 0 0.06 0.28 0 0.08 0.28 0 0.1 0.28 0 0 0.285 0 0.02 0.285 0 0.04 0.285 0 0.06 0.285 0 0.08 0.285 0 0.1 0.285 0 0 0.29 0 0.02 0.29 0 0.04 0.29 0 0.06 0.29 0 0.08 0.29 0 0.1 0.29 0 0 0.295 0 0.02 0.295 0 0.04 0.295 0 0.06 0.295 0 0.08 0.295 0 0.1 0.295 0 0 0.3 0 0.02 0.3 0 0.04 0.3 0 0.06 0.3 0 0.08 0.3 0 0.1 0.3 0 0 0.305 0 0.02 0.305 0 0.04 0.305 0 0.06 0.305 0 0.08 0.305 0 0.1 0.305 0 0 0.31 0 0.02 0.31 0 0.04 0.31 0 0.06 0.31 0 0.08 0.31 0 0.1 0.31 0 0 0.315 0 0.02 0.315 0 0.04 0.315 0 0.06 0.315 0 0.08 0.315 0 0.1 0.315 0 0 0.32 0 0.02 0.32 0 0.04 0.32 0 0.06 0.32 0 0.08 0.32 0 0.1 0.32 0 0 0.325 0 0.02 0.325 0 0.04 0.325 0 0.06 0.325 0 0.08 0.325 0 0.1 0.325 0 0 0.33 0 0.02 0.33 0 0.04 0.33 0 0.06 0.33 0 0.08 0.33 0 0.1 0.33 0 0 0.335 0 0.02 0.335 0 0.04 0.335 0 0.06 0.335 0 0.08 0.335 0 0.1 0.335 0 0 0.34 0 0.02 0.34 0 0.04 0.34 0 0.06 0.34 0 0.08 0.34 0 0.1 0.34 0 0 0.345 0 0.02 0.345 0 0.04 0.345 0 0.06 0.345 0 0.08 0.345 0 0.1 0.345 0 0 0.35 0 0.02 0.35 0 0.04 0.35 0 0.06 0.35 0 0.08 0.35 0 0.1 0.35 0 0 0.355 0 0.02 0.355 0 0.04 0.355 0 0.06 0.355 0 0.08 0.355 0 0.1 0.355 0 0 0.36 0 0.02 0.36 0 0.04 0.36 0 0.06 0.36 0 0.08 0.36 0 0.1 0.36 0 0 0.365001 0 0.02 0.365001 0 0.04 0.365001 0 0.06 0.365001 0 0.08 0.365001 0 0.1 0.365001 0 0 0.370002 0 0.02 0.370002 0 0.04 0.370002 0 0.06 0.370002 0 0.08 0.370002 0 0.1 0.370002 0 0 0.375009 0 0.02 0.375009 0 0.04 0.375009 0 0.06 0.375009 0 0.08 0.375009 0 0.1 0.375009 0 0 0.380029 0 0.02 0.380029 0 0.04 0.380029 0 0.06 0.380029 0 0.08 0.380029 0 0.1 0.380029 0 0 0.385082 0 0.02 0.385082 0 0.04 0.385082 0 0.06 0.385082 0 0.08 0.385082 0 0.1 0.385082 0 0 0.390198 0 0.02 0.390198 0 0.04 0.390198 0 0.06 0.390198 0 0.08 0.390198 0 0.1 0.390198 0 0 0.395418 0 0.02 0.395418 0 0.04 0.395418 0 0.06 0.395418 0 0.08 0.395418 0 0.1 0.395418 0 0 0.400787 0 0.02 0.400787 0 0.04 0.400787 0 0.06 0.400787 0 0.08 0.400787 0 0.1 0.400787 0 0 0.406343 0 0.02 0.406343 0 0.04 0.406343 0 0.06 0.406343 0 0.08 0.406343 0 0.1 0.406343 0 0 0.412119 0 0.02 0.412119 0 0.04 0.412119 0 0.06 0.412119 0 0.08 0.412119 0 0.1 0.412119 0 0 0.418146 0 0.02 0.418146 0 0.04 0.418146 0 0.06 0.418146 0 0.08 0.418146 0 0.1 0.418146 0 0 0.424455 0 0.02 0.424455 0 0.04 0.424455 0 0.06 0.424455 0 0.08 0.424455 0 0.1 0.424455 0 0 0.431083 0 0.02 0.431083 0 0.04 0.431083 0 0.06 0.431083 0 0.08 0.431083 0 0.1 0.431083 0 0 0.438068 0 0.02 0.438068 0 0.04 0.438068 0 0.06 0.438068 0 0.08 0.438068 0 0.1 0.438068 0 0 0.445458 0 0.02 0.445458 0 0.04 0.445458 0 0.06 0.445458 0 0.08 0.445458 0 0.1 0.445458 0 0 0.453308 0 0.02 0.453308 0 0.04 0.453308 0 0.06 0.453308 0 0.08 0.453308 0 0.1 0.453308 0 0 0.461684 0 0.02 0.461684 0 0.04 0.461684 0 0.06 0.461684 0 0.08 0.461684 0 0.1 0.461684 0 0 0.470665 0 0.02 0.470665 0 0.04 0.470665 0 0.06 0.470665 0 0.08 0.470665 0 0.1 0.470665 0 0 0.480345 0 0.02 0.480345 0 0.04 0.480345 0 0.06 0.480345 0 0.08 0.480345 0 0.1 0.480345 0 0 0.490823 0 0.02 0.490823 0 0.04 0.490823 0 0.06 0.490823 0 0.08 0.490823 0 0.1 0.490823 0 0 0.502169 0 0.02 0.502169 0 0.04 0.502169 0 0.06 0.502169 0 0.08 0.502169 0 0.1 0.502169 0 0 0.51428 0 0.02 0.51428 0 0.04 0.51428 0 0.06 0.51428 0 0.08 0.51428 0 0.1 0.51428 0 0 0.526557 0 0.02 0.526557 0 0.04 0.526557 0 0.06 0.526557 0 0.08 0.526557 0 0.1 0.526557 0 0 0.538632 0 0.02 0.538632 0 0.04 0.538632 0 0.06 0.538632 0 0.08 0.538632 0 0.1 0.538632 0 0 0.550535 0 0.02 0.550535 0 0.04 0.550535 0 0.06 0.550535 0 0.08 0.550535 0 0.1 0.550535 0 0 0.562339 0 0.02 0.562339 0 0.04 0.562339 0 0.06 0.562339 0 0.08 0.562339 0 0.1 0.562339 0 0 0.574105 0 0.02 0.574105 0 0.04 0.574105 0 0.06 0.574105 0 0.08 0.574105 0 0.1 0.574105 0 0 0.585872 0 0.02 0.585872 0 0.04 0.585872 0 0.06 0.585872 0 0.08 0.585872 0 0.1 0.585872 0 0 0.588484 0 0.02 0.588484 0 0.04 0.588484 0 0.06 0.588484 0 0.08 0.588484 0 0.1 0.588484 0 0 0.591023 0 0.02 0.591023 0 0.04 0.591023 0 0.06 0.591023 0 0.08 0.591023 0 0.1 0.591023 0 0 0.593516 0 0.02 0.593516 0 0.04 0.593516 0 0.06 0.593516 0 0.08 0.593516 0 0.1 0.593516 0 0 0.595979 0 0.02 0.595979 0 0.04 0.595979 0 0.06 0.595979 0 0.08 0.595979 0 0.1 0.595979 0 0 0.598421 0 0.02 0.598421 0 0.04 0.598421 0 0.06 0.598421 0 0.08 0.598421 0 0.1 0.598421 0 0 0.600849 0 0.02 0.600849 0 0.04 0.600849 0 0.06 0.600849 0 0.08 0.600849 0 0.1 0.600849 0 0 0.603267 0 0.02 0.603267 0 0.04 0.603267 0 0.06 0.603267 0 0.08 0.603267 0 0.1 0.603267 0 0 0.605684 0 0.02 0.605684 0 0.04 0.605684 0 0.06 0.605684 0 0.08 0.605684 0 0.1 0.605684 0 0 0.6081 0 0.02 0.6081 0 0.04 0.6081 0 0.06 0.6081 0 0.08 0.6081 0 0.1 0.6081 0 0 0.610501 0 0.02 0.610501 0 0.04 0.610501 0 0.06 0.610501 0 0.08 0.610501 0 0.1 0.610501 0 0 0.61289 0 0.02 0.61289 0 0.04 0.61289 0 0.06 0.61289 0 0.08 0.61289 0 0.1 0.61289 0 0 0.615273 0 0.02 0.615273 0 0.04 0.615273 0 0.06 0.615273 0 0.08 0.615273 0 0.1 0.615273 0 0 0.617653 0 0.02 0.617653 0 0.04 0.617653 0 0.06 0.617653 0 0.08 0.617653 0 0.1 0.617653 0 0 0.62003 0 0.02 0.62003 0 0.04 0.62003 0 0.06 0.62003 0 0.08 0.62003 0 0.1 0.62003 0 0 0.622404 0 0.02 0.622404 0 0.04 0.622404 0 0.06 0.622404 0 0.08 0.622404 0 0.1 0.622404 0 0 0.624776 0 0.02 0.624776 0 0.04 0.624776 0 0.06 0.624776 0 0.08 0.624776 0 0.1 0.624776 0 0 0.62715 0 0.02 0.62715 0 0.04 0.62715 0 0.06 0.62715 0 0.08 0.62715 0 0.1 0.62715 0 0 0.629521 0 0.02 0.629521 0 0.04 0.629521 0 0.06 0.629521 0 0.08 0.629521 0 0.1 0.629521 0 0 0.631891 0 0.02 0.631891 0 0.04 0.631891 0 0.06 0.631891 0 0.08 0.631891 0 0.1 0.631891 0 0 0.634258 0 0.02 0.634258 0 0.04 0.634258 0 0.06 0.634258 0 0.08 0.634258 0 0.1 0.634258 0 0 0.636624 0 0.02 0.636624 0 0.04 0.636624 0 0.06 0.636624 0 0.08 0.636624 0 0.1 0.636624 0 0 0.638993 0 0.02 0.638993 0 0.04 0.638993 0 0.06 0.638993 0 0.08 0.638993 0 0.1 0.638993 0 0 0.641365 0 0.02 0.641365 0 0.04 0.641365 0 0.06 0.641365 0 0.08 0.641365 0 0.1 0.641365 0 0 0.6
[...]
			<PointData Scalars="VitesseX">
				<DataArray Name="VitesseX" type="Float32" format="ascii">
 0 1.84955e-16 -8.50266e-16 5.24598e-15 7.67104e-15 0 0 4.25767e-17 -5.38559e-16 4.95458e-15 7.23877e-15 0 0 -6.12647e-16 5.91829e-16 5.04531e-15 6.01128e-15 0 0 -4.91885e-16 7.71203e-16 5.67109e-15 5.47204e-15 0 0 1.44163e-15 -1.09666e-15 6.21969e-15 5.71405e-15 0 0 1.55788e-15 1.44298e-16 4.57145e-15 5.7949e-15 0 0 7.52957e-17 2.10363e-15 2.88373e-15 5.72749e-15 0 0 2.04524e-16 1.77158e-15 1.87561e-15 5.16139e-15 0 0 3.71324e-16 4.21863e-15 -1.048e-15 5.53374e-15 0 0 -1.41499e-15 8.54936e-15 -3.65268e-15 6.37493e-15 0 0 -1.34699e-15 6.46973e-15 -2.64529e-15 8.02416e-15 0 0 4.71401e-17 1.78778e-15 -1.54127e-16 9.72677e-15 0 0 2.69131e-15 -1.559e-15 1.76303e-15 7.73525e-15 0 0 3.02293e-15 -5.55184e-16 2.56838e-15 4.058e-15 0 0 -2.3081e-16 4.87598e-15 5.40975e-16 1.1955e-15 0 0 1.51885e-15 8.1655e-16 3.86039e-15 6.89041e-16 0 0 -1.7329e-15 2.25976e-15 1.09253e-15 8.0313e-15 0 0 -3.48021e-15 5.18584e-15 -5.08613e-15 1.27186e-14 0 0 1.33692e-15 -2.15965e-15 1.88235e-15 5.07161e-15 0 0 -2.24563e-15 2.40636e-16 1.49067e-15 4.16807e-15 0 0 -6.05387e-15 4.53466e-15 3.65435e-15 2.3879e-15 0 0 -3.9695e-15 1.36761e-15 8.8931e-15 -9.90856e-17 0 0 -2.65196e-15 -4.30499e-15 1.06415e-14 3.30976e-15 0 0 -8.02568e-15 1.97168e-15 5.02009e-15 8.09571e-15 0 0 -9.09782e-15 6.72527e-15 2.16096e-15 6.7921e-15 0 0 -6.81668e-15 -1.46948e-15 1.05428e-14 -6.46703e-16 0 0 -2.90767e-15 -7.80683e-15 8.20988e-15 5.66551e-15 0 0 4.78493e-15 -8.39488e-15 5.26638e-15 6.94822e-15 0 0 2.96599e-15 6.84728e-15 8.212e-15 -1.05999e-14 0 0 9.64199e-16 1.75234e-14 1.27077e-14 -2.35006e-14 0 0 6.32675e-15 1.17025e-14 1.12655e-14 -2.05264e-14 0 0 3.19704e-15 1.67949e-14 -3.74725e-15 -3.21038e-15 0 0 1.81901e-15 1.53151e-14 -1.2831e-14 1.49526e-14 0 0 3.35413e-15 4.47434e-15 -3.4363e-15 1.12908e-14 0 0 2.2357e-15 -1.97713e-15 7.38006e-15 3.31383e-16 0 0 5.70008e-15 -4.21693e-15 7.62583e-15 -6.32584e-16 0 0 2.23244e-15 2.50979e-15 4.09293e-15 4.6612e-15 0 0 -5.21629e-15 5.0536e-15 1.1893e-15 1.51851e-14 0 0 -1.53328e-15 -3.87861e-15 4.54834e-15 1.64971e-14 0 0 2.20414e-15 -2.72151e-15 4.95777e-15 9.25455e-15 0 0 2.34813e-15 4.64701e-15 -3.50605e-16 1.42306e-15 0 0 3.09697e-15 8.1236e-16 6.07205e-16 -1.39547e-15 0 0 1.63646e-16 9.01605e-16 -1.16885e-15 1.07567e-14 0 0 5.22317e-15 -2.50525e-15 3.74689e-15 1.2452e-14 0 0 8.18627e-16 6.54952e-15 1.93427e-15 -4.86064e-17 0 0 3.15824e-15 5.45989e-15 1.44894e-14 -8.99214e-15 0 0 1.33639e-14 -6.32754e-15 2.3667e-14 -1.49461e-14 0 0 1.11151e-14 -2.69123e-15 -1.2862e-16 3.51542e-15 0 0 7.90955e-15 -9.63227e-17 -1.54593e-14 2.98344e-14 0 0 4.31789e-15 -1.77693e-15 -7.66766e-15 2.98182e-14 0 0 -4.56315e-15 5.12319e-15 7.33903e-15 1.27287e-14 0 0 -3.12695e-15 9.44939e-15 1.60856e-14 -1.80132e-15 0 0 3.44466e-15 8.4292e-15 7.51926e-15 1.84622e-14 0 0 2.39012e-15 1.68202e-14 -5.18703e-15 3.059e-14 0 0 8.72046e-15 4.20837e-15 1.90373e-14 5.84933e-15 0 0 6.13504e-15 9.21885e-16 2.4665e-14 8.34043e-15 0 0 -2.79245e-15 2.15048e-14 9.54802e-17 2.72257e-14 0 0 9.68595e-15 1.12019e-14 7.44192e-15 2.43214e-14 0 0 8.0388e-15 2.49453e-14 4.44351e-15 1.01252e-14 0 0 -7.24691e-15 4.69382e-14 -1.01003e-14 5.06829e-15 0 0 8.98252e-15 1.16412e-14 2.29583e-14 5.85085e-15 0 0 2.84613e-14 -5.93735e-15 2.29689e-14 3.96638e-14 0 0 2.73343e-14 1.04092e-14 1.49897e-14 4.8191e-14 0 0 2.73311e-14 1.83833e-14 1.44725e-14 3.76365e-14 0 0 2.97842e-15 5.12636e-15 1.39267e-14 2.55604e-14 0 0 -1.2321e-14 -9.61921e-15 3.0348e-14 -1.2761e-14 0 0 -3.12438e-15 -3.4289e-14 4.06042e-14 -1.15895e-14 0 0 9.50363e-16 -5.30533e-14 4.44941e-14 -5.68308e-16 0 0 -2.68283e-14 1.32841e-14 -4.20186e-14 4.03407e-14 0 0 -4.56381e-14 3.80807e-14 -6.28368e-14 5.10573e-14 0 0 -7.01114e-15 -1.81852e-14 6.60186e-15 9.9073e-15 0 0 -5.6897e-15 -3.98058e-14 1.61278e-14 1.19061e-14 0 0 -3.28458e-14 -2.81107e-14 1.11201e-14 2.05971e-14 0 0 -8.64016e-15 -2.1804e-14 -4.78955e-15 1.23312e-14 0 0 1.94078e-14 -3.2564e-14 -5.85652e-15 5.59561e-15 0 0 1.02662e-14 -4.2638e-14 2.14529e-14 -5.2299e-15 0 0 -3.60775e-14 -1.56948e-14 3.58269e-15 8.75403e-15 0 0 -4.05621e-14 -4.57937e-15 -3.12772e-14 1.95729e-14 0 0 1.19306e-14 -2.30372e-14 -3.2666e-14 1.03911e-15 0 0 1.55563e-14 -1.56423e-14 -2.25914e-14 -1.06875e-14 0 0 -8.75814e-15 -5.61839e-15 -1.68617e-14 -1.6444e-14 0 0 -1.61973e-14 -3.19202e-15 -1.59742e-15 -4.71654e-14 0 0 8.70522e-15 -2.88004e-14 7.72104e-15 -4.41685e-14 0 0 7.25809e-15 -3.51951e-14 -3.62579e-15 5.04675e-15 0 0 -9.61088e-15 -2.6763e-14 3.1603e-15 3.91047e-15 0 0 -7.01943e-15 -1.60916e-14 -1.22697e-14 2.24547e-14 0 0 -1.6332e-15 -1.08761e-14 -1.73534e-14 1.92591e-14 0 0 -1.77723e-14 -1.45317e-15 -1.43325e-14 1.05822e-14 0 0 -1.06777e-14 -1.65395e-14 -2.82937e-14 2.94707e-14 0 0 -7.02316e-15 -4.35581e-15 -1.33822e-14 -4.14297e-15 0 0 7.92817e-15 -9.74171e-15 6.61661e-15 -2.74869e-14 0 0 1.56226e-14 -2.18207e-14 9.02197e-16 -1.90554e-14 0 0 -2.5582e-14 2.58522e-14 -3.26894e-14 2.11714e-14 0 0 -1.81141e-14 2.74989e-14 1.57099e-14 1.89826e-14 0 0 3.89043e-14 4.0562e-14 7.50209e-14 2.69444e-14 0 0 6.03845e-14 1.09835e-13 1.10093e-13 6.94466e-14 0 0 6.38968e-14 1.24105e-13 1.36881e-13 6.75534e-14 0 0 4.10994e-14 5.81798e-14 4.34142e-14 5.72986e-14 0 0 -5.5794e-14 -6.61828e-14 -8.7297e-14 -3.69111e-14 0 0 -1.39057e-13 -2.26906e-13 -2.17164e-13 -1.55014e-13 0 0 -1.85618e-13 -3.44653e-13 -3.32733e-13 -1.98605e-13 0 0 -3.77101e-13 -6.18945e-13 -5.89177e-13 -3.89351e-13 0 0 -3.65383e-13 -6.18858e-13 -6.01529e-13 -3.88275e-13 0 0 -3.81722e-13 -6.38026e-13 -5.95227e-13 -4.15057e-13 0 0 -4.33056e-13 -6.33354e-13 -6.1062e-13 -4.68692e-13 0 0 -4.19895e-13 -6.54043e-13 -6.52621e-13 -4.53607e-13 0 0 -3.96527e-13 -6.58597e-13 -6.96312e-13 -3.98639e-13 0 0 -3.67561e-13 -5.38714e-13 -6.15297e-13 -3.32569e-13 0 0 -2.31933e-13 -2.89312e-13 -3.72574e-13 -2.32041e-13 0 0 -2.73786e-14 -5.36251e-14 -7.78688e-14 -8.7598e-14 0 0 1.38115e-13 1.89353e-13 1.60271e-13 6.32005e-14 0 0 2.02653e-13 3.98702e-13 2.91091e-13 1.76285e-13 0 0 2.3126e-13 4.4569e-13 3.44433e-13 2.63429e-13 0 0 2.36046e-13 4.23811e-13 3.59141e-13 2.80869e-13 0 0 2.39372e-13 3.70275e-13 3.63707e-13 1.91886e-13 0 0 2.25996e-13 2.98436e-13 3.41414e-13 1.11347e-13 0 0 1.67304e-13 2.57203e-13 2.73976e-13 1.06122e-13 0 0 1.15797e-13 2.12001e-13 1.80464e-13 1.54096e-13 0 0 8.34783e-14 1.61764e-13 1.51134e-13 1.07351e-13 0 0 7.17116e-14 1.539e-13 1.26314e-13 5.28037e-14 0 0 6.04862e-14 1.45083e-13 9.94121e-14 7.29815e-14 0 0 3.30206e-14 1.47e-13 6.49359e-14 5.21061e-14 0 0 3.30751e-15 1.69417e-13 2.96261e-14 6.72178e-14 0 0 2.76566e-14 1.6706e-13 4.21636e-14 7.50865e-14 0 0 7.10155e-14 1.22127e-13 1.20251e-13 9.58636e-14 0 0 8.94426e-14 1.34655e-13 1.85998e-13 1.11275e-13 0 0 8.55783e-14 1.59089e-13 1.86626e-13 9.59787e-14 0 0 9.07948e-14 1.78046e-13 1.93107e-13 1.19938e-13 0 0 1.00958e-13 1.6403e-13 1.48022e-13 1.28341e-13 0 0 1.16023e-13 1.79474e-13 1.67179e-13 1.56095e-13 0 0 1.0321e-13 2.07123e-13 2.11476e-13 5.89858e-14 0 0 1.13271e-13 2.14225e-13 1.5785e-13 7.20775e-14 0 0 1.33506e-13 2.29366e-13 1.40519e-13 1.97504e-13 0 0 7.77785e-14 2.13001e-13 2.02579e-13 1.19079e-13 0 0 5.76636e-14 1.94382e-13 1.38488e-13 3.94974e-14 0 0 7.35257e-14 1.29322e-13 8.6457e-14 4.59609e-14 0 0 3.90626e-14 7.41144e-14 7.11792e-14 3.74192e-14 0 0 1.21542e-14 4.54004e-14 6.95609e-15 1.46259e-14 0 0 5.75082e-15 9.92251e-16 1.69343e-14 3.98135e-15 0 0 -8.7754e-15 -1.42645e-15 2.33855e-14 7.29652e-15 0 0 -2.10627e-14 3.09243e-15 -8.9978e-15 -2.46938e-15 0 0 -2.72682e-14 6.79944e-15 -2.58989e-14 -2.61544e-15 0 0 -2.53694e-14 9.84514e-15 -2.56086e-14 9.31894e-15 0 0 -1.44518e-14 -9.77795e-15 -1.71965e-14 -3.80255e-15 0 0 -1.07486e-14 -2.22368e-14 9.88263e-15 -2.42172e-14 0 0 -1.8458e-14 -2.08799e-14 3.96404e-14 -1.267e-14 0 0 -2.0944e-14 -1.89607e-14 4.85567e-14 -8.4765e-15 0 0 -1.40399e-14 -9.52927e-15 2.65583e-14 -1.15703e-14 0 0 -9.15278e-15 -1.14375e-14 2.79994e-14 2.71117e-15 0 0 3.29575e-15 -2.1036e-14 6.2948e-14 1.53109e-14 0 0 -4.46387e-15 1.95878e-14 4.12732e-14 3.93356e-14 0 0 -6.76751e-15 2.71438e-14 3.53514e-14 3.06743e-14 0 0 9.49951e-16 1.07255e-14 4.28586e-14 3.50429e-14 0 0 3.89176e-15 2.37721e-14 1.8736e-14 7.65173e-14 0 0 8.14051e-15 2.62395e-14 3.84876e-15 8.37724e-14 0 0 -1.02748e-14 6.03785e-14 -2.33442e-14 7.11969e-14 0 0 -1.10115e-14 6.32375e-14 -1.13374e-14 3.43857e-14 0 0 3.02989e-15 4.95001e-15 3.47841e-14 1.45192e-14 0 0 -1.06468e-14 1.07264e-14 2.96554e-14 5.64557e-14 0 0 2.99404e-14 -1.53249e-14 3.431e-14 7.83592e-14 0 0 2.51285e-14 -2.19044e-14 9.25523e-16 1.4577e-13 0 0 -8.62384e-15 2.1228e-15 -7.72026e-14 2.3286e-13 0 0 9.66973e-15 -1.24052e-15 -5.49553e-14 1.9757e-13 0 0 4.72209e-14 -6.38759e-14 6.33868e-14 1.19081e-13 0 0 4.83119e-14 -9.18979e-14 7.54428e-14 1.30584e-13 0 0 -1.14508e-14 -3.37176e-15 1.19478e-15 1.52633e-13 0 0 -1.92492e-15 -1.73922e-14 3.79208e-14 6.76184e-14 0 0 1.51118e-14 4.22371e-15 -1.43431e-14 1.71919e-14 0 0 1.93372e-14 2.57786e-14 -2.6496e-14 -2.32667e-14 0 0 -2.74464e-15 4.56514e-14 -1.45662e-14 4.68373e-15 0 0 -3.38056e-15 7.74871e-14 -8.47905e-14 9.53794e-14 0 0 1.72432e-14 4.18589e-14 -2.30485e-14 1.10602e-13 0 0 6.33359e-15 2.01564e-14 5.45476e-14 1.15617e-13 0 0 1.34852e-14 2.09106e-14 6.81661e-15 1.32436e-13 0 0 6.45737e-15 7.15666e-14 -6.67593e-14 1.38746e-13 0 0 1.22834e-15 8.4291e-14 -3.09846e-14 6.29522e-14 0 0 2.96624e-14 3.7066e-14 7.52821e-15 8.806e-15 0 0 -1.36581e-15 7.72884e-14 2.09094e-14 -1.38839e-14 0 0 -2.90916e-14 9.53635e-14 3.95294e-14 -1.07604e-14 0 0 8.74857e-15 1.82422e-14 7.01297e-14 3.41458e-15 0 0 3.17012e-14 -5.55424e-15 8.88835e-14 -3.06853e-14 0 0 7.43155e-15 4.77389e-14 4.60094e-14 -5.34521e-14 0 0 2.77085e-15 5.52116e-14 1.0729e-14 -1.36389e-14 0 0 3.54056e-14 8.73946e-15 1.46262e-15 4.88274e-14 0 0 2.79028e-14 3.3812e-14 -4.18356e-14 6.69177e-14 0 0 3.38514e-14 5.01418e-14 -2.57426e-14 1.87858e-14 0 0 5.7925e-15 7.22518e-14 1.93015e-14 8.38192e-16 0 0 2.53368e-14 4.92553e-14 6.66176e-15 9.11723e-14 0 0 5.07245e-14 2.39238e-14 6.44175e-16 9.6164e-14 0 0 1.32201e-14 5.70617e-14 -1.15256e-14 6.18169e-14 0 0 1.96146e-14 2.89935e-14 1.38623e-16 3.76457e-14 0 0 4.1248e-14 -3.71132e-14 5.95675e-14 2.78047e-14 0 0 1.14058e-14 -1.28161e-15 4.75411e-14 8.18915e-14 0 0 6.01567e-15 4.14261e-14 -2.29358e-15 9.95634e-14 0 0 4.67257e-14 8.2701e-15 2.79549e-14 2.13385e-14 0 0 3.95046e-14 -7.6572e-15 5.32002e-14 -3.56717e-14 0 0 2.45111e-14 1.09839e-14 1.03248e-14 2.88913e-14 0 0 -6.11045e-15 9.06354e-14 -5.25325e-14 7.37374e-14 0 0 2.34855e-14 4.756e-14 6.49234e-15 4.12708e-14 0 0 1.55672e-14 2.07259e-14 5.56738e-14 1.12203e-14 0 0 -4.21192e-14 7.75814e-14 2.68442e-14 1.01396e-14 0
				</DataArray>
				<DataArray Name="VitesseY" type="Float32" format="ascii">