<?xml version="1.0"?>
<VTKFile type="PolyData">
	<PolyData>
		<Piece NumberOfPoints="1206" NumberOfPolys="1000">
			<Points>
				<DataArray type="Float32" NumberOfComponents="3" format="ascii">
 0 0 0 0.02 0 0 0.04 0 0 0.06 0 0 0.08 0 0 0.1 0 0 0 0.005 0 0.02 0.005 0 0.04 0.005 0 0.06 0.005 0 0.08 0.005 0 0.1 0.005 0 0 0.01 0 0.02 0.01 0 0.04 0.01 0 0.06 0.01 0 0.08 0.01 0 0.1 0.01 0 0 0.015 0 0.02 0.015 0 0.04 0.015 0 0.06 0.015 0 0.08 0.015 0 0.1 0.015 0 0 0.02 0 0.02 0.02 0 0.04 0.02 0 0.06 0.02 0 0.08 0.02 0 0.1 0.02 0 0 0.025 0 0.02 0.025 0 0.04 0.025 0 0.06 0.025 0 0.08 0.025 0 0.1 0.025 0 0 0.03 0 0.02 0.03 0 0.04 0.03 0 0.06 0.03 0 0.08 0.03 0 0.1 0.03 0 0 0.035 0 0.02 0.035 0 0.04 0.035 0 0.06 0.035 0 0.08 0.035 0 0.1 0.035 0 0 0.04 0 0.02 0.04 0 0.04 0.04 0 0.06 0.04 0 0.08 0.04 0 0.1 0.04 0 0 0.045 0 0.02 0.045 0 0.04 0.045 0 0.06 0.045 0 0.08 0.045 0 0.1 0.045 0 0 0.05 0 0.02 0.05 0 0.04 0.05 0 0.06 0.05 0 0.08 0.05 0 0.1 0.05 0 0 0.055 0 0.02 0.055 0 0.04 0.055 0 0.06 0.055 0 0.08 0.055 0 0.1 0.055 0 0 0.06 0 0.02 0.06 0 0.04 0.06 0 0.06 0.06 0 0.08 0.06 0 0.1 0.06 0 0 0.065 0 0.02 0.065 0 0.04 0.065 0 0.06 0.065 0 0.08 0.065 0 0.1 0.065 0 0 0.07 0 0.02 0.07 0 0.04 0.07 0 0.06 0.07 0 0.08 0.07 0 0.1 0.07 0 0 0.075 0 0.02 0.075 0 0.04 0.075 0 0.06 0.075 0 0.08 0.075 0 0.1 0.075 0 0 0.08 0 0.02 0.08 0 0.04 0.08 0 0.06 0.08 0 0.08 0.08 0 0.1 0.08 0 0 0.085 0 0.02 0.085 0 0.04 0.085 0 0.06 0.085 0 0.08 0.085 0 0.1 0.085 0 0 0.09 0 0.02 0.09 0 0.04 0.09 0 0.06 0.09 0 0.08 0.09 0 0.1 0.09 0 0 0.095 0 0.02 0.095 0 0.04 0.095 0 0.06 0.095 0 0.08 0.095 0 0.1 0.095 0 0 0.1 0 0.02 0.1 0 0.04 0.1 0 0.06 0.1 0 0.08 0.1 0 0.1 0.1 0 0 0.105 0 0.02 0.105 0 0.04 0.105 0 0.06 0.105 0 0.08 0.105 0 0.1 0.105 0 0 0.11 0 0.02 0.11 0 0.04 0.11 0 0.06 0.11 0 0.08 0.11 0 0.1 0.11 0 0 0.115 0 0.02 0.115 0 0.04 0.115 0 0.06 0.115 0 0.08 0.115 0 0.1 0.115 0 0 0.12 0 0.02 0.12 0 0.04 0.12 0 0.06 0.12 0 0.08 0.12 0 0.1 0.12 0 0 0.125 0 0.02 0.125 0 0.04 0.125 0 0.06 0.125 0 0.08 0.125 0 0.1 0.125 0 0 0.13 0 0.02 0.13 0 0.04 0.13 0 0.06 0.13 0 0.08 0.13 0 0.1 0.13 0 0 0.135 0 0.02 0.135 0 0.04 0.135 0 0.06 0.135 0 0.08 0.135 0 0.1 0.135 0 0 0.14 0 0.02 0.14 0 0.04 0.14 0 0.06 0.14 0 0.08 0.14 0 0.1 0.14 0 0 0.145 0 0.02 0.145 0 0.04 0.145 0 0.06 0.145 0 0.08 0.145 0 0.1 0.145 0 0 0.15 0 0.02 0.15 0 0.04 0.15 0 0.06 0.15 0 0.08 0.15 0 0.1 0.15 0 0 0.155 0 0.02 0.155 0 0.04 0.155 0 0.06 0.155 0 0.08 0.155 0 0.1 0.155 0 0 0.16 0 0.02 0.16 0 0.04 0.16 0 0.06 0.16 0 0.08 0.16 0 0.1 0.16 0 0 0.165 0 0.02 0.165 0 0.04 0.165 0 0.06 0.165 0 0.08 0.165 0 0.1 0.165 0 0 0.17 0 0.02 0.17 0 0.04 0.17 0 0.06 0.17 0 0.08 0.17 0 0.1 0.17 0 0 0.175 0 0.02 0.175 0 0.04 0.175 0 0.06 0.175 0 0.08 0.175 0 0.1 0.175 0 0 0.18 0 0.02 0.18 0 0.04 0.18 0 0.06 0.18 0 0.08 0.18 0 0.1 0.18 0 0 0.185 0 0.02 0.185 0 0.04 0.185 0 0.06 0.185 0 0.08 0.185 0 0.1 0.185 0 0 0.19 0 0.02 0.19 0 0.04 0.19 0 0.06 0.19 0 0.08 0.19 0 0.1 0.19 0 0 0.195 0 0.02 0.195 0 0.04 0.195 0 0.06 0.195 0 0.08 0.195 0 0.1 0.195 0 0 0.2 0 0.02 0.2 0 0.04 0.2 0 0.06 0.2 0 0.08 0.2 0 0.1 0.2 0 0 0.205 0 0.02 0.205 0 0.04 0.205 0 0.06 0.205 0 0.08 0.205 0 0.1 0.205 0 0 0.21 0 0.02 0.21 0 0.04 0.21 0 0.06 0.21 0 0.08 0.21 0 0.1 0.21 0 0 0.215 0 0.02 0.215 0 0.04 0.215 0 0.06 0.215 0 0.08 0.215 0 0.1 0.215 0 0 0.22 0 0.02 0.22 0 0.04 0.22 0 0.06 0.22 0 0.08 0.22 0 0.1 0.22 0 0 0.225 0 0.02 0.225 0 0.04 0.225 0 0.06 0.225 0 0.08 0.225 0 0.1 0.225 0 0 0.23 0 0.02 0.23 0 0.04 0.23 0 0.06 0.23 0 0.08 0.23 0 0.1 0.23 0 0 0.235 0 0.02 0.235 0 0.04 0.235 0 0.06 0.235 0 0.08 0.235 0 0.1 0.235 0 0 0.24 0 0.02 0.24 0 0.04 0.24 0 0.06 0.24 0 0.08 0.24 0 0.1 0.24 0 0 0.245 0 0.02 0.245 0 0.04 0.245 0 0.06 0.245 0 0.08 0.245 0 0.1 0.245 0 0 0.250001 0 0.02 0.250001 0 0.04 0.250001 0 0.06 0.250001 0 0.08 0.250001 0 0.1 0.250001 0 0 0.255002 0 0.02 0.255002 0 0.04 0.255002 0 0.06 0.255002 0 0.08 0.255002 0 0.1 0.255002 0 0 0.260007 0 0.02 0.260007 0 0.04 0.260007 0 0.06 0.260007 0 0.08 0.260007 0 0.1 0.260007 0 0 0.265017 0 0.02 0.265017 0 0.04 0.265017 0 0.06 0.265017 0 0.08 0.265017 0 0.1 0.265017 0 0 0.27004 0 0.02 0.27004 0 0.04 0.27004 0 0.06 0.27004 0 0.08 0.27004 0 0.1 0.27004 0 0 0.275087 0 0.02 0.275087 0 0.04 0.275087 0 0.06 0.275087 0 0.08 0.275087 0 0.1 0.275087 0 0 0.28017 0 0.02 0.28017 0 0.04 0.28017 0 0.06 0.28017 0 0.08 0.28017 0 0.1 0.28017 0 0 0.285307 0 0.02 0.285307 0 0.04 0.285307 0 0.06 0.285307 0 0.08 0.285307 0 0.1 0.285307 0 0 0.290512 0 0.02 0.290512 0 0.04 0.290512 0 0.06 0.290512 0 0.08 0.290512 0 0.1 0.290512 0 0 0.2958 0 0.02 0.2958 0 0.04 0.2958 0 0.06 0.2958 0 0.08 0.2958 0 0.1 0.2958 0 0 0.30118 0 0.02 0.30118 0 0.04 0.30118 0 0.06 0.30118 0 0.08 0.30118 0 0.1 0.30118 0 0 0.306663 0 0.02 0.306663 0 0.04 0.306663 0 0.06 0.306663 0 0.08 0.306663 0 0.1 0.306663 0 0 0.312256 0 0.02 0.312256 0 0.04 0.312256 0 0.06 0.312256 0 0.08 0.312256 0 0.1 0.312256 0 0 0.317966 0 0.02 0.317966 0 0.04 0.317966 0 0.06 0.317966 0 0.08 0.317966 0 0.1 0.317966 0 0 0.323799 0 0.02 0.323799 0 0.04 0.323799 0 0.06 0.323799 0 0.08 0.323799 0 0.1 0.323799 0 0 0.329764 0 0.02 0.329764 0 0.04 0.329764 0 0.06 0.329764 0 0.08 0.329764 0 0.1 0.329764 0 0 0.335867 0 0.02 0.335867 0 0.04 0.335867 0 0.06 0.335867 0 0.08 0.335867 0 0.1 0.335867 0 0 0.342117 0 0.02 0.342117 0 0.04 0.342117 0 0.06 0.342117 0 0.08 0.342117 0 0.1 0.342117 0 0 0.348522 0 0.02 0.348522 0 0.04 0.348522 0 0.06 0.348522 0 0.08 0.348522 0 0.1 0.348522 0 0 0.355091 0 0.02 0.355091 0 0.04 0.355091 0 0.06 0.355091 0 0.08 0.355091 0 0.1 0.355091 0 0 0.361833 0 0.02 0.361833 0 0.04 0.361833 0 0.06 0.361833 0 0.08 0.361833 0 0.1 0.361833 0 0 0.368761 0 0.02 0.368761 0 0.04 0.368761 0 0.06 0.368761 0 0.08 0.368761 0 0.1 0.368761 0 0 0.375885 0 0.02 0.375885 0 0.04 0.375885 0 0.06 0.375885 0 0.08 0.375885 0 0.1 0.375885 0 0 0.383218 0 0.02 0.383218 0 0.04 0.383218 0 0.06 0.383218 0 0.08 0.383218 0 0.1 0.383218 0 0 0.390774 0 0.02 0.390774 0 0.04 0.390774 0 0.06 0.390774 0 0.08 0.390774 0 0.1 0.390774 0 0 0.398568 0 0.02 0.398568 0 0.04 0.398568 0 0.06 0.398568 0 0.08 0.398568 0 0.1 0.398568 0 0 0.406618 0 0.02 0.406618 0 0.04 0.406618 0 0.06 0.406618 0 0.08 0.406618 0 0.1 0.406618 0 0 0.414943 0 0.02 0.414943 0 0.04 0.414943 0 0.06 0.414943 0 0.08 0.414943 0 0.1 0.414943 0 0 0.423563 0 0.02 0.423563 0 0.04 0.423563 0 0.06 0.423563 0 0.08 0.423563 0 0.1 0.423563 0 0 0.432501 0 0.02 0.432501 0 0.04 0.432501 0 0.06 0.432501 0 0.08 0.432501 0 0.1 0.432501 0 0 0.441783 0 0.02 0.441783 0 0.04 0.441783 0 0.06 0.441783 0 0.08 0.441783 0 0.1 0.441783 0 0 0.451436 0 0.02 0.451436 0 0.04 0.451436 0 0.06 0.451436 0 0.08 0.451436 0 0.1 0.451436 0 0 0.461491 0 0.02 0.461491 0 0.04 0.461491 0 0.06 0.461491 0 0.08 0.461491 0 0.1 0.461491 0 0 0.471978 0 0.02 0.471978 0 0.04 0.471978 0 0.06 0.471978 0 0.08 0.471978 0 0.1 0.471978 0 0 0.482924 0 0.02 0.482924 0 0.04 0.482924 0 0.06 0.482924 0 0.08 0.482924 0 0.1 0.482924 0 0 0.494342 0 0.02 0.494342 0 0.04 0.494342 0 0.06 0.494342 0 0.08 0.494342 0 0.1 0.494342 0 0 0.506196 0 0.02 0.506196 0 0.04 0.506196 0 0.06 0.506196 0 0.08 0.506196 0 0.1 0.506196 0 0 0.51832 0 0.02 0.51832 0 0.04 0.51832 0 0.06 0.51832 0 0.08 0.51832 0 0.1 0.51832 0 0 0.530419 0 0.02 0.530419 0 0.04 0.530419 0 0.06 0.530419 0 0.08 0.530419 0 0.1 0.530419 0 0 0.542427 0 0.02 0.542427 0 0.04 0.542427 0 0.06 0.542427 0 0.08 0.542427 0 0.1 0.542427 0 0 0.554342 0 0.02 0.554342 0 0.04 0.554342 0 0.06 0.554342 0 0.08 0.554342 0 0.1 0.554342 0 0 0.56618 0 0.02 0.56618 0 0.04 0.56618 0 0.06 0.56618 0 0.08 0.56618 0 0.1 0.56618 0 0 0.577964 0 0.02 0.577964 0 0.04 0.577964 0 0.06 0.577964 0 0.08 0.577964 0 0.1 0.577964 0 0 0.589718 0 0.02 0.589718 0 0.04 0.589718 0 0.06 0.589718 0 0.08 0.589718 0 0.1 0.589718 0 0 0.601457 0 0.02 0.601457 0 0.04 0.601457 0 0.06 0.601457 0 0.08 0.601457 0 0.1 0.601457 0 0 0.613188 0 0.02 0.613188 0 0.04 0.613188 0 0.06 0.613188 0 0.08 0.613188 0 0.1 0.613188 0 0 0.624917 0 0.02 0.624917 0 0.04 0.624917 0 0.06 0.624917 0 0.08 0.624917 0 0.1 0.624917 0 0 0.636646 0 0.02 0.636646 0 0.04 0.636646 0 0.06 0.636646 0 0.08 0.636646 0 0.1 0.636646 0 0 0.648374 0 0.02 0.648374 0 0.04 0.648374 0 0.06 0.648374 0 0.08 0.648374 0 0.1 0.648374 0 0 0.660105 0 0.02 0.660105 0 0.04 0.660105 0 0.06 0.660105 0 0.08 0.660105 0 0.1 0.660105 0 0 0.671848 0 0.02 0.671848 0 0.04 0.671848 0 0.06 0.671848 0 0.08 0.671848 0 0.1 0.671848 0 0 0.674457 0 0.02 0.674457 0 0.04 0.674457 0 0.06 0.674457 0 0.08 0.674457 0 0.1 0.674457 0 0 0.676993 0 0.02 0.676993 0 0.04 0.676993 0 0.06 0.676993 0 0.08 0.676993 0 0.1 0.676993 0 0 0.679483 0 0.02 0.679483 0 0.04 0.679483 0 0.06 0.679483 0 0.08 0.679483 0 0.1 0.679483 0 0 0.681943 0 0.02 0.681943 0 0.04 0.681943 0 0.06 0.681943 0 0.08 0.681943 0 0.1 0.681943 0 0 0.684381 0 0.02 0.684381 0 0.04 0.684381 0 0.06 0.684381 0 0.08 0.684381 0 0.1 0.684381 0 0 0.686804 0 0.02 0.686804 0 0.04 0.686804 0 0.06 0.686804 0 0.08 0.686804 0 0.1 0.686804 0 0 0.689218 0 0.02 0.689218 0 0.04 0.689218 0 0.06 0.689218 0 0.08 0.689218 0 0.1 0.689218 0 0 0.69163 0 0.02 0.69163 0 0.04 0.69163 0 0.06 0.69163 0 0.08 0.69163 0 0.1 0.69163 0 0 0.694042 0 0.02 0.694042 0 0.04 0.694042 0 0.06 0.694042 0 0.08 0.694042 0 0.1 0.694042 0 0 0.69644 0 0.02 0.69644 0 0.04 0.69644 0 0.06 0.69644 0 0.08 0.69644 0 0.1 0.69644 0 0 0.698826 0 0.02 0.698826 0 0.04 0.698826 0 0.06 0.698826 0 0.08 0.698826 0 0.1 0.698826 0 0 0.701207 0 0.02 0.701207 0 0.04 0.701207 0 0.06 0.701207 0 0.08 0.701207 0 0.1 0.701207 0 0 0.703585 0 0.02 0.703585 0 0.04 0.703585 0 0.06 0.703585 0 0.08 0.703585 0 0.1 0.703585 0 0 0.705961 0 0.02 0.705961 0 0.04 0.705961 0 0.06 0.705961 0 0.08 0.705961 0 0.1 0.705961 0 0 0.708333 0 0.02 0.708333 0 0.04 0.708333 0 0.06 0.708333 0 0.08 0.708333 0 0.1 0.708333 0 0 0.710703 0 0.02 0.710703 0 0.04 0.710703 0 0.06 0.710703 0 0.08 0.710703 0 0.1 0.710703 0 0 0.713073 0 0.02 0.713073 0 0.04 0.713073 0 0.06 0.713073 0 0.08 0.713073 0 0.1 0.713073 0 0 0.71544 0 0.02 0.71544 0 0.04 0.71544 0 0.06 0.71544 0 0.08 0.71544 0 0.1 0.71544
[...]
			<PointData Scalars="VitesseX">
				<DataArray Name="VitesseX" type="Float32" format="ascii">
 0 1.98309e-15 4.84562e-15 3.51608e-15 1.11114e-14 0 0 2.45243e-15 3.73843e-15 3.66001e-15 1.15942e-14 0 0 3.87956e-15 2.52246e-15 2.84091e-15 1.2515e-14 0 0 4.50352e-15 2.85687e-15 6.2102e-16 1.22228e-14 0 0 2.44836e-15 4.75171e-15 -1.95243e-15 1.18523e-14 0 0 3.67516e-16 6.07235e-15 -3.35999e-15 1.09636e-14 0 0 1.48068e-15 2.98301e-15 -1.25763e-15 7.73737e-15 0 0 2.32173e-15 7.10612e-16 8.97535e-16 4.99433e-15 0 0 2.31614e-15 3.26845e-16 2.54602e-15 1.34167e-15 0 0 2.08188e-15 -2.15547e-16 4.95109e-15 -3.53211e-15 0 0 3.44211e-15 -2.47338e-15 8.10661e-15 -6.82907e-15 0 0 3.38049e-15 -1.84599e-15 7.38858e-15 -7.74195e-15 0 0 1.67232e-16 3.23844e-15 8.93456e-16 -6.84151e-15 0 0 -3.00141e-16 2.13501e-15 -1.29702e-15 -4.8595e-15 0 0 -2.10856e-15 1.58039e-15 -3.78725e-15 -1.57767e-15 0 0 -3.3781e-15 -2.48967e-15 -2.75269e-15 4.21785e-16 0 0 -3.45935e-15 -6.72012e-15 -5.35245e-17 1.38335e-15 0 0 -2.64117e-15 -3.64726e-15 -4.52172e-15 1.37344e-15 0 0 3.41941e-15 -9.26084e-15 -1.1566e-15 -2.16814e-15 0 0 -1.11192e-15 -2.39715e-15 -4.36173e-15 1.14877e-15 0 0 -2.99901e-15 3.9242e-15 -1.22511e-14 9.37408e-15 0 0 1.53217e-15 -2.37642e-15 -5.99624e-15 6.25351e-15 0 0 -3.52334e-15 1.40809e-15 -4.51351e-16 3.0672e-16 0 0 -2.35475e-15 1.21394e-16 -2.41865e-16 6.50647e-16 0 0 4.16317e-15 -5.92017e-15 -4.67952e-15 5.30976e-15 0 0 3.76615e-15 -4.51632e-15 -8.49826e-15 5.72361e-15 0 0 1.03448e-15 1.08019e-15 -9.47723e-15 1.75383e-15 0 0 2.13743e-15 -2.11917e-15 -8.89302e-15 -1.40003e-16 0 0 -6.08013e-16 -9.41258e-15 -7.50582e-16 -6.89438e-15 0 0 -4.03404e-15 -2.76551e-15 -4.23209e-16 -9.86058e-15 0 0 -4.78769e-15 8.38804e-15 -6.47241e-16 -1.19086e-14 0 0 -3.18152e-15 9.96143e-15 6.56532e-15 -5.44337e-15 0 0 2.15093e-15 7.56198e-15 1.08602e-14 1.15417e-14 0 0 -2.74725e-15 1.30655e-14 8.77723e-15 2.51981e-14 0 0 -2.168e-15 1.17835e-14 9.94338e-15 2.07017e-14 0 0 5.07424e-15 1.47763e-14 1.02056e-14 3.43536e-15 0 0 2.58531e-16 2.64391e-14 1.6566e-14 -3.3148e-15 0 0 2.54696e-15 1.2665e-14 2.95865e-14 -1.23447e-14 0 0 5.98341e-15 -3.1646e-15 1.8681e-14 -2.93758e-15 0 0 -6.32716e-15 1.12683e-14 -1.69269e-14 1.38054e-14 0 0 -7.23607e-15 8.48915e-15 -2.52872e-14 4.36699e-15 0 0 -4.87081e-15 -2.40092e-15 -1.14184e-14 -1.30417e-14 0 0 -6.22729e-15 -6.99438e-15 -1.43574e-14 -3.64652e-14 0 0 -3.96977e-14 3.61525e-15 -3.20007e-14 -4.48726e-14 0 0 -5.89407e-14 4.44317e-15 -3.89408e-14 -4.1619e-14 0 0 -2.81914e-14 -2.84966e-14 -4.31481e-14 -3.47014e-14 0 0 -1.69197e-14 -2.31481e-14 -5.48761e-14 -3.7071e-14 0 0 -7.63123e-15 -2.96461e-14 -5.10095e-14 -1.99424e-14 0 0 -1.24151e-14 -3.82921e-14 -3.85514e-14 1.04441e-14 0 0 -1.85488e-14 -3.21238e-14 -1.59665e-14 7.35214e-15 0 0 2.68695e-15 -5.89046e-14 6.67147e-15 -8.93659e-15 0 0 2.32028e-15 -4.57322e-14 7.76961e-15 -1.51056e-14 0 0 -5.59097e-15 -2.04413e-14 -1.22257e-15 -3.24403e-15 0 0 2.57642e-16 -2.37092e-14 1.37065e-14 -2.78549e-14 0 0 -7.93689e-15 -2.1039e-14 2.15943e-14 -3.54461e-14 0 0 -2.17517e-14 -4.45667e-15 1.83779e-16 -2.85951e-15 0 0 -1.7016e-14 7.9042e-15 -2.06546e-14 2.39282e-15 0 0 -8.08987e-16 -1.75375e-14 1.21768e-14 -3.43619e-14 0 0 8.87531e-15 -3.04092e-14 9.83661e-15 -3.04559e-14 0 0 8.66499e-15 -1.78193e-14 -2.32338e-14 1.30501e-14 0 0 -1.05891e-14 -1.98484e-15 3.93944e-15 1.12101e-14 0 0 -1.8116e-14 5.69017e-15 1.07864e-14 3.16073e-14 0 0 -4.02284e-15 7.26381e-16 2.43745e-14 1.3638e-14 0 0 -5.82793e-15 5.3567e-15 2.27794e-14 -8.41352e-15 0 0 -1.71335e-14 -1.37632e-14 1.15795e-14 1.54839e-14 0 0 -2.38305e-16 -1.2185e-14 1.13732e-14 2.0064e-14 0 0 -1.29055e-15 8.32928e-15 1.73984e-15 1.81886e-14 0 0 -8.51501e-15 -2.70081e-14 1.66763e-14 -1.16074e-15 0 0 -1.00381e-14 -1.50543e-14 1.70483e-14 -2.87596e-15 0 0 4.87624e-15 -2.04053e-15 3.50422e-14 -1.88326e-14 0 0 -5.44621e-15 -1.08576e-14 3.91522e-14 -1.20441e-14 0 0 -4.32063e-14 9.38841e-15 -4.83422e-16 3.85715e-14 0 0 -5.92995e-15 -4.1347e-14 2.65307e-14 2.08923e-14 0 0 2.27298e-15 -3.63869e-14 3.14172e-14 2.06481e-14 0 0 -1.13918e-14 2.84398e-14 3.81849e-15 3.53222e-14 0 0 -2.95742e-14 3.1198e-14 1.03518e-14 9.18619e-15 0 0 -1.4602e-14 -1.71395e-15 1.43742e-14 -7.99999e-15 0 0 1.27898e-14 -1.2903e-15 2.7425e-14 -1.94099e-14 0 0 3.22677e-15 1.24016e-14 6.16365e-15 3.06815e-15 0 0 2.49635e-14 -1.94465e-14 -2.58847e-15 3.36302e-14 0 0 2.72803e-14 -8.70014e-15 5.57586e-15 7.23073e-15 0 0 6.91113e-15 3.03084e-14 4.97218e-16 -2.01407e-14 0 0 1.13957e-15 3.79353e-14 -5.08822e-15 3.88153e-15 0 0 2.96296e-15 2.43693e-14 6.41603e-15 1.68232e-14 0 0 5.03762e-15 7.3396e-15 4.07346e-14 -2.1524e-14 0 0 -5.05581e-15 1.84226e-14 7.66557e-15 8.75754e-15 0 0 -1.0739e-14 1.61865e-15 2.57641e-14 4.32955e-14 0 0 8.74118e-15 -6.50058e-15 3.32117e-14 2.0391e-14 0 0 1.74255e-14 -6.14191e-15 1.76478e-15 -4.02355e-16 0 0 -1.33181e-14 -2.25982e-14 -2.67542e-14 3.98722e-15 0 0 -2.51209e-14 -4.58255e-14 -5.99105e-14 -2.0485e-14 0 0 -3.66176e-14 -7.55672e-14 -6.86575e-14 -6.62778e-14 0 0 -5.66502e-14 -9.70876e-14 -9.34567e-14 -7.44668e-14 0 0 -6.24071e-14 -1.05621e-13 -9.29905e-14 -8.02545e-14 0 0 -5.55863e-14 -8.80289e-14 -9.10413e-14 -6.0255e-14 0 0 -4.02645e-14 -6.38585e-14 -7.36146e-14 -3.02591e-14 0 0 -3.06e-14 -3.59134e-14 -3.63868e-14 -2.79954e-14 0 0 -5.84746e-15 -2.20216e-14 -5.37666e-15 -2.18761e-14 0 0 -1.51882e-15 -2.11773e-15 2.89585e-15 -2.82818e-15 0 0 -1.10165e-14 -1.52708e-15 -2.1162e-14 -1.43907e-14 0 0 -1.3815e-14 -3.13615e-14 -4.90425e-14 -2.75367e-14 0 0 -4.15323e-14 -1.20873e-13 -6.47736e-14 -6.37564e-14 0 0 -6.39739e-14 -8.68906e-14 -1.04035e-13 -3.84171e-14 0 0 -6.8293e-14 -1.03931e-13 -1.20935e-13 -5.85368e-14 0 0 -5.04695e-14 -1.4939e-13 -1.59454e-13 -2.26621e-14 0 0 -5.25297e-14 -1.78796e-13 -1.50032e-13 -2.6332e-14 0 0 -6.34383e-14 -1.70728e-13 -1.38636e-13 -5.01814e-14 0 0 -3.77297e-14 -5.51735e-14 -6.76483e-14 -2.10885e-14 0 0 9.69326e-14 1.94276e-13 1.24991e-13 1.25965e-13 0 0 2.73605e-13 5.0338e-13 3.69086e-13 2.77499e-13 0 0 4.36319e-13 7.49184e-13 6.48955e-13 3.82373e-13 0 0 5.78253e-13 8.80429e-13 7.94872e-13 5.01341e-13 0 0 5.88411e-13 9.37812e-13 8.52034e-13 5.31865e-13 0 0 5.48503e-13 9.25589e-13 8.46076e-13 5.62954e-13 0 0 5.65688e-13 8.67999e-13 7.94903e-13 5.58733e-13 0 0 5.50762e-13 7.95587e-13 7.67473e-13 4.48899e-13 0 0 4.98586e-13 7.30997e-13 7.39394e-13 3.97349e-13 0 0 4.25923e-13 6.90615e-13 6.89545e-13 3.97326e-13 0 0 3.70695e-13 6.30388e-13 6.49293e-13 3.51906e-13 0 0 3.42704e-13 5.9858e-13 6.18504e-13 2.98156e-13 0 0 3.33085e-13 5.63803e-13 5.07877e-13 3.39996e-13 0 0 3.16728e-13 5.18883e-13 4.6406e-13 3.50412e-13 0 0 2.88392e-13 4.76831e-13 4.38034e-13 3.0721e-13 0 0 2.937e-13 4.34948e-13 4.16854e-13 3.04967e-13 0 0 2.70901e-13 4.21213e-13 4.05322e-13 3.16575e-13 0 0 2.50981e-13 3.91437e-13 3.94078e-13 2.75538e-13 0 0 2.58013e-13 3.43236e-13 4.2024e-13 2.27493e-13 0 0 2.46903e-13 3.17702e-13 3.60158e-13 2.12689e-13 0 0 2.39848e-13 3.09007e-13 2.87574e-13 1.91578e-13 0 0 2.02136e-13 3.05164e-13 2.69709e-13 1.70625e-13 0 0 1.53449e-13 3.03774e-13 2.36513e-13 1.94575e-13 0 0 1.63008e-13 2.78821e-13 1.36112e-13 2.0193e-13 0 0 1.69196e-13 2.5165e-13 1.13417e-13 1.28048e-13 0 0 1.67355e-13 1.8507e-13 1.43214e-13 7.78467e-14 0 0 1.6502e-13 1.57961e-13 1.06773e-13 4.67282e-14 0 0 1.46681e-13 1.49864e-13 1.09885e-13 4.33629e-14 0 0 1.164e-13 1.38186e-13 7.53176e-14 4.20936e-14 0 0 8.59392e-14 1.45877e-13 7.05579e-14 -4.17829e-15 0 0 8.81724e-14 1.12666e-13 1.24503e-13 -8.63457e-14 0 0 6.87259e-14 1.24096e-13 4.37586e-14 -5.52921e-14 0 0 3.56004e-14 1.42998e-13 -2.33187e-14 -7.10107e-15 0 0 2.09836e-14 8.97873e-14 9.25481e-15 -1.42146e-15 0 0 -1.9214e-15 9.02226e-14 -6.37876e-14 3.46098e-14 0 0 -1.56506e-14 8.84727e-14 -1.12321e-13 4.84492e-14 0 0 -1.64357e-14 3.0643e-14 -7.4318e-14 2.25863e-14 0 0 -2.57099e-14 -1.06795e-14 -8.10847e-14 1.00575e-14 0 0 -2.0701e-14 -3.79882e-14 -8.16354e-14 1.81718e-15 0 0 -1.85014e-14 -7.46583e-14 -2.43843e-14 -1.14091e-14 0 0 -5.46153e-14 -9.09126e-14 1.7222e-14 -1.39509e-14 0 0 -7.85031e-14 -1.01144e-13 4.34479e-14 1.29623e-14 0 0 -8.80511e-14 -1.09074e-13 -1.52581e-14 -2.51762e-16 0 0 -1.40863e-13 -7.42941e-14 -8.81355e-14 -1.24359e-14 0 0 -1.99323e-13 -2.3844e-14 -1.21941e-13 4.93218e-14 0 0 -1.69686e-13 -1.0277e-13 -4.31484e-14 -1.40057e-14 0 0 -1.31451e-13 -2.14194e-13 8.36095e-14 -1.43591e-13 0 0 -1.70189e-13 -1.90395e-13 3.66584e-14 -7.75304e-14 0 0 -1.73063e-13 -1.54474e-13 -1.03522e-13 8.14178e-14 0 0 -1.56076e-13 -1.25289e-13 -1.69738e-13 7.24846e-14 0 0 -1.72253e-13 -8.45918e-14 -1.8328e-13 -2.56872e-14 0 0 -1.83074e-13 -1.07116e-13 -1.41386e-13 -1.73297e-13 0 0 -1.75237e-13 -1.736e-13 -1.55194e-14 -1.49305e-13 0 0 -1.43356e-13 -1.5276e-13 -4.79472e-14 -4.72987e-14 0 0 -1.20389e-13 -9.42923e-14 -8.46465e-14 -2.79619e-14 0 0 -9.22688e-14 -7.14186e-14 -7.65516e-14 -1.53047e-14 0 0 -8.42088e-14 -7.90471e-14 -8.45681e-14 -2.61757e-14 0 0 -1.05059e-13 -8.22577e-14 -4.56695e-14 7.28037e-15 0 0 -1.14856e-13 -8.48766e-14 -8.89624e-14 -2.78401e-14 0 0 -8.97709e-14 -1.05891e-13 -6.32883e-14 -1.16029e-13 0 0 -5.5765e-14 -1.27266e-13 -9.40678e-15 -1.05944e-13 0 0 -4.90001e-14 -8.91923e-14 -5.57822e-14 -3.94333e-14 0 0 -4.07211e-14 -7.50083e-14 -7.07192e-14 -4.10549e-14 0 0 -4.04563e-14 -6.81624e-14 -9.50693e-14 -2.17542e-14 0 0 -3.68262e-14 -5.63194e-14 -9.98294e-14 -7.05766e-14 0 0 -3.40192e-14 -5.35932e-14 -8.01697e-14 -1.00442e-13 0 0 -2.90851e-14 -5.92127e-14 -8.51827e-14 -5.59183e-14 0 0 -2.19424e-14 -6.11185e-14 -8.49674e-14 -7.49773e-14 0 0 -1.38123e-14 -7.4998e-14 -6.25631e-14 -1.05409e-13 0 0 -2.26072e-14 -7.24192e-14 -4.6629e-14 -1.19002e-13 0 0 -2.77941e-14 -5.90519e-14 -5.41858e-14 -1.11146e-13 0 0 -3.39381e-14 -4.22163e-14 -8.08221e-14 -6.1423e-14 0 0 -3.73216e-14 -4.06296e-14 -8.21081e-14 -5.30114e-14 0 0 -2.77308e-14 -5.52906e-14 -6.43617e-14 -5.22203e-14 0 0 -1.57135e-14 -6.42114e-14 -8.87109e-14 2.70627e-14 0 0 -1.76084e-15 -8.21899e-14 -5.66174e-14 4.19703e-14 0 0 -2.46694e-14 -4.59524e-14 -2.74488e-14 -1.76209e-14 0 0 -3.01743e-14 -2.69645e-14 -6.29001e-14 -5.42964e-15 0 0 -2.67776e-14 -3.98421e-14 -6.16824e-14 1.64051e-14 0 0 -3.30471e-14 -3.58925e-14 -4.39824e-14 2.39792e-14 0 0 -2.68848e-14 -3.78261e-14 -4.20178e-14 5.22565e-15 0 0 -2.1897e-14 -6.10221e-14 3.64989e-15 -2.68837e-14 0 0 -2.71009e-14 -5.23584e-14 1.21827e-14 -9.85051e-15 0 0 -3.90157e-14 -3.60817e-14 2.01262e-14 -1.08655e-14 0 0 -4.26933e-14 -3.82088e-14 5.7782e-14 -2.45084e-14 0 0 -4.25643e-14 -3.11622e-14 5.36545e-14 3.85475e-16 0 0 -1.32161e-14 -3.57234e-14 3.65149e-14 -1.45689e-14 0 0 -9.92246e-15 -4.51985e-14 3.03756e-14 -1.17176e-13 0 0 -5.00633e-14 -1.80893e-14 2.66556e-15 -1.62498e-13 0 0 -2.11215e-14 -2.88045e-14 -1.45954e-14 -1.33049e-13 0 0 -1.97461e-14 -3.21113e-14 1.8289e-14 -1.14288e-13 0 0 -4.11003e-14 -1.27471e-14 2.53274e-14 -1.18843e-13 0 0 -2.05241e-14 -2.9886e-14 9.48096e-15 -1.1582e-13 0
				</DataArray>
				<DataArray Name="VitesseY" type="Float32" format="ascii">