<?xml version="1.0"?>
<VTKFile type="PolyData">
	<PolyData>
		<Piece NumberOfPoints="1206" NumberOfPolys="1000">
			<Points>
				<DataArray type="Float32" NumberOfComponents="3" format="ascii">
 0 0 0 0.02 0 0 0.04 0 0 0.06 0 0 0.08 0 0 0.1 0 0 0 0.005 0 0.02 0.005 0 0.04 0.005 0 0.06 0.005 0 0.08 0.005 0 0.1 0.005 0 0 0.01 0 0.02 0.01 0 0.04 0.01 0 0.06 0.01 0 0.08 0.01 0 0.1 0.01 0 0 0.015 0 0.02 0.015 0 0.04 0.015 0 0.06 0.015 0 0.08 0.015 0 0.1 0.015 0 0 0.02 0 0.02 0.02 0 0.04 0.02 0 0.06 0.02 0 0.08 0.02 0 0.1 0.02 0 0 0.025 0 0.02 0.025 0 0.04 0.025 0 0.06 0.025 0 0.08 0.025 0 0.1 0.025 0 0 0.03 0 0.02 0.03 0 0.04 0.03 0 0.06 0.03 0 0.08 0.03 0 0.1 0.03 0 0 0.035 0 0.02 0.035 0 0.04 0.035 0 0.06 0.035 0 0.08 0.035 0 0.1 0.035 0 0 0.04 0 0.02 0.04 0 0.04 0.04 0 0.06 0.04 0 0.08 0.04 0 0.1 0.04 0 0 0.045 0 0.02 0.045 0 0.04 0.045 0 0.06 0.045 0 0.08 0.045 0 0.1 0.045 0 0 0.05 0 0.02 0.05 0 0.04 0.05 0 0.06 0.05 0 0.08 0.05 0 0.1 0.05 0 0 0.055 0 0.02 0.055 0 0.04 0.055 0 0.06 0.055 0 0.08 0.055 0 0.1 0.055 0 0 0.06 0 0.02 0.06 0 0.04 0.06 0 0.06 0.06 0 0.08 0.06 0 0.1 0.06 0 0 0.065 0 0.02 0.065 0 0.04 0.065 0 0.06 0.065 0 0.08 0.065 0 0.1 0.065 0 0 0.07 0 0.02 0.07 0 0.04 0.07 0 0.06 0.07 0 0.08 0.07 0 0.1 0.07 0 0 0.075 0 0.02 0.075 0 0.04 0.075 0 0.06 0.075 0 0.08 0.075 0 0.1 0.075 0 0 0.08 0 0.02 0.08 0 0.04 0.08 0 0.06 0.08 0 0.08 0.08 0 0.1 0.08 0 0 0.085 0 0.02 0.085 0 0.04 0.085 0 0.06 0.085 0 0.08 0.085 0 0.1 0.085 0 0 0.09 0 0.02 0.09 0 0.04 0.09 0 0.06 0.09 0 0.08 0.09 0 0.1 0.09 0 0 0.095 0 0.02 0.095 0 0.04 0.095 0 0.06 0.095 0 0.08 0.095 0 0.1 0.095 0 0 0.1 0 0.02 0.1 0 0.04 0.1 0 0.06 0.1 0 0.08 0.1 0 0.1 0.1 0 0 0.105 0 0.02 0.105 0 0.04 0.105 0 0.06 0.105 0 0.08 0.105 0 0.1 0.105 0 0 0.11 0 0.02 0.11 0 0.04 0.11 0 0.06 0.11 0 0.08 0.11 0 0.1 0.11 0 0 0.115 0 0.02 0.115 0 0.04 0.115 0 0.06 0.115 0 0.08 0.115 0 0.1 0.115 0 0 0.12 0 0.02 0.12 0 0.04 0.12 0 0.06 0.12 0 0.08 0.12 0 0.1 0.12 0 0 0.125 0 0.02 0.125 0 0.04 0.125 0 0.06 0.125 0 0.08 0.125 0 0.1 0.125 0 0 0.13 0 0.02 0.13 0 0.04 0.13 0 0.06 0.13 0 0.08 0.13 0 0.1 0.13 0 0 0.135 0 0.02 0.135 0 0.04 0.135 0 0.06 0.135 0 0.08 0.135 0 0.1 0.135 0 0 0.14 0 0.02 0.14 0 0.04 0.14 0 0.06 0.14 0 0.08 0.14 0 0.1 0.14 0 0 0.145 0 0.02 0.145 0 0.04 0.145 0 0.06 0.145 0 0.08 0.145 0 0.1 0.145 0 0 0.15 0 0.02 0.15 0 0.04 0.15 0 0.06 0.15 0 0.08 0.15 0 0.1 0.15 0 0 0.155 0 0.02 0.155 0 0.04 0.155 0 0.06 0.155 0 0.08 0.155 0 0.1 0.155 0 0 0.16 0 0.02 0.16 0 0.04 0.16 0 0.06 0.16 0 0.08 0.16 0 0.1 0.16 0 0 0.165 0 0.02 0.165 0 0.04 0.165 0 0.06 0.165 0 0.08 0.165 0 0.1 0.165 0 0 0.17 0 0.02 0.17 0 0.04 0.17 0 0.06 0.17 0 0.08 0.17 0 0.1 0.17 0 0 0.175 0 0.02 0.175 0 0.04 0.175 0 0.06 0.175 0 0.08 0.175 0 0.1 0.175 0 0 0.18 0 0.02 0.18 0 0.04 0.18 0 0.06 0.18 0 0.08 0.18 0 0.1 0.18 0 0 0.185 0 0.02 0.185 0 0.04 0.185 0 0.06 0.185 0 0.08 0.185 0 0.1 0.185 0 0 0.19 0 0.02 0.19 0 0.04 0.19 0 0.06 0.19 0 0.08 0.19 0 0.1 0.19 0 0 0.195 0 0.02 0.195 0 0.04 0.195 0 0.06 0.195 0 0.08 0.195 0 0.1 0.195 0 0 0.2 0 0.02 0.2 0 0.04 0.2 0 0.06 0.2 0 0.08 0.2 0 0.1 0.2 0 0 0.205 0 0.02 0.205 0 0.04 0.205 0 0.06 0.205 0 0.08 0.205 0 0.1 0.205 0 0 0.21 0 0.02 0.21 0 0.04 0.21 0 0.06 0.21 0 0.08 0.21 0 0.1 0.21 0 0 0.215 0 0.02 0.215 0 0.04 0.215 0 0.06 0.215 0 0.08 0.215 0 0.1 0.215 0 0 0.22 0 0.02 0.22 0 0.04 0.22 0 0.06 0.22 0 0.08 0.22 0 0.1 0.22 0 0 0.225 0 0.02 0.225 0 0.04 0.225 0 0.06 0.225 0 0.08 0.225 0 0.1 0.225 0 0 0.23 0 0.02 0.23 0 0.04 0.23 0 0.06 0.23 0 0.08 0.23 0 0.1 0.23 0 0 0.235 0 0.02 0.235 0 0.04 0.235 0 0.06 0.235 0 0.08 0.235 0 0.1 0.235 0 0 0.24 0 0.02 0.24 0 0.04 0.24 0 0.06 0.24 0 0.08 0.24 0 0.1 0.24 0 0 0.245 0 0.02 0.245 0 0.04 0.245 0 0.06 0.245 0 0.08 0.245 0 0.1 0.245 0 0 0.25 0 0.02 0.25 0 0.04 0.25 0 0.06 0.25 0 0.08 0.25 0 0.1 0.25 0 0 0.255 0 0.02 0.255 0 0.04 0.255 0 0.06 0.255 0 0.08 0.255 0 0.1 0.255 0 0 0.26 0 0.02 0.26 0 0.04 0.26 0 0.06 0.26 0 0.08 0.26 0 0.1 0.26 0 0 0.265 0 0.02 0.265 0 0.04 0.265 0 0.06 0.265 0 0.08 0.265 0 0.1 0.265 0 0 0.27 0 0.02 0.27 0 0.04 0.27 0 0.06 0.27 0 0.08 0.27 0 0.1 0.27 0 0 0.275 0 0.02 0.275 0 0.04 0.275 0 0.06 0.275 0 0.08 0.275 0 0.1 0.275 0 0 0.28 0 0.02 0.28 0 0.04 0.28 0 0.06 0.28 0 0.08 0.28 0 0.1 0.28 0 0 0.285 0 0.02 0.285 0 0.04 0.285 0 0.06 0.285 0 0.08 0.285 0 0.1 0.285 0 0 0.29 0 0.02 0.29 0 0.04 0.29 0 0.06 0.29 0 0.08 0.29 0 0.1 0.29 0 0 0.295 0 0.02 0.295 0 0.04 0.295 0 0.06 0.295 0 0.08 0.295 0 0.1 0.295 0 0 0.3 0 0.02 0.3 0 0.04 0.3 0 0.06 0.3 0 0.08 0.3 0 0.1 0.3 0 0 0.305 0 0.02 0.305 0 0.04 0.305 0 0.06 0.305 0 0.08 0.305 0 0.1 0.305 0 0 0.31 0 0.02 0.31 0 0.04 0.31 0 0.06 0.31 0 0.08 0.31 0 0.1 0.31 0 0 0.315 0 0.02 0.315 0 0.04 0.315 0 0.06 0.315 0 0.08 0.315 0 0.1 0.315 0 0 0.32 0 0.02 0.32 0 0.04 0.32 0 0.06 0.32 0 0.08 0.32 0 0.1 0.32 0 0 0.325 0 0.02 0.325 0 0.04 0.325 0 0.06 0.325 0 0.08 0.325 0 0.1 0.325 0 0 0.33 0 0.02 0.33 0 0.04 0.33 0 0.06 0.33 0 0.08 0.33 0 0.1 0.33 0 0 0.335 0 0.02 0.335 0 0.04 0.335 0 0.06 0.335 0 0.08 0.335 0 0.1 0.335 0 0 0.34 0 0.02 0.34 0 0.04 0.34 0 0.06 0.34 0 0.08 0.34 0 0.1 0.34 0 0 0.345 0 0.02 0.345 0 0.04 0.345 0 0.06 0.345 0 0.08 0.345 0 0.1 0.345 0 0 0.35 0 0.02 0.35 0 0.04 0.35 0 0.06 0.35 0 0.08 0.35 0 0.1 0.35 0 0 0.355 0 0.02 0.355 0 0.04 0.355 0 0.06 0.355 0 0.08 0.355 0 0.1 0.355 0 0 0.36 0 0.02 0.36 0 0.04 0.36 0 0.06 0.36 0 0.08 0.36 0 0.1 0.36 0 0 0.365 0 0.02 0.365 0 0.04 0.365 0 0.06 0.365 0 0.08 0.365 0 0.1 0.365 0 0 0.37 0 0.02 0.37 0 0.04 0.37 0 0.06 0.37 0 0.08 0.37 0 0.1 0.37 0 0 0.375 0 0.02 0.375 0 0.04 0.375 0 0.06 0.375 0 0.08 0.375 0 0.1 0.375 0 0 0.38 0 0.02 0.38 0 0.04 0.38 0 0.06 0.38 0 0.08 0.38 0 0.1 0.38 0 0 0.385 0 0.02 0.385 0 0.04 0.385 0 0.06 0.385 0 0.08 0.385 0 0.1 0.385 0 0 0.39 0 0.02 0.39 0 0.04 0.39 0 0.06 0.39 0 0.08 0.39 0 0.1 0.39 0 0 0.395 0 0.02 0.395 0 0.04 0.395 0 0.06 0.395 0 0.08 0.395 0 0.1 0.395 0 0 0.4 0 0.02 0.4 0 0.04 0.4 0 0.06 0.4 0 0.08 0.4 0 0.1 0.4 0 0 0.405 0 0.02 0.405 0 0.04 0.405 0 0.06 0.405 0 0.08 0.405 0 0.1 0.405 0 0 0.41 0 0.02 0.41 0 0.04 0.41 0 0.06 0.41 0 0.08 0.41 0 0.1 0.41 0 0 0.415 0 0.02 0.415 0 0.04 0.415 0 0.06 0.415 0 0.08 0.415 0 0.1 0.415 0 0 0.42 0 0.02 0.42 0 0.04 0.42 0 0.06 0.42 0 0.08 0.42 0 0.1 0.42 0 0 0.425 0 0.02 0.425 0 0.04 0.425 0 0.06 0.425 0 0.08 0.425 0 0.1 0.425 0 0 0.43 0 0.02 0.43 0 0.04 0.43 0 0.06 0.43 0 0.08 0.43 0 0.1 0.43 0 0 0.435 0 0.02 0.435 0 0.04 0.435 0 0.06 0.435 0 0.08 0.435 0 0.1 0.435 0 0 0.44 0 0.02 0.44 0 0.04 0.44 0 0.06 0.44 0 0.08 0.44 0 0.1 0.44 0 0 0.445 0 0.02 0.445 0 0.04 0.445 0 0.06 0.445 0 0.08 0.445 0 0.1 0.445 0 0 0.45 0 0.02 0.45 0 0.04 0.45 0 0.06 0.45 0 0.08 0.45 0 0.1 0.45 0 0 0.455 0 0.02 0.455 0 0.04 0.455 0 0.06 0.455 0 0.08 0.455 0 0.1 0.455 0 0 0.46 0 0.02 0.46 0 0.04 0.46 0 0.06 0.46 0 0.08 0.46 0 0.1 0.46 0 0 0.465004 0 0.02 0.465004 0 0.04 0.465004 0 0.06 0.465004 0 0.08 0.465004 0 0.1 0.465004 0 0 0.470032 0 0.02 0.470032 0 0.04 0.470032 0 0.06 0.470032 0 0.08 0.470032 0 0.1 0.470032 0 0 0.475179 0 0.02 0.475179 0 0.04 0.475179 0 0.06 0.475179 0 0.08 0.475179 0 0.1 0.475179 0 0 0.48071 0 0.02 0.48071 0 0.04 0.48071 0 0.06 0.48071 0 0.08 0.48071 0 0.1 0.48071 0 0 0.487093 0 0.02 0.487093 0 0.04 0.487093 0 0.06 0.487093 0 0.08 0.487093 0 0.1 0.487093 0 0 0.495028 0 0.02 0.495028 0 0.04 0.495028 0 0.06 0.495028 0 0.08 0.495028 0 0.1 0.495028 0 0 0.505614 0 0.02 0.505614 0 0.04 0.505614 0 0.06 0.505614 0 0.08 0.505614 0 0.1 0.505614 0 0 0.518717 0 0.02 0.518717 0 0.04 0.518717 0 0.06 0.518717 0 0.08 0.518717 0 0.1 0.518717 0 0 0.521384 0 0.02 0.521384 0 0.04 0.521384 0 0.06 0.521384 0 0.08 0.521384 0 0.1 0.521384 0 0 0.523891 0 0.02 0.523891 0 0.04 0.523891 0 0.06 0.523891 0 0.08 0.523891 0 0.1 0.523891 0 0 0.526375 0 0.02 0.526375 0 0.04 0.526375 0 0.06 0.526375 0 0.08 0.526375 0 0.1 0.526375 0 0 0.528928 0 0.02 0.528928 0 0.04 0.528928 0 0.06 0.528928 0 0.08 0.528928 0 0.1 0.528928 0 0 0.531638 0 0.02 0.531638 0 0.04 0.531638 0 0.06 0.531638 0 0.08 0.531638 0 0.1 0.531638 0 0 0.534599 0 0.02 0.534599 0 0.04 0.534599 0 0.06 0.534599 0 0.08 0.534599 0 0.1 0.534599 0 0 0.537901 0 0.02 0.537901 0 0.04 0.537901 0 0.06 0.537901 0 0.08 0.537901 0 0.1 0.537901 0 0 0.541613 0 0.02 0.541613 0 0.04 0.541613 0 0.06 0.541613 0 0.08 0.541613 0 0.1 0.541613 0 0 0.545755 0 0.02 0.545755 0 0.04 0.545755 0 0.06 0.545755 0 0.08 0.545755 0 0.1 0.545755 0 0 0.550282 0 0.02 0.550282 0 0.04 0.550282 0 0.06 0.550282 0 0.08 0.550282 0 0.1 0.550282 0 0 0.555082 0 0.02 0.555082 0 0.04 0.555082 0 0.06 0.555082 0 0.08 0.555082 0 0.1 0.555082 0 0 0.560019 0 0.02 0.560019 0 0.04 0.560019 0 0.06 0.560019 0 0.08 0.560019 0 0.1 0.560019 0 0 0.565004 0 0.02 0.565004 0 0.04 0.565004 0 0.06 0.565004 0 0.08 0.565004 0 0.1 0.565004 0 0 0.570001 0 0.02 0.570001 0 0.04 0.570001 0 0.06 0.570001 0 0.08 0.570001 0 0.1 0.570001 0 0 0.575 0 0.02 0.575 0 0.04 0.575 0 0.06 0.575 0 0.08 0.575 0 0.1 0.575 0 0 0.58 0 0.02 0.58 0 0.04 0.58 0 0.06 0.58 0 0.08 0.58 0 0.1 0.58 0 0 0.585 0 0.02 0.585 0 0.04 0.585 0 0.06 0.585 0 0.08 0.585 0 0.1 0.585 0 0 0.59 0 0.02 0.59 0 0.04 0.59 0 0.06 0.59 0 0.08 0.59 0 0.1 0.59 0 0 0.595 0 0.02 0.595 0 0.04 0.595 0 0.06 0.595 0 0.08 0.595 0 0.1 0.595 0 0 0.6 0 0.02 0.6 0 0.04 0.6 0 0.06 0.6 0 0.08 0.6 0 0.1 0.6 0 0 0.605 0 0.02 0.605 0 0.04 0.605 0 0.06 0.605 0 0.08 0.605 0 0.1 0.605 0 0 0.61 0 0.02 0.61 0 0.04 0.61 0 0.06 0.61 0 0.08 0.61 0 0.1 0.61 0 0 0.615 0 0.02 0.615 0 0.04 0.615 0 0.06 0.615 0 0.08 0.615 0 0.1 0.615 0 0 0.62 0 0.02 0.62 0 0.04 0.62 0 0.06 0.62 0 0.08 0.62 0 0.1 0.62 0 0 0.625 0 0.02 0.625 0 0.04 0.625 0 0.06 0.625 0 0.08 0.625 0 0.1 0.625 0 0 0.63 0 0.02 0.63 0 0.04 0.63 0 0.06 0.63 0 0.08 0.63 0 0.1 0.63 0 0 0.635 0 0.02 0.635 0 0.04 0.635 0 0.06 0.635 0 0.08 0.635 0 0.1 0.635 0 0 0.64 0 0.02 0.64 0 0.04 0.64 0 0.06 0.64 0 0.08 0.64 0 0.1 0.64 0 0 0.645 0 0.02 0.645 0 0.04 0.645 0 0.06 0.645 0 0.08 0.645 0 0.1 0.645 0 0 0.65 0 0.02 0.65 0 0.04 0.65 0 0.06 0.65 0 0.08 0.65 0 0.1 0.65 0 0 0.655 0 0.02 0.655 0 0.04 0.655 0 0.06 0.655 0 0.08 0.655 0 0.1 0.655 0 0 0.66 0 0.02 0.66 0 0.04
[...]
			<PointData Scalars="VitesseX">
				<DataArray Name="VitesseX" type="Float32" format="ascii">
 0 1.21799e-16 -7.00047e-16 1.40009e-15 -7.52913e-16 0 0 3.71013e-17 -7.00047e-16 1.39667e-15 -6.64507e-16 0 0 4.09546e-17 -7.05353e-16 1.52731e-15 -5.53511e-16 0 0 6.09472e-16 -7.58549e-16 1.04555e-15 -2.25496e-16 0 0 4.61239e-16 4.83915e-16 -7.20054e-16 1.15805e-16 0 0 -6.72035e-16 1.3628e-15 -9.05827e-16 3.52323e-18 0 0 -1.28597e-15 1.02819e-15 -1.22935e-17 5.22829e-16 0 0 6.36698e-16 -2.26263e-15 3.44543e-15 -6.51529e-16 0 0 1.16693e-15 -1.94009e-15 2.80319e-15 -1.75209e-16 0 0 1.01528e-17 5.17154e-16 -6.4026e-16 1.35539e-15 0 0 3.29795e-16 -5.72705e-16 -8.56572e-16 1.70135e-15 0 0 -1.021e-15 4.18943e-16 4.55385e-16 4.47899e-16 0 0 5.39357e-16 -2.67135e-15 4.17319e-15 2.27365e-18 0 0 -2.35886e-15 8.38449e-16 1.3632e-15 5.00265e-15 0 0 -1.45461e-15 1.24962e-15 1.51614e-15 4.28554e-15 0 0 2.70778e-15 -4.46903e-15 5.94601e-15 1.82014e-15 0 0 -2.41529e-15 2.04162e-15 3.89847e-16 4.79417e-15 0 0 -1.04972e-16 4.7474e-15 -7.63329e-15 7.36554e-15 0 0 2.91741e-16 4.51694e-15 -7.18726e-15 5.3015e-15 0 0 -1.67177e-15 1.81116e-15 -4.02601e-16 3.49556e-15 0 0 3.31667e-15 -6.00186e-15 2.76375e-15 7.5366e-15 0 0 1.83239e-15 -3.4039e-15 -5.59491e-16 1.23805e-14 0 0 -2.07251e-15 3.12769e-15 6.98268e-16 2.69437e-15 0 0 -2.10561e-15 4.41222e-15 -5.55822e-16 -1.46188e-15 0 0 -1.14155e-16 1.29935e-15 -1.51787e-15 5.93972e-15 0 0 3.28494e-17 -2.84045e-15 7.23803e-15 -3.77719e-16 0 0 -2.61793e-15 5.37704e-15 2.19754e-15 -3.86116e-15 0 0 -4.15345e-15 8.77957e-15 -1.47216e-15 -2.07728e-15 0 0 -1.67555e-15 2.76459e-15 -9.18246e-16 7.85207e-16 0 0 3.65223e-15 -3.24625e-15 -1.96565e-15 5.4586e-15 0 0 2.6923e-15 -5.27713e-15 5.50885e-15 -9.19326e-16 0 0 3.07675e-15 -4.7105e-15 9.27762e-15 -1.05433e-14 0 0 -4.23493e-16 1.93773e-15 2.61181e-15 -1.00776e-14 0 0 -2.3494e-15 7.44843e-15 -1.17586e-15 -8.14931e-15 0 0 4.19554e-15 -2.09589e-15 4.24173e-15 -5.92296e-15 0 0 1.81701e-16 -1.43796e-15 3.05456e-15 3.63119e-15 0 0 -2.30281e-15 4.98517e-15 -3.24686e-15 1.24701e-14 0 0 1.26563e-15 9.19524e-16 -4.61622e-16 1.12467e-14 0 0 3.33989e-16 -2.12973e-15 -1.576e-15 9.66231e-15 0 0 -5.38566e-16 2.6166e-15 -4.52026e-15 4.81232e-15 0 0 8.27183e-16 -1.76238e-15 3.28016e-15 -1.82796e-15 0 0 1.50558e-15 -2.30042e-15 1.44409e-16 1.46717e-15 0 0 -7.62163e-17 2.05966e-15 6.0021e-15 -6.39902e-15 0 0 -4.17911e-15 6.91187e-16 1.0044e-14 -9.59516e-15 0 0 -2.04368e-15 -2.86656e-15 6.10724e-15 -7.24551e-15 0 0 1.83524e-15 -5.6821e-15 6.63258e-15 -1.22044e-14 0 0 -1.70053e-15 3.84428e-15 -4.55995e-15 1.99843e-16 0 0 -3.23534e-15 9.92303e-15 -9.6295e-15 9.92337e-15 0 0 8.06358e-16 6.87752e-15 -6.35896e-15 1.13479e-14 0 0 3.44378e-15 -1.72046e-15 -1.14595e-15 1.50425e-14 0 0 1.55702e-15 -7.36168e-15 7.83681e-15 7.5744e-15 0 0 -1.78329e-15 4.26557e-16 6.62467e-15 -4.92861e-15 0 0 1.93595e-15 7.13032e-15 3.81461e-15 -1.64697e-14 0 0 8.05453e-15 5.32645e-15 -3.22737e-15 -1.05851e-14 0 0 -3.23865e-15 8.37353e-15 -2.60453e-15 1.12675e-15 0 0 -7.87834e-15 1.42365e-14 -3.0735e-15 -2.36869e-15 0 0 5.64204e-15 1.72671e-14 -1.7702e-14 2.6868e-15 0 0 2.04965e-15 2.05604e-14 -1.27044e-14 2.42226e-15 0 0 2.69912e-15 8.84837e-15 2.42229e-16 -5.84755e-16 0 0 7.66561e-15 3.07054e-15 4.67113e-15 -2.83421e-15 0 0 2.18579e-15 6.94798e-15 3.21552e-16 -9.15385e-15 0 0 2.75583e-15 9.30806e-15 -7.74767e-15 -6.44028e-15 0 0 6.53598e-16 9.29967e-15 -6.67462e-15 -3.86882e-15 0 0 1.48129e-15 2.84816e-15 1.54947e-15 -9.01456e-15 0 0 2.93747e-15 3.94213e-15 5.40823e-15 -1.6107e-14 0 0 1.71609e-15 9.69364e-15 -4.44637e-15 -9.79104e-15 0 0 8.53334e-15 1.49171e-14 -1.81616e-14 7.62919e-15 0 0 5.60339e-15 1.4943e-14 -1.26634e-14 3.30824e-15 0 0 5.06437e-15 2.43835e-16 -2.25668e-15 -5.15605e-15 0 0 9.12548e-15 7.44151e-16 -3.8954e-15 3.89077e-15 0 0 4.75906e-15 5.49542e-15 -4.16364e-15 1.29125e-14 0 0 1.08664e-14 -2.89614e-15 -2.88009e-15 1.33112e-14 0 0 1.17696e-14 1.46846e-15 -1.51291e-15 -6.75758e-15 0 0 7.5143e-15 2.77073e-15 1.24685e-15 -1.14022e-14 0 0 5.32024e-16 7.41636e-16 8.29522e-15 -8.95806e-15 0 0 -9.25582e-15 1.1171e-14 4.19968e-15 -5.62221e-15 0 0 1.87372e-15 9.96636e-15 -1.61058e-15 3.92742e-15 0 0 6.89707e-15 4.30757e-15 1.54187e-14 2.82192e-15 0 0 4.91651e-16 5.39366e-15 2.00948e-14 1.63166e-14 0 0 -1.68099e-15 3.59694e-15 2.06277e-14 8.7353e-15 0 0 4.46573e-15 9.51113e-15 1.67228e-14 2.34485e-15 0 0 1.03194e-14 1.2981e-14 1.86469e-14 4.52159e-15 0 0 5.42588e-15 1.60493e-14 1.33458e-14 3.57766e-15 0 0 -9.72978e-16 2.39584e-14 -8.01187e-15 8.01833e-15 0 0 6.92519e-15 1.44472e-14 -1.79969e-15 3.60046e-15 0 0 9.61041e-15 4.89363e-15 1.3342e-14 4.04969e-15 0 0 3.71591e-15 2.72493e-15 1.81415e-14 -5.74702e-15 0 0 1.00309e-14 -3.27776e-15 1.66022e-14 -8.48414e-15 0 0 7.86772e-15 -5.92085e-15 2.76674e-14 -9.8281e-15 0 0 4.84741e-15 4.92207e-15 1.63083e-14 -3.72318e-15 0 0 -5.00585e-15 1.2322e-14 2.18754e-14 -3.78639e-15 0 0 -8.77763e-15 -2.37151e-15 2.51854e-14 -3.5937e-15 0 0 1.03901e-14 -3.48863e-15 -1.86961e-14 1.81785e-14 0 0 5.8673e-15 -8.67846e-16 -6.40279e-15 1.12995e-14 0 0 -2.62742e-15 7.32534e-15 6.20542e-15 -1.31606e-14 0 0 2.62584e-15 7.18628e-15 -2.36612e-15 -6.43298e-15 0 0 -6.34396e-15 -1.45646e-16 1.13291e-14 1.17624e-14 0 0 1.01883e-16 8.47205e-16 4.46998e-15 9.03693e-15 0 0 6.89827e-15 1.08622e-14 -3.26842e-15 1.80502e-14 0 0 -3.60478e-16 9.60444e-15 4.85704e-15 1.48396e-15 0 0 -1.61639e-15 1.5179e-15 7.19977e-15 -1.42157e-14 0 0 -9.81203e-15 -1.92187e-14 1.81786e-14 -6.45997e-14 0 0 -4.512e-14 -1.13562e-13 -8.36196e-14 -1.08167e-13 0 0 7.01043e-14 1.20859e-13 1.38276e-13 7.64714e-14 0 0 -3.79766e-14 -2.05163e-14 -8.22689e-14 -2.46338e-14 0 0 8.0304e-15 2.57075e-14 7.03175e-15 2.17461e-14 0 0 8.92007e-14 1.33464e-13 1.42451e-13 7.35422e-14 0 0 -4.75269e-14 -4.61349e-14 -1.31514e-13 -2.05336e-14 0 0 9.65984e-15 6.95701e-14 3.74785e-14 8.36217e-14 0 0 -1.36063e-15 -2.23662e-14 4.54663e-14 5.6734e-15 0 0 2.12048e-14 -2.23264e-14 2.64311e-14 4.01341e-14 0 0 2.04171e-14 1.42279e-15 1.04466e-15 1.83434e-14 0 0 4.42722e-15 1.13784e-14 -2.17223e-15 1.24771e-14 0 0 -2.61625e-15 1.47255e-14 -7.75721e-15 2.24522e-14 0 0 -4.44795e-15 2.12709e-14 -6.0972e-15 7.82757e-15 0 0 -8.07192e-15 1.62116e-14 3.76025e-15 2.60431e-15 0 0 3.32698e-15 2.57163e-16 7.77571e-15 3.90351e-15 0 0 8.08649e-15 1.30425e-15 -1.24127e-15 -9.46026e-15 0 0 2.63921e-15 1.40554e-14 -1.57265e-14 -4.41138e-15 0 0 7.46199e-15 1.20954e-14 -1.04871e-14 1.54774e-14 0 0 7.24086e-15 7.33511e-15 1.95197e-14 -5.39323e-15 0 0 6.67135e-15 -3.90637e-15 3.46395e-14 -3.22812e-14 0 0 1.40505e-14 -4.87709e-15 1.57551e-14 -1.00175e-14 0 0 9.58036e-15 1.75733e-14 -1.44716e-14 1.54581e-14 0 0 1.478e-14 -8.44719e-15 1.12611e-15 1.07606e-14 0 0 1.99925e-14 -2.17958e-14 1.50876e-14 1.81089e-15 0 0 1.39212e-14 -1.00909e-14 6.84166e-15 -1.74587e-15 0 0 1.82303e-14 1.02596e-15 -5.80714e-15 -1.02712e-14 0 0 -6.34328e-16 5.94045e-14 -3.75402e-14 -1.64411e-14 0 0 1.02552e-14 4.26883e-14 -1.49351e-14 -2.63351e-14 0 0 2.16565e-14 2.94312e-14 -6.53453e-15 -2.87136e-14 0 0 -5.05852e-15 5.15218e-14 -4.13958e-14 -3.40175e-15 0 0 -4.02973e-15 2.59768e-14 -3.96643e-14 9.12947e-15 0 0 9.49552e-15 3.11542e-14 -5.48753e-15 -4.13012e-14 0 0 1.49288e-14 3.46628e-14 1.41567e-14 -6.74581e-14 0 0 8.57931e-15 3.95971e-14 -1.21702e-15 -4.18183e-14 0 0 1.04844e-14 2.14816e-14 1.64916e-14 -2.96153e-14 0 0 1.51496e-14 9.43181e-15 4.32797e-14 -4.41809e-14 0 0 1.85478e-14 2.77787e-14 7.91367e-15 -2.91753e-14 0 0 2.57559e-14 -7.72214e-15 2.92198e-15 1.45893e-15 0 0 3.06207e-14 -2.99917e-14 9.97926e-15 3.10387e-15 0 0 2.19363e-14 -1.03017e-14 8.61961e-15 -1.87404e-14 0 0 -9.79754e-17 1.73128e-14 1.33359e-14 -5.41795e-14 0 0 -1.50813e-15 1.50776e-14 -2.95525e-15 -3.69071e-14 0 0 -5.36761e-15 1.2016e-14 -2.35872e-15 -5.50277e-15 0 0 3.94063e-15 1.54404e-14 5.16135e-16 -4.50891e-15 0 0 9.59873e-15 2.11172e-14 -8.79369e-15 1.204e-15 0 0 1.25693e-14 -2.59745e-15 -2.20505e-15 3.22076e-14 0 0 1.6018e-14 -2.5818e-15 -4.22545e-15 4.10969e-14 0 0 7.18922e-15 1.23688e-14 -9.19984e-15 2.78778e-14 0 0 6.91681e-15 -3.57899e-16 9.62922e-15 -1.00583e-14 0 0 -3.59382e-15 3.14534e-14 1.29298e-15 -3.28869e-14 0 0 1.12768e-14 1.66157e-14 -7.74993e-15 -5.33993e-15 0 0 1.21425e-14 1.70212e-14 1.48006e-14 -4.53511e-14 0 0 4.43346e-15 2.48145e-14 2.52082e-14 -5.99493e-14 0 0 1.52612e-14 -9.55008e-16 1.33448e-14 -7.12471e-15 0 0 8.15414e-15 1.63427e-14 -2.68094e-14 4.14654e-14 0 0 4.04133e-15 2.15528e-14 -4.00178e-14 3.72811e-14 0 0 7.00304e-15 1.98341e-14 6.05653e-16 -1.5833e-14 0 0 1.60408e-14 -4.77948e-17 -2.60508e-15 2.9823e-14 0 0 1.02699e-14 7.20071e-15 -3.30362e-14 7.36634e-14 0 0 1.43287e-14 7.71872e-15 -1.25536e-14 4.05317e-14 0 0 4.69264e-14 -7.22181e-15 1.15704e-14 -2.57805e-14 0 0 4.88615e-14 3.1754e-14 1.8625e-16 -5.21169e-14 0 0 5.725e-15 6.94336e-14 -1.76875e-14 -9.59976e-15 0 0 1.60603e-14 2.37915e-14 2.60627e-14 -1.66563e-14 0 0 4.12175e-14 -1.28968e-14 3.87394e-14 2.0178e-14 0 0 1.83514e-14 2.99993e-14 2.30019e-14 5.47364e-14 0 0 2.50048e-14 2.46178e-14 2.99582e-14 7.52025e-15 0 0 4.29848e-14 -5.91534e-15 -4.7161e-15 4.06131e-14 0 0 3.79847e-14 -1.27347e-14 1.02482e-14 5.08909e-14 0 0 2.16167e-14 -5.10353e-16 4.59735e-14 -1.11664e-14 0 0 1.27389e-14 2.00046e-14 3.23889e-14 -2.12723e-14 0 0 1.00461e-14 2.89265e-14 5.21139e-15 -1.86205e-15 0 0 1.80721e-14 7.01063e-15 -1.15443e-14 1.32018e-14 0 0 1.9242e-14 -1.84372e-14 -3.25595e-15 8.13439e-15 0 0 1.26896e-14 -1.38425e-14 2.50485e-14 -1.12587e-14 0 0 1.53931e-14 -7.38538e-15 2.27418e-14 5.65106e-15 0 0 1.91387e-14 -7.34011e-15 8.02363e-15 2.47359e-14 0 0 9.59576e-15 7.2578e-15 -8.4204e-15 1.48185e-14 0 0 8.45215e-15 1.35554e-14 -6.70582e-15 -6.24973e-17 0 0 1.1733e-14 -1.49285e-15 2.35271e-14 -1.07141e-14 0 0 5.94572e-15 3.8951e-15 8.38997e-15 -5.66549e-15 0 0 2.21486e-15 2.28108e-14 -2.41433e-14 1.35263e-14 0 0 4.18127e-15 7.53546e-15 -2.68558e-14 3.12444e-14 0 0 8.82457e-15 -1.66339e-14 -4.48454e-15 2.04867e-14 0 0 -1.28509e-14 -1.41974e-15 9.04307e-15 -7.81792e-17 0 0 -6.3832e-15 1.12619e-14 -1.894e-15 -1.443e-14 0 0 1.60814e-14 3.77612e-15 -4.67305e-15 -2.30998e-14 0 0 -4.20351e-15 -1.30849e-15 -6.43344e-15 4.40718e-16 0 0 -1.23648e-14 -3.20436e-15 -9.45428e-15 5.42733e-15 0 0 -4.58845e-15 3.98882e-16 8.89909e-15 -1.12181e-14 0 0 7.54719e-15 -1.66971e-15 -1.82414e-15 1.12645e-14 0 0 7.72871e-15 2.53705e-16 -1.9041e-15 6.18873e-16 0 0 1.3129e-14 -5.5773e-15 1.01691e-14 -2.82688e-14 0 0 2.8749e-14 -2.19207e-14 4.27817e-14 -5.46552e-14 0 0 8.59122e-15 5.71658e-16 2.47461e-14 -4.95879e-16 0 0 -1.19316e-14 2.22057e-14 -2.1071e-14 5.37186e-14 0 0 -4.02583e-15 -1.14524e-15 1.99777e-14 5.62154e-15 0 0 2.59335e-15 4.61157e-15 -2.61593e-15 1.45007e-14 0 0 0 2.46625e-14 -4.95048e-14 4.5054e-14 0
				</DataArray>
				<DataArray Name="VitesseY" type="Float32" format="ascii">