<?xml version="1.0"?>
<VTKFile type="PolyData">
	<PolyData>
		<Piece NumberOfPoints="1206" NumberOfPolys="1000">
			<Points>
				<DataArray type="Float32" NumberOfComponents="3" format="ascii">
 0 0 0 0.02 0 0 0.04 0 0 0.06 0 0 0.08 0 0 0.1 0 0 0 0.005 0 0.02 0.005 0 0.04 0.005 0 0.06 0.005 0 0.08 0.005 0 0.1 0.005 0 0 0.01 0 0.02 0.01 0 0.04 0.01 0 0.06 0.01 0 0.08 0.01 0 0.1 0.01 0 0 0.015 0 0.02 0.015 0 0.04 0.015 0 0.06 0.015 0 0.08 0.015 0 0.1 0.015 0 0 0.02 0 0.02 0.02 0 0.04 0.02 0 0.06 0.02 0 0.08 0.02 0 0.1 0.02 0 0 0.025 0 0.02 0.025 0 0.04 0.025 0 0.06 0.025 0 0.08 0.025 0 0.1 0.025 0 0 0.03 0 0.02 0.03 0 0.04 0.03 0 0.06 0.03 0 0.08 0.03 0 0.1 0.03 0 0 0.035 0 0.02 0.035 0 0.04 0.035 0 0.06 0.035 0 0.08 0.035 0 0.1 0.035 0 0 0.04 0 0.02 0.04 0 0.04 0.04 0 0.06 0.04 0 0.08 0.04 0 0.1 0.04 0 0 0.045 0 0.02 0.045 0 0.04 0.045 0 0.06 0.045 0 0.08 0.045 0 0.1 0.045 0 0 0.05 0 0.02 0.05 0 0.04 0.05 0 0.06 0.05 0 0.08 0.05 0 0.1 0.05 0 0 0.055 0 0.02 0.055 0 0.04 0.055 0 0.06 0.055 0 0.08 0.055 0 0.1 0.055 0 0 0.06 0 0.02 0.06 0 0.04 0.06 0 0.06 0.06 0 0.08 0.06 0 0.1 0.06 0 0 0.065 0 0.02 0.065 0 0.04 0.065 0 0.06 0.065 0 0.08 0.065 0 0.1 0.065 0 0 0.07 0 0.02 0.07 0 0.04 0.07 0 0.06 0.07 0 0.08 0.07 0 0.1 0.07 0 0 0.075 0 0.02 0.075 0 0.04 0.075 0 0.06 0.075 0 0.08 0.075 0 0.1 0.075 0 0 0.08 0 0.02 0.08 0 0.04 0.08 0 0.06 0.08 0 0.08 0.08 0 0.1 0.08 0 0 0.085 0 0.02 0.085 0 0.04 0.085 0 0.06 0.085 0 0.08 0.085 0 0.1 0.085 0 0 0.09 0 0.02 0.09 0 0.04 0.09 0 0.06 0.09 0 0.08 0.09 0 0.1 0.09 0 0 0.095 0 0.02 0.095 0 0.04 0.095 0 0.06 0.095 0 0.08 0.095 0 0.1 0.095 0 0 0.1 0 0.02 0.1 0 0.04 0.1 0 0.06 0.1 0 0.08 0.1 0 0.1 0.1 0 0 0.105 0 0.02 0.105 0 0.04 0.105 0 0.06 0.105 0 0.08 0.105 0 0.1 0.105 0 0 0.11 0 0.02 0.11 0 0.04 0.11 0 0.06 0.11 0 0.08 0.11 0 0.1 0.11 0 0 0.115 0 0.02 0.115 0 0.04 0.115 0 0.06 0.115 0 0.08 0.115 0 0.1 0.115 0 0 0.12 0 0.02 0.12 0 0.04 0.12 0 0.06 0.12 0 0.08 0.12 0 0.1 0.12 0 0 0.125 0 0.02 0.125 0 0.04 0.125 0 0.06 0.125 0 0.08 0.125 0 0.1 0.125 0 0 0.13 0 0.02 0.13 0 0.04 0.13 0 0.06 0.13 0 0.08 0.13 0 0.1 0.13 0 0 0.135 0 0.02 0.135 0 0.04 0.135 0 0.06 0.135 0 0.08 0.135 0 0.1 0.135 0 0 0.14 0 0.02 0.14 0 0.04 0.14 0 0.06 0.14 0 0.08 0.14 0 0.1 0.14 0 0 0.145 0 0.02 0.145 0 0.04 0.145 0 0.06 0.145 0 0.08 0.145 0 0.1 0.145 0 0 0.15 0 0.02 0.15 0 0.04 0.15 0 0.06 0.15 0 0.08 0.15 0 0.1 0.15 0 0 0.155 0 0.02 0.155 0 0.04 0.155 0 0.06 0.155 0 0.08 0.155 0 0.1 0.155 0 0 0.16 0 0.02 0.16 0 0.04 0.16 0 0.06 0.16 0 0.08 0.16 0 0.1 0.16 0 0 0.165 0 0.02 0.165 0 0.04 0.165 0 0.06 0.165 0 0.08 0.165 0 0.1 0.165 0 0 0.17 0 0.02 0.17 0 0.04 0.17 0 0.06 0.17 0 0.08 0.17 0 0.1 0.17 0 0 0.175 0 0.02 0.175 0 0.04 0.175 0 0.06 0.175 0 0.08 0.175 0 0.1 0.175 0 0 0.18 0 0.02 0.18 0 0.04 0.18 0 0.06 0.18 0 0.08 0.18 0 0.1 0.18 0 0 0.185 0 0.02 0.185 0 0.04 0.185 0 0.06 0.185 0 0.08 0.185 0 0.1 0.185 0 0 0.19 0 0.02 0.19 0 0.04 0.19 0 0.06 0.19 0 0.08 0.19 0 0.1 0.19 0 0 0.195 0 0.02 0.195 0 0.04 0.195 0 0.06 0.195 0 0.08 0.195 0 0.1 0.195 0 0 0.2 0 0.02 0.2 0 0.04 0.2 0 0.06 0.2 0 0.08 0.2 0 0.1 0.2 0 0 0.205 0 0.02 0.205 0 0.04 0.205 0 0.06 0.205 0 0.08 0.205 0 0.1 0.205 0 0 0.21 0 0.02 0.21 0 0.04 0.21 0 0.06 0.21 0 0.08 0.21 0 0.1 0.21 0 0 0.215 0 0.02 0.215 0 0.04 0.215 0 0.06 0.215 0 0.08 0.215 0 0.1 0.215 0 0 0.22 0 0.02 0.22 0 0.04 0.22 0 0.06 0.22 0 0.08 0.22 0 0.1 0.22 0 0 0.225 0 0.02 0.225 0 0.04 0.225 0 0.06 0.225 0 0.08 0.225 0 0.1 0.225 0 0 0.23 0 0.02 0.23 0 0.04 0.23 0 0.06 0.23 0 0.08 0.23 0 0.1 0.23 0 0 0.235 0 0.02 0.235 0 0.04 0.235 0 0.06 0.235 0 0.08 0.235 0 0.1 0.235 0 0 0.24 0 0.02 0.24 0 0.04 0.24 0 0.06 0.24 0 0.08 0.24 0 0.1 0.24 0 0 0.245 0 0.02 0.245 0 0.04 0.245 0 0.06 0.245 0 0.08 0.245 0 0.1 0.245 0 0 0.25 0 0.02 0.25 0 0.04 0.25 0 0.06 0.25 0 0.08 0.25 0 0.1 0.25 0 0 0.255 0 0.02 0.255 0 0.04 0.255 0 0.06 0.255 0 0.08 0.255 0 0.1 0.255 0 0 0.26 0 0.02 0.26 0 0.04 0.26 0 0.06 0.26 0 0.08 0.26 0 0.1 0.26 0 0 0.265001 0 0.02 0.265001 0 0.04 0.265001 0 0.06 0.265001 0 0.08 0.265001 0 0.1 0.265001 0 0 0.270004 0 0.02 0.270004 0 0.04 0.270004 0 0.06 0.270004 0 0.08 0.270004 0 0.1 0.270004 0 0 0.275011 0 0.02 0.275011 0 0.04 0.275011 0 0.06 0.275011 0 0.08 0.275011 0 0.1 0.275011 0 0 0.280027 0 0.02 0.280027 0 0.04 0.280027 0 0.06 0.280027 0 0.08 0.280027 0 0.1 0.280027 0 0 0.285062 0 0.02 0.285062 0 0.04 0.285062 0 0.06 0.285062 0 0.08 0.285062 0 0.1 0.285062 0 0 0.290129 0 0.02 0.290129 0 0.04 0.290129 0 0.06 0.290129 0 0.08 0.290129 0 0.1 0.290129 0 0 0.295244 0 0.02 0.295244 0 0.04 0.295244 0 0.06 0.295244 0 0.08 0.295244 0 0.1 0.295244 0 0 0.300424 0 0.02 0.300424 0 0.04 0.300424 0 0.06 0.300424 0 0.08 0.300424 0 0.1 0.300424 0 0 0.305687 0 0.02 0.305687 0 0.04 0.305687 0 0.06 0.305687 0 0.08 0.305687 0 0.1 0.305687 0 0 0.311044 0 0.02 0.311044 0 0.04 0.311044 0 0.06 0.311044 0 0.08 0.311044 0 0.1 0.311044 0 0 0.316507 0 0.02 0.316507 0 0.04 0.316507 0 0.06 0.316507 0 0.08 0.316507 0 0.1 0.316507 0 0 0.322084 0 0.02 0.322084 0 0.04 0.322084 0 0.06 0.322084 0 0.08 0.322084 0 0.1 0.322084 0 0 0.327783 0 0.02 0.327783 0 0.04 0.327783 0 0.06 0.327783 0 0.08 0.327783 0 0.1 0.327783 0 0 0.333613 0 0.02 0.333613 0 0.04 0.333613 0 0.06 0.333613 0 0.08 0.333613 0 0.1 0.333613 0 0 0.339582 0 0.02 0.339582 0 0.04 0.339582 0 0.06 0.339582 0 0.08 0.339582 0 0.1 0.339582 0 0 0.345697 0 0.02 0.345697 0 0.04 0.345697 0 0.06 0.345697 0 0.08 0.345697 0 0.1 0.345697 0 0 0.351969 0 0.02 0.351969 0 0.04 0.351969 0 0.06 0.351969 0 0.08 0.351969 0 0.1 0.351969 0 0 0.358405 0 0.02 0.358405 0 0.04 0.358405 0 0.06 0.358405 0 0.08 0.358405 0 0.1 0.358405 0 0 0.365018 0 0.02 0.365018 0 0.04 0.365018 0 0.06 0.365018 0 0.08 0.365018 0 0.1 0.365018 0 0 0.371817 0 0.02 0.371817 0 0.04 0.371817 0 0.06 0.371817 0 0.08 0.371817 0 0.1 0.371817 0 0 0.378816 0 0.02 0.378816 0 0.04 0.378816 0 0.06 0.378816 0 0.08 0.378816 0 0.1 0.378816 0 0 0.386028 0 0.02 0.386028 0 0.04 0.386028 0 0.06 0.386028 0 0.08 0.386028 0 0.1 0.386028 0 0 0.393467 0 0.02 0.393467 0 0.04 0.393467 0 0.06 0.393467 0 0.08 0.393467 0 0.1 0.393467 0 0 0.401151 0 0.02 0.401151 0 0.04 0.401151 0 0.06 0.401151 0 0.08 0.401151 0 0.1 0.401151 0 0 0.409097 0 0.02 0.409097 0 0.04 0.409097 0 0.06 0.409097 0 0.08 0.409097 0 0.1 0.409097 0 0 0.417326 0 0.02 0.417326 0 0.04 0.417326 0 0.06 0.417326 0 0.08 0.417326 0 0.1 0.417326 0 0 0.42586 0 0.02 0.42586 0 0.04 0.42586 0 0.06 0.42586 0 0.08 0.42586 0 0.1 0.42586 0 0 0.434723 0 0.02 0.434723 0 0.04 0.434723 0 0.06 0.434723 0 0.08 0.434723 0 0.1 0.434723 0 0 0.443945 0 0.02 0.443945 0 0.04 0.443945 0 0.06 0.443945 0 0.08 0.443945 0 0.1 0.443945 0 0 0.453555 0 0.02 0.453555 0 0.04 0.453555 0 0.06 0.453555 0 0.08 0.453555 0 0.1 0.453555 0 0 0.463586 0 0.02 0.463586 0 0.04 0.463586 0 0.06 0.463586 0 0.08 0.463586 0 0.1 0.463586 0 0 0.474072 0 0.02 0.474072 0 0.04 0.474072 0 0.06 0.474072 0 0.08 0.474072 0 0.1 0.474072 0 0 0.485043 0 0.02 0.485043 0 0.04 0.485043 0 0.06 0.485043 0 0.08 0.485043 0 0.1 0.485043 0 0 0.496509 0 0.02 0.496509 0 0.04 0.496509 0 0.06 0.496509 0 0.08 0.496509 0 0.1 0.496509 0 0 0.508423 0 0.02 0.508423 0 0.04 0.508423 0 0.06 0.508423 0 0.08 0.508423 0 0.1 0.508423 0 0 0.520573 0 0.02 0.520573 0 0.04 0.520573 0 0.06 0.520573 0 0.08 0.520573 0 0.1 0.520573 0 0 0.532662 0 0.02 0.532662 0 0.04 0.532662 0 0.06 0.532662 0 0.08 0.532662 0 0.1 0.532662 0 0 0.544656 0 0.02 0.544656 0 0.04 0.544656 0 0.06 0.544656 0 0.08 0.544656 0 0.1 0.544656 0 0 0.556553 0 0.02 0.556553 0 0.04 0.556553 0 0.06 0.556553 0 0.08 0.556553 0 0.1 0.556553 0 0 0.568375 0 0.02 0.568375 0 0.04 0.568375 0 0.06 0.568375 0 0.08 0.568375 0 0.1 0.568375 0 0 0.580149 0 0.02 0.580149 0 0.04 0.580149 0 0.06 0.580149 0 0.08 0.580149 0 0.1 0.580149 0 0 0.591897 0 0.02 0.591897 0 0.04 0.591897 0 0.06 0.591897 0 0.08 0.591897 0 0.1 0.591897 0 0 0.603634 0 0.02 0.603634 0 0.04 0.603634 0 0.06 0.603634 0 0.08 0.603634 0 0.1 0.603634 0 0 0.615365 0 0.02 0.615365 0 0.04 0.615365 0 0.06 0.615365 0 0.08 0.615365 0 0.1 0.615365 0 0 0.627094 0 0.02 0.627094 0 0.04 0.627094 0 0.06 0.627094 0 0.08 0.627094 0 0.1 0.627094 0 0 0.638824 0 0.02 0.638824 0 0.04 0.638824 0 0.06 0.638824 0 0.08 0.638824 0 0.1 0.638824 0 0 0.650555 0 0.02 0.650555 0 0.04 0.650555 0 0.06 0.650555 0 0.08 0.650555 0 0.1 0.650555 0 0 0.662301 0 0.02 0.662301 0 0.04 0.662301 0 0.06 0.662301 0 0.08 0.662301 0 0.1 0.662301 0 0 0.66491 0 0.02 0.66491 0 0.04 0.66491 0 0.06 0.66491 0 0.08 0.66491 0 0.1 0.66491 0 0 0.667446 0 0.02 0.667446 0 0.04 0.667446 0 0.06 0.667446 0 0.08 0.667446 0 0.1 0.667446 0 0 0.669936 0 0.02 0.669936 0 0.04 0.669936 0 0.06 0.669936 0 0.08 0.669936 0 0.1 0.669936 0 0 0.672396 0 0.02 0.672396 0 0.04 0.672396 0 0.06 0.672396 0 0.08 0.672396 0 0.1 0.672396 0 0 0.674834 0 0.02 0.674834 0 0.04 0.674834 0 0.06 0.674834 0 0.08 0.674834 0 0.1 0.674834 0 0 0.677257 0 0.02 0.677257 0 0.04 0.677257 0 0.06 0.677257 0 0.08 0.677257 0 0.1 0.677257 0 0 0.67967 0 0.02 0.67967 0 0.04 0.67967 0 0.06 0.67967 0 0.08 0.67967 0 0.1 0.67967 0 0 0.682082 0 0.02 0.682082 0 0.04 0.682082 0 0.06 0.682082 0 0.08 0.682082 0 0.1 0.682082 0 0 0.684494 0 0.02 0.684494 0 0.04 0.684494 0 0.06 0.684494 0 0.08 0.684494 0 0.1 0.684494 0 0 0.686892 0 0.02 0.686892 0 0.04 0.686892 0 0.06 0.686892 0 0.08 0.686892 0 0.1 0.686892 0 0 0.689278 0 0.02 0.689278 0 0.04 0.689278 0 0.06 0.689278 0 0.08 0.689278 0 0.1 0.689278 0 0 0.691658 0 0.02 0.691658 0 0.04 0.691658 0 0.06 0.691658 0 0.08 0.691658 0 0.1 0.691658 0 0 0.694036 0 0.02 0.694036 0 0.04 0.694036 0 0.06 0.694036 0 0.08 0.694036 0 0.1 0.694036 0 0 0.696411 0 0.02 0.696411 0 0.04 0.696411 0 0.06 0.696411 0 0.08 0.696411 0 0.1 0.696411 0 0 0.698783 0 0.02 0.698783 0 0.04 0.698783 0 0.06 0.698783 0 0.08 0.698783 0 0.1 0.698783 0 0 0.701153 0 0.02 0.701153 0 0.04 0.701153 0 0.06 0.701153 0 0.08 0.701153 0 0.1 0.701153 0 0 0.703522 0 0.02 0.703522 0 0.04 0.703522 0 0.06 0.703522 0 0.08 0.703522 0 0.1 0.703522 0 0 0.70589 0 0.02 0.70589 0 0.04 0.70589 0 0.06 0.70589 0 0.08 0.70589 0 0.1 0.70589 0 0 0.708255 0 0.02 0.708255 
[...]
			<PointData Scalars="VitesseX">
				<DataArray Name="VitesseX" type="Float32" format="ascii">
 0 0 0 0 0 0 0 2.35604e-15 5.08867e-15 -7.86003e-16 9.97819e-15 0 0 2.16933e-15 4.36675e-15 1.22713e-15 1.02498e-14 0 0 3.2474e-15 2.86384e-15 2.7567e-15 1.10445e-14 0 0 5.84528e-15 9.7168e-16 2.59205e-15 1.14314e-14 0 0 4.24171e-15 5.15526e-15 -1.28751e-15 1.23275e-14 0 0 2.22174e-15 7.30862e-15 -1.72739e-15 1.02277e-14 0 0 2.71944e-15 4.43868e-15 1.78038e-15 6.02463e-15 0 0 3.23353e-15 5.99533e-16 6.27953e-15 2.76572e-15 0 0 3.05812e-15 -7.66118e-16 8.13563e-15 -1.38698e-16 0 0 2.60237e-15 2.41496e-16 6.61681e-15 -1.85559e-15 0 0 2.16913e-15 2.71072e-15 2.6601e-15 -9.15544e-16 0 0 2.49378e-15 4.5065e-15 -1.09673e-15 1.35195e-15 0 0 2.41484e-15 1.69048e-15 -1.7729e-16 8.77744e-16 0 0 2.46478e-15 -5.36822e-16 7.69186e-16 -3.18467e-15 0 0 8.11367e-16 1.19229e-15 4.62891e-16 -7.39298e-15 0 0 -5.44921e-15 6.51032e-15 -4.88381e-15 -3.41809e-15 0 0 -8.70108e-15 2.63122e-15 -1.65377e-16 -3.79012e-15 0 0 -9.78749e-15 -7.4799e-16 2.95474e-15 -3.10763e-15 0 0 -4.57711e-15 -3.68356e-15 -5.86152e-15 5.74857e-15 0 0 1.03515e-16 -6.61362e-15 -6.83683e-15 5.48404e-15 0 0 -3.40646e-15 3.27021e-16 -5.16865e-15 9.6926e-16 0 0 -5.06952e-15 5.7654e-15 -1.17506e-14 2.86419e-15 0 0 -5.88053e-16 9.52274e-16 -8.9411e-15 -1.49126e-15 0 0 -2.85541e-16 8.57587e-16 -2.71007e-15 -9.97957e-15 0 0 1.01147e-15 4.19746e-15 -4.34935e-15 -1.62982e-14 0 0 2.38553e-15 2.41366e-15 -5.96737e-15 -1.25489e-14 0 0 -3.06134e-15 -5.8502e-15 5.43332e-15 -8.5387e-15 0 0 -9.74028e-15 -2.69258e-15 7.4907e-15 -9.45576e-15 0 0 -1.20741e-14 6.25322e-15 -4.9037e-15 -3.92577e-15 0 0 -3.87876e-15 -1.91002e-16 -2.65458e-15 -4.11787e-15 0 0 1.73545e-15 -9.99126e-15 4.73827e-15 -2.47119e-15 0 0 5.48714e-16 -1.27811e-14 3.57007e-15 4.15972e-15 0 0 4.52847e-15 -7.08529e-15 -6.39766e-15 1.27837e-14 0 0 3.89556e-15 3.9668e-15 -1.06582e-14 2.46448e-14 0 0 -6.67705e-15 1.63174e-14 -2.86947e-15 2.39055e-14 0 0 -3.06821e-16 1.71676e-14 4.72151e-15 1.18901e-14 0 0 1.02295e-14 1.92182e-14 4.67778e-15 -2.87014e-15 0 0 8.7901e-15 2.49122e-14 3.81286e-15 -8.0477e-15 0 0 1.26361e-14 1.37713e-14 1.12101e-14 9.35277e-15 0 0 5.08587e-15 2.8423e-15 1.10479e-14 1.82769e-14 0 0 -1.11438e-14 1.22687e-14 -6.57963e-15 1.40612e-14 0 0 -1.11957e-14 6.24321e-15 -1.18096e-15 6.0044e-15 0 0 1.29679e-15 9.12142e-15 -1.24081e-14 -1.63589e-15 0 0 -1.30041e-14 1.95986e-14 -3.22049e-14 -1.69034e-14 0 0 -4.83208e-14 1.73708e-14 -2.18875e-14 -5.32349e-14 0 0 -5.76681e-14 5.84101e-15 -3.69521e-14 -4.49755e-14 0 0 -2.1879e-14 -4.20835e-14 -2.61067e-14 -5.0872e-14 0 0 6.27183e-15 -5.4825e-14 -3.05687e-14 -5.59635e-14 0 0 -1.85936e-15 -4.2649e-14 -4.891e-14 -2.89181e-14 0 0 -6.96708e-15 -4.20715e-14 -2.77253e-14 -2.9301e-14 0 0 -1.05322e-14 -4.03347e-14 -2.19403e-14 -2.27908e-14 0 0 -1.57512e-14 -3.38434e-14 -2.46136e-14 -2.48982e-14 0 0 -5.85096e-15 -4.91914e-14 -1.15827e-14 -1.06097e-14 0 0 -3.63587e-15 -4.42737e-14 -6.00472e-15 1.92004e-15 0 0 -9.60048e-16 -2.93119e-14 -1.11728e-14 7.57504e-15 0 0 4.20911e-15 -3.78502e-14 -1.97085e-14 3.47973e-14 0 0 2.05244e-14 -4.30689e-14 -1.60484e-14 2.71312e-14 0 0 1.39225e-14 -3.57377e-14 1.2919e-14 -9.35646e-15 0 0 -1.76855e-14 -3.55873e-15 -6.34303e-15 -7.37859e-15 0 0 -4.92722e-15 -1.32923e-14 -3.71743e-14 2.34081e-14 0 0 -1.10227e-14 1.94516e-15 -4.52346e-14 2.66436e-14 0 0 -1.58277e-14 -1.18434e-16 -2.18805e-14 2.49669e-14 0 0 -8.60383e-15 -1.66031e-14 1.29958e-14 2.19389e-14 0 0 -6.44113e-15 4.35215e-15 2.23924e-14 -5.58873e-15 0 0 -2.25917e-14 -1.10894e-15 5.17981e-15 -7.6934e-15 0 0 -4.28114e-14 2.72656e-14 -4.43412e-14 1.96515e-14 0 0 -1.7322e-14 3.34416e-14 -3.62016e-14 2.75604e-14 0 0 3.32204e-14 -5.44338e-14 3.28073e-14 -4.03007e-15 0 0 1.72882e-14 -7.69777e-14 5.786e-14 -2.66489e-14 0 0 -4.33363e-14 -4.17656e-15 3.57846e-14 -5.40151e-15 0 0 -6.26935e-14 3.87769e-14 2.67862e-15 3.64564e-14 0 0 -1.41819e-14 2.04976e-16 2.13293e-14 4.51884e-14 0 0 2.05615e-14 -2.53612e-14 1.7632e-14 5.22906e-14 0 0 -1.09552e-14 -1.10284e-14 -2.03955e-14 6.7439e-14 0 0 -1.18987e-14 1.49818e-14 -2.69108e-14 4.48321e-14 0 0 9.14225e-15 1.09744e-15 2.23111e-15 4.26527e-15 0 0 2.12581e-14 -5.21852e-15 1.87917e-14 -4.90032e-14 0 0 2.07578e-14 3.12477e-14 -1.64955e-14 -4.39049e-14 0 0 3.86444e-15 1.01906e-14 -2.95082e-14 1.87318e-14 0 0 -1.48721e-15 2.52761e-14 -1.94941e-14 3.20829e-14 0 0 -2.85607e-15 3.92031e-14 -4.55882e-15 3.07967e-15 0 0 1.21149e-14 1.47141e-14 1.03641e-14 4.91947e-16 0 0 4.40925e-14 3.0237e-14 6.09299e-15 -4.32428e-15 0 0 1.93121e-14 1.00352e-14 3.63226e-14 -1.13888e-14 0 0 -1.24882e-14 1.06545e-14 1.60598e-14 1.68358e-14 0 0 -4.59358e-15 8.75248e-15 2.5749e-15 4.36e-14 0 0 1.28238e-14 1.82243e-14 -2.85139e-15 5.76317e-14 0 0 2.24406e-14 2.63988e-14 -1.80984e-14 2.89282e-14 0 0 5.51147e-15 1.76361e-15 -2.90195e-14 2.1143e-14 0 0 -3.24315e-15 -2.48376e-14 -4.42365e-14 -1.98288e-15 0 0 -2.06586e-14 -6.05998e-14 -6.43075e-14 -5.12893e-14 0 0 -5.88763e-14 -9.31699e-14 -1.08588e-13 -6.07555e-14 0 0 -8.07823e-14 -1.20793e-13 -1.07243e-13 -8.38303e-14 0 0 -7.51037e-14 -1.24677e-13 -1.22671e-13 -8.13153e-14 0 0 -6.49135e-14 -1.28917e-13 -1.10166e-13 -8.13764e-14 0 0 -6.42056e-14 -1.06818e-13 -8.42518e-14 -8.11954e-14 0 0 -5.14392e-14 -8.34405e-14 -7.36058e-14 -7.00132e-14 0 0 -4.63691e-14 -6.30538e-14 -6.26223e-14 -5.32391e-14 0 0 -4.09599e-14 -6.42238e-14 -7.74533e-14 -4.08392e-14 0 0 -3.67591e-14 -9.26706e-14 -1.04825e-13 -4.59937e-14 0 0 -8.97385e-14 -1.80145e-13 -1.72333e-13 -8.91295e-14 0 0 -8.71514e-14 -1.78995e-13 -1.87479e-13 -6.64356e-14 0 0 -1.07261e-13 -1.79814e-13 -1.778e-13 -8.61388e-14 0 0 -1.1486e-13 -2.09016e-13 -1.97651e-13 -1.42029e-13 0 0 -1.14026e-13 -2.21773e-13 -2.31222e-13 -1.27243e-13 0 0 -1.3207e-13 -1.92236e-13 -2.35215e-13 -1.01981e-13 0 0 -6.87935e-14 -1.34674e-13 -1.45722e-13 -1.12561e-13 0 0 9.88746e-14 7.95564e-14 5.87531e-14 4.03756e-14 0 0 2.80166e-13 3.44195e-13 3.29452e-13 2.62239e-13 0 0 4.14714e-13 6.0343e-13 5.67087e-13 3.93324e-13 0 0 5.0252e-13 7.73647e-13 7.00231e-13 5.05308e-13 0 0 5.35442e-13 8.24921e-13 7.9545e-13 5.31051e-13 0 0 5.26353e-13 8.31135e-13 8.26276e-13 4.61666e-13 0 0 5.4434e-13 8.0811e-13 7.55912e-13 4.32798e-13 0 0 5.21725e-13 7.75696e-13 7.03911e-13 4.16072e-13 0 0 4.44518e-13 7.39294e-13 6.70232e-13 3.77166e-13 0 0 4.11627e-13 6.60349e-13 6.16909e-13 3.42674e-13 0 0 3.88464e-13 5.93917e-13 5.33524e-13 3.02415e-13 0 0 3.44149e-13 5.50826e-13 4.60004e-13 2.76727e-13 0 0 3.31657e-13 4.74302e-13 4.22006e-13 3.25173e-13 0 0 2.92745e-13 4.443e-13 3.86567e-13 3.11384e-13 0 0 2.62983e-13 4.01624e-13 3.76382e-13 1.98615e-13 0 0 2.37394e-13 3.49741e-13 3.72197e-13 2.52778e-13 0 0 2.20835e-13 3.38056e-13 3.39329e-13 2.27839e-13 0 0 2.26623e-13 3.1434e-13 2.96927e-13 1.49697e-13 0 0 1.95315e-13 3.0706e-13 2.76919e-13 1.34945e-13 0 0 1.71361e-13 2.94145e-13 2.32654e-13 1.57628e-13 0 0 1.70098e-13 2.52587e-13 1.67955e-13 1.59144e-13 0 0 1.39562e-13 2.30875e-13 1.70575e-13 9.44211e-14 0 0 1.08895e-13 2.20223e-13 1.35324e-13 1.21542e-13 0 0 8.55515e-14 1.84665e-13 1.12741e-13 1.01472e-13 0 0 4.72773e-14 1.53612e-13 1.50432e-13 2.89725e-14 0 0 2.14645e-14 1.39631e-13 1.38727e-13 2.81975e-14 0 0 2.22646e-14 9.78525e-14 1.35774e-13 2.80881e-15 0 0 2.77417e-14 4.03887e-14 9.66614e-14 3.79156e-14 0 0 1.24958e-14 7.54235e-15 6.01521e-14 4.96774e-14 0 0 -8.94676e-15 -1.24046e-14 3.91571e-14 -2.11048e-14 0 0 -1.7848e-14 -1.12339e-14 -1.24626e-14 -8.32346e-15 0 0 -3.11088e-14 -1.20882e-14 -7.09815e-14 1.33394e-15 0 0 -7.62885e-14 -4.47612e-14 -8.39469e-14 -1.00851e-14 0 0 -1.07359e-13 -4.8755e-14 -1.30963e-13 -4.53368e-14 0 0 -1.25821e-13 -6.22381e-14 -1.70467e-13 -6.26727e-14 0 0 -1.22754e-13 -1.25087e-13 -1.73342e-13 -1.08947e-13 0 0 -1.09216e-13 -1.71748e-13 -1.709e-13 -1.44351e-13 0 0 -1.08211e-13 -2.20161e-13 -1.66563e-13 -1.68075e-13 0 0 -1.30944e-13 -2.50875e-13 -1.80379e-13 -1.957e-13 0 0 -1.74698e-13 -2.39309e-13 -2.09226e-13 -1.68718e-13 0 0 -1.78945e-13 -2.42138e-13 -2.41022e-13 -1.64038e-13 0 0 -2.34416e-13 -2.6004e-13 -2.19811e-13 -1.61806e-13 0 0 -2.92083e-13 -2.63612e-13 -2.01125e-13 -2.24839e-13 0 0 -2.27166e-13 -3.49355e-13 -1.96213e-13 -2.39221e-13 0 0 -1.4146e-13 -4.5764e-13 -2.09365e-13 -1.61242e-13 0 0 -1.42225e-13 -4.47971e-13 -2.32733e-13 -1.86212e-13 0 0 -2.30714e-13 -3.66177e-13 -2.81432e-13 -2.44135e-13 0 0 -2.8964e-13 -3.1119e-13 -3.28571e-13 -2.47806e-13 0 0 -2.46665e-13 -3.97417e-13 -3.33737e-13 -1.97328e-13 0 0 -2.00577e-13 -4.44605e-13 -2.86668e-13 -2.14045e-13 0 0 -2.37631e-13 -3.56909e-13 -1.35009e-13 -1.34333e-13 0 0 -2.27037e-13 -3.29127e-13 -1.82766e-13 -2.25046e-14 0 0 -1.67613e-13 -3.17995e-13 -2.51304e-13 6.78267e-15 0 0 -1.68002e-13 -2.81423e-13 -2.11552e-13 2.1556e-14 0 0 -1.51072e-13 -2.14052e-13 -2.20877e-13 -7.02697e-14 0 0 -1.19456e-13 -1.75096e-13 -1.27459e-13 -9.50505e-14 0 0 -1.00741e-13 -1.60658e-13 -6.4523e-14 -1.13446e-13 0 0 -7.12225e-14 -1.23007e-13 -8.69658e-14 -6.62347e-14 0 0 -5.11923e-14 -9.10583e-14 -1.05592e-13 2.21562e-14 0 0 -5.14218e-14 -7.72658e-14 -7.28518e-14 -5.26202e-14 0 0 -4.43214e-14 -9.00498e-14 -6.61476e-14 -4.75191e-14 0 0 -3.49671e-14 -8.37521e-14 -9.11835e-14 3.352e-15 0 0 -1.66155e-14 -9.31933e-14 -7.89144e-14 -3.07711e-14 0 0 -1.10945e-14 -1.1343e-13 -4.74597e-14 -6.81703e-14 0 0 -2.54804e-14 -8.71434e-14 -7.34915e-14 -1.03108e-13 0 0 -2.54039e-14 -8.26562e-14 -8.59178e-14 -9.23537e-14 0 0 -2.18046e-14 -9.7048e-14 -7.58979e-14 -7.81128e-14 0 0 -3.64439e-14 -5.94964e-14 -1.08766e-13 -5.30732e-14 0 0 -4.74236e-14 -3.69006e-14 -1.16983e-13 -3.62418e-14 0 0 -3.14013e-14 -5.1867e-14 -1.15336e-13 -4.19837e-14 0 0 -1.50708e-14 -6.14242e-14 -1.05364e-13 -1.26101e-15 0 0 -2.84205e-14 -3.65483e-14 -8.54225e-14 4.9421e-15 0 0 -4.93168e-14 -1.03734e-14 -5.49735e-14 -5.48016e-14 0 0 -4.21174e-14 -5.11582e-14 -1.96214e-15 -6.17175e-14 0 0 -1.80041e-14 -8.12252e-14 2.36368e-14 -3.9143e-14 0 0 -2.46289e-14 -3.90017e-14 -2.72889e-14 -2.19861e-14 0 0 -2.21717e-14 -2.85243e-14 -4.61107e-14 -1.48694e-15 0 0 -7.46243e-15 -2.40628e-14 -1.25248e-14 -4.85625e-14 0 0 -4.49291e-16 -1.04053e-14 1.43585e-14 -9.46888e-14 0 0 1.76824e-15 -1.06613e-14 1.3481e-14 -5.91728e-14 0 0 2.02162e-14 -4.09826e-14 4.69478e-14 -1.57591e-14 0 0 2.61477e-14 -3.50346e-14 6.30759e-14 1.97031e-14 0 0 9.04651e-15 -4.30769e-14 5.07531e-14 5.57076e-14 0 0 1.55924e-14 -7.77149e-14 -1.52408e-14 8.90628e-14 0 0 -2.77118e-14 5.88919e-15 -1.18665e-13 5.55008e-14 0 0 -4.80644e-15 -3.33508e-14 -3.90503e-14 -6.31556e-14 0 0 1.80605e-14 -7.40086e-14 -1.66938e-14 -4.90118e-14 0 0 -2.65265e-14 -1.46693e-14 -4.21066e-14 -2.16474e-14 0 0 -1.50581e-14 1.51782e-15 -3.81628e-14 -1.93747e-14 0 0 1.62586e-14 -4.10714e-14 -3.14885e-15 -5.01175e-14 0 0 3.40098e-14 -7.01194e-14 4.98733e-15 -1.03461e-13 0 0 -4.93384e-15 -1.96016e-14 -4.53079e-14 -7.59827e-14 0 0 0 0 0 0 0
				</DataArray>
				<DataArray Name="VitesseY" type="Float32" format="ascii">
 0 0 0 0 0 0 0 2.57469e-15 1.46008e-15 1.92839e-15 6.5754e-15 0 0 2.52316e-15 1.27446e-15 5.29022e-15 9.78618e-15 0 0 4.84007e-15 4.42063e-15 3.74103e-16 5.17611e-15 0 0 7.804e-15 1.10551e-14 6.44638e-15 2.75058e-15 0 0 3.33818e-15 1.10205e-14 1.63257e-14 8.12215e-15 0 0 1.24504e-14 6.68854e-15 7.21004e-15 5.1712e-15 0 0 9.0277e-15 5.76277e-15 6.85611e-15 6.00761e-15 0 0 7.00745e-15 -3.49951e-15 -1.63255e-15 4.04825e-15 0 0 3.20064e-15 6.99915e-15 7.65665e-15 -2.51742e-15 0 0 5.80484e-15 3.72088e-15 1.47327e-15 -1.6648e-15 0 0 -1.68683e-15 8.28263e-15 4.84141e-15 -3.30913e-15 0 0 4.54816e-15 3.29721e-15 -1.30063e-15 1.66309e-15 0 0 1.25732e-14 2.56981e-15 -2.98684e-16 -1.93168e-15 0 0 9.16923e-15 9.53008e-15 7.15857e-15 -3.30557e-15 0 0 1.74556e-15 1.7305e-15 9.27631e-15 2.2612e-15 0 0 -4.59312e-15 -6.59719e-15 -1.48831e-14 -1.38393e-14 0 0 9.96496e-15 -1.5257e-14 -4.11252e-15 1.21675e-14 0 0 1.05114e-15 8.41258e-15 -3.43832e-15 -4.6559e-15 0 0 1.71856e-14 1.85575e-14 -1.62049e-14 -1.50907e-14 0 0 -1.80755e-16 5.78982e-15 2.47961e-14 1.90591e-14 0 0 -6.13995e-15 2.20828e-15 1.72776e-14 1.17146e-14 0 0 1.55022e-14 2.21991e-14 2.50823e-15 -1.05749e-14 0 0 1.58841e-14 7.83253e-15 1.91489e-14 2.64432e-14 0 0 9.6079e-16 1.01581e-14 2.35458e-14 6.51518e-15 0 0 1.30389e-14 2.2128e-14 1.61712e-14 8.53065e-16 0 0 2.44023e-14 1.32373e-14 5.66352e-15 2.98085e-14 0 0 2.00122e-14 -2.38527e-14 -3.83572e-15 3.36411e-14 0 0 -1.08065e-14 1.83329e-14 1.9838e-14 -1.32286e-14 0 0 2.44973e-14 2.11884e-14 6.90803e-15 1.2391e-14 0 0 -5.22791e-15 4.5751e-15 2.36511e-15 5.26121e-15 0 0 2.34927e-14 -3.3295e-15 -1.10301e-14 2.22251e-14 0 0 9.91183e-15 2.11758e-14 1.26217e-14 1.22315e-15 0 0 2.31898e-14 5.06558e-14 4.20041e-14 4.81693e-14 0 0 1.30744e-14 2.71959e-14 6.32182e-14 8.73328e-14 0 0 2.44075e-14 1.71185e-14 6.17935e-14 6.60878e-14 0 0 3.83832e-14 7.42382e-14 6.32054e-14 4.14539e-14 0 0 3.43702e-14 4.88434e-14 6.77953e-14 3.00129e-14 0 0 7.87544e-14 8.14512e-14 8.15924e-14 9.49992e-14 0 0 2.12635e-13 1.80473e-13 1.65272e-13 2.51351e-13 0 0 1.05837e-12 1.01622e-12 9.87602e-13 9.3638e-13 0 0 6.58257e-12 6.5977e-12 6.59395e-12 6.55742e-12 0 0 3.98272e-11 3.97876e-11 3.97892e-11 3.98152e-11 0 0 2.29481e-10 2.29582e-10 2.29548e-10 2.29446e-10 0 0 1.25595e-09 1.25583e-09 1.25583e-09 1.25579e-09 0 0 6.51187e-09 6.51184e-09 6.51187e-09 6.51181e-09 0 0 3.1918e-08 3.1918e-08 3.19179e-08 3.19179e-08 0 0 1.4754e-07 1.4754e-07 1.4754e-07 1.4754e-07 0 0 6.414e-07 6.414e-07 6.414e-07 6.414e-07 0 0 2.6141e-06 2.6141e-06 2.6141e-06 2.6141e-06 0 0 9.95215e-06 9.95215e-06 9.95215e-06 9.95215e-06 0 0 3.52437e-05 3.52437e-05 3.52437e-05 3.52437e-05 0 0 0.000115523 0.000115523 0.000115523 0.000115523 0 0 0.000348475 0.000348475 0.000348475 0.000348475 0 0 0.000960989 0.000960989 0.000960989 0.000960989 0 0 0.0024057 0.0024057 0.0024057 0.0024057 0 0 0.00543116 0.00543116 0.00543116 0.00543116 0 0 0.0110103 0.0110103 0.0110103 0.0110103 0 0 0.0200446 0.0200446 0.0200446 0.0200446 0 0 0.0329674 0.0329674 0.0329674 0.0329674 0 0 0.0495586 0.0495586 0.0495586 0.0495586 0 0 0.0691338 0.0691338 0.0691338 0.0691338 0 0 0.0909135 0.0909135 0.0909135 0.0909135 0 0 0.114283 0.114283 0.114283 0.114283 0 0 0.138853 0.138853 0.138853 0.138853 0 0 0.164413 0.164413 0.164413 0.164413 0 0 0.190856 0.190856 0.190856 0.190856 0 0 0.218139 0.218139 0.218139 0.218139 0 0 0.246247 0.246247 0.246247 0.246247 0 0 0.275189 0.275189 0.275189 0.275189 0 0 0.304982 0.304982 0.304982 0.304982 0 0 0.335658 0.335658 0.335658 0.335658 0 0 0.367251 0.367251 0.367251 0.367251 0 0 0.399806 0.399806 0.399806 0.399806 0 0 0.433372 0.433372 0.433372 0.433372 0 0 0.468003 0.468003 0.468003 0.468003 0 0 0.503759 0.503759 0.503759 0.503759 0 0 0.540705 0.540705 0.540705 0.540705 0 0 0.578906 0.578906 0.578906 0.578906 0 0 0.618427 0.618427 0.618427 0.618427 0 0 0.659326 0.659326 0.659326 0.659326 0 0 0.701639 0.701639 0.701639 0.701639 0 0 0.74535 0.74535 0.74535 0.74535 0 0 0.790329 0.790329 0.790329 0.790329 0 0 0.836174 0.836174 0.836174 0.836174 0 0 0.88181 0.88181 0.88181 0.88181 0 0 0.924347 0.924347 0.924347 0.924347 0 0 0.955932 0.955932 0.955932 0.955932 0 0 0.959749 0.959749 0.959749 0.959749 0 0 0.951028 0.951028 0.951028 0.951028 0 0 0.94276 0.94276 0.94276 0.94276 0 0 0.936033 0.936033 0.936033 0.936033 0 0 0.931532 0.931532 0.931532 0.931532 0 0 0.929029 0.929029 0.929029 0.929029 0 0 0.927797 0.927797 0.927797 0.927797 0 0 0.927212 0.927212 0.927212 0.927212 0 0 0.926932 0.926932 0.926932 0.926932 0 0 0.926813 0.926813 0.926813 0.926813 0 0 0.926748 0.926748 0.926748 0.926748 0 0 0.926632 0.926632 0.926632 0.926632 0 0 0.926456 0.926456 0.926456 0.926456 0 0 0.926418 0.926418 0.926418 0.926418 0 0 0.926383 0.926383 0.926383 0.926383 0 0 0.926351 0.926351 0.926351 0.926351 0 0 0.926325 0.926325 0.926325 0.926325 0 0 0.926305 0.926305 0.926305 0.926305 0 0 0.926292 0.926292 0.926292 0.926292 0 0 0.926285 0.926285 0.926285 0.926285 0 0 0.926283 0.926283 0.926283 0.926283 0 0 0.926297 0.926297 0.926297 0.926297 0 0 0.926343 0.926343 0.926343 0.926343 0 0 0.926388 0.926388 0.926388 0.926388 0 0 0.926382 0.926382 0.926382 0.926382 0 0 0.926387 0.926387 0.926387 0.926387 0 0 0.926391 0.926391 0.926391 0.926391 0 0 0.926415 0.926415 0.926415 0.926415 0 0 0.926497 0.926497 0.926497 0.926497 0 0 0.926631 0.926631 0.926631 0.926631 0 0 0.926727 0.926727 0.926727 0.926727 0 0 0.926656 0.926656 0.926656 0.926656 0 0 0.926623 0.926623 0.926623 0.926623 0 0 0.926582 0.926582 0.926582 0.926582 0 0 0.926529 0.926529 0.926529 0.926529 0 0 0.926477 0.926477 0.926477 0.926477 0 0 0.926418 0.926418 0.926418 0.926418 0 0 0.926355 0.926355 0.926355 0.926355 0 0 0.926283 0.926283 0.926283 0.926283 0 0 0.926204 0.926204 0.926204 0.926204 0 0 0.926124 0.926124 0.926124 0.926124 0 0 0.926049 0.926049 0.926049 0.926049 0 0 0.925994 0.925994 0.925994 0.925994 0 0 0.925965 0.925965 0.925965 0.925965 0 0 0.925975 0.925975 0.925975 0.925975 0 0 0.926275 0.926275 0.926275 0.926275 0 0 0.92683 0.92683 0.92683 0.92683 0 0 0.926493 0.926493 0.926493 0.926493 0 0 0.92631 0.92631 0.92631 0.92631 0 0 0.926079 0.926079 0.926079 0.926079 0 0 0.925817 0.925817 0.925817 0.925817 0 0 0.925664 0.925664 0.925664 0.925664 0 0 0.925603 0.925603 0.925603 0.925603 0 0 0.925687 0.925687 0.925687 0.925687 0 0 0.925872 0.925872 0.925872 0.925872 0 0 0.925791 0.925791 0.925791 0.925791 0 0 0.925654 0.925654 0.925654 0.925654 0 0 0.925689 0.925689 0.925689 0.925689 0 0 0.926466 0.926466 0.926466 0.926466 0 0 0.926791 0.926791 0.926791 0.926791 0 0 0.925426 0.925426 0.925426 0.925426 0 0 0.924155 0.924155 0.924155 0.924155 0 0 0.922826 0.922826 0.922826 0.922826 0 0 0.923202 0.923202 0.923202 0.923202 0 0 0.922172 0.922172 0.922172 0.922172 0 0 0.928128 0.928128 0.928128 0.928128 0 0 0.918141 0.918141 0.918141 0.918141 0 0 0.900148 0.900148 0.900148 0.900148 0 0 0.907704 0.907704 0.907704 0.907704 0 0 0.847302 0.847302 0.847302 0.847302 0 0 0.795348 0.795348 0.795348 0.795348 0 0 0.791877 0.791877 0.791877 0.791877 0 0 0.672998 0.672998 0.672998 0.672998 0 0 0.598306 0.598306 0.598306 0.598306 0 0 0.470243 0.470243 0.470243 0.470243 0 0 0.349601 0.349601 0.349601 0.349601 0 0 0.229576 0.229576 0.229576 0.229576 0 0 0.131572 0.131572 0.131572 0.131572 0 0 0.0644753 0.0644753 0.0644753 0.0644753 0 0 0.027539 0.027539 0.027539 0.027539 0 0 0.0107515 0.0107515 0.0107515 0.0107515 0 0 0.00401418 0.00401418 0.00401418 0.00401418 0 0 0.00147068 0.00147068 0.00147068 0.00147068 0 0 0.000534678 0.000534678 0.000534678 0.000534678 0 0 0.000193713 0.000193713 0.000193713 0.000193713 0 0 7.00382e-05 7.00382e-05 7.00382e-05 7.00382e-05 0 0 2.52799e-05 2.52799e-05 2.52799e-05 2.52799e-05 0 0 9.10844e-06 9.10844e-06 9.10844e-06 9.10844e-06 0 0 3.27508e-06 3.27508e-06 3.27508e-06 3.27508e-06 0 0 1.17474e-06 1.17474e-06 1.17474e-06 1.17474e-06 0 0 4.20162e-07 4.20162e-07 4.20162e-07 4.20162e-07 0 0 1.49772e-07 1.49772e-07 1.49772e-07 1.49772e-07 0 0 5.31815e-08 5.31814e-08 5.31815e-08 5.31815e-08 0 0 1.88008e-08 1.88007e-08 1.88006e-08 1.88008e-08 0 0 6.6136e-09 6.61367e-09 6.61374e-09 6.61373e-09 0 0 2.31382e-09 2.3139e-09 2.31379e-09 2.31367e-09 0 0 8.04649e-10 8.0462e-10 8.04697e-10 8.04829e-10 0 0 2.78017e-10 2.78123e-10 2.78198e-10 2.78012e-10 0 0 9.54402e-11 9.54173e-11 9.5504e-11 9.56128e-11 0 0 3.25819e-11 3.26128e-11 3.2522e-11 3.25518e-11 0 0 1.10257e-11 1.09473e-11 1.10507e-11 1.13277e-11 0 0 3.67825e-12 3.80384e-12 3.78791e-12 3.71682e-12 0 0 1.33679e-12 1.11077e-12 1.04549e-12 1.21224e-12 0 0 4.11582e-13 5.24587e-13 1.86596e-13 -1.11032e-13 0 0 -3.21188e-14 1.55901e-14 2.75014e-13 2.4535e-14 0 0 1.39889e-13 2.74212e-14 -7.02568e-14 2.427e-14 0 0 -8.7208e-14 -4.58429e-14 -2.2411e-14 2.86276e-14 0 0 -7.67834e-15 9.84882e-15 1.21724e-13 7.92062e-14 0 0 -2.6237e-14 6.70551e-14 3.63865e-14 1.03699e-13 0 0 1.05145e-13 -3.38603e-14 -3.37289e-14 -8.46447e-14 0 0 -1.14187e-15 9.23762e-14 8.29539e-15 -1.20867e-13 0 0 -1.37503e-14 -6.05728e-14 2.34906e-14 6.14276e-14 0 0 0 0 0 0 0
				</DataArray>
			</PointData>