<?xml version="1.0"?>
<VTKFile type="PolyData">
	<PolyData>
		<Piece NumberOfPoints="1206" NumberOfPolys="1000">
			<Points>
				<DataArray type="Float32" NumberOfComponents="3" format="ascii">
 0 0 0 0.02 0 0 0.04 0 0 0.06 0 0 0.08 0 0 0.1 0 0 0 0.005 0 0.02 0.005 0 0.04 0.005 0 0.06 0.005 0 0.08 0.005 0 0.1 0.005 0 0 0.01 0 0.02 0.01 0 0.04 0.01 0 0.06 0.01 0 0.08 0.01 0 0.1 0.01 0 0 0.015 0 0.02 0.015 0 0.04 0.015 0 0.06 0.015 0 0.08 0.015 0 0.1 0.015 0 0 0.02 0 0.02 0.02 0 0.04 0.02 0 0.06 0.02 0 0.08 0.02 0 0.1 0.02 0 0 0.025 0 0.02 0.025 0 0.04 0.025 0 0.06 0.025 0 0.08 0.025 0 0.1 0.025 0 0 0.03 0 0.02 0.03 0 0.04 0.03 0 0.06 0.03 0 0.08 0.03 0 0.1 0.03 0 0 0.035 0 0.02 0.035 0 0.04 0.035 0 0.06 0.035 0 0.08 0.035 0 0.1 0.035 0 0 0.04 0 0.02 0.04 0 0.04 0.04 0 0.06 0.04 0 0.08 0.04 0 0.1 0.04 0 0 0.045 0 0.02 0.045 0 0.04 0.045 0 0.06 0.045 0 0.08 0.045 0 0.1 0.045 0 0 0.05 0 0.02 0.05 0 0.04 0.05 0 0.06 0.05 0 0.08 0.05 0 0.1 0.05 0 0 0.055 0 0.02 0.055 0 0.04 0.055 0 0.06 0.055 0 0.08 0.055 0 0.1 0.055 0 0 0.06 0 0.02 0.06 0 0.04 0.06 0 0.06 0.06 0 0.08 0.06 0 0.1 0.06 0 0 0.065 0 0.02 0.065 0 0.04 0.065 0 0.06 0.065 0 0.08 0.065 0 0.1 0.065 0 0 0.07 0 0.02 0.07 0 0.04 0.07 0 0.06 0.07 0 0.08 0.07 0 0.1 0.07 0 0 0.075 0 0.02 0.075 0 0.04 0.075 0 0.06 0.075 0 0.08 0.075 0 0.1 0.075 0 0 0.08 0 0.02 0.08 0 0.04 0.08 0 0.06 0.08 0 0.08 0.08 0 0.1 0.08 0 0 0.085 0 0.02 0.085 0 0.04 0.085 0 0.06 0.085 0 0.08 0.085 0 0.1 0.085 0 0 0.09 0 0.02 0.09 0 0.04 0.09 0 0.06 0.09 0 0.08 0.09 0 0.1 0.09 0 0 0.095 0 0.02 0.095 0 0.04 0.095 0 0.06 0.095 0 0.08 0.095 0 0.1 0.095 0 0 0.1 0 0.02 0.1 0 0.04 0.1 0 0.06 0.1 0 0.08 0.1 0 0.1 0.1 0 0 0.105 0 0.02 0.105 0 0.04 0.105 0 0.06 0.105 0 0.08 0.105 0 0.1 0.105 0 0 0.11 0 0.02 0.11 0 0.04 0.11 0 0.06 0.11 0 0.08 0.11 0 0.1 0.11 0 0 0.115 0 0.02 0.115 0 0.04 0.115 0 0.06 0.115 0 0.08 0.115 0 0.1 0.115 0 0 0.12 0 0.02 0.12 0 0.04 0.12 0 0.06 0.12 0 0.08 0.12 0 0.1 0.12 0 0 0.125 0 0.02 0.125 0 0.04 0.125 0 0.06 0.125 0 0.08 0.125 0 0.1 0.125 0 0 0.13 0 0.02 0.13 0 0.04 0.13 0 0.06 0.13 0 0.08 0.13 0 0.1 0.13 0 0 0.135 0 0.02 0.135 0 0.04 0.135 0 0.06 0.135 0 0.08 0.135 0 0.1 0.135 0 0 0.14 0 0.02 0.14 0 0.04 0.14 0 0.06 0.14 0 0.08 0.14 0 0.1 0.14 0 0 0.145 0 0.02 0.145 0 0.04 0.145 0 0.06 0.145 0 0.08 0.145 0 0.1 0.145 0 0 0.15 0 0.02 0.15 0 0.04 0.15 0 0.06 0.15 0 0.08 0.15 0 0.1 0.15 0 0 0.155 0 0.02 0.155 0 0.04 0.155 0 0.06 0.155 0 0.08 0.155 0 0.1 0.155 0 0 0.16 0 0.02 0.16 0 0.04 0.16 0 0.06 0.16 0 0.08 0.16 0 0.1 0.16 0 0 0.165 0 0.02 0.165 0 0.04 0.165 0 0.06 0.165 0 0.08 0.165 0 0.1 0.165 0 0 0.17 0 0.02 0.17 0 0.04 0.17 0 0.06 0.17 0 0.08 0.17 0 0.1 0.17 0 0 0.175 0 0.02 0.175 0 0.04 0.175 0 0.06 0.175 0 0.08 0.175 0 0.1 0.175 0 0 0.18 0 0.02 0.18 0 0.04 0.18 0 0.06 0.18 0 0.08 0.18 0 0.1 0.18 0 0 0.185 0 0.02 0.185 0 0.04 0.185 0 0.06 0.185 0 0.08 0.185 0 0.1 0.185 0 0 0.19 0 0.02 0.19 0 0.04 0.19 0 0.06 0.19 0 0.08 0.19 0 0.1 0.19 0 0 0.195 0 0.02 0.195 0 0.04 0.195 0 0.06 0.195 0 0.08 0.195 0 0.1 0.195 0 0 0.2 0 0.02 0.2 0 0.04 0.2 0 0.06 0.2 0 0.08 0.2 0 0.1 0.2 0 0 0.205 0 0.02 0.205 0 0.04 0.205 0 0.06 0.205 0 0.08 0.205 0 0.1 0.205 0 0 0.21 0 0.02 0.21 0 0.04 0.21 0 0.06 0.21 0 0.08 0.21 0 0.1 0.21 0 0 0.215 0 0.02 0.215 0 0.04 0.215 0 0.06 0.215 0 0.08 0.215 0 0.1 0.215 0 0 0.22 0 0.02 0.22 0 0.04 0.22 0 0.06 0.22 0 0.08 0.22 0 0.1 0.22 0 0 0.225 0 0.02 0.225 0 0.04 0.225 0 0.06 0.225 0 0.08 0.225 0 0.1 0.225 0 0 0.23 0 0.02 0.23 0 0.04 0.23 0 0.06 0.23 0 0.08 0.23 0 0.1 0.23 0 0 0.235 0 0.02 0.235 0 0.04 0.235 0 0.06 0.235 0 0.08 0.235 0 0.1 0.235 0 0 0.24 0 0.02 0.24 0 0.04 0.24 0 0.06 0.24 0 0.08 0.24 0 0.1 0.24 0 0 0.245 0 0.02 0.245 0 0.04 0.245 0 0.06 0.245 0 0.08 0.245 0 0.1 0.245 0 0 0.25 0 0.02 0.25 0 0.04 0.25 0 0.06 0.25 0 0.08 0.25 0 0.1 0.25 0 0 0.255 0 0.02 0.255 0 0.04 0.255 0 0.06 0.255 0 0.08 0.255 0 0.1 0.255 0 0 0.26 0 0.02 0.26 0 0.04 0.26 0 0.06 0.26 0 0.08 0.26 0 0.1 0.26 0 0 0.265 0 0.02 0.265 0 0.04 0.265 0 0.06 0.265 0 0.08 0.265 0 0.1 0.265 0 0 0.27 0 0.02 0.27 0 0.04 0.27 0 0.06 0.27 0 0.08 0.27 0 0.1 0.27 0 0 0.275001 0 0.02 0.275001 0 0.04 0.275001 0 0.06 0.275001 0 0.08 0.275001 0 0.1 0.275001 0 0 0.280002 0 0.02 0.280002 0 0.04 0.280002 0 0.06 0.280002 0 0.08 0.280002 0 0.1 0.280002 0 0 0.285007 0 0.02 0.285007 0 0.04 0.285007 0 0.06 0.285007 0 0.08 0.285007 0 0.1 0.285007 0 0 0.290018 0 0.02 0.290018 0 0.04 0.290018 0 0.06 0.290018 0 0.08 0.290018 0 0.1 0.290018 0 0 0.295043 0 0.02 0.295043 0 0.04 0.295043 0 0.06 0.295043 0 0.08 0.295043 0 0.1 0.295043 0 0 0.300094 0 0.02 0.300094 0 0.04 0.300094 0 0.06 0.300094 0 0.08 0.300094 0 0.1 0.300094 0 0 0.305188 0 0.02 0.305188 0 0.04 0.305188 0 0.06 0.305188 0 0.08 0.305188 0 0.1 0.305188 0 0 0.310345 0 0.02 0.310345 0 0.04 0.310345 0 0.06 0.310345 0 0.08 0.310345 0 0.1 0.310345 0 0 0.315581 0 0.02 0.315581 0 0.04 0.315581 0 0.06 0.315581 0 0.08 0.315581 0 0.1 0.315581 0 0 0.320913 0 0.02 0.320913 0 0.04 0.320913 0 0.06 0.320913 0 0.08 0.320913 0 0.1 0.320913 0 0 0.326353 0 0.02 0.326353 0 0.04 0.326353 0 0.06 0.326353 0 0.08 0.326353 0 0.1 0.326353 0 0 0.331913 0 0.02 0.331913 0 0.04 0.331913 0 0.06 0.331913 0 0.08 0.331913 0 0.1 0.331913 0 0 0.337602 0 0.02 0.337602 0 0.04 0.337602 0 0.06 0.337602 0 0.08 0.337602 0 0.1 0.337602 0 0 0.343428 0 0.02 0.343428 0 0.04 0.343428 0 0.06 0.343428 0 0.08 0.343428 0 0.1 0.343428 0 0 0.3494 0 0.02 0.3494 0 0.04 0.3494 0 0.06 0.3494 0 0.08 0.3494 0 0.1 0.3494 0 0 0.35553 0 0.02 0.35553 0 0.04 0.35553 0 0.06 0.35553 0 0.08 0.35553 0 0.1 0.35553 0 0 0.361825 0 0.02 0.361825 0 0.04 0.361825 0 0.06 0.361825 0 0.08 0.361825 0 0.1 0.361825 0 0 0.368298 0 0.02 0.368298 0 0.04 0.368298 0 0.06 0.368298 0 0.08 0.368298 0 0.1 0.368298 0 0 0.37496 0 0.02 0.37496 0 0.04 0.37496 0 0.06 0.37496 0 0.08 0.37496 0 0.1 0.37496 0 0 0.381824 0 0.02 0.381824 0 0.04 0.381824 0 0.06 0.381824 0 0.08 0.381824 0 0.1 0.381824 0 0 0.388905 0 0.02 0.388905 0 0.04 0.388905 0 0.06 0.388905 0 0.08 0.388905 0 0.1 0.388905 0 0 0.396219 0 0.02 0.396219 0 0.04 0.396219 0 0.06 0.396219 0 0.08 0.396219 0 0.1 0.396219 0 0 0.403782 0 0.02 0.403782 0 0.04 0.403782 0 0.06 0.403782 0 0.08 0.403782 0 0.1 0.403782 0 0 0.411615 0 0.02 0.411615 0 0.04 0.411615 0 0.06 0.411615 0 0.08 0.411615 0 0.1 0.411615 0 0 0.419739 0 0.02 0.419739 0 0.04 0.419739 0 0.06 0.419739 0 0.08 0.419739 0 0.1 0.419739 0 0 0.428178 0 0.02 0.428178 0 0.04 0.428178 0 0.06 0.428178 0 0.08 0.428178 0 0.1 0.428178 0 0 0.43696 0 0.02 0.43696 0 0.04 0.43696 0 0.06 0.43696 0 0.08 0.43696 0 0.1 0.43696 0 0 0.446115 0 0.02 0.446115 0 0.04 0.446115 0 0.06 0.446115 0 0.08 0.446115 0 0.1 0.446115 0 0 0.455677 0 0.02 0.455677 0 0.04 0.455677 0 0.06 0.455677 0 0.08 0.455677 0 0.1 0.455677 0 0 0.465681 0 0.02 0.465681 0 0.04 0.465681 0 0.06 0.465681 0 0.08 0.465681 0 0.1 0.465681 0 0 0.476166 0 0.02 0.476166 0 0.04 0.476166 0 0.06 0.476166 0 0.08 0.476166 0 0.1 0.476166 0 0 0.487164 0 0.02 0.487164 0 0.04 0.487164 0 0.06 0.487164 0 0.08 0.487164 0 0.1 0.487164 0 0 0.498685 0 0.02 0.498685 0 0.04 0.498685 0 0.06 0.498685 0 0.08 0.498685 0 0.1 0.498685 0 0 0.510661 0 0.02 0.510661 0 0.04 0.510661 0 0.06 0.510661 0 0.08 0.510661 0 0.1 0.510661 0 0 0.522827 0 0.02 0.522827 0 0.04 0.522827 0 0.06 0.522827 0 0.08 0.522827 0 0.1 0.522827 0 0 0.534907 0 0.02 0.534907 0 0.04 0.534907 0 0.06 0.534907 0 0.08 0.534907 0 0.1 0.534907 0 0 0.546883 0 0.02 0.546883 0 0.04 0.546883 0 0.06 0.546883 0 0.08 0.546883 0 0.1 0.546883 0 0 0.55876 0 0.02 0.55876 0 0.04 0.55876 0 0.06 0.55876 0 0.08 0.55876 0 0.1 0.55876 0 0 0.570567 0 0.02 0.570567 0 0.04 0.570567 0 0.06 0.570567 0 0.08 0.570567 0 0.1 0.570567 0 0 0.582332 0 0.02 0.582332 0 0.04 0.582332 0 0.06 0.582332 0 0.08 0.582332 0 0.1 0.582332 0 0 0.594076 0 0.02 0.594076 0 0.04 0.594076 0 0.06 0.594076 0 0.08 0.594076 0 0.1 0.594076 0 0 0.605811 0 0.02 0.605811 0 0.04 0.605811 0 0.06 0.605811 0 0.08 0.605811 0 0.1 0.605811 0 0 0.617542 0 0.02 0.617542 0 0.04 0.617542 0 0.06 0.617542 0 0.08 0.617542 0 0.1 0.617542 0 0 0.629272 0 0.02 0.629272 0 0.04 0.629272 0 0.06 0.629272 0 0.08 0.629272 0 0.1 0.629272 0 0 0.641005 0 0.02 0.641005 0 0.04 0.641005 0 0.06 0.641005 0 0.08 0.641005 0 0.1 0.641005 0 0 0.652752 0 0.02 0.652752 0 0.04 0.652752 0 0.06 0.652752 0 0.08 0.652752 0 0.1 0.652752 0 0 0.655361 0 0.02 0.655361 0 0.04 0.655361 0 0.06 0.655361 0 0.08 0.655361 0 0.1 0.655361 0 0 0.657898 0 0.02 0.657898 0 0.04 0.657898 0 0.06 0.657898 0 0.08 0.657898 0 0.1 0.657898 0 0 0.660388 0 0.02 0.660388 0 0.04 0.660388 0 0.06 0.660388 0 0.08 0.660388 0 0.1 0.660388 0 0 0.662848 0 0.02 0.662848 0 0.04 0.662848 0 0.06 0.662848 0 0.08 0.662848 0 0.1 0.662848 0 0 0.665287 0 0.02 0.665287 0 0.04 0.665287 0 0.06 0.665287 0 0.08 0.665287 0 0.1 0.665287 0 0 0.66771 0 0.02 0.66771 0 0.04 0.66771 0 0.06 0.66771 0 0.08 0.66771 0 0.1 0.66771 0 0 0.670124 0 0.02 0.670124 0 0.04 0.670124 0 0.06 0.670124 0 0.08 0.670124 0 0.1 0.670124 0 0 0.672536 0 0.02 0.672536 0 0.04 0.672536 0 0.06 0.672536 0 0.08 0.672536 0 0.1 0.672536 0 0 0.674948 0 0.02 0.674948 0 0.04 0.674948 0 0.06 0.674948 0 0.08 0.674948 0 0.1 0.674948 0 0 0.677346 0 0.02 0.677346 0 0.04 0.677346 0 0.06 0.677346 0 0.08 0.677346 0 0.1 0.677346 0 0 0.679732 0 0.02 0.679732 0 0.04 0.679732 0 0.06 0.679732 0 0.08 0.679732 0 0.1 0.679732 0 0 0.682112 0 0.02 0.682112 0 0.04 0.682112 0 0.06 0.682112 0 0.08 0.682112 0 0.1 0.682112 0 0 0.684489 0 0.02 0.684489 0 0.04 0.684489 0 0.06 0.684489 0 0.08 0.684489 0 0.1 0.684489 0 0 0.686864 0 0.02 0.686864 0 0.04 0.686864 0 0.06 0.686864 0 0.08 0.686864 0 0.1 0.686864 0 0 0.689236 0 0.02 0.689236 0 0.04 0.689236 0 0.06 0.689236 0 0.08 0.689236 0 0.1 0.689236 0 0 0.691606 0 0.02 0.691606 0 0.04 0.691606 0 0.06 0.691606 0 0.08 0.691606 0 0.1 0.691606 0 0 0.693975 0 0.02 0.693975 0 0.04 0.693975 0 0.06 0.693975 0 0.08 0.693975 0 0.1 0.693975 0 0 0.696342 0 0.02 0.696342 0 0.04 0.696342 0 0.06 0.696342 0 0.08 0.696342 0 0.1 0.696342 0 0 0.698706 0 0.02 0.698706 0 0.04 0.698706 0 0.06 0.698706 0 0.08 0.698706 0 0.1 0.6987
[...]
			<PointData Scalars="VitesseX">
				<DataArray Name="VitesseX" type="Float32" format="ascii">
 0 2.27021e-15 6.6991e-15 -4.21854e-15 1.10737e-14 0 0 1.90675e-15 6.67893e-15 -3.49598e-15 1.05169e-14 0 0 1.66589e-15 6.26058e-15 -2.30878e-15 9.57671e-15 0 0 1.75597e-15 4.62354e-15 1.19655e-15 7.44044e-15 0 0 2.21797e-15 2.28187e-15 5.97226e-15 5.90567e-15 0 0 3.95704e-15 9.20348e-16 5.77286e-15 9.61998e-15 0 0 3.60219e-15 5.05221e-15 3.06702e-17 1.28558e-14 0 0 3.69549e-15 6.44537e-15 -3.41355e-16 1.013e-14 0 0 5.09679e-15 4.52106e-15 3.51259e-15 5.44582e-15 0 0 4.86961e-15 5.35762e-15 3.30541e-15 3.5783e-15 0 0 3.9809e-15 4.25752e-15 1.6907e-15 6.5163e-15 0 0 1.69882e-15 4.4865e-15 2.70282e-16 6.77887e-15 0 0 1.70582e-15 4.19599e-15 4.63208e-16 2.27827e-15 0 0 2.6874e-15 2.38463e-15 1.73756e-15 -4.94068e-16 0 0 6.08499e-15 -1.67308e-15 5.92568e-15 -5.79759e-15 0 0 6.48798e-15 7.57202e-16 4.68295e-15 -8.32119e-15 0 0 2.58363e-16 7.78477e-15 -1.10585e-15 -5.72599e-15 0 0 -2.27438e-15 4.97656e-15 3.35908e-16 -4.02783e-15 0 0 -6.03708e-15 4.89583e-15 -4.3099e-15 2.48909e-15 0 0 -4.75287e-15 -4.71743e-15 1.48685e-15 1.43582e-15 0 0 -2.96699e-15 -8.16472e-15 1.34182e-15 -5.94668e-16 0 0 -3.12483e-15 -1.80185e-15 -1.30332e-14 1.03856e-14 0 0 1.7892e-16 -2.85863e-15 -1.21289e-14 7.86337e-15 0 0 -1.43908e-15 1.03027e-15 -6.02544e-15 -7.71921e-15 0 0 -2.29898e-15 4.1535e-15 -4.51117e-15 -7.59584e-15 0 0 -3.3192e-15 4.59444e-15 -2.61089e-15 -5.28013e-15 0 0 -5.45043e-15 6.81235e-15 -1.57309e-15 -1.09987e-14 0 0 -1.60626e-15 5.21169e-15 -2.36823e-15 -1.45052e-14 0 0 -1.90376e-15 6.83113e-15 -1.08902e-14 -3.89729e-15 0 0 -4.81964e-15 2.18185e-15 -1.15612e-14 7.82151e-15 0 0 -1.40642e-15 -1.35226e-14 -1.22378e-15 9.3256e-15 0 0 7.86556e-15 -2.32759e-14 5.48818e-15 2.35322e-15 0 0 3.12114e-15 -1.63352e-14 3.26905e-15 -3.73458e-16 0 0 -4.4963e-15 -9.24614e-15 1.44612e-15 -4.09679e-16 0 0 -4.9641e-15 -4.8239e-15 -7.40065e-16 -2.35346e-15 0 0 1.33603e-15 -4.53292e-15 -2.96075e-15 -2.73469e-15 0 0 6.70829e-15 -5.1444e-15 4.707e-15 -6.44445e-15 0 0 -3.05394e-15 1.07103e-14 6.66077e-16 9.73342e-15 0 0 -7.26396e-15 1.67341e-14 4.4765e-15 1.5585e-14 0 0 -5.34551e-16 4.99767e-15 2.53945e-14 -2.36346e-15 0 0 1.10279e-14 4.49493e-15 1.52492e-14 8.75101e-15 0 0 1.35832e-14 1.24819e-14 -8.87674e-15 2.97e-14 0 0 8.36377e-15 1.40282e-14 -1.19771e-14 2.98731e-14 0 0 7.1731e-15 -6.97773e-15 8.5359e-15 1.56413e-14 0 0 5.44596e-15 -8.90006e-15 7.28222e-15 8.46924e-15 0 0 4.55753e-15 8.92713e-15 -9.78864e-15 8.893e-15 0 0 -5.8616e-15 5.75241e-15 -4.03362e-15 -2.40834e-14 0 0 -2.12886e-14 -7.44465e-15 -2.3448e-17 -5.29658e-14 0 0 -2.17905e-14 -3.0982e-14 -7.19965e-16 -6.23275e-14 0 0 -1.4111e-14 -3.2489e-14 -3.53766e-14 -6.04874e-14 0 0 -2.04889e-14 -1.21288e-14 -7.69523e-14 -3.83774e-14 0 0 -2.52695e-14 -1.92694e-14 -7.07987e-14 -2.88585e-14 0 0 -1.78097e-14 -4.27366e-14 -4.72862e-14 -6.05359e-15 0 0 -1.53845e-14 -3.22723e-14 -4.43004e-14 5.02166e-15 0 0 -8.85979e-15 -3.3947e-14 -5.33648e-14 1.4872e-14 0 0 3.29749e-15 -5.75091e-14 -3.74272e-14 1.86003e-14 0 0 1.14987e-14 -5.09406e-14 -1.11713e-14 3.99744e-15 0 0 -1.41236e-14 -2.14992e-14 -2.52191e-14 3.259e-14 0 0 -9.35148e-15 -2.78915e-14 -3.13991e-14 4.0183e-14 0 0 5.23419e-16 -3.03981e-14 -1.18377e-14 1.13517e-14 0 0 -1.20472e-14 5.84961e-16 -1.21051e-14 -1.26592e-14 0 0 -6.72629e-15 -4.10539e-15 -3.00059e-14 -3.6197e-15 0 0 -6.65976e-15 -8.08136e-15 -5.08628e-14 1.10438e-14 0 0 -3.24856e-15 -1.44637e-14 -3.85024e-14 -7.49695e-15 0 0 -1.55998e-14 -2.42756e-14 -1.37336e-14 -7.72105e-15 0 0 -1.92325e-14 1.11274e-14 -4.65619e-15 -9.38931e-15 0 0 -2.20926e-14 3.37766e-14 -1.80682e-14 4.69942e-15 0 0 -2.9164e-14 2.31294e-14 -4.49157e-14 2.0883e-14 0 0 1.02423e-14 -4.08983e-14 1.72831e-14 -7.78559e-15 0 0 4.72968e-15 -4.67345e-14 4.10608e-14 7.99886e-15 0 0 -2.56355e-14 -4.3441e-16 4.10917e-15 2.17133e-14 0 0 -1.56007e-14 1.67511e-14 7.13416e-15 8.09725e-15 0 0 -2.09049e-14 2.83441e-14 -4.78065e-15 2.9767e-14 0 0 -8.66219e-15 -3.05018e-15 -1.97861e-15 3.64311e-14 0 0 1.89314e-14 -2.14861e-14 -6.89267e-15 3.98282e-14 0 0 1.52938e-14 -9.71197e-15 -3.63046e-14 5.86059e-14 0 0 2.39051e-14 3.51774e-15 -2.46507e-14 1.16744e-14 0 0 2.6398e-14 -4.49074e-15 -3.48191e-15 -2.66624e-14 0 0 6.05868e-15 6.97872e-15 -1.59635e-14 -2.30639e-14 0 0 -1.31541e-15 5.52755e-14 -2.92282e-14 -2.37529e-14 0 0 -1.82268e-14 4.53986e-14 -3.31612e-14 1.44843e-14 0 0 -4.33294e-15 9.33262e-15 -2.90443e-15 2.70785e-14 0 0 3.73373e-14 -5.6039e-16 2.87473e-14 -6.02501e-15 0 0 4.24721e-14 1.70603e-14 1.05742e-14 -1.21307e-14 0 0 2.84229e-14 1.17138e-14 1.55122e-14 1.22067e-14 0 0 3.79758e-16 1.33192e-14 2.11809e-14 1.78003e-14 0 0 5.75624e-15 1.35765e-14 -2.25183e-15 1.91179e-14 0 0 7.9142e-15 2.23018e-14 -2.06111e-14 4.70256e-14 0 0 4.89828e-16 3.14766e-14 -1.1387e-14 2.70615e-14 0 0 1.29461e-14 1.67901e-14 -1.24521e-14 7.60231e-15 0 0 1.2189e-14 4.25578e-16 -9.96191e-15 -1.15501e-14 0 0 -6.0342e-15 -2.91281e-14 -3.46188e-14 -3.8465e-14 0 0 -4.42151e-14 -6.65424e-14 -7.98559e-14 -5.11435e-14 0 0 -7.88471e-14 -1.09492e-13 -1.08883e-13 -8.1409e-14 0 0 -9.05218e-14 -1.41581e-13 -1.5827e-13 -8.91301e-14 0 0 -9.26327e-14 -1.60154e-13 -1.69057e-13 -9.06735e-14 0 0 -9.84566e-14 -1.52678e-13 -1.61432e-13 -9.49542e-14 0 0 -9.02424e-14 -1.46709e-13 -1.55601e-13 -8.00432e-14 0 0 -8.89488e-14 -1.39208e-13 -1.51311e-13 -6.51188e-14 0 0 -8.99196e-14 -1.30525e-13 -1.62436e-13 -7.99421e-14 0 0 -9.55955e-14 -1.51229e-13 -1.82026e-13 -9.96312e-14 0 0 -1.7913e-13 -2.99673e-13 -2.20606e-13 -1.97838e-13 0 0 -1.77081e-13 -2.73633e-13 -2.69376e-13 -2.00016e-13 0 0 -1.79142e-13 -2.5892e-13 -3.16916e-13 -1.6959e-13 0 0 -1.70297e-13 -2.82776e-13 -3.35508e-13 -1.62398e-13 0 0 -1.92406e-13 -2.99245e-13 -3.41086e-13 -1.56174e-13 0 0 -1.9375e-13 -2.91753e-13 -3.34944e-13 -1.48621e-13 0 0 -1.25603e-13 -2.60243e-13 -2.08422e-13 -1.28264e-13 0 0 6.74171e-15 -2.09021e-14 9.79351e-15 9.55631e-15 0 0 1.75987e-13 2.96345e-13 2.49439e-13 1.73607e-13 0 0 3.35985e-13 5.25244e-13 5.03466e-13 3.06865e-13 0 0 4.38001e-13 6.86904e-13 6.68737e-13 4.22949e-13 0 0 4.6218e-13 7.606e-13 7.08017e-13 4.74555e-13 0 0 4.66848e-13 7.17674e-13 7.19299e-13 4.66349e-13 0 0 4.37496e-13 6.80111e-13 6.72864e-13 4.99044e-13 0 0 3.88181e-13 6.39024e-13 6.14857e-13 4.40991e-13 0 0 3.43709e-13 5.85486e-13 5.43712e-13 3.60096e-13 0 0 3.15174e-13 5.46029e-13 4.46947e-13 3.46752e-13 0 0 3.25147e-13 4.69391e-13 4.144e-13 2.84943e-13 0 0 3.15047e-13 3.88486e-13 4.06702e-13 2.21986e-13 0 0 2.68031e-13 3.65381e-13 3.71889e-13 2.1762e-13 0 0 2.36856e-13 3.50014e-13 3.28319e-13 1.82766e-13 0 0 2.16429e-13 3.04333e-13 2.67045e-13 1.37827e-13 0 0 1.59339e-13 2.83263e-13 2.32506e-13 9.98703e-14 0 0 1.12854e-13 2.69569e-13 2.5448e-13 9.25161e-14 0 0 9.99987e-14 2.50801e-13 1.65714e-13 1.32299e-13 0 0 8.31398e-14 2.05126e-13 1.14458e-13 1.19155e-13 0 0 6.14544e-14 1.7806e-13 1.37824e-13 4.65413e-14 0 0 2.48881e-14 1.49936e-13 1.01631e-13 6.263e-14 0 0 1.47491e-14 1.049e-13 6.63171e-14 8.6937e-14 0 0 7.57228e-15 7.23201e-14 5.12557e-14 7.86231e-14 0 0 -9.07455e-15 -9.11772e-15 7.30807e-14 3.58325e-14 0 0 -1.51403e-14 -2.71163e-14 1.95969e-14 -1.91888e-14 0 0 -4.95086e-14 -3.97836e-14 -1.28136e-14 -3.59644e-14 0 0 -8.56931e-14 -4.6945e-14 -7.37299e-14 4.56076e-14 0 0 -8.07666e-14 -6.06844e-14 -1.26676e-13 2.29378e-14 0 0 -9.79698e-14 -1.55564e-13 -4.61638e-14 -6.08511e-14 0 0 -1.64785e-13 -1.64169e-13 -9.26982e-14 -5.7054e-15 0 0 -1.92855e-13 -1.51201e-13 -1.76693e-13 -4.13879e-15 0 0 -1.97629e-13 -1.9027e-13 -1.72445e-13 -2.96182e-14 0 0 -1.54036e-13 -3.0555e-13 -1.20808e-13 -8.22834e-14 0 0 -1.42665e-13 -3.8822e-13 -1.13266e-13 -1.77242e-13 0 0 -1.75889e-13 -3.58207e-13 -2.00365e-13 -2.32377e-13 0 0 -1.54879e-13 -4.13218e-13 -2.2835e-13 -2.38923e-13 0 0 -1.93689e-13 -4.31551e-13 -2.09099e-13 -3.17162e-13 0 0 -2.76872e-13 -3.79409e-13 -2.33733e-13 -3.34919e-13 0 0 -3.15618e-13 -3.66447e-13 -3.3292e-13 -2.68215e-13 0 0 -3.03277e-13 -3.69207e-13 -4.19448e-13 -2.47556e-13 0 0 -2.60116e-13 -4.12738e-13 -4.31322e-13 -2.9986e-13 0 0 -2.32393e-13 -4.78624e-13 -4.08046e-13 -3.03483e-13 0 0 -2.41096e-13 -4.74158e-13 -4.40843e-13 -2.98834e-13 0 0 -2.79304e-13 -4.35656e-13 -4.35272e-13 -2.92128e-13 0 0 -2.88541e-13 -4.35766e-13 -4.68989e-13 -2.13044e-13 0 0 -2.58008e-13 -4.54145e-13 -4.66362e-13 -1.69665e-13 0 0 -2.42215e-13 -4.60974e-13 -4.39009e-13 -2.80193e-13 0 0 -2.08775e-13 -4.90611e-13 -3.73944e-13 -2.93967e-13 0 0 -1.98848e-13 -4.43588e-13 -4.23871e-13 -2.74239e-13 0 0 -1.84659e-13 -3.56899e-13 -3.82196e-13 -2.69313e-13 0 0 -1.95842e-13 -3.00872e-13 -3.05493e-13 -1.74982e-13 0 0 -1.86822e-13 -1.59625e-13 -2.97259e-13 -1.19107e-13 0 0 -1.07045e-13 -1.63445e-13 -1.75648e-13 -2.31444e-14 0 0 -4.5707e-14 -1.21212e-13 -1.71215e-13 -6.32383e-15 0 0 -2.5642e-14 -9.04814e-14 -1.3669e-13 -3.45571e-14 0 0 -3.23109e-14 -9.57883e-14 -6.90093e-14 -1.96368e-14 0 0 -3.92705e-14 -6.86478e-14 -8.82014e-14 3.07297e-15 0 0 -1.47154e-14 -1.07306e-13 -8.77799e-14 7.86539e-15 0 0 -1.80719e-15 -1.42673e-13 -4.11459e-14 -2.58752e-14 0 0 -1.33283e-14 -1.11899e-13 -7.2005e-14 -3.10953e-14 0 0 -3.67243e-14 -7.88755e-14 -1.19213e-13 -1.99861e-14 0 0 -4.66116e-14 -7.20607e-14 -1.21025e-13 -1.8612e-15 0 0 -3.6527e-14 -8.2305e-14 -1.00425e-13 -5.91892e-14 0 0 -1.1604e-14 -9.91708e-14 -7.51868e-14 -1.08955e-13 0 0 -8.56471e-15 -9.98876e-14 -8.04136e-14 -6.76091e-14 0 0 -3.11216e-14 -8.254e-14 -7.01844e-14 -5.74106e-14 0 0 -2.88723e-14 -8.67765e-14 -5.03619e-14 -7.31661e-14 0 0 -3.68355e-14 -7.36275e-14 -6.59562e-14 -5.67458e-14 0 0 -6.5871e-14 -3.07669e-14 -9.43929e-14 -1.56009e-14 0 0 -5.50803e-14 -2.9338e-14 -1.20484e-13 3.53636e-14 0 0 -3.54139e-14 -3.96812e-14 -9.89041e-14 4.17244e-14 0 0 -3.62035e-14 -3.89196e-14 -4.75741e-14 1.45596e-14 0 0 -4.13776e-14 -1.34055e-14 -5.4392e-14 2.96595e-14 0 0 -3.0505e-14 -2.85629e-14 -2.17498e-14 1.43223e-14 0 0 -7.26369e-15 -5.40466e-14 1.97644e-14 -4.10878e-14 0 0 -2.25362e-15 -3.54423e-14 2.48997e-14 -6.33959e-14 0 0 -8.3706e-15 -9.80413e-15 9.02402e-15 -5.51294e-14 0 0 -1.07075e-14 3.07026e-14 -2.32497e-14 -3.50122e-14 0 0 1.26067e-14 1.1134e-14 7.4399e-15 -6.13914e-14 0 0 -2.74865e-15 2.95175e-14 -4.6132e-14 -2.54729e-14 0 0 -3.76641e-14 5.88041e-14 -8.83932e-14 1.19848e-14 0 0 5.07406e-16 -1.5508e-15 -4.30327e-14 -7.64023e-15 0 0 3.0258e-14 -1.57616e-14 -7.73838e-14 1.34933e-14 0 0 4.26742e-14 -6.49866e-15 -1.21728e-13 8.9219e-15 0 0 6.3607e-14 4.19692e-15 -1.70866e-13 5.38574e-14 0 0 2.46906e-14 3.65617e-15 -1.23495e-13 5.2923e-14 0 0 -3.75963e-14 3.56445e-14 -7.04274e-14 2.13101e-14 0 0 -5.54485e-15 1.65497e-14 -8.08376e-14 5.50121e-14 0 0 3.2025e-14 -4.65623e-14 -3.21504e-14 3.40505e-14 0 0 1.38962e-14 -2.87251e-14 -2.15545e-14 -1.41318e-14 0 0 3.4904e-14 -4.07169e-14 -2.94932e-14 -1.96183e-14 0 0 1.62142e-14 -1.62893e-14 -4.03426e-14 -9.21365e-15 0 0 -2.48429e-14 3.26635e-14 -5.81785e-14 -8.63787e-15 0
				</DataArray>
				<DataArray Name="VitesseY" type="Float32" format="ascii">