<?xml version="1.0"?>
<VTKFile type="PolyData">
	<PolyData>
		<Piece NumberOfPoints="1206" NumberOfPolys="1000">
			<Points>
				<DataArray type="Float32" NumberOfComponents="3" format="ascii">
 0 0 0 0.02 0 0 0.04 0 0 0.06 0 0 0.08 0 0 0.1 0 0 0 0.005 0 0.02 0.005 0 0.04 0.005 0 0.06 0.005 0 0.08 0.005 0 0.1 0.005 0 0 0.01 0 0.02 0.01 0 0.04 0.01 0 0.06 0.01 0 0.08 0.01 0 0.1 0.01 0 0 0.015 0 0.02 0.015 0 0.04 0.015 0 0.06 0.015 0 0.08 0.015 0 0.1 0.015 0 0 0.02 0 0.02 0.02 0 0.04 0.02 0 0.06 0.02 0 0.08 0.02 0 0.1 0.02 0 0 0.025 0 0.02 0.025 0 0.04 0.025 0 0.06 0.025 0 0.08 0.025 0 0.1 0.025 0 0 0.03 0 0.02 0.03 0 0.04 0.03 0 0.06 0.03 0 0.08 0.03 0 0.1 0.03 0 0 0.035 0 0.02 0.035 0 0.04 0.035 0 0.06 0.035 0 0.08 0.035 0 0.1 0.035 0 0 0.04 0 0.02 0.04 0 0.04 0.04 0 0.06 0.04 0 0.08 0.04 0 0.1 0.04 0 0 0.045 0 0.02 0.045 0 0.04 0.045 0 0.06 0.045 0 0.08 0.045 0 0.1 0.045 0 0 0.05 0 0.02 0.05 0 0.04 0.05 0 0.06 0.05 0 0.08 0.05 0 0.1 0.05 0 0 0.055 0 0.02 0.055 0 0.04 0.055 0 0.06 0.055 0 0.08 0.055 0 0.1 0.055 0 0 0.06 0 0.02 0.06 0 0.04 0.06 0 0.06 0.06 0 0.08 0.06 0 0.1 0.06 0 0 0.065 0 0.02 0.065 0 0.04 0.065 0 0.06 0.065 0 0.08 0.065 0 0.1 0.065 0 0 0.07 0 0.02 0.07 0 0.04 0.07 0 0.06 0.07 0 0.08 0.07 0 0.1 0.07 0 0 0.075 0 0.02 0.075 0 0.04 0.075 0 0.06 0.075 0 0.08 0.075 0 0.1 0.075 0 0 0.08 0 0.02 0.08 0 0.04 0.08 0 0.06 0.08 0 0.08 0.08 0 0.1 0.08 0 0 0.085 0 0.02 0.085 0 0.04 0.085 0 0.06 0.085 0 0.08 0.085 0 0.1 0.085 0 0 0.09 0 0.02 0.09 0 0.04 0.09 0 0.06 0.09 0 0.08 0.09 0 0.1 0.09 0 0 0.095 0 0.02 0.095 0 0.04 0.095 0 0.06 0.095 0 0.08 0.095 0 0.1 0.095 0 0 0.1 0 0.02 0.1 0 0.04 0.1 0 0.06 0.1 0 0.08 0.1 0 0.1 0.1 0 0 0.105 0 0.02 0.105 0 0.04 0.105 0 0.06 0.105 0 0.08 0.105 0 0.1 0.105 0 0 0.11 0 0.02 0.11 0 0.04 0.11 0 0.06 0.11 0 0.08 0.11 0 0.1 0.11 0 0 0.115 0 0.02 0.115 0 0.04 0.115 0 0.06 0.115 0 0.08 0.115 0 0.1 0.115 0 0 0.12 0 0.02 0.12 0 0.04 0.12 0 0.06 0.12 0 0.08 0.12 0 0.1 0.12 0 0 0.125 0 0.02 0.125 0 0.04 0.125 0 0.06 0.125 0 0.08 0.125 0 0.1 0.125 0 0 0.13 0 0.02 0.13 0 0.04 0.13 0 0.06 0.13 0 0.08 0.13 0 0.1 0.13 0 0 0.135 0 0.02 0.135 0 0.04 0.135 0 0.06 0.135 0 0.08 0.135 0 0.1 0.135 0 0 0.14 0 0.02 0.14 0 0.04 0.14 0 0.06 0.14 0 0.08 0.14 0 0.1 0.14 0 0 0.145 0 0.02 0.145 0 0.04 0.145 0 0.06 0.145 0 0.08 0.145 0 0.1 0.145 0 0 0.15 0 0.02 0.15 0 0.04 0.15 0 0.06 0.15 0 0.08 0.15 0 0.1 0.15 0 0 0.155 0 0.02 0.155 0 0.04 0.155 0 0.06 0.155 0 0.08 0.155 0 0.1 0.155 0 0 0.16 0 0.02 0.16 0 0.04 0.16 0 0.06 0.16 0 0.08 0.16 0 0.1 0.16 0 0 0.165 0 0.02 0.165 0 0.04 0.165 0 0.06 0.165 0 0.08 0.165 0 0.1 0.165 0 0 0.17 0 0.02 0.17 0 0.04 0.17 0 0.06 0.17 0 0.08 0.17 0 0.1 0.17 0 0 0.175 0 0.02 0.175 0 0.04 0.175 0 0.06 0.175 0 0.08 0.175 0 0.1 0.175 0 0 0.18 0 0.02 0.18 0 0.04 0.18 0 0.06 0.18 0 0.08 0.18 0 0.1 0.18 0 0 0.185 0 0.02 0.185 0 0.04 0.185 0 0.06 0.185 0 0.08 0.185 0 0.1 0.185 0 0 0.19 0 0.02 0.19 0 0.04 0.19 0 0.06 0.19 0 0.08 0.19 0 0.1 0.19 0 0 0.195 0 0.02 0.195 0 0.04 0.195 0 0.06 0.195 0 0.08 0.195 0 0.1 0.195 0 0 0.2 0 0.02 0.2 0 0.04 0.2 0 0.06 0.2 0 0.08 0.2 0 0.1 0.2 0 0 0.205 0 0.02 0.205 0 0.04 0.205 0 0.06 0.205 0 0.08 0.205 0 0.1 0.205 0 0 0.21 0 0.02 0.21 0 0.04 0.21 0 0.06 0.21 0 0.08 0.21 0 0.1 0.21 0 0 0.215 0 0.02 0.215 0 0.04 0.215 0 0.06 0.215 0 0.08 0.215 0 0.1 0.215 0 0 0.22 0 0.02 0.22 0 0.04 0.22 0 0.06 0.22 0 0.08 0.22 0 0.1 0.22 0 0 0.225 0 0.02 0.225 0 0.04 0.225 0 0.06 0.225 0 0.08 0.225 0 0.1 0.225 0 0 0.23 0 0.02 0.23 0 0.04 0.23 0 0.06 0.23 0 0.08 0.23 0 0.1 0.23 0 0 0.235 0 0.02 0.235 0 0.04 0.235 0 0.06 0.235 0 0.08 0.235 0 0.1 0.235 0 0 0.24 0 0.02 0.24 0 0.04 0.24 0 0.06 0.24 0 0.08 0.24 0 0.1 0.24 0 0 0.245 0 0.02 0.245 0 0.04 0.245 0 0.06 0.245 0 0.08 0.245 0 0.1 0.245 0 0 0.25 0 0.02 0.25 0 0.04 0.25 0 0.06 0.25 0 0.08 0.25 0 0.1 0.25 0 0 0.255 0 0.02 0.255 0 0.04 0.255 0 0.06 0.255 0 0.08 0.255 0 0.1 0.255 0 0 0.26 0 0.02 0.26 0 0.04 0.26 0 0.06 0.26 0 0.08 0.26 0 0.1 0.26 0 0 0.265 0 0.02 0.265 0 0.04 0.265 0 0.06 0.265 0 0.08 0.265 0 0.1 0.265 0 0 0.27 0 0.02 0.27 0 0.04 0.27 0 0.06 0.27 0 0.08 0.27 0 0.1 0.27 0 0 0.275 0 0.02 0.275 0 0.04 0.275 0 0.06 0.275 0 0.08 0.275 0 0.1 0.275 0 0 0.28 0 0.02 0.28 0 0.04 0.28 0 0.06 0.28 0 0.08 0.28 0 0.1 0.28 0 0 0.285 0 0.02 0.285 0 0.04 0.285 0 0.06 0.285 0 0.08 0.285 0 0.1 0.285 0 0 0.29 0 0.02 0.29 0 0.04 0.29 0 0.06 0.29 0 0.08 0.29 0 0.1 0.29 0 0 0.295 0 0.02 0.295 0 0.04 0.295 0 0.06 0.295 0 0.08 0.295 0 0.1 0.295 0 0 0.3 0 0.02 0.3 0 0.04 0.3 0 0.06 0.3 0 0.08 0.3 0 0.1 0.3 0 0 0.305 0 0.02 0.305 0 0.04 0.305 0 0.06 0.305 0 0.08 0.305 0 0.1 0.305 0 0 0.31 0 0.02 0.31 0 0.04 0.31 0 0.06 0.31 0 0.08 0.31 0 0.1 0.31 0 0 0.315 0 0.02 0.315 0 0.04 0.315 0 0.06 0.315 0 0.08 0.315 0 0.1 0.315 0 0 0.32 0 0.02 0.32 0 0.04 0.32 0 0.06 0.32 0 0.08 0.32 0 0.1 0.32 0 0 0.325 0 0.02 0.325 0 0.04 0.325 0 0.06 0.325 0 0.08 0.325 0 0.1 0.325 0 0 0.33 0 0.02 0.33 0 0.04 0.33 0 0.06 0.33 0 0.08 0.33 0 0.1 0.33 0 0 0.335 0 0.02 0.335 0 0.04 0.335 0 0.06 0.335 0 0.08 0.335 0 0.1 0.335 0 0 0.34 0 0.02 0.34 0 0.04 0.34 0 0.06 0.34 0 0.08 0.34 0 0.1 0.34 0 0 0.345 0 0.02 0.345 0 0.04 0.345 0 0.06 0.345 0 0.08 0.345 0 0.1 0.345 0 0 0.35 0 0.02 0.35 0 0.04 0.35 0 0.06 0.35 0 0.08 0.35 0 0.1 0.35 0 0 0.355 0 0.02 0.355 0 0.04 0.355 0 0.06 0.355 0 0.08 0.355 0 0.1 0.355 0 0 0.36 0 0.02 0.36 0 0.04 0.36 0 0.06 0.36 0 0.08 0.36 0 0.1 0.36 0 0 0.365 0 0.02 0.365 0 0.04 0.365 0 0.06 0.365 0 0.08 0.365 0 0.1 0.365 0 0 0.37 0 0.02 0.37 0 0.04 0.37 0 0.06 0.37 0 0.08 0.37 0 0.1 0.37 0 0 0.375 0 0.02 0.375 0 0.04 0.375 0 0.06 0.375 0 0.08 0.375 0 0.1 0.375 0 0 0.38 0 0.02 0.38 0 0.04 0.38 0 0.06 0.38 0 0.08 0.38 0 0.1 0.38 0 0 0.385 0 0.02 0.385 0 0.04 0.385 0 0.06 0.385 0 0.08 0.385 0 0.1 0.385 0 0 0.39 0 0.02 0.39 0 0.04 0.39 0 0.06 0.39 0 0.08 0.39 0 0.1 0.39 0 0 0.395 0 0.02 0.395 0 0.04 0.395 0 0.06 0.395 0 0.08 0.395 0 0.1 0.395 0 0 0.4 0 0.02 0.4 0 0.04 0.4 0 0.06 0.4 0 0.08 0.4 0 0.1 0.4 0 0 0.405 0 0.02 0.405 0 0.04 0.405 0 0.06 0.405 0 0.08 0.405 0 0.1 0.405 0 0 0.41 0 0.02 0.41 0 0.04 0.41 0 0.06 0.41 0 0.08 0.41 0 0.1 0.41 0 0 0.415 0 0.02 0.415 0 0.04 0.415 0 0.06 0.415 0 0.08 0.415 0 0.1 0.415 0 0 0.42 0 0.02 0.42 0 0.04 0.42 0 0.06 0.42 0 0.08 0.42 0 0.1 0.42 0 0 0.425 0 0.02 0.425 0 0.04 0.425 0 0.06 0.425 0 0.08 0.425 0 0.1 0.425 0 0 0.43 0 0.02 0.43 0 0.04 0.43 0 0.06 0.43 0 0.08 0.43 0 0.1 0.43 0 0 0.435002 0 0.02 0.435002 0 0.04 0.435002 0 0.06 0.435002 0 0.08 0.435002 0 0.1 0.435002 0 0 0.44001 0 0.02 0.44001 0 0.04 0.44001 0 0.06 0.44001 0 0.08 0.44001 0 0.1 0.44001 0 0 0.445046 0 0.02 0.445046 0 0.04 0.445046 0 0.06 0.445046 0 0.08 0.445046 0 0.1 0.445046 0 0 0.450167 0 0.02 0.450167 0 0.04 0.450167 0 0.06 0.450167 0 0.08 0.450167 0 0.1 0.450167 0 0 0.455484 0 0.02 0.455484 0 0.04 0.455484 0 0.06 0.455484 0 0.08 0.455484 0 0.1 0.455484 0 0 0.461144 0 0.02 0.461144 0 0.04 0.461144 0 0.06 0.461144 0 0.08 0.461144 0 0.1 0.461144 0 0 0.467308 0 0.02 0.467308 0 0.04 0.467308 0 0.06 0.467308 0 0.08 0.467308 0 0.1 0.467308 0 0 0.474149 0 0.02 0.474149 0 0.04 0.474149 0 0.06 0.474149 0 0.08 0.474149 0 0.1 0.474149 0 0 0.481882 0 0.02 0.481882 0 0.04 0.481882 0 0.06 0.481882 0 0.08 0.481882 0 0.1 0.481882 0 0 0.490802 0 0.02 0.490802 0 0.04 0.490802 0 0.06 0.490802 0 0.08 0.490802 0 0.1 0.490802 0 0 0.501285 0 0.02 0.501285 0 0.04 0.501285 0 0.06 0.501285 0 0.08 0.501285 0 0.1 0.501285 0 0 0.513457 0 0.02 0.513457 0 0.04 0.513457 0 0.06 0.513457 0 0.08 0.513457 0 0.1 0.513457 0 0 0.525905 0 0.02 0.525905 0 0.04 0.525905 0 0.06 0.525905 0 0.08 0.525905 0 0.1 0.525905 0 0 0.537917 0 0.02 0.537917 0 0.04 0.537917 0 0.06 0.537917 0 0.08 0.537917 0 0.1 0.537917 0 0 0.540555 0 0.02 0.540555 0 0.04 0.540555 0 0.06 0.540555 0 0.08 0.540555 0 0.1 0.540555 0 0 0.543117 0 0.02 0.543117 0 0.04 0.543117 0 0.06 0.543117 0 0.08 0.543117 0 0.1 0.543117 0 0 0.545633 0 0.02 0.545633 0 0.04 0.545633 0 0.06 0.545633 0 0.08 0.545633 0 0.1 0.545633 0 0 0.548119 0 0.02 0.548119 0 0.04 0.548119 0 0.06 0.548119 0 0.08 0.548119 0 0.1 0.548119 0 0 0.550585 0 0.02 0.550585 0 0.04 0.550585 0 0.06 0.550585 0 0.08 0.550585 0 0.1 0.550585 0 0 0.553039 0 0.02 0.553039 0 0.04 0.553039 0 0.06 0.553039 0 0.08 0.553039 0 0.1 0.553039 0 0 0.555489 0 0.02 0.555489 0 0.04 0.555489 0 0.06 0.555489 0 0.08 0.555489 0 0.1 0.555489 0 0 0.557942 0 0.02 0.557942 0 0.04 0.557942 0 0.06 0.557942 0 0.08 0.557942 0 0.1 0.557942 0 0 0.560418 0 0.02 0.560418 0 0.04 0.560418 0 0.06 0.560418 0 0.08 0.560418 0 0.1 0.560418 0 0 0.562929 0 0.02 0.562929 0 0.04 0.562929 0 0.06 0.562929 0 0.08 0.562929 0 0.1 0.562929 0 0 0.5655 0 0.02 0.5655 0 0.04 0.5655 0 0.06 0.5655 0 0.08 0.5655 0 0.1 0.5655 0 0 0.568203 0 0.02 0.568203 0 0.04 0.568203 0 0.06 0.568203 0 0.08 0.568203 0 0.1 0.568203 0 0 0.571086 0 0.02 0.571086 0 0.04 0.571086 0 0.06 0.571086 0 0.08 0.571086 0 0.1 0.571086 0 0 0.574237 0 0.02 0.574237 0 0.04 0.574237 0 0.06 0.574237 0 0.08 0.574237 0 0.1 0.574237 0 0 0.57771 0 0.02 0.57771 0 0.04 0.57771 0 0.06 0.57771 0 0.08 0.57771 0 0.1 0.57771 0 0 0.581557 0 0.02 0.581557 0 0.04 0.581557 0 0.06 0.581557 0 0.08 0.581557 0 0.1 0.581557 0 0 0.585779 0 0.02 0.585779 0 0.04 0.585779 0 0.06 0.585779 0 0.08 0.585779 0 0.1 0.585779 0 0 0.590332 0 0.02 0.590332 0 0.04 0.590332 0 0.06 0.590332 0 0.08 0.590332 0 0.1 0.590332 0 0 0.595119 0 0.02 0.595119 0 0.04 0.595119 0 0.06 0.595119 0 0.08 0.595119 0 0.1 0.595119 0 0 0.600038 0 0.02 0.600038 0 0.04 0.600038 0 0.06 0.600038 0 0.08 0.600038 0 0.1 0.600038 0 0 0.605011 0 0.02 0.605011 0 0.04 0.605011 0 0.06 0.605011 0 0.08 0.605011 0 0.1 0.605011 0 0 0.610003 0 0.02 0.610003 0 0.04 0.610003 0 0.06 0.610003 0 0.08 0.610003 0 0.1 0.610003 0 0 0.615001 0 0.02 0.615001 0 0.04 0.615001 0 0.06 0.615001 0 0.08 0.615001 0 0.1 0.615001 0 0 0.62 0 0.02 0.62 0 0.04 0.62 0 0.06 0.62 0 0.08 0.62 0 0.1 0.62 0 0 0.625 0 0.02 0.625 0 0.04 0.625 0 0.06 0.625 0 0.08 0.625 0 0.1 0.625 0 0 0.63 0 0.02 0.63 0 0.04 0.63 0 0.06 0.63 0 0.08 0.63 0 0.1 0.63 0 0 0.635 0 0.02 0.635 0 0.04 0.635 0 0.06 0.635 0 0.08 0.635 0 0.1 0.635 0 0 0.64 0 
[...]
			<PointData Scalars="VitesseX">
				<DataArray Name="VitesseX" type="Float32" format="ascii">
 0 0 0 0 0 0 0 8.57558e-16 -1.32923e-15 2.02084e-15 -1.15493e-15 0 0 2.70606e-16 -7.10225e-16 1.62614e-15 -9.66275e-16 0 0 -1.92289e-16 -2.75671e-16 1.29704e-15 -3.59438e-16 0 0 -9.85276e-16 2.21207e-16 1.48492e-15 6.91395e-17 0 0 -2.08447e-15 2.10104e-15 2.90804e-16 3.77638e-16 0 0 -1.6146e-15 1.95578e-15 7.94587e-16 1.56431e-16 0 0 1.2398e-15 -2.10252e-15 3.84302e-15 2.6265e-16 0 0 2.03209e-15 -4.32441e-15 4.7096e-15 3.59328e-15 0 0 -4.79934e-16 -1.56207e-15 3.93983e-15 4.64634e-15 0 0 -3.74697e-16 -4.24652e-16 3.26484e-15 4.72955e-15 0 0 1.78164e-15 -2.73417e-15 3.16853e-15 5.80818e-15 0 0 -1.31984e-15 7.80626e-16 7.91138e-16 6.01358e-15 0 0 -2.01462e-15 2.82649e-15 9.3926e-17 6.03214e-15 0 0 2.93217e-16 1.36965e-15 6.67549e-16 4.83845e-15 0 0 -1.26546e-15 2.13564e-15 4.66188e-16 4.0814e-15 0 0 1.55798e-15 -9.76816e-16 2.1214e-15 3.16108e-15 0 0 5.16638e-16 -4.8607e-16 5.61173e-15 -1.35199e-15 0 0 -2.14843e-15 3.95952e-15 2.47929e-15 7.93948e-16 0 0 -2.98563e-16 5.8181e-15 -4.56421e-15 4.17225e-15 0 0 -2.59154e-15 9.34628e-15 -4.50812e-15 1.55324e-15 0 0 -1.42053e-15 2.8693e-15 2.94734e-15 1.52837e-15 0 0 1.70881e-15 -5.6992e-15 8.67974e-15 6.94579e-18 0 0 2.08905e-15 -2.71799e-15 5.63688e-15 2.65801e-15 0 0 -4.0458e-16 1.58588e-15 1.97151e-15 6.63397e-15 0 0 -9.89085e-16 5.11229e-15 -3.40078e-16 4.71913e-15 0 0 9.36169e-16 3.25158e-15 -7.34042e-16 3.55888e-15 0 0 -7.98393e-17 1.08577e-16 2.69456e-15 2.95988e-15 0 0 2.06859e-15 7.08936e-15 -2.32873e-15 -1.58804e-15 0 0 2.99269e-15 1.47845e-14 -7.87644e-15 -6.96893e-15 0 0 4.41226e-15 6.45634e-15 1.83002e-16 -5.24171e-15 0 0 -5.96835e-16 1.28892e-15 7.93223e-15 -2.96057e-16 0 0 -4.02053e-15 2.05509e-15 -6.30292e-16 1.18446e-14 0 0 2.05408e-15 -1.41634e-15 -2.46362e-15 1.07933e-14 0 0 1.54951e-15 3.53409e-15 5.96873e-16 1.26215e-15 0 0 3.07445e-15 6.41328e-15 -3.3597e-15 -1.71762e-15 0 0 6.46611e-15 -4.2123e-15 5.05135e-15 -7.77716e-15 0 0 -2.13599e-15 3.57776e-16 8.3938e-15 -4.11447e-15 0 0 -2.37884e-15 6.18796e-15 3.93669e-15 -1.29609e-16 0 0 3.39489e-15 -2.41803e-15 5.25066e-15 -1.84674e-15 0 0 -5.37728e-15 7.00408e-15 2.56144e-15 2.12448e-17 0 0 -1.48683e-15 7.99743e-15 3.8441e-15 4.70646e-15 0 0 5.73791e-15 5.00203e-16 1.46539e-14 1.07214e-14 0 0 3.65452e-15 7.12794e-15 8.81521e-15 1.86265e-14 0 0 -1.45175e-15 1.92182e-14 -9.14249e-15 2.50648e-14 0 0 -2.44975e-15 1.14776e-14 3.40166e-15 1.4448e-14 0 0 7.80968e-15 -1.3343e-14 2.24507e-14 4.88221e-16 0 0 9.93239e-15 -1.06629e-14 1.1909e-14 3.52337e-16 0 0 3.75537e-15 4.18453e-15 2.20485e-15 -5.3251e-15 0 0 -3.24419e-15 1.38303e-14 -2.48447e-15 -5.97999e-15 0 0 -5.93325e-15 1.30331e-14 1.66424e-16 -3.51972e-15 0 0 -1.33296e-14 1.56924e-14 4.7556e-15 -5.47359e-15 0 0 2.48109e-15 -2.83315e-15 1.77686e-14 -5.88639e-15 0 0 8.47718e-15 1.97611e-15 5.60506e-15 -1.18071e-15 0 0 1.69903e-14 2.6918e-16 5.95525e-15 -4.76025e-15 0 0 2.38842e-14 -1.80364e-14 2.56964e-14 -1.85839e-14 0 0 9.8768e-16 3.1059e-15 4.8666e-15 -7.80708e-15 0 0 7.54907e-15 3.6365e-15 -7.06666e-16 2.908e-16 0 0 1.17748e-14 4.91181e-15 1.37626e-16 -4.48233e-15 0 0 -1.53851e-15 2.28159e-14 -1.20048e-14 -4.06919e-15 0 0 1.0544e-14 1.32828e-14 -4.48619e-15 -1.66574e-14 0 0 2.02838e-14 -9.26078e-15 1.54578e-14 -2.70534e-14 0 0 6.44102e-15 1.16484e-14 -6.59279e-16 -1.5289e-14 0 0 8.17495e-15 1.511e-14 -1.31593e-14 1.65769e-15 0 0 8.72754e-15 3.0322e-15 -4.25956e-15 -6.73449e-16 0 0 8.76728e-15 7.59883e-16 -2.7214e-15 -6.83968e-15 0 0 1.46123e-14 -1.46169e-14 8.81658e-15 -1.4566e-14 0 0 7.26621e-15 -1.31131e-15 4.4044e-15 -2.63515e-14 0 0 -1.26622e-14 2.12091e-14 1.19653e-14 -3.44737e-14 0 0 -7.97319e-15 9.17598e-15 1.47264e-14 -1.64827e-14 0 0 2.03614e-14 -1.28922e-14 -8.05166e-15 3.26472e-14 0 0 1.23615e-14 3.16127e-15 -9.73021e-15 4.14415e-14 0 0 -4.41095e-15 1.74356e-14 1.13136e-14 3.84524e-14 0 0 -1.28498e-15 1.06993e-14 2.02936e-14 4.39807e-14 0 0 1.36824e-14 -2.90116e-15 2.79114e-14 1.87377e-14 0 0 2.46573e-14 -1.75115e-14 4.21108e-14 5.51742e-15 0 0 1.61523e-14 -3.25555e-15 2.25287e-14 4.93564e-15 0 0 1.37976e-14 5.04461e-15 1.23163e-14 -5.28783e-15 0 0 1.45996e-14 6.81269e-15 1.54727e-14 -6.76883e-15 0 0 1.32415e-14 2.06163e-14 -1.83828e-15 -1.33782e-14 0 0 2.46588e-14 1.04722e-14 -1.08822e-14 -3.03335e-15 0 0 9.01697e-15 -3.59208e-16 1.2505e-14 8.98233e-15 0 0 -5.33725e-15 -3.99309e-15 2.80858e-14 -1.4091e-14 0 0 1.18713e-14 -5.62582e-15 8.15602e-15 -3.29741e-14 0 0 -1.02328e-15 2.57603e-15 1.37595e-14 -1.90273e-14 0 0 3.73391e-17 1.23116e-14 2.33977e-14 1.3577e-14 0 0 1.71619e-14 1.07273e-14 3.25147e-15 2.96464e-14 0 0 2.40648e-16 6.62419e-15 -8.24528e-15 2.96297e-14 0 0 -2.07255e-14 1.86069e-14 -8.27625e-15 2.50054e-14 0 0 1.1571e-14 8.6994e-15 -1.44075e-14 2.12312e-14 0 0 2.75362e-14 -1.49401e-15 -1.2126e-14 -1.22055e-15 0 0 3.53722e-15 1.88729e-15 -1.48124e-15 -1.14257e-14 0 0 1.88464e-15 9.09752e-15 -7.68263e-16 -4.40671e-15 0 0 -2.72393e-14 1.51757e-14 -4.01506e-17 -4.76953e-15 0 0 2.79638e-15 -6.44785e-15 -1.26987e-14 -2.91007e-15 0 0 1.52742e-14 -5.05131e-15 -2.15024e-14 1.25448e-15 0 0 9.86857e-15 1.16798e-14 -1.41089e-14 -3.72998e-15 0 0 1.94261e-14 1.26236e-14 -2.64878e-15 5.16791e-15 0 0 2.60256e-14 4.28873e-14 5.35719e-14 2.87853e-14 0 0 1.43172e-13 2.29767e-13 2.47381e-13 1.42075e-13 0 0 3.20481e-13 5.00694e-13 4.94908e-13 3.25749e-13 0 0 9.15202e-13 1.47415e-12 1.4263e-12 9.20786e-13 0 0 9.09488e-13 1.49003e-12 1.38262e-12 9.31636e-13 0 0 8.60852e-13 1.33463e-12 1.33816e-12 8.22997e-13 0 0 7.60745e-13 1.15768e-12 1.21818e-12 7.31399e-13 0 0 6.13464e-13 9.99258e-13 9.70219e-13 6.12338e-13 0 0 4.95832e-13 8.10744e-13 8.46736e-13 4.86199e-13 0 0 4.54785e-13 8.19462e-13 8.12912e-13 4.7332e-13 0 0 5.78548e-13 1.04176e-12 9.60057e-13 5.88379e-13 0 0 8.06845e-13 1.34007e-12 1.27414e-12 8.28918e-13 0 0 9.92387e-13 1.64821e-12 1.52731e-12 1.02404e-12 0 0 1.14053e-12 1.86699e-12 1.79552e-12 1.08808e-12 0 0 1.18709e-12 1.9428e-12 1.94579e-12 1.12768e-12 0 0 1.12955e-12 1.86085e-12 1.80771e-12 1.20636e-12 0 0 1.04991e-12 1.65985e-12 1.63458e-12 1.06661e-12 0 0 8.30041e-13 1.31453e-12 1.36285e-12 7.67305e-13 0 0 5.74314e-13 9.51617e-13 9.40748e-13 5.96904e-13 0 0 3.39024e-13 5.69539e-13 5.2293e-13 3.24734e-13 0 0 1.67568e-13 2.72944e-13 2.23642e-13 1.70144e-13 0 0 5.89109e-14 9.09783e-14 7.07667e-14 8.2668e-14 0 0 1.06225e-14 2.49393e-14 3.30453e-14 6.43203e-15 0 0 -5.99929e-15 1.73355e-14 3.98647e-15 9.16033e-15 0 0 -9.99142e-15 4.80879e-15 2.28062e-14 8.13052e-15 0 0 1.66895e-14 -2.28256e-14 4.4122e-14 -1.14399e-14 0 0 7.60124e-15 -2.80077e-15 6.33686e-15 -9.54839e-15 0 0 -4.34177e-15 2.02216e-14 -2.18868e-14 5.96466e-15 0 0 1.20187e-14 3.09489e-15 -1.48447e-14 2.29354e-14 0 0 1.33716e-14 5.77083e-15 -4.22205e-15 -2.76649e-15 0 0 2.02017e-14 -9.45634e-15 1.48973e-14 -6.34905e-16 0 0 6.32766e-15 -1.37514e-14 1.90176e-14 4.04087e-14 0 0 -3.08382e-15 1.46775e-14 1.16356e-14 3.27247e-14 0 0 5.35529e-15 1.75604e-14 2.6783e-14 3.60851e-15 0 0 1.68304e-14 1.51182e-15 3.32838e-14 -1.10075e-14 0 0 3.74605e-14 -3.35199e-15 2.02382e-14 2.13215e-14 0 0 2.23679e-14 2.54176e-14 -2.2901e-14 5.1363e-14 0 0 2.2992e-14 2.91477e-14 -3.53358e-14 6.25409e-14 0 0 4.01106e-14 1.62585e-14 -1.60312e-14 3.43968e-14 0 0 2.8399e-14 1.84796e-14 -1.85673e-14 2.59566e-14 0 0 2.53341e-14 1.75692e-14 -1.19276e-14 2.90969e-14 0 0 1.79947e-14 3.84198e-14 -1.46386e-14 1.36821e-14 0 0 8.50299e-15 3.7654e-14 8.87369e-16 -4.77404e-16 0 0 1.58178e-14 2.91186e-14 6.90407e-15 -2.0033e-14 0 0 1.60685e-14 4.67338e-14 -1.66935e-15 -1.86424e-14 0 0 1.67506e-14 2.42219e-14 3.63557e-14 -3.9531e-14 0 0 2.22423e-14 -1.80449e-15 3.47928e-14 -1.77593e-14 0 0 2.42982e-14 1.5622e-14 -1.19581e-14 3.34487e-14 0 0 2.05737e-14 1.47926e-14 -1.62589e-14 3.22634e-14 0 0 3.65554e-15 2.36073e-14 -1.00272e-14 1.47189e-14 0 0 3.7565e-15 4.1783e-14 -8.07445e-15 6.25562e-15 0 0 2.54e-14 2.23469e-14 -1.56941e-15 -4.88708e-15 0 0 2.422e-14 8.71288e-15 -1.18011e-14 3.97709e-14 0 0 5.71208e-15 1.11736e-14 2.06179e-14 5.38494e-14 0 0 -3.38342e-16 3.11552e-14 3.91947e-14 -4.19423e-15 0 0 2.19432e-14 4.29598e-14 2.87767e-14 -1.60649e-14 0 0 3.4206e-14 6.18666e-14 -9.22976e-15 -8.19834e-16 0 0 3.01341e-14 4.81316e-14 -2.14032e-14 1.37801e-14 0 0 1.75051e-14 3.06598e-14 2.94215e-14 -3.67053e-14 0 0 4.86087e-15 1.91596e-14 8.11366e-14 -1.00043e-13 0 0 1.02516e-14 6.87771e-15 7.60036e-14 -5.37153e-14 0 0 4.59194e-15 3.51725e-14 5.79981e-14 -2.68504e-14 0 0 1.36679e-14 4.03104e-14 7.31799e-14 -3.28332e-14 0 0 1.84781e-14 2.70285e-14 6.30578e-14 -2.96468e-14 0 0 3.1351e-14 -6.27753e-15 5.45195e-14 4.53696e-15 0 0 5.46573e-14 -4.65284e-14 5.95794e-14 7.91895e-14 0 0 5.01319e-14 -5.40799e-14 7.42384e-14 7.43018e-14 0 0 4.08394e-14 -1.62956e-14 4.56929e-14 5.3944e-14 0 0 4.90896e-14 -1.22882e-14 3.21783e-14 3.90571e-14 0 0 5.0846e-14 1.28188e-14 6.65874e-15 2.46325e-14 0 0 3.84203e-14 4.96586e-14 -4.69595e-15 -4.5191e-15 0 0 2.09803e-14 4.79599e-14 5.29241e-14 -8.69209e-14 0 0 1.79798e-14 5.27078e-14 4.35323e-14 -7.15452e-14 0 0 4.73464e-14 2.46832e-14 1.12364e-14 7.87026e-15 0 0 4.72745e-14 -1.09912e-14 3.59003e-14 5.26174e-15 0 0 1.58475e-14 -3.0804e-15 4.66803e-14 8.74903e-15 0 0 2.07428e-14 6.35269e-15 2.01436e-14 2.25056e-14 0 0 2.4221e-14 1.87657e-14 -8.46447e-15 3.07216e-14 0 0 1.3871e-14 5.17027e-14 -3.20018e-14 2.70237e-14 0 0 1.31922e-14 9.55704e-15 6.75294e-15 1.63534e-14 0 0 4.59688e-16 -3.91816e-16 2.33702e-14 1.59473e-14 0 0 6.52942e-15 1.77244e-14 -1.2178e-14 -1.28956e-15 0 0 8.66657e-15 1.05861e-15 2.57174e-14 -1.93159e-14 0 0 4.88713e-15 3.2875e-14 3.2225e-14 -3.85988e-14 0 0 -3.32762e-15 5.64085e-14 -1.35945e-14 -2.11631e-14 0 0 -6.51175e-15 3.2036e-14 2.39588e-14 -2.59247e-14 0 0 9.40362e-15 3.17337e-16 1.40322e-14 1.20294e-14 0 0 5.78257e-15 -1.20886e-15 -3.51288e-15 4.03579e-14 0 0 1.23262e-14 3.64097e-15 8.36272e-15 1.10237e-14 0 0 8.6864e-15 8.45484e-15 8.63967e-16 1.20204e-14 0 0 5.31023e-15 9.55639e-15 4.33409e-14 1.03035e-14 0 0 6.63984e-15 5.49316e-16 7.03192e-14 8.35074e-15 0 0 -3.19379e-15 4.88558e-15 6.83779e-14 -3.3151e-14 0 0 2.8036e-14 -1.62764e-14 5.10793e-14 -1.97687e-14 0 0 3.96164e-14 1.57521e-14 -3.58685e-14 6.33389e-14 0 0 1.56856e-14 3.2525e-14 -4.68266e-14 4.23887e-14 0 0 3.08855e-14 -4.96827e-14 4.93937e-14 -2.35776e-14 0 0 1.30523e-14 -3.14416e-14 4.11018e-14 -1.1407e-14 0 0 -1.10804e-14 1.38946e-14 1.90949e-14 -1.20721e-14 0 0 -1.47488e-14 2.88196e-14 -1.24232e-14 1.08979e-14 0 0 -3.57871e-15 2.15601e-14 -2.87228e-14 1.4734e-14 0 0 1.46248e-14 -1.68743e-14 2.22821e-14 -1.9579e-14 0 0 0 0 0 0 0
				</DataArray>
				<DataArray Name="VitesseY" type="Float32" format="ascii">