<?xml version="1.0"?>
<VTKFile type="PolyData">
	<PolyData>
		<Piece NumberOfPoints="1206" NumberOfPolys="1000">
			<Points>
				<DataArray type="Float32" NumberOfComponents="3" format="ascii">
 0 0 0 0.02 0 0 0.04 0 0 0.06 0 0 0.08 0 0 0.1 0 0 0 0.005 0 0.02 0.005 0 0.04 0.005 0 0.06 0.005 0 0.08 0.005 0 0.1 0.005 0 0 0.01 0 0.02 0.01 0 0.04 0.01 0 0.06 0.01 0 0.08 0.01 0 0.1 0.01 0 0 0.015 0 0.02 0.015 0 0.04 0.015 0 0.06 0.015 0 0.08 0.015 0 0.1 0.015 0 0 0.02 0 0.02 0.02 0 0.04 0.02 0 0.06 0.02 0 0.08 0.02 0 0.1 0.02 0 0 0.025 0 0.02 0.025 0 0.04 0.025 0 0.06 0.025 0 0.08 0.025 0 0.1 0.025 0 0 0.03 0 0.02 0.03 0 0.04 0.03 0 0.06 0.03 0 0.08 0.03 0 0.1 0.03 0 0 0.035 0 0.02 0.035 0 0.04 0.035 0 0.06 0.035 0 0.08 0.035 0 0.1 0.035 0 0 0.04 0 0.02 0.04 0 0.04 0.04 0 0.06 0.04 0 0.08 0.04 0 0.1 0.04 0 0 0.045 0 0.02 0.045 0 0.04 0.045 0 0.06 0.045 0 0.08 0.045 0 0.1 0.045 0 0 0.05 0 0.02 0.05 0 0.04 0.05 0 0.06 0.05 0 0.08 0.05 0 0.1 0.05 0 0 0.055 0 0.02 0.055 0 0.04 0.055 0 0.06 0.055 0 0.08 0.055 0 0.1 0.055 0 0 0.06 0 0.02 0.06 0 0.04 0.06 0 0.06 0.06 0 0.08 0.06 0 0.1 0.06 0 0 0.065 0 0.02 0.065 0 0.04 0.065 0 0.06 0.065 0 0.08 0.065 0 0.1 0.065 0 0 0.07 0 0.02 0.07 0 0.04 0.07 0 0.06 0.07 0 0.08 0.07 0 0.1 0.07 0 0 0.075 0 0.02 0.075 0 0.04 0.075 0 0.06 0.075 0 0.08 0.075 0 0.1 0.075 0 0 0.08 0 0.02 0.08 0 0.04 0.08 0 0.06 0.08 0 0.08 0.08 0 0.1 0.08 0 0 0.085 0 0.02 0.085 0 0.04 0.085 0 0.06 0.085 0 0.08 0.085 0 0.1 0.085 0 0 0.09 0 0.02 0.09 0 0.04 0.09 0 0.06 0.09 0 0.08 0.09 0 0.1 0.09 0 0 0.095 0 0.02 0.095 0 0.04 0.095 0 0.06 0.095 0 0.08 0.095 0 0.1 0.095 0 0 0.1 0 0.02 0.1 0 0.04 0.1 0 0.06 0.1 0 0.08 0.1 0 0.1 0.1 0 0 0.105 0 0.02 0.105 0 0.04 0.105 0 0.06 0.105 0 0.08 0.105 0 0.1 0.105 0 0 0.11 0 0.02 0.11 0 0.04 0.11 0 0.06 0.11 0 0.08 0.11 0 0.1 0.11 0 0 0.115 0 0.02 0.115 0 0.04 0.115 0 0.06 0.115 0 0.08 0.115 0 0.1 0.115 0 0 0.12 0 0.02 0.12 0 0.04 0.12 0 0.06 0.12 0 0.08 0.12 0 0.1 0.12 0 0 0.125 0 0.02 0.125 0 0.04 0.125 0 0.06 0.125 0 0.08 0.125 0 0.1 0.125 0 0 0.13 0 0.02 0.13 0 0.04 0.13 0 0.06 0.13 0 0.08 0.13 0 0.1 0.13 0 0 0.135 0 0.02 0.135 0 0.04 0.135 0 0.06 0.135 0 0.08 0.135 0 0.1 0.135 0 0 0.14 0 0.02 0.14 0 0.04 0.14 0 0.06 0.14 0 0.08 0.14 0 0.1 0.14 0 0 0.145 0 0.02 0.145 0 0.04 0.145 0 0.06 0.145 0 0.08 0.145 0 0.1 0.145 0 0 0.15 0 0.02 0.15 0 0.04 0.15 0 0.06 0.15 0 0.08 0.15 0 0.1 0.15 0 0 0.155 0 0.02 0.155 0 0.04 0.155 0 0.06 0.155 0 0.08 0.155 0 0.1 0.155 0 0 0.16 0 0.02 0.16 0 0.04 0.16 0 0.06 0.16 0 0.08 0.16 0 0.1 0.16 0 0 0.165 0 0.02 0.165 0 0.04 0.165 0 0.06 0.165 0 0.08 0.165 0 0.1 0.165 0 0 0.17 0 0.02 0.17 0 0.04 0.17 0 0.06 0.17 0 0.08 0.17 0 0.1 0.17 0 0 0.175 0 0.02 0.175 0 0.04 0.175 0 0.06 0.175 0 0.08 0.175 0 0.1 0.175 0 0 0.18 0 0.02 0.18 0 0.04 0.18 0 0.06 0.18 0 0.08 0.18 0 0.1 0.18 0 0 0.185 0 0.02 0.185 0 0.04 0.185 0 0.06 0.185 0 0.08 0.185 0 0.1 0.185 0 0 0.19 0 0.02 0.19 0 0.04 0.19 0 0.06 0.19 0 0.08 0.19 0 0.1 0.19 0 0 0.195 0 0.02 0.195 0 0.04 0.195 0 0.06 0.195 0 0.08 0.195 0 0.1 0.195 0 0 0.2 0 0.02 0.2 0 0.04 0.2 0 0.06 0.2 0 0.08 0.2 0 0.1 0.2 0 0 0.205 0 0.02 0.205 0 0.04 0.205 0 0.06 0.205 0 0.08 0.205 0 0.1 0.205 0 0 0.21 0 0.02 0.21 0 0.04 0.21 0 0.06 0.21 0 0.08 0.21 0 0.1 0.21 0 0 0.215 0 0.02 0.215 0 0.04 0.215 0 0.06 0.215 0 0.08 0.215 0 0.1 0.215 0 0 0.22 0 0.02 0.22 0 0.04 0.22 0 0.06 0.22 0 0.08 0.22 0 0.1 0.22 0 0 0.225 0 0.02 0.225 0 0.04 0.225 0 0.06 0.225 0 0.08 0.225 0 0.1 0.225 0 0 0.23 0 0.02 0.23 0 0.04 0.23 0 0.06 0.23 0 0.08 0.23 0 0.1 0.23 0 0 0.235 0 0.02 0.235 0 0.04 0.235 0 0.06 0.235 0 0.08 0.235 0 0.1 0.235 0 0 0.24 0 0.02 0.24 0 0.04 0.24 0 0.06 0.24 0 0.08 0.24 0 0.1 0.24 0 0 0.245 0 0.02 0.245 0 0.04 0.245 0 0.06 0.245 0 0.08 0.245 0 0.1 0.245 0 0 0.25 0 0.02 0.25 0 0.04 0.25 0 0.06 0.25 0 0.08 0.25 0 0.1 0.25 0 0 0.255 0 0.02 0.255 0 0.04 0.255 0 0.06 0.255 0 0.08 0.255 0 0.1 0.255 0 0 0.26 0 0.02 0.26 0 0.04 0.26 0 0.06 0.26 0 0.08 0.26 0 0.1 0.26 0 0 0.265 0 0.02 0.265 0 0.04 0.265 0 0.06 0.265 0 0.08 0.265 0 0.1 0.265 0 0 0.27 0 0.02 0.27 0 0.04 0.27 0 0.06 0.27 0 0.08 0.27 0 0.1 0.27 0 0 0.275 0 0.02 0.275 0 0.04 0.275 0 0.06 0.275 0 0.08 0.275 0 0.1 0.275 0 0 0.28 0 0.02 0.28 0 0.04 0.28 0 0.06 0.28 0 0.08 0.28 0 0.1 0.28 0 0 0.285 0 0.02 0.285 0 0.04 0.285 0 0.06 0.285 0 0.08 0.285 0 0.1 0.285 0 0 0.290001 0 0.02 0.290001 0 0.04 0.290001 0 0.06 0.290001 0 0.08 0.290001 0 0.1 0.290001 0 0 0.295004 0 0.02 0.295004 0 0.04 0.295004 0 0.06 0.295004 0 0.08 0.295004 0 0.1 0.295004 0 0 0.300011 0 0.02 0.300011 0 0.04 0.300011 0 0.06 0.300011 0 0.08 0.300011 0 0.1 0.300011 0 0 0.305028 0 0.02 0.305028 0 0.04 0.305028 0 0.06 0.305028 0 0.08 0.305028 0 0.1 0.305028 0 0 0.310066 0 0.02 0.310066 0 0.04 0.310066 0 0.06 0.310066 0 0.08 0.310066 0 0.1 0.310066 0 0 0.315141 0 0.02 0.315141 0 0.04 0.315141 0 0.06 0.315141 0 0.08 0.315141 0 0.1 0.315141 0 0 0.320273 0 0.02 0.320273 0 0.04 0.320273 0 0.06 0.320273 0 0.08 0.320273 0 0.1 0.320273 0 0 0.325482 0 0.02 0.325482 0 0.04 0.325482 0 0.06 0.325482 0 0.08 0.325482 0 0.1 0.325482 0 0 0.330787 0 0.02 0.330787 0 0.04 0.330787 0 0.06 0.330787 0 0.08 0.330787 0 0.1 0.330787 0 0 0.336203 0 0.02 0.336203 0 0.04 0.336203 0 0.06 0.336203 0 0.08 0.336203 0 0.1 0.336203 0 0 0.341744 0 0.02 0.341744 0 0.04 0.341744 0 0.06 0.341744 0 0.08 0.341744 0 0.1 0.341744 0 0 0.34742 0 0.02 0.34742 0 0.04 0.34742 0 0.06 0.34742 0 0.08 0.34742 0 0.1 0.34742 0 0 0.353242 0 0.02 0.353242 0 0.04 0.353242 0 0.06 0.353242 0 0.08 0.353242 0 0.1 0.353242 0 0 0.359219 0 0.02 0.359219 0 0.04 0.359219 0 0.06 0.359219 0 0.08 0.359219 0 0.1 0.359219 0 0 0.365364 0 0.02 0.365364 0 0.04 0.365364 0 0.06 0.365364 0 0.08 0.365364 0 0.1 0.365364 0 0 0.371687 0 0.02 0.371687 0 0.04 0.371687 0 0.06 0.371687 0 0.08 0.371687 0 0.1 0.371687 0 0 0.378201 0 0.02 0.378201 0 0.04 0.378201 0 0.06 0.378201 0 0.08 0.378201 0 0.1 0.378201 0 0 0.38492 0 0.02 0.38492 0 0.04 0.38492 0 0.06 0.38492 0 0.08 0.38492 0 0.1 0.38492 0 0 0.391859 0 0.02 0.391859 0 0.04 0.391859 0 0.06 0.391859 0 0.08 0.391859 0 0.1 0.391859 0 0 0.399036 0 0.02 0.399036 0 0.04 0.399036 0 0.06 0.399036 0 0.08 0.399036 0 0.1 0.399036 0 0 0.406468 0 0.02 0.406468 0 0.04 0.406468 0 0.06 0.406468 0 0.08 0.406468 0 0.1 0.406468 0 0 0.414177 0 0.02 0.414177 0 0.04 0.414177 0 0.06 0.414177 0 0.08 0.414177 0 0.1 0.414177 0 0 0.422186 0 0.02 0.422186 0 0.04 0.422186 0 0.06 0.422186 0 0.08 0.422186 0 0.1 0.422186 0 0 0.430521 0 0.02 0.430521 0 0.04 0.430521 0 0.06 0.430521 0 0.08 0.430521 0 0.1 0.430521 0 0 0.439212 0 0.02 0.439212 0 0.04 0.439212 0 0.06 0.439212 0 0.08 0.439212 0 0.1 0.439212 0 0 0.448293 0 0.02 0.448293 0 0.04 0.448293 0 0.06 0.448293 0 0.08 0.448293 0 0.1 0.448293 0 0 0.457801 0 0.02 0.457801 0 0.04 0.457801 0 0.06 0.457801 0 0.08 0.457801 0 0.1 0.457801 0 0 0.467776 0 0.02 0.467776 0 0.04 0.467776 0 0.06 0.467776 0 0.08 0.467776 0 0.1 0.467776 0 0 0.47826 0 0.02 0.47826 0 0.04 0.47826 0 0.06 0.47826 0 0.08 0.47826 0 0.1 0.47826 0 0 0.489289 0 0.02 0.489289 0 0.04 0.489289 0 0.06 0.489289 0 0.08 0.489289 0 0.1 0.489289 0 0 0.50087 0 0.02 0.50087 0 0.04 0.50087 0 0.06 0.50087 0 0.08 0.50087 0 0.1 0.50087 0 0 0.51291 0 0.02 0.51291 0 0.04 0.51291 0 0.06 0.51291 0 0.08 0.51291 0 0.1 0.51291 0 0 0.525083 0 0.02 0.525083 0 0.04 0.525083 0 0.06 0.525083 0 0.08 0.525083 0 0.1 0.525083 0 0 0.53715 0 0.02 0.53715 0 0.04 0.53715 0 0.06 0.53715 0 0.08 0.53715 0 0.1 0.53715 0 0 0.549106 0 0.02 0.549106 0 0.04 0.549106 0 0.06 0.549106 0 0.08 0.549106 0 0.1 0.549106 0 0 0.560963 0 0.02 0.560963 0 0.04 0.560963 0 0.06 0.560963 0 0.08 0.560963 0 0.1 0.560963 0 0 0.572756 0 0.02 0.572756 0 0.04 0.572756 0 0.06 0.572756 0 0.08 0.572756 0 0.1 0.572756 0 0 0.584513 0 0.02 0.584513 0 0.04 0.584513 0 0.06 0.584513 0 0.08 0.584513 0 0.1 0.584513 0 0 0.596254 0 0.02 0.596254 0 0.04 0.596254 0 0.06 0.596254 0 0.08 0.596254 0 0.1 0.596254 0 0 0.607988 0 0.02 0.607988 0 0.04 0.607988 0 0.06 0.607988 0 0.08 0.607988 0 0.1 0.607988 0 0 0.61972 0 0.02 0.61972 0 0.04 0.61972 0 0.06 0.61972 0 0.08 0.61972 0 0.1 0.61972 0 0 0.631452 0 0.02 0.631452 0 0.04 0.631452 0 0.06 0.631452 0 0.08 0.631452 0 0.1 0.631452 0 0 0.643201 0 0.02 0.643201 0 0.04 0.643201 0 0.06 0.643201 0 0.08 0.643201 0 0.1 0.643201 0 0 0.645811 0 0.02 0.645811 0 0.04 0.645811 0 0.06 0.645811 0 0.08 0.645811 0 0.1 0.645811 0 0 0.648348 0 0.02 0.648348 0 0.04 0.648348 0 0.06 0.648348 0 0.08 0.648348 0 0.1 0.648348 0 0 0.650839 0 0.02 0.650839 0 0.04 0.650839 0 0.06 0.650839 0 0.08 0.650839 0 0.1 0.650839 0 0 0.653299 0 0.02 0.653299 0 0.04 0.653299 0 0.06 0.653299 0 0.08 0.653299 0 0.1 0.653299 0 0 0.655738 0 0.02 0.655738 0 0.04 0.655738 0 0.06 0.655738 0 0.08 0.655738 0 0.1 0.655738 0 0 0.658161 0 0.02 0.658161 0 0.04 0.658161 0 0.06 0.658161 0 0.08 0.658161 0 0.1 0.658161 0 0 0.660576 0 0.02 0.660576 0 0.04 0.660576 0 0.06 0.660576 0 0.08 0.660576 0 0.1 0.660576 0 0 0.662988 0 0.02 0.662988 0 0.04 0.662988 0 0.06 0.662988 0 0.08 0.662988 0 0.1 0.662988 0 0 0.665401 0 0.02 0.665401 0 0.04 0.665401 0 0.06 0.665401 0 0.08 0.665401 0 0.1 0.665401 0 0 0.667799 0 0.02 0.667799 0 0.04 0.667799 0 0.06 0.667799 0 0.08 0.667799 0 0.1 0.667799 0 0 0.670185 0 0.02 0.670185 0 0.04 0.670185 0 0.06 0.670185 0 0.08 0.670185 0 0.1 0.670185 0 0 0.672566 0 0.02 0.672566 0 0.04 0.672566 0 0.06 0.672566 0 0.08 0.672566 0 0.1 0.672566 0 0 0.674943 0 0.02 0.674943 0 0.04 0.674943 0 0.06 0.674943 0 0.08 0.674943 0 0.1 0.674943 0 0 0.677319 0 0.02 0.677319 0 0.04 0.677319 0 0.06 0.677319 0 0.08 0.677319 0 0.1 0.677319 0 0 0.67969 0 0.02 0.67969 0 0.04 0.67969 0 0.06 0.67969 0 0.08 0.67969 0 0.1 0.67969 0 0 0.68206 0 0.02 0.68206 0 0.04 0.68206 0 0.06 0.68206 0 0.08 0.68206 0 0.1 0.68206 0 0 0.684429 0 0.02 0.684429 0 0.04 0.684429 0 0.06 0.684429 0 0.08 0.684429 0 0.1 0.684429 0 0 0.686795 0 0.02 0.686795 0 0.04 0.686795 0 0.06 0.686795 0 0.08 0.686795 0 0.1 0.686795 0 0 0.689159 0 0.02 0.689159 0 0.04 0.689159 0 0.06 0.689159 0 0.08 0.689159 0 0.1 0.689159 0 0 0.691522 0 0.02 0.691522 0 0.04 0.691522 0 0.06 0.691522 0 0.08 0
[...]
			<PointData Scalars="VitesseX">
				<DataArray Name="VitesseX" type="Float32" format="ascii">
 0 0 0 0 0 0 0 2.75838e-15 4.55682e-15 -2.88425e-15 1.1324e-14 0 0 2.22584e-15 5.50523e-15 -2.23119e-15 9.85706e-15 0 0 1.75116e-15 5.75976e-15 -2.69247e-16 6.95602e-15 0 0 1.6625e-15 4.5215e-15 2.44357e-15 4.89213e-15 0 0 1.60209e-15 2.12735e-15 6.7886e-15 2.90689e-15 0 0 1.34623e-16 2.93498e-15 7.47126e-15 6.57972e-15 0 0 -4.52045e-16 4.83146e-15 5.65821e-15 1.05578e-14 0 0 9.98553e-16 6.09966e-15 2.17639e-15 1.12095e-14 0 0 2.26289e-15 6.94082e-15 -7.77507e-17 1.11423e-14 0 0 7.27373e-16 8.77899e-15 2.10042e-16 8.67962e-15 0 0 2.43718e-15 6.98056e-15 4.37936e-15 5.36401e-15 0 0 3.62039e-15 5.73064e-15 4.80596e-15 4.31135e-15 0 0 2.29229e-15 6.29729e-15 1.43882e-15 2.9877e-15 0 0 6.85862e-15 2.02065e-16 5.05078e-15 -2.28059e-15 0 0 6.3722e-15 2.10291e-15 2.49526e-15 -1.96699e-15 0 0 4.50942e-15 4.65099e-15 1.14291e-15 -2.6815e-15 0 0 1.56961e-15 7.04479e-15 2.95716e-16 -2.77351e-15 0 0 1.93823e-15 4.66093e-15 1.15331e-15 -3.35038e-15 0 0 3.21598e-15 2.93326e-15 1.27216e-15 -6.36964e-15 0 0 -2.11488e-15 4.53006e-15 4.07986e-15 -1.10438e-14 0 0 -5.06289e-15 2.07949e-15 6.14704e-15 -1.42637e-14 0 0 -4.28647e-15 -2.28733e-15 4.75046e-15 -7.6133e-15 0 0 -4.9138e-15 -1.28436e-15 7.0523e-16 -2.79041e-15 0 0 -3.09105e-15 -5.86887e-16 -2.85085e-15 -2.94474e-15 0 0 -4.0411e-15 4.70097e-16 -7.57414e-16 -2.67728e-15 0 0 -7.73142e-15 6.14042e-15 -4.36676e-16 -4.84457e-15 0 0 -8.37384e-15 7.6387e-15 -2.50444e-15 1.739e-15 0 0 1.48397e-16 3.80462e-16 -6.89437e-15 1.28974e-14 0 0 9.35723e-15 -1.24743e-14 -1.19212e-15 6.6979e-15 0 0 -6.09286e-16 -8.17882e-15 3.95619e-15 -2.24475e-15 0 0 -3.17959e-15 -9.22718e-15 5.42496e-15 -7.09455e-16 0 0 -3.93645e-15 -5.97593e-15 -1.81705e-15 3.68668e-15 0 0 -5.50324e-15 -1.19792e-16 -5.27758e-15 8.76957e-16 0 0 1.52426e-16 1.29704e-15 -7.61112e-15 1.15953e-15 0 0 3.36137e-15 -7.78036e-15 -4.25631e-15 5.86728e-15 0 0 1.42722e-15 -1.55455e-14 -2.26735e-17 4.6602e-15 0 0 9.78075e-16 -1.18908e-14 -1.97702e-15 -6.35374e-16 0 0 -3.23011e-15 -1.19455e-14 7.66738e-15 -8.65795e-15 0 0 -6.196e-16 -1.19992e-14 1.17888e-14 -6.08251e-15 0 0 1.10161e-17 -2.51281e-15 1.12535e-14 -7.47387e-15 0 0 3.53371e-15 -1.69693e-15 2.04409e-14 -4.21242e-15 0 0 1.07541e-14 -2.62306e-15 1.99955e-14 4.80814e-15 0 0 8.34782e-15 6.59501e-15 4.0073e-15 1.58049e-14 0 0 1.99919e-14 -8.92694e-15 7.08503e-15 2.09024e-14 0 0 2.55004e-14 -2.3912e-14 8.38201e-15 2.12573e-14 0 0 3.0921e-14 -2.42982e-14 1.12901e-14 1.46902e-14 0 0 9.13071e-15 9.78008e-15 -5.13602e-15 1.93469e-16 0 0 -1.32358e-14 1.75318e-14 -7.16177e-15 -2.04346e-14 0 0 -2.64323e-14 3.5829e-15 3.8917e-16 -3.33699e-14 0 0 -4.14061e-14 6.03381e-15 -4.0045e-14 -1.306e-14 0 0 -2.02939e-14 -1.07672e-14 -6.30759e-14 -8.43024e-15 0 0 -4.7131e-15 -2.37738e-14 -6.91559e-14 -1.98433e-14 0 0 -1.6329e-14 -2.27711e-14 -8.22647e-14 -2.88148e-15 0 0 -2.40887e-14 -2.25749e-14 -5.46799e-14 -6.91831e-15 0 0 -1.8478e-14 -2.92939e-14 -2.55493e-14 -1.86116e-14 0 0 -1.99734e-14 -4.18282e-14 -1.83039e-14 -2.01671e-14 0 0 -2.93053e-14 -1.52536e-14 -3.88423e-14 -1.15331e-14 0 0 -2.96629e-14 8.98267e-15 -5.34539e-14 1.13655e-14 0 0 -6.96325e-16 -3.68635e-14 -1.44351e-14 4.88869e-15 0 0 -3.45614e-15 -4.91822e-14 2.69857e-15 -1.12203e-14 0 0 -7.948e-15 -3.15291e-14 2.76844e-15 -3.67662e-14 0 0 -2.10599e-15 -1.08041e-14 -1.98572e-14 -3.62605e-14 0 0 -4.73189e-15 -5.84323e-15 -3.79239e-14 -1.56226e-14 0 0 6.18921e-15 -1.20189e-14 -3.89428e-14 -1.77341e-14 0 0 -2.57017e-15 -2.40743e-14 -3.37984e-14 -3.95993e-15 0 0 7.93837e-16 -4.03419e-14 1.91519e-15 -1.23334e-14 0 0 -7.56979e-15 -9.49933e-15 1.06086e-14 -3.67989e-15 0 0 -3.1278e-14 2.22327e-14 -3.6579e-15 1.69635e-14 0 0 -1.6644e-14 3.80233e-14 -3.44122e-14 2.02552e-14 0 0 2.57565e-14 1.16146e-14 -3.18633e-14 2.76668e-14 0 0 3.1422e-14 -3.7714e-14 8.27633e-15 4.07445e-15 0 0 -1.56998e-14 8.44284e-15 -2.78967e-14 8.47171e-16 0 0 -1.99443e-14 2.83826e-14 -1.79742e-14 -1.19312e-14 0 0 2.39771e-14 -1.26731e-14 1.78947e-14 -2.34989e-14 0 0 3.55189e-14 -1.14764e-14 -3.76912e-15 -3.39896e-15 0 0 1.17703e-14 -2.66954e-15 -3.11761e-14 1.68668e-14 0 0 1.04208e-14 -7.06037e-15 -2.6239e-14 2.62141e-14 0 0 9.8118e-15 -4.8156e-15 3.18463e-15 4.63595e-15 0 0 -1.56146e-14 3.22015e-14 -3.87305e-15 -3.68191e-14 0 0 -6.93566e-15 3.55616e-14 -1.41798e-14 -2.45977e-14 0 0 2.11731e-14 -1.12937e-15 2.38163e-15 8.9203e-15 0 0 3.58005e-14 -1.36674e-14 2.83256e-14 -1.19412e-14 0 0 7.7492e-15 2.00731e-15 2.2926e-14 -2.09803e-15 0 0 2.29716e-14 1.76568e-14 -7.38271e-15 2.00362e-14 0 0 2.60235e-14 1.6776e-14 1.50817e-14 4.48491e-15 0 0 1.88124e-14 1.17964e-14 1.15408e-14 -6.67652e-15 0 0 9.18639e-16 1.47767e-14 -1.37359e-14 3.29516e-15 0 0 -6.48434e-15 1.17447e-14 1.64805e-15 1.86606e-14 0 0 1.73715e-14 1.65529e-14 2.1533e-14 -6.7175e-15 0 0 2.05606e-14 1.57112e-14 1.64488e-14 -2.6733e-14 0 0 7.21902e-15 3.56895e-15 -8.48467e-15 -1.78155e-14 0 0 -2.57097e-14 -3.1215e-14 -3.3607e-14 -2.78971e-14 0 0 -5.41185e-14 -8.71313e-14 -9.76493e-14 -4.31822e-14 0 0 -8.64433e-14 -1.41639e-13 -1.62137e-13 -7.84063e-14 0 0 -1.07467e-13 -1.84388e-13 -1.90707e-13 -1.10662e-13 0 0 -1.21727e-13 -2.00387e-13 -1.95212e-13 -1.20177e-13 0 0 -1.18755e-13 -2.02179e-13 -2.02124e-13 -1.14239e-13 0 0 -1.26888e-13 -1.90312e-13 -2.08964e-13 -1.14159e-13 0 0 -1.40779e-13 -2.09975e-13 -2.16588e-13 -1.41613e-13 0 0 -1.55721e-13 -2.59422e-13 -2.48153e-13 -1.58188e-13 0 0 -2.59615e-13 -3.96154e-13 -3.92828e-13 -2.36389e-13 0 0 -2.75808e-13 -3.5267e-13 -4.44912e-13 -1.96031e-13 0 0 -2.67448e-13 -3.94967e-13 -3.92856e-13 -2.41729e-13 0 0 -2.75348e-13 -4.17174e-13 -3.68646e-13 -2.65938e-13 0 0 -2.98616e-13 -4.22895e-13 -4.24725e-13 -2.7141e-13 0 0 -2.9143e-13 -4.00127e-13 -4.42854e-13 -2.91245e-13 0 0 -2.54907e-13 -3.17482e-13 -3.21443e-13 -1.95549e-13 0 0 -1.09669e-13 -1.22998e-13 -6.78772e-14 -9.19397e-14 0 0 8.06263e-14 1.38471e-13 1.79747e-13 5.15384e-14 0 0 2.23968e-13 3.85259e-13 4.24126e-13 2.43222e-13 0 0 3.1555e-13 5.73439e-13 5.71422e-13 3.28174e-13 0 0 3.53081e-13 6.34852e-13 6.04117e-13 3.60726e-13 0 0 3.68834e-13 6.09847e-13 6.22895e-13 3.68985e-13 0 0 3.60206e-13 5.63902e-13 5.83576e-13 3.5287e-13 0 0 3.29761e-13 5.00642e-13 5.10729e-13 3.62009e-13 0 0 2.85029e-13 4.37196e-13 4.55761e-13 2.91648e-13 0 0 2.36884e-13 3.72265e-13 4.36204e-13 2.00343e-13 0 0 1.93983e-13 3.13138e-13 3.92786e-13 2.32356e-13 0 0 1.3511e-13 2.87934e-13 3.09366e-13 2.41103e-13 0 0 1.08315e-13 2.29856e-13 2.57795e-13 1.78887e-13 0 0 1.05346e-13 1.68964e-13 2.14954e-13 1.45071e-13 0 0 8.24042e-14 1.33827e-13 1.72743e-13 1.25031e-13 0 0 5.68718e-14 1.18755e-13 1.33434e-13 8.14732e-14 0 0 2.89762e-14 9.08142e-14 8.63653e-14 5.65935e-14 0 0 7.06146e-15 5.53588e-14 7.19781e-14 4.83186e-14 0 0 -2.66171e-14 3.65549e-14 6.48182e-14 1.27691e-14 0 0 -4.89419e-14 1.289e-15 1.90171e-14 -4.79621e-14 0 0 -5.0966e-14 -4.63786e-14 -2.64148e-14 -7.51963e-14 0 0 -8.68899e-14 -9.02933e-14 -3.39699e-14 -1.15821e-13 0 0 -1.21219e-13 -1.53378e-13 -2.93889e-14 -9.52564e-14 0 0 -1.29226e-13 -1.89574e-13 -9.49244e-14 -7.04447e-15 0 0 -1.48271e-13 -1.89211e-13 -1.12603e-13 -7.35526e-14 0 0 -1.60234e-13 -2.37232e-13 -1.2289e-13 -1.08078e-13 0 0 -1.49332e-13 -2.98224e-13 -1.79778e-13 -5.08614e-14 0 0 -1.6477e-13 -2.99278e-13 -2.9036e-13 -8.05706e-15 0 0 -2.20299e-13 -2.82051e-13 -3.69213e-13 -2.6085e-14 0 0 -2.52097e-13 -3.16365e-13 -3.38153e-13 -1.0427e-13 0 0 -2.47245e-13 -3.40504e-13 -3.48418e-13 -1.61674e-13 0 0 -2.53633e-13 -3.43889e-13 -3.52159e-13 -1.48669e-13 0 0 -2.66809e-13 -3.75282e-13 -3.80591e-13 -1.3339e-13 0 0 -2.81687e-13 -4.28883e-13 -3.13689e-13 -2.45361e-13 0 0 -2.70036e-13 -5.07349e-13 -2.29382e-13 -3.04982e-13 0 0 -3.07186e-13 -4.94396e-13 -3.40901e-13 -2.9967e-13 0 0 -3.5064e-13 -4.49564e-13 -4.66545e-13 -2.67882e-13 0 0 -3.05615e-13 -5.49673e-13 -4.4863e-13 -2.63164e-13 0 0 -2.76571e-13 -5.95091e-13 -4.37027e-13 -3.51876e-13 0 0 -3.01407e-13 -5.51893e-13 -4.60874e-13 -3.85718e-13 0 0 -3.30479e-13 -4.76573e-13 -4.85857e-13 -4.04207e-13 0 0 -3.2092e-13 -4.53157e-13 -5.17834e-13 -3.27686e-13 0 0 -2.92305e-13 -4.62195e-13 -4.86854e-13 -3.14502e-13 0 0 -3.00094e-13 -4.22951e-13 -4.47361e-13 -2.88756e-13 0 0 -2.53799e-13 -3.92099e-13 -4.64172e-13 -1.98721e-13 0 0 -1.94912e-13 -3.21154e-13 -4.1004e-13 -1.62843e-13 0 0 -1.61623e-13 -2.70293e-13 -3.14271e-13 -2.06462e-13 0 0 -1.18735e-13 -2.22342e-13 -2.80826e-13 -1.34793e-13 0 0 -9.89685e-14 -1.51435e-13 -1.43416e-13 -8.3217e-14 0 0 -7.25853e-14 -1.4368e-13 -9.33232e-14 -9.75986e-14 0 0 -5.22998e-14 -7.43237e-14 -1.3847e-13 1.58351e-14 0 0 -2.17744e-14 -6.18508e-14 -1.10423e-13 -2.3424e-15 0 0 1.93628e-15 -8.56183e-14 -1.04303e-13 -1.74182e-14 0 0 4.06842e-15 -8.03534e-14 -1.27203e-13 3.75734e-14 0 0 9.03362e-15 -8.64958e-14 -1.09559e-13 1.10296e-14 0 0 9.24362e-15 -8.58343e-14 -9.7079e-14 -4.83046e-14 0 0 -6.79926e-15 -7.80839e-14 -9.83603e-14 -4.9162e-14 0 0 -1.20365e-14 -7.38525e-14 -8.07667e-14 -7.06104e-14 0 0 -1.47265e-14 -7.47748e-14 -6.9311e-14 -8.85474e-14 0 0 -3.35631e-14 -6.75341e-14 -8.97167e-14 -4.8487e-14 0 0 -4.43531e-14 -6.70106e-14 -1.02255e-13 1.34191e-14 0 0 -6.27346e-14 -4.6023e-14 -1.10247e-13 -1.27626e-14 0 0 -7.04086e-14 -1.8691e-14 -1.43904e-13 -4.17727e-14 0 0 -5.96749e-14 -5.1099e-14 -8.14494e-14 -6.35072e-14 0 0 -4.4229e-14 -8.6314e-14 -4.40733e-14 -4.07964e-14 0 0 -4.07343e-14 -5.50785e-14 -1.10956e-13 2.66585e-14 0 0 -2.59743e-14 -6.70834e-14 -8.42721e-14 4.22696e-14 0 0 -3.55496e-14 -6.48884e-14 -4.24621e-14 5.39061e-14 0 0 -2.65729e-14 -4.33084e-14 -6.28688e-14 6.77937e-14 0 0 -3.64171e-14 -2.52083e-14 -5.04227e-14 3.3621e-14 0 0 -7.31005e-14 -7.23415e-15 -1.77753e-14 1.16266e-14 0 0 -5.16527e-14 -2.56188e-14 -1.61737e-15 1.9769e-14 0 0 -2.8913e-14 -4.23311e-14 9.50086e-15 2.13949e-14 0 0 -2.3341e-14 -6.66801e-15 -3.28828e-14 1.63368e-14 0 0 -4.73121e-15 4.72281e-14 -8.07761e-14 -2.3423e-14 0 0 1.87624e-14 1.36543e-14 -5.41972e-14 -6.6234e-14 0 0 2.0181e-14 -3.00508e-14 -1.34687e-14 -9.11009e-14 0 0 -1.38852e-14 -4.23382e-16 -3.13265e-14 -5.76956e-14 0 0 -2.62939e-14 7.95106e-16 -1.93401e-14 -1.659e-14 0 0 3.68169e-15 -4.9794e-14 2.1368e-14 -3.24518e-15 0 0 5.14039e-15 -8.75269e-15 -4.05676e-14 1.43467e-14 0 0 -2.04026e-14 6.02043e-14 -8.73404e-14 -1.32189e-14 0 0 -7.67139e-15 6.36613e-14 -8.29598e-14 -3.06135e-14 0 0 2.59239e-14 2.77155e-14 -6.41367e-14 -5.73783e-15 0 0 2.46512e-14 -5.44625e-15 -3.31581e-14 3.76072e-14 0 0 1.84544e-14 2.5579e-14 -8.60388e-14 1.01006e-13 0 0 4.11902e-14 1.91451e-14 -1.02424e-13 9.11515e-14 0 0 3.37327e-14 -2.45105e-14 -3.03613e-14 2.47031e-14 0 0 2.15385e-14 -4.05626e-14 1.17348e-14 -2.66231e-14 0 0 1.34267e-14 -4.65613e-15 -2.19248e-14 5.11697e-15 0 0 -1.89755e-14 2.29126e-14 -1.65493e-14 2.47643e-14 0 0 -7.40799e-15 1.5676e-14 -1.88148e-15 7.82813e-15 0 0 0 0 0 0 0
				</DataArray>
				<DataArray Name="VitesseY" type="Float32" format="ascii">