<?xml version="1.0"?>
<VTKFile type="PolyData">
	<PolyData>
		<Piece NumberOfPoints="1206" NumberOfPolys="1000">
			<Points>
				<DataArray type="Float32" NumberOfComponents="3" format="ascii">
 0 0 0 0.02 0 0 0.04 0 0 0.06 0 0 0.08 0 0 0.1 0 0 0 0.005 0 0.02 0.005 0 0.04 0.005 0 0.06 0.005 0 0.08 0.005 0 0.1 0.005 0 0 0.01 0 0.02 0.01 0 0.04 0.01 0 0.06 0.01 0 0.08 0.01 0 0.1 0.01 0 0 0.015 0 0.02 0.015 0 0.04 0.015 0 0.06 0.015 0 0.08 0.015 0 0.1 0.015 0 0 0.02 0 0.02 0.02 0 0.04 0.02 0 0.06 0.02 0 0.08 0.02 0 0.1 0.02 0 0 0.025 0 0.02 0.025 0 0.04 0.025 0 0.06 0.025 0 0.08 0.025 0 0.1 0.025 0 0 0.03 0 0.02 0.03 0 0.04 0.03 0 0.06 0.03 0 0.08 0.03 0 0.1 0.03 0 0 0.035 0 0.02 0.035 0 0.04 0.035 0 0.06 0.035 0 0.08 0.035 0 0.1 0.035 0 0 0.04 0 0.02 0.04 0 0.04 0.04 0 0.06 0.04 0 0.08 0.04 0 0.1 0.04 0 0 0.045 0 0.02 0.045 0 0.04 0.045 0 0.06 0.045 0 0.08 0.045 0 0.1 0.045 0 0 0.05 0 0.02 0.05 0 0.04 0.05 0 0.06 0.05 0 0.08 0.05 0 0.1 0.05 0 0 0.055 0 0.02 0.055 0 0.04 0.055 0 0.06 0.055 0 0.08 0.055 0 0.1 0.055 0 0 0.06 0 0.02 0.06 0 0.04 0.06 0 0.06 0.06 0 0.08 0.06 0 0.1 0.06 0 0 0.065 0 0.02 0.065 0 0.04 0.065 0 0.06 0.065 0 0.08 0.065 0 0.1 0.065 0 0 0.07 0 0.02 0.07 0 0.04 0.07 0 0.06 0.07 0 0.08 0.07 0 0.1 0.07 0 0 0.075 0 0.02 0.075 0 0.04 0.075 0 0.06 0.075 0 0.08 0.075 0 0.1 0.075 0 0 0.08 0 0.02 0.08 0 0.04 0.08 0 0.06 0.08 0 0.08 0.08 0 0.1 0.08 0 0 0.085 0 0.02 0.085 0 0.04 0.085 0 0.06 0.085 0 0.08 0.085 0 0.1 0.085 0 0 0.09 0 0.02 0.09 0 0.04 0.09 0 0.06 0.09 0 0.08 0.09 0 0.1 0.09 0 0 0.095 0 0.02 0.095 0 0.04 0.095 0 0.06 0.095 0 0.08 0.095 0 0.1 0.095 0 0 0.1 0 0.02 0.1 0 0.04 0.1 0 0.06 0.1 0 0.08 0.1 0 0.1 0.1 0 0 0.105 0 0.02 0.105 0 0.04 0.105 0 0.06 0.105 0 0.08 0.105 0 0.1 0.105 0 0 0.11 0 0.02 0.11 0 0.04 0.11 0 0.06 0.11 0 0.08 0.11 0 0.1 0.11 0 0 0.115 0 0.02 0.115 0 0.04 0.115 0 0.06 0.115 0 0.08 0.115 0 0.1 0.115 0 0 0.12 0 0.02 0.12 0 0.04 0.12 0 0.06 0.12 0 0.08 0.12 0 0.1 0.12 0 0 0.125 0 0.02 0.125 0 0.04 0.125 0 0.06 0.125 0 0.08 0.125 0 0.1 0.125 0 0 0.13 0 0.02 0.13 0 0.04 0.13 0 0.06 0.13 0 0.08 0.13 0 0.1 0.13 0 0 0.135 0 0.02 0.135 0 0.04 0.135 0 0.06 0.135 0 0.08 0.135 0 0.1 0.135 0 0 0.14 0 0.02 0.14 0 0.04 0.14 0 0.06 0.14 0 0.08 0.14 0 0.1 0.14 0 0 0.145 0 0.02 0.145 0 0.04 0.145 0 0.06 0.145 0 0.08 0.145 0 0.1 0.145 0 0 0.15 0 0.02 0.15 0 0.04 0.15 0 0.06 0.15 0 0.08 0.15 0 0.1 0.15 0 0 0.155 0 0.02 0.155 0 0.04 0.155 0 0.06 0.155 0 0.08 0.155 0 0.1 0.155 0 0 0.16 0 0.02 0.16 0 0.04 0.16 0 0.06 0.16 0 0.08 0.16 0 0.1 0.16 0 0 0.165 0 0.02 0.165 0 0.04 0.165 0 0.06 0.165 0 0.08 0.165 0 0.1 0.165 0 0 0.17 0 0.02 0.17 0 0.04 0.17 0 0.06 0.17 0 0.08 0.17 0 0.1 0.17 0 0 0.175 0 0.02 0.175 0 0.04 0.175 0 0.06 0.175 0 0.08 0.175 0 0.1 0.175 0 0 0.18 0 0.02 0.18 0 0.04 0.18 0 0.06 0.18 0 0.08 0.18 0 0.1 0.18 0 0 0.185 0 0.02 0.185 0 0.04 0.185 0 0.06 0.185 0 0.08 0.185 0 0.1 0.185 0 0 0.19 0 0.02 0.19 0 0.04 0.19 0 0.06 0.19 0 0.08 0.19 0 0.1 0.19 0 0 0.195 0 0.02 0.195 0 0.04 0.195 0 0.06 0.195 0 0.08 0.195 0 0.1 0.195 0 0 0.2 0 0.02 0.2 0 0.04 0.2 0 0.06 0.2 0 0.08 0.2 0 0.1 0.2 0 0 0.205 0 0.02 0.205 0 0.04 0.205 0 0.06 0.205 0 0.08 0.205 0 0.1 0.205 0 0 0.21 0 0.02 0.21 0 0.04 0.21 0 0.06 0.21 0 0.08 0.21 0 0.1 0.21 0 0 0.215 0 0.02 0.215 0 0.04 0.215 0 0.06 0.215 0 0.08 0.215 0 0.1 0.215 0 0 0.22 0 0.02 0.22 0 0.04 0.22 0 0.06 0.22 0 0.08 0.22 0 0.1 0.22 0 0 0.225 0 0.02 0.225 0 0.04 0.225 0 0.06 0.225 0 0.08 0.225 0 0.1 0.225 0 0 0.23 0 0.02 0.23 0 0.04 0.23 0 0.06 0.23 0 0.08 0.23 0 0.1 0.23 0 0 0.235 0 0.02 0.235 0 0.04 0.235 0 0.06 0.235 0 0.08 0.235 0 0.1 0.235 0 0 0.24 0 0.02 0.24 0 0.04 0.24 0 0.06 0.24 0 0.08 0.24 0 0.1 0.24 0 0 0.245 0 0.02 0.245 0 0.04 0.245 0 0.06 0.245 0 0.08 0.245 0 0.1 0.245 0 0 0.25 0 0.02 0.25 0 0.04 0.25 0 0.06 0.25 0 0.08 0.25 0 0.1 0.25 0 0 0.255 0 0.02 0.255 0 0.04 0.255 0 0.06 0.255 0 0.08 0.255 0 0.1 0.255 0 0 0.26 0 0.02 0.26 0 0.04 0.26 0 0.06 0.26 0 0.08 0.26 0 0.1 0.26 0 0 0.265 0 0.02 0.265 0 0.04 0.265 0 0.06 0.265 0 0.08 0.265 0 0.1 0.265 0 0 0.27 0 0.02 0.27 0 0.04 0.27 0 0.06 0.27 0 0.08 0.27 0 0.1 0.27 0 0 0.275 0 0.02 0.275 0 0.04 0.275 0 0.06 0.275 0 0.08 0.275 0 0.1 0.275 0 0 0.28 0 0.02 0.28 0 0.04 0.28 0 0.06 0.28 0 0.08 0.28 0 0.1 0.28 0 0 0.285 0 0.02 0.285 0 0.04 0.285 0 0.06 0.285 0 0.08 0.285 0 0.1 0.285 0 0 0.29 0 0.02 0.29 0 0.04 0.29 0 0.06 0.29 0 0.08 0.29 0 0.1 0.29 0 0 0.295 0 0.02 0.295 0 0.04 0.295 0 0.06 0.295 0 0.08 0.295 0 0.1 0.295 0 0 0.3 0 0.02 0.3 0 0.04 0.3 0 0.06 0.3 0 0.08 0.3 0 0.1 0.3 0 0 0.305 0 0.02 0.305 0 0.04 0.305 0 0.06 0.305 0 0.08 0.305 0 0.1 0.305 0 0 0.31 0 0.02 0.31 0 0.04 0.31 0 0.06 0.31 0 0.08 0.31 0 0.1 0.31 0 0 0.315 0 0.02 0.315 0 0.04 0.315 0 0.06 0.315 0 0.08 0.315 0 0.1 0.315 0 0 0.32 0 0.02 0.32 0 0.04 0.32 0 0.06 0.32 0 0.08 0.32 0 0.1 0.32 0 0 0.325 0 0.02 0.325 0 0.04 0.325 0 0.06 0.325 0 0.08 0.325 0 0.1 0.325 0 0 0.330002 0 0.02 0.330002 0 0.04 0.330002 0 0.06 0.330002 0 0.08 0.330002 0 0.1 0.330002 0 0 0.335006 0 0.02 0.335006 0 0.04 0.335006 0 0.06 0.335006 0 0.08 0.335006 0 0.1 0.335006 0 0 0.340018 0 0.02 0.340018 0 0.04 0.340018 0 0.06 0.340018 0 0.08 0.340018 0 0.1 0.340018 0 0 0.345047 0 0.02 0.345047 0 0.04 0.345047 0 0.06 0.345047 0 0.08 0.345047 0 0.1 0.345047 0 0 0.350112 0 0.02 0.350112 0 0.04 0.350112 0 0.06 0.350112 0 0.08 0.350112 0 0.1 0.350112 0 0 0.355237 0 0.02 0.355237 0 0.04 0.355237 0 0.06 0.355237 0 0.08 0.355237 0 0.1 0.355237 0 0 0.360451 0 0.02 0.360451 0 0.04 0.360451 0 0.06 0.360451 0 0.08 0.360451 0 0.1 0.360451 0 0 0.365781 0 0.02 0.365781 0 0.04 0.365781 0 0.06 0.365781 0 0.08 0.365781 0 0.1 0.365781 0 0 0.37125 0 0.02 0.37125 0 0.04 0.37125 0 0.06 0.37125 0 0.08 0.37125 0 0.1 0.37125 0 0 0.376878 0 0.02 0.376878 0 0.04 0.376878 0 0.06 0.376878 0 0.08 0.376878 0 0.1 0.376878 0 0 0.382682 0 0.02 0.382682 0 0.04 0.382682 0 0.06 0.382682 0 0.08 0.382682 0 0.1 0.382682 0 0 0.388678 0 0.02 0.388678 0 0.04 0.388678 0 0.06 0.388678 0 0.08 0.388678 0 0.1 0.388678 0 0 0.394884 0 0.02 0.394884 0 0.04 0.394884 0 0.06 0.394884 0 0.08 0.394884 0 0.1 0.394884 0 0 0.401319 0 0.02 0.401319 0 0.04 0.401319 0 0.06 0.401319 0 0.08 0.401319 0 0.1 0.401319 0 0 0.408003 0 0.02 0.408003 0 0.04 0.408003 0 0.06 0.408003 0 0.08 0.408003 0 0.1 0.408003 0 0 0.41496 0 0.02 0.41496 0 0.04 0.41496 0 0.06 0.41496 0 0.08 0.41496 0 0.1 0.41496 0 0 0.422216 0 0.02 0.422216 0 0.04 0.422216 0 0.06 0.422216 0 0.08 0.422216 0 0.1 0.422216 0 0 0.429801 0 0.02 0.429801 0 0.04 0.429801 0 0.06 0.429801 0 0.08 0.429801 0 0.1 0.429801 0 0 0.437749 0 0.02 0.437749 0 0.04 0.437749 0 0.06 0.437749 0 0.08 0.437749 0 0.1 0.437749 0 0 0.446099 0 0.02 0.446099 0 0.04 0.446099 0 0.06 0.446099 0 0.08 0.446099 0 0.1 0.446099 0 0 0.454899 0 0.02 0.454899 0 0.04 0.454899 0 0.06 0.454899 0 0.08 0.454899 0 0.1 0.454899 0 0 0.464199 0 0.02 0.464199 0 0.04 0.464199 0 0.06 0.464199 0 0.08 0.464199 0 0.1 0.464199 0 0 0.474059 0 0.02 0.474059 0 0.04 0.474059 0 0.06 0.474059 0 0.08 0.474059 0 0.1 0.474059 0 0 0.48454 0 0.02 0.48454 0 0.04 0.48454 0 0.06 0.48454 0 0.08 0.48454 0 0.1 0.48454 0 0 0.495691 0 0.02 0.495691 0 0.04 0.495691 0 0.06 0.495691 0 0.08 0.495691 0 0.1 0.495691 0 0 0.507495 0 0.02 0.507495 0 0.04 0.507495 0 0.06 0.507495 0 0.08 0.507495 0 0.1 0.507495 0 0 0.519708 0 0.02 0.519708 0 0.04 0.519708 0 0.06 0.519708 0 0.08 0.519708 0 0.1 0.519708 0 0 0.531858 0 0.02 0.531858 0 0.04 0.531858 0 0.06 0.531858 0 0.08 0.531858 0 0.1 0.531858 0 0 0.543866 0 0.02 0.543866 0 0.04 0.543866 0 0.06 0.543866 0 0.08 0.543866 0 0.1 0.543866 0 0 0.555746 0 0.02 0.555746 0 0.04 0.555746 0 0.06 0.555746 0 0.08 0.555746 0 0.1 0.555746 0 0 0.567546 0 0.02 0.567546 0 0.04 0.567546 0 0.06 0.567546 0 0.08 0.567546 0 0.1 0.567546 0 0 0.579306 0 0.02 0.579306 0 0.04 0.579306 0 0.06 0.579306 0 0.08 0.579306 0 0.1 0.579306 0 0 0.591051 0 0.02 0.591051 0 0.04 0.591051 0 0.06 0.591051 0 0.08 0.591051 0 0.1 0.591051 0 0 0.602793 0 0.02 0.602793 0 0.04 0.602793 0 0.06 0.602793 0 0.08 0.602793 0 0.1 0.602793 0 0 0.614544 0 0.02 0.614544 0 0.04 0.614544 0 0.06 0.614544 0 0.08 0.614544 0 0.1 0.614544 0 0 0.617154 0 0.02 0.617154 0 0.04 0.617154 0 0.06 0.617154 0 0.08 0.617154 0 0.1 0.617154 0 0 0.61969 0 0.02 0.61969 0 0.04 0.61969 0 0.06 0.61969 0 0.08 0.61969 0 0.1 0.61969 0 0 0.622181 0 0.02 0.622181 0 0.04 0.622181 0 0.06 0.622181 0 0.08 0.622181 0 0.1 0.622181 0 0 0.624642 0 0.02 0.624642 0 0.04 0.624642 0 0.06 0.624642 0 0.08 0.624642 0 0.1 0.624642 0 0 0.627081 0 0.02 0.627081 0 0.04 0.627081 0 0.06 0.627081 0 0.08 0.627081 0 0.1 0.627081 0 0 0.629505 0 0.02 0.629505 0 0.04 0.629505 0 0.06 0.629505 0 0.08 0.629505 0 0.1 0.629505 0 0 0.631919 0 0.02 0.631919 0 0.04 0.631919 0 0.06 0.631919 0 0.08 0.631919 0 0.1 0.631919 0 0 0.634333 0 0.02 0.634333 0 0.04 0.634333 0 0.06 0.634333 0 0.08 0.634333 0 0.1 0.634333 0 0 0.636747 0 0.02 0.636747 0 0.04 0.636747 0 0.06 0.636747 0 0.08 0.636747 0 0.1 0.636747 0 0 0.639146 0 0.02 0.639146 0 0.04 0.639146 0 0.06 0.639146 0 0.08 0.639146 0 0.1 0.639146 0 0 0.641535 0 0.02 0.641535 0 0.04 0.641535 0 0.06 0.641535 0 0.08 0.641535 0 0.1 0.641535 0 0 0.643917 0 0.02 0.643917 0 0.04 0.643917 0 0.06 0.643917 0 0.08 0.643917 0 0.1 0.643917 0 0 0.646296 0 0.02 0.646296 0 0.04 0.646296 0 0.06 0.646296 0 0.08 0.646296 0 0.1 0.646296 0 0 0.648673 0 0.02 0.648673 0 0.04 0.648673 0 0.06 0.648673 0 0.08 0.648673 0 0.1 0.648673 0 0 0.651047 0 0.02 0.651047 0 0.04 0.651047 0 0.06 0.651047 0 0.08 0.651047 0 0.1 0.651047 0 0 0.653418 0 0.02 0.653418 0 0.04 0.653418 0 0.06 0.653418 0 0.08 0.653418 0 0.1 0.653418 0 0 0.655788 0 0.02 0.655788 0 0.04 0.655788 0 0.06 0.655788 0 0.08 0.655788 0 0.1 0.655788 0 0 0.658156 0 0.02 0.658156 0 0.04 0.658156 0 0.06 0.658156 0 0.08 0.658156 0 0.1 0.658156 0 0 0.660521 0 0.02 0.660521 0 0.04 0.660521 0 0.06 0.660521 0 0.08 0.660521 0 0.1 0.660521 0 0 0.662884 0 0.02 0.662884 0 0.04 0.662884 0 0.06 0.662884 0 0.08 0.662884 0 0.1 0.662884 0 0 0.665247 0 0.02 0.665247 0 0.04 0.665247 0 0.06 0.665247 0 0.08 0.665247 0 0.1 0.665247 0 0 0.667611 0 0.02 0.667611 
[...]
			<PointData Scalars="VitesseX">
				<DataArray Name="VitesseX" type="Float32" format="ascii">
 0 -4.03506e-16 3.90927e-15 2.24253e-15 8.25929e-15 0 0 5.39077e-16 2.95462e-15 2.83147e-15 7.8084e-15 0 0 2.10115e-15 1.43669e-15 3.49192e-15 7.65442e-15 0 0 2.73748e-15 1.17562e-15 2.03961e-15 9.4099e-15 0 0 1.77349e-15 2.95845e-15 -7.44491e-16 1.14031e-14 0 0 1.04705e-15 3.77122e-15 -1.87986e-15 1.20941e-14 0 0 -2.49109e-16 3.80308e-15 -1.56284e-15 1.15306e-14 0 0 -1.05671e-15 3.65734e-15 2.88038e-16 8.84424e-15 0 0 2.47313e-15 -9.84975e-17 4.21467e-15 6.50184e-15 0 0 3.64781e-15 -1.04756e-15 6.66116e-15 5.34181e-15 0 0 9.43123e-16 2.25e-15 5.17955e-15 3.40442e-15 0 0 -2.83016e-15 4.98158e-15 3.9623e-15 1.65056e-15 0 0 -1.93096e-15 2.98913e-15 3.19562e-15 3.4697e-15 0 0 2.29934e-15 1.47064e-16 -1.7552e-15 8.9055e-15 0 0 2.32252e-15 1.36479e-15 -5.92185e-15 1.37314e-14 0 0 -2.49932e-15 3.78883e-15 -2.52757e-15 1.2918e-14 0 0 -1.11144e-15 -3.07073e-16 4.32506e-15 7.59233e-15 0 0 5.05375e-15 -2.78362e-15 6.09415e-15 4.37631e-15 0 0 3.18504e-15 5.44062e-15 -3.11449e-16 1.02465e-14 0 0 4.40959e-15 1.34168e-15 5.41015e-15 1.39835e-14 0 0 5.83375e-15 1.49031e-15 7.18477e-15 1.0817e-14 0 0 6.9686e-15 8.41749e-15 -1.29001e-16 9.99302e-15 0 0 9.00962e-15 8.94161e-15 -5.0201e-15 1.68522e-14 0 0 1.05431e-14 6.23721e-15 -4.73889e-15 1.62008e-14 0 0 1.5553e-14 -1.76168e-15 3.89457e-15 8.17691e-16 0 0 9.92948e-15 3.23279e-16 7.06246e-15 -9.60311e-15 0 0 4.6073e-15 -3.10693e-16 5.44375e-15 -6.79941e-15 0 0 7.93277e-15 -6.87847e-15 -2.8823e-15 5.34334e-15 0 0 7.665e-15 -3.95383e-15 -5.70735e-15 1.46021e-14 0 0 -1.11066e-16 8.31005e-15 -7.9179e-15 2.10239e-14 0 0 -7.60222e-15 1.26672e-14 -8.73204e-15 1.57088e-14 0 0 -1.48328e-15 -5.56833e-16 3.04536e-16 4.12928e-15 0 0 2.01219e-15 -2.96084e-15 -1.0002e-15 2.93995e-15 0 0 5.08946e-15 -1.20642e-16 -1.53257e-16 -7.67878e-15 0 0 7.25398e-15 5.44716e-15 2.74879e-16 -1.55354e-14 0 0 9.52034e-17 1.29423e-14 -3.97462e-15 -7.25651e-15 0 0 1.35448e-15 7.48778e-15 -4.73767e-15 -4.08782e-15 0 0 8.25586e-15 -3.06636e-15 6.41233e-16 -3.51746e-15 0 0 4.41904e-15 2.69604e-15 2.72523e-15 -6.27865e-15 0 0 2.6895e-15 1.09672e-14 -1.89393e-15 -1.45129e-14 0 0 1.86697e-16 1.13801e-14 -4.43199e-15 -1.19049e-14 0 0 -5.25771e-15 8.95731e-15 -6.5042e-15 -1.27502e-15 0 0 -4.39483e-15 8.07333e-16 -4.82051e-15 1.13565e-15 0 0 -2.89811e-15 -3.80314e-15 2.84536e-15 -1.8855e-14 0 0 -2.14943e-15 5.89109e-16 -3.39415e-15 -1.63207e-14 0 0 -5.69837e-15 8.46977e-15 -7.16322e-15 -3.3854e-15 0 0 -1.26988e-14 1.28487e-14 1.74939e-16 -3.52804e-15 0 0 -9.44594e-15 9.22071e-15 8.93387e-15 -1.66486e-14 0 0 2.91661e-15 -8.01696e-15 2.78146e-14 -3.09696e-14 0 0 4.58235e-15 -6.30855e-15 2.09607e-14 -1.3833e-14 0 0 4.33226e-15 5.00615e-15 1.24308e-14 3.41947e-16 0 0 7.52153e-15 5.99358e-15 1.29337e-14 1.67015e-14 0 0 7.61116e-15 1.38515e-14 6.65757e-15 2.5332e-14 0 0 1.67002e-14 8.40557e-15 2.61145e-14 1.59114e-14 0 0 1.62862e-14 1.10766e-14 2.98137e-14 1.02808e-14 0 0 1.51024e-15 9.74404e-15 1.81117e-14 2.40159e-15 0 0 1.11886e-14 -2.19452e-15 8.76253e-15 -9.12743e-15 0 0 1.87033e-14 4.4657e-16 -1.08233e-14 -1.477e-14 0 0 2.42062e-15 -2.38933e-14 9.77107e-16 -2.60725e-14 0 0 -1.53805e-14 -2.29351e-14 -1.3797e-14 -3.56115e-14 0 0 -1.43681e-14 -3.1913e-16 -4.63702e-14 -8.35268e-15 0 0 -3.2944e-14 1.50616e-14 -2.98391e-14 -5.98221e-15 0 0 -3.08042e-14 3.3823e-16 -1.90453e-14 -6.65029e-15 0 0 4.96515e-15 -2.19893e-14 -1.14238e-14 -9.86651e-15 0 0 9.27747e-15 -6.27876e-15 -7.73542e-15 -2.62938e-14 0 0 -1.17695e-14 -1.18866e-14 -1.4481e-14 -2.35817e-14 0 0 -3.7691e-14 1.123e-15 -4.61244e-14 -5.12723e-15 0 0 -2.30911e-14 1.84973e-14 -5.49314e-14 1.30722e-14 0 0 4.1645e-14 -3.39798e-14 1.13549e-14 -4.49194e-14 0 0 5.41575e-14 -4.59052e-14 2.075e-14 -7.26191e-14 0 0 -4.79139e-16 -1.03735e-14 -1.54654e-14 -3.85791e-14 0 0 -3.82902e-14 1.66695e-14 -4.22233e-14 -2.77526e-14 0 0 -2.24685e-14 -4.39023e-15 -1.09941e-15 -3.59757e-14 0 0 2.21411e-15 -2.14704e-14 1.33895e-14 -1.59423e-14 0 0 -5.96194e-15 5.62703e-15 -3.01399e-14 2.39158e-14 0 0 -6.10681e-15 1.31128e-14 -3.01766e-14 1.1468e-14 0 0 -1.83759e-14 -1.02499e-15 1.42353e-14 -3.62356e-14 0 0 -2.27209e-14 -4.76558e-15 2.48312e-14 -3.79746e-14 0 0 2.72022e-15 5.98594e-15 -8.14707e-15 -3.47848e-15 0 0 1.15251e-14 -1.97727e-14 -4.3625e-15 7.92404e-15 0 0 -1.58389e-15 -3.75011e-14 1.3496e-14 2.10342e-14 0 0 -3.73609e-14 -1.56636e-14 1.59801e-14 2.72664e-14 0 0 -2.81652e-14 2.16088e-14 -2.408e-14 8.6227e-15 0 0 -6.921e-16 5.74695e-15 -2.88568e-14 -7.8652e-15 0 0 -2.03477e-14 -6.8334e-15 -1.04037e-14 -1.85054e-14 0 0 -1.14891e-14 -1.27144e-14 -3.6958e-15 -8.16953e-15 0 0 -7.51709e-15 -8.06614e-16 -1.8633e-15 -1.76661e-14 0 0 9.51613e-15 2.46164e-15 1.81087e-14 -2.86859e-14 0 0 7.28886e-15 3.62817e-15 1.48872e-14 -2.05151e-14 0 0 2.0054e-15 7.36941e-16 9.4763e-15 6.16864e-15 0 0 -1.68853e-14 5.7265e-15 7.02399e-15 4.00849e-14 0 0 -1.25575e-14 2.55862e-14 7.33623e-15 4.00364e-14 0 0 3.71597e-14 1.91661e-14 4.87804e-14 1.34573e-14 0 0 3.26319e-14 3.2441e-14 4.83065e-14 3.19017e-15 0 0 3.57304e-15 1.10788e-14 -2.25311e-15 -3.26879e-15 0 0 -4.08659e-14 -6.02308e-14 -7.59207e-14 -3.11825e-14 0 0 -9.22908e-14 -1.63106e-13 -1.47747e-13 -8.74431e-14 0 0 -1.41227e-13 -2.36257e-13 -2.26187e-13 -1.44065e-13 0 0 -1.76988e-13 -2.82679e-13 -2.92794e-13 -1.83468e-13 0 0 -2.05988e-13 -3.36238e-13 -3.41769e-13 -2.21251e-13 0 0 -2.45062e-13 -3.98413e-13 -4.07504e-13 -2.61409e-13 0 0 -4.32537e-13 -7.05971e-13 -6.63884e-13 -4.64022e-13 0 0 -4.27899e-13 -6.90714e-13 -6.95014e-13 -4.38742e-13 0 0 -4.15661e-13 -7.02423e-13 -7.10309e-13 -4.40397e-13 0 0 -4.13972e-13 -7.46222e-13 -6.9028e-13 -4.48615e-13 0 0 -4.4477e-13 -7.5916e-13 -7.1624e-13 -4.67107e-13 0 0 -4.63286e-13 -7.37695e-13 -7.56308e-13 -4.02368e-13 0 0 -4.02132e-13 -6.75151e-13 -6.83379e-13 -3.35929e-13 0 0 -2.66595e-13 -4.66867e-13 -4.65051e-13 -2.46114e-13 0 0 -1.12634e-13 -1.91176e-13 -1.81329e-13 -1.10718e-13 0 0 4.59161e-14 2.76524e-14 5.27655e-14 7.09709e-15 0 0 1.44382e-13 1.97583e-13 1.79668e-13 1.52578e-13 0 0 1.6163e-13 2.65848e-13 2.2747e-13 2.17474e-13 0 0 1.77348e-13 2.21938e-13 2.5976e-13 1.5966e-13 0 0 1.51884e-13 1.8932e-13 1.77453e-13 1.61034e-13 0 0 9.97901e-14 1.56081e-13 1.00263e-13 1.37377e-13 0 0 6.31169e-14 9.44228e-14 3.66794e-14 5.67269e-14 0 0 1.04503e-14 5.35097e-14 -4.27303e-14 4.42902e-14 0 0 -2.03001e-14 -3.03551e-14 -5.92889e-14 3.60871e-14 0 0 -3.80223e-14 -1.26935e-13 -6.98081e-14 -5.13697e-14 0 0 -7.60504e-14 -1.52742e-13 -9.50093e-14 -1.21727e-13 0 0 -9.88893e-14 -1.8873e-13 -1.61279e-13 -8.25427e-14 0 0 -1.32148e-13 -2.35661e-13 -2.10908e-13 -7.74722e-14 0 0 -1.77363e-13 -2.60805e-13 -2.55967e-13 -1.21847e-13 0 0 -1.82165e-13 -2.89567e-13 -3.1933e-13 -1.46227e-13 0 0 -1.71359e-13 -3.33205e-13 -3.19639e-13 -1.69012e-13 0 0 -1.97554e-13 -3.72656e-13 -3.33473e-13 -1.67458e-13 0 0 -2.09619e-13 -4.21485e-13 -3.44833e-13 -2.50318e-13 0 0 -2.4117e-13 -4.13702e-13 -3.75421e-13 -3.31862e-13 0 0 -2.69552e-13 -4.34814e-13 -4.15513e-13 -3.26629e-13 0 0 -2.40365e-13 -4.98328e-13 -4.45585e-13 -2.60509e-13 0 0 -2.26258e-13 -4.72813e-13 -4.83626e-13 -2.46021e-13 0 0 -2.7133e-13 -4.15446e-13 -5.17539e-13 -2.97348e-13 0 0 -3.01605e-13 -4.08412e-13 -5.83912e-13 -2.57468e-13 0 0 -2.72663e-13 -4.45583e-13 -5.30813e-13 -3.17515e-13 0 0 -2.71271e-13 -4.50005e-13 -4.50386e-13 -4.22873e-13 0 0 -2.7059e-13 -4.36727e-13 -5.34546e-13 -3.43251e-13 0 0 -2.28199e-13 -4.14117e-13 -5.86438e-13 -1.95727e-13 0 0 -2.20511e-13 -3.83849e-13 -4.48149e-13 -2.30918e-13 0 0 -2.3138e-13 -3.75531e-13 -4.05819e-13 -3.07471e-13 0 0 -1.86886e-13 -3.31882e-13 -3.96348e-13 -2.86099e-13 0 0 -1.79143e-13 -2.50282e-13 -4.07835e-13 -2.95875e-13 0 0 -1.45301e-13 -1.89483e-13 -3.40062e-13 -2.3663e-13 0 0 -8.26509e-14 -1.70867e-13 -1.7631e-13 -1.16849e-13 0 0 -6.01674e-14 -1.44281e-13 -1.19259e-13 -8.96934e-14 0 0 -4.95204e-14 -7.07509e-14 -6.92295e-14 -8.14219e-14 0 0 -3.82816e-14 -9.67883e-15 -7.44409e-14 -4.19969e-14 0 0 -1.89165e-14 -1.18738e-16 -6.1627e-14 -3.3715e-14 0 0 -8.89523e-15 -1.50561e-14 -3.60588e-14 -1.56601e-15 0 0 -1.35209e-14 -1.17772e-14 -6.01033e-14 7.71993e-16 0 0 -1.09401e-14 -2.2267e-14 -5.91222e-14 -2.23636e-14 0 0 -1.20408e-14 -4.57147e-14 -3.84325e-14 -1.47506e-14 0 0 -2.79577e-14 -3.45857e-14 -2.44741e-14 -3.25493e-14 0 0 -3.41206e-14 -2.93212e-14 -1.68161e-14 -5.76943e-14 0 0 -3.06844e-14 -5.22792e-14 -8.21558e-15 -6.86903e-14 0 0 -1.20827e-14 -6.75463e-14 -5.07573e-15 -5.06779e-14 0 0 -1.62142e-14 -3.86744e-14 -2.82799e-14 -4.69139e-14 0 0 -3.82855e-14 -1.26493e-14 -6.18627e-14 -3.79974e-14 0 0 -4.71008e-14 -3.20828e-14 -3.1609e-14 -5.44171e-14 0 0 -5.78909e-14 -1.84664e-14 -1.47208e-14 -7.35495e-14 0 0 -4.44514e-14 -1.19865e-14 -3.46748e-15 -1.25799e-13 0 0 -1.99391e-14 -4.21704e-14 3.67804e-14 -1.68579e-13 0 0 -2.848e-14 -9.06946e-15 1.15263e-14 -1.49668e-13 0 0 -7.44978e-14 6.527e-14 -4.15977e-14 -1.05456e-13 0 0 -6.4913e-14 4.43063e-14 -2.25686e-14 -7.56446e-14 0 0 -1.61824e-14 -1.19088e-14 1.65138e-14 -7.84879e-14 0 0 -3.21114e-14 1.22192e-14 8.32427e-15 -4.32548e-14 0 0 -2.52061e-14 -4.45565e-15 2.90546e-14 -3.87521e-14 0 0 -1.18376e-14 -3.84883e-14 5.98994e-14 -2.29372e-15 0 0 -3.3552e-14 -6.97076e-15 5.91987e-14 2.72548e-14 0 0 3.59251e-15 -7.53549e-15 8.05914e-14 -4.28282e-14 0 0 4.11418e-14 -7.47225e-15 7.11863e-14 -7.73741e-14 0 0 -3.94083e-15 4.45675e-14 3.96249e-14 -7.93489e-14 0 0 -9.26286e-15 1.70495e-14 6.94896e-14 -1.11649e-13 0 0 -1.25582e-14 -2.23052e-14 1.16266e-13 -1.79639e-13 0 0 -6.96309e-14 2.13703e-14 5.7363e-14 -1.76901e-13 0 0 -4.02207e-14 -9.27546e-15 6.15549e-15 -7.01296e-14 0 0 1.70196e-14 -7.24001e-14 5.0468e-14 -3.80041e-14 0 0 5.44899e-14 -8.19064e-14 7.4689e-14 -5.0193e-14 0 0 5.6975e-14 -5.08228e-14 4.50378e-14 -3.47178e-14 0 0 1.01625e-14 1.70986e-14 -3.25507e-14 2.73537e-14 0 0 1.47618e-14 -1.92008e-14 2.05538e-16 6.15242e-14 0 0 7.36965e-15 -3.19777e-14 1.26944e-14 5.74274e-14 0 0 -4.64075e-14 2.08139e-14 -1.34002e-14 3.94811e-14 0 0 -3.70501e-14 -7.62043e-17 1.53172e-14 1.03625e-14 0 0 -8.86158e-15 -2.92353e-14 3.88805e-14 1.02568e-14 0 0 -6.27586e-15 -1.89794e-14 4.00429e-14 2.12982e-14 0 0 2.92008e-15 -4.52769e-15 1.23297e-14 4.15635e-14 0 0 2.34058e-15 -1.11041e-14 2.80796e-14 2.38829e-14 0 0 1.12474e-14 -1.63379e-14 3.65205e-14 -1.21636e-14 0 0 2.64659e-15 1.187e-14 8.85033e-15 -2.21731e-14 0 0 -1.324e-14 3.18664e-14 3.77392e-14 -2.17984e-14 0 0 6.10029e-15 1.50685e-14 6.22834e-14 2.67553e-16 0 0 2.72129e-14 -9.49298e-15 6.37942e-14 2.06199e-14 0 0 -2.39646e-14 3.15986e-14 7.19408e-14 1.46326e-14 0 0 -5.04201e-14 8.19778e-14 2.69929e-14 3.93738e-14 0 0 4.96853e-15 2.60717e-14 1.41494e-14 5.44409e-14 0 0 3.56048e-14 -2.17728e-14 4.61666e-14 2.35861e-14 0 0 1.33142e-14 2.26144e-14 3.11116e-14 2.00683e-14 0 0 3.36438e-15 3.91829e-14 6.3506e-14 3.94034e-16 0 0 2.28019e-14 1.07902e-14 1.1822e-13 -2.84259e-14 0
				</DataArray>
				<DataArray Name="VitesseY" type="Float32" format="ascii">