<?xml version="1.0"?>
<VTKFile type="PolyData">
	<PolyData>
		<Piece NumberOfPoints="1206" NumberOfPolys="1000">
			<Points>
				<DataArray type="Float32" NumberOfComponents="3" format="ascii">
 0 0 0 0.02 0 0 0.04 0 0 0.06 0 0 0.08 0 0 0.1 0 0 0 0.005 0 0.02 0.005 0 0.04 0.005 0 0.06 0.005 0 0.08 0.005 0 0.1 0.005 0 0 0.01 0 0.02 0.01 0 0.04 0.01 0 0.06 0.01 0 0.08 0.01 0 0.1 0.01 0 0 0.015 0 0.02 0.015 0 0.04 0.015 0 0.06 0.015 0 0.08 0.015 0 0.1 0.015 0 0 0.02 0 0.02 0.02 0 0.04 0.02 0 0.06 0.02 0 0.08 0.02 0 0.1 0.02 0 0 0.025 0 0.02 0.025 0 0.04 0.025 0 0.06 0.025 0 0.08 0.025 0 0.1 0.025 0 0 0.03 0 0.02 0.03 0 0.04 0.03 0 0.06 0.03 0 0.08 0.03 0 0.1 0.03 0 0 0.035 0 0.02 0.035 0 0.04 0.035 0 0.06 0.035 0 0.08 0.035 0 0.1 0.035 0 0 0.04 0 0.02 0.04 0 0.04 0.04 0 0.06 0.04 0 0.08 0.04 0 0.1 0.04 0 0 0.045 0 0.02 0.045 0 0.04 0.045 0 0.06 0.045 0 0.08 0.045 0 0.1 0.045 0 0 0.05 0 0.02 0.05 0 0.04 0.05 0 0.06 0.05 0 0.08 0.05 0 0.1 0.05 0 0 0.055 0 0.02 0.055 0 0.04 0.055 0 0.06 0.055 0 0.08 0.055 0 0.1 0.055 0 0 0.06 0 0.02 0.06 0 0.04 0.06 0 0.06 0.06 0 0.08 0.06 0 0.1 0.06 0 0 0.065 0 0.02 0.065 0 0.04 0.065 0 0.06 0.065 0 0.08 0.065 0 0.1 0.065 0 0 0.07 0 0.02 0.07 0 0.04 0.07 0 0.06 0.07 0 0.08 0.07 0 0.1 0.07 0 0 0.075 0 0.02 0.075 0 0.04 0.075 0 0.06 0.075 0 0.08 0.075 0 0.1 0.075 0 0 0.08 0 0.02 0.08 0 0.04 0.08 0 0.06 0.08 0 0.08 0.08 0 0.1 0.08 0 0 0.085 0 0.02 0.085 0 0.04 0.085 0 0.06 0.085 0 0.08 0.085 0 0.1 0.085 0 0 0.09 0 0.02 0.09 0 0.04 0.09 0 0.06 0.09 0 0.08 0.09 0 0.1 0.09 0 0 0.095 0 0.02 0.095 0 0.04 0.095 0 0.06 0.095 0 0.08 0.095 0 0.1 0.095 0 0 0.1 0 0.02 0.1 0 0.04 0.1 0 0.06 0.1 0 0.08 0.1 0 0.1 0.1 0 0 0.105 0 0.02 0.105 0 0.04 0.105 0 0.06 0.105 0 0.08 0.105 0 0.1 0.105 0 0 0.11 0 0.02 0.11 0 0.04 0.11 0 0.06 0.11 0 0.08 0.11 0 0.1 0.11 0 0 0.115 0 0.02 0.115 0 0.04 0.115 0 0.06 0.115 0 0.08 0.115 0 0.1 0.115 0 0 0.12 0 0.02 0.12 0 0.04 0.12 0 0.06 0.12 0 0.08 0.12 0 0.1 0.12 0 0 0.125 0 0.02 0.125 0 0.04 0.125 0 0.06 0.125 0 0.08 0.125 0 0.1 0.125 0 0 0.13 0 0.02 0.13 0 0.04 0.13 0 0.06 0.13 0 0.08 0.13 0 0.1 0.13 0 0 0.135 0 0.02 0.135 0 0.04 0.135 0 0.06 0.135 0 0.08 0.135 0 0.1 0.135 0 0 0.14 0 0.02 0.14 0 0.04 0.14 0 0.06 0.14 0 0.08 0.14 0 0.1 0.14 0 0 0.145 0 0.02 0.145 0 0.04 0.145 0 0.06 0.145 0 0.08 0.145 0 0.1 0.145 0 0 0.15 0 0.02 0.15 0 0.04 0.15 0 0.06 0.15 0 0.08 0.15 0 0.1 0.15 0 0 0.155 0 0.02 0.155 0 0.04 0.155 0 0.06 0.155 0 0.08 0.155 0 0.1 0.155 0 0 0.16 0 0.02 0.16 0 0.04 0.16 0 0.06 0.16 0 0.08 0.16 0 0.1 0.16 0 0 0.165 0 0.02 0.165 0 0.04 0.165 0 0.06 0.165 0 0.08 0.165 0 0.1 0.165 0 0 0.17 0 0.02 0.17 0 0.04 0.17 0 0.06 0.17 0 0.08 0.17 0 0.1 0.17 0 0 0.175 0 0.02 0.175 0 0.04 0.175 0 0.06 0.175 0 0.08 0.175 0 0.1 0.175 0 0 0.18 0 0.02 0.18 0 0.04 0.18 0 0.06 0.18 0 0.08 0.18 0 0.1 0.18 0 0 0.185 0 0.02 0.185 0 0.04 0.185 0 0.06 0.185 0 0.08 0.185 0 0.1 0.185 0 0 0.19 0 0.02 0.19 0 0.04 0.19 0 0.06 0.19 0 0.08 0.19 0 0.1 0.19 0 0 0.195 0 0.02 0.195 0 0.04 0.195 0 0.06 0.195 0 0.08 0.195 0 0.1 0.195 0 0 0.2 0 0.02 0.2 0 0.04 0.2 0 0.06 0.2 0 0.08 0.2 0 0.1 0.2 0 0 0.205 0 0.02 0.205 0 0.04 0.205 0 0.06 0.205 0 0.08 0.205 0 0.1 0.205 0 0 0.21 0 0.02 0.21 0 0.04 0.21 0 0.06 0.21 0 0.08 0.21 0 0.1 0.21 0 0 0.215 0 0.02 0.215 0 0.04 0.215 0 0.06 0.215 0 0.08 0.215 0 0.1 0.215 0 0 0.22 0 0.02 0.22 0 0.04 0.22 0 0.06 0.22 0 0.08 0.22 0 0.1 0.22 0 0 0.225 0 0.02 0.225 0 0.04 0.225 0 0.06 0.225 0 0.08 0.225 0 0.1 0.225 0 0 0.23 0 0.02 0.23 0 0.04 0.23 0 0.06 0.23 0 0.08 0.23 0 0.1 0.23 0 0 0.235 0 0.02 0.235 0 0.04 0.235 0 0.06 0.235 0 0.08 0.235 0 0.1 0.235 0 0 0.24 0 0.02 0.24 0 0.04 0.24 0 0.06 0.24 0 0.08 0.24 0 0.1 0.24 0 0 0.245 0 0.02 0.245 0 0.04 0.245 0 0.06 0.245 0 0.08 0.245 0 0.1 0.245 0 0 0.25 0 0.02 0.25 0 0.04 0.25 0 0.06 0.25 0 0.08 0.25 0 0.1 0.25 0 0 0.255 0 0.02 0.255 0 0.04 0.255 0 0.06 0.255 0 0.08 0.255 0 0.1 0.255 0 0 0.26 0 0.02 0.26 0 0.04 0.26 0 0.06 0.26 0 0.08 0.26 0 0.1 0.26 0 0 0.265 0 0.02 0.265 0 0.04 0.265 0 0.06 0.265 0 0.08 0.265 0 0.1 0.265 0 0 0.27 0 0.02 0.27 0 0.04 0.27 0 0.06 0.27 0 0.08 0.27 0 0.1 0.27 0 0 0.275 0 0.02 0.275 0 0.04 0.275 0 0.06 0.275 0 0.08 0.275 0 0.1 0.275 0 0 0.28 0 0.02 0.28 0 0.04 0.28 0 0.06 0.28 0 0.08 0.28 0 0.1 0.28 0 0 0.285 0 0.02 0.285 0 0.04 0.285 0 0.06 0.285 0 0.08 0.285 0 0.1 0.285 0 0 0.29 0 0.02 0.29 0 0.04 0.29 0 0.06 0.29 0 0.08 0.29 0 0.1 0.29 0 0 0.295 0 0.02 0.295 0 0.04 0.295 0 0.06 0.295 0 0.08 0.295 0 0.1 0.295 0 0 0.3 0 0.02 0.3 0 0.04 0.3 0 0.06 0.3 0 0.08 0.3 0 0.1 0.3 0 0 0.305 0 0.02 0.305 0 0.04 0.305 0 0.06 0.305 0 0.08 0.305 0 0.1 0.305 0 0 0.31 0 0.02 0.31 0 0.04 0.31 0 0.06 0.31 0 0.08 0.31 0 0.1 0.31 0 0 0.315 0 0.02 0.315 0 0.04 0.315 0 0.06 0.315 0 0.08 0.315 0 0.1 0.315 0 0 0.32 0 0.02 0.32 0 0.04 0.32 0 0.06 0.32 0 0.08 0.32 0 0.1 0.32 0 0 0.325 0 0.02 0.325 0 0.04 0.325 0 0.06 0.325 0 0.08 0.325 0 0.1 0.325 0 0 0.33 0 0.02 0.33 0 0.04 0.33 0 0.06 0.33 0 0.08 0.33 0 0.1 0.33 0 0 0.335 0 0.02 0.335 0 0.04 0.335 0 0.06 0.335 0 0.08 0.335 0 0.1 0.335 0 0 0.34 0 0.02 0.34 0 0.04 0.34 0 0.06 0.34 0 0.08 0.34 0 0.1 0.34 0 0 0.345 0 0.02 0.345 0 0.04 0.345 0 0.06 0.345 0 0.08 0.345 0 0.1 0.345 0 0 0.35 0 0.02 0.35 0 0.04 0.35 0 0.06 0.35 0 0.08 0.35 0 0.1 0.35 0 0 0.355 0 0.02 0.355 0 0.04 0.355 0 0.06 0.355 0 0.08 0.355 0 0.1 0.355 0 0 0.36 0 0.02 0.36 0 0.04 0.36 0 0.06 0.36 0 0.08 0.36 0 0.1 0.36 0 0 0.365 0 0.02 0.365 0 0.04 0.365 0 0.06 0.365 0 0.08 0.365 0 0.1 0.365 0 0 0.37 0 0.02 0.37 0 0.04 0.37 0 0.06 0.37 0 0.08 0.37 0 0.1 0.37 0 0 0.375 0 0.02 0.375 0 0.04 0.375 0 0.06 0.375 0 0.08 0.375 0 0.1 0.375 0 0 0.38 0 0.02 0.38 0 0.04 0.38 0 0.06 0.38 0 0.08 0.38 0 0.1 0.38 0 0 0.385 0 0.02 0.385 0 0.04 0.385 0 0.06 0.385 0 0.08 0.385 0 0.1 0.385 0 0 0.39 0 0.02 0.39 0 0.04 0.39 0 0.06 0.39 0 0.08 0.39 0 0.1 0.39 0 0 0.395 0 0.02 0.395 0 0.04 0.395 0 0.06 0.395 0 0.08 0.395 0 0.1 0.395 0 0 0.4 0 0.02 0.4 0 0.04 0.4 0 0.06 0.4 0 0.08 0.4 0 0.1 0.4 0 0 0.405001 0 0.02 0.405001 0 0.04 0.405001 0 0.06 0.405001 0 0.08 0.405001 0 0.1 0.405001 0 0 0.410003 0 0.02 0.410003 0 0.04 0.410003 0 0.06 0.410003 0 0.08 0.410003 0 0.1 0.410003 0 0 0.415014 0 0.02 0.415014 0 0.04 0.415014 0 0.06 0.415014 0 0.08 0.415014 0 0.1 0.415014 0 0 0.42005 0 0.02 0.42005 0 0.04 0.42005 0 0.06 0.42005 0 0.08 0.42005 0 0.1 0.42005 0 0 0.425151 0 0.02 0.425151 0 0.04 0.425151 0 0.06 0.425151 0 0.08 0.425151 0 0.1 0.425151 0 0 0.430381 0 0.02 0.430381 0 0.04 0.430381 0 0.06 0.430381 0 0.08 0.430381 0 0.1 0.430381 0 0 0.43582 0 0.02 0.43582 0 0.04 0.43582 0 0.06 0.43582 0 0.08 0.43582 0 0.1 0.43582 0 0 0.441545 0 0.02 0.441545 0 0.04 0.441545 0 0.06 0.441545 0 0.08 0.441545 0 0.1 0.441545 0 0 0.447629 0 0.02 0.447629 0 0.04 0.447629 0 0.06 0.447629 0 0.08 0.447629 0 0.1 0.447629 0 0 0.454148 0 0.02 0.454148 0 0.04 0.454148 0 0.06 0.454148 0 0.08 0.454148 0 0.1 0.454148 0 0 0.461187 0 0.02 0.461187 0 0.04 0.461187 0 0.06 0.461187 0 0.08 0.461187 0 0.1 0.461187 0 0 0.468851 0 0.02 0.468851 0 0.04 0.468851 0 0.06 0.468851 0 0.08 0.468851 0 0.1 0.468851 0 0 0.477273 0 0.02 0.477273 0 0.04 0.477273 0 0.06 0.477273 0 0.08 0.477273 0 0.1 0.477273 0 0 0.486625 0 0.02 0.486625 0 0.04 0.486625 0 0.06 0.486625 0 0.08 0.486625 0 0.1 0.486625 0 0 0.497101 0 0.02 0.497101 0 0.04 0.497101 0 0.06 0.497101 0 0.08 0.497101 0 0.1 0.497101 0 0 0.50881 0 0.02 0.50881 0 0.04 0.50881 0 0.06 0.50881 0 0.08 0.50881 0 0.1 0.50881 0 0 0.521238 0 0.02 0.521238 0 0.04 0.521238 0 0.06 0.521238 0 0.08 0.521238 0 0.1 0.521238 0 0 0.533405 0 0.02 0.533405 0 0.04 0.533405 0 0.06 0.533405 0 0.08 0.533405 0 0.1 0.533405 0 0 0.545323 0 0.02 0.545323 0 0.04 0.545323 0 0.06 0.545323 0 0.08 0.545323 0 0.1 0.545323 0 0 0.557139 0 0.02 0.557139 0 0.04 0.557139 0 0.06 0.557139 0 0.08 0.557139 0 0.1 0.557139 0 0 0.559761 0 0.02 0.559761 0 0.04 0.559761 0 0.06 0.559761 0 0.08 0.559761 0 0.1 0.559761 0 0 0.562309 0 0.02 0.562309 0 0.04 0.562309 0 0.06 0.562309 0 0.08 0.562309 0 0.1 0.562309 0 0 0.56481 0 0.02 0.56481 0 0.04 0.56481 0 0.06 0.56481 0 0.08 0.56481 0 0.1 0.56481 0 0 0.567281 0 0.02 0.567281 0 0.04 0.567281 0 0.06 0.567281 0 0.08 0.567281 0 0.1 0.567281 0 0 0.569729 0 0.02 0.569729 0 0.04 0.569729 0 0.06 0.569729 0 0.08 0.569729 0 0.1 0.569729 0 0 0.57216 0 0.02 0.57216 0 0.04 0.57216 0 0.06 0.57216 0 0.08 0.57216 0 0.1 0.57216 0 0 0.574582 0 0.02 0.574582 0 0.04 0.574582 0 0.06 0.574582 0 0.08 0.574582 0 0.1 0.574582 0 0 0.577003 0 0.02 0.577003 0 0.04 0.577003 0 0.06 0.577003 0 0.08 0.577003 0 0.1 0.577003 0 0 0.579426 0 0.02 0.579426 0 0.04 0.579426 0 0.06 0.579426 0 0.08 0.579426 0 0.1 0.579426 0 0 0.581835 0 0.02 0.581835 0 0.04 0.581835 0 0.06 0.581835 0 0.08 0.581835 0 0.1 0.581835 0 0 0.584236 0 0.02 0.584236 0 0.04 0.584236 0 0.06 0.584236 0 0.08 0.584236 0 0.1 0.584236 0 0 0.586633 0 0.02 0.586633 0 0.04 0.586633 0 0.06 0.586633 0 0.08 0.586633 0 0.1 0.586633 0 0 0.589031 0 0.02 0.589031 0 0.04 0.589031 0 0.06 0.589031 0 0.08 0.589031 0 0.1 0.589031 0 0 0.591433 0 0.02 0.591433 0 0.04 0.591433 0 0.06 0.591433 0 0.08 0.591433 0 0.1 0.591433 0 0 0.593845 0 0.02 0.593845 0 0.04 0.593845 0 0.06 0.593845 0 0.08 0.593845 0 0.1 0.593845 0 0 0.596264 0 0.02 0.596264 0 0.04 0.596264 0 0.06 0.596264 0 0.08 0.596264 0 0.1 0.596264 0 0 0.598743 0 0.02 0.598743 0 0.04 0.598743 0 0.06 0.598743 0 0.08 0.598743 0 0.1 0.598743 0 0 0.601312 0 0.02 0.601312 0 0.04 0.601312 0 0.06 0.601312 0 0.08 0.601312 0 0.1 0.601312 0 0 0.603997 0 0.02 0.603997 0 0.04 0.603997 0 0.06 0.603997 0 0.08 0.603997 0 0.1 0.603997 0 0 0.606856 0 0.02 0.606856 0 0.04 0.606856 0 0.06 0.606856 0 0.08 0.606856 0 0.1 0.606856 0 0 0.609939 0 0.02 0.609939 0 0.04 0.609939 0 0.06 0.609939 0 0.08 0.609939 0 0.1 0.609939 0 0 0.613317 0 0.02 0.613317 0 0.04 0.613317 0 0.06 0.613317 0 0.08 0.613317 0 0.1 0.613317 0 0 0.617036 0 0.02 0.617036 0 0.04 0.617036 0 0.06 0.617036 0 0.08 0.617036 0 0.1 0.617036 0 0 0.621119 0 0.02 0.621119 0 0.04 0.621119 0 0.06 0.621119 0 0.08 0.621119 0 0.1 0.621119 0 0 0.625539 0 0.02 0.625539 0 0.04 0.625539 0 0.06 0.625539 0 0.08 0.625539 0 0.1 
[...]
			<PointData Scalars="VitesseX">
				<DataArray Name="VitesseX" type="Float32" format="ascii">
 0 0 0 0 0 0 0 9.71329e-16 -1.59179e-15 3.62622e-15 7.19541e-16 0 0 5.98122e-16 -1.12789e-15 4.02312e-15 1.88333e-15 0 0 2.43926e-17 -2.99438e-16 3.07217e-15 3.793e-15 0 0 -1.77663e-15 1.51363e-15 2.14895e-15 4.43533e-15 0 0 -1.64767e-15 6.53278e-16 4.29424e-15 2.39383e-15 0 0 4.21181e-17 -1.82868e-15 5.90187e-15 1.14712e-15 0 0 -1.33554e-15 3.44543e-16 2.63554e-15 3.97465e-15 0 0 7.88613e-17 -6.81506e-16 3.03439e-15 3.70474e-15 0 0 1.93442e-15 -1.62845e-15 4.18234e-15 2.01215e-15 0 0 1.25802e-15 -8.92905e-16 5.23712e-15 2.53867e-15 0 0 1.08416e-15 3.32202e-16 4.1631e-15 6.45483e-15 0 0 9.06644e-16 3.45613e-15 -2.50044e-15 1.25687e-14 0 0 4.73789e-15 -3.6061e-15 4.64157e-15 6.47769e-15 0 0 3.11607e-15 -1.77127e-15 5.61369e-15 4.28698e-15 0 0 4.58762e-17 4.93187e-15 -3.78306e-15 1.10559e-14 0 0 2.96734e-15 3.15951e-16 -2.19964e-15 9.57738e-15 0 0 3.84824e-15 1.32878e-16 1.37532e-15 4.26131e-15 0 0 8.31815e-16 1.98417e-15 4.25924e-15 1.68021e-15 0 0 1.20973e-15 -3.02417e-15 7.34554e-15 2.20623e-15 0 0 6.33597e-15 -5.9189e-15 5.30465e-15 5.32424e-15 0 0 5.44953e-15 1.94471e-15 -5.7864e-15 1.38501e-14 0 0 2.04973e-15 7.11604e-15 -1.1046e-14 1.43114e-14 0 0 4.19944e-15 2.28201e-15 -4.7609e-15 1.05245e-14 0 0 3.51375e-15 4.30562e-15 -3.90533e-15 9.84261e-15 0 0 4.51486e-15 6.5251e-15 -9.31131e-15 9.13872e-15 0 0 5.89341e-15 3.24594e-15 -5.41267e-15 5.35966e-15 0 0 1.78237e-15 -1.9794e-15 2.14114e-17 7.52139e-15 0 0 -7.62203e-16 -8.67307e-15 1.07703e-15 1.66058e-14 0 0 -5.59659e-15 -6.64757e-15 6.1225e-15 1.40899e-14 0 0 -8.21807e-15 -4.76275e-16 7.60609e-16 1.22698e-14 0 0 -7.45295e-16 7.67612e-16 -5.40651e-15 8.484e-15 0 0 7.65023e-15 -7.42543e-15 -2.99127e-15 8.18066e-16 0 0 4.33423e-15 -3.35814e-15 -1.9315e-15 -3.44245e-15 0 0 9.40385e-16 4.38537e-15 -7.63247e-16 -2.41324e-15 0 0 -7.58171e-16 4.73061e-15 -7.77755e-16 6.07902e-15 0 0 1.42553e-15 5.4796e-15 4.35064e-15 5.671e-15 0 0 6.94421e-15 -5.98729e-16 1.10335e-14 2.20166e-15 0 0 1.79959e-15 6.02689e-15 6.75426e-15 1.86891e-15 0 0 2.24734e-15 9.52218e-15 1.33215e-15 4.60724e-15 0 0 1.45556e-14 -8.11604e-15 9.05131e-15 9.52755e-15 0 0 1.05586e-14 -1.68926e-15 1.06645e-15 1.52386e-14 0 0 -3.29231e-15 1.38741e-14 -1.19472e-14 2.47456e-14 0 0 3.56788e-15 2.69343e-15 2.16661e-15 9.07638e-15 0 0 1.37672e-14 -9.70744e-15 1.96133e-14 -1.4984e-14 0 0 4.62333e-15 2.26865e-15 1.31664e-14 -1.51528e-14 0 0 -3.87077e-15 2.209e-14 -2.04692e-15 -7.21454e-15 0 0 -1.90943e-15 2.01463e-14 4.75758e-15 1.45408e-16 0 0 7.47672e-15 -5.65664e-16 2.57119e-14 -3.28425e-15 0 0 6.47836e-15 1.56449e-15 2.30799e-14 -5.60922e-15 0 0 8.52139e-15 7.68559e-15 9.90681e-15 1.78749e-15 0 0 1.66341e-14 -3.33878e-16 2.73747e-15 -2.58415e-15 0 0 -2.79813e-15 1.06402e-14 -3.20719e-15 5.48386e-15 0 0 1.31323e-15 -3.39933e-15 1.04899e-14 5.55696e-15 0 0 4.41853e-15 -4.93594e-15 6.96258e-15 -5.37471e-15 0 0 -1.26678e-14 1.07669e-14 -7.26243e-15 9.4921e-15 0 0 -2.79938e-15 -6.04053e-15 5.65166e-15 3.86653e-15 0 0 4.27447e-15 2.58357e-16 9.58342e-15 -2.33516e-15 0 0 6.40523e-15 -5.91213e-15 2.20791e-14 -7.26718e-15 0 0 8.97702e-15 -3.41365e-14 3.8694e-14 -1.20552e-14 0 0 -6.30575e-15 -1.81496e-14 1.62989e-14 1.06573e-14 0 0 -1.92309e-14 -2.42539e-16 1.00248e-14 3.78663e-15 0 0 -4.47779e-15 -6.20025e-15 1.67963e-14 -9.36801e-15 0 0 1.49088e-15 5.61252e-15 7.11954e-15 -2.28088e-15 0 0 1.42928e-15 1.1451e-14 2.97383e-16 2.97867e-16 0 0 -8.01414e-15 2.07715e-14 -4.1612e-15 1.00069e-14 0 0 -8.28559e-15 2.67012e-14 3.65414e-15 2.10734e-14 0 0 2.15833e-14 8.74701e-15 6.3877e-15 2.46652e-14 0 0 1.28439e-14 1.58319e-14 1.70055e-14 1.60504e-15 0 0 5.85349e-15 1.00565e-14 2.6559e-14 -6.98124e-15 0 0 8.7289e-15 8.05313e-15 1.21492e-14 4.25265e-15 0 0 7.75514e-15 9.99222e-15 1.31397e-14 -4.04176e-15 0 0 6.89809e-15 2.75275e-14 -8.92391e-15 -1.34213e-14 0 0 5.52106e-15 3.66518e-14 -1.85919e-14 -2.99731e-14 0 0 1.24801e-14 2.02804e-14 -2.6194e-14 -2.89216e-14 0 0 -1.0719e-14 3.65959e-14 -2.96715e-14 -8.74557e-15 0 0 -6.38431e-15 2.02743e-14 3.61531e-15 -2.71694e-15 0 0 1.02903e-14 -1.51599e-14 2.07521e-14 1.6228e-15 0 0 -1.45502e-15 -1.50801e-14 6.04436e-15 1.44626e-14 0 0 -1.35529e-14 7.44397e-15 -1.7816e-14 9.38614e-15 0 0 -1.21913e-14 3.49095e-14 -2.06177e-14 -2.00433e-15 0 0 -1.67001e-14 2.55563e-14 -9.52529e-16 1.03836e-14 0 0 -1.39028e-14 3.65955e-15 -3.84191e-15 3.47891e-14 0 0 8.39458e-15 4.3583e-16 -2.47785e-14 8.83865e-15 0 0 -1.88982e-14 -2.05868e-16 -1.9242e-15 -3.90665e-14 0 0 -1.87566e-14 2.08528e-16 8.49931e-15 -3.05262e-14 0 0 1.75021e-14 1.032e-14 -2.06909e-14 -2.25747e-14 0 0 3.24289e-15 -4.89632e-15 -1.07599e-14 -4.09073e-14 0 0 -2.13474e-15 -1.99315e-14 1.4214e-14 -2.96497e-14 0 0 3.35839e-15 4.11842e-16 8.2422e-15 -9.34016e-15 0 0 -1.03494e-14 1.2874e-14 -7.76651e-15 4.66503e-15 0 0 -1.24136e-14 4.42837e-15 -1.0622e-14 1.90463e-14 0 0 1.77522e-14 -2.61635e-14 1.78274e-14 -4.96339e-15 0 0 3.71002e-14 -8.95264e-15 -1.74626e-15 -8.52473e-15 0 0 2.87944e-15 1.16131e-14 -1.02471e-14 6.54022e-15 0 0 6.69579e-15 9.68656e-15 5.28307e-15 7.58723e-15 0 0 2.17749e-14 1.26202e-14 4.44348e-14 2.08084e-14 0 0 7.28692e-14 1.32562e-13 1.45816e-13 7.49231e-14 0 0 1.84511e-13 3.0329e-13 2.99567e-13 1.5722e-13 0 0 1.93587e-13 3.10216e-13 3.19865e-13 1.84945e-13 0 0 1.51366e-13 2.40893e-13 2.46759e-13 1.72731e-13 0 0 4.24635e-14 8.42173e-14 2.15162e-13 1.02172e-13 0 0 -6.72736e-15 8.37034e-14 1.3503e-13 7.326e-14 0 0 7.2349e-15 4.19281e-14 7.92939e-14 4.65324e-14 0 0 2.21977e-14 -1.14895e-14 5.09219e-14 4.1581e-14 0 0 1.5219e-15 -4.02884e-15 2.28712e-14 2.73085e-14 0 0 2.55991e-14 3.4729e-14 -1.07151e-14 9.62533e-14 0 0 1.08727e-13 1.36571e-13 1.29264e-13 1.34449e-13 0 0 2.65286e-13 3.6829e-13 3.80769e-13 2.98821e-13 0 0 4.43293e-13 6.70621e-13 7.28313e-13 4.45731e-13 0 0 6.28188e-13 9.30243e-13 1.05255e-12 5.68828e-13 0 0 7.39703e-13 1.10075e-12 1.19887e-12 7.59154e-13 0 0 7.5052e-13 1.20814e-12 1.24853e-12 8.62954e-13 0 0 7.34577e-13 1.25728e-12 1.23267e-12 9.00181e-13 0 0 7.31742e-13 1.27556e-12 1.20075e-12 8.36257e-13 0 0 7.56898e-13 1.18227e-12 1.25473e-12 7.66873e-13 0 0 7.11472e-13 1.11044e-12 1.25254e-12 6.96753e-13 0 0 6.68232e-13 1.12424e-12 1.15237e-12 7.20696e-13 0 0 6.67997e-13 1.10023e-12 1.09645e-12 7.52469e-13 0 0 6.51008e-13 1.02171e-12 1.07004e-12 7.35773e-13 0 0 5.9869e-13 9.41099e-13 1.00782e-12 6.65769e-13 0 0 4.93789e-13 8.82831e-13 8.43448e-13 6.17141e-13 0 0 4.32362e-13 7.42942e-13 6.93533e-13 5.18942e-13 0 0 3.45595e-13 5.49396e-13 5.66332e-13 3.16794e-13 0 0 2.33394e-13 3.62439e-13 3.80394e-13 1.98024e-13 0 0 1.42043e-13 1.8986e-13 2.5904e-13 1.02853e-13 0 0 4.95872e-14 1.00578e-13 1.61478e-13 6.0579e-14 0 0 -1.6061e-15 4.73943e-14 7.11335e-14 2.3511e-14 0 0 -8.87388e-15 1.83112e-14 1.42778e-14 3.2564e-14 0 0 -7.97752e-15 1.00044e-14 3.7856e-15 2.05201e-14 0 0 -1.37233e-14 -8.82467e-15 3.09783e-14 1.15905e-14 0 0 -7.99356e-15 -2.86171e-14 3.13703e-14 1.88317e-14 0 0 -1.06676e-14 -4.15383e-14 3.48256e-14 2.74584e-14 0 0 -2.02873e-14 -2.4855e-14 1.9177e-14 4.18801e-14 0 0 -8.95615e-15 -2.71241e-14 2.64323e-14 2.61822e-14 0 0 -5.01335e-15 -2.51102e-14 2.98872e-14 2.78995e-14 0 0 -2.33979e-14 1.6999e-14 1.03727e-14 2.38795e-14 0 0 -2.08426e-14 6.44389e-15 3.84553e-14 5.23586e-15 0 0 -1.19345e-14 -8.74597e-15 5.26227e-14 8.81736e-15 0 0 -4.62953e-15 -8.64852e-15 4.47372e-14 3.20342e-14 0 0 3.59524e-15 -2.0752e-15 3.95092e-14 6.01663e-14 0 0 9.76194e-15 -3.13331e-15 4.88869e-14 4.0808e-14 0 0 2.27098e-14 -2.56133e-15 4.3456e-14 3.42945e-14 0 0 1.14184e-14 3.91809e-14 1.27849e-14 5.94213e-14 0 0 8.71558e-15 5.32957e-14 2.06436e-14 4.62229e-14 0 0 8.02997e-16 9.30912e-14 -1.44747e-15 6.17161e-14 0 0 9.32975e-15 8.13308e-14 2.56834e-15 8.7392e-14 0 0 1.90737e-14 3.7681e-14 -4.55635e-15 7.94321e-14 0 0 5.17729e-15 3.39368e-14 -1.54069e-14 6.68337e-14 0 0 -4.56545e-15 5.38464e-14 -5.06147e-15 6.35809e-14 0 0 1.4092e-15 6.31702e-14 -8.27985e-15 2.42822e-14 0 0 2.31159e-14 2.27213e-14 1.04835e-14 -7.39105e-15 0 0 4.12822e-14 -8.71253e-15 1.7657e-14 -7.67043e-15 0 0 3.87928e-14 -2.90995e-14 3.65891e-14 -4.02825e-15 0 0 1.67472e-14 -1.52399e-14 6.73374e-14 -1.87611e-14 0 0 -3.69089e-15 2.71093e-14 8.55631e-14 -3.69704e-14 0 0 2.41103e-14 1.16913e-14 7.12295e-14 1.05889e-14 0 0 5.12798e-14 1.01431e-14 3.09863e-14 6.86477e-14 0 0 1.52927e-14 6.56592e-14 2.95858e-14 5.34408e-14 0 0 3.50654e-14 3.583e-14 6.6088e-14 3.17009e-14 0 0 4.45941e-14 4.41957e-14 3.30434e-14 2.27799e-14 0 0 3.40653e-14 5.61586e-14 4.5744e-14 -7.7756e-14 0 0 4.79406e-15 5.25185e-14 7.92712e-14 -9.66256e-14 0 0 -2.66132e-14 1.12775e-13 -1.51446e-14 -6.89186e-15 0 0 -6.52944e-15 1.13491e-13 -6.49462e-14 -1.01997e-15 0 0 2.08475e-14 7.36016e-14 -1.87712e-14 -7.56658e-14 0 0 2.47747e-14 5.95235e-14 -1.7129e-14 -2.49556e-14 0 0 1.85263e-14 -1.63773e-14 6.41616e-14 2.28729e-14 0 0 8.81007e-15 -3.00395e-14 9.77907e-14 -1.87607e-14 0 0 9.53855e-15 5.53842e-14 2.30162e-14 -1.33004e-15 0 0 2.15918e-14 3.8292e-14 2.36454e-14 1.56845e-14 0 0 -1.93827e-14 3.14607e-14 5.21466e-14 1.71936e-14 0 0 -2.28137e-14 6.19207e-14 5.10868e-14 -1.95649e-14 0 0 1.80733e-14 5.22374e-14 1.102e-14 -6.77187e-15 0 0 1.47398e-14 5.51785e-14 1.30937e-14 1.81483e-14 0 0 2.8061e-14 2.46043e-14 4.99859e-14 5.44441e-15 0 0 6.12013e-14 -5.16957e-15 5.25056e-14 -8.39649e-15 0 0 5.21614e-14 2.22676e-14 2.25183e-14 1.3737e-14 0 0 3.8966e-14 2.34188e-15 5.9534e-14 4.82829e-14 0 0 3.56138e-14 -4.39713e-15 6.83516e-14 2.72483e-14 0 0 2.73543e-14 3.41077e-14 2.26224e-14 1.6155e-14 0 0 2.87371e-14 2.0629e-14 3.63088e-14 1.73364e-14 0 0 3.68203e-14 -9.93101e-15 8.49625e-14 3.30249e-15 0 0 6.07442e-15 2.80414e-14 1.92346e-14 3.12994e-14 0 0 -3.57806e-16 3.26677e-14 -3.58589e-14 4.88191e-14 0 0 4.65721e-15 2.82308e-14 5.33069e-15 8.20619e-16 0 0 1.60097e-14 2.51849e-14 3.4062e-14 2.93277e-15 0 0 1.64773e-14 2.77145e-14 4.21782e-14 2.10078e-14 0 0 1.64969e-14 3.69799e-14 2.26289e-14 1.91124e-16 0 0 2.49216e-14 2.49926e-14 2.04323e-14 1.63048e-15 0 0 3.31908e-14 4.25575e-14 -9.46968e-15 8.04914e-15 0 0 2.49013e-14 7.03583e-14 -5.97698e-14 4.41376e-14 0 0 1.35175e-14 3.10505e-14 5.81894e-15 2.39973e-14 0 0 2.96618e-14 -2.79949e-15 5.27508e-14 -1.31859e-14 0 0 -2.10003e-14 5.71558e-14 -2.25285e-15 1.76804e-14 0 0 -1.55833e-14 2.7306e-14 1.33569e-14 6.34784e-15 0 0 2.39298e-14 -8.96888e-15 3.34141e-14 -1.41218e-14 0 0 1.2842e-14 1.29981e-14 4.08996e-14 -7.98722e-15 0 0 8.12991e-15 2.2024e-14 -1.10209e-14 5.29093e-14 0 0 1.88381e-14 5.85138e-15 -3.59063e-14 7.33967e-14 0 0 0 0 0 0 0
				</DataArray>
				<DataArray Name="VitesseY" type="Float32" format="ascii">