<?xml version="1.0"?>
<VTKFile type="PolyData">
	<PolyData>
		<Piece NumberOfPoints="1206" NumberOfPolys="1000">
			<Points>
				<DataArray type="Float32" NumberOfComponents="3" format="ascii">
 0 0 0 0.02 0 0 0.04 0 0 0.06 0 0 0.08 0 0 0.1 0 0 0 0.005 0 0.02 0.005 0 0.04 0.005 0 0.06 0.005 0 0.08 0.005 0 0.1 0.005 0 0 0.01 0 0.02 0.01 0 0.04 0.01 0 0.06 0.01 0 0.08 0.01 0 0.1 0.01 0 0 0.015 0 0.02 0.015 0 0.04 0.015 0 0.06 0.015 0 0.08 0.015 0 0.1 0.015 0 0 0.02 0 0.02 0.02 0 0.04 0.02 0 0.06 0.02 0 0.08 0.02 0 0.1 0.02 0 0 0.025 0 0.02 0.025 0 0.04 0.025 0 0.06 0.025 0 0.08 0.025 0 0.1 0.025 0 0 0.03 0 0.02 0.03 0 0.04 0.03 0 0.06 0.03 0 0.08 0.03 0 0.1 0.03 0 0 0.035 0 0.02 0.035 0 0.04 0.035 0 0.06 0.035 0 0.08 0.035 0 0.1 0.035 0 0 0.04 0 0.02 0.04 0 0.04 0.04 0 0.06 0.04 0 0.08 0.04 0 0.1 0.04 0 0 0.045 0 0.02 0.045 0 0.04 0.045 0 0.06 0.045 0 0.08 0.045 0 0.1 0.045 0 0 0.05 0 0.02 0.05 0 0.04 0.05 0 0.06 0.05 0 0.08 0.05 0 0.1 0.05 0 0 0.055 0 0.02 0.055 0 0.04 0.055 0 0.06 0.055 0 0.08 0.055 0 0.1 0.055 0 0 0.06 0 0.02 0.06 0 0.04 0.06 0 0.06 0.06 0 0.08 0.06 0 0.1 0.06 0 0 0.065 0 0.02 0.065 0 0.04 0.065 0 0.06 0.065 0 0.08 0.065 0 0.1 0.065 0 0 0.07 0 0.02 0.07 0 0.04 0.07 0 0.06 0.07 0 0.08 0.07 0 0.1 0.07 0 0 0.075 0 0.02 0.075 0 0.04 0.075 0 0.06 0.075 0 0.08 0.075 0 0.1 0.075 0 0 0.08 0 0.02 0.08 0 0.04 0.08 0 0.06 0.08 0 0.08 0.08 0 0.1 0.08 0 0 0.085 0 0.02 0.085 0 0.04 0.085 0 0.06 0.085 0 0.08 0.085 0 0.1 0.085 0 0 0.09 0 0.02 0.09 0 0.04 0.09 0 0.06 0.09 0 0.08 0.09 0 0.1 0.09 0 0 0.095 0 0.02 0.095 0 0.04 0.095 0 0.06 0.095 0 0.08 0.095 0 0.1 0.095 0 0 0.1 0 0.02 0.1 0 0.04 0.1 0 0.06 0.1 0 0.08 0.1 0 0.1 0.1 0 0 0.105 0 0.02 0.105 0 0.04 0.105 0 0.06 0.105 0 0.08 0.105 0 0.1 0.105 0 0 0.11 0 0.02 0.11 0 0.04 0.11 0 0.06 0.11 0 0.08 0.11 0 0.1 0.11 0 0 0.115 0 0.02 0.115 0 0.04 0.115 0 0.06 0.115 0 0.08 0.115 0 0.1 0.115 0 0 0.12 0 0.02 0.12 0 0.04 0.12 0 0.06 0.12 0 0.08 0.12 0 0.1 0.12 0 0 0.125 0 0.02 0.125 0 0.04 0.125 0 0.06 0.125 0 0.08 0.125 0 0.1 0.125 0 0 0.13 0 0.02 0.13 0 0.04 0.13 0 0.06 0.13 0 0.08 0.13 0 0.1 0.13 0 0 0.135 0 0.02 0.135 0 0.04 0.135 0 0.06 0.135 0 0.08 0.135 0 0.1 0.135 0 0 0.14 0 0.02 0.14 0 0.04 0.14 0 0.06 0.14 0 0.08 0.14 0 0.1 0.14 0 0 0.145 0 0.02 0.145 0 0.04 0.145 0 0.06 0.145 0 0.08 0.145 0 0.1 0.145 0 0 0.15 0 0.02 0.15 0 0.04 0.15 0 0.06 0.15 0 0.08 0.15 0 0.1 0.15 0 0 0.155 0 0.02 0.155 0 0.04 0.155 0 0.06 0.155 0 0.08 0.155 0 0.1 0.155 0 0 0.16 0 0.02 0.16 0 0.04 0.16 0 0.06 0.16 0 0.08 0.16 0 0.1 0.16 0 0 0.165 0 0.02 0.165 0 0.04 0.165 0 0.06 0.165 0 0.08 0.165 0 0.1 0.165 0 0 0.17 0 0.02 0.17 0 0.04 0.17 0 0.06 0.17 0 0.08 0.17 0 0.1 0.17 0 0 0.175 0 0.02 0.175 0 0.04 0.175 0 0.06 0.175 0 0.08 0.175 0 0.1 0.175 0 0 0.18 0 0.02 0.18 0 0.04 0.18 0 0.06 0.18 0 0.08 0.18 0 0.1 0.18 0 0 0.185 0 0.02 0.185 0 0.04 0.185 0 0.06 0.185 0 0.08 0.185 0 0.1 0.185 0 0 0.19 0 0.02 0.19 0 0.04 0.19 0 0.06 0.19 0 0.08 0.19 0 0.1 0.19 0 0 0.195 0 0.02 0.195 0 0.04 0.195 0 0.06 0.195 0 0.08 0.195 0 0.1 0.195 0 0 0.2 0 0.02 0.2 0 0.04 0.2 0 0.06 0.2 0 0.08 0.2 0 0.1 0.2 0 0 0.205 0 0.02 0.205 0 0.04 0.205 0 0.06 0.205 0 0.08 0.205 0 0.1 0.205 0 0 0.21 0 0.02 0.21 0 0.04 0.21 0 0.06 0.21 0 0.08 0.21 0 0.1 0.21 0 0 0.215 0 0.02 0.215 0 0.04 0.215 0 0.06 0.215 0 0.08 0.215 0 0.1 0.215 0 0 0.22 0 0.02 0.22 0 0.04 0.22 0 0.06 0.22 0 0.08 0.22 0 0.1 0.22 0 0 0.225 0 0.02 0.225 0 0.04 0.225 0 0.06 0.225 0 0.08 0.225 0 0.1 0.225 0 0 0.23 0 0.02 0.23 0 0.04 0.23 0 0.06 0.23 0 0.08 0.23 0 0.1 0.23 0 0 0.235 0 0.02 0.235 0 0.04 0.235 0 0.06 0.235 0 0.08 0.235 0 0.1 0.235 0 0 0.24 0 0.02 0.24 0 0.04 0.24 0 0.06 0.24 0 0.08 0.24 0 0.1 0.24 0 0 0.245 0 0.02 0.245 0 0.04 0.245 0 0.06 0.245 0 0.08 0.245 0 0.1 0.245 0 0 0.25 0 0.02 0.25 0 0.04 0.25 0 0.06 0.25 0 0.08 0.25 0 0.1 0.25 0 0 0.255 0 0.02 0.255 0 0.04 0.255 0 0.06 0.255 0 0.08 0.255 0 0.1 0.255 0 0 0.26 0 0.02 0.26 0 0.04 0.26 0 0.06 0.26 0 0.08 0.26 0 0.1 0.26 0 0 0.265 0 0.02 0.265 0 0.04 0.265 0 0.06 0.265 0 0.08 0.265 0 0.1 0.265 0 0 0.27 0 0.02 0.27 0 0.04 0.27 0 0.06 0.27 0 0.08 0.27 0 0.1 0.27 0 0 0.275 0 0.02 0.275 0 0.04 0.275 0 0.06 0.275 0 0.08 0.275 0 0.1 0.275 0 0 0.28 0 0.02 0.28 0 0.04 0.28 0 0.06 0.28 0 0.08 0.28 0 0.1 0.28 0 0 0.285 0 0.02 0.285 0 0.04 0.285 0 0.06 0.285 0 0.08 0.285 0 0.1 0.285 0 0 0.29 0 0.02 0.29 0 0.04 0.29 0 0.06 0.29 0 0.08 0.29 0 0.1 0.29 0 0 0.295 0 0.02 0.295 0 0.04 0.295 0 0.06 0.295 0 0.08 0.295 0 0.1 0.295 0 0 0.3 0 0.02 0.3 0 0.04 0.3 0 0.06 0.3 0 0.08 0.3 0 0.1 0.3 0 0 0.305 0 0.02 0.305 0 0.04 0.305 0 0.06 0.305 0 0.08 0.305 0 0.1 0.305 0 0 0.31 0 0.02 0.31 0 0.04 0.31 0 0.06 0.31 0 0.08 0.31 0 0.1 0.31 0 0 0.315 0 0.02 0.315 0 0.04 0.315 0 0.06 0.315 0 0.08 0.315 0 0.1 0.315 0 0 0.32 0 0.02 0.32 0 0.04 0.32 0 0.06 0.32 0 0.08 0.32 0 0.1 0.32 0 0 0.325 0 0.02 0.325 0 0.04 0.325 0 0.06 0.325 0 0.08 0.325 0 0.1 0.325 0 0 0.33 0 0.02 0.33 0 0.04 0.33 0 0.06 0.33 0 0.08 0.33 0 0.1 0.33 0 0 0.335 0 0.02 0.335 0 0.04 0.335 0 0.06 0.335 0 0.08 0.335 0 0.1 0.335 0 0 0.34 0 0.02 0.34 0 0.04 0.34 0 0.06 0.34 0 0.08 0.34 0 0.1 0.34 0 0 0.345 0 0.02 0.345 0 0.04 0.345 0 0.06 0.345 0 0.08 0.345 0 0.1 0.345 0 0 0.35 0 0.02 0.35 0 0.04 0.35 0 0.06 0.35 0 0.08 0.35 0 0.1 0.35 0 0 0.355 0 0.02 0.355 0 0.04 0.355 0 0.06 0.355 0 0.08 0.355 0 0.1 0.355 0 0 0.36 0 0.02 0.36 0 0.04 0.36 0 0.06 0.36 0 0.08 0.36 0 0.1 0.36 0 0 0.365 0 0.02 0.365 0 0.04 0.365 0 0.06 0.365 0 0.08 0.365 0 0.1 0.365 0 0 0.37 0 0.02 0.37 0 0.04 0.37 0 0.06 0.37 0 0.08 0.37 0 0.1 0.37 0 0 0.375 0 0.02 0.375 0 0.04 0.375 0 0.06 0.375 0 0.08 0.375 0 0.1 0.375 0 0 0.38 0 0.02 0.38 0 0.04 0.38 0 0.06 0.38 0 0.08 0.38 0 0.1 0.38 0 0 0.385 0 0.02 0.385 0 0.04 0.385 0 0.06 0.385 0 0.08 0.385 0 0.1 0.385 0 0 0.39 0 0.02 0.39 0 0.04 0.39 0 0.06 0.39 0 0.08 0.39 0 0.1 0.39 0 0 0.395 0 0.02 0.395 0 0.04 0.395 0 0.06 0.395 0 0.08 0.395 0 0.1 0.395 0 0 0.4 0 0.02 0.4 0 0.04 0.4 0 0.06 0.4 0 0.08 0.4 0 0.1 0.4 0 0 0.405 0 0.02 0.405 0 0.04 0.405 0 0.06 0.405 0 0.08 0.405 0 0.1 0.405 0 0 0.41 0 0.02 0.41 0 0.04 0.41 0 0.06 0.41 0 0.08 0.41 0 0.1 0.41 0 0 0.415 0 0.02 0.415 0 0.04 0.415 0 0.06 0.415 0 0.08 0.415 0 0.1 0.415 0 0 0.420001 0 0.02 0.420001 0 0.04 0.420001 0 0.06 0.420001 0 0.08 0.420001 0 0.1 0.420001 0 0 0.425006 0 0.02 0.425006 0 0.04 0.425006 0 0.06 0.425006 0 0.08 0.425006 0 0.1 0.425006 0 0 0.430025 0 0.02 0.430025 0 0.04 0.430025 0 0.06 0.430025 0 0.08 0.430025 0 0.1 0.430025 0 0 0.43509 0 0.02 0.43509 0 0.04 0.43509 0 0.06 0.43509 0 0.08 0.43509 0 0.1 0.43509 0 0 0.440267 0 0.02 0.440267 0 0.04 0.440267 0 0.06 0.440267 0 0.08 0.440267 0 0.1 0.440267 0 0 0.44565 0 0.02 0.44565 0 0.04 0.44565 0 0.06 0.44565 0 0.08 0.44565 0 0.1 0.44565 0 0 0.451347 0 0.02 0.451347 0 0.04 0.451347 0 0.06 0.451347 0 0.08 0.451347 0 0.1 0.451347 0 0 0.457465 0 0.02 0.457465 0 0.04 0.457465 0 0.06 0.457465 0 0.08 0.457465 0 0.1 0.457465 0 0 0.464111 0 0.02 0.464111 0 0.04 0.464111 0 0.06 0.464111 0 0.08 0.464111 0 0.1 0.464111 0 0 0.471415 0 0.02 0.471415 0 0.04 0.471415 0 0.06 0.471415 0 0.08 0.471415 0 0.1 0.471415 0 0 0.479543 0 0.02 0.479543 0 0.04 0.479543 0 0.06 0.479543 0 0.08 0.479543 0 0.1 0.479543 0 0 0.488714 0 0.02 0.488714 0 0.04 0.488714 0 0.06 0.488714 0 0.08 0.488714 0 0.1 0.488714 0 0 0.499192 0 0.02 0.499192 0 0.04 0.499192 0 0.06 0.499192 0 0.08 0.499192 0 0.1 0.499192 0 0 0.5111 0 0.02 0.5111 0 0.04 0.5111 0 0.06 0.5111 0 0.08 0.5111 0 0.1 0.5111 0 0 0.523577 0 0.02 0.523577 0 0.04 0.523577 0 0.06 0.523577 0 0.08 0.523577 0 0.1 0.523577 0 0 0.535663 0 0.02 0.535663 0 0.04 0.535663 0 0.06 0.535663 0 0.08 0.535663 0 0.1 0.535663 0 0 0.547539 0 0.02 0.547539 0 0.04 0.547539 0 0.06 0.547539 0 0.08 0.547539 0 0.1 0.547539 0 0 0.550161 0 0.02 0.550161 0 0.04 0.550161 0 0.06 0.550161 0 0.08 0.550161 0 0.1 0.550161 0 0 0.552709 0 0.02 0.552709 0 0.04 0.552709 0 0.06 0.552709 0 0.08 0.552709 0 0.1 0.552709 0 0 0.555213 0 0.02 0.555213 0 0.04 0.555213 0 0.06 0.555213 0 0.08 0.555213 0 0.1 0.555213 0 0 0.557688 0 0.02 0.557688 0 0.04 0.557688 0 0.06 0.557688 0 0.08 0.557688 0 0.1 0.557688 0 0 0.560142 0 0.02 0.560142 0 0.04 0.560142 0 0.06 0.560142 0 0.08 0.560142 0 0.1 0.560142 0 0 0.562584 0 0.02 0.562584 0 0.04 0.562584 0 0.06 0.562584 0 0.08 0.562584 0 0.1 0.562584 0 0 0.56502 0 0.02 0.56502 0 0.04 0.56502 0 0.06 0.56502 0 0.08 0.56502 0 0.1 0.56502 0 0 0.567456 0 0.02 0.567456 0 0.04 0.567456 0 0.06 0.567456 0 0.08 0.567456 0 0.1 0.567456 0 0 0.569897 0 0.02 0.569897 0 0.04 0.569897 0 0.06 0.569897 0 0.08 0.569897 0 0.1 0.569897 0 0 0.572322 0 0.02 0.572322 0 0.04 0.572322 0 0.06 0.572322 0 0.08 0.572322 0 0.1 0.572322 0 0 0.574739 0 0.02 0.574739 0 0.04 0.574739 0 0.06 0.574739 0 0.08 0.574739 0 0.1 0.574739 0 0 0.577155 0 0.02 0.577155 0 0.04 0.577155 0 0.06 0.577155 0 0.08 0.577155 0 0.1 0.577155 0 0 0.579613 0 0.02 0.579613 0 0.04 0.579613 0 0.06 0.579613 0 0.08 0.579613 0 0.1 0.579613 0 0 0.582142 0 0.02 0.582142 0 0.04 0.582142 0 0.06 0.582142 0 0.08 0.582142 0 0.1 0.582142 0 0 0.584777 0 0.02 0.584777 0 0.04 0.584777 0 0.06 0.584777 0 0.08 0.584777 0 0.1 0.584777 0 0 0.587552 0 0.02 0.587552 0 0.04 0.587552 0 0.06 0.587552 0 0.08 0.587552 0 0.1 0.587552 0 0 0.590542 0 0.02 0.590542 0 0.04 0.590542 0 0.06 0.590542 0 0.08 0.590542 0 0.1 0.590542 0 0 0.593798 0 0.02 0.593798 0 0.04 0.593798 0 0.06 0.593798 0 0.08 0.593798 0 0.1 0.593798 0 0 0.597391 0 0.02 0.597391 0 0.04 0.597391 0 0.06 0.597391 0 0.08 0.597391 0 0.1 0.597391 0 0 0.60135 0 0.02 0.60135 0 0.04 0.60135 0 0.06 0.60135 0 0.08 0.60135 0 0.1 0.60135 0 0 0.605667 0 0.02 0.605667 0 0.04 0.605667 0 0.06 0.605667 0 0.08 0.605667 0 0.1 0.605667 0 0 0.610284 0 0.02 0.610284 0 0.04 0.610284 0 0.06 0.610284 0 0.08 0.610284 0 0.1 0.610284 0 0 0.615105 0 0.02 0.615105 0 0.04 0.615105 0 0.06 0.615105 0 0.08 0.615105 0 0.1 0.615105 0 0 0.620035 0 0.02 0.620035 0 0.04 0.620035 0 0.06 0.620035 0 0.08 0.620035 0 0.1 0.620035 0 0 0.625011 0 0.02 0.625011 0 0.04 0.625011 0 0.06 0.625011 0 0.08 0.625011 0 0.1 0.625011 0 0 0.630003 0 0.02 0.630003 0 0.04 0.630003 0 0.06 0.630
[...]
			<PointData Scalars="VitesseX">
				<DataArray Name="VitesseX" type="Float32" format="ascii">
 0 0 0 0 0 0 0 1.12002e-15 -1.70742e-15 2.32339e-15 -8.71528e-16 0 0 4.34266e-17 -9.34376e-16 2.42282e-15 -7.06128e-16 0 0 -3.83921e-16 -3.51435e-16 2.66839e-15 -1.27832e-16 0 0 -1.31397e-15 1.34592e-15 1.9577e-15 2.30368e-15 0 0 -1.96866e-15 1.85714e-15 1.91014e-15 3.89039e-15 0 0 -5.36204e-16 -1.23368e-15 3.72773e-15 4.44008e-15 0 0 -1.05695e-16 -1.10487e-15 3.6033e-15 4.4823e-15 0 0 1.44775e-15 -2.1191e-15 3.74255e-15 3.48045e-15 0 0 9.30973e-16 -2.76365e-15 4.55524e-15 3.87872e-15 0 0 3.49216e-16 -2.74578e-15 5.68477e-15 3.62803e-15 0 0 8.66947e-16 -1.3343e-15 3.41654e-15 4.52768e-15 0 0 6.58776e-16 3.0972e-15 -2.5402e-15 8.78092e-15 0 0 4.32237e-15 -2.60456e-15 1.56973e-15 7.48619e-15 0 0 1.40706e-15 -6.20995e-16 -1.77461e-16 7.5155e-15 0 0 -2.87634e-15 7.20502e-15 -3.36536e-15 6.73098e-15 0 0 -1.33682e-17 1.92272e-15 8.94661e-15 -3.51897e-15 0 0 3.24415e-15 -3.62676e-15 9.81275e-15 -2.28844e-15 0 0 4.13872e-15 -5.40345e-16 8.58604e-16 5.85848e-15 0 0 -5.02805e-16 6.20053e-15 -1.65768e-15 8.50076e-15 0 0 -3.07688e-15 2.98529e-15 2.15784e-15 6.94198e-15 0 0 -1.90164e-16 -1.97766e-15 4.88923e-15 5.26053e-15 0 0 2.23438e-15 2.87028e-15 -1.00952e-15 6.47845e-15 0 0 2.12373e-15 6.62996e-15 -4.94692e-15 6.27313e-15 0 0 3.13672e-15 4.34044e-15 -4.25448e-15 9.27693e-15 0 0 3.18097e-15 3.3695e-15 -2.31211e-15 1.01476e-14 0 0 5.09746e-15 1.53836e-15 -5.66663e-15 1.20805e-14 0 0 3.76476e-15 3.76698e-15 -4.49588e-15 4.14889e-15 0 0 -1.38243e-15 2.9619e-15 9.31066e-15 -7.12725e-15 0 0 -1.63985e-15 1.56895e-15 6.25249e-15 9.71552e-16 0 0 -9.42925e-16 5.64169e-15 -1.88304e-15 4.76531e-15 0 0 2.87967e-15 3.67446e-16 -2.48235e-15 1.32645e-15 0 0 1.20631e-15 2.30356e-15 -4.70704e-15 2.04071e-15 0 0 3.03169e-15 6.0785e-16 -5.03282e-15 5.63075e-15 0 0 2.69131e-15 -3.18797e-16 -3.75968e-15 5.29422e-15 0 0 2.21168e-15 2.87071e-15 -3.9103e-16 -4.65879e-15 0 0 8.63433e-15 -3.83953e-15 6.35028e-15 -1.04873e-14 0 0 2.43072e-15 -1.74229e-15 1.41841e-14 -1.01235e-14 0 0 8.48259e-17 1.49195e-15 7.39635e-15 2.13256e-15 0 0 3.49185e-15 2.69596e-15 6.38847e-15 6.17675e-15 0 0 2.06858e-15 9.10718e-16 2.17528e-14 -4.13375e-15 0 0 2.26687e-15 -2.1165e-15 1.7909e-14 3.09965e-16 0 0 5.37185e-15 6.76983e-15 6.13233e-15 2.07025e-15 0 0 9.24422e-15 1.67024e-15 1.42864e-14 -5.78334e-15 0 0 5.9649e-16 3.01325e-15 1.69235e-14 -7.86277e-15 0 0 2.21687e-15 5.31379e-15 1.19593e-14 -5.21865e-15 0 0 1.33994e-14 -5.14175e-15 1.58893e-14 -5.86194e-15 0 0 5.55726e-15 7.32736e-15 1.18456e-14 -6.37551e-15 0 0 4.54065e-15 4.97433e-15 1.78402e-14 -1.43691e-14 0 0 2.07128e-15 6.35892e-15 1.46137e-14 -1.38979e-14 0 0 -1.81988e-15 1.5215e-14 3.73472e-15 -8.12995e-15 0 0 5.01154e-16 1.12253e-14 7.44994e-15 -7.79733e-15 0 0 6.59353e-15 2.67216e-15 6.53078e-16 -3.92518e-16 0 0 9.22834e-15 -5.51033e-15 -5.94939e-15 1.50982e-14 0 0 5.62136e-15 -5.14733e-15 -1.11262e-15 2.45404e-14 0 0 3.83708e-15 -1.48372e-15 6.88311e-16 1.66339e-14 0 0 2.3604e-15 1.13487e-15 5.80741e-15 -1.40504e-15 0 0 1.26453e-14 -2.90859e-15 2.84322e-16 -5.14393e-16 0 0 1.29193e-14 -4.85552e-15 1.11881e-15 4.08814e-16 0 0 -3.94128e-16 -8.44516e-15 1.77318e-14 -1.72317e-15 0 0 -6.84184e-15 7.36968e-16 1.77715e-14 5.07842e-15 0 0 9.95152e-15 -3.32171e-16 8.5169e-15 7.12683e-15 0 0 1.91858e-14 -9.70242e-15 5.97887e-15 4.07225e-15 0 0 4.36827e-15 4.67171e-15 -1.4861e-15 -4.43628e-15 0 0 3.38915e-15 8.22868e-15 -7.38614e-15 -4.07129e-15 0 0 3.64396e-15 1.68229e-14 -1.66351e-14 1.19636e-14 0 0 -5.26193e-16 1.1686e-14 -7.63407e-15 1.69661e-14 0 0 -6.20864e-15 -8.86626e-15 2.95402e-14 -3.91608e-15 0 0 -1.37836e-14 1.78181e-14 8.58672e-15 9.24461e-15 0 0 5.79363e-16 2.35986e-14 2.47299e-15 7.9479e-15 0 0 2.27583e-14 5.86562e-15 3.84444e-14 -2.75281e-14 0 0 1.4964e-14 1.69954e-14 3.16159e-14 -2.16266e-14 0 0 -3.65272e-15 2.90609e-14 7.55807e-15 -8.18034e-15 0 0 3.43253e-15 1.16326e-14 9.16321e-15 -8.51908e-15 0 0 1.70909e-14 1.0377e-14 1.36218e-14 -6.31765e-15 0 0 2.69048e-14 1.13937e-14 8.20784e-15 -8.26172e-15 0 0 1.58385e-14 2.11756e-14 -1.24888e-14 1.25242e-15 0 0 8.40577e-15 2.84649e-14 -1.56108e-14 6.06286e-15 0 0 1.75129e-14 9.72446e-15 -1.91052e-15 8.64264e-15 0 0 9.36044e-15 1.50554e-14 -1.35943e-14 3.572e-14 0 0 -2.74463e-14 3.45915e-14 -2.48469e-14 3.32296e-14 0 0 -2.22201e-14 3.17423e-14 -1.38829e-14 -1.93998e-14 0 0 6.4844e-16 1.19783e-14 1.57577e-14 -5.64662e-14 0 0 -1.3869e-14 4.59373e-15 3.15553e-14 -3.29759e-14 0 0 1.79525e-14 -1.63961e-14 2.08068e-14 -8.77122e-15 0 0 5.2895e-16 -4.08055e-15 -1.23799e-14 -9.60488e-15 0 0 -3.95697e-14 1.84846e-14 -1.67411e-14 -6.67297e-15 0 0 3.72637e-15 1.23518e-14 -3.99353e-15 7.68779e-16 0 0 2.27587e-14 1.45126e-14 -2.591e-14 1.81848e-14 0 0 8.31797e-16 7.99876e-15 -5.82349e-15 5.27035e-15 0 0 -5.2894e-15 1.44371e-14 -2.61501e-15 1.45107e-14 0 0 1.01881e-15 1.93561e-14 -1.8992e-14 1.43802e-14 0 0 1.53566e-14 -2.68782e-14 1.52352e-14 -1.7622e-14 0 0 -6.03241e-15 -5.50821e-15 7.08202e-15 -1.99241e-14 0 0 6.88566e-16 1.50281e-14 -1.49031e-14 1.17386e-15 0 0 2.1921e-14 -1.46275e-15 -1.72687e-14 1.12409e-14 0 0 1.07748e-14 -3.2682e-16 9.46698e-15 1.9424e-15 0 0 2.65521e-14 4.70979e-14 3.84443e-14 7.636e-15 0 0 1.23613e-13 2.03369e-13 1.79667e-13 9.60286e-14 0 0 2.79014e-13 4.44694e-13 4.35523e-13 2.68117e-13 0 0 3.77583e-13 5.98832e-13 5.73194e-13 3.82626e-13 0 0 4.49345e-13 7.40553e-13 7.18472e-13 4.49866e-13 0 0 3.99363e-13 6.74099e-13 6.40494e-13 4.4048e-13 0 0 3.76022e-13 5.97815e-13 6.26127e-13 4.01824e-13 0 0 3.55217e-13 5.46551e-13 5.87498e-13 3.51201e-13 0 0 3.2993e-13 4.93627e-13 5.39504e-13 3.71881e-13 0 0 3.16207e-13 4.96358e-13 4.95376e-13 3.71283e-13 0 0 3.6044e-13 5.51823e-13 5.67842e-13 3.90031e-13 0 0 4.88487e-13 7.18385e-13 7.84159e-13 5.65641e-13 0 0 6.26403e-13 1.01834e-12 9.93471e-13 6.98364e-13 0 0 7.44228e-13 1.30385e-12 1.15498e-12 8.39315e-13 0 0 8.53069e-13 1.44123e-12 1.31764e-12 9.50551e-13 0 0 9.20522e-13 1.45525e-12 1.43074e-12 9.70863e-13 0 0 9.45362e-13 1.49688e-12 1.47955e-12 1.0044e-12 0 0 9.49803e-13 1.50057e-12 1.46986e-12 9.87114e-13 0 0 9.30803e-13 1.48166e-12 1.44588e-12 9.4095e-13 0 0 8.55998e-13 1.39204e-12 1.33966e-12 8.65126e-13 0 0 7.71402e-13 1.29174e-12 1.20609e-12 8.15419e-13 0 0 6.74999e-13 1.11484e-12 1.04464e-12 6.95916e-13 0 0 5.33764e-13 8.58422e-13 8.47113e-13 5.00874e-13 0 0 3.73114e-13 5.98053e-13 6.15805e-13 3.40114e-13 0 0 2.20739e-13 3.45163e-13 3.79645e-13 2.10768e-13 0 0 1.01748e-13 1.52036e-13 2.16178e-13 9.90818e-14 0 0 5.62056e-14 4.6743e-14 1.08268e-13 1.58325e-14 0 0 2.43916e-14 1.7947e-14 2.58562e-14 1.90066e-14 0 0 -5.47954e-15 1.95205e-14 -1.84943e-14 4.26497e-14 0 0 -1.23947e-15 4.10086e-15 -6.50878e-15 2.85393e-14 0 0 1.09903e-15 -1.08373e-14 2.19406e-14 3.57999e-14 0 0 -6.38653e-15 -7.21282e-15 2.12892e-14 2.34585e-14 0 0 1.13039e-15 -1.58689e-14 3.27212e-14 8.26701e-15 0 0 2.55224e-15 -3.13241e-14 4.14841e-14 2.69911e-14 0 0 3.51835e-16 -3.59767e-14 4.58958e-14 3.21803e-14 0 0 7.77661e-15 -3.37442e-14 3.7547e-14 3.87635e-14 0 0 4.9729e-15 -1.39615e-14 6.04072e-15 3.73277e-14 0 0 1.17166e-14 -2.13017e-14 1.29311e-14 3.46809e-14 0 0 1.73744e-14 -2.76553e-14 3.33301e-14 3.29641e-14 0 0 2.04516e-14 -1.26736e-14 7.38204e-15 3.31779e-14 0 0 9.45055e-15 1.9295e-14 -1.02428e-14 2.80218e-14 0 0 -1.72658e-14 6.57539e-14 -1.19712e-14 3.59823e-14 0 0 -1.50704e-14 7.63718e-14 -1.6834e-14 6.0275e-14 0 0 -5.87307e-16 5.04767e-14 1.87921e-14 4.01748e-14 0 0 2.63043e-14 1.15285e-14 5.47097e-14 4.20971e-15 0 0 3.34674e-14 1.07408e-14 4.48473e-14 1.02848e-14 0 0 2.79741e-14 2.91987e-14 1.51993e-14 1.07191e-14 0 0 3.14587e-14 2.20743e-14 9.80537e-15 -1.28948e-14 0 0 1.70125e-14 3.43121e-14 4.14527e-15 -3.72478e-14 0 0 1.90017e-14 1.18459e-14 2.03058e-14 -2.7495e-14 0 0 9.04462e-15 -7.26689e-15 1.89867e-14 4.33788e-14 0 0 3.46966e-15 1.44842e-14 -4.72913e-15 7.1447e-14 0 0 3.20207e-14 2.2982e-16 2.53415e-14 3.86471e-14 0 0 1.21235e-14 2.77482e-14 2.78896e-14 1.67996e-14 0 0 2.67971e-15 2.51906e-14 3.08006e-14 -1.04648e-14 0 0 1.99222e-14 -4.89186e-15 4.10509e-14 4.42718e-15 0 0 1.83768e-14 1.91376e-14 6.70798e-15 5.7288e-14 0 0 2.50027e-14 4.70102e-15 8.07666e-15 4.70882e-14 0 0 1.62313e-14 6.69347e-15 1.52611e-14 6.67134e-15 0 0 6.97992e-15 -1.16334e-15 5.65637e-14 -1.98953e-14 0 0 1.17732e-14 -1.78073e-14 1.16517e-13 -3.15063e-14 0 0 -1.91201e-15 5.7844e-14 3.73412e-14 1.93635e-14 0 0 2.17985e-14 5.84153e-14 2.83695e-14 -4.2649e-15 0 0 3.47599e-14 1.88899e-14 6.3758e-14 -1.78821e-14 0 0 1.31734e-15 4.74941e-14 1.93945e-14 4.14966e-14 0 0 -2.61477e-14 8.54696e-14 1.44172e-14 -9.6606e-15 0 0 4.14402e-15 2.94088e-14 8.50779e-14 -9.62768e-14 0 0 6.12013e-14 -2.02481e-14 1.17707e-13 -8.69215e-14 0 0 4.70726e-14 1.0367e-14 5.23629e-14 2.65051e-14 0 0 3.55807e-14 2.71877e-16 5.14311e-15 8.88632e-14 0 0 6.06246e-15 3.55618e-14 3.93681e-14 -1.20438e-14 0 0 -1.7869e-14 5.23978e-14 6.97401e-14 -5.06935e-14 0 0 1.01436e-14 -1.25933e-14 7.12345e-14 -1.30063e-14 0 0 1.78931e-14 5.07746e-15 8.33648e-14 -3.36138e-14 0 0 1.0781e-14 6.85993e-14 5.96563e-14 -3.1103e-14 0 0 3.99561e-14 4.2884e-14 6.06188e-14 -4.51911e-14 0 0 3.23961e-14 2.50352e-14 5.33251e-14 -4.13151e-14 0 0 4.64903e-15 3.05574e-14 1.05901e-15 1.90757e-14 0 0 1.9406e-14 2.30723e-15 1.31209e-14 2.59687e-14 0 0 1.42609e-14 -9.98191e-15 6.06218e-14 1.0879e-14 0 0 9.70321e-15 3.34777e-14 4.70905e-14 4.68753e-15 0 0 1.56919e-14 6.65099e-14 2.2981e-14 -2.86191e-15 0 0 7.9425e-15 6.0098e-14 1.31668e-14 3.91032e-14 0 0 2.27192e-14 2.34266e-14 1.75139e-14 4.82561e-14 0 0 1.27856e-14 1.71947e-14 -1.49444e-14 3.72341e-14 0 0 -3.61379e-14 4.42587e-14 -3.01022e-14 2.00868e-14 0 0 -1.36964e-14 3.81482e-14 -4.41127e-15 -3.74805e-15 0 0 -7.49277e-15 5.80716e-14 4.244e-14 -3.41562e-14 0 0 -1.80965e-15 3.26321e-14 8.1932e-14 -5.5551e-14 0 0 3.20681e-14 1.50213e-15 4.49194e-14 -1.17854e-14 0 0 2.17068e-14 1.25088e-14 5.24719e-14 -4.26945e-15 0 0 -4.24484e-15 1.92093e-14 7.52488e-14 -3.50569e-15 0 0 9.29028e-15 1.752e-14 4.67221e-14 2.70775e-14 0 0 2.40166e-14 1.03399e-14 2.03258e-14 6.84508e-14 0 0 1.0908e-14 2.68182e-14 1.41872e-14 4.36912e-14 0 0 1.21864e-14 8.45398e-15 4.16521e-14 -1.04112e-14 0 0 9.46678e-15 -1.46577e-15 2.46191e-14 1.84451e-14 0 0 2.87848e-15 4.02773e-14 -3.14491e-14 2.67446e-14 0 0 -1.59379e-14 5.50453e-14 -4.45502e-15 -8.92536e-15 0 0 -8.36487e-15 1.17709e-14 4.3237e-14 -7.46775e-15 0 0 -4.91664e-15 1.65761e-14 6.2997e-15 6.6279e-15 0 0 -1.22349e-14 3.06138e-14 -1.7202e-14 1.55533e-14 0 0 1.91834e-14 -1.65609e-14 3.12564e-15 2.06673e-14 0 0 0 0 0 0 0
				</DataArray>
				<DataArray Name="VitesseY" type="Float32" format="ascii">