<?xml version="1.0"?>
<VTKFile type="PolyData">
	<PolyData>
		<Piece NumberOfPoints="2201" NumberOfPolys="2100">
			<Points>
				<DataArray type="Float32" NumberOfComponents="3" format="ascii">
 0 0 0 0.001 0 0 0.002 0 0 0.003 0 0 0.004 0 0 0.005 0 0 0.006 0 0 0.007 0 0 0.008 0 0 0.009 0 0 0.01 0 0 0.011 0 0 0.012 0 0 0.013 0 0 0.014 0 0 0.015 0 0 0.016 0 0 0.017 0 0 0.018 0 0 0.019 0 0 0.02 0 0 0.021 0 0 0.022 0 0 0.023 0 0 0.024 0 0 0.025 0 0 0.026 0 0 0.027 0 0 0.028 0 0 0.029 0 0 0.03 0 0 0.031 0 0 0.032 0 0 0.033 0 0 0.034 0 0 0.035 0 0 0.036 0 0 0.037 0 0 0.038 0 0 0.039 0 0 0.04 0 0 0.041 0 0 0.042 0 0 0.043 0 0 0.044 0 0 0.045 0 0 0.046 0 0 0.047 0 0 0.048 0 0 0.049 0 0 0.05 0 0 0.051 0 0 0.052 0 0 0.053 0 0 0.054 0 0 0.055 0 0 0.056 0 0 0.057 0 0 0.058 0 0 0.059 0 0 0.06 0 0 0.061 0 0 0.062 0 0 0.063 0 0 0.064 0 0 0.065 0 0 0.066 0 0 0.067 0 0 0.068 0 0 0.069 0 0 0.07 0 0 0 0.001 0 0.001 0.001 0 0.002 0.001 0 0.003 0.001 0 0.004 0.001 0 0.005 0.001 0 0.006 0.001 0 0.007 0.001 0 0.008 0.001 0 0.009 0.001 0 0.01 0.001 0 0.011 0.001 0 0.012 0.001 0 0.013 0.001 0 0.014 0.001 0 0.015 0.001 0 0.016 0.001 0 0.017 0.001 0 0.018 0.001 0 0.019 0.001 0 0.02 0.001 0 0.021 0.001 0 0.022 0.001 0 0.023 0.001 0 0.024 0.001 0 0.025 0.001 0 0.026 0.001 0 0.027 0.001 0 0.028 0.001 0 0.029 0.001 0 0.03 0.001 0 0.031 0.001 0 0.032 0.001 0 0.033 0.001 0 0.034 0.001 0 0.035 0.001 0 0.036 0.001 0 0.037 0.001 0 0.038 0.001 0 0.039 0.001 0 0.04 0.001 0 0.041 0.001 0 0.042 0.001 0 0.043 0.001 0 0.044 0.001 0 0.045 0.001 0 0.046 0.001 0 0.047 0.001 0 0.048 0.001 0 0.049 0.001 0 0.05 0.001 0 0.051 0.001 0 0.052 0.001 0 0.053 0.001 0 0.054 0.001 0 0.055 0.001 0 0.056 0.001 0 0.057 0.001 0 0.058 0.001 0 0.059 0.001 0 0.06 0.001 0 0.061 0.001 0 0.062 0.001 0 0.063 0.001 0 0.064 0.001 0 0.065 0.001 0 0.066 0.001 0 0.067 0.001 0 0.068 0.001 0 0.069 0.001 0 0.07 0.001 0 0 0.002 0 0.001 0.002 0 0.002 0.002 0 0.003 0.002 0 0.004 0.002 0 0.005 0.002 0 0.006 0.002 0 0.007 0.002 0 0.008 0.002 0 0.009 0.002 0 0.01 0.002 0 0.011 0.002 0 0.012 0.002 0 0.013 0.002 0 0.014 0.002 0 0.015 0.002 0 0.016 0.002 0 0.017 0.002 0 0.018 0.002 0 0.019 0.002 0 0.02 0.002 0 0.021 0.002 0 0.022 0.002 0 0.023 0.002 0 0.024 0.002 0 0.025 0.002 0 0.026 0.002 0 0.027 0.002 0 0.028 0.002 0 0.029 0.002 0 0.03 0.002 0 0.031 0.002 0 0.032 0.002 0 0.033 0.002 0 0.034 0.002 0 0.035 0.002 0 0.036 0.002 0 0.037 0.002 0 0.038 0.002 0 0.039 0.002 0 0.04 0.002 0 0.041 0.002 0 0.042 0.002 0 0.043 0.002 0 0.044 0.002 0 0.045 0.002 0 0.046 0.002 0 0.047 0.002 0 0.048 0.002 0 0.049 0.002 0 0.05 0.002 0 0.051 0.002 0 0.052 0.002 0 0.053 0.002 0 0.054 0.002 0 0.055 0.002 0 0.056 0.002 0 0.057 0.002 0 0.058 0.002 0 0.059 0.002 0 0.06 0.002 0 0.061 0.002 0 0.062 0.002 0 0.063 0.002 0 0.064 0.002 0 0.065 0.002 0 0.066 0.002 0 0.067 0.002 0 0.068 0.002 0 0.069 0.002 0 0.07 0.002 0 0 0.003 0 0.001 0.003 0 0.002 0.003 0 0.003 0.003 0 0.004 0.003 0 0.005 0.003 0 0.006 0.003 0 0.007 0.003 0 0.008 0.003 0 0.009 0.003 0 0.01 0.003 0 0.011 0.003 0 0.012 0.003 0 0.013 0.003 0 0.014 0.003 0 0.015 0.003 0 0.016 0.003 0 0.017 0.003 0 0.018 0.003 0 0.019 0.003 0 0.02 0.003 0 0.021 0.003 0 0.022 0.003 0 0.023 0.003 0 0.024 0.003 0 0.025 0.003 0 0.026 0.003 0 0.027 0.003 0 0.028 0.003 0 0.029 0.003 0 0.03 0.003 0 0.031 0.003 0 0.032 0.003 0 0.033 0.003 0 0.034 0.003 0 0.035 0.003 0 0.036 0.003 0 0.037 0.003 0 0.038 0.003 0 0.039 0.003 0 0.04 0.003 0 0.041 0.003 0 0.042 0.003 0 0.043 0.003 0 0.044 0.003 0 0.045 0.003 0 0.046 0.003 0 0.047 0.003 0 0.048 0.003 0 0.049 0.003 0 0.05 0.003 0 0.051 0.003 0 0.052 0.003 0 0.053 0.003 0 0.054 0.003 0 0.055 0.003 0 0.056 0.003 0 0.057 0.003 0 0.058 0.003 0 0.059 0.003 0 0.06 0.003 0 0.061 0.003 0 0.062 0.003 0 0.063 0.003 0 0.064 0.003 0 0.065 0.003 0 0.066 0.003 0 0.067 0.003 0 0.068 0.003 0 0.069 0.003 0 0.07 0.003 0 0 0.004 0 0.001 0.004 0 0.002 0.004 0 0.003 0.004 0 0.004 0.004 0 0.005 0.004 0 0.006 0.004 0 0.007 0.004 0 0.008 0.004 0 0.009 0.004 0 0.01 0.004 0 0.011 0.004 0 0.012 0.004 0 0.013 0.004 0 0.014 0.004 0 0.015 0.004 0 0.016 0.004 0 0.017 0.004 0 0.018 0.004 0 0.019 0.004 0 0.02 0.004 0 0.021 0.004 0 0.022 0.004 0 0.023 0.004 0 0.024 0.004 0 0.025 0.004 0 0.026 0.004 0 0.027 0.004 0 0.028 0.004 0 0.029 0.004 0 0.03 0.004 0 0.031 0.004 0 0.032 0.004 0 0.033 0.004 0 0.034 0.004 0 0.035 0.004 0 0.036 0.004 0 0.037 0.004 0 0.038 0.004 0 0.039 0.004 0 0.04 0.004 0 0.041 0.004 0 0.042 0.004 0 0.043 0.004 0 0.044 0.004 0 0.045 0.004 0 0.046 0.004 0 0.047 0.004 0 0.048 0.004 0 0.049 0.004 0 0.05 0.004 0 0.051 0.004 0 0.052 0.004 0 0.053 0.004 0 0.054 0.004 0 0.055 0.004 0 0.056 0.004 0 0.057 0.004 0 0.058 0.004 0 0.059 0.004 0 0.06 0.004 0 0.061 0.004 0 0.062 0.004 0 0.063 0.004 0 0.064 0.004 0 0.065 0.004 0 0.066 0.004 0 0.067 0.004 0 0.068 0.004 0 0.069 0.004 0 0.07 0.004 0 0 0.005 0 0.001 0.005 0 0.002 0.005 0 0.003 0.005 0 0.004 0.005 0 0.005 0.005 0 0.006 0.005 0 0.007 0.005 0 0.008 0.005 0 0.009 0.005 0 0.01 0.005 0 0.011 0.005 0 0.012 0.005 0 0.013 0.005 0 0.014 0.005 0 0.015 0.005 0 0.016 0.005 0 0.017 0.005 0 0.018 0.005 0 0.019 0.005 0 0.02 0.005 0 0.021 0.005 0 0.022 0.005 0 0.023 0.005 0 0.024 0.005 0 0.025 0.005 0 0.026 0.005 0 0.027 0.005 0 0.028 0.005 0 0.029 0.005 0 0.03 0.005 0 0.031 0.005 0 0.032 0.005 0 0.033 0.005 0 0.034 0.005 0 0.035 0.005 0 0.036 0.005 0 0.037 0.005 0 0.038 0.005 0 0.039 0.005 0 0.04 0.005 0 0.041 0.005 0 0.042 0.005 0 0.043 0.005 0 0.044 0.005 0 0.045 0.005 0 0.046 0.005 0 0.047 0.005 0 0.048 0.005 0 0.049 0.005 0 0.05 0.005 0 0.051 0.005 0 0.052 0.005 0 0.053 0.005 0 0.054 0.005 0 0.055 0.005 0 0.056 0.005 0 0.057 0.005 0 0.058 0.005 0 0.059 0.005 0 0.06 0.005 0 0.061 0.005 0 0.062 0.005 0 0.063 0.005 0 0.064 0.005 0 0.065 0.005 0 0.066 0.005 0 0.067 0.005 0 0.068 0.005 0 0.069 0.005 0 0.07 0.005 0 0 0.006 0 0.001 0.006 0 0.002 0.006 0 0.003 0.006 0 0.004 0.006 0 0.005 0.006 0 0.006 0.006 0 0.007 0.006 0 0.008 0.006 0 0.009 0.006 0 0.01 0.006 0 0.011 0.006 0 0.012 0.006 0 0.013 0.006 0 0.014 0.006 0 0.015 0.006 0 0.016 0.006 0 0.017 0.006 0 0.018 0.006 0 0.019 0.006 0 0.02 0.006 0 0.021 0.006 0 0.022 0.006 0 0.023 0.006 0 0.024 0.006 0 0.025 0.006 0 0.026 0.006 0 0.027 0.006 0 0.028 0.006 0 0.029 0.006 0 0.03 0.006 0 0.031 0.006 0 0.032 0.006 0 0.033 0.006 0 0.034 0.006 0 0.035 0.006 0 0.036 0.006 0 0.037 0.006 0 0.038 0.006 0 0.039 0.006 0 0.04 0.006 0 0.041 0.006 0 0.042 0.006 0 0.043 0.006 0 0.044 0.006 0 0.045 0.006 0 0.046 0.006 0 0.047 0.006 0 0.048 0.006 0 0.049 0.006 0 0.05 0.006 0 0.051 0.006 0 0.052 0.006 0 0.053 0.006 0 0.054 0.006 0 0.055 0.006 0 0.056 0.006 0 0.057 0.006 0 0.058 0.006 0 0.059 0.006 0 0.06 0.006 0 0.061 0.006 0 0.062 0.006 0 0.063 0.006 0 0.064 0.006 0 0.065 0.006 0 0.066 0.006 0 0.067 0.006 0 0.068 0.006 0 0.069 0.006 0 0.07 0.006 0 0 0.007 0 0.001 0.007 0 0.002 0.007 0 0.003 0.007 0 0.004 0.007 0 0.005 0.007 0 0.006 0.007 0 0.007 0.007 0 0.008 0.007 0 0.009 0.007 0 0.01 0.007 0 0.011 0.007 0 0.012 0.007 0 0.013 0.007 0 0.014 0.007 0 0.015 0.007 0 0.016 0.007 0 0.017 0.007 0 0.018 0.007 0 0.019 0.007 0 0.02 0.007 0 0.021 0.007 0 0.022 0.007 0 0.023 0.007 0 0.024 0.007 0 0.025 0.007 0 0.026 0.007 0 0.027 0.007 0 0.028 0.007 0 0.029 0.007 0 0.03 0.007 0 0.031 0.007 0 0.032 0.007 0 0.033 0.007 0 0.034 0.007 0 0.035 0.007 0 0.036 0.007 0 0.037 0.007 0 0.038 0.007 0 0.039 0.007 0 0.04 0.007 0 0.041 0.007 0 0.042 0.007 0 0.043 0.007 0 0.044 0.007 0 0.045 0.007 0 0.046 0.007 0 0.047 0.007 0 0.048 0.007 0 0.049 0.007 0 0.05 0.007 0 0.051 0.007 0 0.052 0.007 0 0.053 0.007 0 0.054 0.007 0 0.055 0.007 0 0.056 0.007 0 0.057 0.007 0 0.058 0.007 0 0.059 0.007 0 0.06 0.007 0 0.061 0.007 0 0.062 0.007 0 0.063 0.007 0 0.064 0.007 0 0.065 0.007 0 0.066 0.007 0 0.067 0.007 0 0.068 0.007 0 0.069 0.007 0 0.07 0.007 0 0 0.008 0 0.001 0.008 0 0.002 0.008 0 0.003 0.008 0 0.004 0.008 0 0.005 0.008 0 0.006 0.008 0 0.007 0.008 0 0.008 0.008 0 0.009 0.008 0 0.01 0.008 0 0.011 0.008 0 0.012 0.008 0 0.013 0.008 0 0.014 0.008 0 0.015 0.008 0 0.016 0.008 0 0.017 0.008 0 0.018 0.008 0 0.019 0.008 0 0.02 0.008 0 0.021 0.008 0 0.022 0.008 0 0.023 0.008 0 0.024 0.008 0 0.025 0.008 0 0.026 0.008 0 0.027 0.008 0 0.028 0.008 0 0.029 0.008 0 0.03 0.008 0 0.031 0.008 0 0.032 0.008 0 0.033 0.008 0 0.034 0.008 0 0.035 0.008 0 0.036 0.008 0 0.037 0.008 0 0.038 0.008 0 0.039 0.008 0 0.04 0.008 0 0.041 0.008 0 0.042 0.008 0 0.043 0.008 0 0.044 0.008 0 0.045 0.008 0 0.046 0.008 0 0.047 0.008 0 0.048 0.008 0 0.049 0.008 0 0.05 0.008 0 0.051 0.008 0 0.052 0.008 0 0.053 0.008 0 0.054 0.008 0 0.055 0.008 0 0.056 0.008 0 0.057 0.008 0 0.058 0.008 0 0.059 0.008 0 0.06 0.008 0 0.061 0.008 0 0.062 0.008 0 0.063 0.008 0 0.064 0.008 0 0.065 0.008 0 0.066 0.008 0 0.067 0.008 0 0.068 0.008 0 0.069 0.008 0 0.07 0.008 0 0 0.009 0 0.001 0.009 0 0.002 0.009 0 0.003 0.009 0 0.004 0.009 0 0.005 0.009 0 0.006 0.009 0 0.007 0.009 0 0.008 0.009 0 0.009 0.009 0 0.01 0.009 0 0.011 0.009 0 0.012 0.009 0 0.013 0.009 0 0.014 0.009 0 0.015 0.009 0 0.016 0.009 0 0.017 0.009 0 0.018 0.009 0 0.019 0.009 0 0.02 0.009 0 0.021 0.009 0 0.022 0.009 0 0.023 0.009 0 0.024 0.009 0 0.025 0.009 0 0.026 0.009 0 0.027 0.009 0 0.028 0.009 0 0.029 0.009 0 0.03 0.009 0 0.031 0.009 0 0.032 0.009 0 0.033 0.009 0 0.034 0.009 0 0.035 0.009 0 0.036 0.009 0 0.037 0.009 0 0.038 0.009 0 0.039 0.009 0 0.04 0.009 0 0.041 0.009 0 0.042 0.009 0 0.043 0.009 0 0.044 0.009 0 0.045 0.009 0 0.046 0.009 0 0.047 0.009 0 0.048 0.009 0 0.049 0.009 0 0.05 0.009 0 0.051 0.009 0 0.052 0.009 0 0.053 0.009 0 0.054 0.009 0 0.055 0.009 0 0.056 0.009 0 0.057 0.009 0 0.058 0.009 0 0.059 0.009 0 0.06 0.009 0 0.061 0.009 0 0.062 0.009 0 0.063 0.009 0 0.064 0.009 0 0.065 0.009 0 0.066 0.009 0 0.067 0.009 0 0.068 0.009 0 0.069 0.009 0 0.07 0.009 0 0 0.01 0 0.001 0.01 0 0.002 0.01 0 0.003 0.01 0 0.004 0.01 0 0.005 0.01 0 0.006 0.01 0 0.007 0.01 0 0.008 0.01 0 0.009 0.01 0 0.01 0.01 0 0.011 0.01 0 0.012 0.01 0 0.013 0.01 0 0.014 0.01 0 0.015 0.01 0 0.016 0.01 0 0.017 0.01 0 0.018 0.01 0 0.019 0.01 0 0.02
[...]
			<CellData Scalars="Density">
				<DataArray Name="Density" type="Float32" format="ascii">
 0.299987 0.301219 0.301938 0.302356 0.305671 0.3076 0.306446 0.307403 0.31371 0.318242 0.321067 0.32308 0.324623 0.331284 0.342301 0.347424 0.347064 0.35061 0.364477 0.377882 0.388817 0.393144 0.393078 0.579483 1.0269 1.52734 1.96735 2.29201 2.50266 2.65275 2.79009 2.90304 2.9359 2.77238 2.20852 1.34865 1.05243 1.0086 1.002 1.00069 1.00033 1.00018 1.0001 1.00006 1.00003 1.00002 1.00001 1 1 1 1 1 1 1 1 1 1 1 1 1 1 1 1 1 1 1 1 1 1 1 0.298664 0.299858 0.30055 0.30098 0.304168 0.306003 0.304716 0.30565 0.31141 0.316169 0.318623 0.320631 0.32178 0.329066 0.338974 0.344283 0.343971 0.346807 0.361433 0.376433 0.384492 0.38586 0.393068 0.635577 1.08615 1.57929 2.00747 2.3296 2.55158 2.70769 2.84813 2.99388 3.04978 2.88981 2.33923 1.44945 1.0778 1.0164 1.00506 1.00214 1.00116 1.00066 1.00037 1.0002 1.00011 1.00006 1.00003 1.00002 1.00001 1 1 1 1 1 1 1 1 1 1 1 1 1 1 1 1 1 1 1 1 1 0.298285 0.299486 0.300107 0.300535 0.303612 0.30562 0.304499 0.30538 0.311535 0.316047 0.319093 0.320803 0.322055 0.328897 0.339144 0.343458 0.343159 0.347043 0.360432 0.37452 0.384953 0.387995 0.390446 0.632497 1.09601 1.59165 2.02383 2.35407 2.58647 2.75196 2.90522 3.06956 3.15969 3.02162 2.54207 1.67038 1.14914 1.04085 1.01599 1.00836 1.00488 1.00277 1.00157 1.00089 1.0005 1.00028 1.00015 1.00008 1.00004 1.00002 1.00001 1.00001 1 1 1 1 1 1 1 1 1 1 1 1 1 1 1 1 1 1 0.297817 0.298866 0.29957 0.299726 0.303132 0.304757 0.303701 0.304607 0.310245 0.315251 0.318002 0.319202 0.32096 0.327253 0.337008 0.342119 0.341495 0.344287 0.358293 0.373311 0.381064 0.382077 0.398084 0.670783 1.13794 1.62487 2.04637 2.37145 2.6117 2.78343 2.95045 3.11276 3.19115 3.12181 2.7976 1.99573 1.30631 1.11955 1.05847 1.03556 1.02042 1.0118 1.00686 1.00393 1.00224 1.00126 1.0007 1.00038 1.00021 1.00011 1.00006 1.00003 1.00001 1.00001 1 1 1 1 1 1 1 1 1 1 1 1 1 1 1 1 0.297086 0.298058 0.298857 0.299092 0.30198 0.304184 0.30294 0.303698 0.309801 0.313794 0.317047 0.318518 0.319232 0.325928 0.335878 0.339903 0.339359 0.34237 0.35581 0.370282 0.379005 0.379094 0.405738 0.71403 1.18697 1.66136 2.05229 2.34827 2.56901 2.75198 2.93391 3.0667 3.21744 3.2477 3.01997 2.30607 1.61646 1.35228 1.22472 1.14456 1.08551 1.05106 1.02983 1.01715 1.00992 1.00563 1.00315 1.00175 1.00095 1.00051 1.00027 1.00014 1.00007 1.00003 1.00002 1.00001 1 1 1 1 1 1 1 1 1 1 1 1 1 1 0.296174 0.297031 0.297884 0.297886 0.301213 0.303049 0.302003 0.303015 0.307919 0.312954 0.315819 0.317086 0.317753 0.324054 0.333749 0.337899 0.337106 0.34021 0.352823 0.367523 0.376284 0.376317 0.408504 0.75542 1.24282 1.69883 2.06103 2.33293 2.53238 2.69034 2.86112 3.022 3.22491 3.24269 3.01719 2.39196 1.87386 1.64367 1.52505 1.42763 1.31398 1.20878 1.12655 1.07481 1.04393 1.02492 1.01406 1.00791 1.00437 1.00238 1.00128 1.00066 1.00034 1.00018 1.00009 1.00004 1.00002 1.00001 1 1 1 1 1 1 1 1 1 1 1 1 0.294975 0.295835 0.296726 0.296696 0.30008 0.301975 0.300805 0.301729 0.306806 0.310949 0.314397 0.315735 0.31642 0.32193 0.33194 0.33592 0.335117 0.337332 0.35002 0.363656 0.369079 0.369012 0.430441 0.81437 1.29047 1.71945 2.05407 2.28246 2.44822 2.61661 2.81421 3.02806 3.16776 3.0839 2.74497 2.24827 1.94484 1.82827 1.76249 1.70691 1.62241 1.52236 1.40823 1.29064 1.18423 1.10803 1.06252 1.03565 1.01978 1.01099 1.00595 1.00315 1.00167 1.00086 1.00043 1.00022 1.0001 1.00005 1.00002 1.00001 1 1 1 1 1 1 1 1 1 1 0.293764 0.294307 0.295572 0.29528 0.298909 0.300362 0.299319 0.30104 0.304771 0.309471 0.313049 0.314914 0.314848 0.319768 0.329741 0.333271 0.332735 0.333879 0.346594 0.361357 0.36364 0.363758 0.475733 0.895573 1.35694 1.74722 2.02542 2.20868 2.37484 2.56418 2.76265 2.94921 2.96047 2.75549 2.37671 2.03108 1.9034 1.86416 1.85154 1.84597 1.82071 1.77479 1.70277 1.6153 1.5058 1.38312 1.25909 1.15581 1.08915 1.05036 1.02746 1.01483 1.00802 1.00416 1.00211 1.00107 1.00052 1.00025 1.00012 1.00005 1.00002 1.00001 1 1 1 1 1 1 1 1 0.292021 0.292817 0.293953 0.2936 0.297079 0.298938 0.298167 0.299206 0.302795 0.307787 0.311963 0.313114 0.313424 0.317797 0.327577 0.33119 0.329992 0.330032 0.344379 0.355423 0.355811 0.355832 0.494442 0.931598 1.38656 1.74353 1.96659 2.12983 2.30404 2.46979 2.6053 2.69871 2.60601 2.32546 1.98681 1.80083 1.78649 1.82007 1.84833 1.86432 1.86679 1.86105 1.84615 1.81776 1.77035 1.70028 1.59942 1.4795 1.34639 1.21885 1.12491 1.06958 1.03831 1.01975 1.01024 1.00526 1.0026 1.00129 1.00061 1.00028 1.00012 1.00005 1.00002 1.00001 1 1 1 1 1 1 0.290328 0.290791 0.292188 0.291912 0.295326 0.297385 0.296363 0.297333 0.301534 0.305661 0.309797 0.312722 0.31218 0.314406 0.324883 0.328841 0.327433 0.327452 0.339532 0.349908 0.350468 0.350468 0.477991 0.943598 1.38973 1.70206 1.90319 2.06709 2.17628 2.25047 2.30327 2.2667 2.01667 1.72413 1.50108 1.43985 1.48999 1.58082 1.66523 1.7377 1.79584 1.8363 1.85443 1.86039 1.85211 1.83208 1.80961 1.75977 1.68614 1.57677 1.43689 1.29506 1.17271 1.09322 1.04956 1.02561 1.01283 1.00649 1.00314 1.00148 1.00066 1.0003 1.00013 1.00005 1.00002 1.00001 1 1 1 1 0.288203 0.288649 0.290339 0.289699 0.293115 0.295471 0.294497 0.295829 0.299447 0.303219 0.308879 0.310889 0.310017 0.312458 0.322707 0.325527 0.325078 0.324649 0.336422 0.344047 0.345953 0.345987 0.474513 0.937663 1.37094 1.66686 1.85154 1.95432 1.96274 1.94588 1.85481 1.61009 1.24706 0.980753 0.859042 0.864189 0.940194 1.03931 1.14632 1.26767 1.39411 1.50719 1.59742 1.6727 1.73236 1.78324 1.81888 1.82641 1.81447 1.77788 1.73195 1.64842 1.53199 1.38603 1.2291 1.12178 1.06253 1.03216 1.01595 1.00766 1.00359 1.00166 1.00072 1.00028 1.00011 1.00004 1.00001 1 1 1 0.285791 0.286283 0.287817 0.287388 0.291101 0.292982 0.292955 0.294051 0.297046 0.300636 0.307109 0.309977 0.309165 0.309752 0.318893 0.323892 0.322784 0.321784 0.331898 0.337875 0.342433 0.342099 0.463622 0.910561 1.33345 1.62757 1.77527 1.80096 1.73679 1.57125 1.2855 0.935857 0.538377 0.342329 0.290639 0.296468 0.318344 0.363999 0.42299 0.506692 0.635715 0.769423 0.930594 1.06458 1.18066 1.29713 1.41602 1.52832 1.6388 1.72309 1.76779 1.76736 1.73265 1.6752 1.591 1.45914 1.29705 1.15834 1.07985 1.03957 1.01895 1.00909 1.00394 1.00157 1.00065 1.00024 1.00007 1.00002 1.00001 1 0.283105 0.283619 0.285121 0.285114 0.28847 0.290458 0.291845 0.291879 0.29482 0.299745 0.30467 0.307622 0.306654 0.307023 0.317054 0.321449 0.31994 0.319423 0.32736 0.331814 0.338422 0.335561 0.400975 0.798879 1.26035 1.55513 1.66136 1.65321 1.50987 1.20664 0.819719 0.419149 0.198185 0.188047 0.208313 0.221741 0.225511 0.210879 0.195193 0.181706 0.174975 0.177124 0.179925 0.268746 0.347654 0.440251 0.548373 0.673945 0.832494 1.03312 1.22163 1.35461 1.47306 1.58248 1.64687 1.66811 1.6065 1.47872 1.32515 1.18511 1.0993 1.05019 1.02171 1.00921 1.00386 1.00137 1.00043 1.00012 1.00003 1.00001 0.280233 0.280446 0.282406 0.2825 0.285505 0.288198 0.288893 0.289698 0.293292 0.296899 0.300976 0.306902 0.306118 0.305807 0.313872 0.318789 0.318396 0.317248 0.323109 0.32748 0.334645 0.334061 0.341813 0.743273 1.20229 1.4865 1.55766 1.50979 1.2938 0.911025 0.484202 0.213223 0.198384 0.237654 0.293993 0.323952 0.331553 0.320262 0.294799 0.237877 0.197772 0.18338 0.184086 0.18816 0.187775 0.187068 0.187314 0.183961 0.182271 0.183678 0.270812 0.389543 0.515025 0.64547 0.806227 1.03279 1.31038 1.47456 1.47139 1.41523 1.31502 1.18955 1.09789 1.04935 1.02164 1.00787 1.00249 1.0007 1.00019 1.00006 0.276891 0.277409 0.279335 0.279458 0.283106 0.284568 0.286823 0.288122 0.29052 0.29493 0.299839 0.304111 0.305497 0.305075 0.308824 0.317363 0.31762 0.316876 0.318576 0.32029 0.3302 0.333753 0.314745 0.56422 1.10063 1.42966 1.48056 1.38819 1.1041 0.692771 0.338886 0.190038 0.207849 0.275259 0.379239 0.419011 0.370534 0.327437 0.32351 0.304098 0.234525 0.190656 0.179626 0.184649 0.186559 0.18699 0.187312 0.187678 0.19022 0.193528 0.197794 0.197969 0.196142 0.194011 0.191179 0.192383 0.200997 0.367108 0.526956 0.665228 0.822497 0.95705 1.03161 1.04012 1.02802 1.01732 1.00692 1.00188 1.00049 1.00015 0.273395 0.274074 0.275874 0.276778 0.278995 0.281818 0.285425 0.286977 0.287331 0.292024 0.298886 0.301917 0.303795 0.303463 0.306771 0.31356 0.315902 0.316863 0.31665 0.316457 0.322217 0.330661 0.32118 0.413432 0.812989 1.2124 1.36505 1.30039 1.00125 0.598402 0.29439 0.188998 0.191764 0.321938 0.416202 0.431104 0.371036 0.32864 0.322759 0.308565 0.249912 0.202894 0.182358 0.182008 0.185072 0.186103 0.186499 0.187389 0.189385 0.191372 0.193868 0.195105 0.195392 0.195275 0.196369 0.19517 0.193269 0.192884 0.192717 0.18966 0.188501 0.185659 0.17896 0.16683 0.139984 0.117884 0.105492 0.101476 0.100401 0.10012 0.269823 0.270232 0.272431 0.274254 0.274532 0.279315 0.282778 0.285366 0.286777 0.288717 0.294127 0.300921 0.30308 0.302869 0.304522 0.310354 0.31364 0.315793 0.316855 0.316978 0.317667 0.324515 0.321917 0.293757 0.661731 1.0103 1.2319 1.2177 0.96952 0.568646 0.289719 0.247775 0.353038 0.481675 0.524154 0.406593 0.323878 0.319016 0.325418 0.328544 0.286536 0.222633 0.188085 0.181254 0.184406 0.185844 0.187116 0.188431 0.18986 0.191564 0.192962 0.193704 0.194008 0.19408 0.194034 0.193889 0.1943 0.193612 0.192536 0.190881 0.189274 0.185736 0.179077 0.167954 0.148678 0.125523 0.108153 0.102281 0.10062 0.100194 0.266132 0.266492 0.269045 0.270604 0.271782 0.276106 0.27966 0.283412 0.285865 0.287045 0.290146 0.297311 0.303375 0.303241 0.303098 0.306088 0.31238 0.315752 0.316455 0.316903 0.3173 0.321193 0.322735 0.314512 0.390111 0.875236 1.2128 1.2069 1.02864 0.663437 0.55702 0.574203 0.671734 0.678607 0.510932 0.351778 0.308113 0.321582 0.327894 0.335352 0.310432 0.243693 0.196451 0.181169 0.183321 0.185374 0.18683 0.188434 0.189901 0.191394 0.192501 0.193209 0.193715 0.193936 0.193944 0.193784 0.193745 0.192883 0.19191 0.190242 0.187293 0.183645 0.178752 0.171186 0.156618 0.134401 0.112561 0.103539 0.100966 0.100295 0.262395 0.262955 0.265557 0.266357 0.270013 0.27258 0.276923 0.280609 0.283727 0.286874 0.288517 0.292826 0.30153 0.304026 0.303605 0.304401 0.309676 0.315609 0.31598 0.315779 0.316125 0.321281 0.328479 0.323612 0.308007 0.517733 0.899305 1.16974 1.11799 0.975197 0.898441 0.845491 0.775533 0.587862 0.406626 0.317257 0.310224 0.329334 0.32987 0.334007 0.310828 0.243881 0.197236 0.181565 0.182857 0.184856 0.186384 0.188032 0.189484 0.190678 0.191542 0.19213 0.192558 0.192729 0.192702 0.192431 0.19218 0.191524 0.190449 0.189172 0.187326 0.184576 0.180764 0.173929 0.161224 0.141046 0.117481 0.105 0.101386 0.100405 0.258679 0.259448 0.261732 0.263662 0.266505 0.269861 0.274561 0.277435 0.281531 0.285603 0.287824 0.291276 0.2972 0.30314 0.305142 0.305105 0.308178 0.31281 0.316489 0.317279 0.317582 0.321031 0.329949 0.327316 0.320337 0.324772 0.476675 0.63626 0.823544 0.814772 0.779992 0.668973 0.524187 0.39381 0.309965 0.291738 0.311939 0.334238 0.333314 0.33517 0.306096 0.240741 0.197942 0.182339 0.182642 0.18474 0.186227 0.187891 0.189482 0.19069 0.191484 0.19197 0.192329 0.192443 0.192444 0.192102 0.191585 0.190862 0.189738 0.188375 0.186486 0.183836 0.180964 0.176171 0.165979 0.146986 0.122591 0.106607 0.101783 0.100508 0.25528 0.256012 0.258702 0.26085 0.263178 0.267467 0.27167 0.275621 0.279278 0.283291 0.287373 0.290819 0.294399 0.299712 0.305015 0.307303 0.310129 0.313807 0.316713 0.31963 0.320976 0.323973 0.330707 0.329352 0.327181 0.3288 0.329332 0.356905 0.426143 0.445201 0.434575 0.381629 0.331287 0.309141 0.307833 0.307827 0.316109 0.334315 0.335614 0.341865 0.309462 0.243539 0.199291 0.18262 0.182309 0.184443 0.185805 0.187351 0.188951 0.190145 0.190852 0.191285 0.191605 0.191614 0.191587 0.191345 0.190773 0.19005 0.189041 0.187771 0.186067 0.184226 0.181882 0.177107 0.168836 0.151574 0.127444 0.108177 0.102161 0.100603 0.252105 0.253057 0.255606 0.257803 0.260578 0.26476 0.269456 0.273627 0.277418 0.281674 0.286003 0.289921 0.293764 0.298298 0.304662 0.310343 0.314263 0.317302 0.318903 0.322119 0.324992 0.3289 0.333202 0.333288 0.332789 0.333426 0.331205 0.332345 0.329695 0.328748 0.324908 0.319137 0.314129 0.312143 0.313082 0.313161 0.325732 0.34269 0.34188 0.3428 0.297481 0.235336 0.196873 0.182804 0.182906 0.184715 0.185977 0.187437 0.18891 0.190004 0.190632 0.191041 0.191199 0.191161 0.191093 0.190768 0.1903 0.189563 0.188398 0.187451 0.186092 0.184154 0.181946 0.178601 0.172272 0.15572 0.131806 0.109822 0.102554 0.100692 0.249355 0.250307 0.252928 0.255271 0.258124 0.262641 0.267315 0.271524 0.276205 0.280337 0.284641 0.290099 0.295494 0.300486 0.306118 0.312501 0.318138 0.322117 0.324403 0.326545 0.32882 0.332692 0.336007 0.337812 0.339135 0.339399 0.337748 0.33788 0.334336 0.334204 0.331961 0.325824 0.320616 0.319237 0.319447 0.319926 0.334111 0.345898 0.345691 0.345064 0.287177 0.231226 0.1956 0.182555 0.182658 0.184666 0.185978 0.187341 0.188636 0.189676 0.190302 0.190706 0.190789 0.190686 0.190559 0.190187 0.1897 0.189065 0.188059 0.187014 0.185392 0.184084 0.182644 0.179362 0.173508 0.158589 0.135976 0.111753 0.102971 0.10079 0.246952 0.247888 0.250611 0.252851 0.256471 0.260029 0.265132 0.270219 0.274818 0.279615 0.284854 0.290941 0.297311 0.303047 0.308551 0.314582 0.321029 0.326574 0.329592 0.331912 0.333317 0.33621 0.339064 0.341269 0.343801 0.344451 0.343737 0.343127 0.3406 0.340977 0.338849 0.330753 0.32634 0.326202 0.324971 0.325637 0.339758 0.350429 0.35059 0.337841 0.278082 0.224803 0.193327 0.182536 0.183084 0.184675 0.185921 0.187322 0.188628 0.189546 0.19001 0.190397 0.190432 0.190223 0.190038 0.189729 0.18933 0.188741 0.187748 0.186851 0.1857 0.184581 0.182708 0.180119 0.175998 0.162318 0.139601 0.113395 0.103334 0.100864 0.245077 0.245891 0.248591 0.251055 0.25453 0.258091 0.264056 0.269451 0.275343 0.28177 0.287673 0.293461 0.299653 0.305669 0.311185 0.316889 0.323242 0.329455 0.334678 0.337437 0.338566 0.339503 0.34175 0.3436 0.347202 0.348442 0.348095 0.347117 0.345761 0.3458 0.341451 0.334314 0.330605 0.33065 0.328961 0.331118 0.34528 0.353738 0.353913 0.329263 0.26909 0.220563 0.19192 0.182307 0.183111 0.184605 0.185905 0.187342 0.188574 0.189393 0.189819 0.190181 0.190201 0.189875 0.189656 0.189329 0.188958 0.188253 0.187274 0.186362 0.184941 0.183916 0.182852 0.18094 0.176413 0.163331 0.141868 0.115108 0.103721 0.100942 0.243435 0.2443 0.246874 0.249344 0.252748 0.256885 0.262731 0.268742 0.275175 0.281172 0.287353 0.293845 0.300998 0.308308 0.314349 0.32001 0.325821 0.331904 0.337607 0.34165 0.342605 0.34312 0.344181 0.34562 0.349257 0.351776 0.351636 0.351159 0.349919 0.347926 0.343121 0.338387 0.335046 0.333618 0.33168 0.335992 0.349664 0.356006 0.356082 0.319451 0.262038 0.217059 0.190653 0.182324 0.183394 0.184701 0.18596 0.187342 0.18849 0.189295 0.189698 0.189989 0.189943 0.189662 0.189479 0.188978 0.188653 0.188178 0.187382 0.186448 0.185371 0.184681 0.183169 0.180956 0.177412 0.166325 0.145104 0.116787 0.104029 0.100999 0.242377 0.24297 0.245577 0.248269 0.25225 0.257087 0.264126 0.271052 0.277163 0.282868 0.289146 0.295728 0.303152 0.310804 0.317697 0.3231 0.328119 0.334035 0.339601 0.343971 0.34583 0.346439 0.346498 0.347639 0.35092 0.35404 0.354392 0.354216 0.351985 0.348948 0.345061 0.340931 0.33706 0.336252 0.33508 0.3404 0.352795 0.357607 0.357513 0.308822 0.256054 0.21385 0.189514 0.182362 0.183592 0.184797 0.186032 0.187315 0.188377 0.189206 0.189649 0.18986 0.189865 0.189578 0.189156 0.188664 0.188419 0.187732 0.186915 0.186105 0.184966 0.183941 0.182867 0.181909 0.17856 0.167323 0.146172 0.117797 0.104268 0.101035 0.241587 0.242009 0.244402 0.247363 0.250846 0.255644 0.261937 0.268583 0.275345 0.282416 0.289565 0.29637 0.303692 0.311196 0.318292 0.324179 0.329894 0.336039 0.341785 0.345793 0.347977 0.348799 0.348627 0.348871 0.351934 0.35635 0.356646 0.356237 0.353396 0.35075 0.347432 0.341969 0.337926 0.338184 0.338357 0.345357 0.355232 0.358896 0.355115 0.303295 0.251815 0.210967 0.188278 0.182333 0.183904 0.185082 0.186217 0.187343 0.188326 0.189035 0.189512 0.189745 0.189752 0.189374 0.189033 0.18849 0.18808 0.187496 0.186948 0.186182 0.18513 0.184502 0.183512 0.182089 0.178442 0.168486 0.14814 0.119075 0.104466 0.101061 0.241155 0.241586 0.244437 0.247896 0.252132 0.257481 0.264057 0.271531 0.279048 0.286362 0.293249 0.299945 0.307245 0.314789 0.321406 0.326818 0.332429 0.33861 0.344222 0.347949 0.350097 0.350123 0.349616 0.349988 0.354349 0.358408 0.358535 0.35769 0.354902 0.351744 0.347706 0.342585 0.33912 0.338845 0.340804 0.34816 0.356524 0.35983 0.351273 0.298269 0.248426 0.20916 0.187851 0.182444 0.184025 0.185182 0.186382 0.187498 0.188341 0.188953 0.189389 0.189661 0.189757 0.189607 0.189169 0.188521 0.188141 0.187442 0.186699 0.185955 0.184856 0.184108 0.182766 0.181882 0.178821 0.169482 0.148973 0.11946 0.104505 0.101063 0.239256 0.239589 0.241939 0.245174 0.248782 0.253947 0.259863 0.266876 0.274506 0.281502 0.28808 0.294873 0.302279 0.309915 0.316551 0.322172 0.327998 0.334304 0.34029 0.34452 0.347073 0.347176 0.346748 0.346922 0.351346 0.356051 0.356815 0.356478 0.353797 0.349954 0.345998 0.342146 0.339717 0.339366 0.342244 0.350042 0.357707 0.359753 0.348077 0.296343 0.247453 0.208761 0.187845 0.182515 0.184079 0.185233 0.186465 0.187559 0.188409 0.189044 0.189436 0.189591 0.189597 0.189396 0.189065 0.188576 0.188226 0.18746 0.186744 0.186157 0.185159 0.18465 0.183177 0.182582 0.179396 0.170006 0.149266 0.119594 0.104523 0.101066
				</DataArray>
				<DataArray Name="Energy" type="Float32" format="ascii">