<?xml version="1.0"?>
<VTKFile type="PolyData">
	<PolyData>
		<Piece NumberOfPoints="2201" NumberOfPolys="2100">
			<Points>
				<DataArray type="Float32" NumberOfComponents="3" format="ascii">
 0 0 0 0.001 0 0 0.002 0 0 0.003 0 0 0.004 0 0 0.005 0 0 0.006 0 0 0.007 0 0 0.008 0 0 0.009 0 0 0.01 0 0 0.011 0 0 0.012 0 0 0.013 0 0 0.014 0 0 0.015 0 0 0.016 0 0 0.017 0 0 0.018 0 0 0.019 0 0 0.02 0 0 0.021 0 0 0.022 0 0 0.023 0 0 0.024 0 0 0.025 0 0 0.026 0 0 0.027 0 0 0.028 0 0 0.029 0 0 0.03 0 0 0.031 0 0 0.032 0 0 0.033 0 0 0.034 0 0 0.035 0 0 0.036 0 0 0.037 0 0 0.038 0 0 0.039 0 0 0.04 0 0 0.041 0 0 0.042 0 0 0.043 0 0 0.044 0 0 0.045 0 0 0.046 0 0 0.047 0 0 0.048 0 0 0.049 0 0 0.05 0 0 0.051 0 0 0.052 0 0 0.053 0 0 0.054 0 0 0.055 0 0 0.056 0 0 0.057 0 0 0.058 0 0 0.059 0 0 0.06 0 0 0.061 0 0 0.062 0 0 0.063 0 0 0.064 0 0 0.065 0 0 0.066 0 0 0.067 0 0 0.068 0 0 0.069 0 0 0.07 0 0 0 0.001 0 0.001 0.001 0 0.002 0.001 0 0.003 0.001 0 0.004 0.001 0 0.005 0.001 0 0.006 0.001 0 0.007 0.001 0 0.008 0.001 0 0.009 0.001 0 0.01 0.001 0 0.011 0.001 0 0.012 0.001 0 0.013 0.001 0 0.014 0.001 0 0.015 0.001 0 0.016 0.001 0 0.017 0.001 0 0.018 0.001 0 0.019 0.001 0 0.02 0.001 0 0.021 0.001 0 0.022 0.001 0 0.023 0.001 0 0.024 0.001 0 0.025 0.001 0 0.026 0.001 0 0.027 0.001 0 0.028 0.001 0 0.029 0.001 0 0.03 0.001 0 0.031 0.001 0 0.032 0.001 0 0.033 0.001 0 0.034 0.001 0 0.035 0.001 0 0.036 0.001 0 0.037 0.001 0 0.038 0.001 0 0.039 0.001 0 0.04 0.001 0 0.041 0.001 0 0.042 0.001 0 0.043 0.001 0 0.044 0.001 0 0.045 0.001 0 0.046 0.001 0 0.047 0.001 0 0.048 0.001 0 0.049 0.001 0 0.05 0.001 0 0.051 0.001 0 0.052 0.001 0 0.053 0.001 0 0.054 0.001 0 0.055 0.001 0 0.056 0.001 0 0.057 0.001 0 0.058 0.001 0 0.059 0.001 0 0.06 0.001 0 0.061 0.001 0 0.062 0.001 0 0.063 0.001 0 0.064 0.001 0 0.065 0.001 0 0.066 0.001 0 0.067 0.001 0 0.068 0.001 0 0.069 0.001 0 0.07 0.001 0 0 0.002 0 0.001 0.002 0 0.002 0.002 0 0.003 0.002 0 0.004 0.002 0 0.005 0.002 0 0.006 0.002 0 0.007 0.002 0 0.008 0.002 0 0.009 0.002 0 0.01 0.002 0 0.011 0.002 0 0.012 0.002 0 0.013 0.002 0 0.014 0.002 0 0.015 0.002 0 0.016 0.002 0 0.017 0.002 0 0.018 0.002 0 0.019 0.002 0 0.02 0.002 0 0.021 0.002 0 0.022 0.002 0 0.023 0.002 0 0.024 0.002 0 0.025 0.002 0 0.026 0.002 0 0.027 0.002 0 0.028 0.002 0 0.029 0.002 0 0.03 0.002 0 0.031 0.002 0 0.032 0.002 0 0.033 0.002 0 0.034 0.002 0 0.035 0.002 0 0.036 0.002 0 0.037 0.002 0 0.038 0.002 0 0.039 0.002 0 0.04 0.002 0 0.041 0.002 0 0.042 0.002 0 0.043 0.002 0 0.044 0.002 0 0.045 0.002 0 0.046 0.002 0 0.047 0.002 0 0.048 0.002 0 0.049 0.002 0 0.05 0.002 0 0.051 0.002 0 0.052 0.002 0 0.053 0.002 0 0.054 0.002 0 0.055 0.002 0 0.056 0.002 0 0.057 0.002 0 0.058 0.002 0 0.059 0.002 0 0.06 0.002 0 0.061 0.002 0 0.062 0.002 0 0.063 0.002 0 0.064 0.002 0 0.065 0.002 0 0.066 0.002 0 0.067 0.002 0 0.068 0.002 0 0.069 0.002 0 0.07 0.002 0 0 0.003 0 0.001 0.003 0 0.002 0.003 0 0.003 0.003 0 0.004 0.003 0 0.005 0.003 0 0.006 0.003 0 0.007 0.003 0 0.008 0.003 0 0.009 0.003 0 0.01 0.003 0 0.011 0.003 0 0.012 0.003 0 0.013 0.003 0 0.014 0.003 0 0.015 0.003 0 0.016 0.003 0 0.017 0.003 0 0.018 0.003 0 0.019 0.003 0 0.02 0.003 0 0.021 0.003 0 0.022 0.003 0 0.023 0.003 0 0.024 0.003 0 0.025 0.003 0 0.026 0.003 0 0.027 0.003 0 0.028 0.003 0 0.029 0.003 0 0.03 0.003 0 0.031 0.003 0 0.032 0.003 0 0.033 0.003 0 0.034 0.003 0 0.035 0.003 0 0.036 0.003 0 0.037 0.003 0 0.038 0.003 0 0.039 0.003 0 0.04 0.003 0 0.041 0.003 0 0.042 0.003 0 0.043 0.003 0 0.044 0.003 0 0.045 0.003 0 0.046 0.003 0 0.047 0.003 0 0.048 0.003 0 0.049 0.003 0 0.05 0.003 0 0.051 0.003 0 0.052 0.003 0 0.053 0.003 0 0.054 0.003 0 0.055 0.003 0 0.056 0.003 0 0.057 0.003 0 0.058 0.003 0 0.059 0.003 0 0.06 0.003 0 0.061 0.003 0 0.062 0.003 0 0.063 0.003 0 0.064 0.003 0 0.065 0.003 0 0.066 0.003 0 0.067 0.003 0 0.068 0.003 0 0.069 0.003 0 0.07 0.003 0 0 0.004 0 0.001 0.004 0 0.002 0.004 0 0.003 0.004 0 0.004 0.004 0 0.005 0.004 0 0.006 0.004 0 0.007 0.004 0 0.008 0.004 0 0.009 0.004 0 0.01 0.004 0 0.011 0.004 0 0.012 0.004 0 0.013 0.004 0 0.014 0.004 0 0.015 0.004 0 0.016 0.004 0 0.017 0.004 0 0.018 0.004 0 0.019 0.004 0 0.02 0.004 0 0.021 0.004 0 0.022 0.004 0 0.023 0.004 0 0.024 0.004 0 0.025 0.004 0 0.026 0.004 0 0.027 0.004 0 0.028 0.004 0 0.029 0.004 0 0.03 0.004 0 0.031 0.004 0 0.032 0.004 0 0.033 0.004 0 0.034 0.004 0 0.035 0.004 0 0.036 0.004 0 0.037 0.004 0 0.038 0.004 0 0.039 0.004 0 0.04 0.004 0 0.041 0.004 0 0.042 0.004 0 0.043 0.004 0 0.044 0.004 0 0.045 0.004 0 0.046 0.004 0 0.047 0.004 0 0.048 0.004 0 0.049 0.004 0 0.05 0.004 0 0.051 0.004 0 0.052 0.004 0 0.053 0.004 0 0.054 0.004 0 0.055 0.004 0 0.056 0.004 0 0.057 0.004 0 0.058 0.004 0 0.059 0.004 0 0.06 0.004 0 0.061 0.004 0 0.062 0.004 0 0.063 0.004 0 0.064 0.004 0 0.065 0.004 0 0.066 0.004 0 0.067 0.004 0 0.068 0.004 0 0.069 0.004 0 0.07 0.004 0 0 0.005 0 0.001 0.005 0 0.002 0.005 0 0.003 0.005 0 0.004 0.005 0 0.005 0.005 0 0.006 0.005 0 0.007 0.005 0 0.008 0.005 0 0.009 0.005 0 0.01 0.005 0 0.011 0.005 0 0.012 0.005 0 0.013 0.005 0 0.014 0.005 0 0.015 0.005 0 0.016 0.005 0 0.017 0.005 0 0.018 0.005 0 0.019 0.005 0 0.02 0.005 0 0.021 0.005 0 0.022 0.005 0 0.023 0.005 0 0.024 0.005 0 0.025 0.005 0 0.026 0.005 0 0.027 0.005 0 0.028 0.005 0 0.029 0.005 0 0.03 0.005 0 0.031 0.005 0 0.032 0.005 0 0.033 0.005 0 0.034 0.005 0 0.035 0.005 0 0.036 0.005 0 0.037 0.005 0 0.038 0.005 0 0.039 0.005 0 0.04 0.005 0 0.041 0.005 0 0.042 0.005 0 0.043 0.005 0 0.044 0.005 0 0.045 0.005 0 0.046 0.005 0 0.047 0.005 0 0.048 0.005 0 0.049 0.005 0 0.05 0.005 0 0.051 0.005 0 0.052 0.005 0 0.053 0.005 0 0.054 0.005 0 0.055 0.005 0 0.056 0.005 0 0.057 0.005 0 0.058 0.005 0 0.059 0.005 0 0.06 0.005 0 0.061 0.005 0 0.062 0.005 0 0.063 0.005 0 0.064 0.005 0 0.065 0.005 0 0.066 0.005 0 0.067 0.005 0 0.068 0.005 0 0.069 0.005 0 0.07 0.005 0 0 0.006 0 0.001 0.006 0 0.002 0.006 0 0.003 0.006 0 0.004 0.006 0 0.005 0.006 0 0.006 0.006 0 0.007 0.006 0 0.008 0.006 0 0.009 0.006 0 0.01 0.006 0 0.011 0.006 0 0.012 0.006 0 0.013 0.006 0 0.014 0.006 0 0.015 0.006 0 0.016 0.006 0 0.017 0.006 0 0.018 0.006 0 0.019 0.006 0 0.02 0.006 0 0.021 0.006 0 0.022 0.006 0 0.023 0.006 0 0.024 0.006 0 0.025 0.006 0 0.026 0.006 0 0.027 0.006 0 0.028 0.006 0 0.029 0.006 0 0.03 0.006 0 0.031 0.006 0 0.032 0.006 0 0.033 0.006 0 0.034 0.006 0 0.035 0.006 0 0.036 0.006 0 0.037 0.006 0 0.038 0.006 0 0.039 0.006 0 0.04 0.006 0 0.041 0.006 0 0.042 0.006 0 0.043 0.006 0 0.044 0.006 0 0.045 0.006 0 0.046 0.006 0 0.047 0.006 0 0.048 0.006 0 0.049 0.006 0 0.05 0.006 0 0.051 0.006 0 0.052 0.006 0 0.053 0.006 0 0.054 0.006 0 0.055 0.006 0 0.056 0.006 0 0.057 0.006 0 0.058 0.006 0 0.059 0.006 0 0.06 0.006 0 0.061 0.006 0 0.062 0.006 0 0.063 0.006 0 0.064 0.006 0 0.065 0.006 0 0.066 0.006 0 0.067 0.006 0 0.068 0.006 0 0.069 0.006 0 0.07 0.006 0 0 0.007 0 0.001 0.007 0 0.002 0.007 0 0.003 0.007 0 0.004 0.007 0 0.005 0.007 0 0.006 0.007 0 0.007 0.007 0 0.008 0.007 0 0.009 0.007 0 0.01 0.007 0 0.011 0.007 0 0.012 0.007 0 0.013 0.007 0 0.014 0.007 0 0.015 0.007 0 0.016 0.007 0 0.017 0.007 0 0.018 0.007 0 0.019 0.007 0 0.02 0.007 0 0.021 0.007 0 0.022 0.007 0 0.023 0.007 0 0.024 0.007 0 0.025 0.007 0 0.026 0.007 0 0.027 0.007 0 0.028 0.007 0 0.029 0.007 0 0.03 0.007 0 0.031 0.007 0 0.032 0.007 0 0.033 0.007 0 0.034 0.007 0 0.035 0.007 0 0.036 0.007 0 0.037 0.007 0 0.038 0.007 0 0.039 0.007 0 0.04 0.007 0 0.041 0.007 0 0.042 0.007 0 0.043 0.007 0 0.044 0.007 0 0.045 0.007 0 0.046 0.007 0 0.047 0.007 0 0.048 0.007 0 0.049 0.007 0 0.05 0.007 0 0.051 0.007 0 0.052 0.007 0 0.053 0.007 0 0.054 0.007 0 0.055 0.007 0 0.056 0.007 0 0.057 0.007 0 0.058 0.007 0 0.059 0.007 0 0.06 0.007 0 0.061 0.007 0 0.062 0.007 0 0.063 0.007 0 0.064 0.007 0 0.065 0.007 0 0.066 0.007 0 0.067 0.007 0 0.068 0.007 0 0.069 0.007 0 0.07 0.007 0 0 0.008 0 0.001 0.008 0 0.002 0.008 0 0.003 0.008 0 0.004 0.008 0 0.005 0.008 0 0.006 0.008 0 0.007 0.008 0 0.008 0.008 0 0.009 0.008 0 0.01 0.008 0 0.011 0.008 0 0.012 0.008 0 0.013 0.008 0 0.014 0.008 0 0.015 0.008 0 0.016 0.008 0 0.017 0.008 0 0.018 0.008 0 0.019 0.008 0 0.02 0.008 0 0.021 0.008 0 0.022 0.008 0 0.023 0.008 0 0.024 0.008 0 0.025 0.008 0 0.026 0.008 0 0.027 0.008 0 0.028 0.008 0 0.029 0.008 0 0.03 0.008 0 0.031 0.008 0 0.032 0.008 0 0.033 0.008 0 0.034 0.008 0 0.035 0.008 0 0.036 0.008 0 0.037 0.008 0 0.038 0.008 0 0.039 0.008 0 0.04 0.008 0 0.041 0.008 0 0.042 0.008 0 0.043 0.008 0 0.044 0.008 0 0.045 0.008 0 0.046 0.008 0 0.047 0.008 0 0.048 0.008 0 0.049 0.008 0 0.05 0.008 0 0.051 0.008 0 0.052 0.008 0 0.053 0.008 0 0.054 0.008 0 0.055 0.008 0 0.056 0.008 0 0.057 0.008 0 0.058 0.008 0 0.059 0.008 0 0.06 0.008 0 0.061 0.008 0 0.062 0.008 0 0.063 0.008 0 0.064 0.008 0 0.065 0.008 0 0.066 0.008 0 0.067 0.008 0 0.068 0.008 0 0.069 0.008 0 0.07 0.008 0 0 0.009 0 0.001 0.009 0 0.002 0.009 0 0.003 0.009 0 0.004 0.009 0 0.005 0.009 0 0.006 0.009 0 0.007 0.009 0 0.008 0.009 0 0.009 0.009 0 0.01 0.009 0 0.011 0.009 0 0.012 0.009 0 0.013 0.009 0 0.014 0.009 0 0.015 0.009 0 0.016 0.009 0 0.017 0.009 0 0.018 0.009 0 0.019 0.009 0 0.02 0.009 0 0.021 0.009 0 0.022 0.009 0 0.023 0.009 0 0.024 0.009 0 0.025 0.009 0 0.026 0.009 0 0.027 0.009 0 0.028 0.009 0 0.029 0.009 0 0.03 0.009 0 0.031 0.009 0 0.032 0.009 0 0.033 0.009 0 0.034 0.009 0 0.035 0.009 0 0.036 0.009 0 0.037 0.009 0 0.038 0.009 0 0.039 0.009 0 0.04 0.009 0 0.041 0.009 0 0.042 0.009 0 0.043 0.009 0 0.044 0.009 0 0.045 0.009 0 0.046 0.009 0 0.047 0.009 0 0.048 0.009 0 0.049 0.009 0 0.05 0.009 0 0.051 0.009 0 0.052 0.009 0 0.053 0.009 0 0.054 0.009 0 0.055 0.009 0 0.056 0.009 0 0.057 0.009 0 0.058 0.009 0 0.059 0.009 0 0.06 0.009 0 0.061 0.009 0 0.062 0.009 0 0.063 0.009 0 0.064 0.009 0 0.065 0.009 0 0.066 0.009 0 0.067 0.009 0 0.068 0.009 0 0.069 0.009 0 0.07 0.009 0 0 0.01 0 0.001 0.01 0 0.002 0.01 0 0.003 0.01 0 0.004 0.01 0 0.005 0.01 0 0.006 0.01 0 0.007 0.01 0 0.008 0.01 0 0.009 0.01 0 0.01 0.01 0 0.011 0.01 0 0.012 0.01 0 0.013 0.01 0 0.014 0.01 0 0.015 0.01 0 0.016 0.01 0 0.017 0.01 0 0.018 0.01 0 0.019 0.01 0 0.02
[...]
			<CellData Scalars="Density">
				<DataArray Name="Density" type="Float32" format="ascii">
 0.381927 0.381985 0.385338 0.390212 0.398703 0.403593 0.408272 0.421358 0.435305 0.442678 0.451276 0.462669 0.48078 0.495371 0.498432 0.509751 0.534742 0.551657 0.551769 0.654532 1.35567 2.14208 2.64168 2.82419 2.86035 2.73677 2.21127 1.33618 1.04313 1.00523 1.00064 1.00008 1.00001 1 1 1 1 1 1 1 1 1 1 1 1 1 1 1 1 1 1 1 1 1 1 1 1 1 1 1 1 1 1 1 1 1 1 1 1 1 0.38097 0.381032 0.383242 0.38773 0.396095 0.40044 0.405141 0.417692 0.430752 0.438671 0.446264 0.457582 0.475788 0.489886 0.493309 0.505055 0.529174 0.547149 0.547281 0.662916 1.36491 2.14257 2.63586 2.81712 2.85428 2.73308 2.21063 1.33635 1.04314 1.00523 1.00064 1.00008 1.00001 1 1 1 1 1 1 1 1 1 1 1 1 1 1 1 1 1 1 1 1 1 1 1 1 1 1 1 1 1 1 1 1 1 1 1 1 1 0.379881 0.379537 0.382625 0.387676 0.396084 0.400895 0.4056 0.418958 0.432257 0.440544 0.448803 0.460428 0.478941 0.493303 0.496349 0.508026 0.53328 0.549816 0.549923 0.663932 1.37028 2.14878 2.64077 2.81464 2.8489 2.72671 2.20666 1.33531 1.04311 1.00521 1.00067 1.0001 1.00002 1.00001 1 1 1 1 1 1 1 1 1 1 1 1 1 1 1 1 1 1 1 1 1 1 1 1 1 1 1 1 1 1 1 1 1 1 1 1 0.378531 0.378073 0.380752 0.385446 0.393656 0.398435 0.403796 0.416108 0.430012 0.437401 0.445846 0.456733 0.475076 0.488897 0.492373 0.504321 0.529134 0.547222 0.547328 0.674003 1.38723 2.16231 2.64415 2.81947 2.84685 2.72286 2.20406 1.33373 1.0428 1.00555 1.00092 1.00021 1.00007 1.00003 1.00002 1.00001 1 1 1 1 1 1 1 1 1 1 1 1 1 1 1 1 1 1 1 1 1 1 1 1 1 1 1 1 1 1 1 1 1 1 0.376343 0.375717 0.378716 0.38352 0.392292 0.397238 0.401725 0.414971 0.428227 0.437281 0.445303 0.456734 0.475355 0.489547 0.493151 0.504714 0.530969 0.548345 0.548415 0.679379 1.4058 2.18704 2.67573 2.85445 2.87648 2.74994 2.20124 1.32918 1.04641 1.0079 1.00196 1.00067 1.00031 1.00016 1.00007 1.00004 1.00002 1.00001 1 1 1 1 1 1 1 1 1 1 1 1 1 1 1 1 1 1 1 1 1 1 1 1 1 1 1 1 1 1 1 1 0.374357 0.373349 0.376233 0.380977 0.389771 0.393795 0.398889 0.411335 0.424141 0.433624 0.441888 0.453171 0.471377 0.486217 0.489828 0.502385 0.529297 0.546036 0.546075 0.694773 1.44039 2.23649 2.73071 2.9354 2.98731 2.83587 2.24747 1.38831 1.07144 1.01758 1.006 1.00273 1.00144 1.00073 1.00036 1.00019 1.00009 1.00004 1.00002 1.00001 1 1 1 1 1 1 1 1 1 1 1 1 1 1 1 1 1 1 1 1 1 1 1 1 1 1 1 1 1 1 0.371576 0.370549 0.373491 0.378172 0.386925 0.39075 0.396465 0.409231 0.422028 0.432519 0.440362 0.451151 0.469213 0.483441 0.487205 0.499387 0.526225 0.540515 0.540571 0.732174 1.50609 2.29259 2.78035 3.02049 3.09593 2.97272 2.48785 1.61466 1.15136 1.05047 1.02246 1.01206 1.00651 1.0034 1.00178 1.00093 1.00046 1.00023 1.00011 1.00005 1.00002 1.00001 1 1 1 1 1 1 1 1 1 1 1 1 1 1 1 1 1 1 1 1 1 1 1 1 1 1 1 1 0.369049 0.367636 0.370735 0.374948 0.383459 0.387536 0.393417 0.405469 0.417757 0.428845 0.436484 0.446956 0.464238 0.479004 0.482192 0.49469 0.522907 0.533787 0.533926 0.781194 1.58396 2.35103 2.83249 3.04579 3.16005 3.12565 2.7753 1.92992 1.36804 1.17534 1.09361 1.05423 1.02969 1.01592 1.00863 1.00452 1.00225 1.00114 1.00055 1.00027 1.00012 1.00006 1.00002 1.00001 1 1 1 1 1 1 1 1 1 1 1 1 1 1 1 1 1 1 1 1 1 1 1 1 1 1 0.366058 0.364689 0.367539 0.371298 0.38039 0.384262 0.389556 0.401309 0.41393 0.425048 0.433225 0.441599 0.460215 0.473993 0.476434 0.49109 0.517396 0.523866 0.5269 0.844237 1.66687 2.38716 2.78075 2.96321 3.13909 3.13293 2.82495 2.14531 1.69666 1.48108 1.35568 1.23489 1.13461 1.07537 1.04156 1.02153 1.01105 1.00572 1.00278 1.00137 1.00065 1.00029 1.00013 1.00005 1.00002 1.00001 1 1 1 1 1 1 1 1 1 1 1 1 1 1 1 1 1 1 1 1 1 1 1 1 0.363134 0.361501 0.364102 0.368327 0.376737 0.38006 0.385647 0.397236 0.40964 0.421131 0.428763 0.436402 0.454234 0.468795 0.470686 0.484875 0.512131 0.515748 0.516944 0.926616 1.7788 2.39971 2.71698 2.91562 3.02556 2.93663 2.56547 2.09857 1.84583 1.73501 1.67868 1.58928 1.4553 1.31668 1.18878 1.10225 1.05415 1.02817 1.01388 1.00701 1.00338 1.00157 1.00069 1.00031 1.00014 1.00005 1.00002 1.00001 1 1 1 1 1 1 1 1 1 1 1 1 1 1 1 1 1 1 1 1 1 1 0.360014 0.358278 0.360956 0.364625 0.372299 0.376316 0.382034 0.392533 0.404948 0.416468 0.424283 0.430945 0.449353 0.463326 0.464329 0.478976 0.502694 0.503248 0.504624 0.987329 1.80929 2.37417 2.61923 2.7473 2.70181 2.42807 2.07562 1.85549 1.80787 1.79049 1.79083 1.77281 1.73734 1.66534 1.55815 1.41545 1.25161 1.13539 1.06859 1.03528 1.01734 1.00825 1.00381 1.00175 1.00075 1.00029 1.00011 1.00004 1.00001 1 1 1 1 1 1 1 1 1 1 1 1 1 1 1 1 1 1 1 1 1 0.356846 0.355031 0.357357 0.360849 0.368487 0.372559 0.378499 0.387252 0.400221 0.411478 0.419037 0.425811 0.442306 0.457149 0.458791 0.470639 0.491819 0.494006 0.49541 0.963163 1.80239 2.35173 2.38691 2.38007 2.03766 1.64939 1.38027 1.30607 1.37764 1.48312 1.59773 1.69833 1.75518 1.76546 1.74125 1.69175 1.61734 1.49057 1.32571 1.17687 1.08809 1.04303 1.02043 1.00973 1.00421 1.00165 1.00068 1.00025 1.00007 1.00002 1.00001 1 1 1 1 1 1 1 1 1 1 1 1 1 1 1 1 1 1 1 0.353621 0.351622 0.353759 0.357385 0.364574 0.368486 0.373838 0.38285 0.396105 0.405611 0.413431 0.422252 0.435404 0.449394 0.45473 0.463264 0.478145 0.48168 0.483593 0.896124 1.78574 2.1986 2.1118 1.73828 1.19575 0.770776 0.558609 0.52557 0.582815 0.680529 0.814345 1.00782 1.18873 1.32768 1.44622 1.56539 1.64737 1.6761 1.63533 1.51289 1.35597 1.20284 1.1081 1.05471 1.02356 1.00981 1.00406 1.00142 1.00043 1.00012 1.00003 1.00001 1 1 1 1 1 1 1 1 1 1 1 1 1 1 1 1 1 1 0.350353 0.348233 0.35048 0.353989 0.359893 0.3639 0.370205 0.378461 0.389732 0.401262 0.40958 0.41539 0.427413 0.442935 0.450697 0.454273 0.465022 0.4739 0.474319 0.810612 1.6379 1.9238 1.72583 1.11988 0.524771 0.246032 0.1925 0.188835 0.190285 0.192016 0.186413 0.182239 0.261291 0.371122 0.482579 0.618445 0.774912 0.968825 1.25078 1.4867 1.49159 1.43627 1.33685 1.20595 1.10602 1.05302 1.0232 1.00828 1.00255 1.00068 1.00017 1.00004 1.00001 1 1 1 1 1 1 1 1 1 1 1 1 1 1 1 1 1 0.347129 0.34498 0.34698 0.349801 0.355103 0.362088 0.367399 0.372313 0.384101 0.397174 0.402864 0.409001 0.421575 0.433732 0.443832 0.449976 0.455777 0.462951 0.463153 0.720702 1.41998 1.6389 1.38502 0.811087 0.402121 0.240047 0.262577 0.290053 0.281579 0.268079 0.240547 0.21108 0.196606 0.194431 0.193989 0.194021 0.192473 0.191458 0.201697 0.320289 0.504189 0.644392 0.805527 0.949508 1.03337 1.04465 1.03092 1.01892 1.00748 1.00195 1.00048 1.00011 1.00003 1.00001 1 1 1 1 1 1 1 1 1 1 1 1 1 1 1 1 0.343872 0.341182 0.343599 0.345882 0.351026 0.35949 0.362062 0.367916 0.3767 0.390706 0.399869 0.404354 0.412542 0.427525 0.43647 0.440284 0.447738 0.459915 0.460083 0.607754 1.2949 1.51079 1.31891 0.88089 0.624782 0.525569 0.476769 0.414029 0.357968 0.340566 0.307412 0.236705 0.19787 0.191194 0.193945 0.19454 0.196784 0.197007 0.197384 0.196624 0.197104 0.194552 0.192811 0.190473 0.183807 0.172368 0.14376 0.119514 0.105815 0.101483 0.100368 0.100089 0.100021 0.100005 0.100001 0.1 0.1 0.1 0.1 0.1 0.1 0.1 0.1 0.1 0.1 0.1 0.1 0.1 0.1 0.1 0.340572 0.337619 0.340297 0.342554 0.347376 0.353518 0.358875 0.364966 0.371593 0.381286 0.396007 0.401289 0.404613 0.419392 0.429931 0.430183 0.437271 0.450549 0.445174 0.415681 0.824642 1.22599 1.19106 1.01313 0.819564 0.646378 0.522229 0.431867 0.364921 0.356513 0.32091 0.240488 0.197707 0.189499 0.19321 0.193999 0.194645 0.195236 0.196353 0.196693 0.196339 0.195323 0.194006 0.190741 0.183943 0.173048 0.153236 0.128167 0.108759 0.102336 0.100579 0.100145 0.100034 0.100008 0.100002 0.1 0.1 0.1 0.1 0.1 0.1 0.1 0.1 0.1 0.1 0.1 0.1 0.1 0.1 0.1 0.337413 0.334285 0.336658 0.338804 0.343701 0.348505 0.355395 0.359987 0.366235 0.375668 0.388309 0.39622 0.401971 0.409768 0.419844 0.425248 0.428326 0.43655 0.432845 0.429169 0.451148 0.669408 0.737032 0.721956 0.606899 0.458681 0.367106 0.356378 0.355238 0.359927 0.324253 0.242162 0.197759 0.188922 0.192713 0.193917 0.19489 0.195689 0.196088 0.196082 0.195553 0.194315 0.192011 0.189174 0.183973 0.176439 0.161794 0.138034 0.113558 0.10361 0.100891 0.100214 0.100049 0.100011 0.100002 0.100001 0.1 0.1 0.1 0.1 0.1 0.1 0.1 0.1 0.1 0.1 0.1 0.1 0.1 0.1 0.33421 0.331047 0.333085 0.335151 0.340084 0.345135 0.349905 0.354631 0.362846 0.36999 0.379106 0.390756 0.398752 0.40295 0.410169 0.418268 0.423684 0.426182 0.426376 0.417108 0.408456 0.404736 0.453622 0.433608 0.401842 0.354149 0.340265 0.364368 0.367373 0.374313 0.328812 0.245605 0.200201 0.189202 0.192206 0.193198 0.194118 0.194937 0.195258 0.19515 0.194503 0.193608 0.191872 0.189193 0.185659 0.179622 0.167038 0.145599 0.119057 0.105149 0.101305 0.100315 0.100073 0.100016 0.100003 0.100001 0.1 0.1 0.1 0.1 0.1 0.1 0.1 0.1 0.1 0.1 0.1 0.1 0.1 0.1 0.331083 0.327731 0.329613 0.331948 0.335939 0.341035 0.3444 0.350822 0.357595 0.363291 0.372912 0.383801 0.392211 0.398491 0.403089 0.409361 0.417123 0.420843 0.422116 0.418601 0.404533 0.391412 0.386221 0.37357 0.357635 0.353257 0.35554 0.374071 0.376122 0.376425 0.303601 0.232625 0.19854 0.19097 0.192167 0.192746 0.193796 0.194677 0.194897 0.194847 0.193992 0.192844 0.19133 0.189281 0.186763 0.182107 0.172422 0.152416 0.124647 0.106721 0.101633 0.100373 0.100082 0.100017 0.100004 0.100001 0.1 0.1 0.1 0.1 0.1 0.1 0.1 0.1 0.1 0.1 0.1 0.1 0.1 0.1 0.328021 0.324541 0.326514 0.328402 0.331993 0.336825 0.34098 0.345785 0.350856 0.358821 0.367233 0.37542 0.386355 0.393536 0.397177 0.402166 0.409177 0.41534 0.418626 0.417915 0.409869 0.399766 0.389178 0.378305 0.369328 0.36872 0.371959 0.388196 0.389024 0.362113 0.286349 0.228854 0.199005 0.19223 0.192432 0.192763 0.193451 0.194065 0.194311 0.19434 0.193617 0.192594 0.191252 0.189708 0.187972 0.184094 0.17648 0.157623 0.130008 0.108348 0.101969 0.100441 0.100096 0.10002 0.100004 0.100001 0.1 0.1 0.1 0.1 0.1 0.1 0.1 0.1 0.1 0.1 0.1 0.1 0.1 0.1 0.325011 0.321449 0.323266 0.324626 0.328771 0.332819 0.336198 0.340254 0.346493 0.353333 0.36027 0.369005 0.379745 0.387419 0.392383 0.396575 0.402084 0.408915 0.414487 0.415243 0.413198 0.4041 0.393829 0.384205 0.378309 0.378343 0.384756 0.397198 0.3942 0.346481 0.277544 0.223668 0.197478 0.192971 0.192914 0.193015 0.193555 0.193878 0.193946 0.193958 0.193215 0.192381 0.191154 0.19003 0.188976 0.185574 0.179783 0.162449 0.135313 0.109959 0.102292 0.100503 0.100106 0.100022 0.100004 0.100001 0.1 0.1 0.1 0.1 0.1 0.1 0.1 0.1 0.1 0.1 0.1 0.1 0.1 0.1 0.322224 0.318544 0.320085 0.321597 0.325146 0.32844 0.332426 0.335822 0.341531 0.346988 0.354921 0.363489 0.372002 0.381585 0.387774 0.39073 0.395982 0.404024 0.410424 0.412287 0.41238 0.406186 0.396439 0.389604 0.386589 0.387554 0.395961 0.40348 0.392083 0.335223 0.268013 0.218568 0.196699 0.193658 0.193431 0.193464 0.193812 0.193871 0.193836 0.19384 0.19313 0.192391 0.191314 0.190623 0.189656 0.186793 0.182639 0.166246 0.139641 0.111643 0.102642 0.100565 0.100116 0.100023 0.100005 0.100001 0.1 0.1 0.1 0.1 0.1 0.1 0.1 0.1 0.1 0.1 0.1 0.1 0.1 0.1 0.319518 0.315742 0.317083 0.318513 0.321201 0.324833 0.328683 0.330815 0.336064 0.341833 0.349832 0.356531 0.365648 0.376152 0.382293 0.385815 0.390786 0.399101 0.407186 0.410497 0.411127 0.408071 0.398976 0.394446 0.39261 0.395008 0.405075 0.40855 0.388826 0.324658 0.258643 0.214146 0.196308 0.194244 0.193926 0.1939 0.194134 0.194017 0.193823 0.193694 0.193018 0.192651 0.191519 0.190846 0.19017 0.188086 0.184489 0.169149 0.143834 0.11354 0.102976 0.100619 0.100125 0.100025 0.100005 0.100001 0.1 0.1 0.1 0.1 0.1 0.1 0.1 0.1 0.1 0.1 0.1 0.1 0.1 0.1 0.317043 0.313271 0.314218 0.315303 0.317871 0.321619 0.32431 0.326506 0.331484 0.337068 0.343876 0.351402 0.360641 0.369288 0.37748 0.381772 0.386067 0.395052 0.404792 0.409443 0.409913 0.408388 0.401575 0.398386 0.397164 0.401284 0.412203 0.412121 0.381887 0.315434 0.25148 0.211267 0.196412 0.194677 0.194359 0.194265 0.194448 0.194261 0.194067 0.193942 0.193071 0.192799 0.191695 0.191296 0.190663 0.188707 0.186162 0.172643 0.147719 0.115131 0.103247 0.100664 0.100132 0.100026 0.100005 0.100001 0.1 0.1 0.1 0.1 0.1 0.1 0.1 0.1 0.1 0.1 0.1 0.1 0.1 0.1 0.314718 0.310939 0.311243 0.312401 0.315022 0.318065 0.320493 0.322883 0.327191 0.331954 0.339232 0.347031 0.354381 0.364067 0.373105 0.377201 0.382687 0.39151 0.401772 0.408316 0.409522 0.408812 0.404425 0.401525 0.400673 0.407234 0.417989 0.413737 0.375015 0.308515 0.246092 0.209423 0.19679 0.195026 0.19477 0.194619 0.194799 0.194563 0.194378 0.194064 0.193146 0.192853 0.191837 0.191534 0.190717 0.189757 0.187739 0.174286 0.149773 0.116467 0.103511 0.1007 0.100136 0.100026 0.100005 0.100001 0.1 0.1 0.1 0.1 0.1 0.1 0.1 0.1 0.1 0.1 0.1 0.1 0.1 0.1 0.312616 0.308842 0.308726 0.309981 0.312111 0.314981 0.317605 0.31957 0.323153 0.3282 0.335171 0.341707 0.349897 0.360121 0.368305 0.374125 0.380159 0.38902 0.400632 0.408903 0.410888 0.410274 0.40728 0.404771 0.404273 0.412508 0.422783 0.414803 0.370074 0.301389 0.241417 0.208012 0.197232 0.195523 0.195247 0.194942 0.195045 0.194764 0.194447 0.194122 0.193319 0.19312 0.192049 0.191809 0.191146 0.190169 0.188065 0.17618 0.152817 0.118032 0.103723 0.100725 0.100139 0.100026 0.100005 0.100001 0.1 0.1 0.1 0.1 0.1 0.1 0.1 0.1 0.1 0.1 0.1 0.1 0.1 0.1 0.310854 0.307061 0.306712 0.307825 0.309819 0.31268 0.314789 0.316703 0.320064 0.324914 0.331039 0.338015 0.346008 0.355797 0.364719 0.370444 0.376646 0.387278 0.399957 0.409303 0.412497 0.412123 0.409742 0.407629 0.407453 0.41752 0.42692 0.415961 0.366388 0.296939 0.238591 0.207094 0.197596 0.196012 0.195737 0.19541 0.195411 0.194878 0.194421 0.194113 0.193398 0.19313 0.192132 0.19202 0.191342 0.190802 0.189641 0.178362 0.15447 0.118692 0.10381 0.100734 0.10014 0.100026 0.100005 0.100001 0.1 0.1 0.1 0.1 0.1 0.1 0.1 0.1 0.1 0.1 0.1 0.1 0.1 0.1 0.309488 0.305852 0.305421 0.30631 0.308191 0.310742 0.312787 0.314761 0.317728 0.322513 0.328795 0.335584 0.343929 0.354769 0.364411 0.371477 0.379474 0.39093 0.404336 0.41363 0.415029 0.414481 0.411594 0.409997 0.410237 0.421382 0.429685 0.416945 0.364029 0.293712 0.236788 0.206615 0.197874 0.19637 0.196103 0.195784 0.195761 0.19514 0.194597 0.194095 0.193362 0.193203 0.192344 0.192225 0.191569 0.190956 0.189462 0.178459 0.155222 0.119206 0.103872 0.10074 0.100141 0.100026 0.100005 0.100001 0.1 0.1 0.1 0.1 0.1 0.1 0.1 0.1 0.1 0.1 0.1 0.1 0.1 0.1 0.308373 0.304895 0.30434 0.305005 0.30661 0.308868 0.310798 0.312464 0.314571 0.319588 0.325328 0.331522 0.339725 0.349877 0.359256 0.365893 0.373068 0.384276 0.398472 0.40936 0.4117 0.410815 0.408828 0.408625 0.410074 0.422662 0.430279 0.41675 0.362433 0.292313 0.236158 0.206605 0.198235 0.196719 0.196386 0.195975 0.195919 0.195386 0.194774 0.194146 0.19338 0.193166 0.192323 0.192115 0.191598 0.191368 0.190438 0.179825 0.156139 0.119444 0.103886 0.100741 0.100141 0.100027 0.100005 0.100001 0.1 0.1 0.1 0.1 0.1 0.1 0.1 0.1 0.1 0.1 0.1 0.1 0.1 0.1
				</DataArray>
				<DataArray Name="Energy" type="Float32" format="ascii">