<?xml version="1.0"?>
<VTKFile type="PolyData">
	<PolyData>
		<Piece NumberOfPoints="2201" NumberOfPolys="2100">
			<Points>
				<DataArray type="Float32" NumberOfComponents="3" format="ascii">
 0 0 0 0.001 0 0 0.002 0 0 0.003 0 0 0.004 0 0 0.005 0 0 0.006 0 0 0.007 0 0 0.008 0 0 0.009 0 0 0.01 0 0 0.011 0 0 0.012 0 0 0.013 0 0 0.014 0 0 0.015 0 0 0.016 0 0 0.017 0 0 0.018 0 0 0.019 0 0 0.02 0 0 0.021 0 0 0.022 0 0 0.023 0 0 0.024 0 0 0.025 0 0 0.026 0 0 0.027 0 0 0.028 0 0 0.029 0 0 0.03 0 0 0.031 0 0 0.032 0 0 0.033 0 0 0.034 0 0 0.035 0 0 0.036 0 0 0.037 0 0 0.038 0 0 0.039 0 0 0.04 0 0 0.041 0 0 0.042 0 0 0.043 0 0 0.044 0 0 0.045 0 0 0.046 0 0 0.047 0 0 0.048 0 0 0.049 0 0 0.05 0 0 0.051 0 0 0.052 0 0 0.053 0 0 0.054 0 0 0.055 0 0 0.056 0 0 0.057 0 0 0.058 0 0 0.059 0 0 0.06 0 0 0.061 0 0 0.062 0 0 0.063 0 0 0.064 0 0 0.065 0 0 0.066 0 0 0.067 0 0 0.068 0 0 0.069 0 0 0.07 0 0 0 0.001 0 0.001 0.001 0 0.002 0.001 0 0.003 0.001 0 0.004 0.001 0 0.005 0.001 0 0.006 0.001 0 0.007 0.001 0 0.008 0.001 0 0.009 0.001 0 0.01 0.001 0 0.011 0.001 0 0.012 0.001 0 0.013 0.001 0 0.014 0.001 0 0.015 0.001 0 0.016 0.001 0 0.017 0.001 0 0.018 0.001 0 0.019 0.001 0 0.02 0.001 0 0.021 0.001 0 0.022 0.001 0 0.023 0.001 0 0.024 0.001 0 0.025 0.001 0 0.026 0.001 0 0.027 0.001 0 0.028 0.001 0 0.029 0.001 0 0.03 0.001 0 0.031 0.001 0 0.032 0.001 0 0.033 0.001 0 0.034 0.001 0 0.035 0.001 0 0.036 0.001 0 0.037 0.001 0 0.038 0.001 0 0.039 0.001 0 0.04 0.001 0 0.041 0.001 0 0.042 0.001 0 0.043 0.001 0 0.044 0.001 0 0.045 0.001 0 0.046 0.001 0 0.047 0.001 0 0.048 0.001 0 0.049 0.001 0 0.05 0.001 0 0.051 0.001 0 0.052 0.001 0 0.053 0.001 0 0.054 0.001 0 0.055 0.001 0 0.056 0.001 0 0.057 0.001 0 0.058 0.001 0 0.059 0.001 0 0.06 0.001 0 0.061 0.001 0 0.062 0.001 0 0.063 0.001 0 0.064 0.001 0 0.065 0.001 0 0.066 0.001 0 0.067 0.001 0 0.068 0.001 0 0.069 0.001 0 0.07 0.001 0 0 0.002 0 0.001 0.002 0 0.002 0.002 0 0.003 0.002 0 0.004 0.002 0 0.005 0.002 0 0.006 0.002 0 0.007 0.002 0 0.008 0.002 0 0.009 0.002 0 0.01 0.002 0 0.011 0.002 0 0.012 0.002 0 0.013 0.002 0 0.014 0.002 0 0.015 0.002 0 0.016 0.002 0 0.017 0.002 0 0.018 0.002 0 0.019 0.002 0 0.02 0.002 0 0.021 0.002 0 0.022 0.002 0 0.023 0.002 0 0.024 0.002 0 0.025 0.002 0 0.026 0.002 0 0.027 0.002 0 0.028 0.002 0 0.029 0.002 0 0.03 0.002 0 0.031 0.002 0 0.032 0.002 0 0.033 0.002 0 0.034 0.002 0 0.035 0.002 0 0.036 0.002 0 0.037 0.002 0 0.038 0.002 0 0.039 0.002 0 0.04 0.002 0 0.041 0.002 0 0.042 0.002 0 0.043 0.002 0 0.044 0.002 0 0.045 0.002 0 0.046 0.002 0 0.047 0.002 0 0.048 0.002 0 0.049 0.002 0 0.05 0.002 0 0.051 0.002 0 0.052 0.002 0 0.053 0.002 0 0.054 0.002 0 0.055 0.002 0 0.056 0.002 0 0.057 0.002 0 0.058 0.002 0 0.059 0.002 0 0.06 0.002 0 0.061 0.002 0 0.062 0.002 0 0.063 0.002 0 0.064 0.002 0 0.065 0.002 0 0.066 0.002 0 0.067 0.002 0 0.068 0.002 0 0.069 0.002 0 0.07 0.002 0 0 0.003 0 0.001 0.003 0 0.002 0.003 0 0.003 0.003 0 0.004 0.003 0 0.005 0.003 0 0.006 0.003 0 0.007 0.003 0 0.008 0.003 0 0.009 0.003 0 0.01 0.003 0 0.011 0.003 0 0.012 0.003 0 0.013 0.003 0 0.014 0.003 0 0.015 0.003 0 0.016 0.003 0 0.017 0.003 0 0.018 0.003 0 0.019 0.003 0 0.02 0.003 0 0.021 0.003 0 0.022 0.003 0 0.023 0.003 0 0.024 0.003 0 0.025 0.003 0 0.026 0.003 0 0.027 0.003 0 0.028 0.003 0 0.029 0.003 0 0.03 0.003 0 0.031 0.003 0 0.032 0.003 0 0.033 0.003 0 0.034 0.003 0 0.035 0.003 0 0.036 0.003 0 0.037 0.003 0 0.038 0.003 0 0.039 0.003 0 0.04 0.003 0 0.041 0.003 0 0.042 0.003 0 0.043 0.003 0 0.044 0.003 0 0.045 0.003 0 0.046 0.003 0 0.047 0.003 0 0.048 0.003 0 0.049 0.003 0 0.05 0.003 0 0.051 0.003 0 0.052 0.003 0 0.053 0.003 0 0.054 0.003 0 0.055 0.003 0 0.056 0.003 0 0.057 0.003 0 0.058 0.003 0 0.059 0.003 0 0.06 0.003 0 0.061 0.003 0 0.062 0.003 0 0.063 0.003 0 0.064 0.003 0 0.065 0.003 0 0.066 0.003 0 0.067 0.003 0 0.068 0.003 0 0.069 0.003 0 0.07 0.003 0 0 0.004 0 0.001 0.004 0 0.002 0.004 0 0.003 0.004 0 0.004 0.004 0 0.005 0.004 0 0.006 0.004 0 0.007 0.004 0 0.008 0.004 0 0.009 0.004 0 0.01 0.004 0 0.011 0.004 0 0.012 0.004 0 0.013 0.004 0 0.014 0.004 0 0.015 0.004 0 0.016 0.004 0 0.017 0.004 0 0.018 0.004 0 0.019 0.004 0 0.02 0.004 0 0.021 0.004 0 0.022 0.004 0 0.023 0.004 0 0.024 0.004 0 0.025 0.004 0 0.026 0.004 0 0.027 0.004 0 0.028 0.004 0 0.029 0.004 0 0.03 0.004 0 0.031 0.004 0 0.032 0.004 0 0.033 0.004 0 0.034 0.004 0 0.035 0.004 0 0.036 0.004 0 0.037 0.004 0 0.038 0.004 0 0.039 0.004 0 0.04 0.004 0 0.041 0.004 0 0.042 0.004 0 0.043 0.004 0 0.044 0.004 0 0.045 0.004 0 0.046 0.004 0 0.047 0.004 0 0.048 0.004 0 0.049 0.004 0 0.05 0.004 0 0.051 0.004 0 0.052 0.004 0 0.053 0.004 0 0.054 0.004 0 0.055 0.004 0 0.056 0.004 0 0.057 0.004 0 0.058 0.004 0 0.059 0.004 0 0.06 0.004 0 0.061 0.004 0 0.062 0.004 0 0.063 0.004 0 0.064 0.004 0 0.065 0.004 0 0.066 0.004 0 0.067 0.004 0 0.068 0.004 0 0.069 0.004 0 0.07 0.004 0 0 0.005 0 0.001 0.005 0 0.002 0.005 0 0.003 0.005 0 0.004 0.005 0 0.005 0.005 0 0.006 0.005 0 0.007 0.005 0 0.008 0.005 0 0.009 0.005 0 0.01 0.005 0 0.011 0.005 0 0.012 0.005 0 0.013 0.005 0 0.014 0.005 0 0.015 0.005 0 0.016 0.005 0 0.017 0.005 0 0.018 0.005 0 0.019 0.005 0 0.02 0.005 0 0.021 0.005 0 0.022 0.005 0 0.023 0.005 0 0.024 0.005 0 0.025 0.005 0 0.026 0.005 0 0.027 0.005 0 0.028 0.005 0 0.029 0.005 0 0.03 0.005 0 0.031 0.005 0 0.032 0.005 0 0.033 0.005 0 0.034 0.005 0 0.035 0.005 0 0.036 0.005 0 0.037 0.005 0 0.038 0.005 0 0.039 0.005 0 0.04 0.005 0 0.041 0.005 0 0.042 0.005 0 0.043 0.005 0 0.044 0.005 0 0.045 0.005 0 0.046 0.005 0 0.047 0.005 0 0.048 0.005 0 0.049 0.005 0 0.05 0.005 0 0.051 0.005 0 0.052 0.005 0 0.053 0.005 0 0.054 0.005 0 0.055 0.005 0 0.056 0.005 0 0.057 0.005 0 0.058 0.005 0 0.059 0.005 0 0.06 0.005 0 0.061 0.005 0 0.062 0.005 0 0.063 0.005 0 0.064 0.005 0 0.065 0.005 0 0.066 0.005 0 0.067 0.005 0 0.068 0.005 0 0.069 0.005 0 0.07 0.005 0 0 0.006 0 0.001 0.006 0 0.002 0.006 0 0.003 0.006 0 0.004 0.006 0 0.005 0.006 0 0.006 0.006 0 0.007 0.006 0 0.008 0.006 0 0.009 0.006 0 0.01 0.006 0 0.011 0.006 0 0.012 0.006 0 0.013 0.006 0 0.014 0.006 0 0.015 0.006 0 0.016 0.006 0 0.017 0.006 0 0.018 0.006 0 0.019 0.006 0 0.02 0.006 0 0.021 0.006 0 0.022 0.006 0 0.023 0.006 0 0.024 0.006 0 0.025 0.006 0 0.026 0.006 0 0.027 0.006 0 0.028 0.006 0 0.029 0.006 0 0.03 0.006 0 0.031 0.006 0 0.032 0.006 0 0.033 0.006 0 0.034 0.006 0 0.035 0.006 0 0.036 0.006 0 0.037 0.006 0 0.038 0.006 0 0.039 0.006 0 0.04 0.006 0 0.041 0.006 0 0.042 0.006 0 0.043 0.006 0 0.044 0.006 0 0.045 0.006 0 0.046 0.006 0 0.047 0.006 0 0.048 0.006 0 0.049 0.006 0 0.05 0.006 0 0.051 0.006 0 0.052 0.006 0 0.053 0.006 0 0.054 0.006 0 0.055 0.006 0 0.056 0.006 0 0.057 0.006 0 0.058 0.006 0 0.059 0.006 0 0.06 0.006 0 0.061 0.006 0 0.062 0.006 0 0.063 0.006 0 0.064 0.006 0 0.065 0.006 0 0.066 0.006 0 0.067 0.006 0 0.068 0.006 0 0.069 0.006 0 0.07 0.006 0 0 0.007 0 0.001 0.007 0 0.002 0.007 0 0.003 0.007 0 0.004 0.007 0 0.005 0.007 0 0.006 0.007 0 0.007 0.007 0 0.008 0.007 0 0.009 0.007 0 0.01 0.007 0 0.011 0.007 0 0.012 0.007 0 0.013 0.007 0 0.014 0.007 0 0.015 0.007 0 0.016 0.007 0 0.017 0.007 0 0.018 0.007 0 0.019 0.007 0 0.02 0.007 0 0.021 0.007 0 0.022 0.007 0 0.023 0.007 0 0.024 0.007 0 0.025 0.007 0 0.026 0.007 0 0.027 0.007 0 0.028 0.007 0 0.029 0.007 0 0.03 0.007 0 0.031 0.007 0 0.032 0.007 0 0.033 0.007 0 0.034 0.007 0 0.035 0.007 0 0.036 0.007 0 0.037 0.007 0 0.038 0.007 0 0.039 0.007 0 0.04 0.007 0 0.041 0.007 0 0.042 0.007 0 0.043 0.007 0 0.044 0.007 0 0.045 0.007 0 0.046 0.007 0 0.047 0.007 0 0.048 0.007 0 0.049 0.007 0 0.05 0.007 0 0.051 0.007 0 0.052 0.007 0 0.053 0.007 0 0.054 0.007 0 0.055 0.007 0 0.056 0.007 0 0.057 0.007 0 0.058 0.007 0 0.059 0.007 0 0.06 0.007 0 0.061 0.007 0 0.062 0.007 0 0.063 0.007 0 0.064 0.007 0 0.065 0.007 0 0.066 0.007 0 0.067 0.007 0 0.068 0.007 0 0.069 0.007 0 0.07 0.007 0 0 0.008 0 0.001 0.008 0 0.002 0.008 0 0.003 0.008 0 0.004 0.008 0 0.005 0.008 0 0.006 0.008 0 0.007 0.008 0 0.008 0.008 0 0.009 0.008 0 0.01 0.008 0 0.011 0.008 0 0.012 0.008 0 0.013 0.008 0 0.014 0.008 0 0.015 0.008 0 0.016 0.008 0 0.017 0.008 0 0.018 0.008 0 0.019 0.008 0 0.02 0.008 0 0.021 0.008 0 0.022 0.008 0 0.023 0.008 0 0.024 0.008 0 0.025 0.008 0 0.026 0.008 0 0.027 0.008 0 0.028 0.008 0 0.029 0.008 0 0.03 0.008 0 0.031 0.008 0 0.032 0.008 0 0.033 0.008 0 0.034 0.008 0 0.035 0.008 0 0.036 0.008 0 0.037 0.008 0 0.038 0.008 0 0.039 0.008 0 0.04 0.008 0 0.041 0.008 0 0.042 0.008 0 0.043 0.008 0 0.044 0.008 0 0.045 0.008 0 0.046 0.008 0 0.047 0.008 0 0.048 0.008 0 0.049 0.008 0 0.05 0.008 0 0.051 0.008 0 0.052 0.008 0 0.053 0.008 0 0.054 0.008 0 0.055 0.008 0 0.056 0.008 0 0.057 0.008 0 0.058 0.008 0 0.059 0.008 0 0.06 0.008 0 0.061 0.008 0 0.062 0.008 0 0.063 0.008 0 0.064 0.008 0 0.065 0.008 0 0.066 0.008 0 0.067 0.008 0 0.068 0.008 0 0.069 0.008 0 0.07 0.008 0 0 0.009 0 0.001 0.009 0 0.002 0.009 0 0.003 0.009 0 0.004 0.009 0 0.005 0.009 0 0.006 0.009 0 0.007 0.009 0 0.008 0.009 0 0.009 0.009 0 0.01 0.009 0 0.011 0.009 0 0.012 0.009 0 0.013 0.009 0 0.014 0.009 0 0.015 0.009 0 0.016 0.009 0 0.017 0.009 0 0.018 0.009 0 0.019 0.009 0 0.02 0.009 0 0.021 0.009 0 0.022 0.009 0 0.023 0.009 0 0.024 0.009 0 0.025 0.009 0 0.026 0.009 0 0.027 0.009 0 0.028 0.009 0 0.029 0.009 0 0.03 0.009 0 0.031 0.009 0 0.032 0.009 0 0.033 0.009 0 0.034 0.009 0 0.035 0.009 0 0.036 0.009 0 0.037 0.009 0 0.038 0.009 0 0.039 0.009 0 0.04 0.009 0 0.041 0.009 0 0.042 0.009 0 0.043 0.009 0 0.044 0.009 0 0.045 0.009 0 0.046 0.009 0 0.047 0.009 0 0.048 0.009 0 0.049 0.009 0 0.05 0.009 0 0.051 0.009 0 0.052 0.009 0 0.053 0.009 0 0.054 0.009 0 0.055 0.009 0 0.056 0.009 0 0.057 0.009 0 0.058 0.009 0 0.059 0.009 0 0.06 0.009 0 0.061 0.009 0 0.062 0.009 0 0.063 0.009 0 0.064 0.009 0 0.065 0.009 0 0.066 0.009 0 0.067 0.009 0 0.068 0.009 0 0.069 0.009 0 0.07 0.009 0 0 0.01 0 0.001 0.01 0 0.002 0.01 0 0.003 0.01 0 0.004 0.01 0 0.005 0.01 0 0.006 0.01 0 0.007 0.01 0 0.008 0.01 0 0.009 0.01 0 0.01 0.01 0 0.011 0.01 0 0.012 0.01 0 0.013 0.01 0 0.014 0.01 0 0.015 0.01 0 0.016 0.01 0 0.017 0.01 0 0.018 0.01 0 0.019 0.01 0 0.02
[...]
			<CellData Scalars="Density">
				<DataArray Name="Density" type="Float32" format="ascii">
 0.252319 0.253047 0.252933 0.252153 0.253266 0.253151 0.250299 0.248346 0.249885 0.251029 0.250341 0.249062 0.246848 0.246686 0.251082 0.254119 0.252936 0.250648 0.251806 0.258483 0.266256 0.272171 0.27453 0.2744 0.312716 0.502833 0.759582 1.04092 1.32107 1.58469 1.81854 2.02707 2.21918 2.40216 2.58748 2.7883 2.98881 3.19755 3.40719 3.58185 3.81276 3.87633 3.64441 2.84276 1.67122 1.27849 1.15214 1.09206 1.05768 1.0347 1.02068 1.01244 1.00741 1.00436 1.00257 1.0015 1.00086 1.0005 1.00028 1.00016 1.00009 1.00005 1.00003 1.00001 1.00001 1 1 1 1 1 0.251206 0.251918 0.251746 0.250996 0.252126 0.252047 0.249193 0.2473 0.248795 0.249887 0.24941 0.247919 0.24567 0.245799 0.249601 0.252738 0.25131 0.248746 0.249828 0.256762 0.264665 0.26954 0.268624 0.268154 0.331685 0.544016 0.810389 1.08711 1.35024 1.5914 1.81102 2.00457 2.17283 2.35044 2.54045 2.73047 2.91165 3.08189 3.26045 3.41312 3.65916 3.7005 3.52029 2.86897 1.925 1.53945 1.37583 1.27302 1.18167 1.11204 1.0683 1.04162 1.02466 1.01458 1.00866 1.00506 1.00294 1.00171 1.00098 1.00056 1.00031 1.00018 1.0001 1.00005 1.00003 1.00002 1.00001 1 1 1 0.251007 0.251751 0.251549 0.250807 0.251867 0.251788 0.249163 0.247012 0.248453 0.249548 0.249087 0.247629 0.245344 0.245369 0.249038 0.252152 0.250589 0.248129 0.24905 0.2562 0.263885 0.267936 0.268442 0.268362 0.324292 0.534854 0.798283 1.07008 1.32927 1.57001 1.77692 1.94435 2.10939 2.2874 2.4509 2.615 2.76701 2.92852 3.11367 3.29615 3.53505 3.51035 3.21672 2.61925 2.01965 1.75756 1.62746 1.54659 1.45167 1.34973 1.24901 1.16122 1.09807 1.05933 1.03563 1.02077 1.01223 1.00716 1.00411 1.00237 1.00135 1.00076 1.00042 1.00024 1.00013 1.00007 1.00004 1.00002 1.00001 1.00001 0.250814 0.251497 0.251316 0.250517 0.251665 0.251555 0.248774 0.24685 0.248315 0.249309 0.248966 0.247606 0.245118 0.244874 0.248852 0.251506 0.250278 0.247497 0.248182 0.255561 0.263141 0.267257 0.267443 0.265808 0.358058 0.586528 0.845776 1.10127 1.33728 1.54635 1.71743 1.87628 2.03197 2.18031 2.32435 2.46526 2.61712 2.80693 3.00256 3.20679 3.33573 3.22185 2.86415 2.34671 1.99537 1.85926 1.7954 1.7546 1.69623 1.62236 1.53418 1.43473 1.32944 1.2274 1.14292 1.08574 1.05152 1.03024 1.01747 1.01018 1.00584 1.00331 1.00188 1.00105 1.00058 1.00033 1.00018 1.0001 1.00006 1.00003 0.250516 0.251222 0.251088 0.25021 0.251241 0.251326 0.248741 0.246595 0.247772 0.249088 0.248629 0.247249 0.24503 0.24457 0.248045 0.251381 0.250025 0.24727 0.247622 0.253333 0.261044 0.264761 0.263835 0.26378 0.352123 0.579503 0.838692 1.09293 1.31661 1.49965 1.65839 1.80485 1.92843 2.05449 2.18526 2.33232 2.5144 2.7058 2.88642 3.05468 3.06475 2.87732 2.49964 2.09397 1.91288 1.8614 1.84159 1.83606 1.82367 1.79753 1.75267 1.6906 1.61151 1.5181 1.41369 1.30468 1.20294 1.12367 1.07355 1.04342 1.02495 1.01428 1.00822 1.00461 1.0026 1.00148 1.00083 1.00047 1.00027 1.00015 0.250216 0.250856 0.250721 0.24994 0.25094 0.250981 0.248436 0.246297 0.247432 0.248571 0.248338 0.247044 0.244574 0.243925 0.247497 0.250325 0.249217 0.246368 0.24606 0.252027 0.259596 0.263414 0.26354 0.257356 0.365685 0.60781 0.869219 1.10122 1.29675 1.46698 1.60488 1.71266 1.82261 1.93993 2.07635 2.25317 2.43434 2.59149 2.73318 2.84225 2.77392 2.53594 2.16664 1.89819 1.81925 1.82 1.83175 1.84043 1.84438 1.84504 1.84035 1.82588 1.79595 1.74681 1.68038 1.59616 1.49713 1.3876 1.27587 1.1762 1.10485 1.06149 1.03577 1.02008 1.01144 1.00644 1.0037 1.00219 1.00127 1.00074 0.249811 0.250517 0.250441 0.249472 0.250518 0.250652 0.248141 0.246056 0.246809 0.2479 0.248345 0.246618 0.24398 0.243338 0.246688 0.250007 0.248733 0.245306 0.245296 0.250662 0.257775 0.260028 0.259935 0.253749 0.384996 0.633936 0.881306 1.10109 1.28794 1.42888 1.53463 1.62746 1.7251 1.8489 2.00727 2.16205 2.28333 2.39325 2.52671 2.58124 2.44685 2.16539 1.8534 1.71494 1.70338 1.73021 1.76648 1.79804 1.82237 1.83889 1.84536 1.84737 1.8462 1.83959 1.82407 1.79167 1.73797 1.66653 1.57703 1.4716 1.35692 1.24235 1.14822 1.0859 1.04936 1.02834 1.01686 1.00991 1.00583 1.00372 0.249444 0.250067 0.250046 0.249066 0.250218 0.250171 0.247733 0.245708 0.246388 0.247566 0.247148 0.246475 0.244143 0.24276 0.245102 0.248847 0.247635 0.245152 0.244237 0.248021 0.255632 0.257571 0.256862 0.2505 0.376429 0.625781 0.878022 1.09713 1.26216 1.38354 1.4681 1.54803 1.65954 1.79692 1.91282 2.00129 2.08638 2.18856 2.28266 2.24142 2.03894 1.77196 1.57126 1.52086 1.55138 1.60022 1.64704 1.69098 1.731 1.76781 1.79787 1.82239 1.83864 1.8445 1.84652 1.84314 1.83607 1.81755 1.78222 1.72566 1.65 1.55421 1.44206 1.3182 1.20391 1.12209 1.07234 1.0436 1.02923 1.02267 0.24904 0.249698 0.249742 0.248587 0.249742 0.249907 0.247386 0.245591 0.245927 0.24663 0.247218 0.246254 0.243478 0.241885 0.244964 0.247855 0.247317 0.24427 0.242959 0.247342 0.253142 0.254708 0.25524 0.245171 0.379574 0.64528 0.89604 1.09347 1.2376 1.33087 1.40441 1.49846 1.61044 1.69699 1.76366 1.81375 1.86089 1.88665 1.8875 1.68808 1.465 1.2735 1.19496 1.21132 1.26713 1.33318 1.39965 1.46427 1.5293 1.58891 1.63851 1.68655 1.73231 1.7723 1.80557 1.82827 1.84027 1.84284 1.8354 1.8248 1.8048 1.76941 1.71419 1.62495 1.51901 1.39875 1.29291 1.22566 1.19377 1.17438 0.248674 0.249308 0.249385 0.248253 0.249436 0.249438 0.246995 0.245395 0.245178 0.245921 0.246712 0.245796 0.243525 0.241895 0.243198 0.247342 0.246953 0.243552 0.241888 0.244805 0.252562 0.252533 0.253564 0.244118 0.378467 0.638754 0.889978 1.08138 1.20355 1.28401 1.36481 1.45773 1.53037 1.57786 1.60382 1.59755 1.57293 1.47809 1.3068 1.01871 0.798571 0.684096 0.668495 0.70744 0.765189 0.840908 0.919823 1.00011 1.08951 1.18289 1.266 1.34794 1.42872 1.5018 1.56795 1.6332 1.70107 1.75557 1.79431 1.81823 1.82608 1.82389 1.81218 1.80171 1.7918 1.78934 1.82242 1.87801 1.92621 1.91937 0.248413 0.24904 0.249238 0.24798 0.249081 0.249208 0.247198 0.245193 0.244657 0.246017 0.246474 0.245645 0.243787 0.240977 0.241992 0.24646 0.246466 0.24319 0.241465 0.243197 0.249899 0.250521 0.253196 0.244098 0.352334 0.609297 0.862462 1.04673 1.16599 1.25387 1.32845 1.39246 1.43861 1.44988 1.43141 1.36051 1.22809 1.03889 0.733802 0.422993 0.280663 0.233658 0.222351 0.231843 0.246407 0.279002 0.325656 0.380415 0.450277 0.54049 0.640375 0.7505 0.859398 0.960147 1.05026 1.13788 1.24055 1.34842 1.45582 1.55082 1.62682 1.69144 1.75853 1.8265 1.90288 2.02823 2.19178 2.27599 2.28615 2.32131 0.248184 0.248816 0.249123 0.24775 0.24859 0.249306 0.246938 0.244815 0.244762 0.244813 0.245399 0.245904 0.244152 0.241153 0.241884 0.245545 0.245804 0.243439 0.240846 0.242524 0.248347 0.249192 0.251494 0.24327 0.317234 0.577467 0.831438 1.02126 1.1457 1.22572 1.28444 1.32777 1.34814 1.32661 1.28803 1.13769 0.901702 0.613041 0.293062 0.192702 0.204308 0.219724 0.224316 0.220708 0.207511 0.186421 0.168499 0.160532 0.159004 0.160581 0.16313 0.163331 0.223502 0.291485 0.361191 0.431709 0.51802 0.619592 0.750345 0.907062 1.03923 1.16844 1.29398 1.44873 1.63495 1.873 2.0218 1.96215 1.85014 1.963 0.248228 0.248889 0.249055 0.247751 0.248669 0.248842 0.246931 0.244685 0.244469 0.24422 0.245631 0.246046 0.24481 0.241794 0.241781 0.245588 0.246209 0.24437 0.241641 0.242686 0.247816 0.248611 0.25102 0.243712 0.274212 0.527479 0.813267 1.01277 1.13478 1.20191 1.23727 1.25711 1.25366 1.21625 1.12499 0.896078 0.610395 0.293175 0.188016 0.230501 0.268075 0.292219 0.2954 0.286486 0.285054 0.279498 0.23703 0.193885 0.169473 0.162893 0.164633 0.167672 0.170366 0.171225 0.171438 0.171984 0.172521 0.170286 0.171083 0.171531 0.270741 0.363123 0.462158 0.580133 0.677535 0.743932 0.734646 0.595466 0.495872 0.662095 0.248563 0.249195 0.249437 0.248175 0.248852 0.249075 0.247668 0.245504 0.244675 0.244325 0.246169 0.246779 0.246055 0.242752 0.242298 0.24549 0.247241 0.246143 0.243475 0.243903 0.248008 0.248448 0.251269 0.249672 0.266529 0.455921 0.707191 0.947014 1.10428 1.17987 1.20365 1.20799 1.18606 1.1151 0.954571 0.680609 0.371953 0.187138 0.207834 0.260735 0.332797 0.367622 0.357505 0.314876 0.288341 0.289012 0.290528 0.245698 0.195324 0.168708 0.162098 0.165313 0.168196 0.169613 0.17082 0.171936 0.172758 0.173033 0.175396 0.178896 0.183804 0.190864 0.215414 0.23713 0.259446 0.278603 0.301247 0.304284 0.31158 0.311541 0.249213 0.249734 0.25012 0.248783 0.24928 0.249589 0.2485 0.246177 0.245457 0.245309 0.246128 0.248471 0.248024 0.244568 0.243963 0.246539 0.249042 0.248556 0.246362 0.246466 0.249112 0.249444 0.252894 0.252675 0.242673 0.374644 0.64346 0.89361 1.06678 1.13647 1.15728 1.1578 1.1285 1.02943 0.802398 0.492872 0.239695 0.188391 0.221216 0.29371 0.346317 0.370455 0.35685 0.311529 0.289304 0.290084 0.290356 0.270317 0.229019 0.191246 0.169472 0.164019 0.166516 0.168692 0.169842 0.170652 0.171407 0.172626 0.175014 0.177538 0.183982 0.191034 0.219961 0.241271 0.269338 0.284394 0.300702 0.306334 0.31253 0.312461 0.25023 0.250712 0.25111 0.24973 0.250548 0.250295 0.249586 0.24735 0.246767 0.247466 0.24738 0.250004 0.250129 0.248409 0.246919 0.248629 0.252018 0.252008 0.250262 0.250139 0.252173 0.253489 0.256378 0.263976 0.257345 0.292034 0.538824 0.8874 1.10494 1.16179 1.17846 1.16124 1.10758 0.936832 0.653018 0.36493 0.199598 0.188134 0.204938 0.261219 0.324791 0.382072 0.401007 0.346603 0.300654 0.29415 0.300589 0.300955 0.279467 0.228825 0.188285 0.168282 0.165231 0.167913 0.169233 0.170417 0.171503 0.17263 0.174766 0.177535 0.184077 0.196281 0.22507 0.252378 0.273602 0.286255 0.295046 0.30009 0.306596 0.308322 0.251722 0.252068 0.252648 0.251103 0.252094 0.251538 0.251258 0.250166 0.249012 0.249172 0.250938 0.25232 0.253244 0.252846 0.251058 0.251493 0.255219 0.25637 0.255602 0.255693 0.255765 0.257858 0.259847 0.274212 0.273665 0.262103 0.404616 0.723434 1.05863 1.2194 1.25203 1.20976 1.13889 0.955134 0.658508 0.370876 0.209938 0.190056 0.190116 0.193945 0.319843 0.439532 0.460562 0.371752 0.306997 0.298106 0.301799 0.300872 0.301875 0.269959 0.214335 0.177223 0.16501 0.166516 0.168536 0.169952 0.171338 0.17286 0.174823 0.178116 0.184199 0.204585 0.235061 0.263255 0.282321 0.294237 0.302652 0.307371 0.310764 0.309552 0.253448 0.253597 0.254578 0.25368 0.253337 0.25356 0.254615 0.254205 0.253011 0.251926 0.253411 0.256776 0.257571 0.257159 0.255648 0.255599 0.258537 0.260741 0.26092 0.26126 0.262398 0.263504 0.264295 0.280124 0.282973 0.282321 0.253936 0.509617 0.852267 1.07891 1.22568 1.25052 1.2044 1.00068 0.70588 0.454147 0.27415 0.193481 0.169081 0.185011 0.393963 0.516537 0.514868 0.363526 0.281267 0.292682 0.30289 0.301179 0.301904 0.271549 0.220294 0.183015 0.166846 0.165489 0.167801 0.169157 0.170585 0.172188 0.174556 0.177857 0.185293 0.208834 0.243494 0.270673 0.287381 0.297536 0.303657 0.308466 0.31299 0.313934 0.25577 0.256068 0.257495 0.25709 0.256019 0.256775 0.258445 0.258399 0.257926 0.256331 0.256563 0.259364 0.262672 0.262298 0.261271 0.260648 0.261701 0.265075 0.266577 0.2674 0.269377 0.271539 0.274156 0.279326 0.291841 0.289474 0.284502 0.271948 0.45655 0.89082 1.19976 1.24095 1.24426 1.06926 0.741071 0.464545 0.278107 0.183557 0.179104 0.368954 0.571829 0.615157 0.50394 0.322184 0.269892 0.287501 0.301253 0.300424 0.30117 0.277127 0.223978 0.1851 0.167224 0.164882 0.167189 0.168676 0.170259 0.172007 0.174245 0.177752 0.186771 0.213128 0.246912 0.276227 0.293074 0.300547 0.307269 0.311826 0.314649 0.315916 0.258829 0.25921 0.261122 0.26028 0.260698 0.260617 0.26217 0.262478 0.262991 0.262291 0.2614 0.261417 0.265325 0.268754 0.267863 0.266602 0.266204 0.267394 0.27107 0.274244 0.277467 0.279623 0.283736 0.284299 0.290481 0.29107 0.288962 0.284136 0.295203 0.485189 0.744834 1.18228 1.22663 1.16398 0.950057 0.61277 0.460429 0.456926 0.542174 0.683503 0.699879 0.577013 0.382113 0.291321 0.273883 0.287984 0.302321 0.302791 0.303082 0.290923 0.238034 0.193357 0.170011 0.164675 0.166906 0.168402 0.169922 0.171662 0.173966 0.178181 0.18804 0.221146 0.255777 0.281094 0.29668 0.305769 0.310673 0.314761 0.318591 0.319814 0.262735 0.263097 0.265242 0.264026 0.265451 0.264694 0.266745 0.266947 0.267503 0.267732 0.26732 0.266302 0.267799 0.271689 0.274301 0.27358 0.272446 0.272134 0.273658 0.279227 0.28403 0.288782 0.290094 0.293282 0.290602 0.290349 0.290988 0.292237 0.278471 0.256042 0.365775 0.573626 0.908114 1.0856 1.01673 0.881032 0.8172 0.795147 0.78388 0.723297 0.534073 0.342167 0.277037 0.277778 0.27772 0.288022 0.303085 0.306551 0.305487 0.293663 0.241089 0.195262 0.17043 0.164249 0.166375 0.167912 0.169419 0.171198 0.173535 0.177726 0.188474 0.22303 0.261095 0.287327 0.299872 0.307105 0.312726 0.316558 0.318599 0.319761 0.267211 0.267701 0.269704 0.268623 0.269992 0.269192 0.271639 0.271704 0.271735 0.2723 0.272517 0.272096 0.272506 0.274077 0.277119 0.279618 0.279296 0.278426 0.279317 0.283092 0.287403 0.29546 0.294986 0.2974 0.29361 0.286944 0.287949 0.291099 0.269748 0.219066 0.19054 0.167433 0.325715 0.491426 0.701122 0.715159 0.722552 0.690253 0.588311 0.434087 0.327293 0.288161 0.281555 0.280981 0.280064 0.28813 0.304505 0.309363 0.308437 0.292492 0.239686 0.195759 0.171242 0.16434 0.166179 0.167861 0.169298 0.170978 0.173362 0.177604 0.190608 0.226208 0.260262 0.285641 0.301877 0.310005 0.314093 0.31773 0.320406 0.321585 0.271997 0.272798 0.274453 0.273565 0.27444 0.274224 0.276013 0.276394 0.276246 0.276559 0.277089 0.277304 0.277806 0.278095 0.279696 0.282107 0.284038 0.284618 0.285985 0.289017 0.290987 0.299141 0.298563 0.300633 0.298919 0.28762 0.28753 0.290259 0.266292 0.189875 0.139766 0.127675 0.126471 0.18426 0.30446 0.378065 0.402475 0.387699 0.337516 0.301549 0.28904 0.287813 0.28491 0.282502 0.282524 0.294999 0.306782 0.309239 0.308318 0.293846 0.241688 0.196706 0.171298 0.164074 0.165704 0.167314 0.168754 0.170527 0.173024 0.17776 0.191499 0.231407 0.268261 0.291191 0.303567 0.311471 0.316207 0.319317 0.321701 0.323536 0.276885 0.277848 0.279383 0.27826 0.278785 0.279051 0.28008 0.280494 0.280922 0.280822 0.280888 0.28154 0.282161 0.282592 0.283192 0.28489 0.286201 0.288485 0.291489 0.294535 0.296859 0.302733 0.301534 0.303932 0.302261 0.291602 0.29095 0.294244 0.277327 0.216314 0.185206 0.181786 0.194196 0.225805 0.257945 0.279505 0.289542 0.291852 0.294609 0.295456 0.293847 0.291531 0.288446 0.286274 0.286233 0.29563 0.308796 0.311375 0.311344 0.287828 0.234818 0.19348 0.17058 0.163857 0.165267 0.16701 0.168639 0.170519 0.173057 0.177664 0.19214 0.229815 0.266399 0.292834 0.306827 0.31337 0.317198 0.320918 0.323678 0.325817 0.28157 0.282658 0.283931 0.282723 0.283222 0.283023 0.283998 0.284442 0.284749 0.284803 0.284648 0.284694 0.285571 0.286484 0.286861 0.288139 0.289319 0.290919 0.293921 0.297595 0.301359 0.306307 0.30593 0.308375 0.305493 0.298383 0.297383 0.298179 0.288625 0.268958 0.264715 0.264828 0.269735 0.27697 0.2851 0.288447 0.291925 0.295986 0.301071 0.300937 0.296868 0.293207 0.290019 0.287423 0.287411 0.298549 0.309812 0.311146 0.311148 0.284764 0.232867 0.192856 0.170376 0.163593 0.165028 0.166824 0.168321 0.170102 0.172591 0.17754 0.193768 0.234275 0.269178 0.291035 0.304317 0.312944 0.317989 0.322185 0.325075 0.327378 0.285803 0.286902 0.287926 0.286934 0.287185 0.286423 0.287221 0.287858 0.287844 0.287986 0.288029 0.287948 0.287904 0.289005 0.290362 0.291031 0.292134 0.29336 0.295893 0.298848 0.303178 0.307899 0.311397 0.31236 0.310993 0.307138 0.303685 0.30008 0.294798 0.290876 0.291129 0.290009 0.290918 0.291365 0.293052 0.295303 0.299248 0.303077 0.305216 0.303081 0.299048 0.294563 0.29114 0.288908 0.288867 0.299516 0.310351 0.311176 0.311177 0.278937 0.228403 0.190535 0.169469 0.163428 0.164844 0.166457 0.16792 0.16972 0.172323 0.177371 0.193758 0.234762 0.272444 0.295149 0.30722 0.314336 0.318907 0.322805 0.325716 0.327673 0.289472 0.290515 0.2913 0.290578 0.290333 0.289374 0.289764 0.290395 0.290645 0.290541 0.290477 0.290398 0.29027 0.290924 0.29241 0.29391 0.29477 0.295961 0.297747 0.300217 0.304088 0.309176 0.313696 0.315722 0.3164 0.314455 0.310849 0.306055 0.302458 0.299956 0.300252 0.298897 0.299557 0.300097 0.301791 0.304567 0.307106 0.309025 0.308959 0.304515 0.299612 0.294773 0.291263 0.289717 0.290466 0.301176 0.311137 0.311928 0.311927 0.273575 0.225469 0.189057 0.168882 0.163082 0.164587 0.166243 0.167664 0.169382 0.171862 0.177069 0.194505 0.235179 0.270617 0.291892 0.304146 0.312441 0.317583 0.32207 0.325056 0.327224 0.292261 0.293362 0.293758 0.293256 0.292511 0.29156 0.291687 0.292161 0.292429 0.292314 0.292448 0.292262 0.29241 0.292869 0.293834 0.295716 0.296963 0.298333 0.299151 0.301165 0.303865 0.308212 0.313478 0.316924 0.319792 0.320432 0.31921 0.315895 0.313369 0.310323 0.310285 0.309296 0.310377 0.312218 0.313129 0.313898 0.314289 0.31394 0.310265 0.303489 0.29744 0.292728 0.289712 0.289111 0.292111 0.303436 0.31189 0.312319 0.311378 0.26651 0.221587 0.187089 0.168147 0.162764 0.164375 0.166044 0.167576 0.169378 0.171788 0.176976 0.195183 0.237143 0.273882 0.295484 0.306644 0.313895 0.318363 0.322395 0.32465 0.32694 0.294414 0.295574 0.295744 0.295203 0.29425 0.293386 0.293371 0.293624 0.293637 0.29373 0.293946 0.29375 0.293752 0.294283 0.295547 0.296999 0.298591 0.29922 0.300395 0.302468 0.304347 0.307996 0.312077 0.316028 0.320325 0.323572 0.325552 0.324731 0.323662 0.321958 0.322559 0.322301 0.323518 0.32468 0.324366 0.322438 0.319326 0.314705 0.308583 0.301334 0.294958 0.29061 0.28827 0.288085 0.293427 0.305285 0.312058 0.312034 0.308509 0.262649 0.218316 0.184934 0.167166 0.162681 0.164381 0.16606 0.167532 0.169214 0.171588 0.176677 0.195156 0.236455 0.272243 0.293443 0.305176 0.31316 0.318018 0.321953 0.324449 0.326681 0.293013 0.294248 0.294501 0.293873 0.292902 0.292329 0.292038 0.29211 0.292505 0.292814 0.292799 0.292525 0.292364 0.29286 0.294187 0.295514 0.296994 0.297536 0.298473 0.300323 0.301893 0.304589 0.308235 0.311944 0.315641 0.319389 0.321945 0.32319 0.324263 0.325117 0.327618 0.327624 0.328519 0.328356 0.325957 0.321898 0.316575 0.310317 0.303253 0.296678 0.291831 0.289264 0.287866 0.287978 0.29479 0.305578 0.311332 0.311289 0.305616 0.25994 0.216613 0.184374 0.167245 0.162631 0.164478 0.166085 0.167538 0.169288 0.17167 0.176781 0.195556 0.237165 0.273593 0.294831 0.306023 0.313645 0.318261 0.322162 0.324608 0.32659
				</DataArray>
				<DataArray Name="Energy" type="Float32" format="ascii">