<?xml version="1.0"?>
<VTKFile type="PolyData">
	<PolyData>
		<Piece NumberOfPoints="2201" NumberOfPolys="2100">
			<Points>
				<DataArray type="Float32" NumberOfComponents="3" format="ascii">
 0 0 0 0.001 0 0 0.002 0 0 0.003 0 0 0.004 0 0 0.005 0 0 0.006 0 0 0.007 0 0 0.008 0 0 0.009 0 0 0.01 0 0 0.011 0 0 0.012 0 0 0.013 0 0 0.014 0 0 0.015 0 0 0.016 0 0 0.017 0 0 0.018 0 0 0.019 0 0 0.02 0 0 0.021 0 0 0.022 0 0 0.023 0 0 0.024 0 0 0.025 0 0 0.026 0 0 0.027 0 0 0.028 0 0 0.029 0 0 0.03 0 0 0.031 0 0 0.032 0 0 0.033 0 0 0.034 0 0 0.035 0 0 0.036 0 0 0.037 0 0 0.038 0 0 0.039 0 0 0.04 0 0 0.041 0 0 0.042 0 0 0.043 0 0 0.044 0 0 0.045 0 0 0.046 0 0 0.047 0 0 0.048 0 0 0.049 0 0 0.05 0 0 0.051 0 0 0.052 0 0 0.053 0 0 0.054 0 0 0.055 0 0 0.056 0 0 0.057 0 0 0.058 0 0 0.059 0 0 0.06 0 0 0.061 0 0 0.062 0 0 0.063 0 0 0.064 0 0 0.065 0 0 0.066 0 0 0.067 0 0 0.068 0 0 0.069 0 0 0.07 0 0 0 0.001 0 0.001 0.001 0 0.002 0.001 0 0.003 0.001 0 0.004 0.001 0 0.005 0.001 0 0.006 0.001 0 0.007 0.001 0 0.008 0.001 0 0.009 0.001 0 0.01 0.001 0 0.011 0.001 0 0.012 0.001 0 0.013 0.001 0 0.014 0.001 0 0.015 0.001 0 0.016 0.001 0 0.017 0.001 0 0.018 0.001 0 0.019 0.001 0 0.02 0.001 0 0.021 0.001 0 0.022 0.001 0 0.023 0.001 0 0.024 0.001 0 0.025 0.001 0 0.026 0.001 0 0.027 0.001 0 0.028 0.001 0 0.029 0.001 0 0.03 0.001 0 0.031 0.001 0 0.032 0.001 0 0.033 0.001 0 0.034 0.001 0 0.035 0.001 0 0.036 0.001 0 0.037 0.001 0 0.038 0.001 0 0.039 0.001 0 0.04 0.001 0 0.041 0.001 0 0.042 0.001 0 0.043 0.001 0 0.044 0.001 0 0.045 0.001 0 0.046 0.001 0 0.047 0.001 0 0.048 0.001 0 0.049 0.001 0 0.05 0.001 0 0.051 0.001 0 0.052 0.001 0 0.053 0.001 0 0.054 0.001 0 0.055 0.001 0 0.056 0.001 0 0.057 0.001 0 0.058 0.001 0 0.059 0.001 0 0.06 0.001 0 0.061 0.001 0 0.062 0.001 0 0.063 0.001 0 0.064 0.001 0 0.065 0.001 0 0.066 0.001 0 0.067 0.001 0 0.068 0.001 0 0.069 0.001 0 0.07 0.001 0 0 0.002 0 0.001 0.002 0 0.002 0.002 0 0.003 0.002 0 0.004 0.002 0 0.005 0.002 0 0.006 0.002 0 0.007 0.002 0 0.008 0.002 0 0.009 0.002 0 0.01 0.002 0 0.011 0.002 0 0.012 0.002 0 0.013 0.002 0 0.014 0.002 0 0.015 0.002 0 0.016 0.002 0 0.017 0.002 0 0.018 0.002 0 0.019 0.002 0 0.02 0.002 0 0.021 0.002 0 0.022 0.002 0 0.023 0.002 0 0.024 0.002 0 0.025 0.002 0 0.026 0.002 0 0.027 0.002 0 0.028 0.002 0 0.029 0.002 0 0.03 0.002 0 0.031 0.002 0 0.032 0.002 0 0.033 0.002 0 0.034 0.002 0 0.035 0.002 0 0.036 0.002 0 0.037 0.002 0 0.038 0.002 0 0.039 0.002 0 0.04 0.002 0 0.041 0.002 0 0.042 0.002 0 0.043 0.002 0 0.044 0.002 0 0.045 0.002 0 0.046 0.002 0 0.047 0.002 0 0.048 0.002 0 0.049 0.002 0 0.05 0.002 0 0.051 0.002 0 0.052 0.002 0 0.053 0.002 0 0.054 0.002 0 0.055 0.002 0 0.056 0.002 0 0.057 0.002 0 0.058 0.002 0 0.059 0.002 0 0.06 0.002 0 0.061 0.002 0 0.062 0.002 0 0.063 0.002 0 0.064 0.002 0 0.065 0.002 0 0.066 0.002 0 0.067 0.002 0 0.068 0.002 0 0.069 0.002 0 0.07 0.002 0 0 0.003 0 0.001 0.003 0 0.002 0.003 0 0.003 0.003 0 0.004 0.003 0 0.005 0.003 0 0.006 0.003 0 0.007 0.003 0 0.008 0.003 0 0.009 0.003 0 0.01 0.003 0 0.011 0.003 0 0.012 0.003 0 0.013 0.003 0 0.014 0.003 0 0.015 0.003 0 0.016 0.003 0 0.017 0.003 0 0.018 0.003 0 0.019 0.003 0 0.02 0.003 0 0.021 0.003 0 0.022 0.003 0 0.023 0.003 0 0.024 0.003 0 0.025 0.003 0 0.026 0.003 0 0.027 0.003 0 0.028 0.003 0 0.029 0.003 0 0.03 0.003 0 0.031 0.003 0 0.032 0.003 0 0.033 0.003 0 0.034 0.003 0 0.035 0.003 0 0.036 0.003 0 0.037 0.003 0 0.038 0.003 0 0.039 0.003 0 0.04 0.003 0 0.041 0.003 0 0.042 0.003 0 0.043 0.003 0 0.044 0.003 0 0.045 0.003 0 0.046 0.003 0 0.047 0.003 0 0.048 0.003 0 0.049 0.003 0 0.05 0.003 0 0.051 0.003 0 0.052 0.003 0 0.053 0.003 0 0.054 0.003 0 0.055 0.003 0 0.056 0.003 0 0.057 0.003 0 0.058 0.003 0 0.059 0.003 0 0.06 0.003 0 0.061 0.003 0 0.062 0.003 0 0.063 0.003 0 0.064 0.003 0 0.065 0.003 0 0.066 0.003 0 0.067 0.003 0 0.068 0.003 0 0.069 0.003 0 0.07 0.003 0 0 0.004 0 0.001 0.004 0 0.002 0.004 0 0.003 0.004 0 0.004 0.004 0 0.005 0.004 0 0.006 0.004 0 0.007 0.004 0 0.008 0.004 0 0.009 0.004 0 0.01 0.004 0 0.011 0.004 0 0.012 0.004 0 0.013 0.004 0 0.014 0.004 0 0.015 0.004 0 0.016 0.004 0 0.017 0.004 0 0.018 0.004 0 0.019 0.004 0 0.02 0.004 0 0.021 0.004 0 0.022 0.004 0 0.023 0.004 0 0.024 0.004 0 0.025 0.004 0 0.026 0.004 0 0.027 0.004 0 0.028 0.004 0 0.029 0.004 0 0.03 0.004 0 0.031 0.004 0 0.032 0.004 0 0.033 0.004 0 0.034 0.004 0 0.035 0.004 0 0.036 0.004 0 0.037 0.004 0 0.038 0.004 0 0.039 0.004 0 0.04 0.004 0 0.041 0.004 0 0.042 0.004 0 0.043 0.004 0 0.044 0.004 0 0.045 0.004 0 0.046 0.004 0 0.047 0.004 0 0.048 0.004 0 0.049 0.004 0 0.05 0.004 0 0.051 0.004 0 0.052 0.004 0 0.053 0.004 0 0.054 0.004 0 0.055 0.004 0 0.056 0.004 0 0.057 0.004 0 0.058 0.004 0 0.059 0.004 0 0.06 0.004 0 0.061 0.004 0 0.062 0.004 0 0.063 0.004 0 0.064 0.004 0 0.065 0.004 0 0.066 0.004 0 0.067 0.004 0 0.068 0.004 0 0.069 0.004 0 0.07 0.004 0 0 0.005 0 0.001 0.005 0 0.002 0.005 0 0.003 0.005 0 0.004 0.005 0 0.005 0.005 0 0.006 0.005 0 0.007 0.005 0 0.008 0.005 0 0.009 0.005 0 0.01 0.005 0 0.011 0.005 0 0.012 0.005 0 0.013 0.005 0 0.014 0.005 0 0.015 0.005 0 0.016 0.005 0 0.017 0.005 0 0.018 0.005 0 0.019 0.005 0 0.02 0.005 0 0.021 0.005 0 0.022 0.005 0 0.023 0.005 0 0.024 0.005 0 0.025 0.005 0 0.026 0.005 0 0.027 0.005 0 0.028 0.005 0 0.029 0.005 0 0.03 0.005 0 0.031 0.005 0 0.032 0.005 0 0.033 0.005 0 0.034 0.005 0 0.035 0.005 0 0.036 0.005 0 0.037 0.005 0 0.038 0.005 0 0.039 0.005 0 0.04 0.005 0 0.041 0.005 0 0.042 0.005 0 0.043 0.005 0 0.044 0.005 0 0.045 0.005 0 0.046 0.005 0 0.047 0.005 0 0.048 0.005 0 0.049 0.005 0 0.05 0.005 0 0.051 0.005 0 0.052 0.005 0 0.053 0.005 0 0.054 0.005 0 0.055 0.005 0 0.056 0.005 0 0.057 0.005 0 0.058 0.005 0 0.059 0.005 0 0.06 0.005 0 0.061 0.005 0 0.062 0.005 0 0.063 0.005 0 0.064 0.005 0 0.065 0.005 0 0.066 0.005 0 0.067 0.005 0 0.068 0.005 0 0.069 0.005 0 0.07 0.005 0 0 0.006 0 0.001 0.006 0 0.002 0.006 0 0.003 0.006 0 0.004 0.006 0 0.005 0.006 0 0.006 0.006 0 0.007 0.006 0 0.008 0.006 0 0.009 0.006 0 0.01 0.006 0 0.011 0.006 0 0.012 0.006 0 0.013 0.006 0 0.014 0.006 0 0.015 0.006 0 0.016 0.006 0 0.017 0.006 0 0.018 0.006 0 0.019 0.006 0 0.02 0.006 0 0.021 0.006 0 0.022 0.006 0 0.023 0.006 0 0.024 0.006 0 0.025 0.006 0 0.026 0.006 0 0.027 0.006 0 0.028 0.006 0 0.029 0.006 0 0.03 0.006 0 0.031 0.006 0 0.032 0.006 0 0.033 0.006 0 0.034 0.006 0 0.035 0.006 0 0.036 0.006 0 0.037 0.006 0 0.038 0.006 0 0.039 0.006 0 0.04 0.006 0 0.041 0.006 0 0.042 0.006 0 0.043 0.006 0 0.044 0.006 0 0.045 0.006 0 0.046 0.006 0 0.047 0.006 0 0.048 0.006 0 0.049 0.006 0 0.05 0.006 0 0.051 0.006 0 0.052 0.006 0 0.053 0.006 0 0.054 0.006 0 0.055 0.006 0 0.056 0.006 0 0.057 0.006 0 0.058 0.006 0 0.059 0.006 0 0.06 0.006 0 0.061 0.006 0 0.062 0.006 0 0.063 0.006 0 0.064 0.006 0 0.065 0.006 0 0.066 0.006 0 0.067 0.006 0 0.068 0.006 0 0.069 0.006 0 0.07 0.006 0 0 0.007 0 0.001 0.007 0 0.002 0.007 0 0.003 0.007 0 0.004 0.007 0 0.005 0.007 0 0.006 0.007 0 0.007 0.007 0 0.008 0.007 0 0.009 0.007 0 0.01 0.007 0 0.011 0.007 0 0.012 0.007 0 0.013 0.007 0 0.014 0.007 0 0.015 0.007 0 0.016 0.007 0 0.017 0.007 0 0.018 0.007 0 0.019 0.007 0 0.02 0.007 0 0.021 0.007 0 0.022 0.007 0 0.023 0.007 0 0.024 0.007 0 0.025 0.007 0 0.026 0.007 0 0.027 0.007 0 0.028 0.007 0 0.029 0.007 0 0.03 0.007 0 0.031 0.007 0 0.032 0.007 0 0.033 0.007 0 0.034 0.007 0 0.035 0.007 0 0.036 0.007 0 0.037 0.007 0 0.038 0.007 0 0.039 0.007 0 0.04 0.007 0 0.041 0.007 0 0.042 0.007 0 0.043 0.007 0 0.044 0.007 0 0.045 0.007 0 0.046 0.007 0 0.047 0.007 0 0.048 0.007 0 0.049 0.007 0 0.05 0.007 0 0.051 0.007 0 0.052 0.007 0 0.053 0.007 0 0.054 0.007 0 0.055 0.007 0 0.056 0.007 0 0.057 0.007 0 0.058 0.007 0 0.059 0.007 0 0.06 0.007 0 0.061 0.007 0 0.062 0.007 0 0.063 0.007 0 0.064 0.007 0 0.065 0.007 0 0.066 0.007 0 0.067 0.007 0 0.068 0.007 0 0.069 0.007 0 0.07 0.007 0 0 0.008 0 0.001 0.008 0 0.002 0.008 0 0.003 0.008 0 0.004 0.008 0 0.005 0.008 0 0.006 0.008 0 0.007 0.008 0 0.008 0.008 0 0.009 0.008 0 0.01 0.008 0 0.011 0.008 0 0.012 0.008 0 0.013 0.008 0 0.014 0.008 0 0.015 0.008 0 0.016 0.008 0 0.017 0.008 0 0.018 0.008 0 0.019 0.008 0 0.02 0.008 0 0.021 0.008 0 0.022 0.008 0 0.023 0.008 0 0.024 0.008 0 0.025 0.008 0 0.026 0.008 0 0.027 0.008 0 0.028 0.008 0 0.029 0.008 0 0.03 0.008 0 0.031 0.008 0 0.032 0.008 0 0.033 0.008 0 0.034 0.008 0 0.035 0.008 0 0.036 0.008 0 0.037 0.008 0 0.038 0.008 0 0.039 0.008 0 0.04 0.008 0 0.041 0.008 0 0.042 0.008 0 0.043 0.008 0 0.044 0.008 0 0.045 0.008 0 0.046 0.008 0 0.047 0.008 0 0.048 0.008 0 0.049 0.008 0 0.05 0.008 0 0.051 0.008 0 0.052 0.008 0 0.053 0.008 0 0.054 0.008 0 0.055 0.008 0 0.056 0.008 0 0.057 0.008 0 0.058 0.008 0 0.059 0.008 0 0.06 0.008 0 0.061 0.008 0 0.062 0.008 0 0.063 0.008 0 0.064 0.008 0 0.065 0.008 0 0.066 0.008 0 0.067 0.008 0 0.068 0.008 0 0.069 0.008 0 0.07 0.008 0 0 0.009 0 0.001 0.009 0 0.002 0.009 0 0.003 0.009 0 0.004 0.009 0 0.005 0.009 0 0.006 0.009 0 0.007 0.009 0 0.008 0.009 0 0.009 0.009 0 0.01 0.009 0 0.011 0.009 0 0.012 0.009 0 0.013 0.009 0 0.014 0.009 0 0.015 0.009 0 0.016 0.009 0 0.017 0.009 0 0.018 0.009 0 0.019 0.009 0 0.02 0.009 0 0.021 0.009 0 0.022 0.009 0 0.023 0.009 0 0.024 0.009 0 0.025 0.009 0 0.026 0.009 0 0.027 0.009 0 0.028 0.009 0 0.029 0.009 0 0.03 0.009 0 0.031 0.009 0 0.032 0.009 0 0.033 0.009 0 0.034 0.009 0 0.035 0.009 0 0.036 0.009 0 0.037 0.009 0 0.038 0.009 0 0.039 0.009 0 0.04 0.009 0 0.041 0.009 0 0.042 0.009 0 0.043 0.009 0 0.044 0.009 0 0.045 0.009 0 0.046 0.009 0 0.047 0.009 0 0.048 0.009 0 0.049 0.009 0 0.05 0.009 0 0.051 0.009 0 0.052 0.009 0 0.053 0.009 0 0.054 0.009 0 0.055 0.009 0 0.056 0.009 0 0.057 0.009 0 0.058 0.009 0 0.059 0.009 0 0.06 0.009 0 0.061 0.009 0 0.062 0.009 0 0.063 0.009 0 0.064 0.009 0 0.065 0.009 0 0.066 0.009 0 0.067 0.009 0 0.068 0.009 0 0.069 0.009 0 0.07 0.009 0 0 0.01 0 0.001 0.01 0 0.002 0.01 0 0.003 0.01 0 0.004 0.01 0 0.005 0.01 0 0.006 0.01 0 0.007 0.01 0 0.008 0.01 0 0.009 0.01 0 0.01 0.01 0 0.011 0.01 0 0.012 0.01 0 0.013 0.01 0 0.014 0.01 0 0.015 0.01 0 0.016 0.01 0 0.017 0.01 0 0.018 0.01 0 0.019 0.01 0 0.02
[...]
			<CellData Scalars="Density">
				<DataArray Name="Density" type="Float32" format="ascii">
 0.299959 0.301182 0.301889 0.302281 0.305526 0.307444 0.306201 0.307304 0.313296 0.318068 0.320811 0.322717 0.32446 0.331075 0.341914 0.347225 0.346926 0.350555 0.364422 0.377964 0.388766 0.392945 0.392886 0.580889 1.02862 1.53006 1.96604 2.2901 2.49963 2.64962 2.78929 2.90156 2.93637 2.7777 2.22122 1.35878 1.05407 1.00879 1.00203 1.00071 1.00034 1.00019 1.00011 1.00006 1.00003 1.00002 1.00001 1 1 1 1 1 1 1 1 1 1 1 1 1 1 1 1 1 1 1 1 1 1 1 0.298645 0.299818 0.300495 0.300895 0.30405 0.305828 0.304523 0.305456 0.311213 0.315794 0.318604 0.320156 0.321728 0.328854 0.338637 0.344004 0.343737 0.347025 0.361192 0.376504 0.384564 0.385599 0.392001 0.629658 1.07848 1.57245 2.00357 2.32787 2.54938 2.70455 2.84494 2.99031 3.05144 2.89527 2.35181 1.46152 1.07997 1.01686 1.00527 1.00221 1.00117 1.00067 1.00037 1.00021 1.00011 1.00006 1.00003 1.00002 1.00001 1 1 1 1 1 1 1 1 1 1 1 1 1 1 1 1 1 1 1 1 1 0.298268 0.299439 0.300063 0.300459 0.303456 0.305482 0.304255 0.305351 0.311169 0.315933 0.318713 0.320554 0.32172 0.328685 0.33887 0.343367 0.342863 0.347037 0.359931 0.374773 0.384654 0.387183 0.390563 0.629854 1.08813 1.58266 2.01646 2.3497 2.58366 2.74988 2.9013 3.06449 3.16079 3.0296 2.55475 1.68627 1.1535 1.04196 1.01638 1.00843 1.00491 1.00279 1.00159 1.00091 1.00051 1.00028 1.00016 1.00008 1.00004 1.00002 1.00001 1.00001 1 1 1 1 1 1 1 1 1 1 1 1 1 1 1 1 1 1 0.297801 0.29882 0.299523 0.299666 0.303064 0.304568 0.303612 0.30437 0.310416 0.314677 0.317962 0.318864 0.320924 0.32692 0.336902 0.34165 0.341092 0.34433 0.357995 0.373313 0.381582 0.382136 0.396734 0.671331 1.13898 1.62144 2.04228 2.36683 2.60877 2.78176 2.94755 3.11015 3.19087 3.12549 2.80678 2.01284 1.31293 1.12166 1.05906 1.03585 1.02066 1.01195 1.00695 1.00398 1.00227 1.00128 1.00071 1.00039 1.00021 1.00011 1.00006 1.00003 1.00001 1.00001 1 1 1 1 1 1 1 1 1 1 1 1 1 1 1 1 0.297078 0.298017 0.298817 0.299001 0.301914 0.304179 0.302833 0.303632 0.30914 0.31388 0.316619 0.318242 0.319097 0.32558 0.335471 0.339717 0.339216 0.34223 0.355628 0.369705 0.379252 0.379436 0.401524 0.708568 1.18038 1.65534 2.04873 2.34551 2.56534 2.74712 2.92718 3.06576 3.21543 3.24886 3.0279 2.32337 1.62554 1.35646 1.22729 1.14636 1.08658 1.05166 1.03017 1.01734 1.01004 1.00571 1.00319 1.00177 1.00097 1.00052 1.00028 1.00014 1.00007 1.00004 1.00002 1.00001 1 1 1 1 1 1 1 1 1 1 1 1 1 1 0.29617 0.297035 0.297842 0.297886 0.301306 0.302903 0.301777 0.302849 0.307813 0.3125 0.315617 0.316844 0.317483 0.323921 0.333526 0.337557 0.336974 0.33975 0.352864 0.368351 0.37492 0.374844 0.418328 0.771889 1.25015 1.69917 2.05886 2.32941 2.52794 2.68754 2.85685 3.01814 3.2229 3.24039 3.02411 2.40392 1.88049 1.6479 1.52774 1.42991 1.3164 1.21077 1.12786 1.07568 1.04446 1.02524 1.01425 1.00802 1.00443 1.00242 1.0013 1.00068 1.00035 1.00018 1.00009 1.00004 1.00002 1.00001 1 1 1 1 1 1 1 1 1 1 1 1 0.294972 0.295846 0.296751 0.296764 0.300028 0.301862 0.300732 0.301571 0.306432 0.310764 0.314413 0.315416 0.316189 0.321926 0.331355 0.335648 0.334864 0.337002 0.35004 0.363249 0.368528 0.368438 0.439668 0.829723 1.2983 1.71875 2.0508 2.27887 2.44583 2.61357 2.80893 3.02096 3.17147 3.08844 2.74847 2.25401 1.94871 1.83123 1.76454 1.70888 1.62476 1.52474 1.41062 1.29313 1.18623 1.1094 1.06336 1.03609 1.02007 1.01114 1.00604 1.0032 1.0017 1.00088 1.00044 1.00022 1.0001 1.00005 1.00002 1.00001 1 1 1 1 1 1 1 1 1 1 0.293739 0.294327 0.295585 0.295307 0.298799 0.300323 0.299145 0.30071 0.30478 0.309162 0.312781 0.314674 0.314652 0.31939 0.329437 0.33333 0.332615 0.333455 0.345877 0.361259 0.364855 0.364915 0.463102 0.87563 1.34193 1.74179 2.02268 2.20541 2.36987 2.56103 2.75859 2.94473 2.95922 2.76125 2.38039 2.03336 1.90523 1.86587 1.85256 1.84727 1.82199 1.77654 1.70492 1.61771 1.50864 1.38616 1.2617 1.1577 1.09022 1.051 1.02784 1.01504 1.00815 1.00422 1.00214 1.00109 1.00053 1.00026 1.00012 1.00005 1.00002 1.00001 1 1 1 1 1 1 1 1 0.292042 0.292803 0.293997 0.29353 0.29701 0.298806 0.297952 0.29926 0.302594 0.307641 0.311607 0.313113 0.313069 0.317736 0.32723 0.33109 0.329949 0.329898 0.343664 0.354832 0.35648 0.356508 0.484124 0.922223 1.37946 1.73787 1.96463 2.12716 2.30062 2.46666 2.60057 2.69754 2.58936 2.32403 1.98498 1.80389 1.78727 1.82096 1.84922 1.86542 1.86723 1.8615 1.84814 1.81903 1.77209 1.70227 1.60106 1.48181 1.34913 1.22139 1.12657 1.07066 1.03891 1.02008 1.01042 1.00534 1.00264 1.00132 1.00062 1.00029 1.00012 1.00006 1.00002 1.00001 1 1 1 1 1 1 0.290322 0.290789 0.292142 0.291745 0.295263 0.297185 0.296381 0.297269 0.301195 0.305518 0.309774 0.312256 0.311901 0.31448 0.324483 0.328591 0.327364 0.327131 0.339076 0.349114 0.350655 0.350699 0.483367 0.951512 1.39165 1.69823 1.90167 2.0668 2.17441 2.25058 2.29618 2.28224 2.0081 1.72337 1.49425 1.43946 1.48844 1.57953 1.66615 1.73756 1.79561 1.83626 1.85512 1.86004 1.85363 1.8334 1.80939 1.76086 1.68867 1.57877 1.44027 1.29793 1.17519 1.09455 1.05035 1.0261 1.01304 1.00659 1.0032 1.0015 1.00067 1.00031 1.00013 1.00005 1.00002 1.00001 1 1 1 1 0.288174 0.28865 0.290143 0.289701 0.293044 0.295455 0.294432 0.295619 0.299371 0.303064 0.308805 0.31062 0.309674 0.312139 0.3233 0.325307 0.324637 0.324226 0.335815 0.343985 0.346335 0.346333 0.474779 0.939527 1.36918 1.66466 1.84921 1.95221 1.96281 1.94841 1.85566 1.62234 1.24807 0.976777 0.857257 0.865196 0.935292 1.03584 1.14707 1.26651 1.39194 1.50574 1.59468 1.66965 1.73316 1.78287 1.81861 1.82628 1.81626 1.77818 1.73296 1.64975 1.53519 1.38887 1.23253 1.12367 1.06338 1.0328 1.01619 1.00784 1.00364 1.00169 1.00074 1.00028 1.00011 1.00004 1.00001 1 1 1 0.285857 0.286173 0.287896 0.287383 0.290992 0.292914 0.292866 0.294128 0.296842 0.300512 0.306705 0.309984 0.309 0.309539 0.318799 0.323786 0.322532 0.321463 0.331177 0.338002 0.342762 0.342499 0.464645 0.905837 1.3276 1.62413 1.7729 1.80612 1.73608 1.56899 1.28398 0.93599 0.534707 0.340629 0.292402 0.298289 0.32022 0.365555 0.4339 0.526116 0.625167 0.777345 0.919424 1.05799 1.17812 1.29657 1.41646 1.52749 1.63959 1.72102 1.76652 1.768 1.73422 1.67489 1.59353 1.46244 1.29996 1.16124 1.08129 1.04021 1.01934 1.00931 1.004 1.00162 1.00067 1.00025 1.00008 1.00002 1.00001 1 0.283085 0.283661 0.285114 0.285012 0.288541 0.290408 0.291953 0.291716 0.294701 0.299502 0.304712 0.307274 0.306728 0.307397 0.31608 0.321262 0.319985 0.319482 0.326899 0.33187 0.338543 0.336348 0.39984 0.795085 1.25725 1.55366 1.66133 1.65814 1.50973 1.19944 0.82694 0.43222 0.199521 0.189568 0.208954 0.221323 0.222215 0.210498 0.194553 0.182039 0.175773 0.17765 0.179817 0.261184 0.345461 0.440362 0.547222 0.672954 0.833287 1.02988 1.21532 1.35123 1.47292 1.58158 1.64681 1.66653 1.60894 1.48228 1.32921 1.18764 1.10116 1.05097 1.02236 1.00936 1.00392 1.00142 1.00044 1.00013 1.00003 1.00001 0.28021 0.280486 0.28233 0.282514 0.285613 0.288139 0.288779 0.28953 0.293175 0.296686 0.301142 0.306561 0.306084 0.305725 0.313125 0.319066 0.31864 0.317043 0.322684 0.327181 0.334791 0.334571 0.3392 0.73506 1.19697 1.48146 1.55805 1.51583 1.29719 0.905837 0.490721 0.217488 0.197861 0.238393 0.294403 0.324891 0.331214 0.322222 0.295829 0.241056 0.198916 0.184284 0.184304 0.188259 0.187891 0.187159 0.187318 0.183856 0.182285 0.18393 0.267529 0.386931 0.51355 0.643813 0.806161 1.02065 1.30844 1.47291 1.47118 1.41715 1.31772 1.19285 1.09923 1.05019 1.02228 1.00802 1.00258 1.00072 1.00019 1.00007 0.276898 0.277356 0.27941 0.279545 0.283007 0.28454 0.286717 0.288009 0.290621 0.294793 0.299613 0.304392 0.304723 0.304533 0.309341 0.31666 0.317278 0.317136 0.318784 0.320089 0.329883 0.333436 0.314478 0.561951 1.09679 1.42581 1.4796 1.39077 1.11312 0.696886 0.344449 0.193088 0.208922 0.273203 0.372684 0.417846 0.375426 0.331716 0.323647 0.311177 0.24043 0.193393 0.180205 0.184616 0.186639 0.187066 0.187314 0.187651 0.190133 0.193513 0.197776 0.198044 0.196282 0.19385 0.191206 0.192042 0.200342 0.363654 0.524251 0.661216 0.81855 0.95433 1.0306 1.04061 1.02792 1.01785 1.00702 1.00198 1.0005 1.00016 0.273349 0.274072 0.275927 0.276701 0.278963 0.281819 0.285266 0.287223 0.287156 0.291798 0.298813 0.301758 0.303583 0.303358 0.306614 0.313266 0.316136 0.317006 0.316828 0.316621 0.321995 0.330262 0.320577 0.416622 0.817056 1.21583 1.36456 1.30288 1.00738 0.601991 0.298894 0.190528 0.195491 0.319725 0.415311 0.431937 0.373031 0.3299 0.322236 0.314643 0.256526 0.206695 0.183494 0.181919 0.185019 0.186054 0.186461 0.187431 0.189403 0.191283 0.193811 0.195078 0.19532 0.195202 0.196229 0.195097 0.193474 0.192956 0.192783 0.189635 0.188496 0.185705 0.179097 0.167296 0.140679 0.118312 0.105675 0.101527 0.100415 0.100125 0.269771 0.270268 0.272378 0.274187 0.27462 0.279149 0.282917 0.2853 0.28642 0.288946 0.294011 0.300356 0.303289 0.302891 0.304249 0.310375 0.3133 0.316089 0.316872 0.316655 0.317482 0.324867 0.321345 0.295012 0.665924 1.01319 1.23081 1.21822 0.980842 0.574149 0.293133 0.247544 0.348515 0.482676 0.52623 0.406075 0.322818 0.321283 0.321593 0.325123 0.285232 0.222996 0.188901 0.18156 0.184424 0.185829 0.187075 0.188399 0.189825 0.191586 0.192978 0.193707 0.194019 0.194089 0.194033 0.193798 0.194196 0.193519 0.192498 0.190896 0.189287 0.185805 0.17921 0.168246 0.14927 0.126001 0.108496 0.102327 0.100652 0.100199 0.266081 0.266486 0.268966 0.270695 0.271767 0.276117 0.279643 0.28321 0.286008 0.287056 0.289897 0.297498 0.302874 0.303619 0.303371 0.306137 0.312412 0.315983 0.316298 0.315869 0.317034 0.321667 0.323448 0.314361 0.386702 0.867417 1.21178 1.20735 1.04089 0.668654 0.555265 0.572006 0.668939 0.679311 0.510872 0.348521 0.306132 0.320871 0.32492 0.333536 0.310884 0.244623 0.197033 0.18141 0.183264 0.185283 0.186753 0.18836 0.18988 0.191373 0.19248 0.193187 0.193692 0.193867 0.193867 0.193641 0.193615 0.19277 0.191844 0.190212 0.187327 0.183708 0.178848 0.171402 0.15705 0.135016 0.11297 0.103649 0.101005 0.100305 0.262327 0.26293 0.26555 0.266446 0.270006 0.272604 0.27671 0.28072 0.283688 0.286637 0.288548 0.292872 0.300593 0.304157 0.303689 0.303915 0.309729 0.315598 0.315974 0.315375 0.315638 0.321728 0.329711 0.325052 0.309017 0.508512 0.884118 1.16783 1.11735 0.978142 0.900916 0.85037 0.777837 0.587682 0.406801 0.319795 0.311311 0.328485 0.32916 0.333238 0.312058 0.245761 0.198444 0.182056 0.18286 0.184806 0.186345 0.188045 0.189508 0.190672 0.191515 0.192102 0.192545 0.192739 0.192731 0.19245 0.192217 0.19155 0.190453 0.189156 0.187317 0.184569 0.180812 0.174112 0.161624 0.141611 0.117987 0.105168 0.101435 0.10042 0.258608 0.259455 0.26174 0.263647 0.266516 0.269832 0.27458 0.277416 0.281324 0.285713 0.287754 0.291102 0.297065 0.303188 0.305197 0.304969 0.307749 0.313207 0.316421 0.316881 0.317254 0.320786 0.32987 0.327904 0.321076 0.322799 0.470277 0.630145 0.820318 0.813526 0.783958 0.678565 0.531785 0.395633 0.309718 0.29241 0.312566 0.333849 0.332314 0.334108 0.307586 0.242805 0.198996 0.182692 0.182619 0.184621 0.186128 0.187836 0.189451 0.190671 0.191465 0.191948 0.192297 0.192405 0.192411 0.192078 0.191542 0.190797 0.189716 0.18837 0.1865 0.183866 0.18104 0.176285 0.166283 0.147501 0.123192 0.106828 0.101847 0.100527 0.255215 0.256023 0.258626 0.260872 0.263151 0.267543 0.271642 0.275532 0.279247 0.283373 0.287182 0.290904 0.294262 0.299642 0.305097 0.307297 0.310003 0.314125 0.316631 0.319199 0.321111 0.323878 0.330448 0.329404 0.327187 0.328641 0.329053 0.355022 0.423758 0.447365 0.438995 0.38662 0.333692 0.309555 0.30757 0.30763 0.316826 0.336026 0.335333 0.338091 0.310119 0.245026 0.199943 0.182729 0.182292 0.18437 0.185745 0.187317 0.188916 0.190104 0.190805 0.191246 0.191591 0.191592 0.191577 0.191304 0.190771 0.190024 0.189032 0.187733 0.186052 0.184244 0.181859 0.177155 0.169124 0.152085 0.128083 0.108447 0.102237 0.100625 0.252055 0.252985 0.25565 0.257832 0.260597 0.264753 0.269401 0.273694 0.277354 0.281615 0.286112 0.289911 0.293584 0.298322 0.304667 0.310254 0.314294 0.317396 0.318788 0.321841 0.325167 0.328921 0.332978 0.333021 0.332195 0.333005 0.330088 0.33226 0.330409 0.330472 0.326875 0.319709 0.313062 0.311416 0.312243 0.312379 0.327195 0.342453 0.341456 0.342194 0.298311 0.235776 0.196963 0.182931 0.182962 0.184671 0.185936 0.187402 0.188859 0.189944 0.190586 0.190987 0.191164 0.191122 0.191075 0.190709 0.190269 0.189499 0.188401 0.187469 0.186057 0.184107 0.181966 0.17873 0.172477 0.156128 0.132446 0.110171 0.102651 0.100719 0.249303 0.250368 0.252951 0.255255 0.258085 0.262608 0.267379 0.271505 0.276142 0.280358 0.284723 0.290088 0.295561 0.300386 0.306095 0.312507 0.318195 0.32203 0.324336 0.326513 0.328731 0.332677 0.335963 0.337628 0.338581 0.339121 0.337287 0.337899 0.334903 0.334436 0.332417 0.325903 0.320344 0.318715 0.318831 0.32005 0.334516 0.346892 0.346918 0.344723 0.287819 0.232049 0.196203 0.182814 0.182608 0.184556 0.185859 0.187263 0.1886 0.189649 0.19027 0.190673 0.190778 0.190655 0.190543 0.190145 0.189682 0.189001 0.188034 0.186992 0.185401 0.184164 0.182647 0.179389 0.173658 0.159096 0.136692 0.112175 0.10308 0.10082 0.246916 0.247898 0.250585 0.252805 0.256392 0.260172 0.26512 0.270206 0.274858 0.279643 0.28491 0.291029 0.297376 0.303001 0.308592 0.314599 0.321061 0.326486 0.329608 0.331826 0.333183 0.336035 0.338966 0.341167 0.343441 0.344554 0.343715 0.342953 0.340366 0.340729 0.339073 0.331029 0.326593 0.325471 0.324406 0.325309 0.340263 0.351732 0.351992 0.339003 0.279283 0.225991 0.19395 0.182754 0.183058 0.184615 0.185853 0.18728 0.188603 0.189493 0.189949 0.190326 0.190394 0.19022 0.190063 0.189683 0.189306 0.188622 0.187714 0.186833 0.18567 0.18452 0.182628 0.180248 0.176183 0.162729 0.140185 0.113848 0.103461 0.100898 0.245043 0.245885 0.248532 0.250994 0.254623 0.25807 0.264068 0.269622 0.275371 0.281831 0.287761 0.293568 0.299698 0.305697 0.311182 0.316866 0.323259 0.329334 0.334622 0.337406 0.338433 0.339277 0.341672 0.343597 0.346941 0.348509 0.34802 0.347074 0.345421 0.345452 0.342385 0.334436 0.330759 0.33043 0.328495 0.330687 0.345778 0.35521 0.355344 0.330477 0.270422 0.221616 0.192525 0.182506 0.183052 0.184548 0.185871 0.187312 0.188506 0.189308 0.189777 0.190142 0.190165 0.189845 0.189699 0.189295 0.188921 0.188128 0.187215 0.186307 0.184954 0.184005 0.182836 0.180952 0.176337 0.163683 0.14251 0.115653 0.103864 0.100979 0.243388 0.244253 0.246829 0.249427 0.252732 0.256836 0.262858 0.268845 0.275202 0.281222 0.287492 0.294001 0.30115 0.308463 0.314197 0.319845 0.325746 0.331942 0.33754 0.341592 0.342635 0.342999 0.343952 0.345577 0.348912 0.351661 0.351518 0.350937 0.349662 0.348215 0.343318 0.338436 0.335317 0.333616 0.331496 0.335614 0.35038 0.357447 0.357533 0.320157 0.263122 0.217879 0.191085 0.182461 0.183351 0.184617 0.185875 0.187251 0.188399 0.18925 0.189703 0.189959 0.189878 0.189587 0.189463 0.188928 0.18866 0.18811 0.187364 0.186402 0.18543 0.18473 0.183091 0.181073 0.177624 0.166859 0.14573 0.117349 0.104185 0.10104 0.242321 0.242948 0.245619 0.248189 0.25227 0.257164 0.264249 0.27117 0.277184 0.282932 0.289276 0.295829 0.3033 0.310897 0.317787 0.322993 0.327968 0.333903 0.339636 0.344007 0.34582 0.346164 0.346187 0.347416 0.350589 0.353875 0.354315 0.354017 0.351793 0.349229 0.345396 0.340986 0.337301 0.336247 0.334934 0.34033 0.353741 0.359088 0.358302 0.309865 0.257355 0.214642 0.189766 0.182293 0.183398 0.184673 0.185925 0.187225 0.188347 0.189194 0.189636 0.189817 0.189785 0.189453 0.189104 0.188617 0.188418 0.187655 0.1869 0.186035 0.184953 0.183953 0.182872 0.181938 0.178465 0.167586 0.146713 0.118409 0.104437 0.101077 0.241535 0.241993 0.244387 0.247346 0.250938 0.255648 0.262015 0.268671 0.275402 0.282494 0.289689 0.296471 0.303795 0.311319 0.318431 0.324265 0.329816 0.335908 0.341687 0.345779 0.34796 0.348568 0.348366 0.348576 0.351563 0.356033 0.356435 0.355969 0.353183 0.350781 0.347634 0.34196 0.338257 0.338678 0.338488 0.344555 0.356196 0.360156 0.355185 0.303587 0.252583 0.211724 0.188746 0.182366 0.183751 0.184937 0.186112 0.187257 0.188253 0.189001 0.189483 0.189718 0.189714 0.189261 0.189009 0.188422 0.18802 0.187409 0.186951 0.186103 0.185136 0.18451 0.183497 0.18222 0.178537 0.168955 0.148779 0.119724 0.10464 0.101104 0.241106 0.241554 0.244413 0.247902 0.252146 0.257542 0.264171 0.271663 0.27914 0.286445 0.29338 0.300051 0.307319 0.314879 0.321476 0.326849 0.332402 0.33849 0.344154 0.347876 0.349951 0.349975 0.349431 0.349802 0.354046 0.358099 0.358244 0.357353 0.354588 0.351931 0.348043 0.342451 0.339059 0.338907 0.340711 0.3485 0.358159 0.361056 0.351016 0.298723 0.249191 0.209788 0.188083 0.182321 0.18379 0.185018 0.18628 0.187406 0.188226 0.188814 0.18926 0.189566 0.189722 0.189632 0.189259 0.188594 0.188228 0.18743 0.186736 0.185902 0.184875 0.184091 0.182702 0.181908 0.178744 0.169746 0.149484 0.120091 0.104682 0.101107 0.239204 0.239555 0.241919 0.245143 0.248818 0.253992 0.259968 0.266997 0.274586 0.281599 0.288202 0.294976 0.302373 0.31 0.316621 0.322249 0.328006 0.334289 0.340218 0.344429 0.346905 0.346998 0.346551 0.346749 0.351131 0.355755 0.356586 0.356113 0.35344 0.350123 0.346322 0.34204 0.339516 0.339241 0.342072 0.350609 0.359602 0.361741 0.348141 0.296777 0.247839 0.209086 0.187965 0.182437 0.183868 0.185067 0.186339 0.187467 0.188245 0.188786 0.189204 0.189494 0.189601 0.189524 0.189086 0.188571 0.188231 0.18736 0.186729 0.186094 0.185172 0.184611 0.183154 0.182631 0.17944 0.170436 0.149891 0.120265 0.104703 0.10111
				</DataArray>
				<DataArray Name="Energy" type="Float32" format="ascii">