<?xml version="1.0"?>
<VTKFile type="PolyData">
	<PolyData>
		<Piece NumberOfPoints="1206" NumberOfPolys="1000">
			<Points>
				<DataArray type="Float32" NumberOfComponents="3" format="ascii">
 0 0 0 0.005 0 0 0.01 0 0 0.015 0 0 0.02 0 0 0.025 0 0 0.03 0 0 0.035 0 0 0.04 0 0 0.045 0 0 0.05 0 0 0.055 0 0 0.06 0 0 0.065 0 0 0.07 0 0 0.075 0 0 0.08 0 0 0.085 0 0 0.09 0 0 0.095 0 0 0.1 0 0 0.105 0 0 0.11 0 0 0.115 0 0 0.12 0 0 0.125 0 0 0.13 0 0 0.135 0 0 0.14 0 0 0.145 0 0 0.15 0 0 0.155 0 0 0.16 0 0 0.165 0 0 0.17 0 0 0.175 0 0 0.18 0 0 0.185 0 0 0.19 0 0 0.195 0 0 0.2 0 0 0.205 0 0 0.21 0 0 0.215 0 0 0.22 0 0 0.225 0 0 0.23 0 0 0.235 0 0 0.24 0 0 0.245 0 0 0.25 0 0 0.255 0 0 0.26 0 0 0.265 0 0 0.27 0 0 0.275 0 0 0.28 0 0 0.285 0 0 0.29 0 0 0.295 0 0 0.3 0 0 0.305 0 0 0.31 0 0 0.315 0 0 0.32 0 0 0.325 0 0 0.33 0 0 0.335 0 0 0.34 0 0 0.345 0 0 0.35 0 0 0.355 0 0 0.36 0 0 0.365 0 0 0.37 0 0 0.375 0 0 0.38 0 0 0.385 0 0 0.39 0 0 0.395 0 0 0.4 0 0 0.405 0 0 0.41 0 0 0.415 0 0 0.42 0 0 0.425 0 0 0.43 0 0 0.435 0 0 0.44 0 0 0.445 0 0 0.45 0 0 0.455 0 0 0.46 0 0 0.465 0 0 0.47 0 0 0.475 0 0 0.48 0 0 0.485 0 0 0.49 0 0 0.495 0 0 0.5 0 0 0.505 0 0 0.51 0 0 0.515 0 0 0.52 0 0 0.525 0 0 0.53 0 0 0.535 0 0 0.54 0 0 0.545 0 0 0.55 0 0 0.555 0 0 0.56 0 0 0.565 0 0 0.57 0 0 0.575 0 0 0.58 0 0 0.585 0 0 0.59 0 0 0.595 0 0 0.6 0 0 0.605 0 0 0.61 0 0 0.615 0 0 0.62 0 0 0.625 0 0 0.63 0 0 0.635 0 0 0.64 0 0 0.645 0 0 0.65 0 0 0.655 0 0 0.66 0 0 0.665 0 0 0.67 0 0 0.675 0 0 0.68 0 0 0.685 0 0 0.69 0 0 0.695 0 0 0.7 0 0 0.705 0 0 0.71 0 0 0.715 0 0 0.72 0 0 0.725 0 0 0.73 0 0 0.735 0 0 0.74 0 0 0.745 0 0 0.75 0 0 0.755 0 0 0.76 0 0 0.765 0 0 0.77 0 0 0.775 0 0 0.78 0 0 0.785 0 0 0.79 0 0 0.795 0 0 0.8 0 0 0.805 0 0 0.81 0 0 0.815 0 0 0.82 0 0 0.825 0 0 0.83 0 0 0.835 0 0 0.84 0 0 0.845 0 0 0.85 0 0 0.855 0 0 0.86 0 0 0.865 0 0 0.87 0 0 0.875 0 0 0.88 0 0 0.885 0 0 0.89 0 0 0.895 0 0 0.9 0 0 0.905 0 0 0.91 0 0 0.915 0 0 0.92 0 0 0.925 0 0 0.93 0 0 0.935 0 0 0.94 0 0 0.945 0 0 0.95 0 0 0.955 0 0 0.96 0 0 0.965 0 0 0.97 0 0 0.975 0 0 0.98 0 0 0.985 0 0 0.99 0 0 0.995 0 0 1 0 0 0 0.02 0 0.005 0.02 0 0.01 0.02 0 0.015 0.02 0 0.02 0.02 0 0.025 0.02 0 0.03 0.02 0 0.035 0.02 0 0.04 0.02 0 0.045 0.02 0 0.05 0.02 0 0.055 0.02 0 0.06 0.02 0 0.065 0.02 0 0.07 0.02 0 0.075 0.02 0 0.08 0.02 0 0.085 0.02 0 0.09 0.02 0 0.095 0.02 0 0.1 0.02 0 0.105 0.02 0 0.11 0.02 0 0.115 0.02 0 0.12 0.02 0 0.125 0.02 0 0.13 0.02 0 0.135 0.02 0 0.14 0.02 0 0.145 0.02 0 0.15 0.02 0 0.155 0.02 0 0.16 0.02 0 0.165 0.02 0 0.17 0.02 0 0.175 0.02 0 0.18 0.02 0 0.185 0.02 0 0.19 0.02 0 0.195 0.02 0 0.2 0.02 0 0.205 0.02 0 0.21 0.02 0 0.215 0.02 0 0.22 0.02 0 0.225 0.02 0 0.23 0.02 0 0.235 0.02 0 0.24 0.02 0 0.245 0.02 0 0.25 0.02 0 0.255 0.02 0 0.26 0.02 0 0.265 0.02 0 0.27 0.02 0 0.275 0.02 0 0.28 0.02 0 0.285 0.02 0 0.29 0.02 0 0.295 0.02 0 0.3 0.02 0 0.305 0.02 0 0.31 0.02 0 0.315 0.02 0 0.32 0.02 0 0.325 0.02 0 0.33 0.02 0 0.335 0.02 0 0.34 0.02 0 0.345 0.02 0 0.35 0.02 0 0.355 0.02 0 0.36 0.02 0 0.365 0.02 0 0.37 0.02 0 0.375 0.02 0 0.38 0.02 0 0.385 0.02 0 0.39 0.02 0 0.395 0.02 0 0.4 0.02 0 0.405 0.02 0 0.41 0.02 0 0.415 0.02 0 0.42 0.02 0 0.425 0.02 0 0.43 0.02 0 0.435 0.02 0 0.44 0.02 0 0.445 0.02 0 0.45 0.02 0 0.455 0.02 0 0.46 0.02 0 0.465 0.02 0 0.47 0.02 0 0.475 0.02 0 0.48 0.02 0 0.485 0.02 0 0.49 0.02 0 0.495 0.02 0 0.5 0.02 0 0.505 0.02 0 0.51 0.02 0 0.515 0.02 0 0.52 0.02 0 0.525 0.02 0 0.53 0.02 0 0.535 0.02 0 0.54 0.02 0 0.545 0.02 0 0.55 0.02 0 0.555 0.02 0 0.56 0.02 0 0.565 0.02 0 0.57 0.02 0 0.575 0.02 0 0.58 0.02 0 0.585 0.02 0 0.59 0.02 0 0.595 0.02 0 0.6 0.02 0 0.605 0.02 0 0.61 0.02 0 0.615 0.02 0 0.62 0.02 0 0.625 0.02 0 0.63 0.02 0 0.635 0.02 0 0.64 0.02 0 0.645 0.02 0 0.65 0.02 0 0.655 0.02 0 0.66 0.02 0 0.665 0.02 0 0.67 0.02 0 0.675 0.02 0 0.68 0.02 0 0.685 0.02 0 0.69 0.02 0 0.695 0.02 0 0.7 0.02 0 0.705 0.02 0 0.71 0.02 0 0.715 0.02 0 0.72 0.02 0 0.725 0.02 0 0.73 0.02 0 0.735 0.02 0 0.74 0.02 0 0.745 0.02 0 0.75 0.02 0 0.755 0.02 0 0.76 0.02 0 0.765 0.02 0 0.77 0.02 0 0.775 0.02 0 0.78 0.02 0 0.785 0.02 0 0.79 0.02 0 0.795 0.02 0 0.8 0.02 0 0.805 0.02 0 0.81 0.02 0 0.815 0.02 0 0.82 0.02 0 0.825 0.02 0 0.83 0.02 0 0.835 0.02 0 0.84 0.02 0 0.845 0.02 0 0.85 0.02 0 0.855 0.02 0 0.86 0.02 0 0.865 0.02 0 0.87 0.02 0 0.875 0.02 0 0.88 0.02 0 0.885 0.02 0 0.89 0.02 0 0.895 0.02 0 0.9 0.02 0 0.905 0.02 0 0.91 0.02 0 0.915 0.02 0 0.92 0.02 0 0.925 0.02 0 0.93 0.02 0 0.935 0.02 0 0.94 0.02 0 0.945 0.02 0 0.95 0.02 0 0.955 0.02 0 0.96 0.02 0 0.965 0.02 0 0.97 0.02 0 0.975 0.02 0 0.98 0.02 0 0.985 0.02 0 0.99 0.02 0 0.995 0.02 0 1 0.02 0 0 0.04 0 0.005 0.04 0 0.01 0.04 0 0.015 0.04 0 0.02 0.04 0 0.025 0.04 0 0.03 0.04 0 0.035 0.04 0 0.04 0.04 0 0.045 0.04 0 0.05 0.04 0 0.055 0.04 0 0.06 0.04 0 0.065 0.04 0 0.07 0.04 0 0.075 0.04 0 0.08 0.04 0 0.085 0.04 0 0.09 0.04 0 0.095 0.04 0 0.1 0.04 0 0.105 0.04 0 0.11 0.04 0 0.115 0.04 0 0.12 0.04 0 0.125 0.04 0 0.13 0.04 0 0.135 0.04 0 0.14 0.04 0 0.145 0.04 0 0.15 0.04 0 0.155 0.04 0 0.16 0.04 0 0.165 0.04 0 0.17 0.04 0 0.175 0.04 0 0.18 0.04 0 0.185 0.04 0 0.19 0.04 0 0.195 0.04 0 0.2 0.04 0 0.205 0.04 0 0.21 0.04 0 0.215 0.04 0 0.22 0.04 0 0.225 0.04 0 0.23 0.04 0 0.235 0.04 0 0.24 0.04 0 0.245 0.04 0 0.25 0.04 0 0.255 0.04 0 0.26 0.04 0 0.265 0.04 0 0.27 0.04 0 0.275 0.04 0 0.28 0.04 0 0.285 0.04 0 0.29 0.04 0 0.295 0.04 0 0.3 0.04 0 0.305 0.04 0 0.31 0.04 0 0.315 0.04 0 0.32 0.04 0 0.325 0.04 0 0.33 0.04 0 0.335 0.04 0 0.34 0.04 0 0.345 0.04 0 0.35 0.04 0 0.355 0.04 0 0.36 0.04 0 0.365 0.04 0 0.37 0.04 0 0.375 0.04 0 0.38 0.04 0 0.385 0.04 0 0.39 0.04 0 0.395 0.04 0 0.4 0.04 0 0.405 0.04 0 0.41 0.04 0 0.415 0.04 0 0.42 0.04 0 0.425 0.04 0 0.43 0.04 0 0.435 0.04 0 0.44 0.04 0 0.445 0.04 0 0.45 0.04 0 0.455 0.04 0 0.46 0.04 0 0.465 0.04 0 0.47 0.04 0 0.475 0.04 0 0.48 0.04 0 0.485 0.04 0 0.49 0.04 0 0.495 0.04 0 0.5 0.04 0 0.505 0.04 0 0.51 0.04 0 0.515 0.04 0 0.52 0.04 0 0.525 0.04 0 0.53 0.04 0 0.535 0.04 0 0.54 0.04 0 0.545 0.04 0 0.55 0.04 0 0.555 0.04 0 0.56 0.04 0 0.565 0.04 0 0.57 0.04 0 0.575 0.04 0 0.58 0.04 0 0.585 0.04 0 0.59 0.04 0 0.595 0.04 0 0.6 0.04 0 0.605 0.04 0 0.61 0.04 0 0.615 0.04 0 0.62 0.04 0 0.625 0.04 0 0.63 0.04 0 0.635 0.04 0 0.64 0.04 0 0.645 0.04 0 0.65 0.04 0 0.655 0.04 0 0.66 0.04 0 0.665 0.04 0 0.67 0.04 0 0.675 0.04 0 0.68 0.04 0 0.685 0.04 0 0.69 0.04 0 0.695 0.04 0 0.7 0.04 0 0.705 0.04 0 0.71 0.04 0 0.715 0.04 0 0.72 0.04 0 0.725 0.04 0 0.73 0.04 0 0.735 0.04 0 0.74 0.04 0 0.745 0.04 0 0.75 0.04 0 0.755 0.04 0 0.76 0.04 0 0.765 0.04 0 0.77 0.04 0 0.775 0.04 0 0.78 0.04 0 0.785 0.04 0 0.79 0.04 0 0.795 0.04 0 0.8 0.04 0 0.805 0.04 0 0.81 0.04 0 0.815 0.04 0 0.82 0.04 0 0.825 0.04 0 0.83 0.04 0 0.835 0.04 0 0.84 0.04 0 0.845 0.04 0 0.85 0.04 0 0.855 0.04 0 0.86 0.04 0 0.865 0.04 0 0.87 0.04 0 0.875 0.04 0 0.88 0.04 0 0.885 0.04 0 0.89 0.04 0 0.895 0.04 0 0.9 0.04 0 0.905 0.04 0 0.91 0.04 0 0.915 0.04 0 0.92 0.04 0 0.925 0.04 0 0.93 0.04 0 0.935 0.04 0 0.94 0.04 0 0.945 0.04 0 0.95 0.04 0 0.955 0.04 0 0.96 0.04 0 0.965 0.04 0 0.97 0.04 0 0.975 0.04 0 0.98 0.04 0 0.985 0.04 0 0.99 0.04 0 0.995 0.04 0 1 0.04 0 0 0.06 0 0.005 0.06 0 0.01 0.06 0 0.015 0.06 0 0.02 0.06 0 0.025 0.06 0 0.03 0.06 0 0.035 0.06 0 0.04 0.06 0 0.045 0.06 0 0.05 0.06 0 0.055 0.06 0 0.06 0.06 0 0.065 0.06 0 0.07 0.06 0 0.075 0.06 0 0.08 0.06 0 0.085 0.06 0 0.09 0.06 0 0.095 0.06 0 0.1 0.06 0 0.105 0.06 0 0.11 0.06 0 0.115 0.06 0 0.12 0.06 0 0.125 0.06 0 0.13 0.06 0 0.135 0.06 0 0.14 0.06 0 0.145 0.06 0 0.15 0.06 0 0.155 0.06 0 0.16 0.06 0 0.165 0.06 0 0.17 0.06 0 0.175 0.06 0 0.18 0.06 0 0.185 0.06 0 0.19 0.06 0 0.195 0.06 0 0.2 0.06 0 0.205 0.06 0 0.21 0.06 0 0.215 0.06 0 0.22 0.06 0 0.225 0.06 0 0.23 0.06 0 0.235 0.06 0 0.24 0.06 0 0.245 0.06 0 0.25 0.06 0 0.255 0.06 0 0.26 0.06 0 0.265 0.06 0 0.27 0.06 0 0.275 0.06 0 0.28 0.06 0 0.285 0.06 0 0.29 0.06 0 0.295 0.06 0 0.3 0.06 0 0.305 0.06 0 0.31 0.06 0 0.315 0.06 0 0.32 0.06 0 0.325 0.06 0 0.33 0.06 0 0.335 0.06 0 0.34 0.06 0 0.345 0.06 0 0.35 0.06 0 0.355 0.06 0 0.36 0.06 0 0.365 0.06 0 0.37 0.06 0 0.375 0.06 0 0.38 0.06 0 0.385 0.06 0 0.39 0.06 0 0.395 0.06 0 0.4 0.06 0 0.405 0.06 0 0.41 0.06 0 0.415 0.06 0 0.42 0.06 0 0.425 0.06 0 0.43 0.06 0 0.435 0.06 0 0.44 0.06 0 0.445 0.06 0 0.45 0.06 0 0.455 0.06 0 0.46 0.06 0 0.465 0.06 0 0.47 0.06 0 0.475 0.06 0 0.48 0.06 0 0.485 0.06 0 0.49 0.06 0 0.495 0.06 0 0.5 0.06 0 0.505 0.06 0 0.51 0.06 0 0.515 0.06 0 0.52 0.06 0 0.525 0.06 0 0.53 0.06 0 0.535 0.06 0 0.54 0.06 0 0.545 0.06 0 0.55 0.06 0 0.555 0.06 0 0.56 0.06 0 0.565 0.06 0 0.57 0.06 0 0.575 0.06 0 0.58 0.06 0 0.585 0.06 0 0.59 0.06 0 0.595 0.06 0 0.6 0.06 0 0.605 0.06 0 0.61 0.06 0 0.615 0.06 0 0.62 0.06 0 0.625 0.06 0 0.63 0.06 0 0.635 0.06 0 0.64 0.06 0 0.645 0.06 0 0.65 0.06 0 0.655 0.06 0 0.66 0.06 0 0.665 0.06 0 0.67 0.06 0 0.675 0.06 0 0.68 0.06 0 0.685 0.06 0 0.69 0.06 0 0.695 0.06 0 0.7 0.06 0 0.705 0.06 0 0.71 0.06 0 0.715 0.06 0 0.72 0.06 0 0.725 0.06 0 0.73 0.06 0 0.735 0.06 0 0.74 0.06 0 0.745 0.06 0 0.75 0.06 0 0.755 0.06 0 0.76 0.06 0 0.765 0.06 0 0.77 0.06 0 0.775 0.06 0 0.78 0.06 0 0.785 0.06 0 0.79 0.06 0 0.795 0.06 0 0.8 0.06 0 0.805 0.06 0 0.81 0.06 0 0.815 0.06 0 0.82 0.06 0 0.825 0.06 0 0.83 0.06 0 0.835 0.06 0 0.84 0.06 0 0.845 0.06 0 0.85 0.06 0 0.855 0.06 0 0.86 0.06 0 0.865 0.06 0 0.87 0.06 0 0.875 0.06 0 0.88 0.06 0 0.885 0.06 0 0.89 0.06 0 0.895 0.06 0 0.9 0.06 0 0.905 0.06 0 0.91 0.06 0 0.915 0.06 0 0.92 0.06 0 0.925 0.06 0 0.93 0.06 0 0.935 0.06 0 0.94 0.06 0 0.945 0.06 0 0.95 0.06 0 0.955 0.06 0 0.96 0.06 0 0.965 0.06 0 0.97 0.06 0 0.975 0.06 0 0.98 0.06 0 0.985 0.06 0 0.99 0.06 0 0.995 0.06 0 1 0.06 0 0 0.08 0 0.005 0.08 0 0.01 0.08 0 0.015 0.08 0 0.02 0.08 0 0.025 0.08 0 0.03 0.08 0 0.035 0.08 0 0.04 0.08 0 0.045 0.08 0 0.05 0.08 0 0.055 0.08 0 0.06 0.08 0 0.065 0.08 0 0.07 0.08 0 0.075 0.08 0 0.08 0.08 0 0.085 0.08 0 0.09 0.08 0 0.095 0.08 0 0.1 0.08 0 0.105 0.08 0 0.11 0.08 0 0.115 0.08 0 0.12 0.08 0 0.125 0.08 0 0.13 0.08 0 0.135 0.08 0 0.14 0.08 0 0.145 0.08 0 0.15 0.08 0 0.155 0.08 0 0.16 0.08 0 0.165 0.08 0
[...]
			<CellData Scalars="Density">
				<DataArray Name="Density" type="Float32" format="ascii">
 1 1 1 1 1 1 1 1 1 1 1 1 1 1 1 1 1 1 1 1 1 1 1 1 1 1 1 1 1 1 1 1 1 1 1 0.999999 0.999998 0.999995 0.999987 0.999967 0.999919 0.999812 0.999578 0.999117 0.998298 0.996969 0.99499 0.992266 0.988753 0.984446 0.97936 0.973347 0.9661 0.957438 0.94753 0.93677 0.925431 0.913634 0.901262 0.888518 0.875577 0.862693 0.849524 0.836107 0.822621 0.809052 0.795352 0.781679 0.768162 0.754753 0.741439 0.72825 0.715176 0.702278 0.689508 0.676951 0.664499 0.65223 0.640177 0.628291 0.616682 0.605353 0.594183 0.583218 0.57252 0.561924 0.551346 0.540918 0.530744 0.520663 0.510768 0.501306 0.492331 0.483674 0.475207 0.467236 0.459949 0.453392 0.447649 0.442415 0.437543 0.433822 0.431249 0.42881 0.426695 0.425594 0.424767 0.423943 0.423862 0.423873 0.423694 0.423306 0.423215 0.423398 0.423762 0.423819 0.42347 0.422881 0.422801 0.423037 0.423312 0.42319 0.422196 0.421589 0.421628 0.422257 0.422485 0.421511 0.418433 0.417153 0.41842 0.427293 0.433256 0.430464 0.383862 0.330843 0.290183 0.26855 0.262822 0.264209 0.264368 0.264453 0.264793 0.265126 0.265377 0.265555 0.26567 0.265752 0.265863 0.26601 0.266131 0.266183 0.266187 0.266166 0.266119 0.266079 0.266054 0.266028 0.265995 0.265978 0.265976 0.265994 0.266022 0.266018 0.266076 0.26594 0.262754 0.24505 0.19681 0.140381 0.127398 0.125362 0.125055 0.125008 0.125001 0.125 0.125 0.125 0.125 0.125 0.125 0.125 0.125 0.125 0.125 0.125 0.125 0.125 0.125 0.125 0.125 0.125 0.125 0.125 0.125 0.125 0.125 0.125 0.125 0.125 1 1 1 1 1 1 1 1 1 1 1 1 1 1 1 1 1 1 1 1 1 1 1 1 1 1 1 1 1 1 1 1 1 1 1 0.999999 0.999998 0.999995 0.999987 0.999965 0.999916 0.999805 0.999553 0.999038 0.99811 0.996597 0.994347 0.991282 0.98742 0.982856 0.977863 0.972327 0.965679 0.957624 0.948319 0.938019 0.927031 0.915595 0.903554 0.89085 0.877138 0.863105 0.849004 0.835111 0.821536 0.808131 0.794712 0.781278 0.768004 0.754826 0.741646 0.728532 0.715471 0.702498 0.689605 0.676969 0.664504 0.65224 0.640125 0.62806 0.616191 0.604559 0.593097 0.581875 0.571003 0.560378 0.549969 0.539872 0.530096 0.520435 0.510774 0.501267 0.492143 0.483518 0.475391 0.467856 0.460911 0.454522 0.448718 0.443302 0.43825 0.434346 0.43176 0.429379 0.427234 0.426026 0.425175 0.424196 0.423854 0.423847 0.423526 0.423026 0.422929 0.423097 0.423568 0.423657 0.423379 0.422825 0.42273 0.422974 0.423264 0.423154 0.422194 0.421584 0.421615 0.422248 0.422474 0.4215 0.418445 0.417179 0.41838 0.42723 0.433253 0.431001 0.384602 0.331099 0.289797 0.268016 0.262508 0.264213 0.26441 0.26452 0.264833 0.265135 0.265385 0.265567 0.265672 0.265754 0.265884 0.266038 0.266149 0.266189 0.266188 0.26616 0.266121 0.266087 0.266063 0.266058 0.266065 0.266094 0.266095 0.265962 0.265808 0.265721 0.265671 0.265648 0.262785 0.24584 0.197541 0.140488 0.127402 0.125362 0.125055 0.125008 0.125001 0.125 0.125 0.125 0.125 0.125 0.125 0.125 0.125 0.125 0.125 0.125 0.125 0.125 0.125 0.125 0.125 0.125 0.125 0.125 0.125 0.125 0.125 0.125 0.125 0.125 1 1 1 1 1 1 1 1 1 1 1 1 1 1 1 1 1 1 1 1 1 1 1 1 1 1 1 1 1 1 1 1 1 1 1 0.999999 0.999998 0.999995 0.999987 0.999964 0.999912 0.999804 0.999575 0.999119 0.9983 0.996975 0.995006 0.992312 0.988871 0.984683 0.979633 0.97323 0.965335 0.956427 0.946784 0.936467 0.925681 0.914558 0.90302 0.89089 0.877733 0.864072 0.850246 0.836603 0.822923 0.80905 0.794875 0.780724 0.76705 0.753882 0.740975 0.728166 0.715361 0.702582 0.689853 0.6773 0.6648 0.652419 0.640143 0.627921 0.615926 0.60418 0.592583 0.581211 0.57018 0.559394 0.548856 0.538723 0.529022 0.519636 0.510396 0.501349 0.492725 0.48453 0.476613 0.469003 0.461844 0.455183 0.448918 0.442965 0.437568 0.433541 0.430909 0.428502 0.426414 0.42535 0.424659 0.423901 0.423819 0.423827 0.423675 0.423249 0.423098 0.423185 0.423532 0.42361 0.423305 0.422774 0.422701 0.422961 0.423247 0.423132 0.422175 0.421567 0.421611 0.422252 0.422476 0.421496 0.418448 0.417074 0.41811 0.426696 0.432762 0.430426 0.383218 0.329735 0.28904 0.26785 0.262612 0.264241 0.264411 0.264497 0.264801 0.265116 0.265365 0.265531 0.265653 0.2658 0.26598 0.266121 0.266184 0.266191 0.266176 0.266143 0.266106 0.266073 0.266041 0.26602 0.266006 0.265985 0.265962 0.265956 0.265943 0.265911 0.265919 0.265822 0.262694 0.245301 0.196999 0.140403 0.127398 0.125362 0.125055 0.125008 0.125001 0.125 0.125 0.125 0.125 0.125 0.125 0.125 0.125 0.125 0.125 0.125 0.125 0.125 0.125 0.125 0.125 0.125 0.125 0.125 0.125 0.125 0.125 0.125 0.125 0.125 1 1 1 1 1 1 1 1 1 1 1 1 1 1 1 1 1 1 1 1 1 1 1 1 1 1 1 1 1 1 1 1 1 1 1 0.999999 0.999998 0.999995 0.999986 0.999962 0.999905 0.99979 0.999563 0.999129 0.998367 0.997149 0.995348 0.992872 0.989632 0.985466 0.979791 0.972059 0.962839 0.953019 0.942749 0.932147 0.921368 0.910504 0.899387 0.887968 0.876213 0.863714 0.850376 0.83697 0.823522 0.809881 0.795987 0.782107 0.768458 0.755007 0.741707 0.728541 0.715514 0.70269 0.689987 0.677484 0.665059 0.652796 0.640723 0.628766 0.61704 0.605552 0.594195 0.583043 0.572202 0.561537 0.550983 0.540669 0.530666 0.5209 0.511309 0.50211 0.493421 0.485025 0.476791 0.468874 0.461518 0.454832 0.448885 0.443404 0.438383 0.43455 0.431978 0.429563 0.427364 0.426112 0.425262 0.424263 0.423972 0.423977 0.423668 0.42321 0.423054 0.42315 0.423517 0.423622 0.423351 0.422787 0.422701 0.422933 0.423222 0.423122 0.422167 0.421556 0.421585 0.422217 0.422446 0.421547 0.4185 0.417074 0.418203 0.426943 0.43315 0.431494 0.38576 0.332128 0.290517 0.268501 0.262735 0.264213 0.264384 0.26447 0.264791 0.265126 0.265394 0.265581 0.265688 0.26578 0.265919 0.266073 0.266175 0.266208 0.266205 0.266172 0.266129 0.266098 0.266074 0.266061 0.266051 0.266053 0.266054 0.266017 0.265942 0.265907 0.265971 0.265948 0.262889 0.245437 0.196744 0.140292 0.127387 0.125361 0.125055 0.125008 0.125001 0.125 0.125 0.125 0.125 0.125 0.125 0.125 0.125 0.125 0.125 0.125 0.125 0.125 0.125 0.125 0.125 0.125 0.125 0.125 0.125 0.125 0.125 0.125 0.125 0.125 1 1 1 1 1 1 1 1 1 1 1 1 1 1 1 1 1 1 1 1 1 1 1 1 1 1 1 1 1 1 1 1 1 1 1 0.999999 0.999998 0.999995 0.999987 0.999963 0.999908 0.999795 0.999569 0.99915 0.998428 0.997286 0.995601 0.993261 0.990131 0.985995 0.980456 0.973402 0.965219 0.956225 0.94658 0.93636 0.925635 0.914429 0.902697 0.890452 0.877614 0.863719 0.849004 0.834615 0.820902 0.807763 0.794806 0.781719 0.768391 0.754887 0.741435 0.728097 0.714877 0.701875 0.689027 0.676455 0.664051 0.651877 0.639922 0.628081 0.61646 0.605055 0.593728 0.582569 0.571691 0.560966 0.550345 0.539922 0.529767 0.519815 0.51006 0.500692 0.491818 0.483345 0.475235 0.467579 0.460442 0.45389 0.448091 0.442726 0.437729 0.433871 0.43121 0.428695 0.426566 0.425448 0.424717 0.42392 0.423781 0.423791 0.423561 0.423155 0.423018 0.423129 0.42352 0.42361 0.423328 0.422784 0.422704 0.422952 0.423223 0.423108 0.42213 0.421541 0.421587 0.422227 0.422454 0.421447 0.418392 0.417138 0.418398 0.426892 0.432729 0.430412 0.384306 0.330986 0.289837 0.268115 0.262604 0.264191 0.264392 0.264494 0.264817 0.265133 0.265384 0.265568 0.265682 0.265771 0.265903 0.26606 0.266172 0.266212 0.266211 0.266181 0.266137 0.266101 0.266073 0.266056 0.26605 0.266043 0.266036 0.26603 0.266025 0.265989 0.265942 0.26588 0.262793 0.245386 0.196563 0.140208 0.127372 0.12536 0.125055 0.125008 0.125001 0.125 0.125 0.125 0.125 0.125 0.125 0.125 0.125 0.125 0.125 0.125 0.125 0.125 0.125 0.125 0.125 0.125 0.125 0.125 0.125 0.125 0.125 0.125 0.125 0.125
				</DataArray>
				<DataArray Name="Energy" type="Float32" format="ascii">
 2.5 2.5 2.5 2.5 2.5 2.5 2.5 2.5 2.5 2.5 2.5 2.5 2.5 2.5 2.5 2.5 2.5 2.5 2.5 2.5 2.5 2.5 2.5 2.5 2.5 2.5 2.5 2.5 2.5 2.5 2.5 2.5 2.5 2.5 2.5 2.5 2.5 2.5 2.49999 2.49997 2.49992 2.49981 2.49958 2.49912 2.4983 2.49697 2.49499 2.49226 2.48874 2.48441 2.47929 2.47322 2.46588 2.45707 2.44694 2.43587 2.42413 2.41183 2.39884 2.38535 2.37154 2.35768 2.34339 2.3287 2.31378 2.29863 2.28317 2.26759 2.25201 2.23641 2.22078 2.2051 2.18942 2.17368 2.15812 2.14241 2.12691 2.11135 2.09574 2.08047 2.06525 2.05004 2.03522 2.02053 2.00563 1.9909 1.97639 1.96163 1.94672 1.93205 1.91799 1.90413 1.8903 1.87693 1.86435 1.8525 1.84125 1.83068 1.82071 1.8127 1.80716 1.80095 1.79412 1.79092 1.78989 1.7873 1.78582 1.78623 1.78524 1.78445 1.78472 1.78652 1.78769 1.78773 1.78639 1.78633 1.78806 1.79064 1.79113 1.79025 1.78916 1.78972 1.79395 1.79649 1.79632 1.79363 1.79268 1.79688 1.81018 1.81587 1.81036 1.77286 1.74959 1.75929 1.95935 2.28596 2.61173 2.81909 2.88058 2.86862 2.86497 2.8637 2.86009 2.85653 2.85389 2.85204 2.85088 2.85006 2.84893 2.84735 2.84601 2.84536 2.84519 2.84525 2.84558 2.84586 2.84601 2.84619 2.84647 2.84673 2.84711 2.84734 2.8475 2.84802 2.84859 2.84812 2.8339 2.74464 2.48432 2.10587 2.01539 2.00232 2.00035 2.00005 2.00001 2 2 2 2 2 2 2 2 2 2 2 2 2 2 2 2 2 2 2 2 2 2 2 2 2 2.5 2.5 2.5 2.5 2.5 2.5 2.5 2.5 2.5 2.5 2.5 2.5 2.5 2.5 2.5 2.5 2.5 2.5 2.5 2.5 2.5 2.5 2.5 2.5 2.5 2.5 2.5 2.5 2.5 2.5 2.5 2.5 2.5 2.5 2.5 2.5 2.5 2.5 2.49999 2.49997 2.49992 2.4998 2.49955 2.49904 2.49811 2.4966 2.49434 2.49127 2.48739 2.4828 2.47776 2.47216 2.46542 2.45722 2.4477 2.43712 2.42576 2.41386 2.40123 2.38781 2.37318 2.35806 2.34272 2.32745 2.3124 2.2974 2.28224 2.26692 2.25162 2.23629 2.2208 2.2052 2.18955 2.17374 2.15804 2.14225 2.12673 2.11123 2.09558 2.08011 2.0646 2.04901 2.03379 2.01881 2.00372 1.98895 1.97474 1.96058 1.9463 1.93221 1.9185 1.90465 1.89064 1.87729 1.86519 1.85405 1.84348 1.83323 1.8231 1.81464 1.80873 1.80258 1.79577 1.79225 1.79113 1.78883 1.7867 1.78686 1.78609 1.78426 1.78451 1.78672 1.78754 1.7876 1.78622 1.78627 1.78793 1.79053 1.79114 1.79031 1.78922 1.7898 1.79396 1.79652 1.79638 1.79369 1.79276 1.79698 1.81007 1.81565 1.81067 1.7729 1.7479 1.75505 1.95975 2.2865 2.61472 2.82432 2.88405 2.86839 2.86416 2.86287 2.85964 2.85643 2.85377 2.85188 2.85084 2.85005 2.84874 2.84708 2.84584 2.84534 2.84524 2.84542 2.84567 2.84587 2.84594 2.84591 2.84589 2.84584 2.84594 2.84734 2.8488 2.84857 2.84731 2.84654 2.83338 2.74778 2.4883 2.10668 2.01542 2.00232 2.00035 2.00005 2.00001 2 2 2 2 2 2 2 2 2 2 2 2 2 2 2 2 2 2 2 2 2 2 2 2 2 2.5 2.5 2.5 2.5 2.5 2.5 2.5 2.5 2.5 2.5 2.5 2.5 2.5 2.5 2.5 2.5 2.5 2.5 2.5 2.5 2.5 2.5 2.5 2.5 2.5 2.5 2.5 2.5 2.5 2.5 2.5 2.5 2.5 2.5 2.5 2.5 2.5 2.5 2.49999 2.49996 2.49991 2.4998 2.49958 2.49912 2.4983 2.49697 2.495 2.49231 2.48885 2.48465 2.47956 2.4731 2.4651 2.45605 2.44619 2.43559 2.42445 2.41288 2.4008 2.388 2.37399 2.35931 2.34431 2.32935 2.3142 2.2987 2.28271 2.26657 2.25077 2.23539 2.2202 2.20494 2.18956 2.17394 2.15841 2.14269 2.12712 2.11142 2.09554 2.07984 2.06412 2.04835 2.03294 2.01769 2.00231 1.98729 1.97284 1.95853 1.94431 1.93063 1.91754 1.90436 1.89107 1.87844 1.86668 1.85543 1.84443 1.83369 1.82285 1.81361 1.80719 1.80056 1.79373 1.79037 1.7893 1.78716 1.78567 1.7861 1.78529 1.78419 1.78461 1.78655 1.78739 1.78736 1.7862 1.78614 1.78785 1.79037 1.79098 1.79018 1.78916 1.78978 1.79394 1.79649 1.79632 1.79362 1.79267 1.79691 1.8101 1.8161 1.81146 1.77496 1.75162 1.75995 1.96312 2.29339 2.62159 2.82685 2.88354 2.86826 2.86439 2.8633 2.86009 2.85671 2.85407 2.85235 2.85113 2.84962 2.84777 2.84627 2.84557 2.84542 2.84547 2.84572 2.84597 2.84617 2.84636 2.84648 2.84653 2.84677 2.84714 2.84739 2.84755 2.84759 2.84774 2.84718 2.83328 2.74573 2.48541 2.10603 2.01539 2.00232 2.00035 2.00005 2.00001 2 2 2 2 2 2 2 2 2 2 2 2 2 2 2 2 2 2 2 2 2 2 2 2 2 2.5 2.5 2.5 2.5 2.5 2.5 2.5 2.5 2.5 2.5 2.5 2.5 2.5 2.5 2.5 2.5 2.5 2.5 2.5 2.5 2.5 2.5 2.5 2.5 2.5 2.5 2.5 2.5 2.5 2.5 2.5 2.5 2.5 2.5 2.5 2.5 2.5 2.5 2.49999 2.49996 2.4999 2.49979 2.49956 2.49913 2.49837 2.49715 2.49535 2.49286 2.48961 2.48543 2.47971 2.4719 2.46254 2.45253 2.442 2.43106 2.41987 2.40852 2.39682 2.38472 2.37217 2.35872 2.34425 2.32957 2.31471 2.29948 2.28382 2.268 2.25229 2.23664 2.22102 2.20539 2.18982 2.17422 2.15879 2.14318 2.12775 2.11226 2.09668 2.08138 2.06604 2.05063 2.03556 2.02064 2.00555 1.99072 1.97628 1.96176 1.94714 1.93293 1.91934 1.90593 1.89254 1.87958 1.86731 1.85553 1.84425 1.83344 1.82312 1.81465 1.80878 1.80259 1.7958 1.79233 1.79126 1.78877 1.7866 1.78687 1.78603 1.78449 1.7847 1.7867 1.78765 1.78764 1.78636 1.78629 1.78779 1.79041 1.79105 1.79027 1.78922 1.78975 1.79388 1.79649 1.79639 1.79371 1.7928 1.79672 1.80979 1.81605 1.81148 1.77385 1.74826 1.75298 1.9544 2.27952 2.60829 2.81914 2.88117 2.86836 2.86466 2.86353 2.86014 2.8566 2.85377 2.85186 2.85081 2.84992 2.84852 2.84687 2.84574 2.84533 2.84524 2.84548 2.84578 2.84599 2.84611 2.84616 2.84621 2.84625 2.84635 2.84699 2.84794 2.8485 2.8489 2.8477 2.83379 2.74598 2.48387 2.10522 2.01531 2.00232 2.00035 2.00005 2.00001 2 2 2 2 2 2 2 2 2 2 2 2 2 2 2 2 2 2 2 2 2 2 2 2 2 2.5 2.5 2.5 2.5 2.5 2.5 2.5 2.5 2.5 2.5 2.5 2.5 2.5 2.5 2.5 2.5 2.5 2.5 2.5 2.5 2.5 2.5 2.5 2.5 2.5 2.5 2.5 2.5 2.5 2.5 2.5 2.5 2.5 2.5 2.5 2.5 2.5 2.5 2.49999 2.49996 2.49991 2.49979 2.49957 2.49915 2.49843 2.49728 2.4956 2.49325 2.49012 2.48596 2.48039 2.47327 2.46498 2.45583 2.44596 2.43546 2.42437 2.4127 2.4004 2.38746 2.37377 2.35882 2.34283 2.32702 2.31181 2.2971 2.28246 2.2675 2.2521 2.23634 2.2205 2.20461 2.18876 2.17289 2.15724 2.1415 2.12605 2.11061 2.09515 2.07997 2.06474 2.04942 2.03439 2.01943 2.00427 1.98935 1.9748 1.96006 1.94519 1.93073 1.91688 1.9032 1.88953 1.87648 1.86444 1.85311 1.84213 1.83152 1.82144 1.81323 1.80745 1.80103 1.79408 1.79067 1.78961 1.78725 1.7856 1.78609 1.78521 1.78401 1.78446 1.78642 1.78739 1.78731 1.78607 1.78617 1.78779 1.79037 1.79095 1.79009 1.78909 1.78968 1.7939 1.79642 1.79626 1.79357 1.79267 1.79704 1.81026 1.81588 1.81038 1.77433 1.75173 1.75984 1.95723 2.285 2.61464 2.82355 2.88326 2.86858 2.86447 2.86316 2.8598 2.85649 2.85386 2.85203 2.85094 2.85009 2.84876 2.8471 2.84588 2.84538 2.84526 2.84546 2.84575 2.846 2.84617 2.84629 2.84638 2.84657 2.84681 2.84714 2.84741 2.84773 2.84832 2.84756 2.83346 2.74572 2.48288 2.10462 2.01522 2.00231 2.00035 2.00005 2.00001 2 2 2 2 2 2 2 2 2 2 2 2 2 2 2 2 2 2 2 2 2 2 2 2 2
				</DataArray>
				<DataArray Name="F1" type="Float32" format="ascii">
 1 1 1 1 1 1 1 1 1 1 1 1 1 1 1 1 1 1 1 1 1 1 1 1 1 1 1 1 1 1 1 1 1 1 1 1 1 1 1 1 1 1 1 1 1 1 1 1 1 1 1 1 1 1 1 1 1 1 1 1 1 1 1 1 1 1 1 1 1 1 1 1 1 1 1 1 1 1 1 1 1 1 1 1 1 1 1 1 1 1 1 1 1 1 1 1 1 1 1 1 1 1 1 1 1 1 1 1 1 1 1 1 1 1 1 1 1 1 1 1 1 1 1 1 1 1 1 1 1 1 1 1 1 1 0.950256 0.69053 0.376374 0.142743 0.0280083 0.000441679 0 0 0 0 0 0 0 0 0 0 0 0 0 0 0 0 0 0 0 0 0 0 0 0 0 0 0 0 0 0 0 0 0 0 0 0 0 0 0 0 0 0 0 0 0 0 0 0 0 0 0 0 0 0 0 0 0 0 0 0 1 1 1 1 1 1 1 1 1 1 1 1 1 1 1 1 1 1 1 1 1 1 1 1 1 1 1 1 1 1 1 1 1 1 1 1 1 1 1 1 1 1 1 1 1 1 1 1 1 1 1 1 1 1 1 1 1 1 1 1 1 1 1 1 1 1 1 1 1 1 1 1 1 1 1 1 1 1 1 1 1 1 1 1 1 1 1 1 1 1 1 1 1 1 1 1 1 1 1 1 1 1 1 1 1 1 1 1 1 1 1 1 1 1 1 1 1 1 1 1 1 1 1 1 1 1 1 1 1 1 1 1 1 1 0.940349 0.675647 0.366358 0.138598 0.0271465 0.000424583 0 0 0 0 0 0 0 0 0 0 0 0 0 0 0 0 0 0 0 0 0 0 0 0 0 0 0 0 0 0 0 0 0 0 0 0 0 0 0 0 0 0 0 0 0 0 0 0 0 0 0 0 0 0 0 0 0 0 0 0 1 1 1 1 1 1 1 1 1 1 1 1 1 1 1 1 1 1 1 1 1 1 1 1 1 1 1 1 1 1 1 1 1 1 1 1 1 1 1 1 1 1 1 1 1 1 1 1 1 1 1 1 1 1 1 1 1 1 1 1 1 1 1 1 1 1 1 1 1 1 1 1 1 1 1 1 1 1 1 1 1 1 1 1 1 1 1 1 1 1 1 1 1 1 1 1 1 1 1 1 1 1 1 1 1 1 1 1 1 1 1 1 1 1 1 1 1 1 1 1 1 1 1 1 1 1 1 1 1 1 1 1 1 1 0.947412 0.687379 0.375178 0.142842 0.028315 0.000479843 0 0 0 0 0 0 0 0 0 0 0 0 0 0 0 0 0 0 0 0 0 0 0 0 0 0 0 0 0 0 0 0 0 0 0 0 0 0 0 0 0 0 0 0 0 0 0 0 0 0 0 0 0 0 0 0 0 0 0 0 1 1 1 1 1 1 1 1 1 1 1 1 1 1 1 1 1 1 1 1 1 1 1 1 1 1 1 1 1 1 1 1 1 1 1 1 1 1 1 1 1 1 1 1 1 1 1 1 1 1 1 1 1 1 1 1 1 1 1 1 1 1 1 1 1 1 1 1 1 1 1 1 1 1 1 1 1 1 1 1 1 1 1 1 1 1 1 1 1 1 1 1 1 1 1 1 1 1 1 1 1 1 1 1 1 1 1 1 1 1 1 1 1 1 1 1 1 1 1 1 1 1 1 1 1 1 1 1 1 1 1 1 1 1 0.942865 0.680959 0.371567 0.141965 0.0284552 0.000518974 0 0 0 0 0 0 0 0 0 0 0 0 0 0 0 0 0 0 0 0 0 0 0 0 0 0 0 0 0 0 0 0 0 0 0 0 0 0 0 0 0 0 0 0 0 0 0 0 0 0 0 0 0 0 0 0 0 0 0 0 1 1 1 1 1 1 1 1 1 1 1 1 1 1 1 1 1 1 1 1 1 1 1 1 1 1 1 1 1 1 1 1 1 1 1 1 1 1 1 1 1 1 1 1 1 1 1 1 1 1 1 1 1 1 1 1 1 1 1 1 1 1 1 1 1 1 1 1 1 1 1 1 1 1 1 1 1 1 1 1 1 1 1 1 1 1 1 1 1 1 1 1 1 1 1 1 1 1 1 1 1 1 1 1 1 1 1 1 1 1 1 1 1 1 1 1 1 1 1 1 1 1 1 1 1 1 1 1 1 1 1 1 1 1 0.950776 0.692889 0.379578 0.145214 0.0290821 0.000525684 0 0 0 0 0 0 0 0 0 0 0 0 0 0 0 0 0 0 0 0 0 0 0 0 0 0 0 0 0 0 0 0 0 0 0 0 0 0 0 0 0 0 0 0 0 0 0 0 0 0 0 0 0 0 0 0 0 0 0 0
				</DataArray>
				<DataArray Name="F2" type="Float32" format="ascii">
 0 0 0 0 0 0 0 0 0 0 0 0 0 0 0 0 0 0 0 0 0 0 0 0 0 0 0 0 0 0 0 0 0 0 0 0 0 0 0 0 0 0 0 0 0 0 0 0 0 0 0 0 0 0 0 0 0 0 0 0 0 0 0 0 0 0 0 0 0 0 0 0 0 0 0 0 0 0 0 0 0 0 0 0 0 0 0 0 0 0 0 0 0 0 0 0 0 0 0 0 0 0 0 0 0 0 0 0 0 0 0 0 0 0 0 0 0 0 0 0 0 0 0 0 0 0 0 0 0 0 0 0 0 0 0.0497442 0.30947 0.623626 0.857257 0.971992 0.999558 1 1 1 1 1 1 1 1 1 1 1 1 1 1 1 1 1 1 1 1 1 1 1 1 1 1 1 1 1 1 1 1 1 1 1 1 1 1 1 1 1 1 1 1 1 1 1 1 1 1 1 1 1 1 1 1 1 1 1 1 0 0 0 0 0 0 0 0 0 0 0 0 0 0 0 0 0 0 0 0 0 0 0 0 0 0 0 0 0 0 0 0 0 0 0 0 0 0 0 0 0 0 0 0 0 0 0 0 0 0 0 0 0 0 0 0 0 0 0 0 0 0 0 0 0 0 0 0 0 0 0 0 0 0 0 0 0 0 0 0 0 0 0 0 0 0 0 0 0 0 0 0 0 0 0 0 0 0 0 0 0 0 0 0 0 0 0 0 0 0 0 0 0 0 0 0 0 0 0 0 0 0 0 0 0 0 0 0 0 0 0 0 0 0 0.0596512 0.324353 0.633642 0.861402 0.972853 0.999575 1 1 1 1 1 1 1 1 1 1 1 1 1 1 1 1 1 1 1 1 1 1 1 1 1 1 1 1 1 1 1 1 1 1 1 1 1 1 1 1 1 1 1 1 1 1 1 1 1 1 1 1 1 1 1 1 1 1 1 1 0 0 0 0 0 0 0 0 0 0 0 0 0 0 0 0 0 0 0 0 0 0 0 0 0 0 0 0 0 0 0 0 0 0 0 0 0 0 0 0 0 0 0 0 0 0 0 0 0 0 0 0 0 0 0 0 0 0 0 0 0 0 0 0 0 0 0 0 0 0 0 0 0 0 0 0 0 0 0 0 0 0 0 0 0 0 0 0 0 0 0 0 0 0 0 0 0 0 0 0 0 0 0 0 0 0 0 0 0 0 0 0 0 0 0 0 0 0 0 0 0 0 0 0 0 0 0 0 0 0 0 0 0 0 0.0525877 0.312621 0.624822 0.857158 0.971685 0.99952 1 1 1 1 1 1 1 1 1 1 1 1 1 1 1 1 1 1 1 1 1 1 1 1 1 1 1 1 1 1 1 1 1 1 1 1 1 1 1 1 1 1 1 1 1 1 1 1 1 1 1 1 1 1 1 1 1 1 1 1 0 0 0 0 0 0 0 0 0 0 0 0 0 0 0 0 0 0 0 0 0 0 0 0 0 0 0 0 0 0 0 0 0 0 0 0 0 0 0 0 0 0 0 0 0 0 0 0 0 0 0 0 0 0 0 0 0 0 0 0 0 0 0 0 0 0 0 0 0 0 0 0 0 0 0 0 0 0 0 0 0 0 0 0 0 0 0 0 0 0 0 0 0 0 0 0 0 0 0 0 0 0 0 0 0 0 0 0 0 0 0 0 0 0 0 0 0 0 0 0 0 0 0 0 0 0 0 0 0 0 0 0 0 0 0.0571353 0.319041 0.628433 0.858035 0.971545 0.999481 1 1 1 1 1 1 1 1 1 1 1 1 1 1 1 1 1 1 1 1 1 1 1 1 1 1 1 1 1 1 1 1 1 1 1 1 1 1 1 1 1 1 1 1 1 1 1 1 1 1 1 1 1 1 1 1 1 1 1 1 0 0 0 0 0 0 0 0 0 0 0 0 0 0 0 0 0 0 0 0 0 0 0 0 0 0 0 0 0 0 0 0 0 0 0 0 0 0 0 0 0 0 0 0 0 0 0 0 0 0 0 0 0 0 0 0 0 0 0 0 0 0 0 0 0 0 0 0 0 0 0 0 0 0 0 0 0 0 0 0 0 0 0 0 0 0 0 0 0 0 0 0 0 0 0 0 0 0 0 0 0 0 0 0 0 0 0 0 0 0 0 0 0 0 0 0 0 0 0 0 0 0 0 0 0 0 0 0 0 0 0 0 0 0 0.0492235 0.307111 0.620422 0.854786 0.970918 0.999474 1 1 1 1 1 1 1 1 1 1 1 1 1 1 1 1 1 1 1 1 1 1 1 1 1 1 1 1 1 1 1 1 1 1 1 1 1 1 1 1 1 1 1 1 1 1 1 1 1 1 1 1 1 1 1 1 1 1 1 1
				</DataArray>
				<DataArray Name="F3" type="Float32" format="ascii">