<?xml version="1.0"?>
<VTKFile type="PolyData">
	<PolyData>
		<Piece NumberOfPoints="1206" NumberOfPolys="1000">
			<Points>
				<DataArray type="Float32" NumberOfComponents="3" format="ascii">
 0 0 0 0.005 0 0 0.01 0 0 0.015 0 0 0.02 0 0 0.025 0 0 0.03 0 0 0.035 0 0 0.04 0 0 0.045 0 0 0.05 0 0 0.055 0 0 0.06 0 0 0.065 0 0 0.07 0 0 0.075 0 0 0.08 0 0 0.085 0 0 0.09 0 0 0.095 0 0 0.1 0 0 0.105 0 0 0.11 0 0 0.115 0 0 0.12 0 0 0.125 0 0 0.13 0 0 0.135 0 0 0.14 0 0 0.145 0 0 0.15 0 0 0.155 0 0 0.16 0 0 0.165 0 0 0.17 0 0 0.175 0 0 0.18 0 0 0.185 0 0 0.19 0 0 0.195 0 0 0.2 0 0 0.205 0 0 0.21 0 0 0.215 0 0 0.22 0 0 0.225 0 0 0.23 0 0 0.235 0 0 0.24 0 0 0.245 0 0 0.25 0 0 0.255 0 0 0.26 0 0 0.265 0 0 0.27 0 0 0.275 0 0 0.28 0 0 0.285 0 0 0.29 0 0 0.295 0 0 0.3 0 0 0.305 0 0 0.31 0 0 0.315 0 0 0.32 0 0 0.325 0 0 0.33 0 0 0.335 0 0 0.34 0 0 0.345 0 0 0.35 0 0 0.355 0 0 0.36 0 0 0.365 0 0 0.37 0 0 0.375 0 0 0.38 0 0 0.385 0 0 0.39 0 0 0.395 0 0 0.4 0 0 0.405 0 0 0.41 0 0 0.415 0 0 0.42 0 0 0.425 0 0 0.43 0 0 0.435 0 0 0.44 0 0 0.445 0 0 0.45 0 0 0.455 0 0 0.46 0 0 0.465 0 0 0.47 0 0 0.475 0 0 0.48 0 0 0.485 0 0 0.49 0 0 0.495 0 0 0.5 0 0 0.505 0 0 0.51 0 0 0.515 0 0 0.52 0 0 0.525 0 0 0.53 0 0 0.535 0 0 0.54 0 0 0.545 0 0 0.55 0 0 0.555 0 0 0.56 0 0 0.565 0 0 0.57 0 0 0.575 0 0 0.58 0 0 0.585 0 0 0.59 0 0 0.595 0 0 0.6 0 0 0.605 0 0 0.61 0 0 0.615 0 0 0.62 0 0 0.625 0 0 0.63 0 0 0.635 0 0 0.64 0 0 0.645 0 0 0.65 0 0 0.655 0 0 0.66 0 0 0.665 0 0 0.67 0 0 0.675 0 0 0.68 0 0 0.685 0 0 0.69 0 0 0.695 0 0 0.7 0 0 0.705 0 0 0.71 0 0 0.715 0 0 0.72 0 0 0.725 0 0 0.73 0 0 0.735 0 0 0.74 0 0 0.745 0 0 0.75 0 0 0.755 0 0 0.76 0 0 0.765 0 0 0.77 0 0 0.775 0 0 0.78 0 0 0.785 0 0 0.79 0 0 0.795 0 0 0.8 0 0 0.805 0 0 0.81 0 0 0.815 0 0 0.82 0 0 0.825 0 0 0.83 0 0 0.835 0 0 0.84 0 0 0.845 0 0 0.85 0 0 0.855 0 0 0.86 0 0 0.865 0 0 0.87 0 0 0.875 0 0 0.88 0 0 0.885 0 0 0.89 0 0 0.895 0 0 0.9 0 0 0.905 0 0 0.91 0 0 0.915 0 0 0.92 0 0 0.925 0 0 0.93 0 0 0.935 0 0 0.94 0 0 0.945 0 0 0.95 0 0 0.955 0 0 0.96 0 0 0.965 0 0 0.97 0 0 0.975 0 0 0.98 0 0 0.985 0 0 0.99 0 0 0.995 0 0 1 0 0 0 0.02 0 0.005 0.02 0 0.01 0.02 0 0.015 0.02 0 0.02 0.02 0 0.025 0.02 0 0.03 0.02 0 0.035 0.02 0 0.04 0.02 0 0.045 0.02 0 0.05 0.02 0 0.055 0.02 0 0.06 0.02 0 0.065 0.02 0 0.07 0.02 0 0.075 0.02 0 0.08 0.02 0 0.085 0.02 0 0.09 0.02 0 0.095 0.02 0 0.1 0.02 0 0.105 0.02 0 0.11 0.02 0 0.115 0.02 0 0.12 0.02 0 0.125 0.02 0 0.13 0.02 0 0.135 0.02 0 0.14 0.02 0 0.145 0.02 0 0.15 0.02 0 0.155 0.02 0 0.16 0.02 0 0.165 0.02 0 0.17 0.02 0 0.175 0.02 0 0.18 0.02 0 0.185 0.02 0 0.19 0.02 0 0.195 0.02 0 0.2 0.02 0 0.205 0.02 0 0.21 0.02 0 0.215 0.02 0 0.22 0.02 0 0.225 0.02 0 0.23 0.02 0 0.235 0.02 0 0.24 0.02 0 0.245 0.02 0 0.25 0.02 0 0.255 0.02 0 0.26 0.02 0 0.265 0.02 0 0.27 0.02 0 0.275 0.02 0 0.28 0.02 0 0.285 0.02 0 0.29 0.02 0 0.295 0.02 0 0.3 0.02 0 0.305 0.02 0 0.31 0.02 0 0.315 0.02 0 0.32 0.02 0 0.325 0.02 0 0.33 0.02 0 0.335 0.02 0 0.34 0.02 0 0.345 0.02 0 0.35 0.02 0 0.355 0.02 0 0.36 0.02 0 0.365 0.02 0 0.37 0.02 0 0.375 0.02 0 0.38 0.02 0 0.385 0.02 0 0.39 0.02 0 0.395 0.02 0 0.4 0.02 0 0.405 0.02 0 0.41 0.02 0 0.415 0.02 0 0.42 0.02 0 0.425 0.02 0 0.43 0.02 0 0.435 0.02 0 0.44 0.02 0 0.445 0.02 0 0.45 0.02 0 0.455 0.02 0 0.46 0.02 0 0.465 0.02 0 0.47 0.02 0 0.475 0.02 0 0.48 0.02 0 0.485 0.02 0 0.49 0.02 0 0.495 0.02 0 0.5 0.02 0 0.505 0.02 0 0.51 0.02 0 0.515 0.02 0 0.52 0.02 0 0.525 0.02 0 0.53 0.02 0 0.535 0.02 0 0.54 0.02 0 0.545 0.02 0 0.55 0.02 0 0.555 0.02 0 0.56 0.02 0 0.565 0.02 0 0.57 0.02 0 0.575 0.02 0 0.58 0.02 0 0.585 0.02 0 0.59 0.02 0 0.595 0.02 0 0.6 0.02 0 0.605 0.02 0 0.61 0.02 0 0.615 0.02 0 0.62 0.02 0 0.625 0.02 0 0.63 0.02 0 0.635 0.02 0 0.64 0.02 0 0.645 0.02 0 0.65 0.02 0 0.655 0.02 0 0.66 0.02 0 0.665 0.02 0 0.67 0.02 0 0.675 0.02 0 0.68 0.02 0 0.685 0.02 0 0.69 0.02 0 0.695 0.02 0 0.7 0.02 0 0.705 0.02 0 0.71 0.02 0 0.715 0.02 0 0.72 0.02 0 0.725 0.02 0 0.73 0.02 0 0.735 0.02 0 0.74 0.02 0 0.745 0.02 0 0.75 0.02 0 0.755 0.02 0 0.76 0.02 0 0.765 0.02 0 0.77 0.02 0 0.775 0.02 0 0.78 0.02 0 0.785 0.02 0 0.79 0.02 0 0.795 0.02 0 0.8 0.02 0 0.805 0.02 0 0.81 0.02 0 0.815 0.02 0 0.82 0.02 0 0.825 0.02 0 0.83 0.02 0 0.835 0.02 0 0.84 0.02 0 0.845 0.02 0 0.85 0.02 0 0.855 0.02 0 0.86 0.02 0 0.865 0.02 0 0.87 0.02 0 0.875 0.02 0 0.88 0.02 0 0.885 0.02 0 0.89 0.02 0 0.895 0.02 0 0.9 0.02 0 0.905 0.02 0 0.91 0.02 0 0.915 0.02 0 0.92 0.02 0 0.925 0.02 0 0.93 0.02 0 0.935 0.02 0 0.94 0.02 0 0.945 0.02 0 0.95 0.02 0 0.955 0.02 0 0.96 0.02 0 0.965 0.02 0 0.97 0.02 0 0.975 0.02 0 0.98 0.02 0 0.985 0.02 0 0.99 0.02 0 0.995 0.02 0 1 0.02 0 0 0.04 0 0.005 0.04 0 0.01 0.04 0 0.015 0.04 0 0.02 0.04 0 0.025 0.04 0 0.03 0.04 0 0.035 0.04 0 0.04 0.04 0 0.045 0.04 0 0.05 0.04 0 0.055 0.04 0 0.06 0.04 0 0.065 0.04 0 0.07 0.04 0 0.075 0.04 0 0.08 0.04 0 0.085 0.04 0 0.09 0.04 0 0.095 0.04 0 0.1 0.04 0 0.105 0.04 0 0.11 0.04 0 0.115 0.04 0 0.12 0.04 0 0.125 0.04 0 0.13 0.04 0 0.135 0.04 0 0.14 0.04 0 0.145 0.04 0 0.15 0.04 0 0.155 0.04 0 0.16 0.04 0 0.165 0.04 0 0.17 0.04 0 0.175 0.04 0 0.18 0.04 0 0.185 0.04 0 0.19 0.04 0 0.195 0.04 0 0.2 0.04 0 0.205 0.04 0 0.21 0.04 0 0.215 0.04 0 0.22 0.04 0 0.225 0.04 0 0.23 0.04 0 0.235 0.04 0 0.24 0.04 0 0.245 0.04 0 0.25 0.04 0 0.255 0.04 0 0.26 0.04 0 0.265 0.04 0 0.27 0.04 0 0.275 0.04 0 0.28 0.04 0 0.285 0.04 0 0.29 0.04 0 0.295 0.04 0 0.3 0.04 0 0.305 0.04 0 0.31 0.04 0 0.315 0.04 0 0.32 0.04 0 0.325 0.04 0 0.33 0.04 0 0.335 0.04 0 0.34 0.04 0 0.345 0.04 0 0.35 0.04 0 0.355 0.04 0 0.36 0.04 0 0.365 0.04 0 0.37 0.04 0 0.375 0.04 0 0.38 0.04 0 0.385 0.04 0 0.39 0.04 0 0.395 0.04 0 0.4 0.04 0 0.405 0.04 0 0.41 0.04 0 0.415 0.04 0 0.42 0.04 0 0.425 0.04 0 0.43 0.04 0 0.435 0.04 0 0.44 0.04 0 0.445 0.04 0 0.45 0.04 0 0.455 0.04 0 0.46 0.04 0 0.465 0.04 0 0.47 0.04 0 0.475 0.04 0 0.48 0.04 0 0.485 0.04 0 0.49 0.04 0 0.495 0.04 0 0.5 0.04 0 0.505 0.04 0 0.51 0.04 0 0.515 0.04 0 0.52 0.04 0 0.525 0.04 0 0.53 0.04 0 0.535 0.04 0 0.54 0.04 0 0.545 0.04 0 0.55 0.04 0 0.555 0.04 0 0.56 0.04 0 0.565 0.04 0 0.57 0.04 0 0.575 0.04 0 0.58 0.04 0 0.585 0.04 0 0.59 0.04 0 0.595 0.04 0 0.6 0.04 0 0.605 0.04 0 0.61 0.04 0 0.615 0.04 0 0.62 0.04 0 0.625 0.04 0 0.63 0.04 0 0.635 0.04 0 0.64 0.04 0 0.645 0.04 0 0.65 0.04 0 0.655 0.04 0 0.66 0.04 0 0.665 0.04 0 0.67 0.04 0 0.675 0.04 0 0.68 0.04 0 0.685 0.04 0 0.69 0.04 0 0.695 0.04 0 0.7 0.04 0 0.705 0.04 0 0.71 0.04 0 0.715 0.04 0 0.72 0.04 0 0.725 0.04 0 0.73 0.04 0 0.735 0.04 0 0.74 0.04 0 0.745 0.04 0 0.75 0.04 0 0.755 0.04 0 0.76 0.04 0 0.765 0.04 0 0.77 0.04 0 0.775 0.04 0 0.78 0.04 0 0.785 0.04 0 0.79 0.04 0 0.795 0.04 0 0.8 0.04 0 0.805 0.04 0 0.81 0.04 0 0.815 0.04 0 0.82 0.04 0 0.825 0.04 0 0.83 0.04 0 0.835 0.04 0 0.84 0.04 0 0.845 0.04 0 0.85 0.04 0 0.855 0.04 0 0.86 0.04 0 0.865 0.04 0 0.87 0.04 0 0.875 0.04 0 0.88 0.04 0 0.885 0.04 0 0.89 0.04 0 0.895 0.04 0 0.9 0.04 0 0.905 0.04 0 0.91 0.04 0 0.915 0.04 0 0.92 0.04 0 0.925 0.04 0 0.93 0.04 0 0.935 0.04 0 0.94 0.04 0 0.945 0.04 0 0.95 0.04 0 0.955 0.04 0 0.96 0.04 0 0.965 0.04 0 0.97 0.04 0 0.975 0.04 0 0.98 0.04 0 0.985 0.04 0 0.99 0.04 0 0.995 0.04 0 1 0.04 0 0 0.06 0 0.005 0.06 0 0.01 0.06 0 0.015 0.06 0 0.02 0.06 0 0.025 0.06 0 0.03 0.06 0 0.035 0.06 0 0.04 0.06 0 0.045 0.06 0 0.05 0.06 0 0.055 0.06 0 0.06 0.06 0 0.065 0.06 0 0.07 0.06 0 0.075 0.06 0 0.08 0.06 0 0.085 0.06 0 0.09 0.06 0 0.095 0.06 0 0.1 0.06 0 0.105 0.06 0 0.11 0.06 0 0.115 0.06 0 0.12 0.06 0 0.125 0.06 0 0.13 0.06 0 0.135 0.06 0 0.14 0.06 0 0.145 0.06 0 0.15 0.06 0 0.155 0.06 0 0.16 0.06 0 0.165 0.06 0 0.17 0.06 0 0.175 0.06 0 0.18 0.06 0 0.185 0.06 0 0.19 0.06 0 0.195 0.06 0 0.2 0.06 0 0.205 0.06 0 0.21 0.06 0 0.215 0.06 0 0.22 0.06 0 0.225 0.06 0 0.23 0.06 0 0.235 0.06 0 0.24 0.06 0 0.245 0.06 0 0.25 0.06 0 0.255 0.06 0 0.26 0.06 0 0.265 0.06 0 0.27 0.06 0 0.275 0.06 0 0.28 0.06 0 0.285 0.06 0 0.29 0.06 0 0.295 0.06 0 0.3 0.06 0 0.305 0.06 0 0.31 0.06 0 0.315 0.06 0 0.32 0.06 0 0.325 0.06 0 0.33 0.06 0 0.335 0.06 0 0.34 0.06 0 0.345 0.06 0 0.35 0.06 0 0.355 0.06 0 0.36 0.06 0 0.365 0.06 0 0.37 0.06 0 0.375 0.06 0 0.38 0.06 0 0.385 0.06 0 0.39 0.06 0 0.395 0.06 0 0.4 0.06 0 0.405 0.06 0 0.41 0.06 0 0.415 0.06 0 0.42 0.06 0 0.425 0.06 0 0.43 0.06 0 0.435 0.06 0 0.44 0.06 0 0.445 0.06 0 0.45 0.06 0 0.455 0.06 0 0.46 0.06 0 0.465 0.06 0 0.47 0.06 0 0.475 0.06 0 0.48 0.06 0 0.485 0.06 0 0.49 0.06 0 0.495 0.06 0 0.5 0.06 0 0.505 0.06 0 0.51 0.06 0 0.515 0.06 0 0.52 0.06 0 0.525 0.06 0 0.53 0.06 0 0.535 0.06 0 0.54 0.06 0 0.545 0.06 0 0.55 0.06 0 0.555 0.06 0 0.56 0.06 0 0.565 0.06 0 0.57 0.06 0 0.575 0.06 0 0.58 0.06 0 0.585 0.06 0 0.59 0.06 0 0.595 0.06 0 0.6 0.06 0 0.605 0.06 0 0.61 0.06 0 0.615 0.06 0 0.62 0.06 0 0.625 0.06 0 0.63 0.06 0 0.635 0.06 0 0.64 0.06 0 0.645 0.06 0 0.65 0.06 0 0.655 0.06 0 0.66 0.06 0 0.665 0.06 0 0.67 0.06 0 0.675 0.06 0 0.68 0.06 0 0.685 0.06 0 0.69 0.06 0 0.695 0.06 0 0.7 0.06 0 0.705 0.06 0 0.71 0.06 0 0.715 0.06 0 0.72 0.06 0 0.725 0.06 0 0.73 0.06 0 0.735 0.06 0 0.74 0.06 0 0.745 0.06 0 0.75 0.06 0 0.755 0.06 0 0.76 0.06 0 0.765 0.06 0 0.77 0.06 0 0.775 0.06 0 0.78 0.06 0 0.785 0.06 0 0.79 0.06 0 0.795 0.06 0 0.8 0.06 0 0.805 0.06 0 0.81 0.06 0 0.815 0.06 0 0.82 0.06 0 0.825 0.06 0 0.83 0.06 0 0.835 0.06 0 0.84 0.06 0 0.845 0.06 0 0.85 0.06 0 0.855 0.06 0 0.86 0.06 0 0.865 0.06 0 0.87 0.06 0 0.875 0.06 0 0.88 0.06 0 0.885 0.06 0 0.89 0.06 0 0.895 0.06 0 0.9 0.06 0 0.905 0.06 0 0.91 0.06 0 0.915 0.06 0 0.92 0.06 0 0.925 0.06 0 0.93 0.06 0 0.935 0.06 0 0.94 0.06 0 0.945 0.06 0 0.95 0.06 0 0.955 0.06 0 0.96 0.06 0 0.965 0.06 0 0.97 0.06 0 0.975 0.06 0 0.98 0.06 0 0.985 0.06 0 0.99 0.06 0 0.995 0.06 0 1 0.06 0 0 0.08 0 0.005 0.08 0 0.01 0.08 0 0.015 0.08 0 0.02 0.08 0 0.025 0.08 0 0.03 0.08 0 0.035 0.08 0 0.04 0.08 0 0.045 0.08 0 0.05 0.08 0 0.055 0.08 0 0.06 0.08 0 0.065 0.08 0 0.07 0.08 0 0.075 0.08 0 0.08 0.08 0 0.085 0.08 0 0.09 0.08 0 0.095 0.08 0 0.1 0.08 0 0.105 0.08 0 0.11 0.08 0 0.115 0.08 0 0.12 0.08 0 0.125 0.08 0 0.13 0.08 0 0.135 0.08 0 0.14 0.08 0 0.145 0.08 0 0.15 0.08 0 0.155 0.08 0 0.16 0.08 0 0.165 0.08 0
[...]
			<CellData Scalars="Density">
				<DataArray Name="Density" type="Float32" format="ascii">
 1 1 1 1 1 1 1 1 1 1 1 1 1 1 1 1 1 1 1 1 1 1 1 1 1 1 1 1 1 1 1 1 1 1 1 1 0.999999 0.999997 0.999992 0.99998 0.999949 0.999872 0.999702 0.999359 0.998726 0.997652 0.995966 0.993492 0.990074 0.985597 0.979998 0.973268 0.965443 0.956601 0.946843 0.936278 0.925028 0.913198 0.900901 0.888223 0.875253 0.862062 0.848706 0.835256 0.821729 0.808198 0.794658 0.781173 0.767738 0.754387 0.741137 0.72799 0.714977 0.702096 0.689346 0.676775 0.664337 0.652061 0.640005 0.628051 0.616318 0.604806 0.593427 0.582236 0.571333 0.560614 0.550038 0.539745 0.529772 0.520019 0.510452 0.501221 0.49244 0.483994 0.475854 0.468123 0.460947 0.4544 0.448549 0.443195 0.438193 0.434238 0.431513 0.42899 0.426749 0.42553 0.424673 0.423864 0.423786 0.423791 0.423589 0.423172 0.423046 0.423158 0.423546 0.423628 0.423312 0.422755 0.422676 0.422921 0.423224 0.423116 0.422141 0.421517 0.421533 0.422164 0.422402 0.421548 0.418555 0.417246 0.418455 0.42707 0.433056 0.431324 0.386689 0.334138 0.292248 0.269437 0.263013 0.264195 0.26438 0.264467 0.264819 0.265144 0.26536 0.265516 0.265665 0.265834 0.26601 0.266144 0.26621 0.266224 0.266214 0.266172 0.266122 0.266082 0.266054 0.266032 0.266027 0.266026 0.265996 0.265881 0.265817 0.265832 0.26595 0.265833 0.26332 0.245973 0.199157 0.141103 0.127507 0.125379 0.125057 0.125009 0.125001 0.125 0.125 0.125 0.125 0.125 0.125 0.125 0.125 0.125 0.125 0.125 0.125 0.125 0.125 0.125 0.125 0.125 0.125 0.125 0.125 0.125 0.125 0.125 0.125 0.125 1 1 1 1 1 1 1 1 1 1 1 1 1 1 1 1 1 1 1 1 1 1 1 1 1 1 1 1 1 1 1 1 1 1 1 1 0.999999 0.999997 0.999992 0.99998 0.999949 0.999872 0.999702 0.999359 0.998726 0.997652 0.995966 0.993492 0.990074 0.985597 0.979998 0.973268 0.965443 0.956601 0.946843 0.936278 0.925028 0.913198 0.900901 0.888223 0.875253 0.862062 0.848706 0.835256 0.821729 0.808198 0.794658 0.781173 0.767738 0.754387 0.741137 0.72799 0.714977 0.702096 0.689346 0.676775 0.664337 0.652061 0.640005 0.628051 0.616318 0.604806 0.593427 0.582236 0.571333 0.560614 0.550038 0.539745 0.529772 0.520019 0.510452 0.501221 0.49244 0.483994 0.475854 0.468123 0.460947 0.4544 0.448549 0.443195 0.438193 0.434238 0.431513 0.42899 0.426749 0.42553 0.424673 0.423864 0.423786 0.423791 0.423589 0.423172 0.423046 0.423158 0.423546 0.423628 0.423312 0.422755 0.422676 0.422921 0.423224 0.423116 0.422141 0.421517 0.421533 0.422164 0.422402 0.421548 0.418555 0.417246 0.418455 0.42707 0.433056 0.431324 0.386689 0.334138 0.292248 0.269437 0.263013 0.264195 0.26438 0.264467 0.264819 0.265144 0.26536 0.265516 0.265665 0.265834 0.26601 0.266144 0.26621 0.266224 0.266214 0.266172 0.266122 0.266082 0.266054 0.266032 0.266027 0.266026 0.265996 0.265881 0.265817 0.265832 0.26595 0.265833 0.26332 0.245973 0.199157 0.141103 0.127507 0.125379 0.125057 0.125009 0.125001 0.125 0.125 0.125 0.125 0.125 0.125 0.125 0.125 0.125 0.125 0.125 0.125 0.125 0.125 0.125 0.125 0.125 0.125 0.125 0.125 0.125 0.125 0.125 0.125 0.125 1 1 1 1 1 1 1 1 1 1 1 1 1 1 1 1 1 1 1 1 1 1 1 1 1 1 1 1 1 1 1 1 1 1 1 1 0.999999 0.999997 0.999992 0.99998 0.999949 0.999872 0.999702 0.999359 0.998726 0.997652 0.995966 0.993492 0.990074 0.985597 0.979998 0.973268 0.965443 0.956601 0.946843 0.936278 0.925028 0.913198 0.900901 0.888223 0.875253 0.862062 0.848706 0.835256 0.821729 0.808198 0.794658 0.781173 0.767738 0.754387 0.741137 0.72799 0.714977 0.702096 0.689346 0.676775 0.664337 0.652061 0.640005 0.628051 0.616318 0.604806 0.593427 0.582236 0.571333 0.560614 0.550038 0.539745 0.529772 0.520019 0.510452 0.501221 0.49244 0.483994 0.475854 0.468123 0.460947 0.4544 0.448549 0.443195 0.438193 0.434238 0.431513 0.42899 0.426749 0.42553 0.424673 0.423864 0.423786 0.423791 0.423589 0.423172 0.423046 0.423158 0.423546 0.423628 0.423312 0.422755 0.422676 0.422921 0.423224 0.423116 0.422141 0.421517 0.421533 0.422164 0.422402 0.421548 0.418555 0.417246 0.418455 0.42707 0.433056 0.431324 0.386689 0.334138 0.292248 0.269437 0.263013 0.264195 0.26438 0.264467 0.264819 0.265144 0.26536 0.265516 0.265665 0.265834 0.26601 0.266144 0.26621 0.266224 0.266214 0.266172 0.266122 0.266082 0.266054 0.266032 0.266027 0.266026 0.265996 0.265881 0.265817 0.265832 0.26595 0.265833 0.26332 0.245973 0.199157 0.141103 0.127507 0.125379 0.125057 0.125009 0.125001 0.125 0.125 0.125 0.125 0.125 0.125 0.125 0.125 0.125 0.125 0.125 0.125 0.125 0.125 0.125 0.125 0.125 0.125 0.125 0.125 0.125 0.125 0.125 0.125 0.125 1 1 1 1 1 1 1 1 1 1 1 1 1 1 1 1 1 1 1 1 1 1 1 1 1 1 1 1 1 1 1 1 1 1 1 1 0.999999 0.999997 0.999992 0.99998 0.999949 0.999872 0.999702 0.999359 0.998726 0.997652 0.995966 0.993492 0.990074 0.985597 0.979998 0.973268 0.965443 0.956601 0.946843 0.936278 0.925028 0.913198 0.900901 0.888223 0.875253 0.862062 0.848706 0.835256 0.821729 0.808198 0.794658 0.781173 0.767738 0.754387 0.741137 0.72799 0.714977 0.702096 0.689346 0.676775 0.664337 0.652061 0.640005 0.628051 0.616318 0.604806 0.593427 0.582236 0.571333 0.560614 0.550038 0.539745 0.529772 0.520019 0.510452 0.501221 0.49244 0.483994 0.475854 0.468123 0.460947 0.4544 0.448549 0.443195 0.438193 0.434238 0.431513 0.42899 0.426749 0.42553 0.424673 0.423864 0.423786 0.423791 0.423589 0.423172 0.423046 0.423158 0.423546 0.423628 0.423312 0.422755 0.422676 0.422921 0.423224 0.423116 0.422141 0.421517 0.421533 0.422164 0.422402 0.421548 0.418555 0.417246 0.418455 0.42707 0.433056 0.431324 0.386689 0.334138 0.292248 0.269437 0.263013 0.264195 0.26438 0.264467 0.264819 0.265144 0.26536 0.265516 0.265665 0.265834 0.26601 0.266144 0.26621 0.266224 0.266214 0.266172 0.266122 0.266082 0.266054 0.266032 0.266027 0.266026 0.265996 0.265881 0.265817 0.265832 0.26595 0.265833 0.26332 0.245973 0.199157 0.141103 0.127507 0.125379 0.125057 0.125009 0.125001 0.125 0.125 0.125 0.125 0.125 0.125 0.125 0.125 0.125 0.125 0.125 0.125 0.125 0.125 0.125 0.125 0.125 0.125 0.125 0.125 0.125 0.125 0.125 0.125 0.125 1 1 1 1 1 1 1 1 1 1 1 1 1 1 1 1 1 1 1 1 1 1 1 1 1 1 1 1 1 1 1 1 1 1 1 1 0.999999 0.999997 0.999992 0.99998 0.999949 0.999872 0.999702 0.999359 0.998726 0.997652 0.995966 0.993492 0.990074 0.985597 0.979998 0.973268 0.965443 0.956601 0.946843 0.936278 0.925028 0.913198 0.900901 0.888223 0.875253 0.862062 0.848706 0.835256 0.821729 0.808198 0.794658 0.781173 0.767738 0.754387 0.741137 0.72799 0.714977 0.702096 0.689346 0.676775 0.664337 0.652061 0.640005 0.628051 0.616318 0.604806 0.593427 0.582236 0.571333 0.560614 0.550038 0.539745 0.529772 0.520019 0.510452 0.501221 0.49244 0.483994 0.475854 0.468123 0.460947 0.4544 0.448549 0.443195 0.438193 0.434238 0.431513 0.42899 0.426749 0.42553 0.424673 0.423864 0.423786 0.423791 0.423589 0.423172 0.423046 0.423158 0.423546 0.423628 0.423312 0.422755 0.422676 0.422921 0.423224 0.423116 0.422141 0.421517 0.421533 0.422164 0.422402 0.421548 0.418555 0.417246 0.418455 0.42707 0.433056 0.431324 0.386689 0.334138 0.292248 0.269437 0.263013 0.264195 0.26438 0.264467 0.264819 0.265144 0.26536 0.265516 0.265665 0.265834 0.26601 0.266144 0.26621 0.266224 0.266214 0.266172 0.266122 0.266082 0.266054 0.266032 0.266027 0.266026 0.265996 0.265881 0.265817 0.265832 0.26595 0.265833 0.26332 0.245973 0.199157 0.141103 0.127507 0.125379 0.125057 0.125009 0.125001 0.125 0.125 0.125 0.125 0.125 0.125 0.125 0.125 0.125 0.125 0.125 0.125 0.125 0.125 0.125 0.125 0.125 0.125 0.125 0.125 0.125 0.125 0.125 0.125 0.125
				</DataArray>
				<DataArray Name="Energy" type="Float32" format="ascii">
 2.5 2.5 2.5 2.5 2.5 2.5 2.5 2.5 2.5 2.5 2.5 2.5 2.5 2.5 2.5 2.5 2.5 2.5 2.5 2.5 2.5 2.5 2.5 2.5 2.5 2.5 2.5 2.5 2.5 2.5 2.5 2.5 2.5 2.5 2.5 2.5 2.5 2.5 2.49999 2.49998 2.49995 2.49987 2.4997 2.49936 2.49873 2.49765 2.49596 2.49348 2.49006 2.48556 2.47992 2.47312 2.46518 2.45617 2.44618 2.4353 2.42363 2.41128 2.39835 2.38491 2.37104 2.35682 2.34229 2.32753 2.31254 2.2974 2.28211 2.26672 2.25124 2.23569 2.22011 2.20447 2.18887 2.17316 2.15763 2.1419 2.12641 2.11086 2.09528 2.07993 2.06458 2.04915 2.03402 2.01904 2.00387 1.98894 1.97443 1.95993 1.94534 1.93112 1.91751 1.90409 1.89057 1.87754 1.86539 1.85393 1.84294 1.83239 1.82229 1.81389 1.80799 1.80178 1.79487 1.79106 1.78967 1.78741 1.7857 1.7861 1.78507 1.78399 1.78447 1.78641 1.78736 1.78734 1.78608 1.78607 1.78776 1.79035 1.79091 1.79009 1.78897 1.78949 1.79373 1.79637 1.79627 1.79363 1.79268 1.79642 1.80938 1.81524 1.81007 1.7736 1.74956 1.75446 1.94757 2.26468 2.59255 2.80956 2.8783 2.86807 2.86447 2.86328 2.85963 2.85623 2.854 2.85242 2.85093 2.84921 2.8474 2.846 2.84527 2.84507 2.84506 2.84532 2.8456 2.84576 2.8458 2.84587 2.84591 2.84597 2.84644 2.84781 2.84862 2.84845 2.8475 2.84626 2.83504 2.74853 2.49755 2.11121 2.01609 2.00243 2.00037 2.00006 2.00001 2 2 2 2 2 2 2 2 2 2 2 2 2 2 2 2 2 2 2 2 2 2 2 2 2 2.5 2.5 2.5 2.5 2.5 2.5 2.5 2.5 2.5 2.5 2.5 2.5 2.5 2.5 2.5 2.5 2.5 2.5 2.5 2.5 2.5 2.5 2.5 2.5 2.5 2.5 2.5 2.5 2.5 2.5 2.5 2.5 2.5 2.5 2.5 2.5 2.5 2.5 2.49999 2.49998 2.49995 2.49987 2.4997 2.49936 2.49873 2.49765 2.49596 2.49348 2.49006 2.48556 2.47992 2.47312 2.46518 2.45617 2.44618 2.4353 2.42363 2.41128 2.39835 2.38491 2.37104 2.35682 2.34229 2.32753 2.31254 2.2974 2.28211 2.26672 2.25124 2.23569 2.22011 2.20447 2.18887 2.17316 2.15763 2.1419 2.12641 2.11086 2.09528 2.07993 2.06458 2.04915 2.03402 2.01904 2.00387 1.98894 1.97443 1.95993 1.94534 1.93112 1.91751 1.90409 1.89057 1.87754 1.86539 1.85393 1.84294 1.83239 1.82229 1.81389 1.80799 1.80178 1.79487 1.79106 1.78967 1.78741 1.7857 1.7861 1.78507 1.78399 1.78447 1.78641 1.78736 1.78734 1.78608 1.78607 1.78776 1.79035 1.79091 1.79009 1.78897 1.78949 1.79373 1.79637 1.79627 1.79363 1.79268 1.79642 1.80938 1.81524 1.81007 1.7736 1.74956 1.75446 1.94757 2.26468 2.59255 2.80956 2.8783 2.86807 2.86447 2.86328 2.85963 2.85623 2.854 2.85242 2.85093 2.84921 2.8474 2.846 2.84527 2.84507 2.84506 2.84532 2.8456 2.84576 2.8458 2.84587 2.84591 2.84597 2.84644 2.84781 2.84862 2.84845 2.8475 2.84626 2.83504 2.74853 2.49755 2.11121 2.01609 2.00243 2.00037 2.00006 2.00001 2 2 2 2 2 2 2 2 2 2 2 2 2 2 2 2 2 2 2 2 2 2 2 2 2 2.5 2.5 2.5 2.5 2.5 2.5 2.5 2.5 2.5 2.5 2.5 2.5 2.5 2.5 2.5 2.5 2.5 2.5 2.5 2.5 2.5 2.5 2.5 2.5 2.5 2.5 2.5 2.5 2.5 2.5 2.5 2.5 2.5 2.5 2.5 2.5 2.5 2.5 2.49999 2.49998 2.49995 2.49987 2.4997 2.49936 2.49873 2.49765 2.49596 2.49348 2.49006 2.48556 2.47992 2.47312 2.46518 2.45617 2.44618 2.4353 2.42363 2.41128 2.39835 2.38491 2.37104 2.35682 2.34229 2.32753 2.31254 2.2974 2.28211 2.26672 2.25124 2.23569 2.22011 2.20447 2.18887 2.17316 2.15763 2.1419 2.12641 2.11086 2.09528 2.07993 2.06458 2.04915 2.03402 2.01904 2.00387 1.98894 1.97443 1.95993 1.94534 1.93112 1.91751 1.90409 1.89057 1.87754 1.86539 1.85393 1.84294 1.83239 1.82229 1.81389 1.80799 1.80178 1.79487 1.79106 1.78967 1.78741 1.7857 1.7861 1.78507 1.78399 1.78447 1.78641 1.78736 1.78734 1.78608 1.78607 1.78776 1.79035 1.79091 1.79009 1.78897 1.78949 1.79373 1.79637 1.79627 1.79363 1.79268 1.79642 1.80938 1.81524 1.81007 1.7736 1.74956 1.75446 1.94757 2.26468 2.59255 2.80956 2.8783 2.86807 2.86447 2.86328 2.85963 2.85623 2.854 2.85242 2.85093 2.84921 2.8474 2.846 2.84527 2.84507 2.84506 2.84532 2.8456 2.84576 2.8458 2.84587 2.84591 2.84597 2.84644 2.84781 2.84862 2.84845 2.8475 2.84626 2.83504 2.74853 2.49755 2.11121 2.01609 2.00243 2.00037 2.00006 2.00001 2 2 2 2 2 2 2 2 2 2 2 2 2 2 2 2 2 2 2 2 2 2 2 2 2 2.5 2.5 2.5 2.5 2.5 2.5 2.5 2.5 2.5 2.5 2.5 2.5 2.5 2.5 2.5 2.5 2.5 2.5 2.5 2.5 2.5 2.5 2.5 2.5 2.5 2.5 2.5 2.5 2.5 2.5 2.5 2.5 2.5 2.5 2.5 2.5 2.5 2.5 2.49999 2.49998 2.49995 2.49987 2.4997 2.49936 2.49873 2.49765 2.49596 2.49348 2.49006 2.48556 2.47992 2.47312 2.46518 2.45617 2.44618 2.4353 2.42363 2.41128 2.39835 2.38491 2.37104 2.35682 2.34229 2.32753 2.31254 2.2974 2.28211 2.26672 2.25124 2.23569 2.22011 2.20447 2.18887 2.17316 2.15763 2.1419 2.12641 2.11086 2.09528 2.07993 2.06458 2.04915 2.03402 2.01904 2.00387 1.98894 1.97443 1.95993 1.94534 1.93112 1.91751 1.90409 1.89057 1.87754 1.86539 1.85393 1.84294 1.83239 1.82229 1.81389 1.80799 1.80178 1.79487 1.79106 1.78967 1.78741 1.7857 1.7861 1.78507 1.78399 1.78447 1.78641 1.78736 1.78734 1.78608 1.78607 1.78776 1.79035 1.79091 1.79009 1.78897 1.78949 1.79373 1.79637 1.79627 1.79363 1.79268 1.79642 1.80938 1.81524 1.81007 1.7736 1.74956 1.75446 1.94757 2.26468 2.59255 2.80956 2.8783 2.86807 2.86447 2.86328 2.85963 2.85623 2.854 2.85242 2.85093 2.84921 2.8474 2.846 2.84527 2.84507 2.84506 2.84532 2.8456 2.84576 2.8458 2.84587 2.84591 2.84597 2.84644 2.84781 2.84862 2.84845 2.8475 2.84626 2.83504 2.74853 2.49755 2.11121 2.01609 2.00243 2.00037 2.00006 2.00001 2 2 2 2 2 2 2 2 2 2 2 2 2 2 2 2 2 2 2 2 2 2 2 2 2 2.5 2.5 2.5 2.5 2.5 2.5 2.5 2.5 2.5 2.5 2.5 2.5 2.5 2.5 2.5 2.5 2.5 2.5 2.5 2.5 2.5 2.5 2.5 2.5 2.5 2.5 2.5 2.5 2.5 2.5 2.5 2.5 2.5 2.5 2.5 2.5 2.5 2.5 2.49999 2.49998 2.49995 2.49987 2.4997 2.49936 2.49873 2.49765 2.49596 2.49348 2.49006 2.48556 2.47992 2.47312 2.46518 2.45617 2.44618 2.4353 2.42363 2.41128 2.39835 2.38491 2.37104 2.35682 2.34229 2.32753 2.31254 2.2974 2.28211 2.26672 2.25124 2.23569 2.22011 2.20447 2.18887 2.17316 2.15763 2.1419 2.12641 2.11086 2.09528 2.07993 2.06458 2.04915 2.03402 2.01904 2.00387 1.98894 1.97443 1.95993 1.94534 1.93112 1.91751 1.90409 1.89057 1.87754 1.86539 1.85393 1.84294 1.83239 1.82229 1.81389 1.80799 1.80178 1.79487 1.79106 1.78967 1.78741 1.7857 1.7861 1.78507 1.78399 1.78447 1.78641 1.78736 1.78734 1.78608 1.78607 1.78776 1.79035 1.79091 1.79009 1.78897 1.78949 1.79373 1.79637 1.79627 1.79363 1.79268 1.79642 1.80938 1.81524 1.81007 1.7736 1.74956 1.75446 1.94757 2.26468 2.59255 2.80956 2.8783 2.86807 2.86447 2.86328 2.85963 2.85623 2.854 2.85242 2.85093 2.84921 2.8474 2.846 2.84527 2.84507 2.84506 2.84532 2.8456 2.84576 2.8458 2.84587 2.84591 2.84597 2.84644 2.84781 2.84862 2.84845 2.8475 2.84626 2.83504 2.74853 2.49755 2.11121 2.01609 2.00243 2.00037 2.00006 2.00001 2 2 2 2 2 2 2 2 2 2 2 2 2 2 2 2 2 2 2 2 2 2 2 2 2
				</DataArray>
				<DataArray Name="F1" type="Float32" format="ascii">
 1 1 1 1 1 1 1 1 1 1 1 1 1 1 1 1 1 1 1 1 1 1 1 1 1 1 1 1 1 1 1 1 1 1 1 1 1 1 1 1 1 1 1 1 1 1 1 1 1 1 1 1 1 1 1 1 1 1 1 1 1 1 1 1 1 1 1 1 1 1 1 1 1 1 1 1 1 1 1 1 1 1 1 1 1 1 1 1 1 1 1 1 1 1 1 1 1 1 1 1 1 1 1 1 1 1 1 1 1 1 1 1 1 1 1 1 1 1 1 1 1 1 1 1 1 1 1 1 1 1 1 1 1 1 0.922115 0.646049 0.342139 0.125339 0.0228456 0.000196082 0 0 0 0 0 0 0 0 0 0 0 0 0 0 0 0 0 0 0 0 0 0 0 0 0 0 0 0 0 0 0 0 0 0 0 0 0 0 0 0 0 0 0 0 0 0 0 0 0 0 0 0 0 0 0 0 0 0 0 0 1 1 1 1 1 1 1 1 1 1 1 1 1 1 1 1 1 1 1 1 1 1 1 1 1 1 1 1 1 1 1 1 1 1 1 1 1 1 1 1 1 1 1 1 1 1 1 1 1 1 1 1 1 1 1 1 1 1 1 1 1 1 1 1 1 1 1 1 1 1 1 1 1 1 1 1 1 1 1 1 1 1 1 1 1 1 1 1 1 1 1 1 1 1 1 1 1 1 1 1 1 1 1 1 1 1 1 1 1 1 1 1 1 1 1 1 1 1 1 1 1 1 1 1 1 1 1 1 1 1 1 1 1 1 0.922115 0.646049 0.342139 0.125339 0.0228456 0.000196082 0 0 0 0 0 0 0 0 0 0 0 0 0 0 0 0 0 0 0 0 0 0 0 0 0 0 0 0 0 0 0 0 0 0 0 0 0 0 0 0 0 0 0 0 0 0 0 0 0 0 0 0 0 0 0 0 0 0 0 0 1 1 1 1 1 1 1 1 1 1 1 1 1 1 1 1 1 1 1 1 1 1 1 1 1 1 1 1 1 1 1 1 1 1 1 1 1 1 1 1 1 1 1 1 1 1 1 1 1 1 1 1 1 1 1 1 1 1 1 1 1 1 1 1 1 1 1 1 1 1 1 1 1 1 1 1 1 1 1 1 1 1 1 1 1 1 1 1 1 1 1 1 1 1 1 1 1 1 1 1 1 1 1 1 1 1 1 1 1 1 1 1 1 1 1 1 1 1 1 1 1 1 1 1 1 1 1 1 1 1 1 1 1 1 0.922115 0.646049 0.342139 0.125339 0.0228456 0.000196082 0 0 0 0 0 0 0 0 0 0 0 0 0 0 0 0 0 0 0 0 0 0 0 0 0 0 0 0 0 0 0 0 0 0 0 0 0 0 0 0 0 0 0 0 0 0 0 0 0 0 0 0 0 0 0 0 0 0 0 0 1 1 1 1 1 1 1 1 1 1 1 1 1 1 1 1 1 1 1 1 1 1 1 1 1 1 1 1 1 1 1 1 1 1 1 1 1 1 1 1 1 1 1 1 1 1 1 1 1 1 1 1 1 1 1 1 1 1 1 1 1 1 1 1 1 1 1 1 1 1 1 1 1 1 1 1 1 1 1 1 1 1 1 1 1 1 1 1 1 1 1 1 1 1 1 1 1 1 1 1 1 1 1 1 1 1 1 1 1 1 1 1 1 1 1 1 1 1 1 1 1 1 1 1 1 1 1 1 1 1 1 1 1 1 0.922115 0.646049 0.342139 0.125339 0.0228456 0.000196082 0 0 0 0 0 0 0 0 0 0 0 0 0 0 0 0 0 0 0 0 0 0 0 0 0 0 0 0 0 0 0 0 0 0 0 0 0 0 0 0 0 0 0 0 0 0 0 0 0 0 0 0 0 0 0 0 0 0 0 0 1 1 1 1 1 1 1 1 1 1 1 1 1 1 1 1 1 1 1 1 1 1 1 1 1 1 1 1 1 1 1 1 1 1 1 1 1 1 1 1 1 1 1 1 1 1 1 1 1 1 1 1 1 1 1 1 1 1 1 1 1 1 1 1 1 1 1 1 1 1 1 1 1 1 1 1 1 1 1 1 1 1 1 1 1 1 1 1 1 1 1 1 1 1 1 1 1 1 1 1 1 1 1 1 1 1 1 1 1 1 1 1 1 1 1 1 1 1 1 1 1 1 1 1 1 1 1 1 1 1 1 1 1 1 0.922115 0.646049 0.342139 0.125339 0.0228456 0.000196082 0 0 0 0 0 0 0 0 0 0 0 0 0 0 0 0 0 0 0 0 0 0 0 0 0 0 0 0 0 0 0 0 0 0 0 0 0 0 0 0 0 0 0 0 0 0 0 0 0 0 0 0 0 0 0 0 0 0 0 0
				</DataArray>
				<DataArray Name="F2" type="Float32" format="ascii">
 0 0 0 0 0 0 0 0 0 0 0 0 0 0 0 0 0 0 0 0 0 0 0 0 0 0 0 0 0 0 0 0 0 0 0 0 0 0 0 0 0 0 0 0 0 0 0 0 0 0 0 0 0 0 0 0 0 0 0 0 0 0 0 0 0 0 0 0 0 0 0 0 0 0 0 0 0 0 0 0 0 0 0 0 0 0 0 0 0 0 0 0 0 0 0 0 0 0 0 0 0 0 0 0 0 0 0 0 0 0 0 0 0 0 0 0 0 0 0 0 0 0 0 0 0 0 0 0 0 0 0 0 0 0 0.0778852 0.353951 0.657861 0.874661 0.977154 0.999804 1 1 1 1 1 1 1 1 1 1 1 1 1 1 1 1 1 1 1 1 1 1 1 1 1 1 1 1 1 1 1 1 1 1 1 1 1 1 1 1 1 1 1 1 1 1 1 1 1 1 1 1 1 1 1 1 1 1 1 1 0 0 0 0 0 0 0 0 0 0 0 0 0 0 0 0 0 0 0 0 0 0 0 0 0 0 0 0 0 0 0 0 0 0 0 0 0 0 0 0 0 0 0 0 0 0 0 0 0 0 0 0 0 0 0 0 0 0 0 0 0 0 0 0 0 0 0 0 0 0 0 0 0 0 0 0 0 0 0 0 0 0 0 0 0 0 0 0 0 0 0 0 0 0 0 0 0 0 0 0 0 0 0 0 0 0 0 0 0 0 0 0 0 0 0 0 0 0 0 0 0 0 0 0 0 0 0 0 0 0 0 0 0 0 0.0778852 0.353951 0.657861 0.874661 0.977154 0.999804 1 1 1 1 1 1 1 1 1 1 1 1 1 1 1 1 1 1 1 1 1 1 1 1 1 1 1 1 1 1 1 1 1 1 1 1 1 1 1 1 1 1 1 1 1 1 1 1 1 1 1 1 1 1 1 1 1 1 1 1 0 0 0 0 0 0 0 0 0 0 0 0 0 0 0 0 0 0 0 0 0 0 0 0 0 0 0 0 0 0 0 0 0 0 0 0 0 0 0 0 0 0 0 0 0 0 0 0 0 0 0 0 0 0 0 0 0 0 0 0 0 0 0 0 0 0 0 0 0 0 0 0 0 0 0 0 0 0 0 0 0 0 0 0 0 0 0 0 0 0 0 0 0 0 0 0 0 0 0 0 0 0 0 0 0 0 0 0 0 0 0 0 0 0 0 0 0 0 0 0 0 0 0 0 0 0 0 0 0 0 0 0 0 0 0.0778852 0.353951 0.657861 0.874661 0.977154 0.999804 1 1 1 1 1 1 1 1 1 1 1 1 1 1 1 1 1 1 1 1 1 1 1 1 1 1 1 1 1 1 1 1 1 1 1 1 1 1 1 1 1 1 1 1 1 1 1 1 1 1 1 1 1 1 1 1 1 1 1 1 0 0 0 0 0 0 0 0 0 0 0 0 0 0 0 0 0 0 0 0 0 0 0 0 0 0 0 0 0 0 0 0 0 0 0 0 0 0 0 0 0 0 0 0 0 0 0 0 0 0 0 0 0 0 0 0 0 0 0 0 0 0 0 0 0 0 0 0 0 0 0 0 0 0 0 0 0 0 0 0 0 0 0 0 0 0 0 0 0 0 0 0 0 0 0 0 0 0 0 0 0 0 0 0 0 0 0 0 0 0 0 0 0 0 0 0 0 0 0 0 0 0 0 0 0 0 0 0 0 0 0 0 0 0 0.0778852 0.353951 0.657861 0.874661 0.977154 0.999804 1 1 1 1 1 1 1 1 1 1 1 1 1 1 1 1 1 1 1 1 1 1 1 1 1 1 1 1 1 1 1 1 1 1 1 1 1 1 1 1 1 1 1 1 1 1 1 1 1 1 1 1 1 1 1 1 1 1 1 1 0 0 0 0 0 0 0 0 0 0 0 0 0 0 0 0 0 0 0 0 0 0 0 0 0 0 0 0 0 0 0 0 0 0 0 0 0 0 0 0 0 0 0 0 0 0 0 0 0 0 0 0 0 0 0 0 0 0 0 0 0 0 0 0 0 0 0 0 0 0 0 0 0 0 0 0 0 0 0 0 0 0 0 0 0 0 0 0 0 0 0 0 0 0 0 0 0 0 0 0 0 0 0 0 0 0 0 0 0 0 0 0 0 0 0 0 0 0 0 0 0 0 0 0 0 0 0 0 0 0 0 0 0 0 0.0778852 0.353951 0.657861 0.874661 0.977154 0.999804 1 1 1 1 1 1 1 1 1 1 1 1 1 1 1 1 1 1 1 1 1 1 1 1 1 1 1 1 1 1 1 1 1 1 1 1 1 1 1 1 1 1 1 1 1 1 1 1 1 1 1 1 1 1 1 1 1 1 1 1
				</DataArray>
				<DataArray Name="F3" type="Float32" format="ascii">