<?xml version="1.0"?>
<VTKFile type="PolyData">
	<PolyData>
		<Piece NumberOfPoints="1206" NumberOfPolys="1000">
			<Points>
				<DataArray type="Float32" NumberOfComponents="3" format="ascii">
 0 0 0 0.005 0 0 0.01 0 0 0.015 0 0 0.02 0 0 0.025 0 0 0.03 0 0 0.035 0 0 0.04 0 0 0.045 0 0 0.05 0 0 0.055 0 0 0.06 0 0 0.065 0 0 0.07 0 0 0.075 0 0 0.08 0 0 0.085 0 0 0.09 0 0 0.095 0 0 0.1 0 0 0.105 0 0 0.11 0 0 0.115 0 0 0.12 0 0 0.125 0 0 0.13 0 0 0.135 0 0 0.14 0 0 0.145 0 0 0.15 0 0 0.155 0 0 0.16 0 0 0.165 0 0 0.17 0 0 0.175 0 0 0.18 0 0 0.185 0 0 0.19 0 0 0.195 0 0 0.2 0 0 0.205 0 0 0.21 0 0 0.215 0 0 0.22 0 0 0.225 0 0 0.23 0 0 0.235 0 0 0.24 0 0 0.245 0 0 0.25 0 0 0.255 0 0 0.26 0 0 0.265 0 0 0.27 0 0 0.275 0 0 0.28 0 0 0.285 0 0 0.29 0 0 0.295 0 0 0.3 0 0 0.305 0 0 0.31 0 0 0.315 0 0 0.32 0 0 0.325 0 0 0.33 0 0 0.335 0 0 0.34 0 0 0.345 0 0 0.35 0 0 0.355 0 0 0.36 0 0 0.365 0 0 0.37 0 0 0.375 0 0 0.38 0 0 0.385 0 0 0.39 0 0 0.395 0 0 0.4 0 0 0.405 0 0 0.41 0 0 0.415 0 0 0.42 0 0 0.425 0 0 0.43 0 0 0.435 0 0 0.44 0 0 0.445 0 0 0.45 0 0 0.455 0 0 0.46 0 0 0.465 0 0 0.47 0 0 0.475 0 0 0.48 0 0 0.485 0 0 0.49 0 0 0.495 0 0 0.5 0 0 0.505 0 0 0.51 0 0 0.515 0 0 0.52 0 0 0.525 0 0 0.53 0 0 0.535 0 0 0.54 0 0 0.545 0 0 0.55 0 0 0.555 0 0 0.56 0 0 0.565 0 0 0.57 0 0 0.575 0 0 0.58 0 0 0.585 0 0 0.59 0 0 0.595 0 0 0.6 0 0 0.605 0 0 0.61 0 0 0.615 0 0 0.62 0 0 0.625 0 0 0.63 0 0 0.635 0 0 0.64 0 0 0.645 0 0 0.65 0 0 0.655 0 0 0.66 0 0 0.665 0 0 0.67 0 0 0.675 0 0 0.68 0 0 0.685 0 0 0.69 0 0 0.695 0 0 0.7 0 0 0.705 0 0 0.71 0 0 0.715 0 0 0.72 0 0 0.725 0 0 0.73 0 0 0.735 0 0 0.74 0 0 0.745 0 0 0.75 0 0 0.755 0 0 0.76 0 0 0.765 0 0 0.77 0 0 0.775 0 0 0.78 0 0 0.785 0 0 0.79 0 0 0.795 0 0 0.8 0 0 0.805 0 0 0.81 0 0 0.815 0 0 0.82 0 0 0.825 0 0 0.83 0 0 0.835 0 0 0.84 0 0 0.845 0 0 0.85 0 0 0.855 0 0 0.86 0 0 0.865 0 0 0.87 0 0 0.875 0 0 0.88 0 0 0.885 0 0 0.89 0 0 0.895 0 0 0.9 0 0 0.905 0 0 0.91 0 0 0.915 0 0 0.92 0 0 0.925 0 0 0.93 0 0 0.935 0 0 0.94 0 0 0.945 0 0 0.95 0 0 0.955 0 0 0.96 0 0 0.965 0 0 0.97 0 0 0.975 0 0 0.98 0 0 0.985 0 0 0.99 0 0 0.995 0 0 1 0 0 0 0.02 0 0.005 0.02 0 0.01 0.02 0 0.015 0.02 0 0.02 0.02 0 0.025 0.02 0 0.03 0.02 0 0.035 0.02 0 0.04 0.02 0 0.045 0.02 0 0.05 0.02 0 0.055 0.02 0 0.06 0.02 0 0.065 0.02 0 0.07 0.02 0 0.075 0.02 0 0.08 0.02 0 0.085 0.02 0 0.09 0.02 0 0.095 0.02 0 0.1 0.02 0 0.105 0.02 0 0.11 0.02 0 0.115 0.02 0 0.12 0.02 0 0.125 0.02 0 0.13 0.02 0 0.135 0.02 0 0.14 0.02 0 0.145 0.02 0 0.15 0.02 0 0.155 0.02 0 0.16 0.02 0 0.165 0.02 0 0.17 0.02 0 0.175 0.02 0 0.18 0.02 0 0.185 0.02 0 0.19 0.02 0 0.195 0.02 0 0.2 0.02 0 0.205 0.02 0 0.21 0.02 0 0.215 0.02 0 0.22 0.02 0 0.225 0.02 0 0.23 0.02 0 0.235 0.02 0 0.24 0.02 0 0.245 0.02 0 0.25 0.02 0 0.255 0.02 0 0.26 0.02 0 0.265 0.02 0 0.27 0.02 0 0.275 0.02 0 0.28 0.02 0 0.285 0.02 0 0.29 0.02 0 0.295 0.02 0 0.3 0.02 0 0.305 0.02 0 0.31 0.02 0 0.315 0.02 0 0.32 0.02 0 0.325 0.02 0 0.33 0.02 0 0.335 0.02 0 0.34 0.02 0 0.345 0.02 0 0.35 0.02 0 0.355 0.02 0 0.36 0.02 0 0.365 0.02 0 0.37 0.02 0 0.375 0.02 0 0.38 0.02 0 0.385 0.02 0 0.39 0.02 0 0.395 0.02 0 0.4 0.02 0 0.405 0.02 0 0.41 0.02 0 0.415 0.02 0 0.42 0.02 0 0.425 0.02 0 0.43 0.02 0 0.435 0.02 0 0.44 0.02 0 0.445 0.02 0 0.45 0.02 0 0.455 0.02 0 0.46 0.02 0 0.465 0.02 0 0.47 0.02 0 0.475 0.02 0 0.48 0.02 0 0.485 0.02 0 0.49 0.02 0 0.495 0.02 0 0.5 0.02 0 0.505 0.02 0 0.51 0.02 0 0.515 0.02 0 0.52 0.02 0 0.525 0.02 0 0.53 0.02 0 0.535 0.02 0 0.54 0.02 0 0.545 0.02 0 0.55 0.02 0 0.555 0.02 0 0.56 0.02 0 0.565 0.02 0 0.57 0.02 0 0.575 0.02 0 0.58 0.02 0 0.585 0.02 0 0.59 0.02 0 0.595 0.02 0 0.6 0.02 0 0.605 0.02 0 0.61 0.02 0 0.615 0.02 0 0.62 0.02 0 0.625 0.02 0 0.63 0.02 0 0.635 0.02 0 0.64 0.02 0 0.645 0.02 0 0.65 0.02 0 0.655 0.02 0 0.66 0.02 0 0.665 0.02 0 0.67 0.02 0 0.675 0.02 0 0.68 0.02 0 0.685 0.02 0 0.69 0.02 0 0.695 0.02 0 0.7 0.02 0 0.705 0.02 0 0.71 0.02 0 0.715 0.02 0 0.72 0.02 0 0.725 0.02 0 0.73 0.02 0 0.735 0.02 0 0.74 0.02 0 0.745 0.02 0 0.75 0.02 0 0.755 0.02 0 0.76 0.02 0 0.765 0.02 0 0.77 0.02 0 0.775 0.02 0 0.78 0.02 0 0.785 0.02 0 0.79 0.02 0 0.795 0.02 0 0.8 0.02 0 0.805 0.02 0 0.81 0.02 0 0.815 0.02 0 0.82 0.02 0 0.825 0.02 0 0.83 0.02 0 0.835 0.02 0 0.84 0.02 0 0.845 0.02 0 0.85 0.02 0 0.855 0.02 0 0.86 0.02 0 0.865 0.02 0 0.87 0.02 0 0.875 0.02 0 0.88 0.02 0 0.885 0.02 0 0.89 0.02 0 0.895 0.02 0 0.9 0.02 0 0.905 0.02 0 0.91 0.02 0 0.915 0.02 0 0.92 0.02 0 0.925 0.02 0 0.93 0.02 0 0.935 0.02 0 0.94 0.02 0 0.945 0.02 0 0.95 0.02 0 0.955 0.02 0 0.96 0.02 0 0.965 0.02 0 0.97 0.02 0 0.975 0.02 0 0.98 0.02 0 0.985 0.02 0 0.99 0.02 0 0.995 0.02 0 1 0.02 0 0 0.04 0 0.005 0.04 0 0.01 0.04 0 0.015 0.04 0 0.02 0.04 0 0.025 0.04 0 0.03 0.04 0 0.035 0.04 0 0.04 0.04 0 0.045 0.04 0 0.05 0.04 0 0.055 0.04 0 0.06 0.04 0 0.065 0.04 0 0.07 0.04 0 0.075 0.04 0 0.08 0.04 0 0.085 0.04 0 0.09 0.04 0 0.095 0.04 0 0.1 0.04 0 0.105 0.04 0 0.11 0.04 0 0.115 0.04 0 0.12 0.04 0 0.125 0.04 0 0.13 0.04 0 0.135 0.04 0 0.14 0.04 0 0.145 0.04 0 0.15 0.04 0 0.155 0.04 0 0.16 0.04 0 0.165 0.04 0 0.17 0.04 0 0.175 0.04 0 0.18 0.04 0 0.185 0.04 0 0.19 0.04 0 0.195 0.04 0 0.2 0.04 0 0.205 0.04 0 0.21 0.04 0 0.215 0.04 0 0.22 0.04 0 0.225 0.04 0 0.23 0.04 0 0.235 0.04 0 0.24 0.04 0 0.245 0.04 0 0.25 0.04 0 0.255 0.04 0 0.26 0.04 0 0.265 0.04 0 0.27 0.04 0 0.275 0.04 0 0.28 0.04 0 0.285 0.04 0 0.29 0.04 0 0.295 0.04 0 0.3 0.04 0 0.305 0.04 0 0.31 0.04 0 0.315 0.04 0 0.32 0.04 0 0.325 0.04 0 0.33 0.04 0 0.335 0.04 0 0.34 0.04 0 0.345 0.04 0 0.35 0.04 0 0.355 0.04 0 0.36 0.04 0 0.365 0.04 0 0.37 0.04 0 0.375 0.04 0 0.38 0.04 0 0.385 0.04 0 0.39 0.04 0 0.395 0.04 0 0.4 0.04 0 0.405 0.04 0 0.41 0.04 0 0.415 0.04 0 0.42 0.04 0 0.425 0.04 0 0.43 0.04 0 0.435 0.04 0 0.44 0.04 0 0.445 0.04 0 0.45 0.04 0 0.455 0.04 0 0.46 0.04 0 0.465 0.04 0 0.47 0.04 0 0.475 0.04 0 0.48 0.04 0 0.485 0.04 0 0.49 0.04 0 0.495 0.04 0 0.5 0.04 0 0.505 0.04 0 0.51 0.04 0 0.515 0.04 0 0.52 0.04 0 0.525 0.04 0 0.53 0.04 0 0.535 0.04 0 0.54 0.04 0 0.545 0.04 0 0.55 0.04 0 0.555 0.04 0 0.56 0.04 0 0.565 0.04 0 0.57 0.04 0 0.575 0.04 0 0.58 0.04 0 0.585 0.04 0 0.59 0.04 0 0.595 0.04 0 0.6 0.04 0 0.605 0.04 0 0.61 0.04 0 0.615 0.04 0 0.62 0.04 0 0.625 0.04 0 0.63 0.04 0 0.635 0.04 0 0.64 0.04 0 0.645 0.04 0 0.65 0.04 0 0.655 0.04 0 0.66 0.04 0 0.665 0.04 0 0.67 0.04 0 0.675 0.04 0 0.68 0.04 0 0.685 0.04 0 0.69 0.04 0 0.695 0.04 0 0.7 0.04 0 0.705 0.04 0 0.71 0.04 0 0.715 0.04 0 0.72 0.04 0 0.725 0.04 0 0.73 0.04 0 0.735 0.04 0 0.74 0.04 0 0.745 0.04 0 0.75 0.04 0 0.755 0.04 0 0.76 0.04 0 0.765 0.04 0 0.77 0.04 0 0.775 0.04 0 0.78 0.04 0 0.785 0.04 0 0.79 0.04 0 0.795 0.04 0 0.8 0.04 0 0.805 0.04 0 0.81 0.04 0 0.815 0.04 0 0.82 0.04 0 0.825 0.04 0 0.83 0.04 0 0.835 0.04 0 0.84 0.04 0 0.845 0.04 0 0.85 0.04 0 0.855 0.04 0 0.86 0.04 0 0.865 0.04 0 0.87 0.04 0 0.875 0.04 0 0.88 0.04 0 0.885 0.04 0 0.89 0.04 0 0.895 0.04 0 0.9 0.04 0 0.905 0.04 0 0.91 0.04 0 0.915 0.04 0 0.92 0.04 0 0.925 0.04 0 0.93 0.04 0 0.935 0.04 0 0.94 0.04 0 0.945 0.04 0 0.95 0.04 0 0.955 0.04 0 0.96 0.04 0 0.965 0.04 0 0.97 0.04 0 0.975 0.04 0 0.98 0.04 0 0.985 0.04 0 0.99 0.04 0 0.995 0.04 0 1 0.04 0 0 0.06 0 0.005 0.06 0 0.01 0.06 0 0.015 0.06 0 0.02 0.06 0 0.025 0.06 0 0.03 0.06 0 0.035 0.06 0 0.04 0.06 0 0.045 0.06 0 0.05 0.06 0 0.055 0.06 0 0.06 0.06 0 0.065 0.06 0 0.07 0.06 0 0.075 0.06 0 0.08 0.06 0 0.085 0.06 0 0.09 0.06 0 0.095 0.06 0 0.1 0.06 0 0.105 0.06 0 0.11 0.06 0 0.115 0.06 0 0.12 0.06 0 0.125 0.06 0 0.13 0.06 0 0.135 0.06 0 0.14 0.06 0 0.145 0.06 0 0.15 0.06 0 0.155 0.06 0 0.16 0.06 0 0.165 0.06 0 0.17 0.06 0 0.175 0.06 0 0.18 0.06 0 0.185 0.06 0 0.19 0.06 0 0.195 0.06 0 0.2 0.06 0 0.205 0.06 0 0.21 0.06 0 0.215 0.06 0 0.22 0.06 0 0.225 0.06 0 0.23 0.06 0 0.235 0.06 0 0.24 0.06 0 0.245 0.06 0 0.25 0.06 0 0.255 0.06 0 0.26 0.06 0 0.265 0.06 0 0.27 0.06 0 0.275 0.06 0 0.28 0.06 0 0.285 0.06 0 0.29 0.06 0 0.295 0.06 0 0.3 0.06 0 0.305 0.06 0 0.31 0.06 0 0.315 0.06 0 0.32 0.06 0 0.325 0.06 0 0.33 0.06 0 0.335 0.06 0 0.34 0.06 0 0.345 0.06 0 0.35 0.06 0 0.355 0.06 0 0.36 0.06 0 0.365 0.06 0 0.37 0.06 0 0.375 0.06 0 0.38 0.06 0 0.385 0.06 0 0.39 0.06 0 0.395 0.06 0 0.4 0.06 0 0.405 0.06 0 0.41 0.06 0 0.415 0.06 0 0.42 0.06 0 0.425 0.06 0 0.43 0.06 0 0.435 0.06 0 0.44 0.06 0 0.445 0.06 0 0.45 0.06 0 0.455 0.06 0 0.46 0.06 0 0.465 0.06 0 0.47 0.06 0 0.475 0.06 0 0.48 0.06 0 0.485 0.06 0 0.49 0.06 0 0.495 0.06 0 0.5 0.06 0 0.505 0.06 0 0.51 0.06 0 0.515 0.06 0 0.52 0.06 0 0.525 0.06 0 0.53 0.06 0 0.535 0.06 0 0.54 0.06 0 0.545 0.06 0 0.55 0.06 0 0.555 0.06 0 0.56 0.06 0 0.565 0.06 0 0.57 0.06 0 0.575 0.06 0 0.58 0.06 0 0.585 0.06 0 0.59 0.06 0 0.595 0.06 0 0.6 0.06 0 0.605 0.06 0 0.61 0.06 0 0.615 0.06 0 0.62 0.06 0 0.625 0.06 0 0.63 0.06 0 0.635 0.06 0 0.64 0.06 0 0.645 0.06 0 0.65 0.06 0 0.655 0.06 0 0.66 0.06 0 0.665 0.06 0 0.67 0.06 0 0.675 0.06 0 0.68 0.06 0 0.685 0.06 0 0.69 0.06 0 0.695 0.06 0 0.7 0.06 0 0.705 0.06 0 0.71 0.06 0 0.715 0.06 0 0.72 0.06 0 0.725 0.06 0 0.73 0.06 0 0.735 0.06 0 0.74 0.06 0 0.745 0.06 0 0.75 0.06 0 0.755 0.06 0 0.76 0.06 0 0.765 0.06 0 0.77 0.06 0 0.775 0.06 0 0.78 0.06 0 0.785 0.06 0 0.79 0.06 0 0.795 0.06 0 0.8 0.06 0 0.805 0.06 0 0.81 0.06 0 0.815 0.06 0 0.82 0.06 0 0.825 0.06 0 0.83 0.06 0 0.835 0.06 0 0.84 0.06 0 0.845 0.06 0 0.85 0.06 0 0.855 0.06 0 0.86 0.06 0 0.865 0.06 0 0.87 0.06 0 0.875 0.06 0 0.88 0.06 0 0.885 0.06 0 0.89 0.06 0 0.895 0.06 0 0.9 0.06 0 0.905 0.06 0 0.91 0.06 0 0.915 0.06 0 0.92 0.06 0 0.925 0.06 0 0.93 0.06 0 0.935 0.06 0 0.94 0.06 0 0.945 0.06 0 0.95 0.06 0 0.955 0.06 0 0.96 0.06 0 0.965 0.06 0 0.97 0.06 0 0.975 0.06 0 0.98 0.06 0 0.985 0.06 0 0.99 0.06 0 0.995 0.06 0 1 0.06 0 0 0.08 0 0.005 0.08 0 0.01 0.08 0 0.015 0.08 0 0.02 0.08 0 0.025 0.08 0 0.03 0.08 0 0.035 0.08 0 0.04 0.08 0 0.045 0.08 0 0.05 0.08 0 0.055 0.08 0 0.06 0.08 0 0.065 0.08 0 0.07 0.08 0 0.075 0.08 0 0.08 0.08 0 0.085 0.08 0 0.09 0.08 0 0.095 0.08 0 0.1 0.08 0 0.105 0.08 0 0.11 0.08 0 0.115 0.08 0 0.12 0.08 0 0.125 0.08 0 0.13 0.08 0 0.135 0.08 0 0.14 0.08 0 0.145 0.08 0 0.15 0.08 0 0.155 0.08 0 0.16 0.08 0 0.165 0.08 0
[...]
			<CellData Scalars="Density">
				<DataArray Name="Density" type="Float32" format="ascii">
 1 1 1 1 1 1 1 1 1 1 1 1 1 1 1 1 1 1 1 1 1 1 1 1 1 1 1 1 1 1 1 1 1 1 1 1 1 1 0.999999 0.999998 0.999994 0.999984 0.999957 0.999892 0.999755 0.999477 0.998961 0.998081 0.996706 0.994708 0.991956 0.988236 0.983156 0.97645 0.968399 0.959439 0.949699 0.939318 0.928331 0.916763 0.904559 0.891743 0.878219 0.863708 0.848413 0.833449 0.819108 0.805279 0.791525 0.777587 0.763501 0.74952 0.735593 0.721762 0.70799 0.69431 0.680675 0.667354 0.654228 0.64134 0.62881 0.616479 0.604392 0.59267 0.581157 0.569769 0.558664 0.547803 0.537046 0.526457 0.516247 0.506457 0.496916 0.487653 0.478893 0.470712 0.463091 0.455955 0.449211 0.443175 0.438493 0.434637 0.430895 0.428149 0.426656 0.425348 0.424364 0.424165 0.423882 0.423269 0.42296 0.423014 0.423426 0.423591 0.423349 0.422695 0.422556 0.422836 0.423228 0.4232 0.422167 0.421387 0.421365 0.42213 0.422535 0.421872 0.41868 0.416959 0.417435 0.425149 0.431918 0.432023 0.391128 0.337055 0.293728 0.269847 0.262943 0.264167 0.264426 0.264528 0.264867 0.265157 0.265349 0.265493 0.265619 0.265737 0.265827 0.265865 0.265884 0.265929 0.266007 0.266088 0.266124 0.266123 0.266103 0.266095 0.266106 0.266132 0.266162 0.266132 0.266189 0.26574 0.266282 0.251797 0.225774 0.158358 0.130518 0.125833 0.125126 0.125019 0.125003 0.125 0.125 0.125 0.125 0.125 0.125 0.125 0.125 0.125 0.125 0.125 0.125 0.125 0.125 0.125 0.125 0.125 0.125 0.125 0.125 0.125 0.125 0.125 0.125 0.125 0.125 0.125 0.125 0.125 1 1 1 1 1 1 1 1 1 1 1 1 1 1 1 1 1 1 1 1 1 1 1 1 1 1 1 1 1 1 1 1 1 1 1 1 1 1 0.999999 0.999998 0.999994 0.999984 0.999956 0.99989 0.999752 0.99947 0.998933 0.997999 0.99653 0.994398 0.991517 0.987736 0.982553 0.97529 0.966243 0.95631 0.945875 0.935037 0.923914 0.912584 0.900879 0.888787 0.876361 0.863177 0.849153 0.835021 0.820892 0.806481 0.791937 0.777609 0.76349 0.749511 0.735646 0.721952 0.708385 0.69501 0.681772 0.668823 0.656022 0.643351 0.630944 0.618677 0.606563 0.594653 0.582776 0.570901 0.559313 0.548121 0.537227 0.526617 0.516459 0.506779 0.497369 0.488231 0.479563 0.471429 0.463845 0.456745 0.450014 0.443974 0.439272 0.435446 0.431792 0.429035 0.427489 0.426074 0.424861 0.424526 0.424129 0.423337 0.422958 0.423002 0.423407 0.423594 0.423359 0.422669 0.422516 0.422766 0.423185 0.423174 0.422185 0.421384 0.42136 0.422063 0.422534 0.421959 0.418796 0.416901 0.417232 0.425348 0.432771 0.432998 0.393205 0.337423 0.293267 0.269305 0.262644 0.264107 0.264398 0.264519 0.264869 0.265164 0.265357 0.265503 0.265619 0.26573 0.265851 0.265963 0.266053 0.266113 0.26614 0.266153 0.266164 0.266164 0.266088 0.26592 0.265845 0.265844 0.265851 0.26578 0.26572 0.265284 0.266276 0.252841 0.227231 0.158891 0.13055 0.125834 0.125126 0.125019 0.125003 0.125 0.125 0.125 0.125 0.125 0.125 0.125 0.125 0.125 0.125 0.125 0.125 0.125 0.125 0.125 0.125 0.125 0.125 0.125 0.125 0.125 0.125 0.125 0.125 0.125 0.125 0.125 0.125 0.125 1 1 1 1 1 1 1 1 1 1 1 1 1 1 1 1 1 1 1 1 1 1 1 1 1 1 1 1 1 1 1 1 1 1 1 1 1 1 0.999999 0.999998 0.999994 0.999984 0.999958 0.999897 0.999764 0.999477 0.998909 0.997905 0.996304 0.993971 0.990865 0.986995 0.982249 0.976161 0.968464 0.959569 0.949849 0.939397 0.92837 0.916895 0.904861 0.891839 0.87792 0.863757 0.84949 0.83531 0.82094 0.806103 0.791001 0.776176 0.761788 0.747693 0.733802 0.720127 0.706639 0.693417 0.680319 0.667471 0.654734 0.642094 0.629656 0.617365 0.605344 0.593656 0.582142 0.570674 0.559349 0.548118 0.536979 0.526136 0.515785 0.505933 0.496382 0.487173 0.478514 0.470454 0.462974 0.455979 0.449336 0.443319 0.438586 0.434676 0.430908 0.42815 0.426645 0.425319 0.42437 0.424197 0.423956 0.423425 0.423077 0.423079 0.42342 0.423564 0.423317 0.422652 0.422516 0.422789 0.423211 0.423194 0.42221 0.421413 0.421389 0.422117 0.422543 0.421941 0.41879 0.416932 0.417185 0.425112 0.432424 0.432515 0.390719 0.336252 0.293131 0.269442 0.262747 0.264158 0.264465 0.264594 0.264912 0.265164 0.265322 0.265457 0.265615 0.265784 0.265929 0.26603 0.266077 0.266081 0.266081 0.266067 0.266044 0.26602 0.265999 0.265986 0.265987 0.265967 0.265933 0.265864 0.265905 0.265599 0.266354 0.252217 0.226162 0.158456 0.130523 0.125833 0.125126 0.125019 0.125003 0.125 0.125 0.125 0.125 0.125 0.125 0.125 0.125 0.125 0.125 0.125 0.125 0.125 0.125 0.125 0.125 0.125 0.125 0.125 0.125 0.125 0.125 0.125 0.125 0.125 0.125 0.125 0.125 0.125 1 1 1 1 1 1 1 1 1 1 1 1 1 1 1 1 1 1 1 1 1 1 1 1 1 1 1 1 1 1 1 1 1 1 1 1 1 1 0.999999 0.999998 0.999994 0.999984 0.999959 0.9999 0.99976 0.999442 0.998802 0.997663 0.995837 0.993173 0.989642 0.985343 0.980495 0.975098 0.9686 0.960571 0.951168 0.94073 0.92956 0.91772 0.905163 0.89161 0.877035 0.862631 0.848438 0.834118 0.81978 0.805496 0.79121 0.777043 0.763009 0.749015 0.735133 0.721418 0.707825 0.694444 0.681152 0.668104 0.655153 0.642275 0.629562 0.616979 0.604698 0.592826 0.581224 0.569814 0.558768 0.54796 0.537216 0.526614 0.516354 0.506498 0.496921 0.487652 0.478892 0.470756 0.463252 0.456281 0.449688 0.443747 0.439106 0.435355 0.431781 0.429103 0.427613 0.426186 0.424964 0.424565 0.424187 0.423378 0.422928 0.422917 0.42334 0.423532 0.423312 0.422659 0.422508 0.422787 0.423222 0.423208 0.422234 0.421432 0.421407 0.422095 0.422538 0.421928 0.4188 0.416939 0.417356 0.425589 0.432846 0.432994 0.391729 0.336991 0.293267 0.269422 0.262686 0.264073 0.264383 0.264529 0.264893 0.265186 0.265377 0.265514 0.265626 0.265743 0.26587 0.265986 0.266068 0.266109 0.266117 0.266114 0.266109 0.266109 0.266118 0.266126 0.266125 0.266115 0.26611 0.266045 0.266042 0.265662 0.266398 0.252452 0.225815 0.158038 0.130459 0.125828 0.125126 0.125019 0.125003 0.125 0.125 0.125 0.125 0.125 0.125 0.125 0.125 0.125 0.125 0.125 0.125 0.125 0.125 0.125 0.125 0.125 0.125 0.125 0.125 0.125 0.125 0.125 0.125 0.125 0.125 0.125 0.125 0.125 1 1 1 1 1 1 1 1 1 1 1 1 1 1 1 1 1 1 1 1 1 1 1 1 1 1 1 1 1 1 1 1 1 1 1 1 1 1 0.999999 0.999998 0.999994 0.999985 0.999961 0.999903 0.99977 0.999477 0.998906 0.9979 0.996294 0.993946 0.990781 0.98679 0.981952 0.976149 0.969019 0.960329 0.950282 0.939321 0.927714 0.915407 0.902507 0.889206 0.87573 0.862212 0.848478 0.834427 0.820253 0.8059 0.791516 0.777312 0.763282 0.749379 0.735581 0.721914 0.708342 0.694941 0.681583 0.668446 0.655383 0.642449 0.629821 0.617421 0.605237 0.593309 0.581475 0.569723 0.558412 0.547537 0.5369 0.526441 0.51635 0.506617 0.497075 0.48777 0.478919 0.470631 0.462945 0.455788 0.449062 0.443057 0.438401 0.434589 0.430889 0.428224 0.42678 0.425407 0.424341 0.42416 0.423822 0.423126 0.422959 0.422971 0.423499 0.42369 0.423457 0.422775 0.422614 0.42287 0.42328 0.423257 0.422243 0.421441 0.421417 0.422131 0.422549 0.421931 0.418747 0.416991 0.417458 0.425618 0.432695 0.432467 0.391208 0.33697 0.29364 0.269745 0.262855 0.264115 0.264412 0.26454 0.264893 0.265182 0.26537 0.265512 0.26563 0.265744 0.265867 0.265981 0.266068 0.266117 0.266128 0.266125 0.266115 0.266104 0.266097 0.266097 0.266108 0.266119 0.266149 0.266145 0.266099 0.265676 0.266234 0.252411 0.22568 0.157761 0.130392 0.12582 0.125125 0.125019 0.125003 0.125 0.125 0.125 0.125 0.125 0.125 0.125 0.125 0.125 0.125 0.125 0.125 0.125 0.125 0.125 0.125 0.125 0.125 0.125 0.125 0.125 0.125 0.125 0.125 0.125 0.125 0.125 0.125 0.125
				</DataArray>
				<DataArray Name="Energy" type="Float32" format="ascii">
 2.5 2.5 2.5 2.5 2.5 2.5 2.5 2.5 2.5 2.5 2.5 2.5 2.5 2.5 2.5 2.5 2.5 2.5 2.5 2.5 2.5 2.5 2.5 2.5 2.5 2.5 2.5 2.5 2.5 2.5 2.5 2.5 2.5 2.5 2.5 2.5 2.5 2.5 2.5 2.5 2.49999 2.49998 2.49996 2.49989 2.49975 2.49948 2.49896 2.49808 2.4967 2.4947 2.49195 2.48821 2.48311 2.47635 2.46821 2.4591 2.44916 2.43852 2.42718 2.41516 2.40238 2.38886 2.37445 2.35885 2.34222 2.32578 2.30986 2.29432 2.27871 2.26274 2.24645 2.2301 2.21365 2.19709 2.18052 2.16367 2.14701 2.13017 2.11366 2.09732 2.08088 2.06485 2.04908 2.03313 2.01746 2.00227 1.98682 1.97117 1.95603 1.9413 1.92642 1.91146 1.8973 1.88402 1.87098 1.85808 1.84567 1.83438 1.825 1.81674 1.80735 1.79934 1.79596 1.79306 1.78885 1.78723 1.78687 1.78499 1.78448 1.78634 1.78748 1.78741 1.78595 1.78572 1.78723 1.79032 1.79117 1.79021 1.78864 1.78882 1.79326 1.79663 1.79682 1.79368 1.79208 1.79501 1.80882 1.81654 1.81443 1.78139 1.75541 1.75198 1.92421 2.24249 2.57952 2.80509 2.87873 2.86889 2.86386 2.86282 2.85937 2.85635 2.85436 2.85286 2.8515 2.85017 2.84911 2.84857 2.84824 2.84763 2.84673 2.84577 2.84532 2.84524 2.84541 2.84567 2.84608 2.8464 2.84672 2.84714 2.84855 2.84747 2.85228 2.78654 2.64255 2.23721 2.03592 2.00535 2.00081 2.00012 2.00002 2 2 2 2 2 2 2 2 2 2 2 2 2 2 2 2 2 2 2 2 2 2 2 2 2 2 2 2 2 2.5 2.5 2.5 2.5 2.5 2.5 2.5 2.5 2.5 2.5 2.5 2.5 2.5 2.5 2.5 2.5 2.5 2.5 2.5 2.5 2.5 2.5 2.5 2.5 2.5 2.5 2.5 2.5 2.5 2.5 2.5 2.5 2.5 2.5 2.5 2.5 2.5 2.5 2.5 2.5 2.49999 2.49998 2.49996 2.49989 2.49975 2.49947 2.49893 2.498 2.49653 2.49439 2.49151 2.48771 2.4825 2.47517 2.466 2.4559 2.44522 2.43406 2.42253 2.41071 2.39841 2.38561 2.37236 2.35817 2.34295 2.32746 2.31182 2.2957 2.27927 2.26291 2.24663 2.23033 2.21402 2.19768 2.18144 2.16502 2.14892 2.13262 2.11655 2.10053 2.08427 2.06831 2.05251 2.0363 2.02008 2.00418 1.98808 1.97198 1.95662 1.9419 1.92715 1.91237 1.89841 1.88531 1.87242 1.85968 1.84732 1.83597 1.82659 1.81836 1.80911 1.80105 1.79755 1.79485 1.79055 1.78857 1.7881 1.78587 1.78478 1.78662 1.78774 1.78771 1.78617 1.78574 1.78712 1.79026 1.79117 1.79037 1.78873 1.78886 1.79316 1.79664 1.79684 1.79396 1.79206 1.79464 1.80826 1.81665 1.81547 1.78051 1.75061 1.74473 1.91848 2.2427 2.58333 2.8103 2.88192 2.86953 2.864 2.86278 2.85929 2.85627 2.85429 2.85279 2.85154 2.8503 2.84893 2.84762 2.84655 2.84579 2.84542 2.84519 2.84509 2.84523 2.84607 2.84792 2.84884 2.84874 2.84813 2.84692 2.8463 2.84423 2.84828 2.78603 2.64895 2.24108 2.03613 2.00536 2.00081 2.00012 2.00002 2 2 2 2 2 2 2 2 2 2 2 2 2 2 2 2 2 2 2 2 2 2 2 2 2 2 2 2 2 2.5 2.5 2.5 2.5 2.5 2.5 2.5 2.5 2.5 2.5 2.5 2.5 2.5 2.5 2.5 2.5 2.5 2.5 2.5 2.5 2.5 2.5 2.5 2.5 2.5 2.5 2.5 2.5 2.5 2.5 2.5 2.5 2.5 2.5 2.5 2.5 2.5 2.5 2.5 2.5 2.49999 2.49998 2.49996 2.4999 2.49976 2.49948 2.49891 2.4979 2.4963 2.49397 2.49085 2.48697 2.4822 2.47606 2.46828 2.45925 2.44934 2.43862 2.42725 2.41534 2.40276 2.38903 2.37421 2.35899 2.34349 2.32795 2.31207 2.29547 2.27836 2.26135 2.24469 2.2282 2.21176 2.19535 2.17909 2.16278 2.14678 2.13053 2.11449 2.09847 2.08215 2.06617 2.05049 2.03461 2.01894 2.00363 1.98788 1.97172 1.95601 1.9409 1.92582 1.91078 1.89659 1.88337 1.87047 1.85781 1.84562 1.8345 1.82521 1.81707 1.80767 1.7995 1.79597 1.79306 1.78899 1.78734 1.78682 1.78521 1.7846 1.78654 1.78775 1.78756 1.78612 1.78568 1.78715 1.79024 1.79115 1.79035 1.78874 1.78893 1.79325 1.79668 1.79685 1.79387 1.79212 1.79479 1.80843 1.81662 1.81533 1.78147 1.75384 1.74995 1.92664 2.24728 2.58464 2.80951 2.88131 2.86902 2.86339 2.86213 2.85892 2.85631 2.85468 2.85331 2.85161 2.84977 2.84815 2.84699 2.84642 2.84629 2.84623 2.84627 2.84647 2.8468 2.84716 2.84742 2.84755 2.84768 2.84773 2.84748 2.84765 2.84629 2.84938 2.784 2.64419 2.23793 2.03595 2.00535 2.00081 2.00012 2.00002 2 2 2 2 2 2 2 2 2 2 2 2 2 2 2 2 2 2 2 2 2 2 2 2 2 2 2 2 2 2.5 2.5 2.5 2.5 2.5 2.5 2.5 2.5 2.5 2.5 2.5 2.5 2.5 2.5 2.5 2.5 2.5 2.5 2.5 2.5 2.5 2.5 2.5 2.5 2.5 2.5 2.5 2.5 2.5 2.5 2.5 2.5 2.5 2.5 2.5 2.5 2.5 2.5 2.5 2.5 2.49999 2.49998 2.49996 2.4999 2.49976 2.49944 2.4988 2.49766 2.49583 2.49317 2.48962 2.4853 2.48042 2.47497 2.46839 2.46023 2.45063 2.43992 2.4284 2.4161 2.40295 2.38864 2.37309 2.35756 2.34212 2.3264 2.31051 2.29451 2.27835 2.26215 2.24594 2.2296 2.21323 2.19683 2.18054 2.16409 2.1479 2.13146 2.11518 2.09889 2.08223 2.06585 2.04984 2.03372 2.0179 2.00269 1.98741 1.9719 1.95674 1.94203 1.92716 1.91214 1.89787 1.88454 1.87156 1.85885 1.84662 1.83543 1.82622 1.81823 1.80921 1.80116 1.79764 1.79518 1.79104 1.78898 1.78843 1.78614 1.78495 1.7868 1.788 1.78764 1.78606 1.78552 1.78711 1.79032 1.79131 1.79048 1.7888 1.78894 1.7932 1.79661 1.79677 1.79393 1.79212 1.79485 1.80832 1.81651 1.81493 1.7797 1.75031 1.74487 1.92537 2.24555 2.58353 2.80947 2.88168 2.86986 2.8643 2.86287 2.85923 2.85619 2.85422 2.85283 2.85161 2.85033 2.84891 2.84758 2.84662 2.84607 2.84589 2.84583 2.84584 2.84586 2.84586 2.8459 2.8461 2.84647 2.84698 2.84764 2.84894 2.84903 2.85185 2.78545 2.64218 2.23494 2.03552 2.00532 2.00081 2.00012 2.00002 2 2 2 2 2 2 2 2 2 2 2 2 2 2 2 2 2 2 2 2 2 2 2 2 2 2 2 2 2 2.5 2.5 2.5 2.5 2.5 2.5 2.5 2.5 2.5 2.5 2.5 2.5 2.5 2.5 2.5 2.5 2.5 2.5 2.5 2.5 2.5 2.5 2.5 2.5 2.5 2.5 2.5 2.5 2.5 2.5 2.5 2.5 2.5 2.5 2.5 2.5 2.5 2.5 2.5 2.5 2.49999 2.49998 2.49996 2.4999 2.49977 2.49948 2.49891 2.4979 2.49629 2.49394 2.49077 2.48677 2.4819 2.47606 2.46884 2.46002 2.44976 2.4385 2.42651 2.4137 2.40017 2.3861 2.37173 2.3572 2.34229 2.32687 2.31118 2.29512 2.27887 2.26263 2.24645 2.23024 2.21396 2.19759 2.18126 2.16475 2.14845 2.13183 2.11537 2.09893 2.08234 2.06621 2.05027 2.03402 2.01789 2.00216 1.98642 1.97079 1.95584 1.94131 1.9266 1.91174 1.89759 1.88423 1.87103 1.85797 1.84546 1.83413 1.82473 1.81652 1.80723 1.79925 1.79591 1.79316 1.789 1.78741 1.78687 1.78482 1.78427 1.78648 1.78751 1.78747 1.78583 1.78579 1.78734 1.79041 1.79125 1.79036 1.78872 1.78886 1.79325 1.79666 1.79679 1.79383 1.79214 1.79484 1.80861 1.81646 1.81435 1.77958 1.75263 1.74965 1.92413 2.24301 2.58036 2.80621 2.87968 2.86925 2.86395 2.8627 2.85921 2.85626 2.85433 2.8529 2.85165 2.8504 2.84903 2.84771 2.84671 2.84606 2.84583 2.84578 2.84586 2.84601 2.84623 2.84646 2.84664 2.84686 2.84714 2.84715 2.84726 2.84659 2.85118 2.78653 2.64165 2.23305 2.03506 2.00527 2.0008 2.00012 2.00002 2 2 2 2 2 2 2 2 2 2 2 2 2 2 2 2 2 2 2 2 2 2 2 2 2 2 2 2 2
				</DataArray>
				<DataArray Name="F1" type="Float32" format="ascii">
 1 1 1 1 1 1 1 1 1 1 1 1 1 1 1 1 1 1 1 1 1 1 1 1 1 1 1 1 1 1 1 1 1 1 1 1 1 1 1 1 1 1 1 1 1 1 1 1 1 1 1 1 1 1 1 1 1 1 1 1 1 1 1 1 1 1 1 1 1 1 1 1 1 1 1 1 1 1 1 1 1 1 1 1 1 1 1 1 1 1 1 1 1 1 1 1 1 1 1 1 1 1 1 1 1 1 1 1 1 1 1 1 1 1 1 1 1 1 1 1 1 1 1 1 1 1 1 1 1 1 1 1 0.968003 0.729259 0.412132 0.164024 0.0356798 0.00104945 0 0 0 0 0 0 0 0 0 0 0 0 0 0 0 0 0 0 0 0 0 0 0 0 0 0 0 0 0 0 0 0 0 0 0 0 0 0 0 0 0 0 0 0 0 0 0 0 0 0 0 0 0 0 0 0 0 0 0 0 0 0 1 1 1 1 1 1 1 1 1 1 1 1 1 1 1 1 1 1 1 1 1 1 1 1 1 1 1 1 1 1 1 1 1 1 1 1 1 1 1 1 1 1 1 1 1 1 1 1 1 1 1 1 1 1 1 1 1 1 1 1 1 1 1 1 1 1 1 1 1 1 1 1 1 1 1 1 1 1 1 1 1 1 1 1 1 1 1 1 1 1 1 1 1 1 1 1 1 1 1 1 1 1 1 1 1 1 1 1 1 1 1 1 1 1 1 1 1 1 1 1 1 1 1 1 1 1 1 1 1 1 1 1 0.964718 0.723404 0.408136 0.162507 0.0354507 0.00105855 0 0 0 0 0 0 0 0 0 0 0 0 0 0 0 0 0 0 0 0 0 0 0 0 0 0 0 0 0 0 0 0 0 0 0 0 0 0 0 0 0 0 0 0 0 0 0 0 0 0 0 0 0 0 0 0 0 0 0 0 0 0 1 1 1 1 1 1 1 1 1 1 1 1 1 1 1 1 1 1 1 1 1 1 1 1 1 1 1 1 1 1 1 1 1 1 1 1 1 1 1 1 1 1 1 1 1 1 1 1 1 1 1 1 1 1 1 1 1 1 1 1 1 1 1 1 1 1 1 1 1 1 1 1 1 1 1 1 1 1 1 1 1 1 1 1 1 1 1 1 1 1 1 1 1 1 1 1 1 1 1 1 1 1 1 1 1 1 1 1 1 1 1 1 1 1 1 1 1 1 1 1 1 1 1 1 1 1 1 1 1 1 1 1 0.967115 0.727174 0.410267 0.163026 0.03538 0.00103001 0 0 0 0 0 0 0 0 0 0 0 0 0 0 0 0 0 0 0 0 0 0 0 0 0 0 0 0 0 0 0 0 0 0 0 0 0 0 0 0 0 0 0 0 0 0 0 0 0 0 0 0 0 0 0 0 0 0 0 0 0 0 1 1 1 1 1 1 1 1 1 1 1 1 1 1 1 1 1 1 1 1 1 1 1 1 1 1 1 1 1 1 1 1 1 1 1 1 1 1 1 1 1 1 1 1 1 1 1 1 1 1 1 1 1 1 1 1 1 1 1 1 1 1 1 1 1 1 1 1 1 1 1 1 1 1 1 1 1 1 1 1 1 1 1 1 1 1 1 1 1 1 1 1 1 1 1 1 1 1 1 1 1 1 1 1 1 1 1 1 1 1 1 1 1 1 1 1 1 1 1 1 1 1 1 1 1 1 1 1 1 1 1 1 0.963339 0.720132 0.405005 0.160598 0.0347405 0.000996215 0 0 0 0 0 0 0 0 0 0 0 0 0 0 0 0 0 0 0 0 0 0 0 0 0 0 0 0 0 0 0 0 0 0 0 0 0 0 0 0 0 0 0 0 0 0 0 0 0 0 0 0 0 0 0 0 0 0 0 0 0 0 1 1 1 1 1 1 1 1 1 1 1 1 1 1 1 1 1 1 1 1 1 1 1 1 1 1 1 1 1 1 1 1 1 1 1 1 1 1 1 1 1 1 1 1 1 1 1 1 1 1 1 1 1 1 1 1 1 1 1 1 1 1 1 1 1 1 1 1 1 1 1 1 1 1 1 1 1 1 1 1 1 1 1 1 1 1 1 1 1 1 1 1 1 1 1 1 1 1 1 1 1 1 1 1 1 1 1 1 1 1 1 1 1 1 1 1 1 1 1 1 1 1 1 1 1 1 1 1 1 1 1 1 0.967735 0.727986 0.410311 0.162513 0.0349561 0.000971499 0 0 0 0 0 0 0 0 0 0 0 0 0 0 0 0 0 0 0 0 0 0 0 0 0 0 0 0 0 0 0 0 0 0 0 0 0 0 0 0 0 0 0 0 0 0 0 0 0 0 0 0 0 0 0 0 0 0 0 0 0 0
				</DataArray>
				<DataArray Name="F2" type="Float32" format="ascii">
 0 0 0 0 0 0 0 0 0 0 0 0 0 0 0 0 0 0 0 0 0 0 0 0 0 0 0 0 0 0 0 0 0 0 0 0 0 0 0 0 0 0 0 0 0 0 0 0 0 0 0 0 0 0 0 0 0 0 0 0 0 0 0 0 0 0 0 0 0 0 0 0 0 0 0 0 0 0 0 0 0 0 0 0 0 0 0 0 0 0 0 0 0 0 0 0 0 0 0 0 0 0 0 0 0 0 0 0 0 0 0 0 0 0 0 0 0 0 0 0 0 0 0 0 0 0 0 0 0 0 0 0 0.0319968 0.270741 0.587868 0.835976 0.96432 0.998951 1 1 1 1 1 1 1 1 1 1 1 1 1 1 1 1 1 1 1 1 1 1 1 1 1 1 1 1 1 1 1 1 1 1 1 1 1 1 1 1 1 1 1 1 1 1 1 1 1 1 1 1 1 1 1 1 1 1 1 1 1 1 0 0 0 0 0 0 0 0 0 0 0 0 0 0 0 0 0 0 0 0 0 0 0 0 0 0 0 0 0 0 0 0 0 0 0 0 0 0 0 0 0 0 0 0 0 0 0 0 0 0 0 0 0 0 0 0 0 0 0 0 0 0 0 0 0 0 0 0 0 0 0 0 0 0 0 0 0 0 0 0 0 0 0 0 0 0 0 0 0 0 0 0 0 0 0 0 0 0 0 0 0 0 0 0 0 0 0 0 0 0 0 0 0 0 0 0 0 0 0 0 0 0 0 0 0 0 0 0 0 0 0 0 0.0352822 0.276596 0.591864 0.837493 0.964549 0.998941 1 1 1 1 1 1 1 1 1 1 1 1 1 1 1 1 1 1 1 1 1 1 1 1 1 1 1 1 1 1 1 1 1 1 1 1 1 1 1 1 1 1 1 1 1 1 1 1 1 1 1 1 1 1 1 1 1 1 1 1 1 1 0 0 0 0 0 0 0 0 0 0 0 0 0 0 0 0 0 0 0 0 0 0 0 0 0 0 0 0 0 0 0 0 0 0 0 0 0 0 0 0 0 0 0 0 0 0 0 0 0 0 0 0 0 0 0 0 0 0 0 0 0 0 0 0 0 0 0 0 0 0 0 0 0 0 0 0 0 0 0 0 0 0 0 0 0 0 0 0 0 0 0 0 0 0 0 0 0 0 0 0 0 0 0 0 0 0 0 0 0 0 0 0 0 0 0 0 0 0 0 0 0 0 0 0 0 0 0 0 0 0 0 0 0.0328846 0.272826 0.589733 0.836974 0.96462 0.99897 1 1 1 1 1 1 1 1 1 1 1 1 1 1 1 1 1 1 1 1 1 1 1 1 1 1 1 1 1 1 1 1 1 1 1 1 1 1 1 1 1 1 1 1 1 1 1 1 1 1 1 1 1 1 1 1 1 1 1 1 1 1 0 0 0 0 0 0 0 0 0 0 0 0 0 0 0 0 0 0 0 0 0 0 0 0 0 0 0 0 0 0 0 0 0 0 0 0 0 0 0 0 0 0 0 0 0 0 0 0 0 0 0 0 0 0 0 0 0 0 0 0 0 0 0 0 0 0 0 0 0 0 0 0 0 0 0 0 0 0 0 0 0 0 0 0 0 0 0 0 0 0 0 0 0 0 0 0 0 0 0 0 0 0 0 0 0 0 0 0 0 0 0 0 0 0 0 0 0 0 0 0 0 0 0 0 0 0 0 0 0 0 0 0 0.0366606 0.279868 0.594995 0.839402 0.96526 0.999004 1 1 1 1 1 1 1 1 1 1 1 1 1 1 1 1 1 1 1 1 1 1 1 1 1 1 1 1 1 1 1 1 1 1 1 1 1 1 1 1 1 1 1 1 1 1 1 1 1 1 1 1 1 1 1 1 1 1 1 1 1 1 0 0 0 0 0 0 0 0 0 0 0 0 0 0 0 0 0 0 0 0 0 0 0 0 0 0 0 0 0 0 0 0 0 0 0 0 0 0 0 0 0 0 0 0 0 0 0 0 0 0 0 0 0 0 0 0 0 0 0 0 0 0 0 0 0 0 0 0 0 0 0 0 0 0 0 0 0 0 0 0 0 0 0 0 0 0 0 0 0 0 0 0 0 0 0 0 0 0 0 0 0 0 0 0 0 0 0 0 0 0 0 0 0 0 0 0 0 0 0 0 0 0 0 0 0 0 0 0 0 0 0 0 0.0322648 0.272014 0.589689 0.837487 0.965044 0.999029 1 1 1 1 1 1 1 1 1 1 1 1 1 1 1 1 1 1 1 1 1 1 1 1 1 1 1 1 1 1 1 1 1 1 1 1 1 1 1 1 1 1 1 1 1 1 1 1 1 1 1 1 1 1 1 1 1 1 1 1 1 1
				</DataArray>
				<DataArray Name="F3" type="Float32" format="ascii">