<?xml version="1.0"?>
<VTKFile type="PolyData">
	<PolyData>
		<Piece NumberOfPoints="1206" NumberOfPolys="1000">
			<Points>
				<DataArray type="Float32" NumberOfComponents="3" format="ascii">
 0 0 0 0.005 0 0 0.01 0 0 0.015 0 0 0.02 0 0 0.025 0 0 0.03 0 0 0.035 0 0 0.04 0 0 0.045 0 0 0.05 0 0 0.055 0 0 0.06 0 0 0.065 0 0 0.07 0 0 0.075 0 0 0.08 0 0 0.085 0 0 0.09 0 0 0.095 0 0 0.1 0 0 0.105 0 0 0.11 0 0 0.115 0 0 0.12 0 0 0.125 0 0 0.13 0 0 0.135 0 0 0.14 0 0 0.145 0 0 0.15 0 0 0.155 0 0 0.16 0 0 0.165 0 0 0.17 0 0 0.175 0 0 0.18 0 0 0.185 0 0 0.19 0 0 0.195 0 0 0.2 0 0 0.205 0 0 0.21 0 0 0.215 0 0 0.22 0 0 0.225 0 0 0.23 0 0 0.235 0 0 0.24 0 0 0.245 0 0 0.25 0 0 0.255 0 0 0.26 0 0 0.265 0 0 0.27 0 0 0.275 0 0 0.28 0 0 0.285 0 0 0.29 0 0 0.295 0 0 0.3 0 0 0.305 0 0 0.31 0 0 0.315 0 0 0.32 0 0 0.325 0 0 0.33 0 0 0.335 0 0 0.34 0 0 0.345 0 0 0.35 0 0 0.355 0 0 0.36 0 0 0.365 0 0 0.37 0 0 0.375 0 0 0.38 0 0 0.385 0 0 0.39 0 0 0.395 0 0 0.4 0 0 0.405 0 0 0.41 0 0 0.415 0 0 0.42 0 0 0.425 0 0 0.43 0 0 0.435 0 0 0.44 0 0 0.445 0 0 0.45 0 0 0.455 0 0 0.46 0 0 0.465 0 0 0.47 0 0 0.475 0 0 0.48 0 0 0.485 0 0 0.49 0 0 0.495 0 0 0.5 0 0 0.505 0 0 0.51 0 0 0.515 0 0 0.52 0 0 0.525 0 0 0.53 0 0 0.535 0 0 0.54 0 0 0.545 0 0 0.55 0 0 0.555 0 0 0.56 0 0 0.565 0 0 0.57 0 0 0.575 0 0 0.58 0 0 0.585 0 0 0.59 0 0 0.595 0 0 0.6 0 0 0.605 0 0 0.61 0 0 0.615 0 0 0.62 0 0 0.625 0 0 0.63 0 0 0.635 0 0 0.64 0 0 0.645 0 0 0.65 0 0 0.655 0 0 0.66 0 0 0.665 0 0 0.67 0 0 0.675 0 0 0.68 0 0 0.685 0 0 0.69 0 0 0.695 0 0 0.7 0 0 0.705 0 0 0.71 0 0 0.715 0 0 0.72 0 0 0.725 0 0 0.73 0 0 0.735 0 0 0.74 0 0 0.745 0 0 0.75 0 0 0.755 0 0 0.76 0 0 0.765 0 0 0.77 0 0 0.775 0 0 0.78 0 0 0.785 0 0 0.79 0 0 0.795 0 0 0.8 0 0 0.805 0 0 0.81 0 0 0.815 0 0 0.82 0 0 0.825 0 0 0.83 0 0 0.835 0 0 0.84 0 0 0.845 0 0 0.85 0 0 0.855 0 0 0.86 0 0 0.865 0 0 0.87 0 0 0.875 0 0 0.88 0 0 0.885 0 0 0.89 0 0 0.895 0 0 0.9 0 0 0.905 0 0 0.91 0 0 0.915 0 0 0.92 0 0 0.925 0 0 0.93 0 0 0.935 0 0 0.94 0 0 0.945 0 0 0.95 0 0 0.955 0 0 0.96 0 0 0.965 0 0 0.97 0 0 0.975 0 0 0.98 0 0 0.985 0 0 0.99 0 0 0.995 0 0 1 0 0 0 0.02 0 0.005 0.02 0 0.01 0.02 0 0.015 0.02 0 0.02 0.02 0 0.025 0.02 0 0.03 0.02 0 0.035 0.02 0 0.04 0.02 0 0.045 0.02 0 0.05 0.02 0 0.055 0.02 0 0.06 0.02 0 0.065 0.02 0 0.07 0.02 0 0.075 0.02 0 0.08 0.02 0 0.085 0.02 0 0.09 0.02 0 0.095 0.02 0 0.1 0.02 0 0.105 0.02 0 0.11 0.02 0 0.115 0.02 0 0.12 0.02 0 0.125 0.02 0 0.13 0.02 0 0.135 0.02 0 0.14 0.02 0 0.145 0.02 0 0.15 0.02 0 0.155 0.02 0 0.16 0.02 0 0.165 0.02 0 0.17 0.02 0 0.175 0.02 0 0.18 0.02 0 0.185 0.02 0 0.19 0.02 0 0.195 0.02 0 0.2 0.02 0 0.205 0.02 0 0.21 0.02 0 0.215 0.02 0 0.22 0.02 0 0.225 0.02 0 0.23 0.02 0 0.235 0.02 0 0.24 0.02 0 0.245 0.02 0 0.25 0.02 0 0.255 0.02 0 0.26 0.02 0 0.265 0.02 0 0.27 0.02 0 0.275 0.02 0 0.28 0.02 0 0.285 0.02 0 0.29 0.02 0 0.295 0.02 0 0.3 0.02 0 0.305 0.02 0 0.31 0.02 0 0.315 0.02 0 0.32 0.02 0 0.325 0.02 0 0.33 0.02 0 0.335 0.02 0 0.34 0.02 0 0.345 0.02 0 0.35 0.02 0 0.355 0.02 0 0.36 0.02 0 0.365 0.02 0 0.37 0.02 0 0.375 0.02 0 0.38 0.02 0 0.385 0.02 0 0.39 0.02 0 0.395 0.02 0 0.4 0.02 0 0.405 0.02 0 0.41 0.02 0 0.415 0.02 0 0.42 0.02 0 0.425 0.02 0 0.43 0.02 0 0.435 0.02 0 0.44 0.02 0 0.445 0.02 0 0.45 0.02 0 0.455 0.02 0 0.46 0.02 0 0.465 0.02 0 0.47 0.02 0 0.475 0.02 0 0.48 0.02 0 0.485 0.02 0 0.49 0.02 0 0.495 0.02 0 0.5 0.02 0 0.505 0.02 0 0.51 0.02 0 0.515 0.02 0 0.52 0.02 0 0.525 0.02 0 0.53 0.02 0 0.535 0.02 0 0.54 0.02 0 0.545 0.02 0 0.55 0.02 0 0.555 0.02 0 0.56 0.02 0 0.565 0.02 0 0.57 0.02 0 0.575 0.02 0 0.58 0.02 0 0.585 0.02 0 0.59 0.02 0 0.595 0.02 0 0.6 0.02 0 0.605 0.02 0 0.61 0.02 0 0.615 0.02 0 0.62 0.02 0 0.625 0.02 0 0.63 0.02 0 0.635 0.02 0 0.64 0.02 0 0.645 0.02 0 0.65 0.02 0 0.655 0.02 0 0.66 0.02 0 0.665 0.02 0 0.67 0.02 0 0.675 0.02 0 0.68 0.02 0 0.685 0.02 0 0.69 0.02 0 0.695 0.02 0 0.7 0.02 0 0.705 0.02 0 0.71 0.02 0 0.715 0.02 0 0.72 0.02 0 0.725 0.02 0 0.73 0.02 0 0.735 0.02 0 0.74 0.02 0 0.745 0.02 0 0.75 0.02 0 0.755 0.02 0 0.76 0.02 0 0.765 0.02 0 0.77 0.02 0 0.775 0.02 0 0.78 0.02 0 0.785 0.02 0 0.79 0.02 0 0.795 0.02 0 0.8 0.02 0 0.805 0.02 0 0.81 0.02 0 0.815 0.02 0 0.82 0.02 0 0.825 0.02 0 0.83 0.02 0 0.835 0.02 0 0.84 0.02 0 0.845 0.02 0 0.85 0.02 0 0.855 0.02 0 0.86 0.02 0 0.865 0.02 0 0.87 0.02 0 0.875 0.02 0 0.88 0.02 0 0.885 0.02 0 0.89 0.02 0 0.895 0.02 0 0.9 0.02 0 0.905 0.02 0 0.91 0.02 0 0.915 0.02 0 0.92 0.02 0 0.925 0.02 0 0.93 0.02 0 0.935 0.02 0 0.94 0.02 0 0.945 0.02 0 0.95 0.02 0 0.955 0.02 0 0.96 0.02 0 0.965 0.02 0 0.97 0.02 0 0.975 0.02 0 0.98 0.02 0 0.985 0.02 0 0.99 0.02 0 0.995 0.02 0 1 0.02 0 0 0.04 0 0.005 0.04 0 0.01 0.04 0 0.015 0.04 0 0.02 0.04 0 0.025 0.04 0 0.03 0.04 0 0.035 0.04 0 0.04 0.04 0 0.045 0.04 0 0.05 0.04 0 0.055 0.04 0 0.06 0.04 0 0.065 0.04 0 0.07 0.04 0 0.075 0.04 0 0.08 0.04 0 0.085 0.04 0 0.09 0.04 0 0.095 0.04 0 0.1 0.04 0 0.105 0.04 0 0.11 0.04 0 0.115 0.04 0 0.12 0.04 0 0.125 0.04 0 0.13 0.04 0 0.135 0.04 0 0.14 0.04 0 0.145 0.04 0 0.15 0.04 0 0.155 0.04 0 0.16 0.04 0 0.165 0.04 0 0.17 0.04 0 0.175 0.04 0 0.18 0.04 0 0.185 0.04 0 0.19 0.04 0 0.195 0.04 0 0.2 0.04 0 0.205 0.04 0 0.21 0.04 0 0.215 0.04 0 0.22 0.04 0 0.225 0.04 0 0.23 0.04 0 0.235 0.04 0 0.24 0.04 0 0.245 0.04 0 0.25 0.04 0 0.255 0.04 0 0.26 0.04 0 0.265 0.04 0 0.27 0.04 0 0.275 0.04 0 0.28 0.04 0 0.285 0.04 0 0.29 0.04 0 0.295 0.04 0 0.3 0.04 0 0.305 0.04 0 0.31 0.04 0 0.315 0.04 0 0.32 0.04 0 0.325 0.04 0 0.33 0.04 0 0.335 0.04 0 0.34 0.04 0 0.345 0.04 0 0.35 0.04 0 0.355 0.04 0 0.36 0.04 0 0.365 0.04 0 0.37 0.04 0 0.375 0.04 0 0.38 0.04 0 0.385 0.04 0 0.39 0.04 0 0.395 0.04 0 0.4 0.04 0 0.405 0.04 0 0.41 0.04 0 0.415 0.04 0 0.42 0.04 0 0.425 0.04 0 0.43 0.04 0 0.435 0.04 0 0.44 0.04 0 0.445 0.04 0 0.45 0.04 0 0.455 0.04 0 0.46 0.04 0 0.465 0.04 0 0.47 0.04 0 0.475 0.04 0 0.48 0.04 0 0.485 0.04 0 0.49 0.04 0 0.495 0.04 0 0.5 0.04 0 0.505 0.04 0 0.51 0.04 0 0.515 0.04 0 0.52 0.04 0 0.525 0.04 0 0.53 0.04 0 0.535 0.04 0 0.54 0.04 0 0.545 0.04 0 0.55 0.04 0 0.555 0.04 0 0.56 0.04 0 0.565 0.04 0 0.57 0.04 0 0.575 0.04 0 0.58 0.04 0 0.585 0.04 0 0.59 0.04 0 0.595 0.04 0 0.6 0.04 0 0.605 0.04 0 0.61 0.04 0 0.615 0.04 0 0.62 0.04 0 0.625 0.04 0 0.63 0.04 0 0.635 0.04 0 0.64 0.04 0 0.645 0.04 0 0.65 0.04 0 0.655 0.04 0 0.66 0.04 0 0.665 0.04 0 0.67 0.04 0 0.675 0.04 0 0.68 0.04 0 0.685 0.04 0 0.69 0.04 0 0.695 0.04 0 0.7 0.04 0 0.705 0.04 0 0.71 0.04 0 0.715 0.04 0 0.72 0.04 0 0.725 0.04 0 0.73 0.04 0 0.735 0.04 0 0.74 0.04 0 0.745 0.04 0 0.75 0.04 0 0.755 0.04 0 0.76 0.04 0 0.765 0.04 0 0.77 0.04 0 0.775 0.04 0 0.78 0.04 0 0.785 0.04 0 0.79 0.04 0 0.795 0.04 0 0.8 0.04 0 0.805 0.04 0 0.81 0.04 0 0.815 0.04 0 0.82 0.04 0 0.825 0.04 0 0.83 0.04 0 0.835 0.04 0 0.84 0.04 0 0.845 0.04 0 0.85 0.04 0 0.855 0.04 0 0.86 0.04 0 0.865 0.04 0 0.87 0.04 0 0.875 0.04 0 0.88 0.04 0 0.885 0.04 0 0.89 0.04 0 0.895 0.04 0 0.9 0.04 0 0.905 0.04 0 0.91 0.04 0 0.915 0.04 0 0.92 0.04 0 0.925 0.04 0 0.93 0.04 0 0.935 0.04 0 0.94 0.04 0 0.945 0.04 0 0.95 0.04 0 0.955 0.04 0 0.96 0.04 0 0.965 0.04 0 0.97 0.04 0 0.975 0.04 0 0.98 0.04 0 0.985 0.04 0 0.99 0.04 0 0.995 0.04 0 1 0.04 0 0 0.06 0 0.005 0.06 0 0.01 0.06 0 0.015 0.06 0 0.02 0.06 0 0.025 0.06 0 0.03 0.06 0 0.035 0.06 0 0.04 0.06 0 0.045 0.06 0 0.05 0.06 0 0.055 0.06 0 0.06 0.06 0 0.065 0.06 0 0.07 0.06 0 0.075 0.06 0 0.08 0.06 0 0.085 0.06 0 0.09 0.06 0 0.095 0.06 0 0.1 0.06 0 0.105 0.06 0 0.11 0.06 0 0.115 0.06 0 0.12 0.06 0 0.125 0.06 0 0.13 0.06 0 0.135 0.06 0 0.14 0.06 0 0.145 0.06 0 0.15 0.06 0 0.155 0.06 0 0.16 0.06 0 0.165 0.06 0 0.17 0.06 0 0.175 0.06 0 0.18 0.06 0 0.185 0.06 0 0.19 0.06 0 0.195 0.06 0 0.2 0.06 0 0.205 0.06 0 0.21 0.06 0 0.215 0.06 0 0.22 0.06 0 0.225 0.06 0 0.23 0.06 0 0.235 0.06 0 0.24 0.06 0 0.245 0.06 0 0.25 0.06 0 0.255 0.06 0 0.26 0.06 0 0.265 0.06 0 0.27 0.06 0 0.275 0.06 0 0.28 0.06 0 0.285 0.06 0 0.29 0.06 0 0.295 0.06 0 0.3 0.06 0 0.305 0.06 0 0.31 0.06 0 0.315 0.06 0 0.32 0.06 0 0.325 0.06 0 0.33 0.06 0 0.335 0.06 0 0.34 0.06 0 0.345 0.06 0 0.35 0.06 0 0.355 0.06 0 0.36 0.06 0 0.365 0.06 0 0.37 0.06 0 0.375 0.06 0 0.38 0.06 0 0.385 0.06 0 0.39 0.06 0 0.395 0.06 0 0.4 0.06 0 0.405 0.06 0 0.41 0.06 0 0.415 0.06 0 0.42 0.06 0 0.425 0.06 0 0.43 0.06 0 0.435 0.06 0 0.44 0.06 0 0.445 0.06 0 0.45 0.06 0 0.455 0.06 0 0.46 0.06 0 0.465 0.06 0 0.47 0.06 0 0.475 0.06 0 0.48 0.06 0 0.485 0.06 0 0.49 0.06 0 0.495 0.06 0 0.5 0.06 0 0.505 0.06 0 0.51 0.06 0 0.515 0.06 0 0.52 0.06 0 0.525 0.06 0 0.53 0.06 0 0.535 0.06 0 0.54 0.06 0 0.545 0.06 0 0.55 0.06 0 0.555 0.06 0 0.56 0.06 0 0.565 0.06 0 0.57 0.06 0 0.575 0.06 0 0.58 0.06 0 0.585 0.06 0 0.59 0.06 0 0.595 0.06 0 0.6 0.06 0 0.605 0.06 0 0.61 0.06 0 0.615 0.06 0 0.62 0.06 0 0.625 0.06 0 0.63 0.06 0 0.635 0.06 0 0.64 0.06 0 0.645 0.06 0 0.65 0.06 0 0.655 0.06 0 0.66 0.06 0 0.665 0.06 0 0.67 0.06 0 0.675 0.06 0 0.68 0.06 0 0.685 0.06 0 0.69 0.06 0 0.695 0.06 0 0.7 0.06 0 0.705 0.06 0 0.71 0.06 0 0.715 0.06 0 0.72 0.06 0 0.725 0.06 0 0.73 0.06 0 0.735 0.06 0 0.74 0.06 0 0.745 0.06 0 0.75 0.06 0 0.755 0.06 0 0.76 0.06 0 0.765 0.06 0 0.77 0.06 0 0.775 0.06 0 0.78 0.06 0 0.785 0.06 0 0.79 0.06 0 0.795 0.06 0 0.8 0.06 0 0.805 0.06 0 0.81 0.06 0 0.815 0.06 0 0.82 0.06 0 0.825 0.06 0 0.83 0.06 0 0.835 0.06 0 0.84 0.06 0 0.845 0.06 0 0.85 0.06 0 0.855 0.06 0 0.86 0.06 0 0.865 0.06 0 0.87 0.06 0 0.875 0.06 0 0.88 0.06 0 0.885 0.06 0 0.89 0.06 0 0.895 0.06 0 0.9 0.06 0 0.905 0.06 0 0.91 0.06 0 0.915 0.06 0 0.92 0.06 0 0.925 0.06 0 0.93 0.06 0 0.935 0.06 0 0.94 0.06 0 0.945 0.06 0 0.95 0.06 0 0.955 0.06 0 0.96 0.06 0 0.965 0.06 0 0.97 0.06 0 0.975 0.06 0 0.98 0.06 0 0.985 0.06 0 0.99 0.06 0 0.995 0.06 0 1 0.06 0 0 0.08 0 0.005 0.08 0 0.01 0.08 0 0.015 0.08 0 0.02 0.08 0 0.025 0.08 0 0.03 0.08 0 0.035 0.08 0 0.04 0.08 0 0.045 0.08 0 0.05 0.08 0 0.055 0.08 0 0.06 0.08 0 0.065 0.08 0 0.07 0.08 0 0.075 0.08 0 0.08 0.08 0 0.085 0.08 0 0.09 0.08 0 0.095 0.08 0 0.1 0.08 0 0.105 0.08 0 0.11 0.08 0 0.115 0.08 0 0.12 0.08 0 0.125 0.08 0 0.13 0.08 0 0.135 0.08 0 0.14 0.08 0 0.145 0.08 0 0.15 0.08 0 0.155 0.08 0 0.16 0.08 0 0.165 0.08 0
[...]
			<CellData Scalars="Density">
				<DataArray Name="Density" type="Float32" format="ascii">
 1 1 1 1 1 1 1 1 1 1 1 1 1 1 1 1 1 1 1 1 1 1 1 1 1 1 1 1 1 1 1 1 1 1 1 1 0.999999 0.999997 0.999992 0.99998 0.999949 0.999873 0.999705 0.999365 0.998739 0.997675 0.996003 0.993545 0.990145 0.985685 0.980099 0.973379 0.965561 0.956725 0.946972 0.93642 0.925187 0.913389 0.901135 0.88852 0.87563 0.862529 0.849281 0.835931 0.82252 0.809085 0.79566 0.782267 0.768931 0.755669 0.742498 0.729431 0.71648 0.703656 0.690968 0.678423 0.666028 0.65379 0.641714 0.629806 0.618071 0.606514 0.595141 0.583957 0.572969 0.562183 0.551608 0.541253 0.531129 0.521249 0.51163 0.50229 0.493255 0.484553 0.476219 0.468296 0.460832 0.453887 0.447524 0.441812 0.436817 0.432602 0.429206 0.426617 0.424858 0.423739 0.423475 0.42349 0.423597 0.423642 0.423624 0.423515 0.423372 0.423268 0.423257 0.423259 0.423254 0.423216 0.423065 0.422807 0.422554 0.422343 0.422211 0.422151 0.422062 0.421794 0.42122 0.420618 0.420059 0.419614 0.418928 0.417401 0.413385 0.401473 0.375749 0.347073 0.318121 0.289856 0.266674 0.262177 0.2621 0.262404 0.2637 0.265517 0.266675 0.26675 0.266729 0.266598 0.266307 0.266061 0.266022 0.266029 0.266081 0.266203 0.266327 0.266418 0.266434 0.266436 0.266433 0.266417 0.266398 0.266386 0.266385 0.26633 0.266002 0.264872 0.25893 0.239598 0.190321 0.137995 0.126943 0.125295 0.125045 0.125007 0.125001 0.125 0.125 0.125 0.125 0.125 0.125 0.125 0.125 0.125 0.125 0.125 0.125 0.125 0.125 0.125 0.125 0.125 0.125 0.125 0.125 0.125 0.125 0.125 0.125 0.125 1 1 1 1 1 1 1 1 1 1 1 1 1 1 1 1 1 1 1 1 1 1 1 1 1 1 1 1 1 1 1 1 1 1 1 1 0.999999 0.999997 0.999992 0.99998 0.999949 0.999873 0.999705 0.999365 0.998739 0.997675 0.996003 0.993545 0.990145 0.985685 0.980099 0.973379 0.965561 0.956725 0.946972 0.93642 0.925187 0.913389 0.901135 0.88852 0.87563 0.862529 0.849281 0.835931 0.82252 0.809085 0.79566 0.782267 0.768931 0.755669 0.742498 0.729431 0.71648 0.703656 0.690968 0.678423 0.666028 0.65379 0.641714 0.629806 0.618071 0.606514 0.595141 0.583957 0.572969 0.562183 0.551608 0.541253 0.531129 0.521249 0.51163 0.50229 0.493255 0.484553 0.476219 0.468296 0.460832 0.453887 0.447524 0.441812 0.436817 0.432602 0.429206 0.426617 0.424858 0.423739 0.423475 0.42349 0.423597 0.423642 0.423624 0.423515 0.423372 0.423268 0.423257 0.423259 0.423254 0.423216 0.423065 0.422807 0.422554 0.422343 0.422211 0.422151 0.422062 0.421794 0.42122 0.420618 0.420059 0.419614 0.418928 0.417401 0.413385 0.401473 0.375749 0.347073 0.318121 0.289856 0.266674 0.262177 0.2621 0.262404 0.2637 0.265517 0.266675 0.26675 0.266729 0.266598 0.266307 0.266061 0.266022 0.266029 0.266081 0.266203 0.266327 0.266418 0.266434 0.266436 0.266433 0.266417 0.266398 0.266386 0.266385 0.26633 0.266002 0.264872 0.25893 0.239598 0.190321 0.137995 0.126943 0.125295 0.125045 0.125007 0.125001 0.125 0.125 0.125 0.125 0.125 0.125 0.125 0.125 0.125 0.125 0.125 0.125 0.125 0.125 0.125 0.125 0.125 0.125 0.125 0.125 0.125 0.125 0.125 0.125 0.125 1 1 1 1 1 1 1 1 1 1 1 1 1 1 1 1 1 1 1 1 1 1 1 1 1 1 1 1 1 1 1 1 1 1 1 1 0.999999 0.999997 0.999992 0.99998 0.999949 0.999873 0.999705 0.999365 0.998739 0.997675 0.996003 0.993545 0.990145 0.985685 0.980099 0.973379 0.965561 0.956725 0.946972 0.93642 0.925187 0.913389 0.901135 0.88852 0.87563 0.862529 0.849281 0.835931 0.82252 0.809085 0.79566 0.782267 0.768931 0.755669 0.742498 0.729431 0.71648 0.703656 0.690968 0.678423 0.666028 0.65379 0.641714 0.629806 0.618071 0.606514 0.595141 0.583957 0.572969 0.562183 0.551608 0.541253 0.531129 0.521249 0.51163 0.50229 0.493255 0.484553 0.476219 0.468296 0.460832 0.453887 0.447524 0.441812 0.436817 0.432602 0.429206 0.426617 0.424858 0.423739 0.423475 0.42349 0.423597 0.423642 0.423624 0.423515 0.423372 0.423268 0.423257 0.423259 0.423254 0.423216 0.423065 0.422807 0.422554 0.422343 0.422211 0.422151 0.422062 0.421794 0.42122 0.420618 0.420059 0.419614 0.418928 0.417401 0.413385 0.401473 0.375749 0.347073 0.318121 0.289856 0.266674 0.262177 0.2621 0.262404 0.2637 0.265517 0.266675 0.26675 0.266729 0.266598 0.266307 0.266061 0.266022 0.266029 0.266081 0.266203 0.266327 0.266418 0.266434 0.266436 0.266433 0.266417 0.266398 0.266386 0.266385 0.26633 0.266002 0.264872 0.25893 0.239598 0.190321 0.137995 0.126943 0.125295 0.125045 0.125007 0.125001 0.125 0.125 0.125 0.125 0.125 0.125 0.125 0.125 0.125 0.125 0.125 0.125 0.125 0.125 0.125 0.125 0.125 0.125 0.125 0.125 0.125 0.125 0.125 0.125 0.125 1 1 1 1 1 1 1 1 1 1 1 1 1 1 1 1 1 1 1 1 1 1 1 1 1 1 1 1 1 1 1 1 1 1 1 1 0.999999 0.999997 0.999992 0.99998 0.999949 0.999873 0.999705 0.999365 0.998739 0.997675 0.996003 0.993545 0.990145 0.985685 0.980099 0.973379 0.965561 0.956725 0.946972 0.93642 0.925187 0.913389 0.901135 0.88852 0.87563 0.862529 0.849281 0.835931 0.82252 0.809085 0.79566 0.782267 0.768931 0.755669 0.742498 0.729431 0.71648 0.703656 0.690968 0.678423 0.666028 0.65379 0.641714 0.629806 0.618071 0.606514 0.595141 0.583957 0.572969 0.562183 0.551608 0.541253 0.531129 0.521249 0.51163 0.50229 0.493255 0.484553 0.476219 0.468296 0.460832 0.453887 0.447524 0.441812 0.436817 0.432602 0.429206 0.426617 0.424858 0.423739 0.423475 0.42349 0.423597 0.423642 0.423624 0.423515 0.423372 0.423268 0.423257 0.423259 0.423254 0.423216 0.423065 0.422807 0.422554 0.422343 0.422211 0.422151 0.422062 0.421794 0.42122 0.420618 0.420059 0.419614 0.418928 0.417401 0.413385 0.401473 0.375749 0.347073 0.318121 0.289856 0.266674 0.262177 0.2621 0.262404 0.2637 0.265517 0.266675 0.26675 0.266729 0.266598 0.266307 0.266061 0.266022 0.266029 0.266081 0.266203 0.266327 0.266418 0.266434 0.266436 0.266433 0.266417 0.266398 0.266386 0.266385 0.26633 0.266002 0.264872 0.25893 0.239598 0.190321 0.137995 0.126943 0.125295 0.125045 0.125007 0.125001 0.125 0.125 0.125 0.125 0.125 0.125 0.125 0.125 0.125 0.125 0.125 0.125 0.125 0.125 0.125 0.125 0.125 0.125 0.125 0.125 0.125 0.125 0.125 0.125 0.125 1 1 1 1 1 1 1 1 1 1 1 1 1 1 1 1 1 1 1 1 1 1 1 1 1 1 1 1 1 1 1 1 1 1 1 1 0.999999 0.999997 0.999992 0.99998 0.999949 0.999873 0.999705 0.999365 0.998739 0.997675 0.996003 0.993545 0.990145 0.985685 0.980099 0.973379 0.965561 0.956725 0.946972 0.93642 0.925187 0.913389 0.901135 0.88852 0.87563 0.862529 0.849281 0.835931 0.82252 0.809085 0.79566 0.782267 0.768931 0.755669 0.742498 0.729431 0.71648 0.703656 0.690968 0.678423 0.666028 0.65379 0.641714 0.629806 0.618071 0.606514 0.595141 0.583957 0.572969 0.562183 0.551608 0.541253 0.531129 0.521249 0.51163 0.50229 0.493255 0.484553 0.476219 0.468296 0.460832 0.453887 0.447524 0.441812 0.436817 0.432602 0.429206 0.426617 0.424858 0.423739 0.423475 0.42349 0.423597 0.423642 0.423624 0.423515 0.423372 0.423268 0.423257 0.423259 0.423254 0.423216 0.423065 0.422807 0.422554 0.422343 0.422211 0.422151 0.422062 0.421794 0.42122 0.420618 0.420059 0.419614 0.418928 0.417401 0.413385 0.401473 0.375749 0.347073 0.318121 0.289856 0.266674 0.262177 0.2621 0.262404 0.2637 0.265517 0.266675 0.26675 0.266729 0.266598 0.266307 0.266061 0.266022 0.266029 0.266081 0.266203 0.266327 0.266418 0.266434 0.266436 0.266433 0.266417 0.266398 0.266386 0.266385 0.26633 0.266002 0.264872 0.25893 0.239598 0.190321 0.137995 0.126943 0.125295 0.125045 0.125007 0.125001 0.125 0.125 0.125 0.125 0.125 0.125 0.125 0.125 0.125 0.125 0.125 0.125 0.125 0.125 0.125 0.125 0.125 0.125 0.125 0.125 0.125 0.125 0.125 0.125 0.125
				</DataArray>
				<DataArray Name="Energy" type="Float32" format="ascii">
 2.5 2.5 2.5 2.5 2.5 2.5 2.5 2.5 2.5 2.5 2.5 2.5 2.5 2.5 2.5 2.5 2.5 2.5 2.5 2.5 2.5 2.5 2.5 2.5 2.5 2.5 2.5 2.5 2.5 2.5 2.5 2.5 2.5 2.5 2.5 2.5 2.5 2.5 2.49999 2.49998 2.49995 2.49987 2.49971 2.49937 2.49874 2.49767 2.496 2.49354 2.49013 2.48565 2.48002 2.47323 2.4653 2.4563 2.44631 2.43544 2.42379 2.41148 2.39859 2.38522 2.37144 2.35732 2.34291 2.32826 2.31342 2.29841 2.28326 2.268 2.25264 2.23722 2.22174 2.20623 2.1907 2.17515 2.15961 2.14407 2.12856 2.11308 2.09763 2.08224 2.0669 2.05162 2.03643 2.02132 2.00631 1.99141 1.97664 1.96202 1.94756 1.9333 1.91927 1.9055 1.89203 1.87893 1.86625 1.85409 1.84252 1.83167 1.82165 1.8126 1.80466 1.79795 1.79256 1.78851 1.78569 1.78518 1.78482 1.78443 1.78426 1.78468 1.78535 1.7862 1.78706 1.78764 1.78772 1.78774 1.78781 1.78804 1.78879 1.79002 1.7912 1.7922 1.79285 1.79317 1.7936 1.79477 1.79723 1.79981 1.80221 1.80414 1.80713 1.81379 1.83145 1.88584 2.015 2.18155 2.38014 2.61229 2.83941 2.88815 2.88904 2.88571 2.87153 2.85189 2.83951 2.83866 2.83883 2.84018 2.84322 2.8458 2.8462 2.84614 2.84563 2.84438 2.84315 2.84228 2.84225 2.84244 2.84267 2.84299 2.84335 2.84355 2.8435 2.84297 2.84121 2.83612 2.81025 2.71561 2.43851 2.08575 2.01258 2.00189 2.00029 2.00004 2.00001 2 2 2 2 2 2 2 2 2 2 2 2 2 2 2 2 2 2 2 2 2 2 2 2 2 2.5 2.5 2.5 2.5 2.5 2.5 2.5 2.5 2.5 2.5 2.5 2.5 2.5 2.5 2.5 2.5 2.5 2.5 2.5 2.5 2.5 2.5 2.5 2.5 2.5 2.5 2.5 2.5 2.5 2.5 2.5 2.5 2.5 2.5 2.5 2.5 2.5 2.5 2.49999 2.49998 2.49995 2.49987 2.49971 2.49937 2.49874 2.49767 2.496 2.49354 2.49013 2.48565 2.48002 2.47323 2.4653 2.4563 2.44631 2.43544 2.42379 2.41148 2.39859 2.38522 2.37144 2.35732 2.34291 2.32826 2.31342 2.29841 2.28326 2.268 2.25264 2.23722 2.22174 2.20623 2.1907 2.17515 2.15961 2.14407 2.12856 2.11308 2.09763 2.08224 2.0669 2.05162 2.03643 2.02132 2.00631 1.99141 1.97664 1.96202 1.94756 1.9333 1.91927 1.9055 1.89203 1.87893 1.86625 1.85409 1.84252 1.83167 1.82165 1.8126 1.80466 1.79795 1.79256 1.78851 1.78569 1.78518 1.78482 1.78443 1.78426 1.78468 1.78535 1.7862 1.78706 1.78764 1.78772 1.78774 1.78781 1.78804 1.78879 1.79002 1.7912 1.7922 1.79285 1.79317 1.7936 1.79477 1.79723 1.79981 1.80221 1.80414 1.80713 1.81379 1.83145 1.88584 2.015 2.18155 2.38014 2.61229 2.83941 2.88815 2.88904 2.88571 2.87153 2.85189 2.83951 2.83866 2.83883 2.84018 2.84322 2.8458 2.8462 2.84614 2.84563 2.84438 2.84315 2.84228 2.84225 2.84244 2.84267 2.84299 2.84335 2.84355 2.8435 2.84297 2.84121 2.83612 2.81025 2.71561 2.43851 2.08575 2.01258 2.00189 2.00029 2.00004 2.00001 2 2 2 2 2 2 2 2 2 2 2 2 2 2 2 2 2 2 2 2 2 2 2 2 2 2.5 2.5 2.5 2.5 2.5 2.5 2.5 2.5 2.5 2.5 2.5 2.5 2.5 2.5 2.5 2.5 2.5 2.5 2.5 2.5 2.5 2.5 2.5 2.5 2.5 2.5 2.5 2.5 2.5 2.5 2.5 2.5 2.5 2.5 2.5 2.5 2.5 2.5 2.49999 2.49998 2.49995 2.49987 2.49971 2.49937 2.49874 2.49767 2.496 2.49354 2.49013 2.48565 2.48002 2.47323 2.4653 2.4563 2.44631 2.43544 2.42379 2.41148 2.39859 2.38522 2.37144 2.35732 2.34291 2.32826 2.31342 2.29841 2.28326 2.268 2.25264 2.23722 2.22174 2.20623 2.1907 2.17515 2.15961 2.14407 2.12856 2.11308 2.09763 2.08224 2.0669 2.05162 2.03643 2.02132 2.00631 1.99141 1.97664 1.96202 1.94756 1.9333 1.91927 1.9055 1.89203 1.87893 1.86625 1.85409 1.84252 1.83167 1.82165 1.8126 1.80466 1.79795 1.79256 1.78851 1.78569 1.78518 1.78482 1.78443 1.78426 1.78468 1.78535 1.7862 1.78706 1.78764 1.78772 1.78774 1.78781 1.78804 1.78879 1.79002 1.7912 1.7922 1.79285 1.79317 1.7936 1.79477 1.79723 1.79981 1.80221 1.80414 1.80713 1.81379 1.83145 1.88584 2.015 2.18155 2.38014 2.61229 2.83941 2.88815 2.88904 2.88571 2.87153 2.85189 2.83951 2.83866 2.83883 2.84018 2.84322 2.8458 2.8462 2.84614 2.84563 2.84438 2.84315 2.84228 2.84225 2.84244 2.84267 2.84299 2.84335 2.84355 2.8435 2.84297 2.84121 2.83612 2.81025 2.71561 2.43851 2.08575 2.01258 2.00189 2.00029 2.00004 2.00001 2 2 2 2 2 2 2 2 2 2 2 2 2 2 2 2 2 2 2 2 2 2 2 2 2 2.5 2.5 2.5 2.5 2.5 2.5 2.5 2.5 2.5 2.5 2.5 2.5 2.5 2.5 2.5 2.5 2.5 2.5 2.5 2.5 2.5 2.5 2.5 2.5 2.5 2.5 2.5 2.5 2.5 2.5 2.5 2.5 2.5 2.5 2.5 2.5 2.5 2.5 2.49999 2.49998 2.49995 2.49987 2.49971 2.49937 2.49874 2.49767 2.496 2.49354 2.49013 2.48565 2.48002 2.47323 2.4653 2.4563 2.44631 2.43544 2.42379 2.41148 2.39859 2.38522 2.37144 2.35732 2.34291 2.32826 2.31342 2.29841 2.28326 2.268 2.25264 2.23722 2.22174 2.20623 2.1907 2.17515 2.15961 2.14407 2.12856 2.11308 2.09763 2.08224 2.0669 2.05162 2.03643 2.02132 2.00631 1.99141 1.97664 1.96202 1.94756 1.9333 1.91927 1.9055 1.89203 1.87893 1.86625 1.85409 1.84252 1.83167 1.82165 1.8126 1.80466 1.79795 1.79256 1.78851 1.78569 1.78518 1.78482 1.78443 1.78426 1.78468 1.78535 1.7862 1.78706 1.78764 1.78772 1.78774 1.78781 1.78804 1.78879 1.79002 1.7912 1.7922 1.79285 1.79317 1.7936 1.79477 1.79723 1.79981 1.80221 1.80414 1.80713 1.81379 1.83145 1.88584 2.015 2.18155 2.38014 2.61229 2.83941 2.88815 2.88904 2.88571 2.87153 2.85189 2.83951 2.83866 2.83883 2.84018 2.84322 2.8458 2.8462 2.84614 2.84563 2.84438 2.84315 2.84228 2.84225 2.84244 2.84267 2.84299 2.84335 2.84355 2.8435 2.84297 2.84121 2.83612 2.81025 2.71561 2.43851 2.08575 2.01258 2.00189 2.00029 2.00004 2.00001 2 2 2 2 2 2 2 2 2 2 2 2 2 2 2 2 2 2 2 2 2 2 2 2 2 2.5 2.5 2.5 2.5 2.5 2.5 2.5 2.5 2.5 2.5 2.5 2.5 2.5 2.5 2.5 2.5 2.5 2.5 2.5 2.5 2.5 2.5 2.5 2.5 2.5 2.5 2.5 2.5 2.5 2.5 2.5 2.5 2.5 2.5 2.5 2.5 2.5 2.5 2.49999 2.49998 2.49995 2.49987 2.49971 2.49937 2.49874 2.49767 2.496 2.49354 2.49013 2.48565 2.48002 2.47323 2.4653 2.4563 2.44631 2.43544 2.42379 2.41148 2.39859 2.38522 2.37144 2.35732 2.34291 2.32826 2.31342 2.29841 2.28326 2.268 2.25264 2.23722 2.22174 2.20623 2.1907 2.17515 2.15961 2.14407 2.12856 2.11308 2.09763 2.08224 2.0669 2.05162 2.03643 2.02132 2.00631 1.99141 1.97664 1.96202 1.94756 1.9333 1.91927 1.9055 1.89203 1.87893 1.86625 1.85409 1.84252 1.83167 1.82165 1.8126 1.80466 1.79795 1.79256 1.78851 1.78569 1.78518 1.78482 1.78443 1.78426 1.78468 1.78535 1.7862 1.78706 1.78764 1.78772 1.78774 1.78781 1.78804 1.78879 1.79002 1.7912 1.7922 1.79285 1.79317 1.7936 1.79477 1.79723 1.79981 1.80221 1.80414 1.80713 1.81379 1.83145 1.88584 2.015 2.18155 2.38014 2.61229 2.83941 2.88815 2.88904 2.88571 2.87153 2.85189 2.83951 2.83866 2.83883 2.84018 2.84322 2.8458 2.8462 2.84614 2.84563 2.84438 2.84315 2.84228 2.84225 2.84244 2.84267 2.84299 2.84335 2.84355 2.8435 2.84297 2.84121 2.83612 2.81025 2.71561 2.43851 2.08575 2.01258 2.00189 2.00029 2.00004 2.00001 2 2 2 2 2 2 2 2 2 2 2 2 2 2 2 2 2 2 2 2 2 2 2 2 2
				</DataArray>
				<DataArray Name="F1" type="Float32" format="ascii">
 1 1 1 1 1 1 1 1 1 1 1 1 1 1 1 1 1 1 1 1 1 1 1 1 1 1 1 1 1 1 1 1 1 1 1 1 1 1 1 1 1 1 1 1 1 1 1 1 1 1 1 1 1 1 1 1 1 1 1 1 1 1 1 1 1 1 1 1 1 1 1 1 1 1 1 1 1 1 1 1 1 1 1 1 1 1 1 1 1 1 1 1 1 1 1 1 1 1 1 1 1 1 1 1 1 1 1 1 1 1 1 1 1 1 1 1 1 1 1 1 1 1 1 1 1 1 1 1 1 1 1 1 1 1 1 1 1 1 1 1 1 1 1 1 1 1 1 1 1 1 1 1 1 1 1 1 1 1 1 1 1 1 1 1 1 1 1 1 1 1 1 1 1 1 1 1 1 1 1 1 1 1 1 1 1 1 1 1 1 1 1 1 1 1 1 1 1 1 1 1 1 1 1 1 1 1 1 1 1 1 1 1 1 1 1 1 1 1 1 1 1 1 1 1 1 1 1 1 1 1 1 1 1 1 1 1 1 1 1 1 1 1 1 1 1 1 1 1 1 1 1 1 1 1 1 1 1 1 1 1 1 1 1 1 1 1 1 1 1 1 1 1 1 1 1 1 1 1 1 1 1 1 1 1 1 1 1 1 1 1 1 1 1 1 1 1 1 1 1 1 1 1 1 1 1 1 1 1 1 1 1 1 1 1 1 1 1 1 1 1 1 1 1 1 1 1 1 1 1 1 1 1 1 1 1 1 1 1 1 1 1 1 1 1 1 1 1 1 1 1 1 1 1 1 1 1 1 1 1 1 1 1 1 1 1 1 1 1 1 1 1 1 1 1 1 1 1 1 1 1 1 1 1 1 1 1 1 1 1 1 1 1 1 1 1 1 1 1 1 1 1 1 1 1 1 1 1 1 1 1 1 1 1 1 1 1 1 1 1 1 1 1 1 1 1 1 1 1 1 1 1 1 1 1 1 1 1 1 1 1 1 1 1 1 1 1 1 1 1 1 1 1 1 1 1 1 1 1 1 1 1 1 1 1 1 1 1 1 1 1 1 1 1 1 1 1 1 1 1 1 1 1 1 1 1 1 1 1 1 1 1 1 1 1 1 1 1 1 1 1 1 1 1 1 1 1 1 1 1 1 1 1 1 1 1 1 1 1 1 1 1 1 1 1 1 1 1 1 1 1 1 1 1 1 1 1 1 1 1 1 1 1 1 1 1 1 1 1 1 1 1 1 1 1 1 1 1 1 1 1 1 1 1 1 1 1 1 1 1 1 1 1 1 1 1 1 1 1 1 1 1 1 1 1 1 1 1 1 1 1 1 1 1 1 1 1 1 1 1 1 1 1 1 1 1 1 1 1 1 1 1 1 1 1 1 1 1 1 1 1 1 1 1 1 1 1 1 1 1 1 1 1 1 1 1 1 1 1 1 1 1 1 1 1 1 1 1 1 1 1 1 1 1 1 1 1 1 1 1 1 1 1 1 1 1 1 1 1 1 1 1 1 1 1 1 1 1 1 1 1 1 1 1 1 1 1 1 1 1 1 1 1 1 1 1 1 1 1 1 1 1 1 1 1 1 1 1 1 1 1 1 1 1 1 1 1 1 1 1 1 1 1 1 1 1 1 1 1 1 1 1 1 1 1 1 1 1 1 1 1 1 1 1 1 1 1 1 1 1 1 1 1 1 1 1 1 1 1 1 1 1 1 1 1 1 1 1 1 1 1 1 1 1 1 1 1 1 1 1 1 1 1 1 1 1 1 1 1 1 1 1 1 1 1 1 1 1 1 1 1 1 1 1 1 1 1 1 1 1 1 1 1 1 1 1 1 1 1 1 1 1 1 1 1 1 1 1 1 1 1 1 1 1 1 1 1 1 1 1 1 1 1 1 1 1 1 1 1 1 1 1 1 1 1 1 1 1 1 1 1 1 1 1 1 1 1 1 1 1 1 1 1 1 1 1 1 1 1 1 1 1 1 1 1 1 1 1 1 1 1 1 1 1 1 1 1 1 1 1 1 1 1 1 1 1 1 1 1 1 1 1 1 1 1 1 1 1 1 1 1 1 1 1 1 1 1 1 1 1 1 1 1 1 1 1 1 1 1 1 1 1 1 1 1 1 1 1 1 1 1 1 1 1 1 1 1 1 1 1 1 1 1 1 1 1 1 1 1 1 1 1 1 1 1 1 1 1 1 1 1 1 1 1 1 1 1 1 1 1 1 1 1 1 1 1 1 1 1 1 1
				</DataArray>
				<DataArray Name="F2" type="Float32" format="ascii">
 0 0 0 0 0 0 0 0 0 0 0 0 0 0 0 0 0 0 0 0 0 0 0 0 0 0 0 0 0 0 0 0 0 0 0 0 0 0 0 0 0 0 0 0 0 0 0 0 0 0 0 0 0 0 0 0 0 0 0 0 0 0 0 0 0 0 0 0 0 0 0 0 0 0 0 0 0 0 0 0 0 0 0 0 0 0 0 0 0 0 0 0 0 0 0 0 0 0 0 0 0 0 0 0 0 0 0 0 0 0 0 0 0 0 0 0 0 0 0 0 0 0 0 0 0 0 0 0 0 0 0 0 0 0 0 0 0 0 0 0 0 0 0 0 0 0 0 0 0 0 0 0 0 0 0 0 0 0 0 0 0 0 0 0 0 0 0 0 0 0 0 0 0 0 0 0 0 0 0 0 0 0 0 0 0 0 0 0 0 0 0 0 0 0 0 0 0 0 0 0 0 0 0 0 0 0 0 0 0 0 0 0 0 0 0 0 0 0 0 0 0 0 0 0 0 0 0 0 0 0 0 0 0 0 0 0 0 0 0 0 0 0 0 0 0 0 0 0 0 0 0 0 0 0 0 0 0 0 0 0 0 0 0 0 0 0 0 0 0 0 0 0 0 0 0 0 0 0 0 0 0 0 0 0 0 0 0 0 0 0 0 0 0 0 0 0 0 0 0 0 0 0 0 0 0 0 0 0 0 0 0 0 0 0 0 0 0 0 0 0 0 0 0 0 0 0 0 0 0 0 0 0 0 0 0 0 0 0 0 0 0 0 0 0 0 0 0 0 0 0 0 0 0 0 0 0 0 0 0 0 0 0 0 0 0 0 0 0 0 0 0 0 0 0 0 0 0 0 0 0 0 0 0 0 0 0 0 0 0 0 0 0 0 0 0 0 0 0 0 0 0 0 0 0 0 0 0 0 0 0 0 0 0 0 0 0 0 0 0 0 0 0 0 0 0 0 0 0 0 0 0 0 0 0 0 0 0 0 0 0 0 0 0 0 0 0 0 0 0 0 0 0 0 0 0 0 0 0 0 0 0 0 0 0 0 0 0 0 0 0 0 0 0 0 0 0 0 0 0 0 0 0 0 0 0 0 0 0 0 0 0 0 0 0 0 0 0 0 0 0 0 0 0 0 0 0 0 0 0 0 0 0 0 0 0 0 0 0 0 0 0 0 0 0 0 0 0 0 0 0 0 0 0 0 0 0 0 0 0 0 0 0 0 0 0 0 0 0 0 0 0 0 0 0 0 0 0 0 0 0 0 0 0 0 0 0 0 0 0 0 0 0 0 0 0 0 0 0 0 0 0 0 0 0 0 0 0 0 0 0 0 0 0 0 0 0 0 0 0 0 0 0 0 0 0 0 0 0 0 0 0 0 0 0 0 0 0 0 0 0 0 0 0 0 0 0 0 0 0 0 0 0 0 0 0 0 0 0 0 0 0 0 0 0 0 0 0 0 0 0 0 0 0 0 0 0 0 0 0 0 0 0 0 0 0 0 0 0 0 0 0 0 0 0 0 0 0 0 0 0 0 0 0 0 0 0 0 0 0 0 0 0 0 0 0 0 0 0 0 0 0 0 0 0 0 0 0 0 0 0 0 0 0 0 0 0 0 0 0 0 0 0 0 0 0 0 0 0 0 0 0 0 0 0 0 0 0 0 0 0 0 0 0 0 0 0 0 0 0 0 0 0 0 0 0 0 0 0 0 0 0 0 0 0 0 0 0 0 0 0 0 0 0 0 0 0 0 0 0 0 0 0 0 0 0 0 0 0 0 0 0 0 0 0 0 0 0 0 0 0 0 0 0 0 0 0 0 0 0 0 0 0 0 0 0 0 0 0 0 0 0 0 0 0 0 0 0 0 0 0 0 0 0 0 0 0 0 0 0 0 0 0 0 0 0 0 0 0 0 0 0 0 0 0 0 0 0 0 0 0 0 0 0 0 0 0 0 0 0 0 0 0 0 0 0 0 0 0 0 0 0 0 0 0 0 0 0 0 0 0 0 0 0 0 0 0 0 0 0 0 0 0 0 0 0 0 0 0 0 0 0 0 0 0 0 0 0 0 0 0 0 0 0 0 0 0 0 0 0 0 0 0 0 0 0 0 0 0 0 0 0 0 0 0 0 0 0 0 0 0 0 0 0 0 0 0 0 0 0 0 0 0 0 0 0 0 0 0 0 0 0 0 0 0 0 0 0 0 0 0 0 0 0 0 0 0 0 0 0 0 0 0 0 0 0 0 0 0 0 0
				</DataArray>
				<DataArray Name="F3" type="Float32" format="ascii">