<?xml version="1.0"?>
<VTKFile type="PolyData">
	<PolyData>
		<Piece NumberOfPoints="1206" NumberOfPolys="1000">
			<Points>
				<DataArray type="Float32" NumberOfComponents="3" format="ascii">
 0 0 0 0.005 0 0 0.01 0 0 0.015 0 0 0.02 0 0 0.025 0 0 0.03 0 0 0.035 0 0 0.04 0 0 0.045 0 0 0.05 0 0 0.055 0 0 0.06 0 0 0.065 0 0 0.07 0 0 0.075 0 0 0.08 0 0 0.085 0 0 0.09 0 0 0.095 0 0 0.1 0 0 0.105 0 0 0.11 0 0 0.115 0 0 0.12 0 0 0.125 0 0 0.13 0 0 0.135 0 0 0.14 0 0 0.145 0 0 0.15 0 0 0.155 0 0 0.16 0 0 0.165 0 0 0.17 0 0 0.175 0 0 0.18 0 0 0.185 0 0 0.19 0 0 0.195 0 0 0.2 0 0 0.205 0 0 0.21 0 0 0.215 0 0 0.22 0 0 0.225 0 0 0.23 0 0 0.235 0 0 0.24 0 0 0.245 0 0 0.25 0 0 0.255 0 0 0.26 0 0 0.265 0 0 0.27 0 0 0.275 0 0 0.28 0 0 0.285 0 0 0.29 0 0 0.295 0 0 0.3 0 0 0.305 0 0 0.31 0 0 0.315 0 0 0.32 0 0 0.325 0 0 0.33 0 0 0.335 0 0 0.34 0 0 0.345 0 0 0.35 0 0 0.355 0 0 0.36 0 0 0.365 0 0 0.37 0 0 0.375 0 0 0.38 0 0 0.385 0 0 0.39 0 0 0.395 0 0 0.4 0 0 0.405 0 0 0.41 0 0 0.415 0 0 0.42 0 0 0.425 0 0 0.43 0 0 0.435 0 0 0.44 0 0 0.445 0 0 0.45 0 0 0.455 0 0 0.46 0 0 0.465 0 0 0.47 0 0 0.475 0 0 0.48 0 0 0.485 0 0 0.49 0 0 0.495 0 0 0.5 0 0 0.505 0 0 0.51 0 0 0.515 0 0 0.52 0 0 0.525 0 0 0.53 0 0 0.535 0 0 0.54 0 0 0.545 0 0 0.55 0 0 0.555 0 0 0.56 0 0 0.565 0 0 0.57 0 0 0.575 0 0 0.58 0 0 0.585 0 0 0.59 0 0 0.595 0 0 0.6 0 0 0.605 0 0 0.61 0 0 0.615 0 0 0.62 0 0 0.625 0 0 0.63 0 0 0.635 0 0 0.64 0 0 0.645 0 0 0.65 0 0 0.655 0 0 0.66 0 0 0.665 0 0 0.67 0 0 0.675 0 0 0.68 0 0 0.685 0 0 0.69 0 0 0.695 0 0 0.7 0 0 0.705 0 0 0.71 0 0 0.715 0 0 0.72 0 0 0.725 0 0 0.73 0 0 0.735 0 0 0.74 0 0 0.745 0 0 0.75 0 0 0.755 0 0 0.76 0 0 0.765 0 0 0.77 0 0 0.775 0 0 0.78 0 0 0.785 0 0 0.79 0 0 0.795 0 0 0.8 0 0 0.805 0 0 0.81 0 0 0.815 0 0 0.82 0 0 0.825 0 0 0.83 0 0 0.835 0 0 0.84 0 0 0.845 0 0 0.85 0 0 0.855 0 0 0.86 0 0 0.865 0 0 0.87 0 0 0.875 0 0 0.88 0 0 0.885 0 0 0.89 0 0 0.895 0 0 0.9 0 0 0.905 0 0 0.91 0 0 0.915 0 0 0.92 0 0 0.925 0 0 0.93 0 0 0.935 0 0 0.94 0 0 0.945 0 0 0.95 0 0 0.955 0 0 0.96 0 0 0.965 0 0 0.97 0 0 0.975 0 0 0.98 0 0 0.985 0 0 0.99 0 0 0.995 0 0 1 0 0 0 0.02 0 0.005 0.02 0 0.01 0.02 0 0.015 0.02 0 0.02 0.02 0 0.025 0.02 0 0.03 0.02 0 0.035 0.02 0 0.04 0.02 0 0.045 0.02 0 0.05 0.02 0 0.055 0.02 0 0.06 0.02 0 0.065 0.02 0 0.07 0.02 0 0.075 0.02 0 0.08 0.02 0 0.085 0.02 0 0.09 0.02 0 0.095 0.02 0 0.1 0.02 0 0.105 0.02 0 0.11 0.02 0 0.115 0.02 0 0.12 0.02 0 0.125 0.02 0 0.13 0.02 0 0.135 0.02 0 0.14 0.02 0 0.145 0.02 0 0.15 0.02 0 0.155 0.02 0 0.16 0.02 0 0.165 0.02 0 0.17 0.02 0 0.175 0.02 0 0.18 0.02 0 0.185 0.02 0 0.19 0.02 0 0.195 0.02 0 0.2 0.02 0 0.205 0.02 0 0.21 0.02 0 0.215 0.02 0 0.22 0.02 0 0.225 0.02 0 0.23 0.02 0 0.235 0.02 0 0.24 0.02 0 0.245 0.02 0 0.25 0.02 0 0.255 0.02 0 0.26 0.02 0 0.265 0.02 0 0.27 0.02 0 0.275 0.02 0 0.28 0.02 0 0.285 0.02 0 0.29 0.02 0 0.295 0.02 0 0.3 0.02 0 0.305 0.02 0 0.31 0.02 0 0.315 0.02 0 0.32 0.02 0 0.325 0.02 0 0.33 0.02 0 0.335 0.02 0 0.34 0.02 0 0.345 0.02 0 0.35 0.02 0 0.355 0.02 0 0.36 0.02 0 0.365 0.02 0 0.37 0.02 0 0.375 0.02 0 0.38 0.02 0 0.385 0.02 0 0.39 0.02 0 0.395 0.02 0 0.4 0.02 0 0.405 0.02 0 0.41 0.02 0 0.415 0.02 0 0.42 0.02 0 0.425 0.02 0 0.43 0.02 0 0.435 0.02 0 0.44 0.02 0 0.445 0.02 0 0.45 0.02 0 0.455 0.02 0 0.46 0.02 0 0.465 0.02 0 0.47 0.02 0 0.475 0.02 0 0.48 0.02 0 0.485 0.02 0 0.49 0.02 0 0.495 0.02 0 0.5 0.02 0 0.505 0.02 0 0.51 0.02 0 0.515 0.02 0 0.52 0.02 0 0.525 0.02 0 0.53 0.02 0 0.535 0.02 0 0.54 0.02 0 0.545 0.02 0 0.55 0.02 0 0.555 0.02 0 0.56 0.02 0 0.565 0.02 0 0.57 0.02 0 0.575 0.02 0 0.58 0.02 0 0.585 0.02 0 0.59 0.02 0 0.595 0.02 0 0.6 0.02 0 0.605 0.02 0 0.61 0.02 0 0.615 0.02 0 0.62 0.02 0 0.625 0.02 0 0.63 0.02 0 0.635 0.02 0 0.64 0.02 0 0.645 0.02 0 0.65 0.02 0 0.655 0.02 0 0.66 0.02 0 0.665 0.02 0 0.67 0.02 0 0.675 0.02 0 0.68 0.02 0 0.685 0.02 0 0.69 0.02 0 0.695 0.02 0 0.7 0.02 0 0.705 0.02 0 0.71 0.02 0 0.715 0.02 0 0.72 0.02 0 0.725 0.02 0 0.73 0.02 0 0.735 0.02 0 0.74 0.02 0 0.745 0.02 0 0.75 0.02 0 0.755 0.02 0 0.76 0.02 0 0.765 0.02 0 0.77 0.02 0 0.775 0.02 0 0.78 0.02 0 0.785 0.02 0 0.79 0.02 0 0.795 0.02 0 0.8 0.02 0 0.805 0.02 0 0.81 0.02 0 0.815 0.02 0 0.82 0.02 0 0.825 0.02 0 0.83 0.02 0 0.835 0.02 0 0.84 0.02 0 0.845 0.02 0 0.85 0.02 0 0.855 0.02 0 0.86 0.02 0 0.865 0.02 0 0.87 0.02 0 0.875 0.02 0 0.88 0.02 0 0.885 0.02 0 0.89 0.02 0 0.895 0.02 0 0.9 0.02 0 0.905 0.02 0 0.91 0.02 0 0.915 0.02 0 0.92 0.02 0 0.925 0.02 0 0.93 0.02 0 0.935 0.02 0 0.94 0.02 0 0.945 0.02 0 0.95 0.02 0 0.955 0.02 0 0.96 0.02 0 0.965 0.02 0 0.97 0.02 0 0.975 0.02 0 0.98 0.02 0 0.985 0.02 0 0.99 0.02 0 0.995 0.02 0 1 0.02 0 0 0.04 0 0.005 0.04 0 0.01 0.04 0 0.015 0.04 0 0.02 0.04 0 0.025 0.04 0 0.03 0.04 0 0.035 0.04 0 0.04 0.04 0 0.045 0.04 0 0.05 0.04 0 0.055 0.04 0 0.06 0.04 0 0.065 0.04 0 0.07 0.04 0 0.075 0.04 0 0.08 0.04 0 0.085 0.04 0 0.09 0.04 0 0.095 0.04 0 0.1 0.04 0 0.105 0.04 0 0.11 0.04 0 0.115 0.04 0 0.12 0.04 0 0.125 0.04 0 0.13 0.04 0 0.135 0.04 0 0.14 0.04 0 0.145 0.04 0 0.15 0.04 0 0.155 0.04 0 0.16 0.04 0 0.165 0.04 0 0.17 0.04 0 0.175 0.04 0 0.18 0.04 0 0.185 0.04 0 0.19 0.04 0 0.195 0.04 0 0.2 0.04 0 0.205 0.04 0 0.21 0.04 0 0.215 0.04 0 0.22 0.04 0 0.225 0.04 0 0.23 0.04 0 0.235 0.04 0 0.24 0.04 0 0.245 0.04 0 0.25 0.04 0 0.255 0.04 0 0.26 0.04 0 0.265 0.04 0 0.27 0.04 0 0.275 0.04 0 0.28 0.04 0 0.285 0.04 0 0.29 0.04 0 0.295 0.04 0 0.3 0.04 0 0.305 0.04 0 0.31 0.04 0 0.315 0.04 0 0.32 0.04 0 0.325 0.04 0 0.33 0.04 0 0.335 0.04 0 0.34 0.04 0 0.345 0.04 0 0.35 0.04 0 0.355 0.04 0 0.36 0.04 0 0.365 0.04 0 0.37 0.04 0 0.375 0.04 0 0.38 0.04 0 0.385 0.04 0 0.39 0.04 0 0.395 0.04 0 0.4 0.04 0 0.405 0.04 0 0.41 0.04 0 0.415 0.04 0 0.42 0.04 0 0.425 0.04 0 0.43 0.04 0 0.435 0.04 0 0.44 0.04 0 0.445 0.04 0 0.45 0.04 0 0.455 0.04 0 0.46 0.04 0 0.465 0.04 0 0.47 0.04 0 0.475 0.04 0 0.48 0.04 0 0.485 0.04 0 0.49 0.04 0 0.495 0.04 0 0.5 0.04 0 0.505 0.04 0 0.51 0.04 0 0.515 0.04 0 0.52 0.04 0 0.525 0.04 0 0.53 0.04 0 0.535 0.04 0 0.54 0.04 0 0.545 0.04 0 0.55 0.04 0 0.555 0.04 0 0.56 0.04 0 0.565 0.04 0 0.57 0.04 0 0.575 0.04 0 0.58 0.04 0 0.585 0.04 0 0.59 0.04 0 0.595 0.04 0 0.6 0.04 0 0.605 0.04 0 0.61 0.04 0 0.615 0.04 0 0.62 0.04 0 0.625 0.04 0 0.63 0.04 0 0.635 0.04 0 0.64 0.04 0 0.645 0.04 0 0.65 0.04 0 0.655 0.04 0 0.66 0.04 0 0.665 0.04 0 0.67 0.04 0 0.675 0.04 0 0.68 0.04 0 0.685 0.04 0 0.69 0.04 0 0.695 0.04 0 0.7 0.04 0 0.705 0.04 0 0.71 0.04 0 0.715 0.04 0 0.72 0.04 0 0.725 0.04 0 0.73 0.04 0 0.735 0.04 0 0.74 0.04 0 0.745 0.04 0 0.75 0.04 0 0.755 0.04 0 0.76 0.04 0 0.765 0.04 0 0.77 0.04 0 0.775 0.04 0 0.78 0.04 0 0.785 0.04 0 0.79 0.04 0 0.795 0.04 0 0.8 0.04 0 0.805 0.04 0 0.81 0.04 0 0.815 0.04 0 0.82 0.04 0 0.825 0.04 0 0.83 0.04 0 0.835 0.04 0 0.84 0.04 0 0.845 0.04 0 0.85 0.04 0 0.855 0.04 0 0.86 0.04 0 0.865 0.04 0 0.87 0.04 0 0.875 0.04 0 0.88 0.04 0 0.885 0.04 0 0.89 0.04 0 0.895 0.04 0 0.9 0.04 0 0.905 0.04 0 0.91 0.04 0 0.915 0.04 0 0.92 0.04 0 0.925 0.04 0 0.93 0.04 0 0.935 0.04 0 0.94 0.04 0 0.945 0.04 0 0.95 0.04 0 0.955 0.04 0 0.96 0.04 0 0.965 0.04 0 0.97 0.04 0 0.975 0.04 0 0.98 0.04 0 0.985 0.04 0 0.99 0.04 0 0.995 0.04 0 1 0.04 0 0 0.06 0 0.005 0.06 0 0.01 0.06 0 0.015 0.06 0 0.02 0.06 0 0.025 0.06 0 0.03 0.06 0 0.035 0.06 0 0.04 0.06 0 0.045 0.06 0 0.05 0.06 0 0.055 0.06 0 0.06 0.06 0 0.065 0.06 0 0.07 0.06 0 0.075 0.06 0 0.08 0.06 0 0.085 0.06 0 0.09 0.06 0 0.095 0.06 0 0.1 0.06 0 0.105 0.06 0 0.11 0.06 0 0.115 0.06 0 0.12 0.06 0 0.125 0.06 0 0.13 0.06 0 0.135 0.06 0 0.14 0.06 0 0.145 0.06 0 0.15 0.06 0 0.155 0.06 0 0.16 0.06 0 0.165 0.06 0 0.17 0.06 0 0.175 0.06 0 0.18 0.06 0 0.185 0.06 0 0.19 0.06 0 0.195 0.06 0 0.2 0.06 0 0.205 0.06 0 0.21 0.06 0 0.215 0.06 0 0.22 0.06 0 0.225 0.06 0 0.23 0.06 0 0.235 0.06 0 0.24 0.06 0 0.245 0.06 0 0.25 0.06 0 0.255 0.06 0 0.26 0.06 0 0.265 0.06 0 0.27 0.06 0 0.275 0.06 0 0.28 0.06 0 0.285 0.06 0 0.29 0.06 0 0.295 0.06 0 0.3 0.06 0 0.305 0.06 0 0.31 0.06 0 0.315 0.06 0 0.32 0.06 0 0.325 0.06 0 0.33 0.06 0 0.335 0.06 0 0.34 0.06 0 0.345 0.06 0 0.35 0.06 0 0.355 0.06 0 0.36 0.06 0 0.365 0.06 0 0.37 0.06 0 0.375 0.06 0 0.38 0.06 0 0.385 0.06 0 0.39 0.06 0 0.395 0.06 0 0.4 0.06 0 0.405 0.06 0 0.41 0.06 0 0.415 0.06 0 0.42 0.06 0 0.425 0.06 0 0.43 0.06 0 0.435 0.06 0 0.44 0.06 0 0.445 0.06 0 0.45 0.06 0 0.455 0.06 0 0.46 0.06 0 0.465 0.06 0 0.47 0.06 0 0.475 0.06 0 0.48 0.06 0 0.485 0.06 0 0.49 0.06 0 0.495 0.06 0 0.5 0.06 0 0.505 0.06 0 0.51 0.06 0 0.515 0.06 0 0.52 0.06 0 0.525 0.06 0 0.53 0.06 0 0.535 0.06 0 0.54 0.06 0 0.545 0.06 0 0.55 0.06 0 0.555 0.06 0 0.56 0.06 0 0.565 0.06 0 0.57 0.06 0 0.575 0.06 0 0.58 0.06 0 0.585 0.06 0 0.59 0.06 0 0.595 0.06 0 0.6 0.06 0 0.605 0.06 0 0.61 0.06 0 0.615 0.06 0 0.62 0.06 0 0.625 0.06 0 0.63 0.06 0 0.635 0.06 0 0.64 0.06 0 0.645 0.06 0 0.65 0.06 0 0.655 0.06 0 0.66 0.06 0 0.665 0.06 0 0.67 0.06 0 0.675 0.06 0 0.68 0.06 0 0.685 0.06 0 0.69 0.06 0 0.695 0.06 0 0.7 0.06 0 0.705 0.06 0 0.71 0.06 0 0.715 0.06 0 0.72 0.06 0 0.725 0.06 0 0.73 0.06 0 0.735 0.06 0 0.74 0.06 0 0.745 0.06 0 0.75 0.06 0 0.755 0.06 0 0.76 0.06 0 0.765 0.06 0 0.77 0.06 0 0.775 0.06 0 0.78 0.06 0 0.785 0.06 0 0.79 0.06 0 0.795 0.06 0 0.8 0.06 0 0.805 0.06 0 0.81 0.06 0 0.815 0.06 0 0.82 0.06 0 0.825 0.06 0 0.83 0.06 0 0.835 0.06 0 0.84 0.06 0 0.845 0.06 0 0.85 0.06 0 0.855 0.06 0 0.86 0.06 0 0.865 0.06 0 0.87 0.06 0 0.875 0.06 0 0.88 0.06 0 0.885 0.06 0 0.89 0.06 0 0.895 0.06 0 0.9 0.06 0 0.905 0.06 0 0.91 0.06 0 0.915 0.06 0 0.92 0.06 0 0.925 0.06 0 0.93 0.06 0 0.935 0.06 0 0.94 0.06 0 0.945 0.06 0 0.95 0.06 0 0.955 0.06 0 0.96 0.06 0 0.965 0.06 0 0.97 0.06 0 0.975 0.06 0 0.98 0.06 0 0.985 0.06 0 0.99 0.06 0 0.995 0.06 0 1 0.06 0 0 0.08 0 0.005 0.08 0 0.01 0.08 0 0.015 0.08 0 0.02 0.08 0 0.025 0.08 0 0.03 0.08 0 0.035 0.08 0 0.04 0.08 0 0.045 0.08 0 0.05 0.08 0 0.055 0.08 0 0.06 0.08 0 0.065 0.08 0 0.07 0.08 0 0.075 0.08 0 0.08 0.08 0 0.085 0.08 0 0.09 0.08 0 0.095 0.08 0 0.1 0.08 0 0.105 0.08 0 0.11 0.08 0 0.115 0.08 0 0.12 0.08 0 0.125 0.08 0 0.13 0.08 0 0.135 0.08 0 0.14 0.08 0 0.145 0.08 0 0.15 0.08 0 0.155 0.08 0 0.16 0.08 0 0.165 0.08 0
[...]
			<PointData Scalars="VitesseX">
				<DataArray Name="VitesseX" type="Float32" format="ascii">
 0 2.6334e-14 -3.4476e-14 7.09675e-14 -4.53564e-14 -5.03622e-14 -7.34308e-14 2.82392e-14 -5.46524e-14 7.87233e-15 -8.20695e-15 -1.77435e-13 2.17063e-13 -3.17408e-13 6.66836e-14 -5.67075e-14 -1.30499e-13 2.26572e-13 -1.82112e-13 4.75247e-14 -2.25902e-14 2.57533e-14 6.38653e-14 -2.42537e-13 -2.34315e-13 1.60793e-14 2.5261e-13 2.64575e-13 -1.66543e-13 -8.5249e-14 -4.10607e-13 -3.59433e-14 -1.1074e-14 1.18978e-13 7.8484e-14 -1.52671e-13 2.69226e-13 -3.49912e-13 5.66691e-14 -4.04088e-13 3.26238e-13 -7.17346e-14 -8.63889e-14 -1.99699e-13 1.81102e-13 -3.61277e-14 7.9229e-13 -6.85025e-13 6.79822e-14 -5.47866e-13 -1.00783e-13 5.20757e-13 -4.49702e-13 3.06175e-13 -1.09297e-12 3.43143e-13 9.45591e-13 -8.29971e-13 8.57789e-13 -7.36251e-13 -2.01086e-14 7.85409e-14 -9.18152e-14 3.88769e-13 -2.59151e-13 1.23829e-14 -1.58104e-13 -4.3536e-13 6.29705e-13 -6.35627e-14 -1.98017e-13 5.18852e-13 -1.42456e-12 9.53326e-13 -2.26307e-13 1.60444e-13 -3.38208e-13 -2.99369e-13 1.16822e-12 -7.85019e-13 3.92347e-13 1.50091e-14 -5.44466e-13 2.71162e-13 -7.34436e-13 8.99518e-13 2.83804e-12 7.71375e-11 2.36122e-09 5.976e-08 1.23955e-06 2.06204e-05 0.000267289 0.00259373 0.017787 0.0797543 0.218541 0.382381 0.520326 0.639496 0.74112 0.820373 0.878082 0.910804 0.907919 0.869258 0.787794 0.662532 0.503691 0.333377 0.181732 0.0757886 0.0231741 0.00556066 0.00116099 0.000221713 3.93019e-05 6.49625e-06 1.00345e-06 1.45086e-07 1.96621e-08 2.50062e-09 2.99388e-10 3.34847e-11 4.14631e-12 -1.74134e-14 -9.26365e-13 6.95202e-13 6.40161e-14 6.52928e-13 -3.14635e-13 -1.1305e-12 7.59896e-13 -4.60268e-14 1.65175e-13 -8.23265e-13 -1.49643e-12 4.07821e-13 6.74697e-13 8.25931e-15 -4.42362e-15 -6.26328e-13 -2.94664e-13 -5.06581e-13 1.36013e-12 2.75282e-13 -2.84651e-13 7.29784e-13 -3.45143e-13 1.29195e-12 -6.24011e-13 -5.07507e-13 4.19404e-13 -5.69236e-13 1.08307e-12 3.11416e-14 -1.15786e-12 3.28931e-13 3.7937e-13 9.924e-13 -1.07665e-12 -1.67521e-12 3.58959e-13 8.34541e-13 7.85169e-13 -9.58715e-13 -1.23177e-12 8.36801e-13 -1.79984e-14 -3.51646e-14 6.453e-13 2.04684e-13 4.035e-13 -1.09212e-12 1.23412e-13 9.43201e-13 5.58619e-14 2.39549e-13 -1.22955e-12 1.33341e-13 7.8972e-13 1.81525e-13 1.77863e-13 -1.51365e-12 -7.44747e-14 1.61188e-13 -6.32128e-13 -7.54349e-13 -1.03745e-12 3.48761e-13 1.80297e-12 -9.81414e-13 4.89132e-15 -2.0059e-12 2.08053e-12 5.28206e-13 -1.42062e-12 4.55255e-13 3.74348e-13 2.43325e-12 0 0 -2.67636e-14 1.79763e-14 -5.59187e-14 5.40093e-15 -3.46215e-15 -2.89338e-14 -6.79393e-14 -8.50529e-15 -7.5599e-14 -1.10242e-13 7.77257e-14 -1.84217e-13 1.39752e-13 -2.24909e-13 5.66316e-15 8.97619e-14 -2.46971e-13 1.33946e-13 1.11733e-14 2.18478e-14 -2.12533e-15 -8.84122e-14 -9.75379e-14 -1.42072e-13 1.77193e-14 1.73637e-13 1.29019e-14 6.25135e-14 -1.49813e-13 -1.23852e-13 -3.68239e-13 -5.56066e-14 1.99309e-13 1.00806e-13 7.73115e-14 -3.26737e-13 6.11478e-14 -3.3446e-13 2.43125e-13 -1.12128e-13 1.03437e-13 -3.70952e-14 -2.5293e-14 -1.63221e-13 2.78013e-13 -4.29103e-13 4.27591e-13 -4.0113e-13 6.7104e-14 -1.62438e-13 -4.74707e-13 2.5697e-13 -6.81478e-13 4.73712e-13 1.2923e-13 -4.86126e-13 7.37829e-13 -6.29556e-13 4.09981e-13 -1.74647e-13 -8.24089e-14 2.71511e-13 1.26225e-14 1.03837e-13 -2.42899e-13 -2.10357e-13 2.03611e-13 -1.05878e-13 -1.54267e-13 3.45895e-13 -7.05729e-13 4.35677e-13 -6.35369e-13 1.69432e-13 -3.03157e-13 3.05192e-13 2.69985e-13 -6.20755e-13 7.29834e-13 -6.44986e-13 7.52043e-14 6.25337e-13 -7.09447e-13 7.5882e-14 4.85983e-13 1.88288e-12 7.84962e-11 2.36199e-09 5.97582e-08 1.23955e-06 2.06204e-05 0.000267289 0.00259373 0.017787 0.0797543 0.218541 0.382381 0.520326 0.639496 0.74112 0.820373 0.878082 0.910804 0.907919 0.869258 0.787794 0.662532 0.503691 0.333377 0.181732 0.0757886 0.0231741 0.00556066 0.00116099 0.000221713 3.93019e-05 6.49625e-06 1.00346e-06 1.45085e-07 1.96631e-08 2.50066e-09 2.98641e-10 3.39468e-11 3.06193e-12 6.09705e-13 -1.26032e-13 -2.61576e-14 3.45229e-13 -3.8552e-13 1.66079e-13 -5.81267e-14 -2.49674e-14 2.73069e-13 -6.88553e-13 -2.284e-13 -6.10941e-13 -4.3675e-13 4.90073e-13 4.20298e-13 -4.31905e-14 -2.44784e-13 -6.70345e-13 -6.65141e-14 7.12798e-14 5.04489e-13 9.87794e-13 -4.19018e-13 4.31819e-13 -3.62616e-13 5.0149e-13 2.85105e-13 -8.81046e-13 6.71353e-13 -4.20829e-13 3.24924e-13 -3.37546e-14 1.44439e-13 -1.19634e-14 -7.13359e-13 4.73764e-13 1.7514e-14 -2.61293e-13 -4.84872e-13 -3.64582e-13 4.52229e-13 -1.77293e-13 5.87472e-14 2.22385e-13 -1.22795e-13 1.03147e-13 2.23785e-13 -1.84488e-13 9.43298e-13 -4.37367e-13 -1.77775e-13 9.98183e-14 -7.89981e-14 7.39631e-13 -3.7513e-13 -3.54845e-13 8.38673e-14 -3.16438e-13 6.73146e-13 -7.09685e-13 -7.41489e-13 -7.03234e-13 -7.42352e-13 4.47521e-13 1.66728e-13 -6.75917e-13 9.08113e-13 -7.12405e-13 1.83895e-13 -1.24595e-12 -1.85397e-13 1.74493e-12 1.28186e-13 9.9144e-13 -8.44989e-13 0 0 -1.64209e-14 -6.69742e-15 -1.32741e-14 -5.88419e-14 3.38925e-15 -5.17495e-15 -6.15551e-14 -1.15072e-13 -4.53751e-14 -4.57532e-14 -1.21358e-13 2.336e-14 3.61385e-14 2.61682e-14 -1.00666e-13 -9.94504e-14 -1.33692e-14 -2.30993e-14 2.73614e-15 6.72914e-14 -6.02639e-14 -2.64305e-13 -4.08509e-14 1.66873e-13 3.82044e-14 -8.67773e-14 4.11607e-14 1.40287e-14 -6.17672e-14 -2.20805e-13 -1.38195e-13 -2.61132e-13 1.02187e-13 3.20165e-13 -3.74736e-14 -1.78804e-13 -2.01347e-13 3.02777e-14 -8.04524e-14 -5.10036e-14 -1.34099e-13 6.47808e-14 6.91163e-14 1.0235e-13 -1.42933e-13 -2.06204e-13 -1.45924e-13 -1.40636e-13 -9.50369e-14 3.89895e-14 -4.45965e-13 -2.69596e-13 2.01287e-13 5.21452e-13 -1.1242e-14 -5.00026e-13 -4.18331e-13 6.0838e-13 2.06587e-13 -9.39855e-14 -2.4404e-13 4.12989e-13 2.6019e-13 -1.73757e-13 -3.25754e-13 -1.10791e-13 2.28429e-13 -3.66132e-15 -4.24664e-13 -3.85059e-13 3.15287e-13 2.37858e-13 -2.92756e-13 -7.1834e-13 7.22668e-14 6.0791e-13 -3.24011e-13 -4.92181e-13 -4.12339e-13 6.62548e-13 -4.45846e-13 3.30013e-13 6.15784e-13 5.31675e-14 -8.77688e-13 1.87626e-12 7.89264e-11 2.36193e-09 5.9759e-08 1.23955e-06 2.06204e-05 0.000267289 0.00259373 0.017787 0.0797543 0.218541 0.382381 0.520326 0.639496 0.74112 0.820373 0.878082 0.910804 0.907919 0.869258 0.787794 0.662532 0.503691 0.333377 0.181732 0.0757886 0.0231741 0.00556066 0.00116099 0.000221713 3.93019e-05 6.49625e-06 1.00345e-06 1.45085e-07 1.96624e-08 2.50139e-09 2.98653e-10 3.31573e-11 3.40584e-12 -1.27035e-13 1.12306e-12 7.5359e-14 -6.12051e-13 -3.2284e-14 -6.15806e-13 1.13179e-12 -5.3253e-14 -4.31117e-13 -1.45514e-13 -8.56177e-13 6.47032e-13 -3.71391e-13 -9.27983e-13 5.34429e-13 -2.65687e-13 3.9002e-13 8.51142e-13 -1.00029e-12 -8.81764e-13 9.86355e-13 9.90659e-14 9.07328e-13 -3.01536e-13 -4.61925e-13 5.40753e-13 -2.97972e-13 5.30774e-13 -1.33e-13 -3.1728e-13 -9.48233e-13 1.42448e-12 5.00457e-13 -3.73271e-13 -8.29577e-13 -6.20467e-14 9.40715e-13 -5.05232e-13 -8.16485e-13 -3.58993e-13 2.14567e-13 1.07352e-12 -9.32084e-13 -5.4032e-13 4.52881e-13 -2.03493e-13 5.76197e-13 8.28725e-13 -3.76392e-13 -1.19208e-13 -7.79979e-13 7.77199e-13 7.75317e-13 -3.43482e-13 -2.10689e-13 -7.25983e-13 3.73605e-13 6.40224e-13 -5.59156e-13 -2.48484e-13 -1.37658e-12 -2.16429e-13 -6.45574e-14 -5.87589e-13 6.87767e-13 -1.40185e-12 -1.90082e-13 1.88575e-12 -6.13308e-13 -1.85371e-12 3.63469e-13 1.35785e-12 1.59319e-12 -7.17911e-13 -8.33791e-13 0 0 3.72158e-14 -9.00779e-15 2.68729e-15 -2.55547e-14 -4.52142e-14 -1.02436e-13 -1.09074e-13 -8.21636e-14 -5.5898e-14 2.49285e-14 -6.29185e-14 1.13438e-13 -1.17204e-13 -1.39742e-14 -6.03844e-14 -1.64479e-13 2.9746e-14 -5.45634e-14 -9.14431e-14 -1.32437e-13 1.073e-14 7.52911e-14 -3.00361e-14 -5.6749e-14 5.56118e-14 7.10399e-14 -4.86545e-14 -1.44787e-13 6.44624e-15 -1.62209e-13 -1.65604e-13 -5.02209e-14 1.44936e-13 1.24857e-14 5.73868e-14 2.76122e-13 -1.87422e-13 -9.86538e-14 -3.80326e-13 -8.75017e-14 -1.41377e-13 -1.01234e-13 -4.03019e-14 3.67191e-13 1.44366e-13 2.4538e-13 -7.02644e-13 -3.88854e-13 -5.72982e-13 1.33098e-13 5.17087e-13 -1.08501e-13 -2.5066e-13 -2.68323e-13 3.02652e-13 1.49624e-13 9.3706e-15 1.16385e-13 -3.27842e-13 -2.08247e-13 -7.24802e-14 3.47441e-13 3.10397e-13 -1.26309e-13 -1.92945e-13 -3.22254e-13 -1.60437e-13 1.19774e-13 6.58157e-13 -2.17182e-13 -8.52292e-14 -4.80962e-13 6.85946e-14 -4.25064e-14 2.23661e-15 -6.01746e-13 -2.4351e-13 -6.01684e-14 -5.84118e-13 2.72836e-13 2.28661e-13 -9.02753e-14 -2.18107e-13 7.51171e-14 9.12067e-14 1.90317e-12 7.7457e-11 2.36134e-09 5.97608e-08 1.23955e-06 2.06204e-05 0.000267289 0.00259373 0.017787 0.0797543 0.218541 0.382381 0.520326 0.639496 0.74112 0.820373 0.878082 0.910804 0.907919 0.869258 0.787794 0.662532 0.503691 0.333377 0.181732 0.0757886 0.0231741 0.00556066 0.00116099 0.000221713 3.93019e-05 6.49625e-06 1.00346e-06 1.45085e-07 1.96622e-08 2.5009e-09 2.9887e-10 3.35505e-11 3.39433e-12 -3.39414e-15 3.60564e-13 3.86799e-14 1.96413e-13 -6.3248e-14 -4.79643e-13 3.36298e-13 -1.92038e-14 2.3969e-13 -3.18939e-13 -5.60691e-13 -3.68044e-13 -3.47287e-13 -4.42759e-13 -9.30844e-13 6.29219e-13 9.60862e-13 -1.25297e-13 -2.19103e-13 -3.57352e-13 1.05417e-14 1.37743e-13 5.68401e-13 5.82196e-14 -1.58868e-13 -5.62967e-13 6.21238e-13 1.09973e-12 -1.24396e-13 -2.68515e-13 -1.16855e-12 -1.04358e-13 -8.56028e-14 7.42235e-13 9.99816e-13 -1.02777e-12 -8.48354e-13 -8.86946e-13 9.61841e-13 -3.90594e-13 -9.46853e-13 2.00364e-13 6.26148e-13 4.50972e-14 -9.95071e-13 6.38314e-13 1.37026e-12 2.9153e-13 -1.11988e-12 -4.19685e-13 5.79335e-13 9.82443e-13 1.38896e-13 -1.17793e-12 -4.88769e-13 6.24518e-13 1.07614e-12 -3.02294e-13 -1.51711e-12 -4.29708e-13 9.78783e-14 1.07312e-14 -1.72379e-12 -1.13612e-12 1.65142e-13 2.44646e-12 7.81775e-13 -1.85361e-12 -1.78987e-12 5.02368e-13 8.02862e-13 5.49776e-14 -4.46457e-15 1.60839e-13 8.58448e-13 0 0 6.41236e-15 1.76471e-14 -5.27962e-14 1.4664e-14 -6.31931e-14 -1.06593e-13 -1.59174e-13 -5.19186e-14 -7.71914e-14 -1.52694e-14 1.27378e-13 -2.07121e-13 2.97506e-14 -1.87978e-13 5.62388e-14 3.68759e-14 -2.4643e-13 7.83811e-14 -5.9881e-14 -1.04746e-13 2.34268e-14 3.23515e-14 -9.53636e-14 -2.1654e-13 -1.32033e-14 3.70678e-14 -1.71184e-13 -7.97527e-14 -6.08047e-14 5.66092e-14 -2.37975e-13 1.24719e-13 2.99494e-13 9.05301e-14 2.59733e-13 3.06431e-14 3.9859e-14 -3.7015e-13 -1.03884e-14 -3.88756e-13 -2.0319e-13 -2.25269e-13 2.59449e-14 -2.37479e-14 2.81921e-13 -2.81988e-13 4.05836e-14 -5.8888e-13 -1.19554e-13 -6.37821e-14 -1.03053e-13 1.91206e-13 -7.83413e-13 2.3018e-13 2.50014e-13 -2.99949e-13 9.20477e-13 -7.99215e-13 3.11619e-13 -1.85833e-13 -1.06637e-13 4.46876e-13 1.51298e-14 2.16174e-13 -2.55404e-13 -4.79475e-13 -6.84282e-14 -4.01133e-14 6.51877e-13 4.56273e-13 -3.62077e-13 4.22952e-13 -6.98669e-13 1.98542e-13 -4.41395e-13 -5.66201e-13 -3.3055e-14 -1.01238e-12 1.80176e-13 -7.1868e-13 5.87991e-13 -4.40368e-14 -1.45859e-12 2.30456e-13 8.11044e-13 1.79818e-12 7.77989e-11 2.36189e-09 5.97588e-08 1.23955e-06 2.06204e-05 0.000267289 0.00259373 0.017787 0.0797543 0.218541 0.382381 0.520326 0.639496 0.74112 0.820373 0.878082 0.910804 0.907919 0.869258 0.787794 0.662532 0.503691 0.333377 0.181732 0.0757886 0.0231741 0.00556066 0.00116099 0.000221713 3.93019e-05 6.49625e-06 1.00346e-06 1.45085e-07 1.9663e-08 2.50028e-09 2.98663e-10 3.39876e-11 3.40412e-12 8.70027e-13 -3.10302e-13 -7.09172e-13 4.30366e-13 -6.09535e-14 5.38793e-13 -4.72687e-13 -1.97142e-13 1.36013e-13 -4.1194e-13 1.32976e-13 -1.15497e-12 -1.05523e-12 1.59479e-13 -2.18149e-13 7.90994e-13 2.39908e-13 -1.46504e-12 2.07538e-13 9.30084e-13 5.4277e-13 1.30152e-12 -6.92724e-13 3.9484e-13 -2.22042e-13 1.84761e-13 6.46163e-13 -9.63084e-13 6.37379e-13 -5.28153e-13 -5.49873e-14 -1.55422e-12 -1.23541e-12 2.52639e-13 1.57873e-12 7.19399e-13 -8.88182e-13 -1.66281e-12 -1.50798e-12 -1.24728e-12 3.5447e-13 7.34786e-13 1.47582e-12 2.11642e-13 -1.55941e-12 -2.55072e-14 4.34005e-13 -1.13846e-13 1.40476e-12 1.56517e-13 -5.54711e-14 -9.4522e-13 -3.28304e-13 1.41337e-12 2.24397e-13 -3.43643e-13 -4.60585e-13 -6.24609e-13 8.27237e-13 -2.92596e-14 -4.11432e-13 -1.80079e-12 -2.43793e-12 3.80951e-13 1.28237e-12 2.42607e-12 7.20073e-13 -3.41218e-12 -8.51168e-13 -2.12074e-13 5.40338e-13 1.56681e-12 -3.51293e-13 1.10797e-12 -2.71268e-13 0 0 -1.45874e-14 -3.05137e-14 4.52897e-14 -9.34046e-14 -7.26173e-14 -3.42271e-14 -5.91911e-14 -2.07295e-13 2.57333e-14 4.03743e-14 -1.9501e-13 -8.90067e-15 -2.30725e-13 2.2083e-13 -3.61193e-14 -1.06215e-13 1.41424e-13 -2.30313e-13 9.37746e-14 1.23679e-13 -6.51301e-14 -3.73799e-13 -2.59818e-13 6.39945e-14 -8.0581e-14 -3.36161e-13 7.60347e-14 -1.33444e-13 -4.366e-14 -1.66875e-13 2.79402e-13 -7.22438e-14 2.33852e-13 6.7329e-13 2.24519e-14 7.41329e-14 -4.2034e-13 2.43152e-13 -3.11367e-13 -1.54022e-13 -6.70432e-13 -1.30706e-13 1.21612e-13 -6.9634e-14 -6.02909e-13 1.83352e-13 -3.45599e-13 1.88918e-13 3.4708e-14 -9.16872e-14 -6.62038e-13 -9.03421e-13 1.0062e-12 -4.87909e-16 -4.30773e-14 1.86445e-14 -1.32008e-12 1.50246e-12 1.35882e-13 1.86043e-13 -3.13034e-13 3.90009e-13 2.9337e-13 -1.29371e-13 -2.78246e-13 -2.73414e-13 -2.01707e-13 5.14363e-13 -6.16918e-13 -3.13016e-13 2.00719e-12 -1.23695e-14 1.04025e-13 -1.51975e-12 2.40292e-14 3.38321e-13 -1.06645e-12 -4.79055e-13 -1.54078e-12 1.02439e-12 -3.08431e-13 -1.04264e-12 4.40648e-13 -4.69188e-13 -3.88149e-13 2.61483e-12 7.86818e-11 2.36219e-09 5.97576e-08 1.23955e-06 2.06204e-05 0.000267289 0.00259373 0.017787 0.0797543 0.218541 0.382381 0.520326 0.639496 0.74112 0.820373 0.878082 0.910804 0.907919 0.869258 0.787794 0.662532 0.503691 0.333377 0.181732 0.0757886 0.0231741 0.00556066 0.00116099 0.000221713 3.93019e-05 6.49625e-06 1.00345e-06 1.45087e-07 1.96623e-08 2.50083e-09 2.98997e-10 3.27799e-11 4.8537e-12 2.55949e-13 2.30084e-13 -5.97468e-13 -1.38264e-12 1.36399e-12 1.58467e-13 -3.68631e-13 3.47448e-13 -1.66175e-12 1.06525e-12 -6.91484e-13 -5.54328e-13 -8.77346e-13 -9.56938e-13 1.66191e-12 -1.25868e-13 -7.9863e-13 6.88311e-14 -1.52084e-12 2.02891e-12 2.30347e-12 2.65448e-13 8.60225e-13 -1.13861e-12 9.66986e-13 9.49969e-13 -1.62381e-12 -8.82585e-13 -6.54394e-13 7.70893e-13 -2.88051e-13 -1.14111e-12 -1.25865e-12 -1.32244e-12 1.91779e-12 1.34607e-12 9.15336e-14 -1.68064e-12 -4.76832e-12 -9.17018e-13 1.16861e-12 2.3387e-12 5.54475e-13 -1.21032e-12 -1.24824e-14 -1.29562e-12 -9.63005e-13 1.61918e-12 1.31778e-12 1.91213e-12 -1.53082e-12 -2.4447e-12 1.01378e-12 1.78683e-12 1.88855e-12 -1.88888e-12 -2.31245e-12 1.44656e-12 7.10441e-13 1.64882e-12 -2.12761e-12 -3.28156e-12 -8.27046e-13 -7.3523e-14 3.62529e-12 3.1031e-13 -3.30121e-12 2.08407e-12 -1.72291e-12 -5.63872e-13 1.10089e-12 8.28882e-13 2.69161e-12 -1.15009e-12 1.96213e-13 0
				</DataArray>
				<DataArray Name="VitesseY" type="Float32" format="ascii">