<?xml version="1.0"?>
<VTKFile type="PolyData">
	<PolyData>
		<Piece NumberOfPoints="1206" NumberOfPolys="1000">
			<Points>
				<DataArray type="Float32" NumberOfComponents="3" format="ascii">
 0 0 0 0.005 0 0 0.01 0 0 0.015 0 0 0.02 0 0 0.025 0 0 0.03 0 0 0.035 0 0 0.04 0 0 0.045 0 0 0.05 0 0 0.055 0 0 0.06 0 0 0.065 0 0 0.07 0 0 0.075 0 0 0.08 0 0 0.085 0 0 0.09 0 0 0.095 0 0 0.1 0 0 0.105 0 0 0.11 0 0 0.115 0 0 0.12 0 0 0.125 0 0 0.13 0 0 0.135 0 0 0.14 0 0 0.145 0 0 0.15 0 0 0.155 0 0 0.16 0 0 0.165 0 0 0.17 0 0 0.175 0 0 0.18 0 0 0.185 0 0 0.19 0 0 0.195 0 0 0.2 0 0 0.205 0 0 0.21 0 0 0.215 0 0 0.22 0 0 0.225 0 0 0.23 0 0 0.235 0 0 0.24 0 0 0.245 0 0 0.25 0 0 0.255 0 0 0.26 0 0 0.265 0 0 0.27 0 0 0.275 0 0 0.28 0 0 0.285 0 0 0.29 0 0 0.295 0 0 0.3 0 0 0.305 0 0 0.31 0 0 0.315 0 0 0.32 0 0 0.325 0 0 0.33 0 0 0.335 0 0 0.34 0 0 0.345 0 0 0.35 0 0 0.355 0 0 0.36 0 0 0.365 0 0 0.37 0 0 0.375 0 0 0.38 0 0 0.385 0 0 0.39 0 0 0.395 0 0 0.4 0 0 0.405 0 0 0.41 0 0 0.415 0 0 0.42 0 0 0.425 0 0 0.43 0 0 0.435 0 0 0.44 0 0 0.445 0 0 0.45 0 0 0.455 0 0 0.46 0 0 0.465 0 0 0.47 0 0 0.475 0 0 0.48 0 0 0.485 0 0 0.49 0 0 0.495 0 0 0.5 0 0 0.505 0 0 0.51 0 0 0.515 0 0 0.52 0 0 0.525 0 0 0.53 0 0 0.535 0 0 0.54 0 0 0.545 0 0 0.55 0 0 0.555 0 0 0.56 0 0 0.565 0 0 0.57 0 0 0.575 0 0 0.58 0 0 0.585 0 0 0.59 0 0 0.595 0 0 0.6 0 0 0.605 0 0 0.61 0 0 0.615 0 0 0.62 0 0 0.625 0 0 0.63 0 0 0.635 0 0 0.64 0 0 0.645 0 0 0.65 0 0 0.655 0 0 0.66 0 0 0.665 0 0 0.67 0 0 0.675 0 0 0.68 0 0 0.685 0 0 0.69 0 0 0.695 0 0 0.7 0 0 0.705 0 0 0.71 0 0 0.715 0 0 0.72 0 0 0.725 0 0 0.73 0 0 0.735 0 0 0.74 0 0 0.745 0 0 0.75 0 0 0.755 0 0 0.76 0 0 0.765 0 0 0.77 0 0 0.775 0 0 0.78 0 0 0.785 0 0 0.79 0 0 0.795 0 0 0.8 0 0 0.805 0 0 0.81 0 0 0.815 0 0 0.82 0 0 0.825 0 0 0.83 0 0 0.835 0 0 0.84 0 0 0.845 0 0 0.85 0 0 0.855 0 0 0.86 0 0 0.865 0 0 0.87 0 0 0.875 0 0 0.88 0 0 0.885 0 0 0.89 0 0 0.895 0 0 0.9 0 0 0.905 0 0 0.91 0 0 0.915 0 0 0.92 0 0 0.925 0 0 0.93 0 0 0.935 0 0 0.94 0 0 0.945 0 0 0.95 0 0 0.955 0 0 0.96 0 0 0.965 0 0 0.97 0 0 0.975 0 0 0.98 0 0 0.985 0 0 0.99 0 0 0.995 0 0 1 0 0 0 0.02 0 0.005 0.02 0 0.01 0.02 0 0.015 0.02 0 0.02 0.02 0 0.025 0.02 0 0.03 0.02 0 0.035 0.02 0 0.04 0.02 0 0.045 0.02 0 0.05 0.02 0 0.055 0.02 0 0.06 0.02 0 0.065 0.02 0 0.07 0.02 0 0.075 0.02 0 0.08 0.02 0 0.085 0.02 0 0.09 0.02 0 0.095 0.02 0 0.1 0.02 0 0.105 0.02 0 0.11 0.02 0 0.115 0.02 0 0.12 0.02 0 0.125 0.02 0 0.13 0.02 0 0.135 0.02 0 0.14 0.02 0 0.145 0.02 0 0.15 0.02 0 0.155 0.02 0 0.16 0.02 0 0.165 0.02 0 0.17 0.02 0 0.175 0.02 0 0.18 0.02 0 0.185 0.02 0 0.19 0.02 0 0.195 0.02 0 0.2 0.02 0 0.205 0.02 0 0.21 0.02 0 0.215 0.02 0 0.22 0.02 0 0.225 0.02 0 0.23 0.02 0 0.235 0.02 0 0.24 0.02 0 0.245 0.02 0 0.25 0.02 0 0.255 0.02 0 0.26 0.02 0 0.265 0.02 0 0.27 0.02 0 0.275 0.02 0 0.28 0.02 0 0.285 0.02 0 0.29 0.02 0 0.295 0.02 0 0.3 0.02 0 0.305 0.02 0 0.31 0.02 0 0.315 0.02 0 0.32 0.02 0 0.325 0.02 0 0.33 0.02 0 0.335 0.02 0 0.34 0.02 0 0.345 0.02 0 0.35 0.02 0 0.355 0.02 0 0.36 0.02 0 0.365 0.02 0 0.37 0.02 0 0.375 0.02 0 0.38 0.02 0 0.385 0.02 0 0.39 0.02 0 0.395 0.02 0 0.4 0.02 0 0.405 0.02 0 0.41 0.02 0 0.415 0.02 0 0.42 0.02 0 0.425 0.02 0 0.43 0.02 0 0.435 0.02 0 0.44 0.02 0 0.445 0.02 0 0.45 0.02 0 0.455 0.02 0 0.46 0.02 0 0.465 0.02 0 0.47 0.02 0 0.475 0.02 0 0.48 0.02 0 0.485 0.02 0 0.49 0.02 0 0.495 0.02 0 0.5 0.02 0 0.505 0.02 0 0.51 0.02 0 0.515 0.02 0 0.52 0.02 0 0.525 0.02 0 0.53 0.02 0 0.535 0.02 0 0.54 0.02 0 0.545 0.02 0 0.55 0.02 0 0.555 0.02 0 0.56 0.02 0 0.565 0.02 0 0.57 0.02 0 0.575 0.02 0 0.58 0.02 0 0.585 0.02 0 0.59 0.02 0 0.595 0.02 0 0.6 0.02 0 0.605 0.02 0 0.61 0.02 0 0.615 0.02 0 0.62 0.02 0 0.625 0.02 0 0.63 0.02 0 0.635 0.02 0 0.64 0.02 0 0.645 0.02 0 0.65 0.02 0 0.655 0.02 0 0.66 0.02 0 0.665 0.02 0 0.67 0.02 0 0.675 0.02 0 0.68 0.02 0 0.685 0.02 0 0.69 0.02 0 0.695 0.02 0 0.7 0.02 0 0.705 0.02 0 0.71 0.02 0 0.715 0.02 0 0.72 0.02 0 0.725 0.02 0 0.73 0.02 0 0.735 0.02 0 0.74 0.02 0 0.745 0.02 0 0.75 0.02 0 0.755 0.02 0 0.76 0.02 0 0.765 0.02 0 0.77 0.02 0 0.775 0.02 0 0.78 0.02 0 0.785 0.02 0 0.79 0.02 0 0.795 0.02 0 0.8 0.02 0 0.805 0.02 0 0.81 0.02 0 0.815 0.02 0 0.82 0.02 0 0.825 0.02 0 0.83 0.02 0 0.835 0.02 0 0.84 0.02 0 0.845 0.02 0 0.85 0.02 0 0.855 0.02 0 0.86 0.02 0 0.865 0.02 0 0.87 0.02 0 0.875 0.02 0 0.88 0.02 0 0.885 0.02 0 0.89 0.02 0 0.895 0.02 0 0.9 0.02 0 0.905 0.02 0 0.91 0.02 0 0.915 0.02 0 0.92 0.02 0 0.925 0.02 0 0.93 0.02 0 0.935 0.02 0 0.94 0.02 0 0.945 0.02 0 0.95 0.02 0 0.955 0.02 0 0.96 0.02 0 0.965 0.02 0 0.97 0.02 0 0.975 0.02 0 0.98 0.02 0 0.985 0.02 0 0.99 0.02 0 0.995 0.02 0 1 0.02 0 0 0.04 0 0.005 0.04 0 0.01 0.04 0 0.015 0.04 0 0.02 0.04 0 0.025 0.04 0 0.03 0.04 0 0.035 0.04 0 0.04 0.04 0 0.045 0.04 0 0.05 0.04 0 0.055 0.04 0 0.06 0.04 0 0.065 0.04 0 0.07 0.04 0 0.075 0.04 0 0.08 0.04 0 0.085 0.04 0 0.09 0.04 0 0.095 0.04 0 0.1 0.04 0 0.105 0.04 0 0.11 0.04 0 0.115 0.04 0 0.12 0.04 0 0.125 0.04 0 0.13 0.04 0 0.135 0.04 0 0.14 0.04 0 0.145 0.04 0 0.15 0.04 0 0.155 0.04 0 0.16 0.04 0 0.165 0.04 0 0.17 0.04 0 0.175 0.04 0 0.18 0.04 0 0.185 0.04 0 0.19 0.04 0 0.195 0.04 0 0.2 0.04 0 0.205 0.04 0 0.21 0.04 0 0.215 0.04 0 0.22 0.04 0 0.225 0.04 0 0.23 0.04 0 0.235 0.04 0 0.24 0.04 0 0.245 0.04 0 0.25 0.04 0 0.255 0.04 0 0.26 0.04 0 0.265 0.04 0 0.27 0.04 0 0.275 0.04 0 0.28 0.04 0 0.285 0.04 0 0.29 0.04 0 0.295 0.04 0 0.3 0.04 0 0.305 0.04 0 0.31 0.04 0 0.315 0.04 0 0.32 0.04 0 0.325 0.04 0 0.33 0.04 0 0.335 0.04 0 0.34 0.04 0 0.345 0.04 0 0.35 0.04 0 0.355 0.04 0 0.36 0.04 0 0.365 0.04 0 0.37 0.04 0 0.375 0.04 0 0.38 0.04 0 0.385 0.04 0 0.39 0.04 0 0.395 0.04 0 0.4 0.04 0 0.405 0.04 0 0.41 0.04 0 0.415 0.04 0 0.42 0.04 0 0.425 0.04 0 0.43 0.04 0 0.435 0.04 0 0.44 0.04 0 0.445 0.04 0 0.45 0.04 0 0.455 0.04 0 0.46 0.04 0 0.465 0.04 0 0.47 0.04 0 0.475 0.04 0 0.48 0.04 0 0.485 0.04 0 0.49 0.04 0 0.495 0.04 0 0.5 0.04 0 0.505 0.04 0 0.51 0.04 0 0.515 0.04 0 0.52 0.04 0 0.525 0.04 0 0.53 0.04 0 0.535 0.04 0 0.54 0.04 0 0.545 0.04 0 0.55 0.04 0 0.555 0.04 0 0.56 0.04 0 0.565 0.04 0 0.57 0.04 0 0.575 0.04 0 0.58 0.04 0 0.585 0.04 0 0.59 0.04 0 0.595 0.04 0 0.6 0.04 0 0.605 0.04 0 0.61 0.04 0 0.615 0.04 0 0.62 0.04 0 0.625 0.04 0 0.63 0.04 0 0.635 0.04 0 0.64 0.04 0 0.645 0.04 0 0.65 0.04 0 0.655 0.04 0 0.66 0.04 0 0.665 0.04 0 0.67 0.04 0 0.675 0.04 0 0.68 0.04 0 0.685 0.04 0 0.69 0.04 0 0.695 0.04 0 0.7 0.04 0 0.705 0.04 0 0.71 0.04 0 0.715 0.04 0 0.72 0.04 0 0.725 0.04 0 0.73 0.04 0 0.735 0.04 0 0.74 0.04 0 0.745 0.04 0 0.75 0.04 0 0.755 0.04 0 0.76 0.04 0 0.765 0.04 0 0.77 0.04 0 0.775 0.04 0 0.78 0.04 0 0.785 0.04 0 0.79 0.04 0 0.795 0.04 0 0.8 0.04 0 0.805 0.04 0 0.81 0.04 0 0.815 0.04 0 0.82 0.04 0 0.825 0.04 0 0.83 0.04 0 0.835 0.04 0 0.84 0.04 0 0.845 0.04 0 0.85 0.04 0 0.855 0.04 0 0.86 0.04 0 0.865 0.04 0 0.87 0.04 0 0.875 0.04 0 0.88 0.04 0 0.885 0.04 0 0.89 0.04 0 0.895 0.04 0 0.9 0.04 0 0.905 0.04 0 0.91 0.04 0 0.915 0.04 0 0.92 0.04 0 0.925 0.04 0 0.93 0.04 0 0.935 0.04 0 0.94 0.04 0 0.945 0.04 0 0.95 0.04 0 0.955 0.04 0 0.96 0.04 0 0.965 0.04 0 0.97 0.04 0 0.975 0.04 0 0.98 0.04 0 0.985 0.04 0 0.99 0.04 0 0.995 0.04 0 1 0.04 0 0 0.06 0 0.005 0.06 0 0.01 0.06 0 0.015 0.06 0 0.02 0.06 0 0.025 0.06 0 0.03 0.06 0 0.035 0.06 0 0.04 0.06 0 0.045 0.06 0 0.05 0.06 0 0.055 0.06 0 0.06 0.06 0 0.065 0.06 0 0.07 0.06 0 0.075 0.06 0 0.08 0.06 0 0.085 0.06 0 0.09 0.06 0 0.095 0.06 0 0.1 0.06 0 0.105 0.06 0 0.11 0.06 0 0.115 0.06 0 0.12 0.06 0 0.125 0.06 0 0.13 0.06 0 0.135 0.06 0 0.14 0.06 0 0.145 0.06 0 0.15 0.06 0 0.155 0.06 0 0.16 0.06 0 0.165 0.06 0 0.17 0.06 0 0.175 0.06 0 0.18 0.06 0 0.185 0.06 0 0.19 0.06 0 0.195 0.06 0 0.2 0.06 0 0.205 0.06 0 0.21 0.06 0 0.215 0.06 0 0.22 0.06 0 0.225 0.06 0 0.23 0.06 0 0.235 0.06 0 0.24 0.06 0 0.245 0.06 0 0.25 0.06 0 0.255 0.06 0 0.26 0.06 0 0.265 0.06 0 0.27 0.06 0 0.275 0.06 0 0.28 0.06 0 0.285 0.06 0 0.29 0.06 0 0.295 0.06 0 0.3 0.06 0 0.305 0.06 0 0.31 0.06 0 0.315 0.06 0 0.32 0.06 0 0.325 0.06 0 0.33 0.06 0 0.335 0.06 0 0.34 0.06 0 0.345 0.06 0 0.35 0.06 0 0.355 0.06 0 0.36 0.06 0 0.365 0.06 0 0.37 0.06 0 0.375 0.06 0 0.38 0.06 0 0.385 0.06 0 0.39 0.06 0 0.395 0.06 0 0.4 0.06 0 0.405 0.06 0 0.41 0.06 0 0.415 0.06 0 0.42 0.06 0 0.425 0.06 0 0.43 0.06 0 0.435 0.06 0 0.44 0.06 0 0.445 0.06 0 0.45 0.06 0 0.455 0.06 0 0.46 0.06 0 0.465 0.06 0 0.47 0.06 0 0.475 0.06 0 0.48 0.06 0 0.485 0.06 0 0.49 0.06 0 0.495 0.06 0 0.5 0.06 0 0.505 0.06 0 0.51 0.06 0 0.515 0.06 0 0.52 0.06 0 0.525 0.06 0 0.53 0.06 0 0.535 0.06 0 0.54 0.06 0 0.545 0.06 0 0.55 0.06 0 0.555 0.06 0 0.56 0.06 0 0.565 0.06 0 0.57 0.06 0 0.575 0.06 0 0.58 0.06 0 0.585 0.06 0 0.59 0.06 0 0.595 0.06 0 0.6 0.06 0 0.605 0.06 0 0.61 0.06 0 0.615 0.06 0 0.62 0.06 0 0.625 0.06 0 0.63 0.06 0 0.635 0.06 0 0.64 0.06 0 0.645 0.06 0 0.65 0.06 0 0.655 0.06 0 0.66 0.06 0 0.665 0.06 0 0.67 0.06 0 0.675 0.06 0 0.68 0.06 0 0.685 0.06 0 0.69 0.06 0 0.695 0.06 0 0.7 0.06 0 0.705 0.06 0 0.71 0.06 0 0.715 0.06 0 0.72 0.06 0 0.725 0.06 0 0.73 0.06 0 0.735 0.06 0 0.74 0.06 0 0.745 0.06 0 0.75 0.06 0 0.755 0.06 0 0.76 0.06 0 0.765 0.06 0 0.77 0.06 0 0.775 0.06 0 0.78 0.06 0 0.785 0.06 0 0.79 0.06 0 0.795 0.06 0 0.8 0.06 0 0.805 0.06 0 0.81 0.06 0 0.815 0.06 0 0.82 0.06 0 0.825 0.06 0 0.83 0.06 0 0.835 0.06 0 0.84 0.06 0 0.845 0.06 0 0.85 0.06 0 0.855 0.06 0 0.86 0.06 0 0.865 0.06 0 0.87 0.06 0 0.875 0.06 0 0.88 0.06 0 0.885 0.06 0 0.89 0.06 0 0.895 0.06 0 0.9 0.06 0 0.905 0.06 0 0.91 0.06 0 0.915 0.06 0 0.92 0.06 0 0.925 0.06 0 0.93 0.06 0 0.935 0.06 0 0.94 0.06 0 0.945 0.06 0 0.95 0.06 0 0.955 0.06 0 0.96 0.06 0 0.965 0.06 0 0.97 0.06 0 0.975 0.06 0 0.98 0.06 0 0.985 0.06 0 0.99 0.06 0 0.995 0.06 0 1 0.06 0 0 0.08 0 0.005 0.08 0 0.01 0.08 0 0.015 0.08 0 0.02 0.08 0 0.025 0.08 0 0.03 0.08 0 0.035 0.08 0 0.04 0.08 0 0.045 0.08 0 0.05 0.08 0 0.055 0.08 0 0.06 0.08 0 0.065 0.08 0 0.07 0.08 0 0.075 0.08 0 0.08 0.08 0 0.085 0.08 0 0.09 0.08 0 0.095 0.08 0 0.1 0.08 0 0.105 0.08 0 0.11 0.08 0 0.115 0.08 0 0.12 0.08 0 0.125 0.08 0 0.13 0.08 0 0.135 0.08 0 0.14 0.08 0 0.145 0.08 0 0.15 0.08 0 0.155 0.08 0 0.16 0.08 0 0.165 0.08 0
[...]
			<PointData Scalars="VitesseX">
				<DataArray Name="VitesseX" type="Float32" format="ascii">
 0 1.0069e-14 -7.08464e-15 -3.03811e-14 2.31279e-15 -6.92811e-16 -3.91069e-14 8.77938e-15 1.93548e-14 4.06655e-14 1.50344e-14 3.70719e-15 -6.49557e-14 7.0356e-14 -7.1714e-14 -1.5002e-14 2.34359e-14 -7.00817e-14 6.0134e-15 -6.70316e-14 -8.09603e-15 -1.40399e-14 6.13228e-14 -9.42285e-14 -1.07273e-13 1.5752e-14 -3.17474e-14 -1.39901e-13 -1.30634e-13 -1.62427e-13 -1.23415e-13 -2.0725e-13 -1.41886e-13 -1.31419e-13 -2.13471e-13 -1.54636e-13 -4.93492e-14 1.31645e-13 9.03021e-14 1.10101e-13 1.3689e-14 1.39408e-13 3.24426e-14 -1.28351e-13 -2.557e-14 -7.75822e-14 -9.38868e-14 -1.8152e-13 -8.32806e-14 -1.34626e-13 -1.46657e-13 2.02225e-13 -8.04038e-14 -4.05406e-13 -7.30854e-14 -3.00899e-14 -2.03498e-13 -9.68842e-14 -2.66228e-13 1.29171e-13 5.49317e-13 6.33307e-12 5.36926e-11 4.32783e-10 3.25042e-09 2.26598e-08 1.46022e-07 8.65864e-07 4.70016e-06 2.32143e-05 0.000103559 0.000413532 0.0014618 0.00451321 0.01199 0.0270513 0.0515935 0.0841597 0.12091 0.158771 0.196585 0.234141 0.27141 0.308379 0.345037 0.381369 0.417358 0.452975 0.488185 0.522944 0.557193 0.590859 0.62385 0.656055 0.687338 0.717535 0.746457 0.773885 0.799576 0.823276 0.84473 0.863711 0.880049 0.893661 0.904578 0.912959 0.919079 0.923296 0.926012 0.927615 0.928451 0.928799 0.928844 0.928772 0.928639 0.928468 0.928276 0.928075 0.927873 0.927672 0.927472 0.927266 0.92704 0.926765 0.926387 0.925801 0.924822 0.923124 0.920155 0.915016 0.906304 0.891935 0.869019 0.833888 0.782464 0.711147 0.618302 0.506184 0.382566 0.26067 0.155971 0.0801804 0.0354244 0.0139298 0.0051168 0.00181581 0.000632365 0.000217359 7.38572e-05 2.48107e-05 8.23604e-06 2.69997e-06 8.73548e-07 2.78763e-07 8.76918e-08 2.71793e-08 8.29582e-09 2.49223e-09 7.36824e-10 2.14068e-10 6.14894e-11 1.68201e-11 4.32253e-12 1.10412e-12 -5.22292e-13 1.19909e-13 -1.81738e-13 -1.43178e-13 1.8144e-13 -1.07487e-12 -3.3815e-13 -8.32475e-14 -5.20657e-13 6.0483e-13 -2.47309e-13 3.04047e-13 -2.79929e-13 -1.10428e-14 3.16022e-13 -2.09236e-13 2.82648e-13 -2.53642e-13 -6.36249e-13 4.11702e-13 -3.29887e-13 2.0599e-13 -4.27185e-13 -2.28332e-13 5.24957e-13 -5.0553e-13 1.67791e-13 5.74104e-13 6.45114e-14 6.23178e-13 -7.27518e-14 -1.02505e-13 8.73889e-13 -8.42718e-13 6.56112e-13 -8.94793e-13 0 0 -1.15786e-14 -1.03252e-14 -1.14113e-14 -4.50361e-14 -2.7779e-14 2.08862e-14 -3.40623e-15 2.83993e-14 1.55613e-14 1.08374e-14 1.76227e-14 5.6095e-14 -7.56363e-14 1.66491e-14 -9.1852e-15 -4.6431e-14 -3.86422e-15 -4.82022e-14 1.41897e-14 -1.55844e-14 -9.48026e-15 -9.88425e-14 2.10424e-15 3.25713e-14 -7.49478e-14 -8.91917e-14 -1.60218e-13 -1.56914e-13 -1.04767e-13 -1.81228e-13 -1.25479e-13 -2.16472e-13 -1.88642e-13 -6.27116e-14 -9.42046e-14 -2.72031e-14 -2.3514e-14 1.20222e-13 1.6349e-14 7.69264e-14 -9.41169e-14 4.40551e-15 1.0228e-13 -1.28698e-13 -1.27791e-13 -1.24658e-13 -1.22995e-13 -1.46235e-13 -2.67121e-14 -2.93617e-14 -3.12072e-13 -7.03286e-14 1.45901e-13 -1.26279e-13 -1.96863e-13 -7.28868e-14 -1.72847e-13 -1.33302e-14 -1.08362e-13 7.05879e-13 6.23693e-12 5.362e-11 4.32777e-10 3.2502e-09 2.26601e-08 1.46022e-07 8.65864e-07 4.70016e-06 2.32143e-05 0.000103559 0.000413532 0.0014618 0.00451321 0.01199 0.0270513 0.0515935 0.0841597 0.12091 0.158771 0.196585 0.234141 0.27141 0.308379 0.345037 0.381369 0.417358 0.452975 0.488185 0.522944 0.557193 0.590859 0.62385 0.656055 0.687338 0.717535 0.746457 0.773885 0.799576 0.823276 0.84473 0.863711 0.880049 0.893661 0.904578 0.912959 0.919079 0.923296 0.926012 0.927615 0.928451 0.928799 0.928844 0.928772 0.928639 0.928468 0.928276 0.928075 0.927873 0.927672 0.927472 0.927266 0.92704 0.926765 0.926387 0.925801 0.924822 0.923124 0.920155 0.915016 0.906304 0.891935 0.869019 0.833888 0.782464 0.711147 0.618302 0.506184 0.382566 0.26067 0.155971 0.0801804 0.0354244 0.0139298 0.0051168 0.00181581 0.000632365 0.000217359 7.38572e-05 2.48107e-05 8.23604e-06 2.69997e-06 8.73548e-07 2.78763e-07 8.76923e-08 2.71792e-08 8.29601e-09 2.49276e-09 7.36847e-10 2.14228e-10 6.07018e-11 1.72232e-11 4.53143e-12 1.08905e-12 4.72843e-13 -4.96924e-13 -3.36627e-13 -4.44221e-13 -6.1417e-13 1.19904e-13 -3.49856e-13 -3.42999e-13 -5.03763e-14 -5.11438e-13 3.59765e-13 -1.33617e-13 1.21451e-13 -6.92666e-14 -5.48087e-14 2.31723e-13 -1.07616e-13 -9.44571e-14 -6.0355e-14 -4.34277e-13 1.10283e-14 -1.70278e-13 7.47648e-16 -1.0992e-13 -5.93097e-13 3.66781e-13 1.38054e-13 -9.14867e-14 4.65819e-13 1.51468e-13 7.29349e-13 1.94416e-13 -7.30317e-13 6.36206e-13 -3.73503e-13 4.04694e-13 0 0 -1.63821e-14 -1.63118e-14 -2.7278e-14 -1.82798e-14 -3.30321e-14 -2.1364e-14 -6.16234e-15 5.90528e-15 1.92011e-15 2.52492e-14 4.46387e-15 2.0843e-14 5.16829e-14 -1.57075e-14 -1.0505e-14 1.81039e-14 -3.22863e-14 2.41005e-14 -5.09879e-14 -3.07907e-14 -1.24263e-14 -1.81227e-14 -5.36944e-14 -5.56975e-14 -8.13492e-14 -7.77584e-14 -1.09645e-13 -1.58933e-13 -1.03143e-13 -1.28906e-13 -1.61204e-13 -1.27212e-13 -1.07261e-13 -1.45244e-13 2.63002e-14 -4.59195e-14 7.96897e-14 -1.20176e-13 -6.28707e-14 -1.92227e-14 1.62961e-14 -5.07846e-15 -1.03085e-13 -8.24516e-14 -7.48207e-14 -1.41861e-13 -1.8925e-13 -2.71601e-14 -1.83604e-14 -3.79228e-14 -9.70816e-14 -3.61774e-14 -6.3827e-14 -6.44054e-14 -3.15802e-14 -1.53936e-13 -6.6713e-14 -9.74217e-14 -2.56762e-14 6.39234e-13 6.20196e-12 5.35394e-11 4.32501e-10 3.25036e-09 2.26603e-08 1.46022e-07 8.65864e-07 4.70016e-06 2.32143e-05 0.000103559 0.000413532 0.0014618 0.00451321 0.01199 0.0270513 0.0515935 0.0841597 0.12091 0.158771 0.196585 0.234141 0.27141 0.308379 0.345037 0.381369 0.417358 0.452975 0.488185 0.522944 0.557193 0.590859 0.62385 0.656055 0.687338 0.717535 0.746457 0.773885 0.799576 0.823276 0.84473 0.863711 0.880049 0.893661 0.904578 0.912959 0.919079 0.923296 0.926012 0.927615 0.928451 0.928799 0.928844 0.928772 0.928639 0.928468 0.928276 0.928075 0.927873 0.927672 0.927472 0.927266 0.92704 0.926765 0.926387 0.925801 0.924822 0.923124 0.920155 0.915016 0.906304 0.891935 0.869019 0.833888 0.782464 0.711147 0.618302 0.506184 0.382566 0.26067 0.155971 0.0801804 0.0354244 0.0139298 0.0051168 0.00181581 0.000632365 0.000217359 7.38572e-05 2.48107e-05 8.23604e-06 2.69997e-06 8.73548e-07 2.78763e-07 8.76922e-08 2.71796e-08 8.29632e-09 2.49268e-09 7.3695e-10 2.14224e-10 6.13729e-11 1.72244e-11 4.81381e-12 1.05307e-12 1.2351e-13 -3.74401e-14 -2.62383e-13 -2.37876e-13 -4.62929e-13 -5.90209e-13 -2.02813e-13 -4.39594e-13 -2.10152e-13 1.10034e-13 -1.86298e-13 -1.08404e-13 -4.16509e-14 -5.44722e-14 1.92904e-13 3.40807e-14 -1.42051e-13 -2.29637e-13 -4.62724e-14 -1.38605e-13 -2.82712e-13 -2.99885e-13 -2.5912e-13 -3.92669e-13 9.67117e-14 -1.54962e-13 4.08308e-14 1.51041e-13 8.5939e-14 1.53091e-13 -6.82778e-14 -4.85073e-14 5.24606e-13 2.46034e-13 -1.71275e-13 -3.78219e-13 0 0 -6.97484e-15 -1.63266e-14 -1.31437e-14 -1.81152e-14 -1.1467e-14 -2.80957e-14 -1.41869e-14 -3.82046e-14 -6.99213e-15 1.49236e-14 4.37409e-15 -1.55175e-14 3.5533e-14 3.49563e-14 2.91412e-14 4.15552e-14 2.08929e-14 6.92719e-15 -4.57418e-14 6.06012e-17 -5.23228e-14 -6.96146e-14 -4.88437e-14 -1.00574e-13 -5.15114e-14 -8.62044e-14 -1.16197e-13 -8.57748e-14 -1.26874e-13 -9.03862e-14 -9.43736e-14 -8.84194e-14 -3.13211e-14 -1.24744e-13 -9.21515e-14 -1.74479e-14 2.01141e-14 2.44607e-14 -3.77625e-15 1.93796e-15 -4.33798e-14 -8.40486e-14 -9.2149e-14 -1.20739e-13 -8.26686e-14 -9.41322e-14 -2.17286e-13 -3.63132e-14 1.52898e-14 5.92584e-14 1.24768e-13 -3.01818e-14 -2.66703e-13 3.18579e-14 -4.45662e-14 -7.81902e-14 -4.12845e-14 -1.63295e-13 -4.26021e-14 5.16675e-13 6.22087e-12 5.37e-11 4.32772e-10 3.2504e-09 2.266e-08 1.46022e-07 8.65864e-07 4.70016e-06 2.32143e-05 0.000103559 0.000413532 0.0014618 0.00451321 0.01199 0.0270513 0.0515935 0.0841597 0.12091 0.158771 0.196585 0.234141 0.27141 0.308379 0.345037 0.381369 0.417358 0.452975 0.488185 0.522944 0.557193 0.590859 0.62385 0.656055 0.687338 0.717535 0.746457 0.773885 0.799576 0.823276 0.84473 0.863711 0.880049 0.893661 0.904578 0.912959 0.919079 0.923296 0.926012 0.927615 0.928451 0.928799 0.928844 0.928772 0.928639 0.928468 0.928276 0.928075 0.927873 0.927672 0.927472 0.927266 0.92704 0.926765 0.926387 0.925801 0.924822 0.923124 0.920155 0.915016 0.906304 0.891935 0.869019 0.833888 0.782464 0.711147 0.618302 0.506184 0.382566 0.26067 0.155971 0.0801804 0.0354244 0.0139298 0.0051168 0.00181581 0.000632365 0.000217359 7.38572e-05 2.48107e-05 8.23604e-06 2.69997e-06 8.73548e-07 2.78763e-07 8.76923e-08 2.71796e-08 8.29623e-09 2.49288e-09 7.37075e-10 2.14501e-10 6.14724e-11 1.71336e-11 4.69311e-12 1.07318e-12 4.21473e-14 -1.49931e-13 -4.56481e-14 -1.36079e-13 -2.60779e-14 -6.38859e-13 -5.98768e-13 -2.1461e-13 -2.953e-13 4.17575e-13 -2.05808e-13 2.10392e-13 6.29185e-14 -2.00454e-13 -1.39226e-13 -1.85461e-13 5.87444e-14 -1.67772e-13 -6.41407e-13 -2.20354e-13 8.87326e-14 -1.75612e-13 -2.74988e-13 -3.13007e-13 2.14582e-13 -3.25057e-13 2.06695e-14 2.17624e-13 1.88478e-14 1.90775e-13 -2.40126e-13 -7.3244e-15 5.21915e-13 -1.78443e-13 3.34338e-13 -1.95358e-13 0 0 -9.37392e-15 -8.86481e-15 2.04356e-15 -4.55727e-14 -8.64863e-15 1.77511e-15 -3.03342e-14 -2.32511e-14 -1.10075e-14 4.97667e-15 2.92483e-14 4.51857e-14 -6.09245e-14 8.32462e-14 4.4833e-14 -1.41531e-16 7.87247e-14 -3.03138e-14 3.64217e-15 -1.29042e-14 -5.9406e-14 -1.51959e-13 -9.4545e-14 1.6742e-14 -1.24998e-13 -5.81188e-14 -1.14671e-13 -5.45593e-14 -9.83787e-14 -1.3955e-13 -7.90523e-14 -1.27771e-13 -1.10018e-13 6.50803e-14 -1.13364e-13 -2.64651e-14 -5.23122e-14 1.28504e-13 8.41201e-14 7.27472e-14 -1.84595e-13 -9.9587e-14 2.99919e-14 -1.86327e-13 -1.52325e-13 -8.43685e-14 -1.27244e-13 -1.62833e-13 2.82091e-14 1.37663e-13 -6.80852e-14 1.0586e-14 1.65856e-13 -4.9296e-14 -1.71422e-13 1.29077e-14 -1.78014e-13 -3.83957e-14 -1.51103e-13 6.55122e-13 6.30616e-12 5.37385e-11 4.32906e-10 3.25039e-09 2.266e-08 1.46022e-07 8.65864e-07 4.70016e-06 2.32143e-05 0.000103559 0.000413532 0.0014618 0.00451321 0.01199 0.0270513 0.0515935 0.0841597 0.12091 0.158771 0.196585 0.234141 0.27141 0.308379 0.345037 0.381369 0.417358 0.452975 0.488185 0.522944 0.557193 0.590859 0.62385 0.656055 0.687338 0.717535 0.746457 0.773885 0.799576 0.823276 0.84473 0.863711 0.880049 0.893661 0.904578 0.912959 0.919079 0.923296 0.926012 0.927615 0.928451 0.928799 0.928844 0.928772 0.928639 0.928468 0.928276 0.928075 0.927873 0.927672 0.927472 0.927266 0.92704 0.926765 0.926387 0.925801 0.924822 0.923124 0.920155 0.915016 0.906304 0.891935 0.869019 0.833888 0.782464 0.711147 0.618302 0.506184 0.382566 0.26067 0.155971 0.0801804 0.0354244 0.0139298 0.0051168 0.00181581 0.000632365 0.000217359 7.38572e-05 2.48107e-05 8.23604e-06 2.69997e-06 8.73548e-07 2.78763e-07 8.76927e-08 2.71794e-08 8.29596e-09 2.49306e-09 7.37184e-10 2.14419e-10 6.108e-11 1.72869e-11 4.77675e-12 1.14401e-12 4.62064e-13 -5.12601e-13 -2.09212e-13 -3.85284e-13 -3.70329e-13 1.9269e-14 -5.12542e-13 -3.88583e-13 8.69674e-14 -2.2902e-13 4.56356e-13 2.70229e-13 2.96533e-13 -1.28417e-13 -4.31468e-13 4.37022e-14 -1.81426e-13 -1.52389e-13 -3.70803e-13 -7.81854e-13 1.34305e-13 -3.29397e-13 3.19143e-14 -1.15811e-13 -3.35986e-13 1.67971e-13 4.42632e-14 1.04152e-13 2.70294e-13 -3.4378e-14 4.78154e-13 2.62965e-13 -6.8483e-13 4.62288e-13 -1.05521e-13 6.24368e-13 0 0 -4.33617e-15 -4.13421e-15 -3.17398e-14 9.10519e-16 -5.56223e-15 -6.38658e-14 -2.90275e-14 4.27364e-15 5.35228e-15 2.39642e-14 2.71381e-14 -1.40534e-14 1.32079e-13 -3.98474e-14 1.37418e-14 6.91122e-14 -1.12622e-14 7.61368e-14 -9.86188e-14 -6.44383e-14 -3.40982e-14 5.80746e-14 -2.97228e-13 -4.91785e-14 -1.44025e-13 4.72906e-14 -3.57044e-14 -7.22423e-14 -1.02187e-13 -1.171e-13 -2.48058e-13 -4.2067e-14 -1.2605e-13 1.11262e-15 4.39483e-14 -1.04816e-13 1.932e-13 -1.82408e-13 1.27454e-13 -3.69907e-14 7.78033e-14 -1.76022e-14 -2.948e-13 -6.42527e-14 -1.10956e-13 -1.08766e-13 -1.33945e-13 -9.81698e-14 -9.20844e-14 -6.96981e-15 2.465e-13 6.94344e-14 4.02554e-14 -1.11645e-13 4.67633e-14 -1.83401e-13 -1.58075e-13 -1.84613e-13 7.75427e-14 6.92921e-13 6.43372e-12 5.36086e-11 4.325e-10 3.25071e-09 2.26602e-08 1.46022e-07 8.65864e-07 4.70016e-06 2.32143e-05 0.000103559 0.000413532 0.0014618 0.00451321 0.01199 0.0270513 0.0515935 0.0841597 0.12091 0.158771 0.196585 0.234141 0.27141 0.308379 0.345037 0.381369 0.417358 0.452975 0.488185 0.522944 0.557193 0.590859 0.62385 0.656055 0.687338 0.717535 0.746457 0.773885 0.799576 0.823276 0.84473 0.863711 0.880049 0.893661 0.904578 0.912959 0.919079 0.923296 0.926012 0.927615 0.928451 0.928799 0.928844 0.928772 0.928639 0.928468 0.928276 0.928075 0.927873 0.927672 0.927472 0.927266 0.92704 0.926765 0.926387 0.925801 0.924822 0.923124 0.920155 0.915016 0.906304 0.891935 0.869019 0.833888 0.782464 0.711147 0.618302 0.506184 0.382566 0.26067 0.155971 0.0801804 0.0354244 0.0139298 0.0051168 0.00181581 0.000632365 0.000217359 7.38572e-05 2.48107e-05 8.23604e-06 2.69997e-06 8.73548e-07 2.78764e-07 8.76923e-08 2.71797e-08 8.29589e-09 2.49243e-09 7.37247e-10 2.13898e-10 6.20469e-11 1.71292e-11 5.05457e-12 1.17381e-12 -3.81123e-13 3.13536e-13 -3.60377e-13 -2.28897e-13 -2.0458e-13 -1.17884e-12 1.28387e-13 -6.24384e-13 -7.56751e-14 5.54584e-13 -1.5107e-14 4.74147e-13 -1.38904e-13 1.62621e-13 2.26964e-13 -1.46195e-13 -2.66562e-13 -4.93235e-13 -6.68756e-14 -1.19956e-13 -8.26224e-13 -3.60793e-13 -3.33114e-13 -3.99438e-13 8.03438e-13 -5.6296e-13 2.05327e-14 8.32215e-13 -1.92356e-13 1.76119e-13 -2.31445e-13 -4.77716e-14 9.70243e-13 -3.41601e-13 1.8085e-13 -8.21166e-13 0
				</DataArray>
				<DataArray Name="VitesseY" type="Float32" format="ascii">