<?xml version="1.0"?>
<VTKFile type="PolyData">
	<PolyData>
		<Piece NumberOfPoints="1206" NumberOfPolys="1000">
			<Points>
				<DataArray type="Float32" NumberOfComponents="3" format="ascii">
 0 0 0 0.005 0 0 0.01 0 0 0.015 0 0 0.02 0 0 0.025 0 0 0.03 0 0 0.035 0 0 0.04 0 0 0.045 0 0 0.05 0 0 0.055 0 0 0.06 0 0 0.065 0 0 0.07 0 0 0.075 0 0 0.08 0 0 0.085 0 0 0.09 0 0 0.095 0 0 0.1 0 0 0.105 0 0 0.11 0 0 0.115 0 0 0.12 0 0 0.125 0 0 0.13 0 0 0.135 0 0 0.14 0 0 0.145 0 0 0.15 0 0 0.155 0 0 0.16 0 0 0.165 0 0 0.17 0 0 0.175 0 0 0.18 0 0 0.185 0 0 0.19 0 0 0.195 0 0 0.2 0 0 0.205 0 0 0.21 0 0 0.215 0 0 0.22 0 0 0.225 0 0 0.23 0 0 0.235 0 0 0.24 0 0 0.245 0 0 0.25 0 0 0.255 0 0 0.26 0 0 0.265 0 0 0.27 0 0 0.275 0 0 0.28 0 0 0.285 0 0 0.29 0 0 0.295 0 0 0.3 0 0 0.305 0 0 0.31 0 0 0.315 0 0 0.32 0 0 0.325 0 0 0.33 0 0 0.335 0 0 0.34 0 0 0.345 0 0 0.35 0 0 0.355 0 0 0.36 0 0 0.365 0 0 0.37 0 0 0.375 0 0 0.38 0 0 0.385 0 0 0.39 0 0 0.395 0 0 0.4 0 0 0.405 0 0 0.41 0 0 0.415 0 0 0.42 0 0 0.425 0 0 0.43 0 0 0.435 0 0 0.44 0 0 0.445 0 0 0.45 0 0 0.455 0 0 0.46 0 0 0.465 0 0 0.47 0 0 0.475 0 0 0.48 0 0 0.485 0 0 0.49 0 0 0.495 0 0 0.5 0 0 0.505 0 0 0.51 0 0 0.515 0 0 0.52 0 0 0.525 0 0 0.53 0 0 0.535 0 0 0.54 0 0 0.545 0 0 0.55 0 0 0.555 0 0 0.56 0 0 0.565 0 0 0.57 0 0 0.575 0 0 0.58 0 0 0.585 0 0 0.59 0 0 0.595 0 0 0.6 0 0 0.605 0 0 0.61 0 0 0.615 0 0 0.62 0 0 0.625 0 0 0.63 0 0 0.635 0 0 0.64 0 0 0.645 0 0 0.65 0 0 0.655 0 0 0.66 0 0 0.665 0 0 0.67 0 0 0.675 0 0 0.68 0 0 0.685 0 0 0.69 0 0 0.695 0 0 0.7 0 0 0.705 0 0 0.71 0 0 0.715 0 0 0.72 0 0 0.725 0 0 0.73 0 0 0.735 0 0 0.74 0 0 0.745 0 0 0.75 0 0 0.755 0 0 0.76 0 0 0.765 0 0 0.77 0 0 0.775 0 0 0.78 0 0 0.785 0 0 0.79 0 0 0.795 0 0 0.8 0 0 0.805 0 0 0.81 0 0 0.815 0 0 0.82 0 0 0.825 0 0 0.83 0 0 0.835 0 0 0.84 0 0 0.845 0 0 0.85 0 0 0.855 0 0 0.86 0 0 0.865 0 0 0.87 0 0 0.875 0 0 0.88 0 0 0.885 0 0 0.89 0 0 0.895 0 0 0.9 0 0 0.905 0 0 0.91 0 0 0.915 0 0 0.92 0 0 0.925 0 0 0.93 0 0 0.935 0 0 0.94 0 0 0.945 0 0 0.95 0 0 0.955 0 0 0.96 0 0 0.965 0 0 0.97 0 0 0.975 0 0 0.98 0 0 0.985 0 0 0.99 0 0 0.995 0 0 1 0 0 0 0.02 0 0.005 0.02 0 0.01 0.02 0 0.015 0.02 0 0.02 0.02 0 0.025 0.02 0 0.03 0.02 0 0.035 0.02 0 0.04 0.02 0 0.045 0.02 0 0.05 0.02 0 0.055 0.02 0 0.06 0.02 0 0.065 0.02 0 0.07 0.02 0 0.075 0.02 0 0.08 0.02 0 0.085 0.02 0 0.09 0.02 0 0.095 0.02 0 0.1 0.02 0 0.105 0.02 0 0.11 0.02 0 0.115 0.02 0 0.12 0.02 0 0.125 0.02 0 0.13 0.02 0 0.135 0.02 0 0.14 0.02 0 0.145 0.02 0 0.15 0.02 0 0.155 0.02 0 0.16 0.02 0 0.165 0.02 0 0.17 0.02 0 0.175 0.02 0 0.18 0.02 0 0.185 0.02 0 0.19 0.02 0 0.195 0.02 0 0.2 0.02 0 0.205 0.02 0 0.21 0.02 0 0.215 0.02 0 0.22 0.02 0 0.225 0.02 0 0.23 0.02 0 0.235 0.02 0 0.24 0.02 0 0.245 0.02 0 0.25 0.02 0 0.255 0.02 0 0.26 0.02 0 0.265 0.02 0 0.27 0.02 0 0.275 0.02 0 0.28 0.02 0 0.285 0.02 0 0.29 0.02 0 0.295 0.02 0 0.3 0.02 0 0.305 0.02 0 0.31 0.02 0 0.315 0.02 0 0.32 0.02 0 0.325 0.02 0 0.33 0.02 0 0.335 0.02 0 0.34 0.02 0 0.345 0.02 0 0.35 0.02 0 0.355 0.02 0 0.36 0.02 0 0.365 0.02 0 0.37 0.02 0 0.375 0.02 0 0.38 0.02 0 0.385 0.02 0 0.39 0.02 0 0.395 0.02 0 0.4 0.02 0 0.405 0.02 0 0.41 0.02 0 0.415 0.02 0 0.42 0.02 0 0.425 0.02 0 0.43 0.02 0 0.435 0.02 0 0.44 0.02 0 0.445 0.02 0 0.45 0.02 0 0.455 0.02 0 0.46 0.02 0 0.465 0.02 0 0.47 0.02 0 0.475 0.02 0 0.48 0.02 0 0.485 0.02 0 0.49 0.02 0 0.495 0.02 0 0.5 0.02 0 0.505 0.02 0 0.51 0.02 0 0.515 0.02 0 0.52 0.02 0 0.525 0.02 0 0.53 0.02 0 0.535 0.02 0 0.54 0.02 0 0.545 0.02 0 0.55 0.02 0 0.555 0.02 0 0.56 0.02 0 0.565 0.02 0 0.57 0.02 0 0.575 0.02 0 0.58 0.02 0 0.585 0.02 0 0.59 0.02 0 0.595 0.02 0 0.6 0.02 0 0.605 0.02 0 0.61 0.02 0 0.615 0.02 0 0.62 0.02 0 0.625 0.02 0 0.63 0.02 0 0.635 0.02 0 0.64 0.02 0 0.645 0.02 0 0.65 0.02 0 0.655 0.02 0 0.66 0.02 0 0.665 0.02 0 0.67 0.02 0 0.675 0.02 0 0.68 0.02 0 0.685 0.02 0 0.69 0.02 0 0.695 0.02 0 0.7 0.02 0 0.705 0.02 0 0.71 0.02 0 0.715 0.02 0 0.72 0.02 0 0.725 0.02 0 0.73 0.02 0 0.735 0.02 0 0.74 0.02 0 0.745 0.02 0 0.75 0.02 0 0.755 0.02 0 0.76 0.02 0 0.765 0.02 0 0.77 0.02 0 0.775 0.02 0 0.78 0.02 0 0.785 0.02 0 0.79 0.02 0 0.795 0.02 0 0.8 0.02 0 0.805 0.02 0 0.81 0.02 0 0.815 0.02 0 0.82 0.02 0 0.825 0.02 0 0.83 0.02 0 0.835 0.02 0 0.84 0.02 0 0.845 0.02 0 0.85 0.02 0 0.855 0.02 0 0.86 0.02 0 0.865 0.02 0 0.87 0.02 0 0.875 0.02 0 0.88 0.02 0 0.885 0.02 0 0.89 0.02 0 0.895 0.02 0 0.9 0.02 0 0.905 0.02 0 0.91 0.02 0 0.915 0.02 0 0.92 0.02 0 0.925 0.02 0 0.93 0.02 0 0.935 0.02 0 0.94 0.02 0 0.945 0.02 0 0.95 0.02 0 0.955 0.02 0 0.96 0.02 0 0.965 0.02 0 0.97 0.02 0 0.975 0.02 0 0.98 0.02 0 0.985 0.02 0 0.99 0.02 0 0.995 0.02 0 1 0.02 0 0 0.04 0 0.005 0.04 0 0.01 0.04 0 0.015 0.04 0 0.02 0.04 0 0.025 0.04 0 0.03 0.04 0 0.035 0.04 0 0.04 0.04 0 0.045 0.04 0 0.05 0.04 0 0.055 0.04 0 0.06 0.04 0 0.065 0.04 0 0.07 0.04 0 0.075 0.04 0 0.08 0.04 0 0.085 0.04 0 0.09 0.04 0 0.095 0.04 0 0.1 0.04 0 0.105 0.04 0 0.11 0.04 0 0.115 0.04 0 0.12 0.04 0 0.125 0.04 0 0.13 0.04 0 0.135 0.04 0 0.14 0.04 0 0.145 0.04 0 0.15 0.04 0 0.155 0.04 0 0.16 0.04 0 0.165 0.04 0 0.17 0.04 0 0.175 0.04 0 0.18 0.04 0 0.185 0.04 0 0.19 0.04 0 0.195 0.04 0 0.2 0.04 0 0.205 0.04 0 0.21 0.04 0 0.215 0.04 0 0.22 0.04 0 0.225 0.04 0 0.23 0.04 0 0.235 0.04 0 0.24 0.04 0 0.245 0.04 0 0.25 0.04 0 0.255 0.04 0 0.26 0.04 0 0.265 0.04 0 0.27 0.04 0 0.275 0.04 0 0.28 0.04 0 0.285 0.04 0 0.29 0.04 0 0.295 0.04 0 0.3 0.04 0 0.305 0.04 0 0.31 0.04 0 0.315 0.04 0 0.32 0.04 0 0.325 0.04 0 0.33 0.04 0 0.335 0.04 0 0.34 0.04 0 0.345 0.04 0 0.35 0.04 0 0.355 0.04 0 0.36 0.04 0 0.365 0.04 0 0.37 0.04 0 0.375 0.04 0 0.38 0.04 0 0.385 0.04 0 0.39 0.04 0 0.395 0.04 0 0.4 0.04 0 0.405 0.04 0 0.41 0.04 0 0.415 0.04 0 0.42 0.04 0 0.425 0.04 0 0.43 0.04 0 0.435 0.04 0 0.44 0.04 0 0.445 0.04 0 0.45 0.04 0 0.455 0.04 0 0.46 0.04 0 0.465 0.04 0 0.47 0.04 0 0.475 0.04 0 0.48 0.04 0 0.485 0.04 0 0.49 0.04 0 0.495 0.04 0 0.5 0.04 0 0.505 0.04 0 0.51 0.04 0 0.515 0.04 0 0.52 0.04 0 0.525 0.04 0 0.53 0.04 0 0.535 0.04 0 0.54 0.04 0 0.545 0.04 0 0.55 0.04 0 0.555 0.04 0 0.56 0.04 0 0.565 0.04 0 0.57 0.04 0 0.575 0.04 0 0.58 0.04 0 0.585 0.04 0 0.59 0.04 0 0.595 0.04 0 0.6 0.04 0 0.605 0.04 0 0.61 0.04 0 0.615 0.04 0 0.62 0.04 0 0.625 0.04 0 0.63 0.04 0 0.635 0.04 0 0.64 0.04 0 0.645 0.04 0 0.65 0.04 0 0.655 0.04 0 0.66 0.04 0 0.665 0.04 0 0.67 0.04 0 0.675 0.04 0 0.68 0.04 0 0.685 0.04 0 0.69 0.04 0 0.695 0.04 0 0.7 0.04 0 0.705 0.04 0 0.71 0.04 0 0.715 0.04 0 0.72 0.04 0 0.725 0.04 0 0.73 0.04 0 0.735 0.04 0 0.74 0.04 0 0.745 0.04 0 0.75 0.04 0 0.755 0.04 0 0.76 0.04 0 0.765 0.04 0 0.77 0.04 0 0.775 0.04 0 0.78 0.04 0 0.785 0.04 0 0.79 0.04 0 0.795 0.04 0 0.8 0.04 0 0.805 0.04 0 0.81 0.04 0 0.815 0.04 0 0.82 0.04 0 0.825 0.04 0 0.83 0.04 0 0.835 0.04 0 0.84 0.04 0 0.845 0.04 0 0.85 0.04 0 0.855 0.04 0 0.86 0.04 0 0.865 0.04 0 0.87 0.04 0 0.875 0.04 0 0.88 0.04 0 0.885 0.04 0 0.89 0.04 0 0.895 0.04 0 0.9 0.04 0 0.905 0.04 0 0.91 0.04 0 0.915 0.04 0 0.92 0.04 0 0.925 0.04 0 0.93 0.04 0 0.935 0.04 0 0.94 0.04 0 0.945 0.04 0 0.95 0.04 0 0.955 0.04 0 0.96 0.04 0 0.965 0.04 0 0.97 0.04 0 0.975 0.04 0 0.98 0.04 0 0.985 0.04 0 0.99 0.04 0 0.995 0.04 0 1 0.04 0 0 0.06 0 0.005 0.06 0 0.01 0.06 0 0.015 0.06 0 0.02 0.06 0 0.025 0.06 0 0.03 0.06 0 0.035 0.06 0 0.04 0.06 0 0.045 0.06 0 0.05 0.06 0 0.055 0.06 0 0.06 0.06 0 0.065 0.06 0 0.07 0.06 0 0.075 0.06 0 0.08 0.06 0 0.085 0.06 0 0.09 0.06 0 0.095 0.06 0 0.1 0.06 0 0.105 0.06 0 0.11 0.06 0 0.115 0.06 0 0.12 0.06 0 0.125 0.06 0 0.13 0.06 0 0.135 0.06 0 0.14 0.06 0 0.145 0.06 0 0.15 0.06 0 0.155 0.06 0 0.16 0.06 0 0.165 0.06 0 0.17 0.06 0 0.175 0.06 0 0.18 0.06 0 0.185 0.06 0 0.19 0.06 0 0.195 0.06 0 0.2 0.06 0 0.205 0.06 0 0.21 0.06 0 0.215 0.06 0 0.22 0.06 0 0.225 0.06 0 0.23 0.06 0 0.235 0.06 0 0.24 0.06 0 0.245 0.06 0 0.25 0.06 0 0.255 0.06 0 0.26 0.06 0 0.265 0.06 0 0.27 0.06 0 0.275 0.06 0 0.28 0.06 0 0.285 0.06 0 0.29 0.06 0 0.295 0.06 0 0.3 0.06 0 0.305 0.06 0 0.31 0.06 0 0.315 0.06 0 0.32 0.06 0 0.325 0.06 0 0.33 0.06 0 0.335 0.06 0 0.34 0.06 0 0.345 0.06 0 0.35 0.06 0 0.355 0.06 0 0.36 0.06 0 0.365 0.06 0 0.37 0.06 0 0.375 0.06 0 0.38 0.06 0 0.385 0.06 0 0.39 0.06 0 0.395 0.06 0 0.4 0.06 0 0.405 0.06 0 0.41 0.06 0 0.415 0.06 0 0.42 0.06 0 0.425 0.06 0 0.43 0.06 0 0.435 0.06 0 0.44 0.06 0 0.445 0.06 0 0.45 0.06 0 0.455 0.06 0 0.46 0.06 0 0.465 0.06 0 0.47 0.06 0 0.475 0.06 0 0.48 0.06 0 0.485 0.06 0 0.49 0.06 0 0.495 0.06 0 0.5 0.06 0 0.505 0.06 0 0.51 0.06 0 0.515 0.06 0 0.52 0.06 0 0.525 0.06 0 0.53 0.06 0 0.535 0.06 0 0.54 0.06 0 0.545 0.06 0 0.55 0.06 0 0.555 0.06 0 0.56 0.06 0 0.565 0.06 0 0.57 0.06 0 0.575 0.06 0 0.58 0.06 0 0.585 0.06 0 0.59 0.06 0 0.595 0.06 0 0.6 0.06 0 0.605 0.06 0 0.61 0.06 0 0.615 0.06 0 0.62 0.06 0 0.625 0.06 0 0.63 0.06 0 0.635 0.06 0 0.64 0.06 0 0.645 0.06 0 0.65 0.06 0 0.655 0.06 0 0.66 0.06 0 0.665 0.06 0 0.67 0.06 0 0.675 0.06 0 0.68 0.06 0 0.685 0.06 0 0.69 0.06 0 0.695 0.06 0 0.7 0.06 0 0.705 0.06 0 0.71 0.06 0 0.715 0.06 0 0.72 0.06 0 0.725 0.06 0 0.73 0.06 0 0.735 0.06 0 0.74 0.06 0 0.745 0.06 0 0.75 0.06 0 0.755 0.06 0 0.76 0.06 0 0.765 0.06 0 0.77 0.06 0 0.775 0.06 0 0.78 0.06 0 0.785 0.06 0 0.79 0.06 0 0.795 0.06 0 0.8 0.06 0 0.805 0.06 0 0.81 0.06 0 0.815 0.06 0 0.82 0.06 0 0.825 0.06 0 0.83 0.06 0 0.835 0.06 0 0.84 0.06 0 0.845 0.06 0 0.85 0.06 0 0.855 0.06 0 0.86 0.06 0 0.865 0.06 0 0.87 0.06 0 0.875 0.06 0 0.88 0.06 0 0.885 0.06 0 0.89 0.06 0 0.895 0.06 0 0.9 0.06 0 0.905 0.06 0 0.91 0.06 0 0.915 0.06 0 0.92 0.06 0 0.925 0.06 0 0.93 0.06 0 0.935 0.06 0 0.94 0.06 0 0.945 0.06 0 0.95 0.06 0 0.955 0.06 0 0.96 0.06 0 0.965 0.06 0 0.97 0.06 0 0.975 0.06 0 0.98 0.06 0 0.985 0.06 0 0.99 0.06 0 0.995 0.06 0 1 0.06 0 0 0.08 0 0.005 0.08 0 0.01 0.08 0 0.015 0.08 0 0.02 0.08 0 0.025 0.08 0 0.03 0.08 0 0.035 0.08 0 0.04 0.08 0 0.045 0.08 0 0.05 0.08 0 0.055 0.08 0 0.06 0.08 0 0.065 0.08 0 0.07 0.08 0 0.075 0.08 0 0.08 0.08 0 0.085 0.08 0 0.09 0.08 0 0.095 0.08 0 0.1 0.08 0 0.105 0.08 0 0.11 0.08 0 0.115 0.08 0 0.12 0.08 0 0.125 0.08 0 0.13 0.08 0 0.135 0.08 0 0.14 0.08 0 0.145 0.08 0 0.15 0.08 0 0.155 0.08 0 0.16 0.08 0 0.165 0.08 0
[...]
			<PointData Scalars="VitesseX">
				<DataArray Name="VitesseX" type="Float32" format="ascii">
 0 -1.44693e-14 -9.30634e-15 -8.02726e-14 3.89912e-14 6.9972e-15 -3.94512e-14 -4.33497e-14 7.34781e-15 -6.28432e-14 -1.15472e-13 9.94493e-14 -1.54699e-13 1.59189e-13 -2.02203e-13 -7.53194e-14 1.95192e-14 -2.66282e-13 1.11108e-13 -1.94541e-13 -1.12009e-14 5.43284e-14 1.11813e-13 -1.24157e-13 -2.63199e-13 -2.07356e-14 1.43828e-13 -6.63836e-14 -8.55308e-14 -1.156e-13 1.47533e-13 -3.32645e-13 2.04566e-13 4.94716e-14 -4.05403e-13 3.13053e-14 -1.11044e-13 1.38064e-13 -4.53379e-13 2.00194e-13 -1.31997e-13 1.3746e-13 -5.75878e-14 -4.51392e-13 -4.45877e-13 1.59933e-14 -5.2614e-13 4.12066e-13 -1.59342e-13 -6.04357e-14 -3.19143e-14 2.08477e-13 5.98308e-13 -8.09946e-13 1.38848e-13 -5.7187e-14 -3.55445e-13 4.07437e-13 -8.81909e-13 2.21484e-13 1.5798e-13 1.68719e-13 3.25796e-14 -3.7837e-13 2.60251e-13 -4.89872e-14 -8.90739e-14 -2.29632e-13 -6.80986e-13 4.36486e-13 1.72835e-13 -6.39149e-13 1.5332e-13 -2.86065e-13 8.40441e-13 -2.40859e-14 6.27111e-12 1.00098e-10 1.30074e-09 1.52776e-08 1.59757e-07 1.47555e-06 1.19166e-05 8.3115e-05 0.000492827 0.00243388 0.00975033 0.0307291 0.0743639 0.138916 0.211185 0.282335 0.351299 0.41821 0.482981 0.545428 0.605221 0.661869 0.714717 0.762959 0.805702 0.842091 0.871504 0.89378 0.909362 0.919272 0.924899 0.927619 0.928741 0.928824 0.928147 0.926123 0.921451 0.911849 0.893784 0.862498 0.812577 0.739213 0.640157 0.518135 0.382867 0.250798 0.140681 0.0655497 0.0254172 0.00860886 0.00269441 0.000804401 0.0002318 6.46866e-05 1.7489e-05 4.57961e-06 1.16094e-06 2.84802e-07 6.75933e-08 1.55186e-08 3.44495e-09 7.39795e-10 1.54337e-10 3.01544e-11 6.14977e-12 1.57245e-12 -1.22407e-12 1.21142e-12 -6.23255e-14 -6.2285e-13 7.30539e-13 -1.80096e-12 1.02863e-12 -3.47384e-13 -1.7963e-13 1.42871e-12 -1.24579e-12 9.49191e-13 -5.2069e-13 8.31338e-13 -7.00836e-13 -4.97501e-13 -5.07215e-14 -1.20858e-13 7.99512e-13 -2.871e-13 -5.06411e-14 1.7446e-13 -6.44282e-13 -1.59111e-13 1.06644e-13 8.29505e-13 7.07292e-13 -1.39666e-12 3.44498e-13 2.95038e-13 -8.03662e-13 1.31607e-12 -8.46161e-13 5.36031e-13 -5.11751e-13 -7.02324e-13 8.44694e-13 -1.02368e-12 -1.52897e-14 -2.73263e-13 -1.16546e-12 1.4044e-12 -8.39156e-13 7.87618e-13 6.20755e-14 -8.94818e-13 8.13941e-13 -1.16155e-12 4.73054e-13 6.01126e-13 -2.45067e-12 1.36673e-12 -2.71512e-13 -5.14268e-13 4.66129e-13 -2.69979e-12 9.27367e-13 -1.14676e-12 0 0 -8.49279e-15 -2.8913e-14 2.91174e-14 -6.45735e-14 -2.47651e-14 2.14964e-14 5.58194e-15 -5.075e-14 -1.11672e-14 1.99522e-14 -8.91048e-14 1.14547e-13 -1.94982e-13 5.70434e-14 -7.81307e-14 -2.23207e-13 7.20542e-15 -2.15875e-13 1.06939e-13 -8.05268e-15 -2.04762e-14 -1.95921e-13 -3.88596e-14 8.59073e-14 -6.00565e-14 -1.80833e-13 3.65896e-14 -1.19024e-14 1.94704e-14 -1.9988e-13 1.62771e-13 -1.67299e-13 -1.00235e-13 2.14249e-13 -1.44296e-13 -3.58109e-14 -3.86416e-13 2.32072e-13 -2.52556e-13 5.12448e-14 -2.61421e-13 -1.96927e-13 6.62424e-15 -1.09126e-13 -5.02674e-13 1.00042e-13 -4.24612e-13 3.65709e-13 1.86198e-13 8.24828e-14 -4.6937e-14 -4.06609e-13 7.59296e-13 -2.39065e-13 -1.93277e-13 2.22968e-14 -6.5729e-13 4.0826e-13 -2.92906e-13 -2.00799e-14 -9.07614e-14 -6.51332e-14 2.13428e-13 -3.64465e-13 2.78039e-14 -3.97426e-14 -1.28503e-13 1.71468e-13 -4.62102e-13 -1.54393e-13 4.30344e-13 -1.19166e-13 3.47369e-13 -5.33844e-13 7.45638e-13 7.20917e-12 9.90128e-11 1.30143e-09 1.52762e-08 1.59759e-07 1.47555e-06 1.19166e-05 8.3115e-05 0.000492827 0.00243388 0.00975033 0.0307291 0.0743639 0.138916 0.211185 0.282335 0.351299 0.41821 0.482981 0.545428 0.605221 0.661869 0.714717 0.762959 0.805702 0.842091 0.871504 0.89378 0.909362 0.919272 0.924899 0.927619 0.928741 0.928824 0.928147 0.926123 0.921451 0.911849 0.893784 0.862498 0.812577 0.739213 0.640157 0.518135 0.382867 0.250798 0.140681 0.0655497 0.0254172 0.00860886 0.00269441 0.000804401 0.0002318 6.46866e-05 1.7489e-05 4.57961e-06 1.16094e-06 2.84801e-07 6.75945e-08 1.55172e-08 3.44601e-09 7.39852e-10 1.52935e-10 3.12258e-11 5.59696e-12 7.82256e-13 1.25854e-12 -6.47386e-13 7.24598e-14 4.11812e-13 -1.28403e-12 8.55675e-13 -6.02741e-13 1.73283e-13 5.77503e-13 -6.9223e-13 1.00883e-12 -6.8347e-13 5.04263e-13 -6.86416e-13 4.07203e-13 -1.73303e-13 -4.7628e-13 2.14377e-13 -6.40508e-13 3.73067e-13 -9.83755e-14 -2.89946e-13 4.86981e-13 -1.42652e-13 2.08233e-13 -3.09313e-13 -6.44527e-13 1.2798e-12 -1.60544e-13 -2.31611e-13 4.73673e-13 -8.97788e-13 9.31399e-13 -5.15383e-13 -2.919e-14 5.90325e-14 -8.34158e-13 3.70015e-13 -7.46451e-13 -4.61215e-13 3.56371e-13 -7.38245e-13 9.00157e-13 -5.83541e-13 -6.00795e-14 5.54397e-13 -7.32457e-13 5.72214e-13 -5.25199e-13 -1.19632e-12 1.68414e-12 -1.04001e-12 -3.48319e-14 -2.76029e-13 -1.43859e-12 8.52091e-13 -1.80474e-12 1.5761e-13 0 0 -2.58045e-15 6.529e-15 -1.43853e-14 2.20577e-14 -2.01558e-14 -2.44057e-14 -1.64487e-14 2.97648e-14 3.04926e-14 -2.77952e-15 -3.84056e-15 -9.75048e-14 2.36599e-14 -1.13607e-13 -1.19203e-13 -1.43175e-14 -1.5068e-13 -3.69133e-14 -3.09695e-14 -2.55324e-14 -6.77299e-14 -6.0061e-14 -5.90499e-14 -1.21698e-13 -6.0434e-14 6.19689e-14 -6.51881e-14 -1.08723e-13 -2.46004e-14 8.83545e-14 -8.57865e-14 2.05821e-14 -4.37654e-15 -6.4009e-14 6.72166e-14 -1.44894e-13 3.41316e-14 -1.58405e-13 -5.71064e-14 -2.79205e-13 -8.60505e-14 -8.82012e-14 -1.2864e-13 -1.13837e-13 1.15889e-15 -2.17315e-13 -3.9272e-14 -9.58566e-15 2.97717e-13 5.2337e-14 -3.86593e-14 1.49996e-13 -2.47536e-13 2.80653e-13 -9.60716e-14 -3.1097e-13 -1.1954e-14 -3.02765e-13 1.67683e-15 -1.27683e-13 -2.24644e-13 -1.33663e-13 -1.72943e-13 1.74245e-13 -4.42794e-14 -7.2367e-14 1.41652e-13 -1.43227e-13 1.43526e-13 -8.93218e-14 -1.51757e-13 2.82322e-13 -2.13295e-13 4.68305e-13 5.26043e-13 7.1496e-12 9.96032e-11 1.30056e-09 1.52775e-08 1.59758e-07 1.47555e-06 1.19166e-05 8.3115e-05 0.000492827 0.00243388 0.00975033 0.0307291 0.0743639 0.138916 0.211185 0.282335 0.351299 0.41821 0.482981 0.545428 0.605221 0.661869 0.714717 0.762959 0.805702 0.842091 0.871504 0.89378 0.909362 0.919272 0.924899 0.927619 0.928741 0.928824 0.928147 0.926123 0.921451 0.911849 0.893784 0.862498 0.812577 0.739213 0.640157 0.518135 0.382867 0.250798 0.140681 0.0655497 0.0254172 0.00860886 0.00269441 0.000804401 0.0002318 6.46866e-05 1.7489e-05 4.57961e-06 1.16094e-06 2.84801e-07 6.75936e-08 1.5518e-08 3.44527e-09 7.39743e-10 1.53698e-10 3.05384e-11 6.07137e-12 1.14488e-12 -9.87336e-14 5.14457e-13 1.83644e-14 -2.52019e-13 2.30288e-13 -2.59685e-13 3.09555e-13 8.09589e-14 -2.99221e-13 3.59609e-13 -9.73844e-14 6.9313e-13 -8.43293e-13 -4.6909e-13 -4.99898e-13 -4.86084e-14 -1.19932e-14 -4.89889e-13 -1.57488e-13 -4.57511e-13 1.16651e-13 2.51234e-13 -4.04632e-14 1.93648e-13 -2.99895e-13 -3.45013e-13 3.47251e-13 3.89783e-13 4.58138e-13 -6.15235e-14 -6.79085e-13 3.24485e-13 -1.43593e-13 3.1589e-13 1.92998e-13 -6.46363e-13 -2.39628e-13 -5.27317e-13 -2.26667e-13 1.1748e-13 -5.87959e-13 5.80354e-14 -4.13482e-14 2.74563e-13 -1.03956e-13 -5.82135e-13 4.88855e-13 -1.5812e-13 3.29631e-13 1.38759e-13 -7.53381e-13 2.0569e-13 -7.27169e-13 -4.75958e-13 -1.61968e-13 -8.41995e-13 -5.42735e-14 -4.46897e-13 0 0 -2.67883e-15 -1.80349e-15 9.5683e-16 6.24898e-14 4.74555e-14 1.153e-14 6.47064e-16 3.24052e-14 -3.6145e-14 -5.04407e-14 -1.13548e-14 -7.91843e-14 1.62251e-14 -1.05634e-13 -1.17266e-13 5.91935e-16 -4.71171e-14 4.2717e-14 -7.0595e-14 -9.21299e-14 -9.08069e-14 -2.57702e-14 -9.03989e-14 -1.58681e-13 -2.86034e-14 3.31445e-14 9.57328e-15 -5.78532e-14 -3.51242e-14 8.18102e-14 -1.02107e-13 5.35689e-14 -5.7871e-14 -2.36763e-13 -2.45096e-15 -7.79719e-14 -1.74678e-14 -9.10367e-14 -1.32132e-14 -7.31163e-14 2.97748e-14 -1.01555e-13 -2.15776e-13 -3.1769e-13 -1.20566e-13 -1.57421e-13 1.2012e-13 7.13145e-14 6.87378e-14 8.06016e-14 -2.51313e-14 9.10588e-14 -3.46145e-13 7.59717e-14 -5.24077e-14 -1.96904e-13 -4.98142e-14 -4.57086e-13 -4.54592e-14 -1.25346e-14 1.1193e-13 7.82082e-14 -1.46584e-13 2.57354e-13 1.53088e-14 -3.06913e-13 -9.24107e-14 -1.46964e-13 1.66686e-13 1.04915e-13 -2.13314e-13 -2.30624e-14 -3.79188e-14 6.00665e-13 8.22162e-13 6.93371e-12 9.99001e-11 1.30103e-09 1.52768e-08 1.59758e-07 1.47555e-06 1.19166e-05 8.3115e-05 0.000492827 0.00243388 0.00975033 0.0307291 0.0743639 0.138916 0.211185 0.282335 0.351299 0.41821 0.482981 0.545428 0.605221 0.661869 0.714717 0.762959 0.805702 0.842091 0.871504 0.89378 0.909362 0.919272 0.924899 0.927619 0.928741 0.928824 0.928147 0.926123 0.921451 0.911849 0.893784 0.862498 0.812577 0.739213 0.640157 0.518135 0.382867 0.250798 0.140681 0.0655497 0.0254172 0.00860886 0.00269441 0.000804401 0.0002318 6.46866e-05 1.7489e-05 4.57961e-06 1.16094e-06 2.84801e-07 6.75935e-08 1.5518e-08 3.44562e-09 7.40042e-10 1.53785e-10 3.06981e-11 6.23949e-12 1.27755e-12 -3.11001e-13 5.66727e-13 1.96996e-13 -1.18436e-13 9.6685e-13 -1.30346e-13 1.35583e-13 -2.99616e-13 -6.99607e-13 4.53809e-13 -2.75967e-13 1.07678e-14 -4.86742e-13 -1.59667e-13 -6.8862e-13 -2.81007e-13 -5.11175e-13 -2.15875e-13 2.43742e-13 1.61601e-13 -4.42807e-13 -2.5049e-13 -6.06142e-13 -6.89941e-14 3.60613e-13 7.61486e-13 -1.61246e-13 -1.00671e-12 -1.25861e-13 1.99973e-13 9.16012e-14 4.35794e-13 -1.96475e-13 1.03556e-13 -2.48233e-13 2.80449e-14 1.30147e-13 -7.49265e-13 -4.30061e-13 -3.07265e-13 -1.84281e-13 3.94754e-13 -1.2225e-13 7.60472e-13 -1.04382e-13 -3.9426e-13 3.622e-13 -4.52698e-13 5.49781e-13 2.66419e-13 -7.83613e-13 5.21911e-14 -2.24376e-13 -1.12086e-13 -2.14793e-13 -7.08275e-13 2.36479e-13 -6.67334e-13 0 0 9.08507e-15 3.42798e-15 9.03065e-14 1.66499e-15 4.61884e-14 7.06121e-14 4.41739e-14 -1.10083e-14 -1.22111e-15 -1.32374e-15 -1.10299e-13 7.79314e-14 -2.31764e-13 5.46718e-14 -5.83476e-14 -1.60046e-13 1.20838e-13 -1.80026e-13 6.11945e-14 -8.63494e-14 -9.49913e-14 -1.93229e-13 -2.73393e-14 1.1515e-13 2.51374e-14 -9.54596e-14 1.33957e-13 8.96477e-14 7.23939e-14 -2.54722e-13 1.18577e-13 -2.49054e-13 -2.83449e-13 6.28142e-14 -2.01587e-13 1.09639e-14 -3.03119e-13 2.77424e-13 -2.34258e-13 1.17488e-13 -1.68057e-13 -1.31263e-13 5.94229e-14 -1.00402e-13 -5.1286e-13 1.94177e-13 -3.7363e-13 2.7843e-13 7.99765e-14 7.60895e-14 -4.07973e-14 -4.13259e-13 6.40999e-13 -4.53404e-13 -2.37734e-13 -1.35528e-13 -7.69539e-13 3.18918e-13 -2.91308e-13 -4.30183e-14 1.16362e-13 1.60399e-13 3.31616e-13 -1.73617e-13 1.27172e-13 -1.50531e-13 -2.71514e-13 1.80845e-13 -4.98478e-13 -8.844e-14 4.66471e-13 -1.77135e-13 5.39752e-13 -3.33111e-13 1.18629e-12 7.30349e-12 9.91927e-11 1.30158e-09 1.52761e-08 1.59759e-07 1.47555e-06 1.19166e-05 8.3115e-05 0.000492827 0.00243388 0.00975033 0.0307291 0.0743639 0.138916 0.211185 0.282335 0.351299 0.41821 0.482981 0.545428 0.605221 0.661869 0.714717 0.762959 0.805702 0.842091 0.871504 0.89378 0.909362 0.919272 0.924899 0.927619 0.928741 0.928824 0.928147 0.926123 0.921451 0.911849 0.893784 0.862498 0.812577 0.739213 0.640157 0.518135 0.382867 0.250798 0.140681 0.0655497 0.0254172 0.00860886 0.00269441 0.000804401 0.0002318 6.46866e-05 1.7489e-05 4.57961e-06 1.16094e-06 2.84801e-07 6.75943e-08 1.55172e-08 3.44628e-09 7.40248e-10 1.53171e-10 3.15916e-11 6.12034e-12 9.17715e-13 1.34885e-12 -7.59391e-13 3.07066e-13 5.4682e-13 -5.8852e-13 9.25368e-13 -6.08754e-13 3.87304e-14 5.2111e-14 -1.03626e-12 6.99495e-13 -1.23267e-12 9.06621e-13 -6.26703e-13 -1.00947e-13 -6.11046e-13 -6.9185e-13 1.78104e-13 -1.55716e-13 4.64138e-13 -3.6595e-13 -4.26815e-13 4.99915e-13 -5.80987e-14 4.218e-13 1.42024e-13 -1.01851e-12 -1.26691e-14 -8.46011e-13 2.51085e-14 1.09096e-12 -9.65921e-13 6.38335e-13 -8.57229e-13 -4.8226e-13 6.91776e-13 -6.26791e-13 2.55475e-13 -9.11721e-13 -7.7317e-13 6.7392e-13 -4.28659e-13 1.14034e-12 -1.89626e-13 -1.2044e-13 4.34842e-13 -8.76954e-13 7.93541e-13 -4.76219e-13 -1.07403e-12 1.672e-12 -1.21544e-12 3.67747e-13 2.13484e-13 -1.53155e-12 7.14662e-13 -1.71332e-12 8.93077e-14 0 0 2.08832e-14 7.20406e-14 1.14213e-14 9.0604e-14 1.36816e-14 -1.30912e-14 -3.57346e-16 8.15503e-14 9.03241e-14 -6.27019e-14 7.20895e-14 -2.64572e-13 1.00495e-13 -2.22892e-13 -3.96266e-14 1.16023e-13 -2.46144e-13 2.35456e-14 -2.0678e-13 -3.45994e-14 -4.85477e-14 4.86152e-14 -3.84189e-14 -1.30748e-13 8.5991e-14 3.72223e-13 -2.11708e-14 1.58301e-14 1.12945e-14 5.09372e-14 -3.88392e-13 -2.49166e-14 -2.09966e-13 -3.62764e-13 5.60585e-14 -1.51338e-13 4.07858e-13 -4.97413e-13 1.49003e-13 -4.11687e-13 9.25388e-14 1.00447e-13 -1.71523e-13 -2.07228e-14 2.39072e-13 -4.57659e-13 1.95246e-13 -4.95699e-13 1.8508e-13 -1.0123e-13 1.937e-13 7.02883e-13 -8.49323e-13 1.19533e-13 -2.33429e-13 -8.99227e-13 2.58659e-13 -7.5195e-13 3.18953e-13 -1.18193e-13 -9.0181e-14 5.99031e-14 -1.94714e-13 4.7573e-13 3.05731e-14 1.58441e-13 -4.75281e-14 -6.54759e-13 3.17415e-13 -8.37317e-14 -4.43783e-13 6.48149e-13 -2.52052e-13 9.77188e-13 2.64984e-13 6.89154e-12 9.98642e-11 1.30011e-09 1.52789e-08 1.59758e-07 1.47555e-06 1.19166e-05 8.3115e-05 0.000492827 0.00243388 0.00975033 0.0307291 0.0743639 0.138916 0.211185 0.282335 0.351299 0.41821 0.482981 0.545428 0.605221 0.661869 0.714717 0.762959 0.805702 0.842091 0.871504 0.89378 0.909362 0.919272 0.924899 0.927619 0.928741 0.928824 0.928147 0.926123 0.921451 0.911849 0.893784 0.862498 0.812577 0.739213 0.640157 0.518135 0.382867 0.250798 0.140681 0.0655497 0.0254172 0.00860886 0.00269441 0.000804401 0.0002318 6.46866e-05 1.7489e-05 4.57961e-06 1.16094e-06 2.84802e-07 6.75932e-08 1.55187e-08 3.44478e-09 7.39987e-10 1.54634e-10 3.05667e-11 6.8603e-12 1.57803e-12 -6.18909e-13 8.82872e-13 4.96246e-14 -6.20001e-13 6.48438e-13 -1.92025e-12 1.36455e-12 1.44662e-13 -4.29642e-13 5.52256e-13 -1.50729e-12 1.21552e-12 -4.29076e-13 3.31915e-13 -1.33969e-12 -9.0819e-13 5.16503e-13 -7.41434e-13 9.66636e-13 -1.34318e-12 5.33126e-13 9.04172e-13 5.12943e-13 5.3528e-13 -7.87238e-13 -4.80818e-13 9.76321e-13 -1.18861e-12 1.4156e-13 2.85484e-13 -1.11046e-12 9.5719e-13 -1.32653e-12 2.77006e-13 -5.35429e-13 -7.85654e-13 5.19879e-13 -8.08861e-13 6.09597e-14 -4.76803e-14 -1.33772e-12 1.35013e-12 -1.96995e-13 6.03629e-13 -5.77931e-14 -1.50968e-12 7.78257e-13 -1.29744e-13 1.30714e-13 5.904e-13 -2.41448e-12 1.32287e-12 -4.71941e-13 -2.62984e-13 3.85841e-13 -3.24209e-12 5.28708e-13 -8.42489e-13 0
				</DataArray>
				<DataArray Name="VitesseY" type="Float32" format="ascii">