<?xml version="1.0"?>
<VTKFile type="PolyData">
	<PolyData>
		<Piece NumberOfPoints="1206" NumberOfPolys="1000">
			<Points>
				<DataArray type="Float32" NumberOfComponents="3" format="ascii">
 0 0 0 0.005 0 0 0.01 0 0 0.015 0 0 0.02 0 0 0.025 0 0 0.03 0 0 0.035 0 0 0.04 0 0 0.045 0 0 0.05 0 0 0.055 0 0 0.06 0 0 0.065 0 0 0.07 0 0 0.075 0 0 0.08 0 0 0.085 0 0 0.09 0 0 0.095 0 0 0.1 0 0 0.105 0 0 0.11 0 0 0.115 0 0 0.12 0 0 0.125 0 0 0.13 0 0 0.135 0 0 0.14 0 0 0.145 0 0 0.15 0 0 0.155 0 0 0.16 0 0 0.165 0 0 0.17 0 0 0.175 0 0 0.18 0 0 0.185 0 0 0.19 0 0 0.195 0 0 0.2 0 0 0.205 0 0 0.21 0 0 0.215 0 0 0.22 0 0 0.225 0 0 0.23 0 0 0.235 0 0 0.24 0 0 0.245 0 0 0.25 0 0 0.255 0 0 0.26 0 0 0.265 0 0 0.27 0 0 0.275 0 0 0.28 0 0 0.285 0 0 0.29 0 0 0.295 0 0 0.3 0 0 0.305 0 0 0.31 0 0 0.315 0 0 0.32 0 0 0.325 0 0 0.33 0 0 0.335 0 0 0.34 0 0 0.345 0 0 0.35 0 0 0.355 0 0 0.36 0 0 0.365 0 0 0.37 0 0 0.375 0 0 0.38 0 0 0.385 0 0 0.39 0 0 0.395 0 0 0.4 0 0 0.405 0 0 0.41 0 0 0.415 0 0 0.42 0 0 0.425 0 0 0.43 0 0 0.435 0 0 0.44 0 0 0.445 0 0 0.45 0 0 0.455 0 0 0.46 0 0 0.465 0 0 0.47 0 0 0.475 0 0 0.48 0 0 0.485 0 0 0.49 0 0 0.495 0 0 0.5 0 0 0.505 0 0 0.51 0 0 0.515 0 0 0.52 0 0 0.525 0 0 0.53 0 0 0.535 0 0 0.54 0 0 0.545 0 0 0.55 0 0 0.555 0 0 0.56 0 0 0.565 0 0 0.57 0 0 0.575 0 0 0.58 0 0 0.585 0 0 0.59 0 0 0.595 0 0 0.6 0 0 0.605 0 0 0.61 0 0 0.615 0 0 0.62 0 0 0.625 0 0 0.63 0 0 0.635 0 0 0.64 0 0 0.645 0 0 0.65 0 0 0.655 0 0 0.66 0 0 0.665 0 0 0.67 0 0 0.675 0 0 0.68 0 0 0.685 0 0 0.69 0 0 0.695 0 0 0.7 0 0 0.705 0 0 0.71 0 0 0.715 0 0 0.72 0 0 0.725 0 0 0.73 0 0 0.735 0 0 0.74 0 0 0.745 0 0 0.75 0 0 0.755 0 0 0.76 0 0 0.765 0 0 0.77 0 0 0.775 0 0 0.78 0 0 0.785 0 0 0.79 0 0 0.795 0 0 0.8 0 0 0.805 0 0 0.81 0 0 0.815 0 0 0.82 0 0 0.825 0 0 0.83 0 0 0.835 0 0 0.84 0 0 0.845 0 0 0.85 0 0 0.855 0 0 0.86 0 0 0.865 0 0 0.87 0 0 0.875 0 0 0.88 0 0 0.885 0 0 0.89 0 0 0.895 0 0 0.9 0 0 0.905 0 0 0.91 0 0 0.915 0 0 0.92 0 0 0.925 0 0 0.93 0 0 0.935 0 0 0.94 0 0 0.945 0 0 0.95 0 0 0.955 0 0 0.96 0 0 0.965 0 0 0.97 0 0 0.975 0 0 0.98 0 0 0.985 0 0 0.99 0 0 0.995 0 0 1 0 0 0 0.02 0 0.005 0.02 0 0.01 0.02 0 0.015 0.02 0 0.02 0.02 0 0.025 0.02 0 0.03 0.02 0 0.035 0.02 0 0.04 0.02 0 0.045 0.02 0 0.05 0.02 0 0.055 0.02 0 0.06 0.02 0 0.065 0.02 0 0.07 0.02 0 0.075 0.02 0 0.08 0.02 0 0.085 0.02 0 0.09 0.02 0 0.095 0.02 0 0.1 0.02 0 0.105 0.02 0 0.11 0.02 0 0.115 0.02 0 0.12 0.02 0 0.125 0.02 0 0.13 0.02 0 0.135 0.02 0 0.14 0.02 0 0.145 0.02 0 0.15 0.02 0 0.155 0.02 0 0.16 0.02 0 0.165 0.02 0 0.17 0.02 0 0.175 0.02 0 0.18 0.02 0 0.185 0.02 0 0.19 0.02 0 0.195 0.02 0 0.2 0.02 0 0.205 0.02 0 0.21 0.02 0 0.215 0.02 0 0.22 0.02 0 0.225 0.02 0 0.23 0.02 0 0.235 0.02 0 0.24 0.02 0 0.245 0.02 0 0.25 0.02 0 0.255 0.02 0 0.26 0.02 0 0.265 0.02 0 0.27 0.02 0 0.275 0.02 0 0.28 0.02 0 0.285 0.02 0 0.29 0.02 0 0.295 0.02 0 0.3 0.02 0 0.305 0.02 0 0.31 0.02 0 0.315 0.02 0 0.32 0.02 0 0.325 0.02 0 0.33 0.02 0 0.335 0.02 0 0.34 0.02 0 0.345 0.02 0 0.35 0.02 0 0.355 0.02 0 0.36 0.02 0 0.365 0.02 0 0.37 0.02 0 0.375 0.02 0 0.38 0.02 0 0.385 0.02 0 0.39 0.02 0 0.395 0.02 0 0.4 0.02 0 0.405 0.02 0 0.41 0.02 0 0.415 0.02 0 0.42 0.02 0 0.425 0.02 0 0.43 0.02 0 0.435 0.02 0 0.44 0.02 0 0.445 0.02 0 0.45 0.02 0 0.455 0.02 0 0.46 0.02 0 0.465 0.02 0 0.47 0.02 0 0.475 0.02 0 0.48 0.02 0 0.485 0.02 0 0.49 0.02 0 0.495 0.02 0 0.5 0.02 0 0.505 0.02 0 0.51 0.02 0 0.515 0.02 0 0.52 0.02 0 0.525 0.02 0 0.53 0.02 0 0.535 0.02 0 0.54 0.02 0 0.545 0.02 0 0.55 0.02 0 0.555 0.02 0 0.56 0.02 0 0.565 0.02 0 0.57 0.02 0 0.575 0.02 0 0.58 0.02 0 0.585 0.02 0 0.59 0.02 0 0.595 0.02 0 0.6 0.02 0 0.605 0.02 0 0.61 0.02 0 0.615 0.02 0 0.62 0.02 0 0.625 0.02 0 0.63 0.02 0 0.635 0.02 0 0.64 0.02 0 0.645 0.02 0 0.65 0.02 0 0.655 0.02 0 0.66 0.02 0 0.665 0.02 0 0.67 0.02 0 0.675 0.02 0 0.68 0.02 0 0.685 0.02 0 0.69 0.02 0 0.695 0.02 0 0.7 0.02 0 0.705 0.02 0 0.71 0.02 0 0.715 0.02 0 0.72 0.02 0 0.725 0.02 0 0.73 0.02 0 0.735 0.02 0 0.74 0.02 0 0.745 0.02 0 0.75 0.02 0 0.755 0.02 0 0.76 0.02 0 0.765 0.02 0 0.77 0.02 0 0.775 0.02 0 0.78 0.02 0 0.785 0.02 0 0.79 0.02 0 0.795 0.02 0 0.8 0.02 0 0.805 0.02 0 0.81 0.02 0 0.815 0.02 0 0.82 0.02 0 0.825 0.02 0 0.83 0.02 0 0.835 0.02 0 0.84 0.02 0 0.845 0.02 0 0.85 0.02 0 0.855 0.02 0 0.86 0.02 0 0.865 0.02 0 0.87 0.02 0 0.875 0.02 0 0.88 0.02 0 0.885 0.02 0 0.89 0.02 0 0.895 0.02 0 0.9 0.02 0 0.905 0.02 0 0.91 0.02 0 0.915 0.02 0 0.92 0.02 0 0.925 0.02 0 0.93 0.02 0 0.935 0.02 0 0.94 0.02 0 0.945 0.02 0 0.95 0.02 0 0.955 0.02 0 0.96 0.02 0 0.965 0.02 0 0.97 0.02 0 0.975 0.02 0 0.98 0.02 0 0.985 0.02 0 0.99 0.02 0 0.995 0.02 0 1 0.02 0 0 0.04 0 0.005 0.04 0 0.01 0.04 0 0.015 0.04 0 0.02 0.04 0 0.025 0.04 0 0.03 0.04 0 0.035 0.04 0 0.04 0.04 0 0.045 0.04 0 0.05 0.04 0 0.055 0.04 0 0.06 0.04 0 0.065 0.04 0 0.07 0.04 0 0.075 0.04 0 0.08 0.04 0 0.085 0.04 0 0.09 0.04 0 0.095 0.04 0 0.1 0.04 0 0.105 0.04 0 0.11 0.04 0 0.115 0.04 0 0.12 0.04 0 0.125 0.04 0 0.13 0.04 0 0.135 0.04 0 0.14 0.04 0 0.145 0.04 0 0.15 0.04 0 0.155 0.04 0 0.16 0.04 0 0.165 0.04 0 0.17 0.04 0 0.175 0.04 0 0.18 0.04 0 0.185 0.04 0 0.19 0.04 0 0.195 0.04 0 0.2 0.04 0 0.205 0.04 0 0.21 0.04 0 0.215 0.04 0 0.22 0.04 0 0.225 0.04 0 0.23 0.04 0 0.235 0.04 0 0.24 0.04 0 0.245 0.04 0 0.25 0.04 0 0.255 0.04 0 0.26 0.04 0 0.265 0.04 0 0.27 0.04 0 0.275 0.04 0 0.28 0.04 0 0.285 0.04 0 0.29 0.04 0 0.295 0.04 0 0.3 0.04 0 0.305 0.04 0 0.31 0.04 0 0.315 0.04 0 0.32 0.04 0 0.325 0.04 0 0.33 0.04 0 0.335 0.04 0 0.34 0.04 0 0.345 0.04 0 0.35 0.04 0 0.355 0.04 0 0.36 0.04 0 0.365 0.04 0 0.37 0.04 0 0.375 0.04 0 0.38 0.04 0 0.385 0.04 0 0.39 0.04 0 0.395 0.04 0 0.4 0.04 0 0.405 0.04 0 0.41 0.04 0 0.415 0.04 0 0.42 0.04 0 0.425 0.04 0 0.43 0.04 0 0.435 0.04 0 0.44 0.04 0 0.445 0.04 0 0.45 0.04 0 0.455 0.04 0 0.46 0.04 0 0.465 0.04 0 0.47 0.04 0 0.475 0.04 0 0.48 0.04 0 0.485 0.04 0 0.49 0.04 0 0.495 0.04 0 0.5 0.04 0 0.505 0.04 0 0.51 0.04 0 0.515 0.04 0 0.52 0.04 0 0.525 0.04 0 0.53 0.04 0 0.535 0.04 0 0.54 0.04 0 0.545 0.04 0 0.55 0.04 0 0.555 0.04 0 0.56 0.04 0 0.565 0.04 0 0.57 0.04 0 0.575 0.04 0 0.58 0.04 0 0.585 0.04 0 0.59 0.04 0 0.595 0.04 0 0.6 0.04 0 0.605 0.04 0 0.61 0.04 0 0.615 0.04 0 0.62 0.04 0 0.625 0.04 0 0.63 0.04 0 0.635 0.04 0 0.64 0.04 0 0.645 0.04 0 0.65 0.04 0 0.655 0.04 0 0.66 0.04 0 0.665 0.04 0 0.67 0.04 0 0.675 0.04 0 0.68 0.04 0 0.685 0.04 0 0.69 0.04 0 0.695 0.04 0 0.7 0.04 0 0.705 0.04 0 0.71 0.04 0 0.715 0.04 0 0.72 0.04 0 0.725 0.04 0 0.73 0.04 0 0.735 0.04 0 0.74 0.04 0 0.745 0.04 0 0.75 0.04 0 0.755 0.04 0 0.76 0.04 0 0.765 0.04 0 0.77 0.04 0 0.775 0.04 0 0.78 0.04 0 0.785 0.04 0 0.79 0.04 0 0.795 0.04 0 0.8 0.04 0 0.805 0.04 0 0.81 0.04 0 0.815 0.04 0 0.82 0.04 0 0.825 0.04 0 0.83 0.04 0 0.835 0.04 0 0.84 0.04 0 0.845 0.04 0 0.85 0.04 0 0.855 0.04 0 0.86 0.04 0 0.865 0.04 0 0.87 0.04 0 0.875 0.04 0 0.88 0.04 0 0.885 0.04 0 0.89 0.04 0 0.895 0.04 0 0.9 0.04 0 0.905 0.04 0 0.91 0.04 0 0.915 0.04 0 0.92 0.04 0 0.925 0.04 0 0.93 0.04 0 0.935 0.04 0 0.94 0.04 0 0.945 0.04 0 0.95 0.04 0 0.955 0.04 0 0.96 0.04 0 0.965 0.04 0 0.97 0.04 0 0.975 0.04 0 0.98 0.04 0 0.985 0.04 0 0.99 0.04 0 0.995 0.04 0 1 0.04 0 0 0.06 0 0.005 0.06 0 0.01 0.06 0 0.015 0.06 0 0.02 0.06 0 0.025 0.06 0 0.03 0.06 0 0.035 0.06 0 0.04 0.06 0 0.045 0.06 0 0.05 0.06 0 0.055 0.06 0 0.06 0.06 0 0.065 0.06 0 0.07 0.06 0 0.075 0.06 0 0.08 0.06 0 0.085 0.06 0 0.09 0.06 0 0.095 0.06 0 0.1 0.06 0 0.105 0.06 0 0.11 0.06 0 0.115 0.06 0 0.12 0.06 0 0.125 0.06 0 0.13 0.06 0 0.135 0.06 0 0.14 0.06 0 0.145 0.06 0 0.15 0.06 0 0.155 0.06 0 0.16 0.06 0 0.165 0.06 0 0.17 0.06 0 0.175 0.06 0 0.18 0.06 0 0.185 0.06 0 0.19 0.06 0 0.195 0.06 0 0.2 0.06 0 0.205 0.06 0 0.21 0.06 0 0.215 0.06 0 0.22 0.06 0 0.225 0.06 0 0.23 0.06 0 0.235 0.06 0 0.24 0.06 0 0.245 0.06 0 0.25 0.06 0 0.255 0.06 0 0.26 0.06 0 0.265 0.06 0 0.27 0.06 0 0.275 0.06 0 0.28 0.06 0 0.285 0.06 0 0.29 0.06 0 0.295 0.06 0 0.3 0.06 0 0.305 0.06 0 0.31 0.06 0 0.315 0.06 0 0.32 0.06 0 0.325 0.06 0 0.33 0.06 0 0.335 0.06 0 0.34 0.06 0 0.345 0.06 0 0.35 0.06 0 0.355 0.06 0 0.36 0.06 0 0.365 0.06 0 0.37 0.06 0 0.375 0.06 0 0.38 0.06 0 0.385 0.06 0 0.39 0.06 0 0.395 0.06 0 0.4 0.06 0 0.405 0.06 0 0.41 0.06 0 0.415 0.06 0 0.42 0.06 0 0.425 0.06 0 0.43 0.06 0 0.435 0.06 0 0.44 0.06 0 0.445 0.06 0 0.45 0.06 0 0.455 0.06 0 0.46 0.06 0 0.465 0.06 0 0.47 0.06 0 0.475 0.06 0 0.48 0.06 0 0.485 0.06 0 0.49 0.06 0 0.495 0.06 0 0.5 0.06 0 0.505 0.06 0 0.51 0.06 0 0.515 0.06 0 0.52 0.06 0 0.525 0.06 0 0.53 0.06 0 0.535 0.06 0 0.54 0.06 0 0.545 0.06 0 0.55 0.06 0 0.555 0.06 0 0.56 0.06 0 0.565 0.06 0 0.57 0.06 0 0.575 0.06 0 0.58 0.06 0 0.585 0.06 0 0.59 0.06 0 0.595 0.06 0 0.6 0.06 0 0.605 0.06 0 0.61 0.06 0 0.615 0.06 0 0.62 0.06 0 0.625 0.06 0 0.63 0.06 0 0.635 0.06 0 0.64 0.06 0 0.645 0.06 0 0.65 0.06 0 0.655 0.06 0 0.66 0.06 0 0.665 0.06 0 0.67 0.06 0 0.675 0.06 0 0.68 0.06 0 0.685 0.06 0 0.69 0.06 0 0.695 0.06 0 0.7 0.06 0 0.705 0.06 0 0.71 0.06 0 0.715 0.06 0 0.72 0.06 0 0.725 0.06 0 0.73 0.06 0 0.735 0.06 0 0.74 0.06 0 0.745 0.06 0 0.75 0.06 0 0.755 0.06 0 0.76 0.06 0 0.765 0.06 0 0.77 0.06 0 0.775 0.06 0 0.78 0.06 0 0.785 0.06 0 0.79 0.06 0 0.795 0.06 0 0.8 0.06 0 0.805 0.06 0 0.81 0.06 0 0.815 0.06 0 0.82 0.06 0 0.825 0.06 0 0.83 0.06 0 0.835 0.06 0 0.84 0.06 0 0.845 0.06 0 0.85 0.06 0 0.855 0.06 0 0.86 0.06 0 0.865 0.06 0 0.87 0.06 0 0.875 0.06 0 0.88 0.06 0 0.885 0.06 0 0.89 0.06 0 0.895 0.06 0 0.9 0.06 0 0.905 0.06 0 0.91 0.06 0 0.915 0.06 0 0.92 0.06 0 0.925 0.06 0 0.93 0.06 0 0.935 0.06 0 0.94 0.06 0 0.945 0.06 0 0.95 0.06 0 0.955 0.06 0 0.96 0.06 0 0.965 0.06 0 0.97 0.06 0 0.975 0.06 0 0.98 0.06 0 0.985 0.06 0 0.99 0.06 0 0.995 0.06 0 1 0.06 0 0 0.08 0 0.005 0.08 0 0.01 0.08 0 0.015 0.08 0 0.02 0.08 0 0.025 0.08 0 0.03 0.08 0 0.035 0.08 0 0.04 0.08 0 0.045 0.08 0 0.05 0.08 0 0.055 0.08 0 0.06 0.08 0 0.065 0.08 0 0.07 0.08 0 0.075 0.08 0 0.08 0.08 0 0.085 0.08 0 0.09 0.08 0 0.095 0.08 0 0.1 0.08 0 0.105 0.08 0 0.11 0.08 0 0.115 0.08 0 0.12 0.08 0 0.125 0.08 0 0.13 0.08 0 0.135 0.08 0 0.14 0.08 0 0.145 0.08 0 0.15 0.08 0 0.155 0.08 0 0.16 0.08 0 0.165 0.08 0
[...]
			<PointData Scalars="VitesseX">
				<DataArray Name="VitesseX" type="Float32" format="ascii">
 0 -6.49018e-15 -7.74921e-15 -1.71045e-14 -5.40469e-15 -3.61255e-14 -1.32059e-14 -5.69526e-14 -3.90505e-14 -5.58157e-14 -8.88847e-14 -5.87531e-14 -8.49598e-14 -4.76058e-14 -5.05349e-14 -7.06392e-14 -3.99743e-14 -1.09561e-14 4.51192e-14 1.43158e-14 7.05465e-14 4.37365e-14 4.49242e-14 1.44606e-14 -1.6379e-14 -2.94698e-14 -5.97827e-15 -6.94171e-14 5.47189e-14 -9.15932e-14 -6.66896e-15 1.36765e-14 3.54772e-15 2.69371e-14 -1.09544e-17 5.40228e-14 1.78769e-14 2.28692e-13 1.28753e-12 7.77391e-12 4.54257e-11 2.57212e-10 1.38604e-09 7.08608e-09 3.43245e-08 1.5716e-07 6.78402e-07 2.75262e-06 1.04625e-05 3.71045e-05 0.000122204 0.000371698 0.00103723 0.00263534 0.00604688 0.0124383 0.0228407 0.037519 0.0556936 0.0760069 0.0972873 0.118892 0.140575 0.162255 0.183906 0.205515 0.227076 0.248584 0.270037 0.291432 0.312768 0.334043 0.355252 0.376395 0.397466 0.418463 0.439379 0.46021 0.480948 0.501587 0.522116 0.542525 0.562801 0.582931 0.602898 0.622681 0.642258 0.661604 0.680688 0.699474 0.717924 0.735991 0.753623 0.770761 0.787341 0.80329 0.818531 0.832981 0.846556 0.859173 0.870755 0.881233 0.890558 0.898703 0.905669 0.911486 0.916218 0.919958 0.922818 0.924929 0.926424 0.927431 0.928068 0.928435 0.928615 0.92867 0.928658 0.928614 0.92855 0.928472 0.928385 0.928293 0.928201 0.928109 0.92802 0.927935 0.927854 0.927777 0.927704 0.927635 0.927569 0.927506 0.927446 0.927387 0.92733 0.927275 0.92722 0.927166 0.927113 0.927059 0.927005 0.926951 0.926895 0.926838 0.926778 0.926713 0.926641 0.926555 0.926448 0.926303 0.926093 0.925775 0.925272 0.924462 0.923144 0.920993 0.917493 0.91184 0.902808 0.888597 0.866701 0.833882 0.786417 0.720779 0.634882 0.529806 0.411473 0.291126 0.183203 0.100332 0.0475227 0.019953 0.00777143 0.00291742 0.00107771 0.000395224 0.000144365 5.25807e-05 1.90999e-05 6.91886e-06 2.49879e-06 8.99479e-07 3.22609e-07 1.1525e-07 4.09947e-08 1.4514e-08 5.11284e-09 1.79108e-09 6.23951e-10 2.15895e-10 7.43482e-11 2.50439e-11 8.37511e-12 2.80164e-12 1.27558e-12 1.20292e-13 1.92146e-13 -3.38091e-13 2.86379e-13 2.9887e-14 0 0 -5.44439e-16 -9.38456e-15 -5.1591e-15 -2.67202e-14 -1.26243e-14 -4.62531e-14 -3.02339e-14 -6.61584e-14 -6.36498e-14 -4.45262e-14 -7.8855e-14 -6.35823e-14 -6.60641e-14 -5.19609e-14 -4.56093e-14 -2.20715e-14 7.29928e-15 2.31284e-14 4.34439e-14 3.68541e-14 3.24443e-14 2.61729e-15 -1.67842e-14 2.27464e-14 -2.21015e-15 -4.47225e-14 2.39322e-14 -1.08897e-13 3.07874e-14 -8.33448e-15 -2.31904e-15 3.64545e-14 1.82407e-14 1.2647e-14 -1.64352e-14 1.01001e-13 1.64255e-13 1.30619e-12 7.57182e-12 4.5432e-11 2.57468e-10 1.38597e-09 7.08603e-09 3.43242e-08 1.5716e-07 6.78402e-07 2.75262e-06 1.04625e-05 3.71045e-05 0.000122204 0.000371698 0.00103723 0.00263534 0.00604688 0.0124383 0.0228407 0.037519 0.0556936 0.0760069 0.0972873 0.118892 0.140575 0.162255 0.183906 0.205515 0.227076 0.248584 0.270037 0.291432 0.312768 0.334043 0.355252 0.376395 0.397466 0.418463 0.439379 0.46021 0.480948 0.501587 0.522116 0.542525 0.562801 0.582931 0.602898 0.622681 0.642258 0.661604 0.680688 0.699474 0.717924 0.735991 0.753623 0.770761 0.787341 0.80329 0.818531 0.832981 0.846556 0.859173 0.870755 0.881233 0.890558 0.898703 0.905669 0.911486 0.916218 0.919958 0.922818 0.924929 0.926424 0.927431 0.928068 0.928435 0.928615 0.92867 0.928658 0.928614 0.92855 0.928472 0.928385 0.928293 0.928201 0.928109 0.92802 0.927935 0.927854 0.927777 0.927704 0.927635 0.927569 0.927506 0.927446 0.927387 0.92733 0.927275 0.92722 0.927166 0.927113 0.927059 0.927005 0.926951 0.926895 0.926838 0.926778 0.926713 0.926641 0.926555 0.926448 0.926303 0.926093 0.925775 0.925272 0.924462 0.923144 0.920993 0.917493 0.91184 0.902808 0.888597 0.866701 0.833882 0.786417 0.720779 0.634882 0.529806 0.411473 0.291126 0.183203 0.100332 0.0475227 0.019953 0.00777143 0.00291742 0.00107771 0.000395224 0.000144365 5.25807e-05 1.90999e-05 6.91886e-06 2.49879e-06 8.99479e-07 3.22609e-07 1.1525e-07 4.09947e-08 1.45139e-08 5.11273e-09 1.79137e-09 6.23968e-10 2.15996e-10 7.40359e-11 2.53807e-11 8.52979e-12 2.69186e-12 5.83008e-13 3.25572e-13 1.26117e-13 2.75892e-13 -2.88293e-13 -1.10773e-13 0 0 -7.65681e-15 -6.35313e-15 -2.00736e-14 -2.6682e-14 -3.97798e-14 -2.81901e-14 -5.58537e-14 -4.82843e-14 -3.94885e-14 -8.63587e-14 -4.83488e-14 -5.83611e-14 -5.60188e-14 -5.28673e-14 -4.95397e-16 6.90362e-16 2.78062e-14 -7.493e-15 1.95369e-14 4.72422e-14 -8.12072e-15 1.30231e-15 2.28557e-14 -8.36639e-15 -1.34101e-14 1.28421e-15 -4.92542e-14 -1.17515e-14 -6.19026e-15 1.24594e-14 -2.42041e-14 -1.68755e-14 2.7228e-15 -8.48703e-15 8.71976e-15 8.23303e-14 2.23453e-13 1.21662e-12 7.63435e-12 4.53901e-11 2.57343e-10 1.38597e-09 7.08604e-09 3.43243e-08 1.5716e-07 6.78402e-07 2.75262e-06 1.04625e-05 3.71045e-05 0.000122204 0.000371698 0.00103723 0.00263534 0.00604688 0.0124383 0.0228407 0.037519 0.0556936 0.0760069 0.0972873 0.118892 0.140575 0.162255 0.183906 0.205515 0.227076 0.248584 0.270037 0.291432 0.312768 0.334043 0.355252 0.376395 0.397466 0.418463 0.439379 0.46021 0.480948 0.501587 0.522116 0.542525 0.562801 0.582931 0.602898 0.622681 0.642258 0.661604 0.680688 0.699474 0.717924 0.735991 0.753623 0.770761 0.787341 0.80329 0.818531 0.832981 0.846556 0.859173 0.870755 0.881233 0.890558 0.898703 0.905669 0.911486 0.916218 0.919958 0.922818 0.924929 0.926424 0.927431 0.928068 0.928435 0.928615 0.92867 0.928658 0.928614 0.92855 0.928472 0.928385 0.928293 0.928201 0.928109 0.92802 0.927935 0.927854 0.927777 0.927704 0.927635 0.927569 0.927506 0.927446 0.927387 0.92733 0.927275 0.92722 0.927166 0.927113 0.927059 0.927005 0.926951 0.926895 0.926838 0.926778 0.926713 0.926641 0.926555 0.926448 0.926303 0.926093 0.925775 0.925272 0.924462 0.923144 0.920993 0.917493 0.91184 0.902808 0.888597 0.866701 0.833882 0.786417 0.720779 0.634882 0.529806 0.411473 0.291126 0.183203 0.100332 0.0475227 0.019953 0.00777143 0.00291742 0.00107771 0.000395224 0.000144365 5.25807e-05 1.90999e-05 6.91886e-06 2.49879e-06 8.99479e-07 3.22609e-07 1.1525e-07 4.09946e-08 1.45139e-08 5.11289e-09 1.79126e-09 6.24084e-10 2.15878e-10 7.44326e-11 2.51446e-11 8.56381e-12 2.7471e-12 6.60081e-13 1.41894e-13 -2.50092e-13 1.10143e-13 -1.85569e-13 1.5186e-13 0 0 -1.38418e-14 -2.28605e-14 -3.32188e-14 -4.15711e-14 -5.12291e-14 -4.16829e-14 -4.31076e-14 -5.78226e-14 -4.5164e-14 -6.66997e-14 -5.00005e-14 -2.36923e-14 -2.93339e-14 -4.63595e-14 1.40524e-14 3.93234e-15 -4.66108e-14 4.56504e-14 -4.51569e-16 1.61104e-14 2.31599e-14 5.58897e-14 -1.63159e-14 -1.66085e-14 -5.59378e-14 -1.53286e-14 -3.98648e-14 2.3423e-14 -6.06371e-14 -3.11008e-14 -1.5794e-15 -4.30237e-15 -2.3491e-14 3.06671e-14 5.92963e-14 9.05132e-15 2.96208e-13 1.18944e-12 7.69879e-12 4.53664e-11 2.57276e-10 1.38589e-09 7.08602e-09 3.43243e-08 1.5716e-07 6.78402e-07 2.75262e-06 1.04625e-05 3.71045e-05 0.000122204 0.000371698 0.00103723 0.00263534 0.00604688 0.0124383 0.0228407 0.037519 0.0556936 0.0760069 0.0972873 0.118892 0.140575 0.162255 0.183906 0.205515 0.227076 0.248584 0.270037 0.291432 0.312768 0.334043 0.355252 0.376395 0.397466 0.418463 0.439379 0.46021 0.480948 0.501587 0.522116 0.542525 0.562801 0.582931 0.602898 0.622681 0.642258 0.661604 0.680688 0.699474 0.717924 0.735991 0.753623 0.770761 0.787341 0.80329 0.818531 0.832981 0.846556 0.859173 0.870755 0.881233 0.890558 0.898703 0.905669 0.911486 0.916218 0.919958 0.922818 0.924929 0.926424 0.927431 0.928068 0.928435 0.928615 0.92867 0.928658 0.928614 0.92855 0.928472 0.928385 0.928293 0.928201 0.928109 0.92802 0.927935 0.927854 0.927777 0.927704 0.927635 0.927569 0.927506 0.927446 0.927387 0.92733 0.927275 0.92722 0.927166 0.927113 0.927059 0.927005 0.926951 0.926895 0.926838 0.926778 0.926713 0.926641 0.926555 0.926448 0.926303 0.926093 0.925775 0.925272 0.924462 0.923144 0.920993 0.917493 0.91184 0.902808 0.888597 0.866701 0.833882 0.786417 0.720779 0.634882 0.529806 0.411473 0.291126 0.183203 0.100332 0.0475227 0.019953 0.00777143 0.00291742 0.00107771 0.000395224 0.000144365 5.25807e-05 1.90999e-05 6.91886e-06 2.49879e-06 8.99479e-07 3.22609e-07 1.1525e-07 4.09946e-08 1.45141e-08 5.11281e-09 1.79149e-09 6.24068e-10 2.15876e-10 7.45193e-11 2.50629e-11 8.51115e-12 2.93159e-12 7.39538e-13 1.82578e-13 1.41987e-13 -3.67138e-13 -3.45393e-14 -1.79454e-14 0 0 -1.08727e-14 -3.17218e-14 -2.55935e-14 -4.8367e-14 -4.25008e-14 -6.43262e-14 -2.49926e-14 -5.56886e-14 -5.53615e-14 -7.07854e-15 -5.2876e-14 -2.29469e-14 -2.78104e-14 -2.5993e-14 -1.67073e-14 6.10812e-15 -4.57772e-14 3.47895e-14 4.68451e-14 -4.08305e-15 2.25792e-14 2.81297e-14 -7.66354e-14 -2.12266e-14 -4.7333e-14 -9.16688e-14 -4.35025e-15 -9.67823e-14 2.31165e-14 -1.9432e-14 -1.34892e-14 2.92997e-14 -8.71508e-15 3.47073e-14 5.66358e-14 8.70261e-14 2.525e-13 1.23343e-12 7.51801e-12 4.53375e-11 2.57428e-10 1.38584e-09 7.08605e-09 3.43243e-08 1.5716e-07 6.78403e-07 2.75262e-06 1.04625e-05 3.71045e-05 0.000122204 0.000371698 0.00103723 0.00263534 0.00604688 0.0124383 0.0228407 0.037519 0.0556936 0.0760069 0.0972873 0.118892 0.140575 0.162255 0.183906 0.205515 0.227076 0.248584 0.270037 0.291432 0.312768 0.334043 0.355252 0.376395 0.397466 0.418463 0.439379 0.46021 0.480948 0.501587 0.522116 0.542525 0.562801 0.582931 0.602898 0.622681 0.642258 0.661604 0.680688 0.699474 0.717924 0.735991 0.753623 0.770761 0.787341 0.80329 0.818531 0.832981 0.846556 0.859173 0.870755 0.881233 0.890558 0.898703 0.905669 0.911486 0.916218 0.919958 0.922818 0.924929 0.926424 0.927431 0.928068 0.928435 0.928615 0.92867 0.928658 0.928614 0.92855 0.928472 0.928385 0.928293 0.928201 0.928109 0.92802 0.927935 0.927854 0.927777 0.927704 0.927635 0.927569 0.927506 0.927446 0.927387 0.92733 0.927275 0.92722 0.927166 0.927113 0.927059 0.927005 0.926951 0.926895 0.926838 0.926778 0.926713 0.926641 0.926555 0.926448 0.926303 0.926093 0.925775 0.925272 0.924462 0.923144 0.920993 0.917493 0.91184 0.902808 0.888597 0.866701 0.833882 0.786417 0.720779 0.634882 0.529806 0.411473 0.291126 0.183203 0.100332 0.0475227 0.019953 0.00777143 0.00291742 0.00107771 0.000395224 0.000144365 5.25807e-05 1.90999e-05 6.91886e-06 2.49879e-06 8.99479e-07 3.22609e-07 1.1525e-07 4.09947e-08 1.4514e-08 5.11274e-09 1.79162e-09 6.24157e-10 2.16098e-10 7.41347e-11 2.53677e-11 8.67708e-12 2.90417e-12 3.75413e-13 2.1748e-13 3.5779e-13 -1.05818e-14 -1.54906e-13 -3.7577e-13 0 0 -1.47767e-14 -1.94088e-14 -3.16829e-14 -1.892e-14 -7.29799e-14 -2.23665e-14 -7.19623e-14 9.6571e-16 -2.78883e-14 -5.33072e-14 -3.49145e-15 -7.30267e-14 -2.44681e-14 -1.16147e-14 -4.19308e-14 9.901e-15 3.1725e-14 -3.78453e-14 6.10952e-14 5.09359e-14 -3.85549e-14 -1.32257e-14 -2.68986e-14 -8.78407e-14 -3.46602e-14 -6.66451e-14 -1.44761e-13 8.59949e-15 1.95887e-15 5.82563e-14 -5.39132e-14 -3.59081e-14 2.54531e-14 -3.41987e-14 9.90118e-14 1.36485e-13 2.59671e-13 1.19637e-12 7.53741e-12 4.52841e-11 2.57268e-10 1.38594e-09 7.08615e-09 3.43245e-08 1.5716e-07 6.78403e-07 2.75262e-06 1.04625e-05 3.71045e-05 0.000122204 0.000371698 0.00103723 0.00263534 0.00604688 0.0124383 0.0228407 0.037519 0.0556936 0.0760069 0.0972873 0.118892 0.140575 0.162255 0.183906 0.205515 0.227076 0.248584 0.270037 0.291432 0.312768 0.334043 0.355252 0.376395 0.397466 0.418463 0.439379 0.46021 0.480948 0.501587 0.522116 0.542525 0.562801 0.582931 0.602898 0.622681 0.642258 0.661604 0.680688 0.699474 0.717924 0.735991 0.753623 0.770761 0.787341 0.80329 0.818531 0.832981 0.846556 0.859173 0.870755 0.881233 0.890558 0.898703 0.905669 0.911486 0.916218 0.919958 0.922818 0.924929 0.926424 0.927431 0.928068 0.928435 0.928615 0.92867 0.928658 0.928614 0.92855 0.928472 0.928385 0.928293 0.928201 0.928109 0.92802 0.927935 0.927854 0.927777 0.927704 0.927635 0.927569 0.927506 0.927446 0.927387 0.92733 0.927275 0.92722 0.927166 0.927113 0.927059 0.927005 0.926951 0.926895 0.926838 0.926778 0.926713 0.926641 0.926555 0.926448 0.926303 0.926093 0.925775 0.925272 0.924462 0.923144 0.920993 0.917493 0.91184 0.902808 0.888597 0.866701 0.833882 0.786417 0.720779 0.634882 0.529806 0.411473 0.291126 0.183203 0.100332 0.0475227 0.019953 0.00777143 0.00291742 0.00107771 0.000395224 0.000144365 5.25807e-05 1.90999e-05 6.91886e-06 2.49879e-06 8.99479e-07 3.22609e-07 1.1525e-07 4.09948e-08 1.45138e-08 5.113e-09 1.79113e-09 6.2436e-10 2.16104e-10 7.43724e-11 2.51814e-11 8.77502e-12 2.85727e-12 7.01475e-13 -1.7726e-13 -1.28667e-13 4.35238e-14 2.51094e-13 -1.60497e-13 0
				</DataArray>
				<DataArray Name="VitesseY" type="Float32" format="ascii">