<?xml version="1.0"?>
<VTKFile type="PolyData">
	<PolyData>
		<Piece NumberOfPoints="1206" NumberOfPolys="1000">
			<Points>
				<DataArray type="Float32" NumberOfComponents="3" format="ascii">
 0 0 0 0.005 0 0 0.01 0 0 0.015 0 0 0.02 0 0 0.025 0 0 0.03 0 0 0.035 0 0 0.04 0 0 0.045 0 0 0.05 0 0 0.055 0 0 0.06 0 0 0.065 0 0 0.07 0 0 0.075 0 0 0.08 0 0 0.085 0 0 0.09 0 0 0.095 0 0 0.1 0 0 0.105 0 0 0.11 0 0 0.115 0 0 0.12 0 0 0.125 0 0 0.13 0 0 0.135 0 0 0.14 0 0 0.145 0 0 0.15 0 0 0.155 0 0 0.16 0 0 0.165 0 0 0.17 0 0 0.175 0 0 0.18 0 0 0.185 0 0 0.19 0 0 0.195 0 0 0.2 0 0 0.205 0 0 0.21 0 0 0.215 0 0 0.22 0 0 0.225 0 0 0.23 0 0 0.235 0 0 0.24 0 0 0.245 0 0 0.25 0 0 0.255 0 0 0.26 0 0 0.265 0 0 0.27 0 0 0.275 0 0 0.28 0 0 0.285 0 0 0.29 0 0 0.295 0 0 0.3 0 0 0.305 0 0 0.31 0 0 0.315 0 0 0.32 0 0 0.325 0 0 0.33 0 0 0.335 0 0 0.34 0 0 0.345 0 0 0.35 0 0 0.355 0 0 0.36 0 0 0.365 0 0 0.37 0 0 0.375 0 0 0.38 0 0 0.385 0 0 0.39 0 0 0.395 0 0 0.4 0 0 0.405 0 0 0.41 0 0 0.415 0 0 0.42 0 0 0.425 0 0 0.43 0 0 0.435 0 0 0.44 0 0 0.445 0 0 0.45 0 0 0.455 0 0 0.46 0 0 0.465 0 0 0.47 0 0 0.475 0 0 0.48 0 0 0.485 0 0 0.49 0 0 0.495 0 0 0.5 0 0 0.505 0 0 0.51 0 0 0.515 0 0 0.52 0 0 0.525 0 0 0.53 0 0 0.535 0 0 0.54 0 0 0.545 0 0 0.55 0 0 0.555 0 0 0.56 0 0 0.565 0 0 0.57 0 0 0.575 0 0 0.58 0 0 0.585 0 0 0.59 0 0 0.595 0 0 0.6 0 0 0.605 0 0 0.61 0 0 0.615 0 0 0.62 0 0 0.625 0 0 0.63 0 0 0.635 0 0 0.64 0 0 0.645 0 0 0.65 0 0 0.655 0 0 0.66 0 0 0.665 0 0 0.67 0 0 0.675 0 0 0.68 0 0 0.685 0 0 0.69 0 0 0.695 0 0 0.7 0 0 0.705 0 0 0.71 0 0 0.715 0 0 0.72 0 0 0.725 0 0 0.73 0 0 0.735 0 0 0.74 0 0 0.745 0 0 0.75 0 0 0.755 0 0 0.76 0 0 0.765 0 0 0.77 0 0 0.775 0 0 0.78 0 0 0.785 0 0 0.79 0 0 0.795 0 0 0.8 0 0 0.805 0 0 0.81 0 0 0.815 0 0 0.82 0 0 0.825 0 0 0.83 0 0 0.835 0 0 0.84 0 0 0.845 0 0 0.85 0 0 0.855 0 0 0.86 0 0 0.865 0 0 0.87 0 0 0.875 0 0 0.88 0 0 0.885 0 0 0.89 0 0 0.895 0 0 0.9 0 0 0.905 0 0 0.91 0 0 0.915 0 0 0.92 0 0 0.925 0 0 0.93 0 0 0.935 0 0 0.94 0 0 0.945 0 0 0.95 0 0 0.955 0 0 0.96 0 0 0.965 0 0 0.97 0 0 0.975 0 0 0.98 0 0 0.985 0 0 0.99 0 0 0.995 0 0 1 0 0 0 0.02 0 0.005 0.02 0 0.01 0.02 0 0.015 0.02 0 0.02 0.02 0 0.025 0.02 0 0.03 0.02 0 0.035 0.02 0 0.04 0.02 0 0.045 0.02 0 0.05 0.02 0 0.055 0.02 0 0.06 0.02 0 0.065 0.02 0 0.07 0.02 0 0.075 0.02 0 0.08 0.02 0 0.085 0.02 0 0.09 0.02 0 0.095 0.02 0 0.1 0.02 0 0.105 0.02 0 0.11 0.02 0 0.115 0.02 0 0.12 0.02 0 0.125 0.02 0 0.13 0.02 0 0.135 0.02 0 0.14 0.02 0 0.145 0.02 0 0.15 0.02 0 0.155 0.02 0 0.16 0.02 0 0.165 0.02 0 0.17 0.02 0 0.175 0.02 0 0.18 0.02 0 0.185 0.02 0 0.19 0.02 0 0.195 0.02 0 0.2 0.02 0 0.205 0.02 0 0.21 0.02 0 0.215 0.02 0 0.22 0.02 0 0.225 0.02 0 0.23 0.02 0 0.235 0.02 0 0.24 0.02 0 0.245 0.02 0 0.25 0.02 0 0.255 0.02 0 0.26 0.02 0 0.265 0.02 0 0.27 0.02 0 0.275 0.02 0 0.28 0.02 0 0.285 0.02 0 0.29 0.02 0 0.295 0.02 0 0.3 0.02 0 0.305 0.02 0 0.31 0.02 0 0.315 0.02 0 0.32 0.02 0 0.325 0.02 0 0.33 0.02 0 0.335 0.02 0 0.34 0.02 0 0.345 0.02 0 0.35 0.02 0 0.355 0.02 0 0.36 0.02 0 0.365 0.02 0 0.37 0.02 0 0.375 0.02 0 0.38 0.02 0 0.385 0.02 0 0.39 0.02 0 0.395 0.02 0 0.4 0.02 0 0.405 0.02 0 0.41 0.02 0 0.415 0.02 0 0.42 0.02 0 0.425 0.02 0 0.43 0.02 0 0.435 0.02 0 0.44 0.02 0 0.445 0.02 0 0.45 0.02 0 0.455 0.02 0 0.46 0.02 0 0.465 0.02 0 0.47 0.02 0 0.475 0.02 0 0.48 0.02 0 0.485 0.02 0 0.49 0.02 0 0.495 0.02 0 0.5 0.02 0 0.505 0.02 0 0.51 0.02 0 0.515 0.02 0 0.52 0.02 0 0.525 0.02 0 0.53 0.02 0 0.535 0.02 0 0.54 0.02 0 0.545 0.02 0 0.55 0.02 0 0.555 0.02 0 0.56 0.02 0 0.565 0.02 0 0.57 0.02 0 0.575 0.02 0 0.58 0.02 0 0.585 0.02 0 0.59 0.02 0 0.595 0.02 0 0.6 0.02 0 0.605 0.02 0 0.61 0.02 0 0.615 0.02 0 0.62 0.02 0 0.625 0.02 0 0.63 0.02 0 0.635 0.02 0 0.64 0.02 0 0.645 0.02 0 0.65 0.02 0 0.655 0.02 0 0.66 0.02 0 0.665 0.02 0 0.67 0.02 0 0.675 0.02 0 0.68 0.02 0 0.685 0.02 0 0.69 0.02 0 0.695 0.02 0 0.7 0.02 0 0.705 0.02 0 0.71 0.02 0 0.715 0.02 0 0.72 0.02 0 0.725 0.02 0 0.73 0.02 0 0.735 0.02 0 0.74 0.02 0 0.745 0.02 0 0.75 0.02 0 0.755 0.02 0 0.76 0.02 0 0.765 0.02 0 0.77 0.02 0 0.775 0.02 0 0.78 0.02 0 0.785 0.02 0 0.79 0.02 0 0.795 0.02 0 0.8 0.02 0 0.805 0.02 0 0.81 0.02 0 0.815 0.02 0 0.82 0.02 0 0.825 0.02 0 0.83 0.02 0 0.835 0.02 0 0.84 0.02 0 0.845 0.02 0 0.85 0.02 0 0.855 0.02 0 0.86 0.02 0 0.865 0.02 0 0.87 0.02 0 0.875 0.02 0 0.88 0.02 0 0.885 0.02 0 0.89 0.02 0 0.895 0.02 0 0.9 0.02 0 0.905 0.02 0 0.91 0.02 0 0.915 0.02 0 0.92 0.02 0 0.925 0.02 0 0.93 0.02 0 0.935 0.02 0 0.94 0.02 0 0.945 0.02 0 0.95 0.02 0 0.955 0.02 0 0.96 0.02 0 0.965 0.02 0 0.97 0.02 0 0.975 0.02 0 0.98 0.02 0 0.985 0.02 0 0.99 0.02 0 0.995 0.02 0 1 0.02 0 0 0.04 0 0.005 0.04 0 0.01 0.04 0 0.015 0.04 0 0.02 0.04 0 0.025 0.04 0 0.03 0.04 0 0.035 0.04 0 0.04 0.04 0 0.045 0.04 0 0.05 0.04 0 0.055 0.04 0 0.06 0.04 0 0.065 0.04 0 0.07 0.04 0 0.075 0.04 0 0.08 0.04 0 0.085 0.04 0 0.09 0.04 0 0.095 0.04 0 0.1 0.04 0 0.105 0.04 0 0.11 0.04 0 0.115 0.04 0 0.12 0.04 0 0.125 0.04 0 0.13 0.04 0 0.135 0.04 0 0.14 0.04 0 0.145 0.04 0 0.15 0.04 0 0.155 0.04 0 0.16 0.04 0 0.165 0.04 0 0.17 0.04 0 0.175 0.04 0 0.18 0.04 0 0.185 0.04 0 0.19 0.04 0 0.195 0.04 0 0.2 0.04 0 0.205 0.04 0 0.21 0.04 0 0.215 0.04 0 0.22 0.04 0 0.225 0.04 0 0.23 0.04 0 0.235 0.04 0 0.24 0.04 0 0.245 0.04 0 0.25 0.04 0 0.255 0.04 0 0.26 0.04 0 0.265 0.04 0 0.27 0.04 0 0.275 0.04 0 0.28 0.04 0 0.285 0.04 0 0.29 0.04 0 0.295 0.04 0 0.3 0.04 0 0.305 0.04 0 0.31 0.04 0 0.315 0.04 0 0.32 0.04 0 0.325 0.04 0 0.33 0.04 0 0.335 0.04 0 0.34 0.04 0 0.345 0.04 0 0.35 0.04 0 0.355 0.04 0 0.36 0.04 0 0.365 0.04 0 0.37 0.04 0 0.375 0.04 0 0.38 0.04 0 0.385 0.04 0 0.39 0.04 0 0.395 0.04 0 0.4 0.04 0 0.405 0.04 0 0.41 0.04 0 0.415 0.04 0 0.42 0.04 0 0.425 0.04 0 0.43 0.04 0 0.435 0.04 0 0.44 0.04 0 0.445 0.04 0 0.45 0.04 0 0.455 0.04 0 0.46 0.04 0 0.465 0.04 0 0.47 0.04 0 0.475 0.04 0 0.48 0.04 0 0.485 0.04 0 0.49 0.04 0 0.495 0.04 0 0.5 0.04 0 0.505 0.04 0 0.51 0.04 0 0.515 0.04 0 0.52 0.04 0 0.525 0.04 0 0.53 0.04 0 0.535 0.04 0 0.54 0.04 0 0.545 0.04 0 0.55 0.04 0 0.555 0.04 0 0.56 0.04 0 0.565 0.04 0 0.57 0.04 0 0.575 0.04 0 0.58 0.04 0 0.585 0.04 0 0.59 0.04 0 0.595 0.04 0 0.6 0.04 0 0.605 0.04 0 0.61 0.04 0 0.615 0.04 0 0.62 0.04 0 0.625 0.04 0 0.63 0.04 0 0.635 0.04 0 0.64 0.04 0 0.645 0.04 0 0.65 0.04 0 0.655 0.04 0 0.66 0.04 0 0.665 0.04 0 0.67 0.04 0 0.675 0.04 0 0.68 0.04 0 0.685 0.04 0 0.69 0.04 0 0.695 0.04 0 0.7 0.04 0 0.705 0.04 0 0.71 0.04 0 0.715 0.04 0 0.72 0.04 0 0.725 0.04 0 0.73 0.04 0 0.735 0.04 0 0.74 0.04 0 0.745 0.04 0 0.75 0.04 0 0.755 0.04 0 0.76 0.04 0 0.765 0.04 0 0.77 0.04 0 0.775 0.04 0 0.78 0.04 0 0.785 0.04 0 0.79 0.04 0 0.795 0.04 0 0.8 0.04 0 0.805 0.04 0 0.81 0.04 0 0.815 0.04 0 0.82 0.04 0 0.825 0.04 0 0.83 0.04 0 0.835 0.04 0 0.84 0.04 0 0.845 0.04 0 0.85 0.04 0 0.855 0.04 0 0.86 0.04 0 0.865 0.04 0 0.87 0.04 0 0.875 0.04 0 0.88 0.04 0 0.885 0.04 0 0.89 0.04 0 0.895 0.04 0 0.9 0.04 0 0.905 0.04 0 0.91 0.04 0 0.915 0.04 0 0.92 0.04 0 0.925 0.04 0 0.93 0.04 0 0.935 0.04 0 0.94 0.04 0 0.945 0.04 0 0.95 0.04 0 0.955 0.04 0 0.96 0.04 0 0.965 0.04 0 0.97 0.04 0 0.975 0.04 0 0.98 0.04 0 0.985 0.04 0 0.99 0.04 0 0.995 0.04 0 1 0.04 0 0 0.06 0 0.005 0.06 0 0.01 0.06 0 0.015 0.06 0 0.02 0.06 0 0.025 0.06 0 0.03 0.06 0 0.035 0.06 0 0.04 0.06 0 0.045 0.06 0 0.05 0.06 0 0.055 0.06 0 0.06 0.06 0 0.065 0.06 0 0.07 0.06 0 0.075 0.06 0 0.08 0.06 0 0.085 0.06 0 0.09 0.06 0 0.095 0.06 0 0.1 0.06 0 0.105 0.06 0 0.11 0.06 0 0.115 0.06 0 0.12 0.06 0 0.125 0.06 0 0.13 0.06 0 0.135 0.06 0 0.14 0.06 0 0.145 0.06 0 0.15 0.06 0 0.155 0.06 0 0.16 0.06 0 0.165 0.06 0 0.17 0.06 0 0.175 0.06 0 0.18 0.06 0 0.185 0.06 0 0.19 0.06 0 0.195 0.06 0 0.2 0.06 0 0.205 0.06 0 0.21 0.06 0 0.215 0.06 0 0.22 0.06 0 0.225 0.06 0 0.23 0.06 0 0.235 0.06 0 0.24 0.06 0 0.245 0.06 0 0.25 0.06 0 0.255 0.06 0 0.26 0.06 0 0.265 0.06 0 0.27 0.06 0 0.275 0.06 0 0.28 0.06 0 0.285 0.06 0 0.29 0.06 0 0.295 0.06 0 0.3 0.06 0 0.305 0.06 0 0.31 0.06 0 0.315 0.06 0 0.32 0.06 0 0.325 0.06 0 0.33 0.06 0 0.335 0.06 0 0.34 0.06 0 0.345 0.06 0 0.35 0.06 0 0.355 0.06 0 0.36 0.06 0 0.365 0.06 0 0.37 0.06 0 0.375 0.06 0 0.38 0.06 0 0.385 0.06 0 0.39 0.06 0 0.395 0.06 0 0.4 0.06 0 0.405 0.06 0 0.41 0.06 0 0.415 0.06 0 0.42 0.06 0 0.425 0.06 0 0.43 0.06 0 0.435 0.06 0 0.44 0.06 0 0.445 0.06 0 0.45 0.06 0 0.455 0.06 0 0.46 0.06 0 0.465 0.06 0 0.47 0.06 0 0.475 0.06 0 0.48 0.06 0 0.485 0.06 0 0.49 0.06 0 0.495 0.06 0 0.5 0.06 0 0.505 0.06 0 0.51 0.06 0 0.515 0.06 0 0.52 0.06 0 0.525 0.06 0 0.53 0.06 0 0.535 0.06 0 0.54 0.06 0 0.545 0.06 0 0.55 0.06 0 0.555 0.06 0 0.56 0.06 0 0.565 0.06 0 0.57 0.06 0 0.575 0.06 0 0.58 0.06 0 0.585 0.06 0 0.59 0.06 0 0.595 0.06 0 0.6 0.06 0 0.605 0.06 0 0.61 0.06 0 0.615 0.06 0 0.62 0.06 0 0.625 0.06 0 0.63 0.06 0 0.635 0.06 0 0.64 0.06 0 0.645 0.06 0 0.65 0.06 0 0.655 0.06 0 0.66 0.06 0 0.665 0.06 0 0.67 0.06 0 0.675 0.06 0 0.68 0.06 0 0.685 0.06 0 0.69 0.06 0 0.695 0.06 0 0.7 0.06 0 0.705 0.06 0 0.71 0.06 0 0.715 0.06 0 0.72 0.06 0 0.725 0.06 0 0.73 0.06 0 0.735 0.06 0 0.74 0.06 0 0.745 0.06 0 0.75 0.06 0 0.755 0.06 0 0.76 0.06 0 0.765 0.06 0 0.77 0.06 0 0.775 0.06 0 0.78 0.06 0 0.785 0.06 0 0.79 0.06 0 0.795 0.06 0 0.8 0.06 0 0.805 0.06 0 0.81 0.06 0 0.815 0.06 0 0.82 0.06 0 0.825 0.06 0 0.83 0.06 0 0.835 0.06 0 0.84 0.06 0 0.845 0.06 0 0.85 0.06 0 0.855 0.06 0 0.86 0.06 0 0.865 0.06 0 0.87 0.06 0 0.875 0.06 0 0.88 0.06 0 0.885 0.06 0 0.89 0.06 0 0.895 0.06 0 0.9 0.06 0 0.905 0.06 0 0.91 0.06 0 0.915 0.06 0 0.92 0.06 0 0.925 0.06 0 0.93 0.06 0 0.935 0.06 0 0.94 0.06 0 0.945 0.06 0 0.95 0.06 0 0.955 0.06 0 0.96 0.06 0 0.965 0.06 0 0.97 0.06 0 0.975 0.06 0 0.98 0.06 0 0.985 0.06 0 0.99 0.06 0 0.995 0.06 0 1 0.06 0 0 0.08 0 0.005 0.08 0 0.01 0.08 0 0.015 0.08 0 0.02 0.08 0 0.025 0.08 0 0.03 0.08 0 0.035 0.08 0 0.04 0.08 0 0.045 0.08 0 0.05 0.08 0 0.055 0.08 0 0.06 0.08 0 0.065 0.08 0 0.07 0.08 0 0.075 0.08 0 0.08 0.08 0 0.085 0.08 0 0.09 0.08 0 0.095 0.08 0 0.1 0.08 0 0.105 0.08 0 0.11 0.08 0 0.115 0.08 0 0.12 0.08 0 0.125 0.08 0 0.13 0.08 0 0.135 0.08 0 0.14 0.08 0 0.145 0.08 0 0.15 0.08 0 0.155 0.08 0 0.16 0.08 0 0.165 0.08 0
[...]
			<PointData Scalars="VitesseX">
				<DataArray Name="VitesseX" type="Float32" format="ascii">
 0 -9.44022e-15 -1.11545e-14 -2.24106e-14 6.89558e-15 7.11539e-15 5.84532e-15 -3.81684e-16 1.64207e-14 -1.48349e-14 -4.29727e-14 2.56511e-14 -2.875e-14 -1.96195e-14 -2.76432e-14 -7.26241e-14 3.2008e-14 -1.27529e-13 -7.69502e-14 -2.33003e-14 -3.45989e-14 -1.25349e-13 -2.35076e-14 8.45255e-14 -1.52939e-13 1.74044e-14 1.44464e-13 -1.19635e-13 6.36857e-14 1.47593e-14 -5.00424e-14 -5.94289e-14 3.53957e-14 -1.23917e-13 -1.12952e-13 -6.00623e-14 -2.7678e-14 -1.37668e-13 8.83692e-15 -1.30259e-13 -3.57296e-14 -1.88393e-13 -5.63402e-14 -8.32621e-14 8.9618e-14 -6.51071e-14 8.00389e-13 4.83555e-12 3.28153e-11 2.05381e-10 1.22565e-09 6.91337e-09 3.6745e-08 1.83529e-07 8.58716e-07 3.75038e-06 1.52257e-05 5.71787e-05 0.000197478 0.000622863 0.00177924 0.00455939 0.0103796 0.0208339 0.0368111 0.0577189 0.0817911 0.107271 0.133163 0.159107 0.185005 0.210828 0.236562 0.2622 0.287738 0.31317 0.338493 0.363701 0.388789 0.413749 0.438573 0.463249 0.487765 0.512106 0.536254 0.560187 0.58388 0.607304 0.630422 0.653195 0.675575 0.697506 0.718925 0.739759 0.759926 0.779335 0.797885 0.815469 0.831976 0.847294 0.86132 0.873962 0.885154 0.894859 0.903082 0.90987 0.915311 0.919534 0.922698 0.924973 0.926535 0.927547 0.928155 0.928479 0.928615 0.928626 0.928589 0.928522 0.928434 0.928333 0.928225 0.928115 0.928006 0.927899 0.927797 0.927698 0.927604 0.927515 0.927428 0.927345 0.927265 0.927185 0.927107 0.927029 0.92695 0.926867 0.926777 0.926671 0.926539 0.926358 0.926089 0.925668 0.924983 0.923852 0.921976 0.918876 0.913799 0.905592 0.892554 0.872296 0.841696 0.797095 0.734892 0.65269 0.55094 0.434657 0.31417 0.203477 0.115686 0.0572658 0.0251277 0.010171 0.00394454 0.00149933 0.000564375 0.000211238 7.87232e-05 2.92207e-05 1.08014e-05 3.97514e-06 1.45597e-06 5.30542e-07 1.92261e-07 6.92629e-08 2.47968e-08 8.81856e-09 3.11467e-09 1.09158e-09 3.79961e-10 1.30706e-10 4.46829e-11 1.4826e-11 4.82549e-12 1.88911e-12 -2.2599e-13 2.67118e-13 2.05003e-13 1.43485e-13 -4.65437e-13 1.0131e-13 -2.68702e-13 6.26127e-13 -5.05501e-13 2.24004e-13 -1.11802e-13 3.85585e-13 3.90523e-13 -8.96826e-13 6.89697e-13 -6.04264e-13 0 0 -5.12509e-15 -1.19685e-14 -3.57017e-15 -1.97797e-14 1.83622e-14 1.21932e-14 4.407e-15 -1.50357e-14 -9.87655e-15 4.1938e-14 -4.41308e-14 -4.26359e-15 -3.93791e-14 -7.99784e-14 -7.80912e-15 -1.21597e-13 -1.27105e-14 -3.09366e-14 -9.53191e-14 -9.06915e-14 -1.07475e-14 -6.09162e-14 -1.1416e-13 7.85945e-14 -1.62682e-15 -2.58039e-14 6.37717e-14 -2.12696e-14 7.44634e-14 -2.79351e-14 -4.1143e-14 -1.16698e-13 -5.45672e-14 -4.29305e-14 -3.03845e-14 -1.20998e-13 2.51274e-14 -1.03353e-13 -7.1285e-14 -1.41237e-13 -6.25116e-14 -4.3762e-14 -8.62393e-14 -1.59499e-13 3.03663e-13 5.8215e-13 4.95639e-12 3.25176e-11 2.05329e-10 1.22576e-09 6.91335e-09 3.67451e-08 1.83529e-07 8.58717e-07 3.75038e-06 1.52257e-05 5.71787e-05 0.000197478 0.000622863 0.00177924 0.00455939 0.0103796 0.0208339 0.0368111 0.0577189 0.0817911 0.107271 0.133163 0.159107 0.185005 0.210828 0.236562 0.2622 0.287738 0.31317 0.338493 0.363701 0.388789 0.413749 0.438573 0.463249 0.487765 0.512106 0.536254 0.560187 0.58388 0.607304 0.630422 0.653195 0.675575 0.697506 0.718925 0.739759 0.759926 0.779335 0.797885 0.815469 0.831976 0.847294 0.86132 0.873962 0.885154 0.894859 0.903082 0.90987 0.915311 0.919534 0.922698 0.924973 0.926535 0.927547 0.928155 0.928479 0.928615 0.928626 0.928589 0.928522 0.928434 0.928333 0.928225 0.928115 0.928006 0.927899 0.927797 0.927698 0.927604 0.927515 0.927428 0.927345 0.927265 0.927185 0.927107 0.927029 0.92695 0.926867 0.926777 0.926671 0.926539 0.926358 0.926089 0.925668 0.924983 0.923852 0.921976 0.918876 0.913799 0.905592 0.892554 0.872296 0.841696 0.797095 0.734892 0.65269 0.55094 0.434657 0.31417 0.203477 0.115686 0.0572658 0.0251277 0.010171 0.00394454 0.00149933 0.000564375 0.000211238 7.87232e-05 2.92207e-05 1.08014e-05 3.97514e-06 1.45597e-06 5.30542e-07 1.9226e-07 6.92633e-08 2.47965e-08 8.81895e-09 3.11421e-09 1.09213e-09 3.79629e-10 1.31109e-10 4.4407e-11 1.51628e-11 5.06963e-12 1.01195e-12 6.43435e-13 -9.05132e-14 2.36439e-13 -5.05833e-14 2.27723e-13 -3.97975e-13 2.31321e-13 -1.79152e-13 2.94818e-13 3.40579e-14 3.28936e-13 -2.58175e-13 -2.1359e-13 8.5687e-13 -6.40853e-13 2.54338e-13 0 0 9.84746e-16 4.23526e-15 -9.22392e-15 1.43178e-14 5.46626e-15 9.89264e-15 -1.63576e-14 1.4063e-14 -6.0283e-15 -1.19486e-14 -1.27821e-14 -4.69438e-14 -3.06036e-14 -9.13604e-14 -7.1201e-14 -5.65162e-14 -9.11005e-14 -2.87301e-14 -7.06581e-14 -5.6491e-14 -9.43545e-14 -3.56566e-14 -6.12757e-14 -1.43835e-14 6.46549e-14 6.68224e-14 6.21233e-14 -6.30588e-14 -1.42196e-13 4.99507e-14 -6.21246e-14 4.53905e-14 -3.0996e-14 -6.11708e-14 -9.52979e-14 -5.40983e-14 -1.21209e-15 -3.72224e-14 -8.11365e-14 -1.25526e-13 -5.61366e-14 -1.60972e-13 -9.17892e-14 1.1997e-14 7.96924e-14 7.69206e-13 4.88958e-12 3.26096e-11 2.05325e-10 1.22563e-09 6.91348e-09 3.67448e-08 1.83529e-07 8.58717e-07 3.75038e-06 1.52257e-05 5.71787e-05 0.000197478 0.000622863 0.00177924 0.00455939 0.0103796 0.0208339 0.0368111 0.0577189 0.0817911 0.107271 0.133163 0.159107 0.185005 0.210828 0.236562 0.2622 0.287738 0.31317 0.338493 0.363701 0.388789 0.413749 0.438573 0.463249 0.487765 0.512106 0.536254 0.560187 0.58388 0.607304 0.630422 0.653195 0.675575 0.697506 0.718925 0.739759 0.759926 0.779335 0.797885 0.815469 0.831976 0.847294 0.86132 0.873962 0.885154 0.894859 0.903082 0.90987 0.915311 0.919534 0.922698 0.924973 0.926535 0.927547 0.928155 0.928479 0.928615 0.928626 0.928589 0.928522 0.928434 0.928333 0.928225 0.928115 0.928006 0.927899 0.927797 0.927698 0.927604 0.927515 0.927428 0.927345 0.927265 0.927185 0.927107 0.927029 0.92695 0.926867 0.926777 0.926671 0.926539 0.926358 0.926089 0.925668 0.924983 0.923852 0.921976 0.918876 0.913799 0.905592 0.892554 0.872296 0.841696 0.797095 0.734892 0.65269 0.55094 0.434657 0.31417 0.203477 0.115686 0.0572658 0.0251277 0.010171 0.00394454 0.00149933 0.000564375 0.000211238 7.87232e-05 2.92207e-05 1.08014e-05 3.97514e-06 1.45597e-06 5.30542e-07 1.92261e-07 6.92631e-08 2.47967e-08 8.81885e-09 3.11467e-09 1.09185e-09 3.80089e-10 1.30948e-10 4.4926e-11 1.49796e-11 4.93437e-12 1.58961e-12 6.88735e-13 -8.44575e-14 -1.67335e-13 -1.31544e-13 -7.2793e-14 -1.11835e-13 -1.90391e-13 1.79297e-14 7.45135e-13 6.81099e-14 -2.79118e-14 2.07347e-13 -3.79381e-13 -7.01075e-14 -1.75769e-13 -3.19578e-13 0 0 -5.68169e-15 -7.88958e-15 1.0522e-14 4.91206e-15 -1.22236e-14 4.96211e-15 -3.64464e-15 2.91292e-14 -3.1377e-14 -3.30512e-14 -3.92442e-14 -9.72908e-15 -3.42668e-14 -6.59476e-14 -8.65226e-14 -7.3456e-14 -9.65194e-14 -1.44594e-13 -4.05947e-14 -6.56929e-14 -8.43232e-14 7.26726e-14 8.80736e-14 -3.64973e-14 -9.34188e-15 5.32149e-14 -3.91632e-14 -1.85214e-13 2.90233e-14 -1.0557e-14 -6.43713e-14 6.26696e-15 -7.20857e-14 -9.49766e-14 -9.85188e-14 -3.86043e-14 -6.33307e-14 -1.09042e-13 -4.03694e-14 -3.22842e-14 -2.03161e-13 -3.22456e-14 5.64154e-14 1.59285e-13 6.30322e-14 7.30862e-13 4.83103e-12 3.26708e-11 2.0535e-10 1.22575e-09 6.91329e-09 3.67449e-08 1.83529e-07 8.58717e-07 3.75038e-06 1.52257e-05 5.71787e-05 0.000197478 0.000622863 0.00177924 0.00455939 0.0103796 0.0208339 0.0368111 0.0577189 0.0817911 0.107271 0.133163 0.159107 0.185005 0.210828 0.236562 0.2622 0.287738 0.31317 0.338493 0.363701 0.388789 0.413749 0.438573 0.463249 0.487765 0.512106 0.536254 0.560187 0.58388 0.607304 0.630422 0.653195 0.675575 0.697506 0.718925 0.739759 0.759926 0.779335 0.797885 0.815469 0.831976 0.847294 0.86132 0.873962 0.885154 0.894859 0.903082 0.90987 0.915311 0.919534 0.922698 0.924973 0.926535 0.927547 0.928155 0.928479 0.928615 0.928626 0.928589 0.928522 0.928434 0.928333 0.928225 0.928115 0.928006 0.927899 0.927797 0.927698 0.927604 0.927515 0.927428 0.927345 0.927265 0.927185 0.927107 0.927029 0.92695 0.926867 0.926777 0.926671 0.926539 0.926358 0.926089 0.925668 0.924983 0.923852 0.921976 0.918876 0.913799 0.905592 0.892554 0.872296 0.841696 0.797095 0.734892 0.65269 0.55094 0.434657 0.31417 0.203477 0.115686 0.0572658 0.0251277 0.010171 0.00394454 0.00149933 0.000564375 0.000211238 7.87232e-05 2.92207e-05 1.08014e-05 3.97514e-06 1.45597e-06 5.30542e-07 1.92261e-07 6.92629e-08 2.47968e-08 8.81872e-09 3.11473e-09 1.09192e-09 3.79948e-10 1.31361e-10 4.48762e-11 1.49709e-11 5.19279e-12 1.46443e-12 2.47017e-13 6.85122e-13 -4.30328e-13 -2.73302e-13 -2.64885e-13 3.4995e-13 -7.14631e-13 1.82566e-13 4.90949e-13 -1.47883e-13 -9.64547e-13 1.90585e-13 3.4232e-13 -2.41651e-13 1.12968e-13 -7.63633e-13 0 0 -7.6634e-15 -2.00076e-14 1.83784e-15 -2.30652e-14 -7.17511e-15 -2.08768e-15 1.43904e-14 -1.71559e-14 -1.59858e-14 9.48234e-15 -8.58666e-14 8.58295e-15 -3.42713e-14 -4.79026e-14 -2.19722e-14 -1.15303e-13 -6.60885e-14 -1.06933e-13 -1.04248e-13 -1.02382e-13 -7.31144e-15 4.51732e-14 -1.67134e-14 8.96209e-14 -6.81099e-14 -8.68238e-14 -6.76491e-14 -8.09258e-14 1.42917e-13 -1.44013e-13 2.93544e-16 -1.96663e-13 -6.28084e-14 -5.44351e-14 5.12276e-14 -4.43765e-14 -1.95126e-13 -1.39956e-13 -6.42136e-14 -7.43185e-14 -1.65026e-13 4.75092e-14 1.85505e-14 -6.13721e-14 2.70235e-13 6.96789e-13 4.90346e-12 3.25945e-11 2.05356e-10 1.22594e-09 6.91324e-09 3.6745e-08 1.83529e-07 8.58717e-07 3.75038e-06 1.52257e-05 5.71787e-05 0.000197478 0.000622863 0.00177924 0.00455939 0.0103796 0.0208339 0.0368111 0.0577189 0.0817911 0.107271 0.133163 0.159107 0.185005 0.210828 0.236562 0.2622 0.287738 0.31317 0.338493 0.363701 0.388789 0.413749 0.438573 0.463249 0.487765 0.512106 0.536254 0.560187 0.58388 0.607304 0.630422 0.653195 0.675575 0.697506 0.718925 0.739759 0.759926 0.779335 0.797885 0.815469 0.831976 0.847294 0.86132 0.873962 0.885154 0.894859 0.903082 0.90987 0.915311 0.919534 0.922698 0.924973 0.926535 0.927547 0.928155 0.928479 0.928615 0.928626 0.928589 0.928522 0.928434 0.928333 0.928225 0.928115 0.928006 0.927899 0.927797 0.927698 0.927604 0.927515 0.927428 0.927345 0.927265 0.927185 0.927107 0.927029 0.92695 0.926867 0.926777 0.926671 0.926539 0.926358 0.926089 0.925668 0.924983 0.923852 0.921976 0.918876 0.913799 0.905592 0.892554 0.872296 0.841696 0.797095 0.734892 0.65269 0.55094 0.434657 0.31417 0.203477 0.115686 0.0572658 0.0251277 0.010171 0.00394454 0.00149933 0.000564375 0.000211238 7.87232e-05 2.92207e-05 1.08014e-05 3.97514e-06 1.45597e-06 5.30542e-07 1.92261e-07 6.92635e-08 2.47969e-08 8.81912e-09 3.11417e-09 1.09228e-09 3.79804e-10 1.31294e-10 4.45658e-11 1.55296e-11 5.17679e-12 1.07063e-12 1.99549e-13 6.18552e-13 -1.58219e-14 -2.8712e-13 1.32183e-13 -2.24813e-13 -7.39528e-14 -4.53126e-13 -2.48748e-14 -3.52249e-13 -1.97785e-13 -2.94893e-13 2.88683e-13 8.42714e-13 -3.61238e-13 2.35069e-13 0 0 -1.18397e-15 -2.9831e-15 -5.10864e-14 1.9136e-14 -8.57946e-15 -1.28555e-14 -5.8408e-15 -1.79522e-14 2.36442e-14 -6.56787e-14 -4.89628e-15 -7.74863e-14 -2.07766e-15 -1.43173e-14 -7.03071e-14 7.84765e-14 -2.23448e-13 2.78376e-15 -1.01285e-13 -3.9577e-14 -1.38539e-13 -2.79871e-14 -1.928e-14 -8.66588e-14 3.24317e-14 4.96396e-14 -1.79903e-13 1.88683e-13 -1.90773e-13 -1.61182e-13 2.79374e-14 -4.62887e-14 -5.82202e-14 -6.83491e-14 1.09604e-13 9.45766e-14 -4.53937e-13 7.92692e-14 -1.9765e-13 -8.83755e-14 -9.9374e-14 -1.3125e-13 -1.70092e-13 -8.70356e-15 -9.86429e-14 1.10635e-12 4.84681e-12 3.28467e-11 2.05384e-10 1.22578e-09 6.91352e-09 3.67448e-08 1.83529e-07 8.58716e-07 3.75038e-06 1.52257e-05 5.71787e-05 0.000197478 0.000622863 0.00177924 0.00455939 0.0103796 0.0208339 0.0368111 0.0577189 0.0817911 0.107271 0.133163 0.159107 0.185005 0.210828 0.236562 0.2622 0.287738 0.31317 0.338493 0.363701 0.388789 0.413749 0.438573 0.463249 0.487765 0.512106 0.536254 0.560187 0.58388 0.607304 0.630422 0.653195 0.675575 0.697506 0.718925 0.739759 0.759926 0.779335 0.797885 0.815469 0.831976 0.847294 0.86132 0.873962 0.885154 0.894859 0.903082 0.90987 0.915311 0.919534 0.922698 0.924973 0.926535 0.927547 0.928155 0.928479 0.928615 0.928626 0.928589 0.928522 0.928434 0.928333 0.928225 0.928115 0.928006 0.927899 0.927797 0.927698 0.927604 0.927515 0.927428 0.927345 0.927265 0.927185 0.927107 0.927029 0.92695 0.926867 0.926777 0.926671 0.926539 0.926358 0.926089 0.925668 0.924983 0.923852 0.921976 0.918876 0.913799 0.905592 0.892554 0.872296 0.841696 0.797095 0.734892 0.65269 0.55094 0.434657 0.31417 0.203477 0.115686 0.0572658 0.0251277 0.010171 0.00394454 0.00149933 0.000564375 0.000211238 7.87232e-05 2.92207e-05 1.08014e-05 3.97514e-06 1.45597e-06 5.30542e-07 1.9226e-07 6.92635e-08 2.47974e-08 8.81916e-09 3.11447e-09 1.09174e-09 3.80592e-10 1.3025e-10 4.51001e-11 1.5577e-11 4.52297e-12 2.25685e-12 -2.30325e-13 1.4609e-13 2.26466e-13 -4.60711e-14 -2.72333e-13 -4.75935e-13 1.69231e-13 -2.51095e-13 -6.36514e-13 -1.16623e-13 7.08025e-13 3.45672e-13 -4.83353e-14 -5.82054e-13 6.71452e-13 2.45308e-13 0
				</DataArray>
				<DataArray Name="VitesseY" type="Float32" format="ascii">