<?xml version="1.0"?>
<VTKFile type="PolyData">
	<PolyData>
		<Piece NumberOfPoints="1206" NumberOfPolys="1000">
			<Points>
				<DataArray type="Float32" NumberOfComponents="3" format="ascii">
 0 0 0 0.005 0 0 0.01 0 0 0.015 0 0 0.02 0 0 0.025 0 0 0.03 0 0 0.035 0 0 0.04 0 0 0.045 0 0 0.05 0 0 0.055 0 0 0.06 0 0 0.065 0 0 0.07 0 0 0.075 0 0 0.08 0 0 0.085 0 0 0.09 0 0 0.095 0 0 0.1 0 0 0.105 0 0 0.11 0 0 0.115 0 0 0.12 0 0 0.125 0 0 0.13 0 0 0.135 0 0 0.14 0 0 0.145 0 0 0.15 0 0 0.155 0 0 0.16 0 0 0.165 0 0 0.17 0 0 0.175 0 0 0.18 0 0 0.185 0 0 0.19 0 0 0.195 0 0 0.2 0 0 0.205 0 0 0.21 0 0 0.215 0 0 0.22 0 0 0.225 0 0 0.23 0 0 0.235 0 0 0.24 0 0 0.245 0 0 0.25 0 0 0.255 0 0 0.26 0 0 0.265 0 0 0.27 0 0 0.275 0 0 0.28 0 0 0.285 0 0 0.29 0 0 0.295 0 0 0.3 0 0 0.305 0 0 0.31 0 0 0.315 0 0 0.32 0 0 0.325 0 0 0.33 0 0 0.335 0 0 0.34 0 0 0.345 0 0 0.35 0 0 0.355 0 0 0.36 0 0 0.365 0 0 0.37 0 0 0.375 0 0 0.38 0 0 0.385 0 0 0.39 0 0 0.395 0 0 0.4 0 0 0.405 0 0 0.41 0 0 0.415 0 0 0.42 0 0 0.425 0 0 0.43 0 0 0.435 0 0 0.44 0 0 0.445 0 0 0.45 0 0 0.455 0 0 0.46 0 0 0.465 0 0 0.47 0 0 0.475 0 0 0.48 0 0 0.485 0 0 0.49 0 0 0.495 0 0 0.5 0 0 0.505 0 0 0.51 0 0 0.515 0 0 0.52 0 0 0.525 0 0 0.53 0 0 0.535 0 0 0.54 0 0 0.545 0 0 0.55 0 0 0.555 0 0 0.56 0 0 0.565 0 0 0.57 0 0 0.575 0 0 0.58 0 0 0.585 0 0 0.59 0 0 0.595 0 0 0.6 0 0 0.605 0 0 0.61 0 0 0.615 0 0 0.62 0 0 0.625 0 0 0.63 0 0 0.635 0 0 0.64 0 0 0.645 0 0 0.65 0 0 0.655 0 0 0.66 0 0 0.665 0 0 0.67 0 0 0.675 0 0 0.68 0 0 0.685 0 0 0.69 0 0 0.695 0 0 0.7 0 0 0.705 0 0 0.71 0 0 0.715 0 0 0.72 0 0 0.725 0 0 0.73 0 0 0.735 0 0 0.74 0 0 0.745 0 0 0.75 0 0 0.755 0 0 0.76 0 0 0.765 0 0 0.77 0 0 0.775 0 0 0.78 0 0 0.785 0 0 0.79 0 0 0.795 0 0 0.8 0 0 0.805 0 0 0.81 0 0 0.815 0 0 0.82 0 0 0.825 0 0 0.83 0 0 0.835 0 0 0.84 0 0 0.845 0 0 0.85 0 0 0.855 0 0 0.86 0 0 0.865 0 0 0.87 0 0 0.875 0 0 0.88 0 0 0.885 0 0 0.89 0 0 0.895 0 0 0.9 0 0 0.905 0 0 0.91 0 0 0.915 0 0 0.92 0 0 0.925 0 0 0.93 0 0 0.935 0 0 0.94 0 0 0.945 0 0 0.95 0 0 0.955 0 0 0.96 0 0 0.965 0 0 0.97 0 0 0.975 0 0 0.98 0 0 0.985 0 0 0.99 0 0 0.995 0 0 1 0 0 0 0.02 0 0.005 0.02 0 0.01 0.02 0 0.015 0.02 0 0.02 0.02 0 0.025 0.02 0 0.03 0.02 0 0.035 0.02 0 0.04 0.02 0 0.045 0.02 0 0.05 0.02 0 0.055 0.02 0 0.06 0.02 0 0.065 0.02 0 0.07 0.02 0 0.075 0.02 0 0.08 0.02 0 0.085 0.02 0 0.09 0.02 0 0.095 0.02 0 0.1 0.02 0 0.105 0.02 0 0.11 0.02 0 0.115 0.02 0 0.12 0.02 0 0.125 0.02 0 0.13 0.02 0 0.135 0.02 0 0.14 0.02 0 0.145 0.02 0 0.15 0.02 0 0.155 0.02 0 0.16 0.02 0 0.165 0.02 0 0.17 0.02 0 0.175 0.02 0 0.18 0.02 0 0.185 0.02 0 0.19 0.02 0 0.195 0.02 0 0.2 0.02 0 0.205 0.02 0 0.21 0.02 0 0.215 0.02 0 0.22 0.02 0 0.225 0.02 0 0.23 0.02 0 0.235 0.02 0 0.24 0.02 0 0.245 0.02 0 0.25 0.02 0 0.255 0.02 0 0.26 0.02 0 0.265 0.02 0 0.27 0.02 0 0.275 0.02 0 0.28 0.02 0 0.285 0.02 0 0.29 0.02 0 0.295 0.02 0 0.3 0.02 0 0.305 0.02 0 0.31 0.02 0 0.315 0.02 0 0.32 0.02 0 0.325 0.02 0 0.33 0.02 0 0.335 0.02 0 0.34 0.02 0 0.345 0.02 0 0.35 0.02 0 0.355 0.02 0 0.36 0.02 0 0.365 0.02 0 0.37 0.02 0 0.375 0.02 0 0.38 0.02 0 0.385 0.02 0 0.39 0.02 0 0.395 0.02 0 0.4 0.02 0 0.405 0.02 0 0.41 0.02 0 0.415 0.02 0 0.42 0.02 0 0.425 0.02 0 0.43 0.02 0 0.435 0.02 0 0.44 0.02 0 0.445 0.02 0 0.45 0.02 0 0.455 0.02 0 0.46 0.02 0 0.465 0.02 0 0.47 0.02 0 0.475 0.02 0 0.48 0.02 0 0.485 0.02 0 0.49 0.02 0 0.495 0.02 0 0.5 0.02 0 0.505 0.02 0 0.51 0.02 0 0.515 0.02 0 0.52 0.02 0 0.525 0.02 0 0.53 0.02 0 0.535 0.02 0 0.54 0.02 0 0.545 0.02 0 0.55 0.02 0 0.555 0.02 0 0.56 0.02 0 0.565 0.02 0 0.57 0.02 0 0.575 0.02 0 0.58 0.02 0 0.585 0.02 0 0.59 0.02 0 0.595 0.02 0 0.6 0.02 0 0.605 0.02 0 0.61 0.02 0 0.615 0.02 0 0.62 0.02 0 0.625 0.02 0 0.63 0.02 0 0.635 0.02 0 0.64 0.02 0 0.645 0.02 0 0.65 0.02 0 0.655 0.02 0 0.66 0.02 0 0.665 0.02 0 0.67 0.02 0 0.675 0.02 0 0.68 0.02 0 0.685 0.02 0 0.69 0.02 0 0.695 0.02 0 0.7 0.02 0 0.705 0.02 0 0.71 0.02 0 0.715 0.02 0 0.72 0.02 0 0.725 0.02 0 0.73 0.02 0 0.735 0.02 0 0.74 0.02 0 0.745 0.02 0 0.75 0.02 0 0.755 0.02 0 0.76 0.02 0 0.765 0.02 0 0.77 0.02 0 0.775 0.02 0 0.78 0.02 0 0.785 0.02 0 0.79 0.02 0 0.795 0.02 0 0.8 0.02 0 0.805 0.02 0 0.81 0.02 0 0.815 0.02 0 0.82 0.02 0 0.825 0.02 0 0.83 0.02 0 0.835 0.02 0 0.84 0.02 0 0.845 0.02 0 0.85 0.02 0 0.855 0.02 0 0.86 0.02 0 0.865 0.02 0 0.87 0.02 0 0.875 0.02 0 0.88 0.02 0 0.885 0.02 0 0.89 0.02 0 0.895 0.02 0 0.9 0.02 0 0.905 0.02 0 0.91 0.02 0 0.915 0.02 0 0.92 0.02 0 0.925 0.02 0 0.93 0.02 0 0.935 0.02 0 0.94 0.02 0 0.945 0.02 0 0.95 0.02 0 0.955 0.02 0 0.96 0.02 0 0.965 0.02 0 0.97 0.02 0 0.975 0.02 0 0.98 0.02 0 0.985 0.02 0 0.99 0.02 0 0.995 0.02 0 1 0.02 0 0 0.04 0 0.005 0.04 0 0.01 0.04 0 0.015 0.04 0 0.02 0.04 0 0.025 0.04 0 0.03 0.04 0 0.035 0.04 0 0.04 0.04 0 0.045 0.04 0 0.05 0.04 0 0.055 0.04 0 0.06 0.04 0 0.065 0.04 0 0.07 0.04 0 0.075 0.04 0 0.08 0.04 0 0.085 0.04 0 0.09 0.04 0 0.095 0.04 0 0.1 0.04 0 0.105 0.04 0 0.11 0.04 0 0.115 0.04 0 0.12 0.04 0 0.125 0.04 0 0.13 0.04 0 0.135 0.04 0 0.14 0.04 0 0.145 0.04 0 0.15 0.04 0 0.155 0.04 0 0.16 0.04 0 0.165 0.04 0 0.17 0.04 0 0.175 0.04 0 0.18 0.04 0 0.185 0.04 0 0.19 0.04 0 0.195 0.04 0 0.2 0.04 0 0.205 0.04 0 0.21 0.04 0 0.215 0.04 0 0.22 0.04 0 0.225 0.04 0 0.23 0.04 0 0.235 0.04 0 0.24 0.04 0 0.245 0.04 0 0.25 0.04 0 0.255 0.04 0 0.26 0.04 0 0.265 0.04 0 0.27 0.04 0 0.275 0.04 0 0.28 0.04 0 0.285 0.04 0 0.29 0.04 0 0.295 0.04 0 0.3 0.04 0 0.305 0.04 0 0.31 0.04 0 0.315 0.04 0 0.32 0.04 0 0.325 0.04 0 0.33 0.04 0 0.335 0.04 0 0.34 0.04 0 0.345 0.04 0 0.35 0.04 0 0.355 0.04 0 0.36 0.04 0 0.365 0.04 0 0.37 0.04 0 0.375 0.04 0 0.38 0.04 0 0.385 0.04 0 0.39 0.04 0 0.395 0.04 0 0.4 0.04 0 0.405 0.04 0 0.41 0.04 0 0.415 0.04 0 0.42 0.04 0 0.425 0.04 0 0.43 0.04 0 0.435 0.04 0 0.44 0.04 0 0.445 0.04 0 0.45 0.04 0 0.455 0.04 0 0.46 0.04 0 0.465 0.04 0 0.47 0.04 0 0.475 0.04 0 0.48 0.04 0 0.485 0.04 0 0.49 0.04 0 0.495 0.04 0 0.5 0.04 0 0.505 0.04 0 0.51 0.04 0 0.515 0.04 0 0.52 0.04 0 0.525 0.04 0 0.53 0.04 0 0.535 0.04 0 0.54 0.04 0 0.545 0.04 0 0.55 0.04 0 0.555 0.04 0 0.56 0.04 0 0.565 0.04 0 0.57 0.04 0 0.575 0.04 0 0.58 0.04 0 0.585 0.04 0 0.59 0.04 0 0.595 0.04 0 0.6 0.04 0 0.605 0.04 0 0.61 0.04 0 0.615 0.04 0 0.62 0.04 0 0.625 0.04 0 0.63 0.04 0 0.635 0.04 0 0.64 0.04 0 0.645 0.04 0 0.65 0.04 0 0.655 0.04 0 0.66 0.04 0 0.665 0.04 0 0.67 0.04 0 0.675 0.04 0 0.68 0.04 0 0.685 0.04 0 0.69 0.04 0 0.695 0.04 0 0.7 0.04 0 0.705 0.04 0 0.71 0.04 0 0.715 0.04 0 0.72 0.04 0 0.725 0.04 0 0.73 0.04 0 0.735 0.04 0 0.74 0.04 0 0.745 0.04 0 0.75 0.04 0 0.755 0.04 0 0.76 0.04 0 0.765 0.04 0 0.77 0.04 0 0.775 0.04 0 0.78 0.04 0 0.785 0.04 0 0.79 0.04 0 0.795 0.04 0 0.8 0.04 0 0.805 0.04 0 0.81 0.04 0 0.815 0.04 0 0.82 0.04 0 0.825 0.04 0 0.83 0.04 0 0.835 0.04 0 0.84 0.04 0 0.845 0.04 0 0.85 0.04 0 0.855 0.04 0 0.86 0.04 0 0.865 0.04 0 0.87 0.04 0 0.875 0.04 0 0.88 0.04 0 0.885 0.04 0 0.89 0.04 0 0.895 0.04 0 0.9 0.04 0 0.905 0.04 0 0.91 0.04 0 0.915 0.04 0 0.92 0.04 0 0.925 0.04 0 0.93 0.04 0 0.935 0.04 0 0.94 0.04 0 0.945 0.04 0 0.95 0.04 0 0.955 0.04 0 0.96 0.04 0 0.965 0.04 0 0.97 0.04 0 0.975 0.04 0 0.98 0.04 0 0.985 0.04 0 0.99 0.04 0 0.995 0.04 0 1 0.04 0 0 0.06 0 0.005 0.06 0 0.01 0.06 0 0.015 0.06 0 0.02 0.06 0 0.025 0.06 0 0.03 0.06 0 0.035 0.06 0 0.04 0.06 0 0.045 0.06 0 0.05 0.06 0 0.055 0.06 0 0.06 0.06 0 0.065 0.06 0 0.07 0.06 0 0.075 0.06 0 0.08 0.06 0 0.085 0.06 0 0.09 0.06 0 0.095 0.06 0 0.1 0.06 0 0.105 0.06 0 0.11 0.06 0 0.115 0.06 0 0.12 0.06 0 0.125 0.06 0 0.13 0.06 0 0.135 0.06 0 0.14 0.06 0 0.145 0.06 0 0.15 0.06 0 0.155 0.06 0 0.16 0.06 0 0.165 0.06 0 0.17 0.06 0 0.175 0.06 0 0.18 0.06 0 0.185 0.06 0 0.19 0.06 0 0.195 0.06 0 0.2 0.06 0 0.205 0.06 0 0.21 0.06 0 0.215 0.06 0 0.22 0.06 0 0.225 0.06 0 0.23 0.06 0 0.235 0.06 0 0.24 0.06 0 0.245 0.06 0 0.25 0.06 0 0.255 0.06 0 0.26 0.06 0 0.265 0.06 0 0.27 0.06 0 0.275 0.06 0 0.28 0.06 0 0.285 0.06 0 0.29 0.06 0 0.295 0.06 0 0.3 0.06 0 0.305 0.06 0 0.31 0.06 0 0.315 0.06 0 0.32 0.06 0 0.325 0.06 0 0.33 0.06 0 0.335 0.06 0 0.34 0.06 0 0.345 0.06 0 0.35 0.06 0 0.355 0.06 0 0.36 0.06 0 0.365 0.06 0 0.37 0.06 0 0.375 0.06 0 0.38 0.06 0 0.385 0.06 0 0.39 0.06 0 0.395 0.06 0 0.4 0.06 0 0.405 0.06 0 0.41 0.06 0 0.415 0.06 0 0.42 0.06 0 0.425 0.06 0 0.43 0.06 0 0.435 0.06 0 0.44 0.06 0 0.445 0.06 0 0.45 0.06 0 0.455 0.06 0 0.46 0.06 0 0.465 0.06 0 0.47 0.06 0 0.475 0.06 0 0.48 0.06 0 0.485 0.06 0 0.49 0.06 0 0.495 0.06 0 0.5 0.06 0 0.505 0.06 0 0.51 0.06 0 0.515 0.06 0 0.52 0.06 0 0.525 0.06 0 0.53 0.06 0 0.535 0.06 0 0.54 0.06 0 0.545 0.06 0 0.55 0.06 0 0.555 0.06 0 0.56 0.06 0 0.565 0.06 0 0.57 0.06 0 0.575 0.06 0 0.58 0.06 0 0.585 0.06 0 0.59 0.06 0 0.595 0.06 0 0.6 0.06 0 0.605 0.06 0 0.61 0.06 0 0.615 0.06 0 0.62 0.06 0 0.625 0.06 0 0.63 0.06 0 0.635 0.06 0 0.64 0.06 0 0.645 0.06 0 0.65 0.06 0 0.655 0.06 0 0.66 0.06 0 0.665 0.06 0 0.67 0.06 0 0.675 0.06 0 0.68 0.06 0 0.685 0.06 0 0.69 0.06 0 0.695 0.06 0 0.7 0.06 0 0.705 0.06 0 0.71 0.06 0 0.715 0.06 0 0.72 0.06 0 0.725 0.06 0 0.73 0.06 0 0.735 0.06 0 0.74 0.06 0 0.745 0.06 0 0.75 0.06 0 0.755 0.06 0 0.76 0.06 0 0.765 0.06 0 0.77 0.06 0 0.775 0.06 0 0.78 0.06 0 0.785 0.06 0 0.79 0.06 0 0.795 0.06 0 0.8 0.06 0 0.805 0.06 0 0.81 0.06 0 0.815 0.06 0 0.82 0.06 0 0.825 0.06 0 0.83 0.06 0 0.835 0.06 0 0.84 0.06 0 0.845 0.06 0 0.85 0.06 0 0.855 0.06 0 0.86 0.06 0 0.865 0.06 0 0.87 0.06 0 0.875 0.06 0 0.88 0.06 0 0.885 0.06 0 0.89 0.06 0 0.895 0.06 0 0.9 0.06 0 0.905 0.06 0 0.91 0.06 0 0.915 0.06 0 0.92 0.06 0 0.925 0.06 0 0.93 0.06 0 0.935 0.06 0 0.94 0.06 0 0.945 0.06 0 0.95 0.06 0 0.955 0.06 0 0.96 0.06 0 0.965 0.06 0 0.97 0.06 0 0.975 0.06 0 0.98 0.06 0 0.985 0.06 0 0.99 0.06 0 0.995 0.06 0 1 0.06 0 0 0.08 0 0.005 0.08 0 0.01 0.08 0 0.015 0.08 0 0.02 0.08 0 0.025 0.08 0 0.03 0.08 0 0.035 0.08 0 0.04 0.08 0 0.045 0.08 0 0.05 0.08 0 0.055 0.08 0 0.06 0.08 0 0.065 0.08 0 0.07 0.08 0 0.075 0.08 0 0.08 0.08 0 0.085 0.08 0 0.09 0.08 0 0.095 0.08 0 0.1 0.08 0 0.105 0.08 0 0.11 0.08 0 0.115 0.08 0 0.12 0.08 0 0.125 0.08 0 0.13 0.08 0 0.135 0.08 0 0.14 0.08 0 0.145 0.08 0 0.15 0.08 0 0.155 0.08 0 0.16 0.08 0 0.165 0.08 0
[...]
			<PointData Scalars="VitesseX">
				<DataArray Name="VitesseX" type="Float32" format="ascii">
 0 4.49131e-15 3.89241e-15 1.29214e-14 -6.60239e-15 5.63108e-16 -2.98675e-14 -1.90479e-14 -4.7371e-14 2.04696e-16 -3.37793e-15 -4.66516e-14 7.35034e-14 -6.62061e-14 4.85898e-14 -2.51357e-14 -4.88154e-14 2.63541e-14 2.90617e-14 -8.67556e-14 5.00098e-14 -1.04124e-13 3.1344e-14 -3.66926e-14 -9.27557e-14 -1.46277e-13 -1.45087e-13 -5.92727e-14 -5.21695e-14 -1.53069e-13 1.22588e-14 -1.68893e-13 -5.32132e-14 -1.53519e-13 6.52844e-14 -7.87015e-14 4.39148e-14 -1.53679e-13 5.07763e-14 -1.65974e-13 -2.01175e-13 -2.27343e-13 -1.66479e-13 6.09238e-14 -8.8682e-15 -3.45888e-14 -1.07835e-13 -5.5276e-14 -5.3955e-14 -1.83133e-13 -1.19466e-13 -9.2343e-14 4.2016e-15 -2.32532e-13 4.65056e-13 2.34998e-12 1.96366e-11 1.43707e-10 9.92181e-10 6.41794e-09 3.88065e-08 2.1857e-07 1.14226e-06 5.51399e-06 2.44565e-05 9.90401e-05 0.00036341 0.00119703 0.00350022 0.00897414 0.0199465 0.0382165 0.0634906 0.0933309 0.125042 0.157146 0.189191 0.221084 0.252803 0.284335 0.315672 0.346806 0.377727 0.408422 0.438875 0.469066 0.498969 0.528552 0.557778 0.586599 0.614958 0.642789 0.67001 0.696527 0.72223 0.746991 0.770669 0.793106 0.814136 0.833586 0.851294 0.867117 0.880949 0.892737 0.902496 0.910314 0.916349 0.92082 0.923981 0.926098 0.927424 0.928181 0.928552 0.928676 0.928663 0.928593 0.928486 0.928357 0.928215 0.928068 0.927921 0.927779 0.927641 0.927507 0.927378 0.927251 0.927121 0.926982 0.92682 0.926611 0.926312 0.925843 0.925069 0.923759 0.921526 0.917748 0.911445 0.901132 0.884663 0.859129 0.820944 0.766265 0.691939 0.597003 0.484512 0.362884 0.245347 0.146376 0.0758668 0.0343823 0.0141 0.00545745 0.00205221 0.000760411 0.000279195 0.000101768 3.68399e-05 1.32418e-05 4.72416e-06 1.67206e-06 5.86848e-07 2.04151e-07 7.03623e-08 2.40175e-08 8.1154e-09 2.71381e-09 8.97292e-10 2.93559e-10 9.48997e-11 3.04632e-11 9.40926e-12 2.56975e-12 5.54558e-13 -2.03941e-14 -3.80089e-14 1.12603e-13 -5.06501e-13 1.10578e-13 -6.54138e-13 -1.0046e-13 -1.10145e-14 -6.45454e-13 2.26992e-13 -1.25794e-13 -7.84649e-14 -9.57596e-15 1.40839e-13 -2.0237e-13 -1.37906e-14 2.17047e-13 5.84599e-13 -7.08312e-13 5.93156e-13 2.38556e-13 1.09443e-12 -2.05483e-13 -4.99589e-13 2.73898e-13 7.95023e-13 1.52209e-13 0 0 -6.0786e-15 4.17398e-15 1.82497e-15 5.64182e-15 -3.0781e-15 7.92461e-15 -4.44416e-14 -7.93222e-15 -5.85021e-14 -1.50775e-14 1.88543e-14 -1.96692e-14 2.92394e-14 -4.58022e-14 1.80981e-14 4.56746e-14 -7.14268e-14 -3.55341e-14 1.96616e-14 -4.69497e-14 1.67254e-14 -6.5821e-14 -9.08319e-14 -3.41218e-14 -8.77489e-14 -7.98205e-14 -1.7139e-13 -1.78909e-13 2.34769e-14 -8.35729e-14 -6.42136e-14 -6.87062e-14 -6.51879e-14 -1.01765e-13 7.34709e-14 -1.49763e-13 2.05977e-15 -1.77011e-13 -6.4815e-14 -9.96088e-14 -7.25419e-14 -1.06987e-13 -6.01545e-14 -4.64572e-14 -6.35018e-14 -7.44654e-14 4.70634e-14 -2.25987e-14 -2.40971e-14 -1.75587e-13 -6.31019e-14 -2.70129e-13 2.95196e-14 2.57419e-13 2.62487e-12 1.93351e-11 1.44002e-10 9.92144e-10 6.41801e-09 3.88058e-08 2.1857e-07 1.14226e-06 5.51399e-06 2.44565e-05 9.90401e-05 0.00036341 0.00119703 0.00350022 0.00897414 0.0199465 0.0382165 0.0634906 0.0933309 0.125042 0.157146 0.189191 0.221084 0.252803 0.284335 0.315672 0.346806 0.377727 0.408422 0.438875 0.469066 0.498969 0.528552 0.557778 0.586599 0.614958 0.642789 0.67001 0.696527 0.72223 0.746991 0.770669 0.793106 0.814136 0.833586 0.851294 0.867117 0.880949 0.892737 0.902496 0.910314 0.916349 0.92082 0.923981 0.926098 0.927424 0.928181 0.928552 0.928676 0.928663 0.928593 0.928486 0.928357 0.928215 0.928068 0.927921 0.927779 0.927641 0.927507 0.927378 0.927251 0.927121 0.926982 0.92682 0.926611 0.926312 0.925843 0.925069 0.923759 0.921526 0.917748 0.911445 0.901132 0.884663 0.859129 0.820944 0.766265 0.691939 0.597003 0.484512 0.362884 0.245347 0.146376 0.0758668 0.0343823 0.0141 0.00545745 0.00205221 0.000760411 0.000279195 0.000101768 3.68399e-05 1.32418e-05 4.72416e-06 1.67206e-06 5.86848e-07 2.04151e-07 7.03626e-08 2.40168e-08 8.11581e-09 2.71372e-09 8.97706e-10 2.93611e-10 9.49276e-11 3.02529e-11 9.48595e-12 2.83078e-12 5.05007e-13 -8.26579e-14 -9.29782e-14 -2.31278e-13 3.4983e-16 -3.12657e-13 -2.23344e-13 -1.80001e-13 -3.41659e-13 -1.7605e-13 -3.84732e-13 -1.17493e-13 1.94251e-13 -2.54098e-13 7.58124e-14 -1.82354e-13 -1.1912e-13 5.97515e-13 -4.3053e-13 3.78366e-13 2.58294e-13 8.21778e-14 3.74568e-14 4.09116e-13 6.73933e-13 -1.78599e-13 -3.93875e-13 -9.08949e-14 0 0 -1.83692e-15 -2.01189e-15 8.02126e-15 1.10338e-14 -2.28254e-14 -1.50936e-14 2.97714e-15 -9.37746e-15 2.37114e-15 -3.15001e-14 -5.60625e-14 9.74103e-15 2.59065e-14 -1.46563e-14 2.83982e-14 -2.35135e-14 -1.81533e-14 3.06309e-14 -9.12624e-14 -3.22747e-14 3.88712e-15 -6.90178e-14 -1.05554e-13 -8.63164e-14 -9.23785e-14 -1.66136e-13 -8.22371e-14 -1.14478e-13 1.94721e-14 -7.01544e-14 -3.15649e-14 -5.38537e-14 -6.14952e-14 -6.69901e-14 -1.6565e-13 5.75519e-14 -1.58867e-13 -5.75175e-14 -1.39968e-13 -2.74516e-14 -8.21135e-14 -4.07222e-14 -6.80469e-14 -5.63003e-14 1.23874e-13 -2.62401e-15 -8.31513e-14 -1.84594e-13 -1.11989e-13 2.94577e-14 5.50068e-14 -9.33993e-14 -4.76232e-14 1.2687e-13 2.68025e-12 1.95552e-11 1.43866e-10 9.92147e-10 6.41783e-09 3.88058e-08 2.1857e-07 1.14226e-06 5.51399e-06 2.44565e-05 9.90401e-05 0.00036341 0.00119703 0.00350022 0.00897414 0.0199465 0.0382165 0.0634906 0.0933309 0.125042 0.157146 0.189191 0.221084 0.252803 0.284335 0.315672 0.346806 0.377727 0.408422 0.438875 0.469066 0.498969 0.528552 0.557778 0.586599 0.614958 0.642789 0.67001 0.696527 0.72223 0.746991 0.770669 0.793106 0.814136 0.833586 0.851294 0.867117 0.880949 0.892737 0.902496 0.910314 0.916349 0.92082 0.923981 0.926098 0.927424 0.928181 0.928552 0.928676 0.928663 0.928593 0.928486 0.928357 0.928215 0.928068 0.927921 0.927779 0.927641 0.927507 0.927378 0.927251 0.927121 0.926982 0.92682 0.926611 0.926312 0.925843 0.925069 0.923759 0.921526 0.917748 0.911445 0.901132 0.884663 0.859129 0.820944 0.766265 0.691939 0.597003 0.484512 0.362884 0.245347 0.146376 0.0758668 0.0343823 0.0141 0.00545745 0.00205221 0.000760411 0.000279195 0.000101768 3.68399e-05 1.32418e-05 4.72416e-06 1.67206e-06 5.86848e-07 2.04151e-07 7.03626e-08 2.40172e-08 8.11563e-09 2.71395e-09 8.97571e-10 2.94019e-10 9.48861e-11 3.02833e-11 9.20731e-12 2.92656e-12 6.41098e-13 2.49861e-13 -3.56354e-15 -3.4772e-13 -2.26998e-13 -1.50604e-13 2.03611e-13 -7.04801e-13 -1.15767e-13 -5.34066e-13 -2.78717e-13 -2.63146e-13 -2.56193e-13 8.96419e-14 -2.53988e-13 2.76336e-13 5.64129e-14 -1.62599e-13 9.96755e-14 3.96992e-13 -2.89794e-13 -5.51646e-15 1.57414e-13 3.98024e-13 2.79239e-13 3.68063e-13 2.02704e-13 7.24649e-15 0 0 -2.54602e-16 2.86947e-15 5.49817e-15 1.34835e-14 7.53055e-15 -3.21586e-15 4.48004e-15 -1.51768e-14 -4.48651e-15 -1.12697e-14 -4.94565e-14 -1.3267e-14 3.51196e-14 -6.74447e-15 3.45923e-14 -3.12722e-14 -3.76653e-14 -2.67775e-14 -1.47193e-14 -5.08212e-14 -1.61026e-13 -1.00876e-13 -1.41458e-13 -2.93138e-14 -5.41625e-14 -1.31163e-13 -1.04319e-14 -6.20096e-14 -9.0641e-14 -2.09888e-14 2.70489e-14 -1.05917e-13 4.72415e-14 -2.33965e-14 -1.35788e-13 -3.94111e-14 -1.70196e-13 -6.14619e-15 4.2598e-14 -2.13407e-13 -2.84292e-13 1.49793e-14 -4.17443e-14 3.38123e-14 -1.64818e-13 -9.23122e-14 -5.75846e-14 1.82799e-14 -1.79817e-14 -3.54301e-14 -5.4631e-14 1.64952e-14 8.76453e-14 3.66485e-13 2.54971e-12 1.97115e-11 1.43593e-10 9.92164e-10 6.41775e-09 3.88063e-08 2.1857e-07 1.14226e-06 5.51399e-06 2.44565e-05 9.90401e-05 0.00036341 0.00119703 0.00350022 0.00897414 0.0199465 0.0382165 0.0634906 0.0933309 0.125042 0.157146 0.189191 0.221084 0.252803 0.284335 0.315672 0.346806 0.377727 0.408422 0.438875 0.469066 0.498969 0.528552 0.557778 0.586599 0.614958 0.642789 0.67001 0.696527 0.72223 0.746991 0.770669 0.793106 0.814136 0.833586 0.851294 0.867117 0.880949 0.892737 0.902496 0.910314 0.916349 0.92082 0.923981 0.926098 0.927424 0.928181 0.928552 0.928676 0.928663 0.928593 0.928486 0.928357 0.928215 0.928068 0.927921 0.927779 0.927641 0.927507 0.927378 0.927251 0.927121 0.926982 0.92682 0.926611 0.926312 0.925843 0.925069 0.923759 0.921526 0.917748 0.911445 0.901132 0.884663 0.859129 0.820944 0.766265 0.691939 0.597003 0.484512 0.362884 0.245347 0.146376 0.0758668 0.0343823 0.0141 0.00545745 0.00205221 0.000760411 0.000279195 0.000101768 3.68399e-05 1.32418e-05 4.72416e-06 1.67206e-06 5.86848e-07 2.04151e-07 7.03624e-08 2.40172e-08 8.11572e-09 2.71398e-09 8.97546e-10 2.93731e-10 9.48257e-11 3.01976e-11 9.59889e-12 2.63098e-12 1.08313e-12 5.39974e-14 -2.80568e-13 3.02316e-13 -1.78306e-13 2.72215e-13 -8.52344e-13 7.93357e-14 -2.61652e-13 -1.45663e-13 -4.93675e-13 -8.30538e-14 -3.07875e-14 -4.62604e-13 1.40343e-13 -4.93772e-14 5.99605e-14 6.23518e-14 -2.91208e-13 4.93551e-14 1.4636e-13 3.25285e-13 4.30287e-13 3.40603e-13 -8.24279e-14 7.63988e-13 2.53698e-13 -3.47282e-14 0 0 -1.47332e-16 6.96935e-15 2.66931e-15 2.01474e-14 2.48215e-14 3.56523e-14 -1.26534e-14 7.98875e-15 -3.9413e-14 -2.30002e-14 1.4712e-14 -7.51547e-14 2.13352e-14 -7.4006e-14 -3.37076e-14 4.76952e-14 -5.92964e-14 -4.8128e-14 5.95214e-14 -1.37602e-13 -7.94379e-14 -1.25602e-13 -8.70588e-14 -1.94551e-14 -2.68008e-14 -5.53785e-14 -9.95861e-14 -9.90016e-14 -9.71264e-14 -4.67207e-14 5.73813e-14 -5.68362e-14 6.91181e-14 -6.97569e-14 5.39789e-14 -1.83542e-13 4.45053e-14 -6.10039e-14 -1.1808e-14 -2.36868e-13 -2.20148e-13 -4.25388e-14 -1.53176e-13 -4.31086e-14 -2.56092e-13 -5.47169e-14 6.14453e-14 9.91514e-14 6.27799e-14 -2.05298e-13 -1.72038e-13 -1.18533e-13 1.88491e-13 4.23693e-13 2.66196e-12 1.95319e-11 1.44014e-10 9.92192e-10 6.41796e-09 3.88062e-08 2.1857e-07 1.14226e-06 5.51399e-06 2.44565e-05 9.90401e-05 0.00036341 0.00119703 0.00350022 0.00897414 0.0199465 0.0382165 0.0634906 0.0933309 0.125042 0.157146 0.189191 0.221084 0.252803 0.284335 0.315672 0.346806 0.377727 0.408422 0.438875 0.469066 0.498969 0.528552 0.557778 0.586599 0.614958 0.642789 0.67001 0.696527 0.72223 0.746991 0.770669 0.793106 0.814136 0.833586 0.851294 0.867117 0.880949 0.892737 0.902496 0.910314 0.916349 0.92082 0.923981 0.926098 0.927424 0.928181 0.928552 0.928676 0.928663 0.928593 0.928486 0.928357 0.928215 0.928068 0.927921 0.927779 0.927641 0.927507 0.927378 0.927251 0.927121 0.926982 0.92682 0.926611 0.926312 0.925843 0.925069 0.923759 0.921526 0.917748 0.911445 0.901132 0.884663 0.859129 0.820944 0.766265 0.691939 0.597003 0.484512 0.362884 0.245347 0.146376 0.0758668 0.0343823 0.0141 0.00545745 0.00205221 0.000760411 0.000279195 0.000101768 3.68399e-05 1.32418e-05 4.72416e-06 1.67206e-06 5.86848e-07 2.04151e-07 7.03627e-08 2.40168e-08 8.11606e-09 2.7139e-09 8.97886e-10 2.93621e-10 9.50092e-11 2.9667e-11 9.85923e-12 2.68713e-12 8.85852e-13 6.3069e-14 -1.80293e-13 2.65667e-13 1.8507e-13 -1.03047e-13 -3.16053e-13 1.84797e-13 -5.63418e-13 2.20053e-13 -6.00449e-13 -1.83764e-13 2.69753e-13 -7.13043e-13 1.76877e-13 -8.84434e-14 -2.20621e-13 3.45112e-13 -6.49323e-13 6.86603e-14 3.09346e-13 3.39501e-13 -2.60676e-13 3.00796e-13 6.51434e-13 1.87246e-13 -3.40201e-13 -1.57637e-13 0 0 1.31892e-14 -2.79563e-16 1.96563e-14 1.75093e-14 -4.34954e-15 1.83234e-15 4.15227e-14 -3.93036e-15 5.2098e-14 -5.96843e-14 -6.81481e-14 8.54833e-15 -1.00441e-13 -2.36417e-14 -1.41135e-13 -2.92569e-14 8.96388e-14 1.18691e-13 -1.60122e-13 -9.42017e-14 3.3376e-14 -2.45018e-14 4.26604e-14 -1.77427e-13 -1.00812e-13 -1.66149e-13 -5.92758e-14 2.70878e-15 -1.7405e-13 -1.23681e-14 -4.29306e-14 7.46538e-14 -1.02381e-13 4.21141e-14 -1.77408e-13 1.70282e-13 -4.61296e-14 1.80048e-13 -4.25093e-13 -1.03783e-13 -1.18198e-13 -1.48985e-13 -1.77724e-13 -1.82396e-13 1.57616e-13 1.11038e-13 -7.76457e-14 -2.16203e-13 -1.97395e-13 -4.91111e-14 -9.0939e-14 8.76056e-14 -1.85126e-13 3.18372e-13 2.68522e-12 1.97175e-11 1.44278e-10 9.92242e-10 6.418e-09 3.88062e-08 2.1857e-07 1.14226e-06 5.51399e-06 2.44565e-05 9.90401e-05 0.00036341 0.00119703 0.00350022 0.00897414 0.0199465 0.0382165 0.0634906 0.0933309 0.125042 0.157146 0.189191 0.221084 0.252803 0.284335 0.315672 0.346806 0.377727 0.408422 0.438875 0.469066 0.498969 0.528552 0.557778 0.586599 0.614958 0.642789 0.67001 0.696527 0.72223 0.746991 0.770669 0.793106 0.814136 0.833586 0.851294 0.867117 0.880949 0.892737 0.902496 0.910314 0.916349 0.92082 0.923981 0.926098 0.927424 0.928181 0.928552 0.928676 0.928663 0.928593 0.928486 0.928357 0.928215 0.928068 0.927921 0.927779 0.927641 0.927507 0.927378 0.927251 0.927121 0.926982 0.92682 0.926611 0.926312 0.925843 0.925069 0.923759 0.921526 0.917748 0.911445 0.901132 0.884663 0.859129 0.820944 0.766265 0.691939 0.597003 0.484512 0.362884 0.245347 0.146376 0.0758668 0.0343823 0.0141 0.00545745 0.00205221 0.000760411 0.000279195 0.000101768 3.68399e-05 1.32418e-05 4.72416e-06 1.67206e-06 5.86848e-07 2.04151e-07 7.03629e-08 2.40175e-08 8.11573e-09 2.71411e-09 8.97701e-10 2.94157e-10 9.51836e-11 2.94628e-11 9.37265e-12 2.8736e-12 4.32187e-13 6.62788e-13 3.4137e-13 -1.93578e-13 -2.34444e-13 -3.15842e-13 1.27235e-12 -9.39138e-13 -1.62761e-13 -6.30054e-13 2.25474e-13 -6.18521e-13 -3.78271e-13 1.77026e-13 -4.45694e-13 6.36878e-13 -2.23889e-13 -7.37659e-13 9.2878e-13 -6.32449e-13 -1.77048e-13 9.15993e-14 -4.75841e-14 -3.07279e-13 1.78746e-13 2.1374e-13 8.00382e-13 1.02673e-13 0
				</DataArray>
				<DataArray Name="VitesseY" type="Float32" format="ascii">