<?xml version="1.0"?>
<VTKFile type="PolyData">
	<PolyData>
		<Piece NumberOfPoints="1206" NumberOfPolys="1000">
			<Points>
				<DataArray type="Float32" NumberOfComponents="3" format="ascii">
 0 0 0 0.005 0 0 0.01 0 0 0.015 0 0 0.02 0 0 0.025 0 0 0.03 0 0 0.035 0 0 0.04 0 0 0.045 0 0 0.05 0 0 0.055 0 0 0.06 0 0 0.065 0 0 0.07 0 0 0.075 0 0 0.08 0 0 0.085 0 0 0.09 0 0 0.095 0 0 0.1 0 0 0.105 0 0 0.11 0 0 0.115 0 0 0.12 0 0 0.125 0 0 0.13 0 0 0.135 0 0 0.14 0 0 0.145 0 0 0.15 0 0 0.155 0 0 0.16 0 0 0.165 0 0 0.17 0 0 0.175 0 0 0.18 0 0 0.185 0 0 0.19 0 0 0.195 0 0 0.2 0 0 0.205 0 0 0.21 0 0 0.215 0 0 0.22 0 0 0.225 0 0 0.23 0 0 0.235 0 0 0.24 0 0 0.245 0 0 0.25 0 0 0.255 0 0 0.26 0 0 0.265 0 0 0.27 0 0 0.275 0 0 0.28 0 0 0.285 0 0 0.29 0 0 0.295 0 0 0.3 0 0 0.305 0 0 0.31 0 0 0.315 0 0 0.32 0 0 0.325 0 0 0.33 0 0 0.335 0 0 0.34 0 0 0.345 0 0 0.35 0 0 0.355 0 0 0.36 0 0 0.365 0 0 0.37 0 0 0.375 0 0 0.38 0 0 0.385 0 0 0.39 0 0 0.395 0 0 0.4 0 0 0.405 0 0 0.41 0 0 0.415 0 0 0.42 0 0 0.425 0 0 0.43 0 0 0.435 0 0 0.44 0 0 0.445 0 0 0.45 0 0 0.455 0 0 0.46 0 0 0.465 0 0 0.47 0 0 0.475 0 0 0.48 0 0 0.485 0 0 0.49 0 0 0.495 0 0 0.5 0 0 0.505 0 0 0.51 0 0 0.515 0 0 0.52 0 0 0.525 0 0 0.53 0 0 0.535 0 0 0.54 0 0 0.545 0 0 0.55 0 0 0.555 0 0 0.56 0 0 0.565 0 0 0.57 0 0 0.575 0 0 0.58 0 0 0.585 0 0 0.59 0 0 0.595 0 0 0.6 0 0 0.605 0 0 0.61 0 0 0.615 0 0 0.62 0 0 0.625 0 0 0.63 0 0 0.635 0 0 0.64 0 0 0.645 0 0 0.65 0 0 0.655 0 0 0.66 0 0 0.665 0 0 0.67 0 0 0.675 0 0 0.68 0 0 0.685 0 0 0.69 0 0 0.695 0 0 0.7 0 0 0.705 0 0 0.71 0 0 0.715 0 0 0.72 0 0 0.725 0 0 0.73 0 0 0.735 0 0 0.74 0 0 0.745 0 0 0.75 0 0 0.755 0 0 0.76 0 0 0.765 0 0 0.77 0 0 0.775 0 0 0.78 0 0 0.785 0 0 0.79 0 0 0.795 0 0 0.8 0 0 0.805 0 0 0.81 0 0 0.815 0 0 0.82 0 0 0.825 0 0 0.83 0 0 0.835 0 0 0.84 0 0 0.845 0 0 0.85 0 0 0.855 0 0 0.86 0 0 0.865 0 0 0.87 0 0 0.875 0 0 0.88 0 0 0.885 0 0 0.89 0 0 0.895 0 0 0.9 0 0 0.905 0 0 0.91 0 0 0.915 0 0 0.92 0 0 0.925 0 0 0.93 0 0 0.935 0 0 0.94 0 0 0.945 0 0 0.95 0 0 0.955 0 0 0.96 0 0 0.965 0 0 0.97 0 0 0.975 0 0 0.98 0 0 0.985 0 0 0.99 0 0 0.995 0 0 1 0 0 0 0.02 0 0.005 0.02 0 0.01 0.02 0 0.015 0.02 0 0.02 0.02 0 0.025 0.02 0 0.03 0.02 0 0.035 0.02 0 0.04 0.02 0 0.045 0.02 0 0.05 0.02 0 0.055 0.02 0 0.06 0.02 0 0.065 0.02 0 0.07 0.02 0 0.075 0.02 0 0.08 0.02 0 0.085 0.02 0 0.09 0.02 0 0.095 0.02 0 0.1 0.02 0 0.105 0.02 0 0.11 0.02 0 0.115 0.02 0 0.12 0.02 0 0.125 0.02 0 0.13 0.02 0 0.135 0.02 0 0.14 0.02 0 0.145 0.02 0 0.15 0.02 0 0.155 0.02 0 0.16 0.02 0 0.165 0.02 0 0.17 0.02 0 0.175 0.02 0 0.18 0.02 0 0.185 0.02 0 0.19 0.02 0 0.195 0.02 0 0.2 0.02 0 0.205 0.02 0 0.21 0.02 0 0.215 0.02 0 0.22 0.02 0 0.225 0.02 0 0.23 0.02 0 0.235 0.02 0 0.24 0.02 0 0.245 0.02 0 0.25 0.02 0 0.255 0.02 0 0.26 0.02 0 0.265 0.02 0 0.27 0.02 0 0.275 0.02 0 0.28 0.02 0 0.285 0.02 0 0.29 0.02 0 0.295 0.02 0 0.3 0.02 0 0.305 0.02 0 0.31 0.02 0 0.315 0.02 0 0.32 0.02 0 0.325 0.02 0 0.33 0.02 0 0.335 0.02 0 0.34 0.02 0 0.345 0.02 0 0.35 0.02 0 0.355 0.02 0 0.36 0.02 0 0.365 0.02 0 0.37 0.02 0 0.375 0.02 0 0.38 0.02 0 0.385 0.02 0 0.39 0.02 0 0.395 0.02 0 0.4 0.02 0 0.405 0.02 0 0.41 0.02 0 0.415 0.02 0 0.42 0.02 0 0.425 0.02 0 0.43 0.02 0 0.435 0.02 0 0.44 0.02 0 0.445 0.02 0 0.45 0.02 0 0.455 0.02 0 0.46 0.02 0 0.465 0.02 0 0.47 0.02 0 0.475 0.02 0 0.48 0.02 0 0.485 0.02 0 0.49 0.02 0 0.495 0.02 0 0.5 0.02 0 0.505 0.02 0 0.51 0.02 0 0.515 0.02 0 0.52 0.02 0 0.525 0.02 0 0.53 0.02 0 0.535 0.02 0 0.54 0.02 0 0.545 0.02 0 0.55 0.02 0 0.555 0.02 0 0.56 0.02 0 0.565 0.02 0 0.57 0.02 0 0.575 0.02 0 0.58 0.02 0 0.585 0.02 0 0.59 0.02 0 0.595 0.02 0 0.6 0.02 0 0.605 0.02 0 0.61 0.02 0 0.615 0.02 0 0.62 0.02 0 0.625 0.02 0 0.63 0.02 0 0.635 0.02 0 0.64 0.02 0 0.645 0.02 0 0.65 0.02 0 0.655 0.02 0 0.66 0.02 0 0.665 0.02 0 0.67 0.02 0 0.675 0.02 0 0.68 0.02 0 0.685 0.02 0 0.69 0.02 0 0.695 0.02 0 0.7 0.02 0 0.705 0.02 0 0.71 0.02 0 0.715 0.02 0 0.72 0.02 0 0.725 0.02 0 0.73 0.02 0 0.735 0.02 0 0.74 0.02 0 0.745 0.02 0 0.75 0.02 0 0.755 0.02 0 0.76 0.02 0 0.765 0.02 0 0.77 0.02 0 0.775 0.02 0 0.78 0.02 0 0.785 0.02 0 0.79 0.02 0 0.795 0.02 0 0.8 0.02 0 0.805 0.02 0 0.81 0.02 0 0.815 0.02 0 0.82 0.02 0 0.825 0.02 0 0.83 0.02 0 0.835 0.02 0 0.84 0.02 0 0.845 0.02 0 0.85 0.02 0 0.855 0.02 0 0.86 0.02 0 0.865 0.02 0 0.87 0.02 0 0.875 0.02 0 0.88 0.02 0 0.885 0.02 0 0.89 0.02 0 0.895 0.02 0 0.9 0.02 0 0.905 0.02 0 0.91 0.02 0 0.915 0.02 0 0.92 0.02 0 0.925 0.02 0 0.93 0.02 0 0.935 0.02 0 0.94 0.02 0 0.945 0.02 0 0.95 0.02 0 0.955 0.02 0 0.96 0.02 0 0.965 0.02 0 0.97 0.02 0 0.975 0.02 0 0.98 0.02 0 0.985 0.02 0 0.99 0.02 0 0.995 0.02 0 1 0.02 0 0 0.04 0 0.005 0.04 0 0.01 0.04 0 0.015 0.04 0 0.02 0.04 0 0.025 0.04 0 0.03 0.04 0 0.035 0.04 0 0.04 0.04 0 0.045 0.04 0 0.05 0.04 0 0.055 0.04 0 0.06 0.04 0 0.065 0.04 0 0.07 0.04 0 0.075 0.04 0 0.08 0.04 0 0.085 0.04 0 0.09 0.04 0 0.095 0.04 0 0.1 0.04 0 0.105 0.04 0 0.11 0.04 0 0.115 0.04 0 0.12 0.04 0 0.125 0.04 0 0.13 0.04 0 0.135 0.04 0 0.14 0.04 0 0.145 0.04 0 0.15 0.04 0 0.155 0.04 0 0.16 0.04 0 0.165 0.04 0 0.17 0.04 0 0.175 0.04 0 0.18 0.04 0 0.185 0.04 0 0.19 0.04 0 0.195 0.04 0 0.2 0.04 0 0.205 0.04 0 0.21 0.04 0 0.215 0.04 0 0.22 0.04 0 0.225 0.04 0 0.23 0.04 0 0.235 0.04 0 0.24 0.04 0 0.245 0.04 0 0.25 0.04 0 0.255 0.04 0 0.26 0.04 0 0.265 0.04 0 0.27 0.04 0 0.275 0.04 0 0.28 0.04 0 0.285 0.04 0 0.29 0.04 0 0.295 0.04 0 0.3 0.04 0 0.305 0.04 0 0.31 0.04 0 0.315 0.04 0 0.32 0.04 0 0.325 0.04 0 0.33 0.04 0 0.335 0.04 0 0.34 0.04 0 0.345 0.04 0 0.35 0.04 0 0.355 0.04 0 0.36 0.04 0 0.365 0.04 0 0.37 0.04 0 0.375 0.04 0 0.38 0.04 0 0.385 0.04 0 0.39 0.04 0 0.395 0.04 0 0.4 0.04 0 0.405 0.04 0 0.41 0.04 0 0.415 0.04 0 0.42 0.04 0 0.425 0.04 0 0.43 0.04 0 0.435 0.04 0 0.44 0.04 0 0.445 0.04 0 0.45 0.04 0 0.455 0.04 0 0.46 0.04 0 0.465 0.04 0 0.47 0.04 0 0.475 0.04 0 0.48 0.04 0 0.485 0.04 0 0.49 0.04 0 0.495 0.04 0 0.5 0.04 0 0.505 0.04 0 0.51 0.04 0 0.515 0.04 0 0.52 0.04 0 0.525 0.04 0 0.53 0.04 0 0.535 0.04 0 0.54 0.04 0 0.545 0.04 0 0.55 0.04 0 0.555 0.04 0 0.56 0.04 0 0.565 0.04 0 0.57 0.04 0 0.575 0.04 0 0.58 0.04 0 0.585 0.04 0 0.59 0.04 0 0.595 0.04 0 0.6 0.04 0 0.605 0.04 0 0.61 0.04 0 0.615 0.04 0 0.62 0.04 0 0.625 0.04 0 0.63 0.04 0 0.635 0.04 0 0.64 0.04 0 0.645 0.04 0 0.65 0.04 0 0.655 0.04 0 0.66 0.04 0 0.665 0.04 0 0.67 0.04 0 0.675 0.04 0 0.68 0.04 0 0.685 0.04 0 0.69 0.04 0 0.695 0.04 0 0.7 0.04 0 0.705 0.04 0 0.71 0.04 0 0.715 0.04 0 0.72 0.04 0 0.725 0.04 0 0.73 0.04 0 0.735 0.04 0 0.74 0.04 0 0.745 0.04 0 0.75 0.04 0 0.755 0.04 0 0.76 0.04 0 0.765 0.04 0 0.77 0.04 0 0.775 0.04 0 0.78 0.04 0 0.785 0.04 0 0.79 0.04 0 0.795 0.04 0 0.8 0.04 0 0.805 0.04 0 0.81 0.04 0 0.815 0.04 0 0.82 0.04 0 0.825 0.04 0 0.83 0.04 0 0.835 0.04 0 0.84 0.04 0 0.845 0.04 0 0.85 0.04 0 0.855 0.04 0 0.86 0.04 0 0.865 0.04 0 0.87 0.04 0 0.875 0.04 0 0.88 0.04 0 0.885 0.04 0 0.89 0.04 0 0.895 0.04 0 0.9 0.04 0 0.905 0.04 0 0.91 0.04 0 0.915 0.04 0 0.92 0.04 0 0.925 0.04 0 0.93 0.04 0 0.935 0.04 0 0.94 0.04 0 0.945 0.04 0 0.95 0.04 0 0.955 0.04 0 0.96 0.04 0 0.965 0.04 0 0.97 0.04 0 0.975 0.04 0 0.98 0.04 0 0.985 0.04 0 0.99 0.04 0 0.995 0.04 0 1 0.04 0 0 0.06 0 0.005 0.06 0 0.01 0.06 0 0.015 0.06 0 0.02 0.06 0 0.025 0.06 0 0.03 0.06 0 0.035 0.06 0 0.04 0.06 0 0.045 0.06 0 0.05 0.06 0 0.055 0.06 0 0.06 0.06 0 0.065 0.06 0 0.07 0.06 0 0.075 0.06 0 0.08 0.06 0 0.085 0.06 0 0.09 0.06 0 0.095 0.06 0 0.1 0.06 0 0.105 0.06 0 0.11 0.06 0 0.115 0.06 0 0.12 0.06 0 0.125 0.06 0 0.13 0.06 0 0.135 0.06 0 0.14 0.06 0 0.145 0.06 0 0.15 0.06 0 0.155 0.06 0 0.16 0.06 0 0.165 0.06 0 0.17 0.06 0 0.175 0.06 0 0.18 0.06 0 0.185 0.06 0 0.19 0.06 0 0.195 0.06 0 0.2 0.06 0 0.205 0.06 0 0.21 0.06 0 0.215 0.06 0 0.22 0.06 0 0.225 0.06 0 0.23 0.06 0 0.235 0.06 0 0.24 0.06 0 0.245 0.06 0 0.25 0.06 0 0.255 0.06 0 0.26 0.06 0 0.265 0.06 0 0.27 0.06 0 0.275 0.06 0 0.28 0.06 0 0.285 0.06 0 0.29 0.06 0 0.295 0.06 0 0.3 0.06 0 0.305 0.06 0 0.31 0.06 0 0.315 0.06 0 0.32 0.06 0 0.325 0.06 0 0.33 0.06 0 0.335 0.06 0 0.34 0.06 0 0.345 0.06 0 0.35 0.06 0 0.355 0.06 0 0.36 0.06 0 0.365 0.06 0 0.37 0.06 0 0.375 0.06 0 0.38 0.06 0 0.385 0.06 0 0.39 0.06 0 0.395 0.06 0 0.4 0.06 0 0.405 0.06 0 0.41 0.06 0 0.415 0.06 0 0.42 0.06 0 0.425 0.06 0 0.43 0.06 0 0.435 0.06 0 0.44 0.06 0 0.445 0.06 0 0.45 0.06 0 0.455 0.06 0 0.46 0.06 0 0.465 0.06 0 0.47 0.06 0 0.475 0.06 0 0.48 0.06 0 0.485 0.06 0 0.49 0.06 0 0.495 0.06 0 0.5 0.06 0 0.505 0.06 0 0.51 0.06 0 0.515 0.06 0 0.52 0.06 0 0.525 0.06 0 0.53 0.06 0 0.535 0.06 0 0.54 0.06 0 0.545 0.06 0 0.55 0.06 0 0.555 0.06 0 0.56 0.06 0 0.565 0.06 0 0.57 0.06 0 0.575 0.06 0 0.58 0.06 0 0.585 0.06 0 0.59 0.06 0 0.595 0.06 0 0.6 0.06 0 0.605 0.06 0 0.61 0.06 0 0.615 0.06 0 0.62 0.06 0 0.625 0.06 0 0.63 0.06 0 0.635 0.06 0 0.64 0.06 0 0.645 0.06 0 0.65 0.06 0 0.655 0.06 0 0.66 0.06 0 0.665 0.06 0 0.67 0.06 0 0.675 0.06 0 0.68 0.06 0 0.685 0.06 0 0.69 0.06 0 0.695 0.06 0 0.7 0.06 0 0.705 0.06 0 0.71 0.06 0 0.715 0.06 0 0.72 0.06 0 0.725 0.06 0 0.73 0.06 0 0.735 0.06 0 0.74 0.06 0 0.745 0.06 0 0.75 0.06 0 0.755 0.06 0 0.76 0.06 0 0.765 0.06 0 0.77 0.06 0 0.775 0.06 0 0.78 0.06 0 0.785 0.06 0 0.79 0.06 0 0.795 0.06 0 0.8 0.06 0 0.805 0.06 0 0.81 0.06 0 0.815 0.06 0 0.82 0.06 0 0.825 0.06 0 0.83 0.06 0 0.835 0.06 0 0.84 0.06 0 0.845 0.06 0 0.85 0.06 0 0.855 0.06 0 0.86 0.06 0 0.865 0.06 0 0.87 0.06 0 0.875 0.06 0 0.88 0.06 0 0.885 0.06 0 0.89 0.06 0 0.895 0.06 0 0.9 0.06 0 0.905 0.06 0 0.91 0.06 0 0.915 0.06 0 0.92 0.06 0 0.925 0.06 0 0.93 0.06 0 0.935 0.06 0 0.94 0.06 0 0.945 0.06 0 0.95 0.06 0 0.955 0.06 0 0.96 0.06 0 0.965 0.06 0 0.97 0.06 0 0.975 0.06 0 0.98 0.06 0 0.985 0.06 0 0.99 0.06 0 0.995 0.06 0 1 0.06 0 0 0.08 0 0.005 0.08 0 0.01 0.08 0 0.015 0.08 0 0.02 0.08 0 0.025 0.08 0 0.03 0.08 0 0.035 0.08 0 0.04 0.08 0 0.045 0.08 0 0.05 0.08 0 0.055 0.08 0 0.06 0.08 0 0.065 0.08 0 0.07 0.08 0 0.075 0.08 0 0.08 0.08 0 0.085 0.08 0 0.09 0.08 0 0.095 0.08 0 0.1 0.08 0 0.105 0.08 0 0.11 0.08 0 0.115 0.08 0 0.12 0.08 0 0.125 0.08 0 0.13 0.08 0 0.135 0.08 0 0.14 0.08 0 0.145 0.08 0 0.15 0.08 0 0.155 0.08 0 0.16 0.08 0 0.165 0.08 0
[...]
			<PointData Scalars="VitesseX">
				<DataArray Name="VitesseX" type="Float32" format="ascii">
 0 3.34786e-14 -3.75692e-15 7.6209e-14 -3.29205e-14 -3.2897e-14 7.14208e-15 -1.07282e-14 1.57091e-14 -1.26657e-14 -5.8682e-15 -1.30153e-13 5.96555e-14 -1.85031e-13 3.35289e-14 3.10673e-14 -1.29098e-13 8.32933e-14 -1.02497e-13 -6.79997e-14 -1.4319e-13 -5.30281e-14 -1.79038e-13 -3.31902e-14 -9.40395e-14 -1.20593e-13 -7.76928e-14 -1.00499e-13 -1.07696e-13 4.8197e-14 -9.92186e-14 -1.38322e-14 -7.91989e-14 5.26403e-15 1.09941e-14 -2.69733e-13 2.0707e-13 -2.96332e-13 2.54096e-14 -3.32619e-13 -2.32889e-13 -4.18531e-13 -2.55077e-13 1.35247e-13 3.50046e-14 1.07434e-13 2.53422e-13 -3.18703e-13 1.23152e-13 -1.19769e-13 1.09832e-13 -1.71748e-13 -4.0737e-13 1.59606e-13 -2.97074e-13 2.62886e-14 2.47899e-14 -3.56268e-13 1.51844e-13 -4.69144e-14 1.13404e-13 -1.84456e-13 -2.76865e-13 2.2782e-13 -1.42659e-13 -1.28032e-13 -9.30679e-14 -2.45638e-13 1.53179e-13 6.8544e-13 7.86871e-12 8.74485e-11 8.75516e-10 8.09185e-09 6.81335e-08 5.19975e-07 3.57184e-06 2.1905e-05 0.000118739 0.000561847 0.00228424 0.00782415 0.0220915 0.050542 0.0937825 0.145527 0.199041 0.25189 0.303864 0.354959 0.405145 0.454368 0.502541 0.549533 0.595169 0.639216 0.68138 0.721304 0.758574 0.792736 0.823326 0.849932 0.872262 0.890216 0.903943 0.913848 0.920535 0.924716 0.927091 0.92827 0.928728 0.928758 0.928633 0.92839 0.928001 0.927357 0.926214 0.924095 0.920144 0.912938 0.900267 0.878989 0.845079 0.794063 0.722015 0.627179 0.512025 0.384968 0.260164 0.153897 0.0780114 0.0339538 0.0131477 0.00474528 0.0016474 0.000558119 0.000185474 6.05438e-05 1.94134e-05 6.11251e-06 1.88898e-06 5.72726e-07 1.70304e-07 4.96514e-08 1.41905e-08 3.97484e-09 1.0906e-09 2.93813e-10 7.70137e-11 2.03195e-11 4.26471e-12 3.0708e-13 5.26515e-13 -1.7257e-13 2.22573e-13 -7.58637e-13 -1.21976e-13 4.83572e-13 6.18726e-13 2.09521e-13 -1.02385e-12 -5.46908e-13 -2.87366e-13 9.85174e-13 2.25816e-13 -1.33502e-13 -9.28879e-13 1.06895e-13 2.11098e-13 2.39744e-13 2.54034e-13 -2.45767e-13 2.61794e-14 -7.31312e-13 -8.79265e-14 1.68921e-15 3.78511e-14 -5.52355e-13 -9.24126e-13 4.78076e-14 1.96663e-13 8.19825e-13 2.43128e-13 -7.90763e-13 -2.02102e-14 1.87972e-13 1.52731e-13 -4.96558e-13 -2.46131e-13 -1.1208e-12 2.36464e-13 -6.33588e-13 -4.80627e-13 -5.95317e-14 3.88365e-13 -3.50649e-14 -9.43163e-13 3.90934e-15 3.94236e-13 1.18204e-12 0 0 -9.6639e-15 2.53553e-14 -2.65361e-14 5.5023e-14 1.76241e-14 2.73791e-14 -2.91961e-14 -3.18897e-14 -1.59897e-14 -7.59086e-14 8.33383e-15 -1.28943e-13 4.76122e-14 -9.13209e-14 -3.52674e-15 3.50743e-14 -1.22735e-13 3.34685e-15 -1.00652e-13 -3.5257e-14 -1.33509e-13 -3.31443e-14 -1.10174e-13 -1.01571e-13 -1.95709e-14 -1.68487e-13 -5.21436e-14 -6.5715e-14 -3.37694e-14 -1.00108e-14 -7.54823e-14 -7.29671e-14 -4.38802e-15 -1.00548e-13 5.92033e-14 -3.09046e-13 6.16009e-14 -2.76951e-13 -4.52847e-14 -1.93136e-13 -1.5122e-13 -6.04526e-14 -1.90245e-13 5.31127e-14 -8.37474e-14 -8.98224e-14 3.03341e-13 3.5974e-14 2.18117e-13 -2.07234e-13 -3.57388e-13 9.14311e-14 -3.76673e-13 -9.04135e-15 -1.74728e-13 -2.32128e-13 1.03578e-13 -6.4576e-14 1.22794e-13 -1.59424e-13 -3.78769e-14 4.68831e-14 -2.0904e-13 -7.38045e-14 -1.3314e-13 -2.22712e-13 1.46503e-13 -9.85226e-14 8.17375e-13 8.26177e-12 8.67851e-11 8.76217e-10 8.09109e-09 6.81348e-08 5.19973e-07 3.57184e-06 2.1905e-05 0.000118739 0.000561847 0.00228424 0.00782415 0.0220915 0.050542 0.0937825 0.145527 0.199041 0.25189 0.303864 0.354959 0.405145 0.454368 0.502541 0.549533 0.595169 0.639216 0.68138 0.721304 0.758574 0.792736 0.823326 0.849932 0.872262 0.890216 0.903943 0.913848 0.920535 0.924716 0.927091 0.92827 0.928728 0.928758 0.928633 0.92839 0.928001 0.927357 0.926214 0.924095 0.920144 0.912938 0.900267 0.878989 0.845079 0.794063 0.722015 0.627179 0.512025 0.384968 0.260164 0.153897 0.0780114 0.0339538 0.0131477 0.00474528 0.0016474 0.000558119 0.000185474 6.05438e-05 1.94134e-05 6.11251e-06 1.88898e-06 5.72727e-07 1.70303e-07 4.96517e-08 1.41899e-08 3.97481e-09 1.09164e-09 2.93164e-10 7.7387e-11 1.93205e-11 4.86529e-12 1.3598e-12 -4.45305e-13 -4.55595e-14 -6.17939e-13 2.3813e-13 3.41519e-13 -2.45868e-13 -4.29529e-13 -5.06657e-13 4.76685e-13 1.75799e-13 9.46057e-14 -9.61769e-13 -1.27084e-13 9.00068e-15 4.79967e-13 -6.20813e-14 -1.97741e-14 -1.63057e-13 -1.86526e-13 -1.08953e-13 -3.99869e-14 2.27719e-13 -2.41874e-13 -7.98522e-13 -2.95109e-13 -9.16757e-14 2.67865e-13 -2.2095e-13 5.60225e-14 -3.11519e-13 7.87949e-14 6.37619e-13 -2.33126e-14 -2.68326e-13 -3.0507e-13 -2.43523e-14 1.30754e-13 -1.79651e-13 -7.88358e-13 -2.14033e-13 -8.51656e-14 -2.30851e-13 -8.43363e-13 -8.23643e-14 7.74962e-13 5.00012e-13 -4.27991e-13 -1.13061e-12 0 0 4.09247e-15 -3.06937e-16 2.8628e-14 3.67354e-14 3.61654e-14 4.55132e-15 -3.02578e-15 1.49054e-14 -4.65445e-14 -1.98348e-14 -5.03601e-14 -4.53329e-14 -6.14235e-14 -1.66809e-14 -3.15743e-14 -3.22291e-14 1.86716e-14 -8.83022e-14 -9.06174e-14 -8.04654e-14 -3.10574e-14 -1.05955e-13 -3.12237e-14 -1.8343e-14 -7.79096e-14 1.67716e-14 -7.39822e-14 -1.42354e-13 -6.40932e-14 -7.79963e-14 5.45801e-14 -5.91601e-14 -1.44771e-13 -5.68351e-14 -1.83796e-13 6.3976e-14 -1.75061e-13 -9.35789e-14 -1.48507e-13 -1.19699e-13 -6.05259e-14 -1.36023e-14 7.26708e-14 -1.91277e-13 1.11921e-13 -1.05669e-14 -1.06049e-13 2.16003e-14 -2.41746e-13 -2.96332e-14 -1.97003e-15 -1.86312e-13 -8.04381e-14 -1.53178e-13 -9.48813e-14 -9.47593e-14 -9.83261e-14 1.1606e-13 -2.09963e-13 1.34633e-13 6.66785e-14 -1.38325e-13 -7.50182e-14 -1.4446e-13 -1.59195e-14 -1.46516e-13 -1.10969e-13 5.47028e-14 7.57921e-13 8.08956e-12 8.7297e-11 8.76056e-10 8.09166e-09 6.8134e-08 5.19973e-07 3.57184e-06 2.1905e-05 0.000118739 0.000561847 0.00228424 0.00782415 0.0220915 0.050542 0.0937825 0.145527 0.199041 0.25189 0.303864 0.354959 0.405145 0.454368 0.502541 0.549533 0.595169 0.639216 0.68138 0.721304 0.758574 0.792736 0.823326 0.849932 0.872262 0.890216 0.903943 0.913848 0.920535 0.924716 0.927091 0.92827 0.928728 0.928758 0.928633 0.92839 0.928001 0.927357 0.926214 0.924095 0.920144 0.912938 0.900267 0.878989 0.845079 0.794063 0.722015 0.627179 0.512025 0.384968 0.260164 0.153897 0.0780114 0.0339538 0.0131477 0.00474528 0.0016474 0.000558119 0.000185474 6.05438e-05 1.94134e-05 6.11251e-06 1.88898e-06 5.72727e-07 1.70304e-07 4.96517e-08 1.41902e-08 3.9747e-09 1.09102e-09 2.93598e-10 7.70985e-11 1.96979e-11 4.78742e-12 7.59119e-13 2.83621e-13 -5.50897e-13 -5.28687e-14 -1.10981e-13 1.57725e-13 -2.31865e-13 -6.00247e-13 4.05286e-14 -3.86024e-13 -1.65845e-13 1.25125e-13 -2.36457e-13 -4.00826e-13 -2.79199e-13 8.71814e-15 1.02214e-13 -2.49054e-13 -2.367e-13 4.28707e-14 2.70014e-13 1.18994e-13 -3.80067e-13 -1.85457e-13 -6.39089e-13 -5.60414e-13 3.58741e-14 1.52885e-13 2.36593e-13 6.40482e-14 -1.51304e-13 -2.23127e-14 1.50475e-13 3.31644e-13 -1.70906e-13 2.54735e-13 -2.65937e-13 -1.05101e-13 2.85995e-14 1.76939e-13 -5.14529e-13 -5.29158e-13 -6.55442e-13 -5.58244e-14 2.39323e-13 4.94737e-13 1.64555e-13 -1.45743e-14 -7.35045e-14 0 0 3.66062e-14 2.65682e-14 5.46453e-14 -8.30639e-15 5.49848e-15 5.73239e-15 -1.19013e-14 1.07977e-14 -4.45184e-14 1.29085e-14 -1.97176e-14 2.68311e-14 -8.49063e-14 -4.06338e-14 3.15031e-14 -5.81283e-14 -8.6326e-14 -7.93314e-14 -5.05733e-14 -9.56518e-14 -3.07299e-15 -1.18759e-13 -2.80368e-14 9.57106e-14 -6.48593e-14 4.21669e-14 -7.91636e-14 -5.83787e-14 -6.64602e-14 -1.36927e-13 -2.63669e-14 -6.58614e-14 -2.05417e-13 -2.62021e-14 -1.63807e-13 1.93316e-14 -2.20333e-13 -3.23971e-15 -1.66466e-13 -1.05075e-13 -1.60282e-13 -2.66167e-14 8.19129e-14 6.90809e-14 2.19955e-14 3.16009e-14 -2.57218e-13 -7.9345e-14 -7.96342e-14 -3.86342e-14 -1.27613e-13 -3.71429e-13 4.89888e-14 -2.30929e-13 -1.60468e-13 1.32176e-14 3.6724e-14 2.93475e-14 -7.89478e-14 9.22007e-14 4.86435e-14 2.75399e-14 -2.43e-14 -9.35697e-14 -1.23416e-13 -1.18501e-13 -8.64667e-14 -1.09357e-13 6.89519e-13 7.92215e-12 8.75758e-11 8.76184e-10 8.09161e-09 6.81339e-08 5.19974e-07 3.57184e-06 2.1905e-05 0.000118739 0.000561847 0.00228424 0.00782415 0.0220915 0.050542 0.0937825 0.145527 0.199041 0.25189 0.303864 0.354959 0.405145 0.454368 0.502541 0.549533 0.595169 0.639216 0.68138 0.721304 0.758574 0.792736 0.823326 0.849932 0.872262 0.890216 0.903943 0.913848 0.920535 0.924716 0.927091 0.92827 0.928728 0.928758 0.928633 0.92839 0.928001 0.927357 0.926214 0.924095 0.920144 0.912938 0.900267 0.878989 0.845079 0.794063 0.722015 0.627179 0.512025 0.384968 0.260164 0.153897 0.0780114 0.0339538 0.0131477 0.00474528 0.0016474 0.000558119 0.000185474 6.05438e-05 1.94134e-05 6.11251e-06 1.88898e-06 5.72727e-07 1.70304e-07 4.96517e-08 1.41902e-08 3.97449e-09 1.09072e-09 2.93409e-10 7.71853e-11 1.98404e-11 4.71224e-12 6.009e-13 4.94078e-13 -6.55601e-14 -2.27567e-13 -4.33467e-13 -2.33296e-13 2.16095e-13 9.20807e-14 -3.37224e-13 -2.7682e-13 -2.35772e-13 -2.02119e-13 -1.35207e-13 -6.72113e-14 -9.43779e-14 -6.39097e-13 1.77782e-13 6.07015e-14 2.57602e-13 1.02214e-13 -3.95753e-13 1.26066e-13 -5.87473e-13 -1.4951e-14 -4.48358e-13 -3.04418e-14 -5.90528e-13 -3.92847e-13 1.65186e-13 8.5839e-14 3.07736e-13 3.7938e-13 -8.10871e-13 5.86695e-15 6.23041e-13 -3.35357e-13 -2.32536e-13 1.86093e-13 -4.52342e-14 -3.44408e-13 -5.69041e-13 -2.66531e-13 -7.38458e-14 -5.06921e-13 -5.26797e-13 -3.96638e-13 4.95949e-13 5.93375e-13 8.6929e-13 0 0 -5.7979e-15 3.00902e-14 -1.51241e-14 2.74763e-14 1.99105e-14 1.25223e-14 -3.9976e-14 -4.1553e-14 -2.72857e-15 -4.75456e-14 4.07975e-14 -5.72772e-14 9.17931e-14 -8.56129e-14 -2.61505e-14 3.25717e-14 -2.01508e-13 6.45754e-14 -4.11531e-14 2.07984e-14 -6.96284e-14 2.11192e-14 -5.16494e-14 1.34564e-14 1.62555e-14 -1.68236e-13 -6.30349e-14 -9.68306e-14 -4.32107e-14 -8.86675e-14 -9.74179e-14 -4.70661e-14 -7.90556e-14 -1.22762e-13 6.01956e-14 -2.73734e-13 -3.29098e-15 -2.59406e-13 -3.22097e-14 -7.12144e-14 -1.21418e-13 2.35987e-14 -1.48478e-13 2.02732e-13 -1.00935e-13 -6.67568e-14 2.69065e-13 4.06791e-14 2.30436e-13 -2.55995e-13 -3.53053e-13 -3.87298e-14 -3.9263e-13 -7.72999e-14 -3.06085e-13 -1.75551e-13 3.54405e-13 -1.28651e-13 1.16876e-13 -1.51198e-13 -1.54051e-13 9.43755e-14 -2.58074e-13 -2.07223e-14 -1.81084e-13 -1.04759e-13 6.82882e-14 -1.58421e-13 1.02387e-12 8.19072e-12 8.71539e-11 8.76533e-10 8.09112e-09 6.81349e-08 5.19973e-07 3.57184e-06 2.1905e-05 0.000118739 0.000561847 0.00228424 0.00782415 0.0220915 0.050542 0.0937825 0.145527 0.199041 0.25189 0.303864 0.354959 0.405145 0.454368 0.502541 0.549533 0.595169 0.639216 0.68138 0.721304 0.758574 0.792736 0.823326 0.849932 0.872262 0.890216 0.903943 0.913848 0.920535 0.924716 0.927091 0.92827 0.928728 0.928758 0.928633 0.92839 0.928001 0.927357 0.926214 0.924095 0.920144 0.912938 0.900267 0.878989 0.845079 0.794063 0.722015 0.627179 0.512025 0.384968 0.260164 0.153897 0.0780114 0.0339538 0.0131477 0.00474528 0.0016474 0.000558119 0.000185474 6.05438e-05 1.94134e-05 6.11251e-06 1.88898e-06 5.72727e-07 1.70303e-07 4.96519e-08 1.41896e-08 3.97445e-09 1.09132e-09 2.93182e-10 7.74124e-11 1.9506e-11 4.79411e-12 1.39886e-12 -5.8037e-13 1.20239e-13 -7.6614e-13 8.32027e-14 9.69085e-14 -2.99586e-16 7.08517e-13 -6.35509e-13 3.80148e-13 2.24528e-13 -2.18379e-13 -6.58096e-13 -2.3443e-13 1.76908e-13 1.76321e-13 -3.00074e-14 1.16837e-13 2.12307e-13 -9.40693e-14 -6.40763e-13 -2.26407e-13 1.61835e-13 -5.92272e-13 -7.03092e-13 -1.45376e-13 -6.01414e-13 3.9584e-14 -4.25511e-13 4.82536e-14 -3.19549e-13 2.82033e-13 2.52308e-13 -9.65385e-14 -1.18134e-14 -2.84847e-13 4.28568e-14 3.5392e-13 -5.88171e-14 -9.81954e-13 -1.51613e-13 2.34268e-13 -1.7848e-13 -1.14223e-12 -4.25315e-13 4.29551e-13 8.31008e-13 -2.38271e-13 -4.5815e-14 0 0 -2.38168e-14 -4.80375e-14 4.69984e-14 2.06966e-15 3.30097e-14 -2.49336e-14 -1.45369e-14 4.59786e-15 9.80439e-15 -1.46288e-14 -1.26511e-13 5.86583e-14 -4.97034e-14 9.28505e-14 -1.40335e-13 -8.23043e-14 1.35743e-13 2.01815e-15 -2.9091e-14 -7.06298e-16 1.87653e-14 -4.49037e-14 7.74847e-14 -9.20918e-14 -7.50406e-14 -1.2798e-13 -1.11919e-13 -3.37879e-13 3.40483e-14 -1.38671e-13 1.04191e-13 -1.39944e-14 -2.27789e-14 -9.46987e-14 -3.07725e-13 3.66983e-13 -3.35572e-13 -1.20177e-13 -2.7055e-13 -1.82935e-14 -1.59414e-13 -6.09451e-14 2.00297e-13 -1.86473e-13 2.5291e-13 2.15218e-13 -8.49198e-14 3.34452e-13 -4.19355e-13 3.03116e-14 8.82079e-14 -2.97456e-13 -1.31161e-13 -2.78089e-13 -1.05253e-13 -7.80105e-14 -1.24714e-13 1.97119e-13 -3.20781e-13 2.14722e-13 -3.80735e-13 -5.1361e-13 2.83146e-14 -1.38275e-13 -8.9259e-15 8.6807e-14 -4.51073e-13 3.61502e-13 1.23524e-12 8.06144e-12 8.76287e-11 8.75893e-10 8.09202e-09 6.81338e-08 5.19974e-07 3.57184e-06 2.1905e-05 0.000118739 0.000561847 0.00228424 0.00782415 0.0220915 0.050542 0.0937825 0.145527 0.199041 0.25189 0.303864 0.354959 0.405145 0.454368 0.502541 0.549533 0.595169 0.639216 0.68138 0.721304 0.758574 0.792736 0.823326 0.849932 0.872262 0.890216 0.903943 0.913848 0.920535 0.924716 0.927091 0.92827 0.928728 0.928758 0.928633 0.92839 0.928001 0.927357 0.926214 0.924095 0.920144 0.912938 0.900267 0.878989 0.845079 0.794063 0.722015 0.627179 0.512025 0.384968 0.260164 0.153897 0.0780114 0.0339538 0.0131477 0.00474528 0.0016474 0.000558119 0.000185474 6.05438e-05 1.94134e-05 6.11251e-06 1.88898e-06 5.72726e-07 1.70303e-07 4.96517e-08 1.41899e-08 3.97452e-09 1.09058e-09 2.94228e-10 7.68908e-11 2.04055e-11 4.27272e-12 7.0163e-13 -1.64531e-13 -8.11648e-13 2.75567e-13 -4.23522e-13 1.70845e-13 7.87902e-14 1.51016e-12 7.0732e-13 -1.43534e-12 -3.09596e-13 -2.58847e-13 1.39002e-12 -6.56105e-13 -1.6733e-13 -2.40542e-13 1.99062e-14 -1.35192e-13 1.86753e-15 3.2026e-13 2.21446e-14 -3.60804e-13 -4.48269e-13 -1.12973e-12 -1.88913e-13 -7.22627e-13 -3.19027e-13 -2.89225e-13 -2.18502e-13 1.37543e-13 -1.14314e-13 -1.5378e-13 3.61306e-13 4.84893e-13 -8.86896e-13 1.37336e-12 -4.2894e-13 -3.82188e-13 -7.3146e-13 8.91964e-13 -3.99725e-13 -3.67014e-13 -1.11798e-12 6.92823e-13 8.11275e-13 1.48766e-13 3.11195e-15 -4.42221e-13 1.46603e-12 0
				</DataArray>
				<DataArray Name="VitesseY" type="Float32" format="ascii">