<?xml version="1.0"?>
<VTKFile type="PolyData">
	<PolyData>
		<Piece NumberOfPoints="1206" NumberOfPolys="1000">
			<Points>
				<DataArray type="Float32" NumberOfComponents="3" format="ascii">
 0 0 0 0.005 0 0 0.01 0 0 0.015 0 0 0.02 0 0 0.025 0 0 0.03 0 0 0.035 0 0 0.04 0 0 0.045 0 0 0.05 0 0 0.055 0 0 0.06 0 0 0.065 0 0 0.07 0 0 0.075 0 0 0.08 0 0 0.085 0 0 0.09 0 0 0.095 0 0 0.1 0 0 0.105 0 0 0.11 0 0 0.115 0 0 0.12 0 0 0.125 0 0 0.13 0 0 0.135 0 0 0.14 0 0 0.145 0 0 0.15 0 0 0.155 0 0 0.16 0 0 0.165 0 0 0.17 0 0 0.175 0 0 0.18 0 0 0.185 0 0 0.19 0 0 0.195 0 0 0.2 0 0 0.205 0 0 0.21 0 0 0.215 0 0 0.22 0 0 0.225 0 0 0.23 0 0 0.235 0 0 0.24 0 0 0.245 0 0 0.25 0 0 0.255 0 0 0.26 0 0 0.265 0 0 0.27 0 0 0.275 0 0 0.28 0 0 0.285 0 0 0.29 0 0 0.295 0 0 0.3 0 0 0.305 0 0 0.31 0 0 0.315 0 0 0.32 0 0 0.325 0 0 0.33 0 0 0.335 0 0 0.34 0 0 0.345 0 0 0.35 0 0 0.355 0 0 0.36 0 0 0.365 0 0 0.37 0 0 0.375 0 0 0.38 0 0 0.385 0 0 0.39 0 0 0.395 0 0 0.4 0 0 0.405 0 0 0.41 0 0 0.415 0 0 0.42 0 0 0.425 0 0 0.43 0 0 0.435 0 0 0.44 0 0 0.445 0 0 0.45 0 0 0.455 0 0 0.46 0 0 0.465 0 0 0.47 0 0 0.475 0 0 0.48 0 0 0.485 0 0 0.49 0 0 0.495 0 0 0.5 0 0 0.505 0 0 0.51 0 0 0.515 0 0 0.52 0 0 0.525 0 0 0.53 0 0 0.535 0 0 0.54 0 0 0.545 0 0 0.55 0 0 0.555 0 0 0.56 0 0 0.565 0 0 0.57 0 0 0.575 0 0 0.58 0 0 0.585 0 0 0.59 0 0 0.595 0 0 0.6 0 0 0.605 0 0 0.61 0 0 0.615 0 0 0.62 0 0 0.625 0 0 0.63 0 0 0.635 0 0 0.64 0 0 0.645 0 0 0.65 0 0 0.655 0 0 0.66 0 0 0.665 0 0 0.67 0 0 0.675 0 0 0.68 0 0 0.685 0 0 0.69 0 0 0.695 0 0 0.7 0 0 0.705 0 0 0.71 0 0 0.715 0 0 0.72 0 0 0.725 0 0 0.73 0 0 0.735 0 0 0.74 0 0 0.745 0 0 0.75 0 0 0.755 0 0 0.76 0 0 0.765 0 0 0.77 0 0 0.775 0 0 0.78 0 0 0.785 0 0 0.79 0 0 0.795 0 0 0.8 0 0 0.805 0 0 0.81 0 0 0.815 0 0 0.82 0 0 0.825 0 0 0.83 0 0 0.835 0 0 0.84 0 0 0.845 0 0 0.85 0 0 0.855 0 0 0.86 0 0 0.865 0 0 0.87 0 0 0.875 0 0 0.88 0 0 0.885 0 0 0.89 0 0 0.895 0 0 0.9 0 0 0.905 0 0 0.91 0 0 0.915 0 0 0.92 0 0 0.925 0 0 0.93 0 0 0.935 0 0 0.94 0 0 0.945 0 0 0.95 0 0 0.955 0 0 0.96 0 0 0.965 0 0 0.97 0 0 0.975 0 0 0.98 0 0 0.985 0 0 0.99 0 0 0.995 0 0 1 0 0 0 0.02 0 0.005 0.02 0 0.01 0.02 0 0.015 0.02 0 0.02 0.02 0 0.025 0.02 0 0.03 0.02 0 0.035 0.02 0 0.04 0.02 0 0.045 0.02 0 0.05 0.02 0 0.055 0.02 0 0.06 0.02 0 0.065 0.02 0 0.07 0.02 0 0.075 0.02 0 0.08 0.02 0 0.085 0.02 0 0.09 0.02 0 0.095 0.02 0 0.1 0.02 0 0.105 0.02 0 0.11 0.02 0 0.115 0.02 0 0.12 0.02 0 0.125 0.02 0 0.13 0.02 0 0.135 0.02 0 0.14 0.02 0 0.145 0.02 0 0.15 0.02 0 0.155 0.02 0 0.16 0.02 0 0.165 0.02 0 0.17 0.02 0 0.175 0.02 0 0.18 0.02 0 0.185 0.02 0 0.19 0.02 0 0.195 0.02 0 0.2 0.02 0 0.205 0.02 0 0.21 0.02 0 0.215 0.02 0 0.22 0.02 0 0.225 0.02 0 0.23 0.02 0 0.235 0.02 0 0.24 0.02 0 0.245 0.02 0 0.25 0.02 0 0.255 0.02 0 0.26 0.02 0 0.265 0.02 0 0.27 0.02 0 0.275 0.02 0 0.28 0.02 0 0.285 0.02 0 0.29 0.02 0 0.295 0.02 0 0.3 0.02 0 0.305 0.02 0 0.31 0.02 0 0.315 0.02 0 0.32 0.02 0 0.325 0.02 0 0.33 0.02 0 0.335 0.02 0 0.34 0.02 0 0.345 0.02 0 0.35 0.02 0 0.355 0.02 0 0.36 0.02 0 0.365 0.02 0 0.37 0.02 0 0.375 0.02 0 0.38 0.02 0 0.385 0.02 0 0.39 0.02 0 0.395 0.02 0 0.4 0.02 0 0.405 0.02 0 0.41 0.02 0 0.415 0.02 0 0.42 0.02 0 0.425 0.02 0 0.43 0.02 0 0.435 0.02 0 0.44 0.02 0 0.445 0.02 0 0.45 0.02 0 0.455 0.02 0 0.46 0.02 0 0.465 0.02 0 0.47 0.02 0 0.475 0.02 0 0.48 0.02 0 0.485 0.02 0 0.49 0.02 0 0.495 0.02 0 0.5 0.02 0 0.505 0.02 0 0.51 0.02 0 0.515 0.02 0 0.52 0.02 0 0.525 0.02 0 0.53 0.02 0 0.535 0.02 0 0.54 0.02 0 0.545 0.02 0 0.55 0.02 0 0.555 0.02 0 0.56 0.02 0 0.565 0.02 0 0.57 0.02 0 0.575 0.02 0 0.58 0.02 0 0.585 0.02 0 0.59 0.02 0 0.595 0.02 0 0.6 0.02 0 0.605 0.02 0 0.61 0.02 0 0.615 0.02 0 0.62 0.02 0 0.625 0.02 0 0.63 0.02 0 0.635 0.02 0 0.64 0.02 0 0.645 0.02 0 0.65 0.02 0 0.655 0.02 0 0.66 0.02 0 0.665 0.02 0 0.67 0.02 0 0.675 0.02 0 0.68 0.02 0 0.685 0.02 0 0.69 0.02 0 0.695 0.02 0 0.7 0.02 0 0.705 0.02 0 0.71 0.02 0 0.715 0.02 0 0.72 0.02 0 0.725 0.02 0 0.73 0.02 0 0.735 0.02 0 0.74 0.02 0 0.745 0.02 0 0.75 0.02 0 0.755 0.02 0 0.76 0.02 0 0.765 0.02 0 0.77 0.02 0 0.775 0.02 0 0.78 0.02 0 0.785 0.02 0 0.79 0.02 0 0.795 0.02 0 0.8 0.02 0 0.805 0.02 0 0.81 0.02 0 0.815 0.02 0 0.82 0.02 0 0.825 0.02 0 0.83 0.02 0 0.835 0.02 0 0.84 0.02 0 0.845 0.02 0 0.85 0.02 0 0.855 0.02 0 0.86 0.02 0 0.865 0.02 0 0.87 0.02 0 0.875 0.02 0 0.88 0.02 0 0.885 0.02 0 0.89 0.02 0 0.895 0.02 0 0.9 0.02 0 0.905 0.02 0 0.91 0.02 0 0.915 0.02 0 0.92 0.02 0 0.925 0.02 0 0.93 0.02 0 0.935 0.02 0 0.94 0.02 0 0.945 0.02 0 0.95 0.02 0 0.955 0.02 0 0.96 0.02 0 0.965 0.02 0 0.97 0.02 0 0.975 0.02 0 0.98 0.02 0 0.985 0.02 0 0.99 0.02 0 0.995 0.02 0 1 0.02 0 0 0.04 0 0.005 0.04 0 0.01 0.04 0 0.015 0.04 0 0.02 0.04 0 0.025 0.04 0 0.03 0.04 0 0.035 0.04 0 0.04 0.04 0 0.045 0.04 0 0.05 0.04 0 0.055 0.04 0 0.06 0.04 0 0.065 0.04 0 0.07 0.04 0 0.075 0.04 0 0.08 0.04 0 0.085 0.04 0 0.09 0.04 0 0.095 0.04 0 0.1 0.04 0 0.105 0.04 0 0.11 0.04 0 0.115 0.04 0 0.12 0.04 0 0.125 0.04 0 0.13 0.04 0 0.135 0.04 0 0.14 0.04 0 0.145 0.04 0 0.15 0.04 0 0.155 0.04 0 0.16 0.04 0 0.165 0.04 0 0.17 0.04 0 0.175 0.04 0 0.18 0.04 0 0.185 0.04 0 0.19 0.04 0 0.195 0.04 0 0.2 0.04 0 0.205 0.04 0 0.21 0.04 0 0.215 0.04 0 0.22 0.04 0 0.225 0.04 0 0.23 0.04 0 0.235 0.04 0 0.24 0.04 0 0.245 0.04 0 0.25 0.04 0 0.255 0.04 0 0.26 0.04 0 0.265 0.04 0 0.27 0.04 0 0.275 0.04 0 0.28 0.04 0 0.285 0.04 0 0.29 0.04 0 0.295 0.04 0 0.3 0.04 0 0.305 0.04 0 0.31 0.04 0 0.315 0.04 0 0.32 0.04 0 0.325 0.04 0 0.33 0.04 0 0.335 0.04 0 0.34 0.04 0 0.345 0.04 0 0.35 0.04 0 0.355 0.04 0 0.36 0.04 0 0.365 0.04 0 0.37 0.04 0 0.375 0.04 0 0.38 0.04 0 0.385 0.04 0 0.39 0.04 0 0.395 0.04 0 0.4 0.04 0 0.405 0.04 0 0.41 0.04 0 0.415 0.04 0 0.42 0.04 0 0.425 0.04 0 0.43 0.04 0 0.435 0.04 0 0.44 0.04 0 0.445 0.04 0 0.45 0.04 0 0.455 0.04 0 0.46 0.04 0 0.465 0.04 0 0.47 0.04 0 0.475 0.04 0 0.48 0.04 0 0.485 0.04 0 0.49 0.04 0 0.495 0.04 0 0.5 0.04 0 0.505 0.04 0 0.51 0.04 0 0.515 0.04 0 0.52 0.04 0 0.525 0.04 0 0.53 0.04 0 0.535 0.04 0 0.54 0.04 0 0.545 0.04 0 0.55 0.04 0 0.555 0.04 0 0.56 0.04 0 0.565 0.04 0 0.57 0.04 0 0.575 0.04 0 0.58 0.04 0 0.585 0.04 0 0.59 0.04 0 0.595 0.04 0 0.6 0.04 0 0.605 0.04 0 0.61 0.04 0 0.615 0.04 0 0.62 0.04 0 0.625 0.04 0 0.63 0.04 0 0.635 0.04 0 0.64 0.04 0 0.645 0.04 0 0.65 0.04 0 0.655 0.04 0 0.66 0.04 0 0.665 0.04 0 0.67 0.04 0 0.675 0.04 0 0.68 0.04 0 0.685 0.04 0 0.69 0.04 0 0.695 0.04 0 0.7 0.04 0 0.705 0.04 0 0.71 0.04 0 0.715 0.04 0 0.72 0.04 0 0.725 0.04 0 0.73 0.04 0 0.735 0.04 0 0.74 0.04 0 0.745 0.04 0 0.75 0.04 0 0.755 0.04 0 0.76 0.04 0 0.765 0.04 0 0.77 0.04 0 0.775 0.04 0 0.78 0.04 0 0.785 0.04 0 0.79 0.04 0 0.795 0.04 0 0.8 0.04 0 0.805 0.04 0 0.81 0.04 0 0.815 0.04 0 0.82 0.04 0 0.825 0.04 0 0.83 0.04 0 0.835 0.04 0 0.84 0.04 0 0.845 0.04 0 0.85 0.04 0 0.855 0.04 0 0.86 0.04 0 0.865 0.04 0 0.87 0.04 0 0.875 0.04 0 0.88 0.04 0 0.885 0.04 0 0.89 0.04 0 0.895 0.04 0 0.9 0.04 0 0.905 0.04 0 0.91 0.04 0 0.915 0.04 0 0.92 0.04 0 0.925 0.04 0 0.93 0.04 0 0.935 0.04 0 0.94 0.04 0 0.945 0.04 0 0.95 0.04 0 0.955 0.04 0 0.96 0.04 0 0.965 0.04 0 0.97 0.04 0 0.975 0.04 0 0.98 0.04 0 0.985 0.04 0 0.99 0.04 0 0.995 0.04 0 1 0.04 0 0 0.06 0 0.005 0.06 0 0.01 0.06 0 0.015 0.06 0 0.02 0.06 0 0.025 0.06 0 0.03 0.06 0 0.035 0.06 0 0.04 0.06 0 0.045 0.06 0 0.05 0.06 0 0.055 0.06 0 0.06 0.06 0 0.065 0.06 0 0.07 0.06 0 0.075 0.06 0 0.08 0.06 0 0.085 0.06 0 0.09 0.06 0 0.095 0.06 0 0.1 0.06 0 0.105 0.06 0 0.11 0.06 0 0.115 0.06 0 0.12 0.06 0 0.125 0.06 0 0.13 0.06 0 0.135 0.06 0 0.14 0.06 0 0.145 0.06 0 0.15 0.06 0 0.155 0.06 0 0.16 0.06 0 0.165 0.06 0 0.17 0.06 0 0.175 0.06 0 0.18 0.06 0 0.185 0.06 0 0.19 0.06 0 0.195 0.06 0 0.2 0.06 0 0.205 0.06 0 0.21 0.06 0 0.215 0.06 0 0.22 0.06 0 0.225 0.06 0 0.23 0.06 0 0.235 0.06 0 0.24 0.06 0 0.245 0.06 0 0.25 0.06 0 0.255 0.06 0 0.26 0.06 0 0.265 0.06 0 0.27 0.06 0 0.275 0.06 0 0.28 0.06 0 0.285 0.06 0 0.29 0.06 0 0.295 0.06 0 0.3 0.06 0 0.305 0.06 0 0.31 0.06 0 0.315 0.06 0 0.32 0.06 0 0.325 0.06 0 0.33 0.06 0 0.335 0.06 0 0.34 0.06 0 0.345 0.06 0 0.35 0.06 0 0.355 0.06 0 0.36 0.06 0 0.365 0.06 0 0.37 0.06 0 0.375 0.06 0 0.38 0.06 0 0.385 0.06 0 0.39 0.06 0 0.395 0.06 0 0.4 0.06 0 0.405 0.06 0 0.41 0.06 0 0.415 0.06 0 0.42 0.06 0 0.425 0.06 0 0.43 0.06 0 0.435 0.06 0 0.44 0.06 0 0.445 0.06 0 0.45 0.06 0 0.455 0.06 0 0.46 0.06 0 0.465 0.06 0 0.47 0.06 0 0.475 0.06 0 0.48 0.06 0 0.485 0.06 0 0.49 0.06 0 0.495 0.06 0 0.5 0.06 0 0.505 0.06 0 0.51 0.06 0 0.515 0.06 0 0.52 0.06 0 0.525 0.06 0 0.53 0.06 0 0.535 0.06 0 0.54 0.06 0 0.545 0.06 0 0.55 0.06 0 0.555 0.06 0 0.56 0.06 0 0.565 0.06 0 0.57 0.06 0 0.575 0.06 0 0.58 0.06 0 0.585 0.06 0 0.59 0.06 0 0.595 0.06 0 0.6 0.06 0 0.605 0.06 0 0.61 0.06 0 0.615 0.06 0 0.62 0.06 0 0.625 0.06 0 0.63 0.06 0 0.635 0.06 0 0.64 0.06 0 0.645 0.06 0 0.65 0.06 0 0.655 0.06 0 0.66 0.06 0 0.665 0.06 0 0.67 0.06 0 0.675 0.06 0 0.68 0.06 0 0.685 0.06 0 0.69 0.06 0 0.695 0.06 0 0.7 0.06 0 0.705 0.06 0 0.71 0.06 0 0.715 0.06 0 0.72 0.06 0 0.725 0.06 0 0.73 0.06 0 0.735 0.06 0 0.74 0.06 0 0.745 0.06 0 0.75 0.06 0 0.755 0.06 0 0.76 0.06 0 0.765 0.06 0 0.77 0.06 0 0.775 0.06 0 0.78 0.06 0 0.785 0.06 0 0.79 0.06 0 0.795 0.06 0 0.8 0.06 0 0.805 0.06 0 0.81 0.06 0 0.815 0.06 0 0.82 0.06 0 0.825 0.06 0 0.83 0.06 0 0.835 0.06 0 0.84 0.06 0 0.845 0.06 0 0.85 0.06 0 0.855 0.06 0 0.86 0.06 0 0.865 0.06 0 0.87 0.06 0 0.875 0.06 0 0.88 0.06 0 0.885 0.06 0 0.89 0.06 0 0.895 0.06 0 0.9 0.06 0 0.905 0.06 0 0.91 0.06 0 0.915 0.06 0 0.92 0.06 0 0.925 0.06 0 0.93 0.06 0 0.935 0.06 0 0.94 0.06 0 0.945 0.06 0 0.95 0.06 0 0.955 0.06 0 0.96 0.06 0 0.965 0.06 0 0.97 0.06 0 0.975 0.06 0 0.98 0.06 0 0.985 0.06 0 0.99 0.06 0 0.995 0.06 0 1 0.06 0 0 0.08 0 0.005 0.08 0 0.01 0.08 0 0.015 0.08 0 0.02 0.08 0 0.025 0.08 0 0.03 0.08 0 0.035 0.08 0 0.04 0.08 0 0.045 0.08 0 0.05 0.08 0 0.055 0.08 0 0.06 0.08 0 0.065 0.08 0 0.07 0.08 0 0.075 0.08 0 0.08 0.08 0 0.085 0.08 0 0.09 0.08 0 0.095 0.08 0 0.1 0.08 0 0.105 0.08 0 0.11 0.08 0 0.115 0.08 0 0.12 0.08 0 0.125 0.08 0 0.13 0.08 0 0.135 0.08 0 0.14 0.08 0 0.145 0.08 0 0.15 0.08 0 0.155 0.08 0 0.16 0.08 0 0.165 0.08 0
[...]
			<PointData Scalars="VitesseX">
				<DataArray Name="VitesseX" type="Float32" format="ascii">
 0 4.99001e-17 1.84888e-14 9.30543e-15 -2.35693e-14 3.07848e-14 1.897e-14 -2.58096e-14 -1.98966e-14 -6.62131e-14 1.56589e-14 -3.06662e-14 1.02493e-13 -1.07704e-13 2.02137e-14 -2.0931e-14 -1.27283e-13 -4.42771e-14 -8.14e-14 -3.95807e-14 -7.01764e-14 -1.58356e-14 -2.65608e-13 -5.30577e-14 9.01257e-14 -1.4608e-13 -1.46591e-13 -1.76512e-13 5.9396e-14 -1.51107e-13 -9.70847e-14 6.03388e-16 -8.08231e-14 -1.22033e-13 9.26746e-14 -2.25132e-13 -1.4129e-13 -1.99478e-13 -4.24791e-14 -1.41494e-13 -1.27101e-13 -1.44625e-13 7.19617e-14 2.22307e-13 -5.92628e-14 -4.05123e-14 -1.09316e-14 -9.90391e-14 4.26879e-14 -7.69685e-14 -1.32469e-13 -3.10088e-13 -3.54782e-13 1.89036e-13 2.26914e-13 -1.47879e-13 -2.83866e-13 -3.67579e-14 -1.59235e-14 -1.28133e-13 3.54417e-14 -3.20333e-13 -6.8196e-14 -1.60155e-13 -3.07859e-13 1.92569e-13 8.26212e-13 7.98432e-12 7.56286e-11 6.92313e-10 5.8864e-09 4.59413e-08 3.27659e-07 2.12311e-06 1.24125e-05 6.49345e-05 0.000300871 0.00121902 0.00425058 0.0125199 0.0306016 0.0615558 0.103208 0.149691 0.196835 0.243487 0.28955 0.33501 0.379845 0.424023 0.467491 0.510178 0.551984 0.592778 0.632393 0.670621 0.70721 0.741865 0.77425 0.804004 0.830768 0.854224 0.87414 0.890428 0.903178 0.912669 0.919341 0.923732 0.926403 0.927868 0.928544 0.928743 0.928705 0.928571 0.928375 0.928133 0.927839 0.927452 0.92687 0.925893 0.92415 0.920988 0.915325 0.905462 0.888903 0.862274 0.821495 0.762376 0.681806 0.579519 0.460072 0.333968 0.21629 0.121939 0.0590367 0.0249166 0.00956219 0.00347854 0.00122896 0.000426045 0.000145438 4.89277e-05 1.62191e-05 5.29544e-06 1.70202e-06 5.38291e-07 1.67447e-07 5.12158e-08 1.53971e-08 4.54897e-09 1.32097e-09 3.75985e-10 1.05566e-10 2.79134e-11 7.97335e-12 1.49123e-12 6.50662e-13 -1.58327e-13 1.09693e-13 -2.94131e-14 -2.86315e-13 -1.17035e-14 -4.79809e-13 -1.12714e-13 1.74917e-13 3.88382e-13 -5.04746e-13 -1.91604e-13 -2.7271e-13 7.55613e-13 -3.91714e-13 -1.02107e-13 -1.14276e-13 -1.05547e-12 1.54443e-13 -2.86518e-13 -4.2719e-13 3.05026e-13 -1.81113e-13 4.52355e-13 -4.94947e-13 3.65999e-13 2.12749e-13 -6.68968e-13 2.25044e-13 -5.64477e-13 -2.63016e-13 6.12142e-13 -6.10839e-13 -1.56578e-13 -6.63398e-13 -9.85934e-13 1.24489e-12 -4.47717e-13 -5.00287e-13 -1.92411e-13 2.86325e-13 7.97852e-13 -2.67904e-13 2.01328e-13 0 0 2.22006e-14 1.54101e-14 1.06906e-14 2.10732e-14 9.7007e-16 -1.51272e-14 -1.53077e-14 -1.82074e-14 -1.52449e-14 -6.60288e-14 1.57247e-14 -5.34329e-14 6.382e-14 -7.13272e-14 -2.86775e-14 3.15367e-14 -1.23179e-13 -5.64109e-14 -4.42378e-14 -1.01672e-13 -4.36196e-14 8.36152e-14 -1.42271e-13 -2.33437e-13 -5.54393e-14 -4.10657e-14 -3.5406e-14 -2.44053e-13 -2.88636e-14 1.04566e-14 -1.04571e-13 -3.20382e-14 -1.17942e-13 -2.07149e-13 -6.04987e-14 -5.76516e-14 -9.22723e-14 -1.80138e-13 -1.0245e-13 -9.56587e-14 7.70391e-14 -4.32043e-16 -2.30982e-13 7.01781e-14 8.29791e-14 -5.54372e-14 2.93029e-14 -1.91826e-13 -1.80194e-13 -2.03761e-13 -6.23904e-14 1.65879e-13 -3.62856e-13 -1.44933e-13 1.67177e-13 -3.30531e-14 -1.47913e-13 -1.05041e-13 -7.5355e-14 -1.51038e-13 1.12966e-13 -1.38362e-13 -2.89992e-13 3.83009e-15 1.37089e-13 8.41631e-13 7.54596e-12 7.52813e-11 6.93164e-10 5.88623e-09 4.59411e-08 3.27658e-07 2.12311e-06 1.24125e-05 6.49345e-05 0.000300871 0.00121902 0.00425058 0.0125199 0.0306016 0.0615558 0.103208 0.149691 0.196835 0.243487 0.28955 0.33501 0.379845 0.424023 0.467491 0.510178 0.551984 0.592778 0.632393 0.670621 0.70721 0.741865 0.77425 0.804004 0.830768 0.854224 0.87414 0.890428 0.903178 0.912669 0.919341 0.923732 0.926403 0.927868 0.928544 0.928743 0.928705 0.928571 0.928375 0.928133 0.927839 0.927452 0.92687 0.925893 0.92415 0.920988 0.915325 0.905462 0.888903 0.862274 0.821495 0.762376 0.681806 0.579519 0.460072 0.333968 0.21629 0.121939 0.0590367 0.0249166 0.00956219 0.00347854 0.00122896 0.000426045 0.000145438 4.89277e-05 1.62191e-05 5.29544e-06 1.70202e-06 5.3829e-07 1.67447e-07 5.12144e-08 1.53978e-08 4.54919e-09 1.32003e-09 3.76743e-10 1.04696e-10 2.91911e-11 7.21922e-12 2.07263e-12 -1.92617e-13 -7.26253e-15 1.42984e-13 -1.83794e-13 2.65854e-13 -5.92206e-13 2.76636e-13 -1.71337e-13 -1.87513e-13 -2.48471e-13 -1.79956e-14 -8.60103e-14 2.61548e-13 -7.19762e-13 2.36535e-13 -6.11755e-13 -3.30659e-13 2.10256e-13 -6.50951e-13 9.09727e-14 -1.15916e-13 -1.4296e-13 2.10019e-13 -2.36428e-13 4.4926e-13 -4.20996e-13 5.42215e-14 2.44062e-13 -3.93982e-13 1.40364e-13 -2.68795e-13 -2.71429e-13 2.62797e-13 -6.19215e-13 -1.58307e-13 -5.45204e-14 -7.88253e-13 3.57838e-13 7.95122e-15 1.56765e-13 7.98947e-14 -4.76228e-13 1.01922e-12 4.11967e-13 0 0 -5.0992e-15 -3.5912e-15 2.22414e-14 8.3622e-15 1.96381e-14 -9.66724e-15 -1.84931e-14 -6.66944e-15 -1.0758e-14 -1.02897e-15 -6.23753e-14 -1.5719e-14 -1.52256e-14 -1.5783e-14 -2.27832e-14 -8.82248e-14 -1.411e-14 9.2441e-15 -9.15813e-14 -1.63048e-14 1.29917e-14 -8.96935e-14 -4.61488e-14 -6.54407e-14 -8.274e-14 -8.0974e-14 -1.66204e-14 -2.19981e-13 -1.06817e-13 -3.9768e-14 4.26835e-14 -1.88968e-13 -9.23752e-14 -6.25569e-14 -1.74781e-13 -1.31709e-13 -5.51827e-14 -5.84388e-14 -9.48695e-14 -2.72884e-14 -1.04735e-13 -5.259e-14 8.26493e-14 -1.29767e-13 -8.95585e-14 3.24635e-14 -4.51483e-14 -1.58638e-13 -8.14745e-14 -1.8426e-13 -1.25953e-13 -1.11993e-13 -7.25936e-14 -5.19806e-14 -2.26952e-13 9.283e-14 -8.7395e-14 6.67024e-14 -3.70764e-14 -6.71516e-15 -1.59505e-13 -3.44131e-14 6.45785e-14 -8.51363e-14 -7.47113e-14 7.28866e-13 7.66872e-12 7.54507e-11 6.9297e-10 5.88635e-09 4.59412e-08 3.27658e-07 2.12311e-06 1.24125e-05 6.49345e-05 0.000300871 0.00121902 0.00425058 0.0125199 0.0306016 0.0615558 0.103208 0.149691 0.196835 0.243487 0.28955 0.33501 0.379845 0.424023 0.467491 0.510178 0.551984 0.592778 0.632393 0.670621 0.70721 0.741865 0.77425 0.804004 0.830768 0.854224 0.87414 0.890428 0.903178 0.912669 0.919341 0.923732 0.926403 0.927868 0.928544 0.928743 0.928705 0.928571 0.928375 0.928133 0.927839 0.927452 0.92687 0.925893 0.92415 0.920988 0.915325 0.905462 0.888903 0.862274 0.821495 0.762376 0.681806 0.579519 0.460072 0.333968 0.21629 0.121939 0.0590367 0.0249166 0.00956219 0.00347854 0.00122896 0.000426045 0.000145438 4.89277e-05 1.62191e-05 5.29544e-06 1.70202e-06 5.38291e-07 1.67447e-07 5.12151e-08 1.53973e-08 4.54903e-09 1.3204e-09 3.75979e-10 1.05499e-10 2.87867e-11 7.82056e-12 1.52481e-12 1.56048e-13 -7.22706e-14 2.49675e-13 3.61373e-14 -4.64579e-13 1.558e-13 -1.08832e-13 -1.06203e-13 -4.09932e-13 -2.01265e-13 -2.83802e-13 -8.19323e-14 -2.12423e-13 -1.51683e-13 -3.31897e-13 -2.95191e-13 -3.18051e-13 1.16848e-14 -1.42478e-13 -3.25379e-13 -6.28635e-14 -1.30333e-13 -6.64919e-14 2.49298e-13 -2.61967e-14 2.02487e-13 5.02521e-14 -4.59881e-13 5.7488e-13 -9.24997e-14 1.9787e-13 -2.42249e-13 -8.86757e-13 -1.16114e-13 3.33638e-13 -7.03887e-13 3.28863e-13 -5.4214e-13 6.09646e-13 3.06011e-13 7.98354e-14 2.97039e-13 -5.54562e-13 2.37805e-13 0 0 -1.28189e-14 -1.61121e-14 -1.97789e-14 -3.66409e-14 1.72039e-14 -2.22831e-15 -1.50217e-14 -1.52916e-15 9.51589e-15 -9.31914e-15 1.45712e-14 1.71677e-14 -5.77814e-14 3.09891e-14 -6.00792e-14 -4.40562e-14 -8.64497e-14 -8.56805e-14 2.16652e-14 7.07913e-15 -3.82856e-14 -1.81826e-14 -2.5449e-14 1.69932e-14 -6.56646e-14 -5.78114e-14 -1.30125e-13 5.8673e-14 -1.89034e-13 -1.54351e-13 -7.43187e-14 -1.63791e-13 -8.36751e-14 -4.69563e-14 -1.4931e-13 -6.45086e-14 -7.30772e-14 -4.74358e-14 1.28164e-14 -1.80995e-13 -4.64143e-14 6.0539e-14 6.41091e-14 -3.09669e-14 8.88045e-15 -1.49683e-13 -2.06041e-13 1.55946e-13 -2.11027e-13 -8.26859e-14 -2.96893e-13 -3.01914e-13 1.22526e-13 -8.35224e-14 -1.19745e-13 2.9106e-14 -7.6315e-14 4.00316e-14 1.25566e-13 7.44004e-14 -1.14381e-13 -3.70604e-13 -1.52501e-13 -1.54736e-13 1.22944e-13 9.42348e-13 7.76235e-12 7.55117e-11 6.92805e-10 5.88664e-09 4.59412e-08 3.27658e-07 2.12311e-06 1.24125e-05 6.49345e-05 0.000300871 0.00121902 0.00425058 0.0125199 0.0306016 0.0615558 0.103208 0.149691 0.196835 0.243487 0.28955 0.33501 0.379845 0.424023 0.467491 0.510178 0.551984 0.592778 0.632393 0.670621 0.70721 0.741865 0.77425 0.804004 0.830768 0.854224 0.87414 0.890428 0.903178 0.912669 0.919341 0.923732 0.926403 0.927868 0.928544 0.928743 0.928705 0.928571 0.928375 0.928133 0.927839 0.927452 0.92687 0.925893 0.92415 0.920988 0.915325 0.905462 0.888903 0.862274 0.821495 0.762376 0.681806 0.579519 0.460072 0.333968 0.21629 0.121939 0.0590367 0.0249166 0.00956219 0.00347854 0.00122896 0.000426045 0.000145438 4.89277e-05 1.62191e-05 5.29544e-06 1.70202e-06 5.3829e-07 1.67447e-07 5.12152e-08 1.53971e-08 4.54906e-09 1.32047e-09 3.76354e-10 1.05486e-10 2.8346e-11 7.95875e-12 2.06872e-12 3.85714e-13 -6.05825e-14 -2.33101e-13 -5.96931e-14 1.51503e-13 4.7693e-13 -5.15235e-13 -4.54653e-13 -2.07061e-13 1.15902e-13 -1.22873e-13 2.28815e-13 -2.17229e-13 -1.73134e-13 -2.97399e-13 -2.56793e-13 -2.15072e-13 -6.66967e-13 2.28232e-13 -2.80443e-13 -7.78319e-13 2.08863e-13 -1.92844e-13 2.93374e-13 -1.83151e-13 2.43266e-13 -2.36241e-13 1.0904e-13 -1.70802e-13 1.30153e-13 -2.39502e-13 -2.5697e-13 -1.75406e-13 -5.18636e-13 -1.33406e-13 -1.87695e-13 1.84733e-13 -7.92972e-13 4.53515e-13 -2.07228e-13 -2.31493e-13 7.07455e-13 -7.71652e-13 -2.23875e-13 0 0 -1.81994e-15 -2.4136e-14 -4.71874e-14 -2.12116e-14 -4.40548e-14 -1.95449e-14 1.38017e-14 1.83023e-14 8.57548e-16 -6.46496e-14 3.99183e-14 -6.4613e-14 6.17051e-14 -2.81892e-14 -1.12465e-14 9.38776e-14 -1.09011e-13 -1.03639e-14 2.83119e-14 -8.78457e-14 1.02338e-14 1.3477e-13 -7.98704e-14 -2.08188e-13 -3.37702e-14 -1.04292e-13 -1.09392e-13 -1.36667e-13 -3.09751e-14 -6.65723e-14 -1.87281e-13 4.39761e-15 -5.07694e-14 -1.72527e-13 1.00759e-13 -1.58149e-13 1.82315e-14 -1.64234e-13 -7.26316e-14 -1.7387e-13 6.63247e-14 6.45137e-14 -9.17729e-14 1.05482e-13 1.69246e-13 -1.07345e-13 -1.40966e-13 -3.44182e-14 -2.17183e-13 -4.86927e-14 -1.15907e-13 -6.11955e-14 -2.92165e-13 -1.2595e-13 2.94921e-13 8.26472e-14 -1.88205e-13 -2.81992e-14 -7.17316e-15 -1.51697e-13 -9.29471e-14 -4.03633e-13 -4.33201e-13 5.29148e-14 3.29865e-13 1.0483e-12 7.62789e-12 7.55066e-11 6.93095e-10 5.88652e-09 4.59411e-08 3.27658e-07 2.12311e-06 1.24125e-05 6.49345e-05 0.000300871 0.00121902 0.00425058 0.0125199 0.0306016 0.0615558 0.103208 0.149691 0.196835 0.243487 0.28955 0.33501 0.379845 0.424023 0.467491 0.510178 0.551984 0.592778 0.632393 0.670621 0.70721 0.741865 0.77425 0.804004 0.830768 0.854224 0.87414 0.890428 0.903178 0.912669 0.919341 0.923732 0.926403 0.927868 0.928544 0.928743 0.928705 0.928571 0.928375 0.928133 0.927839 0.927452 0.92687 0.925893 0.92415 0.920988 0.915325 0.905462 0.888903 0.862274 0.821495 0.762376 0.681806 0.579519 0.460072 0.333968 0.21629 0.121939 0.0590367 0.0249166 0.00956219 0.00347854 0.00122896 0.000426045 0.000145438 4.89277e-05 1.62191e-05 5.29544e-06 1.70202e-06 5.3829e-07 1.67447e-07 5.12145e-08 1.53979e-08 4.54907e-09 1.32005e-09 3.76847e-10 1.0476e-10 2.91186e-11 7.2927e-12 2.49316e-12 3.36675e-13 -7.04788e-14 2.14477e-13 2.48146e-13 5.28073e-13 -3.64478e-13 3.89725e-13 -5.83334e-13 -5.6194e-14 -2.56142e-13 2.45847e-13 1.98121e-13 2.54344e-13 -7.85094e-13 2.29542e-13 -3.81617e-13 -3.75605e-13 -2.18327e-13 -7.55467e-13 1.54971e-13 -7.99239e-13 -2.02781e-13 1.22666e-13 -4.26068e-13 3.50154e-13 -6.56843e-13 -4.54616e-13 6.29264e-13 -5.85909e-13 6.29096e-13 -2.28764e-13 -6.96617e-13 4.90681e-13 -6.06422e-13 -3.5252e-13 3.72715e-13 -1.15406e-12 4.91223e-13 2.09465e-13 -2.01113e-14 3.76489e-14 -5.64042e-13 8.8662e-13 -2.80316e-13 0 0 -3.25516e-14 -3.55616e-14 -2.241e-14 -1.81326e-14 -5.43966e-14 -4.74336e-15 2.54664e-14 4.28421e-14 -7.4556e-14 3.49978e-14 -1.36172e-13 1.43593e-14 -2.68215e-14 1.29455e-14 8.8523e-14 -9.09381e-14 1.28737e-13 2.00543e-13 -1.20974e-13 -8.92906e-14 1.94426e-13 -3.0632e-13 3.03439e-14 -2.42456e-14 -1.36893e-13 -3.19369e-13 -9.74745e-14 -2.83141e-13 9.10293e-15 -2.1976e-14 6.91885e-14 -5.83047e-14 -5.08947e-15 1.30717e-13 4.64416e-14 -4.76686e-13 5.73187e-14 -3.26769e-14 -2.97229e-13 2.38907e-14 -2.82696e-13 -2.44048e-14 5.37806e-13 -1.86255e-13 -6.48563e-14 2.49545e-13 -1.17791e-13 -2.71665e-13 1.08159e-13 -2.54814e-14 -7.5241e-14 -4.29091e-13 -5.98201e-14 3.27965e-13 -1.06803e-13 7.49822e-14 -1.39502e-13 1.91102e-13 -3.17055e-13 -1.28107e-13 -8.22408e-13 7.36436e-14 -1.24142e-14 -7.0489e-14 1.82811e-13 8.12588e-13 7.96091e-12 7.59572e-11 6.92508e-10 5.88639e-09 4.59412e-08 3.27658e-07 2.12311e-06 1.24125e-05 6.49345e-05 0.000300871 0.00121902 0.00425058 0.0125199 0.0306016 0.0615558 0.103208 0.149691 0.196835 0.243487 0.28955 0.33501 0.379845 0.424023 0.467491 0.510178 0.551984 0.592778 0.632393 0.670621 0.70721 0.741865 0.77425 0.804004 0.830768 0.854224 0.87414 0.890428 0.903178 0.912669 0.919341 0.923732 0.926403 0.927868 0.928544 0.928743 0.928705 0.928571 0.928375 0.928133 0.927839 0.927452 0.92687 0.925893 0.92415 0.920988 0.915325 0.905462 0.888903 0.862274 0.821495 0.762376 0.681806 0.579519 0.460072 0.333968 0.21629 0.121939 0.0590367 0.0249166 0.00956219 0.00347854 0.00122896 0.000426045 0.000145438 4.89277e-05 1.62191e-05 5.29544e-06 1.70202e-06 5.3829e-07 1.67446e-07 5.12159e-08 1.53975e-08 4.54867e-09 1.32086e-09 3.75444e-10 1.05721e-10 2.86496e-11 7.84391e-12 1.24445e-12 1.24991e-12 -3.08136e-13 1.21823e-12 1.02613e-12 -9.94042e-13 -1.98508e-13 5.59174e-13 -2.39808e-13 3.18136e-14 -2.61294e-13 -2.98919e-13 -2.44837e-13 -2.77506e-13 6.67851e-13 -4.74694e-13 2.81373e-13 -4.10127e-13 -5.55333e-13 -7.96009e-13 -2.48393e-13 -3.62925e-13 -4.93008e-13 -1.03115e-13 -1.50798e-14 -3.79249e-13 -1.87253e-13 -2.31941e-13 -1.03641e-12 1.33255e-12 -3.23186e-14 6.9179e-13 -2.08791e-13 -1.57777e-12 6.74054e-13 -1.17734e-13 -1.16385e-12 8.01535e-13 3.20718e-13 2.15001e-13 4.80314e-13 8.2449e-13 -1.98606e-13 -9.89197e-14 -2.59878e-13 0
				</DataArray>
				<DataArray Name="VitesseY" type="Float32" format="ascii">