<?xml version="1.0"?>
<VTKFile type="PolyData">
	<PolyData>
		<Piece NumberOfPoints="1206" NumberOfPolys="1000">
			<Points>
				<DataArray type="Float32" NumberOfComponents="3" format="ascii">
 0 0 0 0.005 0 0 0.01 0 0 0.015 0 0 0.02 0 0 0.025 0 0 0.03 0 0 0.035 0 0 0.04 0 0 0.045 0 0 0.05 0 0 0.055 0 0 0.06 0 0 0.065 0 0 0.07 0 0 0.075 0 0 0.08 0 0 0.085 0 0 0.09 0 0 0.095 0 0 0.1 0 0 0.105 0 0 0.11 0 0 0.115 0 0 0.12 0 0 0.125 0 0 0.13 0 0 0.135 0 0 0.14 0 0 0.145 0 0 0.15 0 0 0.155 0 0 0.16 0 0 0.165 0 0 0.17 0 0 0.175 0 0 0.18 0 0 0.185 0 0 0.19 0 0 0.195 0 0 0.2 0 0 0.205 0 0 0.21 0 0 0.215 0 0 0.22 0 0 0.225 0 0 0.23 0 0 0.235 0 0 0.24 0 0 0.245 0 0 0.25 0 0 0.255 0 0 0.26 0 0 0.265 0 0 0.27 0 0 0.275 0 0 0.28 0 0 0.285 0 0 0.29 0 0 0.295 0 0 0.3 0 0 0.305 0 0 0.31 0 0 0.315 0 0 0.32 0 0 0.325 0 0 0.33 0 0 0.335 0 0 0.34 0 0 0.345 0 0 0.35 0 0 0.355 0 0 0.36 0 0 0.365 0 0 0.37 0 0 0.375 0 0 0.38 0 0 0.385 0 0 0.39 0 0 0.395 0 0 0.4 0 0 0.405 0 0 0.41 0 0 0.415 0 0 0.42 0 0 0.425 0 0 0.43 0 0 0.435 0 0 0.44 0 0 0.445 0 0 0.45 0 0 0.455 0 0 0.46 0 0 0.465 0 0 0.47 0 0 0.475 0 0 0.48 0 0 0.485 0 0 0.49 0 0 0.495 0 0 0.5 0 0 0.505 0 0 0.51 0 0 0.515 0 0 0.52 0 0 0.525 0 0 0.53 0 0 0.535 0 0 0.54 0 0 0.545 0 0 0.55 0 0 0.555 0 0 0.56 0 0 0.565 0 0 0.57 0 0 0.575 0 0 0.58 0 0 0.585 0 0 0.59 0 0 0.595 0 0 0.6 0 0 0.605 0 0 0.61 0 0 0.615 0 0 0.62 0 0 0.625 0 0 0.63 0 0 0.635 0 0 0.64 0 0 0.645 0 0 0.65 0 0 0.655 0 0 0.66 0 0 0.665 0 0 0.67 0 0 0.675 0 0 0.68 0 0 0.685 0 0 0.69 0 0 0.695 0 0 0.7 0 0 0.705 0 0 0.71 0 0 0.715 0 0 0.72 0 0 0.725 0 0 0.73 0 0 0.735 0 0 0.74 0 0 0.745 0 0 0.75 0 0 0.755 0 0 0.76 0 0 0.765 0 0 0.77 0 0 0.775 0 0 0.78 0 0 0.785 0 0 0.79 0 0 0.795 0 0 0.8 0 0 0.805 0 0 0.81 0 0 0.815 0 0 0.82 0 0 0.825 0 0 0.83 0 0 0.835 0 0 0.84 0 0 0.845 0 0 0.85 0 0 0.855 0 0 0.86 0 0 0.865 0 0 0.87 0 0 0.875 0 0 0.88 0 0 0.885 0 0 0.89 0 0 0.895 0 0 0.9 0 0 0.905 0 0 0.91 0 0 0.915 0 0 0.92 0 0 0.925 0 0 0.93 0 0 0.935 0 0 0.94 0 0 0.945 0 0 0.95 0 0 0.955 0 0 0.96 0 0 0.965 0 0 0.97 0 0 0.975 0 0 0.98 0 0 0.985 0 0 0.99 0 0 0.995 0 0 1 0 0 0 0.02 0 0.005 0.02 0 0.01 0.02 0 0.015 0.02 0 0.02 0.02 0 0.025 0.02 0 0.03 0.02 0 0.035 0.02 0 0.04 0.02 0 0.045 0.02 0 0.05 0.02 0 0.055 0.02 0 0.06 0.02 0 0.065 0.02 0 0.07 0.02 0 0.075 0.02 0 0.08 0.02 0 0.085 0.02 0 0.09 0.02 0 0.095 0.02 0 0.1 0.02 0 0.105 0.02 0 0.11 0.02 0 0.115 0.02 0 0.12 0.02 0 0.125 0.02 0 0.13 0.02 0 0.135 0.02 0 0.14 0.02 0 0.145 0.02 0 0.15 0.02 0 0.155 0.02 0 0.16 0.02 0 0.165 0.02 0 0.17 0.02 0 0.175 0.02 0 0.18 0.02 0 0.185 0.02 0 0.19 0.02 0 0.195 0.02 0 0.2 0.02 0 0.205 0.02 0 0.21 0.02 0 0.215 0.02 0 0.22 0.02 0 0.225 0.02 0 0.23 0.02 0 0.235 0.02 0 0.24 0.02 0 0.245 0.02 0 0.25 0.02 0 0.255 0.02 0 0.26 0.02 0 0.265 0.02 0 0.27 0.02 0 0.275 0.02 0 0.28 0.02 0 0.285 0.02 0 0.29 0.02 0 0.295 0.02 0 0.3 0.02 0 0.305 0.02 0 0.31 0.02 0 0.315 0.02 0 0.32 0.02 0 0.325 0.02 0 0.33 0.02 0 0.335 0.02 0 0.34 0.02 0 0.345 0.02 0 0.35 0.02 0 0.355 0.02 0 0.36 0.02 0 0.365 0.02 0 0.37 0.02 0 0.375 0.02 0 0.38 0.02 0 0.385 0.02 0 0.39 0.02 0 0.395 0.02 0 0.4 0.02 0 0.405 0.02 0 0.41 0.02 0 0.415 0.02 0 0.42 0.02 0 0.425 0.02 0 0.43 0.02 0 0.435 0.02 0 0.44 0.02 0 0.445 0.02 0 0.45 0.02 0 0.455 0.02 0 0.46 0.02 0 0.465 0.02 0 0.47 0.02 0 0.475 0.02 0 0.48 0.02 0 0.485 0.02 0 0.49 0.02 0 0.495 0.02 0 0.5 0.02 0 0.505 0.02 0 0.51 0.02 0 0.515 0.02 0 0.52 0.02 0 0.525 0.02 0 0.53 0.02 0 0.535 0.02 0 0.54 0.02 0 0.545 0.02 0 0.55 0.02 0 0.555 0.02 0 0.56 0.02 0 0.565 0.02 0 0.57 0.02 0 0.575 0.02 0 0.58 0.02 0 0.585 0.02 0 0.59 0.02 0 0.595 0.02 0 0.6 0.02 0 0.605 0.02 0 0.61 0.02 0 0.615 0.02 0 0.62 0.02 0 0.625 0.02 0 0.63 0.02 0 0.635 0.02 0 0.64 0.02 0 0.645 0.02 0 0.65 0.02 0 0.655 0.02 0 0.66 0.02 0 0.665 0.02 0 0.67 0.02 0 0.675 0.02 0 0.68 0.02 0 0.685 0.02 0 0.69 0.02 0 0.695 0.02 0 0.7 0.02 0 0.705 0.02 0 0.71 0.02 0 0.715 0.02 0 0.72 0.02 0 0.725 0.02 0 0.73 0.02 0 0.735 0.02 0 0.74 0.02 0 0.745 0.02 0 0.75 0.02 0 0.755 0.02 0 0.76 0.02 0 0.765 0.02 0 0.77 0.02 0 0.775 0.02 0 0.78 0.02 0 0.785 0.02 0 0.79 0.02 0 0.795 0.02 0 0.8 0.02 0 0.805 0.02 0 0.81 0.02 0 0.815 0.02 0 0.82 0.02 0 0.825 0.02 0 0.83 0.02 0 0.835 0.02 0 0.84 0.02 0 0.845 0.02 0 0.85 0.02 0 0.855 0.02 0 0.86 0.02 0 0.865 0.02 0 0.87 0.02 0 0.875 0.02 0 0.88 0.02 0 0.885 0.02 0 0.89 0.02 0 0.895 0.02 0 0.9 0.02 0 0.905 0.02 0 0.91 0.02 0 0.915 0.02 0 0.92 0.02 0 0.925 0.02 0 0.93 0.02 0 0.935 0.02 0 0.94 0.02 0 0.945 0.02 0 0.95 0.02 0 0.955 0.02 0 0.96 0.02 0 0.965 0.02 0 0.97 0.02 0 0.975 0.02 0 0.98 0.02 0 0.985 0.02 0 0.99 0.02 0 0.995 0.02 0 1 0.02 0 0 0.04 0 0.005 0.04 0 0.01 0.04 0 0.015 0.04 0 0.02 0.04 0 0.025 0.04 0 0.03 0.04 0 0.035 0.04 0 0.04 0.04 0 0.045 0.04 0 0.05 0.04 0 0.055 0.04 0 0.06 0.04 0 0.065 0.04 0 0.07 0.04 0 0.075 0.04 0 0.08 0.04 0 0.085 0.04 0 0.09 0.04 0 0.095 0.04 0 0.1 0.04 0 0.105 0.04 0 0.11 0.04 0 0.115 0.04 0 0.12 0.04 0 0.125 0.04 0 0.13 0.04 0 0.135 0.04 0 0.14 0.04 0 0.145 0.04 0 0.15 0.04 0 0.155 0.04 0 0.16 0.04 0 0.165 0.04 0 0.17 0.04 0 0.175 0.04 0 0.18 0.04 0 0.185 0.04 0 0.19 0.04 0 0.195 0.04 0 0.2 0.04 0 0.205 0.04 0 0.21 0.04 0 0.215 0.04 0 0.22 0.04 0 0.225 0.04 0 0.23 0.04 0 0.235 0.04 0 0.24 0.04 0 0.245 0.04 0 0.25 0.04 0 0.255 0.04 0 0.26 0.04 0 0.265 0.04 0 0.27 0.04 0 0.275 0.04 0 0.28 0.04 0 0.285 0.04 0 0.29 0.04 0 0.295 0.04 0 0.3 0.04 0 0.305 0.04 0 0.31 0.04 0 0.315 0.04 0 0.32 0.04 0 0.325 0.04 0 0.33 0.04 0 0.335 0.04 0 0.34 0.04 0 0.345 0.04 0 0.35 0.04 0 0.355 0.04 0 0.36 0.04 0 0.365 0.04 0 0.37 0.04 0 0.375 0.04 0 0.38 0.04 0 0.385 0.04 0 0.39 0.04 0 0.395 0.04 0 0.4 0.04 0 0.405 0.04 0 0.41 0.04 0 0.415 0.04 0 0.42 0.04 0 0.425 0.04 0 0.43 0.04 0 0.435 0.04 0 0.44 0.04 0 0.445 0.04 0 0.45 0.04 0 0.455 0.04 0 0.46 0.04 0 0.465 0.04 0 0.47 0.04 0 0.475 0.04 0 0.48 0.04 0 0.485 0.04 0 0.49 0.04 0 0.495 0.04 0 0.5 0.04 0 0.505 0.04 0 0.51 0.04 0 0.515 0.04 0 0.52 0.04 0 0.525 0.04 0 0.53 0.04 0 0.535 0.04 0 0.54 0.04 0 0.545 0.04 0 0.55 0.04 0 0.555 0.04 0 0.56 0.04 0 0.565 0.04 0 0.57 0.04 0 0.575 0.04 0 0.58 0.04 0 0.585 0.04 0 0.59 0.04 0 0.595 0.04 0 0.6 0.04 0 0.605 0.04 0 0.61 0.04 0 0.615 0.04 0 0.62 0.04 0 0.625 0.04 0 0.63 0.04 0 0.635 0.04 0 0.64 0.04 0 0.645 0.04 0 0.65 0.04 0 0.655 0.04 0 0.66 0.04 0 0.665 0.04 0 0.67 0.04 0 0.675 0.04 0 0.68 0.04 0 0.685 0.04 0 0.69 0.04 0 0.695 0.04 0 0.7 0.04 0 0.705 0.04 0 0.71 0.04 0 0.715 0.04 0 0.72 0.04 0 0.725 0.04 0 0.73 0.04 0 0.735 0.04 0 0.74 0.04 0 0.745 0.04 0 0.75 0.04 0 0.755 0.04 0 0.76 0.04 0 0.765 0.04 0 0.77 0.04 0 0.775 0.04 0 0.78 0.04 0 0.785 0.04 0 0.79 0.04 0 0.795 0.04 0 0.8 0.04 0 0.805 0.04 0 0.81 0.04 0 0.815 0.04 0 0.82 0.04 0 0.825 0.04 0 0.83 0.04 0 0.835 0.04 0 0.84 0.04 0 0.845 0.04 0 0.85 0.04 0 0.855 0.04 0 0.86 0.04 0 0.865 0.04 0 0.87 0.04 0 0.875 0.04 0 0.88 0.04 0 0.885 0.04 0 0.89 0.04 0 0.895 0.04 0 0.9 0.04 0 0.905 0.04 0 0.91 0.04 0 0.915 0.04 0 0.92 0.04 0 0.925 0.04 0 0.93 0.04 0 0.935 0.04 0 0.94 0.04 0 0.945 0.04 0 0.95 0.04 0 0.955 0.04 0 0.96 0.04 0 0.965 0.04 0 0.97 0.04 0 0.975 0.04 0 0.98 0.04 0 0.985 0.04 0 0.99 0.04 0 0.995 0.04 0 1 0.04 0 0 0.06 0 0.005 0.06 0 0.01 0.06 0 0.015 0.06 0 0.02 0.06 0 0.025 0.06 0 0.03 0.06 0 0.035 0.06 0 0.04 0.06 0 0.045 0.06 0 0.05 0.06 0 0.055 0.06 0 0.06 0.06 0 0.065 0.06 0 0.07 0.06 0 0.075 0.06 0 0.08 0.06 0 0.085 0.06 0 0.09 0.06 0 0.095 0.06 0 0.1 0.06 0 0.105 0.06 0 0.11 0.06 0 0.115 0.06 0 0.12 0.06 0 0.125 0.06 0 0.13 0.06 0 0.135 0.06 0 0.14 0.06 0 0.145 0.06 0 0.15 0.06 0 0.155 0.06 0 0.16 0.06 0 0.165 0.06 0 0.17 0.06 0 0.175 0.06 0 0.18 0.06 0 0.185 0.06 0 0.19 0.06 0 0.195 0.06 0 0.2 0.06 0 0.205 0.06 0 0.21 0.06 0 0.215 0.06 0 0.22 0.06 0 0.225 0.06 0 0.23 0.06 0 0.235 0.06 0 0.24 0.06 0 0.245 0.06 0 0.25 0.06 0 0.255 0.06 0 0.26 0.06 0 0.265 0.06 0 0.27 0.06 0 0.275 0.06 0 0.28 0.06 0 0.285 0.06 0 0.29 0.06 0 0.295 0.06 0 0.3 0.06 0 0.305 0.06 0 0.31 0.06 0 0.315 0.06 0 0.32 0.06 0 0.325 0.06 0 0.33 0.06 0 0.335 0.06 0 0.34 0.06 0 0.345 0.06 0 0.35 0.06 0 0.355 0.06 0 0.36 0.06 0 0.365 0.06 0 0.37 0.06 0 0.375 0.06 0 0.38 0.06 0 0.385 0.06 0 0.39 0.06 0 0.395 0.06 0 0.4 0.06 0 0.405 0.06 0 0.41 0.06 0 0.415 0.06 0 0.42 0.06 0 0.425 0.06 0 0.43 0.06 0 0.435 0.06 0 0.44 0.06 0 0.445 0.06 0 0.45 0.06 0 0.455 0.06 0 0.46 0.06 0 0.465 0.06 0 0.47 0.06 0 0.475 0.06 0 0.48 0.06 0 0.485 0.06 0 0.49 0.06 0 0.495 0.06 0 0.5 0.06 0 0.505 0.06 0 0.51 0.06 0 0.515 0.06 0 0.52 0.06 0 0.525 0.06 0 0.53 0.06 0 0.535 0.06 0 0.54 0.06 0 0.545 0.06 0 0.55 0.06 0 0.555 0.06 0 0.56 0.06 0 0.565 0.06 0 0.57 0.06 0 0.575 0.06 0 0.58 0.06 0 0.585 0.06 0 0.59 0.06 0 0.595 0.06 0 0.6 0.06 0 0.605 0.06 0 0.61 0.06 0 0.615 0.06 0 0.62 0.06 0 0.625 0.06 0 0.63 0.06 0 0.635 0.06 0 0.64 0.06 0 0.645 0.06 0 0.65 0.06 0 0.655 0.06 0 0.66 0.06 0 0.665 0.06 0 0.67 0.06 0 0.675 0.06 0 0.68 0.06 0 0.685 0.06 0 0.69 0.06 0 0.695 0.06 0 0.7 0.06 0 0.705 0.06 0 0.71 0.06 0 0.715 0.06 0 0.72 0.06 0 0.725 0.06 0 0.73 0.06 0 0.735 0.06 0 0.74 0.06 0 0.745 0.06 0 0.75 0.06 0 0.755 0.06 0 0.76 0.06 0 0.765 0.06 0 0.77 0.06 0 0.775 0.06 0 0.78 0.06 0 0.785 0.06 0 0.79 0.06 0 0.795 0.06 0 0.8 0.06 0 0.805 0.06 0 0.81 0.06 0 0.815 0.06 0 0.82 0.06 0 0.825 0.06 0 0.83 0.06 0 0.835 0.06 0 0.84 0.06 0 0.845 0.06 0 0.85 0.06 0 0.855 0.06 0 0.86 0.06 0 0.865 0.06 0 0.87 0.06 0 0.875 0.06 0 0.88 0.06 0 0.885 0.06 0 0.89 0.06 0 0.895 0.06 0 0.9 0.06 0 0.905 0.06 0 0.91 0.06 0 0.915 0.06 0 0.92 0.06 0 0.925 0.06 0 0.93 0.06 0 0.935 0.06 0 0.94 0.06 0 0.945 0.06 0 0.95 0.06 0 0.955 0.06 0 0.96 0.06 0 0.965 0.06 0 0.97 0.06 0 0.975 0.06 0 0.98 0.06 0 0.985 0.06 0 0.99 0.06 0 0.995 0.06 0 1 0.06 0 0 0.08 0 0.005 0.08 0 0.01 0.08 0 0.015 0.08 0 0.02 0.08 0 0.025 0.08 0 0.03 0.08 0 0.035 0.08 0 0.04 0.08 0 0.045 0.08 0 0.05 0.08 0 0.055 0.08 0 0.06 0.08 0 0.065 0.08 0 0.07 0.08 0 0.075 0.08 0 0.08 0.08 0 0.085 0.08 0 0.09 0.08 0 0.095 0.08 0 0.1 0.08 0 0.105 0.08 0 0.11 0.08 0 0.115 0.08 0 0.12 0.08 0 0.125 0.08 0 0.13 0.08 0 0.135 0.08 0 0.14 0.08 0 0.145 0.08 0 0.15 0.08 0 0.155 0.08 0 0.16 0.08 0 0.165 0.08 0
[...]
			<PointData Scalars="VitesseX">
				<DataArray Name="VitesseX" type="Float32" format="ascii">
 0 2.18364e-14 1.00345e-14 5.68039e-14 -3.67662e-14 -2.85809e-14 1.01555e-14 -4.28101e-15 1.9088e-14 7.24574e-16 -1.69663e-15 -1.09706e-13 4.41614e-14 -1.88423e-13 6.98241e-14 1.72243e-14 -9.78918e-14 5.29176e-14 -1.33452e-13 -1.8782e-14 -8.23086e-14 -6.62307e-14 -2.21368e-13 -5.96975e-14 -1.33932e-14 -7.36433e-14 -1.86885e-13 1.17561e-14 -1.07272e-13 2.92231e-14 -1.42929e-13 1.33805e-13 -9.4604e-14 -8.2914e-14 4.92659e-14 -1.22149e-13 2.75646e-14 -2.48566e-13 1.433e-14 -3.82385e-13 -2.07358e-13 -3.87306e-13 -3.26953e-13 1.91912e-13 1.56767e-13 -3.1298e-14 1.86995e-13 -3.728e-13 3.26543e-13 -1.14507e-13 -5.129e-14 -1.37552e-14 -4.26052e-13 3.56746e-13 -3.03694e-13 -1.3432e-13 6.21867e-14 -4.91364e-13 4.8267e-13 -9.58594e-14 -5.86889e-14 -1.29894e-13 -3.23214e-13 1.08535e-13 -2.85575e-13 4.33269e-16 -5.94196e-14 -1.60897e-13 1.26212e-13 6.44327e-13 1.07145e-11 1.16669e-10 1.17037e-09 1.07694e-08 9.00946e-08 6.81586e-07 4.63008e-06 2.80082e-05 0.000149336 0.000692854 0.00275196 0.00917203 0.0251056 0.0555908 0.100105 0.151865 0.204788 0.257008 0.308411 0.358992 0.408722 0.457547 0.50538 0.552098 0.597529 0.641444 0.683552 0.723493 0.760843 0.795124 0.82584 0.852534 0.87487 0.892714 0.906205 0.915765 0.922046 0.925809 0.927809 0.928679 0.92888 0.928793 0.928576 0.928271 0.92787 0.927298 0.926361 0.924664 0.921479 0.915557 0.904914 0.886642 0.85688 0.81112 0.745039 0.655973 0.544958 0.418738 0.290346 0.176504 0.091486 0.0400643 0.0152762 0.00534489 0.00178481 0.00057931 0.00018393 5.72123e-05 1.74337e-05 5.20124e-06 1.51832e-06 4.33412e-07 1.20918e-07 3.29566e-08 8.77248e-09 2.27972e-09 5.77604e-10 1.43481e-10 3.42084e-11 8.24683e-12 1.3633e-12 -7.48877e-13 3.20587e-13 -2.5216e-13 2.17323e-13 -6.4149e-13 1.92598e-13 1.88217e-13 4.08852e-13 6.19657e-13 -1.06842e-12 -4.32277e-13 -3.93182e-14 4.82314e-13 7.9126e-13 -2.3786e-13 -6.03033e-13 -5.2208e-13 -1.28177e-13 7.85357e-13 2.82263e-13 -3.42047e-13 -1.53408e-13 -9.2329e-13 1.39147e-13 -2.34162e-14 -2.01738e-13 -4.54584e-13 -7.67215e-13 2.9816e-13 4.14848e-13 1.98634e-13 8.13427e-14 -5.69527e-13 4.11468e-13 -7.07448e-15 -2.45036e-13 -3.254e-13 -5.49729e-13 2.31532e-13 -4.62208e-14 -1.09577e-12 1.30765e-15 -7.41367e-13 4.88081e-13 1.78259e-13 -1.2393e-12 6.56652e-13 1.93825e-13 7.38526e-13 0 0 -3.24775e-15 2.22699e-14 -1.97879e-14 4.27928e-14 2.61796e-14 -7.64054e-16 -6.20836e-15 -9.82629e-15 -2.95342e-14 -5.46377e-14 1.21348e-14 -1.40645e-13 6.63738e-14 -8.94655e-14 -1.6258e-14 4.43478e-14 -1.10384e-13 3.50415e-14 -1.08549e-13 -7.59984e-14 -9.98806e-14 -2.59177e-14 -8.13492e-14 -1.28711e-13 -9.89597e-14 -2.05857e-14 -1.47076e-13 6.21599e-15 -5.16151e-14 9.27867e-14 -1.75673e-13 1.93895e-14 7.12469e-14 -1.47636e-13 -4.90663e-14 -1.45583e-13 -2.41997e-14 -3.16366e-13 -3.22163e-14 -2.62823e-13 -1.66581e-13 -7.19582e-14 -5.89377e-14 -3.34376e-14 1.24525e-13 -1.71654e-13 1.92831e-13 -4.72227e-14 1.43019e-13 -7.42046e-14 -2.44072e-13 1.35164e-13 -4.58002e-13 4.54542e-14 -8.35589e-14 -2.82559e-13 2.77239e-13 -4.11011e-13 1.52999e-13 -2.08292e-14 -5.22311e-14 -7.54227e-14 -2.62356e-13 5.92392e-14 -1.62675e-13 -1.98851e-13 6.11786e-14 -1.77185e-13 1.15233e-12 1.08899e-11 1.16125e-10 1.17103e-09 1.07683e-08 9.00959e-08 6.81585e-07 4.63008e-06 2.80082e-05 0.000149336 0.000692854 0.00275196 0.00917203 0.0251056 0.0555908 0.100105 0.151865 0.204788 0.257008 0.308411 0.358992 0.408722 0.457547 0.50538 0.552098 0.597529 0.641444 0.683552 0.723493 0.760843 0.795124 0.82584 0.852534 0.87487 0.892714 0.906205 0.915765 0.922046 0.925809 0.927809 0.928679 0.92888 0.928793 0.928576 0.928271 0.92787 0.927298 0.926361 0.924664 0.921479 0.915557 0.904914 0.886642 0.85688 0.81112 0.745039 0.655973 0.544958 0.418738 0.290346 0.176504 0.091486 0.0400643 0.0152762 0.00534489 0.00178481 0.00057931 0.00018393 5.72123e-05 1.74337e-05 5.20124e-06 1.51832e-06 4.33412e-07 1.20918e-07 3.29569e-08 8.77201e-09 2.27955e-09 5.78777e-10 1.42755e-10 3.45032e-11 7.50756e-12 1.40761e-12 5.83542e-13 -6.2822e-13 -7.74138e-14 -4.98579e-13 2.11799e-13 9.06738e-14 -5.55076e-14 -3.1459e-13 -5.22932e-13 6.04757e-13 4.5584e-13 -3.0935e-13 -4.35665e-13 -6.30623e-13 9.68511e-14 4.33576e-13 2.97287e-13 1.68551e-13 -4.03606e-13 -2.58112e-13 2.21128e-14 -2.39638e-13 3.76639e-13 -4.73202e-13 -4.48086e-13 -4.98693e-13 -2.50588e-13 2.57653e-13 -1.43112e-13 -3.6607e-14 2.3295e-14 -5.02098e-14 6.25502e-13 -2.40345e-13 -6.24581e-14 -1.00028e-13 -1.59264e-13 2.41063e-13 -4.74763e-13 -3.52854e-13 1.91153e-13 -6.84321e-13 -7.41469e-14 -1.15665e-12 -2.52251e-13 1.16499e-12 -2.75343e-13 1.80697e-13 -7.14179e-13 0 0 -5.394e-17 9.85402e-16 3.55899e-14 2.90846e-14 1.8579e-14 4.0969e-14 3.58703e-15 -1.27928e-14 -3.61337e-14 -2.71211e-14 -5.88194e-14 1.15542e-14 -6.72098e-14 1.48204e-14 -4.95804e-14 -5.64738e-14 2.36163e-14 -7.29886e-14 -4.13914e-14 -9.05412e-14 -2.16243e-14 -7.4887e-14 -3.14039e-14 -1.391e-14 -6.64598e-14 -9.46289e-14 -5.92041e-15 -8.69943e-14 -6.61365e-14 -5.79095e-14 3.17156e-14 -5.9734e-14 -1.07126e-13 -6.80582e-14 -1.14114e-13 -7.82458e-14 -1.78895e-13 -6.94343e-14 -1.60533e-13 -9.01144e-14 -1.05787e-13 -4.90185e-15 2.40431e-14 -2.73848e-14 -4.36284e-14 1.71925e-13 -1.13173e-13 -6.44426e-14 -7.74207e-14 -4.88382e-14 -9.80376e-14 -2.23292e-13 2.88458e-14 -2.21747e-13 -1.98105e-13 -7.83993e-14 -5.53495e-14 1.18422e-13 -9.346e-14 1.81189e-14 9.14247e-15 -2.60992e-14 -7.25499e-14 -1.67154e-13 -7.79361e-14 -1.5555e-13 -2.09041e-13 2.6252e-13 8.59762e-13 1.08303e-11 1.16695e-10 1.17072e-09 1.07688e-08 9.00953e-08 6.81585e-07 4.63008e-06 2.80082e-05 0.000149336 0.000692854 0.00275196 0.00917203 0.0251056 0.0555908 0.100105 0.151865 0.204788 0.257008 0.308411 0.358992 0.408722 0.457547 0.50538 0.552098 0.597529 0.641444 0.683552 0.723493 0.760843 0.795124 0.82584 0.852534 0.87487 0.892714 0.906205 0.915765 0.922046 0.925809 0.927809 0.928679 0.92888 0.928793 0.928576 0.928271 0.92787 0.927298 0.926361 0.924664 0.921479 0.915557 0.904914 0.886642 0.85688 0.81112 0.745039 0.655973 0.544958 0.418738 0.290346 0.176504 0.091486 0.0400643 0.0152762 0.00534489 0.00178481 0.00057931 0.00018393 5.72123e-05 1.74337e-05 5.20124e-06 1.51832e-06 4.33412e-07 1.20918e-07 3.29567e-08 8.77221e-09 2.27968e-09 5.78032e-10 1.43235e-10 3.41792e-11 8.1159e-12 1.41919e-12 -1.01922e-13 -6.90838e-14 -5.47122e-13 -2.25247e-13 8.56795e-14 -3.94181e-14 4.13848e-14 -3.50533e-13 -1.2076e-13 -1.06983e-13 2.20589e-14 -1.16129e-13 -3.62191e-13 -3.14339e-13 -2.93861e-13 2.3328e-13 3.623e-13 -1.85418e-13 -3.15064e-14 -3.76202e-13 1.15208e-13 2.43572e-13 -3.16617e-13 -3.79095e-13 -6.39811e-13 -2.78424e-13 -3.20046e-13 1.1656e-13 1.13009e-13 -8.68172e-14 3.16276e-13 1.35284e-13 -1.59958e-13 4.17091e-13 1.6598e-13 2.26623e-13 -1.8299e-13 -4.55018e-13 9.15766e-14 1.73636e-13 -5.71927e-13 -1.62387e-13 -8.29245e-13 -9.72618e-14 3.12536e-13 -2.40716e-13 1.65913e-13 -4.61223e-13 3.2914e-13 0 0 2.56577e-14 2.13734e-14 4.29239e-14 1.18562e-14 1.97257e-15 2.64943e-14 -2.3109e-14 1.06978e-14 1.38327e-15 -2.07158e-15 -6.11439e-15 2.47893e-14 -4.76102e-14 1.31443e-14 -3.0807e-14 -7.62454e-14 -4.42484e-14 -9.44359e-14 -2.39734e-14 -5.00683e-14 -5.46318e-15 -1.70473e-14 -1.05871e-14 1.22278e-14 2.59628e-14 -1.28611e-13 -1.72042e-14 -1.21543e-13 -1.10222e-13 -5.3453e-14 -4.12662e-14 -9.58612e-14 -8.28882e-14 -1.20467e-13 -1.06928e-13 -1.06895e-13 -1.34509e-13 -3.67462e-14 -2.28154e-13 -1.22372e-13 -9.76637e-14 2.83859e-14 1.69094e-13 1.87692e-13 -4.27478e-14 4.95094e-14 -2.61449e-13 1.96491e-14 -1.14331e-13 -1.47294e-13 -7.44469e-14 -2.48768e-13 -1.65996e-15 -2.59294e-13 -2.0659e-13 -2.98551e-14 -1.61503e-13 3.16291e-13 7.47171e-14 -5.07713e-14 -9.39913e-14 -1.18619e-14 -2.47917e-14 -2.76829e-13 -1.89341e-13 1.68575e-14 -7.44117e-14 7.65097e-14 7.90756e-13 1.0696e-11 1.16809e-10 1.17088e-09 1.07687e-08 9.00951e-08 6.81586e-07 4.63008e-06 2.80082e-05 0.000149336 0.000692854 0.00275196 0.00917203 0.0251056 0.0555908 0.100105 0.151865 0.204788 0.257008 0.308411 0.358992 0.408722 0.457547 0.50538 0.552098 0.597529 0.641444 0.683552 0.723493 0.760843 0.795124 0.82584 0.852534 0.87487 0.892714 0.906205 0.915765 0.922046 0.925809 0.927809 0.928679 0.92888 0.928793 0.928576 0.928271 0.92787 0.927298 0.926361 0.924664 0.921479 0.915557 0.904914 0.886642 0.85688 0.81112 0.745039 0.655973 0.544958 0.418738 0.290346 0.176504 0.091486 0.0400643 0.0152762 0.00534489 0.00178481 0.00057931 0.00018393 5.72123e-05 1.74337e-05 5.20124e-06 1.51832e-06 4.33412e-07 1.20918e-07 3.29568e-08 8.77213e-09 2.27951e-09 5.77682e-10 1.43056e-10 3.43008e-11 8.08987e-12 1.67708e-12 1.61151e-13 2.93366e-13 -5.04706e-13 -1.15953e-13 -2.63858e-13 8.7881e-14 9.44469e-14 -8.81367e-15 9.43836e-14 -4.75721e-13 -2.92141e-13 6.13558e-14 -9.46609e-15 1.38787e-13 1.63768e-13 -3.83041e-13 -3.75585e-13 -1.4771e-13 4.29881e-13 7.62252e-14 -2.9705e-13 -3.8487e-13 -6.15276e-13 -2.37308e-13 -4.98409e-13 -3.5369e-13 -4.27919e-13 -1.61597e-13 1.62593e-13 5.19472e-13 2.64646e-13 8.033e-14 -1.81325e-13 4.6352e-13 -1.32633e-13 -1.54293e-13 -2.88922e-13 -2.30981e-13 1.90094e-13 -2.71954e-13 -6.04636e-13 1.78062e-13 -7.31449e-13 -3.86567e-13 2.1731e-13 -9.45313e-14 1.55907e-13 -2.49592e-13 -2.8915e-13 0 0 7.2849e-16 1.61907e-14 -1.31601e-14 4.15832e-14 3.0511e-14 -6.25994e-15 -1.7134e-14 5.36998e-15 -7.48862e-15 -3.1155e-14 7.25012e-14 -8.38479e-14 1.15841e-13 -7.13656e-14 4.89233e-15 3.72707e-14 -1.36717e-13 3.92832e-14 -9.06883e-14 5.54342e-15 -3.41792e-14 1.11714e-13 -4.45266e-14 -9.3273e-14 -5.07358e-14 -3.60089e-15 -1.5982e-13 -4.12121e-14 -1.19295e-13 1.48037e-14 -2.76782e-13 1.92749e-14 6.42914e-14 -1.87699e-13 -8.80853e-14 -1.35147e-13 1.53654e-15 -2.56767e-13 -2.13675e-14 -2.30406e-13 -6.58527e-14 1.05809e-13 -2.98562e-14 9.47465e-14 2.04531e-13 -1.38872e-13 2.49019e-13 -6.11964e-14 7.21302e-14 -1.48939e-13 -2.96442e-13 1.5967e-13 -5.47267e-13 -1.10461e-13 -1.47853e-13 -1.48918e-13 2.65171e-13 -2.46492e-13 2.27714e-13 -3.1656e-14 -1.48954e-13 -8.47478e-14 -2.11109e-13 -6.79075e-14 -3.09536e-13 -2.38024e-13 1.83356e-13 -2.02544e-13 1.26368e-12 1.08508e-11 1.16436e-10 1.17127e-09 1.07682e-08 9.00959e-08 6.81586e-07 4.63008e-06 2.80082e-05 0.000149336 0.000692854 0.00275196 0.00917203 0.0251056 0.0555908 0.100105 0.151865 0.204788 0.257008 0.308411 0.358992 0.408722 0.457547 0.50538 0.552098 0.597529 0.641444 0.683552 0.723493 0.760843 0.795124 0.82584 0.852534 0.87487 0.892714 0.906205 0.915765 0.922046 0.925809 0.927809 0.928679 0.92888 0.928793 0.928576 0.928271 0.92787 0.927298 0.926361 0.924664 0.921479 0.915557 0.904914 0.886642 0.85688 0.81112 0.745039 0.655973 0.544958 0.418738 0.290346 0.176504 0.091486 0.0400643 0.0152762 0.00534489 0.00178481 0.00057931 0.00018393 5.72123e-05 1.74337e-05 5.20124e-06 1.51832e-06 4.33412e-07 1.20918e-07 3.29571e-08 8.772e-09 2.27913e-09 5.78515e-10 1.42602e-10 3.44339e-11 7.6235e-12 1.72056e-12 9.04646e-13 -5.0918e-13 -1.22417e-13 -4.57911e-13 3.07771e-13 4.64936e-13 2.15937e-13 1.09543e-13 -4.57865e-13 6.75418e-13 3.57366e-13 -3.45447e-13 -5.07298e-13 -4.58071e-13 1.57677e-13 -1.15229e-13 2.83281e-13 2.22604e-13 -1.54621e-15 -6.72906e-14 -2.1532e-13 -7.88621e-13 1.29069e-13 -6.73954e-13 -6.06124e-13 -7.49609e-13 -6.80458e-13 2.13258e-13 -3.16983e-13 2.78686e-13 1.59582e-13 3.28733e-13 8.06816e-13 -2.95261e-13 -2.02527e-13 -2.75008e-13 -2.59687e-13 4.32843e-13 -4.17075e-13 -5.30826e-13 2.12593e-13 -3.26747e-13 -2.06137e-13 -1.20049e-12 -3.64518e-13 1.3045e-12 -4.22177e-14 3.04942e-13 -9.35393e-13 0 0 -2.16345e-14 -4.28999e-14 5.53915e-14 -4.72865e-15 1.32947e-14 2.81131e-14 2.72597e-14 2.49936e-15 -3.02183e-14 -4.83021e-15 -9.43836e-14 1.31285e-13 -1.28688e-13 1.09376e-13 2.19782e-14 -7.25026e-14 1.3598e-13 -8.20741e-14 -1.78959e-14 -1.70904e-16 3.28499e-14 -6.17829e-14 -2.76859e-14 5.20667e-15 -1.6204e-13 -8.49506e-14 8.83462e-15 -1.33031e-13 -1.79661e-14 -3.07808e-13 7.75492e-14 -2.25789e-14 -1.45301e-13 7.39583e-14 -2.14559e-13 1.05736e-13 -2.85864e-13 6.81519e-14 -2.25446e-13 -7.80088e-14 -2.02096e-13 -3.79946e-14 -4.00277e-14 -1.70176e-14 1.26954e-13 4.9739e-13 3.6129e-14 1.30412e-13 -1.82463e-13 -3.84653e-15 -1.65676e-13 -3.26088e-13 2.39227e-13 -5.40429e-13 -2.45939e-13 2.32381e-13 -3.03194e-13 4.1597e-13 -2.82785e-13 5.74379e-14 -1.17073e-13 -3.70339e-13 1.15513e-13 -3.20519e-13 -7.04773e-14 -4.82579e-13 -1.858e-13 4.47515e-13 1.00504e-12 1.09051e-11 1.17064e-10 1.17052e-09 1.07692e-08 9.00949e-08 6.81586e-07 4.63008e-06 2.80082e-05 0.000149336 0.000692854 0.00275196 0.00917203 0.0251056 0.0555908 0.100105 0.151865 0.204788 0.257008 0.308411 0.358992 0.408722 0.457547 0.50538 0.552098 0.597529 0.641444 0.683552 0.723493 0.760843 0.795124 0.82584 0.852534 0.87487 0.892714 0.906205 0.915765 0.922046 0.925809 0.927809 0.928679 0.92888 0.928793 0.928576 0.928271 0.92787 0.927298 0.926361 0.924664 0.921479 0.915557 0.904914 0.886642 0.85688 0.81112 0.745039 0.655973 0.544958 0.418738 0.290346 0.176504 0.091486 0.0400643 0.0152762 0.00534489 0.00178481 0.00057931 0.00018393 5.72123e-05 1.74337e-05 5.20124e-06 1.51832e-06 4.33412e-07 1.20918e-07 3.29568e-08 8.77263e-09 2.27922e-09 5.77781e-10 1.43533e-10 3.38266e-11 8.53076e-12 1.47342e-12 -6.32814e-13 -1.66233e-13 -4.26999e-13 8.00705e-14 2.49528e-13 6.86524e-13 6.24982e-13 5.7368e-13 3.19503e-13 -1.89618e-13 -8.25242e-16 -4.6648e-13 -3.66402e-13 2.30111e-13 -1.03147e-12 -4.68002e-13 9.25677e-13 -9.54867e-14 6.66701e-13 -2.40947e-13 7.60225e-15 5.50914e-15 -8.21111e-13 -5.45932e-13 -6.22297e-13 -5.53037e-13 -1.09858e-12 -2.9969e-13 -1.4875e-13 -1.67143e-13 5.74468e-13 9.49135e-13 -1.64163e-13 2.08778e-13 3.10015e-13 1.66834e-13 -3.14382e-13 -6.14241e-13 1.49873e-13 4.89014e-13 -9.87471e-13 3.55588e-14 -1.20094e-12 9.79e-13 1.44176e-13 -1.25264e-12 1.14291e-12 1.90527e-14 1.53268e-12 0
				</DataArray>
				<DataArray Name="VitesseY" type="Float32" format="ascii">