<?xml version="1.0"?>
<VTKFile type="PolyData">
	<PolyData>
		<Piece NumberOfPoints="1206" NumberOfPolys="1000">
			<Points>
				<DataArray type="Float32" NumberOfComponents="3" format="ascii">
 0 0 0 0.005 0 0 0.01 0 0 0.015 0 0 0.02 0 0 0.025 0 0 0.03 0 0 0.035 0 0 0.04 0 0 0.045 0 0 0.05 0 0 0.055 0 0 0.06 0 0 0.065 0 0 0.07 0 0 0.075 0 0 0.08 0 0 0.085 0 0 0.09 0 0 0.095 0 0 0.1 0 0 0.105 0 0 0.11 0 0 0.115 0 0 0.12 0 0 0.125 0 0 0.13 0 0 0.135 0 0 0.14 0 0 0.145 0 0 0.15 0 0 0.155 0 0 0.16 0 0 0.165 0 0 0.17 0 0 0.175 0 0 0.18 0 0 0.185 0 0 0.19 0 0 0.195 0 0 0.2 0 0 0.205 0 0 0.21 0 0 0.215 0 0 0.22 0 0 0.225 0 0 0.23 0 0 0.235 0 0 0.24 0 0 0.245 0 0 0.25 0 0 0.255 0 0 0.26 0 0 0.265 0 0 0.27 0 0 0.275 0 0 0.28 0 0 0.285 0 0 0.29 0 0 0.295 0 0 0.3 0 0 0.305 0 0 0.31 0 0 0.315 0 0 0.32 0 0 0.325 0 0 0.33 0 0 0.335 0 0 0.34 0 0 0.345 0 0 0.35 0 0 0.355 0 0 0.36 0 0 0.365 0 0 0.37 0 0 0.375 0 0 0.38 0 0 0.385 0 0 0.39 0 0 0.395 0 0 0.4 0 0 0.405 0 0 0.41 0 0 0.415 0 0 0.42 0 0 0.425 0 0 0.43 0 0 0.435 0 0 0.44 0 0 0.445 0 0 0.45 0 0 0.455 0 0 0.46 0 0 0.465 0 0 0.47 0 0 0.475 0 0 0.48 0 0 0.485 0 0 0.49 0 0 0.495 0 0 0.5 0 0 0.505 0 0 0.51 0 0 0.515 0 0 0.52 0 0 0.525 0 0 0.53 0 0 0.535 0 0 0.54 0 0 0.545 0 0 0.55 0 0 0.555 0 0 0.56 0 0 0.565 0 0 0.57 0 0 0.575 0 0 0.58 0 0 0.585 0 0 0.59 0 0 0.595 0 0 0.6 0 0 0.605 0 0 0.61 0 0 0.615 0 0 0.62 0 0 0.625 0 0 0.63 0 0 0.635 0 0 0.64 0 0 0.645 0 0 0.65 0 0 0.655 0 0 0.66 0 0 0.665 0 0 0.67 0 0 0.675 0 0 0.68 0 0 0.685 0 0 0.69 0 0 0.695 0 0 0.7 0 0 0.705 0 0 0.71 0 0 0.715 0 0 0.72 0 0 0.725 0 0 0.73 0 0 0.735 0 0 0.74 0 0 0.745 0 0 0.75 0 0 0.755 0 0 0.76 0 0 0.765 0 0 0.77 0 0 0.775 0 0 0.78 0 0 0.785 0 0 0.79 0 0 0.795 0 0 0.8 0 0 0.805 0 0 0.81 0 0 0.815 0 0 0.82 0 0 0.825 0 0 0.83 0 0 0.835 0 0 0.84 0 0 0.845 0 0 0.85 0 0 0.855 0 0 0.86 0 0 0.865 0 0 0.87 0 0 0.875 0 0 0.88 0 0 0.885 0 0 0.89 0 0 0.895 0 0 0.9 0 0 0.905 0 0 0.91 0 0 0.915 0 0 0.92 0 0 0.925 0 0 0.93 0 0 0.935 0 0 0.94 0 0 0.945 0 0 0.95 0 0 0.955 0 0 0.96 0 0 0.965 0 0 0.97 0 0 0.975 0 0 0.98 0 0 0.985 0 0 0.99 0 0 0.995 0 0 1 0 0 0 0.02 0 0.005 0.02 0 0.01 0.02 0 0.015 0.02 0 0.02 0.02 0 0.025 0.02 0 0.03 0.02 0 0.035 0.02 0 0.04 0.02 0 0.045 0.02 0 0.05 0.02 0 0.055 0.02 0 0.06 0.02 0 0.065 0.02 0 0.07 0.02 0 0.075 0.02 0 0.08 0.02 0 0.085 0.02 0 0.09 0.02 0 0.095 0.02 0 0.1 0.02 0 0.105 0.02 0 0.11 0.02 0 0.115 0.02 0 0.12 0.02 0 0.125 0.02 0 0.13 0.02 0 0.135 0.02 0 0.14 0.02 0 0.145 0.02 0 0.15 0.02 0 0.155 0.02 0 0.16 0.02 0 0.165 0.02 0 0.17 0.02 0 0.175 0.02 0 0.18 0.02 0 0.185 0.02 0 0.19 0.02 0 0.195 0.02 0 0.2 0.02 0 0.205 0.02 0 0.21 0.02 0 0.215 0.02 0 0.22 0.02 0 0.225 0.02 0 0.23 0.02 0 0.235 0.02 0 0.24 0.02 0 0.245 0.02 0 0.25 0.02 0 0.255 0.02 0 0.26 0.02 0 0.265 0.02 0 0.27 0.02 0 0.275 0.02 0 0.28 0.02 0 0.285 0.02 0 0.29 0.02 0 0.295 0.02 0 0.3 0.02 0 0.305 0.02 0 0.31 0.02 0 0.315 0.02 0 0.32 0.02 0 0.325 0.02 0 0.33 0.02 0 0.335 0.02 0 0.34 0.02 0 0.345 0.02 0 0.35 0.02 0 0.355 0.02 0 0.36 0.02 0 0.365 0.02 0 0.37 0.02 0 0.375 0.02 0 0.38 0.02 0 0.385 0.02 0 0.39 0.02 0 0.395 0.02 0 0.4 0.02 0 0.405 0.02 0 0.41 0.02 0 0.415 0.02 0 0.42 0.02 0 0.425 0.02 0 0.43 0.02 0 0.435 0.02 0 0.44 0.02 0 0.445 0.02 0 0.45 0.02 0 0.455 0.02 0 0.46 0.02 0 0.465 0.02 0 0.47 0.02 0 0.475 0.02 0 0.48 0.02 0 0.485 0.02 0 0.49 0.02 0 0.495 0.02 0 0.5 0.02 0 0.505 0.02 0 0.51 0.02 0 0.515 0.02 0 0.52 0.02 0 0.525 0.02 0 0.53 0.02 0 0.535 0.02 0 0.54 0.02 0 0.545 0.02 0 0.55 0.02 0 0.555 0.02 0 0.56 0.02 0 0.565 0.02 0 0.57 0.02 0 0.575 0.02 0 0.58 0.02 0 0.585 0.02 0 0.59 0.02 0 0.595 0.02 0 0.6 0.02 0 0.605 0.02 0 0.61 0.02 0 0.615 0.02 0 0.62 0.02 0 0.625 0.02 0 0.63 0.02 0 0.635 0.02 0 0.64 0.02 0 0.645 0.02 0 0.65 0.02 0 0.655 0.02 0 0.66 0.02 0 0.665 0.02 0 0.67 0.02 0 0.675 0.02 0 0.68 0.02 0 0.685 0.02 0 0.69 0.02 0 0.695 0.02 0 0.7 0.02 0 0.705 0.02 0 0.71 0.02 0 0.715 0.02 0 0.72 0.02 0 0.725 0.02 0 0.73 0.02 0 0.735 0.02 0 0.74 0.02 0 0.745 0.02 0 0.75 0.02 0 0.755 0.02 0 0.76 0.02 0 0.765 0.02 0 0.77 0.02 0 0.775 0.02 0 0.78 0.02 0 0.785 0.02 0 0.79 0.02 0 0.795 0.02 0 0.8 0.02 0 0.805 0.02 0 0.81 0.02 0 0.815 0.02 0 0.82 0.02 0 0.825 0.02 0 0.83 0.02 0 0.835 0.02 0 0.84 0.02 0 0.845 0.02 0 0.85 0.02 0 0.855 0.02 0 0.86 0.02 0 0.865 0.02 0 0.87 0.02 0 0.875 0.02 0 0.88 0.02 0 0.885 0.02 0 0.89 0.02 0 0.895 0.02 0 0.9 0.02 0 0.905 0.02 0 0.91 0.02 0 0.915 0.02 0 0.92 0.02 0 0.925 0.02 0 0.93 0.02 0 0.935 0.02 0 0.94 0.02 0 0.945 0.02 0 0.95 0.02 0 0.955 0.02 0 0.96 0.02 0 0.965 0.02 0 0.97 0.02 0 0.975 0.02 0 0.98 0.02 0 0.985 0.02 0 0.99 0.02 0 0.995 0.02 0 1 0.02 0 0 0.04 0 0.005 0.04 0 0.01 0.04 0 0.015 0.04 0 0.02 0.04 0 0.025 0.04 0 0.03 0.04 0 0.035 0.04 0 0.04 0.04 0 0.045 0.04 0 0.05 0.04 0 0.055 0.04 0 0.06 0.04 0 0.065 0.04 0 0.07 0.04 0 0.075 0.04 0 0.08 0.04 0 0.085 0.04 0 0.09 0.04 0 0.095 0.04 0 0.1 0.04 0 0.105 0.04 0 0.11 0.04 0 0.115 0.04 0 0.12 0.04 0 0.125 0.04 0 0.13 0.04 0 0.135 0.04 0 0.14 0.04 0 0.145 0.04 0 0.15 0.04 0 0.155 0.04 0 0.16 0.04 0 0.165 0.04 0 0.17 0.04 0 0.175 0.04 0 0.18 0.04 0 0.185 0.04 0 0.19 0.04 0 0.195 0.04 0 0.2 0.04 0 0.205 0.04 0 0.21 0.04 0 0.215 0.04 0 0.22 0.04 0 0.225 0.04 0 0.23 0.04 0 0.235 0.04 0 0.24 0.04 0 0.245 0.04 0 0.25 0.04 0 0.255 0.04 0 0.26 0.04 0 0.265 0.04 0 0.27 0.04 0 0.275 0.04 0 0.28 0.04 0 0.285 0.04 0 0.29 0.04 0 0.295 0.04 0 0.3 0.04 0 0.305 0.04 0 0.31 0.04 0 0.315 0.04 0 0.32 0.04 0 0.325 0.04 0 0.33 0.04 0 0.335 0.04 0 0.34 0.04 0 0.345 0.04 0 0.35 0.04 0 0.355 0.04 0 0.36 0.04 0 0.365 0.04 0 0.37 0.04 0 0.375 0.04 0 0.38 0.04 0 0.385 0.04 0 0.39 0.04 0 0.395 0.04 0 0.4 0.04 0 0.405 0.04 0 0.41 0.04 0 0.415 0.04 0 0.42 0.04 0 0.425 0.04 0 0.43 0.04 0 0.435 0.04 0 0.44 0.04 0 0.445 0.04 0 0.45 0.04 0 0.455 0.04 0 0.46 0.04 0 0.465 0.04 0 0.47 0.04 0 0.475 0.04 0 0.48 0.04 0 0.485 0.04 0 0.49 0.04 0 0.495 0.04 0 0.5 0.04 0 0.505 0.04 0 0.51 0.04 0 0.515 0.04 0 0.52 0.04 0 0.525 0.04 0 0.53 0.04 0 0.535 0.04 0 0.54 0.04 0 0.545 0.04 0 0.55 0.04 0 0.555 0.04 0 0.56 0.04 0 0.565 0.04 0 0.57 0.04 0 0.575 0.04 0 0.58 0.04 0 0.585 0.04 0 0.59 0.04 0 0.595 0.04 0 0.6 0.04 0 0.605 0.04 0 0.61 0.04 0 0.615 0.04 0 0.62 0.04 0 0.625 0.04 0 0.63 0.04 0 0.635 0.04 0 0.64 0.04 0 0.645 0.04 0 0.65 0.04 0 0.655 0.04 0 0.66 0.04 0 0.665 0.04 0 0.67 0.04 0 0.675 0.04 0 0.68 0.04 0 0.685 0.04 0 0.69 0.04 0 0.695 0.04 0 0.7 0.04 0 0.705 0.04 0 0.71 0.04 0 0.715 0.04 0 0.72 0.04 0 0.725 0.04 0 0.73 0.04 0 0.735 0.04 0 0.74 0.04 0 0.745 0.04 0 0.75 0.04 0 0.755 0.04 0 0.76 0.04 0 0.765 0.04 0 0.77 0.04 0 0.775 0.04 0 0.78 0.04 0 0.785 0.04 0 0.79 0.04 0 0.795 0.04 0 0.8 0.04 0 0.805 0.04 0 0.81 0.04 0 0.815 0.04 0 0.82 0.04 0 0.825 0.04 0 0.83 0.04 0 0.835 0.04 0 0.84 0.04 0 0.845 0.04 0 0.85 0.04 0 0.855 0.04 0 0.86 0.04 0 0.865 0.04 0 0.87 0.04 0 0.875 0.04 0 0.88 0.04 0 0.885 0.04 0 0.89 0.04 0 0.895 0.04 0 0.9 0.04 0 0.905 0.04 0 0.91 0.04 0 0.915 0.04 0 0.92 0.04 0 0.925 0.04 0 0.93 0.04 0 0.935 0.04 0 0.94 0.04 0 0.945 0.04 0 0.95 0.04 0 0.955 0.04 0 0.96 0.04 0 0.965 0.04 0 0.97 0.04 0 0.975 0.04 0 0.98 0.04 0 0.985 0.04 0 0.99 0.04 0 0.995 0.04 0 1 0.04 0 0 0.06 0 0.005 0.06 0 0.01 0.06 0 0.015 0.06 0 0.02 0.06 0 0.025 0.06 0 0.03 0.06 0 0.035 0.06 0 0.04 0.06 0 0.045 0.06 0 0.05 0.06 0 0.055 0.06 0 0.06 0.06 0 0.065 0.06 0 0.07 0.06 0 0.075 0.06 0 0.08 0.06 0 0.085 0.06 0 0.09 0.06 0 0.095 0.06 0 0.1 0.06 0 0.105 0.06 0 0.11 0.06 0 0.115 0.06 0 0.12 0.06 0 0.125 0.06 0 0.13 0.06 0 0.135 0.06 0 0.14 0.06 0 0.145 0.06 0 0.15 0.06 0 0.155 0.06 0 0.16 0.06 0 0.165 0.06 0 0.17 0.06 0 0.175 0.06 0 0.18 0.06 0 0.185 0.06 0 0.19 0.06 0 0.195 0.06 0 0.2 0.06 0 0.205 0.06 0 0.21 0.06 0 0.215 0.06 0 0.22 0.06 0 0.225 0.06 0 0.23 0.06 0 0.235 0.06 0 0.24 0.06 0 0.245 0.06 0 0.25 0.06 0 0.255 0.06 0 0.26 0.06 0 0.265 0.06 0 0.27 0.06 0 0.275 0.06 0 0.28 0.06 0 0.285 0.06 0 0.29 0.06 0 0.295 0.06 0 0.3 0.06 0 0.305 0.06 0 0.31 0.06 0 0.315 0.06 0 0.32 0.06 0 0.325 0.06 0 0.33 0.06 0 0.335 0.06 0 0.34 0.06 0 0.345 0.06 0 0.35 0.06 0 0.355 0.06 0 0.36 0.06 0 0.365 0.06 0 0.37 0.06 0 0.375 0.06 0 0.38 0.06 0 0.385 0.06 0 0.39 0.06 0 0.395 0.06 0 0.4 0.06 0 0.405 0.06 0 0.41 0.06 0 0.415 0.06 0 0.42 0.06 0 0.425 0.06 0 0.43 0.06 0 0.435 0.06 0 0.44 0.06 0 0.445 0.06 0 0.45 0.06 0 0.455 0.06 0 0.46 0.06 0 0.465 0.06 0 0.47 0.06 0 0.475 0.06 0 0.48 0.06 0 0.485 0.06 0 0.49 0.06 0 0.495 0.06 0 0.5 0.06 0 0.505 0.06 0 0.51 0.06 0 0.515 0.06 0 0.52 0.06 0 0.525 0.06 0 0.53 0.06 0 0.535 0.06 0 0.54 0.06 0 0.545 0.06 0 0.55 0.06 0 0.555 0.06 0 0.56 0.06 0 0.565 0.06 0 0.57 0.06 0 0.575 0.06 0 0.58 0.06 0 0.585 0.06 0 0.59 0.06 0 0.595 0.06 0 0.6 0.06 0 0.605 0.06 0 0.61 0.06 0 0.615 0.06 0 0.62 0.06 0 0.625 0.06 0 0.63 0.06 0 0.635 0.06 0 0.64 0.06 0 0.645 0.06 0 0.65 0.06 0 0.655 0.06 0 0.66 0.06 0 0.665 0.06 0 0.67 0.06 0 0.675 0.06 0 0.68 0.06 0 0.685 0.06 0 0.69 0.06 0 0.695 0.06 0 0.7 0.06 0 0.705 0.06 0 0.71 0.06 0 0.715 0.06 0 0.72 0.06 0 0.725 0.06 0 0.73 0.06 0 0.735 0.06 0 0.74 0.06 0 0.745 0.06 0 0.75 0.06 0 0.755 0.06 0 0.76 0.06 0 0.765 0.06 0 0.77 0.06 0 0.775 0.06 0 0.78 0.06 0 0.785 0.06 0 0.79 0.06 0 0.795 0.06 0 0.8 0.06 0 0.805 0.06 0 0.81 0.06 0 0.815 0.06 0 0.82 0.06 0 0.825 0.06 0 0.83 0.06 0 0.835 0.06 0 0.84 0.06 0 0.845 0.06 0 0.85 0.06 0 0.855 0.06 0 0.86 0.06 0 0.865 0.06 0 0.87 0.06 0 0.875 0.06 0 0.88 0.06 0 0.885 0.06 0 0.89 0.06 0 0.895 0.06 0 0.9 0.06 0 0.905 0.06 0 0.91 0.06 0 0.915 0.06 0 0.92 0.06 0 0.925 0.06 0 0.93 0.06 0 0.935 0.06 0 0.94 0.06 0 0.945 0.06 0 0.95 0.06 0 0.955 0.06 0 0.96 0.06 0 0.965 0.06 0 0.97 0.06 0 0.975 0.06 0 0.98 0.06 0 0.985 0.06 0 0.99 0.06 0 0.995 0.06 0 1 0.06 0 0 0.08 0 0.005 0.08 0 0.01 0.08 0 0.015 0.08 0 0.02 0.08 0 0.025 0.08 0 0.03 0.08 0 0.035 0.08 0 0.04 0.08 0 0.045 0.08 0 0.05 0.08 0 0.055 0.08 0 0.06 0.08 0 0.065 0.08 0 0.07 0.08 0 0.075 0.08 0 0.08 0.08 0 0.085 0.08 0 0.09 0.08 0 0.095 0.08 0 0.1 0.08 0 0.105 0.08 0 0.11 0.08 0 0.115 0.08 0 0.12 0.08 0 0.125 0.08 0 0.13 0.08 0 0.135 0.08 0 0.14 0.08 0 0.145 0.08 0 0.15 0.08 0 0.155 0.08 0 0.16 0.08 0 0.165 0.08 0
[...]
			<PointData Scalars="VitesseX">
				<DataArray Name="VitesseX" type="Float32" format="ascii">
 0 2.85227e-15 -1.14903e-14 3.43523e-15 -3.24528e-16 -3.01598e-14 -1.90333e-14 2.10805e-14 1.03422e-14 3.8599e-14 1.37031e-15 -5.15118e-14 1.53335e-14 -1.07437e-14 3.51469e-15 8.32618e-15 -1.54059e-14 3.79581e-14 -1.81706e-15 -1.4507e-14 -3.69297e-14 7.01346e-14 -6.95558e-15 -8.49226e-14 -7.69271e-14 -9.62205e-14 -8.38073e-14 -2.59557e-14 -2.40843e-13 -1.62641e-13 -1.74166e-13 -1.28612e-13 -1.22978e-13 -1.91476e-13 -9.57644e-14 3.91661e-14 1.54726e-13 1.20842e-13 -7.91845e-15 -1.1708e-13 1.28452e-15 6.81379e-15 -5.7947e-14 -1.32604e-13 -5.77347e-14 -7.60246e-15 3.00474e-14 -2.25369e-13 -9.48563e-14 -1.79911e-13 -1.21764e-13 1.16694e-13 -2.91272e-13 1.39823e-14 -3.64601e-13 -1.35704e-13 5.23494e-14 3.28612e-13 4.49694e-12 3.64533e-11 2.80036e-10 2.0089e-09 1.34454e-08 8.36249e-08 4.81404e-07 2.55352e-06 1.24148e-05 5.49781e-05 0.00022009 0.000789111 0.00250544 0.00695241 0.0166394 0.0340399 0.0596402 0.0911125 0.125178 0.159813 0.194372 0.228739 0.262888 0.29681 0.330496 0.363935 0.397115 0.430017 0.46262 0.494893 0.526801 0.558296 0.589322 0.619808 0.649668 0.678801 0.707082 0.734367 0.760488 0.785259 0.808471 0.829912 0.84937 0.866657 0.881633 0.894225 0.904455 0.912443 0.918407 0.922635 0.92546 0.927214 0.928202 0.928674 0.928823 0.928803 0.928712 0.928578 0.928419 0.928246 0.928069 0.927893 0.927722 0.927555 0.927391 0.927228 0.927057 0.926866 0.926632 0.92631 0.925818 0.925012 0.923638 0.921271 0.917212 0.910359 0.899042 0.880862 0.852618 0.810465 0.750477 0.669787 0.568279 0.450487 0.326637 0.211326 0.118967 0.0574572 0.0241858 0.0092769 0.00338663 0.00120645 0.000423841 0.000147374 5.07611e-05 1.73171e-05 5.84836e-06 1.95412e-06 6.456e-07 2.10773e-07 6.79625e-08 2.16324e-08 6.79361e-09 2.10358e-09 6.42453e-10 1.93181e-10 5.703e-11 1.62623e-11 4.10045e-12 9.95968e-13 8.58601e-14 -2.17919e-13 -8.09755e-14 -3.33462e-13 -2.43984e-13 1.70871e-14 -8.06862e-14 5.74548e-13 1.14235e-13 -3.88573e-13 -2.26095e-13 -2.50561e-13 1.08482e-13 1.44611e-13 -3.11892e-13 -1.23794e-13 -2.96678e-13 1.60266e-13 -1.6631e-13 -1.6768e-14 4.50031e-13 6.29807e-14 5.82479e-13 1.67098e-13 -1.2458e-13 5.61167e-13 2.87625e-13 2.274e-13 -1.35188e-14 -4.16774e-13 4.591e-13 3.84548e-13 0 0 -1.67878e-14 -2.05186e-14 -2.55924e-14 -2.1706e-14 1.56681e-14 2.89521e-14 2.32859e-15 -9.10574e-15 -8.84844e-15 1.37998e-14 3.63137e-14 -1.89251e-14 8.52819e-15 1.40594e-15 -4.705e-15 3.05894e-15 -4.97759e-14 2.38893e-14 5.82131e-15 3.03656e-14 -4.54035e-14 -5.28848e-14 -2.06506e-14 2.63742e-16 -9.23797e-14 -1.25343e-13 -2.16614e-13 -6.55638e-14 -1.50032e-13 -1.84986e-13 -1.56371e-13 -1.21914e-13 -2.4295e-14 -6.7481e-14 9.30652e-14 -8.13197e-14 -3.18081e-14 2.57662e-14 6.20544e-14 -2.24401e-14 -1.36098e-13 -5.14785e-14 -5.94863e-15 -9.08337e-14 -1.81124e-13 -1.24711e-13 9.06854e-14 -3.95909e-14 -2.79911e-14 -3.47313e-14 -2.96001e-13 3.36455e-14 -2.66874e-13 5.88962e-14 -1.04489e-13 -2.00148e-13 5.49359e-13 4.37182e-12 3.6512e-11 2.7977e-10 2.00885e-09 1.34456e-08 8.36249e-08 4.81404e-07 2.55352e-06 1.24148e-05 5.49781e-05 0.00022009 0.000789111 0.00250544 0.00695241 0.0166394 0.0340399 0.0596402 0.0911125 0.125178 0.159813 0.194372 0.228739 0.262888 0.29681 0.330496 0.363935 0.397115 0.430017 0.46262 0.494893 0.526801 0.558296 0.589322 0.619808 0.649668 0.678801 0.707082 0.734367 0.760488 0.785259 0.808471 0.829912 0.84937 0.866657 0.881633 0.894225 0.904455 0.912443 0.918407 0.922635 0.92546 0.927214 0.928202 0.928674 0.928823 0.928803 0.928712 0.928578 0.928419 0.928246 0.928069 0.927893 0.927722 0.927555 0.927391 0.927228 0.927057 0.926866 0.926632 0.92631 0.925818 0.925012 0.923638 0.921271 0.917212 0.910359 0.899042 0.880862 0.852618 0.810465 0.750477 0.669787 0.568279 0.450487 0.326637 0.211326 0.118967 0.0574572 0.0241858 0.0092769 0.00338663 0.00120645 0.000423841 0.000147374 5.07611e-05 1.73171e-05 5.84836e-06 1.95412e-06 6.456e-07 2.10773e-07 6.79624e-08 2.16321e-08 6.7938e-09 2.10443e-09 6.42215e-10 1.93012e-10 5.69501e-11 1.64174e-11 4.45228e-12 9.33296e-13 -1.69658e-13 2.35418e-14 -3.51685e-13 -2.06056e-13 1.27732e-13 -2.17901e-13 8.4814e-14 -2.38953e-13 -1.04927e-13 2.71352e-13 -2.73635e-13 5.25067e-14 -2.71369e-13 -3.05361e-13 7.59659e-14 -3.40599e-13 -1.31176e-13 -3.61154e-13 -6.08886e-14 2.79685e-13 6.63431e-15 3.07897e-13 -1.42977e-13 3.84902e-13 6.61419e-13 6.61316e-14 4.08669e-14 -2.07583e-13 2.19989e-13 3.64581e-13 -1.4918e-13 1.23237e-13 0 0 -8.75785e-15 -2.30489e-14 -1.70662e-14 -1.85269e-14 1.78235e-15 -4.57344e-15 -6.37754e-15 1.03741e-14 6.11179e-15 -3.83719e-15 5.47173e-15 3.92061e-14 1.62967e-14 -7.53914e-15 -8.84588e-15 1.40225e-14 -3.61916e-15 -3.13993e-14 -2.46575e-14 -5.03267e-14 2.89427e-14 -1.44863e-14 -2.40022e-14 -1.38335e-13 -2.62341e-14 -1.41984e-13 -1.37598e-13 -1.42135e-13 -1.47121e-13 -8.55042e-14 -1.29034e-13 -5.21616e-14 -9.20695e-14 6.95823e-14 -5.34135e-14 3.08171e-14 -7.03401e-14 -7.69977e-14 -6.51089e-15 -8.71579e-14 -2.51496e-14 -7.0042e-14 -1.06127e-13 -1.59951e-13 -5.02652e-14 3.59808e-14 -2.92532e-14 -1.00063e-14 -1.64314e-13 -8.87358e-14 8.68469e-14 -3.86093e-14 -2.7485e-15 -2.08185e-13 -6.7368e-14 1.42234e-14 4.45883e-13 4.32196e-12 3.64828e-11 2.79874e-10 2.00873e-09 1.34453e-08 8.36249e-08 4.81404e-07 2.55352e-06 1.24148e-05 5.49781e-05 0.00022009 0.000789111 0.00250544 0.00695241 0.0166394 0.0340399 0.0596402 0.0911125 0.125178 0.159813 0.194372 0.228739 0.262888 0.29681 0.330496 0.363935 0.397115 0.430017 0.46262 0.494893 0.526801 0.558296 0.589322 0.619808 0.649668 0.678801 0.707082 0.734367 0.760488 0.785259 0.808471 0.829912 0.84937 0.866657 0.881633 0.894225 0.904455 0.912443 0.918407 0.922635 0.92546 0.927214 0.928202 0.928674 0.928823 0.928803 0.928712 0.928578 0.928419 0.928246 0.928069 0.927893 0.927722 0.927555 0.927391 0.927228 0.927057 0.926866 0.926632 0.92631 0.925818 0.925012 0.923638 0.921271 0.917212 0.910359 0.899042 0.880862 0.852618 0.810465 0.750477 0.669787 0.568279 0.450487 0.326637 0.211326 0.118967 0.0574572 0.0241858 0.0092769 0.00338663 0.00120645 0.000423841 0.000147374 5.07611e-05 1.73171e-05 5.84837e-06 1.95412e-06 6.456e-07 2.10773e-07 6.79624e-08 2.16325e-08 6.79383e-09 2.10448e-09 6.42556e-10 1.93205e-10 5.69437e-11 1.63695e-11 4.65181e-12 1.10003e-12 1.59107e-13 -4.99152e-13 -1.31638e-13 1.70424e-14 -1.18151e-13 2.61786e-14 -3.6095e-13 -6.13159e-14 -1.83616e-13 -4.28597e-14 3.32499e-13 -3.24625e-13 -1.484e-13 -2.00088e-13 -3.78219e-13 -1.61401e-13 -6.39979e-13 -1.39297e-13 -1.8835e-13 -3.31579e-14 -6.8102e-14 9.30614e-14 3.03213e-13 1.05175e-13 -3.65249e-14 3.16646e-13 1.347e-13 1.38787e-13 -6.24157e-14 -3.6444e-13 4.43699e-13 -2.6138e-13 0 0 5.74727e-15 9.20946e-15 5.69078e-15 7.23353e-16 -2.59056e-14 -2.50891e-14 -2.15049e-14 8.0825e-16 -5.91461e-16 -1.17242e-14 -1.06436e-14 3.41121e-14 -4.34709e-15 4.56742e-14 2.84425e-14 2.13166e-15 1.38179e-14 -4.0499e-14 -2.94462e-14 -6.48998e-14 -9.09798e-15 -7.21244e-14 -8.55099e-14 -4.72847e-14 -8.12827e-14 -9.62032e-14 -8.67911e-14 -1.87112e-13 -5.09304e-14 -8.58638e-14 4.10505e-15 -6.37811e-14 -1.14189e-13 -4.39988e-14 -4.14649e-14 3.25657e-14 4.54972e-14 -3.43231e-14 -3.08194e-14 -7.12688e-14 -3.09257e-14 -1.12259e-13 -1.02249e-13 -7.50969e-14 -1.6203e-13 -3.69646e-14 -1.27603e-13 -1.6743e-14 -1.34607e-14 -3.05981e-14 4.67024e-14 -3.62052e-14 3.78852e-14 -1.59379e-13 -1.07537e-13 1.86487e-14 4.54276e-13 4.48206e-12 3.64787e-11 2.79879e-10 2.00875e-09 1.34455e-08 8.3625e-08 4.81404e-07 2.55352e-06 1.24148e-05 5.49781e-05 0.00022009 0.000789111 0.00250544 0.00695241 0.0166394 0.0340399 0.0596402 0.0911125 0.125178 0.159813 0.194372 0.228739 0.262888 0.29681 0.330496 0.363935 0.397115 0.430017 0.46262 0.494893 0.526801 0.558296 0.589322 0.619808 0.649668 0.678801 0.707082 0.734367 0.760488 0.785259 0.808471 0.829912 0.84937 0.866657 0.881633 0.894225 0.904455 0.912443 0.918407 0.922635 0.92546 0.927214 0.928202 0.928674 0.928823 0.928803 0.928712 0.928578 0.928419 0.928246 0.928069 0.927893 0.927722 0.927555 0.927391 0.927228 0.927057 0.926866 0.926632 0.92631 0.925818 0.925012 0.923638 0.921271 0.917212 0.910359 0.899042 0.880862 0.852618 0.810465 0.750477 0.669787 0.568279 0.450487 0.326637 0.211326 0.118967 0.0574572 0.0241858 0.0092769 0.00338663 0.00120645 0.000423841 0.000147374 5.07611e-05 1.73171e-05 5.84836e-06 1.95412e-06 6.456e-07 2.10773e-07 6.79627e-08 2.16326e-08 6.79397e-09 2.10411e-09 6.42713e-10 1.93227e-10 5.70194e-11 1.6486e-11 4.32311e-12 1.01776e-12 3.25581e-13 3.57539e-15 -9.404e-14 -2.48681e-14 8.68092e-14 -2.86897e-13 -1.51244e-13 3.79535e-13 5.775e-14 -2.21006e-13 -3.01074e-13 -3.05675e-14 -5.74543e-13 -1.26555e-13 3.06537e-14 -5.20016e-13 -1.8482e-13 -4.27577e-13 -1.13297e-13 -3.09738e-13 2.83951e-13 -3.42015e-14 6.87164e-13 -1.29795e-13 8.88715e-14 9.20718e-14 3.85521e-13 2.26069e-13 -3.48779e-14 -4.15988e-13 1.27698e-13 3.879e-13 0 0 1.43736e-15 1.29379e-14 1.59029e-15 3.69981e-15 -1.13161e-15 8.75336e-15 -1.59927e-14 -1.9642e-14 -1.60842e-14 -8.46647e-15 2.49136e-14 -1.20256e-14 -2.60138e-16 4.30553e-14 3.54418e-14 2.52943e-15 -5.28894e-14 5.42908e-15 -3.26162e-14 -2.98136e-14 -1.31876e-13 -1.10763e-13 -3.60921e-14 7.95388e-15 -8.88594e-14 -3.76908e-14 -1.27235e-13 -4.07287e-14 -4.84891e-14 -1.45619e-13 -3.06901e-14 -8.0772e-14 -4.72362e-14 -1.09326e-13 7.11677e-14 -7.9675e-14 6.73165e-14 2.49219e-14 1.68978e-14 -5.47817e-14 -2.17164e-13 -7.36489e-14 -8.86504e-16 -8.30427e-14 -2.48041e-13 -2.19328e-13 5.94766e-14 3.71988e-14 1.06094e-13 4.86544e-14 -2.80832e-13 1.31654e-13 -1.8754e-13 1.06808e-13 -7.79429e-14 -2.18809e-13 5.82267e-13 4.52272e-12 3.65936e-11 2.79852e-10 2.00883e-09 1.34458e-08 8.3625e-08 4.81404e-07 2.55352e-06 1.24148e-05 5.49781e-05 0.00022009 0.000789111 0.00250544 0.00695241 0.0166394 0.0340399 0.0596402 0.0911125 0.125178 0.159813 0.194372 0.228739 0.262888 0.29681 0.330496 0.363935 0.397115 0.430017 0.46262 0.494893 0.526801 0.558296 0.589322 0.619808 0.649668 0.678801 0.707082 0.734367 0.760488 0.785259 0.808471 0.829912 0.84937 0.866657 0.881633 0.894225 0.904455 0.912443 0.918407 0.922635 0.92546 0.927214 0.928202 0.928674 0.928823 0.928803 0.928712 0.928578 0.928419 0.928246 0.928069 0.927893 0.927722 0.927555 0.927391 0.927228 0.927057 0.926866 0.926632 0.92631 0.925818 0.925012 0.923638 0.921271 0.917212 0.910359 0.899042 0.880862 0.852618 0.810465 0.750477 0.669787 0.568279 0.450487 0.326637 0.211326 0.118967 0.0574572 0.0241858 0.0092769 0.00338663 0.00120645 0.000423841 0.000147374 5.07611e-05 1.73171e-05 5.84836e-06 1.95412e-06 6.45601e-07 2.10773e-07 6.79626e-08 2.16323e-08 6.79397e-09 2.10458e-09 6.42519e-10 1.93139e-10 5.71892e-11 1.65334e-11 4.36631e-12 9.58115e-13 -1.04643e-13 3.894e-13 -3.31574e-13 -1.0379e-13 3.97129e-13 -1.28208e-13 2.67062e-13 -2.19634e-13 1.13087e-13 3.39642e-13 -6.09486e-13 1.72836e-13 -6.98446e-13 -3.77777e-13 2.76092e-13 -5.84957e-13 2.41617e-13 -6.14663e-13 -2.00723e-13 -1.37454e-13 -1.49234e-13 3.59556e-13 -5.41037e-14 3.82945e-13 6.65554e-13 -1.8582e-13 1.04188e-13 -1.90793e-13 5.81571e-14 4.66865e-13 -4.16497e-13 2.14797e-13 0 0 1.02923e-14 -9.0939e-15 1.22866e-14 1.19866e-14 -8.38326e-15 -1.83994e-14 1.46927e-14 8.40129e-15 3.7534e-14 -2.73882e-14 -4.20814e-14 3.93204e-14 1.29672e-14 -1.96132e-14 1.40429e-14 7.31665e-15 -3.14311e-15 -2.05382e-14 -8.18046e-14 -1.28142e-13 -2.67292e-14 -7.43531e-15 7.20989e-15 -2.43647e-13 2.0917e-14 -6.51799e-17 5.11875e-14 -1.01219e-13 -1.51937e-13 -9.47137e-14 -1.4353e-13 -1.74542e-14 -1.93121e-13 4.77071e-14 -2.85261e-14 1.54518e-13 8.74168e-14 -9.4956e-14 -1.58777e-13 -9.51771e-14 -1.43767e-13 -1.78533e-14 -1.30235e-13 -2.1186e-13 8.20936e-14 -1.32967e-14 -9.10878e-14 7.21962e-14 -2.13447e-13 -7.12675e-14 2.2732e-13 -1.00063e-13 9.13831e-14 -3.66388e-13 -2.2733e-15 6.17817e-15 3.77643e-13 4.47853e-12 3.66245e-11 2.8019e-10 2.00882e-09 1.34454e-08 8.36251e-08 4.81404e-07 2.55352e-06 1.24148e-05 5.49781e-05 0.00022009 0.000789111 0.00250544 0.00695241 0.0166394 0.0340399 0.0596402 0.0911125 0.125178 0.159813 0.194372 0.228739 0.262888 0.29681 0.330496 0.363935 0.397115 0.430017 0.46262 0.494893 0.526801 0.558296 0.589322 0.619808 0.649668 0.678801 0.707082 0.734367 0.760488 0.785259 0.808471 0.829912 0.84937 0.866657 0.881633 0.894225 0.904455 0.912443 0.918407 0.922635 0.92546 0.927214 0.928202 0.928674 0.928823 0.928803 0.928712 0.928578 0.928419 0.928246 0.928069 0.927893 0.927722 0.927555 0.927391 0.927228 0.927057 0.926866 0.926632 0.92631 0.925818 0.925012 0.923638 0.921271 0.917212 0.910359 0.899042 0.880862 0.852618 0.810465 0.750477 0.669787 0.568279 0.450487 0.326637 0.211326 0.118967 0.0574572 0.0241858 0.0092769 0.00338663 0.00120645 0.000423841 0.000147374 5.07611e-05 1.73171e-05 5.84837e-06 1.95412e-06 6.456e-07 2.10773e-07 6.79625e-08 2.16326e-08 6.79367e-09 2.1046e-09 6.42748e-10 1.93392e-10 5.73567e-11 1.62613e-11 4.58589e-12 1.21013e-12 -1.17057e-13 -4.91658e-13 -1.15949e-13 -4.51098e-14 -1.1511e-13 8.22622e-13 -1.35602e-13 -2.68515e-13 6.7529e-14 1.04301e-13 3.69348e-13 -5.98017e-13 1.06615e-13 -1.47286e-13 -7.29385e-13 1.04719e-13 -4.61411e-13 2.2981e-13 -5.96087e-13 -2.97886e-13 -5.6581e-13 4.20824e-13 -7.67652e-15 6.33124e-13 -3.67102e-13 5.06414e-13 -8.73724e-14 8.64182e-14 -3.92259e-13 -1.09111e-13 5.56471e-13 -7.30891e-13 0
				</DataArray>
				<DataArray Name="VitesseY" type="Float32" format="ascii">