<?xml version="1.0"?>
<VTKFile type="PolyData">
	<PolyData>
		<Piece NumberOfPoints="1206" NumberOfPolys="1000">
			<Points>
				<DataArray type="Float32" NumberOfComponents="3" format="ascii">
 0 0 0 0.005 0 0 0.01 0 0 0.015 0 0 0.02 0 0 0.025 0 0 0.03 0 0 0.035 0 0 0.04 0 0 0.045 0 0 0.05 0 0 0.055 0 0 0.06 0 0 0.065 0 0 0.07 0 0 0.075 0 0 0.08 0 0 0.085 0 0 0.09 0 0 0.095 0 0 0.1 0 0 0.105 0 0 0.11 0 0 0.115 0 0 0.12 0 0 0.125 0 0 0.13 0 0 0.135 0 0 0.14 0 0 0.145 0 0 0.15 0 0 0.155 0 0 0.16 0 0 0.165 0 0 0.17 0 0 0.175 0 0 0.18 0 0 0.185 0 0 0.19 0 0 0.195 0 0 0.2 0 0 0.205 0 0 0.21 0 0 0.215 0 0 0.22 0 0 0.225 0 0 0.23 0 0 0.235 0 0 0.24 0 0 0.245 0 0 0.25 0 0 0.255 0 0 0.26 0 0 0.265 0 0 0.27 0 0 0.275 0 0 0.28 0 0 0.285 0 0 0.29 0 0 0.295 0 0 0.3 0 0 0.305 0 0 0.31 0 0 0.315 0 0 0.32 0 0 0.325 0 0 0.33 0 0 0.335 0 0 0.34 0 0 0.345 0 0 0.35 0 0 0.355 0 0 0.36 0 0 0.365 0 0 0.37 0 0 0.375 0 0 0.38 0 0 0.385 0 0 0.39 0 0 0.395 0 0 0.4 0 0 0.405 0 0 0.41 0 0 0.415 0 0 0.42 0 0 0.425 0 0 0.43 0 0 0.435 0 0 0.44 0 0 0.445 0 0 0.45 0 0 0.455 0 0 0.46 0 0 0.465 0 0 0.47 0 0 0.475 0 0 0.48 0 0 0.485 0 0 0.49 0 0 0.495 0 0 0.5 0 0 0.505 0 0 0.51 0 0 0.515 0 0 0.52 0 0 0.525 0 0 0.53 0 0 0.535 0 0 0.54 0 0 0.545 0 0 0.55 0 0 0.555 0 0 0.56 0 0 0.565 0 0 0.57 0 0 0.575 0 0 0.58 0 0 0.585 0 0 0.59 0 0 0.595 0 0 0.6 0 0 0.605 0 0 0.61 0 0 0.615 0 0 0.62 0 0 0.625 0 0 0.63 0 0 0.635 0 0 0.64 0 0 0.645 0 0 0.65 0 0 0.655 0 0 0.66 0 0 0.665 0 0 0.67 0 0 0.675 0 0 0.68 0 0 0.685 0 0 0.69 0 0 0.695 0 0 0.7 0 0 0.705 0 0 0.71 0 0 0.715 0 0 0.72 0 0 0.725 0 0 0.73 0 0 0.735 0 0 0.74 0 0 0.745 0 0 0.75 0 0 0.755 0 0 0.76 0 0 0.765 0 0 0.77 0 0 0.775 0 0 0.78 0 0 0.785 0 0 0.79 0 0 0.795 0 0 0.8 0 0 0.805 0 0 0.81 0 0 0.815 0 0 0.82 0 0 0.825 0 0 0.83 0 0 0.835 0 0 0.84 0 0 0.845 0 0 0.85 0 0 0.855 0 0 0.86 0 0 0.865 0 0 0.87 0 0 0.875 0 0 0.88 0 0 0.885 0 0 0.89 0 0 0.895 0 0 0.9 0 0 0.905 0 0 0.91 0 0 0.915 0 0 0.92 0 0 0.925 0 0 0.93 0 0 0.935 0 0 0.94 0 0 0.945 0 0 0.95 0 0 0.955 0 0 0.96 0 0 0.965 0 0 0.97 0 0 0.975 0 0 0.98 0 0 0.985 0 0 0.99 0 0 0.995 0 0 1 0 0 0 0.02 0 0.005 0.02 0 0.01 0.02 0 0.015 0.02 0 0.02 0.02 0 0.025 0.02 0 0.03 0.02 0 0.035 0.02 0 0.04 0.02 0 0.045 0.02 0 0.05 0.02 0 0.055 0.02 0 0.06 0.02 0 0.065 0.02 0 0.07 0.02 0 0.075 0.02 0 0.08 0.02 0 0.085 0.02 0 0.09 0.02 0 0.095 0.02 0 0.1 0.02 0 0.105 0.02 0 0.11 0.02 0 0.115 0.02 0 0.12 0.02 0 0.125 0.02 0 0.13 0.02 0 0.135 0.02 0 0.14 0.02 0 0.145 0.02 0 0.15 0.02 0 0.155 0.02 0 0.16 0.02 0 0.165 0.02 0 0.17 0.02 0 0.175 0.02 0 0.18 0.02 0 0.185 0.02 0 0.19 0.02 0 0.195 0.02 0 0.2 0.02 0 0.205 0.02 0 0.21 0.02 0 0.215 0.02 0 0.22 0.02 0 0.225 0.02 0 0.23 0.02 0 0.235 0.02 0 0.24 0.02 0 0.245 0.02 0 0.25 0.02 0 0.255 0.02 0 0.26 0.02 0 0.265 0.02 0 0.27 0.02 0 0.275 0.02 0 0.28 0.02 0 0.285 0.02 0 0.29 0.02 0 0.295 0.02 0 0.3 0.02 0 0.305 0.02 0 0.31 0.02 0 0.315 0.02 0 0.32 0.02 0 0.325 0.02 0 0.33 0.02 0 0.335 0.02 0 0.34 0.02 0 0.345 0.02 0 0.35 0.02 0 0.355 0.02 0 0.36 0.02 0 0.365 0.02 0 0.37 0.02 0 0.375 0.02 0 0.38 0.02 0 0.385 0.02 0 0.39 0.02 0 0.395 0.02 0 0.4 0.02 0 0.405 0.02 0 0.41 0.02 0 0.415 0.02 0 0.42 0.02 0 0.425 0.02 0 0.43 0.02 0 0.435 0.02 0 0.44 0.02 0 0.445 0.02 0 0.45 0.02 0 0.455 0.02 0 0.46 0.02 0 0.465 0.02 0 0.47 0.02 0 0.475 0.02 0 0.48 0.02 0 0.485 0.02 0 0.49 0.02 0 0.495 0.02 0 0.5 0.02 0 0.505 0.02 0 0.51 0.02 0 0.515 0.02 0 0.52 0.02 0 0.525 0.02 0 0.53 0.02 0 0.535 0.02 0 0.54 0.02 0 0.545 0.02 0 0.55 0.02 0 0.555 0.02 0 0.56 0.02 0 0.565 0.02 0 0.57 0.02 0 0.575 0.02 0 0.58 0.02 0 0.585 0.02 0 0.59 0.02 0 0.595 0.02 0 0.6 0.02 0 0.605 0.02 0 0.61 0.02 0 0.615 0.02 0 0.62 0.02 0 0.625 0.02 0 0.63 0.02 0 0.635 0.02 0 0.64 0.02 0 0.645 0.02 0 0.65 0.02 0 0.655 0.02 0 0.66 0.02 0 0.665 0.02 0 0.67 0.02 0 0.675 0.02 0 0.68 0.02 0 0.685 0.02 0 0.69 0.02 0 0.695 0.02 0 0.7 0.02 0 0.705 0.02 0 0.71 0.02 0 0.715 0.02 0 0.72 0.02 0 0.725 0.02 0 0.73 0.02 0 0.735 0.02 0 0.74 0.02 0 0.745 0.02 0 0.75 0.02 0 0.755 0.02 0 0.76 0.02 0 0.765 0.02 0 0.77 0.02 0 0.775 0.02 0 0.78 0.02 0 0.785 0.02 0 0.79 0.02 0 0.795 0.02 0 0.8 0.02 0 0.805 0.02 0 0.81 0.02 0 0.815 0.02 0 0.82 0.02 0 0.825 0.02 0 0.83 0.02 0 0.835 0.02 0 0.84 0.02 0 0.845 0.02 0 0.85 0.02 0 0.855 0.02 0 0.86 0.02 0 0.865 0.02 0 0.87 0.02 0 0.875 0.02 0 0.88 0.02 0 0.885 0.02 0 0.89 0.02 0 0.895 0.02 0 0.9 0.02 0 0.905 0.02 0 0.91 0.02 0 0.915 0.02 0 0.92 0.02 0 0.925 0.02 0 0.93 0.02 0 0.935 0.02 0 0.94 0.02 0 0.945 0.02 0 0.95 0.02 0 0.955 0.02 0 0.96 0.02 0 0.965 0.02 0 0.97 0.02 0 0.975 0.02 0 0.98 0.02 0 0.985 0.02 0 0.99 0.02 0 0.995 0.02 0 1 0.02 0 0 0.04 0 0.005 0.04 0 0.01 0.04 0 0.015 0.04 0 0.02 0.04 0 0.025 0.04 0 0.03 0.04 0 0.035 0.04 0 0.04 0.04 0 0.045 0.04 0 0.05 0.04 0 0.055 0.04 0 0.06 0.04 0 0.065 0.04 0 0.07 0.04 0 0.075 0.04 0 0.08 0.04 0 0.085 0.04 0 0.09 0.04 0 0.095 0.04 0 0.1 0.04 0 0.105 0.04 0 0.11 0.04 0 0.115 0.04 0 0.12 0.04 0 0.125 0.04 0 0.13 0.04 0 0.135 0.04 0 0.14 0.04 0 0.145 0.04 0 0.15 0.04 0 0.155 0.04 0 0.16 0.04 0 0.165 0.04 0 0.17 0.04 0 0.175 0.04 0 0.18 0.04 0 0.185 0.04 0 0.19 0.04 0 0.195 0.04 0 0.2 0.04 0 0.205 0.04 0 0.21 0.04 0 0.215 0.04 0 0.22 0.04 0 0.225 0.04 0 0.23 0.04 0 0.235 0.04 0 0.24 0.04 0 0.245 0.04 0 0.25 0.04 0 0.255 0.04 0 0.26 0.04 0 0.265 0.04 0 0.27 0.04 0 0.275 0.04 0 0.28 0.04 0 0.285 0.04 0 0.29 0.04 0 0.295 0.04 0 0.3 0.04 0 0.305 0.04 0 0.31 0.04 0 0.315 0.04 0 0.32 0.04 0 0.325 0.04 0 0.33 0.04 0 0.335 0.04 0 0.34 0.04 0 0.345 0.04 0 0.35 0.04 0 0.355 0.04 0 0.36 0.04 0 0.365 0.04 0 0.37 0.04 0 0.375 0.04 0 0.38 0.04 0 0.385 0.04 0 0.39 0.04 0 0.395 0.04 0 0.4 0.04 0 0.405 0.04 0 0.41 0.04 0 0.415 0.04 0 0.42 0.04 0 0.425 0.04 0 0.43 0.04 0 0.435 0.04 0 0.44 0.04 0 0.445 0.04 0 0.45 0.04 0 0.455 0.04 0 0.46 0.04 0 0.465 0.04 0 0.47 0.04 0 0.475 0.04 0 0.48 0.04 0 0.485 0.04 0 0.49 0.04 0 0.495 0.04 0 0.5 0.04 0 0.505 0.04 0 0.51 0.04 0 0.515 0.04 0 0.52 0.04 0 0.525 0.04 0 0.53 0.04 0 0.535 0.04 0 0.54 0.04 0 0.545 0.04 0 0.55 0.04 0 0.555 0.04 0 0.56 0.04 0 0.565 0.04 0 0.57 0.04 0 0.575 0.04 0 0.58 0.04 0 0.585 0.04 0 0.59 0.04 0 0.595 0.04 0 0.6 0.04 0 0.605 0.04 0 0.61 0.04 0 0.615 0.04 0 0.62 0.04 0 0.625 0.04 0 0.63 0.04 0 0.635 0.04 0 0.64 0.04 0 0.645 0.04 0 0.65 0.04 0 0.655 0.04 0 0.66 0.04 0 0.665 0.04 0 0.67 0.04 0 0.675 0.04 0 0.68 0.04 0 0.685 0.04 0 0.69 0.04 0 0.695 0.04 0 0.7 0.04 0 0.705 0.04 0 0.71 0.04 0 0.715 0.04 0 0.72 0.04 0 0.725 0.04 0 0.73 0.04 0 0.735 0.04 0 0.74 0.04 0 0.745 0.04 0 0.75 0.04 0 0.755 0.04 0 0.76 0.04 0 0.765 0.04 0 0.77 0.04 0 0.775 0.04 0 0.78 0.04 0 0.785 0.04 0 0.79 0.04 0 0.795 0.04 0 0.8 0.04 0 0.805 0.04 0 0.81 0.04 0 0.815 0.04 0 0.82 0.04 0 0.825 0.04 0 0.83 0.04 0 0.835 0.04 0 0.84 0.04 0 0.845 0.04 0 0.85 0.04 0 0.855 0.04 0 0.86 0.04 0 0.865 0.04 0 0.87 0.04 0 0.875 0.04 0 0.88 0.04 0 0.885 0.04 0 0.89 0.04 0 0.895 0.04 0 0.9 0.04 0 0.905 0.04 0 0.91 0.04 0 0.915 0.04 0 0.92 0.04 0 0.925 0.04 0 0.93 0.04 0 0.935 0.04 0 0.94 0.04 0 0.945 0.04 0 0.95 0.04 0 0.955 0.04 0 0.96 0.04 0 0.965 0.04 0 0.97 0.04 0 0.975 0.04 0 0.98 0.04 0 0.985 0.04 0 0.99 0.04 0 0.995 0.04 0 1 0.04 0 0 0.06 0 0.005 0.06 0 0.01 0.06 0 0.015 0.06 0 0.02 0.06 0 0.025 0.06 0 0.03 0.06 0 0.035 0.06 0 0.04 0.06 0 0.045 0.06 0 0.05 0.06 0 0.055 0.06 0 0.06 0.06 0 0.065 0.06 0 0.07 0.06 0 0.075 0.06 0 0.08 0.06 0 0.085 0.06 0 0.09 0.06 0 0.095 0.06 0 0.1 0.06 0 0.105 0.06 0 0.11 0.06 0 0.115 0.06 0 0.12 0.06 0 0.125 0.06 0 0.13 0.06 0 0.135 0.06 0 0.14 0.06 0 0.145 0.06 0 0.15 0.06 0 0.155 0.06 0 0.16 0.06 0 0.165 0.06 0 0.17 0.06 0 0.175 0.06 0 0.18 0.06 0 0.185 0.06 0 0.19 0.06 0 0.195 0.06 0 0.2 0.06 0 0.205 0.06 0 0.21 0.06 0 0.215 0.06 0 0.22 0.06 0 0.225 0.06 0 0.23 0.06 0 0.235 0.06 0 0.24 0.06 0 0.245 0.06 0 0.25 0.06 0 0.255 0.06 0 0.26 0.06 0 0.265 0.06 0 0.27 0.06 0 0.275 0.06 0 0.28 0.06 0 0.285 0.06 0 0.29 0.06 0 0.295 0.06 0 0.3 0.06 0 0.305 0.06 0 0.31 0.06 0 0.315 0.06 0 0.32 0.06 0 0.325 0.06 0 0.33 0.06 0 0.335 0.06 0 0.34 0.06 0 0.345 0.06 0 0.35 0.06 0 0.355 0.06 0 0.36 0.06 0 0.365 0.06 0 0.37 0.06 0 0.375 0.06 0 0.38 0.06 0 0.385 0.06 0 0.39 0.06 0 0.395 0.06 0 0.4 0.06 0 0.405 0.06 0 0.41 0.06 0 0.415 0.06 0 0.42 0.06 0 0.425 0.06 0 0.43 0.06 0 0.435 0.06 0 0.44 0.06 0 0.445 0.06 0 0.45 0.06 0 0.455 0.06 0 0.46 0.06 0 0.465 0.06 0 0.47 0.06 0 0.475 0.06 0 0.48 0.06 0 0.485 0.06 0 0.49 0.06 0 0.495 0.06 0 0.5 0.06 0 0.505 0.06 0 0.51 0.06 0 0.515 0.06 0 0.52 0.06 0 0.525 0.06 0 0.53 0.06 0 0.535 0.06 0 0.54 0.06 0 0.545 0.06 0 0.55 0.06 0 0.555 0.06 0 0.56 0.06 0 0.565 0.06 0 0.57 0.06 0 0.575 0.06 0 0.58 0.06 0 0.585 0.06 0 0.59 0.06 0 0.595 0.06 0 0.6 0.06 0 0.605 0.06 0 0.61 0.06 0 0.615 0.06 0 0.62 0.06 0 0.625 0.06 0 0.63 0.06 0 0.635 0.06 0 0.64 0.06 0 0.645 0.06 0 0.65 0.06 0 0.655 0.06 0 0.66 0.06 0 0.665 0.06 0 0.67 0.06 0 0.675 0.06 0 0.68 0.06 0 0.685 0.06 0 0.69 0.06 0 0.695 0.06 0 0.7 0.06 0 0.705 0.06 0 0.71 0.06 0 0.715 0.06 0 0.72 0.06 0 0.725 0.06 0 0.73 0.06 0 0.735 0.06 0 0.74 0.06 0 0.745 0.06 0 0.75 0.06 0 0.755 0.06 0 0.76 0.06 0 0.765 0.06 0 0.77 0.06 0 0.775 0.06 0 0.78 0.06 0 0.785 0.06 0 0.79 0.06 0 0.795 0.06 0 0.8 0.06 0 0.805 0.06 0 0.81 0.06 0 0.815 0.06 0 0.82 0.06 0 0.825 0.06 0 0.83 0.06 0 0.835 0.06 0 0.84 0.06 0 0.845 0.06 0 0.85 0.06 0 0.855 0.06 0 0.86 0.06 0 0.865 0.06 0 0.87 0.06 0 0.875 0.06 0 0.88 0.06 0 0.885 0.06 0 0.89 0.06 0 0.895 0.06 0 0.9 0.06 0 0.905 0.06 0 0.91 0.06 0 0.915 0.06 0 0.92 0.06 0 0.925 0.06 0 0.93 0.06 0 0.935 0.06 0 0.94 0.06 0 0.945 0.06 0 0.95 0.06 0 0.955 0.06 0 0.96 0.06 0 0.965 0.06 0 0.97 0.06 0 0.975 0.06 0 0.98 0.06 0 0.985 0.06 0 0.99 0.06 0 0.995 0.06 0 1 0.06 0 0 0.08 0 0.005 0.08 0 0.01 0.08 0 0.015 0.08 0 0.02 0.08 0 0.025 0.08 0 0.03 0.08 0 0.035 0.08 0 0.04 0.08 0 0.045 0.08 0 0.05 0.08 0 0.055 0.08 0 0.06 0.08 0 0.065 0.08 0 0.07 0.08 0 0.075 0.08 0 0.08 0.08 0 0.085 0.08 0 0.09 0.08 0 0.095 0.08 0 0.1 0.08 0 0.105 0.08 0 0.11 0.08 0 0.115 0.08 0 0.12 0.08 0 0.125 0.08 0 0.13 0.08 0 0.135 0.08 0 0.14 0.08 0 0.145 0.08 0 0.15 0.08 0 0.155 0.08 0 0.16 0.08 0 0.165 0.08 0
[...]
			<PointData Scalars="VitesseX">
				<DataArray Name="VitesseX" type="Float32" format="ascii">
 0 2.55866e-14 -3.46714e-14 7.03969e-14 -3.99877e-14 -5.3682e-14 -8.93658e-14 2.94117e-14 -4.09068e-14 2.06434e-14 -3.11814e-14 -1.6253e-13 1.89199e-13 -2.9313e-13 5.04907e-14 -3.69584e-14 -1.11704e-13 1.82575e-13 -1.33796e-13 -1.74243e-14 -5.46849e-15 4.49012e-14 3.49529e-14 -2.23112e-13 -2.34201e-13 3.34457e-15 2.80401e-13 2.4901e-13 -1.90844e-13 -1.48142e-14 -4.41295e-13 -4.29815e-14 -2.64056e-14 2.12069e-13 2.71398e-14 -1.71982e-13 2.6559e-13 -2.98249e-13 5.81166e-15 -3.76499e-13 2.47191e-13 -2.5448e-14 2.88463e-14 -3.21728e-13 1.687e-13 -8.30519e-15 7.99426e-13 -7.09755e-13 2.27109e-14 -5.2683e-13 -8.1593e-14 5.52288e-13 -4.20973e-13 2.35409e-13 -1.03287e-12 3.41061e-13 9.05527e-13 -8.61867e-13 8.6235e-13 -6.68696e-13 -2.93881e-14 2.46101e-13 -3.39214e-13 4.86758e-13 -3.0665e-13 1.77447e-14 5.38018e-15 -6.56588e-13 6.8889e-13 -7.5038e-16 -2.5995e-13 5.46626e-13 -1.46432e-12 9.90048e-13 -1.69707e-13 1.47549e-13 -3.23242e-13 -3.57714e-13 1.15932e-12 -6.83055e-13 2.68246e-13 8.25926e-14 -5.68703e-13 2.17246e-13 -7.85989e-13 1.14583e-12 3.1587e-12 8.84633e-11 2.60372e-09 6.37998e-08 1.28976e-06 2.10388e-05 0.000268928 0.00258707 0.0176771 0.0793463 0.218333 0.38314 0.52097 0.639552 0.739659 0.816321 0.871688 0.90389 0.900005 0.861157 0.779729 0.65491 0.497152 0.328987 0.180408 0.0770726 0.0249394 0.00649929 0.00149053 0.000314997 6.2274e-05 1.15726e-05 2.02615e-06 3.34791e-07 5.22912e-08 7.73205e-09 1.08458e-09 1.44356e-10 1.87411e-11 1.9193e-12 -9.22411e-13 7.43163e-13 1.77239e-13 5.21906e-13 -1.98013e-13 -1.21663e-12 7.4139e-13 1.17661e-15 1.77586e-13 -8.77195e-13 -1.38697e-12 1.31286e-13 7.44395e-13 1.82747e-13 -1.91737e-13 -4.3238e-13 -4.3493e-13 -4.06554e-13 1.37809e-12 2.88532e-13 -2.93576e-13 5.40208e-13 -1.20416e-13 1.25138e-12 -7.2299e-13 -3.73569e-13 3.84717e-13 -5.25473e-13 1.12112e-12 -5.11328e-14 -1.16319e-12 1.00518e-13 4.99176e-13 1.16368e-12 -1.35723e-12 -1.52887e-12 3.76691e-13 8.04167e-13 6.87355e-13 -7.81932e-13 -1.26089e-12 7.15284e-13 1.30785e-13 -3.2068e-14 7.92491e-13 1.6413e-13 2.71998e-13 -1.07526e-12 9.29922e-14 9.39755e-13 1.857e-13 -4.77617e-14 -1.01248e-12 1.27131e-13 6.99578e-13 2.86157e-13 -2.37357e-14 -1.61173e-12 4.20106e-14 3.61926e-13 -5.71811e-13 -6.68899e-13 -1.34051e-12 2.01794e-13 1.91571e-12 -1.0171e-12 9.32201e-14 -1.96854e-12 2.12471e-12 2.08123e-13 -1.25278e-12 6.36565e-13 5.49054e-13 2.06615e-12 0 0 -2.90011e-14 1.42745e-14 -5.1185e-14 -1.76287e-16 5.41919e-15 -1.26739e-14 -8.67689e-14 -1.69214e-14 -7.79116e-14 -1.06106e-13 8.58566e-14 -1.68348e-13 9.93368e-14 -2.06665e-13 1.90239e-14 9.49562e-14 -2.67745e-13 1.02013e-13 3.89886e-14 5.29047e-14 -3.25301e-14 -9.6238e-14 -1.01338e-13 -1.12566e-13 -9.03085e-15 1.77561e-13 -2.41766e-14 1.11572e-13 -1.55567e-13 -7.81807e-14 -4.09912e-13 -8.58614e-15 1.60828e-13 9.16699e-14 9.97306e-14 -3.31969e-13 5.83916e-14 -3.17227e-13 2.11754e-13 -1.99482e-14 -3.58821e-14 -9.37874e-14 4.59164e-14 -1.57713e-13 3.37423e-13 -4.62134e-13 4.00171e-13 -4.36505e-13 1.19524e-13 -1.77997e-13 -4.33887e-13 2.42655e-13 -6.18267e-13 4.84121e-13 1.07439e-13 -4.53807e-13 6.95944e-13 -6.15907e-13 4.4906e-13 -2.43224e-13 -1.79513e-13 4.50657e-13 -1.03829e-13 1.26923e-13 -1.41e-13 -3.5256e-13 2.13291e-13 -9.28281e-14 -1.30494e-13 2.46093e-13 -5.98188e-13 4.12099e-13 -6.35903e-13 1.38308e-13 -1.98867e-13 3.09921e-13 1.93739e-13 -6.57846e-13 7.42162e-13 -5.71185e-13 1.04761e-13 4.79615e-13 -7.15405e-13 1.57204e-13 4.63183e-13 2.37688e-12 8.9901e-11 2.6045e-09 6.3798e-08 1.28976e-06 2.10388e-05 0.000268928 0.00258707 0.0176771 0.0793463 0.218333 0.38314 0.52097 0.639552 0.739659 0.816321 0.871688 0.90389 0.900005 0.861157 0.779729 0.65491 0.497152 0.328987 0.180408 0.0770726 0.0249394 0.00649929 0.00149053 0.000314997 6.2274e-05 1.15726e-05 2.02615e-06 3.3479e-07 5.2292e-08 7.73229e-09 1.08397e-09 1.44394e-10 1.79428e-11 2.39698e-12 4.36063e-14 1.43889e-13 1.74158e-13 -3.99978e-13 6.17952e-14 5.45343e-14 -1.07163e-13 3.29765e-13 -7.60869e-13 -2.60725e-13 -5.43135e-13 -3.08111e-13 3.34343e-13 4.41757e-13 -1.88722e-13 -1.51536e-13 -5.36986e-13 -9.96804e-14 -7.34349e-15 5.75966e-13 1.04178e-12 -3.82927e-13 2.64503e-13 -3.32136e-13 5.20635e-13 2.56132e-13 -6.92727e-13 5.48666e-13 -3.97451e-13 2.564e-13 2.90895e-13 -5.27751e-14 -3.69382e-13 -6.75713e-13 7.9403e-13 9.63601e-15 -2.94016e-13 -5.0384e-13 -5.24798e-13 3.66047e-13 1.94518e-14 4.18677e-15 1.43664e-13 4.31348e-14 9.59362e-14 2.02333e-13 1.19531e-14 6.01106e-13 -2.99124e-13 -7.96288e-14 1.3431e-13 -3.73064e-14 7.59003e-13 -4.8487e-13 -3.52601e-13 2.69576e-14 -4.6025e-13 9.42201e-13 -8.53266e-13 -6.99552e-13 -7.27952e-13 -7.39556e-13 4.03736e-13 4.12442e-14 -6.58868e-13 8.98469e-13 -5.95831e-13 3.60325e-14 -1.10778e-12 -1.24935e-13 1.7374e-12 1.60075e-13 1.23769e-12 -1.06998e-12 0 0 -2.19828e-14 -4.60305e-15 -1.04617e-14 -6.09175e-14 -1.97059e-15 2.1198e-15 -6.09225e-14 -1.21299e-13 -4.60009e-14 -4.26858e-14 -1.06339e-13 7.95726e-15 2.45696e-14 9.64627e-15 -8.42334e-14 -6.3587e-14 -4.11125e-14 -4.21574e-15 2.73494e-14 2.80966e-14 -8.18736e-14 -2.79684e-13 1.74283e-14 1.4686e-13 -2.22561e-14 -2.16459e-14 -2.41136e-14 4.11556e-14 -5.6692e-14 -2.64175e-13 -1.81781e-13 -1.60684e-13 4.47783e-14 3.30883e-13 -4.98539e-14 -1.12163e-13 -1.75386e-13 4.0274e-15 -3.27234e-14 -9.48607e-14 -8.75519e-14 -4.55835e-14 1.61429e-13 2.86195e-14 -1.78125e-13 -1.36764e-13 -2.02152e-13 -7.93655e-14 -6.75908e-14 -3.47886e-14 -2.96618e-13 -3.38292e-13 2.51239e-13 4.38927e-13 2.22533e-15 -5.94681e-13 -3.03437e-13 5.11182e-13 1.94331e-13 -4.21194e-14 -1.75586e-13 3.86839e-13 2.53808e-13 -1.1255e-13 -2.89409e-13 -1.97226e-13 7.94899e-14 1.25905e-13 -4.62856e-13 -4.10574e-13 3.53206e-13 1.75698e-13 -2.52758e-13 -6.86639e-13 1.62527e-13 5.60381e-13 -3.07964e-13 -5.26475e-13 -3.28734e-13 5.39439e-13 -3.73135e-13 2.21455e-13 7.1031e-13 3.10263e-15 -8.71104e-13 2.40828e-12 9.02829e-11 2.60445e-09 6.37988e-08 1.28976e-06 2.10388e-05 0.000268928 0.00258707 0.0176771 0.0793463 0.218333 0.38314 0.52097 0.639552 0.739659 0.816321 0.871688 0.90389 0.900005 0.861157 0.779729 0.65491 0.497152 0.328987 0.180408 0.0770726 0.0249394 0.00649929 0.00149053 0.000314997 6.2274e-05 1.15726e-05 2.02615e-06 3.34791e-07 5.22913e-08 7.73308e-09 1.08384e-09 1.43867e-10 1.80744e-11 1.73202e-12 1.23492e-12 2.15036e-13 -7.81518e-13 -8.95323e-14 -6.34007e-13 1.22117e-12 -1.15751e-14 -6.34436e-13 -2.53119e-13 -6.20286e-13 7.31452e-13 -3.85201e-13 -8.86059e-13 2.77383e-13 -2.33091e-13 3.48271e-13 1.05185e-12 -9.63513e-13 -1.01517e-12 1.06643e-12 9.93727e-14 9.96184e-13 -4.94264e-13 -4.52883e-13 4.90397e-13 -3.62927e-13 9.88242e-13 -3.98821e-13 -2.82933e-13 -1.15576e-12 1.38622e-12 5.20098e-13 -2.48793e-13 -8.49409e-13 1.83248e-13 6.83781e-13 -4.85886e-13 -6.9341e-13 -4.74663e-13 1.47274e-13 9.88623e-13 -7.65254e-13 -5.23853e-13 4.82586e-13 -2.67843e-13 5.7782e-13 8.21655e-13 -3.48273e-13 -1.75798e-13 -7.61147e-13 7.73318e-13 7.78809e-13 -4.71733e-13 -2.08396e-13 -3.25864e-13 2.77898e-13 6.23519e-13 -7.54265e-13 -1.16898e-13 -1.37292e-12 -2.83592e-13 1.07259e-13 -9.7083e-13 6.37017e-13 -1.20869e-12 4.7179e-14 1.67981e-12 -6.58696e-13 -2.00467e-12 5.47873e-13 1.36197e-12 1.48356e-12 -1.3472e-12 -8.65968e-14 0 0 3.9055e-14 -1.36573e-14 -1.89017e-15 -1.41058e-14 -6.64786e-14 -1.13553e-13 -9.47161e-14 -6.84314e-14 -8.2416e-14 4.8984e-14 -5.85332e-14 1.01805e-13 -1.02808e-13 -3.96216e-14 -5.78273e-14 -1.56297e-13 1.91244e-14 1.24305e-14 -1.13096e-13 -1.62997e-13 -9.06817e-15 9.90475e-14 1.59186e-14 -1.42387e-13 8.84524e-14 1.49442e-13 -1.23217e-13 -1.89921e-13 3.74599e-14 -1.84265e-13 -2.35729e-13 1.7325e-14 1.17413e-13 -3.09454e-16 6.65462e-14 2.18161e-13 -8.52423e-14 -1.0358e-13 -3.20129e-13 -1.70508e-13 -1.87853e-13 4.69485e-14 -1.43595e-13 4.01439e-13 1.0359e-13 1.17477e-13 -5.60203e-13 -3.87818e-13 -4.95315e-13 1.23768e-13 4.98585e-13 -6.58432e-14 -3.10302e-13 -2.93756e-13 2.896e-13 8.83288e-14 3.14979e-14 1.13248e-13 -3.96626e-13 -2.26362e-13 1.9242e-13 1.77939e-13 3.37342e-13 -8.35512e-14 -1.98948e-13 -3.63703e-13 -1.56888e-13 2.65856e-13 5.20456e-13 -2.2712e-13 -5.19749e-15 -5.15583e-13 5.97199e-14 -9.80086e-15 1.22443e-13 -6.67408e-13 -1.6208e-13 -1.29245e-13 -6.80087e-13 9.01969e-14 3.5509e-13 9.68026e-14 -2.94276e-13 -1.29965e-14 1.86913e-13 2.31532e-12 8.88663e-11 2.60388e-09 6.38007e-08 1.28976e-06 2.10388e-05 0.000268928 0.00258707 0.0176771 0.0793463 0.218333 0.38314 0.52097 0.639552 0.739659 0.816321 0.871688 0.90389 0.900005 0.861157 0.779729 0.65491 0.497152 0.328987 0.180408 0.0770726 0.0249394 0.00649929 0.00149053 0.000314997 6.2274e-05 1.15726e-05 2.02615e-06 3.34791e-07 5.2291e-08 7.73253e-09 1.08401e-09 1.44397e-10 1.79943e-11 1.78967e-12 5.72025e-13 2.53609e-13 7.32763e-14 -1.47631e-13 -2.99655e-13 7.64446e-14 1.87881e-13 -2.33112e-14 -1.64466e-13 -6.98975e-13 -1.75534e-13 -4.64911e-13 -4.16941e-13 -9.11187e-13 5.66831e-13 1.07683e-12 -4.17306e-13 5.79569e-14 -2.88083e-13 1.49865e-13 -6.33745e-14 6.18475e-13 1.54147e-13 -3.39002e-13 -5.83959e-13 6.22596e-13 1.14947e-12 -1.99327e-13 -2.1215e-13 -1.03968e-12 -5.56698e-13 8.49665e-14 1.09152e-12 9.84003e-13 -1.14288e-12 -8.95275e-13 -6.98777e-13 9.44448e-13 -4.33757e-13 -1.03777e-12 2.1041e-13 8.0292e-13 8.09242e-14 -1.06953e-12 5.43002e-14 1.68681e-12 -6.72891e-14 -1.0523e-12 -1.65206e-13 2.58999e-13 1.37853e-12 2.77795e-14 -1.23387e-12 -5.67126e-13 5.39335e-13 1.33174e-12 1.16023e-13 -1.4447e-12 -9.68328e-13 -7.26296e-14 -5.5667e-14 -1.04673e-12 -1.3317e-12 -1.47078e-13 2.83762e-12 5.20896e-13 -1.87477e-12 -1.81222e-12 2.98038e-13 1.04098e-12 -2.0424e-13 -2.03895e-13 2.62168e-13 1.33992e-12 0 0 8.6743e-15 1.06158e-14 -4.83887e-14 1.13112e-14 -7.13615e-14 -1.06204e-13 -1.71875e-13 -3.95035e-14 -7.51677e-14 -1.68124e-14 1.2291e-13 -1.76906e-13 8.60851e-15 -1.67289e-13 3.88664e-14 3.20358e-14 -2.74771e-13 6.50201e-14 -1.0735e-14 -1.3566e-13 -1.04665e-14 1.02474e-13 -1.16208e-13 -2.47233e-13 1.80616e-14 2.64618e-14 -1.93886e-13 -5.07641e-14 -8.86295e-14 1.46838e-13 -2.44483e-13 9.97696e-14 2.62344e-13 7.05866e-14 2.99587e-13 -2.7468e-14 4.29708e-14 -3.00358e-13 -1.09773e-13 -3.63792e-13 -2.54108e-13 -2.14044e-13 1.23618e-14 5.92013e-14 3.08735e-13 -4.43437e-13 1.32859e-13 -6.25636e-13 -2.19785e-14 -8.46136e-14 -9.78526e-14 1.36764e-13 -7.05216e-13 2.69734e-13 2.64257e-13 -3.26112e-13 8.23034e-13 -7.14646e-13 2.44526e-13 -3.58539e-13 1.0523e-13 3.55376e-13 -8.43073e-14 2.64292e-13 -1.10128e-13 -6.91061e-13 1.652e-13 -1.55818e-14 5.3884e-13 4.60799e-13 -3.48546e-13 4.90488e-13 -6.94773e-13 2.70831e-13 -3.3015e-13 -7.41799e-13 -7.9449e-14 -1.03442e-12 1.36067e-13 -6.64805e-13 4.88685e-13 7.6901e-14 -1.49009e-12 3.05123e-13 8.86372e-13 2.08585e-12 8.93754e-11 2.60432e-09 6.37986e-08 1.28976e-06 2.10388e-05 0.000268928 0.00258707 0.0176771 0.0793463 0.218333 0.38314 0.52097 0.639552 0.739659 0.816321 0.871688 0.90389 0.900005 0.861157 0.779729 0.65491 0.497152 0.328987 0.180408 0.0770726 0.0249394 0.00649929 0.00149053 0.000314997 6.2274e-05 1.15726e-05 2.02615e-06 3.34791e-07 5.22919e-08 7.73178e-09 1.08394e-09 1.44696e-10 1.81013e-11 2.72616e-12 -5.97645e-14 -6.8784e-13 3.09628e-13 -2.57649e-13 6.86567e-13 -5.66477e-13 -1.43779e-13 1.49962e-13 -2.85418e-13 2.02309e-13 -1.40709e-12 -1.09445e-12 3.49755e-13 -4.16115e-13 6.13506e-13 6.05895e-13 -1.61788e-12 2.92949e-13 5.38446e-13 8.72703e-13 1.16323e-12 -5.19748e-13 8.79013e-13 -3.60419e-13 1.56839e-13 2.2162e-13 -6.92402e-13 3.81753e-13 -2.76036e-13 -9.4521e-14 -1.59381e-12 -1.1497e-12 1.26537e-13 1.49452e-12 7.13579e-13 -8.59759e-13 -1.44889e-12 -1.67531e-12 -1.09019e-12 3.02792e-13 6.33998e-13 1.53134e-12 2.91092e-13 -1.42684e-12 -5.45957e-13 3.54562e-13 1.89139e-13 9.2457e-13 4.3641e-13 1.15661e-13 -7.92381e-13 -3.98284e-13 1.27044e-12 -9.02273e-14 -3.21757e-13 -1.81072e-13 -7.62733e-13 1.55048e-12 -9.64707e-13 -1.95243e-13 -1.78374e-12 -2.35367e-12 6.75081e-13 8.68437e-13 2.76958e-12 3.58099e-13 -3.20269e-12 -1.12461e-12 -1.33463e-13 8.41088e-13 1.72984e-12 -5.04917e-13 1.82785e-12 -6.72755e-13 0 0 -2.11383e-14 -2.38803e-14 5.88466e-14 -1.10636e-13 -7.82273e-14 -4.50807e-14 -7.32135e-14 -1.91806e-13 9.89612e-14 -3.59338e-14 -1.84034e-13 -1.5612e-14 -2.1983e-13 2.27778e-13 -5.00858e-14 -5.21246e-14 4.80498e-14 -2.41075e-13 1.64019e-13 -4.09844e-16 -5.65827e-14 -3.25085e-13 -2.49832e-13 7.49605e-14 -1.63887e-13 -3.63973e-13 1.07797e-13 -5.33631e-14 -6.92423e-14 -1.51077e-13 3.95773e-13 -1.65713e-13 2.69831e-13 6.47359e-13 -5.06899e-15 2.13945e-13 -5.09378e-13 2.54767e-13 -4.4474e-13 -2.89201e-13 -2.61298e-13 -3.9673e-13 2.21212e-13 -1.4311e-13 -6.29111e-13 3.28339e-13 -5.28277e-13 2.61355e-13 4.56127e-14 -2.11938e-13 -3.66049e-13 -1.17765e-12 1.18459e-12 3.72115e-15 7.99483e-14 -2.051e-13 -1.27756e-12 1.46074e-12 1.0415e-13 1.08468e-13 7.95751e-14 -1.11975e-13 3.58732e-13 -8.99107e-14 -1.01433e-13 -3.38669e-13 -2.80013e-13 5.6348e-13 -6.28705e-13 -1.97448e-13 1.76272e-12 7.5025e-14 2.47352e-13 -1.25834e-12 -3.48498e-14 2.88957e-14 -1.19586e-12 -3.88282e-13 -1.19254e-12 9.79491e-13 -6.06009e-13 -1.12483e-12 6.77047e-13 -4.57951e-13 -1.2383e-13 2.76258e-12 9.02453e-11 2.60449e-09 6.37974e-08 1.28976e-06 2.10388e-05 0.000268928 0.00258707 0.0176771 0.0793463 0.218333 0.38314 0.52097 0.639552 0.739659 0.816321 0.871688 0.90389 0.900005 0.861157 0.779729 0.65491 0.497152 0.328987 0.180408 0.0770726 0.0249394 0.00649929 0.00149053 0.000314997 6.2274e-05 1.15726e-05 2.02615e-06 3.34792e-07 5.22915e-08 7.73215e-09 1.08418e-09 1.439e-10 1.92183e-11 2.46238e-12 1.96629e-13 -9.9744e-13 -1.26141e-12 9.22762e-13 3.82827e-13 -1.69205e-13 2.69247e-13 -1.58068e-12 9.5118e-13 2.06249e-13 -1.30092e-12 -1.28197e-12 -1.63017e-13 8.44143e-13 -1.87126e-13 -3.74637e-13 3.41602e-13 -1.66424e-12 1.01549e-12 2.71513e-12 2.74826e-13 1.02198e-12 -1.8822e-13 9.67049e-13 6.98129e-13 -2.41364e-12 6.29049e-14 -1.25829e-12 1.22239e-12 -9.85132e-13 -1.04677e-12 -1.22306e-12 -1.18962e-12 1.83732e-12 1.13412e-12 -1.0955e-13 -1.50727e-12 -4.81449e-12 -5.25251e-13 1.46166e-12 1.52463e-12 6.33244e-13 -7.83915e-13 1.32222e-13 -1.13558e-12 -1.74938e-12 2.40426e-12 9.79722e-13 1.54288e-12 -7.09957e-13 -2.87811e-12 7.32343e-13 1.53468e-12 1.63388e-12 -9.69133e-13 -2.23758e-12 3.86292e-13 9.85714e-13 1.52199e-12 -1.23003e-12 -3.13924e-12 -1.58915e-12 -7.60695e-14 3.42437e-12 6.80003e-13 -3.04527e-12 1.98866e-12 -1.98279e-12 -5.32063e-13 1.15395e-12 1.86453e-12 2.68149e-12 -1.48936e-12 7.57799e-15 0
				</DataArray>
				<DataArray Name="VitesseY" type="Float32" format="ascii">